Protein in water t=   0.00000 step= 0
325755
    1DC5    H5T    1  10.532   5.241   2.672
    1DC5    O5'    2  10.524   5.227   2.767
    1DC5    C5'    3  10.582   5.098   2.792
    1DC5   H5'1    4  10.570   5.043   2.699
    1DC5   H5'2    5  10.544   5.051   2.883
    1DC5    C4'    6  10.730   5.123   2.814
    1DC5    H4'    7  10.783   5.034   2.850
    1DC5    O4'    8  10.789   5.158   2.683
    1DC5    C1'    9  10.891   5.254   2.707
    1DC5    H1'   10  10.985   5.211   2.741
    1DC5     N1   11  10.931   5.335   2.590
    1DC5     C6   12  10.890   5.298   2.461
    1DC5     H6   13  10.813   5.222   2.449
    1DC5     C5   14  10.942   5.356   2.355
    1DC5     H5   15  10.898   5.336   2.259
    1DC5     C4   16  11.044   5.450   2.375
    1DC5     N4   17  11.085   5.520   2.272
    1DC5    H41   18  11.141   5.604   2.277
    1DC5    H42   19  11.031   5.517   2.186
    1DC5     N3   20  11.090   5.483   2.490
    1DC5     C2   21  11.035   5.427   2.598
    1DC5     O2   22  11.095   5.458   2.706
    1DC5    C3'   23  10.769   5.230   2.912
    1DC5    H3'   24  10.679   5.263   2.964
    1DC5    C2'   25  10.821   5.339   2.817
    1DC5   H2'1   26  10.738   5.392   2.772
    1DC5   H2'2   27  10.895   5.406   2.861
    1DC5    O3'   28  10.871   5.191   3.002
    2DG       P   29  10.825   5.126   3.135
    2DG     O1P   30  10.934   5.044   3.196
    2DG     O2P   31  10.693   5.063   3.118
    2DG     O5'   32  10.812   5.254   3.223
    2DG     C5'   33  10.933   5.326   3.259
    2DG    H5'1   34  11.019   5.301   3.197
    2DG    H5'2   35  10.947   5.322   3.367
    2DG     C4'   36  10.917   5.477   3.235
    2DG     H4'   37  11.003   5.522   3.285
    2DG     O4'   38  10.929   5.517   3.100
    2DG     C1'   39  10.846   5.627   3.084
    2DG     H1'   40  10.900   5.713   3.123
    2DG      N9   41  10.826   5.657   2.941
    2DG      C8   42  10.712   5.640   2.867
    2DG      H8   43  10.626   5.585   2.903
    2DG      N7   44  10.739   5.655   2.741
    2DG      C5   45  10.865   5.713   2.730
    2DG      C6   46  10.943   5.758   2.622
    2DG      O6   47  10.919   5.756   2.503
    2DG      N1   48  11.063   5.812   2.664
    2DG      H1   49  11.129   5.840   2.593
    2DG      C2   50  11.107   5.812   2.792
    2DG      N2   51  11.223   5.866   2.808
    2DG     H21   52  11.260   5.913   2.726
    2DG     H22   53  11.258   5.885   2.901
    2DG      N3   54  11.041   5.756   2.896
    2DG      C4   55  10.918   5.714   2.860
    2DG     C3'   56  10.788   5.547   3.289
    2DG     H3'   57  10.716   5.482   3.337
    2DG     C2'   58  10.723   5.596   3.162
    2DG    H2'1   59  10.657   5.527   3.110
    2DG    H2'2   60  10.666   5.683   3.195
    2DG     O3'   61  10.827   5.660   3.363
    3DC       P   62  10.867   5.637   3.517
    3DC     O1P   63  10.932   5.505   3.532
    3DC     O2P   64  10.742   5.667   3.587
    3DC     O5'   65  10.982   5.747   3.539
    3DC     C5'   66  11.118   5.729   3.487
    3DC    H5'1   67  11.125   5.641   3.423
    3DC    H5'2   68  11.187   5.698   3.565
    3DC     C4'   69  11.173   5.851   3.420
    3DC     H4'   70  11.276   5.827   3.391
    3DC     O4'   71  11.121   5.864   3.286
    3DC     C1'   72  11.080   5.996   3.264
    3DC     H1'   73  11.167   6.051   3.231
    3DC      N1   74  10.973   5.992   3.166
    3DC      C6   75  10.851   5.934   3.193
    3DC      H6   76  10.842   5.877   3.284
    3DC      C5   77  10.752   5.942   3.100
    3DC      H5   78  10.665   5.885   3.127
    3DC      C4   79  10.785   5.998   2.972
    3DC      N4   80  10.698   5.982   2.875
    3DC     H41   81  10.722   6.012   2.782
    3DC     H42   82  10.603   5.950   2.887
    3DC      N3   83  10.898   6.053   2.948
    3DC      C2   84  10.991   6.051   3.041
    3DC      O2   85  11.096   6.107   3.008
    3DC     C3'   86  11.164   5.986   3.488
    3DC     H3'   87  11.130   5.976   3.591
    3DC     C2'   88  11.051   6.049   3.405
    3DC    H2'1   89  10.958   6.004   3.440
    3DC    H2'2   90  11.042   6.158   3.412
    3DC     O3'   91  11.288   6.061   3.471
    4DA       P   92  11.311   6.213   3.517
    4DA     O1P   93  11.458   6.218   3.541
    4DA     O2P   94  11.209   6.246   3.617
    4DA     O5'   95  11.285   6.307   3.393
    4DA     C5'   96  11.358   6.292   3.274
    4DA    H5'1   97  11.350   6.188   3.241
    4DA    H5'2   98  11.460   6.314   3.303
    4DA     C4'   99  11.310   6.389   3.161
    4DA     H4'  100  11.381   6.382   3.078
    4DA     O4'  101  11.186   6.361   3.094
    4DA     C1'  102  11.114   6.486   3.082
    4DA     H1'  103  11.144   6.551   3.001
    4DA      N9  104  10.974   6.449   3.079
    4DA      C8  105  10.886   6.386   3.166
    4DA      H8  106  10.910   6.376   3.271
    4DA      N7  107  10.775   6.336   3.109
    4DA      C5  108  10.795   6.366   2.973
    4DA      C6  109  10.726   6.342   2.849
    4DA      N6  110  10.617   6.274   2.845
    4DA     H61  111  10.564   6.270   2.759
    4DA     H62  112  10.587   6.226   2.928
    4DA      N1  113  10.771   6.387   2.735
    4DA      C2  114  10.881   6.461   2.736
    4DA      H2  115  10.920   6.493   2.640
    4DA      N3  116  10.951   6.499   2.837
    4DA      C4  117  10.908   6.443   2.955
    4DA     C3'  118  11.308   6.533   3.212
    4DA     H3'  119  11.332   6.541   3.318
    4DA     C2'  120  11.157   6.560   3.210
    4DA    H2'1  121  11.104   6.509   3.290
    4DA    H2'2  122  11.127   6.664   3.195
    4DA     O3'  123  11.384   6.613   3.127
    5DT       P  124  11.409   6.769   3.153
    5DT     O1P  125  11.532   6.804   3.080
    5DT     O2P  126  11.404   6.797   3.299
    5DT     O5'  127  11.288   6.838   3.084
    5DT     C5'  128  11.288   6.875   2.945
    5DT    H5'1  129  11.322   6.795   2.879
    5DT    H5'2  130  11.355   6.959   2.929
    5DT     C4'  131  11.142   6.913   2.902
    5DT     H4'  132  11.145   6.939   2.796
    5DT     O4'  133  11.055   6.808   2.913
    5DT     C1'  134  10.928   6.876   2.901
    5DT     H1'  135  10.907   6.882   2.794
    5DT      N1  136  10.816   6.793   2.959
    5DT      C6  137  10.808   6.769   3.096
    5DT      H6  138  10.872   6.821   3.166
    5DT      C5  139  10.714   6.681   3.145
    5DT      C7  140  10.710   6.646   3.291
    5DT     H71  141  10.610   6.677   3.320
    5DT     H72  142  10.733   6.540   3.300
    5DT     H73  143  10.788   6.695   3.349
    5DT      C4  144  10.625   6.608   3.053
    5DT      O4  145  10.537   6.526   3.078
    5DT      N3  146  10.634   6.652   2.922
    5DT      H3  147  10.557   6.623   2.864
    5DT      C2  148  10.723   6.738   2.866
    5DT      O2  149  10.714   6.759   2.745
    5DT     C3'  150  11.087   7.032   2.979
    5DT     H3'  151  11.115   7.011   3.083
    5DT     C2'  152  10.938   7.015   2.961
    5DT    H2'1  153  10.881   7.023   3.054
    5DT    H2'2  154  10.898   7.088   2.891
    5DT     O3'  155  11.144   7.158   2.940
    6DG       P  156  11.089   7.301   2.988
    6DG     O1P  157  11.187   7.397   2.942
    6DG     O2P  158  11.052   7.300   3.129
    6DG     O5'  159  10.960   7.335   2.896
    6DG     C5'  160  10.973   7.327   2.754
    6DG    H5'1  161  11.000   7.228   2.717
    6DG    H5'2  162  11.054   7.395   2.726
    6DG     C4'  163  10.836   7.367   2.673
    6DG     H4'  164  10.864   7.374   2.568
    6DG     O4'  165  10.752   7.254   2.701
    6DG     C1'  166  10.639   7.299   2.769
    6DG     H1'  167  10.566   7.302   2.688
    6DG      N9  168  10.604   7.205   2.875
    6DG      C8  169  10.659   7.184   2.996
    6DG      H8  170  10.743   7.241   3.033
    6DG      N7  171  10.608   7.098   3.068
    6DG      C5  172  10.503   7.046   2.988
    6DG      C6  173  10.408   6.939   3.004
    6DG      O6  174  10.401   6.855   3.093
    6DG      N1  175  10.331   6.920   2.891
    6DG      H1  176  10.266   6.842   2.888
    6DG      C2  177  10.326   7.007   2.786
    6DG      N2  178  10.236   6.986   2.690
    6DG     H21  179  10.174   6.907   2.698
    6DG     H22  180  10.231   7.037   2.603
    6DG      N3  181  10.418   7.098   2.766
    6DG      C4  182  10.499   7.117   2.872
    6DG     C3'  183  10.768   7.496   2.711
    6DG     H3'  184  10.838   7.568   2.754
    6DG     C2'  185  10.675   7.441   2.814
    6DG    H2'1  186  10.727   7.442   2.910
    6DG    H2'2  187  10.584   7.502   2.810
    6DG     O3'  188  10.709   7.564   2.599
    7DT       P  189  10.644   7.705   2.615
    7DT     O1P  190  10.656   7.778   2.488
    7DT     O2P  191  10.700   7.773   2.729
    7DT     O5'  192  10.492   7.685   2.646
    7DT     C5'  193  10.412   7.618   2.550
    7DT    H5'1  194  10.466   7.529   2.516
    7DT    H5'2  195  10.386   7.679   2.464
    7DT     C4'  196  10.275   7.571   2.607
    7DT     H4'  197  10.212   7.541   2.524
    7DT     O4'  198  10.297   7.458   2.690
    7DT     C1'  199  10.222   7.476   2.804
    7DT     H1'  200  10.119   7.455   2.775
    7DT      N1  201  10.258   7.386   2.917
    7DT      C6  202  10.349   7.417   3.012
    7DT      H6  203  10.415   7.500   2.993
    7DT      C5  204  10.361   7.343   3.125
    7DT      C7  205  10.468   7.392   3.222
    7DT     H71  206  10.521   7.480   3.185
    7DT     H72  207  10.435   7.441   3.313
    7DT     H73  208  10.522   7.299   3.244
    7DT      C4  209  10.272   7.228   3.155
    7DT      O4  210  10.263   7.159   3.261
    7DT      N3  211  10.190   7.196   3.052
    7DT      H3  212  10.123   7.122   3.062
    7DT      C2  213  10.179   7.270   2.931
    7DT      O2  214  10.112   7.228   2.833
    7DT     C3'  215  10.199   7.673   2.689
    7DT     H3'  216  10.230   7.774   2.664
    7DT     C2'  217  10.235   7.628   2.831
    7DT    H2'1  218  10.337   7.658   2.853
    7DT    H2'2  219  10.162   7.664   2.903
    7DT     O3'  220  10.063   7.654   2.668
    8DG       P  221   9.966   7.775   2.633
    8DG     O1P  222  10.008   7.827   2.501
    8DG     O2P  223   9.969   7.868   2.747
    8DG     O5'  224   9.825   7.704   2.625
    8DG     C5'  225   9.801   7.598   2.534
    8DG    H5'1  226   9.896   7.569   2.488
    8DG    H5'2  227   9.734   7.634   2.456
    8DG     C4'  228   9.726   7.485   2.594
    8DG     H4'  229   9.717   7.411   2.514
    8DG     O4'  230   9.799   7.426   2.694
    8DG     C1'  231   9.713   7.422   2.810
    8DG     H1'  232   9.652   7.332   2.807
    8DG      N9  233   9.800   7.416   2.927
    8DG      C8  234   9.901   7.504   2.971
    8DG      H8  235   9.939   7.581   2.905
    8DG      N7  236   9.945   7.474   3.093
    8DG      C5  237   9.863   7.368   3.137
    8DG      C6  238   9.864   7.293   3.262
    8DG      O6  239   9.925   7.314   3.367
    8DG      N1  240   9.770   7.197   3.261
    8DG      H1  241   9.752   7.147   3.347
    8DG      C2  242   9.683   7.180   3.166
    8DG      N2  243   9.589   7.092   3.185
    8DG     H21  244   9.585   7.031   3.266
    8DG     H22  245   9.526   7.077   3.108
    8DG      N3  246   9.689   7.229   3.042
    8DG      C4  247   9.785   7.328   3.035
    8DG     C3'  248   9.589   7.525   2.649
    8DG     H3'  249   9.554   7.616   2.600
    8DG     C2'  250   9.614   7.534   2.802
    8DG    H2'1  251   9.664   7.623   2.839
    8DG    H2'2  252   9.523   7.509   2.856
    8DG     O3'  253   9.496   7.421   2.625
    9DC       P  254   9.343   7.443   2.646
    9DC     O1P  255   9.282   7.360   2.534
    9DC     O2P  256   9.311   7.582   2.661
    9DC     O5'  257   9.314   7.375   2.790
    9DC     C5'  258   9.290   7.232   2.786
    9DC    H5'1  259   9.383   7.185   2.756
    9DC    H5'2  260   9.213   7.218   2.709
    9DC     C4'  261   9.228   7.176   2.909
    9DC     H4'  262   9.201   7.075   2.877
    9DC     O4'  263   9.320   7.175   3.023
    9DC     C1'  264   9.251   7.235   3.131
    9DC     H1'  265   9.198   7.162   3.192
    9DC      N1  266   9.345   7.312   3.212
    9DC      C6  267   9.412   7.423   3.162
    9DC      H6  268   9.397   7.446   3.058
    9DC      C5  269   9.489   7.497   3.245
    9DC      H5  270   9.542   7.580   3.202
    9DC      C4  271   9.506   7.452   3.377
    9DC      N4  272   9.590   7.509   3.462
    9DC     H41  273   9.611   7.460   3.548
    9DC     H42  274   9.661   7.570   3.424
    9DC      N3  275   9.456   7.335   3.421
    9DC      C2  276   9.366   7.270   3.342
    9DC      O2  277   9.312   7.173   3.390
    9DC     C3'  278   9.104   7.260   2.936
    9DC     H3'  279   9.081   7.345   2.872
    9DC     C2'  280   9.140   7.327   3.066
    9DC    H2'1  281   9.174   7.430   3.053
    9DC    H2'2  282   9.058   7.334   3.138
    9DC     O3'  283   8.984   7.184   2.955
   10DG       P  284   8.838   7.237   2.999
   10DG     O1P  285   8.738   7.146   2.933
   10DG     O2P  286   8.818   7.382   2.991
   10DG     O5'  287   8.840   7.199   3.156
   10DG     C5'  288   8.836   7.062   3.197
   10DG    H5'1  289   8.921   7.008   3.155
   10DG    H5'2  290   8.749   7.010   3.157
   10DG     C4'  291   8.841   7.047   3.348
   10DG     H4'  292   8.843   6.939   3.363
   10DG     O4'  293   8.957   7.105   3.393
   10DG     C1'  294   8.922   7.214   3.474
   10DG     H1'  295   8.922   7.166   3.572
   10DG      N9  296   9.009   7.334   3.466
   10DG      C8  297   9.009   7.436   3.370
   10DG      H8  298   8.938   7.440   3.289
   10DG      N7  299   9.098   7.529   3.394
   10DG      C5  300   9.159   7.492   3.517
   10DG      C6  301   9.266   7.551   3.597
   10DG      O6  302   9.333   7.650   3.575
   10DG      N1  303   9.294   7.480   3.713
   10DG      H1  304   9.371   7.507   3.772
   10DG      C2  305   9.234   7.359   3.739
   10DG      N2  306   9.265   7.307   3.853
   10DG     H21  307   9.344   7.347   3.902
   10DG     H22  308   9.220   7.223   3.886
   10DG      N3  309   9.131   7.307   3.677
   10DG      C4  310   9.097   7.374   3.560
   10DG     C3'  311   8.722   7.122   3.408
   10DG     H3'  312   8.646   7.124   3.329
   10DG     C2'  313   8.779   7.253   3.452
   10DG    H2'1  314   8.757   7.327   3.375
   10DG    H2'2  315   8.725   7.282   3.542
   10DG     O3'  316   8.669   7.055   3.517
   11DT       P  317   8.528   7.097   3.577
   11DT     O1P  318   8.434   6.979   3.566
   11DT     O2P  319   8.491   7.226   3.521
   11DT     O5'  320   8.567   7.134   3.727
   11DT     C5'  321   8.661   7.056   3.805
   11DT    H5'1  322   8.743   7.022   3.742
   11DT    H5'2  323   8.615   6.962   3.835
   11DT     C4'  324   8.725   7.125   3.922
   11DT     H4'  325   8.762   7.052   3.994
   11DT     O4'  326   8.828   7.210   3.878
   11DT     C1'  327   8.811   7.330   3.947
   11DT     H1'  328   8.861   7.307   4.041
   11DT      N1  329   8.875   7.445   3.881
   11DT      C6  330   8.818   7.503   3.763
   11DT      H6  331   8.728   7.455   3.726
   11DT      C5  332   8.872   7.610   3.706
   11DT      C7  333   8.795   7.687   3.594
   11DT     H71  334   8.706   7.630   3.569
   11DT     H72  335   8.770   7.786   3.630
   11DT     H73  336   8.861   7.699   3.508
   11DT      C4  337   8.992   7.669   3.759
   11DT      O4  338   9.056   7.766   3.711
   11DT      N3  339   9.037   7.617   3.881
   11DT      H3  340   9.123   7.651   3.921
   11DT      C2  341   8.990   7.499   3.937
   11DT      O2  342   9.045   7.451   4.039
   11DT     C3'  343   8.627   7.203   4.011
   11DT     H3'  344   8.524   7.186   3.980
   11DT     C2'  345   8.665   7.348   3.982
   11DT    H2'1  346   8.601   7.384   3.901
   11DT    H2'2  347   8.651   7.413   4.068
   11DT     O3'  348   8.645   7.182   4.149
   12DA       P  349   8.526   7.146   4.249
   12DA     O1P  350   8.491   7.006   4.223
   12DA     O2P  351   8.418   7.246   4.232
   12DA     O5'  352   8.602   7.171   4.388
   12DA     C5'  353   8.698   7.073   4.417
   12DA    H5'1  354   8.742   7.028   4.328
   12DA    H5'2  355   8.649   6.992   4.472
   12DA     C4'  356   8.822   7.124   4.494
   12DA     H4'  357   8.885   7.040   4.525
   12DA     O4'  358   8.908   7.218   4.422
   12DA     C1'  359   8.902   7.342   4.496
   12DA     H1'  360   8.992   7.364   4.552
   12DA      N9  361   8.883   7.449   4.397
   12DA      C8  362   8.784   7.460   4.300
   12DA      H8  363   8.708   7.384   4.295
   12DA      N7  364   8.788   7.572   4.229
   12DA      C5  365   8.904   7.632   4.272
   12DA      C6  366   8.975   7.749   4.236
   12DA      N6  367   8.947   7.823   4.134
   12DA     H61  368   9.014   7.891   4.100
   12DA     H62  369   8.862   7.816   4.080
   12DA      N1  370   9.098   7.770   4.282
   12DA      C2  371   9.143   7.693   4.375
   12DA      H2  372   9.243   7.706   4.414
   12DA      N3  373   9.084   7.587   4.430
   12DA      C4  374   8.966   7.556   4.369
   12DA     C3'  375   8.771   7.190   4.623
   12DA     H3'  376   8.666   7.169   4.643
   12DA     C2'  377   8.776   7.337   4.581
   12DA    H2'1  378   8.682   7.367   4.535
   12DA    H2'2  379   8.791   7.403   4.666
   12DA     O3'  380   8.848   7.161   4.740
   13DT       P  381   8.804   7.205   4.880
   13DT     O1P  382   8.884   7.118   4.972
   13DT     O2P  383   8.657   7.211   4.887
   13DT     O5'  384   8.865   7.350   4.887
   13DT     C5'  385   9.010   7.367   4.903
   13DT    H5'1  386   9.073   7.305   4.839
   13DT    H5'2  387   9.050   7.329   4.997
   13DT     C4'  388   9.048   7.512   4.892
   13DT     H4'  389   9.155   7.532   4.902
   13DT     O4'  390   8.998   7.572   4.765
   13DT     C1'  391   8.930   7.691   4.788
   13DT     H1'  392   9.006   7.769   4.800
   13DT      N1  393   8.838   7.720   4.681
   13DT      C6  394   8.715   7.662   4.653
   13DT      H6  395   8.678   7.583   4.717
   13DT      C5  396   8.631   7.701   4.551
   13DT      C7  397   8.503   7.626   4.515
   13DT     H71  398   8.436   7.608   4.600
   13DT     H72  399   8.452   7.682   4.438
   13DT     H73  400   8.531   7.528   4.475
   13DT      C4  401   8.676   7.811   4.461
   13DT      O4  402   8.621   7.859   4.364
   13DT      N3  403   8.790   7.878   4.501
   13DT      H3  404   8.815   7.958   4.445
   13DT      C2  405   8.879   7.831   4.602
   13DT      O2  406   8.982   7.899   4.626
   13DT     C3'  407   8.975   7.601   4.999
   13DT     H3'  408   8.932   7.532   5.071
   13DT     C2'  409   8.865   7.677   4.917
   13DT    H2'1  410   8.770   7.623   4.912
   13DT    H2'2  411   8.851   7.777   4.956
   13DT     O3'  412   9.071   7.690   5.062
   14DT       P  413   9.036   7.800   5.172
   14DT     O1P  414   9.141   7.776   5.267
   14DT     O2P  415   8.895   7.775   5.214
   14DT     O5'  416   9.059   7.947   5.105
   14DT     C5'  417   9.179   7.972   5.044
   14DT    H5'1  418   9.193   7.901   4.962
   14DT    H5'2  419   9.257   7.947   5.115
   14DT     C4'  420   9.191   8.119   5.006
   14DT     H4'  421   9.293   8.142   4.974
   14DT     O4'  422   9.113   8.153   4.893
   14DT     C1'  423   8.998   8.237   4.928
   14DT     H1'  424   9.015   8.337   4.888
   14DT      N1  425   8.876   8.180   4.866
   14DT      C6  426   8.811   8.068   4.911
   14DT      H6  427   8.858   8.018   4.994
   14DT      C5  428   8.689   8.026   4.861
   14DT      C7  429   8.615   7.907   4.931
   14DT     H71  430   8.680   7.860   5.004
   14DT     H72  431   8.519   7.937   4.973
   14DT     H73  432   8.584   7.832   4.859
   14DT      C4  433   8.634   8.086   4.742
   14DT      O4  434   8.541   8.054   4.671
   14DT      N3  435   8.715   8.191   4.699
   14DT      H3  436   8.694   8.213   4.603
   14DT      C2  437   8.830   8.244   4.751
   14DT      O2  438   8.888   8.340   4.699
   14DT     C3'  439   9.148   8.218   5.120
   14DT     H3'  440   9.158   8.163   5.214
   14DT     C2'  441   9.002   8.251   5.080
   14DT    H2'1  442   8.928   8.181   5.118
   14DT    H2'2  443   8.978   8.354   5.108
   14DT     O3'  444   9.233   8.328   5.129
   15DA       P  445   9.204   8.444   5.244
   15DA     O1P  446   9.332   8.500   5.291
   15DA     O2P  447   9.113   8.382   5.340
   15DA     O5'  448   9.111   8.553   5.169
   15DA     C5'  449   9.159   8.628   5.060
   15DA    H5'1  450   9.219   8.564   4.996
   15DA    H5'2  451   9.228   8.705   5.093
   15DA     C4'  452   9.057   8.693   4.973
   15DA     H4'  453   9.108   8.740   4.890
   15DA     O4'  454   8.972   8.591   4.914
   15DA     C1'  455   8.840   8.649   4.900
   15DA     H1'  456   8.844   8.702   4.806
   15DA      N9  457   8.734   8.548   4.904
   15DA      C8  458   8.702   8.451   4.990
   15DA      H8  459   8.754   8.435   5.083
   15DA      N7  460   8.597   8.377   4.963
   15DA      C5  461   8.541   8.445   4.853
   15DA      C6  462   8.445   8.413   4.753
   15DA      N6  463   8.347   8.329   4.770
   15DA     H61  464   8.274   8.329   4.700
   15DA     H62  465   8.347   8.276   4.856
   15DA      N1  466   8.424   8.487   4.647
   15DA      C2  467   8.513   8.584   4.621
   15DA      H2  468   8.497   8.644   4.533
   15DA      N3  469   8.623   8.622   4.695
   15DA      C4  470   8.631   8.542   4.809
   15DA     C3'  471   8.971   8.792   5.046
   15DA     H3'  472   8.982   8.785   5.154
   15DA     C2'  473   8.826   8.749   5.013
   15DA    H2'1  474   8.781   8.710   5.105
   15DA    H2'2  475   8.761   8.832   4.987
   15DA     O3'  476   9.006   8.922   4.998
   16DT       P  477   8.944   9.062   5.046
   16DT     O1P  478   9.046   9.170   5.036
   16DT     O2P  479   8.875   9.047   5.178
   16DT     O5'  480   8.832   9.100   4.935
   16DT     C5'  481   8.847   9.091   4.796
   16DT    H5'1  482   8.900   8.998   4.777
   16DT    H5'2  483   8.918   9.169   4.769
   16DT     C4'  484   8.719   9.087   4.706
   16DT     H4'  485   8.747   9.088   4.600
   16DT     O4'  486   8.650   8.962   4.723
   16DT     C1'  487   8.514   8.998   4.759
   16DT     H1'  488   8.456   9.009   4.667
   16DT      N1  489   8.448   8.893   4.840
   16DT      C6  490   8.484   8.873   4.967
   16DT      H6  491   8.561   8.935   5.009
   16DT      C5  492   8.447   8.758   5.035
   16DT      C7  493   8.489   8.737   5.175
   16DT     H71  494   8.552   8.816   5.217
   16DT     H72  495   8.403   8.705   5.233
   16DT     H73  496   8.557   8.652   5.173
   16DT      C4  497   8.355   8.662   4.972
   16DT      O4  498   8.303   8.561   5.020
   16DT      N3  499   8.305   8.705   4.854
   16DT      H3  500   8.225   8.660   4.813
   16DT      C2  501   8.344   8.822   4.783
   16DT      O2  502   8.297   8.844   4.673
   16DT     C3'  503   8.631   9.202   4.732
   16DT     H3'  504   8.675   9.282   4.792
   16DT     C2'  505   8.519   9.136   4.818
   16DT    H2'1  506   8.547   9.145   4.923
   16DT    H2'2  507   8.423   9.186   4.804
   16DT     O3'  508   8.571   9.269   4.616
   17DA       P  509   8.504   9.413   4.627
   17DA     O1P  510   8.526   9.473   4.498
   17DA     O2P  511   8.546   9.480   4.753
   17DA     O5'  512   8.354   9.394   4.661
   17DA     C5'  513   8.256   9.355   4.566
   17DA    H5'1  514   8.284   9.266   4.511
   17DA    H5'2  515   8.237   9.435   4.495
   17DA     C4'  516   8.121   9.337   4.643
   17DA     H4'  517   8.043   9.336   4.567
   17DA     O4'  518   8.128   9.206   4.705
   17DA     C1'  519   8.081   9.220   4.838
   17DA     H1'  520   7.972   9.219   4.829
   17DA      N9  521   8.129   9.114   4.931
   17DA      C8  522   8.228   9.116   5.022
   17DA      H8  523   8.294   9.201   5.027
   17DA      N7  524   8.240   9.012   5.102
   17DA      C5  525   8.122   8.940   5.063
   17DA      C6  526   8.055   8.818   5.111
   17DA      N6  527   8.097   8.761   5.222
   17DA     H61  528   8.038   8.698   5.274
   17DA     H62  529   8.195   8.766   5.249
   17DA      N1  530   7.938   8.785   5.054
   17DA      C2  531   7.887   8.857   4.958
   17DA      H2  532   7.795   8.831   4.908
   17DA      N3  533   7.938   8.965   4.905
   17DA      C4  534   8.055   9.001   4.963
   17DA     C3'  535   8.091   9.435   4.751
   17DA     H3'  536   8.147   9.527   4.732
   17DA     C2'  537   8.130   9.359   4.878
   17DA    H2'1  538   8.237   9.369   4.896
   17DA    H2'2  539   8.078   9.394   4.967
   17DA     O3'  540   7.957   9.469   4.765
   18DC       P  541   7.881   9.598   4.707
   18DC     O1P  542   7.934   9.628   4.575
   18DC     O2P  543   7.905   9.700   4.808
   18DC     O5'  544   7.733   9.552   4.718
   18DC     C5'  545   7.672   9.455   4.634
   18DC    H5'1  546   7.752   9.396   4.590
   18DC    H5'2  547   7.613   9.504   4.556
   18DC     C4'  548   7.576   9.362   4.707
   18DC     H4'  549   7.516   9.311   4.631
   18DC     O4'  550   7.653   9.261   4.773
   18DC     C1'  551   7.604   9.256   4.903
   18DC     H1'  552   7.512   9.199   4.892
   18DC      N1  553   7.702   9.200   4.998
   18DC      C6  554   7.809   9.279   5.040
   18DC      H6  555   7.831   9.371   4.988
   18DC      C5  556   7.889   9.229   5.141
   18DC      H5  557   7.966   9.287   5.189
   18DC      C4  558   7.849   9.108   5.207
   18DC      N4  559   7.914   9.062   5.306
   18DC     H41  560   7.878   8.981   5.354
   18DC     H42  561   8.006   9.102   5.322
   18DC      N3  562   7.751   9.036   5.163
   18DC      C2  563   7.686   9.074   5.053
   18DC      O2  564   7.604   8.992   5.012
   18DC     C3'  565   7.485   9.432   4.808
   18DC     H3'  566   7.475   9.539   4.789
   18DC     C2'  567   7.562   9.400   4.941
   18DC    H2'1  568   7.641   9.471   4.965
   18DC    H2'2  569   7.497   9.397   5.028
   18DC     O3'  570   7.361   9.365   4.815
   19DA       P  571   7.224   9.440   4.775
   19DA     O1P  572   7.228   9.461   4.632
   19DA     O2P  573   7.215   9.556   4.866
   19DA     O5'  574   7.107   9.335   4.806
   19DA     C5'  575   7.097   9.215   4.731
   19DA    H5'1  576   7.033   9.235   4.645
   19DA    H5'2  577   7.189   9.172   4.690
   19DA     C4'  578   7.037   9.102   4.816
   19DA     H4'  579   6.994   9.027   4.749
   19DA     O4'  580   7.132   9.038   4.906
   19DA     C1'  581   7.085   9.053   5.037
   19DA     H1'  582   7.041   8.958   5.066
   19DA      N9  583   7.207   9.078   5.133
   19DA      C8  584   7.282   9.191   5.131
   19DA      H8  585   7.262   9.268   5.057
   19DA      N7  586   7.370   9.198   5.225
   19DA      C5  587   7.362   9.072   5.288
   19DA      C6  588   7.436   9.007   5.387
   19DA      N6  589   7.523   9.055   5.479
   19DA     H61  590   7.560   8.992   5.548
   19DA     H62  591   7.553   9.151   5.477
   19DA      N1  592   7.412   8.880   5.416
   19DA      C2  593   7.305   8.824   5.360
   19DA      H2  594   7.277   8.726   5.396
   19DA      N3  595   7.223   8.878   5.270
   19DA      C4  596   7.262   8.997   5.226
   19DA     C3'  597   6.910   9.148   4.899
   19DA     H3'  598   6.868   9.237   4.850
   19DA     C2'  599   6.978   9.168   5.035
   19DA    H2'1  600   7.020   9.268   5.033
   19DA    H2'2  601   6.903   9.162   5.114
   19DA     O3'  602   6.813   9.040   4.898
   20DT       P  603   6.684   9.030   4.992
   20DT     O1P  604   6.586   8.934   4.937
   20DT     O2P  605   6.634   9.165   5.023
   20DT     O5'  606   6.746   8.954   5.120
   20DT     C5'  607   6.787   8.814   5.119
   20DT    H5'1  608   6.888   8.809   5.078
   20DT    H5'2  609   6.729   8.750   5.051
   20DT     C4'  610   6.795   8.766   5.266
   20DT     H4'  611   6.797   8.657   5.255
   20DT     O4'  612   6.913   8.823   5.325
   20DT     C1'  613   6.886   8.885   5.454
   20DT     H1'  614   6.888   8.801   5.523
   20DT      N1  615   6.997   8.986   5.481
   20DT      C6  616   6.997   9.112   5.425
   20DT      H6  617   6.921   9.133   5.351
   20DT      C5  618   7.082   9.206   5.477
   20DT      C7  619   7.064   9.349   5.433
   20DT     H71  620   7.162   9.382   5.398
   20DT     H72  621   6.978   9.347   5.365
   20DT     H73  622   7.041   9.396   5.529
   20DT      C4  623   7.181   9.181   5.582
   20DT      O4  624   7.258   9.261   5.637
   20DT      N3  625   7.184   9.044   5.621
   20DT      H3  626   7.239   9.010   5.699
   20DT      C2  627   7.087   8.954   5.586
   20DT      O2  628   7.085   8.848   5.644
   20DT     C3'  629   6.684   8.817   5.357
   20DT     H3'  630   6.598   8.860   5.306
   20DT     C2'  631   6.740   8.932   5.448
   20DT    H2'1  632   6.715   9.020   5.389
   20DT    H2'2  633   6.687   8.943   5.542
   20DT     O3'  634   6.640   8.706   5.431
   21DG       P  635   6.506   8.711   5.513
   21DG     O1P  636   6.473   8.574   5.552
   21DG     O2P  637   6.401   8.768   5.422
   21DG     O5'  638   6.521   8.801   5.646
   21DG     C5'  639   6.598   8.742   5.750
   21DG    H5'1  640   6.696   8.708   5.714
   21DG    H5'2  641   6.532   8.663   5.785
   21DG     C4'  642   6.617   8.835   5.866
   21DG     H4'  643   6.634   8.774   5.955
   21DG     O4'  644   6.735   8.918   5.844
   21DG     C1'  645   6.699   9.051   5.881
   21DG     H1'  646   6.716   9.056   5.988
   21DG      N9  647   6.790   9.151   5.817
   21DG      C8  648   6.757   9.245   5.714
   21DG      H8  649   6.670   9.237   5.651
   21DG      N7  650   6.853   9.331   5.693
   21DG      C5  651   6.948   9.300   5.791
   21DG      C6  652   7.075   9.365   5.826
   21DG      O6  653   7.117   9.473   5.781
   21DG      N1  654   7.155   9.287   5.913
   21DG      H1  655   7.241   9.328   5.948
   21DG      C2  656   7.104   9.177   5.978
   21DG      N2  657   7.178   9.139   6.077
   21DG     H21  658   7.270   9.181   6.082
   21DG     H22  659   7.153   9.061   6.135
   21DG      N3  660   6.983   9.122   5.961
   21DG      C4  661   6.912   9.184   5.859
   21DG     C3'  662   6.508   8.941   5.901
   21DG     H3'  663   6.412   8.915   5.855
   21DG     C2'  664   6.554   9.071   5.842
   21DG    H2'1  665   6.542   9.084   5.734
   21DG    H2'2  666   6.515   9.159   5.894
   21DG     O3'  667   6.507   8.956   6.045
   22DT       P  668   6.371   8.946   6.130
   22DT     O1P  669   6.307   8.819   6.091
   22DT     O2P  670   6.284   9.068   6.124
   22DT     O5'  671   6.418   8.931   6.283
   22DT     C5'  672   6.504   8.821   6.317
   22DT    H5'1  673   6.535   8.779   6.222
   22DT    H5'2  674   6.441   8.755   6.377
   22DT     C4'  675   6.623   8.854   6.408
   22DT     H4'  676   6.668   8.757   6.430
   22DT     O4'  677   6.712   8.931   6.322
   22DT     C1'  678   6.746   9.048   6.392
   22DT     H1'  679   6.828   9.026   6.460
   22DT      N1  680   6.784   9.152   6.299
   22DT      C6  681   6.689   9.220   6.224
   22DT      H6  682   6.593   9.172   6.213
   22DT      C5  683   6.725   9.329   6.154
   22DT      C7  684   6.612   9.393   6.074
   22DT     H71  685   6.521   9.335   6.090
   22DT     H72  686   6.606   9.499   6.098
   22DT     H73  687   6.649   9.392   5.972
   22DT      C4  688   6.860   9.385   6.157
   22DT      O4  689   6.894   9.485   6.090
   22DT      N3  690   6.946   9.312   6.234
   22DT      H3  691   7.037   9.352   6.249
   22DT      C2  692   6.915   9.195   6.298
   22DT      O2  693   7.010   9.135   6.357
   22DT     C3'  694   6.596   8.943   6.533
   22DT     H3'  695   6.491   8.933   6.561
   22DT     C2'  696   6.621   9.081   6.475
   22DT    H2'1  697   6.542   9.119   6.410
   22DT    H2'2  698   6.628   9.161   6.548
   22DT     O3'  699   6.681   8.924   6.640
   23DA       P  700   6.629   8.901   6.792
   23DA     O1P  701   6.623   8.755   6.822
   23DA     O2P  702   6.506   8.984   6.813
   23DA     O5'  703   6.741   8.968   6.879
   23DA     C5'  704   6.853   8.894   6.926
   23DA    H5'1  705   6.902   8.843   6.843
   23DA    H5'2  706   6.818   8.815   6.993
   23DA     C4'  707   6.961   8.985   6.988
   23DA     H4'  708   7.052   8.927   7.006
   23DA     O4'  709   7.002   9.082   6.897
   23DA     C1'  710   6.963   9.208   6.950
   23DA     H1'  711   7.054   9.256   6.987
   23DA      N9  712   6.907   9.284   6.833
   23DA      C8  713   6.785   9.277   6.778
   23DA      H8  714   6.708   9.210   6.812
   23DA      N7  715   6.761   9.354   6.674
   23DA      C5  716   6.883   9.421   6.658
   23DA      C6  717   6.936   9.505   6.560
   23DA      N6  718   6.873   9.547   6.453
   23DA     H61  719   6.920   9.616   6.396
   23DA     H62  720   6.773   9.537   6.451
   23DA      N1  721   7.065   9.550   6.566
   23DA      C2  722   7.134   9.518   6.675
   23DA      H2  723   7.222   9.580   6.686
   23DA      N3  724   7.101   9.428   6.772
   23DA      C4  725   6.970   9.386   6.760
   23DA     C3'  726   6.912   9.051   7.122
   23DA     H3'  727   6.830   9.001   7.173
   23DA     C2'  728   6.863   9.182   7.066
   23DA    H2'1  729   6.761   9.176   7.028
   23DA    H2'2  730   6.877   9.263   7.138
   23DA     O3'  731   7.023   9.061   7.215
   24DC       P  732   7.034   9.152   7.343
   24DC     O1P  733   7.126   9.095   7.433
   24DC     O2P  734   6.897   9.181   7.396
   24DC     O5'  735   7.099   9.299   7.310
   24DC     C5'  736   7.232   9.310   7.253
   24DC    H5'1  737   7.229   9.256   7.158
   24DC    H5'2  738   7.302   9.259   7.319
   24DC     C4'  739   7.266   9.453   7.221
   24DC     H4'  740   7.373   9.461   7.200
   24DC     O4'  741   7.188   9.488   7.108
   24DC     C1'  742   7.115   9.606   7.142
   24DC     H1'  743   7.173   9.694   7.113
   24DC      N1  744   6.988   9.606   7.062
   24DC      C6  745   6.874   9.544   7.109
   24DC      H6  746   6.874   9.478   7.194
   24DC      C5  747   6.758   9.558   7.044
   24DC      H5  748   6.668   9.506   7.073
   24DC      C4  749   6.755   9.646   6.927
   24DC      N4  750   6.651   9.659   6.853
   24DC     H41  751   6.665   9.710   6.767
   24DC     H42  752   6.570   9.602   6.872
   24DC      N3  753   6.862   9.699   6.874
   24DC      C2  754   6.979   9.687   6.944
   24DC      O2  755   7.075   9.751   6.894
   24DC     C3'  756   7.238   9.554   7.334
   24DC     H3'  757   7.218   9.515   7.434
   24DC     C2'  758   7.105   9.619   7.291
   24DC    H2'1  759   7.019   9.564   7.330
   24DC    H2'2  760   7.090   9.722   7.324
   24DC     O3'  761   7.336   9.654   7.336
   25DG       P  762   7.348   9.773   7.444
   25DG     O1P  763   7.492   9.788   7.483
   25DG     O2P  764   7.252   9.764   7.554
   25DG     O5'  765   7.301   9.893   7.356
   25DG     C5'  766   7.361   9.925   7.231
   25DG    H5'1  767   7.397   9.838   7.175
   25DG    H5'2  768   7.456   9.976   7.246
   25DG     C4'  769   7.258  10.017   7.154
   25DG     H4'  770   7.307  10.046   7.061
   25DG     O4'  771   7.135   9.951   7.122
   25DG     C1'  772   7.049  10.060   7.081
   25DG     H1'  773   7.083  10.107   6.989
   25DG      N9  774   6.901  10.026   7.066
   25DG      C8  775   6.838   9.927   7.136
   25DG      H8  776   6.892   9.876   7.215
   25DG      N7  777   6.719   9.899   7.099
   25DG      C5  778   6.697   9.986   6.991
   25DG      C6  779   6.590  10.001   6.895
   25DG      O6  780   6.491   9.935   6.880
   25DG      N1  781   6.591  10.122   6.830
   25DG      H1  782   6.511  10.148   6.775
   25DG      C2  783   6.705  10.202   6.823
   25DG      N2  784   6.700  10.309   6.744
   25DG     H21  785   6.626  10.312   6.675
   25DG     H22  786   6.775  10.374   6.730
   25DG      N3  787   6.812  10.182   6.896
   25DG      C4  788   6.804  10.073   6.983
   25DG     C3'  789   7.222  10.153   7.217
   25DG     H3'  790   7.243  10.153   7.324
   25DG     C2'  791   7.072  10.166   7.189
   25DG    H2'1  792   7.015  10.148   7.280
   25DG    H2'2  793   7.048  10.267   7.156
   25DG     O3'  794   7.301  10.249   7.145
   26DC       P  795   7.313  10.395   7.198
   26DC     O1P  796   7.413  10.467   7.126
   26DC     O2P  797   7.330  10.398   7.346
   26DC     O5'  798   7.172  10.459   7.168
   26DC     C5'  799   7.132  10.511   7.040
   26DC    H5'1  800   7.127  10.426   6.971
   26DC    H5'2  801   7.204  10.587   7.008
   26DC     C4'  802   7.002  10.585   7.043
   26DC     H4'  803   6.995  10.647   6.954
   26DC     O4'  804   6.899  10.489   7.039
   26DC     C1'  805   6.798  10.534   7.129
   26DC     H1'  806   6.738  10.607   7.074
   26DC      N1  807   6.715  10.407   7.161
   26DC      C6  808   6.754  10.314   7.252
   26DC      H6  809   6.854  10.320   7.292
   26DC      C5  810   6.674  10.208   7.284
   26DC      H5  811   6.707  10.125   7.345
   26DC      C4  812   6.543  10.207   7.216
   26DC      N4  813   6.453  10.115   7.244
   26DC     H41  814   6.361  10.108   7.203
   26DC     H42  815   6.484  10.037   7.300
   26DC      N3  816   6.503  10.295   7.131
   26DC      C2  817   6.586  10.401   7.108
   26DC      O2  818   6.547  10.483   7.025
   26DC     C3'  819   6.976  10.670   7.168
   26DC     H3'  820   7.056  10.685   7.240
   26DC     C2'  821   6.868  10.594   7.248
   26DC    H2'1  822   6.921  10.514   7.299
   26DC    H2'2  823   6.806  10.660   7.308
   26DC     O3'  824   6.916  10.788   7.123
   27DA       P  825   6.994  10.922   7.084
   27DA     O1P  826   7.093  10.900   6.980
   27DA     O2P  827   7.046  10.980   7.210
   27DA     O5'  828   6.878  11.013   7.028
   27DA     C5'  829   6.854  11.025   6.887
   27DA    H5'1  830   6.859  10.930   6.834
   27DA    H5'2  831   6.925  11.088   6.835
   27DA     C4'  832   6.711  11.088   6.873
   27DA     H4'  833   6.704  11.128   6.772
   27DA     O4'  834   6.600  10.990   6.878
   27DA     C1'  835   6.532  11.013   6.995
   27DA     H1'  836   6.436  11.055   6.965
   27DA      N9  837   6.513  10.892   7.084
   27DA      C8  838   6.589  10.850   7.189
   27DA      H8  839   6.686  10.896   7.199
   27DA      N7  840   6.538  10.753   7.259
   27DA      C5  841   6.427  10.719   7.186
   27DA      C6  842   6.323  10.622   7.202
   27DA      N6  843   6.330  10.522   7.286
   27DA     H61  844   6.247  10.465   7.295
   27DA     H62  845   6.404  10.526   7.356
   27DA      N1  846   6.223  10.610   7.110
   27DA      C2  847   6.218  10.702   7.015
   27DA      H2  848   6.139  10.701   6.942
   27DA      N3  849   6.300  10.809   6.994
   27DA      C4  850   6.407  10.807   7.084
   27DA     C3'  851   6.670  11.202   6.972
   27DA     H3'  852   6.753  11.250   7.025
   27DA     C2'  853   6.595  11.123   7.077
   27DA    H2'1  854   6.672  11.086   7.145
   27DA    H2'2  855   6.528  11.183   7.139
   27DA     O3'  856   6.595  11.304   6.901
   28DT       P  857   6.507  11.410   6.983
   28DT     O1P  858   6.475  11.523   6.893
   28DT     O2P  859   6.573  11.445   7.111
   28DT     O5'  860   6.377  11.325   7.015
   28DT     C5'  861   6.290  11.283   6.909
   28DT    H5'1  862   6.326  11.203   6.844
   28DT    H5'2  863   6.271  11.367   6.843
   28DT     C4'  864   6.156  11.233   6.967
   28DT     H4'  865   6.092  11.213   6.881
   28DT     O4'  866   6.173  11.110   7.044
   28DT     C1'  867   6.092  11.108   7.154
   28DT     H1'  868   5.992  11.073   7.130
   28DT      N1  869   6.146  11.009   7.252
   28DT      C6  870   6.260  11.047   7.323
   28DT      H6  871   6.318  11.135   7.301
   28DT      C5  872   6.311  10.968   7.422
   28DT      C7  873   6.421  11.020   7.506
   28DT     H71  874   6.448  11.115   7.462
   28DT     H72  875   6.396  11.037   7.611
   28DT     H73  876   6.507  10.955   7.492
   28DT      C4  877   6.241  10.841   7.453
   28DT      O4  878   6.275  10.756   7.535
   28DT      N3  879   6.139  10.805   7.365
   28DT      H3  880   6.092  10.716   7.379
   28DT      C2  881   6.081  10.889   7.278
   28DT      O2  882   5.989  10.843   7.212
   28DT     C3'  883   6.086  11.331   7.070
   28DT     H3'  884   6.140  11.421   7.097
   28DT     C2'  885   6.091  11.254   7.204
   28DT    H2'1  886   6.181  11.278   7.261
   28DT    H2'2  887   6.006  11.284   7.265
   28DT     O3'  888   5.947  11.352   7.026
   29DA       P  889   5.835  11.439   7.109
   29DA     O1P  890   5.742  11.493   7.011
   29DA     O2P  891   5.910  11.527   7.206
   29DA     O5'  892   5.760  11.329   7.195
   29DA     C5'  893   5.706  11.222   7.122
   29DA    H5'1  894   5.779  11.173   7.058
   29DA    H5'2  895   5.621  11.243   7.056
   29DA     C4'  896   5.664  11.112   7.212
   29DA     H4'  897   5.606  11.036   7.159
   29DA     O4'  898   5.767  11.039   7.274
   29DA     C1'  899   5.722  10.996   7.401
   29DA     H1'  900   5.670  10.901   7.388
   29DA      N9  901   5.833  10.969   7.501
   29DA      C8  902   5.931  11.065   7.539
   29DA      H8  903   5.945  11.163   7.496
   29DA      N7  904   6.019  11.010   7.618
   29DA      C5  905   5.959  10.887   7.658
   29DA      C6  906   5.986  10.775   7.746
   29DA      N6  907   6.105  10.768   7.809
   29DA     H61  908   6.124  10.681   7.856
   29DA     H62  909   6.172  10.840   7.788
   29DA      N1  910   5.898  10.674   7.762
   29DA      C2  911   5.789  10.678   7.687
   29DA      H2  912   5.715  10.605   7.716
   29DA      N3  913   5.760  10.762   7.596
   29DA      C4  914   5.849  10.865   7.583
   29DA     C3'  915   5.555  11.156   7.322
   29DA     H3'  916   5.536  11.264   7.324
   29DA     C2'  917   5.628  11.111   7.450
   29DA    H2'1  918   5.683  11.199   7.484
   29DA    H2'2  919   5.558  11.068   7.521
   29DA     O3'  920   5.434  11.092   7.300
   30DT       P  921   5.301  11.124   7.391
   30DT     O1P  922   5.182  11.081   7.309
   30DT     O2P  923   5.304  11.266   7.445
   30DT     O5'  924   5.316  11.034   7.517
   30DT     C5'  925   5.300  10.897   7.519
   30DT    H5'1  926   5.377  10.865   7.449
   30DT    H5'2  927   5.201  10.865   7.487
   30DT     C4'  928   5.318  10.824   7.651
   30DT     H4'  929   5.301  10.717   7.635
   30DT     O4'  930   5.455  10.832   7.678
   30DT     C1'  931   5.461  10.829   7.817
   30DT     H1'  932   5.430  10.734   7.859
   30DT      N1  933   5.596  10.868   7.870
   30DT      C6  934   5.649  10.992   7.854
   30DT      H6  935   5.603  11.046   7.772
   30DT      C5  936   5.768  11.026   7.905
   30DT      C7  937   5.834  11.156   7.863
   30DT     H71  938   5.830  11.163   7.754
   30DT     H72  939   5.789  11.242   7.911
   30DT     H73  940   5.938  11.162   7.897
   30DT      C4  941   5.835  10.936   7.997
   30DT      O4  942   5.939  10.953   8.065
   30DT      N3  943   5.768  10.814   8.020
   30DT      H3  944   5.814  10.757   8.089
   30DT      C2  945   5.655  10.772   7.952
   30DT      O2  946   5.616  10.656   7.961
   30DT     C3'  947   5.244  10.883   7.772
   30DT     H3'  948   5.171  10.955   7.733
   30DT     C2'  949   5.361  10.935   7.849
   30DT    H2'1  950   5.389  11.027   7.797
   30DT    H2'2  951   5.347  10.940   7.957
   30DT     O3'  952   5.180  10.786   7.856
   31DG       P  953   5.015  10.769   7.845
   31DG     O1P  954   4.984  10.690   7.725
   31DG     O2P  955   4.962  10.904   7.855
   31DG     O5'  956   4.974  10.680   7.964
   31DG     C5'  957   4.956  10.536   7.955
   31DG    H5'1  958   5.035  10.492   7.896
   31DG    H5'2  959   4.856  10.517   7.916
   31DG     C4'  960   4.974  10.488   8.094
   31DG     H4'  961   4.978  10.380   8.088
   31DG     O4'  962   5.096  10.531   8.161
   31DG     C1'  963   5.071  10.611   8.279
   31DG     H1'  964   5.095  10.542   8.360
   31DG      N9  965   5.160  10.730   8.280
   31DG      C8  966   5.154  10.844   8.211
   31DG      H8  967   5.072  10.865   8.144
   31DG      N7  968   5.256  10.922   8.223
   31DG      C5  969   5.345  10.850   8.311
   31DG      C6  970   5.476  10.878   8.367
   31DG      O6  971   5.546  10.980   8.364
   31DG      N1  972   5.523  10.776   8.456
   31DG      H1  973   5.619  10.778   8.486
   31DG      C2  974   5.446  10.669   8.485
   31DG      N2  975   5.501  10.596   8.574
   31DG     H21  976   5.601  10.599   8.581
   31DG     H22  977   5.451  10.512   8.600
   31DG      N3  978   5.319  10.643   8.449
   31DG      C4  979   5.276  10.740   8.354
   31DG     C3'  980   4.859  10.526   8.183
   31DG     H3'  981   4.777  10.573   8.129
   31DG     C2'  982   4.916  10.632   8.276
   31DG    H2'1  983   4.888  10.729   8.233
   31DG    H2'2  984   4.872  10.625   8.375
   31DG     O3'  985   4.824  10.411   8.259
   32DC3      P  986   4.714  10.409   8.370
   32DC3    O1P  987   4.649  10.280   8.366
   32DC3    O2P  988   4.634  10.535   8.370
   32DC3    O5'  989   4.797  10.415   8.503
   32DC3    C5'  990   4.887  10.314   8.542
   32DC3   H5'1  991   4.928  10.255   8.460
   32DC3   H5'2  992   4.820  10.248   8.597
   32DC3    C4'  993   4.988  10.357   8.645
   32DC3    H4'  994   5.057  10.273   8.646
   32DC3    O4'  995   5.056  10.467   8.602
   32DC3    C1'  996   5.053  10.551   8.720
   32DC3    H1'  997   5.128  10.519   8.792
   32DC3     N1  998   5.072  10.699   8.684
   32DC3     C6  999   4.982  10.759   8.603
   32DC3     H6 1000   4.888  10.710   8.583
   32DC3     C5 1001   5.002  10.877   8.541
   32DC3     H5 1002   4.931  10.923   8.474
   32DC3     C4 1003   5.125  10.933   8.579
   32DC3     N4 1004   5.169  11.044   8.522
   32DC3    H41 1005   5.263  11.076   8.544
   32DC3    H42 1006   5.126  11.069   8.434
   32DC3     N3 1007   5.219  10.882   8.661
   32DC3     C2 1008   5.190  10.765   8.723
   32DC3     O2 1009   5.274  10.715   8.799
   32DC3    C3' 1010   4.927  10.371   8.787
   32DC3    H3' 1011   4.828  10.324   8.786
   32DC3    C2' 1012   4.928  10.521   8.798
   32DC3   H2'1 1013   4.840  10.571   8.758
   32DC3   H2'2 1014   4.944  10.555   8.901
   32DC3    O3' 1015   5.006  10.324   8.899
   32DC3    H3T 1016   5.023  10.230   8.888
   33DG5    H5T 1017   6.274  11.306   8.842
   33DG5    O5' 1018   6.197  11.302   8.900
   33DG5    C5' 1019   6.196  11.173   8.957
   33DG5   H5'1 1020   6.135  11.167   9.047
   33DG5   H5'2 1021   6.296  11.134   8.977
   33DG5    C4' 1022   6.154  11.056   8.866
   33DG5    H4' 1023   6.171  10.960   8.915
   33DG5    O4' 1024   6.011  11.070   8.833
   33DG5    C1' 1025   6.003  11.040   8.698
   33DG5    H1' 1026   6.003  10.931   8.690
   33DG5     N9 1027   5.872  11.089   8.656
   33DG5     C8 1028   5.845  11.202   8.582
   33DG5     H8 1029   5.924  11.266   8.544
   33DG5     N7 1030   5.719  11.223   8.557
   33DG5     C5 1031   5.656  11.118   8.618
   33DG5     C6 1032   5.515  11.086   8.647
   33DG5     O6 1033   5.411  11.146   8.614
   33DG5     N1 1034   5.496  10.973   8.712
   33DG5     H1 1035   5.400  10.944   8.720
   33DG5     C2 1036   5.596  10.903   8.768
   33DG5     N2 1037   5.560  10.791   8.821
   33DG5    H21 1038   5.475  10.752   8.783
   33DG5    H22 1039   5.640  10.736   8.851
   33DG5     N3 1040   5.728  10.925   8.748
   33DG5     C4 1041   5.751  11.037   8.679
   33DG5    C3' 1042   6.236  11.060   8.739
   33DG5    H3' 1043   6.318  11.132   8.743
   33DG5    C2' 1044   6.127  11.097   8.636
   33DG5   H2'1 1045   6.124  11.206   8.644
   33DG5   H2'2 1046   6.144  11.063   8.534
   33DG5    O3' 1047   6.275  10.932   8.696
   34DC       P 1048   6.417  10.865   8.723
   34DC     O1P 1049   6.465  10.915   8.850
   34DC     O2P 1050   6.492  10.882   8.599
   34DC     O5' 1051   6.363  10.715   8.740
   34DC     C5' 1052   6.307  10.678   8.870
   34DC    H5'1 1053   6.251  10.763   8.911
   34DC    H5'2 1054   6.383  10.651   8.943
   34DC     C4' 1055   6.204  10.562   8.860
   34DC     H4' 1056   6.187  10.534   8.964
   34DC     O4' 1057   6.077  10.603   8.800
   34DC     C1' 1058   6.055  10.529   8.683
   34DC     H1' 1059   5.985  10.449   8.705
   34DC      N1 1060   5.997  10.623   8.581
   34DC      C6 1061   6.078  10.705   8.501
   34DC      H6 1062   6.184  10.690   8.504
   34DC      C5 1063   6.023  10.805   8.427
   34DC      H5 1064   6.085  10.865   8.362
   34DC      C4 1065   5.885  10.814   8.419
   34DC      N4 1066   5.829  10.913   8.345
   34DC     H41 1067   5.728  10.909   8.342
   34DC     H42 1068   5.881  10.985   8.296
   34DC      N3 1069   5.805  10.734   8.491
   34DC      C2 1070   5.859  10.645   8.576
   34DC      O2 1071   5.782  10.585   8.647
   34DC     C3' 1072   6.259  10.445   8.785
   34DC     H3' 1073   6.366  10.454   8.767
   34DC     C2' 1074   6.186  10.449   8.649
   34DC    H2'1 1075   6.249  10.494   8.573
   34DC    H2'2 1076   6.167  10.347   8.614
   34DC     O3' 1077   6.220  10.335   8.861
   35DA       P 1078   6.264  10.187   8.837
   35DA     O1P 1079   6.238  10.110   8.963
   35DA     O2P 1080   6.406  10.192   8.792
   35DA     O5' 1081   6.178  10.131   8.720
   35DA     C5' 1082   6.046  10.086   8.734
   35DA    H5'1 1083   5.984  10.150   8.796
   35DA    H5'2 1084   6.060   9.986   8.773
   35DA     C4' 1085   5.982  10.067   8.593
   35DA     H4' 1086   5.878  10.036   8.604
   35DA     O4' 1087   5.965  10.183   8.514
   35DA     C1' 1088   6.007  10.151   8.377
   35DA     H1' 1089   5.931  10.102   8.317
   35DA      N9 1090   6.062  10.269   8.305
   35DA      C8 1091   6.195  10.306   8.284
   35DA      H8 1092   6.272  10.231   8.292
   35DA      N7 1093   6.215  10.423   8.233
   35DA      C5 1094   6.085  10.478   8.223
   35DA      C6 1095   6.032  10.599   8.178
   35DA      N6 1096   6.102  10.702   8.125
   35DA     H61 1097   6.049  10.785   8.102
   35DA     H62 1098   6.198  10.688   8.098
   35DA      N1 1099   5.900  10.614   8.182
   35DA      C2 1100   5.824  10.525   8.246
   35DA      H2 1101   5.718  10.546   8.244
   35DA      N3 1102   5.859  10.408   8.297
   35DA      C4 1103   5.994  10.391   8.276
   35DA     C3' 1104   6.063   9.955   8.518
   35DA     H3' 1105   6.147   9.924   8.580
   35DA     C2' 1106   6.113  10.037   8.402
   35DA    H2'1 1107   6.210  10.077   8.431
   35DA    H2'2 1108   6.129   9.970   8.318
   35DA     O3' 1109   5.990   9.843   8.495
   36DT       P 1110   5.973   9.764   8.356
   36DT     O1P 1111   5.883   9.647   8.380
   36DT     O2P 1112   6.109   9.746   8.298
   36DT     O5' 1113   5.892   9.852   8.265
   36DT     C5' 1114   5.750   9.868   8.270
   36DT    H5'1 1115   5.728   9.939   8.350
   36DT    H5'2 1116   5.698   9.774   8.288
   36DT     C4' 1117   5.690   9.931   8.144
   36DT     H4' 1118   5.582   9.942   8.152
   36DT     O4' 1119   5.751  10.063   8.131
   36DT     C1' 1120   5.782  10.076   7.993
   36DT     H1' 1121   5.690  10.103   7.941
   36DT      N1 1122   5.879  10.183   7.966
   36DT      C6 1123   6.019  10.157   7.954
   36DT      H6 1124   6.062  10.058   7.954
   36DT      C5 1125   6.111  10.257   7.934
   36DT      C7 1126   6.259  10.226   7.916
   36DT     H71 1127   6.273  10.120   7.938
   36DT     H72 1128   6.291  10.243   7.813
   36DT     H73 1129   6.319  10.291   7.978
   36DT      C4 1130   6.064  10.391   7.903
   36DT      O4 1131   6.142  10.482   7.866
   36DT      N3 1132   5.928  10.416   7.915
   36DT      H3 1133   5.900  10.510   7.892
   36DT      C2 1134   5.835  10.319   7.947
   36DT      O2 1135   5.715  10.351   7.946
   36DT     C3' 1136   5.713   9.851   8.016
   36DT     H3' 1137   5.758   9.755   8.041
   36DT     C2' 1138   5.820   9.937   7.942
   36DT    H2'1 1139   5.921   9.914   7.976
   36DT    H2'2 1140   5.828   9.916   7.836
   36DT     O3' 1141   5.591   9.841   7.940
   37DA       P 1142   5.582   9.805   7.788
   37DA     O1P 1143   5.447   9.748   7.780
   37DA     O2P 1144   5.696   9.718   7.748
   37DA     O5' 1145   5.596   9.947   7.708
   37DA     C5' 1146   5.483  10.044   7.713
   37DA    H5'1 1147   5.506  10.109   7.798
   37DA    H5'2 1148   5.392   9.989   7.736
   37DA     C4' 1149   5.445  10.126   7.588
   37DA     H4' 1150   5.349  10.175   7.608
   37DA     O4' 1151   5.533  10.228   7.579
   37DA     C1' 1152   5.614  10.214   7.462
   37DA     H1' 1153   5.573  10.281   7.386
   37DA      N9 1154   5.745  10.256   7.511
   37DA      C8 1155   5.822  10.197   7.606
   37DA      H8 1156   5.803  10.105   7.659
   37DA      N7 1157   5.938  10.251   7.621
   37DA      C5 1158   5.934  10.366   7.537
   37DA      C6 1159   6.022  10.475   7.513
   37DA      N6 1160   6.125  10.506   7.580
   37DA     H61 1161   6.173  10.593   7.557
   37DA     H62 1162   6.141  10.462   7.669
   37DA      N1 1163   5.984  10.565   7.423
   37DA      C2 1164   5.863  10.552   7.368
   37DA      H2 1165   5.835  10.625   7.294
   37DA      N3 1166   5.772  10.459   7.380
   37DA      C4 1167   5.819  10.365   7.465
   37DA     C3' 1168   5.447  10.033   7.467
   37DA     H3' 1169   5.442   9.927   7.492
   37DA     C2' 1170   5.592  10.064   7.420
   37DA    H2'1 1171   5.660   9.991   7.464
   37DA    H2'2 1172   5.598  10.055   7.311
   37DA     O3' 1173   5.350  10.073   7.367
   38DT       P 1174   5.341  10.018   7.222
   38DT     O1P 1175   5.203  10.007   7.178
   38DT     O2P 1176   5.423   9.902   7.210
   38DT     O5' 1177   5.396  10.134   7.134
   38DT     C5' 1178   5.346  10.270   7.139
   38DT    H5'1 1179   5.342  10.303   7.243
   38DT    H5'2 1180   5.245  10.270   7.100
   38DT     C4' 1181   5.426  10.373   7.054
   38DT     H4' 1182   5.365  10.462   7.045
   38DT     O4' 1183   5.562  10.406   7.105
   38DT     C1' 1184   5.654  10.398   7.001
   38DT     H1' 1185   5.662  10.489   6.941
   38DT      N1 1186   5.782  10.357   7.058
   38DT      C6 1187   5.800  10.248   7.135
   38DT      H6 1188   5.717  10.182   7.155
   38DT      C5 1189   5.920  10.215   7.196
   38DT      C7 1190   5.922  10.086   7.279
   38DT     H71 1191   5.973  10.099   7.375
   38DT     H72 1192   5.821  10.046   7.293
   38DT     H73 1193   5.987  10.015   7.227
   38DT      C4 1194   6.041  10.297   7.185
   38DT      O4 1195   6.140  10.280   7.249
   38DT      N3 1196   6.021  10.394   7.096
   38DT      H3 1197   6.099  10.446   7.061
   38DT      C2 1198   5.900  10.436   7.037
   38DT      O2 1199   5.905  10.542   6.979
   38DT     C3' 1200   5.450  10.314   6.912
   38DT     H3' 1201   5.399  10.219   6.899
   38DT     C2' 1202   5.602  10.290   6.916
   38DT    H2'1 1203   5.615  10.188   6.954
   38DT    H2'2 1204   5.638  10.292   6.814
   38DT     O3' 1205   5.420  10.410   6.812
   39DG       P 1206   5.384  10.363   6.658
   39DG     O1P 1207   5.307  10.471   6.590
   39DG     O2P 1208   5.328  10.226   6.667
   39DG     O5' 1209   5.523  10.344   6.588
   39DG     C5' 1210   5.601  10.455   6.558
   39DG    H5'1 1211   5.601  10.527   6.639
   39DG    H5'2 1212   5.556  10.496   6.468
   39DG     C4' 1213   5.750  10.421   6.532
   39DG     H4' 1214   5.800  10.512   6.499
   39DG     O4' 1215   5.810  10.374   6.658
   39DG     C1' 1216   5.909  10.279   6.614
   39DG     H1' 1217   5.994  10.324   6.562
   39DG      N9 1218   5.959  10.195   6.724
   39DG      C8 1219   5.910  10.077   6.777
   39DG      H8 1220   5.814  10.035   6.751
   39DG      N7 1221   5.978  10.023   6.879
   39DG      C5 1222   6.083  10.115   6.894
   39DG      C6 1223   6.196  10.125   6.982
   39DG      O6 1224   6.238  10.046   7.070
   39DG      N1 1225   6.272  10.241   6.969
   39DG      H1 1226   6.338  10.263   7.042
   39DG      C2 1227   6.252  10.328   6.870
   39DG      N2 1228   6.317  10.436   6.858
   39DG     H21 1229   6.389  10.454   6.927
   39DG     H22 1230   6.316  10.500   6.780
   39DG      N3 1231   6.155  10.321   6.784
   39DG      C4 1232   6.065  10.221   6.809
   39DG     C3' 1233   5.772  10.309   6.423
   39DG     H3' 1234   5.676  10.292   6.375
   39DG     C2' 1235   5.830  10.202   6.512
   39DG    H2'1 1236   5.747  10.153   6.564
   39DG    H2'2 1237   5.888  10.127   6.457
   39DG     O3' 1238   5.865  10.358   6.328
   40DC       P 1239   5.828  10.410   6.184
   40DC     O1P 1240   5.711  10.499   6.207
   40DC     O2P 1241   5.820  10.302   6.084
   40DC     O5' 1242   5.961  10.498   6.152
   40DC     C5' 1243   6.005  10.594   6.240
   40DC    H5'1 1244   5.934  10.603   6.322
   40DC    H5'2 1245   6.023  10.688   6.187
   40DC     C4' 1246   6.146  10.565   6.306
   40DC     H4' 1247   6.173  10.660   6.353
   40DC     O4' 1248   6.158  10.476   6.410
   40DC     C1' 1249   6.278  10.397   6.395
   40DC     H1' 1250   6.350  10.469   6.434
   40DC      N1 1251   6.274  10.270   6.468
   40DC      C6 1252   6.187  10.171   6.432
   40DC      H6 1253   6.113  10.190   6.357
   40DC      C5 1254   6.182  10.059   6.510
   40DC      H5 1255   6.103   9.988   6.491
   40DC      C4 1256   6.278  10.045   6.608
   40DC      N4 1257   6.285   9.937   6.682
   40DC     H41 1258   6.357   9.931   6.753
   40DC     H42 1259   6.232   9.859   6.647
   40DC      N3 1260   6.379  10.127   6.624
   40DC      C2 1261   6.372  10.246   6.556
   40DC      O2 1262   6.454  10.331   6.589
   40DC     C3' 1263   6.253  10.536   6.201
   40DC     H3' 1264   6.203  10.546   6.105
   40DC     C2' 1265   6.291  10.387   6.240
   40DC    H2'1 1266   6.218  10.324   6.190
   40DC    H2'2 1267   6.393  10.358   6.213
   40DC     O3' 1268   6.371  10.628   6.220
   41DG       P 1269   6.509  10.601   6.140
   41DG     O1P 1270   6.570  10.728   6.105
   41DG     O2P 1271   6.487  10.510   6.023
   41DG     O5' 1272   6.596  10.529   6.256
   41DG     C5' 1273   6.648  10.601   6.362
   41DG    H5'1 1274   6.587  10.595   6.452
   41DG    H5'2 1275   6.660  10.707   6.339
   41DG     C4' 1276   6.788  10.555   6.401
   41DG     H4' 1277   6.842  10.629   6.459
   41DG     O4' 1278   6.785  10.438   6.482
   41DG     C1' 1279   6.859  10.335   6.420
   41DG     H1' 1280   6.958  10.327   6.465
   41DG      N9 1281   6.790  10.203   6.433
   41DG      C8 1282   6.677  10.156   6.371
   41DG      H8 1283   6.610  10.208   6.304
   41DG      N7 1284   6.647  10.033   6.404
   41DG      C5 1285   6.744  10.003   6.504
   41DG      C6 1286   6.759   9.890   6.586
   41DG      O6 1287   6.687   9.792   6.609
   41DG      N1 1288   6.867   9.902   6.672
   41DG      H1 1289   6.872   9.834   6.746
   41DG      C2 1290   6.964   9.994   6.663
   41DG      N2 1291   7.061   9.989   6.746
   41DG     H21 1292   7.070   9.900   6.793
   41DG     H22 1293   7.135  10.058   6.749
   41DG      N3 1294   6.950  10.105   6.596
   41DG      C4 1295   6.834  10.104   6.516
   41DG     C3' 1296   6.883  10.527   6.284
   41DG     H3' 1297   6.846  10.576   6.193
   41DG     C2' 1298   6.870  10.374   6.267
   41DG    H2'1 1299   6.778  10.354   6.212
   41DG    H2'2 1300   6.954  10.335   6.208
   41DG     O3' 1301   7.019  10.567   6.308
   42DT       P 1302   7.139  10.553   6.202
   42DT     O1P 1303   7.220  10.676   6.211
   42DT     O2P 1304   7.100  10.496   6.072
   42DT     O5' 1305   7.215  10.435   6.287
   42DT     C5' 1306   7.273  10.459   6.417
   42DT    H5'1 1307   7.193  10.484   6.486
   42DT    H5'2 1308   7.342  10.542   6.402
   42DT     C4' 1309   7.354  10.339   6.476
   42DT     H4' 1310   7.388  10.370   6.575
   42DT     O4' 1311   7.271  10.225   6.497
   42DT     C1' 1312   7.338  10.104   6.460
   42DT     H1' 1313   7.392  10.070   6.548
   42DT      N1 1314   7.233  10.012   6.405
   42DT      C6 1315   7.143  10.056   6.308
   42DT      H6 1316   7.146  10.152   6.260
   42DT      C5 1317   7.042   9.974   6.265
   42DT      C7 1318   6.959  10.021   6.145
   42DT     H71 1319   7.014  10.102   6.097
   42DT     H72 1320   6.955   9.936   6.078
   42DT     H73 1321   6.857  10.049   6.174
   42DT      C4 1322   7.028   9.837   6.317
   42DT      O4 1323   6.933   9.760   6.294
   42DT      N3 1324   7.113   9.805   6.418
   42DT      H3 1325   7.116   9.711   6.456
   42DT      C2 1326   7.216   9.882   6.460
   42DT      O2 1327   7.280   9.844   6.558
   42DT     C3' 1328   7.470  10.295   6.390
   42DT     H3' 1329   7.481  10.363   6.305
   42DT     C2' 1330   7.434  10.155   6.351
   42DT    H2'1 1331   7.376  10.160   6.259
   42DT    H2'2 1332   7.520  10.089   6.336
   42DT     O3' 1333   7.591  10.297   6.458
   43DA       P 1334   7.728  10.234   6.411
   43DA     O1P 1335   7.844  10.303   6.466
   43DA     O2P 1336   7.722  10.240   6.260
   43DA     O5' 1337   7.738  10.082   6.453
   43DA     C5' 1338   7.746  10.039   6.586
   43DA    H5'1 1339   7.658  10.075   6.640
   43DA    H5'2 1340   7.837  10.070   6.636
   43DA     C4' 1341   7.743   9.883   6.584
   43DA     H4' 1342   7.748   9.855   6.689
   43DA     O4' 1343   7.616   9.847   6.527
   43DA     C1' 1344   7.631   9.758   6.419
   43DA     H1' 1345   7.637   9.661   6.468
   43DA      N9 1346   7.528   9.761   6.317
   43DA      C8 1347   7.509   9.845   6.212
   43DA      H8 1348   7.580   9.920   6.180
   43DA      N7 1349   7.396   9.826   6.147
   43DA      C5 1350   7.337   9.717   6.211
   43DA      C6 1351   7.228   9.630   6.184
   43DA      N6 1352   7.152   9.625   6.074
   43DA     H61 1353   7.087   9.551   6.095
   43DA     H62 1354   7.139   9.693   6.000
   43DA      N1 1355   7.191   9.531   6.265
   43DA      C2 1356   7.277   9.506   6.363
   43DA      H2 1357   7.249   9.434   6.438
   43DA      N3 1358   7.389   9.566   6.394
   43DA      C4 1359   7.412   9.677   6.319
   43DA     C3' 1360   7.853   9.828   6.500
   43DA     H3' 1361   7.925   9.902   6.463
   43DA     C2' 1362   7.776   9.775   6.372
   43DA    H2'1 1363   7.802   9.849   6.296
   43DA    H2'2 1364   7.818   9.679   6.341
   43DA     O3' 1365   7.921   9.729   6.581
   44DC       P 1366   8.036   9.634   6.524
   44DC     O1P 1367   8.115   9.591   6.643
   44DC     O2P 1368   8.113   9.688   6.409
   44DC     O5' 1369   7.957   9.512   6.475
   44DC     C5' 1370   7.853   9.452   6.556
   44DC    H5'1 1371   7.788   9.534   6.586
   44DC    H5'2 1372   7.902   9.409   6.643
   44DC     C4' 1373   7.773   9.346   6.478
   44DC     H4' 1374   7.726   9.286   6.556
   44DC     O4' 1375   7.671   9.393   6.391
   44DC     C1' 1376   7.688   9.329   6.269
   44DC     H1' 1377   7.646   9.229   6.279
   44DC      N1 1378   7.610   9.402   6.161
   44DC      C6 1379   7.663   9.510   6.096
   44DC      H6 1380   7.754   9.559   6.127
   44DC      C5 1381   7.585   9.566   5.997
   44DC      H5 1382   7.625   9.657   5.956
   44DC      C4 1383   7.464   9.509   5.962
   44DC      N4 1384   7.390   9.557   5.870
   44DC     H41 1385   7.314   9.499   5.837
   44DC     H42 1386   7.436   9.627   5.814
   44DC      N3 1387   7.412   9.405   6.023
   44DC      C2 1388   7.486   9.353   6.118
   44DC      O2 1389   7.437   9.256   6.174
   44DC     C3' 1390   7.862   9.260   6.394
   44DC     H3' 1391   7.964   9.268   6.431
   44DC     C2' 1392   7.839   9.317   6.254
   44DC    H2'1 1393   7.885   9.414   6.239
   44DC    H2'2 1394   7.873   9.242   6.182
   44DC     O3' 1395   7.818   9.125   6.402
   45DA       P 1396   7.917   9.014   6.458
   45DA     O1P 1397   7.940   9.031   6.602
   45DA     O2P 1398   8.032   8.993   6.370
   45DA     O5' 1399   7.837   8.881   6.450
   45DA     C5' 1400   7.726   8.853   6.535
   45DA    H5'1 1401   7.688   8.947   6.575
   45DA    H5'2 1402   7.763   8.800   6.623
   45DA     C4' 1403   7.606   8.778   6.481
   45DA     H4' 1404   7.534   8.766   6.562
   45DA     O4' 1405   7.552   8.860   6.381
   45DA     C1' 1406   7.557   8.791   6.257
   45DA     H1' 1407   7.459   8.747   6.240
   45DA      N9 1408   7.578   8.887   6.148
   45DA      C8 1409   7.691   8.965   6.128
   45DA      H8 1410   7.777   8.969   6.194
   45DA      N7 1411   7.672   9.054   6.033
   45DA      C5 1412   7.551   9.019   5.979
   45DA      C6 1413   7.480   9.069   5.871
   45DA      N6 1414   7.518   9.173   5.804
   45DA     H61 1415   7.453   9.206   5.734
   45DA     H62 1416   7.601   9.226   5.828
   45DA      N1 1417   7.360   9.019   5.837
   45DA      C2 1418   7.320   8.910   5.910
   45DA      H2 1419   7.229   8.868   5.869
   45DA      N3 1420   7.374   8.855   6.015
   45DA      C4 1421   7.488   8.917   6.047
   45DA     C3' 1422   7.641   8.641   6.413
   45DA     H3' 1423   7.728   8.600   6.464
   45DA     C2' 1424   7.667   8.692   6.265
   45DA    H2'1 1425   7.771   8.723   6.257
   45DA    H2'2 1426   7.641   8.622   6.186
   45DA     O3' 1427   7.535   8.551   6.415
   46DT       P 1428   7.556   8.397   6.377
   46DT     O1P 1429   7.462   8.321   6.469
   46DT     O2P 1430   7.700   8.365   6.373
   46DT     O5' 1431   7.502   8.393   6.231
   46DT     C5' 1432   7.370   8.351   6.211
   46DT    H5'1 1433   7.296   8.424   6.245
   46DT    H5'2 1434   7.359   8.256   6.261
   46DT     C4' 1435   7.337   8.333   6.061
   46DT     H4' 1436   7.235   8.296   6.066
   46DT     O4' 1437   7.341   8.454   5.992
   46DT     C1' 1438   7.418   8.427   5.876
   46DT     H1' 1439   7.359   8.387   5.793
   46DT      N1 1440   7.490   8.545   5.814
   46DT      C6 1441   7.619   8.580   5.863
   46DT      H6 1442   7.674   8.527   5.939
   46DT      C5 1443   7.672   8.694   5.815
   46DT      C7 1444   7.803   8.750   5.876
   46DT     H71 1445   7.885   8.733   5.806
   46DT     H72 1446   7.805   8.856   5.901
   46DT     H73 1447   7.810   8.697   5.971
   46DT      C4 1448   7.603   8.773   5.708
   46DT      O4 1449   7.645   8.876   5.661
   46DT      N3 1450   7.481   8.726   5.664
   46DT      H3 1451   7.428   8.787   5.603
   46DT      C2 1452   7.422   8.619   5.719
   46DT      O2 1453   7.312   8.591   5.668
   46DT     C3' 1454   7.428   8.230   6.001
   46DT     H3' 1455   7.490   8.188   6.081
   46DT     C2' 1456   7.517   8.318   5.916
   46DT    H2'1 1457   7.591   8.358   5.985
   46DT    H2'2 1458   7.567   8.262   5.837
   46DT     O3' 1459   7.361   8.127   5.931
   47DG       P 1460   7.440   8.018   5.847
   47DG     O1P 1461   7.377   7.887   5.887
   47DG     O2P 1462   7.586   8.029   5.873
   47DG     O5' 1463   7.422   8.059   5.697
   47DG     C5' 1464   7.298   8.101   5.636
   47DG    H5'1 1465   7.220   8.136   5.705
   47DG    H5'2 1466   7.258   8.014   5.585
   47DG     C4' 1467   7.313   8.207   5.536
   47DG     H4' 1468   7.212   8.247   5.530
   47DG     O4' 1469   7.414   8.303   5.566
   47DG     C1' 1470   7.434   8.376   5.445
   47DG     H1' 1471   7.354   8.443   5.415
   47DG      N9 1472   7.560   8.448   5.459
   47DG      C8 1473   7.665   8.422   5.542
   47DG      H8 1474   7.656   8.352   5.623
   47DG      N7 1475   7.743   8.528   5.540
   47DG      C5 1476   7.704   8.604   5.428
   47DG      C6 1477   7.758   8.725   5.368
   47DG      O6 1478   7.859   8.787   5.403
   47DG      N1 1479   7.681   8.766   5.261
   47DG      H1 1480   7.716   8.846   5.211
   47DG      C2 1481   7.567   8.699   5.219
   47DG      N2 1482   7.513   8.748   5.109
   47DG     H21 1483   7.542   8.835   5.068
   47DG     H22 1484   7.432   8.699   5.072
   47DG      N3 1485   7.519   8.589   5.266
   47DG      C4 1486   7.594   8.545   5.365
   47DG     C3' 1487   7.364   8.137   5.404
   47DG     H3' 1488   7.435   8.058   5.425
   47DG     C2' 1489   7.436   8.258   5.346
   47DG    H2'1 1490   7.537   8.236   5.311
   47DG    H2'2 1491   7.379   8.293   5.260
   47DG     O3' 1492   7.259   8.095   5.323
   48DT       P 1493   7.273   7.980   5.221
   48DT     O1P 1494   7.139   7.931   5.181
   48DT     O2P 1495   7.365   7.879   5.276
   48DT     O5' 1496   7.345   8.055   5.100
   48DT     C5' 1497   7.282   8.141   5.011
   48DT    H5'1 1498   7.220   8.208   5.071
   48DT    H5'2 1499   7.206   8.080   4.962
   48DT     C4' 1500   7.372   8.216   4.914
   48DT     H4' 1501   7.311   8.275   4.846
   48DT     O4' 1502   7.458   8.297   4.991
   48DT     C1' 1503   7.590   8.277   4.947
   48DT     H1' 1504   7.606   8.322   4.849
   48DT      N1 1505   7.696   8.329   5.046
   48DT      C6 1506   7.746   8.257   5.150
   48DT      H6 1507   7.708   8.156   5.158
   48DT      C5 1508   7.838   8.314   5.231
   48DT      C7 1509   7.887   8.233   5.351
   48DT     H71 1510   7.982   8.183   5.336
   48DT     H72 1511   7.894   8.301   5.435
   48DT     H73 1512   7.813   8.153   5.362
   48DT      C4 1513   7.879   8.452   5.214
   48DT      O4 1514   7.959   8.513   5.283
   48DT      N3 1515   7.836   8.514   5.102
   48DT      H3 1516   7.877   8.604   5.079
   48DT      C2 1517   7.743   8.459   5.021
   48DT      O2 1518   7.706   8.525   4.920
   48DT     C3' 1519   7.464   8.124   4.847
   48DT     H3' 1520   7.432   8.020   4.839
   48DT     C2' 1521   7.596   8.129   4.927
   48DT    H2'1 1522   7.592   8.073   5.020
   48DT    H2'2 1523   7.675   8.098   4.858
   48DT     O3' 1524   7.483   8.163   4.712
   49DA       P 1525   7.396   8.099   4.590
   49DA     O1P 1526   7.247   8.094   4.618
   49DA     O2P 1527   7.474   7.984   4.540
   49DA     O5' 1528   7.419   8.213   4.480
   49DA     C5' 1529   7.346   8.337   4.470
   49DA    H5'1 1530   7.318   8.372   4.570
   49DA    H5'2 1531   7.249   8.320   4.424
   49DA     C4' 1532   7.428   8.445   4.397
   49DA     H4' 1533   7.361   8.528   4.372
   49DA     O4' 1534   7.522   8.503   4.487
   49DA     C1' 1535   7.651   8.461   4.448
   49DA     H1' 1536   7.691   8.550   4.398
   49DA      N9 1537   7.737   8.423   4.564
   49DA      C8 1538   7.744   8.303   4.622
   49DA      H8 1539   7.681   8.222   4.588
   49DA      N7 1540   7.838   8.292   4.715
   49DA      C5 1541   7.898   8.419   4.719
   49DA      C6 1542   8.006   8.484   4.792
   49DA      N6 1543   8.072   8.442   4.893
   49DA     H61 1544   8.148   8.501   4.924
   49DA     H62 1545   8.060   8.348   4.927
   49DA      N1 1546   8.042   8.607   4.768
   49DA      C2 1547   7.961   8.679   4.689
   49DA      H2 1548   7.996   8.779   4.671
   49DA      N3 1549   7.854   8.638   4.618
   49DA      C4 1550   7.833   8.501   4.628
   49DA     C3' 1551   7.501   8.390   4.272
   49DA     H3' 1552   7.446   8.302   4.239
   49DA     C2' 1553   7.638   8.359   4.332
   49DA    H2'1 1554   7.646   8.258   4.371
   49DA    H2'2 1555   7.720   8.386   4.266
   49DA     O3' 1556   7.524   8.494   4.174
   50DT       P 1557   7.602   8.470   4.033
   50DT     O1P 1558   7.523   8.544   3.929
   50DT     O2P 1559   7.627   8.325   4.008
   50DT     O5' 1560   7.742   8.539   4.052
   50DT     C5' 1561   7.753   8.674   4.099
   50DT    H5'1 1562   7.728   8.669   4.205
   50DT    H5'2 1563   7.673   8.728   4.048
   50DT     C4' 1564   7.888   8.743   4.078
   50DT     H4' 1565   7.868   8.849   4.096
   50DT     O4' 1566   7.971   8.714   4.191
   50DT     C1' 1567   8.081   8.638   4.148
   50DT     H1' 1568   8.165   8.708   4.150
   50DT      N1 1569   8.102   8.534   4.249
   50DT      C6 1570   8.015   8.429   4.259
   50DT      H6 1571   7.937   8.398   4.191
   50DT      C5 1572   8.034   8.334   4.351
   50DT      C7 1573   7.954   8.209   4.357
   50DT     H71 1574   7.872   8.200   4.285
   50DT     H72 1575   8.020   8.122   4.360
   50DT     H73 1576   7.901   8.219   4.451
   50DT      C4 1577   8.129   8.352   4.457
   50DT      O4 1578   8.141   8.281   4.557
   50DT      N3 1579   8.215   8.461   4.444
   50DT      H3 1580   8.281   8.484   4.517
   50DT      C2 1581   8.202   8.556   4.348
   50DT      O2 1582   8.272   8.654   4.352
   50DT     C3' 1583   7.975   8.723   3.953
   50DT     H3' 1584   7.918   8.691   3.866
   50DT     C2' 1585   8.067   8.603   3.997
   50DT    H2'1 1586   8.005   8.514   3.986
   50DT    H2'2 1587   8.163   8.595   3.948
   50DT     O3' 1588   8.035   8.851   3.924
   51DA       P 1589   8.147   8.867   3.821
   51DA     O1P 1590   8.139   9.014   3.785
   51DA     O2P 1591   8.122   8.769   3.716
   51DA     O5' 1592   8.292   8.840   3.892
   51DA     C5' 1593   8.347   8.934   3.988
   51DA    H5'1 1594   8.272   8.940   4.067
   51DA    H5'2 1595   8.347   9.034   3.943
   51DA     C4' 1596   8.494   8.902   4.034
   51DA     H4' 1597   8.524   8.995   4.083
   51DA     O4' 1598   8.489   8.792   4.125
   51DA     C1' 1599   8.601   8.704   4.100
   51DA     H1' 1600   8.688   8.744   4.152
   51DA      N9 1601   8.546   8.580   4.153
   51DA      C8 1602   8.441   8.509   4.098
   51DA      H8 1603   8.384   8.540   4.012
   51DA      N7 1604   8.416   8.394   4.154
   51DA      C5 1605   8.509   8.399   4.260
   51DA      C6 1606   8.553   8.302   4.361
   51DA      N6 1607   8.492   8.187   4.385
   51DA     H61 1608   8.507   8.136   4.471
   51DA     H62 1609   8.425   8.157   4.315
   51DA      N1 1610   8.649   8.334   4.448
   51DA      C2 1611   8.714   8.449   4.433
   51DA      H2 1612   8.779   8.479   4.514
   51DA      N3 1613   8.686   8.553   4.351
   51DA      C4 1614   8.589   8.512   4.263
   51DA     C3' 1615   8.593   8.866   3.926
   51DA     H3' 1616   8.551   8.881   3.827
   51DA     C2' 1617   8.610   8.718   3.946
   51DA    H2'1 1618   8.522   8.669   3.905
   51DA    H2'2 1619   8.701   8.676   3.903
   51DA     O3' 1620   8.705   8.949   3.951
   52DA       P 1621   8.846   8.926   3.885
   52DA     O1P 1622   8.905   9.065   3.872
   52DA     O2P 1623   8.831   8.840   3.766
   52DA     O5' 1624   8.927   8.849   3.990
   52DA     C5' 1625   8.945   8.903   4.124
   52DA    H5'1 1626   8.856   8.915   4.186
   52DA    H5'2 1627   8.998   8.998   4.121
   52DA     C4' 1628   9.029   8.800   4.190
   52DA     H4' 1629   9.058   8.838   4.288
   52DA     O4' 1630   8.959   8.678   4.207
   52DA     C1' 1631   9.045   8.571   4.199
   52DA     H1' 1632   9.103   8.544   4.288
   52DA      N9 1633   8.959   8.456   4.155
   52DA      C8 1634   8.891   8.434   4.045
   52DA      H8 1635   8.889   8.510   3.967
   52DA      N7 1636   8.831   8.320   4.024
   52DA      C5 1637   8.856   8.262   4.143
   52DA      C6 1638   8.818   8.136   4.200
   52DA      N6 1639   8.741   8.039   4.159
   52DA     H61 1640   8.721   7.962   4.221
   52DA     H62 1641   8.699   8.032   4.067
   52DA      N1 1642   8.862   8.109   4.326
   52DA      C2 1643   8.945   8.195   4.388
   52DA      H2 1644   8.981   8.169   4.486
   52DA      N3 1645   8.986   8.315   4.350
   52DA      C4 1646   8.936   8.341   4.226
   52DA     C3' 1647   9.154   8.760   4.109
   52DA     H3' 1648   9.160   8.809   4.012
   52DA     C2' 1649   9.142   8.606   4.092
   52DA    H2'1 1650   9.108   8.585   3.990
   52DA    H2'2 1651   9.234   8.550   4.105
   52DA     O3' 1652   9.267   8.797   4.182
   53DT       P 1653   9.420   8.757   4.155
   53DT     O1P 1654   9.511   8.858   4.215
   53DT     O2P 1655   9.432   8.728   4.011
   53DT     O5' 1656   9.426   8.623   4.240
   53DT     C5' 1657   9.422   8.637   4.384
   53DT    H5'1 1658   9.329   8.685   4.417
   53DT    H5'2 1659   9.513   8.686   4.419
   53DT     C4' 1660   9.428   8.507   4.459
   53DT     H4' 1661   9.400   8.536   4.561
   53DT     O4' 1662   9.342   8.417   4.391
   53DT     C1' 1663   9.412   8.302   4.370
   53DT     H1' 1664   9.422   8.256   4.468
   53DT      N1 1665   9.341   8.225   4.262
   53DT      C6 1666   9.329   8.274   4.139
   53DT      H6 1667   9.384   8.364   4.113
   53DT      C5 1668   9.246   8.210   4.053
   53DT      C7 1669   9.237   8.266   3.914
   53DT     H71 1670   9.307   8.349   3.903
   53DT     H72 1671   9.249   8.189   3.838
   53DT     H73 1672   9.133   8.297   3.898
   53DT      C4 1673   9.169   8.093   4.089
   53DT      O4 1674   9.081   8.041   4.022
   53DT      N3 1675   9.195   8.047   4.215
   53DT      H3 1676   9.147   7.966   4.250
   53DT      C2 1677   9.276   8.108   4.306
   53DT      O2 1678   9.288   8.063   4.418
   53DT     C3' 1679   9.569   8.447   4.445
   53DT     H3' 1680   9.639   8.523   4.408
   53DT     C2' 1681   9.549   8.344   4.342
   53DT    H2'1 1682   9.551   8.386   4.241
   53DT    H2'2 1683   9.611   8.255   4.347
   53DT     O3' 1684   9.618   8.401   4.565
   54DA       P 1685   9.769   8.340   4.579
   54DA     O1P 1686   9.794   8.340   4.720
   54DA     O2P 1687   9.863   8.396   4.483
   54DA     O5' 1688   9.749   8.186   4.541
   54DA     C5' 1689   9.648   8.105   4.601
   54DA    H5'1 1690   9.556   8.159   4.581
   54DA    H5'2 1691   9.659   8.106   4.710
   54DA     C4' 1692   9.642   7.965   4.541
   54DA     H4' 1693   9.584   7.904   4.609
   54DA     O4' 1694   9.566   7.968   4.428
   54DA     C1' 1695   9.612   7.864   4.339
   54DA     H1' 1696   9.594   7.763   4.374
   54DA      N9 1697   9.554   7.897   4.210
   54DA      C8 1698   9.581   8.005   4.125
   54DA      H8 1699   9.652   8.083   4.149
   54DA      N7 1700   9.515   7.999   4.012
   54DA      C5 1701   9.441   7.884   4.020
   54DA      C6 1702   9.349   7.823   3.933
   54DA      N6 1703   9.309   7.864   3.812
   54DA     H61 1704   9.241   7.816   3.755
   54DA     H62 1705   9.357   7.943   3.771
   54DA      N1 1706   9.303   7.703   3.964
   54DA      C2 1707   9.330   7.648   4.079
   54DA      H2 1708   9.280   7.556   4.103
   54DA      N3 1709   9.405   7.698   4.177
   54DA      C4 1710   9.465   7.818   4.141
   54DA     C3' 1711   9.780   7.897   4.511
   54DA     H3' 1712   9.865   7.962   4.532
   54DA     C2' 1713   9.764   7.879   4.365
   54DA    H2'1 1714   9.802   7.965   4.310
   54DA    H2'2 1715   9.819   7.796   4.320
   54DA     O3' 1716   9.782   7.771   4.582
   55DC       P 1717   9.915   7.688   4.590
   55DC     O1P 1718   9.933   7.634   4.726
   55DC     O2P 1719  10.033   7.755   4.528
   55DC     O5' 1720   9.869   7.572   4.491
   55DC     C5' 1721   9.772   7.479   4.530
   55DC    H5'1 1722   9.697   7.536   4.584
   55DC    H5'2 1723   9.816   7.410   4.602
   55DC     C4' 1724   9.729   7.399   4.408
   55DC     H4' 1725   9.660   7.327   4.451
   55DC     O4' 1726   9.672   7.466   4.297
   55DC     C1' 1727   9.716   7.403   4.181
   55DC     H1' 1728   9.669   7.307   4.164
   55DC      N1 1729   9.685   7.487   4.063
   55DC      C6 1730   9.763   7.589   4.027
   55DC      H6 1731   9.844   7.614   4.095
   55DC      C5 1732   9.734   7.672   3.926
   55DC      H5 1733   9.782   7.767   3.912
   55DC      C4 1734   9.625   7.629   3.838
   55DC      N4 1735   9.591   7.706   3.737
   55DC     H41 1736   9.517   7.667   3.681
   55DC     H42 1737   9.642   7.784   3.698
   55DC      N3 1738   9.552   7.525   3.868
   55DC      C2 1739   9.577   7.452   3.978
   55DC      O2 1740   9.502   7.356   3.999
   55DC     C3' 1741   9.842   7.319   4.358
   55DC     H3' 1742   9.935   7.338   4.412
   55DC     C2' 1743   9.862   7.367   4.213
   55DC    H2'1 1744   9.936   7.447   4.213
   55DC    H2'2 1745   9.897   7.280   4.158
   55DC     O3' 1746   9.799   7.181   4.363
   56DG       P 1747   9.903   7.064   4.388
   56DG     O1P 1748   9.918   7.035   4.534
   56DG     O2P 1749  10.025   7.090   4.305
   56DG     O5' 1750   9.837   6.945   4.313
   56DG     C5' 1751   9.709   6.902   4.360
   56DG    H5'1 1752   9.638   6.984   4.379
   56DG    H5'2 1753   9.713   6.851   4.456
   56DG     C4' 1754   9.647   6.805   4.263
   56DG     H4' 1755   9.581   6.750   4.330
   56DG     O4' 1756   9.585   6.885   4.164
   56DG     C1' 1757   9.645   6.862   4.040
   56DG     H1' 1758   9.570   6.816   3.975
   56DG      N9 1759   9.685   6.993   3.983
   56DG      C8 1760   9.798   7.068   4.010
   56DG      H8 1761   9.867   7.053   4.092
   56DG      N7 1762   9.821   7.168   3.924
   56DG      C5 1763   9.699   7.163   3.841
   56DG      C6 1764   9.661   7.239   3.726
   56DG      O6 1765   9.732   7.330   3.671
   56DG      N1 1766   9.541   7.204   3.664
   56DG      H1 1767   9.503   7.260   3.589
   56DG      C2 1768   9.473   7.091   3.709
   56DG      N2 1769   9.363   7.058   3.644
   56DG     H21 1770   9.344   7.112   3.561
   56DG     H22 1771   9.298   6.994   3.689
   56DG      N3 1772   9.504   7.017   3.813
   56DG      C4 1773   9.619   7.058   3.877
   56DG     C3' 1774   9.732   6.701   4.190
   56DG     H3' 1775   9.819   6.681   4.253
   56DG     C2' 1776   9.767   6.768   4.058
   56DG    H2'1 1777   9.858   6.828   4.070
   56DG    H2'2 1778   9.781   6.693   3.981
   56DG     O3' 1779   9.662   6.576   4.178
   57DC       P 1780   9.709   6.451   4.091
   57DC     O1P 1781   9.629   6.337   4.136
   57DC     O2P 1782   9.856   6.450   4.101
   57DC     O5' 1783   9.661   6.479   3.933
   57DC     C5' 1784   9.525   6.513   3.911
   57DC    H5'1 1785   9.490   6.577   3.993
   57DC    H5'2 1786   9.471   6.419   3.926
   57DC     C4' 1787   9.489   6.584   3.777
   57DC     H4' 1788   9.384   6.614   3.777
   57DC     O4' 1789   9.570   6.697   3.758
   57DC     C1' 1790   9.573   6.731   3.623
   57DC     H1' 1791   9.480   6.772   3.585
   57DC      N1 1792   9.688   6.823   3.608
   57DC      C6 1793   9.798   6.815   3.693
   57DC      H6 1794   9.802   6.732   3.762
   57DC      C5 1795   9.889   6.912   3.682
   57DC      H5 1796   9.973   6.917   3.750
   57DC      C4 1797   9.872   7.010   3.576
   57DC      N4 1798   9.965   7.096   3.550
   57DC     H41 1799   9.947   7.171   3.484
   57DC     H42 1800  10.048   7.091   3.606
   57DC      N3 1801   9.773   7.011   3.493
   57DC      C2 1802   9.681   6.918   3.508
   57DC      O2 1803   9.584   6.930   3.432
   57DC     C3' 1804   9.513   6.504   3.653
   57DC     H3' 1805   9.575   6.419   3.683
   57DC     C2' 1806   9.595   6.595   3.565
   57DC    H2'1 1807   9.702   6.577   3.575
   57DC    H2'2 1808   9.560   6.578   3.463
   57DC     O3' 1809   9.385   6.457   3.610
   58DA       P 1810   9.368   6.362   3.483
   58DA     O1P 1811   9.224   6.329   3.472
   58DA     O2P 1812   9.460   6.247   3.487
   58DA     O5' 1813   9.407   6.446   3.358
   58DA     C5' 1814   9.324   6.554   3.314
   58DA    H5'1 1815   9.297   6.631   3.387
   58DA    H5'2 1816   9.226   6.519   3.281
   58DA     C4' 1817   9.389   6.623   3.198
   58DA     H4' 1818   9.316   6.696   3.162
   58DA     O4' 1819   9.501   6.700   3.239
   58DA     C1' 1820   9.608   6.668   3.145
   58DA     H1' 1821   9.595   6.740   3.065
   58DA      N9 1822   9.740   6.683   3.204
   58DA      C8 1823   9.804   6.610   3.304
   58DA      H8 1824   9.772   6.515   3.344
   58DA      N7 1825   9.913   6.671   3.349
   58DA      C5 1826   9.921   6.784   3.262
   58DA      C6 1827  10.011   6.893   3.248
   58DA      N6 1828  10.122   6.920   3.319
   58DA     H61 1829  10.180   6.997   3.288
   58DA     H62 1830  10.143   6.864   3.401
   58DA      N1 1831   9.996   6.986   3.154
   58DA      C2 1832   9.904   6.965   3.065
   58DA      H2 1833   9.901   7.045   2.992
   58DA      N3 1834   9.813   6.872   3.061
   58DA      C4 1835   9.824   6.784   3.165
   58DA     C3' 1836   9.432   6.525   3.086
   58DA     H3' 1837   9.388   6.428   3.108
   58DA     C2' 1838   9.580   6.525   3.103
   58DA    H2'1 1839   9.600   6.457   3.186
   58DA    H2'2 1840   9.643   6.488   3.023
   58DA     O3' 1841   9.401   6.576   2.962
   59DC       P 1842   9.369   6.485   2.834
   59DC     O1P 1843   9.276   6.560   2.744
   59DC     O2P 1844   9.324   6.356   2.881
   59DC     O5' 1845   9.503   6.461   2.755
   59DC     C5' 1846   9.531   6.535   2.634
   59DC    H5'1 1847   9.485   6.633   2.624
   59DC    H5'2 1848   9.487   6.482   2.549
   59DC     C4' 1849   9.687   6.534   2.612
   59DC     H4' 1850   9.701   6.599   2.526
   59DC     O4' 1851   9.755   6.595   2.719
   59DC     C1' 1852   9.883   6.532   2.730
   59DC     H1' 1853   9.949   6.563   2.649
   59DC      N1 1854   9.966   6.566   2.850
   59DC      C6 1855   9.971   6.482   2.965
   59DC      H6 1856   9.904   6.399   2.976
   59DC      C5 1857  10.069   6.493   3.054
   59DC      H5 1858  10.078   6.421   3.134
   59DC      C4 1859  10.152   6.605   3.048
   59DC      N4 1860  10.240   6.625   3.142
   59DC     H41 1861  10.291   6.712   3.143
   59DC     H42 1862  10.250   6.566   3.223
   59DC      N3 1863  10.143   6.693   2.949
   59DC      C2 1864  10.056   6.674   2.842
   59DC      O2 1865  10.048   6.760   2.752
   59DC     C3' 1866   9.747   6.396   2.587
   59DC     H3' 1867   9.668   6.321   2.590
   59DC     C2' 1868   9.838   6.387   2.710
   59DC    H2'1 1869   9.771   6.350   2.787
   59DC    H2'2 1870   9.922   6.317   2.703
   59DC     O3' 1871   9.832   6.382   2.471
   60DA       P 1872   9.774   6.328   2.334
   60DA     O1P 1873   9.641   6.391   2.319
   60DA     O2P 1874   9.773   6.183   2.323
   60DA     O5' 1875   9.878   6.394   2.239
   60DA     C5' 1876   9.862   6.527   2.196
   60DA    H5'1 1877   9.798   6.532   2.108
   60DA    H5'2 1878   9.813   6.586   2.274
   60DA     C4' 1879   9.994   6.608   2.176
   60DA     H4' 1880   9.967   6.703   2.131
   60DA     O4' 1881  10.053   6.616   2.298
   60DA     C1' 1882  10.186   6.564   2.292
   60DA     H1' 1883  10.261   6.642   2.276
   60DA      N9 1884  10.206   6.504   2.421
   60DA      C8 1885  10.145   6.402   2.479
   60DA      H8 1886  10.082   6.341   2.415
   60DA      N7 1887  10.181   6.382   2.602
   60DA      C5 1888  10.273   6.477   2.629
   60DA      C6 1889  10.346   6.519   2.743
   60DA      N6 1890  10.346   6.457   2.858
   60DA     H61 1891  10.402   6.499   2.931
   60DA     H62 1892  10.293   6.374   2.881
   60DA      N1 1893  10.412   6.630   2.745
   60DA      C2 1894  10.428   6.691   2.633
   60DA      H2 1895  10.489   6.779   2.643
   60DA      N3 1896  10.369   6.671   2.516
   60DA      C4 1897  10.295   6.555   2.522
   60DA     C3' 1898  10.091   6.537   2.076
   60DA     H3' 1899  10.027   6.462   2.028
   60DA     C2' 1900  10.184   6.461   2.172
   60DA    H2'1 1901  10.137   6.371   2.211
   60DA    H2'2 1902  10.282   6.432   2.135
   60DA     O3' 1903  10.159   6.630   1.995
   61DT       P 1904  10.230   6.574   1.865
   61DT     O1P 1905  10.192   6.657   1.753
   61DT     O2P 1906  10.204   6.428   1.848
   61DT     O5' 1907  10.385   6.594   1.883
   61DT     C5' 1908  10.443   6.725   1.911
   61DT    H5'1 1909  10.373   6.777   1.975
   61DT    H5'2 1910  10.457   6.781   1.819
   61DT     C4' 1911  10.567   6.714   1.994
   61DT     H4' 1912  10.605   6.814   2.017
   61DT     O4' 1913  10.540   6.653   2.120
   61DT     C1' 1914  10.654   6.602   2.179
   61DT     H1' 1915  10.717   6.679   2.224
   61DT      N1 1916  10.613   6.504   2.280
   61DT      C6 1917  10.524   6.400   2.253
   61DT      H6 1918  10.490   6.389   2.151
   61DT      C5 1919  10.476   6.319   2.350
   61DT      C7 1920  10.394   6.204   2.309
   61DT     H71 1921  10.313   6.193   2.381
   61DT     H72 1922  10.343   6.208   2.212
   61DT     H73 1923  10.455   6.114   2.305
   61DT      C4 1924  10.522   6.327   2.491
   61DT      O4 1925  10.494   6.253   2.586
   61DT      N3 1926  10.615   6.424   2.504
   61DT      H3 1927  10.632   6.456   2.599
   61DT      C2 1928  10.657   6.516   2.409
   61DT      O2 1929  10.736   6.599   2.448
   61DT     C3' 1930  10.675   6.630   1.936
   61DT     H3' 1931  10.638   6.562   1.859
   61DT     C2' 1932  10.726   6.550   2.055
   61DT    H2'1 1933  10.710   6.443   2.039
   61DT    H2'2 1934  10.835   6.548   2.064
   61DT     O3' 1935  10.774   6.705   1.870
   62DG       P 1936  10.898   6.794   1.936
   62DG     O1P 1937  10.837   6.875   2.042
   62DG     O2P 1938  10.971   6.866   1.829
   62DG     O5' 1939  11.005   6.689   1.998
   62DG     C5' 1940  11.096   6.718   2.106
   62DG    H5'1 1941  11.179   6.776   2.065
   62DG    H5'2 1942  11.052   6.778   2.186
   62DG     C4' 1943  11.160   6.597   2.181
   62DG     H4' 1944  11.241   6.625   2.248
   62DG     O4' 1945  11.065   6.535   2.264
   62DG     C1' 1946  11.086   6.389   2.260
   62DG     H1' 1947  11.178   6.371   2.317
   62DG      N9 1948  10.987   6.297   2.318
   62DG      C8 1949  10.876   6.247   2.262
   62DG      H8 1950  10.839   6.279   2.165
   62DG      N7 1951  10.797   6.181   2.343
   62DG      C5 1952  10.868   6.178   2.464
   62DG      C6 1953  10.846   6.103   2.582
   62DG      O6 1954  10.774   6.008   2.607
   62DG      N1 1955  10.940   6.135   2.680
   62DG      H1 1956  10.930   6.091   2.771
   62DG      C2 1957  11.046   6.215   2.655
   62DG      N2 1958  11.129   6.235   2.754
   62DG     H21 1959  11.105   6.190   2.841
   62DG     H22 1960  11.209   6.294   2.737
   62DG      N3 1961  11.077   6.278   2.544
   62DG      C4 1962  10.986   6.252   2.446
   62DG     C3' 1963  11.210   6.483   2.086
   62DG     H3' 1964  11.200   6.509   1.980
   62DG     C2' 1965  11.119   6.377   2.117
   62DG    H2'1 1966  11.028   6.399   2.060
   62DG    H2'2 1967  11.166   6.282   2.090
   62DG     O3' 1968  11.338   6.452   2.124
   63DC       P 1969  11.474   6.517   2.064
   63DC     O1P 1970  11.460   6.662   2.055
   63DC     O2P 1971  11.520   6.443   1.942
   63DC     O5' 1972  11.565   6.482   2.187
   63DC     C5' 1973  11.552   6.549   2.311
   63DC    H5'1 1974  11.457   6.603   2.316
   63DC    H5'2 1975  11.635   6.616   2.328
   63DC     C4' 1976  11.548   6.446   2.422
   63DC     H4' 1977  11.539   6.509   2.510
   63DC     O4' 1978  11.429   6.371   2.410
   63DC     C1' 1979  11.446   6.252   2.482
   63DC     H1' 1980  11.435   6.266   2.589
   63DC      N1 1981  11.354   6.148   2.422
   63DC      C6 1982  11.318   6.154   2.291
   63DC      H6 1983  11.360   6.229   2.226
   63DC      C5 1984  11.225   6.064   2.251
   63DC      H5 1985  11.200   6.058   2.146
   63DC      C4 1986  11.174   5.967   2.341
   63DC      N4 1987  11.069   5.890   2.310
   63DC     H41 1988  11.037   5.842   2.393
   63DC     H42 1989  11.031   5.893   2.217
   63DC      N3 1990  11.216   5.954   2.467
   63DC      C2 1991  11.311   6.043   2.507
   63DC      O2 1992  11.352   6.026   2.622
   63DC     C3' 1993  11.668   6.352   2.449
   63DC     H3' 1994  11.731   6.354   2.360
   63DC     C2' 1995  11.593   6.211   2.464
   63DC    H2'1 1996  11.605   6.157   2.371
   63DC    H2'2 1997  11.617   6.161   2.558
   63DC     O3' 1998  11.744   6.388   2.560
   64DG3      P 1999  11.892   6.339   2.592
   64DG3    O1P 2000  11.951   6.433   2.688
   64DG3    O2P 2001  11.965   6.322   2.464
   64DG3    O5' 2002  11.893   6.196   2.660
   64DG3    C5' 2003  11.854   6.178   2.793
   64DG3   H5'1 2004  11.760   6.225   2.820
   64DG3   H5'2 2005  11.934   6.213   2.858
   64DG3    C4' 2006  11.840   6.028   2.824
   64DG3    H4' 2007  11.840   6.011   2.931
   64DG3    O4' 2008  11.732   5.977   2.759
   64DG3    C1' 2009  11.760   5.850   2.695
   64DG3    H1' 2010  11.737   5.773   2.768
   64DG3     N9 2011  11.669   5.833   2.574
   64DG3     C8 2012  11.675   5.888   2.447
   64DG3     H8 2013  11.745   5.965   2.417
   64DG3     N7 2014  11.584   5.837   2.366
   64DG3     C5 2015  11.508   5.752   2.448
   64DG3     C6 2016  11.398   5.668   2.423
   64DG3     O6 2017  11.349   5.655   2.313
   64DG3     N1 2018  11.358   5.589   2.531
   64DG3     H1 2019  11.275   5.531   2.527
   64DG3     C2 2020  11.419   5.599   2.653
   64DG3     N2 2021  11.369   5.528   2.755
   64DG3    H21 2022  11.288   5.469   2.742
   64DG3    H22 2023  11.401   5.547   2.849
   64DG3     N3 2024  11.518   5.681   2.684
   64DG3     C4 2025  11.558   5.753   2.577
   64DG3    C3' 2026  11.960   5.936   2.776
   64DG3    H3' 2027  12.053   5.990   2.758
   64DG3    C2' 2028  11.903   5.865   2.656
   64DG3   H2'1 2029  11.916   5.932   2.571
   64DG3   H2'2 2030  11.940   5.764   2.643
   64DG3    O3' 2031  11.989   5.838   2.874
   64DG3    H3T 2032  12.058   5.876   2.930
   65SOL     OW 2033   6.490  12.436  12.663
   65SOL    HW1 2034   6.550  12.407  12.731
   65SOL    HW2 2035   6.543  12.489  12.604
   66SOL     OW 2036   4.669   8.007   0.957
   66SOL    HW1 2037   4.710   7.921   0.949
   66SOL    HW2 2038   4.702   8.056   0.883
   67SOL     OW 2039  12.364  12.918   5.237
   67SOL    HW1 2040  12.317  12.999   5.256
   67SOL    HW2 2041  12.313  12.877   5.167
   68SOL     OW 2042  10.241   3.390  10.868
   68SOL    HW1 2043  10.220   3.481  10.890
   68SOL    HW2 2044  10.297   3.360  10.939
   69SOL     OW 2045  14.193   7.828  13.966
   69SOL    HW1 2046  14.109   7.785  13.953
   69SOL    HW2 2047  14.193   7.853  14.059
   70SOL     OW 2048  10.606  13.800  10.589
   70SOL    HW1 2049  10.664  13.858  10.540
   70SOL    HW2 2050  10.636  13.806  10.679
   71SOL     OW 2051   8.206  14.753   1.449
   71SOL    HW1 2052   8.163  14.796   1.523
   71SOL    HW2 2053   8.195  14.815   1.376
   72SOL     OW 2054   3.298   6.479   0.152
   72SOL    HW1 2055   3.347   6.557   0.128
   72SOL    HW2 2056   3.210   6.510   0.169
   73SOL     OW 2057   7.664  12.996  12.852
   73SOL    HW1 2058   7.668  12.983  12.757
   73SOL    HW2 2059   7.697  13.085  12.864
   74SOL     OW 2060  13.295   9.773   8.716
   74SOL    HW1 2061  13.358   9.719   8.668
   74SOL    HW2 2062  13.337   9.790   8.800
   75SOL     OW 2063   4.929  12.244   0.125
   75SOL    HW1 2064   4.838  12.214   0.129
   75SOL    HW2 2065   4.923  12.339   0.136
   76SOL     OW 2066   5.636   0.631  13.001
   76SOL    HW1 2067   5.691   0.681  12.941
   76SOL    HW2 2068   5.624   0.689  13.076
   77SOL     OW 2069   1.820   7.045   2.196
   77SOL    HW1 2070   1.875   7.003   2.262
   77SOL    HW2 2071   1.861   7.021   2.113
   78SOL     OW 2072   2.790   8.437   7.876
   78SOL    HW1 2073   2.713   8.483   7.842
   78SOL    HW2 2074   2.821   8.492   7.948
   79SOL     OW 2075  10.162   7.952   9.713
   79SOL    HW1 2076  10.070   7.967   9.735
   79SOL    HW2 2077  10.160   7.913   9.626
   80SOL     OW 2078   0.410   6.520   6.433
   80SOL    HW1 2079   0.398   6.436   6.477
   80SOL    HW2 2080   0.446   6.498   6.348
   81SOL     OW 2081   7.323   2.493   3.100
   81SOL    HW1 2082   7.410   2.454   3.107
   81SOL    HW2 2083   7.286   2.456   3.020
   82SOL     OW 2084   3.418   0.584   3.179
   82SOL    HW1 2085   3.497   0.603   3.127
   82SOL    HW2 2086   3.449   0.528   3.250
   83SOL     OW 2087  12.296   9.866   0.712
   83SOL    HW1 2088  12.375   9.845   0.763
   83SOL    HW2 2089  12.229   9.808   0.749
   84SOL     OW 2090   2.912   7.756  13.284
   84SOL    HW1 2091   2.956   7.791  13.362
   84SOL    HW2 2092   2.973   7.774  13.212
   85SOL     OW 2093   3.745  14.386   8.408
   85SOL    HW1 2094   3.827  14.421   8.371
   85SOL    HW2 2095   3.746  14.416   8.499
   86SOL     OW 2096   7.157   6.912   4.670
   86SOL    HW1 2097   7.099   6.866   4.609
   86SOL    HW2 2098   7.236   6.858   4.672
   87SOL     OW 2099   1.337   6.777   0.711
   87SOL    HW1 2100   1.318   6.690   0.747
   87SOL    HW2 2101   1.346   6.762   0.617
   88SOL     OW 2102   3.464   4.813   2.217
   88SOL    HW1 2103   3.547   4.818   2.169
   88SOL    HW2 2104   3.489   4.823   2.309
   89SOL     OW 2105  10.066  10.973   7.706
   89SOL    HW1 2106  10.024  11.013   7.631
   89SOL    HW2 2107  10.063  10.879   7.689
   90SOL     OW 2108  13.458  12.274   3.616
   90SOL    HW1 2109  13.453  12.253   3.523
   90SOL    HW2 2110  13.409  12.355   3.625
   91SOL     OW 2111   6.708   9.755   8.018
   91SOL    HW1 2112   6.731   9.792   7.933
   91SOL    HW2 2113   6.662   9.674   7.997
   92SOL     OW 2114   4.910  10.236  11.662
   92SOL    HW1 2115   4.915  10.310  11.602
   92SOL    HW2 2116   4.999  10.202  11.666
   93SOL     OW 2117  14.761   2.118   3.646
   93SOL    HW1 2118  14.822   2.071   3.589
   93SOL    HW2 2119  14.678   2.071   3.635
   94SOL     OW 2120   7.970  11.073   6.912
   94SOL    HW1 2121   7.925  11.034   6.987
   94SOL    HW2 2122   7.948  11.016   6.838
   95SOL     OW 2123  12.420   7.889  13.685
   95SOL    HW1 2124  12.355   7.819  13.685
   95SOL    HW2 2125  12.456   7.888  13.597
   96SOL     OW 2126  10.278  13.400   6.912
   96SOL    HW1 2127  10.295  13.399   6.818
   96SOL    HW2 2128  10.253  13.491   6.930
   97SOL     OW 2129   0.104   5.560   5.823
   97SOL    HW1 2130   0.055   5.590   5.746
   97SOL    HW2 2131   0.193   5.590   5.807
   98SOL     OW 2132   1.908   5.445  11.180
   98SOL    HW1 2133   1.966   5.484  11.246
   98SOL    HW2 2134   1.826   5.429  11.226
   99SOL     OW 2135  11.918  10.172   0.366
   99SOL    HW1 2136  12.013  10.177   0.365
   99SOL    HW2 2137  11.894  10.141   0.278
  100SOL     OW 2138  14.229  11.135   5.712
  100SOL    HW1 2139  14.324  11.140   5.712
  100SOL    HW2 2140  14.205  11.137   5.620
  101SOL     OW 2141   4.893   1.983   5.518
  101SOL    HW1 2142   4.879   2.050   5.585
  101SOL    HW2 2143   4.807   1.942   5.506
  102SOL     OW 2144   4.561   4.747   9.972
  102SOL    HW1 2145   4.580   4.654   9.960
  102SOL    HW2 2146   4.612   4.773  10.049
  103SOL     OW 2147   8.407   0.823  14.628
  103SOL    HW1 2148   8.405   0.745  14.684
  103SOL    HW2 2149   8.336   0.809  14.565
  104SOL     OW 2150   0.969   7.956   7.316
  104SOL    HW1 2151   0.912   7.914   7.252
  104SOL    HW2 2152   0.922   7.948   7.399
  105SOL     OW 2153   3.663   0.301   9.270
  105SOL    HW1 2154   3.612   0.226   9.301
  105SOL    HW2 2155   3.677   0.283   9.177
  106SOL     OW 2156   2.721  14.051   3.747
  106SOL    HW1 2157   2.778  13.976   3.766
  106SOL    HW2 2158   2.782  14.123   3.729
  107SOL     OW 2159   6.769   9.243  11.703
  107SOL    HW1 2160   6.766   9.297  11.783
  107SOL    HW2 2161   6.846   9.274  11.656
  108SOL     OW 2162   5.956  12.637   5.309
  108SOL    HW1 2163   5.900  12.591   5.372
  108SOL    HW2 2164   5.946  12.588   5.227
  109SOL     OW 2165  13.005   0.252  10.719
  109SOL    HW1 2166  12.956   0.175  10.748
  109SOL    HW2 2167  13.003   0.248  10.623
  110SOL     OW 2168  10.722   7.554  13.368
  110SOL    HW1 2169  10.765   7.616  13.308
  110SOL    HW2 2170  10.680   7.610  13.433
  111SOL     OW 2171  14.444  12.153   8.650
  111SOL    HW1 2172  14.356  12.128   8.680
  111SOL    HW2 2173  14.485  12.192   8.727
  112SOL     OW 2174   0.162   1.649  11.952
  112SOL    HW1 2175   0.096   1.652  12.021
  112SOL    HW2 2176   0.225   1.717  11.976
  113SOL     OW 2177  13.195  14.636   8.802
  113SOL    HW1 2178  13.184  14.711   8.745
  113SOL    HW2 2179  13.189  14.560   8.743
  114SOL     OW 2180   9.619  11.623  11.610
  114SOL    HW1 2181   9.524  11.631  11.599
  114SOL    HW2 2182   9.655  11.698  11.562
  115SOL     OW 2183   7.184  12.945  12.314
  115SOL    HW1 2184   7.203  13.018  12.256
  115SOL    HW2 2185   7.099  12.967  12.353
  116SOL     OW 2186   9.201   5.687  14.387
  116SOL    HW1 2187   9.209   5.728  14.301
  116SOL    HW2 2188   9.264   5.735  14.442
  117SOL     OW 2189   7.270   2.418   9.453
  117SOL    HW1 2190   7.252   2.426   9.359
  117SOL    HW2 2191   7.187   2.438   9.495
  118SOL     OW 2192  12.447   8.164   6.595
  118SOL    HW1 2193  12.491   8.243   6.626
  118SOL    HW2 2194  12.383   8.144   6.663
  119SOL     OW 2195  13.106   3.792  10.556
  119SOL    HW1 2196  13.050   3.775  10.632
  119SOL    HW2 2197  13.160   3.866  10.583
  120SOL     OW 2198  12.565  12.592   1.399
  120SOL    HW1 2199  12.647  12.542   1.401
  120SOL    HW2 2200  12.508  12.548   1.462
  121SOL     OW 2201  10.315  13.211   5.499
  121SOL    HW1 2202  10.371  13.255   5.436
  121SOL    HW2 2203  10.246  13.274   5.519
  122SOL     OW 2204  10.268   2.256   8.592
  122SOL    HW1 2205  10.275   2.326   8.527
  122SOL    HW2 2206  10.259   2.302   8.675
  123SOL     OW 2207   0.830   2.874  10.286
  123SOL    HW1 2208   0.778   2.951  10.306
  123SOL    HW2 2209   0.782   2.828  10.217
  124SOL     OW 2210   7.288  14.039   9.135
  124SOL    HW1 2211   7.242  13.985   9.198
  124SOL    HW2 2212   7.378  14.006   9.136
  125SOL     OW 2213   1.382   7.999   6.085
  125SOL    HW1 2214   1.379   8.093   6.104
  125SOL    HW2 2215   1.404   7.994   5.992
  126SOL     OW 2216  12.280   4.136   4.948
  126SOL    HW1 2217  12.316   4.217   4.912
  126SOL    HW2 2218  12.263   4.081   4.871
  127SOL     OW 2219  11.264  13.610   5.154
  127SOL    HW1 2220  11.353  13.644   5.168
  127SOL    HW2 2221  11.207  13.678   5.191
  128SOL     OW 2222   4.629   8.843  13.723
  128SOL    HW1 2223   4.538   8.852  13.694
  128SOL    HW2 2224   4.671   8.791  13.654
  129SOL     OW 2225   1.504   1.147  10.058
  129SOL    HW1 2226   1.466   1.176  10.141
  129SOL    HW2 2227   1.432   1.101  10.014
  130SOL     OW 2228  14.327  10.855  13.630
  130SOL    HW1 2229  14.263  10.807  13.578
  130SOL    HW2 2230  14.348  10.797  13.703
  131SOL     OW 2231   3.289   4.276   5.023
  131SOL    HW1 2232   3.227   4.280   4.951
  131SOL    HW2 2233   3.294   4.184   5.047
  132SOL     OW 2234   5.073   2.260   4.828
  132SOL    HW1 2235   5.066   2.319   4.753
  132SOL    HW2 2236   5.096   2.175   4.789
  133SOL     OW 2237  13.731   2.009  12.296
  133SOL    HW1 2238  13.726   2.059  12.214
  133SOL    HW2 2239  13.641   1.980  12.311
  134SOL     OW 2240   9.028   5.701   9.685
  134SOL    HW1 2241   9.011   5.795   9.685
  134SOL    HW2 2242   9.026   5.676   9.777
  135SOL     OW 2243   3.826   9.130   7.293
  135SOL    HW1 2244   3.875   9.187   7.234
  135SOL    HW2 2245   3.852   9.041   7.268
  136SOL     OW 2246   2.869   9.741   8.467
  136SOL    HW1 2247   2.902   9.651   8.460
  136SOL    HW2 2248   2.835   9.746   8.557
  137SOL     OW 2249  12.006   0.930   5.889
  137SOL    HW1 2250  12.014   1.025   5.878
  137SOL    HW2 2251  12.094   0.897   5.871
  138SOL     OW 2252  11.402  11.928   3.369
  138SOL    HW1 2253  11.456  11.854   3.396
  138SOL    HW2 2254  11.368  11.963   3.451
  139SOL     OW 2255   4.283   4.046  12.168
  139SOL    HW1 2256   4.223   4.014  12.101
  139SOL    HW2 2257   4.368   4.007  12.145
  140SOL     OW 2258  12.316   6.814  13.351
  140SOL    HW1 2259  12.307   6.887  13.291
  140SOL    HW2 2260  12.259   6.745  13.316
  141SOL     OW 2261  13.088   4.218   7.146
  141SOL    HW1 2262  13.081   4.149   7.211
  141SOL    HW2 2263  13.071   4.175   7.062
  142SOL     OW 2264   1.659   5.728   6.791
  142SOL    HW1 2265   1.607   5.724   6.871
  142SOL    HW2 2266   1.705   5.812   6.796
  143SOL     OW 2267   5.821   4.465   0.822
  143SOL    HW1 2268   5.763   4.390   0.808
  143SOL    HW2 2269   5.775   4.539   0.782
  144SOL     OW 2270  10.183  11.098   1.371
  144SOL    HW1 2271  10.105  11.085   1.424
  144SOL    HW2 2272  10.223  11.011   1.366
  145SOL     OW 2273  14.407  12.605   2.827
  145SOL    HW1 2274  14.378  12.547   2.756
  145SOL    HW2 2275  14.481  12.559   2.866
  146SOL     OW 2276  14.735  10.017   7.687
  146SOL    HW1 2277  14.781   9.940   7.653
  146SOL    HW2 2278  14.642   9.997   7.675
  147SOL     OW 2279   8.843   2.509  12.863
  147SOL    HW1 2280   8.769   2.544  12.813
  147SOL    HW2 2281   8.910   2.490  12.797
  148SOL     OW 2282   6.601  10.299  14.263
  148SOL    HW1 2283   6.528  10.359  14.274
  148SOL    HW2 2284   6.582  10.226  14.321
  149SOL     OW 2285   2.180  14.530   7.626
  149SOL    HW1 2286   2.132  14.585   7.564
  149SOL    HW2 2287   2.261  14.508   7.581
  150SOL     OW 2288  14.628   1.644  11.959
  150SOL    HW1 2289  14.620   1.613  11.868
  150SOL    HW2 2290  14.553   1.703  11.970
  151SOL     OW 2291   6.865   4.144  12.190
  151SOL    HW1 2292   6.802   4.112  12.254
  151SOL    HW2 2293   6.949   4.107  12.218
  152SOL     OW 2294   1.541  11.157  13.382
  152SOL    HW1 2295   1.476  11.106  13.334
  152SOL    HW2 2296   1.511  11.153  13.473
  153SOL     OW 2297   8.448  11.938  11.275
  153SOL    HW1 2298   8.525  11.902  11.318
  153SOL    HW2 2299   8.484  12.000  11.211
  154SOL     OW 2300   1.597   2.960   5.770
  154SOL    HW1 2301   1.616   3.041   5.818
  154SOL    HW2 2302   1.608   2.891   5.836
  155SOL     OW 2303  13.836   9.149   2.966
  155SOL    HW1 2304  13.918   9.194   2.987
  155SOL    HW2 2305  13.861   9.083   2.901
  156SOL     OW 2306   2.941   5.793   8.068
  156SOL    HW1 2307   2.894   5.756   8.144
  156SOL    HW2 2308   2.875   5.795   7.998
  157SOL     OW 2309   1.928   0.700   6.578
  157SOL    HW1 2310   1.933   0.735   6.666
  157SOL    HW2 2311   1.995   0.747   6.529
  158SOL     OW 2312  13.344   9.514  14.044
  158SOL    HW1 2313  13.306   9.537  13.959
  158SOL    HW2 2314  13.435   9.492  14.025
  159SOL     OW 2315   2.487   2.786   3.502
  159SOL    HW1 2316   2.518   2.782   3.411
  159SOL    HW2 2317   2.493   2.878   3.526
  160SOL     OW 2318   1.892   7.762   0.737
  160SOL    HW1 2319   1.942   7.840   0.709
  160SOL    HW2 2320   1.870   7.717   0.656
  161SOL     OW 2321   7.630   6.107   4.718
  161SOL    HW1 2322   7.601   6.175   4.778
  161SOL    HW2 2323   7.600   6.136   4.632
  162SOL     OW 2324  11.464   6.703   3.534
  162SOL    HW1 2325  11.392   6.642   3.550
  162SOL    HW2 2326  11.444   6.742   3.449
  163SOL     OW 2327   4.929   1.593   0.402
  163SOL    HW1 2328   4.847   1.609   0.355
  163SOL    HW2 2329   4.918   1.640   0.485
  164SOL     OW 2330  11.569   5.304  13.615
  164SOL    HW1 2331  11.649   5.251  13.618
  164SOL    HW2 2332  11.588   5.380  13.670
  165SOL     OW 2333  14.447   0.906  13.584
  165SOL    HW1 2334  14.405   0.824  13.556
  165SOL    HW2 2335  14.514   0.879  13.646
  166SOL     OW 2336   6.433   4.446   3.075
  166SOL    HW1 2337   6.395   4.365   3.107
  166SOL    HW2 2338   6.372   4.514   3.102
  167SOL     OW 2339  10.567   1.743  10.050
  167SOL    HW1 2340  10.649   1.701  10.076
  167SOL    HW2 2341  10.593   1.821  10.002
  168SOL     OW 2342   8.889   0.589   0.378
  168SOL    HW1 2343   8.857   0.563   0.464
  168SOL    HW2 2344   8.839   0.535   0.316
  169SOL     OW 2345   0.301  10.158  13.228
  169SOL    HW1 2346   0.393  10.145  13.253
  169SOL    HW2 2347   0.251  10.124  13.303
  170SOL     OW 2348   9.114  10.900   0.554
  170SOL    HW1 2349   9.158  10.859   0.628
  170SOL    HW2 2350   9.083  10.984   0.588
  171SOL     OW 2351   9.026  10.370  13.381
  171SOL    HW1 2352   8.934  10.394  13.391
  171SOL    HW2 2353   9.038  10.296  13.440
  172SOL     OW 2354  14.314  10.271   0.877
  172SOL    HW1 2355  14.271  10.232   0.801
  172SOL    HW2 2356  14.364  10.200   0.916
  173SOL     OW 2357   0.433  11.071  11.894
  173SOL    HW1 2358   0.494  11.051  11.823
  173SOL    HW2 2359   0.478  11.042  11.973
  174SOL     OW 2360  12.716  13.203  10.161
  174SOL    HW1 2361  12.755  13.291  10.161
  174SOL    HW2 2362  12.770  13.153  10.222
  175SOL     OW 2363  10.305  14.753   9.503
  175SOL    HW1 2364  10.384  14.766   9.451
  175SOL    HW2 2365  10.335  14.704   9.580
  176SOL     OW 2366   6.944   6.108  14.384
  176SOL    HW1 2367   6.924   6.120  14.291
  176SOL    HW2 2368   6.979   6.193  14.411
  177SOL     OW 2369  13.414  10.072  13.533
  177SOL    HW1 2370  13.333  10.123  13.543
  177SOL    HW2 2371  13.484  10.134  13.550
  178SOL     OW 2372   9.103   4.114   8.018
  178SOL    HW1 2373   9.104   4.107   8.113
  178SOL    HW2 2374   9.082   4.026   7.987
  179SOL     OW 2375   6.832   3.627   1.375
  179SOL    HW1 2376   6.814   3.702   1.432
  179SOL    HW2 2377   6.903   3.580   1.420
  180SOL     OW 2378   0.238   2.872   4.611
  180SOL    HW1 2379   0.225   2.908   4.523
  180SOL    HW2 2380   0.256   2.949   4.665
  181SOL     OW 2381  12.885  10.769  10.973
  181SOL    HW1 2382  12.967  10.723  10.951
  181SOL    HW2 2383  12.851  10.722  11.049
  182SOL     OW 2384  11.237   6.204   0.660
  182SOL    HW1 2385  11.174   6.139   0.690
  182SOL    HW2 2386  11.243   6.191   0.566
  183SOL     OW 2387   8.485  11.418   2.433
  183SOL    HW1 2388   8.474  11.508   2.404
  183SOL    HW2 2389   8.509  11.425   2.525
  184SOL     OW 2390   8.068   2.675  12.380
  184SOL    HW1 2391   8.147   2.655  12.430
  184SOL    HW2 2392   8.095   2.741  12.317
  185SOL     OW 2393   8.491   0.026   6.824
  185SOL    HW1 2394   8.420   0.064   6.877
  185SOL    HW2 2395   8.534   0.101   6.784
  186SOL     OW 2396   8.571  14.789   4.342
  186SOL    HW1 2397   8.552  14.699   4.367
  186SOL    HW2 2398   8.532  14.798   4.254
  187SOL     OW 2399  10.006   1.849   3.066
  187SOL    HW1 2400   9.970   1.937   3.052
  187SOL    HW2 2401  10.030   1.818   2.978
  188SOL     OW 2402  11.266   2.299  11.685
  188SOL    HW1 2403  11.249   2.390  11.710
  188SOL    HW2 2404  11.354   2.282  11.718
  189SOL     OW 2405   0.036   5.328  12.492
  189SOL    HW1 2406   0.028   5.418  12.522
  189SOL    HW2 2407  14.826   5.302  12.469
  190SOL     OW 2408  12.943  11.353   9.498
  190SOL    HW1 2409  12.913  11.431   9.545
  190SOL    HW2 2410  12.887  11.282   9.531
  191SOL     OW 2411   6.148   5.675   7.653
  191SOL    HW1 2412   6.205   5.645   7.724
  191SOL    HW2 2413   6.095   5.744   7.693
  192SOL     OW 2414   1.326  12.675   2.437
  192SOL    HW1 2415   1.356  12.618   2.508
  192SOL    HW2 2416   1.317  12.761   2.477
  193SOL     OW 2417   4.622   5.178   4.099
  193SOL    HW1 2418   4.714   5.197   4.081
  193SOL    HW2 2419   4.605   5.096   4.052
  194SOL     OW 2420   3.643  11.271   2.124
  194SOL    HW1 2421   3.644  11.298   2.032
  194SOL    HW2 2422   3.713  11.207   2.132
  195SOL     OW 2423   8.924   6.087  13.713
  195SOL    HW1 2424   8.970   6.160  13.674
  195SOL    HW2 2425   8.990   6.019  13.723
  196SOL     OW 2426  14.594   4.670   7.689
  196SOL    HW1 2427  14.547   4.602   7.642
  196SOL    HW2 2428  14.555   4.670   7.777
  197SOL     OW 2429   4.464   0.097  12.238
  197SOL    HW1 2430   4.549   0.134  12.262
  197SOL    HW2 2431   4.455   0.117  12.144
  198SOL     OW 2432   9.148   9.090   5.462
  198SOL    HW1 2433   9.057   9.119   5.467
  198SOL    HW2 2434   9.169   9.095   5.368
  199SOL     OW 2435   1.138   5.802   4.674
  199SOL    HW1 2436   1.172   5.761   4.754
  199SOL    HW2 2437   1.092   5.732   4.629
  200SOL     OW 2438  14.309   9.456   1.716
  200SOL    HW1 2439  14.258   9.501   1.783
  200SOL    HW2 2440  14.346   9.380   1.761
  201SOL     OW 2441   4.602   6.876   6.004
  201SOL    HW1 2442   4.671   6.941   5.991
  201SOL    HW2 2443   4.557   6.904   6.084
  202SOL     OW 2444  12.938  10.814   7.616
  202SOL    HW1 2445  12.883  10.756   7.563
  202SOL    HW2 2446  12.995  10.755   7.666
  203SOL     OW 2447   9.981   2.613   1.728
  203SOL    HW1 2448   9.903   2.594   1.780
  203SOL    HW2 2449   9.996   2.707   1.741
  204SOL     OW 2450   5.664   7.375   6.978
  204SOL    HW1 2451   5.641   7.316   7.050
  204SOL    HW2 2452   5.685   7.318   6.905
  205SOL     OW 2453   5.489  14.169   9.883
  205SOL    HW1 2454   5.457  14.253   9.851
  205SOL    HW2 2455   5.559  14.145   9.824
  206SOL     OW 2456   5.428   3.066  14.190
  206SOL    HW1 2457   5.487   3.020  14.130
  206SOL    HW2 2458   5.347   3.075  14.141
  207SOL     OW 2459  10.023   8.311   8.534
  207SOL    HW1 2460  10.110   8.343   8.557
  207SOL    HW2 2461  10.000   8.250   8.604
  208SOL     OW 2462   3.191   0.543  10.361
  208SOL    HW1 2463   3.154   0.558  10.274
  208SOL    HW2 2464   3.240   0.461  10.354
  209SOL     OW 2465   0.182  11.925   5.158
  209SOL    HW1 2466   0.143  11.845   5.122
  209SOL    HW2 2467   0.256  11.895   5.210
  210SOL     OW 2468   5.593   5.955   6.802
  210SOL    HW1 2469   5.650   6.026   6.832
  210SOL    HW2 2470   5.511   5.968   6.850
  211SOL     OW 2471   9.238  14.034   2.555
  211SOL    HW1 2472   9.182  14.111   2.563
  211SOL    HW2 2473   9.199  13.970   2.615
  212SOL     OW 2474   1.105   1.910   8.626
  212SOL    HW1 2475   1.181   1.876   8.579
  212SOL    HW2 2476   1.133   1.996   8.659
  213SOL     OW 2477   0.890   7.141   7.075
  213SOL    HW1 2478   0.899   7.068   7.014
  213SOL    HW2 2479   0.927   7.216   7.029
  214SOL     OW 2480   2.808   0.322   1.245
  214SOL    HW1 2481   2.900   0.346   1.257
  214SOL    HW2 2482   2.783   0.364   1.163
  215SOL     OW 2483  12.900   5.054   2.649
  215SOL    HW1 2484  12.806   5.040   2.643
  215SOL    HW2 2485  12.931   5.050   2.559
  216SOL     OW 2486   7.353   0.969   6.535
  216SOL    HW1 2487   7.270   0.931   6.505
  216SOL    HW2 2488   7.401   0.895   6.572
  217SOL     OW 2489   3.803   0.419   3.259
  217SOL    HW1 2490   3.743   0.439   3.331
  217SOL    HW2 2491   3.750   0.428   3.180
  218SOL     OW 2492   9.476   5.089  10.402
  218SOL    HW1 2493   9.535   5.016  10.420
  218SOL    HW2 2494   9.389   5.050  10.399
  219SOL     OW 2495   6.435  12.835  13.738
  219SOL    HW1 2496   6.489  12.757  13.755
  219SOL    HW2 2497   6.352  12.799  13.707
  220SOL     OW 2498  13.712   0.283   6.984
  220SOL    HW1 2499  13.735   0.329   6.903
  220SOL    HW2 2500  13.648   0.339   7.026
  221SOL     OW 2501   7.641   3.158   7.155
  221SOL    HW1 2502   7.665   3.240   7.197
  221SOL    HW2 2503   7.545   3.157   7.157
  222SOL     OW 2504   8.994  13.239   7.019
  222SOL    HW1 2505   9.039  13.159   6.992
  222SOL    HW2 2506   9.049  13.275   7.089
  223SOL     OW 2507   4.620  14.402   4.484
  223SOL    HW1 2508   4.696  14.381   4.430
  223SOL    HW2 2509   4.623  14.498   4.495
  224SOL     OW 2510   2.366   1.276  10.795
  224SOL    HW1 2511   2.411   1.210  10.848
  224SOL    HW2 2512   2.353   1.234  10.710
  225SOL     OW 2513  13.203   0.067  10.500
  225SOL    HW1 2514  13.139  14.876  10.510
  225SOL    HW2 2515  13.258   0.039  10.426
  226SOL     OW 2516   1.843   3.599  12.345
  226SOL    HW1 2517   1.784   3.632  12.412
  226SOL    HW2 2518   1.908   3.669  12.332
  227SOL     OW 2519  11.267   2.487   5.720
  227SOL    HW1 2520  11.260   2.428   5.795
  227SOL    HW2 2521  11.176   2.514   5.703
  228SOL     OW 2522  14.393   8.914   0.041
  228SOL    HW1 2523  14.413   8.966   0.118
  228SOL    HW2 2524  14.413   8.971  14.846
  229SOL     OW 2525   3.745   9.591  11.883
  229SOL    HW1 2526   3.749   9.683  11.911
  229SOL    HW2 2527   3.832   9.556  11.905
  230SOL     OW 2528   1.552   5.316   2.299
  230SOL    HW1 2529   1.482   5.330   2.363
  230SOL    HW2 2530   1.632   5.331   2.348
  231SOL     OW 2531   7.230   8.897   8.040
  231SOL    HW1 2532   7.192   8.856   8.118
  231SOL    HW2 2533   7.251   8.986   8.068
  232SOL     OW 2534   4.264   6.676  12.472
  232SOL    HW1 2535   4.297   6.588  12.483
  232SOL    HW2 2536   4.337   6.726  12.436
  233SOL     OW 2537  11.271   7.412  11.696
  233SOL    HW1 2538  11.177   7.428  11.698
  233SOL    HW2 2539  11.310   7.500  11.705
  234SOL     OW 2540   9.799   8.348   3.465
  234SOL    HW1 2541   9.737   8.368   3.535
  234SOL    HW2 2542   9.745   8.325   3.390
  235SOL     OW 2543   6.320   7.488   1.510
  235SOL    HW1 2544   6.242   7.526   1.550
  235SOL    HW2 2545   6.323   7.399   1.544
  236SOL     OW 2546   8.954   0.935  14.696
  236SOL    HW1 2547   8.919   0.878  14.764
  236SOL    HW2 2548   8.880   0.952  14.638
  237SOL     OW 2549   2.812   5.765   2.735
  237SOL    HW1 2550   2.845   5.714   2.809
  237SOL    HW2 2551   2.717   5.762   2.745
  238SOL     OW 2552  10.096  13.892   7.859
  238SOL    HW1 2553  10.036  13.837   7.808
  238SOL    HW2 2554  10.074  13.982   7.832
  239SOL     OW 2555  10.098  14.261   5.585
  239SOL    HW1 2556  10.064  14.347   5.557
  239SOL    HW2 2557  10.190  14.263   5.561
  240SOL     OW 2558  13.468   2.810   4.882
  240SOL    HW1 2559  13.489   2.739   4.943
  240SOL    HW2 2560  13.528   2.881   4.906
  241SOL     OW 2561  11.504   4.799   2.734
  241SOL    HW1 2562  11.556   4.879   2.738
  241SOL    HW2 2563  11.430   4.816   2.792
  242SOL     OW 2564  12.715   9.895   0.989
  242SOL    HW1 2565  12.809   9.894   1.005
  242SOL    HW2 2566  12.695   9.807   0.955
  243SOL     OW 2567   4.715   2.083  13.474
  243SOL    HW1 2568   4.689   2.050  13.560
  243SOL    HW2 2569   4.766   2.162  13.494
  244SOL     OW 2570   2.291   8.718   5.869
  244SOL    HW1 2571   2.364   8.673   5.911
  244SOL    HW2 2572   2.234   8.744   5.942
  245SOL     OW 2573   0.685   3.223  10.949
  245SOL    HW1 2574   0.693   3.162  10.876
  245SOL    HW2 2575   0.591   3.224  10.969
  246SOL     OW 2576   4.211   8.036   5.797
  246SOL    HW1 2577   4.282   8.096   5.817
  246SOL    HW2 2578   4.235   7.955   5.843
  247SOL     OW 2579  10.251   1.986   5.725
  247SOL    HW1 2580  10.223   1.940   5.804
  247SOL    HW2 2581  10.218   1.934   5.652
  248SOL     OW 2582  11.680   5.642  14.349
  248SOL    HW1 2583  11.602   5.682  14.311
  248SOL    HW2 2584  11.709   5.705  14.416
  249SOL     OW 2585   4.384  13.815   4.505
  249SOL    HW1 2586   4.341  13.758   4.568
  249SOL    HW2 2587   4.321  13.886   4.491
  250SOL     OW 2588   8.051   7.554   8.197
  250SOL    HW1 2589   8.116   7.570   8.265
  250SOL    HW2 2590   8.031   7.460   8.205
  251SOL     OW 2591   5.855   6.558  11.505
  251SOL    HW1 2592   5.937   6.531  11.464
  251SOL    HW2 2593   5.881   6.606  11.583
  252SOL     OW 2594   0.606   8.282   6.093
  252SOL    HW1 2595   0.694   8.258   6.062
  252SOL    HW2 2596   0.606   8.259   6.186
  253SOL     OW 2597   1.556  11.160   5.187
  253SOL    HW1 2598   1.631  11.102   5.192
  253SOL    HW2 2599   1.552  11.185   5.094
  254SOL     OW 2600  12.131   2.880   7.590
  254SOL    HW1 2601  12.116   2.799   7.541
  254SOL    HW2 2602  12.222   2.874   7.620
  255SOL     OW 2603   2.405   3.541  11.380
  255SOL    HW1 2604   2.426   3.480  11.310
  255SOL    HW2 2605   2.327   3.587  11.350
  256SOL     OW 2606  11.277  10.150   1.276
  256SOL    HW1 2607  11.311  10.062   1.290
  256SOL    HW2 2608  11.336  10.189   1.211
  257SOL     OW 2609   7.992   3.013  12.322
  257SOL    HW1 2610   7.923   3.060  12.274
  257SOL    HW2 2611   8.022   2.945  12.260
  258SOL     OW 2612   7.459  13.043   1.143
  258SOL    HW1 2613   7.366  13.038   1.121
  258SOL    HW2 2614   7.476  13.136   1.157
  259SOL     OW 2615  10.729  12.376   6.647
  259SOL    HW1 2616  10.804  12.329   6.684
  259SOL    HW2 2617  10.653  12.329   6.679
  260SOL     OW 2618  10.410  14.374   8.023
  260SOL    HW1 2619  10.370  14.293   8.053
  260SOL    HW2 2620  10.360  14.443   8.067
  261SOL     OW 2621   0.719  10.355   6.361
  261SOL    HW1 2622   0.726  10.412   6.437
  261SOL    HW2 2623   0.644  10.390   6.311
  262SOL     OW 2624   4.989   5.162   7.268
  262SOL    HW1 2625   4.932   5.087   7.285
  262SOL    HW2 2626   4.944   5.236   7.308
  263SOL     OW 2627   7.482  12.439  11.775
  263SOL    HW1 2628   7.388  12.451  11.790
  263SOL    HW2 2629   7.490  12.348  11.746
  264SOL     OW 2630   9.843   9.667   3.257
  264SOL    HW1 2631   9.882   9.652   3.171
  264SOL    HW2 2632   9.838   9.580   3.297
  265SOL     OW 2633   7.556  11.125  14.270
  265SOL    HW1 2634   7.612  11.048  14.257
  265SOL    HW2 2635   7.484  11.094  14.324
  266SOL     OW 2636  12.940  14.739  11.471
  266SOL    HW1 2637  13.029  14.727  11.439
  266SOL    HW2 2638  12.929  14.672  11.539
  267SOL     OW 2639   6.658   2.631  13.811
  267SOL    HW1 2640   6.578   2.601  13.854
  267SOL    HW2 2641   6.627   2.680  13.735
  268SOL     OW 2642   7.454   3.710   4.346
  268SOL    HW1 2643   7.523   3.648   4.320
  268SOL    HW2 2644   7.480   3.793   4.305
  269SOL     OW 2645  14.800   4.023   4.305
  269SOL    HW1 2646  14.748   3.947   4.331
  269SOL    HW2 2647  14.845   4.049   4.385
  270SOL     OW 2648  12.745   0.816  10.013
  270SOL    HW1 2649  12.711   0.905  10.009
  270SOL    HW2 2650  12.740   0.792  10.106
  271SOL     OW 2651   2.137   9.733   0.318
  271SOL    HW1 2652   2.203   9.724   0.249
  271SOL    HW2 2653   2.068   9.672   0.293
  272SOL     OW 2654  10.736   4.505  11.440
  272SOL    HW1 2655  10.820   4.498  11.395
  272SOL    HW2 2656  10.717   4.416  11.471
  273SOL     OW 2657   1.249  13.348  14.063
  273SOL    HW1 2658   1.182  13.282  14.047
  273SOL    HW2 2659   1.297  13.353  13.981
  274SOL     OW 2660  14.273   1.824  11.688
  274SOL    HW1 2661  14.188   1.821  11.644
  274SOL    HW2 2662  14.309   1.736  11.678
  275SOL     OW 2663   8.011   7.252   2.427
  275SOL    HW1 2664   7.948   7.239   2.498
  275SOL    HW2 2665   7.974   7.202   2.354
  276SOL     OW 2666   2.189   7.912   2.867
  276SOL    HW1 2667   2.274   7.955   2.857
  276SOL    HW2 2668   2.206   7.819   2.851
  277SOL     OW 2669   1.539  14.748   5.770
  277SOL    HW1 2670   1.547  14.687   5.697
  277SOL    HW2 2671   1.576  14.830   5.735
  278SOL     OW 2672   5.323  12.854   9.409
  278SOL    HW1 2673   5.411  12.887   9.388
  278SOL    HW2 2674   5.264  12.917   9.368
  279SOL     OW 2675   5.727   9.712  13.162
  279SOL    HW1 2676   5.644   9.665  13.156
  279SOL    HW2 2677   5.754   9.702  13.254
  280SOL     OW 2678   4.872  11.728   4.603
  280SOL    HW1 2679   4.874  11.635   4.580
  280SOL    HW2 2680   4.823  11.731   4.685
  281SOL     OW 2681  10.026  14.859   8.269
  281SOL    HW1 2682   9.938  14.877   8.302
  281SOL    HW2 2683  10.024  14.767   8.245
  282SOL     OW 2684  13.909  10.625   6.128
  282SOL    HW1 2685  13.820  10.627   6.163
  282SOL    HW2 2686  13.940  10.716   6.137
  283SOL     OW 2687   6.694   2.368   9.557
  283SOL    HW1 2688   6.621   2.356   9.618
  283SOL    HW2 2689   6.686   2.295   9.495
  284SOL     OW 2690  14.588   2.989   2.268
  284SOL    HW1 2691  14.635   3.017   2.190
  284SOL    HW2 2692  14.503   3.035   2.263
  285SOL     OW 2693  11.428   8.830   0.445
  285SOL    HW1 2694  11.481   8.817   0.524
  285SOL    HW2 2695  11.371   8.753   0.442
  286SOL     OW 2696  13.128  11.708  10.743
  286SOL    HW1 2697  13.043  11.684  10.706
  286SOL    HW2 2698  13.161  11.777  10.687
  287SOL     OW 2699   2.566   9.330   7.326
  287SOL    HW1 2700   2.656   9.361   7.324
  287SOL    HW2 2701   2.565   9.255   7.267
  288SOL     OW 2702   0.702   0.042   0.079
  288SOL    HW1 2703   0.647   0.002   0.011
  288SOL    HW2 2704   0.682   0.135   0.073
  289SOL     OW 2705   0.741   3.110   2.457
  289SOL    HW1 2706   0.804   3.116   2.385
  289SOL    HW2 2707   0.794   3.092   2.534
  290SOL     OW 2708  14.347   8.830   4.880
  290SOL    HW1 2709  14.319   8.758   4.937
  290SOL    HW2 2710  14.339   8.908   4.935
  291SOL     OW 2711   4.264   8.541   3.909
  291SOL    HW1 2712   4.355   8.542   3.939
  291SOL    HW2 2713   4.244   8.448   3.898
  292SOL     OW 2714  13.555   0.638   4.029
  292SOL    HW1 2715  13.478   0.694   4.044
  292SOL    HW2 2716  13.532   0.587   3.952
  293SOL     OW 2717   9.406  13.658   5.333
  293SOL    HW1 2718   9.408  13.714   5.411
  293SOL    HW2 2719   9.480  13.688   5.280
  294SOL     OW 2720   3.994   6.044   9.609
  294SOL    HW1 2721   4.048   6.120   9.590
  294SOL    HW2 2722   3.922   6.078   9.663
  295SOL     OW 2723   9.989   4.017   6.685
  295SOL    HW1 2724  10.051   4.001   6.614
  295SOL    HW2 2725   9.920   4.069   6.645
  296SOL     OW 2726   7.145   1.742   7.296
  296SOL    HW1 2727   7.066   1.715   7.251
  296SOL    HW2 2728   7.117   1.760   7.386
  297SOL     OW 2729   6.885   4.181  10.409
  297SOL    HW1 2730   6.958   4.219  10.360
  297SOL    HW2 2731   6.923   4.106  10.455
  298SOL     OW 2732   9.313   4.236   4.517
  298SOL    HW1 2733   9.341   4.327   4.525
  298SOL    HW2 2734   9.360   4.191   4.588
  299SOL     OW 2735   0.546   8.297   6.766
  299SOL    HW1 2736   0.552   8.279   6.860
  299SOL    HW2 2737   0.503   8.220   6.730
  300SOL     OW 2738   4.810  12.900   8.721
  300SOL    HW1 2739   4.902  12.919   8.738
  300SOL    HW2 2740   4.781  12.852   8.799
  301SOL     OW 2741   8.976   4.399  13.440
  301SOL    HW1 2742   8.928   4.429  13.362
  301SOL    HW2 2743   9.068   4.403  13.414
  302SOL     OW 2744   1.910  13.481   3.350
  302SOL    HW1 2745   1.843  13.549   3.363
  302SOL    HW2 2746   1.984  13.511   3.403
  303SOL     OW 2747   4.338   1.827   2.235
  303SOL    HW1 2748   4.340   1.745   2.184
  303SOL    HW2 2749   4.378   1.804   2.318
  304SOL     OW 2750   7.303   2.933  11.744
  304SOL    HW1 2751   7.223   2.946  11.796
  304SOL    HW2 2752   7.345   2.856  11.783
  305SOL     OW 2753   2.090   6.052   6.554
  305SOL    HW1 2754   2.096   6.137   6.511
  305SOL    HW2 2755   2.147   5.995   6.502
  306SOL     OW 2756   7.400   8.833   9.206
  306SOL    HW1 2757   7.351   8.858   9.127
  306SOL    HW2 2758   7.470   8.898   9.212
  307SOL     OW 2759  13.194   4.909   8.818
  307SOL    HW1 2760  13.124   4.860   8.774
  307SOL    HW2 2761  13.173   4.903   8.911
  308SOL     OW 2762   6.210   6.894  11.551
  308SOL    HW1 2763   6.244   6.963  11.494
  308SOL    HW2 2764   6.129   6.931  11.587
  309SOL     OW 2765   9.286  14.694   3.623
  309SOL    HW1 2766   9.230  14.722   3.550
  309SOL    HW2 2767   9.227  14.690   3.698
  310SOL     OW 2768   5.428  11.464   0.673
  310SOL    HW1 2769   5.524  11.466   0.674
  310SOL    HW2 2770   5.404  11.470   0.580
  311SOL     OW 2771   8.820   8.692  10.651
  311SOL    HW1 2772   8.909   8.681  10.616
  311SOL    HW2 2773   8.797   8.604  10.682
  312SOL     OW 2774  13.584   7.550   3.863
  312SOL    HW1 2775  13.608   7.537   3.955
  312SOL    HW2 2776  13.659   7.518   3.814
  313SOL     OW 2777   7.076  12.143  11.250
  313SOL    HW1 2778   7.006  12.202  11.223
  313SOL    HW2 2779   7.041  12.055  11.238
  314SOL     OW 2780  11.897  13.256  11.866
  314SOL    HW1 2781  11.955  13.289  11.935
  314SOL    HW2 2782  11.945  13.273  11.785
  315SOL     OW 2783  10.993   4.049   0.839
  315SOL    HW1 2784  10.958   4.103   0.910
  315SOL    HW2 2785  11.086   4.042   0.858
  316SOL     OW 2786   9.376  12.646   8.752
  316SOL    HW1 2787   9.458  12.620   8.795
  316SOL    HW2 2788   9.361  12.736   8.780
  317SOL     OW 2789   0.511   2.235  10.385
  317SOL    HW1 2790   0.461   2.287  10.448
  317SOL    HW2 2791   0.586   2.202  10.434
  318SOL     OW 2792   0.706   6.948   4.086
  318SOL    HW1 2793   0.760   6.886   4.135
  318SOL    HW2 2794   0.622   6.904   4.077
  319SOL     OW 2795   9.840  10.693   1.810
  319SOL    HW1 2796   9.793  10.619   1.848
  319SOL    HW2 2797   9.847  10.672   1.717
  320SOL     OW 2798   7.038   5.999  13.288
  320SOL    HW1 2799   7.022   5.918  13.336
  320SOL    HW2 2800   7.081   5.971  13.207
  321SOL     OW 2801  11.165   9.285   4.089
  321SOL    HW1 2802  11.201   9.368   4.121
  321SOL    HW2 2803  11.191   9.221   4.155
  322SOL     OW 2804   3.394  12.224   7.243
  322SOL    HW1 2805   3.342  12.206   7.164
  322SOL    HW2 2806   3.335  12.274   7.299
  323SOL     OW 2807   2.544  10.084  10.032
  323SOL    HW1 2808   2.527  10.177  10.040
  323SOL    HW2 2809   2.462  10.047   9.999
  324SOL     OW 2810   2.790  11.169   6.492
  324SOL    HW1 2811   2.824  11.255   6.470
  324SOL    HW2 2812   2.783  11.124   6.407
  325SOL     OW 2813  11.062   6.172   4.416
  325SOL    HW1 2814  11.142   6.125   4.440
  325SOL    HW2 2815  11.050   6.152   4.323
  326SOL     OW 2816   7.534   5.986   8.150
  326SOL    HW1 2817   7.541   6.001   8.244
  326SOL    HW2 2818   7.444   6.011   8.128
  327SOL     OW 2819   0.065   6.107   4.899
  327SOL    HW1 2820  14.876   6.112   4.966
  327SOL    HW2 2821   0.107   6.193   4.902
  328SOL     OW 2822  14.842  10.242   5.623
  328SOL    HW1 2823   0.029  10.310   5.635
  328SOL    HW2 2824  14.823  10.243   5.529
  329SOL     OW 2825   2.949   2.633   2.467
  329SOL    HW1 2826   2.892   2.672   2.533
  329SOL    HW2 2827   3.000   2.706   2.433
  330SOL     OW 2828   7.895   0.087   9.660
  330SOL    HW1 2829   7.975   0.092   9.610
  330SOL    HW2 2830   7.854   0.173   9.649
  331SOL     OW 2831   3.894   2.842   9.127
  331SOL    HW1 2832   3.947   2.907   9.082
  331SOL    HW2 2833   3.820   2.891   9.163
  332SOL     OW 2834   3.306   5.178   5.974
  332SOL    HW1 2835   3.336   5.141   6.058
  332SOL    HW2 2836   3.358   5.258   5.963
  333SOL     OW 2837  10.859  10.019   1.774
  333SOL    HW1 2838  10.780   9.968   1.757
  333SOL    HW2 2839  10.832  10.110   1.761
  334SOL     OW 2840   1.878   8.963  12.125
  334SOL    HW1 2841   1.841   8.977  12.038
  334SOL    HW2 2842   1.876   8.868  12.137
  335SOL     OW 2843   8.121  10.908  12.549
  335SOL    HW1 2844   8.030  10.937  12.539
  335SOL    HW2 2845   8.142  10.864  12.467
  336SOL     OW 2846   6.697  12.900   2.687
  336SOL    HW1 2847   6.726  12.832   2.748
  336SOL    HW2 2848   6.637  12.855   2.628
  337SOL     OW 2849   0.352   3.590  12.023
  337SOL    HW1 2850   0.335   3.546  11.941
  337SOL    HW2 2851   0.277   3.569  12.078
  338SOL     OW 2852   7.375   5.583  14.520
  338SOL    HW1 2853   7.405   5.515  14.460
  338SOL    HW2 2854   7.334   5.536  14.592
  339SOL     OW 2855   6.660   0.743   1.633
  339SOL    HW1 2856   6.744   0.717   1.669
  339SOL    HW2 2857   6.664   0.716   1.541
  340SOL     OW 2858   6.328   1.824   6.737
  340SOL    HW1 2859   6.286   1.762   6.678
  340SOL    HW2 2860   6.255   1.877   6.771
  341SOL     OW 2861   2.724   6.774   2.990
  341SOL    HW1 2862   2.775   6.697   3.017
  341SOL    HW2 2863   2.697   6.815   3.072
  342SOL     OW 2864   7.712  11.697   8.559
  342SOL    HW1 2865   7.707  11.783   8.517
  342SOL    HW2 2866   7.624  11.683   8.595
  343SOL     OW 2867   6.487   5.024  13.347
  343SOL    HW1 2868   6.470   4.940  13.391
  343SOL    HW2 2869   6.522   5.081  13.414
  344SOL     OW 2870  11.907  12.069   4.192
  344SOL    HW1 2871  11.996  12.040   4.213
  344SOL    HW2 2872  11.889  12.139   4.254
  345SOL     OW 2873   3.327   5.462  10.402
  345SOL    HW1 2874   3.357   5.387  10.454
  345SOL    HW2 2875   3.236   5.441  10.379
  346SOL     OW 2876  14.308   0.970  11.922
  346SOL    HW1 2877  14.341   0.902  11.980
  346SOL    HW2 2878  14.361   0.962  11.843
  347SOL     OW 2879  14.639  12.053  13.151
  347SOL    HW1 2880  14.602  11.966  13.144
  347SOL    HW2 2881  14.626  12.077  13.243
  348SOL     OW 2882   3.491   5.021   7.141
  348SOL    HW1 2883   3.489   5.058   7.229
  348SOL    HW2 2884   3.521   4.931   7.154
  349SOL     OW 2885   9.957   2.142   3.743
  349SOL    HW1 2886   9.887   2.102   3.795
  349SOL    HW2 2887   9.985   2.218   3.795
  350SOL     OW 2888   6.266   0.174   5.373
  350SOL    HW1 2889   6.321   0.140   5.444
  350SOL    HW2 2890   6.205   0.103   5.354
  351SOL     OW 2891  14.352   7.190   4.213
  351SOL    HW1 2892  14.438   7.158   4.185
  351SOL    HW2 2893  14.365   7.218   4.303
  352SOL     OW 2894   2.676   3.593   3.632
  352SOL    HW1 2895   2.741   3.664   3.628
  352SOL    HW2 2896   2.593   3.636   3.614
  353SOL     OW 2897   1.656  14.099  10.124
  353SOL    HW1 2898   1.744  14.133  10.145
  353SOL    HW2 2899   1.665  14.004  10.130
  354SOL     OW 2900   0.505  13.529  12.813
  354SOL    HW1 2901   0.597  13.551  12.798
  354SOL    HW2 2902   0.507  13.470  12.889
  355SOL     OW 2903   1.344  14.742   3.829
  355SOL    HW1 2904   1.348  14.769   3.737
  355SOL    HW2 2905   1.326  14.823   3.876
  356SOL     OW 2906   3.207  10.862   2.588
  356SOL    HW1 2907   3.152  10.785   2.607
  356SOL    HW2 2908   3.200  10.916   2.666
  357SOL     OW 2909  11.117   3.844   1.797
  357SOL    HW1 2910  11.187   3.879   1.742
  357SOL    HW2 2911  11.075   3.921   1.834
  358SOL     OW 2912   2.046   4.427  12.705
  358SOL    HW1 2913   1.972   4.488  12.698
  358SOL    HW2 2914   2.087   4.430  12.619
  359SOL     OW 2915   0.649   9.141   2.812
  359SOL    HW1 2916   0.569   9.099   2.846
  359SOL    HW2 2917   0.632   9.235   2.821
  360SOL     OW 2918   5.398  12.497   5.739
  360SOL    HW1 2919   5.312  12.508   5.698
  360SOL    HW2 2920   5.416  12.582   5.779
  361SOL     OW 2921  11.773   8.409  10.773
  361SOL    HW1 2922  11.767   8.420  10.868
  361SOL    HW2 2923  11.690   8.368  10.748
  362SOL     OW 2924  11.696   2.381   3.841
  362SOL    HW1 2925  11.655   2.327   3.774
  362SOL    HW2 2926  11.703   2.468   3.801
  363SOL     OW 2927   7.212  13.027   1.040
  363SOL    HW1 2928   7.215  13.031   0.945
  363SOL    HW2 2929   7.129  12.984   1.060
  364SOL     OW 2930   0.543   2.825  11.157
  364SOL    HW1 2931   0.494   2.852  11.079
  364SOL    HW2 2932   0.621   2.881  11.156
  365SOL     OW 2933   0.876   1.952   5.796
  365SOL    HW1 2934   0.844   2.026   5.847
  365SOL    HW2 2935   0.816   1.880   5.816
  366SOL     OW 2936   7.627  11.405   9.452
  366SOL    HW1 2937   7.699  11.465   9.430
  366SOL    HW2 2938   7.548  11.456   9.435
  367SOL     OW 2939   4.030   3.807   7.753
  367SOL    HW1 2940   4.018   3.808   7.658
  367SOL    HW2 2941   4.034   3.899   7.778
  368SOL     OW 2942   7.229  12.302   1.081
  368SOL    HW1 2943   7.229  12.206   1.081
  368SOL    HW2 2944   7.141  12.326   1.053
  369SOL     OW 2945   5.828   4.632  12.988
  369SOL    HW1 2946   5.840   4.725  13.007
  369SOL    HW2 2947   5.914   4.593  13.002
  370SOL     OW 2948  11.971   3.764   6.478
  370SOL    HW1 2949  12.009   3.808   6.402
  370SOL    HW2 2950  12.029   3.786   6.550
  371SOL     OW 2951  13.704   4.490   9.941
  371SOL    HW1 2952  13.622   4.535   9.962
  371SOL    HW2 2953  13.723   4.438  10.019
  372SOL     OW 2954   9.503   4.497   4.299
  372SOL    HW1 2955   9.555   4.572   4.269
  372SOL    HW2 2956   9.481   4.517   4.389
  373SOL     OW 2957  14.750   3.847   5.281
  373SOL    HW1 2958  14.747   3.911   5.210
  373SOL    HW2 2959  14.702   3.888   5.352
  374SOL     OW 2960   6.454   9.235   6.865
  374SOL    HW1 2961   6.480   9.145   6.843
  374SOL    HW2 2962   6.461   9.238   6.961
  375SOL     OW 2963  12.095   1.723  12.101
  375SOL    HW1 2964  12.022   1.766  12.146
  375SOL    HW2 2965  12.156   1.700  12.170
  376SOL     OW 2966   8.768   3.645  14.127
  376SOL    HW1 2967   8.673   3.635  14.120
  376SOL    HW2 2968   8.789   3.719  14.070
  377SOL     OW 2969   3.728  13.326   3.209
  377SOL    HW1 2970   3.655  13.314   3.149
  377SOL    HW2 2971   3.763  13.413   3.189
  378SOL     OW 2972   3.070  10.154  10.357
  378SOL    HW1 2973   3.147  10.130  10.306
  378SOL    HW2 2974   3.050  10.243  10.328
  379SOL     OW 2975  10.986   0.432   0.978
  379SOL    HW1 2976  11.046   0.468   1.043
  379SOL    HW2 2977  10.913   0.398   1.030
  380SOL     OW 2978   0.820   5.173   9.853
  380SOL    HW1 2979   0.823   5.078   9.837
  380SOL    HW2 2980   0.892   5.190   9.913
  381SOL     OW 2981  14.658   0.388  13.001
  381SOL    HW1 2982  14.571   0.350  13.009
  381SOL    HW2 2983  14.668   0.442  13.079
  382SOL     OW 2984   2.334   9.904   9.782
  382SOL    HW1 2985   2.332   9.822   9.733
  382SOL    HW2 2986   2.370   9.880   9.868
  383SOL     OW 2987   9.218  14.431   7.519
  383SOL    HW1 2988   9.310  14.454   7.535
  383SOL    HW2 2989   9.168  14.492   7.572
  384SOL     OW 2990   9.902   6.751   1.903
  384SOL    HW1 2991   9.977   6.713   1.858
  384SOL    HW2 2992   9.837   6.680   1.906
  385SOL     OW 2993   3.152   0.079   8.322
  385SOL    HW1 2994   3.057   0.088   8.331
  385SOL    HW2 2995   3.168   0.089   8.228
  386SOL     OW 2996  11.837  14.504   2.162
  386SOL    HW1 2997  11.785  14.475   2.238
  386SOL    HW2 2998  11.840  14.599   2.170
  387SOL     OW 2999  13.819   1.102   3.522
  387SOL    HW1 3000  13.728   1.104   3.551
  387SOL    HW2 3001  13.842   1.009   3.522
  388SOL     OW 3002   7.045   7.843   1.616
  388SOL    HW1 3003   7.079   7.927   1.585
  388SOL    HW2 3004   7.013   7.799   1.537
  389SOL     OW 3005  10.554   0.340   2.749
  389SOL    HW1 3006  10.556   0.245   2.751
  389SOL    HW2 3007  10.482   0.362   2.690
  390SOL     OW 3008   8.943  11.411   8.111
  390SOL    HW1 3009   8.954  11.342   8.045
  390SOL    HW2 3010   8.983  11.488   8.071
  391SOL     OW 3011   8.948   3.780  10.151
  391SOL    HW1 3012   9.015   3.809  10.213
  391SOL    HW2 3013   8.865   3.805  10.192
  392SOL     OW 3014   4.819   0.006   4.694
  392SOL    HW1 3015   4.859  14.800   4.674
  392SOL    HW2 3016   4.854   0.029   4.780
  393SOL     OW 3017   4.593   1.896  11.525
  393SOL    HW1 3018   4.519   1.836  11.525
  393SOL    HW2 3019   4.600   1.925  11.434
  394SOL     OW 3020   9.271   4.884  12.124
  394SOL    HW1 3021   9.242   4.805  12.171
  394SOL    HW2 3022   9.240   4.871  12.035
  395SOL     OW 3023   0.493  14.448   8.440
  395SOL    HW1 3024   0.553  14.411   8.376
  395SOL    HW2 3025   0.455  14.372   8.484
  396SOL     OW 3026  12.901  10.737   2.805
  396SOL    HW1 3027  12.862  10.713   2.720
  396SOL    HW2 3028  12.961  10.808   2.785
  397SOL     OW 3029  13.370   3.454  14.549
  397SOL    HW1 3030  13.378   3.378  14.492
  397SOL    HW2 3031  13.422   3.522  14.505
  398SOL     OW 3032  13.853   2.650   0.533
  398SOL    HW1 3033  13.943   2.682   0.532
  398SOL    HW2 3034  13.824   2.664   0.623
  399SOL     OW 3035  13.680   7.222   5.934
  399SOL    HW1 3036  13.593   7.230   5.895
  399SOL    HW2 3037  13.732   7.289   5.890
  400SOL     OW 3038   7.632   7.802   8.379
  400SOL    HW1 3039   7.670   7.858   8.311
  400SOL    HW2 3040   7.676   7.829   8.460
  401SOL     OW 3041   4.883  10.613   5.152
  401SOL    HW1 3042   4.884  10.533   5.204
  401SOL    HW2 3043   4.972  10.620   5.117
  402SOL     OW 3044   9.478  12.065  10.297
  402SOL    HW1 3045   9.424  12.057  10.375
  402SOL    HW2 3046   9.506  12.157  10.297
  403SOL     OW 3047   7.561   4.282   3.087
  403SOL    HW1 3048   7.515   4.314   3.010
  403SOL    HW2 3049   7.501   4.220   3.128
  404SOL     OW 3050  13.200  12.627   3.861
  404SOL    HW1 3051  13.209  12.722   3.869
  404SOL    HW2 3052  13.229  12.593   3.945
  405SOL     OW 3053  12.599   4.234   3.418
  405SOL    HW1 3054  12.542   4.311   3.417
  405SOL    HW2 3055  12.592   4.197   3.330
  406SOL     OW 3056  10.836  11.431   9.479
  406SOL    HW1 3057  10.760  11.407   9.532
  406SOL    HW2 3058  10.803  11.497   9.418
  407SOL     OW 3059  13.176   0.868   1.107
  407SOL    HW1 3060  13.151   0.960   1.103
  407SOL    HW2 3061  13.271   0.870   1.117
  408SOL     OW 3062   0.706   9.626  13.523
  408SOL    HW1 3063   0.765   9.591  13.590
  408SOL    HW2 3064   0.759   9.633  13.444
  409SOL     OW 3065   0.555   4.501  11.999
  409SOL    HW1 3066   0.462   4.490  11.983
  409SOL    HW2 3067   0.562   4.585  12.045
  410SOL     OW 3068   5.152   2.506  10.117
  410SOL    HW1 3069   5.187   2.426  10.077
  410SOL    HW2 3070   5.195   2.511  10.203
  411SOL     OW 3071   9.707   6.149   9.643
  411SOL    HW1 3072   9.669   6.117   9.561
  411SOL    HW2 3073   9.694   6.244   9.640
  412SOL     OW 3074   1.474  10.377   3.556
  412SOL    HW1 3075   1.444  10.458   3.597
  412SOL    HW2 3076   1.492  10.402   3.465
  413SOL     OW 3077   6.981   5.297   7.753
  413SOL    HW1 3078   6.987   5.312   7.659
  413SOL    HW2 3079   7.029   5.370   7.792
  414SOL     OW 3080   5.235   4.679   7.248
  414SOL    HW1 3081   5.219   4.769   7.219
  414SOL    HW2 3082   5.321   4.658   7.210
  415SOL     OW 3083   9.241   1.948  14.540
  415SOL    HW1 3084   9.203   1.862  14.524
  415SOL    HW2 3085   9.257   1.951  14.634
  416SOL     OW 3086  10.807  14.129   2.899
  416SOL    HW1 3087  10.855  14.171   2.970
  416SOL    HW2 3088  10.787  14.199   2.837
  417SOL     OW 3089   0.397   6.594   5.922
  417SOL    HW1 3090   0.435   6.523   5.870
  417SOL    HW2 3091   0.308   6.603   5.888
  418SOL     OW 3092   5.827   3.081  12.008
  418SOL    HW1 3093   5.818   3.006  11.948
  418SOL    HW2 3094   5.740   3.121  12.010
  419SOL     OW 3095  12.334   6.013   5.327
  419SOL    HW1 3096  12.388   6.059   5.391
  419SOL    HW2 3097  12.248   6.054   5.333
  420SOL     OW 3098  14.764   3.331   2.904
  420SOL    HW1 3099  14.714   3.304   2.981
  420SOL    HW2 3100  14.855   3.328   2.933
  421SOL     OW 3101  11.043   7.084  13.213
  421SOL    HW1 3102  11.061   7.056  13.124
  421SOL    HW2 3103  11.077   7.174  13.218
  422SOL     OW 3104   7.048  13.967   6.621
  422SOL    HW1 3105   7.001  14.041   6.660
  422SOL    HW2 3106   7.037  13.896   6.683
  423SOL     OW 3107   6.950  13.612   9.694
  423SOL    HW1 3108   6.901  13.585   9.617
  423SOL    HW2 3109   6.890  13.599   9.767
  424SOL     OW 3110   1.539  11.220   4.614
  424SOL    HW1 3111   1.485  11.148   4.582
  424SOL    HW2 3112   1.614  11.223   4.555
  425SOL     OW 3113  10.357   0.555   9.444
  425SOL    HW1 3114  10.262   0.551   9.455
  425SOL    HW2 3115  10.376   0.649   9.441
  426SOL     OW 3116  10.905  11.638   2.723
  426SOL    HW1 3117  10.996  11.660   2.701
  426SOL    HW2 3118  10.875  11.710   2.779
  427SOL     OW 3119   1.030   1.699   1.755
  427SOL    HW1 3120   1.048   1.717   1.663
  427SOL    HW2 3121   1.105   1.648   1.785
  428SOL     OW 3122  12.735   7.672  10.810
  428SOL    HW1 3123  12.665   7.657  10.873
  428SOL    HW2 3124  12.812   7.688  10.863
  429SOL     OW 3125   8.684  10.172   8.332
  429SOL    HW1 3126   8.722  10.179   8.419
  429SOL    HW2 3127   8.734  10.235   8.279
  430SOL     OW 3128   3.496  12.775  11.444
  430SOL    HW1 3129   3.563  12.759  11.378
  430SOL    HW2 3130   3.414  12.783  11.395
  431SOL     OW 3131  13.377   0.115   2.422
  431SOL    HW1 3132  13.382   0.023   2.396
  431SOL    HW2 3133  13.301   0.149   2.375
  432SOL     OW 3134   7.808   1.755  10.243
  432SOL    HW1 3135   7.810   1.693  10.315
  432SOL    HW2 3136   7.808   1.841  10.284
  433SOL     OW 3137   3.712  13.945   3.328
  433SOL    HW1 3138   3.666  14.021   3.365
  433SOL    HW2 3139   3.798  13.947   3.371
  434SOL     OW 3140  14.790   1.281   7.675
  434SOL    HW1 3141  14.801   1.187   7.687
  434SOL    HW2 3142  14.868   1.309   7.627
  435SOL     OW 3143   9.628   7.606   0.194
  435SOL    HW1 3144   9.582   7.580   0.274
  435SOL    HW2 3145   9.700   7.544   0.187
  436SOL     OW 3146  11.666   5.990   4.913
  436SOL    HW1 3147  11.575   5.994   4.884
  436SOL    HW2 3148  11.710   6.059   4.863
  437SOL     OW 3149   9.787  14.305   5.180
  437SOL    HW1 3150   9.828  14.391   5.181
  437SOL    HW2 3151   9.857  14.245   5.156
  438SOL     OW 3152  11.522  13.009   5.213
  438SOL    HW1 3153  11.530  13.088   5.267
  438SOL    HW2 3154  11.428  12.996   5.203
  439SOL     OW 3155   4.640   4.533   9.732
  439SOL    HW1 3156   4.556   4.578   9.735
  439SOL    HW2 3157   4.625   4.450   9.776
  440SOL     OW 3158  12.007  11.765   8.075
  440SOL    HW1 3159  11.979  11.825   8.006
  440SOL    HW2 3160  11.962  11.796   8.154
  441SOL     OW 3161   4.479   7.259   5.220
  441SOL    HW1 3162   4.556   7.206   5.197
  441SOL    HW2 3163   4.513   7.327   5.278
  442SOL     OW 3164   3.649   7.660  13.532
  442SOL    HW1 3165   3.569   7.613  13.510
  442SOL    HW2 3166   3.653   7.731  13.467
  443SOL     OW 3167   4.200   6.463   0.158
  443SOL    HW1 3168   4.180   6.511   0.238
  443SOL    HW2 3169   4.146   6.505   0.091
  444SOL     OW 3170  14.209  11.342   4.572
  444SOL    HW1 3171  14.236  11.365   4.660
  444SOL    HW2 3172  14.273  11.385   4.515
  445SOL     OW 3173   7.059  13.881   9.719
  445SOL    HW1 3174   7.048  13.787   9.703
  445SOL    HW2 3175   6.971  13.913   9.737
  446SOL     OW 3176   7.113   0.189  13.782
  446SOL    HW1 3177   7.120   0.103  13.823
  446SOL    HW2 3178   7.129   0.173  13.689
  447SOL     OW 3179   1.942   7.273  12.469
  447SOL    HW1 3180   1.900   7.196  12.431
  447SOL    HW2 3181   2.017   7.238  12.517
  448SOL     OW 3182   2.807  14.176   3.137
  448SOL    HW1 3183   2.885  14.224   3.163
  448SOL    HW2 3184   2.743  14.193   3.206
  449SOL     OW 3185  13.768   0.878   2.117
  449SOL    HW1 3186  13.842   0.818   2.105
  449SOL    HW2 3187  13.788   0.952   2.060
  450SOL     OW 3188   4.521  13.370  13.116
  450SOL    HW1 3189   4.599  13.416  13.148
  450SOL    HW2 3190   4.449  13.414  13.161
  451SOL     OW 3191   0.982   9.272   8.534
  451SOL    HW1 3192   1.072   9.301   8.518
  451SOL    HW2 3193   0.992   9.189   8.581
  452SOL     OW 3194   5.239   8.764   4.379
  452SOL    HW1 3195   5.198   8.713   4.449
  452SOL    HW2 3196   5.270   8.844   4.422
  453SOL     OW 3197   2.875   2.698  10.153
  453SOL    HW1 3198   2.880   2.606  10.130
  453SOL    HW2 3199   2.959   2.717  10.195
  454SOL     OW 3200  12.630  12.488   4.944
  454SOL    HW1 3201  12.628  12.428   4.869
  454SOL    HW2 3202  12.541  12.486   4.979
  455SOL     OW 3203  14.817   0.748  14.583
  455SOL    HW1 3204  14.813   0.770  14.490
  455SOL    HW2 3205  14.736   0.782  14.620
  456SOL     OW 3206   6.257   2.557   7.634
  456SOL    HW1 3207   6.300   2.612   7.568
  456SOL    HW2 3208   6.205   2.619   7.685
  457SOL     OW 3209   5.034   7.751   3.699
  457SOL    HW1 3210   4.940   7.756   3.719
  457SOL    HW2 3211   5.043   7.671   3.647
  458SOL     OW 3212   7.332   0.074   6.791
  458SOL    HW1 3213   7.426   0.096   6.793
  458SOL    HW2 3214   7.288   0.158   6.786
  459SOL     OW 3215   9.320   9.875   1.721
  459SOL    HW1 3216   9.343   9.967   1.711
  459SOL    HW2 3217   9.399   9.833   1.754
  460SOL     OW 3218   4.425  11.701   5.354
  460SOL    HW1 3219   4.443  11.634   5.420
  460SOL    HW2 3220   4.511  11.723   5.319
  461SOL     OW 3221   7.682   7.380   6.137
  461SOL    HW1 3222   7.732   7.377   6.055
  461SOL    HW2 3223   7.591   7.394   6.109
  462SOL     OW 3224   3.165   2.337   5.117
  462SOL    HW1 3225   3.084   2.292   5.091
  462SOL    HW2 3226   3.234   2.273   5.104
  463SOL     OW 3227  14.177   0.334   7.274
  463SOL    HW1 3228  14.083   0.349   7.263
  463SOL    HW2 3229  14.192   0.341   7.368
  464SOL     OW 3230   5.305   5.445   8.043
  464SOL    HW1 3231   5.274   5.356   8.025
  464SOL    HW2 3232   5.322   5.446   8.137
  465SOL     OW 3233   4.000   1.234   4.057
  465SOL    HW1 3234   3.952   1.317   4.058
  465SOL    HW2 3235   4.092   1.259   4.060
  466SOL     OW 3236   2.212  12.084  14.670
  466SOL    HW1 3237   2.167  12.085  14.755
  466SOL    HW2 3238   2.245  12.173  14.660
  467SOL     OW 3239  11.242   9.630  14.587
  467SOL    HW1 3240  11.150   9.626  14.560
  467SOL    HW2 3241  11.254   9.552  14.642
  468SOL     OW 3242   7.453   8.287   0.366
  468SOL    HW1 3243   7.548   8.289   0.354
  468SOL    HW2 3244   7.431   8.194   0.369
  469SOL     OW 3245  11.982  10.052   4.503
  469SOL    HW1 3246  11.933  10.101   4.568
  469SOL    HW2 3247  11.955   9.961   4.515
  470SOL     OW 3248  13.482   2.572   7.960
  470SOL    HW1 3249  13.525   2.585   7.875
  470SOL    HW2 3250  13.433   2.491   7.950
  471SOL     OW 3251  11.661   5.557   8.366
  471SOL    HW1 3252  11.627   5.477   8.326
  471SOL    HW2 3253  11.583   5.608   8.386
  472SOL     OW 3254   4.099   2.702   7.486
  472SOL    HW1 3255   4.132   2.786   7.518
  472SOL    HW2 3256   4.177   2.649   7.471
  473SOL     OW 3257   5.698   1.597   0.162
  473SOL    HW1 3258   5.726   1.509   0.186
  473SOL    HW2 3259   5.620   1.584   0.107
  474SOL     OW 3260   2.919   9.514   4.521
  474SOL    HW1 3261   2.838   9.468   4.538
  474SOL    HW2 3262   2.941   9.492   4.430
  475SOL     OW 3263   7.837  10.653   8.580
  475SOL    HW1 3264   7.879  10.634   8.496
  475SOL    HW2 3265   7.744  10.660   8.560
  476SOL     OW 3266   5.814  13.917   4.710
  476SOL    HW1 3267   5.723  13.930   4.682
  476SOL    HW2 3268   5.808  13.854   4.783
  477SOL     OW 3269   4.057  13.071  14.221
  477SOL    HW1 3270   4.051  13.081  14.316
  477SOL    HW2 3271   4.106  13.147  14.191
  478SOL     OW 3272  14.173   9.923   0.945
  478SOL    HW1 3273  14.171   9.939   1.039
  478SOL    HW2 3274  14.258   9.958   0.917
  479SOL     OW 3275   7.878   8.244   4.015
  479SOL    HW1 3276   7.875   8.155   4.049
  479SOL    HW2 3277   7.787   8.267   3.999
  480SOL     OW 3278  12.167   9.235   3.147
  480SOL    HW1 3279  12.254   9.215   3.111
  480SOL    HW2 3280  12.148   9.324   3.115
  481SOL     OW 3281   5.649   3.970   0.094
  481SOL    HW1 3282   5.652   3.965  14.878
  481SOL    HW2 3283   5.703   4.046   0.115
  482SOL     OW 3284   6.345   7.034  10.423
  482SOL    HW1 3285   6.355   7.014  10.330
  482SOL    HW2 3286   6.430   7.070  10.449
  483SOL     OW 3287  10.111   4.495   5.231
  483SOL    HW1 3288  10.142   4.546   5.305
  483SOL    HW2 3289  10.026   4.532   5.209
  484SOL     OW 3290   2.404   2.014   2.834
  484SOL    HW1 3291   2.393   1.926   2.868
  484SOL    HW2 3292   2.341   2.021   2.763
  485SOL     OW 3293   0.865  12.144   7.915
  485SOL    HW1 3294   0.856  12.109   8.003
  485SOL    HW2 3295   0.955  12.122   7.890
  486SOL     OW 3296   2.770   0.882   9.385
  486SOL    HW1 3297   2.714   0.941   9.334
  486SOL    HW2 3298   2.764   0.798   9.339
  487SOL     OW 3299   8.139   6.842  12.518
  487SOL    HW1 3300   8.154   6.770  12.457
  487SOL    HW2 3301   8.191   6.914  12.484
  488SOL     OW 3302   5.555   3.754  12.929
  488SOL    HW1 3303   5.606   3.833  12.911
  488SOL    HW2 3304   5.489   3.782  12.992
  489SOL     OW 3305  12.336   9.528   9.867
  489SOL    HW1 3306  12.387   9.452   9.894
  489SOL    HW2 3307  12.297   9.502   9.783
  490SOL     OW 3308  13.106   3.399   8.935
  490SOL    HW1 3309  13.018   3.407   8.899
  490SOL    HW2 3310  13.163   3.432   8.866
  491SOL     OW 3311   7.813   0.565   1.792
  491SOL    HW1 3312   7.813   0.527   1.704
  491SOL    HW2 3313   7.858   0.649   1.782
  492SOL     OW 3314  11.207   4.714   6.138
  492SOL    HW1 3315  11.294   4.751   6.126
  492SOL    HW2 3316  11.147   4.786   6.118
  493SOL     OW 3317  11.729   6.958   6.640
  493SOL    HW1 3318  11.741   6.931   6.732
  493SOL    HW2 3319  11.817   6.979   6.610
  494SOL     OW 3320  13.701   2.074   4.574
  494SOL    HW1 3321  13.691   2.053   4.481
  494SOL    HW2 3322  13.634   2.022   4.618
  495SOL     OW 3323   9.444   4.079   7.105
  495SOL    HW1 3324   9.489   4.161   7.085
  495SOL    HW2 3325   9.512   4.023   7.141
  496SOL     OW 3326   7.065   6.367   9.923
  496SOL    HW1 3327   7.116   6.339   9.848
  496SOL    HW2 3328   7.044   6.459   9.905
  497SOL     OW 3329   0.095   3.572   3.529
  497SOL    HW1 3330   0.177   3.529   3.502
  497SOL    HW2 3331   0.031   3.545   3.463
  498SOL     OW 3332  13.689  12.414   6.618
  498SOL    HW1 3333  13.729  12.330   6.597
  498SOL    HW2 3334  13.631  12.395   6.692
  499SOL     OW 3335   6.816   0.528  12.806
  499SOL    HW1 3336   6.816   0.566  12.894
  499SOL    HW2 3337   6.900   0.485  12.798
  500SOL     OW 3338  12.642   7.434   6.388
  500SOL    HW1 3339  12.717   7.453   6.446
  500SOL    HW2 3340  12.566   7.468   6.436
  501SOL     OW 3341  12.712   8.916   2.145
  501SOL    HW1 3342  12.738   8.839   2.095
  501SOL    HW2 3343  12.662   8.882   2.219
  502SOL     OW 3344  12.463   6.070  10.156
  502SOL    HW1 3345  12.514   5.990  10.166
  502SOL    HW2 3346  12.480   6.119  10.236
  503SOL     OW 3347  13.149   6.829   8.746
  503SOL    HW1 3348  13.225   6.821   8.689
  503SOL    HW2 3349  13.077   6.851   8.687
  504SOL     OW 3350   0.024   1.011  12.260
  504SOL    HW1 3351   0.037   1.103  12.235
  504SOL    HW2 3352  14.865   1.016  12.348
  505SOL     OW 3353   5.362   8.982  11.338
  505SOL    HW1 3354   5.386   9.012  11.425
  505SOL    HW2 3355   5.387   9.053  11.279
  506SOL     OW 3356   9.614  14.570  14.327
  506SOL    HW1 3357   9.643  14.642  14.382
  506SOL    HW2 3358   9.641  14.491  14.374
  507SOL     OW 3359   8.328   5.900   9.193
  507SOL    HW1 3360   8.307   5.832   9.130
  507SOL    HW2 3361   8.401   5.864   9.244
  508SOL     OW 3362   0.016  12.172  12.815
  508SOL    HW1 3363  14.875  12.233  12.886
  508SOL    HW2 3364  14.811  12.137  12.788
  509SOL     OW 3365   4.564   7.999  11.037
  509SOL    HW1 3366   4.617   8.038  10.968
  509SOL    HW2 3367   4.477   8.037  11.026
  510SOL     OW 3368  14.223  10.051   5.391
  510SOL    HW1 3369  14.221  10.071   5.484
  510SOL    HW2 3370  14.170   9.971   5.383
  511SOL     OW 3371  14.398   8.324  13.712
  511SOL    HW1 3372  14.451   8.303  13.635
  511SOL    HW2 3373  14.461   8.357  13.776
  512SOL     OW 3374  14.404   6.397   6.033
  512SOL    HW1 3375  14.318   6.435   6.051
  512SOL    HW2 3376  14.463   6.444   6.092
  513SOL     OW 3377  14.444   7.942   1.968
  513SOL    HW1 3378  14.363   7.894   1.985
  513SOL    HW2 3379  14.486   7.950   2.054
  514SOL     OW 3380   4.889   2.912   9.309
  514SOL    HW1 3381   4.981   2.938   9.308
  514SOL    HW2 3382   4.847   2.974   9.369
  515SOL     OW 3383  14.303   0.252  14.299
  515SOL    HW1 3384  14.284   0.160  14.283
  515SOL    HW2 3385  14.341   0.283  14.216
  516SOL     OW 3386   6.503   7.118  12.302
  516SOL    HW1 3387   6.583   7.096  12.255
  516SOL    HW2 3388   6.525   7.197  12.351
  517SOL     OW 3389  14.351   0.537  14.672
  517SOL    HW1 3390  14.349   0.499  14.759
  517SOL    HW2 3391  14.304   0.620  14.680
  518SOL     OW 3392  11.726  12.751   4.752
  518SOL    HW1 3393  11.696  12.679   4.806
  518SOL    HW2 3394  11.685  12.829   4.790
  519SOL     OW 3395   4.891   7.732  13.529
  519SOL    HW1 3396   4.900   7.781  13.611
  519SOL    HW2 3397   4.964   7.671  13.530
  520SOL     OW 3398  14.055   0.530   2.382
  520SOL    HW1 3399  14.136   0.489   2.351
  520SOL    HW2 3400  13.991   0.458   2.385
  521SOL     OW 3401   6.526  11.795   2.092
  521SOL    HW1 3402   6.477  11.758   2.166
  521SOL    HW2 3403   6.471  11.868   2.061
  522SOL     OW 3404   4.769  12.813  13.055
  522SOL    HW1 3405   4.701  12.871  13.018
  522SOL    HW2 3406   4.822  12.871  13.110
  523SOL     OW 3407  12.028   3.804   1.913
  523SOL    HW1 3408  12.090   3.746   1.869
  523SOL    HW2 3409  12.071   3.890   1.914
  524SOL     OW 3410   0.324   3.615  10.896
  524SOL    HW1 3411   0.318   3.710  10.904
  524SOL    HW2 3412   0.268   3.581  10.965
  525SOL     OW 3413   1.660   5.671  11.052
  525SOL    HW1 3414   1.751   5.682  11.080
  525SOL    HW2 3415   1.610   5.730  11.109
  526SOL     OW 3416  10.409  10.672  12.715
  526SOL    HW1 3417  10.357  10.617  12.656
  526SOL    HW2 3418  10.372  10.759  12.705
  527SOL     OW 3419   1.099  13.827   7.588
  527SOL    HW1 3420   1.129  13.901   7.535
  527SOL    HW2 3421   1.122  13.750   7.537
  528SOL     OW 3422   7.341   0.464  10.564
  528SOL    HW1 3423   7.304   0.552  10.551
  528SOL    HW2 3424   7.391   0.447  10.484
  529SOL     OW 3425  10.587   8.763  13.687
  529SOL    HW1 3426  10.518   8.784  13.750
  529SOL    HW2 3427  10.544   8.764  13.602
  530SOL     OW 3428  10.857   6.872  12.057
  530SOL    HW1 3429  10.815   6.856  11.973
  530SOL    HW2 3430  10.945   6.903  12.035
  531SOL     OW 3431   1.650  13.178  14.202
  531SOL    HW1 3432   1.671  13.251  14.145
  531SOL    HW2 3433   1.723  13.117  14.191
  532SOL     OW 3434   5.311   2.465   2.073
  532SOL    HW1 3435   5.392   2.497   2.113
  532SOL    HW2 3436   5.316   2.370   2.084
  533SOL     OW 3437   1.347   3.505   9.161
  533SOL    HW1 3438   1.270   3.464   9.200
  533SOL    HW2 3439   1.368   3.451   9.085
  534SOL     OW 3440   3.078  12.873   1.429
  534SOL    HW1 3441   3.159  12.901   1.388
  534SOL    HW2 3442   3.054  12.945   1.487
  535SOL     OW 3443   6.651   0.964   0.089
  535SOL    HW1 3444   6.608   1.019   0.154
  535SOL    HW2 3445   6.587   0.955   0.019
  536SOL     OW 3446   8.478   7.273   1.396
  536SOL    HW1 3447   8.495   7.187   1.358
  536SOL    HW2 3448   8.528   7.334   1.341
  537SOL     OW 3449   0.123  14.501   9.220
  537SOL    HW1 3450   0.088  14.429   9.272
  537SOL    HW2 3451   0.144  14.569   9.284
  538SOL     OW 3452  13.129   8.437  12.451
  538SOL    HW1 3453  13.033   8.440  12.444
  538SOL    HW2 3454  13.147   8.365  12.511
  539SOL     OW 3455   4.193   0.434   8.252
  539SOL    HW1 3456   4.214   0.452   8.160
  539SOL    HW2 3457   4.142   0.510   8.280
  540SOL     OW 3458  13.126   5.043   3.652
  540SOL    HW1 3459  13.152   5.136   3.647
  540SOL    HW2 3460  13.122   5.015   3.561
  541SOL     OW 3461   9.278   5.316  10.454
  541SOL    HW1 3462   9.199   5.266  10.476
  541SOL    HW2 3463   9.350   5.255  10.471
  542SOL     OW 3464   9.144   5.534   2.636
  542SOL    HW1 3465   9.160   5.505   2.725
  542SOL    HW2 3466   9.126   5.628   2.644
  543SOL     OW 3467   8.769   4.772  10.384
  543SOL    HW1 3468   8.749   4.782  10.477
  543SOL    HW2 3469   8.822   4.693  10.379
  544SOL     OW 3470   0.512   8.347   4.065
  544SOL    HW1 3471   0.515   8.372   4.157
  544SOL    HW2 3472   0.503   8.430   4.018
  545SOL     OW 3473  10.579   3.907  13.451
  545SOL    HW1 3474  10.529   3.925  13.531
  545SOL    HW2 3475  10.608   3.816  13.461
  546SOL     OW 3476   8.003  10.160  11.234
  546SOL    HW1 3477   8.027  10.104  11.308
  546SOL    HW2 3478   8.087  10.187  11.196
  547SOL     OW 3479   2.508   4.161  10.014
  547SOL    HW1 3480   2.476   4.227   9.953
  547SOL    HW2 3481   2.500   4.202  10.100
  548SOL     OW 3482  11.595   4.399  11.912
  548SOL    HW1 3483  11.617   4.492  11.908
  548SOL    HW2 3484  11.563   4.386  12.002
  549SOL     OW 3485   5.598  10.026   1.201
  549SOL    HW1 3486   5.622  10.003   1.112
  549SOL    HW2 3487   5.532  10.095   1.191
  550SOL     OW 3488  11.165   8.286   2.239
  550SOL    HW1 3489  11.170   8.313   2.147
  550SOL    HW2 3490  11.072   8.295   2.261
  551SOL     OW 3491   5.466   4.472   8.632
  551SOL    HW1 3492   5.375   4.496   8.646
  551SOL    HW2 3493   5.473   4.456   8.538
  552SOL     OW 3494   0.394   3.880   5.641
  552SOL    HW1 3495   0.470   3.840   5.599
  552SOL    HW2 3496   0.420   3.971   5.656
  553SOL     OW 3497   5.071   1.503   0.837
  553SOL    HW1 3498   5.041   1.459   0.916
  553SOL    HW2 3499   5.009   1.476   0.769
  554SOL     OW 3500  14.282  13.801  11.551
  554SOL    HW1 3501  14.266  13.862  11.623
  554SOL    HW2 3502  14.195  13.774  11.522
  555SOL     OW 3503   4.420   7.312   5.637
  555SOL    HW1 3504   4.511   7.285   5.642
  555SOL    HW2 3505   4.419   7.382   5.572
  556SOL     OW 3506  14.773   0.876   7.610
  556SOL    HW1 3507  14.797   0.910   7.524
  556SOL    HW2 3508  14.844   0.816   7.634
  557SOL     OW 3509   3.573   1.255  10.686
  557SOL    HW1 3510   3.547   1.163  10.680
  557SOL    HW2 3511   3.653   1.254  10.740
  558SOL     OW 3512   5.127   6.941   5.284
  558SOL    HW1 3513   5.054   6.918   5.341
  558SOL    HW2 3514   5.098   6.916   5.196
  559SOL     OW 3515   6.528   0.440  13.024
  559SOL    HW1 3516   6.497   0.458  12.935
  559SOL    HW2 3517   6.449   0.436  13.078
  560SOL     OW 3518  11.013  11.611   5.218
  560SOL    HW1 3519  11.086  11.550   5.224
  560SOL    HW2 3520  11.017  11.662   5.299
  561SOL     OW 3521  11.603   5.226   6.025
  561SOL    HW1 3522  11.519   5.183   6.042
  561SOL    HW2 3523  11.627   5.266   6.109
  562SOL     OW 3524   8.918  14.637  13.577
  562SOL    HW1 3525   8.891  14.687  13.654
  562SOL    HW2 3526   8.913  14.699  13.505
  563SOL     OW 3527  10.407  14.531   0.797
  563SOL    HW1 3528  10.501  14.548   0.805
  563SOL    HW2 3529  10.398  14.437   0.808
  564SOL     OW 3530  11.262   2.529   9.904
  564SOL    HW1 3531  11.296   2.588   9.971
  564SOL    HW2 3532  11.232   2.452   9.953
  565SOL     OW 3533   2.545   9.271   4.198
  565SOL    HW1 3534   2.604   9.318   4.258
  565SOL    HW2 3535   2.469   9.328   4.192
  566SOL     OW 3536  12.955  14.530   1.833
  566SOL    HW1 3537  12.944  14.466   1.763
  566SOL    HW2 3538  13.023  14.590   1.800
  567SOL     OW 3539   0.664  12.970   8.633
  567SOL    HW1 3540   0.623  12.990   8.717
  567SOL    HW2 3541   0.758  12.964   8.653
  568SOL     OW 3542  14.584  10.923  12.241
  568SOL    HW1 3543  14.620  11.007  12.212
  568SOL    HW2 3544  14.526  10.896  12.170
  569SOL     OW 3545   9.134  13.753   5.541
  569SOL    HW1 3546   9.224  13.780   5.558
  569SOL    HW2 3547   9.094  13.747   5.628
  570SOL     OW 3548   8.227   3.160   1.910
  570SOL    HW1 3549   8.281   3.086   1.884
  570SOL    HW2 3550   8.180   3.130   1.987
  571SOL     OW 3551   1.568  14.497   5.258
  571SOL    HW1 3552   1.473  14.483   5.258
  571SOL    HW2 3553   1.604  14.415   5.294
  572SOL     OW 3554  10.970   2.425   1.651
  572SOL    HW1 3555  10.910   2.395   1.719
  572SOL    HW2 3556  11.036   2.356   1.645
  573SOL     OW 3557   9.315  12.732   5.542
  573SOL    HW1 3558   9.276  12.802   5.593
  573SOL    HW2 3559   9.383  12.695   5.599
  574SOL     OW 3560   0.378   4.393   6.926
  574SOL    HW1 3561   0.399   4.334   6.855
  574SOL    HW2 3562   0.311   4.452   6.889
  575SOL     OW 3563  12.601  11.144   2.996
  575SOL    HW1 3564  12.675  11.196   3.027
  575SOL    HW2 3565  12.526  11.204   3.003
  576SOL     OW 3566   4.853   4.659   7.703
  576SOL    HW1 3567   4.768   4.615   7.715
  576SOL    HW2 3568   4.830   4.746   7.673
  577SOL     OW 3569  12.574  11.046  13.399
  577SOL    HW1 3570  12.529  11.116  13.445
  577SOL    HW2 3571  12.666  11.054  13.426
  578SOL     OW 3572   6.877   9.203  12.052
  578SOL    HW1 3573   6.791   9.240  12.034
  578SOL    HW2 3574   6.919   9.266  12.109
  579SOL     OW 3575   2.489   2.612   4.880
  579SOL    HW1 3576   2.433   2.615   4.802
  579SOL    HW2 3577   2.434   2.571   4.947
  580SOL     OW 3578   8.048  11.313   7.868
  580SOL    HW1 3579   8.009  11.228   7.848
  580SOL    HW2 3580   8.014  11.372   7.800
  581SOL     OW 3581   9.620  10.216   6.460
  581SOL    HW1 3582   9.688  10.232   6.395
  581SOL    HW2 3583   9.652  10.140   6.510
  582SOL     OW 3584   1.138   8.901   6.880
  582SOL    HW1 3585   1.210   8.848   6.847
  582SOL    HW2 3586   1.181   8.974   6.924
  583SOL     OW 3587   3.264   6.472   2.408
  583SOL    HW1 3588   3.325   6.417   2.359
  583SOL    HW2 3589   3.319   6.519   2.471
  584SOL     OW 3590  10.737   7.632   9.968
  584SOL    HW1 3591  10.809   7.693   9.981
  584SOL    HW2 3592  10.767   7.573   9.899
  585SOL     OW 3593   1.649  10.094   1.747
  585SOL    HW1 3594   1.572  10.082   1.692
  585SOL    HW2 3595   1.639  10.029   1.817
  586SOL     OW 3596   0.415  13.034   6.876
  586SOL    HW1 3597   0.379  12.992   6.954
  586SOL    HW2 3598   0.470  12.966   6.836
  587SOL     OW 3599  14.539   5.532   3.389
  587SOL    HW1 3600  14.540   5.570   3.477
  587SOL    HW2 3601  14.458   5.480   3.385
  588SOL     OW 3602   1.678   9.066   9.383
  588SOL    HW1 3603   1.689   9.160   9.397
  588SOL    HW2 3604   1.685   9.028   9.470
  589SOL     OW 3605   6.166   6.938   9.854
  589SOL    HW1 3606   6.137   6.901   9.770
  589SOL    HW2 3607   6.205   7.022   9.830
  590SOL     OW 3608  10.621   1.418   9.691
  590SOL    HW1 3609  10.673   1.351   9.735
  590SOL    HW2 3610  10.647   1.500   9.734
  591SOL     OW 3611   8.263  12.393   2.293
  591SOL    HW1 3612   8.355  12.365   2.288
  591SOL    HW2 3613   8.228  12.346   2.368
  592SOL     OW 3614   4.096   1.554   4.657
  592SOL    HW1 3615   4.172   1.611   4.653
  592SOL    HW2 3616   4.117   1.490   4.725
  593SOL     OW 3617   9.346   5.149   8.341
  593SOL    HW1 3618   9.388   5.104   8.414
  593SOL    HW2 3619   9.285   5.085   8.305
  594SOL     OW 3620   5.639   3.528  10.081
  594SOL    HW1 3621   5.593   3.537   9.998
  594SOL    HW2 3622   5.729   3.555  10.062
  595SOL     OW 3623   8.859   8.003  13.850
  595SOL    HW1 3624   8.925   7.935  13.867
  595SOL    HW2 3625   8.827   8.027  13.937
  596SOL     OW 3626   7.278  10.937   5.243
  596SOL    HW1 3627   7.326  10.897   5.316
  596SOL    HW2 3628   7.189  10.948   5.276
  597SOL     OW 3629   7.401  11.218  12.763
  597SOL    HW1 3630   7.367  11.279  12.697
  597SOL    HW2 3631   7.483  11.186  12.725
  598SOL     OW 3632  11.686   8.738   1.476
  598SOL    HW1 3633  11.603   8.784   1.475
  598SOL    HW2 3634  11.749   8.802   1.510
  599SOL     OW 3635  11.696   6.681   5.869
  599SOL    HW1 3636  11.624   6.667   5.808
  599SOL    HW2 3637  11.714   6.775   5.863
  600SOL     OW 3638   1.202  11.156   8.868
  600SOL    HW1 3639   1.169  11.159   8.958
  600SOL    HW2 3640   1.171  11.072   8.834
  601SOL     OW 3641   4.360  13.688   8.973
  601SOL    HW1 3642   4.393  13.680   8.883
  601SOL    HW2 3643   4.432  13.655   9.027
  602SOL     OW 3644   5.856  13.983   7.913
  602SOL    HW1 3645   5.815  14.068   7.926
  602SOL    HW2 3646   5.798  13.921   7.958
  603SOL     OW 3647  13.293  12.774  14.033
  603SOL    HW1 3648  13.328  12.727  14.109
  603SOL    HW2 3649  13.369  12.820  13.996
  604SOL     OW 3650  13.148   8.763   0.193
  604SOL    HW1 3651  13.139   8.715   0.111
  604SOL    HW2 3652  13.094   8.841   0.181
  605SOL     OW 3653   7.147   3.414   7.404
  605SOL    HW1 3654   7.191   3.434   7.321
  605SOL    HW2 3655   7.204   3.349   7.446
  606SOL     OW 3656  14.827   8.386  10.126
  606SOL    HW1 3657  14.776   8.463  10.150
  606SOL    HW2 3658   0.038   8.417  10.122
  607SOL     OW 3659   8.282   4.896  14.015
  607SOL    HW1 3660   8.324   4.946  14.085
  607SOL    HW2 3661   8.354   4.866  13.960
  608SOL     OW 3662   7.641   6.747   2.950
  608SOL    HW1 3663   7.597   6.673   2.909
  608SOL    HW2 3664   7.734   6.724   2.949
  609SOL     OW 3665   3.398  12.479   6.314
  609SOL    HW1 3666   3.310  12.477   6.276
  609SOL    HW2 3667   3.437  12.560   6.282
  610SOL     OW 3668  11.095   9.029   8.600
  610SOL    HW1 3669  11.181   9.040   8.562
  610SOL    HW2 3670  11.038   9.086   8.548
  611SOL     OW 3671   4.817   0.750   9.613
  611SOL    HW1 3672   4.849   0.800   9.688
  611SOL    HW2 3673   4.729   0.723   9.639
  612SOL     OW 3674  11.862   6.259  11.100
  612SOL    HW1 3675  11.787   6.234  11.046
  612SOL    HW2 3676  11.930   6.282  11.037
  613SOL     OW 3677  14.602   1.297  13.669
  613SOL    HW1 3678  14.642   1.306  13.583
  613SOL    HW2 3679  14.608   1.204  13.689
  614SOL     OW 3680   8.886   9.679   1.148
  614SOL    HW1 3681   8.801   9.707   1.114
  614SOL    HW2 3682   8.935   9.652   1.071
  615SOL     OW 3683   2.792   1.787   2.101
  615SOL    HW1 3684   2.715   1.818   2.147
  615SOL    HW2 3685   2.825   1.864   2.054
  616SOL     OW 3686   7.878  10.242   3.972
  616SOL    HW1 3687   7.924  10.227   4.054
  616SOL    HW2 3688   7.793  10.199   3.984
  617SOL     OW 3689   6.073   4.779   0.721
  617SOL    HW1 3690   6.056   4.829   0.641
  617SOL    HW2 3691   5.986   4.757   0.755
  618SOL     OW 3692   7.476   5.668   8.453
  618SOL    HW1 3693   7.465   5.666   8.548
  618SOL    HW2 3694   7.481   5.575   8.428
  619SOL     OW 3695   1.056  10.290  14.285
  619SOL    HW1 3696   0.980  10.299  14.228
  619SOL    HW2 3697   1.082  10.380  14.304
  620SOL     OW 3698   5.703   2.287   3.445
  620SOL    HW1 3699   5.721   2.366   3.394
  620SOL    HW2 3700   5.611   2.266   3.425
  621SOL     OW 3701   9.063   4.140  12.258
  621SOL    HW1 3702   9.054   4.232  12.233
  621SOL    HW2 3703   9.112   4.101  12.186
  622SOL     OW 3704   2.248  13.223   5.933
  622SOL    HW1 3705   2.302  13.158   5.889
  622SOL    HW2 3706   2.203  13.175   6.002
  623SOL     OW 3707   9.684  14.046   5.544
  623SOL    HW1 3708   9.627  14.061   5.468
  623SOL    HW2 3709   9.736  14.126   5.551
  624SOL     OW 3710  11.005  14.670   7.160
  624SOL    HW1 3711  11.075  14.712   7.111
  624SOL    HW2 3712  10.924  14.708   7.125
  625SOL     OW 3713   7.921  13.765   7.667
  625SOL    HW1 3714   7.826  13.768   7.655
  625SOL    HW2 3715   7.954  13.836   7.613
  626SOL     OW 3716  11.165   2.797  11.826
  626SOL    HW1 3717  11.131   2.787  11.915
  626SOL    HW2 3718  11.136   2.719  11.781
  627SOL     OW 3719   3.596  11.120   4.704
  627SOL    HW1 3720   3.533  11.190   4.721
  627SOL    HW2 3721   3.570  11.049   4.762
  628SOL     OW 3722   7.662   8.142   8.402
  628SOL    HW1 3723   7.723   8.187   8.460
  628SOL    HW2 3724   7.658   8.198   8.324
  629SOL     OW 3725  10.024   8.632   3.729
  629SOL    HW1 3726  10.032   8.726   3.745
  629SOL    HW2 3727  10.012   8.625   3.634
  630SOL     OW 3728   7.703   8.718   0.959
  630SOL    HW1 3729   7.642   8.649   0.935
  630SOL    HW2 3730   7.649   8.786   1.000
  631SOL     OW 3731   9.666  10.169  10.580
  631SOL    HW1 3732   9.744  10.219  10.603
  631SOL    HW2 3733   9.598  10.205  10.637
  632SOL     OW 3734  12.681   9.567   5.523
  632SOL    HW1 3735  12.589   9.589   5.540
  632SOL    HW2 3736  12.720   9.649   5.493
  633SOL     OW 3737   7.975   6.976  12.972
  633SOL    HW1 3738   7.971   6.940  12.884
  633SOL    HW2 3739   8.023   6.910  13.023
  634SOL     OW 3740   4.182   5.638   8.424
  634SOL    HW1 3741   4.194   5.586   8.344
  634SOL    HW2 3742   4.136   5.716   8.394
  635SOL     OW 3743   4.044   5.987  10.881
  635SOL    HW1 3744   4.057   6.078  10.907
  635SOL    HW2 3745   4.062   5.937  10.961
  636SOL     OW 3746  10.857   7.551   5.235
  636SOL    HW1 3747  10.843   7.645   5.217
  636SOL    HW2 3748  10.951   7.540   5.229
  637SOL     OW 3749  11.577   0.458   8.178
  637SOL    HW1 3750  11.603   0.465   8.086
  637SOL    HW2 3751  11.586   0.547   8.212
  638SOL     OW 3752   8.802  13.758  11.879
  638SOL    HW1 3753   8.776  13.809  11.803
  638SOL    HW2 3754   8.858  13.817  11.930
  639SOL     OW 3755   4.732   6.981   4.495
  639SOL    HW1 3756   4.756   6.973   4.587
  639SOL    HW2 3757   4.704   7.072   4.485
  640SOL     OW 3758   0.407   3.778   6.363
  640SOL    HW1 3759   0.461   3.767   6.285
  640SOL    HW2 3760   0.457   3.736   6.433
  641SOL     OW 3761   2.859   2.167  11.003
  641SOL    HW1 3762   2.954   2.176  11.013
  641SOL    HW2 3763   2.848   2.126  10.917
  642SOL     OW 3764  11.855   0.219   2.605
  642SOL    HW1 3765  11.835   0.143   2.660
  642SOL    HW2 3766  11.800   0.208   2.528
  643SOL     OW 3767   9.341  11.937   3.668
  643SOL    HW1 3768   9.371  11.992   3.741
  643SOL    HW2 3769   9.300  11.999   3.607
  644SOL     OW 3770   0.001   7.851   6.185
  644SOL    HW1 3771   0.053   7.793   6.241
  644SOL    HW2 3772   0.053   7.861   6.106
  645SOL     OW 3773   3.213  13.914  14.682
  645SOL    HW1 3774   3.250  14.000  14.662
  645SOL    HW2 3775   3.119  13.927  14.681
  646SOL     OW 3776   0.765  13.368  11.048
  646SOL    HW1 3777   0.796  13.280  11.022
  646SOL    HW2 3778   0.670  13.360  11.050
  647SOL     OW 3779   5.988  10.377   9.288
  647SOL    HW1 3780   5.908  10.430   9.291
  647SOL    HW2 3781   5.998  10.353   9.196
  648SOL     OW 3782   1.585   8.568  14.765
  648SOL    HW1 3783   1.678   8.587  14.777
  648SOL    HW2 3784   1.574   8.479  14.796
  649SOL     OW 3785   1.573   2.518   5.487
  649SOL    HW1 3786   1.629   2.548   5.558
  649SOL    HW2 3787   1.491   2.492   5.531
  650SOL     OW 3788  10.939   6.370   8.377
  650SOL    HW1 3789  10.908   6.415   8.298
  650SOL    HW2 3790  10.869   6.383   8.441
  651SOL     OW 3791   6.550   2.533  11.512
  651SOL    HW1 3792   6.604   2.603  11.551
  651SOL    HW2 3793   6.520   2.482  11.586
  652SOL     OW 3794  11.218   1.328   5.123
  652SOL    HW1 3795  11.213   1.265   5.195
  652SOL    HW2 3796  11.307   1.320   5.089
  653SOL     OW 3797  11.713   9.258   7.303
  653SOL    HW1 3798  11.798   9.213   7.294
  653SOL    HW2 3799  11.732   9.334   7.358
  654SOL     OW 3800   4.688   9.905   0.972
  654SOL    HW1 3801   4.618   9.842   0.991
  654SOL    HW2 3802   4.724   9.928   1.058
  655SOL     OW 3803  11.561   0.085  10.089
  655SOL    HW1 3804  11.504   0.013  10.114
  655SOL    HW2 3805  11.620   0.048  10.023
  656SOL     OW 3806   5.823   2.521   3.298
  656SOL    HW1 3807   5.787   2.500   3.211
  656SOL    HW2 3808   5.918   2.526   3.284
  657SOL     OW 3809  13.308   5.337   5.710
  657SOL    HW1 3810  13.362   5.290   5.773
  657SOL    HW2 3811  13.222   5.296   5.716
  658SOL     OW 3812  13.936   5.807  10.441
  658SOL    HW1 3813  13.908   5.718  10.462
  658SOL    HW2 3814  13.861   5.846  10.394
  659SOL     OW 3815   4.853   0.036   1.641
  659SOL    HW1 3816   4.948   0.028   1.627
  659SOL    HW2 3817   4.837  14.869   1.723
  660SOL     OW 3818   9.310   6.976   7.093
  660SOL    HW1 3819   9.401   6.948   7.081
  660SOL    HW2 3820   9.259   6.911   7.045
  661SOL     OW 3821  14.728  14.801   5.718
  661SOL    HW1 3822  14.797  14.807   5.784
  661SOL    HW2 3823  14.693  14.712   5.727
  662SOL     OW 3824   4.072   0.527  14.226
  662SOL    HW1 3825   4.127   0.449  14.233
  662SOL    HW2 3826   4.081   0.571  14.310
  663SOL     OW 3827  11.457  13.091   5.513
  663SOL    HW1 3828  11.463  13.096   5.608
  663SOL    HW2 3829  11.432  13.000   5.495
  664SOL     OW 3830   0.025   9.870  10.615
  664SOL    HW1 3831  14.858   9.955  10.621
  664SOL    HW2 3832   0.030   9.852  10.522
  665SOL     OW 3833  13.418  14.156  14.409
  665SOL    HW1 3834  13.330  14.123  14.423
  665SOL    HW2 3835  13.444  14.192  14.494
  666SOL     OW 3836   9.333   5.352   1.098
  666SOL    HW1 3837   9.241   5.328   1.107
  666SOL    HW2 3838   9.351   5.408   1.174
  667SOL     OW 3839   0.403   8.761   2.932
  667SOL    HW1 3840   0.314   8.738   2.906
  667SOL    HW2 3841   0.438   8.808   2.856
  668SOL     OW 3842   7.505  12.460  14.704
  668SOL    HW1 3843   7.524  12.529  14.767
  668SOL    HW2 3844   7.560  12.481  14.628
  669SOL     OW 3845   2.303   3.927   2.217
  669SOL    HW1 3846   2.390   3.966   2.212
  669SOL    HW2 3847   2.319   3.833   2.211
  670SOL     OW 3848  12.558   2.533   5.365
  670SOL    HW1 3849  12.580   2.598   5.431
  670SOL    HW2 3850  12.640   2.487   5.349
  671SOL     OW 3851  13.261  10.128   5.628
  671SOL    HW1 3852  13.322  10.113   5.557
  671SOL    HW2 3853  13.183  10.077   5.604
  672SOL     OW 3854   4.323   0.235   5.930
  672SOL    HW1 3855   4.239   0.193   5.913
  672SOL    HW2 3856   4.385   0.190   5.873
  673SOL     OW 3857   8.195   9.673   8.593
  673SOL    HW1 3858   8.229   9.664   8.683
  673SOL    HW2 3859   8.157   9.588   8.574
  674SOL     OW 3860   2.934   7.232   6.330
  674SOL    HW1 3861   2.991   7.189   6.265
  674SOL    HW2 3862   2.947   7.326   6.314
  675SOL     OW 3863   4.783   4.991   0.535
  675SOL    HW1 3864   4.691   4.996   0.506
  675SOL    HW2 3865   4.793   5.063   0.596
  676SOL     OW 3866   2.163   1.793   6.459
  676SOL    HW1 3867   2.241   1.849   6.460
  676SOL    HW2 3868   2.186   1.721   6.401
  677SOL     OW 3869   7.394   0.016  12.953
  677SOL    HW1 3870   7.417   0.080  12.886
  677SOL    HW2 3871   7.312  14.857  12.922
  678SOL     OW 3872  11.679   0.043   6.372
  678SOL    HW1 3873  11.689  14.830   6.348
  678SOL    HW2 3874  11.752   0.060   6.432
  679SOL     OW 3875   6.676   0.578   3.175
  679SOL    HW1 3876   6.664   0.608   3.265
  679SOL    HW2 3877   6.765   0.544   3.173
  680SOL     OW 3878   7.829   9.949  12.009
  680SOL    HW1 3879   7.767  10.017  12.036
  680SOL    HW2 3880   7.832   9.889  12.084
  681SOL     OW 3881   7.465  10.212   3.621
  681SOL    HW1 3882   7.468  10.306   3.606
  681SOL    HW2 3883   7.389  10.199   3.678
  682SOL     OW 3884  14.382  14.258   5.434
  682SOL    HW1 3885  14.477  14.258   5.444
  682SOL    HW2 3886  14.366  14.200   5.359
  683SOL     OW 3887  10.800   9.421  13.339
  683SOL    HW1 3888  10.833   9.507  13.314
  683SOL    HW2 3889  10.837   9.405  13.425
  684SOL     OW 3890   0.196  11.102   2.283
  684SOL    HW1 3891   0.150  11.109   2.366
  684SOL    HW2 3892   0.227  11.011   2.281
  685SOL     OW 3893   4.035  11.384  11.574
  685SOL    HW1 3894   4.091  11.313  11.541
  685SOL    HW2 3895   4.050  11.383  11.668
  686SOL     OW 3896   4.448   0.730  10.076
  686SOL    HW1 3897   4.422   0.650  10.029
  686SOL    HW2 3898   4.368   0.761  10.117
  687SOL     OW 3899   9.796   9.040  12.804
  687SOL    HW1 3900   9.715   9.050  12.754
  687SOL    HW2 3901   9.785   9.097  12.880
  688SOL     OW 3902  11.046   5.679   2.015
  688SOL    HW1 3903  11.004   5.765   2.022
  688SOL    HW2 3904  11.126   5.696   1.965
  689SOL     OW 3905  13.493   8.726   1.962
  689SOL    HW1 3906  13.479   8.815   1.931
  689SOL    HW2 3907  13.588   8.713   1.956
  690SOL     OW 3908  10.055   8.115   7.259
  690SOL    HW1 3909  10.083   8.207   7.262
  690SOL    HW2 3910  10.002   8.109   7.180
  691SOL     OW 3911  12.740   3.088   5.337
  691SOL    HW1 3912  12.820   3.063   5.293
  691SOL    HW2 3913  12.672   3.035   5.296
  692SOL     OW 3914   7.476  13.329   3.818
  692SOL    HW1 3915   7.509  13.401   3.872
  692SOL    HW2 3916   7.555  13.287   3.784
  693SOL     OW 3917   9.763   4.594  13.885
  693SOL    HW1 3918   9.723   4.562  13.804
  693SOL    HW2 3919   9.850   4.554  13.886
  694SOL     OW 3920  14.221  12.299   6.666
  694SOL    HW1 3921  14.309  12.302   6.627
  694SOL    HW2 3922  14.163  12.323   6.594
  695SOL     OW 3923   4.230   1.212  13.633
  695SOL    HW1 3924   4.179   1.166  13.567
  695SOL    HW2 3925   4.317   1.172  13.629
  696SOL     OW 3926   4.522   1.129   5.399
  696SOL    HW1 3927   4.509   1.049   5.349
  696SOL    HW2 3928   4.439   1.176   5.390
  697SOL     OW 3929   9.673  12.978   7.414
  697SOL    HW1 3930   9.669  12.893   7.371
  697SOL    HW2 3931   9.590  12.984   7.462
  698SOL     OW 3932   6.700   8.055  13.476
  698SOL    HW1 3933   6.733   8.101  13.398
  698SOL    HW2 3934   6.728   7.965  13.463
  699SOL     OW 3935   9.718  13.297   7.059
  699SOL    HW1 3936   9.741  13.224   7.117
  699SOL    HW2 3937   9.792  13.303   6.999
  700SOL     OW 3938  11.258   8.546  13.785
  700SOL    HW1 3939  11.184   8.503  13.742
  700SOL    HW2 3940  11.228   8.560  13.875
  701SOL     OW 3941   0.260   4.113  10.387
  701SOL    HW1 3942   0.190   4.057  10.351
  701SOL    HW2 3943   0.247   4.110  10.481
  702SOL     OW 3944   7.733  10.158   1.394
  702SOL    HW1 3945   7.702  10.069   1.376
  702SOL    HW2 3946   7.812  10.145   1.447
  703SOL     OW 3947  10.392   8.305   6.907
  703SOL    HW1 3948  10.414   8.219   6.872
  703SOL    HW2 3949  10.400   8.294   7.002
  704SOL     OW 3950   9.364   2.270   3.176
  704SOL    HW1 3951   9.437   2.216   3.206
  704SOL    HW2 3952   9.393   2.307   3.093
  705SOL     OW 3953   9.389   3.568   3.587
  705SOL    HW1 3954   9.390   3.473   3.588
  705SOL    HW2 3955   9.430   3.592   3.504
  706SOL     OW 3956   5.487   5.539   3.688
  706SOL    HW1 3957   5.464   5.534   3.781
  706SOL    HW2 3958   5.412   5.499   3.643
  707SOL     OW 3959   0.361  13.635  10.812
  707SOL    HW1 3960   0.362  13.540  10.801
  707SOL    HW2 3961   0.451  13.662  10.796
  708SOL     OW 3962   7.481   3.767  12.289
  708SOL    HW1 3963   7.428   3.688  12.298
  708SOL    HW2 3964   7.467   3.794  12.198
  709SOL     OW 3965  13.254  12.713  14.546
  709SOL    HW1 3966  13.174  12.765  14.535
  709SOL    HW2 3967  13.276  12.724  14.639
  710SOL     OW 3968   6.199  13.667   6.572
  710SOL    HW1 3969   6.226  13.746   6.618
  710SOL    HW2 3970   6.212  13.597   6.635
  711SOL     OW 3971   2.192   0.573   8.689
  711SOL    HW1 3972   2.108   0.568   8.734
  711SOL    HW2 3973   2.170   0.562   8.596
  712SOL     OW 3974  10.223   7.850   4.799
  712SOL    HW1 3975  10.282   7.789   4.756
  712SOL    HW2 3976  10.158   7.873   4.732
  713SOL     OW 3977  13.522   5.733   5.790
  713SOL    HW1 3978  13.471   5.710   5.868
  713SOL    HW2 3979  13.494   5.669   5.724
  714SOL     OW 3980  11.418  11.806   8.992
  714SOL    HW1 3981  11.356  11.776   8.926
  714SOL    HW2 3982  11.367  11.868   9.045
  715SOL     OW 3983   1.507   2.988   3.636
  715SOL    HW1 3984   1.569   3.060   3.623
  715SOL    HW2 3985   1.552   2.930   3.698
  716SOL     OW 3986   8.320   4.017  10.662
  716SOL    HW1 3987   8.306   4.106  10.631
  716SOL    HW2 3988   8.236   3.973  10.647
  717SOL     OW 3989   3.718   6.965  10.461
  717SOL    HW1 3990   3.632   6.950  10.499
  717SOL    HW2 3991   3.711   7.050  10.418
  718SOL     OW 3992   6.617  11.228   2.787
  718SOL    HW1 3993   6.689  11.271   2.835
  718SOL    HW2 3994   6.661  11.172   2.724
  719SOL     OW 3995   5.244  10.479  13.358
  719SOL    HW1 3996   5.208  10.410  13.302
  719SOL    HW2 3997   5.177  10.493  13.424
  720SOL     OW 3998   6.936   0.908   6.779
  720SOL    HW1 3999   7.028   0.891   6.761
  720SOL    HW2 4000   6.889   0.867   6.707
  721SOL     OW 4001   1.091   3.388   3.941
  721SOL    HW1 4002   1.118   3.301   3.971
  721SOL    HW2 4003   1.026   3.417   4.006
  722SOL     OW 4004  11.897   1.224  10.326
  722SOL    HW1 4005  11.876   1.160  10.258
  722SOL    HW2 4006  11.834   1.295  10.313
  723SOL     OW 4007   1.506   8.233  11.188
  723SOL    HW1 4008   1.528   8.294  11.118
  723SOL    HW2 4009   1.418   8.260  11.216
  724SOL     OW 4010   6.343   5.353   6.498
  724SOL    HW1 4011   6.389   5.270   6.486
  724SOL    HW2 4012   6.384   5.392   6.576
  725SOL     OW 4013  13.534  11.703  14.786
  725SOL    HW1 4014  13.484  11.651  14.722
  725SOL    HW2 4015  13.493  11.790  14.783
  726SOL     OW 4016   0.286   0.639  11.434
  726SOL    HW1 4017   0.298   0.729  11.406
  726SOL    HW2 4018   0.228   0.644  11.510
  727SOL     OW 4019  11.900  13.706   9.055
  727SOL    HW1 4020  11.818  13.660   9.072
  727SOL    HW2 4021  11.930  13.736   9.141
  728SOL     OW 4022   1.361  10.075   2.604
  728SOL    HW1 4023   1.431  10.032   2.554
  728SOL    HW2 4024   1.310  10.122   2.538
  729SOL     OW 4025  14.186   9.736   1.570
  729SOL    HW1 4026  14.239   9.801   1.616
  729SOL    HW2 4027  14.248   9.691   1.512
  730SOL     OW 4028   0.130  11.507  11.324
  730SOL    HW1 4029   0.042  11.542  11.318
  730SOL    HW2 4030   0.147  11.469  11.238
  731SOL     OW 4031   2.975   7.237  12.177
  731SOL    HW1 4032   3.070   7.241  12.179
  731SOL    HW2 4033   2.954   7.145  12.160
  732SOL     OW 4034   5.125   7.713  10.567
  732SOL    HW1 4035   5.065   7.738  10.638
  732SOL    HW2 4036   5.069   7.668  10.504
  733SOL     OW 4037   8.676   6.949  13.116
  733SOL    HW1 4038   8.655   7.036  13.085
  733SOL    HW2 4039   8.741   6.963  13.185
  734SOL     OW 4040   1.030  10.741   0.209
  734SOL    HW1 4041   1.087  10.696   0.271
  734SOL    HW2 4042   1.082  10.750   0.130
  735SOL     OW 4043   4.625   2.392  13.876
  735SOL    HW1 4044   4.564   2.413  13.806
  735SOL    HW2 4045   4.600   2.304  13.904
  736SOL     OW 4046  13.678   9.034   2.326
  736SOL    HW1 4047  13.594   8.993   2.307
  736SOL    HW2 4048  13.656   9.122   2.357
  737SOL     OW 4049   9.664  14.242  12.928
  737SOL    HW1 4050   9.573  14.248  12.957
  737SOL    HW2 4051   9.705  14.320  12.964
  738SOL     OW 4052   6.661  13.876   9.516
  738SOL    HW1 4053   6.729  13.929   9.558
  738SOL    HW2 4054   6.579  13.918   9.541
  739SOL     OW 4055   4.650   4.532  13.826
  739SOL    HW1 4056   4.725   4.578  13.863
  739SOL    HW2 4057   4.607   4.492  13.902
  740SOL     OW 4058   5.681   7.407  11.007
  740SOL    HW1 4059   5.619   7.337  11.027
  740SOL    HW2 4060   5.655   7.479  11.064
  741SOL     OW 4061   6.509   8.529   3.850
  741SOL    HW1 4062   6.423   8.570   3.854
  741SOL    HW2 4063   6.534   8.517   3.941
  742SOL     OW 4064   4.305   3.215   4.780
  742SOL    HW1 4065   4.378   3.258   4.736
  742SOL    HW2 4066   4.309   3.245   4.871
  743SOL     OW 4067  11.935   1.545   7.125
  743SOL    HW1 4068  12.012   1.554   7.182
  743SOL    HW2 4069  11.861   1.566   7.182
  744SOL     OW 4070   6.648   9.258   7.391
  744SOL    HW1 4071   6.743   9.258   7.389
  744SOL    HW2 4072   6.623   9.348   7.371
  745SOL     OW 4073   6.856   0.900  13.872
  745SOL    HW1 4074   6.929   0.943  13.828
  745SOL    HW2 4075   6.830   0.960  13.942
  746SOL     OW 4076   6.280   9.636   5.852
  746SOL    HW1 4077   6.328   9.651   5.933
  746SOL    HW2 4078   6.195   9.677   5.865
  747SOL     OW 4079   6.566   4.847   2.570
  747SOL    HW1 4080   6.582   4.754   2.586
  747SOL    HW2 4081   6.613   4.866   2.489
  748SOL     OW 4082   7.810   5.483   6.039
  748SOL    HW1 4083   7.892   5.452   6.000
  748SOL    HW2 4084   7.744   5.422   6.007
  749SOL     OW 4085  12.896   8.134   2.277
  749SOL    HW1 4086  12.838   8.184   2.334
  749SOL    HW2 4087  12.864   8.044   2.284
  750SOL     OW 4088   1.092  14.636   8.829
  750SOL    HW1 4089   1.130  14.551   8.811
  750SOL    HW2 4090   1.153  14.699   8.790
  751SOL     OW 4091   8.889   8.396   7.541
  751SOL    HW1 4092   8.970   8.349   7.521
  751SOL    HW2 4093   8.884   8.465   7.475
  752SOL     OW 4094  14.770   4.048   3.151
  752SOL    HW1 4095  14.846   4.052   3.209
  752SOL    HW2 4096  14.707   4.108   3.190
  753SOL     OW 4097  13.025   5.054  12.449
  753SOL    HW1 4098  13.108   5.011  12.425
  753SOL    HW2 4099  12.994   5.093  12.368
  754SOL     OW 4100  13.137   3.633   9.574
  754SOL    HW1 4101  13.072   3.694   9.538
  754SOL    HW2 4102  13.140   3.561   9.511
  755SOL     OW 4103   5.418   8.496   3.959
  755SOL    HW1 4104   5.469   8.461   3.887
  755SOL    HW2 4105   5.449   8.586   3.968
  756SOL     OW 4106  11.021   9.962  14.359
  756SOL    HW1 4107  11.074  10.042  14.369
  756SOL    HW2 4108  10.943   9.991  14.312
  757SOL     OW 4109   0.596   9.947  14.355
  757SOL    HW1 4110   0.598   9.978  14.446
  757SOL    HW2 4111   0.683   9.969  14.320
  758SOL     OW 4112   0.689   4.366   9.147
  758SOL    HW1 4113   0.694   4.403   9.235
  758SOL    HW2 4114   0.755   4.413   9.096
  759SOL     OW 4115   5.579  14.436   2.103
  759SOL    HW1 4116   5.522  14.512   2.096
  759SOL    HW2 4117   5.601  14.431   2.196
  760SOL     OW 4118  14.533   6.325   4.765
  760SOL    HW1 4119  14.533   6.399   4.826
  760SOL    HW2 4120  14.490   6.255   4.813
  761SOL     OW 4121  14.627   1.048  13.988
  761SOL    HW1 4122  14.551   1.101  13.964
  761SOL    HW2 4123  14.684   1.109  14.034
  762SOL     OW 4124  13.522   0.078   7.331
  762SOL    HW1 4125  13.583   0.066   7.258
  762SOL    HW2 4126  13.486  14.870   7.346
  763SOL     OW 4127  14.570   0.744  14.820
  763SOL    HW1 4128  14.560   0.654  14.850
  763SOL    HW2 4129  14.481   0.780  14.823
  764SOL     OW 4130   7.833   5.351  12.852
  764SOL    HW1 4131   7.872   5.435  12.830
  764SOL    HW2 4132   7.745   5.372  12.883
  765SOL     OW 4133   7.608  12.496   4.019
  765SOL    HW1 4134   7.523  12.518   3.981
  765SOL    HW2 4135   7.663  12.473   3.944
  766SOL     OW 4136   3.178  13.808   3.699
  766SOL    HW1 4137   3.217  13.840   3.781
  766SOL    HW2 4138   3.128  13.730   3.725
  767SOL     OW 4139   6.784   5.338   6.473
  767SOL    HW1 4140   6.769   5.365   6.382
  767SOL    HW2 4141   6.790   5.242   6.468
  768SOL     OW 4142   4.424   3.288   3.961
  768SOL    HW1 4143   4.421   3.380   3.933
  768SOL    HW2 4144   4.438   3.239   3.881
  769SOL     OW 4145  11.703  10.801   3.155
  769SOL    HW1 4146  11.725  10.708   3.151
  769SOL    HW2 4147  11.616  10.804   3.193
  770SOL     OW 4148   6.992  12.328   0.601
  770SOL    HW1 4149   6.942  12.367   0.530
  770SOL    HW2 4150   6.929  12.273   0.648
  771SOL     OW 4151  13.479  11.468   9.247
  771SOL    HW1 4152  13.562  11.445   9.206
  771SOL    HW2 4153  13.495  11.552   9.290
  772SOL     OW 4154   9.273   4.774  10.882
  772SOL    HW1 4155   9.222   4.838  10.932
  772SOL    HW2 4156   9.307   4.824  10.808
  773SOL     OW 4157   3.059   7.362   1.243
  773SOL    HW1 4158   3.044   7.343   1.151
  773SOL    HW2 4159   3.155   7.363   1.252
  774SOL     OW 4160   3.114   3.203   7.735
  774SOL    HW1 4161   3.049   3.177   7.801
  774SOL    HW2 4162   3.070   3.191   7.651
  775SOL     OW 4163  11.084  13.364  11.996
  775SOL    HW1 4164  11.168  13.408  11.978
  775SOL    HW2 4165  11.040  13.359  11.911
  776SOL     OW 4166   5.054   4.243   1.228
  776SOL    HW1 4167   5.129   4.280   1.274
  776SOL    HW2 4168   5.041   4.302   1.154
  777SOL     OW 4169   5.766   6.018   6.157
  777SOL    HW1 4170   5.841   6.007   6.216
  777SOL    HW2 4171   5.707   5.946   6.180
  778SOL     OW 4172   4.416  10.791  13.668
  778SOL    HW1 4173   4.486  10.835  13.717
  778SOL    HW2 4174   4.402  10.709  13.714
  779SOL     OW 4175   9.987   7.011  14.828
  779SOL    HW1 4176  10.012   7.081  14.767
  779SOL    HW2 4177   9.891   7.013  14.828
  780SOL     OW 4178   0.434  12.577   5.515
  780SOL    HW1 4179   0.366  12.636   5.547
  780SOL    HW2 4180   0.414  12.493   5.556
  781SOL     OW 4181  13.281   1.856  13.835
  781SOL    HW1 4182  13.335   1.794  13.884
  781SOL    HW2 4183  13.196   1.812  13.826
  782SOL     OW 4184   8.215   0.245   6.402
  782SOL    HW1 4185   8.204   0.184   6.328
  782SOL    HW2 4186   8.172   0.325   6.373
  783SOL     OW 4187   3.281   2.828  10.012
  783SOL    HW1 4188   3.351   2.890  10.032
  783SOL    HW2 4189   3.302   2.795   9.925
  784SOL     OW 4190   8.668   3.101  12.049
  784SOL    HW1 4191   8.652   3.151  12.129
  784SOL    HW2 4192   8.655   3.164  11.979
  785SOL     OW 4193  12.831  14.100   6.147
  785SOL    HW1 4194  12.877  14.127   6.068
  785SOL    HW2 4195  12.783  14.021   6.121
  786SOL     OW 4196   1.163   2.614   7.589
  786SOL    HW1 4197   1.253   2.627   7.559
  786SOL    HW2 4198   1.157   2.664   7.670
  787SOL     OW 4199   4.831   6.628   7.124
  787SOL    HW1 4200   4.912   6.587   7.156
  787SOL    HW2 4201   4.799   6.567   7.058
  788SOL     OW 4202   0.996  11.892   1.673
  788SOL    HW1 4203   0.934  11.870   1.604
  788SOL    HW2 4204   0.943  11.937   1.739
  789SOL     OW 4205  14.841  14.791   0.315
  789SOL    HW1 4206  14.866  14.698   0.316
  789SOL    HW2 4207  14.748  14.790   0.290
  790SOL     OW 4208   2.916  10.194   9.618
  790SOL    HW1 4209   2.939  10.235   9.535
  790SOL    HW2 4210   2.824  10.220   9.633
  791SOL     OW 4211   6.037   9.839   3.381
  791SOL    HW1 4212   6.016   9.862   3.290
  791SOL    HW2 4213   5.976   9.891   3.433
  792SOL     OW 4214   1.637   7.903   4.764
  792SOL    HW1 4215   1.619   7.970   4.830
  792SOL    HW2 4216   1.587   7.930   4.688
  793SOL     OW 4217   4.262   7.920   1.528
  793SOL    HW1 4218   4.351   7.911   1.493
  793SOL    HW2 4219   4.244   8.014   1.524
  794SOL     OW 4220   1.961   6.647   0.372
  794SOL    HW1 4221   1.971   6.553   0.388
  794SOL    HW2 4222   1.991   6.689   0.452
  795SOL     OW 4223   3.502   9.875   2.697
  795SOL    HW1 4224   3.564   9.841   2.632
  795SOL    HW2 4225   3.416   9.847   2.664
  796SOL     OW 4226  14.038   8.144   8.067
  796SOL    HW1 4227  14.064   8.087   7.994
  796SOL    HW2 4228  14.108   8.208   8.073
  797SOL     OW 4229   1.998  10.621   3.750
  797SOL    HW1 4230   2.084  10.663   3.755
  797SOL    HW2 4231   2.005  10.545   3.808
  798SOL     OW 4232   4.157   1.105   2.464
  798SOL    HW1 4233   4.119   1.174   2.518
  798SOL    HW2 4234   4.093   1.034   2.466
  799SOL     OW 4235   0.762   0.725   7.643
  799SOL    HW1 4236   0.721   0.651   7.687
  799SOL    HW2 4237   0.851   0.728   7.678
  800SOL     OW 4238   4.822   7.126  12.320
  800SOL    HW1 4239   4.738   7.149  12.360
  800SOL    HW2 4240   4.798   7.073  12.244
  801SOL     OW 4241   3.208  13.843  12.382
  801SOL    HW1 4242   3.259  13.924  12.390
  801SOL    HW2 4243   3.117  13.872  12.373
  802SOL     OW 4244   0.303   5.716   7.259
  802SOL    HW1 4245   0.293   5.784   7.325
  802SOL    HW2 4246   0.226   5.726   7.202
  803SOL     OW 4247  11.133   8.311  14.244
  803SOL    HW1 4248  11.213   8.348  14.281
  803SOL    HW2 4249  11.151   8.218  14.235
  804SOL     OW 4250   8.274   8.229  12.211
  804SOL    HW1 4251   8.288   8.203  12.120
  804SOL    HW2 4252   8.219   8.308  12.204
  805SOL     OW 4253   7.391   7.274   2.095
  805SOL    HW1 4254   7.451   7.291   2.167
  805SOL    HW2 4255   7.320   7.337   2.108
  806SOL     OW 4256   7.725   7.609   9.670
  806SOL    HW1 4257   7.644   7.593   9.718
  806SOL    HW2 4258   7.697   7.622   9.579
  807SOL     OW 4259   0.206  12.370   2.156
  807SOL    HW1 4260   0.277  12.340   2.212
  807SOL    HW2 4261   0.171  12.448   2.200
  808SOL     OW 4262   7.562   5.648  12.050
  808SOL    HW1 4263   7.647   5.642  12.095
  808SOL    HW2 4264   7.540   5.558  12.028
  809SOL     OW 4265   8.497   2.279  14.010
  809SOL    HW1 4266   8.502   2.374  14.005
  809SOL    HW2 4267   8.535   2.257  14.095
  810SOL     OW 4268  11.703  11.111  13.637
  810SOL    HW1 4269  11.658  11.030  13.662
  810SOL    HW2 4270  11.766  11.126  13.707
  811SOL     OW 4271   1.808   3.985   7.045
  811SOL    HW1 4272   1.866   3.976   6.970
  811SOL    HW2 4273   1.721   3.969   7.010
  812SOL     OW 4274   5.288  12.099  12.787
  812SOL    HW1 4275   5.283  12.004  12.775
  812SOL    HW2 4276   5.197  12.127  12.792
  813SOL     OW 4277   9.742   6.877   0.564
  813SOL    HW1 4278   9.744   6.788   0.600
  813SOL    HW2 4279   9.679   6.871   0.492
  814SOL     OW 4280   0.271   7.110   3.343
  814SOL    HW1 4281   0.307   7.190   3.382
  814SOL    HW2 4282   0.284   7.043   3.411
  815SOL     OW 4283  12.257   9.732   5.683
  815SOL    HW1 4284  12.163   9.741   5.695
  815SOL    HW2 4285  12.282   9.657   5.737
  816SOL     OW 4286   4.548   2.343   3.214
  816SOL    HW1 4287   4.475   2.307   3.264
  816SOL    HW2 4288   4.618   2.353   3.278
  817SOL     OW 4289  13.528   3.685  14.454
  817SOL    HW1 4290  13.478   3.698  14.535
  817SOL    HW2 4291  13.488   3.746  14.392
  818SOL     OW 4292   8.771   7.830  14.159
  818SOL    HW1 4293   8.735   7.764  14.219
  818SOL    HW2 4294   8.859   7.848  14.193
  819SOL     OW 4295   5.949   8.003   9.996
  819SOL    HW1 4296   5.870   8.057  10.005
  819SOL    HW2 4297   6.003   8.027  10.071
  820SOL     OW 4298   4.053   9.585   4.725
  820SOL    HW1 4299   4.080   9.499   4.694
  820SOL    HW2 4300   4.051   9.640   4.646
  821SOL     OW 4301   5.971  10.411  11.408
  821SOL    HW1 4302   5.917  10.346  11.453
  821SOL    HW2 4303   5.914  10.446  11.339
  822SOL     OW 4304   1.653  11.234   3.505
  822SOL    HW1 4305   1.661  11.271   3.417
  822SOL    HW2 4306   1.706  11.292   3.560
  823SOL     OW 4307   3.684  10.016   6.770
  823SOL    HW1 4308   3.763   9.991   6.818
  823SOL    HW2 4309   3.678   9.952   6.699
  824SOL     OW 4310   1.388  11.911   1.737
  824SOL    HW1 4311   1.309  11.857   1.742
  824SOL    HW2 4312   1.379  11.972   1.811
  825SOL     OW 4313  12.122   9.218  11.024
  825SOL    HW1 4314  12.033   9.200  10.994
  825SOL    HW2 4315  12.134   9.160  11.099
  826SOL     OW 4316   3.364   3.094  11.156
  826SOL    HW1 4317   3.452   3.058  11.145
  826SOL    HW2 4318   3.308   3.017  11.163
  827SOL     OW 4319   0.502   6.241  10.160
  827SOL    HW1 4320   0.468   6.153  10.146
  827SOL    HW2 4321   0.425   6.297  10.164
  828SOL     OW 4322  10.572   0.317  14.133
  828SOL    HW1 4323  10.615   0.260  14.069
  828SOL    HW2 4324  10.541   0.392  14.081
  829SOL     OW 4325   0.127  13.533   9.461
  829SOL    HW1 4326   0.038  13.510   9.489
  829SOL    HW2 4327   0.118  13.549   9.367
  830SOL     OW 4328   9.237   7.120   7.591
  830SOL    HW1 4329   9.322   7.077   7.597
  830SOL    HW2 4330   9.250   7.204   7.634
  831SOL     OW 4331  11.890  12.382  13.806
  831SOL    HW1 4332  11.811  12.331  13.790
  831SOL    HW2 4333  11.888  12.401  13.900
  832SOL     OW 4334   2.971   2.697  11.495
  832SOL    HW1 4335   2.908   2.729  11.431
  832SOL    HW2 4336   2.948   2.742  11.577
  833SOL     OW 4337  10.941   2.285   3.080
  833SOL    HW1 4338  10.913   2.375   3.063
  833SOL    HW2 4339  10.859   2.235   3.079
  834SOL     OW 4340   6.691   5.594   8.183
  834SOL    HW1 4341   6.784   5.576   8.196
  834SOL    HW2 4342   6.657   5.515   8.140
  835SOL     OW 4343  13.396   2.905  11.581
  835SOL    HW1 4344  13.317   2.851  11.586
  835SOL    HW2 4345  13.367   2.986  11.538
  836SOL     OW 4346  14.535   2.969  11.453
  836SOL    HW1 4347  14.511   2.961  11.546
  836SOL    HW2 4348  14.454   2.995  11.409
  837SOL     OW 4349   7.034   5.928   6.053
  837SOL    HW1 4350   7.082   5.853   6.019
  837SOL    HW2 4351   7.102   5.990   6.082
  838SOL     OW 4352   1.785   4.692  12.458
  838SOL    HW1 4353   1.716   4.746  12.420
  838SOL    HW2 4354   1.844   4.674  12.384
  839SOL     OW 4355  14.869   6.428   3.596
  839SOL    HW1 4356  14.861   6.524   3.598
  839SOL    HW2 4357   0.000   6.407   3.504
  840SOL     OW 4358  14.245  13.200   8.288
  840SOL    HW1 4359  14.165  13.231   8.330
  840SOL    HW2 4360  14.297  13.164   8.359
  841SOL     OW 4361   2.186   7.621   0.622
  841SOL    HW1 4362   2.269   7.586   0.652
  841SOL    HW2 4363   2.120   7.580   0.679
  842SOL     OW 4364   8.303   8.246   2.279
  842SOL    HW1 4365   8.376   8.302   2.250
  842SOL    HW2 4366   8.231   8.307   2.293
  843SOL     OW 4367  14.662   5.105   8.647
  843SOL    HW1 4368  14.757   5.104   8.660
  843SOL    HW2 4369  14.644   5.188   8.604
  844SOL     OW 4370   2.711   0.928   2.610
  844SOL    HW1 4371   2.687   1.021   2.607
  844SOL    HW2 4372   2.797   0.925   2.569
  845SOL     OW 4373   2.218   6.738   2.839
  845SOL    HW1 4374   2.221   6.823   2.795
  845SOL    HW2 4375   2.168   6.682   2.780
  846SOL     OW 4376   8.882  11.677   4.939
  846SOL    HW1 4377   8.916  11.680   4.850
  846SOL    HW2 4378   8.915  11.595   4.975
  847SOL     OW 4379   7.240   2.309  10.765
  847SOL    HW1 4380   7.320   2.355  10.791
  847SOL    HW2 4381   7.264   2.216  10.765
  848SOL     OW 4382   9.530   2.861   7.184
  848SOL    HW1 4383   9.625   2.875   7.183
  848SOL    HW2 4384   9.493   2.949   7.177
  849SOL     OW 4385  13.113  11.744   9.329
  849SOL    HW1 4386  13.118  11.807   9.257
  849SOL    HW2 4387  13.140  11.661   9.290
  850SOL     OW 4388  14.187  12.110  10.886
  850SOL    HW1 4389  14.234  12.179  10.838
  850SOL    HW2 4390  14.232  12.029  10.860
  851SOL     OW 4391  12.543   6.349   0.517
  851SOL    HW1 4392  12.448   6.346   0.530
  851SOL    HW2 4393  12.561   6.278   0.456
  852SOL     OW 4394   9.225   5.655  13.885
  852SOL    HW1 4395   9.290   5.669  13.816
  852SOL    HW2 4396   9.188   5.742  13.900
  853SOL     OW 4397  11.244   7.470   1.816
  853SOL    HW1 4398  11.337   7.483   1.837
  853SOL    HW2 4399  11.245   7.422   1.733
  854SOL     OW 4400  12.749   9.911   8.508
  854SOL    HW1 4401  12.657   9.890   8.490
  854SOL    HW2 4402  12.784   9.833   8.550
  855SOL     OW 4403   8.302   2.347  12.475
  855SOL    HW1 4404   8.243   2.370  12.547
  855SOL    HW2 4405   8.248   2.296  12.415
  856SOL     OW 4406  10.812   0.868   9.566
  856SOL    HW1 4407  10.856   0.918   9.634
  856SOL    HW2 4408  10.725   0.908   9.559
  857SOL     OW 4409   0.654   6.013   7.603
  857SOL    HW1 4410   0.671   6.045   7.515
  857SOL    HW2 4411   0.560   6.029   7.616
  858SOL     OW 4412   6.597   4.038  10.624
  858SOL    HW1 4413   6.539   4.103  10.664
  858SOL    HW2 4414   6.629   4.080  10.545
  859SOL     OW 4415   9.424   7.411  11.856
  859SOL    HW1 4416   9.516   7.435  11.850
  859SOL    HW2 4417   9.383   7.459  11.784
  860SOL     OW 4418   8.000  14.089   6.706
  860SOL    HW1 4419   7.995  14.084   6.610
  860SOL    HW2 4420   7.972  14.178   6.727
  861SOL     OW 4421  11.460   9.192  11.123
  861SOL    HW1 4422  11.426   9.281  11.136
  861SOL    HW2 4423  11.543   9.191  11.170
  862SOL     OW 4424   7.182  13.387   8.939
  862SOL    HW1 4425   7.150  13.396   8.849
  862SOL    HW2 4426   7.273  13.417   8.935
  863SOL     OW 4427   7.734   5.388  10.351
  863SOL    HW1 4428   7.754   5.304  10.309
  863SOL    HW2 4429   7.640   5.387  10.365
  864SOL     OW 4430  13.177   2.291   1.693
  864SOL    HW1 4431  13.165   2.262   1.783
  864SOL    HW2 4432  13.138   2.379   1.690
  865SOL     OW 4433   7.292   3.891   4.122
  865SOL    HW1 4434   7.347   3.814   4.106
  865SOL    HW2 4435   7.254   3.911   4.036
  866SOL     OW 4436   6.046   2.052   8.047
  866SOL    HW1 4437   6.062   2.143   8.069
  866SOL    HW2 4438   5.992   2.056   7.968
  867SOL     OW 4439   9.107  12.100   0.651
  867SOL    HW1 4440   9.041  12.115   0.584
  867SOL    HW2 4441   9.089  12.166   0.719
  868SOL     OW 4442  12.120  12.809  11.178
  868SOL    HW1 4443  12.052  12.805  11.111
  868SOL    HW2 4444  12.092  12.880  11.236
  869SOL     OW 4445   5.682   9.457   6.285
  869SOL    HW1 4446   5.671   9.365   6.308
  869SOL    HW2 4447   5.635   9.505   6.353
  870SOL     OW 4448  13.814   1.741   6.219
  870SOL    HW1 4449  13.871   1.709   6.288
  870SOL    HW2 4450  13.725   1.725   6.251
  871SOL     OW 4451   1.142   6.942  10.858
  871SOL    HW1 4452   1.130   6.891  10.778
  871SOL    HW2 4453   1.237   6.952  10.867
  872SOL     OW 4454   3.641   2.979  10.859
  872SOL    HW1 4455   3.702   2.909  10.838
  872SOL    HW2 4456   3.662   3.049  10.797
  873SOL     OW 4457   2.336  12.845   5.692
  873SOL    HW1 4458   2.240  12.845   5.692
  873SOL    HW2 4459   2.360  12.753   5.688
  874SOL     OW 4460   3.158   2.312  12.418
  874SOL    HW1 4461   3.174   2.266  12.500
  874SOL    HW2 4462   3.159   2.242  12.351
  875SOL     OW 4463   1.972  14.730   4.235
  875SOL    HW1 4464   1.882  14.761   4.241
  875SOL    HW2 4465   2.021  14.805   4.202
  876SOL     OW 4466   4.481   7.446  14.239
  876SOL    HW1 4467   4.445   7.533  14.256
  876SOL    HW2 4468   4.537   7.428  14.315
  877SOL     OW 4469  13.854   8.956  14.316
  877SOL    HW1 4470  13.829   8.878  14.267
  877SOL    HW2 4471  13.776   8.980  14.365
  878SOL     OW 4472  13.821  12.704   3.323
  878SOL    HW1 4473  13.797  12.677   3.412
  878SOL    HW2 4474  13.831  12.799   3.330
  879SOL     OW 4475   7.658   0.500   5.497
  879SOL    HW1 4476   7.730   0.441   5.519
  879SOL    HW2 4477   7.592   0.443   5.458
  880SOL     OW 4478   8.865  13.848   4.224
  880SOL    HW1 4479   8.922  13.788   4.272
  880SOL    HW2 4480   8.777  13.827   4.255
  881SOL     OW 4481   2.695   7.102   6.323
  881SOL    HW1 4482   2.789   7.123   6.324
  881SOL    HW2 4483   2.652   7.184   6.346
  882SOL     OW 4484   0.093   4.756   9.293
  882SOL    HW1 4485   0.073   4.702   9.369
  882SOL    HW2 4486   0.130   4.836   9.329
  883SOL     OW 4487   8.032  12.053   1.524
  883SOL    HW1 4488   7.948  12.097   1.512
  883SOL    HW2 4489   8.011  11.972   1.571
  884SOL     OW 4490   6.266  13.491  11.941
  884SOL    HW1 4491   6.204  13.418  11.946
  884SOL    HW2 4492   6.219  13.565  11.978
  885SOL     OW 4493   2.584   6.592   9.288
  885SOL    HW1 4494   2.657   6.622   9.233
  885SOL    HW2 4495   2.525   6.547   9.227
  886SOL     OW 4496   1.643   3.719   1.934
  886SOL    HW1 4497   1.548   3.731   1.934
  886SOL    HW2 4498   1.676   3.792   1.986
  887SOL     OW 4499   0.595   0.197   0.694
  887SOL    HW1 4500   0.630   0.232   0.776
  887SOL    HW2 4501   0.656   0.227   0.627
  888SOL     OW 4502   7.744  14.441  11.929
  888SOL    HW1 4503   7.763  14.534  11.932
  888SOL    HW2 4504   7.704  14.421  12.014
  889SOL     OW 4505   2.067   5.881  12.743
  889SOL    HW1 4506   2.034   5.970  12.737
  889SOL    HW2 4507   2.118   5.868  12.663
  890SOL     OW 4508   9.364  13.154   5.648
  890SOL    HW1 4509   9.371  13.104   5.566
  890SOL    HW2 4510   9.443  13.208   5.649
  891SOL     OW 4511   4.426   4.911   8.008
  891SOL    HW1 4512   4.377   4.994   8.012
  891SOL    HW2 4513   4.386   4.857   8.077
  892SOL     OW 4514  14.678   3.258   2.638
  892SOL    HW1 4515  14.685   3.163   2.637
  892SOL    HW2 4516  14.687   3.282   2.730
  893SOL     OW 4517  11.533   5.276   0.812
  893SOL    HW1 4518  11.578   5.324   0.882
  893SOL    HW2 4519  11.453   5.326   0.796
  894SOL     OW 4520  12.043   0.092   8.124
  894SOL    HW1 4521  11.983   0.148   8.075
  894SOL    HW2 4522  12.095   0.047   8.057
  895SOL     OW 4523   2.050   7.687   9.164
  895SOL    HW1 4524   2.084   7.747   9.231
  895SOL    HW2 4525   1.974   7.732   9.128
  896SOL     OW 4526   9.320   4.845   5.699
  896SOL    HW1 4527   9.370   4.820   5.621
  896SOL    HW2 4528   9.371   4.810   5.772
  897SOL     OW 4529   0.074  11.001   4.027
  897SOL    HW1 4530   0.078  11.097   4.028
  897SOL    HW2 4531   0.163  10.973   4.048
  898SOL     OW 4532  12.147  10.152   8.731
  898SOL    HW1 4533  12.184  10.197   8.656
  898SOL    HW2 4534  12.054  10.143   8.711
  899SOL     OW 4535   5.981   5.947   4.689
  899SOL    HW1 4536   5.965   5.904   4.774
  899SOL    HW2 4537   6.075   5.938   4.676
  900SOL     OW 4538   7.671   6.023  12.934
  900SOL    HW1 4539   7.576   6.019  12.920
  900SOL    HW2 4540   7.680   6.060  13.022
  901SOL     OW 4541   7.611  10.818  12.242
  901SOL    HW1 4542   7.701  10.813  12.210
  901SOL    HW2 4543   7.590  10.912  12.237
  902SOL     OW 4544   8.705   5.118   8.019
  902SOL    HW1 4545   8.685   5.026   8.000
  902SOL    HW2 4546   8.799   5.118   8.039
  903SOL     OW 4547   0.018   6.190   5.217
  903SOL    HW1 4548   0.099   6.186   5.268
  903SOL    HW2 4549   0.001   6.099   5.191
  904SOL     OW 4550   0.133   7.618   3.158
  904SOL    HW1 4551   0.085   7.687   3.111
  904SOL    HW2 4552   0.073   7.544   3.160
  905SOL     OW 4553   7.913   0.224  10.879
  905SOL    HW1 4554   7.991   0.185  10.840
  905SOL    HW2 4555   7.841   0.191  10.825
  906SOL     OW 4556   8.310  11.011   1.592
  906SOL    HW1 4557   8.268  11.097   1.587
  906SOL    HW2 4558   8.304  10.988   1.685
  907SOL     OW 4559   5.046   7.915  12.579
  907SOL    HW1 4560   4.958   7.939  12.549
  907SOL    HW2 4561   5.032   7.841  12.638
  908SOL     OW 4562   6.492  10.790  11.794
  908SOL    HW1 4563   6.428  10.742  11.847
  908SOL    HW2 4564   6.563  10.809  11.855
  909SOL     OW 4565  12.569  14.074  10.107
  909SOL    HW1 4566  12.505  14.019  10.152
  909SOL    HW2 4567  12.604  14.131  10.175
  910SOL     OW 4568   6.889   5.243   0.750
  910SOL    HW1 4569   6.863   5.294   0.826
  910SOL    HW2 4570   6.839   5.162   0.757
  911SOL     OW 4571   3.440   8.187   5.280
  911SOL    HW1 4572   3.384   8.258   5.309
  911SOL    HW2 4573   3.382   8.129   5.231
  912SOL     OW 4574  11.952   1.828   2.090
  912SOL    HW1 4575  11.911   1.753   2.133
  912SOL    HW2 4576  11.994   1.791   2.013
  913SOL     OW 4577   6.966   0.138   5.852
  913SOL    HW1 4578   6.915   0.147   5.933
  913SOL    HW2 4579   7.024   0.214   5.851
  914SOL     OW 4580  12.278   6.256  14.129
  914SOL    HW1 4581  12.288   6.333  14.073
  914SOL    HW2 4582  12.204   6.209  14.092
  915SOL     OW 4583   0.621   9.382   6.787
  915SOL    HW1 4584   0.557   9.354   6.852
  915SOL    HW2 4585   0.663   9.459   6.826
  916SOL     OW 4586   2.293   1.190   9.064
  916SOL    HW1 4587   2.285   1.188   8.969
  916SOL    HW2 4588   2.217   1.241   9.093
  917SOL     OW 4589  13.321   1.802  14.293
  917SOL    HW1 4590  13.340   1.749  14.371
  917SOL    HW2 4591  13.404   1.843  14.271
  918SOL     OW 4592   7.957   0.643   4.526
  918SOL    HW1 4593   7.929   0.588   4.600
  918SOL    HW2 4594   8.015   0.586   4.475
  919SOL     OW 4595   2.033   5.956   6.141
  919SOL    HW1 4596   2.044   6.042   6.181
  919SOL    HW2 4597   1.987   5.974   6.059
  920SOL     OW 4598   1.938   4.419   2.582
  920SOL    HW1 4599   1.899   4.497   2.542
  920SOL    HW2 4600   2.032   4.433   2.574
  921SOL     OW 4601  10.968   9.126   6.090
  921SOL    HW1 4602  10.930   9.178   6.160
  921SOL    HW2 4603  10.903   9.130   6.020
  922SOL     OW 4604   6.180   5.254  13.478
  922SOL    HW1 4605   6.206   5.238  13.568
  922SOL    HW2 4606   6.165   5.349  13.474
  923SOL     OW 4607  10.778   6.656  13.269
  923SOL    HW1 4608  10.750   6.726  13.210
  923SOL    HW2 4609  10.757   6.689  13.357
  924SOL     OW 4610  10.040   5.040   4.234
  924SOL    HW1 4611  10.063   4.950   4.211
  924SOL    HW2 4612  10.107   5.094   4.191
  925SOL     OW 4613   5.386  11.680  13.526
  925SOL    HW1 4614   5.417  11.623  13.456
  925SOL    HW2 4615   5.292  11.686  13.512
  926SOL     OW 4616   4.453   9.040   1.110
  926SOL    HW1 4617   4.416   9.073   1.192
  926SOL    HW2 4618   4.538   9.003   1.135
  927SOL     OW 4619   0.423  13.300   2.387
  927SOL    HW1 4620   0.510  13.323   2.354
  927SOL    HW2 4621   0.404  13.366   2.454
  928SOL     OW 4622   2.603  10.179   7.751
  928SOL    HW1 4623   2.592  10.238   7.825
  928SOL    HW2 4624   2.515  10.148   7.732
  929SOL     OW 4625  11.996   7.231   4.390
  929SOL    HW1 4626  11.985   7.300   4.455
  929SOL    HW2 4627  11.989   7.150   4.441
  930SOL     OW 4628   9.684   5.904   5.645
  930SOL    HW1 4629   9.752   5.856   5.598
  930SOL    HW2 4630   9.654   5.843   5.713
  931SOL     OW 4631   8.151   4.216   5.977
  931SOL    HW1 4632   8.089   4.167   5.924
  931SOL    HW2 4633   8.233   4.214   5.927
  932SOL     OW 4634  12.255   6.319   8.084
  932SOL    HW1 4635  12.238   6.292   7.994
  932SOL    HW2 4636  12.270   6.413   8.079
  933SOL     OW 4637  13.562   2.562  14.214
  933SOL    HW1 4638  13.499   2.631  14.190
  933SOL    HW2 4639  13.643   2.588  14.169
  934SOL     OW 4640   9.278   3.549   2.287
  934SOL    HW1 4641   9.230   3.470   2.312
  934SOL    HW2 4642   9.210   3.614   2.270
  935SOL     OW 4643  12.028   9.686  13.622
  935SOL    HW1 4644  12.022   9.752  13.692
  935SOL    HW2 4645  11.975   9.722  13.551
  936SOL     OW 4646   0.474  14.638   9.291
  936SOL    HW1 4647   0.390  14.669   9.324
  936SOL    HW2 4648   0.517  14.599   9.367
  937SOL     OW 4649   4.078   0.372  12.398
  937SOL    HW1 4650   4.170   0.397  12.409
  937SOL    HW2 4651   4.050   0.346  12.486
  938SOL     OW 4652  12.086  10.764  13.991
  938SOL    HW1 4653  12.159  10.706  13.969
  938SOL    HW2 4654  12.126  10.835  14.041
  939SOL     OW 4655  14.795   9.697   4.997
  939SOL    HW1 4656  14.714   9.683   5.046
  939SOL    HW2 4657  14.842   9.614   5.004
  940SOL     OW 4658   9.697  11.058   8.149
  940SOL    HW1 4659   9.743  11.115   8.087
  940SOL    HW2 4660   9.721  11.092   8.235
  941SOL     OW 4661  12.218   5.114   2.463
  941SOL    HW1 4662  12.285   5.158   2.514
  941SOL    HW2 4663  12.250   5.118   2.373
  942SOL     OW 4664   2.840   6.387  12.443
  942SOL    HW1 4665   2.776   6.447  12.406
  942SOL    HW2 4666   2.808   6.369  12.531
  943SOL     OW 4667   3.468   9.035   0.216
  943SOL    HW1 4668   3.468   8.978   0.292
  943SOL    HW2 4669   3.542   9.095   0.231
  944SOL     OW 4670   9.580   2.298   6.893
  944SOL    HW1 4671   9.486   2.318   6.894
  944SOL    HW2 4672   9.592   2.234   6.963
  945SOL     OW 4673  11.597  14.628  13.687
  945SOL    HW1 4674  11.631  14.713  13.659
  945SOL    HW2 4675  11.547  14.596  13.612
  946SOL     OW 4676   8.525   9.797   5.477
  946SOL    HW1 4677   8.564   9.861   5.536
  946SOL    HW2 4678   8.507   9.846   5.397
  947SOL     OW 4679   2.225  11.558   0.945
  947SOL    HW1 4680   2.172  11.634   0.921
  947SOL    HW2 4681   2.220  11.500   0.868
  948SOL     OW 4682   9.068   1.591   4.522
  948SOL    HW1 4683   9.113   1.552   4.447
  948SOL    HW2 4684   9.097   1.683   4.522
  949SOL     OW 4685  10.419   5.499   4.790
  949SOL    HW1 4686  10.482   5.563   4.755
  949SOL    HW2 4687  10.464   5.460   4.865
  950SOL     OW 4688  13.593  13.766   4.851
  950SOL    HW1 4689  13.681  13.760   4.815
  950SOL    HW2 4690  13.541  13.802   4.779
  951SOL     OW 4691   9.113   9.764  12.753
  951SOL    HW1 4692   9.202   9.734  12.732
  951SOL    HW2 4693   9.068   9.764  12.668
  952SOL     OW 4694   7.153  10.856   4.951
  952SOL    HW1 4695   7.086  10.923   4.962
  952SOL    HW2 4696   7.205  10.861   5.031
  953SOL     OW 4697  10.510   6.723   1.440
  953SOL    HW1 4698  10.593   6.762   1.466
  953SOL    HW2 4699  10.492   6.657   1.507
  954SOL     OW 4700   2.567   3.970  13.512
  954SOL    HW1 4701   2.610   3.902  13.564
  954SOL    HW2 4702   2.623   3.979  13.435
  955SOL     OW 4703   1.904   5.697  14.328
  955SOL    HW1 4704   1.838   5.735  14.270
  955SOL    HW2 4705   1.854   5.636  14.384
  956SOL     OW 4706   3.876   7.687   1.658
  956SOL    HW1 4707   3.922   7.605   1.642
  956SOL    HW2 4708   3.934   7.754   1.620
  957SOL     OW 4709  11.464   8.918  12.422
  957SOL    HW1 4710  11.539   8.888  12.372
  957SOL    HW2 4711  11.415   8.973  12.361
  958SOL     OW 4712   2.149   0.889   4.779
  958SOL    HW1 4713   2.153   0.794   4.792
  958SOL    HW2 4714   2.238   0.913   4.752
  959SOL     OW 4715  13.132   4.304  13.073
  959SOL    HW1 4716  13.166   4.371  13.132
  959SOL    HW2 4717  13.040   4.327  13.061
  960SOL     OW 4718   7.251   3.779   5.759
  960SOL    HW1 4719   7.284   3.792   5.671
  960SOL    HW2 4720   7.316   3.822   5.815
  961SOL     OW 4721  12.026   5.230  11.490
  961SOL    HW1 4722  11.980   5.261  11.412
  961SOL    HW2 4723  12.038   5.136  11.474
  962SOL     OW 4724  14.286   4.313   2.815
  962SOL    HW1 4725  14.317   4.318   2.906
  962SOL    HW2 4726  14.194   4.288   2.823
  963SOL     OW 4727  13.116  10.506   5.755
  963SOL    HW1 4728  13.094  10.587   5.710
  963SOL    HW2 4729  13.206  10.488   5.729
  964SOL     OW 4730   0.114   0.392   1.120
  964SOL    HW1 4731   0.071   0.319   1.075
  964SOL    HW2 4732   0.155   0.442   1.050
  965SOL     OW 4733   1.981   3.670   5.359
  965SOL    HW1 4734   1.977   3.580   5.390
  965SOL    HW2 4735   2.067   3.702   5.386
  966SOL     OW 4736   5.055   1.134   6.493
  966SOL    HW1 4737   5.071   1.147   6.587
  966SOL    HW2 4738   5.106   1.202   6.451
  967SOL     OW 4739  10.238   5.478   3.533
  967SOL    HW1 4740  10.324   5.464   3.495
  967SOL    HW2 4741  10.206   5.390   3.554
  968SOL     OW 4742  12.595   9.113   5.134
  968SOL    HW1 4743  12.631   9.077   5.053
  968SOL    HW2 4744  12.595   9.207   5.121
  969SOL     OW 4745   2.420  10.998   4.572
  969SOL    HW1 4746   2.467  11.072   4.535
  969SOL    HW2 4747   2.406  11.021   4.663
  970SOL     OW 4748  13.830   0.131  10.598
  970SOL    HW1 4749  13.863   0.077  10.670
  970SOL    HW2 4750  13.746   0.092  10.575
  971SOL     OW 4751   8.288  13.818   7.142
  971SOL    HW1 4752   8.246  13.903   7.159
  971SOL    HW2 4753   8.347  13.835   7.068
  972SOL     OW 4754   5.788  12.253   5.854
  972SOL    HW1 4755   5.723  12.251   5.784
  972SOL    HW2 4756   5.870  12.272   5.810
  973SOL     OW 4757   3.793   9.591   0.742
  973SOL    HW1 4758   3.717   9.562   0.693
  973SOL    HW2 4759   3.802   9.526   0.812
  974SOL     OW 4760  10.886   2.724   1.197
  974SOL    HW1 4761  10.826   2.665   1.151
  974SOL    HW2 4762  10.917   2.672   1.272
  975SOL     OW 4763   7.716   4.893   5.511
  975SOL    HW1 4764   7.631   4.852   5.495
  975SOL    HW2 4765   7.737   4.937   5.429
  976SOL     OW 4766   1.715  12.294   7.688
  976SOL    HW1 4767   1.630  12.254   7.701
  976SOL    HW2 4768   1.697  12.369   7.630
  977SOL     OW 4769  11.344   4.667  11.314
  977SOL    HW1 4770  11.280   4.703  11.253
  977SOL    HW2 4771  11.308   4.582  11.339
  978SOL     OW 4772  10.309   9.705   8.389
  978SOL    HW1 4773  10.248   9.768   8.350
  978SOL    HW2 4774  10.344   9.750   8.466
  979SOL     OW 4775   7.524   7.504   4.686
  979SOL    HW1 4776   7.489   7.592   4.677
  979SOL    HW2 4777   7.608   7.516   4.729
  980SOL     OW 4778  12.634  13.842   3.530
  980SOL    HW1 4779  12.581  13.846   3.450
  980SOL    HW2 4780  12.655  13.749   3.540
  981SOL     OW 4781   7.970  14.245  13.916
  981SOL    HW1 4782   7.914  14.186  13.866
  981SOL    HW2 4783   7.936  14.333  13.898
  982SOL     OW 4784  10.726   0.364   5.750
  982SOL    HW1 4785  10.663   0.316   5.697
  982SOL    HW2 4786  10.811   0.329   5.722
  983SOL     OW 4787   1.752   7.096   1.764
  983SOL    HW1 4788   1.717   7.164   1.707
  983SOL    HW2 4789   1.681   7.076   1.825
  984SOL     OW 4790  11.485   3.630  13.641
  984SOL    HW1 4791  11.557   3.691  13.659
  984SOL    HW2 4792  11.528   3.556  13.597
  985SOL     OW 4793   3.332   2.330   2.613
  985SOL    HW1 4794   3.411   2.314   2.562
  985SOL    HW2 4795   3.267   2.357   2.548
  986SOL     OW 4796   9.381   6.080  14.010
  986SOL    HW1 4797   9.430   6.162  14.004
  986SOL    HW2 4798   9.447   6.012  14.015
  987SOL     OW 4799   5.345   2.371   8.153
  987SOL    HW1 4800   5.258   2.367   8.112
  987SOL    HW2 4801   5.359   2.465   8.169
  988SOL     OW 4802  11.079   3.136  14.504
  988SOL    HW1 4803  11.145   3.192  14.545
  988SOL    HW2 4804  11.053   3.183  14.426
  989SOL     OW 4805   8.569   5.139   6.861
  989SOL    HW1 4806   8.527   5.215   6.821
  989SOL    HW2 4807   8.530   5.064   6.816
  990SOL     OW 4808   6.894   4.357  12.034
  990SOL    HW1 4809   6.872   4.280  12.086
  990SOL    HW2 4810   6.970   4.331  11.982
  991SOL     OW 4811   5.711   5.635   6.584
  991SOL    HW1 4812   5.789   5.687   6.564
  991SOL    HW2 4813   5.701   5.577   6.508
  992SOL     OW 4814   6.039   7.636   0.202
  992SOL    HW1 4815   5.992   7.660   0.122
  992SOL    HW2 4816   5.972   7.639   0.270
  993SOL     OW 4817   8.222  11.697   0.684
  993SOL    HW1 4818   8.235  11.726   0.774
  993SOL    HW2 4819   8.303  11.720   0.639
  994SOL     OW 4820  14.721   2.960   5.850
  994SOL    HW1 4821  14.655   2.978   5.916
  994SOL    HW2 4822  14.730   2.864   5.850
  995SOL     OW 4823   9.797   1.937   5.810
  995SOL    HW1 4824   9.842   1.856   5.786
  995SOL    HW2 4825   9.865   1.990   5.851
  996SOL     OW 4826  13.456   4.703   0.285
  996SOL    HW1 4827  13.466   4.796   0.270
  996SOL    HW2 4828  13.538   4.664   0.255
  997SOL     OW 4829  13.831  11.012   5.268
  997SOL    HW1 4830  13.844  10.941   5.204
  997SOL    HW2 4831  13.741  11.041   5.254
  998SOL     OW 4832  13.742   3.159   6.224
  998SOL    HW1 4833  13.769   3.099   6.293
  998SOL    HW2 4834  13.653   3.131   6.202
  999SOL     OW 4835   5.124   3.375   3.326
  999SOL    HW1 4836   5.136   3.458   3.373
  999SOL    HW2 4837   5.094   3.314   3.394
 1000SOL     OW 4838  14.540   6.720   5.605
 1000SOL    HW1 4839  14.514   6.662   5.676
 1000SOL    HW2 4840  14.578   6.662   5.539
 1001SOL     OW 4841   4.869   6.998   3.402
 1001SOL    HW1 4842   4.862   6.907   3.431
 1001SOL    HW2 4843   4.963   7.013   3.393
 1002SOL     OW 4844   7.858  11.050  11.335
 1002SOL    HW1 4845   7.903  11.012  11.410
 1002SOL    HW2 4846   7.847  11.142  11.357
 1003SOL     OW 4847  10.064   7.824   6.944
 1003SOL    HW1 4848  10.003   7.894   6.968
 1003SOL    HW2 4849  10.105   7.853   6.863
 1004SOL     OW 4850   3.080  10.000   7.410
 1004SOL    HW1 4851   3.146   9.972   7.473
 1004SOL    HW2 4852   3.056   9.920   7.364
 1005SOL     OW 4853   9.220   6.794   0.018
 1005SOL    HW1 4854   9.161   6.792  14.821
 1005SOL    HW2 4855   9.292   6.735  14.873
 1006SOL     OW 4856   9.096   3.620   6.079
 1006SOL    HW1 4857   9.121   3.569   6.156
 1006SOL    HW2 4858   9.176   3.624   6.026
 1007SOL     OW 4859   6.721   3.263   3.840
 1007SOL    HW1 4860   6.754   3.351   3.822
 1007SOL    HW2 4861   6.781   3.206   3.792
 1008SOL     OW 4862  13.780   9.584   0.998
 1008SOL    HW1 4863  13.705   9.619   1.046
 1008SOL    HW2 4864  13.741   9.533   0.926
 1009SOL     OW 4865   8.729   4.427  12.441
 1009SOL    HW1 4866   8.764   4.353  12.392
 1009SOL    HW2 4867   8.727   4.397  12.532
 1010SOL     OW 4868  12.705   2.711   5.162
 1010SOL    HW1 4869  12.768   2.643   5.138
 1010SOL    HW2 4870  12.655   2.674   5.234
 1011SOL     OW 4871   9.969   4.257   4.623
 1011SOL    HW1 4872  10.048   4.246   4.570
 1011SOL    HW2 4873   9.998   4.306   4.700
 1012SOL     OW 4874  11.480  13.543  11.190
 1012SOL    HW1 4875  11.435  13.628  11.187
 1012SOL    HW2 4876  11.410  13.478  11.188
 1013SOL     OW 4877   3.242   8.697  11.608
 1013SOL    HW1 4878   3.249   8.663  11.519
 1013SOL    HW2 4879   3.154   8.674  11.636
 1014SOL     OW 4880   5.212  10.032   4.490
 1014SOL    HW1 4881   5.195  10.028   4.584
 1014SOL    HW2 4882   5.277   9.963   4.473
 1015SOL     OW 4883   2.114   5.878  13.865
 1015SOL    HW1 4884   2.115   5.971  13.887
 1015SOL    HW2 4885   2.168   5.871  13.786
 1016SOL     OW 4886   2.956   8.784   8.568
 1016SOL    HW1 4887   2.956   8.856   8.631
 1016SOL    HW2 4888   3.006   8.817   8.493
 1017SOL     OW 4889  14.581   9.071   6.557
 1017SOL    HW1 4890  14.570   9.120   6.639
 1017SOL    HW2 4891  14.546   8.984   6.576
 1018SOL     OW 4892   0.575  13.500   8.678
 1018SOL    HW1 4893   0.595  13.566   8.613
 1018SOL    HW2 4894   0.543  13.550   8.754
 1019SOL     OW 4895  10.373   0.357   0.310
 1019SOL    HW1 4896  10.459   0.386   0.341
 1019SOL    HW2 4897  10.328   0.326   0.388
 1020SOL     OW 4898   5.337  12.746  12.136
 1020SOL    HW1 4899   5.326  12.687  12.061
 1020SOL    HW2 4900   5.278  12.710  12.203
 1021SOL     OW 4901   8.504   8.146   8.663
 1021SOL    HW1 4902   8.571   8.079   8.651
 1021SOL    HW2 4903   8.447   8.111   8.732
 1022SOL     OW 4904  13.364  11.600  11.636
 1022SOL    HW1 4905  13.395  11.636  11.719
 1022SOL    HW2 4906  13.395  11.662  11.570
 1023SOL     OW 4907   0.829   8.492   9.997
 1023SOL    HW1 4908   0.825   8.458   9.908
 1023SOL    HW2 4909   0.739   8.516  10.018
 1024SOL     OW 4910  14.660   7.967   9.875
 1024SOL    HW1 4911  14.608   7.888   9.861
 1024SOL    HW2 4912  14.666   8.007   9.789
 1025SOL     OW 4913   7.908  13.578  13.165
 1025SOL    HW1 4914   7.815  13.597  13.166
 1025SOL    HW2 4915   7.950  13.664  13.173
 1026SOL     OW 4916  14.202   8.173  11.707
 1026SOL    HW1 4917  14.235   8.262  11.707
 1026SOL    HW2 4918  14.110   8.181  11.680
 1027SOL     OW 4919   0.165   9.321   4.761
 1027SOL    HW1 4920   0.247   9.271   4.753
 1027SOL    HW2 4921   0.102   9.270   4.710
 1028SOL     OW 4922   6.612   8.023  12.451
 1028SOL    HW1 4923   6.519   8.037  12.467
 1028SOL    HW2 4924   6.654   8.042  12.535
 1029SOL     OW 4925  13.163   1.496   0.910
 1029SOL    HW1 4926  13.249   1.503   0.952
 1029SOL    HW2 4927  13.102   1.536   0.972
 1030SOL     OW 4928  11.010   7.848  11.344
 1030SOL    HW1 4929  10.937   7.875  11.288
 1030SOL    HW2 4930  11.084   7.843  11.284
 1031SOL     OW 4931   0.001   3.869   0.045
 1031SOL    HW1 4932   0.006   3.850   0.139
 1031SOL    HW2 4933   0.019   3.963   0.039
 1032SOL     OW 4934   5.212  11.155   6.328
 1032SOL    HW1 4935   5.271  11.229   6.312
 1032SOL    HW2 4936   5.256  11.081   6.287
 1033SOL     OW 4937   2.264   9.855   6.870
 1033SOL    HW1 4938   2.208   9.933   6.872
 1033SOL    HW2 4939   2.353   9.889   6.872
 1034SOL     OW 4940   9.116   4.233   9.696
 1034SOL    HW1 4941   9.090   4.240   9.604
 1034SOL    HW2 4942   9.039   4.197   9.740
 1035SOL     OW 4943  12.107   5.793   9.106
 1035SOL    HW1 4944  12.065   5.732   9.045
 1035SOL    HW2 4945  12.155   5.736   9.166
 1036SOL     OW 4946   8.900   3.057   2.553
 1036SOL    HW1 4947   8.928   3.133   2.603
 1036SOL    HW2 4948   8.861   3.093   2.473
 1037SOL     OW 4949   8.544   4.665   4.237
 1037SOL    HW1 4950   8.453   4.665   4.267
 1037SOL    HW2 4951   8.573   4.575   4.249
 1038SOL     OW 4952   0.153   3.480  14.237
 1038SOL    HW1 4953   0.166   3.546  14.305
 1038SOL    HW2 4954   0.175   3.397  14.280
 1039SOL     OW 4955   2.639   2.200   6.712
 1039SOL    HW1 4956   2.693   2.148   6.652
 1039SOL    HW2 4957   2.691   2.278   6.730
 1040SOL     OW 4958   9.521   7.867  13.019
 1040SOL    HW1 4959   9.610   7.889  12.991
 1040SOL    HW2 4960   9.471   7.947  13.002
 1041SOL     OW 4961   7.459  14.794  14.489
 1041SOL    HW1 4962   7.371  14.823  14.513
 1041SOL    HW2 4963   7.458  14.699  14.505
 1042SOL     OW 4964  10.542   9.534   5.679
 1042SOL    HW1 4965  10.475   9.466   5.681
 1042SOL    HW2 4966  10.495   9.613   5.652
 1043SOL     OW 4967  12.488   6.607   8.558
 1043SOL    HW1 4968  12.498   6.601   8.653
 1043SOL    HW2 4969  12.506   6.519   8.526
 1044SOL     OW 4970   8.089  11.145   4.877
 1044SOL    HW1 4971   8.000  11.180   4.875
 1044SOL    HW2 4972   8.143  11.217   4.910
 1045SOL     OW 4973   0.213   3.339   6.902
 1045SOL    HW1 4974   0.254   3.257   6.875
 1045SOL    HW2 4975   0.279   3.406   6.886
 1046SOL     OW 4976   4.584  14.303   0.479
 1046SOL    HW1 4977   4.519  14.266   0.539
 1046SOL    HW2 4978   4.657  14.241   0.480
 1047SOL     OW 4979   2.732   0.330   6.548
 1047SOL    HW1 4980   2.751   0.236   6.551
 1047SOL    HW2 4981   2.782   0.367   6.621
 1048SOL     OW 4982   7.024  14.229   0.951
 1048SOL    HW1 4983   6.961  14.299   0.968
 1048SOL    HW2 4984   7.096  14.272   0.906
 1049SOL     OW 4985  11.730   3.974  13.205
 1049SOL    HW1 4986  11.716   3.944  13.295
 1049SOL    HW2 4987  11.820   3.948  13.185
 1050SOL     OW 4988  12.007  14.063   9.310
 1050SOL    HW1 4989  12.021  14.138   9.368
 1050SOL    HW2 4990  11.989  13.990   9.370
 1051SOL     OW 4991   9.475   8.565   7.971
 1051SOL    HW1 4992   9.478   8.639   8.031
 1051SOL    HW2 4993   9.477   8.488   8.028
 1052SOL     OW 4994   0.240  11.306   6.333
 1052SOL    HW1 4995   0.264  11.398   6.326
 1052SOL    HW2 4996   0.201  11.297   6.420
 1053SOL     OW 4997  11.364  13.225  12.467
 1053SOL    HW1 4998  11.411  13.266  12.540
 1053SOL    HW2 4999  11.279  13.269  12.465
 1054SOL     OW 5000   4.733  12.817   8.466
 1054SOL    HW1 5001   4.701  12.901   8.435
 1054SOL    HW2 5002   4.792  12.839   8.539
 1055SOL     OW 5003  11.798   3.406   9.507
 1055SOL    HW1 5004  11.853   3.406   9.428
 1055SOL    HW2 5005  11.715   3.443   9.478
 1056SOL     OW 5006  10.072   1.434  12.919
 1056SOL    HW1 5007  10.159   1.430  12.959
 1056SOL    HW2 5008  10.020   1.487  12.979
 1057SOL     OW 5009  10.975   9.427   7.975
 1057SOL    HW1 5010  10.898   9.391   8.019
 1057SOL    HW2 5011  11.049   9.381   8.016
 1058SOL     OW 5012   2.330   5.372   4.104
 1058SOL    HW1 5013   2.408   5.332   4.065
 1058SOL    HW2 5014   2.304   5.440   4.042
 1059SOL     OW 5015   3.986  10.640  14.862
 1059SOL    HW1 5016   3.932  10.598   0.050
 1059SOL    HW2 5017   4.075  10.610   0.002
 1060SOL     OW 5018  12.011   2.960  14.493
 1060SOL    HW1 5019  12.065   2.881  14.487
 1060SOL    HW2 5020  12.023   3.003  14.408
 1061SOL     OW 5021   8.313   8.933  14.106
 1061SOL    HW1 5022   8.303   9.011  14.160
 1061SOL    HW2 5023   8.405   8.909  14.115
 1062SOL     OW 5024   7.783  13.616   1.972
 1062SOL    HW1 5025   7.874  13.623   1.942
 1062SOL    HW2 5026   7.786  13.649   2.062
 1063SOL     OW 5027  11.540   8.193   7.642
 1063SOL    HW1 5028  11.462   8.241   7.669
 1063SOL    HW2 5029  11.579   8.163   7.724
 1064SOL     OW 5030  10.790  14.361  13.590
 1064SOL    HW1 5031  10.788  14.390  13.499
 1064SOL    HW2 5032  10.704  14.386  13.624
 1065SOL     OW 5033   9.639   7.776   6.432
 1065SOL    HW1 5034   9.734   7.784   6.428
 1065SOL    HW2 5035   9.608   7.821   6.354
 1066SOL     OW 5036  13.601  12.569   0.139
 1066SOL    HW1 5037  13.630  12.520   0.062
 1066SOL    HW2 5038  13.509  12.545   0.149
 1067SOL     OW 5039   3.018   7.108  13.518
 1067SOL    HW1 5040   3.018   7.146  13.606
 1067SOL    HW2 5041   2.946   7.045  13.519
 1068SOL     OW 5042  11.259   8.683   1.654
 1068SOL    HW1 5043  11.176   8.730   1.654
 1068SOL    HW2 5044  11.321   8.744   1.613
 1069SOL     OW 5045   3.561   7.066  10.814
 1069SOL    HW1 5046   3.638   7.012  10.834
 1069SOL    HW2 5047   3.527   7.090  10.900
 1070SOL     OW 5048  12.345  11.529  14.522
 1070SOL    HW1 5049  12.414  11.498  14.581
 1070SOL    HW2 5050  12.275  11.466  14.532
 1071SOL     OW 5051  12.800   5.033   9.880
 1071SOL    HW1 5052  12.811   5.123   9.849
 1071SOL    HW2 5053  12.875   4.986   9.843
 1072SOL     OW 5054   2.501   9.058  12.627
 1072SOL    HW1 5055   2.435   9.082  12.692
 1072SOL    HW2 5056   2.585   9.071  12.671
 1073SOL     OW 5057  14.774   5.557  10.743
 1073SOL    HW1 5058  14.705   5.620  10.720
 1073SOL    HW2 5059  14.814   5.535  10.659
 1074SOL     OW 5060  10.257   4.376  14.630
 1074SOL    HW1 5061  10.191   4.319  14.592
 1074SOL    HW2 5062  10.313   4.318  14.681
 1075SOL     OW 5063  14.247   6.341   9.971
 1075SOL    HW1 5064  14.296   6.401   9.915
 1075SOL    HW2 5065  14.237   6.388  10.053
 1076SOL     OW 5066   9.614  14.114   9.904
 1076SOL    HW1 5067   9.704  14.143   9.888
 1076SOL    HW2 5068   9.624  14.027   9.944
 1077SOL     OW 5069  11.649   0.065   2.782
 1077SOL    HW1 5070  11.660   0.107   2.867
 1077SOL    HW2 5071  11.678  14.854   2.795
 1078SOL     OW 5072   1.996  11.887   5.405
 1078SOL    HW1 5073   1.971  11.809   5.356
 1078SOL    HW2 5074   2.076  11.917   5.364
 1079SOL     OW 5075   5.015   1.836   7.647
 1079SOL    HW1 5076   5.021   1.806   7.737
 1079SOL    HW2 5077   4.987   1.759   7.597
 1080SOL     OW 5078  13.814   2.171   1.339
 1080SOL    HW1 5079  13.862   2.231   1.281
 1080SOL    HW2 5080  13.828   2.206   1.427
 1081SOL     OW 5081  13.006   5.261   6.662
 1081SOL    HW1 5082  12.917   5.261   6.628
 1081SOL    HW2 5083  13.052   5.324   6.607
 1082SOL     OW 5084  11.816   3.917  14.553
 1082SOL    HW1 5085  11.852   3.876  14.474
 1082SOL    HW2 5086  11.839   4.010  14.545
 1083SOL     OW 5087   5.395   0.882   3.269
 1083SOL    HW1 5088   5.486   0.910   3.260
 1083SOL    HW2 5089   5.377   0.832   3.190
 1084SOL     OW 5090  12.718  11.600   1.449
 1084SOL    HW1 5091  12.673  11.661   1.507
 1084SOL    HW2 5092  12.801  11.583   1.492
 1085SOL     OW 5093  13.925   7.368   4.246
 1085SOL    HW1 5094  13.950   7.337   4.159
 1085SOL    HW2 5095  14.003   7.355   4.299
 1086SOL     OW 5096   4.787   0.730  12.294
 1086SOL    HW1 5097   4.857   0.792  12.275
 1086SOL    HW2 5098   4.712   0.784  12.318
 1087SOL     OW 5099   7.936   0.979  13.847
 1087SOL    HW1 5100   7.967   0.910  13.905
 1087SOL    HW2 5101   7.935   1.058  13.901
 1088SOL     OW 5102   4.885   6.017   9.895
 1088SOL    HW1 5103   4.920   6.090   9.946
 1088SOL    HW2 5104   4.919   5.939   9.939
 1089SOL     OW 5105   5.049  11.685   0.344
 1089SOL    HW1 5106   5.135  11.709   0.310
 1089SOL    HW2 5107   4.987  11.722   0.281
 1090SOL     OW 5108   8.449   5.546   1.361
 1090SOL    HW1 5109   8.509   5.481   1.396
 1090SOL    HW2 5110   8.480   5.630   1.396
 1091SOL     OW 5111  14.034  14.041   5.586
 1091SOL    HW1 5112  14.116  13.993   5.578
 1091SOL    HW2 5113  14.018  14.045   5.681
 1092SOL     OW 5114   7.223   4.789  10.973
 1092SOL    HW1 5115   7.200   4.881  10.985
 1092SOL    HW2 5116   7.269   4.764  11.053
 1093SOL     OW 5117   8.792  12.244   9.900
 1093SOL    HW1 5118   8.805  12.270   9.809
 1093SOL    HW2 5119   8.700  12.221   9.907
 1094SOL     OW 5120   6.491  13.292  12.063
 1094SOL    HW1 5121   6.463  13.280  11.972
 1094SOL    HW2 5122   6.409  13.299  12.112
 1095SOL     OW 5123  14.369   2.117   8.957
 1095SOL    HW1 5124  14.450   2.073   8.932
 1095SOL    HW2 5125  14.355   2.183   8.889
 1096SOL     OW 5126   5.963   7.848  13.676
 1096SOL    HW1 5127   5.990   7.862  13.766
 1096SOL    HW2 5128   6.002   7.763  13.653
 1097SOL     OW 5129   1.427   2.775  13.480
 1097SOL    HW1 5130   1.476   2.828  13.416
 1097SOL    HW2 5131   1.377   2.713  13.426
 1098SOL     OW 5132   7.841   2.303   8.188
 1098SOL    HW1 5133   7.846   2.305   8.283
 1098SOL    HW2 5134   7.927   2.270   8.160
 1099SOL     OW 5135   8.669   0.040   1.569
 1099SOL    HW1 5136   8.587   0.003   1.537
 1099SOL    HW2 5137   8.646   0.083   1.651
 1100SOL     OW 5138   2.295   2.780   5.899
 1100SOL    HW1 5139   2.320   2.820   5.982
 1100SOL    HW2 5140   2.334   2.836   5.832
 1101SOL     OW 5141   5.364   5.553   1.329
 1101SOL    HW1 5142   5.323   5.491   1.269
 1101SOL    HW2 5143   5.442   5.583   1.282
 1102SOL     OW 5144  13.655   5.258   7.560
 1102SOL    HW1 5145  13.744   5.225   7.554
 1102SOL    HW2 5146  13.602   5.181   7.579
 1103SOL     OW 5147   6.064   0.538   6.834
 1103SOL    HW1 5148   6.040   0.626   6.861
 1103SOL    HW2 5149   5.992   0.509   6.778
 1104SOL     OW 5150   2.065  13.885   9.002
 1104SOL    HW1 5151   1.972  13.859   9.002
 1104SOL    HW2 5152   2.063  13.980   8.996
 1105SOL     OW 5153   2.190  14.010  14.106
 1105SOL    HW1 5154   2.175  14.103  14.118
 1105SOL    HW2 5155   2.136  13.987  14.030
 1106SOL     OW 5156   5.571  13.923  11.346
 1106SOL    HW1 5157   5.550  13.852  11.407
 1106SOL    HW2 5158   5.487  13.942  11.302
 1107SOL     OW 5159  13.392  10.986   5.790
 1107SOL    HW1 5160  13.328  11.053   5.767
 1107SOL    HW2 5161  13.348  10.932   5.856
 1108SOL     OW 5162   2.280   4.943   4.865
 1108SOL    HW1 5163   2.334   4.940   4.944
 1108SOL    HW2 5164   2.264   5.036   4.851
 1109SOL     OW 5165   2.039   0.062  13.894
 1109SOL    HW1 5166   1.989  14.862  13.879
 1109SOL    HW2 5167   2.116   0.053  13.839
 1110SOL     OW 5168   3.518   6.485   7.797
 1110SOL    HW1 5169   3.525   6.470   7.892
 1110SOL    HW2 5170   3.436   6.532   7.787
 1111SOL     OW 5171   6.118   2.477   3.778
 1111SOL    HW1 5172   6.200   2.525   3.789
 1111SOL    HW2 5173   6.063   2.505   3.851
 1112SOL     OW 5174  13.605   3.400   1.871
 1112SOL    HW1 5175  13.591   3.389   1.777
 1112SOL    HW2 5176  13.606   3.311   1.906
 1113SOL     OW 5177  13.205   7.008   4.831
 1113SOL    HW1 5178  13.126   7.000   4.778
 1113SOL    HW2 5179  13.274   6.970   4.778
 1114SOL     OW 5180   4.637  14.137   2.576
 1114SOL    HW1 5181   4.668  14.216   2.532
 1114SOL    HW2 5182   4.717  14.090   2.601
 1115SOL     OW 5183   7.200   8.464  10.244
 1115SOL    HW1 5184   7.126   8.478  10.304
 1115SOL    HW2 5185   7.204   8.369  10.233
 1116SOL     OW 5186   6.250   2.265   1.019
 1116SOL    HW1 5187   6.174   2.316   1.046
 1116SOL    HW2 5188   6.255   2.279   0.924
 1117SOL     OW 5189  12.360   8.220  11.540
 1117SOL    HW1 5190  12.420   8.236  11.467
 1117SOL    HW2 5191  12.283   8.273  11.521
 1118SOL     OW 5192  11.158  12.320   7.072
 1118SOL    HW1 5193  11.215  12.249   7.043
 1118SOL    HW2 5194  11.215  12.377   7.123
 1119SOL     OW 5195   7.614  13.589  13.076
 1119SOL    HW1 5196   7.593  13.682  13.068
 1119SOL    HW2 5197   7.543  13.544  13.030
 1120SOL     OW 5198   3.289   4.769   6.532
 1120SOL    HW1 5199   3.307   4.679   6.505
 1120SOL    HW2 5200   3.272   4.763   6.626
 1121SOL     OW 5201   0.002   9.239  11.368
 1121SOL    HW1 5202  14.878   9.166  11.306
 1121SOL    HW2 5203   0.006   9.197  11.454
 1122SOL     OW 5204   4.916   0.072   9.005
 1122SOL    HW1 5205   4.844   0.017   9.035
 1122SOL    HW2 5206   4.949   0.113   9.085
 1123SOL     OW 5207   4.889   5.576   2.971
 1123SOL    HW1 5208   4.928   5.580   3.058
 1123SOL    HW2 5209   4.804   5.535   2.984
 1124SOL     OW 5210  12.578   8.888  13.948
 1124SOL    HW1 5211  12.640   8.957  13.925
 1124SOL    HW2 5212  12.632   8.820  13.988
 1125SOL     OW 5213   4.056   8.013   9.785
 1125SOL    HW1 5214   4.093   7.949   9.725
 1125SOL    HW2 5215   4.006   8.072   9.729
 1126SOL     OW 5216   6.008   5.427  11.252
 1126SOL    HW1 5217   5.977   5.341  11.281
 1126SOL    HW2 5218   5.989   5.428  11.158
 1127SOL     OW 5219   6.863   2.023   1.965
 1127SOL    HW1 5220   6.782   1.972   1.974
 1127SOL    HW2 5221   6.909   1.982   1.891
 1128SOL     OW 5222   8.466  10.700   1.918
 1128SOL    HW1 5223   8.402  10.642   1.876
 1128SOL    HW2 5224   8.448  10.691   2.012
 1129SOL     OW 5225   6.782  10.504  14.407
 1129SOL    HW1 5226   6.862  10.451  14.406
 1129SOL    HW2 5227   6.717  10.449  14.363
 1130SOL     OW 5228   5.175   2.347   8.544
 1130SOL    HW1 5229   5.116   2.422   8.549
 1130SOL    HW2 5230   5.263   2.386   8.541
 1131SOL     OW 5231   2.367  13.853  10.489
 1131SOL    HW1 5232   2.402  13.916  10.426
 1131SOL    HW2 5233   2.374  13.769  10.444
 1132SOL     OW 5234   1.015  13.510  13.195
 1132SOL    HW1 5235   0.956  13.465  13.255
 1132SOL    HW2 5236   0.959  13.568  13.144
 1133SOL     OW 5237   8.101   6.494  14.603
 1133SOL    HW1 5238   8.015   6.458  14.579
 1133SOL    HW2 5239   8.159   6.466  14.532
 1134SOL     OW 5240  10.618   5.093   1.551
 1134SOL    HW1 5241  10.572   5.064   1.630
 1134SOL    HW2 5242  10.590   5.184   1.539
 1135SOL     OW 5243   0.406  10.137  12.059
 1135SOL    HW1 5244   0.442  10.145  12.147
 1135SOL    HW2 5245   0.319  10.174  12.065
 1136SOL     OW 5246   7.999   1.442   3.746
 1136SOL    HW1 5247   7.956   1.460   3.662
 1136SOL    HW2 5248   7.927   1.431   3.808
 1137SOL     OW 5249  11.516   6.499   9.276
 1137SOL    HW1 5250  11.566   6.547   9.342
 1137SOL    HW2 5251  11.565   6.418   9.262
 1138SOL     OW 5252  13.848  10.857  11.022
 1138SOL    HW1 5253  13.794  10.921  10.975
 1138SOL    HW2 5254  13.821  10.772  10.987
 1139SOL     OW 5255  13.415   5.495   2.416
 1139SOL    HW1 5256  13.376   5.485   2.503
 1139SOL    HW2 5257  13.364   5.565   2.375
 1140SOL     OW 5258   7.653  13.247   1.293
 1140SOL    HW1 5259   7.668  13.248   1.199
 1140SOL    HW2 5260   7.712  13.313   1.328
 1141SOL     OW 5261   8.079   2.205   6.748
 1141SOL    HW1 5262   8.151   2.163   6.796
 1141SOL    HW2 5263   8.113   2.218   6.660
 1142SOL     OW 5264   7.239   7.815  10.183
 1142SOL    HW1 5265   7.301   7.831  10.111
 1142SOL    HW2 5266   7.153   7.823  10.142
 1143SOL     OW 5267   9.567   0.905   9.696
 1143SOL    HW1 5268   9.635   0.910   9.763
 1143SOL    HW2 5269   9.549   0.996   9.674
 1144SOL     OW 5270   5.436   6.504   9.821
 1144SOL    HW1 5271   5.347   6.472   9.808
 1144SOL    HW2 5272   5.489   6.455   9.758
 1145SOL     OW 5273   9.657  11.679   8.239
 1145SOL    HW1 5274   9.633  11.742   8.170
 1145SOL    HW2 5275   9.588  11.612   8.235
 1146SOL     OW 5276   2.985  10.745  12.355
 1146SOL    HW1 5277   2.892  10.758  12.335
 1146SOL    HW2 5278   3.024  10.720  12.271
 1147SOL     OW 5279   3.427  10.629   4.683
 1147SOL    HW1 5280   3.375  10.705   4.655
 1147SOL    HW2 5281   3.514  10.646   4.648
 1148SOL     OW 5282  14.860   7.714   3.587
 1148SOL    HW1 5283   0.035   7.751   3.657
 1148SOL    HW2 5284   0.024   7.631   3.565
 1149SOL     OW 5285   7.696  11.210  11.586
 1149SOL    HW1 5286   7.652  11.195  11.502
 1149SOL    HW2 5287   7.789  11.207  11.565
 1150SOL     OW 5288  10.637   3.535   3.265
 1150SOL    HW1 5289  10.647   3.601   3.196
 1150SOL    HW2 5290  10.640   3.452   3.219
 1151SOL     OW 5291   5.977  10.873   4.068
 1151SOL    HW1 5292   5.899  10.870   4.124
 1151SOL    HW2 5293   6.050  10.880   4.128
 1152SOL     OW 5294   7.514  13.504   9.042
 1152SOL    HW1 5295   7.477  13.462   8.964
 1152SOL    HW2 5296   7.548  13.588   9.010
 1153SOL     OW 5297   2.891   4.755   0.568
 1153SOL    HW1 5298   2.863   4.820   0.632
 1153SOL    HW2 5299   2.883   4.671   0.614
 1154SOL     OW 5300  13.642  13.990  11.202
 1154SOL    HW1 5301  13.556  13.949  11.192
 1154SOL    HW2 5302  13.671  13.964  11.290
 1155SOL     OW 5303   9.480   5.100   2.496
 1155SOL    HW1 5304   9.544   5.170   2.510
 1155SOL    HW2 5305   9.514   5.050   2.422
 1156SOL     OW 5306   5.855   9.245  12.821
 1156SOL    HW1 5307   5.775   9.267  12.774
 1156SOL    HW2 5308   5.829   9.177  12.883
 1157SOL     OW 5309   1.539   6.248   7.570
 1157SOL    HW1 5310   1.536   6.208   7.657
 1157SOL    HW2 5311   1.614   6.207   7.527
 1158SOL     OW 5312   0.397  10.708   0.786
 1158SOL    HW1 5313   0.378  10.783   0.842
 1158SOL    HW2 5314   0.426  10.746   0.704
 1159SOL     OW 5315  12.918   8.984   6.612
 1159SOL    HW1 5316  12.989   8.964   6.672
 1159SOL    HW2 5317  12.898   9.076   6.628
 1160SOL     OW 5318   3.346  14.342   7.907
 1160SOL    HW1 5319   3.286  14.268   7.893
 1160SOL    HW2 5320   3.431  14.308   7.880
 1161SOL     OW 5321   1.666   1.046   6.341
 1161SOL    HW1 5322   1.760   1.029   6.339
 1161SOL    HW2 5323   1.629   0.988   6.274
 1162SOL     OW 5324   0.490   7.183   8.647
 1162SOL    HW1 5325   0.555   7.149   8.709
 1162SOL    HW2 5326   0.423   7.223   8.702
 1163SOL     OW 5327   1.456  13.114  13.990
 1163SOL    HW1 5328   1.537  13.155  13.960
 1163SOL    HW2 5329   1.481  13.027  14.020
 1164SOL     OW 5330  12.675   5.525   0.053
 1164SOL    HW1 5331  12.602   5.520   0.115
 1164SOL    HW2 5332  12.635   5.549  14.849
 1165SOL     OW 5333   6.234   0.879   7.379
 1165SOL    HW1 5334   6.218   0.806   7.319
 1165SOL    HW2 5335   6.315   0.855   7.425
 1166SOL     OW 5336  14.102  11.199   9.033
 1166SOL    HW1 5337  14.064  11.269   9.086
 1166SOL    HW2 5338  14.068  11.118   9.072
 1167SOL     OW 5339   1.642   0.818   3.190
 1167SOL    HW1 5340   1.727   0.859   3.173
 1167SOL    HW2 5341   1.663   0.728   3.213
 1168SOL     OW 5342  14.338   4.954   1.519
 1168SOL    HW1 5343  14.306   4.982   1.433
 1168SOL    HW2 5344  14.397   5.024   1.546
 1169SOL     OW 5345  14.305  13.612   8.958
 1169SOL    HW1 5346  14.364  13.623   8.883
 1169SOL    HW2 5347  14.234  13.674   8.942
 1170SOL     OW 5348   7.377   2.582  12.582
 1170SOL    HW1 5349   7.406   2.491  12.590
 1170SOL    HW2 5350   7.356   2.608  12.671
 1171SOL     OW 5351  10.689  10.641  12.677
 1171SOL    HW1 5352  10.726  10.629  12.765
 1171SOL    HW2 5353  10.606  10.685  12.691
 1172SOL     OW 5354  13.172   6.744   2.791
 1172SOL    HW1 5355  13.098   6.762   2.733
 1172SOL    HW2 5356  13.211   6.664   2.757
 1173SOL     OW 5357   4.134  13.659   8.819
 1173SOL    HW1 5358   4.178  13.588   8.772
 1173SOL    HW2 5359   4.197  13.686   8.886
 1174SOL     OW 5360  14.187   3.007  13.284
 1174SOL    HW1 5361  14.245   2.933  13.267
 1174SOL    HW2 5362  14.142   2.985  13.366
 1175SOL     OW 5363  12.903   1.407   2.810
 1175SOL    HW1 5364  12.995   1.401   2.782
 1175SOL    HW2 5365  12.855   1.425   2.729
 1176SOL     OW 5366  11.558   5.130  10.674
 1176SOL    HW1 5367  11.509   5.084  10.605
 1176SOL    HW2 5368  11.608   5.061  10.717
 1177SOL     OW 5369   1.617   6.003   4.102
 1177SOL    HW1 5370   1.621   5.992   4.007
 1177SOL    HW2 5371   1.551   5.940   4.130
 1178SOL     OW 5372   1.845   5.756  12.632
 1178SOL    HW1 5373   1.779   5.731  12.696
 1178SOL    HW2 5374   1.920   5.783  12.684
 1179SOL     OW 5375   2.927  13.968   5.558
 1179SOL    HW1 5376   2.871  13.905   5.603
 1179SOL    HW2 5377   2.869  14.013   5.496
 1180SOL     OW 5378   9.673  11.148   6.533
 1180SOL    HW1 5379   9.651  11.214   6.467
 1180SOL    HW2 5380   9.588  11.120   6.568
 1181SOL     OW 5381   7.527   3.531  11.150
 1181SOL    HW1 5382   7.598   3.514  11.087
 1181SOL    HW2 5383   7.448   3.533  11.096
 1182SOL     OW 5384   8.204   1.213   0.235
 1182SOL    HW1 5385   8.239   1.296   0.203
 1182SOL    HW2 5386   8.265   1.147   0.202
 1183SOL     OW 5387   9.514  14.375   7.329
 1183SOL    HW1 5388   9.575  14.404   7.260
 1183SOL    HW2 5389   9.440  14.339   7.281
 1184SOL     OW 5390   0.761  10.386  10.143
 1184SOL    HW1 5391   0.764  10.290  10.140
 1184SOL    HW2 5392   0.751  10.412  10.052
 1185SOL     OW 5393   9.959   7.742   8.761
 1185SOL    HW1 5394   9.968   7.662   8.814
 1185SOL    HW2 5395   9.876   7.780   8.790
 1186SOL     OW 5396  12.042  14.831   0.932
 1186SOL    HW1 5397  12.111  14.785   0.885
 1186SOL    HW2 5398  11.986  14.762   0.967
 1187SOL     OW 5399   1.611   7.737   6.810
 1187SOL    HW1 5400   1.591   7.738   6.717
 1187SOL    HW2 5401   1.695   7.690   6.816
 1188SOL     OW 5402  11.454   9.647   3.555
 1188SOL    HW1 5403  11.451   9.582   3.485
 1188SOL    HW2 5404  11.437   9.597   3.635
 1189SOL     OW 5405   2.672   5.414   5.249
 1189SOL    HW1 5406   2.754   5.439   5.291
 1189SOL    HW2 5407   2.683   5.444   5.158
 1190SOL     OW 5408   0.714   4.646   7.643
 1190SOL    HW1 5409   0.803   4.646   7.677
 1190SOL    HW2 5410   0.702   4.558   7.607
 1191SOL     OW 5411   5.900   9.064   3.997
 1191SOL    HW1 5412   5.900   9.160   4.005
 1191SOL    HW2 5413   5.991   9.042   3.976
 1192SOL     OW 5414   5.543   2.907  12.015
 1192SOL    HW1 5415   5.586   2.956  12.085
 1192SOL    HW2 5416   5.450   2.916  12.033
 1193SOL     OW 5417  12.155   4.047  14.207
 1193SOL    HW1 5418  12.214   4.121  14.224
 1193SOL    HW2 5419  12.211   3.980  14.168
 1194SOL     OW 5420   3.058   9.807  11.169
 1194SOL    HW1 5421   3.153   9.802  11.159
 1194SOL    HW2 5422   3.041   9.896  11.198
 1195SOL     OW 5423   3.511  10.651   0.775
 1195SOL    HW1 5424   3.462  10.642   0.857
 1195SOL    HW2 5425   3.506  10.564   0.735
 1196SOL     OW 5426   0.139   6.372   5.602
 1196SOL    HW1 5427   0.103   6.453   5.639
 1196SOL    HW2 5428   0.070   6.307   5.616
 1197SOL     OW 5429   1.166   2.911   7.443
 1197SOL    HW1 5430   1.094   2.972   7.431
 1197SOL    HW2 5431   1.164   2.855   7.365
 1198SOL     OW 5432   8.838   8.821   1.896
 1198SOL    HW1 5433   8.900   8.849   1.964
 1198SOL    HW2 5434   8.891   8.768   1.836
 1199SOL     OW 5435  10.694   5.543   5.196
 1199SOL    HW1 5436  10.684   5.494   5.277
 1199SOL    HW2 5437  10.785   5.572   5.197
 1200SOL     OW 5438   4.304  11.398   3.488
 1200SOL    HW1 5439   4.378  11.401   3.427
 1200SOL    HW2 5440   4.338  11.440   3.567
 1201SOL     OW 5441   4.347   1.100   0.472
 1201SOL    HW1 5442   4.318   1.009   0.459
 1201SOL    HW2 5443   4.293   1.131   0.545
 1202SOL     OW 5444   8.277   1.482  13.711
 1202SOL    HW1 5445   8.341   1.530  13.763
 1202SOL    HW2 5446   8.311   1.393  13.706
 1203SOL     OW 5447   5.554   6.087   1.774
 1203SOL    HW1 5448   5.573   6.180   1.759
 1203SOL    HW2 5449   5.537   6.081   1.868
 1204SOL     OW 5450  10.852   5.414   6.939
 1204SOL    HW1 5451  10.814   5.364   6.867
 1204SOL    HW2 5452  10.784   5.416   7.005
 1205SOL     OW 5453   2.247   1.018  14.695
 1205SOL    HW1 5454   2.152   1.028  14.699
 1205SOL    HW2 5455   2.279   1.104  14.669
 1206SOL     OW 5456   5.448  10.963   2.094
 1206SOL    HW1 5457   5.386  10.890   2.098
 1206SOL    HW2 5458   5.534  10.922   2.096
 1207SOL     OW 5459   4.519  13.745   0.869
 1207SOL    HW1 5460   4.424  13.758   0.876
 1207SOL    HW2 5461   4.531  13.700   0.785
 1208SOL     OW 5462   1.283  11.566   0.934
 1208SOL    HW1 5463   1.197  11.609   0.939
 1208SOL    HW2 5464   1.265  11.474   0.954
 1209SOL     OW 5465  13.649  13.232   9.488
 1209SOL    HW1 5466  13.744  13.227   9.479
 1209SOL    HW2 5467  13.635  13.246   9.582
 1210SOL     OW 5468   8.554   8.757   5.951
 1210SOL    HW1 5469   8.479   8.788   6.002
 1210SOL    HW2 5470   8.543   8.662   5.948
 1211SOL     OW 5471   4.160  13.371   0.690
 1211SOL    HW1 5472   4.091  13.307   0.676
 1211SOL    HW2 5473   4.240  13.327   0.661
 1212SOL     OW 5474  10.970  11.915  10.224
 1212SOL    HW1 5475  11.059  11.918  10.259
 1212SOL    HW2 5476  10.954  12.005  10.193
 1213SOL     OW 5477   7.724   4.321   8.888
 1213SOL    HW1 5478   7.807   4.305   8.843
 1213SOL    HW2 5479   7.714   4.417   8.886
 1214SOL     OW 5480   1.032   7.370   6.948
 1214SOL    HW1 5481   0.985   7.374   6.865
 1214SOL    HW2 5482   1.067   7.458   6.960
 1215SOL     OW 5483   6.412   7.555   7.718
 1215SOL    HW1 5484   6.445   7.619   7.782
 1215SOL    HW2 5485   6.490   7.527   7.670
 1216SOL     OW 5486   1.782  14.589  12.736
 1216SOL    HW1 5487   1.688  14.597  12.721
 1216SOL    HW2 5488   1.820  14.576  12.649
 1217SOL     OW 5489   6.944   8.818  12.224
 1217SOL    HW1 5490   6.869   8.779  12.178
 1217SOL    HW2 5491   6.970   8.752  12.288
 1218SOL     OW 5492   4.251   1.639   4.292
 1218SOL    HW1 5493   4.294   1.601   4.215
 1218SOL    HW2 5494   4.178   1.579   4.310
 1219SOL     OW 5495   5.774   1.715   3.252
 1219SOL    HW1 5496   5.745   1.795   3.209
 1219SOL    HW2 5497   5.830   1.745   3.323
 1220SOL     OW 5498   8.492  12.019  10.512
 1220SOL    HW1 5499   8.525  11.999  10.600
 1220SOL    HW2 5500   8.503  12.113  10.503
 1221SOL     OW 5501  14.685   9.476  14.478
 1221SOL    HW1 5502  14.718   9.491  14.389
 1221SOL    HW2 5503  14.754   9.427  14.521
 1222SOL     OW 5504   9.062   3.800   4.297
 1222SOL    HW1 5505   8.994   3.752   4.346
 1222SOL    HW2 5506   9.105   3.853   4.364
 1223SOL     OW 5507   1.677  10.119   3.689
 1223SOL    HW1 5508   1.605  10.163   3.733
 1223SOL    HW2 5509   1.665  10.026   3.709
 1224SOL     OW 5510   9.805  11.792   1.739
 1224SOL    HW1 5511   9.817  11.825   1.828
 1224SOL    HW2 5512   9.798  11.697   1.750
 1225SOL     OW 5513   7.607   0.174  12.476
 1225SOL    HW1 5514   7.664   0.228  12.422
 1225SOL    HW2 5515   7.658   0.156  12.555
 1226SOL     OW 5516   0.538  12.709   3.562
 1226SOL    HW1 5517   0.498  12.632   3.522
 1226SOL    HW2 5518   0.626  12.681   3.587
 1227SOL     OW 5519  13.139   2.023   4.415
 1227SOL    HW1 5520  13.112   2.114   4.417
 1227SOL    HW2 5521  13.086   1.980   4.482
 1228SOL     OW 5522  10.193   6.080  14.199
 1228SOL    HW1 5523  10.257   6.078  14.269
 1228SOL    HW2 5524  10.112   6.110  14.241
 1229SOL     OW 5525   6.320   2.741   8.652
 1229SOL    HW1 5526   6.324   2.824   8.605
 1229SOL    HW2 5527   6.312   2.766   8.744
 1230SOL     OW 5528  11.084   9.959   6.212
 1230SOL    HW1 5529  11.164   9.957   6.264
 1230SOL    HW2 5530  11.113   9.953   6.122
 1231SOL     OW 5531  12.374  14.685   6.686
 1231SOL    HW1 5532  12.373  14.781   6.693
 1231SOL    HW2 5533  12.443  14.658   6.746
 1232SOL     OW 5534   7.990  14.196   3.108
 1232SOL    HW1 5535   7.938  14.269   3.073
 1232SOL    HW2 5536   7.946  14.117   3.077
 1233SOL     OW 5537   4.599   7.779   1.176
 1233SOL    HW1 5538   4.546   7.764   1.098
 1233SOL    HW2 5539   4.603   7.693   1.219
 1234SOL     OW 5540   2.304   4.871  14.758
 1234SOL    HW1 5541   2.378   4.818  14.728
 1234SOL    HW2 5542   2.248   4.809  14.805
 1235SOL     OW 5543   9.526  11.447   4.487
 1235SOL    HW1 5544   9.496  11.477   4.573
 1235SOL    HW2 5545   9.479  11.503   4.424
 1236SOL     OW 5546   9.627   5.882   6.785
 1236SOL    HW1 5547   9.567   5.856   6.715
 1236SOL    HW2 5548   9.709   5.838   6.764
 1237SOL     OW 5549   2.956   6.429   0.431
 1237SOL    HW1 5550   3.030   6.468   0.478
 1237SOL    HW2 5551   2.886   6.423   0.496
 1238SOL     OW 5552  14.636  13.346   8.547
 1238SOL    HW1 5553  14.691  13.410   8.502
 1238SOL    HW2 5554  14.610  13.285   8.478
 1239SOL     OW 5555   8.678   8.838   7.317
 1239SOL    HW1 5556   8.743   8.768   7.321
 1239SOL    HW2 5557   8.698   8.885   7.236
 1240SOL     OW 5558  14.381   7.873   5.210
 1240SOL    HW1 5559  14.428   7.931   5.271
 1240SOL    HW2 5560  14.293   7.865   5.248
 1241SOL     OW 5561  10.265  14.748  10.310
 1241SOL    HW1 5562  10.345  14.774  10.265
 1241SOL    HW2 5563  10.294  14.705  10.390
 1242SOL     OW 5564   5.885  12.124  13.538
 1242SOL    HW1 5565   5.921  12.087  13.619
 1242SOL    HW2 5566   5.955  12.111  13.473
 1243SOL     OW 5567   3.300  10.365   7.695
 1243SOL    HW1 5568   3.366  10.375   7.627
 1243SOL    HW2 5569   3.341  10.307   7.759
 1244SOL     OW 5570  13.647  13.123   1.692
 1244SOL    HW1 5571  13.567  13.087   1.654
 1244SOL    HW2 5572  13.667  13.064   1.765
 1245SOL     OW 5573   7.145   6.986   4.305
 1245SOL    HW1 5574   7.148   7.062   4.363
 1245SOL    HW2 5575   7.226   6.938   4.325
 1246SOL     OW 5576   9.799  10.228  13.161
 1246SOL    HW1 5577   9.804  10.322  13.175
 1246SOL    HW2 5578   9.717  10.215  13.113
 1247SOL     OW 5579   3.658   0.915   5.101
 1247SOL    HW1 5580   3.710   0.939   5.178
 1247SOL    HW2 5581   3.568   0.937   5.125
 1248SOL     OW 5582   5.973   4.293   4.484
 1248SOL    HW1 5583   5.996   4.372   4.436
 1248SOL    HW2 5584   5.878   4.292   4.487
 1249SOL     OW 5585  12.806  12.892   1.465
 1249SOL    HW1 5586  12.719  12.861   1.442
 1249SOL    HW2 5587  12.806  12.893   1.561
 1250SOL     OW 5588  13.091   3.244   7.323
 1250SOL    HW1 5589  13.091   3.217   7.414
 1250SOL    HW2 5590  13.009   3.210   7.288
 1251SOL     OW 5591  12.034   6.573  14.383
 1251SOL    HW1 5592  12.121   6.534  14.387
 1251SOL    HW2 5593  12.033   6.637  14.455
 1252SOL     OW 5594   4.013  12.830   9.618
 1252SOL    HW1 5595   3.976  12.755   9.664
 1252SOL    HW2 5596   4.008  12.806   9.526
 1253SOL     OW 5597   6.704   5.919   7.347
 1253SOL    HW1 5598   6.624   5.917   7.294
 1253SOL    HW2 5599   6.727   6.012   7.350
 1254SOL     OW 5600   4.910   7.009   6.383
 1254SOL    HW1 5601   4.988   6.956   6.399
 1254SOL    HW2 5602   4.944   7.089   6.343
 1255SOL     OW 5603   5.392  12.073   6.372
 1255SOL    HW1 5604   5.319  12.049   6.315
 1255SOL    HW2 5605   5.368  12.159   6.407
 1256SOL     OW 5606  10.387  13.877  13.516
 1256SOL    HW1 5607  10.346  13.920  13.591
 1256SOL    HW2 5608  10.473  13.918  13.509
 1257SOL     OW 5609   8.178   4.582   6.964
 1257SOL    HW1 5610   8.102   4.576   6.906
 1257SOL    HW2 5611   8.231   4.505   6.943
 1258SOL     OW 5612  11.862   7.570   4.191
 1258SOL    HW1 5613  11.796   7.555   4.259
 1258SOL    HW2 5614  11.814   7.568   4.109
 1259SOL     OW 5615   1.891   1.426  12.024
 1259SOL    HW1 5616   1.811   1.463  12.060
 1259SOL    HW2 5617   1.938   1.392  12.100
 1260SOL     OW 5618  14.286   6.030   3.553
 1260SOL    HW1 5619  14.369   6.050   3.509
 1260SOL    HW2 5620  14.245   5.962   3.499
 1261SOL     OW 5621   6.120   1.272   3.114
 1261SOL    HW1 5622   6.175   1.242   3.187
 1261SOL    HW2 5623   6.103   1.193   3.063
 1262SOL     OW 5624  11.524   9.127   4.761
 1262SOL    HW1 5625  11.614   9.127   4.795
 1262SOL    HW2 5626  11.470   9.143   4.838
 1263SOL     OW 5627   8.223  12.584   5.102
 1263SOL    HW1 5628   8.205  12.618   5.014
 1263SOL    HW2 5629   8.179  12.646   5.160
 1264SOL     OW 5630   3.668  13.354   6.813
 1264SOL    HW1 5631   3.581  13.383   6.785
 1264SOL    HW2 5632   3.660  13.259   6.821
 1265SOL     OW 5633  12.089   9.383   0.039
 1265SOL    HW1 5634  12.072   9.454  14.857
 1265SOL    HW2 5635  12.005   9.336   0.046
 1266SOL     OW 5636   6.347  14.076  13.501
 1266SOL    HW1 5637   6.297  14.016  13.556
 1266SOL    HW2 5638   6.372  14.023  13.425
 1267SOL     OW 5639   5.905  11.565   2.872
 1267SOL    HW1 5640   5.819  11.536   2.904
 1267SOL    HW2 5641   5.938  11.490   2.823
 1268SOL     OW 5642   3.285   4.478   9.926
 1268SOL    HW1 5643   3.308   4.569   9.910
 1268SOL    HW2 5644   3.237   4.450   9.848
 1269SOL     OW 5645   3.950  11.285   9.257
 1269SOL    HW1 5646   4.021  11.333   9.300
 1269SOL    HW2 5647   3.976  11.279   9.166
 1270SOL     OW 5648  11.452   3.629   1.289
 1270SOL    HW1 5649  11.481   3.546   1.251
 1270SOL    HW2 5650  11.426   3.607   1.378
 1271SOL     OW 5651   5.325   5.410  13.406
 1271SOL    HW1 5652   5.414   5.418  13.371
 1271SOL    HW2 5653   5.285   5.495  13.391
 1272SOL     OW 5654   9.353   1.936  13.925
 1272SOL    HW1 5655   9.297   1.974  13.857
 1272SOL    HW2 5656   9.311   1.961  14.007
 1273SOL     OW 5657  13.443   7.014   9.636
 1273SOL    HW1 5658  13.425   7.074   9.564
 1273SOL    HW2 5659  13.429   7.067   9.715
 1274SOL     OW 5660   8.307   9.522  11.316
 1274SOL    HW1 5661   8.236   9.505  11.254
 1274SOL    HW2 5662   8.274   9.490  11.400
 1275SOL     OW 5663  13.236   8.605   6.161
 1275SOL    HW1 5664  13.248   8.573   6.250
 1275SOL    HW2 5665  13.201   8.531   6.113
 1276SOL     OW 5666  13.553   3.631  14.123
 1276SOL    HW1 5667  13.574   3.651  14.032
 1276SOL    HW2 5668  13.510   3.710  14.156
 1277SOL     OW 5669  10.499   0.117  13.641
 1277SOL    HW1 5670  10.486   0.022  13.631
 1277SOL    HW2 5671  10.586   0.124  13.681
 1278SOL     OW 5672  14.124  13.801   4.789
 1278SOL    HW1 5673  14.214  13.787   4.820
 1278SOL    HW2 5674  14.122  13.891   4.759
 1279SOL     OW 5675   9.121   0.088   4.121
 1279SOL    HW1 5676   9.034   0.058   4.094
 1279SOL    HW2 5677   9.173   0.008   4.130
 1280SOL     OW 5678  14.316   6.400   3.043
 1280SOL    HW1 5679  14.380   6.346   2.995
 1280SOL    HW2 5680  14.362   6.423   3.124
 1281SOL     OW 5681   9.437  11.195   7.476
 1281SOL    HW1 5682   9.440  11.254   7.552
 1281SOL    HW2 5683   9.515  11.218   7.425
 1282SOL     OW 5684   6.461   5.139   6.854
 1282SOL    HW1 5685   6.403   5.074   6.892
 1282SOL    HW2 5686   6.542   5.133   6.905
 1283SOL     OW 5687   4.232   9.058   5.656
 1283SOL    HW1 5688   4.242   8.963   5.662
 1283SOL    HW2 5689   4.319   9.093   5.673
 1284SOL     OW 5690  13.573   9.098  10.372
 1284SOL    HW1 5691  13.541   9.180  10.407
 1284SOL    HW2 5692  13.625   9.060  10.443
 1285SOL     OW 5693   2.717  11.889   1.195
 1285SOL    HW1 5694   2.685  11.846   1.274
 1285SOL    HW2 5695   2.718  11.821   1.128
 1286SOL     OW 5696   2.339   8.152   3.547
 1286SOL    HW1 5697   2.391   8.230   3.531
 1286SOL    HW2 5698   2.388   8.103   3.613
 1287SOL     OW 5699   8.500  11.914   4.111
 1287SOL    HW1 5700   8.552  11.837   4.090
 1287SOL    HW2 5701   8.409  11.884   4.109
 1288SOL     OW 5702   4.133  12.950   9.107
 1288SOL    HW1 5703   4.125  12.913   9.019
 1288SOL    HW2 5704   4.221  12.928   9.135
 1289SOL     OW 5705   1.455   1.588   8.437
 1289SOL    HW1 5706   1.465   1.515   8.497
 1289SOL    HW2 5707   1.365   1.583   8.406
 1290SOL     OW 5708   7.584   7.132   9.146
 1290SOL    HW1 5709   7.599   7.095   9.233
 1290SOL    HW2 5710   7.659   7.103   9.094
 1291SOL     OW 5711   7.105  14.506   4.595
 1291SOL    HW1 5712   7.110  14.415   4.624
 1291SOL    HW2 5713   7.037  14.545   4.650
 1292SOL     OW 5714  11.181  13.902  12.865
 1292SOL    HW1 5715  11.204  13.821  12.910
 1292SOL    HW2 5716  11.141  13.957  12.932
 1293SOL     OW 5717  12.705  12.445   9.240
 1293SOL    HW1 5718  12.800  12.461   9.239
 1293SOL    HW2 5719  12.687  12.403   9.156
 1294SOL     OW 5720   2.021   8.029   5.290
 1294SOL    HW1 5721   1.988   8.090   5.224
 1294SOL    HW2 5722   1.954   8.028   5.358
 1295SOL     OW 5723   4.140   2.456   2.663
 1295SOL    HW1 5724   4.232   2.430   2.662
 1295SOL    HW2 5725   4.128   2.495   2.750
 1296SOL     OW 5726  13.460   3.160   3.383
 1296SOL    HW1 5727  13.434   3.231   3.441
 1296SOL    HW2 5728  13.405   3.172   3.305
 1297SOL     OW 5729   6.133   3.075  13.615
 1297SOL    HW1 5730   6.118   3.160  13.655
 1297SOL    HW2 5731   6.218   3.047  13.647
 1298SOL     OW 5732  11.202   2.777   8.899
 1298SOL    HW1 5733  11.136   2.760   8.966
 1298SOL    HW2 5734  11.179   2.717   8.828
 1299SOL     OW 5735   9.340   9.694   9.733
 1299SOL    HW1 5736   9.285   9.643   9.792
 1299SOL    HW2 5737   9.418   9.639   9.720
 1300SOL     OW 5738  12.868   1.015   7.046
 1300SOL    HW1 5739  12.878   1.002   6.952
 1300SOL    HW2 5740  12.885   1.109   7.058
 1301SOL     OW 5741   3.043  10.703  11.169
 1301SOL    HW1 5742   3.028  10.608  11.168
 1301SOL    HW2 5743   3.127  10.714  11.125
 1302SOL     OW 5744   9.108   9.671   3.780
 1302SOL    HW1 5745   9.057   9.591   3.766
 1302SOL    HW2 5746   9.199   9.644   3.767
 1303SOL     OW 5747   4.235  11.628   5.650
 1303SOL    HW1 5748   4.303  11.562   5.643
 1303SOL    HW2 5749   4.280  11.707   5.680
 1304SOL     OW 5750   2.086   9.138  13.065
 1304SOL    HW1 5751   2.119   9.226  13.045
 1304SOL    HW2 5752   2.097   9.130  13.159
 1305SOL     OW 5753  14.497   8.800   9.442
 1305SOL    HW1 5754  14.582   8.779   9.481
 1305SOL    HW2 5755  14.515   8.808   9.348
 1306SOL     OW 5756  12.589   7.430   1.831
 1306SOL    HW1 5757  12.501   7.426   1.870
 1306SOL    HW2 5758  12.581   7.493   1.760
 1307SOL     OW 5759   2.789  10.705   5.822
 1307SOL    HW1 5760   2.779  10.775   5.757
 1307SOL    HW2 5761   2.815  10.628   5.771
 1308SOL     OW 5762   5.177   9.785  14.176
 1308SOL    HW1 5763   5.170   9.831  14.093
 1308SOL    HW2 5764   5.232   9.708  14.157
 1309SOL     OW 5765   4.827   2.792   3.125
 1309SOL    HW1 5766   4.746   2.748   3.149
 1309SOL    HW2 5767   4.800   2.859   3.063
 1310SOL     OW 5768   6.607   9.684  13.648
 1310SOL    HW1 5769   6.658   9.763  13.664
 1310SOL    HW2 5770   6.651   9.616  13.699
 1311SOL     OW 5771   6.040   5.449   2.660
 1311SOL    HW1 5772   6.092   5.379   2.621
 1311SOL    HW2 5773   6.104   5.503   2.707
 1312SOL     OW 5774   6.668   5.348   9.611
 1312SOL    HW1 5775   6.754   5.332   9.572
 1312SOL    HW2 5776   6.643   5.263   9.650
 1313SOL     OW 5777  10.436  11.848   5.805
 1313SOL    HW1 5778  10.435  11.864   5.900
 1313SOL    HW2 5779  10.458  11.755   5.797
 1314SOL     OW 5780   7.242   2.301   7.744
 1314SOL    HW1 5781   7.172   2.366   7.757
 1314SOL    HW2 5782   7.251   2.292   7.650
 1315SOL     OW 5783  13.645  12.569   2.064
 1315SOL    HW1 5784  13.618  12.604   1.979
 1315SOL    HW2 5785  13.622  12.638   2.127
 1316SOL     OW 5786   7.378  12.196  10.230
 1316SOL    HW1 5787   7.304  12.173  10.174
 1316SOL    HW2 5788   7.425  12.263  10.181
 1317SOL     OW 5789   0.305  14.641   8.501
 1317SOL    HW1 5790   0.389  14.613   8.464
 1317SOL    HW2 5791   0.321  14.729   8.534
 1318SOL     OW 5792  12.068  13.448   0.123
 1318SOL    HW1 5793  12.090  13.358   0.098
 1318SOL    HW2 5794  12.067  13.495   0.040
 1319SOL     OW 5795   3.388  11.015   4.357
 1319SOL    HW1 5796   3.458  10.950   4.366
 1319SOL    HW2 5797   3.433  11.096   4.335
 1320SOL     OW 5798   3.775   2.875   7.899
 1320SOL    HW1 5799   3.854   2.821   7.898
 1320SOL    HW2 5800   3.789   2.938   7.828
 1321SOL     OW 5801   9.493   0.597   1.397
 1321SOL    HW1 5802   9.497   0.615   1.303
 1321SOL    HW2 5803   9.559   0.654   1.435
 1322SOL     OW 5804   4.112  10.636   5.710
 1322SOL    HW1 5805   4.071  10.611   5.627
 1322SOL    HW2 5806   4.051  10.699   5.748
 1323SOL     OW 5807   2.513   5.683  12.663
 1323SOL    HW1 5808   2.607   5.695  12.675
 1323SOL    HW2 5809   2.476   5.771  12.670
 1324SOL     OW 5810   5.217   6.845  11.481
 1324SOL    HW1 5811   5.163   6.902  11.427
 1324SOL    HW2 5812   5.306   6.859  11.448
 1325SOL     OW 5813   0.638   7.414   4.515
 1325SOL    HW1 5814   0.676   7.376   4.436
 1325SOL    HW2 5815   0.575   7.478   4.483
 1326SOL     OW 5816   8.996   9.647  14.047
 1326SOL    HW1 5817   9.030   9.639  14.136
 1326SOL    HW2 5818   9.027   9.569  14.002
 1327SOL     OW 5819   0.728  10.748   1.366
 1327SOL    HW1 5820   0.786  10.673   1.383
 1327SOL    HW2 5821   0.787  10.816   1.334
 1328SOL     OW 5822  12.911   2.323   8.018
 1328SOL    HW1 5823  12.921   2.231   8.045
 1328SOL    HW2 5824  12.975   2.371   8.070
 1329SOL     OW 5825   5.735  11.743   0.935
 1329SOL    HW1 5826   5.705  11.823   0.978
 1329SOL    HW2 5827   5.732  11.676   1.003
 1330SOL     OW 5828   7.427  10.448   4.689
 1330SOL    HW1 5829   7.409  10.502   4.611
 1330SOL    HW2 5830   7.374  10.369   4.676
 1331SOL     OW 5831  11.397   0.608   4.746
 1331SOL    HW1 5832  11.377   0.515   4.756
 1331SOL    HW2 5833  11.473   0.623   4.802
 1332SOL     OW 5834  10.481   4.901   5.802
 1332SOL    HW1 5835  10.503   4.812   5.774
 1332SOL    HW2 5836  10.456   4.945   5.721
 1333SOL     OW 5837  10.387   5.646  11.262
 1333SOL    HW1 5838  10.359   5.600  11.184
 1333SOL    HW2 5839  10.306   5.665  11.310
 1334SOL     OW 5840   6.571   3.995  11.311
 1334SOL    HW1 5841   6.545   4.018  11.400
 1334SOL    HW2 5842   6.643   4.056  11.291
 1335SOL     OW 5843   4.051   8.560   2.929
 1335SOL    HW1 5844   4.091   8.518   2.853
 1335SOL    HW2 5845   4.019   8.644   2.895
 1336SOL     OW 5846   6.539  13.595   4.616
 1336SOL    HW1 5847   6.602  13.535   4.576
 1336SOL    HW2 5848   6.585  13.635   4.689
 1337SOL     OW 5849   0.479   5.259   7.557
 1337SOL    HW1 5850   0.469   5.321   7.485
 1337SOL    HW2 5851   0.468   5.173   7.515
 1338SOL     OW 5852   6.033   9.734  11.065
 1338SOL    HW1 5853   6.031   9.644  11.033
 1338SOL    HW2 5854   5.994   9.730  11.152
 1339SOL     OW 5855   0.819   1.172   6.725
 1339SOL    HW1 5856   0.807   1.232   6.651
 1339SOL    HW2 5857   0.871   1.100   6.689
 1340SOL     OW 5858  10.251  11.498   1.362
 1340SOL    HW1 5859  10.206  11.433   1.309
 1340SOL    HW2 5860  10.181  11.554   1.396
 1341SOL     OW 5861   2.936  14.438  10.907
 1341SOL    HW1 5862   2.865  14.379  10.932
 1341SOL    HW2 5863   2.895  14.499  10.846
 1342SOL     OW 5864   9.275  13.316   2.062
 1342SOL    HW1 5865   9.244  13.324   2.152
 1342SOL    HW2 5866   9.334  13.240   2.063
 1343SOL     OW 5867   5.629   5.475   4.782
 1343SOL    HW1 5868   5.713   5.484   4.736
 1343SOL    HW2 5869   5.637   5.392   4.829
 1344SOL     OW 5870   0.367   3.448  14.827
 1344SOL    HW1 5871   0.276   3.435  14.854
 1344SOL    HW2 5872   0.415   3.464   0.029
 1345SOL     OW 5873  14.607  10.947  12.838
 1345SOL    HW1 5874  14.609  10.941  12.743
 1345SOL    HW2 5875  14.680  11.005  12.861
 1346SOL     OW 5876   9.202   7.240  13.415
 1346SOL    HW1 5877   9.112   7.237  13.447
 1346SOL    HW2 5878   9.243   7.312  13.464
 1347SOL     OW 5879   3.109   6.276   0.783
 1347SOL    HW1 5880   3.097   6.370   0.768
 1347SOL    HW2 5881   3.026   6.247   0.819
 1348SOL     OW 5882   9.596   0.160   2.142
 1348SOL    HW1 5883   9.603   0.199   2.056
 1348SOL    HW2 5884   9.621   0.068   2.129
 1349SOL     OW 5885   3.942   4.635   9.617
 1349SOL    HW1 5886   4.011   4.589   9.665
 1349SOL    HW2 5887   3.943   4.597   9.529
 1350SOL     OW 5888  14.182  11.333   2.078
 1350SOL    HW1 5889  14.136  11.266   2.128
 1350SOL    HW2 5890  14.118  11.365   2.015
 1351SOL     OW 5891  12.845   2.747   2.275
 1351SOL    HW1 5892  12.750   2.740   2.273
 1351SOL    HW2 5893  12.866   2.763   2.367
 1352SOL     OW 5894   9.196   4.273   8.855
 1352SOL    HW1 5895   9.191   4.246   8.764
 1352SOL    HW2 5896   9.290   4.282   8.872
 1353SOL     OW 5897   0.407   6.370   1.706
 1353SOL    HW1 5898   0.317   6.346   1.686
 1353SOL    HW2 5899   0.457   6.347   1.627
 1354SOL     OW 5900   5.857   3.768   7.764
 1354SOL    HW1 5901   5.839   3.861   7.750
 1354SOL    HW2 5902   5.795   3.742   7.832
 1355SOL     OW 5903  14.206  11.834   7.653
 1355SOL    HW1 5904  14.286  11.808   7.699
 1355SOL    HW2 5905  14.156  11.885   7.718
 1356SOL     OW 5906  11.076  13.310   9.585
 1356SOL    HW1 5907  10.988  13.316   9.623
 1356SOL    HW2 5908  11.135  13.324   9.660
 1357SOL     OW 5909  11.360   2.743   1.248
 1357SOL    HW1 5910  11.303   2.820   1.252
 1357SOL    HW2 5911  11.304   2.674   1.213
 1358SOL     OW 5912   2.896   4.955   4.976
 1358SOL    HW1 5913   2.838   5.006   5.033
 1358SOL    HW2 5914   2.958   5.019   4.942
 1359SOL     OW 5915  12.946   7.822   5.130
 1359SOL    HW1 5916  12.906   7.774   5.203
 1359SOL    HW2 5917  13.036   7.840   5.160
 1360SOL     OW 5918   9.584  12.713  14.368
 1360SOL    HW1 5919   9.515  12.720  14.435
 1360SOL    HW2 5920   9.647  12.652  14.405
 1361SOL     OW 5921  13.774   3.915  11.182
 1361SOL    HW1 5922  13.831   3.838  11.189
 1361SOL    HW2 5923  13.835   3.989  11.173
 1362SOL     OW 5924  13.869   5.460   9.663
 1362SOL    HW1 5925  13.964   5.467   9.670
 1362SOL    HW2 5926  13.838   5.550   9.667
 1363SOL     OW 5927   3.162   3.410   4.961
 1363SOL    HW1 5928   3.229   3.461   4.916
 1363SOL    HW2 5929   3.210   3.358   5.025
 1364SOL     OW 5930   1.200   5.684   5.039
 1364SOL    HW1 5931   1.170   5.733   5.115
 1364SOL    HW2 5932   1.145   5.605   5.039
 1365SOL     OW 5933   5.858   7.124   2.273
 1365SOL    HW1 5934   5.889   7.090   2.357
 1365SOL    HW2 5935   5.836   7.215   2.291
 1366SOL     OW 5936   0.282   9.054   0.366
 1366SOL    HW1 5937   0.236   9.058   0.449
 1366SOL    HW2 5938   0.366   9.096   0.383
 1367SOL     OW 5939  12.597  10.999   6.126
 1367SOL    HW1 5940  12.562  11.030   6.042
 1367SOL    HW2 5941  12.525  10.949   6.165
 1368SOL     OW 5942   5.889   7.538   1.254
 1368SOL    HW1 5943   5.949   7.510   1.185
 1368SOL    HW2 5944   5.898   7.472   1.322
 1369SOL     OW 5945  13.909   5.814   0.147
 1369SOL    HW1 5946  13.832   5.853   0.107
 1369SOL    HW2 5947  13.982   5.868   0.117
 1370SOL     OW 5948  12.704  14.543   9.859
 1370SOL    HW1 5949  12.631  14.484   9.877
 1370SOL    HW2 5950  12.782  14.492   9.882
 1371SOL     OW 5951   5.253   7.217   5.815
 1371SOL    HW1 5952   5.158   7.205   5.808
 1371SOL    HW2 5953   5.264   7.312   5.820
 1372SOL     OW 5954  12.965   3.108  10.420
 1372SOL    HW1 5955  12.883   3.107  10.469
 1372SOL    HW2 5956  12.997   3.198  10.428
 1373SOL     OW 5957   2.547   0.627   9.352
 1373SOL    HW1 5958   2.629   0.601   9.309
 1373SOL    HW2 5959   2.491   0.549   9.345
 1374SOL     OW 5960   9.598   3.805   7.562
 1374SOL    HW1 5961   9.688   3.814   7.595
 1374SOL    HW2 5962   9.570   3.720   7.594
 1375SOL     OW 5963  10.717   1.172  12.813
 1375SOL    HW1 5964  10.680   1.095  12.771
 1375SOL    HW2 5965  10.725   1.147  12.905
 1376SOL     OW 5966  13.489   5.768  14.689
 1376SOL    HW1 5967  13.427   5.841  14.689
 1376SOL    HW2 5968  13.488   5.735  14.599
 1377SOL     OW 5969   0.889  11.577   1.467
 1377SOL    HW1 5970   0.880  11.661   1.422
 1377SOL    HW2 5971   0.880  11.511   1.398
 1378SOL     OW 5972   2.714   0.495   4.174
 1378SOL    HW1 5973   2.622   0.521   4.162
 1378SOL    HW2 5974   2.719   0.408   4.135
 1379SOL     OW 5975  13.716  14.840  13.187
 1379SOL    HW1 5976  13.684  14.784  13.258
 1379SOL    HW2 5977  13.701  14.789  13.107
 1380SOL     OW 5978  14.336   2.949  10.915
 1380SOL    HW1 5979  14.416   2.910  10.953
 1380SOL    HW2 5980  14.341   2.928  10.822
 1381SOL     OW 5981  12.886   2.817  10.717
 1381SOL    HW1 5982  12.858   2.742  10.770
 1381SOL    HW2 5983  12.920   2.777  10.637
 1382SOL     OW 5984   4.896   5.268  13.134
 1382SOL    HW1 5985   4.809   5.308  13.129
 1382SOL    HW2 5986   4.878   5.176  13.150
 1383SOL     OW 5987  11.499   6.334  11.851
 1383SOL    HW1 5988  11.576   6.385  11.878
 1383SOL    HW2 5989  11.431   6.360  11.913
 1384SOL     OW 5990   3.285   1.301   5.463
 1384SOL    HW1 5991   3.351   1.235   5.439
 1384SOL    HW2 5992   3.229   1.308   5.386
 1385SOL     OW 5993   4.152   6.709   9.412
 1385SOL    HW1 5994   4.130   6.622   9.381
 1385SOL    HW2 5995   4.080   6.765   9.383
 1386SOL     OW 5996  12.894   2.317   2.009
 1386SOL    HW1 5997  12.965   2.324   2.072
 1386SOL    HW2 5998  12.846   2.239   2.035
 1387SOL     OW 5999  14.859   3.783   5.531
 1387SOL    HW1 6000   0.007   3.692   5.542
 1387SOL    HW2 6001  14.805   3.782   5.452
 1388SOL     OW 6002   5.250   3.769   8.819
 1388SOL    HW1 6003   5.206   3.728   8.744
 1388SOL    HW2 6004   5.240   3.863   8.804
 1389SOL     OW 6005   5.474  11.323  11.434
 1389SOL    HW1 6006   5.453  11.416  11.431
 1389SOL    HW2 6007   5.567  11.320  11.456
 1390SOL     OW 6008   6.124   8.405  11.283
 1390SOL    HW1 6009   6.115   8.498  11.306
 1390SOL    HW2 6010   6.080   8.398  11.198
 1391SOL     OW 6011   6.147   9.802   0.287
 1391SOL    HW1 6012   6.162   9.726   0.343
 1391SOL    HW2 6013   6.148   9.767   0.198
 1392SOL     OW 6014   3.764  13.324  11.495
 1392SOL    HW1 6015   3.825  13.378  11.444
 1392SOL    HW2 6016   3.819  13.277  11.557
 1393SOL     OW 6017   2.601   7.977  10.925
 1393SOL    HW1 6018   2.564   7.889  10.915
 1393SOL    HW2 6019   2.580   8.001  11.015
 1394SOL     OW 6020   5.281   5.517   1.665
 1394SOL    HW1 6021   5.342   5.445   1.682
 1394SOL    HW2 6022   5.220   5.515   1.739
 1395SOL     OW 6023   4.959   6.729   7.374
 1395SOL    HW1 6024   4.921   6.806   7.330
 1395SOL    HW2 6025   4.970   6.756   7.465
 1396SOL     OW 6026   8.846  12.641   7.645
 1396SOL    HW1 6027   8.877  12.594   7.723
 1396SOL    HW2 6028   8.910  12.620   7.577
 1397SOL     OW 6029   5.199  13.612  12.078
 1397SOL    HW1 6030   5.189  13.561  12.159
 1397SOL    HW2 6031   5.268  13.567  12.030
 1398SOL     OW 6032   8.063   7.387   2.022
 1398SOL    HW1 6033   8.120   7.333   1.969
 1398SOL    HW2 6034   7.980   7.390   1.974
 1399SOL     OW 6035   1.813  11.421   9.107
 1399SOL    HW1 6036   1.806  11.504   9.058
 1399SOL    HW2 6037   1.764  11.437   9.188
 1400SOL     OW 6038   0.940   7.403   7.868
 1400SOL    HW1 6039   1.033   7.377   7.865
 1400SOL    HW2 6040   0.934   7.460   7.944
 1401SOL     OW 6041   5.856   9.210   5.300
 1401SOL    HW1 6042   5.896   9.156   5.232
 1401SOL    HW2 6043   5.908   9.193   5.378
 1402SOL     OW 6044   7.574   2.782   4.969
 1402SOL    HW1 6045   7.611   2.795   5.056
 1402SOL    HW2 6046   7.643   2.737   4.921
 1403SOL     OW 6047   4.174  12.827   4.171
 1403SOL    HW1 6048   4.244  12.819   4.235
 1403SOL    HW2 6049   4.130  12.909   4.193
 1404SOL     OW 6050   2.500   3.976   7.060
 1404SOL    HW1 6051   2.445   3.899   7.044
 1404SOL    HW2 6052   2.439   4.050   7.062
 1405SOL     OW 6053  13.405   4.550   9.874
 1405SOL    HW1 6054  13.476   4.565   9.811
 1405SOL    HW2 6055  13.361   4.635   9.880
 1406SOL     OW 6056   3.970   4.092   5.142
 1406SOL    HW1 6057   4.059   4.059   5.155
 1406SOL    HW2 6058   3.974   4.138   5.058
 1407SOL     OW 6059   1.957  14.552   3.755
 1407SOL    HW1 6060   1.895  14.591   3.817
 1407SOL    HW2 6061   1.993  14.627   3.707
 1408SOL     OW 6062   5.803  10.561   4.876
 1408SOL    HW1 6063   5.879  10.567   4.935
 1408SOL    HW2 6064   5.811  10.474   4.836
 1409SOL     OW 6065   5.703   7.015   3.331
 1409SOL    HW1 6066   5.772   7.002   3.267
 1409SOL    HW2 6067   5.736   7.083   3.389
 1410SOL     OW 6068   9.298  11.185  12.785
 1410SOL    HW1 6069   9.373  11.164  12.841
 1410SOL    HW2 6070   9.307  11.279  12.767
 1411SOL     OW 6071   9.521   5.934   9.079
 1411SOL    HW1 6072   9.596   5.885   9.112
 1411SOL    HW2 6073   9.451   5.869   9.073
 1412SOL     OW 6074   4.673   7.483   1.949
 1412SOL    HW1 6075   4.709   7.431   2.021
 1412SOL    HW2 6076   4.691   7.431   1.870
 1413SOL     OW 6077   5.423   9.784   6.962
 1413SOL    HW1 6078   5.517   9.787   6.944
 1413SOL    HW2 6079   5.415   9.813   7.052
 1414SOL     OW 6080  11.115   3.907   5.036
 1414SOL    HW1 6081  11.167   3.830   5.059
 1414SOL    HW2 6082  11.177   3.980   5.038
 1415SOL     OW 6083   9.225   6.161   7.635
 1415SOL    HW1 6084   9.297   6.100   7.623
 1415SOL    HW2 6085   9.197   6.184   7.546
 1416SOL     OW 6086  13.887   8.694  10.013
 1416SOL    HW1 6087  13.952   8.624  10.007
 1416SOL    HW2 6088  13.854   8.705   9.924
 1417SOL     OW 6089  14.639   8.162   5.095
 1417SOL    HW1 6090  14.624   8.180   5.003
 1417SOL    HW2 6091  14.553   8.170   5.136
 1418SOL     OW 6092   6.351  12.225   3.548
 1418SOL    HW1 6093   6.408  12.213   3.624
 1418SOL    HW2 6094   6.298  12.145   3.546
 1419SOL     OW 6095   2.520   2.222   4.372
 1419SOL    HW1 6096   2.560   2.281   4.309
 1419SOL    HW2 6097   2.491   2.279   4.443
 1420SOL     OW 6098  13.342   9.886   7.275
 1420SOL    HW1 6099  13.384   9.949   7.333
 1420SOL    HW2 6100  13.406   9.870   7.206
 1421SOL     OW 6101   9.448  13.393  10.378
 1421SOL    HW1 6102   9.500  13.345  10.314
 1421SOL    HW2 6103   9.363  13.349  10.378
 1422SOL     OW 6104   6.636  13.102  12.604
 1422SOL    HW1 6105   6.710  13.042  12.606
 1422SOL    HW2 6106   6.667  13.180  12.651
 1423SOL     OW 6107   1.685   2.924   3.827
 1423SOL    HW1 6108   1.616   2.927   3.894
 1423SOL    HW2 6109   1.765   2.945   3.874
 1424SOL     OW 6110   1.432   8.127  13.327
 1424SOL    HW1 6111   1.416   8.209  13.375
 1424SOL    HW2 6112   1.490   8.077  13.384
 1425SOL     OW 6113   3.610   3.875   8.069
 1425SOL    HW1 6114   3.693   3.828   8.057
 1425SOL    HW2 6115   3.619   3.917   8.154
 1426SOL     OW 6116   8.498   7.283  10.438
 1426SOL    HW1 6117   8.477   7.315  10.526
 1426SOL    HW2 6118   8.414   7.253  10.403
 1427SOL     OW 6119  13.486  14.524   3.644
 1427SOL    HW1 6120  13.505  14.581   3.570
 1427SOL    HW2 6121  13.481  14.436   3.606
 1428SOL     OW 6122   2.189   6.589   4.864
 1428SOL    HW1 6123   2.141   6.524   4.811
 1428SOL    HW2 6124   2.228   6.537   4.935
 1429SOL     OW 6125   1.339  14.400  11.067
 1429SOL    HW1 6126   1.267  14.459  11.089
 1429SOL    HW2 6127   1.348  14.408  10.972
 1430SOL     OW 6128  13.787  10.182  13.974
 1430SOL    HW1 6129  13.829  10.247  13.918
 1430SOL    HW2 6130  13.722  10.139  13.917
 1431SOL     OW 6131   2.483   8.025  13.106
 1431SOL    HW1 6132   2.508   7.948  13.157
 1431SOL    HW2 6133   2.398   8.002  13.069
 1432SOL     OW 6134   9.482   5.692   5.485
 1432SOL    HW1 6135   9.445   5.779   5.472
 1432SOL    HW2 6136   9.411   5.643   5.528
 1433SOL     OW 6137   4.879   9.393   0.046
 1433SOL    HW1 6138   4.963   9.354   0.024
 1433SOL    HW2 6139   4.858   9.355   0.132
 1434SOL     OW 6140  14.796  10.795   7.974
 1434SOL    HW1 6141  14.742  10.747   8.037
 1434SOL    HW2 6142   0.007  10.781   8.005
 1435SOL     OW 6143   6.303  12.601   2.239
 1435SOL    HW1 6144   6.325  12.537   2.172
 1435SOL    HW2 6145   6.329  12.560   2.321
 1436SOL     OW 6146   3.389   2.768  10.845
 1436SOL    HW1 6147   3.483   2.771  10.863
 1436SOL    HW2 6148   3.375   2.832  10.776
 1437SOL     OW 6149   8.004   9.976  11.698
 1437SOL    HW1 6150   7.934  10.020  11.649
 1437SOL    HW2 6151   7.973   9.975  11.789
 1438SOL     OW 6152  12.268  13.251   3.540
 1438SOL    HW1 6153  12.173  13.250   3.534
 1438SOL    HW2 6154  12.288  13.311   3.612
 1439SOL     OW 6155   1.329  12.401   9.021
 1439SOL    HW1 6156   1.372  12.378   9.103
 1439SOL    HW2 6157   1.373  12.480   8.992
 1440SOL     OW 6158   9.119  12.765  10.534
 1440SOL    HW1 6159   9.047  12.703  10.548
 1440SOL    HW2 6160   9.198  12.713  10.547
 1441SOL     OW 6161  14.302  10.509   6.385
 1441SOL    HW1 6162  14.380  10.463   6.418
 1441SOL    HW2 6163  14.336  10.568   6.317
 1442SOL     OW 6164  11.275   4.236   8.020
 1442SOL    HW1 6165  11.238   4.305   7.965
 1442SOL    HW2 6166  11.208   4.219   8.085
 1443SOL     OW 6167  13.635  14.625  11.617
 1443SOL    HW1 6168  13.639  14.553  11.555
 1443SOL    HW2 6169  13.572  14.597  11.683
 1444SOL     OW 6170   5.339   9.857   4.141
 1444SOL    HW1 6171   5.405   9.803   4.185
 1444SOL    HW2 6172   5.360   9.850   4.048
 1445SOL     OW 6173   2.158   0.887   6.038
 1445SOL    HW1 6174   2.201   0.816   6.086
 1445SOL    HW2 6175   2.067   0.886   6.068
 1446SOL     OW 6176  10.527   6.172   0.215
 1446SOL    HW1 6177  10.618   6.174   0.243
 1446SOL    HW2 6178  10.497   6.263   0.221
 1447SOL     OW 6179  11.226   6.265  12.740
 1447SOL    HW1 6180  11.189   6.348  12.768
 1447SOL    HW2 6181  11.161   6.229  12.679
 1448SOL     OW 6182   7.187   3.161   6.940
 1448SOL    HW1 6183   7.204   3.229   6.875
 1448SOL    HW2 6184   7.158   3.086   6.888
 1449SOL     OW 6185   5.884   8.849  13.164
 1449SOL    HW1 6186   5.903   8.807  13.080
 1449SOL    HW2 6187   5.874   8.941  13.144
 1450SOL     OW 6188   6.454   2.473   6.090
 1450SOL    HW1 6189   6.537   2.432   6.112
 1450SOL    HW2 6190   6.459   2.486   5.995
 1451SOL     OW 6191  14.066   0.629   5.342
 1451SOL    HW1 6192  14.121   0.706   5.329
 1451SOL    HW2 6193  14.125   0.563   5.378
 1452SOL     OW 6194  10.610  14.239  12.547
 1452SOL    HW1 6195  10.527  14.284  12.528
 1452SOL    HW2 6196  10.617  14.172  12.479
 1453SOL     OW 6197   1.050   9.426   9.862
 1453SOL    HW1 6198   1.055   9.422   9.767
 1453SOL    HW2 6199   1.051   9.335   9.891
 1454SOL     OW 6200   3.073   9.566   5.425
 1454SOL    HW1 6201   3.121   9.601   5.500
 1454SOL    HW2 6202   3.114   9.481   5.407
 1455SOL     OW 6203  14.494  12.726   6.589
 1455SOL    HW1 6204  14.484  12.811   6.630
 1455SOL    HW2 6205  14.471  12.663   6.658
 1456SOL     OW 6206  10.417   0.728   3.445
 1456SOL    HW1 6207  10.436   0.821   3.455
 1456SOL    HW2 6208  10.490   0.684   3.489
 1457SOL     OW 6209  13.246   5.249  10.195
 1457SOL    HW1 6210  13.200   5.248  10.111
 1457SOL    HW2 6211  13.302   5.171  10.193
 1458SOL     OW 6212   3.469   6.984  10.564
 1458SOL    HW1 6213   3.507   7.021  10.644
 1458SOL    HW2 6214   3.408   6.918  10.595
 1459SOL     OW 6215  14.080   1.167   3.936
 1459SOL    HW1 6216  14.029   1.100   3.982
 1459SOL    HW2 6217  14.125   1.119   3.866
 1460SOL     OW 6218   3.275  14.734   8.705
 1460SOL    HW1 6219   3.362  14.709   8.735
 1460SOL    HW2 6220   3.270  14.700   8.615
 1461SOL     OW 6221  11.454  10.775   6.331
 1461SOL    HW1 6222  11.528  10.800   6.275
 1461SOL    HW2 6223  11.384  10.753   6.269
 1462SOL     OW 6224   7.209   4.318   9.799
 1462SOL    HW1 6225   7.261   4.294   9.877
 1462SOL    HW2 6226   7.232   4.409   9.782
 1463SOL     OW 6227   9.346  11.131   2.725
 1463SOL    HW1 6228   9.433  11.104   2.697
 1463SOL    HW2 6229   9.361  11.201   2.789
 1464SOL     OW 6230  13.111  10.549   3.079
 1464SOL    HW1 6231  13.127  10.563   3.172
 1464SOL    HW2 6232  13.191  10.507   3.047
 1465SOL     OW 6233  10.026   3.820   8.090
 1465SOL    HW1 6234  10.089   3.844   8.022
 1465SOL    HW2 6235   9.968   3.757   8.048
 1466SOL     OW 6236  11.969   2.421   0.038
 1466SOL    HW1 6237  11.883   2.438   0.075
 1466SOL    HW2 6238  11.967   2.329   0.012
 1467SOL     OW 6239   5.747   4.190  11.101
 1467SOL    HW1 6240   5.755   4.197  11.006
 1467SOL    HW2 6241   5.828   4.148  11.129
 1468SOL     OW 6242  13.392   2.196   0.241
 1468SOL    HW1 6243  13.423   2.105   0.233
 1468SOL    HW2 6244  13.366   2.220   0.152
 1469SOL     OW 6245   5.048   8.183  11.482
 1469SOL    HW1 6246   5.006   8.215  11.402
 1469SOL    HW2 6247   5.043   8.087  11.475
 1470SOL     OW 6248  10.727   7.247   6.896
 1470SOL    HW1 6249  10.695   7.190   6.825
 1470SOL    HW2 6250  10.726   7.191   6.974
 1471SOL     OW 6251   6.199  11.994   6.427
 1471SOL    HW1 6252   6.292  11.992   6.404
 1471SOL    HW2 6253   6.192  12.062   6.494
 1472SOL     OW 6254   9.053  14.196   5.896
 1472SOL    HW1 6255   9.035  14.137   5.969
 1472SOL    HW2 6256   9.006  14.159   5.822
 1473SOL     OW 6257   6.918   0.382   2.988
 1473SOL    HW1 6258   6.916   0.454   3.051
 1473SOL    HW2 6259   6.954   0.308   3.037
 1474SOL     OW 6260  13.288   9.807  10.161
 1474SOL    HW1 6261  13.229   9.791  10.088
 1474SOL    HW2 6262  13.335   9.887  10.138
 1475SOL     OW 6263  14.444  10.750  11.320
 1475SOL    HW1 6264  14.528  10.705  11.307
 1475SOL    HW2 6265  14.430  10.798  11.238
 1476SOL     OW 6266  11.978  10.367  10.113
 1476SOL    HW1 6267  12.004  10.453  10.145
 1476SOL    HW2 6268  12.040  10.348  10.042
 1477SOL     OW 6269  14.806  10.490   2.652
 1477SOL    HW1 6270  14.874  10.522   2.711
 1477SOL    HW2 6271  14.738  10.557   2.656
 1478SOL     OW 6272   2.331   5.642   2.002
 1478SOL    HW1 6273   2.318   5.726   2.046
 1478SOL    HW2 6274   2.405   5.656   1.944
 1479SOL     OW 6275   2.094   0.908   7.088
 1479SOL    HW1 6276   2.021   0.948   7.135
 1479SOL    HW2 6277   2.170   0.962   7.113
 1480SOL     OW 6278   0.971  11.513   5.204
 1480SOL    HW1 6279   1.028  11.551   5.136
 1480SOL    HW2 6280   1.001  11.555   5.285
 1481SOL     OW 6281  13.510   2.103   0.541
 1481SOL    HW1 6282  13.440   2.050   0.581
 1481SOL    HW2 6283  13.470   2.140   0.463
 1482SOL     OW 6284   8.475   1.644   3.959
 1482SOL    HW1 6285   8.466   1.673   4.050
 1482SOL    HW2 6286   8.565   1.613   3.953
 1483SOL     OW 6287   0.152   9.395  14.241
 1483SOL    HW1 6288   0.212   9.321  14.248
 1483SOL    HW2 6289   0.151   9.433  14.329
 1484SOL     OW 6290   4.826  11.067  13.787
 1484SOL    HW1 6291   4.831  11.112  13.702
 1484SOL    HW2 6292   4.802  11.135  13.849
 1485SOL     OW 6293  10.544   9.893   9.966
 1485SOL    HW1 6294  10.620   9.931  10.009
 1485SOL    HW2 6295  10.580   9.843   9.892
 1486SOL     OW 6296   8.838   2.724  11.799
 1486SOL    HW1 6297   8.930   2.711  11.822
 1486SOL    HW2 6298   8.797   2.753  11.880
 1487SOL     OW 6299   2.449   1.917  10.996
 1487SOL    HW1 6300   2.489   1.946  11.078
 1487SOL    HW2 6301   2.355   1.924  11.012
 1488SOL     OW 6302   8.580   3.297   3.478
 1488SOL    HW1 6303   8.624   3.327   3.558
 1488SOL    HW2 6304   8.646   3.244   3.434
 1489SOL     OW 6305  12.807  14.791  13.226
 1489SOL    HW1 6306  12.847  14.742  13.297
 1489SOL    HW2 6307  12.847  14.878  13.231
 1490SOL     OW 6308   6.143  11.507   8.623
 1490SOL    HW1 6309   6.232  11.482   8.647
 1490SOL    HW2 6310   6.131  11.472   8.535
 1491SOL     OW 6311  10.124   9.217   3.264
 1491SOL    HW1 6312  10.081   9.173   3.337
 1491SOL    HW2 6313  10.113   9.157   3.190
 1492SOL     OW 6314   3.815   9.823  10.769
 1492SOL    HW1 6315   3.788   9.825  10.677
 1492SOL    HW2 6316   3.878   9.895  10.776
 1493SOL     OW 6317  14.581  13.330   1.044
 1493SOL    HW1 6318  14.512  13.332   0.977
 1493SOL    HW2 6319  14.650  13.387   1.009
 1494SOL     OW 6320  13.337  10.958   4.568
 1494SOL    HW1 6321  13.281  11.033   4.587
 1494SOL    HW2 6322  13.425  10.994   4.559
 1495SOL     OW 6323   8.675   1.530   3.562
 1495SOL    HW1 6324   8.644   1.450   3.604
 1495SOL    HW2 6325   8.770   1.520   3.556
 1496SOL     OW 6326   7.169   7.061  13.018
 1496SOL    HW1 6327   7.261   7.033  13.026
 1496SOL    HW2 6328   7.157   7.075  12.924
 1497SOL     OW 6329   2.749   7.988  14.093
 1497SOL    HW1 6330   2.690   8.054  14.130
 1497SOL    HW2 6331   2.800   7.957  14.168
 1498SOL     OW 6332   4.825   2.499  13.737
 1498SOL    HW1 6333   4.871   2.564  13.790
 1498SOL    HW2 6334   4.769   2.453  13.799
 1499SOL     OW 6335  14.198   7.987   8.288
 1499SOL    HW1 6336  14.180   8.014   8.378
 1499SOL    HW2 6337  14.119   8.009   8.239
 1500SOL     OW 6338  12.735  12.005  12.356
 1500SOL    HW1 6339  12.662  12.060  12.326
 1500SOL    HW2 6340  12.738  11.933  12.293
 1501SOL     OW 6341   1.150   1.033   8.824
 1501SOL    HW1 6342   1.095   0.964   8.786
 1501SOL    HW2 6343   1.098   1.113   8.816
 1502SOL     OW 6344  10.891   7.824   3.107
 1502SOL    HW1 6345  10.845   7.908   3.116
 1502SOL    HW2 6346  10.887   7.804   3.014
 1503SOL     OW 6347  14.648   7.676   1.761
 1503SOL    HW1 6348  14.606   7.601   1.803
 1503SOL    HW2 6349  14.731   7.685   1.807
 1504SOL     OW 6350   6.028  12.404  12.320
 1504SOL    HW1 6351   6.117  12.370  12.325
 1504SOL    HW2 6352   5.974  12.334  12.357
 1505SOL     OW 6353  11.311  14.517   1.353
 1505SOL    HW1 6354  11.298  14.471   1.436
 1505SOL    HW2 6355  11.347  14.602   1.377
 1506SOL     OW 6356  10.292   3.891   6.186
 1506SOL    HW1 6357  10.287   3.861   6.095
 1506SOL    HW2 6358  10.301   3.986   6.179
 1507SOL     OW 6359   1.725   1.038   8.166
 1507SOL    HW1 6360   1.720   0.942   8.159
 1507SOL    HW2 6361   1.817   1.055   8.183
 1508SOL     OW 6362   0.757   6.503   5.521
 1508SOL    HW1 6363   0.810   6.430   5.491
 1508SOL    HW2 6364   0.783   6.577   5.467
 1509SOL     OW 6365  12.606   5.184   6.304
 1509SOL    HW1 6366  12.657   5.213   6.380
 1509SOL    HW2 6367  12.656   5.109   6.269
 1510SOL     OW 6368   9.884   2.580   3.697
 1510SOL    HW1 6369   9.922   2.541   3.618
 1510SOL    HW2 6370   9.791   2.588   3.678
 1511SOL     OW 6371   3.498   4.353  11.325
 1511SOL    HW1 6372   3.588   4.364  11.356
 1511SOL    HW2 6373   3.506   4.347  11.229
 1512SOL     OW 6374   8.253   4.886  12.927
 1512SOL    HW1 6375   8.223   4.796  12.928
 1512SOL    HW2 6376   8.203   4.929  12.997
 1513SOL     OW 6377  10.656   2.848   1.904
 1513SOL    HW1 6378  10.605   2.771   1.928
 1513SOL    HW2 6379  10.611   2.921   1.946
 1514SOL     OW 6380   1.176  12.574  11.717
 1514SOL    HW1 6381   1.086  12.593  11.745
 1514SOL    HW2 6382   1.227  12.647  11.750
 1515SOL     OW 6383  10.042   8.038  13.493
 1515SOL    HW1 6384   9.988   8.062  13.568
 1515SOL    HW2 6385   9.992   7.968  13.450
 1516SOL     OW 6386   8.170   7.849   8.560
 1516SOL    HW1 6387   8.207   7.810   8.639
 1516SOL    HW2 6388   8.190   7.943   8.569
 1517SOL     OW 6389  13.709   9.930  12.753
 1517SOL    HW1 6390  13.756   9.897  12.677
 1517SOL    HW2 6391  13.634   9.977  12.717
 1518SOL     OW 6392   3.980   5.645  11.091
 1518SOL    HW1 6393   3.900   5.695  11.076
 1518SOL    HW2 6394   4.049   5.711  11.094
 1519SOL     OW 6395   4.099   4.520   9.373
 1519SOL    HW1 6396   4.034   4.524   9.302
 1519SOL    HW2 6397   4.172   4.574   9.341
 1520SOL     OW 6398  13.779  11.292   1.399
 1520SOL    HW1 6399  13.859  11.289   1.451
 1520SOL    HW2 6400  13.786  11.372   1.348
 1521SOL     OW 6401   6.738   6.560   2.425
 1521SOL    HW1 6402   6.732   6.639   2.371
 1521SOL    HW2 6403   6.648   6.545   2.455
 1522SOL     OW 6404   4.458  14.600   1.003
 1522SOL    HW1 6405   4.387  14.658   0.974
 1522SOL    HW2 6406   4.515  14.656   1.056
 1523SOL     OW 6407   9.673   2.893   7.861
 1523SOL    HW1 6408   9.598   2.840   7.888
 1523SOL    HW2 6409   9.634   2.973   7.826
 1524SOL     OW 6410   3.013   3.873   1.260
 1524SOL    HW1 6411   2.967   3.862   1.177
 1524SOL    HW2 6412   3.082   3.807   1.258
 1525SOL     OW 6413   7.699  14.561   8.568
 1525SOL    HW1 6414   7.658  14.596   8.489
 1525SOL    HW2 6415   7.634  14.573   8.637
 1526SOL     OW 6416   5.563   1.165   9.188
 1526SOL    HW1 6417   5.484   1.146   9.138
 1526SOL    HW2 6418   5.586   1.254   9.161
 1527SOL     OW 6419   4.812   9.780   6.458
 1527SOL    HW1 6420   4.842   9.834   6.531
 1527SOL    HW2 6421   4.883   9.787   6.393
 1528SOL     OW 6422   5.058   9.070   7.660
 1528SOL    HW1 6423   5.076   9.159   7.691
 1528SOL    HW2 6424   4.974   9.048   7.699
 1529SOL     OW 6425  12.957   9.812  10.872
 1529SOL    HW1 6426  13.019   9.755  10.826
 1529SOL    HW2 6427  12.905   9.851  10.802
 1530SOL     OW 6428  13.023   8.331  10.006
 1530SOL    HW1 6429  12.983   8.389   9.942
 1530SOL    HW2 6430  12.989   8.244   9.984
 1531SOL     OW 6431   2.832   9.671   5.509
 1531SOL    HW1 6432   2.917   9.641   5.479
 1531SOL    HW2 6433   2.792   9.595   5.550
 1532SOL     OW 6434   5.582  11.256   0.117
 1532SOL    HW1 6435   5.585  11.163   0.095
 1532SOL    HW2 6436   5.519  11.262   0.189
 1533SOL     OW 6437   8.261  11.861   9.473
 1533SOL    HW1 6438   8.325  11.921   9.436
 1533SOL    HW2 6439   8.296  11.839   9.560
 1534SOL     OW 6440  12.297   1.651   6.656
 1534SOL    HW1 6441  12.339   1.735   6.638
 1534SOL    HW2 6442  12.361   1.586   6.625
 1535SOL     OW 6443   2.535   7.328   6.080
 1535SOL    HW1 6444   2.491   7.356   6.160
 1535SOL    HW2 6445   2.464   7.320   6.016
 1536SOL     OW 6446  11.206   7.156   8.128
 1536SOL    HW1 6447  11.289   7.187   8.092
 1536SOL    HW2 6448  11.159   7.120   8.053
 1537SOL     OW 6449   1.246   6.424   1.546
 1537SOL    HW1 6450   1.214   6.368   1.617
 1537SOL    HW2 6451   1.332   6.390   1.524
 1538SOL     OW 6452  14.204  10.386   0.133
 1538SOL    HW1 6453  14.179  10.297   0.158
 1538SOL    HW2 6454  14.124  10.425   0.099
 1539SOL     OW 6455   5.026   4.600  14.413
 1539SOL    HW1 6456   4.979   4.682  14.400
 1539SOL    HW2 6457   4.994   4.542  14.345
 1540SOL     OW 6458   7.360  11.632   6.098
 1540SOL    HW1 6459   7.329  11.596   6.015
 1540SOL    HW2 6460   7.296  11.602   6.163
 1541SOL     OW 6461  13.803   1.213   0.161
 1541SOL    HW1 6462  13.746   1.169   0.224
 1541SOL    HW2 6463  13.816   1.149   0.091
 1542SOL     OW 6464  13.333  12.497   5.691
 1542SOL    HW1 6465  13.340  12.501   5.786
 1542SOL    HW2 6466  13.268  12.428   5.675
 1543SOL     OW 6467  10.309   3.624  10.380
 1543SOL    HW1 6468  10.263   3.708  10.384
 1543SOL    HW2 6469  10.282   3.585  10.297
 1544SOL     OW 6470   3.985   9.553   7.095
 1544SOL    HW1 6471   3.972   9.561   7.190
 1544SOL    HW2 6472   4.065   9.602   7.077
 1545SOL     OW 6473   0.033   5.213  12.228
 1545SOL    HW1 6474  14.817   5.226  12.219
 1545SOL    HW2 6475   0.054   5.253  12.312
 1546SOL     OW 6476   4.093   0.258  11.168
 1546SOL    HW1 6477   4.081   0.352  11.179
 1546SOL    HW2 6478   4.088   0.223  11.258
 1547SOL     OW 6479   2.413  13.325   4.402
 1547SOL    HW1 6480   2.458  13.242   4.420
 1547SOL    HW2 6481   2.378  13.314   4.313
 1548SOL     OW 6482  12.109  10.554   3.347
 1548SOL    HW1 6483  12.119  10.647   3.367
 1548SOL    HW2 6484  12.103  10.512   3.433
 1549SOL     OW 6485   8.537   0.173   8.557
 1549SOL    HW1 6486   8.580   0.111   8.498
 1549SOL    HW2 6487   8.531   0.127   8.640
 1550SOL     OW 6488   5.922  14.076  13.845
 1550SOL    HW1 6489   5.833  14.075  13.881
 1550SOL    HW2 6490   5.910  14.076  13.750
 1551SOL     OW 6491  10.867  12.871   6.089
 1551SOL    HW1 6492  10.832  12.880   6.178
 1551SOL    HW2 6493  10.806  12.811   6.046
 1552SOL     OW 6494   0.418   2.932   2.857
 1552SOL    HW1 6495   0.341   2.962   2.809
 1552SOL    HW2 6496   0.474   3.009   2.863
 1553SOL     OW 6497   0.272   8.142  13.794
 1553SOL    HW1 6498   0.191   8.124  13.747
 1553SOL    HW2 6499   0.303   8.057  13.823
 1554SOL     OW 6500   9.821  13.916   6.394
 1554SOL    HW1 6501   9.854  13.831   6.364
 1554SOL    HW2 6502   9.897  13.960   6.431
 1555SOL     OW 6503  14.176   3.155   1.070
 1555SOL    HW1 6504  14.271   3.162   1.078
 1555SOL    HW2 6505  14.142   3.235   1.111
 1556SOL     OW 6506   7.614  10.754   2.061
 1556SOL    HW1 6507   7.667  10.740   1.982
 1556SOL    HW2 6508   7.583  10.667   2.085
 1557SOL     OW 6509   6.927  13.687   1.488
 1557SOL    HW1 6510   6.930  13.764   1.545
 1557SOL    HW2 6511   7.018  13.665   1.473
 1558SOL     OW 6512   0.963   9.500   5.747
 1558SOL    HW1 6513   0.940   9.587   5.778
 1558SOL    HW2 6514   1.051   9.509   5.712
 1559SOL     OW 6515   7.499  11.255   9.075
 1559SOL    HW1 6516   7.435  11.287   9.012
 1559SOL    HW2 6517   7.521  11.167   9.045
 1560SOL     OW 6518   8.783   4.179   5.224
 1560SOL    HW1 6519   8.765   4.086   5.210
 1560SOL    HW2 6520   8.736   4.201   5.305
 1561SOL     OW 6521   4.776   1.228   5.498
 1561SOL    HW1 6522   4.792   1.240   5.404
 1561SOL    HW2 6523   4.687   1.193   5.503
 1562SOL     OW 6524   5.777   4.042   7.761
 1562SOL    HW1 6525   5.687   4.032   7.730
 1562SOL    HW2 6526   5.783   4.133   7.788
 1563SOL     OW 6527  11.921   3.595   3.181
 1563SOL    HW1 6528  11.995   3.538   3.203
 1563SOL    HW2 6529  11.934   3.673   3.235
 1564SOL     OW 6530  12.282   7.589  11.861
 1564SOL    HW1 6531  12.354   7.635  11.817
 1564SOL    HW2 6532  12.288   7.499  11.828
 1565SOL     OW 6533  13.622   0.545  11.704
 1565SOL    HW1 6534  13.690   0.556  11.771
 1565SOL    HW2 6535  13.544   0.585  11.743
 1566SOL     OW 6536  14.827  11.193   1.716
 1566SOL    HW1 6537  14.752  11.136   1.734
 1566SOL    HW2 6538   0.022  11.148   1.756
 1567SOL     OW 6539   4.829   0.568  13.283
 1567SOL    HW1 6540   4.828   0.659  13.253
 1567SOL    HW2 6541   4.920   0.542  13.276
 1568SOL     OW 6542   7.316   7.490   2.418
 1568SOL    HW1 6543   7.307   7.580   2.388
 1568SOL    HW2 6544   7.230   7.451   2.404
 1569SOL     OW 6545   6.602   1.350   5.454
 1569SOL    HW1 6546   6.649   1.407   5.515
 1569SOL    HW2 6547   6.559   1.285   5.509
 1570SOL     OW 6548   8.302  10.112  14.621
 1570SOL    HW1 6549   8.351  10.136  14.542
 1570SOL    HW2 6550   8.296  10.017  14.618
 1571SOL     OW 6551  14.761   0.714   2.650
 1571SOL    HW1 6552  14.758   0.740   2.557
 1571SOL    HW2 6553  14.707   0.635   2.654
 1572SOL     OW 6554   1.361   6.816  13.904
 1572SOL    HW1 6555   1.302   6.891  13.893
 1572SOL    HW2 6556   1.318   6.761  13.969
 1573SOL     OW 6557   3.752  14.221   3.670
 1573SOL    HW1 6558   3.668  14.181   3.694
 1573SOL    HW2 6559   3.790  14.249   3.753
 1574SOL     OW 6560   9.974  11.765  11.032
 1574SOL    HW1 6561  10.023  11.695  10.989
 1574SOL    HW2 6562   9.904  11.720  11.079
 1575SOL     OW 6563   8.911   4.403   7.051
 1575SOL    HW1 6564   8.817   4.413   7.036
 1575SOL    HW2 6565   8.919   4.322   7.102
 1576SOL     OW 6566   3.594   1.102   7.035
 1576SOL    HW1 6567   3.588   1.092   6.940
 1576SOL    HW2 6568   3.504   1.093   7.067
 1577SOL     OW 6569   5.843   2.140   1.569
 1577SOL    HW1 6570   5.778   2.169   1.505
 1577SOL    HW2 6571   5.821   2.049   1.585
 1578SOL     OW 6572   9.198   7.337   9.126
 1578SOL    HW1 6573   9.270   7.386   9.166
 1578SOL    HW2 6574   9.235   7.251   9.109
 1579SOL     OW 6575   3.079  10.781   7.333
 1579SOL    HW1 6576   3.092  10.687   7.340
 1579SOL    HW2 6577   3.005  10.799   7.390
 1580SOL     OW 6578  12.338   2.571   4.473
 1580SOL    HW1 6579  12.249   2.594   4.446
 1580SOL    HW2 6580  12.364   2.642   4.531
 1581SOL     OW 6581  12.667   9.753  12.053
 1581SOL    HW1 6582  12.713   9.837  12.047
 1581SOL    HW2 6583  12.580   9.776  12.086
 1582SOL     OW 6584  11.947   1.867  10.877
 1582SOL    HW1 6585  11.961   1.773  10.861
 1582SOL    HW2 6586  11.852   1.877  10.882
 1583SOL     OW 6587   8.258   6.015   7.483
 1583SOL    HW1 6588   8.341   5.970   7.503
 1583SOL    HW2 6589   8.235   5.984   7.395
 1584SOL     OW 6590  12.713   9.596   7.979
 1584SOL    HW1 6591  12.792   9.575   7.929
 1584SOL    HW2 6592  12.654   9.523   7.960
 1585SOL     OW 6593   5.728  10.379  13.992
 1585SOL    HW1 6594   5.668  10.312  13.960
 1585SOL    HW2 6595   5.673  10.441  14.039
 1586SOL     OW 6596   4.895   7.860   1.242
 1586SOL    HW1 6597   4.925   7.823   1.159
 1586SOL    HW2 6598   4.802   7.880   1.227
 1587SOL     OW 6599   4.383   5.390  10.447
 1587SOL    HW1 6600   4.321   5.461  10.465
 1587SOL    HW2 6601   4.352   5.352  10.365
 1588SOL     OW 6602   3.443   6.450   8.073
 1588SOL    HW1 6603   3.364   6.471   8.023
 1588SOL    HW2 6604   3.411   6.403   8.150
 1589SOL     OW 6605  11.453   5.963  12.848
 1589SOL    HW1 6606  11.466   6.046  12.802
 1589SOL    HW2 6607  11.481   5.896  12.786
 1590SOL     OW 6608   6.711  12.156  10.258
 1590SOL    HW1 6609   6.669  12.216  10.196
 1590SOL    HW2 6610   6.724  12.075  10.208
 1591SOL     OW 6611  11.839  12.050   6.311
 1591SOL    HW1 6612  11.828  12.143   6.292
 1591SOL    HW2 6613  11.833  12.044   6.406
 1592SOL     OW 6614   3.946   0.278   2.284
 1592SOL    HW1 6615   3.955   0.373   2.278
 1592SOL    HW2 6616   3.897   0.254   2.204
 1593SOL     OW 6617  14.150  10.824   8.062
 1593SOL    HW1 6618  14.207  10.894   8.032
 1593SOL    HW2 6619  14.198  10.782   8.134
 1594SOL     OW 6620   5.606   1.484   7.896
 1594SOL    HW1 6621   5.550   1.425   7.947
 1594SOL    HW2 6622   5.683   1.497   7.950
 1595SOL     OW 6623  14.021  13.435  10.483
 1595SOL    HW1 6624  14.063  13.460  10.565
 1595SOL    HW2 6625  14.079  13.369  10.444
 1596SOL     OW 6626   9.449  14.621   0.123
 1596SOL    HW1 6627   9.458  14.568   0.202
 1596SOL    HW2 6628   9.390  14.569   0.067
 1597SOL     OW 6629  10.479   4.469  10.919
 1597SOL    HW1 6630  10.486   4.395  10.980
 1597SOL    HW2 6631  10.386   4.473  10.897
 1598SOL     OW 6632   9.698   2.227  14.074
 1598SOL    HW1 6633   9.712   2.319  14.052
 1598SOL    HW2 6634   9.716   2.179  13.993
 1599SOL     OW 6635   7.062   9.218  11.826
 1599SOL    HW1 6636   7.032   9.308  11.821
 1599SOL    HW2 6637   7.009   9.178  11.895
 1600SOL     OW 6638   4.087   5.472   5.604
 1600SOL    HW1 6639   4.071   5.418   5.527
 1600SOL    HW2 6640   4.068   5.561   5.576
 1601SOL     OW 6641   8.338   4.055   4.808
 1601SOL    HW1 6642   8.250   4.037   4.775
 1601SOL    HW2 6643   8.392   4.061   4.729
 1602SOL     OW 6644  11.789   7.526   6.808
 1602SOL    HW1 6645  11.735   7.458   6.849
 1602SOL    HW2 6646  11.759   7.607   6.849
 1603SOL     OW 6647   8.380   9.850   5.753
 1603SOL    HW1 6648   8.450   9.844   5.688
 1603SOL    HW2 6649   8.386   9.939   5.787
 1604SOL     OW 6650   9.685  13.723   6.155
 1604SOL    HW1 6651   9.646  13.657   6.097
 1604SOL    HW2 6652   9.716  13.672   6.230
 1605SOL     OW 6653  11.269   0.448   2.686
 1605SOL    HW1 6654  11.327   0.420   2.757
 1605SOL    HW2 6655  11.184   0.464   2.729
 1606SOL     OW 6656  13.053   9.188  12.844
 1606SOL    HW1 6657  13.083   9.125  12.778
 1606SOL    HW2 6658  12.978   9.146  12.885
 1607SOL     OW 6659   0.579   5.876   9.433
 1607SOL    HW1 6660   0.579   5.781   9.448
 1607SOL    HW2 6661   0.486   5.899   9.425
 1608SOL     OW 6662   6.214   3.283   1.066
 1608SOL    HW1 6663   6.310   3.287   1.067
 1608SOL    HW2 6664   6.186   3.371   1.043
 1609SOL     OW 6665   2.963   6.212  10.725
 1609SOL    HW1 6666   3.013   6.289  10.753
 1609SOL    HW2 6667   2.873   6.243  10.721
 1610SOL     OW 6668   4.058  11.877   6.953
 1610SOL    HW1 6669   4.133  11.926   6.986
 1610SOL    HW2 6670   4.092  11.828   6.878
 1611SOL     OW 6671   0.969  10.245   4.094
 1611SOL    HW1 6672   1.060  10.271   4.107
 1611SOL    HW2 6673   0.939  10.298   4.020
 1612SOL     OW 6674  14.081   8.008   5.698
 1612SOL    HW1 6675  14.088   8.082   5.637
 1612SOL    HW2 6676  13.990   7.979   5.689
 1613SOL     OW 6677  11.558  12.412   0.983
 1613SOL    HW1 6678  11.613  12.484   1.014
 1613SOL    HW2 6679  11.520  12.445   0.901
 1614SOL     OW 6680   1.994   1.523   5.081
 1614SOL    HW1 6681   2.045   1.567   5.013
 1614SOL    HW2 6682   1.917   1.580   5.093
 1615SOL     OW 6683   6.993  12.288   4.895
 1615SOL    HW1 6684   6.973  12.199   4.864
 1615SOL    HW2 6685   7.079  12.307   4.857
 1616SOL     OW 6686   3.497   9.357   3.038
 1616SOL    HW1 6687   3.513   9.275   3.085
 1616SOL    HW2 6688   3.569   9.363   2.975
 1617SOL     OW 6689  13.548  11.653   7.821
 1617SOL    HW1 6690  13.457  11.641   7.847
 1617SOL    HW2 6691  13.554  11.609   7.735
 1618SOL     OW 6692  13.515   9.696   1.631
 1618SOL    HW1 6693  13.448   9.631   1.650
 1618SOL    HW2 6694  13.478   9.749   1.561
 1619SOL     OW 6695   0.652  14.072   6.527
 1619SOL    HW1 6696   0.634  14.159   6.562
 1619SOL    HW2 6697   0.578  14.054   6.469
 1620SOL     OW 6698   3.564   3.673   1.658
 1620SOL    HW1 6699   3.629   3.608   1.631
 1620SOL    HW2 6700   3.497   3.669   1.591
 1621SOL     OW 6701   6.128  11.541   9.043
 1621SOL    HW1 6702   6.071  11.512   8.972
 1621SOL    HW2 6703   6.190  11.469   9.055
 1622SOL     OW 6704   7.655   3.553   4.525
 1622SOL    HW1 6705   7.632   3.475   4.475
 1622SOL    HW2 6706   7.678   3.521   4.612
 1623SOL     OW 6707  12.539   9.199   3.423
 1623SOL    HW1 6708  12.472   9.163   3.364
 1623SOL    HW2 6709  12.491   9.222   3.503
 1624SOL     OW 6710  14.630   2.751   6.910
 1624SOL    HW1 6711  14.646   2.838   6.949
 1624SOL    HW2 6712  14.712   2.729   6.866
 1625SOL     OW 6713  13.246  14.152   7.753
 1625SOL    HW1 6714  13.233  14.133   7.846
 1625SOL    HW2 6715  13.265  14.067   7.714
 1626SOL     OW 6716  10.540   8.980   9.558
 1626SOL    HW1 6717  10.518   8.956   9.468
 1626SOL    HW2 6718  10.562   9.073   9.554
 1627SOL     OW 6719   5.270   7.124  14.213
 1627SOL    HW1 6720   5.341   7.092  14.270
 1627SOL    HW2 6721   5.238   7.045  14.170
 1628SOL     OW 6722  12.131   1.784   4.202
 1628SOL    HW1 6723  12.134   1.707   4.144
 1628SOL    HW2 6724  12.174   1.853   4.152
 1629SOL     OW 6725   3.640   5.918   8.240
 1629SOL    HW1 6726   3.567   5.944   8.184
 1629SOL    HW2 6727   3.712   5.975   8.213
 1630SOL     OW 6728  10.656   1.913  13.113
 1630SOL    HW1 6729  10.651   1.944  13.204
 1630SOL    HW2 6730  10.587   1.961  13.067
 1631SOL     OW 6731   7.316   5.333  13.707
 1631SOL    HW1 6732   7.312   5.386  13.787
 1631SOL    HW2 6733   7.308   5.396  13.636
 1632SOL     OW 6734   6.144   4.582  14.670
 1632SOL    HW1 6735   6.200   4.640  14.722
 1632SOL    HW2 6736   6.107   4.522  14.734
 1633SOL     OW 6737   4.835   4.853   9.652
 1633SOL    HW1 6738   4.923   4.824   9.627
 1633SOL    HW2 6739   4.777   4.783   9.623
 1634SOL     OW 6740   8.293   3.520   8.979
 1634SOL    HW1 6741   8.252   3.447   9.024
 1634SOL    HW2 6742   8.359   3.553   9.040
 1635SOL     OW 6743   4.182   8.569   4.859
 1635SOL    HW1 6744   4.257   8.626   4.875
 1635SOL    HW2 6745   4.113   8.627   4.828
 1636SOL     OW 6746   7.139   9.756  13.442
 1636SOL    HW1 6747   7.060   9.711  13.411
 1636SOL    HW2 6748   7.138   9.839  13.395
 1637SOL     OW 6749   0.798   6.193   4.515
 1637SOL    HW1 6750   0.803   6.126   4.583
 1637SOL    HW2 6751   0.721   6.169   4.463
 1638SOL     OW 6752  13.580   8.019  11.683
 1638SOL    HW1 6753  13.536   7.980  11.758
 1638SOL    HW2 6754  13.583   8.112  11.703
 1639SOL     OW 6755  13.222   0.503  12.126
 1639SOL    HW1 6756  13.238   0.503  12.032
 1639SOL    HW2 6757  13.306   0.526  12.165
 1640SOL     OW 6758   4.743   6.718   9.157
 1640SOL    HW1 6759   4.738   6.634   9.112
 1640SOL    HW2 6760   4.678   6.712   9.226
 1641SOL     OW 6761   6.107   5.356   7.307
 1641SOL    HW1 6762   6.093   5.443   7.344
 1641SOL    HW2 6763   6.106   5.298   7.382
 1642SOL     OW 6764   4.235   3.110   7.816
 1642SOL    HW1 6765   4.162   3.154   7.858
 1642SOL    HW2 6766   4.303   3.177   7.807
 1643SOL     OW 6767   8.220  13.310   0.002
 1643SOL    HW1 6768   8.129  13.316   0.031
 1643SOL    HW2 6769   8.270  13.353   0.071
 1644SOL     OW 6770  10.514  10.512   1.343
 1644SOL    HW1 6771  10.499  10.561   1.424
 1644SOL    HW2 6772  10.592  10.552   1.305
 1645SOL     OW 6773   0.929   6.070   1.242
 1645SOL    HW1 6774   0.994   6.126   1.283
 1645SOL    HW2 6775   0.970   5.984   1.237
 1646SOL     OW 6776   6.808  10.781  11.565
 1646SOL    HW1 6777   6.756  10.759  11.487
 1646SOL    HW2 6778   6.802  10.703  11.621
 1647SOL     OW 6779   2.108   7.349   2.497
 1647SOL    HW1 6780   2.149   7.434   2.481
 1647SOL    HW2 6781   2.014   7.366   2.494
 1648SOL     OW 6782  12.026   8.612   4.985
 1648SOL    HW1 6783  11.933   8.595   5.000
 1648SOL    HW2 6784  12.027   8.679   4.916
 1649SOL     OW 6785   0.286   4.882   5.667
 1649SOL    HW1 6786   0.334   4.821   5.610
 1649SOL    HW2 6787   0.348   4.952   5.685
 1650SOL     OW 6788   0.836   1.937   9.242
 1650SOL    HW1 6789   0.908   1.972   9.189
 1650SOL    HW2 6790   0.877   1.914   9.325
 1651SOL     OW 6791   3.765  14.201  11.256
 1651SOL    HW1 6792   3.771  14.272  11.321
 1651SOL    HW2 6793   3.675  14.170  11.264
 1652SOL     OW 6794   3.331  14.226   6.580
 1652SOL    HW1 6795   3.356  14.138   6.550
 1652SOL    HW2 6796   3.330  14.279   6.501
 1653SOL     OW 6797   2.513   4.030   9.609
 1653SOL    HW1 6798   2.470   3.970   9.548
 1653SOL    HW2 6799   2.446   4.095   9.630
 1654SOL     OW 6800  12.617   8.811   7.463
 1654SOL    HW1 6801  12.585   8.896   7.493
 1654SOL    HW2 6802  12.608   8.753   7.539
 1655SOL     OW 6803   6.851   0.964   4.076
 1655SOL    HW1 6804   6.813   0.936   4.159
 1655SOL    HW2 6805   6.778   1.004   4.029
 1656SOL     OW 6806   9.915   5.413   3.619
 1656SOL    HW1 6807   9.840   5.356   3.638
 1656SOL    HW2 6808   9.973   5.403   3.694
 1657SOL     OW 6809   4.288   2.102   0.218
 1657SOL    HW1 6810   4.222   2.089   0.149
 1657SOL    HW2 6811   4.236   2.125   0.296
 1658SOL     OW 6812  11.415   1.906   4.543
 1658SOL    HW1 6813  11.451   1.862   4.620
 1658SOL    HW2 6814  11.468   1.985   4.532
 1659SOL     OW 6815   0.540   4.088   4.501
 1659SOL    HW1 6816   0.590   4.160   4.465
 1659SOL    HW2 6817   0.542   4.102   4.596
 1660SOL     OW 6818   4.988  13.368   6.274
 1660SOL    HW1 6819   5.017  13.276   6.275
 1660SOL    HW2 6820   5.047  13.412   6.334
 1661SOL     OW 6821   9.008   0.616  11.035
 1661SOL    HW1 6822   9.089   0.572  11.009
 1661SOL    HW2 6823   8.975   0.655  10.955
 1662SOL     OW 6824   4.597   8.850   5.116
 1662SOL    HW1 6825   4.691   8.854   5.131
 1662SOL    HW2 6826   4.558   8.873   5.201
 1663SOL     OW 6827  11.654   1.085  12.672
 1663SOL    HW1 6828  11.643   0.998  12.709
 1663SOL    HW2 6829  11.568   1.126  12.680
 1664SOL     OW 6830  12.776  13.334   8.485
 1664SOL    HW1 6831  12.731  13.347   8.402
 1664SOL    HW2 6832  12.836  13.409   8.491
 1665SOL     OW 6833  11.761   6.347   5.324
 1665SOL    HW1 6834  11.700   6.279   5.297
 1665SOL    HW2 6835  11.746   6.419   5.263
 1666SOL     OW 6836  11.814   7.672   1.619
 1666SOL    HW1 6837  11.806   7.767   1.627
 1666SOL    HW2 6838  11.897   7.652   1.662
 1667SOL     OW 6839   4.727   0.929   1.500
 1667SOL    HW1 6840   4.645   0.960   1.463
 1667SOL    HW2 6841   4.743   0.846   1.456
 1668SOL     OW 6842   5.731   9.237   7.642
 1668SOL    HW1 6843   5.710   9.264   7.732
 1668SOL    HW2 6844   5.806   9.291   7.618
 1669SOL     OW 6845   8.195   9.787   0.670
 1669SOL    HW1 6846   8.149   9.803   0.753
 1669SOL    HW2 6847   8.133   9.739   0.617
 1670SOL     OW 6848   6.031  11.402   6.353
 1670SOL    HW1 6849   6.102  11.399   6.288
 1670SOL    HW2 6850   5.993  11.489   6.342
 1671SOL     OW 6851   5.384   3.392  11.906
 1671SOL    HW1 6852   5.356   3.474  11.946
 1671SOL    HW2 6853   5.343   3.392  11.820
 1672SOL     OW 6854  12.694  12.911   4.651
 1672SOL    HW1 6855  12.728  12.994   4.686
 1672SOL    HW2 6856  12.763  12.848   4.668
 1673SOL     OW 6857   2.953  14.476  11.894
 1673SOL    HW1 6858   3.034  14.457  11.941
 1673SOL    HW2 6859   2.971  14.448  11.804
 1674SOL     OW 6860   4.153   4.431  12.366
 1674SOL    HW1 6861   4.094   4.456  12.437
 1674SOL    HW2 6862   4.150   4.335  12.365
 1675SOL     OW 6863  11.257  13.526   1.737
 1675SOL    HW1 6864  11.218  13.494   1.819
 1675SOL    HW2 6865  11.269  13.447   1.685
 1676SOL     OW 6866  11.887  10.147   3.250
 1676SOL    HW1 6867  11.927  10.234   3.255
 1676SOL    HW2 6868  11.858  10.129   3.340
 1677SOL     OW 6869   1.543  11.866   4.105
 1677SOL    HW1 6870   1.605  11.794   4.097
 1677SOL    HW2 6871   1.491  11.844   4.182
 1678SOL     OW 6872   5.397  11.947  10.327
 1678SOL    HW1 6873   5.356  11.885  10.387
 1678SOL    HW2 6874   5.490  11.944  10.349
 1679SOL     OW 6875   7.477   1.076   3.432
 1679SOL    HW1 6876   7.482   0.982   3.448
 1679SOL    HW2 6877   7.384   1.094   3.421
 1680SOL     OW 6878  13.508   1.037   1.693
 1680SOL    HW1 6879  13.471   0.957   1.730
 1680SOL    HW2 6880  13.466   1.108   1.743
 1681SOL     OW 6881   2.750   7.492   9.605
 1681SOL    HW1 6882   2.710   7.480   9.691
 1681SOL    HW2 6883   2.711   7.573   9.571
 1682SOL     OW 6884   1.373   6.066  12.011
 1682SOL    HW1 6885   1.388   6.068  11.916
 1682SOL    HW2 6886   1.287   6.024  12.021
 1683SOL     OW 6887   8.505   1.951  13.928
 1683SOL    HW1 6888   8.570   1.930  13.861
 1683SOL    HW2 6889   8.549   2.014  13.986
 1684SOL     OW 6890  10.804   3.511   7.960
 1684SOL    HW1 6891  10.899   3.518   7.959
 1684SOL    HW2 6892  10.773   3.596   7.930
 1685SOL     OW 6893   6.892  13.527  11.554
 1685SOL    HW1 6894   6.858  13.460  11.614
 1685SOL    HW2 6895   6.813  13.563  11.512
 1686SOL     OW 6896   7.564   6.974   6.898
 1686SOL    HW1 6897   7.541   7.067   6.893
 1686SOL    HW2 6898   7.502   6.938   6.961
 1687SOL     OW 6899   5.320   7.837  10.176
 1687SOL    HW1 6900   5.412   7.861  10.168
 1687SOL    HW2 6901   5.312   7.800  10.264
 1688SOL     OW 6902   5.963   8.075   8.675
 1688SOL    HW1 6903   6.038   8.112   8.628
 1688SOL    HW2 6904   6.002   8.009   8.732
 1689SOL     OW 6905   1.771   8.052   0.655
 1689SOL    HW1 6906   1.743   8.073   0.743
 1689SOL    HW2 6907   1.865   8.034   0.663
 1690SOL     OW 6908  12.279  12.797   0.821
 1690SOL    HW1 6909  12.228  12.754   0.752
 1690SOL    HW2 6910  12.365  12.755   0.816
 1691SOL     OW 6911   9.259  11.417  12.055
 1691SOL    HW1 6912   9.185  11.440  11.999
 1691SOL    HW2 6913   9.268  11.322  12.044
 1692SOL     OW 6914   4.354   3.330  13.390
 1692SOL    HW1 6915   4.407   3.282  13.327
 1692SOL    HW2 6916   4.302   3.262  13.434
 1693SOL     OW 6917   8.237  12.921   8.335
 1693SOL    HW1 6918   8.304  12.887   8.275
 1693SOL    HW2 6919   8.175  12.967   8.278
 1694SOL     OW 6920  11.211  12.561   0.889
 1694SOL    HW1 6921  11.295  12.543   0.846
 1694SOL    HW2 6922  11.145  12.541   0.822
 1695SOL     OW 6923   1.968   1.187  11.494
 1695SOL    HW1 6924   1.980   1.254  11.560
 1695SOL    HW2 6925   2.054   1.148  11.483
 1696SOL     OW 6926  11.506  14.442   8.779
 1696SOL    HW1 6927  11.432  14.385   8.757
 1696SOL    HW2 6928  11.572  14.383   8.815
 1697SOL     OW 6929   6.158  14.661  13.066
 1697SOL    HW1 6930   6.163  14.753  13.041
 1697SOL    HW2 6931   6.135  14.663  13.159
 1698SOL     OW 6932   0.713  13.772   1.742
 1698SOL    HW1 6933   0.715  13.718   1.821
 1698SOL    HW2 6934   0.662  13.849   1.766
 1699SOL     OW 6935   8.040   5.091  14.404
 1699SOL    HW1 6936   7.985   5.112  14.480
 1699SOL    HW2 6937   8.040   4.995  14.401
 1700SOL     OW 6938   7.092  10.416   5.090
 1700SOL    HW1 6939   7.110  10.477   5.018
 1700SOL    HW2 6940   7.171  10.420   5.144
 1701SOL     OW 6941   3.847   4.098  10.434
 1701SOL    HW1 6942   3.792   4.021  10.445
 1701SOL    HW2 6943   3.821   4.157  10.505
 1702SOL     OW 6944   6.048   0.509   7.755
 1702SOL    HW1 6945   6.099   0.544   7.682
 1702SOL    HW2 6946   6.018   0.423   7.724
 1703SOL     OW 6947  14.824   9.782   1.576
 1703SOL    HW1 6948  14.829   9.687   1.568
 1703SOL    HW2 6949  14.833   9.799   1.670
 1704SOL     OW 6950   3.659   4.594   1.960
 1704SOL    HW1 6951   3.658   4.537   1.883
 1704SOL    HW2 6952   3.587   4.656   1.945
 1705SOL     OW 6953   2.424   0.355   7.338
 1705SOL    HW1 6954   2.488   0.306   7.287
 1705SOL    HW2 6955   2.339   0.330   7.301
 1706SOL     OW 6956   0.450   8.498  13.455
 1706SOL    HW1 6957   0.422   8.425  13.400
 1706SOL    HW2 6958   0.488   8.560  13.393
 1707SOL     OW 6959   6.028   1.819   8.742
 1707SOL    HW1 6960   5.974   1.858   8.810
 1707SOL    HW2 6961   5.976   1.826   8.662
 1708SOL     OW 6962  11.340   8.706   7.639
 1708SOL    HW1 6963  11.396   8.782   7.656
 1708SOL    HW2 6964  11.335   8.701   7.544
 1709SOL     OW 6965  14.644   5.764   6.718
 1709SOL    HW1 6966  14.689   5.834   6.671
 1709SOL    HW2 6967  14.560   5.802   6.745
 1710SOL     OW 6968   9.950   0.498  14.659
 1710SOL    HW1 6969  10.031   0.500  14.710
 1710SOL    HW2 6970   9.890   0.444  14.710
 1711SOL     OW 6971  11.378  14.727  14.401
 1711SOL    HW1 6972  11.460  14.711  14.355
 1711SOL    HW2 6973  11.363  14.821  14.394
 1712SOL     OW 6974   9.301   0.572  11.227
 1712SOL    HW1 6975   9.210   0.571  11.257
 1712SOL    HW2 6976   9.330   0.662  11.244
 1713SOL     OW 6977   1.926   4.984   2.904
 1713SOL    HW1 6978   1.848   4.929   2.907
 1713SOL    HW2 6979   1.978   4.949   2.832
 1714SOL     OW 6980   2.782   8.909   8.025
 1714SOL    HW1 6981   2.770   8.956   7.943
 1714SOL    HW2 6982   2.694   8.885   8.053
 1715SOL     OW 6983  14.815   9.222  14.718
 1715SOL    HW1 6984  14.844   9.268  14.640
 1715SOL    HW2 6985  14.877   9.249  14.786
 1716SOL     OW 6986  11.702   1.069   7.529
 1716SOL    HW1 6987  11.716   1.141   7.590
 1716SOL    HW2 6988  11.738   0.992   7.573
 1717SOL     OW 6989   1.828   9.137  12.478
 1717SOL    HW1 6990   1.844   9.230  12.493
 1717SOL    HW2 6991   1.875   9.117  12.397
 1718SOL     OW 6992   4.250   9.561   8.360
 1718SOL    HW1 6993   4.220   9.482   8.314
 1718SOL    HW2 6994   4.337   9.538   8.392
 1719SOL     OW 6995   2.003   1.007   7.887
 1719SOL    HW1 6996   2.085   0.960   7.902
 1719SOL    HW2 6997   1.940   0.940   7.861
 1720SOL     OW 6998   4.755  10.703  10.058
 1720SOL    HW1 6999   4.774  10.791  10.092
 1720SOL    HW2 7000   4.665  10.709  10.026
 1721SOL     OW 7001   5.996   1.459   2.500
 1721SOL    HW1 7002   6.003   1.394   2.571
 1721SOL    HW2 7003   5.924   1.427   2.446
 1722SOL     OW 7004  14.123  14.244   3.351
 1722SOL    HW1 7005  14.028  14.240   3.364
 1722SOL    HW2 7006  14.145  14.336   3.364
 1723SOL     OW 7007   7.121   8.784  10.454
 1723SOL    HW1 7008   7.110   8.846  10.526
 1723SOL    HW2 7009   7.141   8.839  10.378
 1724SOL     OW 7010   5.647   9.088   7.267
 1724SOL    HW1 7011   5.670   9.181   7.270
 1724SOL    HW2 7012   5.637   9.063   7.359
 1725SOL     OW 7013  12.273   3.362   7.049
 1725SOL    HW1 7014  12.338   3.391   6.986
 1725SOL    HW2 7015  12.325   3.329   7.123
 1726SOL     OW 7016  12.647   3.692   7.883
 1726SOL    HW1 7017  12.561   3.699   7.841
 1726SOL    HW2 7018  12.634   3.627   7.952
 1727SOL     OW 7019   5.896   3.530  11.718
 1727SOL    HW1 7020   5.918   3.609  11.768
 1727SOL    HW2 7021   5.979   3.505  11.676
 1728SOL     OW 7022   0.747   9.674   6.870
 1728SOL    HW1 7023   0.820   9.732   6.890
 1728SOL    HW2 7024   0.744   9.672   6.774
 1729SOL     OW 7025  14.166  12.112   9.417
 1729SOL    HW1 7026  14.100  12.095   9.350
 1729SOL    HW2 7027  14.132  12.187   9.465
 1730SOL     OW 7028  13.904   8.945  13.744
 1730SOL    HW1 7029  13.889   8.870  13.687
 1730SOL    HW2 7030  13.873   8.916  13.830
 1731SOL     OW 7031   6.885   4.918   3.201
 1731SOL    HW1 7032   6.880   5.003   3.245
 1731SOL    HW2 7033   6.794   4.893   3.185
 1732SOL     OW 7034   1.103  13.956   8.970
 1732SOL    HW1 7035   1.056  14.039   8.969
 1732SOL    HW2 7036   1.177  13.970   9.029
 1733SOL     OW 7037  14.800   8.753   8.370
 1733SOL    HW1 7038  14.763   8.676   8.414
 1733SOL    HW2 7039  14.787   8.736   8.277
 1734SOL     OW 7040   4.607  11.948   1.215
 1734SOL    HW1 7041   4.652  12.032   1.210
 1734SOL    HW2 7042   4.521  11.969   1.253
 1735SOL     OW 7043  11.244   4.597  10.017
 1735SOL    HW1 7044  11.292   4.634  10.091
 1735SOL    HW2 7045  11.160   4.642  10.018
 1736SOL     OW 7046   5.206   7.923   8.282
 1736SOL    HW1 7047   5.220   7.849   8.340
 1736SOL    HW2 7048   5.164   7.886   8.205
 1737SOL     OW 7049   5.154   4.699  12.328
 1737SOL    HW1 7050   5.098   4.629  12.362
 1737SOL    HW2 7051   5.167   4.758  12.403
 1738SOL     OW 7052   9.093  11.220  14.817
 1738SOL    HW1 7053   9.019  11.175  14.777
 1738SOL    HW2 7054   9.128  11.276  14.748
 1739SOL     OW 7055  10.115   4.631  14.507
 1739SOL    HW1 7056  10.151   4.578  14.578
 1739SOL    HW2 7057  10.155   4.717  14.519
 1740SOL     OW 7058   4.048   9.529   6.417
 1740SOL    HW1 7059   4.029   9.478   6.338
 1740SOL    HW2 7060   3.991   9.605   6.411
 1741SOL     OW 7061   2.747   2.234   3.746
 1741SOL    HW1 7062   2.767   2.140   3.740
 1741SOL    HW2 7063   2.763   2.267   3.658
 1742SOL     OW 7064   8.385   0.113  12.598
 1742SOL    HW1 7065   8.348   0.096  12.511
 1742SOL    HW2 7066   8.319   0.167  12.642
 1743SOL     OW 7067  13.166   7.763   9.499
 1743SOL    HW1 7068  13.256   7.796   9.503
 1743SOL    HW2 7069  13.170   7.689   9.439
 1744SOL     OW 7070   7.844   5.683   0.969
 1744SOL    HW1 7071   7.801   5.647   0.892
 1744SOL    HW2 7072   7.807   5.632   1.042
 1745SOL     OW 7073   5.894  14.020  14.878
 1745SOL    HW1 7074   5.856  14.077   0.066
 1745SOL    HW2 7075   5.964  13.973   0.044
 1746SOL     OW 7076  13.074   1.302  13.185
 1746SOL    HW1 7077  13.164   1.280  13.208
 1746SOL    HW2 7078  13.075   1.311  13.089
 1747SOL     OW 7079  13.241  13.985  13.595
 1747SOL    HW1 7080  13.289  14.024  13.667
 1747SOL    HW2 7081  13.149  14.007  13.612
 1748SOL     OW 7082   8.157  11.660  14.242
 1748SOL    HW1 7083   8.179  11.687  14.153
 1748SOL    HW2 7084   8.159  11.565  14.240
 1749SOL     OW 7085   0.594   3.436   5.679
 1749SOL    HW1 7086   0.641   3.365   5.721
 1749SOL    HW2 7087   0.552   3.396   5.603
 1750SOL     OW 7088   2.296  10.842  13.266
 1750SOL    HW1 7089   2.230  10.905  13.295
 1750SOL    HW2 7090   2.327  10.876  13.182
 1751SOL     OW 7091   6.851   7.280   1.517
 1751SOL    HW1 7092   6.803   7.199   1.530
 1751SOL    HW2 7093   6.935   7.265   1.559
 1752SOL     OW 7094   7.299   0.996  12.838
 1752SOL    HW1 7095   7.320   0.958  12.752
 1752SOL    HW2 7096   7.329   0.930  12.901
 1753SOL     OW 7097   8.998  12.836  10.175
 1753SOL    HW1 7098   9.081  12.795  10.147
 1753SOL    HW2 7099   9.024  12.899  10.242
 1754SOL     OW 7100   2.492   3.656  10.962
 1754SOL    HW1 7101   2.510   3.597  10.889
 1754SOL    HW2 7102   2.522   3.608  11.040
 1755SOL     OW 7103   2.351   3.746   7.032
 1755SOL    HW1 7104   2.286   3.791   6.979
 1755SOL    HW2 7105   2.364   3.662   6.988
 1756SOL     OW 7106  12.706  12.780  13.155
 1756SOL    HW1 7107  12.698  12.714  13.086
 1756SOL    HW2 7108  12.664  12.741  13.231
 1757SOL     OW 7109   5.655   4.560  12.285
 1757SOL    HW1 7110   5.651   4.576  12.380
 1757SOL    HW2 7111   5.715   4.627  12.252
 1758SOL     OW 7112  11.877   2.390  10.279
 1758SOL    HW1 7113  11.853   2.342  10.358
 1758SOL    HW2 7114  11.813   2.361  10.213
 1759SOL     OW 7115   3.212   0.585  12.955
 1759SOL    HW1 7116   3.265   0.560  13.031
 1759SOL    HW2 7117   3.268   0.646  12.906
 1760SOL     OW 7118   9.305  11.608   3.371
 1760SOL    HW1 7119   9.346  11.525   3.346
 1760SOL    HW2 7120   9.357  11.675   3.327
 1761SOL     OW 7121   1.576   8.907   6.688
 1761SOL    HW1 7122   1.594   8.967   6.615
 1761SOL    HW2 7123   1.556   8.965   6.761
 1762SOL     OW 7124  10.095   3.505   6.740
 1762SOL    HW1 7125  10.089   3.500   6.836
 1762SOL    HW2 7126  10.035   3.575   6.716
 1763SOL     OW 7127   7.825   4.592  12.665
 1763SOL    HW1 7128   7.794   4.663  12.608
 1763SOL    HW2 7129   7.744   4.551  12.697
 1764SOL     OW 7130  10.862  14.344   6.963
 1764SOL    HW1 7131  10.941  14.290   6.966
 1764SOL    HW2 7132  10.873  14.399   6.886
 1765SOL     OW 7133  10.875   6.997   5.197
 1765SOL    HW1 7134  10.853   6.933   5.128
 1765SOL    HW2 7135  10.843   7.080   5.163
 1766SOL     OW 7136  10.421   0.520   9.786
 1766SOL    HW1 7137  10.403   0.613   9.800
 1766SOL    HW2 7138  10.512   0.518   9.754
 1767SOL     OW 7139   5.700  11.593   7.905
 1767SOL    HW1 7140   5.695  11.530   7.833
 1767SOL    HW2 7141   5.633  11.564   7.967
 1768SOL     OW 7142  13.676   0.045  11.475
 1768SOL    HW1 7143  13.769   0.059  11.460
 1768SOL    HW2 7144  13.669  14.833  11.503
 1769SOL     OW 7145   3.767   3.867   3.670
 1769SOL    HW1 7146   3.860   3.846   3.677
 1769SOL    HW2 7147   3.739   3.883   3.760
 1770SOL     OW 7148   8.601   6.481   6.428
 1770SOL    HW1 7149   8.656   6.508   6.502
 1770SOL    HW2 7150   8.647   6.516   6.351
 1771SOL     OW 7151   1.232   8.832  10.627
 1771SOL    HW1 7152   1.306   8.837  10.566
 1771SOL    HW2 7153   1.156   8.813  10.572
 1772SOL     OW 7154   6.552   4.611  10.134
 1772SOL    HW1 7155   6.597   4.662  10.066
 1772SOL    HW2 7156   6.579   4.652  10.216
 1773SOL     OW 7157   9.223   0.221   8.926
 1773SOL    HW1 7158   9.134   0.221   8.963
 1773SOL    HW2 7159   9.253   0.311   8.935
 1774SOL     OW 7160   4.032   4.915   2.465
 1774SOL    HW1 7161   4.061   4.827   2.487
 1774SOL    HW2 7162   3.959   4.903   2.405
 1775SOL     OW 7163   2.641   5.891   7.029
 1775SOL    HW1 7164   2.567   5.871   7.087
 1775SOL    HW2 7165   2.678   5.972   7.063
 1776SOL     OW 7166  13.745   8.615   9.347
 1776SOL    HW1 7167  13.786   8.558   9.411
 1776SOL    HW2 7168  13.773   8.703   9.372
 1777SOL     OW 7169   0.557   9.037   1.194
 1777SOL    HW1 7170   0.638   9.056   1.148
 1777SOL    HW2 7171   0.488   9.064   1.134
 1778SOL     OW 7172  10.794   3.135  11.934
 1778SOL    HW1 7173  10.769   3.108  12.023
 1778SOL    HW2 7174  10.750   3.072  11.877
 1779SOL     OW 7175  12.473   7.153  10.218
 1779SOL    HW1 7176  12.470   7.109  10.133
 1779SOL    HW2 7177  12.382   7.151  10.249
 1780SOL     OW 7178   3.843  11.850   7.103
 1780SOL    HW1 7179   3.829  11.767   7.056
 1780SOL    HW2 7180   3.894  11.903   7.042
 1781SOL     OW 7181   1.157  11.093   7.794
 1781SOL    HW1 7182   1.108  11.130   7.720
 1781SOL    HW2 7183   1.205  11.019   7.756
 1782SOL     OW 7184   6.935   3.106  11.629
 1782SOL    HW1 7185   6.985   3.084  11.551
 1782SOL    HW2 7186   6.851   3.064  11.617
 1783SOL     OW 7187  10.561   7.843  11.670
 1783SOL    HW1 7188  10.478   7.831  11.715
 1783SOL    HW2 7189  10.540   7.897  11.594
 1784SOL     OW 7190  13.970   5.365   5.603
 1784SOL    HW1 7191  13.900   5.366   5.537
 1784SOL    HW2 7192  14.051   5.361   5.552
 1785SOL     OW 7193   2.840   4.419   5.590
 1785SOL    HW1 7194   2.791   4.419   5.673
 1785SOL    HW2 7195   2.786   4.471   5.531
 1786SOL     OW 7196   1.755   7.156  14.632
 1786SOL    HW1 7197   1.842   7.118  14.633
 1786SOL    HW2 7198   1.767   7.244  14.595
 1787SOL     OW 7199  14.251   0.131   2.581
 1787SOL    HW1 7200  14.204   0.111   2.662
 1787SOL    HW2 7201  14.289   0.218   2.596
 1788SOL     OW 7202   3.492  10.443   3.191
 1788SOL    HW1 7203   3.436  10.514   3.224
 1788SOL    HW2 7204   3.466  10.366   3.242
 1789SOL     OW 7205   2.054   4.953  14.451
 1789SOL    HW1 7206   2.085   4.967  14.361
 1789SOL    HW2 7207   2.074   4.861  14.469
 1790SOL     OW 7208  10.941  10.702  12.628
 1790SOL    HW1 7209  10.848  10.682  12.624
 1790SOL    HW2 7210  10.961  10.707  12.722
 1791SOL     OW 7211   5.804  11.804   4.035
 1791SOL    HW1 7212   5.871  11.764   3.980
 1791SOL    HW2 7213   5.727  11.749   4.022
 1792SOL     OW 7214   8.358   3.736  11.983
 1792SOL    HW1 7215   8.337   3.817  12.029
 1792SOL    HW2 7216   8.422   3.762  11.916
 1793SOL     OW 7217   5.544   7.569  10.303
 1793SOL    HW1 7218   5.550   7.477  10.328
 1793SOL    HW2 7219   5.633   7.592  10.275
 1794SOL     OW 7220   1.569  11.777   4.479
 1794SOL    HW1 7221   1.486  11.793   4.433
 1794SOL    HW2 7222   1.613  11.710   4.426
 1795SOL     OW 7223   0.393  14.764   4.743
 1795SOL    HW1 7224   0.483  14.734   4.751
 1795SOL    HW2 7225   0.357  14.758   4.831
 1796SOL     OW 7226   8.330   0.438   7.978
 1796SOL    HW1 7227   8.279   0.449   8.058
 1796SOL    HW2 7228   8.391   0.367   7.997
 1797SOL     OW 7229  11.124   9.217  12.615
 1797SOL    HW1 7230  11.147   9.234  12.524
 1797SOL    HW2 7231  11.178   9.278  12.665
 1798SOL     OW 7232   7.933  13.732   4.004
 1798SOL    HW1 7233   8.007  13.673   4.014
 1798SOL    HW2 7234   7.889  13.703   3.925
 1799SOL     OW 7235   8.306   9.177   0.885
 1799SOL    HW1 7236   8.332   9.179   0.792
 1799SOL    HW2 7237   8.309   9.085   0.909
 1800SOL     OW 7238  13.411  12.138   2.655
 1800SOL    HW1 7239  13.466  12.062   2.638
 1800SOL    HW2 7240  13.358  12.148   2.575
 1801SOL     OW 7241   8.979   3.150  14.408
 1801SOL    HW1 7242   8.981   3.079  14.343
 1801SOL    HW2 7243   8.953   3.227  14.358
 1802SOL     OW 7244  10.435   5.772   3.324
 1802SOL    HW1 7245  10.461   5.690   3.365
 1802SOL    HW2 7246  10.356   5.749   3.274
 1803SOL     OW 7247   5.439   8.998   5.709
 1803SOL    HW1 7248   5.459   9.091   5.701
 1803SOL    HW2 7249   5.472   8.960   5.627
 1804SOL     OW 7250  11.077   2.928   9.937
 1804SOL    HW1 7251  11.167   2.897   9.936
 1804SOL    HW2 7252  11.078   3.007   9.992
 1805SOL     OW 7253   7.617  11.743   6.825
 1805SOL    HW1 7254   7.580  11.832   6.820
 1805SOL    HW2 7255   7.541  11.685   6.822
 1806SOL     OW 7256   7.347   5.130   5.926
 1806SOL    HW1 7257   7.329   5.215   5.965
 1806SOL    HW2 7258   7.307   5.067   5.987
 1807SOL     OW 7259   3.686   9.854   6.558
 1807SOL    HW1 7260   3.618   9.787   6.563
 1807SOL    HW2 7261   3.647   9.924   6.505
 1808SOL     OW 7262   3.027   1.405  12.328
 1808SOL    HW1 7263   3.118   1.417  12.355
 1808SOL    HW2 7264   2.976   1.420  12.407
 1809SOL     OW 7265   5.421  11.531   0.408
 1809SOL    HW1 7266   5.339  11.580   0.400
 1809SOL    HW2 7267   5.477  11.568   0.339
 1810SOL     OW 7268  10.800   5.233   3.951
 1810SOL    HW1 7269  10.765   5.315   3.986
 1810SOL    HW2 7270  10.805   5.249   3.856
 1811SOL     OW 7271  10.488  13.612   5.920
 1811SOL    HW1 7272  10.407  13.562   5.937
 1811SOL    HW2 7273  10.492  13.675   5.992
 1812SOL     OW 7274  12.930   6.421   2.114
 1812SOL    HW1 7275  12.939   6.507   2.072
 1812SOL    HW2 7276  12.940   6.439   2.207
 1813SOL     OW 7277   9.261   0.593   8.461
 1813SOL    HW1 7278   9.350   0.566   8.442
 1813SOL    HW2 7279   9.206   0.536   8.407
 1814SOL     OW 7280  12.746   2.376  13.336
 1814SOL    HW1 7281  12.652   2.379  13.322
 1814SOL    HW2 7282  12.758   2.404  13.426
 1815SOL     OW 7283   2.997   0.231  10.563
 1815SOL    HW1 7284   2.983   0.325  10.568
 1815SOL    HW2 7285   3.049   0.218  10.483
 1816SOL     OW 7286   8.369   5.265   0.590
 1816SOL    HW1 7287   8.413   5.199   0.645
 1816SOL    HW2 7288   8.309   5.309   0.650
 1817SOL     OW 7289  14.777   6.995  10.392
 1817SOL    HW1 7290  14.828   7.045  10.328
 1817SOL    HW2 7291  14.831   6.918  10.410
 1818SOL     OW 7292   0.033   2.522  13.611
 1818SOL    HW1 7293  14.857   2.481  13.677
 1818SOL    HW2 7294   0.096   2.574  13.660
 1819SOL     OW 7295  12.946  10.490   3.427
 1819SOL    HW1 7296  12.878  10.443   3.379
 1819SOL    HW2 7297  12.904  10.572   3.453
 1820SOL     OW 7298   8.126   2.167   9.912
 1820SOL    HW1 7299   8.112   2.241   9.853
 1820SOL    HW2 7300   8.189   2.112   9.866
 1821SOL     OW 7301   1.892   0.847   0.717
 1821SOL    HW1 7302   1.947   0.847   0.639
 1821SOL    HW2 7303   1.803   0.861   0.684
 1822SOL     OW 7304   2.350  10.846   4.263
 1822SOL    HW1 7305   2.306  10.785   4.323
 1822SOL    HW2 7306   2.288  10.918   4.252
 1823SOL     OW 7307  11.690   9.951   6.237
 1823SOL    HW1 7308  11.678   9.970   6.330
 1823SOL    HW2 7309  11.646  10.023   6.192
 1824SOL     OW 7310  13.244   4.615   4.372
 1824SOL    HW1 7311  13.281   4.633   4.459
 1824SOL    HW2 7312  13.220   4.523   4.376
 1825SOL     OW 7313  13.932   0.912  12.792
 1825SOL    HW1 7314  13.895   0.946  12.874
 1825SOL    HW2 7315  13.990   0.841  12.819
 1826SOL     OW 7316  14.410   4.249  14.614
 1826SOL    HW1 7317  14.382   4.173  14.563
 1826SOL    HW2 7318  14.371   4.237  14.700
 1827SOL     OW 7319   4.860  13.134   9.597
 1827SOL    HW1 7320   4.817  13.099   9.675
 1827SOL    HW2 7321   4.953  13.130   9.616
 1828SOL     OW 7322   3.501  10.086   6.116
 1828SOL    HW1 7323   3.465  10.173   6.137
 1828SOL    HW2 7324   3.424  10.029   6.112
 1829SOL     OW 7325   8.591  14.673   6.863
 1829SOL    HW1 7326   8.563  14.765   6.860
 1829SOL    HW2 7327   8.652  14.664   6.789
 1830SOL     OW 7328  14.765   8.867   7.251
 1830SOL    HW1 7329  14.809   8.890   7.169
 1830SOL    HW2 7330  14.824   8.804   7.293
 1831SOL     OW 7331   6.508   6.322   6.320
 1831SOL    HW1 7332   6.518   6.388   6.388
 1831SOL    HW2 7333   6.423   6.282   6.338
 1832SOL     OW 7334   5.956   5.530   6.791
 1832SOL    HW1 7335   5.875   5.488   6.821
 1832SOL    HW2 7336   6.012   5.457   6.765
 1833SOL     OW 7337   0.735   8.226   7.690
 1833SOL    HW1 7338   0.775   8.260   7.610
 1833SOL    HW2 7339   0.705   8.303   7.738
 1834SOL     OW 7340   3.224   3.106   8.059
 1834SOL    HW1 7341   3.285   3.109   8.133
 1834SOL    HW2 7342   3.141   3.138   8.095
 1835SOL     OW 7343   3.866  14.351   7.834
 1835SOL    HW1 7344   3.930  14.421   7.845
 1835SOL    HW2 7345   3.854  14.315   7.922
 1836SOL     OW 7346   5.107  14.372   6.456
 1836SOL    HW1 7347   5.080  14.287   6.492
 1836SOL    HW2 7348   5.143  14.351   6.370
 1837SOL     OW 7349   6.850  14.832   8.667
 1837SOL    HW1 7350   6.919  14.780   8.708
 1837SOL    HW2 7351   6.824   0.016   8.735
 1838SOL     OW 7352   5.776  14.313   5.551
 1838SOL    HW1 7353   5.733  14.334   5.468
 1838SOL    HW2 7354   5.744  14.226   5.573
 1839SOL     OW 7355   6.689   3.794   7.061
 1839SOL    HW1 7356   6.686   3.815   7.155
 1839SOL    HW2 7357   6.630   3.719   7.052
 1840SOL     OW 7358   6.469   7.052   0.666
 1840SOL    HW1 7359   6.471   7.104   0.586
 1840SOL    HW2 7360   6.376   7.034   0.680
 1841SOL     OW 7361  11.745   8.215   2.963
 1841SOL    HW1 7362  11.733   8.229   3.057
 1841SOL    HW2 7363  11.829   8.256   2.944
 1842SOL     OW 7364   8.978   1.766  13.897
 1842SOL    HW1 7365   8.933   1.835  13.945
 1842SOL    HW2 7366   9.050   1.740  13.955
 1843SOL     OW 7367  13.701  13.800  14.667
 1843SOL    HW1 7368  13.775  13.746  14.639
 1843SOL    HW2 7369  13.740  13.884  14.693
 1844SOL     OW 7370   7.371   3.647   3.093
 1844SOL    HW1 7371   7.440   3.702   3.130
 1844SOL    HW2 7372   7.290   3.685   3.125
 1845SOL     OW 7373   5.392   2.832  12.764
 1845SOL    HW1 7374   5.379   2.915  12.811
 1845SOL    HW2 7375   5.351   2.766  12.820
 1846SOL     OW 7376   7.668   0.983   2.334
 1846SOL    HW1 7377   7.603   1.031   2.284
 1846SOL    HW2 7378   7.644   0.891   2.324
 1847SOL     OW 7379   3.866   4.996  13.089
 1847SOL    HW1 7380   3.831   5.039  13.167
 1847SOL    HW2 7381   3.880   5.068  13.027
 1848SOL     OW 7382   8.862   8.445   2.200
 1848SOL    HW1 7383   8.871   8.389   2.277
 1848SOL    HW2 7384   8.806   8.517   2.230
 1849SOL     OW 7385   4.009  14.371   1.368
 1849SOL    HW1 7386   4.005  14.360   1.463
 1849SOL    HW2 7387   4.092  14.331   1.342
 1850SOL     OW 7388   3.431   1.479   3.609
 1850SOL    HW1 7389   3.395   1.557   3.566
 1850SOL    HW2 7390   3.525   1.497   3.615
 1851SOL     OW 7391  10.395   3.985   0.723
 1851SOL    HW1 7392  10.406   3.896   0.756
 1851SOL    HW2 7393  10.352   3.974   0.638
 1852SOL     OW 7394  10.048   8.350  12.968
 1852SOL    HW1 7395  10.057   8.402  13.047
 1852SOL    HW2 7396  10.133   8.357  12.924
 1853SOL     OW 7397   7.447   4.025   9.157
 1853SOL    HW1 7398   7.469   3.998   9.068
 1853SOL    HW2 7399   7.475   4.116   9.162
 1854SOL     OW 7400   1.197  12.774   0.485
 1854SOL    HW1 7401   1.184  12.769   0.580
 1854SOL    HW2 7402   1.170  12.863   0.463
 1855SOL     OW 7403   7.933   6.009  10.621
 1855SOL    HW1 7404   7.959   5.920  10.597
 1855SOL    HW2 7405   7.839   6.012  10.603
 1856SOL     OW 7406   0.752  12.882  13.660
 1856SOL    HW1 7407   0.740  12.883  13.755
 1856SOL    HW2 7408   0.798  12.964  13.641
 1857SOL     OW 7409  14.627  11.554   2.423
 1857SOL    HW1 7410  14.585  11.472   2.446
 1857SOL    HW2 7411  14.712  11.528   2.385
 1858SOL     OW 7412   7.411   5.283   9.749
 1858SOL    HW1 7413   7.451   5.216   9.693
 1858SOL    HW2 7414   7.446   5.366   9.717
 1859SOL     OW 7415   2.808   4.568   8.351
 1859SOL    HW1 7416   2.859   4.497   8.391
 1859SOL    HW2 7417   2.786   4.626   8.424
 1860SOL     OW 7418  12.686   4.626   5.942
 1860SOL    HW1 7419  12.760   4.685   5.948
 1860SOL    HW2 7420  12.623   4.672   5.887
 1861SOL     OW 7421   1.358   1.414   4.460
 1861SOL    HW1 7422   1.325   1.475   4.394
 1861SOL    HW2 7423   1.433   1.458   4.498
 1862SOL     OW 7424  10.713   4.112   4.977
 1862SOL    HW1 7425  10.650   4.069   4.919
 1862SOL    HW2 7426  10.689   4.205   4.974
 1863SOL     OW 7427  14.143   3.419   1.756
 1863SOL    HW1 7428  14.177   3.500   1.717
 1863SOL    HW2 7429  14.193   3.408   1.836
 1864SOL     OW 7430   0.165   6.312  10.836
 1864SOL    HW1 7431   0.107   6.240  10.862
 1864SOL    HW2 7432   0.219   6.329  10.913
 1865SOL     OW 7433   2.600   6.237  14.586
 1865SOL    HW1 7434   2.566   6.155  14.552
 1865SOL    HW2 7435   2.536   6.303  14.560
 1866SOL     OW 7436   2.798   1.688   1.840
 1866SOL    HW1 7437   2.796   1.680   1.935
 1866SOL    HW2 7438   2.878   1.642   1.814
 1867SOL     OW 7439  14.221  10.279   2.514
 1867SOL    HW1 7440  14.127  10.268   2.501
 1867SOL    HW2 7441  14.230  10.367   2.551
 1868SOL     OW 7442  11.374   2.535   1.421
 1868SOL    HW1 7443  11.350   2.584   1.500
 1868SOL    HW2 7444  11.395   2.603   1.356
 1869SOL     OW 7445  10.441  14.861   4.014
 1869SOL    HW1 7446  10.452  14.771   3.985
 1869SOL    HW2 7447  10.420   0.030   3.935
 1870SOL     OW 7448   4.933   5.936  11.171
 1870SOL    HW1 7449   4.995   5.926  11.099
 1870SOL    HW2 7450   4.898   6.025  11.160
 1871SOL     OW 7451   2.992  11.491   3.636
 1871SOL    HW1 7452   2.975  11.406   3.595
 1871SOL    HW2 7453   2.905  11.527   3.654
 1872SOL     OW 7454   2.919   6.496   4.878
 1872SOL    HW1 7455   3.011   6.492   4.906
 1872SOL    HW2 7456   2.917   6.564   4.811
 1873SOL     OW 7457   9.240   0.515  10.924
 1873SOL    HW1 7458   9.277   0.514  10.836
 1873SOL    HW2 7459   9.251   0.425  10.956
 1874SOL     OW 7460  10.490  10.416  10.726
 1874SOL    HW1 7461  10.468  10.336  10.678
 1874SOL    HW2 7462  10.420  10.477  10.704
 1875SOL     OW 7463  12.759   8.643  12.621
 1875SOL    HW1 7464  12.745   8.734  12.593
 1875SOL    HW2 7465  12.792   8.599  12.542
 1876SOL     OW 7466   7.438   6.575  12.746
 1876SOL    HW1 7467   7.376   6.578  12.819
 1876SOL    HW2 7468   7.440   6.484  12.719
 1877SOL     OW 7469   1.187   6.679  12.293
 1877SOL    HW1 7470   1.273   6.721  12.303
 1877SOL    HW2 7471   1.155   6.710  12.209
 1878SOL     OW 7472   8.396   2.933  10.175
 1878SOL    HW1 7473   8.490   2.914  10.168
 1878SOL    HW2 7474   8.356   2.846  10.184
 1879SOL     OW 7475   6.792  10.982  13.351
 1879SOL    HW1 7476   6.821  11.051  13.290
 1879SOL    HW2 7477   6.754  10.915  13.295
 1880SOL     OW 7478  14.254  11.833   5.937
 1880SOL    HW1 7479  14.181  11.773   5.926
 1880SOL    HW2 7480  14.284  11.851   5.848
 1881SOL     OW 7481   2.007   4.034   8.877
 1881SOL    HW1 7482   1.941   3.967   8.860
 1881SOL    HW2 7483   2.089   3.986   8.890
 1882SOL     OW 7484  12.687  11.966  11.042
 1882SOL    HW1 7485  12.680  11.871  11.056
 1882SOL    HW2 7486  12.651  12.004  11.122
 1883SOL     OW 7487  14.415   0.596   1.441
 1883SOL    HW1 7488  14.459   0.653   1.378
 1883SOL    HW2 7489  14.485   0.539   1.474
 1884SOL     OW 7490   5.401   4.877  13.681
 1884SOL    HW1 7491   5.495   4.897  13.679
 1884SOL    HW2 7492   5.377   4.867  13.589
 1885SOL     OW 7493   9.482   5.962   3.560
 1885SOL    HW1 7494   9.388   5.946   3.564
 1885SOL    HW2 7495   9.489   6.057   3.547
 1886SOL     OW 7496   0.686  11.866   4.505
 1886SOL    HW1 7497   0.720  11.883   4.593
 1886SOL    HW2 7498   0.606  11.816   4.519
 1887SOL     OW 7499  14.183   4.235  10.603
 1887SOL    HW1 7500  14.199   4.144  10.629
 1887SOL    HW2 7501  14.215   4.240  10.513
 1888SOL     OW 7502   5.327   8.973   0.976
 1888SOL    HW1 7503   5.286   8.954   0.891
 1888SOL    HW2 7504   5.345   8.887   1.014
 1889SOL     OW 7505  11.935   5.434  10.529
 1889SOL    HW1 7506  11.979   5.496  10.588
 1889SOL    HW2 7507  11.862   5.399  10.580
 1890SOL     OW 7508   6.694   5.427  12.779
 1890SOL    HW1 7509   6.637   5.422  12.856
 1890SOL    HW2 7510   6.692   5.338  12.742
 1891SOL     OW 7511   9.134   7.362   5.638
 1891SOL    HW1 7512   9.224   7.387   5.620
 1891SOL    HW2 7513   9.081   7.423   5.587
 1892SOL     OW 7514   6.239  10.228   4.508
 1892SOL    HW1 7515   6.324  10.267   4.529
 1892SOL    HW2 7516   6.254  10.133   4.513
 1893SOL     OW 7517  13.600  14.454  11.064
 1893SOL    HW1 7518  13.556  14.489  10.987
 1893SOL    HW2 7519  13.559  14.369  11.078
 1894SOL     OW 7520   3.827   3.405  10.590
 1894SOL    HW1 7521   3.774   3.357  10.655
 1894SOL    HW2 7522   3.873   3.471  10.641
 1895SOL     OW 7523   3.588   6.953   3.154
 1895SOL    HW1 7524   3.566   6.989   3.240
 1895SOL    HW2 7525   3.684   6.946   3.155
 1896SOL     OW 7526   2.107   1.277  12.887
 1896SOL    HW1 7527   2.142   1.304  12.972
 1896SOL    HW2 7528   2.055   1.351  12.857
 1897SOL     OW 7529   4.880   2.306  12.673
 1897SOL    HW1 7530   4.911   2.215  12.665
 1897SOL    HW2 7531   4.799   2.308  12.621
 1898SOL     OW 7532  11.150   9.637  12.181
 1898SOL    HW1 7533  11.085   9.568  12.197
 1898SOL    HW2 7534  11.218   9.621  12.246
 1899SOL     OW 7535  11.608  10.161  11.011
 1899SOL    HW1 7536  11.660  10.237  11.037
 1899SOL    HW2 7537  11.670  10.101  10.970
 1900SOL     OW 7538   8.077   8.995   7.315
 1900SOL    HW1 7539   8.057   9.039   7.232
 1900SOL    HW2 7540   8.022   8.917   7.315
 1901SOL     OW 7541  11.431  14.673   8.951
 1901SOL    HW1 7542  11.437  14.609   8.880
 1901SOL    HW2 7543  11.363  14.734   8.923
 1902SOL     OW 7544  10.859  13.389   1.899
 1902SOL    HW1 7545  10.783  13.364   1.848
 1902SOL    HW2 7546  10.823  13.437   1.974
 1903SOL     OW 7547   1.970   6.674   5.577
 1903SOL    HW1 7548   2.056   6.653   5.613
 1903SOL    HW2 7549   1.982   6.673   5.482
 1904SOL     OW 7550   1.764  11.013   4.843
 1904SOL    HW1 7551   1.694  11.073   4.867
 1904SOL    HW2 7552   1.841  11.045   4.889
 1905SOL     OW 7553  14.551   0.415   1.987
 1905SOL    HW1 7554  14.509   0.464   2.058
 1905SOL    HW2 7555  14.613   0.476   1.949
 1906SOL     OW 7556   2.099   7.906   9.410
 1906SOL    HW1 7557   2.003   7.911   9.416
 1906SOL    HW2 7558   2.128   7.904   9.501
 1907SOL     OW 7559  12.384  12.874  11.121
 1907SOL    HW1 7560  12.415  12.861  11.211
 1907SOL    HW2 7561  12.309  12.815  11.113
 1908SOL     OW 7562   8.148  12.051  13.725
 1908SOL    HW1 7563   8.194  12.023  13.646
 1908SOL    HW2 7564   8.120  12.141  13.705
 1909SOL     OW 7565   2.467   3.800   8.315
 1909SOL    HW1 7566   2.388   3.758   8.281
 1909SOL    HW2 7567   2.473   3.769   8.405
 1910SOL     OW 7568   2.568  10.371   9.991
 1910SOL    HW1 7569   2.531  10.416  10.067
 1910SOL    HW2 7570   2.515  10.402   9.918
 1911SOL     OW 7571  12.183   8.745   8.499
 1911SOL    HW1 7572  12.214   8.823   8.544
 1911SOL    HW2 7573  12.228   8.745   8.415
 1912SOL     OW 7574   5.833  13.913  12.527
 1912SOL    HW1 7575   5.840  14.005  12.504
 1912SOL    HW2 7576   5.806  13.870  12.446
 1913SOL     OW 7577   3.882   2.834   1.316
 1913SOL    HW1 7578   3.894   2.920   1.277
 1913SOL    HW2 7579   3.958   2.783   1.287
 1914SOL     OW 7580  10.339  10.886   7.245
 1914SOL    HW1 7581  10.425  10.858   7.275
 1914SOL    HW2 7582  10.335  10.979   7.268
 1915SOL     OW 7583   7.569   5.894   8.915
 1915SOL    HW1 7584   7.566   5.972   8.860
 1915SOL    HW2 7585   7.477   5.870   8.927
 1916SOL     OW 7586   8.771  14.092   0.594
 1916SOL    HW1 7587   8.831  14.067   0.524
 1916SOL    HW2 7588   8.720  14.164   0.558
 1917SOL     OW 7589   8.692   8.292  10.422
 1917SOL    HW1 7590   8.644   8.347  10.484
 1917SOL    HW2 7591   8.772   8.342  10.402
 1918SOL     OW 7592   9.821  13.564   6.363
 1918SOL    HW1 7593   9.796  13.473   6.376
 1918SOL    HW2 7594   9.907  13.560   6.321
 1919SOL     OW 7595   6.274   1.921  12.324
 1919SOL    HW1 7596   6.363   1.952  12.335
 1919SOL    HW2 7597   6.277   1.828  12.346
 1920SOL     OW 7598   4.826   9.750  14.290
 1920SOL    HW1 7599   4.752   9.690  14.277
 1920SOL    HW2 7600   4.875   9.712  14.363
 1921SOL     OW 7601   9.804   4.140  14.787
 1921SOL    HW1 7602   9.868   4.163  14.855
 1921SOL    HW2 7603   9.752   4.220  14.776
 1922SOL     OW 7604   2.087  10.293   9.946
 1922SOL    HW1 7605   2.100  10.379   9.988
 1922SOL    HW2 7606   2.123  10.230  10.009
 1923SOL     OW 7607   9.861  11.606   8.997
 1923SOL    HW1 7608   9.942  11.594   9.048
 1923SOL    HW2 7609   9.885  11.581   8.908
 1924SOL     OW 7610   3.401   0.750   6.799
 1924SOL    HW1 7611   3.424   0.776   6.888
 1924SOL    HW2 7612   3.306   0.742   6.800
 1925SOL     OW 7613   2.083   8.919   1.275
 1925SOL    HW1 7614   2.086   9.004   1.232
 1925SOL    HW2 7615   2.135   8.931   1.355
 1926SOL     OW 7616   8.354  11.342  13.972
 1926SOL    HW1 7617   8.308  11.264  13.939
 1926SOL    HW2 7618   8.288  11.387  14.025
 1927SOL     OW 7619   4.825  14.437   0.556
 1927SOL    HW1 7620   4.768  14.477   0.622
 1927SOL    HW2 7621   4.768  14.379   0.506
 1928SOL     OW 7622  14.793   1.656   5.870
 1928SOL    HW1 7623   0.002   1.691   5.877
 1928SOL    HW2 7624  14.763   1.684   5.783
 1929SOL     OW 7625   0.481  13.327  12.603
 1929SOL    HW1 7626   0.477  13.359  12.513
 1929SOL    HW2 7627   0.426  13.386  12.653
 1930SOL     OW 7628   1.663   4.074   7.519
 1930SOL    HW1 7629   1.640   4.089   7.611
 1930SOL    HW2 7630   1.693   4.159   7.487
 1931SOL     OW 7631   4.353   3.497  11.490
 1931SOL    HW1 7632   4.394   3.550  11.559
 1931SOL    HW2 7633   4.336   3.559  11.419
 1932SOL     OW 7634   8.794   2.698   2.774
 1932SOL    HW1 7635   8.887   2.697   2.799
 1932SOL    HW2 7636   8.766   2.788   2.793
 1933SOL     OW 7637   0.069  13.574   7.038
 1933SOL    HW1 7638   0.158  13.542   7.053
 1933SOL    HW2 7639   0.038  13.599   7.126
 1934SOL     OW 7640   2.250   7.048   6.041
 1934SOL    HW1 7641   2.306   7.093   5.977
 1934SOL    HW2 7642   2.232   7.115   6.107
 1935SOL     OW 7643  12.327   4.018   3.061
 1935SOL    HW1 7644  12.268   3.948   3.090
 1935SOL    HW2 7645  12.292   4.047   2.977
 1936SOL     OW 7646  12.298   8.379   2.370
 1936SOL    HW1 7647  12.315   8.406   2.280
 1936SOL    HW2 7648  12.381   8.397   2.416
 1937SOL     OW 7649   2.512  11.999  10.251
 1937SOL    HW1 7650   2.427  11.963  10.274
 1937SOL    HW2 7651   2.493  12.087  10.217
 1938SOL     OW 7652  11.664  13.594   8.756
 1938SOL    HW1 7653  11.701  13.668   8.804
 1938SOL    HW2 7654  11.678  13.519   8.813
 1939SOL     OW 7655   4.280   0.824   5.452
 1939SOL    HW1 7656   4.216   0.878   5.406
 1939SOL    HW2 7657   4.361   0.836   5.402
 1940SOL     OW 7658  10.701   4.611  12.072
 1940SOL    HW1 7659  10.667   4.544  12.012
 1940SOL    HW2 7660  10.664   4.693  12.039
 1941SOL     OW 7661   6.378  14.034   6.500
 1941SOL    HW1 7662   6.464  14.026   6.460
 1941SOL    HW2 7663   6.347  14.121   6.474
 1942SOL     OW 7664   6.827   7.505  13.295
 1942SOL    HW1 7665   6.885   7.530  13.367
 1942SOL    HW2 7666   6.768   7.440  13.334
 1943SOL     OW 7667  14.020  10.194   7.782
 1943SOL    HW1 7668  14.091  10.255   7.765
 1943SOL    HW2 7669  14.027  10.173   7.875
 1944SOL     OW 7670   1.329   3.806  13.971
 1944SOL    HW1 7671   1.415   3.765  13.969
 1944SOL    HW2 7672   1.268   3.733  13.980
 1945SOL     OW 7673   1.495   0.374   0.017
 1945SOL    HW1 7674   1.469   0.402   0.105
 1945SOL    HW2 7675   1.523   0.283   0.027
 1946SOL     OW 7676   7.307   4.626  11.199
 1946SOL    HW1 7677   7.216   4.605  11.177
 1946SOL    HW2 7678   7.328   4.566  11.271
 1947SOL     OW 7679   4.643   4.941  14.869
 1947SOL    HW1 7680   4.604   4.864   0.031
 1947SOL    HW2 7681   4.694   4.982   0.059
 1948SOL     OW 7682   1.621  11.747  14.084
 1948SOL    HW1 7683   1.707  11.708  14.096
 1948SOL    HW2 7684   1.625  11.789  13.998
 1949SOL     OW 7685   7.892   1.957   4.976
 1949SOL    HW1 7686   7.959   2.014   5.013
 1949SOL    HW2 7687   7.922   1.938   4.887
 1950SOL     OW 7688   4.988   7.510   3.555
 1950SOL    HW1 7689   5.028   7.466   3.480
 1950SOL    HW2 7690   4.953   7.439   3.609
 1951SOL     OW 7691   3.376   7.910   7.863
 1951SOL    HW1 7692   3.288   7.882   7.838
 1951SOL    HW2 7693   3.422   7.829   7.883
 1952SOL     OW 7694   4.552   2.812   7.080
 1952SOL    HW1 7695   4.545   2.797   6.985
 1952SOL    HW2 7696   4.527   2.903   7.091
 1953SOL     OW 7697  10.443   2.102   0.371
 1953SOL    HW1 7698  10.537   2.112   0.384
 1953SOL    HW2 7699  10.412   2.190   0.350
 1954SOL     OW 7700  10.768   6.504   5.552
 1954SOL    HW1 7701  10.799   6.578   5.501
 1954SOL    HW2 7702  10.696   6.540   5.605
 1955SOL     OW 7703   2.743   7.196  12.936
 1955SOL    HW1 7704   2.706   7.250  13.006
 1955SOL    HW2 7705   2.694   7.222  12.858
 1956SOL     OW 7706  10.358   5.878   2.335
 1956SOL    HW1 7707  10.365   5.784   2.349
 1956SOL    HW2 7708  10.392   5.917   2.416
 1957SOL     OW 7709   0.617  10.742  10.049
 1957SOL    HW1 7710   0.667  10.774  10.124
 1957SOL    HW2 7711   0.675  10.681  10.005
 1958SOL     OW 7712   6.635   8.831   3.645
 1958SOL    HW1 7713   6.616   8.754   3.698
 1958SOL    HW2 7714   6.673   8.795   3.564
 1959SOL     OW 7715   3.842  13.495  12.215
 1959SOL    HW1 7716   3.804  13.546  12.287
 1959SOL    HW2 7717   3.933  13.523  12.210
 1960SOL     OW 7718   4.998   9.462   1.538
 1960SOL    HW1 7719   4.937   9.495   1.472
 1960SOL    HW2 7720   5.071   9.426   1.488
 1961SOL     OW 7721   7.533   4.880   1.524
 1961SOL    HW1 7722   7.477   4.958   1.528
 1961SOL    HW2 7723   7.597   4.900   1.456
 1962SOL     OW 7724   5.641  12.353   6.596
 1962SOL    HW1 7725   5.650  12.261   6.621
 1962SOL    HW2 7726   5.547  12.365   6.584
 1963SOL     OW 7727   2.764   6.727   0.312
 1963SOL    HW1 7728   2.788   6.793   0.376
 1963SOL    HW2 7729   2.670   6.736   0.302
 1964SOL     OW 7730   6.334   0.625   6.158
 1964SOL    HW1 7731   6.243   0.654   6.146
 1964SOL    HW2 7732   6.386   0.692   6.113
 1965SOL     OW 7733   2.340   7.283   8.731
 1965SOL    HW1 7734   2.294   7.254   8.652
 1965SOL    HW2 7735   2.427   7.243   8.724
 1966SOL     OW 7736   8.673   1.020   0.076
 1966SOL    HW1 7737   8.720   0.942   0.047
 1966SOL    HW2 7738   8.702   1.033   0.166
 1967SOL     OW 7739  10.116   1.586  10.787
 1967SOL    HW1 7740  10.054   1.655  10.813
 1967SOL    HW2 7741  10.200   1.617  10.819
 1968SOL     OW 7742   3.551   5.471   9.287
 1968SOL    HW1 7743   3.532   5.433   9.201
 1968SOL    HW2 7744   3.641   5.444   9.306
 1969SOL     OW 7745  12.239   4.265   8.002
 1969SOL    HW1 7746  12.197   4.233   7.922
 1969SOL    HW2 7747  12.304   4.329   7.971
 1970SOL     OW 7748   0.911   4.962   2.514
 1970SOL    HW1 7749   0.925   5.054   2.538
 1970SOL    HW2 7750   0.829   4.939   2.558
 1971SOL     OW 7751   9.470  14.598   9.238
 1971SOL    HW1 7752   9.406  14.535   9.206
 1971SOL    HW2 7753   9.540  14.544   9.276
 1972SOL     OW 7754  12.269   4.994   7.985
 1972SOL    HW1 7755  12.326   5.047   8.041
 1972SOL    HW2 7756  12.195   5.051   7.965
 1973SOL     OW 7757   4.594  14.356   5.821
 1973SOL    HW1 7758   4.536  14.366   5.896
 1973SOL    HW2 7759   4.647  14.435   5.820
 1974SOL     OW 7760   2.850   4.261   6.828
 1974SOL    HW1 7761   2.832   4.349   6.794
 1974SOL    HW2 7762   2.888   4.214   6.753
 1975SOL     OW 7763  13.100   1.258   5.299
 1975SOL    HW1 7764  13.040   1.212   5.241
 1975SOL    HW2 7765  13.173   1.282   5.242
 1976SOL     OW 7766   3.653  11.611   0.217
 1976SOL    HW1 7767   3.582  11.610   0.282
 1976SOL    HW2 7768   3.625  11.548   0.150
 1977SOL     OW 7769  13.902   7.739   0.376
 1977SOL    HW1 7770  13.903   7.656   0.424
 1977SOL    HW2 7771  13.993   7.755   0.353
 1978SOL     OW 7772  10.942  11.396   6.527
 1978SOL    HW1 7773  11.035  11.380   6.509
 1978SOL    HW2 7774  10.899  11.378   6.444
 1979SOL     OW 7775  12.675   0.362   2.056
 1979SOL    HW1 7776  12.633   0.444   2.080
 1979SOL    HW2 7777  12.723   0.336   2.135
 1980SOL     OW 7778   0.917   2.167   6.270
 1980SOL    HW1 7779   0.973   2.187   6.195
 1980SOL    HW2 7780   0.898   2.253   6.309
 1981SOL     OW 7781   9.283   4.711   7.369
 1981SOL    HW1 7782   9.350   4.644   7.375
 1981SOL    HW2 7783   9.211   4.670   7.321
 1982SOL     OW 7784   8.341   9.088   3.597
 1982SOL    HW1 7785   8.269   9.055   3.650
 1982SOL    HW2 7786   8.417   9.037   3.625
 1983SOL     OW 7787   8.479  10.097   7.796
 1983SOL    HW1 7788   8.470  10.192   7.802
 1983SOL    HW2 7789   8.394  10.068   7.763
 1984SOL     OW 7790   9.615   3.883   0.143
 1984SOL    HW1 7791   9.536   3.886   0.198
 1984SOL    HW2 7792   9.593   3.939   0.068
 1985SOL     OW 7793   0.835   9.919   8.213
 1985SOL    HW1 7794   0.884   9.877   8.142
 1985SOL    HW2 7795   0.894   9.916   8.288
 1986SOL     OW 7796   5.381   7.912   3.947
 1986SOL    HW1 7797   5.393   7.985   4.008
 1986SOL    HW2 7798   5.311   7.942   3.889
 1987SOL     OW 7799  12.471   6.158   7.461
 1987SOL    HW1 7800  12.554   6.120   7.432
 1987SOL    HW2 7801  12.436   6.094   7.523
 1988SOL     OW 7802   1.988  14.294   9.718
 1988SOL    HW1 7803   2.056  14.355   9.746
 1988SOL    HW2 7804   2.011  14.272   9.628
 1989SOL     OW 7805   6.713   4.432   8.122
 1989SOL    HW1 7806   6.748   4.357   8.073
 1989SOL    HW2 7807   6.788   4.491   8.131
 1990SOL     OW 7808   2.087   6.982   8.024
 1990SOL    HW1 7809   1.999   7.020   8.031
 1990SOL    HW2 7810   2.106   6.981   7.930
 1991SOL     OW 7811   4.525  13.680   5.975
 1991SOL    HW1 7812   4.577  13.724   5.907
 1991SOL    HW2 7813   4.437  13.678   5.939
 1992SOL     OW 7814   5.547  14.863  11.438
 1992SOL    HW1 7815   5.544   0.051  11.369
 1992SOL    HW2 7816   5.470  14.809  11.421
 1993SOL     OW 7817   2.570   4.229   5.104
 1993SOL    HW1 7818   2.476   4.243   5.098
 1993SOL    HW2 7819   2.586   4.215   5.197
 1994SOL     OW 7820   2.603   3.494  14.353
 1994SOL    HW1 7821   2.615   3.442  14.274
 1994SOL    HW2 7822   2.517   3.534  14.344
 1995SOL     OW 7823   6.404  12.132  14.778
 1995SOL    HW1 7824   6.465  12.120  14.705
 1995SOL    HW2 7825   6.445  12.199  14.832
 1996SOL     OW 7826   2.758   5.051   3.706
 1996SOL    HW1 7827   2.814   4.990   3.755
 1996SOL    HW2 7828   2.758   5.016   3.617
 1997SOL     OW 7829   6.543  12.492   6.892
 1997SOL    HW1 7830   6.448  12.506   6.884
 1997SOL    HW2 7831   6.582  12.546   6.824
 1998SOL     OW 7832   7.512   8.033  10.656
 1998SOL    HW1 7833   7.527   8.119  10.697
 1998SOL    HW2 7834   7.442   7.993  10.708
 1999SOL     OW 7835   9.979  13.368   1.353
 1999SOL    HW1 7836   9.898  13.361   1.402
 1999SOL    HW2 7837   9.963  13.319   1.272
 2000SOL     OW 7838  10.045   6.721   9.150
 2000SOL    HW1 7839  10.059   6.743   9.242
 2000SOL    HW2 7840  10.118   6.663   9.128
 2001SOL     OW 7841  14.280   9.196   1.837
 2001SOL    HW1 7842  14.267   9.193   1.931
 2001SOL    HW2 7843  14.222   9.127   1.803
 2002SOL     OW 7844   4.848  13.614   9.716
 2002SOL    HW1 7845   4.831  13.556   9.642
 2002SOL    HW2 7846   4.789  13.689   9.703
 2003SOL     OW 7847   1.663   1.239   4.904
 2003SOL    HW1 7848   1.667   1.189   4.985
 2003SOL    HW2 7849   1.607   1.186   4.847
 2004SOL     OW 7850   4.686   2.906  13.241
 2004SOL    HW1 7851   4.689   2.846  13.167
 2004SOL    HW2 7852   4.755   2.970  13.223
 2005SOL     OW 7853  12.738   4.286  10.374
 2005SOL    HW1 7854  12.805   4.275  10.442
 2005SOL    HW2 7855  12.676   4.216  10.391
 2006SOL     OW 7856   9.266   8.436  12.480
 2006SOL    HW1 7857   9.177   8.410  12.505
 2006SOL    HW2 7858   9.280   8.393  12.395
 2007SOL     OW 7859  10.605   6.430  12.622
 2007SOL    HW1 7860  10.538   6.492  12.654
 2007SOL    HW2 7861  10.666   6.422  12.695
 2008SOL     OW 7862   9.443   2.710   0.790
 2008SOL    HW1 7863   9.538   2.698   0.793
 2008SOL    HW2 7864   9.429   2.771   0.717
 2009SOL     OW 7865   8.319  11.514   6.816
 2009SOL    HW1 7866   8.276  11.437   6.854
 2009SOL    HW2 7867   8.259  11.543   6.747
 2010SOL     OW 7868  10.890  12.644   0.453
 2010SOL    HW1 7869  10.893  12.739   0.451
 2010SOL    HW2 7870  10.797  12.622   0.450
 2011SOL     OW 7871   9.607  13.146   6.538
 2011SOL    HW1 7872   9.658  13.079   6.492
 2011SOL    HW2 7873   9.625  13.131   6.631
 2012SOL     OW 7874  12.904   9.067   5.742
 2012SOL    HW1 7875  12.825   9.098   5.786
 2012SOL    HW2 7876  12.917   9.130   5.670
 2013SOL     OW 7877   7.284  13.512  12.224
 2013SOL    HW1 7878   7.220  13.475  12.163
 2013SOL    HW2 7879   7.310  13.595  12.185
 2014SOL     OW 7880   5.314   4.789   6.117
 2014SOL    HW1 7881   5.229   4.775   6.159
 2014SOL    HW2 7882   5.293   4.798   6.024
 2015SOL     OW 7883   1.824  14.717   6.540
 2015SOL    HW1 7884   1.794  14.807   6.528
 2015SOL    HW2 7885   1.848  14.711   6.632
 2016SOL     OW 7886   2.487   8.620  10.736
 2016SOL    HW1 7887   2.466   8.557  10.667
 2016SOL    HW2 7888   2.581   8.633  10.730
 2017SOL     OW 7889   2.556  11.002  12.707
 2017SOL    HW1 7890   2.489  11.070  12.710
 2017SOL    HW2 7891   2.627  11.035  12.762
 2018SOL     OW 7892   5.128  14.853   5.346
 2018SOL    HW1 7893   5.221  14.843   5.325
 2018SOL    HW2 7894   5.119   0.066   5.372
 2019SOL     OW 7895  12.261  11.785  10.181
 2019SOL    HW1 7896  12.316  11.738  10.243
 2019SOL    HW2 7897  12.173  11.779  10.218
 2020SOL     OW 7898  10.565   3.826  13.183
 2020SOL    HW1 7899  10.649   3.784  13.166
 2020SOL    HW2 7900  10.568   3.849  13.276
 2021SOL     OW 7901   2.385   3.638   4.508
 2021SOL    HW1 7902   2.462   3.680   4.547
 2021SOL    HW2 7903   2.373   3.683   4.424
 2022SOL     OW 7904  14.458  11.949   1.845
 2022SOL    HW1 7905  14.515  11.877   1.818
 2022SOL    HW2 7906  14.474  12.018   1.780
 2023SOL     OW 7907  10.669   0.305  10.113
 2023SOL    HW1 7908  10.624   0.262  10.040
 2023SOL    HW2 7909  10.754   0.262  10.118
 2024SOL     OW 7910   4.507  14.138   9.416
 2024SOL    HW1 7911   4.435  14.148   9.354
 2024SOL    HW2 7912   4.507  14.044   9.438
 2025SOL     OW 7913   5.574   4.932   2.884
 2025SOL    HW1 7914   5.659   4.973   2.868
 2025SOL    HW2 7915   5.511   5.004   2.877
 2026SOL     OW 7916   3.069   6.339  14.410
 2026SOL    HW1 7917   3.100   6.420  14.450
 2026SOL    HW2 7918   3.141   6.311  14.353
 2027SOL     OW 7919  12.476  10.684   5.571
 2027SOL    HW1 7920  12.563  10.723   5.581
 2027SOL    HW2 7921  12.463  10.678   5.477
 2028SOL     OW 7922  11.793   5.383   4.537
 2028SOL    HW1 7923  11.879   5.368   4.578
 2028SOL    HW2 7924  11.784   5.478   4.534
 2029SOL     OW 7925   8.306  13.204   4.329
 2029SOL    HW1 7926   8.284  13.132   4.388
 2029SOL    HW2 7927   8.327  13.161   4.246
 2030SOL     OW 7928  13.971   7.407   9.276
 2030SOL    HW1 7929  13.882   7.409   9.242
 2030SOL    HW2 7930  14.015   7.340   9.224
 2031SOL     OW 7931   6.524   7.802   1.691
 2031SOL    HW1 7932   6.568   7.887   1.698
 2031SOL    HW2 7933   6.565   7.760   1.615
 2032SOL     OW 7934  10.501   7.440   9.058
 2032SOL    HW1 7935  10.595   7.419   9.057
 2032SOL    HW2 7936  10.475   7.434   8.966
 2033SOL     OW 7937   6.555   3.427   9.413
 2033SOL    HW1 7938   6.489   3.358   9.423
 2033SOL    HW2 7939   6.623   3.405   9.476
 2034SOL     OW 7940  11.961   6.972   3.657
 2034SOL    HW1 7941  12.050   7.006   3.659
 2034SOL    HW2 7942  11.952   6.933   3.570
 2035SOL     OW 7943  11.689  12.431   7.250
 2035SOL    HW1 7944  11.672  12.524   7.235
 2035SOL    HW2 7945  11.781  12.420   7.229
 2036SOL     OW 7946  13.755  11.128  11.671
 2036SOL    HW1 7947  13.759  11.040  11.709
 2036SOL    HW2 7948  13.847  11.154  11.661
 2037SOL     OW 7949  13.764   7.432   7.930
 2037SOL    HW1 7950  13.833   7.481   7.885
 2037SOL    HW2 7951  13.808   7.353   7.961
 2038SOL     OW 7952  13.284   2.819   5.841
 2038SOL    HW1 7953  13.355   2.787   5.898
 2038SOL    HW2 7954  13.205   2.805   5.892
 2039SOL     OW 7955  14.449   9.011   0.309
 2039SOL    HW1 7956  14.415   9.016   0.398
 2039SOL    HW2 7957  14.544   9.004   0.319
 2040SOL     OW 7958  13.521  13.358   4.056
 2040SOL    HW1 7959  13.571  13.363   4.138
 2040SOL    HW2 7960  13.559  13.283   4.010
 2041SOL     OW 7961  14.106  10.122   4.456
 2041SOL    HW1 7962  14.087  10.037   4.495
 2041SOL    HW2 7963  14.202  10.125   4.452
 2042SOL     OW 7964   3.758   5.400   1.494
 2042SOL    HW1 7965   3.787   5.466   1.431
 2042SOL    HW2 7966   3.709   5.448   1.560
 2043SOL     OW 7967   1.821  13.698   4.051
 2043SOL    HW1 7968   1.852  13.615   4.087
 2043SOL    HW2 7969   1.790  13.747   4.127
 2044SOL     OW 7970   5.826  10.488   4.233
 2044SOL    HW1 7971   5.850  10.396   4.244
 2044SOL    HW2 7972   5.858  10.510   4.145
 2045SOL     OW 7973  10.159  10.543  10.201
 2045SOL    HW1 7974  10.216  10.619  10.191
 2045SOL    HW2 7975  10.071  10.580  10.206
 2046SOL     OW 7976   0.788  12.677   0.718
 2046SOL    HW1 7977   0.861  12.695   0.660
 2046SOL    HW2 7978   0.738  12.759   0.721
 2047SOL     OW 7979   2.721  11.564  10.200
 2047SOL    HW1 7980   2.695  11.537  10.112
 2047SOL    HW2 7981   2.808  11.525  10.212
 2048SOL     OW 7982   2.802   0.705  14.725
 2048SOL    HW1 7983   2.725   0.651  14.742
 2048SOL    HW2 7984   2.803   0.769  14.796
 2049SOL     OW 7985   8.568   2.629   9.616
 2049SOL    HW1 7986   8.622   2.581   9.678
 2049SOL    HW2 7987   8.555   2.568   9.543
 2050SOL     OW 7988  14.744  12.107   3.238
 2050SOL    HW1 7989  14.735  12.191   3.283
 2050SOL    HW2 7990  14.695  12.045   3.293
 2051SOL     OW 7991   5.367   1.497   3.013
 2051SOL    HW1 7992   5.354   1.403   3.023
 2051SOL    HW2 7993   5.445   1.516   3.065
 2052SOL     OW 7994   6.697  13.146  13.720
 2052SOL    HW1 7995   6.657  13.118  13.802
 2052SOL    HW2 7996   6.648  13.100  13.652
 2053SOL     OW 7997  12.362  13.361  12.446
 2053SOL    HW1 7998  12.334  13.427  12.382
 2053SOL    HW2 7999  12.457  13.372  12.452
 2054SOL     OW 8000   9.692   5.277  10.324
 2054SOL    HW1 8001   9.620   5.252  10.382
 2054SOL    HW2 8002   9.662   5.358  10.282
 2055SOL     OW 8003   3.803  10.950   0.599
 2055SOL    HW1 8004   3.813  10.975   0.691
 2055SOL    HW2 8005   3.718  10.906   0.595
 2056SOL     OW 8006   8.114   1.732   2.850
 2056SOL    HW1 8007   8.022   1.743   2.827
 2056SOL    HW2 8008   8.124   1.638   2.867
 2057SOL     OW 8009   3.041   0.459   0.000
 2057SOL    HW1 8010   2.950   0.457   0.031
 2057SOL    HW2 8011   3.091   0.491   0.075
 2058SOL     OW 8012   0.755   8.984   2.650
 2058SOL    HW1 8013   0.848   9.001   2.667
 2058SOL    HW2 8014   0.709   9.047   2.706
 2059SOL     OW 8015   7.466   9.555   0.001
 2059SOL    HW1 8016   7.400   9.539   0.068
 2059SOL    HW2 8017   7.540   9.592   0.048
 2060SOL     OW 8018   2.600   9.770  10.249
 2060SOL    HW1 8019   2.599   9.754  10.343
 2060SOL    HW2 8020   2.624   9.686  10.211
 2061SOL     OW 8021  14.138   4.827  11.944
 2061SOL    HW1 8022  14.209   4.774  11.980
 2061SOL    HW2 8023  14.091   4.768  11.885
 2062SOL     OW 8024   6.050  10.475   5.189
 2062SOL    HW1 8025   6.091  10.543   5.134
 2062SOL    HW2 8026   6.123  10.420   5.216
 2063SOL     OW 8027  13.555   5.675   1.829
 2063SOL    HW1 8028  13.593   5.752   1.786
 2063SOL    HW2 8029  13.507   5.630   1.760
 2064SOL     OW 8030   5.263   7.248   7.690
 2064SOL    HW1 8031   5.314   7.198   7.754
 2064SOL    HW2 8032   5.214   7.312   7.742
 2065SOL     OW 8033   3.491  11.757   0.908
 2065SOL    HW1 8034   3.485  11.848   0.939
 2065SOL    HW2 8035   3.405  11.740   0.870
 2066SOL     OW 8036   2.544  14.165   0.163
 2066SOL    HW1 8037   2.450  14.147   0.158
 2066SOL    HW2 8038   2.559  14.195   0.252
 2067SOL     OW 8039  11.010   3.512  10.300
 2067SOL    HW1 8040  11.080   3.458  10.261
 2067SOL    HW2 8041  11.015   3.595  10.253
 2068SOL     OW 8042   6.533   6.993   4.734
 2068SOL    HW1 8043   6.533   7.001   4.639
 2068SOL    HW2 8044   6.621   7.020   4.761
 2069SOL     OW 8045   1.464  12.995   5.304
 2069SOL    HW1 8046   1.551  13.001   5.343
 2069SOL    HW2 8047   1.427  12.914   5.339
 2070SOL     OW 8048   0.748   5.723   6.514
 2070SOL    HW1 8049   0.806   5.665   6.466
 2070SOL    HW2 8050   0.794   5.739   6.597
 2071SOL     OW 8051   2.384   0.329  10.148
 2071SOL    HW1 8052   2.406   0.406  10.096
 2071SOL    HW2 8053   2.334   0.362  10.222
 2072SOL     OW 8054  12.411   1.841   0.964
 2072SOL    HW1 8055  12.403   1.746   0.970
 2072SOL    HW2 8056  12.447   1.857   0.877
 2073SOL     OW 8057   4.972   6.859  12.731
 2073SOL    HW1 8058   5.014   6.846  12.816
 2073SOL    HW2 8059   5.045   6.868  12.670
 2074SOL     OW 8060   6.528   6.544   7.827
 2074SOL    HW1 8061   6.617   6.525   7.856
 2074SOL    HW2 8062   6.538   6.573   7.736
 2075SOL     OW 8063   7.423   7.473   3.141
 2075SOL    HW1 8064   7.516   7.494   3.130
 2075SOL    HW2 8065   7.377   7.552   3.114
 2076SOL     OW 8066  12.844  12.643   9.884
 2076SOL    HW1 8067  12.753  12.658   9.909
 2076SOL    HW2 8068  12.839  12.605   9.797
 2077SOL     OW 8069   4.871   8.282   7.880
 2077SOL    HW1 8070   4.826   8.334   7.813
 2077SOL    HW2 8071   4.959   8.271   7.846
 2078SOL     OW 8072   8.061  11.482   6.670
 2078SOL    HW1 8073   7.968  11.498   6.685
 2078SOL    HW2 8074   8.066  11.389   6.648
 2079SOL     OW 8075   9.268  12.514   2.575
 2079SOL    HW1 8076   9.174  12.502   2.581
 2079SOL    HW2 8077   9.283  12.603   2.606
 2080SOL     OW 8078   8.554   9.344  13.798
 2080SOL    HW1 8079   8.575   9.252  13.817
 2080SOL    HW2 8080   8.600   9.362  13.716
 2081SOL     OW 8081   3.803   7.613   2.956
 2081SOL    HW1 8082   3.762   7.690   2.917
 2081SOL    HW2 8083   3.782   7.620   3.050
 2082SOL     OW 8084   7.223  10.564   7.514
 2082SOL    HW1 8085   7.129  10.544   7.508
 2082SOL    HW2 8086   7.265  10.497   7.460
 2083SOL     OW 8087   8.119  11.383   9.666
 2083SOL    HW1 8088   8.081  11.471   9.661
 2083SOL    HW2 8089   8.140  11.361   9.576
 2084SOL     OW 8090  14.270   4.698   7.031
 2084SOL    HW1 8091  14.211   4.635   7.073
 2084SOL    HW2 8092  14.212   4.766   6.997
 2085SOL     OW 8093   6.903   4.868  14.519
 2085SOL    HW1 8094   6.965   4.796  14.532
 2085SOL    HW2 8095   6.931   4.936  14.581
 2086SOL     OW 8096   4.196  12.792   0.699
 2086SOL    HW1 8097   4.135  12.729   0.660
 2086SOL    HW2 8098   4.157  12.813   0.784
 2087SOL     OW 8099   7.202  10.403   1.404
 2087SOL    HW1 8100   7.266  10.471   1.424
 2087SOL    HW2 8101   7.201  10.398   1.309
 2088SOL     OW 8102   6.741  12.163   0.154
 2088SOL    HW1 8103   6.836  12.158   0.154
 2088SOL    HW2 8104   6.714  12.094   0.093
 2089SOL     OW 8105  10.112   8.336   5.893
 2089SOL    HW1 8106  10.148   8.409   5.943
 2089SOL    HW2 8107  10.105   8.369   5.804
 2090SOL     OW 8108   8.149  11.826   8.162
 2090SOL    HW1 8109   8.101  11.855   8.239
 2090SOL    HW2 8110   8.194  11.746   8.189
 2091SOL     OW 8111   8.427   4.636   9.641
 2091SOL    HW1 8112   8.522   4.620   9.638
 2091SOL    HW2 8113   8.416   4.725   9.607
 2092SOL     OW 8114  12.377  11.065   8.170
 2092SOL    HW1 8115  12.313  11.111   8.117
 2092SOL    HW2 8116  12.329  10.990   8.206
 2093SOL     OW 8117   0.340   4.850   9.768
 2093SOL    HW1 8118   0.273   4.841   9.700
 2093SOL    HW2 8119   0.319   4.782   9.832
 2094SOL     OW 8120   0.305  10.843   1.470
 2094SOL    HW1 8121   0.339  10.889   1.393
 2094SOL    HW2 8122   0.370  10.776   1.488
 2095SOL     OW 8123   5.883   0.809  10.364
 2095SOL    HW1 8124   5.947   0.741  10.342
 2095SOL    HW2 8125   5.893   0.875  10.296
 2096SOL     OW 8126  10.398  11.216  13.099
 2096SOL    HW1 8127  10.449  11.136  13.083
 2096SOL    HW2 8128  10.358  11.202  13.184
 2097SOL     OW 8129  14.402   2.952   7.305
 2097SOL    HW1 8130  14.412   2.932   7.212
 2097SOL    HW2 8131  14.490   2.975   7.334
 2098SOL     OW 8132   3.331   0.560   4.499
 2098SOL    HW1 8133   3.380   0.606   4.431
 2098SOL    HW2 8134   3.257   0.521   4.454
 2099SOL     OW 8135   9.908   7.197  10.146
 2099SOL    HW1 8136   9.973   7.191  10.077
 2099SOL    HW2 8137   9.869   7.110  10.152
 2100SOL     OW 8138   2.502  12.967   6.172
 2100SOL    HW1 8139   2.506  12.911   6.095
 2100SOL    HW2 8140   2.409  12.970   6.195
 2101SOL     OW 8141   8.973   0.231   8.053
 2101SOL    HW1 8142   8.971   0.197   8.142
 2101SOL    HW2 8143   9.053   0.283   8.049
 2102SOL     OW 8144   6.955   7.612   7.178
 2102SOL    HW1 8145   6.949   7.665   7.098
 2102SOL    HW2 8146   6.899   7.537   7.160
 2103SOL     OW 8147   5.429  11.631   4.731
 2103SOL    HW1 8148   5.338  11.654   4.712
 2103SOL    HW2 8149   5.478  11.710   4.709
 2104SOL     OW 8150   8.372   4.378   5.412
 2104SOL    HW1 8151   8.407   4.402   5.498
 2104SOL    HW2 8152   8.397   4.450   5.355
 2105SOL     OW 8153   7.253  11.648   6.599
 2105SOL    HW1 8154   7.187  11.580   6.595
 2105SOL    HW2 8155   7.327  11.614   6.548
 2106SOL     OW 8156   3.033   7.578   9.582
 2106SOL    HW1 8157   2.944   7.556   9.608
 2106SOL    HW2 8158   3.083   7.499   9.599
 2107SOL     OW 8159   9.369   0.499  14.328
 2107SOL    HW1 8160   9.345   0.414  14.293
 2107SOL    HW2 8161   9.334   0.562  14.266
 2108SOL     OW 8162   1.460   7.889  10.236
 2108SOL    HW1 8163   1.505   7.877  10.319
 2108SOL    HW2 8164   1.528   7.880  10.170
 2109SOL     OW 8165   1.934   6.515  12.534
 2109SOL    HW1 8166   1.923   6.424  12.507
 2109SOL    HW2 8167   1.853   6.536  12.581
 2110SOL     OW 8168   0.481  14.493   0.845
 2110SOL    HW1 8169   0.437  14.576   0.861
 2110SOL    HW2 8170   0.429  14.429   0.894
 2111SOL     OW 8171   8.292   7.317   8.254
 2111SOL    HW1 8172   8.373   7.287   8.295
 2111SOL    HW2 8173   8.321   7.381   8.188
 2112SOL     OW 8174   6.372   6.758  11.241
 2112SOL    HW1 8175   6.296   6.716  11.281
 2112SOL    HW2 8176   6.349   6.850  11.236
 2113SOL     OW 8177   6.125   2.022   3.882
 2113SOL    HW1 8178   6.043   2.024   3.833
 2113SOL    HW2 8179   6.189   2.062   3.823
 2114SOL     OW 8180   1.927   4.412  14.191
 2114SOL    HW1 8181   1.975   4.420  14.108
 2114SOL    HW2 8182   1.946   4.494  14.236
 2115SOL     OW 8183   4.744   4.936   9.889
 2115SOL    HW1 8184   4.666   4.881   9.890
 2115SOL    HW2 8185   4.796   4.902   9.817
 2116SOL     OW 8186   8.694   3.996  10.978
 2116SOL    HW1 8187   8.640   4.037  11.046
 2116SOL    HW2 8188   8.645   4.008  10.897
 2117SOL     OW 8189   5.881   5.166  10.641
 2117SOL    HW1 8190   5.845   5.224  10.573
 2117SOL    HW2 8191   5.926   5.097  10.592
 2118SOL     OW 8192   6.421  14.840   2.379
 2118SOL    HW1 8193   6.493  14.779   2.364
 2118SOL    HW2 8194   6.371  14.801   2.451
 2119SOL     OW 8195  13.620   7.158   6.428
 2119SOL    HW1 8196  13.549   7.097   6.409
 2119SOL    HW2 8197  13.675   7.155   6.350
 2120SOL     OW 8198  11.626  13.413   8.062
 2120SOL    HW1 8199  11.594  13.361   8.137
 2120SOL    HW2 8200  11.712  13.443   8.090
 2121SOL     OW 8201   3.532   5.287   5.200
 2121SOL    HW1 8202   3.625   5.307   5.195
 2121SOL    HW2 8203   3.512   5.287   5.294
 2122SOL     OW 8204   6.551   1.660   9.570
 2122SOL    HW1 8205   6.568   1.626   9.658
 2122SOL    HW2 8206   6.469   1.708   9.578
 2123SOL     OW 8207   2.011   0.654   7.151
 2123SOL    HW1 8208   2.045   0.682   7.236
 2123SOL    HW2 8209   2.031   0.727   7.092
 2124SOL     OW 8210   1.414   6.867  12.326
 2124SOL    HW1 8211   1.492   6.813  12.338
 2124SOL    HW2 8212   1.432   6.916  12.245
 2125SOL     OW 8213  10.566  11.409   4.141
 2125SOL    HW1 8214  10.568  11.474   4.071
 2125SOL    HW2 8215  10.573  11.460   4.222
 2126SOL     OW 8216   2.169   9.879   8.500
 2126SOL    HW1 8217   2.189   9.918   8.415
 2126SOL    HW2 8218   2.252   9.883   8.548
 2127SOL     OW 8219  10.292   5.845   6.915
 2127SOL    HW1 8220  10.336   5.912   6.862
 2127SOL    HW2 8221  10.333   5.853   7.001
 2128SOL     OW 8222   2.105  14.722   8.234
 2128SOL    HW1 8223   2.035  14.686   8.288
 2128SOL    HW2 8224   2.078  14.705   8.144
 2129SOL     OW 8225   0.654  13.724   8.543
 2129SOL    HW1 8226   0.698  13.792   8.594
 2129SOL    HW2 8227   0.631  13.767   8.461
 2130SOL     OW 8228   5.472   8.610  10.143
 2130SOL    HW1 8229   5.433   8.524  10.130
 2130SOL    HW2 8230   5.415   8.670  10.094
 2131SOL     OW 8231  12.729  14.166  14.524
 2131SOL    HW1 8232  12.820  14.148  14.548
 2131SOL    HW2 8233  12.684  14.174  14.608
 2132SOL     OW 8234   4.645  14.683   9.372
 2132SOL    HW1 8235   4.632  14.598   9.332
 2132SOL    HW2 8236   4.597  14.679   9.455
 2133SOL     OW 8237   6.407   4.108   8.898
 2133SOL    HW1 8238   6.490   4.060   8.901
 2133SOL    HW2 8239   6.354   4.060   8.835
 2134SOL     OW 8240  11.426   9.204   1.091
 2134SOL    HW1 8241  11.482   9.136   1.055
 2134SOL    HW2 8242  11.428   9.274   1.026
 2135SOL     OW 8243   3.874  12.534   4.535
 2135SOL    HW1 8244   3.939  12.580   4.588
 2135SOL    HW2 8245   3.897  12.556   4.444
 2136SOL     OW 8246   9.686   2.301   7.851
 2136SOL    HW1 8247   9.602   2.257   7.839
 2136SOL    HW2 8248   9.688   2.368   7.783
 2137SOL     OW 8249  10.122   9.018   9.902
 2137SOL    HW1 8250  10.187   9.014   9.831
 2137SOL    HW2 8251  10.146   9.096   9.952
 2138SOL     OW 8252   1.027   6.876   8.527
 2138SOL    HW1 8253   1.091   6.833   8.584
 2138SOL    HW2 8254   1.002   6.808   8.464
 2139SOL     OW 8255   3.790   0.859  11.077
 2139SOL    HW1 8256   3.755   0.909  11.151
 2139SOL    HW2 8257   3.875   0.899  11.059
 2140SOL     OW 8258   7.026   7.205   7.808
 2140SOL    HW1 8259   7.116   7.206   7.775
 2140SOL    HW2 8260   6.972   7.192   7.731
 2141SOL     OW 8261   2.837   8.066   9.482
 2141SOL    HW1 8262   2.911   8.010   9.460
 2141SOL    HW2 8263   2.770   8.044   9.417
 2142SOL     OW 8264  13.059   5.646   3.035
 2142SOL    HW1 8265  12.981   5.697   3.013
 2142SOL    HW2 8266  13.037   5.556   3.012
 2143SOL     OW 8267  14.057   3.062   5.633
 2143SOL    HW1 8268  14.073   3.035   5.723
 2143SOL    HW2 8269  14.121   3.132   5.617
 2144SOL     OW 8270  10.635   1.298  12.228
 2144SOL    HW1 8271  10.549   1.308  12.186
 2144SOL    HW2 8272  10.639   1.205  12.252
 2145SOL     OW 8273  12.094   3.384   8.071
 2145SOL    HW1 8274  12.159   3.327   8.029
 2145SOL    HW2 8275  12.044   3.420   7.998
 2146SOL     OW 8276   0.084  14.280   0.933
 2146SOL    HW1 8277   0.027  14.212   0.897
 2146SOL    HW2 8278   0.029  14.325   0.997
 2147SOL     OW 8279   3.548   4.659   8.350
 2147SOL    HW1 8280   3.457   4.632   8.336
 2147SOL    HW2 8281   3.546   4.706   8.433
 2148SOL     OW 8282  13.383  12.583   8.227
 2148SOL    HW1 8283  13.338  12.506   8.193
 2148SOL    HW2 8284  13.367  12.651   8.161
 2149SOL     OW 8285   4.925   2.623   4.330
 2149SOL    HW1 8286   4.892   2.625   4.420
 2149SOL    HW2 8287   4.917   2.714   4.299
 2150SOL     OW 8288   1.588  13.633   1.748
 2150SOL    HW1 8289   1.532  13.555   1.747
 2150SOL    HW2 8290   1.663  13.609   1.693
 2151SOL     OW 8291   8.275  11.950   9.835
 2151SOL    HW1 8292   8.202  12.000   9.800
 2151SOL    HW2 8293   8.274  11.968   9.929
 2152SOL     OW 8294  12.360   0.343   0.626
 2152SOL    HW1 8295  12.453   0.324   0.617
 2152SOL    HW2 8296  12.345   0.347   0.721
 2153SOL     OW 8297   1.952   7.429   9.123
 2153SOL    HW1 8298   2.039   7.405   9.090
 2153SOL    HW2 8299   1.965   7.512   9.167
 2154SOL     OW 8300  13.718  12.113   0.319
 2154SOL    HW1 8301  13.680  12.086   0.235
 2154SOL    HW2 8302  13.759  12.034   0.353
 2155SOL     OW 8303   8.138  11.551   0.968
 2155SOL    HW1 8304   8.130  11.489   0.895
 2155SOL    HW2 8305   8.048  11.574   0.990
 2156SOL     OW 8306  11.161   2.852  13.552
 2156SOL    HW1 8307  11.182   2.787  13.620
 2156SOL    HW2 8308  11.085   2.899  13.586
 2157SOL     OW 8309   7.615  12.694  11.812
 2157SOL    HW1 8310   7.542  12.749  11.786
 2157SOL    HW2 8311   7.581  12.604  11.806
 2158SOL     OW 8312  14.206   8.372   3.996
 2158SOL    HW1 8313  14.265   8.307   3.958
 2158SOL    HW2 8314  14.258   8.412   4.066
 2159SOL     OW 8315   2.380   0.087  13.306
 2159SOL    HW1 8316   2.429   0.113  13.384
 2159SOL    HW2 8317   2.289   0.087  13.334
 2160SOL     OW 8318   8.822   4.333   0.534
 2160SOL    HW1 8319   8.767   4.255   0.534
 2160SOL    HW2 8320   8.857   4.338   0.445
 2161SOL     OW 8321   3.865   9.666  10.067
 2161SOL    HW1 8322   3.778   9.691  10.098
 2161SOL    HW2 8323   3.869   9.699   9.977
 2162SOL     OW 8324   7.886   0.214   1.438
 2162SOL    HW1 8325   7.981   0.226   1.428
 2162SOL    HW2 8326   7.869   0.128   1.400
 2163SOL     OW 8327   9.059  10.661  13.336
 2163SOL    HW1 8328   9.041  10.569  13.356
 2163SOL    HW2 8329   9.028  10.673  13.247
 2164SOL     OW 8330   2.862  10.675   4.090
 2164SOL    HW1 8331   2.899  10.763   4.080
 2164SOL    HW2 8332   2.791  10.685   4.154
 2165SOL     OW 8333   8.837   7.134  10.924
 2165SOL    HW1 8334   8.859   7.212  10.874
 2165SOL    HW2 8335   8.773   7.088  10.869
 2166SOL     OW 8336  11.974  14.394   3.121
 2166SOL    HW1 8337  11.957  14.312   3.166
 2166SOL    HW2 8338  11.890  14.439   3.120
 2167SOL     OW 8339  12.821  11.226   4.747
 2167SOL    HW1 8340  12.727  11.208   4.755
 2167SOL    HW2 8341  12.829  11.320   4.765
 2168SOL     OW 8342  12.172   3.841   3.173
 2168SOL    HW1 8343  12.225   3.762   3.178
 2168SOL    HW2 8344  12.090   3.817   3.218
 2169SOL     OW 8345   4.356   3.656  10.147
 2169SOL    HW1 8346   4.415   3.597  10.195
 2169SOL    HW2 8347   4.409   3.732  10.126
 2170SOL     OW 8348  12.203   2.911   2.634
 2170SOL    HW1 8349  12.265   2.839   2.623
 2170SOL    HW2 8350  12.191   2.947   2.546
 2171SOL     OW 8351   3.611   3.970   8.616
 2171SOL    HW1 8352   3.582   4.058   8.594
 2171SOL    HW2 8353   3.538   3.932   8.665
 2172SOL     OW 8354   9.113  10.037   4.258
 2172SOL    HW1 8355   9.133   9.995   4.175
 2172SOL    HW2 8356   9.042   9.985   4.295
 2173SOL     OW 8357   1.529   9.908  12.806
 2173SOL    HW1 8358   1.477   9.923  12.885
 2173SOL    HW2 8359   1.559   9.995  12.780
 2174SOL     OW 8360  14.865  14.807  12.295
 2174SOL    HW1 8361  14.867  14.728  12.348
 2174SOL    HW2 8362  14.805  14.786  12.223
 2175SOL     OW 8363  12.847   9.052  12.964
 2175SOL    HW1 8364  12.822   8.990  12.894
 2175SOL    HW2 8365  12.850   8.998  13.043
 2176SOL     OW 8366  14.367   5.110   9.919
 2176SOL    HW1 8367  14.348   5.144  10.007
 2176SOL    HW2 8368  14.393   5.019   9.934
 2177SOL     OW 8369  13.901   3.372   5.933
 2177SOL    HW1 8370  13.832   3.321   5.891
 2177SOL    HW2 8371  13.860   3.408   6.011
 2178SOL     OW 8372   5.932   0.332  11.816
 2178SOL    HW1 8373   5.874   0.405  11.839
 2178SOL    HW2 8374   6.020   0.368  11.825
 2179SOL     OW 8375  11.140   4.157  13.617
 2179SOL    HW1 8376  11.119   4.250  13.609
 2179SOL    HW2 8377  11.119   4.136  13.709
 2180SOL     OW 8378   3.599   5.878   7.117
 2180SOL    HW1 8379   3.516   5.904   7.157
 2180SOL    HW2 8380   3.598   5.918   7.030
 2181SOL     OW 8381   7.608   1.202   0.861
 2181SOL    HW1 8382   7.537   1.266   0.858
 2181SOL    HW2 8383   7.659   1.226   0.938
 2182SOL     OW 8384   4.889   5.435   4.657
 2182SOL    HW1 8385   4.901   5.345   4.625
 2182SOL    HW2 8386   4.810   5.466   4.613
 2183SOL     OW 8387   8.354  11.391  10.844
 2183SOL    HW1 8388   8.388  11.332  10.777
 2183SOL    HW2 8389   8.290  11.338  10.892
 2184SOL     OW 8390  10.010   6.201   6.948
 2184SOL    HW1 8391   9.965   6.143   6.887
 2184SOL    HW2 8392  10.021   6.149   7.027
 2185SOL     OW 8393  12.763  14.753   8.369
 2185SOL    HW1 8394  12.742  14.844   8.388
 2185SOL    HW2 8395  12.705  14.703   8.427
 2186SOL     OW 8396  14.045   4.490   8.439
 2186SOL    HW1 8397  14.008   4.403   8.427
 2186SOL    HW2 8398  14.077   4.491   8.529
 2187SOL     OW 8399   3.193   9.963   6.566
 2187SOL    HW1 8400   3.269   9.957   6.624
 2187SOL    HW2 8401   3.222  10.018   6.493
 2188SOL     OW 8402   4.552   7.569   2.367
 2188SOL    HW1 8403   4.625   7.559   2.427
 2188SOL    HW2 8404   4.474   7.559   2.422
 2189SOL     OW 8405   4.524  11.522   2.799
 2189SOL    HW1 8406   4.576  11.559   2.727
 2189SOL    HW2 8407   4.459  11.467   2.756
 2190SOL     OW 8408   6.794   1.434  13.848
 2190SOL    HW1 8409   6.867   1.405  13.793
 2190SOL    HW2 8410   6.835   1.470  13.927
 2191SOL     OW 8411   7.238   5.711   6.100
 2191SOL    HW1 8412   7.327   5.746   6.088
 2191SOL    HW2 8413   7.220   5.725   6.193
 2192SOL     OW 8414   5.311   3.444   5.954
 2192SOL    HW1 8415   5.407   3.439   5.948
 2192SOL    HW2 8416   5.280   3.424   5.866
 2193SOL     OW 8417   0.279   1.540   2.649
 2193SOL    HW1 8418   0.346   1.552   2.717
 2193SOL    HW2 8419   0.289   1.615   2.591
 2194SOL     OW 8420  14.681   0.609  13.177
 2194SOL    HW1 8421  14.621   0.683  13.165
 2194SOL    HW2 8422  14.660   0.576  13.264
 2195SOL     OW 8423   9.867   5.551   7.346
 2195SOL    HW1 8424   9.792   5.581   7.397
 2195SOL    HW2 8425   9.830   5.520   7.263
 2196SOL     OW 8426   0.902   1.004   1.656
 2196SOL    HW1 8427   0.821   1.055   1.664
 2196SOL    HW2 8428   0.886   0.945   1.583
 2197SOL     OW 8429   2.818   7.372  14.389
 2197SOL    HW1 8430   2.786   7.462  14.388
 2197SOL    HW2 8431   2.792   7.337  14.475
 2198SOL     OW 8432   8.014   6.566  10.660
 2198SOL    HW1 8433   8.001   6.520  10.577
 2198SOL    HW2 8434   8.027   6.657  10.636
 2199SOL     OW 8435  14.212  13.529  10.180
 2199SOL    HW1 8436  14.221  13.441  10.217
 2199SOL    HW2 8437  14.149  13.573  10.238
 2200SOL     OW 8438   9.054   2.376  10.040
 2200SOL    HW1 8439   9.014   2.443   9.984
 2200SOL    HW2 8440   9.079   2.306   9.980
 2201SOL     OW 8441  10.811  12.694  11.612
 2201SOL    HW1 8442  10.809  12.745  11.693
 2201SOL    HW2 8443  10.745  12.626  11.625
 2202SOL     OW 8444   1.514   6.824   6.131
 2202SOL    HW1 8445   1.566   6.897   6.165
 2202SOL    HW2 8446   1.579   6.757   6.107
 2203SOL     OW 8447   0.180   6.944  11.984
 2203SOL    HW1 8448   0.239   6.886  12.031
 2203SOL    HW2 8449   0.234   7.021  11.964
 2204SOL     OW 8450   0.761  12.664   5.882
 2204SOL    HW1 8451   0.824  12.636   5.816
 2204SOL    HW2 8452   0.767  12.759   5.883
 2205SOL     OW 8453   6.928  10.389   0.089
 2205SOL    HW1 8454   6.868  10.463   0.080
 2205SOL    HW2 8455   6.873  10.312   0.074
 2206SOL     OW 8456   0.920  13.912  13.451
 2206SOL    HW1 8457   0.948  13.997  13.416
 2206SOL    HW2 8458   0.868  13.935  13.529
 2207SOL     OW 8459   8.661   1.826   5.251
 2207SOL    HW1 8460   8.699   1.914   5.262
 2207SOL    HW2 8461   8.629   1.804   5.339
 2208SOL     OW 8462   4.080   9.760   2.275
 2208SOL    HW1 8463   4.166   9.799   2.289
 2208SOL    HW2 8464   4.080   9.736   2.182
 2209SOL     OW 8465  12.302   8.499  12.146
 2209SOL    HW1 8466  12.316   8.592  12.163
 2209SOL    HW2 8467  12.350   8.454  12.215
 2210SOL     OW 8468   2.295   0.247   8.600
 2210SOL    HW1 8469   2.321   0.167   8.556
 2210SOL    HW2 8470   2.343   0.316   8.555
 2211SOL     OW 8471   1.921   3.358   6.278
 2211SOL    HW1 8472   1.928   3.453   6.267
 2211SOL    HW2 8473   1.839   3.335   6.235
 2212SOL     OW 8474   6.943   4.905   5.042
 2212SOL    HW1 8475   6.903   4.928   5.127
 2212SOL    HW2 8476   6.869   4.873   4.990
 2213SOL     OW 8477   0.919   0.747  10.763
 2213SOL    HW1 8478   0.965   0.668  10.793
 2213SOL    HW2 8479   0.931   0.810  10.834
 2214SOL     OW 8480   8.737   9.240   6.152
 2214SOL    HW1 8481   8.829   9.215   6.148
 2214SOL    HW2 8482   8.700   9.209   6.069
 2215SOL     OW 8483  10.605   8.143   6.580
 2215SOL    HW1 8484  10.530   8.134   6.639
 2215SOL    HW2 8485  10.615   8.057   6.540
 2216SOL     OW 8486  13.002  14.111  14.602
 2216SOL    HW1 8487  13.052  14.053  14.545
 2216SOL    HW2 8488  13.067  14.148  14.662
 2217SOL     OW 8489   2.934   0.520   2.748
 2217SOL    HW1 8490   2.853   0.556   2.783
 2217SOL    HW2 8491   2.928   0.534   2.654
 2218SOL     OW 8492   9.200   6.108   6.176
 2218SOL    HW1 8493   9.263   6.090   6.245
 2218SOL    HW2 8494   9.251   6.148   6.106
 2219SOL     OW 8495   3.729   0.660   1.714
 2219SOL    HW1 8496   3.811   0.654   1.764
 2219SOL    HW2 8497   3.741   0.598   1.642
 2220SOL     OW 8498   2.552   9.767  13.041
 2220SOL    HW1 8499   2.531   9.786  13.132
 2220SOL    HW2 8500   2.646   9.752  13.040
 2221SOL     OW 8501   1.867  10.533   0.333
 2221SOL    HW1 8502   1.835  10.542   0.243
 2221SOL    HW2 8503   1.901  10.620   0.354
 2222SOL     OW 8504   4.638   3.704  13.308
 2222SOL    HW1 8505   4.728   3.720  13.278
 2222SOL    HW2 8506   4.585   3.708  13.228
 2223SOL     OW 8507   8.122  12.860   6.825
 2223SOL    HW1 8508   8.186  12.924   6.856
 2223SOL    HW2 8509   8.041  12.884   6.870
 2224SOL     OW 8510   4.243  12.981   1.920
 2224SOL    HW1 8511   4.326  12.941   1.894
 2224SOL    HW2 8512   4.260  13.017   2.007
 2225SOL     OW 8513   9.429   2.890   6.058
 2225SOL    HW1 8514   9.494   2.846   6.113
 2225SOL    HW2 8515   9.370   2.933   6.120
 2226SOL     OW 8516  10.866   7.368  12.587
 2226SOL    HW1 8517  10.940   7.350  12.645
 2226SOL    HW2 8518  10.866   7.463  12.576
 2227SOL     OW 8519   6.226   4.181  12.466
 2227SOL    HW1 8520   6.209   4.207  12.556
 2227SOL    HW2 8521   6.269   4.096  12.472
 2228SOL     OW 8522   9.469   5.194   9.141
 2228SOL    HW1 8523   9.499   5.172   9.229
 2228SOL    HW2 8524   9.531   5.149   9.083
 2229SOL     OW 8525   1.275   6.935   4.863
 2229SOL    HW1 8526   1.284   6.883   4.783
 2229SOL    HW2 8527   1.264   6.871   4.933
 2230SOL     OW 8528   4.172   4.516   2.284
 2230SOL    HW1 8529   4.107   4.491   2.219
 2230SOL    HW2 8530   4.253   4.474   2.254
 2231SOL     OW 8531   9.878   0.184   4.272
 2231SOL    HW1 8532   9.792   0.201   4.234
 2231SOL    HW2 8533   9.937   0.246   4.229
 2232SOL     OW 8534   4.772   6.035   7.398
 2232SOL    HW1 8535   4.779   5.996   7.485
 2232SOL    HW2 8536   4.687   6.080   7.399
 2233SOL     OW 8537   4.117  13.695   3.846
 2233SOL    HW1 8538   4.094  13.608   3.814
 2233SOL    HW2 8539   4.124  13.748   3.767
 2234SOL     OW 8540   6.512  11.766  11.565
 2234SOL    HW1 8541   6.555  11.706  11.625
 2234SOL    HW2 8542   6.580  11.790  11.502
 2235SOL     OW 8543  11.102   8.967   2.053
 2235SOL    HW1 8544  11.049   8.888   2.063
 2235SOL    HW2 8545  11.068   9.008   1.973
 2236SOL     OW 8546   2.805   3.856   9.595
 2236SOL    HW1 8547   2.749   3.782   9.571
 2236SOL    HW2 8548   2.813   3.851   9.690
 2237SOL     OW 8549  13.747  14.291  12.157
 2237SOL    HW1 8550  13.807  14.312  12.085
 2237SOL    HW2 8551  13.799  14.308  12.236
 2238SOL     OW 8552   6.104  13.232   4.861
 2238SOL    HW1 8553   6.137  13.227   4.771
 2238SOL    HW2 8554   6.062  13.147   4.875
 2239SOL     OW 8555   7.357   4.453   1.750
 2239SOL    HW1 8556   7.311   4.423   1.828
 2239SOL    HW2 8557   7.449   4.434   1.767
 2240SOL     OW 8558  13.494   8.327  11.062
 2240SOL    HW1 8559  13.519   8.401  11.117
 2240SOL    HW2 8560  13.408   8.301  11.094
 2241SOL     OW 8561   8.930   5.121   1.194
 2241SOL    HW1 8562   8.897   5.128   1.104
 2241SOL    HW2 8563   8.856   5.086   1.244
 2242SOL     OW 8564  11.629   1.746   6.979
 2242SOL    HW1 8565  11.566   1.818   6.989
 2242SOL    HW2 8566  11.654   1.748   6.887
 2243SOL     OW 8567   4.545   1.073   8.426
 2243SOL    HW1 8568   4.509   1.150   8.469
 2243SOL    HW2 8569   4.488   1.000   8.453
 2244SOL     OW 8570  12.969   5.898  10.269
 2244SOL    HW1 8571  12.945   5.832  10.335
 2244SOL    HW2 8572  13.050   5.935  10.302
 2245SOL     OW 8573  14.228  13.924  10.626
 2245SOL    HW1 8574  14.292  13.854  10.640
 2245SOL    HW2 8575  14.216  13.927  10.531
 2246SOL     OW 8576  10.933   7.486   4.222
 2246SOL    HW1 8577  10.847   7.475   4.181
 2246SOL    HW2 8578  10.992   7.435   4.167
 2247SOL     OW 8579  14.489  10.179   7.007
 2247SOL    HW1 8580  14.489  10.226   6.924
 2247SOL    HW2 8581  14.535  10.097   6.988
 2248SOL     OW 8582   5.552   2.942   0.996
 2248SOL    HW1 8583   5.491   2.951   1.070
 2248SOL    HW2 8584   5.621   2.885   1.029
 2249SOL     OW 8585   5.820  11.460   9.905
 2249SOL    HW1 8586   5.916  11.457   9.901
 2249SOL    HW2 8587   5.793  11.460   9.813
 2250SOL     OW 8588   5.995   7.462   1.876
 2250SOL    HW1 8589   6.016   7.463   1.969
 2250SOL    HW2 8590   5.910   7.507   1.870
 2251SOL     OW 8591   4.151   1.421  11.687
 2251SOL    HW1 8592   4.083   1.463  11.739
 2251SOL    HW2 8593   4.114   1.335  11.664
 2252SOL     OW 8594   4.901   6.549   8.830
 2252SOL    HW1 8595   4.947   6.476   8.789
 2252SOL    HW2 8596   4.813   6.514   8.848
 2253SOL     OW 8597   7.271   5.950   5.737
 2253SOL    HW1 8598   7.348   5.992   5.699
 2253SOL    HW2 8599   7.296   5.857   5.744
 2254SOL     OW 8600  11.988   8.385   8.773
 2254SOL    HW1 8601  12.043   8.452   8.815
 2254SOL    HW2 8602  11.916   8.434   8.735
 2255SOL     OW 8603   4.744  14.141   4.081
 2255SOL    HW1 8604   4.770  14.233   4.073
 2255SOL    HW2 8605   4.682  14.140   4.154
 2256SOL     OW 8606   9.057   2.922   3.133
 2256SOL    HW1 8607   9.025   2.977   3.205
 2256SOL    HW2 8608   9.111   2.857   3.176
 2257SOL     OW 8609   1.334   0.228   6.891
 2257SOL    HW1 8610   1.398   0.280   6.841
 2257SOL    HW2 8611   1.298   0.167   6.827
 2258SOL     OW 8612  13.529  10.305  14.091
 2258SOL    HW1 8613  13.539  10.321  13.997
 2258SOL    HW2 8614  13.561  10.216  14.104
 2259SOL     OW 8615   4.939   3.234   8.792
 2259SOL    HW1 8616   5.007   3.201   8.851
 2259SOL    HW2 8617   4.866   3.256   8.849
 2260SOL     OW 8618   3.532   0.210   9.874
 2260SOL    HW1 8619   3.497   0.148   9.938
 2260SOL    HW2 8620   3.456   0.262   9.847
 2261SOL     OW 8621   0.212   2.771   8.480
 2261SOL    HW1 8622   0.286   2.796   8.535
 2261SOL    HW2 8623   0.229   2.680   8.457
 2262SOL     OW 8624   8.962   1.969   3.532
 2262SOL    HW1 8625   8.997   2.058   3.542
 2262SOL    HW2 8626   8.871   1.976   3.561
 2263SOL     OW 8627   7.253   9.609   3.085
 2263SOL    HW1 8628   7.323   9.570   3.137
 2263SOL    HW2 8629   7.172   9.572   3.121
 2264SOL     OW 8630   9.208  13.498   1.703
 2264SOL    HW1 8631   9.151  13.485   1.779
 2264SOL    HW2 8632   9.186  13.586   1.672
 2265SOL     OW 8633   1.244   1.317   9.943
 2265SOL    HW1 8634   1.233   1.253   9.872
 2265SOL    HW2 8635   1.166   1.307   9.997
 2266SOL     OW 8636   1.046   3.124  12.479
 2266SOL    HW1 8637   1.118   3.065  12.457
 2266SOL    HW2 8638   1.088   3.209  12.489
 2267SOL     OW 8639   8.104   5.115   2.800
 2267SOL    HW1 8640   8.103   5.159   2.715
 2267SOL    HW2 8641   8.146   5.031   2.782
 2268SOL     OW 8642   3.146   8.494   1.503
 2268SOL    HW1 8643   3.100   8.520   1.584
 2268SOL    HW2 8644   3.119   8.404   1.488
 2269SOL     OW 8645   5.830  11.382   1.627
 2269SOL    HW1 8646   5.893  11.435   1.675
 2269SOL    HW2 8647   5.851  11.397   1.535
 2270SOL     OW 8648  14.540  10.676  11.947
 2270SOL    HW1 8649  14.464  10.632  11.986
 2270SOL    HW2 8650  14.517  10.686  11.855
 2271SOL     OW 8651  10.326  12.709  11.821
 2271SOL    HW1 8652  10.371  12.790  11.840
 2271SOL    HW2 8653  10.294  12.678  11.906
 2272SOL     OW 8654   0.946   0.838  12.084
 2272SOL    HW1 8655   0.852   0.831  12.065
 2272SOL    HW2 8656   0.977   0.748  12.082
 2273SOL     OW 8657   1.310  14.163  13.910
 2273SOL    HW1 8658   1.292  14.232  13.973
 2273SOL    HW2 8659   1.364  14.100  13.958
 2274SOL     OW 8660  11.882   6.444  10.594
 2274SOL    HW1 8661  11.807   6.466  10.649
 2274SOL    HW2 8662  11.953   6.426  10.655
 2275SOL     OW 8663   9.556   8.193   6.990
 2275SOL    HW1 8664   9.476   8.163   6.947
 2275SOL    HW2 8665   9.621   8.199   6.920
 2276SOL     OW 8666   2.341   9.774   3.019
 2276SOL    HW1 8667   2.435   9.791   3.025
 2276SOL    HW2 8668   2.306   9.804   3.104
 2277SOL     OW 8669  11.944   1.689   1.657
 2277SOL    HW1 8670  11.944   1.593   1.655
 2277SOL    HW2 8671  11.989   1.715   1.577
 2278SOL     OW 8672  11.987   5.244  11.212
 2278SOL    HW1 8673  12.077   5.219  11.191
 2278SOL    HW2 8674  11.953   5.281  11.131
 2279SOL     OW 8675   2.113   3.098   5.622
 2279SOL    HW1 8676   2.087   3.017   5.666
 2279SOL    HW2 8677   2.190   3.127   5.670
 2280SOL     OW 8678   9.352   7.641  13.610
 2280SOL    HW1 8679   9.404   7.721  13.611
 2280SOL    HW2 8680   9.309   7.642  13.524
 2281SOL     OW 8681   3.612  11.192   7.655
 2281SOL    HW1 8682   3.544  11.188   7.723
 2281SOL    HW2 8683   3.691  11.217   7.703
 2282SOL     OW 8684   3.407   6.277   0.325
 2282SOL    HW1 8685   3.391   6.343   0.258
 2282SOL    HW2 8686   3.393   6.323   0.408
 2283SOL     OW 8687   5.920   5.376   6.166
 2283SOL    HW1 8688   5.844   5.337   6.123
 2283SOL    HW2 8689   5.978   5.401   6.093
 2284SOL     OW 8690   1.039   6.871   5.832
 2284SOL    HW1 8691   1.025   6.961   5.804
 2284SOL    HW2 8692   1.054   6.823   5.750
 2285SOL     OW 8693   1.336  13.227   8.718
 2285SOL    HW1 8694   1.287  13.309   8.723
 2285SOL    HW2 8695   1.406  13.237   8.783
 2286SOL     OW 8696  14.813   8.037   6.617
 2286SOL    HW1 8697  14.816   7.958   6.563
 2286SOL    HW2 8698   0.009   8.029   6.675
 2287SOL     OW 8699  11.412   0.774   6.353
 2287SOL    HW1 8700  11.423   0.816   6.438
 2287SOL    HW2 8701  11.388   0.845   6.294
 2288SOL     OW 8702   4.198   9.507   5.408
 2288SOL    HW1 8703   4.214   9.515   5.313
 2288SOL    HW2 8704   4.279   9.539   5.448
 2289SOL     OW 8705   2.140  11.822   0.609
 2289SOL    HW1 8706   2.169  11.734   0.634
 2289SOL    HW2 8707   2.218  11.864   0.573
 2290SOL     OW 8708  11.709   6.564   5.156
 2290SOL    HW1 8709  11.640   6.560   5.222
 2290SOL    HW2 8710  11.665   6.543   5.074
 2291SOL     OW 8711   1.221  11.430   1.540
 2291SOL    HW1 8712   1.181  11.344   1.525
 2291SOL    HW2 8713   1.272  11.447   1.461
 2292SOL     OW 8714  10.640   2.016   2.807
 2292SOL    HW1 8715  10.569   1.952   2.814
 2292SOL    HW2 8716  10.710   1.969   2.762
 2293SOL     OW 8717   8.537  13.606   1.047
 2293SOL    HW1 8718   8.459  13.595   1.103
 2293SOL    HW2 8719   8.546  13.522   1.003
 2294SOL     OW 8720   3.457   9.302   0.609
 2294SOL    HW1 8721   3.424   9.229   0.661
 2294SOL    HW2 8722   3.387   9.323   0.548
 2295SOL     OW 8723   0.664   9.535  13.911
 2295SOL    HW1 8724   0.637   9.588  13.986
 2295SOL    HW2 8725   0.594   9.470  13.900
 2296SOL     OW 8726   4.423   3.312  11.038
 2296SOL    HW1 8727   4.505   3.300  10.990
 2296SOL    HW2 8728   4.357   3.271  10.982
 2297SOL     OW 8729   5.874   9.178   6.872
 2297SOL    HW1 8730   5.896   9.135   6.955
 2297SOL    HW2 8731   5.779   9.167   6.864
 2298SOL     OW 8732  14.603   9.687   7.845
 2298SOL    HW1 8733  14.651   9.750   7.897
 2298SOL    HW2 8734  14.669   9.644   7.791
 2299SOL     OW 8735   0.700   2.418  10.549
 2299SOL    HW1 8736   0.689   2.454  10.461
 2299SOL    HW2 8737   0.653   2.479  10.606
 2300SOL     OW 8738   6.114   3.291   8.765
 2300SOL    HW1 8739   6.126   3.370   8.817
 2300SOL    HW2 8740   6.185   3.295   8.700
 2301SOL     OW 8741   9.160   0.606   0.762
 2301SOL    HW1 8742   9.145   0.697   0.738
 2301SOL    HW2 8743   9.235   0.579   0.708
 2302SOL     OW 8744   2.591   1.637   6.153
 2302SOL    HW1 8745   2.633   1.556   6.184
 2302SOL    HW2 8746   2.647   1.707   6.186
 2303SOL     OW 8747   6.817  14.866  11.759
 2303SOL    HW1 8748   6.732  14.872  11.803
 2303SOL    HW2 8749   6.828   0.072  11.717
 2304SOL     OW 8750   7.575   8.308  12.438
 2304SOL    HW1 8751   7.644   8.276  12.497
 2304SOL    HW2 8752   7.517   8.233  12.425
 2305SOL     OW 8753   4.176   5.619   3.377
 2305SOL    HW1 8754   4.134   5.582   3.455
 2305SOL    HW2 8755   4.183   5.545   3.317
 2306SOL     OW 8756  13.748   4.024   4.641
 2306SOL    HW1 8757  13.771   3.967   4.714
 2306SOL    HW2 8758  13.660   3.996   4.615
 2307SOL     OW 8759  10.022   7.133   2.102
 2307SOL    HW1 8760  10.101   7.145   2.049
 2307SOL    HW2 8761   9.987   7.221   2.114
 2308SOL     OW 8762   0.983   3.224   4.647
 2308SOL    HW1 8763   1.024   3.295   4.697
 2308SOL    HW2 8764   1.013   3.145   4.690
 2309SOL     OW 8765   1.437  10.859   3.602
 2309SOL    HW1 8766   1.404  10.824   3.520
 2309SOL    HW2 8767   1.368  10.841   3.666
 2310SOL     OW 8768   8.347   2.961  11.707
 2310SOL    HW1 8769   8.294   3.006  11.642
 2310SOL    HW2 8770   8.410   2.911  11.656
 2311SOL     OW 8771   2.388  14.796  13.594
 2311SOL    HW1 8772   2.415  14.719  13.544
 2311SOL    HW2 8773   2.457  14.860  13.578
 2312SOL     OW 8774   8.662  10.733   7.323
 2312SOL    HW1 8775   8.579  10.741   7.370
 2312SOL    HW2 8776   8.722  10.694   7.387
 2313SOL     OW 8777   0.076  10.404   6.519
 2313SOL    HW1 8778   0.085  10.378   6.610
 2313SOL    HW2 8779   0.014  10.477   6.520
 2314SOL     OW 8780   5.192  14.395   2.602
 2314SOL    HW1 8781   5.119  14.383   2.662
 2314SOL    HW2 8782   5.262  14.341   2.639
 2315SOL     OW 8783   9.284   9.563   3.147
 2315SOL    HW1 8784   9.336   9.578   3.068
 2315SOL    HW2 8785   9.274   9.468   3.151
 2316SOL     OW 8786   9.340  10.320   4.836
 2316SOL    HW1 8787   9.430  10.328   4.804
 2316SOL    HW2 8788   9.302  10.406   4.821
 2317SOL     OW 8789   8.364   1.382  12.770
 2317SOL    HW1 8790   8.354   1.321  12.843
 2317SOL    HW2 8791   8.286   1.366  12.716
 2318SOL     OW 8792   3.214   3.159  12.163
 2318SOL    HW1 8793   3.221   3.094  12.232
 2318SOL    HW2 8794   3.290   3.216  12.175
 2319SOL     OW 8795   3.227   8.556   0.012
 2319SOL    HW1 8796   3.283   8.515   0.079
 2319SOL    HW2 8797   3.166   8.610   0.062
 2320SOL     OW 8798   9.309   9.939   9.593
 2320SOL    HW1 8799   9.312   9.852   9.632
 2320SOL    HW2 8800   9.303   9.923   9.499
 2321SOL     OW 8801   4.672   6.961   8.169
 2321SOL    HW1 8802   4.632   6.901   8.232
 2321SOL    HW2 8803   4.756   6.921   8.147
 2322SOL     OW 8804  11.033  12.498  12.241
 2322SOL    HW1 8805  11.041  12.588  12.207
 2322SOL    HW2 8806  10.939  12.488  12.258
 2323SOL     OW 8807   2.138   4.606   4.920
 2323SOL    HW1 8808   2.055   4.632   4.880
 2323SOL    HW2 8809   2.113   4.541   4.985
 2324SOL     OW 8810  12.912   2.166   9.205
 2324SOL    HW1 8811  12.881   2.207   9.124
 2324SOL    HW2 8812  12.879   2.076   9.200
 2325SOL     OW 8813   5.727  14.161  14.395
 2325SOL    HW1 8814   5.775  14.165  14.478
 2325SOL    HW2 8815   5.636  14.176  14.420
 2326SOL     OW 8816   3.901  11.437   7.219
 2326SOL    HW1 8817   3.933  11.527   7.229
 2326SOL    HW2 8818   3.965  11.384   7.266
 2327SOL     OW 8819   3.821   1.109   1.560
 2327SOL    HW1 8820   3.770   1.029   1.570
 2327SOL    HW2 8821   3.768   1.165   1.503
 2328SOL     OW 8822  10.661   0.579   4.087
 2328SOL    HW1 8823  10.696   0.491   4.081
 2328SOL    HW2 8824  10.603   0.588   4.011
 2329SOL     OW 8825   8.456   2.904  10.630
 2329SOL    HW1 8826   8.538   2.915  10.679
 2329SOL    HW2 8827   8.450   2.982  10.575
 2330SOL     OW 8828   7.804   3.489   2.805
 2330SOL    HW1 8829   7.730   3.548   2.822
 2330SOL    HW2 8830   7.861   3.539   2.747
 2331SOL     OW 8831   4.903   8.187   2.428
 2331SOL    HW1 8832   4.969   8.256   2.430
 2331SOL    HW2 8833   4.915   8.140   2.511
 2332SOL     OW 8834   5.198   2.291  12.372
 2332SOL    HW1 8835   5.191   2.336  12.456
 2332SOL    HW2 8836   5.267   2.337  12.325
 2333SOL     OW 8837   3.164  11.089   9.323
 2333SOL    HW1 8838   3.092  11.133   9.278
 2333SOL    HW2 8839   3.136  11.083   9.414
 2334SOL     OW 8840   7.687   7.046   7.663
 2334SOL    HW1 8841   7.745   7.003   7.726
 2334SOL    HW2 8842   7.599   7.025   7.694
 2335SOL     OW 8843   0.004   7.442   7.662
 2335SOL    HW1 8844   0.031   7.518   7.713
 2335SOL    HW2 8845   0.050   7.452   7.578
 2336SOL     OW 8846  14.057   6.234   2.440
 2336SOL    HW1 8847  14.045   6.312   2.494
 2336SOL    HW2 8848  14.134   6.253   2.386
 2337SOL     OW 8849   5.069   7.838   6.443
 2337SOL    HW1 8850   5.115   7.877   6.368
 2337SOL    HW2 8851   5.114   7.873   6.520
 2338SOL     OW 8852  10.801   7.711   7.826
 2338SOL    HW1 8853  10.809   7.797   7.785
 2338SOL    HW2 8854  10.777   7.652   7.754
 2339SOL     OW 8855  14.824  10.520   5.502
 2339SOL    HW1 8856  14.857  10.432   5.484
 2339SOL    HW2 8857   0.005  10.556   5.567
 2340SOL     OW 8858   4.051   1.137   1.732
 2340SOL    HW1 8859   3.967   1.133   1.687
 2340SOL    HW2 8860   4.052   1.059   1.788
 2341SOL     OW 8861   7.652   9.517   8.262
 2341SOL    HW1 8862   7.623   9.450   8.200
 2341SOL    HW2 8863   7.704   9.578   8.210
 2342SOL     OW 8864  10.298  13.133   2.189
 2342SOL    HW1 8865  10.229  13.104   2.129
 2342SOL    HW2 8866  10.341  13.053   2.217
 2343SOL     OW 8867   7.977   5.788   2.537
 2343SOL    HW1 8868   7.989   5.724   2.607
 2343SOL    HW2 8869   7.903   5.842   2.565
 2344SOL     OW 8870   5.053   7.097  10.500
 2344SOL    HW1 8871   5.141   7.107  10.534
 2344SOL    HW2 8872   5.062   7.107  10.405
 2345SOL     OW 8873  14.599  12.262   4.134
 2345SOL    HW1 8874  14.542  12.245   4.209
 2345SOL    HW2 8875  14.673  12.312   4.170
 2346SOL     OW 8876   3.946   5.739   9.704
 2346SOL    HW1 8877   3.993   5.809   9.660
 2346SOL    HW2 8878   4.010   5.668   9.713
 2347SOL     OW 8879   7.843   1.985  10.542
 2347SOL    HW1 8880   7.803   1.968  10.457
 2347SOL    HW2 8881   7.872   2.076  10.538
 2348SOL     OW 8882  14.864  14.302   7.964
 2348SOL    HW1 8883  14.790  14.362   7.963
 2348SOL    HW2 8884   0.056  14.353   8.002
 2349SOL     OW 8885  10.976   1.520   1.687
 2349SOL    HW1 8886  11.055   1.572   1.678
 2349SOL    HW2 8887  10.918   1.551   1.617
 2350SOL     OW 8888  13.285  11.720   5.501
 2350SOL    HW1 8889  13.251  11.701   5.589
 2350SOL    HW2 8890  13.237  11.661   5.443
 2351SOL     OW 8891  13.436  14.686  13.964
 2351SOL    HW1 8892  13.532  14.690  13.959
 2351SOL    HW2 8893  13.412  14.762  14.017
 2352SOL     OW 8894  10.463   9.419   6.015
 2352SOL    HW1 8895  10.432   9.503   6.048
 2352SOL    HW2 8896  10.397   9.392   5.951
 2353SOL     OW 8897   5.891   1.239   0.544
 2353SOL    HW1 8898   5.965   1.299   0.532
 2353SOL    HW2 8899   5.929   1.152   0.535
 2354SOL     OW 8900   4.940   7.524   6.058
 2354SOL    HW1 8901   4.913   7.558   5.972
 2354SOL    HW2 8902   4.902   7.586   6.120
 2355SOL     OW 8903   1.096   8.457   6.125
 2355SOL    HW1 8904   1.053   8.421   6.202
 2355SOL    HW2 8905   1.172   8.401   6.112
 2356SOL     OW 8906  13.973  13.072  14.736
 2356SOL    HW1 8907  14.005  13.083  14.646
 2356SOL    HW2 8908  14.051  13.080  14.791
 2357SOL     OW 8909   9.596   7.680  11.152
 2357SOL    HW1 8910   9.518   7.639  11.115
 2357SOL    HW2 8911   9.630   7.615  11.214
 2358SOL     OW 8912   3.225   8.799  13.527
 2358SOL    HW1 8913   3.320   8.786  13.522
 2358SOL    HW2 8914   3.214   8.894  13.535
 2359SOL     OW 8915   1.993   8.597   8.635
 2359SOL    HW1 8916   2.008   8.503   8.627
 2359SOL    HW2 8917   1.970   8.625   8.546
 2360SOL     OW 8918  12.741  10.656   1.367
 2360SOL    HW1 8919  12.832  10.667   1.342
 2360SOL    HW2 8920  12.700  10.741   1.348
 2361SOL     OW 8921   3.931   6.342   2.298
 2361SOL    HW1 8922   3.912   6.249   2.287
 2361SOL    HW2 8923   3.948   6.374   2.209
 2362SOL     OW 8924  14.723   8.559   9.777
 2362SOL    HW1 8925  14.814   8.588   9.783
 2362SOL    HW2 8926  14.721   8.478   9.830
 2363SOL     OW 8927   7.901   2.776   2.072
 2363SOL    HW1 8928   7.880   2.721   1.997
 2363SOL    HW2 8929   7.831   2.841   2.075
 2364SOL     OW 8930   5.627  12.084   0.066
 2364SOL    HW1 8931   5.690  12.063  14.876
 2364SOL    HW2 8932   5.676  12.139   0.127
 2365SOL     OW 8933  14.290   4.558   8.571
 2365SOL    HW1 8934  14.285   4.636   8.625
 2365SOL    HW2 8935  14.287   4.485   8.633
 2366SOL     OW 8936  14.873  11.063   5.095
 2366SOL    HW1 8937  14.848  10.973   5.114
 2366SOL    HW2 8938   0.013  11.101   5.181
 2367SOL     OW 8939  12.284   3.217  14.679
 2367SOL    HW1 8940  12.297   3.273  14.755
 2367SOL    HW2 8941  12.253   3.276  14.611
 2368SOL     OW 8942  13.653   4.077   6.364
 2368SOL    HW1 8943  13.686   3.997   6.405
 2368SOL    HW2 8944  13.717   4.098   6.297
 2369SOL     OW 8945   1.713  13.919  14.784
 2369SOL    HW1 8946   1.644  13.920  14.851
 2369SOL    HW2 8947   1.791  13.951  14.829
 2370SOL     OW 8948   1.275   2.410   3.202
 2370SOL    HW1 8949   1.347   2.402   3.264
 2370SOL    HW2 8950   1.303   2.479   3.142
 2371SOL     OW 8951   1.060   1.293   7.901
 2371SOL    HW1 8952   1.155   1.281   7.892
 2371SOL    HW2 8953   1.051   1.380   7.940
 2372SOL     OW 8954   1.376   8.023   8.476
 2372SOL    HW1 8955   1.439   8.062   8.537
 2372SOL    HW2 8956   1.317   8.094   8.454
 2373SOL     OW 8957  11.803   7.264   7.031
 2373SOL    HW1 8958  11.742   7.190   7.027
 2373SOL    HW2 8959  11.878   7.234   6.979
 2374SOL     OW 8960  13.525  12.768  11.351
 2374SOL    HW1 8961  13.572  12.756  11.268
 2374SOL    HW2 8962  13.477  12.687  11.363
 2375SOL     OW 8963   4.545  14.712   2.567
 2375SOL    HW1 8964   4.523  14.677   2.653
 2375SOL    HW2 8965   4.584  14.639   2.520
 2376SOL     OW 8966   6.047   2.028   0.508
 2376SOL    HW1 8967   6.049   2.121   0.489
 2376SOL    HW2 8968   6.070   2.021   0.600
 2377SOL     OW 8969  14.742   6.191   5.938
 2377SOL    HW1 8970  14.773   6.230   6.020
 2377SOL    HW2 8971  14.819   6.147   5.902
 2378SOL     OW 8972   8.779  10.329   4.927
 2378SOL    HW1 8973   8.725  10.408   4.929
 2378SOL    HW2 8974   8.809  10.323   4.836
 2379SOL     OW 8975   4.336   8.686  12.875
 2379SOL    HW1 8976   4.415   8.633  12.863
 2379SOL    HW2 8977   4.357   8.745  12.947
 2380SOL     OW 8978   7.787  11.762   6.410
 2380SOL    HW1 8979   7.741  11.811   6.478
 2380SOL    HW2 8980   7.879  11.784   6.423
 2381SOL     OW 8981  14.765   3.094   0.888
 2381SOL    HW1 8982  14.689   3.043   0.916
 2381SOL    HW2 8983  14.835   3.067   0.947
 2382SOL     OW 8984   9.290   0.914  11.165
 2382SOL    HW1 8985   9.382   0.886  11.163
 2382SOL    HW2 8986   9.259   0.903  11.075
 2383SOL     OW 8987   4.338   5.262   2.396
 2383SOL    HW1 8988   4.340   5.236   2.488
 2383SOL    HW2 8989   4.416   5.221   2.358
 2384SOL     OW 8990   9.210  11.804   8.910
 2384SOL    HW1 8991   9.202  11.826   8.817
 2384SOL    HW2 8992   9.215  11.889   8.954
 2385SOL     OW 8993   8.512   4.244   1.286
 2385SOL    HW1 8994   8.537   4.167   1.235
 2385SOL    HW2 8995   8.548   4.228   1.374
 2386SOL     OW 8996   7.176  13.609  12.473
 2386SOL    HW1 8997   7.198  13.554  12.398
 2386SOL    HW2 8998   7.082  13.624  12.465
 2387SOL     OW 8999  14.317   6.800   2.049
 2387SOL    HW1 9000  14.321   6.767   2.139
 2387SOL    HW2 9001  14.259   6.739   2.004
 2388SOL     OW 9002  11.700  11.784   5.994
 2388SOL    HW1 9003  11.612  11.776   6.030
 2388SOL    HW2 9004  11.718  11.878   5.995
 2389SOL     OW 9005  14.307   3.600  14.180
 2389SOL    HW1 9006  14.332   3.556  14.262
 2389SOL    HW2 9007  14.389   3.628  14.141
 2390SOL     OW 9008   5.956   7.361   1.491
 2390SOL    HW1 9009   5.988   7.290   1.547
 2390SOL    HW2 9010   6.027   7.376   1.428
 2391SOL     OW 9011   6.869   3.310   3.472
 2391SOL    HW1 9012   6.961   3.302   3.446
 2391SOL    HW2 9013   6.864   3.268   3.558
 2392SOL     OW 9014  11.698   1.085   3.579
 2392SOL    HW1 9015  11.786   1.070   3.613
 2392SOL    HW2 9016  11.662   0.997   3.566
 2393SOL     OW 9017   1.217  10.627  13.358
 2393SOL    HW1 9018   1.155  10.652  13.427
 2393SOL    HW2 9019   1.293  10.593  13.404
 2394SOL     OW 9020   8.757  13.694  11.053
 2394SOL    HW1 9021   8.833  13.726  11.004
 2394SOL    HW2 9022   8.682  13.716  10.998
 2395SOL     OW 9023   4.004   9.826   3.497
 2395SOL    HW1 9024   3.963   9.853   3.579
 2395SOL    HW2 9025   3.946   9.859   3.429
 2396SOL     OW 9026   8.526  14.777  12.817
 2396SOL    HW1 9027   8.517  14.815  12.905
 2396SOL    HW2 9028   8.541  14.851  12.759
 2397SOL     OW 9029   4.501   0.438   8.730
 2397SOL    HW1 9030   4.424   0.425   8.785
 2397SOL    HW2 9031   4.490   0.377   8.657
 2398SOL     OW 9032   6.791   7.685   7.421
 2398SOL    HW1 9033   6.872   7.679   7.370
 2398SOL    HW2 9034   6.750   7.765   7.390
 2399SOL     OW 9035   7.755  11.916  10.598
 2399SOL    HW1 9036   7.800  11.856  10.539
 2399SOL    HW2 9037   7.662  11.908  10.575
 2400SOL     OW 9038   4.001   1.441   1.347
 2400SOL    HW1 9039   4.024   1.534   1.343
 2400SOL    HW2 9040   4.083   1.395   1.328
 2401SOL     OW 9041  10.126  12.553   1.939
 2401SOL    HW1 9042  10.031  12.556   1.931
 2401SOL    HW2 9043  10.148  12.460   1.938
 2402SOL     OW 9044  13.981   3.191   3.788
 2402SOL    HW1 9045  13.996   3.097   3.779
 2402SOL    HW2 9046  13.899   3.198   3.838
 2403SOL     OW 9047   6.744   2.435  10.891
 2403SOL    HW1 9048   6.809   2.365  10.886
 2403SOL    HW2 9049   6.685   2.418  10.818
 2404SOL     OW 9050   3.253  11.272   7.337
 2404SOL    HW1 9051   3.284  11.184   7.316
 2404SOL    HW2 9052   3.327  11.313   7.383
 2405SOL     OW 9053   2.804   8.862   4.237
 2405SOL    HW1 9054   2.795   8.767   4.234
 2405SOL    HW2 9055   2.898   8.877   4.246
 2406SOL     OW 9056   8.260   5.959   1.305
 2406SOL    HW1 9057   8.321   5.905   1.255
 2406SOL    HW2 9058   8.304   6.044   1.314
 2407SOL     OW 9059   6.419  11.520   9.593
 2407SOL    HW1 9060   6.340  11.513   9.539
 2407SOL    HW2 9061   6.412  11.447   9.655
 2408SOL     OW 9062   7.436   7.346   6.493
 2408SOL    HW1 9063   7.403   7.303   6.571
 2408SOL    HW2 9064   7.408   7.291   6.420
 2409SOL     OW 9065  12.900  10.137   3.411
 2409SOL    HW1 9066  12.806  10.154   3.407
 2409SOL    HW2 9067  12.913  10.088   3.492
 2410SOL     OW 9068   5.248  12.642  10.757
 2410SOL    HW1 9069   5.337  12.642  10.791
 2410SOL    HW2 9070   5.254  12.689  10.674
 2411SOL     OW 9071   6.195   6.899  14.005
 2411SOL    HW1 9072   6.101   6.914  13.996
 2411SOL    HW2 9073   6.210   6.817  13.957
 2412SOL     OW 9074   9.571  11.491  14.299
 2412SOL    HW1 9075   9.647  11.509  14.242
 2412SOL    HW2 9076   9.495  11.511  14.244
 2413SOL     OW 9077   3.358   1.144  12.680
 2413SOL    HW1 9078   3.381   1.123  12.771
 2413SOL    HW2 9079   3.429   1.200  12.650
 2414SOL     OW 9080   1.596  10.796  12.319
 2414SOL    HW1 9081   1.627  10.710  12.347
 2414SOL    HW2 9082   1.615  10.800  12.226
 2415SOL     OW 9083  12.681  11.927   1.273
 2415SOL    HW1 9084  12.751  11.990   1.287
 2415SOL    HW2 9085  12.659  11.936   1.180
 2416SOL     OW 9086   9.776   0.272   1.319
 2416SOL    HW1 9087   9.794   0.207   1.251
 2416SOL    HW2 9088   9.737   0.346   1.271
 2417SOL     OW 9089   2.461  12.072   7.346
 2417SOL    HW1 9090   2.373  12.039   7.363
 2417SOL    HW2 9091   2.466  12.153   7.397
 2418SOL     OW 9092   5.440  13.328  12.378
 2418SOL    HW1 9093   5.488  13.280  12.446
 2418SOL    HW2 9094   5.447  13.273  12.300
 2419SOL     OW 9095  14.556   6.974   9.529
 2419SOL    HW1 9096  14.606   6.958   9.449
 2419SOL    HW2 9097  14.473   7.009   9.499
 2420SOL     OW 9098   3.992  13.518   7.506
 2420SOL    HW1 9099   3.931  13.445   7.519
 2420SOL    HW2 9100   4.058  13.506   7.574
 2421SOL     OW 9101  12.707   8.492  12.172
 2421SOL    HW1 9102  12.721   8.581  12.203
 2421SOL    HW2 9103  12.683   8.502  12.080
 2422SOL     OW 9104   4.378  13.552   3.629
 2422SOL    HW1 9105   4.446  13.619   3.630
 2422SOL    HW2 9106   4.359  13.536   3.721
 2423SOL     OW 9107   8.958  13.778  13.406
 2423SOL    HW1 9108   9.034  13.724  13.430
 2423SOL    HW2 9109   8.938  13.753  13.316
 2424SOL     OW 9110  14.397   8.023  11.745
 2424SOL    HW1 9111  14.370   7.937  11.711
 2424SOL    HW2 9112  14.319   8.078  11.736
 2425SOL     OW 9113  11.211  14.554   5.662
 2425SOL    HW1 9114  11.222  14.508   5.746
 2425SOL    HW2 9115  11.249  14.494   5.598
 2426SOL     OW 9116   0.359   4.557   5.421
 2426SOL    HW1 9117   0.421   4.558   5.494
 2426SOL    HW2 9118   0.409   4.587   5.346
 2427SOL     OW 9119   6.915   5.814  10.913
 2427SOL    HW1 9120   6.831   5.810  10.958
 2427SOL    HW2 9121   6.910   5.892  10.858
 2428SOL     OW 9122   3.569   7.169   6.646
 2428SOL    HW1 9123   3.555   7.179   6.552
 2428SOL    HW2 9124   3.639   7.230   6.667
 2429SOL     OW 9125   9.463   5.819  14.304
 2429SOL    HW1 9126   9.449   5.772  14.222
 2429SOL    HW2 9127   9.516   5.760  14.357
 2430SOL     OW 9128   8.608   7.282  14.204
 2430SOL    HW1 9129   8.528   7.334  14.198
 2430SOL    HW2 9130   8.579   7.191  14.193
 2431SOL     OW 9131   5.702  13.964   3.568
 2431SOL    HW1 9132   5.752  14.032   3.613
 2431SOL    HW2 9133   5.710  13.985   3.475
 2432SOL     OW 9134   8.478  12.344  12.840
 2432SOL    HW1 9135   8.476  12.251  12.821
 2432SOL    HW2 9136   8.488  12.386  12.755
 2433SOL     OW 9137   6.581   3.313   5.842
 2433SOL    HW1 9138   6.594   3.362   5.923
 2433SOL    HW2 9139   6.490   3.332   5.817
 2434SOL     OW 9140  13.323   1.815   8.124
 2434SOL    HW1 9141  13.357   1.872   8.193
 2434SOL    HW2 9142  13.333   1.727   8.159
 2435SOL     OW 9143  10.934   2.901  12.483
 2435SOL    HW1 9144  11.006   2.907  12.546
 2435SOL    HW2 9145  10.970   2.933  12.401
 2436SOL     OW 9146   2.910   2.207   5.035
 2436SOL    HW1 9147   2.838   2.247   4.986
 2436SOL    HW2 9148   2.882   2.117   5.051
 2437SOL     OW 9149   6.126   6.158  10.016
 2437SOL    HW1 9150   6.205   6.105  10.011
 2437SOL    HW2 9151   6.112   6.189   9.927
 2438SOL     OW 9152   3.787   0.636  14.522
 2438SOL    HW1 9153   3.752   0.724  14.530
 2438SOL    HW2 9154   3.876   0.647  14.488
 2439SOL     OW 9155  14.610   9.703  10.683
 2439SOL    HW1 9156  14.533   9.654  10.710
 2439SOL    HW2 9157  14.681   9.638  10.682
 2440SOL     OW 9158   9.721   5.568   5.418
 2440SOL    HW1 9159   9.632   5.603   5.414
 2440SOL    HW2 9160   9.726   5.505   5.345
 2441SOL     OW 9161  13.404   0.011   4.610
 2441SOL    HW1 9162  13.452   0.080   4.564
 2441SOL    HW2 9163  13.441  14.808   4.576
 2442SOL     OW 9164  10.275   4.256   5.891
 2442SOL    HW1 9165  10.203   4.256   5.829
 2442SOL    HW2 9166  10.335   4.323   5.858
 2443SOL     OW 9167   5.088   5.403   3.000
 2443SOL    HW1 9168   5.016   5.458   2.967
 2443SOL    HW2 9169   5.152   5.402   2.929
 2444SOL     OW 9170   0.609  13.563   0.529
 2444SOL    HW1 9171   0.629  13.648   0.490
 2444SOL    HW2 9172   0.683  13.545   0.587
 2445SOL     OW 9173   0.573   4.948   5.481
 2445SOL    HW1 9174   0.656   4.968   5.438
 2445SOL    HW2 9175   0.595   4.936   5.573
 2446SOL     OW 9176   4.480  13.823   3.780
 2446SOL    HW1 9177   4.430  13.883   3.836
 2446SOL    HW2 9178   4.507  13.753   3.838
 2447SOL     OW 9179   8.428   3.237   8.870
 2447SOL    HW1 9180   8.336   3.255   8.850
 2447SOL    HW2 9181   8.425   3.193   8.955
 2448SOL     OW 9182  10.778  12.450   1.333
 2448SOL    HW1 9183  10.762  12.362   1.300
 2448SOL    HW2 9184  10.873  12.463   1.324
 2449SOL     OW 9185   4.499  13.701   1.408
 2449SOL    HW1 9186   4.534  13.698   1.319
 2449SOL    HW2 9187   4.427  13.764   1.403
 2450SOL     OW 9188   9.407   5.438  13.183
 2450SOL    HW1 9189   9.436   5.494  13.111
 2450SOL    HW2 9190   9.456   5.357  13.173
 2451SOL     OW 9191   7.010   9.844  10.336
 2451SOL    HW1 9192   7.099   9.862  10.365
 2451SOL    HW2 9193   6.957   9.913  10.376
 2452SOL     OW 9194   4.529   6.162   9.291
 2452SOL    HW1 9195   4.554   6.237   9.344
 2452SOL    HW2 9196   4.488   6.101   9.352
 2453SOL     OW 9197  12.828   7.527   7.235
 2453SOL    HW1 9198  12.830   7.620   7.210
 2453SOL    HW2 9199  12.744   7.517   7.280
 2454SOL     OW 9200  13.298  10.002  11.059
 2454SOL    HW1 9201  13.306  10.044  11.145
 2454SOL    HW2 9202  13.205  10.005  11.040
 2455SOL     OW 9203  12.412   0.863  14.327
 2455SOL    HW1 9204  12.337   0.827  14.281
 2455SOL    HW2 9205  12.383   0.873  14.418
 2456SOL     OW 9206   0.190  13.143   6.563
 2456SOL    HW1 9207   0.168  13.172   6.474
 2456SOL    HW2 9208   0.162  13.051   6.566
 2457SOL     OW 9209   0.023   4.778   6.688
 2457SOL    HW1 9210  14.876   4.703   6.635
 2457SOL    HW2 9211  14.824   4.835   6.689
 2458SOL     OW 9212   6.676  12.694   4.208
 2458SOL    HW1 9213   6.768  12.696   4.182
 2458SOL    HW2 9214   6.668  12.616   4.263
 2459SOL     OW 9215   7.811  11.797   4.819
 2459SOL    HW1 9216   7.727  11.751   4.816
 2459SOL    HW2 9217   7.808  11.859   4.747
 2460SOL     OW 9218   5.387   5.401   7.194
 2460SOL    HW1 9219   5.409   5.399   7.101
 2460SOL    HW2 9220   5.293   5.385   7.197
 2461SOL     OW 9221  11.487   7.902   3.169
 2461SOL    HW1 9222  11.394   7.914   3.150
 2461SOL    HW2 9223  11.491   7.900   3.265
 2462SOL     OW 9224  12.471   4.610  12.439
 2462SOL    HW1 9225  12.434   4.549  12.377
 2462SOL    HW2 9226  12.554   4.638  12.399
 2463SOL     OW 9227  10.908  11.550  12.391
 2463SOL    HW1 9228  10.815  11.570  12.403
 2463SOL    HW2 9229  10.948  11.572  12.475
 2464SOL     OW 9230   8.980   7.690  10.830
 2464SOL    HW1 9231   9.055   7.691  10.889
 2464SOL    HW2 9232   8.923   7.759  10.863
 2465SOL     OW 9233   3.271  12.786   8.566
 2465SOL    HW1 9234   3.205  12.769   8.499
 2465SOL    HW2 9235   3.297  12.877   8.553
 2466SOL     OW 9236   8.143  14.223   2.298
 2466SOL    HW1 9237   8.233  14.253   2.307
 2466SOL    HW2 9238   8.105  14.231   2.385
 2467SOL     OW 9239   3.342   2.243   5.795
 2467SOL    HW1 9240   3.271   2.191   5.758
 2467SOL    HW2 9241   3.306   2.332   5.802
 2468SOL     OW 9242  12.014  10.446   3.613
 2468SOL    HW1 9243  12.005  10.462   3.707
 2468SOL    HW2 9244  11.925  10.443   3.580
 2469SOL     OW 9245   1.915   7.854   8.660
 2469SOL    HW1 9246   1.886   7.828   8.572
 2469SOL    HW2 9247   1.848   7.916   8.689
 2470SOL     OW 9248  11.586   3.286   4.406
 2470SOL    HW1 9249  11.574   3.365   4.353
 2470SOL    HW2 9250  11.679   3.283   4.425
 2471SOL     OW 9251  10.580   6.094  14.763
 2471SOL    HW1 9252  10.496   6.140  14.769
 2471SOL    HW2 9253  10.643   6.155  14.800
 2472SOL     OW 9254  10.343   7.680   1.672
 2472SOL    HW1 9255  10.310   7.639   1.751
 2472SOL    HW2 9256  10.369   7.607   1.616
 2473SOL     OW 9257  11.788   1.182   1.160
 2473SOL    HW1 9258  11.833   1.148   1.238
 2473SOL    HW2 9259  11.839   1.148   1.087
 2474SOL     OW 9260  13.036   6.383  10.721
 2474SOL    HW1 9261  13.035   6.340  10.806
 2474SOL    HW2 9262  12.971   6.454  10.729
 2475SOL     OW 9263   4.543   2.885  12.354
 2475SOL    HW1 9264   4.626   2.908  12.396
 2475SOL    HW2 9265   4.566   2.872  12.262
 2476SOL     OW 9266   9.035  13.366   7.484
 2476SOL    HW1 9267   9.002  13.277   7.467
 2476SOL    HW2 9268   9.125  13.353   7.512
 2477SOL     OW 9269   5.361  10.863  11.958
 2477SOL    HW1 9270   5.396  10.844  11.871
 2477SOL    HW2 9271   5.435  10.901  12.006
 2478SOL     OW 9272   7.488   6.255   0.278
 2478SOL    HW1 9273   7.424   6.322   0.252
 2478SOL    HW2 9274   7.547   6.248   0.203
 2479SOL     OW 9275  10.591   9.307   0.592
 2479SOL    HW1 9276  10.669   9.281   0.641
 2479SOL    HW2 9277  10.601   9.401   0.579
 2480SOL     OW 9278  11.978   6.124   5.681
 2480SOL    HW1 9279  12.055   6.164   5.642
 2480SOL    HW2 9280  11.972   6.162   5.769
 2481SOL     OW 9281   7.097  10.749   0.349
 2481SOL    HW1 9282   7.015  10.733   0.395
 2481SOL    HW2 9283   7.164  10.711   0.407
 2482SOL     OW 9284   9.267   0.352   0.449
 2482SOL    HW1 9285   9.287   0.281   0.509
 2482SOL    HW2 9286   9.352   0.388   0.425
 2483SOL     OW 9287   8.005   4.193   7.741
 2483SOL    HW1 9288   7.961   4.209   7.825
 2483SOL    HW2 9289   7.953   4.241   7.677
 2484SOL     OW 9290  13.739  11.833   0.373
 2484SOL    HW1 9291  13.760  11.776   0.447
 2484SOL    HW2 9292  13.670  11.787   0.326
 2485SOL     OW 9293   8.030   4.851   7.287
 2485SOL    HW1 9294   7.940   4.826   7.267
 2485SOL    HW2 9295   8.072   4.770   7.317
 2486SOL     OW 9296   7.008   7.052   4.087
 2486SOL    HW1 9297   7.059   7.024   4.163
 2486SOL    HW2 9298   7.060   7.024   4.012
 2487SOL     OW 9299   7.636   1.405   4.217
 2487SOL    HW1 9300   7.630   1.310   4.214
 2487SOL    HW2 9301   7.661   1.425   4.308
 2488SOL     OW 9302  13.399   2.849   0.770
 2488SOL    HW1 9303  13.411   2.901   0.691
 2488SOL    HW2 9304  13.373   2.912   0.837
 2489SOL     OW 9305   1.691  14.303   9.772
 2489SOL    HW1 9306   1.753  14.310   9.699
 2489SOL    HW2 9307   1.699  14.385   9.819
 2490SOL     OW 9308   0.846  11.265   3.119
 2490SOL    HW1 9309   0.762  11.305   3.143
 2490SOL    HW2 9310   0.896  11.337   3.079
 2491SOL     OW 9311   7.732   2.842  11.770
 2491SOL    HW1 9312   7.673   2.900  11.817
 2491SOL    HW2 9313   7.675   2.795  11.708
 2492SOL     OW 9314  10.865   8.786  13.698
 2492SOL    HW1 9315  10.914   8.711  13.729
 2492SOL    HW2 9316  10.774   8.758  13.700
 2493SOL     OW 9317   4.475   3.732  12.618
 2493SOL    HW1 9318   4.400   3.676  12.601
 2493SOL    HW2 9319   4.463   3.807  12.560
 2494SOL     OW 9320  10.237   9.229   4.718
 2494SOL    HW1 9321  10.143   9.241   4.714
 2494SOL    HW2 9322  10.250   9.145   4.762
 2495SOL     OW 9323   7.948  10.646   6.140
 2495SOL    HW1 9324   8.002  10.577   6.177
 2495SOL    HW2 9325   7.863  10.605   6.126
 2496SOL     OW 9326   2.996   5.668   8.826
 2496SOL    HW1 9327   2.923   5.612   8.850
 2496SOL    HW2 9328   3.074   5.620   8.857
 2497SOL     OW 9329  13.738   5.402  11.028
 2497SOL    HW1 9330  13.819   5.407  11.077
 2497SOL    HW2 9331  13.716   5.309  11.026
 2498SOL     OW 9332  11.522  11.960   7.434
 2498SOL    HW1 9333  11.506  11.989   7.524
 2498SOL    HW2 9334  11.438  11.975   7.390
 2499SOL     OW 9335   8.287   0.068   4.500
 2499SOL    HW1 9336   8.317   0.157   4.481
 2499SOL    HW2 9337   8.195   0.079   4.527
 2500SOL     OW 9338   3.048   1.710   2.994
 2500SOL    HW1 9339   3.011   1.795   3.018
 2500SOL    HW2 9340   3.138   1.729   2.969
 2501SOL     OW 9341   9.059   2.017   1.249
 2501SOL    HW1 9342   9.097   2.032   1.335
 2501SOL    HW2 9343   9.043   2.104   1.214
 2502SOL     OW 9344  11.188   2.110   5.008
 2502SOL    HW1 9345  11.163   2.029   5.052
 2502SOL    HW2 9346  11.262   2.086   4.952
 2503SOL     OW 9347   6.477   9.123   5.371
 2503SOL    HW1 9348   6.433   9.140   5.288
 2503SOL    HW2 9349   6.565   9.160   5.360
 2504SOL     OW 9350   4.983   4.514   3.310
 2504SOL    HW1 9351   4.957   4.559   3.230
 2504SOL    HW2 9352   4.969   4.421   3.291
 2505SOL     OW 9353   4.976   9.683  11.954
 2505SOL    HW1 9354   5.071   9.700  11.952
 2505SOL    HW2 9355   4.968   9.599  12.000
 2506SOL     OW 9356  13.472  14.263   0.138
 2506SOL    HW1 9357  13.477  14.168   0.150
 2506SOL    HW2 9358  13.403  14.292   0.197
 2507SOL     OW 9359  11.629   5.969   9.494
 2507SOL    HW1 9360  11.704   5.933   9.446
 2507SOL    HW2 9361  11.552   5.934   9.450
 2508SOL     OW 9362   8.732   2.075   2.829
 2508SOL    HW1 9363   8.805   2.013   2.827
 2508SOL    HW2 9364   8.661   2.027   2.872
 2509SOL     OW 9365  13.726   7.812  14.752
 2509SOL    HW1 9366  13.689   7.807  14.664
 2509SOL    HW2 9367  13.701   7.899  14.784
 2510SOL     OW 9368   3.190   0.888   4.058
 2510SOL    HW1 9369   3.097   0.912   4.060
 2510SOL    HW2 9370   3.190   0.793   4.046
 2511SOL     OW 9371   5.205  14.457  14.450
 2511SOL    HW1 9372   5.300  14.444  14.445
 2511SOL    HW2 9373   5.183  14.436  14.541
 2512SOL     OW 9374   0.872   5.492   5.662
 2512SOL    HW1 9375   0.883   5.519   5.753
 2512SOL    HW2 9376   0.911   5.405   5.658
 2513SOL     OW 9377   5.345   6.872  13.497
 2513SOL    HW1 9378   5.425   6.923  13.484
 2513SOL    HW2 9379   5.361   6.790  13.451
 2514SOL     OW 9380   6.451  12.848   3.675
 2514SOL    HW1 9381   6.380  12.830   3.737
 2514SOL    HW2 9382   6.530  12.822   3.721
 2515SOL     OW 9383   1.741  12.978   1.004
 2515SOL    HW1 9384   1.813  13.027   1.044
 2515SOL    HW2 9385   1.781  12.933   0.930
 2516SOL     OW 9386   0.025   1.351   4.873
 2516SOL    HW1 9387   0.119   1.337   4.860
 2516SOL    HW2 9388  14.864   1.316   4.793
 2517SOL     OW 9389   1.474  13.907   2.759
 2517SOL    HW1 9390   1.480  13.949   2.844
 2517SOL    HW2 9391   1.441  13.975   2.700
 2518SOL     OW 9392  13.885  12.825   8.652
 2518SOL    HW1 9393  13.839  12.803   8.571
 2518SOL    HW2 9394  13.940  12.900   8.629
 2519SOL     OW 9395   0.423  11.318   7.683
 2519SOL    HW1 9396   0.415  11.411   7.664
 2519SOL    HW2 9397   0.339  11.293   7.721
 2520SOL     OW 9398  13.250   0.447  11.640
 2520SOL    HW1 9399  13.194   0.516  11.675
 2520SOL    HW2 9400  13.294   0.411  11.717
 2521SOL     OW 9401   6.497   7.755   9.642
 2521SOL    HW1 9402   6.429   7.808   9.601
 2521SOL    HW2 9403   6.517   7.801   9.724
 2522SOL     OW 9404   9.663  12.902   3.391
 2522SOL    HW1 9405   9.608  12.980   3.379
 2522SOL    HW2 9406   9.639  12.867   3.476
 2523SOL     OW 9407  11.420  14.096   8.874
 2523SOL    HW1 9408  11.369  14.142   8.942
 2523SOL    HW2 9409  11.363  14.096   8.798
 2524SOL     OW 9410  10.795   8.244   8.249
 2524SOL    HW1 9411  10.756   8.160   8.273
 2524SOL    HW2 9412  10.882   8.222   8.218
 2525SOL     OW 9413   2.315   3.642   8.757
 2525SOL    HW1 9414   2.313   3.546   8.763
 2525SOL    HW2 9415   2.279   3.671   8.840
 2526SOL     OW 9416  14.738   0.818  11.486
 2526SOL    HW1 9417  14.691   0.743  11.451
 2526SOL    HW2 9418  14.828   0.788  11.497
 2527SOL     OW 9419   9.204  11.536   1.412
 2527SOL    HW1 9420   9.286  11.489   1.397
 2527SOL    HW2 9421   9.229  11.616   1.457
 2528SOL     OW 9422   3.884  12.907  14.727
 2528SOL    HW1 9423   3.804  12.909  14.779
 2528SOL    HW2 9424   3.933  12.832  14.762
 2529SOL     OW 9425   2.914  13.388   0.569
 2529SOL    HW1 9426   2.841  13.334   0.601
 2529SOL    HW2 9427   2.872  13.461   0.523
 2530SOL     OW 9428   2.492  12.490   4.153
 2530SOL    HW1 9429   2.506  12.577   4.190
 2530SOL    HW2 9430   2.407  12.496   4.109
 2531SOL     OW 9431  13.474   1.268   6.848
 2531SOL    HW1 9432  13.493   1.361   6.859
 2531SOL    HW2 9433  13.539   1.238   6.784
 2532SOL     OW 9434  12.048   8.906  14.328
 2532SOL    HW1 9435  12.138   8.885  14.303
 2532SOL    HW2 9436  11.999   8.908  14.246
 2533SOL     OW 9437   6.977  10.340   3.970
 2533SOL    HW1 9438   6.955  10.293   4.050
 2533SOL    HW2 9439   6.981  10.272   3.903
 2534SOL     OW 9440   5.627   4.086   6.594
 2534SOL    HW1 9441   5.571   4.103   6.518
 2534SOL    HW2 9442   5.715   4.074   6.557
 2535SOL     OW 9443   7.416   1.764   6.836
 2535SOL    HW1 9444   7.344   1.718   6.879
 2535SOL    HW2 9445   7.489   1.757   6.899
 2536SOL     OW 9446   6.750   7.615   3.284
 2536SOL    HW1 9447   6.797   7.694   3.309
 2536SOL    HW2 9448   6.806   7.573   3.219
 2537SOL     OW 9449  10.895  10.360   9.160
 2537SOL    HW1 9450  10.979  10.397   9.186
 2537SOL    HW2 9451  10.861  10.319   9.240
 2538SOL     OW 9452   7.960   5.856  14.397
 2538SOL    HW1 9453   8.038   5.837  14.345
 2538SOL    HW2 9454   7.991   5.914  14.467
 2539SOL     OW 9455   0.468   7.868  13.409
 2539SOL    HW1 9456   0.452   7.938  13.472
 2539SOL    HW2 9457   0.381   7.834  13.388
 2540SOL     OW 9458   7.877  13.010   4.921
 2540SOL    HW1 9459   7.883  12.932   4.977
 2540SOL    HW2 9460   7.967  13.026   4.893
 2541SOL     OW 9461  14.497  14.503   5.149
 2541SOL    HW1 9462  14.592  14.512   5.140
 2541SOL    HW2 9463  14.473  14.568   5.215
 2542SOL     OW 9464   7.740  13.394   7.250
 2542SOL    HW1 9465   7.679  13.321   7.261
 2542SOL    HW2 9466   7.713  13.435   7.168
 2543SOL     OW 9467  12.769   7.853  13.148
 2543SOL    HW1 9468  12.827   7.839  13.223
 2543SOL    HW2 9469  12.827   7.851  13.072
 2544SOL     OW 9470   2.347   4.566   1.296
 2544SOL    HW1 9471   2.313   4.628   1.232
 2544SOL    HW2 9472   2.435   4.598   1.316
 2545SOL     OW 9473   9.691   9.953   1.384
 2545SOL    HW1 9474   9.759   9.987   1.326
 2545SOL    HW2 9475   9.700   9.858   1.378
 2546SOL     OW 9476   4.311   7.382   3.729
 2546SOL    HW1 9477   4.245   7.448   3.710
 2546SOL    HW2 9478   4.261   7.302   3.745
 2547SOL     OW 9479   7.574   0.020  10.145
 2547SOL    HW1 9480   7.618  14.824  10.184
 2547SOL    HW2 9481   7.583   0.090  10.210
 2548SOL     OW 9482  14.417  11.293  12.494
 2548SOL    HW1 9483  14.490  11.316  12.551
 2548SOL    HW2 9484  14.347  11.268  12.554
 2549SOL     OW 9485   7.978   7.444   1.565
 2549SOL    HW1 9486   8.072   7.427   1.571
 2549SOL    HW2 9487   7.938   7.357   1.572
 2550SOL     OW 9488  12.722   1.985   6.772
 2550SOL    HW1 9489  12.676   1.949   6.848
 2550SOL    HW2 9490  12.742   2.076   6.797
 2551SOL     OW 9491   6.433   6.973   6.822
 2551SOL    HW1 9492   6.486   7.021   6.758
 2551SOL    HW2 9493   6.349   7.019   6.822
 2552SOL     OW 9494  14.241   6.324   1.213
 2552SOL    HW1 9495  14.312   6.318   1.276
 2552SOL    HW2 9496  14.181   6.254   1.237
 2553SOL     OW 9497  10.663   6.226   3.629
 2553SOL    HW1 9498  10.679   6.226   3.535
 2553SOL    HW2 9499  10.621   6.310   3.647
 2554SOL     OW 9500   9.554   9.291   4.963
 2554SOL    HW1 9501   9.464   9.316   4.940
 2554SOL    HW2 9502   9.568   9.207   4.919
 2555SOL     OW 9503   2.377  14.702   1.315
 2555SOL    HW1 9504   2.403  14.785   1.276
 2555SOL    HW2 9505   2.300  14.674   1.266
 2556SOL     OW 9506  13.106   4.632  14.255
 2556SOL    HW1 9507  13.100   4.560  14.192
 2556SOL    HW2 9508  13.140   4.591  14.335
 2557SOL     OW 9509   8.031   8.898   9.955
 2557SOL    HW1 9510   7.980   8.820   9.977
 2557SOL    HW2 9511   8.027   8.903   9.860
 2558SOL     OW 9512  13.979   3.999   1.848
 2558SOL    HW1 9513  14.066   4.025   1.817
 2558SOL    HW2 9514  13.970   4.043   1.932
 2559SOL     OW 9515   2.370   5.621  14.317
 2559SOL    HW1 9516   2.441   5.579  14.365
 2559SOL    HW2 9517   2.310   5.653  14.384
 2560SOL     OW 9518   1.748  14.535  11.518
 2560SOL    HW1 9519   1.706  14.481  11.585
 2560SOL    HW2 9520   1.727  14.491  11.436
 2561SOL     OW 9521   2.173   2.245   5.170
 2561SOL    HW1 9522   2.238   2.239   5.100
 2561SOL    HW2 9523   2.223   2.240   5.251
 2562SOL     OW 9524   4.669   6.522   7.668
 2562SOL    HW1 9525   4.727   6.475   7.607
 2562SOL    HW2 9526   4.616   6.453   7.708
 2563SOL     OW 9527   3.462   2.585   7.041
 2563SOL    HW1 9528   3.500   2.505   7.005
 2563SOL    HW2 9529   3.535   2.629   7.085
 2564SOL     OW 9530   0.016   1.815  12.493
 2564SOL    HW1 9531   0.049   1.773  12.572
 2564SOL    HW2 9532  14.802   1.794  12.492
 2565SOL     OW 9533  14.312   7.598   5.459
 2565SOL    HW1 9534  14.314   7.625   5.367
 2565SOL    HW2 9535  14.369   7.521   5.462
 2566SOL     OW 9536   6.106   7.199   5.248
 2566SOL    HW1 9537   6.045   7.167   5.315
 2566SOL    HW2 9538   6.054   7.202   5.168
 2567SOL     OW 9539   1.216  14.557  14.568
 2567SOL    HW1 9540   1.289  14.577  14.627
 2567SOL    HW2 9541   1.190  14.468  14.591
 2568SOL     OW 9542   8.267   6.040   3.734
 2568SOL    HW1 9543   8.293   6.097   3.806
 2568SOL    HW2 9544   8.192   6.084   3.694
 2569SOL     OW 9545   8.615  10.172  11.293
 2569SOL    HW1 9546   8.647  10.253  11.254
 2569SOL    HW2 9547   8.695  10.124  11.318
 2570SOL     OW 9548   7.625   1.042   9.298
 2570SOL    HW1 9549   7.551   1.086   9.340
 2570SOL    HW2 9550   7.608   1.050   9.204
 2571SOL     OW 9551  10.953  12.430   2.089
 2571SOL    HW1 9552  10.948  12.445   1.995
 2571SOL    HW2 9553  10.971  12.336   2.098
 2572SOL     OW 9554  12.775  10.495   2.779
 2572SOL    HW1 9555  12.692  10.544   2.780
 2572SOL    HW2 9556  12.837  10.551   2.825
 2573SOL     OW 9557   8.092   9.961   5.713
 2573SOL    HW1 9558   8.069   9.974   5.621
 2573SOL    HW2 9559   8.163   9.896   5.711
 2574SOL     OW 9560   4.253   7.719   3.829
 2574SOL    HW1 9561   4.227   7.680   3.746
 2574SOL    HW2 9562   4.338   7.679   3.849
 2575SOL     OW 9563   0.668   0.132  10.658
 2575SOL    HW1 9564   0.700   0.186  10.585
 2575SOL    HW2 9565   0.747   0.111  10.708
 2576SOL     OW 9566  12.927   4.752   1.437
 2576SOL    HW1 9567  12.982   4.701   1.377
 2576SOL    HW2 9568  12.850   4.775   1.384
 2577SOL     OW 9569   7.269  10.855   5.666
 2577SOL    HW1 9570   7.184  10.838   5.624
 2577SOL    HW2 9571   7.276  10.788   5.734
 2578SOL     OW 9572   9.472   9.806  10.340
 2578SOL    HW1 9573   9.485   9.741  10.270
 2578SOL    HW2 9574   9.547   9.865  10.332
 2579SOL     OW 9575   2.024   5.148  12.933
 2579SOL    HW1 9576   1.955   5.194  12.886
 2579SOL    HW2 9577   2.090   5.215  12.951
 2580SOL     OW 9578   3.726  11.666  13.368
 2580SOL    HW1 9579   3.747  11.736  13.306
 2580SOL    HW2 9580   3.657  11.704  13.424
 2581SOL     OW 9581   3.148  13.934   4.445
 2581SOL    HW1 9582   3.128  13.873   4.517
 2581SOL    HW2 9583   3.151  14.020   4.487
 2582SOL     OW 9584   5.936  14.019   2.900
 2582SOL    HW1 9585   6.001  14.061   2.955
 2582SOL    HW2 9586   5.925  14.079   2.826
 2583SOL     OW 9587   1.762  14.370   6.241
 2583SOL    HW1 9588   1.751  14.374   6.336
 2583SOL    HW2 9589   1.677  14.397   6.206
 2584SOL     OW 9590  13.938  10.082  11.413
 2584SOL    HW1 9591  13.976  10.026  11.481
 2584SOL    HW2 9592  13.996  10.158  11.411
 2585SOL     OW 9593   5.662  12.091  13.713
 2585SOL    HW1 9594   5.741  12.105  13.662
 2585SOL    HW2 9595   5.612  12.172  13.704
 2586SOL     OW 9596   9.790  14.145  11.850
 2586SOL    HW1 9597   9.876  14.182  11.831
 2586SOL    HW2 9598   9.794  14.056  11.815
 2587SOL     OW 9599  13.842   4.880   9.653
 2587SOL    HW1 9600  13.788   4.931   9.592
 2587SOL    HW2 9601  13.930   4.916   9.643
 2588SOL     OW 9602   2.336  12.270   3.556
 2588SOL    HW1 9603   2.346  12.356   3.515
 2588SOL    HW2 9604   2.371  12.282   3.645
 2589SOL     OW 9605   0.515   1.253   2.132
 2589SOL    HW1 9606   0.435   1.288   2.094
 2589SOL    HW2 9607   0.501   1.255   2.226
 2590SOL     OW 9608   2.051   9.568   6.137
 2590SOL    HW1 9609   2.123   9.597   6.194
 2590SOL    HW2 9610   2.024   9.647   6.091
 2591SOL     OW 9611   5.483   0.567  10.811
 2591SOL    HW1 9612   5.488   0.654  10.851
 2591SOL    HW2 9613   5.572   0.534  10.814
 2592SOL     OW 9614   2.715  10.333   0.246
 2592SOL    HW1 9615   2.786  10.364   0.302
 2592SOL    HW2 9616   2.739  10.361   0.158
 2593SOL     OW 9617   9.151  14.581   7.949
 2593SOL    HW1 9618   9.113  14.573   8.036
 2593SOL    HW2 9619   9.245  14.589   7.965
 2594SOL     OW 9620   0.743  12.507   9.867
 2594SOL    HW1 9621   0.817  12.480   9.922
 2594SOL    HW2 9622   0.776  12.501   9.777
 2595SOL     OW 9623   8.972   0.322  11.587
 2595SOL    HW1 9624   9.041   0.281  11.640
 2595SOL    HW2 9625   8.892   0.275  11.612
 2596SOL     OW 9626  14.184   6.652   8.175
 2596SOL    HW1 9627  14.234   6.656   8.256
 2596SOL    HW2 9628  14.215   6.726   8.123
 2597SOL     OW 9629   4.742   5.051   2.497
 2597SOL    HW1 9630   4.820   5.017   2.454
 2597SOL    HW2 9631   4.773   5.085   2.580
 2598SOL     OW 9632   8.474   6.885   2.667
 2598SOL    HW1 9633   8.485   6.970   2.624
 2598SOL    HW2 9634   8.519   6.894   2.750
 2599SOL     OW 9635   6.660  14.685  10.173
 2599SOL    HW1 9636   6.620  14.630  10.241
 2599SOL    HW2 9637   6.621  14.772  10.187
 2600SOL     OW 9638   4.602   8.244  12.171
 2600SOL    HW1 9639   4.619   8.312  12.106
 2600SOL    HW2 9640   4.514   8.213  12.152
 2601SOL     OW 9641  14.266  10.011   4.794
 2601SOL    HW1 9642  14.257  10.100   4.759
 2601SOL    HW2 9643  14.346   9.978   4.755
 2602SOL     OW 9644  14.552  12.767  11.439
 2602SOL    HW1 9645  14.543  12.851  11.394
 2602SOL    HW2 9646  14.499  12.776  11.519
 2603SOL     OW 9647   8.569   6.800  14.833
 2603SOL    HW1 9648   8.605   6.739  14.769
 2603SOL    HW2 9649   8.578   6.886  14.793
 2604SOL     OW 9650   0.928  12.198   8.902
 2604SOL    HW1 9651   0.847  12.171   8.858
 2604SOL    HW2 9652   0.905  12.280   8.947
 2605SOL     OW 9653   4.106   4.223   0.000
 2605SOL    HW1 9654   4.172   4.289  14.859
 2605SOL    HW2 9655   4.023   4.270  14.876
 2606SOL     OW 9656   9.304   4.865  12.669
 2606SOL    HW1 9657   9.309   4.922  12.592
 2606SOL    HW2 9658   9.394   4.857  12.699
 2607SOL     OW 9659   9.412   6.421  11.700
 2607SOL    HW1 9660   9.328   6.432  11.746
 2607SOL    HW2 9661   9.477   6.455  11.760
 2608SOL     OW 9662   0.196   9.300   1.329
 2608SOL    HW1 9663   0.133   9.326   1.397
 2608SOL    HW2 9664   0.194   9.373   1.267
 2609SOL     OW 9665  10.797   6.625  10.624
 2609SOL    HW1 9666  10.757   6.704  10.586
 2609SOL    HW2 9667  10.750   6.552  10.584
 2610SOL     OW 9668   6.317   7.835   2.017
 2610SOL    HW1 9669   6.394   7.780   2.005
 2610SOL    HW2 9670   6.337   7.915   1.968
 2611SOL     OW 9671   0.090  11.964   2.996
 2611SOL    HW1 9672   0.009  12.007   2.969
 2611SOL    HW2 9673   0.101  11.989   3.087
 2612SOL     OW 9674  13.763   6.108   4.519
 2612SOL    HW1 9675  13.695   6.085   4.456
 2612SOL    HW2 9676  13.825   6.035   4.515
 2613SOL     OW 9677   0.733   6.708  14.530
 2613SOL    HW1 9678   0.671   6.736  14.464
 2613SOL    HW2 9679   0.748   6.615  14.513
 2614SOL     OW 9680  11.750   5.206   8.124
 2614SOL    HW1 9681  11.712   5.279   8.174
 2614SOL    HW2 9682  11.809   5.164   8.186
 2615SOL     OW 9683   2.967   1.510   8.979
 2615SOL    HW1 9684   3.039   1.564   8.946
 2615SOL    HW2 9685   2.893   1.530   8.922
 2616SOL     OW 9686  11.098   2.267   9.059
 2616SOL    HW1 9687  11.164   2.317   9.105
 2616SOL    HW2 9688  11.056   2.330   9.001
 2617SOL     OW 9689   9.673   8.628   7.240
 2617SOL    HW1 9690   9.754   8.594   7.279
 2617SOL    HW2 9691   9.662   8.578   7.159
 2618SOL     OW 9692   8.032  11.575   8.020
 2618SOL    HW1 9693   8.119  11.594   8.055
 2618SOL    HW2 9694   8.007  11.491   8.060
 2619SOL     OW 9695   5.556   6.252  13.289
 2619SOL    HW1 9696   5.472   6.263  13.244
 2619SOL    HW2 9697   5.538   6.283  13.378
 2620SOL     OW 9698   3.170  11.516  12.708
 2620SOL    HW1 9699   3.177  11.439  12.764
 2620SOL    HW2 9700   3.238  11.575  12.740
 2621SOL     OW 9701  10.773  10.505   7.999
 2621SOL    HW1 9702  10.740  10.589   7.969
 2621SOL    HW2 9703  10.724  10.440   7.949
 2622SOL     OW 9704   5.151  13.810   6.291
 2622SOL    HW1 9705   5.183  13.846   6.208
 2622SOL    HW2 9706   5.055  13.809   6.280
 2623SOL     OW 9707   5.551  13.062   1.411
 2623SOL    HW1 9708   5.505  13.001   1.468
 2623SOL    HW2 9709   5.640  13.029   1.406
 2624SOL     OW 9710   5.357   1.082   8.886
 2624SOL    HW1 9711   5.366   1.176   8.870
 2624SOL    HW2 9712   5.447   1.051   8.897
 2625SOL     OW 9713   5.468   7.431   2.639
 2625SOL    HW1 9714   5.527   7.399   2.571
 2625SOL    HW2 9715   5.477   7.367   2.710
 2626SOL     OW 9716  12.960   9.541   3.265
 2626SOL    HW1 9717  12.985   9.622   3.220
 2626SOL    HW2 9718  12.932   9.482   3.195
 2627SOL     OW 9719   9.406   4.374   5.583
 2627SOL    HW1 9720   9.407   4.445   5.518
 2627SOL    HW2 9721   9.350   4.408   5.653
 2628SOL     OW 9722   9.035  11.756   0.004
 2628SOL    HW1 9723   8.957  11.760  14.827
 2628SOL    HW2 9724   8.999  11.755   0.093
 2629SOL     OW 9725   5.367   4.280  10.075
 2629SOL    HW1 9726   5.337   4.250  10.161
 2629SOL    HW2 9727   5.310   4.236  10.012
 2630SOL     OW 9728   7.066   6.412   9.106
 2630SOL    HW1 9729   7.150   6.390   9.147
 2630SOL    HW2 9730   7.037   6.332   9.063
 2631SOL     OW 9731  13.076   4.970   6.600
 2631SOL    HW1 9732  13.079   5.028   6.676
 2631SOL    HW2 9733  13.001   4.912   6.617
 2632SOL     OW 9734   9.565   0.129  10.062
 2632SOL    HW1 9735   9.470   0.133  10.048
 2632SOL    HW2 9736   9.598   0.077   9.988
 2633SOL     OW 9737   2.729  12.673   2.599
 2633SOL    HW1 9738   2.642  12.706   2.577
 2633SOL    HW2 9739   2.786  12.708   2.530
 2634SOL     OW 9740  12.247   0.821   9.019
 2634SOL    HW1 9741  12.335   0.849   8.993
 2634SOL    HW2 9742  12.239   0.851   9.110
 2635SOL     OW 9743   8.388   0.169  14.100
 2635SOL    HW1 9744   8.444   0.214  14.037
 2635SOL    HW2 9745   8.348   0.240  14.151
 2636SOL     OW 9746   0.527   6.426  14.248
 2636SOL    HW1 9747   0.466   6.482  14.295
 2636SOL    HW2 9748   0.612   6.444  14.287
 2637SOL     OW 9749   0.167  12.716   0.094
 2637SOL    HW1 9750   0.224  12.665   0.037
 2637SOL    HW2 9751   0.080  12.680   0.081
 2638SOL     OW 9752  11.659   6.857  11.010
 2638SOL    HW1 9753  11.726   6.789  11.011
 2638SOL    HW2 9754  11.705   6.936  11.037
 2639SOL     OW 9755   3.293   9.212   7.540
 2639SOL    HW1 9756   3.353   9.287   7.533
 2639SOL    HW2 9757   3.258   9.217   7.628
 2640SOL     OW 9758  12.387   1.043   8.733
 2640SOL    HW1 9759  12.417   1.091   8.811
 2640SOL    HW2 9760  12.310   1.091   8.703
 2641SOL     OW 9761  10.799   2.838   0.088
 2641SOL    HW1 9762  10.860   2.911   0.086
 2641SOL    HW2 9763  10.816   2.795   0.172
 2642SOL     OW 9764  10.189   8.692  11.256
 2642SOL    HW1 9765  10.242   8.644  11.320
 2642SOL    HW2 9766  10.223   8.782  11.260
 2643SOL     OW 9767   0.081   5.550  14.329
 2643SOL    HW1 9768   0.036   5.494  14.265
 2643SOL    HW2 9769   0.088   5.635  14.286
 2644SOL     OW 9770   7.520   7.021   2.679
 2644SOL    HW1 9771   7.584   7.013   2.750
 2644SOL    HW2 9772   7.542   6.949   2.620
 2645SOL     OW 9773   6.829   2.698  10.932
 2645SOL    HW1 9774   6.796   2.609  10.921
 2645SOL    HW2 9775   6.812   2.741  10.848
 2646SOL     OW 9776   3.416   0.564   6.509
 2646SOL    HW1 9777   3.443   0.493   6.450
 2646SOL    HW2 9778   3.431   0.530   6.597
 2647SOL     OW 9779  10.720   2.243  13.339
 2647SOL    HW1 9780  10.732   2.335  13.316
 2647SOL    HW2 9781  10.789   2.197  13.291
 2648SOL     OW 9782   7.171  10.414   1.118
 2648SOL    HW1 9783   7.132  10.495   1.085
 2648SOL    HW2 9784   7.105  10.347   1.102
 2649SOL     OW 9785   7.376   9.594   4.470
 2649SOL    HW1 9786   7.323   9.552   4.538
 2649SOL    HW2 9787   7.327   9.580   4.389
 2650SOL     OW 9788  11.336  13.629   0.308
 2650SOL    HW1 9789  11.266  13.616   0.245
 2650SOL    HW2 9790  11.292  13.657   0.388
 2651SOL     OW 9791  10.252  12.688   7.139
 2651SOL    HW1 9792  10.236  12.732   7.222
 2651SOL    HW2 9793  10.219  12.599   7.153
 2652SOL     OW 9794   8.541  10.840  12.231
 2652SOL    HW1 9795   8.463  10.891  12.210
 2652SOL    HW2 9796   8.514  10.749  12.223
 2653SOL     OW 9797   5.043  12.879   8.496
 2653SOL    HW1 9798   5.106  12.807   8.510
 2653SOL    HW2 9799   5.034  12.920   8.582
 2654SOL     OW 9800   3.825   4.131  12.260
 2654SOL    HW1 9801   3.730   4.120  12.268
 2654SOL    HW2 9802   3.859   4.095  12.342
 2655SOL     OW 9803  10.980   3.264  13.096
 2655SOL    HW1 9804  11.069   3.275  13.129
 2655SOL    HW2 9805  10.978   3.173  13.066
 2656SOL     OW 9806   0.876  10.011   5.670
 2656SOL    HW1 9807   0.851   9.965   5.750
 2656SOL    HW2 9808   0.870   9.945   5.601
 2657SOL     OW 9809  14.005   5.105  11.232
 2657SOL    HW1 9810  13.970   5.034  11.178
 2657SOL    HW2 9811  13.972   5.086  11.320
 2658SOL     OW 9812   7.256  14.864   3.010
 2658SOL    HW1 9813   7.221  14.777   2.989
 2658SOL    HW2 9814   7.329  14.846   3.070
 2659SOL     OW 9815   6.152   4.137   3.805
 2659SOL    HW1 9816   6.073   4.163   3.852
 2659SOL    HW2 9817   6.214   4.111   3.874
 2660SOL     OW 9818  14.142   0.803   9.688
 2660SOL    HW1 9819  14.069   0.853   9.651
 2660SOL    HW2 9820  14.103   0.755   9.761
 2661SOL     OW 9821  12.418  11.498  13.308
 2661SOL    HW1 9822  12.415  11.491  13.212
 2661SOL    HW2 9823  12.428  11.409  13.339
 2662SOL     OW 9824  11.920   5.511   0.729
 2662SOL    HW1 9825  11.858   5.531   0.800
 2662SOL    HW2 9826  11.915   5.586   0.670
 2663SOL     OW 9827   8.975   2.783   9.834
 2663SOL    HW1 9828   9.051   2.800   9.778
 2663SOL    HW2 9829   8.903   2.828   9.790
 2664SOL     OW 9830   1.312   8.339   2.713
 2664SOL    HW1 9831   1.340   8.251   2.688
 2664SOL    HW2 9832   1.278   8.329   2.802
 2665SOL     OW 9833   4.596   5.640   2.899
 2665SOL    HW1 9834   4.519   5.623   2.953
 2665SOL    HW2 9835   4.630   5.553   2.877
 2666SOL     OW 9836   3.721   6.675   2.345
 2666SOL    HW1 9837   3.682   6.696   2.429
 2666SOL    HW2 9838   3.647   6.662   2.286
 2667SOL     OW 9839  13.211   3.366   0.882
 2667SOL    HW1 9840  13.299   3.386   0.850
 2667SOL    HW2 9841  13.184   3.289   0.832
 2668SOL     OW 9842   4.341   7.320   6.147
 2668SOL    HW1 9843   4.344   7.278   6.060
 2668SOL    HW2 9844   4.402   7.393   6.140
 2669SOL     OW 9845   0.679  11.861   7.105
 2669SOL    HW1 9846   0.767  11.861   7.143
 2669SOL    HW2 9847   0.621  11.843   7.180
 2670SOL     OW 9848   2.973   1.351  14.464
 2670SOL    HW1 9849   2.926   1.342  14.382
 2670SOL    HW2 9850   3.048   1.292  14.456
 2671SOL     OW 9851   3.073   2.131   7.843
 2671SOL    HW1 9852   3.032   2.192   7.783
 2671SOL    HW2 9853   3.000   2.089   7.888
 2672SOL     OW 9854   8.507  14.484   0.099
 2672SOL    HW1 9855   8.543  14.496   0.187
 2672SOL    HW2 9856   8.580  14.446   0.049
 2673SOL     OW 9857  13.361  12.948  10.822
 2673SOL    HW1 9858  13.349  12.880  10.889
 2673SOL    HW2 9859  13.319  13.025  10.859
 2674SOL     OW 9860   4.185  11.027   9.241
 2674SOL    HW1 9861   4.230  11.083   9.178
 2674SOL    HW2 9862   4.092  11.049   9.229
 2675SOL     OW 9863   5.844   1.294  14.624
 2675SOL    HW1 9864   5.771   1.287  14.562
 2675SOL    HW2 9865   5.830   1.378  14.668
 2676SOL     OW 9866   8.120  14.440  10.352
 2676SOL    HW1 9867   8.079  14.487  10.425
 2676SOL    HW2 9868   8.121  14.503  10.280
 2677SOL     OW 9869   3.695   7.464   5.683
 2677SOL    HW1 9870   3.708   7.555   5.656
 2677SOL    HW2 9871   3.776   7.420   5.658
 2678SOL     OW 9872   7.508   2.447  10.199
 2678SOL    HW1 9873   7.545   2.384  10.137
 2678SOL    HW2 9874   7.422   2.468  10.164
 2679SOL     OW 9875   8.460  13.190  14.817
 2679SOL    HW1 9876   8.449  13.191  14.722
 2679SOL    HW2 9877   8.379  13.228  14.851
 2680SOL     OW 9878   2.171   0.314   3.690
 2680SOL    HW1 9879   2.169   0.361   3.607
 2680SOL    HW2 9880   2.174   0.222   3.665
 2681SOL     OW 9881   5.810   0.111  11.932
 2681SOL    HW1 9882   5.779   0.084  11.846
 2681SOL    HW2 9883   5.874   0.180  11.914
 2682SOL     OW 9884   8.695  12.441   8.631
 2682SOL    HW1 9885   8.644  12.366   8.602
 2682SOL    HW2 9886   8.648  12.517   8.597
 2683SOL     OW 9887   5.315   3.812   7.734
 2683SOL    HW1 9888   5.338   3.719   7.726
 2683SOL    HW2 9889   5.291   3.839   7.645
 2684SOL     OW 9890  12.390  10.065   7.294
 2684SOL    HW1 9891  12.484  10.065   7.311
 2684SOL    HW2 9892  12.373   9.980   7.252
 2685SOL     OW 9893   9.828  11.064   1.306
 2685SOL    HW1 9894   9.788  10.980   1.326
 2685SOL    HW2 9895   9.799  11.084   1.217
 2686SOL     OW 9896   9.702  13.365   3.621
 2686SOL    HW1 9897   9.660  13.350   3.537
 2686SOL    HW2 9898   9.718  13.278   3.656
 2687SOL     OW 9899   3.292   6.481  10.506
 2687SOL    HW1 9900   3.212   6.500  10.556
 2687SOL    HW2 9901   3.295   6.549  10.439
 2688SOL     OW 9902  14.349   5.714   9.907
 2688SOL    HW1 9903  14.382   5.803   9.894
 2688SOL    HW2 9904  14.265   5.712   9.861
 2689SOL     OW 9905   3.188  10.770   5.286
 2689SOL    HW1 9906   3.237  10.846   5.253
 2689SOL    HW2 9907   3.198  10.703   5.218
 2690SOL     OW 9908  14.489   2.392   6.451
 2690SOL    HW1 9909  14.468   2.355   6.537
 2690SOL    HW2 9910  14.481   2.319   6.390
 2691SOL     OW 9911  12.027  14.360   0.447
 2691SOL    HW1 9912  12.102  14.329   0.397
 2691SOL    HW2 9913  11.953  14.350   0.387
 2692SOL     OW 9914   0.929   3.637  10.304
 2692SOL    HW1 9915   0.906   3.730  10.311
 2692SOL    HW2 9916   0.886   3.608  10.224
 2693SOL     OW 9917   6.830   6.540   6.289
 2693SOL    HW1 9918   6.923   6.525   6.306
 2693SOL    HW2 9919   6.804   6.469   6.230
 2694SOL     OW 9920   8.104   1.451   2.912
 2694SOL    HW1 9921   8.114   1.408   2.997
 2694SOL    HW2 9922   8.062   1.386   2.856
 2695SOL     OW 9923   3.915  14.291   3.929
 2695SOL    HW1 9924   3.882  14.370   3.886
 2695SOL    HW2 9925   3.886  14.300   4.020
 2696SOL     OW 9926   2.624   3.297  12.383
 2696SOL    HW1 9927   2.589   3.374  12.428
 2696SOL    HW2 9928   2.704   3.329  12.341
 2697SOL     OW 9929   0.096  10.020  12.315
 2697SOL    HW1 9930   0.127   9.991  12.229
 2697SOL    HW2 9931   0.077  10.113  12.304
 2698SOL     OW 9932   0.549   5.674   7.189
 2698SOL    HW1 9933   0.465   5.681   7.234
 2698SOL    HW2 9934   0.601   5.747   7.224
 2699SOL     OW 9935  13.729   3.219   3.874
 2699SOL    HW1 9936  13.718   3.171   3.792
 2699SOL    HW2 9937  13.641   3.225   3.910
 2700SOL     OW 9938   7.701   9.877   1.391
 2700SOL    HW1 9939   7.782   9.833   1.364
 2700SOL    HW2 9940   7.686   9.847   1.480
 2701SOL     OW 9941   6.559   2.366   7.119
 2701SOL    HW1 9942   6.531   2.297   7.060
 2701SOL    HW2 9943   6.556   2.327   7.206
 2702SOL     OW 9944   5.615  12.812   2.938
 2702SOL    HW1 9945   5.599  12.718   2.938
 2702SOL    HW2 9946   5.575  12.843   2.857
 2703SOL     OW 9947  11.290   3.381   5.967
 2703SOL    HW1 9948  11.272   3.358   6.058
 2703SOL    HW2 9949  11.208   3.418   5.934
 2704SOL     OW 9950  12.916   9.536   2.062
 2704SOL    HW1 9951  12.882   9.481   2.132
 2704SOL    HW2 9952  12.987   9.586   2.103
 2705SOL     OW 9953   4.530  11.984   5.455
 2705SOL    HW1 9954   4.453  11.982   5.400
 2705SOL    HW2 9955   4.604  11.974   5.395
 2706SOL     OW 9956   3.079   4.446   8.843
 2706SOL    HW1 9957   3.067   4.351   8.845
 2706SOL    HW2 9958   3.006   4.479   8.792
 2707SOL     OW 9959   3.407   6.804   3.616
 2707SOL    HW1 9960   3.430   6.785   3.525
 2707SOL    HW2 9961   3.402   6.899   3.620
 2708SOL     OW 9962  11.984   2.771  11.357
 2708SOL    HW1 9963  11.892   2.758  11.337
 2708SOL    HW2 9964  12.018   2.682  11.370
 2709SOL     OW 9965   3.488   2.917   1.320
 2709SOL    HW1 9966   3.517   3.009   1.317
 2709SOL    HW2 9967   3.442   2.910   1.404
 2710SOL     OW 9968   3.066   1.992   7.334
 2710SOL    HW1 9969   3.032   1.960   7.418
 2710SOL    HW2 9970   3.023   2.076   7.322
 2711SOL     OW 9971   3.314   8.820  14.188
 2711SOL    HW1 9972   3.248   8.777  14.133
 2711SOL    HW2 9973   3.379   8.752  14.205
 2712SOL     OW 9974   3.123   9.278   8.351
 2712SOL    HW1 9975   3.189   9.240   8.410
 2712SOL    HW2 9976   3.073   9.202   8.320
 2713SOL     OW 9977  12.384   5.953   4.545
 2713SOL    HW1 9978  12.316   5.888   4.527
 2713SOL    HW2 9979  12.363   5.986   4.632
 2714SOL     OW 9980   5.590  14.358   8.281
 2714SOL    HW1 9981   5.497  14.367   8.298
 2714SOL    HW2 9982   5.607  14.264   8.291
 2715SOL     OW 9983   2.347   3.281  10.621
 2715SOL    HW1 9984   2.254   3.261  10.610
 2715SOL    HW2 9985   2.393   3.208  10.578
 2716SOL     OW 9986  13.602  11.653   6.856
 2716SOL    HW1 9987  13.680  11.704   6.879
 2716SOL    HW2 9988  13.533  11.687   6.913
 2717SOL     OW 9989  10.302   7.207  14.594
 2717SOL    HW1 9990  10.356   7.217  14.672
 2717SOL    HW2 9991  10.348   7.256  14.526
 2718SOL     OW 9992  12.451  10.961  11.872
 2718SOL    HW1 9993  12.388  10.977  11.942
 2718SOL    HW2 9994  12.418  11.010  11.797
 2719SOL     OW 9995   2.399  12.118  12.519
 2719SOL    HW1 9996   2.458  12.079  12.584
 2719SOL    HW2 9997   2.378  12.204  12.554
 2720SOL     OW 9998   3.932   4.552  10.027
 2720SOL    HW1 9999   3.937   4.561  10.123
 2720SOL    HW210000   3.841   4.573  10.006
 2721SOL     OW10001  11.576   8.139   2.723
 2721SOL    HW110002  11.575   8.227   2.760
 2721SOL    HW210003  11.612   8.083   2.792
 2722SOL     OW10004   8.760   2.165   0.981
 2722SOL    HW110005   8.738   2.184   1.073
 2722SOL    HW210006   8.849   2.197   0.971
 2723SOL     OW10007  13.318   1.899  11.201
 2723SOL    HW110008  13.285   1.973  11.151
 2723SOL    HW210009  13.269   1.823  11.169
 2724SOL     OW10010   7.704   1.612   2.079
 2724SOL    HW110011   7.666   1.689   2.037
 2724SOL    HW210012   7.629   1.556   2.101
 2725SOL     OW10013   3.776   5.665   7.115
 2725SOL    HW110014   3.713   5.733   7.139
 2725SOL    HW210015   3.721   5.590   7.092
 2726SOL     OW10016   9.355   8.297   0.403
 2726SOL    HW110017   9.324   8.212   0.433
 2726SOL    HW210018   9.374   8.285   0.310
 2727SOL     OW10019   9.020   8.345  14.772
 2727SOL    HW110020   9.101   8.303  14.745
 2727SOL    HW210021   8.952   8.304  14.718
 2728SOL     OW10022  14.337   4.281   0.791
 2728SOL    HW110023  14.274   4.210   0.778
 2728SOL    HW210024  14.415   4.253   0.744
 2729SOL     OW10025   9.256  12.984  11.733
 2729SOL    HW110026   9.351  12.971  11.735
 2729SOL    HW210027   9.242  13.071  11.771
 2730SOL     OW10028   4.711   0.623   6.290
 2730SOL    HW110029   4.719   0.533   6.323
 2730SOL    HW210030   4.647   0.664   6.348
 2731SOL     OW10031  10.954   7.669   6.368
 2731SOL    HW110032  10.929   7.683   6.276
 2731SOL    HW210033  11.047   7.650   6.364
 2732SOL     OW10034   4.819  11.373  11.737
 2732SOL    HW110035   4.747  11.311  11.749
 2732SOL    HW210036   4.778  11.451  11.700
 2733SOL     OW10037   0.707   5.586   6.228
 2733SOL    HW110038   0.628   5.578   6.282
 2733SOL    HW210039   0.737   5.495   6.216
 2734SOL     OW10040   2.363   1.335   4.619
 2734SOL    HW110041   2.359   1.240   4.632
 2734SOL    HW210042   2.364   1.371   4.708
 2735SOL     OW10043  12.256  10.345   4.681
 2735SOL    HW110044  12.201  10.297   4.743
 2735SOL    HW210045  12.196  10.404   4.636
 2736SOL     OW10046   8.747   7.742  12.091
 2736SOL    HW110047   8.671   7.701  12.132
 2736SOL    HW210048   8.765   7.819  12.146
 2737SOL     OW10049  10.137   8.534   8.765
 2737SOL    HW110050  10.156   8.621   8.801
 2737SOL    HW210051  10.204   8.520   8.698
 2738SOL     OW10052   4.049   6.819   3.796
 2738SOL    HW110053   4.081   6.876   3.866
 2738SOL    HW210054   4.077   6.862   3.715
 2739SOL     OW10055   6.921  11.758   8.054
 2739SOL    HW110056   6.829  11.738   8.068
 2739SOL    HW210057   6.958  11.762   8.142
 2740SOL     OW10058   8.500  11.394   6.635
 2740SOL    HW110059   8.428  11.426   6.689
 2740SOL    HW210060   8.550  11.337   6.693
 2741SOL     OW10061   6.794  14.109  10.495
 2741SOL    HW110062   6.841  14.188  10.522
 2741SOL    HW210063   6.857  14.038  10.508
 2742SOL     OW10064   2.236   5.411   8.663
 2742SOL    HW110065   2.206   5.323   8.640
 2742SOL    HW210066   2.305   5.430   8.600
 2743SOL     OW10067   4.793   9.834   3.537
 2743SOL    HW110068   4.761   9.886   3.611
 2743SOL    HW210069   4.883   9.865   3.523
 2744SOL     OW10070   2.162  10.507   1.561
 2744SOL    HW110071   2.202  10.478   1.643
 2744SOL    HW210072   2.134  10.425   1.519
 2745SOL     OW10073   8.651   6.446  12.467
 2745SOL    HW110074   8.622   6.356  12.452
 2745SOL    HW210075   8.714   6.464  12.397
 2746SOL     OW10076  13.958  10.406   9.528
 2746SOL    HW110077  13.961  10.325   9.478
 2746SOL    HW210078  13.928  10.380   9.615
 2747SOL     OW10079   8.249   0.398   5.143
 2747SOL    HW110080   8.320   0.451   5.179
 2747SOL    HW210081   8.248   0.420   5.050
 2748SOL     OW10082  10.296  10.712  11.320
 2748SOL    HW110083  10.379  10.666  11.330
 2748SOL    HW210084  10.321  10.804  11.309
 2749SOL     OW10085   8.073   1.555  10.821
 2749SOL    HW110086   8.099   1.535  10.911
 2749SOL    HW210087   8.092   1.475  10.772
 2750SOL     OW10088   4.838   1.530  14.703
 2750SOL    HW110089   4.795   1.557  14.622
 2750SOL    HW210090   4.808   1.593  14.769
 2751SOL     OW10091  10.776   9.965  10.101
 2751SOL    HW110092  10.835   9.992  10.171
 2751SOL    HW210093  10.833   9.955  10.024
 2752SOL     OW10094   6.494  14.199   7.833
 2752SOL    HW110095   6.467  14.282   7.794
 2752SOL    HW210096   6.475  14.210   7.926
 2753SOL     OW10097  10.024   3.185   0.844
 2753SOL    HW110098   9.980   3.264   0.814
 2753SOL    HW210099  10.048   3.204   0.935
 2754SOL     OW10100   2.366  10.121   6.738
 2754SOL    HW110101   2.425  10.093   6.808
 2754SOL    HW210102   2.422  10.167   6.676
 2755SOL     OW10103   8.826   6.385  10.900
 2755SOL    HW110104   8.915   6.373  10.867
 2755SOL    HW210105   8.771   6.329  10.845
 2756SOL     OW10106   0.631  13.296   3.214
 2756SOL    HW110107   0.700  13.353   3.180
 2756SOL    HW210108   0.622  13.227   3.148
 2757SOL     OW10109   4.512  11.387   9.559
 2757SOL    HW110110   4.596  11.368   9.601
 2757SOL    HW210111   4.495  11.479   9.580
 2758SOL     OW10112   6.485  12.278   0.127
 2758SOL    HW110113   6.455  12.275   0.218
 2758SOL    HW210114   6.576  12.249   0.131
 2759SOL     OW10115   1.800  11.655  10.664
 2759SOL    HW110116   1.807  11.749  10.682
 2759SOL    HW210117   1.764  11.651  10.575
 2760SOL     OW10118   9.727   4.437   9.758
 2760SOL    HW110119   9.812   4.437   9.803
 2760SOL    HW210120   9.663   4.441   9.829
 2761SOL     OW10121   6.921  14.388   0.618
 2761SOL    HW110122   6.898  14.475   0.586
 2761SOL    HW210123   6.847  14.362   0.673
 2762SOL     OW10124  12.681   1.638   7.593
 2762SOL    HW110125  12.587   1.619   7.590
 2762SOL    HW210126  12.689   1.707   7.659
 2763SOL     OW10127   4.560   6.420   8.763
 2763SOL    HW110128   4.559   6.509   8.797
 2763SOL    HW210129   4.581   6.365   8.838
 2764SOL     OW10130  14.316   6.910   4.227
 2764SOL    HW110131  14.299   7.004   4.226
 2764SOL    HW210132  14.408   6.902   4.250
 2765SOL     OW10133   1.408  13.018   4.777
 2765SOL    HW110134   1.400  13.004   4.871
 2765SOL    HW210135   1.471  13.090   4.769
 2766SOL     OW10136   1.065   4.661   9.654
 2766SOL    HW110137   0.990   4.634   9.707
 2766SOL    HW210138   1.132   4.595   9.673
 2767SOL     OW10139   0.211   0.318   4.138
 2767SOL    HW110140   0.143   0.384   4.152
 2767SOL    HW210141   0.227   0.282   4.225
 2768SOL     OW10142  11.325   1.281   5.574
 2768SOL    HW110143  11.359   1.371   5.577
 2768SOL    HW210144  11.284   1.268   5.659
 2769SOL     OW10145   4.393  10.732   2.314
 2769SOL    HW110146   4.364  10.726   2.223
 2769SOL    HW210147   4.402  10.826   2.330
 2770SOL     OW10148  14.079  12.667   7.667
 2770SOL    HW110149  14.107  12.664   7.759
 2770SOL    HW210150  14.028  12.587   7.655
 2771SOL     OW10151   2.186  11.894   8.880
 2771SOL    HW110152   2.195  11.869   8.788
 2771SOL    HW210153   2.273  11.926   8.905
 2772SOL     OW10154   3.422   0.271   8.942
 2772SOL    HW110155   3.483   0.277   8.868
 2772SOL    HW210156   3.445   0.344   8.999
 2773SOL     OW10157   9.778  13.965   5.812
 2773SOL    HW110158   9.736  13.888   5.851
 2773SOL    HW210159   9.737  13.974   5.726
 2774SOL     OW10160  10.950   2.906   7.723
 2774SOL    HW110161  10.910   2.820   7.739
 2774SOL    HW210162  10.892   2.948   7.659
 2775SOL     OW10163  10.075  12.068   9.907
 2775SOL    HW110164   9.988  12.100   9.931
 2775SOL    HW210165  10.060  11.979   9.874
 2776SOL     OW10166   4.316  12.258   0.227
 2776SOL    HW110167   4.379  12.186   0.222
 2776SOL    HW210168   4.353  12.318   0.292
 2777SOL     OW10169  14.156  13.241   8.853
 2777SOL    HW110170  14.197  13.263   8.769
 2777SOL    HW210171  14.100  13.316   8.872
 2778SOL     OW10172  11.309   8.507  11.156
 2778SOL    HW110173  11.218   8.491  11.182
 2778SOL    HW210174  11.350   8.545  11.234
 2779SOL     OW10175   3.766   9.273  12.053
 2779SOL    HW110176   3.780   9.223  11.973
 2779SOL    HW210177   3.700   9.338  12.031
 2780SOL     OW10178  14.231  12.104   3.572
 2780SOL    HW110179  14.155  12.160   3.586
 2780SOL    HW210180  14.255  12.073   3.659
 2781SOL     OW10181   9.572   7.798  12.127
 2781SOL    HW110182   9.665   7.781  12.142
 2781SOL    HW210183   9.541   7.835  12.209
 2782SOL     OW10184   9.445   6.505  10.502
 2782SOL    HW110185   9.395   6.587  10.501
 2782SOL    HW210186   9.440   6.473  10.413
 2783SOL     OW10187   4.299   0.075   3.698
 2783SOL    HW110188   4.204   0.069   3.707
 2783SOL    HW210189   4.331  14.869   3.726
 2784SOL     OW10190   3.481  10.355   9.638
 2784SOL    HW110191   3.561  10.403   9.619
 2784SOL    HW210192   3.477  10.287   9.570
 2785SOL     OW10193  10.218  14.267   9.401
 2785SOL    HW110194  10.143  14.244   9.346
 2785SOL    HW210195  10.241  14.186   9.446
 2786SOL     OW10196   2.406   4.474   4.347
 2786SOL    HW110197   2.488   4.499   4.304
 2786SOL    HW210198   2.372   4.555   4.384
 2787SOL     OW10199  11.863   9.270  14.384
 2787SOL    HW110200  11.952   9.241  14.402
 2787SOL    HW210201  11.809   9.221  14.446
 2788SOL     OW10202   7.889   3.306   4.155
 2788SOL    HW110203   7.938   3.230   4.187
 2788SOL    HW210204   7.801   3.272   4.140
 2789SOL     OW10205   3.289   5.308   8.476
 2789SOL    HW110206   3.223   5.375   8.462
 2789SOL    HW210207   3.366   5.339   8.428
 2790SOL     OW10208  11.382   5.168   6.130
 2790SOL    HW110209  11.338   5.222   6.196
 2790SOL    HW210210  11.312   5.114   6.093
 2791SOL     OW10211   8.727   0.467   5.833
 2791SOL    HW110212   8.806   0.469   5.779
 2791SOL    HW210213   8.734   0.545   5.888
 2792SOL     OW10214   3.944   7.860   4.757
 2792SOL    HW110215   3.877   7.868   4.689
 2792SOL    HW210216   3.951   7.947   4.795
 2793SOL     OW10217   2.216   0.332  11.869
 2793SOL    HW110218   2.183   0.364  11.786
 2793SOL    HW210219   2.261   0.407  11.908
 2794SOL     OW10220   8.492   4.815   6.399
 2794SOL    HW110221   8.417   4.816   6.457
 2794SOL    HW210222   8.508   4.907   6.377
 2795SOL     OW10223  14.566   6.321   3.873
 2795SOL    HW110224  14.474   6.319   3.847
 2795SOL    HW210225  14.613   6.283   3.799
 2796SOL     OW10226   2.255   0.678   5.689
 2796SOL    HW110227   2.326   0.624   5.725
 2796SOL    HW210228   2.186   0.615   5.668
 2797SOL     OW10229   0.742  11.615  12.736
 2797SOL    HW110230   0.717  11.625  12.828
 2797SOL    HW210231   0.837  11.601  12.739
 2798SOL     OW10232   0.426   0.471   7.275
 2798SOL    HW110233   0.520   0.488   7.274
 2798SOL    HW210234   0.396   0.495   7.187
 2799SOL     OW10235  13.568   1.668   6.320
 2799SOL    HW110236  13.525   1.591   6.283
 2799SOL    HW210237  13.534   1.673   6.410
 2800SOL     OW10238  14.805  14.236   9.037
 2800SOL    HW110239  14.748  14.272   8.969
 2800SOL    HW210240   0.011  14.227   8.994
 2801SOL     OW10241  12.569   9.019   5.539
 2801SOL    HW110242  12.509   9.091   5.559
 2801SOL    HW210243  12.537   8.946   5.593
 2802SOL     OW10244   8.967   4.029  11.036
 2802SOL    HW110245   8.883   3.992  11.008
 2802SOL    HW210246   8.969   4.116  10.996
 2803SOL     OW10247  13.913   0.664   5.059
 2803SOL    HW110248  13.926   0.748   5.015
 2803SOL    HW210249  14.001   0.636   5.085
 2804SOL     OW10250  13.228   2.353  12.764
 2804SOL    HW110251  13.229   2.408  12.685
 2804SOL    HW210252  13.148   2.378  12.810
 2805SOL     OW10253   0.269   1.686   2.191
 2805SOL    HW110254   0.304   1.762   2.144
 2805SOL    HW210255   0.180   1.675   2.156
 2806SOL     OW10256   6.515   4.167  14.366
 2806SOL    HW110257   6.549   4.126  14.287
 2806SOL    HW210258   6.425   4.136  14.373
 2807SOL     OW10259   5.585   5.383  14.119
 2807SOL    HW110260   5.546   5.306  14.077
 2807SOL    HW210261   5.656   5.348  14.172
 2808SOL     OW10262   1.285   3.232  12.188
 2808SOL    HW110263   1.242   3.292  12.126
 2808SOL    HW210264   1.234   3.151  12.181
 2809SOL     OW10265   5.716   0.888   1.070
 2809SOL    HW110266   5.739   0.841   1.150
 2809SOL    HW210267   5.627   0.860   1.050
 2810SOL     OW10268  12.632   1.462  12.705
 2810SOL    HW110269  12.672   1.537  12.749
 2810SOL    HW210270  12.581   1.419  12.774
 2811SOL     OW10271  14.694   0.328  12.164
 2811SOL    HW110272  14.667   0.418  12.144
 2811SOL    HW210273  14.617   0.275  12.145
 2812SOL     OW10274   1.908  12.366   3.296
 2812SOL    HW110275   1.818  12.346   3.322
 2812SOL    HW210276   1.948  12.281   3.279
 2813SOL     OW10277   4.176   7.641  11.983
 2813SOL    HW110278   4.136   7.589  12.052
 2813SOL    HW210279   4.102   7.678  11.935
 2814SOL     OW10280   5.295   0.210   7.625
 2814SOL    HW110281   5.214   0.227   7.576
 2814SOL    HW210282   5.355   0.277   7.594
 2815SOL     OW10283   8.021   9.243  12.670
 2815SOL    HW110284   8.085   9.219  12.603
 2815SOL    HW210285   8.073   9.263  12.747
 2816SOL     OW10286  10.610  12.433   8.860
 2816SOL    HW110287  10.656  12.516   8.873
 2816SOL    HW210288  10.677  12.372   8.831
 2817SOL     OW10289   1.145  14.299   8.437
 2817SOL    HW110290   1.076  14.338   8.490
 2817SOL    HW210291   1.100  14.236   8.381
 2818SOL     OW10292  10.200   8.292   7.449
 2818SOL    HW110293  10.190   8.328   7.537
 2818SOL    HW210294  10.278   8.335   7.414
 2819SOL     OW10295   2.107  10.671  13.320
 2819SOL    HW110296   2.030  10.726  13.306
 2819SOL    HW210297   2.181  10.730  13.306
 2820SOL     OW10298   6.280   8.197  11.049
 2820SOL    HW110299   6.358   8.236  11.089
 2820SOL    HW210300   6.290   8.103  11.060
 2821SOL     OW10301   6.794   8.921   7.445
 2821SOL    HW110302   6.701   8.929   7.467
 2821SOL    HW210303   6.817   9.007   7.410
 2822SOL     OW10304  12.729   0.292   4.829
 2822SOL    HW110305  12.710   0.288   4.736
 2822SOL    HW210306  12.756   0.203   4.852
 2823SOL     OW10307  11.344   5.399   0.209
 2823SOL    HW110308  11.294   5.453   0.270
 2823SOL    HW210309  11.373   5.324   0.261
 2824SOL     OW10310   4.616  11.901  13.546
 2824SOL    HW110311   4.602  11.934  13.635
 2824SOL    HW210312   4.680  11.961  13.508
 2825SOL     OW10313   6.780   9.477   4.749
 2825SOL    HW110314   6.760   9.568   4.725
 2825SOL    HW210315   6.867   9.480   4.786
 2826SOL     OW10316  14.778  11.448   6.512
 2826SOL    HW110317  14.788  11.513   6.441
 2826SOL    HW210318  14.758  11.366   6.466
 2827SOL     OW10319   8.249   7.788  12.595
 2827SOL    HW110320   8.184   7.847  12.633
 2827SOL    HW210321   8.331   7.811  12.638
 2828SOL     OW10322  14.615  12.595   3.343
 2828SOL    HW110323  14.634  12.651   3.268
 2828SOL    HW210324  14.594  12.656   3.414
 2829SOL     OW10325   1.245   0.904   2.432
 2829SOL    HW110326   1.243   0.929   2.340
 2829SOL    HW210327   1.154   0.884   2.453
 2830SOL     OW10328   6.211   2.019  11.837
 2830SOL    HW110329   6.185   2.028  11.929
 2830SOL    HW210330   6.177   1.934  11.810
 2831SOL     OW10331   3.883  14.564  10.952
 2831SOL    HW110332   3.849  14.544  11.039
 2831SOL    HW210333   3.924  14.650  10.961
 2832SOL     OW10334  13.171   5.495  14.180
 2832SOL    HW110335  13.083   5.521  14.208
 2832SOL    HW210336  13.166   5.492  14.085
 2833SOL     OW10337  12.467   5.763   2.466
 2833SOL    HW110338  12.492   5.680   2.508
 2833SOL    HW210339  12.464   5.742   2.373
 2834SOL     OW10340   5.815  13.207  11.089
 2834SOL    HW110341   5.776  13.288  11.055
 2834SOL    HW210342   5.826  13.152  11.011
 2835SOL     OW10343   5.713   1.221  10.857
 2835SOL    HW110344   5.801   1.221  10.895
 2835SOL    HW210345   5.724   1.260  10.770
 2836SOL     OW10346   6.555  13.647   6.198
 2836SOL    HW110347   6.588  13.562   6.169
 2836SOL    HW210348   6.461  13.633   6.209
 2837SOL     OW10349  11.487   2.128   9.622
 2837SOL    HW110350  11.451   2.101   9.537
 2837SOL    HW210351  11.421   2.188   9.658
 2838SOL     OW10352   1.449   4.668   5.145
 2838SOL    HW110353   1.376   4.682   5.205
 2838SOL    HW210354   1.459   4.573   5.141
 2839SOL     OW10355  10.270  12.077   4.112
 2839SOL    HW110356  10.334  12.023   4.067
 2839SOL    HW210357  10.213  12.110   4.042
 2840SOL     OW10358   4.643  10.359   7.925
 2840SOL    HW110359   4.607  10.293   7.984
 2840SOL    HW210360   4.616  10.443   7.962
 2841SOL     OW10361   3.897   1.892   2.086
 2841SOL    HW110362   3.825   1.954   2.069
 2841SOL    HW210363   3.862   1.833   2.153
 2842SOL     OW10364   9.933   7.167  12.623
 2842SOL    HW110365   9.865   7.233  12.642
 2842SOL    HW210366   9.995   7.213  12.567
 2843SOL     OW10367  10.117   6.450  11.309
 2843SOL    HW110368  10.165   6.374  11.275
 2843SOL    HW210369  10.030   6.442  11.271
 2844SOL     OW10370   6.726   2.241  14.048
 2844SOL    HW110371   6.751   2.199  14.130
 2844SOL    HW210372   6.702   2.168  13.990
 2845SOL     OW10373   5.861   9.599  12.565
 2845SOL    HW110374   5.768   9.590  12.585
 2845SOL    HW210375   5.905   9.545  12.631
 2846SOL     OW10376   9.390   2.280  10.670
 2846SOL    HW110377   9.443   2.212  10.711
 2846SOL    HW210378   9.437   2.304  10.591
 2847SOL     OW10379   3.887  10.928   1.439
 2847SOL    HW110380   3.891  10.924   1.343
 2847SOL    HW210381   3.893  11.021   1.459
 2848SOL     OW10382   8.370   6.956  13.796
 2848SOL    HW110383   8.344   6.973  13.706
 2848SOL    HW210384   8.454   6.911  13.788
 2849SOL     OW10385   0.738  12.169   4.137
 2849SOL    HW110386   0.720  12.075   4.130
 2849SOL    HW210387   0.708  12.193   4.224
 2850SOL     OW10388   1.857   9.985   6.829
 2850SOL    HW110389   1.860  10.032   6.746
 2850SOL    HW210390   1.812   9.902   6.809
 2851SOL     OW10391  11.960   9.955  11.855
 2851SOL    HW110392  11.944   9.863  11.836
 2851SOL    HW210393  11.948   9.963  11.949
 2852SOL     OW10394   1.028   7.661  10.017
 2852SOL    HW110395   0.987   7.747  10.006
 2852SOL    HW210396   1.117   7.680  10.047
 2853SOL     OW10397  12.845   1.879   1.127
 2853SOL    HW110398  12.750   1.882   1.138
 2853SOL    HW210399  12.880   1.871   1.215
 2854SOL     OW10400  13.364  14.527  10.418
 2854SOL    HW110401  13.410  14.450  10.387
 2854SOL    HW210402  13.413  14.601  10.380
 2855SOL     OW10403  11.282   3.306   6.482
 2855SOL    HW110404  11.255   3.364   6.553
 2855SOL    HW210405  11.256   3.219   6.510
 2856SOL     OW10406  11.923   1.215   6.864
 2856SOL    HW110407  11.829   1.209   6.875
 2856SOL    HW210408  11.958   1.137   6.906
 2857SOL     OW10409  12.224   4.501   6.767
 2857SOL    HW110410  12.201   4.415   6.733
 2857SOL    HW210411  12.306   4.487   6.815
 2858SOL     OW10412   2.539   5.703   7.793
 2858SOL    HW110413   2.508   5.674   7.879
 2858SOL    HW210414   2.632   5.725   7.807
 2859SOL     OW10415   7.296   8.290  13.001
 2859SOL    HW110416   7.340   8.368  13.035
 2859SOL    HW210417   7.318   8.290  12.908
 2860SOL     OW10418   6.733   3.735   1.151
 2860SOL    HW110419   6.720   3.713   1.244
 2860SOL    HW210420   6.820   3.775   1.148
 2861SOL     OW10421   6.503   6.206  11.137
 2861SOL    HW110422   6.433   6.205  11.072
 2861SOL    HW210423   6.528   6.298  11.144
 2862SOL     OW10424   6.051  12.378   3.809
 2862SOL    HW110425   6.077  12.324   3.734
 2862SOL    HW210426   6.117  12.447   3.814
 2863SOL     OW10427   3.193   6.363  11.074
 2863SOL    HW110428   3.135   6.432  11.108
 2863SOL    HW210429   3.278   6.380  11.115
 2864SOL     OW10430   9.371   6.695   0.258
 2864SOL    HW110431   9.330   6.737   0.182
 2864SOL    HW210432   9.369   6.602   0.238
 2865SOL     OW10433   1.016   6.875  10.175
 2865SOL    HW110434   1.033   6.969  10.171
 2865SOL    HW210435   0.920   6.869  10.178
 2866SOL     OW10436   4.843   0.607   4.653
 2866SOL    HW110437   4.849   0.697   4.620
 2866SOL    HW210438   4.835   0.553   4.575
 2867SOL     OW10439   6.892   6.316   0.552
 2867SOL    HW110440   6.903   6.399   0.505
 2867SOL    HW210441   6.965   6.262   0.524
 2868SOL     OW10442  11.849   6.269  11.811
 2868SOL    HW110443  11.782   6.231  11.754
 2868SOL    HW210444  11.907   6.317  11.751
 2869SOL     OW10445   3.738  11.057   1.702
 2869SOL    HW110446   3.770  10.968   1.720
 2869SOL    HW210447   3.696  11.050   1.616
 2870SOL     OW10448  13.434   6.241   5.031
 2870SOL    HW110449  13.352   6.245   4.981
 2870SOL    HW210450  13.473   6.328   5.021
 2871SOL     OW10451   7.277   8.394   7.208
 2871SOL    HW110452   7.204   8.395   7.271
 2871SOL    HW210453   7.309   8.304   7.211
 2872SOL     OW10454   8.108   3.688  11.877
 2872SOL    HW110455   8.063   3.756  11.926
 2872SOL    HW210456   8.189   3.672  11.926
 2873SOL     OW10457   0.253   6.362  10.161
 2873SOL    HW110458   0.204   6.425  10.214
 2873SOL    HW210459   0.185   6.321  10.106
 2874SOL     OW10460   8.168   5.231  11.252
 2874SOL    HW110461   8.251   5.224  11.205
 2874SOL    HW210462   8.166   5.154  11.309
 2875SOL     OW10463   1.770   1.786   3.540
 2875SOL    HW110464   1.734   1.848   3.604
 2875SOL    HW210465   1.843   1.833   3.499
 2876SOL     OW10466   9.265  13.736   7.707
 2876SOL    HW110467   9.230  13.719   7.795
 2876SOL    HW210468   9.189  13.728   7.649
 2877SOL     OW10469   5.234   6.952   1.087
 2877SOL    HW110470   5.277   6.919   1.166
 2877SOL    HW210471   5.206   7.040   1.110
 2878SOL     OW10472   9.912  12.121  14.162
 2878SOL    HW110473   9.823  12.131  14.128
 2878SOL    HW210474   9.914  12.034  14.201
 2879SOL     OW10475   2.602   6.606   1.601
 2879SOL    HW110476   2.526   6.638   1.553
 2879SOL    HW210477   2.568   6.583   1.687
 2880SOL     OW10478   1.581   6.410   3.456
 2880SOL    HW110479   1.612   6.474   3.520
 2880SOL    HW210480   1.510   6.455   3.410
 2881SOL     OW10481   6.993  12.837  10.586
 2881SOL    HW110482   7.062  12.873  10.530
 2881SOL    HW210483   7.041  12.795  10.658
 2882SOL     OW10484   0.600  12.988   8.914
 2882SOL    HW110485   0.615  12.896   8.939
 2882SOL    HW210486   0.674  13.035   8.954
 2883SOL     OW10487   5.919   4.609   1.641
 2883SOL    HW110488   5.826   4.628   1.628
 2883SOL    HW210489   5.929   4.606   1.737
 2884SOL     OW10490   4.426  13.242   2.563
 2884SOL    HW110491   4.395  13.278   2.646
 2884SOL    HW210492   4.354  13.259   2.502
 2885SOL     OW10493   5.708  12.277   2.727
 2885SOL    HW110494   5.625  12.254   2.768
 2885SOL    HW210495   5.740  12.195   2.689
 2886SOL     OW10496   2.863   8.223   3.920
 2886SOL    HW110497   2.824   8.283   3.856
 2886SOL    HW210498   2.858   8.137   3.878
 2887SOL     OW10499  13.353  13.038   8.227
 2887SOL    HW110500  13.329  13.103   8.162
 2887SOL    HW210501  13.362  12.956   8.177
 2888SOL     OW10502   1.366  12.523   7.284
 2888SOL    HW110503   1.273  12.528   7.262
 2888SOL    HW210504   1.378  12.586   7.355
 2889SOL     OW10505   4.394  13.129   6.251
 2889SOL    HW110506   4.390  13.069   6.325
 2889SOL    HW210507   4.394  13.072   6.174
 2890SOL     OW10508   9.480   7.895   7.482
 2890SOL    HW110509   9.470   7.989   7.471
 2890SOL    HW210510   9.499   7.883   7.575
 2891SOL     OW10511  10.653   5.429   2.240
 2891SOL    HW110512  10.619   5.509   2.201
 2891SOL    HW210513  10.650   5.445   2.334
 2892SOL     OW10514   1.383  14.775   8.916
 2892SOL    HW110515   1.408  14.863   8.945
 2892SOL    HW210516   1.303  14.756   8.965
 2893SOL     OW10517   9.723   3.200   9.270
 2893SOL    HW110518   9.669   3.130   9.308
 2893SOL    HW210519   9.760   3.245   9.345
 2894SOL     OW10520  10.793   6.892   7.464
 2894SOL    HW110521  10.823   6.983   7.471
 2894SOL    HW210522  10.700   6.896   7.484
 2895SOL     OW10523   0.232   2.368  12.470
 2895SOL    HW110524   0.296   2.437  12.484
 2895SOL    HW210525   0.281   2.299  12.426
 2896SOL     OW10526   3.966   1.946  14.565
 2896SOL    HW110527   4.017   1.988  14.634
 2896SOL    HW210528   4.007   1.976  14.484
 2897SOL     OW10529   8.103   7.149   9.483
 2897SOL    HW110530   8.120   7.238   9.452
 2897SOL    HW210531   8.174   7.132   9.546
 2898SOL     OW10532   1.644   1.457   7.494
 2898SOL    HW110533   1.649   1.539   7.543
 2898SOL    HW210534   1.577   1.405   7.539
 2899SOL     OW10535   9.013   4.967  13.858
 2899SOL    HW110536   9.095   5.014  13.874
 2899SOL    HW210537   9.010   4.900  13.926
 2900SOL     OW10538   0.994   0.016   0.635
 2900SOL    HW110539   1.037   0.009   0.550
 2900SOL    HW210540   0.920  14.834   0.629
 2901SOL     OW10541   7.833   9.216   1.834
 2901SOL    HW110542   7.852   9.143   1.775
 2901SOL    HW210543   7.798   9.284   1.776
 2902SOL     OW10544   2.695   6.064   7.659
 2902SOL    HW110545   2.662   6.013   7.585
 2902SOL    HW210546   2.631   6.134   7.670
 2903SOL     OW10547   1.680   2.738   1.726
 2903SOL    HW110548   1.594   2.768   1.755
 2903SOL    HW210549   1.731   2.818   1.715
 2904SOL     OW10550   5.398  13.737  14.081
 2904SOL    HW110551   5.431  13.650  14.104
 2904SOL    HW210552   5.393  13.783  14.165
 2905SOL     OW10553  13.366   8.904   2.730
 2905SOL    HW110554  13.274   8.889   2.709
 2905SOL    HW210555  13.366   8.936   2.820
 2906SOL     OW10556  12.870  12.121  11.390
 2906SOL    HW110557  12.861  12.160  11.303
 2906SOL    HW210558  12.914  12.188  11.442
 2907SOL     OW10559   1.446   5.810  10.376
 2907SOL    HW110560   1.380   5.741  10.380
 2907SOL    HW210561   1.415   5.869  10.307
 2908SOL     OW10562   1.843  13.506   2.570
 2908SOL    HW110563   1.856  13.565   2.496
 2908SOL    HW210564   1.899  13.543   2.639
 2909SOL     OW10565  10.768   1.431   1.206
 2909SOL    HW110566  10.709   1.443   1.281
 2909SOL    HW210567  10.854   1.457   1.240
 2910SOL     OW10568  11.205   9.756   8.667
 2910SOL    HW110569  11.237   9.692   8.731
 2910SOL    HW210570  11.131   9.712   8.624
 2911SOL     OW10571   9.840   4.586  11.785
 2911SOL    HW110572   9.794   4.584  11.869
 2911SOL    HW210573   9.927   4.551  11.805
 2912SOL     OW10574  10.217   2.765   4.885
 2912SOL    HW110575  10.300   2.723   4.863
 2912SOL    HW210576  10.210   2.755   4.980
 2913SOL     OW10577   2.923   4.232  13.880
 2913SOL    HW110578   2.900   4.278  13.960
 2913SOL    HW210579   3.017   4.246  13.869
 2914SOL     OW10580  13.039   0.803  10.172
 2914SOL    HW110581  12.978   0.876  10.176
 2914SOL    HW210582  13.085   0.815  10.089
 2915SOL     OW10583  14.117   2.756  11.616
 2915SOL    HW110584  14.089   2.810  11.542
 2915SOL    HW210585  14.213   2.761  11.614
 2916SOL     OW10586   8.806  12.207   3.970
 2916SOL    HW110587   8.791  12.172   3.882
 2916SOL    HW210588   8.850  12.291   3.956
 2917SOL     OW10589  14.143  11.015   2.414
 2917SOL    HW110590  14.169  10.970   2.495
 2917SOL    HW210591  14.151  11.108   2.435
 2918SOL     OW10592   4.071   2.397   9.104
 2918SOL    HW110593   4.117   2.475   9.133
 2918SOL    HW210594   4.078   2.336   9.178
 2919SOL     OW10595   7.171   9.228   8.028
 2919SOL    HW110596   7.218   9.298   7.983
 2919SOL    HW210597   7.093   9.214   7.973
 2920SOL     OW10598   7.035   0.079   2.190
 2920SOL    HW110599   7.037   0.075   2.286
 2920SOL    HW210600   7.073  14.875   2.162
 2921SOL     OW10601  12.360  10.769  10.938
 2921SOL    HW110602  12.283  10.806  10.980
 2921SOL    HW210603  12.404  10.721  11.008
 2922SOL     OW10604   5.485   8.151   5.237
 2922SOL    HW110605   5.562   8.120   5.285
 2922SOL    HW210606   5.502   8.126   5.146
 2923SOL     OW10607   1.213  14.291   7.358
 2923SOL    HW110608   1.294  14.334   7.332
 2923SOL    HW210609   1.197  14.321   7.447
 2924SOL     OW10610  11.369  13.573  12.252
 2924SOL    HW110611  11.283  13.539  12.227
 2924SOL    HW210612  11.388  13.641  12.187
 2925SOL     OW10613  13.973   2.199  14.279
 2925SOL    HW110614  13.887   2.158  14.280
 2925SOL    HW210615  13.961   2.283  14.324
 2926SOL     OW10616  10.591  10.206   4.343
 2926SOL    HW110617  10.552  10.123   4.372
 2926SOL    HW210618  10.631  10.242   4.423
 2927SOL     OW10619   6.242   9.417   7.276
 2927SOL    HW110620   6.238   9.346   7.339
 2927SOL    HW210621   6.184   9.391   7.205
 2928SOL     OW10622   5.988   1.740   3.027
 2928SOL    HW110623   6.014   1.801   3.096
 2928SOL    HW210624   6.047   1.665   3.036
 2929SOL     OW10625   3.598  14.849  12.258
 2929SOL    HW110626   3.542  14.831  12.182
 2929SOL    HW210627   3.536  14.861  12.330
 2930SOL     OW10628   6.651   3.699  11.572
 2930SOL    HW110629   6.676   3.724  11.483
 2930SOL    HW210630   6.576   3.756  11.592
 2931SOL     OW10631   3.784   6.025   0.232
 2931SOL    HW110632   3.763   6.098   0.174
 2931SOL    HW210633   3.761   6.056   0.319
 2932SOL     OW10634   3.709   2.175   5.442
 2932SOL    HW110635   3.781   2.124   5.405
 2932SOL    HW210636   3.698   2.141   5.531
 2933SOL     OW10637  10.779   2.200   9.789
 2933SOL    HW110638  10.831   2.146   9.729
 2933SOL    HW210639  10.690   2.164   9.782
 2934SOL     OW10640   5.787   6.763   3.666
 2934SOL    HW110641   5.868   6.740   3.710
 2934SOL    HW210642   5.791   6.858   3.656
 2935SOL     OW10643  12.645   5.199   6.675
 2935SOL    HW110644  12.671   5.269   6.615
 2935SOL    HW210645  12.671   5.230   6.761
 2936SOL     OW10646  13.138   8.139  12.615
 2936SOL    HW110647  13.085   8.071  12.572
 2936SOL    HW210648  13.089   8.160  12.695
 2937SOL     OW10649   0.936  13.098   8.466
 2937SOL    HW110650   0.973  13.159   8.530
 2937SOL    HW210651   0.997  13.025   8.465
 2938SOL     OW10652  10.471   9.272  11.752
 2938SOL    HW110653  10.526   9.260  11.675
 2938SOL    HW210654  10.501   9.206  11.815
 2939SOL     OW10655   9.748   4.046   5.597
 2939SOL    HW110656   9.733   3.953   5.616
 2939SOL    HW210657   9.667   4.075   5.554
 2940SOL     OW10658   9.105   9.198   1.025
 2940SOL    HW110659   9.013   9.220   1.042
 2940SOL    HW210660   9.124   9.127   1.086
 2941SOL     OW10661   8.396   9.702   6.381
 2941SOL    HW110662   8.406   9.725   6.474
 2941SOL    HW210663   8.307   9.667   6.374
 2942SOL     OW10664   1.647   4.224   5.750
 2942SOL    HW110665   1.645   4.269   5.666
 2942SOL    HW210666   1.736   4.188   5.757
 2943SOL     OW10667   6.934  11.643   8.364
 2943SOL    HW110668   6.889  11.560   8.375
 2943SOL    HW210669   7.022  11.619   8.336
 2944SOL     OW10670   1.505  11.915   9.548
 2944SOL    HW110671   1.440  11.901   9.616
 2944SOL    HW210672   1.513  11.831   9.504
 2945SOL     OW10673   9.207   5.807   3.091
 2945SOL    HW110674   9.236   5.755   3.166
 2945SOL    HW210675   9.200   5.896   3.126
 2946SOL     OW10676   3.644   9.208   9.881
 2946SOL    HW110677   3.600   9.273   9.936
 2946SOL    HW210678   3.705   9.164   9.941
 2947SOL     OW10679   6.030   5.214  13.089
 2947SOL    HW110680   6.051   5.149  13.156
 2947SOL    HW210681   6.017   5.163  13.009
 2948SOL     OW10682   9.910  11.587  12.939
 2948SOL    HW110683   9.925  11.612  12.848
 2948SOL    HW210684   9.849  11.514  12.934
 2949SOL     OW10685   3.100   0.319   1.369
 2949SOL    HW110686   3.126   0.332   1.461
 2949SOL    HW210687   3.030   0.254   1.373
 2950SOL     OW10688   2.478   4.540   1.975
 2950SOL    HW110689   2.419   4.580   1.912
 2950SOL    HW210690   2.421   4.489   2.032
 2951SOL     OW10691   7.015  14.620  11.146
 2951SOL    HW110692   6.958  14.637  11.221
 2951SOL    HW210693   7.027  14.525  11.146
 2952SOL     OW10694  13.139  11.232   5.156
 2952SOL    HW110695  13.142  11.138   5.138
 2952SOL    HW210696  13.107  11.237   5.246
 2953SOL     OW10697   0.413  12.030   1.489
 2953SOL    HW110698   0.443  11.959   1.433
 2953SOL    HW210699   0.396  11.989   1.573
 2954SOL     OW10700  10.075   9.057   5.045
 2954SOL    HW110701  10.056   9.098   5.129
 2954SOL    HW210702   9.990   9.051   5.001
 2955SOL     OW10703  13.688  13.504   2.479
 2955SOL    HW110704  13.635  13.525   2.556
 2955SOL    HW210705  13.744  13.581   2.467
 2956SOL     OW10706   6.708   0.183   7.722
 2956SOL    HW110707   6.746   0.145   7.802
 2956SOL    HW210708   6.650   0.252   7.754
 2957SOL     OW10709   9.122   4.034   2.308
 2957SOL    HW110710   9.077   4.076   2.235
 2957SOL    HW210711   9.151   3.950   2.272
 2958SOL     OW10712  12.137   8.277  10.614
 2958SOL    HW110713  12.139   8.282  10.518
 2958SOL    HW210714  12.219   8.319  10.641
 2959SOL     OW10715   1.723  12.480   0.507
 2959SOL    HW110716   1.726  12.507   0.599
 2959SOL    HW210717   1.639  12.435   0.497
 2960SOL     OW10718  13.890   6.063   8.499
 2960SOL    HW110719  13.849   6.099   8.578
 2960SOL    HW210720  13.866   5.971   8.499
 2961SOL     OW10721  10.448   9.862   9.391
 2961SOL    HW110722  10.377   9.915   9.428
 2961SOL    HW210723  10.434   9.864   9.297
 2962SOL     OW10724   5.278  13.220  13.921
 2962SOL    HW110725   5.372  13.221  13.903
 2962SOL    HW210726   5.254  13.127  13.918
 2963SOL     OW10727   2.023   1.362   1.692
 2963SOL    HW110728   1.994   1.297   1.629
 2963SOL    HW210729   2.036   1.442   1.641
 2964SOL     OW10730  10.133  12.544  13.457
 2964SOL    HW110731  10.218  12.545  13.502
 2964SOL    HW210732  10.139  12.615  13.393
 2965SOL     OW10733  14.851  13.750   7.908
 2965SOL    HW110734  14.790  13.822   7.923
 2965SOL    HW210735   0.005  13.765   7.820
 2966SOL     OW10736  11.632   7.313   5.498
 2966SOL    HW110737  11.585   7.396   5.502
 2966SOL    HW210738  11.576   7.250   5.542
 2967SOL     OW10739   5.487   9.226  10.902
 2967SOL    HW110740   5.539   9.306  10.902
 2967SOL    HW210741   5.476   9.205  10.995
 2968SOL     OW10742  10.377   6.801   6.837
 2968SOL    HW110743  10.361   6.758   6.921
 2968SOL    HW210744  10.290   6.831   6.809
 2969SOL     OW10745  10.927   5.388  14.410
 2969SOL    HW110746  10.868   5.451  14.366
 2969SOL    HW210747  10.970   5.440  14.478
 2970SOL     OW10748   2.996   5.054  13.860
 2970SOL    HW110749   2.930   5.094  13.804
 2970SOL    HW210750   2.950   4.983  13.905
 2971SOL     OW10751  13.151   3.767  11.888
 2971SOL    HW110752  13.060   3.746  11.868
 2971SOL    HW210753  13.200   3.738  11.811
 2972SOL     OW10754   3.813  13.992   0.287
 2972SOL    HW110755   3.895  14.035   0.314
 2972SOL    HW210756   3.826  13.974   0.194
 2973SOL     OW10757   7.232   3.745  11.705
 2973SOL    HW110758   7.211   3.837  11.717
 2973SOL    HW210759   7.246   3.712  11.794
 2974SOL     OW10760   0.233   3.071  13.645
 2974SOL    HW110761   0.264   3.015  13.717
 2974SOL    HW210762   0.307   3.076  13.585
 2975SOL     OW10763  11.180  14.497  11.869
 2975SOL    HW110764  11.115  14.562  11.843
 2975SOL    HW210765  11.251  14.549  11.908
 2976SOL     OW10766   6.852   8.046   9.358
 2976SOL    HW110767   6.854   7.951   9.345
 2976SOL    HW210768   6.783   8.059   9.423
 2977SOL     OW10769   6.696   1.835  11.506
 2977SOL    HW110770   6.653   1.902  11.559
 2977SOL    HW210771   6.774   1.878  11.471
 2978SOL     OW10772   1.996   0.066   0.404
 2978SOL    HW110773   1.907   0.035   0.422
 2978SOL    HW210774   1.984   0.152   0.365
 2979SOL     OW10775   5.992  13.681  10.439
 2979SOL    HW110776   5.898  13.661  10.445
 2979SOL    HW210777   6.004  13.713  10.349
 2980SOL     OW10778  14.874  13.418   2.033
 2980SOL    HW110779  14.794  13.382   2.072
 2980SOL    HW210780   0.009  13.500   2.079
 2981SOL     OW10781   2.196   6.805   2.446
 2981SOL    HW110782   2.220   6.803   2.353
 2981SOL    HW210783   2.204   6.714   2.475
 2982SOL     OW10784   0.941   8.845  12.322
 2982SOL    HW110785   1.028   8.844  12.363
 2982SOL    HW210786   0.936   8.929  12.278
 2983SOL     OW10787  13.122  12.066   1.311
 2983SOL    HW110788  13.047  12.124   1.327
 2983SOL    HW210789  13.089  11.999   1.252
 2984SOL     OW10790  11.048   3.886   4.691
 2984SOL    HW110791  11.135   3.892   4.651
 2984SOL    HW210792  11.061   3.835   4.770
 2985SOL     OW10793   6.615   6.492   5.160
 2985SOL    HW110794   6.706   6.467   5.177
 2985SOL    HW210795   6.565   6.411   5.169
 2986SOL     OW10796  14.186  10.856  11.768
 2986SOL    HW110797  14.251  10.804  11.719
 2986SOL    HW210798  14.201  10.946  11.738
 2987SOL     OW10799  10.312  14.345  10.759
 2987SOL    HW110800  10.261  14.407  10.811
 2987SOL    HW210801  10.398  14.387  10.749
 2988SOL     OW10802   6.060  12.156  11.613
 2988SOL    HW110803   6.019  12.221  11.557
 2988SOL    HW210804   6.064  12.197  11.700
 2989SOL     OW10805  12.411   2.436   0.290
 2989SOL    HW110806  12.320   2.426   0.261
 2989SOL    HW210807  12.414   2.525   0.326
 2990SOL     OW10808   3.653  14.704  14.150
 2990SOL    HW110809   3.640  14.797  14.165
 2990SOL    HW210810   3.577  14.662  14.191
 2991SOL     OW10811   5.872   6.499   4.346
 2991SOL    HW110812   5.910   6.508   4.433
 2991SOL    HW210813   5.927   6.555   4.290
 2992SOL     OW10814   2.623  13.718  10.309
 2992SOL    HW110815   2.565  13.732  10.234
 2992SOL    HW210816   2.580  13.648  10.358
 2993SOL     OW10817   1.139   1.225  10.285
 2993SOL    HW110818   1.066   1.284  10.265
 2993SOL    HW210819   1.133   1.156  10.218
 2994SOL     OW10820  11.309  12.549   8.310
 2994SOL    HW110821  11.240  12.604   8.345
 2994SOL    HW210822  11.308  12.565   8.216
 2995SOL     OW10823   2.939   7.508  10.195
 2995SOL    HW110824   2.950   7.529  10.288
 2995SOL    HW210825   2.845   7.493  10.184
 2996SOL     OW10826   3.899   2.416   5.246
 2996SOL    HW110827   3.812   2.432   5.283
 2996SOL    HW210828   3.952   2.489   5.276
 2997SOL     OW10829  10.622   7.256  12.406
 2997SOL    HW110830  10.607   7.348  12.428
 2997SOL    HW210831  10.710   7.238  12.440
 2998SOL     OW10832  10.600   4.370   4.970
 2998SOL    HW110833  10.580   4.460   4.944
 2998SOL    HW210834  10.514   4.330   4.983
 2999SOL     OW10835   4.950   3.120   2.101
 2999SOL    HW110836   4.927   3.110   2.009
 2999SOL    HW210837   4.959   3.030   2.133
 3000SOL     OW10838   4.838  10.484  10.204
 3000SOL    HW110839   4.874  10.511  10.288
 3000SOL    HW210840   4.805  10.565  10.165
 3001SOL     OW10841  11.292   3.506   6.809
 3001SOL    HW110842  11.351   3.492   6.883
 3001SOL    HW210843  11.336   3.571   6.754
 3002SOL     OW10844  12.935   0.545   7.878
 3002SOL    HW110845  13.017   0.513   7.841
 3002SOL    HW210846  12.871   0.477   7.855
 3003SOL     OW10847   3.867   9.035   8.717
 3003SOL    HW110848   3.850   9.030   8.623
 3003SOL    HW210849   3.782   9.022   8.758
 3004SOL     OW10850  13.701   3.404   1.011
 3004SOL    HW110851  13.797   3.408   1.011
 3004SOL    HW210852  13.680   3.337   1.077
 3005SOL     OW10853  10.229  13.142   4.824
 3005SOL    HW110854  10.290  13.194   4.772
 3005SOL    HW210855  10.150  13.136   4.771
 3006SOL     OW10856  14.083   7.905   2.545
 3006SOL    HW110857  14.149   7.957   2.500
 3006SOL    HW210858  14.017   7.887   2.479
 3007SOL     OW10859   5.070   5.043   9.369
 3007SOL    HW110860   5.065   4.962   9.419
 3007SOL    HW210861   5.077   5.015   9.278
 3008SOL     OW10862  13.925   0.305  12.608
 3008SOL    HW110863  13.882   0.351  12.536
 3008SOL    HW210864  14.008   0.275  12.573
 3009SOL     OW10865   6.907   1.371   6.196
 3009SOL    HW110866   6.930   1.459   6.225
 3009SOL    HW210867   6.868   1.384   6.109
 3010SOL     OW10868   1.706   3.623   2.924
 3010SOL    HW110869   1.743   3.537   2.943
 3010SOL    HW210870   1.645   3.639   2.997
 3011SOL     OW10871  14.863  11.559  10.258
 3011SOL    HW110872   0.024  11.611  10.188
 3011SOL    HW210873  14.790  11.612  10.288
 3012SOL     OW10874   9.923  11.329  10.985
 3012SOL    HW110875   9.944  11.237  10.970
 3012SOL    HW210876   9.865  11.354  10.913
 3013SOL     OW10877  11.420   6.005   4.784
 3013SOL    HW110878  11.326   6.014   4.796
 3013SOL    HW210879  11.429   5.954   4.703
 3014SOL     OW10880   0.394  10.367   6.125
 3014SOL    HW110881   0.305  10.403   6.127
 3014SOL    HW210882   0.417  10.354   6.217
 3015SOL     OW10883  14.844   0.864   8.409
 3015SOL    HW110884  14.784   0.831   8.343
 3015SOL    HW210885   0.018   0.929   8.363
 3016SOL     OW10886   6.291  10.400   0.377
 3016SOL    HW110887   6.286  10.492   0.401
 3016SOL    HW210888   6.369  10.367   0.423
 3017SOL     OW10889   9.194   5.973  10.356
 3017SOL    HW110890   9.111   5.952  10.398
 3017SOL    HW210891   9.223   5.891  10.316
 3018SOL     OW10892   1.334   8.137   4.626
 3018SOL    HW110893   1.308   8.181   4.545
 3018SOL    HW210894   1.269   8.165   4.690
 3019SOL     OW10895  12.696   3.380   2.716
 3019SOL    HW110896  12.639   3.412   2.787
 3019SOL    HW210897  12.639   3.325   2.663
 3020SOL     OW10898   5.292  13.725   1.513
 3020SOL    HW110899   5.385  13.731   1.493
 3020SOL    HW210900   5.269  13.635   1.494
 3021SOL     OW10901   6.543   1.643  14.299
 3021SOL    HW110902   6.452   1.614  14.297
 3021SOL    HW210903   6.560   1.662  14.392
 3022SOL     OW10904   1.945   9.058  11.332
 3022SOL    HW110905   1.946   9.039  11.238
 3022SOL    HW210906   1.979   8.978  11.373
 3023SOL     OW10907   7.847  11.913  14.757
 3023SOL    HW110908   7.828  11.883  14.668
 3023SOL    HW210909   7.889  11.837  14.799
 3024SOL     OW10910  12.031   7.512   8.126
 3024SOL    HW110911  11.980   7.457   8.068
 3024SOL    HW210912  12.122   7.485   8.112
 3025SOL     OW10913  11.836   4.147   5.500
 3025SOL    HW110914  11.907   4.103   5.548
 3025SOL    HW210915  11.812   4.221   5.555
 3026SOL     OW10916   7.840   1.330   5.362
 3026SOL    HW110917   7.826   1.406   5.307
 3026SOL    HW210918   7.932   1.336   5.388
 3027SOL     OW10919  12.202   9.679  10.921
 3027SOL    HW110920  12.194   9.713  10.832
 3027SOL    HW210921  12.229   9.588  10.910
 3028SOL     OW10922  12.249   7.455   7.947
 3028SOL    HW110923  12.187   7.475   7.877
 3028SOL    HW210924  12.246   7.359   7.956
 3029SOL     OW10925   4.093   1.299   9.385
 3029SOL    HW110926   4.010   1.262   9.356
 3029SOL    HW210927   4.104   1.266   9.475
 3030SOL     OW10928  11.853   4.788   0.610
 3030SOL    HW110929  11.776   4.762   0.661
 3030SOL    HW210930  11.874   4.876   0.642
 3031SOL     OW10931   3.403  11.292   4.706
 3031SOL    HW110932   3.313  11.263   4.722
 3031SOL    HW210933   3.394  11.366   4.646
 3032SOL     OW10934   1.759   1.370  10.046
 3032SOL    HW110935   1.763   1.308   9.974
 3032SOL    HW210936   1.755   1.456  10.005
 3033SOL     OW10937   2.129  12.506   5.570
 3033SOL    HW110938   2.090  12.419   5.568
 3033SOL    HW210939   2.060  12.564   5.537
 3034SOL     OW10940   1.962   1.736   8.698
 3034SOL    HW110941   2.004   1.809   8.743
 3034SOL    HW210942   1.868   1.753   8.706
 3035SOL     OW10943  10.586   6.711  14.409
 3035SOL    HW110944  10.514   6.716  14.346
 3035SOL    HW210945  10.585   6.796  14.454
 3036SOL     OW10946   9.136  12.652  12.798
 3036SOL    HW110947   9.089  12.587  12.850
 3036SOL    HW210948   9.153  12.724  12.859
 3037SOL     OW10949   8.224  14.726  11.653
 3037SOL    HW110950   8.199  14.801  11.599
 3037SOL    HW210951   8.149  14.667  11.646
 3038SOL     OW10952  14.051   0.009   9.734
 3038SOL    HW110953  14.003   0.024   9.816
 3038SOL    HW210954  14.143   0.015   9.759
 3039SOL     OW10955   3.581   9.984  10.467
 3039SOL    HW110956   3.649   9.992  10.535
 3039SOL    HW210957   3.597  10.058  10.409
 3040SOL     OW10958   6.900   5.374   6.750
 3040SOL    HW110959   6.901   5.462   6.786
 3040SOL    HW210960   6.838   5.377   6.678
 3041SOL     OW10961   9.592   6.039  13.073
 3041SOL    HW110962   9.556   6.117  13.114
 3041SOL    HW210963   9.602   6.063  12.981
 3042SOL     OW10964   4.042  14.183  14.553
 3042SOL    HW110965   4.104  14.166  14.624
 3042SOL    HW210966   4.077  14.260  14.509
 3043SOL     OW10967  11.978   2.287   5.593
 3043SOL    HW110968  11.987   2.282   5.498
 3043SOL    HW210969  11.884   2.281   5.608
 3044SOL     OW10970   4.788   9.733  12.149
 3044SOL    HW110971   4.833   9.685  12.079
 3044SOL    HW210972   4.754   9.811  12.106
 3045SOL     OW10973   3.363  10.662   4.070
 3045SOL    HW110974   3.364  10.576   4.112
 3045SOL    HW210975   3.423  10.653   3.996
 3046SOL     OW10976   8.645  13.738   6.807
 3046SOL    HW110977   8.625  13.787   6.727
 3046SOL    HW210978   8.574  13.761   6.867
 3047SOL     OW10979  11.417  10.008   0.956
 3047SOL    HW110980  11.511  10.007   0.975
 3047SOL    HW210981  11.375  10.000   1.042
 3048SOL     OW10982  13.362  14.302   7.245
 3048SOL    HW110983  13.301  14.348   7.303
 3048SOL    HW210984  13.382  14.366   7.177
 3049SOL     OW10985   3.216   7.090   2.255
 3049SOL    HW110986   3.191   7.005   2.219
 3049SOL    HW210987   3.134   7.126   2.288
 3050SOL     OW10988   9.885   4.941   6.438
 3050SOL    HW110989   9.968   4.894   6.436
 3050SOL    HW210990   9.840   4.915   6.358
 3051SOL     OW10991   6.407   3.314   9.711
 3051SOL    HW110992   6.328   3.367   9.719
 3051SOL    HW210993   6.431   3.320   9.618
 3052SOL     OW10994   0.283   9.199   5.941
 3052SOL    HW110995   0.374   9.172   5.948
 3052SOL    HW210996   0.287   9.294   5.930
 3053SOL     OW10997  12.862  11.292  10.557
 3053SOL    HW110998  12.866  11.374  10.605
 3053SOL    HW210999  12.869  11.224  10.625
 3054SOL     OW11000   5.327   7.221   2.338
 3054SOL    HW111001   5.322   7.308   2.297
 3054SOL    HW211002   5.383   7.171   2.280
 3055SOL     OW11003   0.103   4.484   5.478
 3055SOL    HW111004   0.156   4.413   5.516
 3055SOL    HW211005   0.164   4.535   5.427
 3056SOL     OW11006   8.378   4.797   5.555
 3056SOL    HW111007   8.305   4.849   5.589
 3056SOL    HW211008   8.388   4.827   5.465
 3057SOL     OW11009   3.708   8.518  13.262
 3057SOL    HW111010   3.722   8.569  13.182
 3057SOL    HW211011   3.699   8.428  13.232
 3058SOL     OW11012   5.125  12.757  11.329
 3058SOL    HW111013   5.133  12.693  11.400
 3058SOL    HW211014   5.166  12.714  11.254
 3059SOL     OW11015   4.510  11.645   8.931
 3059SOL    HW111016   4.578  11.601   8.881
 3059SOL    HW211017   4.446  11.576   8.951
 3060SOL     OW11018   6.015   4.978   3.266
 3060SOL    HW111019   6.097   5.009   3.228
 3060SOL    HW211020   5.953   5.051   3.253
 3061SOL     OW11021  14.716  10.341   4.883
 3061SOL    HW111022  14.720  10.247   4.904
 3061SOL    HW211023  14.725  10.344   4.788
 3062SOL     OW11024   2.801   7.698   1.667
 3062SOL    HW111025   2.817   7.784   1.706
 3062SOL    HW211026   2.850   7.637   1.723
 3063SOL     OW11027   9.669   2.855   2.216
 3063SOL    HW111028   9.631   2.939   2.190
 3063SOL    HW211029   9.694   2.812   2.134
 3064SOL     OW11030  13.889   0.927  12.035
 3064SOL    HW111031  13.824   0.997  12.032
 3064SOL    HW211032  13.920   0.920  11.944
 3065SOL     OW11033   3.024  14.414   4.389
 3065SOL    HW111034   3.087  14.420   4.461
 3065SOL    HW211035   3.047  14.332   4.345
 3066SOL     OW11036   8.020   2.413   3.809
 3066SOL    HW111037   8.032   2.319   3.825
 3066SOL    HW211038   7.928   2.429   3.831
 3067SOL     OW11039  10.018   3.722   0.094
 3067SOL    HW111040   9.964   3.674   0.031
 3067SOL    HW211041   9.958   3.783   0.136
 3068SOL     OW11042   7.501  12.175   7.098
 3068SOL    HW111043   7.514  12.087   7.135
 3068SOL    HW211044   7.573  12.184   7.035
 3069SOL     OW11045   0.732   5.069  14.287
 3069SOL    HW111046   0.815   5.095  14.247
 3069SOL    HW211047   0.698   5.000  14.229
 3070SOL     OW11048   1.962   0.318   0.840
 3070SOL    HW111049   1.945   0.249   0.905
 3070SOL    HW211050   1.886   0.316   0.783
 3071SOL     OW11051   7.917  12.962   1.422
 3071SOL    HW111052   7.886  12.982   1.334
 3071SOL    HW211053   8.006  12.999   1.425
 3072SOL     OW11054   4.034   6.809   7.165
 3072SOL    HW111055   4.005   6.756   7.090
 3072SOL    HW211056   4.127   6.824   7.148
 3073SOL     OW11057   6.609   1.247   4.400
 3073SOL    HW111058   6.563   1.299   4.465
 3073SOL    HW211059   6.540   1.198   4.354
 3074SOL     OW11060  13.807   0.334   6.328
 3074SOL    HW111061  13.741   0.331   6.398
 3074SOL    HW211062  13.836   0.425   6.327
 3075SOL     OW11063   1.874   9.395  10.100
 3075SOL    HW111064   1.943   9.361  10.043
 3075SOL    HW211065   1.804   9.330  10.094
 3076SOL     OW11066  10.471  13.199   2.757
 3076SOL    HW111067  10.518  13.184   2.675
 3076SOL    HW211068  10.383  13.225   2.730
 3077SOL     OW11069   5.421   8.361   4.191
 3077SOL    HW111070   5.398   8.418   4.117
 3077SOL    HW211071   5.483   8.413   4.243
 3078SOL     OW11072   6.925   6.680   9.712
 3078SOL    HW111073   6.885   6.764   9.690
 3078SOL    HW211074   6.860   6.637   9.769
 3079SOL     OW11075  13.910  12.163   6.538
 3079SOL    HW111076  13.852  12.091   6.511
 3079SOL    HW211077  13.908  12.161   6.633
 3080SOL     OW11078   5.340  12.409  13.987
 3080SOL    HW111079   5.323  12.502  13.978
 3080SOL    HW211080   5.389  12.401  14.069
 3081SOL     OW11081   0.825  11.960  10.474
 3081SOL    HW111082   0.852  12.040  10.430
 3081SOL    HW211083   0.876  11.891  10.432
 3082SOL     OW11084   6.579   4.632  13.411
 3082SOL    HW111085   6.587   4.726  13.427
 3082SOL    HW211086   6.556   4.595  13.496
 3083SOL     OW11087   2.816   2.581  10.965
 3083SOL    HW111088   2.832   2.592  10.871
 3083SOL    HW211089   2.852   2.660  11.005
 3084SOL     OW11090   5.319   7.358  13.643
 3084SOL    HW111091   5.383   7.321  13.704
 3084SOL    HW211092   5.343   7.451  13.636
 3085SOL     OW11093   1.979   6.756   1.329
 3085SOL    HW111094   1.980   6.680   1.388
 3085SOL    HW211095   1.907   6.810   1.361
 3086SOL     OW11096   3.255   1.467   2.359
 3086SOL    HW111097   3.264   1.531   2.430
 3086SOL    HW211098   3.332   1.411   2.368
 3087SOL     OW11099   2.166  10.588   6.663
 3087SOL    HW111100   2.132  10.540   6.588
 3087SOL    HW211101   2.176  10.678   6.632
 3088SOL     OW11102   0.510   6.949   1.452
 3088SOL    HW111103   0.544   6.994   1.375
 3088SOL    HW211104   0.528   6.857   1.436
 3089SOL     OW11105   2.940   8.435   9.920
 3089SOL    HW111106   2.904   8.520   9.896
 3089SOL    HW211107   2.981   8.402   9.840
 3090SOL     OW11108   1.298  12.759  11.437
 3090SOL    HW111109   1.210  12.721  11.432
 3090SOL    HW211110   1.336  12.723  11.516
 3091SOL     OW11111  11.349   5.406   4.342
 3091SOL    HW111112  11.387   5.373   4.423
 3091SOL    HW211113  11.420   5.402   4.278
 3092SOL     OW11114  12.204   0.270   6.070
 3092SOL    HW111115  12.258   0.193   6.054
 3092SOL    HW211116  12.145   0.274   5.994
 3093SOL     OW11117   2.280   6.881   0.465
 3093SOL    HW111118   2.287   6.930   0.383
 3093SOL    HW211119   2.345   6.923   0.523
 3094SOL     OW11120  13.492   8.833  14.632
 3094SOL    HW111121  13.478   8.749  14.588
 3094SOL    HW211122  13.429   8.833  14.704
 3095SOL     OW11123   5.875   8.996   8.159
 3095SOL    HW111124   5.925   9.055   8.103
 3095SOL    HW211125   5.788   8.994   8.120
 3096SOL     OW11126  11.345  10.081   2.141
 3096SOL    HW111127  11.315  10.170   2.161
 3096SOL    HW211128  11.270  10.026   2.159
 3097SOL     OW11129  14.586  12.856   3.169
 3097SOL    HW111130  14.599  12.948   3.143
 3097SOL    HW211131  14.539  12.817   3.096
 3098SOL     OW11132   6.019  14.134  11.540
 3098SOL    HW111133   5.929  14.104  11.528
 3098SOL    HW211134   6.065  14.107  11.461
 3099SOL     OW11135  10.300   2.448   2.114
 3099SOL    HW111136  10.335   2.367   2.077
 3099SOL    HW211137  10.246   2.420   2.188
 3100SOL     OW11138   6.732   9.937  13.694
 3100SOL    HW111139   6.643   9.973  13.688
 3100SOL    HW211140   6.749   9.932  13.788
 3101SOL     OW11141  14.590   2.301   5.773
 3101SOL    HW111142  14.553   2.227   5.822
 3101SOL    HW211143  14.659   2.262   5.720
 3102SOL     OW11144  12.834   8.265  13.719
 3102SOL    HW111145  12.856   8.220  13.801
 3102SOL    HW211146  12.886   8.346  13.721
 3103SOL     OW11147   4.545   5.454  10.668
 3103SOL    HW111148   4.482   5.435  10.599
 3103SOL    HW211149   4.563   5.548  10.659
 3104SOL     OW11150  12.766   6.126   7.949
 3104SOL    HW111151  12.671   6.131   7.963
 3104SOL    HW211152  12.780   6.169   7.864
 3105SOL     OW11153   9.908   5.672   1.972
 3105SOL    HW111154   9.815   5.653   1.969
 3105SOL    HW211155   9.923   5.701   2.062
 3106SOL     OW11156   5.324   9.532   6.085
 3106SOL    HW111157   5.259   9.566   6.024
 3106SOL    HW211158   5.375   9.469   6.034
 3107SOL     OW11159   2.000   6.740   9.333
 3107SOL    HW111160   1.994   6.747   9.238
 3107SOL    HW211161   1.920   6.780   9.365
 3108SOL     OW11162   1.265   5.276   4.387
 3108SOL    HW111163   1.292   5.228   4.309
 3108SOL    HW211164   1.254   5.209   4.455
 3109SOL     OW11165   4.448   4.171   5.596
 3109SOL    HW111166   4.373   4.206   5.548
 3109SOL    HW211167   4.523   4.221   5.563
 3110SOL     OW11168   3.739   3.664  14.738
 3110SOL    HW111169   3.702   3.696  14.656
 3110SOL    HW211170   3.665   3.629  14.786
 3111SOL     OW11171   5.280   8.068  12.824
 3111SOL    HW111172   5.211   8.026  12.875
 3111SOL    HW211173   5.325   7.996  12.780
 3112SOL     OW11174   6.411   5.626   4.698
 3112SOL    HW111175   6.424   5.531   4.688
 3112SOL    HW211176   6.454   5.664   4.621
 3113SOL     OW11177   6.584   4.740   1.330
 3113SOL    HW111178   6.609   4.734   1.422
 3113SOL    HW211179   6.516   4.807   1.327
 3114SOL     OW11180  11.137  13.982   6.862
 3114SOL    HW111181  11.116  14.067   6.824
 3114SOL    HW211182  11.058  13.930   6.851
 3115SOL     OW11183   6.851  14.790   0.068
 3115SOL    HW111184   6.847  14.846  14.871
 3115SOL    HW211185   6.891  14.709   0.037
 3116SOL     OW11186   8.514   1.736   1.308
 3116SOL    HW111187   8.606   1.709   1.311
 3116SOL    HW211188   8.472   1.682   1.375
 3117SOL     OW11189   4.555   2.838  10.207
 3117SOL    HW111190   4.484   2.802  10.154
 3117SOL    HW211191   4.567   2.927  10.174
 3118SOL     OW11192   1.186  14.040  12.081
 3118SOL    HW111193   1.259  14.102  12.080
 3118SOL    HW211194   1.118  14.082  12.030
 3119SOL     OW11195   5.140   3.586   3.936
 3119SOL    HW111196   5.144   3.593   3.840
 3119SOL    HW211197   5.182   3.502   3.955
 3120SOL     OW11198  11.052   7.749   2.350
 3120SOL    HW111199  11.075   7.833   2.312
 3120SOL    HW211200  10.956   7.748   2.351
 3121SOL     OW11201  12.776   3.167   7.557
 3121SOL    HW111202  12.791   3.233   7.489
 3121SOL    HW211203  12.733   3.214   7.628
 3122SOL     OW11204   3.821   5.147  11.926
 3122SOL    HW111205   3.758   5.117  11.861
 3122SOL    HW211206   3.788   5.233  11.953
 3123SOL     OW11207  13.639   5.803   3.334
 3123SOL    HW111208  13.732   5.794   3.352
 3123SOL    HW211209  13.629   5.772   3.244
 3124SOL     OW11210   2.137   2.400  11.568
 3124SOL    HW111211   2.188   2.384  11.488
 3124SOL    HW211212   2.181   2.474  11.609
 3125SOL     OW11213   4.098   4.417  14.194
 3125SOL    HW111214   4.088   4.372  14.110
 3125SOL    HW211215   4.048   4.498  14.185
 3126SOL     OW11216   7.605  10.711   5.778
 3126SOL    HW111217   7.595  10.631   5.829
 3126SOL    HW211218   7.643  10.681   5.695
 3127SOL     OW11219   9.655   0.824  13.178
 3127SOL    HW111220   9.595   0.763  13.221
 3127SOL    HW211221   9.742   0.800  13.210
 3128SOL     OW11222   9.258  14.041   5.157
 3128SOL    HW111223   9.234  13.949   5.171
 3128SOL    HW211224   9.175  14.088   5.154
 3129SOL     OW11225   7.430   8.790   3.182
 3129SOL    HW111226   7.506   8.740   3.212
 3129SOL    HW211227   7.369   8.724   3.149
 3130SOL     OW11228   7.656  12.730  14.145
 3130SOL    HW111229   7.656  12.795  14.215
 3130SOL    HW211230   7.711  12.659  14.178
 3131SOL     OW11231   3.971   4.648   5.015
 3131SOL    HW111232   3.941   4.566   5.055
 3131SOL    HW211233   4.027   4.687   5.082
 3132SOL     OW11234   1.470   1.167  12.196
 3132SOL    HW111235   1.399   1.218  12.234
 3132SOL    HW211236   1.512   1.124  12.271
 3133SOL     OW11237   2.907  14.426  12.544
 3133SOL    HW111238   2.833  14.395  12.597
 3133SOL    HW211239   2.872  14.500  12.495
 3134SOL     OW11240  14.256  14.254   1.473
 3134SOL    HW111241  14.261  14.196   1.549
 3134SOL    HW211242  14.236  14.195   1.400
 3135SOL     OW11243   6.912   5.015   5.285
 3135SOL    HW111244   6.890   5.108   5.292
 3135SOL    HW211245   6.956   4.995   5.368
 3136SOL     OW11246   2.381   0.291   0.693
 3136SOL    HW111247   2.454   0.292   0.631
 3136SOL    HW211248   2.381   0.202   0.729
 3137SOL     OW11249  11.709   4.174  10.641
 3137SOL    HW111250  11.703   4.168  10.736
 3137SOL    HW211251  11.802   4.158  10.622
 3138SOL     OW11252  13.865   4.567   5.719
 3138SOL    HW111253  13.780   4.609   5.706
 3138SOL    HW211254  13.861   4.530   5.807
 3139SOL     OW11255   1.676   8.573   4.746
 3139SOL    HW111256   1.613   8.614   4.687
 3139SOL    HW211257   1.761   8.586   4.702
 3140SOL     OW11258   5.211   7.511   2.611
 3140SOL    HW111259   5.300   7.475   2.614
 3140SOL    HW211260   5.224   7.606   2.617
 3141SOL     OW11261  10.257   0.997   1.089
 3141SOL    HW111262  10.193   0.934   1.056
 3141SOL    HW211263  10.214   1.039   1.163
 3142SOL     OW11264  13.604   5.181  13.595
 3142SOL    HW111265  13.538   5.244  13.623
 3142SOL    HW211266  13.673   5.187  13.662
 3143SOL     OW11267  10.202  10.836   2.862
 3143SOL    HW111268  10.285  10.815   2.906
 3143SOL    HW211269  10.174  10.918   2.904
 3144SOL     OW11270  10.591   1.554   9.445
 3144SOL    HW111271  10.619   1.513   9.527
 3144SOL    HW211272  10.536   1.628   9.472
 3145SOL     OW11273  10.687  10.294   4.567
 3145SOL    HW111274  10.739  10.216   4.588
 3145SOL    HW211275  10.748  10.367   4.576
 3146SOL     OW11276   1.582  14.417   0.980
 3146SOL    HW111277   1.488  14.430   0.989
 3146SOL    HW211278   1.594  14.392   0.888
 3147SOL     OW11279   2.545   2.638   6.866
 3147SOL    HW111280   2.598   2.639   6.946
 3147SOL    HW211281   2.492   2.559   6.872
 3148SOL     OW11282   2.386   5.866   7.143
 3148SOL    HW111283   2.369   5.952   7.182
 3148SOL    HW211284   2.345   5.804   7.203
 3149SOL     OW11285   3.343  13.497  13.214
 3149SOL    HW111286   3.429  13.524  13.246
 3149SOL    HW211287   3.347  13.401  13.214
 3150SOL     OW11288  12.599   4.513   1.411
 3150SOL    HW111289  12.518   4.555   1.381
 3150SOL    HW211290  12.650   4.583   1.451
 3151SOL     OW11291   0.253   0.629   8.275
 3151SOL    HW111292   0.206   0.610   8.357
 3151SOL    HW211293   0.330   0.679   8.303
 3152SOL     OW11294  10.202   4.230  13.475
 3152SOL    HW111295  10.281   4.262  13.518
 3152SOL    HW211296  10.165   4.307  13.432
 3153SOL     OW11297  14.507   9.238  11.928
 3153SOL    HW111298  14.541   9.213  11.842
 3153SOL    HW211299  14.416   9.209  11.927
 3154SOL     OW11300   9.068   6.940   6.054
 3154SOL    HW111301   8.979   6.972   6.046
 3154SOL    HW211302   9.119   7.017   6.082
 3155SOL     OW11303   2.076   1.465   9.658
 3155SOL    HW111304   2.056   1.393   9.718
 3155SOL    HW211305   1.990   1.497   9.630
 3156SOL     OW11306  13.722   3.079   5.433
 3156SOL    HW111307  13.667   3.002   5.416
 3156SOL    HW211308  13.684   3.119   5.511
 3157SOL     OW11309  13.260   4.824  13.173
 3157SOL    HW111310  13.168   4.801  13.158
 3157SOL    HW211311  13.260   4.873  13.255
 3158SOL     OW11312   4.584   9.697   9.067
 3158SOL    HW111313   4.513   9.760   9.054
 3158SOL    HW211314   4.542   9.612   9.059
 3159SOL     OW11315   2.529   1.414   6.394
 3159SOL    HW111316   2.598   1.385   6.335
 3159SOL    HW211317   2.537   1.355   6.470
 3160SOL     OW11318  10.519  13.288   6.968
 3160SOL    HW111319  10.571  13.344   6.910
 3160SOL    HW211320  10.428  13.313   6.952
 3161SOL     OW11321   4.199   9.311   2.482
 3161SOL    HW111322   4.132   9.312   2.550
 3161SOL    HW211323   4.269   9.255   2.517
 3162SOL     OW11324  11.282   3.481  11.500
 3162SOL    HW111325  11.188   3.492  11.491
 3162SOL    HW211326  11.294   3.445  11.588
 3163SOL     OW11327   3.401  10.676   8.702
 3163SOL    HW111328   3.358  10.738   8.761
 3163SOL    HW211329   3.346  10.676   8.624
 3164SOL     OW11330   8.897   1.981  10.803
 3164SOL    HW111331   8.992   1.988  10.797
 3164SOL    HW211332   8.865   2.069  10.783
 3165SOL     OW11333  14.823   6.550   8.771
 3165SOL    HW111334   0.034   6.561   8.799
 3165SOL    HW211335  14.829   6.499   8.690
 3166SOL     OW11336   5.148  12.101  11.190
 3166SOL    HW111337   5.097  12.039  11.137
 3166SOL    HW211338   5.213  12.046  11.233
 3167SOL     OW11339   5.999   0.911   9.993
 3167SOL    HW111340   5.989   0.935   9.901
 3167SOL    HW211341   6.053   0.832   9.991
 3168SOL     OW11342  13.304   5.594   8.780
 3168SOL    HW111343  13.329   5.667   8.836
 3168SOL    HW211344  13.209   5.604   8.767
 3169SOL     OW11345   4.731   1.643   5.990
 3169SOL    HW111346   4.730   1.623   5.897
 3169SOL    HW211347   4.795   1.581   6.027
 3170SOL     OW11348   3.930  14.779  13.790
 3170SOL    HW111349   3.982  14.848  13.832
 3170SOL    HW211350   3.992  14.707  13.777
 3171SOL     OW11351   8.206  10.604   8.653
 3171SOL    HW111352   8.210  10.517   8.615
 3171SOL    HW211353   8.268  10.656   8.602
 3172SOL     OW11354  12.911   1.326  13.432
 3172SOL    HW111355  12.945   1.306  13.345
 3172SOL    HW211356  12.861   1.407  13.420
 3173SOL     OW11357   7.925   1.485   2.136
 3173SOL    HW111358   7.848   1.535   2.108
 3173SOL    HW211359   7.999   1.543   2.120
 3174SOL     OW11360   1.110   7.389  10.773
 3174SOL    HW111361   1.090   7.316  10.832
 3174SOL    HW211362   1.043   7.383  10.704
 3175SOL     OW11363   1.200   2.895   0.319
 3175SOL    HW111364   1.261   2.943   0.375
 3175SOL    HW211365   1.248   2.879   0.238
 3176SOL     OW11366   3.184   9.558   9.199
 3176SOL    HW111367   3.177   9.528   9.109
 3176SOL    HW211368   3.217   9.648   9.193
 3177SOL     OW11369  12.824  13.281  12.043
 3177SOL    HW111370  12.832  13.289  11.948
 3177SOL    HW211371  12.910  13.305  12.077
 3178SOL     OW11372   3.305  10.530   9.747
 3178SOL    HW111373   3.340  10.615   9.720
 3178SOL    HW211374   3.366  10.466   9.711
 3179SOL     OW11375  14.534   4.806   4.870
 3179SOL    HW111376  14.472   4.737   4.894
 3179SOL    HW211377  14.611   4.789   4.924
 3180SOL     OW11378  13.172   1.944   3.300
 3180SOL    HW111379  13.250   1.954   3.246
 3180SOL    HW211380  13.198   1.882   3.368
 3181SOL     OW11381  13.748  14.167   6.748
 3181SOL    HW111382  13.688  14.206   6.685
 3181SOL    HW211383  13.701  14.169   6.831
 3182SOL     OW11384   7.600   8.407   1.126
 3182SOL    HW111385   7.565   8.433   1.041
 3182SOL    HW211386   7.571   8.317   1.137
 3183SOL     OW11387  13.103  13.519   3.710
 3183SOL    HW111388  13.163  13.589   3.684
 3183SOL    HW211389  13.116  13.450   3.644
 3184SOL     OW11390   5.871   0.708   4.428
 3184SOL    HW111391   5.802   0.773   4.436
 3184SOL    HW211392   5.826   0.627   4.404
 3185SOL     OW11393  10.313  12.383  14.572
 3185SOL    HW111394  10.343  12.292  14.564
 3185SOL    HW211395  10.372  12.422  14.637
 3186SOL     OW11396   0.552  13.806   5.581
 3186SOL    HW111397   0.527  13.715   5.570
 3186SOL    HW211398   0.473  13.856   5.562
 3187SOL     OW11399   9.990   7.521   8.923
 3187SOL    HW111400  10.013   7.429   8.908
 3187SOL    HW211401   9.915   7.518   8.982
 3188SOL     OW11402  13.609  12.462   5.659
 3188SOL    HW111403  13.525  12.448   5.703
 3188SOL    HW211404  13.596  12.542   5.609
 3189SOL     OW11405   2.295   4.931  13.355
 3189SOL    HW111406   2.228   4.942  13.422
 3189SOL    HW211407   2.247   4.936  13.272
 3190SOL     OW11408  12.551  12.450   9.474
 3190SOL    HW111409  12.575  12.447   9.381
 3190SOL    HW211410  12.622  12.500   9.515
 3191SOL     OW11411   2.437   1.933   0.200
 3191SOL    HW111412   2.342   1.940   0.208
 3191SOL    HW211413   2.468   1.918   0.290
 3192SOL     OW11414  13.994   6.103   3.285
 3192SOL    HW111415  13.994   6.167   3.214
 3192SOL    HW211416  14.083   6.065   3.284
 3193SOL     OW11417  14.107  10.252   7.422
 3193SOL    HW111418  14.149  10.253   7.336
 3193SOL    HW211419  14.179  10.263   7.484
 3194SOL     OW11420   8.828   6.841  11.770
 3194SOL    HW111421   8.881   6.919  11.784
 3194SOL    HW211422   8.892   6.771  11.754
 3195SOL     OW11423  12.153  10.302   7.697
 3195SOL    HW111424  12.223  10.348   7.743
 3195SOL    HW211425  12.180  10.304   7.605
 3196SOL     OW11426   6.423   6.996   7.483
 3196SOL    HW111427   6.506   7.028   7.519
 3196SOL    HW211428   6.366   7.073   7.482
 3197SOL     OW11429   7.153   8.100  12.231
 3197SOL    HW111430   7.107   8.017  12.243
 3197SOL    HW211431   7.083   8.165  12.225
 3198SOL     OW11432  14.695   6.286   4.557
 3198SOL    HW111433  14.744   6.369   4.559
 3198SOL    HW211434  14.636   6.291   4.632
 3199SOL     OW11435  14.344  12.467  11.988
 3199SOL    HW111436  14.324  12.402  12.056
 3199SOL    HW211437  14.306  12.548  12.021
 3200SOL     OW11438   9.536   5.939   4.479
 3200SOL    HW111439   9.489   5.982   4.407
 3200SOL    HW211440   9.473   5.939   4.552
 3201SOL     OW11441   2.774   7.447   5.392
 3201SOL    HW111442   2.852   7.407   5.429
 3201SOL    HW211443   2.791   7.541   5.396
 3202SOL     OW11444   8.673   9.654  10.944
 3202SOL    HW111445   8.755   9.607  10.955
 3202SOL    HW211446   8.683   9.733  10.997
 3203SOL     OW11447  10.337   7.060   4.398
 3203SOL    HW111448  10.363   7.129   4.459
 3203SOL    HW211449  10.302   6.991   4.453
 3204SOL     OW11450   4.531   4.781   7.015
 3204SOL    HW111451   4.491   4.698   7.041
 3204SOL    HW211452   4.624   4.762   7.007
 3205SOL     OW11453   9.514  11.445   7.573
 3205SOL    HW111454   9.544  11.535   7.583
 3205SOL    HW211455   9.468  11.443   7.489
 3206SOL     OW11456   7.900   0.531   2.057
 3206SOL    HW111457   7.862   0.498   1.975
 3206SOL    HW211458   7.992   0.506   2.052
 3207SOL     OW11459  13.582   6.665  14.674
 3207SOL    HW111460  13.653   6.654  14.737
 3207SOL    HW211461  13.592   6.754  14.641
 3208SOL     OW11462   1.975   9.501   5.337
 3208SOL    HW111463   1.912   9.508   5.409
 3208SOL    HW211464   2.061   9.507   5.379
 3209SOL     OW11465  13.145   9.620   9.345
 3209SOL    HW111466  13.236   9.638   9.320
 3209SOL    HW211467  13.122   9.542   9.294
 3210SOL     OW11468  11.338   6.804  12.615
 3210SOL    HW111469  11.408   6.790  12.550
 3210SOL    HW211470  11.356   6.892  12.649
 3211SOL     OW11471  11.176   6.663   1.764
 3211SOL    HW111472  11.156   6.582   1.811
 3211SOL    HW211473  11.119   6.729   1.806
 3212SOL     OW11474   5.967   7.976   0.417
 3212SOL    HW111475   5.895   8.000   0.476
 3212SOL    HW211476   5.932   7.904   0.365
 3213SOL     OW11477   8.413  13.865   6.887
 3213SOL    HW111478   8.393  13.800   6.819
 3213SOL    HW211479   8.372  13.945   6.856
 3214SOL     OW11480   2.489  14.551  11.868
 3214SOL    HW111481   2.527  14.479  11.816
 3214SOL    HW211482   2.534  14.545  11.952
 3215SOL     OW11483   1.470  10.655   0.450
 3215SOL    HW111484   1.408  10.710   0.403
 3215SOL    HW211485   1.416  10.594   0.499
 3216SOL     OW11486   3.750   3.702   6.263
 3216SOL    HW111487   3.693   3.665   6.330
 3216SOL    HW211488   3.819   3.747   6.312
 3217SOL     OW11489  11.658   2.375   4.981
 3217SOL    HW111490  11.653   2.451   4.924
 3217SOL    HW211491  11.592   2.392   5.049
 3218SOL     OW11492   7.486  10.143  13.218
 3218SOL    HW111493   7.412  10.152  13.158
 3218SOL    HW211494   7.548  10.088  13.171
 3219SOL     OW11495   6.244   9.504   6.238
 3219SOL    HW111496   6.235   9.550   6.321
 3219SOL    HW211497   6.283   9.568   6.178
 3220SOL     OW11498   9.694  11.230  12.568
 3220SOL    HW111499   9.761  11.226  12.499
 3220SOL    HW211500   9.622  11.177  12.534
 3221SOL     OW11501   0.353  12.524   3.729
 3221SOL    HW111502   0.340  12.618   3.742
 3221SOL    HW211503   0.282  12.483   3.777
 3222SOL     OW11504   9.195   1.554   1.859
 3222SOL    HW111505   9.290   1.552   1.844
 3222SOL    HW211506   9.176   1.473   1.906
 3223SOL     OW11507   9.867  14.766   9.226
 3223SOL    HW111508   9.911  14.850   9.222
 3223SOL    HW211509   9.919  14.714   9.287
 3224SOL     OW11510   4.706   2.250  14.616
 3224SOL    HW111511   4.732   2.301  14.692
 3224SOL    HW211512   4.682   2.316  14.551
 3225SOL     OW11513  13.823  13.804   6.527
 3225SOL    HW111514  13.873  13.728   6.496
 3225SOL    HW211515  13.882  13.878   6.516
 3226SOL     OW11516   2.524  13.864  14.853
 3226SOL    HW111517   2.586  13.795  14.828
 3226SOL    HW211518   2.562  13.944  14.818
 3227SOL     OW11519  10.003   6.127   4.558
 3227SOL    HW111520   9.982   6.188   4.487
 3227SOL    HW211521   9.946   6.052   4.542
 3228SOL     OW11522   6.444  12.252   8.531
 3228SOL    HW111523   6.391  12.318   8.576
 3228SOL    HW211524   6.534  12.284   8.540
 3229SOL     OW11525   5.526   6.170   7.480
 3229SOL    HW111526   5.571   6.111   7.540
 3229SOL    HW211527   5.486   6.236   7.537
 3230SOL     OW11528   5.798   6.428   2.377
 3230SOL    HW111529   5.724   6.486   2.358
 3230SOL    HW211530   5.759   6.353   2.422
 3231SOL     OW11531  10.431  13.610   8.764
 3231SOL    HW111532  10.430  13.660   8.845
 3231SOL    HW211533  10.339  13.607   8.737
 3232SOL     OW11534  13.257  13.457  11.022
 3232SOL    HW111535  13.240  13.463  11.116
 3232SOL    HW211536  13.326  13.522  11.006
 3233SOL     OW11537   7.805   9.092  12.584
 3233SOL    HW111538   7.873   9.130  12.640
 3233SOL    HW211539   7.840   9.007  12.559
 3234SOL     OW11540   9.621   5.877  13.482
 3234SOL    HW111541   9.692   5.835  13.434
 3234SOL    HW211542   9.556   5.897  13.415
 3235SOL     OW11543   2.027   9.121  12.283
 3235SOL    HW111544   1.979   9.058  12.230
 3235SOL    HW211545   2.012   9.205  12.239
 3236SOL     OW11546   0.458   6.372  12.254
 3236SOL    HW111547   0.509   6.389  12.175
 3236SOL    HW211548   0.377   6.332  12.222
 3237SOL     OW11549  12.123  13.550  13.049
 3237SOL    HW111550  12.189  13.582  13.110
 3237SOL    HW211551  12.114  13.457  13.070
 3238SOL     OW11552   5.657   5.249   3.755
 3238SOL    HW111553   5.592   5.317   3.774
 3238SOL    HW211554   5.735   5.277   3.802
 3239SOL     OW11555   7.226   3.392  12.218
 3239SOL    HW111556   7.171   3.431  12.150
 3239SOL    HW211557   7.225   3.298  12.199
 3240SOL     OW11558   1.251   6.051  11.359
 3240SOL    HW111559   1.201   6.082  11.434
 3240SOL    HW211560   1.195   5.985  11.318
 3241SOL     OW11561   9.440   2.016  11.983
 3241SOL    HW111562   9.383   1.993  12.056
 3241SOL    HW211563   9.396   2.090  11.940
 3242SOL     OW11564   2.137  13.818   1.459
 3242SOL    HW111565   2.099  13.874   1.391
 3242SOL    HW211566   2.219  13.785   1.420
 3243SOL     OW11567   7.267  10.450  11.700
 3243SOL    HW111568   7.234  10.442  11.611
 3243SOL    HW211569   7.303  10.364  11.720
 3244SOL     OW11570   4.094   7.367  14.073
 3244SOL    HW111571   4.176   7.415  14.064
 3244SOL    HW211572   4.115   7.293  14.130
 3245SOL     OW11573   2.405  11.759  12.897
 3245SOL    HW111574   2.495  11.764  12.930
 3245SOL    HW211575   2.382  11.850  12.876
 3246SOL     OW11576   9.305   9.943   7.841
 3246SOL    HW111577   9.317   9.997   7.919
 3246SOL    HW211578   9.387   9.896   7.832
 3247SOL     OW11579   4.705  12.723  11.272
 3247SOL    HW111580   4.711  12.792  11.206
 3247SOL    HW211581   4.622  12.739  11.316
 3248SOL     OW11582   1.850   6.728   5.819
 3248SOL    HW111583   1.882   6.696   5.735
 3248SOL    HW211584   1.909   6.800   5.841
 3249SOL     OW11585   9.973  14.433   2.469
 3249SOL    HW111586   9.945  14.402   2.556
 3249SOL    HW211587  10.054  14.481   2.486
 3250SOL     OW11588  13.395  10.575   5.449
 3250SOL    HW111589  13.382  10.507   5.384
 3250SOL    HW211590  13.402  10.528   5.533
 3251SOL     OW11591  10.509   0.557   4.953
 3251SOL    HW111592  10.586   0.539   5.007
 3251SOL    HW211593  10.530   0.519   4.868
 3252SOL     OW11594   8.045   1.553   3.227
 3252SOL    HW111595   7.986   1.627   3.215
 3252SOL    HW211596   8.074   1.560   3.318
 3253SOL     OW11597  13.226   3.623   6.934
 3253SOL    HW111598  13.179   3.673   7.001
 3253SOL    HW211599  13.170   3.630   6.856
 3254SOL     OW11600   0.645   2.399   1.202
 3254SOL    HW111601   0.656   2.308   1.173
 3254SOL    HW211602   0.734   2.431   1.216
 3255SOL     OW11603   4.378  11.577   7.689
 3255SOL    HW111604   4.413  11.512   7.751
 3255SOL    HW211605   4.376  11.530   7.606
 3256SOL     OW11606   3.265   2.754  11.815
 3256SOL    HW111607   3.196   2.812  11.783
 3256SOL    HW211608   3.303   2.716  11.736
 3257SOL     OW11609   9.221   5.717   5.876
 3257SOL    HW111610   9.206   5.662   5.800
 3257SOL    HW211611   9.174   5.674   5.947
 3258SOL     OW11612   7.169   1.361  13.214
 3258SOL    HW111613   7.217   1.316  13.145
 3258SOL    HW211614   7.150   1.448  13.177
 3259SOL     OW11615  12.396   8.149  11.166
 3259SOL    HW111616  12.383   8.228  11.219
 3259SOL    HW211617  12.478   8.166  11.119
 3260SOL     OW11618   9.843   5.535   2.948
 3260SOL    HW111619   9.879   5.613   2.907
 3260SOL    HW211620   9.793   5.492   2.878
 3261SOL     OW11621  11.717   6.001   1.710
 3261SOL    HW111622  11.727   5.965   1.622
 3261SOL    HW211623  11.697   6.093   1.697
 3262SOL     OW11624   3.910   5.471   0.179
 3262SOL    HW111625   3.834   5.499   0.128
 3262SOL    HW211626   3.922   5.379   0.155
 3263SOL     OW11627   5.653   6.342  12.147
 3263SOL    HW111628   5.664   6.296  12.063
 3263SOL    HW211629   5.739   6.380  12.164
 3264SOL     OW11630   5.491   4.425   8.997
 3264SOL    HW111631   5.521   4.342   8.961
 3264SOL    HW211632   5.398   4.412   9.016
 3265SOL     OW11633   4.412   5.505   6.263
 3265SOL    HW111634   4.411   5.436   6.330
 3265SOL    HW211635   4.502   5.509   6.233
 3266SOL     OW11636  13.436   9.707   6.375
 3266SOL    HW111637  13.531   9.711   6.360
 3266SOL    HW211638  13.398   9.758   6.304
 3267SOL     OW11639   8.503  13.815   1.932
 3267SOL    HW111640   8.456  13.742   1.893
 3267SOL    HW211641   8.585  13.777   1.964
 3268SOL     OW11642   3.370  12.837   1.233
 3268SOL    HW111643   3.403  12.760   1.186
 3268SOL    HW211644   3.291  12.861   1.186
 3269SOL     OW11645   9.852  12.484   1.195
 3269SOL    HW111646   9.816  12.494   1.283
 3269SOL    HW211647   9.880  12.393   1.190
 3270SOL     OW11648   7.013   0.861   4.593
 3270SOL    HW111649   7.020   0.886   4.501
 3270SOL    HW211650   7.055   0.775   4.597
 3271SOL     OW11651   0.673   7.915   3.272
 3271SOL    HW111652   0.583   7.926   3.242
 3271SOL    HW211653   0.713   7.859   3.205
 3272SOL     OW11654  10.043   7.065   9.594
 3272SOL    HW111655  10.085   7.052   9.509
 3272SOL    HW211656  10.068   7.154   9.619
 3273SOL     OW11657   7.817   0.406  11.297
 3273SOL    HW111658   7.893   0.367  11.255
 3273SOL    HW211659   7.776   0.334  11.345
 3274SOL     OW11660   2.726   1.170   9.254
 3274SOL    HW111661   2.739   1.231   9.327
 3274SOL    HW211662   2.673   1.219   9.191
 3275SOL     OW11663   4.205   7.903   3.536
 3275SOL    HW111664   4.120   7.938   3.564
 3275SOL    HW211665   4.262   7.915   3.611
 3276SOL     OW11666   1.007   4.251  10.773
 3276SOL    HW111667   1.094   4.231  10.807
 3276SOL    HW211668   0.960   4.286  10.849
 3277SOL     OW11669  14.593   7.658   1.477
 3277SOL    HW111670  14.599   7.693   1.566
 3277SOL    HW211671  14.613   7.564   1.487
 3278SOL     OW11672  14.813   3.073   7.065
 3278SOL    HW111673   0.019   3.048   7.029
 3278SOL    HW211674  14.820   3.053   7.158
 3279SOL     OW11675  13.440   3.558   9.578
 3279SOL    HW111676  13.511   3.599   9.529
 3279SOL    HW211677  13.375   3.535   9.512
 3280SOL     OW11678   6.419  12.136   7.657
 3280SOL    HW111679   6.421  12.045   7.686
 3280SOL    HW211680   6.509  12.155   7.630
 3281SOL     OW11681   5.824   9.389   2.908
 3281SOL    HW111682   5.844   9.469   2.859
 3281SOL    HW211683   5.730   9.397   2.928
 3282SOL     OW11684  11.180   6.396   9.926
 3282SOL    HW111685  11.244   6.443   9.980
 3282SOL    HW211686  11.233   6.333   9.877
 3283SOL     OW11687  13.394   9.823   9.694
 3283SOL    HW111688  13.366   9.913   9.712
 3283SOL    HW211689  13.340   9.769   9.753
 3284SOL     OW11690  14.739   1.317  10.027
 3284SOL    HW111691  14.662   1.344   9.977
 3284SOL    HW211692  14.726   1.355  10.114
 3285SOL     OW11693  11.928   6.208  10.187
 3285SOL    HW111694  11.877   6.128  10.201
 3285SOL    HW211695  12.018   6.181  10.200
 3286SOL     OW11696   3.215   3.642  10.636
 3286SOL    HW111697   3.262   3.638  10.553
 3286SOL    HW211698   3.220   3.554  10.672
 3287SOL     OW11699   5.227   0.770  10.445
 3287SOL    HW111700   5.247   0.695  10.501
 3287SOL    HW211701   5.155   0.814  10.489
 3288SOL     OW11702  14.167   2.981   6.558
 3288SOL    HW111703  14.156   3.004   6.650
 3288SOL    HW211704  14.147   2.887   6.554
 3289SOL     OW11705  11.016   6.226   6.439
 3289SOL    HW111706  10.966   6.191   6.366
 3289SOL    HW211707  11.012   6.321   6.427
 3290SOL     OW11708   0.169  10.864   7.427
 3290SOL    HW111709   0.166  10.769   7.415
 3290SOL    HW211710   0.208  10.897   7.347
 3291SOL     OW11711   0.991  11.017   3.481
 3291SOL    HW111712   0.902  11.049   3.470
 3291SOL    HW211713   1.046  11.088   3.447
 3292SOL     OW11714  10.765   2.463   8.761
 3292SOL    HW111715  10.691   2.405   8.740
 3292SOL    HW211716  10.749   2.543   8.711
 3293SOL     OW11717   8.057  12.875   1.764
 3293SOL    HW111718   7.963  12.888   1.772
 3293SOL    HW211719   8.067  12.818   1.687
 3294SOL     OW11720  11.212   1.460   8.845
 3294SOL    HW111721  11.182   1.387   8.791
 3294SOL    HW211722  11.304   1.439   8.864
 3295SOL     OW11723   5.158   8.436   3.970
 3295SOL    HW111724   5.114   8.514   4.002
 3295SOL    HW211725   5.251   8.458   3.970
 3296SOL     OW11726  12.413  11.817   1.687
 3296SOL    HW111727  12.404  11.900   1.733
 3296SOL    HW211728  12.504  11.816   1.658
 3297SOL     OW11729   4.844  10.530   4.740
 3297SOL    HW111730   4.781  10.554   4.808
 3297SOL    HW211731   4.810  10.573   4.661
 3298SOL     OW11732   0.737  13.647  14.317
 3298SOL    HW111733   0.734  13.733  14.275
 3298SOL    HW211734   0.738  13.585  14.244
 3299SOL     OW11735   5.538  14.673   3.393
 3299SOL    HW111736   5.590  14.753   3.397
 3299SOL    HW211737   5.473  14.685   3.463
 3300SOL     OW11738  12.819  14.723   3.433
 3300SOL    HW111739  12.910  14.741   3.408
 3300SOL    HW211740  12.767  14.778   3.375
 3301SOL     OW11741   2.216   8.526   8.974
 3301SOL    HW111742   2.236   8.480   8.893
 3301SOL    HW211743   2.299   8.569   8.998
 3302SOL     OW11744  10.161   0.711   1.271
 3302SOL    HW111745  10.134   0.757   1.192
 3302SOL    HW211746  10.079   0.694   1.318
 3303SOL     OW11747   3.666  10.525   9.904
 3303SOL    HW111748   3.760  10.520   9.922
 3303SOL    HW211749   3.634  10.436   9.919
 3304SOL     OW11750   3.073   9.892   1.003
 3304SOL    HW111751   3.057   9.930   1.090
 3304SOL    HW211752   3.123   9.812   1.022
 3305SOL     OW11753  12.921  13.093   3.084
 3305SOL    HW111754  12.857  13.163   3.098
 3305SOL    HW211755  12.956  13.075   3.171
 3306SOL     OW11756   9.925  12.528   6.590
 3306SOL    HW111757   9.915  12.599   6.653
 3306SOL    HW211758  10.004  12.551   6.540
 3307SOL     OW11759  13.356   1.989  10.090
 3307SOL    HW111760  13.371   2.065  10.034
 3307SOL    HW211761  13.365   1.914  10.032
 3308SOL     OW11762   5.360   7.672  10.753
 3308SOL    HW111763   5.337   7.718  10.672
 3308SOL    HW211764   5.351   7.579  10.732
 3309SOL     OW11765  14.339   2.109   8.186
 3309SOL    HW111766  14.367   2.188   8.233
 3309SOL    HW211767  14.245   2.121   8.172
 3310SOL     OW11768  11.477   6.951  10.170
 3310SOL    HW111769  11.398   6.900  10.185
 3310SOL    HW211770  11.540   6.889  10.134
 3311SOL     OW11771   9.826   1.669  10.326
 3311SOL    HW111772   9.784   1.681  10.411
 3311SOL    HW211773   9.843   1.758  10.294
 3312SOL     OW11774   6.830  13.832   3.362
 3312SOL    HW111775   6.818  13.925   3.380
 3312SOL    HW211776   6.757  13.810   3.304
 3313SOL     OW11777   2.680  10.449   4.189
 3313SOL    HW111778   2.653  10.517   4.251
 3313SOL    HW211779   2.599  10.411   4.157
 3314SOL     OW11780   1.193  14.829   6.435
 3314SOL    HW111781   1.145   0.006   6.374
 3314SOL    HW211782   1.127  14.766   6.466
 3315SOL     OW11783   1.122  11.176   1.550
 3315SOL    HW111784   1.198  11.146   1.601
 3315SOL    HW211785   1.053  11.188   1.615
 3316SOL     OW11786   3.925  12.554   5.610
 3316SOL    HW111787   3.899  12.471   5.569
 3316SOL    HW211788   3.983  12.528   5.681
 3317SOL     OW11789   7.798   6.535   2.714
 3317SOL    HW111790   7.709   6.547   2.747
 3317SOL    HW211791   7.845   6.494   2.786
 3318SOL     OW11792   8.651   5.876   9.720
 3318SOL    HW111793   8.651   5.780   9.727
 3318SOL    HW211794   8.734   5.896   9.676
 3319SOL     OW11795  10.057   5.114   9.169
 3319SOL    HW111796  10.103   5.034   9.196
 3319SOL    HW211797  10.122   5.183   9.176
 3320SOL     OW11798  13.159   8.727   7.274
 3320SOL    HW111799  13.253   8.712   7.263
 3320SOL    HW211800  13.118   8.655   7.225
 3321SOL     OW11801   6.199   1.262   7.381
 3321SOL    HW111802   6.251   1.277   7.460
 3321SOL    HW211803   6.165   1.349   7.358
 3322SOL     OW11804   4.750   5.721   6.840
 3322SOL    HW111805   4.688   5.792   6.862
 3322SOL    HW211806   4.793   5.751   6.760
 3323SOL     OW11807  10.474  11.638  10.041
 3323SOL    HW111808  10.410  11.639   9.970
 3323SOL    HW211809  10.436  11.694  10.108
 3324SOL     OW11810   6.372   1.134   4.762
 3324SOL    HW111811   6.370   1.076   4.687
 3324SOL    HW211812   6.320   1.210   4.735
 3325SOL     OW11813  10.706   9.144   7.064
 3325SOL    HW111814  10.648   9.160   6.989
 3325SOL    HW211815  10.784   9.105   7.026
 3326SOL     OW11816  14.856   6.348   2.030
 3326SOL    HW111817   0.015   6.302   1.955
 3326SOL    HW211818  14.780   6.296   2.054
 3327SOL     OW11819  12.363   5.543   3.827
 3327SOL    HW111820  12.427   5.500   3.771
 3327SOL    HW211821  12.360   5.633   3.796
 3328SOL     OW11822  14.273   0.294   4.503
 3328SOL    HW111823  14.337   0.314   4.435
 3328SOL    HW211824  14.205   0.242   4.458
 3329SOL     OW11825  12.553   4.467   5.048
 3329SOL    HW111826  12.631   4.471   4.994
 3329SOL    HW211827  12.563   4.540   5.110
 3330SOL     OW11828   5.857   2.974  12.338
 3330SOL    HW111829   5.928   3.028  12.304
 3330SOL    HW211830   5.778   3.024  12.321
 3331SOL     OW11831   9.608   9.282   1.346
 3331SOL    HW111832   9.535   9.333   1.311
 3331SOL    HW211833   9.681   9.343   1.347
 3332SOL     OW11834   5.979   7.056  13.895
 3332SOL    HW111835   6.006   7.122  13.831
 3332SOL    HW211836   5.975   7.103  13.978
 3333SOL     OW11837  11.525   2.090  13.076
 3333SOL    HW111838  11.496   2.019  13.019
 3333SOL    HW211839  11.569   2.152  13.017
 3334SOL     OW11840  10.201  12.901  12.440
 3334SOL    HW111841  10.258  12.894  12.516
 3334SOL    HW211842  10.252  12.952  12.377
 3335SOL     OW11843  12.136   4.356   0.548
 3335SOL    HW111844  12.115   4.448   0.567
 3335SOL    HW211845  12.132   4.350   0.453
 3336SOL     OW11846   7.665   3.034   0.693
 3336SOL    HW111847   7.746   3.073   0.726
 3336SOL    HW211848   7.679   3.025   0.599
 3337SOL     OW11849  13.236   1.114   7.896
 3337SOL    HW111850  13.151   1.079   7.869
 3337SOL    HW211851  13.278   1.043   7.944
 3338SOL     OW11852  13.297   8.987  14.274
 3338SOL    HW111853  13.365   9.054  14.281
 3338SOL    HW211854  13.218   9.030  14.306
 3339SOL     OW11855   9.865  13.117   3.306
 3339SOL    HW111856   9.955  13.097   3.333
 3339SOL    HW211857   9.815  13.040   3.333
 3340SOL     OW11858   3.689   8.422  11.941
 3340SOL    HW111859   3.629   8.476  11.890
 3340SOL    HW211860   3.758   8.483  11.969
 3341SOL     OW11861   7.541   6.138   8.473
 3341SOL    HW111862   7.448   6.150   8.456
 3341SOL    HW211863   7.581   6.222   8.451
 3342SOL     OW11864   9.053   9.012   1.256
 3342SOL    HW111865   9.068   9.099   1.292
 3342SOL    HW211866   8.961   8.993   1.277
 3343SOL     OW11867   0.216   6.533   8.816
 3343SOL    HW111868   0.226   6.609   8.873
 3343SOL    HW211869   0.280   6.548   8.746
 3344SOL     OW11870   0.867   9.046   9.417
 3344SOL    HW111871   0.930   9.065   9.348
 3344SOL    HW211872   0.816   8.972   9.383
 3345SOL     OW11873   1.733   2.589  14.322
 3345SOL    HW111874   1.776   2.662  14.278
 3345SOL    HW211875   1.737   2.517  14.258
 3346SOL     OW11876   3.491   8.306   1.752
 3346SOL    HW111877   3.542   8.228   1.771
 3346SOL    HW211878   3.409   8.293   1.799
 3347SOL     OW11879   1.323   8.423  13.154
 3347SOL    HW111880   1.374   8.458  13.081
 3347SOL    HW211881   1.273   8.499  13.186
 3348SOL     OW11882   8.031  10.941   8.144
 3348SOL    HW111883   8.101  10.978   8.090
 3348SOL    HW211884   7.952  10.987   8.115
 3349SOL     OW11885  10.967   7.788  10.683
 3349SOL    HW111886  10.926   7.718  10.633
 3349SOL    HW211887  10.999   7.850  10.618
 3350SOL     OW11888   4.392  11.183  11.753
 3350SOL    HW111889   4.443  11.125  11.808
 3350SOL    HW211890   4.313  11.203  11.804
 3351SOL     OW11891   4.284   7.381   7.014
 3351SOL    HW111892   4.322   7.468   7.013
 3351SOL    HW211893   4.255   7.366   6.924
 3352SOL     OW11894  14.086   4.133   5.581
 3352SOL    HW111895  14.072   4.203   5.517
 3352SOL    HW211896  14.047   4.166   5.662
 3353SOL     OW11897   2.103  10.184  13.650
 3353SOL    HW111898   2.016  10.216  13.626
 3353SOL    HW211899   2.106  10.095  13.617
 3354SOL     OW11900   5.073   8.722   0.683
 3354SOL    HW111901   5.061   8.685   0.770
 3354SOL    HW211902   5.133   8.796   0.696
 3355SOL     OW11903   3.692   8.230   0.062
 3355SOL    HW111904   3.720   8.305   0.009
 3355SOL    HW211905   3.751   8.159   0.036
 3356SOL     OW11906   1.693   6.965   4.149
 3356SOL    HW111907   1.651   7.040   4.107
 3356SOL    HW211908   1.704   6.991   4.240
 3357SOL     OW11909  12.552  14.477   0.729
 3357SOL    HW111910  12.548  14.552   0.669
 3357SOL    HW211911  12.463  14.471   0.765
 3358SOL     OW11912   7.614   5.364   9.502
 3358SOL    HW111913   7.617   5.340   9.409
 3358SOL    HW211914   7.564   5.445   9.504
 3359SOL     OW11915   1.352   1.156   3.036
 3359SOL    HW111916   1.425   1.112   2.992
 3359SOL    HW211917   1.331   1.230   2.980
 3360SOL     OW11918   4.775  11.977   7.572
 3360SOL    HW111919   4.845  12.007   7.630
 3360SOL    HW211920   4.802  11.889   7.546
 3361SOL     OW11921   0.121   4.271   7.481
 3361SOL    HW111922   0.211   4.267   7.448
 3361SOL    HW211923   0.068   4.232   7.411
 3362SOL     OW11924   9.809  10.446   0.620
 3362SOL    HW111925   9.740  10.482   0.676
 3362SOL    HW211926   9.887  10.443   0.675
 3363SOL     OW11927   1.540   2.350   6.892
 3363SOL    HW111928   1.491   2.409   6.835
 3363SOL    HW211929   1.622   2.336   6.847
 3364SOL     OW11930   6.054  10.781  10.917
 3364SOL    HW111931   6.094  10.747  10.997
 3364SOL    HW211932   6.115  10.848  10.887
 3365SOL     OW11933   1.149  14.327   0.635
 3365SOL    HW111934   1.099  14.397   0.677
 3365SOL    HW211935   1.091  14.295   0.565
 3366SOL     OW11936  11.838  10.595   5.969
 3366SOL    HW111937  11.767  10.573   6.029
 3366SOL    HW211938  11.917  10.565   6.013
 3367SOL     OW11939   2.306   0.861   0.622
 3367SOL    HW111940   2.388   0.910   0.619
 3367SOL    HW211941   2.238   0.927   0.608
 3368SOL     OW11942   7.802  12.993  14.395
 3368SOL    HW111943   7.729  13.037  14.438
 3368SOL    HW211944   7.858  13.063  14.363
 3369SOL     OW11945   2.229   9.034   2.639
 3369SOL    HW111946   2.224   9.055   2.733
 3369SOL    HW211947   2.322   9.026   2.622
 3370SOL     OW11948   6.714   7.526  11.838
 3370SOL    HW111949   6.735   7.446  11.791
 3370SOL    HW211950   6.764   7.520  11.920
 3371SOL     OW11951  12.555  10.577  11.742
 3371SOL    HW111952  12.574  10.553  11.651
 3371SOL    HW211953  12.473  10.533  11.762
 3372SOL     OW11954  10.675  12.415   4.483
 3372SOL    HW111955  10.587  12.387   4.509
 3372SOL    HW211956  10.731  12.340   4.502
 3373SOL     OW11957  11.809   4.662  10.652
 3373SOL    HW111958  11.859   4.612  10.587
 3373SOL    HW211959  11.846   4.636  10.736
 3374SOL     OW11960   0.208  14.665   0.916
 3374SOL    HW111961   0.141  14.646   0.981
 3374SOL    HW211962   0.174  14.626   0.835
 3375SOL     OW11963   1.534   0.846   9.493
 3375SOL    HW111964   1.540   0.751   9.490
 3375SOL    HW211965   1.445   0.865   9.465
 3376SOL     OW11966   1.277  10.231   2.383
 3376SOL    HW111967   1.323  10.269   2.308
 3376SOL    HW211968   1.223  10.302   2.416
 3377SOL     OW11969   7.890  14.059  14.368
 3377SOL    HW111970   7.845  13.976  14.380
 3377SOL    HW211971   7.823  14.126  14.382
 3378SOL     OW11972   8.989   0.883   3.464
 3378SOL    HW111973   8.915   0.867   3.406
 3378SOL    HW211974   8.980   0.817   3.533
 3379SOL     OW11975   2.192  11.068   4.185
 3379SOL    HW111976   2.105  11.048   4.149
 3379SOL    HW211977   2.204  11.161   4.169
 3380SOL     OW11978  13.345  12.361   5.075
 3380SOL    HW111979  13.430  12.403   5.063
 3380SOL    HW211980  13.305  12.408   5.147
 3381SOL     OW11981   8.432   1.499  14.367
 3381SOL    HW111982   8.405   1.416  14.328
 3381SOL    HW211983   8.502   1.475  14.428
 3382SOL     OW11984  14.713  13.316  11.135
 3382SOL    HW111985  14.632  13.367  11.140
 3382SOL    HW211986  14.777  13.370  11.180
 3383SOL     OW11987   0.836   6.025  10.417
 3383SOL    HW111988   0.768   6.031  10.484
 3383SOL    HW211989   0.822   6.102  10.362
 3384SOL     OW11990   7.884  10.225  12.737
 3384SOL    HW111991   7.940  10.185  12.670
 3384SOL    HW211992   7.942  10.284  12.785
 3385SOL     OW11993  11.025   2.687  13.262
 3385SOL    HW111994  11.070   2.771  13.250
 3385SOL    HW211995  11.059   2.654  13.345
 3386SOL     OW11996  12.400  11.833   9.614
 3386SOL    HW111997  12.425  11.889   9.541
 3386SOL    HW211998  12.309  11.857   9.632
 3387SOL     OW11999   2.517   6.133  10.445
 3387SOL    HW112000   2.542   6.097  10.530
 3387SOL    HW212001   2.599   6.143  10.398
 3388SOL     OW12002  14.327  14.684  11.374
 3388SOL    HW112003  14.411  14.729  11.389
 3388SOL    HW212004  14.339  14.598  11.413
 3389SOL     OW12005   7.869  12.941   6.949
 3389SOL    HW112006   7.778  12.971   6.951
 3389SOL    HW212007   7.909  12.980   7.026
 3390SOL     OW12008  13.983   7.246   5.997
 3390SOL    HW112009  13.940   7.248   5.911
 3390SOL    HW212010  14.037   7.167   5.994
 3391SOL     OW12011  13.736  11.225  14.558
 3391SOL    HW112012  13.760  11.159  14.493
 3391SOL    HW212013  13.750  11.181  14.643
 3392SOL     OW12014  10.226   1.681   4.434
 3392SOL    HW112015  10.289   1.611   4.419
 3392SOL    HW212016  10.141   1.643   4.411
 3393SOL     OW12017   7.827   6.919   0.583
 3393SOL    HW112018   7.913   6.880   0.567
 3393SOL    HW212019   7.793   6.937   0.496
 3394SOL     OW12020  11.406   3.850   0.906
 3394SOL    HW112021  11.499   3.851   0.882
 3394SOL    HW212022  11.360   3.829   0.825
 3395SOL     OW12023   7.357  11.335  14.475
 3395SOL    HW112024   7.346  11.429  14.492
 3395SOL    HW212025   7.387  11.330  14.384
 3396SOL     OW12026  13.088  14.280   5.606
 3396SOL    HW112027  13.018  14.326   5.559
 3396SOL    HW212028  13.153  14.261   5.538
 3397SOL     OW12029   0.808  12.069  13.905
 3397SOL    HW112030   0.750  11.994  13.923
 3397SOL    HW212031   0.855  12.083  13.987
 3398SOL     OW12032   7.224   5.899   2.561
 3398SOL    HW112033   7.279   5.821   2.565
 3398SOL    HW212034   7.285   5.971   2.545
 3399SOL     OW12035  11.629  12.790   9.453
 3399SOL    HW112036  11.604  12.703   9.423
 3399SOL    HW212037  11.606  12.848   9.381
 3400SOL     OW12038   0.644   4.232   3.747
 3400SOL    HW112039   0.603   4.232   3.834
 3400SOL    HW212040   0.734   4.262   3.763
 3401SOL     OW12041   8.578   5.194  14.025
 3401SOL    HW112042   8.648   5.186  14.091
 3401SOL    HW212043   8.502   5.154  14.067
 3402SOL     OW12044   4.311   8.713   9.103
 3402SOL    HW112045   4.273   8.645   9.158
 3402SOL    HW212046   4.397   8.678   9.079
 3403SOL     OW12047  14.159   5.086   9.690
 3403SOL    HW112048  14.101   5.160   9.701
 3403SOL    HW212049  14.184   5.061   9.779
 3404SOL     OW12050   1.787   7.643  10.241
 3404SOL    HW112051   1.800   7.683  10.328
 3404SOL    HW212052   1.778   7.549  10.259
 3405SOL     OW12053  12.215   1.214   3.622
 3405SOL    HW112054  12.301   1.174   3.613
 3405SOL    HW212055  12.230   1.308   3.612
 3406SOL     OW12056   1.978   7.201  10.490
 3406SOL    HW112057   1.963   7.111  10.464
 3406SOL    HW212058   2.063   7.224  10.451
 3407SOL     OW12059   8.930  10.347   3.862
 3407SOL    HW112060   8.881  10.280   3.812
 3407SOL    HW212061   9.013  10.305   3.882
 3408SOL     OW12062   7.870   7.218   6.511
 3408SOL    HW112063   7.850   7.217   6.604
 3408SOL    HW212064   7.881   7.126   6.488
 3409SOL     OW12065  10.924   4.797   7.962
 3409SOL    HW112066  10.864   4.726   7.983
 3409SOL    HW212067  10.890   4.835   7.881
 3410SOL     OW12068   7.874  11.328   3.307
 3410SOL    HW112069   7.811  11.311   3.237
 3410SOL    HW212070   7.941  11.260   3.296
 3411SOL     OW12071  12.951   3.923   6.645
 3411SOL    HW112072  12.978   3.857   6.709
 3411SOL    HW212073  12.879   3.970   6.688
 3412SOL     OW12074   3.523   3.188   8.498
 3412SOL    HW112075   3.566   3.109   8.466
 3412SOL    HW212076   3.543   3.254   8.432
 3413SOL     OW12077  11.740   0.785  10.600
 3413SOL    HW112078  11.769   0.815  10.514
 3413SOL    HW212079  11.821   0.772  10.650
 3414SOL     OW12080   2.183   2.302   4.643
 3414SOL    HW112081   2.253   2.246   4.609
 3414SOL    HW212082   2.163   2.267   4.730
 3415SOL     OW12083  13.320   3.351  13.993
 3415SOL    HW112084  13.300   3.406  13.917
 3415SOL    HW212085  13.248   3.368  14.054
 3416SOL     OW12086   2.156   2.281   9.103
 3416SOL    HW112087   2.203   2.198   9.095
 3416SOL    HW212088   2.169   2.324   9.018
 3417SOL     OW12089   9.393   6.882  14.606
 3417SOL    HW112090   9.307   6.922  14.594
 3417SOL    HW212091   9.443   6.946  14.657
 3418SOL     OW12092   6.721  13.054   4.109
 3418SOL    HW112093   6.655  13.002   4.064
 3418SOL    HW212094   6.789  12.992   4.134
 3419SOL     OW12095   3.996   0.188   7.770
 3419SOL    HW112096   3.958   0.117   7.719
 3419SOL    HW212097   3.955   0.180   7.856
 3420SOL     OW12098  14.781  12.468   9.819
 3420SOL    HW112099  14.820  12.501   9.738
 3420SOL    HW212100  14.690  12.447   9.795
 3421SOL     OW12101   1.986   3.901  10.781
 3421SOL    HW112102   1.919   3.833  10.778
 3421SOL    HW212103   2.037   3.886  10.701
 3422SOL     OW12104   0.738  12.020   3.240
 3422SOL    HW112105   0.814  12.067   3.275
 3422SOL    HW212106   0.691  11.990   3.317
 3423SOL     OW12107   1.805  12.055   8.760
 3423SOL    HW112108   1.869  12.046   8.830
 3423SOL    HW212109   1.850  12.024   8.681
 3424SOL     OW12110   2.315   9.347  13.341
 3424SOL    HW112111   2.392   9.361  13.396
 3424SOL    HW212112   2.259   9.423  13.357
 3425SOL     OW12113   9.152  13.729   7.102
 3425SOL    HW112114   9.103  13.672   7.161
 3425SOL    HW212115   9.092  13.746   7.029
 3426SOL     OW12116   4.990  11.156  10.074
 3426SOL    HW112117   5.036  11.223  10.124
 3426SOL    HW212118   5.041  11.146   9.994
 3427SOL     OW12119   2.654   3.178   7.360
 3427SOL    HW112120   2.658   3.207   7.451
 3427SOL    HW212121   2.611   3.092   7.364
 3428SOL     OW12122   3.895   4.442   0.073
 3428SOL    HW112123   3.895   4.536   0.055
 3428SOL    HW212124   3.803   4.423   0.095
 3429SOL     OW12125   3.795  10.183  14.791
 3429SOL    HW112126   3.797  10.096  14.831
 3429SOL    HW212127   3.888  10.205  14.780
 3430SOL     OW12128  14.043   4.369  12.442
 3430SOL    HW112129  14.101   4.345  12.515
 3430SOL    HW212130  14.010   4.285  12.410
 3431SOL     OW12131   7.201   4.024   9.324
 3431SOL    HW112132   7.285   4.010   9.281
 3431SOL    HW212133   7.221   4.081   9.398
 3432SOL     OW12134   2.390   5.688   1.258
 3432SOL    HW112135   2.327   5.760   1.244
 3432SOL    HW212136   2.354   5.615   1.208
 3433SOL     OW12137   5.250   6.506   8.989
 3433SOL    HW112138   5.191   6.431   8.987
 3433SOL    HW212139   5.212   6.565   9.055
 3434SOL     OW12140   4.946   4.733   7.220
 3434SOL    HW112141   4.936   4.822   7.254
 3434SOL    HW212142   5.035   4.708   7.244
 3435SOL     OW12143   7.020   6.175   9.680
 3435SOL    HW112144   6.992   6.236   9.611
 3435SOL    HW212145   7.107   6.205   9.705
 3436SOL     OW12146   7.778  14.197   0.259
 3436SOL    HW112147   7.869  14.176   0.238
 3436SOL    HW212148   7.780  14.231   0.348
 3437SOL     OW12149   0.694   2.629   7.869
 3437SOL    HW112150   0.655   2.632   7.782
 3437SOL    HW212151   0.749   2.707   7.874
 3438SOL     OW12152   0.941   0.635  11.314
 3438SOL    HW112153   0.920   0.712  11.263
 3438SOL    HW212154   1.030   0.611  11.287
 3439SOL     OW12155   6.702  12.301   6.100
 3439SOL    HW112156   6.795  12.308   6.078
 3439SOL    HW212157   6.691  12.213   6.135
 3440SOL     OW12158  13.001   7.731  10.946
 3440SOL    HW112159  13.002   7.775  10.861
 3440SOL    HW212160  13.040   7.794  11.006
 3441SOL     OW12161  14.329   7.458   2.633
 3441SOL    HW112162  14.350   7.541   2.592
 3441SOL    HW212163  14.295   7.403   2.562
 3442SOL     OW12164   6.339  14.602   6.149
 3442SOL    HW112165   6.286  14.599   6.229
 3442SOL    HW212166   6.339  14.512   6.117
 3443SOL     OW12167   6.501   1.225  14.403
 3443SOL    HW112168   6.577   1.257  14.354
 3443SOL    HW212169   6.521   1.133  14.419
 3444SOL     OW12170   5.988  11.464   2.374
 3444SOL    HW112171   5.913  11.420   2.415
 3444SOL    HW212172   5.983  11.554   2.404
 3445SOL     OW12173   6.422   7.048  11.279
 3445SOL    HW112174   6.448   7.064  11.188
 3445SOL    HW212175   6.358   7.116  11.298
 3446SOL     OW12176   5.696   0.637  12.696
 3446SOL    HW112177   5.745   0.700  12.748
 3446SOL    HW212178   5.759   0.568  12.676
 3447SOL     OW12179   0.467   1.653  13.116
 3447SOL    HW112180   0.385   1.686  13.081
 3447SOL    HW212181   0.534   1.691  13.060
 3448SOL     OW12182   3.082   7.737   8.558
 3448SOL    HW112183   3.012   7.713   8.497
 3448SOL    HW212184   3.146   7.784   8.504
 3449SOL     OW12185   2.317   1.724  11.400
 3449SOL    HW112186   2.261   1.774  11.459
 3449SOL    HW212187   2.387   1.786  11.376
 3450SOL     OW12188   8.093  10.801  10.887
 3450SOL    HW112189   8.093  10.875  10.826
 3450SOL    HW212190   8.121  10.840  10.970
 3451SOL     OW12191   8.019   9.479   3.992
 3451SOL    HW112192   8.075   9.422   3.940
 3451SOL    HW212193   8.020   9.441   4.080
 3452SOL     OW12194  13.771   0.667  13.699
 3452SOL    HW112195  13.676   0.670  13.711
 3452SOL    HW212196  13.787   0.707  13.614
 3453SOL     OW12197  13.067   5.244   9.940
 3453SOL    HW112198  13.124   5.294   9.882
 3453SOL    HW212199  12.978   5.274   9.918
 3454SOL     OW12200   9.011   6.269   5.166
 3454SOL    HW112201   8.966   6.185   5.170
 3454SOL    HW212202   9.079   6.257   5.099
 3455SOL     OW12203   0.480  13.299   9.165
 3455SOL    HW112204   0.440  13.214   9.187
 3455SOL    HW212205   0.497  13.293   9.071
 3456SOL     OW12206   3.012   3.396   7.319
 3456SOL    HW112207   3.026   3.419   7.227
 3456SOL    HW212208   2.996   3.480   7.363
 3457SOL     OW12209   7.116   2.573   7.182
 3457SOL    HW112210   7.141   2.660   7.148
 3457SOL    HW212211   7.101   2.520   7.104
 3458SOL     OW12212   6.439   4.024   5.044
 3458SOL    HW112213   6.425   4.058   4.955
 3458SOL    HW212214   6.499   4.087   5.084
 3459SOL     OW12215   7.784  13.431  11.877
 3459SOL    HW112216   7.727  13.387  11.813
 3459SOL    HW212217   7.733  13.507  11.907
 3460SOL     OW12218   3.575   9.070  14.468
 3460SOL    HW112219   3.607   8.980  14.465
 3460SOL    HW212220   3.645   9.120  14.507
 3461SOL     OW12221   0.331   8.431   2.213
 3461SOL    HW112222   0.261   8.421   2.278
 3461SOL    HW212223   0.386   8.501   2.248
 3462SOL     OW12224   2.067  10.172  12.033
 3462SOL    HW112225   1.993  10.215  12.077
 3462SOL    HW212226   2.130  10.242  12.019
 3463SOL     OW12227  10.158  12.831   7.383
 3463SOL    HW112228  10.100  12.895   7.341
 3463SOL    HW212229  10.145  12.846   7.477
 3464SOL     OW12230   2.306   1.117  10.572
 3464SOL    HW112231   2.384   1.064  10.553
 3464SOL    HW212232   2.257   1.066  10.636
 3465SOL     OW12233   7.354   4.028  10.275
 3465SOL    HW112234   7.272   4.055  10.233
 3465SOL    HW212235   7.351   4.069  10.361
 3466SOL     OW12236   7.351  11.830   7.963
 3466SOL    HW112237   7.386  11.754   7.917
 3466SOL    HW212238   7.421  11.895   7.961
 3467SOL     OW12239  12.005  12.796  10.685
 3467SOL    HW112240  12.021  12.724  10.746
 3467SOL    HW212241  12.071  12.785  10.616
 3468SOL     OW12242   8.317   6.467  11.971
 3468SOL    HW112243   8.254   6.532  12.003
 3468SOL    HW212244   8.306   6.467  11.876
 3469SOL     OW12245   2.481  12.271   5.854
 3469SOL    HW112246   2.436  12.202   5.902
 3469SOL    HW212247   2.452  12.262   5.764
 3470SOL     OW12248  13.261   2.822   6.692
 3470SOL    HW112249  13.348   2.805   6.730
 3470SOL    HW212250  13.243   2.913   6.714
 3471SOL     OW12251  12.235  10.727   7.377
 3471SOL    HW112252  12.190  10.642   7.370
 3471SOL    HW212253  12.325  10.707   7.354
 3472SOL     OW12254  11.980  14.403  11.776
 3472SOL    HW112255  12.021  14.320  11.799
 3472SOL    HW212256  11.944  14.389  11.689
 3473SOL     OW12257  12.581  13.532   2.572
 3473SOL    HW112258  12.628  13.449   2.572
 3473SOL    HW212259  12.499  13.513   2.619
 3474SOL     OW12260   3.547   8.136   3.941
 3474SOL    HW112261   3.569   8.043   3.939
 3474SOL    HW212262   3.550   8.160   4.033
 3475SOL     OW12263  13.002  10.670   8.694
 3475SOL    HW112264  13.047  10.701   8.772
 3475SOL    HW212265  12.910  10.666   8.719
 3476SOL     OW12266  10.226  12.198  14.274
 3476SOL    HW112267  10.200  12.156  14.356
 3476SOL    HW212268  10.276  12.131  14.228
 3477SOL     OW12269   5.220   3.737   9.583
 3477SOL    HW112270   5.221   3.711   9.491
 3477SOL    HW212271   5.128   3.730   9.609
 3478SOL     OW12272   6.433   3.977   4.327
 3478SOL    HW112273   6.364   3.924   4.366
 3478SOL    HW212274   6.482   4.011   4.403
 3479SOL     OW12275   0.420   6.553  12.446
 3479SOL    HW112276   0.463   6.632  12.412
 3479SOL    HW212277   0.443   6.484  12.383
 3480SOL     OW12278   9.348  11.912   0.662
 3480SOL    HW112279   9.269  11.967   0.661
 3480SOL    HW212280   9.316  11.824   0.679
 3481SOL     OW12281   9.905   1.868   0.716
 3481SOL    HW112282   9.961   1.944   0.699
 3481SOL    HW212283   9.905   1.859   0.811
 3482SOL     OW12284   3.925   5.099   4.923
 3482SOL    HW112285   3.963   5.093   5.011
 3482SOL    HW212286   3.909   5.008   4.898
 3483SOL     OW12287   1.000   6.515   2.799
 3483SOL    HW112288   0.930   6.574   2.772
 3483SOL    HW212289   1.015   6.459   2.722
 3484SOL     OW12290   7.397   5.092   0.011
 3484SOL    HW112291   7.490   5.072  14.879
 3484SOL    HW212292   7.396   5.179   0.051
 3485SOL     OW12293   4.383   6.564  13.324
 3485SOL    HW112294   4.392   6.482  13.275
 3485SOL    HW212295   4.376   6.632  13.257
 3486SOL     OW12296  14.434   4.623   9.074
 3486SOL    HW112297  14.501   4.691   9.076
 3486SOL    HW212298  14.351   4.670   9.084
 3487SOL     OW12299  12.140  13.595   0.356
 3487SOL    HW112300  12.104  13.548   0.280
 3487SOL    HW212301  12.223  13.551   0.374
 3488SOL     OW12302   9.093   2.668   9.451
 3488SOL    HW112303   9.106   2.678   9.545
 3488SOL    HW212304   9.003   2.635   9.443
 3489SOL     OW12305  10.465   0.617   3.887
 3489SOL    HW112306  10.520   0.686   3.851
 3489SOL    HW212307  10.387   0.616   3.831
 3490SOL     OW12308  14.748   6.255  13.981
 3490SOL    HW112309  14.748   6.163  13.953
 3490SOL    HW212310  14.773   6.304  13.903
 3491SOL     OW12311  14.061   7.768   1.789
 3491SOL    HW112312  14.017   7.684   1.801
 3491SOL    HW212313  14.146   7.744   1.752
 3492SOL     OW12314   5.810  13.404   2.510
 3492SOL    HW112315   5.881  13.386   2.450
 3492SOL    HW212316   5.740  13.440   2.455
 3493SOL     OW12317   2.188   0.376   9.869
 3493SOL    HW112318   2.193   0.286   9.840
 3493SOL    HW212319   2.256   0.422   9.820
 3494SOL     OW12320  10.802  12.183   4.588
 3494SOL    HW112321  10.806  12.162   4.681
 3494SOL    HW212322  10.730  12.129   4.554
 3495SOL     OW12323  13.085  13.958   9.752
 3495SOL    HW112324  13.036  13.879   9.772
 3495SOL    HW212325  13.148  13.932   9.685
 3496SOL     OW12326   8.692   1.299   1.030
 3496SOL    HW112327   8.739   1.216   1.026
 3496SOL    HW212328   8.702   1.328   1.121
 3497SOL     OW12329   9.399  13.130   4.378
 3497SOL    HW112330   9.379  13.046   4.419
 3497SOL    HW212331   9.364  13.122   4.290
 3498SOL     OW12332  13.838  14.876  13.836
 3498SOL    HW112333  13.892  14.801  13.810
 3498SOL    HW212334  13.893   0.044  13.899
 3499SOL     OW12335   4.247  13.287   5.468
 3499SOL    HW112336   4.314  13.333   5.417
 3499SOL    HW212337   4.260  13.317   5.558
 3500SOL     OW12338  10.200   4.244   1.823
 3500SOL    HW112339  10.182   4.290   1.741
 3500SOL    HW212340  10.249   4.166   1.796
 3501SOL     OW12341   5.974  13.506   6.220
 3501SOL    HW112342   6.009  13.592   6.246
 3501SOL    HW212343   6.049  13.447   6.228
 3502SOL     OW12344   7.897   1.348   5.819
 3502SOL    HW112345   7.924   1.440   5.827
 3502SOL    HW212346   7.801   1.351   5.826
 3503SOL     OW12347   1.292  11.827   2.847
 3503SOL    HW112348   1.335  11.742   2.843
 3503SOL    HW212349   1.301  11.863   2.759
 3504SOL     OW12350   3.240   1.852   6.039
 3504SOL    HW112351   3.293   1.922   6.000
 3504SOL    HW212352   3.226   1.790   5.967
 3505SOL     OW12353   8.648  14.276   8.081
 3505SOL    HW112354   8.605  14.238   8.158
 3505SOL    HW212355   8.592  14.349   8.055
 3506SOL     OW12356  10.241   1.580   4.133
 3506SOL    HW112357  10.286   1.662   4.111
 3506SOL    HW212358  10.284   1.550   4.213
 3507SOL     OW12359   9.546   0.277  10.280
 3507SOL    HW112360   9.606   0.240  10.345
 3507SOL    HW212361   9.557   0.221  10.203
 3508SOL     OW12362  12.330   4.022  13.974
 3508SOL    HW112363  12.235   4.034  13.979
 3508SOL    HW212364  12.364   4.110  13.958
 3509SOL     OW12365   7.591   5.132   7.702
 3509SOL    HW112366   7.501   5.124   7.671
 3509SOL    HW212367   7.645   5.121   7.623
 3510SOL     OW12368   4.382  11.570   4.911
 3510SOL    HW112369   4.371  11.535   4.822
 3510SOL    HW212370   4.303  11.544   4.957
 3511SOL     OW12371   7.652  12.558   5.103
 3511SOL    HW112372   7.633  12.627   5.041
 3511SOL    HW212373   7.617  12.589   5.187
 3512SOL     OW12374   7.310  13.834   2.661
 3512SOL    HW112375   7.310  13.926   2.689
 3512SOL    HW212376   7.217  13.810   2.660
 3513SOL     OW12377  10.211   0.198   5.534
 3513SOL    HW112378  10.140   0.245   5.578
 3513SOL    HW212379  10.223   0.119   5.586
 3514SOL     OW12380  13.661   6.076  14.049
 3514SOL    HW112381  13.739   6.126  14.023
 3514SOL    HW212382  13.596   6.096  13.982
 3515SOL     OW12383  11.911  14.835   1.364
 3515SOL    HW112384  11.942  14.751   1.396
 3515SOL    HW212385  11.827  14.816   1.323
 3516SOL     OW12386  14.521   9.270   0.582
 3516SOL    HW112387  14.611   9.242   0.596
 3516SOL    HW212388  14.522   9.315   0.497
 3517SOL     OW12389  13.174   0.139   3.439
 3517SOL    HW112390  13.169   0.045   3.423
 3517SOL    HW212391  13.117   0.178   3.372
 3518SOL     OW12392   5.484   0.996   6.457
 3518SOL    HW112393   5.399   0.979   6.415
 3518SOL    HW212394   5.525   1.063   6.403
 3519SOL     OW12395  11.143   6.031   6.585
 3519SOL    HW112396  11.101   6.021   6.671
 3519SOL    HW212397  11.077   6.075   6.531
 3520SOL     OW12398   5.866  13.295   8.614
 3520SOL    HW112399   5.776  13.266   8.629
 3520SOL    HW212400   5.903  13.307   8.701
 3521SOL     OW12401   3.385   2.668   8.195
 3521SOL    HW112402   3.317   2.615   8.235
 3521SOL    HW212403   3.465   2.618   8.208
 3522SOL     OW12404   9.348  10.045   8.733
 3522SOL    HW112405   9.263  10.031   8.690
 3522SOL    HW212406   9.328  10.044   8.827
 3523SOL     OW12407  13.592   1.457   7.835
 3523SOL    HW112408  13.657   1.407   7.884
 3523SOL    HW212409  13.529   1.392   7.805
 3524SOL     OW12410  13.006  10.805   1.757
 3524SOL    HW112411  13.066  10.853   1.815
 3524SOL    HW212412  12.978  10.730   1.809
 3525SOL     OW12413   1.383   9.455  14.739
 3525SOL    HW112414   1.389   9.534  14.685
 3525SOL    HW212415   1.378   9.383  14.676
 3526SOL     OW12416  13.565  10.970  14.547
 3526SOL    HW112417  13.658  10.951  14.536
 3526SOL    HW212418  13.560  11.024  14.626
 3527SOL     OW12419   9.620  10.542   2.193
 3527SOL    HW112420   9.545  10.563   2.249
 3527SOL    HW212421   9.687  10.606   2.218
 3528SOL     OW12422   0.322   2.212   9.157
 3528SOL    HW112423   0.273   2.293   9.141
 3528SOL    HW212424   0.305   2.158   9.080
 3529SOL     OW12425  12.501  14.866  13.436
 3529SOL    HW112426  12.559   0.032  13.375
 3529SOL    HW212427  12.518   0.027  13.520
 3530SOL     OW12428   0.466   4.212   6.730
 3530SOL    HW112429   0.559   4.208   6.707
 3530SOL    HW212430   0.435   4.122   6.720
 3531SOL     OW12431   5.579   8.153   8.851
 3531SOL    HW112432   5.647   8.203   8.897
 3531SOL    HW212433   5.529   8.111   8.920
 3532SOL     OW12434  14.497  13.238  14.069
 3532SOL    HW112435  14.529  13.166  14.123
 3532SOL    HW212436  14.549  13.313  14.097
 3533SOL     OW12437  12.808  13.023  13.262
 3533SOL    HW112438  12.899  13.048  13.247
 3533SOL    HW212439  12.799  12.937  13.222
 3534SOL     OW12440  10.381  11.650   4.916
 3534SOL    HW112441  10.426  11.573   4.950
 3534SOL    HW212442  10.289  11.626   4.915
 3535SOL     OW12443  10.966   9.825   9.585
 3535SOL    HW112444  11.009   9.772   9.652
 3535SOL    HW212445  11.023   9.902   9.575
 3536SOL     OW12446   9.997   5.410  13.178
 3536SOL    HW112447  10.025   5.479  13.118
 3536SOL    HW212448  10.014   5.329  13.131
 3537SOL     OW12449   9.911   1.750   0.054
 3537SOL    HW112450   9.872   1.665   0.036
 3537SOL    HW212451   9.914   1.793  14.848
 3538SOL     OW12452  14.084  12.341  12.467
 3538SOL    HW112453  13.999  12.385  12.479
 3538SOL    HW212454  14.141  12.381  12.532
 3539SOL     OW12455  13.429   9.988  13.076
 3539SOL    HW112456  13.340  10.022  13.074
 3539SOL    HW212457  13.420   9.896  13.048
 3540SOL     OW12458   7.226   1.502  12.348
 3540SOL    HW112459   7.240   1.478  12.440
 3540SOL    HW212460   7.137   1.538  12.346
 3541SOL     OW12461   3.780   0.215   6.777
 3541SOL    HW112462   3.852   0.163   6.813
 3541SOL    HW212463   3.823   0.287   6.731
 3542SOL     OW12464   7.369   4.239   8.815
 3542SOL    HW112465   7.327   4.318   8.781
 3542SOL    HW212466   7.308   4.168   8.791
 3543SOL     OW12467   3.868   1.027  11.659
 3543SOL    HW112468   3.929   0.953  11.661
 3543SOL    HW212469   3.782   0.988  11.670
 3544SOL     OW12470  13.174   2.660   2.517
 3544SOL    HW112471  13.168   2.603   2.594
 3544SOL    HW212472  13.223   2.736   2.547
 3545SOL     OW12473   5.066   6.802  12.123
 3545SOL    HW112474   5.134   6.752  12.168
 3545SOL    HW212475   5.113   6.875  12.083
 3546SOL     OW12476  14.507   7.311   4.809
 3546SOL    HW112477  14.549   7.240   4.761
 3546SOL    HW212478  14.563   7.387   4.791
 3547SOL     OW12479  10.733   9.944   2.976
 3547SOL    HW112480  10.735  10.003   3.051
 3547SOL    HW212481  10.647   9.902   2.981
 3548SOL     OW12482  11.836  11.546  14.382
 3548SOL    HW112483  11.871  11.630  14.353
 3548SOL    HW212484  11.801  11.564  14.470
 3549SOL     OW12485   2.194   8.589   1.406
 3549SOL    HW112486   2.100   8.605   1.395
 3549SOL    HW212487   2.207   8.586   1.501
 3550SOL     OW12488  13.982  14.667  13.771
 3550SOL    HW112489  13.945  14.591  13.816
 3550SOL    HW212490  14.072  14.642  13.751
 3551SOL     OW12491   8.431  14.588  11.757
 3551SOL    HW112492   8.349  14.632  11.735
 3551SOL    HW212493   8.443  14.604  11.851
 3552SOL     OW12494  12.848   7.628   2.115
 3552SOL    HW112495  12.866   7.624   2.021
 3552SOL    HW212496  12.922   7.582   2.155
 3553SOL     OW12497   0.527   3.751   1.406
 3553SOL    HW112498   0.582   3.829   1.395
 3553SOL    HW212499   0.438   3.783   1.387
 3554SOL     OW12500   2.633  14.448   9.147
 3554SOL    HW112501   2.664  14.538   9.141
 3554SOL    HW212502   2.682  14.400   9.080
 3555SOL     OW12503  14.317   3.553  10.442
 3555SOL    HW112504  14.346   3.565  10.533
 3555SOL    HW212505  14.222   3.552  10.447
 3556SOL     OW12506   8.506  12.938   7.404
 3556SOL    HW112507   8.439  12.879   7.439
 3556SOL    HW212508   8.490  13.022   7.448
 3557SOL     OW12509   3.127   4.074  12.564
 3557SOL    HW112510   3.206   4.021  12.570
 3557SOL    HW212511   3.147   4.153  12.613
 3558SOL     OW12512  11.836   8.146  14.581
 3558SOL    HW112513  11.851   8.052  14.592
 3558SOL    HW212514  11.781   8.171  14.656
 3559SOL     OW12515  10.016   2.308   5.399
 3559SOL    HW112516   9.995   2.223   5.361
 3559SOL    HW212517  10.103   2.329   5.364
 3560SOL     OW12518   6.421   0.366  10.590
 3560SOL    HW112519   6.444   0.374  10.682
 3560SOL    HW212520   6.367   0.287  10.585
 3561SOL     OW12521   3.180   3.997   9.775
 3561SOL    HW112522   3.259   3.986   9.827
 3561SOL    HW212523   3.115   4.034   9.836
 3562SOL     OW12524   0.549   6.173   4.327
 3562SOL    HW112525   0.532   6.143   4.238
 3562SOL    HW212526   0.557   6.093   4.378
 3563SOL     OW12527   0.099  11.001   0.086
 3563SOL    HW112528   0.137  11.050   0.159
 3563SOL    HW212529   0.069  10.919   0.126
 3564SOL     OW12530   0.176   4.083   9.364
 3564SOL    HW112531   0.194   4.149   9.431
 3564SOL    HW212532   0.157   4.003   9.413
 3565SOL     OW12533  10.573  11.977   8.867
 3565SOL    HW112534  10.568  11.896   8.817
 3565SOL    HW212535  10.588  12.045   8.801
 3566SOL     OW12536   3.982   3.670   1.259
 3566SOL    HW112537   3.921   3.704   1.325
 3566SOL    HW212538   3.927   3.616   1.202
 3567SOL     OW12539   5.835  13.753   0.568
 3567SOL    HW112540   5.753  13.707   0.551
 3567SOL    HW212541   5.897  13.684   0.592
 3568SOL     OW12542  14.422  13.652  14.605
 3568SOL    HW112543  14.372  13.597  14.545
 3568SOL    HW212544  14.393  13.741  14.585
 3569SOL     OW12545   2.766  12.103   8.626
 3569SOL    HW112546   2.676  12.100   8.592
 3569SOL    HW212547   2.812  12.035   8.577
 3570SOL     OW12548   8.132   9.348   5.623
 3570SOL    HW112549   8.078   9.395   5.687
 3570SOL    HW212550   8.197   9.413   5.595
 3571SOL     OW12551  13.250  14.169  14.807
 3571SOL    HW112552  13.227  14.078  14.786
 3571SOL    HW212553  13.221  14.180   0.019
 3572SOL     OW12554   1.830  13.034  12.434
 3572SOL    HW112555   1.920  13.028  12.468
 3572SOL    HW212556   1.830  12.974  12.360
 3573SOL     OW12557   1.768   3.972  10.520
 3573SOL    HW112558   1.727   3.891  10.489
 3573SOL    HW212559   1.858   3.947  10.541
 3574SOL     OW12560  13.909   8.559  12.179
 3574SOL    HW112561  13.934   8.477  12.221
 3574SOL    HW212562  13.992   8.602  12.158
 3575SOL     OW12563   3.681   4.486   7.838
 3575SOL    HW112564   3.643   4.469   7.752
 3575SOL    HW212565   3.607   4.481   7.898
 3576SOL     OW12566  13.744   9.389  13.022
 3576SOL    HW112567  13.758   9.425  13.110
 3576SOL    HW212568  13.702   9.305  13.037
 3577SOL     OW12569   8.394   7.630   3.486
 3577SOL    HW112570   8.362   7.646   3.397
 3577SOL    HW212571   8.407   7.717   3.523
 3578SOL     OW12572  14.631  12.725  13.499
 3578SOL    HW112573  14.554  12.745  13.554
 3578SOL    HW212574  14.704  12.767  13.545
 3579SOL     OW12575   3.931   6.578   6.498
 3579SOL    HW112576   3.928   6.484   6.481
 3579SOL    HW212577   3.891   6.618   6.420
 3580SOL     OW12578  11.459   9.343   5.983
 3580SOL    HW112579  11.384   9.286   5.996
 3580SOL    HW212580  11.430   9.429   6.016
 3581SOL     OW12581  10.204   8.979   1.379
 3581SOL    HW112582  10.276   8.958   1.437
 3581SOL    HW212583  10.174   8.895   1.345
 3582SOL     OW12584   6.156   6.808   1.533
 3582SOL    HW112585   6.093   6.859   1.482
 3582SOL    HW212586   6.241   6.846   1.511
 3583SOL     OW12587   2.915   2.268  13.360
 3583SOL    HW112588   2.899   2.333  13.291
 3583SOL    HW212589   2.827   2.247  13.393
 3584SOL     OW12590   9.105  14.440   5.975
 3584SOL    HW112591   9.118  14.353   5.937
 3584SOL    HW212592   9.175  14.493   5.938
 3585SOL     OW12593   3.965   9.615   4.070
 3585SOL    HW112594   3.965   9.710   4.087
 3585SOL    HW212595   3.958   9.608   3.975
 3586SOL     OW12596  14.302   0.062   7.737
 3586SOL    HW112597  14.386   0.035   7.774
 3586SOL    HW212598  14.266   0.124   7.801
 3587SOL     OW12599   8.477  13.719   9.834
 3587SOL    HW112600   8.558  13.701   9.882
 3587SOL    HW212601   8.427  13.638   9.840
 3588SOL     OW12602   7.001   8.873   1.502
 3588SOL    HW112603   7.006   8.826   1.419
 3588SOL    HW212604   7.093   8.884   1.529
 3589SOL     OW12605  13.063  10.482   6.422
 3589SOL    HW112606  13.131  10.474   6.355
 3589SOL    HW212607  13.095  10.427   6.494
 3590SOL     OW12608   0.595  10.367  14.244
 3590SOL    HW112609   0.550  10.412  14.173
 3590SOL    HW212610   0.682  10.348  14.209
 3591SOL     OW12611  13.153  12.661   7.551
 3591SOL    HW112612  13.192  12.748   7.541
 3591SOL    HW212613  13.171  12.637   7.642
 3592SOL     OW12614   4.011  12.187   6.450
 3592SOL    HW112615   3.918  12.168   6.462
 3592SOL    HW212616   4.039  12.124   6.383
 3593SOL     OW12617   8.474   6.589   2.258
 3593SOL    HW112618   8.537   6.641   2.208
 3593SOL    HW212619   8.406   6.566   2.195
 3594SOL     OW12620   8.190  12.521   7.350
 3594SOL    HW112621   8.275  12.480   7.343
 3594SOL    HW212622   8.158  12.529   7.260
 3595SOL     OW12623   6.133   6.402  10.781
 3595SOL    HW112624   6.100   6.314  10.762
 3595SOL    HW212625   6.075   6.460  10.733
 3596SOL     OW12626  13.488  10.090  12.690
 3596SOL    HW112627  13.513  10.179  12.665
 3596SOL    HW212628  13.427  10.102  12.763
 3597SOL     OW12629  14.628   4.560   3.706
 3597SOL    HW112630  14.577   4.631   3.745
 3597SOL    HW212631  14.716   4.572   3.740
 3598SOL     OW12632  14.532   5.790   2.689
 3598SOL    HW112633  14.600   5.752   2.633
 3598SOL    HW212634  14.499   5.864   2.639
 3599SOL     OW12635  11.748  13.631   9.773
 3599SOL    HW112636  11.696  13.697   9.820
 3599SOL    HW212637  11.837  13.666   9.776
 3600SOL     OW12638   6.205   5.897   5.314
 3600SOL    HW112639   6.200   5.823   5.375
 3600SOL    HW212640   6.297   5.922   5.315
 3601SOL     OW12641  10.782   1.044   8.036
 3601SOL    HW112642  10.754   0.972   8.092
 3601SOL    HW212643  10.756   1.018   7.948
 3602SOL     OW12644   9.058  10.978  12.344
 3602SOL    HW112645   9.050  11.071  12.326
 3602SOL    HW212646   9.000  10.936  12.280
 3603SOL     OW12647  13.437   5.726   7.730
 3603SOL    HW112648  13.404   5.811   7.702
 3603SOL    HW212649  13.380   5.662   7.685
 3604SOL     OW12650  12.467   3.679   2.726
 3604SOL    HW112651  12.441   3.688   2.634
 3604SOL    HW212652  12.558   3.711   2.728
 3605SOL     OW12653  12.295  12.196   3.237
 3605SOL    HW112654  12.362  12.264   3.227
 3605SOL    HW212655  12.344  12.114   3.235
 3606SOL     OW12656   8.970   4.281   2.489
 3606SOL    HW112657   8.897   4.335   2.518
 3606SOL    HW212658   9.004   4.325   2.411
 3607SOL     OW12659   0.843  10.343  14.143
 3607SOL    HW112660   0.849  10.332  14.048
 3607SOL    HW212661   0.807  10.431  14.155
 3608SOL     OW12662  10.438  10.654   2.232
 3608SOL    HW112663  10.395  10.579   2.272
 3608SOL    HW212664  10.438  10.721   2.301
 3609SOL     OW12665   1.204   7.525   6.551
 3609SOL    HW112666   1.248   7.457   6.601
 3609SOL    HW212667   1.123   7.484   6.519
 3610SOL     OW12668   2.765   5.456   8.308
 3610SOL    HW112669   2.811   5.401   8.245
 3610SOL    HW212670   2.673   5.453   8.281
 3611SOL     OW12671  14.850   3.919   7.454
 3611SOL    HW112672  14.797   3.849   7.492
 3611SOL    HW212673  14.851   3.900   7.360
 3612SOL     OW12674  11.851   4.164  14.408
 3612SOL    HW112675  11.928   4.221  14.408
 3612SOL    HW212676  11.780   4.220  14.441
 3613SOL     OW12677  10.948  10.873   3.195
 3613SOL    HW112678  10.872  10.819   3.217
 3613SOL    HW212679  10.913  10.960   3.180
 3614SOL     OW12680   8.288  12.995   5.916
 3614SOL    HW112681   8.321  13.040   5.839
 3614SOL    HW212682   8.205  13.038   5.936
 3615SOL     OW12683   3.421  13.592  14.472
 3615SOL    HW112684   3.444  13.664  14.414
 3615SOL    HW212685   3.504  13.549  14.492
 3616SOL     OW12686  10.024  11.834   0.567
 3616SOL    HW112687   9.965  11.905   0.540
 3616SOL    HW212688  10.077  11.817   0.490
 3617SOL     OW12689   9.760   8.361   1.650
 3617SOL    HW112690   9.669   8.335   1.633
 3617SOL    HW212691   9.796   8.288   1.700
 3618SOL     OW12692   9.193   4.406  11.397
 3618SOL    HW112693   9.251   4.480  11.414
 3618SOL    HW212694   9.249   4.329  11.403
 3619SOL     OW12695  13.236   3.717   2.323
 3619SOL    HW112696  13.305   3.777   2.296
 3619SOL    HW212697  13.235   3.649   2.255
 3620SOL     OW12698   4.282  11.130  11.266
 3620SOL    HW112699   4.306  11.069  11.197
 3620SOL    HW212700   4.265  11.212  11.220
 3621SOL     OW12701  10.500  14.088   9.975
 3621SOL    HW112702  10.536  14.170  10.010
 3621SOL    HW212703  10.513  14.025  10.045
 3622SOL     OW12704   5.447   0.122   2.173
 3622SOL    HW112705   5.513   0.186   2.146
 3622SOL    HW212706   5.407   0.092   2.091
 3623SOL     OW12707   0.636  13.091   7.790
 3623SOL    HW112708   0.616  13.183   7.776
 3623SOL    HW212709   0.595  13.045   7.717
 3624SOL     OW12710  14.682   3.888  10.956
 3624SOL    HW112711  14.623   3.869  10.882
 3624SOL    HW212712  14.623   3.895  11.031
 3625SOL     OW12713   4.160   1.357  10.671
 3625SOL    HW112714   4.247   1.396  10.658
 3625SOL    HW212715   4.105   1.400  10.605
 3626SOL     OW12716   4.552  13.639   6.513
 3626SOL    HW112717   4.495  13.703   6.471
 3626SOL    HW212718   4.619  13.619   6.448
 3627SOL     OW12719   5.179   1.325   5.393
 3627SOL    HW112720   5.130   1.343   5.473
 3627SOL    HW212721   5.247   1.262   5.419
 3628SOL     OW12722   0.532   6.116   3.684
 3628SOL    HW112723   0.513   6.151   3.597
 3628SOL    HW212724   0.571   6.030   3.668
 3629SOL     OW12725  13.797   8.659  11.915
 3629SOL    HW112726  13.712   8.700  11.933
 3629SOL    HW212727  13.834   8.640  12.001
 3630SOL     OW12728   5.318   7.122  10.561
 3630SOL    HW112729   5.385   7.056  10.544
 3630SOL    HW212730   5.332   7.147  10.652
 3631SOL     OW12731   1.831  13.753  14.575
 3631SOL    HW112732   1.905  13.725  14.629
 3631SOL    HW212733   1.778  13.807  14.632
 3632SOL     OW12734   8.065  12.324  14.665
 3632SOL    HW112735   8.014  12.400  14.636
 3632SOL    HW212736   8.114  12.298  14.587
 3633SOL     OW12737   6.526  10.115   4.802
 3633SOL    HW112738   6.506  10.021   4.806
 3633SOL    HW212739   6.607  10.120   4.751
 3634SOL     OW12740  14.869  10.986   3.740
 3634SOL    HW112741   0.023  11.010   3.826
 3634SOL    HW212742  14.824  10.903   3.754
 3635SOL     OW12743  10.886   0.468  13.001
 3635SOL    HW112744  10.795   0.445  12.980
 3635SOL    HW212745  10.899   0.435  13.089
 3636SOL     OW12746   8.718  12.589   7.023
 3636SOL    HW112747   8.805  12.629   7.029
 3636SOL    HW212748   8.703  12.579   6.929
 3637SOL     OW12749   5.835   3.714   2.233
 3637SOL    HW112750   5.854   3.803   2.203
 3637SOL    HW212751   5.917   3.666   2.218
 3638SOL     OW12752   0.655   5.918  13.109
 3638SOL    HW112753   0.687   6.002  13.074
 3638SOL    HW212754   0.593   5.943  13.177
 3639SOL     OW12755   0.013  14.634  13.538
 3639SOL    HW112756  14.814  14.599  13.580
 3639SOL    HW212757   0.077  14.563  13.543
 3640SOL     OW12758   2.830   8.996  12.235
 3640SOL    HW112759   2.847   9.038  12.151
 3640SOL    HW212760   2.817   9.068  12.296
 3641SOL     OW12761   1.800   0.228  14.381
 3641SOL    HW112762   1.735   0.276  14.431
 3641SOL    HW212763   1.753   0.152  14.347
 3642SOL     OW12764   7.811   0.320  13.169
 3642SOL    HW112765   7.715   0.315  13.171
 3642SOL    HW212766   7.835   0.351  13.257
 3643SOL     OW12767   3.320   9.171   6.622
 3643SOL    HW112768   3.300   9.115   6.697
 3643SOL    HW212769   3.239   9.174   6.573
 3644SOL     OW12770  13.282   5.558  13.726
 3644SOL    HW112771  13.214   5.522  13.783
 3644SOL    HW212772  13.247   5.644  13.699
 3645SOL     OW12773  12.754   2.166   7.216
 3645SOL    HW112774  12.846   2.186   7.195
 3645SOL    HW212775  12.717   2.136   7.134
 3646SOL     OW12776   4.211  12.755   3.009
 3646SOL    HW112777   4.244  12.691   2.945
 3646SOL    HW212778   4.138  12.798   2.965
 3647SOL     OW12779   4.822  14.380  11.425
 3647SOL    HW112780   4.814  14.298  11.474
 3647SOL    HW212781   4.915  14.403  11.432
 3648SOL     OW12782   4.258   5.873   5.742
 3648SOL    HW112783   4.258   5.860   5.837
 3648SOL    HW212784   4.227   5.963   5.731
 3649SOL     OW12785   7.493  13.148  12.499
 3649SOL    HW112786   7.586  13.145  12.476
 3649SOL    HW212787   7.457  13.216  12.443
 3650SOL     OW12788   2.296  11.414   6.243
 3650SOL    HW112789   2.379  11.366   6.246
 3650SOL    HW212790   2.236  11.355   6.197
 3651SOL     OW12791   9.324   6.144  13.516
 3651SOL    HW112792   9.386   6.206  13.553
 3651SOL    HW212793   9.334   6.065  13.570
 3652SOL     OW12794  10.377   3.194   7.053
 3652SOL    HW112795  10.418   3.109   7.064
 3652SOL    HW212796  10.378   3.210   6.958
 3653SOL     OW12797   0.723  12.835  10.808
 3653SOL    HW112798   0.763  12.761  10.853
 3653SOL    HW212799   0.756  12.912  10.854
 3654SOL     OW12800   8.594   3.704   6.619
 3654SOL    HW112801   8.596   3.648   6.697
 3654SOL    HW212802   8.654   3.775   6.639
 3655SOL     OW12803   1.106  13.996   5.831
 3655SOL    HW112804   1.026  13.962   5.872
 3655SOL    HW212805   1.086  13.997   5.738
 3656SOL     OW12806  11.967   6.904   6.451
 3656SOL    HW112807  12.036   6.845   6.481
 3656SOL    HW212808  11.987   6.920   6.359
 3657SOL     OW12809   4.714   7.539   7.106
 3657SOL    HW112810   4.624   7.567   7.088
 3657SOL    HW212811   4.727   7.560   7.198
 3658SOL     OW12812  11.521   1.224   9.285
 3658SOL    HW112813  11.493   1.134   9.301
 3658SOL    HW212814  11.504   1.270   9.367
 3659SOL     OW12815   3.837  14.070   1.285
 3659SOL    HW112816   3.883  13.987   1.288
 3659SOL    HW212817   3.906  14.136   1.284
 3660SOL     OW12818  10.361  13.638  11.558
 3660SOL    HW112819  10.420  13.615  11.486
 3660SOL    HW212820  10.314  13.715  11.526
 3661SOL     OW12821  11.516   0.142  10.421
 3661SOL    HW112822  11.459   0.072  10.389
 3661SOL    HW212823  11.588   0.146  10.358
 3662SOL     OW12824  14.105  12.110  10.294
 3662SOL    HW112825  14.187  12.152  10.320
 3662SOL    HW212826  14.113  12.020  10.324
 3663SOL     OW12827   2.502   9.137   1.007
 3663SOL    HW112828   2.469   9.183   0.930
 3663SOL    HW212829   2.584   9.182   1.029
 3664SOL     OW12830   4.914   0.314  10.751
 3664SOL    HW112831   4.893   0.225  10.723
 3664SOL    HW212832   4.874   0.323  10.837
 3665SOL     OW12833   0.578   2.411  14.253
 3665SOL    HW112834   0.627   2.482  14.212
 3665SOL    HW212835   0.604   2.412  14.345
 3666SOL     OW12836  13.072   5.847   5.638
 3666SOL    HW112837  13.129   5.889   5.574
 3666SOL    HW212838  13.033   5.920   5.687
 3667SOL     OW12839   4.266   4.947  12.686
 3667SOL    HW112840   4.336   5.008  12.662
 3667SOL    HW212841   4.305   4.860  12.672
 3668SOL     OW12842  10.268  12.372  12.764
 3668SOL    HW112843  10.343  12.392  12.709
 3668SOL    HW212844  10.225  12.456  12.779
 3669SOL     OW12845  10.709   8.944   8.579
 3669SOL    HW112846  10.790   8.991   8.557
 3669SOL    HW212847  10.717   8.860   8.533
 3670SOL     OW12848  11.140   9.941   5.920
 3670SOL    HW112849  11.221   9.890   5.914
 3670SOL    HW212850  11.088   9.914   5.845
 3671SOL     OW12851  10.791  14.584   5.207
 3671SOL    HW112852  10.805  14.660   5.151
 3671SOL    HW212853  10.696  14.573   5.209
 3672SOL     OW12854   4.356   3.259  10.546
 3672SOL    HW112855   4.302   3.198  10.596
 3672SOL    HW212856   4.353   3.227  10.456
 3673SOL     OW12857  14.696  12.557  12.407
 3673SOL    HW112858  14.622  12.603  12.366
 3673SOL    HW212859  14.755  12.540  12.334
 3674SOL     OW12860   1.206   8.028  10.462
 3674SOL    HW112861   1.213   8.003  10.554
 3674SOL    HW212862   1.119   7.999  10.435
 3675SOL     OW12863   9.310   2.255   7.649
 3675SOL    HW112864   9.260   2.336   7.657
 3675SOL    HW212865   9.244   2.186   7.644
 3676SOL     OW12866   9.197   0.351   1.803
 3676SOL    HW112867   9.228   0.260   1.794
 3676SOL    HW212868   9.141   0.350   1.880
 3677SOL     OW12869   5.756   2.291   8.466
 3677SOL    HW112870   5.803   2.242   8.399
 3677SOL    HW212871   5.825   2.320   8.526
 3678SOL     OW12872   4.020   4.224   8.633
 3678SOL    HW112873   4.106   4.199   8.665
 3678SOL    HW212874   4.038   4.288   8.564
 3679SOL     OW12875   9.466   9.149   3.062
 3679SOL    HW112876   9.483   9.137   3.155
 3679SOL    HW212877   9.517   9.081   3.019
 3680SOL     OW12878  14.312   0.827  14.837
 3680SOL    HW112879  14.309   0.850  14.744
 3680SOL    HW212880  14.281   0.906   0.002
 3681SOL     OW12881  10.528  14.271   3.511
 3681SOL    HW112882  10.490  14.229   3.434
 3681SOL    HW212883  10.506  14.212   3.583
 3682SOL     OW12884   3.572   9.985   7.464
 3682SOL    HW112885   3.610   9.951   7.383
 3682SOL    HW212886   3.502  10.044   7.435
 3683SOL     OW12887   7.650  14.776   4.225
 3683SOL    HW112888   7.609  14.695   4.257
 3683SOL    HW212889   7.640  14.838   4.297
 3684SOL     OW12890   9.530   3.969  10.914
 3684SOL    HW112891   9.605   3.943  10.861
 3684SOL    HW212892   9.480   3.889  10.927
 3685SOL     OW12893   0.251   6.150   3.052
 3685SOL    HW112894   0.318   6.165   2.985
 3685SOL    HW212895   0.292   6.089   3.114
 3686SOL     OW12896  11.787   3.168   2.651
 3686SOL    HW112897  11.862   3.127   2.693
 3686SOL    HW212898  11.741   3.213   2.721
 3687SOL     OW12899  11.711   9.070  10.712
 3687SOL    HW112900  11.804   9.055  10.695
 3687SOL    HW212901  11.702   9.062  10.807
 3688SOL     OW12902   7.570   9.569   9.423
 3688SOL    HW112903   7.654   9.527   9.402
 3688SOL    HW212904   7.517   9.498   9.459
 3689SOL     OW12905  13.587   5.985   1.801
 3689SOL    HW112906  13.628   6.037   1.731
 3689SOL    HW212907  13.495   5.978   1.776
 3690SOL     OW12908  10.172  11.042   2.601
 3690SOL    HW112909  10.165  11.048   2.696
 3690SOL    HW212910  10.177  10.948   2.583
 3691SOL     OW12911   2.335   6.810  11.493
 3691SOL    HW112912   2.241   6.800  11.478
 3691SOL    HW212913   2.343   6.894  11.538
 3692SOL     OW12914   4.092   4.149   3.328
 3692SOL    HW112915   4.019   4.166   3.268
 3692SOL    HW212916   4.121   4.236   3.355
 3693SOL     OW12917   6.668   8.770  10.123
 3693SOL    HW112918   6.586   8.812  10.096
 3693SOL    HW212919   6.737   8.818  10.076
 3694SOL     OW12920   9.161  12.277  11.086
 3694SOL    HW112921   9.096  12.252  11.020
 3694SOL    HW212922   9.121  12.348  11.135
 3695SOL     OW12923   6.644   3.270   0.008
 3695SOL    HW112924   6.587   3.219  14.830
 3695SOL    HW212925   6.715   3.300  14.830
 3696SOL     OW12926   5.199   4.149  10.260
 3696SOL    HW112927   5.171   4.113  10.344
 3696SOL    HW212928   5.181   4.079  10.197
 3697SOL     OW12929  14.723  14.232   5.476
 3697SOL    HW112930  14.665  14.184   5.535
 3697SOL    HW212931  14.776  14.287   5.534
 3698SOL     OW12932   7.565   7.061  10.222
 3698SOL    HW112933   7.572   7.008  10.302
 3698SOL    HW212934   7.637   7.031  10.167
 3699SOL     OW12935  13.616   4.887   3.529
 3699SOL    HW112936  13.709   4.908   3.536
 3699SOL    HW212937  13.614   4.794   3.507
 3700SOL     OW12938   9.544   4.597  10.123
 3700SOL    HW112939   9.549   4.556  10.037
 3700SOL    HW212940   9.456   4.636  10.126
 3701SOL     OW12941   0.094   6.265  11.901
 3701SOL    HW112942   0.075   6.223  11.817
 3701SOL    HW212943   0.182   6.301  11.891
 3702SOL     OW12944   2.296   4.329  11.705
 3702SOL    HW112945   2.338   4.288  11.630
 3702SOL    HW212946   2.204   4.337  11.680
 3703SOL     OW12947   5.000   9.977   3.466
 3703SOL    HW112948   4.948  10.057   3.481
 3703SOL    HW212949   4.986   9.958   3.373
 3704SOL     OW12950   5.445   4.258   4.507
 3704SOL    HW112951   5.381   4.201   4.549
 3704SOL    HW212952   5.427   4.345   4.543
 3705SOL     OW12953  11.842   4.244   7.148
 3705SOL    HW112954  11.844   4.332   7.184
 3705SOL    HW212955  11.753   4.235   7.113
 3706SOL     OW12956   9.330   3.848   7.450
 3706SOL    HW112957   9.423   3.850   7.473
 3706SOL    HW212958   9.302   3.760   7.476
 3707SOL     OW12959   5.405   6.660  12.848
 3707SOL    HW112960   5.378   6.645  12.939
 3707SOL    HW212961   5.474   6.595  12.833
 3708SOL     OW12962   1.702  14.340   3.429
 3708SOL    HW112963   1.630  14.277   3.433
 3708SOL    HW212964   1.663  14.423   3.458
 3709SOL     OW12965  14.180  11.065  10.696
 3709SOL    HW112966  14.252  11.038  10.753
 3709SOL    HW212967  14.203  11.154  10.669
 3710SOL     OW12968   7.388   0.349  11.557
 3710SOL    HW112969   7.433   0.266  11.541
 3710SOL    HW212970   7.333   0.332  11.633
 3711SOL     OW12971   3.714   1.540   6.223
 3711SOL    HW112972   3.643   1.524   6.285
 3711SOL    HW212973   3.769   1.461   6.229
 3712SOL     OW12974  11.662  13.595  11.393
 3712SOL    HW112975  11.616  13.563  11.316
 3712SOL    HW212976  11.730  13.529  11.410
 3713SOL     OW12977  10.696   8.114  10.025
 3713SOL    HW112978  10.764   8.062   9.982
 3713SOL    HW212979  10.667   8.176   9.957
 3714SOL     OW12980   2.043  10.461   6.429
 3714SOL    HW112981   1.957  10.504   6.432
 3714SOL    HW212982   2.044  10.417   6.343
 3715SOL     OW12983   8.027   7.797  11.145
 3715SOL    HW112984   7.979   7.766  11.069
 3715SOL    HW212985   8.034   7.721  11.202
 3716SOL     OW12986   8.488  12.238   0.004
 3716SOL    HW112987   8.465  12.327  14.857
 3716SOL    HW212988   8.550  12.251   0.076
 3717SOL     OW12989   0.968   6.198   5.250
 3717SOL    HW112990   0.958   6.266   5.184
 3717SOL    HW212991   1.063   6.182   5.253
 3718SOL     OW12992  13.562   8.480   6.354
 3718SOL    HW112993  13.643   8.456   6.308
 3718SOL    HW212994  13.542   8.403   6.407
 3719SOL     OW12995   2.676  11.361  12.007
 3719SOL    HW112996   2.764  11.346  12.043
 3719SOL    HW212997   2.688  11.431  11.943
 3720SOL     OW12998   4.732  11.805   3.492
 3720SOL    HW112999   4.723  11.710   3.503
 3720SOL    HW213000   4.665  11.828   3.429
 3721SOL     OW13001  12.059  12.565   3.234
 3721SOL    HW113002  11.979  12.570   3.286
 3721SOL    HW213003  12.056  12.477   3.195
 3722SOL     OW13004   1.419  10.019  13.047
 3722SOL    HW113005   1.434  10.113  13.037
 3722SOL    HW213006   1.468   9.995  13.126
 3723SOL     OW13007   6.461   8.749  10.978
 3723SOL    HW113008   6.464   8.676  10.915
 3723SOL    HW213009   6.474   8.707  11.063
 3724SOL     OW13010   5.195  12.229  10.936
 3724SOL    HW113011   5.278  12.276  10.942
 3724SOL    HW213012   5.191  12.177  11.016
 3725SOL     OW13013  10.847   8.222   2.787
 3725SOL    HW113014  10.822   8.286   2.721
 3725SOL    HW213015  10.784   8.151   2.775
 3726SOL     OW13016   0.237  14.649   1.629
 3726SOL    HW113017   0.303  14.581   1.617
 3726SOL    HW213018   0.287  14.728   1.649
 3727SOL     OW13019   7.320   9.056   3.692
 3727SOL    HW113020   7.393   9.009   3.651
 3727SOL    HW213021   7.243   9.004   3.670
 3728SOL     OW13022  12.973   6.110   5.729
 3728SOL    HW113023  12.920   6.190   5.722
 3728SOL    HW213024  13.052   6.129   5.678
 3729SOL     OW13025   9.134  10.178  11.733
 3729SOL    HW113026   9.199  10.133  11.679
 3729SOL    HW213027   9.175  10.260  11.757
 3730SOL     OW13028   8.937   2.227   2.241
 3730SOL    HW113029   8.877   2.167   2.197
 3730SOL    HW213030   8.939   2.304   2.184
 3731SOL     OW13031   3.710  11.127  10.175
 3731SOL    HW113032   3.743  11.050  10.220
 3731SOL    HW213033   3.622  11.101  10.145
 3732SOL     OW13034  11.113   0.857   7.854
 3732SOL    HW113035  11.066   0.931   7.817
 3732SOL    HW213036  11.091   0.859   7.948
 3733SOL     OW13037   5.559   8.726  10.547
 3733SOL    HW113038   5.608   8.653  10.584
 3733SOL    HW213039   5.474   8.688  10.524
 3734SOL     OW13040  13.616   7.921   9.062
 3734SOL    HW113041  13.647   7.839   9.024
 3734SOL    HW213042  13.542   7.896   9.117
 3735SOL     OW13043   6.348  14.507   7.071
 3735SOL    HW113044   6.419  14.446   7.092
 3735SOL    HW213045   6.284  14.454   7.023
 3736SOL     OW13046   1.586   4.079   1.066
 3736SOL    HW113047   1.676   4.109   1.058
 3736SOL    HW213048   1.593   3.988   1.096
 3737SOL     OW13049  10.677  13.024   2.863
 3737SOL    HW113050  10.670  12.935   2.827
 3737SOL    HW213051  10.635  13.079   2.797
 3738SOL     OW13052   3.573   8.616  13.787
 3738SOL    HW113053   3.598   8.644  13.699
 3738SOL    HW213054   3.584   8.694  13.841
 3739SOL     OW13055   0.959   1.310  12.106
 3739SOL    HW113056   1.021   1.253  12.152
 3739SOL    HW213057   0.873   1.281  12.136
 3740SOL     OW13058  13.930   4.322  10.629
 3740SOL    HW113059  13.928   4.362  10.542
 3740SOL    HW213060  14.011   4.271  10.629
 3741SOL     OW13061   6.423  12.429   3.794
 3741SOL    HW113062   6.430  12.336   3.772
 3741SOL    HW213063   6.513  12.460   3.792
 3742SOL     OW13064   2.297   4.000  10.356
 3742SOL    HW113065   2.363   3.977  10.422
 3742SOL    HW213066   2.335   3.973  10.273
 3743SOL     OW13067   7.530   1.502  14.416
 3743SOL    HW113068   7.588   1.473  14.346
 3743SOL    HW213069   7.539   1.437  14.485
 3744SOL     OW13070  12.601  13.194   9.065
 3744SOL    HW113071  12.530  13.139   9.029
 3744SOL    HW213072  12.556  13.256   9.123
 3745SOL     OW13073  14.784  13.193   4.978
 3745SOL    HW113074  14.690  13.208   4.981
 3745SOL    HW213075  14.795  13.103   5.008
 3746SOL     OW13076  13.946   6.722   2.846
 3746SOL    HW113077  13.979   6.800   2.803
 3746SOL    HW213078  13.994   6.650   2.805
 3747SOL     OW13079   3.456   4.221   2.268
 3747SOL    HW113080   3.467   4.139   2.219
 3747SOL    HW213081   3.371   4.254   2.239
 3748SOL     OW13082   5.166   9.109  12.751
 3748SOL    HW113083   5.253   9.113  12.712
 3748SOL    HW213084   5.110   9.076  12.681
 3749SOL     OW13085   4.659  13.807  10.190
 3749SOL    HW113086   4.750  13.813  10.219
 3749SOL    HW213087   4.647  13.715  10.168
 3750SOL     OW13088  12.183   0.110  13.010
 3750SOL    HW113089  12.183   0.182  12.947
 3750SOL    HW213090  12.092   0.101  13.037
 3751SOL     OW13091  11.100   2.658   2.276
 3751SOL    HW113092  11.064   2.572   2.255
 3751SOL    HW213093  11.194   2.645   2.279
 3752SOL     OW13094   2.044  11.974  10.815
 3752SOL    HW113095   1.967  11.951  10.763
 3752SOL    HW213096   2.088  11.891  10.831
 3753SOL     OW13097  14.632  14.657   3.011
 3753SOL    HW113098  14.719  14.616   3.009
 3753SOL    HW213099  14.651  14.751   3.004
 3754SOL     OW13100  13.047   9.209  10.325
 3754SOL    HW113101  13.017   9.119  10.311
 3754SOL    HW213102  12.967   9.261  10.317
 3755SOL     OW13103   3.774   1.952   0.362
 3755SOL    HW113104   3.778   1.877   0.302
 3755SOL    HW213105   3.776   1.914   0.449
 3756SOL     OW13106   5.419  12.027  11.254
 3756SOL    HW113107   5.483  12.051  11.322
 3756SOL    HW213108   5.452  11.944  11.219
 3757SOL     OW13109  14.415   0.967   1.031
 3757SOL    HW113110  14.479   0.992   1.098
 3757SOL    HW213111  14.379   1.050   1.000
 3758SOL     OW13112  10.120   4.766   6.318
 3758SOL    HW113113  10.174   4.826   6.266
 3758SOL    HW213114  10.136   4.793   6.409
 3759SOL     OW13115   4.924   1.091   9.006
 3759SOL    HW113116   4.963   1.174   8.976
 3759SOL    HW213117   4.931   1.033   8.930
 3760SOL     OW13118   5.117  10.264  13.203
 3760SOL    HW113119   5.088  10.185  13.248
 3760SOL    HW213120   5.080  10.256  13.115
 3761SOL     OW13121   3.210   5.723   4.366
 3761SOL    HW113122   3.278   5.700   4.429
 3761SOL    HW213123   3.161   5.794   4.408
 3762SOL     OW13124   3.259   0.934   6.211
 3762SOL    HW113125   3.214   0.910   6.130
 3762SOL    HW213126   3.337   0.982   6.181
 3763SOL     OW13127   4.007   5.422   2.847
 3763SOL    HW113128   3.912   5.408   2.836
 3763SOL    HW213129   4.044   5.334   2.846
 3764SOL     OW13130  11.683   1.749   6.718
 3764SOL    HW113131  11.641   1.794   6.645
 3764SOL    HW213132  11.770   1.788   6.723
 3765SOL     OW13133  14.557  11.365   4.947
 3765SOL    HW113134  14.590  11.299   5.009
 3765SOL    HW213135  14.634  11.391   4.897
 3766SOL     OW13136  11.622   0.618   0.042
 3766SOL    HW113137  11.591   0.561  14.850
 3766SOL    HW213138  11.717   0.620   0.031
 3767SOL     OW13139   6.614   6.482  13.317
 3767SOL    HW113140   6.668   6.429  13.259
 3767SOL    HW213141   6.668   6.558  13.336
 3768SOL     OW13142  13.902   2.508   5.271
 3768SOL    HW113143  13.822   2.498   5.221
 3768SOL    HW213144  13.874   2.512   5.362
 3769SOL     OW13145   5.125   8.047   6.261
 3769SOL    HW113146   5.062   8.115   6.286
 3769SOL    HW213147   5.198   8.095   6.223
 3770SOL     OW13148   2.220   2.713   7.012
 3770SOL    HW113149   2.137   2.740   7.052
 3770SOL    HW213150   2.286   2.759   7.063
 3771SOL     OW13151  14.707  10.913  11.678
 3771SOL    HW113152  14.652  10.989  11.696
 3771SOL    HW213153  14.725  10.918  11.584
 3772SOL     OW13154   3.051   1.736   8.414
 3772SOL    HW113155   2.994   1.659   8.408
 3772SOL    HW213156   2.999   1.807   8.377
 3773SOL     OW13157  10.737  14.761   1.111
 3773SOL    HW113158  10.676  14.739   1.041
 3773SOL    HW213159  10.822  14.768   1.068
 3774SOL     OW13160   7.614   1.766  14.582
 3774SOL    HW113161   7.654   1.816  14.512
 3774SOL    HW213162   7.575   1.690  14.539
 3775SOL     OW13163  11.124   1.641  13.905
 3775SOL    HW113164  11.059   1.689  13.956
 3775SOL    HW213165  11.077   1.615  13.825
 3776SOL     OW13166  10.040  14.252  11.731
 3776SOL    HW113167  10.087  14.189  11.678
 3776SOL    HW213168  10.074  14.240  11.820
 3777SOL     OW13169   6.364   3.842   9.705
 3777SOL    HW113170   6.427   3.803   9.645
 3777SOL    HW213171   6.393   3.814   9.792
 3778SOL     OW13172  11.081   6.961   7.281
 3778SOL    HW113173  11.021   7.015   7.332
 3778SOL    HW213174  11.167   7.001   7.295
 3779SOL     OW13175   8.939  10.841  13.523
 3779SOL    HW113176   9.009  10.826  13.586
 3779SOL    HW213177   8.964  10.790  13.446
 3780SOL     OW13178  10.766   8.839  11.129
 3780SOL    HW113179  10.732   8.926  11.154
 3780SOL    HW213180  10.813   8.854  11.048
 3781SOL     OW13181  11.907   9.709   2.299
 3781SOL    HW113182  11.870   9.700   2.211
 3781SOL    HW213183  11.982   9.650   2.300
 3782SOL     OW13184  12.426   1.415  12.941
 3782SOL    HW113185  12.367   1.463  13.000
 3782SOL    HW213186  12.513   1.425  12.981
 3783SOL     OW13187   2.069  11.307   3.361
 3783SOL    HW113188   2.019  11.237   3.318
 3783SOL    HW213189   2.002  11.360   3.405
 3784SOL     OW13190   0.021   5.082   9.773
 3784SOL    HW113191  14.821   5.102   9.722
 3784SOL    HW213192   0.087   5.143   9.740
 3785SOL     OW13193   0.470   2.489   3.992
 3785SOL    HW113194   0.438   2.490   4.082
 3785SOL    HW213195   0.550   2.437   3.996
 3786SOL     OW13196   0.754   2.050  10.177
 3786SOL    HW113197   0.778   2.125  10.121
 3786SOL    HW213198   0.837   2.004  10.192
 3787SOL     OW13199   7.263  12.002   0.166
 3787SOL    HW113200   7.245  12.087   0.207
 3787SOL    HW213201   7.265  12.020   0.072
 3788SOL     OW13202   3.185   3.652   6.932
 3788SOL    HW113203   3.153   3.712   6.999
 3788SOL    HW213204   3.277   3.640   6.953
 3789SOL     OW13205  12.564   9.001  11.598
 3789SOL    HW113206  12.611   8.995  11.515
 3789SOL    HW213207  12.472   8.988  11.574
 3790SOL     OW13208  12.717   8.516  10.314
 3790SOL    HW113209  12.807   8.486  10.302
 3790SOL    HW213210  12.711   8.536  10.408
 3791SOL     OW13211  13.544  11.601   3.497
 3791SOL    HW113212  13.622  11.614   3.444
 3791SOL    HW213213  13.568  11.534   3.561
 3792SOL     OW13214   8.536   0.626   1.768
 3792SOL    HW113215   8.539   0.535   1.797
 3792SOL    HW213216   8.620   0.639   1.723
 3793SOL     OW13217   7.077  11.479  14.111
 3793SOL    HW113218   7.005  11.426  14.077
 3793SOL    HW213219   7.145  11.416  14.135
 3794SOL     OW13220   2.015  14.200   0.244
 3794SOL    HW113221   1.966  14.205   0.326
 3794SOL    HW213222   2.002  14.285   0.202
 3795SOL     OW13223   3.867   6.041   1.485
 3795SOL    HW113224   3.816   5.961   1.500
 3795SOL    HW213225   3.938   6.036   1.549
 3796SOL     OW13226   1.464   9.948  11.966
 3796SOL    HW113227   1.483   9.882  11.898
 3796SOL    HW213228   1.500  10.030  11.930
 3797SOL     OW13229   8.497   5.351   5.196
 3797SOL    HW113230   8.560   5.288   5.160
 3797SOL    HW213231   8.430   5.296   5.238
 3798SOL     OW13232   4.944   4.967   2.334
 3798SOL    HW113233   5.038   4.952   2.346
 3798SOL    HW213234   4.939   5.035   2.267
 3799SOL     OW13235  12.486   2.614  14.139
 3799SOL    HW113236  12.406   2.598  14.190
 3799SOL    HW213237  12.550   2.552  14.174
 3800SOL     OW13238   9.095  13.264   8.090
 3800SOL    HW113239   9.171  13.234   8.040
 3800SOL    HW213240   9.124  13.347   8.129
 3801SOL     OW13241   3.487  12.228   6.309
 3801SOL    HW113242   3.409  12.175   6.291
 3801SOL    HW213243   3.454  12.318   6.309
 3802SOL     OW13244  10.117   0.323  13.057
 3802SOL    HW113245  10.135   0.319  13.151
 3802SOL    HW213246  10.123   0.416  13.036
 3803SOL     OW13247   4.872  14.147   3.637
 3803SOL    HW113248   4.958  14.118   3.606
 3803SOL    HW213249   4.854  14.093   3.714
 3804SOL     OW13250  12.336  13.126   2.025
 3804SOL    HW113251  12.284  13.203   2.004
 3804SOL    HW213252  12.283  13.076   2.086
 3805SOL     OW13253   1.105  11.272   9.138
 3805SOL    HW113254   1.150  11.227   9.209
 3805SOL    HW213255   1.012  11.256   9.155
 3806SOL     OW13256   7.379   3.297   0.483
 3806SOL    HW113257   7.417   3.278   0.398
 3806SOL    HW213258   7.300   3.347   0.463
 3807SOL     OW13259  13.010  14.750  10.462
 3807SOL    HW113260  12.967  14.781  10.382
 3807SOL    HW213261  12.940  14.709  10.513
 3808SOL     OW13262  11.388   8.836   3.496
 3808SOL    HW113263  11.462   8.775   3.499
 3808SOL    HW213264  11.353   8.825   3.407
 3809SOL     OW13265   2.897   3.314   6.881
 3809SOL    HW113266   2.838   3.265   6.823
 3809SOL    HW213267   2.853   3.398   6.893
 3810SOL     OW13268   6.504   3.586   5.535
 3810SOL    HW113269   6.545   3.505   5.505
 3810SOL    HW213270   6.442   3.559   5.603
 3811SOL     OW13271  10.871   4.098   8.650
 3811SOL    HW113272  10.904   4.117   8.738
 3811SOL    HW213273  10.915   4.017   8.625
 3812SOL     OW13274   1.474   7.948   1.749
 3812SOL    HW113275   1.468   7.876   1.686
 3812SOL    HW213276   1.404   8.008   1.724
 3813SOL     OW13277   7.748   0.444   4.229
 3813SOL    HW113278   7.734   0.349   4.220
 3813SOL    HW213279   7.659   0.480   4.236
 3814SOL     OW13280  14.218   0.763   9.442
 3814SOL    HW113281  14.205   0.766   9.537
 3814SOL    HW213282  14.303   0.804   9.428
 3815SOL     OW13283   6.824   6.275   0.175
 3815SOL    HW113284   6.770   6.345   0.212
 3815SOL    HW213285   6.833   6.212   0.246
 3816SOL     OW13286   8.972  12.272  12.587
 3816SOL    HW113287   8.901  12.208  12.585
 3816SOL    HW213288   8.929  12.357  12.587
 3817SOL     OW13289  12.114   4.361  14.154
 3817SOL    HW113290  12.192   4.352  14.209
 3817SOL    HW213291  12.059   4.287  14.179
 3818SOL     OW13292   2.923   3.680   2.515
 3818SOL    HW113293   3.013   3.712   2.521
 3818SOL    HW213294   2.932   3.585   2.512
 3819SOL     OW13295  14.597   9.772   9.027
 3819SOL    HW113296  14.628   9.803   8.942
 3819SOL    HW213297  14.568   9.683   9.011
 3820SOL     OW13298   7.484   1.297   9.133
 3820SOL    HW113299   7.418   1.242   9.091
 3820SOL    HW213300   7.537   1.330   9.060
 3821SOL     OW13301   9.747   7.348  12.660
 3821SOL    HW113302   9.690   7.309  12.726
 3821SOL    HW213303   9.690   7.363  12.585
 3822SOL     OW13304   3.551   9.807  11.246
 3822SOL    HW113305   3.587   9.875  11.188
 3822SOL    HW213306   3.569   9.725  11.201
 3823SOL     OW13307   7.538   2.947  11.245
 3823SOL    HW113308   7.459   2.986  11.284
 3823SOL    HW213309   7.602   3.018  11.246
 3824SOL     OW13310   6.531   7.119   1.361
 3824SOL    HW113311   6.591   7.172   1.308
 3824SOL    HW213312   6.445   7.133   1.322
 3825SOL     OW13313   2.980   8.028   5.952
 3825SOL    HW113314   3.047   8.078   5.999
 3825SOL    HW213315   3.022   7.946   5.928
 3826SOL     OW13316   8.044   9.630   9.477
 3826SOL    HW113317   8.050   9.574   9.555
 3826SOL    HW213318   7.973   9.690   9.496
 3827SOL     OW13319   8.265   3.826   9.265
 3827SOL    HW113320   8.237   3.912   9.233
 3827SOL    HW213321   8.285   3.839   9.357
 3828SOL     OW13322  14.644   3.406   5.337
 3828SOL    HW113323  14.593   3.479   5.301
 3828SOL    HW213324  14.641   3.338   5.270
 3829SOL     OW13325   6.485   1.285  12.935
 3829SOL    HW113326   6.422   1.230  12.982
 3829SOL    HW213327   6.564   1.283  12.990
 3830SOL     OW13328  10.809   9.655   9.411
 3830SOL    HW113329  10.824   9.566   9.442
 3830SOL    HW213330  10.831   9.711   9.486
 3831SOL     OW13331   2.448   8.109   2.256
 3831SOL    HW113332   2.378   8.077   2.314
 3831SOL    HW213333   2.415   8.091   2.167
 3832SOL     OW13334   9.815   2.102   2.491
 3832SOL    HW113335   9.840   2.087   2.400
 3832SOL    HW213336   9.872   2.173   2.520
 3833SOL     OW13337   6.973   0.356   0.569
 3833SOL    HW113338   6.913   0.368   0.495
 3833SOL    HW213339   6.928   0.398   0.643
 3834SOL     OW13340   7.729   5.214  14.419
 3834SOL    HW113341   7.730   5.182  14.329
 3834SOL    HW213342   7.745   5.308  14.412
 3835SOL     OW13343   3.615  11.698   3.488
 3835SOL    HW113344   3.612  11.656   3.403
 3835SOL    HW213345   3.681  11.649   3.537
 3836SOL     OW13346   0.035   7.952   1.588
 3836SOL    HW113347  14.879   7.933   1.501
 3836SOL    HW213348   0.076   7.869   1.615
 3837SOL     OW13349   4.983   1.327  10.741
 3837SOL    HW113350   5.005   1.305  10.832
 3837SOL    HW213351   5.041   1.271  10.689
 3838SOL     OW13352   8.046   2.828   0.742
 3838SOL    HW113353   8.081   2.794   0.825
 3838SOL    HW213354   8.028   2.750   0.690
 3839SOL     OW13355  13.649  13.923   8.912
 3839SOL    HW113356  13.679  13.937   9.001
 3839SOL    HW213357  13.558  13.954   8.913
 3840SOL     OW13358   5.156  12.955   9.132
 3840SOL    HW113359   5.249  12.977   9.121
 3840SOL    HW213360   5.143  12.878   9.077
 3841SOL     OW13361   9.916   6.767   1.562
 3841SOL    HW113362   9.973   6.701   1.523
 3841SOL    HW213363   9.870   6.806   1.487
 3842SOL     OW13364  11.440   0.564  10.184
 3842SOL    HW113365  11.393   0.492  10.227
 3842SOL    HW213366  11.532   0.538  10.187
 3843SOL     OW13367   6.078   4.495  13.041
 3843SOL    HW113368   6.164   4.455  13.051
 3843SOL    HW213369   6.083   4.576  13.092
 3844SOL     OW13370  10.374   7.968  14.395
 3844SOL    HW113371  10.365   7.925  14.310
 3844SOL    HW213372  10.389   8.060  14.374
 3845SOL     OW13373  12.514   5.702   0.264
 3845SOL    HW113374  12.491   5.761   0.192
 3845SOL    HW213375  12.445   5.716   0.329
 3846SOL     OW13376   6.967   8.875   9.066
 3846SOL    HW113377   6.903   8.942   9.039
 3846SOL    HW213378   6.914   8.802   9.095
 3847SOL     OW13379  10.264   9.610   7.942
 3847SOL    HW113380  10.236   9.586   8.030
 3847SOL    HW213381  10.342   9.664   7.956
 3848SOL     OW13382   5.466   2.929   4.815
 3848SOL    HW113383   5.543   2.933   4.872
 3848SOL    HW213384   5.497   2.964   4.731
 3849SOL     OW13385  10.114   3.795  12.929
 3849SOL    HW113386  10.124   3.881  12.888
 3849SOL    HW213387  10.027   3.797  12.969
 3850SOL     OW13388   4.832  10.571   7.562
 3850SOL    HW113389   4.888  10.585   7.486
 3850SOL    HW213390   4.878  10.617   7.633
 3851SOL     OW13391  11.482  12.863   1.846
 3851SOL    HW113392  11.484  12.889   1.938
 3851SOL    HW213393  11.558  12.805   1.837
 3852SOL     OW13394   6.210   1.526   6.721
 3852SOL    HW113395   6.124   1.561   6.700
 3852SOL    HW213396   6.226   1.459   6.655
 3853SOL     OW13397   9.672   3.744  12.394
 3853SOL    HW113398   9.726   3.786  12.327
 3853SOL    HW213399   9.729   3.740  12.471
 3854SOL     OW13400  13.348   0.854  11.250
 3854SOL    HW113401  13.256   0.858  11.279
 3854SOL    HW213402  13.393   0.919  11.304
 3855SOL     OW13403   7.804   3.008   7.311
 3855SOL    HW113404   7.749   2.985   7.386
 3855SOL    HW213405   7.745   3.052   7.250
 3856SOL     OW13406  11.026  13.820   4.543
 3856SOL    HW113407  11.005  13.841   4.452
 3856SOL    HW213408  11.099  13.878   4.564
 3857SOL     OW13409   7.748   3.628  14.381
 3857SOL    HW113410   7.815   3.590  14.326
 3857SOL    HW213411   7.672   3.571  14.369
 3858SOL     OW13412   2.592   1.946  12.918
 3858SOL    HW113413   2.601   1.987  12.832
 3858SOL    HW213414   2.602   1.852  12.901
 3859SOL     OW13415  13.872   7.834   1.405
 3859SOL    HW113416  13.833   7.888   1.474
 3859SOL    HW213417  13.899   7.754   1.450
 3860SOL     OW13418  13.627   1.881   9.015
 3860SOL    HW113419  13.705   1.912   9.061
 3860SOL    HW213420  13.598   1.957   8.965
 3861SOL     OW13421  13.433   6.632   5.167
 3861SOL    HW113422  13.487   6.559   5.137
 3861SOL    HW213423  13.370   6.646   5.097
 3862SOL     OW13424   2.009   5.060  11.621
 3862SOL    HW113425   1.929   5.055  11.569
 3862SOL    HW213426   2.052   5.140  11.591
 3863SOL     OW13427  10.432  11.897   2.870
 3863SOL    HW113428  10.400  11.807   2.864
 3863SOL    HW213429  10.357  11.947   2.902
 3864SOL     OW13430  10.876   1.252   1.672
 3864SOL    HW113431  10.916   1.332   1.707
 3864SOL    HW213432  10.813   1.282   1.607
 3865SOL     OW13433  11.814   2.007   5.062
 3865SOL    HW113434  11.860   1.938   5.013
 3865SOL    HW213435  11.813   1.976   5.152
 3866SOL     OW13436  10.612   9.070  11.093
 3866SOL    HW113437  10.559   9.149  11.101
 3866SOL    HW213438  10.571   9.021  11.020
 3867SOL     OW13439  12.112   0.853  12.674
 3867SOL    HW113440  12.125   0.758  12.668
 3867SOL    HW213441  12.021   0.866  12.644
 3868SOL     OW13442   1.742  12.887   4.021
 3868SOL    HW113443   1.826  12.859   3.985
 3868SOL    HW213444   1.726  12.826   4.093
 3869SOL     OW13445   9.405   3.179  11.020
 3869SOL    HW113446   9.429   3.105  10.964
 3869SOL    HW213447   9.315   3.200  10.995
 3870SOL     OW13448  12.977  12.434   3.129
 3870SOL    HW113449  12.913  12.375   3.168
 3870SOL    HW213450  12.932  12.518   3.123
 3871SOL     OW13451   7.436   4.798   0.375
 3871SOL    HW113452   7.472   4.795   0.463
 3871SOL    HW213453   7.354   4.748   0.380
 3872SOL     OW13454   9.509  14.281   8.286
 3872SOL    HW113455   9.476  14.192   8.276
 3872SOL    HW213456   9.573  14.276   8.357
 3873SOL     OW13457   7.018   4.265   1.748
 3873SOL    HW113458   7.049   4.222   1.668
 3873SOL    HW213459   7.053   4.211   1.819
 3874SOL     OW13460   3.681   2.217  11.489
 3874SOL    HW113461   3.742   2.155  11.529
 3874SOL    HW213462   3.735   2.267  11.428
 3875SOL     OW13463  10.432   6.506   6.896
 3875SOL    HW113464  10.436   6.483   6.988
 3875SOL    HW213465  10.523   6.506   6.867
 3876SOL     OW13466   2.949  11.684   4.743
 3876SOL    HW113467   3.032  11.638   4.749
 3876SOL    HW213468   2.973  11.776   4.743
 3877SOL     OW13469   2.617   2.223  11.112
 3877SOL    HW113470   2.701   2.197  11.074
 3877SOL    HW213471   2.590   2.147  11.164
 3878SOL     OW13472   8.792  13.437   1.272
 3878SOL    HW113473   8.837  13.462   1.191
 3878SOL    HW213474   8.855  13.457   1.341
 3879SOL     OW13475  14.601   2.030  11.110
 3879SOL    HW113476  14.538   2.103  11.108
 3879SOL    HW213477  14.626   2.018  11.019
 3880SOL     OW13478  14.088   8.084  12.075
 3880SOL    HW113479  14.094   8.030  12.153
 3880SOL    HW213480  14.103   8.024  12.002
 3881SOL     OW13481   9.028   1.133   3.362
 3881SOL    HW113482   9.005   1.053   3.409
 3881SOL    HW213483   8.968   1.135   3.288
 3882SOL     OW13484   7.957  14.583   4.009
 3882SOL    HW113485   7.898  14.653   3.980
 3882SOL    HW213486   7.996  14.550   3.928
 3883SOL     OW13487   2.398   6.975   3.144
 3883SOL    HW113488   2.434   7.034   3.077
 3883SOL    HW213489   2.310   7.009   3.161
 3884SOL     OW13490  13.034   3.490   3.686
 3884SOL    HW113491  12.946   3.508   3.718
 3884SOL    HW213492  13.056   3.404   3.722
 3885SOL     OW13493  13.133  12.728   9.159
 3885SOL    HW113494  13.177  12.812   9.148
 3885SOL    HW213495  13.191  12.676   9.214
 3886SOL     OW13496  11.363   2.801   3.318
 3886SOL    HW113497  11.366   2.857   3.240
 3886SOL    HW213498  11.402   2.855   3.387
 3887SOL     OW13499   1.538   0.526   9.877
 3887SOL    HW113500   1.508   0.562   9.793
 3887SOL    HW213501   1.633   0.517   9.865
 3888SOL     OW13502   5.509   4.098   4.006
 3888SOL    HW113503   5.558   4.157   3.949
 3888SOL    HW213504   5.419   4.132   4.004
 3889SOL     OW13505  13.035   8.393   4.297
 3889SOL    HW113506  13.078   8.339   4.232
 3889SOL    HW213507  13.055   8.352   4.381
 3890SOL     OW13508   6.071  12.039   7.682
 3890SOL    HW113509   6.028  12.032   7.597
 3890SOL    HW213510   6.100  12.131   7.686
 3891SOL     OW13511  11.787   1.832   7.216
 3891SOL    HW113512  11.766   1.745   7.251
 3891SOL    HW213513  11.725   1.844   7.144
 3892SOL     OW13514   0.768   4.833  10.847
 3892SOL    HW113515   0.710   4.758  10.859
 3892SOL    HW213516   0.739   4.874  10.766
 3893SOL     OW13517  12.483   2.318   2.789
 3893SOL    HW113518  12.401   2.366   2.782
 3893SOL    HW213519  12.463   2.231   2.754
 3894SOL     OW13520  13.146   9.929  13.169
 3894SOL    HW113521  13.070   9.909  13.224
 3894SOL    HW213522  13.123   9.895  13.083
 3895SOL     OW13523   9.795   4.294   4.227
 3895SOL    HW113524   9.736   4.269   4.298
 3895SOL    HW213525   9.847   4.215   4.210
 3896SOL     OW13526  12.354   7.305  10.830
 3896SOL    HW113527  12.406   7.224  10.828
 3896SOL    HW213528  12.393   7.357  10.900
 3897SOL     OW13529  12.660   6.159   6.299
 3897SOL    HW113530  12.748   6.191   6.278
 3897SOL    HW213531  12.602   6.229   6.271
 3898SOL     OW13532   5.227   4.835   2.888
 3898SOL    HW113533   5.145   4.838   2.839
 3898SOL    HW213534   5.272   4.916   2.865
 3899SOL     OW13535   0.903   3.461   7.010
 3899SOL    HW113536   0.919   3.500   6.924
 3899SOL    HW213537   0.978   3.487   7.063
 3900SOL     OW13538  10.555   9.588  13.691
 3900SOL    HW113539  10.540   9.682  13.698
 3900SOL    HW213540  10.650   9.579  13.685
 3901SOL     OW13541   0.469   5.301   2.724
 3901SOL    HW113542   0.452   5.235   2.656
 3901SOL    HW213543   0.388   5.304   2.775
 3902SOL     OW13544   8.396   7.437   2.479
 3902SOL    HW113545   8.363   7.520   2.443
 3902SOL    HW213546   8.340   7.419   2.554
 3903SOL     OW13547   0.666   9.079   3.248
 3903SOL    HW113548   0.755   9.048   3.264
 3903SOL    HW213549   0.630   9.016   3.185
 3904SOL     OW13550   9.451  14.777  14.569
 3904SOL    HW113551   9.486  14.739  14.649
 3904SOL    HW213552   9.528  14.808  14.521
 3905SOL     OW13553  12.173   1.510   5.676
 3905SOL    HW113554  12.248   1.462   5.709
 3905SOL    HW213555  12.100   1.448   5.681
 3906SOL     OW13556   4.644   0.945   7.334
 3906SOL    HW113557   4.654   0.901   7.250
 3906SOL    HW213558   4.610   0.878   7.393
 3907SOL     OW13559   0.861   1.935   3.513
 3907SOL    HW113560   0.948   1.914   3.480
 3907SOL    HW213561   0.834   2.011   3.461
 3908SOL     OW13562   5.350  12.663   3.713
 3908SOL    HW113563   5.440  12.698   3.713
 3908SOL    HW213564   5.361  12.569   3.701
 3909SOL     OW13565   4.720   4.489  10.911
 3909SOL    HW113566   4.763   4.411  10.875
 3909SOL    HW213567   4.736   4.557  10.846
 3910SOL     OW13568  10.468   0.271   2.408
 3910SOL    HW113569  10.563   0.289   2.406
 3910SOL    HW213570  10.435   0.329   2.477
 3911SOL     OW13571   0.463   3.335   4.738
 3911SOL    HW113572   0.512   3.273   4.683
 3911SOL    HW213573   0.375   3.335   4.701
 3912SOL     OW13574   7.724   1.070  11.511
 3912SOL    HW113575   7.706   1.042  11.421
 3912SOL    HW213576   7.817   1.051  11.524
 3913SOL     OW13577   2.171   8.327  10.389
 3913SOL    HW113578   2.143   8.301  10.477
 3913SOL    HW213579   2.116   8.402  10.367
 3914SOL     OW13580   9.085   9.693   1.861
 3914SOL    HW113581   9.073   9.674   1.954
 3914SOL    HW213582   9.174   9.728   1.856
 3915SOL     OW13583   9.289   2.698   3.340
 3915SOL    HW113584   9.290   2.793   3.330
 3915SOL    HW213585   9.302   2.683   3.433
 3916SOL     OW13586   8.585  11.202  12.174
 3916SOL    HW113587   8.628  11.189  12.259
 3916SOL    HW213588   8.555  11.293  12.176
 3917SOL     OW13589   3.862   9.914   8.394
 3917SOL    HW113590   3.867  10.008   8.373
 3917SOL    HW213591   3.945   9.878   8.363
 3918SOL     OW13592   1.060   4.358  14.659
 3918SOL    HW113593   1.004   4.337  14.584
 3918SOL    HW213594   1.013   4.428  14.705
 3919SOL     OW13595   2.792  13.794   6.706
 3919SOL    HW113596   2.704  13.805   6.668
 3919SOL    HW213597   2.843  13.867   6.670
 3920SOL     OW13598   5.261  11.976  10.775
 3920SOL    HW113599   5.283  12.019  10.692
 3920SOL    HW213600   5.254  12.047  10.838
 3921SOL     OW13601   1.798  12.577  10.930
 3921SOL    HW113602   1.796  12.497  10.982
 3921SOL    HW213603   1.868  12.629  10.970
 3922SOL     OW13604   4.603   2.112   1.208
 3922SOL    HW113605   4.512   2.110   1.178
 3922SOL    HW213606   4.653   2.136   1.130
 3923SOL     OW13607  12.616   4.301   2.924
 3923SOL    HW113608  12.654   4.377   2.968
 3923SOL    HW213609  12.691   4.246   2.901
 3924SOL     OW13610   6.506   9.785   8.192
 3924SOL    HW113611   6.580   9.795   8.132
 3924SOL    HW213612   6.537   9.819   8.276
 3925SOL     OW13613  14.801   3.613  13.855
 3925SOL    HW113614  14.853   3.561  13.794
 3925SOL    HW213615  14.858   3.625  13.931
 3926SOL     OW13616  13.280  11.746  11.239
 3926SOL    HW113617  13.323  11.780  11.160
 3926SOL    HW213618  13.340  11.679  11.272
 3927SOL     OW13619  13.954   0.548   4.101
 3927SOL    HW113620  14.008   0.585   4.171
 3927SOL    HW213621  13.981   0.457   4.095
 3928SOL     OW13622   6.377  10.374  12.784
 3928SOL    HW113623   6.427  10.406  12.709
 3928SOL    HW213624   6.443  10.339  12.843
 3929SOL     OW13625  12.152   0.799   6.260
 3929SOL    HW113626  12.174   0.794   6.353
 3929SOL    HW213627  12.160   0.708   6.229
 3930SOL     OW13628  12.558  10.837   2.714
 3930SOL    HW113629  12.578  10.774   2.783
 3930SOL    HW213630  12.621  10.816   2.644
 3931SOL     OW13631   7.911  12.973  10.117
 3931SOL    HW113632   7.874  12.895  10.076
 3931SOL    HW213633   7.841  13.006  10.174
 3932SOL     OW13634   1.626   4.082  10.748
 3932SOL    HW113635   1.656   4.168  10.779
 3932SOL    HW213636   1.692   4.056  10.684
 3933SOL     OW13637   9.996  12.469   9.749
 3933SOL    HW113638   9.987  12.507   9.836
 3933SOL    HW213639  10.006  12.544   9.690
 3934SOL     OW13640   3.063  12.916   5.997
 3934SOL    HW113641   3.038  12.900   6.088
 3934SOL    HW213642   2.997  12.871   5.945
 3935SOL     OW13643  14.233   1.287   9.254
 3935SOL    HW113644  14.160   1.308   9.312
 3935SOL    HW213645  14.256   1.370   9.213
 3936SOL     OW13646   7.422   1.187  14.769
 3936SOL    HW113647   7.401   1.131  14.844
 3936SOL    HW213648   7.455   1.268  14.808
 3937SOL     OW13649   2.583   6.936  10.039
 3937SOL    HW113650   2.674   6.911  10.026
 3937SOL    HW213651   2.581   7.030  10.024
 3938SOL     OW13652   3.752   9.580   1.510
 3938SOL    HW113653   3.801   9.597   1.430
 3938SOL    HW213654   3.813   9.532   1.566
 3939SOL     OW13655   0.670  13.814   0.740
 3939SOL    HW113656   0.642  13.820   0.649
 3939SOL    HW213657   0.589  13.795   0.788
 3940SOL     OW13658   8.283   6.577   5.413
 3940SOL    HW113659   8.198   6.617   5.397
 3940SOL    HW213660   8.335   6.600   5.336
 3941SOL     OW13661   2.989  14.698  13.997
 3941SOL    HW113662   3.058  14.743  13.948
 3941SOL    HW213663   2.987  14.743  14.082
 3942SOL     OW13664   1.233   4.874  11.068
 3942SOL    HW113665   1.326   4.872  11.048
 3942SOL    HW213666   1.225   4.830  11.153
 3943SOL     OW13667  10.950   6.189  10.609
 3943SOL    HW113668  10.998   6.163  10.687
 3943SOL    HW213669  10.968   6.283  10.600
 3944SOL     OW13670   0.711   1.574  12.198
 3944SOL    HW113671   0.633   1.552  12.148
 3944SOL    HW213672   0.684   1.566  12.289
 3945SOL     OW13673   5.535   6.992   4.505
 3945SOL    HW113674   5.550   6.899   4.488
 3945SOL    HW213675   5.617   7.024   4.542
 3946SOL     OW13676   1.508   7.413   0.289
 3946SOL    HW113677   1.576   7.469   0.325
 3946SOL    HW213678   1.446   7.474   0.248
 3947SOL     OW13679  12.199   5.627   6.225
 3947SOL    HW113680  12.231   5.539   6.204
 3947SOL    HW213681  12.230   5.681   6.152
 3948SOL     OW13682  11.451   5.189   2.974
 3948SOL    HW113683  11.355   5.195   2.968
 3948SOL    HW213684  11.479   5.274   3.007
 3949SOL     OW13685  13.151  14.164   0.166
 3949SOL    HW113686  13.213  14.113   0.218
 3949SOL    HW213687  13.070  14.164   0.217
 3950SOL     OW13688  11.612  10.942   2.833
 3950SOL    HW113689  11.682  10.890   2.795
 3950SOL    HW213690  11.616  10.924   2.927
 3951SOL     OW13691  13.078   8.967   7.423
 3951SOL    HW113692  13.030   9.013   7.355
 3951SOL    HW213693  13.128   8.900   7.376
 3952SOL     OW13694   1.025   7.695   2.362
 3952SOL    HW113695   0.987   7.781   2.344
 3952SOL    HW213696   1.077   7.674   2.285
 3953SOL     OW13697   8.582  13.574   0.288
 3953SOL    HW113698   8.662  13.624   0.308
 3953SOL    HW213699   8.574  13.580   0.193
 3954SOL     OW13700   0.746   4.296  13.812
 3954SOL    HW113701   0.682   4.228  13.791
 3954SOL    HW213702   0.812   4.289  13.744
 3955SOL     OW13703   2.701  12.707   3.475
 3955SOL    HW113704   2.617  12.752   3.465
 3955SOL    HW213705   2.682  12.617   3.449
 3956SOL     OW13706   0.190   8.609   8.094
 3956SOL    HW113707   0.212   8.596   8.002
 3956SOL    HW213708   0.128   8.682   8.093
 3957SOL     OW13709  11.853   0.654  10.987
 3957SOL    HW113710  11.856   0.693  10.900
 3957SOL    HW213711  11.773   0.600  10.986
 3958SOL     OW13712  11.842   0.046   5.157
 3958SOL    HW113713  11.831   0.125   5.209
 3958SOL    HW213714  11.903  14.871   5.207
 3959SOL     OW13715   2.379  13.666   8.466
 3959SOL    HW113716   2.449  13.603   8.446
 3959SOL    HW213717   2.410  13.711   8.545
 3960SOL     OW13718  11.968   7.270   4.109
 3960SOL    HW113719  11.909   7.199   4.132
 3960SOL    HW213720  12.012   7.292   4.191
 3961SOL     OW13721  12.404   7.853  12.495
 3961SOL    HW113722  12.363   7.827  12.413
 3961SOL    HW213723  12.331   7.879  12.551
 3962SOL     OW13724  11.657   4.426   5.276
 3962SOL    HW113725  11.685   4.518   5.278
 3962SOL    HW213726  11.590   4.419   5.344
 3963SOL     OW13727  14.019   5.660  11.210
 3963SOL    HW113728  14.038   5.567  11.195
 3963SOL    HW213729  14.090   5.689  11.268
 3964SOL     OW13730   3.876  14.097   8.387
 3964SOL    HW113731   3.944  14.061   8.443
 3964SOL    HW213732   3.838  14.169   8.438
 3965SOL     OW13733   3.931   2.823   8.468
 3965SOL    HW113734   3.849   2.857   8.504
 3965SOL    HW213735   3.906   2.742   8.424
 3966SOL     OW13736   5.894   7.288   7.552
 3966SOL    HW113737   5.948   7.219   7.515
 3966SOL    HW213738   5.806   7.270   7.519
 3967SOL     OW13739  11.684  14.760  12.126
 3967SOL    HW113740  11.718  14.799  12.046
 3967SOL    HW213741  11.692  14.829  12.192
 3968SOL     OW13742   2.938   4.760   5.164
 3968SOL    HW113743   2.965   4.809   5.087
 3968SOL    HW213744   2.910   4.826   5.227
 3969SOL     OW13745   1.377   8.128   5.444
 3969SOL    HW113746   1.372   8.053   5.502
 3969SOL    HW213747   1.426   8.097   5.368
 3970SOL     OW13748   3.649   1.250  13.134
 3970SOL    HW113749   3.707   1.288  13.067
 3970SOL    HW213750   3.696   1.173  13.165
 3971SOL     OW13751   8.427   4.249   6.039
 3971SOL    HW113752   8.444   4.267   5.947
 3971SOL    HW213753   8.435   4.154   6.046
 3972SOL     OW13754   7.311  14.573  12.873
 3972SOL    HW113755   7.216  14.573  12.883
 3972SOL    HW213756   7.342  14.635  12.939
 3973SOL     OW13757  13.598  13.720   1.455
 3973SOL    HW113758  13.659  13.766   1.397
 3973SOL    HW213759  13.655  13.673   1.517
 3974SOL     OW13760  13.236  14.285   8.357
 3974SOL    HW113761  13.240  14.228   8.434
 3974SOL    HW213762  13.323  14.326   8.353
 3975SOL     OW13763   9.504  10.219  11.938
 3975SOL    HW113764   9.503  10.124  11.923
 3975SOL    HW213765   9.590  10.237  11.975
 3976SOL     OW13766   9.927   1.077   2.239
 3976SOL    HW113767   9.833   1.067   2.254
 3976SOL    HW213768   9.967   1.051   2.322
 3977SOL     OW13769   0.110  10.393  13.152
 3977SOL    HW113770   0.173  10.321  13.144
 3977SOL    HW213771   0.163  10.472  13.139
 3978SOL     OW13772  12.101   2.888   7.920
 3978SOL    HW113773  12.074   2.798   7.902
 3978SOL    HW213774  12.029   2.942   7.888
 3979SOL     OW13775  12.574   4.696  13.237
 3979SOL    HW113776  12.504   4.638  13.266
 3979SOL    HW213777  12.654   4.662  13.278
 3980SOL     OW13778   4.513   3.656  11.641
 3980SOL    HW113779   4.597   3.696  11.617
 3980SOL    HW213780   4.468   3.723  11.692
 3981SOL     OW13781   5.539  12.077   3.505
 3981SOL    HW113782   5.566  12.087   3.414
 3981SOL    HW213783   5.622  12.071   3.554
 3982SOL     OW13784   0.753   8.552   1.657
 3982SOL    HW113785   0.753   8.647   1.646
 3982SOL    HW213786   0.661   8.527   1.648
 3983SOL     OW13787   9.528  11.804  10.233
 3983SOL    HW113788   9.507  11.740  10.301
 3983SOL    HW213789   9.481  11.883  10.259
 3984SOL     OW13790   7.256   2.838  14.549
 3984SOL    HW113791   7.205   2.769  14.507
 3984SOL    HW213792   7.223   2.841  14.639
 3985SOL     OW13793   6.014   1.527  13.817
 3985SOL    HW113794   6.027   1.530  13.911
 3985SOL    HW213795   5.932   1.574  13.802
 3986SOL     OW13796   9.473   7.700   6.805
 3986SOL    HW113797   9.491   7.726   6.895
 3986SOL    HW213798   9.423   7.618   6.812
 3987SOL     OW13799   0.909   1.550   2.888
 3987SOL    HW113800   0.981   1.514   2.939
 3987SOL    HW213801   0.854   1.474   2.867
 3988SOL     OW13802  14.639   7.936   2.547
 3988SOL    HW113803  14.658   7.999   2.478
 3988SOL    HW213804  14.679   7.973   2.626
 3989SOL     OW13805   6.067   0.426   3.580
 3989SOL    HW113806   6.073   0.522   3.584
 3989SOL    HW213807   6.054   0.407   3.487
 3990SOL     OW13808   1.287   4.273   7.650
 3990SOL    HW113809   1.289   4.227   7.566
 3990SOL    HW213810   1.370   4.248   7.692
 3991SOL     OW13811  13.563   5.728  12.033
 3991SOL    HW113812  13.508   5.802  12.055
 3991SOL    HW213813  13.553   5.717  11.938
 3992SOL     OW13814   4.901   2.379   2.968
 3992SOL    HW113815   4.843   2.354   2.896
 3992SOL    HW213816   4.948   2.299   2.989
 3993SOL     OW13817   7.464  13.051   6.183
 3993SOL    HW113818   7.504  13.123   6.134
 3993SOL    HW213819   7.496  13.062   6.272
 3994SOL     OW13820   7.640   8.510   9.893
 3994SOL    HW113821   7.580   8.536   9.823
 3994SOL    HW213822   7.685   8.433   9.859
 3995SOL     OW13823   2.827  12.376  11.065
 3995SOL    HW113824   2.822  12.302  11.006
 3995SOL    HW213825   2.738  12.387  11.098
 3996SOL     OW13826  13.734  11.381   6.287
 3996SOL    HW113827  13.661  11.363   6.347
 3996SOL    HW213828  13.812  11.379   6.342
 3997SOL     OW13829   9.799   6.998   1.424
 3997SOL    HW113830   9.850   7.033   1.497
 3997SOL    HW213831   9.729   7.063   1.410
 3998SOL     OW13832  11.759  13.837   5.137
 3998SOL    HW113833  11.838  13.818   5.188
 3998SOL    HW213834  11.781  13.917   5.090
 3999SOL     OW13835  14.441   0.246  13.189
 3999SOL    HW113836  14.394   0.196  13.123
 3999SOL    HW213837  14.494   0.180  13.236
 4000SOL     OW13838   1.886  13.944   7.128
 4000SOL    HW113839   1.864  14.036   7.113
 4000SOL    HW213840   1.919  13.913   7.043
 4001SOL     OW13841  11.333   3.797   0.639
 4001SOL    HW113842  11.302   3.771   0.552
 4001SOL    HW213843  11.368   3.886   0.625
 4002SOL     OW13844   8.289   9.270  14.473
 4002SOL    HW113845   8.350   9.280  14.546
 4002SOL    HW213846   8.206   9.245  14.514
 4003SOL     OW13847  10.658   7.007  13.696
 4003SOL    HW113848  10.682   7.080  13.753
 4003SOL    HW213849  10.663   7.043  13.608
 4004SOL     OW13850  10.125   6.456   5.342
 4004SOL    HW113851  10.156   6.462   5.433
 4004SOL    HW213852  10.066   6.381   5.341
 4005SOL     OW13853   6.985   3.351  13.252
 4005SOL    HW113854   6.979   3.268  13.299
 4005SOL    HW213855   6.895   3.382  13.247
 4006SOL     OW13856  11.112  11.440  12.119
 4006SOL    HW113857  11.149  11.353  12.137
 4006SOL    HW213858  11.100  11.479  12.206
 4007SOL     OW13859   4.550  12.072  13.811
 4007SOL    HW113860   4.623  12.096  13.869
 4007SOL    HW213861   4.570  12.116  13.729
 4008SOL     OW13862   9.572   6.568   0.879
 4008SOL    HW113863   9.651   6.577   0.825
 4008SOL    HW213864   9.538   6.657   0.886
 4009SOL     OW13865  10.631  14.689  13.897
 4009SOL    HW113866  10.643  14.629  13.971
 4009SOL    HW213867  10.618  14.631  13.822
 4010SOL     OW13868  14.325  13.855   1.365
 4010SOL    HW113869  14.392  13.905   1.410
 4010SOL    HW213870  14.292  13.794   1.430
 4011SOL     OW13871  10.522  14.158   1.455
 4011SOL    HW113872  10.506  14.235   1.509
 4011SOL    HW213873  10.437  14.115   1.449
 4012SOL     OW13874  10.477   4.841   9.763
 4012SOL    HW113875  10.504   4.762   9.810
 4012SOL    HW213876  10.397   4.869   9.807
 4013SOL     OW13877  12.511   0.071   1.447
 4013SOL    HW113878  12.464   0.124   1.511
 4013SOL    HW213879  12.531   0.131   1.375
 4014SOL     OW13880  12.181   8.465   4.755
 4014SOL    HW113881  12.188   8.548   4.802
 4014SOL    HW213882  12.087   8.451   4.746
 4015SOL     OW13883   9.215   5.219   2.346
 4015SOL    HW113884   9.264   5.293   2.381
 4015SOL    HW213885   9.271   5.182   2.279
 4016SOL     OW13886  11.498   3.290   8.484
 4016SOL    HW113887  11.494   3.195   8.495
 4016SOL    HW213888  11.472   3.324   8.570
 4017SOL     OW13889   2.705   3.537   1.270
 4017SOL    HW113890   2.733   3.533   1.362
 4017SOL    HW213891   2.755   3.467   1.227
 4018SOL     OW13892   5.794   1.041  12.940
 4018SOL    HW113893   5.711   1.063  12.899
 4018SOL    HW213894   5.784   1.070  13.031
 4019SOL     OW13895  12.159   3.252   2.953
 4019SOL    HW113896  12.068   3.241   2.981
 4019SOL    HW213897  12.167   3.346   2.935
 4020SOL     OW13898   3.430   0.353  10.106
 4020SOL    HW113899   3.412   0.316  10.192
 4020SOL    HW213900   3.345   0.360  10.063
 4021SOL     OW13901   6.624   4.175   7.736
 4021SOL    HW113902   6.655   4.261   7.706
 4021SOL    HW213903   6.688   4.148   7.802
 4022SOL     OW13904   3.453   3.132   2.542
 4022SOL    HW113905   3.470   3.180   2.461
 4022SOL    HW213906   3.451   3.040   2.517
 4023SOL     OW13907   7.183   7.512   6.909
 4023SOL    HW113908   7.202   7.591   6.958
 4023SOL    HW213909   7.225   7.526   6.824
 4024SOL     OW13910   9.898  10.652  14.403
 4024SOL    HW113911   9.962  10.637  14.334
 4024SOL    HW213912   9.949  10.651  14.484
 4025SOL     OW13913   8.390   1.541   5.622
 4025SOL    HW113914   8.319   1.599   5.594
 4025SOL    HW213915   8.421   1.501   5.541
 4026SOL     OW13916  12.707   8.137  12.937
 4026SOL    HW113917  12.701   8.204  12.868
 4026SOL    HW213918  12.653   8.065  12.905
 4027SOL     OW13919  11.111   0.035   3.652
 4027SOL    HW113920  11.054  14.863   3.594
 4027SOL    HW213921  11.187  14.859   3.666
 4028SOL     OW13922  14.228   6.404  13.284
 4028SOL    HW113923  14.158   6.356  13.329
 4028SOL    HW213924  14.224   6.372  13.194
 4029SOL     OW13925  12.637   9.336   6.231
 4029SOL    HW113926  12.564   9.396   6.218
 4029SOL    HW213927  12.677   9.328   6.144
 4030SOL     OW13928   0.170  10.437   5.642
 4030SOL    HW113929   0.219  10.402   5.716
 4030SOL    HW213930   0.231  10.434   5.569
 4031SOL     OW13931   9.879   3.756   9.759
 4031SOL    HW113932   9.946   3.798   9.704
 4031SOL    HW213933   9.825   3.707   9.698
 4032SOL     OW13934   0.042  14.387   7.250
 4032SOL    HW113935   0.055  14.357   7.160
 4032SOL    HW213936   0.035  14.306   7.301
 4033SOL     OW13937  12.078   5.113   2.699
 4033SOL    HW113938  12.022   5.188   2.681
 4033SOL    HW213939  12.144   5.115   2.630
 4034SOL     OW13940  14.437   7.378   2.234
 4034SOL    HW113941  14.513   7.390   2.291
 4034SOL    HW213942  14.470   7.329   2.159
 4035SOL     OW13943   3.858   1.829   8.278
 4035SOL    HW113944   3.867   1.748   8.226
 4035SOL    HW213945   3.776   1.868   8.248
 4036SOL     OW13946  11.271   9.403  12.724
 4036SOL    HW113947  11.340   9.409  12.659
 4036SOL    HW213948  11.303   9.456  12.798
 4037SOL     OW13949  12.208  11.659   1.569
 4037SOL    HW113950  12.279  11.712   1.607
 4037SOL    HW213951  12.147  11.646   1.641
 4038SOL     OW13952   3.243   2.050   6.352
 4038SOL    HW113953   3.237   2.033   6.258
 4038SOL    HW213954   3.258   2.145   6.358
 4039SOL     OW13955  11.806   2.198   0.799
 4039SOL    HW113956  11.881   2.257   0.805
 4039SOL    HW213957  11.805   2.152   0.882
 4040SOL     OW13958   3.136  10.641   5.045
 4040SOL    HW113959   3.218  10.615   5.003
 4040SOL    HW213960   3.068  10.590   5.000
 4041SOL     OW13961   2.849   6.405  14.126
 4041SOL    HW113962   2.906   6.368  14.193
 4041SOL    HW213963   2.775   6.345  14.121
 4042SOL     OW13964   8.228  14.593   5.963
 4042SOL    HW113965   8.219  14.687   5.953
 4042SOL    HW213966   8.210  14.577   6.056
 4043SOL     OW13967   6.287   2.622  10.551
 4043SOL    HW113968   6.193   2.635  10.567
 4043SOL    HW213969   6.307   2.540  10.596
 4044SOL     OW13970   8.106   0.854   6.373
 4044SOL    HW113971   8.041   0.892   6.313
 4044SOL    HW213972   8.188   0.899   6.351
 4045SOL     OW13973  14.829   7.390   8.333
 4045SOL    HW113974  14.859   7.454   8.268
 4045SOL    HW213975  14.785   7.442   8.400
 4046SOL     OW13976   5.772   5.124  13.225
 4046SOL    HW113977   5.817   5.108  13.308
 4046SOL    HW213978   5.692   5.169  13.249
 4047SOL     OW13979  11.971   4.339   4.917
 4047SOL    HW113980  11.878   4.334   4.939
 4047SOL    HW213981  12.005   4.252   4.940
 4048SOL     OW13982  12.301   5.182   9.675
 4048SOL    HW113983  12.385   5.166   9.632
 4048SOL    HW213984  12.237   5.187   9.604
 4049SOL     OW13985   8.908   7.401   6.767
 4049SOL    HW113986   8.878   7.409   6.857
 4049SOL    HW213987   8.887   7.485   6.726
 4050SOL     OW13988  12.560  13.958   0.737
 4050SOL    HW113989  12.531  13.999   0.656
 4050SOL    HW213990  12.536  14.020   0.806
 4051SOL     OW13991   8.699   2.250   9.519
 4051SOL    HW113992   8.649   2.294   9.588
 4051SOL    HW213993   8.767   2.202   9.565
 4052SOL     OW13994   2.109   3.438   1.700
 4052SOL    HW113995   2.080   3.526   1.724
 4052SOL    HW213996   2.035   3.402   1.649
 4053SOL     OW13997   1.083   0.739  13.724
 4053SOL    HW113998   1.042   0.661  13.686
 4053SOL    HW213999   1.062   0.735  13.817
 4054SOL     OW14000  12.946  14.027   3.750
 4054SOL    HW114001  13.008  14.014   3.822
 4054SOL    HW214002  12.994  13.999   3.672
 4055SOL     OW14003   4.042  13.225   5.229
 4055SOL    HW114004   3.954  13.260   5.244
 4055SOL    HW214005   4.101  13.293   5.262
 4056SOL     OW14006   9.434   7.461   9.178
 4056SOL    HW114007   9.466   7.424   9.261
 4056SOL    HW214008   9.490   7.537   9.162
 4057SOL     OW14009   6.896   9.041  13.950
 4057SOL    HW114010   6.889   9.062  13.857
 4057SOL    HW214011   6.858   9.117  13.995
 4058SOL     OW14012  11.753  10.166  10.762
 4058SOL    HW114013  11.755  10.262  10.753
 4058SOL    HW214014  11.672  10.139  10.720
 4059SOL     OW14015   1.820   0.853   8.809
 4059SOL    HW114016   1.762   0.827   8.738
 4059SOL    HW214017   1.774   0.924   8.853
 4060SOL     OW14018   0.569   1.885   9.406
 4060SOL    HW114019   0.656   1.860   9.436
 4060SOL    HW214020   0.585   1.954   9.342
 4061SOL     OW14021   9.985  14.420  11.011
 4061SOL    HW114022  10.062  14.468  10.981
 4061SOL    HW214023  10.017  14.363  11.080
 4062SOL     OW14024  11.301   0.477   6.904
 4062SOL    HW114025  11.286   0.400   6.850
 4062SOL    HW214026  11.288   0.551   6.845
 4063SOL     OW14027  11.744   7.236   5.768
 4063SOL    HW114028  11.768   7.209   5.680
 4063SOL    HW214029  11.827   7.236   5.817
 4064SOL     OW14030   4.623   6.383   2.585
 4064SOL    HW114031   4.562   6.424   2.524
 4064SOL    HW214032   4.607   6.427   2.668
 4065SOL     OW14033  10.508   7.877  11.080
 4065SOL    HW114034  10.552   7.802  11.038
 4065SOL    HW214035  10.486   7.935  11.007
 4066SOL     OW14036   0.731   3.074   9.523
 4066SOL    HW114037   0.761   3.156   9.483
 4066SOL    HW214038   0.784   3.065   9.602
 4067SOL     OW14039  12.846   6.783   4.057
 4067SOL    HW114040  12.791   6.857   4.032
 4067SOL    HW214041  12.893   6.813   4.135
 4068SOL     OW14042   5.031  13.539   0.538
 4068SOL    HW114043   5.042  13.464   0.597
 4068SOL    HW214044   5.115  13.548   0.494
 4069SOL     OW14045   7.078   5.700   6.916
 4069SOL    HW114046   7.141   5.728   6.849
 4069SOL    HW214047   7.130   5.694   6.996
 4070SOL     OW14048   5.190   8.387   7.454
 4070SOL    HW114049   5.140   8.408   7.533
 4070SOL    HW214050   5.258   8.455   7.451
 4071SOL     OW14051  13.486   4.005  10.250
 4071SOL    HW114052  13.408   4.061  10.257
 4071SOL    HW214053  13.477   3.942  10.321
 4072SOL     OW14054  10.201   2.041  12.648
 4072SOL    HW114055  10.271   1.984  12.613
 4072SOL    HW214056  10.150   1.983  12.705
 4073SOL     OW14057  12.787   7.367  11.715
 4073SOL    HW114058  12.748   7.312  11.647
 4073SOL    HW214059  12.869   7.322  11.737
 4074SOL     OW14060  12.615   7.845   6.882
 4074SOL    HW114061  12.524   7.820   6.899
 4074SOL    HW214062  12.639   7.901   6.955
 4075SOL     OW14063   3.558   5.621   1.460
 4075SOL    HW114064   3.523   5.561   1.394
 4075SOL    HW214065   3.488   5.685   1.474
 4076SOL     OW14066   2.201   4.253  10.210
 4076SOL    HW114067   2.227   4.171  10.251
 4076SOL    HW214068   2.267   4.316  10.239
 4077SOL     OW14069   5.933  11.163  10.507
 4077SOL    HW114070   5.886  11.121  10.435
 4077SOL    HW214071   5.979  11.237  10.466
 4078SOL     OW14072   7.532  13.036   6.455
 4078SOL    HW114073   7.602  12.987   6.499
 4078SOL    HW214074   7.506  13.103   6.518
 4079SOL     OW14075   3.556  13.899   2.275
 4079SOL    HW114076   3.587  13.943   2.354
 4079SOL    HW214077   3.535  13.970   2.215
 4080SOL     OW14078   4.674   5.247   0.378
 4080SOL    HW114079   4.580   5.236   0.395
 4080SOL    HW214080   4.714   5.256   0.464
 4081SOL     OW14081  12.316   1.591   2.695
 4081SOL    HW114082  12.250   1.659   2.685
 4081SOL    HW214083  12.266   1.510   2.705
 4082SOL     OW14084   2.538   3.835   7.449
 4082SOL    HW114085   2.519   3.805   7.538
 4082SOL    HW214086   2.627   3.804   7.432
 4083SOL     OW14087   1.444   8.467   1.007
 4083SOL    HW114088   1.454   8.554   1.045
 4083SOL    HW214089   1.532   8.430   1.009
 4084SOL     OW14090   3.434  10.790   7.875
 4084SOL    HW114091   3.452  10.884   7.876
 4084SOL    HW214092   3.377  10.777   7.799
 4085SOL     OW14093  12.500   6.207   0.095
 4085SOL    HW114094  12.577   6.225   0.041
 4085SOL    HW214095  12.536   6.192   0.182
 4086SOL     OW14096  12.469   5.664   7.811
 4086SOL    HW114097  12.557   5.697   7.830
 4086SOL    HW214098  12.483   5.575   7.778
 4087SOL     OW14099   2.028   1.334   3.524
 4087SOL    HW114100   2.076   1.253   3.542
 4087SOL    HW214101   1.949   1.327   3.578
 4088SOL     OW14102   6.255  13.864  14.626
 4088SOL    HW114103   6.208  13.860  14.543
 4088SOL    HW214104   6.202  13.811  14.686
 4089SOL     OW14105  11.451   8.013  13.389
 4089SOL    HW114106  11.391   7.948  13.424
 4089SOL    HW214107  11.528   7.964  13.363
 4090SOL     OW14108  14.122   7.273   1.721
 4090SOL    HW114109  14.178   7.196   1.728
 4090SOL    HW214110  14.134   7.304   1.632
 4091SOL     OW14111  13.439   6.681   0.911
 4091SOL    HW114112  13.423   6.656   0.820
 4091SOL    HW214113  13.396   6.766   0.921
 4092SOL     OW14114   4.545   2.098   6.933
 4092SOL    HW114115   4.634   2.064   6.942
 4092SOL    HW214116   4.521   2.080   6.842
 4093SOL     OW14117  10.672   8.635   2.722
 4093SOL    HW114118  10.716   8.637   2.807
 4093SOL    HW214119  10.695   8.550   2.685
 4094SOL     OW14120  12.430   3.822   5.630
 4094SOL    HW114121  12.513   3.847   5.670
 4094SOL    HW214122  12.401   3.901   5.583
 4095SOL     OW14123  11.390   2.790   9.384
 4095SOL    HW114124  11.307   2.746   9.399
 4095SOL    HW214125  11.452   2.745   9.441
 4096SOL     OW14126   3.613   1.097  14.785
 4096SOL    HW114127   3.687   1.085  14.846
 4096SOL    HW214128   3.638   1.172  14.732
 4097SOL     OW14129  12.483   6.672   0.909
 4097SOL    HW114130  12.398   6.710   0.888
 4097SOL    HW214131  12.529   6.667   0.824
 4098SOL     OW14132   0.921  12.227   1.667
 4098SOL    HW114133   0.905  12.267   1.753
 4098SOL    HW214134   0.837  12.187   1.644
 4099SOL     OW14135   0.077  13.453  14.447
 4099SOL    HW114136  14.877  13.413  14.483
 4099SOL    HW214137   0.091  13.531  14.501
 4100SOL     OW14138   8.851   8.232   3.063
 4100SOL    HW114139   8.888   8.160   3.012
 4100SOL    HW214140   8.818   8.294   2.998
 4101SOL     OW14141   4.079  14.553  13.830
 4101SOL    HW114142   4.160  14.513  13.798
 4101SOL    HW214143   4.010  14.494  13.799
 4102SOL     OW14144   1.325   5.243  12.828
 4102SOL    HW114145   1.358   5.155  12.813
 4102SOL    HW214146   1.241   5.246  12.782
 4103SOL     OW14147  10.214  12.177  12.591
 4103SOL    HW114148  10.214  12.093  12.636
 4103SOL    HW214149  10.232  12.242  12.659
 4104SOL     OW14150  11.996   3.814  12.455
 4104SOL    HW114151  12.016   3.894  12.502
 4104SOL    HW214152  11.977   3.749  12.523
 4105SOL     OW14153  14.815  11.022  12.996
 4105SOL    HW114154   0.028  11.001  13.011
 4105SOL    HW214155  14.781  11.040  13.084
 4106SOL     OW14156   4.238  10.632  11.614
 4106SOL    HW114157   4.268  10.599  11.699
 4106SOL    HW214158   4.234  10.554  11.558
 4107SOL     OW14159   2.550   4.281  12.095
 4107SOL    HW114160   2.589   4.365  12.118
 4107SOL    HW214161   2.604   4.216  12.141
 4108SOL     OW14162   3.354   2.784  10.376
 4108SOL    HW114163   3.402   2.730  10.438
 4108SOL    HW214164   3.294   2.724  10.332
 4109SOL     OW14165  14.736  14.570  10.485
 4109SOL    HW114166  14.722  14.614  10.569
 4109SOL    HW214167  14.648  14.547  10.454
 4110SOL     OW14168   5.021   9.099   2.217
 4110SOL    HW114169   4.967   9.036   2.265
 4110SOL    HW214170   5.032   9.061   2.130
 4111SOL     OW14171  13.271   3.019  10.503
 4111SOL    HW114172  13.192   3.071  10.486
 4111SOL    HW214173  13.240   2.929  10.509
 4112SOL     OW14174   4.910  14.624   4.700
 4112SOL    HW114175   4.905  14.626   4.796
 4112SOL    HW214176   4.915  14.530   4.679
 4113SOL     OW14177   0.966  10.018   3.291
 4113SOL    HW114178   1.004   9.938   3.328
 4113SOL    HW214179   0.877   9.994   3.268
 4114SOL     OW14180  11.606  14.724  14.233
 4114SOL    HW114181  11.598  14.735  14.138
 4114SOL    HW214182  11.655  14.642  14.243
 4115SOL     OW14183   4.141  12.659  13.955
 4115SOL    HW114184   4.230  12.625  13.950
 4115SOL    HW214185   4.149  12.752  13.931
 4116SOL     OW14186   8.989  13.641   7.610
 4116SOL    HW114187   8.986  13.564   7.554
 4116SOL    HW214188   8.986  13.606   7.699
 4117SOL     OW14189   1.072   4.500   6.364
 4117SOL    HW114190   1.092   4.551   6.286
 4117SOL    HW214191   1.011   4.554   6.414
 4118SOL     OW14192  12.673   7.256   8.240
 4118SOL    HW114193  12.593   7.225   8.282
 4118SOL    HW214194  12.678   7.206   8.158
 4119SOL     OW14195   7.591  11.933   9.985
 4119SOL    HW114196   7.660  11.866   9.993
 4119SOL    HW214197   7.631  12.001   9.930
 4120SOL     OW14198   8.959  11.620  13.095
 4120SOL    HW114199   8.866  11.613  13.115
 4120SOL    HW214200   8.970  11.573  13.013
 4121SOL     OW14201  12.195   8.958   1.046
 4121SOL    HW114202  12.254   8.947   1.121
 4121SOL    HW214203  12.171   8.869   1.021
 4122SOL     OW14204   7.254   8.334   2.834
 4122SOL    HW114205   7.320   8.283   2.881
 4122SOL    HW214206   7.193   8.270   2.800
 4123SOL     OW14207   5.690   7.066   5.743
 4123SOL    HW114208   5.714   6.983   5.785
 4123SOL    HW214209   5.635   7.041   5.669
 4124SOL     OW14210   9.513   7.305  13.568
 4124SOL    HW114211   9.593   7.358  13.574
 4124SOL    HW214212   9.545   7.214  13.568
 4125SOL     OW14213  11.175   9.389  12.028
 4125SOL    HW114214  11.102   9.394  12.090
 4125SOL    HW214215  11.140   9.425  11.947
 4126SOL     OW14216   3.763  10.837   4.769
 4126SOL    HW114217   3.702  10.906   4.743
 4126SOL    HW214218   3.742  10.820   4.861
 4127SOL     OW14219   7.121  14.685   8.001
 4127SOL    HW114220   7.086  14.735   7.927
 4127SOL    HW214221   7.173  14.749   8.050
 4128SOL     OW14222  10.921   8.428   8.466
 4128SOL    HW114223  10.892   8.367   8.399
 4128SOL    HW214224  10.985   8.484   8.422
 4129SOL     OW14225  11.914   7.550   9.233
 4129SOL    HW114226  11.907   7.464   9.191
 4129SOL    HW214227  11.928   7.531   9.326
 4130SOL     OW14228   3.970   6.285   6.505
 4130SOL    HW114229   4.049   6.303   6.455
 4130SOL    HW214230   3.983   6.198   6.542
 4131SOL     OW14231   0.095   3.025   8.432
 4131SOL    HW114232   0.019   2.974   8.404
 4131SOL    HW214233   0.150   2.962   8.479
 4132SOL     OW14234   1.779  11.689   0.548
 4132SOL    HW114235   1.781  11.769   0.600
 4132SOL    HW214236   1.837  11.628   0.595
 4133SOL     OW14237   1.974  12.738   9.999
 4133SOL    HW114238   1.988  12.828   9.970
 4133SOL    HW214239   1.990  12.741  10.094
 4134SOL     OW14240   2.755  10.012   9.111
 4134SOL    HW114241   2.725  10.096   9.077
 4134SOL    HW214242   2.786  10.032   9.199
 4135SOL     OW14243   8.981   6.545   1.123
 4135SOL    HW114244   8.992   6.469   1.066
 4135SOL    HW214245   9.055   6.602   1.102
 4136SOL     OW14246   7.046   8.936  13.252
 4136SOL    HW114247   6.965   8.907  13.210
 4136SOL    HW214248   7.031   9.027  13.274
 4137SOL     OW14249   8.449   7.880  14.406
 4137SOL    HW114250   8.485   7.958  14.448
 4137SOL    HW214251   8.462   7.895  14.312
 4138SOL     OW14252   3.565  14.632   4.937
 4138SOL    HW114253   3.579  14.549   4.982
 4138SOL    HW214254   3.649  14.651   4.894
 4139SOL     OW14255   0.666   8.295  13.035
 4139SOL    HW114256   0.675   8.376  13.085
 4139SOL    HW214257   0.717   8.310  12.956
 4140SOL     OW14258  10.624   7.052  11.340
 4140SOL    HW114259  10.564   7.111  11.385
 4140SOL    HW214260  10.574   6.971  11.328
 4141SOL     OW14261   8.077  14.229   2.562
 4141SOL    HW114262   7.992  14.223   2.606
 4141SOL    HW214263   8.108  14.318   2.582
 4142SOL     OW14264  14.519   2.876   6.518
 4142SOL    HW114265  14.527   2.866   6.423
 4142SOL    HW214266  14.609   2.868   6.551
 4143SOL     OW14267   4.527  11.337   3.319
 4143SOL    HW114268   4.582  11.260   3.305
 4143SOL    HW214269   4.501  11.365   3.231
 4144SOL     OW14270   1.217   5.347   7.416
 4144SOL    HW114271   1.295   5.348   7.361
 4144SOL    HW214272   1.149   5.309   7.361
 4145SOL     OW14273   3.298   4.737   5.443
 4145SOL    HW114274   3.328   4.788   5.518
 4145SOL    HW214275   3.213   4.776   5.420
 4146SOL     OW14276   0.799  14.877   9.862
 4146SOL    HW114277   0.773  14.794   9.902
 4146SOL    HW214278   0.764   0.065   9.922
 4147SOL     OW14279   7.918  14.603  14.248
 4147SOL    HW114280   7.994  14.624  14.194
 4147SOL    HW214281   7.895  14.513  14.225
 4148SOL     OW14282   0.440   7.569   5.184
 4148SOL    HW114283   0.511   7.634   5.192
 4148SOL    HW214284   0.419   7.569   5.090
 4149SOL     OW14285   1.839  14.368  12.895
 4149SOL    HW114286   1.818  14.372  12.988
 4149SOL    HW214287   1.823  14.457  12.862
 4150SOL     OW14288   4.359  12.731   4.833
 4150SOL    HW114289   4.282  12.787   4.842
 4150SOL    HW214290   4.325  12.642   4.844
 4151SOL     OW14291  11.806  12.833   6.136
 4151SOL    HW114292  11.755  12.755   6.157
 4151SOL    HW214293  11.782  12.853   6.045
 4152SOL     OW14294  10.221   3.337  12.832
 4152SOL    HW114295  10.237   3.248  12.864
 4152SOL    HW214296  10.142   3.329  12.778
 4153SOL     OW14297   3.247   9.846   9.428
 4153SOL    HW114298   3.294   9.767   9.455
 4153SOL    HW214299   3.290   9.917   9.476
 4154SOL     OW14300   6.783   3.125   5.997
 4154SOL    HW114301   6.806   3.050   5.942
 4154SOL    HW214302   6.741   3.187   5.936
 4155SOL     OW14303   9.624   5.692  10.822
 4155SOL    HW114304   9.630   5.603  10.788
 4155SOL    HW214305   9.614   5.682  10.916
 4156SOL     OW14306   1.510   0.802   0.048
 4156SOL    HW114307   1.565   0.876   0.076
 4156SOL    HW214308   1.433   0.844   0.010
 4157SOL     OW14309   2.659   7.297   8.698
 4157SOL    HW114310   2.646   7.333   8.786
 4157SOL    HW214311   2.677   7.373   8.643
 4158SOL     OW14312   1.936   3.289   1.560
 4158SOL    HW114313   2.008   3.232   1.536
 4158SOL    HW214314   1.860   3.254   1.513
 4159SOL     OW14315  13.083  11.230  14.003
 4159SOL    HW114316  13.151  11.261  13.944
 4159SOL    HW214317  13.080  11.296  14.073
 4160SOL     OW14318   3.512   6.623   9.526
 4160SOL    HW114319   3.506   6.664   9.612
 4160SOL    HW214320   3.566   6.545   9.540
 4161SOL     OW14321   7.397   1.896  11.484
 4161SOL    HW114322   7.484   1.919  11.519
 4161SOL    HW214323   7.359   1.840  11.552
 4162SOL     OW14324   7.692   6.383   2.517
 4162SOL    HW114325   7.604   6.414   2.497
 4162SOL    HW214326   7.733   6.456   2.563
 4163SOL     OW14327  13.777   2.136  10.987
 4163SOL    HW114328  13.684   2.158  10.974
 4163SOL    HW214329  13.821   2.174  10.911
 4164SOL     OW14330   3.383  13.715   4.272
 4164SOL    HW114331   3.430  13.721   4.356
 4164SOL    HW214332   3.320  13.787   4.275
 4165SOL     OW14333   6.352   1.365   7.575
 4165SOL    HW114334   6.415   1.430   7.544
 4165SOL    HW214335   6.386   1.338   7.661
 4166SOL     OW14336  12.661   4.208  11.741
 4166SOL    HW114337  12.749   4.238  11.719
 4166SOL    HW214338  12.627   4.273  11.802
 4167SOL     OW14339   2.093  13.578  13.664
 4167SOL    HW114340   2.053  13.492  13.646
 4167SOL    HW214341   2.034  13.640  13.620
 4168SOL     OW14342   9.247  11.191   3.158
 4168SOL    HW114343   9.209  11.105   3.136
 4168SOL    HW214344   9.176  11.253   3.142
 4169SOL     OW14345   7.860   0.493   7.810
 4169SOL    HW114346   7.918   0.444   7.869
 4169SOL    HW214347   7.864   0.446   7.727
 4170SOL     OW14348  10.326  11.439   5.418
 4170SOL    HW114349  10.309  11.392   5.336
 4170SOL    HW214350  10.261  11.405   5.479
 4171SOL     OW14351   5.385   2.007   3.234
 4171SOL    HW114352   5.301   2.014   3.189
 4171SOL    HW214353   5.397   1.913   3.248
 4172SOL     OW14354   6.356  14.439   7.739
 4172SOL    HW114355   6.291  14.484   7.794
 4172SOL    HW214356   6.389  14.507   7.681
 4173SOL     OW14357  10.849   6.894   9.080
 4173SOL    HW114358  10.910   6.824   9.102
 4173SOL    HW214359  10.817   6.872   8.992
 4174SOL     OW14360   5.766   6.060   9.949
 4174SOL    HW114361   5.786   6.151   9.969
 4174SOL    HW214362   5.797   6.011  10.024
 4175SOL     OW14363  10.288   6.137   6.397
 4175SOL    HW114364  10.314   6.194   6.325
 4175SOL    HW214365  10.238   6.195   6.456
 4176SOL     OW14366  14.077  10.610  11.565
 4176SOL    HW114367  14.126  10.624  11.484
 4176SOL    HW214368  14.135  10.643  11.634
 4177SOL     OW14369   0.537  10.632   9.103
 4177SOL    HW114370   0.581  10.610   9.186
 4177SOL    HW214371   0.493  10.715   9.121
 4178SOL     OW14372  12.385   0.522  10.775
 4178SOL    HW114373  12.405   0.577  10.699
 4178SOL    HW214374  12.422   0.570  10.850
 4179SOL     OW14375  10.351   5.785   1.250
 4179SOL    HW114376  10.257   5.800   1.245
 4179SOL    HW214377  10.360   5.705   1.301
 4180SOL     OW14378   9.096  11.096   2.819
 4180SOL    HW114379   9.086  11.105   2.913
 4180SOL    HW214380   9.190  11.110   2.803
 4181SOL     OW14381   7.872   9.482   2.706
 4181SOL    HW114382   7.834   9.400   2.736
 4181SOL    HW214383   7.798   9.531   2.670
 4182SOL     OW14384   0.137   6.766  11.450
 4182SOL    HW114385   0.136   6.832  11.519
 4182SOL    HW214386   0.090   6.692  11.487
 4183SOL     OW14387   3.191   4.286  13.909
 4183SOL    HW114388   3.236   4.250  13.832
 4183SOL    HW214389   3.207   4.380  13.904
 4184SOL     OW14390  14.867   5.422   8.548
 4184SOL    HW114391  14.779   5.385   8.536
 4184SOL    HW214392   0.024   5.426   8.460
 4185SOL     OW14393   7.513   9.789   9.300
 4185SOL    HW114394   7.546   9.737   9.373
 4185SOL    HW214395   7.422   9.760   9.289
 4186SOL     OW14396   7.569  12.947   4.280
 4186SOL    HW114397   7.565  12.998   4.361
 4186SOL    HW214398   7.556  12.856   4.307
 4187SOL     OW14399   1.706  11.879  14.473
 4187SOL    HW114400   1.738  11.855  14.560
 4187SOL    HW214401   1.784  11.911  14.427
 4188SOL     OW14402  10.202  11.711   6.755
 4188SOL    HW114403  10.226  11.630   6.710
 4188SOL    HW214404  10.284  11.740   6.796
 4189SOL     OW14405   2.094   7.432   6.255
 4189SOL    HW114406   2.094   7.461   6.164
 4189SOL    HW214407   2.053   7.503   6.303
 4190SOL     OW14408   4.125   5.582  12.022
 4190SOL    HW114409   4.109   5.558  11.931
 4190SOL    HW214410   4.054   5.540  12.071
 4191SOL     OW14411  14.145   1.950  12.799
 4191SOL    HW114412  14.198   2.027  12.776
 4191SOL    HW214413  14.155   1.942  12.894
 4192SOL     OW14414  12.543   9.081   2.934
 4192SOL    HW114415  12.572   8.991   2.922
 4192SOL    HW214416  12.523   9.113   2.846
 4193SOL     OW14417   7.866  13.498   3.772
 4193SOL    HW114418   7.790  13.510   3.829
 4193SOL    HW214419   7.844  13.423   3.717
 4194SOL     OW14420   3.438   5.966   2.014
 4194SOL    HW114421   3.513   6.025   2.013
 4194SOL    HW214422   3.470   5.886   2.053
 4195SOL     OW14423  11.187  14.612  12.202
 4195SOL    HW114424  11.152  14.698  12.180
 4195SOL    HW214425  11.242  14.589  12.126
 4196SOL     OW14426   5.090   3.906  13.877
 4196SOL    HW114427   5.128   3.948  13.799
 4196SOL    HW214428   5.027   3.969  13.910
 4197SOL     OW14429   7.027  12.487   9.038
 4197SOL    HW114430   7.037  12.581   9.021
 4197SOL    HW214431   7.085  12.445   8.976
 4198SOL     OW14432   5.256   7.395   3.642
 4198SOL    HW114433   5.266   7.351   3.726
 4198SOL    HW214434   5.286   7.485   3.658
 4199SOL     OW14435  14.075  10.801  13.935
 4199SOL    HW114436  14.031  10.744  13.999
 4199SOL    HW214437  14.066  10.889  13.971
 4200SOL     OW14438  11.930   1.142   2.211
 4200SOL    HW114439  12.017   1.104   2.219
 4200SOL    HW214440  11.901   1.155   2.301
 4201SOL     OW14441   0.120   8.615  11.904
 4201SOL    HW114442   0.204   8.659  11.916
 4201SOL    HW214443   0.073   8.670  11.841
 4202SOL     OW14444   0.310  10.812   3.665
 4202SOL    HW114445   0.242  10.873   3.693
 4202SOL    HW214446   0.263  10.733   3.639
 4203SOL     OW14447   6.912   7.252   4.997
 4203SOL    HW114448   6.864   7.270   4.916
 4203SOL    HW214449   7.004   7.252   4.971
 4204SOL     OW14450   1.145   5.187   1.196
 4204SOL    HW114451   1.206   5.151   1.260
 4204SOL    HW214452   1.138   5.119   1.129
 4205SOL     OW14453  13.239   3.609   2.059
 4205SOL    HW114454  13.213   3.517   2.061
 4205SOL    HW214455  13.305   3.614   1.990
 4206SOL     OW14456  11.666   1.338   0.647
 4206SOL    HW114457  11.698   1.423   0.618
 4206SOL    HW214458  11.587   1.322   0.595
 4207SOL     OW14459   8.042  14.782  13.793
 4207SOL    HW114460   7.964  14.822  13.754
 4207SOL    HW214461   8.039  14.691  13.764
 4208SOL     OW14462   7.296   1.115   4.626
 4208SOL    HW114463   7.304   1.045   4.561
 4208SOL    HW214464   7.202   1.133   4.631
 4209SOL     OW14465   1.117   8.813   0.051
 4209SOL    HW114466   1.161   8.729   0.036
 4209SOL    HW214467   1.032   8.789   0.086
 4210SOL     OW14468   7.323   5.549  10.006
 4210SOL    HW114469   7.392   5.492  10.039
 4210SOL    HW214470   7.243   5.517  10.047
 4211SOL     OW14471   7.308   9.158   3.947
 4211SOL    HW114472   7.345   9.116   3.870
 4211SOL    HW214473   7.299   9.250   3.922
 4212SOL     OW14474   3.646   2.380   0.016
 4212SOL    HW114475   3.710   2.451   0.020
 4212SOL    HW214476   3.581   2.409  14.831
 4213SOL     OW14477   7.900   5.763  11.842
 4213SOL    HW114478   7.913   5.834  11.779
 4213SOL    HW214479   7.987   5.747  11.878
 4214SOL     OW14480   0.131  11.383   2.025
 4214SOL    HW114481   0.131  11.290   2.050
 4214SOL    HW214482   0.038  11.407   2.025
 4215SOL     OW14483   7.521  13.626   6.834
 4215SOL    HW114484   7.447  13.649   6.779
 4215SOL    HW214485   7.492  13.648   6.923
 4216SOL     OW14486   1.854  13.238   1.692
 4216SOL    HW114487   1.774  13.213   1.646
 4216SOL    HW214488   1.830  13.235   1.785
 4217SOL     OW14489   9.262   9.313   1.669
 4217SOL    HW114490   9.191   9.251   1.683
 4217SOL    HW214491   9.253   9.376   1.740
 4218SOL     OW14492   2.525   3.371   1.036
 4218SOL    HW114493   2.497   3.280   1.035
 4218SOL    HW214494   2.482   3.409   1.113
 4219SOL     OW14495  11.861  10.657   9.285
 4219SOL    HW114496  11.880  10.751   9.280
 4219SOL    HW214497  11.768  10.653   9.308
 4220SOL     OW14498   5.451   2.774  13.825
 4220SOL    HW114499   5.413   2.789  13.739
 4220SOL    HW214500   5.520   2.841  13.833
 4221SOL     OW14501  14.858   1.495   5.121
 4221SOL    HW114502   0.051   1.549   5.151
 4221SOL    HW214503   0.013   1.452   5.042
 4222SOL     OW14504  12.179   9.025   6.676
 4222SOL    HW114505  12.207   8.997   6.762
 4222SOL    HW214506  12.187   9.121   6.677
 4223SOL     OW14507   9.604   2.557   9.922
 4223SOL    HW114508   9.517   2.572   9.958
 4223SOL    HW214509   9.621   2.635   9.869
 4224SOL     OW14510  13.535   9.172   9.926
 4224SOL    HW114511  13.466   9.161   9.860
 4224SOL    HW214512  13.503   9.125  10.003
 4225SOL     OW14513   1.256   7.624   5.129
 4225SOL    HW114514   1.316   7.699   5.128
 4225SOL    HW214515   1.303   7.558   5.181
 4226SOL     OW14516   4.493  11.228  13.792
 4226SOL    HW114517   4.536  11.307  13.760
 4226SOL    HW214518   4.486  11.241  13.886
 4227SOL     OW14519  14.467   6.253  14.052
 4227SOL    HW114520  14.553   6.218  14.028
 4227SOL    HW214521  14.486   6.332  14.102
 4228SOL     OW14522   2.354   0.959   5.118
 4228SOL    HW114523   2.261   0.981   5.118
 4228SOL    HW214524   2.397   1.039   5.090
 4229SOL     OW14525   7.124  12.606   4.698
 4229SOL    HW114526   7.171  12.526   4.675
 4229SOL    HW214527   7.036  12.577   4.721
 4230SOL     OW14528  13.925   3.767  11.425
 4230SOL    HW114529  14.000   3.814  11.388
 4230SOL    HW214530  13.958   3.729  11.506
 4231SOL     OW14531   9.805   8.825   4.519
 4231SOL    HW114532   9.795   8.904   4.465
 4231SOL    HW214533   9.767   8.848   4.603
 4232SOL     OW14534  12.298  14.403   0.811
 4232SOL    HW114535  12.262  14.315   0.818
 4232SOL    HW214536  12.271  14.447   0.891
 4233SOL     OW14537  11.015   5.212   2.031
 4233SOL    HW114538  10.923   5.235   2.030
 4233SOL    HW214539  11.059   5.285   1.986
 4234SOL     OW14540   3.067  14.036   1.032
 4234SOL    HW114541   3.039  13.969   1.094
 4234SOL    HW214542   3.034  14.118   1.069
 4235SOL     OW14543   8.650  12.475   2.572
 4235SOL    HW114544   8.656  12.384   2.599
 4235SOL    HW214545   8.596  12.517   2.639
 4236SOL     OW14546  12.916   7.931   6.943
 4236SOL    HW114547  12.890   7.923   7.035
 4236SOL    HW214548  12.897   8.022   6.921
 4237SOL     OW14549  12.679   2.752  13.269
 4237SOL    HW114550  12.708   2.688  13.204
 4237SOL    HW214551  12.759   2.786  13.308
 4238SOL     OW14552  10.574   7.545   5.625
 4238SOL    HW114553  10.606   7.519   5.539
 4238SOL    HW214554  10.505   7.610   5.607
 4239SOL     OW14555  11.343  12.609   4.645
 4239SOL    HW114556  11.368  12.696   4.614
 4239SOL    HW214557  11.302  12.568   4.569
 4240SOL     OW14558   1.822   4.805   5.381
 4240SOL    HW114559   1.797   4.825   5.290
 4240SOL    HW214560   1.911   4.771   5.374
 4241SOL     OW14561   2.708  11.031   8.474
 4241SOL    HW114562   2.679  11.099   8.413
 4241SOL    HW214563   2.742  10.962   8.417
 4242SOL     OW14564   9.701  14.445   2.127
 4242SOL    HW114565   9.772  14.486   2.177
 4242SOL    HW214566   9.733  14.446   2.037
 4243SOL     OW14567  14.399  12.746  13.058
 4243SOL    HW114568  14.473  12.763  13.000
 4243SOL    HW214569  14.322  12.773  13.008
 4244SOL     OW14570   7.269  12.714  14.021
 4244SOL    HW114571   7.352  12.761  14.014
 4244SOL    HW214572   7.249  12.685  13.931
 4245SOL     OW14573   3.760   6.264   6.186
 4245SOL    HW114574   3.739   6.194   6.248
 4245SOL    HW214575   3.734   6.229   6.101
 4246SOL     OW14576   8.376   7.680   2.338
 4246SOL    HW114577   8.344   7.732   2.412
 4246SOL    HW214578   8.366   7.738   2.262
 4247SOL     OW14579   8.093  13.218   1.846
 4247SOL    HW114580   8.181  13.189   1.872
 4247SOL    HW214581   8.045  13.137   1.829
 4248SOL     OW14582   0.330   0.250   4.904
 4248SOL    HW114583   0.301   0.204   4.983
 4248SOL    HW214584   0.379   0.184   4.855
 4249SOL     OW14585   7.677  10.419   3.276
 4249SOL    HW114586   7.740  10.358   3.237
 4249SOL    HW214587   7.623  10.448   3.203
 4250SOL     OW14588   7.572   3.778   1.376
 4250SOL    HW114589   7.567   3.699   1.430
 4250SOL    HW214590   7.566   3.746   1.286
 4251SOL     OW14591   5.436   2.010   8.488
 4251SOL    HW114592   5.429   2.105   8.501
 4251SOL    HW214593   5.345   1.981   8.477
 4252SOL     OW14594   6.606  11.592   3.977
 4252SOL    HW114595   6.631  11.506   3.942
 4252SOL    HW214596   6.564  11.572   4.060
 4253SOL     OW14597   9.657   0.034  11.516
 4253SOL    HW114598   9.613   0.071  11.593
 4253SOL    HW214599   9.651  14.819  11.528
 4254SOL     OW14600   9.313   3.135   7.421
 4254SOL    HW114601   9.281   3.045   7.423
 4254SOL    HW214602   9.234   3.189   7.415
 4255SOL     OW14603   4.643   1.039  13.703
 4255SOL    HW114604   4.611   1.005  13.787
 4255SOL    HW214605   4.646   0.962  13.647
 4256SOL     OW14606   2.391   6.892   6.760
 4256SOL    HW114607   2.472   6.905   6.712
 4256SOL    HW214608   2.346   6.821   6.714
 4257SOL     OW14609  14.855   4.669  11.007
 4257SOL    HW114610  14.877   4.664  11.100
 4257SOL    HW214611  14.864   4.579  10.976
 4258SOL     OW14612  14.026   6.399   5.374
 4258SOL    HW114613  14.091   6.358   5.432
 4258SOL    HW214614  14.030   6.348   5.293
 4259SOL     OW14615   6.312   1.694   1.085
 4259SOL    HW114616   6.235   1.752   1.081
 4259SOL    HW214617   6.383   1.746   1.047
 4260SOL     OW14618   2.964   5.068   1.898
 4260SOL    HW114619   2.965   5.147   1.843
 4260SOL    HW214620   2.937   5.100   1.984
 4261SOL     OW14621   3.469   7.132  12.351
 4261SOL    HW114622   3.519   7.050  12.346
 4261SOL    HW214623   3.520   7.187  12.410
 4262SOL     OW14624  11.066   1.523   1.180
 4262SOL    HW114625  11.016   1.549   1.103
 4262SOL    HW214626  11.146   1.575   1.175
 4263SOL     OW14627   1.027   1.353   5.531
 4263SOL    HW114628   0.969   1.277   5.540
 4263SOL    HW214629   1.107   1.319   5.492
 4264SOL     OW14630   7.992   2.281  12.857
 4264SOL    HW114631   7.945   2.364  12.870
 4264SOL    HW214632   7.963   2.226  12.930
 4265SOL     OW14633   3.454   9.251   2.482
 4265SOL    HW114634   3.523   9.302   2.523
 4265SOL    HW214635   3.373   9.298   2.503
 4266SOL     OW14636   2.151   3.661   4.262
 4266SOL    HW114637   2.077   3.670   4.322
 4266SOL    HW214638   2.179   3.570   4.274
 4267SOL     OW14639  12.096   8.395   9.761
 4267SOL    HW114640  12.188   8.368   9.770
 4267SOL    HW214641  12.048   8.336   9.819
 4268SOL     OW14642   9.319  11.256  13.986
 4268SOL    HW114643   9.371  11.204  13.924
 4268SOL    HW214644   9.353  11.231  14.072
 4269SOL     OW14645   9.545   3.513  10.876
 4269SOL    HW114646   9.574   3.429  10.911
 4269SOL    HW214647   9.480   3.544  10.939
 4270SOL     OW14648   5.024   5.612  12.221
 4270SOL    HW114649   5.091   5.658  12.171
 4270SOL    HW214650   4.949   5.673  12.223
 4271SOL     OW14651  14.053  12.910   3.262
 4271SOL    HW114652  14.094  12.861   3.333
 4271SOL    HW214653  14.121  12.917   3.195
 4272SOL     OW14654   7.053   9.171   7.783
 4272SOL    HW114655   6.985   9.103   7.783
 4272SOL    HW214656   7.134   9.123   7.770
 4273SOL     OW14657   3.633  10.427   4.337
 4273SOL    HW114658   3.561  10.488   4.325
 4273SOL    HW214659   3.704  10.481   4.373
 4274SOL     OW14660  10.184   7.054  10.552
 4274SOL    HW114661  10.259   7.067  10.494
 4274SOL    HW214662  10.131   7.132  10.541
 4275SOL     OW14663   9.294   2.745  13.475
 4275SOL    HW114664   9.244   2.672  13.438
 4275SOL    HW214665   9.232   2.789  13.533
 4276SOL     OW14666   0.149  14.743   5.133
 4276SOL    HW114667   0.155  14.673   5.198
 4276SOL    HW214668   0.087  14.709   5.068
 4277SOL     OW14669  13.635   5.270   6.600
 4277SOL    HW114670  13.717   5.273   6.648
 4277SOL    HW214671  13.586   5.197   6.639
 4278SOL     OW14672  14.258   3.035   6.874
 4278SOL    HW114673  14.346   3.003   6.895
 4278SOL    HW214674  14.271   3.128   6.854
 4279SOL     OW14675   8.582  13.237  10.053
 4279SOL    HW114676   8.607  13.147  10.073
 4279SOL    HW214677   8.621  13.256   9.968
 4280SOL     OW14678   9.696   5.459   1.055
 4280SOL    HW114679   9.617   5.445   1.003
 4280SOL    HW214680   9.666   5.504   1.133
 4281SOL     OW14681  11.557  13.681   8.126
 4281SOL    HW114682  11.511  13.646   8.203
 4281SOL    HW214683  11.581  13.604   8.075
 4282SOL     OW14684   5.626   9.428  11.639
 4282SOL    HW114685   5.535   9.399  11.646
 4282SOL    HW214686   5.625   9.493  11.569
 4283SOL     OW14687  13.065   2.887   1.722
 4283SOL    HW114688  13.043   2.872   1.814
 4283SOL    HW214689  12.992   2.848   1.674
 4284SOL     OW14690   0.125  12.510   1.198
 4284SOL    HW114691   0.109  12.445   1.129
 4284SOL    HW214692   0.221  12.513   1.206
 4285SOL     OW14693   2.355   8.988  12.110
 4285SOL    HW114694   2.356   9.063  12.169
 4285SOL    HW214695   2.313   8.918  12.159
 4286SOL     OW14696   4.058   4.778   1.565
 4286SOL    HW114697   4.148   4.745   1.569
 4286SOL    HW214698   4.016   4.723   1.500
 4287SOL     OW14699   1.185  10.798   2.130
 4287SOL    HW114700   1.110  10.790   2.189
 4287SOL    HW214701   1.261  10.795   2.187
 4288SOL     OW14702   8.208   5.299   0.809
 4288SOL    HW114703   8.140   5.233   0.823
 4288SOL    HW214704   8.167   5.381   0.836
 4289SOL     OW14705   1.502   4.011   5.632
 4289SOL    HW114706   1.515   4.023   5.538
 4289SOL    HW214707   1.547   4.085   5.672
 4290SOL     OW14708   1.167   6.645   2.562
 4290SOL    HW114709   1.131   6.719   2.513
 4290SOL    HW214710   1.112   6.571   2.536
 4291SOL     OW14711  11.976   5.182   0.662
 4291SOL    HW114712  11.969   5.252   0.727
 4291SOL    HW214713  11.903   5.123   0.682
 4292SOL     OW14714  14.408   6.802  10.106
 4292SOL    HW114715  14.446   6.860  10.039
 4292SOL    HW214716  14.324   6.843  10.128
 4293SOL     OW14717   7.757   2.979  12.897
 4293SOL    HW114718   7.700   2.916  12.941
 4293SOL    HW214719   7.700   3.022  12.833
 4294SOL     OW14720  12.984  12.207   7.657
 4294SOL    HW114721  12.943  12.239   7.737
 4294SOL    HW214722  13.062  12.261   7.647
 4295SOL     OW14723   2.077   3.921   0.815
 4295SOL    HW114724   2.051   4.011   0.793
 4295SOL    HW214725   2.062   3.914   0.909
 4296SOL     OW14726  11.886   6.244   6.584
 4296SOL    HW114727  11.971   6.283   6.562
 4296SOL    HW214728  11.829   6.319   6.599
 4297SOL     OW14729   9.872   6.311   8.105
 4297SOL    HW114730   9.966   6.315   8.123
 4297SOL    HW214731   9.834   6.275   8.185
 4298SOL     OW14732   6.736   5.701  13.054
 4298SOL    HW114733   6.693   5.617  13.038
 4298SOL    HW214734   6.757   5.700  13.148
 4299SOL     OW14735   3.088   7.431   5.381
 4299SOL    HW114736   3.169   7.480   5.371
 4299SOL    HW214737   3.055   7.457   5.467
 4300SOL     OW14738  14.046   9.314   3.777
 4300SOL    HW114739  14.125   9.364   3.760
 4300SOL    HW214740  14.058   9.232   3.728
 4301SOL     OW14741  11.112  13.273   1.571
 4301SOL    HW114742  11.202  13.268   1.604
 4301SOL    HW214743  11.098  13.190   1.527
 4302SOL     OW14744  14.681   9.241   7.083
 4302SOL    HW114745  14.627   9.176   7.128
 4302SOL    HW214746  14.769   9.203   7.083
 4303SOL     OW14747   7.333   2.688  10.519
 4303SOL    HW114748   7.359   2.780  10.510
 4303SOL    HW214749   7.304   2.663  10.431
 4304SOL     OW14750   1.189  12.288   3.031
 4304SOL    HW114751   1.130  12.293   2.956
 4304SOL    HW214752   1.153  12.350   3.095
 4305SOL     OW14753   3.024   7.647   0.646
 4305SOL    HW114754   2.945   7.695   0.620
 4305SOL    HW214755   2.993   7.584   0.711
 4306SOL     OW14756   7.176  11.618   2.195
 4306SOL    HW114757   7.168  11.712   2.211
 4306SOL    HW214758   7.141  11.577   2.273
 4307SOL     OW14759   4.676  11.103  11.582
 4307SOL    HW114760   4.718  11.045  11.518
 4307SOL    HW214761   4.601  11.139  11.536
 4308SOL     OW14762  10.399  13.614   7.538
 4308SOL    HW114763  10.449  13.678   7.588
 4308SOL    HW214764  10.339  13.574   7.602
 4309SOL     OW14765   3.931   9.404   6.169
 4309SOL    HW114766   4.000   9.453   6.124
 4309SOL    HW214767   3.850   9.447   6.144
 4310SOL     OW14768  10.792  11.671   8.741
 4310SOL    HW114769  10.818  11.760   8.767
 4310SOL    HW214770  10.843  11.654   8.662
 4311SOL     OW14771   2.779   6.920   0.834
 4311SOL    HW114772   2.739   6.843   0.794
 4311SOL    HW214773   2.735   6.994   0.793
 4312SOL     OW14774   1.629   0.246   8.217
 4312SOL    HW114775   1.581   0.315   8.262
 4312SOL    HW214776   1.570   0.171   8.218
 4313SOL     OW14777   6.761   1.882   8.784
 4313SOL    HW114778   6.688   1.907   8.841
 4313SOL    HW214779   6.765   1.951   8.719
 4314SOL     OW14780   6.655   6.722   0.618
 4314SOL    HW114781   6.704   6.652   0.662
 4314SOL    HW214782   6.618   6.773   0.690
 4315SOL     OW14783   9.542  14.437   4.338
 4315SOL    HW114784   9.535  14.525   4.301
 4315SOL    HW214785   9.547  14.380   4.261
 4316SOL     OW14786  11.804  13.051  13.369
 4316SOL    HW114787  11.838  12.977  13.319
 4316SOL    HW214788  11.864  13.123  13.348
 4317SOL     OW14789   9.661   8.965   5.725
 4317SOL    HW114790   9.611   8.908   5.666
 4317SOL    HW214791   9.670   8.914   5.806
 4318SOL     OW14792   2.041  13.335   3.152
 4318SOL    HW114793   1.968  13.372   3.202
 4318SOL    HW214794   2.091  13.410   3.123
 4319SOL     OW14795   7.060  13.040  13.911
 4319SOL    HW114796   7.120  13.003  13.847
 4319SOL    HW214797   6.978  12.992  13.897
 4320SOL     OW14798  11.192   0.015   8.486
 4320SOL    HW114799  11.248  14.825   8.450
 4320SOL    HW214800  11.164   0.065   8.409
 4321SOL     OW14801  13.721   7.905  13.728
 4321SOL    HW114802  13.710   7.988  13.774
 4321SOL    HW214803  13.651   7.849  13.762
 4322SOL     OW14804   4.218   1.572  12.494
 4322SOL    HW114805   4.173   1.492  12.469
 4322SOL    HW214806   4.158   1.616  12.554
 4323SOL     OW14807   9.366   9.032   7.100
 4323SOL    HW114808   9.348   9.039   7.194
 4323SOL    HW214809   9.365   9.123   7.069
 4324SOL     OW14810  10.583   0.818  11.638
 4324SOL    HW114811  10.671   0.786  11.621
 4324SOL    HW214812  10.548   0.760  11.706
 4325SOL     OW14813   2.184   5.548   2.225
 4325SOL    HW114814   2.233   5.565   2.145
 4325SOL    HW214815   2.225   5.470   2.262
 4326SOL     OW14816   0.765   7.402  14.649
 4326SOL    HW114817   0.751   7.412  14.743
 4326SOL    HW214818   0.802   7.485  14.621
 4327SOL     OW14819   0.712   6.006  13.701
 4327SOL    HW114820   0.804   6.019  13.722
 4327SOL    HW214821   0.666   6.038  13.779
 4328SOL     OW14822  11.992  10.053   2.978
 4328SOL    HW114823  11.937  10.078   3.053
 4328SOL    HW214824  12.076  10.031   3.018
 4329SOL     OW14825  13.004   4.550   7.002
 4329SOL    HW114826  12.955   4.620   6.957
 4329SOL    HW214827  13.085   4.592   7.030
 4330SOL     OW14828   1.510   2.341   8.409
 4330SOL    HW114829   1.503   2.339   8.313
 4330SOL    HW214830   1.574   2.273   8.430
 4331SOL     OW14831  12.203   7.230   0.180
 4331SOL    HW114832  12.244   7.259   0.261
 4331SOL    HW214833  12.197   7.135   0.187
 4332SOL     OW14834   8.178   4.031   7.917
 4332SOL    HW114835   8.136   4.071   7.841
 4332SOL    HW214836   8.122   4.053   7.991
 4333SOL     OW14837   8.845   6.976  12.246
 4333SOL    HW114838   8.830   6.917  12.172
 4333SOL    HW214839   8.854   7.063  12.205
 4334SOL     OW14840  10.217   8.192   6.484
 4334SOL    HW114841  10.245   8.268   6.434
 4334SOL    HW214842  10.238   8.117   6.427
 4335SOL     OW14843   3.537   4.875   5.296
 4335SOL    HW114844   3.456   4.824   5.297
 4335SOL    HW214845   3.594   4.832   5.360
 4336SOL     OW14846   1.108   6.856  14.835
 4336SOL    HW114847   1.047   6.834   0.026
 4336SOL    HW214848   1.053   6.869  14.758
 4337SOL     OW14849  10.649  14.116   0.006
 4337SOL    HW114850  10.628  14.093  14.795
 4337SOL    HW214851  10.613  14.045   0.058
 4338SOL     OW14852   3.325   8.209   6.688
 4338SOL    HW114853   3.360   8.218   6.599
 4338SOL    HW214854   3.400   8.181   6.740
 4339SOL     OW14855   2.122   3.714   1.761
 4339SOL    HW114856   2.176   3.755   1.694
 4339SOL    HW214857   2.146   3.758   1.842
 4340SOL     OW14858   4.054   3.446   1.455
 4340SOL    HW114859   4.107   3.371   1.429
 4340SOL    HW214860   4.033   3.490   1.372
 4341SOL     OW14861  13.971  14.756   1.346
 4341SOL    HW114862  13.953  14.683   1.405
 4341SOL    HW214863  13.884  14.786   1.319
 4342SOL     OW14864  13.706   5.114  11.133
 4342SOL    HW114865  13.697   5.147  11.222
 4342SOL    HW214866  13.631   5.056  11.121
 4343SOL     OW14867   5.350  12.909  11.697
 4343SOL    HW114868   5.399  12.990  11.684
 4343SOL    HW214869   5.292  12.927  11.771
 4344SOL     OW14870   6.208   0.206   4.082
 4344SOL    HW114871   6.220   0.293   4.121
 4344SOL    HW214872   6.184   0.223   3.991
 4345SOL     OW14873   2.894   7.018   4.850
 4345SOL    HW114874   2.944   7.032   4.930
 4345SOL    HW214875   2.961   7.001   4.783
 4346SOL     OW14876   1.889   7.836  10.063
 4346SOL    HW114877   1.903   7.765  10.125
 4346SOL    HW214878   1.798   7.827  10.036
 4347SOL     OW14879  12.970  10.985   0.531
 4347SOL    HW114880  13.062  10.958   0.521
 4347SOL    HW214881  12.974  11.080   0.538
 4348SOL     OW14882   3.573   3.472  11.447
 4348SOL    HW114883   3.492   3.433  11.414
 4348SOL    HW214884   3.613   3.403  11.500
 4349SOL     OW14885   3.301   8.904   1.568
 4349SOL    HW114886   3.397   8.903   1.573
 4349SOL    HW214887   3.281   8.866   1.482
 4350SOL     OW14888   2.227   6.082   0.230
 4350SOL    HW114889   2.197   6.004   0.183
 4350SOL    HW214890   2.252   6.144   0.161
 4351SOL     OW14891   7.359  14.386  14.172
 4351SOL    HW114892   7.395  14.468  14.140
 4351SOL    HW214893   7.371  14.324  14.099
 4352SOL     OW14894  10.885   2.308   9.496
 4352SOL    HW114895  10.893   2.401   9.514
 4352SOL    HW214896  10.849   2.303   9.408
 4353SOL     OW14897   2.949  10.445  11.033
 4353SOL    HW114898   2.876  10.406  10.985
 4353SOL    HW214899   3.000  10.370  11.063
 4354SOL     OW14900  10.233  10.604   4.834
 4354SOL    HW114901  10.167  10.538   4.814
 4354SOL    HW214902  10.316  10.566   4.804
 4355SOL     OW14903  12.857   3.116   4.678
 4355SOL    HW114904  12.791   3.113   4.748
 4355SOL    HW214905  12.852   3.030   4.636
 4356SOL     OW14906   0.086  12.594   0.405
 4356SOL    HW114907   0.086  12.612   0.499
 4356SOL    HW214908   0.167  12.635   0.373
 4357SOL     OW14909   1.468  10.110   9.708
 4357SOL    HW114910   1.452  10.168   9.781
 4357SOL    HW214911   1.547  10.061   9.732
 4358SOL     OW14912   6.485   2.042   1.932
 4358SOL    HW114913   6.544   1.970   1.951
 4358SOL    HW214914   6.526   2.089   1.860
 4359SOL     OW14915   5.509   2.658   7.364
 4359SOL    HW114916   5.527   2.569   7.335
 4359SOL    HW214917   5.429   2.651   7.415
 4360SOL     OW14918   3.240   5.258   9.950
 4360SOL    HW114919   3.280   5.260  10.037
 4360SOL    HW214920   3.253   5.347   9.916
 4361SOL     OW14921   3.633   8.203  13.431
 4361SOL    HW114922   3.650   8.212  13.525
 4361SOL    HW214923   3.720   8.204  13.391
 4362SOL     OW14924   1.435   4.632  13.275
 4362SOL    HW114925   1.487   4.708  13.299
 4362SOL    HW214926   1.365   4.629  13.340
 4363SOL     OW14927   2.648   2.709   5.261
 4363SOL    HW114928   2.587   2.774   5.227
 4363SOL    HW214929   2.641   2.635   5.201
 4364SOL     OW14930   6.528   5.669   0.233
 4364SOL    HW114931   6.519   5.575   0.216
 4364SOL    HW214932   6.601   5.696   0.177
 4365SOL     OW14933   5.330   1.348   0.142
 4365SOL    HW114934   5.340   1.286   0.214
 4365SOL    HW214935   5.346   1.297   0.063
 4366SOL     OW14936   2.786  10.054  13.715
 4366SOL    HW114937   2.762  10.144  13.735
 4366SOL    HW214938   2.843  10.027  13.787
 4367SOL     OW14939  11.125   9.436   9.142
 4367SOL    HW114940  11.193   9.392   9.194
 4367SOL    HW214941  11.071   9.365   9.108
 4368SOL     OW14942   3.448   4.495   8.015
 4368SOL    HW114943   3.385   4.424   8.000
 4368SOL    HW214944   3.452   4.504   8.110
 4369SOL     OW14945  11.481   4.018  13.808
 4369SOL    HW114946  11.495   4.062  13.724
 4369SOL    HW214947  11.481   4.089  13.872
 4370SOL     OW14948   9.965   7.313  11.661
 4370SOL    HW114949   9.936   7.332  11.750
 4370SOL    HW214950   9.917   7.234  11.637
 4371SOL     OW14951   3.079   3.103   9.597
 4371SOL    HW114952   3.080   3.008   9.608
 4371SOL    HW214953   3.146   3.135   9.658
 4372SOL     OW14954   1.722  13.721   1.500
 4372SOL    HW114955   1.702  13.699   1.409
 4372SOL    HW214956   1.655  13.785   1.524
 4373SOL     OW14957  11.774  14.201   4.105
 4373SOL    HW114958  11.757  14.294   4.117
 4373SOL    HW214959  11.833  14.177   4.177
 4374SOL     OW14960   2.038   9.133   9.048
 4374SOL    HW114961   1.977   9.085   9.103
 4374SOL    HW214962   2.074   9.200   9.106
 4375SOL     OW14963   9.972   4.169  12.922
 4375SOL    HW114964  10.057   4.135  12.893
 4375SOL    HW214965   9.927   4.093  12.959
 4376SOL     OW14966  11.802   3.839  10.659
 4376SOL    HW114967  11.714   3.870  10.683
 4376SOL    HW214968  11.820   3.768  10.722
 4377SOL     OW14969   1.264  13.951  14.249
 4377SOL    HW114970   1.217  13.889  14.305
 4377SOL    HW214971   1.195  13.993  14.197
 4378SOL     OW14972  12.845  11.107  13.475
 4378SOL    HW114973  12.806  11.154  13.548
 4378SOL    HW214974  12.923  11.159  13.452
 4379SOL     OW14975   5.206   8.417   9.339
 4379SOL    HW114976   5.120   8.408   9.297
 4379SOL    HW214977   5.263   8.360   9.288
 4380SOL     OW14978  13.545   1.660  12.023
 4380SOL    HW114979  13.553   1.748  12.061
 4380SOL    HW214980  13.517   1.675  11.933
 4381SOL     OW14981   4.837   2.240   0.119
 4381SOL    HW114982   4.820   2.202   0.205
 4381SOL    HW214983   4.864   2.165   0.065
 4382SOL     OW14984   6.337  10.650   0.077
 4382SOL    HW114985   6.419  10.680   0.116
 4382SOL    HW214986   6.276  10.723   0.088
 4383SOL     OW14987   6.885  10.913   7.415
 4383SOL    HW114988   6.949  10.929   7.346
 4383SOL    HW214989   6.850  11.000   7.436
 4384SOL     OW14990   4.477   0.223   9.865
 4384SOL    HW114991   4.438   0.309   9.879
 4384SOL    HW214992   4.540   0.214   9.937
 4385SOL     OW14993  14.795  10.513   9.820
 4385SOL    HW114994   0.003  10.484   9.845
 4385SOL    HW214995  14.784  10.483   9.730
 4386SOL     OW14996  13.965   6.591   5.938
 4386SOL    HW114997  13.877   6.572   5.970
 4386SOL    HW214998  13.959   6.582   5.843
 4387SOL     OW14999  12.733   1.088   0.726
 4387SOL    HW115000  12.685   1.046   0.797
 4387SOL    HW215001  12.736   1.180   0.751
 4388SOL     OW15002   5.307   8.032   9.512
 4388SOL    HW115003   5.219   8.055   9.542
 4388SOL    HW215004   5.352   8.116   9.501
 4389SOL     OW15005   7.637  11.946   7.198
 4389SOL    HW115006   7.720  11.970   7.240
 4389SOL    HW215007   7.657  11.868   7.147
 4390SOL     OW15008  12.735  14.108  12.187
 4390SOL    HW115009  12.699  14.097  12.099
 4390SOL    HW215010  12.761  14.020  12.213
 4391SOL     OW15011  14.583  11.080   5.023
 4391SOL    HW115012  14.533  11.060   5.102
 4391SOL    HW215013  14.673  11.092   5.053
 4392SOL     OW15014   0.524   8.821   2.653
 4392SOL    HW115015   0.459   8.848   2.588
 4392SOL    HW215016   0.603   8.869   2.630
 4393SOL     OW15017   7.464  13.230   6.702
 4393SOL    HW115018   7.404  13.241   6.776
 4393SOL    HW215019   7.537  13.179   6.738
 4394SOL     OW15020   6.437  10.648   2.560
 4394SOL    HW115021   6.410  10.565   2.600
 4394SOL    HW215022   6.459  10.704   2.634
 4395SOL     OW15023   4.595  13.013  11.683
 4395SOL    HW115024   4.602  13.008  11.588
 4395SOL    HW215025   4.654  12.945  11.716
 4396SOL     OW15026   0.860   8.945   5.323
 4396SOL    HW115027   0.844   8.869   5.379
 4396SOL    HW215028   0.944   8.926   5.281
 4397SOL     OW15029   3.716   2.703  14.448
 4397SOL    HW115030   3.711   2.609  14.464
 4397SOL    HW215031   3.764   2.738  14.523
 4398SOL     OW15032  14.836   5.119   1.018
 4398SOL    HW115033  14.828   5.163   1.103
 4398SOL    HW215034   0.004   5.182   0.963
 4399SOL     OW15035   5.015   0.594  10.707
 4399SOL    HW115036   4.990   0.506  10.735
 4399SOL    HW215037   5.085   0.619  10.767
 4400SOL     OW15038   3.967   1.869   7.069
 4400SOL    HW115039   4.001   1.803   7.008
 4400SOL    HW215040   3.901   1.916   7.019
 4401SOL     OW15041  11.328   3.740   3.010
 4401SOL    HW115042  11.277   3.788   2.945
 4401SOL    HW215043  11.383   3.682   2.958
 4402SOL     OW15044   2.861  10.778   2.184
 4402SOL    HW115045   2.951  10.759   2.156
 4402SOL    HW215046   2.857  10.874   2.183
 4403SOL     OW15047   9.647   6.125   8.800
 4403SOL    HW115048   9.582   6.055   8.786
 4403SOL    HW215049   9.730   6.085   8.775
 4404SOL     OW15050   0.397  11.654   6.984
 4404SOL    HW115051   0.476  11.599   6.991
 4404SOL    HW215052   0.373  11.673   7.075
 4405SOL     OW15053   2.878   6.697   5.930
 4405SOL    HW115054   2.793   6.722   5.895
 4405SOL    HW215055   2.936   6.694   5.854
 4406SOL     OW15056   8.037  11.563   9.986
 4406SOL    HW115057   7.945  11.561   9.957
 4406SOL    HW215058   8.041  11.638  10.046
 4407SOL     OW15059   5.338   0.890  10.226
 4407SOL    HW115060   5.415   0.926  10.270
 4407SOL    HW215061   5.301   0.828  10.289
 4408SOL     OW15062   5.244   1.841  13.762
 4408SOL    HW115063   5.275   1.751  13.749
 4408SOL    HW215064   5.239   1.877  13.674
 4409SOL     OW15065   3.600   3.219   1.039
 4409SOL    HW115066   3.644   3.142   1.002
 4409SOL    HW215067   3.661   3.291   1.024
 4410SOL     OW15068   7.606   4.685  13.295
 4410SOL    HW115069   7.516   4.675  13.264
 4410SOL    HW215070   7.616   4.616  13.361
 4411SOL     OW15071  10.942  10.324  10.951
 4411SOL    HW115072  10.970  10.415  10.962
 4411SOL    HW215073  10.999  10.289  10.882
 4412SOL     OW15074   7.224  10.318   3.359
 4412SOL    HW115075   7.245  10.387   3.296
 4412SOL    HW215076   7.244  10.237   3.313
 4413SOL     OW15077   8.722   9.727  12.394
 4413SOL    HW115078   8.632   9.716  12.362
 4413SOL    HW215079   8.767   9.647  12.366
 4414SOL     OW15080  12.868  13.148  11.775
 4414SOL    HW115081  12.919  13.067  11.781
 4414SOL    HW215082  12.927  13.211  11.734
 4415SOL     OW15083   6.054   9.510   2.249
 4415SOL    HW115084   6.036   9.603   2.261
 4415SOL    HW215085   5.971   9.467   2.266
 4416SOL     OW15086   9.023   3.982  13.047
 4416SOL    HW115087   8.945   3.968  12.994
 4416SOL    HW215088   9.051   4.071  13.026
 4417SOL     OW15089  10.800   4.723   6.146
 4417SOL    HW115090  10.862   4.657   6.178
 4417SOL    HW215091  10.800   4.711   6.051
 4418SOL     OW15092   9.135  12.019  13.685
 4418SOL    HW115093   9.047  12.057  13.683
 4418SOL    HW215094   9.119  11.924  13.688
 4419SOL     OW15095   7.191   7.206  13.868
 4419SOL    HW115096   7.270   7.253  13.841
 4419SOL    HW215097   7.217   7.114  13.869
 4420SOL     OW15098   8.683   4.890   9.993
 4420SOL    HW115099   8.623   4.868   9.921
 4420SOL    HW215100   8.714   4.978   9.972
 4421SOL     OW15101   5.455   8.239   2.570
 4421SOL    HW115102   5.494   8.205   2.490
 4421SOL    HW215103   5.506   8.318   2.589
 4422SOL     OW15104   5.659   5.602   9.032
 4422SOL    HW115105   5.653   5.621   8.938
 4422SOL    HW215106   5.719   5.668   9.066
 4423SOL     OW15107   8.795   9.541  13.824
 4423SOL    HW115108   8.758   9.479  13.761
 4423SOL    HW215109   8.884   9.555  13.795
 4424SOL     OW15110   4.613   3.593   0.442
 4424SOL    HW115111   4.530   3.635   0.467
 4424SOL    HW215112   4.680   3.647   0.482
 4425SOL     OW15113   2.972  14.102   7.382
 4425SOL    HW115114   3.008  14.160   7.450
 4425SOL    HW215115   2.959  14.159   7.307
 4426SOL     OW15116   0.719   8.425  13.289
 4426SOL    HW115117   0.661   8.358  13.323
 4426SOL    HW215118   0.807   8.395  13.312
 4427SOL     OW15119   8.148   8.667   1.116
 4427SOL    HW115120   8.054   8.658   1.106
 4427SOL    HW215121   8.174   8.592   1.169
 4428SOL     OW15122   6.747   2.449   3.218
 4428SOL    HW115123   6.771   2.365   3.256
 4428SOL    HW215124   6.652   2.454   3.230
 4429SOL     OW15125   9.400   4.982   7.419
 4429SOL    HW115126   9.350   4.911   7.378
 4429SOL    HW215127   9.445   5.025   7.347
 4430SOL     OW15128   5.540   5.225  10.007
 4430SOL    HW115129   5.470   5.189   9.953
 4430SOL    HW215130   5.527   5.320  10.002
 4431SOL     OW15131   5.298   9.971  13.274
 4431SOL    HW115132   5.381   9.963  13.228
 4431SOL    HW215133   5.245   9.898  13.241
 4432SOL     OW15134   6.467  10.636   4.861
 4432SOL    HW115135   6.506  10.648   4.774
 4432SOL    HW215136   6.532  10.586   4.909
 4433SOL     OW15137   1.332   3.285   3.121
 4433SOL    HW115138   1.395   3.256   3.186
 4433SOL    HW215139   1.271   3.341   3.170
 4434SOL     OW15140   4.397   3.932  10.582
 4434SOL    HW115141   4.330   3.962  10.643
 4434SOL    HW215142   4.348   3.902  10.505
 4435SOL     OW15143  11.011  12.625  10.853
 4435SOL    HW115144  11.010  12.703  10.798
 4435SOL    HW215145  11.095  12.629  10.901
 4436SOL     OW15146   4.102   9.220   3.361
 4436SOL    HW115147   4.164   9.233   3.433
 4436SOL    HW215148   4.143   9.151   3.307
 4437SOL     OW15149  12.054   4.334   9.187
 4437SOL    HW115150  11.970   4.312   9.228
 4437SOL    HW215151  12.039   4.321   9.093
 4438SOL     OW15152   1.678   3.287  13.382
 4438SOL    HW115153   1.594   3.327  13.359
 4438SOL    HW215154   1.655   3.219  13.445
 4439SOL     OW15155   8.564   4.651   1.320
 4439SOL    HW115156   8.656   4.640   1.340
 4439SOL    HW215157   8.558   4.740   1.284
 4440SOL     OW15158  13.838   7.602   4.959
 4440SOL    HW115159  13.838   7.658   4.881
 4440SOL    HW215160  13.839   7.512   4.924
 4441SOL     OW15161  13.787   0.298  11.677
 4441SOL    HW115162  13.749   0.227  11.729
 4441SOL    HW215163  13.721   0.319  11.612
 4442SOL     OW15164  10.381  12.524  14.825
 4442SOL    HW115165  10.403  12.609  14.863
 4442SOL    HW215166  10.303  12.496  14.873
 4443SOL     OW15167  13.744   2.701   2.422
 4443SOL    HW115168  13.707   2.769   2.479
 4443SOL    HW215169  13.676   2.686   2.356
 4444SOL     OW15170   4.993  13.330  11.696
 4444SOL    HW115171   4.946  13.257  11.738
 4444SOL    HW215172   4.984  13.403  11.758
 4445SOL     OW15173  10.714   1.052  10.284
 4445SOL    HW115174  10.686   0.965  10.313
 4445SOL    HW215175  10.730   1.100  10.366
 4446SOL     OW15176   4.703  12.617   4.187
 4446SOL    HW115177   4.689  12.638   4.095
 4446SOL    HW215178   4.795  12.639   4.203
 4447SOL     OW15179   8.636   3.491   9.145
 4447SOL    HW115180   8.684   3.502   9.227
 4447SOL    HW215181   8.562   3.551   9.152
 4448SOL     OW15182   9.141   1.294  10.887
 4448SOL    HW115183   9.178   1.349  10.955
 4448SOL    HW215184   9.137   1.207  10.925
 4449SOL     OW15185   6.109   6.298  10.254
 4449SOL    HW115186   6.113   6.247  10.173
 4449SOL    HW215187   6.115   6.389  10.225
 4450SOL     OW15188  10.302   5.447   3.944
 4450SOL    HW115189  10.357   5.369   3.944
 4450SOL    HW215190  10.354   5.513   3.897
 4451SOL     OW15191  14.164   3.997   2.994
 4451SOL    HW115192  14.147   3.929   3.060
 4451SOL    HW215193  14.166   4.078   3.043
 4452SOL     OW15194  10.724  12.954  12.028
 4452SOL    HW115195  10.801  12.942  12.084
 4452SOL    HW215196  10.650  12.937  12.086
 4453SOL     OW15197   2.657  10.666   6.080
 4453SOL    HW115198   2.698  10.640   6.163
 4453SOL    HW215199   2.730  10.670   6.018
 4454SOL     OW15200   1.617   4.346   1.312
 4454SOL    HW115201   1.689   4.408   1.313
 4454SOL    HW215202   1.546   4.392   1.267
 4455SOL     OW15203   5.922   8.850  14.827
 4455SOL    HW115204   5.862   8.879  14.758
 4455SOL    HW215205   5.975   8.927  14.847
 4456SOL     OW15206   5.279   3.601  12.033
 4456SOL    HW115207   5.188   3.606  12.004
 4456SOL    HW215208   5.275   3.621  12.127
 4457SOL     OW15209   6.416   3.067  13.674
 4457SOL    HW115210   6.486   3.132  13.676
 4457SOL    HW215211   6.454   2.992  13.627
 4458SOL     OW15212   5.559   4.852  12.458
 4458SOL    HW115213   5.561   4.948  12.452
 4458SOL    HW215214   5.537   4.823  12.369
 4459SOL     OW15215   6.500   5.028  10.021
 4459SOL    HW115216   6.458   4.946   9.995
 4459SOL    HW215217   6.525   5.015  10.112
 4460SOL     OW15218   6.063  14.834  14.603
 4460SOL    HW115219   6.009   0.034  14.604
 4460SOL    HW215220   6.046  14.793  14.688
 4461SOL     OW15221  13.011   6.067   0.485
 4461SOL    HW115222  12.925   6.069   0.526
 4461SOL    HW215223  13.028   5.974   0.468
 4462SOL     OW15224   5.097   9.021   1.929
 4462SOL    HW115225   5.135   8.934   1.946
 4462SOL    HW215226   5.133   9.047   1.844
 4463SOL     OW15227   4.166   0.585  12.136
 4463SOL    HW115228   4.151   0.625  12.221
 4463SOL    HW215229   4.091   0.612  12.083
 4464SOL     OW15230   7.940  10.022   2.384
 4464SOL    HW115231   7.942  10.072   2.467
 4464SOL    HW215232   7.937   9.931   2.411
 4465SOL     OW15233   6.856   7.599   1.640
 4465SOL    HW115234   6.784   7.655   1.610
 4465SOL    HW215235   6.827   7.510   1.621
 4466SOL     OW15236  10.595   4.643   9.955
 4466SOL    HW115237  10.627   4.724   9.994
 4466SOL    HW215238  10.566   4.590  10.029
 4467SOL     OW15239   0.726   1.062  14.368
 4467SOL    HW115240   0.716   0.974  14.331
 4467SOL    HW215241   0.721   1.120  14.292
 4468SOL     OW15242   8.105   2.961  10.866
 4468SOL    HW115243   8.131   2.889  10.808
 4468SOL    HW215244   8.071   2.917  10.944
 4469SOL     OW15245   7.346  13.456   3.253
 4469SOL    HW115246   7.389  13.536   3.223
 4469SOL    HW215247   7.259  13.459   3.213
 4470SOL     OW15248   0.059   2.563   2.021
 4470SOL    HW115249   0.087   2.649   2.053
 4470SOL    HW215250  14.855   2.547   2.066
 4471SOL     OW15251  13.822   5.518   4.781
 4471SOL    HW115252  13.764   5.443   4.792
 4471SOL    HW215253  13.764   5.594   4.788
 4472SOL     OW15254   8.844  12.524   2.178
 4472SOL    HW115255   8.797  12.520   2.095
 4472SOL    HW215256   8.937  12.522   2.153
 4473SOL     OW15257  12.317   8.090  13.033
 4473SOL    HW115258  12.369   8.164  13.066
 4473SOL    HW215259  12.233   8.130  13.008
 4474SOL     OW15260  13.044   7.434  10.999
 4474SOL    HW115261  13.029   7.409  10.908
 4474SOL    HW215262  13.019   7.526  11.003
 4475SOL     OW15263  12.335  13.138  11.396
 4475SOL    HW115264  12.339  13.233  11.398
 4475SOL    HW215265  12.346  13.111  11.487
 4476SOL     OW15266  12.055   6.875   7.833
 4476SOL    HW115267  12.086   6.908   7.749
 4476SOL    HW215268  11.991   6.808   7.810
 4477SOL     OW15269   5.861   8.118   5.134
 4477SOL    HW115270   5.834   8.155   5.051
 4477SOL    HW215271   5.869   8.024   5.117
 4478SOL     OW15272   3.247  10.663   6.846
 4478SOL    HW115273   3.266  10.679   6.938
 4478SOL    HW215274   3.325  10.695   6.800
 4479SOL     OW15275   5.864  14.595  13.374
 4479SOL    HW115276   5.822  14.607  13.289
 4479SOL    HW215277   5.949  14.556  13.354
 4480SOL     OW15278   7.069   2.933   1.946
 4480SOL    HW115279   6.988   2.982   1.960
 4480SOL    HW215280   7.126   2.994   1.898
 4481SOL     OW15281   8.202  10.115   6.259
 4481SOL    HW115282   8.273  10.177   6.244
 4481SOL    HW215283   8.136  10.137   6.193
 4482SOL     OW15284  13.601   6.681   8.734
 4482SOL    HW115285  13.506   6.673   8.744
 4482SOL    HW215286  13.623   6.757   8.788
 4483SOL     OW15287   4.508   4.278   9.938
 4483SOL    HW115288   4.573   4.237   9.881
 4483SOL    HW215289   4.431   4.289   9.882
 4484SOL     OW15290  11.845   7.913  12.477
 4484SOL    HW115291  11.842   7.998  12.434
 4484SOL    HW215292  11.754   7.884  12.481
 4485SOL     OW15293   2.305   4.300   2.033
 4485SOL    HW115294   2.370   4.235   2.006
 4485SOL    HW215295   2.245   4.307   1.959
 4486SOL     OW15296   4.068   1.596   9.815
 4486SOL    HW115297   3.983   1.607   9.772
 4486SOL    HW215298   4.123   1.557   9.747
 4487SOL     OW15299   3.911   5.242  12.319
 4487SOL    HW115300   3.976   5.273  12.256
 4487SOL    HW215301   3.949   5.161  12.354
 4488SOL     OW15302   9.502   4.779   0.131
 4488SOL    HW115303   9.587   4.797   0.171
 4488SOL    HW215304   9.485   4.856   0.076
 4489SOL     OW15305  11.682  10.976  13.406
 4489SOL    HW115306  11.684  11.036  13.481
 4489SOL    HW215307  11.719  10.895  13.439
 4490SOL     OW15308   1.300   3.793   0.408
 4490SOL    HW115309   1.375   3.736   0.394
 4490SOL    HW215310   1.301   3.854   0.334
 4491SOL     OW15311   2.346   2.638   4.197
 4491SOL    HW115312   2.440   2.628   4.191
 4491SOL    HW215313   2.314   2.553   4.226
 4492SOL     OW15314   7.326   5.980  10.790
 4492SOL    HW115315   7.275   5.934  10.856
 4492SOL    HW215316   7.389   6.032  10.840
 4493SOL     OW15317   6.183  10.433   1.947
 4493SOL    HW115318   6.144  10.356   1.988
 4493SOL    HW215319   6.149  10.508   1.996
 4494SOL     OW15320   6.368   8.025   0.709
 4494SOL    HW115321   6.398   8.071   0.787
 4494SOL    HW215322   6.425   8.055   0.639
 4495SOL     OW15323   4.886   6.359   5.677
 4495SOL    HW115324   4.898   6.453   5.687
 4495SOL    HW215325   4.804   6.350   5.628
 4496SOL     OW15326  13.044  13.437   3.966
 4496SOL    HW115327  13.058  13.451   3.872
 4496SOL    HW215328  13.132  13.418   4.000
 4497SOL     OW15329  14.753   5.334   3.847
 4497SOL    HW115330  14.764   5.250   3.804
 4497SOL    HW215331  14.841   5.372   3.849
 4498SOL     OW15332   4.688   4.875  11.284
 4498SOL    HW115333   4.611   4.922  11.251
 4498SOL    HW215334   4.673   4.784  11.258
 4499SOL     OW15335   5.928   6.229   5.137
 4499SOL    HW115336   5.914   6.242   5.043
 4499SOL    HW215337   5.952   6.316   5.169
 4500SOL     OW15338  10.747  12.900  10.003
 4500SOL    HW115339  10.725  12.954   9.927
 4500SOL    HW215340  10.662  12.866  10.033
 4501SOL     OW15341   2.233  12.580  14.547
 4501SOL    HW115342   2.268  12.593  14.459
 4501SOL    HW215343   2.141  12.558  14.533
 4502SOL     OW15344   5.431   5.622  12.835
 4502SOL    HW115345   5.494   5.625  12.763
 4502SOL    HW215346   5.425   5.529  12.857
 4503SOL     OW15347  10.374   4.505   0.011
 4503SOL    HW115348  10.366   4.425  14.839
 4503SOL    HW215349  10.349   4.575  14.830
 4504SOL     OW15350  10.417   8.881  12.212
 4504SOL    HW115351  10.342   8.826  12.237
 4504SOL    HW215352  10.383   8.938  12.144
 4505SOL     OW15353   4.057   3.976  13.579
 4505SOL    HW115354   4.020   3.967  13.491
 4505SOL    HW215355   4.147   3.945  13.571
 4506SOL     OW15356   5.616  14.753   5.920
 4506SOL    HW115357   5.701  14.740   5.962
 4506SOL    HW215358   5.634  14.745   5.827
 4507SOL     OW15359   4.963   3.353  12.923
 4507SOL    HW115360   4.916   3.431  12.895
 4507SOL    HW215361   4.936   3.284  12.862
 4508SOL     OW15362  11.564   5.342   9.540
 4508SOL    HW115363  11.632   5.405   9.564
 4508SOL    HW215364  11.525   5.377   9.460
 4509SOL     OW15365  13.435   6.991  11.126
 4509SOL    HW115366  13.526   7.012  11.147
 4509SOL    HW215367  13.440   6.954  11.037
 4510SOL     OW15368  10.653   4.129   0.728
 4510SOL    HW115369  10.573   4.077   0.718
 4510SOL    HW215370  10.709   4.074   0.782
 4511SOL     OW15371  10.751   4.230   0.500
 4511SOL    HW115372  10.839   4.192   0.497
 4511SOL    HW215373  10.710   4.189   0.576
 4512SOL     OW15374   6.871  12.892  11.082
 4512SOL    HW115375   6.847  12.821  11.142
 4512SOL    HW215376   6.839  12.862  10.996
 4513SOL     OW15377  10.175   9.301   9.196
 4513SOL    HW115378  10.227   9.261   9.126
 4513SOL    HW215379  10.099   9.337   9.150
 4514SOL     OW15380   1.400   8.704   6.752
 4514SOL    HW115381   1.464   8.774   6.736
 4514SOL    HW215382   1.408   8.686   6.846
 4515SOL     OW15383  10.913   5.708   7.541
 4515SOL    HW115384  10.935   5.646   7.611
 4515SOL    HW215385  10.890   5.654   7.467
 4516SOL     OW15386   2.869   3.934  13.637
 4516SOL    HW115387   2.824   4.017  13.624
 4516SOL    HW215388   2.947   3.956  13.688
 4517SOL     OW15389   1.435   8.390   4.782
 4517SOL    HW115390   1.499   8.458   4.803
 4517SOL    HW215391   1.458   8.362   4.694
 4518SOL     OW15392   8.164   0.367   5.594
 4518SOL    HW115393   8.166   0.421   5.514
 4518SOL    HW215394   8.176   0.430   5.665
 4519SOL     OW15395   2.541   6.344  14.197
 4519SOL    HW115396   2.452   6.368  14.221
 4519SOL    HW215397   2.593   6.364  14.276
 4520SOL     OW15398   9.038   4.758   9.135
 4520SOL    HW115399   9.100   4.824   9.165
 4520SOL    HW215400   9.077   4.722   9.055
 4521SOL     OW15401   8.673   5.299  12.176
 4521SOL    HW115402   8.743   5.237  12.158
 4521SOL    HW215403   8.593   5.246  12.172
 4522SOL     OW15404  10.007   0.248  10.778
 4522SOL    HW115405   9.959   0.265  10.859
 4522SOL    HW215406   9.964   0.172  10.740
 4523SOL     OW15407  11.549   9.596   8.564
 4523SOL    HW115408  11.628   9.648   8.551
 4523SOL    HW215409  11.537   9.549   8.482
 4524SOL     OW15410   8.572   6.152  14.784
 4524SOL    HW115411   8.646   6.109  14.742
 4524SOL    HW215412   8.603   6.172  14.873
 4525SOL     OW15413   6.293  14.276   9.408
 4525SOL    HW115414   6.329  14.338   9.472
 4525SOL    HW215415   6.213  14.243   9.449
 4526SOL     OW15416  10.791  12.922   2.471
 4526SOL    HW115417  10.791  12.826   2.467
 4526SOL    HW215418  10.853  12.943   2.541
 4527SOL     OW15419  13.053   8.403   0.414
 4527SOL    HW115420  13.109   8.442   0.481
 4527SOL    HW215421  12.964   8.423   0.441
 4528SOL     OW15422   0.496  11.832   6.020
 4528SOL    HW115423   0.496  11.746   5.977
 4528SOL    HW215424   0.578  11.833   6.070
 4529SOL     OW15425  13.131   6.836   7.067
 4529SOL    HW115426  13.095   6.898   7.131
 4529SOL    HW215427  13.180   6.890   7.006
 4530SOL     OW15428  13.853   2.094   2.140
 4530SOL    HW115429  13.846   2.189   2.153
 4530SOL    HW215430  13.793   2.076   2.068
 4531SOL     OW15431   8.877   5.554   3.112
 4531SOL    HW115432   8.862   5.581   3.021
 4531SOL    HW215433   8.793   5.567   3.156
 4532SOL     OW15434  12.135   2.183   3.619
 4532SOL    HW115435  12.222   2.209   3.589
 4532SOL    HW215436  12.098   2.134   3.545
 4533SOL     OW15437   0.665   6.333   7.916
 4533SOL    HW115438   0.578   6.344   7.955
 4533SOL    HW215439   0.673   6.239   7.902
 4534SOL     OW15440   0.435   0.848  14.849
 4534SOL    HW115441   0.392   0.791  14.784
 4534SOL    HW215442   0.484   0.788   0.026
 4535SOL     OW15443   3.595  14.722  14.595
 4535SOL    HW115444   3.640  14.728  14.511
 4535SOL    HW215445   3.525  14.659  14.580
 4536SOL     OW15446   9.011   8.663  13.789
 4536SOL    HW115447   8.992   8.740  13.735
 4536SOL    HW215448   9.090   8.625  13.750
 4537SOL     OW15449   8.808   4.498   7.872
 4537SOL    HW115450   8.859   4.421   7.846
 4537SOL    HW215451   8.850   4.571   7.825
 4538SOL     OW15452  13.527   9.634   5.261
 4538SOL    HW115453  13.499   9.542   5.260
 4538SOL    HW215454  13.445   9.683   5.272
 4539SOL     OW15455   1.142  10.867   3.625
 4539SOL    HW115456   1.105  10.849   3.711
 4539SOL    HW215457   1.086  10.936   3.589
 4540SOL     OW15458  14.370   9.885   6.267
 4540SOL    HW115459  14.450   9.916   6.225
 4540SOL    HW215460  14.300   9.937   6.227
 4541SOL     OW15461   2.132  13.419   8.589
 4541SOL    HW115462   2.141  13.342   8.533
 4541SOL    HW215463   2.106  13.489   8.530
 4542SOL     OW15464   0.733   5.225   5.218
 4542SOL    HW115465   0.670   5.266   5.277
 4542SOL    HW215466   0.773   5.155   5.270
 4543SOL     OW15467  12.695  12.924   8.053
 4543SOL    HW115468  12.647  12.986   8.108
 4543SOL    HW215469  12.733  12.977   7.984
 4544SOL     OW15470  14.437  12.742   9.172
 4544SOL    HW115471  14.476  12.826   9.149
 4544SOL    HW215472  14.370  12.763   9.237
 4545SOL     OW15473   9.237   6.925   5.838
 4545SOL    HW115474   9.232   6.927   5.933
 4545SOL    HW215475   9.160   6.976   5.810
 4546SOL     OW15476   4.528  12.294   7.664
 4546SOL    HW115477   4.453  12.238   7.643
 4546SOL    HW215478   4.537  12.352   7.588
 4547SOL     OW15479   2.275   8.725   0.346
 4547SOL    HW115480   2.226   8.643   0.339
 4547SOL    HW215481   2.345   8.706   0.409
 4548SOL     OW15482   2.097   8.123   0.365
 4548SOL    HW115483   2.105   8.178   0.287
 4548SOL    HW215484   2.005   8.131   0.390
 4549SOL     OW15485   7.164   3.203  11.849
 4549SOL    HW115486   7.143   3.120  11.891
 4549SOL    HW215487   7.081   3.250  11.846
 4550SOL     OW15488   8.698   7.496   1.154
 4550SOL    HW115489   8.779   7.447   1.144
 4550SOL    HW215490   8.704   7.535   1.241
 4551SOL     OW15491  12.250   6.819   7.368
 4551SOL    HW115492  12.282   6.729   7.367
 4551SOL    HW215493  12.159   6.812   7.338
 4552SOL     OW15494  12.023   8.682   3.967
 4552SOL    HW115495  12.064   8.755   4.013
 4552SOL    HW215496  11.976   8.634   4.035
 4553SOL     OW15497  12.818   0.086  14.566
 4553SOL    HW115498  12.784   0.013  14.514
 4553SOL    HW215499  12.858   0.045  14.642
 4554SOL     OW15500   9.896   1.700   2.767
 4554SOL    HW115501   9.977   1.742   2.739
 4554SOL    HW215502   9.830   1.731   2.705
 4555SOL     OW15503   3.994   1.112   6.739
 4555SOL    HW115504   3.961   1.191   6.782
 4555SOL    HW215505   4.065   1.082   6.796
 4556SOL     OW15506  12.305   5.577  13.883
 4556SOL    HW115507  12.379   5.620  13.840
 4556SOL    HW215508  12.235   5.641  13.881
 4557SOL     OW15509   0.762   0.043   8.945
 4557SOL    HW115510   0.822   0.009   9.011
 4557SOL    HW215511   0.676   0.041   8.987
 4558SOL     OW15512  14.483   7.298  10.726
 4558SOL    HW115513  14.423   7.302  10.800
 4558SOL    HW215514  14.569   7.281  10.766
 4559SOL     OW15515   0.572   3.250   5.888
 4559SOL    HW115516   0.550   3.186   5.956
 4559SOL    HW215517   0.509   3.321   5.902
 4560SOL     OW15518  13.514   9.915  10.944
 4560SOL    HW115519  13.443   9.948  10.998
 4560SOL    HW215520  13.535   9.987  10.885
 4561SOL     OW15521   7.951   5.203  14.653
 4561SOL    HW115522   7.861   5.210  14.620
 4561SOL    HW215523   7.947   5.136  14.721
 4562SOL     OW15524   4.776   0.848   6.184
 4562SOL    HW115525   4.748   0.759   6.208
 4562SOL    HW215526   4.796   0.890   6.267
 4563SOL     OW15527   5.916   2.102   2.441
 4563SOL    HW115528   5.986   2.093   2.505
 4563SOL    HW215529   5.928   2.027   2.383
 4564SOL     OW15530   8.660   6.165  13.742
 4564SOL    HW115531   8.739   6.112  13.726
 4564SOL    HW215532   8.594   6.128  13.684
 4565SOL     OW15533   2.030   4.171   2.632
 4565SOL    HW115534   1.987   4.255   2.619
 4565SOL    HW215535   1.962   4.106   2.613
 4566SOL     OW15536   9.464   7.954   8.657
 4566SOL    HW115537   9.421   7.871   8.637
 4566SOL    HW215538   9.403   8.021   8.626
 4567SOL     OW15539   2.250   7.678  11.802
 4567SOL    HW115540   2.226   7.593  11.839
 4567SOL    HW215541   2.344   7.685  11.817
 4568SOL     OW15542   7.246  12.091   1.713
 4568SOL    HW115543   7.239  12.185   1.727
 4568SOL    HW215544   7.159  12.065   1.683
 4569SOL     OW15545   6.270   3.927   7.909
 4569SOL    HW115546   6.232   4.014   7.907
 4569SOL    HW215547   6.205   3.872   7.953
 4570SOL     OW15548   1.012  11.913  10.852
 4570SOL    HW115549   1.097  11.913  10.808
 4570SOL    HW215550   0.997  11.821  10.875
 4571SOL     OW15551  13.780  14.569   3.894
 4571SOL    HW115552  13.687  14.590   3.897
 4571SOL    HW215553  13.787  14.482   3.934
 4572SOL     OW15554   4.059  11.329  12.376
 4572SOL    HW115555   3.977  11.368  12.346
 4572SOL    HW215556   4.033  11.269  12.446
 4573SOL     OW15557   8.560   6.060   5.101
 4573SOL    HW115558   8.504   6.057   5.179
 4573SOL    HW215559   8.503   6.094   5.032
 4574SOL     OW15560   0.270  10.160   0.641
 4574SOL    HW115561   0.337  10.194   0.581
 4574SOL    HW215562   0.211  10.234   0.655
 4575SOL     OW15563  10.558  13.045  12.396
 4575SOL    HW115564  10.504  13.046  12.317
 4575SOL    HW215565  10.507  12.994  12.459
 4576SOL     OW15566   0.436   9.377  13.550
 4576SOL    HW115567   0.398   9.353  13.635
 4576SOL    HW215568   0.488   9.302  13.524
 4577SOL     OW15569  11.962   1.700   5.582
 4577SOL    HW115570  12.046   1.656   5.595
 4577SOL    HW215571  11.957   1.715   5.487
 4578SOL     OW15572   7.847  11.090   4.671
 4578SOL    HW115573   7.785  11.075   4.599
 4578SOL    HW215574   7.874  11.002   4.697
 4579SOL     OW15575   4.065   8.959   2.575
 4579SOL    HW115576   4.127   8.960   2.648
 4579SOL    HW215577   4.120   8.967   2.497
 4580SOL     OW15578   7.272  14.305  12.825
 4580SOL    HW115579   7.352  14.256  12.807
 4580SOL    HW215580   7.302  14.386  12.867
 4581SOL     OW15581  12.346   8.807  13.990
 4581SOL    HW115582  12.386   8.741  14.046
 4581SOL    HW215583  12.417   8.868  13.970
 4582SOL     OW15584  10.480   3.291  11.343
 4582SOL    HW115585  10.573   3.307  11.322
 4582SOL    HW215586  10.480   3.266  11.435
 4583SOL     OW15587   3.635   2.955   8.425
 4583SOL    HW115588   3.595   2.879   8.468
 4583SOL    HW215589   3.622   2.940   8.332
 4584SOL     OW15590   5.847   1.682  12.837
 4584SOL    HW115591   5.886   1.605  12.878
 4584SOL    HW215592   5.887   1.686  12.750
 4585SOL     OW15593   0.027  11.447  12.630
 4585SOL    HW115594   0.030  11.496  12.712
 4585SOL    HW215595   0.061  11.360  12.652
 4586SOL     OW15596   6.508   4.953  11.246
 4586SOL    HW115597   6.480   4.939  11.156
 4586SOL    HW215598   6.554   5.037  11.244
 4587SOL     OW15599   9.760   7.581   1.549
 4587SOL    HW115600   9.798   7.499   1.519
 4587SOL    HW215601   9.764   7.639   1.472
 4588SOL     OW15602  10.110   5.602   7.504
 4588SOL    HW115603  10.148   5.519   7.476
 4588SOL    HW215604  10.026   5.607   7.457
 4589SOL     OW15605   1.877   0.841   6.083
 4589SOL    HW115606   1.800   0.850   6.139
 4589SOL    HW215607   1.878   0.749   6.058
 4590SOL     OW15608   9.354  11.445   8.036
 4590SOL    HW115609   9.327  11.462   7.946
 4590SOL    HW215610   9.300  11.504   8.089
 4591SOL     OW15611  11.935   1.652   7.924
 4591SOL    HW115612  11.893   1.638   8.009
 4591SOL    HW215613  12.028   1.640   7.942
 4592SOL     OW15614  10.924   8.103   1.994
 4592SOL    HW115615  10.846   8.054   2.019
 4592SOL    HW215616  10.910   8.126   1.902
 4593SOL     OW15617  12.070   8.080   7.157
 4593SOL    HW115618  12.004   8.056   7.222
 4593SOL    HW215619  12.075   8.175   7.163
 4594SOL     OW15620   7.423   3.620   4.675
 4594SOL    HW115621   7.473   3.576   4.607
 4594SOL    HW215622   7.332   3.599   4.655
 4595SOL     OW15623   7.563   7.161   5.649
 4595SOL    HW115624   7.566   7.213   5.568
 4595SOL    HW215625   7.506   7.211   5.707
 4596SOL     OW15626   5.413  13.368   8.937
 4596SOL    HW115627   5.322  13.350   8.958
 4596SOL    HW215628   5.409  13.432   8.866
 4597SOL     OW15629   2.130   0.547   2.464
 4597SOL    HW115630   2.039   0.531   2.439
 4597SOL    HW215631   2.178   0.548   2.381
 4598SOL     OW15632  13.058  10.060  12.827
 4598SOL    HW115633  13.077  10.071  12.734
 4598SOL    HW215634  12.994  10.128  12.847
 4599SOL     OW15635   4.392  14.249  14.585
 4599SOL    HW115636   4.357  14.246  14.496
 4599SOL    HW215637   4.383  14.159  14.616
 4600SOL     OW15638   0.401   4.532  12.652
 4600SOL    HW115639   0.459   4.604  12.674
 4600SOL    HW215640   0.363   4.558  12.568
 4601SOL     OW15641   1.421  13.658   6.412
 4601SOL    HW115642   1.340  13.675   6.459
 4601SOL    HW215643   1.393  13.633   6.324
 4602SOL     OW15644   8.115  12.662   2.430
 4602SOL    HW115645   8.022  12.640   2.437
 4602SOL    HW215646   8.138  12.638   2.340
 4603SOL     OW15647  10.978   0.165   3.045
 4603SOL    HW115648  10.884   0.178   3.054
 4603SOL    HW215649  10.991   0.144   2.953
 4604SOL     OW15650   4.321   2.646   9.792
 4604SOL    HW115651   4.271   2.640   9.710
 4604SOL    HW215652   4.327   2.740   9.809
 4605SOL     OW15653   3.592   8.372   5.125
 4605SOL    HW115654   3.543   8.302   5.170
 4605SOL    HW215655   3.684   8.352   5.143
 4606SOL     OW15656   4.844  14.372   3.767
 4606SOL    HW115657   4.842  14.446   3.707
 4606SOL    HW215658   4.853  14.295   3.711
 4607SOL     OW15659   0.865   5.797   2.192
 4607SOL    HW115660   0.920   5.784   2.115
 4607SOL    HW215661   0.901   5.738   2.258
 4608SOL     OW15662   2.569   9.980   3.555
 4608SOL    HW115663   2.657   9.941   3.561
 4608SOL    HW215664   2.513   9.918   3.602
 4609SOL     OW15665  14.830  11.690   1.996
 4609SOL    HW115666  14.815  11.602   1.962
 4609SOL    HW215667  14.876  11.736   1.926
 4610SOL     OW15668   7.529   1.218  12.127
 4610SOL    HW115669   7.443   1.259  12.121
 4610SOL    HW215670   7.546   1.210  12.221
 4611SOL     OW15671   0.949  13.195  12.586
 4611SOL    HW115672   0.976  13.286  12.576
 4611SOL    HW215673   0.974  13.153  12.504
 4612SOL     OW15674   0.299  14.096  13.653
 4612SOL    HW115675   0.324  14.164  13.715
 4612SOL    HW215676   0.360  14.024  13.670
 4613SOL     OW15677   5.039   1.980   6.345
 4613SOL    HW115678   5.020   1.967   6.252
 4613SOL    HW215679   4.963   1.944   6.391
 4614SOL     OW15680   3.191   6.214   7.167
 4614SOL    HW115681   3.199   6.278   7.237
 4614SOL    HW215682   3.276   6.216   7.123
 4615SOL     OW15683   8.287  12.040   0.071
 4615SOL    HW115684   8.207  12.077   0.035
 4615SOL    HW215685   8.357  12.085   0.024
 4616SOL     OW15686  13.961  11.154   1.769
 4616SOL    HW115687  14.053  11.127   1.760
 4616SOL    HW215688  13.913  11.091   1.714
 4617SOL     OW15689   8.069   7.226  10.779
 4617SOL    HW115690   8.011   7.159  10.742
 4617SOL    HW215691   8.096   7.280  10.704
 4618SOL     OW15692   5.333  11.662   5.775
 4618SOL    HW115693   5.415  11.614   5.790
 4618SOL    HW215694   5.328  11.673   5.681
 4619SOL     OW15695   9.725   7.008  11.820
 4619SOL    HW115696   9.704   7.100  11.833
 4619SOL    HW215697   9.654   6.975  11.765
 4620SOL     OW15698  10.744   8.962   1.530
 4620SOL    HW115699  10.706   8.938   1.615
 4620SOL    HW215700  10.756   9.057   1.536
 4621SOL     OW15701   3.558   8.175   8.166
 4621SOL    HW115702   3.540   8.182   8.073
 4621SOL    HW215703   3.600   8.258   8.189
 4622SOL     OW15704  13.729   8.110   1.919
 4622SOL    HW115705  13.714   8.117   2.013
 4622SOL    HW215706  13.790   8.182   1.899
 4623SOL     OW15707  13.510   8.931  10.774
 4623SOL    HW115708  13.558   8.972  10.702
 4623SOL    HW215709  13.568   8.941  10.850
 4624SOL     OW15710  10.955   6.835   6.882
 4624SOL    HW115711  10.977   6.818   6.791
 4624SOL    HW215712  10.860   6.822   6.886
 4625SOL     OW15713  12.108  14.503   2.208
 4625SOL    HW115714  12.123  14.460   2.292
 4625SOL    HW215715  12.013  14.508   2.201
 4626SOL     OW15716   0.987   6.590   6.016
 4626SOL    HW115717   0.938   6.639   5.950
 4626SOL    HW215718   0.932   6.514   6.034
 4627SOL     OW15719   9.803   0.343   6.721
 4627SOL    HW115720   9.820   0.378   6.634
 4627SOL    HW215721   9.712   0.313   6.717
 4628SOL     OW15722   7.974   8.429   2.989
 4628SOL    HW115723   7.913   8.357   2.978
 4628SOL    HW215724   8.045   8.410   2.928
 4629SOL     OW15725   8.783   7.902   2.958
 4629SOL    HW115726   8.873   7.904   2.990
 4629SOL    HW215727   8.739   7.973   3.006
 4630SOL     OW15728   9.360  10.183  13.444
 4630SOL    HW115729   9.294  10.142  13.500
 4630SOL    HW215730   9.309  10.226  13.376
 4631SOL     OW15731   2.927   2.791  12.868
 4631SOL    HW115732   2.846   2.767  12.822
 4631SOL    HW215733   2.933   2.727  12.939
 4632SOL     OW15734   1.166   7.642   3.090
 4632SOL    HW115735   1.171   7.724   3.041
 4632SOL    HW215736   1.126   7.666   3.173
 4633SOL     OW15737  10.811   1.960  12.794
 4633SOL    HW115738  10.833   1.887  12.852
 4633SOL    HW215739  10.861   2.034  12.828
 4634SOL     OW15740   4.797   5.053   8.783
 4634SOL    HW115741   4.880   5.060   8.736
 4634SOL    HW215742   4.822   5.025   8.871
 4635SOL     OW15743   1.428   2.251   4.148
 4635SOL    HW115744   1.501   2.312   4.150
 4635SOL    HW215745   1.409   2.231   4.240
 4636SOL     OW15746   2.030   6.412   1.947
 4636SOL    HW115747   2.044   6.499   1.985
 4636SOL    HW215748   2.115   6.368   1.957
 4637SOL     OW15749  14.178  14.174   8.474
 4637SOL    HW115750  14.264  14.206   8.502
 4637SOL    HW215751  14.177  14.187   8.379
 4638SOL     OW15752   7.010   6.426   4.449
 4638SOL    HW115753   7.029   6.458   4.537
 4638SOL    HW215754   7.096   6.407   4.411
 4639SOL     OW15755   3.302   8.233  11.424
 4639SOL    HW115756   3.245   8.156  11.428
 4639SOL    HW215757   3.243   8.308  11.433
 4640SOL     OW15758  11.813   5.316  11.002
 4640SOL    HW115759  11.763   5.397  10.988
 4640SOL    HW215760  11.748   5.246  10.995
 4641SOL     OW15761   5.485   9.784  13.831
 4641SOL    HW115762   5.571   9.825  13.842
 4641SOL    HW215763   5.432   9.851  13.789
 4642SOL     OW15764   7.550  10.817   7.694
 4642SOL    HW115765   7.455  10.809   7.691
 4642SOL    HW215766   7.572  10.863   7.613
 4643SOL     OW15767   8.799   3.149   4.833
 4643SOL    HW115768   8.830   3.204   4.761
 4643SOL    HW215769   8.861   3.075   4.835
 4644SOL     OW15770   1.721  12.997   2.711
 4644SOL    HW115771   1.709  13.092   2.703
 4644SOL    HW215772   1.782  12.975   2.641
 4645SOL     OW15773   4.834  13.417   9.521
 4645SOL    HW115774   4.825  13.399   9.427
 4645SOL    HW215775   4.814  13.334   9.563
 4646SOL     OW15776   0.344   8.494   5.535
 4646SOL    HW115777   0.382   8.503   5.623
 4646SOL    HW215778   0.322   8.584   5.510
 4647SOL     OW15779  11.255   2.759  10.316
 4647SOL    HW115780  11.300   2.713  10.387
 4647SOL    HW215781  11.243   2.848  10.348
 4648SOL     OW15782   8.209  13.941  10.902
 4648SOL    HW115783   8.232  13.940  10.995
 4648SOL    HW215784   8.119  13.908  10.899
 4649SOL     OW15785   1.700  14.337   2.342
 4649SOL    HW115786   1.661  14.380   2.266
 4649SOL    HW215787   1.651  14.255   2.350
 4650SOL     OW15788   6.676   7.748   0.616
 4650SOL    HW115789   6.586   7.755   0.647
 4650SOL    HW215790   6.697   7.836   0.584
 4651SOL     OW15791  12.308   5.976  10.905
 4651SOL    HW115792  12.403   5.963  10.898
 4651SOL    HW215793  12.271   5.907  10.851
 4652SOL     OW15794  12.210   9.206   7.194
 4652SOL    HW115795  12.290   9.166   7.228
 4652SOL    HW215796  12.199   9.285   7.247
 4653SOL     OW15797  10.414   3.043  13.048
 4653SOL    HW115798  10.459   2.959  13.042
 4653SOL    HW215799  10.470   3.104  12.999
 4654SOL     OW15800   7.757   3.887   6.930
 4654SOL    HW115801   7.813   3.951   6.975
 4654SOL    HW215802   7.816   3.843   6.869
 4655SOL     OW15803  13.966  10.087   0.836
 4655SOL    HW115804  14.058  10.081   0.865
 4655SOL    HW215805  13.929  10.002   0.856
 4656SOL     OW15806  10.616  14.866  11.188
 4656SOL    HW115807  10.677   0.057  11.209
 4656SOL    HW215808  10.605  14.818  11.270
 4657SOL     OW15809   3.765   4.346  14.465
 4657SOL    HW115810   3.765   4.319  14.373
 4657SOL    HW215811   3.857   4.359  14.487
 4658SOL     OW15812   3.872   7.030   1.567
 4658SOL    HW115813   3.866   7.108   1.511
 4658SOL    HW215814   3.945   7.048   1.626
 4659SOL     OW15815   1.979   1.049  14.651
 4659SOL    HW115816   1.902   1.102  14.633
 4659SOL    HW215817   1.949   0.958  14.639
 4660SOL     OW15818  13.710   3.458   2.137
 4660SOL    HW115819  13.736   3.373   2.172
 4660SOL    HW215820  13.717   3.449   2.042
 4661SOL     OW15821   5.630   2.489   9.982
 4661SOL    HW115822   5.582   2.409   9.958
 4661SOL    HW215823   5.713   2.457  10.016
 4662SOL     OW15824   0.989   9.143   8.215
 4662SOL    HW115825   0.961   9.188   8.295
 4662SOL    HW215826   1.062   9.087   8.243
 4663SOL     OW15827   8.545   8.029   0.360
 4663SOL    HW115828   8.599   7.969   0.308
 4663SOL    HW215829   8.456   8.014   0.330
 4664SOL     OW15830  12.404   2.336   4.556
 4664SOL    HW115831  12.396   2.427   4.526
 4664SOL    HW215832  12.319   2.317   4.597
 4665SOL     OW15833   8.644   7.559  10.750
 4665SOL    HW115834   8.641   7.602  10.665
 4665SOL    HW215835   8.700   7.616  10.804
 4666SOL     OW15836   6.265   3.641  14.452
 4666SOL    HW115837   6.203   3.623  14.523
 4666SOL    HW215838   6.305   3.556  14.433
 4667SOL     OW15839   2.464   8.763   3.479
 4667SOL    HW115840   2.418   8.732   3.401
 4667SOL    HW215841   2.552   8.782   3.448
 4668SOL     OW15842   1.562   6.970  10.849
 4668SOL    HW115843   1.514   6.906  10.796
 4668SOL    HW215844   1.584   6.924  10.929
 4669SOL     OW15845  14.794   4.724   2.705
 4669SOL    HW115846  14.850   4.731   2.628
 4669SOL    HW215847  14.764   4.813   2.722
 4670SOL     OW15848  12.640   6.337   3.146
 4670SOL    HW115849  12.686   6.342   3.062
 4670SOL    HW215850  12.681   6.264   3.192
 4671SOL     OW15851   2.931   9.032   0.066
 4671SOL    HW115852   2.984   8.971   0.016
 4671SOL    HW215853   2.841   9.012   0.041
 4672SOL     OW15854   5.486   5.045  14.638
 4672SOL    HW115855   5.562   5.036  14.580
 4672SOL    HW215856   5.464   4.955  14.663
 4673SOL     OW15857  12.801   0.797   0.601
 4673SOL    HW115858  12.789   0.809   0.696
 4673SOL    HW215859  12.874   0.855   0.579
 4674SOL     OW15860   3.934   3.285  12.828
 4674SOL    HW115861   3.893   3.202  12.853
 4674SOL    HW215862   4.020   3.261  12.796
 4675SOL     OW15863   9.691   7.954   8.302
 4675SOL    HW115864   9.605   7.935   8.264
 4675SOL    HW215865   9.728   7.869   8.323
 4676SOL     OW15866   0.939  10.706  13.813
 4676SOL    HW115867   0.904  10.795  13.806
 4676SOL    HW215868   0.972  10.700  13.902
 4677SOL     OW15869  11.561   5.636   9.186
 4677SOL    HW115870  11.656   5.633   9.172
 4677SOL    HW215871  11.538   5.546   9.211
 4678SOL     OW15872   3.126  11.055   8.529
 4678SOL    HW115873   3.074  11.023   8.456
 4678SOL    HW215874   3.120  11.151   8.523
 4679SOL     OW15875   0.562  10.978  11.637
 4679SOL    HW115876   0.642  10.970  11.690
 4679SOL    HW215877   0.581  11.049  11.576
 4680SOL     OW15878  10.454   1.276  10.533
 4680SOL    HW115879  10.472   1.187  10.565
 4680SOL    HW215880  10.372   1.267  10.484
 4681SOL     OW15881  12.941   3.874   5.868
 4681SOL    HW115882  12.915   3.961   5.899
 4681SOL    HW215883  12.967   3.888   5.777
 4682SOL     OW15884  10.910   1.368   9.808
 4682SOL    HW115885  10.946   1.447   9.767
 4682SOL    HW215886  10.912   1.387   9.902
 4683SOL     OW15887   9.010  11.488   9.512
 4683SOL    HW115888   8.957  11.422   9.467
 4683SOL    HW215889   9.071  11.438   9.565
 4684SOL     OW15890   9.520   6.687   1.812
 4684SOL    HW115891   9.565   6.750   1.756
 4684SOL    HW215892   9.586   6.621   1.832
 4685SOL     OW15893  13.749  13.295   3.229
 4685SOL    HW115894  13.692  13.230   3.187
 4685SOL    HW215895  13.831  13.248   3.245
 4686SOL     OW15896   4.422   7.858  14.019
 4686SOL    HW115897   4.467   7.884  13.938
 4686SOL    HW215898   4.432   7.933  14.078
 4687SOL     OW15899   8.931  13.418   3.402
 4687SOL    HW115900   8.927  13.442   3.310
 4687SOL    HW215901   9.021  13.435   3.428
 4688SOL     OW15902   9.713   4.769   2.074
 4688SOL    HW115903   9.796   4.815   2.064
 4688SOL    HW215904   9.736   4.676   2.071
 4689SOL     OW15905   5.415   9.605   1.768
 4689SOL    HW115906   5.439   9.666   1.698
 4689SOL    HW215907   5.320   9.602   1.766
 4690SOL     OW15908  11.146   3.142   3.407
 4690SOL    HW115909  11.083   3.072   3.430
 4690SOL    HW215910  11.158   3.190   3.488
 4691SOL     OW15911   8.686   7.421   6.049
 4691SOL    HW115912   8.624   7.494   6.044
 4691SOL    HW215913   8.714   7.407   5.959
 4692SOL     OW15914   2.481   4.584   3.202
 4692SOL    HW115915   2.451   4.497   3.178
 4692SOL    HW215916   2.456   4.640   3.128
 4693SOL     OW15917  12.582  11.530  12.299
 4693SOL    HW115918  12.665  11.482  12.297
 4693SOL    HW215919  12.595  11.597  12.366
 4694SOL     OW15920   6.298   7.664  10.109
 4694SOL    HW115921   6.362   7.732  10.090
 4694SOL    HW215922   6.214   7.701  10.082
 4695SOL     OW15923   8.066   8.201   2.691
 4695SOL    HW115924   8.131   8.262   2.726
 4695SOL    HW215925   8.117   8.144   2.632
 4696SOL     OW15926  10.684   3.057   1.443
 4696SOL    HW115927  10.772   3.089   1.423
 4696SOL    HW215928  10.696   2.998   1.517
 4697SOL     OW15929  14.602   6.991   2.961
 4697SOL    HW115930  14.641   6.985   2.874
 4697SOL    HW215931  14.663   7.045   3.011
 4698SOL     OW15932   6.485  11.834   4.511
 4698SOL    HW115933   6.476  11.742   4.538
 4698SOL    HW215934   6.411  11.878   4.552
 4699SOL     OW15935  13.573  10.706   8.149
 4699SOL    HW115936  13.510  10.634   8.144
 4699SOL    HW215937  13.527  10.782   8.113
 4700SOL     OW15938   7.914  13.363  12.122
 4700SOL    HW115939   7.867  13.281  12.136
 4700SOL    HW215940   7.867  13.406  12.051
 4701SOL     OW15941   3.068   6.977  11.932
 4701SOL    HW115942   3.012   6.980  12.009
 4701SOL    HW215943   3.115   6.894  11.940
 4702SOL     OW15944   8.168   2.745   3.280
 4702SOL    HW115945   8.074   2.764   3.279
 4702SOL    HW215946   8.196   2.758   3.189
 4703SOL     OW15947  11.784  13.887   5.683
 4703SOL    HW115948  11.795  13.805   5.634
 4703SOL    HW215949  11.729  13.863   5.758
 4704SOL     OW15950  12.781   4.762   2.793
 4704SOL    HW115951  12.720   4.741   2.721
 4704SOL    HW215952  12.866   4.769   2.750
 4705SOL     OW15953  14.872   7.818   4.332
 4705SOL    HW115954   0.071   7.802   4.280
 4705SOL    HW215955  14.829   7.892   4.289
 4706SOL     OW15956   8.478  13.586   9.011
 4706SOL    HW115957   8.486  13.682   9.010
 4706SOL    HW215958   8.543  13.557   9.074
 4707SOL     OW15959  10.729  14.575   2.802
 4707SOL    HW115960  10.690  14.573   2.889
 4707SOL    HW215961  10.654  14.571   2.742
 4708SOL     OW15962  11.346  10.218  11.927
 4708SOL    HW115963  11.383  10.205  12.015
 4708SOL    HW215964  11.259  10.177  11.931
 4709SOL     OW15965   4.335   8.880  13.278
 4709SOL    HW115966   4.353   8.962  13.231
 4709SOL    HW215967   4.399   8.878  13.349
 4710SOL     OW15968   0.442   4.598   9.533
 4710SOL    HW115969   0.433   4.522   9.476
 4710SOL    HW215970   0.460   4.671   9.474
 4711SOL     OW15971   5.303  12.325   2.600
 4711SOL    HW115972   5.249  12.247   2.588
 4711SOL    HW215973   5.377  12.312   2.542
 4712SOL     OW15974   8.175  14.320  11.325
 4712SOL    HW115975   8.235  14.393  11.313
 4712SOL    HW215976   8.230  14.248  11.358
 4713SOL     OW15977   3.698  14.190   8.915
 4713SOL    HW115978   3.707  14.129   8.842
 4713SOL    HW215979   3.604  14.193   8.933
 4714SOL     OW15980  10.382   5.566  10.905
 4714SOL    HW115981  10.287   5.561  10.907
 4714SOL    HW215982  10.411   5.479  10.935
 4715SOL     OW15983   1.738  14.246  13.831
 4715SOL    HW115984   1.660  14.297  13.853
 4715SOL    HW215985   1.763  14.204  13.913
 4716SOL     OW15986  12.532   7.998   0.337
 4716SOL    HW115987  12.587   7.945   0.280
 4716SOL    HW215988  12.591   8.064   0.373
 4717SOL     OW15989   7.778   2.793   4.303
 4717SOL    HW115990   7.720   2.722   4.330
 4717SOL    HW215991   7.724   2.848   4.246
 4718SOL     OW15992   8.181   6.506  11.242
 4718SOL    HW115993   8.211   6.545  11.160
 4718SOL    HW215994   8.243   6.435  11.259
 4719SOL     OW15995   0.229  14.362   2.226
 4719SOL    HW115996   0.271  14.441   2.260
 4719SOL    HW215997   0.187  14.322   2.303
 4720SOL     OW15998   2.292   2.390   4.304
 4720SOL    HW115999   2.289   2.295   4.302
 4720SOL    HW216000   2.355   2.410   4.374
 4721SOL     OW16001   5.523   7.092  14.342
 4721SOL    HW116002   5.543   7.165  14.284
 4721SOL    HW216003   5.575   7.019  14.307
 4722SOL     OW16004   4.372  10.866  10.608
 4722SOL    HW116005   4.333  10.863  10.521
 4722SOL    HW216006   4.464  10.843  10.594
 4723SOL     OW16007   3.490   6.094  14.164
 4723SOL    HW116008   3.563   6.040  14.135
 4723SOL    HW216009   3.421   6.078  14.100
 4724SOL     OW16010  13.734   6.788   8.302
 4724SOL    HW116011  13.667   6.814   8.238
 4724SOL    HW216012  13.754   6.697   8.279
 4725SOL     OW16013   0.360   6.236  14.464
 4725SOL    HW116014   0.374   6.142  14.477
 4725SOL    HW216015   0.445   6.269  14.434
 4726SOL     OW16016  14.184   4.981  12.624
 4726SOL    HW116017  14.203   4.905  12.678
 4726SOL    HW216018  14.106   4.958  12.575
 4727SOL     OW16019  10.663  12.506   2.024
 4727SOL    HW116020  10.682  12.419   2.058
 4727SOL    HW216021  10.732  12.521   1.959
 4728SOL     OW16022   0.402   3.450   1.034
 4728SOL    HW116023   0.385   3.543   1.050
 4728SOL    HW216024   0.391   3.408   1.119
 4729SOL     OW16025  11.659   6.893   1.242
 4729SOL    HW116026  11.618   6.889   1.155
 4729SOL    HW216027  11.677   6.802   1.264
 4730SOL     OW16028   4.205   6.596   1.730
 4730SOL    HW116029   4.286   6.646   1.720
 4730SOL    HW216030   4.217   6.546   1.810
 4731SOL     OW16031   2.514   5.996   9.383
 4731SOL    HW116032   2.588   6.053   9.363
 4731SOL    HW216033   2.446   6.023   9.322
 4732SOL     OW16034  12.855  12.220   1.263
 4732SOL    HW116035  12.879  12.186   1.177
 4732SOL    HW216036  12.771  12.264   1.249
 4733SOL     OW16037   1.254   0.682   1.913
 4733SOL    HW116038   1.281   0.598   1.876
 4733SOL    HW216039   1.270   0.672   2.007
 4734SOL     OW16040   1.506  12.008   1.483
 4734SOL    HW116041   1.573  12.050   1.536
 4734SOL    HW216042   1.446  11.969   1.547
 4735SOL     OW16043   0.277   0.468   5.456
 4735SOL    HW116044   0.352   0.447   5.512
 4735SOL    HW216045   0.210   0.500   5.517
 4736SOL     OW16046  12.852   8.688   9.605
 4736SOL    HW116047  12.934   8.722   9.569
 4736SOL    HW216048  12.878   8.638   9.682
 4737SOL     OW16049   5.830   1.332   1.173
 4737SOL    HW116050   5.744   1.345   1.214
 4737SOL    HW216051   5.817   1.260   1.111
 4738SOL     OW16052   2.338  14.618   9.558
 4738SOL    HW116053   2.328  14.591   9.466
 4738SOL    HW216054   2.309  14.709   9.560
 4739SOL     OW16055   5.283  14.361   1.787
 4739SOL    HW116056   5.286  14.420   1.712
 4739SOL    HW216057   5.336  14.285   1.760
 4740SOL     OW16058   9.657   6.106  13.664
 4740SOL    HW116059   9.645   6.011  13.655
 4740SOL    HW216060   9.680   6.135  13.576
 4741SOL     OW16061   2.430  14.031   2.298
 4741SOL    HW116062   2.359  13.973   2.269
 4741SOL    HW216063   2.496  13.972   2.333
 4742SOL     OW16064   2.868  11.548   3.343
 4742SOL    HW116065   2.919  11.497   3.405
 4742SOL    HW216066   2.932  11.584   3.282
 4743SOL     OW16067  11.282   5.679  11.808
 4743SOL    HW116068  11.378   5.674  11.809
 4743SOL    HW216069  11.263   5.766  11.773
 4744SOL     OW16070   2.221   0.925   7.462
 4744SOL    HW116071   2.170   1.006   7.465
 4744SOL    HW216072   2.161   0.859   7.429
 4745SOL     OW16073   2.366   1.633   4.002
 4745SOL    HW116074   2.447   1.628   4.053
 4745SOL    HW216075   2.327   1.546   4.012
 4746SOL     OW16076   4.970   2.183  10.852
 4746SOL    HW116077   4.905   2.113  10.848
 4746SOL    HW216078   4.919   2.264  10.851
 4747SOL     OW16079   1.881   5.915  11.417
 4747SOL    HW116080   1.798   5.899  11.372
 4747SOL    HW216081   1.868   5.881  11.505
 4748SOL     OW16082  12.087  10.047   1.237
 4748SOL    HW116083  12.056  10.135   1.257
 4748SOL    HW216084  12.055   9.993   1.309
 4749SOL     OW16085   6.088   1.625   1.663
 4749SOL    HW116086   6.126   1.540   1.687
 4749SOL    HW216087   6.090   1.626   1.568
 4750SOL     OW16088   9.523  13.185   2.301
 4750SOL    HW116089   9.488  13.262   2.347
 4750SOL    HW216090   9.606  13.166   2.345
 4751SOL     OW16091  10.656   9.591   0.563
 4751SOL    HW116092  10.738   9.628   0.529
 4751SOL    HW216093  10.656   9.613   0.656
 4752SOL     OW16094  13.516   2.426   2.035
 4752SOL    HW116095  13.595   2.453   2.082
 4752SOL    HW216096  13.489   2.505   1.987
 4753SOL     OW16097   0.655   2.491   1.921
 4753SOL    HW116098   0.647   2.475   2.015
 4753SOL    HW216099   0.696   2.577   1.915
 4754SOL     OW16100  12.891   7.009   5.405
 4754SOL    HW116101  12.924   6.920   5.406
 4754SOL    HW216102  12.814   7.006   5.348
 4755SOL     OW16103   5.479   7.805  12.895
 4755SOL    HW116104   5.464   7.790  12.802
 4755SOL    HW216105   5.522   7.891  12.898
 4756SOL     OW16106  11.779   3.775  11.030
 4756SOL    HW116107  11.760   3.722  10.952
 4756SOL    HW216108  11.708   3.752  11.091
 4757SOL     OW16109   5.006   4.133   8.171
 4757SOL    HW116110   5.062   4.173   8.105
 4757SOL    HW216111   5.020   4.039   8.160
 4758SOL     OW16112   9.516   7.325   6.108
 4758SOL    HW116113   9.522   7.351   6.200
 4758SOL    HW216114   9.438   7.269   6.104
 4759SOL     OW16115   8.435   6.249  13.144
 4759SOL    HW116116   8.416   6.234  13.052
 4759SOL    HW216117   8.516   6.201  13.160
 4760SOL     OW16118   9.862  11.039   3.036
 4760SOL    HW116119   9.793  11.025   3.101
 4760SOL    HW216120   9.818  11.024   2.952
 4761SOL     OW16121   4.655   0.093  13.674
 4761SOL    HW116122   4.746   0.066  13.661
 4761SOL    HW216123   4.660   0.184  13.704
 4762SOL     OW16124   5.611   4.618  11.375
 4762SOL    HW116125   5.574   4.557  11.311
 4762SOL    HW216126   5.561   4.699  11.362
 4763SOL     OW16127   1.847   0.052   9.684
 4763SOL    HW116128   1.800  14.851   9.705
 4763SOL    HW216129   1.812   0.079   9.599
 4764SOL     OW16130   6.937   6.220  13.239
 4764SOL    HW116131   6.957   6.273  13.316
 4764SOL    HW216132   6.981   6.136  13.255
 4765SOL     OW16133  10.504   9.153  13.197
 4765SOL    HW116134  10.481   9.091  13.128
 4765SOL    HW216135  10.481   9.238  13.160
 4766SOL     OW16136   0.246  13.266   5.588
 4766SOL    HW116137   0.230  13.302   5.501
 4766SOL    HW216138   0.192  13.187   5.592
 4767SOL     OW16139  14.019  14.360   0.439
 4767SOL    HW116140  14.004  14.296   0.370
 4767SOL    HW216141  14.012  14.311   0.521
 4768SOL     OW16142   9.958  11.059   1.528
 4768SOL    HW116143   9.895  11.066   1.456
 4768SOL    HW216144   9.920  10.993   1.587
 4769SOL     OW16145  14.596   8.726  12.456
 4769SOL    HW116146  14.645   8.798  12.496
 4769SOL    HW216147  14.662   8.657  12.445
 4770SOL     OW16148   2.065  10.801  10.159
 4770SOL    HW116149   2.121  10.869  10.198
 4770SOL    HW216150   1.996  10.850  10.114
 4771SOL     OW16151   7.779  12.801  13.925
 4771SOL    HW116152   7.738  12.767  14.005
 4771SOL    HW216153   7.740  12.888  13.913
 4772SOL     OW16154  13.007   8.381   0.153
 4772SOL    HW116155  13.010   8.416   0.242
 4772SOL    HW216156  13.011   8.457   0.096
 4773SOL     OW16157   3.070   6.573  13.638
 4773SOL    HW116158   3.159   6.584  13.604
 4773SOL    HW216159   3.029   6.658  13.624
 4774SOL     OW16160   0.108  12.565   2.327
 4774SOL    HW116161   0.173  12.623   2.366
 4774SOL    HW216162   0.046  12.623   2.284
 4775SOL     OW16163  12.718   4.365   3.678
 4775SOL    HW116164  12.800   4.412   3.692
 4775SOL    HW216165  12.714   4.349   3.584
 4776SOL     OW16166   9.665   9.106  14.031
 4776SOL    HW116167   9.584   9.118  13.980
 4776SOL    HW216168   9.691   9.194  14.055
 4777SOL     OW16169   8.502  11.074   4.793
 4777SOL    HW116170   8.423  11.026   4.770
 4777SOL    HW216171   8.482  11.116   4.876
 4778SOL     OW16172   2.564   0.600  10.438
 4778SOL    HW116173   2.486   0.621  10.386
 4778SOL    HW216174   2.532   0.541  10.506
 4779SOL     OW16175  13.639   3.531   2.909
 4779SOL    HW116176  13.696   3.580   2.969
 4779SOL    HW216177  13.596   3.598   2.856
 4780SOL     OW16178   9.199  10.611  14.283
 4780SOL    HW116179   9.159  10.594  14.197
 4780SOL    HW216180   9.259  10.684  14.267
 4781SOL     OW16181  14.028   4.242   2.844
 4781SOL    HW116182  13.976   4.296   2.784
 4781SOL    HW216183  13.965   4.207   2.907
 4782SOL     OW16184   6.869   9.817   8.930
 4782SOL    HW116185   6.879   9.723   8.938
 4782SOL    HW216186   6.774   9.830   8.917
 4783SOL     OW16187   9.985  12.432  11.201
 4783SOL    HW116188  10.073  12.445  11.237
 4783SOL    HW216189  10.000  12.394  11.115
 4784SOL     OW16190   2.244   7.974   6.647
 4784SOL    HW116191   2.177   7.951   6.583
 4784SOL    HW216192   2.297   7.895   6.655
 4785SOL     OW16193   7.575   2.741   0.651
 4785SOL    HW116194   7.570   2.673   0.719
 4785SOL    HW216195   7.598   2.820   0.700
 4786SOL     OW16196   6.734   3.889  13.060
 4786SOL    HW116197   6.789   3.824  13.104
 4786SOL    HW216198   6.756   3.881  12.967
 4787SOL     OW16199  11.077   4.981   6.671
 4787SOL    HW116200  11.068   4.920   6.745
 4787SOL    HW216201  10.993   5.027   6.668
 4788SOL     OW16202   6.110   3.407   4.280
 4788SOL    HW116203   6.027   3.455   4.282
 4788SOL    HW216204   6.174   3.468   4.316
 4789SOL     OW16205   1.684   4.263  11.036
 4789SOL    HW116206   1.772   4.268  11.073
 4789SOL    HW216207   1.690   4.310  10.953
 4790SOL     OW16208   0.857  13.219  14.853
 4790SOL    HW116209   0.854  13.315  14.848
 4790SOL    HW216210   0.767  13.194  14.872
 4791SOL     OW16211   2.952   0.257  13.250
 4791SOL    HW116212   2.897   0.319  13.202
 4791SOL    HW216213   3.014   0.312  13.298
 4792SOL     OW16214  12.928   5.551   5.562
 4792SOL    HW116215  12.835   5.532   5.555
 4792SOL    HW216216  12.945   5.556   5.656
 4793SOL     OW16217   9.449   4.742   8.419
 4793SOL    HW116218   9.366   4.788   8.409
 4793SOL    HW216219   9.489   4.745   8.332
 4794SOL     OW16220  11.037   9.904  10.708
 4794SOL    HW116221  11.110   9.843  10.715
 4794SOL    HW216222  10.972   9.856  10.656
 4795SOL     OW16223   1.341   6.238  10.769
 4795SOL    HW116224   1.276   6.175  10.801
 4795SOL    HW216225   1.353   6.300  10.841
 4796SOL     OW16226   9.146   0.462   2.985
 4796SOL    HW116227   9.183   0.542   3.022
 4796SOL    HW216228   9.062   0.489   2.947
 4797SOL     OW16229  13.709   3.040  14.820
 4797SOL    HW116230  13.672   3.106  14.761
 4797SOL    HW216231  13.757   2.981  14.763
 4798SOL     OW16232   6.516  13.117   2.518
 4798SOL    HW116233   6.561  13.100   2.601
 4798SOL    HW216234   6.527  13.211   2.504
 4799SOL     OW16235   9.901   3.105   2.973
 4799SOL    HW116236   9.814   3.132   2.945
 4799SOL    HW216237   9.937   3.181   3.018
 4800SOL     OW16238  11.222   2.505   7.612
 4800SOL    HW116239  11.140   2.466   7.642
 4800SOL    HW216240  11.273   2.431   7.579
 4801SOL     OW16241   3.708   1.996  12.022
 4801SOL    HW116242   3.613   1.992  12.024
 4801SOL    HW216243   3.735   1.915  11.980
 4802SOL     OW16244   3.880   1.540  10.943
 4802SOL    HW116245   3.883   1.508  11.033
 4802SOL    HW216246   3.970   1.533  10.911
 4803SOL     OW16247   1.710   5.446  10.651
 4803SOL    HW116248   1.741   5.366  10.694
 4803SOL    HW216249   1.655   5.489  10.716
 4804SOL     OW16250   2.493   4.201  11.830
 4804SOL    HW116251   2.411   4.209  11.783
 4804SOL    HW216252   2.471   4.223  11.921
 4805SOL     OW16253  13.892   0.924   7.912
 4805SOL    HW116254  13.941   0.951   7.834
 4805SOL    HW216255  13.822   0.868   7.877
 4806SOL     OW16256   1.753  10.898   2.754
 4806SOL    HW116257   1.788  10.814   2.724
 4806SOL    HW216258   1.829  10.956   2.755
 4807SOL     OW16259  10.828  10.390   5.960
 4807SOL    HW116260  10.826  10.306   5.915
 4807SOL    HW216261  10.745  10.432   5.937
 4808SOL     OW16262  11.469   6.093   1.011
 4808SOL    HW116263  11.477   6.150   1.088
 4808SOL    HW216264  11.544   6.115   0.957
 4809SOL     OW16265  10.692  10.995  14.286
 4809SOL    HW116266  10.665  10.926  14.347
 4809SOL    HW216267  10.611  11.019  14.241
 4810SOL     OW16268  12.085   7.725  14.498
 4810SOL    HW116269  12.004   7.770  14.476
 4810SOL    HW216270  12.107   7.675  14.419
 4811SOL     OW16271   1.457   9.893  11.311
 4811SOL    HW116272   1.484   9.805  11.338
 4811SOL    HW216273   1.494   9.903  11.224
 4812SOL     OW16274  13.521   0.806   9.353
 4812SOL    HW116275  13.470   0.852   9.286
 4812SOL    HW216276  13.544   0.722   9.313
 4813SOL     OW16277   4.059   2.393   4.483
 4813SOL    HW116278   4.044   2.410   4.576
 4813SOL    HW216279   4.069   2.479   4.444
 4814SOL     OW16280   1.537   3.901   4.898
 4814SOL    HW116281   1.459   3.878   4.949
 4814SOL    HW216282   1.610   3.877   4.955
 4815SOL     OW16283   8.614  14.729   4.729
 4815SOL    HW116284   8.533  14.694   4.692
 4815SOL    HW216285   8.640  14.799   4.668
 4816SOL     OW16286   6.976  11.418   6.920
 4816SOL    HW116287   6.941  11.450   7.003
 4816SOL    HW216288   6.911  11.445   6.855
 4817SOL     OW16289   7.320   9.111  10.663
 4817SOL    HW116290   7.397   9.058  10.684
 4817SOL    HW216291   7.335   9.140  10.573
 4818SOL     OW16292  11.346   3.149   9.788
 4818SOL    HW116293  11.351   3.108   9.702
 4818SOL    HW216294  11.255   3.140   9.814
 4819SOL     OW16295   2.694  10.940   9.102
 4819SOL    HW116296   2.682  10.869   9.165
 4819SOL    HW216297   2.735  10.898   9.026
 4820SOL     OW16298   2.691  11.532   0.046
 4820SOL    HW116299   2.728  11.447   0.025
 4820SOL    HW216300   2.596  11.521   0.035
 4821SOL     OW16301  11.221   1.785   1.368
 4821SOL    HW116302  11.132   1.811   1.344
 4821SOL    HW216303  11.247   1.722   1.301
 4822SOL     OW16304   3.023  14.106   3.869
 4822SOL    HW116305   3.036  14.017   3.836
 4822SOL    HW216306   2.983  14.094   3.955
 4823SOL     OW16307  12.316   5.788   0.923
 4823SOL    HW116308  12.294   5.696   0.910
 4823SOL    HW216309  12.403   5.798   0.884
 4824SOL     OW16310  11.097   3.152   0.971
 4824SOL    HW116311  11.030   3.123   0.909
 4824SOL    HW216312  11.051   3.156   1.055
 4825SOL     OW16313  11.694  14.124   2.893
 4825SOL    HW116314  11.690  14.150   2.984
 4825SOL    HW216315  11.700  14.028   2.895
 4826SOL     OW16316   8.708   7.696   9.799
 4826SOL    HW116317   8.743   7.617   9.758
 4826SOL    HW216318   8.687   7.671   9.888
 4827SOL     OW16319   7.729   7.076   2.860
 4827SOL    HW116320   7.818   7.041   2.849
 4827SOL    HW216321   7.742   7.161   2.903
 4828SOL     OW16322   9.037   9.163  12.446
 4828SOL    HW116323   9.100   9.110  12.495
 4828SOL    HW216324   9.048   9.136  12.355
 4829SOL     OW16325   6.300   2.984  10.422
 4829SOL    HW116326   6.205   2.971  10.420
 4829SOL    HW216327   6.312   3.063  10.475
 4830SOL     OW16328   6.182  10.148   5.823
 4830SOL    HW116329   6.109  10.209   5.837
 4830SOL    HW216330   6.259  10.194   5.856
 4831SOL     OW16331  10.839   7.539  13.692
 4831SOL    HW116332  10.813   7.448  13.675
 4831SOL    HW216333  10.758   7.584  13.715
 4832SOL     OW16334   3.330   5.890   3.166
 4832SOL    HW116335   3.307   5.828   3.236
 4832SOL    HW216336   3.311   5.844   3.085
 4833SOL     OW16337   3.392  12.685   3.575
 4833SOL    HW116338   3.452  12.747   3.533
 4833SOL    HW216339   3.306  12.727   3.569
 4834SOL     OW16340  10.568   5.588   1.990
 4834SOL    HW116341  10.543   5.676   2.017
 4834SOL    HW216342  10.637   5.601   1.925
 4835SOL     OW16343   9.116  10.608   1.872
 4835SOL    HW116344   9.102  10.575   1.960
 4835SOL    HW216345   9.083  10.698   1.874
 4836SOL     OW16346   6.972   0.429   9.429
 4836SOL    HW116347   7.010   0.513   9.456
 4836SOL    HW216348   7.047   0.375   9.405
 4837SOL     OW16349   4.637  13.924   9.676
 4837SOL    HW116350   4.635  13.945   9.769
 4837SOL    HW216351   4.546  13.931   9.647
 4838SOL     OW16352   3.878   9.570  13.706
 4838SOL    HW116353   3.809   9.588  13.771
 4838SOL    HW216354   3.836   9.513  13.642
 4839SOL     OW16355  13.924   8.098   3.487
 4839SOL    HW116356  13.905   8.011   3.524
 4839SOL    HW216357  14.001   8.084   3.433
 4840SOL     OW16358   0.728  10.495   5.759
 4840SOL    HW116359   0.728  10.407   5.723
 4840SOL    HW216360   0.818  10.526   5.749
 4841SOL     OW16361   0.446   6.951  10.581
 4841SOL    HW116362   0.526   7.001  10.571
 4841SOL    HW216363   0.389   7.006  10.635
 4842SOL     OW16364  13.487   7.462   0.984
 4842SOL    HW116365  13.545   7.531   1.017
 4842SOL    HW216366  13.497   7.390   1.046
 4843SOL     OW16367   2.921   1.582   5.691
 4843SOL    HW116368   2.982   1.510   5.677
 4843SOL    HW216369   2.930   1.603   5.784
 4844SOL     OW16370   5.018   1.858   0.233
 4844SOL    HW116371   5.085   1.856   0.302
 4844SOL    HW216372   4.968   1.777   0.246
 4845SOL     OW16373  12.010   3.960   9.543
 4845SOL    HW116374  12.031   3.943   9.635
 4845SOL    HW216375  12.092   3.940   9.497
 4846SOL     OW16376   7.553  14.605   8.808
 4846SOL    HW116377   7.462  14.610   8.780
 4846SOL    HW216378   7.548  14.581   8.900
 4847SOL     OW16379  10.609  14.789   8.803
 4847SOL    HW116380  10.591  14.748   8.719
 4847SOL    HW216381  10.643  14.876   8.780
 4848SOL     OW16382  14.792   3.084  10.188
 4848SOL    HW116383  14.739   3.131  10.124
 4848SOL    HW216384  14.741   3.088  10.269
 4849SOL     OW16385   4.641   7.870  12.031
 4849SOL    HW116386   4.693   7.905  12.103
 4849SOL    HW216387   4.561   7.839  12.073
 4850SOL     OW16388  11.833   0.020   8.956
 4850SOL    HW116389  11.871   0.092   9.006
 4850SOL    HW216390  11.864  14.820   9.000
 4851SOL     OW16391  13.502   0.899   9.038
 4851SOL    HW116392  13.496   0.962   9.111
 4851SOL    HW216393  13.564   0.833   9.069
 4852SOL     OW16394  13.728   5.938  13.697
 4852SOL    HW116395  13.633   5.951  13.694
 4852SOL    HW216396  13.741   5.870  13.763
 4853SOL     OW16397   7.445  14.474  10.695
 4853SOL    HW116398   7.386  14.547  10.676
 4853SOL    HW216399   7.402  14.427  10.767
 4854SOL     OW16400   6.741   4.230   6.502
 4854SOL    HW116401   6.677   4.300   6.512
 4854SOL    HW216402   6.800   4.261   6.434
 4855SOL     OW16403   6.452   5.697   8.029
 4855SOL    HW116404   6.479   5.783   7.998
 4855SOL    HW216405   6.525   5.668   8.085
 4856SOL     OW16406   3.278   9.778  10.173
 4856SOL    HW116407   3.357   9.725  10.170
 4856SOL    HW216408   3.222   9.743  10.103
 4857SOL     OW16409   5.229   8.714   4.864
 4857SOL    HW116410   5.320   8.689   4.846
 4857SOL    HW216411   5.187   8.714   4.779
 4858SOL     OW16412  14.826   2.164   4.758
 4858SOL    HW116413  14.738   2.133   4.737
 4858SOL    HW216414  14.831   2.161   4.854
 4859SOL     OW16415   4.172   3.296  13.891
 4859SOL    HW116416   4.120   3.341  13.958
 4859SOL    HW216417   4.188   3.363  13.825
 4860SOL     OW16418   8.660   0.700   4.629
 4860SOL    HW116419   8.722   0.681   4.700
 4860SOL    HW216420   8.622   0.616   4.607
 4861SOL     OW16421  11.668   0.170   3.370
 4861SOL    HW116422  11.684   0.223   3.449
 4861SOL    HW216423  11.673   0.233   3.298
 4862SOL     OW16424   7.197   4.224   3.285
 4862SOL    HW116425   7.107   4.223   3.316
 4862SOL    HW216426   7.198   4.165   3.210
 4863SOL     OW16427   1.682   3.223   9.638
 4863SOL    HW116428   1.650   3.228   9.728
 4863SOL    HW216429   1.631   3.153   9.598
 4864SOL     OW16430   8.348   8.738  14.776
 4864SOL    HW116431   8.316   8.818  14.735
 4864SOL    HW216432   8.317   8.742  14.866
 4865SOL     OW16433  10.573   0.933  12.723
 4865SOL    HW116434  10.613   0.910  12.640
 4865SOL    HW216435  10.497   0.986  12.700
 4866SOL     OW16436   0.943   5.318  13.657
 4866SOL    HW116437   0.947   5.242  13.715
 4866SOL    HW216438   0.858   5.311  13.614
 4867SOL     OW16439  11.944   7.996  13.305
 4867SOL    HW116440  11.931   8.078  13.353
 4867SOL    HW216441  12.027   7.961  13.339
 4868SOL     OW16442  10.240   6.265  12.323
 4868SOL    HW116443  10.296   6.342  12.338
 4868SOL    HW216444  10.169   6.275  12.386
 4869SOL     OW16445   8.465  12.867  10.940
 4869SOL    HW116446   8.377  12.878  10.976
 4869SOL    HW216447   8.496  12.956  10.923
 4870SOL     OW16448   8.036   8.734  14.211
 4870SOL    HW116449   8.082   8.817  14.224
 4870SOL    HW216450   8.094   8.685  14.152
 4871SOL     OW16451   4.233   2.976   6.945
 4871SOL    HW116452   4.196   2.946   7.028
 4871SOL    HW216453   4.317   3.016   6.968
 4872SOL     OW16454  13.661   6.744  14.152
 4872SOL    HW116455  13.753   6.734  14.177
 4872SOL    HW216456  13.662   6.734  14.057
 4873SOL     OW16457   1.459   9.559  11.254
 4873SOL    HW116458   1.490   9.512  11.176
 4873SOL    HW216459   1.364   9.558  11.246
 4874SOL     OW16460  11.137   9.899   4.490
 4874SOL    HW116461  11.150   9.854   4.406
 4874SOL    HW216462  11.189   9.978   4.483
 4875SOL     OW16463   9.423   6.470  11.428
 4875SOL    HW116464   9.439   6.451  11.521
 4875SOL    HW216465   9.385   6.390  11.393
 4876SOL     OW16466  13.886   0.366   9.471
 4876SOL    HW116467  13.949   0.392   9.538
 4876SOL    HW216468  13.888   0.270   9.471
 4877SOL     OW16469   6.630   2.625   5.468
 4877SOL    HW116470   6.704   2.575   5.432
 4877SOL    HW216471   6.644   2.624   5.562
 4878SOL     OW16472   0.514  14.491   8.086
 4878SOL    HW116473   0.587  14.454   8.136
 4878SOL    HW216474   0.455  14.526   8.153
 4879SOL     OW16475   3.040   4.850   6.384
 4879SOL    HW116476   3.125   4.830   6.344
 4879SOL    HW216477   3.047   4.816   6.473
 4880SOL     OW16478  11.238   4.076   0.987
 4880SOL    HW116479  11.237   4.140   1.059
 4880SOL    HW216480  11.320   4.028   0.998
 4881SOL     OW16481   6.805  10.405  12.245
 4881SOL    HW116482   6.721  10.414  12.290
 4881SOL    HW216483   6.814  10.487  12.196
 4882SOL     OW16484   1.214   6.409   6.082
 4882SOL    HW116485   1.168   6.485   6.047
 4882SOL    HW216486   1.272   6.445   6.150
 4883SOL     OW16487   3.474  10.332   4.098
 4883SOL    HW116488   3.530  10.364   4.169
 4883SOL    HW216489   3.404  10.284   4.142
 4884SOL     OW16490   7.127   1.545   4.655
 4884SOL    HW116491   7.181   1.617   4.687
 4884SOL    HW216492   7.037   1.579   4.661
 4885SOL     OW16493   7.950   4.955  11.180
 4885SOL    HW116494   7.884   4.906  11.228
 4885SOL    HW216495   7.908   5.038  11.159
 4886SOL     OW16496   0.957  14.480  13.686
 4886SOL    HW116497   0.963  14.466  13.781
 4886SOL    HW216498   1.048  14.488  13.657
 4887SOL     OW16499  11.173  10.244  11.292
 4887SOL    HW116500  11.150  10.158  11.328
 4887SOL    HW216501  11.268  10.249  11.302
 4888SOL     OW16502  13.208  11.917   4.848
 4888SOL    HW116503  13.179  11.830   4.878
 4888SOL    HW216504  13.200  11.972   4.926
 4889SOL     OW16505   8.988  11.918   2.538
 4889SOL    HW116506   8.904  11.896   2.577
 4889SOL    HW216507   9.004  11.848   2.475
 4890SOL     OW16508   9.038   8.340   2.703
 4890SOL    HW116509   8.986   8.278   2.652
 4890SOL    HW216510   9.085   8.286   2.767
 4891SOL     OW16511   6.697   1.292   7.114
 4891SOL    HW116512   6.745   1.289   7.196
 4891SOL    HW216513   6.614   1.249   7.133
 4892SOL     OW16514   0.786  10.124   2.681
 4892SOL    HW116515   0.858  10.087   2.732
 4892SOL    HW216516   0.822  10.135   2.593
 4893SOL     OW16517   6.115   3.594   2.212
 4893SOL    HW116518   6.120   3.536   2.288
 4893SOL    HW216519   6.181   3.661   2.229
 4894SOL     OW16520   2.370   6.759   9.926
 4894SOL    HW116521   2.381   6.843   9.970
 4894SOL    HW216522   2.446   6.751   9.869
 4895SOL     OW16523   1.739   2.745   7.886
 4895SOL    HW116524   1.653   2.708   7.906
 4895SOL    HW216525   1.795   2.714   7.957
 4896SOL     OW16526   7.704   7.927   0.482
 4896SOL    HW116527   7.781   7.984   0.485
 4896SOL    HW216528   7.691   7.909   0.389
 4897SOL     OW16529   3.326   1.667   3.449
 4897SOL    HW116530   3.245   1.673   3.399
 4897SOL    HW216531   3.388   1.721   3.400
 4898SOL     OW16532  11.470  13.540   4.602
 4898SOL    HW116533  11.508  13.566   4.518
 4898SOL    HW216534  11.475  13.619   4.656
 4899SOL     OW16535   6.013   2.848  12.122
 4899SOL    HW116536   6.071   2.918  12.093
 4899SOL    HW216537   5.956   2.889  12.187
 4900SOL     OW16538   2.738   2.794   0.923
 4900SOL    HW116539   2.673   2.815   0.856
 4900SOL    HW216540   2.720   2.703   0.945
 4901SOL     OW16541  12.112   9.013  14.702
 4901SOL    HW116542  12.131   9.071  14.629
 4901SOL    HW216543  12.026   9.042  14.733
 4902SOL     OW16544  12.453  14.502   2.008
 4902SOL    HW116545  12.510  14.480   1.934
 4902SOL    HW216546  12.501  14.571   2.055
 4903SOL     OW16547   2.440  11.272   6.717
 4903SOL    HW116548   2.500  11.347   6.722
 4903SOL    HW216549   2.409  11.261   6.807
 4904SOL     OW16550   1.553  11.133   3.908
 4904SOL    HW116551   1.640  11.161   3.877
 4904SOL    HW216552   1.499  11.132   3.829
 4905SOL     OW16553   3.862   8.028   7.864
 4905SOL    HW116554   3.768   8.029   7.882
 4905SOL    HW216555   3.882   8.116   7.833
 4906SOL     OW16556   5.809  11.829   9.892
 4906SOL    HW116557   5.845  11.907   9.848
 4906SOL    HW216558   5.885  11.790   9.936
 4907SOL     OW16559   0.183   0.517  12.527
 4907SOL    HW116560   0.143   0.493  12.611
 4907SOL    HW216561   0.270   0.549  12.552
 4908SOL     OW16562   4.280   8.640   2.323
 4908SOL    HW116563   4.282   8.545   2.317
 4908SOL    HW216564   4.187   8.663   2.314
 4909SOL     OW16565  13.795   3.573   0.515
 4909SOL    HW116566  13.883   3.547   0.540
 4909SOL    HW216567  13.743   3.563   0.594
 4910SOL     OW16568  14.531  12.070   1.614
 4910SOL    HW116569  14.542  12.129   1.540
 4910SOL    HW216570  14.605  12.009   1.608
 4911SOL     OW16571  14.656   2.260   8.178
 4911SOL    HW116572  14.654   2.320   8.104
 4911SOL    HW216573  14.576   2.279   8.227
 4912SOL     OW16574  11.320   2.337   9.694
 4912SOL    HW116575  11.231   2.314   9.721
 4912SOL    HW216576  11.343   2.411   9.750
 4913SOL     OW16577   1.483  14.863   9.586
 4913SOL    HW116578   1.510   0.021   9.502
 4913SOL    HW216579   1.416   0.044   9.619
 4914SOL     OW16580   5.788   4.215   0.183
 4914SOL    HW116581   5.881   4.227   0.169
 4914SOL    HW216582   5.762   4.289   0.239
 4915SOL     OW16583   2.081   6.056  10.505
 4915SOL    HW116584   2.022   6.132  10.503
 4915SOL    HW216585   2.085   6.032  10.597
 4916SOL     OW16586   3.616   9.472  14.619
 4916SOL    HW116587   3.630   9.395  14.675
 4916SOL    HW216588   3.650   9.545  14.670
 4917SOL     OW16589  14.090  12.247  11.541
 4917SOL    HW116590  14.100  12.185  11.613
 4917SOL    HW216591  14.089  12.193  11.463
 4918SOL     OW16592   3.963   9.567  14.359
 4918SOL    HW116593   4.014   9.555  14.439
 4918SOL    HW216594   3.925   9.654  14.368
 4919SOL     OW16595   8.903   0.868  11.627
 4919SOL    HW116596   8.895   0.772  11.622
 4919SOL    HW216597   8.894   0.888  11.720
 4920SOL     OW16598   6.975   7.732   3.384
 4920SOL    HW116599   6.986   7.691   3.470
 4920SOL    HW216600   6.982   7.826   3.400
 4921SOL     OW16601   6.073   7.148   0.597
 4921SOL    HW116602   5.983   7.171   0.620
 4921SOL    HW216603   6.115   7.233   0.579
 4922SOL     OW16604   3.358  14.411  12.699
 4922SOL    HW116605   3.274  14.366  12.704
 4922SOL    HW216606   3.389  14.415  12.789
 4923SOL     OW16607  12.426   7.382  14.562
 4923SOL    HW116608  12.376   7.403  14.483
 4923SOL    HW216609  12.361   7.342  14.621
 4924SOL     OW16610   5.169   4.755  14.627
 4924SOL    HW116611   5.120   4.678  14.598
 4924SOL    HW216612   5.105   4.808  14.675
 4925SOL     OW16613   9.267   7.920   0.169
 4925SOL    HW116614   9.245   7.890   0.081
 4925SOL    HW216615   9.203   7.989   0.187
 4926SOL     OW16616  14.535   2.479   0.104
 4926SOL    HW116617  14.555   2.570   0.123
 4926SOL    HW216618  14.495   2.481   0.017
 4927SOL     OW16619   9.821   7.874   1.755
 4927SOL    HW116620   9.796   7.802   1.696
 4927SOL    HW216621   9.914   7.860   1.773
 4928SOL     OW16622  10.274   9.158   7.611
 4928SOL    HW116623  10.185   9.153   7.575
 4928SOL    HW216624  10.261   9.189   7.701
 4929SOL     OW16625   9.445   8.038   9.588
 4929SOL    HW116626   9.415   7.948   9.601
 4929SOL    HW216627   9.535   8.029   9.557
 4930SOL     OW16628   9.478  10.515   6.170
 4930SOL    HW116629   9.472  10.526   6.265
 4930SOL    HW216630   9.442  10.428   6.154
 4931SOL     OW16631   7.311   3.752   6.186
 4931SOL    HW116632   7.386   3.766   6.243
 4931SOL    HW216633   7.294   3.658   6.191
 4932SOL     OW16634  11.907  13.423  11.358
 4932SOL    HW116635  11.874  13.360  11.294
 4932SOL    HW216636  11.988  13.457  11.319
 4933SOL     OW16637  10.029  11.670   2.222
 4933SOL    HW116638  10.019  11.697   2.313
 4933SOL    HW216639  10.122  11.646   2.214
 4934SOL     OW16640   8.878   3.609   2.245
 4934SOL    HW116641   8.909   3.566   2.324
 4934SOL    HW216642   8.788   3.577   2.234
 4935SOL     OW16643   6.026   9.605   1.736
 4935SOL    HW116644   6.109   9.627   1.695
 4935SOL    HW216645   5.964   9.668   1.699
 4936SOL     OW16646  12.492  10.793  13.254
 4936SOL    HW116647  12.516  10.858  13.187
 4936SOL    HW216648  12.503  10.839  13.337
 4937SOL     OW16649  12.449   1.420  12.065
 4937SOL    HW116650  12.371   1.430  12.120
 4937SOL    HW216651  12.492   1.506  12.070
 4938SOL     OW16652  12.883   9.459   0.854
 4938SOL    HW116653  12.958   9.419   0.810
 4938SOL    HW216654  12.911   9.466   0.946
 4939SOL     OW16655  12.027  14.458  11.208
 4939SOL    HW116656  12.119  14.466  11.235
 4939SOL    HW216657  11.998  14.548  11.193
 4940SOL     OW16658   9.071   3.881   9.494
 4940SOL    HW116659   9.055   3.868   9.588
 4940SOL    HW216660   9.052   3.796   9.455
 4941SOL     OW16661   7.477   6.657   1.223
 4941SOL    HW116662   7.446   6.630   1.137
 4941SOL    HW216663   7.482   6.752   1.219
 4942SOL     OW16664  12.415   9.632   4.475
 4942SOL    HW116665  12.403   9.715   4.429
 4942SOL    HW216666  12.494   9.594   4.436
 4943SOL     OW16667   4.830  12.369   1.413
 4943SOL    HW116668   4.780  12.433   1.364
 4943SOL    HW216669   4.786  12.363   1.498
 4944SOL     OW16670   8.491   8.120   3.382
 4944SOL    HW116671   8.558   8.081   3.439
 4944SOL    HW216672   8.537   8.188   3.333
 4945SOL     OW16673   2.141  10.093  14.061
 4945SOL    HW116674   2.057  10.047  14.051
 4945SOL    HW216675   2.180  10.055  14.140
 4946SOL     OW16676   0.108   5.084  10.998
 4946SOL    HW116677   0.106   5.036  11.081
 4946SOL    HW216678   0.084   5.174  11.022
 4947SOL     OW16679   6.381  12.623   1.339
 4947SOL    HW116680   6.292  12.641   1.370
 4947SOL    HW216681   6.416  12.560   1.402
 4948SOL     OW16682  10.202   2.905  10.569
 4948SOL    HW116683  10.226   2.907  10.661
 4948SOL    HW216684  10.108   2.920  10.567
 4949SOL     OW16685  12.066   7.097   6.176
 4949SOL    HW116686  12.120   7.143   6.111
 4949SOL    HW216687  12.117   7.104   6.257
 4950SOL     OW16688   8.891   5.503  12.062
 4950SOL    HW116689   8.827   5.452  12.112
 4950SOL    HW216690   8.932   5.559  12.127
 4951SOL     OW16691   0.191   9.711   8.892
 4951SOL    HW116692   0.225   9.800   8.907
 4951SOL    HW216693   0.212   9.693   8.801
 4952SOL     OW16694   8.916   2.180   6.284
 4952SOL    HW116695   8.939   2.249   6.346
 4952SOL    HW216696   8.914   2.223   6.199
 4953SOL     OW16697   3.508  10.831  12.570
 4953SOL    HW116698   3.477  10.882  12.645
 4953SOL    HW216699   3.486  10.884  12.494
 4954SOL     OW16700   9.642  11.108   1.117
 4954SOL    HW116701   9.575  11.076   1.056
 4954SOL    HW216702   9.677  11.186   1.075
 4955SOL     OW16703  10.130   0.282   4.178
 4955SOL    HW116704  10.168   0.246   4.098
 4955SOL    HW216705  10.205   0.298   4.235
 4956SOL     OW16706   1.638   2.131  10.598
 4956SOL    HW116707   1.579   2.069  10.555
 4956SOL    HW216708   1.581   2.201  10.630
 4957SOL     OW16709   3.631   4.053   3.538
 4957SOL    HW116710   3.544   4.015   3.536
 4957SOL    HW216711   3.686   3.985   3.577
 4958SOL     OW16712   1.715  14.126   0.351
 4958SOL    HW116713   1.736  14.033   0.350
 4958SOL    HW216714   1.646  14.134   0.417
 4959SOL     OW16715  13.052  13.779   6.657
 4959SOL    HW116716  13.026  13.698   6.701
 4959SOL    HW216717  13.142  13.762   6.627
 4960SOL     OW16718   0.715   0.534   5.148
 4960SOL    HW116719   0.675   0.548   5.234
 4960SOL    HW216720   0.664   0.462   5.110
 4961SOL     OW16721   3.534   6.454   1.461
 4961SOL    HW116722   3.568   6.487   1.378
 4961SOL    HW216723   3.585   6.375   1.478
 4962SOL     OW16724   2.444   2.283   9.398
 4962SOL    HW116725   2.486   2.215   9.346
 4962SOL    HW216726   2.407   2.238   9.474
 4963SOL     OW16727   1.745  12.646   3.487
 4963SOL    HW116728   1.704  12.681   3.565
 4963SOL    HW216729   1.728  12.552   3.491
 4964SOL     OW16730   5.863  12.875   3.055
 4964SOL    HW116731   5.800  12.847   2.988
 4964SOL    HW216732   5.922  12.800   3.064
 4965SOL     OW16733   4.630   5.126  11.546
 4965SOL    HW116734   4.612   5.061  11.478
 4965SOL    HW216735   4.578   5.097  11.621
 4966SOL     OW16736   7.375  12.565  14.318
 4966SOL    HW116737   7.367  12.659  14.335
 4966SOL    HW216738   7.439  12.535  14.383
 4967SOL     OW16739   2.502  10.876   3.079
 4967SOL    HW116740   2.417  10.832   3.080
 4967SOL    HW216741   2.489  10.953   3.134
 4968SOL     OW16742   5.817   3.542   9.629
 4968SOL    HW116743   5.787   3.621   9.585
 4968SOL    HW216744   5.739   3.508   9.674
 4969SOL     OW16745   0.392   2.920  10.954
 4969SOL    HW116746   0.394   2.969  10.871
 4969SOL    HW216747   0.324   2.855  10.941
 4970SOL     OW16748   2.732   5.208   2.562
 4970SOL    HW116749   2.766   5.293   2.589
 4970SOL    HW216750   2.756   5.200   2.470
 4971SOL     OW16751   2.241   0.687   2.256
 4971SOL    HW116752   2.315   0.661   2.201
 4971SOL    HW216753   2.163   0.665   2.205
 4972SOL     OW16754   9.522   4.255   2.902
 4972SOL    HW116755   9.439   4.208   2.894
 4972SOL    HW216756   9.585   4.201   2.855
 4973SOL     OW16757  11.168   4.823  12.586
 4973SOL    HW116758  11.240   4.768  12.616
 4973SOL    HW216759  11.111   4.763  12.538
 4974SOL     OW16760  10.412   8.894   7.665
 4974SOL    HW116761  10.354   8.833   7.710
 4974SOL    HW216762  10.353   8.959   7.626
 4975SOL     OW16763   9.786  14.873  12.711
 4975SOL    HW116764   9.875   0.028  12.706
 4975SOL    HW216765   9.767  14.869  12.805
 4976SOL     OW16766   1.948   6.723   1.634
 4976SOL    HW116767   1.861   6.690   1.609
 4976SOL    HW216768   1.931   6.781   1.708
 4977SOL     OW16769  11.967   4.380  11.622
 4977SOL    HW116770  11.954   4.293  11.584
 4977SOL    HW216771  12.059   4.399  11.606
 4978SOL     OW16772  12.616   0.789  13.861
 4978SOL    HW116773  12.703   0.758  13.886
 4978SOL    HW216774  12.630   0.877  13.827
 4979SOL     OW16775   1.080  12.819   7.384
 4979SOL    HW116776   1.123  12.820   7.469
 4979SOL    HW216777   1.111  12.898   7.340
 4980SOL     OW16778   9.919   6.999  14.142
 4980SOL    HW116779   9.843   6.948  14.169
 4980SOL    HW216780   9.961   7.027  14.223
 4981SOL     OW16781   6.413   1.674   8.816
 4981SOL    HW116782   6.435   1.674   8.723
 4981SOL    HW216783   6.322   1.646   8.820
 4982SOL     OW16784   6.765   3.830  14.357
 4982SOL    HW116785   6.707   3.818  14.282
 4982SOL    HW216786   6.740   3.761  14.419
 4983SOL     OW16787   1.269   9.757   1.098
 4983SOL    HW116788   1.313   9.684   1.055
 4983SOL    HW216789   1.337   9.798   1.151
 4984SOL     OW16790  10.623   2.163   9.411
 4984SOL    HW116791  10.688   2.198   9.351
 4984SOL    HW216792  10.547   2.220   9.400
 4985SOL     OW16793  11.958  10.299   5.198
 4985SOL    HW116794  12.035  10.242   5.194
 4985SOL    HW216795  11.969  10.359   5.124
 4986SOL     OW16796   0.931   3.743   5.739
 4986SOL    HW116797   0.904   3.815   5.682
 4986SOL    HW216798   0.966   3.677   5.680
 4987SOL     OW16799   0.665   3.579   7.898
 4987SOL    HW116800   0.617   3.545   7.973
 4987SOL    HW216801   0.604   3.568   7.824
 4988SOL     OW16802  14.818   3.266   4.188
 4988SOL    HW116803  14.866   3.271   4.106
 4988SOL    HW216804  14.853   3.337   4.242
 4989SOL     OW16805   3.137  13.150   7.029
 4989SOL    HW116806   3.205  13.112   7.084
 4989SOL    HW216807   3.150  13.110   6.943
 4990SOL     OW16808  12.671   1.420  11.049
 4990SOL    HW116809  12.648   1.344  11.102
 4990SOL    HW216810  12.619   1.411  10.969
 4991SOL     OW16811  11.101   6.341   5.336
 4991SOL    HW116812  11.022   6.390   5.316
 4991SOL    HW216813  11.172   6.393   5.296
 4992SOL     OW16814   0.435   4.068   7.983
 4992SOL    HW116815   0.370   4.086   8.051
 4992SOL    HW216816   0.511   4.121   8.009
 4993SOL     OW16817  14.669   3.909  11.768
 4993SOL    HW116818  14.628   3.853  11.702
 4993SOL    HW216819  14.703   3.984  11.719
 4994SOL     OW16820  11.226   0.055  14.663
 4994SOL    HW116821  11.307   0.005  14.649
 4994SOL    HW216822  11.183   0.010  14.736
 4995SOL     OW16823  11.260   8.772  14.261
 4995SOL    HW116824  11.321   8.845  14.247
 4995SOL    HW216825  11.179   8.815  14.289
 4996SOL     OW16826   7.849   2.187  14.533
 4996SOL    HW116827   7.912   2.235  14.479
 4996SOL    HW216828   7.808   2.253  14.587
 4997SOL     OW16829   4.213   6.324   6.376
 4997SOL    HW116830   4.246   6.285   6.457
 4997SOL    HW216831   4.248   6.413   6.376
 4998SOL     OW16832   0.889   7.573  13.603
 4998SOL    HW116833   0.976   7.535  13.616
 4998SOL    HW216834   0.907   7.661  13.569
 4999SOL     OW16835   9.073   8.566   0.969
 4999SOL    HW116836   9.123   8.559   1.050
 4999SOL    HW216837   9.105   8.646   0.928
 5000SOL     OW16838  12.769   5.457   1.868
 5000SOL    HW116839  12.675   5.456   1.853
 5000SOL    HW216840  12.804   5.513   1.798
 5001SOL     OW16841  14.121   3.671   4.597
 5001SOL    HW116842  14.124   3.601   4.532
 5001SOL    HW216843  14.104   3.750   4.545
 5002SOL     OW16844  14.027  13.064   8.660
 5002SOL    HW116845  14.065  13.115   8.588
 5002SOL    HW216846  14.042  13.119   8.738
 5003SOL     OW16847   0.746   3.862   3.450
 5003SOL    HW116848   0.665   3.819   3.425
 5003SOL    HW216849   0.730   3.895   3.538
 5004SOL     OW16850   4.162   8.273  11.185
 5004SOL    HW116851   4.215   8.286  11.264
 5004SOL    HW216852   4.092   8.338  11.193
 5005SOL     OW16853   7.073   7.238   7.301
 5005SOL    HW116854   7.140   7.302   7.277
 5005SOL    HW216855   6.991   7.277   7.271
 5006SOL     OW16856   1.705   6.351   9.510
 5006SOL    HW116857   1.643   6.424   9.513
 5006SOL    HW216858   1.782   6.384   9.557
 5007SOL     OW16859   2.824  14.698   7.091
 5007SOL    HW116860   2.796  14.645   7.016
 5007SOL    HW216861   2.873  14.771   7.051
 5008SOL     OW16862   1.714   2.543   6.796
 5008SOL    HW116863   1.687   2.580   6.880
 5008SOL    HW216864   1.632   2.524   6.751
 5009SOL     OW16865  14.467  12.984   8.004
 5009SOL    HW116866  14.441  13.014   7.917
 5009SOL    HW216867  14.555  13.020   8.017
 5010SOL     OW16868  14.626  14.244   1.281
 5010SOL    HW116869  14.607  14.181   1.351
 5010SOL    HW216870  14.559  14.311   1.290
 5011SOL     OW16871  12.436   2.884   1.888
 5011SOL    HW116872  12.381   2.860   1.813
 5011SOL    HW216873  12.450   2.801   1.934
 5012SOL     OW16874   0.393  12.124  12.732
 5012SOL    HW116875   0.365  12.213  12.751
 5012SOL    HW216876   0.319  12.084  12.687
 5013SOL     OW16877  11.253   0.866   9.267
 5013SOL    HW116878  11.189   0.888   9.199
 5013SOL    HW216879  11.201   0.844   9.344
 5014SOL     OW16880   4.536  12.150   3.247
 5014SOL    HW116881   4.605  12.156   3.180
 5014SOL    HW216882   4.541  12.233   3.294
 5015SOL     OW16883   1.903   8.364  14.785
 5015SOL    HW116884   1.954   8.319  14.718
 5015SOL    HW216885   1.922   8.456  14.772
 5016SOL     OW16886   8.811   5.735   7.630
 5016SOL    HW116887   8.836   5.819   7.670
 5016SOL    HW216888   8.833   5.746   7.537
 5017SOL     OW16889  13.008   1.086   0.255
 5017SOL    HW116890  12.971   0.999   0.238
 5017SOL    HW216891  12.975   1.110   0.342
 5018SOL     OW16892   4.168   8.381  11.459
 5018SOL    HW116893   4.254   8.422  11.461
 5018SOL    HW216894   4.109   8.447  11.494
 5019SOL     OW16895   1.461   2.403   9.778
 5019SOL    HW116896   1.457   2.497   9.766
 5019SOL    HW216897   1.460   2.391   9.874
 5020SOL     OW16898   4.168   6.418   4.147
 5020SOL    HW116899   4.262   6.428   4.161
 5020SOL    HW216900   4.141   6.354   4.214
 5021SOL     OW16901   0.560   9.459   3.842
 5021SOL    HW116902   0.547   9.498   3.929
 5021SOL    HW216903   0.648   9.487   3.817
 5022SOL     OW16904   9.785  12.120  11.825
 5022SOL    HW116905   9.716  12.178  11.858
 5022SOL    HW216906   9.739  12.040  11.801
 5023SOL     OW16907   0.939  10.353   3.853
 5023SOL    HW116908   0.935  10.262   3.823
 5023SOL    HW216909   1.016  10.389   3.809
 5024SOL     OW16910  11.011   2.740  10.648
 5024SOL    HW116911  11.020   2.772  10.738
 5024SOL    HW216912  11.048   2.652  10.650
 5025SOL     OW16913   9.730  13.363   3.329
 5025SOL    HW116914   9.767  13.275   3.324
 5025SOL    HW216915   9.636  13.350   3.327
 5026SOL     OW16916  12.542  10.488   1.455
 5026SOL    HW116917  12.601  10.557   1.427
 5026SOL    HW216918  12.560  10.414   1.397
 5027SOL     OW16919  12.908  10.845   5.491
 5027SOL    HW116920  12.939  10.795   5.415
 5027SOL    HW216921  12.869  10.923   5.454
 5028SOL     OW16922   1.835   2.899  12.554
 5028SOL    HW116923   1.824   2.816  12.600
 5028SOL    HW216924   1.929   2.904  12.536
 5029SOL     OW16925   8.216  10.262   7.823
 5029SOL    HW116926   8.183  10.329   7.762
 5029SOL    HW216927   8.194  10.179   7.781
 5030SOL     OW16928  10.179  12.276   1.939
 5030SOL    HW116929  10.211  12.229   1.862
 5030SOL    HW216930  10.258  12.306   1.984
 5031SOL     OW16931   1.770   4.185   3.611
 5031SOL    HW116932   1.680   4.213   3.626
 5031SOL    HW216933   1.811   4.189   3.698
 5032SOL     OW16934   8.169   9.687   4.463
 5032SOL    HW116935   8.228   9.747   4.509
 5032SOL    HW216936   8.095   9.676   4.522
 5033SOL     OW16937   2.423   1.197   2.011
 5033SOL    HW116938   2.406   1.291   2.008
 5033SOL    HW216939   2.342   1.156   1.981
 5034SOL     OW16940   4.327  11.960   0.873
 5034SOL    HW116941   4.236  11.952   0.845
 5034SOL    HW216942   4.372  12.000   0.798
 5035SOL     OW16943   1.468   1.297   2.673
 5035SOL    HW116944   1.525   1.367   2.641
 5035SOL    HW216945   1.385   1.341   2.691
 5036SOL     OW16946   5.749   5.220   0.319
 5036SOL    HW116947   5.780   5.185   0.403
 5036SOL    HW216948   5.784   5.161   0.253
 5037SOL     OW16949   6.968  10.459  13.616
 5037SOL    HW116950   6.960  10.511  13.536
 5037SOL    HW216951   7.063  10.454  13.632
 5038SOL     OW16952  14.578  13.115  10.978
 5038SOL    HW116953  14.603  13.188  11.035
 5038SOL    HW216954  14.592  13.037  11.032
 5039SOL     OW16955  11.286   8.423   7.388
 5039SOL    HW116956  11.278   8.510   7.350
 5039SOL    HW216957  11.347   8.377   7.331
 5040SOL     OW16958  12.379   9.904   3.041
 5040SOL    HW116959  12.340   9.987   3.069
 5040SOL    HW216960  12.450   9.930   2.982
 5041SOL     OW16961   3.897  10.735  14.621
 5041SOL    HW116962   3.928  10.708  14.707
 5041SOL    HW216963   3.885  10.830  14.628
 5042SOL     OW16964   3.625   3.221  14.142
 5042SOL    HW116965   3.666   3.141  14.176
 5042SOL    HW216966   3.538   3.194  14.114
 5043SOL     OW16967   7.644  11.170  11.877
 5043SOL    HW116968   7.704  11.214  11.936
 5043SOL    HW216969   7.676  11.192  11.789
 5044SOL     OW16970   2.378   3.169   9.995
 5044SOL    HW116971   2.472   3.155   9.987
 5044SOL    HW216972   2.348   3.097  10.051
 5045SOL     OW16973  12.088  10.492  10.948
 5045SOL    HW116974  12.170  10.447  10.968
 5045SOL    HW216975  12.052  10.445  10.873
 5046SOL     OW16976   2.066  14.856  10.013
 5046SOL    HW116977   2.028  14.789   9.956
 5046SOL    HW216978   2.007  14.859  10.088
 5047SOL     OW16979   5.522  12.547   0.720
 5047SOL    HW116980   5.500  12.628   0.675
 5047SOL    HW216981   5.617  12.550   0.730
 5048SOL     OW16982  11.375   6.804   2.540
 5048SOL    HW116983  11.328   6.750   2.603
 5048SOL    HW216984  11.308   6.836   2.480
 5049SOL     OW16985  13.366  13.832  12.663
 5049SOL    HW116986  13.373  13.917  12.706
 5049SOL    HW216987  13.321  13.851  12.580
 5050SOL     OW16988  11.025   2.387   2.270
 5050SOL    HW116989  10.944   2.396   2.219
 5050SOL    HW216990  11.032   2.294   2.289
 5051SOL     OW16991   7.255   6.154   4.717
 5051SOL    HW116992   7.263   6.208   4.796
 5051SOL    HW216993   7.255   6.064   4.749
 5052SOL     OW16994  12.695   5.627   3.474
 5052SOL    HW116995  12.688   5.701   3.415
 5052SOL    HW216996  12.789   5.622   3.496
 5053SOL     OW16997  14.557   7.230   0.241
 5053SOL    HW116998  14.588   7.294   0.177
 5053SOL    HW216999  14.525   7.283   0.314
 5054SOL     OW17000  11.714   9.384   2.432
 5054SOL    HW117001  11.659   9.305   2.429
 5054SOL    HW217002  11.796   9.355   2.472
 5055SOL     OW17003   9.331  13.060   8.398
 5055SOL    HW117004   9.245  13.074   8.439
 5055SOL    HW217005   9.349  13.141   8.351
 5056SOL     OW17006   1.422   4.733   4.865
 5056SOL    HW117007   1.431   4.827   4.874
 5056SOL    HW217008   1.383   4.704   4.948
 5057SOL     OW17009   1.617  11.261  12.386
 5057SOL    HW117010   1.628  11.176  12.428
 5057SOL    HW217011   1.702  11.278  12.345
 5058SOL     OW17012  11.736  10.638  13.684
 5058SOL    HW117013  11.663  10.695  13.661
 5058SOL    HW217014  11.812  10.697  13.690
 5059SOL     OW17015  10.003  11.830   3.082
 5059SOL    HW117016   9.986  11.822   3.176
 5059SOL    HW217017   9.977  11.919   3.060
 5060SOL     OW17018   0.051  10.248  14.514
 5060SOL    HW117019  14.865  10.301  14.468
 5060SOL    HW217020   0.131  10.258  14.463
 5061SOL     OW17021   5.757   2.939  10.852
 5061SOL    HW117022   5.730   2.968  10.940
 5061SOL    HW217023   5.811   3.010  10.819
 5062SOL     OW17024  14.495   2.741   8.596
 5062SOL    HW117025  14.454   2.827   8.606
 5062SOL    HW217026  14.589   2.759   8.601
 5063SOL     OW17027  10.987   0.104  13.331
 5063SOL    HW117028  10.959   0.052  13.256
 5063SOL    HW217029  10.913   0.162  13.349
 5064SOL     OW17030  13.138   0.721   9.023
 5064SOL    HW117031  13.217   0.688   8.981
 5064SOL    HW217032  13.115   0.653   9.087
 5065SOL     OW17033  14.872  12.393  10.331
 5065SOL    HW117034  14.811  12.400  10.404
 5065SOL    HW217035  14.861  12.474  10.282
 5066SOL     OW17036  11.780   2.739   1.787
 5066SOL    HW117037  11.838   2.814   1.776
 5066SOL    HW217038  11.797   2.707   1.875
 5067SOL     OW17039  11.836   3.746  11.632
 5067SOL    HW117040  11.878   3.797  11.562
 5067SOL    HW217041  11.772   3.806  11.670
 5068SOL     OW17042   9.614   2.072  12.225
 5068SOL    HW117043   9.619   2.081  12.130
 5068SOL    HW217044   9.642   2.157  12.259
 5069SOL     OW17045  11.439  12.890  11.284
 5069SOL    HW117046  11.512  12.890  11.345
 5069SOL    HW217047  11.384  12.963  11.311
 5070SOL     OW17048   0.032  11.893   0.693
 5070SOL    HW117049   0.046  11.985   0.718
 5070SOL    HW217050   0.050  11.891   0.599
 5071SOL     OW17051  14.493   7.282   2.751
 5071SOL    HW117052  14.507   7.206   2.694
 5071SOL    HW217053  14.444   7.344   2.696
 5072SOL     OW17054  12.361   1.138   5.385
 5072SOL    HW117055  12.364   1.073   5.314
 5072SOL    HW217056  12.452   1.146   5.414
 5073SOL     OW17057   2.739   1.461   6.966
 5073SOL    HW117058   2.779   1.525   7.026
 5073SOL    HW217059   2.712   1.389   7.023
 5074SOL     OW17060   2.484  11.187  14.645
 5074SOL    HW117061   2.440  11.115  14.690
 5074SOL    HW217062   2.527  11.236  14.716
 5075SOL     OW17063   9.966   9.624  13.409
 5075SOL    HW117064  10.011   9.610  13.326
 5075SOL    HW217065   9.908   9.548  13.419
 5076SOL     OW17066  11.617   6.004  13.085
 5076SOL    HW117067  11.641   6.078  13.140
 5076SOL    HW217068  11.562   6.042  13.016
 5077SOL     OW17069   6.144  10.794  14.665
 5077SOL    HW117070   6.239  10.784  14.659
 5077SOL    HW217071   6.109  10.711  14.635
 5078SOL     OW17072  14.519   7.034  13.877
 5078SOL    HW117073  14.480   7.098  13.817
 5078SOL    HW217074  14.506   6.949  13.834
 5079SOL     OW17075   7.436  14.180   5.840
 5079SOL    HW117076   7.480  14.257   5.874
 5079SOL    HW217077   7.485  14.106   5.876
 5080SOL     OW17078   9.577  12.944   1.995
 5080SOL    HW117079   9.512  12.900   2.051
 5080SOL    HW217080   9.524  12.993   1.932
 5081SOL     OW17081   8.627   2.402   6.397
 5081SOL    HW117082   8.609   2.369   6.486
 5081SOL    HW217083   8.550   2.454   6.375
 5082SOL     OW17084  13.010   6.141   8.787
 5082SOL    HW117085  13.058   6.175   8.862
 5082SOL    HW217086  13.077   6.124   8.721
 5083SOL     OW17087   2.602   8.152  12.865
 5083SOL    HW117088   2.685   8.177  12.904
 5083SOL    HW217089   2.556   8.103  12.933
 5084SOL     OW17090   2.443   4.019   1.274
 5084SOL    HW117091   2.528   4.057   1.252
 5084SOL    HW217092   2.436   3.942   1.219
 5085SOL     OW17093   6.845   2.383  11.710
 5085SOL    HW117094   6.836   2.478  11.699
 5085SOL    HW217095   6.818   2.347  11.626
 5086SOL     OW17096   3.359  11.343  12.545
 5086SOL    HW117097   3.339  11.411  12.481
 5086SOL    HW217098   3.379  11.392  12.625
 5087SOL     OW17099  11.847   9.970   5.405
 5087SOL    HW117100  11.862   9.903   5.338
 5087SOL    HW217101  11.780  10.027   5.366
 5088SOL     OW17102   1.333   4.355   0.521
 5088SOL    HW117103   1.334   4.391   0.609
 5088SOL    HW217104   1.369   4.424   0.466
 5089SOL     OW17105   9.941  12.213  13.272
 5089SOL    HW117106   9.874  12.236  13.336
 5089SOL    HW217107  10.024  12.231  13.317
 5090SOL     OW17108   8.420  13.394   9.329
 5090SOL    HW117109   8.390  13.327   9.268
 5090SOL    HW217110   8.480  13.448   9.277
 5091SOL     OW17111   1.445   1.451   9.997
 5091SOL    HW117112   1.514   1.392  10.026
 5091SOL    HW217113   1.369   1.395   9.985
 5092SOL     OW17114   7.850  10.355  11.483
 5092SOL    HW117115   7.841  10.430  11.423
 5092SOL    HW217116   7.905  10.388  11.554
 5093SOL     OW17117  10.080  13.428   0.089
 5093SOL    HW117118  10.167  13.403   0.121
 5093SOL    HW217119  10.032  13.452   0.169
 5094SOL     OW17120  13.128   3.272  13.668
 5094SOL    HW117121  13.035   3.296  13.674
 5094SOL    HW217122  13.133   3.219  13.588
 5095SOL     OW17123  12.263  10.226  12.285
 5095SOL    HW117124  12.173  10.242  12.314
 5095SOL    HW217125  12.256  10.211  12.191
 5096SOL     OW17126   4.903   2.815   6.065
 5096SOL    HW117127   4.986   2.834   6.109
 5096SOL    HW217128   4.862   2.749   6.120
 5097SOL     OW17129   4.755   7.619  10.174
 5097SOL    HW117130   4.751   7.690  10.109
 5097SOL    HW217131   4.848   7.597  10.180
 5098SOL     OW17132   0.513   5.939   5.637
 5098SOL    HW117133   0.421   5.952   5.659
 5098SOL    HW217134   0.525   5.844   5.638
 5099SOL     OW17135  12.991   3.282   8.225
 5099SOL    HW117136  12.992   3.361   8.171
 5099SOL    HW217137  12.955   3.310   8.309
 5100SOL     OW17138   3.466  11.150   6.963
 5100SOL    HW117139   3.476  11.081   7.028
 5100SOL    HW217140   3.548  11.200   6.968
 5101SOL     OW17141  14.587   9.816   5.821
 5101SOL    HW117142  14.599   9.722   5.810
 5101SOL    HW217143  14.675   9.852   5.821
 5102SOL     OW17144   8.395   6.871   1.963
 5102SOL    HW117145   8.465   6.920   2.006
 5102SOL    HW217146   8.440   6.810   1.904
 5103SOL     OW17147   1.867  12.423   2.933
 5103SOL    HW117148   1.819  12.495   2.974
 5103SOL    HW217149   1.881  12.360   3.003
 5104SOL     OW17150   3.537   9.570   8.135
 5104SOL    HW117151   3.521   9.538   8.224
 5104SOL    HW217152   3.552   9.663   8.146
 5105SOL     OW17153  13.726  14.650  13.014
 5105SOL    HW117154  13.818  14.627  13.016
 5105SOL    HW217155  13.706  14.662  12.921
 5106SOL     OW17156   1.477  13.805   9.606
 5106SOL    HW117157   1.483  13.757   9.523
 5106SOL    HW217158   1.480  13.897   9.580
 5107SOL     OW17159   4.462   7.207   9.329
 5107SOL    HW117160   4.503   7.273   9.386
 5107SOL    HW217161   4.375   7.194   9.367
 5108SOL     OW17162  14.619   9.207  11.691
 5108SOL    HW117163  14.702   9.232  11.732
 5108SOL    HW217164  14.640   9.130  11.638
 5109SOL     OW17165   6.331   8.009   8.267
 5109SOL    HW117166   6.308   8.039   8.179
 5109SOL    HW217167   6.260   7.950   8.292
 5110SOL     OW17168  14.252   2.576   0.395
 5110SOL    HW117169  14.222   2.498   0.442
 5110SOL    HW217170  14.205   2.572   0.312
 5111SOL     OW17171   2.130   2.735  12.523
 5111SOL    HW117172   2.201   2.757  12.583
 5111SOL    HW217173   2.160   2.766  12.437
 5112SOL     OW17174   4.428  10.616  13.233
 5112SOL    HW117175   4.484  10.589  13.306
 5112SOL    HW217176   4.486  10.663  13.173
 5113SOL     OW17177  13.052   0.214   3.699
 5113SOL    HW117178  13.145   0.198   3.716
 5113SOL    HW217179  13.052   0.283   3.632
 5114SOL     OW17180   6.597   0.365  10.035
 5114SOL    HW117181   6.663   0.296  10.022
 5114SOL    HW217182   6.514   0.324  10.009
 5115SOL     OW17183   8.425   2.979   1.846
 5115SOL    HW117184   8.389   2.891   1.844
 5115SOL    HW217185   8.518   2.968   1.826
 5116SOL     OW17186  13.201  12.897   6.216
 5116SOL    HW117187  13.182  12.831   6.150
 5116SOL    HW217188  13.117  12.942   6.230
 5117SOL     OW17189  11.559  10.355   9.259
 5117SOL    HW117190  11.593  10.298   9.191
 5117SOL    HW217191  11.488  10.305   9.300
 5118SOL     OW17192   0.801   1.811  14.716
 5118SOL    HW117193   0.736   1.781  14.653
 5118SOL    HW217194   0.783   1.760  14.795
 5119SOL     OW17195  13.496  12.011   9.266
 5119SOL    HW117196  13.426  11.989   9.329
 5119SOL    HW217197  13.462  11.982   9.182
 5120SOL     OW17198  14.862  13.357   8.768
 5120SOL    HW117199  14.782  13.324   8.726
 5120SOL    HW217200   0.015  13.425   8.709
 5121SOL     OW17201  11.914  14.358   5.782
 5121SOL    HW117202  11.935  14.445   5.817
 5121SOL    HW217203  11.985  14.302   5.813
 5122SOL     OW17204   5.113  13.183   0.408
 5122SOL    HW117205   5.081  13.137   0.486
 5122SOL    HW217206   5.188  13.131   0.378
 5123SOL     OW17207   2.387  12.559   4.507
 5123SOL    HW117208   2.398  12.478   4.456
 5123SOL    HW217209   2.454  12.618   4.473
 5124SOL     OW17210  12.097   9.147  11.620
 5124SOL    HW117211  12.006   9.128  11.643
 5124SOL    HW217212  12.102   9.243  11.621
 5125SOL     OW17213  10.606  10.503   0.521
 5125SOL    HW117214  10.562  10.521   0.604
 5125SOL    HW217215  10.696  10.483   0.546
 5126SOL     OW17216   0.430   7.070   9.893
 5126SOL    HW117217   0.493   7.061   9.964
 5126SOL    HW217218   0.376   7.144   9.917
 5127SOL     OW17219   0.858   5.542   1.207
 5127SOL    HW117220   0.807   5.563   1.129
 5127SOL    HW217221   0.795   5.504   1.268
 5128SOL     OW17222   6.988   0.863   6.465
 5128SOL    HW117223   7.049   0.797   6.430
 5128SOL    HW217224   6.934   0.887   6.390
 5129SOL     OW17225   7.358  13.760   4.837
 5129SOL    HW117226   7.444  13.755   4.795
 5129SOL    HW217227   7.377  13.779   4.929
 5130SOL     OW17228   5.425  11.662   9.339
 5130SOL    HW117229   5.386  11.707   9.413
 5130SOL    HW217230   5.412  11.569   9.358
 5131SOL     OW17231   3.723   2.801   5.529
 5131SOL    HW117232   3.794   2.860   5.556
 5131SOL    HW217233   3.744   2.718   5.572
 5132SOL     OW17234  11.610   4.158   8.928
 5132SOL    HW117235  11.540   4.219   8.950
 5132SOL    HW217236  11.637   4.122   9.013
 5133SOL     OW17237  13.223   3.571  11.681
 5133SOL    HW117238  13.180   3.645  11.640
 5133SOL    HW217239  13.163   3.498  11.669
 5134SOL     OW17240   4.026   5.398  13.460
 5134SOL    HW117241   4.068   5.428  13.379
 5134SOL    HW217242   4.057   5.457  13.527
 5135SOL     OW17243  11.722   3.839   6.571
 5135SOL    HW117244  11.706   3.863   6.480
 5135SOL    HW217245  11.799   3.783   6.568
 5136SOL     OW17246  14.075   2.118   1.488
 5136SOL    HW117247  14.166   2.120   1.460
 5136SOL    HW217248  14.036   2.046   1.438
 5137SOL     OW17249   1.103   0.253   7.409
 5137SOL    HW117250   1.158   0.177   7.431
 5137SOL    HW217251   1.129   0.277   7.320
 5138SOL     OW17252  14.560   2.619   1.792
 5138SOL    HW117253  14.554   2.526   1.767
 5138SOL    HW217254  14.632   2.653   1.739
 5139SOL     OW17255  10.136  13.510  13.626
 5139SOL    HW117256  10.172  13.423  13.607
 5139SOL    HW217257  10.044  13.495  13.645
 5140SOL     OW17258   4.158  11.919  11.472
 5140SOL    HW117259   4.099  11.848  11.446
 5140SOL    HW217260   4.236  11.875  11.505
 5141SOL     OW17261   3.954  10.091  12.332
 5141SOL    HW117262   4.009  10.021  12.367
 5141SOL    HW217263   3.866  10.071  12.365
 5142SOL     OW17264   9.489   0.718   5.419
 5142SOL    HW117265   9.541   0.708   5.339
 5142SOL    HW217266   9.398   0.719   5.389
 5143SOL     OW17267   3.098   3.588   1.436
 5143SOL    HW117268   3.159   3.542   1.494
 5143SOL    HW217269   3.120   3.558   1.348
 5144SOL     OW17270   1.973  10.000   1.239
 5144SOL    HW117271   2.065  10.023   1.249
 5144SOL    HW217272   1.955  10.010   1.146
 5145SOL     OW17273  13.408   4.509   5.375
 5145SOL    HW117274  13.389   4.451   5.301
 5145SOL    HW217275  13.504   4.516   5.375
 5146SOL     OW17276   7.915  14.343   1.366
 5146SOL    HW117277   7.843  14.401   1.392
 5146SOL    HW217278   7.931  14.289   1.443
 5147SOL     OW17279   4.044   5.686   0.967
 5147SOL    HW117280   4.101   5.737   0.909
 5147SOL    HW217281   4.104   5.633   1.019
 5148SOL     OW17282   4.302   1.234  12.470
 5148SOL    HW117283   4.215   1.249  12.434
 5148SOL    HW217284   4.358   1.295  12.422
 5149SOL     OW17285   6.886   2.959   6.250
 5149SOL    HW117286   6.800   2.971   6.210
 5149SOL    HW217287   6.897   3.036   6.306
 5150SOL     OW17288   4.299   1.268   5.407
 5150SOL    HW117289   4.234   1.268   5.478
 5150SOL    HW217290   4.323   1.360   5.396
 5151SOL     OW17291   4.003   9.913   3.954
 5151SOL    HW117292   3.911   9.901   3.932
 5151SOL    HW217293   4.006   9.993   4.007
 5152SOL     OW17294  11.336  12.653   6.039
 5152SOL    HW117295  11.300  12.713   6.104
 5152SOL    HW217296  11.383  12.710   5.978
 5153SOL     OW17297   0.068   2.450  10.167
 5153SOL    HW117298   0.091   2.455  10.260
 5153SOL    HW217299   0.150   2.466  10.121
 5154SOL     OW17300   8.435   4.151   6.632
 5154SOL    HW117301   8.476   4.144   6.546
 5154SOL    HW217302   8.408   4.062   6.654
 5155SOL     OW17303   6.277   4.641   3.173
 5155SOL    HW117304   6.183   4.628   3.187
 5155SOL    HW217305   6.284   4.662   3.079
 5156SOL     OW17306  14.805   4.613  12.140
 5156SOL    HW117307  14.813   4.542  12.076
 5156SOL    HW217308   0.015   4.627  12.172
 5157SOL     OW17309   3.869  13.659   8.698
 5157SOL    HW117310   3.952  13.674   8.742
 5157SOL    HW217311   3.806  13.713   8.746
 5158SOL     OW17312   7.811   0.868  11.903
 5158SOL    HW117313   7.774   0.955  11.890
 5158SOL    HW217314   7.735   0.812  11.922
 5159SOL     OW17315   1.595   3.113  11.501
 5159SOL    HW117316   1.655   3.149  11.565
 5159SOL    HW217317   1.512   3.159  11.516
 5160SOL     OW17318   9.619   7.236   2.328
 5160SOL    HW117319   9.590   7.219   2.418
 5160SOL    HW217320   9.619   7.150   2.286
 5161SOL     OW17321  14.768   1.082  10.993
 5161SOL    HW117322  14.822   1.004  10.981
 5161SOL    HW217323  14.736   1.103  10.906
 5162SOL     OW17324   1.613   8.969   1.561
 5162SOL    HW117325   1.603   8.894   1.620
 5162SOL    HW217326   1.639   9.041   1.619
 5163SOL     OW17327   4.870   5.993   1.649
 5163SOL    HW117328   4.860   6.067   1.708
 5163SOL    HW217329   4.937   6.020   1.587
 5164SOL     OW17330   4.506   3.575   0.782
 5164SOL    HW117331   4.568   3.515   0.821
 5164SOL    HW217332   4.454   3.521   0.722
 5165SOL     OW17333  11.648   3.863   6.984
 5165SOL    HW117334  11.738   3.894   6.994
 5165SOL    HW217335  11.611   3.919   6.915
 5166SOL     OW17336   5.381   3.947  13.984
 5166SOL    HW117337   5.369   3.967  14.077
 5166SOL    HW217338   5.297   3.911  13.956
 5167SOL     OW17339  10.694   8.881   0.089
 5167SOL    HW117340  10.767   8.821   0.074
 5167SOL    HW217341  10.679   8.877   0.184
 5168SOL     OW17342  10.637   6.084  11.800
 5168SOL    HW117343  10.628   5.989  11.811
 5168SOL    HW217344  10.677   6.114  11.881
 5169SOL     OW17345  12.010   1.296  11.122
 5169SOL    HW117346  12.101   1.315  11.098
 5169SOL    HW217347  11.959   1.361  11.073
 5170SOL     OW17348  10.716  13.265   8.202
 5170SOL    HW117349  10.710  13.334   8.268
 5170SOL    HW217350  10.756  13.308   8.126
 5171SOL     OW17351   5.780   0.746   8.446
 5171SOL    HW117352   5.853   0.764   8.386
 5171SOL    HW217353   5.703   0.781   8.401
 5172SOL     OW17354   1.570   6.361   4.019
 5172SOL    HW117355   1.613   6.311   4.089
 5172SOL    HW217356   1.636   6.424   3.991
 5173SOL     OW17357  11.316  14.205   4.370
 5173SOL    HW117358  11.241  14.259   4.346
 5173SOL    HW217359  11.280  14.136   4.426
 5174SOL     OW17360   2.601   8.707  11.107
 5174SOL    HW117361   2.543   8.644  11.064
 5174SOL    HW217362   2.689   8.676  11.086
 5175SOL     OW17363  12.819  11.248  14.318
 5175SOL    HW117364  12.748  11.205  14.269
 5175SOL    HW217365  12.887  11.181  14.325
 5176SOL     OW17366   2.601   5.558   8.860
 5176SOL    HW117367   2.637   5.616   8.927
 5176SOL    HW217368   2.557   5.489   8.910
 5177SOL     OW17369  14.245   5.900  10.798
 5177SOL    HW117370  14.272   5.860  10.715
 5177SOL    HW217371  14.323   5.945  10.830
 5178SOL     OW17372   0.496  13.307  13.648
 5178SOL    HW117373   0.506  13.278  13.739
 5178SOL    HW217374   0.557  13.252  13.599
 5179SOL     OW17375   2.716   4.174  13.191
 5179SOL    HW117376   2.749   4.105  13.248
 5179SOL    HW217377   2.766   4.252  13.217
 5180SOL     OW17378   1.950  10.174   0.549
 5180SOL    HW117379   1.858  10.148   0.556
 5180SOL    HW217380   1.998  10.094   0.569
 5181SOL     OW17381  11.367   5.844   4.570
 5181SOL    HW117382  11.292   5.789   4.595
 5181SOL    HW217383  11.423   5.786   4.518
 5182SOL     OW17384   7.926  12.599   7.459
 5182SOL    HW117385   7.873  12.568   7.385
 5182SOL    HW217386   8.016  12.599   7.425
 5183SOL     OW17387  11.073  12.176   2.085
 5183SOL    HW117388  11.115  12.222   2.158
 5183SOL    HW217389  11.146  12.155   2.026
 5184SOL     OW17390   8.494  11.946  14.004
 5184SOL    HW117391   8.492  11.902  13.919
 5184SOL    HW217392   8.407  11.985  14.012
 5185SOL     OW17393   2.759   1.427   1.297
 5185SOL    HW117394   2.747   1.515   1.331
 5185SOL    HW217395   2.843   1.430   1.251
 5186SOL     OW17396   8.038  14.026   0.943
 5186SOL    HW117397   8.076  13.942   0.916
 5186SOL    HW217398   7.990  14.006   1.023
 5187SOL     OW17399   5.567   4.849   0.902
 5187SOL    HW117400   5.532   4.934   0.929
 5187SOL    HW217401   5.492   4.801   0.867
 5188SOL     OW17402   2.224  13.555   6.186
 5188SOL    HW117403   2.140  13.531   6.149
 5188SOL    HW217404   2.231  13.503   6.267
 5189SOL     OW17405  13.498   3.818   2.662
 5189SOL    HW117406  13.452   3.898   2.690
 5189SOL    HW217407  13.434   3.748   2.674
 5190SOL     OW17408   5.345   6.551  10.142
 5190SOL    HW117409   5.287   6.622  10.114
 5190SOL    HW217410   5.289   6.473  10.139
 5191SOL     OW17411  14.453   7.467   8.437
 5191SOL    HW117412  14.392   7.400   8.468
 5191SOL    HW217413  14.453   7.457   8.342
 5192SOL     OW17414   5.685   7.311   2.545
 5192SOL    HW117415   5.714   7.329   2.455
 5192SOL    HW217416   5.766   7.302   2.595
 5193SOL     OW17417   8.535  14.474   2.716
 5193SOL    HW117418   8.563  14.476   2.624
 5193SOL    HW217419   8.599  14.528   2.762
 5194SOL     OW17420   3.097   0.884   2.252
 5194SOL    HW117421   3.125   0.794   2.265
 5194SOL    HW217422   3.008   0.888   2.288
 5195SOL     OW17423  11.894  13.824  13.925
 5195SOL    HW117424  11.805  13.807  13.896
 5195SOL    HW217425  11.936  13.868  13.851
 5196SOL     OW17426  12.800   0.098   1.226
 5196SOL    HW117427  12.769   0.173   1.278
 5196SOL    HW217428  12.890   0.120   1.203
 5197SOL     OW17429   5.527   4.623   7.866
 5197SOL    HW117430   5.583   4.663   7.932
 5197SOL    HW217431   5.588   4.596   7.797
 5198SOL     OW17432   3.729   0.499   6.536
 5198SOL    HW117433   3.646   0.493   6.583
 5198SOL    HW217434   3.704   0.494   6.443
 5199SOL     OW17435   9.968  11.282   3.131
 5199SOL    HW117436   9.978  11.340   3.055
 5199SOL    HW217437   9.909  11.213   3.101
 5200SOL     OW17438   4.589   1.798   3.754
 5200SOL    HW117439   4.559   1.871   3.701
 5200SOL    HW217440   4.683   1.791   3.735
 5201SOL     OW17441   2.043  14.494  11.404
 5201SOL    HW117442   2.110  14.450  11.352
 5201SOL    HW217443   1.990  14.423  11.440
 5202SOL     OW17444   0.188  10.704   0.047
 5202SOL    HW117445   0.105  10.723   0.003
 5202SOL    HW217446   0.225  10.631  14.877
 5203SOL     OW17447   5.108  10.487   1.636
 5203SOL    HW117448   5.151  10.548   1.577
 5203SOL    HW217449   5.174  10.420   1.654
 5204SOL     OW17450   3.545   0.049   6.274
 5204SOL    HW117451   3.590  14.869   6.334
 5204SOL    HW217452   3.607   0.120   6.258
 5205SOL     OW17453   8.643   2.256   6.712
 5205SOL    HW117454   8.658   2.227   6.802
 5205SOL    HW217455   8.689   2.191   6.658
 5206SOL     OW17456   5.208   1.768   0.009
 5206SOL    HW117457   5.252   1.851   0.026
 5206SOL    HW217458   5.115   1.787   0.023
 5207SOL     OW17459   3.379   2.099  10.788
 5207SOL    HW117460   3.299   2.146  10.766
 5207SOL    HW217461   3.351   2.008  10.799
 5208SOL     OW17462  10.236  10.119   2.325
 5208SOL    HW117463  10.173  10.092   2.392
 5208SOL    HW217464  10.297  10.176   2.371
 5209SOL     OW17465   3.335   1.109   8.606
 5209SOL    HW117466   3.333   1.193   8.559
 5209SOL    HW217467   3.407   1.119   8.668
 5210SOL     OW17468   4.478  13.210  11.840
 5210SOL    HW117469   4.514  13.136  11.791
 5210SOL    HW217470   4.383  13.197  11.837
 5211SOL     OW17471   6.810   5.621  11.878
 5211SOL    HW117472   6.879   5.561  11.905
 5211SOL    HW217473   6.808   5.687  11.947
 5212SOL     OW17474   7.201   8.438   2.376
 5212SOL    HW117475   7.213   8.419   2.283
 5212SOL    HW217476   7.147   8.365   2.409
 5213SOL     OW17477   3.644   3.718   3.884
 5213SOL    HW117478   3.632   3.629   3.850
 5213SOL    HW217479   3.556   3.749   3.903
 5214SOL     OW17480   9.572   1.920  14.821
 5214SOL    HW117481   9.553   2.009  14.793
 5214SOL    HW217482   9.668   1.915  14.821
 5215SOL     OW17483  11.086  13.600   3.703
 5215SOL    HW117484  11.079  13.510   3.733
 5215SOL    HW217485  11.053  13.652   3.776
 5216SOL     OW17486   1.353   4.040  10.699
 5216SOL    HW117487   1.324   4.092  10.773
 5216SOL    HW217488   1.449   4.044  10.703
 5217SOL     OW17489   6.052   0.930   3.060
 5217SOL    HW117490   6.012   0.843   3.055
 5217SOL    HW217491   6.001   0.983   2.998
 5218SOL     OW17492   6.260  10.010   3.347
 5218SOL    HW117493   6.239  10.062   3.270
 5218SOL    HW217494   6.193   9.942   3.350
 5219SOL     OW17495   3.520   6.304   9.831
 5219SOL    HW117496   3.511   6.303   9.735
 5219SOL    HW217497   3.466   6.231   9.860
 5220SOL     OW17498  13.164   8.819  11.807
 5220SOL    HW117499  13.185   8.907  11.775
 5220SOL    HW217500  13.243   8.790  11.851
 5221SOL     OW17501   0.787  13.379  13.841
 5221SOL    HW117502   0.853  13.310  13.851
 5221SOL    HW217503   0.824  13.438  13.776
 5222SOL     OW17504   8.136   6.950  10.309
 5222SOL    HW117505   8.174   6.905  10.234
 5222SOL    HW217506   8.190   6.924  10.383
 5223SOL     OW17507   3.847   1.144   2.503
 5223SOL    HW117508   3.860   1.199   2.426
 5223SOL    HW217509   3.812   1.062   2.468
 5224SOL     OW17510   9.508   5.923   7.986
 5224SOL    HW117511   9.557   5.998   7.951
 5224SOL    HW217512   9.552   5.903   8.069
 5225SOL     OW17513   7.823  10.564   3.882
 5225SOL    HW117514   7.781  10.550   3.967
 5225SOL    HW217515   7.905  10.514   3.887
 5226SOL     OW17516   7.074   4.710  11.994
 5226SOL    HW117517   7.042   4.620  11.983
 5226SOL    HW217518   7.043   4.735  12.082
 5227SOL     OW17519  12.572  13.389   5.698
 5227SOL    HW117520  12.511  13.425   5.762
 5227SOL    HW217521  12.653  13.375   5.747
 5228SOL     OW17522   8.147  11.856  13.090
 5228SOL    HW117523   8.209  11.805  13.143
 5228SOL    HW217524   8.176  11.947  13.099
 5229SOL     OW17525   9.059   2.327   0.644
 5229SOL    HW117526   9.125   2.301   0.580
 5229SOL    HW217527   8.987   2.265   0.631
 5230SOL     OW17528   7.357  10.996  14.427
 5230SOL    HW117529   7.340  11.010  14.521
 5230SOL    HW217530   7.408  10.916  14.424
 5231SOL     OW17531  10.364   3.223  14.253
 5231SOL    HW117532  10.274   3.190  14.246
 5231SOL    HW217533  10.359   3.291  14.321
 5232SOL     OW17534   6.511  13.373   5.302
 5232SOL    HW117535   6.470  13.376   5.216
 5232SOL    HW217536   6.446  13.332   5.359
 5233SOL     OW17537   8.959  11.220   1.209
 5233SOL    HW117538   8.946  11.223   1.304
 5233SOL    HW217539   8.939  11.129   1.186
 5234SOL     OW17540   0.106   4.200  11.738
 5234SOL    HW117541   0.188   4.151  11.737
 5234SOL    HW217542   0.071   4.186  11.826
 5235SOL     OW17543   9.860   8.257   6.034
 5235SOL    HW117544   9.919   8.297   5.971
 5235SOL    HW217545   9.912   8.247   6.114
 5236SOL     OW17546   2.319   8.730  10.469
 5236SOL    HW117547   2.360   8.646  10.448
 5236SOL    HW217548   2.357   8.755  10.553
 5237SOL     OW17549  10.020   0.628   9.005
 5237SOL    HW117550  10.101   0.677   9.021
 5237SOL    HW217551   9.965   0.688   8.955
 5238SOL     OW17552  13.047   0.708   5.674
 5238SOL    HW117553  13.120   0.724   5.614
 5238SOL    HW217554  12.970   0.741   5.628
 5239SOL     OW17555  11.649   1.111  11.936
 5239SOL    HW117556  11.604   1.039  11.893
 5239SOL    HW217557  11.583   1.181  11.942
 5240SOL     OW17558   2.575  12.739  12.240
 5240SOL    HW117559   2.635  12.726  12.313
 5240SOL    HW217560   2.538  12.652  12.223
 5241SOL     OW17561   0.847   3.639   1.619
 5241SOL    HW117562   0.869   3.683   1.701
 5241SOL    HW217563   0.752   3.653   1.609
 5242SOL     OW17564   0.075   9.075   3.931
 5242SOL    HW117565   0.033   8.996   3.965
 5242SOL    HW217566   0.147   9.042   3.877
 5243SOL     OW17567  11.523  10.030   7.833
 5243SOL    HW117568  11.591  10.093   7.858
 5243SOL    HW217569  11.568   9.969   7.774
 5244SOL     OW17570   4.169   0.939   5.168
 5244SOL    HW117571   4.132   0.875   5.228
 5244SOL    HW217572   4.145   0.907   5.081
 5245SOL     OW17573  11.737  10.830   1.436
 5245SOL    HW117574  11.691  10.820   1.352
 5245SOL    HW217575  11.825  10.859   1.412
 5246SOL     OW17576  14.333   0.403  13.720
 5246SOL    HW117577  14.412   0.377  13.672
 5246SOL    HW217578  14.351   0.493  13.748
 5247SOL     OW17579  10.234   5.030   4.679
 5247SOL    HW117580  10.293   5.031   4.754
 5247SOL    HW217581  10.190   5.115   4.682
 5248SOL     OW17582  13.231  12.029  14.217
 5248SOL    HW117583  13.252  12.045  14.125
 5248SOL    HW217584  13.234  12.116  14.258
 5249SOL     OW17585   1.571   0.359   7.467
 5249SOL    HW117586   1.545   0.444   7.431
 5249SOL    HW217587   1.535   0.295   7.406
 5250SOL     OW17588   4.844  12.079   9.514
 5250SOL    HW117589   4.779  12.140   9.479
 5250SOL    HW217590   4.928  12.117   9.490
 5251SOL     OW17591  11.877   1.861   3.257
 5251SOL    HW117592  11.813   1.888   3.323
 5251SOL    HW217593  11.897   1.770   3.278
 5252SOL     OW17594   9.347   7.024  13.242
 5252SOL    HW117595   9.350   6.951  13.303
 5252SOL    HW217596   9.337   7.102  13.297
 5253SOL     OW17597   5.961  10.265   0.902
 5253SOL    HW117598   6.001  10.273   0.815
 5253SOL    HW217599   5.886  10.325   0.899
 5254SOL     OW17600   5.274   2.946   4.100
 5254SOL    HW117601   5.291   2.935   4.007
 5254SOL    HW217602   5.252   2.858   4.131
 5255SOL     OW17603   3.668   3.285  10.767
 5255SOL    HW117604   3.597   3.245  10.717
 5255SOL    HW217605   3.635   3.370  10.793
 5256SOL     OW17606   6.830   0.181  11.463
 5256SOL    HW117607   6.826   0.256  11.522
 5256SOL    HW217608   6.738   0.164  11.440
 5257SOL     OW17609  14.354   3.914   5.544
 5257SOL    HW117610  14.437   3.872   5.567
 5257SOL    HW217611  14.293   3.888   5.612
 5258SOL     OW17612   4.447   9.855  11.196
 5258SOL    HW117613   4.378   9.864  11.262
 5258SOL    HW217614   4.527   9.842  11.246
 5259SOL     OW17615   0.702  12.285  10.857
 5259SOL    HW117616   0.616  12.244  10.852
 5259SOL    HW217617   0.761  12.224  10.813
 5260SOL     OW17618  12.545   1.979   6.421
 5260SOL    HW117619  12.481   1.909   6.413
 5260SOL    HW217620  12.592   1.978   6.338
 5261SOL     OW17621   3.130   2.593  12.513
 5261SOL    HW117622   3.040   2.580  12.542
 5261SOL    HW217623   3.165   2.504  12.505
 5262SOL     OW17624   8.435   5.842  13.256
 5262SOL    HW117625   8.487   5.922  13.253
 5262SOL    HW217626   8.425   5.824  13.350
 5263SOL     OW17627  10.831  14.254  11.258
 5263SOL    HW117628  10.891  14.192  11.215
 5263SOL    HW217629  10.873  14.339  11.248
 5264SOL     OW17630  12.974   0.200   6.136
 5264SOL    HW117631  12.982   0.224   6.044
 5264SOL    HW217632  12.939   0.111   6.135
 5265SOL     OW17633   2.043  12.591   9.777
 5265SOL    HW117634   2.114  12.547   9.823
 5265SOL    HW217635   2.004  12.649   9.843
 5266SOL     OW17636   0.882   8.085   6.149
 5266SOL    HW117637   0.877   8.106   6.243
 5266SOL    HW217638   0.963   8.034   6.140
 5267SOL     OW17639   3.205   8.290  10.651
 5267SOL    HW117640   3.286   8.289  10.702
 5267SOL    HW217641   3.184   8.198  10.637
 5268SOL     OW17642  10.226   3.118  10.424
 5268SOL    HW117643  10.269   3.191  10.467
 5268SOL    HW217644  10.223   3.049  10.491
 5269SOL     OW17645   0.006   2.758   6.815
 5269SOL    HW117646   0.041   2.844   6.838
 5269SOL    HW217647   0.059   2.696   6.864
 5270SOL     OW17648   4.127   7.940   4.420
 5270SOL    HW117649   4.158   7.910   4.505
 5270SOL    HW217650   4.033   7.955   4.432
 5271SOL     OW17651   6.710   8.568   4.737
 5271SOL    HW117652   6.783   8.608   4.785
 5271SOL    HW217653   6.631   8.601   4.781
 5272SOL     OW17654   1.285   3.321   7.521
 5272SOL    HW117655   1.290   3.364   7.436
 5272SOL    HW217656   1.222   3.250   7.509
 5273SOL     OW17657   7.412   3.845   5.035
 5273SOL    HW117658   7.446   3.863   5.122
 5273SOL    HW217659   7.480   3.793   4.992
 5274SOL     OW17660   2.828   4.043   4.396
 5274SOL    HW117661   2.891   4.095   4.446
 5274SOL    HW217662   2.779   4.107   4.344
 5275SOL     OW17663   3.360   6.823   4.936
 5275SOL    HW117664   3.430   6.851   4.877
 5275SOL    HW217665   3.373   6.875   5.015
 5276SOL     OW17666   7.046   0.441  14.511
 5276SOL    HW117667   7.111   0.436  14.581
 5276SOL    HW217668   7.083   0.390  14.439
 5277SOL     OW17669  14.038   6.463  14.053
 5277SOL    HW117670  14.120   6.477  14.101
 5277SOL    HW217671  14.065   6.435  13.966
 5278SOL     OW17672   9.987  14.601   2.870
 5278SOL    HW117673  10.077  14.573   2.855
 5278SOL    HW217674   9.969  14.577   2.961
 5279SOL     OW17675   8.772  13.146   1.267
 5279SOL    HW117676   8.761  13.158   1.361
 5279SOL    HW217677   8.741  13.228   1.229
 5280SOL     OW17678   9.527   4.145   1.589
 5280SOL    HW117679   9.490   4.146   1.501
 5280SOL    HW217680   9.476   4.210   1.638
 5281SOL     OW17681   1.458   4.605   8.506
 5281SOL    HW117682   1.479   4.521   8.547
 5281SOL    HW217683   1.363   4.602   8.493
 5282SOL     OW17684  11.436   5.025  14.359
 5282SOL    HW117685  11.365   4.961  14.368
 5282SOL    HW217686  11.470   5.036  14.447
 5283SOL     OW17687   9.508  14.802   4.796
 5283SOL    HW117688   9.591  14.832   4.834
 5283SOL    HW217689   9.531  14.725   4.744
 5284SOL     OW17690   7.266   3.766  10.494
 5284SOL    HW117691   7.258   3.672  10.477
 5284SOL    HW217692   7.189   3.805  10.454
 5285SOL     OW17693   2.181   4.180   5.826
 5285SOL    HW117694   2.214   4.091   5.838
 5285SOL    HW217695   2.218   4.229   5.899
 5286SOL     OW17696   1.999   5.929   2.846
 5286SOL    HW117697   2.040   5.999   2.795
 5286SOL    HW217698   1.950   5.974   2.914
 5287SOL     OW17699  13.444   9.035   8.036
 5287SOL    HW117700  13.475   8.949   8.007
 5287SOL    HW217701  13.400   9.018   8.119
 5288SOL     OW17702   9.203  11.082  13.116
 5288SOL    HW117703   9.202  10.987  13.113
 5288SOL    HW217704   9.115  11.108  13.089
 5289SOL     OW17705  12.237  14.611   9.723
 5289SOL    HW117706  12.202  14.628   9.635
 5289SOL    HW217707  12.180  14.543   9.759
 5290SOL     OW17708   8.697   5.770   7.035
 5290SOL    HW117709   8.782   5.727   7.025
 5290SOL    HW217710   8.692   5.832   6.962
 5291SOL     OW17711  13.603   4.759  14.871
 5291SOL    HW117712  13.687   4.797  14.843
 5291SOL    HW217713  13.628   4.675   0.031
 5292SOL     OW17714   2.098   1.485  11.527
 5292SOL    HW117715   2.046   1.565  11.519
 5292SOL    HW217716   2.151   1.483  11.447
 5293SOL     OW17717   4.745   1.978  10.891
 5293SOL    HW117718   4.758   1.939  10.977
 5293SOL    HW217719   4.694   1.913  10.842
 5294SOL     OW17720   4.739  14.339   4.897
 5294SOL    HW117721   4.784  14.316   4.816
 5294SOL    HW217722   4.761  14.267   4.957
 5295SOL     OW17723  13.742   6.941   7.711
 5295SOL    HW117724  13.783   6.897   7.785
 5295SOL    HW217725  13.781   6.899   7.634
 5296SOL     OW17726  13.027   2.624   2.135
 5296SOL    HW117727  12.955   2.670   2.178
 5296SOL    HW217728  13.027   2.537   2.175
 5297SOL     OW17729   3.713  13.840   8.943
 5297SOL    HW117730   3.634  13.791   8.967
 5297SOL    HW217731   3.785  13.780   8.963
 5298SOL     OW17732   8.536   6.868   5.643
 5298SOL    HW117733   8.506   6.959   5.646
 5298SOL    HW217734   8.614   6.867   5.698
 5299SOL     OW17735   9.582   4.947   5.905
 5299SOL    HW117736   9.604   5.039   5.920
 5299SOL    HW217737   9.546   4.916   5.988
 5300SOL     OW17738   3.707   9.507   7.572
 5300SOL    HW117739   3.781   9.568   7.568
 5300SOL    HW217740   3.631   9.563   7.591
 5301SOL     OW17741   1.574  10.657  11.241
 5301SOL    HW117742   1.632  10.709  11.296
 5301SOL    HW217743   1.631  10.592  11.200
 5302SOL     OW17744  10.196   2.285  13.412
 5302SOL    HW117745  10.255   2.353  13.444
 5302SOL    HW217746  10.244   2.245  13.339
 5303SOL     OW17747  14.658   0.994   8.824
 5303SOL    HW117748  14.593   0.945   8.874
 5303SOL    HW217749  14.702   0.929   8.770
 5304SOL     OW17750   5.550   0.190   8.713
 5304SOL    HW117751   5.518   0.278   8.692
 5304SOL    HW217752   5.559   0.147   8.628
 5305SOL     OW17753  11.000   1.980  10.318
 5305SOL    HW117754  10.915   1.936  10.310
 5305SOL    HW217755  11.047   1.929  10.384
 5306SOL     OW17756   6.341   4.264  14.149
 5306SOL    HW117757   6.394   4.344  14.153
 5306SOL    HW217758   6.374   4.209  14.219
 5307SOL     OW17759   6.597  13.763  11.281
 5307SOL    HW117760   6.594  13.703  11.356
 5307SOL    HW217761   6.674  13.736  11.231
 5308SOL     OW17762   5.439   3.781  10.093
 5308SOL    HW117763   5.454   3.699  10.047
 5308SOL    HW217764   5.460   3.849  10.029
 5309SOL     OW17765   4.691   9.521   6.498
 5309SOL    HW117766   4.728   9.609   6.509
 5309SOL    HW217767   4.672   9.492   6.587
 5310SOL     OW17768   9.064  12.604  10.961
 5310SOL    HW117769   9.131  12.615  10.894
 5310SOL    HW217770   9.091  12.664  11.031
 5311SOL     OW17771   9.031   9.815  11.376
 5311SOL    HW117772   9.110   9.812  11.430
 5311SOL    HW217773   9.012   9.723  11.355
 5312SOL     OW17774   8.151   6.344   7.567
 5312SOL    HW117775   8.125   6.253   7.555
 5312SOL    HW217776   8.103   6.392   7.499
 5313SOL     OW17777   2.632   8.780  10.369
 5313SOL    HW117778   2.676   8.857  10.333
 5313SOL    HW217779   2.554   8.816  10.412
 5314SOL     OW17780   0.921   3.267   0.445
 5314SOL    HW117781   0.963   3.329   0.385
 5314SOL    HW217782   0.836   3.306   0.464
 5315SOL     OW17783   5.565   0.845  14.432
 5315SOL    HW117784   5.519   0.857  14.515
 5315SOL    HW217785   5.643   0.899  14.440
 5316SOL     OW17786   9.590   1.085   8.634
 5316SOL    HW117787   9.542   1.003   8.648
 5316SOL    HW217788   9.534   1.152   8.673
 5317SOL     OW17789   9.663   4.513  13.139
 5317SOL    HW117790   9.734   4.463  13.099
 5317SOL    HW217791   9.707   4.577  13.195
 5318SOL     OW17792   3.106   9.904  13.416
 5318SOL    HW117793   3.128   9.837  13.481
 5318SOL    HW217794   3.170   9.890  13.345
 5319SOL     OW17795   0.999   4.105   2.606
 5319SOL    HW117796   0.944   4.080   2.680
 5319SOL    HW217797   0.937   4.136   2.540
 5320SOL     OW17798   0.219  10.881   8.748
 5320SOL    HW117799   0.219  10.847   8.658
 5320SOL    HW217800   0.206  10.803   8.802
 5321SOL     OW17801   4.212   8.795   0.932
 5321SOL    HW117802   4.271   8.742   0.880
 5321SOL    HW217803   4.125   8.759   0.915
 5322SOL     OW17804  12.186   3.068   0.555
 5322SOL    HW117805  12.224   3.041   0.471
 5322SOL    HW217806  12.213   3.159   0.565
 5323SOL     OW17807  13.785   0.255  13.767
 5323SOL    HW117808  13.782   0.163  13.796
 5323SOL    HW217809  13.877   0.280  13.776
 5324SOL     OW17810   2.673   4.242   0.430
 5324SOL    HW117811   2.664   4.333   0.401
 5324SOL    HW217812   2.589   4.202   0.409
 5325SOL     OW17813   8.074   9.120  10.891
 5325SOL    HW117814   8.140   9.056  10.919
 5325SOL    HW217815   8.011   9.068  10.841
 5326SOL     OW17816   5.536   8.244   3.389
 5326SOL    HW117817   5.470   8.226   3.456
 5326SOL    HW217818   5.580   8.161   3.375
 5327SOL     OW17819   6.717  14.381   4.205
 5327SOL    HW117820   6.737  14.331   4.126
 5327SOL    HW217821   6.693  14.468   4.172
 5328SOL     OW17822  13.098   6.788   7.469
 5328SOL    HW117823  13.031   6.776   7.402
 5328SOL    HW217824  13.089   6.879   7.495
 5329SOL     OW17825  12.090   7.798   7.401
 5329SOL    HW117826  12.093   7.868   7.466
 5329SOL    HW217827  12.131   7.723   7.445
 5330SOL     OW17828   5.868   2.007   8.909
 5330SOL    HW117829   5.821   2.044   8.984
 5330SOL    HW217830   5.805   2.010   8.837
 5331SOL     OW17831   7.427   7.190  14.307
 5331SOL    HW117832   7.386   7.111  14.342
 5331SOL    HW217833   7.521   7.174  14.316
 5332SOL     OW17834  14.540  14.529   1.579
 5332SOL    HW117835  14.548  14.617   1.616
 5332SOL    HW217836  14.577  14.537   1.491
 5333SOL     OW17837  12.249  13.216   8.348
 5333SOL    HW117838  12.168  13.267   8.347
 5333SOL    HW217839  12.272  13.210   8.441
 5334SOL     OW17840   7.008  11.045   5.946
 5334SOL    HW117841   7.076  10.981   5.968
 5334SOL    HW217842   6.928  11.009   5.985
 5335SOL     OW17843   7.418   9.489   5.261
 5335SOL    HW117844   7.384   9.405   5.229
 5335SOL    HW217845   7.370   9.505   5.342
 5336SOL     OW17846  11.839   4.715   8.093
 5336SOL    HW117847  11.873   4.632   8.126
 5336SOL    HW217848  11.860   4.715   8.000
 5337SOL     OW17849   8.472   2.398   8.393
 5337SOL    HW117850   8.388   2.437   8.417
 5337SOL    HW217851   8.494   2.341   8.466
 5338SOL     OW17852  13.928   7.601   2.845
 5338SOL    HW117853  13.923   7.558   2.759
 5338SOL    HW217854  14.020   7.597   2.869
 5339SOL     OW17855   6.814   4.046  13.433
 5339SOL    HW117856   6.718   4.050  13.431
 5339SOL    HW217857   6.841   4.107  13.364
 5340SOL     OW17858   0.985   4.080   6.569
 5340SOL    HW117859   1.055   4.146   6.574
 5340SOL    HW217860   0.989   4.048   6.479
 5341SOL     OW17861   5.703   8.692  12.567
 5341SOL    HW117862   5.640   8.695  12.495
 5341SOL    HW217863   5.724   8.599  12.576
 5342SOL     OW17864   7.178   3.624   4.314
 5342SOL    HW117865   7.160   3.667   4.230
 5342SOL    HW217866   7.272   3.635   4.326
 5343SOL     OW17867  10.840  10.489  12.961
 5343SOL    HW117868  10.927  10.459  12.988
 5343SOL    HW217869  10.786  10.410  12.963
 5344SOL     OW17870   7.923   0.414  13.441
 5344SOL    HW117871   7.933   0.504  13.409
 5344SOL    HW217872   7.835   0.411  13.477
 5345SOL     OW17873   9.629  14.702   3.207
 5345SOL    HW117874   9.535  14.702   3.188
 5345SOL    HW217875   9.658  14.789   3.182
 5346SOL     OW17876  14.430   3.355  12.480
 5346SOL    HW117877  14.394   3.290  12.540
 5346SOL    HW217878  14.352   3.393  12.438
 5347SOL     OW17879   7.934   8.269  11.728
 5347SOL    HW117880   7.984   8.271  11.810
 5347SOL    HW217881   7.940   8.178  11.699
 5348SOL     OW17882   8.173   0.585   6.461
 5348SOL    HW117883   8.168   0.671   6.421
 5348SOL    HW217884   8.188   0.602   6.554
 5349SOL     OW17885   9.843  14.088   4.251
 5349SOL    HW117886   9.838  14.070   4.345
 5349SOL    HW217887   9.764  14.139   4.232
 5350SOL     OW17888   1.874  13.725  12.543
 5350SOL    HW117889   1.905  13.636  12.559
 5350SOL    HW217890   1.850  13.759  12.629
 5351SOL     OW17891  13.899  13.026   1.834
 5351SOL    HW117892  13.907  12.962   1.764
 5351SOL    HW217893  13.937  12.983   1.911
 5352SOL     OW17894   6.831   4.805   6.229
 5352SOL    HW117895   6.832   4.892   6.190
 5352SOL    HW217896   6.750   4.765   6.197
 5353SOL     OW17897  13.585  10.180   8.810
 5353SOL    HW117898  13.567  10.168   8.717
 5353SOL    HW217899  13.500  10.198   8.849
 5354SOL     OW17900   6.246   1.349   2.433
 5354SOL    HW117901   6.155   1.366   2.455
 5354SOL    HW217902   6.288   1.435   2.437
 5355SOL     OW17903   2.010   9.582   9.628
 5355SOL    HW117904   2.029   9.488   9.632
 5355SOL    HW217905   1.957   9.593   9.549
 5356SOL     OW17906   7.705  13.269   3.642
 5356SOL    HW117907   7.657  13.348   3.617
 5356SOL    HW217908   7.740  13.236   3.560
 5357SOL     OW17909  11.905   5.886   4.623
 5357SOL    HW117910  11.851   5.858   4.549
 5357SOL    HW217911  11.864   5.967   4.653
 5358SOL     OW17912  10.554  10.026  14.152
 5358SOL    HW117913  10.471  10.019  14.200
 5358SOL    HW217914  10.531  10.002  14.062
 5359SOL     OW17915  13.246  10.995  11.947
 5359SOL    HW117916  13.234  10.939  11.871
 5359SOL    HW217917  13.341  10.999  11.959
 5360SOL     OW17918  10.047   3.945   6.389
 5360SOL    HW117919  10.082   4.025   6.349
 5360SOL    HW217920  10.122   3.903   6.431
 5361SOL     OW17921   7.614   1.241  13.965
 5361SOL    HW117922   7.656   1.178  13.907
 5361SOL    HW217923   7.661   1.232  14.049
 5362SOL     OW17924  11.657   2.262   9.761
 5362SOL    HW117925  11.709   2.288   9.686
 5362SOL    HW217926  11.608   2.186   9.731
 5363SOL     OW17927  12.380  12.941  13.638
 5363SOL    HW117928  12.429  12.866  13.606
 5363SOL    HW217929  12.356  12.917  13.728
 5364SOL     OW17930   0.185   6.586   4.401
 5364SOL    HW117931   0.139   6.570   4.319
 5364SOL    HW217932   0.252   6.518   4.405
 5365SOL     OW17933   4.318  14.827   6.224
 5365SOL    HW117934   4.252  14.796   6.162
 5365SOL    HW217935   4.317  14.763   6.294
 5366SOL     OW17936   1.026  12.418   5.027
 5366SOL    HW117937   1.022  12.503   5.071
 5366SOL    HW217938   1.118  12.392   5.033
 5367SOL     OW17939   9.966  13.921  13.533
 5367SOL    HW117940   9.913  13.855  13.489
 5367SOL    HW217941  10.032  13.872  13.582
 5368SOL     OW17942  14.390   0.219   5.647
 5368SOL    HW117943  14.405   0.220   5.741
 5368SOL    HW217944  14.468   0.259   5.609
 5369SOL     OW17945   1.715  12.527   6.015
 5369SOL    HW117946   1.634  12.568   6.043
 5369SOL    HW217947   1.749  12.584   5.947
 5370SOL     OW17948   6.008   2.035  10.018
 5370SOL    HW117949   6.067   1.972   9.977
 5370SOL    HW217950   6.043   2.121   9.993
 5371SOL     OW17951  11.944   1.350  11.847
 5371SOL    HW117952  11.972   1.292  11.918
 5371SOL    HW217953  11.908   1.292  11.781
 5372SOL     OW17954  13.404   0.320  13.856
 5372SOL    HW117955  13.383   0.335  13.764
 5372SOL    HW217956  13.358   0.390  13.903
 5373SOL     OW17957  14.853   9.512   4.097
 5373SOL    HW117958  14.773   9.563   4.109
 5373SOL    HW217959   0.034   9.571   4.052
 5374SOL     OW17960   0.592   4.014   2.668
 5374SOL    HW117961   0.549   3.971   2.594
 5374SOL    HW217962   0.539   3.991   2.744
 5375SOL     OW17963   2.046  10.066   7.026
 5375SOL    HW117964   1.993  10.030   6.956
 5375SOL    HW217965   2.062  10.157   7.001
 5376SOL     OW17966   7.732   4.957   3.056
 5376SOL    HW117967   7.654   4.958   3.111
 5376SOL    HW217968   7.718   4.882   2.997
 5377SOL     OW17969   3.302  12.635  12.739
 5377SOL    HW117970   3.374  12.661  12.798
 5377SOL    HW217971   3.333  12.555  12.698
 5378SOL     OW17972  13.104   4.451  13.699
 5378SOL    HW117973  13.035   4.483  13.640
 5378SOL    HW217974  13.112   4.358  13.678
 5379SOL     OW17975   8.442   6.377  14.701
 5379SOL    HW117976   8.479   6.291  14.719
 5379SOL    HW217977   8.458   6.391  14.608
 5380SOL     OW17978  12.472   9.913   1.629
 5380SOL    HW117979  12.457   9.989   1.685
 5380SOL    HW217980  12.509   9.951   1.548
 5381SOL     OW17981   9.459   1.403  11.520
 5381SOL    HW117982   9.369   1.397  11.552
 5381SOL    HW217983   9.468   1.493  11.489
 5382SOL     OW17984   9.205   9.408   0.855
 5382SOL    HW117985   9.160   9.447   0.931
 5382SOL    HW217986   9.188   9.314   0.863
 5383SOL     OW17987  12.623   7.422  10.503
 5383SOL    HW117988  12.610   7.425  10.408
 5383SOL    HW217989  12.535   7.414  10.539
 5384SOL     OW17990   8.857   1.787  11.357
 5384SOL    HW117991   8.800   1.716  11.384
 5384SOL    HW217992   8.942   1.766  11.396
 5385SOL     OW17993   8.002   0.104   8.004
 5385SOL    HW117994   7.989   0.198   7.987
 5385SOL    HW217995   7.984   0.094   8.097
 5386SOL     OW17996  11.025  11.231   4.340
 5386SOL    HW117997  10.943  11.225   4.389
 5386SOL    HW217998  11.085  11.173   4.387
 5387SOL     OW17999   2.215  12.234   8.666
 5387SOL    HW118000   2.166  12.196   8.738
 5387SOL    HW218001   2.148  12.262   8.603
 5388SOL     OW18002   3.097   1.891   9.919
 5388SOL    HW118003   3.015   1.903   9.870
 5388SOL    HW218004   3.164   1.883   9.851
 5389SOL     OW18005  14.134  14.539   4.043
 5389SOL    HW118006  14.062  14.602   4.054
 5389SOL    HW218007  14.162  14.550   3.952
 5390SOL     OW18008   7.289  13.014   4.858
 5390SOL    HW118009   7.204  13.035   4.895
 5390SOL    HW218010   7.295  12.919   4.864
 5391SOL     OW18011  12.383   8.197  10.839
 5391SOL    HW118012  12.316   8.246  10.887
 5391SOL    HW218013  12.458   8.194  10.899
 5392SOL     OW18014   8.897   7.322  11.881
 5392SOL    HW118015   8.824   7.349  11.825
 5392SOL    HW218016   8.975   7.360  11.840
 5393SOL     OW18017  10.863   7.816  14.784
 5393SOL    HW118018  10.839   7.825  14.692
 5393SOL    HW218019  10.897   7.727  14.791
 5394SOL     OW18020   0.519   4.916   1.365
 5394SOL    HW118021   0.545   4.868   1.444
 5394SOL    HW218022   0.450   4.976   1.395
 5395SOL     OW18023   1.252  13.750   5.171
 5395SOL    HW118024   1.222  13.765   5.082
 5395SOL    HW218025   1.197  13.806   5.225
 5396SOL     OW18026   4.203  13.844   8.247
 5396SOL    HW118027   4.149  13.766   8.237
 5396SOL    HW218028   4.165  13.908   8.186
 5397SOL     OW18029  11.555  10.932   6.015
 5397SOL    HW118030  11.500  10.987   6.071
 5397SOL    HW218031  11.508  10.848   6.012
 5398SOL     OW18032   5.012  10.016   8.501
 5398SOL    HW118033   4.977   9.979   8.582
 5398SOL    HW218034   4.968   9.968   8.431
 5399SOL     OW18035   0.621   5.848  11.893
 5399SOL    HW118036   0.626   5.788  11.967
 5399SOL    HW218037   0.678   5.921  11.917
 5400SOL     OW18038   4.811   9.887  10.762
 5400SOL    HW118039   4.828   9.798  10.731
 5400SOL    HW218040   4.755   9.875  10.839
 5401SOL     OW18041   2.480   8.441  14.476
 5401SOL    HW118042   2.559   8.481  14.439
 5401SOL    HW218043   2.503   8.420  14.566
 5402SOL     OW18044   0.962  11.775  12.550
 5402SOL    HW118045   0.877  11.818  12.542
 5402SOL    HW218046   0.958  11.701  12.489
 5403SOL     OW18047  14.293   8.261  12.015
 5403SOL    HW118048  14.298   8.285  12.108
 5403SOL    HW218049  14.242   8.180  12.014
 5404SOL     OW18050   0.563   1.432   6.274
 5404SOL    HW118051   0.489   1.417   6.333
 5404SOL    HW218052   0.592   1.345   6.249
 5405SOL     OW18053  11.258  11.374   4.879
 5405SOL    HW118054  11.306  11.336   4.953
 5405SOL    HW218055  11.217  11.453   4.916
 5406SOL     OW18056   0.960   2.826   3.736
 5406SOL    HW118057   0.999   2.744   3.765
 5406SOL    HW218058   0.888   2.841   3.798
 5407SOL     OW18059   7.335   1.135   1.108
 5407SOL    HW118060   7.349   1.210   1.049
 5407SOL    HW218061   7.290   1.172   1.184
 5408SOL     OW18062  13.351  10.114   8.309
 5408SOL    HW118063  13.381  10.089   8.222
 5408SOL    HW218064  13.259  10.086   8.313
 5409SOL     OW18065   6.012   4.377  11.711
 5409SOL    HW118066   6.040   4.442  11.776
 5409SOL    HW218067   5.943   4.328  11.754
 5410SOL     OW18068   7.806   4.502  11.697
 5410SOL    HW118069   7.775   4.443  11.766
 5410SOL    HW218070   7.901   4.496  11.701
 5411SOL     OW18071   9.262   1.032   0.483
 5411SOL    HW118072   9.350   1.056   0.511
 5411SOL    HW218073   9.276   0.981   0.403
 5412SOL     OW18074   2.282   6.606  12.264
 5412SOL    HW118075   2.238   6.690  12.255
 5412SOL    HW218076   2.219   6.542  12.231
 5413SOL     OW18077   5.316   4.826   6.482
 5413SOL    HW118078   5.409   4.831   6.505
 5413SOL    HW218079   5.313   4.851   6.390
 5414SOL     OW18080   4.979  12.071   7.710
 5414SOL    HW118081   5.051  12.018   7.676
 5414SOL    HW218082   4.987  12.155   7.664
 5415SOL     OW18083   7.645   1.641   9.250
 5415SOL    HW118084   7.598   1.612   9.171
 5415SOL    HW218085   7.666   1.560   9.296
 5416SOL     OW18086   1.802   9.911   2.411
 5416SOL    HW118087   1.897   9.927   2.411
 5416SOL    HW218088   1.789   9.852   2.486
 5417SOL     OW18089  13.130   2.782  10.512
 5417SOL    HW118090  13.088   2.732  10.442
 5417SOL    HW218091  13.138   2.720  10.584
 5418SOL     OW18092  11.210   7.043   5.482
 5418SOL    HW118093  11.121   7.072   5.502
 5418SOL    HW218094  11.199   6.960   5.436
 5419SOL     OW18095   6.577   9.610  12.082
 5419SOL    HW118096   6.643   9.667  12.044
 5419SOL    HW218097   6.590   9.526  12.039
 5420SOL     OW18098  10.851   7.556   6.995
 5420SOL    HW118099  10.823   7.593   6.911
 5420SOL    HW218100  10.801   7.604   7.061
 5421SOL     OW18101   6.907   7.123   2.214
 5421SOL    HW118102   6.995   7.091   2.237
 5421SOL    HW218103   6.869   7.150   2.297
 5422SOL     OW18104   7.267  13.833  10.670
 5422SOL    HW118105   7.210  13.811  10.743
 5422SOL    HW218106   7.347  13.783  10.685
 5423SOL     OW18107   4.837   1.841   9.799
 5423SOL    HW118108   4.749   1.815   9.772
 5423SOL    HW218109   4.895   1.778   9.755
 5424SOL     OW18110   6.740  13.831   7.577
 5424SOL    HW118111   6.795  13.767   7.534
 5424SOL    HW218112   6.671  13.779   7.618
 5425SOL     OW18113   2.742   8.793  10.766
 5425SOL    HW118114   2.764   8.802  10.673
 5425SOL    HW218115   2.811   8.736  10.801
 5426SOL     OW18116   8.754  14.858   3.611
 5426SOL    HW118117   8.813  14.799   3.658
 5426SOL    HW218118   8.693   0.009   3.678
 5427SOL     OW18119   1.456   1.255  10.641
 5427SOL    HW118120   1.429   1.209  10.720
 5427SOL    HW218121   1.540   1.214  10.617
 5428SOL     OW18122   0.561  12.243   2.831
 5428SOL    HW118123   0.569  12.152   2.804
 5428SOL    HW218124   0.471  12.267   2.806
 5429SOL     OW18125   3.966  12.182   9.418
 5429SOL    HW118126   3.923  12.137   9.345
 5429SOL    HW218127   4.003  12.111   9.471
 5430SOL     OW18128  10.288  14.788   1.409
 5430SOL    HW118129  10.327  14.866   1.370
 5430SOL    HW218130  10.277  14.728   1.336
 5431SOL     OW18131   5.008   1.688   2.732
 5431SOL    HW118132   5.069   1.622   2.699
 5431SOL    HW218133   4.946   1.640   2.786
 5432SOL     OW18134   5.928   5.292   4.678
 5432SOL    HW118135   5.925   5.387   4.690
 5432SOL    HW218136   5.987   5.279   4.604
 5433SOL     OW18137  12.158  11.186   2.588
 5433SOL    HW118138  12.165  11.118   2.522
 5433SOL    HW218139  12.123  11.141   2.665
 5434SOL     OW18140   9.471   1.983  14.400
 5434SOL    HW118141   9.394   2.001  14.454
 5434SOL    HW218142   9.489   2.066  14.356
 5435SOL     OW18143   9.373  13.998   9.801
 5435SOL    HW118144   9.430  14.018   9.875
 5435SOL    HW218145   9.309  13.936   9.836
 5436SOL     OW18146  12.956  10.575   1.920
 5436SOL    HW118147  12.949  10.574   2.016
 5436SOL    HW218148  12.876  10.532   1.889
 5437SOL     OW18149  12.082   4.559   1.162
 5437SOL    HW118150  12.039   4.547   1.077
 5437SOL    HW218151  12.012   4.587   1.221
 5438SOL     OW18152  10.598  13.687   2.636
 5438SOL    HW118153  10.681  13.700   2.591
 5438SOL    HW218154  10.583  13.770   2.683
 5439SOL     OW18155   5.591  10.222  14.711
 5439SOL    HW118156   5.530  10.284  14.750
 5439SOL    HW218157   5.534  10.160  14.664
 5440SOL     OW18158  10.148   9.759   5.870
 5440SOL    HW118159  10.063   9.797   5.847
 5440SOL    HW218160  10.143   9.669   5.838
 5441SOL     OW18161  13.774   3.004  12.767
 5441SOL    HW118162  13.690   2.996  12.811
 5441SOL    HW218163  13.772   3.091  12.726
 5442SOL     OW18164   4.629  11.623   7.367
 5442SOL    HW118165   4.539  11.650   7.349
 5442SOL    HW218166   4.669  11.699   7.408
 5443SOL     OW18167  14.720   1.624  10.973
 5443SOL    HW118168  14.657   1.663  11.033
 5443SOL    HW218169  14.684   1.537  10.955
 5444SOL     OW18170  11.149  12.802  13.277
 5444SOL    HW118171  11.196  12.823  13.358
 5444SOL    HW218172  11.108  12.885  13.250
 5445SOL     OW18173   6.293   1.772  14.528
 5445SOL    HW118174   6.229   1.836  14.557
 5445SOL    HW218175   6.242   1.702  14.489
 5446SOL     OW18176   1.582   1.450   5.402
 5446SOL    HW118177   1.577   1.358   5.431
 5446SOL    HW218178   1.501   1.464   5.353
 5447SOL     OW18179  11.586   7.398   7.324
 5447SOL    HW118180  11.575   7.453   7.401
 5447SOL    HW218181  11.535   7.441   7.256
 5448SOL     OW18182   8.276   2.943  11.200
 5448SOL    HW118183   8.307   2.853  11.189
 5448SOL    HW218184   8.186   2.941  11.168
 5449SOL     OW18185   9.068  10.185   5.499
 5449SOL    HW118186   9.090  10.223   5.584
 5449SOL    HW218187   9.030  10.100   5.520
 5450SOL     OW18188   0.923  13.725   0.799
 5450SOL    HW118189   0.907  13.745   0.891
 5450SOL    HW218190   0.837  13.731   0.758
 5451SOL     OW18191  10.626   4.583   9.303
 5451SOL    HW118192  10.672   4.637   9.367
 5451SOL    HW218193  10.581   4.517   9.356
 5452SOL     OW18194   9.435   8.144  11.121
 5452SOL    HW118195   9.522   8.115  11.094
 5452SOL    HW218196   9.452   8.213  11.185
 5453SOL     OW18197   3.834   5.877   4.463
 5453SOL    HW118198   3.772   5.816   4.424
 5453SOL    HW218199   3.914   5.867   4.411
 5454SOL     OW18200  11.732   0.059  12.357
 5454SOL    HW118201  11.680   0.135  12.382
 5454SOL    HW218202  11.761   0.021  12.440
 5455SOL     OW18203  12.767   5.870   8.752
 5455SOL    HW118204  12.683   5.908   8.779
 5455SOL    HW218205  12.831   5.907   8.813
 5456SOL     OW18206   9.251   0.181   3.328
 5456SOL    HW118207   9.216   0.108   3.380
 5456SOL    HW218208   9.231   0.157   3.238
 5457SOL     OW18209   5.329   3.383   6.216
 5457SOL    HW118210   5.295   3.469   6.241
 5457SOL    HW218211   5.298   3.371   6.126
 5458SOL     OW18212  12.141   7.294   5.498
 5458SOL    HW118213  12.207   7.232   5.466
 5458SOL    HW218214  12.158   7.375   5.449
 5459SOL     OW18215  11.461   4.921  14.648
 5459SOL    HW118216  11.431   4.833  14.627
 5459SOL    HW218217  11.539   4.934  14.594
 5460SOL     OW18218   1.254   0.445   3.079
 5460SOL    HW118219   1.216   0.479   3.159
 5460SOL    HW218220   1.203   0.366   3.060
 5461SOL     OW18221   8.263   3.167   3.827
 5461SOL    HW118222   8.234   3.130   3.744
 5461SOL    HW218223   8.323   3.237   3.803
 5462SOL     OW18224   3.214  14.391   9.757
 5462SOL    HW118225   3.302  14.406   9.721
 5462SOL    HW218226   3.230  14.350   9.842
 5463SOL     OW18227   3.465  10.831   5.452
 5463SOL    HW118228   3.464  10.919   5.489
 5463SOL    HW218229   3.417  10.839   5.369
 5464SOL     OW18230   6.615   8.984  11.303
 5464SOL    HW118231   6.601   9.063  11.355
 5464SOL    HW218232   6.588   9.009  11.214
 5465SOL     OW18233   9.016   7.070  11.849
 5465SOL    HW118234   8.984   7.075  11.758
 5465SOL    HW218235   8.994   7.155  11.886
 5466SOL     OW18236   0.544   5.299   5.027
 5466SOL    HW118237   0.614   5.267   5.086
 5466SOL    HW218238   0.463   5.282   5.076
 5467SOL     OW18239  14.165  12.916   5.443
 5467SOL    HW118240  14.184  12.864   5.521
 5467SOL    HW218241  14.174  13.007   5.472
 5468SOL     OW18242   8.005   2.947   9.745
 5468SOL    HW118243   7.946   2.975   9.675
 5468SOL    HW218244   7.977   2.858   9.766
 5469SOL     OW18245  11.094   1.845  13.681
 5469SOL    HW118246  11.099   1.778  13.613
 5469SOL    HW218247  11.121   1.926  13.636
 5470SOL     OW18248   1.487   8.510   0.410
 5470SOL    HW118249   1.433   8.557   0.347
 5470SOL    HW218250   1.574   8.507   0.369
 5471SOL     OW18251   2.062   4.634   5.346
 5471SOL    HW118252   2.102   4.604   5.264
 5471SOL    HW218253   2.134   4.677   5.393
 5472SOL     OW18254   3.366   8.152   1.085
 5472SOL    HW118255   3.401   8.098   1.155
 5472SOL    HW218256   3.443   8.190   1.043
 5473SOL     OW18257   4.641   6.474   1.535
 5473SOL    HW118258   4.711   6.426   1.491
 5473SOL    HW218259   4.569   6.476   1.472
 5474SOL     OW18260   6.454  14.722   0.275
 5474SOL    HW118261   6.547  14.706   0.291
 5474SOL    HW218262   6.413  14.715   0.361
 5475SOL     OW18263  12.373   2.034  14.329
 5475SOL    HW118264  12.358   1.958  14.386
 5475SOL    HW218265  12.344   2.109  14.381
 5476SOL     OW18266  10.655  14.427   7.131
 5476SOL    HW118267  10.675  14.416   7.224
 5476SOL    HW218268  10.736  14.403   7.085
 5477SOL     OW18269   2.249   1.618   6.087
 5477SOL    HW118270   2.288   1.595   6.171
 5477SOL    HW218271   2.155   1.627   6.106
 5478SOL     OW18272   1.247  12.817  11.819
 5478SOL    HW118273   1.201  12.820  11.903
 5478SOL    HW218274   1.303  12.894  11.820
 5479SOL     OW18275   7.795   6.026   1.777
 5479SOL    HW118276   7.700   6.036   1.779
 5479SOL    HW218277   7.819   6.044   1.686
 5480SOL     OW18278  10.921  14.861  12.360
 5480SOL    HW118279  10.828  14.848  12.346
 5480SOL    HW218280  10.964  14.795  12.306
 5481SOL     OW18281  13.635   0.679   2.773
 5481SOL    HW118282  13.591   0.644   2.851
 5481SOL    HW218283  13.618   0.773   2.776
 5482SOL     OW18284   0.078  11.815  14.178
 5482SOL    HW118285   0.086  11.822  14.273
 5482SOL    HW218286  14.870  11.848  14.159
 5483SOL     OW18287   9.062   8.695  14.045
 5483SOL    HW118288   9.045   8.685  13.952
 5483SOL    HW218289   9.146   8.740  14.050
 5484SOL     OW18290  14.044   3.650   2.924
 5484SOL    HW118291  14.080   3.685   3.005
 5484SOL    HW218292  13.949   3.658   2.934
 5485SOL     OW18293   4.500   1.777  14.193
 5485SOL    HW118294   4.425   1.758  14.137
 5485SOL    HW218295   4.527   1.866  14.170
 5486SOL     OW18296   2.469  11.544   7.381
 5486SOL    HW118297   2.475  11.455   7.416
 5486SOL    HW218298   2.539  11.592   7.424
 5487SOL     OW18299   8.726   9.073   9.363
 5487SOL    HW118300   8.781   9.085   9.285
 5487SOL    HW218301   8.716   8.978   9.371
 5488SOL     OW18302   5.145   9.352  14.864
 5488SOL    HW118303   5.139   9.258  14.877
 5488SOL    HW218304   5.238   9.372  14.874
 5489SOL     OW18305  12.306  13.477   2.025
 5489SOL    HW118306  12.219  13.438   2.035
 5489SOL    HW218307  12.321  13.523   2.107
 5490SOL     OW18308  11.753   7.899   9.600
 5490SOL    HW118309  11.749   7.887   9.695
 5490SOL    HW218310  11.814   7.832   9.570
 5491SOL     OW18311   3.726   1.781   3.058
 5491SOL    HW118312   3.744   1.713   3.123
 5491SOL    HW218313   3.811   1.824   3.045
 5492SOL     OW18314   3.152   2.807   7.572
 5492SOL    HW118315   3.192   2.883   7.530
 5492SOL    HW218316   3.221   2.741   7.574
 5493SOL     OW18317   5.435  14.319   0.914
 5493SOL    HW118318   5.366  14.294   0.851
 5493SOL    HW218319   5.465  14.404   0.883
 5494SOL     OW18320   3.109  13.932  11.553
 5494SOL    HW118321   3.046  13.861  11.561
 5494SOL    HW218322   3.165  13.923  11.631
 5495SOL     OW18323   4.570   4.132   7.972
 5495SOL    HW118324   4.491   4.171   8.010
 5495SOL    HW218325   4.641   4.189   8.001
 5496SOL     OW18326  12.658   3.882  10.788
 5496SOL    HW118327  12.644   3.964  10.740
 5496SOL    HW218328  12.582   3.828  10.767
 5497SOL     OW18329  12.765   4.471   4.885
 5497SOL    HW118330  12.836   4.525   4.919
 5497SOL    HW218331  12.767   4.486   4.790
 5498SOL     OW18332   8.469   1.293   3.457
 5498SOL    HW118333   8.450   1.338   3.539
 5498SOL    HW218334   8.396   1.315   3.399
 5499SOL     OW18335   8.314   1.767   4.697
 5499SOL    HW118336   8.291   1.725   4.613
 5499SOL    HW218337   8.399   1.808   4.681
 5500SOL     OW18338   4.574   6.344   3.115
 5500SOL    HW118339   4.606   6.278   3.175
 5500SOL    HW218340   4.530   6.294   3.046
 5501SOL     OW18341   8.536  11.640   5.753
 5501SOL    HW118342   8.583  11.557   5.751
 5501SOL    HW218343   8.498  11.645   5.841
 5502SOL     OW18344   6.883  12.978  12.846
 5502SOL    HW118345   6.844  13.065  12.847
 5502SOL    HW218346   6.852  12.936  12.927
 5503SOL     OW18347   7.718  11.252  13.242
 5503SOL    HW118348   7.714  11.340  13.203
 5503SOL    HW218349   7.717  11.268  13.336
 5504SOL     OW18350   8.231  14.001  11.663
 5504SOL    HW118351   8.194  13.932  11.718
 5504SOL    HW218352   8.296  14.044  11.719
 5505SOL     OW18353  12.348  12.742  11.480
 5505SOL    HW118354  12.348  12.681  11.555
 5505SOL    HW218355  12.279  12.709  11.422
 5506SOL     OW18356   5.280  14.193   4.591
 5506SOL    HW118357   5.356  14.175   4.646
 5506SOL    HW218358   5.209  14.142   4.630
 5507SOL     OW18359  11.099   0.928   0.474
 5507SOL    HW118360  11.008   0.921   0.504
 5507SOL    HW218361  11.091   0.938   0.379
 5508SOL     OW18362  10.857  14.310   4.883
 5508SOL    HW118363  10.891  14.233   4.839
 5508SOL    HW218364  10.863  14.290   4.976
 5509SOL     OW18365   8.051   5.098   9.908
 5509SOL    HW118366   8.028   5.141   9.990
 5509SOL    HW218367   7.979   5.037   9.891
 5510SOL     OW18368   6.424   8.709  12.274
 5510SOL    HW118369   6.447   8.760  12.352
 5510SOL    HW218370   6.329   8.715  12.268
 5511SOL     OW18371   0.876   9.987   9.578
 5511SOL    HW118372   0.954  10.010   9.629
 5511SOL    HW218373   0.848  10.069   9.537
 5512SOL     OW18374   3.981   2.721  11.028
 5512SOL    HW118375   3.950   2.756  10.945
 5512SOL    HW218376   3.965   2.790  11.092
 5513SOL     OW18377  10.785   2.996   9.034
 5513SOL    HW118378  10.726   3.061   8.996
 5513SOL    HW218379  10.738   2.913   9.024
 5514SOL     OW18380   3.789  14.735   2.014
 5514SOL    HW118381   3.822  14.648   2.035
 5514SOL    HW218382   3.694  14.726   2.015
 5515SOL     OW18383   9.147  10.591  11.403
 5515SOL    HW118384   9.177  10.526  11.338
 5515SOL    HW218385   9.204  10.666  11.388
 5516SOL     OW18386   6.781  11.743   2.190
 5516SOL    HW118387   6.716  11.787   2.135
 5516SOL    HW218388   6.782  11.794   2.271
 5517SOL     OW18389   8.136   7.757   3.655
 5517SOL    HW118390   8.085   7.805   3.722
 5517SOL    HW218391   8.198   7.822   3.622
 5518SOL     OW18392   5.292  11.929   3.614
 5518SOL    HW118393   5.237  11.936   3.536
 5518SOL    HW218394   5.378  11.961   3.586
 5519SOL     OW18395   4.296   4.026  14.440
 5519SOL    HW118396   4.270   4.073  14.520
 5519SOL    HW218397   4.392   4.032  14.440
 5520SOL     OW18398  14.683   1.777   4.918
 5520SOL    HW118399  14.751   1.713   4.897
 5520SOL    HW218400  14.612   1.759   4.857
 5521SOL     OW18401  10.225   6.230   0.983
 5521SOL    HW118402  10.242   6.149   1.031
 5521SOL    HW218403  10.222   6.297   1.050
 5522SOL     OW18404   0.422   8.284   5.899
 5522SOL    HW118405   0.339   8.301   5.943
 5522SOL    HW218406   0.486   8.275   5.969
 5523SOL     OW18407  11.991  14.762  14.589
 5523SOL    HW118408  11.990  14.770  14.493
 5523SOL    HW218409  12.084  14.759  14.612
 5524SOL     OW18410  11.513   3.686   2.343
 5524SOL    HW118411  11.568   3.719   2.272
 5524SOL    HW218412  11.565   3.617   2.384
 5525SOL     OW18413  11.886   4.511   9.814
 5525SOL    HW118414  11.846   4.492   9.898
 5525SOL    HW218415  11.975   4.541   9.836
 5526SOL     OW18416   1.118   1.973   6.799
 5526SOL    HW118417   1.080   1.894   6.760
 5526SOL    HW218418   1.110   2.039   6.730
 5527SOL     OW18419   4.776  14.417   4.052
 5527SOL    HW118420   4.812  14.386   3.969
 5527SOL    HW218421   4.849  14.462   4.095
 5528SOL     OW18422   7.156   0.371   5.788
 5528SOL    HW118423   7.137   0.439   5.723
 5528SOL    HW218424   7.180   0.295   5.736
 5529SOL     OW18425   4.003   4.680  14.187
 5529SOL    HW118426   4.060   4.707  14.258
 5529SOL    HW218427   3.963   4.762  14.156
 5530SOL     OW18428   1.263  11.578  11.647
 5530SOL    HW118429   1.186  11.523  11.660
 5530SOL    HW218430   1.302  11.546  11.565
 5531SOL     OW18431  14.770   8.652   5.858
 5531SOL    HW118432  14.787   8.708   5.783
 5531SOL    HW218433  14.718   8.707   5.917
 5532SOL     OW18434   5.423   3.572   9.563
 5532SOL    HW118435   5.374   3.650   9.589
 5532SOL    HW218436   5.356   3.508   9.539
 5533SOL     OW18437  12.879   6.205   5.180
 5533SOL    HW118438  12.838   6.129   5.220
 5533SOL    HW218439  12.892   6.266   5.253
 5534SOL     OW18440  12.766  13.974   2.412
 5534SOL    HW118441  12.683  13.962   2.459
 5534SOL    HW218442  12.778  14.069   2.408
 5535SOL     OW18443   8.924   8.834   5.757
 5535SOL    HW118444   8.991   8.831   5.688
 5535SOL    HW218445   8.880   8.749   5.751
 5536SOL     OW18446   2.434   0.311  12.700
 5536SOL    HW118447   2.501   0.254  12.738
 5536SOL    HW218448   2.379   0.253  12.648
 5537SOL     OW18449   1.175   7.857   7.582
 5537SOL    HW118450   1.210   7.834   7.495
 5537SOL    HW218451   1.253   7.881   7.632
 5538SOL     OW18452   1.564   9.610  13.123
 5538SOL    HW118453   1.644   9.641  13.166
 5538SOL    HW218454   1.493   9.658  13.167
 5539SOL     OW18455   2.667   0.965   3.251
 5539SOL    HW118456   2.661   0.989   3.344
 5539SOL    HW218457   2.740   1.017   3.218
 5540SOL     OW18458  14.574   8.972   4.720
 5540SOL    HW118459  14.495   8.959   4.772
 5540SOL    HW218460  14.607   8.883   4.704
 5541SOL     OW18461   3.921   8.091  14.834
 5541SOL    HW118462   4.004   8.125  14.801
 5541SOL    HW218463   3.913   8.004  14.795
 5542SOL     OW18464   8.101   6.211  12.034
 5542SOL    HW118465   8.193   6.220  12.060
 5542SOL    HW218466   8.090   6.117  12.018
 5543SOL     OW18467   9.590  10.025   0.365
 5543SOL    HW118468   9.673  10.066   0.388
 5543SOL    HW218469   9.523  10.085   0.399
 5544SOL     OW18470   9.756   4.606   0.168
 5544SOL    HW118471   9.739   4.673   0.235
 5544SOL    HW218472   9.852   4.599   0.165
 5545SOL     OW18473  10.987   3.774   0.915
 5545SOL    HW118474  11.051   3.721   0.868
 5545SOL    HW218475  10.986   3.857   0.868
 5546SOL     OW18476   0.068  10.985   3.065
 5546SOL    HW118477   0.026  10.922   3.123
 5546SOL    HW218478   0.070  11.066   3.116
 5547SOL     OW18479   4.050   6.574   1.511
 5547SOL    HW118480   4.025   6.665   1.490
 5547SOL    HW218481   4.113   6.583   1.583
 5548SOL     OW18482  10.098   5.607  12.243
 5548SOL    HW118483  10.182   5.650  12.223
 5548SOL    HW218484  10.067   5.576  12.159
 5549SOL     OW18485  10.800  13.880   8.177
 5549SOL    HW118486  10.728  13.934   8.209
 5549SOL    HW218487  10.844  13.936   8.113
 5550SOL     OW18488   0.578   2.324   6.708
 5550SOL    HW118489   0.535   2.264   6.648
 5550SOL    HW218490   0.509   2.354   6.766
 5551SOL     OW18491   4.194   3.909  12.511
 5551SOL    HW118492   4.128   3.841  12.495
 5551SOL    HW218493   4.207   3.908  12.606
 5552SOL     OW18494   2.223   8.479  11.582
 5552SOL    HW118495   2.227   8.574  11.573
 5552SOL    HW218496   2.152   8.453  11.523
 5553SOL     OW18497  14.708  13.220   7.153
 5553SOL    HW118498  14.618  13.252   7.158
 5553SOL    HW218499  14.703  13.129   7.182
 5554SOL     OW18500   8.364   1.379   1.475
 5554SOL    HW118501   8.365   1.310   1.540
 5554SOL    HW218502   8.386   1.459   1.524
 5555SOL     OW18503   8.341  12.282  11.287
 5555SOL    HW118504   8.421  12.284  11.340
 5555SOL    HW218505   8.316  12.374  11.277
 5556SOL     OW18506   3.442   0.425   7.546
 5556SOL    HW118507   3.348   0.411   7.535
 5556SOL    HW218508   3.457   0.512   7.507
 5557SOL     OW18509   4.999  13.495   3.041
 5557SOL    HW118510   4.967  13.556   2.974
 5557SOL    HW218511   5.052  13.431   2.992
 5558SOL     OW18512   6.775   6.852  12.754
 5558SOL    HW118513   6.860   6.834  12.792
 5558SOL    HW218514   6.771   6.948  12.748
 5559SOL     OW18515  13.598  14.174   3.923
 5559SOL    HW118516  13.615  14.090   3.965
 5559SOL    HW218517  13.537  14.153   3.852
 5560SOL     OW18518   1.124   2.693   6.314
 5560SOL    HW118519   1.111   2.606   6.274
 5560SOL    HW218520   1.035   2.724   6.332
 5561SOL     OW18521   0.926  14.573   1.664
 5561SOL    HW118522   0.895  14.515   1.735
 5561SOL    HW218523   0.871  14.650   1.670
 5562SOL     OW18524   5.596   9.607  11.446
 5562SOL    HW118525   5.507   9.641  11.458
 5562SOL    HW218526   5.651   9.685  11.439
 5563SOL     OW18527   5.035   4.302   8.386
 5563SOL    HW118528   4.959   4.359   8.394
 5563SOL    HW218529   5.011   4.238   8.320
 5564SOL     OW18530   4.860  13.064  12.174
 5564SOL    HW118531   4.774  13.082  12.136
 5564SOL    HW218532   4.904  13.011  12.108
 5565SOL     OW18533   6.608  12.660  12.291
 5565SOL    HW118534   6.567  12.644  12.206
 5565SOL    HW218535   6.534  12.667  12.352
 5566SOL     OW18536  12.424   3.922  14.411
 5566SOL    HW118537  12.378   3.964  14.483
 5566SOL    HW218538  12.372   3.844  14.391
 5567SOL     OW18539   0.774   0.300  14.507
 5567SOL    HW118540   0.710   0.232  14.485
 5567SOL    HW218541   0.744   0.378  14.460
 5568SOL     OW18542   1.905   3.492   7.864
 5568SOL    HW118543   1.822   3.445   7.861
 5568SOL    HW218544   1.970   3.423   7.879
 5569SOL     OW18545  13.741  14.536   1.060
 5569SOL    HW118546  13.710  14.472   0.996
 5569SOL    HW218547  13.690  14.615   1.042
 5570SOL     OW18548   0.539   8.931  10.465
 5570SOL    HW118549   0.464   8.987  10.448
 5570SOL    HW218550   0.514   8.846  10.427
 5571SOL     OW18551   2.410  12.517  10.624
 5571SOL    HW118552   2.346  12.558  10.682
 5571SOL    HW218553   2.466  12.466  10.683
 5572SOL     OW18554   8.857  11.210   0.545
 5572SOL    HW118555   8.859  11.178   0.455
 5572SOL    HW218556   8.779  11.171   0.583
 5573SOL     OW18557   6.293   2.277   7.640
 5573SOL    HW118558   6.323   2.362   7.672
 5573SOL    HW218559   6.373   2.229   7.619
 5574SOL     OW18560   2.408  11.008  13.828
 5574SOL    HW118561   2.485  11.005  13.884
 5574SOL    HW218562   2.443  11.000  13.739
 5575SOL     OW18563  12.497   6.720  12.691
 5575SOL    HW118564  12.512   6.802  12.738
 5575SOL    HW218565  12.402   6.715  12.682
 5576SOL     OW18566   4.228  12.584  13.306
 5576SOL    HW118567   4.312  12.550  13.337
 5576SOL    HW218568   4.164  12.522  13.338
 5577SOL     OW18569   5.342   6.038   3.952
 5577SOL    HW118570   5.291   5.974   4.002
 5577SOL    HW218571   5.419   6.055   4.007
 5578SOL     OW18572  12.151   0.165   5.032
 5578SOL    HW118573  12.103   0.169   4.949
 5578SOL    HW218574  12.207   0.087   5.023
 5579SOL     OW18575   7.674   2.089   5.558
 5579SOL    HW118576   7.645   2.020   5.499
 5579SOL    HW218577   7.636   2.169   5.522
 5580SOL     OW18578   1.144   8.831  13.231
 5580SOL    HW118579   1.124   8.859  13.320
 5580SOL    HW218580   1.129   8.736  13.232
 5581SOL     OW18581   0.268  12.300   9.515
 5581SOL    HW118582   0.209  12.247   9.568
 5581SOL    HW218583   0.272  12.255   9.431
 5582SOL     OW18584   0.596  10.634   4.481
 5582SOL    HW118585   0.555  10.693   4.544
 5582SOL    HW218586   0.608  10.688   4.403
 5583SOL     OW18587  13.723   7.683   1.896
 5583SOL    HW118588  13.658   7.669   1.965
 5583SOL    HW218589  13.783   7.608   1.906
 5584SOL     OW18590  13.963   8.539   8.719
 5584SOL    HW118591  13.915   8.456   8.716
 5584SOL    HW218592  13.947   8.572   8.807
 5585SOL     OW18593   9.597   8.408   6.036
 5585SOL    HW118594   9.662   8.340   6.016
 5585SOL    HW218595   9.513   8.365   6.019
 5586SOL     OW18596  12.945  14.100  10.501
 5586SOL    HW118597  13.014  14.049  10.458
 5586SOL    HW218598  12.993  14.163  10.555
 5587SOL     OW18599   1.394  14.209  11.999
 5587SOL    HW118600   1.388  14.301  11.975
 5587SOL    HW218601   1.386  14.162  11.916
 5588SOL     OW18602  12.338   5.616   1.688
 5588SOL    HW118603  12.264   5.665   1.653
 5588SOL    HW218604  12.412   5.643   1.634
 5589SOL     OW18605   2.673   2.899   1.943
 5589SOL    HW118606   2.703   2.869   2.029
 5589SOL    HW218607   2.588   2.855   1.931
 5590SOL     OW18608   6.944   1.728   3.126
 5590SOL    HW118609   6.977   1.638   3.127
 5590SOL    HW218610   7.017   1.779   3.091
 5591SOL     OW18611  11.916  13.228  11.147
 5591SOL    HW118612  11.985  13.173  11.182
 5591SOL    HW218613  11.953  13.265  11.066
 5592SOL     OW18614   4.127   0.292   1.077
 5592SOL    HW118615   4.101   0.200   1.089
 5592SOL    HW218616   4.206   0.302   1.130
 5593SOL     OW18617   2.866  11.991   6.496
 5593SOL    HW118618   2.933  11.922   6.504
 5593SOL    HW218619   2.900  12.063   6.548
 5594SOL     OW18620   5.575   8.259  12.268
 5594SOL    HW118621   5.609   8.313  12.339
 5594SOL    HW218622   5.481   8.271  12.271
 5595SOL     OW18623   6.026   7.683   8.706
 5595SOL    HW118624   6.032   7.677   8.611
 5595SOL    HW218625   6.054   7.772   8.726
 5596SOL     OW18626   8.821   0.031   1.843
 5596SOL    HW118627   8.909   0.015   1.878
 5596SOL    HW218628   8.833   0.097   1.775
 5597SOL     OW18629   8.335   7.376  14.149
 5597SOL    HW118630   8.347   7.435  14.075
 5597SOL    HW218631   8.281   7.305  14.114
 5598SOL     OW18632   1.134  13.069   1.245
 5598SOL    HW118633   1.145  13.037   1.335
 5598SOL    HW218634   1.198  13.141   1.239
 5599SOL     OW18635   1.683  10.844   0.308
 5599SOL    HW118636   1.629  10.805   0.240
 5599SOL    HW218637   1.671  10.787   0.384
 5600SOL     OW18638   4.568   1.622  13.230
 5600SOL    HW118639   4.554   1.715  13.211
 5600SOL    HW218640   4.502   1.577  13.177
 5601SOL     OW18641   4.810  12.197  13.262
 5601SOL    HW118642   4.815  12.140  13.339
 5601SOL    HW218643   4.800  12.285  13.298
 5602SOL     OW18644   1.323  13.940   0.550
 5602SOL    HW118645   1.345  14.008   0.487
 5602SOL    HW218646   1.327  13.859   0.501
 5603SOL     OW18647   9.591   8.300  13.506
 5603SOL    HW118648   9.619   8.228  13.448
 5603SOL    HW218649   9.540   8.256  13.574
 5604SOL     OW18650  10.128  12.540   0.031
 5604SOL    HW118651  10.093  12.626   0.007
 5604SOL    HW218652  10.063  12.503   0.091
 5605SOL     OW18653  11.119   1.620   9.158
 5605SOL    HW118654  11.182   1.650   9.223
 5605SOL    HW218655  11.128   1.682   9.085
 5606SOL     OW18656   8.939   6.037  12.587
 5606SOL    HW118657   8.909   5.947  12.577
 5606SOL    HW218658   9.033   6.029  12.604
 5607SOL     OW18659   5.122   1.434   7.243
 5607SOL    HW118660   5.133   1.380   7.321
 5607SOL    HW218661   5.050   1.493   7.264
 5608SOL     OW18662  11.793   8.954   2.871
 5608SOL    HW118663  11.748   8.875   2.840
 5608SOL    HW218664  11.741   8.983   2.946
 5609SOL     OW18665   5.264   7.684   3.368
 5609SOL    HW118666   5.280   7.606   3.314
 5609SOL    HW218667   5.259   7.650   3.457
 5610SOL     OW18668   6.804   2.981   4.363
 5610SOL    HW118669   6.828   2.920   4.432
 5610SOL    HW218670   6.882   3.036   4.352
 5611SOL     OW18671   1.140  13.706   1.802
 5611SOL    HW118672   1.230  13.737   1.801
 5611SOL    HW218673   1.090  13.773   1.755
 5612SOL     OW18674   7.924   3.928  11.933
 5612SOL    HW118675   7.928   3.964  11.844
 5612SOL    HW218676   7.866   3.988  11.980
 5613SOL     OW18677  11.411  11.901   9.853
 5613SOL    HW118678  11.359  11.980   9.841
 5613SOL    HW218679  11.500  11.933   9.871
 5614SOL     OW18680  12.253  12.891   6.759
 5614SOL    HW118681  12.237  12.798   6.772
 5614SOL    HW218682  12.235  12.932   6.844
 5615SOL     OW18683  14.083   5.346   0.337
 5615SOL    HW118684  14.142   5.386   0.273
 5615SOL    HW218685  14.123   5.365   0.422
 5616SOL     OW18686   2.902   4.470  13.208
 5616SOL    HW118687   2.861   4.450  13.292
 5616SOL    HW218688   2.928   4.562  13.215
 5617SOL     OW18689   4.744  14.004   8.884
 5617SOL    HW118690   4.666  13.963   8.848
 5617SOL    HW218691   4.729  14.007   8.979
 5618SOL     OW18692   4.980  10.409  14.207
 5618SOL    HW118693   4.996  10.323  14.169
 5618SOL    HW218694   4.903  10.442  14.160
 5619SOL     OW18695  13.979   8.329   5.420
 5619SOL    HW118696  13.957   8.262   5.355
 5619SOL    HW218697  13.895   8.359   5.454
 5620SOL     OW18698   3.744   4.620   2.525
 5620SOL    HW118699   3.798   4.658   2.455
 5620SOL    HW218700   3.685   4.560   2.480
 5621SOL     OW18701  11.659   8.267   2.485
 5621SOL    HW118702  11.722   8.213   2.438
 5621SOL    HW218703  11.643   8.220   2.567
 5622SOL     OW18704   8.951   1.515  11.466
 5622SOL    HW118705   9.012   1.587  11.480
 5622SOL    HW218706   8.971   1.483  11.378
 5623SOL     OW18707  14.849  12.772   5.922
 5623SOL    HW118708  14.833  12.716   5.998
 5623SOL    HW218709   0.062  12.757   5.900
 5624SOL     OW18710   2.558   6.651   8.265
 5624SOL    HW118711   2.559   6.687   8.353
 5624SOL    HW218712   2.524   6.722   8.210
 5625SOL     OW18713   5.774   1.554   6.976
 5625SOL    HW118714   5.696   1.596   7.013
 5625SOL    HW218715   5.825   1.527   7.053
 5626SOL     OW18716   6.192   9.179   3.792
 5626SOL    HW118717   6.283   9.153   3.778
 5626SOL    HW218718   6.185   9.195   3.886
 5627SOL     OW18719  14.725  13.690  13.155
 5627SOL    HW118720  14.680  13.607  13.142
 5627SOL    HW218721  14.681  13.730  13.231
 5628SOL     OW18722   4.609  14.330   1.881
 5628SOL    HW118723   4.531  14.283   1.851
 5628SOL    HW218724   4.682  14.286   1.837
 5629SOL     OW18725  14.554   6.375   7.215
 5629SOL    HW118726  14.608   6.298   7.235
 5629SOL    HW218727  14.540   6.417   7.300
 5630SOL     OW18728   9.123  10.986   5.939
 5630SOL    HW118729   9.190  10.965   6.004
 5630SOL    HW218730   9.120  11.081   5.936
 5631SOL     OW18731  11.189  14.003  10.834
 5631SOL    HW118732  11.227  13.919  10.810
 5631SOL    HW218733  11.096  13.995  10.812
 5632SOL     OW18734   8.154   7.345   3.260
 5632SOL    HW118735   8.221   7.290   3.219
 5632SOL    HW218736   8.171   7.337   3.354
 5633SOL     OW18737   3.798  11.621   3.885
 5633SOL    HW118738   3.757  11.539   3.912
 5633SOL    HW218739   3.891  11.600   3.878
 5634SOL     OW18740   6.452   2.863   8.874
 5634SOL    HW118741   6.423   2.900   8.957
 5634SOL    HW218742   6.466   2.939   8.817
 5635SOL     OW18743  11.255  12.604   9.318
 5635SOL    HW118744  11.350  12.604   9.307
 5635SOL    HW218745  11.236  12.686   9.365
 5636SOL     OW18746   7.279   9.181   0.623
 5636SOL    HW118747   7.333   9.212   0.696
 5636SOL    HW218748   7.295   9.087   0.620
 5637SOL     OW18749   0.987   7.091  10.530
 5637SOL    HW118750   0.964   7.178  10.497
 5637SOL    HW218751   0.903   7.050  10.552
 5638SOL     OW18752  12.199  11.575   5.526
 5638SOL    HW118753  12.137  11.647   5.530
 5638SOL    HW218754  12.245  11.578   5.610
 5639SOL     OW18755   6.884   1.961  11.106
 5639SOL    HW118756   6.974   1.942  11.081
 5639SOL    HW218757   6.836   1.881  11.086
 5640SOL     OW18758   3.310   7.680   2.525
 5640SOL    HW118759   3.303   7.585   2.529
 5640SOL    HW218760   3.359   7.704   2.604
 5641SOL     OW18761   5.982  12.928   4.334
 5641SOL    HW118762   5.912  12.893   4.279
 5641SOL    HW218763   5.967  13.022   4.335
 5642SOL     OW18764  14.570  10.207   8.423
 5642SOL    HW118765  14.492  10.158   8.451
 5642SOL    HW218766  14.633  10.194   8.493
 5643SOL     OW18767   9.851  10.494  12.613
 5643SOL    HW118768   9.874  10.544  12.691
 5643SOL    HW218769   9.784  10.433  12.643
 5644SOL     OW18770   8.676  11.507   9.648
 5644SOL    HW118771   8.623  11.439   9.605
 5644SOL    HW218772   8.752  11.517   9.591
 5645SOL     OW18773   4.108   6.201   3.325
 5645SOL    HW118774   4.032   6.259   3.327
 5645SOL    HW218775   4.137   6.203   3.234
 5646SOL     OW18776  10.071   5.722   0.517
 5646SOL    HW118777  10.018   5.654   0.558
 5646SOL    HW218778  10.133   5.748   0.584
 5647SOL     OW18779  10.327   4.250   5.307
 5647SOL    HW118780  10.352   4.325   5.361
 5647SOL    HW218781  10.299   4.288   5.224
 5648SOL     OW18782   5.566  11.792   6.035
 5648SOL    HW118783   5.508  11.868   6.044
 5648SOL    HW218784   5.522  11.737   5.970
 5649SOL     OW18785   6.827   7.631  12.329
 5649SOL    HW118786   6.875   7.714  12.330
 5649SOL    HW218787   6.895   7.564  12.329
 5650SOL     OW18788  13.690   9.038   8.933
 5650SOL    HW118789  13.777   9.066   8.963
 5650SOL    HW218790  13.629   9.095   8.979
 5651SOL     OW18791   0.197   2.263   2.305
 5651SOL    HW118792   0.140   2.262   2.382
 5651SOL    HW218793   0.217   2.356   2.292
 5652SOL     OW18794   0.681   5.893   2.895
 5652SOL    HW118795   0.729   5.930   2.821
 5652SOL    HW218796   0.743   5.896   2.968
 5653SOL     OW18797   6.032   8.888   5.226
 5653SOL    HW118798   6.100   8.844   5.277
 5653SOL    HW218799   5.958   8.897   5.286
 5654SOL     OW18800  12.905   3.889   0.152
 5654SOL    HW118801  12.994   3.858   0.171
 5654SOL    HW218802  12.848   3.818   0.180
 5655SOL     OW18803  12.646  13.475   6.717
 5655SOL    HW118804  12.699  13.462   6.638
 5655SOL    HW218805  12.708  13.465   6.789
 5656SOL     OW18806   6.718   1.280   6.506
 5656SOL    HW118807   6.805   1.260   6.473
 5656SOL    HW218808   6.686   1.196   6.540
 5657SOL     OW18809   1.900   7.450   3.078
 5657SOL    HW118810   1.935   7.374   3.125
 5657SOL    HW218811   1.845   7.413   3.010
 5658SOL     OW18812  10.186   6.091   8.888
 5658SOL    HW118813  10.232   6.172   8.909
 5658SOL    HW218814  10.256   6.028   8.870
 5659SOL     OW18815  14.596   5.241  14.850
 5659SOL    HW118816  14.689   5.261  14.838
 5659SOL    HW218817  14.581   5.255   0.065
 5660SOL     OW18818  11.347   5.038  10.432
 5660SOL    HW118819  11.330   5.128  10.405
 5660SOL    HW218820  11.432   5.017  10.394
 5661SOL     OW18821  12.376  11.390   4.878
 5661SOL    HW118822  12.330  11.474   4.887
 5661SOL    HW218823  12.342  11.352   4.798
 5662SOL     OW18824   5.649  13.177   0.356
 5662SOL    HW118825   5.603  13.144   0.279
 5662SOL    HW218826   5.735  13.203   0.324
 5663SOL     OW18827   8.163   2.832   1.576
 5663SOL    HW118828   8.120   2.804   1.657
 5663SOL    HW218829   8.247   2.786   1.577
 5664SOL     OW18830   3.668   4.359   2.110
 5664SOL    HW118831   3.574   4.342   2.117
 5664SOL    HW218832   3.675   4.449   2.080
 5665SOL     OW18833  13.515  14.033   9.333
 5665SOL    HW118834  13.528  14.041   9.427
 5665SOL    HW218835  13.438  13.976   9.324
 5666SOL     OW18836  12.401   7.896  12.836
 5666SOL    HW118837  12.329   7.834  12.819
 5666SOL    HW218838  12.364   7.957  12.900
 5667SOL     OW18839   1.590  10.919   5.754
 5667SOL    HW118840   1.552  11.005   5.769
 5667SOL    HW218841   1.589  10.909   5.659
 5668SOL     OW18842  12.381   3.713   8.483
 5668SOL    HW118843  12.465   3.690   8.522
 5668SOL    HW218844  12.403   3.736   8.393
 5669SOL     OW18845   1.299   4.836  14.378
 5669SOL    HW118846   1.353   4.911  14.403
 5669SOL    HW218847   1.222   4.874  14.335
 5670SOL     OW18848   3.555  13.272   7.555
 5670SOL    HW118849   3.523  13.333   7.489
 5670SOL    HW218850   3.523  13.306   7.638
 5671SOL     OW18851   3.781   0.838  12.166
 5671SOL    HW118852   3.867   0.880  12.165
 5671SOL    HW218853   3.724   0.901  12.122
 5672SOL     OW18854   9.159  10.634  10.741
 5672SOL    HW118855   9.194  10.677  10.663
 5672SOL    HW218856   9.162  10.541  10.720
 5673SOL     OW18857   3.771  10.056   9.560
 5673SOL    HW118858   3.834  10.127   9.551
 5673SOL    HW218859   3.824   9.976   9.558
 5674SOL     OW18860  13.628  11.456  13.700
 5674SOL    HW118861  13.639  11.550  13.687
 5674SOL    HW218862  13.566  11.449  13.772
 5675SOL     OW18863   7.137   8.640   1.684
 5675SOL    HW118864   7.156   8.568   1.623
 5675SOL    HW218865   7.075   8.694   1.636
 5676SOL     OW18866   5.983   3.017   7.552
 5676SOL    HW118867   5.900   3.030   7.598
 5676SOL    HW218868   5.997   3.099   7.505
 5677SOL     OW18869   8.660   8.277   3.256
 5677SOL    HW118870   8.644   8.370   3.238
 5677SOL    HW218871   8.744   8.259   3.214
 5678SOL     OW18872   1.872   7.500   5.396
 5678SOL    HW118873   1.782   7.468   5.398
 5678SOL    HW218874   1.914   7.459   5.471
 5679SOL     OW18875   2.336   6.192   3.228
 5679SOL    HW118876   2.315   6.269   3.281
 5679SOL    HW218877   2.362   6.229   3.143
 5680SOL     OW18878  12.950  12.685   4.246
 5680SOL    HW118879  12.935  12.591   4.256
 5680SOL    HW218880  12.889  12.711   4.176
 5681SOL     OW18881   5.569  12.622   1.017
 5681SOL    HW118882   5.516  12.700   1.002
 5681SOL    HW218883   5.544  12.562   0.947
 5682SOL     OW18884   9.642   5.141  13.961
 5682SOL    HW118885   9.637   5.111  14.052
 5682SOL    HW218886   9.691   5.072  13.916
 5683SOL     OW18887  11.899   7.336  12.763
 5683SOL    HW118888  11.989   7.370  12.770
 5683SOL    HW218889  11.906   7.245  12.790
 5684SOL     OW18890   6.848   1.777  10.267
 5684SOL    HW118891   6.838   1.734  10.352
 5684SOL    HW218892   6.826   1.709  10.203
 5685SOL     OW18893  10.391   7.441  11.043
 5685SOL    HW118894  10.373   7.347  11.041
 5685SOL    HW218895  10.306   7.482  11.025
 5686SOL     OW18896   8.373   5.599   0.596
 5686SOL    HW118897   8.389   5.506   0.583
 5686SOL    HW218898   8.454   5.642   0.571
 5687SOL     OW18899  11.001   0.983  13.513
 5687SOL    HW118900  11.083   0.958  13.470
 5687SOL    HW218901  11.028   1.008  13.601
 5688SOL     OW18902  10.670   0.160   6.269
 5688SOL    HW118903  10.652   0.101   6.196
 5688SOL    HW218904  10.765   0.161   6.276
 5689SOL     OW18905   8.572   4.383   9.951
 5689SOL    HW118906   8.539   4.339   9.873
 5689SOL    HW218907   8.657   4.418   9.925
 5690SOL     OW18908  14.116  11.899   5.140
 5690SOL    HW118909  14.144  11.985   5.173
 5690SOL    HW218910  14.078  11.856   5.217
 5691SOL     OW18911   3.393   2.953   1.577
 5691SOL    HW118912   3.443   3.034   1.586
 5691SOL    HW218913   3.437   2.891   1.636
 5692SOL     OW18914  14.159   5.305  11.357
 5692SOL    HW118915  14.201   5.357  11.288
 5692SOL    HW218916  14.110   5.238  11.310
 5693SOL     OW18917   1.354   3.645   6.951
 5693SOL    HW118918   1.357   3.702   6.875
 5693SOL    HW218919   1.428   3.674   7.005
 5694SOL     OW18920   9.987   9.145   7.467
 5694SOL    HW118921   9.899   9.182   7.466
 5694SOL    HW218922  10.031   9.184   7.391
 5695SOL     OW18923  13.435  12.277   5.464
 5695SOL    HW118924  13.355  12.233   5.437
 5695SOL    HW218925  13.444  12.256   5.557
 5696SOL     OW18926   9.019   8.420  10.141
 5696SOL    HW118927   9.013   8.416  10.046
 5696SOL    HW218928   9.071   8.344  10.166
 5697SOL     OW18929   3.412   1.604   6.868
 5697SOL    HW118930   3.433   1.630   6.958
 5697SOL    HW218931   3.497   1.595   6.825
 5698SOL     OW18932   4.800   9.308   8.805
 5698SOL    HW118933   4.865   9.322   8.873
 5698SOL    HW218934   4.810   9.383   8.746
 5699SOL     OW18935   6.589   3.575   6.508
 5699SOL    HW118936   6.673   3.618   6.520
 5699SOL    HW218937   6.541   3.632   6.447
 5700SOL     OW18938  13.417   1.118   2.138
 5700SOL    HW118939  13.427   1.132   2.043
 5700SOL    HW218940  13.432   1.204   2.177
 5701SOL     OW18941   8.726   6.612  14.629
 5701SOL    HW118942   8.797   6.676  14.619
 5701SOL    HW218943   8.769   6.531  14.655
 5702SOL     OW18944  13.408   6.682  12.385
 5702SOL    HW118945  13.406   6.587  12.376
 5702SOL    HW218946  13.500   6.702  12.405
 5703SOL     OW18947   3.079  11.879  12.380
 5703SOL    HW118948   2.999  11.871  12.328
 5703SOL    HW218949   3.149  11.892  12.316
 5704SOL     OW18950   9.867   1.536  12.627
 5704SOL    HW118951   9.802   1.477  12.588
 5704SOL    HW218952   9.835   1.551  12.716
 5705SOL     OW18953   9.350   3.290   7.660
 5705SOL    HW118954   9.370   3.336   7.578
 5705SOL    HW218955   9.303   3.211   7.633
 5706SOL     OW18956  14.104   7.482  13.230
 5706SOL    HW118957  14.026   7.537  13.222
 5706SOL    HW218958  14.130   7.465  13.140
 5707SOL     OW18959  14.775  13.283   1.764
 5707SOL    HW118960  14.804  13.197   1.733
 5707SOL    HW218961  14.832  13.302   1.838
 5708SOL     OW18962   9.454   1.266   8.768
 5708SOL    HW118963   9.466   1.354   8.805
 5708SOL    HW218964   9.364   1.243   8.792
 5709SOL     OW18965   9.811  14.778   7.458
 5709SOL    HW118966   9.850  14.694   7.433
 5709SOL    HW218967   9.760  14.804   7.382
 5710SOL     OW18968  11.677  13.342  12.020
 5710SOL    HW118969  11.705  13.286  11.948
 5710SOL    HW218970  11.619  13.287  12.073
 5711SOL     OW18971  10.002  10.977  14.792
 5711SOL    HW118972   9.942  11.029  14.844
 5711SOL    HW218973  10.086  10.986  14.836
 5712SOL     OW18974   1.162  13.877  10.135
 5712SOL    HW118975   1.184  13.903  10.046
 5712SOL    HW218976   1.102  13.803  10.124
 5713SOL     OW18977  13.202   7.265  14.343
 5713SOL    HW118978  13.177   7.223  14.426
 5713SOL    HW218979  13.236   7.193  14.290
 5714SOL     OW18980   4.936   1.377  12.286
 5714SOL    HW118981   4.987   1.402  12.209
 5714SOL    HW218982   4.968   1.434  12.356
 5715SOL     OW18983   2.920   6.580   3.067
 5715SOL    HW118984   2.863   6.527   3.123
 5715SOL    HW218985   2.983   6.619   3.127
 5716SOL     OW18986   9.529  11.271   8.795
 5716SOL    HW118987   9.520  11.327   8.872
 5716SOL    HW218988   9.620  11.281   8.768
 5717SOL     OW18989   4.615   5.304  11.169
 5717SOL    HW118990   4.696   5.286  11.218
 5717SOL    HW218991   4.645   5.318  11.079
 5718SOL     OW18992  11.485  11.295   2.218
 5718SOL    HW118993  11.467  11.213   2.263
 5718SOL    HW218994  11.580  11.306   2.225
 5719SOL     OW18995  13.928   9.974  12.109
 5719SOL    HW118996  13.932   9.885  12.142
 5719SOL    HW218997  13.941  10.029  12.186
 5720SOL     OW18998  13.519   5.251   2.574
 5720SOL    HW118999  13.512   5.332   2.524
 5720SOL    HW219000  13.536   5.280   2.664
 5721SOL     OW19001   2.606  12.890   0.196
 5721SOL    HW119002   2.700  12.902   0.206
 5721SOL    HW219003   2.568  12.949   0.261
 5722SOL     OW19004  10.646  10.125   1.441
 5722SOL    HW119005  10.551  10.123   1.436
 5722SOL    HW219006  10.675  10.069   1.368
 5723SOL     OW19007  14.748  13.570   8.089
 5723SOL    HW119008  14.680  13.598   8.150
 5723SOL    HW219009  14.754  13.641   8.025
 5724SOL     OW19010   8.488   5.104   8.588
 5724SOL    HW119011   8.546   5.102   8.665
 5724SOL    HW219012   8.447   5.191   8.591
 5725SOL     OW19013   1.298   7.733  13.577
 5725SOL    HW119014   1.224   7.674  13.580
 5725SOL    HW219015   1.312   7.749  13.483
 5726SOL     OW19016   9.754  10.286   2.326
 5726SOL    HW119017   9.778  10.260   2.237
 5726SOL    HW219018   9.760  10.381   2.326
 5727SOL     OW19019  13.662   6.533  12.245
 5727SOL    HW119020  13.656   6.570  12.156
 5727SOL    HW219021  13.586   6.474  12.251
 5728SOL     OW19022   7.671  14.375  14.444
 5728SOL    HW119023   7.730  14.333  14.506
 5728SOL    HW219024   7.714  14.364  14.359
 5729SOL     OW19025   1.855  12.403  11.197
 5729SOL    HW119026   1.815  12.319  11.174
 5729SOL    HW219027   1.947  12.393  11.173
 5730SOL     OW19028   8.641  10.399   5.427
 5730SOL    HW119029   8.731  10.396   5.394
 5730SOL    HW219030   8.649  10.434   5.516
 5731SOL     OW19031  10.125  11.216   4.754
 5731SOL    HW119032  10.157  11.127   4.769
 5731SOL    HW219033  10.030  11.208   4.751
 5732SOL     OW19034   0.212   1.911  12.706
 5732SOL    HW119035   0.251   1.994  12.678
 5732SOL    HW219036   0.145   1.937  12.770
 5733SOL     OW19037   8.784  13.481   7.117
 5733SOL    HW119038   8.878  13.475   7.132
 5733SOL    HW219039   8.745  13.481   7.205
 5734SOL     OW19040   9.289  13.051  14.301
 5734SOL    HW119041   9.215  12.995  14.327
 5734SOL    HW219042   9.311  13.023  14.213
 5735SOL     OW19043   9.979  10.694  14.715
 5735SOL    HW119044   9.999  10.783  14.742
 5735SOL    HW219045  10.057  10.643  14.737
 5736SOL     OW19046   1.657   4.336  14.471
 5736SOL    HW119047   1.658   4.244  14.444
 5736SOL    HW219048   1.575   4.371  14.435
 5737SOL     OW19049  10.675   6.740  10.044
 5737SOL    HW119050  10.636   6.706   9.963
 5737SOL    HW219051  10.747   6.680  10.063
 5738SOL     OW19052   1.022   7.715   4.677
 5738SOL    HW119053   1.011   7.785   4.742
 5738SOL    HW219054   1.036   7.762   4.594
 5739SOL     OW19055   3.002   4.485   6.216
 5739SOL    HW119056   2.980   4.522   6.301
 5739SOL    HW219057   2.934   4.420   6.199
 5740SOL     OW19058   6.618  12.124  10.518
 5740SOL    HW119059   6.591  12.189  10.583
 5740SOL    HW219060   6.644  12.176  10.442
 5741SOL     OW19061   0.020   6.987   7.284
 5741SOL    HW119062  14.862   6.899   7.288
 5741SOL    HW219063  14.828   7.044   7.314
 5742SOL     OW19064  12.890   7.410   4.349
 5742SOL    HW119065  12.815   7.449   4.395
 5742SOL    HW219066  12.939   7.364   4.417
 5743SOL     OW19067   6.732   6.221  12.611
 5743SOL    HW119068   6.661   6.170  12.651
 5743SOL    HW219069   6.688   6.274  12.545
 5744SOL     OW19070   3.594   3.369   0.742
 5744SOL    HW119071   3.558   3.374   0.653
 5744SOL    HW219072   3.554   3.290   0.779
 5745SOL     OW19073  10.379  13.533   1.182
 5745SOL    HW119074  10.390  13.442   1.211
 5745SOL    HW219075  10.293  13.534   1.140
 5746SOL     OW19076  12.936   1.276   8.585
 5746SOL    HW119077  12.956   1.190   8.549
 5746SOL    HW219078  12.892   1.323   8.514
 5747SOL     OW19079   8.691  11.655  13.139
 5747SOL    HW119080   8.677  11.689  13.227
 5747SOL    HW219081   8.632  11.581  13.132
 5748SOL     OW19082  10.749  14.862   5.109
 5748SOL    HW119083  10.670   0.015   5.150
 5748SOL    HW219084  10.730  14.862   5.015
 5749SOL     OW19085  11.874   0.460   1.082
 5749SOL    HW119086  11.851   0.463   1.175
 5749SOL    HW219087  11.925   0.380   1.073
 5750SOL     OW19088  12.297   8.101   0.473
 5750SOL    HW119089  12.365   8.077   0.410
 5750SOL    HW219090  12.222   8.047   0.448
 5751SOL     OW19091   2.463  10.261  11.334
 5751SOL    HW119092   2.549  10.284  11.298
 5751SOL    HW219093   2.447  10.172  11.301
 5752SOL     OW19094   5.708   5.837   7.388
 5752SOL    HW119095   5.625   5.831   7.339
 5752SOL    HW219096   5.773   5.799   7.329
 5753SOL     OW19097   7.786  14.669  10.812
 5753SOL    HW119098   7.774  14.744  10.870
 5753SOL    HW219099   7.848  14.612  10.857
 5754SOL     OW19100  14.410   7.089   2.565
 5754SOL    HW119101  14.331   7.097   2.511
 5754SOL    HW219102  14.383   7.032   2.637
 5755SOL     OW19103   6.462   1.993  11.708
 5755SOL    HW119104   6.389   2.012  11.650
 5755SOL    HW219105   6.424   1.992  11.796
 5756SOL     OW19106  13.108  13.358  14.250
 5756SOL    HW119107  13.109  13.337  14.157
 5756SOL    HW219108  13.164  13.436  14.257
 5757SOL     OW19109   2.940  10.586  11.873
 5757SOL    HW119110   2.989  10.635  11.807
 5757SOL    HW219111   2.998  10.513  11.896
 5758SOL     OW19112   6.747   0.581   5.888
 5758SOL    HW119113   6.808   0.645   5.851
 5758SOL    HW219114   6.771   0.576   5.981
 5759SOL     OW19115  11.987  10.611   0.818
 5759SOL    HW119116  12.062  10.581   0.868
 5759SOL    HW219117  11.916  10.618   0.883
 5760SOL     OW19118   3.624  14.875   4.651
 5760SOL    HW119119   3.607   0.081   4.692
 5760SOL    HW219120   3.539  14.832   4.648
 5761SOL     OW19121  13.498   9.677   5.675
 5761SOL    HW119122  13.497   9.693   5.769
 5761SOL    HW219123  13.590   9.668   5.653
 5762SOL     OW19124   4.519  10.833   0.863
 5762SOL    HW119125   4.551  10.809   0.950
 5762SOL    HW219126   4.425  10.849   0.875
 5763SOL     OW19127   4.149   3.132  13.466
 5763SOL    HW119128   4.115   3.123  13.555
 5763SOL    HW219129   4.088   3.191  13.423
 5764SOL     OW19130  12.759  13.374  11.506
 5764SOL    HW119131  12.838  13.393  11.455
 5764SOL    HW219132  12.755  13.279  11.509
 5765SOL     OW19133  14.100   5.673   2.123
 5765SOL    HW119134  14.075   5.667   2.215
 5765SOL    HW219135  14.164   5.603   2.111
 5766SOL     OW19136   3.482  13.752   5.201
 5766SOL    HW119137   3.503  13.830   5.149
 5766SOL    HW219138   3.387  13.747   5.200
 5767SOL     OW19139  10.570  13.335  14.063
 5767SOL    HW119140  10.515  13.400  14.107
 5767SOL    HW219141  10.558  13.353  13.969
 5768SOL     OW19142  10.851  14.866   6.987
 5768SOL    HW119143  10.812   0.044   6.921
 5768SOL    HW219144  10.792  14.791   6.991
 5769SOL     OW19145   7.343  14.393  13.488
 5769SOL    HW119146   7.266  14.450  13.483
 5769SOL    HW219147   7.313  14.316  13.536
 5770SOL     OW19148   6.537   8.668   8.431
 5770SOL    HW119149   6.513   8.744   8.484
 5770SOL    HW219150   6.532   8.594   8.492
 5771SOL     OW19151   3.068   6.984   8.276
 5771SOL    HW119152   2.999   6.917   8.275
 5771SOL    HW219153   3.021   7.067   8.280
 5772SOL     OW19154   6.769   4.696   9.501
 5772SOL    HW119155   6.778   4.791   9.496
 5772SOL    HW219156   6.699   4.682   9.565
 5773SOL     OW19157  14.576   8.255   8.379
 5773SOL    HW119158  14.563   8.164   8.406
 5773SOL    HW219159  14.664   8.256   8.340
 5774SOL     OW19160   0.012  13.135   5.969
 5774SOL    HW119161  14.846  13.214   5.999
 5774SOL    HW219162  14.834  13.063   5.995
 5775SOL     OW19163  14.591  10.413  14.701
 5775SOL    HW119164  14.503  10.451  14.704
 5775SOL    HW219165  14.643  10.478  14.653
 5776SOL     OW19166  10.485   4.381   8.289
 5776SOL    HW119167  10.543   4.458   8.289
 5776SOL    HW219168  10.498   4.341   8.375
 5777SOL     OW19169   3.400  10.390  11.478
 5777SOL    HW119170   3.457  10.328  11.432
 5777SOL    HW219171   3.384  10.348  11.563
 5778SOL     OW19172   6.581  13.381  12.934
 5778SOL    HW119173   6.502  13.331  12.956
 5778SOL    HW219174   6.598  13.433  13.013
 5779SOL     OW19175   6.168   7.500   8.897
 5779SOL    HW119176   6.155   7.529   8.806
 5779SOL    HW219177   6.128   7.413   8.900
 5780SOL     OW19178   7.347   3.945   3.306
 5780SOL    HW119179   7.298   3.866   3.283
 5780SOL    HW219180   7.282   4.003   3.345
 5781SOL     OW19181   3.413   0.182   4.236
 5781SOL    HW119182   3.451   0.104   4.276
 5781SOL    HW219183   3.333   0.150   4.193
 5782SOL     OW19184   9.082   2.983   3.533
 5782SOL    HW119185   9.156   2.993   3.593
 5782SOL    HW219186   9.016   2.936   3.585
 5783SOL     OW19187  12.148   1.475   3.613
 5783SOL    HW119188  12.139   1.565   3.582
 5783SOL    HW219189  12.079   1.426   3.566
 5784SOL     OW19190   9.554   7.922  10.676
 5784SOL    HW119191   9.567   7.857  10.745
 5784SOL    HW219192   9.619   7.990  10.695
 5785SOL     OW19193   1.448   4.213   7.123
 5785SOL    HW119194   1.473   4.148   7.057
 5785SOL    HW219195   1.356   4.231   7.103
 5786SOL     OW19196  13.070  12.044  13.661
 5786SOL    HW119197  13.127  12.096  13.717
 5786SOL    HW219198  13.099  11.954  13.675
 5787SOL     OW19199   8.479   1.081   6.252
 5787SOL    HW119200   8.418   1.151   6.278
 5787SOL    HW219201   8.561   1.104   6.295
 5788SOL     OW19202   2.421   5.843  11.329
 5788SOL    HW119203   2.475   5.826  11.252
 5788SOL    HW219204   2.355   5.774  11.328
 5789SOL     OW19205   1.737  11.695   9.523
 5789SOL    HW119206   1.710  11.768   9.578
 5789SOL    HW219207   1.828  11.714   9.500
 5790SOL     OW19208   0.783  14.145  13.850
 5790SOL    HW119209   0.783  14.218  13.912
 5790SOL    HW219210   0.751  14.182  13.768
 5791SOL     OW19211   1.806   1.585   9.316
 5791SOL    HW119212   1.780   1.646   9.385
 5791SOL    HW219213   1.882   1.539   9.352
 5792SOL     OW19214  14.403   9.876   1.637
 5792SOL    HW119215  14.430   9.845   1.723
 5792SOL    HW219216  14.470   9.941   1.612
 5793SOL     OW19217   2.814  13.665  10.843
 5793SOL    HW119218   2.881  13.669  10.775
 5793SOL    HW219219   2.734  13.641  10.796
 5794SOL     OW19220   0.975  10.438  11.361
 5794SOL    HW119221   1.010  10.527  11.361
 5794SOL    HW219222   0.958  10.418  11.453
 5795SOL     OW19223   5.641  10.002  10.558
 5795SOL    HW119224   5.656  10.043  10.643
 5795SOL    HW219225   5.686  10.058  10.495
 5796SOL     OW19226  14.109   4.791   7.289
 5796SOL    HW119227  14.017   4.773   7.310
 5796SOL    HW219228  14.157   4.718   7.327
 5797SOL     OW19229   8.897   7.126  10.022
 5797SOL    HW119230   8.896   7.063   9.951
 5797SOL    HW219231   8.989   7.148  10.035
 5798SOL     OW19232  13.676   1.887   2.407
 5798SOL    HW119233  13.699   1.809   2.358
 5798SOL    HW219234  13.725   1.880   2.489
 5799SOL     OW19235  12.786  12.618   6.826
 5799SOL    HW119236  12.769  12.702   6.784
 5799SOL    HW219237  12.745  12.553   6.769
 5800SOL     OW19238   3.608  12.017   0.945
 5800SOL    HW119239   3.609  11.986   0.854
 5800SOL    HW219240   3.557  12.098   0.942
 5801SOL     OW19241   0.459   3.081   9.818
 5801SOL    HW119242   0.481   3.071   9.725
 5801SOL    HW219243   0.543   3.101   9.860
 5802SOL     OW19244   4.881  14.405   6.165
 5802SOL    HW119245   4.820  14.398   6.238
 5802SOL    HW219246   4.945  14.470   6.193
 5803SOL     OW19247  11.635   2.896  11.758
 5803SOL    HW119248  11.541   2.902  11.772
 5803SOL    HW219249  11.667   2.845  11.832
 5804SOL     OW19250   3.405   7.532   4.149
 5804SOL    HW119251   3.378   7.508   4.060
 5804SOL    HW219252   3.382   7.625   4.157
 5805SOL     OW19253   6.530   4.036   5.516
 5805SOL    HW119254   6.506   3.977   5.588
 5805SOL    HW219255   6.465   4.017   5.448
 5806SOL     OW19256   4.832   3.581   2.331
 5806SOL    HW119257   4.773   3.570   2.406
 5806SOL    HW219258   4.913   3.615   2.368
 5807SOL     OW19259   2.748   1.125   4.745
 5807SOL    HW119260   2.679   1.068   4.780
 5807SOL    HW219261   2.814   1.065   4.711
 5808SOL     OW19262   3.128   8.173   7.852
 5808SOL    HW119263   3.089   8.177   7.939
 5808SOL    HW219264   3.061   8.208   7.794
 5809SOL     OW19265   2.826   9.643   1.078
 5809SOL    HW119266   2.769   9.713   1.111
 5809SOL    HW219267   2.905   9.650   1.131
 5810SOL     OW19268  10.151   7.652  13.495
 5810SOL    HW119269  10.121   7.562  13.508
 5810SOL    HW219270  10.106   7.703  13.562
 5811SOL     OW19271   5.152   0.274  10.349
 5811SOL    HW119272   5.196   0.349  10.310
 5811SOL    HW219273   5.155   0.290  10.443
 5812SOL     OW19274   5.206  11.348   0.467
 5812SOL    HW119275   5.227  11.257   0.491
 5812SOL    HW219276   5.137  11.339   0.401
 5813SOL     OW19277   9.522   3.372   8.399
 5813SOL    HW119278   9.444   3.428   8.388
 5813SOL    HW219279   9.508   3.301   8.336
 5814SOL     OW19280  12.953   6.331   0.004
 5814SOL    HW119281  13.037   6.299   0.035
 5814SOL    HW219282  12.958   6.426   0.013
 5815SOL     OW19283   0.480  14.160   7.038
 5815SOL    HW119284   0.444  14.144   7.125
 5815SOL    HW219285   0.564  14.114   7.039
 5816SOL     OW19286   9.416   6.392   1.368
 5816SOL    HW119287   9.379   6.373   1.454
 5816SOL    HW219288   9.485   6.456   1.385
 5817SOL     OW19289   6.032  12.652  10.432
 5817SOL    HW119290   6.114  12.657  10.481
 5817SOL    HW219291   5.964  12.672  10.496
 5818SOL     OW19292   8.294  12.200   6.555
 5818SOL    HW119293   8.303  12.133   6.624
 5818SOL    HW219294   8.247  12.271   6.598
 5819SOL     OW19295   7.583   0.529   1.907
 5819SOL    HW119296   7.604   0.520   2.000
 5819SOL    HW219297   7.667   0.547   1.865
 5820SOL     OW19298  12.933   7.921   1.294
 5820SOL    HW119299  12.984   7.970   1.229
 5820SOL    HW219300  12.966   7.951   1.378
 5821SOL     OW19301   5.239   3.095   8.645
 5821SOL    HW119302   5.299   3.049   8.702
 5821SOL    HW219303   5.236   3.184   8.680
 5822SOL     OW19304   7.526   0.149   6.463
 5822SOL    HW119305   7.438   0.126   6.494
 5822SOL    HW219306   7.528   0.244   6.467
 5823SOL     OW19307  13.120   2.685   8.211
 5823SOL    HW119308  13.080   2.763   8.172
 5823SOL    HW219309  13.203   2.716   8.247
 5824SOL     OW19310   8.752  10.877  11.005
 5824SOL    HW119311   8.732  10.839  11.091
 5824SOL    HW219312   8.675  10.929  10.983
 5825SOL     OW19313  13.722   5.165   3.626
 5825SOL    HW119314  13.745   5.081   3.666
 5825SOL    HW219315  13.784   5.227   3.663
 5826SOL     OW19316   5.326  14.488   1.542
 5826SOL    HW119317   5.402  14.543   1.557
 5826SOL    HW219318   5.340  14.451   1.454
 5827SOL     OW19319   5.943  12.061  12.704
 5827SOL    HW119320   5.991  12.002  12.762
 5827SOL    HW219321   5.963  12.148  12.737
 5828SOL     OW19322   7.433   5.055  11.546
 5828SOL    HW119323   7.373   4.981  11.550
 5828SOL    HW219324   7.377   5.132  11.552
 5829SOL     OW19325   3.700  12.659   5.727
 5829SOL    HW119326   3.697  12.754   5.713
 5829SOL    HW219327   3.778  12.631   5.680
 5830SOL     OW19328   2.204   0.240   7.229
 5830SOL    HW119329   2.156   0.297   7.169
 5830SOL    HW219330   2.138   0.208   7.290
 5831SOL     OW19331   1.656  12.366   3.491
 5831SOL    HW119332   1.684  12.286   3.446
 5831SOL    HW219333   1.580  12.340   3.542
 5832SOL     OW19334  11.007   1.610   3.179
 5832SOL    HW119335  10.950   1.543   3.142
 5832SOL    HW219336  10.957   1.691   3.171
 5833SOL     OW19337   4.363   9.116   8.407
 5833SOL    HW119338   4.329   9.189   8.355
 5833SOL    HW219339   4.356   9.041   8.349
 5834SOL     OW19340  14.425  12.222  12.575
 5834SOL    HW119341  14.393  12.184  12.493
 5834SOL    HW219342  14.353  12.277  12.606
 5835SOL     OW19343   4.150   1.494  10.400
 5835SOL    HW119344   4.235   1.471  10.362
 5835SOL    HW219345   4.146   1.590  10.393
 5836SOL     OW19346  10.620   4.740   7.303
 5836SOL    HW119347  10.675   4.681   7.250
 5836SOL    HW219348  10.682   4.800   7.344
 5837SOL     OW19349   5.449   6.803   9.760
 5837SOL    HW119350   5.535   6.789   9.719
 5837SOL    HW219351   5.408   6.717   9.759
 5838SOL     OW19352  10.425   0.917   7.861
 5838SOL    HW119353  10.416   0.945   7.953
 5838SOL    HW219354  10.396   0.825   7.862
 5839SOL     OW19355   4.752   6.224   0.654
 5839SOL    HW119356   4.702   6.160   0.704
 5839SOL    HW219357   4.735   6.307   0.699
 5840SOL     OW19358   6.509   4.572  11.911
 5840SOL    HW119359   6.580   4.542  11.854
 5840SOL    HW219360   6.472   4.492  11.948
 5841SOL     OW19361   1.032   8.235   9.436
 5841SOL    HW119362   1.055   8.305   9.374
 5841SOL    HW219363   1.053   8.271   9.522
 5842SOL     OW19364   4.938  10.469  12.470
 5842SOL    HW119365   4.910  10.558  12.490
 5842SOL    HW219366   4.864  10.431  12.422
 5843SOL     OW19367  10.897   2.519   0.557
 5843SOL    HW119368  10.890   2.424   0.545
 5843SOL    HW219369  10.809   2.546   0.583
 5844SOL     OW19370   3.897   3.552  11.243
 5844SOL    HW119371   3.838   3.613  11.199
 5844SOL    HW219372   3.913   3.592  11.328
 5845SOL     OW19373   9.794   7.310   0.859
 5845SOL    HW119374   9.881   7.271   0.852
 5845SOL    HW219375   9.749   7.254   0.922
 5846SOL     OW19376   7.999   3.048   8.458
 5846SOL    HW119377   7.931   3.110   8.485
 5846SOL    HW219378   7.968   3.013   8.374
 5847SOL     OW19379  10.894   2.819   7.316
 5847SOL    HW119380  10.957   2.755   7.349
 5847SOL    HW219381  10.818   2.767   7.292
 5848SOL     OW19382   0.697   5.652   3.741
 5848SOL    HW119383   0.677   5.558   3.733
 5848SOL    HW219384   0.741   5.660   3.825
 5849SOL     OW19385  11.332   6.156   6.327
 5849SOL    HW119386  11.300   6.151   6.417
 5849SOL    HW219387  11.404   6.218   6.331
 5850SOL     OW19388  12.545   1.716   9.008
 5850SOL    HW119389  12.570   1.808   9.013
 5850SOL    HW219390  12.592   1.682   8.931
 5851SOL     OW19391   6.151   4.560  10.551
 5851SOL    HW119392   6.088   4.624  10.582
 5851SOL    HW219393   6.101   4.500  10.496
 5852SOL     OW19394   2.043   3.566   2.546
 5852SOL    HW119395   2.056   3.475   2.520
 5852SOL    HW219396   2.067   3.569   2.639
 5853SOL     OW19397   6.872   4.097   8.234
 5853SOL    HW119398   6.837   4.034   8.297
 5853SOL    HW219399   6.944   4.140   8.279
 5854SOL     OW19400   9.156  14.865   5.972
 5854SOL    HW119401   9.220  14.844   6.040
 5854SOL    HW219402   9.161   0.080   5.963
 5855SOL     OW19403  12.336  14.546   7.757
 5855SOL    HW119404  12.402  14.543   7.688
 5855SOL    HW219405  12.348  14.465   7.805
 5856SOL     OW19406   5.662   3.794  13.575
 5856SOL    HW119407   5.693   3.707  13.551
 5856SOL    HW219408   5.687   3.849  13.502
 5857SOL     OW19409  10.368  10.695   8.921
 5857SOL    HW119410  10.399  10.780   8.890
 5857SOL    HW219411  10.444  10.655   8.962
 5858SOL     OW19412   3.188   0.139  11.825
 5858SOL    HW119413   3.176   0.080  11.899
 5858SOL    HW219414   3.114   0.199  11.830
 5859SOL     OW19415  10.049   6.711   9.690
 5859SOL    HW119416   9.967   6.720   9.641
 5859SOL    HW219417  10.054   6.792   9.741
 5860SOL     OW19418   2.239   3.255   8.618
 5860SOL    HW119419   2.320   3.305   8.608
 5860SOL    HW219420   2.170   3.320   8.609
 5861SOL     OW19421  14.452   2.618  14.399
 5861SOL    HW119422  14.519   2.672  14.439
 5861SOL    HW219423  14.453   2.642  14.306
 5862SOL     OW19424   4.059   7.141   1.709
 5862SOL    HW119425   4.111   7.177   1.637
 5862SOL    HW219426   4.124   7.126   1.779
 5863SOL     OW19427  11.871   3.012   6.488
 5863SOL    HW119428  11.777   2.994   6.495
 5863SOL    HW219429  11.887   3.084   6.549
 5864SOL     OW19430   1.830  14.491   8.998
 5864SOL    HW119431   1.740  14.513   8.974
 5864SOL    HW219432   1.863  14.440   8.923
 5865SOL     OW19433   0.369   7.901  12.428
 5865SOL    HW119434   0.383   7.810  12.453
 5865SOL    HW219435   0.347   7.945  12.510
 5866SOL     OW19436  11.932  14.774   3.816
 5866SOL    HW119437  11.850  14.725   3.822
 5866SOL    HW219438  11.906  14.865   3.830
 5867SOL     OW19439   5.503  10.023   6.715
 5867SOL    HW119440   5.441  10.095   6.707
 5867SOL    HW219441   5.452   9.953   6.756
 5868SOL     OW19442   9.998   3.420  11.432
 5868SOL    HW119443  10.056   3.369  11.489
 5868SOL    HW219444   9.911   3.385  11.449
 5869SOL     OW19445   4.543   2.244  12.328
 5869SOL    HW119446   4.603   2.170  12.325
 5869SOL    HW219447   4.457   2.205  12.340
 5870SOL     OW19448   5.979  14.425  10.681
 5870SOL    HW119449   5.969  14.395  10.591
 5870SOL    HW219450   5.935  14.358  10.733
 5871SOL     OW19451   6.580  10.130   7.708
 5871SOL    HW119452   6.507  10.069   7.706
 5871SOL    HW219453   6.551  10.206   7.658
 5872SOL     OW19454  12.392   7.816   6.112
 5872SOL    HW119455  12.311   7.768   6.095
 5872SOL    HW219456  12.373   7.867   6.190
 5873SOL     OW19457   7.754   0.877   5.781
 5873SOL    HW119458   7.721   0.798   5.739
 5873SOL    HW219459   7.815   0.914   5.717
 5874SOL     OW19460  12.668   4.378   7.841
 5874SOL    HW119461  12.678   4.403   7.749
 5874SOL    HW219462  12.754   4.392   7.880
 5875SOL     OW19463   0.118   7.258   7.901
 5875SOL    HW119464   0.091   7.324   7.964
 5875SOL    HW219465   0.190   7.212   7.945
 5876SOL     OW19466  11.045   6.192  11.626
 5876SOL    HW119467  11.008   6.251  11.561
 5876SOL    HW219468  11.002   6.216  11.708
 5877SOL     OW19469   7.694   4.705   1.678
 5877SOL    HW119470   7.697   4.771   1.747
 5877SOL    HW219471   7.648   4.748   1.606
 5878SOL     OW19472  14.156   6.209   6.967
 5878SOL    HW119473  14.119   6.121   6.978
 5878SOL    HW219474  14.239   6.194   6.921
 5879SOL     OW19475  10.917   3.775   4.487
 5879SOL    HW119476  10.944   3.835   4.555
 5879SOL    HW219477  10.822   3.783   4.483
 5880SOL     OW19478  11.807  12.915   4.030
 5880SOL    HW119479  11.780  12.896   3.940
 5880SOL    HW219480  11.773  12.842   4.081
 5881SOL     OW19481   9.816   5.343  14.260
 5881SOL    HW119482   9.857   5.352  14.346
 5881SOL    HW219483   9.863   5.404  14.204
 5882SOL     OW19484   3.515   7.397  12.076
 5882SOL    HW119485   3.568   7.327  12.038
 5882SOL    HW219486   3.558   7.418  12.159
 5883SOL     OW19487  14.773   2.877   1.408
 5883SOL    HW119488  14.771   2.968   1.439
 5883SOL    HW219489  14.693   2.838   1.442
 5884SOL     OW19490  12.996  13.795  12.675
 5884SOL    HW119491  12.974  13.876  12.629
 5884SOL    HW219492  13.031  13.823  12.759
 5885SOL     OW19493  12.767   7.737   6.254
 5885SOL    HW119494  12.739   7.668   6.194
 5885SOL    HW219495  12.786   7.812   6.197
 5886SOL     OW19496  10.958   1.423  11.282
 5886SOL    HW119497  10.919   1.429  11.194
 5886SOL    HW219498  10.930   1.337  11.314
 5887SOL     OW19499   4.582   9.061   7.018
 5887SOL    HW119500   4.607   9.007   7.093
 5887SOL    HW219501   4.660   9.112   6.998
 5888SOL     OW19502   5.036   0.969   6.880
 5888SOL    HW119503   4.979   0.961   6.804
 5888SOL    HW219504   5.103   0.902   6.867
 5889SOL     OW19505   4.655  10.501  11.949
 5889SOL    HW119506   4.681  10.593  11.950
 5889SOL    HW219507   4.737  10.453  11.946
 5890SOL     OW19508  12.415   4.465  11.052
 5890SOL    HW119509  12.336   4.420  11.020
 5890SOL    HW219510  12.444   4.517  10.977
 5891SOL     OW19511   1.767  12.149  12.322
 5891SOL    HW119512   1.843  12.122  12.373
 5891SOL    HW219513   1.697  12.091  12.351
 5892SOL     OW19514   4.009  12.892   1.846
 5892SOL    HW119515   4.046  12.825   1.788
 5892SOL    HW219516   4.085  12.927   1.893
 5893SOL     OW19517   6.085   2.057  11.357
 5893SOL    HW119518   6.102   1.968  11.325
 5893SOL    HW219519   6.166   2.082  11.401
 5894SOL     OW19520  14.678  13.607  10.095
 5894SOL    HW119521  14.686  13.576  10.005
 5894SOL    HW219522  14.623  13.541  10.138
 5895SOL     OW19523   4.812   9.305  13.095
 5895SOL    HW119524   4.748   9.373  13.114
 5895SOL    HW219525   4.894   9.339  13.131
 5896SOL     OW19526   4.869   9.522   3.096
 5896SOL    HW119527   4.873   9.427   3.080
 5896SOL    HW219528   4.862   9.530   3.191
 5897SOL     OW19529   3.980   2.227   3.803
 5897SOL    HW119530   3.999   2.147   3.852
 5897SOL    HW219531   3.909   2.268   3.852
 5898SOL     OW19532  10.608   3.133  13.675
 5898SOL    HW119533  10.626   3.150  13.768
 5898SOL    HW219534  10.519   3.099  13.673
 5899SOL     OW19535   5.763   0.519  14.394
 5899SOL    HW119536   5.694   0.480  14.340
 5899SOL    HW219537   5.739   0.611  14.400
 5900SOL     OW19538  11.136  11.878  13.210
 5900SOL    HW119539  11.148  11.962  13.254
 5900SOL    HW219540  11.069  11.834  13.262
 5901SOL     OW19541   2.927   4.948  11.483
 5901SOL    HW119542   2.880   4.865  11.481
 5901SOL    HW219543   2.858   5.013  11.499
 5902SOL     OW19544  14.476   6.527   4.938
 5902SOL    HW119545  14.480   6.513   5.032
 5902SOL    HW219546  14.423   6.606   4.928
 5903SOL     OW19547   8.777  12.264   1.551
 5903SOL    HW119548   8.760  12.272   1.645
 5903SOL    HW219549   8.702  12.214   1.518
 5904SOL     OW19550   2.757  10.977   5.260
 5904SOL    HW119551   2.830  10.944   5.312
 5904SOL    HW219552   2.797  11.003   5.177
 5905SOL     OW19553   6.042  10.916   2.891
 5905SOL    HW119554   6.062  10.907   2.798
 5905SOL    HW219555   6.027  11.010   2.903
 5906SOL     OW19556   0.631  12.311   1.803
 5906SOL    HW119557   0.610  12.350   1.888
 5906SOL    HW219558   0.610  12.218   1.814
 5907SOL     OW19559   7.029   3.999   5.578
 5907SOL    HW119560   6.998   3.925   5.630
 5907SOL    HW219561   7.016   3.972   5.487
 5908SOL     OW19562   2.816   5.341  10.634
 5908SOL    HW119563   2.785   5.343  10.543
 5908SOL    HW219564   2.812   5.249  10.658
 5909SOL     OW19565  10.226  12.976  12.896
 5909SOL    HW119566  10.253  13.055  12.847
 5909SOL    HW219567  10.276  12.905  12.855
 5910SOL     OW19568   7.111  12.735   9.355
 5910SOL    HW119569   7.084  12.817   9.397
 5910SOL    HW219570   7.031  12.683   9.350
 5911SOL     OW19571   4.994  11.283   3.843
 5911SOL    HW119572   4.942  11.246   3.914
 5911SOL    HW219573   5.072  11.228   3.838
 5912SOL     OW19574   7.818  10.957   0.770
 5912SOL    HW119575   7.854  11.040   0.740
 5912SOL    HW219576   7.894  10.903   0.790
 5913SOL     OW19577  14.614   0.002  10.981
 5913SOL    HW119578  14.675   0.046  11.039
 5913SOL    HW219579  14.584   0.070  10.921
 5914SOL     OW19580   4.980   4.354  12.040
 5914SOL    HW119581   5.009   4.445  12.035
 5914SOL    HW219582   5.055   4.303  12.010
 5915SOL     OW19583  12.774  13.284   7.670
 5915SOL    HW119584  12.769  13.287   7.574
 5915SOL    HW219585  12.816  13.367   7.694
 5916SOL     OW19586   6.629   8.863   1.550
 5916SOL    HW119587   6.689   8.934   1.571
 5916SOL    HW219588   6.685   8.792   1.520
 5917SOL     OW19589   5.006  14.485   9.482
 5917SOL    HW119590   5.099  14.474   9.462
 5917SOL    HW219591   4.973  14.540   9.411
 5918SOL     OW19592  12.368   0.453   3.858
 5918SOL    HW119593  12.313   0.492   3.927
 5918SOL    HW219594  12.381   0.363   3.887
 5919SOL     OW19595  11.952  10.206   7.155
 5919SOL    HW119596  12.017  10.202   7.085
 5919SOL    HW219597  11.916  10.295   7.150
 5920SOL     OW19598  14.600   2.030   3.275
 5920SOL    HW119599  14.681   2.078   3.256
 5920SOL    HW219600  14.620   1.940   3.250
 5921SOL     OW19601  14.405   6.650   8.789
 5921SOL    HW119602  14.450   6.571   8.820
 5921SOL    HW219603  14.410   6.644   8.694
 5922SOL     OW19604   2.378   6.440   6.588
 5922SOL    HW119605   2.289   6.413   6.566
 5922SOL    HW219606   2.418   6.362   6.627
 5923SOL     OW19607  11.605   5.658   8.736
 5923SOL    HW119608  11.571   5.690   8.820
 5923SOL    HW219609  11.602   5.734   8.678
 5924SOL     OW19610   9.763  14.458   1.850
 5924SOL    HW119611   9.798  14.457   1.761
 5924SOL    HW219612   9.811  14.528   1.894
 5925SOL     OW19613  13.761  13.064   0.220
 5925SOL    HW119614  13.687  13.004   0.213
 5925SOL    HW219615  13.752  13.104   0.306
 5926SOL     OW19616   5.427   6.920   1.806
 5926SOL    HW119617   5.346   6.908   1.856
 5926SOL    HW219618   5.465   7.000   1.841
 5927SOL     OW19619   6.415   3.380   8.914
 5927SOL    HW119620   6.506   3.356   8.932
 5927SOL    HW219621   6.365   3.301   8.933
 5928SOL     OW19622  14.727   5.256  13.360
 5928SOL    HW119623  14.805   5.255  13.305
 5928SOL    HW219624  14.713   5.349  13.380
 5929SOL     OW19625   1.619   3.552  12.164
 5929SOL    HW119626   1.690   3.586  12.219
 5929SOL    HW219627   1.613   3.615  12.091
 5930SOL     OW19628   6.022   4.739   1.408
 5930SOL    HW119629   6.016   4.723   1.502
 5930SOL    HW219630   5.932   4.725   1.376
 5931SOL     OW19631  12.037   1.834   7.087
 5931SOL    HW119632  12.025   1.818   6.994
 5931SOL    HW219633  11.949   1.837   7.123
 5932SOL     OW19634   1.375  13.441   5.800
 5932SOL    HW119635   1.353  13.348   5.791
 5932SOL    HW219636   1.290  13.485   5.806
 5933SOL     OW19637   8.256   5.622   4.343
 5933SOL    HW119638   8.335   5.627   4.289
 5933SOL    HW219639   8.253   5.705   4.390
 5934SOL     OW19640   6.491   9.234   7.128
 5934SOL    HW119641   6.418   9.187   7.169
 5934SOL    HW219642   6.552   9.250   7.200
 5935SOL     OW19643   7.508  10.321  13.425
 5935SOL    HW119644   7.511  10.236  13.381
 5935SOL    HW219645   7.485  10.383  13.356
 5936SOL     OW19646  14.721   2.430   4.471
 5936SOL    HW119647  14.767   2.451   4.390
 5936SOL    HW219648  14.787   2.440   4.540
 5937SOL     OW19649   1.478   9.420  11.936
 5937SOL    HW119650   1.564   9.421  11.977
 5937SOL    HW219651   1.417   9.407  12.008
 5938SOL     OW19652  12.791   3.222   6.663
 5938SOL    HW119653  12.837   3.276   6.599
 5938SOL    HW219654  12.715   3.275   6.689
 5939SOL     OW19655  14.093   2.829   1.603
 5939SOL    HW119656  14.003   2.859   1.593
 5939SOL    HW219657  14.112   2.842   1.696
 5940SOL     OW19658  11.005   4.651   2.046
 5940SOL    HW119659  11.012   4.622   2.137
 5940SOL    HW219660  11.048   4.582   1.995
 5941SOL     OW19661   3.106  11.389   9.610
 5941SOL    HW119662   3.135  11.479   9.624
 5941SOL    HW219663   3.030  11.398   9.552
 5942SOL     OW19664   6.351   7.704   5.881
 5942SOL    HW119665   6.290   7.648   5.929
 5942SOL    HW219666   6.340   7.678   5.789
 5943SOL     OW19667   4.104   8.280   8.107
 5943SOL    HW119668   4.093   8.245   8.195
 5943SOL    HW219669   4.148   8.211   8.058
 5944SOL     OW19670   7.619   3.729   2.849
 5944SOL    HW119671   7.524   3.719   2.852
 5944SOL    HW219672   7.644   3.748   2.940
 5945SOL     OW19673  11.597   9.396   5.557
 5945SOL    HW119674  11.675   9.437   5.519
 5945SOL    HW219675  11.524   9.433   5.509
 5946SOL     OW19676   6.541   3.974   8.076
 5946SOL    HW119677   6.447   3.969   8.058
 5946SOL    HW219678   6.578   3.898   8.031
 5947SOL     OW19679   2.630   1.227   4.287
 5947SOL    HW119680   2.565   1.287   4.323
 5947SOL    HW219681   2.648   1.165   4.358
 5948SOL     OW19682   4.383   2.183   2.504
 5948SOL    HW119683   4.288   2.178   2.497
 5948SOL    HW219684   4.414   2.176   2.414
 5949SOL     OW19685   1.156  11.146  10.138
 5949SOL    HW119686   1.118  11.059  10.126
 5949SOL    HW219687   1.235  11.131  10.190
 5950SOL     OW19688  10.223  10.561  14.482
 5950SOL    HW119689  10.254  10.490  14.538
 5950SOL    HW219690  10.160  10.520  14.424
 5951SOL     OW19691   5.685  14.339  10.753
 5951SOL    HW119692   5.612  14.307  10.807
 5951SOL    HW219693   5.661  14.429  10.731
 5952SOL     OW19694   2.863  10.524   3.135
 5952SOL    HW119695   2.917  10.446   3.145
 5952SOL    HW219696   2.794  10.498   3.073
 5953SOL     OW19697   5.309  12.061   9.587
 5953SOL    HW119698   5.275  12.000   9.653
 5953SOL    HW219699   5.360  12.124   9.638
 5954SOL     OW19700  11.192  11.592  12.839
 5954SOL    HW119701  11.221  11.634  12.758
 5954SOL    HW219702  11.137  11.658  12.882
 5955SOL     OW19703  11.469   5.905   4.210
 5955SOL    HW119704  11.419   5.824   4.206
 5955SOL    HW219705  11.520   5.905   4.128
 5956SOL     OW19706   1.670  12.995   5.492
 5956SOL    HW119707   1.712  12.934   5.553
 5956SOL    HW219708   1.735  13.010   5.424
 5957SOL     OW19709   3.001   1.274   4.041
 5957SOL    HW119710   3.029   1.208   4.105
 5957SOL    HW219711   3.081   1.301   3.997
 5958SOL     OW19712  11.008   6.495  14.846
 5958SOL    HW119713  11.075   6.455   0.023
 5958SOL    HW219714  11.038   6.478  14.757
 5959SOL     OW19715  10.489  13.709   5.164
 5959SOL    HW119716  10.475  13.788   5.111
 5959SOL    HW219717  10.441  13.641   5.118
 5960SOL     OW19718  13.226  13.356  10.615
 5960SOL    HW119719  13.218  13.282  10.675
 5960SOL    HW219720  13.310  13.396  10.637
 5961SOL     OW19721  12.579   6.605   3.965
 5961SOL    HW119722  12.579   6.691   3.922
 5961SOL    HW219723  12.507   6.558   3.924
 5962SOL     OW19724  14.578  14.828   0.276
 5962SOL    HW119725  14.527  14.854   0.353
 5962SOL    HW219726  14.529  14.864   0.202
 5963SOL     OW19727   3.443   7.258   4.599
 5963SOL    HW119728   3.424   7.330   4.539
 5963SOL    HW219729   3.400   7.283   4.681
 5964SOL     OW19730   2.375   8.295   3.107
 5964SOL    HW119731   2.338   8.265   3.191
 5964SOL    HW219732   2.432   8.368   3.131
 5965SOL     OW19733  10.774  10.841   6.592
 5965SOL    HW119734  10.739  10.753   6.608
 5965SOL    HW219735  10.810  10.836   6.503
 5966SOL     OW19736   5.033  11.336   4.725
 5966SOL    HW119737   5.126  11.352   4.711
 5966SOL    HW219738   5.022  11.345   4.820
 5967SOL     OW19739   9.273  11.548  10.472
 5967SOL    HW119740   9.362  11.580  10.484
 5967SOL    HW219741   9.279  11.453  10.482
 5968SOL     OW19742   9.546  12.554  10.706
 5968SOL    HW119743   9.578  12.531  10.794
 5968SOL    HW219744   9.621  12.597  10.665
 5969SOL     OW19745   2.465   3.380   8.505
 5969SOL    HW119746   2.531   3.429   8.555
 5969SOL    HW219747   2.471   3.414   8.416
 5970SOL     OW19748   3.717   7.480   3.893
 5970SOL    HW119749   3.687   7.570   3.880
 5970SOL    HW219750   3.812   7.484   3.880
 5971SOL     OW19751  14.544  12.117   0.663
 5971SOL    HW119752  14.582  12.132   0.749
 5971SOL    HW219753  14.554  12.022   0.649
 5972SOL     OW19754  11.081   6.002  11.421
 5972SOL    HW119755  11.069   6.051  11.503
 5972SOL    HW219756  11.016   6.040  11.362
 5973SOL     OW19757   8.672   4.608   1.958
 5973SOL    HW119758   8.667   4.694   1.916
 5973SOL    HW219759   8.698   4.627   2.048
 5974SOL     OW19760   5.002   4.871  14.213
 5974SOL    HW119761   4.915   4.910  14.199
 5974SOL    HW219762   5.030   4.844  14.125
 5975SOL     OW19763   9.924   5.087   1.126
 5975SOL    HW119764  10.020   5.092   1.118
 5975SOL    HW219765   9.897   5.032   1.052
 5976SOL     OW19766   5.289   6.569  11.213
 5976SOL    HW119767   5.360   6.564  11.278
 5976SOL    HW219768   5.303   6.653  11.170
 5977SOL     OW19769   4.393   8.154   3.378
 5977SOL    HW119770   4.298   8.164   3.372
 5977SOL    HW219771   4.422   8.143   3.287
 5978SOL     OW19772   4.293  11.872   4.357
 5978SOL    HW119773   4.271  11.808   4.290
 5978SOL    HW219774   4.233  11.945   4.341
 5979SOL     OW19775  13.853   6.602  11.034
 5979SOL    HW119776  13.811   6.674  10.987
 5979SOL    HW219777  13.811   6.523  11.000
 5980SOL     OW19778   5.236   9.253  14.078
 5980SOL    HW119779   5.148   9.283  14.099
 5980SOL    HW219780   5.222   9.175  14.024
 5981SOL     OW19781   6.534   1.708   6.431
 5981SOL    HW119782   6.549   1.666   6.346
 5981SOL    HW219783   6.447   1.746   6.424
 5982SOL     OW19784   1.855   1.370   6.133
 5982SOL    HW119785   1.778   1.419   6.107
 5982SOL    HW219786   1.857   1.294   6.074
 5983SOL     OW19787   2.769   6.369   7.537
 5983SOL    HW119788   2.693   6.425   7.521
 5983SOL    HW219789   2.795   6.339   7.450
 5984SOL     OW19790   4.878   5.517   5.809
 5984SOL    HW119791   4.786   5.507   5.786
 5984SOL    HW219792   4.884   5.606   5.845
 5985SOL     OW19793   6.063   0.971   9.407
 5985SOL    HW119794   6.097   0.949   9.494
 5985SOL    HW219795   6.114   0.916   9.347
 5986SOL     OW19796   8.610   8.539   3.211
 5986SOL    HW119797   8.649   8.624   3.190
 5986SOL    HW219798   8.537   8.559   3.270
 5987SOL     OW19799  14.806  14.745  10.159
 5987SOL    HW119800  14.818  14.767  10.251
 5987SOL    HW219801  14.845  14.818  10.112
 5988SOL     OW19802  10.196   5.687  11.832
 5988SOL    HW119803  10.171   5.598  11.807
 5988SOL    HW219804  10.217   5.681  11.925
 5989SOL     OW19805  12.217   3.657   9.884
 5989SOL    HW119806  12.166   3.601   9.825
 5989SOL    HW219807  12.308   3.631   9.869
 5990SOL     OW19808   9.675  11.290   7.329
 5990SOL    HW119809   9.712  11.202   7.336
 5990SOL    HW219810   9.744  11.342   7.288
 5991SOL     OW19811   7.630   1.659   6.991
 5991SOL    HW119812   7.717   1.635   6.959
 5991SOL    HW219813   7.606   1.587   7.049
 5992SOL     OW19814  12.213  14.852   9.906
 5992SOL    HW119815  12.202  14.819   9.995
 5992SOL    HW219816  12.270  14.788   9.864
 5993SOL     OW19817  14.103  10.129  11.190
 5993SOL    HW119818  14.171  10.064  11.211
 5993SOL    HW219819  14.032  10.108  11.251
 5994SOL     OW19820   4.053  12.299  14.762
 5994SOL    HW119821   4.134  12.316  14.714
 5994SOL    HW219822   4.070  12.333  14.850
 5995SOL     OW19823   4.119   0.341   0.772
 5995SOL    HW119824   4.192   0.306   0.824
 5995SOL    HW219825   4.144   0.432   0.754
 5996SOL     OW19826   9.574   2.945   5.804
 5996SOL    HW119827   9.633   3.002   5.853
 5996SOL    HW219828   9.505   2.923   5.867
 5997SOL     OW19829   1.363   1.671   0.402
 5997SOL    HW119830   1.288   1.703   0.351
 5997SOL    HW219831   1.345   1.701   0.491
 5998SOL     OW19832   8.453   4.971  13.433
 5998SOL    HW119833   8.462   5.053  13.386
 5998SOL    HW219834   8.359   4.960  13.447
 5999SOL     OW19835   7.137  10.766  12.242
 5999SOL    HW119836   7.149  10.744  12.334
 5999SOL    HW219837   7.218  10.739  12.199
 6000SOL     OW19838  11.684   2.864   2.919
 6000SOL    HW119839  11.655   2.889   3.006
 6000SOL    HW219840  11.604   2.840   2.873
 6001SOL     OW19841   7.199   0.019   4.635
 6001SOL    HW119842   7.152   0.018   4.552
 6001SOL    HW219843   7.233  14.809   4.645
 6002SOL     OW19844   7.736  10.909   6.014
 6002SOL    HW119845   7.675  10.932   6.084
 6002SOL    HW219846   7.688  10.848   5.959
 6003SOL     OW19847  11.911   3.086   5.900
 6003SOL    HW119848  11.961   3.167   5.909
 6003SOL    HW219849  11.973   3.017   5.923
 6004SOL     OW19850   2.096   8.920   0.251
 6004SOL    HW119851   2.171   8.864   0.267
 6004SOL    HW219852   2.127   8.984   0.187
 6005SOL     OW19853   6.765   1.518   2.275
 6005SOL    HW119854   6.685   1.521   2.223
 6005SOL    HW219855   6.835   1.505   2.211
 6006SOL     OW19856   4.445   7.043   2.549
 6006SOL    HW119857   4.385   7.053   2.623
 6006SOL    HW219858   4.526   7.085   2.578
 6007SOL     OW19859  14.770   6.790   4.861
 6007SOL    HW119860  14.754   6.698   4.839
 6007SOL    HW219861  14.755   6.795   4.956
 6008SOL     OW19862   9.651   2.417   5.759
 6008SOL    HW119863   9.720   2.396   5.823
 6008SOL    HW219864   9.695   2.414   5.674
 6009SOL     OW19865   3.254   8.537   7.127
 6009SOL    HW119866   3.337   8.521   7.082
 6009SOL    HW219867   3.190   8.549   7.056
 6010SOL     OW19868   0.559   5.593   9.130
 6010SOL    HW119869   0.595   5.539   9.200
 6010SOL    HW219870   0.623   5.663   9.117
 6011SOL     OW19871   5.453   3.816   4.016
 6011SOL    HW119872   5.479   3.907   4.003
 6011SOL    HW219873   5.507   3.786   4.089
 6012SOL     OW19874   7.870   2.415   4.951
 6012SOL    HW119875   7.961   2.392   4.934
 6012SOL    HW219876   7.863   2.506   4.925
 6013SOL     OW19877   5.583   0.298   6.436
 6013SOL    HW119878   5.547   0.322   6.350
 6013SOL    HW219879   5.665   0.253   6.416
 6014SOL     OW19880   3.699   9.569   6.235
 6014SOL    HW119881   3.640   9.629   6.190
 6014SOL    HW219882   3.763   9.625   6.279
 6015SOL     OW19883   0.681   2.676   5.999
 6015SOL    HW119884   0.603   2.675   6.055
 6015SOL    HW219885   0.679   2.762   5.958
 6016SOL     OW19886   8.427   0.844   8.431
 6016SOL    HW119887   8.493   0.908   8.458
 6016SOL    HW219888   8.398   0.803   8.513
 6017SOL     OW19889  13.279   5.418   7.357
 6017SOL    HW119890  13.367   5.453   7.373
 6017SOL    HW219891  13.266   5.428   7.263
 6018SOL     OW19892   7.770   3.524   8.398
 6018SOL    HW119893   7.733   3.439   8.422
 6018SOL    HW219894   7.711   3.588   8.439
 6019SOL     OW19895   9.573   3.607   6.671
 6019SOL    HW119896   9.580   3.516   6.702
 6019SOL    HW219897   9.590   3.602   6.577
 6020SOL     OW19898   6.773   4.959  12.143
 6020SOL    HW119899   6.767   5.032  12.204
 6020SOL    HW219900   6.735   4.992  12.061
 6021SOL     OW19901   2.982  12.092  11.579
 6021SOL    HW119902   2.978  12.122  11.488
 6021SOL    HW219903   2.900  12.044  11.591
 6022SOL     OW19904   1.077  11.696   8.154
 6022SOL    HW119905   1.121  11.779   8.175
 6022SOL    HW219906   1.081  11.646   8.236
 6023SOL     OW19907   6.937   8.303  12.852
 6023SOL    HW119908   6.850   8.334  12.830
 6023SOL    HW219909   6.922   8.221  12.901
 6024SOL     OW19910  11.410   9.134   0.785
 6024SOL    HW119911  11.406   9.226   0.758
 6024SOL    HW219912  11.320   9.102   0.774
 6025SOL     OW19913   0.705   0.302   0.933
 6025SOL    HW119914   0.689   0.388   0.972
 6025SOL    HW219915   0.774   0.264   0.987
 6026SOL     OW19916   0.406  10.729  12.685
 6026SOL    HW119917   0.405  10.723  12.781
 6026SOL    HW219918   0.477  10.790  12.665
 6027SOL     OW19919   0.412   5.558  13.463
 6027SOL    HW119920   0.406   5.640  13.414
 6027SOL    HW219921   0.497   5.564  13.509
 6028SOL     OW19922   4.457   2.726   4.528
 6028SOL    HW119923   4.537   2.777   4.521
 6028SOL    HW219924   4.475   2.644   4.481
 6029SOL     OW19925   8.869   9.349   3.232
 6029SOL    HW119926   8.952   9.339   3.280
 6029SOL    HW219927   8.804   9.366   3.301
 6030SOL     OW19928   4.638  14.022  10.367
 6030SOL    HW119929   4.544  14.036  10.382
 6030SOL    HW219930   4.642  13.936  10.324
 6031SOL     OW19931   4.153  14.819  10.547
 6031SOL    HW119932   4.063  14.788  10.553
 6031SOL    HW219933   4.158  14.863  10.462
 6032SOL     OW19934  13.370   2.111   6.064
 6032SOL    HW119935  13.422   2.032   6.049
 6032SOL    HW219936  13.427   2.168   6.116
 6033SOL     OW19937  11.829   2.298  10.545
 6033SOL    HW119938  11.746   2.251  10.547
 6033SOL    HW219939  11.878   2.262  10.620
 6034SOL     OW19940   4.450  14.793   8.915
 6034SOL    HW119941   4.427  14.848   8.990
 6034SOL    HW219942   4.523  14.838   8.874
 6035SOL     OW19943   5.238   5.779   8.136
 6035SOL    HW119944   5.184   5.849   8.173
 6035SOL    HW219945   5.210   5.773   8.045
 6036SOL     OW19946  10.975   6.282   4.022
 6036SOL    HW119947  10.880   6.291   4.018
 6036SOL    HW219948  11.006   6.367   4.052
 6037SOL     OW19949  13.173   1.555   2.883
 6037SOL    HW119950  13.132   1.572   2.798
 6037SOL    HW219951  13.246   1.618   2.887
 6038SOL     OW19952   7.643  11.791   3.619
 6038SOL    HW119953   7.611  11.825   3.703
 6038SOL    HW219954   7.723  11.842   3.602
 6039SOL     OW19955  10.442  14.384   1.207
 6039SOL    HW119956  10.503  14.448   1.243
 6039SOL    HW219957  10.498  14.318   1.167
 6040SOL     OW19958  12.028   2.481  12.833
 6040SOL    HW119959  11.988   2.560  12.797
 6040SOL    HW219960  12.123   2.496  12.824
 6041SOL     OW19961   7.263   0.747   6.343
 6041SOL    HW119962   7.274   0.817   6.279
 6041SOL    HW219963   7.317   0.675   6.310
 6042SOL     OW19964   9.948   2.901   4.956
 6042SOL    HW119965  10.004   2.838   4.912
 6042SOL    HW219966   9.893   2.848   5.014
 6043SOL     OW19967   7.387   8.389   7.898
 6043SOL    HW119968   7.456   8.323   7.906
 6043SOL    HW219969   7.435   8.471   7.885
 6044SOL     OW19970   1.833   3.322   7.464
 6044SOL    HW119971   1.889   3.331   7.387
 6044SOL    HW219972   1.885   3.357   7.536
 6045SOL     OW19973   0.584  10.192  12.272
 6045SOL    HW119974   0.606  10.280  12.240
 6045SOL    HW219975   0.663  10.141  12.259
 6046SOL     OW19976  13.117  13.942   3.544
 6046SOL    HW119977  13.108  13.856   3.504
 6046SOL    HW219978  13.053  13.997   3.498
 6047SOL     OW19979  13.005  13.416   7.293
 6047SOL    HW119980  12.954  13.354   7.241
 6047SOL    HW219981  12.957  13.499   7.284
 6048SOL     OW19982   4.685  10.646  10.634
 6048SOL    HW119983   4.700  10.734  10.668
 6048SOL    HW219984   4.648  10.598  10.708
 6049SOL     OW19985  10.249   7.543   3.876
 6049SOL    HW119986  10.158   7.518   3.862
 6049SOL    HW219987  10.254   7.634   3.849
 6050SOL     OW19988   0.616   5.852   3.584
 6050SOL    HW119989   0.643   5.773   3.632
 6050SOL    HW219990   0.630   5.829   3.492
 6051SOL     OW19991   9.760  14.564  10.958
 6051SOL    HW119992   9.842  14.516  10.953
 6051SOL    HW219993   9.723  14.540  11.043
 6052SOL     OW19994  10.090   6.639   0.126
 6052SOL    HW119995  10.009   6.598   0.097
 6052SOL    HW219996  10.070   6.732   0.134
 6053SOL     OW19997   0.719  10.884  10.538
 6053SOL    HW119998   0.625  10.871  10.539
 6053SOL    HW219999   0.749  10.855  10.624
 6054SOL     OW20000   5.973  14.474   5.660
 6054SOL    HW120001   5.909  14.432   5.602
 6054SOL    HW220002   6.032  14.403   5.685
 6055SOL     OW20003  10.103   0.973   8.249
 6055SOL    HW120004  10.056   1.016   8.320
 6055SOL    HW220005  10.076   0.882   8.254
 6056SOL     OW20006   6.963  13.084   8.879
 6056SOL    HW120007   6.970  13.179   8.884
 6056SOL    HW220008   6.989  13.054   8.966
 6057SOL     OW20009   3.209   4.234   6.434
 6057SOL    HW120010   3.284   4.194   6.479
 6057SOL    HW220011   3.189   4.173   6.363
 6058SOL     OW20012  10.036  11.614   6.292
 6058SOL    HW120013  10.030  11.562   6.373
 6058SOL    HW220014   9.982  11.566   6.229
 6059SOL     OW20015  10.696   7.126   8.966
 6059SOL    HW120016  10.742   7.045   8.988
 6059SOL    HW220017  10.656   7.154   9.049
 6060SOL     OW20018   7.288  14.802  14.170
 6060SOL    HW120019   7.354  14.854  14.216
 6060SOL    HW220020   7.336  14.724  14.140
 6061SOL     OW20021   2.279   5.702  11.666
 6061SOL    HW120022   2.315   5.616  11.647
 6061SOL    HW220023   2.282   5.748  11.582
 6062SOL     OW20024   3.071   8.214   1.650
 6062SOL    HW120025   3.046   8.154   1.721
 6062SOL    HW220026   3.023   8.295   1.670
 6063SOL     OW20027   2.950   6.398   2.274
 6063SOL    HW120028   3.003   6.444   2.339
 6063SOL    HW220029   2.973   6.306   2.286
 6064SOL     OW20030   2.672  10.994   1.780
 6064SOL    HW120031   2.620  10.923   1.819
 6064SOL    HW220032   2.647  10.994   1.688
 6065SOL     OW20033   6.216  10.514  13.124
 6065SOL    HW120034   6.139  10.497  13.069
 6065SOL    HW220035   6.182  10.515  13.214
 6066SOL     OW20036  13.400   6.829  14.331
 6066SOL    HW120037  13.443   6.799  14.251
 6066SOL    HW220038  13.469   6.877  14.378
 6067SOL     OW20039   1.570   1.073   1.324
 6067SOL    HW120040   1.644   1.082   1.385
 6067SOL    HW220041   1.531   1.161   1.321
 6068SOL     OW20042  10.985   6.680   9.505
 6068SOL    HW120043  10.984   6.769   9.540
 6068SOL    HW220044  11.077   6.665   9.483
 6069SOL     OW20045  13.816   1.073   2.302
 6069SOL    HW120046  13.834   1.025   2.382
 6069SOL    HW220047  13.797   1.006   2.236
 6070SOL     OW20048   1.825  14.515   9.425
 6070SOL    HW120049   1.900  14.553   9.470
 6070SOL    HW220050   1.757  14.582   9.430
 6071SOL     OW20051   5.352   8.779   9.139
 6071SOL    HW120052   5.307   8.856   9.173
 6071SOL    HW220053   5.375   8.728   9.216
 6072SOL     OW20054   4.114   4.163  12.393
 6072SOL    HW120055   4.136   4.090  12.334
 6072SOL    HW220056   4.042   4.129  12.447
 6073SOL     OW20057  12.998  14.210   8.777
 6073SOL    HW120058  12.904  14.195   8.778
 6073SOL    HW220059  13.036  14.122   8.785
 6074SOL     OW20060   7.967   6.306   7.174
 6074SOL    HW120061   7.993   6.214   7.182
 6074SOL    HW220062   7.877   6.308   7.205
 6075SOL     OW20063  14.742  14.242   8.395
 6075SOL    HW120064  14.676  14.234   8.326
 6075SOL    HW220065  14.707  14.311   8.452
 6076SOL     OW20066   7.361   9.325   6.872
 6076SOL    HW120067   7.412   9.354   6.796
 6076SOL    HW220068   7.274   9.364   6.858
 6077SOL     OW20069   9.371  10.722  11.495
 6077SOL    HW120070   9.465  10.733  11.478
 6077SOL    HW220071   9.358  10.761  11.581
 6078SOL     OW20072  12.452   6.478  11.314
 6078SOL    HW120073  12.431   6.446  11.401
 6078SOL    HW220074  12.541   6.445  11.298
 6079SOL     OW20075   3.505   5.751  11.789
 6079SOL    HW120076   3.410   5.763  11.789
 6079SOL    HW220077   3.529   5.757  11.696
 6080SOL     OW20078   1.639  12.782  11.174
 6080SOL    HW120079   1.677  12.732  11.246
 6080SOL    HW220080   1.594  12.855  11.216
 6081SOL     OW20081   9.886  13.870  10.803
 6081SOL    HW120082   9.823  13.869  10.875
 6081SOL    HW220083   9.904  13.777  10.785
 6082SOL     OW20084  11.228  10.723  10.687
 6082SOL    HW120085  11.183  10.787  10.742
 6082SOL    HW220086  11.224  10.641  10.737
 6083SOL     OW20087  10.560   7.921  10.131
 6083SOL    HW120088  10.627   7.874  10.180
 6083SOL    HW220089  10.608   7.989  10.083
 6084SOL     OW20090   9.887   3.334   7.497
 6084SOL    HW120091   9.847   3.377   7.422
 6084SOL    HW220092   9.843   3.372   7.573
 6085SOL     OW20093  10.637   2.135   7.763
 6085SOL    HW120094  10.697   2.202   7.729
 6085SOL    HW220095  10.694   2.062   7.786
 6086SOL     OW20096   5.397   2.350   9.205
 6086SOL    HW120097   5.447   2.290   9.261
 6086SOL    HW220098   5.446   2.351   9.123
 6087SOL     OW20099   3.085  10.123   2.877
 6087SOL    HW120100   3.057  10.118   2.785
 6087SOL    HW220101   3.171  10.081   2.877
 6088SOL     OW20102   8.747  13.810   4.924
 6088SOL    HW120103   8.806  13.737   4.908
 6088SOL    HW220104   8.709  13.792   5.010
 6089SOL     OW20105  13.879   9.171  11.228
 6089SOL    HW120106  13.826   9.110  11.280
 6089SOL    HW220107  13.908   9.237  11.290
 6090SOL     OW20108  11.121   9.765   3.737
 6090SOL    HW120109  11.078   9.828   3.794
 6090SOL    HW220110  11.049   9.719   3.693
 6091SOL     OW20111   5.858   9.979   1.987
 6091SOL    HW120112   5.790   9.967   1.920
 6091SOL    HW220113   5.852  10.072   2.011
 6092SOL     OW20114   2.372   1.201   3.717
 6092SOL    HW120115   2.407   1.112   3.722
 6092SOL    HW220116   2.373   1.222   3.624
 6093SOL     OW20117   8.745   2.726   8.177
 6093SOL    HW120118   8.840   2.727   8.187
 6093SOL    HW220119   8.722   2.633   8.189
 6094SOL     OW20120   7.104   4.532   4.313
 6094SOL    HW120121   7.110   4.604   4.251
 6094SOL    HW220122   7.118   4.453   4.260
 6095SOL     OW20123  13.258   5.412   0.046
 6095SOL    HW120124  13.300   5.366  14.853
 6095SOL    HW220125  13.164   5.404   0.029
 6096SOL     OW20126   9.257   2.042  11.688
 6096SOL    HW120127   9.218   2.046  11.601
 6096SOL    HW220128   9.184   2.061  11.747
 6097SOL     OW20129   6.560   7.517   6.455
 6097SOL    HW120130   6.533   7.501   6.545
 6097SOL    HW220131   6.655   7.506   6.455
 6098SOL     OW20132   3.849   1.163  14.637
 6098SOL    HW120133   3.918   1.226  14.616
 6098SOL    HW220134   3.858   1.147  14.731
 6099SOL     OW20135   8.242   5.717   1.605
 6099SOL    HW120136   8.302   5.771   1.656
 6099SOL    HW220137   8.221   5.770   1.528
 6100SOL     OW20138  10.440   5.338  10.069
 6100SOL    HW120139  10.404   5.393  10.138
 6100SOL    HW220140  10.371   5.334  10.003
 6101SOL     OW20141   0.201   1.962   4.207
 6101SOL    HW120142   0.199   1.870   4.235
 6101SOL    HW220143   0.170   2.011   4.283
 6102SOL     OW20144  14.678   1.229   0.857
 6102SOL    HW120145  14.589   1.217   0.821
 6102SOL    HW220146  14.675   1.185   0.942
 6103SOL     OW20147  12.785   8.355   2.072
 6103SOL    HW120148  12.855   8.419   2.061
 6103SOL    HW220149  12.830   8.270   2.072
 6104SOL     OW20150  12.295   3.775   7.172
 6104SOL    HW120151  12.230   3.792   7.240
 6104SOL    HW220152  12.264   3.825   7.097
 6105SOL     OW20153  10.173   8.784   4.309
 6105SOL    HW120154  10.126   8.723   4.366
 6105SOL    HW220155  10.176   8.865   4.359
 6106SOL     OW20156   8.360   6.871   0.228
 6106SOL    HW120157   8.296   6.804   0.205
 6106SOL    HW220158   8.319   6.922   0.298
 6107SOL     OW20159   5.287   2.790   4.523
 6107SOL    HW120160   5.346   2.808   4.450
 6107SOL    HW220161   5.207   2.838   4.501
 6108SOL     OW20162   2.675  11.156   3.603
 6108SOL    HW120163   2.670  11.155   3.698
 6108SOL    HW220164   2.633  11.074   3.576
 6109SOL     OW20165  13.121   7.782   3.486
 6109SOL    HW120166  13.113   7.692   3.517
 6109SOL    HW220167  13.209   7.810   3.513
 6110SOL     OW20168   5.565   8.154   1.416
 6110SOL    HW120169   5.525   8.069   1.397
 6110SOL    HW220170   5.555   8.165   1.511
 6111SOL     OW20171   4.799   2.838   8.466
 6111SOL    HW120172   4.823   2.872   8.552
 6111SOL    HW220173   4.718   2.789   8.481
 6112SOL     OW20174   7.983   9.189   6.817
 6112SOL    HW120175   8.052   9.249   6.793
 6112SOL    HW220176   7.968   9.136   6.738
 6113SOL     OW20177   7.569   5.183   8.298
 6113SOL    HW120178   7.664   5.182   8.296
 6113SOL    HW220179   7.545   5.105   8.348
 6114SOL     OW20180  13.971  10.385   4.135
 6114SOL    HW120181  13.946  10.371   4.044
 6114SOL    HW220182  14.002  10.475   4.138
 6115SOL     OW20183   0.608  10.456   8.222
 6115SOL    HW120184   0.591  10.372   8.264
 6115SOL    HW220185   0.703  10.466   8.227
 6116SOL     OW20186   2.771   5.557  11.900
 6116SOL    HW120187   2.862   5.576  11.877
 6116SOL    HW220188   2.726   5.641  11.892
 6117SOL     OW20189   3.115   3.243   1.286
 6117SOL    HW120190   3.136   3.224   1.378
 6117SOL    HW220191   3.094   3.157   1.248
 6118SOL     OW20192   7.378   1.837   8.997
 6118SOL    HW120193   7.412   1.751   9.021
 6118SOL    HW220194   7.357   1.879   9.081
 6119SOL     OW20195   3.582  13.865  10.277
 6119SOL    HW120196   3.676  13.870  10.262
 6119SOL    HW220197   3.570  13.786  10.330
 6120SOL     OW20198   4.640   0.653   5.990
 6120SOL    HW120199   4.725   0.619   6.015
 6120SOL    HW220200   4.577   0.592   6.029
 6121SOL     OW20201   6.991  13.961   0.813
 6121SOL    HW120202   6.983  14.045   0.858
 6121SOL    HW220203   6.941  13.972   0.732
 6122SOL     OW20204  14.066   0.601   0.524
 6122SOL    HW120205  14.003   0.665   0.490
 6122SOL    HW220206  14.021   0.560   0.598
 6123SOL     OW20207   5.339   2.807  10.308
 6123SOL    HW120208   5.403   2.856  10.360
 6123SOL    HW220209   5.308   2.869  10.243
 6124SOL     OW20210   0.891   3.283   9.013
 6124SOL    HW120211   0.823   3.347   8.993
 6124SOL    HW220212   0.843   3.204   9.038
 6125SOL     OW20213   9.813   5.893  13.872
 6125SOL    HW120214   9.893   5.844  13.855
 6125SOL    HW220215   9.826   5.976  13.826
 6126SOL     OW20216  14.725   0.976   3.980
 6126SOL    HW120217  14.740   1.068   3.961
 6126SOL    HW220218  14.654   0.951   3.921
 6127SOL     OW20219   8.562  13.882  10.961
 6127SOL    HW120220   8.586  13.937  11.036
 6127SOL    HW220221   8.493  13.931  10.917
 6128SOL     OW20222   6.526  10.518   1.180
 6128SOL    HW120223   6.559  10.557   1.099
 6128SOL    HW220224   6.499  10.592   1.234
 6129SOL     OW20225   2.887   1.171   0.794
 6129SOL    HW120226   2.904   1.087   0.837
 6129SOL    HW220227   2.941   1.234   0.843
 6130SOL     OW20228   9.308  11.868   9.963
 6130SOL    HW120229   9.264  11.784   9.978
 6130SOL    HW220230   9.300  11.915  10.046
 6131SOL     OW20231  13.622   0.381   6.536
 6131SOL    HW120232  13.541   0.391   6.485
 6131SOL    HW220233  13.593   0.365   6.625
 6132SOL     OW20234   0.981  14.796   1.897
 6132SOL    HW120235   0.971  14.879   1.852
 6132SOL    HW220236   1.014  14.819   1.984
 6133SOL     OW20237   4.707   7.857  10.058
 6133SOL    HW120238   4.781   7.908  10.027
 6133SOL    HW220239   4.638   7.872   9.993
 6134SOL     OW20240  14.259   6.579   2.475
 6134SOL    HW120241  14.237   6.523   2.401
 6134SOL    HW220242  14.346   6.550   2.503
 6135SOL     OW20243   0.957   0.403   4.568
 6135SOL    HW120244   0.868   0.401   4.606
 6135SOL    HW220245   0.945   0.442   4.481
 6136SOL     OW20246   1.372   1.798  10.865
 6136SOL    HW120247   1.342   1.876  10.911
 6136SOL    HW220248   1.339   1.808  10.776
 6137SOL     OW20249  13.074   7.234   8.658
 6137SOL    HW120250  13.145   7.274   8.608
 6137SOL    HW220251  13.060   7.149   8.617
 6138SOL     OW20252  13.772   5.361  11.748
 6138SOL    HW120253  13.774   5.437  11.806
 6138SOL    HW220254  13.854   5.367  11.698
 6139SOL     OW20255  10.128   4.700   3.012
 6139SOL    HW120256  10.038   4.672   3.028
 6139SOL    HW220257  10.164   4.633   2.955
 6140SOL     OW20258  12.491  10.399   2.733
 6140SOL    HW120259  12.396  10.400   2.729
 6140SOL    HW220260  12.512  10.446   2.814
 6141SOL     OW20261   2.565   0.120  13.526
 6141SOL    HW120262   2.573   0.214  13.542
 6141SOL    HW220263   2.655   0.091  13.509
 6142SOL     OW20264  11.521   9.195   5.695
 6142SOL    HW120265  11.519   9.232   5.783
 6142SOL    HW220266  11.541   9.269   5.638
 6143SOL     OW20267  13.315  10.922   1.474
 6143SOL    HW120268  13.343  10.985   1.408
 6143SOL    HW220269  13.380  10.852   1.470
 6144SOL     OW20270   9.634  10.998  14.194
 6144SOL    HW120271   9.645  10.958  14.108
 6144SOL    HW220272   9.717  10.982  14.239
 6145SOL     OW20273   5.511   8.535   0.269
 6145SOL    HW120274   5.515   8.622   0.230
 6145SOL    HW220275   5.570   8.540   0.345
 6146SOL     OW20276   8.503   5.501  12.305
 6146SOL    HW120277   8.560   5.425  12.297
 6146SOL    HW220278   8.541   5.552  12.377
 6147SOL     OW20279   2.477   1.651   7.966
 6147SOL    HW120280   2.543   1.720   7.955
 6147SOL    HW220281   2.473   1.636   8.060
 6148SOL     OW20282  12.255  12.753  10.545
 6148SOL    HW120283  12.277  12.737  10.636
 6148SOL    HW220284  12.273  12.671  10.500
 6149SOL     OW20285   3.063   7.338  10.613
 6149SOL    HW120286   3.049   7.292  10.531
 6149SOL    HW220287   3.112   7.277  10.667
 6150SOL     OW20288  14.312  13.336  12.774
 6150SOL    HW120289  14.298  13.261  12.717
 6150SOL    HW220290  14.225  13.376  12.783
 6151SOL     OW20291  12.056   9.121   4.245
 6151SOL    HW120292  12.003   9.199   4.263
 6151SOL    HW220293  12.147   9.154   4.245
 6152SOL     OW20294  14.203   1.928  12.339
 6152SOL    HW120295  14.136   1.984  12.377
 6152SOL    HW220296  14.162   1.891  12.261
 6153SOL     OW20297  13.304   1.726  12.797
 6153SOL    HW120298  13.290   1.797  12.734
 6153SOL    HW220299  13.292   1.646  12.746
 6154SOL     OW20300   8.414   1.155  14.878
 6154SOL    HW120301   8.508   1.151  14.859
 6154SOL    HW220302   8.401   1.089   0.067
 6155SOL     OW20303   6.968   7.939  13.136
 6155SOL    HW120304   7.011   7.876  13.195
 6155SOL    HW220305   6.996   8.025  13.169
 6156SOL     OW20306   5.711   6.909   2.739
 6156SOL    HW120307   5.804   6.902   2.717
 6156SOL    HW220308   5.707   6.976   2.807
 6157SOL     OW20309   2.851  12.475   9.944
 6157SOL    HW120310   2.896  12.425   9.876
 6157SOL    HW220311   2.802  12.409   9.993
 6158SOL     OW20312  10.691   4.809   4.009
 6158SOL    HW120313  10.694   4.875   4.078
 6158SOL    HW220314  10.757   4.837   3.946
 6159SOL     OW20315   5.202   9.201  14.579
 6159SOL    HW120316   5.207   9.117  14.534
 6159SOL    HW220317   5.128   9.192  14.639
 6160SOL     OW20318  13.509  13.742   6.243
 6160SOL    HW120319  13.581  13.802   6.265
 6160SOL    HW220320  13.430  13.796   6.250
 6161SOL     OW20321   3.531   6.579   7.143
 6161SOL    HW120322   3.468   6.628   7.090
 6161SOL    HW220323   3.479   6.543   7.215
 6162SOL     OW20324   2.422   1.629   0.712
 6162SOL    HW120325   2.375   1.574   0.649
 6162SOL    HW220326   2.500   1.658   0.665
 6163SOL     OW20327   6.697  10.028   4.559
 6163SOL    HW120328   6.745   9.978   4.493
 6163SOL    HW220329   6.606  10.024   4.532
 6164SOL     OW20330  10.980   7.577  14.818
 6164SOL    HW120331  10.957   7.485  14.805
 6164SOL    HW220332  11.052   7.574   0.002
 6165SOL     OW20333   8.475  10.075   4.555
 6165SOL    HW120334   8.464  10.050   4.647
 6165SOL    HW220335   8.486  10.170   4.558
 6166SOL     OW20336   5.466   1.991  10.633
 6166SOL    HW120337   5.427   1.965  10.717
 6166SOL    HW220338   5.394   1.984  10.571
 6167SOL     OW20339  12.603   4.991   2.652
 6167SOL    HW120340  12.619   4.924   2.585
 6167SOL    HW220341  12.526   5.038   2.621
 6168SOL     OW20342  13.293  10.368   2.393
 6168SOL    HW120343  13.310  10.301   2.459
 6168SOL    HW220344  13.201  10.392   2.407
 6169SOL     OW20345  10.279  11.595   7.222
 6169SOL    HW120346  10.358  11.609   7.171
 6169SOL    HW220347  10.213  11.649   7.179
 6170SOL     OW20348   1.677   6.440   0.726
 6170SOL    HW120349   1.639   6.473   0.645
 6170SOL    HW220350   1.769   6.465   0.721
 6171SOL     OW20351  10.094  10.283   2.158
 6171SOL    HW120352  10.145  10.213   2.200
 6171SOL    HW220353  10.117  10.362   2.208
 6172SOL     OW20354  10.327   0.629   4.107
 6172SOL    HW120355  10.365   0.620   4.020
 6172SOL    HW220356  10.233   0.629   4.092
 6173SOL     OW20357   6.509  14.354   3.820
 6173SOL    HW120358   6.499  14.442   3.783
 6173SOL    HW220359   6.428  14.309   3.794
 6174SOL     OW20360   0.003  12.373  10.783
 6174SOL    HW120361   0.002  12.348  10.690
 6174SOL    HW220362  14.798  12.415  10.797
 6175SOL     OW20363  14.838  10.664   4.506
 6175SOL    HW120364   0.044  10.630   4.533
 6175SOL    HW220365  14.789  10.676   4.587
 6176SOL     OW20366   7.071   3.090  10.527
 6176SOL    HW120367   6.993   3.045  10.561
 6176SOL    HW220368   7.139   3.022  10.526
 6177SOL     OW20369  12.788   3.262  11.910
 6177SOL    HW120370  12.738   3.203  11.967
 6177SOL    HW220371  12.835   3.319  11.970
 6178SOL     OW20372  14.330   7.947  11.475
 6178SOL    HW120373  14.278   7.914  11.548
 6178SOL    HW220374  14.406   7.989  11.516
 6179SOL     OW20375   3.739   8.836   4.794
 6179SOL    HW120376   3.824   8.872   4.819
 6179SOL    HW220377   3.728   8.759   4.850
 6180SOL     OW20378   8.197  10.700   3.055
 6180SOL    HW120379   8.214  10.792   3.036
 6180SOL    HW220380   8.247  10.681   3.135
 6181SOL     OW20381   7.531  11.615   8.977
 6181SOL    HW120382   7.538  11.706   8.947
 6181SOL    HW220383   7.474  11.573   8.913
 6182SOL     OW20384   6.568   0.197   8.077
 6182SOL    HW120385   6.490   0.193   8.022
 6182SOL    HW220386   6.631   0.139   8.033
 6183SOL     OW20387  10.281   1.748   0.971
 6183SOL    HW120388  10.208   1.690   0.993
 6183SOL    HW220389  10.318   1.773   1.056
 6184SOL     OW20390   4.656   6.053  13.351
 6184SOL    HW120391   4.664   6.107  13.272
 6184SOL    HW220392   4.746   6.032  13.376
 6185SOL     OW20393   8.017   4.780  11.751
 6185SOL    HW120394   8.004   4.771  11.845
 6185SOL    HW220395   7.929   4.769  11.714
 6186SOL     OW20396  13.672   0.979   5.019
 6186SOL    HW120397  13.728   1.017   4.951
 6186SOL    HW220398  13.613   0.921   4.971
 6187SOL     OW20399   1.610   5.390  13.316
 6187SOL    HW120400   1.577   5.324  13.255
 6187SOL    HW220401   1.603   5.473  13.268
 6188SOL     OW20402  13.081  12.587  10.322
 6188SOL    HW120403  13.110  12.669  10.284
 6188SOL    HW220404  13.001  12.565  10.275
 6189SOL     OW20405  12.143  14.176  14.133
 6189SOL    HW120406  12.072  14.117  14.156
 6189SOL    HW220407  12.223  14.123  14.142
 6190SOL     OW20408   0.284  13.001   5.369
 6190SOL    HW120409   0.237  12.992   5.453
 6190SOL    HW220410   0.374  12.978   5.390
 6191SOL     OW20411   3.632  12.516  12.278
 6191SOL    HW120412   3.691  12.454  12.320
 6191SOL    HW220413   3.551  12.510  12.329
 6192SOL     OW20414   7.012   1.424   7.854
 6192SOL    HW120415   6.923   1.423   7.818
 6192SOL    HW220416   7.059   1.359   7.802
 6193SOL     OW20417  12.995   5.927   0.898
 6193SOL    HW120418  13.000   5.867   0.972
 6193SOL    HW220419  12.916   5.901   0.851
 6194SOL     OW20420   6.470   4.663  11.547
 6194SOL    HW120421   6.516   4.622  11.473
 6194SOL    HW220422   6.495   4.756  11.541
 6195SOL     OW20423   0.359  13.165  13.244
 6195SOL    HW120424   0.399  13.115  13.173
 6195SOL    HW220425   0.294  13.221  13.201
 6196SOL     OW20426  10.129   5.118   3.824
 6196SOL    HW120427  10.107   5.174   3.898
 6196SOL    HW220428  10.200   5.164   3.779
 6197SOL     OW20429  12.262   4.392   3.272
 6197SOL    HW120430  12.349   4.427   3.293
 6197SOL    HW220431  12.276   4.337   3.196
 6198SOL     OW20432   4.175   1.434   2.564
 6198SOL    HW120433   4.262   1.471   2.578
 6198SOL    HW220434   4.133   1.439   2.650
 6199SOL     OW20435  14.099   2.761   9.257
 6199SOL    HW120436  14.183   2.800   9.280
 6199SOL    HW220437  14.121   2.678   9.216
 6200SOL     OW20438   9.314   4.012  11.274
 6200SOL    HW120439   9.372   3.937  11.265
 6200SOL    HW220440   9.372   4.085  11.293
 6201SOL     OW20441  12.233  14.499   3.565
 6201SOL    HW120442  12.172  14.427   3.548
 6201SOL    HW220443  12.300  14.461   3.622
 6202SOL     OW20444   8.453   1.947   6.586
 6202SOL    HW120445   8.403   1.960   6.506
 6202SOL    HW220446   8.540   1.981   6.566
 6203SOL     OW20447   8.952  12.656   0.542
 6203SOL    HW120448   8.876  12.714   0.550
 6203SOL    HW220449   8.946  12.599   0.619
 6204SOL     OW20450   2.954  11.275   3.507
 6204SOL    HW120451   2.871  11.240   3.540
 6204SOL    HW220452   2.987  11.207   3.448
 6205SOL     OW20453   2.679   9.177   3.749
 6205SOL    HW120454   2.759   9.167   3.801
 6205SOL    HW220455   2.611   9.133   3.800
 6206SOL     OW20456  10.198   2.922   4.079
 6206SOL    HW120457  10.267   2.976   4.117
 6206SOL    HW220458  10.241   2.875   4.008
 6207SOL     OW20459   9.037   3.783   6.683
 6207SOL    HW120460   9.116   3.730   6.692
 6207SOL    HW220461   9.060   3.866   6.726
 6208SOL     OW20462   6.448  13.916   9.992
 6208SOL    HW120463   6.419  14.006  10.005
 6208SOL    HW220464   6.422  13.870  10.072
 6209SOL     OW20465  11.247   0.506  14.372
 6209SOL    HW120466  11.219   0.414  14.372
 6209SOL    HW220467  11.172   0.554  14.335
 6210SOL     OW20468  12.544   5.305   1.576
 6210SOL    HW120469  12.529   5.334   1.485
 6210SOL    HW220470  12.586   5.219   1.567
 6211SOL     OW20471   6.667  12.558   4.924
 6211SOL    HW120472   6.574  12.551   4.903
 6211SOL    HW220473   6.671  12.539   5.018
 6212SOL     OW20474   9.895   3.373   5.662
 6212SOL    HW120475   9.826   3.396   5.724
 6212SOL    HW220476   9.960   3.325   5.713
 6213SOL     OW20477  12.352   4.923  11.739
 6213SOL    HW120478  12.283   4.928  11.806
 6213SOL    HW220479  12.383   5.013  11.730
 6214SOL     OW20480  12.429   5.277   4.708
 6214SOL    HW120481  12.392   5.197   4.745
 6214SOL    HW220482  12.356   5.315   4.657
 6215SOL     OW20483  11.715  10.650   5.698
 6215SOL    HW120484  11.764  10.668   5.779
 6215SOL    HW220485  11.672  10.567   5.714
 6216SOL     OW20486  11.269   0.859   8.720
 6216SOL    HW120487  11.245   0.879   8.629
 6216SOL    HW220488  11.358   0.825   8.714
 6217SOL     OW20489  13.177   5.187   3.004
 6217SOL    HW120490  13.239   5.142   3.061
 6217SOL    HW220491  13.152   5.121   2.939
 6218SOL     OW20492  12.052   7.630  14.165
 6218SOL    HW120493  11.970   7.659  14.125
 6218SOL    HW220494  12.025   7.568  14.233
 6219SOL     OW20495   2.228  13.613   5.308
 6219SOL    HW120496   2.235  13.611   5.404
 6219SOL    HW220497   2.252  13.702   5.284
 6220SOL     OW20498  10.052   8.507  12.706
 6220SOL    HW120499  10.040   8.601  12.721
 6220SOL    HW220500  10.053   8.470  12.794
 6221SOL     OW20501  11.418   8.807   2.952
 6221SOL    HW120502  11.431   8.870   2.881
 6221SOL    HW220503  11.339   8.759   2.928
 6222SOL     OW20504   8.472  12.362   5.734
 6222SOL    HW120505   8.393  12.315   5.762
 6222SOL    HW220506   8.516  12.301   5.674
 6223SOL     OW20507  14.114   1.977   2.109
 6223SOL    HW120508  14.161   2.018   2.036
 6223SOL    HW220509  14.024   2.007   2.099
 6224SOL     OW20510   4.925   7.498  12.254
 6224SOL    HW120511   5.012   7.478  12.219
 6224SOL    HW220512   4.942   7.552  12.331
 6225SOL     OW20513  10.346   6.448   8.650
 6225SOL    HW120514  10.368   6.539   8.672
 6225SOL    HW220515  10.253   6.441   8.671
 6226SOL     OW20516   6.145   5.642   9.576
 6226SOL    HW120517   6.196   5.567   9.544
 6226SOL    HW220518   6.068   5.646   9.519
 6227SOL     OW20519  10.546   1.807  11.598
 6227SOL    HW120520  10.576   1.730  11.647
 6227SOL    HW220521  10.541   1.876  11.664
 6228SOL     OW20522   6.650   9.927   2.219
 6228SOL    HW120523   6.686   9.839   2.228
 6228SOL    HW220524   6.556   9.913   2.207
 6229SOL     OW20525   4.104   5.722  13.018
 6229SOL    HW120526   4.079   5.729  13.109
 6229SOL    HW220527   4.185   5.773  13.011
 6230SOL     OW20528  11.171   3.375   6.228
 6230SOL    HW120529  11.234   3.338   6.290
 6230SOL    HW220530  11.086   3.361   6.269
 6231SOL     OW20531  10.905  10.796   1.332
 6231SOL    HW120532  10.991  10.828   1.303
 6231SOL    HW220533  10.901  10.820   1.425
 6232SOL     OW20534   2.950   5.524  14.325
 6232SOL    HW120535   3.038   5.553  14.303
 6232SOL    HW220536   2.923   5.469  14.252
 6233SOL     OW20537  11.013   9.103   4.376
 6233SOL    HW120538  11.049   9.163   4.442
 6233SOL    HW220539  11.083   9.092   4.312
 6234SOL     OW20540   8.140  12.975   9.574
 6234SOL    HW120541   8.056  12.973   9.620
 6234SOL    HW220542   8.190  12.903   9.613
 6235SOL     OW20543   1.302   8.252   1.206
 6235SOL    HW120544   1.382   8.200   1.200
 6235SOL    HW220545   1.323   8.333   1.159
 6236SOL     OW20546   0.205   2.476   9.085
 6236SOL    HW120547   0.206   2.572   9.088
 6236SOL    HW220548   0.282   2.454   9.032
 6237SOL     OW20549  11.779   5.025   9.939
 6237SOL    HW120550  11.868   5.006   9.907
 6237SOL    HW220551  11.792   5.085  10.012
 6238SOL     OW20552   9.323   6.155  11.554
 6238SOL    HW120553   9.317   6.207  11.635
 6238SOL    HW220554   9.415   6.128  11.550
 6239SOL     OW20555  13.230   5.258  14.325
 6239SOL    HW120556  13.204   5.338  14.279
 6239SOL    HW220557  13.300   5.222  14.270
 6240SOL     OW20558   3.153  14.516  12.945
 6240SOL    HW120559   3.081  14.480  12.997
 6240SOL    HW220560   3.140  14.478  12.858
 6241SOL     OW20561   6.686  12.587   9.719
 6241SOL    HW120562   6.781  12.598   9.719
 6241SOL    HW220563   6.657  12.632   9.799
 6242SOL     OW20564  10.374  10.852  12.290
 6242SOL    HW120565  10.333  10.935  12.314
 6242SOL    HW220566  10.327  10.786  12.341
 6243SOL     OW20567  10.641   5.517   0.634
 6243SOL    HW120568  10.647   5.518   0.730
 6243SOL    HW220569  10.602   5.601   0.612
 6244SOL     OW20570   8.761   0.648   8.692
 6244SOL    HW120571   8.784   0.587   8.762
 6244SOL    HW220572   8.734   0.593   8.619
 6245SOL     OW20573   6.759   9.129  13.030
 6245SOL    HW120574   6.744   9.196  12.963
 6245SOL    HW220575   6.754   9.046  12.981
 6246SOL     OW20576   5.292   8.081   8.689
 6246SOL    HW120577   5.302   8.087   8.784
 6246SOL    HW220578   5.260   8.167   8.662
 6247SOL     OW20579   7.822  13.098   0.720
 6247SOL    HW120580   7.842  13.029   0.656
 6247SOL    HW220581   7.727  13.110   0.713
 6248SOL     OW20582   4.890  14.756   2.280
 6248SOL    HW120583   4.941  14.684   2.319
 6248SOL    HW220584   4.802  14.720   2.270
 6249SOL     OW20585  10.146   2.700   9.229
 6249SOL    HW120586  10.066   2.752   9.225
 6249SOL    HW220587  10.161   2.672   9.139
 6250SOL     OW20588  12.988   2.440  14.680
 6250SOL    HW120589  12.955   2.448  14.590
 6250SOL    HW220590  12.950   2.515  14.726
 6251SOL     OW20591  13.602  14.268   6.957
 6251SOL    HW120592  13.664  14.341   6.951
 6251SOL    HW220593  13.530  14.302   7.010
 6252SOL     OW20594  13.454  13.511   5.720
 6252SOL    HW120595  13.373  13.529   5.768
 6252SOL    HW220596  13.514  13.581   5.747
 6253SOL     OW20597   1.904   0.760  11.074
 6253SOL    HW120598   1.871   0.690  11.019
 6253SOL    HW220599   1.896   0.839  11.020
 6254SOL     OW20600   6.632   1.465   5.198
 6254SOL    HW120601   6.644   1.462   5.293
 6254SOL    HW220602   6.564   1.400   5.180
 6255SOL     OW20603  10.234  11.107  12.255
 6255SOL    HW120604  10.279  11.123  12.172
 6255SOL    HW220605  10.279  11.164  12.317
 6256SOL     OW20606  12.777  14.750  13.725
 6256SOL    HW120607  12.853  14.744  13.783
 6256SOL    HW220608  12.747  14.841  13.734
 6257SOL     OW20609   1.507   3.693   5.982
 6257SOL    HW120610   1.480   3.698   5.891
 6257SOL    HW220611   1.441   3.636   6.023
 6258SOL     OW20612   9.913   2.867  10.899
 6258SOL    HW120613   9.819   2.848  10.895
 6258SOL    HW220614   9.923   2.950  10.853
 6259SOL     OW20615   4.084  12.766   8.865
 6259SOL    HW120616   4.002  12.794   8.824
 6259SOL    HW220617   4.091  12.673   8.845
 6260SOL     OW20618   2.123   1.594   3.654
 6260SOL    HW120619   2.152   1.540   3.581
 6260SOL    HW220620   2.151   1.683   3.632
 6261SOL     OW20621   0.807   4.561  14.402
 6261SOL    HW120622   0.821   4.475  14.442
 6261SOL    HW220623   0.891   4.605  14.410
 6262SOL     OW20624   6.582   2.421   6.436
 6262SOL    HW120625   6.536   2.342   6.467
 6262SOL    HW220626   6.674   2.400   6.447
 6263SOL     OW20627   3.049   8.335   0.806
 6263SOL    HW120628   3.054   8.319   0.901
 6263SOL    HW220629   2.981   8.402   0.797
 6264SOL     OW20630  14.849   7.797  12.432
 6264SOL    HW120631   0.006   7.732  12.370
 6264SOL    HW220632  14.807   7.862  12.376
 6265SOL     OW20633  10.421  10.325   5.715
 6265SOL    HW120634  10.356  10.292   5.653
 6265SOL    HW220635  10.505  10.305   5.674
 6266SOL     OW20636   9.689   3.917  14.677
 6266SOL    HW120637   9.610   3.960  14.644
 6266SOL    HW220638   9.725   3.978  14.741
 6267SOL     OW20639   6.346   3.374  13.830
 6267SOL    HW120640   6.352   3.461  13.870
 6267SOL    HW220641   6.435   3.356  13.799
 6268SOL     OW20642   6.531   8.249  10.511
 6268SOL    HW120643   6.617   8.209  10.519
 6268SOL    HW220644   6.507   8.273  10.601
 6269SOL     OW20645  12.526   3.984   4.732
 6269SOL    HW120646  12.520   4.077   4.756
 6269SOL    HW220647  12.436   3.961   4.706
 6270SOL     OW20648  10.094   2.535  13.144
 6270SOL    HW120649  10.164   2.568  13.200
 6270SOL    HW220650  10.018   2.527  13.202
 6271SOL     OW20651   4.694  14.714   0.422
 6271SOL    HW120652   4.689  14.633   0.473
 6271SOL    HW220653   4.635  14.699   0.348
 6272SOL     OW20654   2.062   3.868  10.171
 6272SOL    HW120655   2.143   3.919  10.179
 6272SOL    HW220656   2.090   3.784  10.136
 6273SOL     OW20657   2.286   7.584   3.766
 6273SOL    HW120658   2.379   7.581   3.743
 6273SOL    HW220659   2.256   7.493   3.758
 6274SOL     OW20660  14.214   3.854   1.630
 6274SOL    HW120661  14.123   3.845   1.603
 6274SOL    HW220662  14.235   3.770   1.671
 6275SOL     OW20663  14.073   3.745  10.870
 6275SOL    HW120664  14.000   3.757  10.809
 6275SOL    HW220665  14.065   3.655  10.900
 6276SOL     OW20666  14.715   6.307  10.625
 6276SOL    HW120667  14.788   6.278  10.679
 6276SOL    HW220668  14.637   6.291  10.679
 6277SOL     OW20669   6.934   0.555  10.277
 6277SOL    HW120670   6.963   0.645  10.263
 6277SOL    HW220671   6.990   0.503  10.220
 6278SOL     OW20672   4.773  12.968  12.791
 6278SOL    HW120673   4.706  13.023  12.751
 6278SOL    HW220674   4.743  12.879  12.775
 6279SOL     OW20675   4.084   8.981  11.886
 6279SOL    HW120676   4.096   8.915  11.954
 6279SOL    HW220677   4.101   9.064  11.929
 6280SOL     OW20678   9.290   9.917  14.418
 6280SOL    HW120679   9.307  10.005  14.383
 6280SOL    HW220680   9.309   9.925  14.512
 6281SOL     OW20681  14.488  10.919   9.169
 6281SOL    HW120682  14.416  10.858   9.185
 6281SOL    HW220683  14.542  10.913   9.247
 6282SOL     OW20684   3.100  10.299   4.796
 6282SOL    HW120685   3.172  10.260   4.847
 6282SOL    HW220686   3.143  10.341   4.722
 6283SOL     OW20687   4.353   4.109   9.222
 6283SOL    HW120688   4.402   4.027   9.222
 6283SOL    HW220689   4.375   4.150   9.306
 6284SOL     OW20690   9.700   0.281   3.224
 6284SOL    HW120691   9.611   0.293   3.257
 6284SOL    HW220692   9.726   0.368   3.192
 6285SOL     OW20693  11.330   9.522  13.599
 6285SOL    HW120694  11.299   9.607  13.629
 6285SOL    HW220695  11.371   9.483  13.677
 6286SOL     OW20696   1.907   3.432  11.337
 6286SOL    HW120697   1.869   3.484  11.266
 6286SOL    HW220698   1.908   3.492  11.412
 6287SOL     OW20699  10.441   6.814   4.217
 6287SOL    HW120700  10.477   6.895   4.180
 6287SOL    HW220701  10.349   6.833   4.233
 6288SOL     OW20702   4.068   0.749   4.789
 6288SOL    HW120703   4.160   0.739   4.814
 6288SOL    HW220704   4.031   0.662   4.798
 6289SOL     OW20705   8.356   8.192  11.948
 6289SOL    HW120706   8.441   8.218  11.983
 6289SOL    HW220707   8.346   8.244  11.868
 6290SOL     OW20708   0.224   1.760   6.750
 6290SOL    HW120709   0.205   1.851   6.773
 6290SOL    HW220710   0.290   1.733   6.814
 6291SOL     OW20711  13.118   1.226  14.075
 6291SOL    HW120712  13.115   1.289  14.002
 6291SOL    HW220713  13.027   1.197  14.085
 6292SOL     OW20714  14.590   8.799   3.606
 6292SOL    HW120715  14.535   8.871   3.638
 6292SOL    HW220716  14.677   8.817   3.642
 6293SOL     OW20717   8.425   2.926  13.259
 6293SOL    HW120718   8.425   3.014  13.221
 6293SOL    HW220719   8.406   2.868  13.185
 6294SOL     OW20720   8.363   4.977   3.975
 6294SOL    HW120721   8.385   4.886   3.995
 6294SOL    HW220722   8.271   4.985   3.999
 6295SOL     OW20723   6.791  10.871   9.607
 6295SOL    HW120724   6.744  10.832   9.680
 6295SOL    HW220725   6.882  10.846   9.621
 6296SOL     OW20726   2.863   8.224  12.440
 6296SOL    HW120727   2.826   8.235  12.527
 6296SOL    HW220728   2.876   8.129  12.432
 6297SOL     OW20729   0.662   5.851   2.440
 6297SOL    HW120730   0.670   5.836   2.346
 6297SOL    HW220731   0.695   5.771   2.480
 6298SOL     OW20732   6.590   7.686   6.851
 6298SOL    HW120733   6.673   7.687   6.804
 6298SOL    HW220734   6.543   7.763   6.818
 6299SOL     OW20735   1.429  13.014   3.535
 6299SOL    HW120736   1.513  13.055   3.514
 6299SOL    HW220737   1.404  13.053   3.618
 6300SOL     OW20738   7.652   7.940   1.328
 6300SOL    HW120739   7.612   7.896   1.254
 6300SOL    HW220740   7.651   7.876   1.399
 6301SOL     OW20741   0.850   9.481   2.228
 6301SOL    HW120742   0.783   9.431   2.181
 6301SOL    HW220743   0.916   9.500   2.161
 6302SOL     OW20744  13.375  12.206   8.892
 6302SOL    HW120745  13.452  12.184   8.840
 6302SOL    HW220746  13.313  12.136   8.876
 6303SOL     OW20747   6.639  14.329   6.509
 6303SOL    HW120748   6.690  14.278   6.446
 6303SOL    HW220749   6.557  14.347   6.465
 6304SOL     OW20750  14.600  14.395   2.798
 6304SOL    HW120751  14.584  14.330   2.866
 6304SOL    HW220752  14.693  14.415   2.805
 6305SOL     OW20753   0.366  14.655   2.011
 6305SOL    HW120754   0.426  14.640   2.084
 6305SOL    HW220755   0.423  14.662   1.934
 6306SOL     OW20756   4.028   1.147  14.365
 6306SOL    HW120757   3.938   1.178  14.362
 6306SOL    HW220758   4.081   1.226  14.370
 6307SOL     OW20759   4.431  12.705   6.963
 6307SOL    HW120760   4.500  12.690   7.027
 6307SOL    HW220761   4.452  12.647   6.890
 6308SOL     OW20762  11.236   5.917  12.124
 6308SOL    HW120763  11.245   5.975  12.049
 6308SOL    HW220764  11.326   5.895  12.148
 6309SOL     OW20765  14.652  13.334   1.465
 6309SOL    HW120766  14.680  13.313   1.554
 6309SOL    HW220767  14.628  13.249   1.427
 6310SOL     OW20768   6.895   1.176   1.158
 6310SOL    HW120769   6.880   1.126   1.078
 6310SOL    HW220770   6.842   1.255   1.147
 6311SOL     OW20771   1.554  10.264  13.758
 6311SOL    HW120772   1.487  10.196  13.748
 6311SOL    HW220773   1.617  10.247  13.688
 6312SOL     OW20774   2.502  10.595   2.217
 6312SOL    HW120775   2.466  10.517   2.259
 6312SOL    HW220776   2.427  10.652   2.202
 6313SOL     OW20777   6.057   8.752   5.712
 6313SOL    HW120778   6.126   8.688   5.729
 6313SOL    HW220779   6.040   8.793   5.796
 6314SOL     OW20780   6.051   6.477   0.680
 6314SOL    HW120781   6.055   6.430   0.597
 6314SOL    HW220782   6.109   6.428   0.739
 6315SOL     OW20783   7.570   2.927   3.907
 6315SOL    HW120784   7.622   2.849   3.922
 6315SOL    HW220785   7.479   2.897   3.915
 6316SOL     OW20786   9.051   9.999  14.297
 6316SOL    HW120787   8.971  10.046  14.321
 6316SOL    HW220788   9.102   9.997  14.378
 6317SOL     OW20789   8.195   3.495  13.210
 6317SOL    HW120790   8.215   3.453  13.294
 6317SOL    HW220791   8.268   3.556  13.197
 6318SOL     OW20792  10.459  11.975   3.961
 6318SOL    HW120793  10.483  11.905   3.900
 6318SOL    HW220794  10.482  12.056   3.915
 6319SOL     OW20795   4.712   2.985   9.680
 6319SOL    HW120796   4.635   3.034   9.711
 6319SOL    HW220797   4.676   2.910   9.634
 6320SOL     OW20798   4.205   5.939   4.546
 6320SOL    HW120799   4.299   5.958   4.545
 6320SOL    HW220800   4.182   5.928   4.453
 6321SOL     OW20801   5.869  12.693   6.956
 6321SOL    HW120802   5.898  12.617   7.006
 6321SOL    HW220803   5.775  12.677   6.940
 6322SOL     OW20804  12.303  13.112   8.938
 6322SOL    HW120805  12.358  13.044   8.899
 6322SOL    HW220806  12.275  13.076   9.022
 6323SOL     OW20807   5.027   5.341  11.201
 6323SOL    HW120808   5.080   5.266  11.229
 6323SOL    HW220809   4.941   5.325  11.239
 6324SOL     OW20810  14.174   6.780   6.062
 6324SOL    HW120811  14.193   6.744   6.149
 6324SOL    HW220812  14.107   6.721   6.026
 6325SOL     OW20813  11.608  11.203  11.794
 6325SOL    HW120814  11.513  11.194  11.806
 6325SOL    HW220815  11.624  11.297  11.797
 6326SOL     OW20816   1.798   2.842   8.371
 6326SOL    HW120817   1.713   2.816   8.337
 6326SOL    HW220818   1.836   2.762   8.407
 6327SOL     OW20819   2.995   8.707  11.753
 6327SOL    HW120820   3.021   8.773  11.817
 6327SOL    HW220821   2.923   8.660  11.795
 6328SOL     OW20822   9.656  14.499   6.854
 6328SOL    HW120823   9.727  14.447   6.817
 6328SOL    HW220824   9.684  14.590   6.842
 6329SOL     OW20825  11.314   4.731   1.987
 6329SOL    HW120826  11.340   4.668   2.053
 6329SOL    HW220827  11.227   4.702   1.960
 6330SOL     OW20828  11.177   3.883   7.221
 6330SOL    HW120829  11.228   3.804   7.205
 6330SOL    HW220830  11.135   3.902   7.137
 6331SOL     OW20831   6.605   6.088  10.532
 6331SOL    HW120832   6.560   6.026  10.473
 6331SOL    HW220833   6.537   6.120  10.590
 6332SOL     OW20834   4.703  10.586   4.960
 6332SOL    HW120835   4.683  10.496   4.986
 6332SOL    HW220836   4.764  10.618   5.027
 6333SOL     OW20837   7.082  10.152   5.013
 6333SOL    HW120838   7.167  10.113   4.994
 6333SOL    HW220839   7.102  10.242   5.039
 6334SOL     OW20840   9.614   7.131   9.061
 6334SOL    HW120841   9.539   7.119   9.003
 6334SOL    HW220842   9.648   7.218   9.039
 6335SOL     OW20843  14.400  13.522   6.116
 6335SOL    HW120844  14.363  13.513   6.203
 6335SOL    HW220845  14.327  13.504   6.057
 6336SOL     OW20846  11.356  13.143   2.446
 6336SOL    HW120847  11.261  13.147   2.440
 6336SOL    HW220848  11.379  13.056   2.412
 6337SOL     OW20849   5.903   8.400  12.693
 6337SOL    HW120850   5.935   8.372  12.779
 6337SOL    HW220851   5.827   8.345  12.676
 6338SOL     OW20852   4.920  10.725  12.663
 6338SOL    HW120853   4.886  10.761  12.582
 6338SOL    HW220854   5.015  10.735  12.657
 6339SOL     OW20855  13.393   0.345   0.083
 6339SOL    HW120856  13.301   0.331   0.107
 6339SOL    HW220857  13.403   0.440   0.079
 6340SOL     OW20858   7.866   6.515   7.654
 6340SOL    HW120859   7.853   6.427   7.689
 6340SOL    HW220860   7.907   6.501   7.569
 6341SOL     OW20861   2.414   5.797   6.174
 6341SOL    HW120862   2.476   5.854   6.127
 6341SOL    HW220863   2.353   5.768   6.106
 6342SOL     OW20864  10.078   1.965  11.398
 6342SOL    HW120865  10.059   2.035  11.460
 6342SOL    HW220866  10.148   1.914  11.439
 6343SOL     OW20867  10.562   4.439  14.231
 6343SOL    HW120868  10.512   4.476  14.304
 6343SOL    HW220869  10.625   4.506  14.208
 6344SOL     OW20870  12.653   4.414   9.891
 6344SOL    HW120871  12.697   4.469   9.956
 6344SOL    HW220872  12.585   4.368   9.941
 6345SOL     OW20873   2.392   0.330   6.176
 6345SOL    HW120874   2.452   0.359   6.108
 6345SOL    HW220875   2.317   0.294   6.129
 6346SOL     OW20876   5.082   8.272   0.284
 6346SOL    HW120877   5.139   8.288   0.208
 6346SOL    HW220878   5.108   8.340   0.347
 6347SOL     OW20879   4.559   2.819  11.821
 6347SOL    HW120880   4.558   2.870  11.740
 6347SOL    HW220881   4.630   2.756  11.809
 6348SOL     OW20882   6.363   8.587  14.037
 6348SOL    HW120883   6.357   8.577  13.942
 6348SOL    HW220884   6.455   8.574  14.057
 6349SOL     OW20885   8.028  11.832   2.374
 6349SOL    HW120886   8.033  11.779   2.295
 6349SOL    HW220887   7.964  11.788   2.429
 6350SOL     OW20888   7.274   5.556   6.383
 6350SOL    HW120889   7.263   5.522   6.472
 6350SOL    HW220890   7.366   5.582   6.379
 6351SOL     OW20891  11.440   2.947   0.132
 6351SOL    HW120892  11.466   2.886   0.201
 6351SOL    HW220893  11.520   2.994   0.111
 6352SOL     OW20894   5.018   6.554  13.595
 6352SOL    HW120895   5.009   6.509  13.511
 6352SOL    HW220896   4.931   6.547  13.635
 6353SOL     OW20897   5.179  13.957  10.516
 6353SOL    HW120898   5.221  13.981  10.598
 6353SOL    HW220899   5.106  13.901  10.542
 6354SOL     OW20900   1.601   9.259   5.298
 6354SOL    HW120901   1.523   9.281   5.349
 6354SOL    HW220902   1.672   9.256   5.363
 6355SOL     OW20903  13.106  11.196  12.582
 6355SOL    HW120904  13.171  11.243  12.634
 6355SOL    HW220905  13.093  11.250  12.504
 6356SOL     OW20906   0.418   2.768  10.596
 6356SOL    HW120907   0.435   2.674  10.596
 6356SOL    HW220908   0.503   2.808  10.615
 6357SOL     OW20909   9.519   0.768   0.388
 6357SOL    HW120910   9.530   0.858   0.356
 6357SOL    HW220911   9.464   0.726   0.322
 6358SOL     OW20912  12.717   2.171  13.114
 6358SOL    HW120913  12.714   2.079  13.086
 6358SOL    HW220914  12.756   2.168  13.202
 6359SOL     OW20915  11.259  14.414   1.600
 6359SOL    HW120916  11.179  14.364   1.582
 6359SOL    HW220917  11.325  14.348   1.621
 6360SOL     OW20918   7.466   4.735   5.494
 6360SOL    HW120919   7.419   4.726   5.577
 6360SOL    HW220920   7.437   4.819   5.459
 6361SOL     OW20921   2.766   9.033   1.985
 6361SOL    HW120922   2.854   9.049   1.951
 6361SOL    HW220923   2.771   9.056   2.078
 6362SOL     OW20924  10.625   3.940   8.590
 6362SOL    HW120925  10.567   3.929   8.665
 6362SOL    HW220926  10.689   4.005   8.618
 6363SOL     OW20927  14.597   2.006   7.375
 6363SOL    HW120928  14.520   1.994   7.430
 6363SOL    HW220929  14.661   2.047   7.433
 6364SOL     OW20930  13.971  13.799   5.939
 6364SOL    HW120931  13.939  13.722   5.892
 6364SOL    HW220932  13.893  13.852   5.954
 6365SOL     OW20933   7.582   6.261  11.374
 6365SOL    HW120934   7.537   6.327  11.320
 6365SOL    HW220935   7.524   6.185  11.373
 6366SOL     OW20936   8.061  13.522   4.075
 6366SOL    HW120937   8.018  13.444   4.039
 6366SOL    HW220938   8.099  13.492   4.158
 6367SOL     OW20939   5.068   1.718   5.103
 6367SOL    HW120940   4.978   1.692   5.121
 6367SOL    HW220941   5.095   1.766   5.181
 6368SOL     OW20942   2.653  10.380   8.588
 6368SOL    HW120943   2.595  10.330   8.645
 6368SOL    HW220944   2.599  10.451   8.554
 6369SOL     OW20945   0.697   2.771   3.278
 6369SOL    HW120946   0.704   2.803   3.368
 6369SOL    HW220947   0.755   2.696   3.275
 6370SOL     OW20948   1.960   6.969   3.202
 6370SOL    HW120949   2.009   6.986   3.122
 6370SOL    HW220950   1.868   6.976   3.176
 6371SOL     OW20951   9.226   9.962  12.115
 6371SOL    HW120952   9.315   9.961  12.080
 6371SOL    HW220953   9.171   9.939  12.041
 6372SOL     OW20954   8.971   6.364  13.151
 6372SOL    HW120955   8.912   6.412  13.209
 6372SOL    HW220956   8.980   6.278  13.191
 6373SOL     OW20957   1.590   6.892   5.010
 6373SOL    HW120958   1.650   6.857   4.944
 6373SOL    HW220959   1.509   6.844   4.996
 6374SOL     OW20960   6.672  11.137   3.578
 6374SOL    HW120961   6.601  11.201   3.583
 6374SOL    HW220962   6.656  11.089   3.497
 6375SOL     OW20963  12.720   2.569   7.029
 6375SOL    HW120964  12.736   2.596   6.938
 6375SOL    HW220965  12.807   2.555   7.065
 6376SOL     OW20966   6.206   0.648   7.222
 6376SOL    HW120967   6.275   0.633   7.158
 6376SOL    HW220968   6.126   0.653   7.170
 6377SOL     OW20969  12.117   2.271  11.868
 6377SOL    HW120970  12.046   2.334  11.879
 6377SOL    HW220971  12.095   2.224  11.788
 6378SOL     OW20972   1.706   2.147  14.306
 6378SOL    HW120973   1.795   2.166  14.336
 6378SOL    HW220974   1.718   2.086  14.233
 6379SOL     OW20975   5.902   1.215   5.249
 6379SOL    HW120976   5.836   1.145   5.245
 6379SOL    HW220977   5.852   1.293   5.275
 6380SOL     OW20978   9.846   0.257  11.678
 6380SOL    HW120979   9.763   0.239  11.722
 6380SOL    HW220980   9.883   0.171  11.659
 6381SOL     OW20981  14.277   9.027   1.152
 6381SOL    HW120982  14.239   9.078   1.081
 6381SOL    HW220983  14.255   8.936   1.130
 6382SOL     OW20984   6.090   4.761  10.049
 6382SOL    HW120985   6.086   4.854  10.028
 6382SOL    HW220986   6.062   4.716   9.969
 6383SOL     OW20987   0.754   7.968  12.185
 6383SOL    HW120988   0.740   7.933  12.273
 6383SOL    HW220989   0.812   8.043  12.198
 6384SOL     OW20990   1.764   0.561   7.175
 6384SOL    HW120991   1.836   0.624   7.167
 6384SOL    HW220992   1.760   0.518   7.089
 6385SOL     OW20993  11.886  11.825  14.527
 6385SOL    HW120994  11.860  11.871  14.447
 6385SOL    HW220995  11.976  11.799  14.512
 6386SOL     OW20996   8.461  12.417   7.917
 6386SOL    HW120997   8.501  12.470   7.985
 6386SOL    HW220998   8.465  12.471   7.838
 6387SOL     OW20999  14.306  11.671   3.512
 6387SOL    HW121000  14.391  11.660   3.468
 6387SOL    HW221001  14.274  11.756   3.483
 6388SOL     OW21002   8.983  13.524   6.267
 6388SOL    HW121003   8.936  13.464   6.209
 6388SOL    HW221004   9.003  13.472   6.345
 6389SOL     OW21005   1.009  11.032  12.539
 6389SOL    HW121006   1.000  11.099  12.472
 6389SOL    HW221007   1.013  10.950  12.490
 6390SOL     OW21008  12.307  13.073   6.337
 6390SOL    HW121009  12.336  12.988   6.370
 6390SOL    HW221010  12.336  13.136   6.403
 6391SOL     OW21011   5.763  13.040   5.196
 6391SOL    HW121012   5.677  12.998   5.192
 6391SOL    HW221013   5.779  13.070   5.107
 6392SOL     OW21014   5.989  14.403   7.712
 6392SOL    HW121015   6.028  14.462   7.647
 6392SOL    HW221016   6.064  14.355   7.747
 6393SOL     OW21017   9.664   4.977   4.394
 6393SOL    HW121018   9.602   5.049   4.385
 6393SOL    HW221019   9.748   5.020   4.410
 6394SOL     OW21020   8.413   1.010   3.441
 6394SOL    HW121021   8.434   1.103   3.453
 6394SOL    HW221022   8.319   1.005   3.453
 6395SOL     OW21023   3.456   6.807  11.746
 6395SOL    HW121024   3.507   6.887  11.731
 6395SOL    HW221025   3.365   6.834  11.734
 6396SOL     OW21026   2.422   2.160  14.385
 6396SOL    HW121027   2.465   2.141  14.301
 6396SOL    HW221028   2.329   2.165  14.363
 6397SOL     OW21029   6.019   6.219   1.042
 6397SOL    HW121030   6.079   6.272   0.988
 6397SOL    HW221031   6.077   6.157   1.086
 6398SOL     OW21032   4.753  14.268  11.021
 6398SOL    HW121033   4.732  14.355  10.987
 6398SOL    HW221034   4.832  14.242  10.973
 6399SOL     OW21035  11.474   2.972   3.099
 6399SOL    HW121036  11.472   3.022   3.018
 6399SOL    HW221037  11.443   3.032   3.166
 6400SOL     OW21038   8.473   2.260   2.066
 6400SOL    HW121039   8.479   2.183   2.123
 6400SOL    HW221040   8.502   2.333   2.121
 6401SOL     OW21041   4.721  10.999   5.454
 6401SOL    HW121042   4.737  10.931   5.519
 6401SOL    HW221043   4.765  10.968   5.375
 6402SOL     OW21044  13.079   1.088  12.226
 6402SOL    HW121045  13.033   1.025  12.281
 6402SOL    HW221046  13.013   1.120  12.165
 6403SOL     OW21047   5.868   5.273  12.696
 6403SOL    HW121048   5.906   5.352  12.733
 6403SOL    HW221049   5.775   5.278  12.717
 6404SOL     OW21050   3.586  11.977  10.121
 6404SOL    HW121051   3.502  11.973  10.167
 6404SOL    HW221052   3.603  12.071  10.111
 6405SOL     OW21053  10.147   9.775   0.559
 6405SOL    HW121054  10.085   9.740   0.624
 6405SOL    HW221055  10.216   9.816   0.612
 6406SOL     OW21056   0.777  14.684   0.652
 6406SOL    HW121057   0.684  14.705   0.659
 6406SOL    HW221058   0.786  14.599   0.694
 6407SOL     OW21059  11.941  10.418   3.162
 6407SOL    HW121060  12.002  10.464   3.220
 6407SOL    HW221061  11.989  10.407   3.080
 6408SOL     OW21062   5.516   2.601   4.992
 6408SOL    HW121063   5.560   2.516   4.992
 6408SOL    HW221064   5.548   2.645   4.913
 6409SOL     OW21065   6.701   6.068   6.570
 6409SOL    HW121066   6.721   6.122   6.646
 6409SOL    HW221067   6.608   6.046   6.580
 6410SOL     OW21068   2.700   2.679  12.271
 6410SOL    HW121069   2.634   2.719  12.327
 6410SOL    HW221070   2.770   2.653  12.331
 6411SOL     OW21071  11.882   3.698   9.684
 6411SOL    HW121072  11.816   3.724   9.620
 6411SOL    HW221073  11.836   3.639   9.744
 6412SOL     OW21074   9.081   7.750  13.187
 6412SOL    HW121075   9.050   7.840  13.177
 6412SOL    HW221076   9.037   7.701  13.117
 6413SOL     OW21077  14.801   1.932  11.985
 6413SOL    HW121078  14.793   2.002  11.920
 6413SOL    HW221079  14.800   1.851  11.933
 6414SOL     OW21080  10.852   9.764  10.567
 6414SOL    HW121081  10.812   9.683  10.596
 6414SOL    HW221082  10.801   9.790  10.490
 6415SOL     OW21083   5.352   0.956   0.901
 6415SOL    HW121084   5.425   0.958   0.839
 6415SOL    HW221085   5.285   1.012   0.860
 6416SOL     OW21086   6.178  12.183  14.518
 6416SOL    HW121087   6.133  12.170  14.602
 6416SOL    HW221088   6.269  12.201  14.543
 6417SOL     OW21089   0.832  14.234  12.198
 6417SOL    HW121090   0.875  14.281  12.270
 6417SOL    HW221091   0.824  14.144  12.229
 6418SOL     OW21092   4.325  10.144   4.023
 6418SOL    HW121093   4.300  10.053   4.006
 6418SOL    HW221094   4.246  10.195   4.002
 6419SOL     OW21095  10.502   2.018   8.353
 6419SOL    HW121096  10.463   1.993   8.437
 6419SOL    HW221097  10.575   1.957   8.341
 6420SOL     OW21098   1.004   4.216   8.490
 6420SOL    HW121099   0.932   4.175   8.444
 6420SOL    HW221100   0.994   4.190   8.581
 6421SOL     OW21101   9.212   9.021   3.786
 6421SOL    HW121102   9.122   9.015   3.817
 6421SOL    HW221103   9.211   8.976   3.701
 6422SOL     OW21104  11.313   2.423   5.441
 6422SOL    HW121105  11.275   2.419   5.529
 6422SOL    HW221106  11.304   2.334   5.407
 6423SOL     OW21107   0.871  13.313  14.246
 6423SOL    HW121108   0.916  13.232  14.221
 6423SOL    HW221109   0.779  13.288  14.255
 6424SOL     OW21110  11.355   1.035  11.346
 6424SOL    HW121111  11.296   1.109  11.357
 6424SOL    HW221112  11.399   1.051  11.263
 6425SOL     OW21113   8.695   2.288  14.248
 6425SOL    HW121114   8.700   2.206  14.199
 6425SOL    HW221115   8.783   2.302  14.282
 6426SOL     OW21116  10.025   0.329   5.713
 6426SOL    HW121117   9.931   0.348   5.717
 6426SOL    HW221118  10.062   0.378   5.787
 6427SOL     OW21119  11.800   2.676   8.271
 6427SOL    HW121120  11.840   2.744   8.216
 6427SOL    HW221121  11.867   2.609   8.279
 6428SOL     OW21122   8.492   3.006   2.414
 6428SOL    HW121123   8.500   2.930   2.472
 6428SOL    HW221124   8.428   3.063   2.457
 6429SOL     OW21125   4.807   5.551  13.397
 6429SOL    HW121126   4.721   5.517  13.422
 6429SOL    HW221127   4.869   5.483  13.425
 6430SOL     OW21128  10.547   2.631   8.202
 6430SOL    HW121129  10.630   2.673   8.224
 6430SOL    HW221130  10.482   2.674   8.257
 6431SOL     OW21131  10.387  13.136  12.176
 6431SOL    HW121132  10.328  13.082  12.124
 6431SOL    HW221133  10.344  13.145  12.261
 6432SOL     OW21134  12.491   6.436   2.151
 6432SOL    HW121135  12.402   6.421   2.182
 6432SOL    HW221136  12.529   6.495   2.216
 6433SOL     OW21137   1.101   7.297  14.188
 6433SOL    HW121138   1.061   7.317  14.273
 6433SOL    HW221139   1.092   7.202  14.179
 6434SOL     OW21140  13.214  13.434   7.958
 6434SOL    HW121141  13.214  13.436   7.862
 6434SOL    HW221142  13.264  13.511   7.984
 6435SOL     OW21143   0.092   8.894   6.503
 6435SOL    HW121144   0.156   8.961   6.481
 6435SOL    HW221145   0.094   8.833   6.430
 6436SOL     OW21146  10.628   0.171   8.820
 6436SOL    HW121147  10.646   0.263   8.841
 6436SOL    HW221148  10.532   0.166   8.817
 6437SOL     OW21149  11.441   2.859  10.686
 6437SOL    HW121150  11.476   2.915  10.617
 6437SOL    HW221151  11.353   2.892  10.702
 6438SOL     OW21152   9.330   2.509   9.780
 6438SOL    HW121153   9.311   2.506   9.874
 6438SOL    HW221154   9.269   2.447   9.741
 6439SOL     OW21155   0.079   2.429   0.539
 6439SOL    HW121156   0.155   2.487   0.540
 6439SOL    HW221157   0.008   2.483   0.506
 6440SOL     OW21158   1.289   8.309   7.298
 6440SOL    HW121159   1.241   8.232   7.269
 6440SOL    HW221160   1.323   8.348   7.218
 6441SOL     OW21161   8.757   7.028   2.600
 6441SOL    HW121162   8.807   7.009   2.680
 6441SOL    HW221163   8.707   7.107   2.621
 6442SOL     OW21164   4.474   6.243   4.644
 6442SOL    HW121165   4.526   6.288   4.578
 6442SOL    HW221166   4.491   6.150   4.629
 6443SOL     OW21167   5.099   5.898  10.954
 6443SOL    HW121168   5.090   5.838  10.880
 6443SOL    HW221169   5.148   5.972  10.919
 6444SOL     OW21170  11.519  13.838  10.218
 6444SOL    HW121171  11.429  13.810  10.205
 6444SOL    HW221172  11.560  13.767  10.266
 6445SOL     OW21173  10.672  10.077  13.605
 6445SOL    HW121174  10.765  10.084  13.628
 6445SOL    HW221175  10.640  10.167  13.607
 6446SOL     OW21176  11.004  10.765  12.234
 6446SOL    HW121177  10.992  10.690  12.292
 6446SOL    HW221178  11.076  10.741  12.177
 6447SOL     OW21179   7.175  12.860  13.556
 6447SOL    HW121180   7.081  12.855  13.572
 6447SOL    HW221181   7.211  12.899  13.636
 6448SOL     OW21182  12.560   9.325   1.596
 6448SOL    HW121183  12.588   9.410   1.561
 6448SOL    HW221184  12.634   9.267   1.579
 6449SOL     OW21185   1.945   6.013  10.054
 6449SOL    HW121186   1.923   5.945   9.990
 6449SOL    HW221187   1.869   6.072  10.053
 6450SOL     OW21188   3.883   7.117   4.696
 6450SOL    HW121189   3.887   7.078   4.608
 6450SOL    HW221190   3.792   7.107   4.722
 6451SOL     OW21191   1.143  13.829   4.836
 6451SOL    HW121192   1.185  13.790   4.759
 6451SOL    HW221193   1.125  13.919   4.810
 6452SOL     OW21194   5.738  12.578   3.801
 6452SOL    HW121195   5.693  12.496   3.782
 6452SOL    HW221196   5.764  12.611   3.715
 6453SOL     OW21197   4.325   1.799  13.731
 6453SOL    HW121198   4.324   1.758  13.644
 6453SOL    HW221199   4.357   1.730  13.789
 6454SOL     OW21200  10.646   0.173   3.798
 6454SOL    HW121201  10.687   0.087   3.802
 6454SOL    HW221202  10.554   0.155   3.778
 6455SOL     OW21203  10.130   8.023   7.536
 6455SOL    HW121204  10.138   8.103   7.484
 6455SOL    HW221205  10.099   7.957   7.474
 6456SOL     OW21206  10.792   7.576   4.867
 6456SOL    HW121207  10.700   7.584   4.893
 6456SOL    HW221208  10.811   7.659   4.823
 6457SOL     OW21209   7.660   6.453   3.738
 6457SOL    HW121210   7.708   6.408   3.669
 6457SOL    HW221211   7.568   6.436   3.718
 6458SOL     OW21212   2.810   7.053  13.947
 6458SOL    HW121213   2.782   7.126  14.002
 6458SOL    HW221214   2.755   6.979  13.975
 6459SOL     OW21215  11.003   6.439   3.535
 6459SOL    HW121216  11.075   6.378   3.549
 6459SOL    HW221217  10.933   6.407   3.591
 6460SOL     OW21218  12.747   5.149   8.716
 6460SOL    HW121219  12.799   5.230   8.721
 6460SOL    HW221220  12.805   5.082   8.753
 6461SOL     OW21221   1.441   8.056   7.505
 6461SOL    HW121222   1.416   8.127   7.446
 6461SOL    HW221223   1.424   7.976   7.454
 6462SOL     OW21224   0.061   9.395   8.570
 6462SOL    HW121225  14.871   9.392   8.504
 6462SOL    HW221226   0.018   9.371   8.652
 6463SOL     OW21227   9.040   4.659  10.474
 6463SOL    HW121228   9.128   4.644  10.438
 6463SOL    HW221229   9.047   4.744  10.517
 6464SOL     OW21230   1.063   4.359   2.138
 6464SOL    HW121231   1.040   4.277   2.182
 6464SOL    HW221232   1.074   4.422   2.209
 6465SOL     OW21233  11.194   9.835   4.228
 6465SOL    HW121234  11.128   9.889   4.183
 6465SOL    HW221235  11.277   9.879   4.209
 6466SOL     OW21236  12.507   0.892   1.945
 6466SOL    HW121237  12.474   0.802   1.945
 6466SOL    HW221238  12.467   0.932   2.023
 6467SOL     OW21239   2.878   7.262  12.496
 6467SOL    HW121240   2.880   7.185  12.439
 6467SOL    HW221241   2.830   7.233  12.574
 6468SOL     OW21242   2.832  11.831   8.251
 6468SOL    HW121243   2.770  11.840   8.324
 6468SOL    HW221244   2.784  11.782   8.185
 6469SOL     OW21245   5.495   2.248   1.637
 6469SOL    HW121246   5.452   2.224   1.555
 6469SOL    HW221247   5.522   2.164   1.675
 6470SOL     OW21248  11.592   9.530  11.365
 6470SOL    HW121249  11.629   9.442  11.354
 6470SOL    HW221250  11.541   9.544  11.286
 6471SOL     OW21251   3.486   5.805   9.868
 6471SOL    HW121252   3.453   5.723   9.831
 6471SOL    HW221253   3.546   5.839   9.803
 6472SOL     OW21254  12.092  13.327   2.583
 6472SOL    HW121255  12.009  13.362   2.550
 6472SOL    HW221256  12.075  13.307   2.675
 6473SOL     OW21257  14.374   6.948   3.164
 6473SOL    HW121258  14.407   6.927   3.077
 6473SOL    HW221259  14.436   7.012   3.199
 6474SOL     OW21260   9.979   7.420  11.408
 6474SOL    HW121261   9.923   7.497  11.397
 6474SOL    HW221262   9.973   7.399  11.501
 6475SOL     OW21263   0.699   7.745   8.808
 6475SOL    HW121264   0.695   7.721   8.715
 6475SOL    HW221265   0.657   7.671   8.853
 6476SOL     OW21266   1.585  12.774   2.622
 6476SOL    HW121267   1.602  12.865   2.645
 6476SOL    HW221268   1.590  12.771   2.527
 6477SOL     OW21269   6.085   1.511  10.241
 6477SOL    HW121270   6.038   1.594  10.231
 6477SOL    HW221271   6.161   1.533  10.295
 6478SOL     OW21272   6.739   6.100  11.609
 6478SOL    HW121273   6.831   6.114  11.633
 6478SOL    HW221274   6.734   6.125  11.516
 6479SOL     OW21275   7.483  10.503   3.060
 6479SOL    HW121276   7.521  10.584   3.028
 6479SOL    HW221277   7.467  10.451   2.981
 6480SOL     OW21278  11.087   4.729   3.524
 6480SOL    HW121279  11.111   4.637   3.534
 6480SOL    HW221280  11.165   4.769   3.484
 6481SOL     OW21281   6.325   6.158  12.412
 6481SOL    HW121282   6.379   6.145  12.490
 6481SOL    HW221283   6.320   6.253  12.402
 6482SOL     OW21284  12.772   6.622  13.163
 6482SOL    HW121285  12.827   6.636  13.085
 6482SOL    HW221286  12.831   6.582  13.227
 6483SOL     OW21287   0.680   4.786   3.345
 6483SOL    HW121288   0.755   4.845   3.357
 6483SOL    HW221289   0.614   4.819   3.406
 6484SOL     OW21290   5.688  11.697   2.302
 6484SOL    HW121291   5.656  11.722   2.215
 6484SOL    HW221292   5.693  11.602   2.299
 6485SOL     OW21293   3.212   7.199  14.767
 6485SOL    HW121294   3.232   7.247  14.848
 6485SOL    HW221295   3.239   7.109  14.785
 6486SOL     OW21296   7.237  11.390   6.910
 6486SOL    HW121297   7.147  11.422   6.915
 6486SOL    HW221298   7.229  11.295   6.908
 6487SOL     OW21299  14.186  10.197   2.942
 6487SOL    HW121300  14.123  10.268   2.951
 6487SOL    HW221301  14.139  10.130   2.893
 6488SOL     OW21302   6.687  12.392   5.809
 6488SOL    HW121303   6.717  12.330   5.875
 6488SOL    HW221304   6.633  12.455   5.858
 6489SOL     OW21305  11.740  11.237   0.233
 6489SOL    HW121306  11.790  11.239   0.315
 6489SOL    HW221307  11.763  11.319   0.190
 6490SOL     OW21308   4.787   7.870   2.661
 6490SOL    HW121309   4.780   7.957   2.702
 6490SOL    HW221310   4.809   7.811   2.734
 6491SOL     OW21311  14.303  11.789   0.034
 6491SOL    HW121312  14.304  11.884   0.017
 6491SOL    HW221313  14.217  11.772   0.072
 6492SOL     OW21314   4.477   0.874   9.414
 6492SOL    HW121315   4.409   0.930   9.453
 6492SOL    HW221316   4.551   0.933   9.400
 6493SOL     OW21317  11.919   3.890   4.162
 6493SOL    HW121318  11.857   3.930   4.223
 6493SOL    HW221319  11.879   3.805   4.140
 6494SOL     OW21320   8.893   2.122   0.621
 6494SOL    HW121321   8.925   2.073   0.697
 6494SOL    HW221322   8.798   2.106   0.620
 6495SOL     OW21323   9.012   4.896   5.285
 6495SOL    HW121324   8.984   4.987   5.278
 6495SOL    HW221325   9.094   4.900   5.335
 6496SOL     OW21326   8.084   3.621   3.063
 6496SOL    HW121327   8.060   3.593   3.151
 6496SOL    HW221328   8.142   3.552   3.031
 6497SOL     OW21329   7.444   3.195   7.794
 6497SOL    HW121330   7.423   3.109   7.831
 6497SOL    HW221331   7.400   3.258   7.852
 6498SOL     OW21332   5.906   4.493  12.008
 6498SOL    HW121333   5.919   4.446  12.090
 6498SOL    HW221334   5.955   4.574  12.019
 6499SOL     OW21335   8.899   3.318  12.769
 6499SOL    HW121336   8.988   3.346  12.790
 6499SOL    HW221337   8.842   3.379  12.817
 6500SOL     OW21338   2.242   4.103   6.825
 6500SOL    HW121339   2.210   4.104   6.915
 6500SOL    HW221340   2.332   4.133   6.831
 6501SOL     OW21341   2.505  14.532   1.108
 6501SOL    HW121342   2.410  14.520   1.111
 6501SOL    HW221343   2.530  14.541   1.200
 6502SOL     OW21344   9.602   6.638  10.062
 6502SOL    HW121345   9.697   6.626  10.055
 6502SOL    HW221346   9.569   6.552  10.090
 6503SOL     OW21347   5.689   8.138   9.959
 6503SOL    HW121348   5.657   8.175  10.042
 6503SOL    HW221349   5.746   8.207   9.924
 6504SOL     OW21350  14.184  12.896   0.786
 6504SOL    HW121351  14.223  12.835   0.723
 6504SOL    HW221352  14.103  12.855   0.813
 6505SOL     OW21353  11.313   7.917  11.949
 6505SOL    HW121354  11.373   7.988  11.973
 6505SOL    HW221355  11.309   7.861  12.027
 6506SOL     OW21356  13.995  12.207   6.784
 6506SOL    HW121357  13.985  12.194   6.878
 6506SOL    HW221358  14.078  12.255   6.776
 6507SOL     OW21359   3.763   3.970  11.438
 6507SOL    HW121360   3.695   3.908  11.464
 6507SOL    HW221361   3.722   4.022  11.368
 6508SOL     OW21362  14.045   7.157  12.532
 6508SOL    HW121363  14.092   7.202  12.462
 6508SOL    HW221364  14.113   7.106  12.577
 6509SOL     OW21365   7.551   1.160   4.936
 6509SOL    HW121366   7.641   1.129   4.925
 6509SOL    HW221367   7.532   1.206   4.854
 6510SOL     OW21368   6.058  11.971   5.544
 6510SOL    HW121369   6.107  11.922   5.477
 6510SOL    HW221370   6.099  12.057   5.544
 6511SOL     OW21371   9.892   2.408   5.892
 6511SOL    HW121372   9.975   2.366   5.870
 6511SOL    HW221373   9.884   2.480   5.829
 6512SOL     OW21374   5.535   6.073   8.963
 6512SOL    HW121375   5.531   6.093   9.056
 6512SOL    HW221376   5.614   6.021   8.952
 6513SOL     OW21377   8.185   7.058   8.291
 6513SOL    HW121378   8.221   7.146   8.277
 6513SOL    HW221379   8.104   7.057   8.240
 6514SOL     OW21380  10.374  14.609  10.523
 6514SOL    HW121381  10.441  14.586  10.586
 6514SOL    HW221382  10.302  14.645  10.576
 6515SOL     OW21383  13.562   6.017   4.350
 6515SOL    HW121384  13.507   6.067   4.290
 6515SOL    HW221385  13.626   5.974   4.294
 6516SOL     OW21386   4.883   4.996   9.031
 6516SOL    HW121387   4.904   4.943   9.108
 6516SOL    HW221388   4.840   5.074   9.066
 6517SOL     OW21389   6.907   1.798   2.261
 6517SOL    HW121390   6.882   1.876   2.311
 6517SOL    HW221391   6.825   1.751   2.247
 6518SOL     OW21392  12.091   8.287  11.492
 6518SOL    HW121393  12.063   8.377  11.508
 6518SOL    HW221394  12.027   8.233  11.539
 6519SOL     OW21395   0.766   0.604   0.075
 6519SOL    HW121396   0.825   0.640   0.009
 6519SOL    HW221397   0.679   0.632   0.047
 6520SOL     OW21398  13.696  10.352  12.775
 6520SOL    HW121399  13.742  10.414  12.832
 6520SOL    HW221400  13.701  10.392  12.688
 6521SOL     OW21401  10.833  14.364   7.887
 6521SOL    HW121402  10.881  14.395   7.811
 6521SOL    HW221403  10.897  14.363   7.958
 6522SOL     OW21404  10.053   6.522   8.764
 6522SOL    HW121405   9.988   6.480   8.820
 6522SOL    HW221406  10.056   6.613   8.794
 6523SOL     OW21407   8.265   6.838  11.916
 6523SOL    HW121408   8.305   6.785  11.848
 6523SOL    HW221409   8.310   6.812  11.997
 6524SOL     OW21410   6.894  10.348   4.858
 6524SOL    HW121411   6.958  10.342   4.929
 6524SOL    HW221412   6.942  10.387   4.785
 6525SOL     OW21413   5.742   5.856   0.957
 6525SOL    HW121414   5.833   5.830   0.942
 6525SOL    HW221415   5.725   5.923   0.890
 6526SOL     OW21416   4.057  10.196  14.768
 6526SOL    HW121417   4.104  10.241  14.838
 6526SOL    HW221418   4.078  10.245  14.689
 6527SOL     OW21419  14.633  10.363   6.230
 6527SOL    HW121420  14.596  10.392   6.313
 6527SOL    HW221421  14.679  10.281   6.252
 6528SOL     OW21422  10.889   8.895  12.745
 6528SOL    HW121423  10.974   8.937  12.732
 6528SOL    HW221424  10.835   8.964  12.784
 6529SOL     OW21425   8.220   2.722   7.096
 6529SOL    HW121426   8.170   2.789   7.142
 6529SOL    HW221427   8.191   2.640   7.134
 6530SOL     OW21428   5.560   5.696  11.970
 6530SOL    HW121429   5.465   5.692  11.979
 6530SOL    HW221430   5.582   5.787  11.990
 6531SOL     OW21431   4.042  14.851  11.620
 6531SOL    HW121432   4.081  14.784  11.563
 6531SOL    HW221433   3.950  14.829  11.624
 6532SOL     OW21434   3.103   1.622   9.642
 6532SOL    HW121435   3.066   1.558   9.580
 6532SOL    HW221436   3.031   1.684   9.656
 6533SOL     OW21437   4.252   5.083   5.492
 6533SOL    HW121438   4.214   5.014   5.437
 6533SOL    HW221439   4.315   5.126   5.436
 6534SOL     OW21440   1.594   7.725  14.128
 6534SOL    HW121441   1.511   7.709  14.082
 6534SOL    HW221442   1.652   7.656  14.095
 6535SOL     OW21443   1.401   5.238   6.670
 6535SOL    HW121444   1.452   5.258   6.749
 6535SOL    HW221445   1.311   5.260   6.693
 6536SOL     OW21446   3.423   1.954  14.587
 6536SOL    HW121447   3.422   1.992  14.499
 6536SOL    HW221448   3.432   2.029  14.646
 6537SOL     OW21449   6.399   8.332   7.780
 6537SOL    HW121450   6.447   8.360   7.702
 6537SOL    HW221451   6.467   8.306   7.842
 6538SOL     OW21452   1.024   9.023   7.670
 6538SOL    HW121453   0.957   9.091   7.662
 6538SOL    HW221454   1.020   8.996   7.762
 6539SOL     OW21455   1.620   8.518   3.623
 6539SOL    HW121456   1.557   8.579   3.661
 6539SOL    HW221457   1.705   8.546   3.657
 6540SOL     OW21458   7.827   3.043   3.941
 6540SOL    HW121459   7.871   2.965   3.976
 6540SOL    HW221460   7.759   3.008   3.883
 6541SOL     OW21461   8.733  13.242   9.779
 6541SOL    HW121462   8.801  13.193   9.732
 6541SOL    HW221463   8.667  13.261   9.712
 6542SOL     OW21464  13.042  13.048  10.613
 6542SOL    HW121465  12.994  13.120  10.572
 6542SOL    HW221466  13.039  13.068  10.707
 6543SOL     OW21467   0.230   1.072   4.412
 6543SOL    HW121468   0.261   1.162   4.421
 6543SOL    HW221469   0.135   1.081   4.398
 6544SOL     OW21470  12.000  12.162   6.641
 6544SOL    HW121471  11.969  12.178   6.730
 6544SOL    HW221472  12.089  12.129   6.653
 6545SOL     OW21473  10.358  12.925   4.725
 6545SOL    HW121474  10.312  12.988   4.780
 6545SOL    HW221475  10.288  12.883   4.673
 6546SOL     OW21476   3.671   8.815  14.408
 6546SOL    HW121477   3.688   8.776  14.494
 6546SOL    HW221478   3.697   8.748  14.345
 6547SOL     OW21479  12.185   7.471   1.467
 6547SOL    HW121480  12.203   7.514   1.551
 6547SOL    HW221481  12.146   7.540   1.413
 6548SOL     OW21482  13.080   0.682   4.105
 6548SOL    HW121483  13.009   0.622   4.081
 6548SOL    HW221484  13.062   0.705   4.196
 6549SOL     OW21485  10.521  11.992   0.690
 6549SOL    HW121486  10.542  11.902   0.715
 6549SOL    HW221487  10.583  12.013   0.620
 6550SOL     OW21488  13.307  10.172   4.574
 6550SOL    HW121489  13.249  10.144   4.503
 6550SOL    HW221490  13.299  10.268   4.575
 6551SOL     OW21491   3.587   4.521   4.568
 6551SOL    HW121492   3.516   4.463   4.596
 6551SOL    HW221493   3.647   4.523   4.642
 6552SOL     OW21494   3.893   5.132   2.186
 6552SOL    HW121495   3.896   5.141   2.091
 6552SOL    HW221496   3.969   5.181   2.217
 6553SOL     OW21497   9.948   5.261  13.547
 6553SOL    HW121498   9.919   5.350  13.530
 6553SOL    HW221499  10.025   5.250  13.490
 6554SOL     OW21500   3.173   3.992   7.770
 6554SOL    HW121501   3.211   3.919   7.819
 6554SOL    HW221502   3.248   4.032   7.725
 6555SOL     OW21503   2.261   1.543   6.343
 6555SOL    HW121504   2.347   1.516   6.373
 6555SOL    HW221505   2.209   1.462   6.344
 6556SOL     OW21506  13.468   8.487   6.925
 6556SOL    HW121507  13.375   8.473   6.943
 6556SOL    HW221508  13.470   8.534   6.841
 6557SOL     OW21509   4.916   8.838   6.939
 6557SOL    HW121510   4.861   8.762   6.960
 6557SOL    HW221511   4.863   8.889   6.878
 6558SOL     OW21512   1.681  14.690   1.324
 6558SOL    HW121513   1.617  14.734   1.267
 6558SOL    HW221514   1.674  14.736   1.407
 6559SOL     OW21515  12.916   2.948   7.562
 6559SOL    HW121516  12.944   2.968   7.652
 6559SOL    HW221517  12.846   3.010   7.544
 6560SOL     OW21518  11.137   3.775  10.565
 6560SOL    HW121519  11.227   3.744  10.558
 6560SOL    HW221520  11.144   3.862  10.605
 6561SOL     OW21521  10.035  12.414   0.257
 6561SOL    HW121522  10.076  12.403   0.343
 6561SOL    HW221523  10.049  12.331   0.213
 6562SOL     OW21524  12.262  14.030   3.257
 6562SOL    HW121525  12.316  14.089   3.309
 6562SOL    HW221526  12.180  14.021   3.307
 6563SOL     OW21527   4.512  11.642  13.419
 6563SOL    HW121528   4.548  11.601  13.340
 6563SOL    HW221529   4.572  11.714  13.438
 6564SOL     OW21530  14.076   1.701  14.376
 6564SOL    HW121531  14.094   1.747  14.294
 6564SOL    HW221532  14.024   1.763  14.428
 6565SOL     OW21533   9.190   6.484   6.200
 6565SOL    HW121534   9.108   6.460   6.157
 6565SOL    HW221535   9.250   6.503   6.128
 6566SOL     OW21536   9.207   8.202  13.050
 6566SOL    HW121537   9.153   8.124  13.062
 6566SOL    HW221538   9.240   8.223  13.137
 6567SOL     OW21539   7.178   3.261   3.598
 6567SOL    HW121540   7.261   3.235   3.638
 6567SOL    HW221541   7.192   3.250   3.504
 6568SOL     OW21542   3.022   1.565  13.675
 6568SOL    HW121543   3.109   1.528  13.660
 6568SOL    HW221544   2.985   1.577  13.588
 6569SOL     OW21545  12.879  14.814  12.470
 6569SOL    HW121546  12.828  14.735  12.452
 6569SOL    HW221547  12.813  14.879  12.496
 6570SOL     OW21548   2.698   4.703  10.189
 6570SOL    HW121549   2.667   4.650  10.116
 6570SOL    HW221550   2.688   4.794  10.160
 6571SOL     OW21551  12.247  12.059   6.669
 6571SOL    HW121552  12.284  12.139   6.706
 6571SOL    HW221553  12.293  11.988   6.714
 6572SOL     OW21554  10.920   8.265   1.190
 6572SOL    HW121555  10.931   8.239   1.099
 6572SOL    HW221556  10.932   8.360   1.190
 6573SOL     OW21557  11.269   8.730  12.672
 6573SOL    HW121558  11.274   8.694  12.760
 6573SOL    HW221559  11.224   8.814  12.682
 6574SOL     OW21560  12.054   8.595  10.194
 6574SOL    HW121561  12.106   8.524  10.156
 6574SOL    HW221562  12.111   8.672  10.186
 6575SOL     OW21563   2.844   2.357  13.085
 6575SOL    HW121564   2.913   2.299  13.053
 6575SOL    HW221565   2.763   2.322  13.048
 6576SOL     OW21566   3.746  10.875  11.165
 6576SOL    HW121567   3.767  10.782  11.168
 6576SOL    HW221568   3.832  10.918  11.162
 6577SOL     OW21569  14.773  10.461   7.046
 6577SOL    HW121570  14.720  10.430   7.119
 6577SOL    HW221571  14.841  10.394   7.035
 6578SOL     OW21572  10.362   3.301   4.358
 6578SOL    HW121573  10.402   3.360   4.294
 6578SOL    HW221574  10.331   3.227   4.306
 6579SOL     OW21575  14.656   3.270   3.937
 6579SOL    HW121576  14.646   3.264   3.842
 6579SOL    HW221577  14.746   3.239   3.954
 6580SOL     OW21578   8.627  13.979   1.092
 6580SOL    HW121579   8.662  13.890   1.090
 6580SOL    HW221580   8.617  13.999   1.185
 6581SOL     OW21581   4.304   5.057  13.495
 6581SOL    HW121582   4.337   4.989  13.436
 6581SOL    HW221583   4.210   5.041  13.499
 6582SOL     OW21584   3.933   1.825  12.954
 6582SOL    HW121585   4.020   1.858  12.977
 6582SOL    HW221586   3.909   1.875  12.875
 6583SOL     OW21587   3.607   9.924   3.538
 6583SOL    HW121588   3.570   9.982   3.603
 6583SOL    HW221589   3.566   9.951   3.455
 6584SOL     OW21590   2.192   5.165   6.877
 6584SOL    HW121591   2.162   5.117   6.800
 6584SOL    HW221592   2.286   5.148   6.881
 6585SOL     OW21593   0.720   4.748   4.925
 6585SOL    HW121594   0.795   4.769   4.980
 6585SOL    HW221595   0.701   4.830   4.878
 6586SOL     OW21596   5.100   4.107   2.018
 6586SOL    HW121597   5.105   4.087   2.112
 6586SOL    HW221598   5.010   4.137   2.005
 6587SOL     OW21599   4.968   6.126  12.054
 6587SOL    HW121600   4.992   6.208  12.010
 6587SOL    HW221601   4.883   6.144  12.094
 6588SOL     OW21602  12.406  14.059   1.833
 6588SOL    HW121603  12.371  13.987   1.780
 6588SOL    HW221604  12.380  14.138   1.785
 6589SOL     OW21605   6.169   5.219  11.507
 6589SOL    HW121606   6.223   5.219  11.428
 6589SOL    HW221607   6.113   5.142  11.497
 6590SOL     OW21608  13.514   8.085  10.068
 6590SOL    HW121609  13.535   8.082   9.974
 6590SOL    HW221610  13.571   8.020  10.108
 6591SOL     OW21611   6.672  10.146   2.383
 6591SOL    HW121612   6.747  10.116   2.434
 6591SOL    HW221613   6.677  10.095   2.302
 6592SOL     OW21614   5.862   0.857   0.850
 6592SOL    HW121615   5.831   0.857   0.941
 6592SOL    HW221616   5.883   0.766   0.832
 6593SOL     OW21617   0.389  14.170   1.812
 6593SOL    HW121618   0.360  14.261   1.805
 6593SOL    HW221619   0.371  14.146   1.903
 6594SOL     OW21620   5.930   1.182  13.362
 6594SOL    HW121621   5.980   1.231  13.297
 6594SOL    HW221622   5.975   1.198  13.445
 6595SOL     OW21623   9.412   5.973   9.580
 6595SOL    HW121624   9.361   5.895   9.556
 6595SOL    HW221625   9.480   5.980   9.513
 6596SOL     OW21626  14.214  10.041   5.651
 6596SOL    HW121627  14.185  10.128   5.678
 6596SOL    HW221628  14.306  10.038   5.679
 6597SOL     OW21629  11.902  13.528  14.564
 6597SOL    HW121630  11.919  13.579  14.485
 6597SOL    HW221631  11.817  13.560  14.594
 6598SOL     OW21632   5.861  13.171   4.669
 6598SOL    HW121633   5.882  13.083   4.638
 6598SOL    HW221634   5.909  13.230   4.611
 6599SOL     OW21635   6.733   1.671  10.501
 6599SOL    HW121636   6.644   1.677  10.536
 6599SOL    HW221637   6.774   1.601  10.551
 6600SOL     OW21638   9.252   4.184   2.542
 6600SOL    HW121639   9.282   4.274   2.529
 6600SOL    HW221640   9.212   4.160   2.459
 6601SOL     OW21641   1.044   3.032   2.419
 6601SOL    HW121642   1.059   3.110   2.366
 6601SOL    HW221643   1.010   3.066   2.502
 6602SOL     OW21644   2.669   0.248  13.139
 6602SOL    HW121645   2.647   0.159  13.112
 6602SOL    HW221646   2.653   0.249  13.234
 6603SOL     OW21647  11.883  11.231   0.514
 6603SOL    HW121648  11.866  11.224   0.608
 6603SOL    HW221649  11.911  11.322   0.502
 6604SOL     OW21650  11.570  11.411   7.513
 6604SOL    HW121651  11.557  11.328   7.466
 6604SOL    HW221652  11.487  11.456   7.505
 6605SOL     OW21653   6.346   1.956   3.559
 6605SOL    HW121654   6.269   2.009   3.538
 6605SOL    HW221655   6.378   1.925   3.474
 6606SOL     OW21656   4.414   4.047   4.153
 6606SOL    HW121657   4.414   4.141   4.133
 6606SOL    HW221658   4.490   4.013   4.105
 6607SOL     OW21659  11.385   3.729  10.627
 6607SOL    HW121660  11.374   3.683  10.710
 6607SOL    HW221661  11.440   3.670  10.575
 6608SOL     OW21662   5.172   8.780  11.081
 6608SOL    HW121663   5.083   8.815  11.078
 6608SOL    HW221664   5.163   8.689  11.051
 6609SOL     OW21665  13.555   9.389   3.590
 6609SOL    HW121666  13.497   9.418   3.660
 6609SOL    HW221667  13.642   9.419   3.616
 6610SOL     OW21668   4.672   6.781   0.234
 6610SOL    HW121669   4.731   6.809   0.164
 6610SOL    HW221670   4.665   6.686   0.222
 6611SOL     OW21671   6.856   7.284  13.788
 6611SOL    HW121672   6.820   7.303  13.702
 6611SOL    HW221673   6.935   7.233  13.769
 6612SOL     OW21674   9.481   0.296  14.603
 6612SOL    HW121675   9.458   0.388  14.611
 6612SOL    HW221676   9.567   0.296  14.560
 6613SOL     OW21677   9.107   1.925  14.098
 6613SOL    HW121678   9.137   1.834  14.099
 6613SOL    HW221679   9.061   1.937  14.181
 6614SOL     OW21680   7.289   1.038   9.165
 6614SOL    HW121681   7.232   1.114   9.156
 6614SOL    HW221682   7.324   1.023   9.077
 6615SOL     OW21683   7.385  10.718   9.736
 6615SOL    HW121684   7.472  10.735   9.772
 6615SOL    HW221685   7.395  10.729   9.641
 6616SOL     OW21686   0.237   2.037   3.922
 6616SOL    HW121687   0.224   1.950   3.886
 6616SOL    HW221688   0.269   2.022   4.011
 6617SOL     OW21689  13.122   9.983   5.181
 6617SOL    HW121690  13.045   9.949   5.228
 6617SOL    HW221691  13.101  10.075   5.164
 6618SOL     OW21692   2.126  12.100  11.415
 6618SOL    HW121693   2.084  12.040  11.353
 6618SOL    HW221694   2.214  12.113  11.380
 6619SOL     OW21695  11.552   7.055   4.356
 6619SOL    HW121696  11.559   7.027   4.447
 6619SOL    HW221697  11.457   7.058   4.339
 6620SOL     OW21698   7.180   4.418  14.183
 6620SOL    HW121699   7.143   4.479  14.120
 6620SOL    HW221700   7.188   4.335  14.135
 6621SOL     OW21701   7.680  14.585   9.153
 6621SOL    HW121702   7.595  14.604   9.192
 6621SOL    HW221703   7.682  14.490   9.146
 6622SOL     OW21704  14.025   6.662  14.384
 6622SOL    HW121705  13.951   6.604  14.369
 6622SOL    HW221706  14.016   6.731  14.318
 6623SOL     OW21707   8.111  11.777   6.560
 6623SOL    HW121708   8.085  11.747   6.647
 6623SOL    HW221709   8.141  11.698   6.516
 6624SOL     OW21710   5.060  14.825   8.049
 6624SOL    HW121711   5.125   0.007   8.014
 6624SOL    HW221712   5.025  14.780   7.972
 6625SOL     OW21713   9.936   2.745   8.101
 6625SOL    HW121714   9.922   2.665   8.153
 6625SOL    HW221715   9.976   2.714   8.020
 6626SOL     OW21716   3.009   5.701   1.067
 6626SOL    HW121717   3.024   5.793   1.088
 6626SOL    HW221718   2.978   5.662   1.149
 6627SOL     OW21719   4.392  11.154  10.671
 6627SOL    HW121720   4.336  11.168  10.747
 6627SOL    HW221721   4.405  11.060  10.667
 6628SOL     OW21722   1.166   0.505   5.599
 6628SOL    HW121723   1.233   0.551   5.649
 6628SOL    HW221724   1.210   0.424   5.569
 6629SOL     OW21725   4.490   8.865  11.776
 6629SOL    HW121726   4.458   8.857  11.866
 6629SOL    HW221727   4.583   8.841  11.781
 6630SOL     OW21728   4.954   9.690   0.044
 6630SOL    HW121729   5.047   9.696   0.066
 6630SOL    HW221730   4.932   9.597   0.055
 6631SOL     OW21731  12.528  14.513   4.066
 6631SOL    HW121732  12.578  14.475   3.993
 6631SOL    HW221733  12.497  14.597   4.032
 6632SOL     OW21734   4.917  12.335   1.852
 6632SOL    HW121735   5.011  12.345   1.860
 6632SOL    HW221736   4.883  12.356   1.939
 6633SOL     OW21737  13.554   2.661   7.497
 6633SOL    HW121738  13.609   2.618   7.431
 6633SOL    HW221739  13.475   2.608   7.502
 6634SOL     OW21740  13.305  14.219   1.830
 6634SOL    HW121741  13.320  14.204   1.923
 6634SOL    HW221742  13.321  14.133   1.789
 6635SOL     OW21743   2.602  11.890  12.621
 6635SOL    HW121744   2.636  11.928  12.540
 6635SOL    HW221745   2.667  11.912  12.687
 6636SOL     OW21746   0.195   5.185  14.570
 6636SOL    HW121747   0.261   5.225  14.512
 6636SOL    HW221748   0.236   5.185  14.656
 6637SOL     OW21749   4.997   4.889   6.031
 6637SOL    HW121750   5.070   4.836   5.998
 6637SOL    HW221751   4.929   4.880   5.965
 6638SOL     OW21752   4.712  11.123  12.098
 6638SOL    HW121753   4.723  11.060  12.026
 6638SOL    HW221754   4.674  11.200  12.056
 6639SOL     OW21755   0.762   9.807   7.563
 6639SOL    HW121756   0.696   9.752   7.607
 6639SOL    HW221757   0.830   9.820   7.630
 6640SOL     OW21758   7.771  12.308   4.119
 6640SOL    HW121759   7.709  12.380   4.108
 6640SOL    HW221760   7.857  12.349   4.110
 6641SOL     OW21761   4.647   8.974  10.729
 6641SOL    HW121762   4.672   9.043  10.668
 6641SOL    HW221763   4.562   9.001  10.763
 6642SOL     OW21764  12.787   0.825   2.690
 6642SOL    HW121765  12.816   0.897   2.746
 6642SOL    HW221766  12.762   0.756   2.751
 6643SOL     OW21767   7.572  13.364  10.788
 6643SOL    HW121768   7.597  13.432  10.851
 6643SOL    HW221769   7.583  13.282  10.836
 6644SOL     OW21770   0.058   4.217  14.338
 6644SOL    HW121771   0.095   4.129  14.323
 6644SOL    HW221772  14.862   4.221  14.279
 6645SOL     OW21773   0.081   1.957  10.054
 6645SOL    HW121774   0.163   1.926  10.093
 6645SOL    HW221775   0.089   1.935   9.961
 6646SOL     OW21776  13.952  13.660   0.949
 6646SOL    HW121777  13.883  13.673   1.015
 6646SOL    HW221778  13.905  13.651   0.867
 6647SOL     OW21779   9.604  11.874   0.670
 6647SOL    HW121780   9.618  11.899   0.761
 6647SOL    HW221781   9.516  11.905   0.650
 6648SOL     OW21782  12.672   7.600   1.378
 6648SOL    HW121783  12.755   7.569   1.341
 6648SOL    HW221784  12.623   7.519   1.396
 6649SOL     OW21785   4.630   9.499  13.156
 6649SOL    HW121786   4.592   9.491  13.244
 6649SOL    HW221787   4.620   9.591  13.133
 6650SOL     OW21788   6.900   3.944   9.304
 6650SOL    HW121789   6.970   4.009   9.311
 6650SOL    HW221790   6.822   3.988   9.339
 6651SOL     OW21791  13.686  12.171   8.119
 6651SOL    HW121792  13.674  12.256   8.161
 6651SOL    HW221793  13.640  12.178   8.035
 6652SOL     OW21794  11.928  10.257  13.242
 6652SOL    HW121795  12.009  10.305  13.261
 6652SOL    HW221796  11.957  10.170  13.214
 6653SOL     OW21797   3.103   5.507   9.394
 6653SOL    HW121798   3.195   5.490   9.416
 6653SOL    HW221799   3.100   5.600   9.372
 6654SOL     OW21800   3.231   3.062  12.693
 6654SOL    HW121801   3.275   3.142  12.723
 6654SOL    HW221802   3.140   3.089  12.680
 6655SOL     OW21803  13.664   0.502  14.775
 6655SOL    HW121804  13.577   0.502  14.735
 6655SOL    HW221805  13.659   0.567  14.845
 6656SOL     OW21806   6.517   8.455   0.669
 6656SOL    HW121807   6.515   8.419   0.757
 6656SOL    HW221808   6.479   8.542   0.678
 6657SOL     OW21809   0.596   7.521   3.417
 6657SOL    HW121810   0.569   7.486   3.332
 6657SOL    HW221811   0.515   7.552   3.457
 6658SOL     OW21812  13.436   4.985   2.865
 6658SOL    HW121813  13.359   4.939   2.899
 6658SOL    HW221814  13.439   4.962   2.773
 6659SOL     OW21815   5.675   7.793   3.203
 6659SOL    HW121816   5.704   7.702   3.203
 6659SOL    HW221817   5.594   7.793   3.152
 6660SOL     OW21818   0.962  10.649  12.725
 6660SOL    HW121819   1.041  10.598  12.706
 6660SOL    HW221820   0.911  10.645  12.644
 6661SOL     OW21821   1.619  10.749  10.639
 6661SOL    HW121822   1.692  10.770  10.697
 6661SOL    HW221823   1.584  10.834  10.613
 6662SOL     OW21824   2.940   0.005  13.150
 6662SOL    HW121825   2.847  14.864  13.160
 6662SOL    HW221826   2.949   0.095  13.181
 6663SOL     OW21827   4.984  10.583   1.301
 6663SOL    HW121828   5.078  10.564   1.298
 6663SOL    HW221829   4.977  10.673   1.269
 6664SOL     OW21830   5.283  13.353  10.457
 6664SOL    HW121831   5.233  13.435  10.465
 6664SOL    HW221832   5.366  13.372  10.501
 6665SOL     OW21833   3.568  11.071   3.206
 6665SOL    HW121834   3.513  11.111   3.273
 6665SOL    HW221835   3.633  11.138   3.185
 6666SOL     OW21836   0.285   3.025   3.212
 6666SOL    HW121837   0.249   2.958   3.154
 6666SOL    HW221838   0.361   3.059   3.165
 6667SOL     OW21839   1.003   0.685   7.762
 6667SOL    HW121840   1.091   0.720   7.778
 6667SOL    HW221841   1.009   0.593   7.786
 6668SOL     OW21842   3.063   7.484   7.111
 6668SOL    HW121843   3.022   7.433   7.181
 6668SOL    HW221844   3.049   7.575   7.137
 6669SOL     OW21845  14.535   4.386   5.626
 6669SOL    HW121846  14.619   4.343   5.607
 6669SOL    HW221847  14.475   4.315   5.648
 6670SOL     OW21848  14.341  11.223   6.415
 6670SOL    HW121849  14.339  11.188   6.504
 6670SOL    HW221850  14.427  11.264   6.407
 6671SOL     OW21851  14.832  10.413  14.001
 6671SOL    HW121852   0.014  10.347  14.034
 6671SOL    HW221853  14.860  10.494  14.043
 6672SOL     OW21854   1.746   8.274  12.647
 6672SOL    HW121855   1.709   8.186  12.657
 6672SOL    HW221856   1.674   8.326  12.613
 6673SOL     OW21857   6.735   0.238   9.044
 6673SOL    HW121858   6.643   0.249   9.068
 6673SOL    HW221859   6.782   0.241   9.127
 6674SOL     OW21860   2.871  10.903   7.049
 6674SOL    HW121861   2.780  10.888   7.074
 6674SOL    HW221862   2.866  10.974   6.984
 6675SOL     OW21863  11.635   0.563   7.595
 6675SOL    HW121864  11.564   0.623   7.569
 6675SOL    HW221865  11.702   0.575   7.529
 6676SOL     OW21866   1.087  13.411   6.852
 6676SOL    HW121867   1.029  13.399   6.777
 6676SOL    HW221868   1.119  13.323   6.871
 6677SOL     OW21869  13.668   9.712  10.484
 6677SOL    HW121870  13.596   9.725  10.423
 6677SOL    HW221871  13.625   9.701  10.569
 6678SOL     OW21872  13.331   1.142   5.403
 6678SOL    HW121873  13.381   1.212   5.445
 6678SOL    HW221874  13.249   1.184   5.375
 6679SOL     OW21875   8.578  13.959   6.153
 6679SOL    HW121876   8.657  13.982   6.201
 6679SOL    HW221877   8.608  13.933   6.067
 6680SOL     OW21878   0.911   0.428   3.117
 6680SOL    HW121879   0.866   0.510   3.140
 6680SOL    HW221880   0.978   0.417   3.185
 6681SOL     OW21881   8.320   8.407   0.254
 6681SOL    HW121882   8.401   8.457   0.244
 6681SOL    HW221883   8.325   8.369   0.342
 6682SOL     OW21884  10.624   4.810   2.106
 6682SOL    HW121885  10.716   4.820   2.082
 6682SOL    HW221886  10.623   4.734   2.165
 6683SOL     OW21887   1.431   9.212   0.719
 6683SOL    HW121888   1.364   9.280   0.720
 6683SOL    HW221889   1.484   9.228   0.797
 6684SOL     OW21890   4.133  10.703   5.299
 6684SOL    HW121891   4.193  10.771   5.331
 6684SOL    HW221892   4.162  10.685   5.210
 6685SOL     OW21893   6.349  14.148   8.078
 6685SOL    HW121894   6.259  14.137   8.045
 6685SOL    HW221895   6.356  14.242   8.094
 6686SOL     OW21896   0.189  14.797   3.931
 6686SOL    HW121897   0.140  14.878   3.946
 6686SOL    HW221898   0.149  14.759   3.852
 6687SOL     OW21899   9.060   1.336   0.811
 6687SOL    HW121900   9.056   1.277   0.886
 6687SOL    HW221901   9.066   1.279   0.735
 6688SOL     OW21902   7.223   5.946   3.634
 6688SOL    HW121903   7.292   5.944   3.701
 6688SOL    HW221904   7.264   5.989   3.559
 6689SOL     OW21905   9.698   6.794  12.655
 6689SOL    HW121906   9.681   6.831  12.568
 6689SOL    HW221907   9.730   6.706  12.638
 6690SOL     OW21908   4.811   3.357   5.750
 6690SOL    HW121909   4.889   3.408   5.771
 6690SOL    HW221910   4.741   3.422   5.744
 6691SOL     OW21911   4.431   6.797   8.518
 6691SOL    HW121912   4.434   6.776   8.611
 6691SOL    HW221913   4.522   6.788   8.489
 6692SOL     OW21914   7.055   9.564   4.448
 6692SOL    HW121915   6.969   9.599   4.470
 6692SOL    HW221916   7.091   9.533   4.531
 6693SOL     OW21917   6.978   4.935   0.998
 6693SOL    HW121918   6.925   4.857   0.982
 6693SOL    HW221919   6.980   4.979   0.913
 6694SOL     OW21920   7.780   3.139   7.931
 6694SOL    HW121921   7.803   3.063   7.877
 6694SOL    HW221922   7.863   3.185   7.945
 6695SOL     OW21923  14.269   4.464   3.816
 6695SOL    HW121924  14.279   4.372   3.837
 6695SOL    HW221925  14.344   4.507   3.859
 6696SOL     OW21926  14.435   4.027  14.852
 6696SOL    HW121927  14.374   4.029  14.778
 6696SOL    HW221928  14.487   3.948  14.838
 6697SOL     OW21929  11.214  11.403  11.771
 6697SOL    HW121930  11.138  11.456  11.749
 6697SOL    HW221931  11.253  11.448  11.847
 6698SOL     OW21932   6.924  14.595   9.227
 6698SOL    HW121933   6.885  14.528   9.171
 6698SOL    HW221934   6.849  14.641   9.265
 6699SOL     OW21935   2.986   3.972  10.714
 6699SOL    HW121936   2.956   3.938  10.630
 6699SOL    HW221937   3.061   3.917  10.737
 6700SOL     OW21938  13.644   8.678  12.839
 6700SOL    HW121939  13.594   8.756  12.817
 6700SOL    HW221940  13.732   8.710  12.861
 6701SOL     OW21941   2.073   7.836   3.373
 6701SOL    HW121942   2.022   7.908   3.337
 6701SOL    HW221943   2.103   7.869   3.458
 6702SOL     OW21944  14.628   8.259  13.553
 6702SOL    HW121945  14.661   8.253  13.464
 6702SOL    HW221946  14.693   8.311  13.600
 6703SOL     OW21947  12.724   3.104  13.473
 6703SOL    HW121948  12.683   3.101  13.559
 6703SOL    HW221949  12.651   3.114  13.412
 6704SOL     OW21950  14.858   8.347  13.918
 6704SOL    HW121951  14.805   8.280  13.962
 6704SOL    HW221952   0.069   8.327  13.945
 6705SOL     OW21953   0.661   8.961  12.028
 6705SOL    HW121954   0.698   8.873  12.023
 6705SOL    HW221955   0.720   9.009  12.086
 6706SOL     OW21956   5.681   5.738   0.683
 6706SOL    HW121957   5.611   5.784   0.729
 6706SOL    HW221958   5.713   5.673   0.744
 6707SOL     OW21959   5.309  14.879   8.730
 6707SOL    HW121960   5.298   0.001   8.635
 6707SOL    HW221961   5.221   0.016   8.765
 6708SOL     OW21962  11.832  11.982   9.171
 6708SOL    HW121963  11.815  11.942   9.086
 6708SOL    HW221964  11.871  11.911   9.223
 6709SOL     OW21965   2.392   7.189   5.305
 6709SOL    HW121966   2.373   7.106   5.350
 6709SOL    HW221967   2.431   7.244   5.373
 6710SOL     OW21968   0.971   5.979   2.492
 6710SOL    HW121969   1.011   6.030   2.422
 6710SOL    HW221970   0.953   6.043   2.561
 6711SOL     OW21971  11.893   1.611  12.948
 6711SOL    HW121972  11.832   1.665  12.998
 6711SOL    HW221973  11.971   1.666  12.938
 6712SOL     OW21974  14.600  12.478   8.731
 6712SOL    HW121975  14.646  12.541   8.676
 6712SOL    HW221976  14.537  12.531   8.781
 6713SOL     OW21977   1.148  13.239   9.583
 6713SOL    HW121978   1.060  13.257   9.550
 6713SOL    HW221979   1.184  13.325   9.603
 6714SOL     OW21980   2.705   6.992  12.461
 6714SOL    HW121981   2.664   6.974  12.545
 6714SOL    HW221982   2.762   6.916  12.445
 6715SOL     OW21983   9.159  12.087   5.861
 6715SOL    HW121984   9.217  12.013   5.844
 6715SOL    HW221985   9.071  12.053   5.844
 6716SOL     OW21986  12.304   5.289   3.086
 6716SOL    HW121987  12.265   5.361   3.035
 6716SOL    HW221988  12.398   5.298   3.070
 6717SOL     OW21989   2.316   7.549  11.262
 6717SOL    HW121990   2.220   7.557  11.260
 6717SOL    HW221991   2.343   7.569  11.172
 6718SOL     OW21992   2.727   1.629   9.861
 6718SOL    HW121993   2.784   1.605   9.934
 6718SOL    HW221994   2.640   1.597   9.887
 6719SOL     OW21995  14.499  13.587   0.491
 6719SOL    HW121996  14.566  13.654   0.475
 6719SOL    HW221997  14.498  13.576   0.586
 6720SOL     OW21998  11.062   9.942  13.299
 6720SOL    HW121999  11.138   9.961  13.355
 6720SOL    HW222000  11.017  10.026  13.292
 6721SOL     OW22001   9.289  11.000   1.098
 6721SOL    HW122002   9.319  10.999   1.188
 6721SOL    HW222003   9.290  11.093   1.073
 6722SOL     OW22004   6.336   7.064   3.403
 6722SOL    HW122005   6.344   7.133   3.469
 6722SOL    HW222006   6.377   7.101   3.325
 6723SOL     OW22007   6.605   3.965  11.033
 6723SOL    HW122008   6.675   4.030  11.036
 6723SOL    HW222009   6.545   3.991  11.103
 6724SOL     OW22010   6.831  11.653   7.419
 6724SOL    HW122011   6.926  11.640   7.430
 6724SOL    HW222012   6.797  11.654   7.508
 6725SOL     OW22013   7.612  10.793   8.435
 6725SOL    HW122014   7.599  10.759   8.347
 6725SOL    HW222015   7.563  10.876   8.435
 6726SOL     OW22016   9.899   9.122   9.239
 6726SOL    HW122017   9.903   9.218   9.237
 6726SOL    HW222018   9.969   9.097   9.300
 6727SOL     OW22019   4.142  13.726   4.375
 6727SOL    HW122020   4.091  13.711   4.296
 6727SOL    HW222021   4.134  13.644   4.425
 6728SOL     OW22022  11.364   0.031   4.311
 6728SOL    HW122023  11.297   0.091   4.341
 6728SOL    HW222024  11.340  14.826   4.349
 6729SOL     OW22025   8.614   1.055  12.606
 6729SOL    HW122026   8.532   1.035  12.561
 6729SOL    HW222027   8.674   0.985  12.579
 6730SOL     OW22028  10.720   3.369   1.499
 6730SOL    HW122029  10.707   3.284   1.542
 6730SOL    HW222030  10.800   3.404   1.537
 6731SOL     OW22031   7.104   8.456   8.249
 6731SOL    HW122032   7.135   8.366   8.234
 6731SOL    HW222033   7.057   8.451   8.332
 6732SOL     OW22034   7.809   2.687   6.440
 6732SOL    HW122035   7.808   2.681   6.345
 6732SOL    HW222036   7.720   2.713   6.463
 6733SOL     OW22037  13.430   0.412   3.051
 6733SOL    HW122038  13.459   0.381   2.966
 6733SOL    HW222039  13.500   0.471   3.080
 6734SOL     OW22040   4.741  13.362   4.022
 6734SOL    HW122041   4.726  13.314   4.103
 6734SOL    HW222042   4.677  13.326   3.960
 6735SOL     OW22043  12.467   8.732   3.754
 6735SOL    HW122044  12.467   8.662   3.819
 6735SOL    HW222045  12.445   8.689   3.671
 6736SOL     OW22046   2.567   3.045   5.941
 6736SOL    HW122047   2.611   3.114   5.893
 6736SOL    HW222048   2.624   3.027   6.016
 6737SOL     OW22049   6.664   4.862   5.623
 6737SOL    HW122050   6.600   4.809   5.575
 6737SOL    HW222051   6.705   4.916   5.556
 6738SOL     OW22052   1.903   6.591   8.719
 6738SOL    HW122053   1.894   6.586   8.814
 6738SOL    HW222054   1.996   6.605   8.703
 6739SOL     OW22055  14.544   9.827   3.753
 6739SOL    HW122056  14.501   9.785   3.827
 6739SOL    HW222057  14.473   9.875   3.709
 6740SOL     OW22058  13.244   3.561  12.510
 6740SOL    HW122059  13.164   3.530  12.552
 6740SOL    HW222060  13.243   3.656  12.522
 6741SOL     OW22061   0.454   9.422   4.413
 6741SOL    HW122062   0.359   9.435   4.405
 6741SOL    HW222063   0.468   9.333   4.381
 6742SOL     OW22064  14.626   4.340   8.718
 6742SOL    HW122065  14.716   4.310   8.730
 6742SOL    HW222066  14.582   4.318   8.800
 6743SOL     OW22067  12.254  12.633  14.242
 6743SOL    HW122068  12.197  12.569  14.200
 6743SOL    HW222069  12.229  12.629  14.335
 6744SOL     OW22070   8.737   1.292   7.067
 6744SOL    HW122071   8.711   1.213   7.114
 6744SOL    HW222072   8.657   1.345   7.060
 6745SOL     OW22073   3.718  10.004   8.051
 6745SOL    HW122074   3.759  10.073   8.104
 6745SOL    HW222075   3.684   9.941   8.115
 6746SOL     OW22076  11.685  12.998  11.793
 6746SOL    HW122077  11.683  12.986  11.888
 6746SOL    HW222078  11.690  12.909  11.758
 6747SOL     OW22079   9.496   1.835   6.711
 6747SOL    HW122080   9.460   1.747   6.720
 6747SOL    HW222081   9.543   1.849   6.793
 6748SOL     OW22082   3.674  10.152   3.322
 6748SOL    HW122083   3.603  10.209   3.352
 6748SOL    HW222084   3.666  10.151   3.227
 6749SOL     OW22085   4.914   7.949  10.342
 6749SOL    HW122086   4.831   7.902  10.352
 6749SOL    HW222087   4.973   7.886  10.301
 6750SOL     OW22088  10.005   7.073   9.104
 6750SOL    HW122089  10.005   7.126   9.184
 6750SOL    HW222090  10.095   7.039   9.099
 6751SOL     OW22091  11.434   5.348  11.208
 6751SOL    HW122092  11.415   5.315  11.296
 6751SOL    HW222093  11.433   5.271  11.152
 6752SOL     OW22094   9.554  11.313   0.843
 6752SOL    HW122095   9.647  11.332   0.833
 6752SOL    HW222096   9.540  11.235   0.789
 6753SOL     OW22097   3.345   3.381  14.777
 6753SOL    HW122098   3.312   3.312  14.834
 6753SOL    HW222099   3.268   3.435  14.759
 6754SOL     OW22100   4.957  12.689   4.152
 6754SOL    HW122101   4.943  12.746   4.077
 6754SOL    HW222102   5.022  12.626   4.122
 6755SOL     OW22103  13.319   2.955   9.425
 6755SOL    HW122104  13.398   3.009   9.419
 6755SOL    HW222105  13.308   2.940   9.519
 6756SOL     OW22106   1.247   1.574   8.091
 6756SOL    HW122107   1.170   1.519   8.088
 6756SOL    HW222108   1.220   1.656   8.050
 6757SOL     OW22109   1.049  10.373   7.933
 6757SOL    HW122110   1.062  10.287   7.973
 6757SOL    HW222111   0.979  10.359   7.869
 6758SOL     OW22112   3.809   5.369   5.283
 6758SOL    HW122113   3.806   5.277   5.306
 6758SOL    HW222114   3.893   5.380   5.238
 6759SOL     OW22115   5.168   8.103   0.981
 6759SOL    HW122116   5.140   8.172   0.921
 6759SOL    HW222117   5.195   8.149   1.060
 6760SOL     OW22118   2.641   6.391   2.657
 6760SOL    HW122119   2.672   6.476   2.689
 6760SOL    HW222120   2.695   6.327   2.702
 6761SOL     OW22121   7.846   5.148   8.287
 6761SOL    HW122122   7.872   5.087   8.218
 6761SOL    HW222123   7.900   5.226   8.271
 6762SOL     OW22124   6.455   9.716   6.478
 6762SOL    HW122125   6.491   9.631   6.452
 6762SOL    HW222126   6.520   9.751   6.539
 6763SOL     OW22127   4.441  12.557  14.244
 6763SOL    HW122128   4.511  12.619  14.261
 6763SOL    HW222129   4.458  12.484  14.304
 6764SOL     OW22130   2.927  11.014   4.686
 6764SOL    HW122131   2.942  11.058   4.770
 6764SOL    HW222132   2.843  10.969   4.697
 6765SOL     OW22133  13.903  10.941  13.170
 6765SOL    HW122134  13.835  10.979  13.225
 6765SOL    HW222135  13.870  10.953  13.081
 6766SOL     OW22136  13.180  12.270   3.821
 6766SOL    HW122137  13.264  12.314   3.830
 6766SOL    HW222138  13.199  12.177   3.833
 6767SOL     OW22139  14.155   3.753   8.353
 6767SOL    HW122140  14.124   3.707   8.431
 6767SOL    HW222141  14.119   3.702   8.280
 6768SOL     OW22142  13.040   4.312   1.165
 6768SOL    HW122143  13.093   4.316   1.085
 6768SOL    HW222144  12.993   4.229   1.158
 6769SOL     OW22145  13.486  12.072   6.915
 6769SOL    HW122146  13.580  12.054   6.918
 6769SOL    HW222147  13.450  12.022   6.989
 6770SOL     OW22148   4.358   4.754   3.352
 6770SOL    HW122149   4.432   4.704   3.386
 6770SOL    HW222150   4.281   4.710   3.386
 6771SOL     OW22151   2.191   2.832   7.944
 6771SOL    HW122152   2.238   2.916   7.945
 6771SOL    HW222153   2.254   2.769   7.979
 6772SOL     OW22154  13.742   2.530   2.120
 6772SOL    HW122155  13.804   2.592   2.082
 6772SOL    HW222156  13.792   2.482   2.186
 6773SOL     OW22157   1.810   1.808  10.532
 6773SOL    HW122158   1.746   1.860  10.485
 6773SOL    HW222159   1.895   1.847  10.509
 6774SOL     OW22160  13.004   8.023   8.852
 6774SOL    HW122161  12.964   7.946   8.892
 6774SOL    HW222162  12.959   8.033   8.768
 6775SOL     OW22163  10.160   4.891   9.217
 6775SOL    HW122164  10.113   4.844   9.148
 6775SOL    HW222165  10.242   4.842   9.228
 6776SOL     OW22166   7.387   1.973   2.494
 6776SOL    HW122167   7.352   1.901   2.546
 6776SOL    HW222168   7.317   1.996   2.434
 6777SOL     OW22169  14.731  13.163   4.121
 6777SOL    HW122170  14.662  13.223   4.093
 6777SOL    HW222171  14.812  13.209   4.099
 6778SOL     OW22172   2.119   5.857   7.970
 6778SOL    HW122173   2.120   5.762   7.982
 6778SOL    HW222174   2.184   5.873   7.902
 6779SOL     OW22175   5.102  11.202   7.607
 6779SOL    HW122176   5.163  11.134   7.633
 6779SOL    HW222177   5.142  11.242   7.529
 6780SOL     OW22178   6.446  12.833   8.114
 6780SOL    HW122179   6.538  12.825   8.141
 6780SOL    HW222180   6.442  12.789   8.029
 6781SOL     OW22181  13.186   2.368   1.299
 6781SOL    HW122182  13.275   2.340   1.319
 6781SOL    HW222183  13.131   2.292   1.318
 6782SOL     OW22184  13.462   2.344   5.115
 6782SOL    HW122185  13.441   2.437   5.114
 6782SOL    HW222186  13.443   2.316   5.205
 6783SOL     OW22187   1.658   6.957   5.655
 6783SOL    HW122188   1.610   7.025   5.701
 6783SOL    HW222189   1.601   6.880   5.660
 6784SOL     OW22190   7.273  10.724   7.717
 6784SOL    HW122191   7.260  10.673   7.637
 6784SOL    HW222192   7.185  10.757   7.739
 6785SOL     OW22193  11.036   9.874  11.759
 6785SOL    HW122194  10.981   9.825  11.697
 6785SOL    HW222195  11.093   9.808  11.798
 6786SOL     OW22196   9.040   6.082   7.818
 6786SOL    HW122197   9.112   6.111   7.762
 6786SOL    HW222198   9.082   6.045   7.895
 6787SOL     OW22199   6.143  13.816   1.877
 6787SOL    HW122200   6.221  13.860   1.910
 6787SOL    HW222201   6.109  13.768   1.953
 6788SOL     OW22202   2.052   3.955   8.525
 6788SOL    HW122203   1.999   4.032   8.544
 6788SOL    HW222204   2.105   3.979   8.449
 6789SOL     OW22205   8.546  11.597   8.526
 6789SOL    HW122206   8.458  11.567   8.546
 6789SOL    HW222207   8.603  11.524   8.554
 6790SOL     OW22208   5.725   5.396   6.795
 6790SOL    HW122209   5.676   5.473   6.825
 6790SOL    HW222210   5.705   5.389   6.702
 6791SOL     OW22211  14.515   8.293   4.541
 6791SOL    HW122212  14.542   8.351   4.470
 6791SOL    HW222213  14.548   8.206   4.516
 6792SOL     OW22214   5.388  11.180   5.964
 6792SOL    HW122215   5.404  11.274   5.959
 6792SOL    HW222216   5.293  11.172   5.974
 6793SOL     OW22217   8.823   6.051  14.719
 6793SOL    HW122218   8.875   6.006  14.653
 6793SOL    HW222219   8.855   6.017  14.802
 6794SOL     OW22220  14.590   8.472   9.495
 6794SOL    HW122221  14.628   8.490   9.409
 6794SOL    HW222222  14.665   8.468   9.555
 6795SOL     OW22223  13.809  11.909   4.010
 6795SOL    HW122224  13.767  11.984   3.967
 6795SOL    HW222225  13.738  11.863   4.054
 6796SOL     OW22226   9.145   9.163   3.353
 6796SOL    HW122227   9.154   9.074   3.385
 6796SOL    HW222228   9.108   9.211   3.427
 6797SOL     OW22229  12.230  11.821   3.810
 6797SOL    HW122230  12.288  11.748   3.787
 6797SOL    HW222231  12.150  11.780   3.840
 6798SOL     OW22232  14.151   7.045  12.901
 6798SOL    HW122233  14.227   7.103  12.902
 6798SOL    HW222234  14.184   6.964  12.862
 6799SOL     OW22235  11.241   8.641  14.527
 6799SOL    HW122236  11.201   8.556  14.509
 6799SOL    HW222237  11.278   8.668  14.442
 6800SOL     OW22238   7.923  11.176  14.875
 6800SOL    HW122239   7.912  11.200  14.783
 6800SOL    HW222240   7.839  11.197   0.037
 6801SOL     OW22241  11.575  11.785  11.489
 6801SOL    HW122242  11.630  11.791  11.411
 6801SOL    HW222243  11.563  11.691  11.503
 6802SOL     OW22244   9.299   2.506  10.067
 6802SOL    HW122245   9.355   2.429  10.064
 6802SOL    HW222246   9.211   2.472  10.053
 6803SOL     OW22247  10.166   5.646   4.809
 6803SOL    HW122248  10.231   5.576   4.811
 6803SOL    HW222249  10.213   5.721   4.773
 6804SOL     OW22250  13.051   5.827  13.409
 6804SOL    HW122251  12.981   5.890  13.423
 6804SOL    HW222252  13.096   5.857  13.330
 6805SOL     OW22253   1.656   7.361   5.438
 6805SOL    HW122254   1.655   7.282   5.384
 6805SOL    HW222255   1.574   7.405   5.417
 6806SOL     OW22256  10.542   9.876   5.601
 6806SOL    HW122257  10.505   9.859   5.514
 6806SOL    HW222258  10.467   9.871   5.660
 6807SOL     OW22259  14.135   5.282   3.991
 6807SOL    HW122260  14.172   5.355   3.941
 6807SOL    HW222261  14.120   5.214   3.926
 6808SOL     OW22262   0.522   6.332  10.451
 6808SOL    HW122263   0.452   6.396  10.448
 6808SOL    HW222264   0.518   6.288  10.366
 6809SOL     OW22265  11.265  10.685   0.178
 6809SOL    HW122266  11.181  10.714   0.214
 6809SOL    HW222267  11.241  10.646   0.093
 6810SOL     OW22268   3.814  13.757   4.688
 6810SOL    HW122269   3.742  13.707   4.651
 6810SOL    HW222270   3.867  13.784   4.613
 6811SOL     OW22271   4.547  10.417   0.688
 6811SOL    HW122272   4.600  10.436   0.766
 6811SOL    HW222273   4.532  10.322   0.693
 6812SOL     OW22274   4.963   8.058   7.666
 6812SOL    HW122275   4.936   7.974   7.704
 6812SOL    HW222276   5.032   8.090   7.725
 6813SOL     OW22277   3.416   4.596   5.785
 6813SOL    HW122278   3.388   4.511   5.818
 6813SOL    HW222279   3.338   4.634   5.746
 6814SOL     OW22280   0.271   4.251   2.374
 6814SOL    HW122281   0.265   4.335   2.419
 6814SOL    HW222282   0.365   4.234   2.367
 6815SOL     OW22283   4.209   5.041   8.216
 6815SOL    HW122284   4.220   5.106   8.285
 6815SOL    HW222285   4.134   4.989   8.244
 6816SOL     OW22286   7.484   9.346   2.372
 6816SOL    HW122287   7.543   9.371   2.301
 6816SOL    HW222288   7.436   9.426   2.393
 6817SOL     OW22289   0.369   4.051   0.104
 6817SOL    HW122290   0.419   4.066   0.025
 6817SOL    HW222291   0.278   4.048   0.075
 6818SOL     OW22292   5.917   4.250  13.111
 6818SOL    HW122293   5.860   4.273  13.185
 6818SOL    HW222294   5.988   4.314  13.115
 6819SOL     OW22295   2.673   8.931   0.007
 6819SOL    HW122296   2.628   8.872   0.068
 6819SOL    HW222297   2.609   8.999  14.866
 6820SOL     OW22298   0.112   2.850  12.939
 6820SOL    HW122299   0.117   2.805  13.023
 6820SOL    HW222300   0.145   2.785  12.876
 6821SOL     OW22301  14.455   6.344   9.546
 6821SOL    HW122302  14.371   6.361   9.504
 6821SOL    HW222303  14.518   6.336   9.474
 6822SOL     OW22304  11.796  11.134   5.200
 6822SOL    HW122305  11.868  11.173   5.250
 6822SOL    HW222306  11.720  11.187   5.223
 6823SOL     OW22307   0.035   9.144   7.163
 6823SOL    HW122308   0.107   9.204   7.184
 6823SOL    HW222309   0.064   9.097   7.086
 6824SOL     OW22310   1.377  14.428   6.848
 6824SOL    HW122311   1.367  14.340   6.812
 6824SOL    HW222312   1.308  14.435   6.914
 6825SOL     OW22313  11.512  11.382   0.106
 6825SOL    HW122314  11.521  11.288   0.119
 6825SOL    HW222315  11.530  11.395   0.013
 6826SOL     OW22316   8.822   8.299  13.613
 6826SOL    HW122317   8.735   8.270  13.639
 6826SOL    HW222318   8.811   8.391  13.590
 6827SOL     OW22319   5.077  11.900   6.364
 6827SOL    HW122320   5.011  11.863   6.423
 6827SOL    HW222321   5.031  11.915   6.282
 6828SOL     OW22322   4.423  11.049   7.928
 6828SOL    HW122323   4.492  11.052   7.861
 6828SOL    HW222324   4.406  10.955   7.940
 6829SOL     OW22325   3.214   3.075  11.549
 6829SOL    HW122326   3.230   3.002  11.489
 6829SOL    HW222327   3.195   3.149  11.493
 6830SOL     OW22328  13.543   5.820   7.974
 6830SOL    HW122329  13.500   5.745   7.934
 6830SOL    HW222330  13.635   5.812   7.949
 6831SOL     OW22331   1.609   0.655   1.194
 6831SOL    HW122332   1.614   0.581   1.133
 6831SOL    HW222333   1.565   0.621   1.271
 6832SOL     OW22334   6.360   0.097   2.142
 6832SOL    HW122335   6.407   0.181   2.144
 6832SOL    HW222336   6.378   0.059   2.228
 6833SOL     OW22337   2.665  10.577   8.844
 6833SOL    HW122338   2.711  10.648   8.887
 6833SOL    HW222339   2.646  10.610   8.756
 6834SOL     OW22340   0.066   2.137  10.450
 6834SOL    HW122341   0.008   2.146  10.375
 6834SOL    HW222342   0.056   2.045  10.477
 6835SOL     OW22343   0.844   5.088   6.269
 6835SOL    HW122344   0.860   4.997   6.293
 6835SOL    HW222345   0.749   5.094   6.258
 6836SOL     OW22346   6.501  14.640  14.815
 6836SOL    HW122347   6.587  14.668  14.783
 6836SOL    HW222348   6.448  14.630  14.736
 6837SOL     OW22349   2.663   7.927   2.274
 6837SOL    HW122350   2.603   7.995   2.303
 6837SOL    HW222351   2.630   7.846   2.314
 6838SOL     OW22352   0.896  11.794   3.400
 6838SOL    HW122353   0.859  11.846   3.330
 6838SOL    HW222354   0.965  11.849   3.437
 6839SOL     OW22355   5.133   6.775  10.445
 6839SOL    HW122356   5.151   6.839  10.376
 6839SOL    HW222357   5.201   6.709  10.435
 6840SOL     OW22358   0.407  13.800   3.032
 6840SOL    HW122359   0.370  13.818   3.118
 6840SOL    HW222360   0.360  13.857   2.973
 6841SOL     OW22361   7.314   0.499   7.273
 6841SOL    HW122362   7.290   0.408   7.291
 6841SOL    HW222363   7.315   0.505   7.177
 6842SOL     OW22364   9.527   2.842   0.316
 6842SOL    HW122365   9.553   2.923   0.272
 6842SOL    HW222366   9.458   2.806   0.260
 6843SOL     OW22367   1.477   2.250  12.133
 6843SOL    HW122368   1.532   2.297  12.195
 6843SOL    HW222369   1.537   2.224  12.063
 6844SOL     OW22370  13.924   2.972   7.148
 6844SOL    HW122371  13.997   2.930   7.194
 6844SOL    HW222372  13.872   3.013   7.217
 6845SOL     OW22373  13.714   4.021   2.638
 6845SOL    HW122374  13.668   3.949   2.595
 6845SOL    HW222375  13.711   3.998   2.731
 6846SOL     OW22376   2.757   4.362   8.111
 6846SOL    HW122377   2.835   4.402   8.150
 6846SOL    HW222378   2.722   4.305   8.180
 6847SOL     OW22379  12.610  10.805  11.151
 6847SOL    HW122380  12.580  10.714  11.163
 6847SOL    HW222381  12.536  10.858  11.179
 6848SOL     OW22382   4.813  13.401   8.912
 6848SOL    HW122383   4.822  13.482   8.861
 6848SOL    HW222384   4.736  13.358   8.875
 6849SOL     OW22385  13.376   4.624   9.540
 6849SOL    HW122386  13.448   4.598   9.596
 6849SOL    HW222387  13.319   4.548   9.537
 6850SOL     OW22388   3.426   2.348   6.869
 6850SOL    HW122389   3.345   2.362   6.917
 6850SOL    HW222390   3.406   2.275   6.810
 6851SOL     OW22391  13.099  12.252  11.826
 6851SOL    HW122392  13.027  12.199  11.862
 6851SOL    HW222393  13.093  12.239  11.731
 6852SOL     OW22394  11.045   2.666   3.393
 6852SOL    HW122395  11.098   2.664   3.313
 6852SOL    HW222396  11.050   2.757   3.422
 6853SOL     OW22397   3.191   9.006   7.368
 6853SOL    HW122398   3.172   8.930   7.423
 6853SOL    HW222399   3.228   9.071   7.428
 6854SOL     OW22400  10.265  10.933   3.751
 6854SOL    HW122401  10.332  10.966   3.691
 6854SOL    HW222402  10.207  10.881   3.695
 6855SOL     OW22403  14.279   1.572   6.204
 6855SOL    HW122404  14.233   1.489   6.196
 6855SOL    HW222405  14.323   1.567   6.289
 6856SOL     OW22406   5.655   0.270   9.542
 6856SOL    HW122407   5.579   0.290   9.489
 6856SOL    HW222408   5.625   0.281   9.632
 6857SOL     OW22409   8.170   4.604  14.267
 6857SOL    HW122410   8.095   4.545  14.267
 6857SOL    HW222411   8.176   4.635  14.176
 6858SOL     OW22412   4.198   0.594   0.692
 6858SOL    HW122413   4.127   0.652   0.663
 6858SOL    HW222414   4.276   0.629   0.649
 6859SOL     OW22415  11.694  10.808  10.387
 6859SOL    HW122416  11.743  10.814  10.305
 6859SOL    HW222417  11.756  10.769  10.449
 6860SOL     OW22418   7.018   5.998   1.887
 6860SOL    HW122419   7.078   5.969   1.956
 6860SOL    HW222420   7.074   6.009   1.810
 6861SOL     OW22421   3.647  13.197   0.091
 6861SOL    HW122422   3.681  13.121   0.136
 6861SOL    HW222423   3.574  13.227   0.146
 6862SOL     OW22424   8.143   0.262   1.337
 6862SOL    HW122425   8.092   0.326   1.288
 6862SOL    HW222426   8.228   0.305   1.351
 6863SOL     OW22427   6.718   8.678   8.864
 6863SOL    HW122428   6.791   8.697   8.805
 6863SOL    HW222429   6.644   8.662   8.805
 6864SOL     OW22430   7.080  14.348  10.388
 6864SOL    HW122431   7.001  14.370  10.338
 6864SOL    HW222432   7.048  14.326  10.475
 6865SOL     OW22433   5.392   4.121   6.399
 6865SOL    HW122434   5.349   4.059   6.339
 6865SOL    HW222435   5.456   4.166   6.344
 6866SOL     OW22436   9.660   5.701   1.710
 6866SOL    HW122437   9.662   5.607   1.692
 6866SOL    HW222438   9.653   5.742   1.623
 6867SOL     OW22439   7.400   8.294   8.173
 6867SOL    HW122440   7.386   8.354   8.099
 6867SOL    HW222441   7.332   8.227   8.162
 6868SOL     OW22442   2.894  14.462   7.604
 6868SOL    HW122443   2.883  14.430   7.694
 6868SOL    HW222444   2.812  14.439   7.560
 6869SOL     OW22445   6.820   7.334   8.390
 6869SOL    HW122446   6.817   7.317   8.484
 6869SOL    HW222447   6.786   7.253   8.350
 6870SOL     OW22448   9.523  14.357  10.184
 6870SOL    HW122449   9.460  14.325  10.248
 6870SOL    HW222450   9.495  14.319  10.101
 6871SOL     OW22451   6.156   5.018   7.333
 6871SOL    HW122452   6.074   5.050   7.295
 6871SOL    HW222453   6.224   5.057   7.278
 6872SOL     OW22454  12.180   6.759  13.843
 6872SOL    HW122455  12.176   6.820  13.769
 6872SOL    HW222456  12.265   6.716  13.833
 6873SOL     OW22457   2.927   1.101  11.725
 6873SOL    HW122458   2.908   1.022  11.776
 6873SOL    HW222459   2.846   1.151  11.726
 6874SOL     OW22460   4.640   7.088   1.963
 6874SOL    HW122461   4.712   7.043   1.918
 6874SOL    HW222462   4.577   7.019   1.984
 6875SOL     OW22463   6.564  12.959   5.959
 6875SOL    HW122464   6.602  12.871   5.954
 6875SOL    HW222465   6.540  12.979   5.869
 6876SOL     OW22466   4.597  11.493  13.209
 6876SOL    HW122467   4.588  11.421  13.146
 6876SOL    HW222468   4.691  11.497  13.227
 6877SOL     OW22469   3.659   3.486   8.644
 6877SOL    HW122470   3.624   3.507   8.557
 6877SOL    HW222471   3.750   3.514   8.641
 6878SOL     OW22472  11.069   0.705  12.957
 6878SOL    HW122473  11.025   0.622  12.977
 6878SOL    HW222474  11.155   0.696  12.997
 6879SOL     OW22475   7.669   3.138   4.480
 6879SOL    HW122476   7.593   3.178   4.523
 6879SOL    HW222477   7.744   3.190   4.510
 6880SOL     OW22478  10.495  10.457  13.250
 6880SOL    HW122479  10.452  10.520  13.192
 6880SOL    HW222480  10.442  10.459  13.330
 6881SOL     OW22481   5.024   7.215   6.218
 6881SOL    HW122482   5.115   7.190   6.236
 6881SOL    HW222483   5.031   7.281   6.149
 6882SOL     OW22484   4.127   2.188  12.669
 6882SOL    HW122485   4.136   2.111  12.613
 6882SOL    HW222486   4.048   2.171  12.720
 6883SOL     OW22487   4.590   4.670   0.434
 6883SOL    HW122488   4.560   4.709   0.516
 6883SOL    HW222489   4.512   4.665   0.379
 6884SOL     OW22490   5.513  14.208   4.717
 6884SOL    HW122491   5.470  14.255   4.788
 6884SOL    HW222492   5.606  14.220   4.734
 6885SOL     OW22493   9.797  13.880   4.100
 6885SOL    HW122494   9.850  13.935   4.157
 6885SOL    HW222495   9.707  13.908   4.116
 6886SOL     OW22496  11.613   8.586  12.337
 6886SOL    HW122497  11.558   8.586  12.259
 6886SOL    HW222498  11.631   8.493  12.353
 6887SOL     OW22499  12.272  12.971   9.853
 6887SOL    HW122500  12.299  13.063   9.851
 6887SOL    HW222501  12.212  12.965   9.928
 6888SOL     OW22502   8.822   3.487  11.414
 6888SOL    HW122503   8.762   3.421  11.450
 6888SOL    HW222504   8.868   3.522  11.491
 6889SOL     OW22505  10.613  11.453   5.425
 6889SOL    HW122506  10.524  11.438   5.457
 6889SOL    HW222507  10.602  11.517   5.354
 6890SOL     OW22508   4.441   8.663   4.209
 6890SOL    HW122509   4.450   8.596   4.142
 6890SOL    HW222510   4.476   8.742   4.168
 6891SOL     OW22511   6.042   6.052   1.855
 6891SOL    HW122512   6.053   6.137   1.898
 6891SOL    HW222513   5.983   6.003   1.912
 6892SOL     OW22514  13.555   6.919   8.483
 6892SOL    HW122515  13.500   6.853   8.525
 6892SOL    HW222516  13.628   6.869   8.446
 6893SOL     OW22517  11.874   9.043  11.211
 6893SOL    HW122518  11.960   9.066  11.245
 6893SOL    HW222519  11.871   8.948  11.215
 6894SOL     OW22520   8.420   2.194   3.105
 6894SOL    HW122521   8.415   2.284   3.138
 6894SOL    HW222522   8.330   2.172   3.082
 6895SOL     OW22523   7.695   4.516  10.373
 6895SOL    HW122524   7.713   4.548  10.461
 6895SOL    HW222525   7.688   4.595  10.319
 6896SOL     OW22526   8.862   4.314  14.404
 6896SOL    HW122527   8.850   4.336  14.312
 6896SOL    HW222528   8.898   4.393  14.444
 6897SOL     OW22529   3.370  14.503   2.958
 6897SOL    HW122530   3.419  14.434   3.003
 6897SOL    HW222531   3.300  14.456   2.911
 6898SOL     OW22532  11.833  11.815   3.842
 6898SOL    HW122533  11.872  11.897   3.875
 6898SOL    HW222534  11.905  11.752   3.845
 6899SOL     OW22535  13.595  12.493  14.057
 6899SOL    HW122536  13.636  12.466  13.974
 6899SOL    HW222537  13.508  12.454  14.055
 6900SOL     OW22538   6.954  10.298   5.908
 6900SOL    HW122539   6.875  10.252   5.938
 6900SOL    HW222540   6.958  10.376   5.964
 6901SOL     OW22541   6.278   9.177   6.424
 6901SOL    HW122542   6.281   9.099   6.480
 6901SOL    HW222543   6.322   9.151   6.344
 6902SOL     OW22544   9.971   2.158  11.562
 6902SOL    HW122545   9.967   2.249  11.534
 6902SOL    HW222546   9.975   2.162  11.658
 6903SOL     OW22547   7.047   5.291  12.931
 6903SOL    HW122548   7.010   5.376  12.907
 6903SOL    HW222549   7.018   5.232  12.862
 6904SOL     OW22550   3.360  10.558   4.406
 6904SOL    HW122551   3.389  10.473   4.440
 6904SOL    HW222552   3.267  10.562   4.429
 6905SOL     OW22553   6.025   6.309   6.928
 6905SOL    HW122554   5.963   6.382   6.939
 6905SOL    HW222555   5.982   6.251   6.866
 6906SOL     OW22556   5.315  10.964  14.533
 6906SOL    HW122557   5.321  11.012  14.615
 6906SOL    HW222558   5.226  10.930  14.530
 6907SOL     OW22559  11.233   0.857   2.510
 6907SOL    HW122560  11.271   0.895   2.590
 6907SOL    HW222561  11.284   0.894   2.439
 6908SOL     OW22562   0.575   9.543  11.045
 6908SOL    HW122563   0.486   9.520  11.073
 6908SOL    HW222564   0.612   9.461  11.013
 6909SOL     OW22565   4.288   4.435   2.988
 6909SOL    HW122566   4.356   4.381   3.028
 6909SOL    HW222567   4.323   4.456   2.901
 6910SOL     OW22568  13.435  10.181   2.018
 6910SOL    HW122569  13.492  10.189   2.094
 6910SOL    HW222570  13.347  10.169   2.055
 6911SOL     OW22571   8.607   9.496  11.312
 6911SOL    HW122572   8.660   9.435  11.260
 6911SOL    HW222573   8.518   9.463  11.303
 6912SOL     OW22574  10.310   5.956  14.681
 6912SOL    HW122575  10.398   5.956  14.645
 6912SOL    HW222576  10.308   6.031  14.741
 6913SOL     OW22577   4.538  12.141   4.735
 6913SOL    HW122578   4.546  12.071   4.671
 6913SOL    HW222579   4.554  12.221   4.686
 6914SOL     OW22580   8.046  12.340   2.810
 6914SOL    HW122581   7.994  12.282   2.865
 6914SOL    HW222582   8.001  12.424   2.811
 6915SOL     OW22583  13.989   9.516   2.776
 6915SOL    HW122584  14.025   9.568   2.848
 6915SOL    HW222585  13.907   9.481   2.810
 6916SOL     OW22586  12.704  11.176   1.411
 6916SOL    HW122587  12.661  11.115   1.351
 6916SOL    HW222588  12.634  11.206   1.469
 6917SOL     OW22589   7.845   9.221  14.798
 6917SOL    HW122590   7.909   9.172  14.746
 6917SOL    HW222591   7.856   9.189   0.008
 6918SOL     OW22592  11.436  13.338  12.698
 6918SOL    HW122593  11.461  13.329  12.790
 6918SOL    HW222594  11.472  13.423  12.671
 6919SOL     OW22595   8.284   2.552   1.199
 6919SOL    HW122596   8.247   2.465   1.184
 6919SOL    HW222597   8.217   2.599   1.249
 6920SOL     OW22598  10.443   0.762  10.766
 6920SOL    HW122599  10.436   0.779  10.859
 6920SOL    HW222600  10.383   0.689  10.750
 6921SOL     OW22601   6.529   1.109   3.011
 6921SOL    HW122602   6.522   1.187   3.066
 6921SOL    HW222603   6.495   1.038   3.065
 6922SOL     OW22604   8.238  11.742  14.001
 6922SOL    HW122605   8.311  11.733  13.940
 6922SOL    HW222606   8.202  11.829  13.982
 6923SOL     OW22607   5.772  11.751   6.975
 6923SOL    HW122608   5.748  11.660   6.994
 6923SOL    HW222609   5.864  11.757   7.001
 6924SOL     OW22610   8.737   5.087   9.515
 6924SOL    HW122611   8.708   5.114   9.602
 6924SOL    HW222612   8.667   5.113   9.456
 6925SOL     OW22613   3.006   3.532   4.185
 6925SOL    HW122614   2.950   3.571   4.117
 6925SOL    HW222615   2.948   3.522   4.261
 6926SOL     OW22616   0.289   0.299   8.485
 6926SOL    HW122617   0.338   0.380   8.500
 6926SOL    HW222618   0.239   0.287   8.565
 6927SOL     OW22619   7.999   6.001  12.649
 6927SOL    HW122620   7.946   6.076  12.678
 6927SOL    HW222621   7.937   5.929  12.643
 6928SOL     OW22622   2.251   4.543   5.160
 6928SOL    HW122623   2.267   4.613   5.096
 6928SOL    HW222624   2.332   4.540   5.211
 6929SOL     OW22625  10.042   6.589  13.880
 6929SOL    HW122626  10.052   6.563  13.789
 6929SOL    HW222627  10.046   6.507  13.929
 6930SOL     OW22628   9.309  11.790   2.262
 6930SOL    HW122629   9.329  11.719   2.201
 6930SOL    HW222630   9.225  11.824   2.231
 6931SOL     OW22631   4.106   9.354   4.574
 6931SOL    HW122632   4.118   9.295   4.649
 6931SOL    HW222633   4.180   9.336   4.517
 6932SOL     OW22634   7.217   4.564   6.018
 6932SOL    HW122635   7.212   4.469   6.033
 6932SOL    HW222636   7.140   4.584   5.964
 6933SOL     OW22637   7.174  11.170  10.702
 6933SOL    HW122638   7.240  11.116  10.745
 6933SOL    HW222639   7.206  11.260  10.713
 6934SOL     OW22640   7.926   3.723   5.327
 6934SOL    HW122641   8.000   3.694   5.380
 6934SOL    HW222642   7.966   3.777   5.258
 6935SOL     OW22643  13.317  12.404   4.738
 6935SOL    HW122644  13.272  12.334   4.785
 6935SOL    HW222645  13.410  12.383   4.746
 6936SOL     OW22646  12.245   0.106  11.451
 6936SOL    HW122647  12.330   0.112  11.495
 6936SOL    HW222648  12.199   0.186  11.477
 6937SOL     OW22649   9.826   5.389   4.354
 6937SOL    HW122650   9.898   5.451   4.372
 6937SOL    HW222651   9.763   5.405   4.424
 6938SOL     OW22652  12.468  14.700   1.382
 6938SOL    HW122653  12.473  14.795   1.395
 6938SOL    HW222654  12.547  14.678   1.334
 6939SOL     OW22655  14.164   6.433  10.990
 6939SOL    HW122656  14.147   6.349  10.948
 6939SOL    HW222657  14.109   6.433  11.068
 6940SOL     OW22658   0.741   8.132   9.553
 6940SOL    HW122659   0.828   8.121   9.516
 6940SOL    HW222660   0.686   8.070   9.505
 6941SOL     OW22661   5.341  12.265   5.390
 6941SOL    HW122662   5.311  12.356   5.384
 6941SOL    HW222663   5.354  12.249   5.483
 6942SOL     OW22664   3.024   4.470  14.469
 6942SOL    HW122665   3.083   4.426  14.408
 6942SOL    HW222666   3.083   4.512  14.532
 6943SOL     OW22667   1.268  13.989   9.865
 6943SOL    HW122668   1.339  14.047   9.892
 6943SOL    HW222669   1.218  14.039   9.801
 6944SOL     OW22670   0.277   6.322  13.874
 6944SOL    HW122671   0.219   6.307  13.800
 6944SOL    HW222672   0.273   6.240  13.925
 6945SOL     OW22673   4.151   6.306   1.502
 6945SOL    HW122674   4.080   6.256   1.542
 6945SOL    HW222675   4.120   6.397   1.505
 6946SOL     OW22676   9.738  11.759   4.175
 6946SOL    HW122677   9.794  11.830   4.145
 6946SOL    HW222678   9.756  11.687   4.114
 6947SOL     OW22679   9.296  14.025   4.674
 6947SOL    HW122680   9.379  14.009   4.629
 6947SOL    HW222681   9.321  14.048   4.763
 6948SOL     OW22682  11.136   6.616   7.031
 6948SOL    HW122683  11.155   6.622   6.937
 6948SOL    HW222684  11.204   6.671   7.072
 6949SOL     OW22685   2.927  10.781   7.807
 6949SOL    HW122686   2.869  10.781   7.731
 6949SOL    HW222687   2.912  10.696   7.848
 6950SOL     OW22688  10.991   4.252  14.474
 6950SOL    HW122689  10.913   4.226  14.523
 6950SOL    HW222690  11.044   4.173  14.470
 6951SOL     OW22691   1.673   5.082  12.789
 6951SOL    HW122692   1.708   5.021  12.855
 6951SOL    HW222693   1.719   5.165  12.807
 6952SOL     OW22694  10.730   7.376   4.435
 6952SOL    HW122695  10.703   7.392   4.344
 6952SOL    HW222696  10.752   7.462   4.469
 6953SOL     OW22697   1.775   0.882  11.630
 6953SOL    HW122698   1.709   0.911  11.693
 6953SOL    HW222699   1.725   0.837  11.562
 6954SOL     OW22700   6.127   0.217   2.486
 6954SOL    HW122701   6.218   0.244   2.484
 6954SOL    HW222702   6.130   0.121   2.486
 6955SOL     OW22703   7.885   9.293   0.792
 6955SOL    HW122704   7.802   9.302   0.745
 6955SOL    HW222705   7.911   9.202   0.779
 6956SOL     OW22706   3.055  13.062  10.236
 6956SOL    HW122707   3.032  12.991  10.176
 6956SOL    HW222708   3.095  13.128  10.180
 6957SOL     OW22709   2.352   8.561   0.709
 6957SOL    HW122710   2.426   8.502   0.722
 6957SOL    HW222711   2.384   8.647   0.734
 6958SOL     OW22712  12.663  10.162  10.477
 6958SOL    HW122713  12.669  10.143  10.384
 6958SOL    HW222714  12.680  10.077  10.520
 6959SOL     OW22715   1.240   0.958  10.726
 6959SOL    HW122716   1.298   1.020  10.769
 6959SOL    HW222717   1.190   0.919  10.797
 6960SOL     OW22718   4.740   7.965   3.415
 6960SOL    HW122719   4.664   7.948   3.360
 6960SOL    HW222720   4.768   7.878   3.444
 6961SOL     OW22721   2.673  13.048   1.135
 6961SOL    HW122722   2.682  12.963   1.093
 6961SOL    HW222723   2.757  13.061   1.181
 6962SOL     OW22724  10.336   2.906   2.016
 6962SOL    HW122725  10.398   2.948   2.076
 6962SOL    HW222726  10.279   2.854   2.074
 6963SOL     OW22727   3.811  13.346   9.171
 6963SOL    HW122728   3.739  13.300   9.128
 6963SOL    HW222729   3.881  13.282   9.176
 6964SOL     OW22730   8.681   6.587   7.854
 6964SOL    HW122731   8.631   6.601   7.774
 6964SOL    HW222732   8.626   6.621   7.924
 6965SOL     OW22733  14.443   1.945  14.011
 6965SOL    HW122734  14.368   1.889  14.030
 6965SOL    HW222735  14.509   1.918  14.075
 6966SOL     OW22736   1.229  12.709   6.247
 6966SOL    HW122737   1.219  12.629   6.299
 6966SOL    HW222738   1.141  12.745   6.240
 6967SOL     OW22739  14.837  12.028   9.057
 6967SOL    HW122740  14.755  12.022   9.106
 6967SOL    HW222741  14.811  12.047   8.967
 6968SOL     OW22742  13.746   6.712   1.523
 6968SOL    HW122743  13.759   6.622   1.495
 6968SOL    HW222744  13.701   6.754   1.450
 6969SOL     OW22745   5.210   5.311   4.395
 6969SOL    HW122746   5.186   5.218   4.404
 6969SOL    HW222747   5.216   5.342   4.485
 6970SOL     OW22748   1.469  14.062   1.515
 6970SOL    HW122749   1.425  14.092   1.436
 6970SOL    HW222750   1.464  14.137   1.575
 6971SOL     OW22751  13.295   4.176  10.284
 6971SOL    HW122752  13.244   4.229  10.223
 6971SOL    HW222753  13.318   4.235  10.355
 6972SOL     OW22754   2.247   1.425  11.774
 6972SOL    HW122755   2.280   1.348  11.728
 6972SOL    HW222756   2.196   1.472  11.708
 6973SOL     OW22757   9.421   9.570   0.772
 6973SOL    HW122758   9.376   9.654   0.771
 6973SOL    HW222759   9.352   9.505   0.784
 6974SOL     OW22760   9.869   2.284   6.425
 6974SOL    HW122761   9.883   2.374   6.455
 6974SOL    HW222762   9.801   2.250   6.484
 6975SOL     OW22763   9.878  10.844   7.100
 6975SOL    HW122764   9.791  10.834   7.060
 6975SOL    HW222765   9.935  10.785   7.051
 6976SOL     OW22766   5.910   7.650   2.512
 6976SOL    HW122767   5.993   7.675   2.554
 6976SOL    HW222768   5.930   7.569   2.465
 6977SOL     OW22769   9.892   4.978   2.432
 6977SOL    HW122770   9.849   4.976   2.518
 6977SOL    HW222771   9.824   5.010   2.373
 6978SOL     OW22772   1.119   7.941  10.986
 6978SOL    HW122773   1.122   7.869  10.923
 6978SOL    HW222774   1.210   7.952  11.013
 6979SOL     OW22775  13.525   4.983  13.450
 6979SOL    HW122776  13.599   4.949  13.400
 6979SOL    HW222777  13.564   5.048  13.508
 6980SOL     OW22778  14.795   1.059  13.686
 6980SOL    HW122779  14.860   1.039  13.619
 6980SOL    HW222780  14.747   0.977  13.698
 6981SOL     OW22781  10.800   1.850   4.861
 6981SOL    HW122782  10.883   1.832   4.816
 6981SOL    HW222783  10.747   1.772   4.845
 6982SOL     OW22784  10.011  11.884  12.143
 6982SOL    HW122785   9.919  11.872  12.118
 6982SOL    HW222786  10.059  11.869  12.061
 6983SOL     OW22787   5.503   3.705   6.613
 6983SOL    HW122788   5.572   3.691   6.548
 6983SOL    HW222789   5.512   3.797   6.638
 6984SOL     OW22790   0.153  14.154  11.422
 6984SOL    HW122791   0.104  14.212  11.481
 6984SOL    HW222792   0.145  14.195  11.336
 6985SOL     OW22793   1.530   7.487  12.517
 6985SOL    HW122794   1.526   7.555  12.450
 6985SOL    HW222795   1.512   7.405  12.471
 6986SOL     OW22796   6.368  13.361   2.757
 6986SOL    HW122797   6.368  13.266   2.763
 6986SOL    HW222798   6.283  13.383   2.718
 6987SOL     OW22799   0.162   9.208   0.597
 6987SOL    HW122800   0.205   9.270   0.538
 6987SOL    HW222801   0.199   9.227   0.683
 6988SOL     OW22802   7.015   8.978  10.947
 6988SOL    HW122803   6.927   8.940  10.946
 6988SOL    HW222804   7.038   8.988  10.854
 6989SOL     OW22805  10.310   1.880  10.752
 6989SOL    HW122806  10.361   1.806  10.784
 6989SOL    HW222807  10.270   1.849  10.671
 6990SOL     OW22808   9.671   9.393  13.730
 6990SOL    HW122809   9.654   9.348  13.648
 6990SOL    HW222810   9.601   9.458  13.737
 6991SOL     OW22811  10.996   2.223   4.295
 6991SOL    HW122812  10.956   2.154   4.243
 6991SOL    HW222813  10.927   2.254   4.354
 6992SOL     OW22814  14.680   5.977  14.188
 6992SOL    HW122815  14.699   5.915  14.258
 6992SOL    HW222816  14.736   6.053  14.207
 6993SOL     OW22817   9.397   2.864   8.975
 6993SOL    HW122818   9.311   2.905   8.964
 6993SOL    HW222819   9.439   2.915   9.045
 6994SOL     OW22820   1.699   6.616   7.972
 6994SOL    HW122821   1.701   6.642   8.064
 6994SOL    HW222822   1.756   6.679   7.928
 6995SOL     OW22823  11.490  10.520  14.624
 6995SOL    HW122824  11.553  10.577  14.580
 6995SOL    HW222825  11.541  10.444  14.650
 6996SOL     OW22826   0.625  11.410  13.320
 6996SOL    HW122827   0.695  11.386  13.260
 6996SOL    HW222828   0.546  11.408  13.267
 6997SOL     OW22829   0.040  14.256   1.684
 6997SOL    HW122830   0.132  14.250   1.658
 6997SOL    HW222831   0.028  14.348   1.708
 6998SOL     OW22832   1.975   7.462   7.227
 6998SOL    HW122833   1.893   7.460   7.177
 6998SOL    HW222834   2.006   7.552   7.218
 6999SOL     OW22835   4.193   3.059   3.197
 6999SOL    HW122836   4.251   3.051   3.121
 6999SOL    HW222837   4.179   3.154   3.206
 7000SOL     OW22838   9.435   3.129   5.656
 7000SOL    HW122839   9.346   3.104   5.633
 7000SOL    HW222840   9.473   3.049   5.692
 7001SOL     OW22841   5.433  11.479   1.432
 7001SOL    HW122842   5.387  11.561   1.450
 7001SOL    HW222843   5.419  11.464   1.339
 7002SOL     OW22844   5.271   3.960   9.249
 7002SOL    HW122845   5.347   4.011   9.221
 7002SOL    HW222846   5.268   3.887   9.187
 7003SOL     OW22847   1.281   9.430  13.763
 7003SOL    HW122848   1.319   9.442  13.850
 7003SOL    HW222849   1.351   9.391  13.711
 7004SOL     OW22850   3.154   1.337   3.012
 7004SOL    HW122851   3.097   1.413   3.001
 7004SOL    HW222852   3.178   1.312   2.923
 7005SOL     OW22853  14.814   6.312   6.974
 7005SOL    HW122854  14.774   6.398   6.988
 7005SOL    HW222855  14.867   6.297   7.053
 7006SOL     OW22856  11.906   6.316   9.016
 7006SOL    HW122857  11.821   6.360   9.024
 7006SOL    HW222858  11.964   6.363   9.076
 7007SOL     OW22859   2.575  14.069   7.286
 7007SOL    HW122860   2.524  14.103   7.213
 7007SOL    HW222861   2.653  14.030   7.246
 7008SOL     OW22862   6.271  14.200  11.162
 7008SOL    HW122863   6.308  14.183  11.075
 7008SOL    HW222864   6.291  14.292  11.178
 7009SOL     OW22865  10.234   9.702   2.245
 7009SOL    HW122866  10.277   9.778   2.207
 7009SOL    HW222867  10.292   9.674   2.316
 7010SOL     OW22868   9.831   2.431   5.550
 7010SOL    HW122869   9.797   2.492   5.485
 7010SOL    HW222870   9.891   2.375   5.501
 7011SOL     OW22871  14.419  10.701   7.030
 7011SOL    HW122872  14.505  10.732   7.060
 7011SOL    HW222873  14.385  10.650   7.103
 7012SOL     OW22874  13.058   2.168   5.684
 7012SOL    HW122875  13.038   2.256   5.651
 7012SOL    HW222876  13.151   2.173   5.707
 7013SOL     OW22877   1.397   6.635   0.289
 7013SOL    HW122878   1.481   6.671   0.317
 7013SOL    HW222879   1.420   6.560   0.234
 7014SOL     OW22880  11.844   9.383   8.831
 7014SOL    HW122881  11.894   9.459   8.803
 7014SOL    HW222882  11.755   9.398   8.799
 7015SOL     OW22883   3.558   4.703   7.246
 7015SOL    HW122884   3.482   4.695   7.188
 7015SOL    HW222885   3.522   4.695   7.334
 7016SOL     OW22886  13.486   0.493  14.157
 7016SOL    HW122887  13.542   0.498  14.080
 7016SOL    HW222888  13.397   0.491  14.122
 7017SOL     OW22889  11.688   2.485  14.331
 7017SOL    HW122890  11.701   2.493  14.425
 7017SOL    HW222891  11.691   2.576  14.299
 7018SOL     OW22892   6.302   2.193  11.040
 7018SOL    HW122893   6.349   2.148  10.970
 7018SOL    HW222894   6.215   2.153  11.040
 7019SOL     OW22895  13.157   6.355   8.424
 7019SOL    HW122896  13.205   6.404   8.357
 7019SOL    HW222897  13.081   6.319   8.377
 7020SOL     OW22898   3.559  12.259   6.765
 7020SOL    HW122899   3.608  12.253   6.683
 7020SOL    HW222900   3.469  12.276   6.738
 7021SOL     OW22901  13.323   6.917  11.427
 7021SOL    HW122902  13.396   6.964  11.387
 7021SOL    HW222903  13.253   6.921  11.362
 7022SOL     OW22904   9.424   9.327   4.252
 7022SOL    HW122905   9.380   9.339   4.168
 7022SOL    HW222906   9.421   9.414   4.293
 7023SOL     OW22907  13.346   6.209   0.979
 7023SOL    HW122908  13.269   6.259   1.006
 7023SOL    HW222909  13.358   6.230   0.887
 7024SOL     OW22910  12.396   6.382  12.422
 7024SOL    HW122911  12.338   6.308  12.442
 7024SOL    HW222912  12.480   6.341  12.401
 7025SOL     OW22913  10.767   9.795  11.332
 7025SOL    HW122914  10.785   9.853  11.258
 7025SOL    HW222915  10.695   9.838  11.379
 7026SOL     OW22916   7.583   5.451   3.280
 7026SOL    HW122917   7.566   5.369   3.232
 7026SOL    HW222918   7.542   5.438   3.365
 7027SOL     OW22919   9.274   1.643  11.658
 7027SOL    HW122920   9.339   1.572  11.662
 7027SOL    HW222921   9.326   1.723  11.650
 7028SOL     OW22922  14.324   9.000  11.218
 7028SOL    HW122923  14.278   9.082  11.236
 7028SOL    HW222924  14.362   8.974  11.302
 7029SOL     OW22925  13.775   9.614  11.109
 7029SOL    HW122926  13.793   9.629  11.016
 7029SOL    HW222927  13.861   9.606  11.149
 7030SOL     OW22928  13.533   6.113  11.327
 7030SOL    HW122929  13.543   6.073  11.240
 7030SOL    HW222930  13.550   6.041  11.388
 7031SOL     OW22931   4.723   6.253  11.353
 7031SOL    HW122932   4.752   6.308  11.427
 7031SOL    HW222933   4.647   6.299  11.317
 7032SOL     OW22934   7.370   6.598   0.994
 7032SOL    HW122935   7.413   6.619   0.911
 7032SOL    HW222936   7.284   6.639   0.987
 7033SOL     OW22937   4.061  14.844   6.074
 7033SOL    HW122938   4.036   0.056   6.056
 7033SOL    HW222939   4.028  14.828   6.163
 7034SOL     OW22940  11.097   8.127   2.581
 7034SOL    HW122941  11.007   8.105   2.605
 7034SOL    HW222942  11.150   8.088   2.650
 7035SOL     OW22943   9.504   3.845   6.246
 7035SOL    HW122944   9.566   3.819   6.178
 7035SOL    HW222945   9.418   3.825   6.210
 7036SOL     OW22946   7.379   5.724   8.712
 7036SOL    HW122947   7.394   5.682   8.796
 7036SOL    HW222948   7.337   5.808   8.735
 7037SOL     OW22949   5.973   4.904  12.471
 7037SOL    HW122950   6.022   4.972  12.517
 7037SOL    HW222951   6.039   4.855  12.422
 7038SOL     OW22952  11.645  14.566   1.602
 7038SOL    HW122953  11.654  14.555   1.508
 7038SOL    HW222954  11.626  14.479   1.636
 7039SOL     OW22955  13.736  14.218  12.846
 7039SOL    HW122956  13.679  14.232  12.922
 7039SOL    HW222957  13.702  14.277  12.779
 7040SOL     OW22958   1.287   9.582   0.339
 7040SOL    HW122959   1.262   9.499   0.299
 7040SOL    HW222960   1.311   9.558   0.429
 7041SOL     OW22961   7.268   5.412   8.558
 7041SOL    HW122962   7.357   5.393   8.528
 7041SOL    HW222963   7.277   5.426   8.653
 7042SOL     OW22964   1.797   0.259  10.111
 7042SOL    HW122965   1.849   0.192  10.155
 7042SOL    HW222966   1.743   0.296  10.181
 7043SOL     OW22967  10.127   1.085  13.516
 7043SOL    HW122968  10.152   1.012  13.461
 7043SOL    HW222969  10.037   1.106  13.490
 7044SOL     OW22970  13.593   1.425   2.759
 7044SOL    HW122971  13.578   1.353   2.697
 7044SOL    HW222972  13.676   1.464   2.730
 7045SOL     OW22973   8.617   5.487   8.704
 7045SOL    HW122974   8.665   5.480   8.621
 7045SOL    HW222975   8.566   5.406   8.709
 7046SOL     OW22976  14.326   4.161  12.738
 7046SOL    HW122977  14.333   4.079  12.689
 7046SOL    HW222978  14.255   4.145  12.800
 7047SOL     OW22979   8.177  13.387   8.641
 7047SOL    HW122980   8.227  13.468   8.635
 7047SOL    HW222981   8.205  13.335   8.566
 7048SOL     OW22982  14.600  10.021   4.292
 7048SOL    HW122983  14.605   9.943   4.348
 7048SOL    HW222984  14.691  10.043   4.272
 7049SOL     OW22985  13.699  10.693   5.843
 7049SOL    HW122986  13.778  10.743   5.866
 7049SOL    HW222987  13.646  10.755   5.793
 7050SOL     OW22988   1.195   1.014  12.524
 7050SOL    HW122989   1.194   1.109  12.537
 7050SOL    HW222990   1.170   1.002  12.432
 7051SOL     OW22991   5.498  12.525   1.281
 7051SOL    HW122992   5.407  12.555   1.275
 7051SOL    HW222993   5.543  12.571   1.210
 7052SOL     OW22994   5.577  14.482   6.399
 7052SOL    HW122995   5.582  14.420   6.325
 7052SOL    HW222996   5.485  14.509   6.401
 7053SOL     OW22997  11.707   2.477   5.362
 7053SOL    HW122998  11.766   2.402   5.363
 7053SOL    HW222999  11.750   2.543   5.417
 7054SOL     OW23000   1.701   2.371   7.260
 7054SOL    HW123001   1.731   2.337   7.345
 7054SOL    HW223002   1.738   2.311   7.196
 7055SOL     OW23003   1.242   0.798  11.718
 7055SOL    HW123004   1.249   0.893  11.725
 7055SOL    HW223005   1.164   0.784  11.664
 7056SOL     OW23006   1.763  13.445   7.342
 7056SOL    HW123007   1.826  13.394   7.289
 7056SOL    HW223008   1.798  13.534   7.341
 7057SOL     OW23009  12.548   0.214   6.144
 7057SOL    HW123010  12.518   0.173   6.225
 7057SOL    HW223011  12.553   0.307   6.165
 7058SOL     OW23012   4.741   3.755   3.244
 7058SOL    HW123013   4.666   3.696   3.240
 7058SOL    HW223014   4.802   3.713   3.304
 7059SOL     OW23015  12.707   4.997  12.349
 7059SOL    HW123016  12.613   5.017  12.348
 7059SOL    HW223017  12.750   5.080  12.328
 7060SOL     OW23018   4.843  10.509  11.498
 7060SOL    HW123019   4.766  10.539  11.547
 7060SOL    HW223020   4.909  10.575  11.516
 7061SOL     OW23021  12.950  12.138   5.070
 7061SOL    HW123022  12.930  12.213   5.127
 7061SOL    HW223023  12.864  12.104   5.045
 7062SOL     OW23024  11.215   1.875   0.953
 7062SOL    HW123025  11.140   1.899   0.899
 7062SOL    HW223026  11.291   1.889   0.896
 7063SOL     OW23027   5.141   1.330   3.412
 7063SOL    HW123028   5.180   1.251   3.448
 7063SOL    HW223029   5.046   1.315   3.415
 7064SOL     OW23030   2.098  12.298   0.241
 7064SOL    HW123031   2.159  12.372   0.239
 7064SOL    HW223032   2.110  12.254   0.157
 7065SOL     OW23033   0.732   4.196   6.735
 7065SOL    HW123034   0.751   4.153   6.819
 7065SOL    HW223035   0.808   4.176   6.680
 7066SOL     OW23036   0.154  10.104   9.668
 7066SOL    HW123037   0.168  10.018   9.628
 7066SOL    HW223038   0.110  10.155   9.600
 7067SOL     OW23039   4.457   5.693  11.113
 7067SOL    HW123040   4.458   5.757  11.041
 7067SOL    HW223041   4.546   5.696  11.148
 7068SOL     OW23042   9.440   2.650   7.928
 7068SOL    HW123043   9.379   2.579   7.949
 7068SOL    HW223044   9.505   2.648   7.998
 7069SOL     OW23045   3.405   0.048   9.451
 7069SOL    HW123046   3.332  14.865   9.448
 7069SOL    HW223047   3.464   0.019   9.381
 7070SOL     OW23048   7.156  10.367   8.417
 7070SOL    HW123049   7.201  10.339   8.338
 7070SOL    HW223050   7.068  10.331   8.409
 7071SOL     OW23051   6.613   1.112   6.875
 7071SOL    HW123052   6.659   1.179   6.927
 7071SOL    HW223053   6.520   1.133   6.886
 7072SOL     OW23054   9.014   9.041   0.066
 7072SOL    HW123055   9.040   8.975   0.001
 7072SOL    HW223056   8.918   9.045   0.059
 7073SOL     OW23057   7.864   7.953   7.597
 7073SOL    HW123058   7.892   7.876   7.548
 7073SOL    HW223059   7.771   7.937   7.616
 7074SOL     OW23060  11.709  12.566  10.601
 7074SOL    HW123061  11.802  12.545  10.601
 7074SOL    HW223062  11.668  12.495  10.551
 7075SOL     OW23063   3.547   5.138  14.099
 7075SOL    HW123064   3.559   5.044  14.082
 7075SOL    HW223065   3.624   5.163  14.151
 7076SOL     OW23066  13.405  14.365   2.767
 7076SOL    HW123067  13.317  14.333   2.747
 7076SOL    HW223068  13.458  14.286   2.774
 7077SOL     OW23069   8.028  13.454   6.571
 7077SOL    HW123070   7.988  13.540   6.579
 7077SOL    HW223071   8.105  13.458   6.628
 7078SOL     OW23072  12.105   7.442   6.474
 7078SOL    HW123073  12.099   7.348   6.459
 7078SOL    HW223074  12.093   7.452   6.569
 7079SOL     OW23075   7.806   9.889   7.674
 7079SOL    HW123076   7.760   9.807   7.654
 7079SOL    HW223077   7.755   9.956   7.629
 7080SOL     OW23078   1.226   0.850   4.577
 7080SOL    HW123079   1.134   0.840   4.602
 7080SOL    HW223080   1.268   0.770   4.609
 7081SOL     OW23081  14.852   8.881  13.727
 7081SOL    HW123082   0.011   8.799  13.758
 7081SOL    HW223083  14.817   8.922  13.805
 7082SOL     OW23084  11.845   4.313   9.332
 7082SOL    HW123085  11.784   4.382   9.307
 7082SOL    HW223086  11.876   4.338   9.419
 7083SOL     OW23087   0.533   1.893   1.675
 7083SOL    HW123088   0.523   1.816   1.732
 7083SOL    HW223089   0.525   1.858   1.586
 7084SOL     OW23090   4.423   5.938  10.919
 7084SOL    HW123091   4.490   5.958  10.984
 7084SOL    HW223092   4.459   5.972  10.837
 7085SOL     OW23093   9.632  10.682   9.159
 7085SOL    HW123094   9.646  10.587   9.160
 7085SOL    HW223095   9.619  10.705   9.251
 7086SOL     OW23096   0.089   9.658   5.821
 7086SOL    HW123097   0.102   9.736   5.767
 7086SOL    HW223098  14.874   9.643   5.818
 7087SOL     OW23099   1.332  12.252   8.371
 7087SOL    HW123100   1.347  12.234   8.464
 7087SOL    HW223101   1.267  12.188   8.345
 7088SOL     OW23102   5.003  10.087  13.378
 7088SOL    HW123103   4.917  10.071  13.340
 7088SOL    HW223104   5.010  10.025  13.451
 7089SOL     OW23105   6.187   1.866  14.806
 7089SOL    HW123106   6.114   1.920  14.775
 7089SOL    HW223107   6.264   1.923  14.798
 7090SOL     OW23108  12.131  12.310  14.034
 7090SOL    HW123109  12.198  12.280  14.096
 7090SOL    HW223110  12.055  12.331  14.089
 7091SOL     OW23111   1.183  11.732  10.138
 7091SOL    HW123112   1.175  11.709  10.231
 7091SOL    HW223113   1.102  11.700  10.099
 7092SOL     OW23114  11.550  13.854  14.227
 7092SOL    HW123115  11.482  13.810  14.176
 7092SOL    HW223116  11.546  13.945  14.199
 7093SOL     OW23117   3.026  13.497   3.103
 7093SOL    HW123118   3.074  13.575   3.130
 7093SOL    HW223119   2.934  13.522   3.108
 7094SOL     OW23120   2.912   0.838   1.619
 7094SOL    HW123121   2.964   0.795   1.687
 7094SOL    HW223122   2.965   0.911   1.590
 7095SOL     OW23123   0.660   9.823   9.657
 7095SOL    HW123124   0.743   9.857   9.624
 7095SOL    HW223125   0.685   9.747   9.710
 7096SOL     OW23126   0.751  12.221   9.965
 7096SOL    HW123127   0.692  12.242  10.037
 7096SOL    HW223128   0.806  12.299   9.956
 7097SOL     OW23129  10.848   4.935   5.038
 7097SOL    HW123130  10.931   4.983   5.047
 7097SOL    HW223131  10.858   4.859   5.094
 7098SOL     OW23132   0.519   2.725   1.605
 7098SOL    HW123133   0.487   2.719   1.515
 7098SOL    HW223134   0.573   2.805   1.605
 7099SOL     OW23135   0.766   7.812  11.329
 7099SOL    HW123136   0.781   7.865  11.251
 7099SOL    HW223137   0.672   7.793  11.327
 7100SOL     OW23138  10.723   0.646   7.497
 7100SOL    HW123139  10.787   0.608   7.436
 7100SOL    HW223140  10.667   0.572   7.521
 7101SOL     OW23141   7.939   0.690  11.000
 7101SOL    HW123142   7.898   0.658  10.919
 7101SOL    HW223143   8.025   0.649  11.001
 7102SOL     OW23144  11.318  11.687   1.809
 7102SOL    HW123145  11.250  11.727   1.862
 7102SOL    HW223146  11.276  11.612   1.767
 7103SOL     OW23147  12.327   1.245   0.061
 7103SOL    HW123148  12.263   1.185   0.022
 7103SOL    HW223149  12.296   1.256   0.151
 7104SOL     OW23150   9.185  10.364   2.045
 7104SOL    HW123151   9.091  10.371   2.064
 7104SOL    HW223152   9.189  10.333   1.955
 7105SOL     OW23153   5.532  10.733   1.743
 7105SOL    HW123154   5.438  10.716   1.749
 7105SOL    HW223155   5.541  10.827   1.760
 7106SOL     OW23156   9.564   3.108  13.119
 7106SOL    HW123157   9.531   3.018  13.115
 7106SOL    HW223158   9.557   3.131  13.212
 7107SOL     OW23159   4.404  11.455   0.073
 7107SOL    HW123160   4.314  11.457   0.043
 7107SOL    HW223161   4.425  11.547   0.094
 7108SOL     OW23162   9.958  11.826   3.358
 7108SOL    HW123163   9.888  11.766   3.385
 7108SOL    HW223164   9.926  11.912   3.384
 7109SOL     OW23165   5.499  13.197   6.302
 7109SOL    HW123166   5.542  13.274   6.264
 7109SOL    HW223167   5.550  13.123   6.271
 7110SOL     OW23168  14.657   4.741  14.795
 7110SOL    HW123169  14.598   4.666  14.789
 7110SOL    HW223170  14.640   4.791  14.715
 7111SOL     OW23171  14.753  11.860   5.595
 7111SOL    HW123172  14.799  11.790   5.547
 7111SOL    HW223173  14.811  11.936   5.588
 7112SOL     OW23174   1.404   8.377   3.769
 7112SOL    HW123175   1.378   8.449   3.711
 7112SOL    HW223176   1.322   8.348   3.810
 7113SOL     OW23177   2.458   6.274   9.881
 7113SOL    HW123178   2.403   6.344   9.845
 7113SOL    HW223179   2.513   6.318   9.946
 7114SOL     OW23180  12.615   0.660   8.285
 7114SOL    HW123181  12.683   0.727   8.288
 7114SOL    HW223182  12.537   0.705   8.252
 7115SOL     OW23183  11.470   8.524  14.021
 7115SOL    HW123184  11.375   8.532  14.022
 7115SOL    HW223185  11.500   8.577  14.095
 7116SOL     OW23186  13.743  14.014   1.767
 7116SOL    HW123187  13.676  13.976   1.824
 7116SOL    HW223188  13.698  14.029   1.684
 7117SOL     OW23189  10.036  14.853   2.215
 7117SOL    HW123190  10.042   0.005   2.125
 7117SOL    HW223191  10.121  14.873   2.253
 7118SOL     OW23192   9.773   6.936   9.186
 7118SOL    HW123193   9.710   7.002   9.157
 7118SOL    HW223194   9.855   6.959   9.142
 7119SOL     OW23195  14.282   7.007   5.259
 7119SOL    HW123196  14.233   7.009   5.341
 7119SOL    HW223197  14.239   6.940   5.206
 7120SOL     OW23198  13.715   1.288   8.407
 7120SOL    HW123199  13.780   1.235   8.361
 7120SOL    HW223200  13.676   1.342   8.338
 7121SOL     OW23201  14.276   8.104   1.219
 7121SOL    HW123202  14.271   8.181   1.276
 7121SOL    HW223203  14.331   8.042   1.267
 7122SOL     OW23204   8.877  12.665   4.928
 7122SOL    HW123205   8.923  12.640   5.008
 7122SOL    HW223206   8.945  12.702   4.872
 7123SOL     OW23207  14.185   0.346   6.009
 7123SOL    HW123208  14.138   0.427   6.030
 7123SOL    HW223209  14.262   0.349   6.065
 7124SOL     OW23210  10.802   8.507   1.961
 7124SOL    HW123211  10.708   8.494   1.976
 7124SOL    HW223212  10.819   8.465   1.876
 7125SOL     OW23213   2.061   9.956   2.048
 7125SOL    HW123214   2.061   9.877   2.103
 7125SOL    HW223215   2.053   9.922   1.958
 7126SOL     OW23216   7.827   4.323  14.782
 7126SOL    HW123217   7.758   4.386  14.804
 7126SOL    HW223218   7.782   4.256  14.730
 7127SOL     OW23219  11.934   6.703   2.594
 7127SOL    HW123220  11.872   6.699   2.521
 7127SOL    HW223221  11.956   6.611   2.612
 7128SOL     OW23222   9.916   1.201   6.077
 7128SOL    HW123223   9.903   1.110   6.103
 7128SOL    HW223224   9.829   1.240   6.082
 7129SOL     OW23225  14.312   1.538   0.108
 7129SOL    HW123226  14.374   1.470   0.134
 7129SOL    HW223227  14.325   1.608   0.171
 7130SOL     OW23228   0.792   9.619  12.733
 7130SOL    HW123229   0.877   9.639  12.772
 7130SOL    HW223230   0.738   9.696  12.751
 7131SOL     OW23231   5.388   2.385  14.049
 7131SOL    HW123232   5.337   2.306  14.030
 7131SOL    HW223233   5.390   2.390  14.144
 7132SOL     OW23234   3.933   0.002   2.703
 7132SOL    HW123235   4.024  14.873   2.732
 7132SOL    HW223236   3.892  14.799   2.729
 7133SOL     OW23237   8.638   9.220   3.983
 7133SOL    HW123238   8.681   9.135   3.973
 7133SOL    HW223239   8.637   9.256   3.894
 7134SOL     OW23240   3.486   2.719   3.398
 7134SOL    HW123241   3.449   2.799   3.435
 7134SOL    HW223242   3.422   2.651   3.418
 7135SOL     OW23243   7.244  12.280   3.703
 7135SOL    HW123244   7.194  12.257   3.782
 7135SOL    HW223245   7.335  12.281   3.732
 7136SOL     OW23246  11.514   2.994  10.470
 7136SOL    HW123247  11.450   3.039  10.415
 7136SOL    HW223248  11.591   2.983  10.414
 7137SOL     OW23249   3.962  10.400   5.859
 7137SOL    HW123250   3.976  10.404   5.954
 7137SOL    HW223251   3.968  10.490   5.830
 7138SOL     OW23252  13.085   6.299  10.974
 7138SOL    HW123253  13.178   6.278  10.965
 7138SOL    HW223254  13.044   6.214  10.991
 7139SOL     OW23255   3.338   4.201   7.100
 7139SOL    HW123256   3.278   4.137   7.063
 7139SOL    HW223257   3.425   4.169   7.078
 7140SOL     OW23258   2.523  13.479  14.452
 7140SOL    HW123259   2.468  13.545  14.411
 7140SOL    HW223260   2.539  13.414  14.383
 7141SOL     OW23261   9.687  11.156   2.033
 7141SOL    HW123262   9.689  11.252   2.041
 7141SOL    HW223263   9.739  11.138   1.955
 7142SOL     OW23264  12.604   2.781   1.409
 7142SOL    HW123265  12.554   2.862   1.411
 7142SOL    HW223266  12.541   2.715   1.379
 7143SOL     OW23267   4.724  10.687   5.556
 7143SOL    HW123268   4.802  10.666   5.607
 7143SOL    HW223269   4.653  10.689   5.621
 7144SOL     OW23270   1.065   2.757   4.785
 7144SOL    HW123271   1.130   2.777   4.853
 7144SOL    HW223272   1.102   2.682   4.739
 7145SOL     OW23273   3.061   1.149   3.633
 7145SOL    HW123274   3.153   1.170   3.653
 7145SOL    HW223275   3.065   1.104   3.548
 7146SOL     OW23276  14.538   8.728  14.390
 7146SOL    HW123277  14.509   8.682  14.468
 7146SOL    HW223278  14.459   8.766  14.354
 7147SOL     OW23279   9.550   4.870   6.542
 7147SOL    HW123280   9.505   4.793   6.509
 7147SOL    HW223281   9.615   4.836   6.603
 7148SOL     OW23282   4.401  10.141   3.438
 7148SOL    HW123283   4.489  10.116   3.410
 7148SOL    HW223284   4.351  10.059   3.435
 7149SOL     OW23285   2.457   5.000   9.540
 7149SOL    HW123286   2.532   5.057   9.550
 7149SOL    HW223287   2.494   4.912   9.535
 7150SOL     OW23288  12.174   8.176   7.936
 7150SOL    HW123289  12.156   8.239   8.005
 7150SOL    HW223290  12.106   8.191   7.871
 7151SOL     OW23291  11.448  13.401  10.095
 7151SOL    HW123292  11.508  13.476  10.093
 7151SOL    HW223293  11.364  13.437  10.065
 7152SOL     OW23294   9.720   5.270   7.808
 7152SOL    HW123295   9.638   5.268   7.758
 7152SOL    HW223296   9.776   5.331   7.760
 7153SOL     OW23297   5.506   0.989   7.531
 7153SOL    HW123298   5.469   0.921   7.476
 7153SOL    HW223299   5.507   1.067   7.476
 7154SOL     OW23300   3.987   8.348   6.909
 7154SOL    HW123301   4.020   8.281   6.970
 7154SOL    HW223302   4.057   8.412   6.902
 7155SOL     OW23303   1.118   5.244  12.645
 7155SOL    HW123304   1.032   5.203  12.644
 7155SOL    HW223305   1.145   5.247  12.553
 7156SOL     OW23306   0.600   7.336   6.936
 7156SOL    HW123307   0.683   7.357   6.894
 7156SOL    HW223308   0.625   7.296   7.019
 7157SOL     OW23309   1.012  12.274   6.611
 7157SOL    HW123310   1.029  12.185   6.579
 7157SOL    HW223311   1.090  12.296   6.662
 7158SOL     OW23312  11.441   8.295   4.006
 7158SOL    HW123313  11.353   8.257   3.995
 7158SOL    HW223314  11.458   8.341   3.924
 7159SOL     OW23315  14.801   0.048   7.922
 7159SOL    HW123316  14.878  14.872   7.911
 7159SOL    HW223317  14.767   0.061   7.833
 7160SOL     OW23318   2.289   0.112  13.773
 7160SOL    HW123319   2.352   0.086  13.841
 7160SOL    HW223320   2.295   0.043  13.708
 7161SOL     OW23321   6.188   1.823   4.053
 7161SOL    HW123322   6.275   1.858   4.073
 7161SOL    HW223323   6.145   1.892   4.002
 7162SOL     OW23324  14.545  10.446  12.292
 7162SOL    HW123325  14.638  10.464  12.273
 7162SOL    HW223326  14.546  10.407  12.380
 7163SOL     OW23327   5.889   3.014   9.490
 7163SOL    HW123328   5.943   2.946   9.449
 7163SOL    HW223329   5.805   2.971   9.505
 7164SOL     OW23330   9.613   1.238   8.423
 7164SOL    HW123331   9.608   1.170   8.490
 7164SOL    HW223332   9.568   1.313   8.462
 7165SOL     OW23333   6.569  12.867   0.948
 7165SOL    HW123334   6.556  12.940   0.888
 7165SOL    HW223335   6.480  12.841   0.973
 7166SOL     OW23336   1.252   2.475  13.282
 7166SOL    HW123337   1.196   2.515  13.349
 7166SOL    HW223338   1.328   2.443  13.330
 7167SOL     OW23339   6.437  12.123   8.838
 7167SOL    HW123340   6.476  12.044   8.801
 7167SOL    HW223341   6.374  12.092   8.903
 7168SOL     OW23342   8.091   6.009   5.874
 7168SOL    HW123343   8.027   5.940   5.856
 7168SOL    HW223344   8.091   6.064   5.796
 7169SOL     OW23345   0.064   5.883  14.444
 7169SOL    HW123346  14.848   5.884  14.451
 7169SOL    HW223347   0.081   5.866  14.351
 7170SOL     OW23348   2.594  12.990  14.616
 7170SOL    HW123349   2.593  12.939  14.535
 7170SOL    HW223350   2.686  12.992  14.642
 7171SOL     OW23351   0.590  10.406   3.469
 7171SOL    HW123352   0.577  10.379   3.560
 7171SOL    HW223353   0.666  10.356   3.439
 7172SOL     OW23354   7.794   4.841  13.423
 7172SOL    HW123355   7.776   4.830  13.329
 7172SOL    HW223356   7.708   4.848  13.463
 7173SOL     OW23357   2.810  10.826   7.388
 7173SOL    HW123358   2.739  10.827   7.323
 7173SOL    HW223359   2.768  10.850   7.470
 7174SOL     OW23360   5.108   5.387   7.160
 7174SOL    HW123361   5.052   5.458   7.129
 7174SOL    HW223362   5.052   5.339   7.222
 7175SOL     OW23363   3.074   5.893   4.578
 7175SOL    HW123364   3.078   5.822   4.642
 7175SOL    HW223365   3.097   5.972   4.628
 7176SOL     OW23366  13.161  13.286   7.479
 7176SOL    HW123367  13.100  13.343   7.433
 7176SOL    HW223368  13.146  13.199   7.442
 7177SOL     OW23369  11.433  14.074   7.332
 7177SOL    HW123370  11.483  13.996   7.356
 7177SOL    HW223371  11.423  14.122   7.414
 7178SOL     OW23372   4.177   2.401  13.848
 7178SOL    HW123373   4.096   2.445  13.821
 7178SOL    HW223374   4.242   2.471  13.848
 7179SOL     OW23375  13.805   6.211   3.942
 7179SOL    HW123376  13.833   6.126   3.908
 7179SOL    HW223377  13.709   6.206   3.942
 7180SOL     OW23378  13.604  11.564   1.635
 7180SOL    HW123379  13.578  11.615   1.558
 7180SOL    HW223380  13.589  11.473   1.610
 7181SOL     OW23381  14.481  11.615   2.987
 7181SOL    HW123382  14.489  11.550   3.057
 7181SOL    HW223383  14.476  11.699   3.033
 7182SOL     OW23384   8.609  10.743   0.823
 7182SOL    HW123385   8.659  10.764   0.744
 7182SOL    HW223386   8.638  10.655   0.847
 7183SOL     OW23387  10.225   1.158   3.328
 7183SOL    HW123388  10.212   1.128   3.238
 7183SOL    HW223389  10.320   1.159   3.339
 7184SOL     OW23390   0.366   8.758   0.322
 7184SOL    HW123391   0.312   8.755   0.242
 7184SOL    HW223392   0.341   8.840   0.364
 7185SOL     OW23393   8.565   8.205  13.618
 7185SOL    HW123394   8.534   8.156  13.694
 7185SOL    HW223395   8.504   8.277  13.609
 7186SOL     OW23396   6.632  14.138  12.722
 7186SOL    HW123397   6.549  14.146  12.676
 7186SOL    HW223398   6.608  14.111  12.810
 7187SOL     OW23399  11.579  11.382   8.747
 7187SOL    HW123400  11.669  11.414   8.747
 7187SOL    HW223401  11.539  11.420   8.825
 7188SOL     OW23402   5.056  13.570   5.556
 7188SOL    HW123403   5.041  13.552   5.649
 7188SOL    HW223404   5.087  13.660   5.553
 7189SOL     OW23405   3.601  13.676   4.113
 7189SOL    HW123406   3.669  13.708   4.173
 7189SOL    HW223407   3.524  13.667   4.168
 7190SOL     OW23408  13.522   2.962   5.247
 7190SOL    HW123409  13.496   3.002   5.164
 7190SOL    HW223410  13.602   3.008   5.272
 7191SOL     OW23411  13.753  12.874  10.895
 7191SOL    HW123412  13.706  12.957  10.908
 7191SOL    HW223413  13.835  12.900  10.853
 7192SOL     OW23414  14.529  12.408  11.797
 7192SOL    HW123415  14.591  12.347  11.838
 7192SOL    HW223416  14.465  12.427  11.866
 7193SOL     OW23417   0.078  10.418  14.802
 7193SOL    HW123418   0.173  10.408  14.803
 7193SOL    HW223419   0.051  10.382  14.717
 7194SOL     OW23420   3.843   3.608   0.250
 7194SOL    HW123421   3.934   3.616   0.223
 7194SOL    HW223422   3.815   3.524   0.213
 7195SOL     OW23423   2.273   4.644   5.798
 7195SOL    HW123424   2.307   4.597   5.874
 7195SOL    HW223425   2.197   4.691   5.831
 7196SOL     OW23426   6.189  12.917   4.993
 7196SOL    HW123427   6.227  12.830   4.984
 7196SOL    HW223428   6.132  12.911   5.069
 7197SOL     OW23429   8.687   5.433   1.441
 7197SOL    HW123430   8.738   5.487   1.503
 7197SOL    HW223431   8.732   5.444   1.357
 7198SOL     OW23432   0.413  11.893   7.916
 7198SOL    HW123433   0.344  11.829   7.935
 7198SOL    HW223434   0.378  11.975   7.951
 7199SOL     OW23435  12.863  14.000   3.465
 7199SOL    HW123436  12.798  14.061   3.431
 7199SOL    HW223437  12.814  13.944   3.526
 7200SOL     OW23438  13.666  14.397  13.748
 7200SOL    HW123439  13.582  14.402  13.792
 7200SOL    HW223440  13.698  14.308  13.766
 7201SOL     OW23441   8.042   4.938   3.045
 7201SOL    HW123442   7.965   4.938   2.988
 7201SOL    HW223443   8.116   4.939   2.985
 7202SOL     OW23444   4.275   7.498   4.370
 7202SOL    HW123445   4.261   7.436   4.441
 7202SOL    HW223446   4.333   7.565   4.406
 7203SOL     OW23447  13.463  11.675   8.217
 7203SOL    HW123448  13.482  11.756   8.168
 7203SOL    HW223449  13.378  11.646   8.183
 7204SOL     OW23450   9.424   0.494   9.256
 7204SOL    HW123451   9.448   0.422   9.315
 7204SOL    HW223452   9.432   0.573   9.310
 7205SOL     OW23453   8.177   8.773   0.144
 7205SOL    HW123454   8.101   8.757   0.088
 7205SOL    HW223455   8.152   8.847   0.198
 7206SOL     OW23456   3.725   9.262   0.589
 7206SOL    HW123457   3.757   9.284   0.677
 7206SOL    HW223458   3.630   9.256   0.599
 7207SOL     OW23459   8.561   8.320   8.229
 7207SOL    HW123460   8.571   8.303   8.323
 7207SOL    HW223461   8.523   8.239   8.194
 7208SOL     OW23462   8.071   6.156   9.549
 7208SOL    HW123463   8.097   6.074   9.507
 7208SOL    HW223464   8.085   6.222   9.481
 7209SOL     OW23465  13.864  13.876   6.833
 7209SOL    HW123466  13.838  13.932   6.759
 7209SOL    HW223467  13.819  13.914   6.908
 7210SOL     OW23468   3.631  12.344  10.315
 7210SOL    HW123469   3.679  12.373  10.238
 7210SOL    HW223470   3.576  12.419  10.340
 7211SOL     OW23471   8.980   6.606  11.753
 7211SOL    HW123472   9.063   6.608  11.800
 7211SOL    HW223473   8.930   6.536  11.795
 7212SOL     OW23474  13.502   4.048   6.694
 7212SOL    HW123475  13.544   4.042   6.609
 7212SOL    HW223476  13.412   4.017   6.679
 7213SOL     OW23477   2.788   0.026   0.418
 7213SOL    HW123478   2.795   0.002   0.511
 7213SOL    HW223479   2.711  14.858   0.386
 7214SOL     OW23480   1.622  12.417   6.645
 7214SOL    HW123481   1.616  12.333   6.691
 7214SOL    HW223482   1.619  12.482   6.715
 7215SOL     OW23483  14.763  11.275  13.416
 7215SOL    HW123484  14.773  11.255  13.509
 7215SOL    HW223485  14.848  11.254  13.378
 7216SOL     OW23486   1.906   4.057   3.820
 7216SOL    HW123487   1.849   4.091   3.889
 7216SOL    HW223488   1.992   4.046   3.863
 7217SOL     OW23489   4.638   0.288   2.852
 7217SOL    HW123490   4.703   0.340   2.804
 7217SOL    HW223491   4.645   0.201   2.814
 7218SOL     OW23492   1.043   1.005   2.220
 7218SOL    HW123493   1.034   1.052   2.138
 7218SOL    HW223494   0.979   1.045   2.279
 7219SOL     OW23495   7.177  13.494   7.467
 7219SOL    HW123496   7.126  13.442   7.405
 7219SOL    HW223497   7.228  13.431   7.516
 7220SOL     OW23498   8.507  11.197   6.444
 7220SOL    HW123499   8.418  11.192   6.410
 7220SOL    HW223500   8.502  11.262   6.514
 7221SOL     OW23501   4.621  10.103  11.460
 7221SOL    HW123502   4.680  10.171  11.426
 7221SOL    HW223503   4.581  10.143  11.537
 7222SOL     OW23504   8.260   8.109   8.349
 7222SOL    HW123505   8.269   8.183   8.409
 7222SOL    HW223506   8.234   8.035   8.404
 7223SOL     OW23507  11.210   0.338   7.633
 7223SOL    HW123508  11.207   0.298   7.720
 7223SOL    HW223509  11.163   0.421   7.643
 7224SOL     OW23510   8.472   7.130   5.069
 7224SOL    HW123511   8.543   7.174   5.022
 7224SOL    HW223512   8.450   7.054   5.014
 7225SOL     OW23513   4.102  12.074   8.829
 7225SOL    HW123514   4.033  12.008   8.831
 7225SOL    HW223515   4.059  12.155   8.856
 7226SOL     OW23516   4.504   9.797   4.478
 7226SOL    HW123517   4.410   9.810   4.489
 7226SOL    HW223518   4.530   9.743   4.552
 7227SOL     OW23519  13.120  13.052   7.389
 7227SOL    HW123520  13.033  13.038   7.426
 7227SOL    HW223521  13.117  13.006   7.305
 7228SOL     OW23522  11.367  13.773  14.051
 7228SOL    HW123523  11.380  13.797  13.959
 7228SOL    HW223524  11.272  13.762  14.059
 7229SOL     OW23525   9.885   7.934   0.129
 7229SOL    HW123526   9.911   7.862   0.072
 7229SOL    HW223527   9.791   7.922   0.142
 7230SOL     OW23528   8.668  11.672  14.306
 7230SOL    HW123529   8.604  11.659  14.376
 7230SOL    HW223530   8.713  11.588  14.299
 7231SOL     OW23531   8.707  11.675   7.147
 7231SOL    HW123532   8.710  11.605   7.082
 7231SOL    HW223533   8.631  11.654   7.201
 7232SOL     OW23534  10.559  14.050  12.147
 7232SOL    HW123535  10.561  13.968  12.097
 7232SOL    HW223536  10.561  14.023  12.239
 7233SOL     OW23537  13.979   7.549   1.483
 7233SOL    HW123538  13.994   7.455   1.478
 7233SOL    HW223539  14.045   7.587   1.425
 7234SOL     OW23540  13.675   1.497   3.489
 7234SOL    HW123541  13.585   1.475   3.466
 7234SOL    HW223542  13.668   1.535   3.576
 7235SOL     OW23543   1.639   1.363   1.031
 7235SOL    HW123544   1.568   1.341   0.971
 7235SOL    HW223545   1.713   1.310   1.002
 7236SOL     OW23546  10.014  10.610   5.176
 7236SOL    HW123547  10.060  10.540   5.129
 7236SOL    HW223548   9.934  10.625   5.125
 7237SOL     OW23549   2.155   5.707   7.566
 7237SOL    HW123550   2.096   5.743   7.632
 7237SOL    HW223551   2.243   5.732   7.595
 7238SOL     OW23552   0.169   1.754   4.624
 7238SOL    HW123553   0.180   1.848   4.616
 7238SOL    HW223554   0.115   1.729   4.549
 7239SOL     OW23555  13.121   4.109   2.724
 7239SOL    HW123556  13.064   4.036   2.749
 7239SOL    HW223557  13.093   4.131   2.635
 7240SOL     OW23558  13.257   7.910   3.076
 7240SOL    HW123559  13.342   7.954   3.075
 7240SOL    HW223560  13.233   7.902   2.984
 7241SOL     OW23561   5.596   4.524  12.974
 7241SOL    HW123562   5.688   4.550  12.979
 7241SOL    HW223563   5.562   4.571  12.898
 7242SOL     OW23564   1.728   1.490   8.835
 7242SOL    HW123565   1.786   1.523   8.904
 7242SOL    HW223566   1.786   1.445   8.775
 7243SOL     OW23567   3.752   9.609   0.395
 7243SOL    HW123568   3.773   9.518   0.417
 7243SOL    HW223569   3.702   9.641   0.469
 7244SOL     OW23570  14.148   2.212   9.670
 7244SOL    HW123571  14.220   2.178   9.723
 7244SOL    HW223572  14.089   2.138   9.660
 7245SOL     OW23573  13.196   5.263  12.480
 7245SOL    HW123574  13.116   5.215  12.501
 7245SOL    HW223575  13.210   5.248  12.386
 7246SOL     OW23576   7.572   5.152   1.662
 7246SOL    HW123577   7.627   5.228   1.643
 7246SOL    HW223578   7.569   5.103   1.580
 7247SOL     OW23579   5.955   6.955   5.095
 7247SOL    HW123580   6.039   6.925   5.061
 7247SOL    HW223581   5.942   6.904   5.175
 7248SOL     OW23582  12.437   8.889  12.467
 7248SOL    HW123583  12.482   8.847  12.392
 7248SOL    HW223584  12.485   8.970  12.481
 7249SOL     OW23585  10.294  10.167   9.794
 7249SOL    HW123586  10.238  10.214   9.856
 7249SOL    HW223587  10.253  10.183   9.708
 7250SOL     OW23588   6.565   4.136  13.405
 7250SOL    HW123589   6.513   4.154  13.483
 7250SOL    HW223590   6.577   4.221  13.363
 7251SOL     OW23591   4.817   9.787  10.115
 7251SOL    HW123592   4.747   9.722  10.108
 7251SOL    HW223593   4.827   9.802  10.209
 7252SOL     OW23594   5.740   9.969   9.628
 7252SOL    HW123595   5.687   9.997   9.703
 7252SOL    HW223596   5.680   9.916   9.576
 7253SOL     OW23597  13.289  11.006   6.501
 7253SOL    HW123598  13.359  11.006   6.567
 7253SOL    HW223599  13.208  11.007   6.553
 7254SOL     OW23600   5.665   2.486   3.075
 7254SOL    HW123601   5.653   2.407   3.022
 7254SOL    HW223602   5.582   2.533   3.066
 7255SOL     OW23603   0.866  11.289   8.896
 7255SOL    HW123604   0.776  11.321   8.905
 7255SOL    HW223605   0.908  11.353   8.838
 7256SOL     OW23606  10.253   1.555  14.123
 7256SOL    HW123607  10.301   1.484  14.165
 7256SOL    HW223608  10.320   1.621  14.105
 7257SOL     OW23609   4.301   5.053   4.778
 7257SOL    HW123610   4.322   5.051   4.872
 7257SOL    HW223611   4.382   5.084   4.737
 7258SOL     OW23612   0.911   0.939   1.918
 7258SOL    HW123613   0.922   0.945   1.823
 7258SOL    HW223614   0.881   1.026   1.943
 7259SOL     OW23615   4.734   4.978   3.444
 7259SOL    HW123616   4.658   5.013   3.397
 7259SOL    HW223617   4.782   5.056   3.473
 7260SOL     OW23618   6.399  12.495  13.259
 7260SOL    HW123619   6.469  12.560  13.262
 7260SOL    HW223620   6.341  12.526  13.190
 7261SOL     OW23621   1.223   1.334  13.468
 7261SOL    HW123622   1.250   1.381  13.547
 7261SOL    HW223623   1.289   1.357  13.403
 7262SOL     OW23624   7.186   4.666  10.528
 7262SOL    HW123625   7.234   4.611  10.466
 7262SOL    HW223626   7.172   4.609  10.604
 7263SOL     OW23627  13.740   4.339  10.171
 7263SOL    HW123628  13.794   4.350  10.249
 7263SOL    HW223629  13.680   4.267  10.193
 7264SOL     OW23630  11.425   2.151  10.812
 7264SOL    HW123631  11.419   2.110  10.726
 7264SOL    HW223632  11.479   2.091  10.863
 7265SOL     OW23633  10.241   8.945  11.776
 7265SOL    HW123634  10.172   8.975  11.718
 7265SOL    HW223635  10.238   8.850  11.771
 7266SOL     OW23636   0.881   8.328  10.526
 7266SOL    HW123637   0.835   8.257  10.481
 7266SOL    HW223638   0.974   8.303  10.523
 7267SOL     OW23639   1.030  11.254   5.263
 7267SOL    HW123640   1.002  11.346   5.256
 7267SOL    HW223641   1.056  11.231   5.174
 7268SOL     OW23642   4.303   5.010   7.530
 7268SOL    HW123643   4.295   4.942   7.597
 7268SOL    HW223644   4.215   5.048   7.524
 7269SOL     OW23645  11.389  13.774   9.094
 7269SOL    HW123646  11.305  13.739   9.125
 7269SOL    HW223647  11.383  13.868   9.110
 7270SOL     OW23648   3.481   5.312   7.573
 7270SOL    HW123649   3.500   5.222   7.600
 7270SOL    HW223650   3.567   5.352   7.560
 7271SOL     OW23651   0.362   5.881  11.374
 7271SOL    HW123652   0.334   5.789  11.376
 7271SOL    HW223653   0.369   5.906  11.466
 7272SOL     OW23654  13.383  10.236   3.520
 7272SOL    HW123655  13.353  10.169   3.581
 7272SOL    HW223656  13.458  10.196   3.476
 7273SOL     OW23657   3.559   4.829   8.579
 7273SOL    HW123658   3.560   4.822   8.674
 7273SOL    HW223659   3.490   4.894   8.561
 7274SOL     OW23660  13.408  14.137   6.730
 7274SOL    HW123661  13.337  14.131   6.666
 7274SOL    HW223662  13.428  14.230   6.735
 7275SOL     OW23663  14.797   1.424  11.545
 7275SOL    HW123664  14.846   1.502  11.519
 7275SOL    HW223665  14.745   1.401  11.468
 7276SOL     OW23666   2.446  13.174   0.640
 7276SOL    HW123667   2.392  13.230   0.584
 7276SOL    HW223668   2.394  13.162   0.719
 7277SOL     OW23669   8.810   3.032   3.833
 7277SOL    HW123670   8.859   2.982   3.768
 7277SOL    HW223671   8.849   3.120   3.830
 7278SOL     OW23672   6.032  13.933  13.088
 7278SOL    HW123673   5.940  13.952  13.070
 7278SOL    HW223674   6.066  14.013  13.129
 7279SOL     OW23675  10.142   2.572   5.626
 7279SOL    HW123676  10.139   2.476   5.624
 7279SOL    HW223677  10.055   2.599   5.653
 7280SOL     OW23678   1.200   1.698   5.999
 7280SOL    HW123679   1.206   1.633   6.069
 7280SOL    HW223680   1.223   1.781   6.042
 7281SOL     OW23681   8.491  12.258   8.579
 7281SOL    HW123682   8.402  12.290   8.561
 7281SOL    HW223683   8.521  12.222   8.496
 7282SOL     OW23684  14.372   8.767  11.076
 7282SOL    HW123685  14.310   8.715  11.127
 7282SOL    HW223686  14.364   8.856  11.110
 7283SOL     OW23687  14.015  10.269   3.869
 7283SOL    HW123688  13.952  10.281   3.798
 7283SOL    HW223689  14.077  10.204   3.836
 7284SOL     OW23690   3.597   2.150  11.141
 7284SOL    HW123691   3.540   2.172  11.215
 7284SOL    HW223692   3.597   2.054  11.138
 7285SOL     OW23693  12.529  10.989   9.253
 7285SOL    HW123694  12.463  10.955   9.192
 7285SOL    HW223695  12.604  10.931   9.243
 7286SOL     OW23696   1.822   3.828   8.844
 7286SOL    HW123697   1.739   3.868   8.819
 7286SOL    HW223698   1.815   3.737   8.815
 7287SOL     OW23699   1.427   3.766  13.308
 7287SOL    HW123700   1.441   3.779  13.401
 7287SOL    HW223701   1.337   3.795  13.293
 7288SOL     OW23702   7.572   4.876   4.634
 7288SOL    HW123703   7.490   4.898   4.591
 7288SOL    HW223704   7.547   4.850   4.723
 7289SOL     OW23705   2.185   1.835   8.317
 7289SOL    HW123706   2.095   1.804   8.312
 7289SOL    HW223707   2.197   1.887   8.237
 7290SOL     OW23708   7.816   1.513   8.484
 7290SOL    HW123709   7.892   1.495   8.538
 7290SOL    HW223710   7.838   1.476   8.398
 7291SOL     OW23711  11.675   2.132   6.653
 7291SOL    HW123712  11.769   2.114   6.646
 7291SOL    HW223713  11.667   2.226   6.642
 7292SOL     OW23714   3.904   1.383  10.375
 7292SOL    HW123715   3.911   1.313  10.310
 7292SOL    HW223716   3.994   1.412  10.388
 7293SOL     OW23717  13.684   8.050  14.582
 7293SOL    HW123718  13.721   8.111  14.518
 7293SOL    HW223719  13.691   8.095  14.666
 7294SOL     OW23720  10.263   3.327   9.307
 7294SOL    HW123721  10.300   3.401   9.356
 7294SOL    HW223722  10.180   3.360   9.273
 7295SOL     OW23723  14.364  12.333   7.593
 7295SOL    HW123724  14.352  12.377   7.510
 7295SOL    HW223725  14.422  12.259   7.573
 7296SOL     OW23726  11.436  11.644   4.878
 7296SOL    HW123727  11.413  11.588   4.804
 7296SOL    HW223728  11.354  11.659   4.925
 7297SOL     OW23729  14.134  10.972  10.416
 7297SOL    HW123730  14.095  10.890  10.388
 7297SOL    HW223731  14.097  10.989  10.502
 7298SOL     OW23732  12.839   2.446   5.395
 7298SOL    HW123733  12.832   2.351   5.400
 7298SOL    HW223734  12.898   2.470   5.467
 7299SOL     OW23735   2.083   2.499   1.819
 7299SOL    HW123736   2.030   2.422   1.840
 7299SOL    HW223737   2.167   2.462   1.790
 7300SOL     OW23738   7.665  12.663   9.761
 7300SOL    HW123739   7.628  12.584   9.723
 7300SOL    HW223740   7.590  12.709   9.799
 7301SOL     OW23741   4.533   2.261   0.478
 7301SOL    HW123742   4.617   2.240   0.517
 7301SOL    HW223743   4.468   2.225   0.538
 7302SOL     OW23744   7.291  10.929  11.128
 7302SOL    HW123745   7.223  10.995  11.140
 7302SOL    HW223746   7.369  10.967  11.169
 7303SOL     OW23747   3.629  14.403   6.569
 7303SOL    HW123748   3.573  14.394   6.491
 7303SOL    HW223749   3.578  14.363   6.639
 7304SOL     OW23750  11.042  10.645   1.931
 7304SOL    HW123751  11.042  10.650   2.027
 7304SOL    HW223752  10.978  10.710   1.904
 7305SOL     OW23753  12.268   4.124   3.924
 7305SOL    HW123754  12.269   4.031   3.946
 7305SOL    HW223755  12.356   4.141   3.891
 7306SOL     OW23756   9.781   4.167   9.349
 7306SOL    HW123757   9.817   4.151   9.436
 7306SOL    HW223758   9.704   4.110   9.344
 7307SOL     OW23759   7.032   5.526   6.265
 7307SOL    HW123760   7.033   5.542   6.359
 7307SOL    HW223761   7.119   5.553   6.235
 7308SOL     OW23762   0.424   0.530   8.567
 7308SOL    HW123763   0.514   0.558   8.553
 7308SOL    HW223764   0.428   0.464   8.636
 7309SOL     OW23765   8.828  12.318   3.541
 7309SOL    HW123766   8.758  12.383   3.546
 7309SOL    HW223767   8.871  12.335   3.456
 7310SOL     OW23768   7.698   8.674   0.257
 7310SOL    HW123769   7.692   8.735   0.330
 7310SOL    HW223770   7.607   8.660   0.230
 7311SOL     OW23771   4.014   6.999   4.902
 7311SOL    HW123772   4.023   7.066   4.968
 7311SOL    HW223773   3.965   7.041   4.831
 7312SOL     OW23774   6.208   9.500  11.428
 7312SOL    HW123775   6.150   9.452  11.369
 7312SOL    HW223776   6.296   9.478  11.399
 7313SOL     OW23777   4.201  10.725   3.462
 7313SOL    HW123778   4.285  10.681   3.451
 7313SOL    HW223779   4.203  10.798   3.401
 7314SOL     OW23780   8.653   5.432  10.716
 7314SOL    HW123781   8.610   5.352  10.746
 7314SOL    HW223782   8.673   5.416  10.624
 7315SOL     OW23783  13.366   8.301  10.744
 7315SOL    HW123784  13.369   8.311  10.839
 7315SOL    HW223785  13.313   8.223  10.730
 7316SOL     OW23786  10.966  14.879   0.592
 7316SOL    HW123787  10.909  14.809   0.559
 7316SOL    HW223788  11.000   0.042   0.513
 7317SOL     OW23789  10.314  10.534   0.289
 7317SOL    HW123790  10.259  10.593   0.236
 7317SOL    HW223791  10.388  10.588   0.317
 7318SOL     OW23792   6.856   0.069   9.768
 7318SOL    HW123793   6.820   0.004   9.707
 7318SOL    HW223794   6.944   0.087   9.734
 7319SOL     OW23795   6.537   8.414   9.919
 7319SOL    HW123796   6.537   8.380  10.009
 7319SOL    HW223797   6.629   8.419   9.895
 7320SOL     OW23798   2.945   5.867   9.070
 7320SOL    HW123799   3.030   5.869   9.026
 7320SOL    HW223800   2.896   5.941   9.032
 7321SOL     OW23801   6.665   2.562   1.954
 7321SOL    HW123802   6.601   2.506   1.998
 7321SOL    HW223803   6.613   2.614   1.892
 7322SOL     OW23804   5.900   6.524   9.405
 7322SOL    HW123805   5.972   6.561   9.353
 7322SOL    HW223806   5.822   6.572   9.376
 7323SOL     OW23807   7.576   0.529   5.922
 7323SOL    HW123808   7.552   0.577   5.842
 7323SOL    HW223809   7.542   0.441   5.908
 7324SOL     OW23810  13.056  12.511   6.275
 7324SOL    HW123811  13.021  12.539   6.190
 7324SOL    HW223812  13.035  12.583   6.335
 7325SOL     OW23813  11.035  14.324   4.320
 7325SOL    HW123814  11.020  14.327   4.414
 7325SOL    HW223815  10.990  14.401   4.285
 7326SOL     OW23816   6.444   1.214  13.526
 7326SOL    HW123817   6.492   1.149  13.475
 7326SOL    HW223818   6.484   1.212  13.613
 7327SOL     OW23819   7.638   0.721   0.452
 7327SOL    HW123820   7.633   0.816   0.463
 7327SOL    HW223821   7.560   0.688   0.497
 7328SOL     OW23822   1.536   5.586  10.829
 7328SOL    HW123823   1.567   5.624  10.911
 7328SOL    HW223824   1.510   5.662  10.776
 7329SOL     OW23825  12.207   3.533   2.053
 7329SOL    HW123826  12.285   3.484   2.075
 7329SOL    HW223827  12.202   3.528   1.957
 7330SOL     OW23828   5.771   9.378   0.464
 7330SOL    HW123829   5.735   9.449   0.518
 7330SOL    HW223830   5.797   9.420   0.383
 7331SOL     OW23831   5.465   0.322   8.035
 7331SOL    HW123832   5.500   0.360   7.955
 7331SOL    HW223833   5.370   0.329   8.024
 7332SOL     OW23834   1.093   4.076   1.921
 7332SOL    HW123835   1.173   4.104   1.964
 7332SOL    HW223836   1.082   3.985   1.949
 7333SOL     OW23837  12.300  11.533   7.192
 7333SOL    HW123838  12.270  11.572   7.110
 7333SOL    HW223839  12.262  11.588   7.260
 7334SOL     OW23840  14.607  12.686   9.561
 7334SOL    HW123841  14.618  12.775   9.527
 7334SOL    HW223842  14.697  12.655   9.575
 7335SOL     OW23843   9.297  10.707   9.759
 7335SOL    HW123844   9.238  10.780   9.738
 7335SOL    HW223845   9.239  10.636   9.785
 7336SOL     OW23846  10.255   8.873  10.456
 7336SOL    HW123847  10.339   8.829  10.444
 7336SOL    HW223848  10.227   8.896  10.368
 7337SOL     OW23849  10.823   2.261   9.231
 7337SOL    HW123850  10.812   2.334   9.170
 7337SOL    HW223851  10.831   2.184   9.174
 7338SOL     OW23852   2.324   0.928   4.036
 7338SOL    HW123853   2.261   0.956   3.970
 7338SOL    HW223854   2.397   0.990   4.028
 7339SOL     OW23855   1.901  13.552  11.683
 7339SOL    HW123856   1.879  13.484  11.747
 7339SOL    HW223857   1.901  13.633  11.734
 7340SOL     OW23858   9.042   4.151   9.463
 7340SOL    HW123859   9.013   4.170   9.373
 7340SOL    HW223860   9.045   4.056   9.468
 7341SOL     OW23861   0.564   2.854  12.065
 7341SOL    HW123862   0.631   2.909  12.024
 7341SOL    HW223863   0.499   2.841  11.996
 7342SOL     OW23864   4.706  10.563   9.784
 7342SOL    HW123865   4.626  10.612   9.803
 7342SOL    HW223866   4.775  10.613   9.827
 7343SOL     OW23867  10.702   9.775   8.410
 7343SOL    HW123868  10.685   9.729   8.328
 7343SOL    HW223869  10.625   9.757   8.464
 7344SOL     OW23870  12.774  13.669   5.589
 7344SOL    HW123871  12.823  13.744   5.556
 7344SOL    HW223872  12.832  13.594   5.575
 7345SOL     OW23873   2.641  11.056   9.449
 7345SOL    HW123874   2.603  11.125   9.502
 7345SOL    HW223875   2.595  11.062   9.365
 7346SOL     OW23876  13.377   4.054   9.633
 7346SOL    HW123877  13.359   3.965   9.663
 7346SOL    HW223878  13.292   4.098   9.635
 7347SOL     OW23879   2.707   0.325  12.760
 7347SOL    HW123880   2.716   0.395  12.824
 7347SOL    HW223881   2.723   0.245  12.809
 7348SOL     OW23882  14.451   9.713   1.834
 7348SOL    HW123883  14.459   9.750   1.922
 7348SOL    HW223884  14.372   9.659   1.838
 7349SOL     OW23885   4.293   7.857  12.193
 7349SOL    HW123886   4.208   7.893  12.168
 7349SOL    HW223887   4.308   7.786  12.130
 7350SOL     OW23888  12.010  10.400   5.449
 7350SOL    HW123889  12.101  10.373   5.457
 7350SOL    HW223890  11.979  10.355   5.371
 7351SOL     OW23891  13.574   8.503   1.756
 7351SOL    HW123892  13.517   8.501   1.832
 7351SOL    HW223893  13.608   8.414   1.749
 7352SOL     OW23894   6.539   1.812  10.323
 7352SOL    HW123895   6.624   1.774  10.342
 7352SOL    HW223896   6.558   1.891  10.272
 7353SOL     OW23897   3.221   8.972   2.233
 7353SOL    HW123898   3.291   8.941   2.290
 7353SOL    HW223899   3.241   8.935   2.147
 7354SOL     OW23900   7.036   8.263   6.391
 7354SOL    HW123901   6.942   8.256   6.373
 7354SOL    HW223902   7.078   8.225   6.314
 7355SOL     OW23903   3.222   0.198   3.700
 7355SOL    HW123904   3.304   0.244   3.681
 7355SOL    HW223905   3.156   0.246   3.650
 7356SOL     OW23906   2.129   4.563   7.482
 7356SOL    HW123907   2.222   4.543   7.493
 7356SOL    HW223908   2.117   4.570   7.388
 7357SOL     OW23909   3.279   7.305   8.795
 7357SOL    HW123910   3.193   7.330   8.759
 7357SOL    HW223911   3.301   7.224   8.749
 7358SOL     OW23912  12.510   9.674  10.970
 7358SOL    HW123913  12.498   9.629  10.887
 7358SOL    HW223914  12.476   9.762  10.955
 7359SOL     OW23915  14.743   9.902   0.060
 7359SOL    HW123916  14.773   9.981   0.015
 7359SOL    HW223917  14.652   9.892   0.031
 7360SOL     OW23918   6.090  13.283  14.167
 7360SOL    HW123919   6.058  13.299  14.078
 7360SOL    HW223920   6.024  13.323  14.224
 7361SOL     OW23921  12.759   6.277   2.872
 7361SOL    HW123922  12.677   6.314   2.838
 7361SOL    HW223923  12.806   6.247   2.794
 7362SOL     OW23924   7.160   0.408   8.304
 7362SOL    HW123925   7.256   0.405   8.303
 7362SOL    HW223926   7.133   0.326   8.264
 7363SOL     OW23927   8.843   4.664   5.306
 7363SOL    HW123928   8.909   4.596   5.289
 7363SOL    HW223929   8.888   4.727   5.363
 7364SOL     OW23930  12.314   2.243  14.529
 7364SOL    HW123931  12.300   2.337  14.531
 7364SOL    HW223932  12.280   2.211  14.612
 7365SOL     OW23933   6.234   8.571  10.997
 7365SOL    HW123934   6.254   8.659  10.964
 7365SOL    HW223935   6.229   8.582  11.092
 7366SOL     OW23936   5.725   1.543   5.190
 7366SOL    HW123937   5.691   1.628   5.163
 7366SOL    HW223938   5.689   1.481   5.127
 7367SOL     OW23939   7.571   6.616   5.722
 7367SOL    HW123940   7.498   6.621   5.783
 7367SOL    HW223941   7.608   6.529   5.735
 7368SOL     OW23942   8.480   3.821   3.864
 7368SOL    HW123943   8.426   3.778   3.931
 7368SOL    HW223944   8.570   3.808   3.894
 7369SOL     OW23945   7.099   6.900   5.471
 7369SOL    HW123946   7.007   6.922   5.461
 7369SOL    HW223947   7.140   6.927   5.389
 7370SOL     OW23948   6.098   1.375  11.259
 7370SOL    HW123949   6.081   1.464  11.288
 7370SOL    HW223950   6.150   1.385  11.179
 7371SOL     OW23951  10.941  11.929  11.247
 7371SOL    HW123952  11.000  11.885  11.187
 7371SOL    HW223953  10.889  11.987  11.192
 7372SOL     OW23954  13.569   9.774   7.140
 7372SOL    HW123955  13.618   9.821   7.207
 7372SOL    HW223956  13.603   9.809   7.057
 7373SOL     OW23957   2.332   7.303  10.584
 7373SOL    HW123958   2.309   7.373  10.645
 7373SOL    HW223959   2.297   7.333  10.500
 7374SOL     OW23960  11.919  12.918   2.432
 7374SOL    HW123961  11.975  12.886   2.503
 7374SOL    HW223962  11.854  12.973   2.476
 7375SOL     OW23963   9.783  12.562  14.449
 7375SOL    HW123964   9.856  12.570  14.511
 7375SOL    HW223965   9.771  12.467  14.439
 7376SOL     OW23966   6.993   7.143   6.894
 7376SOL    HW123967   7.060   7.081   6.863
 7376SOL    HW223968   6.964   7.188   6.815
 7377SOL     OW23969   8.859  12.390   8.822
 7377SOL    HW123970   8.881  12.298   8.809
 7377SOL    HW223971   8.801  12.412   8.749
 7378SOL     OW23972   1.775  12.130  11.146
 7378SOL    HW123973   1.776  12.039  11.117
 7378SOL    HW223974   1.737  12.178  11.072
 7379SOL     OW23975  11.426  13.235   6.606
 7379SOL    HW123976  11.493  13.294   6.642
 7379SOL    HW223977  11.398  13.182   6.681
 7380SOL     OW23978   4.677  13.006   0.652
 7380SOL    HW123979   4.598  12.961   0.684
 7380SOL    HW223980   4.668  13.096   0.682
 7381SOL     OW23981   9.656  14.208   2.262
 7381SOL    HW123982   9.649  14.302   2.243
 7381SOL    HW223983   9.618  14.166   2.185
 7382SOL     OW23984   2.765  13.359   4.644
 7382SOL    HW123985   2.800  13.379   4.730
 7382SOL    HW223986   2.818  13.286   4.613
 7383SOL     OW23987   2.552   8.989   5.069
 7383SOL    HW123988   2.549   9.084   5.081
 7383SOL    HW223989   2.604   8.976   4.990
 7384SOL     OW23990   1.066   4.122   9.698
 7384SOL    HW123991   1.143   4.142   9.751
 7384SOL    HW223992   0.993   4.123   9.761
 7385SOL     OW23993  10.357   4.125   6.735
 7385SOL    HW123994  10.441   4.122   6.688
 7385SOL    HW223995  10.377   4.087   6.820
 7386SOL     OW23996  12.654   2.703   8.637
 7386SOL    HW123997  12.640   2.611   8.659
 7386SOL    HW223998  12.738   2.703   8.590
 7387SOL     OW23999  11.349   7.552  12.456
 7387SOL    HW124000  11.346   7.593  12.369
 7387SOL    HW224001  11.302   7.613  12.513
 7388SOL     OW24002   6.987   6.432   0.034
 7388SOL    HW124003   6.926   6.476  14.853
 7388SOL    HW224004   6.940   6.352   0.060
 7389SOL     OW24005   4.165   8.718   9.565
 7389SOL    HW124006   4.140   8.799   9.520
 7389SOL    HW224007   4.082   8.670   9.575
 7390SOL     OW24008   5.432  14.820  13.022
 7390SOL    HW124009   5.510  14.849  13.068
 7390SOL    HW224010   5.377   0.020  13.016
 7391SOL     OW24011   2.664   1.431  13.128
 7391SOL    HW124012   2.755   1.434  13.097
 7391SOL    HW224013   2.645   1.521  13.154
 7392SOL     OW24014   7.421  12.050   0.646
 7392SOL    HW124015   7.385  11.966   0.673
 7392SOL    HW224016   7.506  12.055   0.691
 7393SOL     OW24017   3.038   7.619   1.800
 7393SOL    HW124018   3.094   7.545   1.824
 7393SOL    HW224019   3.057   7.634   1.707
 7394SOL     OW24020   3.222   1.409   7.987
 7394SOL    HW124021   3.248   1.341   8.050
 7394SOL    HW224022   3.184   1.478   8.041
 7395SOL     OW24023   5.032   1.750  12.110
 7395SOL    HW124024   4.950   1.711  12.081
 7395SOL    HW224025   5.054   1.813  12.041
 7396SOL     OW24026   2.360   6.766  13.670
 7396SOL    HW124027   2.300   6.840  13.662
 7396SOL    HW224028   2.405   6.781  13.754
 7397SOL     OW24029   6.044  11.221  10.030
 7397SOL    HW124030   5.976  11.155  10.043
 7397SOL    HW224031   6.051  11.264  10.116
 7398SOL     OW24032   9.668   7.855   3.137
 7398SOL    HW124033   9.752   7.822   3.169
 7398SOL    HW224034   9.691   7.905   3.058
 7399SOL     OW24035   6.682  11.904   1.284
 7399SOL    HW124036   6.755  11.852   1.317
 7399SOL    HW224037   6.681  11.981   1.340
 7400SOL     OW24038  13.444   5.210   5.935
 7400SOL    HW124039  13.530   5.196   5.896
 7400SOL    HW224040  13.456   5.281   5.997
 7401SOL     OW24041   1.768   8.296  11.591
 7401SOL    HW124042   1.758   8.370  11.652
 7401SOL    HW224043   1.844   8.319  11.538
 7402SOL     OW24044   8.143   8.480  12.134
 7402SOL    HW124045   8.105   8.521  12.211
 7402SOL    HW224046   8.213   8.540  12.107
 7403SOL     OW24047   9.084  12.857  14.353
 7403SOL    HW124048   9.111  12.768  14.330
 7403SOL    HW224049   9.023  12.882  14.284
 7404SOL     OW24050   7.253   4.098  13.335
 7404SOL    HW124051   7.264   4.021  13.279
 7404SOL    HW224052   7.228   4.168  13.274
 7405SOL     OW24053   9.764   1.112  10.511
 7405SOL    HW124054   9.747   1.060  10.589
 7405SOL    HW224055   9.810   1.052  10.452
 7406SOL     OW24056   7.476  10.514   2.066
 7406SOL    HW124057   7.547  10.479   2.120
 7406SOL    HW224058   7.439  10.438   2.023
 7407SOL     OW24059   7.106   6.954  14.349
 7407SOL    HW124060   7.197   6.928  14.337
 7407SOL    HW224061   7.095   7.032  14.295
 7408SOL     OW24062   6.138  11.506   5.710
 7408SOL    HW124063   6.106  11.596   5.723
 7408SOL    HW224064   6.094  11.456   5.779
 7409SOL     OW24065  13.225   4.336   3.828
 7409SOL    HW124066  13.216   4.316   3.734
 7409SOL    HW224067  13.264   4.257   3.865
 7410SOL     OW24068  13.211   4.231   6.458
 7410SOL    HW124069  13.142   4.260   6.397
 7410SOL    HW224070  13.183   4.263   6.543
 7411SOL     OW24071   3.767   2.566   5.676
 7411SOL    HW124072   3.726   2.526   5.753
 7411SOL    HW224073   3.827   2.499   5.644
 7412SOL     OW24074   0.252   9.278   0.863
 7412SOL    HW124075   0.246   9.374   0.860
 7412SOL    HW224076   0.241   9.256   0.955
 7413SOL     OW24077   9.982   8.997  10.802
 7413SOL    HW124078   9.978   8.966  10.712
 7413SOL    HW224079   9.927   8.937  10.852
 7414SOL     OW24080  14.262  13.362   5.237
 7414SOL    HW124081  14.357  13.352   5.242
 7414SOL    HW224082  14.233  13.359   5.328
 7415SOL     OW24083   8.588   9.646   1.536
 7415SOL    HW124084   8.502   9.605   1.532
 7415SOL    HW224085   8.631   9.619   1.454
 7416SOL     OW24086   2.067   5.294   0.349
 7416SOL    HW124087   2.086   5.362   0.414
 7416SOL    HW224088   1.991   5.326   0.301
 7417SOL     OW24089   1.275   1.761   3.037
 7417SOL    HW124090   1.239   1.752   2.949
 7417SOL    HW224091   1.249   1.848   3.065
 7418SOL     OW24092   0.690   1.914   4.081
 7418SOL    HW124093   0.661   1.961   4.003
 7418SOL    HW224094   0.759   1.856   4.050
 7419SOL     OW24095   2.440  12.695   8.716
 7419SOL    HW124096   2.450  12.634   8.642
 7419SOL    HW224097   2.411  12.640   8.789
 7420SOL     OW24098  11.720   4.516   9.180
 7420SOL    HW124099  11.782   4.574   9.135
 7420SOL    HW224100  11.655   4.494   9.114
 7421SOL     OW24101   0.614   8.672  12.265
 7421SOL    HW124102   0.683   8.703  12.206
 7421SOL    HW224103   0.537   8.666  12.209
 7422SOL     OW24104   8.893   2.598  14.398
 7422SOL    HW124105   8.914   2.523  14.342
 7422SOL    HW224106   8.961   2.662  14.380
 7423SOL     OW24107  12.560  11.861   0.584
 7423SOL    HW124108  12.551  11.933   0.523
 7423SOL    HW224109  12.502  11.884   0.657
 7424SOL     OW24110  14.767   5.793   0.092
 7424SOL    HW124111  14.823   5.722   0.059
 7424SOL    HW224112  14.758   5.853   0.018
 7425SOL     OW24113   9.011   3.984   2.793
 7425SOL    HW124114   9.068   3.908   2.783
 7425SOL    HW224115   8.983   4.004   2.703
 7426SOL     OW24116  12.682   6.184   4.750
 7426SOL    HW124117  12.597   6.140   4.759
 7426SOL    HW224118  12.676   6.260   4.807
 7427SOL     OW24119   5.052   3.334   1.560
 7427SOL    HW124120   5.000   3.413   1.580
 7427SOL    HW224121   5.139   3.368   1.541
 7428SOL     OW24122   8.513  11.014  14.320
 7428SOL    HW124123   8.427  11.055  14.312
 7428SOL    HW224124   8.497  10.921  14.306
 7429SOL     OW24125  11.454   1.287  11.898
 7429SOL    HW124126  11.364   1.264  11.922
 7429SOL    HW224127  11.445   1.337  11.817
 7430SOL     OW24128   9.225   3.567   9.650
 7430SOL    HW124129   9.144   3.616   9.667
 7430SOL    HW224130   9.214   3.531   9.563
 7431SOL     OW24131   6.582  12.373   7.429
 7431SOL    HW124132   6.664  12.354   7.383
 7431SOL    HW224133   6.520  12.311   7.391
 7432SOL     OW24134   2.979   6.304   4.270
 7432SOL    HW124135   2.920   6.313   4.196
 7432SOL    HW224136   2.963   6.216   4.303
 7433SOL     OW24137   5.211  10.237  13.945
 7433SOL    HW124138   5.120  10.209  13.949
 7433SOL    HW224139   5.216  10.313  14.001
 7434SOL     OW24140   4.630   4.362   4.664
 7434SOL    HW124141   4.657   4.279   4.622
 7434SOL    HW224142   4.571   4.335   4.734
 7435SOL     OW24143   0.996   2.631   2.372
 7435SOL    HW124144   0.902   2.633   2.387
 7435SOL    HW224145   1.012   2.703   2.311
 7436SOL     OW24146   3.543   9.636  14.395
 7436SOL    HW124147   3.560   9.559  14.449
 7436SOL    HW224148   3.490   9.603  14.323
 7437SOL     OW24149  13.388  13.323  14.098
 7437SOL    HW124150  13.319  13.312  14.033
 7437SOL    HW224151  13.424  13.235  14.109
 7438SOL     OW24152   6.762   7.471  14.727
 7438SOL    HW124153   6.683   7.418  14.713
 7438SOL    HW224154   6.731   7.561  14.722
 7439SOL     OW24155  13.115  13.043  11.581
 7439SOL    HW124156  13.120  13.090  11.498
 7439SOL    HW224157  13.032  12.995  11.576
 7440SOL     OW24158  14.560   1.783  13.755
 7440SOL    HW124159  14.496   1.803  13.687
 7440SOL    HW224160  14.518   1.810  13.837
 7441SOL     OW24161   7.057   2.010   4.304
 7441SOL    HW124162   7.041   2.056   4.387
 7441SOL    HW224163   7.008   1.929   4.312
 7442SOL     OW24164   1.905   3.774   7.678
 7442SOL    HW124165   1.915   3.861   7.639
 7442SOL    HW224166   1.811   3.768   7.698
 7443SOL     OW24167   9.338  11.067  10.118
 7443SOL    HW124168   9.255  11.026  10.095
 7443SOL    HW224169   9.404  10.999  10.101
 7444SOL     OW24170   2.193  12.219  13.864
 7444SOL    HW124171   2.270  12.248  13.816
 7444SOL    HW224172   2.154  12.299  13.898
 7445SOL     OW24173   3.069  14.428  13.334
 7445SOL    HW124174   2.985  14.406  13.293
 7445SOL    HW224175   3.107  14.344  13.358
 7446SOL     OW24176   3.244   6.578   4.986
 7446SOL    HW124177   3.199   6.605   5.065
 7446SOL    HW224178   3.271   6.660   4.944
 7447SOL     OW24179  10.175   0.248   6.683
 7447SOL    HW124180  10.163   0.324   6.627
 7447SOL    HW224181  10.267   0.253   6.710
 7448SOL     OW24182   2.904   1.768   8.662
 7448SOL    HW124183   2.897   1.858   8.693
 7448SOL    HW224184   2.955   1.775   8.581
 7449SOL     OW24185   9.524  12.836  13.516
 7449SOL    HW124186   9.475  12.769  13.468
 7449SOL    HW224187   9.462  12.907  13.528
 7450SOL     OW24188  13.337   2.252  12.473
 7450SOL    HW124189  13.394   2.281  12.402
 7450SOL    HW224190  13.298   2.333  12.507
 7451SOL     OW24191   7.563  12.206  12.679
 7451SOL    HW124192   7.485  12.215  12.734
 7451SOL    HW224193   7.528  12.195  12.591
 7452SOL     OW24194   2.140  12.572  13.624
 7452SOL    HW124195   2.151  12.486  13.583
 7452SOL    HW224196   2.049  12.574  13.652
 7453SOL     OW24197   4.900   2.843   4.661
 7453SOL    HW124198   4.892   2.754   4.626
 7453SOL    HW224199   4.917   2.830   4.755
 7454SOL     OW24200  11.154  13.830   2.802
 7454SOL    HW124201  11.084  13.889   2.772
 7454SOL    HW224202  11.191  13.794   2.722
 7455SOL     OW24203  11.875  11.762   4.177
 7455SOL    HW124204  11.963  11.767   4.215
 7455SOL    HW224205  11.830  11.839   4.212
 7456SOL     OW24206   0.234   0.496   2.206
 7456SOL    HW124207   0.309   0.460   2.157
 7456SOL    HW224208   0.181   0.419   2.228
 7457SOL     OW24209   8.512   6.723   1.155
 7457SOL    HW124210   8.477   6.766   1.233
 7457SOL    HW224211   8.599   6.693   1.180
 7458SOL     OW24212   8.444   1.619   8.002
 7458SOL    HW124213   8.446   1.705   7.959
 7458SOL    HW224214   8.416   1.559   7.933
 7459SOL     OW24215   5.780   2.119   4.477
 7459SOL    HW124216   5.698   2.150   4.438
 7459SOL    HW224217   5.830   2.199   4.494
 7460SOL     OW24218   4.390   3.065   1.552
 7460SOL    HW124219   4.338   3.059   1.632
 7460SOL    HW224220   4.430   2.978   1.543
 7461SOL     OW24221   1.525   9.671   4.132
 7461SOL    HW124222   1.429   9.670   4.128
 7461SOL    HW224223   1.551   9.580   4.117
 7462SOL     OW24224   9.170   1.986  13.738
 7462SOL    HW124225   9.082   2.024  13.736
 7462SOL    HW224226   9.159   1.898  13.702
 7463SOL     OW24227   6.804  13.937  12.730
 7463SOL    HW124228   6.746  14.012  12.718
 7463SOL    HW224229   6.762  13.866  12.681
 7464SOL     OW24230  13.984  12.544   6.732
 7464SOL    HW124231  13.898  12.566   6.694
 7464SOL    HW224232  13.972  12.458   6.771
 7465SOL     OW24233   4.558   4.638   5.605
 7465SOL    HW124234   4.599   4.683   5.679
 7465SOL    HW224235   4.621   4.649   5.533
 7466SOL     OW24236  13.390   6.849   7.819
 7466SOL    HW124237  13.309   6.848   7.870
 7466SOL    HW224238  13.450   6.904   7.869
 7467SOL     OW24239  11.379   0.449   5.755
 7467SOL    HW124240  11.407   0.358   5.743
 7467SOL    HW224241  11.461   0.498   5.762
 7468SOL     OW24242  14.505   2.617  10.820
 7468SOL    HW124243  14.577   2.631  10.758
 7468SOL    HW224244  14.465   2.534  10.793
 7469SOL     OW24245   8.932  13.519  11.784
 7469SOL    HW124246   8.877  13.566  11.847
 7469SOL    HW224247   8.873  13.456  11.743
 7470SOL     OW24248   1.841  12.721  11.511
 7470SOL    HW124249   1.821  12.737  11.603
 7470SOL    HW224250   1.864  12.808  11.477
 7471SOL     OW24251   5.866   1.785  11.444
 7471SOL    HW124252   5.909   1.742  11.518
 7471SOL    HW224253   5.868   1.878  11.467
 7472SOL     OW24254   9.957   8.878   1.197
 7472SOL    HW124255  10.041   8.856   1.157
 7472SOL    HW224256   9.893   8.867   1.126
 7473SOL     OW24257   5.279   8.415   1.747
 7473SOL    HW124258   5.336   8.485   1.781
 7473SOL    HW224259   5.313   8.335   1.787
 7474SOL     OW24260  11.853  10.699  12.742
 7474SOL    HW124261  11.765  10.672  12.715
 7474SOL    HW224262  11.872  10.645  12.818
 7475SOL     OW24263  12.845   6.235   7.247
 7475SOL    HW124264  12.806   6.171   7.187
 7475SOL    HW224265  12.798   6.221   7.330
 7476SOL     OW24266   6.236   7.758   7.744
 7476SOL    HW124267   6.294   7.685   7.720
 7476SOL    HW224268   6.162   7.751   7.683
 7477SOL     OW24269  14.548   6.456   8.921
 7477SOL    HW124270  14.506   6.370   8.919
 7477SOL    HW224271  14.634   6.440   8.960
 7478SOL     OW24272   1.641   9.412   1.245
 7478SOL    HW124273   1.566   9.362   1.276
 7478SOL    HW224274   1.690   9.435   1.325
 7479SOL     OW24275   0.620  10.562  10.730
 7479SOL    HW124276   0.713  10.582  10.715
 7479SOL    HW224277   0.588  10.635  10.782
 7480SOL     OW24278  14.199   4.304   7.832
 7480SOL    HW124279  14.119   4.252   7.821
 7480SOL    HW224280  14.219   4.297   7.926
 7481SOL     OW24281   9.484   9.040   6.575
 7481SOL    HW124282   9.578   9.055   6.560
 7481SOL    HW224283   9.454   9.121   6.617
 7482SOL     OW24284   9.446  11.824   6.846
 7482SOL    HW124285   9.541  11.837   6.840
 7482SOL    HW224286   9.422  11.787   6.761
 7483SOL     OW24287   7.351   0.249   9.015
 7483SOL    HW124288   7.349   0.182   8.947
 7483SOL    HW224289   7.263   0.286   9.015
 7484SOL     OW24290   8.612   4.236  14.109
 7484SOL    HW124291   8.646   4.317  14.070
 7484SOL    HW224292   8.690   4.181  14.120
 7485SOL     OW24293   7.896   6.605   8.448
 7485SOL    HW124294   7.934   6.628   8.533
 7485SOL    HW224295   7.953   6.537   8.413
 7486SOL     OW24296   9.094   4.140  10.208
 7486SOL    HW124297   9.094   4.232  10.234
 7486SOL    HW224298   9.125   4.093  10.285
 7487SOL     OW24299   7.473   3.308   4.570
 7487SOL    HW124300   7.397   3.335   4.520
 7487SOL    HW224301   7.437   3.260   4.645
 7488SOL     OW24302  10.713   9.007   0.813
 7488SOL    HW124303  10.719   9.031   0.905
 7488SOL    HW224304  10.624   8.973   0.803
 7489SOL     OW24305   6.453   5.353   4.630
 7489SOL    HW124306   6.427   5.398   4.550
 7489SOL    HW224307   6.534   5.308   4.608
 7490SOL     OW24308   8.328   8.445   6.723
 7490SOL    HW124309   8.401   8.506   6.710
 7490SOL    HW224310   8.250   8.500   6.721
 7491SOL     OW24311   0.974   0.710  14.801
 7491SOL    HW124312   0.956   0.716  14.707
 7491SOL    HW224313   1.063   0.676  14.807
 7492SOL     OW24314   3.196  11.097  13.630
 7492SOL    HW124315   3.180  11.023  13.689
 7492SOL    HW224316   3.110  11.117  13.593
 7493SOL     OW24317   3.778  13.194   9.707
 7493SOL    HW124318   3.690  13.182   9.671
 7493SOL    HW224319   3.781  13.136   9.783
 7494SOL     OW24320  10.495  10.850   2.419
 7494SOL    HW124321  10.537  10.784   2.474
 7494SOL    HW224322  10.507  10.932   2.467
 7495SOL     OW24323   2.387   4.039   4.259
 7495SOL    HW124324   2.402   4.079   4.174
 7495SOL    HW224325   2.389   4.112   4.321
 7496SOL     OW24326   3.061   7.284   9.050
 7496SOL    HW124327   3.111   7.293   8.968
 7496SOL    HW224328   2.987   7.228   9.026
 7497SOL     OW24329   0.842   0.598   9.216
 7497SOL    HW124330   0.752   0.609   9.184
 7497SOL    HW224331   0.880   0.531   9.160
 7498SOL     OW24332  13.744  14.606   9.519
 7498SOL    HW124333  13.782  14.519   9.532
 7498SOL    HW224334  13.756  14.624   9.426
 7499SOL     OW24335   1.608   6.788  14.052
 7499SOL    HW124336   1.540   6.815  13.990
 7499SOL    HW224337   1.661   6.867  14.064
 7500SOL     OW24338   3.830  14.704   9.313
 7500SOL    HW124339   3.872  14.673   9.232
 7500SOL    HW224340   3.803  14.624   9.358
 7501SOL     OW24341   2.531   4.310  13.065
 7501SOL    HW124342   2.600   4.252  13.096
 7501SOL    HW224343   2.529   4.382  13.128
 7502SOL     OW24344   0.506   3.495  14.044
 7502SOL    HW124345   0.484   3.463  14.132
 7502SOL    HW224346   0.584   3.548  14.056
 7503SOL     OW24347   0.328   7.790   8.647
 7503SOL    HW124348   0.254   7.732   8.630
 7503SOL    HW224349   0.353   7.771   8.738
 7504SOL     OW24350   6.422   4.687   0.528
 7504SOL    HW124351   6.482   4.617   0.503
 7504SOL    HW224352   6.355   4.643   0.582
 7505SOL     OW24353  14.684   6.121  12.950
 7505SOL    HW124354  14.726   6.044  12.911
 7505SOL    HW224355  14.650   6.089  13.034
 7506SOL     OW24356  14.430   6.738   0.624
 7506SOL    HW124357  14.396   6.706   0.540
 7506SOL    HW224358  14.500   6.676   0.646
 7507SOL     OW24359   3.738   3.842  12.628
 7507SOL    HW124360   3.764   3.802  12.711
 7507SOL    HW224361   3.694   3.772  12.580
 7508SOL     OW24362   2.113  13.078   4.954
 7508SOL    HW124363   2.102  13.083   5.049
 7508SOL    HW224364   2.115  13.169   4.925
 7509SOL     OW24365  13.873   2.454   3.803
 7509SOL    HW124366  13.928   2.376   3.813
 7509SOL    HW224367  13.854   2.458   3.709
 7510SOL     OW24368  11.601  12.333   9.648
 7510SOL    HW124369  11.658  12.351   9.722
 7510SOL    HW224370  11.655  12.282   9.588
 7511SOL     OW24371   8.871   0.970   3.765
 7511SOL    HW124372   8.835   1.031   3.830
 7511SOL    HW224373   8.904   1.026   3.695
 7512SOL     OW24374   0.906  11.809   7.645
 7512SOL    HW124375   0.827  11.807   7.699
 7512SOL    HW224376   0.949  11.725   7.662
 7513SOL     OW24377   1.605  12.779  12.101
 7513SOL    HW124378   1.652  12.696  12.105
 7513SOL    HW224379   1.516  12.757  12.131
 7514SOL     OW24380   3.677   8.467   7.699
 7514SOL    HW124381   3.740   8.539   7.696
 7514SOL    HW224382   3.648   8.463   7.790
 7515SOL     OW24383   2.260   1.263  14.120
 7515SOL    HW124384   2.226   1.206  14.052
 7515SOL    HW224385   2.204   1.341  14.116
 7516SOL     OW24386   5.713   3.717   9.420
 7516SOL    HW124387   5.655   3.652   9.382
 7516SOL    HW224388   5.656   3.790   9.443
 7517SOL     OW24389  12.609   9.704   3.521
 7517SOL    HW124390  12.563   9.720   3.439
 7517SOL    HW224391  12.701   9.708   3.499
 7518SOL     OW24392   3.747   1.481  14.242
 7518SOL    HW124393   3.696   1.488  14.323
 7518SOL    HW224394   3.807   1.555  14.245
 7519SOL     OW24395  10.835  11.376   4.890
 7519SOL    HW124396  10.831  11.446   4.825
 7519SOL    HW224397  10.771  11.402   4.957
 7520SOL     OW24398  13.362  12.983  11.429
 7520SOL    HW124399  13.290  12.922  11.411
 7520SOL    HW224400  13.441  12.931  11.413
 7521SOL     OW24401   7.397   3.408   9.354
 7521SOL    HW124402   7.310   3.369   9.346
 7521SOL    HW224403   7.412   3.453   9.271
 7522SOL     OW24404   7.264   5.159  11.809
 7522SOL    HW124405   7.350   5.179  11.771
 7522SOL    HW224406   7.213   5.239  11.795
 7523SOL     OW24407   8.236  10.767   9.328
 7523SOL    HW124408   8.167  10.737   9.270
 7523SOL    HW224409   8.210  10.855   9.354
 7524SOL     OW24410   3.377   2.414   9.640
 7524SOL    HW124411   3.460   2.369   9.625
 7524SOL    HW224412   3.333   2.412   9.555
 7525SOL     OW24413   7.730   0.836   2.000
 7525SOL    HW124414   7.800   0.867   2.058
 7525SOL    HW224415   7.755   0.746   1.979
 7526SOL     OW24416  14.864   8.793   3.952
 7526SOL    HW124417  14.777   8.764   3.924
 7526SOL    HW224418   0.045   8.728   3.916
 7527SOL     OW24419   0.660   1.066  13.635
 7527SOL    HW124420   0.605   1.141  13.612
 7527SOL    HW224421   0.749   1.099  13.631
 7528SOL     OW24422   7.719   1.234  10.818
 7528SOL    HW124423   7.698   1.141  10.827
 7528SOL    HW224424   7.815   1.236  10.815
 7529SOL     OW24425   9.791  13.637  10.092
 7529SOL    HW124426   9.796  13.603  10.181
 7529SOL    HW224427   9.861  13.702  10.086
 7530SOL     OW24428   0.867  12.155   1.042
 7530SOL    HW124429   0.807  12.159   0.967
 7530SOL    HW224430   0.954  12.148   1.002
 7531SOL     OW24431  14.763   6.003   0.939
 7531SOL    HW124432  14.707   5.924   0.936
 7531SOL    HW224433  14.850   5.972   0.914
 7532SOL     OW24434   3.533  10.190   9.438
 7532SOL    HW124435   3.619  10.212   9.473
 7532SOL    HW224436   3.545  10.103   9.398
 7533SOL     OW24437  13.287   6.512  10.432
 7533SOL    HW124438  13.343   6.581  10.397
 7533SOL    HW224439  13.204   6.555  10.449
 7534SOL     OW24440   9.506  10.335   9.837
 7534SOL    HW124441   9.498  10.310   9.929
 7534SOL    HW224442   9.443  10.279   9.792
 7535SOL     OW24443   1.419   3.642   7.957
 7535SOL    HW124444   1.345   3.627   8.015
 7535SOL    HW224445   1.387   3.617   7.871
 7536SOL     OW24446   3.180  12.296   0.852
 7536SOL    HW124447   3.095  12.332   0.880
 7536SOL    HW224448   3.183  12.313   0.758
 7537SOL     OW24449   5.773  11.011   2.583
 7537SOL    HW124450   5.714  10.952   2.536
 7537SOL    HW224451   5.847  10.956   2.608
 7538SOL     OW24452   9.010   8.918   6.008
 7538SOL    HW124453   8.954   8.892   6.081
 7538SOL    HW224454   8.985   8.859   5.937
 7539SOL     OW24455   3.148   8.140   7.036
 7539SOL    HW124456   3.095   8.145   6.957
 7539SOL    HW224457   3.235   8.111   7.006
 7540SOL     OW24458   3.122  13.490   0.340
 7540SOL    HW124459   3.090  13.547   0.270
 7540SOL    HW224460   3.042  13.457   0.382
 7541SOL     OW24461  12.818   1.058   2.877
 7541SOL    HW124462  12.906   1.022   2.866
 7541SOL    HW224463  12.830   1.138   2.927
 7542SOL     OW24464  11.248   1.655   2.705
 7542SOL    HW124465  11.340   1.638   2.681
 7542SOL    HW224466  11.203   1.663   2.622
 7543SOL     OW24467   1.904  13.806   0.620
 7543SOL    HW124468   1.974  13.866   0.648
 7543SOL    HW224469   1.824  13.857   0.630
 7544SOL     OW24470  14.280   7.709   9.790
 7544SOL    HW124471  14.196   7.723   9.747
 7544SOL    HW224472  14.257   7.691   9.881
 7545SOL     OW24473   0.250  11.743  11.436
 7545SOL    HW124474   0.221  11.656  11.410
 7545SOL    HW224475   0.176  11.800  11.417
 7546SOL     OW24476   3.479  13.163   0.661
 7546SOL    HW124477   3.409  13.165   0.726
 7546SOL    HW224478   3.440  13.204   0.583
 7547SOL     OW24479  13.332   5.310   3.407
 7547SOL    HW124480  13.350   5.221   3.438
 7547SOL    HW224481  13.248   5.303   3.362
 7548SOL     OW24482   1.073   9.167   2.527
 7548SOL    HW124483   1.091   9.167   2.621
 7548SOL    HW224484   1.084   9.076   2.499
 7549SOL     OW24485  14.110   7.533   0.895
 7549SOL    HW124486  14.088   7.442   0.916
 7549SOL    HW224487  14.047   7.557   0.827
 7550SOL     OW24488   1.110   6.625   7.133
 7550SOL    HW124489   1.051   6.633   7.208
 7550SOL    HW224490   1.197   6.621   7.170
 7551SOL     OW24491   6.275   8.567   9.574
 7551SOL    HW124492   6.305   8.606   9.492
 7551SOL    HW224493   6.248   8.478   9.549
 7552SOL     OW24494  12.901   0.199  13.263
 7552SOL    HW124495  12.976   0.208  13.322
 7552SOL    HW224496  12.828   0.236  13.312
 7553SOL     OW24497   7.617   5.278   6.000
 7553SOL    HW124498   7.535   5.314   6.032
 7553SOL    HW224499   7.627   5.195   6.046
 7554SOL     OW24500   5.525   0.339   7.183
 7554SOL    HW124501   5.595   0.347   7.247
 7554SOL    HW224502   5.508   0.244   7.178
 7555SOL     OW24503   5.052   7.997   3.134
 7555SOL    HW124504   5.072   8.019   3.043
 7555SOL    HW224505   5.096   7.913   3.148
 7556SOL     OW24506  11.059   6.537  12.933
 7556SOL    HW124507  11.062   6.565  13.024
 7556SOL    HW224508  11.137   6.575  12.894
 7557SOL     OW24509   9.977   1.692   4.142
 7557SOL    HW124510  10.063   1.654   4.158
 7557SOL    HW224511   9.915   1.624   4.168
 7558SOL     OW24512  10.737  11.136   0.689
 7558SOL    HW124513  10.708  11.121   0.779
 7558SOL    HW224514  10.824  11.096   0.685
 7559SOL     OW24515   7.263   7.829  14.277
 7559SOL    HW124516   7.279   7.739  14.247
 7559SOL    HW224517   7.340   7.850  14.330
 7560SOL     OW24518   7.778  11.766  11.319
 7560SOL    HW124519   7.744  11.740  11.405
 7560SOL    HW224520   7.800  11.858  11.329
 7561SOL     OW24521   2.945   2.533   8.182
 7561SOL    HW124522   3.021   2.569   8.138
 7561SOL    HW224523   2.876   2.598   8.169
 7562SOL     OW24524   9.813   9.339   0.334
 7562SOL    HW124525   9.855   9.253   0.326
 7562SOL    HW224526   9.753   9.343   0.259
 7563SOL     OW24527   3.589  11.535   1.048
 7563SOL    HW124528   3.607  11.561   1.138
 7563SOL    HW224529   3.595  11.616   0.998
 7564SOL     OW24530   7.253   2.053   8.653
 7564SOL    HW124531   7.192   2.124   8.673
 7564SOL    HW224532   7.284   2.072   8.565
 7565SOL     OW24533   1.596   9.824  12.547
 7565SOL    HW124534   1.616   9.739  12.587
 7565SOL    HW224535   1.561   9.877  12.619
 7566SOL     OW24536   3.767  13.722  10.502
 7566SOL    HW124537   3.683  13.680  10.520
 7566SOL    HW224538   3.831  13.651  10.506
 7567SOL     OW24539   6.022  10.008   1.567
 7567SOL    HW124540   6.060  10.096   1.576
 7567SOL    HW224541   6.097   9.951   1.552
 7568SOL     OW24542  11.865   3.721   7.948
 7568SOL    HW124543  11.815   3.801   7.936
 7568SOL    HW224544  11.831   3.683   8.029
 7569SOL     OW24545   7.740   7.385   0.928
 7569SOL    HW124546   7.718   7.419   0.842
 7569SOL    HW224547   7.782   7.458   0.973
 7570SOL     OW24548   0.027   0.084  10.056
 7570SOL    HW124549   0.045   0.178  10.057
 7570SOL    HW224550  14.876   0.067   9.967
 7571SOL     OW24551   4.951   3.684   1.455
 7571SOL    HW124552   4.950   3.618   1.525
 7571SOL    HW224553   5.025   3.740   1.476
 7572SOL     OW24554   2.874  11.642  12.810
 7572SOL    HW124555   2.920  11.678  12.734
 7572SOL    HW224556   2.833  11.562  12.778
 7573SOL     OW24557   5.728  11.720   4.448
 7573SOL    HW124558   5.806  11.709   4.503
 7573SOL    HW224559   5.742  11.659   4.375
 7574SOL     OW24560  14.439   7.975   5.985
 7574SOL    HW124561  14.410   8.037   5.918
 7574SOL    HW224562  14.530   7.956   5.962
 7575SOL     OW24563  10.842   6.417   1.224
 7575SOL    HW124564  10.750   6.443   1.226
 7575SOL    HW224565  10.841   6.323   1.239
 7576SOL     OW24566  14.064   2.326  12.558
 7576SOL    HW124567  14.131   2.326  12.626
 7576SOL    HW224568  14.073   2.240  12.516
 7577SOL     OW24569   9.233  11.492   2.748
 7577SOL    HW124570   9.297  11.452   2.807
 7577SOL    HW224571   9.284  11.517   2.671
 7578SOL     OW24572   9.642   1.655   8.526
 7578SOL    HW124573   9.625   1.748   8.515
 7578SOL    HW224574   9.563   1.612   8.494
 7579SOL     OW24575   5.593  12.333   5.653
 7579SOL    HW124576   5.540  12.267   5.607
 7579SOL    HW224577   5.529  12.392   5.692
 7580SOL     OW24578   1.235  14.520  13.718
 7580SOL    HW124579   1.326  14.531  13.690
 7580SOL    HW224580   1.239  14.518  13.813
 7581SOL     OW24581   6.835   6.631  13.377
 7581SOL    HW124582   6.821   6.697  13.445
 7581SOL    HW224583   6.879   6.679  13.306
 7582SOL     OW24584   9.295  11.042  14.850
 7582SOL    HW124585   9.221  11.102  14.843
 7582SOL    HW224586   9.321  11.026  14.759
 7583SOL     OW24587  11.668   5.530   1.820
 7583SOL    HW124588  11.744   5.589   1.818
 7583SOL    HW224589  11.672   5.483   1.737
 7584SOL     OW24590   6.216   1.702   7.526
 7584SOL    HW124591   6.220   1.643   7.601
 7584SOL    HW224592   6.215   1.790   7.565
 7585SOL     OW24593   0.204   5.699  12.647
 7585SOL    HW124594   0.129   5.666  12.597
 7585SOL    HW224595   0.268   5.724  12.580
 7586SOL     OW24596  10.684   1.911  13.568
 7586SOL    HW124597  10.700   1.899  13.474
 7586SOL    HW224598  10.629   1.989  13.573
 7587SOL     OW24599   1.730  11.038   7.417
 7587SOL    HW124600   1.774  10.996   7.491
 7587SOL    HW224601   1.701  10.965   7.362
 7588SOL     OW24602   4.510   8.058  11.493
 7588SOL    HW124603   4.428   8.010  11.505
 7588SOL    HW224604   4.566   7.999  11.443
 7589SOL     OW24605  11.623   6.154   9.712
 7589SOL    HW124606  11.613   6.088   9.643
 7589SOL    HW224607  11.702   6.202   9.688
 7590SOL     OW24608   1.056  13.180   1.754
 7590SOL    HW124609   0.964  13.157   1.769
 7590SOL    HW224610   1.073  13.251   1.816
 7591SOL     OW24611   1.180  12.334  11.094
 7591SOL    HW124612   1.118  12.298  11.031
 7591SOL    HW224613   1.258  12.355  11.042
 7592SOL     OW24614  10.524  12.815  10.976
 7592SOL    HW124615  10.563  12.762  11.045
 7592SOL    HW224616  10.597  12.865  10.939
 7593SOL     OW24617   8.235   9.608   8.875
 7593SOL    HW124618   8.272   9.529   8.914
 7593SOL    HW224619   8.141   9.601   8.890
 7594SOL     OW24620   5.758   3.827   3.668
 7594SOL    HW124621   5.746   3.888   3.596
 7594SOL    HW224622   5.853   3.824   3.681
 7595SOL     OW24623  12.289   9.981   5.589
 7595SOL    HW124624  12.262  10.015   5.675
 7595SOL    HW224625  12.290   9.886   5.600
 7596SOL     OW24626  11.245   9.208  14.162
 7596SOL    HW124627  11.249   9.303  14.170
 7596SOL    HW224628  11.335   9.178  14.177
 7597SOL     OW24629   7.563   4.945   6.511
 7597SOL    HW124630   7.579   5.036   6.485
 7597SOL    HW224631   7.528   4.951   6.599
 7598SOL     OW24632   3.404  12.913   9.435
 7598SOL    HW124633   3.455  12.861   9.374
 7598SOL    HW224634   3.464  12.982   9.465
 7599SOL     OW24635   2.806   2.181  10.012
 7599SOL    HW124636   2.793   2.086  10.020
 7599SOL    HW224637   2.866   2.203  10.082
 7600SOL     OW24638   0.520  12.380   7.172
 7600SOL    HW124639   0.465  12.446   7.131
 7600SOL    HW224640   0.552  12.327   7.099
 7601SOL     OW24641   5.521   6.469  10.563
 7601SOL    HW124642   5.555   6.381  10.548
 7601SOL    HW224643   5.565   6.498  10.643
 7602SOL     OW24644   5.954  11.192   2.867
 7602SOL    HW124645   5.941  11.250   2.942
 7602SOL    HW224646   5.866  11.178   2.831
 7603SOL     OW24647   8.547   8.819  11.827
 7603SOL    HW124648   8.467   8.803  11.776
 7603SOL    HW224649   8.577   8.732  11.853
 7604SOL     OW24650   0.780  12.383  14.615
 7604SOL    HW124651   0.857  12.360  14.562
 7604SOL    HW224652   0.740  12.456  14.569
 7605SOL     OW24653   5.838   7.884   6.201
 7605SOL    HW124654   5.837   7.943   6.276
 7605SOL    HW224655   5.746   7.858   6.191
 7606SOL     OW24656   1.792   7.219   9.059
 7606SOL    HW124657   1.818   7.213   8.967
 7606SOL    HW224658   1.829   7.302   9.089
 7607SOL     OW24659   0.072  12.010   6.391
 7607SOL    HW124660   0.131  11.940   6.363
 7607SOL    HW224661   0.004  12.011   6.324
 7608SOL     OW24662   0.476  11.872  12.013
 7608SOL    HW124663   0.533  11.948  11.999
 7608SOL    HW224664   0.445  11.848  11.925
 7609SOL     OW24665   7.033   3.602  12.578
 7609SOL    HW124666   6.948   3.646  12.569
 7609SOL    HW224667   7.012   3.509  12.582
 7610SOL     OW24668  13.362  12.652  14.285
 7610SOL    HW124669  13.456  12.655  14.303
 7610SOL    HW224670  13.322  12.641  14.371
 7611SOL     OW24671   0.805   2.225   1.528
 7611SOL    HW124672   0.863   2.287   1.483
 7611SOL    HW224673   0.799   2.257   1.617
 7612SOL     OW24674   3.714   6.460   9.877
 7612SOL    HW124675   3.622   6.433   9.881
 7612SOL    HW224676   3.743   6.435   9.790
 7613SOL     OW24677   9.051   5.598   4.997
 7613SOL    HW124678   9.029   5.687   5.027
 7613SOL    HW224679   8.967   5.557   4.981
 7614SOL     OW24680   4.571   5.560   5.065
 7614SOL    HW124681   4.634   5.620   5.105
 7614SOL    HW224682   4.512   5.617   5.016
 7615SOL     OW24683   4.823  10.016   3.995
 7615SOL    HW124684   4.884  10.089   4.004
 7615SOL    HW224685   4.743  10.047   4.039
 7616SOL     OW24686  13.195   9.741  10.643
 7616SOL    HW124687  13.208   9.662  10.590
 7616SOL    HW224688  13.257   9.804  10.607
 7617SOL     OW24689   9.545   5.403   3.320
 7617SOL    HW124690   9.557   5.308   3.317
 7617SOL    HW224691   9.552   5.432   3.229
 7618SOL     OW24692  13.468  13.704   3.301
 7618SOL    HW124693  13.473  13.784   3.248
 7618SOL    HW224694  13.538  13.649   3.268
 7619SOL     OW24695   5.236   1.616   1.636
 7619SOL    HW124696   5.244   1.695   1.690
 7619SOL    HW224697   5.155   1.629   1.587
 7620SOL     OW24698  10.701  11.272   7.646
 7620SOL    HW124699  10.665  11.239   7.564
 7620SOL    HW224700  10.693  11.199   7.707
 7621SOL     OW24701   1.480  10.147  11.459
 7621SOL    HW124702   1.494  10.060  11.422
 7621SOL    HW224703   1.531  10.206  11.403
 7622SOL     OW24704   8.174   2.837   8.578
 7622SOL    HW124705   8.254   2.839   8.526
 7622SOL    HW224706   8.119   2.906   8.539
 7623SOL     OW24707  12.011   9.617   9.017
 7623SOL    HW124708  12.040   9.668   9.092
 7623SOL    HW224709  11.916   9.612   9.026
 7624SOL     OW24710   2.591  10.094   5.687
 7624SOL    HW124711   2.641  10.071   5.609
 7624SOL    HW224712   2.596  10.190   5.690
 7625SOL     OW24713   2.400  11.524   8.345
 7625SOL    HW124714   2.403  11.444   8.398
 7625SOL    HW224715   2.365  11.590   8.404
 7626SOL     OW24716   7.450   8.355   3.726
 7626SOL    HW124717   7.473   8.419   3.794
 7626SOL    HW224718   7.355   8.356   3.723
 7627SOL     OW24719  13.134   1.383   1.270
 7627SOL    HW124720  13.222   1.364   1.239
 7627SOL    HW224721  13.140   1.376   1.365
 7628SOL     OW24722   4.856   4.879   8.402
 7628SOL    HW124723   4.782   4.904   8.458
 7628SOL    HW224724   4.930   4.927   8.438
 7629SOL     OW24725   7.737  13.230   6.419
 7629SOL    HW124726   7.661  13.172   6.414
 7629SOL    HW224727   7.805  13.184   6.370
 7630SOL     OW24728  12.095   0.331  13.944
 7630SOL    HW124729  12.076   0.277  14.021
 7630SOL    HW224730  12.035   0.405  13.950
 7631SOL     OW24731   0.293   4.362   9.742
 7631SOL    HW124732   0.387   4.363   9.721
 7631SOL    HW224733   0.266   4.453   9.734
 7632SOL     OW24734   0.679   6.064  12.070
 7632SOL    HW124735   0.742   6.126  12.105
 7632SOL    HW224736   0.594   6.107  12.081
 7633SOL     OW24737  10.101   3.759   7.740
 7633SOL    HW124738  10.139   3.779   7.825
 7633SOL    HW224739  10.113   3.838   7.688
 7634SOL     OW24740   0.852   2.461   7.158
 7634SOL    HW124741   0.939   2.498   7.172
 7634SOL    HW224742   0.851   2.436   7.066
 7635SOL     OW24743   5.778   8.801   2.704
 7635SOL    HW124744   5.817   8.773   2.621
 7635SOL    HW224745   5.785   8.896   2.703
 7636SOL     OW24746  14.759   7.917   9.603
 7636SOL    HW124747  14.839   7.935   9.554
 7636SOL    HW224748  14.723   7.838   9.563
 7637SOL     OW24749  12.210   7.365   4.881
 7637SOL    HW124750  12.221   7.307   4.806
 7637SOL    HW224751  12.299   7.381   4.913
 7638SOL     OW24752   8.956   3.219  14.659
 7638SOL    HW124753   8.894   3.290  14.640
 7638SOL    HW224754   8.975   3.181  14.573
 7639SOL     OW24755  12.758   6.914  14.753
 7639SOL    HW124756  12.807   6.950  14.826
 7639SOL    HW224757  12.730   6.827  14.783
 7640SOL     OW24758  10.645  10.608   9.875
 7640SOL    HW124759  10.725  10.557   9.890
 7640SOL    HW224760  10.577  10.543   9.860
 7641SOL     OW24761   5.397  13.362   5.269
 7641SOL    HW124762   5.488  13.348   5.245
 7641SOL    HW224763   5.392  13.455   5.290
 7642SOL     OW24764  12.013  13.292   3.512
 7642SOL    HW124765  11.936  13.242   3.539
 7642SOL    HW224766  12.022  13.360   3.579
 7643SOL     OW24767   0.602   7.114  11.361
 7643SOL    HW124768   0.672   7.065  11.319
 7643SOL    HW224769   0.642   7.198  11.385
 7644SOL     OW24770  13.174  11.925  13.109
 7644SOL    HW124771  13.190  11.914  13.016
 7644SOL    HW224772  13.079  11.916  13.119
 7645SOL     OW24773  11.447   6.277   4.713
 7645SOL    HW124774  11.447   6.183   4.731
 7645SOL    HW224775  11.366   6.309   4.752
 7646SOL     OW24776  10.717  11.346   0.295
 7646SOL    HW124777  10.629  11.337   0.257
 7646SOL    HW224778  10.776  11.321   0.225
 7647SOL     OW24779   6.544  12.486   7.692
 7647SOL    HW124780   6.474  12.420   7.695
 7647SOL    HW224781   6.593  12.466   7.613
 7648SOL     OW24782   4.048   0.080  10.036
 7648SOL    HW124783   4.086   0.065   9.949
 7648SOL    HW224784   4.095   0.021  10.094
 7649SOL     OW24785   0.850  13.277   3.609
 7649SOL    HW124786   0.820  13.310   3.694
 7649SOL    HW224787   0.771  13.271   3.556
 7650SOL     OW24788   0.293  13.737  13.442
 7650SOL    HW124789   0.304  13.733  13.537
 7650SOL    HW224790   0.317  13.650  13.411
 7651SOL     OW24791   0.381   6.801   2.109
 7651SOL    HW124792   0.333   6.735   2.058
 7651SOL    HW224793   0.464   6.758   2.131
 7652SOL     OW24794   2.420  12.938   9.943
 7652SOL    HW124795   2.511  12.967   9.951
 7652SOL    HW224796   2.384  12.993   9.873
 7653SOL     OW24797   8.938   7.378   1.098
 7653SOL    HW124798   8.899   7.356   1.013
 7653SOL    HW224799   8.969   7.294   1.132
 7654SOL     OW24800  14.164   2.056  10.669
 7654SOL    HW124801  14.120   2.139  10.686
 7654SOL    HW224802  14.163   2.010  10.753
 7655SOL     OW24803  11.996   1.215   1.501
 7655SOL    HW124804  11.964   1.146   1.559
 7655SOL    HW224805  12.059   1.171   1.444
 7656SOL     OW24806   2.679   1.585   9.576
 7656SOL    HW124807   2.710   1.591   9.667
 7656SOL    HW224808   2.586   1.564   9.584
 7657SOL     OW24809   2.294   0.231   7.805
 7657SOL    HW124810   2.334   0.253   7.721
 7657SOL    HW224811   2.332   0.293   7.867
 7658SOL     OW24812   1.581   9.158   4.150
 7658SOL    HW124813   1.537   9.135   4.232
 7658SOL    HW224814   1.610   9.074   4.114
 7659SOL     OW24815   9.102   0.525   3.862
 7659SOL    HW124816   9.145   0.455   3.912
 7659SOL    HW224817   9.116   0.603   3.915
 7660SOL     OW24818   5.988   7.814  11.438
 7660SOL    HW124819   6.034   7.771  11.510
 7660SOL    HW224820   5.935   7.745  11.398
 7661SOL     OW24821   6.949   7.235  12.937
 7661SOL    HW124822   6.927   7.186  13.017
 7661SOL    HW224823   7.021   7.292  12.964
 7662SOL     OW24824   4.501   9.194   5.494
 7662SOL    HW124825   4.485   9.200   5.400
 7662SOL    HW224826   4.452   9.117   5.522
 7663SOL     OW24827   2.310   2.109   6.302
 7663SOL    HW124828   2.347   2.036   6.253
 7663SOL    HW224829   2.367   2.118   6.379
 7664SOL     OW24830   2.634   7.332   3.570
 7664SOL    HW124831   2.556   7.386   3.553
 7664SOL    HW224832   2.603   7.265   3.631
 7665SOL     OW24833  10.841   6.416   0.307
 7665SOL    HW124834  10.842   6.433   0.212
 7665SOL    HW224835  10.814   6.324   0.314
 7666SOL     OW24836   7.314   6.055  11.909
 7666SOL    HW124837   7.409   6.048  11.900
 7666SOL    HW224838   7.289   5.979  11.960
 7667SOL     OW24839  13.312   9.856   5.023
 7667SOL    HW124840  13.360   9.909   4.959
 7667SOL    HW224841  13.251   9.918   5.064
 7668SOL     OW24842   2.673  10.924   4.795
 7668SOL    HW124843   2.622  10.868   4.855
 7668SOL    HW224844   2.641  11.012   4.813
 7669SOL     OW24845  12.680  14.684  11.348
 7669SOL    HW124846  12.759  14.727  11.380
 7669SOL    HW224847  12.669  14.607  11.404
 7670SOL     OW24848   1.560   5.061  10.121
 7670SOL    HW124849   1.511   5.127  10.171
 7670SOL    HW224850   1.599   5.109  10.048
 7671SOL     OW24851   9.165   1.658  14.059
 7671SOL    HW124852   9.237   1.596  14.047
 7671SOL    HW224853   9.121   1.628  14.139
 7672SOL     OW24854   2.610  10.304  11.894
 7672SOL    HW124855   2.683  10.316  11.954
 7672SOL    HW224856   2.649  10.265  11.816
 7673SOL     OW24857  14.842   5.158   6.908
 7673SOL    HW124858  14.778   5.089   6.896
 7673SOL    HW224859  14.813   5.205   6.986
 7674SOL     OW24860   6.923   6.795   4.375
 7674SOL    HW124861   6.940   6.757   4.461
 7674SOL    HW224862   7.007   6.832   4.347
 7675SOL     OW24863   5.899   4.448   3.139
 7675SOL    HW124864   5.892   4.540   3.115
 7675SOL    HW224865   5.914   4.448   3.233
 7676SOL     OW24866   7.774  13.916   0.174
 7676SOL    HW124867   7.773  13.859   0.251
 7676SOL    HW224868   7.730  13.996   0.203
 7677SOL     OW24869   1.962   5.579   8.600
 7677SOL    HW124870   2.047   5.599   8.561
 7677SOL    HW224871   1.962   5.484   8.611
 7678SOL     OW24872   2.864   3.415   7.637
 7678SOL    HW124873   2.862   3.462   7.721
 7678SOL    HW224874   2.857   3.485   7.571
 7679SOL     OW24875   8.657   2.863   1.708
 7679SOL    HW124876   8.687   2.842   1.619
 7679SOL    HW224877   8.728   2.917   1.744
 7680SOL     OW24878   3.074   1.957   1.020
 7680SOL    HW124879   3.144   1.901   0.985
 7680SOL    HW224880   3.016   1.896   1.065
 7681SOL     OW24881   0.712  14.072   8.908
 7681SOL    HW124882   0.635  14.105   8.861
 7681SOL    HW224883   0.762  14.024   8.841
 7682SOL     OW24884  13.865   0.531   3.783
 7682SOL    HW124885  13.913   0.499   3.859
 7682SOL    HW224886  13.784   0.480   3.783
 7683SOL     OW24887   8.402   1.569  14.038
 7683SOL    HW124888   8.412   1.621  13.958
 7683SOL    HW224889   8.351   1.493  14.011
 7684SOL     OW24890   0.402  13.928   2.154
 7684SOL    HW124891   0.383  13.835   2.170
 7684SOL    HW224892   0.318  13.965   2.126
 7685SOL     OW24893  13.001   0.026   8.307
 7685SOL    HW124894  12.977   0.116   8.330
 7685SOL    HW224895  12.932  14.851   8.346
 7686SOL     OW24896   3.257  13.028   4.468
 7686SOL    HW124897   3.265  13.123   4.467
 7686SOL    HW224898   3.336  12.997   4.423
 7687SOL     OW24899  14.721   8.510  10.866
 7687SOL    HW124900  14.692   8.547  10.949
 7687SOL    HW224901  14.737   8.586  10.810
 7688SOL     OW24902  12.187   3.480   5.337
 7688SOL    HW124903  12.139   3.429   5.403
 7688SOL    HW224904  12.204   3.564   5.380
 7689SOL     OW24905   3.816  13.954   7.930
 7689SOL    HW124906   3.814  14.017   8.002
 7689SOL    HW224907   3.779  13.874   7.967
 7690SOL     OW24908   9.315  13.089   4.086
 7690SOL    HW124909   9.327  13.183   4.070
 7690SOL    HW224910   9.229  13.070   4.048
 7691SOL     OW24911  11.129   5.427   1.885
 7691SOL    HW124912  11.218   5.462   1.882
 7691SOL    HW224913  11.074   5.501   1.912
 7692SOL     OW24914   7.598   1.966   6.984
 7692SOL    HW124915   7.644   1.882   6.979
 7692SOL    HW224916   7.637   2.010   7.059
 7693SOL     OW24917   6.265  14.542  11.766
 7693SOL    HW124918   6.237  14.544  11.674
 7693SOL    HW224919   6.329  14.471  11.770
 7694SOL     OW24920   8.157   7.325  13.591
 7694SOL    HW124921   8.238   7.300  13.546
 7694SOL    HW224922   8.088   7.307  13.526
 7695SOL     OW24923   2.377   6.774   0.825
 7695SOL    HW124924   2.370   6.683   0.797
 7695SOL    HW224925   2.384   6.770   0.921
 7696SOL     OW24926   7.316   6.042   0.337
 7696SOL    HW124927   7.339   6.034   0.430
 7696SOL    HW224928   7.355   6.125   0.310
 7697SOL     OW24929  14.694  10.339  11.889
 7697SOL    HW124930  14.660  10.306  11.973
 7697SOL    HW224931  14.616  10.357  11.837
 7698SOL     OW24932  11.418  13.148   7.267
 7698SOL    HW124933  11.401  13.163   7.174
 7698SOL    HW224934  11.447  13.233   7.300
 7699SOL     OW24935   3.422   3.566   2.238
 7699SOL    HW124936   3.484   3.638   2.246
 7699SOL    HW224937   3.385   3.575   2.150
 7700SOL     OW24938   6.400   5.222   5.440
 7700SOL    HW124939   6.377   5.284   5.370
 7700SOL    HW224940   6.328   5.159   5.441
 7701SOL     OW24941   6.778   0.275  13.174
 7701SOL    HW124942   6.758   0.350  13.119
 7701SOL    HW224943   6.859   0.299  13.219
 7702SOL     OW24944   3.658   3.604  11.691
 7702SOL    HW124945   3.745   3.644  11.684
 7702SOL    HW224946   3.668   3.517  11.652
 7703SOL     OW24947  11.068  13.675  13.458
 7703SOL    HW124948  11.039  13.605  13.517
 7703SOL    HW224949  10.990  13.728  13.444
 7704SOL     OW24950   3.713  13.964   4.929
 7704SOL    HW124951   3.747  13.936   4.844
 7704SOL    HW224952   3.730  13.890   4.988
 7705SOL     OW24953   1.595   8.188   8.858
 7705SOL    HW124954   1.538   8.247   8.809
 7705SOL    HW224955   1.557   8.185   8.945
 7706SOL     OW24956   9.719  10.100  10.124
 7706SOL    HW124957   9.746  10.187  10.095
 7706SOL    HW224958   9.742  10.042  10.051
 7707SOL     OW24959   6.636  11.528   3.394
 7707SOL    HW124960   6.660  11.475   3.318
 7707SOL    HW224961   6.543  11.509   3.408
 7708SOL     OW24962   5.473   4.945  14.027
 7708SOL    HW124963   5.426   5.028  14.032
 7708SOL    HW224964   5.550   4.964  13.974
 7709SOL     OW24965  13.149   6.786   4.070
 7709SOL    HW124966  13.114   6.874   4.053
 7709SOL    HW224967  13.205   6.797   4.146
 7710SOL     OW24968  11.929  12.539  13.588
 7710SOL    HW124969  11.930  12.483  13.665
 7710SOL    HW224970  11.837  12.550  13.567
 7711SOL     OW24971   3.764  14.154   6.519
 7711SOL    HW124972   3.728  14.161   6.430
 7711SOL    HW224973   3.721  14.224   6.568
 7712SOL     OW24974   9.381   9.312   7.065
 7712SOL    HW124975   9.409   9.391   7.019
 7712SOL    HW224976   9.313   9.342   7.126
 7713SOL     OW24977   5.985   8.466   1.673
 7713SOL    HW124978   6.028   8.516   1.604
 7713SOL    HW224979   6.043   8.391   1.687
 7714SOL     OW24980  13.034  10.288   2.707
 7714SOL    HW124981  13.115  10.291   2.757
 7714SOL    HW224982  13.032  10.201   2.668
 7715SOL     OW24983  12.562   6.402  14.146
 7715SOL    HW124984  12.512   6.372  14.071
 7715SOL    HW224985  12.525   6.487  14.168
 7716SOL     OW24986   0.632   0.036   1.481
 7716SOL    HW124987   0.653  14.873   1.397
 7716SOL    HW224988   0.538   0.020   1.493
 7717SOL     OW24989  13.981   4.439   9.882
 7717SOL    HW124990  13.887   4.438   9.902
 7717SOL    HW224991  13.987   4.487   9.799
 7718SOL     OW24992   0.464  12.004   4.915
 7718SOL    HW124993   0.417  11.923   4.898
 7718SOL    HW224994   0.397  12.065   4.945
 7719SOL     OW24995   3.530   5.182   2.230
 7719SOL    HW124996   3.437   5.166   2.220
 7719SOL    HW224997   3.563   5.104   2.276
 7720SOL     OW24998   7.298  10.513   2.648
 7720SOL    HW124999   7.207  10.531   2.626
 7720SOL    HW225000   7.341  10.497   2.564
 7721SOL     OW25001   7.973   6.212   1.564
 7721SOL    HW125002   8.001   6.126   1.535
 7721SOL    HW225003   7.939   6.255   1.485
 7722SOL     OW25004   4.197  12.527   2.106
 7722SOL    HW125005   4.141  12.540   2.029
 7722SOL    HW225006   4.195  12.611   2.152
 7723SOL     OW25007   3.565  12.299   1.499
 7723SOL    HW125008   3.648  12.345   1.512
 7723SOL    HW225009   3.502  12.349   1.550
 7724SOL     OW25010   8.983   1.029   1.864
 7724SOL    HW125011   9.026   1.022   1.778
 7724SOL    HW225012   8.922   0.955   1.866
 7725SOL     OW25013   8.204   5.683  12.653
 7725SOL    HW125014   8.194   5.619  12.582
 7725SOL    HW225015   8.254   5.755  12.614
 7726SOL     OW25016   7.194   6.640   1.777
 7726SOL    HW125017   7.177   6.734   1.780
 7726SOL    HW225018   7.209   6.621   1.684
 7727SOL     OW25019  14.163   8.871   0.528
 7727SOL    HW125020  14.239   8.924   0.548
 7727SOL    HW225021  14.160   8.867   0.432
 7728SOL     OW25022   2.440  12.291  11.562
 7728SOL    HW125023   2.383  12.350  11.612
 7728SOL    HW225024   2.405  12.204  11.580
 7729SOL     OW25025  11.630   2.591   7.726
 7729SOL    HW125026  11.539   2.617   7.738
 7729SOL    HW225027  11.635   2.560   7.636
 7730SOL     OW25028  11.001   9.541   5.082
 7730SOL    HW125029  11.032   9.590   5.006
 7730SOL    HW225030  11.078   9.531   5.138
 7731SOL     OW25031   0.668   2.623  13.187
 7731SOL    HW125032   0.687   2.628  13.093
 7731SOL    HW225033   0.573   2.628  13.193
 7732SOL     OW25034   0.859  14.136   9.981
 7732SOL    HW125035   0.898  14.176   9.903
 7732SOL    HW225036   0.867  14.042   9.966
 7733SOL     OW25037   6.455   2.402   3.380
 7733SOL    HW125038   6.479   2.406   3.473
 7733SOL    HW225039   6.360   2.400   3.381
 7734SOL     OW25040   5.633  14.183  13.125
 7734SOL    HW125041   5.570  14.239  13.170
 7734SOL    HW225042   5.705  14.242  13.103
 7735SOL     OW25043  12.324   4.365   2.669
 7735SOL    HW125044  12.229   4.353   2.661
 7735SOL    HW225045  12.338   4.457   2.645
 7736SOL     OW25046   2.149   0.277   3.098
 7736SOL    HW125047   2.077   0.250   3.042
 7736SOL    HW225048   2.166   0.368   3.073
 7737SOL     OW25049   0.378   3.264   4.045
 7737SOL    HW125050   0.381   3.262   4.140
 7737SOL    HW225051   0.374   3.173   4.018
 7738SOL     OW25052  13.844   2.145   6.381
 7738SOL    HW125053  13.797   2.223   6.352
 7738SOL    HW225054  13.776   2.081   6.401
 7739SOL     OW25055   8.951  12.830   3.681
 7739SOL    HW125056   8.930  12.922   3.696
 7739SOL    HW225057   8.934  12.816   3.588
 7740SOL     OW25058  13.182  14.253   6.067
 7740SOL    HW125059  13.200  14.208   5.984
 7740SOL    HW225060  13.114  14.317   6.045
 7741SOL     OW25061   6.272  12.717   0.194
 7741SOL    HW125062   6.272  12.646   0.130
 7741SOL    HW225063   6.254  12.796   0.142
 7742SOL     OW25064  11.712   8.627  12.748
 7742SOL    HW125065  11.638   8.681  12.722
 7742SOL    HW225066  11.675   8.562  12.808
 7743SOL     OW25067   8.886  12.000  10.679
 7743SOL    HW125068   8.817  11.996  10.745
 7743SOL    HW225069   8.880  11.915  10.634
 7744SOL     OW25070   6.389   1.848   0.428
 7744SOL    HW125071   6.435   1.929   0.449
 7744SOL    HW225072   6.298   1.875   0.413
 7745SOL     OW25073  12.418   6.766   6.295
 7745SOL    HW125074  12.373   6.826   6.235
 7745SOL    HW225075  12.392   6.679   6.266
 7746SOL     OW25076   2.477   0.471   3.442
 7746SOL    HW125077   2.545   0.498   3.503
 7746SOL    HW225078   2.395   0.485   3.490
 7747SOL     OW25079  11.930  12.082   8.872
 7747SOL    HW125080  11.941  11.987   8.877
 7747SOL    HW225081  11.836  12.096   8.875
 7748SOL     OW25082  14.489  12.738   6.981
 7748SOL    HW125083  14.533  12.672   6.928
 7748SOL    HW225084  14.503  12.820   6.934
 7749SOL     OW25085  12.016  14.517  10.154
 7749SOL    HW125086  12.060  14.482  10.077
 7749SOL    HW225087  12.036  14.611  10.152
 7750SOL     OW25088  11.371   2.077  10.569
 7750SOL    HW125089  11.278   2.101  10.568
 7750SOL    HW225090  11.413   2.144  10.515
 7751SOL     OW25091  14.146  14.063   3.800
 7751SOL    HW125092  14.100  14.146   3.795
 7751SOL    HW225093  14.128  14.031   3.889
 7752SOL     OW25094  13.805   8.784   1.535
 7752SOL    HW125095  13.853   8.864   1.511
 7752SOL    HW225096  13.874   8.720   1.553
 7753SOL     OW25097   4.436  12.285   6.859
 7753SOL    HW125098   4.417  12.371   6.820
 7753SOL    HW225099   4.407  12.222   6.792
 7754SOL     OW25100   0.962   8.318  14.051
 7754SOL    HW125101   1.001   8.253  14.110
 7754SOL    HW225102   1.036   8.372  14.023
 7755SOL     OW25103  14.805   9.065  10.491
 7755SOL    HW125104  14.821   9.121  10.566
 7755SOL    HW225105  14.711   9.045  10.496
 7756SOL     OW25106  14.488  11.534  14.818
 7756SOL    HW125107  14.581  11.556  14.829
 7756SOL    HW225108  14.464  11.570  14.733
 7757SOL     OW25109   6.437  10.896   1.606
 7757SOL    HW125110   6.350  10.872   1.637
 7757SOL    HW225111   6.486  10.914   1.686
 7758SOL     OW25112   9.024  10.596   0.020
 7758SOL    HW125113   9.074  10.672   0.049
 7758SOL    HW225114   9.083  10.549  14.840
 7759SOL     OW25115  13.437   1.278   9.011
 7759SOL    HW125116  13.409   1.254   8.922
 7759SOL    HW225117  13.514   1.333   8.997
 7760SOL     OW25118  11.387   8.427   2.331
 7760SOL    HW125119  11.305   8.389   2.299
 7760SOL    HW225120  11.371   8.446   2.423
 7761SOL     OW25121  10.276   5.410  12.276
 7761SOL    HW125122  10.213   5.475  12.307
 7761SOL    HW225123  10.276   5.342  12.343
 7762SOL     OW25124   3.388  11.901   5.862
 7762SOL    HW125125   3.482  11.888   5.854
 7762SOL    HW225126   3.377  11.996   5.854
 7763SOL     OW25127   6.146  11.980   0.696
 7763SOL    HW125128   6.090  12.008   0.769
 7763SOL    HW225129   6.102  11.904   0.659
 7764SOL     OW25130  12.775   4.075   2.111
 7764SOL    HW125131  12.805   4.004   2.167
 7764SOL    HW225132  12.740   4.031   2.033
 7765SOL     OW25133   0.122  12.592  14.542
 7765SOL    HW125134   0.183  12.582  14.468
 7765SOL    HW225135   0.086  12.504  14.555
 7766SOL     OW25136   7.037   0.164   8.213
 7766SOL    HW125137   6.985   0.240   8.188
 7766SOL    HW225138   6.995   0.130   8.291
 7767SOL     OW25139  11.049  11.105   1.454
 7767SOL    HW125140  11.070  11.145   1.539
 7767SOL    HW225141  11.067  11.012   1.467
 7768SOL     OW25142  10.824   2.392  10.247
 7768SOL    HW125143  10.890   2.448  10.287
 7768SOL    HW225144  10.761   2.453  10.209
 7769SOL     OW25145  14.379   2.086   1.467
 7769SOL    HW125146  14.354   1.993   1.471
 7769SOL    HW225147  14.475   2.084   1.464
 7770SOL     OW25148   2.279  10.071  13.247
 7770SOL    HW125149   2.227  10.004  13.291
 7770SOL    HW225150   2.260  10.152  13.295
 7771SOL     OW25151  13.039   9.334   8.116
 7771SOL    HW125152  13.070   9.312   8.203
 7771SOL    HW225153  13.060   9.427   8.106
 7772SOL     OW25154  11.195  11.398   9.742
 7772SOL    HW125155  11.115  11.348   9.727
 7772SOL    HW225156  11.166  11.478   9.787
 7773SOL     OW25157   0.885  11.350   4.862
 7773SOL    HW125158   0.915  11.441   4.870
 7773SOL    HW225159   0.950  11.299   4.909
 7774SOL     OW25160  14.011   7.873   9.988
 7774SOL    HW125161  13.946   7.829  10.043
 7774SOL    HW225162  14.095   7.838  10.018
 7775SOL     OW25163   7.503  10.558   9.490
 7775SOL    HW125164   7.485  10.532   9.399
 7775SOL    HW225165   7.485  10.652   9.492
 7776SOL     OW25166   4.380   6.915  13.194
 7776SOL    HW125167   4.366   6.821  13.183
 7776SOL    HW225168   4.327   6.955  13.126
 7777SOL     OW25169   3.004   8.688   9.540
 7777SOL    HW125170   2.947   8.752   9.498
 7777SOL    HW225171   3.092   8.714   9.512
 7778SOL     OW25172   5.514   0.974   2.243
 7778SOL    HW125173   5.461   1.019   2.178
 7778SOL    HW225174   5.457   0.967   2.320
 7779SOL     OW25175   7.262   0.237   2.915
 7779SOL    HW125176   7.249   0.147   2.945
 7779SOL    HW225177   7.264   0.288   2.996
 7780SOL     OW25178  12.657  12.051   4.242
 7780SOL    HW125179  12.714  11.976   4.228
 7780SOL    HW225180  12.672  12.107   4.166
 7781SOL     OW25181   7.676   6.182   2.727
 7781SOL    HW125182   7.708   6.255   2.673
 7781SOL    HW225183   7.707   6.202   2.815
 7782SOL     OW25184   2.852   9.490   6.951
 7782SOL    HW125185   2.935   9.449   6.978
 7782SOL    HW225186   2.839   9.561   7.015
 7783SOL     OW25187   4.407  14.716  12.333
 7783SOL    HW125188   4.417  14.810  12.316
 7783SOL    HW225189   4.496  14.682  12.338
 7784SOL     OW25190   9.340   8.205  11.577
 7784SOL    HW125191   9.407   8.224  11.512
 7784SOL    HW225192   9.318   8.290  11.615
 7785SOL     OW25193   7.645   1.924   1.199
 7785SOL    HW125194   7.581   1.995   1.207
 7785SOL    HW225195   7.725   1.960   1.237
 7786SOL     OW25196   9.579  13.761  13.605
 7786SOL    HW125197   9.498  13.768  13.656
 7786SOL    HW225198   9.586  13.845  13.560
 7787SOL     OW25199   0.610  12.646   3.223
 7787SOL    HW125200   0.518  12.675   3.229
 7787SOL    HW225201   0.660  12.719   3.260
 7788SOL     OW25202   7.395  10.673  12.124
 7788SOL    HW125203   7.423  10.677  12.032
 7788SOL    HW225204   7.457  10.730  12.170
 7789SOL     OW25205   3.210  13.579   4.749
 7789SOL    HW125206   3.237  13.667   4.777
 7789SOL    HW225207   3.167  13.593   4.665
 7790SOL     OW25208   9.835   9.143   9.958
 7790SOL    HW125209   9.929   9.157   9.953
 7790SOL    HW225210   9.823   9.049   9.945
 7791SOL     OW25211   1.895   9.902   8.482
 7791SOL    HW125212   1.889   9.983   8.534
 7791SOL    HW225213   1.988   9.878   8.487
 7792SOL     OW25214  10.976   9.840   3.093
 7792SOL    HW125215  10.973   9.904   3.164
 7792SOL    HW225216  10.891   9.846   3.051
 7793SOL     OW25217   8.346   4.005  13.689
 7793SOL    HW125218   8.309   4.075  13.744
 7793SOL    HW225219   8.436   4.032  13.672
 7794SOL     OW25220  11.058  10.665   6.644
 7794SOL    HW125221  11.021  10.752   6.629
 7794SOL    HW225222  10.997  10.623   6.705
 7795SOL     OW25223  11.632   8.495  11.272
 7795SOL    HW125224  11.657   8.583  11.301
 7795SOL    HW225225  11.537   8.492  11.284
 7796SOL     OW25226   4.510   0.580   4.871
 7796SOL    HW125227   4.519   0.487   4.892
 7796SOL    HW225228   4.475   0.580   4.782
 7797SOL     OW25229   6.139   1.740  13.630
 7797SOL    HW125230   6.092   1.703  13.705
 7797SOL    HW225231   6.157   1.830  13.656
 7798SOL     OW25232   8.163   6.924   8.857
 7798SOL    HW125233   8.187   6.896   8.945
 7798SOL    HW225234   8.083   6.876   8.837
 7799SOL     OW25235   2.099  13.242  11.305
 7799SOL    HW125236   2.081  13.309  11.371
 7799SOL    HW225237   2.024  13.245  11.246
 7800SOL     OW25238  11.253   8.420   9.935
 7800SOL    HW125239  11.162   8.444   9.918
 7800SOL    HW225240  11.304   8.467   9.868
 7801SOL     OW25241   8.949   6.953  11.402
 7801SOL    HW125242   8.922   7.029  11.454
 7801SOL    HW225243   8.968   6.990  11.315
 7802SOL     OW25244  14.110   3.678   7.584
 7802SOL    HW125245  14.088   3.745   7.520
 7802SOL    HW225246  14.182   3.716   7.635
 7803SOL     OW25247   2.519   0.669   7.564
 7803SOL    HW125248   2.446   0.708   7.613
 7803SOL    HW225249   2.520   0.716   7.481
 7804SOL     OW25250   9.902   0.499   7.889
 7804SOL    HW125251   9.992   0.525   7.910
 7804SOL    HW225252   9.907   0.403   7.884
 7805SOL     OW25253   2.319   0.122   5.582
 7805SOL    HW125254   2.343   0.167   5.501
 7805SOL    HW225255   2.362   0.037   5.576
 7806SOL     OW25256   6.837   2.688   4.065
 7806SOL    HW125257   6.774   2.755   4.039
 7806SOL    HW225258   6.815   2.612   4.010
 7807SOL     OW25259   9.133  10.010   3.439
 7807SOL    HW125260   9.039  10.027   3.454
 7807SOL    HW225261   9.135   9.934   3.382
 7808SOL     OW25262  14.359  11.231  10.984
 7808SOL    HW125263  14.313  11.150  11.005
 7808SOL    HW225264  14.345  11.287  11.061
 7809SOL     OW25265   5.879   4.328   4.091
 7809SOL    HW125266   5.862   4.313   3.998
 7809SOL    HW225267   5.818   4.270   4.136
 7810SOL     OW25268   9.256   1.684  10.367
 7810SOL    HW125269   9.197   1.624  10.412
 7810SOL    HW225270   9.200   1.731  10.306
 7811SOL     OW25271  12.395   9.685  13.640
 7811SOL    HW125272  12.478   9.731  13.629
 7811SOL    HW225273  12.418   9.605  13.688
 7812SOL     OW25274   9.581   3.889   2.098
 7812SOL    HW125275   9.532   3.935   2.166
 7812SOL    HW225276   9.659   3.855   2.144
 7813SOL     OW25277  10.506  10.448   7.559
 7813SOL    HW125278  10.465  10.363   7.578
 7813SOL    HW225279  10.495  10.459   7.465
 7814SOL     OW25280  12.477  12.415   3.235
 7814SOL    HW125281  12.462  12.430   3.142
 7814SOL    HW225282  12.539  12.482   3.261
 7815SOL     OW25283   5.200   4.631   4.183
 7815SOL    HW125284   5.210   4.537   4.199
 7815SOL    HW225285   5.286   4.668   4.202
 7816SOL     OW25286  10.645   6.305  10.092
 7816SOL    HW125287  10.662   6.218  10.128
 7816SOL    HW225288  10.643   6.293   9.997
 7817SOL     OW25289   1.500   5.328  11.651
 7817SOL    HW125290   1.460   5.409  11.683
 7817SOL    HW225291   1.455   5.310  11.568
 7818SOL     OW25292  11.890  10.261   2.594
 7818SOL    HW125293  11.921  10.254   2.503
 7818SOL    HW225294  11.816  10.321   2.589
 7819SOL     OW25295   0.177  11.852   7.656
 7819SOL    HW125296   0.259  11.805   7.668
 7819SOL    HW225297   0.117  11.812   7.719
 7820SOL     OW25298   9.925   3.226   3.825
 7820SOL    HW125299   9.893   3.171   3.753
 7820SOL    HW225300   9.937   3.165   3.898
 7821SOL     OW25301  14.323   8.327   7.125
 7821SOL    HW125302  14.298   8.262   7.060
 7821SOL    HW225303  14.276   8.406   7.098
 7822SOL     OW25304  13.500   8.160   9.014
 7822SOL    HW125305  13.547   8.077   9.011
 7822SOL    HW225306  13.485   8.183   8.922
 7823SOL     OW25307   5.055   7.234   8.825
 7823SOL    HW125308   5.143   7.252   8.860
 7823SOL    HW225309   5.048   7.291   8.749
 7824SOL     OW25310   7.952   0.172   6.573
 7824SOL    HW125311   7.984   0.146   6.659
 7824SOL    HW225312   8.010   0.243   6.546
 7825SOL     OW25313   1.703   5.270   4.133
 7825SOL    HW125314   1.764   5.246   4.063
 7825SOL    HW225315   1.661   5.188   4.157
 7826SOL     OW25316   6.145   1.751   0.698
 7826SOL    HW125317   6.146   1.737   0.604
 7826SOL    HW225318   6.146   1.663   0.736
 7827SOL     OW25319   5.481  11.800  11.115
 7827SOL    HW125320   5.412  11.743  11.080
 7827SOL    HW225321   5.560  11.747  11.113
 7828SOL     OW25322  12.260   6.875  12.083
 7828SOL    HW125323  12.317   6.814  12.130
 7828SOL    HW225324  12.321   6.936  12.040
 7829SOL     OW25325  12.698   8.939  11.324
 7829SOL    HW125326  12.738   9.022  11.299
 7829SOL    HW225327  12.606   8.947  11.298
 7830SOL     OW25328   5.768  10.420   0.807
 7830SOL    HW125329   5.675  10.403   0.791
 7830SOL    HW225330   5.800  10.459   0.726
 7831SOL     OW25331  13.115  14.394   9.025
 7831SOL    HW125332  13.209  14.388   9.038
 7831SOL    HW225333  13.101  14.366   8.935
 7832SOL     OW25334  13.822  10.494  11.868
 7832SOL    HW125335  13.881  10.569  11.859
 7832SOL    HW225336  13.735  10.531  11.854
 7833SOL     OW25337   4.543   3.272   1.662
 7833SOL    HW125338   4.493   3.236   1.589
 7833SOL    HW225339   4.546   3.200   1.726
 7834SOL     OW25340   6.736   1.851   7.427
 7834SOL    HW125341   6.642   1.840   7.412
 7834SOL    HW225342   6.767   1.897   7.349
 7835SOL     OW25343   1.969  13.265   9.588
 7835SOL    HW125344   2.006  13.300   9.508
 7835SOL    HW225345   1.978  13.336   9.652
 7836SOL     OW25346   5.897   7.013  12.933
 7836SOL    HW125347   5.971   6.997  12.992
 7836SOL    HW225348   5.885   7.108  12.936
 7837SOL     OW25349   7.449   3.987   2.486
 7837SOL    HW125350   7.510   3.914   2.474
 7837SOL    HW225351   7.368   3.958   2.444
 7838SOL     OW25352   3.124   0.382  10.018
 7838SOL    HW125353   3.147   0.474  10.006
 7838SOL    HW225354   3.032   0.385  10.046
 7839SOL     OW25355   5.476   7.830   6.457
 7839SOL    HW125356   5.429   7.767   6.511
 7839SOL    HW225357   5.558   7.845   6.504
 7840SOL     OW25358  13.676   2.085  14.650
 7840SOL    HW125359  13.654   2.167  14.693
 7840SOL    HW225360  13.770   2.093  14.631
 7841SOL     OW25361  14.509   6.032   6.234
 7841SOL    HW125362  14.524   6.089   6.158
 7841SOL    HW225363  14.449   6.082   6.289
 7842SOL     OW25364   1.056   0.629  11.849
 7842SOL    HW125365   1.120   0.689  11.811
 7842SOL    HW225366   1.063   0.550  11.796
 7843SOL     OW25367   3.645  10.716  12.948
 7843SOL    HW125368   3.647  10.622  12.970
 7843SOL    HW225369   3.673  10.760  13.028
 7844SOL     OW25370   5.025   5.975  13.607
 7844SOL    HW125371   4.939   5.983  13.649
 7844SOL    HW225372   5.024   5.887  13.568
 7845SOL     OW25373   0.027  14.466   8.706
 7845SOL    HW125374   0.087  14.501   8.641
 7845SOL    HW225375   0.082  14.448   8.782
 7846SOL     OW25376   6.179  10.164   7.493
 7846SOL    HW125377   6.097  10.199   7.526
 7846SOL    HW225378   6.190  10.207   7.408
 7847SOL     OW25379  10.126  11.317   1.212
 7847SOL    HW125380  10.123  11.254   1.284
 7847SOL    HW225381  10.143  11.264   1.134
 7848SOL     OW25382   5.144   5.290  12.814
 7848SOL    HW125383   5.052   5.274  12.794
 7848SOL    HW225384   5.149   5.289  12.910
 7849SOL     OW25385  13.751  12.657   7.848
 7849SOL    HW125386  13.802  12.620   7.920
 7849SOL    HW225387  13.767  12.751   7.854
 7850SOL     OW25388   7.230   7.275   0.031
 7850SOL    HW125389   7.242   7.352   0.086
 7850SOL    HW225390   7.318   7.241   0.018
 7851SOL     OW25391   0.042   4.171  11.997
 7851SOL    HW125392   0.059   4.245  12.056
 7851SOL    HW225393   0.045   4.094  12.053
 7852SOL     OW25394   9.596  14.615   8.512
 7852SOL    HW125395   9.659  14.655   8.572
 7852SOL    HW225396   9.645  14.545   8.470
 7853SOL     OW25397   8.244  13.842  14.714
 7853SOL    HW125398   8.259  13.786  14.637
 7853SOL    HW225399   8.197  13.786  14.776
 7854SOL     OW25400   2.680   3.244   9.793
 7854SOL    HW125401   2.689   3.333   9.826
 7854SOL    HW225402   2.734   3.241   9.715
 7855SOL     OW25403   7.210  11.554  14.770
 7855SOL    HW125404   7.150  11.485  14.798
 7855SOL    HW225405   7.234  11.599  14.851
 7856SOL     OW25406  14.067   9.182  11.787
 7856SOL    HW125407  14.024   9.209  11.706
 7856SOL    HW225408  14.020   9.228  11.856
 7857SOL     OW25409  11.508   6.989   2.024
 7857SOL    HW125410  11.491   6.932   1.949
 7857SOL    HW225411  11.440   6.966   2.088
 7858SOL     OW25412   3.845   4.673   8.721
 7858SOL    HW125413   3.909   4.603   8.738
 7858SOL    HW225414   3.764   4.627   8.700
 7859SOL     OW25415   9.620  10.768   0.359
 7859SOL    HW125416   9.668  10.772   0.442
 7859SOL    HW225417   9.682  10.802   0.294
 7860SOL     OW25418  12.730  11.418   1.034
 7860SOL    HW125419  12.762  11.499   1.075
 7860SOL    HW225420  12.791  11.350   1.063
 7861SOL     OW25421   6.985  12.011   4.181
 7861SOL    HW125422   7.038  11.976   4.252
 7861SOL    HW225423   6.954  11.934   4.133
 7862SOL     OW25424  13.492   4.069   0.444
 7862SOL    HW125425  13.473   4.045   0.535
 7862SOL    HW225426  13.470   3.991   0.393
 7863SOL     OW25427  12.745   7.977   9.259
 7863SOL    HW125428  12.712   7.930   9.336
 7863SOL    HW225429  12.831   8.008   9.285
 7864SOL     OW25430   1.335   7.792   6.935
 7864SOL    HW125431   1.291   7.876   6.924
 7864SOL    HW225432   1.377   7.776   6.851
 7865SOL     OW25433  13.989   4.908  12.467
 7865SOL    HW125434  13.965   4.815  12.468
 7865SOL    HW225435  14.028   4.921  12.381
 7866SOL     OW25436   5.015   3.694   5.280
 7866SOL    HW125437   5.044   3.618   5.331
 7866SOL    HW225438   4.989   3.658   5.195
 7867SOL     OW25439  12.879  12.754  14.347
 7867SOL    HW125440  12.891  12.814  14.274
 7867SOL    HW225441  12.905  12.669  14.313
 7868SOL     OW25442   1.334   3.518   7.705
 7868SOL    HW125443   1.360   3.589   7.645
 7868SOL    HW225444   1.286   3.456   7.650
 7869SOL     OW25445   6.160   0.570   0.418
 7869SOL    HW125446   6.146   0.498   0.479
 7869SOL    HW225447   6.247   0.555   0.382
 7870SOL     OW25448   1.301   8.870   8.666
 7870SOL    HW125449   1.358   8.879   8.743
 7870SOL    HW225450   1.349   8.913   8.596
 7871SOL     OW25451  10.485   5.961   2.554
 7871SOL    HW125452  10.473   6.056   2.546
 7871SOL    HW225453  10.574   5.951   2.590
 7872SOL     OW25454   5.801   6.323   1.848
 7872SOL    HW125455   5.830   6.249   1.794
 7872SOL    HW225456   5.706   6.327   1.833
 7873SOL     OW25457  13.185   0.145   2.220
 7873SOL    HW125458  13.151   0.234   2.219
 7873SOL    HW225459  13.109   0.090   2.201
 7874SOL     OW25460   5.787   7.662   3.852
 7874SOL    HW125461   5.703   7.621   3.834
 7874SOL    HW225462   5.778   7.751   3.817
 7875SOL     OW25463   1.262   6.155   9.781
 7875SOL    HW125464   1.316   6.220   9.827
 7875SOL    HW225465   1.178   6.199   9.767
 7876SOL     OW25466  13.195   6.847   3.048
 7876SOL    HW125467  13.115   6.872   3.094
 7876SOL    HW225468  13.165   6.808   2.966
 7877SOL     OW25469   1.023  12.144   0.338
 7877SOL    HW125470   1.072  12.214   0.381
 7877SOL    HW225471   0.944  12.187   0.305
 7878SOL     OW25472   3.555   8.029   8.872
 7878SOL    HW125473   3.621   8.048   8.805
 7878SOL    HW225474   3.474   8.065   8.837
 7879SOL     OW25475   2.538   2.681   9.769
 7879SOL    HW125476   2.512   2.673   9.678
 7879SOL    HW225477   2.609   2.745   9.768
 7880SOL     OW25478   1.607   1.511  13.612
 7880SOL    HW125479   1.522   1.467  13.622
 7880SOL    HW225480   1.668   1.457  13.663
 7881SOL     OW25481  13.582   1.914  14.865
 7881SOL    HW125482  13.613   1.931  14.776
 7881SOL    HW225483  13.491   1.886  14.854
 7882SOL     OW25484  11.105   4.070  11.930
 7882SOL    HW125485  11.191   4.111  11.933
 7882SOL    HW225486  11.115   3.988  11.977
 7883SOL     OW25487  10.682   0.094  13.951
 7883SOL    HW125488  10.693   0.114  13.858
 7883SOL    HW225489  10.704   0.001  13.959
 7884SOL     OW25490   2.944   9.921   4.061
 7884SOL    HW125491   2.926   9.977   3.986
 7884SOL    HW225492   2.879   9.852   4.057
 7885SOL     OW25493   2.883   1.980  14.755
 7885SOL    HW125494   2.849   2.064  14.726
 7885SOL    HW225495   2.870   1.979  14.849
 7886SOL     OW25496  12.197  14.673   0.751
 7886SOL    HW125497  12.247  14.596   0.777
 7886SOL    HW225498  12.112  14.638   0.725
 7887SOL     OW25499  10.659   0.571   8.031
 7887SOL    HW125500  10.653   0.517   8.110
 7887SOL    HW225501  10.592   0.638   8.042
 7888SOL     OW25502   2.984   8.330  14.752
 7888SOL    HW125503   3.005   8.322  14.659
 7888SOL    HW225504   3.066   8.309  14.797
 7889SOL     OW25505   9.742   9.199   8.177
 7889SOL    HW125506   9.713   9.173   8.264
 7889SOL    HW225507   9.816   9.141   8.158
 7890SOL     OW25508   4.043  13.305  11.528
 7890SOL    HW125509   4.133  13.328  11.549
 7890SOL    HW225510   4.020  13.238  11.592
 7891SOL     OW25511   5.950  13.719  12.691
 7891SOL    HW125512   6.014  13.767  12.744
 7891SOL    HW225513   5.910  13.785  12.635
 7892SOL     OW25514   9.272  13.186  11.060
 7892SOL    HW125515   9.229  13.241  10.994
 7892SOL    HW225516   9.248  13.226  11.144
 7893SOL     OW25517   7.903   1.760   7.172
 7893SOL    HW125518   7.816   1.771   7.210
 7893SOL    HW225519   7.930   1.848   7.148
 7894SOL     OW25520  11.519   9.901   4.508
 7894SOL    HW125521  11.460   9.974   4.489
 7894SOL    HW225522  11.462   9.831   4.540
 7895SOL     OW25523   9.744   3.606   0.879
 7895SOL    HW125524   9.683   3.558   0.934
 7895SOL    HW225525   9.705   3.603   0.792
 7896SOL     OW25526  13.232   1.914   3.772
 7896SOL    HW125527  13.221   1.867   3.855
 7896SOL    HW225528  13.159   1.976   3.770
 7897SOL     OW25529   7.904   7.939   8.438
 7897SOL    HW125530   7.871   8.009   8.493
 7897SOL    HW225531   7.977   7.901   8.488
 7898SOL     OW25532  10.799  10.838  10.406
 7898SOL    HW125533  10.799  10.870  10.496
 7898SOL    HW225534  10.777  10.745  10.413
 7899SOL     OW25535   9.540   3.742  13.648
 7899SOL    HW125536   9.476   3.690  13.697
 7899SOL    HW225537   9.534   3.830  13.686
 7900SOL     OW25538   7.274  14.252   2.442
 7900SOL    HW125539   7.226  14.171   2.423
 7900SOL    HW225540   7.251  14.272   2.533
 7901SOL     OW25541   4.622   3.083   0.636
 7901SOL    HW125542   4.677   3.113   0.563
 7901SOL    HW225543   4.592   2.997   0.607
 7902SOL     OW25544   4.410   0.517   7.239
 7902SOL    HW125545   4.394   0.472   7.322
 7902SOL    HW225546   4.391   0.609   7.257
 7903SOL     OW25547  10.243  11.712   7.846
 7903SOL    HW125548  10.248  11.760   7.764
 7903SOL    HW225549  10.152  11.721   7.875
 7904SOL     OW25550   8.066  13.801  13.142
 7904SOL    HW125551   8.111  13.814  13.225
 7904SOL    HW225552   8.053  13.889  13.106
 7905SOL     OW25553   2.319  13.366  10.788
 7905SOL    HW125554   2.361  13.365  10.702
 7905SOL    HW225555   2.360  13.439  10.834
 7906SOL     OW25556   6.825   2.523  13.607
 7906SOL    HW125557   6.905   2.476  13.585
 7906SOL    HW225558   6.831   2.539  13.701
 7907SOL     OW25559   3.082   6.952   5.046
 7907SOL    HW125560   3.161   6.900   5.061
 7907SOL    HW225561   3.021   6.923   5.114
 7908SOL     OW25562   6.760   8.293   5.242
 7908SOL    HW125563   6.755   8.354   5.316
 7908SOL    HW225564   6.767   8.349   5.165
 7909SOL     OW25565   9.181  12.990   7.507
 7909SOL    HW125566   9.147  13.060   7.563
 7909SOL    HW225567   9.102  12.944   7.477
 7910SOL     OW25568   8.862   3.570   3.054
 7910SOL    HW125569   8.769   3.577   3.030
 7910SOL    HW225570   8.880   3.650   3.103
 7911SOL     OW25571   3.085  10.527   4.424
 7911SOL    HW125572   3.038  10.496   4.346
 7911SOL    HW225573   3.028  10.593   4.462
 7912SOL     OW25574  10.310  11.343   2.095
 7912SOL    HW125575  10.216  11.342   2.077
 7912SOL    HW225576  10.347  11.395   2.024
 7913SOL     OW25577   8.922  12.529   2.953
 7913SOL    HW125578   8.838  12.562   2.921
 7913SOL    HW225579   8.917  12.538   3.049
 7914SOL     OW25580   2.895   2.064   1.989
 7914SOL    HW125581   2.841   2.072   1.910
 7914SOL    HW225582   2.966   2.126   1.975
 7915SOL     OW25583  10.656  11.752   6.892
 7915SOL    HW125584  10.730  11.812   6.879
 7915SOL    HW225585  10.629  11.728   6.803
 7916SOL     OW25586  14.436   1.431   2.296
 7916SOL    HW125587  14.428   1.455   2.204
 7916SOL    HW225588  14.455   1.514   2.341
 7917SOL     OW25589   6.452  13.304   5.980
 7917SOL    HW125590   6.390  13.376   5.977
 7917SOL    HW225591   6.408  13.237   6.032
 7918SOL     OW25592   5.752   6.803  12.817
 7918SOL    HW125593   5.819   6.736  12.832
 7918SOL    HW225594   5.787   6.882  12.858
 7919SOL     OW25595   0.855   1.104   7.921
 7919SOL    HW125596   0.872   1.040   7.990
 7919SOL    HW225597   0.918   1.173   7.937
 7920SOL     OW25598   9.226  11.927  13.118
 7920SOL    HW125599   9.132  11.942  13.108
 7920SOL    HW225600   9.265  12.014  13.107
 7921SOL     OW25601   9.093   0.374   9.238
 7921SOL    HW125602   9.077   0.448   9.297
 7921SOL    HW225603   9.095   0.412   9.151
 7922SOL     OW25604   2.101   6.211   7.902
 7922SOL    HW125605   2.157   6.172   7.835
 7922SOL    HW225606   2.131   6.301   7.909
 7923SOL     OW25607   3.713   5.216   0.474
 7923SOL    HW125608   3.756   5.141   0.432
 7923SOL    HW225609   3.785   5.263   0.517
 7924SOL     OW25610   7.687  12.473  11.543
 7924SOL    HW125611   7.655  12.528  11.471
 7924SOL    HW225612   7.623  12.485  11.613
 7925SOL     OW25613  10.726   8.832   8.859
 7925SOL    HW125614  10.694   8.828   8.769
 7925SOL    HW225615  10.746   8.741   8.882
 7926SOL     OW25616   2.756  12.598   7.467
 7926SOL    HW125617   2.675  12.637   7.434
 7926SOL    HW225618   2.812  12.588   7.390
 7927SOL     OW25619   0.989   7.378  11.638
 7927SOL    HW125620   1.021   7.406  11.724
 7927SOL    HW225621   1.066   7.383  11.581
 7928SOL     OW25622  13.034   3.057  14.483
 7928SOL    HW125623  13.077   3.123  14.427
 7928SOL    HW225624  13.098   3.037  14.550
 7929SOL     OW25625  10.856   8.758  14.032
 7929SOL    HW125626  10.764   8.783  14.027
 7929SOL    HW225627  10.858   8.668  13.999
 7930SOL     OW25628  14.643   7.730   7.310
 7930SOL    HW125629  14.595   7.813   7.313
 7930SOL    HW225630  14.592   7.675   7.251
 7931SOL     OW25631  10.092  13.806  13.764
 7931SOL    HW125632  10.153  13.800  13.838
 7931SOL    HW225633  10.083  13.716  13.733
 7932SOL     OW25634  12.304   7.630  13.704
 7932SOL    HW125635  12.397   7.610  13.707
 7932SOL    HW225636  12.274   7.619  13.794
 7933SOL     OW25637   6.614  11.929  14.494
 7933SOL    HW125638   6.582  12.017  14.515
 7933SOL    HW225639   6.589  11.876  14.569
 7934SOL     OW25640   5.004  12.440   8.669
 7934SOL    HW125641   4.926  12.496   8.672
 7934SOL    HW225642   5.039  12.443   8.758
 7935SOL     OW25643   6.710   5.592   5.865
 7935SOL    HW125644   6.775   5.622   5.802
 7935SOL    HW225645   6.634   5.568   5.811
 7936SOL     OW25646  13.068  10.324  14.353
 7936SOL    HW125647  13.164  10.330  14.349
 7936SOL    HW225648  13.042  10.396  14.410
 7937SOL     OW25649   9.838   8.021  13.706
 7937SOL    HW125650   9.779   7.946  13.705
 7937SOL    HW225651   9.788   8.091  13.747
 7938SOL     OW25652   6.614   5.354   0.247
 7938SOL    HW125653   6.592   5.310   0.330
 7938SOL    HW225654   6.700   5.320   0.223
 7939SOL     OW25655  13.683   6.315  10.172
 7939SOL    HW125656  13.746   6.331  10.102
 7939SOL    HW225657  13.711   6.233  10.212
 7940SOL     OW25658   7.225   7.775   6.997
 7940SOL    HW125659   7.294   7.808   7.055
 7940SOL    HW225660   7.238   7.821   6.915
 7941SOL     OW25661  13.706  14.533   7.051
 7941SOL    HW125662  13.779  14.522   6.990
 7941SOL    HW225663  13.742  14.585   7.123
 7942SOL     OW25664   0.883  13.656   4.185
 7942SOL    HW125665   0.923  13.641   4.099
 7942SOL    HW225666   0.875  13.568   4.222
 7943SOL     OW25667   6.299   1.848   6.420
 7943SOL    HW125668   6.212   1.836   6.458
 7943SOL    HW225669   6.300   1.940   6.391
 7944SOL     OW25670   2.191   1.557   8.908
 7944SOL    HW125671   2.098   1.568   8.931
 7944SOL    HW225672   2.227   1.646   8.912
 7945SOL     OW25673   6.064   2.086   1.432
 7945SOL    HW125674   5.980   2.102   1.477
 7945SOL    HW225675   6.117   2.040   1.497
 7946SOL     OW25676   5.630  13.244   9.540
 7946SOL    HW125677   5.704  13.303   9.530
 7946SOL    HW225678   5.581  13.279   9.614
 7947SOL     OW25679  13.204   6.256  10.558
 7947SOL    HW125680  13.232   6.327  10.500
 7947SOL    HW225681  13.160   6.300  10.631
 7948SOL     OW25682  14.395  13.228   5.887
 7948SOL    HW125683  14.393  13.148   5.835
 7948SOL    HW225684  14.456  13.285   5.840
 7949SOL     OW25685  12.829   2.702   6.806
 7949SOL    HW125686  12.786   2.786   6.792
 7949SOL    HW225687  12.880   2.688   6.726
 7950SOL     OW25688   3.115   8.966   6.083
 7950SOL    HW125689   3.158   8.896   6.033
 7950SOL    HW225690   3.128   9.044   6.030
 7951SOL     OW25691   6.344  13.067   6.044
 7951SOL    HW125692   6.265  13.020   6.073
 7951SOL    HW225693   6.405  12.998   6.018
 7952SOL     OW25694  14.754   3.809   1.937
 7952SOL    HW125695  14.826   3.817   2.000
 7952SOL    HW225696  14.721   3.898   1.926
 7953SOL     OW25697   4.443   3.905  12.430
 7953SOL    HW125698   4.350   3.922  12.414
 7953SOL    HW225699   4.467   3.970  12.496
 7954SOL     OW25700  14.760   0.463   3.654
 7954SOL    HW125701  14.763   0.554   3.685
 7954SOL    HW225702  14.691   0.461   3.589
 7955SOL     OW25703   0.818   2.142   8.915
 7955SOL    HW125704   0.911   2.159   8.900
 7955SOL    HW225705   0.785   2.114   8.829
 7956SOL     OW25706   4.417   5.763   4.998
 7956SOL    HW125707   4.463   5.822   5.057
 7956SOL    HW225708   4.365   5.820   4.942
 7957SOL     OW25709  12.242  10.708   0.584
 7957SOL    HW125710  12.307  10.778   0.576
 7957SOL    HW225711  12.293  10.632   0.612
 7958SOL     OW25712   6.489   6.437   3.458
 7958SOL    HW125713   6.450   6.515   3.496
 7958SOL    HW225714   6.442   6.364   3.499
 7959SOL     OW25715   0.137  12.507  13.896
 7959SOL    HW125716   0.155  12.562  13.821
 7959SOL    HW225717   0.221  12.501  13.943
 7960SOL     OW25718   5.877   6.159   6.744
 7960SOL    HW125719   5.881   6.071   6.706
 7960SOL    HW225720   5.792   6.194   6.716
 7961SOL     OW25721  14.621   6.926   3.372
 7961SOL    HW125722  14.695   6.891   3.420
 7961SOL    HW225723  14.582   6.850   3.329
 7962SOL     OW25724   7.522   9.813  11.585
 7962SOL    HW125725   7.471   9.770  11.654
 7962SOL    HW225726   7.470   9.890  11.561
 7963SOL     OW25727  10.447   0.954   5.332
 7963SOL    HW125728  10.539   0.954   5.359
 7963SOL    HW225729  10.426   0.862   5.320
 7964SOL     OW25730  13.835   7.294   5.486
 7964SOL    HW125731  13.827   7.222   5.424
 7964SOL    HW225732  13.806   7.371   5.436
 7965SOL     OW25733   1.215   1.234   7.624
 7965SOL    HW125734   1.144   1.291   7.652
 7965SOL    HW225735   1.189   1.147   7.653
 7966SOL     OW25736  10.635  12.306   5.402
 7966SOL    HW125737  10.546  12.290   5.368
 7966SOL    HW225738  10.638  12.258   5.485
 7967SOL     OW25739   1.099  10.550   5.927
 7967SOL    HW125740   1.074  10.486   5.994
 7967SOL    HW225741   1.054  10.631   5.952
 7968SOL     OW25742   5.727   9.217  13.494
 7968SOL    HW125743   5.708   9.217  13.588
 7968SOL    HW225744   5.811   9.171  13.487
 7969SOL     OW25745   1.542   8.912  13.023
 7969SOL    HW125746   1.527   8.832  12.972
 7969SOL    HW225747   1.637   8.921  13.025
 7970SOL     OW25748   7.582  12.104   4.860
 7970SOL    HW125749   7.572  12.189   4.903
 7970SOL    HW225750   7.595  12.042   4.931
 7971SOL     OW25751  13.647   5.165   1.395
 7971SOL    HW125752  13.737   5.137   1.413
 7971SOL    HW225753  13.596   5.084   1.398
 7972SOL     OW25754   8.138  13.157   5.229
 7972SOL    HW125755   8.140  13.067   5.261
 7972SOL    HW225756   8.227  13.175   5.201
 7973SOL     OW25757  11.629   3.772  12.512
 7973SOL    HW125758  11.695   3.839  12.496
 7973SOL    HW225759  11.647   3.705  12.446
 7974SOL     OW25760  13.381   8.730  11.937
 7974SOL    HW125761  13.460   8.783  11.922
 7974SOL    HW225762  13.374   8.725  12.032
 7975SOL     OW25763  13.234   9.037   9.011
 7975SOL    HW125764  13.327   9.050   8.997
 7975SOL    HW225765  13.197   9.126   9.005
 7976SOL     OW25766   6.775  10.611  10.685
 7976SOL    HW125767   6.844  10.621  10.751
 7976SOL    HW225768   6.803  10.536  10.634
 7977SOL     OW25769   5.441  10.356   8.184
 7977SOL    HW125770   5.362  10.368   8.236
 7977SOL    HW225771   5.502  10.311   8.242
 7978SOL     OW25772  10.183  14.633  14.538
 7978SOL    HW125773  10.257  14.626  14.599
 7978SOL    HW225774  10.196  14.718  14.495
 7979SOL     OW25775   5.517   7.893  10.586
 7979SOL    HW125776   5.576   7.820  10.605
 7979SOL    HW225777   5.451   7.857  10.527
 7980SOL     OW25778   1.029  13.529   2.856
 7980SOL    HW125779   1.078  13.611   2.861
 7980SOL    HW225780   1.094  13.462   2.835
 7981SOL     OW25781   2.508  12.816  13.400
 7981SOL    HW125782   2.420  12.798  13.369
 7981SOL    HW225783   2.543  12.882  13.339
 7982SOL     OW25784   3.459  11.791   2.995
 7982SOL    HW125785   3.364  11.802   2.983
 7982SOL    HW225786   3.474  11.818   3.086
 7983SOL     OW25787  10.565   9.856   6.517
 7983SOL    HW125788  10.612   9.877   6.598
 7983SOL    HW225789  10.510   9.780   6.541
 7984SOL     OW25790  12.286   8.999   8.503
 7984SOL    HW125791  12.249   9.007   8.415
 7984SOL    HW225792  12.369   9.048   8.499
 7985SOL     OW25793   8.673  12.658   2.882
 7985SOL    HW125794   8.583  12.644   2.852
 7985SOL    HW225795   8.667  12.729   2.945
 7986SOL     OW25796  12.974   8.636  10.507
 7986SOL    HW125797  13.032   8.670  10.440
 7986SOL    HW225798  13.032   8.597  10.572
 7987SOL     OW25799   4.631   4.976   1.418
 7987SOL    HW125800   4.670   5.019   1.342
 7987SOL    HW225801   4.706   4.951   1.472
 7988SOL     OW25802   8.979  14.695   0.876
 7988SOL    HW125803   8.894  14.714   0.835
 7988SOL    HW225804   8.993  14.602   0.861
 7989SOL     OW25805  13.214  14.409  10.861
 7989SOL    HW125806  13.189  14.396  10.952
 7989SOL    HW225807  13.244  14.499  10.857
 7990SOL     OW25808  12.543   1.067   3.988
 7990SOL    HW125809  12.527   0.986   3.940
 7990SOL    HW225810  12.497   1.055   4.071
 7991SOL     OW25811  13.897   6.183   1.097
 7991SOL    HW125812  13.958   6.171   1.170
 7991SOL    HW225813  13.855   6.098   1.087
 7992SOL     OW25814  14.035   0.218   6.231
 7992SOL    HW125815  14.081   0.265   6.162
 7992SOL    HW225816  13.948   0.259   6.233
 7993SOL     OW25817   3.092   8.772   4.183
 7993SOL    HW125818   3.127   8.697   4.231
 7993SOL    HW225819   3.131   8.764   4.095
 7994SOL     OW25820   7.236   7.593   4.858
 7994SOL    HW125821   7.153   7.603   4.905
 7994SOL    HW225822   7.241   7.670   4.801
 7995SOL     OW25823   7.146  13.108  11.976
 7995SOL    HW125824   7.087  13.182  11.961
 7995SOL    HW225825   7.223  13.148  12.017
 7996SOL     OW25826   7.844   6.693   0.969
 7996SOL    HW125827   7.935   6.678   0.944
 7996SOL    HW225828   7.827   6.629   1.037
 7997SOL     OW25829   6.321   4.437  12.748
 7997SOL    HW125830   6.255   4.472  12.688
 7997SOL    HW225831   6.385   4.508  12.758
 7998SOL     OW25832   7.823  10.547   1.171
 7998SOL    HW125833   7.898  10.501   1.133
 7998SOL    HW225834   7.797  10.609   1.102
 7999SOL     OW25835  12.085   5.839   3.949
 7999SOL    HW125836  12.166   5.888   3.933
 7999SOL    HW225837  12.016   5.905   3.943
 8000SOL     OW25838   8.873  10.918   1.962
 8000SOL    HW125839   8.810  10.851   1.938
 8000SOL    HW225840   8.846  10.995   1.912
 8001SOL     OW25841   5.822   4.044  11.630
 8001SOL    HW125842   5.784   4.108  11.690
 8001SOL    HW225843   5.754   3.978  11.619
 8002SOL     OW25844   4.529  10.997   2.101
 8002SOL    HW125845   4.550  10.920   2.153
 8002SOL    HW225846   4.533  10.967   2.010
 8003SOL     OW25847  14.737  13.825   0.677
 8003SOL    HW125848  14.697  13.775   0.748
 8003SOL    HW225849  14.831  13.809   0.686
 8004SOL     OW25850   2.763   0.057   5.141
 8004SOL    HW125851   2.737  14.877   5.211
 8004SOL    HW225852   2.857   0.045   5.132
 8005SOL     OW25853  11.043   8.501   1.614
 8005SOL    HW125854  11.114   8.563   1.633
 8005SOL    HW225855  11.062   8.469   1.526
 8006SOL     OW25856   3.587   7.343   0.825
 8006SOL    HW125857   3.525   7.323   0.755
 8006SOL    HW225858   3.544   7.410   0.878
 8007SOL     OW25859  12.166   2.547   7.155
 8007SOL    HW125860  12.115   2.511   7.227
 8007SOL    HW225861  12.153   2.485   7.083
 8008SOL     OW25862   9.367   0.018   4.218
 8008SOL    HW125863   9.392   0.054   4.132
 8008SOL    HW225864   9.379   0.091   4.278
 8009SOL     OW25865   2.752   0.543  13.012
 8009SOL    HW125866   2.725   0.617  12.958
 8009SOL    HW225867   2.690   0.543  13.086
 8010SOL     OW25868  13.849  11.461   9.722
 8010SOL    HW125869  13.876  11.537   9.773
 8010SOL    HW225870  13.925  11.402   9.724
 8011SOL     OW25871   2.215   5.437   7.596
 8011SOL    HW125872   2.168   5.518   7.615
 8011SOL    HW225873   2.162   5.393   7.529
 8012SOL     OW25874   7.071   8.930  11.498
 8012SOL    HW125875   7.055   9.024  11.497
 8012SOL    HW225876   6.985   8.891  11.486
 8013SOL     OW25877   0.925   0.511  10.183
 8013SOL    HW125878   0.995   0.529  10.245
 8013SOL    HW225879   0.970   0.477  10.106
 8014SOL     OW25880   8.495   5.182  12.542
 8014SOL    HW125881   8.526   5.225  12.621
 8014SOL    HW225882   8.437   5.112  12.573
 8015SOL     OW25883   6.863   3.285   0.972
 8015SOL    HW125884   6.939   3.251   1.018
 8015SOL    HW225885   6.840   3.216   0.910
 8016SOL     OW25886  11.919   4.696   0.016
 8016SOL    HW125887  11.869   4.657  14.824
 8016SOL    HW225888  11.857   4.756   0.058
 8017SOL     OW25889   7.825   5.725   6.194
 8017SOL    HW125890   7.825   5.642   6.147
 8017SOL    HW225891   7.899   5.773   6.158
 8018SOL     OW25892  11.601   3.228  11.702
 8018SOL    HW125893  11.556   3.304  11.665
 8018SOL    HW225894  11.590   3.237  11.796
 8019SOL     OW25895  12.491   6.617   1.844
 8019SOL    HW125896  12.495   6.534   1.892
 8019SOL    HW225897  12.414   6.608   1.788
 8020SOL     OW25898  14.574   7.058   1.375
 8020SOL    HW125899  14.663   7.085   1.396
 8020SOL    HW225900  14.549   7.001   1.447
 8021SOL     OW25901   6.626  11.174   6.306
 8021SOL    HW125902   6.564  11.105   6.283
 8021SOL    HW225903   6.696  11.128   6.353
 8022SOL     OW25904  11.471  10.003   8.662
 8022SOL    HW125905  11.497   9.991   8.571
 8022SOL    HW225906  11.375  10.010   8.659
 8023SOL     OW25907   1.392   9.440  14.016
 8023SOL    HW125908   1.465   9.435  14.078
 8023SOL    HW225909   1.330   9.374  14.046
 8024SOL     OW25910   3.925  13.174  11.736
 8024SOL    HW125911   3.903  13.082  11.748
 8024SOL    HW225912   3.904  13.215  11.819
 8025SOL     OW25913  12.199   4.966   2.176
 8025SOL    HW125914  12.180   5.059   2.173
 8025SOL    HW225915  12.113   4.924   2.169
 8026SOL     OW25916  10.559   0.304  14.394
 8026SOL    HW125917  10.601   0.376  14.442
 8026SOL    HW225918  10.567   0.329  14.302
 8027SOL     OW25919   9.665  14.769   2.497
 8027SOL    HW125920   9.758  14.761   2.519
 8027SOL    HW225921   9.641  14.683   2.462
 8028SOL     OW25922   9.844   9.694   5.969
 8028SOL    HW125923   9.860   9.692   5.875
 8028SOL    HW225924   9.853   9.786   5.993
 8029SOL     OW25925  10.460  14.203   7.805
 8029SOL    HW125926  10.393  14.241   7.748
 8029SOL    HW225927  10.449  14.249   7.888
 8030SOL     OW25928   3.060  14.289   3.147
 8030SOL    HW125929   3.031  14.340   3.223
 8030SOL    HW225930   3.094  14.207   3.184
 8031SOL     OW25931   5.195   6.717  13.704
 8031SOL    HW125932   5.152   6.644  13.660
 8031SOL    HW225933   5.238   6.765  13.633
 8032SOL     OW25934  11.629  10.706   8.575
 8032SOL    HW125935  11.623  10.631   8.635
 8032SOL    HW225936  11.565  10.687   8.507
 8033SOL     OW25937   9.906   5.759   5.526
 8033SOL    HW125938   9.865   5.677   5.500
 8033SOL    HW225939   9.998   5.737   5.540
 8034SOL     OW25940  10.674   9.749  14.669
 8034SOL    HW125941  10.617   9.729  14.595
 8034SOL    HW225942  10.700   9.664  14.703
 8035SOL     OW25943   4.644   3.712   7.410
 8035SOL    HW125944   4.712   3.660   7.367
 8035SOL    HW225945   4.685   3.797   7.425
 8036SOL     OW25946  11.730   1.505   4.073
 8036SOL    HW125947  11.747   1.414   4.048
 8036SOL    HW225948  11.670   1.498   4.148
 8037SOL     OW25949   7.069   1.582   8.325
 8037SOL    HW125950   7.034   1.565   8.238
 8037SOL    HW225951   7.155   1.538   8.326
 8038SOL     OW25952  13.781   1.711   9.477
 8038SOL    HW125953  13.765   1.799   9.510
 8038SOL    HW225954  13.694   1.676   9.458
 8039SOL     OW25955   6.924   2.894   4.984
 8039SOL    HW125956   6.867   2.928   5.053
 8039SOL    HW225957   6.935   2.967   4.923
 8040SOL     OW25958   9.995   0.388   2.127
 8040SOL    HW125959   9.904   0.414   2.139
 8040SOL    HW225960  10.022   0.352   2.211
 8041SOL     OW25961  11.266  10.694  14.560
 8041SOL    HW125962  11.327  10.625  14.584
 8041SOL    HW225963  11.234  10.669  14.474
 8042SOL     OW25964   3.563  12.058   9.275
 8042SOL    HW125965   3.517  12.080   9.356
 8042SOL    HW225966   3.544  11.965   9.261
 8043SOL     OW25967   6.243   4.884  14.176
 8043SOL    HW125968   6.220   4.969  14.139
 8043SOL    HW225969   6.163   4.854  14.219
 8044SOL     OW25970   3.880   7.526   6.020
 8044SOL    HW125971   3.834   7.460   6.072
 8044SOL    HW225972   3.858   7.610   6.062
 8045SOL     OW25973   6.199  10.206  12.912
 8045SOL    HW125974   6.114  10.200  12.868
 8045SOL    HW225975   6.242  10.281  12.870
 8046SOL     OW25976  12.559   0.917  13.577
 8046SOL    HW125977  12.633   0.868  13.541
 8046SOL    HW225978  12.543   0.986  13.513
 8047SOL     OW25979  11.481   5.429   6.601
 8047SOL    HW125980  11.476   5.441   6.506
 8047SOL    HW225981  11.399   5.386   6.625
 8048SOL     OW25982   9.452   3.704   2.436
 8048SOL    HW125983   9.408   3.655   2.368
 8048SOL    HW225984   9.385   3.763   2.471
 8049SOL     OW25985   3.927   6.741   1.764
 8049SOL    HW125986   3.866   6.704   1.699
 8049SOL    HW225987   4.013   6.712   1.735
 8050SOL     OW25988  12.282  12.060  14.587
 8050SOL    HW125989  12.260  11.996  14.519
 8050SOL    HW225990  12.300  12.008  14.665
 8051SOL     OW25991   6.071   4.230   4.887
 8051SOL    HW125992   6.112   4.207   4.804
 8051SOL    HW225993   6.010   4.158   4.905
 8052SOL     OW25994   6.077   3.932   9.972
 8052SOL    HW125995   6.102   4.023   9.986
 8052SOL    HW225996   6.159   3.883   9.973
 8053SOL     OW25997   9.131   4.887   6.872
 8053SOL    HW125998   9.065   4.857   6.934
 8053SOL    HW225999   9.095   4.865   6.786
 8054SOL     OW26000   3.152   5.036  10.750
 8054SOL    HW126001   3.194   4.988  10.821
 8054SOL    HW226002   3.195   5.122  10.750
 8055SOL     OW26003   7.693  13.436   3.237
 8055SOL    HW126004   7.642  13.411   3.160
 8055SOL    HW226005   7.784  13.417   3.212
 8056SOL     OW26006   2.005   5.248   4.401
 8056SOL    HW126007   1.962   5.163   4.409
 8056SOL    HW226008   2.059   5.241   4.322
 8057SOL     OW26009   2.456   8.543   8.581
 8057SOL    HW126010   2.538   8.591   8.596
 8057SOL    HW226011   2.478   8.452   8.603
 8058SOL     OW26012   7.152   0.708   0.799
 8058SOL    HW126013   7.152   0.744   0.888
 8058SOL    HW226014   7.134   0.614   0.811
 8059SOL     OW26015   3.677  13.586  10.242
 8059SOL    HW126016   3.756  13.590  10.189
 8059SOL    HW226017   3.606  13.600  10.180
 8060SOL     OW26018  14.109  12.274  14.018
 8060SOL    HW126019  14.046  12.345  14.005
 8060SOL    HW226020  14.079  12.205  13.959
 8061SOL     OW26021   6.385  13.125   8.796
 8061SOL    HW126022   6.450  13.061   8.766
 8061SOL    HW226023   6.423  13.210   8.774
 8062SOL     OW26024  14.361  14.659   8.082
 8062SOL    HW126025  14.309  14.738   8.094
 8062SOL    HW226026  14.452  14.690   8.079
 8063SOL     OW26027  12.211   9.229  12.380
 8063SOL    HW126028  12.199   9.139  12.411
 8063SOL    HW226029  12.149   9.237  12.307
 8064SOL     OW26030   6.197   1.179  12.496
 8064SOL    HW126031   6.137   1.119  12.541
 8064SOL    HW226032   6.280   1.132  12.494
 8065SOL     OW26033  10.245   9.664   4.950
 8065SOL    HW126034  10.192   9.655   4.871
 8065SOL    HW226035  10.203   9.606   5.014
 8066SOL     OW26036   7.012   9.258   0.356
 8066SOL    HW126037   7.028   9.325   0.422
 8066SOL    HW226038   7.099   9.231   0.327
 8067SOL     OW26039  10.175   5.858   9.191
 8067SOL    HW126040  10.191   5.931   9.131
 8067SOL    HW226041  10.261   5.840   9.230
 8068SOL     OW26042   2.651  11.505   9.037
 8068SOL    HW126043   2.580  11.510   9.100
 8068SOL    HW226044   2.731  11.500   9.091
 8069SOL     OW26045  12.849   2.027  14.592
 8069SOL    HW126046  12.765   2.035  14.637
 8069SOL    HW226047  12.914   2.048  14.659
 8070SOL     OW26048   8.939   5.156   5.253
 8070SOL    HW126049   8.869   5.202   5.299
 8070SOL    HW226050   8.898   5.125   5.172
 8071SOL     OW26051  14.554   5.013   7.756
 8071SOL    HW126052  14.556   4.917   7.753
 8071SOL    HW226053  14.541   5.039   7.665
 8072SOL     OW26054   2.020   7.988  14.586
 8072SOL    HW126055   2.046   8.080  14.590
 8072SOL    HW226056   2.071   7.952  14.513
 8073SOL     OW26057   1.057   3.404  11.617
 8073SOL    HW126058   0.968   3.373  11.598
 8073SOL    HW226059   1.104   3.394  11.534
 8074SOL     OW26060  12.347   1.729   9.219
 8074SOL    HW126061  12.419   1.704   9.161
 8074SOL    HW226062  12.269   1.694   9.176
 8075SOL     OW26063   3.680   5.925   3.564
 8075SOL    HW126064   3.755   5.973   3.601
 8075SOL    HW226065   3.622   5.994   3.531
 8076SOL     OW26066   0.586   7.711   0.882
 8076SOL    HW126067   0.573   7.712   0.977
 8076SOL    HW226068   0.623   7.796   0.862
 8077SOL     OW26069   9.301   0.538  13.513
 8077SOL    HW126070   9.385   0.509  13.551
 8077SOL    HW226071   9.254   0.576  13.587
 8078SOL     OW26072   5.610   2.996  13.765
 8078SOL    HW126073   5.684   3.046  13.800
 8078SOL    HW226074   5.646   2.951  13.688
 8079SOL     OW26075   7.124   9.877  14.013
 8079SOL    HW126076   7.099   9.950  13.955
 8079SOL    HW226077   7.060   9.809  13.993
 8080SOL     OW26078  11.005   2.924   1.535
 8080SOL    HW126079  10.922   2.897   1.574
 8080SOL    HW226080  10.986   3.010   1.497
 8081SOL     OW26081  14.366   6.448  13.580
 8081SOL    HW126082  14.353   6.383  13.511
 8081SOL    HW226083  14.419   6.403  13.646
 8082SOL     OW26084   4.848   4.174   2.217
 8082SOL    HW126085   4.914   4.104   2.218
 8082SOL    HW226086   4.847   4.207   2.307
 8083SOL     OW26087   4.502   3.102   2.182
 8083SOL    HW126088   4.574   3.061   2.231
 8083SOL    HW226089   4.499   3.191   2.216
 8084SOL     OW26090   8.407   0.861   6.390
 8084SOL    HW126091   8.450   0.932   6.343
 8084SOL    HW226092   8.479   0.812   6.430
 8085SOL     OW26093  14.587  13.482   6.434
 8085SOL    HW126094  14.585  13.426   6.512
 8085SOL    HW226095  14.652  13.442   6.377
 8086SOL     OW26096  10.372   8.516   9.408
 8086SOL    HW126097  10.407   8.507   9.319
 8086SOL    HW226098  10.306   8.585   9.401
 8087SOL     OW26099   1.403  13.183   2.546
 8087SOL    HW126100   1.431  13.191   2.637
 8087SOL    HW226101   1.452  13.250   2.499
 8088SOL     OW26102   3.808  14.023  11.054
 8088SOL    HW126103   3.801  14.077  11.133
 8088SOL    HW226104   3.747  14.062  10.992
 8089SOL     OW26105  11.562  14.495   6.742
 8089SOL    HW126106  11.594  14.450   6.820
 8089SOL    HW226107  11.630  14.480   6.676
 8090SOL     OW26108  10.815   3.770  12.052
 8090SOL    HW126109  10.761   3.710  12.001
 8090SOL    HW226110  10.762   3.790  12.129
 8091SOL     OW26111   1.374   6.567  10.305
 8091SOL    HW126112   1.285   6.590  10.279
 8091SOL    HW226113   1.369   6.555  10.400
 8092SOL     OW26114   8.405  13.734  14.498
 8092SOL    HW126115   8.446  13.773  14.421
 8092SOL    HW226116   8.465  13.664  14.524
 8093SOL     OW26117   1.406   7.875  13.889
 8093SOL    HW126118   1.461   7.856  13.813
 8093SOL    HW226119   1.379   7.789  13.921
 8094SOL     OW26120  10.094   5.795   1.107
 8094SOL    HW126121  10.048   5.827   1.030
 8094SOL    HW226122  10.044   5.720   1.137
 8095SOL     OW26123   7.465   1.777  13.730
 8095SOL    HW126124   7.533   1.798  13.666
 8095SOL    HW226125   7.431   1.862  13.757
 8096SOL     OW26126  12.388   7.871   9.325
 8096SOL    HW126127  12.314   7.927   9.350
 8096SOL    HW226128  12.440   7.864   9.405
 8097SOL     OW26129   5.515  10.577  14.362
 8097SOL    HW126130   5.501  10.653  14.417
 8097SOL    HW226131   5.610  10.562  14.364
 8098SOL     OW26132  12.919  12.957   5.753
 8098SOL    HW126133  12.823  12.956   5.756
 8098SOL    HW226134  12.940  13.011   5.677
 8099SOL     OW26135  12.516   8.790  12.923
 8099SOL    HW126136  12.486   8.874  12.888
 8099SOL    HW226137  12.455   8.726  12.888
 8100SOL     OW26138   4.071  10.909  12.252
 8100SOL    HW126139   4.096  10.824  12.216
 8100SOL    HW226140   4.115  10.973  12.196
 8101SOL     OW26141   6.434  11.624  12.740
 8101SOL    HW126142   6.405  11.620  12.649
 8101SOL    HW226143   6.500  11.694  12.741
 8102SOL     OW26144   8.509  11.593   6.020
 8102SOL    HW126145   8.600  11.593   6.048
 8102SOL    HW226146   8.459  11.612   6.099
 8103SOL     OW26147  10.759  14.174  10.967
 8103SOL    HW126148  10.705  14.249  10.988
 8103SOL    HW226149  10.827  14.209  10.910
 8104SOL     OW26150  12.395  11.505   4.417
 8104SOL    HW126151  12.356  11.460   4.493
 8104SOL    HW226152  12.333  11.490   4.346
 8105SOL     OW26153   7.112  12.165   8.427
 8105SOL    HW126154   7.040  12.122   8.381
 8105SOL    HW226155   7.104  12.258   8.403
 8106SOL     OW26156  12.599  13.138  11.729
 8106SOL    HW126157  12.693  13.122  11.716
 8106SOL    HW226158  12.595  13.229  11.760
 8107SOL     OW26159   9.276   1.179   7.674
 8107SOL    HW126160   9.286   1.142   7.586
 8107SOL    HW226161   9.225   1.114   7.722
 8108SOL     OW26162   1.235   5.553   9.145
 8108SOL    HW126163   1.310   5.494   9.154
 8108SOL    HW226164   1.274   5.640   9.143
 8109SOL     OW26165   5.699   3.536   7.289
 8109SOL    HW126166   5.638   3.464   7.274
 8109SOL    HW226167   5.659   3.610   7.243
 8110SOL     OW26168   2.175  11.282   4.838
 8110SOL    HW126169   2.084  11.300   4.860
 8110SOL    HW226170   2.206  11.363   4.798
 8111SOL     OW26171   1.895  12.236   2.228
 8111SOL    HW126172   1.857  12.311   2.184
 8111SOL    HW226173   1.886  12.164   2.165
 8112SOL     OW26174  12.483   7.264   2.494
 8112SOL    HW126175  12.532   7.318   2.556
 8112SOL    HW226176  12.416   7.221   2.548
 8113SOL     OW26177  13.241   8.903   9.836
 8113SOL    HW126178  13.297   8.858   9.900
 8113SOL    HW226179  13.294   8.977   9.807
 8114SOL     OW26180   2.218  10.496   0.193
 8114SOL    HW126181   2.234  10.515   0.101
 8114SOL    HW226182   2.260  10.411   0.207
 8115SOL     OW26183   0.561  14.243   0.954
 8115SOL    HW126184   0.601  14.201   1.031
 8115SOL    HW226185   0.471  14.262   0.982
 8116SOL     OW26186  12.672  11.488   4.784
 8116SOL    HW126187  12.588  11.524   4.812
 8116SOL    HW226188  12.720  11.473   4.865
 8117SOL     OW26189   9.093   3.335   5.858
 8117SOL    HW126190   9.012   3.358   5.902
 8117SOL    HW226191   9.080   3.362   5.767
 8118SOL     OW26192  11.611   7.279   7.707
 8118SOL    HW126193  11.644   7.210   7.650
 8118SOL    HW226194  11.654   7.263   7.791
 8119SOL     OW26195   4.734   2.783   3.743
 8119SOL    HW126196   4.682   2.852   3.786
 8119SOL    HW226197   4.818   2.784   3.791
 8120SOL     OW26198  10.911   4.988   9.886
 8120SOL    HW126199  10.984   4.987   9.824
 8120SOL    HW226200  10.844   5.041   9.843
 8121SOL     OW26201   3.044   5.097   0.673
 8121SOL    HW126202   3.011   5.076   0.585
 8121SOL    HW226203   2.981   5.056   0.732
 8122SOL     OW26204  13.171   8.969   3.388
 8122SOL    HW126205  13.121   8.919   3.453
 8122SOL    HW226206  13.237   9.015   3.440
 8123SOL     OW26207  11.913   4.460  14.671
 8123SOL    HW126208  11.887   4.397  14.738
 8123SOL    HW226209  11.848   4.530  14.679
 8124SOL     OW26210   3.429   0.835   6.536
 8124SOL    HW126211   3.444   0.741   6.527
 8124SOL    HW226212   3.417   0.848   6.630
 8125SOL     OW26213   2.798  13.767   5.678
 8125SOL    HW126214   2.781  13.810   5.762
 8125SOL    HW226215   2.765  13.678   5.689
 8126SOL     OW26216   5.000   2.419   4.176
 8126SOL    HW126217   4.971   2.497   4.224
 8126SOL    HW226218   5.065   2.379   4.234
 8127SOL     OW26219  11.525   2.541   4.460
 8127SOL    HW126220  11.438   2.564   4.426
 8127SOL    HW226221  11.586   2.588   4.403
 8128SOL     OW26222  14.739  13.971   9.101
 8128SOL    HW126223  14.748  14.053   9.052
 8128SOL    HW226224  14.663  13.985   9.158
 8129SOL     OW26225  11.080  10.157  12.020
 8129SOL    HW126226  11.018  10.125  11.954
 8129SOL    HW226227  11.073  10.094  12.092
 8130SOL     OW26228   6.804   8.781  13.319
 8130SOL    HW126229   6.826   8.782  13.412
 8130SOL    HW226230   6.754   8.700  13.307
 8131SOL     OW26231  11.932   2.928   2.988
 8131SOL    HW126232  11.987   2.857   3.021
 8131SOL    HW226233  11.863   2.885   2.939
 8132SOL     OW26234   3.134   7.233  11.864
 8132SOL    HW126235   3.078   7.264  11.936
 8132SOL    HW226236   3.128   7.138  11.868
 8133SOL     OW26237  11.229   7.816   8.414
 8133SOL    HW126238  11.178   7.771   8.481
 8133SOL    HW226239  11.319   7.813   8.446
 8134SOL     OW26240  11.355   3.280  13.485
 8134SOL    HW126241  11.392   3.197  13.516
 8134SOL    HW226242  11.426   3.343  13.498
 8135SOL     OW26243   7.409   2.254   8.813
 8135SOL    HW126244   7.324   2.226   8.780
 8135SOL    HW226245   7.460   2.173   8.821
 8136SOL     OW26246   6.449   2.186   6.879
 8136SOL    HW126247   6.369   2.237   6.865
 8136SOL    HW226248   6.445   2.117   6.812
 8137SOL     OW26249  12.999   6.093   9.157
 8137SOL    HW126250  13.034   6.022   9.103
 8137SOL    HW226251  13.054   6.169   9.136
 8138SOL     OW26252   2.601   9.003   9.957
 8138SOL    HW126253   2.518   9.047   9.939
 8138SOL    HW226254   2.576   8.916   9.989
 8139SOL     OW26255   8.723   8.665   3.597
 8139SOL    HW126256   8.646   8.635   3.646
 8139SOL    HW226257   8.758   8.737   3.649
 8140SOL     OW26258   0.363   5.007   7.500
 8140SOL    HW126259   0.289   4.953   7.528
 8140SOL    HW226260   0.353   5.014   7.405
 8141SOL     OW26261   6.881  13.495   3.355
 8141SOL    HW126262   6.834  13.415   3.334
 8141SOL    HW226263   6.879  13.547   3.275
 8142SOL     OW26264   7.758  11.931   5.097
 8142SOL    HW126265   7.828  11.934   5.032
 8142SOL    HW226266   7.694  11.871   5.060
 8143SOL     OW26267   6.092   3.631  13.774
 8143SOL    HW126268   6.046   3.682  13.840
 8143SOL    HW226269   6.055   3.661  13.691
 8144SOL     OW26270   5.045   3.002   2.804
 8144SOL    HW126271   5.129   3.016   2.761
 8144SOL    HW226272   5.005   2.929   2.757
 8145SOL     OW26273   8.729   8.409   2.628
 8145SOL    HW126274   8.699   8.339   2.686
 8145SOL    HW226275   8.726   8.488   2.681
 8146SOL     OW26276  11.567  14.014   5.916
 8146SOL    HW126277  11.509  13.976   5.850
 8146SOL    HW226278  11.554  14.108   5.909
 8147SOL     OW26279   6.484  12.625   5.684
 8147SOL    HW126280   6.573  12.651   5.659
 8147SOL    HW226281   6.429  12.661   5.615
 8148SOL     OW26282   5.694   7.353   4.830
 8148SOL    HW126283   5.721   7.322   4.743
 8148SOL    HW226284   5.664   7.274   4.876
 8149SOL     OW26285   3.110   0.909  12.933
 8149SOL    HW126286   3.079   0.911  13.024
 8149SOL    HW226287   3.030   0.897  12.881
 8150SOL     OW26288   5.324  13.751   4.716
 8150SOL    HW126289   5.390  13.750   4.647
 8150SOL    HW226290   5.332  13.837   4.757
 8151SOL     OW26291   2.481  12.015  11.591
 8151SOL    HW126292   2.395  12.035  11.628
 8151SOL    HW226293   2.462  11.966  11.511
 8152SOL     OW26294   4.571   9.424   6.736
 8152SOL    HW126295   4.593   9.497   6.794
 8152SOL    HW226296   4.476   9.414   6.746
 8153SOL     OW26297  11.934  14.320   7.036
 8153SOL    HW126298  11.982  14.317   7.119
 8153SOL    HW226299  11.948  14.235   6.997
 8154SOL     OW26300  11.583  12.217   0.758
 8154SOL    HW126301  11.568  12.310   0.738
 8154SOL    HW226302  11.665  12.217   0.808
 8155SOL     OW26303   4.399   4.707  10.970
 8155SOL    HW126304   4.348   4.731  10.893
 8155SOL    HW226305   4.357   4.627  11.003
 8156SOL     OW26306  11.905   1.316   9.685
 8156SOL    HW126307  11.836   1.330   9.751
 8156SOL    HW226308  11.986   1.313   9.735
 8157SOL     OW26309   7.821  12.732   3.901
 8157SOL    HW126310   7.752  12.783   3.858
 8157SOL    HW226311   7.902  12.760   3.858
 8158SOL     OW26312   9.641   0.653   3.991
 8158SOL    HW126313   9.730   0.654   3.956
 8158SOL    HW226314   9.594   0.718   3.938
 8159SOL     OW26315   1.465   4.029  14.254
 8159SOL    HW126316   1.542   4.052  14.305
 8159SOL    HW226317   1.465   3.934  14.249
 8160SOL     OW26318   2.002  10.031  12.353
 8160SOL    HW126319   2.037   9.966  12.413
 8160SOL    HW226320   1.997   9.986  12.268
 8161SOL     OW26321   4.880   8.385   8.391
 8161SOL    HW126322   4.827   8.454   8.430
 8161SOL    HW226323   4.954   8.431   8.350
 8162SOL     OW26324   5.988   1.368   1.388
 8162SOL    HW126325   5.902   1.344   1.352
 8162SOL    HW226326   5.975   1.370   1.482
 8163SOL     OW26327  11.588   4.714   6.514
 8163SOL    HW126328  11.645   4.654   6.466
 8163SOL    HW226329  11.552   4.771   6.446
 8164SOL     OW26330  13.296   4.863   9.652
 8164SOL    HW126331  13.282   4.932   9.587
 8164SOL    HW226332  13.329   4.789   9.602
 8165SOL     OW26333   7.093   8.062   1.461
 8165SOL    HW126334   7.127   7.994   1.402
 8165SOL    HW226335   7.077   8.137   1.404
 8166SOL     OW26336   5.519   0.925   0.140
 8166SOL    HW126337   5.542   0.942   0.231
 8166SOL    HW226338   5.600   0.895   0.099
 8167SOL     OW26339  12.656   2.358   6.684
 8167SOL    HW126340  12.677   2.440   6.640
 8167SOL    HW226341  12.734   2.303   6.670
 8168SOL     OW26342   1.464  10.205   5.675
 8168SOL    HW126343   1.492  10.122   5.714
 8168SOL    HW226344   1.545  10.243   5.640
 8169SOL     OW26345   0.287   4.942   7.237
 8169SOL    HW126346   0.230   4.909   7.168
 8169SOL    HW226347   0.264   4.891   7.315
 8170SOL     OW26348   3.694  10.206  12.822
 8170SOL    HW126349   3.639  10.158  12.761
 8170SOL    HW226350   3.673  10.298  12.806
 8171SOL     OW26351   3.256   2.452   8.289
 8171SOL    HW126352   3.325   2.385   8.291
 8171SOL    HW226353   3.209   2.434   8.208
 8172SOL     OW26354   1.230   1.412   2.709
 8172SOL    HW126355   1.214   1.504   2.729
 8172SOL    HW226356   1.199   1.365   2.786
 8173SOL     OW26357   6.754   9.940  11.534
 8173SOL    HW126358   6.765   9.890  11.453
 8173SOL    HW226359   6.684  10.003  11.514
 8174SOL     OW26360   2.726   5.922   1.066
 8174SOL    HW126361   2.706   5.849   1.125
 8174SOL    HW226362   2.800   5.892   1.014
 8175SOL     OW26363   3.645  11.411   8.082
 8175SOL    HW126364   3.715  11.394   8.020
 8175SOL    HW226365   3.639  11.506   8.088
 8176SOL     OW26366   6.206  12.978   8.971
 8176SOL    HW126367   6.236  12.887   8.973
 8176SOL    HW226368   6.250  13.017   8.895
 8177SOL     OW26369   6.462   8.407   2.780
 8177SOL    HW126370   6.391   8.452   2.733
 8177SOL    HW226371   6.443   8.423   2.873
 8178SOL     OW26372   8.306   2.111   9.508
 8178SOL    HW126373   8.328   2.107   9.601
 8178SOL    HW226374   8.387   2.085   9.464
 8179SOL     OW26375  13.967  13.678   8.855
 8179SOL    HW126376  14.026  13.743   8.893
 8179SOL    HW226377  13.903  13.730   8.806
 8180SOL     OW26378   1.905   6.500  11.534
 8180SOL    HW126379   1.867   6.500  11.622
 8180SOL    HW226380   1.952   6.416  11.529
 8181SOL     OW26381   6.146   1.995  13.722
 8181SOL    HW126382   6.161   1.964  13.811
 8181SOL    HW226383   6.076   2.059  13.730
 8182SOL     OW26384   4.118   1.157  10.475
 8182SOL    HW126385   4.129   1.101  10.552
 8182SOL    HW226386   4.178   1.230  10.489
 8183SOL     OW26387  14.266   4.133   8.622
 8183SOL    HW126388  14.348   4.089   8.644
 8183SOL    HW226389  14.272   4.218   8.665
 8184SOL     OW26390  11.561   4.535   8.940
 8184SOL    HW126391  11.504   4.460   8.956
 8184SOL    HW226392  11.556   4.549   8.845
 8185SOL     OW26393  10.015   4.925   2.931
 8185SOL    HW126394   9.999   4.983   3.006
 8185SOL    HW226395  10.052   4.846   2.969
 8186SOL     OW26396   8.604   1.238   4.392
 8186SOL    HW126397   8.533   1.195   4.440
 8186SOL    HW226398   8.577   1.330   4.388
 8187SOL     OW26399   2.839  13.193   2.239
 8187SOL    HW126400   2.906  13.245   2.195
 8187SOL    HW226401   2.857  13.204   2.332
 8188SOL     OW26402   8.482   2.465   4.850
 8188SOL    HW126403   8.448   2.549   4.819
 8188SOL    HW226404   8.575   2.480   4.865
 8189SOL     OW26405   3.223   2.891   0.144
 8189SOL    HW126406   3.230   2.981   0.111
 8189SOL    HW226407   3.139   2.860   0.111
 8190SOL     OW26408   8.482   9.659  12.289
 8190SOL    HW126409   8.414   9.696  12.345
 8190SOL    HW226410   8.478   9.712  12.209
 8191SOL     OW26411   6.962   5.184   1.660
 8191SOL    HW126412   7.023   5.135   1.714
 8191SOL    HW226413   6.910   5.117   1.616
 8192SOL     OW26414   3.181   3.819   1.584
 8192SOL    HW126415   3.182   3.881   1.512
 8192SOL    HW226416   3.105   3.762   1.566
 8193SOL     OW26417   3.232   0.145  11.502
 8193SOL    HW126418   3.300   0.095  11.457
 8193SOL    HW226419   3.168   0.079  11.530
 8194SOL     OW26420   1.348  14.865  12.620
 8194SOL    HW126421   1.416   0.043  12.655
 8194SOL    HW226422   1.288   0.046  12.574
 8195SOL     OW26423   5.392   7.992   2.092
 8195SOL    HW126424   5.346   7.918   2.054
 8195SOL    HW226425   5.406   7.967   2.184
 8196SOL     OW26426  11.991   6.890   6.885
 8196SOL    HW126427  11.966   6.885   6.977
 8196SOL    HW226428  11.995   6.984   6.866
 8197SOL     OW26429   0.737   7.693  12.310
 8197SOL    HW126430   0.794   7.736  12.374
 8197SOL    HW226431   0.793   7.625  12.271
 8198SOL     OW26432  14.522   9.604   4.126
 8198SOL    HW126433  14.475   9.678   4.088
 8198SOL    HW226434  14.455   9.538   4.143
 8199SOL     OW26435   5.031   5.280  10.007
 8199SOL    HW126436   5.029   5.260   9.914
 8199SOL    HW226437   4.944   5.318  10.025
 8200SOL     OW26438  14.540   0.150   9.898
 8200SOL    HW126439  14.601   0.215   9.863
 8200SOL    HW226440  14.596   0.087   9.944
 8201SOL     OW26441   8.498  13.551   3.967
 8201SOL    HW126442   8.534  13.497   3.896
 8201SOL    HW226443   8.500  13.640   3.931
 8202SOL     OW26444  11.526   7.429   0.698
 8202SOL    HW126445  11.610   7.390   0.676
 8202SOL    HW226446  11.491   7.374   0.768
 8203SOL     OW26447   6.033   5.237  13.891
 8203SOL    HW126448   5.968   5.250  13.960
 8203SOL    HW226449   5.983   5.231  13.811
 8204SOL     OW26450  11.007  11.198   7.545
 8204SOL    HW126451  10.959  11.144   7.607
 8204SOL    HW226452  11.070  11.246   7.598
 8205SOL     OW26453   1.093   5.041   5.278
 8205SOL    HW126454   1.176   5.018   5.321
 8205SOL    HW226455   1.119   5.102   5.208
 8206SOL     OW26456  11.954  13.896   8.571
 8206SOL    HW126457  12.000  13.980   8.577
 8206SOL    HW226458  11.935  13.873   8.662
 8207SOL     OW26459   9.873   6.048  10.017
 8207SOL    HW126460   9.930   5.980  10.051
 8207SOL    HW226461   9.923   6.129  10.027
 8208SOL     OW26462  10.887   3.759   5.093
 8208SOL    HW126463  10.960   3.806   5.052
 8208SOL    HW226464  10.912   3.751   5.185
 8209SOL     OW26465  13.423  11.293   5.359
 8209SOL    HW126466  13.357  11.226   5.378
 8209SOL    HW226467  13.470  11.304   5.441
 8210SOL     OW26468   4.391   3.957   6.473
 8210SOL    HW126469   4.458   3.996   6.529
 8210SOL    HW226470   4.310   3.963   6.524
 8211SOL     OW26471   3.597   6.777   7.638
 8211SOL    HW126472   3.615   6.703   7.696
 8211SOL    HW226473   3.679   6.792   7.591
 8212SOL     OW26474  13.139  12.871   7.196
 8212SOL    HW126475  13.217  12.827   7.161
 8212SOL    HW226476  13.078  12.800   7.215
 8213SOL     OW26477   9.588   6.765  14.426
 8213SOL    HW126478   9.611   6.700  14.492
 8213SOL    HW226479   9.522   6.819  14.468
 8214SOL     OW26480   4.215   0.303  14.300
 8214SOL    HW126481   4.292   0.288  14.355
 8214SOL    HW226482   4.211   0.226  14.243
 8215SOL     OW26483   7.979   2.936   1.350
 8215SOL    HW126484   7.921   2.866   1.324
 8215SOL    HW226485   8.031   2.900   1.422
 8216SOL     OW26486   5.339  12.772   7.463
 8216SOL    HW126487   5.387  12.768   7.546
 8216SOL    HW226488   5.247  12.775   7.489
 8217SOL     OW26489  11.925   7.281  13.834
 8217SOL    HW126490  11.950   7.322  13.917
 8217SOL    HW226491  11.894   7.354  13.780
 8218SOL     OW26492   7.439   4.649  11.681
 8218SOL    HW126493   7.495   4.571  11.679
 8218SOL    HW226494   7.413   4.657  11.773
 8219SOL     OW26495   7.937   0.075   7.714
 8219SOL    HW126496   7.866   0.011   7.722
 8219SOL    HW226497   7.944   0.113   7.802
 8220SOL     OW26498   0.500   8.951   5.419
 8220SOL    HW126499   0.572   8.961   5.481
 8220SOL    HW226500   0.538   8.902   5.346
 8221SOL     OW26501   8.194   0.397   7.732
 8221SOL    HW126502   8.239   0.423   7.812
 8221SOL    HW226503   8.197   0.301   7.733
 8222SOL     OW26504  13.947   5.481  11.924
 8222SOL    HW126505  14.006   5.420  11.968
 8222SOL    HW226506  13.994   5.507  11.845
 8223SOL     OW26507   6.327   2.929  13.943
 8223SOL    HW126508   6.363   2.957  13.859
 8223SOL    HW226509   6.387   2.965  14.008
 8224SOL     OW26510  14.281  11.423   6.872
 8224SOL    HW126511  14.267  11.358   6.941
 8224SOL    HW226512  14.366  11.399   6.833
 8225SOL     OW26513   8.385   4.342  11.887
 8225SOL    HW126514   8.451   4.360  11.820
 8225SOL    HW226515   8.316   4.295  11.842
 8226SOL     OW26516   3.560  10.319  13.766
 8226SOL    HW126517   3.569  10.384  13.836
 8226SOL    HW226518   3.473  10.281  13.780
 8227SOL     OW26519   1.517   0.492   3.033
 8227SOL    HW126520   1.428   0.463   3.056
 8227SOL    HW226521   1.571   0.414   3.043
 8228SOL     OW26522  12.546   1.720  13.179
 8228SOL    HW126523  12.469   1.751  13.131
 8228SOL    HW226524  12.521   1.725  13.271
 8229SOL     OW26525  12.477   9.660   0.349
 8229SOL    HW126526  12.430   9.577   0.351
 8229SOL    HW226527  12.504   9.671   0.258
 8230SOL     OW26528   0.233   7.846   9.873
 8230SOL    HW126529   0.159   7.906   9.881
 8230SOL    HW226530   0.201   7.777   9.814
 8231SOL     OW26531   3.036  11.339   5.566
 8231SOL    HW126532   3.131  11.329   5.556
 8231SOL    HW226533   3.022  11.344   5.661
 8232SOL     OW26534   9.695   3.613   2.527
 8232SOL    HW126535   9.623   3.668   2.498
 8232SOL    HW226536   9.666   3.524   2.506
 8233SOL     OW26537   0.885  10.650  10.724
 8233SOL    HW126538   0.933  10.581  10.768
 8233SOL    HW226539   0.933  10.730  10.746
 8234SOL     OW26540   6.703  13.399  13.654
 8234SOL    HW126541   6.611  13.384  13.633
 8234SOL    HW226542   6.736  13.314  13.683
 8235SOL     OW26543   2.250   2.453   5.582
 8235SOL    HW126544   2.185   2.383   5.576
 8235SOL    HW226545   2.294   2.452   5.497
 8236SOL     OW26546  11.565   0.912   1.894
 8236SOL    HW126547  11.562   0.843   1.829
 8236SOL    HW226548  11.610   0.873   1.969
 8237SOL     OW26549  10.978   1.093  14.300
 8237SOL    HW126550  11.068   1.123  14.312
 8237SOL    HW226551  10.971   1.076  14.206
 8238SOL     OW26552  13.344   1.267   4.773
 8238SOL    HW126553  13.307   1.327   4.709
 8238SOL    HW226554  13.303   1.292   4.856
 8239SOL     OW26555   9.849   9.447   8.268
 8239SOL    HW126556   9.781   9.513   8.283
 8239SOL    HW226557   9.801   9.372   8.232
 8240SOL     OW26558   4.778   1.271   7.665
 8240SOL    HW126559   4.797   1.221   7.745
 8240SOL    HW226560   4.700   1.229   7.628
 8241SOL     OW26561   3.220   0.767   3.066
 8241SOL    HW126562   3.305   0.723   3.075
 8241SOL    HW226563   3.211   0.817   3.147
 8242SOL     OW26564   3.304  11.681  13.582
 8242SOL    HW126565   3.269  11.648  13.499
 8242SOL    HW226566   3.340  11.604  13.626
 8243SOL     OW26567   2.986   5.095   0.383
 8243SOL    HW126568   3.064   5.046   0.357
 8243SOL    HW226569   3.015   5.186   0.386
 8244SOL     OW26570  14.316  14.457   3.323
 8244SOL    HW126571  14.288  14.423   3.238
 8244SOL    HW226572  14.376  14.528   3.301
 8245SOL     OW26573   3.200   8.156   6.047
 8245SOL    HW126574   3.237   8.238   6.018
 8245SOL    HW226575   3.267   8.117   6.103
 8246SOL     OW26576   3.148   1.420   9.461
 8246SOL    HW126577   3.215   1.362   9.497
 8246SOL    HW226578   3.083   1.362   9.421
 8247SOL     OW26579   5.866   4.901  13.072
 8247SOL    HW126580   5.837   4.973  13.127
 8247SOL    HW226581   5.932   4.940  13.014
 8248SOL     OW26582   7.645   8.252  13.649
 8248SOL    HW126583   7.615   8.204  13.726
 8248SOL    HW226584   7.568   8.300  13.619
 8249SOL     OW26585   6.958   4.181   3.433
 8249SOL    HW126586   6.887   4.131   3.392
 8249SOL    HW226587   6.914   4.253   3.479
 8250SOL     OW26588   7.923   5.750   3.336
 8250SOL    HW126589   7.865   5.708   3.272
 8250SOL    HW226590   7.971   5.815   3.285
 8251SOL     OW26591   4.283   1.729   7.359
 8251SOL    HW126592   4.260   1.642   7.390
 8251SOL    HW226593   4.378   1.731   7.359
 8252SOL     OW26594   5.689   7.963   8.656
 8252SOL    HW126595   5.785   7.959   8.655
 8252SOL    HW226596   5.669   8.039   8.711
 8253SOL     OW26597   6.251   4.740   9.758
 8253SOL    HW126598   6.198   4.678   9.707
 8253SOL    HW226599   6.230   4.826   9.720
 8254SOL     OW26600   8.199   9.104   5.703
 8254SOL    HW126601   8.143   9.050   5.647
 8254SOL    HW226602   8.169   9.193   5.688
 8255SOL     OW26603   5.990   3.382   2.655
 8255SOL    HW126604   5.900   3.393   2.626
 8255SOL    HW226605   6.001   3.447   2.724
 8256SOL     OW26606   1.747   5.500   7.348
 8256SOL    HW126607   1.736   5.483   7.255
 8256SOL    HW226608   1.695   5.580   7.364
 8257SOL     OW26609  10.989   2.244  14.395
 8257SOL    HW126610  10.906   2.198  14.403
 8257SOL    HW226611  10.965   2.331  14.361
 8258SOL     OW26612  10.257   0.713   8.438
 8258SOL    HW126613  10.317   0.773   8.394
 8258SOL    HW226614  10.207   0.768   8.497
 8259SOL     OW26615  14.867   6.293  10.321
 8259SOL    HW126616   0.029   6.214  10.286
 8259SOL    HW226617   0.004   6.289  10.415
 8260SOL     OW26618   9.608   3.152  10.328
 8260SOL    HW126619   9.691   3.135  10.284
 8260SOL    HW226620   9.612   3.099  10.407
 8261SOL     OW26621  10.352   9.016   9.752
 8261SOL    HW126622  10.439   8.987   9.725
 8261SOL    HW226623  10.292   8.965   9.698
 8262SOL     OW26624   2.879   1.356   3.320
 8262SOL    HW126625   2.796   1.359   3.272
 8262SOL    HW226626   2.863   1.405   3.400
 8263SOL     OW26627  13.553   1.343   7.428
 8263SOL    HW126628  13.613   1.379   7.363
 8263SOL    HW226629  13.545   1.411   7.495
 8264SOL     OW26630  10.470  14.424   6.370
 8264SOL    HW126631  10.485  14.518   6.381
 8264SOL    HW226632  10.526  14.382   6.435
 8265SOL     OW26633   7.892   9.297  10.777
 8265SOL    HW126634   7.807   9.278  10.817
 8265SOL    HW226635   7.953   9.238  10.822
 8266SOL     OW26636   3.609   5.990   5.445
 8266SOL    HW126637   3.613   5.899   5.476
 8266SOL    HW226638   3.516   6.013   5.451
 8267SOL     OW26639   1.785   7.179   0.610
 8267SOL    HW126640   1.870   7.136   0.613
 8267SOL    HW226641   1.765   7.186   0.516
 8268SOL     OW26642   6.736  11.434  11.168
 8268SOL    HW126643   6.712  11.351  11.127
 8268SOL    HW226644   6.729  11.499  11.098
 8269SOL     OW26645  12.147   3.679  13.651
 8269SOL    HW126646  12.137   3.635  13.567
 8269SOL    HW226647  12.108   3.765  13.639
 8270SOL     OW26648   7.674   3.950   5.442
 8270SOL    HW126649   7.670   4.025   5.501
 8270SOL    HW226650   7.762   3.914   5.455
 8271SOL     OW26651   7.257  10.211   6.817
 8271SOL    HW126652   7.183  10.260   6.782
 8271SOL    HW226653   7.320  10.279   6.843
 8272SOL     OW26654   9.431   1.917   1.209
 8272SOL    HW126655   9.450   1.956   1.294
 8272SOL    HW226656   9.352   1.866   1.223
 8273SOL     OW26657  11.856   7.498   5.366
 8273SOL    HW126658  11.818   7.584   5.351
 8273SOL    HW226659  11.791   7.451   5.418
 8274SOL     OW26660   5.660  11.973  11.934
 8274SOL    HW126661   5.601  11.944  12.004
 8274SOL    HW226662   5.661  11.901  11.871
 8275SOL     OW26663   4.550   5.922   6.925
 8275SOL    HW126664   4.532   5.936   7.017
 8275SOL    HW226665   4.466   5.896   6.887
 8276SOL     OW26666   0.294  12.279   0.334
 8276SOL    HW126667   0.217  12.300   0.388
 8276SOL    HW226668   0.361  12.340   0.364
 8277SOL     OW26669   9.107   2.392   9.614
 8277SOL    HW126670   9.059   2.314   9.641
 8277SOL    HW226671   9.118   2.382   9.519
 8278SOL     OW26672  12.025  13.027  12.944
 8278SOL    HW126673  12.097  13.065  12.994
 8278SOL    HW226674  11.974  12.978  13.008
 8279SOL     OW26675  14.396   8.042   4.753
 8279SOL    HW126676  14.383   7.986   4.829
 8279SOL    HW226677  14.382   8.131   4.787
 8280SOL     OW26678   8.348   9.624  13.005
 8280SOL    HW126679   8.395   9.559  12.953
 8280SOL    HW226680   8.321   9.691  12.943
 8281SOL     OW26681   4.487   9.903  14.317
 8281SOL    HW126682   4.435   9.883  14.394
 8281SOL    HW226683   4.509   9.818  14.279
 8282SOL     OW26684  12.826  11.361  12.342
 8282SOL    HW126685  12.904  11.305  12.337
 8282SOL    HW226686  12.774  11.324  12.412
 8283SOL     OW26687  13.238   9.922   6.051
 8283SOL    HW126688  13.288   9.981   5.996
 8283SOL    HW226689  13.303   9.861   6.087
 8284SOL     OW26690  11.163   7.218   0.038
 8284SOL    HW126691  11.186   7.309   0.018
 8284SOL    HW226692  11.146   7.217   0.132
 8285SOL     OW26693   5.421  13.692   8.529
 8285SOL    HW126694   5.494  13.710   8.587
 8285SOL    HW226695   5.368  13.627   8.576
 8286SOL     OW26696   7.590   0.432   7.069
 8286SOL    HW126697   7.592   0.520   7.106
 8286SOL    HW226698   7.558   0.376   7.140
 8287SOL     OW26699   5.702  14.874   9.316
 8287SOL    HW126700   5.789  14.833   9.309
 8287SOL    HW226701   5.707   0.070   9.257
 8288SOL     OW26702  14.286   4.642   3.209
 8288SOL    HW126703  14.322   4.616   3.124
 8288SOL    HW226704  14.195   4.666   3.191
 8289SOL     OW26705   1.224   5.613   5.971
 8289SOL    HW126706   1.170   5.655   6.038
 8289SOL    HW226707   1.299   5.579   6.019
 8290SOL     OW26708   3.581   2.032   8.410
 8290SOL    HW126709   3.601   2.115   8.454
 8290SOL    HW226710   3.596   1.965   8.477
 8291SOL     OW26711   1.749   6.652  11.355
 8291SOL    HW126712   1.808   6.610  11.418
 8291SOL    HW226713   1.725   6.581  11.295
 8292SOL     OW26714  14.530   7.220  14.328
 8292SOL    HW126715  14.474   7.286  14.370
 8292SOL    HW226716  14.565   7.168  14.400
 8293SOL     OW26717  14.553   5.602   7.341
 8293SOL    HW126718  14.519   5.571   7.257
 8293SOL    HW226719  14.646   5.618   7.324
 8294SOL     OW26720  11.344   2.474   3.768
 8294SOL    HW126721  11.328   2.549   3.711
 8294SOL    HW226722  11.387   2.511   3.845
 8295SOL     OW26723  14.456  14.671   3.202
 8295SOL    HW126724  14.505  14.677   3.121
 8295SOL    HW226725  14.494  14.738   3.258
 8296SOL     OW26726  13.580   6.162   7.732
 8296SOL    HW126727  13.656   6.199   7.777
 8296SOL    HW226728  13.505   6.207   7.770
 8297SOL     OW26729  12.521   6.333   7.765
 8297SOL    HW126730  12.526   6.300   7.855
 8297SOL    HW226731  12.589   6.286   7.718
 8298SOL     OW26732   4.945   7.249   0.675
 8298SOL    HW126733   4.901   7.330   0.648
 8298SOL    HW226734   4.903   7.180   0.623
 8299SOL     OW26735   8.274  12.502  11.653
 8299SOL    HW126736   8.203  12.530  11.712
 8299SOL    HW226737   8.293  12.412  11.679
 8300SOL     OW26738   6.860   8.312  13.728
 8300SOL    HW126739   6.783   8.356  13.763
 8300SOL    HW226740   6.901   8.376  13.671
 8301SOL     OW26741  11.082   0.754   3.223
 8301SOL    HW126742  11.043   0.666   3.229
 8301SOL    HW226743  11.010   0.810   3.194
 8302SOL     OW26744   9.536   9.773   6.013
 8302SOL    HW126745   9.456   9.745   6.057
 8302SOL    HW226746   9.519   9.759   5.920
 8303SOL     OW26747   1.105   1.428   6.494
 8303SOL    HW126748   1.094   1.450   6.587
 8303SOL    HW226749   1.042   1.357   6.478
 8304SOL     OW26750   4.453  11.416   0.533
 8304SOL    HW126751   4.370  11.456   0.504
 8304SOL    HW226752   4.441  11.323   0.519
 8305SOL     OW26753  12.953  13.800   7.838
 8305SOL    HW126754  12.990  13.844   7.914
 8305SOL    HW226755  12.924  13.871   7.781
 8306SOL     OW26756   3.168  11.179   8.791
 8306SOL    HW126757   3.229  11.106   8.780
 8306SOL    HW226758   3.221  11.250   8.825
 8307SOL     OW26759   3.120  14.812  12.028
 8307SOL    HW126760   3.146  14.781  12.115
 8307SOL    HW226761   3.048  14.754  12.002
 8308SOL     OW26762  13.338   7.433  14.162
 8308SOL    HW126763  13.274   7.385  14.216
 8308SOL    HW226764  13.372   7.368  14.101
 8309SOL     OW26765  12.003   5.981   6.999
 8309SOL    HW126766  11.959   6.014   6.922
 8309SOL    HW226767  12.080   6.038   7.010
 8310SOL     OW26768  13.462   2.924   6.326
 8310SOL    HW126769  13.482   2.948   6.235
 8310SOL    HW226770  13.482   2.831   6.332
 8311SOL     OW26771   3.517   2.056   7.379
 8311SOL    HW126772   3.437   2.082   7.426
 8311SOL    HW226773   3.485   2.019   7.296
 8312SOL     OW26774  14.412  13.109  13.295
 8312SOL    HW126775  14.505  13.120  13.312
 8312SOL    HW226776  14.395  13.160  13.216
 8313SOL     OW26777   5.380   6.472   4.947
 8313SOL    HW126778   5.291   6.475   4.984
 8313SOL    HW226779   5.375   6.406   4.878
 8314SOL     OW26780   2.157  11.449   3.911
 8314SOL    HW126781   2.186  11.489   3.829
 8314SOL    HW226782   2.063  11.466   3.914
 8315SOL     OW26783   6.134  10.006  14.642
 8315SOL    HW126784   6.111   9.918  14.611
 8315SOL    HW226785   6.051  10.046  14.665
 8316SOL     OW26786   3.362   8.935  12.008
 8316SOL    HW126787   3.448   8.947  12.048
 8316SOL    HW226788   3.375   8.951  11.915
 8317SOL     OW26789   5.950   9.648   7.783
 8317SOL    HW126790   5.860   9.673   7.765
 8317SOL    HW226791   5.998   9.731   7.784
 8318SOL     OW26792   0.503   3.779  14.808
 8318SOL    HW126793   0.550   3.706  14.848
 8318SOL    HW226794   0.421   3.784  14.856
 8319SOL     OW26795   9.332  11.648   0.697
 8319SOL    HW126796   9.397  11.595   0.649
 8319SOL    HW226797   9.361  11.645   0.788
 8320SOL     OW26798   1.777  11.378   9.963
 8320SOL    HW126799   1.752  11.298   9.918
 8320SOL    HW226800   1.860  11.358  10.005
 8321SOL     OW26801   6.648  13.188   6.959
 8321SOL    HW126802   6.722  13.147   6.914
 8321SOL    HW226803   6.598  13.114   6.995
 8322SOL     OW26804   1.786   5.252   2.871
 8322SOL    HW126805   1.851   5.184   2.853
 8322SOL    HW226806   1.736   5.218   2.946
 8323SOL     OW26807  13.772   8.828   4.142
 8323SOL    HW126808  13.747   8.736   4.146
 8323SOL    HW226809  13.775   8.856   4.234
 8324SOL     OW26810   5.592   5.054   3.331
 8324SOL    HW126811   5.535   5.126   3.304
 8324SOL    HW226812   5.581   4.988   3.263
 8325SOL     OW26813   8.559  13.221  11.981
 8325SOL    HW126814   8.565  13.158  11.909
 8325SOL    HW226815   8.509  13.294  11.944
 8326SOL     OW26816   8.429  11.037  10.302
 8326SOL    HW126817   8.449  11.050  10.209
 8326SOL    HW226818   8.407  10.945  10.309
 8327SOL     OW26819  10.542  13.236  13.542
 8327SOL    HW126820  10.476  13.173  13.514
 8327SOL    HW226821  10.589  13.193  13.614
 8328SOL     OW26822  10.945   2.102  13.281
 8328SOL    HW126823  11.030   2.072  13.250
 8328SOL    HW226824  10.922   2.041  13.351
 8329SOL     OW26825   5.372   9.996  11.652
 8329SOL    HW126826   5.459  10.035  11.645
 8329SOL    HW226827   5.344  10.016  11.741
 8330SOL     OW26828  13.535   3.841  12.636
 8330SOL    HW126829  13.614   3.797  12.670
 8330SOL    HW226830  13.466   3.815  12.697
 8331SOL     OW26831   9.522   8.630  11.810
 8331SOL    HW126832   9.613   8.610  11.787
 8331SOL    HW226833   9.471   8.567  11.758
 8332SOL     OW26834  13.640   9.871  14.721
 8332SOL    HW126835  13.569   9.870  14.785
 8332SOL    HW226836  13.719   9.889  14.773
 8333SOL     OW26837   2.652   7.426  13.136
 8333SOL    HW126838   2.629   7.503  13.188
 8333SOL    HW226839   2.576   7.412  13.080
 8334SOL     OW26840  11.095  12.482   2.998
 8334SOL    HW126841  11.159  12.550   2.978
 8334SOL    HW226842  11.044  12.473   2.918
 8335SOL     OW26843  12.858   8.553  13.100
 8335SOL    HW126844  12.916   8.481  13.075
 8335SOL    HW226845  12.810   8.574  13.019
 8336SOL     OW26846  13.684  12.304   7.534
 8336SOL    HW126847  13.769  12.294   7.490
 8336SOL    HW226848  13.680  12.397   7.556
 8337SOL     OW26849   6.567   6.761   6.233
 8337SOL    HW126850   6.662   6.748   6.236
 8337SOL    HW226851   6.538   6.746   6.324
 8338SOL     OW26852   6.355   5.739   1.323
 8338SOL    HW126853   6.303   5.662   1.298
 8338SOL    HW226854   6.423   5.745   1.256
 8339SOL     OW26855   6.318   1.024   3.238
 8339SOL    HW126856   6.256   1.064   3.299
 8339SOL    HW226857   6.262   0.972   3.179
 8340SOL     OW26858   2.264   8.085  10.278
 8340SOL    HW126859   2.207   8.037  10.339
 8340SOL    HW226860   2.255   8.177  10.304
 8341SOL     OW26861   8.330  13.268   4.653
 8341SOL    HW126862   8.376  13.275   4.570
 8341SOL    HW226863   8.259  13.332   4.646
 8342SOL     OW26864   5.220  13.547   2.445
 8342SOL    HW126865   5.162  13.596   2.388
 8342SOL    HW226866   5.176  13.463   2.458
 8343SOL     OW26867   9.200  10.976   3.520
 8343SOL    HW126868   9.141  10.939   3.454
 8343SOL    HW226869   9.214  11.066   3.491
 8344SOL     OW26870  12.160   4.237   6.687
 8344SOL    HW126871  12.069   4.211   6.673
 8344SOL    HW226872  12.197   4.166   6.740
 8345SOL     OW26873  11.065   5.329   7.682
 8345SOL    HW126874  11.055   5.348   7.589
 8345SOL    HW226875  11.159   5.332   7.698
 8346SOL     OW26876   9.754   9.560   1.652
 8346SOL    HW126877   9.728   9.478   1.694
 8346SOL    HW226878   9.794   9.533   1.570
 8347SOL     OW26879   2.934   9.138  13.396
 8347SOL    HW126880   2.980   9.140  13.312
 8347SOL    HW226881   2.842   9.146  13.373
 8348SOL     OW26882   1.160  11.693  10.554
 8348SOL    HW126883   1.193  11.781  10.575
 8348SOL    HW226884   1.119  11.662  10.634
 8349SOL     OW26885   7.512   8.610  14.534
 8349SOL    HW126886   7.501   8.516  14.539
 8349SOL    HW226887   7.431   8.646  14.571
 8350SOL     OW26888  10.358  14.638   5.905
 8350SOL    HW126889  10.367  14.568   5.970
 8350SOL    HW226890  10.409  14.608   5.830
 8351SOL     OW26891   9.691  14.300   7.505
 8351SOL    HW126892   9.691  14.205   7.514
 8351SOL    HW226893   9.627  14.317   7.435
 8352SOL     OW26894  12.474   4.256   9.127
 8352SOL    HW126895  12.387   4.221   9.143
 8352SOL    HW226896  12.481   4.331   9.186
 8353SOL     OW26897   6.758  13.747   2.699
 8353SOL    HW126898   6.690  13.797   2.653
 8353SOL    HW226899   6.792  13.686   2.634
 8354SOL     OW26900   7.261   7.016   7.259
 8354SOL    HW126901   7.217   7.082   7.205
 8354SOL    HW226902   7.209   7.012   7.339
 8355SOL     OW26903   6.383   4.795   2.201
 8355SOL    HW126904   6.365   4.701   2.211
 8355SOL    HW226905   6.339   4.836   2.276
 8356SOL     OW26906  10.075   9.928   3.055
 8356SOL    HW126907  10.109   9.890   2.974
 8356SOL    HW226908  10.093   9.862   3.122
 8357SOL     OW26909   1.333   0.130   2.397
 8357SOL    HW126910   1.272   0.058   2.385
 8357SOL    HW226911   1.295   0.183   2.467
 8358SOL     OW26912   7.494  10.588  10.361
 8358SOL    HW126913   7.401  10.606  10.378
 8358SOL    HW226914   7.533  10.581  10.448
 8359SOL     OW26915   7.113  11.532   4.145
 8359SOL    HW126916   7.128  11.544   4.239
 8359SOL    HW226917   7.021  11.507   4.138
 8360SOL     OW26918   0.911  11.148   2.760
 8360SOL    HW126919   0.859  11.087   2.812
 8360SOL    HW226920   0.847  11.192   2.704
 8361SOL     OW26921  10.690  14.202  10.284
 8361SOL    HW126922  10.737  14.131  10.240
 8361SOL    HW226923  10.635  14.157  10.348
 8362SOL     OW26924   8.097   7.969  10.646
 8362SOL    HW126925   8.070   7.885  10.685
 8362SOL    HW226926   8.061   7.966  10.557
 8363SOL     OW26927   6.200   5.914   0.825
 8363SOL    HW126928   6.154   5.888   0.905
 8363SOL    HW226929   6.139   5.973   0.781
 8364SOL     OW26930   7.471  13.466   9.306
 8364SOL    HW126931   7.542  13.415   9.345
 8364SOL    HW226932   7.489  13.462   9.212
 8365SOL     OW26933   5.795   9.913   0.386
 8365SOL    HW126934   5.709   9.898   0.347
 8365SOL    HW226935   5.814  10.005   0.369
 8366SOL     OW26936   3.378   1.131   6.441
 8366SOL    HW126937   3.394   1.162   6.530
 8366SOL    HW226938   3.396   1.037   6.445
 8367SOL     OW26939   2.342   0.930  11.599
 8367SOL    HW126940   2.370   0.849  11.556
 8367SOL    HW226941   2.248   0.918  11.615
 8368SOL     OW26942   8.215   7.097   8.646
 8368SOL    HW126943   8.191   7.019   8.697
 8368SOL    HW226944   8.135   7.120   8.599
 8369SOL     OW26945   9.379   1.273   5.681
 8369SOL    HW126946   9.286   1.269   5.658
 8369SOL    HW226947   9.386   1.225   5.763
 8370SOL     OW26948   6.198  13.799  10.589
 8370SOL    HW126949   6.214  13.714  10.630
 8370SOL    HW226950   6.110  13.792  10.553
 8371SOL     OW26951   7.183  14.631   5.754
 8371SOL    HW126952   7.092  14.655   5.737
 8371SOL    HW226953   7.212  14.588   5.674
 8372SOL     OW26954   9.230   8.355   3.249
 8372SOL    HW126955   9.265   8.267   3.262
 8372SOL    HW226956   9.308   8.411   3.249
 8373SOL     OW26957  10.379   2.529   4.882
 8373SOL    HW126958  10.463   2.549   4.841
 8373SOL    HW226959  10.399   2.460   4.945
 8374SOL     OW26960  11.496  12.417   6.215
 8374SOL    HW126961  11.468  12.500   6.253
 8374SOL    HW226962  11.464  12.420   6.125
 8375SOL     OW26963  12.990   5.167   7.874
 8375SOL    HW126964  13.049   5.242   7.868
 8375SOL    HW226965  13.004   5.133   7.963
 8376SOL     OW26966   3.818   9.847  12.160
 8376SOL    HW126967   3.791   9.775  12.218
 8376SOL    HW226968   3.913   9.852  12.170
 8377SOL     OW26969  14.344   4.644  13.658
 8377SOL    HW126970  14.340   4.625  13.752
 8377SOL    HW226971  14.269   4.597  13.621
 8378SOL     OW26972   5.437  12.895   6.137
 8378SOL    HW126973   5.421  12.820   6.194
 8378SOL    HW226974   5.353  12.939   6.130
 8379SOL     OW26975  12.873  11.062   0.159
 8379SOL    HW126976  12.782  11.065   0.188
 8379SOL    HW226977  12.906  10.979   0.193
 8380SOL     OW26978   6.653   4.537  14.058
 8380SOL    HW126979   6.582   4.532  14.123
 8380SOL    HW226980   6.733   4.539  14.110
 8381SOL     OW26981   0.360   3.497   1.548
 8381SOL    HW126982   0.437   3.504   1.604
 8381SOL    HW226983   0.321   3.584   1.551
 8382SOL     OW26984  14.838   5.306   0.324
 8382SOL    HW126985  14.748   5.330   0.305
 8382SOL    HW226986  14.849   5.327   0.417
 8383SOL     OW26987   2.076  13.705   0.887
 8383SOL    HW126988   2.146  13.680   0.827
 8383SOL    HW226989   2.041  13.622   0.920
 8384SOL     OW26990   5.104  11.650   6.837
 8384SOL    HW126991   5.140  11.703   6.908
 8384SOL    HW226992   5.179  11.603   6.801
 8385SOL     OW26993   7.276   5.065   6.474
 8385SOL    HW126994   7.316   5.007   6.409
 8385SOL    HW226995   7.344   5.128   6.495
 8386SOL     OW26996   4.926   6.277  14.295
 8386SOL    HW126997   4.956   6.208  14.354
 8386SOL    HW226998   4.928   6.357  14.348
 8387SOL     OW26999  11.033  10.696   2.717
 8387SOL    HW127000  11.014  10.605   2.741
 8387SOL    HW227001  11.090  10.689   2.641
 8388SOL     OW27002  13.439   7.614   8.749
 8388SOL    HW127003  13.373   7.630   8.818
 8388SOL    HW227004  13.390   7.619   8.667
 8389SOL     OW27005   8.113   7.453   0.326
 8389SOL    HW127006   8.096   7.532   0.376
 8389SOL    HW227007   8.068   7.467   0.243
 8390SOL     OW27008   1.137  10.872   4.253
 8390SOL    HW127009   1.213  10.896   4.200
 8390SOL    HW227010   1.106  10.955   4.288
 8391SOL     OW27011  13.833  10.039   0.080
 8391SOL    HW127012  13.764  10.099   0.051
 8391SOL    HW227013  13.826  10.038   0.175
 8392SOL     OW27014   4.790  14.159   1.816
 8392SOL    HW127015   4.879  14.127   1.797
 8392SOL    HW227016   4.766  14.116   1.898
 8393SOL     OW27017  11.088   0.100   8.263
 8393SOL    HW127018  11.164   0.120   8.208
 8393SOL    HW227019  11.023   0.166   8.240
 8394SOL     OW27020  13.531   2.719   2.269
 8394SOL    HW127021  13.467   2.648   2.266
 8394SOL    HW227022  13.483   2.794   2.302
 8395SOL     OW27023  10.842   9.338  10.453
 8395SOL    HW127024  10.865   9.284  10.528
 8395SOL    HW227025  10.764   9.297  10.416
 8396SOL     OW27026   7.428  13.203   1.484
 8396SOL    HW127027   7.430  13.287   1.530
 8396SOL    HW227028   7.499  13.209   1.420
 8397SOL     OW27029   5.624   4.478  13.251
 8397SOL    HW127030   5.675   4.560  13.247
 8397SOL    HW227031   5.599   4.461  13.161
 8398SOL     OW27032  11.902   0.596   8.031
 8398SOL    HW127033  11.873   0.687   8.030
 8398SOL    HW227034  11.873   0.563   8.116
 8399SOL     OW27035   6.718   9.172   1.071
 8399SOL    HW127036   6.686   9.179   1.161
 8399SOL    HW227037   6.801   9.221   1.071
 8400SOL     OW27038   9.835   3.143   5.529
 8400SOL    HW127039   9.903   3.080   5.505
 8400SOL    HW227040   9.879   3.206   5.586
 8401SOL     OW27041  10.708   8.284   7.057
 8401SOL    HW127042  10.635   8.234   7.093
 8401SOL    HW227043  10.767   8.217   7.022
 8402SOL     OW27044   3.492   0.298   3.688
 8402SOL    HW127045   3.527   0.378   3.727
 8402SOL    HW227046   3.471   0.242   3.763
 8403SOL     OW27047  14.110   8.824   0.961
 8403SOL    HW127048  14.026   8.832   1.006
 8403SOL    HW227049  14.087   8.805   0.870
 8404SOL     OW27050  11.447   2.939  12.443
 8404SOL    HW127051  11.533   2.940  12.401
 8404SOL    HW227052  11.438   3.025  12.484
 8405SOL     OW27053   3.610   3.893  11.980
 8405SOL    HW127054   3.584   3.904  12.071
 8405SOL    HW227055   3.601   3.799  11.964
 8406SOL     OW27056   2.904   0.044  12.380
 8406SOL    HW127057   2.888   0.068  12.472
 8406SOL    HW227058   2.956  14.843  12.385
 8407SOL     OW27059   1.913   6.151   4.136
 8407SOL    HW127060   1.818   6.151   4.148
 8407SOL    HW227061   1.927   6.186   4.049
 8408SOL     OW27062   1.501   2.900  12.077
 8408SOL    HW127063   1.410   2.927  12.090
 8408SOL    HW227064   1.511   2.823  12.133
 8409SOL     OW27065   2.198   2.555   3.846
 8409SOL    HW127066   2.258   2.524   3.914
 8409SOL    HW227067   2.248   2.622   3.799
 8410SOL     OW27068   0.530   3.622  12.992
 8410SOL    HW127069   0.501   3.708  13.023
 8410SOL    HW227070   0.512   3.625  12.898
 8411SOL     OW27071   9.370   1.366   8.000
 8411SOL    HW127072   9.334   1.331   8.081
 8411SOL    HW227073   9.295   1.372   7.941
 8412SOL     OW27074   4.589  13.432  10.987
 8412SOL    HW127075   4.529  13.433  10.912
 8412SOL    HW227076   4.559  13.503  11.043
 8413SOL     OW27077   9.065   0.374   9.675
 8413SOL    HW127078   9.116   0.296   9.699
 8413SOL    HW227079   9.115   0.447   9.711
 8414SOL     OW27080   3.197  14.209   0.662
 8414SOL    HW127081   3.242  14.125   0.657
 8414SOL    HW227082   3.107  14.187   0.687
 8415SOL     OW27083   3.568   9.358   7.903
 8415SOL    HW127084   3.562   9.423   7.973
 8415SOL    HW227085   3.489   9.372   7.851
 8416SOL     OW27086   2.590   9.495   5.169
 8416SOL    HW127087   2.522   9.562   5.160
 8416SOL    HW227088   2.636   9.496   5.086
 8417SOL     OW27089  11.510  11.084   0.168
 8417SOL    HW127090  11.602  11.103   0.189
 8417SOL    HW227091  11.461  11.115   0.243
 8418SOL     OW27092  10.399  11.855   6.886
 8418SOL    HW127093  10.480  11.816   6.917
 8418SOL    HW227094  10.365  11.904   6.961
 8419SOL     OW27095   4.910  11.833   3.934
 8419SOL    HW127096   4.882  11.799   4.019
 8419SOL    HW227097   5.002  11.856   3.947
 8420SOL     OW27098   6.736   3.130   4.619
 8420SOL    HW127099   6.660   3.072   4.612
 8420SOL    HW227100   6.762   3.147   4.529
 8421SOL     OW27101  10.558   0.739  10.051
 8421SOL    HW127102  10.644   0.709  10.022
 8421SOL    HW227103  10.504   0.739   9.971
 8422SOL     OW27104   0.406  13.059   9.244
 8422SOL    HW127105   0.400  13.042   9.338
 8422SOL    HW227106   0.470  12.995   9.212
 8423SOL     OW27107  13.615   2.467   1.685
 8423SOL    HW127108  13.683   2.443   1.748
 8423SOL    HW227109  13.559   2.529   1.732
 8424SOL     OW27110   5.574   9.660  14.367
 8424SOL    HW127111   5.577   9.675  14.273
 8424SOL    HW227112   5.495   9.706  14.397
 8425SOL     OW27113  13.228  14.690   2.206
 8425SOL    HW127114  13.307  14.715   2.255
 8425SOL    HW227115  13.249  14.603   2.171
 8426SOL     OW27116   5.031   0.926   1.188
 8426SOL    HW127117   5.074   1.008   1.165
 8426SOL    HW227118   5.045   0.917   1.282
 8427SOL     OW27119  14.313  12.404  10.267
 8427SOL    HW127120  14.362  12.459  10.328
 8427SOL    HW227121  14.380  12.365  10.210
 8428SOL     OW27122  13.922  13.963   7.786
 8428SOL    HW127123  13.846  13.912   7.816
 8428SOL    HW227124  13.891  14.008   7.708
 8429SOL     OW27125  13.105   4.251   0.142
 8429SOL    HW127126  13.173   4.229   0.079
 8429SOL    HW227127  13.134   4.211   0.224
 8430SOL     OW27128  12.711  14.207  13.118
 8430SOL    HW127129  12.711  14.299  13.092
 8430SOL    HW227130  12.637  14.198  13.178
 8431SOL     OW27131   1.413  10.767   1.162
 8431SOL    HW127132   1.443  10.772   1.071
 8431SOL    HW227133   1.369  10.682   1.167
 8432SOL     OW27134  11.188  12.944  10.577
 8432SOL    HW127135  11.167  12.912  10.489
 8432SOL    HW227136  11.271  12.903  10.598
 8433SOL     OW27137  13.346   4.858   8.043
 8433SOL    HW127138  13.344   4.827   8.134
 8433SOL    HW227139  13.347   4.778   7.990
 8434SOL     OW27140   2.000   8.099   2.925
 8434SOL    HW127141   2.032   8.182   2.890
 8434SOL    HW227142   2.072   8.038   2.912
 8435SOL     OW27143   6.745   1.542  11.210
 8435SOL    HW127144   6.701   1.623  11.238
 8435SOL    HW227145   6.715   1.476  11.271
 8436SOL     OW27146  11.283   9.949  14.219
 8436SOL    HW127147  11.273  10.039  14.187
 8436SOL    HW227148  11.198   9.927  14.258
 8437SOL     OW27149   3.958  11.656   6.594
 8437SOL    HW127150   3.972  11.564   6.572
 8437SOL    HW227151   4.043  11.685   6.628
 8438SOL     OW27152   1.904   1.056  12.350
 8438SOL    HW127153   1.904   1.085  12.259
 8438SOL    HW227154   1.993   1.025  12.367
 8439SOL     OW27155  12.292  10.120   0.614
 8439SOL    HW127156  12.217  10.159   0.658
 8439SOL    HW227157  12.291  10.028   0.642
 8440SOL     OW27158   0.987   3.065  13.732
 8440SOL    HW127159   1.004   3.134  13.796
 8440SOL    HW227160   0.892   3.068  13.719
 8441SOL     OW27161   1.083   8.038   1.890
 8441SOL    HW127162   1.173   8.030   1.921
 8441SOL    HW227163   1.029   8.019   1.967
 8442SOL     OW27164  12.645   8.809  14.761
 8442SOL    HW127165  12.566   8.765  14.729
 8442SOL    HW227166  12.709   8.796  14.692
 8443SOL     OW27167   9.766  10.221   9.765
 8443SOL    HW127168   9.810  10.290   9.716
 8443SOL    HW227169   9.692  10.264   9.807
 8444SOL     OW27170  14.855   1.396   9.567
 8444SOL    HW127171  14.862   1.325   9.631
 8444SOL    HW227172   0.002   1.357   9.484
 8445SOL     OW27173   4.952   5.561   7.810
 8445SOL    HW127174   4.993   5.502   7.747
 8445SOL    HW227175   4.891   5.613   7.758
 8446SOL     OW27176  14.184   0.323  13.507
 8446SOL    HW127177  14.227   0.373  13.576
 8446SOL    HW227178  14.203   0.371  13.426
 8447SOL     OW27179   0.690   7.042   8.189
 8447SOL    HW127180   0.751   7.101   8.144
 8447SOL    HW227181   0.723   7.037   8.279
 8448SOL     OW27182   4.247   9.842   4.685
 8448SOL    HW127183   4.166   9.814   4.643
 8448SOL    HW227184   4.292   9.760   4.708
 8449SOL     OW27185  13.885   6.464  14.541
 8449SOL    HW127186  13.893   6.435  14.450
 8449SOL    HW227187  13.969   6.504  14.560
 8450SOL     OW27188   6.948   6.280   4.204
 8450SOL    HW127189   7.031   6.232   4.202
 8450SOL    HW227190   6.919   6.275   4.295
 8451SOL     OW27191  10.110   2.906  12.057
 8451SOL    HW127192  10.144   2.957  11.984
 8451SOL    HW227193  10.170   2.831  12.064
 8452SOL     OW27194   0.064  11.264   9.971
 8452SOL    HW127195   0.072  11.356   9.996
 8452SOL    HW227196   0.144  11.246   9.922
 8453SOL     OW27197  13.816  14.085   7.580
 8453SOL    HW127198  13.730  14.126   7.580
 8453SOL    HW227199  13.850  14.099   7.492
 8454SOL     OW27200   9.009  11.694   4.713
 8454SOL    HW127201   8.988  11.640   4.636
 8454SOL    HW227202   9.064  11.764   4.678
 8455SOL     OW27203   6.532  13.628  10.833
 8455SOL    HW127204   6.477  13.658  10.905
 8455SOL    HW227205   6.621  13.635  10.867
 8456SOL     OW27206   4.428   3.824   2.301
 8456SOL    HW127207   4.363   3.876   2.253
 8456SOL    HW227208   4.512   3.866   2.279
 8457SOL     OW27209   7.446   4.036   3.703
 8457SOL    HW127210   7.513   3.985   3.657
 8457SOL    HW227211   7.495   4.106   3.747
 8458SOL     OW27212   5.016   2.577   8.679
 8458SOL    HW127213   4.976   2.659   8.706
 8458SOL    HW227214   5.067   2.549   8.755
 8459SOL     OW27215   6.209   8.151   2.102
 8459SOL    HW127216   6.289   8.175   2.149
 8459SOL    HW227217   6.241   8.116   2.019
 8460SOL     OW27218   6.139   5.732   2.791
 8460SOL    HW127219   6.222   5.777   2.808
 8460SOL    HW227220   6.097   5.783   2.722
 8461SOL     OW27221   2.380   8.777   5.111
 8461SOL    HW127222   2.370   8.806   5.202
 8461SOL    HW227223   2.426   8.849   5.068
 8462SOL     OW27224   3.874  10.229   6.253
 8462SOL    HW127225   3.846  10.150   6.206
 8462SOL    HW227226   3.965  10.240   6.229
 8463SOL     OW27227   8.947   2.186   3.289
 8463SOL    HW127228   8.873   2.221   3.240
 8463SOL    HW227229   8.962   2.251   3.358
 8464SOL     OW27230   1.822  11.919  10.648
 8464SOL    HW127231   1.811  12.001  10.696
 8464SOL    HW227232   1.849  11.946  10.560
 8465SOL     OW27233   9.318   9.466  11.032
 8465SOL    HW127234   9.345   9.499  10.946
 8465SOL    HW227235   9.341   9.535  11.093
 8466SOL     OW27236   5.591   1.771   5.622
 8466SOL    HW127237   5.563   1.696   5.569
 8466SOL    HW227238   5.685   1.779   5.603
 8467SOL     OW27239   9.380   2.562   1.050
 8467SOL    HW127240   9.288   2.583   1.069
 8467SOL    HW227241   9.402   2.617   0.975
 8468SOL     OW27242   3.873   7.073   5.406
 8468SOL    HW127243   3.819   7.007   5.361
 8468SOL    HW227244   3.856   7.154   5.358
 8469SOL     OW27245   5.557   5.485   3.076
 8469SOL    HW127246   5.652   5.489   3.085
 8469SOL    HW227247   5.525   5.559   3.127
 8470SOL     OW27248   7.423   5.526   7.896
 8470SOL    HW127249   7.475   5.564   7.824
 8470SOL    HW227250   7.479   5.459   7.933
 8471SOL     OW27251  12.938   0.182  12.766
 8471SOL    HW127252  12.853   0.215  12.798
 8471SOL    HW227253  12.995   0.185  12.843
 8472SOL     OW27254   9.079   5.186  10.571
 8472SOL    HW127255   8.990   5.154  10.556
 8472SOL    HW227256   9.068   5.259  10.631
 8473SOL     OW27257   2.867   5.263   8.748
 8473SOL    HW127258   2.825   5.337   8.703
 8473SOL    HW227259   2.846   5.187   8.694
 8474SOL     OW27260   8.234   3.971  14.403
 8474SOL    HW127261   8.238   3.962  14.308
 8474SOL    HW227262   8.250   3.882  14.436
 8475SOL     OW27263  11.189  14.596   7.822
 8475SOL    HW127264  11.238  14.674   7.799
 8475SOL    HW227265  11.231  14.565   7.903
 8476SOL     OW27266  10.501   0.363   6.399
 8476SOL    HW127267  10.428   0.310   6.431
 8476SOL    HW227268  10.525   0.322   6.316
 8477SOL     OW27269   3.644  12.423   3.851
 8477SOL    HW127270   3.603  12.356   3.906
 8477SOL    HW227271   3.686  12.483   3.913
 8478SOL     OW27272   6.249   6.165   8.096
 8478SOL    HW127273   6.330   6.214   8.111
 8478SOL    HW227274   6.255   6.137   8.005
 8479SOL     OW27275   1.076   8.413   8.654
 8479SOL    HW127276   1.080   8.507   8.633
 8479SOL    HW227277   0.997   8.404   8.706
 8480SOL     OW27278   7.050   4.426   4.844
 8480SOL    HW127279   7.018   4.338   4.862
 8480SOL    HW227280   7.026   4.441   4.752
 8481SOL     OW27281   1.965  11.350  11.624
 8481SOL    HW127282   1.870  11.358  11.635
 8481SOL    HW227283   1.994  11.440  11.607
 8482SOL     OW27284   4.202   1.085   6.917
 8482SOL    HW127285   4.256   1.142   6.863
 8482SOL    HW227286   4.265   1.024   6.957
 8483SOL     OW27287  12.724  12.631   9.577
 8483SOL    HW127288  12.688  12.715   9.549
 8483SOL    HW227289  12.800  12.618   9.520
 8484SOL     OW27290   5.002   5.943   2.924
 8484SOL    HW127291   4.912   5.916   2.935
 8484SOL    HW227292   5.012   6.018   2.982
 8485SOL     OW27293   4.595   5.270   1.507
 8485SOL    HW127294   4.586   5.182   1.471
 8485SOL    HW227295   4.625   5.323   1.434
 8486SOL     OW27296   4.989   7.269   4.423
 8486SOL    HW127297   5.027   7.355   4.440
 8486SOL    HW227298   4.897   7.286   4.404
 8487SOL     OW27299  11.353   9.604   8.850
 8487SOL    HW127300  11.409   9.677   8.823
 8487SOL    HW227301  11.413   9.543   8.893
 8488SOL     OW27302   7.976   4.513  11.310
 8488SOL    HW127303   8.022   4.506  11.226
 8488SOL    HW227304   7.919   4.589  11.299
 8489SOL     OW27305   4.132   6.728  10.382
 8489SOL    HW127306   4.113   6.637  10.357
 8489SOL    HW227307   4.060   6.779  10.346
 8490SOL     OW27308  14.206   9.372  10.258
 8490SOL    HW127309  14.228   9.420  10.178
 8490SOL    HW227310  14.175   9.440  10.319
 8491SOL     OW27311   8.260   2.299   3.402
 8491SOL    HW127312   8.329   2.240   3.373
 8491SOL    HW227313   8.290   2.386   3.375
 8492SOL     OW27314   2.284   8.902  10.076
 8492SOL    HW127315   2.196   8.893  10.113
 8492SOL    HW227316   2.270   8.911   9.982
 8493SOL     OW27317   1.733   7.485   7.090
 8493SOL    HW127318   1.651   7.485   7.139
 8493SOL    HW227319   1.722   7.554   7.025
 8494SOL     OW27320  10.347   3.258   5.390
 8494SOL    HW127321  10.380   3.322   5.328
 8494SOL    HW227322  10.269   3.221   5.348
 8495SOL     OW27323   6.200   2.526   5.571
 8495SOL    HW127324   6.250   2.574   5.636
 8495SOL    HW227325   6.263   2.465   5.533
 8496SOL     OW27326   4.248   6.967   8.752
 8496SOL    HW127327   4.202   6.988   8.833
 8496SOL    HW227328   4.341   6.964   8.777
 8497SOL     OW27329   9.920  10.793  12.348
 8497SOL    HW127330   9.918  10.887  12.333
 8497SOL    HW227331  10.013  10.772  12.358
 8498SOL     OW27332   3.823   6.114   8.782
 8498SOL    HW127333   3.769   6.035   8.778
 8498SOL    HW227334   3.848   6.121   8.874
 8499SOL     OW27335   3.122   3.856  12.878
 8499SOL    HW127336   3.154   3.830  12.965
 8499SOL    HW227337   3.038   3.900  12.897
 8500SOL     OW27338   0.956   7.611  11.329
 8500SOL    HW127339   1.041   7.654  11.318
 8500SOL    HW227340   0.892   7.682  11.320
 8501SOL     OW27341   9.461   6.354   6.871
 8501SOL    HW127342   9.537   6.335   6.926
 8501SOL    HW227343   9.440   6.446   6.890
 8502SOL     OW27344   9.040  10.318   2.294
 8502SOL    HW127345   9.128  10.354   2.305
 8502SOL    HW227346   9.048  10.256   2.222
 8503SOL     OW27347   9.104  10.148   1.862
 8503SOL    HW127348   9.111  10.101   1.779
 8503SOL    HW227349   9.167  10.104   1.920
 8504SOL     OW27350  11.420   0.485   3.476
 8504SOL    HW127351  11.362   0.429   3.527
 8504SOL    HW227352  11.503   0.483   3.523
 8505SOL     OW27353   4.285   6.903  11.875
 8505SOL    HW127354   4.308   6.813  11.853
 8505SOL    HW227355   4.321   6.955  11.803
 8506SOL     OW27356   1.853   6.575   4.841
 8506SOL    HW127357   1.790   6.503   4.832
 8506SOL    HW227358   1.938   6.535   4.824
 8507SOL     OW27359   6.054  12.666   6.468
 8507SOL    HW127360   6.016  12.595   6.521
 8507SOL    HW227361   6.148  12.650   6.471
 8508SOL     OW27362   3.551   1.274   7.911
 8508SOL    HW127363   3.460   1.296   7.892
 8508SOL    HW227364   3.578   1.218   7.838
 8509SOL     OW27365   6.123   2.895  10.921
 8509SOL    HW127366   6.040   2.891  10.969
 8509SOL    HW227367   6.189   2.875  10.988
 8510SOL     OW27368   4.115   7.440   1.774
 8510SOL    HW127369   4.138   7.533   1.769
 8510SOL    HW227370   4.186   7.400   1.824
 8511SOL     OW27371   8.733  11.246  11.672
 8511SOL    HW127372   8.812  11.212  11.715
 8511SOL    HW227373   8.666  11.180  11.689
 8512SOL     OW27374   3.716   8.976  10.045
 8512SOL    HW127375   3.679   8.895  10.079
 8512SOL    HW227376   3.743   8.955   9.955
 8513SOL     OW27377  14.318   4.049   1.046
 8513SOL    HW127378  14.402   4.081   1.078
 8513SOL    HW227379  14.333   4.032   0.953
 8514SOL     OW27380   6.635   7.475   1.345
 8514SOL    HW127381   6.712   7.430   1.382
 8514SOL    HW227382   6.657   7.486   1.253
 8515SOL     OW27383   6.481   8.885  12.992
 8515SOL    HW127384   6.536   8.842  12.926
 8515SOL    HW227385   6.442   8.813  13.042
 8516SOL     OW27386  12.441   9.016   4.386
 8516SOL    HW127387  12.380   9.068   4.334
 8516SOL    HW227388  12.400   8.930   4.392
 8517SOL     OW27389   4.027  11.948   6.326
 8517SOL    HW127390   4.080  11.927   6.249
 8517SOL    HW227391   3.958  11.882   6.325
 8518SOL     OW27392   2.671   8.937   0.374
 8518SOL    HW127393   2.766   8.921   0.375
 8518SOL    HW227394   2.661   9.023   0.333
 8519SOL     OW27395  14.583  10.426   9.974
 8519SOL    HW127396  14.665  10.463   9.943
 8519SOL    HW227397  14.584  10.335   9.944
 8520SOL     OW27398   4.696   6.356  14.169
 8520SOL    HW127399   4.779   6.327  14.208
 8520SOL    HW227400   4.637   6.366  14.244
 8521SOL     OW27401   6.194  12.464  13.675
 8521SOL    HW127402   6.122  12.440  13.618
 8521SOL    HW227403   6.254  12.390  13.670
 8522SOL     OW27404   9.698   7.475  10.367
 8522SOL    HW127405   9.786   7.442  10.347
 8522SOL    HW227406   9.687   7.458  10.461
 8523SOL     OW27407  13.575   0.775   2.310
 8523SOL    HW127408  13.649   0.806   2.259
 8523SOL    HW227409  13.614   0.727   2.383
 8524SOL     OW27410   1.325  10.656  14.428
 8524SOL    HW127411   1.309  10.596  14.501
 8524SOL    HW227412   1.419  10.672  14.430
 8525SOL     OW27413   2.749   0.600  13.434
 8525SOL    HW127414   2.790   0.643  13.509
 8525SOL    HW227415   2.774   0.508  13.441
 8526SOL     OW27416   5.818   8.764   3.365
 8526SOL    HW127417   5.752   8.808   3.418
 8526SOL    HW227418   5.819   8.674   3.398
 8527SOL     OW27419   8.980   1.386   1.220
 8527SOL    HW127420   8.939   1.399   1.134
 8527SOL    HW227421   9.073   1.375   1.200
 8528SOL     OW27422   4.136  12.524  10.979
 8528SOL    HW127423   4.214  12.555  10.933
 8528SOL    HW227424   4.065  12.579  10.947
 8529SOL     OW27425  12.068   7.569  12.915
 8529SOL    HW127426  12.105   7.485  12.889
 8529SOL    HW227427  12.103   7.586  13.002
 8530SOL     OW27428  11.416   8.973   8.204
 8530SOL    HW127429  11.383   8.921   8.131
 8530SOL    HW227430  11.483   9.029   8.165
 8531SOL     OW27431   4.449   9.765   7.832
 8531SOL    HW127432   4.454   9.688   7.774
 8531SOL    HW227433   4.523   9.819   7.807
 8532SOL     OW27434  10.460   4.465   5.753
 8532SOL    HW127435  10.489   4.504   5.835
 8532SOL    HW227436  10.489   4.526   5.685
 8533SOL     OW27437   2.208  11.127  12.211
 8533SOL    HW127438   2.250  11.096  12.131
 8533SOL    HW227439   2.168  11.210  12.187
 8534SOL     OW27440   1.186   4.769   6.027
 8534SOL    HW127441   1.127   4.770   6.102
 8534SOL    HW227442   1.271   4.745   6.062
 8535SOL     OW27443   3.055  11.400   8.423
 8535SOL    HW127444   3.056  11.489   8.387
 8535SOL    HW227445   3.122  11.353   8.374
 8536SOL     OW27446  10.379   4.460   6.827
 8536SOL    HW127447  10.442   4.505   6.771
 8536SOL    HW227448  10.384   4.368   6.800
 8537SOL     OW27449   8.538  14.475   0.391
 8537SOL    HW127450   8.467  14.504   0.447
 8537SOL    HW227451   8.519  14.383   0.373
 8538SOL     OW27452   5.845   6.668   7.312
 8538SOL    HW127453   5.828   6.577   7.288
 8538SOL    HW227454   5.839   6.669   7.408
 8539SOL     OW27455  10.889  14.460  10.426
 8539SOL    HW127456  10.885  14.408  10.346
 8539SOL    HW227457  10.836  14.538  10.407
 8540SOL     OW27458   3.187   5.988   9.705
 8540SOL    HW127459   3.246   6.009   9.633
 8540SOL    HW227460   3.201   6.057   9.770
 8541SOL     OW27461   0.950  10.125   0.842
 8541SOL    HW127462   0.887  10.185   0.883
 8541SOL    HW227463   0.907  10.040   0.845
 8542SOL     OW27464  12.322   3.209   3.189
 8542SOL    HW127465  12.240   3.207   3.138
 8542SOL    HW227466  12.293   3.224   3.279
 8543SOL     OW27467   1.278   1.998   0.451
 8543SOL    HW127468   1.368   1.969   0.468
 8543SOL    HW227469   1.277   2.020   0.358
 8544SOL     OW27470  14.128   1.801   9.980
 8544SOL    HW127471  14.142   1.723   9.925
 8544SOL    HW227472  14.062   1.851   9.932
 8545SOL     OW27473   1.684   8.404   7.781
 8545SOL    HW127474   1.601   8.451   7.774
 8545SOL    HW227475   1.663   8.314   7.755
 8546SOL     OW27476   0.181  14.002   0.940
 8546SOL    HW127477   0.155  14.088   0.972
 8546SOL    HW227478   0.127  13.989   0.862
 8547SOL     OW27479   5.514   3.392   6.862
 8547SOL    HW127480   5.442   3.441   6.902
 8547SOL    HW227481   5.536   3.326   6.927
 8548SOL     OW27482   6.879  10.930   0.593
 8548SOL    HW127483   6.844  10.842   0.583
 8548SOL    HW227484   6.961  10.918   0.642
 8549SOL     OW27485   1.773   6.745   7.240
 8549SOL    HW127486   1.858   6.701   7.241
 8549SOL    HW227487   1.737   6.730   7.328
 8550SOL     OW27488   9.508  10.052   3.633
 8550SOL    HW127489   9.472  10.137   3.610
 8550SOL    HW227490   9.431   9.994   3.637
 8551SOL     OW27491   4.743   2.408   7.121
 8551SOL    HW127492   4.718   2.448   7.204
 8551SOL    HW227493   4.662   2.405   7.070
 8552SOL     OW27494   6.052  14.574   0.861
 8552SOL    HW127495   5.967  14.594   0.820
 8552SOL    HW227496   6.039  14.597   0.953
 8553SOL     OW27497   5.094  13.220  14.244
 8553SOL    HW127498   5.117  13.311  14.260
 8553SOL    HW227499   5.129  13.202  14.157
 8554SOL     OW27500   6.175  14.245   7.817
 8554SOL    HW127501   6.186  14.179   7.748
 8554SOL    HW227502   6.264  14.265   7.846
 8555SOL     OW27503  12.347   7.483   7.224
 8555SOL    HW127504  12.293   7.554   7.188
 8555SOL    HW227505  12.381   7.438   7.146
 8556SOL     OW27506  12.487   2.105  13.317
 8556SOL    HW127507  12.483   2.146  13.230
 8556SOL    HW227508  12.526   2.020  13.301
 8557SOL     OW27509  14.481   0.926   7.300
 8557SOL    HW127510  14.453   0.846   7.344
 8557SOL    HW227511  14.563   0.902   7.257
 8558SOL     OW27512  12.329   5.991   1.527
 8558SOL    HW127513  12.346   6.081   1.498
 8558SOL    HW227514  12.409   5.965   1.572
 8559SOL     OW27515   0.408   6.227   9.178
 8559SOL    HW127516   0.364   6.170   9.115
 8559SOL    HW227517   0.433   6.304   9.128
 8560SOL     OW27518  10.502  14.663   2.613
 8560SOL    HW127519  10.419  14.695   2.648
 8560SOL    HW227520  10.518  14.717   2.535
 8561SOL     OW27521   5.817   1.946   4.739
 8561SOL    HW127522   5.790   1.859   4.711
 8561SOL    HW227523   5.776   2.005   4.675
 8562SOL     OW27524  13.201   1.729   7.866
 8562SOL    HW127525  13.202   1.635   7.888
 8562SOL    HW227526  13.210   1.773   7.950
 8563SOL     OW27527   1.026  13.810  13.744
 8563SOL    HW127528   0.938  13.830  13.711
 8563SOL    HW227529   1.073  13.893  13.737
 8564SOL     OW27530   6.491   3.816   6.369
 8564SOL    HW127531   6.549   3.892   6.360
 8564SOL    HW227532   6.463   3.797   6.280
 8565SOL     OW27533  11.623  13.849   7.389
 8565SOL    HW127534  11.635  13.763   7.428
 8565SOL    HW227535  11.709  13.891   7.396
 8566SOL     OW27536  11.750  12.373   0.435
 8566SOL    HW127537  11.793  12.290   0.454
 8566SOL    HW227538  11.753  12.420   0.519
 8567SOL     OW27539   1.191   0.685  10.126
 8567SOL    HW127540   1.122   0.689  10.192
 8567SOL    HW227541   1.147   0.652  10.047
 8568SOL     OW27542   1.346   0.275   5.551
 8568SOL    HW127543   1.333   0.271   5.456
 8568SOL    HW227544   1.317   0.190   5.582
 8569SOL     OW27545   7.261  10.471  11.417
 8569SOL    HW127546   7.251  10.557  11.376
 8569SOL    HW227547   7.350  10.443  11.396
 8570SOL     OW27548   2.117   0.867  10.421
 8570SOL    HW127549   2.182   0.810  10.380
 8570SOL    HW227550   2.066   0.902  10.348
 8571SOL     OW27551   4.190   7.751   7.793
 8571SOL    HW127552   4.163   7.752   7.884
 8571SOL    HW227553   4.274   7.797   7.791
 8572SOL     OW27554   5.174  12.595   7.889
 8572SOL    HW127555   5.190  12.608   7.982
 8572SOL    HW227556   5.254  12.554   7.856
 8573SOL     OW27557  12.508   7.998   3.126
 8573SOL    HW127558  12.531   8.041   3.209
 8573SOL    HW227559  12.570   8.035   3.063
 8574SOL     OW27560  13.156   6.812   7.935
 8574SOL    HW127561  13.146   6.718   7.952
 8574SOL    HW227562  13.073   6.850   7.965
 8575SOL     OW27563  14.062   5.596   6.226
 8575SOL    HW127564  14.067   5.691   6.238
 8575SOL    HW227565  14.112   5.580   6.146
 8576SOL     OW27566   9.663   2.385  11.341
 8576SOL    HW127567   9.621   2.305  11.370
 8576SOL    HW227568   9.616   2.455  11.385
 8577SOL     OW27569  12.454   9.402   9.199
 8577SOL    HW127570  12.363   9.397   9.170
 8577SOL    HW227571  12.450   9.452   9.280
 8578SOL     OW27572  12.846  11.815   7.209
 8578SOL    HW127573  12.789  11.739   7.202
 8578SOL    HW227574  12.926  11.790   7.163
 8579SOL     OW27575   7.471  11.681  12.890
 8579SOL    HW127576   7.551  11.718  12.928
 8579SOL    HW227577   7.429  11.634  12.962
 8580SOL     OW27578   7.604   7.263   9.747
 8580SOL    HW127579   7.593   7.220   9.662
 8580SOL    HW227580   7.549   7.342   9.742
 8581SOL     OW27581  13.070  12.621   0.635
 8581SOL    HW127582  13.036  12.547   0.686
 8581SOL    HW227583  13.055  12.697   0.691
 8582SOL     OW27584   6.109   1.275   2.691
 8582SOL    HW127585   6.166   1.210   2.651
 8582SOL    HW227586   6.167   1.349   2.710
 8583SOL     OW27587  14.234   0.261   9.064
 8583SOL    HW127588  14.171   0.218   9.006
 8583SOL    HW227589  14.221   0.354   9.050
 8584SOL     OW27590  12.712   9.520   9.757
 8584SOL    HW127591  12.649   9.586   9.788
 8584SOL    HW227592  12.733   9.548   9.668
 8585SOL     OW27593  13.613  10.960   0.168
 8585SOL    HW127594  13.705  10.953   0.144
 8585SOL    HW227595  13.599  10.887   0.229
 8586SOL     OW27596   0.176  13.419  14.183
 8586SOL    HW127597   0.266  13.403  14.211
 8586SOL    HW227598   0.127  13.432  14.265
 8587SOL     OW27599  14.455   9.606  14.164
 8587SOL    HW127600  14.523   9.607  14.231
 8587SOL    HW227601  14.473   9.684  14.111
 8588SOL     OW27602   6.622   5.178   4.864
 8588SOL    HW127603   6.662   5.262   4.885
 8588SOL    HW227604   6.649   5.161   4.774
 8589SOL     OW27605   7.917   0.485  14.196
 8589SOL    HW127606   7.894   0.538  14.272
 8589SOL    HW227607   7.888   0.397  14.218
 8590SOL     OW27608   8.472   5.909   0.623
 8590SOL    HW127609   8.379   5.911   0.598
 8590SOL    HW227610   8.499   6.001   0.620
 8591SOL     OW27611   3.006   7.791   5.139
 8591SOL    HW127612   2.986   7.881   5.112
 8591SOL    HW227613   3.097   7.778   5.112
 8592SOL     OW27614   9.273   0.799   3.698
 8592SOL    HW127615   9.251   0.716   3.657
 8592SOL    HW227616   9.207   0.810   3.767
 8593SOL     OW27617  13.250   3.730   3.651
 8593SOL    HW127618  13.178   3.793   3.663
 8593SOL    HW227619  13.225   3.655   3.705
 8594SOL     OW27620   9.444   2.875   4.471
 8594SOL    HW127621   9.487   2.884   4.385
 8594SOL    HW227622   9.353   2.901   4.455
 8595SOL     OW27623  12.783   6.584   1.852
 8595SOL    HW127624  12.758   6.549   1.766
 8595SOL    HW227625  12.705   6.628   1.884
 8596SOL     OW27626   5.240   5.185   6.365
 8596SOL    HW127627   5.186   5.108   6.385
 8596SOL    HW227628   5.178   5.251   6.335
 8597SOL     OW27629   4.670   8.534   5.678
 8597SOL    HW127630   4.611   8.535   5.602
 8597SOL    HW227631   4.748   8.580   5.648
 8598SOL     OW27632  13.871   0.310  14.867
 8598SOL    HW127633  13.879   0.370   0.062
 8598SOL    HW227634  13.818   0.357  14.803
 8599SOL     OW27635   7.210   0.776   7.931
 8599SOL    HW127636   7.146   0.704   7.928
 8599SOL    HW227637   7.292   0.734   7.954
 8600SOL     OW27638   5.996   7.864  13.940
 8600SOL    HW127639   5.964   7.953  13.949
 8600SOL    HW227640   5.952   7.815  14.009
 8601SOL     OW27641  11.112   2.808   8.145
 8601SOL    HW127642  11.071   2.890   8.173
 8601SOL    HW227643  11.167   2.782   8.219
 8602SOL     OW27644  14.667   0.528  13.415
 8602SOL    HW127645  14.735   0.549  13.480
 8602SOL    HW227646  14.609   0.467  13.461
 8603SOL     OW27647  11.155  14.499   4.717
 8603SOL    HW127648  11.247  14.476   4.729
 8603SOL    HW227649  11.131  14.546   4.797
 8604SOL     OW27650   9.850  12.807   1.241
 8604SOL    HW127651   9.762  12.841   1.261
 8604SOL    HW227652   9.906  12.847   1.308
 8605SOL     OW27653  13.178  11.576  14.805
 8605SOL    HW127654  13.231  11.581  14.726
 8605SOL    HW227655  13.099  11.529  14.778
 8606SOL     OW27656   8.335   9.320   9.652
 8606SOL    HW127657   8.342   9.386   9.582
 8606SOL    HW227658   8.326   9.371   9.732
 8607SOL     OW27659   8.519   7.133   0.483
 8607SOL    HW127660   8.492   7.170   0.567
 8607SOL    HW227661   8.476   7.188   0.417
 8608SOL     OW27662  11.627  11.245  10.764
 8608SOL    HW127663  11.541  11.202  10.756
 8608SOL    HW227664  11.619  11.300  10.842
 8609SOL     OW27665   0.932   5.855   0.897
 8609SOL    HW127666   0.915   5.765   0.869
 8609SOL    HW227667   0.973   5.845   0.983
 8610SOL     OW27668  11.122   8.866   0.317
 8610SOL    HW127669  11.117   8.798   0.384
 8610SOL    HW227670  11.093   8.823   0.236
 8611SOL     OW27671  10.164  10.661   4.173
 8611SOL    HW127672  10.250  10.690   4.205
 8611SOL    HW227673  10.107  10.736   4.188
 8612SOL     OW27674   9.231   6.772   9.503
 8612SOL    HW127675   9.293   6.720   9.555
 8612SOL    HW227676   9.264   6.765   9.413
 8613SOL     OW27677   7.254   3.365   5.518
 8613SOL    HW127678   7.201   3.335   5.591
 8613SOL    HW227679   7.341   3.328   5.535
 8614SOL     OW27680  14.485   9.707   2.430
 8614SOL    HW127681  14.576   9.679   2.438
 8614SOL    HW227682  14.457   9.675   2.344
 8615SOL     OW27683   8.351   9.917  10.615
 8615SOL    HW127684   8.352   9.840  10.558
 8615SOL    HW227685   8.405   9.892  10.690
 8616SOL     OW27686   6.022   8.193  11.923
 8616SOL    HW127687   6.030   8.175  12.016
 8616SOL    HW227688   6.030   8.108  11.880
 8617SOL     OW27689   8.667   5.120   1.302
 8617SOL    HW127690   8.618   5.196   1.270
 8617SOL    HW227691   8.599   5.055   1.322
 8618SOL     OW27692  14.117  13.259  12.385
 8618SOL    HW127693  14.143  13.216  12.303
 8618SOL    HW227694  14.190  13.243  12.445
 8619SOL     OW27695   2.106   0.629   1.822
 8619SOL    HW127696   2.052   0.704   1.796
 8619SOL    HW227697   2.184   0.637   1.767
 8620SOL     OW27698   4.985   7.091  14.770
 8620SOL    HW127699   4.927   7.026  14.809
 8620SOL    HW227700   5.046   7.040  14.717
 8621SOL     OW27701  14.324   4.862   1.225
 8621SOL    HW127702  14.251   4.802   1.214
 8621SOL    HW227703  14.401   4.811   1.198
 8622SOL     OW27704   9.742  11.754   1.303
 8622SOL    HW127705   9.789  11.837   1.303
 8622SOL    HW227706   9.678  11.762   1.232
 8623SOL     OW27707   9.356  14.052  11.332
 8623SOL    HW127708   9.355  14.069  11.238
 8623SOL    HW227709   9.272  14.087  11.363
 8624SOL     OW27710   5.374   6.278   2.542
 8624SOL    HW127711   5.333   6.344   2.486
 8624SOL    HW227712   5.408   6.213   2.481
 8625SOL     OW27713  11.266  12.258  14.289
 8625SOL    HW127714  11.234  12.182  14.239
 8625SOL    HW227715  11.228  12.333  14.244
 8626SOL     OW27716   9.380   2.972  11.779
 8626SOL    HW127717   9.475   2.978  11.767
 8626SOL    HW227718   9.352   2.908  11.714
 8627SOL     OW27719  14.529  11.229   8.282
 8627SOL    HW127720  14.483  11.150   8.308
 8627SOL    HW227721  14.474  11.268   8.214
 8628SOL     OW27722  14.570   3.752  11.573
 8628SOL    HW127723  14.501   3.743  11.508
 8628SOL    HW227724  14.604   3.663  11.584
 8629SOL     OW27725   3.702   0.561  12.449
 8629SOL    HW127726   3.762   0.521  12.385
 8629SOL    HW227727   3.682   0.490  12.510
 8630SOL     OW27728   3.625   4.779  12.122
 8630SOL    HW127729   3.550   4.838  12.114
 8630SOL    HW227730   3.699   4.837  12.141
 8631SOL     OW27731  12.106   9.151  14.464
 8631SOL    HW127732  12.196   9.145  14.432
 8631SOL    HW227733  12.066   9.068  14.440
 8632SOL     OW27734   1.177   4.699   8.986
 8632SOL    HW127735   1.147   4.639   8.917
 8632SOL    HW227736   1.104   4.759   9.000
 8633SOL     OW27737   9.504   0.972   6.086
 8633SOL    HW127738   9.525   0.966   6.179
 8633SOL    HW227739   9.570   0.918   6.043
 8634SOL     OW27740  11.825   5.157  13.308
 8634SOL    HW127741  11.895   5.181  13.368
 8634SOL    HW227742  11.866   5.161  13.221
 8635SOL     OW27743   8.647  11.973   0.890
 8635SOL    HW127744   8.590  11.976   0.967
 8635SOL    HW227745   8.665  11.880   0.876
 8636SOL     OW27746   2.834   8.610   1.115
 8636SOL    HW127747   2.832   8.649   1.202
 8636SOL    HW227748   2.840   8.516   1.131
 8637SOL     OW27749  14.139   9.851  10.256
 8637SOL    HW127750  14.070   9.786  10.264
 8637SOL    HW227751  14.165   9.847  10.164
 8638SOL     OW27752  13.163   5.864   3.196
 8638SOL    HW127753  13.148   5.796   3.131
 8638SOL    HW227754  13.182   5.942   3.145
 8639SOL     OW27755  14.219   8.445  11.533
 8639SOL    HW127756  14.239   8.480  11.620
 8639SOL    HW227757  14.305   8.431  11.493
 8640SOL     OW27758  14.155  12.609  10.139
 8640SOL    HW127759  14.201  12.525  10.136
 8640SOL    HW227760  14.196  12.662  10.070
 8641SOL     OW27761   2.790   1.389   4.768
 8641SOL    HW127762   2.779   1.294   4.762
 8641SOL    HW227763   2.816   1.415   4.679
 8642SOL     OW27764   4.474   6.513   6.526
 8642SOL    HW127765   4.499   6.595   6.484
 8642SOL    HW227766   4.378   6.519   6.535
 8643SOL     OW27767  10.117  10.516   8.270
 8643SOL    HW127768  10.106  10.422   8.281
 8643SOL    HW227769  10.099  10.532   8.177
 8644SOL     OW27770  12.763  11.324  13.620
 8644SOL    HW127771  12.761  11.386  13.693
 8644SOL    HW227772  12.677  11.331  13.580
 8645SOL     OW27773   0.248   2.057   8.918
 8645SOL    HW127774   0.155   2.054   8.939
 8645SOL    HW227775   0.254   2.019   8.831
 8646SOL     OW27776   9.876   6.915  11.189
 8646SOL    HW127777   9.947   6.862  11.153
 8646SOL    HW227778   9.897   7.005  11.162
 8647SOL     OW27779   0.498   8.264  10.458
 8647SOL    HW127780   0.476   8.190  10.515
 8647SOL    HW227781   0.445   8.337  10.492
 8648SOL     OW27782   4.090  11.292   1.048
 8648SOL    HW127783   4.124  11.244   1.123
 8648SOL    HW227784   3.996  11.298   1.063
 8649SOL     OW27785   8.779   6.944   6.214
 8649SOL    HW127786   8.836   6.997   6.270
 8649SOL    HW227787   8.713   7.005   6.182
 8650SOL     OW27788  13.962   3.139   5.280
 8650SOL    HW127789  13.876   3.138   5.321
 8650SOL    HW227790  13.964   3.221   5.230
 8651SOL     OW27791   1.080  10.125   8.019
 8651SOL    HW127792   1.161  10.099   8.063
 8651SOL    HW227793   1.044  10.043   7.984
 8652SOL     OW27794  10.889  13.855   6.835
 8652SOL    HW127795  10.804  13.826   6.801
 8652SOL    HW227796  10.945  13.777   6.831
 8653SOL     OW27797  12.803  12.166   6.591
 8653SOL    HW127798  12.833  12.172   6.682
 8653SOL    HW227799  12.805  12.256   6.559
 8654SOL     OW27800   4.122   4.661   3.437
 8654SOL    HW127801   4.075   4.694   3.360
 8654SOL    HW227802   4.105   4.726   3.505
 8655SOL     OW27803  10.667   6.670   7.749
 8655SOL    HW127804  10.617   6.592   7.773
 8655SOL    HW227805  10.638   6.691   7.660
 8656SOL     OW27806  14.617   0.417   1.512
 8656SOL    HW127807  14.591   0.366   1.589
 8656SOL    HW227808  14.708   0.392   1.496
 8657SOL     OW27809   7.382   9.756   6.798
 8657SOL    HW127810   7.396   9.784   6.708
 8657SOL    HW227811   7.289   9.731   6.801
 8658SOL     OW27812  12.427   8.415  12.379
 8658SOL    HW127813  12.418   8.320  12.367
 8658SOL    HW227814  12.518   8.427  12.405
 8659SOL     OW27815  13.816   8.259   8.715
 8659SOL    HW127816  13.730   8.298   8.700
 8659SOL    HW227817  13.801   8.192   8.782
 8660SOL     OW27818   1.686  14.516  13.436
 8660SOL    HW127819   1.647  14.442  13.389
 8660SOL    HW227820   1.747  14.475  13.498
 8661SOL     OW27821  14.457  14.219   2.108
 8661SOL    HW127822  14.459  14.125   2.126
 8661SOL    HW227823  14.365  14.238   2.091
 8662SOL     OW27824   8.316   6.340   3.433
 8662SOL    HW127825   8.323   6.249   3.403
 8662SOL    HW227826   8.332   6.393   3.355
 8663SOL     OW27827  12.706  14.556   1.251
 8663SOL    HW127828  12.704  14.525   1.342
 8663SOL    HW227829  12.761  14.634   1.254
 8664SOL     OW27830  14.255  12.136   0.606
 8664SOL    HW127831  14.231  12.043   0.616
 8664SOL    HW227832  14.351  12.135   0.598
 8665SOL     OW27833   8.740  14.092   5.001
 8665SOL    HW127834   8.743  14.145   4.921
 8665SOL    HW227835   8.730  14.002   4.970
 8666SOL     OW27836  11.603  13.343   2.219
 8666SOL    HW127837  11.557  13.329   2.136
 8666SOL    HW227838  11.598  13.437   2.234
 8667SOL     OW27839   0.704   9.110   9.767
 8667SOL    HW127840   0.798   9.119   9.755
 8667SOL    HW227841   0.689   9.016   9.776
 8668SOL     OW27842  13.561   5.419   3.282
 8668SOL    HW127843  13.466   5.418   3.292
 8668SOL    HW227844  13.589   5.331   3.307
 8669SOL     OW27845  10.533  12.480   8.282
 8669SOL    HW127846  10.458  12.520   8.236
 8669SOL    HW227847  10.609  12.525   8.245
 8670SOL     OW27848   1.098   7.922   3.989
 8670SOL    HW127849   1.192   7.906   3.994
 8670SOL    HW227850   1.088   8.012   4.020
 8671SOL     OW27851   1.315  11.588   6.946
 8671SOL    HW127852   1.338  11.495   6.956
 8671SOL    HW227853   1.348  11.629   7.026
 8672SOL     OW27854   9.017  14.169   5.057
 8672SOL    HW127855   9.018  14.237   5.124
 8672SOL    HW227856   8.927  14.168   5.025
 8673SOL     OW27857   3.918   4.848   2.933
 8673SOL    HW127858   3.839   4.818   2.887
 8673SOL    HW227859   3.908   4.943   2.937
 8674SOL     OW27860  14.865  12.039  13.807
 8674SOL    HW127861  14.774  12.070  13.810
 8674SOL    HW227862  14.866  11.975  13.735
 8675SOL     OW27863  13.956   5.734  10.826
 8675SOL    HW127864  13.955   5.643  10.796
 8675SOL    HW227865  14.033   5.772  10.785
 8676SOL     OW27866   8.641   4.929   0.280
 8676SOL    HW127867   8.694   4.997   0.238
 8676SOL    HW227868   8.700   4.854   0.288
 8677SOL     OW27869  13.590   2.241  10.297
 8677SOL    HW127870  13.635   2.309  10.247
 8677SOL    HW227871  13.509   2.283  10.327
 8678SOL     OW27872  10.626   6.899   0.121
 8678SOL    HW127873  10.536   6.908   0.150
 8678SOL    HW227874  10.620   6.877   0.028
 8679SOL     OW27875   3.998  14.339  10.864
 8679SOL    HW127876   4.016  14.282  10.939
 8679SOL    HW227877   3.960  14.418  10.902
 8680SOL     OW27878  12.169   3.455   3.710
 8680SOL    HW127879  12.132   3.534   3.670
 8680SOL    HW227880  12.206   3.407   3.636
 8681SOL     OW27881  14.839   4.532   7.436
 8681SOL    HW127882  14.811   4.618   7.466
 8681SOL    HW227883  14.801   4.471   7.500
 8682SOL     OW27884  13.495   2.090  13.418
 8682SOL    HW127885  13.542   2.037  13.354
 8682SOL    HW227886  13.457   2.026  13.479
 8683SOL     OW27887   0.694   2.379   2.528
 8683SOL    HW127888   0.711   2.443   2.459
 8683SOL    HW227889   0.735   2.416   2.606
 8684SOL     OW27890  14.089  12.993   4.306
 8684SOL    HW127891  14.043  12.948   4.377
 8684SOL    HW227892  14.044  13.078   4.299
 8685SOL     OW27893  11.641   5.049  10.346
 8685SOL    HW127894  11.727   5.083  10.370
 8685SOL    HW227895  11.659   4.975  10.288
 8686SOL     OW27896   1.481   2.178   1.707
 8686SOL    HW127897   1.571   2.186   1.738
 8686SOL    HW227898   1.435   2.130   1.776
 8687SOL     OW27899   4.357   0.785  11.337
 8687SOL    HW127900   4.358   0.839  11.258
 8687SOL    HW227901   4.372   0.846  11.409
 8688SOL     OW27902   0.899   5.288   8.418
 8688SOL    HW127903   0.990   5.260   8.426
 8688SOL    HW227904   0.891   5.363   8.477
 8689SOL     OW27905   9.399   9.372   5.894
 8689SOL    HW127906   9.411   9.422   5.813
 8689SOL    HW227907   9.438   9.287   5.875
 8690SOL     OW27908   9.558   7.986   1.784
 8690SOL    HW127909   9.651   7.975   1.766
 8690SOL    HW227910   9.552   7.989   1.880
 8691SOL     OW27911  14.408  14.688  13.919
 8691SOL    HW127912  14.476  14.681  13.986
 8691SOL    HW227913  14.383  14.598  13.901
 8692SOL     OW27914  10.603  12.475   2.661
 8692SOL    HW127915  10.566  12.411   2.722
 8692SOL    HW227916  10.682  12.433   2.626
 8693SOL     OW27917   3.236   8.462   6.574
 8693SOL    HW127918   3.271   8.392   6.629
 8693SOL    HW227919   3.260   8.437   6.485
 8694SOL     OW27920   1.489   4.943  11.821
 8694SOL    HW127921   1.486   5.017  11.760
 8694SOL    HW227922   1.403   4.944  11.863
 8695SOL     OW27923  14.033  10.931   7.307
 8695SOL    HW127924  13.989  10.846   7.308
 8695SOL    HW227925  13.961  10.995   7.306
 8696SOL     OW27926   5.154   5.297  13.109
 8696SOL    HW127927   5.060   5.304  13.123
 8696SOL    HW227928   5.186   5.243  13.181
 8697SOL     OW27929  11.436  10.746   7.372
 8697SOL    HW127930  11.493  10.793   7.433
 8697SOL    HW227931  11.495  10.686   7.326
 8698SOL     OW27932   9.421  12.906   8.907
 8698SOL    HW127933   9.378  12.957   8.839
 8698SOL    HW227934   9.353  12.891   8.973
 8699SOL     OW27935  13.899   6.320   7.674
 8699SOL    HW127936  13.883   6.226   7.670
 8699SOL    HW227937  13.974   6.335   7.617
 8700SOL     OW27938   8.846   7.448   8.594
 8700SOL    HW127939   8.870   7.523   8.648
 8700SOL    HW227940   8.925   7.430   8.542
 8701SOL     OW27941   4.761   8.313  10.155
 8701SOL    HW127942   4.719   8.231  10.181
 8701SOL    HW227943   4.697   8.355  10.096
 8702SOL     OW27944   6.109   0.263   9.754
 8702SOL    HW127945   6.095   0.281   9.661
 8702SOL    HW227946   6.185   0.205   9.757
 8703SOL     OW27947   8.228  13.617  10.087
 8703SOL    HW127948   8.239  13.588   9.997
 8703SOL    HW227949   8.202  13.539  10.135
 8704SOL     OW27950   8.071   8.817   3.190
 8704SOL    HW127951   8.146   8.839   3.245
 8704SOL    HW227952   8.001   8.873   3.221
 8705SOL     OW27953  14.005   3.806  10.494
 8705SOL    HW127954  13.944   3.822  10.566
 8705SOL    HW227955  13.984   3.718  10.464
 8706SOL     OW27956   5.725   9.108  11.414
 8706SOL    HW127957   5.709   9.121  11.321
 8706SOL    HW227958   5.755   9.193  11.446
 8707SOL     OW27959   9.332   7.488   6.644
 8707SOL    HW127960   9.384   7.493   6.564
 8707SOL    HW227961   9.357   7.405   6.684
 8708SOL     OW27962   0.597  12.720   8.905
 8708SOL    HW127963   0.623  12.722   8.813
 8708SOL    HW227964   0.668  12.672   8.949
 8709SOL     OW27965   5.966   4.660   5.607
 8709SOL    HW127966   5.881   4.687   5.642
 8709SOL    HW227967   6.002   4.602   5.675
 8710SOL     OW27968  13.977   2.555   2.390
 8710SOL    HW127969  13.904   2.614   2.375
 8710SOL    HW227970  13.936   2.469   2.405
 8711SOL     OW27971  11.361  13.090   2.033
 8711SOL    HW127972  11.438  13.034   2.044
 8711SOL    HW227973  11.391  13.158   1.972
 8712SOL     OW27974  10.728   5.546  10.191
 8712SOL    HW127975  10.721   5.640  10.211
 8712SOL    HW227976  10.724   5.503  10.276
 8713SOL     OW27977   5.811  10.856  10.727
 8713SOL    HW127978   5.820  10.890  10.638
 8713SOL    HW227979   5.875  10.785  10.732
 8714SOL     OW27980  10.162   0.521  12.742
 8714SOL    HW127981  10.153   0.606  12.698
 8714SOL    HW227982  10.139   0.539  12.833
 8715SOL     OW27983   6.128   0.950  10.613
 8715SOL    HW127984   6.168   0.893  10.678
 8715SOL    HW227985   6.157   0.914  10.529
 8716SOL     OW27986   9.117   5.943  12.351
 8716SOL    HW127987   9.179   5.999  12.305
 8716SOL    HW227988   9.135   5.959  12.444
 8717SOL     OW27989   6.817   3.705   6.573
 8717SOL    HW127990   6.864   3.787   6.590
 8717SOL    HW227991   6.861   3.640   6.629
 8718SOL     OW27992   9.832  12.681   4.050
 8718SOL    HW127993   9.809  12.734   3.974
 8718SOL    HW227994   9.773  12.606   4.044
 8719SOL     OW27995  12.616   2.931  10.274
 8719SOL    HW127996  12.613   2.975  10.189
 8719SOL    HW227997  12.703   2.950  10.308
 8720SOL     OW27998   3.186   5.113  13.508
 8720SOL    HW127999   3.227   5.026  13.502
 8720SOL    HW228000   3.194   5.137  13.600
 8721SOL     OW28001   3.464  14.817  10.395
 8721SOL    HW128002   3.455  14.819  10.490
 8721SOL    HW228003   3.536  14.756  10.379
 8722SOL     OW28004  11.356  11.687  14.384
 8722SOL    HW128005  11.261  11.690  14.374
 8722SOL    HW228006  11.386  11.772  14.352
 8723SOL     OW28007   0.400   1.562  13.980
 8723SOL    HW128008   0.373   1.643  13.937
 8723SOL    HW228009   0.320   1.509  13.984
 8724SOL     OW28010   6.980  11.345   1.069
 8724SOL    HW128011   6.937  11.411   1.015
 8724SOL    HW228012   7.003  11.275   1.008
 8725SOL     OW28013  10.966  14.608  14.044
 8725SOL    HW128014  10.876  14.580  14.060
 8725SOL    HW228015  10.974  14.692  14.090
 8726SOL     OW28016   8.896   9.284  14.300
 8726SOL    HW128017   8.854   9.320  14.221
 8726SOL    HW228018   8.824   9.250  14.352
 8727SOL     OW28019   3.513  14.524   0.550
 8727SOL    HW128020   3.570  14.492   0.480
 8727SOL    HW228021   3.425  14.524   0.512
 8728SOL     OW28022   2.314   9.451   4.210
 8728SOL    HW128023   2.330   9.525   4.270
 8728SOL    HW228024   2.254   9.486   4.144
 8729SOL     OW28025   3.761  13.189   2.170
 8729SOL    HW128026   3.731  13.279   2.160
 8729SOL    HW228027   3.845  13.196   2.215
 8730SOL     OW28028  10.535   4.263   2.227
 8730SOL    HW128029  10.627   4.236   2.232
 8730SOL    HW228030  10.536   4.341   2.171
 8731SOL     OW28031   7.794  10.067   9.182
 8731SOL    HW128032   7.857  10.055   9.253
 8731SOL    HW228033   7.761  10.156   9.193
 8732SOL     OW28034   2.407  14.798   3.044
 8732SOL    HW128035   2.318  14.813   3.073
 8732SOL    HW228036   2.400  14.724   2.983
 8733SOL     OW28037   8.067   1.849   0.526
 8733SOL    HW128038   8.140   1.827   0.584
 8733SOL    HW228039   8.039   1.764   0.490
 8734SOL     OW28040  14.793  13.873   4.487
 8734SOL    HW128041  14.871  13.818   4.492
 8734SOL    HW228042  14.820  13.949   4.435
 8735SOL     OW28043   1.987  10.672   2.702
 8735SOL    HW128044   2.016  10.692   2.613
 8735SOL    HW228045   1.943  10.587   2.693
 8736SOL     OW28046  14.810  14.809   8.687
 8736SOL    HW128047  14.792   0.022   8.707
 8736SOL    HW228048   0.026  14.803   8.687
 8737SOL     OW28049   6.421  11.554   4.614
 8737SOL    HW128050   6.345  11.522   4.663
 8737SOL    HW228051   6.496  11.530   4.668
 8738SOL     OW28052   1.178   1.949  14.509
 8738SOL    HW128053   1.089   1.981  14.524
 8738SOL    HW228054   1.193   1.887  14.580
 8739SOL     OW28055  10.529  13.332   2.996
 8739SOL    HW128056  10.530  13.277   2.918
 8739SOL    HW228057  10.512  13.421   2.963
 8740SOL     OW28058  13.478  12.490  13.422
 8740SOL    HW128059  13.550  12.466  13.481
 8740SOL    HW228060  13.424  12.411  13.417
 8741SOL     OW28061  12.151   6.160   9.356
 8741SOL    HW128062  12.204   6.145   9.434
 8741SOL    HW228063  12.197   6.229   9.309
 8742SOL     OW28064  12.378   5.244   3.721
 8742SOL    HW128065  12.293   5.219   3.757
 8742SOL    HW228066  12.356   5.298   3.645
 8743SOL     OW28067   9.018   4.285   5.111
 8743SOL    HW128068   9.058   4.199   5.100
 8743SOL    HW228069   8.942   4.269   5.167
 8744SOL     OW28070   7.241   8.327  10.582
 8744SOL    HW128071   7.331   8.326  10.551
 8744SOL    HW228072   7.229   8.414  10.620
 8745SOL     OW28073   1.058   6.630   6.469
 8745SOL    HW128074   0.993   6.628   6.539
 8745SOL    HW228075   1.009   6.656   6.391
 8746SOL     OW28076   8.378  11.269  13.515
 8746SOL    HW128077   8.287  11.240  13.513
 8746SOL    HW228078   8.410  11.242  13.601
 8747SOL     OW28079   3.617   1.701  10.570
 8747SOL    HW128080   3.588   1.787  10.541
 8747SOL    HW228081   3.712   1.710  10.582
 8748SOL     OW28082  11.832  11.393  14.724
 8748SOL    HW128083  11.804  11.470  14.675
 8748SOL    HW228084  11.845  11.425  14.813
 8749SOL     OW28085   6.268  11.579  11.643
 8749SOL    HW128086   6.258  11.621  11.557
 8749SOL    HW228087   6.339  11.515  11.630
 8750SOL     OW28088   6.288   4.287   0.491
 8750SOL    HW128089   6.349   4.262   0.561
 8750SOL    HW228090   6.308   4.226   0.419
 8751SOL     OW28091   6.837   3.474   5.219
 8751SOL    HW128092   6.918   3.458   5.268
 8751SOL    HW228093   6.837   3.569   5.204
 8752SOL     OW28094   8.184   0.452   6.198
 8752SOL    HW128095   8.262   0.500   6.168
 8752SOL    HW228096   8.168   0.486   6.286
 8753SOL     OW28097   6.231   4.783   4.286
 8753SOL    HW128098   6.314   4.825   4.310
 8753SOL    HW228099   6.256   4.715   4.223
 8754SOL     OW28100   3.315   2.081   2.886
 8754SOL    HW128101   3.326   2.076   2.980
 8754SOL    HW228102   3.294   2.172   2.868
 8755SOL     OW28103  14.613   3.216   0.109
 8755SOL    HW128104  14.638   3.146   0.048
 8755SOL    HW228105  14.636   3.183   0.195
 8756SOL     OW28106   4.044   6.685   2.967
 8756SOL    HW128107   3.976   6.653   2.908
 8756SOL    HW228108   4.092   6.606   2.993
 8757SOL     OW28109   3.811   1.825  13.205
 8757SOL    HW128110   3.842   1.861  13.121
 8757SOL    HW228111   3.715   1.827  13.197
 8758SOL     OW28112   3.147   2.680  10.219
 8758SOL    HW128113   3.190   2.717  10.142
 8758SOL    HW228114   3.145   2.586  10.201
 8759SOL     OW28115  14.856   0.573  10.918
 8759SOL    HW128116   0.052   0.519  10.941
 8759SOL    HW228117  14.816   0.596  11.002
 8760SOL     OW28118  12.929   7.004   7.168
 8760SOL    HW128119  12.897   7.046   7.088
 8760SOL    HW228120  12.860   7.020   7.232
 8761SOL     OW28121  14.070   3.418   6.260
 8761SOL    HW128122  14.094   3.508   6.284
 8761SOL    HW228123  14.059   3.373   6.343
 8762SOL     OW28124   6.266   5.942   5.822
 8762SOL    HW128125   6.287   5.887   5.897
 8762SOL    HW228126   6.304   5.895   5.747
 8763SOL     OW28127   3.735   9.264   3.419
 8763SOL    HW128128   3.660   9.257   3.479
 8763SOL    HW228129   3.803   9.211   3.459
 8764SOL     OW28130   6.671  14.297   5.725
 8764SOL    HW128131   6.628  14.224   5.681
 8764SOL    HW228132   6.757  14.263   5.750
 8765SOL     OW28133   6.258   8.535   0.838
 8765SOL    HW128134   6.345   8.573   0.840
 8765SOL    HW228135   6.207   8.590   0.898
 8766SOL     OW28136  14.594   0.516   6.311
 8766SOL    HW128137  14.656   0.471   6.370
 8766SOL    HW228138  14.569   0.595   6.359
 8767SOL     OW28139   9.359   1.307   9.927
 8767SOL    HW128140   9.303   1.236   9.896
 8767SOL    HW228141   9.299   1.369   9.968
 8768SOL     OW28142   6.173  11.766   0.233
 8768SOL    HW128143   6.093  11.794   0.188
 8768SOL    HW228144   6.209  11.847   0.269
 8769SOL     OW28145  10.847  12.411   9.525
 8769SOL    HW128146  10.908  12.434   9.596
 8769SOL    HW228147  10.880  12.458   9.449
 8770SOL     OW28148  13.295   2.870   0.131
 8770SOL    HW128149  13.388   2.888   0.120
 8770SOL    HW228150  13.271   2.818   0.054
 8771SOL     OW28151   9.460   6.375   7.761
 8771SOL    HW128152   9.387   6.332   7.718
 8771SOL    HW228153   9.429   6.463   7.781
 8772SOL     OW28154  13.201   7.921   2.795
 8772SOL    HW128155  13.139   7.852   2.773
 8772SOL    HW228156  13.232   7.953   2.710
 8773SOL     OW28157  12.432   2.837   7.884
 8773SOL    HW128158  12.356   2.890   7.909
 8773SOL    HW228159  12.431   2.840   7.788
 8774SOL     OW28160   7.881   4.879   9.824
 8774SOL    HW128161   7.862   4.795   9.781
 8774SOL    HW228162   7.808   4.935   9.799
 8775SOL     OW28163   1.467   4.895   4.512
 8775SOL    HW128164   1.471   4.831   4.583
 8775SOL    HW228165   1.506   4.851   4.437
 8776SOL     OW28166   4.332   9.232  11.179
 8776SOL    HW128167   4.237   9.232  11.166
 8776SOL    HW228168   4.348   9.171  11.251
 8777SOL     OW28169   0.525   4.176  12.419
 8777SOL    HW128170   0.509   4.231  12.495
 8777SOL    HW228171   0.450   4.117  12.416
 8778SOL     OW28172  14.402   9.123  10.956
 8778SOL    HW128173  14.339   9.052  10.941
 8778SOL    HW228174  14.366   9.172  11.029
 8779SOL     OW28175  12.325   0.112  11.197
 8779SOL    HW128176  12.257   0.119  11.265
 8779SOL    HW228177  12.337   0.202  11.166
 8780SOL     OW28178   4.619  12.504   3.773
 8780SOL    HW128179   4.640  12.411   3.781
 8780SOL    HW228180   4.620  12.521   3.679
 8781SOL     OW28181   4.712   7.342   0.069
 8781SOL    HW128182   4.794   7.384   0.044
 8781SOL    HW228183   4.645   7.406   0.045
 8782SOL     OW28184  12.994   9.143  11.422
 8782SOL    HW128185  12.994   9.124  11.328
 8782SOL    HW228186  12.921   9.205  11.433
 8783SOL     OW28187   8.125   3.614  13.780
 8783SOL    HW128188   8.091   3.547  13.840
 8783SOL    HW228189   8.074   3.692  13.800
 8784SOL     OW28190   6.343   8.910   7.052
 8784SOL    HW128191   6.383   8.908   6.965
 8784SOL    HW228192   6.417   8.912   7.112
 8785SOL     OW28193   7.285   2.070   4.194
 8785SOL    HW128194   7.315   2.137   4.256
 8785SOL    HW228195   7.207   2.033   4.234
 8786SOL     OW28196  10.101   1.646   2.100
 8786SOL    HW128197  10.089   1.579   2.168
 8786SOL    HW228198  10.184   1.623   2.059
 8787SOL     OW28199   4.689   5.652   0.339
 8787SOL    HW128200   4.598   5.625   0.331
 8787SOL    HW228201   4.685   5.741   0.374
 8788SOL     OW28202   9.270  10.672   2.570
 8788SOL    HW128203   9.222  10.712   2.643
 8788SOL    HW228204   9.326  10.606   2.611
 8789SOL     OW28205   5.474   1.916   9.341
 8789SOL    HW128206   5.493   1.868   9.261
 8789SOL    HW228207   5.537   1.882   9.405
 8790SOL     OW28208   5.000   2.457   2.274
 8790SOL    HW128209   5.094   2.451   2.257
 8790SOL    HW228210   4.962   2.382   2.229
 8791SOL     OW28211   4.421   7.232  10.866
 8791SOL    HW128212   4.410   7.327  10.872
 8791SOL    HW228213   4.348   7.202  10.812
 8792SOL     OW28214   2.355  10.637   1.188
 8792SOL    HW128215   2.444  10.645   1.223
 8792SOL    HW228216   2.314  10.721   1.208
 8793SOL     OW28217   9.974   9.184   3.737
 8793SOL    HW128218  10.025   9.249   3.785
 8793SOL    HW228219   9.910   9.152   3.800
 8794SOL     OW28220   7.540  11.349   6.656
 8794SOL    HW128221   7.548  11.272   6.713
 8794SOL    HW228222   7.504  11.417   6.713
 8795SOL     OW28223  14.724   1.234  10.320
 8795SOL    HW128224  14.737   1.168  10.389
 8795SOL    HW228225  14.697   1.183  10.244
 8796SOL     OW28226  12.291  10.313   4.267
 8796SOL    HW128227  12.212  10.266   4.294
 8796SOL    HW228228  12.288  10.312   4.171
 8797SOL     OW28229   2.587  10.085  12.255
 8797SOL    HW128230   2.520  10.022  12.281
 8797SOL    HW228231   2.541  10.169  12.249
 8798SOL     OW28232  13.415  13.029  12.963
 8798SOL    HW128233  13.391  13.036  12.870
 8798SOL    HW228234  13.488  12.967  12.964
 8799SOL     OW28235   1.774   2.386   0.372
 8799SOL    HW128236   1.755   2.381   0.279
 8799SOL    HW228237   1.691   2.409   0.413
 8800SOL     OW28238   5.104   4.850   9.569
 8800SOL    HW128239   5.111   4.928   9.624
 8800SOL    HW228240   5.103   4.777   9.631
 8801SOL     OW28241   9.689  10.670  12.304
 8801SOL    HW128242   9.771  10.703  12.339
 8801SOL    HW228243   9.677  10.585  12.346
 8802SOL     OW28244   7.503   1.258   4.707
 8802SOL    HW128245   7.426   1.202   4.693
 8802SOL    HW228246   7.495   1.327   4.642
 8803SOL     OW28247   5.767   0.144   3.861
 8803SOL    HW128248   5.810   0.228   3.880
 8803SOL    HW228249   5.804   0.084   3.926
 8804SOL     OW28250   0.206  10.158   8.047
 8804SOL    HW128251   0.271  10.091   8.026
 8804SOL    HW228252   0.181  10.195   7.962
 8805SOL     OW28253   6.045   0.979   5.180
 8805SOL    HW128254   6.006   1.063   5.204
 8805SOL    HW228255   6.094   0.997   5.100
 8806SOL     OW28256  10.314  10.811  14.576
 8806SOL    HW128257  10.295  10.728  14.532
 8806SOL    HW228258  10.322  10.788  14.668
 8807SOL     OW28259   0.278  10.862  10.701
 8807SOL    HW128260   0.251  10.937  10.647
 8807SOL    HW228261   0.199  10.810  10.712
 8808SOL     OW28262  13.389   3.015   2.818
 8808SOL    HW128263  13.432   3.074   2.879
 8808SOL    HW228264  13.298   3.045   2.814
 8809SOL     OW28265   4.145   5.813   8.937
 8809SOL    HW128266   4.142   5.795   9.031
 8809SOL    HW228267   4.218   5.874   8.926
 8810SOL     OW28268   8.386   9.611   9.750
 8810SOL    HW128269   8.410   9.704   9.757
 8810SOL    HW228270   8.469   9.567   9.729
 8811SOL     OW28271   1.969  12.964   9.878
 8811SOL    HW128272   2.036  12.994   9.816
 8811SOL    HW228273   1.900  13.029   9.870
 8812SOL     OW28274  10.994   9.402   1.424
 8812SOL    HW128275  10.913   9.452   1.434
 8812SOL    HW228276  11.064   9.466   1.435
 8813SOL     OW28277   7.528   9.674  13.163
 8813SOL    HW128278   7.561   9.586  13.181
 8813SOL    HW228279   7.544   9.722  13.244
 8814SOL     OW28280   0.318   9.990  14.513
 8814SOL    HW128281   0.364   9.972  14.431
 8814SOL    HW228282   0.242  10.042  14.486
 8815SOL     OW28283   9.783   0.410   1.852
 8815SOL    HW128284   9.735   0.347   1.798
 8815SOL    HW228285   9.837   0.459   1.790
 8816SOL     OW28286   0.788  11.433   8.393
 8816SOL    HW128287   0.863  11.493   8.392
 8816SOL    HW228288   0.789  11.392   8.307
 8817SOL     OW28289   2.566  13.106   4.479
 8817SOL    HW128290   2.609  13.103   4.564
 8817SOL    HW228291   2.636  13.132   4.418
 8818SOL     OW28292   2.941   0.183  11.385
 8818SOL    HW128293   3.031   0.207  11.406
 8818SOL    HW228294   2.941   0.087  11.387
 8819SOL     OW28295   3.116  12.603  13.953
 8819SOL    HW128296   3.100  12.594  14.047
 8819SOL    HW228297   3.140  12.695  13.941
 8820SOL     OW28298   3.608  10.082   0.538
 8820SOL    HW128299   3.613  10.041   0.625
 8820SOL    HW228300   3.658  10.025   0.481
 8821SOL     OW28301   5.153  11.406   2.570
 8821SOL    HW128302   5.246  11.413   2.589
 8821SOL    HW228303   5.148  11.340   2.501
 8822SOL     OW28304   5.528  11.052   9.609
 8822SOL    HW128305   5.455  11.038   9.549
 8822SOL    HW228306   5.562  11.139   9.586
 8823SOL     OW28307   5.038  14.631   0.538
 8823SOL    HW128308   4.965  14.571   0.555
 8823SOL    HW228309   5.027  14.701   0.602
 8824SOL     OW28310   0.839   1.239   2.891
 8824SOL    HW128311   0.803   1.179   2.957
 8824SOL    HW228312   0.862   1.182   2.817
 8825SOL     OW28313  13.943  12.057   9.257
 8825SOL    HW128314  13.941  12.029   9.166
 8825SOL    HW228315  13.851  12.066   9.281
 8826SOL     OW28316   2.961  13.113   3.046
 8826SOL    HW128317   2.926  13.181   2.990
 8826SOL    HW228318   2.993  13.160   3.123
 8827SOL     OW28319  12.954   9.508  12.269
 8827SOL    HW128320  12.917   9.438  12.322
 8827SOL    HW228321  12.970   9.468  12.183
 8828SOL     OW28322   5.160   0.104  10.134
 8828SOL    HW128323   5.149   0.153  10.216
 8828SOL    HW228324   5.078   0.119  10.086
 8829SOL     OW28325   9.266   8.661   3.808
 8829SOL    HW128326   9.335   8.633   3.747
 8829SOL    HW228327   9.312   8.676   3.891
 8830SOL     OW28328   3.839   1.838   4.078
 8830SOL    HW128329   3.798   1.771   4.133
 8830SOL    HW228330   3.788   1.917   4.095
 8831SOL     OW28331  14.677  13.295   6.654
 8831SOL    HW128332  14.735  13.293   6.730
 8831SOL    HW228333  14.596  13.252   6.683
 8832SOL     OW28334   5.381   9.150   0.171
 8832SOL    HW128335   5.303   9.139   0.117
 8832SOL    HW228336   5.350   9.200   0.247
 8833SOL     OW28337   0.951  12.754   6.147
 8833SOL    HW128338   0.886  12.689   6.173
 8833SOL    HW228339   0.981  12.725   6.060
 8834SOL     OW28340  10.933   4.178   4.555
 8834SOL    HW128341  10.970   4.094   4.582
 8834SOL    HW228342  10.838   4.167   4.565
 8835SOL     OW28343   1.513   5.290  10.562
 8835SOL    HW128344   1.542   5.215  10.614
 8835SOL    HW228345   1.568   5.362  10.592
 8836SOL     OW28346  10.819   4.690   6.983
 8836SOL    HW128347  10.849   4.690   6.892
 8836SOL    HW228348  10.864   4.763   7.024
 8837SOL     OW28349   4.647  10.311   7.208
 8837SOL    HW128350   4.737  10.334   7.184
 8837SOL    HW228351   4.626  10.370   7.281
 8838SOL     OW28352  12.620   5.583  11.117
 8838SOL    HW128353  12.699   5.611  11.071
 8838SOL    HW228354  12.596   5.500  11.076
 8839SOL     OW28355   7.573   1.670  10.044
 8839SOL    HW128356   7.549   1.676  10.136
 8839SOL    HW228357   7.639   1.600  10.041
 8840SOL     OW28358   7.558   3.031  14.597
 8840SOL    HW128359   7.623   3.038  14.667
 8840SOL    HW228360   7.474   3.043  14.642
 8841SOL     OW28361   4.490   3.749  13.060
 8841SOL    HW128362   4.422   3.816  13.055
 8841SOL    HW228363   4.448   3.669  13.030
 8842SOL     OW28364  11.925  10.185   8.320
 8842SOL    HW128365  12.007  10.186   8.369
 8842SOL    HW228366  11.951  10.158   8.231
 8843SOL     OW28367  14.129   4.445  10.880
 8843SOL    HW128368  14.075   4.497  10.821
 8843SOL    HW228369  14.198   4.409  10.824
 8844SOL     OW28370   9.948   2.349  10.498
 8844SOL    HW128371   9.867   2.317  10.539
 8844SOL    HW228372   9.932   2.442  10.481
 8845SOL     OW28373  12.659  14.333  14.255
 8845SOL    HW128374  12.625  14.290  14.177
 8845SOL    HW228375  12.663  14.264  14.321
 8846SOL     OW28376   9.908  12.643  14.200
 8846SOL    HW128377   9.863  12.619  14.282
 8846SOL    HW228378   9.988  12.590  14.201
 8847SOL     OW28379  11.616  11.091   3.830
 8847SOL    HW128380  11.665  11.036   3.769
 8847SOL    HW228381  11.527  11.055   3.828
 8848SOL     OW28382   4.141   6.315   3.742
 8848SOL    HW128383   4.128   6.229   3.704
 8848SOL    HW228384   4.192   6.363   3.677
 8849SOL     OW28385   9.478   3.167   6.383
 8849SOL    HW128386   9.385   3.161   6.402
 8849SOL    HW228387   9.513   3.224   6.451
 8850SOL     OW28388   9.643  14.627  11.479
 8850SOL    HW128389   9.733  14.631  11.509
 8850SOL    HW228390   9.607  14.549  11.522
 8851SOL     OW28391   6.799  12.831   3.453
 8851SOL    HW128392   6.717  12.809   3.496
 8851SOL    HW228393   6.866  12.785   3.503
 8852SOL     OW28394   8.985   2.454   2.052
 8852SOL    HW128395   9.017   2.543   2.037
 8852SOL    HW228396   8.890   2.462   2.051
 8853SOL     OW28397   9.867   6.021   4.030
 8853SOL    HW128398   9.817   6.068   4.097
 8853SOL    HW228399   9.802   5.974   3.979
 8854SOL     OW28400   7.022   3.642  14.656
 8854SOL    HW128401   7.037   3.691  14.737
 8854SOL    HW228402   7.109   3.615  14.628
 8855SOL     OW28403  13.595   2.548   1.203
 8855SOL    HW128404  13.582   2.455   1.219
 8855SOL    HW228405  13.598   2.588   1.290
 8856SOL     OW28406  11.618   4.648   1.390
 8856SOL    HW128407  11.578   4.728   1.354
 8856SOL    HW228408  11.601   4.653   1.484
 8857SOL     OW28409   6.779  12.259   0.941
 8857SOL    HW128410   6.808  12.207   1.016
 8857SOL    HW228411   6.820  12.216   0.865
 8858SOL     OW28412   0.526  13.029  11.683
 8858SOL    HW128413   0.554  12.996  11.598
 8858SOL    HW228414   0.585  13.102  11.701
 8859SOL     OW28415   3.340  11.792   2.554
 8859SOL    HW128416   3.285  11.746   2.617
 8859SOL    HW228417   3.286  11.864   2.522
 8860SOL     OW28418   6.359   0.865   0.436
 8860SOL    HW128419   6.318   0.799   0.380
 8860SOL    HW228420   6.416   0.914   0.377
 8861SOL     OW28421  12.956   3.398  11.674
 8861SOL    HW128422  12.967   3.378  11.767
 8861SOL    HW228423  12.950   3.313  11.632
 8862SOL     OW28424   5.224   9.751   0.030
 8862SOL    HW128425   5.246   9.841   0.006
 8862SOL    HW228426   5.276   9.734   0.109
 8863SOL     OW28427  10.896   2.459  11.138
 8863SOL    HW128428  10.893   2.527  11.206
 8863SOL    HW228429  10.947   2.388  11.176
 8864SOL     OW28430   5.934   2.483  12.412
 8864SOL    HW128431   5.998   2.415  12.391
 8864SOL    HW228432   5.849   2.443  12.393
 8865SOL     OW28433  10.898   7.826  10.226
 8865SOL    HW128434  10.947   7.780  10.295
 8865SOL    HW228435  10.847   7.892  10.273
 8866SOL     OW28436   6.504  11.065   3.024
 8866SOL    HW128437   6.519  10.973   3.001
 8866SOL    HW228438   6.540  11.114   2.950
 8867SOL     OW28439   4.455  13.225  13.856
 8867SOL    HW128440   4.429  13.273  13.777
 8867SOL    HW228441   4.414  13.139  13.846
 8868SOL     OW28442   5.962   1.137   2.905
 8868SOL    HW128443   5.911   1.097   2.834
 8868SOL    HW228444   6.023   1.195   2.860
 8869SOL     OW28445   2.216  14.369  14.323
 8869SOL    HW128446   2.242  14.305  14.389
 8869SOL    HW228447   2.126  14.392  14.346
 8870SOL     OW28448  13.581   8.960   9.192
 8870SOL    HW128449  13.619   8.948   9.105
 8870SOL    HW228450  13.634   8.905   9.250
 8871SOL     OW28451  12.104   2.001   8.075
 8871SOL    HW128452  12.035   1.934   8.076
 8871SOL    HW228453  12.065   2.077   8.117
 8872SOL     OW28454   0.476   4.657   6.632
 8872SOL    HW128455   0.398   4.617   6.594
 8872SOL    HW228456   0.442   4.734   6.679
 8873SOL     OW28457   5.233   1.085  10.563
 8873SOL    HW128458   5.151   1.040  10.584
 8873SOL    HW228459   5.208   1.154  10.502
 8874SOL     OW28460   7.548   7.070   1.594
 8874SOL    HW128461   7.557   7.011   1.518
 8874SOL    HW228462   7.604   7.031   1.661
 8875SOL     OW28463   4.953   8.543  13.079
 8875SOL    HW128464   5.023   8.487  13.046
 8875SOL    HW228465   4.988   8.581  13.159
 8876SOL     OW28466   8.025  10.832  14.348
 8876SOL    HW128467   8.037  10.766  14.279
 8876SOL    HW228468   8.072  10.796  14.424
 8877SOL     OW28469   2.475   4.270  12.808
 8877SOL    HW128470   2.499   4.282  12.900
 8877SOL    HW228471   2.522   4.191  12.782
 8878SOL     OW28472   1.594   0.838   6.184
 8878SOL    HW128473   1.501   0.816   6.190
 8878SOL    HW228474   1.633   0.797   6.261
 8879SOL     OW28475   9.212  11.079  13.410
 8879SOL    HW128476   9.182  11.056  13.322
 8879SOL    HW228477   9.216  11.175  13.410
 8880SOL     OW28478   7.227   0.239  14.381
 8880SOL    HW128479   7.313   0.247  14.421
 8880SOL    HW228480   7.244   0.231  14.287
 8881SOL     OW28481   5.199  11.764   8.728
 8881SOL    HW128482   5.211  11.843   8.676
 8881SOL    HW228483   5.185  11.695   8.663
 8882SOL     OW28484   9.954  13.842  11.837
 8882SOL    HW128485  10.047  13.857  11.820
 8882SOL    HW228486   9.947  13.842  11.933
 8883SOL     OW28487   8.677   4.883  10.677
 8883SOL    HW128488   8.608   4.817  10.672
 8883SOL    HW228489   8.748   4.840  10.724
 8884SOL     OW28490  12.710  14.235   3.388
 8884SOL    HW128491  12.750  14.282   3.461
 8884SOL    HW228492  12.744  14.278   3.310
 8885SOL     OW28493  11.172   2.926  12.642
 8885SOL    HW128494  11.222   2.846  12.623
 8885SOL    HW228495  11.231   2.997  12.618
 8886SOL     OW28496  14.147   3.164   2.496
 8886SOL    HW128497  14.101   3.237   2.456
 8886SOL    HW228498  14.230   3.200   2.525
 8887SOL     OW28499   4.430  13.474  12.239
 8887SOL    HW128500   4.446  13.490  12.146
 8887SOL    HW228501   4.514  13.492  12.281
 8888SOL     OW28502  10.014  13.321   6.235
 8888SOL    HW128503   9.931  13.293   6.197
 8888SOL    HW228504  10.073  13.247   6.221
 8889SOL     OW28505  12.313   5.829   1.879
 8889SOL    HW128506  12.303   5.765   1.809
 8889SOL    HW228507  12.406   5.826   1.902
 8890SOL     OW28508   1.682  10.116   5.519
 8890SOL    HW128509   1.704  10.023   5.524
 8890SOL    HW228510   1.630  10.124   5.439
 8891SOL     OW28511  13.958   6.051   2.610
 8891SOL    HW128512  13.993   6.104   2.539
 8891SOL    HW228513  13.968   6.105   2.688
 8892SOL     OW28514  12.846   2.054  10.101
 8892SOL    HW128515  12.868   1.974  10.053
 8892SOL    HW228516  12.756   2.074  10.074
 8893SOL     OW28517   8.043   1.299   7.515
 8893SOL    HW128518   8.045   1.336   7.426
 8893SOL    HW228519   8.098   1.220   7.509
 8894SOL     OW28520   8.894   5.131   4.574
 8894SOL    HW128521   8.868   5.039   4.584
 8894SOL    HW228522   8.845   5.177   4.642
 8895SOL     OW28523   1.391  11.670   7.194
 8895SOL    HW128524   1.475  11.715   7.196
 8895SOL    HW228525   1.391  11.615   7.272
 8896SOL     OW28526   7.718   1.468   3.360
 8896SOL    HW128527   7.630   1.441   3.388
 8896SOL    HW228528   7.752   1.520   3.433
 8897SOL     OW28529  10.093   5.846   1.391
 8897SOL    HW128530  10.067   5.872   1.302
 8897SOL    HW228531  10.076   5.923   1.444
 8898SOL     OW28532   5.233   6.266  10.476
 8898SOL    HW128533   5.188   6.350  10.473
 8898SOL    HW228534   5.201   6.224  10.556
 8899SOL     OW28535   1.350   8.318   1.785
 8899SOL    HW128536   1.272   8.359   1.821
 8899SOL    HW228537   1.318   8.242   1.737
 8900SOL     OW28538   4.665   3.665  11.899
 8900SOL    HW128539   4.630   3.583  11.863
 8900SOL    HW228540   4.690   3.643  11.989
 8901SOL     OW28541   7.115  12.847  14.211
 8901SOL    HW128542   7.181  12.830  14.145
 8901SOL    HW228543   7.058  12.770  14.210
 8902SOL     OW28544   7.472   2.969   4.810
 8902SOL    HW128545   7.496   2.936   4.724
 8902SOL    HW228546   7.521   2.916   4.872
 8903SOL     OW28547   2.237   8.991   2.264
 8903SOL    HW128548   2.223   8.924   2.197
 8903SOL    HW228549   2.328   8.979   2.291
 8904SOL     OW28550   0.787   4.863   2.851
 8904SOL    HW128551   0.760   4.954   2.859
 8904SOL    HW228552   0.719   4.821   2.798
 8905SOL     OW28553   2.279  11.695  11.471
 8905SOL    HW128554   2.295  11.778  11.426
 8905SOL    HW228555   2.349  11.689  11.536
 8906SOL     OW28556   8.899   1.483   0.954
 8906SOL    HW128557   8.819   1.435   0.938
 8906SOL    HW228558   8.968   1.430   0.914
 8907SOL     OW28559   6.254   7.461  13.325
 8907SOL    HW128560   6.170   7.508  13.322
 8907SOL    HW228561   6.230   7.369  13.312
 8908SOL     OW28562   9.961   8.310  13.915
 8908SOL    HW128563   9.904   8.330  13.841
 8908SOL    HW228564   9.902   8.303  13.990
 8909SOL     OW28565   5.491  10.240   2.264
 8909SOL    HW128566   5.439  10.296   2.322
 8909SOL    HW228567   5.478  10.152   2.298
 8910SOL     OW28568   6.465  14.095   2.217
 8910SOL    HW128569   6.557  14.087   2.193
 8910SOL    HW228570   6.443  14.187   2.200
 8911SOL     OW28571  11.296   4.199   0.751
 8911SOL    HW128572  11.280   4.161   0.837
 8911SOL    HW228573  11.347   4.133   0.705
 8912SOL     OW28574  11.602   8.306   8.737
 8912SOL    HW128575  11.530   8.347   8.690
 8912SOL    HW228576  11.659   8.270   8.669
 8913SOL     OW28577  12.319   6.878   6.987
 8913SOL    HW128578  12.408   6.846   6.974
 8913SOL    HW228579  12.270   6.802   7.018
 8914SOL     OW28580   7.067  12.731   3.531
 8914SOL    HW128581   7.045  12.724   3.438
 8914SOL    HW228582   7.143  12.674   3.542
 8915SOL     OW28583  14.256   4.529   0.870
 8915SOL    HW128584  14.169   4.537   0.831
 8915SOL    HW228585  14.300   4.462   0.819
 8916SOL     OW28586   8.924   0.105   5.341
 8916SOL    HW128587   8.893   0.131   5.428
 8916SOL    HW228588   8.944   0.012   5.348
 8917SOL     OW28589   1.041   3.647  12.872
 8917SOL    HW128590   1.009   3.686  12.791
 8917SOL    HW228591   1.005   3.558  12.871
 8918SOL     OW28592  12.424   9.835  11.370
 8918SOL    HW128593  12.351   9.888  11.338
 8918SOL    HW228594  12.437   9.864  11.460
 8919SOL     OW28595   8.974   4.899  10.240
 8919SOL    HW128596   8.899   4.841  10.257
 8919SOL    HW228597   8.935   4.986  10.233
 8920SOL     OW28598  14.682   0.157   8.479
 8920SOL    HW128599  14.767   0.127   8.446
 8920SOL    HW228600  14.687   0.145   8.573
 8921SOL     OW28601   3.999   2.260  14.089
 8921SOL    HW128602   4.061   2.291  14.023
 8921SOL    HW228603   3.926   2.223  14.038
 8922SOL     OW28604   6.942   6.686   9.090
 8922SOL    HW128605   6.961   6.596   9.116
 8922SOL    HW228606   6.975   6.694   9.001
 8923SOL     OW28607   3.176  10.079   9.887
 8923SOL    HW128608   3.151  10.146   9.950
 8923SOL    HW228609   3.125  10.002   9.912
 8924SOL     OW28610  10.924   6.702  11.109
 8924SOL    HW128611  11.019   6.711  11.100
 8924SOL    HW228612  10.897   6.782  11.155
 8925SOL     OW28613   7.240   9.327  13.288
 8925SOL    HW128614   7.325   9.290  13.264
 8925SOL    HW228615   7.189   9.252  13.320
 8926SOL     OW28616   0.209  12.786   4.341
 8926SOL    HW128617   0.284  12.737   4.376
 8926SOL    HW228618   0.246  12.870   4.312
 8927SOL     OW28619   0.154   0.252  10.488
 8927SOL    HW128620   0.194   0.230  10.404
 8927SOL    HW228621   0.164   0.173  10.541
 8928SOL     OW28622   5.391  11.242   3.016
 8928SOL    HW128623   5.350  11.260   3.101
 8928SOL    HW228624   5.427  11.154   3.024
 8929SOL     OW28625   0.581   0.110   6.219
 8929SOL    HW128626   0.522   0.183   6.201
 8929SOL    HW228627   0.524   0.034   6.222
 8930SOL     OW28628   2.190  12.741   6.352
 8930SOL    HW128629   2.111  12.688   6.341
 8930SOL    HW228630   2.248  12.712   6.282
 8931SOL     OW28631   9.789   0.204   0.408
 8931SOL    HW128632   9.749   0.140   0.466
 8931SOL    HW228633   9.823   0.152   0.335
 8932SOL     OW28634   5.054  13.412   5.337
 8932SOL    HW128635   5.115  13.454   5.277
 8932SOL    HW228636   5.061  13.464   5.417
 8933SOL     OW28637   4.901  13.261   5.940
 8933SOL    HW128638   4.825  13.218   5.901
 8933SOL    HW228639   4.892  13.245   6.034
 8934SOL     OW28640   7.046  11.773  12.349
 8934SOL    HW128641   6.979  11.833  12.315
 8934SOL    HW228642   7.033  11.692  12.300
 8935SOL     OW28643   1.950   1.530   7.171
 8935SOL    HW128644   1.948   1.592   7.099
 8935SOL    HW228645   1.886   1.463   7.147
 8936SOL     OW28646   1.284  13.692   2.910
 8936SOL    HW128647   1.358  13.634   2.894
 8936SOL    HW228648   1.310  13.776   2.871
 8937SOL     OW28649  14.389   3.110  13.567
 8937SOL    HW128650  14.461   3.109  13.630
 8937SOL    HW228651  14.393   3.024  13.525
 8938SOL     OW28652   8.994  13.597   9.700
 8938SOL    HW128653   8.926  13.631   9.758
 8938SOL    HW228654   8.992  13.502   9.713
 8939SOL     OW28655   7.000   6.139  11.619
 8939SOL    HW128656   7.055   6.217  11.608
 8939SOL    HW228657   7.050   6.068  11.580
 8940SOL     OW28658  13.040   1.226   4.814
 8940SOL    HW128659  12.953   1.190   4.795
 8940SOL    HW228660  13.077   1.168   4.880
 8941SOL     OW28661  12.606   2.410   8.546
 8941SOL    HW128662  12.611   2.441   8.456
 8941SOL    HW228663  12.673   2.342   8.552
 8942SOL     OW28664  11.974   4.542   6.932
 8942SOL    HW128665  11.935   4.627   6.915
 8942SOL    HW228666  12.051   4.538   6.875
 8943SOL     OW28667  12.865  11.844  11.895
 8943SOL    HW128668  12.957  11.831  11.876
 8943SOL    HW228669  12.819  11.811  11.818
 8944SOL     OW28670   4.507   2.502  12.224
 8944SOL    HW128671   4.591   2.546  12.237
 8944SOL    HW228672   4.521   2.414  12.261
 8945SOL     OW28673   5.888   1.832   3.463
 8945SOL    HW128674   5.812   1.879   3.498
 8945SOL    HW228675   5.934   1.801   3.540
 8946SOL     OW28676  11.533   8.652  14.281
 8946SOL    HW128677  11.625   8.653  14.307
 8946SOL    HW228678  11.517   8.739  14.245
 8947SOL     OW28679  14.766  12.912   5.710
 8947SOL    HW128680  14.789  12.831   5.664
 8947SOL    HW228681  14.790  12.895   5.801
 8948SOL     OW28682   6.665  12.680   2.869
 8948SOL    HW128683   6.719  12.601   2.856
 8948SOL    HW228684   6.642  12.678   2.962
 8949SOL     OW28685  13.463   5.331   3.982
 8949SOL    HW128686  13.557   5.344   3.998
 8949SOL    HW228687  13.458   5.303   3.891
 8950SOL     OW28688   6.071   4.141   6.778
 8950SOL    HW128689   6.031   4.083   6.842
 8950SOL    HW228690   6.025   4.225   6.790
 8951SOL     OW28691  12.886   8.202   9.420
 8951SOL    HW128692  12.950   8.159   9.363
 8951SOL    HW228693  12.845   8.267   9.364
 8952SOL     OW28694   1.956   8.842   5.519
 8952SOL    HW128695   1.981   8.824   5.428
 8952SOL    HW228696   1.964   8.937   5.528
 8953SOL     OW28697   0.098   6.319   4.255
 8953SOL    HW128698   0.064   6.408   4.244
 8953SOL    HW228699   0.184   6.331   4.293
 8954SOL     OW28700   0.005  10.094   3.674
 8954SOL    HW128701  14.822  10.095   3.601
 8954SOL    HW228702   0.085  10.133   3.639
 8955SOL     OW28703   7.999   1.944   3.107
 8955SOL    HW128704   7.934   2.001   3.066
 8955SOL    HW228705   7.958   1.858   3.110
 8956SOL     OW28706   6.300   2.183   3.038
 8956SOL    HW128707   6.280   2.090   3.032
 8956SOL    HW228708   6.342   2.193   3.124
 8957SOL     OW28709   4.931   2.324  11.300
 8957SOL    HW128710   4.876   2.327  11.221
 8957SOL    HW228711   4.907   2.404  11.348
 8958SOL     OW28712   3.830   7.908  13.947
 8958SOL    HW128713   3.853   7.831  13.896
 8958SOL    HW228714   3.899   7.971  13.927
 8959SOL     OW28715   1.644   3.191   7.045
 8959SOL    HW128716   1.598   3.225   6.969
 8959SOL    HW228717   1.576   3.149   7.097
 8960SOL     OW28718   9.791   0.965   0.581
 8960SOL    HW128719   9.742   1.017   0.518
 8960SOL    HW228720   9.875   1.010   0.590
 8961SOL     OW28721  13.616   4.590   6.195
 8961SOL    HW128722  13.600   4.508   6.150
 8961SOL    HW228723  13.711   4.602   6.192
 8962SOL     OW28724   1.662  13.761   6.767
 8962SOL    HW128725   1.661  13.718   6.682
 8962SOL    HW228726   1.633  13.694   6.829
 8963SOL     OW28727   8.496   3.013   7.861
 8963SOL    HW128728   8.502   2.952   7.935
 8963SOL    HW228729   8.530   2.964   7.786
 8964SOL     OW28730   7.327  14.125   6.107
 8964SOL    HW128731   7.240  14.126   6.146
 8964SOL    HW228732   7.313  14.148   6.015
 8965SOL     OW28733   1.512   4.825   2.690
 8965SOL    HW128734   1.542   4.837   2.780
 8965SOL    HW228735   1.483   4.734   2.686
 8966SOL     OW28736  11.389   5.885   6.311
 8966SOL    HW128737  11.427   5.857   6.228
 8966SOL    HW228738  11.384   5.980   6.305
 8967SOL     OW28739   5.943   0.734  10.830
 8967SOL    HW128740   5.883   0.806  10.811
 8967SOL    HW228741   5.919   0.666  10.766
 8968SOL     OW28742   5.489  10.408  10.722
 8968SOL    HW128743   5.573  10.452  10.727
 8968SOL    HW228744   5.482  10.358  10.803
 8969SOL     OW28745   7.051   8.573   5.660
 8969SOL    HW128746   7.146   8.562   5.664
 8969SOL    HW228747   7.040   8.658   5.616
 8970SOL     OW28748   3.386  11.115   2.093
 8970SOL    HW128749   3.482  11.115   2.096
 8970SOL    HW228750   3.360  11.187   2.150
 8971SOL     OW28751   6.665  10.472  11.220
 8971SOL    HW128752   6.666  10.566  11.237
 8971SOL    HW228753   6.577  10.455  11.185
 8972SOL     OW28754   6.522   5.512   5.697
 8972SOL    HW128755   6.548   5.557   5.616
 8972SOL    HW228756   6.429   5.493   5.686
 8973SOL     OW28757  14.085   9.574   8.663
 8973SOL    HW128758  14.015   9.533   8.612
 8973SOL    HW228759  14.059   9.666   8.669
 8974SOL     OW28760  13.294   1.746   0.518
 8974SOL    HW128761  13.210   1.704   0.537
 8974SOL    HW228762  13.276   1.840   0.522
 8975SOL     OW28763   1.849   4.535  10.152
 8975SOL    HW128764   1.879   4.466  10.093
 8975SOL    HW228765   1.859   4.616  10.101
 8976SOL     OW28766   6.827   8.379   2.295
 8976SOL    HW128767   6.881   8.455   2.273
 8976SOL    HW228768   6.891   8.310   2.316
 8977SOL     OW28769   8.870  11.977   9.068
 8977SOL    HW128770   8.926  11.960   9.144
 8977SOL    HW228771   8.784  11.994   9.105
 8978SOL     OW28772   7.846   4.525  14.102
 8978SOL    HW128773   7.874   4.507  14.192
 8978SOL    HW228774   7.916   4.490  14.047
 8979SOL     OW28775   4.488   2.835  14.490
 8979SOL    HW128776   4.569   2.804  14.531
 8979SOL    HW228777   4.430   2.759  14.491
 8980SOL     OW28778  13.348   5.759   9.406
 8980SOL    HW128779  13.370   5.745   9.314
 8980SOL    HW228780  13.258   5.727   9.414
 8981SOL     OW28781   3.959   4.367   6.618
 8981SOL    HW128782   3.927   4.431   6.555
 8981SOL    HW228783   3.916   4.285   6.594
 8982SOL     OW28784   8.759   2.472   7.178
 8982SOL    HW128785   8.792   2.397   7.227
 8982SOL    HW228786   8.831   2.497   7.121
 8983SOL     OW28787   6.980   1.185   2.550
 8983SOL    HW128788   6.943   1.135   2.623
 8983SOL    HW228789   7.032   1.121   2.501
 8984SOL     OW28790   3.051   8.196   4.713
 8984SOL    HW128791   3.086   8.283   4.732
 8984SOL    HW228792   2.985   8.211   4.646
 8985SOL     OW28793   5.178   8.885   3.483
 8985SOL    HW128794   5.239   8.951   3.451
 8985SOL    HW228795   5.233   8.813   3.513
 8986SOL     OW28796   5.420   3.319   8.852
 8986SOL    HW128797   5.365   3.300   8.928
 8986SOL    HW228798   5.487   3.379   8.885
 8987SOL     OW28799   0.973  10.475   3.249
 8987SOL    HW128800   1.063  10.465   3.217
 8987SOL    HW228801   0.973  10.559   3.295
 8988SOL     OW28802   5.272   2.443  10.595
 8988SOL    HW128803   5.203   2.419  10.657
 8988SOL    HW228804   5.334   2.371  10.599
 8989SOL     OW28805  12.253   0.833   7.312
 8989SOL    HW128806  12.227   0.877   7.392
 8989SOL    HW228807  12.316   0.767   7.340
 8990SOL     OW28808   8.650   6.788  10.945
 8990SOL    HW128809   8.740   6.770  10.916
 8990SOL    HW228810   8.632   6.877  10.914
 8991SOL     OW28811   0.698  14.529  11.159
 8991SOL    HW128812   0.766  14.501  11.098
 8991SOL    HW228813   0.664  14.610  11.121
 8992SOL     OW28814  11.453  10.480   8.179
 8992SOL    HW128815  11.427  10.391   8.201
 8992SOL    HW228816  11.486  10.474   8.089
 8993SOL     OW28817   1.128   0.103  10.338
 8993SOL    HW128818   1.146   0.186  10.295
 8993SOL    HW228819   1.208   0.083  10.387
 8994SOL     OW28820  13.773  13.576  11.708
 8994SOL    HW128821  13.776  13.492  11.663
 8994SOL    HW228822  13.798  13.556  11.798
 8995SOL     OW28823   4.856   3.815  11.520
 8995SOL    HW128824   4.940   3.770  11.527
 8995SOL    HW228825   4.821   3.815  11.609
 8996SOL     OW28826   4.459   7.826  14.836
 8996SOL    HW128827   4.518   7.900  14.826
 8996SOL    HW228828   4.491   7.779   0.034
 8997SOL     OW28829   6.688   7.069  14.399
 8997SOL    HW128830   6.750   7.003  14.428
 8997SOL    HW228831   6.740   7.131  14.348
 8998SOL     OW28832   7.112   2.920  10.885
 8998SOL    HW128833   7.089   2.846  10.941
 8998SOL    HW228834   7.202   2.942  10.909
 8999SOL     OW28835   1.174   3.854  13.276
 8999SOL    HW128836   1.103   3.841  13.339
 8999SOL    HW228837   1.146   3.930  13.224
 9000SOL     OW28838   9.980   8.208   8.088
 9000SOL    HW128839   9.923   8.213   8.165
 9000SOL    HW228840   9.922   8.222   8.013
 9001SOL     OW28841   9.222   1.521  13.260
 9001SOL    HW128842   9.135   1.554  13.283
 9001SOL    HW228843   9.272   1.527  13.342
 9002SOL     OW28844  14.336   2.740  12.799
 9002SOL    HW128845  14.409   2.694  12.840
 9002SOL    HW228846  14.269   2.744  12.867
 9003SOL     OW28847   7.453   4.661   6.095
 9003SOL    HW128848   7.362   4.638   6.076
 9003SOL    HW228849   7.452   4.756   6.105
 9004SOL     OW28850   3.132   5.934   5.679
 9004SOL    HW128851   3.061   5.960   5.621
 9004SOL    HW228852   3.120   5.988   5.757
 9005SOL     OW28853   8.585  10.813   8.586
 9005SOL    HW128854   8.642  10.802   8.662
 9005SOL    HW228855   8.559  10.905   8.589
 9006SOL     OW28856  11.670   0.593   5.481
 9006SOL    HW128857  11.715   0.631   5.405
 9006SOL    HW228858  11.696   0.647   5.555
 9007SOL     OW28859   2.382  13.196   1.651
 9007SOL    HW128860   2.292  13.221   1.628
 9007SOL    HW228861   2.429  13.196   1.568
 9008SOL     OW28862  13.706   9.082   1.926
 9008SOL    HW128863  13.735   9.092   1.835
 9008SOL    HW228864  13.696   9.172   1.958
 9009SOL     OW28865   3.529  13.439   8.365
 9009SOL    HW128866   3.573  13.355   8.375
 9009SOL    HW228867   3.546  13.486   8.446
 9010SOL     OW28868   4.899   5.647   2.698
 9010SOL    HW128869   4.823   5.698   2.669
 9010SOL    HW228870   4.891   5.644   2.793
 9011SOL     OW28871  13.524  14.368   1.709
 9011SOL    HW128872  13.578  14.297   1.673
 9011SOL    HW228873  13.435  14.332   1.711
 9012SOL     OW28874   9.025   9.573   1.384
 9012SOL    HW128875   9.072   9.638   1.435
 9012SOL    HW228876   8.987   9.622   1.311
 9013SOL     OW28877   0.560   0.268   5.893
 9013SOL    HW128878   0.613   0.347   5.883
 9013SOL    HW228879   0.618   0.197   5.865
 9014SOL     OW28880  10.212   4.126   2.576
 9014SOL    HW128881  10.165   4.147   2.495
 9014SOL    HW228882  10.288   4.075   2.546
 9015SOL     OW28883   7.969   0.076   6.811
 9015SOL    HW128884   7.898   0.014   6.793
 9015SOL    HW228885   7.989   0.063   6.904
 9016SOL     OW28886   8.257  11.314   8.339
 9016SOL    HW128887   8.263  11.246   8.407
 9016SOL    HW228888   8.190  11.282   8.279
 9017SOL     OW28889   3.725   4.600   5.817
 9017SOL    HW128890   3.633   4.579   5.801
 9017SOL    HW228891   3.727   4.696   5.822
 9018SOL     OW28892   8.373  13.117  12.568
 9018SOL    HW128893   8.403  13.109  12.658
 9018SOL    HW228894   8.437  13.176  12.527
 9019SOL     OW28895  10.017   1.066   4.028
 9019SOL    HW128896  10.071   1.083   4.106
 9019SOL    HW228897  10.070   1.007   3.975
 9020SOL     OW28898   6.932   0.720   5.747
 9020SOL    HW128899   6.991   0.663   5.697
 9020SOL    HW228900   6.985   0.798   5.766
 9021SOL     OW28901   0.516  12.287   3.975
 9021SOL    HW128902   0.581  12.251   4.035
 9021SOL    HW228903   0.568  12.330   3.906
 9022SOL     OW28904  13.751   7.161   0.028
 9022SOL    HW128905  13.670   7.127   0.066
 9022SOL    HW228906  13.808   7.084   0.020
 9023SOL     OW28907   7.996   2.037   1.129
 9023SOL    HW128908   7.957   2.064   1.046
 9023SOL    HW228909   7.956   2.094   1.194
 9024SOL     OW28910  14.397   7.610  11.780
 9024SOL    HW128911  14.490   7.620  11.800
 9024SOL    HW228912  14.357   7.591  11.865
 9025SOL     OW28913   7.869   0.654   8.042
 9025SOL    HW128914   7.845   0.603   7.965
 9025SOL    HW228915   7.950   0.698   8.017
 9026SOL     OW28916  14.343   5.317   6.518
 9026SOL    HW128917  14.264   5.347   6.473
 9026SOL    HW228918  14.415   5.355   6.468
 9027SOL     OW28919  12.025  10.763  13.448
 9027SOL    HW128920  12.009  10.790  13.358
 9027SOL    HW228921  12.006  10.669  13.449
 9028SOL     OW28922   1.828   7.321   2.244
 9028SOL    HW128923   1.807   7.338   2.336
 9028SOL    HW228924   1.832   7.225   2.238
 9029SOL     OW28925   9.374   0.754   1.728
 9029SOL    HW128926   9.415   0.679   1.772
 9029SOL    HW228927   9.350   0.813   1.800
 9030SOL     OW28928   4.391   5.076   2.062
 9030SOL    HW128929   4.466   5.073   2.122
 9030SOL    HW228930   4.326   5.019   2.103
 9031SOL     OW28931   1.857   4.945   9.769
 9031SOL    HW128932   1.787   5.007   9.790
 9031SOL    HW228933   1.921   4.996   9.720
 9032SOL     OW28934   3.338   7.164  13.141
 9032SOL    HW128935   3.391   7.150  13.219
 9032SOL    HW228936   3.248   7.156  13.171
 9033SOL     OW28937   3.218   9.132  12.162
 9033SOL    HW128938   3.217   9.038  12.147
 9033SOL    HW228939   3.184   9.170  12.081
 9034SOL     OW28940  13.744   8.820  11.176
 9034SOL    HW128941  13.721   8.733  11.143
 9034SOL    HW228942  13.676   8.841  11.240
 9035SOL     OW28943  13.395  14.352  14.681
 9035SOL    HW128944  13.472  14.377  14.732
 9035SOL    HW228945  13.354  14.282  14.732
 9036SOL     OW28946  10.587   8.776  11.892
 9036SOL    HW128947  10.606   8.760  11.984
 9036SOL    HW228948  10.494   8.757  11.883
 9037SOL     OW28949   3.649   6.054   7.842
 9037SOL    HW128950   3.612   6.106   7.914
 9037SOL    HW228951   3.716   6.000   7.884
 9038SOL     OW28952  11.609   2.634  12.990
 9038SOL    HW128953  11.664   2.576  13.042
 9038SOL    HW228954  11.521   2.624  13.028
 9039SOL     OW28955   0.648  12.667   7.205
 9039SOL    HW128956   0.728  12.696   7.160
 9039SOL    HW228957   0.649  12.572   7.196
 9040SOL     OW28958   9.137   9.414  12.642
 9040SOL    HW128959   9.056   9.376  12.608
 9040SOL    HW228960   9.179   9.452  12.566
 9041SOL     OW28961   9.061   7.125  13.079
 9041SOL    HW128962   9.150   7.122  13.115
 9041SOL    HW228963   9.020   7.046  13.112
 9042SOL     OW28964   3.370   0.653  11.541
 9042SOL    HW128965   3.422   0.617  11.613
 9042SOL    HW228966   3.345   0.577  11.488
 9043SOL     OW28967  10.171   8.461   0.474
 9043SOL    HW128968  10.100   8.404   0.445
 9043SOL    HW228969  10.242   8.401   0.498
 9044SOL     OW28970  11.199  12.770   2.450
 9044SOL    HW128971  11.170  12.707   2.384
 9044SOL    HW228972  11.153  12.851   2.428
 9045SOL     OW28973   8.423  11.452   9.200
 9045SOL    HW128974   8.391  11.542   9.192
 9045SOL    HW228975   8.518  11.461   9.203
 9046SOL     OW28976  10.954   7.891   7.255
 9046SOL    HW128977  11.033   7.895   7.201
 9046SOL    HW228978  10.980   7.931   7.338
 9047SOL     OW28979   0.288   9.777   2.285
 9047SOL    HW128980   0.354   9.844   2.304
 9047SOL    HW228981   0.334   9.713   2.231
 9048SOL     OW28982   2.576  10.939  14.875
 9048SOL    HW128983   2.547  10.850   0.015
 9048SOL    HW228984   2.542  10.957  14.788
 9049SOL     OW28985  12.740   6.406  11.274
 9049SOL    HW128986  12.735   6.481  11.215
 9049SOL    HW228987  12.814   6.426  11.331
 9050SOL     OW28988   5.290   6.652   4.174
 9050SOL    HW128989   5.270   6.591   4.104
 9050SOL    HW228990   5.373   6.692   4.149
 9051SOL     OW28991   1.584  10.664  14.358
 9051SOL    HW128992   1.669  10.664  14.401
 9051SOL    HW228993   1.602  10.693  14.268
 9052SOL     OW28994  10.899   4.221  10.392
 9052SOL    HW128995  10.946   4.159  10.337
 9052SOL    HW228996  10.909   4.305  10.348
 9053SOL     OW28997  12.958   2.040  10.664
 9053SOL    HW128998  12.907   1.962  10.686
 9053SOL    HW228999  12.931   2.063  10.575
 9054SOL     OW29000   8.146  11.191  12.809
 9054SOL    HW129001   8.062  11.158  12.840
 9054SOL    HW229002   8.137  11.196  12.714
 9055SOL     OW29003  10.902  12.639   3.154
 9055SOL    HW129004  10.923  12.647   3.247
 9055SOL    HW229005  10.984  12.612   3.113
 9056SOL     OW29006   7.508  14.258  12.981
 9056SOL    HW129007   7.505  14.225  13.071
 9056SOL    HW229008   7.536  14.182  12.929
 9057SOL     OW29009   6.328   9.957  14.437
 9057SOL    HW129010   6.303   9.999  14.519
 9057SOL    HW229011   6.282   9.873  14.440
 9058SOL     OW29012   4.135  12.313  11.975
 9058SOL    HW129013   4.040  12.315  11.979
 9058SOL    HW229014   4.163  12.371  12.047
 9059SOL     OW29015   2.103   8.589  10.542
 9059SOL    HW129016   2.143   8.519  10.593
 9059SOL    HW229017   2.178   8.636  10.504
 9060SOL     OW29018   3.118  13.278  11.987
 9060SOL    HW129019   3.159  13.328  11.916
 9060SOL    HW229020   3.176  13.293  12.062
 9061SOL     OW29021  12.265  11.230   0.880
 9061SOL    HW129022  12.183  11.207   0.836
 9061SOL    HW229023  12.267  11.176   0.959
 9062SOL     OW29024  14.804   1.860   4.051
 9062SOL    HW129025   0.008   1.873   4.097
 9062SOL    HW229026  14.823   1.883   3.960
 9063SOL     OW29027  12.238   1.383   8.322
 9063SOL    HW129028  12.279   1.384   8.236
 9063SOL    HW229029  12.146   1.404   8.305
 9064SOL     OW29030  11.019   8.006   1.598
 9064SOL    HW129031  11.017   8.000   1.503
 9064SOL    HW229032  10.927   8.019   1.624
 9065SOL     OW29033   2.669  10.334   9.660
 9065SOL    HW129034   2.605  10.276   9.701
 9065SOL    HW229035   2.626  10.364   9.580
 9066SOL     OW29036   8.373  13.855   5.949
 9066SOL    HW129037   8.342  13.798   6.019
 9066SOL    HW229038   8.451  13.897   5.985
 9067SOL     OW29039   5.866   7.691   6.755
 9067SOL    HW129040   5.888   7.783   6.766
 9067SOL    HW229041   5.933   7.656   6.697
 9068SOL     OW29042  12.997   7.778   2.647
 9068SOL    HW129043  13.056   7.790   2.573
 9068SOL    HW229044  12.938   7.708   2.621
 9069SOL     OW29045   6.137   1.743   4.497
 9069SOL    HW129046   6.076   1.809   4.465
 9069SOL    HW229047   6.082   1.678   4.540
 9070SOL     OW29048   3.053   3.277   8.836
 9070SOL    HW129049   3.084   3.196   8.876
 9070SOL    HW229050   3.117   3.344   8.861
 9071SOL     OW29051   8.929   6.037   2.429
 9071SOL    HW129052   8.964   6.103   2.489
 9071SOL    HW229053   8.982   6.046   2.350
 9072SOL     OW29054   1.462  12.252  14.440
 9072SOL    HW129055   1.537  12.223  14.389
 9072SOL    HW229056   1.437  12.174  14.491
 9073SOL     OW29057   3.608  10.134   3.063
 9073SOL    HW129058   3.671  10.147   2.991
 9073SOL    HW229059   3.594  10.039   3.064
 9074SOL     OW29060  13.287  12.422   2.844
 9074SOL    HW129061  13.311  12.332   2.866
 9074SOL    HW229062  13.192  12.424   2.851
 9075SOL     OW29063  11.709  12.694   4.463
 9075SOL    HW129064  11.732  12.787   4.456
 9075SOL    HW229065  11.703  12.678   4.557
 9076SOL     OW29066   4.017  14.631   8.134
 9076SOL    HW129067   4.043  14.714   8.172
 9076SOL    HW229068   4.004  14.650   8.041
 9077SOL     OW29069   0.370  11.040  12.831
 9077SOL    HW129070   0.445  10.992  12.796
 9077SOL    HW229071   0.294  10.992  12.798
 9078SOL     OW29072   7.061   5.090   4.617
 9078SOL    HW129073   7.053   5.184   4.603
 9078SOL    HW229074   7.059   5.079   4.712
 9079SOL     OW29075  12.389   1.196   8.493
 9079SOL    HW129076  12.366   1.228   8.579
 9079SOL    HW229077  12.369   1.268   8.433
 9080SOL     OW29078   5.775   2.288   7.107
 9080SOL    HW129079   5.792   2.265   7.198
 9080SOL    HW229080   5.685   2.320   7.105
 9081SOL     OW29081   6.373   5.294   1.975
 9081SOL    HW129082   6.367   5.252   2.061
 9081SOL    HW229083   6.436   5.241   1.927
 9082SOL     OW29084  11.384   3.390  13.810
 9082SOL    HW129085  11.293   3.366  13.794
 9082SOL    HW229086  11.387   3.484  13.789
 9083SOL     OW29087  12.111   8.337   7.367
 9083SOL    HW129088  12.157   8.287   7.435
 9083SOL    HW229089  12.178   8.396   7.332
 9084SOL     OW29090   7.464  11.988   4.418
 9084SOL    HW129091   7.448  11.930   4.343
 9084SOL    HW229092   7.559  11.981   4.433
 9085SOL     OW29093   6.807   0.171   5.629
 9085SOL    HW129094   6.869   0.172   5.702
 9085SOL    HW229095   6.766   0.085   5.633
 9086SOL     OW29096   4.297   7.148   7.703
 9086SOL    HW129097   4.334   7.177   7.619
 9086SOL    HW229098   4.348   7.070   7.726
 9087SOL     OW29099   7.787   1.171   2.483
 9087SOL    HW129100   7.747   1.241   2.432
 9087SOL    HW229101   7.753   1.091   2.443
 9088SOL     OW29102   2.122   5.664   1.767
 9088SOL    HW129103   2.176   5.627   1.837
 9088SOL    HW229104   2.176   5.734   1.730
 9089SOL     OW29105   9.781  11.021   7.305
 9089SOL    HW129106   9.690  11.002   7.281
 9089SOL    HW229107   9.833  10.955   7.258
 9090SOL     OW29108  12.228   6.150   5.843
 9090SOL    HW129109  12.291   6.077   5.845
 9090SOL    HW229110  12.168   6.132   5.915
 9091SOL     OW29111  13.376  10.057   9.267
 9091SOL    HW129112  13.336  10.023   9.347
 9091SOL    HW229113  13.393  10.149   9.287
 9092SOL     OW29114   9.821   3.762  14.436
 9092SOL    HW129115   9.828   3.803  14.350
 9092SOL    HW229116   9.740   3.796  14.473
 9093SOL     OW29117   3.608   9.337   0.206
 9093SOL    HW129118   3.661   9.274   0.254
 9093SOL    HW229119   3.661   9.417   0.205
 9094SOL     OW29120   1.723   4.421  12.542
 9094SOL    HW129121   1.734   4.501  12.492
 9094SOL    HW229122   1.688   4.358  12.479
 9095SOL     OW29123  10.286   6.737   9.525
 9095SOL    HW129124  10.339   6.806   9.565
 9095SOL    HW229125  10.206   6.733   9.577
 9096SOL     OW29126   1.422  13.543  14.170
 9096SOL    HW129127   1.362  13.479  14.133
 9096SOL    HW229128   1.509  13.504  14.158
 9097SOL     OW29129   2.612  13.545   5.288
 9097SOL    HW129130   2.642  13.636   5.285
 9097SOL    HW229131   2.551  13.538   5.214
 9098SOL     OW29132   2.838  12.096   4.975
 9098SOL    HW129133   2.777  12.070   5.044
 9098SOL    HW229134   2.924  12.089   5.015
 9099SOL     OW29135  14.338   1.181   0.686
 9099SOL    HW129136  14.368   1.157   0.599
 9099SOL    HW229137  14.291   1.264   0.673
 9100SOL     OW29138   2.953  12.385   0.551
 9100SOL    HW129139   2.940  12.414   0.641
 9100SOL    HW229140   2.896  12.309   0.541
 9101SOL     OW29141  12.911   2.227  11.122
 9101SOL    HW129142  12.868   2.217  11.207
 9101SOL    HW229143  12.852   2.187  11.059
 9102SOL     OW29144   8.919  10.665   5.101
 9102SOL    HW129145   8.827  10.647   5.081
 9102SOL    HW229146   8.923  10.760   5.111
 9103SOL     OW29147   6.077   6.694   1.928
 9103SOL    HW129148   6.138   6.634   1.886
 9103SOL    HW229149   6.115   6.712   2.013
 9104SOL     OW29150   7.013   1.822   6.522
 9104SOL    HW129151   7.095   1.870   6.509
 9104SOL    HW229152   7.038   1.749   6.580
 9105SOL     OW29153   6.438   2.917   7.660
 9105SOL    HW129154   6.347   2.888   7.667
 9105SOL    HW229155   6.488   2.836   7.646
 9106SOL     OW29156   2.331  14.341   0.507
 9106SOL    HW129157   2.301  14.403   0.440
 9106SOL    HW229158   2.325  14.256   0.464
 9107SOL     OW29159   1.292   1.004   1.295
 9107SOL    HW129160   1.387   1.000   1.282
 9107SOL    HW229161   1.257   0.935   1.238
 9108SOL     OW29162   5.938   4.018  11.156
 9108SOL    HW129163   5.921   3.941  11.210
 9108SOL    HW229164   6.033   4.019  11.144
 9109SOL     OW29165  10.554   8.043  14.016
 9109SOL    HW129166  10.644   8.051  14.048
 9109SOL    HW229167  10.550   8.103  13.942
 9110SOL     OW29168   3.781  11.867   9.950
 9110SOL    HW129169   3.847  11.937   9.954
 9110SOL    HW229170   3.708  11.899  10.002
 9111SOL     OW29171   0.336   9.566   9.638
 9111SOL    HW129172   0.270   9.509   9.599
 9111SOL    HW229173   0.416   9.514   9.637
 9112SOL     OW29174   2.970  14.800   5.660
 9112SOL    HW129175   3.008  14.742   5.594
 9112SOL    HW229176   2.878  14.773   5.666
 9113SOL     OW29177   1.914   5.813   1.944
 9113SOL    HW129178   1.946   5.901   1.922
 9113SOL    HW229179   1.895   5.773   1.859
 9114SOL     OW29180   9.877   9.932   8.328
 9114SOL    HW129181   9.860   9.929   8.422
 9114SOL    HW229182   9.815   9.868   8.291
 9115SOL     OW29183   8.926  13.879  13.788
 9115SOL    HW129184   8.904  13.896  13.697
 9115SOL    HW229185   9.018  13.854  13.786
 9116SOL     OW29186   1.172  10.190  13.352
 9116SOL    HW129187   1.088  10.175  13.308
 9116SOL    HW229188   1.221  10.247  13.293
 9117SOL     OW29189   2.354   6.918   9.578
 9117SOL    HW129190   2.415   6.870   9.523
 9117SOL    HW229191   2.409   6.963   9.642
 9118SOL     OW29192  11.304  14.086  14.561
 9118SOL    HW129193  11.364  14.042  14.501
 9118SOL    HW229194  11.246  14.137  14.504
 9119SOL     OW29195  10.037  13.958   5.589
 9119SOL    HW129196  10.057  13.993   5.502
 9119SOL    HW229197  10.005  14.034   5.638
 9120SOL     OW29198   3.733  14.306   2.516
 9120SOL    HW129199   3.662  14.331   2.575
 9120SOL    HW229200   3.696  14.316   2.428
 9121SOL     OW29201  11.836  12.507  13.029
 9121SOL    HW129202  11.828  12.422  12.986
 9121SOL    HW229203  11.924  12.537  13.006
 9122SOL     OW29204   9.180  13.810  13.718
 9122SOL    HW129205   9.243  13.876  13.689
 9122SOL    HW229206   9.231  13.730  13.727
 9123SOL     OW29207   7.363  12.603   7.068
 9123SOL    HW129208   7.304  12.536   7.102
 9123SOL    HW229209   7.339  12.610   6.975
 9124SOL     OW29210   8.521   6.734   8.070
 9124SOL    HW129211   8.494   6.824   8.092
 9124SOL    HW229212   8.445   6.680   8.092
 9125SOL     OW29213   7.489   7.728   5.702
 9125SOL    HW129214   7.432   7.713   5.627
 9125SOL    HW229215   7.451   7.804   5.747
 9126SOL     OW29216   7.189  13.385   7.012
 9126SOL    HW129217   7.246  13.313   6.986
 9126SOL    HW229218   7.129  13.396   6.939
 9127SOL     OW29219   5.278  14.789   6.287
 9127SOL    HW129220   5.350  14.830   6.334
 9127SOL    HW229221   5.299  14.800   6.194
 9128SOL     OW29222  14.343  10.586  14.075
 9128SOL    HW129223  14.297  10.626  14.001
 9128SOL    HW229224  14.390  10.512  14.037
 9129SOL     OW29225   7.784   1.695   4.733
 9129SOL    HW129226   7.698   1.694   4.773
 9129SOL    HW229227   7.829   1.770   4.772
 9130SOL     OW29228  10.562   7.874   0.349
 9130SOL    HW129229  10.634   7.923   0.390
 9130SOL    HW229230  10.551   7.797   0.405
 9131SOL     OW29231   6.389   3.952   6.874
 9131SOL    HW129232   6.396   4.031   6.821
 9131SOL    HW229233   6.479   3.919   6.880
 9132SOL     OW29234   2.114   2.457  12.312
 9132SOL    HW129235   2.176   2.444  12.240
 9132SOL    HW229236   2.165   2.504  12.378
 9133SOL     OW29237  12.198   1.676   4.746
 9133SOL    HW129238  12.116   1.627   4.740
 9133SOL    HW229239  12.183   1.755   4.693
 9134SOL     OW29240   8.676   6.868  13.826
 9134SOL    HW129241   8.713   6.930  13.762
 9134SOL    HW229242   8.745   6.804  13.841
 9135SOL     OW29243   7.268   3.305   7.989
 9135SOL    HW129244   7.268   3.390   7.944
 9135SOL    HW229245   7.266   3.327   8.082
 9136SOL     OW29246   8.790   3.539   7.941
 9136SOL    HW129247   8.812   3.513   7.852
 9136SOL    HW229248   8.847   3.487   7.997
 9137SOL     OW29249   2.633  14.118  11.839
 9137SOL    HW129250   2.727  14.105  11.834
 9137SOL    HW229251   2.610  14.096  11.929
 9138SOL     OW29252   6.168  13.085  12.248
 9138SOL    HW129253   6.102  13.025  12.285
 9138SOL    HW229254   6.227  13.028  12.199
 9139SOL     OW29255  13.894   1.475   8.139
 9139SOL    HW129256  13.969   1.456   8.195
 9139SOL    HW229257  13.895   1.571   8.130
 9140SOL     OW29258   4.356   2.956   9.212
 9140SOL    HW129259   4.362   2.862   9.231
 9140SOL    HW229260   4.394   2.966   9.125
 9141SOL     OW29261   8.843  14.843   3.345
 9141SOL    HW129262   8.806  14.844   3.433
 9141SOL    HW229263   8.823   0.050   3.309
 9142SOL     OW29264   0.187   8.465   6.990
 9142SOL    HW129265   0.228   8.549   7.008
 9142SOL    HW229266   0.096   8.486   6.970
 9143SOL     OW29267   5.443   4.683   3.910
 9143SOL    HW129268   5.505   4.722   3.972
 9143SOL    HW229269   5.357   4.712   3.940
 9144SOL     OW29270   8.618  11.298   7.160
 9144SOL    HW129271   8.536  11.257   7.133
 9144SOL    HW229272   8.657  11.330   7.079
 9145SOL     OW29273   8.714  11.024   7.252
 9145SOL    HW129274   8.717  11.016   7.347
 9145SOL    HW229275   8.696  11.117   7.237
 9146SOL     OW29276   3.972   2.728   9.730
 9146SOL    HW129277   3.880   2.727   9.704
 9146SOL    HW229278   3.974   2.785   9.807
 9147SOL     OW29279  12.055  11.457   6.994
 9147SOL    HW129280  12.050  11.441   6.899
 9147SOL    HW229281  12.024  11.375   7.033
 9148SOL     OW29282  12.505   1.510   6.008
 9148SOL    HW129283  12.464   1.581   6.057
 9148SOL    HW229284  12.595   1.507   6.040
 9149SOL     OW29285   7.702   8.097   0.903
 9149SOL    HW129286   7.691   8.036   0.831
 9149SOL    HW229287   7.625   8.153   0.899
 9150SOL     OW29288  12.473  13.537   0.208
 9150SOL    HW129289  12.515  13.533   0.122
 9150SOL    HW229290  12.418  13.459   0.212
 9151SOL     OW29291   7.632   8.035   9.162
 9151SOL    HW129292   7.703   7.973   9.177
 9151SOL    HW229293   7.562   8.007   9.221
 9152SOL     OW29294  10.369   3.438   0.165
 9152SOL    HW129295  10.359   3.377   0.238
 9152SOL    HW229296  10.464   3.447   0.154
 9153SOL     OW29297  11.153   0.449   1.301
 9153SOL    HW129298  11.088   0.487   1.361
 9153SOL    HW229299  11.185   0.524   1.250
 9154SOL     OW29300   2.300   7.110   7.182
 9154SOL    HW129301   2.264   7.040   7.236
 9154SOL    HW229302   2.286   7.190   7.233
 9155SOL     OW29303  14.746   9.325   8.753
 9155SOL    HW129304  14.651   9.308   8.750
 9155SOL    HW229305  14.761   9.365   8.838
 9156SOL     OW29306   1.815   9.478  11.067
 9156SOL    HW129307   1.808   9.573  11.053
 9156SOL    HW229308   1.876   9.469  11.140
 9157SOL     OW29309   9.476  12.248  13.457
 9157SOL    HW129310   9.494  12.186  13.386
 9157SOL    HW229311   9.444  12.194  13.529
 9158SOL     OW29312   4.471   2.504  13.685
 9158SOL    HW129313   4.529   2.578  13.667
 9158SOL    HW229314   4.393   2.522  13.633
 9159SOL     OW29315  12.404   1.547  11.761
 9159SOL    HW129316  12.477   1.517  11.815
 9159SOL    HW229317  12.334   1.566  11.823
 9160SOL     OW29318  14.685  12.678   8.555
 9160SOL    HW129319  14.722  12.763   8.580
 9160SOL    HW229320  14.678  12.683   8.460
 9161SOL     OW29321   0.797   2.485   9.704
 9161SOL    HW129322   0.776   2.402   9.747
 9161SOL    HW229323   0.886   2.474   9.672
 9162SOL     OW29324   1.587   0.825   1.505
 9162SOL    HW129325   1.592   0.734   1.476
 9162SOL    HW229326   1.668   0.865   1.474
 9163SOL     OW29327   1.970  13.222   7.173
 9163SOL    HW129328   1.932  13.138   7.201
 9163SOL    HW229329   2.056  13.225   7.216
 9164SOL     OW29330  11.863   3.790  13.929
 9164SOL    HW129331  11.888   3.864  13.985
 9164SOL    HW229332  11.871   3.714  13.986
 9165SOL     OW29333  10.573   5.850  14.133
 9165SOL    HW129334  10.522   5.916  14.085
 9165SOL    HW229335  10.509   5.809  14.191
 9166SOL     OW29336   8.276   4.761  11.961
 9166SOL    HW129337   8.225   4.729  12.035
 9166SOL    HW229338   8.230   4.729  11.884
 9167SOL     OW29339   4.093   1.381   4.874
 9167SOL    HW129340   4.120   1.341   4.957
 9167SOL    HW229341   4.022   1.325   4.843
 9168SOL     OW29342  13.380   8.601  14.466
 9168SOL    HW129343  13.424   8.523  14.501
 9168SOL    HW229344  13.291   8.595  14.501
 9169SOL     OW29345   4.994  12.833   1.804
 9169SOL    HW129346   5.065  12.782   1.764
 9169SOL    HW229347   4.933  12.768   1.838
 9170SOL     OW29348   1.344   4.297   2.298
 9170SOL    HW129349   1.303   4.314   2.383
 9170SOL    HW229350   1.436   4.282   2.319
 9171SOL     OW29351  13.070   9.858   6.297
 9171SOL    HW129352  13.070   9.770   6.260
 9171SOL    HW229353  13.116   9.912   6.232
 9172SOL     OW29354   4.726  12.831   4.546
 9172SOL    HW129355   4.758  12.845   4.635
 9172SOL    HW229356   4.801  12.793   4.499
 9173SOL     OW29357   3.054   6.406  13.128
 9173SOL    HW129358   3.025   6.418  13.219
 9173SOL    HW229359   3.109   6.328  13.131
 9174SOL     OW29360   0.421  11.809  13.883
 9174SOL    HW129361   0.497  11.855  13.847
 9174SOL    HW229362   0.383  11.870  13.946
 9175SOL     OW29363   5.921   4.124   3.316
 9175SOL    HW129364   5.949   4.115   3.225
 9175SOL    HW229365   5.988   4.075   3.365
 9176SOL     OW29366   7.270   3.543   2.804
 9176SOL    HW129367   7.301   3.561   2.892
 9176SOL    HW229368   7.326   3.472   2.772
 9177SOL     OW29369   7.851   7.231   4.297
 9177SOL    HW129370   7.764   7.266   4.312
 9177SOL    HW229371   7.874   7.188   4.380
 9178SOL     OW29372   7.335  12.270  10.485
 9178SOL    HW129373   7.286  12.208  10.538
 9178SOL    HW229374   7.341  12.229  10.399
 9179SOL     OW29375  10.311   4.523   4.789
 9179SOL    HW129376  10.353   4.437   4.789
 9179SOL    HW229377  10.241   4.516   4.724
 9180SOL     OW29378   4.729  14.543  13.540
 9180SOL    HW129379   4.824  14.551  13.532
 9180SOL    HW229380   4.694  14.598  13.470
 9181SOL     OW29381  14.203   8.844   2.977
 9181SOL    HW129382  14.265   8.889   2.920
 9181SOL    HW229383  14.215   8.884   3.063
 9182SOL     OW29384   5.128   2.239   9.311
 9182SOL    HW129385   5.184   2.199   9.378
 9182SOL    HW229386   5.189   2.283   9.252
 9183SOL     OW29387  13.683  13.242   2.385
 9183SOL    HW129388  13.711  13.326   2.423
 9183SOL    HW229389  13.691  13.179   2.457
 9184SOL     OW29390  13.565   6.670   0.187
 9184SOL    HW129391  13.569   6.596   0.248
 9184SOL    HW229392  13.471   6.680   0.169
 9185SOL     OW29393   9.524   7.371  12.489
 9185SOL    HW129394   9.478   7.422  12.556
 9185SOL    HW229395   9.474   7.386  12.409
 9186SOL     OW29396   4.722   7.065   0.838
 9186SOL    HW129397   4.676   7.007   0.899
 9186SOL    HW229398   4.804   7.019   0.819
 9187SOL     OW29399  14.051   3.331   2.248
 9187SOL    HW129400  14.121   3.384   2.208
 9187SOL    HW229401  14.020   3.384   2.321
 9188SOL     OW29402   3.871  10.358   1.130
 9188SOL    HW129403   3.946  10.355   1.072
 9188SOL    HW229404   3.901  10.408   1.206
 9189SOL     OW29405   0.343   5.290   8.720
 9189SOL    HW129406   0.385   5.296   8.806
 9189SOL    HW229407   0.366   5.372   8.676
 9190SOL     OW29408  12.520  13.971   5.573
 9190SOL    HW129409  12.497  13.947   5.483
 9190SOL    HW229410  12.536  13.887   5.617
 9191SOL     OW29411   3.395   2.089   3.189
 9191SOL    HW129412   3.478   2.128   3.161
 9191SOL    HW229413   3.346   2.162   3.228
 9192SOL     OW29414  11.123  13.014   8.389
 9192SOL    HW129415  11.038  13.014   8.344
 9192SOL    HW229416  11.184  12.980   8.324
 9193SOL     OW29417   6.991   9.790   3.860
 9193SOL    HW129418   7.078   9.822   3.836
 9193SOL    HW229419   7.006   9.701   3.892
 9194SOL     OW29420   1.632   3.404   1.194
 9194SOL    HW129421   1.558   3.423   1.252
 9194SOL    HW229422   1.617   3.313   1.167
 9195SOL     OW29423   9.793   1.192   2.636
 9195SOL    HW129424   9.713   1.178   2.687
 9195SOL    HW229425   9.828   1.274   2.671
 9196SOL     OW29426  12.519   7.709   3.209
 9196SOL    HW129427  12.443   7.659   3.179
 9196SOL    HW229428  12.505   7.797   3.173
 9197SOL     OW29429   1.699   7.852  13.745
 9197SOL    HW129430   1.695   7.929  13.688
 9197SOL    HW229431   1.764   7.874  13.811
 9198SOL     OW29432  11.971   1.133   8.580
 9198SOL    HW129433  11.890   1.098   8.618
 9198SOL    HW229434  12.025   1.154   8.656
 9199SOL     OW29435  10.838   2.027   9.590
 9199SOL    HW129436  10.853   2.102   9.533
 9199SOL    HW229437  10.747   2.001   9.571
 9200SOL     OW29438   8.616   0.190   0.928
 9200SOL    HW129439   8.614   0.169   0.835
 9200SOL    HW229440   8.708   0.207   0.947
 9201SOL     OW29441  10.803   5.513   4.921
 9201SOL    HW129442  10.839   5.591   4.880
 9201SOL    HW229443  10.750   5.546   4.993
 9202SOL     OW29444   6.117  13.084   5.412
 9202SOL    HW129445   6.088  13.022   5.345
 9202SOL    HW229446   6.048  13.082   5.478
 9203SOL     OW29447   0.032   5.284   0.790
 9203SOL    HW129448  14.823   5.307   0.761
 9203SOL    HW229449   0.059   5.212   0.733
 9204SOL     OW29450   7.029  10.210   8.044
 9204SOL    HW129451   7.035  10.122   8.007
 9204SOL    HW229452   6.990  10.196   8.130
 9205SOL     OW29453   7.634  10.584   7.349
 9205SOL    HW129454   7.681  10.589   7.432
 9205SOL    HW229455   7.620  10.490   7.336
 9206SOL     OW29456   6.846   1.770   5.745
 9206SOL    HW129457   6.885   1.764   5.832
 9206SOL    HW229458   6.881   1.851   5.708
 9207SOL     OW29459  12.531  14.072   7.209
 9207SOL    HW129460  12.533  14.131   7.134
 9207SOL    HW229461  12.475  14.118   7.273
 9208SOL     OW29462  11.620   6.227   3.768
 9208SOL    HW129463  11.548   6.218   3.705
 9208SOL    HW229464  11.635   6.322   3.772
 9209SOL     OW29465   3.219  12.989   8.188
 9209SOL    HW129466   3.145  13.044   8.215
 9209SOL    HW229467   3.279  13.050   8.146
 9210SOL     OW29468  13.345   4.134   7.855
 9210SOL    HW129469  13.341   4.213   7.801
 9210SOL    HW229470  13.253   4.116   7.878
 9211SOL     OW29471  10.725  10.614   6.228
 9211SOL    HW129472  10.649  10.565   6.262
 9211SOL    HW229473  10.703  10.631   6.137
 9212SOL     OW29474   7.144  13.941  10.265
 9212SOL    HW129475   7.207  13.875  10.236
 9212SOL    HW229476   7.112  13.981  10.184
 9213SOL     OW29477   6.412  10.290   5.871
 9213SOL    HW129478   6.438  10.221   5.933
 9213SOL    HW229479   6.439  10.371   5.914
 9214SOL     OW29480   9.119   5.452  14.423
 9214SOL    HW129481   9.145   5.544  14.420
 9214SOL    HW229482   9.201   5.403  14.417
 9215SOL     OW29483   9.732  12.345   8.730
 9215SOL    HW129484   9.798  12.312   8.791
 9215SOL    HW229485   9.782  12.394   8.665
 9216SOL     OW29486   0.424   7.026   8.975
 9216SOL    HW129487   0.353   7.067   8.926
 9216SOL    HW229488   0.482   7.099   8.999
 9217SOL     OW29489   2.255   9.928  14.232
 9217SOL    HW129490   2.201   9.864  14.280
 9217SOL    HW229491   2.320   9.874  14.187
 9218SOL     OW29492  14.619   4.887   8.832
 9218SOL    HW129493  14.658   4.803   8.807
 9218SOL    HW229494  14.628   4.941   8.754
 9219SOL     OW29495  10.613   1.214   7.891
 9219SOL    HW129496  10.558   1.276   7.938
 9219SOL    HW229497  10.643   1.153   7.957
 9220SOL     OW29498   5.143  11.307   6.906
 9220SOL    HW129499   5.139  11.319   7.001
 9220SOL    HW229500   5.089  11.377   6.870
 9221SOL     OW29501   4.446   2.171   8.766
 9221SOL    HW129502   4.503   2.243   8.793
 9221SOL    HW229503   4.377   2.169   8.833
 9222SOL     OW29504   2.912  12.471   4.987
 9222SOL    HW129505   2.869  12.538   5.040
 9222SOL    HW229506   2.959  12.417   5.050
 9223SOL     OW29507   2.510   7.973   4.504
 9223SOL    HW129508   2.574   7.908   4.473
 9223SOL    HW229509   2.559   8.055   4.508
 9224SOL     OW29510   1.837  11.599  11.358
 9224SOL    HW129511   1.787  11.517  11.353
 9224SOL    HW229512   1.842  11.630  11.268
 9225SOL     OW29513   3.796  14.108  12.474
 9225SOL    HW129514   3.780  14.085  12.382
 9225SOL    HW229515   3.738  14.182  12.491
 9226SOL     OW29516   4.084  13.154  14.787
 9226SOL    HW129517   4.116  13.200  14.864
 9226SOL    HW229518   3.989  13.166  14.790
 9227SOL     OW29519   9.871  12.354   2.985
 9227SOL    HW129520   9.806  12.403   3.036
 9227SOL    HW229521   9.954  12.400   3.001
 9228SOL     OW29522   4.165   7.243  12.093
 9228SOL    HW129523   4.239   7.271  12.038
 9228SOL    HW229524   4.195   7.162  12.134
 9229SOL     OW29525  12.982  12.120   4.771
 9229SOL    HW129526  13.004  12.181   4.841
 9229SOL    HW229527  13.040  12.145   4.698
 9230SOL     OW29528  10.562  14.102  10.494
 9230SOL    HW129529  10.559  14.161  10.569
 9230SOL    HW229530  10.480  14.053  10.499
 9231SOL     OW29531   2.450   7.697   3.103
 9231SOL    HW129532   2.407   7.780   3.121
 9231SOL    HW229533   2.496   7.712   3.020
 9232SOL     OW29534   8.957   1.928   2.861
 9232SOL    HW129535   8.999   1.903   2.779
 9232SOL    HW229536   8.994   1.868   2.926
 9233SOL     OW29537   1.119   6.255   1.358
 9233SOL    HW129538   1.176   6.179   1.354
 9233SOL    HW229539   1.166   6.317   1.413
 9234SOL     OW29540   9.830   4.831   3.796
 9234SOL    HW129541   9.835   4.897   3.865
 9234SOL    HW229542   9.906   4.850   3.740
 9235SOL     OW29543   2.933  13.547   6.743
 9235SOL    HW129544   2.930  13.634   6.781
 9235SOL    HW229545   2.947  13.488   6.817
 9236SOL     OW29546  14.382  13.636   3.815
 9236SOL    HW129547  14.373  13.567   3.749
 9236SOL    HW229548  14.293  13.654   3.843
 9237SOL     OW29549   7.054   0.895   1.607
 9237SOL    HW129550   6.997   0.952   1.555
 9237SOL    HW229551   7.109   0.956   1.657
 9238SOL     OW29552  13.892   0.393   9.179
 9238SOL    HW129553  13.972   0.433   9.215
 9238SOL    HW229554  13.865   0.330   9.245
 9239SOL     OW29555   0.043   9.749  10.388
 9239SOL    HW129556   0.137   9.768  10.392
 9239SOL    HW229557   0.026   9.732  10.296
 9240SOL     OW29558   3.762  13.298  11.117
 9240SOL    HW129559   3.742  13.315  11.024
 9240SOL    HW229560   3.827  13.228  11.115
 9241SOL     OW29561   3.862   8.253   7.446
 9241SOL    HW129562   3.809   8.330   7.424
 9241SOL    HW229563   3.840   8.235   7.538
 9242SOL     OW29564  12.380   6.853  11.452
 9242SOL    HW129565  12.325   6.777  11.435
 9242SOL    HW229566  12.354   6.917  11.385
 9243SOL     OW29567  11.766   6.360  11.347
 9243SOL    HW129568  11.814   6.334  11.268
 9243SOL    HW229569  11.703   6.289  11.360
 9244SOL     OW29570   4.980   3.908   2.305
 9244SOL    HW129571   4.997   3.849   2.379
 9244SOL    HW229572   5.021   3.865   2.230
 9245SOL     OW29573  12.815   6.291   8.704
 9245SOL    HW129574  12.882   6.224   8.717
 9245SOL    HW229575  12.854   6.372   8.736
 9246SOL     OW29576   2.883  11.688   7.317
 9246SOL    HW129577   2.948  11.618   7.319
 9246SOL    HW229578   2.932  11.767   7.341
 9247SOL     OW29579  10.122   6.150   8.154
 9247SOL    HW129580  10.147   6.171   8.244
 9247SOL    HW229581  10.178   6.076   8.131
 9248SOL     OW29582  12.219   4.895   5.367
 9248SOL    HW129583  12.306   4.855   5.359
 9248SOL    HW229584  12.227   4.979   5.323
 9249SOL     OW29585   7.123   3.259   9.490
 9249SOL    HW129586   7.144   3.218   9.406
 9249SOL    HW229587   7.096   3.348   9.468
 9250SOL     OW29588  10.127  12.433   7.292
 9250SOL    HW129589  10.182  12.434   7.371
 9250SOL    HW229590  10.041  12.460   7.324
 9251SOL     OW29591  12.814   5.805   4.507
 9251SOL    HW129592  12.868   5.817   4.428
 9251SOL    HW229593  12.729   5.841   4.483
 9252SOL     OW29594   1.119  12.511   7.617
 9252SOL    HW129595   1.196  12.466   7.584
 9252SOL    HW229596   1.046  12.454   7.593
 9253SOL     OW29597   9.752  12.545   4.345
 9253SOL    HW129598   9.733  12.474   4.284
 9253SOL    HW229599   9.839  12.523   4.380
 9254SOL     OW29600  10.659  12.855  13.745
 9254SOL    HW129601  10.594  12.839  13.813
 9254SOL    HW229602  10.608  12.866  13.664
 9255SOL     OW29603   9.507   7.581   9.763
 9255SOL    HW129604   9.578   7.518   9.751
 9255SOL    HW229605   9.528   7.624   9.845
 9256SOL     OW29606   1.028   9.522   9.583
 9256SOL    HW129607   1.030   9.458   9.512
 9256SOL    HW229608   1.120   9.543   9.599
 9257SOL     OW29609  11.063  11.203   1.708
 9257SOL    HW129610  10.971  11.219   1.733
 9257SOL    HW229611  11.108  11.285   1.728
 9258SOL     OW29612   9.115   5.774  13.283
 9258SOL    HW129613   9.139   5.689  13.247
 9258SOL    HW229614   9.020   5.775  13.281
 9259SOL     OW29615   5.339   9.437   5.419
 9259SOL    HW129616   5.391   9.518   5.415
 9259SOL    HW229617   5.262   9.456   5.367
 9260SOL     OW29618  11.191   6.336  13.808
 9260SOL    HW129619  11.119   6.273  13.805
 9260SOL    HW229620  11.166   6.399  13.876
 9261SOL     OW29621  13.257  14.689   6.093
 9261SOL    HW129622  13.207  14.753   6.144
 9261SOL    HW229623  13.227  14.703   6.003
 9262SOL     OW29624  12.546   0.992   6.902
 9262SOL    HW129625  12.594   0.943   6.969
 9262SOL    HW229626  12.597   1.073   6.893
 9263SOL     OW29627   7.994   5.608   2.318
 9263SOL    HW129628   7.948   5.657   2.386
 9263SOL    HW229629   7.950   5.632   2.237
 9264SOL     OW29630  10.941  12.765  13.715
 9264SOL    HW129631  10.846  12.778  13.707
 9264SOL    HW229632  10.966  12.818  13.791
 9265SOL     OW29633   5.195   3.386   3.644
 9265SOL    HW129634   5.259   3.456   3.656
 9265SOL    HW229635   5.248   3.309   3.624
 9266SOL     OW29636   7.198  11.087   0.428
 9266SOL    HW129637   7.246  11.042   0.498
 9266SOL    HW229638   7.208  11.030   0.352
 9267SOL     OW29639  12.900  12.547   6.054
 9267SOL    HW129640  12.832  12.480   6.063
 9267SOL    HW229641  12.855  12.621   6.013
 9268SOL     OW29642   9.753   5.939   1.830
 9268SOL    HW129643   9.745   5.853   1.787
 9268SOL    HW229644   9.842   5.967   1.811
 9269SOL     OW29645   1.588   7.164   1.305
 9269SOL    HW129646   1.638   7.103   1.251
 9269SOL    HW229647   1.500   7.126   1.309
 9270SOL     OW29648  12.501   7.062   3.626
 9270SOL    HW129649  12.412   7.027   3.632
 9270SOL    HW229650  12.528   7.072   3.717
 9271SOL     OW29651  10.872  12.163  12.963
 9271SOL    HW129652  10.965  12.174  12.983
 9271SOL    HW229653  10.864  12.195  12.873
 9272SOL     OW29654   9.902   9.357  10.197
 9272SOL    HW129655   9.843   9.287  10.225
 9272SOL    HW229656   9.847   9.435  10.194
 9273SOL     OW29657   9.314  10.001   7.290
 9273SOL    HW129658   9.219   9.992   7.292
 9273SOL    HW229659   9.334  10.065   7.359
 9274SOL     OW29660  14.292   1.055   1.923
 9274SOL    HW129661  14.326   1.004   1.996
 9274SOL    HW229662  14.237   0.994   1.874
 9275SOL     OW29663  14.509   7.317   6.796
 9275SOL    HW129664  14.604   7.321   6.793
 9275SOL    HW229665  14.488   7.289   6.885
 9276SOL     OW29666  13.512   9.800   4.460
 9276SOL    HW129667  13.602   9.810   4.492
 9276SOL    HW229668  13.467   9.755   4.532
 9277SOL     OW29669   1.005   1.421  12.829
 9277SOL    HW129670   1.034   1.330  12.827
 9277SOL    HW229671   0.918   1.418  12.869
 9278SOL     OW29672   9.099   9.651   2.237
 9278SOL    HW129673   9.061   9.739   2.234
 9278SOL    HW229674   9.045   9.604   2.301
 9279SOL     OW29675   4.409   3.536   3.811
 9279SOL    HW129676   4.425   3.627   3.834
 9279SOL    HW229677   4.351   3.540   3.735
 9280SOL     OW29678   9.882   8.627   7.910
 9280SOL    HW129679   9.809   8.687   7.926
 9280SOL    HW229680   9.923   8.615   7.996
 9281SOL     OW29681   6.366  13.567   9.236
 9281SOL    HW129682   6.451  13.553   9.277
 9281SOL    HW229683   6.372  13.521   9.152
 9282SOL     OW29684   5.872   8.985  10.903
 9282SOL    HW129685   5.828   8.960  10.821
 9282SOL    HW229686   5.962   8.953  10.892
 9283SOL     OW29687   7.084   5.517   2.345
 9283SOL    HW129688   7.034   5.591   2.379
 9283SOL    HW229689   7.035   5.487   2.269
 9284SOL     OW29690   8.886   1.136   2.496
 9284SOL    HW129691   8.946   1.210   2.489
 9284SOL    HW229692   8.845   1.130   2.409
 9285SOL     OW29693   1.432  13.991  11.164
 9285SOL    HW129694   1.522  13.958  11.162
 9285SOL    HW229695   1.380  13.923  11.123
 9286SOL     OW29696   3.648  13.712   8.334
 9286SOL    HW129697   3.728  13.659   8.343
 9286SOL    HW229698   3.582  13.651   8.304
 9287SOL     OW29699   9.239   3.522   3.230
 9287SOL    HW129700   9.279   3.570   3.158
 9287SOL    HW229701   9.198   3.589   3.285
 9288SOL     OW29702  13.070  11.102   4.509
 9288SOL    HW129703  13.054  11.190   4.543
 9288SOL    HW229704  13.019  11.045   4.567
 9289SOL     OW29705   2.751   6.863  13.154
 9289SOL    HW129706   2.798   6.941  13.126
 9289SOL    HW229707   2.662   6.875  13.120
 9290SOL     OW29708   5.055   8.625  13.932
 9290SOL    HW129709   5.131   8.681  13.920
 9290SOL    HW229710   5.048   8.576  13.850
 9291SOL     OW29711   7.274   6.474   8.890
 9291SOL    HW129712   7.187   6.465   8.929
 9291SOL    HW229713   7.273   6.562   8.852
 9292SOL     OW29714  13.957  13.625   6.919
 9292SOL    HW129715  13.939  13.712   6.882
 9292SOL    HW229716  13.872  13.592   6.947
 9293SOL     OW29717   6.188   0.292   0.478
 9293SOL    HW129718   6.228   0.293   0.391
 9293SOL    HW229719   6.127   0.219   0.475
 9294SOL     OW29720   6.130  14.624   1.899
 9294SOL    HW129721   6.212  14.673   1.901
 9294SOL    HW229722   6.143  14.560   1.829
 9295SOL     OW29723  13.219   2.939   8.367
 9295SOL    HW129724  13.280   2.946   8.293
 9295SOL    HW229725  13.264   2.984   8.439
 9296SOL     OW29726   4.874   4.647  13.970
 9296SOL    HW129727   4.923   4.723  13.938
 9296SOL    HW229728   4.908   4.573  13.921
 9297SOL     OW29729  10.271   0.939  11.316
 9297SOL    HW129730  10.337   0.986  11.367
 9297SOL    HW229731  10.316   0.915  11.235
 9298SOL     OW29732   6.425   4.814  10.282
 9298SOL    HW129733   6.354   4.877  10.292
 9298SOL    HW229734   6.398   4.739  10.336
 9299SOL     OW29735  13.566   1.985  13.104
 9299SOL    HW129736  13.473   1.982  13.080
 9299SOL    HW229737  13.577   1.915  13.167
 9300SOL     OW29738  10.796  10.189  10.335
 9300SOL    HW129739  10.729  10.234  10.285
 9300SOL    HW229740  10.854  10.259  10.366
 9301SOL     OW29741   7.018  11.375  14.803
 9301SOL    HW129742   7.071  11.296  14.797
 9301SOL    HW229743   6.942  11.358  14.747
 9302SOL     OW29744   9.533   3.107   3.522
 9302SOL    HW129745   9.599   3.058   3.571
 9302SOL    HW229746   9.573   3.122   3.436
 9303SOL     OW29747   1.458   4.684  11.551
 9303SOL    HW129748   1.364   4.672  11.561
 9303SOL    HW229749   1.470   4.779  11.544
 9304SOL     OW29750  10.066   9.820   8.775
 9304SOL    HW129751  10.091   9.749   8.835
 9304SOL    HW229752   9.998   9.781   8.720
 9305SOL     OW29753   4.829  14.644  11.849
 9305SOL    HW129754   4.908  14.593  11.869
 9305SOL    HW229755   4.835  14.663  11.756
 9306SOL     OW29756   5.921  11.787   7.485
 9306SOL    HW129757   6.011  11.756   7.475
 9306SOL    HW229758   5.906  11.789   7.579
 9307SOL     OW29759  13.775  11.814   7.491
 9307SOL    HW129760  13.836  11.884   7.517
 9307SOL    HW229761  13.745  11.777   7.574
 9308SOL     OW29762  12.562   6.497   8.002
 9308SOL    HW129763  12.484   6.535   8.043
 9308SOL    HW229764  12.635   6.549   8.036
 9309SOL     OW29765  11.323  13.015   1.648
 9309SOL    HW129766  11.344  12.957   1.721
 9309SOL    HW229767  11.231  12.997   1.628
 9310SOL     OW29768  13.000   6.274   9.976
 9310SOL    HW129769  13.032   6.271   9.886
 9310SOL    HW229770  12.906   6.257   9.968
 9311SOL     OW29771   4.971   2.924   5.770
 9311SOL    HW129772   4.916   2.896   5.844
 9311SOL    HW229773   4.929   2.886   5.693
 9312SOL     OW29774   5.760  12.451   0.341
 9312SOL    HW129775   5.845  12.454   0.297
 9312SOL    HW229776   5.708  12.519   0.297
 9313SOL     OW29777   8.937   4.666   3.026
 9313SOL    HW129778   8.901   4.579   3.009
 9313SOL    HW229779   8.862   4.725   3.022
 9314SOL     OW29780   2.659  12.394   1.573
 9314SOL    HW129781   2.585  12.357   1.524
 9314SOL    HW229782   2.628  12.400   1.663
 9315SOL     OW29783   0.427   6.480   2.712
 9315SOL    HW129784   0.394   6.397   2.679
 9315SOL    HW229785   0.463   6.460   2.798
 9316SOL     OW29786  11.240   0.602  10.519
 9316SOL    HW129787  11.285   0.521  10.496
 9316SOL    HW229788  11.217   0.642  10.435
 9317SOL     OW29789  12.182   3.189   3.776
 9317SOL    HW129790  12.161   3.282   3.767
 9317SOL    HW229791  12.104   3.150   3.815
 9318SOL     OW29792   4.209   2.202   7.730
 9318SOL    HW129793   4.135   2.160   7.687
 9318SOL    HW229794   4.247   2.133   7.785
 9319SOL     OW29795   9.174   1.964   0.987
 9319SOL    HW129796   9.208   1.875   0.985
 9319SOL    HW229797   9.196   1.996   1.075
 9320SOL     OW29798   0.992   7.210   4.824
 9320SOL    HW129799   0.939   7.137   4.858
 9320SOL    HW229800   0.968   7.285   4.878
 9321SOL     OW29801   6.533   1.789   0.928
 9321SOL    HW129802   6.503   1.862   0.873
 9321SOL    HW229803   6.581   1.732   0.868
 9322SOL     OW29804  12.131  13.396   0.756
 9322SOL    HW129805  12.170  13.373   0.841
 9322SOL    HW229806  12.186  13.468   0.724
 9323SOL     OW29807   4.338   5.337  13.582
 9323SOL    HW129808   4.316   5.244  13.573
 9323SOL    HW229809   4.278   5.382  13.523
 9324SOL     OW29810   2.580   1.420   8.101
 9324SOL    HW129811   2.608   1.340   8.056
 9324SOL    HW229812   2.486   1.426   8.083
 9325SOL     OW29813   0.820  14.739   8.035
 9325SOL    HW129814   0.833  14.732   8.129
 9325SOL    HW229815   0.898  14.785   8.004
 9326SOL     OW29816  11.306   2.423   9.154
 9326SOL    HW129817  11.382   2.479   9.143
 9326SOL    HW229818  11.311   2.392   9.244
 9327SOL     OW29819   5.321   1.562   5.335
 9327SOL    HW129820   5.318   1.572   5.240
 9327SOL    HW229821   5.282   1.476   5.351
 9328SOL     OW29822   8.668   3.465  12.540
 9328SOL    HW129823   8.666   3.515  12.458
 9328SOL    HW229824   8.712   3.384  12.519
 9329SOL     OW29825   0.434   6.390   8.051
 9329SOL    HW129826   0.383   6.401   8.131
 9329SOL    HW229827   0.406   6.463   7.995
 9330SOL     OW29828   0.538   4.579   9.032
 9330SOL    HW129829   0.569   4.495   9.066
 9330SOL    HW229830   0.456   4.558   8.987
 9331SOL     OW29831   4.474   2.350   0.223
 9331SOL    HW129832   4.530   2.427   0.211
 9331SOL    HW229833   4.501   2.314   0.308
 9332SOL     OW29834   6.474   7.866   2.789
 9332SOL    HW129835   6.442   7.842   2.876
 9332SOL    HW229836   6.459   7.960   2.783
 9333SOL     OW29837  10.941   0.617   1.360
 9333SOL    HW129838  10.874   0.681   1.334
 9333SOL    HW229839  11.014   0.635   1.300
 9334SOL     OW29840   0.490  11.291   3.473
 9334SOL    HW129841   0.511  11.348   3.399
 9334SOL    HW229842   0.542  11.326   3.545
 9335SOL     OW29843   2.431  12.689  13.701
 9335SOL    HW129844   2.353  12.668  13.650
 9335SOL    HW229845   2.482  12.746  13.644
 9336SOL     OW29846  11.604  11.142   4.986
 9336SOL    HW129847  11.586  11.114   4.896
 9336SOL    HW229848  11.692  11.110   5.004
 9337SOL     OW29849  13.947   0.961   0.663
 9337SOL    HW129850  14.011   0.914   0.716
 9337SOL    HW229851  13.997   0.990   0.586
 9338SOL     OW29852   1.929  11.646   7.863
 9338SOL    HW129853   1.996  11.625   7.798
 9338SOL    HW229854   1.951  11.590   7.939
 9339SOL     OW29855   9.545   0.348   0.322
 9339SOL    HW129856   9.537   0.361   0.227
 9339SOL    HW229857   9.609   0.278   0.331
 9340SOL     OW29858   2.251  11.679   4.072
 9340SOL    HW129859   2.337  11.718   4.090
 9340SOL    HW229860   2.271  11.597   4.026
 9341SOL     OW29861   8.183  13.819   6.374
 9341SOL    HW129862   8.240  13.894   6.357
 9341SOL    HW229863   8.223  13.775   6.449
 9342SOL     OW29864  10.125   5.706  11.042
 9342SOL    HW129865  10.135   5.782  11.099
 9342SOL    HW229866  10.064   5.734  10.975
 9343SOL     OW29867  12.822   7.624   0.903
 9343SOL    HW129868  12.884   7.650   0.835
 9343SOL    HW229869  12.861   7.657   0.984
 9344SOL     OW29870   6.967  14.564   2.663
 9344SOL    HW129871   7.025  14.631   2.701
 9344SOL    HW229872   7.001  14.482   2.697
 9345SOL     OW29873   3.153   6.806   9.986
 9345SOL    HW129874   3.123   6.872   9.924
 9345SOL    HW229875   3.191   6.857  10.058
 9346SOL     OW29876   1.097   5.510   1.563
 9346SOL    HW129877   1.006   5.506   1.591
 9346SOL    HW229878   1.099   5.457   1.483
 9347SOL     OW29879   2.585  12.213  11.281
 9347SOL    HW129880   2.554  12.278  11.219
 9347SOL    HW229881   2.527  12.222  11.357
 9348SOL     OW29882   1.401   2.804   7.516
 9348SOL    HW129883   1.468   2.870   7.528
 9348SOL    HW229884   1.322   2.853   7.495
 9349SOL     OW29885  11.072   3.902   8.656
 9349SOL    HW129886  11.156   3.947   8.659
 9349SOL    HW229887  11.086   3.829   8.596
 9350SOL     OW29888   9.294   2.451  13.971
 9350SOL    HW129889   9.305   2.399  14.051
 9350SOL    HW229890   9.244   2.394  13.913
 9351SOL     OW29891  12.064  10.309  14.509
 9351SOL    HW129892  12.079  10.218  14.537
 9351SOL    HW229893  12.120  10.361  14.565
 9352SOL     OW29894   3.936   5.566   7.304
 9352SOL    HW129895   3.981   5.492   7.263
 9352SOL    HW229896   3.865   5.587   7.244
 9353SOL     OW29897  12.319   9.533  12.876
 9353SOL    HW129898  12.300   9.444  12.907
 9353SOL    HW229899  12.270   9.541  12.794
 9354SOL     OW29900  10.854   6.156   1.307
 9354SOL    HW129901  10.894   6.135   1.391
 9354SOL    HW229902  10.909   6.111   1.242
 9355SOL     OW29903  13.293   7.340  11.454
 9355SOL    HW129904  13.255   7.426  11.471
 9355SOL    HW229905  13.253   7.313  11.371
 9356SOL     OW29906  12.642  10.987   8.152
 9356SOL    HW129907  12.547  11.000   8.153
 9356SOL    HW229908  12.670  11.019   8.066
 9357SOL     OW29909   4.974  14.754   7.798
 9357SOL    HW129910   5.046  14.703   7.761
 9357SOL    HW229911   4.898  14.696   7.794
 9358SOL     OW29912   1.723  11.526  10.390
 9358SOL    HW129913   1.795  11.466  10.371
 9358SOL    HW229914   1.674  11.483  10.460
 9359SOL     OW29915   4.970  13.176   4.325
 9359SOL    HW129916   4.877  13.201   4.329
 9359SOL    HW229917   4.978  13.107   4.390
 9360SOL     OW29918  10.015  10.023  10.131
 9360SOL    HW129919  10.111  10.020  10.133
 9360SOL    HW229920   9.991   9.967  10.057
 9361SOL     OW29921   2.701  11.233   5.399
 9361SOL    HW129922   2.701  11.139   5.381
 9361SOL    HW229923   2.793  11.258   5.398
 9362SOL     OW29924  14.712   0.183   5.315
 9362SOL    HW129925  14.804   0.172   5.339
 9362SOL    HW229926  14.664   0.133   5.381
 9363SOL     OW29927   5.971   3.943  14.741
 9363SOL    HW129928   6.014   3.888  14.806
 9363SOL    HW229929   5.885   3.902  14.729
 9364SOL     OW29930   0.619   4.416  14.599
 9364SOL    HW129931   0.548   4.358  14.571
 9364SOL    HW229932   0.614   4.490  14.539
 9365SOL     OW29933   7.716   4.147   7.241
 9365SOL    HW129934   7.641   4.105   7.197
 9365SOL    HW229935   7.680   4.179   7.323
 9366SOL     OW29936  14.663  10.838   6.186
 9366SOL    HW129937  14.685  10.918   6.138
 9366SOL    HW229938  14.743  10.817   6.234
 9367SOL     OW29939   3.705   2.075   7.580
 9367SOL    HW129940   3.631   2.069   7.519
 9367SOL    HW229941   3.668   2.050   7.664
 9368SOL     OW29942   5.425   2.212   2.890
 9368SOL    HW129943   5.398   2.303   2.903
 9368SOL    HW229944   5.511   2.218   2.847
 9369SOL     OW29945  13.716  11.857  11.787
 9369SOL    HW129946  13.717  11.768  11.752
 9369SOL    HW229947  13.666  11.850  11.868
 9370SOL     OW29948   4.564  11.642   6.350
 9370SOL    HW129949   4.479  11.635   6.393
 9370SOL    HW229950   4.608  11.559   6.368
 9371SOL     OW29951   3.126   7.106   6.078
 9371SOL    HW129952   3.167   7.051   6.010
 9371SOL    HW229953   3.089   7.043   6.140
 9372SOL     OW29954   6.856   1.845   4.688
 9372SOL    HW129955   6.849   1.750   4.682
 9372SOL    HW229956   6.827   1.866   4.777
 9373SOL     OW29957  10.204  12.678   9.926
 9373SOL    HW129958  10.163  12.615   9.985
 9373SOL    HW229959  10.133  12.739   9.903
 9374SOL     OW29960  12.859   1.416   4.101
 9374SOL    HW129961  12.814   1.357   4.040
 9374SOL    HW229962  12.933   1.450   4.051
 9375SOL     OW29963   9.658   8.081   1.492
 9375SOL    HW129964   9.595   8.018   1.459
 9375SOL    HW229965   9.634   8.094   1.584
 9376SOL     OW29966   5.522   3.811   0.917
 9376SOL    HW129967   5.489   3.722   0.931
 9376SOL    HW229968   5.614   3.799   0.892
 9377SOL     OW29969   9.282   7.991  11.753
 9377SOL    HW129970   9.362   7.968  11.801
 9377SOL    HW229971   9.303   8.074  11.710
 9378SOL     OW29972   9.079  14.229   0.350
 9378SOL    HW129973   9.051  14.247   0.439
 9378SOL    HW229974   9.053  14.306   0.300
 9379SOL     OW29975   9.894  12.877   5.153
 9379SOL    HW129976   9.955  12.829   5.209
 9379SOL    HW229977   9.834  12.810   5.120
 9380SOL     OW29978  14.136   4.492   9.428
 9380SOL    HW129979  14.090   4.576   9.434
 9380SOL    HW229980  14.208   4.500   9.490
 9381SOL     OW29981   1.985   9.777  13.786
 9381SOL    HW129982   1.991   9.850  13.848
 9381SOL    HW229983   1.999   9.699  13.840
 9382SOL     OW29984   1.675   4.114   6.286
 9382SOL    HW129985   1.623   4.057   6.229
 9382SOL    HW229986   1.734   4.160   6.227
 9383SOL     OW29987  11.288   4.186   2.726
 9383SOL    HW129988  11.260   4.121   2.662
 9383SOL    HW229989  11.372   4.153   2.760
 9384SOL     OW29990   3.279  13.438   2.554
 9384SOL    HW129991   3.325  13.522   2.546
 9384SOL    HW229992   3.194  13.461   2.592
 9385SOL     OW29993   9.961   5.188   2.702
 9385SOL    HW129994   9.945   5.097   2.727
 9385SOL    HW229995  10.042   5.185   2.652
 9386SOL     OW29996   2.001   2.663  10.812
 9386SOL    HW129997   1.963   2.604  10.747
 9386SOL    HW229998   2.092   2.636  10.818
 9387SOL     OW29999   5.126   5.776  10.360
 9387SOL    HW130000   5.208   5.798  10.317
 9387SOL    HW230001   5.134   5.682  10.380
 9388SOL     OW30002   8.455   1.643   1.572
 9388SOL    HW130003   8.368   1.680   1.587
 9388SOL    HW230004   8.515   1.708   1.610
 9389SOL     OW30005   7.233  10.185   5.389
 9389SOL    HW130006   7.268  10.247   5.325
 9389SOL    HW230007   7.277  10.102   5.368
 9390SOL     OW30008  14.845  14.003   9.492
 9390SOL    HW130009   0.018  13.951   9.430
 9390SOL    HW230010   0.030  14.042   9.551
 9391SOL     OW30011   7.029   3.914   3.457
 9391SOL    HW130012   6.940   3.896   3.425
 9391SOL    HW230013   7.032   4.009   3.465
 9392SOL     OW30014   3.397   5.986   8.091
 9392SOL    HW130015   3.427   5.915   8.034
 9392SOL    HW230016   3.301   5.980   8.089
 9393SOL     OW30017  10.244   5.483   2.508
 9393SOL    HW130018  10.249   5.388   2.500
 9393SOL    HW230019  10.150   5.502   2.503
 9394SOL     OW30020   3.209  13.756   6.733
 9394SOL    HW130021   3.159  13.832   6.706
 9394SOL    HW230022   3.176  13.734   6.820
 9395SOL     OW30023   1.103   4.862  13.611
 9395SOL    HW130024   1.162   4.902  13.548
 9395SOL    HW230025   1.020   4.851  13.564
 9396SOL     OW30026   6.299   3.633   4.777
 9396SOL    HW130027   6.351   3.702   4.818
 9396SOL    HW230028   6.363   3.565   4.754
 9397SOL     OW30029  11.398   9.483  11.092
 9397SOL    HW130030  11.446   9.514  11.015
 9397SOL    HW230031  11.311   9.459  11.059
 9398SOL     OW30032   0.480   2.828  13.078
 9398SOL    HW130033   0.424   2.769  13.027
 9398SOL    HW230034   0.556   2.842  13.023
 9399SOL     OW30035   4.222   9.295   8.968
 9399SOL    HW130036   4.145   9.241   8.983
 9399SOL    HW230037   4.250   9.275   8.879
 9400SOL     OW30038   4.406  11.737   1.934
 9400SOL    HW130039   4.469  11.667   1.952
 9400SOL    HW230040   4.322  11.692   1.922
 9401SOL     OW30041   1.240  12.600   6.641
 9401SOL    HW130042   1.224  12.510   6.666
 9401SOL    HW230043   1.278  12.594   6.553
 9402SOL     OW30044   6.819   9.586   0.953
 9402SOL    HW130045   6.751   9.652   0.940
 9402SOL    HW230046   6.893   9.634   0.989
 9403SOL     OW30047   6.165   8.994   1.703
 9403SOL    HW130048   6.215   8.935   1.760
 9403SOL    HW230049   6.156   8.947   1.621
 9404SOL     OW30050   3.757  11.844   4.976
 9404SOL    HW130051   3.786  11.914   4.919
 9404SOL    HW230052   3.669  11.869   5.003
 9405SOL     OW30053   8.591   0.660   1.135
 9405SOL    HW130054   8.657   0.729   1.147
 9405SOL    HW230055   8.638   0.589   1.090
 9406SOL     OW30056   3.885   5.192   9.667
 9406SOL    HW130057   3.891   5.098   9.651
 9406SOL    HW230058   3.794   5.214   9.649
 9407SOL     OW30059   8.709  10.773  14.435
 9407SOL    HW130060   8.779  10.801  14.376
 9407SOL    HW230061   8.685  10.852  14.483
 9408SOL     OW30062   5.879   8.017  14.561
 9408SOL    HW130063   5.949   7.955  14.541
 9408SOL    HW230064   5.830   8.025  14.479
 9409SOL     OW30065   5.495   7.848   0.668
 9409SOL    HW130066   5.475   7.762   0.630
 9409SOL    HW230067   5.554   7.828   0.741
 9410SOL     OW30068  14.391   8.167  14.043
 9410SOL    HW130069  14.299   8.158  14.016
 9410SOL    HW230070  14.390   8.153  14.138
 9411SOL     OW30071  10.465   1.379  13.254
 9411SOL    HW130072  10.393   1.331  13.294
 9411SOL    HW230073  10.523   1.311  13.220
 9412SOL     OW30074   9.606  10.678  14.419
 9412SOL    HW130075   9.565  10.609  14.367
 9412SOL    HW230076   9.700  10.659  14.415
 9413SOL     OW30077   3.550   2.222   1.342
 9413SOL    HW130078   3.549   2.318   1.349
 9413SOL    HW230079   3.594   2.193   1.422
 9414SOL     OW30080  14.346  12.060   4.831
 9414SOL    HW130081  14.321  12.037   4.741
 9414SOL    HW230082  14.373  11.977   4.870
 9415SOL     OW30083   1.864  14.668   1.700
 9415SOL    HW130084   1.944  14.652   1.651
 9415SOL    HW230085   1.836  14.756   1.674
 9416SOL     OW30086  10.179   6.550  11.986
 9416SOL    HW130087  10.243   6.594  11.931
 9416SOL    HW230088  10.180   6.599  12.068
 9417SOL     OW30089   5.249   0.316   6.951
 9417SOL    HW130090   5.319   0.261   6.917
 9417SOL    HW230091   5.182   0.315   6.883
 9418SOL     OW30092  10.253   5.418  12.715
 9418SOL    HW130093  10.234   5.510  12.700
 9418SOL    HW230094  10.202   5.372  12.649
 9419SOL     OW30095   7.043   5.682   5.897
 9419SOL    HW130096   6.963   5.636   5.922
 9419SOL    HW230097   7.107   5.658   5.964
 9420SOL     OW30098  14.024  12.570   9.447
 9420SOL    HW130099  14.024  12.522   9.530
 9420SOL    HW230100  13.931  12.580   9.425
 9421SOL     OW30101   4.342  11.069   4.744
 9421SOL    HW130102   4.383  11.155   4.749
 9421SOL    HW230103   4.259  11.084   4.698
 9422SOL     OW30104  12.673   6.210   8.280
 9422SOL    HW130105  12.679   6.273   8.351
 9422SOL    HW230106  12.654   6.126   8.323
 9423SOL     OW30107  10.109   2.947   9.966
 9423SOL    HW130108  10.139   2.937  10.056
 9423SOL    HW230109  10.015   2.928   9.969
 9424SOL     OW30110  14.727   1.829   2.751
 9424SOL    HW130111  14.802   1.838   2.808
 9424SOL    HW230112  14.750   1.879   2.672
 9425SOL     OW30113   0.876  12.319  12.893
 9425SOL    HW130114   0.815  12.390  12.873
 9425SOL    HW230115   0.854  12.249  12.831
 9426SOL     OW30116  13.692   6.567  10.269
 9426SOL    HW130117  13.606   6.610  10.275
 9426SOL    HW230118  13.673   6.486  10.222
 9427SOL     OW30119  12.633   0.300  11.894
 9427SOL    HW130120  12.608   0.392  11.886
 9427SOL    HW230121  12.655   0.289  11.986
 9428SOL     OW30122  14.611  13.791   8.613
 9428SOL    HW130123  14.701  13.774   8.585
 9428SOL    HW230124  14.570  13.835   8.539
 9429SOL     OW30125   6.999   1.990  13.967
 9429SOL    HW130126   6.966   1.984  14.056
 9429SOL    HW230127   7.049   1.909  13.954
 9430SOL     OW30128   8.043   0.143  12.307
 9430SOL    HW130129   7.957   0.184  12.307
 9430SOL    HW230130   8.088   0.181  12.231
 9431SOL     OW30131   7.330   1.758  12.704
 9431SOL    HW130132   7.247   1.791  12.672
 9431SOL    HW230133   7.330   1.779  12.798
 9432SOL     OW30134  12.988  12.843   8.860
 9432SOL    HW130135  12.976  12.758   8.901
 9432SOL    HW230136  13.011  12.822   8.769
 9433SOL     OW30137   5.746   4.573   6.590
 9433SOL    HW130138   5.700   4.497   6.625
 9433SOL    HW230139   5.834   4.568   6.629
 9434SOL     OW30140   1.000   9.464   4.022
 9434SOL    HW130141   1.062   9.464   3.948
 9434SOL    HW230142   1.055   9.445   4.098
 9435SOL     OW30143   6.024  11.639  12.808
 9435SOL    HW130144   6.024  11.690  12.727
 9435SOL    HW230145   6.023  11.705  12.878
 9436SOL     OW30146   1.229  12.194   5.973
 9436SOL    HW130147   1.312  12.152   5.949
 9436SOL    HW230148   1.162  12.128   5.953
 9437SOL     OW30149  11.792   1.366  11.485
 9437SOL    HW130150  11.880   1.328  11.477
 9437SOL    HW230151  11.757   1.328  11.566
 9438SOL     OW30152  10.861  13.556  11.641
 9438SOL    HW130153  10.782  13.600  11.673
 9438SOL    HW230154  10.837  13.524  11.554
 9439SOL     OW30155   5.570   9.741  11.011
 9439SOL    HW130156   5.663   9.761  11.003
 9439SOL    HW230157   5.566   9.645  11.009
 9440SOL     OW30158   3.015  14.210   8.900
 9440SOL    HW130159   3.001  14.116   8.898
 9440SOL    HW230160   3.110  14.220   8.889
 9441SOL     OW30161  12.202  10.431   2.432
 9441SOL    HW130162  12.253  10.495   2.381
 9441SOL    HW230163  12.123  10.416   2.380
 9442SOL     OW30164   1.672   7.103   4.372
 9442SOL    HW130165   1.585   7.125   4.405
 9442SOL    HW230166   1.730   7.120   4.446
 9443SOL     OW30167   3.506   0.870   0.736
 9443SOL    HW130168   3.469   0.923   0.665
 9443SOL    HW230169   3.519   0.784   0.696
 9444SOL     OW30170   4.154  10.323  14.556
 9444SOL    HW130171   4.246  10.332  14.581
 9444SOL    HW230172   4.151  10.356  14.466
 9445SOL     OW30173   2.339   9.280  13.075
 9445SOL    HW130174   2.377   9.192  13.086
 9445SOL    HW230175   2.356   9.324  13.158
 9446SOL     OW30176   5.539  13.452  10.049
 9446SOL    HW130177   5.503  13.518  10.109
 9446SOL    HW230178   5.517  13.484   9.962
 9447SOL     OW30179   4.511   9.663   8.099
 9447SOL    HW130180   4.462   9.592   8.058
 9447SOL    HW230181   4.491   9.740   8.046
 9448SOL     OW30182   6.688  14.007  11.451
 9448SOL    HW130183   6.678  13.932  11.393
 9448SOL    HW230184   6.693  13.969  11.539
 9449SOL     OW30185  11.621   5.734   6.997
 9449SOL    HW130186  11.631   5.686   6.915
 9449SOL    HW230187  11.620   5.826   6.971
 9450SOL     OW30188  12.268  13.618   0.679
 9450SOL    HW130189  12.348  13.604   0.729
 9450SOL    HW230190  12.287  13.581   0.593
 9451SOL     OW30191   2.401  14.049  13.032
 9451SOL    HW130192   2.328  14.081  12.978
 9451SOL    HW230193   2.475  14.105  13.007
 9452SOL     OW30194  13.902   9.607  12.847
 9452SOL    HW130195  13.849   9.572  12.774
 9452SOL    HW230196  13.875   9.555  12.923
 9453SOL     OW30197   9.780   5.977   0.682
 9453SOL    HW130198   9.767   6.055   0.737
 9453SOL    HW230199   9.782   6.011   0.592
 9454SOL     OW30200   4.619   5.854   0.757
 9454SOL    HW130201   4.685   5.800   0.801
 9454SOL    HW230202   4.546   5.857   0.819
 9455SOL     OW30203   5.952  12.913   4.615
 9455SOL    HW130204   5.993  12.913   4.528
 9455SOL    HW230205   5.889  12.841   4.613
 9456SOL     OW30206   9.368   7.455  13.108
 9456SOL    HW130207   9.291   7.428  13.059
 9456SOL    HW230208   9.418   7.374  13.121
 9457SOL     OW30209   6.792  14.843  11.268
 9457SOL    HW130210   6.809  14.769  11.325
 9457SOL    HW230211   6.838   0.037  11.310
 9458SOL     OW30212   4.067  11.291  10.049
 9458SOL    HW130213   4.103  11.203  10.059
 9458SOL    HW230214   4.043  11.297   9.957
 9459SOL     OW30215  13.965  11.362   9.218
 9459SOL    HW130216  13.941  11.282   9.265
 9459SOL    HW230217  14.021  11.410   9.279
 9460SOL     OW30218   2.347   3.356   5.353
 9460SOL    HW130219   2.348   3.328   5.445
 9460SOL    HW230220   2.434   3.392   5.338
 9461SOL     OW30221   5.564   3.464   0.065
 9461SOL    HW130222   5.510   3.463  14.866
 9461SOL    HW230223   5.609   3.548   0.062
 9462SOL     OW30224   6.687   0.496  10.249
 9462SOL    HW130225   6.683   0.455  10.163
 9462SOL    HW230226   6.780   0.515  10.261
 9463SOL     OW30227  12.148   9.518   2.321
 9463SOL    HW130228  12.243   9.504   2.326
 9463SOL    HW230229  12.112   9.463   2.391
 9464SOL     OW30230   6.702  11.956  13.275
 9464SOL    HW130231   6.783  11.905  13.276
 9464SOL    HW230232   6.655  11.927  13.353
 9465SOL     OW30233  13.398   4.075  10.992
 9465SOL    HW130234  13.310   4.112  10.986
 9465SOL    HW230235  13.420   4.081  11.085
 9466SOL     OW30236   6.014   3.153  12.222
 9466SOL    HW130237   6.063   3.184  12.145
 9466SOL    HW230238   6.004   3.231  12.276
 9467SOL     OW30239   6.446   5.718   5.425
 9467SOL    HW130240   6.479   5.774   5.355
 9467SOL    HW230241   6.510   5.647   5.431
 9468SOL     OW30242   7.043  14.240   4.583
 9468SOL    HW130243   7.080  14.154   4.563
 9468SOL    HW230244   6.950  14.232   4.564
 9469SOL     OW30245   7.072  12.512   7.435
 9469SOL    HW130246   7.158  12.485   7.466
 9469SOL    HW230247   7.084  12.528   7.341
 9470SOL     OW30248  13.251   3.359   1.152
 9470SOL    HW130249  13.244   3.443   1.196
 9470SOL    HW230250  13.246   3.380   1.059
 9471SOL     OW30251   1.606  14.749  14.311
 9471SOL    HW130252   1.616  14.654  14.309
 9471SOL    HW230253   1.643  14.775  14.395
 9472SOL     OW30254   3.201  13.094   4.794
 9472SOL    HW130255   3.185  13.138   4.877
 9472SOL    HW230256   3.293  13.071   4.795
 9473SOL     OW30257  12.668  10.289  12.015
 9473SOL    HW130258  12.714  10.292  12.099
 9473SOL    HW230259  12.733  10.316  11.951
 9474SOL     OW30260   6.583   5.961   3.127
 9474SOL    HW130261   6.647   5.957   3.056
 9474SOL    HW230262   6.566   6.055   3.138
 9475SOL     OW30263   3.775   7.932   5.978
 9475SOL    HW130264   3.823   7.866   6.028
 9475SOL    HW230265   3.683   7.919   6.003
 9476SOL     OW30266   2.759   1.206  13.536
 9476SOL    HW130267   2.773   1.134  13.598
 9476SOL    HW230268   2.708   1.167  13.464
 9477SOL     OW30269  13.307   4.911   0.978
 9477SOL    HW130270  13.220   4.940   0.950
 9477SOL    HW230271  13.291   4.850   1.049
 9478SOL     OW30272   3.235  12.359  13.602
 9478SOL    HW130273   3.153  12.346  13.649
 9478SOL    HW230274   3.296  12.390  13.668
 9479SOL     OW30275   0.686   9.661   1.914
 9479SOL    HW130276   0.593   9.683   1.913
 9479SOL    HW230277   0.703   9.624   1.828
 9480SOL     OW30278   6.016   9.764   5.490
 9480SOL    HW130279   5.972   9.734   5.569
 9480SOL    HW230280   6.006   9.859   5.490
 9481SOL     OW30281   6.369   7.610   2.714
 9481SOL    HW130282   6.387   7.702   2.734
 9481SOL    HW230283   6.454   7.574   2.690
 9482SOL     OW30284   5.212   9.764   7.643
 9482SOL    HW130285   5.173   9.731   7.725
 9482SOL    HW230286   5.298   9.795   7.669
 9483SOL     OW30287   5.828   5.242  14.133
 9483SOL    HW130288   5.873   5.236  14.217
 9483SOL    HW230289   5.782   5.158  14.125
 9484SOL     OW30290  12.942   9.876  11.499
 9484SOL    HW130291  12.871   9.813  11.507
 9484SOL    HW230292  12.972   9.891  11.588
 9485SOL     OW30293  14.061   3.946  13.623
 9485SOL    HW130294  13.969   3.965  13.641
 9485SOL    HW230295  14.079   3.865  13.671
 9486SOL     OW30296   6.121  10.456   2.397
 9486SOL    HW130297   6.061  10.413   2.336
 9486SOL    HW230298   6.147  10.387   2.458
 9487SOL     OW30299   6.725   3.778  11.308
 9487SOL    HW130300   6.652   3.838  11.298
 9487SOL    HW230301   6.794   3.813  11.252
 9488SOL     OW30302  10.953   8.228  10.381
 9488SOL    HW130303  10.975   8.251  10.291
 9488SOL    HW230304  10.868   8.186  10.375
 9489SOL     OW30305   4.687  13.069   9.041
 9489SOL    HW130306   4.678  13.112   8.957
 9489SOL    HW230307   4.781  13.051   9.049
 9490SOL     OW30308   1.550  12.138   0.587
 9490SOL    HW130309   1.576  12.063   0.534
 9490SOL    HW230310   1.508  12.197   0.524
 9491SOL     OW30311   3.962   4.149  12.025
 9491SOL    HW130312   3.905   4.142  12.102
 9491SOL    HW230313   4.002   4.236  12.033
 9492SOL     OW30314  14.838  14.093   8.614
 9492SOL    HW130315  14.806  14.157   8.550
 9492SOL    HW230316  14.816  14.008   8.576
 9493SOL     OW30317   5.395  13.019   1.158
 9493SOL    HW130318   5.431  13.035   1.246
 9493SOL    HW230319   5.434  13.087   1.104
 9494SOL     OW30320   0.239  11.807   6.304
 9494SOL    HW130321   0.241  11.713   6.287
 9494SOL    HW230322   0.317  11.822   6.358
 9495SOL     OW30323   3.237  12.683   8.816
 9495SOL    HW130324   3.207  12.737   8.744
 9495SOL    HW230325   3.300  12.623   8.776
 9496SOL     OW30326   2.930   4.386   9.852
 9496SOL    HW130327   2.867   4.337   9.799
 9496SOL    HW230328   3.010   4.386   9.800
 9497SOL     OW30329   9.440  10.647   3.102
 9497SOL    HW130330   9.514  10.647   3.163
 9497SOL    HW230331   9.390  10.569   3.126
 9498SOL     OW30332   5.965   3.913   9.261
 9498SOL    HW130333   5.931   3.939   9.347
 9498SOL    HW230334   6.057   3.891   9.278
 9499SOL     OW30335   0.040   5.026   8.056
 9499SOL    HW130336  14.874   5.063   7.981
 9499SOL    HW230337  14.859   4.960   8.091
 9500SOL     OW30338   9.278   3.728  12.056
 9500SOL    HW130339   9.255   3.641  12.086
 9500SOL    HW230340   9.259   3.727  11.962
 9501SOL     OW30341   4.711   3.478   8.816
 9501SOL    HW130342   4.618   3.499   8.817
 9501SOL    HW230343   4.735   3.465   8.908
 9502SOL     OW30344  12.968   6.900   8.109
 9502SOL    HW130345  13.009   6.855   8.183
 9502SOL    HW230346  12.962   6.992   8.137
 9503SOL     OW30347  13.843  10.545   9.965
 9503SOL    HW130348  13.860  10.456   9.934
 9503SOL    HW230349  13.929  10.583   9.980
 9504SOL     OW30350   5.640  10.813   4.983
 9504SOL    HW130351   5.699  10.739   4.996
 9504SOL    HW230352   5.697  10.886   4.959
 9505SOL     OW30353   1.777   9.448   1.472
 9505SOL    HW130354   1.795   9.532   1.514
 9505SOL    HW230355   1.863   9.410   1.455
 9506SOL     OW30356   4.240   0.569  11.414
 9506SOL    HW130357   4.262   0.563  11.507
 9506SOL    HW230358   4.276   0.653  11.386
 9507SOL     OW30359   2.636   4.512   0.611
 9507SOL    HW130360   2.636   4.546   0.701
 9507SOL    HW230361   2.637   4.417   0.621
 9508SOL     OW30362  12.900   8.130  13.119
 9508SOL    HW130363  12.863   8.144  13.206
 9508SOL    HW230364  12.824   8.114  13.063
 9509SOL     OW30365   4.963  10.663   2.768
 9509SOL    HW130366   5.049  10.695   2.740
 9509SOL    HW230367   4.903  10.693   2.699
 9510SOL     OW30368  11.660  13.212   1.889
 9510SOL    HW130369  11.716  13.161   1.948
 9510SOL    HW230370  11.717  13.235   1.816
 9511SOL     OW30371   2.722   8.239   6.202
 9511SOL    HW130372   2.764   8.309   6.252
 9511SOL    HW230373   2.657   8.284   6.147
 9512SOL     OW30374  12.310  10.314   3.982
 9512SOL    HW130375  12.391  10.364   3.985
 9512SOL    HW230376  12.255  10.361   3.919
 9513SOL     OW30377  10.421  10.032   5.318
 9513SOL    HW130378  10.414   9.974   5.242
 9513SOL    HW230379  10.456  10.114   5.282
 9514SOL     OW30380   0.301  11.180  14.002
 9514SOL    HW130381   0.384  11.146  13.969
 9514SOL    HW230382   0.321  11.270  14.028
 9515SOL     OW30383   4.053  11.196  14.078
 9515SOL    HW130384   4.098  11.278  14.055
 9515SOL    HW230385   4.022  11.210  14.167
 9516SOL     OW30386  11.611   0.586  11.976
 9516SOL    HW130387  11.548   0.656  11.958
 9516SOL    HW230388  11.694   0.632  11.989
 9517SOL     OW30389   3.818   0.386   8.379
 9517SOL    HW130390   3.731   0.427   8.372
 9517SOL    HW230391   3.799   0.292   8.389
 9518SOL     OW30392   4.308   4.900   8.691
 9518SOL    HW130393   4.335   4.914   8.600
 9518SOL    HW230394   4.358   4.965   8.741
 9519SOL     OW30395   9.148   0.034  12.759
 9519SOL    HW130396   9.236   0.003  12.779
 9519SOL    HW230397   9.111   0.058  12.844
 9520SOL     OW30398   1.979   2.900  13.397
 9520SOL    HW130399   1.901   2.930  13.351
 9520SOL    HW230400   2.052   2.941  13.350
 9521SOL     OW30401   4.845   0.704   0.014
 9521SOL    HW130402   4.848   0.640   0.085
 9521SOL    HW230403   4.785   0.772   0.045
 9522SOL     OW30404  13.831   4.737   9.340
 9522SOL    HW130405  13.816   4.658   9.289
 9522SOL    HW230406  13.818   4.808   9.277
 9523SOL     OW30407  14.181   2.715   8.877
 9523SOL    HW130408  14.089   2.740   8.887
 9523SOL    HW230409  14.179   2.647   8.809
 9524SOL     OW30410   2.340   1.391   1.534
 9524SOL    HW130411   2.417   1.371   1.482
 9524SOL    HW230412   2.298   1.306   1.549
 9525SOL     OW30413   7.763  14.698   7.422
 9525SOL    HW130414   7.706  14.622   7.436
 9525SOL    HW230415   7.850  14.666   7.447
 9526SOL     OW30416  10.647   6.843   5.253
 9526SOL    HW130417  10.686   6.781   5.315
 9526SOL    HW230418  10.693   6.827   5.171
 9527SOL     OW30419   8.824   8.839   1.235
 9527SOL    HW130420   8.805   8.746   1.227
 9527SOL    HW230421   8.749   8.875   1.283
 9528SOL     OW30422  12.347   1.948  10.440
 9528SOL    HW130423  12.295   1.919  10.364
 9528SOL    HW230424  12.432   1.905  10.428
 9529SOL     OW30425  14.836  13.502   6.055
 9529SOL    HW130426  14.785  13.442   6.109
 9529SOL    HW230427  14.869  13.567   6.118
 9530SOL     OW30428   2.917   6.722  12.629
 9530SOL    HW130429   2.836   6.722  12.681
 9530SOL    HW230430   2.982   6.682  12.686
 9531SOL     OW30431   5.321  14.224   6.731
 9531SOL    HW130432   5.280  14.163   6.670
 9531SOL    HW230433   5.411  14.233   6.699
 9532SOL     OW30434   7.672   1.608   2.893
 9532SOL    HW130435   7.653   1.515   2.876
 9532SOL    HW230436   7.601   1.637   2.950
 9533SOL     OW30437   3.612   2.872  13.108
 9533SOL    HW130438   3.610   2.893  13.015
 9533SOL    HW230439   3.621   2.956  13.152
 9534SOL     OW30440  14.323   2.805   2.146
 9534SOL    HW130441  14.359   2.887   2.180
 9534SOL    HW230442  14.399   2.753   2.123
 9535SOL     OW30443   4.880   2.660   5.062
 9535SOL    HW130444   4.826   2.738   5.052
 9535SOL    HW230445   4.948   2.669   4.996
 9536SOL     OW30446  13.437   7.318   2.158
 9536SOL    HW130447  13.345   7.328   2.182
 9536SOL    HW230448  13.470   7.251   2.217
 9537SOL     OW30449   7.127   3.377   2.649
 9537SOL    HW130450   7.147   3.451   2.704
 9537SOL    HW230451   7.137   3.300   2.706
 9538SOL     OW30452   8.240   6.803   8.355
 9538SOL    HW130453   8.166   6.751   8.324
 9538SOL    HW230454   8.207   6.893   8.355
 9539SOL     OW30455   1.380  11.449   0.052
 9539SOL    HW130456   1.321  11.428  14.859
 9539SOL    HW230457   1.465  11.414   0.026
 9540SOL     OW30458  14.047  10.212   3.357
 9540SOL    HW130459  14.110  10.166   3.302
 9540SOL    HW230460  13.983  10.247   3.295
 9541SOL     OW30461   6.789  10.495   8.281
 9541SOL    HW130462   6.718  10.447   8.239
 9541SOL    HW230463   6.747  10.547   8.349
 9542SOL     OW30464  12.275   0.332  13.603
 9542SOL    HW130465  12.274   0.427  13.611
 9542SOL    HW230466  12.212   0.302  13.669
 9543SOL     OW30467   3.428   6.359  14.786
 9543SOL    HW130468   3.379   6.394  14.860
 9543SOL    HW230469   3.364   6.308  14.736
 9544SOL     OW30470   4.009  13.190  10.649
 9544SOL    HW130471   4.102  13.191  10.625
 9544SOL    HW230472   3.989  13.282  10.669
 9545SOL     OW30473   7.909  10.542  14.322
 9545SOL    HW130474   7.848  10.589  14.378
 9545SOL    HW230475   7.960  10.488  14.383
 9546SOL     OW30476  10.313   6.602   7.634
 9546SOL    HW130477  10.228   6.561   7.654
 9546SOL    HW230478  10.333   6.656   7.710
 9547SOL     OW30479   0.717  11.059  12.108
 9547SOL    HW130480   0.810  11.076  12.123
 9547SOL    HW230481   0.677  11.146  12.109
 9548SOL     OW30482  14.830   5.938   6.628
 9548SOL    HW130483  14.814   6.030   6.646
 9548SOL    HW230484   0.041   5.923   6.656
 9549SOL     OW30485   9.040  14.237   2.504
 9549SOL    HW130486   9.009  14.231   2.414
 9549SOL    HW230487   9.070  14.328   2.513
 9550SOL     OW30488   7.411   1.772   2.805
 9550SOL    HW130489   7.412   1.676   2.806
 9550SOL    HW230490   7.502   1.796   2.785
 9551SOL     OW30491   5.971   6.976   2.085
 9551SOL    HW130492   5.922   7.031   2.146
 9551SOL    HW230493   6.002   6.903   2.138
 9552SOL     OW30494  14.117  11.819   8.591
 9552SOL    HW130495  14.169  11.785   8.664
 9552SOL    HW230496  14.061  11.746   8.566
 9553SOL     OW30497  12.701   0.116  10.687
 9553SOL    HW130498  12.660   0.053  10.628
 9553SOL    HW230499  12.653   0.198  10.673
 9554SOL     OW30500   7.465   0.891   5.018
 9554SOL    HW130501   7.473   0.976   4.974
 9554SOL    HW230502   7.457   0.914   5.111
 9555SOL     OW30503   9.460  10.799   4.607
 9555SOL    HW130504   9.532  10.856   4.579
 9555SOL    HW230505   9.389  10.860   4.627
 9556SOL     OW30506   3.708  14.513  10.751
 9556SOL    HW130507   3.645  14.449  10.782
 9556SOL    HW230508   3.767  14.527  10.825
 9557SOL     OW30509   3.534  13.220  11.373
 9557SOL    HW130510   3.619  13.261  11.392
 9557SOL    HW230511   3.476  13.293  11.353
 9558SOL     OW30512   9.774  11.640  11.149
 9558SOL    HW130513   9.735  11.685  11.224
 9558SOL    HW230514   9.699  11.618  11.093
 9559SOL     OW30515   9.507   9.168   5.256
 9559SOL    HW130516   9.554   9.164   5.173
 9559SOL    HW230517   9.435   9.229   5.240
 9560SOL     OW30518  13.596  12.823   2.706
 9560SOL    HW130519  13.633  12.864   2.784
 9560SOL    HW230520  13.510  12.791   2.735
 9561SOL     OW30521   3.300  12.316   6.625
 9561SOL    HW130522   3.234  12.281   6.564
 9561SOL    HW230523   3.248  12.349   6.699
 9562SOL     OW30524   5.709   6.582   3.087
 9562SOL    HW130525   5.774   6.560   3.021
 9562SOL    HW230526   5.703   6.678   3.083
 9563SOL     OW30527   8.470  14.843   3.481
 9563SOL    HW130528   8.554  14.825   3.523
 9563SOL    HW230529   8.456   0.058   3.495
 9564SOL     OW30530   8.340   6.271   1.567
 9564SOL    HW130531   8.270   6.284   1.631
 9564SOL    HW230532   8.419   6.297   1.614
 9565SOL     OW30533   1.014   7.618   8.934
 9565SOL    HW130534   1.067   7.549   8.973
 9565SOL    HW230535   0.933   7.574   8.908
 9566SOL     OW30536   0.258   9.892  13.088
 9566SOL    HW130537   0.272   9.978  13.128
 9566SOL    HW230538   0.235   9.835  13.161
 9567SOL     OW30539  10.446   0.477   0.740
 9567SOL    HW130540  10.434   0.390   0.779
 9567SOL    HW230541  10.379   0.480   0.670
 9568SOL     OW30542  14.332   7.568   8.822
 9568SOL    HW130543  14.309   7.503   8.756
 9568SOL    HW230544  14.297   7.650   8.789
 9569SOL     OW30545   8.586   6.774   4.580
 9569SOL    HW130546   8.540   6.705   4.628
 9569SOL    HW230547   8.598   6.844   4.644
 9570SOL     OW30548   8.357  13.425   3.509
 9570SOL    HW130549   8.435  13.476   3.490
 9570SOL    HW230550   8.322  13.463   3.590
 9571SOL     OW30551  14.702  10.407   3.626
 9571SOL    HW130552  14.686  10.404   3.721
 9571SOL    HW230553  14.646  10.338   3.591
 9572SOL     OW30554   4.323   0.877  14.121
 9572SOL    HW130555   4.382   0.869  14.195
 9572SOL    HW230556   4.289   0.789  14.107
 9573SOL     OW30557   4.423  10.586   8.741
 9573SOL    HW130558   4.386  10.498   8.728
 9573SOL    HW230559   4.373  10.622   8.815
 9574SOL     OW30560  11.150   9.165  10.242
 9574SOL    HW130561  11.233   9.174  10.289
 9574SOL    HW230562  11.144   9.244  10.188
 9575SOL     OW30563   3.112   5.189   3.252
 9575SOL    HW130564   3.124   5.104   3.293
 9575SOL    HW230565   3.135   5.252   3.321
 9576SOL     OW30566  11.579   3.918  10.109
 9576SOL    HW130567  11.606   3.927  10.017
 9576SOL    HW230568  11.644   3.970  10.157
 9577SOL     OW30569  14.645  14.002   7.270
 9577SOL    HW130570  14.593  13.982   7.348
 9577SOL    HW230571  14.624  13.932   7.208
 9578SOL     OW30572  14.829  10.484  11.581
 9578SOL    HW130573  14.837  10.411  11.642
 9578SOL    HW230574   0.000  10.458  11.504
 9579SOL     OW30575   7.716  12.197  10.791
 9579SOL    HW130576   7.700  12.107  10.762
 9579SOL    HW230577   7.704  12.194  10.886
 9580SOL     OW30578   5.182   5.484   6.571
 9580SOL    HW130579   5.192   5.512   6.662
 9580SOL    HW230580   5.133   5.554   6.529
 9581SOL     OW30581   8.767   0.545   3.807
 9581SOL    HW130582   8.779   0.455   3.778
 9581SOL    HW230583   8.816   0.598   3.744
 9582SOL     OW30584   7.524   7.496   8.558
 9582SOL    HW130585   7.433   7.507   8.586
 9582SOL    HW230586   7.519   7.443   8.479
 9583SOL     OW30587   9.049   6.524   4.658
 9583SOL    HW130588   9.097   6.607   4.659
 9583SOL    HW230589   8.991   6.529   4.734
 9584SOL     OW30590   8.719   0.657   4.185
 9584SOL    HW130591   8.628   0.626   4.188
 9584SOL    HW230592   8.770   0.581   4.158
 9585SOL     OW30593   2.808   2.425  10.600
 9585SOL    HW130594   2.855   2.503  10.628
 9585SOL    HW230595   2.754   2.453  10.526
 9586SOL     OW30596  12.838   1.550  11.217
 9586SOL    HW130597  12.833   1.483  11.286
 9586SOL    HW230598  12.802   1.508  11.139
 9587SOL     OW30599   1.790   8.077  10.289
 9587SOL    HW130600   1.731   8.003  10.305
 9587SOL    HW230601   1.828   8.059  10.202
 9588SOL     OW30602  10.934   0.050   4.223
 9588SOL    HW130603  10.960   0.137   4.252
 9588SOL    HW230604  10.838   0.052   4.225
 9589SOL     OW30605   0.597   9.869   3.010
 9589SOL    HW130606   0.515   9.819   3.014
 9589SOL    HW230607   0.589   9.922   2.931
 9590SOL     OW30608  14.819  12.967  10.467
 9590SOL    HW130609  14.820  12.959  10.372
 9590SOL    HW230610  14.754  13.034  10.485
 9591SOL     OW30611   2.045   3.474   1.265
 9591SOL    HW130612   1.995   3.501   1.343
 9591SOL    HW230613   1.997   3.398   1.231
 9592SOL     OW30614   7.878  10.121  10.524
 9592SOL    HW130615   7.966  10.160  10.523
 9592SOL    HW230616   7.870  10.083  10.612
 9593SOL     OW30617   6.880   4.717  12.247
 9593SOL    HW130618   6.838   4.798  12.219
 9593SOL    HW230619   6.811   4.651  12.242
 9594SOL     OW30620  14.835   7.387   4.406
 9594SOL    HW130621   0.019   7.382   4.334
 9594SOL    HW230622  14.859   7.467   4.453
 9595SOL     OW30623   4.646  13.246  12.319
 9595SOL    HW130624   4.566  13.226  12.368
 9595SOL    HW230625   4.638  13.195  12.238
 9596SOL     OW30626  11.672   2.390   8.509
 9596SOL    HW130627  11.701   2.342   8.431
 9596SOL    HW230628  11.613   2.457   8.475
 9597SOL     OW30629   5.189   7.023   2.968
 9597SOL    HW130630   5.271   6.994   3.007
 9597SOL    HW230631   5.150   6.943   2.933
 9598SOL     OW30632  11.417   7.772  14.753
 9598SOL    HW130633  11.436   7.731  14.669
 9598SOL    HW230634  11.370   7.852  14.730
 9599SOL     OW30635   3.183  11.063   2.787
 9599SOL    HW130636   3.227  11.083   2.870
 9599SOL    HW230637   3.202  11.138   2.731
 9600SOL     OW30638   5.351   2.855   1.462
 9600SOL    HW130639   5.326   2.791   1.528
 9600SOL    HW230640   5.269   2.899   1.439
 9601SOL     OW30641   2.791  13.412  12.744
 9601SOL    HW130642   2.859  13.432  12.680
 9601SOL    HW230643   2.837  13.375  12.819
 9602SOL     OW30644   3.416   0.558   1.878
 9602SOL    HW130645   3.441   0.648   1.859
 9602SOL    HW230646   3.326   0.563   1.907
 9603SOL     OW30647   8.006  10.401   6.263
 9603SOL    HW130648   8.011  10.315   6.221
 9603SOL    HW230649   7.978  10.382   6.353
 9604SOL     OW30650   5.865   6.555  12.715
 9604SOL    HW130651   5.864   6.462  12.695
 9604SOL    HW230652   5.862   6.598  12.630
 9605SOL     OW30653   4.978   3.398   2.184
 9605SOL    HW130654   4.954   3.305   2.178
 9605SOL    HW230655   4.896   3.443   2.200
 9606SOL     OW30656  10.892   0.769   6.911
 9606SOL    HW130657  10.974   0.817   6.899
 9606SOL    HW230658  10.881   0.719   6.830
 9607SOL     OW30659  12.983  11.584   4.754
 9607SOL    HW130660  12.960  11.655   4.694
 9607SOL    HW230661  12.942  11.506   4.716
 9608SOL     OW30662   9.106   0.990   7.781
 9608SOL    HW130663   9.049   1.043   7.837
 9608SOL    HW230664   9.078   0.900   7.796
 9609SOL     OW30665   8.979   5.329   6.575
 9609SOL    HW130666   8.910   5.370   6.521
 9609SOL    HW230667   9.033   5.403   6.604
 9610SOL     OW30668   7.236   5.820   0.181
 9610SOL    HW130669   7.269   5.909   0.171
 9610SOL    HW230670   7.217   5.791   0.092
 9611SOL     OW30671   3.629   6.299   8.774
 9611SOL    HW130672   3.603   6.225   8.828
 9611SOL    HW230673   3.716   6.275   8.742
 9612SOL     OW30674  12.832  12.429   4.315
 9612SOL    HW130675  12.842  12.357   4.253
 9612SOL    HW230676  12.806  12.387   4.397
 9613SOL     OW30677   4.540  10.701   2.043
 9613SOL    HW130678   4.446  10.700   2.026
 9613SOL    HW230679   4.561  10.611   2.068
 9614SOL     OW30680   5.863  13.139   6.674
 9614SOL    HW130681   5.936  13.107   6.727
 9614SOL    HW230682   5.800  13.172   6.738
 9615SOL     OW30683   5.082   3.373  14.245
 9615SOL    HW130684   5.175   3.359  14.264
 9615SOL    HW230685   5.066   3.463  14.271
 9616SOL     OW30686   3.260   3.393  11.920
 9616SOL    HW130687   3.175   3.388  11.963
 9616SOL    HW230688   3.322   3.362  11.986
 9617SOL     OW30689   6.157   8.365   1.280
 9617SOL    HW130690   6.154   8.275   1.311
 9617SOL    HW230691   6.087   8.370   1.216
 9618SOL     OW30692   8.044   0.342  10.547
 9618SOL    HW130693   8.072   0.262  10.590
 9618SOL    HW230694   8.039   0.320  10.454
 9619SOL     OW30695  11.080   4.852   0.266
 9619SOL    HW130696  11.112   4.914   0.199
 9619SOL    HW230697  11.065   4.907   0.343
 9620SOL     OW30698   3.271  11.809   5.277
 9620SOL    HW130699   3.296  11.756   5.353
 9620SOL    HW230700   3.263  11.898   5.312
 9621SOL     OW30701  14.291   1.055   3.017
 9621SOL    HW130702  14.295   1.023   3.107
 9621SOL    HW230703  14.349   1.131   3.016
 9622SOL     OW30704   2.291   1.346   4.008
 9622SOL    HW130705   2.307   1.293   3.930
 9622SOL    HW230706   2.257   1.285   4.073
 9623SOL     OW30707  14.063   5.101   8.093
 9623SOL    HW130708  14.023   5.187   8.108
 9623SOL    HW230709  14.125   5.091   8.165
 9624SOL     OW30710   4.377   0.205   3.174
 9624SOL    HW130711   4.387   0.177   3.265
 9624SOL    HW230712   4.422   0.138   3.123
 9625SOL     OW30713  13.001   0.123   6.522
 9625SOL    HW130714  12.953   0.124   6.605
 9625SOL    HW230715  12.970   0.202   6.476
 9626SOL     OW30716   4.401  14.654  14.476
 9626SOL    HW130717   4.324  14.706  14.499
 9626SOL    HW230718   4.388  14.630  14.384
 9627SOL     OW30719   6.340   6.769  12.601
 9627SOL    HW130720   6.299   6.685  12.584
 9627SOL    HW230721   6.304   6.797  12.685
 9628SOL     OW30722  11.357   0.819   7.218
 9628SOL    HW130723  11.405   0.749   7.260
 9628SOL    HW230724  11.395   0.900   7.253
 9629SOL     OW30725   8.409  13.551   4.952
 9629SOL    HW130726   8.397  13.646   4.950
 9629SOL    HW230727   8.369  13.521   4.870
 9630SOL     OW30728   6.225   4.509   6.259
 9630SOL    HW130729   6.245   4.589   6.306
 9630SOL    HW230730   6.309   4.481   6.222
 9631SOL     OW30731   1.821   9.901  10.092
 9631SOL    HW130732   1.746   9.846  10.071
 9631SOL    HW230733   1.871   9.905  10.011
 9632SOL     OW30734   4.533   1.727  10.480
 9632SOL    HW130735   4.530   1.686  10.394
 9632SOL    HW230736   4.561   1.817  10.464
 9633SOL     OW30737   7.028   2.690  11.765
 9633SOL    HW130738   6.975   2.692  11.845
 9633SOL    HW230739   7.086   2.766  11.773
 9634SOL     OW30740   6.316   1.494   0.040
 9634SOL    HW130741   6.240   1.535  14.878
 9634SOL    HW230742   6.336   1.419  14.863
 9635SOL     OW30743   5.577   2.576  13.971
 9635SOL    HW130744   5.533   2.651  13.932
 9635SOL    HW230745   5.505   2.520  14.001
 9636SOL     OW30746  10.917   5.605   1.044
 9636SOL    HW130747  10.843   5.649   1.086
 9636SOL    HW230748  10.988   5.670   1.045
 9637SOL     OW30749   2.973  13.568  14.581
 9637SOL    HW130750   3.064  13.583  14.608
 9637SOL    HW230751   2.964  13.473  14.581
 9638SOL     OW30752   0.978  13.058   0.719
 9638SOL    HW130753   0.948  13.012   0.798
 9638SOL    HW230754   0.897  13.092   0.680
 9639SOL     OW30755   1.178  11.863   1.067
 9639SOL    HW130756   1.125  11.819   1.001
 9639SOL    HW230757   1.241  11.915   1.017
 9640SOL     OW30758  12.410   2.054   7.454
 9640SOL    HW130759  12.391   2.051   7.548
 9640SOL    HW230760  12.493   2.008   7.446
 9641SOL     OW30761  11.730  13.815   8.415
 9641SOL    HW130762  11.815  13.837   8.453
 9641SOL    HW230763  11.677  13.894   8.427
 9642SOL     OW30764  14.336  12.266   0.278
 9642SOL    HW130765  14.269  12.310   0.330
 9642SOL    HW230766  14.419  12.297   0.316
 9643SOL     OW30767   8.482   4.756   8.572
 9643SOL    HW130768   8.569   4.787   8.549
 9643SOL    HW230769   8.476   4.767   8.666
 9644SOL     OW30770  14.019   9.331   5.060
 9644SOL    HW130771  14.064   9.281   5.128
 9644SOL    HW230772  13.926   9.319   5.079
 9645SOL     OW30773   4.455  12.826  14.697
 9645SOL    HW130774   4.538  12.845  14.653
 9645SOL    HW230775   4.405  12.907  14.690
 9646SOL     OW30776  11.441  11.479   4.032
 9646SOL    HW130777  11.427  11.496   3.939
 9646SOL    HW230778  11.479  11.561   4.065
 9647SOL     OW30779   6.788   7.995   7.979
 9647SOL    HW130780   6.718   8.008   8.042
 9647SOL    HW230781   6.753   8.027   7.896
 9648SOL     OW30782   0.110  10.248   8.313
 9648SOL    HW130783   0.149  10.220   8.230
 9648SOL    HW230784   0.184  10.277   8.366
 9649SOL     OW30785   0.859   4.932   5.956
 9649SOL    HW130786   0.876   4.866   6.023
 9649SOL    HW230787   0.822   5.006   6.004
 9650SOL     OW30788   5.546  13.057   9.912
 9650SOL    HW130789   5.475  13.067   9.848
 9650SOL    HW230790   5.502  13.051   9.997
 9651SOL     OW30791   8.703   7.272  11.147
 9651SOL    HW130792   8.659   7.190  11.123
 9651SOL    HW230793   8.647   7.340  11.110
 9652SOL     OW30794  14.130  14.721   2.571
 9652SOL    HW130795  14.082  14.790   2.617
 9652SOL    HW230796  14.100  14.640   2.611
 9653SOL     OW30797  11.497   9.432  12.537
 9653SOL    HW130798  11.483   9.337  12.537
 9653SOL    HW230799  11.590   9.443  12.556
 9654SOL     OW30800  14.656   6.456  12.966
 9654SOL    HW130801  14.575   6.477  12.921
 9654SOL    HW230802  14.701   6.395  12.907
 9655SOL     OW30803   5.954   7.698  11.937
 9655SOL    HW130804   6.041   7.672  11.967
 9655SOL    HW230805   5.963   7.792  11.919
 9656SOL     OW30806  13.346   4.896   6.792
 9656SOL    HW130807  13.373   4.838   6.721
 9656SOL    HW230808  13.427   4.912   6.842
 9657SOL     OW30809   0.542  11.908   1.015
 9657SOL    HW130810   0.597  11.975   1.056
 9657SOL    HW230811   0.454  11.947   1.012
 9658SOL     OW30812   1.683   3.000   7.356
 9658SOL    HW130813   1.774   2.980   7.377
 9658SOL    HW230814   1.665   3.082   7.401
 9659SOL     OW30815   7.443   6.647   3.488
 9659SOL    HW130816   7.353   6.678   3.501
 9659SOL    HW230817   7.496   6.726   3.484
 9660SOL     OW30818   8.889   4.981  12.906
 9660SOL    HW130819   8.910   4.939  12.822
 9660SOL    HW230820   8.974   5.011  12.939
 9661SOL     OW30821   9.255  13.122   3.481
 9661SOL    HW130822   9.223  13.105   3.392
 9661SOL    HW230823   9.177  13.151   3.528
 9662SOL     OW30824  10.570   8.763   3.836
 9662SOL    HW130825  10.577   8.854   3.865
 9662SOL    HW230826  10.484   8.757   3.795
 9663SOL     OW30827   7.548   2.090   3.781
 9663SOL    HW130828   7.527   2.149   3.708
 9663SOL    HW230829   7.475   2.100   3.842
 9664SOL     OW30830   8.070   9.079   5.968
 9664SOL    HW130831   8.002   9.121   5.915
 9664SOL    HW230832   8.145   9.074   5.910
 9665SOL     OW30833   0.826   5.068  14.699
 9665SOL    HW130834   0.779   5.034  14.775
 9665SOL    HW230835   0.758   5.104  14.643
 9666SOL     OW30836   5.698  14.607  10.701
 9666SOL    HW130837   5.719  14.658  10.623
 9666SOL    HW230838   5.711  14.668  10.773
 9667SOL     OW30839   6.261   6.462   3.688
 9667SOL    HW130840   6.215   6.437   3.768
 9667SOL    HW230841   6.202   6.434   3.618
 9668SOL     OW30842  11.457  10.229   7.073
 9668SOL    HW130843  11.552  10.220   7.073
 9668SOL    HW230844  11.429  10.185   7.153
 9669SOL     OW30845   8.711   2.002   3.642
 9669SOL    HW130846   8.655   2.029   3.569
 9669SOL    HW230847   8.677   1.916   3.668
 9670SOL     OW30848  11.039   6.120   7.075
 9670SOL    HW130849  11.059   6.118   6.982
 9670SOL    HW230850  10.946   6.143   7.079
 9671SOL     OW30851   7.641   7.806  11.173
 9671SOL    HW130852   7.615   7.893  11.144
 9671SOL    HW230853   7.696   7.822  11.249
 9672SOL     OW30854  13.290   8.344   6.601
 9672SOL    HW130855  13.195   8.352   6.600
 9672SOL    HW230856  13.307   8.251   6.587
 9673SOL     OW30857  13.598   1.617   8.450
 9673SOL    HW130858  13.689   1.607   8.479
 9673SOL    HW230859  13.584   1.545   8.390
 9674SOL     OW30860  10.861   0.726  11.264
 9674SOL    HW130861  10.893   0.643  11.229
 9674SOL    HW230862  10.904   0.792  11.211
 9675SOL     OW30863   5.347   7.732  10.426
 9675SOL    HW130864   5.399   7.654  10.404
 9675SOL    HW230865   5.270   7.698  10.471
 9676SOL     OW30866  10.051   4.145  14.525
 9676SOL    HW130867  10.084   4.058  14.544
 9676SOL    HW230868   9.972   4.153  14.578
 9677SOL     OW30869   0.365   3.441  14.552
 9677SOL    HW130870   0.361   3.424  14.646
 9677SOL    HW230871   0.401   3.529  14.544
 9678SOL     OW30872   0.413   8.374   7.814
 9678SOL    HW130873   0.399   8.295   7.761
 9678SOL    HW230874   0.326   8.414   7.820
 9679SOL     OW30875   5.488  11.026   6.755
 9679SOL    HW130876   5.575  11.054   6.784
 9679SOL    HW230877   5.501  10.937   6.723
 9680SOL     OW30878  11.696   5.636   5.960
 9680SOL    HW130879  11.631   5.581   5.917
 9680SOL    HW230880  11.674   5.631   6.053
 9681SOL     OW30881   4.827   5.235  11.344
 9681SOL    HW130882   4.844   5.288  11.422
 9681SOL    HW230883   4.835   5.144  11.375
 9682SOL     OW30884   6.014  14.305   8.509
 9682SOL    HW130885   5.925  14.271   8.502
 9682SOL    HW230886   6.017  14.377   8.446
 9683SOL     OW30887  10.272   8.333   1.774
 9683SOL    HW130888  10.345   8.285   1.813
 9683SOL    HW230889  10.278   8.314   1.680
 9684SOL     OW30890   2.153   9.292  11.105
 9684SOL    HW130891   2.203   9.293  11.187
 9684SOL    HW230892   2.208   9.340  11.044
 9685SOL     OW30893  12.842   8.738  14.591
 9685SOL    HW130894  12.790   8.706  14.517
 9685SOL    HW230895  12.930   8.705  14.574
 9686SOL     OW30896   6.251   7.287   8.182
 9686SOL    HW130897   6.192   7.356   8.152
 9686SOL    HW230898   6.202   7.206   8.167
 9687SOL     OW30899  13.976  13.278  14.175
 9687SOL    HW130900  13.969  13.372  14.192
 9687SOL    HW230901  14.069  13.258  14.186
 9688SOL     OW30902  13.745   5.084   7.238
 9688SOL    HW130903  13.827   5.067   7.192
 9688SOL    HW230904  13.772   5.117   7.324
 9689SOL     OW30905   6.889   9.672   8.425
 9689SOL    HW130906   6.827   9.617   8.378
 9689SOL    HW230907   6.893   9.634   8.512
 9690SOL     OW30908   6.614   1.841   3.959
 9690SOL    HW130909   6.680   1.781   3.996
 9690SOL    HW230910   6.658   1.926   3.958
 9691SOL     OW30911  14.469  13.882   8.850
 9691SOL    HW130912  14.511  13.825   8.786
 9691SOL    HW230913  14.504  13.969   8.830
 9692SOL     OW30914   8.777  11.310   4.990
 9692SOL    HW130915   8.763  11.222   4.956
 9692SOL    HW230916   8.752  11.368   4.918
 9693SOL     OW30917  11.661   9.012   6.019
 9693SOL    HW130918  11.728   8.962   6.065
 9693SOL    HW230919  11.688   9.104   6.028
 9694SOL     OW30920   1.841   9.869  11.107
 9694SOL    HW130921   1.918   9.829  11.067
 9694SOL    HW230922   1.874   9.951  11.146
 9695SOL     OW30923   3.994   1.954   3.125
 9695SOL    HW130924   3.953   1.909   3.198
 9695SOL    HW230925   4.081   1.977   3.156
 9696SOL     OW30926   9.781   2.915  13.930
 9696SOL    HW130927   9.811   2.829  13.962
 9696SOL    HW230928   9.859   2.954  13.890
 9697SOL     OW30929   3.274   9.941   4.549
 9697SOL    HW130930   3.219  10.004   4.503
 9697SOL    HW230931   3.291   9.982   4.634
 9698SOL     OW30932   6.308  14.577   8.322
 9698SOL    HW130933   6.350  14.509   8.375
 9698SOL    HW230934   6.332  14.659   8.365
 9699SOL     OW30935   0.668   8.815   1.370
 9699SOL    HW130936   0.636   8.861   1.447
 9699SOL    HW230937   0.625   8.859   1.297
 9700SOL     OW30938   1.983  13.527  14.283
 9700SOL    HW130939   1.959  13.454  14.226
 9700SOL    HW230940   1.903  13.579  14.291
 9701SOL     OW30941   4.101  12.274   4.065
 9701SOL    HW130942   4.134  12.254   3.977
 9701SOL    HW230943   4.164  12.337   4.100
 9702SOL     OW30944   4.155   0.004  13.597
 9702SOL    HW130945   4.211   0.081  13.603
 9702SOL    HW230946   4.066   0.039  13.599
 9703SOL     OW30947  13.858  10.582  11.306
 9703SOL    HW130948  13.919  10.656  11.302
 9703SOL    HW230949  13.803  10.592  11.229
 9704SOL     OW30950   8.635   8.891   5.734
 9704SOL    HW130951   8.702   8.837   5.691
 9704SOL    HW230952   8.605   8.838   5.808
 9705SOL     OW30953   2.791   8.666   9.015
 9705SOL    HW130954   2.842   8.747   9.009
 9705SOL    HW230955   2.701   8.693   8.997
 9706SOL     OW30956   3.322  13.659   7.964
 9706SOL    HW130957   3.372  13.733   7.929
 9706SOL    HW230958   3.384  13.587   7.968
 9707SOL     OW30959   0.432   4.004   5.001
 9707SOL    HW130960   0.462   3.915   4.985
 9707SOL    HW230961   0.347   4.009   4.956
 9708SOL     OW30962   6.794  13.087   0.004
 9708SOL    HW130963   6.862  13.154   0.009
 9708SOL    HW230964   6.821  13.030  14.811
 9709SOL     OW30965   1.710   9.713   8.465
 9709SOL    HW130966   1.756   9.631   8.484
 9709SOL    HW230967   1.777   9.780   8.467
 9710SOL     OW30968  11.209   1.532  13.106
 9710SOL    HW130969  11.155   1.553  13.182
 9710SOL    HW230970  11.227   1.439  13.114
 9711SOL     OW30971  12.603   7.542   1.062
 9711SOL    HW130972  12.677   7.550   1.001
 9711SOL    HW230973  12.536   7.600   1.026
 9712SOL     OW30974  10.849   7.883   4.115
 9712SOL    HW130975  10.849   7.952   4.182
 9712SOL    HW230976  10.941   7.871   4.092
 9713SOL     OW30977   9.096   9.608   0.454
 9713SOL    HW130978   9.166   9.592   0.391
 9713SOL    HW230979   9.019   9.625   0.400
 9714SOL     OW30980  14.529   1.980   0.476
 9714SOL    HW130981  14.590   1.956   0.406
 9714SOL    HW230982  14.501   1.896   0.513
 9715SOL     OW30983  10.593  12.839   3.210
 9715SOL    HW130984  10.523  12.831   3.274
 9715SOL    HW230985  10.548  12.842   3.125
 9716SOL     OW30986   0.353  10.859   0.233
 9716SOL    HW130987   0.312  10.815   0.159
 9716SOL    HW230988   0.354  10.952   0.210
 9717SOL     OW30989  12.517  13.456  12.988
 9717SOL    HW130990  12.560  13.377  13.020
 9717SOL    HW230991  12.466  13.427  12.912
 9718SOL     OW30992   5.883  11.725  11.846
 9718SOL    HW130993   5.952  11.663  11.867
 9718SOL    HW230994   5.923  11.787  11.785
 9719SOL     OW30995  10.405  13.297   9.328
 9719SOL    HW130996  10.376  13.209   9.351
 9719SOL    HW230997  10.349  13.322   9.254
 9720SOL     OW30998  12.673  13.432   8.259
 9720SOL    HW130999  12.723  13.495   8.311
 9720SOL    HW231000  12.583  13.443   8.288
 9721SOL     OW31001   1.256  14.867   4.759
 9721SOL    HW131002   1.279  14.835   4.846
 9721SOL    HW231003   1.160  14.865   4.758
 9722SOL     OW31004   0.275  14.568  12.151
 9722SOL    HW131005   0.216  14.494  12.166
 9722SOL    HW231006   0.229  14.622  12.087
 9723SOL     OW31007   4.467   9.493   0.573
 9723SOL    HW131008   4.457   9.480   0.479
 9723SOL    HW231009   4.469   9.404   0.609
 9724SOL     OW31010  13.924   1.949   2.943
 9724SOL    HW131011  13.978   2.022   2.974
 9724SOL    HW231012  13.895   1.906   3.023
 9725SOL     OW31013   6.876  13.014   7.785
 9725SOL    HW131014   6.946  12.984   7.842
 9725SOL    HW231015   6.914  13.012   7.697
 9726SOL     OW31016   3.595   8.719   0.306
 9726SOL    HW131017   3.523   8.670   0.266
 9726SOL    HW231018   3.554   8.767   0.378
 9727SOL     OW31019   2.684   5.018  14.044
 9727SOL    HW131020   2.746   4.946  14.042
 9727SOL    HW231021   2.671   5.036  14.137
 9728SOL     OW31022  14.417  12.226   6.250
 9728SOL    HW131023  14.366  12.192   6.323
 9728SOL    HW231024  14.465  12.301   6.286
 9729SOL     OW31025   4.182   8.308   1.220
 9729SOL    HW131026   4.151   8.309   1.310
 9729SOL    HW231027   4.107   8.279   1.169
 9730SOL     OW31028  12.411  14.794   9.200
 9730SOL    HW131029  12.401  14.768   9.108
 9730SOL    HW231030  12.389  14.715   9.249
 9731SOL     OW31031  13.157  12.378   8.827
 9731SOL    HW131032  13.219  12.307   8.845
 9731SOL    HW231033  13.075  12.333   8.805
 9732SOL     OW31034   9.623  11.781  10.707
 9732SOL    HW131035   9.715  11.763  10.688
 9732SOL    HW231036   9.610  11.871  10.678
 9733SOL     OW31037   2.614   6.497   3.578
 9733SOL    HW131038   2.571   6.542   3.506
 9733SOL    HW231039   2.626   6.564   3.645
 9734SOL     OW31040   1.245  10.817   2.909
 9734SOL    HW131041   1.192  10.829   2.988
 9734SOL    HW231042   1.323  10.870   2.923
 9735SOL     OW31043   2.737   3.655   8.067
 9735SOL    HW131044   2.775   3.584   8.017
 9735SOL    HW231045   2.654   3.673   8.024
 9736SOL     OW31046   7.097  11.188  12.567
 9736SOL    HW131047   7.127  11.128  12.635
 9736SOL    HW231048   7.014  11.223  12.600
 9737SOL     OW31049   0.433   5.930   7.063
 9737SOL    HW131050   0.347   5.960   7.092
 9737SOL    HW231051   0.446   5.847   7.108
 9738SOL     OW31052   2.046   6.396  14.379
 9738SOL    HW131053   1.976   6.333  14.361
 9738SOL    HW231054   2.126   6.345  14.374
 9739SOL     OW31055   9.913   0.652   6.846
 9739SOL    HW131056   9.934   0.664   6.753
 9739SOL    HW231057   9.860   0.728   6.868
 9740SOL     OW31058   3.872   9.367   7.867
 9740SOL    HW131059   3.779   9.374   7.887
 9740SOL    HW231060   3.883   9.279   7.831
 9741SOL     OW31061  13.602  13.657   5.391
 9741SOL    HW131062  13.521  13.702   5.367
 9741SOL    HW231063  13.671  13.715   5.360
 9742SOL     OW31064   8.544   9.468   5.673
 9742SOL    HW131065   8.558   9.430   5.760
 9742SOL    HW231066   8.455   9.503   5.677
 9743SOL     OW31067  11.614  11.075  12.050
 9743SOL    HW131068  11.617  11.119  11.965
 9743SOL    HW231069  11.700  11.092  12.089
 9744SOL     OW31070   1.021   7.231   0.835
 9744SOL    HW131071   1.018   7.316   0.791
 9744SOL    HW231072   1.071   7.175   0.777
 9745SOL     OW31073  10.180  12.001  11.454
 9745SOL    HW131074  10.199  11.924  11.507
 9745SOL    HW231075  10.206  11.977  11.365
 9746SOL     OW31076   7.063   6.538   8.418
 9746SOL    HW131077   7.110   6.611   8.459
 9746SOL    HW231078   6.984   6.577   8.381
 9747SOL     OW31079   2.262   2.423   0.644
 9747SOL    HW131080   2.242   2.401   0.735
 9747SOL    HW231081   2.313   2.504   0.650
 9748SOL     OW31082   9.243  13.783   1.736
 9748SOL    HW131083   9.304  13.710   1.751
 9748SOL    HW231084   9.289  13.860   1.769
 9749SOL     OW31085   7.942   0.953   7.345
 9749SOL    HW131086   7.920   0.870   7.387
 9749SOL    HW231087   8.008   0.930   7.279
 9750SOL     OW31088  10.025  14.490   4.644
 9750SOL    HW131089   9.965  14.530   4.581
 9750SOL    HW231090  10.010  14.396   4.636
 9751SOL     OW31091  11.861   9.997  12.761
 9751SOL    HW131092  11.828   9.913  12.728
 9751SOL    HW231093  11.932   9.973  12.821
 9752SOL     OW31094   9.528  10.327   3.499
 9752SOL    HW131095   9.571  10.412   3.494
 9752SOL    HW231096   9.453  10.341   3.557
 9753SOL     OW31097   3.409   4.256  13.151
 9753SOL    HW131098   3.503   4.270  13.142
 9753SOL    HW231099   3.370   4.339  13.121
 9754SOL     OW31100   6.029   8.392   2.179
 9754SOL    HW131101   6.020   8.430   2.092
 9754SOL    HW231102   6.093   8.321   2.168
 9755SOL     OW31103   8.782   6.643   0.891
 9755SOL    HW131104   8.765   6.591   0.812
 9755SOL    HW231105   8.771   6.581   0.963
 9756SOL     OW31106   6.433   6.091   9.130
 9756SOL    HW131107   6.473   6.178   9.137
 9756SOL    HW231108   6.492   6.033   9.177
 9757SOL     OW31109   4.602   2.319  10.376
 9757SOL    HW131110   4.610   2.361  10.461
 9757SOL    HW231111   4.662   2.367  10.320
 9758SOL     OW31112   7.968  12.113   7.724
 9758SOL    HW131113   7.988  12.061   7.801
 9758SOL    HW231114   7.941  12.048   7.658
 9759SOL     OW31115  14.236   1.532  10.261
 9759SOL    HW131116  14.218   1.452  10.311
 9759SOL    HW231117  14.159   1.544  10.205
 9760SOL     OW31118  10.877   9.913   1.381
 9760SOL    HW131119  10.938   9.981   1.352
 9760SOL    HW231120  10.919   9.874   1.457
 9761SOL     OW31121   1.121   5.592   0.176
 9761SOL    HW131122   1.028   5.604   0.196
 9761SOL    HW231123   1.144   5.509   0.216
 9762SOL     OW31124   5.597  10.209  13.668
 9762SOL    HW131125   5.542  10.233  13.742
 9762SOL    HW231126   5.552  10.244  13.592
 9763SOL     OW31127   9.809   0.811   3.776
 9763SOL    HW131128   9.870   0.748   3.814
 9763SOL    HW231129   9.782   0.772   3.692
 9764SOL     OW31130   8.031  13.802   0.180
 9764SOL    HW131131   7.940  13.830   0.171
 9764SOL    HW231132   8.050  13.754   0.100
 9765SOL     OW31133   8.272   4.535   5.050
 9765SOL    HW131134   8.256   4.630   5.053
 9765SOL    HW231135   8.332   4.520   5.123
 9766SOL     OW31136   4.287  11.111   6.372
 9766SOL    HW131137   4.328  11.146   6.451
 9766SOL    HW231138   4.344  11.040   6.344
 9767SOL     OW31139   6.988  12.024   7.132
 9767SOL    HW131140   7.051  12.049   7.200
 9767SOL    HW231141   6.905  12.014   7.178
 9768SOL     OW31142   4.729  10.558  14.179
 9768SOL    HW131143   4.679  10.479  14.201
 9768SOL    HW231144   4.664  10.617  14.141
 9769SOL     OW31145   8.553  11.291   8.281
 9769SOL    HW131146   8.464  11.324   8.292
 9769SOL    HW231147   8.543  11.197   8.271
 9770SOL     OW31148   2.394   4.231   4.458
 9770SOL    HW131149   2.398   4.222   4.553
 9770SOL    HW231150   2.385   4.325   4.443
 9771SOL     OW31151   2.924  14.375  13.019
 9771SOL    HW131152   2.910  14.305  13.083
 9771SOL    HW231153   2.948  14.330  12.938
 9772SOL     OW31154   2.427   2.791  14.423
 9772SOL    HW131155   2.425   2.696  14.437
 9772SOL    HW231156   2.339   2.820  14.448
 9773SOL     OW31157   3.554   5.402  14.782
 9773SOL    HW131158   3.578   5.311  14.800
 9773SOL    HW231159   3.568   5.447  14.866
 9774SOL     OW31160   0.459  10.078  10.039
 9774SOL    HW131161   0.539  10.113  10.000
 9774SOL    HW231162   0.477  10.076  10.133
 9775SOL     OW31163   8.820   2.048   0.043
 9775SOL    HW131164   8.794   1.997  14.845
 9775SOL    HW231165   8.755   2.025   0.110
 9776SOL     OW31166   4.829   7.557   1.570
 9776SOL    HW131167   4.764   7.621   1.601
 9776SOL    HW231168   4.852   7.508   1.649
 9777SOL     OW31169   5.368   9.502  10.703
 9777SOL    HW131170   5.448   9.552  10.691
 9777SOL    HW231171   5.322   9.509  10.619
 9778SOL     OW31172   6.770  12.971  10.616
 9778SOL    HW131173   6.855  12.929  10.603
 9778SOL    HW231174   6.791  13.065  10.621
 9779SOL     OW31175  10.023   3.394   6.519
 9779SOL    HW131176   9.981   3.312   6.548
 9779SOL    HW231177  10.049   3.437   6.601
 9780SOL     OW31178   2.388   5.679   8.091
 9780SOL    HW131179   2.402   5.760   8.042
 9780SOL    HW231180   2.302   5.648   8.062
 9781SOL     OW31181   3.554  11.728   9.784
 9781SOL    HW131182   3.527  11.802   9.837
 9781SOL    HW231183   3.632  11.758   9.737
 9782SOL     OW31184  13.512   7.007   5.806
 9782SOL    HW131185  13.469   6.991   5.722
 9782SOL    HW231186  13.591   6.954   5.803
 9783SOL     OW31187  12.986   5.480  13.132
 9783SOL    HW131188  13.029   5.410  13.181
 9783SOL    HW231189  13.058   5.535  13.100
 9784SOL     OW31190   0.685  11.538   5.248
 9784SOL    HW131191   0.652  11.448   5.253
 9784SOL    HW231192   0.779  11.527   5.232
 9785SOL     OW31193  13.595   6.974   7.462
 9785SOL    HW131194  13.509   6.944   7.492
 9785SOL    HW231195  13.616   7.047   7.520
 9786SOL     OW31196   9.303  11.668   3.639
 9786SOL    HW131197   9.342  11.753   3.659
 9786SOL    HW231198   9.295  11.667   3.544
 9787SOL     OW31199   2.126   7.523   9.630
 9787SOL    HW131200   2.051   7.473   9.661
 9787SOL    HW231201   2.147   7.486   9.544
 9788SOL     OW31202   2.308  12.431  10.384
 9788SOL    HW131203   2.340  12.503  10.329
 9788SOL    HW231204   2.332  12.457  10.473
 9789SOL     OW31205   0.272  10.384   6.990
 9789SOL    HW131206   0.327  10.306   6.999
 9789SOL    HW231207   0.187  10.358   7.026
 9790SOL     OW31208   1.993   2.030  12.154
 9790SOL    HW131209   1.943   2.110  12.167
 9790SOL    HW231210   2.085   2.058  12.157
 9791SOL     OW31211  14.332   9.150   8.358
 9791SOL    HW131212  14.417   9.139   8.315
 9791SOL    HW231213  14.348   9.213   8.427
 9792SOL     OW31214   8.630   1.226   1.919
 9792SOL    HW131215   8.615   1.280   1.842
 9792SOL    HW231216   8.693   1.160   1.891
 9793SOL     OW31217   4.126  11.109  11.499
 9793SOL    HW131218   4.035  11.081  11.494
 9793SOL    HW231219   4.156  11.111  11.408
 9794SOL     OW31220   1.260   4.270   6.176
 9794SOL    HW131221   1.210   4.339   6.133
 9794SOL    HW231222   1.269   4.202   6.110
 9795SOL     OW31223   4.159  12.773  11.991
 9795SOL    HW131224   4.093  12.717  11.950
 9795SOL    HW231225   4.212  12.805  11.918
 9796SOL     OW31226   3.021   6.220   5.643
 9796SOL    HW131227   3.017   6.173   5.559
 9796SOL    HW231228   2.955   6.289   5.634
 9797SOL     OW31229   3.355  14.772   2.967
 9797SOL    HW131230   3.337  14.777   3.061
 9797SOL    HW231231   3.371  14.679   2.951
 9798SOL     OW31232   3.052   1.225   0.317
 9798SOL    HW131233   2.968   1.188   0.345
 9798SOL    HW231234   3.041   1.241   0.223
 9799SOL     OW31235   2.216  11.822   3.794
 9799SOL    HW131236   2.190  11.898   3.744
 9799SOL    HW231237   2.197  11.845   3.885
 9800SOL     OW31238  14.357   9.667  12.414
 9800SOL    HW131239  14.328   9.581  12.384
 9800SOL    HW231240  14.294   9.729  12.376
 9801SOL     OW31241  11.844  13.232   2.302
 9801SOL    HW131242  11.843  13.269   2.390
 9801SOL    HW231243  11.764  13.266   2.261
 9802SOL     OW31244   4.443   3.793   8.662
 9802SOL    HW131245   4.487   3.763   8.741
 9802SOL    HW231246   4.416   3.713   8.617
 9803SOL     OW31247   5.454   5.293   1.688
 9803SOL    HW131248   5.446   5.198   1.690
 9803SOL    HW231249   5.514   5.311   1.616
 9804SOL     OW31250   7.919   5.429  11.864
 9804SOL    HW131251   8.013   5.414  11.872
 9804SOL    HW231252   7.910   5.491  11.791
 9805SOL     OW31253   3.504  14.860   0.611
 9805SOL    HW131254   3.447  14.819   0.676
 9805SOL    HW231255   3.518  14.791   0.545
 9806SOL     OW31256  11.087  13.635  14.390
 9806SOL    HW131257  11.134  13.712  14.361
 9806SOL    HW231258  11.074  13.583  14.311
 9807SOL     OW31259   0.679  14.744   5.862
 9807SOL    HW131260   0.619  14.673   5.885
 9807SOL    HW231261   0.712  14.720   5.775
 9808SOL     OW31262   3.056   5.804  13.779
 9808SOL    HW131263   2.961   5.810  13.777
 9808SOL    HW231264   3.076   5.730  13.720
 9809SOL     OW31265   6.806   1.349   2.023
 9809SOL    HW131266   6.762   1.432   2.007
 9809SOL    HW231267   6.874   1.369   2.088
 9810SOL     OW31268  14.182   9.071   8.843
 9810SOL    HW131269  14.253   9.086   8.781
 9810SOL    HW231270  14.220   9.015   8.910
 9811SOL     OW31271  12.689   6.337   1.505
 9811SOL    HW131272  12.720   6.291   1.583
 9811SOL    HW231273  12.751   6.409   1.493
 9812SOL     OW31274  13.156   0.282  12.269
 9812SOL    HW131275  13.187   0.362  12.227
 9812SOL    HW231276  13.203   0.280  12.353
 9813SOL     OW31277   8.722  11.848  11.348
 9813SOL    HW131278   8.713  11.760  11.310
 9813SOL    HW231279   8.797  11.886  11.303
 9814SOL     OW31280   6.725   1.637   0.755
 9814SOL    HW131281   6.664   1.577   0.798
 9814SOL    HW231282   6.798   1.645   0.816
 9815SOL     OW31283   8.138   9.316   7.036
 9815SOL    HW131284   8.073   9.365   7.086
 9815SOL    HW231285   8.110   9.323   6.945
 9816SOL     OW31286   9.743   9.971   4.203
 9816SOL    HW131287   9.695   9.912   4.263
 9816SOL    HW231288   9.707   9.951   4.117
 9817SOL     OW31289  10.303   2.838   9.836
 9817SOL    HW131290  10.232   2.885   9.881
 9817SOL    HW231291  10.258   2.782   9.774
 9818SOL     OW31292   2.630   3.257   9.332
 9818SOL    HW131293   2.673   3.217   9.257
 9818SOL    HW231294   2.691   3.244   9.404
 9819SOL     OW31295   9.843  11.351   4.042
 9819SOL    HW131296   9.850  11.276   3.984
 9819SOL    HW231297   9.777  11.326   4.106
 9820SOL     OW31298   7.522   8.684   4.774
 9820SOL    HW131299   7.577   8.647   4.843
 9820SOL    HW231300   7.469   8.610   4.743
 9821SOL     OW31301   9.075   7.809   0.482
 9821SOL    HW131302   8.981   7.827   0.492
 9821SOL    HW231303   9.081   7.714   0.480
 9822SOL     OW31304   8.413   3.013   1.311
 9822SOL    HW131305   8.357   3.032   1.387
 9822SOL    HW231306   8.472   3.088   1.305
 9823SOL     OW31307   0.392   3.518  10.502
 9823SOL    HW131308   0.449   3.486  10.432
 9823SOL    HW231309   0.414   3.611  10.511
 9824SOL     OW31310  11.769  14.308   8.827
 9824SOL    HW131311  11.793  14.220   8.854
 9824SOL    HW231312  11.843  14.338   8.774
 9825SOL     OW31313   0.844   5.238   1.099
 9825SOL    HW131314   0.827   5.144   1.102
 9825SOL    HW231315   0.939   5.246   1.108
 9826SOL     OW31316  10.463   6.252   3.073
 9826SOL    HW131317  10.489   6.343   3.058
 9826SOL    HW231318  10.485   6.235   3.164
 9827SOL     OW31319  10.907  10.434   4.897
 9827SOL    HW131320  10.833  10.483   4.933
 9827SOL    HW231321  10.978  10.498   4.890
 9828SOL     OW31322  12.900   8.951   8.181
 9828SOL    HW131323  12.974   8.988   8.133
 9828SOL    HW231324  12.939   8.886   8.240
 9829SOL     OW31325   0.693  12.320  10.562
 9829SOL    HW131326   0.745  12.314  10.481
 9829SOL    HW231327   0.726  12.249  10.617
 9830SOL     OW31328   1.484   8.670  12.883
 9830SOL    HW131329   1.400   8.645  12.844
 9830SOL    HW231330   1.546   8.664  12.811
 9831SOL     OW31331   0.686   3.914  10.343
 9831SOL    HW131332   0.690   3.991  10.400
 9831SOL    HW231333   0.639   3.849  10.394
 9832SOL     OW31334  10.370  13.079   9.853
 9832SOL    HW131335  10.299  13.087   9.788
 9832SOL    HW231336  10.326  13.048   9.932
 9833SOL     OW31337   9.987   8.272  11.335
 9833SOL    HW131338  10.004   8.187  11.296
 9833SOL    HW231339  10.004   8.260  11.428
 9834SOL     OW31340   0.973   9.940   2.789
 9834SOL    HW131341   0.996   9.872   2.727
 9834SOL    HW231342   1.057   9.965   2.829
 9835SOL     OW31343   8.098  12.969  14.852
 9835SOL    HW131344   8.145  12.986   0.054
 9835SOL    HW231345   8.015  13.017  14.861
 9836SOL     OW31346  12.368   0.216   7.570
 9836SOL    HW131347  12.433   0.269   7.615
 9836SOL    HW231348  12.340   0.269   7.496
 9837SOL     OW31349   9.268  12.935  11.014
 9837SOL    HW131350   9.293  13.023  11.043
 9837SOL    HW231351   9.318  12.921  10.933
 9838SOL     OW31352   7.946  12.748  12.523
 9838SOL    HW131353   8.034  12.757  12.558
 9838SOL    HW231354   7.910  12.670  12.567
 9839SOL     OW31355   6.721  12.459   3.480
 9839SOL    HW131356   6.792  12.425   3.426
 9839SOL    HW231357   6.759  12.462   3.569
 9840SOL     OW31358   4.383  11.896   0.170
 9840SOL    HW131359   4.303  11.845   0.183
 9840SOL    HW231360   4.355  11.971   0.117
 9841SOL     OW31361   9.937   1.510   6.619
 9841SOL    HW131362   9.983   1.584   6.658
 9841SOL    HW231363   9.844   1.532   6.626
 9842SOL     OW31364  10.912   6.746   4.319
 9842SOL    HW131365  10.945   6.820   4.269
 9842SOL    HW231366  10.872   6.784   4.396
 9843SOL     OW31367   6.707   6.303  10.417
 9843SOL    HW131368   6.700   6.231  10.479
 9843SOL    HW231369   6.772   6.273  10.353
 9844SOL     OW31370  14.766   0.261   5.691
 9844SOL    HW131371  14.816   0.190   5.651
 9844SOL    HW231372  14.709   0.293   5.620
 9845SOL     OW31373   5.513  11.760  14.029
 9845SOL    HW131374   5.443  11.695  14.043
 9845SOL    HW231375   5.544  11.743  13.940
 9846SOL     OW31376  10.535   1.099   2.296
 9846SOL    HW131377  10.617   1.111   2.345
 9846SOL    HW231378  10.552   1.142   2.212
 9847SOL     OW31379  12.973   8.847   7.004
 9847SOL    HW131380  12.928   8.878   7.082
 9847SOL    HW231381  13.065   8.846   7.028
 9848SOL     OW31382   7.818   2.265   2.410
 9848SOL    HW131383   7.854   2.176   2.407
 9848SOL    HW231384   7.724   2.253   2.410
 9849SOL     OW31385   3.808   2.955   2.198
 9849SOL    HW131386   3.813   3.047   2.172
 9849SOL    HW231387   3.738   2.953   2.263
 9850SOL     OW31388  12.762   7.861  14.763
 9850SOL    HW131389  12.835   7.842  14.822
 9850SOL    HW231390  12.796   7.839  14.676
 9851SOL     OW31391  10.645   6.237   6.541
 9851SOL    HW131392  10.634   6.163   6.481
 9851SOL    HW231393  10.556   6.266   6.560
 9852SOL     OW31394   9.444  11.219   5.857
 9852SOL    HW131395   9.526  11.192   5.816
 9852SOL    HW231396   9.464  11.217   5.951
 9853SOL     OW31397   1.498  14.380   6.188
 9853SOL    HW131398   1.513  14.288   6.211
 9853SOL    HW231399   1.454  14.417   6.265
 9854SOL     OW31400   4.958   3.296  10.582
 9854SOL    HW131401   4.866   3.274  10.592
 9854SOL    HW231402   4.981   3.263  10.495
 9855SOL     OW31403   0.358   6.743  10.842
 9855SOL    HW131404   0.344   6.827  10.885
 9855SOL    HW231405   0.350   6.763  10.748
 9856SOL     OW31406  13.130   7.636   9.757
 9856SOL    HW131407  13.132   7.714   9.701
 9856SOL    HW231408  13.119   7.563   9.696
 9857SOL     OW31409  13.320   2.131   9.535
 9857SOL    HW131410  13.352   2.086   9.614
 9857SOL    HW231411  13.398   2.171   9.497
 9858SOL     OW31412  11.179  11.605   9.527
 9858SOL    HW131413  11.241  11.555   9.580
 9858SOL    HW231414  11.176  11.558   9.443
 9859SOL     OW31415   1.315   3.793   5.502
 9859SOL    HW131416   1.384   3.774   5.438
 9859SOL    HW231417   1.234   3.765   5.459
 9860SOL     OW31418   3.130   0.750   6.831
 9860SOL    HW131419   3.074   0.687   6.786
 9860SOL    HW231420   3.087   0.834   6.819
 9861SOL     OW31421   9.906   4.258   6.269
 9861SOL    HW131422   9.937   4.348   6.281
 9861SOL    HW231423   9.859   4.238   6.351
 9862SOL     OW31424   5.472   3.170   9.923
 9862SOL    HW131425   5.469   3.082   9.886
 9862SOL    HW231426   5.565   3.189   9.934
 9863SOL     OW31427   7.907   7.430   7.397
 9863SOL    HW131428   7.871   7.382   7.472
 9863SOL    HW231429   7.929   7.361   7.334
 9864SOL     OW31430  13.647  10.120  10.768
 9864SOL    HW131431  13.700  10.166  10.833
 9864SOL    HW231432  13.656  10.172  10.688
 9865SOL     OW31433   9.128  12.184  12.844
 9865SOL    HW131434   9.185  12.205  12.770
 9865SOL    HW231435   9.060  12.127  12.806
 9866SOL     OW31436  12.714  10.553   7.720
 9866SOL    HW131437  12.625  10.580   7.698
 9866SOL    HW231438  12.758  10.543   7.636
 9867SOL     OW31439   9.614   4.647  12.844
 9867SOL    HW131440   9.558   4.571  12.860
 9867SOL    HW231441   9.604   4.701  12.923
 9868SOL     OW31442   9.276   2.172   6.521
 9868SOL    HW131443   9.200   2.186   6.578
 9868SOL    HW231444   9.241   2.129   6.443
 9869SOL     OW31445   4.284   7.169   0.631
 9869SOL    HW131446   4.356   7.113   0.603
 9869SOL    HW231447   4.325   7.252   0.654
 9870SOL     OW31448   7.757   8.682   2.056
 9870SOL    HW131449   7.754   8.587   2.042
 9870SOL    HW231450   7.676   8.702   2.103
 9871SOL     OW31451  14.850   0.176  12.642
 9871SOL    HW131452   0.045   0.134  12.684
 9871SOL    HW231453   0.008   0.224  12.568
 9872SOL     OW31454  12.956   6.589  12.200
 9872SOL    HW131455  12.949   6.622  12.111
 9872SOL    HW231456  13.049   6.567  12.210
 9873SOL     OW31457   8.514   4.714   3.974
 9873SOL    HW131458   8.593   4.670   3.944
 9873SOL    HW231459   8.522   4.714   4.070
 9874SOL     OW31460   8.597   5.433   5.787
 9874SOL    HW131461   8.681   5.420   5.743
 9874SOL    HW231462   8.536   5.376   5.741
 9875SOL     OW31463   3.984  13.273  14.476
 9875SOL    HW131464   3.985  13.207  14.545
 9875SOL    HW231465   3.894  13.304  14.472
 9876SOL     OW31466  10.234   8.061  13.065
 9876SOL    HW131467  10.259   7.982  13.018
 9876SOL    HW231468  10.240   8.131  13.000
 9877SOL     OW31469   8.474   2.282  12.235
 9877SOL    HW131470   8.466   2.255  12.143
 9877SOL    HW231471   8.412   2.228  12.282
 9878SOL     OW31472   1.604  14.687   1.022
 9878SOL    HW131473   1.617  14.602   1.064
 9878SOL    HW231474   1.671  14.690   0.953
 9879SOL     OW31475  10.458   0.965   5.957
 9879SOL    HW131476  10.448   1.020   5.880
 9879SOL    HW231477  10.534   1.000   6.003
 9880SOL     OW31478   4.108  11.597   7.075
 9880SOL    HW131479   4.110  11.687   7.044
 9880SOL    HW231480   4.093  11.604   7.169
 9881SOL     OW31481   5.319   6.325   5.966
 9881SOL    HW131482   5.345   6.391   6.030
 9881SOL    HW231483   5.227   6.306   5.986
 9882SOL     OW31484   0.561   2.539   4.793
 9882SOL    HW131485   0.656   2.523   4.793
 9882SOL    HW231486   0.529   2.494   4.715
 9883SOL     OW31487  12.761   4.056  12.466
 9883SOL    HW131488  12.708   4.126  12.504
 9883SOL    HW231489  12.766   4.077  12.373
 9884SOL     OW31490   2.053   9.032   5.909
 9884SOL    HW131491   2.017   8.943   5.901
 9884SOL    HW231492   2.128   9.022   5.969
 9885SOL     OW31493   8.706   8.009   1.039
 9885SOL    HW131494   8.777   8.052   1.086
 9885SOL    HW231495   8.713   7.916   1.064
 9886SOL     OW31496   4.784   6.801  14.607
 9886SOL    HW131497   4.707   6.833  14.653
 9886SOL    HW231498   4.754   6.723  14.560
 9887SOL     OW31499   9.580  12.656  12.661
 9887SOL    HW131500   9.600  12.583  12.602
 9887SOL    HW231501   9.600  12.622  12.748
 9888SOL     OW31502   1.072  10.507   7.437
 9888SOL    HW131503   1.016  10.449   7.488
 9888SOL    HW231504   1.030  10.511   7.351
 9889SOL     OW31505   9.969   5.981   7.940
 9889SOL    HW131506   9.976   5.901   7.992
 9889SOL    HW231507   9.967   6.052   8.004
 9890SOL     OW31508   0.763   8.080  13.204
 9890SOL    HW131509   0.697   8.137  13.165
 9890SOL    HW231510   0.806   8.134  13.270
 9891SOL     OW31511  11.326   6.302   0.892
 9891SOL    HW131512  11.323   6.267   0.803
 9891SOL    HW231513  11.374   6.236   0.942
 9892SOL     OW31514   7.896  13.841   8.636
 9892SOL    HW131515   7.959  13.794   8.581
 9892SOL    HW231516   7.911  13.933   8.615
 9893SOL     OW31517   3.457   1.211   2.300
 9893SOL    HW131518   3.545   1.237   2.273
 9893SOL    HW231519   3.421   1.166   2.223
 9894SOL     OW31520  14.159   5.789   8.794
 9894SOL    HW131521  14.101   5.733   8.743
 9894SOL    HW231522  14.125   5.878   8.780
 9895SOL     OW31523  12.708  11.278  12.577
 9895SOL    HW131524  12.616  11.301  12.565
 9895SOL    HW231525  12.728  11.302  12.667
 9896SOL     OW31526   3.371  11.514   9.860
 9896SOL    HW131527   3.411  11.593   9.823
 9896SOL    HW231528   3.310  11.547   9.926
 9897SOL     OW31529   7.324  12.889   0.610
 9897SOL    HW131530   7.405  12.879   0.660
 9897SOL    HW231531   7.313  12.804   0.567
 9898SOL     OW31532   4.875   6.365  11.958
 9898SOL    HW131533   4.841   6.445  11.999
 9898SOL    HW231534   4.946   6.396  11.901
 9899SOL     OW31535   1.399   9.518   9.327
 9899SOL    HW131536   1.358   9.444   9.284
 9899SOL    HW231537   1.354   9.595   9.292
 9900SOL     OW31538   7.139   1.216   8.198
 9900SOL    HW131539   7.138   1.124   8.173
 9900SOL    HW231540   7.083   1.221   8.275
 9901SOL     OW31541   8.351   3.454  14.582
 9901SOL    HW131542   8.289   3.382  14.591
 9901SOL    HW231543   8.388   3.464  14.670
 9902SOL     OW31544  10.748   0.869   8.463
 9902SOL    HW131545  10.667   0.872   8.515
 9902SOL    HW231546  10.807   0.929   8.506
 9903SOL     OW31547  10.329   4.354   1.104
 9903SOL    HW131548  10.237   4.345   1.127
 9903SOL    HW231549  10.347   4.279   1.047
 9904SOL     OW31550   8.286   0.174   6.918
 9904SOL    HW131551   8.231   0.165   6.996
 9904SOL    HW231552   8.225   0.173   6.845
 9905SOL     OW31553   1.440  10.023  13.804
 9905SOL    HW131554   1.503  10.021  13.876
 9905SOL    HW231555   1.408   9.933  13.798
 9906SOL     OW31556  14.541   9.563   5.425
 9906SOL    HW131557  14.560   9.472   5.450
 9906SOL    HW231558  14.598   9.615   5.482
 9907SOL     OW31559   5.676   2.596   1.953
 9907SOL    HW131560   5.670   2.540   2.030
 9907SOL    HW231561   5.642   2.543   1.881
 9908SOL     OW31562  14.125  11.554  14.460
 9908SOL    HW131563  14.034  11.569  14.435
 9908SOL    HW231564  14.176  11.604  14.397
 9909SOL     OW31565   1.735   3.137  12.465
 9909SOL    HW131566   1.776   3.061  12.507
 9909SOL    HW231567   1.653   3.103  12.429
 9910SOL     OW31568  14.857   0.419  13.790
 9910SOL    HW131569  14.855   0.380  13.877
 9910SOL    HW231570  14.821   0.351  13.732
 9911SOL     OW31571  10.930   6.538   4.704
 9911SOL    HW131572  10.867   6.543   4.632
 9911SOL    HW231573  11.015   6.536   4.660
 9912SOL     OW31574  14.162  13.649   4.363
 9912SOL    HW131575  14.243  13.656   4.413
 9912SOL    HW231576  14.190  13.618   4.277
 9913SOL     OW31577   0.991   6.743   4.751
 9913SOL    HW131578   0.917   6.704   4.705
 9913SOL    HW231579   1.041   6.789   4.684
 9914SOL     OW31580   6.834  12.780   5.015
 9914SOL    HW131581   6.812  12.851   4.954
 9914SOL    HW231582   6.764  12.716   5.004
 9915SOL     OW31583   0.855  12.101  10.729
 9915SOL    HW131584   0.810  12.047  10.665
 9915SOL    HW231585   0.925  12.045  10.763
 9916SOL     OW31586   2.269  12.474  11.694
 9916SOL    HW131587   2.285  12.520  11.776
 9916SOL    HW231588   2.178  12.493  11.673
 9917SOL     OW31589   4.180   9.531   9.714
 9917SOL    HW131590   4.236   9.608   9.720
 9917SOL    HW231591   4.134   9.529   9.798
 9918SOL     OW31592  12.158   4.768   0.946
 9918SOL    HW131593  12.067   4.738   0.941
 9918SOL    HW231594  12.210   4.693   0.918
 9919SOL     OW31595  13.151   9.717  11.989
 9919SOL    HW131596  13.113   9.798  11.956
 9919SOL    HW231597  13.148   9.726  12.084
 9920SOL     OW31598   5.907  14.197   2.330
 9920SOL    HW131599   5.871  14.193   2.241
 9920SOL    HW231600   5.863  14.127   2.377
 9921SOL     OW31601   9.500  14.054   6.385
 9921SOL    HW131602   9.471  14.124   6.444
 9921SOL    HW231603   9.552  13.996   6.442
 9922SOL     OW31604   0.012  14.028   5.388
 9922SOL    HW131605   0.073  14.050   5.458
 9922SOL    HW231606  14.812  14.077   5.409
 9923SOL     OW31607   9.769   4.868   7.867
 9923SOL    HW131608   9.698   4.807   7.847
 9923SOL    HW231609   9.834   4.816   7.913
 9924SOL     OW31610   2.196   1.773   1.858
 9924SOL    HW131611   2.274   1.798   1.908
 9924SOL    HW231612   2.223   1.694   1.811
 9925SOL     OW31613   8.090   2.694   0.972
 9925SOL    HW131614   8.014   2.717   1.026
 9925SOL    HW231615   8.166   2.716   1.027
 9926SOL     OW31616   0.231   7.250  11.686
 9926SOL    HW131617   0.143   7.279  11.660
 9926SOL    HW231618   0.290   7.306  11.636
 9927SOL     OW31619  11.787   3.106  10.406
 9927SOL    HW131620  11.807   3.029  10.459
 9927SOL    HW231621  11.873   3.143  10.385
 9928SOL     OW31622  14.310   8.884  14.334
 9928SOL    HW131623  14.251   8.938  14.387
 9928SOL    HW231624  14.252   8.836  14.275
 9929SOL     OW31625   8.530  13.519  11.829
 9929SOL    HW131626   8.592  13.542  11.760
 9929SOL    HW231627   8.461  13.470  11.784
 9930SOL     OW31628  12.721   3.946  11.759
 9930SOL    HW131629  12.701   4.038  11.777
 9930SOL    HW231630  12.635   3.904  11.754
 9931SOL     OW31631   9.476   5.416   0.545
 9931SOL    HW131632   9.410   5.376   0.600
 9931SOL    HW231633   9.559   5.379   0.575
 9932SOL     OW31634  14.614   0.482   2.636
 9932SOL    HW131635  14.530   0.463   2.677
 9932SOL    HW231636  14.636   0.402   2.587
 9933SOL     OW31637   3.025   2.484   9.360
 9933SOL    HW131638   3.113   2.447   9.372
 9933SOL    HW231639   2.983   2.477   9.445
 9934SOL     OW31640   6.559   2.054  13.896
 9934SOL    HW131641   6.558   2.051  13.800
 9934SOL    HW231642   6.501   1.983  13.922
 9935SOL     OW31643   8.841   6.191   0.734
 9935SOL    HW131644   8.758   6.167   0.692
 9935SOL    HW231645   8.879   6.107   0.761
 9936SOL     OW31646   6.290   5.678  10.768
 9936SOL    HW131647   6.327   5.764  10.751
 9936SOL    HW231648   6.355   5.634  10.823
 9937SOL     OW31649  11.478   9.192   5.246
 9937SOL    HW131650  11.571   9.205   5.266
 9937SOL    HW231651  11.439   9.164   5.328
 9938SOL     OW31652  11.900   1.220  12.396
 9938SOL    HW131653  11.952   1.279  12.450
 9938SOL    HW231654  11.810   1.252  12.403
 9939SOL     OW31655   8.160   3.884   0.728
 9939SOL    HW131656   8.155   3.932   0.645
 9939SOL    HW231657   8.070   3.856   0.745
 9940SOL     OW31658   4.506   6.554   0.965
 9940SOL    HW131659   4.420   6.522   0.993
 9940SOL    HW231660   4.568   6.508   1.022
 9941SOL     OW31661  13.709  11.696  11.133
 9941SOL    HW131662  13.635  11.636  11.124
 9941SOL    HW231663  13.685  11.771  11.078
 9942SOL     OW31664   4.982   2.370   3.747
 9942SOL    HW131665   4.952   2.391   3.836
 9942SOL    HW231666   4.906   2.332   3.704
 9943SOL     OW31667   2.639   0.890   1.426
 9943SOL    HW131668   2.593   0.811   1.398
 9943SOL    HW231669   2.649   0.942   1.347
 9944SOL     OW31670  11.598  14.868   1.562
 9944SOL    HW131671  11.616  14.811   1.636
 9944SOL    HW231672  11.504   0.006   1.567
 9945SOL     OW31673   7.852   2.987  13.727
 9945SOL    HW131674   7.892   3.013  13.810
 9945SOL    HW231675   7.787   2.921  13.752
 9946SOL     OW31676   0.977   6.714  13.849
 9946SOL    HW131677   0.926   6.794  13.838
 9946SOL    HW231678   1.039   6.735  13.918
 9947SOL     OW31679  14.674   3.388   6.258
 9947SOL    HW131680  14.705   3.402   6.348
 9947SOL    HW231681  14.579   3.390   6.264
 9948SOL     OW31682  11.201  10.066  12.340
 9948SOL    HW131683  11.216   9.985  12.389
 9948SOL    HW231684  11.227  10.045  12.250
 9949SOL     OW31685  11.685   7.622   3.976
 9949SOL    HW131686  11.668   7.706   3.933
 9949SOL    HW231687  11.687   7.558   3.904
 9950SOL     OW31688   4.580  11.923   1.822
 9950SOL    HW131689   4.589  11.881   1.736
 9950SOL    HW231690   4.512  11.872   1.866
 9951SOL     OW31691  11.650   9.386   0.522
 9951SOL    HW131692  11.745   9.395   0.514
 9951SOL    HW231693  11.614   9.440   0.451
 9952SOL     OW31694  14.358   4.543   7.851
 9952SOL    HW131695  14.428   4.570   7.911
 9952SOL    HW231696  14.380   4.453   7.826
 9953SOL     OW31697  10.015  11.579   9.993
 9953SOL    HW131698  10.084  11.522  10.028
 9953SOL    HW231699   9.977  11.529   9.921
 9954SOL     OW31700  11.546   2.573   3.502
 9954SOL    HW131701  11.492   2.510   3.550
 9954SOL    HW231702  11.616   2.520   3.464
 9955SOL     OW31703   1.542   3.376   1.884
 9955SOL    HW131704   1.524   3.348   1.795
 9955SOL    HW231705   1.471   3.438   1.905
 9956SOL     OW31706   2.577  10.025  10.367
 9956SOL    HW131707   2.534   9.979  10.295
 9956SOL    HW231708   2.665   9.989  10.370
 9957SOL     OW31709  13.709   3.322   9.533
 9957SOL    HW131710  13.632   3.364   9.570
 9957SOL    HW231711  13.686   3.303   9.442
 9958SOL     OW31712  13.552   1.354   3.054
 9958SOL    HW131713  13.614   1.362   3.126
 9958SOL    HW231714  13.606   1.364   2.975
 9959SOL     OW31715   3.741  10.635   8.118
 9959SOL    HW131716   3.711  10.621   8.207
 9959SOL    HW231717   3.663  10.619   8.064
 9960SOL     OW31718   3.974   7.319  11.715
 9960SOL    HW131719   3.882   7.332  11.693
 9960SOL    HW231720   3.972   7.278  11.802
 9961SOL     OW31721  14.191   4.882  13.969
 9961SOL    HW131722  14.102   4.917  13.967
 9961SOL    HW231723  14.240   4.936  13.907
 9962SOL     OW31724   6.805   8.272   3.949
 9962SOL    HW131725   6.813   8.288   3.855
 9962SOL    HW231726   6.851   8.344   3.991
 9963SOL     OW31727   0.692   6.285   9.250
 9963SOL    HW131728   0.606   6.242   9.244
 9963SOL    HW231729   0.754   6.212   9.256
 9964SOL     OW31730   4.786  11.006   0.856
 9964SOL    HW131731   4.787  10.914   0.880
 9964SOL    HW231732   4.714  11.044   0.907
 9965SOL     OW31733  11.232  13.957   0.299
 9965SOL    HW131734  11.249  13.906   0.378
 9965SOL    HW231735  11.293  13.922   0.234
 9966SOL     OW31736   4.965  14.572   6.583
 9966SOL    HW131737   4.943  14.516   6.658
 9966SOL    HW231738   5.010  14.515   6.522
 9967SOL     OW31739   4.602   9.761  12.814
 9967SOL    HW131740   4.511   9.790  12.812
 9967SOL    HW231741   4.653   9.839  12.792
 9968SOL     OW31742   1.891  10.084   7.242
 9968SOL    HW131743   1.866   9.994   7.263
 9968SOL    HW231744   1.955  10.076   7.172
 9969SOL     OW31745   9.895   5.748  10.831
 9969SOL    HW131746   9.801   5.731  10.822
 9969SOL    HW231747   9.936   5.700  10.759
 9970SOL     OW31748   1.274   9.121   2.745
 9970SOL    HW131749   1.346   9.124   2.808
 9970SOL    HW231750   1.315   9.101   2.662
 9971SOL     OW31751   5.007   7.930   8.632
 9971SOL    HW131752   5.038   7.911   8.544
 9971SOL    HW231753   5.030   7.852   8.683
 9972SOL     OW31754  10.898   7.079   6.185
 9972SOL    HW131755  10.882   7.173   6.177
 9972SOL    HW231756  10.892   7.062   6.279
 9973SOL     OW31757   0.694   8.973   5.612
 9973SOL    HW131758   0.728   8.887   5.591
 9973SOL    HW231759   0.770   9.022   5.646
 9974SOL     OW31760   3.529   0.691   8.882
 9974SOL    HW131761   3.548   0.744   8.805
 9974SOL    HW231762   3.612   0.684   8.928
 9975SOL     OW31763   2.859   1.871   0.169
 9975SOL    HW131764   2.888   1.823   0.247
 9975SOL    HW231765   2.846   1.961   0.199
 9976SOL     OW31766  12.363   4.261   0.719
 9976SOL    HW131767  12.287   4.257   0.662
 9976SOL    HW231768  12.436   4.284   0.662
 9977SOL     OW31769  11.131  11.254  12.949
 9977SOL    HW131770  11.093  11.331  12.907
 9977SOL    HW231771  11.075  11.181  12.921
 9978SOL     OW31772   3.812  12.975  10.514
 9978SOL    HW131773   3.727  13.013  10.493
 9978SOL    HW231774   3.865  13.050  10.542
 9979SOL     OW31775   6.138  13.287  11.143
 9979SOL    HW131776   6.077  13.353  11.111
 9979SOL    HW231777   6.088  13.205  11.140
 9980SOL     OW31778  14.605   6.098  14.530
 9980SOL    HW131779  14.633   6.178  14.485
 9980SOL    HW231780  14.521   6.075  14.490
 9981SOL     OW31781   5.444   3.032  14.457
 9981SOL    HW131782   5.535   3.011  14.478
 9981SOL    HW231783   5.446   3.058  14.365
 9982SOL     OW31784   2.544  11.225   2.357
 9982SOL    HW131785   2.607  11.174   2.306
 9982SOL    HW231786   2.587  11.309   2.371
 9983SOL     OW31787   1.303   1.476   9.596
 9983SOL    HW131788   1.256   1.417   9.537
 9983SOL    HW231789   1.373   1.422   9.632
 9984SOL     OW31790   0.481   8.055   0.440
 9984SOL    HW131791   0.545   7.995   0.477
 9984SOL    HW231792   0.454   8.014   0.358
 9985SOL     OW31793   5.415   3.348   2.458
 9985SOL    HW131794   5.440   3.425   2.508
 9985SOL    HW231795   5.490   3.329   2.403
 9986SOL     OW31796   5.055   0.265   5.409
 9986SOL    HW131797   5.017   0.350   5.432
 9986SOL    HW231798   5.146   0.271   5.438
 9987SOL     OW31799   1.010   4.673   5.676
 9987SOL    HW131800   1.049   4.607   5.733
 9987SOL    HW231801   1.083   4.731   5.652
 9988SOL     OW31802   3.616   2.787   5.266
 9988SOL    HW131803   3.600   2.854   5.199
 9988SOL    HW231804   3.674   2.830   5.329
 9989SOL     OW31805   4.147  11.784   0.151
 9989SOL    HW131806   4.069  11.834   0.176
 9989SOL    HW231807   4.123  11.739   0.071
 9990SOL     OW31808   8.407  12.399  10.113
 9990SOL    HW131809   8.439  12.348  10.039
 9990SOL    HW231810   8.325  12.357  10.137
 9991SOL     OW31811   2.113  13.097  10.142
 9991SOL    HW131812   2.058  13.021  10.126
 9991SOL    HW231813   2.053  13.172  10.131
 9992SOL     OW31814   8.181   7.106   4.373
 9992SOL    HW131815   8.128   7.172   4.417
 9992SOL    HW231816   8.240   7.156   4.317
 9993SOL     OW31817   2.370   0.802  14.318
 9993SOL    HW131818   2.421   0.755  14.252
 9993SOL    HW231819   2.383   0.753  14.399
 9994SOL     OW31820   4.922  11.422   1.353
 9994SOL    HW131821   4.935  11.459   1.265
 9994SOL    HW231822   4.902  11.330   1.337
 9995SOL     OW31823  13.168  10.613   3.359
 9995SOL    HW131824  13.099  10.548   3.348
 9995SOL    HW231825  13.215  10.586   3.437
 9996SOL     OW31826   7.444   3.487  14.742
 9996SOL    HW131827   7.519   3.525  14.786
 9996SOL    HW231828   7.474   3.401  14.713
 9997SOL     OW31829  10.233   8.960  13.604
 9997SOL    HW131830  10.203   9.044  13.568
 9997SOL    HW231831  10.328   8.973  13.616
 9998SOL     OW31832   8.954  12.955  12.933
 9998SOL    HW131833   8.977  13.048  12.923
 9998SOL    HW231834   8.957  12.920  12.844
 9999SOL     OW31835   6.163   0.002   4.268
 9999SOL    HW131836   6.197  14.795   4.245
 9999SOL    HW231837   6.189   0.059   4.196
10000SOL     OW31838   4.121   1.286  13.863
10000SOL    HW131839   4.156   1.267  13.775
10000SOL    HW231840   4.178   1.236  13.922
10001SOL     OW31841  10.524   8.531   6.188
10001SOL    HW131842  10.572   8.570   6.115
10001SOL    HW231843  10.533   8.594   6.259
10002SOL     OW31844  14.196   6.463  12.217
10002SOL    HW131845  14.111   6.459  12.260
10002SOL    HW231846  14.251   6.402  12.266
10003SOL     OW31847  14.210  13.601   8.225
10003SOL    HW131848  14.289  13.595   8.278
10003SOL    HW231849  14.139  13.579   8.285
10004SOL     OW31850   5.239   6.874   7.331
10004SOL    HW131851   5.170   6.830   7.282
10004SOL    HW231852   5.284   6.803   7.376
10005SOL     OW31853   8.209   9.998   8.740
10005SOL    HW131854   8.234   9.995   8.648
10005SOL    HW231855   8.113  10.003   8.739
10006SOL     OW31856  11.532   7.987   0.127
10006SOL    HW131857  11.485   7.962   0.047
10006SOL    HW231858  11.566   7.905   0.162
10007SOL     OW31859   0.908   6.050   5.579
10007SOL    HW131860   0.915   6.145   5.573
10007SOL    HW231861   0.928   6.030   5.671
10008SOL     OW31862  11.873   3.545   1.864
10008SOL    HW131863  11.912   3.631   1.882
10008SOL    HW231864  11.827   3.522   1.944
10009SOL     OW31865   6.217   9.007   8.681
10009SOL    HW131866   6.226   8.947   8.755
10009SOL    HW231867   6.203   9.093   8.720
10010SOL     OW31868   8.412   9.453   3.239
10010SOL    HW131869   8.422   9.415   3.327
10010SOL    HW231870   8.371   9.384   3.188
10011SOL     OW31871   8.106  12.511  13.233
10011SOL    HW131872   8.158  12.476  13.160
10011SOL    HW231873   8.171  12.540  13.297
10012SOL     OW31874  14.600   4.852   0.154
10012SOL    HW131875  14.667   4.918   0.173
10012SOL    HW231876  14.616   4.828   0.063
10013SOL     OW31877  11.032  12.930  12.631
10013SOL    HW131878  11.081  13.003  12.667
10013SOL    HW231879  10.941  12.959  12.633
10014SOL     OW31880   3.035   5.608  11.921
10014SOL    HW131881   3.070   5.697  11.927
10014SOL    HW231882   3.065   5.565  12.001
10015SOL     OW31883   9.179  12.098   9.847
10015SOL    HW131884   9.094  12.073   9.812
10015SOL    HW231885   9.214  12.017   9.884
10016SOL     OW31886   2.113   6.933   5.649
10016SOL    HW131887   2.090   6.858   5.704
10016SOL    HW231888   2.052   6.929   5.576
10017SOL     OW31889  10.279   3.457   0.896
10017SOL    HW131890  10.234   3.541   0.882
10017SOL    HW231891  10.367   3.482   0.926
10018SOL     OW31892   5.012  11.263   2.237
10018SOL    HW131893   4.918  11.250   2.223
10018SOL    HW231894   5.025  11.357   2.227
10019SOL     OW31895  11.831   0.220   5.351
10019SOL    HW131896  11.777   0.195   5.426
10019SOL    HW231897  11.912   0.254   5.389
10020SOL     OW31898   8.797   0.380   4.404
10020SOL    HW131899   8.847   0.450   4.446
10020SOL    HW231900   8.847   0.300   4.423
10021SOL     OW31901   4.677   1.706   6.580
10021SOL    HW131902   4.596   1.711   6.530
10021SOL    HW231903   4.744   1.743   6.523
10022SOL     OW31904  14.473   4.081   6.253
10022SOL    HW131905  14.405   4.015   6.236
10022SOL    HW231906  14.428   4.165   6.241
10023SOL     OW31907  11.942   6.547   8.011
10023SOL    HW131908  11.894   6.487   8.068
10023SOL    HW231909  11.974   6.616   8.069
10024SOL     OW31910  14.036  12.785   1.935
10024SOL    HW131911  13.992  12.711   1.893
10024SOL    HW231912  14.089  12.746   2.004
10025SOL     OW31913   8.262   4.076   3.306
10025SOL    HW131914   8.284   4.031   3.388
10025SOL    HW231915   8.252   4.006   3.242
10026SOL     OW31916   8.348   3.700   3.617
10026SOL    HW131917   8.416   3.740   3.670
10026SOL    HW231918   8.393   3.635   3.564
10027SOL     OW31919  10.997  11.605  10.173
10027SOL    HW131920  11.003  11.699  10.188
10027SOL    HW231921  10.908  11.582  10.197
10028SOL     OW31922   4.990  11.430   3.179
10028SOL    HW131923   4.898  11.444   3.199
10028SOL    HW231924   5.021  11.513   3.143
10029SOL     OW31925  14.560  12.311   0.463
10029SOL    HW131926  14.602  12.394   0.486
10029SOL    HW231927  14.553  12.265   0.546
10030SOL     OW31928   3.147  10.178  14.865
10030SOL    HW131929   3.100  10.174   0.069
10030SOL    HW231930   3.159  10.087  14.840
10031SOL     OW31931   9.689  11.198   0.596
10031SOL    HW131932   9.679  11.267   0.531
10031SOL    HW231933   9.631  11.128   0.566
10032SOL     OW31934  12.426   2.878   6.565
10032SOL    HW131935  12.478   2.801   6.540
10032SOL    HW231936  12.366   2.845   6.632
10033SOL     OW31937  14.449   1.397   4.596
10033SOL    HW131938  14.415   1.434   4.514
10033SOL    HW231939  14.494   1.317   4.570
10034SOL     OW31940  14.128   9.523  11.644
10034SOL    HW131941  14.049   9.546  11.595
10034SOL    HW231942  14.186   9.598  11.632
10035SOL     OW31943  14.783  14.625  13.232
10035SOL    HW131944  14.718  14.604  13.165
10035SOL    HW231945  14.731  14.657  13.306
10036SOL     OW31946   2.126   8.310   2.045
10036SOL    HW131947   2.063   8.259   2.097
10036SOL    HW231948   2.210   8.268   2.061
10037SOL     OW31949   1.168  13.502  10.632
10037SOL    HW131950   1.216  13.554  10.696
10037SOL    HW231951   1.193  13.540  10.547
10038SOL     OW31952  14.648   2.042   4.982
10038SOL    HW131953  14.676   1.953   4.961
10038SOL    HW231954  14.552   2.038   4.983
10039SOL     OW31955   3.604   6.216  10.310
10039SOL    HW131956   3.691   6.218  10.349
10039SOL    HW231957   3.611   6.153  10.238
10040SOL     OW31958   4.255  13.271   1.386
10040SOL    HW131959   4.235  13.245   1.296
10040SOL    HW231960   4.348  13.294   1.383
10041SOL     OW31961   9.147  10.893   5.113
10041SOL    HW131962   9.185  10.972   5.151
10041SOL    HW231963   9.131  10.836   5.189
10042SOL     OW31964   0.914   9.748   9.435
10042SOL    HW131965   0.916   9.836   9.473
10042SOL    HW231966   0.956   9.692   9.501
10043SOL     OW31967  10.656  14.503  12.641
10043SOL    HW131968  10.566  14.534  12.630
10043SOL    HW231969  10.653  14.411  12.616
10044SOL     OW31970  14.247  11.815  10.098
10044SOL    HW131971  14.328  11.806  10.047
10044SOL    HW231972  14.235  11.910  10.107
10045SOL     OW31973   6.665  10.257  14.651
10045SOL    HW131974   6.662  10.191  14.721
10045SOL    HW231975   6.758  10.269  14.634
10046SOL     OW31976  14.139   5.089   8.661
10046SOL    HW131977  14.226   5.085   8.623
10046SOL    HW231978  14.097   5.162   8.616
10047SOL     OW31979  11.697   0.940   5.961
10047SOL    HW131980  11.690   0.905   6.050
10047SOL    HW231981  11.790   0.933   5.939
10048SOL     OW31982  11.462   8.327   7.209
10048SOL    HW131983  11.517   8.303   7.284
10048SOL    HW231984  11.523   8.371   7.149
10049SOL     OW31985   1.651   0.460  14.177
10049SOL    HW131986   1.688   0.376  14.149
10049SOL    HW231987   1.722   0.523  14.163
10050SOL     OW31988  12.209   6.882   0.600
10050SOL    HW131989  12.233   6.858   0.689
10050SOL    HW231990  12.133   6.827   0.580
10051SOL     OW31991   7.391   6.832   5.068
10051SOL    HW131992   7.318   6.886   5.099
10051SOL    HW231993   7.354   6.780   4.997
10052SOL     OW31994   0.455  11.805  12.487
10052SOL    HW131995   0.388  11.748  12.447
10052SOL    HW231996   0.427  11.814  12.578
10053SOL     OW31997   7.705   2.674   8.117
10053SOL    HW131998   7.686   2.630   8.200
10053SOL    HW231999   7.688   2.767   8.134
10054SOL     OW32000   0.161   6.773   4.938
10054SOL    HW132001   0.217   6.848   4.918
10054SOL    HW232002   0.074   6.799   4.909
10055SOL     OW32003   4.369   7.535   9.193
10055SOL    HW132004   4.402   7.615   9.153
10055SOL    HW232005   4.412   7.530   9.278
10056SOL     OW32006   3.955   3.536   8.614
10056SOL    HW132007   4.048   3.546   8.596
10056SOL    HW232008   3.919   3.624   8.612
10057SOL     OW32009   1.903  12.237   0.842
10057SOL    HW132010   1.809  12.229   0.859
10057SOL    HW232011   1.927  12.154   0.802
10058SOL     OW32012   2.306   9.373   7.781
10058SOL    HW132013   2.245   9.445   7.767
10058SOL    HW232014   2.357   9.399   7.857
10059SOL     OW32015   2.430   3.783   2.586
10059SOL    HW132016   2.439   3.732   2.667
10059SOL    HW232017   2.520   3.804   2.561
10060SOL     OW32018  13.460  14.182  10.531
10060SOL    HW132019  13.407  14.143  10.462
10060SOL    HW232020  13.550  14.175  10.499
10061SOL     OW32021   8.458   4.222   9.061
10061SOL    HW132022   8.529   4.244   9.002
10061SOL    HW232023   8.382   4.209   9.004
10062SOL     OW32024  13.875   3.749   0.717
10062SOL    HW132025  13.815   3.785   0.652
10062SOL    HW232026  13.833   3.667   0.745
10063SOL     OW32027  11.189   3.000  10.430
10063SOL    HW132028  11.181   3.004  10.525
10063SOL    HW232029  11.105   2.965  10.400
10064SOL     OW32030  14.797   9.288   2.624
10064SOL    HW132031  14.716   9.253   2.585
10064SOL    HW232032  14.866   9.258   2.566
10065SOL     OW32033   6.198   1.222   1.035
10065SOL    HW132034   6.198   1.305   1.083
10065SOL    HW232035   6.132   1.168   1.079
10066SOL     OW32036   0.807   4.292   1.246
10066SOL    HW132037   0.743   4.266   1.312
10066SOL    HW232038   0.792   4.231   1.173
10067SOL     OW32039  12.432   4.468   7.975
10067SOL    HW132040  12.506   4.439   7.921
10067SOL    HW232041  12.468   4.476   8.063
10068SOL     OW32042   9.578   4.264  12.835
10068SOL    HW132043   9.563   4.231  12.923
10068SOL    HW232044   9.521   4.340  12.827
10069SOL     OW32045  10.749  12.392   6.347
10069SOL    HW132046  10.657  12.373   6.367
10069SOL    HW232047  10.793  12.382   6.432
10070SOL     OW32048   2.145  14.326   5.516
10070SOL    HW132049   2.163  14.364   5.603
10070SOL    HW232050   2.231  14.296   5.486
10071SOL     OW32051  11.763   1.062   2.567
10071SOL    HW132052  11.796   0.973   2.580
10071SOL    HW232053  11.680   1.050   2.522
10072SOL     OW32054   6.766   1.996   9.622
10072SOL    HW132055   6.852   2.034   9.636
10072SOL    HW232056   6.770   1.960   9.533
10073SOL     OW32057   2.279  14.385   0.041
10073SOL    HW132058   2.263  14.292   0.056
10073SOL    HW232059   2.201  14.415  14.873
10074SOL     OW32060   5.338  13.747   7.903
10074SOL    HW132061   5.254  13.710   7.877
10074SOL    HW232062   5.401  13.712   7.840
10075SOL     OW32063   5.277   0.626  11.641
10075SOL    HW132064   5.219   0.652  11.712
10075SOL    HW232065   5.296   0.534  11.658
10076SOL     OW32066   2.098   4.078   0.325
10076SOL    HW132067   2.145   4.158   0.302
10076SOL    HW232068   2.047   4.102   0.403
10077SOL     OW32069  13.990  12.295  14.543
10077SOL    HW132070  13.988  12.207  14.581
10077SOL    HW232071  13.902  12.329  14.556
10078SOL     OW32072   7.863  10.902   4.306
10078SOL    HW132073   7.880  10.919   4.214
10078SOL    HW232074   7.816  10.980   4.337
10079SOL     OW32075   3.927   7.325  11.036
10079SOL    HW132076   3.992   7.281  10.980
10079SOL    HW232077   3.874   7.375  10.975
10080SOL     OW32078  12.842  14.333   7.182
10080SOL    HW132079  12.866  14.240   7.182
10080SOL    HW232080  12.925  14.379   7.189
10081SOL     OW32081   6.490   2.859  11.375
10081SOL    HW132082   6.563   2.890  11.428
10081SOL    HW232083   6.473   2.930  11.313
10082SOL     OW32084  14.000  12.433  12.780
10082SOL    HW132085  13.927  12.382  12.815
10082SOL    HW232086  14.076  12.404  12.832
10083SOL     OW32087   7.671   3.334  13.999
10083SOL    HW132088   7.725   3.323  14.078
10083SOL    HW232089   7.656   3.244  13.968
10084SOL     OW32090   6.123   7.110   2.332
10084SOL    HW132091   6.077   7.094   2.249
10084SOL    HW232092   6.211   7.136   2.306
10085SOL     OW32093  10.225  12.721   2.351
10085SOL    HW132094  10.176  12.643   2.325
10085SOL    HW232095  10.300  12.687   2.399
10086SOL     OW32096   1.236   0.660   3.395
10086SOL    HW132097   1.316   0.703   3.367
10086SOL    HW232098   1.173   0.731   3.407
10087SOL     OW32099  11.746   5.171   5.056
10087SOL    HW132100  11.815   5.237   5.062
10087SOL    HW232101  11.678   5.202   5.116
10088SOL     OW32102   0.695  11.401   9.119
10088SOL    HW132103   0.681  11.490   9.151
10088SOL    HW232104   0.634  11.393   9.045
10089SOL     OW32105   2.630   0.396   8.758
10089SOL    HW132106   2.652   0.318   8.810
10089SOL    HW232107   2.632   0.468   8.821
10090SOL     OW32108  10.586   3.736  14.101
10090SOL    HW132109  10.501   3.738  14.057
10090SOL    HW232110  10.630   3.659  14.065
10091SOL     OW32111   4.121   6.977   4.440
10091SOL    HW132112   4.158   6.894   4.410
10091SOL    HW232113   4.026   6.967   4.429
10092SOL     OW32114   6.122   4.091   2.370
10092SOL    HW132115   6.085   4.004   2.379
10092SOL    HW232116   6.217   4.077   2.368
10093SOL     OW32117   3.160  14.679  10.719
10093SOL    HW132118   3.210  14.597  10.714
10093SOL    HW232119   3.098  14.674  10.646
10094SOL     OW32120   5.738   9.754  11.727
10094SOL    HW132121   5.755   9.820  11.659
10094SOL    HW232122   5.731   9.672  11.679
10095SOL     OW32123   7.186  14.787   0.684
10095SOL    HW132124   7.272  14.749   0.701
10095SOL    HW232125   7.155  14.742   0.605
10096SOL     OW32126   5.501   4.874   3.132
10096SOL    HW132127   5.423   4.928   3.120
10096SOL    HW232128   5.535   4.860   3.044
10097SOL     OW32129   3.668  10.679   9.184
10097SOL    HW132130   3.727  10.728   9.126
10097SOL    HW232131   3.619  10.747   9.230
10098SOL     OW32132   0.412   0.325   0.143
10098SOL    HW132133   0.333   0.337   0.091
10098SOL    HW232134   0.400   0.240   0.186
10099SOL     OW32135   8.112   3.095   7.362
10099SOL    HW132136   8.147   3.038   7.294
10099SOL    HW232137   8.020   3.106   7.340
10100SOL     OW32138  12.376  14.190   5.164
10100SOL    HW132139  12.300  14.239   5.133
10100SOL    HW232140  12.355  14.168   5.255
10101SOL     OW32141   2.031  12.122  11.833
10101SOL    HW132142   1.983  12.048  11.796
10101SOL    HW232143   1.999  12.129  11.923
10102SOL     OW32144   5.532  13.982   0.491
10102SOL    HW132145   5.489  14.029   0.420
10102SOL    HW232146   5.605  14.038   0.516
10103SOL     OW32147  12.366   3.379  10.203
10103SOL    HW132148  12.300   3.325  10.160
10103SOL    HW232149  12.449   3.337  10.182
10104SOL     OW32150   1.612   0.579   2.292
10104SOL    HW132151   1.597   0.652   2.351
10104SOL    HW232152   1.556   0.509   2.325
10105SOL     OW32153  12.050   3.450   5.589
10105SOL    HW132154  11.965   3.467   5.630
10105SOL    HW232155  12.086   3.376   5.639
10106SOL     OW32156   2.060  11.914  14.501
10106SOL    HW132157   2.124  11.982  14.523
10106SOL    HW232158   2.008  11.905  14.581
10107SOL     OW32159   3.967   5.739   8.736
10107SOL    HW132160   3.967   5.646   8.759
10107SOL    HW232161   4.031   5.778   8.794
10108SOL     OW32162   8.636  10.604   3.766
10108SOL    HW132163   8.567  10.581   3.703
10108SOL    HW232164   8.717  10.577   3.724
10109SOL     OW32165  11.710   4.365  12.662
10109SOL    HW132166  11.669   4.387  12.745
10109SOL    HW232167  11.655   4.409  12.596
10110SOL     OW32168  13.303  10.404   1.155
10110SOL    HW132169  13.252  10.390   1.235
10110SOL    HW232170  13.276  10.332   1.098
10111SOL     OW32171   3.314   3.643   5.622
10111SOL    HW132172   3.370   3.666   5.696
10111SOL    HW232173   3.234   3.694   5.636
10112SOL     OW32174  12.499  10.566  10.416
10112SOL    HW132175  12.482  10.614  10.498
10112SOL    HW232176  12.452  10.616  10.349
10113SOL     OW32177  11.881   4.675   1.319
10113SOL    HW132178  11.787   4.674   1.335
10113SOL    HW232179  11.919   4.708   1.400
10114SOL     OW32180  11.825   1.556   5.295
10114SOL    HW132181  11.919   1.554   5.278
10114SOL    HW232182  11.800   1.463   5.299
10115SOL     OW32183  10.834  11.315  10.424
10115SOL    HW132184  10.919  11.358  10.435
10115SOL    HW232185  10.829  11.298  10.330
10116SOL     OW32186   0.777   8.992  13.028
10116SOL    HW132187   0.788   9.065  12.967
10116SOL    HW232188   0.860   8.988  13.075
10117SOL     OW32189   2.907   1.785   9.711
10117SOL    HW132190   2.835   1.822   9.659
10117SOL    HW232191   2.864   1.729   9.775
10118SOL     OW32192  11.106   4.318  10.847
10118SOL    HW132193  11.116   4.346  10.756
10118SOL    HW232194  11.031   4.368  10.880
10119SOL     OW32195  14.337   3.260   4.017
10119SOL    HW132196  14.425   3.298   4.018
10119SOL    HW232197  14.328   3.223   3.929
10120SOL     OW32198  12.270   2.169   2.101
10120SOL    HW132199  12.337   2.101   2.114
10120SOL    HW232200  12.200   2.144   2.161
10121SOL     OW32201   2.516  13.655   1.521
10121SOL    HW132202   2.541  13.588   1.458
10121SOL    HW232203   2.492  13.730   1.467
10122SOL     OW32204   9.466   0.868   3.882
10122SOL    HW132205   9.425   0.849   3.798
10122SOL    HW232206   9.393   0.889   3.941
10123SOL     OW32207   2.119   7.813   0.413
10123SOL    HW132208   2.139   7.784   0.502
10123SOL    HW232209   2.202   7.848   0.381
10124SOL     OW32210   5.362  12.394  13.490
10124SOL    HW132211   5.397  12.463  13.433
10124SOL    HW232212   5.357  12.317  13.434
10125SOL     OW32213   4.047   1.983  13.544
10125SOL    HW132214   4.061   2.006  13.636
10125SOL    HW232215   4.135   1.962  13.512
10126SOL     OW32216  13.710   0.676   2.524
10126SOL    HW132217  13.732   0.586   2.500
10126SOL    HW232218  13.667   0.668   2.609
10127SOL     OW32219   4.703  13.397   1.154
10127SOL    HW132220   4.737  13.393   1.064
10127SOL    HW232221   4.760  13.460   1.198
10128SOL     OW32222  11.402   6.615  10.484
10128SOL    HW132223  11.379   6.523  10.496
10128SOL    HW232224  11.496   6.614  10.467
10129SOL     OW32225   0.213  14.512  10.820
10129SOL    HW132226   0.253  14.438  10.867
10129SOL    HW232227   0.188  14.475  10.735
10130SOL     OW32228  11.396  10.699   5.985
10130SOL    HW132229  11.319  10.695   6.042
10130SOL    HW232230  11.401  10.612   5.946
10131SOL     OW32231  10.815   5.363   9.541
10131SOL    HW132232  10.882   5.295   9.526
10131SOL    HW232233  10.836   5.399   9.627
10132SOL     OW32234  11.013   7.984   0.073
10132SOL    HW132235  10.983   7.924   0.004
10132SOL    HW232236  11.100   8.012   0.043
10133SOL     OW32237  11.923   0.765  14.509
10133SOL    HW132238  11.985   0.696  14.487
10133SOL    HW232239  11.942   0.835  14.446
10134SOL     OW32240   7.971  10.879   5.485
10134SOL    HW132241   8.043  10.857   5.544
10134SOL    HW232242   8.014  10.915   5.407
10135SOL     OW32243  12.435  14.261  13.596
10135SOL    HW132244  12.477  14.193  13.648
10135SOL    HW232245  12.507  14.317  13.566
10136SOL     OW32246   5.430   5.900   5.032
10136SOL    HW132247   5.443   5.838   4.960
10136SOL    HW232248   5.416   5.845   5.109
10137SOL     OW32249   3.787   9.884  13.188
10137SOL    HW132250   3.780   9.977  13.168
10137SOL    HW232251   3.795   9.881  13.284
10138SOL     OW32252   7.499  10.540  14.361
10138SOL    HW132253   7.421  10.525  14.307
10138SOL    HW232254   7.571  10.503  14.310
10139SOL     OW32255   4.237   5.935  11.362
10139SOL    HW132256   4.248   5.972  11.449
10139SOL    HW232257   4.251   6.009  11.303
10140SOL     OW32258   1.433  12.931   5.029
10140SOL    HW132259   1.422  12.949   5.122
10140SOL    HW232260   1.528  12.925   5.017
10141SOL     OW32261   0.738   2.076   2.518
10141SOL    HW132262   0.728   2.150   2.459
10141SOL    HW232263   0.714   2.109   2.604
10142SOL     OW32264   0.147   4.586   6.172
10142SOL    HW132265   0.166   4.664   6.225
10142SOL    HW232266   0.131   4.517   6.235
10143SOL     OW32267   7.713   1.888   4.271
10143SOL    HW132268   7.791   1.853   4.314
10143SOL    HW232269   7.661   1.927   4.342
10144SOL     OW32270   9.497  13.763   8.944
10144SOL    HW132271   9.434  13.733   8.879
10144SOL    HW232272   9.568  13.801   8.893
10145SOL     OW32273   2.874   0.108  14.006
10145SOL    HW132274   2.833   0.172  14.064
10145SOL    HW232275   2.930   0.055  14.063
10146SOL     OW32276   1.155   1.579   0.158
10146SOL    HW132277   1.151   1.656   0.101
10146SOL    HW232278   1.175   1.506   0.099
10147SOL     OW32279   1.234   1.898   6.211
10147SOL    HW132280   1.306   1.846   6.247
10147SOL    HW232281   1.277   1.972   6.169
10148SOL     OW32282   2.830   6.560   9.861
10148SOL    HW132283   2.791   6.561   9.774
10148SOL    HW232284   2.799   6.641   9.902
10149SOL     OW32285   1.099   2.065  13.953
10149SOL    HW132286   1.176   2.066  13.896
10149SOL    HW232287   1.135   2.048  14.041
10150SOL     OW32288  12.482  14.740   9.658
10150SOL    HW132289  12.403  14.690   9.680
10150SOL    HW232290  12.517  14.696   9.580
10151SOL     OW32291  14.187  13.772   5.402
10151SOL    HW132292  14.197  13.708   5.331
10151SOL    HW232293  14.148  13.848   5.361
10152SOL     OW32294   2.885  10.180   7.535
10152SOL    HW132295   2.889  10.175   7.630
10152SOL    HW232296   2.976  10.181   7.507
10153SOL     OW32297   8.011  13.535   1.055
10153SOL    HW132298   8.032  13.495   1.140
10153SOL    HW232299   8.092  13.580   1.029
10154SOL     OW32300  14.578  12.866  10.754
10154SOL    HW132301  14.601  12.878  10.846
10154SOL    HW232302  14.499  12.919  10.742
10155SOL     OW32303   0.822   3.127  12.238
10155SOL    HW132304   0.884   3.143  12.309
10155SOL    HW232305   0.736   3.150  12.274
10156SOL     OW32306  14.783   3.703  11.858
10156SOL    HW132307  14.719   3.769  11.831
10156SOL    HW232308  14.764   3.627  11.803
10157SOL     OW32309   3.814  12.387   5.908
10157SOL    HW132310   3.760  12.401   5.986
10157SOL    HW232311   3.889  12.445   5.920
10158SOL     OW32312   5.726  13.429  13.291
10158SOL    HW132313   5.687  13.343  13.281
10158SOL    HW232314   5.808  13.414  13.338
10159SOL     OW32315  12.589   1.980   6.138
10159SOL    HW132316  12.649   2.055   6.133
10159SOL    HW232317  12.503   2.017   6.121
10160SOL     OW32318   8.318   1.062   0.681
10160SOL    HW132319   8.384   1.132   0.672
10160SOL    HW232320   8.252   1.098   0.740
10161SOL     OW32321   4.989   8.269  14.284
10161SOL    HW132322   5.022   8.254  14.372
10161SOL    HW232323   5.060   8.315  14.239
10162SOL     OW32324   2.063   0.078   7.747
10162SOL    HW132325   2.050   0.007   7.810
10162SOL    HW232326   2.133   0.131   7.785
10163SOL     OW32327   9.527  13.899   4.055
10163SOL    HW132328   9.555  13.883   3.965
10163SOL    HW232329   9.436  13.928   4.047
10164SOL     OW32330   3.500   8.672   6.035
10164SOL    HW132331   3.564   8.738   6.062
10164SOL    HW232332   3.553   8.595   6.014
10165SOL     OW32333   1.501   7.847  11.412
10165SOL    HW132334   1.420   7.817  11.370
10165SOL    HW232335   1.478   7.858  11.504
10166SOL     OW32336  10.550   9.518   8.486
10166SOL    HW132337  10.482   9.547   8.426
10166SOL    HW232338  10.568   9.595   8.540
10167SOL     OW32339   6.279   9.178   2.818
10167SOL    HW132340   6.204   9.167   2.759
10167SOL    HW232341   6.270   9.106   2.882
10168SOL     OW32342   4.851   1.973  10.207
10168SOL    HW132343   4.850   1.890  10.159
10168SOL    HW232344   4.763   1.983  10.242
10169SOL     OW32345  11.929   3.081  12.651
10169SOL    HW132346  11.875   3.031  12.713
10169SOL    HW232347  11.880   3.079  12.569
10170SOL     OW32348  12.700  11.502  13.397
10170SOL    HW132349  12.632  11.516  13.331
10170SOL    HW232350  12.679  11.563  13.467
10171SOL     OW32351   2.703  13.290   0.708
10171SOL    HW132352   2.669  13.325   0.790
10171SOL    HW232353   2.628  13.248   0.666
10172SOL     OW32354   0.826   7.862   8.104
10172SOL    HW132355   0.894   7.810   8.145
10172SOL    HW232356   0.872   7.916   8.040
10173SOL     OW32357  13.273   0.421   8.073
10173SOL    HW132358  13.194   0.473   8.089
10173SOL    HW232359  13.243   0.347   8.020
10174SOL     OW32360   8.478  14.559  11.496
10174SOL    HW132361   8.439  14.634  11.452
10174SOL    HW232362   8.465  14.575  11.589
10175SOL     OW32363   3.033   8.435  11.512
10175SOL    HW132364   2.955   8.482  11.482
10175SOL    HW232365   3.001   8.349  11.538
10176SOL     OW32366   1.767   2.853   6.897
10176SOL    HW132367   1.754   2.777   6.954
10176SOL    HW232368   1.860   2.851   6.876
10177SOL     OW32369   1.923   1.010   6.305
10177SOL    HW132370   1.970   0.940   6.350
10177SOL    HW232371   1.983   1.085   6.307
10178SOL     OW32372   5.563   7.421   3.448
10178SOL    HW132373   5.570   7.515   3.466
10178SOL    HW232374   5.472   7.400   3.464
10179SOL     OW32375   9.511   1.187   3.933
10179SOL    HW132376   9.433   1.139   3.961
10179SOL    HW232377   9.584   1.128   3.953
10180SOL     OW32378  14.377   3.974  13.927
10180SOL    HW132379  14.386   4.066  13.902
10180SOL    HW232380  14.439   3.928  13.870
10181SOL     OW32381  13.859   8.423   9.989
10181SOL    HW132382  13.882   8.337  10.024
10181SOL    HW232383  13.871   8.414   9.894
10182SOL     OW32384   2.129   8.460   0.368
10182SOL    HW132385   2.092   8.415   0.444
10182SOL    HW232386   2.103   8.405   0.293
10183SOL     OW32387   6.602   8.407   5.876
10183SOL    HW132388   6.681   8.417   5.822
10183SOL    HW232389   6.612   8.470   5.946
10184SOL     OW32390   1.275   1.385   8.868
10184SOL    HW132391   1.256   1.428   8.952
10184SOL    HW232392   1.189   1.357   8.836
10185SOL     OW32393   7.840   5.177  10.758
10185SOL    HW132394   7.826   5.250  10.819
10185SOL    HW232395   7.934   5.160  10.762
10186SOL     OW32396   9.423   0.516   8.971
10186SOL    HW132397   9.403   0.497   9.063
10186SOL    HW232398   9.359   0.583   8.946
10187SOL     OW32399   5.803   1.741   0.784
10187SOL    HW132400   5.796   1.677   0.714
10187SOL    HW232401   5.832   1.691   0.860
10188SOL     OW32402  13.476  11.291   5.658
10188SOL    HW132403  13.397  11.242   5.683
10188SOL    HW232404  13.450  11.383   5.667
10189SOL     OW32405   2.128   6.775  14.762
10189SOL    HW132406   2.199   6.801  14.703
10189SOL    HW232407   2.137   6.680  14.769
10190SOL     OW32408  14.286   4.108  11.639
10190SOL    HW132409  14.366   4.110  11.587
10190SOL    HW232410  14.262   4.200  11.650
10191SOL     OW32411   4.729   1.469   8.299
10191SOL    HW132412   4.793   1.530   8.262
10191SOL    HW232413   4.764   1.382   8.278
10192SOL     OW32414   4.910   4.099   0.641
10192SOL    HW132415   4.956   4.029   0.593
10192SOL    HW232416   4.893   4.061   0.727
10193SOL     OW32417   5.900  13.789   8.630
10193SOL    HW132418   5.915  13.791   8.536
10193SOL    HW232419   5.840  13.862   8.646
10194SOL     OW32420   7.293   5.198   2.716
10194SOL    HW132421   7.234   5.261   2.675
10194SOL    HW232422   7.375   5.205   2.666
10195SOL     OW32423  12.079   9.658   1.950
10195SOL    HW132424  12.049   9.577   1.992
10195SOL    HW232425  12.085   9.636   1.857
10196SOL     OW32426   2.185   3.564   9.073
10196SOL    HW132427   2.092   3.547   9.086
10196SOL    HW232428   2.217   3.489   9.024
10197SOL     OW32429   2.596   8.309   1.985
10197SOL    HW132430   2.518   8.307   1.930
10197SOL    HW232431   2.596   8.224   2.030
10198SOL     OW32432  10.158   8.917  13.177
10198SOL    HW132433  10.240   8.869  13.164
10198SOL    HW232434  10.173   9.003  13.138
10199SOL     OW32435   3.821   3.624  10.379
10199SOL    HW132436   3.894   3.643  10.439
10199SOL    HW232437   3.824   3.694  10.315
10200SOL     OW32438   8.424   3.616   7.854
10200SOL    HW132439   8.480   3.555   7.902
10200SOL    HW232440   8.374   3.561   7.794
10201SOL     OW32441   4.253   3.015  10.660
10201SOL    HW132442   4.258   2.954  10.586
10201SOL    HW232443   4.159   3.025  10.675
10202SOL     OW32444  12.765  11.242  13.191
10202SOL    HW132445  12.776  11.182  13.117
10202SOL    HW232446  12.789  11.190  13.267
10203SOL     OW32447   5.656   8.713   9.031
10203SOL    HW132448   5.570   8.735   8.995
10203SOL    HW232449   5.718   8.755   8.972
10204SOL     OW32450   9.272  13.309  11.315
10204SOL    HW132451   9.260  13.334  11.407
10204SOL    HW232452   9.309  13.221  11.319
10205SOL     OW32453  10.988  12.255  11.242
10205SOL    HW132454  10.962  12.300  11.322
10205SOL    HW232455  10.953  12.166  11.251
10206SOL     OW32456   8.036   9.993   5.455
10206SOL    HW132457   7.950  10.033   5.441
10206SOL    HW232458   8.032   9.911   5.405
10207SOL     OW32459   3.448   8.430   4.266
10207SOL    HW132460   3.531   8.473   4.245
10207SOL    HW232461   3.462   8.394   4.354
10208SOL     OW32462   0.856  11.966   0.500
10208SOL    HW132463   0.899  11.941   0.419
10208SOL    HW232464   0.914  11.935   0.569
10209SOL     OW32465   7.212   6.860   2.532
10209SOL    HW132466   7.286   6.887   2.478
10209SOL    HW232467   7.252   6.824   2.612
10210SOL     OW32468   7.682   0.258   8.672
10210SOL    HW132469   7.626   0.233   8.746
10210SOL    HW232470   7.772   0.250   8.707
10211SOL     OW32471   0.678   0.388   3.339
10211SOL    HW132472   0.689   0.431   3.424
10211SOL    HW232473   0.704   0.455   3.275
10212SOL     OW32474  12.203  13.514   5.657
10212SOL    HW132475  12.115  13.552   5.655
10212SOL    HW232476  12.208  13.471   5.742
10213SOL     OW32477   3.283  10.350  10.039
10213SOL    HW132478   3.315  10.305   9.960
10213SOL    HW232479   3.188  10.344  10.034
10214SOL     OW32480   7.708   8.065  14.168
10214SOL    HW132481   7.704   8.129  14.239
10214SOL    HW232482   7.651   8.100  14.100
10215SOL     OW32483   9.910   9.848   9.430
10215SOL    HW132484   9.874   9.905   9.497
10215SOL    HW232485   9.843   9.845   9.361
10216SOL     OW32486  12.253   7.341  14.797
10216SOL    HW132487  12.235   7.314   0.008
10216SOL    HW232488  12.186   7.406  14.777
10217SOL     OW32489   9.797   2.597  14.310
10217SOL    HW132490   9.767   2.583  14.400
10217SOL    HW232491   9.719   2.583  14.257
10218SOL     OW32492   2.889  14.342   0.035
10218SOL    HW132493   2.888  14.392   0.116
10218SOL    HW232494   2.945  14.266   0.053
10219SOL     OW32495   8.941  11.721   8.940
10219SOL    HW132496   8.940  11.796   9.000
10219SOL    HW232497   9.034  11.711   8.918
10220SOL     OW32498   9.720   9.277   3.105
10220SOL    HW132499   9.625   9.268   3.103
10220SOL    HW232500   9.751   9.195   3.145
10221SOL     OW32501  11.960   2.645  14.454
10221SOL    HW132502  11.919   2.655  14.540
10221SOL    HW232503  12.003   2.559  14.458
10222SOL     OW32504   2.078   7.756   2.188
10222SOL    HW132505   2.052   7.690   2.123
10222SOL    HW232506   2.150   7.803   2.147
10223SOL     OW32507   7.516  13.746   8.820
10223SOL    HW132508   7.488  13.778   8.905
10223SOL    HW232509   7.487  13.813   8.758
10224SOL     OW32510   0.458   4.529   8.523
10224SOL    HW132511   0.363   4.532   8.530
10224SOL    HW232512   0.480   4.593   8.456
10225SOL     OW32513   2.355   3.560  13.259
10225SOL    HW132514   2.375   3.573  13.352
10225SOL    HW232515   2.271   3.514  13.258
10226SOL     OW32516  14.828   2.944   8.116
10226SOL    HW132517  14.807   3.037   8.107
10226SOL    HW232518  14.876   2.923   8.037
10227SOL     OW32519  12.107   8.536   9.483
10227SOL    HW132520  12.026   8.582   9.506
10227SOL    HW232521  12.114   8.466   9.549
10228SOL     OW32522   6.770   1.405   9.708
10228SOL    HW132523   6.858   1.440   9.723
10228SOL    HW232524   6.768   1.388   9.613
10229SOL     OW32525  10.625  14.561   6.726
10229SOL    HW132526  10.716  14.567   6.697
10229SOL    HW232527  10.598  14.472   6.704
10230SOL     OW32528   9.998  11.601   6.892
10230SOL    HW132529  10.044  11.641   6.967
10230SOL    HW232530  10.035  11.646   6.816
10231SOL     OW32531   0.192   2.365  10.833
10231SOL    HW132532   0.188   2.419  10.754
10231SOL    HW232533   0.171   2.277  10.803
10232SOL     OW32534   2.744  12.093   0.889
10232SOL    HW132535   2.835  12.065   0.888
10232SOL    HW232536   2.743  12.173   0.941
10233SOL     OW32537  12.259  13.748   3.762
10233SOL    HW132538  12.332  13.715   3.814
10233SOL    HW232539  12.213  13.807   3.822
10234SOL     OW32540   3.237   0.242   9.743
10234SOL    HW132541   3.231   0.256   9.838
10234SOL    HW232542   3.169   0.299   9.706
10235SOL     OW32543   4.092  14.865   3.346
10235SOL    HW132544   4.071  14.790   3.290
10235SOL    HW232545   4.059   0.061   3.298
10236SOL     OW32546   0.149   7.494   3.569
10236SOL    HW132547   0.238   7.493   3.604
10236SOL    HW232548   0.155   7.443   3.488
10237SOL     OW32549   8.276   4.612   4.030
10237SOL    HW132550   8.232   4.580   3.951
10237SOL    HW232551   8.367   4.626   4.002
10238SOL     OW32552   0.052   8.987   1.985
10238SOL    HW132553   0.079   8.948   2.068
10238SOL    HW232554   0.109   8.945   1.920
10239SOL     OW32555  12.423   4.782  14.452
10239SOL    HW132556  12.363   4.738  14.392
10239SOL    HW232557  12.486   4.713  14.476
10240SOL     OW32558  12.551   0.595   3.715
10240SOL    HW132559  12.559   0.536   3.640
10240SOL    HW232560  12.482   0.556   3.769
10241SOL     OW32561   0.466  10.274   3.968
10241SOL    HW132562   0.486  10.356   3.924
10241SOL    HW232563   0.375  10.284   3.997
10242SOL     OW32564   1.173   6.531   4.342
10242SOL    HW132565   1.268   6.525   4.333
10242SOL    HW232566   1.151   6.467   4.410
10243SOL     OW32567   1.257   5.049   3.673
10243SOL    HW132568   1.162   5.044   3.681
10243SOL    HW232569   1.273   5.128   3.622
10244SOL     OW32570   0.153  11.879   5.779
10244SOL    HW132571   0.124  11.925   5.700
10244SOL    HW232572   0.242  11.911   5.793
10245SOL     OW32573   8.135   3.397   2.262
10245SOL    HW132574   8.111   3.489   2.250
10245SOL    HW232575   8.052   3.350   2.263
10246SOL     OW32576   9.472  10.202  10.063
10246SOL    HW132577   9.548  10.151  10.091
10246SOL    HW232578   9.405  10.136  10.044
10247SOL     OW32579  13.923   8.007  10.692
10247SOL    HW132580  13.933   8.080  10.752
10247SOL    HW232581  13.861   7.948  10.735
10248SOL     OW32582   6.303   5.212   2.232
10248SOL    HW132583   6.321   5.293   2.279
10248SOL    HW232584   6.352   5.145   2.281
10249SOL     OW32585  14.421   8.438   3.648
10249SOL    HW132586  14.481   8.480   3.587
10249SOL    HW232587  14.461   8.452   3.734
10250SOL     OW32588  14.175   7.804   6.527
10250SOL    HW132589  14.264   7.817   6.494
10250SOL    HW232590  14.159   7.711   6.516
10251SOL     OW32591  11.204   5.895   1.588
10251SOL    HW132592  11.257   5.875   1.511
10251SOL    HW232593  11.142   5.962   1.558
10252SOL     OW32594   1.240   3.458   5.756
10252SOL    HW132595   1.235   3.381   5.700
10252SOL    HW232596   1.154   3.464   5.797
10253SOL     OW32597   5.738   3.018   1.274
10253SOL    HW132598   5.719   3.089   1.336
10253SOL    HW232599   5.686   2.944   1.305
10254SOL     OW32600   8.798  10.898   6.988
10254SOL    HW132601   8.889  10.877   6.967
10254SOL    HW232602   8.791  10.882   7.082
10255SOL     OW32603  11.120   6.840  13.379
10255SOL    HW132604  11.037   6.888  13.390
10255SOL    HW232605  11.160   6.880  13.302
10256SOL     OW32606  10.936  12.005  14.307
10256SOL    HW132607  10.915  11.981  14.397
10256SOL    HW232608  10.965  12.096  14.312
10257SOL     OW32609  10.190  10.608   6.713
10257SOL    HW132610  10.253  10.604   6.641
10257SOL    HW232611  10.239  10.648   6.785
10258SOL     OW32612   7.507   1.002   1.574
10258SOL    HW132613   7.513   0.943   1.650
10258SOL    HW232614   7.596   1.036   1.563
10259SOL     OW32615  13.883  13.771   9.328
10259SOL    HW132616  13.833  13.728   9.397
10259SOL    HW232617  13.963  13.801   9.371
10260SOL     OW32618  14.165   2.804  14.861
10260SOL    HW132619  14.166   2.763   0.068
10260SOL    HW232620  14.246   2.855  14.857
10261SOL     OW32621   7.259   0.357   5.207
10261SOL    HW132622   7.220   0.411   5.139
10261SOL    HW232623   7.187   0.305   5.242
10262SOL     OW32624  11.720   5.663  14.687
10262SOL    HW132625  11.792   5.699  14.636
10262SOL    HW232626  11.641   5.691  14.640
10263SOL     OW32627  11.195  10.548  10.081
10263SOL    HW132628  11.222  10.465  10.121
10263SOL    HW232629  11.141  10.591  10.147
10264SOL     OW32630   5.566   4.963   4.259
10264SOL    HW132631   5.544   4.870   4.261
10264SOL    HW232632   5.483   5.008   4.278
10265SOL     OW32633   6.666   5.429   9.129
10265SOL    HW132634   6.747   5.383   9.107
10265SOL    HW232635   6.693   5.499   9.189
10266SOL     OW32636   5.452   9.444   8.059
10266SOL    HW132637   5.540   9.467   8.088
10266SOL    HW232638   5.447   9.476   7.969
10267SOL     OW32639   9.170  12.643   6.284
10267SOL    HW132640   9.248  12.589   6.297
10267SOL    HW232641   9.174  12.668   6.192
10268SOL     OW32642   1.923  13.696   7.283
10268SOL    HW132643   1.961  13.754   7.217
10268SOL    HW232644   1.998  13.657   7.327
10269SOL     OW32645   8.016   8.140  10.384
10269SOL    HW132646   8.046   8.225  10.352
10269SOL    HW232647   7.928   8.130  10.350
10270SOL     OW32648   0.400   8.574   3.385
10270SOL    HW132649   0.322   8.546   3.337
10270SOL    HW232650   0.468   8.581   3.318
10271SOL     OW32651   4.703  11.848   9.518
10271SOL    HW132652   4.621  11.896   9.528
10271SOL    HW232653   4.771  11.915   9.513
10272SOL     OW32654   0.271   5.231   6.314
10272SOL    HW132655   0.203   5.182   6.268
10272SOL    HW232656   0.278   5.313   6.266
10273SOL     OW32657   2.659   2.366   6.300
10273SOL    HW132658   2.612   2.333   6.376
10273SOL    HW232659   2.646   2.461   6.303
10274SOL     OW32660   0.129  13.511  10.498
10274SOL    HW132661   0.191  13.438  10.497
10274SOL    HW232662   0.181  13.587  10.474
10275SOL     OW32663   7.854  10.860   7.089
10275SOL    HW132664   7.855  10.912   7.170
10275SOL    HW232665   7.765  10.827   7.083
10276SOL     OW32666   0.970  14.344   5.203
10276SOL    HW132667   1.022  14.263   5.203
10276SOL    HW232668   0.925  14.343   5.288
10277SOL     OW32669   4.582   1.607  11.770
10277SOL    HW132670   4.522   1.674  11.738
10277SOL    HW232671   4.537   1.524  11.751
10278SOL     OW32672  13.348   6.614   5.850
10278SOL    HW132673  13.331   6.620   5.944
10278SOL    HW232674  13.264   6.635   5.809
10279SOL     OW32675   1.671  10.425   3.973
10279SOL    HW132676   1.605  10.386   3.915
10279SOL    HW232677   1.678  10.363   4.046
10280SOL     OW32678  12.119   9.751   4.275
10280SOL    HW132679  12.055   9.733   4.206
10280SOL    HW232680  12.068   9.751   4.356
10281SOL     OW32681   3.234   5.798  11.864
10281SOL    HW132682   3.153   5.837  11.833
10281SOL    HW232683   3.290   5.873  11.886
10282SOL     OW32684   6.706  10.732  14.155
10282SOL    HW132685   6.761  10.655  14.143
10282SOL    HW232686   6.616  10.697  14.151
10283SOL     OW32687   9.187  12.037  11.394
10283SOL    HW132688   9.207  11.960  11.447
10283SOL    HW232689   9.233  12.109  11.437
10284SOL     OW32690   7.879   3.350  14.835
10284SOL    HW132691   7.944   3.296  14.791
10284SOL    HW232692   7.921   3.436  14.844
10285SOL     OW32693   9.358  11.665   6.637
10285SOL    HW132694   9.391  11.591   6.586
10285SOL    HW232695   9.319  11.626   6.715
10286SOL     OW32696   9.194  10.745   7.285
10286SOL    HW132697   9.217  10.776   7.372
10286SOL    HW232698   9.107  10.783   7.269
10287SOL     OW32699   2.997   8.042  14.268
10287SOL    HW132700   3.088   8.068  14.283
10287SOL    HW232701   3.001   7.978  14.197
10288SOL     OW32702  13.891  12.014   0.894
10288SOL    HW132703  13.858  12.071   0.825
10288SOL    HW232704  13.918  11.934   0.849
10289SOL     OW32705  12.614   4.730  13.732
10289SOL    HW132706  12.572   4.740  13.817
10289SOL    HW232707  12.545   4.749  13.669
10290SOL     OW32708  10.094  12.037   5.018
10290SOL    HW132709  10.086  12.093   5.095
10290SOL    HW232710  10.042  11.960   5.039
10291SOL     OW32711  10.216   4.470   8.117
10291SOL    HW132712  10.190   4.438   8.031
10291SOL    HW232713  10.304   4.436   8.130
10292SOL     OW32714   5.194   0.960  13.701
10292SOL    HW132715   5.099   0.968  13.693
10292SOL    HW232716   5.209   0.939  13.793
10293SOL     OW32717  11.396   1.405  13.775
10293SOL    HW132718  11.372   1.433  13.863
10293SOL    HW232719  11.491   1.419  13.770
10294SOL     OW32720  12.217   0.546   0.031
10294SOL    HW132721  12.174   0.554   0.116
10294SOL    HW232722  12.281   0.476   0.042
10295SOL     OW32723  14.791  12.666   1.653
10295SOL    HW132724  14.856  12.604   1.620
10295SOL    HW232725  14.799  12.742   1.596
10296SOL     OW32726  12.677   7.416   8.581
10296SOL    HW132727  12.730   7.495   8.580
10296SOL    HW232728  12.630   7.419   8.664
10297SOL     OW32729   7.996   8.563  12.782
10297SOL    HW132730   8.088   8.556  12.806
10297SOL    HW232731   7.976   8.480  12.738
10298SOL     OW32732   7.991   1.461  13.996
10298SOL    HW132733   8.021   1.417  13.916
10298SOL    HW232734   7.944   1.538  13.965
10299SOL     OW32735   6.432   5.643  14.568
10299SOL    HW132736   6.367   5.670  14.632
10299SOL    HW232737   6.421   5.704  14.496
10300SOL     OW32738   0.387   2.984  10.429
10300SOL    HW132739   0.361   2.907  10.481
10300SOL    HW232740   0.374   3.058  10.489
10301SOL     OW32741   5.703   9.407  13.291
10301SOL    HW132742   5.717   9.349  13.366
10301SOL    HW232743   5.787   9.406  13.245
10302SOL     OW32744   5.099   7.967   4.945
10302SOL    HW132745   5.171   7.964   5.008
10302SOL    HW232746   5.141   7.960   4.860
10303SOL     OW32747   4.729   6.109  12.225
10303SOL    HW132748   4.673   6.047  12.180
10303SOL    HW232749   4.746   6.070  12.310
10304SOL     OW32750   7.228   2.931  13.254
10304SOL    HW132751   7.267   2.844  13.258
10304SOL    HW232752   7.285   2.986  13.307
10305SOL     OW32753   8.908   6.516   9.182
10305SOL    HW132754   8.980   6.453   9.170
10305SOL    HW232755   8.951   6.594   9.218
10306SOL     OW32756   1.739   7.357   2.898
10306SOL    HW132757   1.644   7.348   2.906
10306SOL    HW232758   1.763   7.296   2.827
10307SOL     OW32759   8.569   3.722   6.116
10307SOL    HW132760   8.557   3.702   6.209
10307SOL    HW232761   8.662   3.709   6.100
10308SOL     OW32762   2.942   5.007   4.052
10308SOL    HW132763   2.866   4.966   4.093
10308SOL    HW232764   2.940   4.976   3.961
10309SOL     OW32765  10.766   7.206   5.086
10309SOL    HW132766  10.699   7.218   5.019
10309SOL    HW232767  10.781   7.294   5.121
10310SOL     OW32768   8.365  13.952   1.069
10310SOL    HW132769   8.460  13.964   1.065
10310SOL    HW232770   8.331  13.995   0.991
10311SOL     OW32771   2.896   5.797   2.135
10311SOL    HW132772   2.828   5.842   2.084
10311SOL    HW232773   2.915   5.718   2.086
10312SOL     OW32774   5.131   1.781   7.307
10312SOL    HW132775   5.199   1.764   7.372
10312SOL    HW232776   5.126   1.876   7.302
10313SOL     OW32777  10.608   5.860   9.008
10313SOL    HW132778  10.703   5.863   9.022
10313SOL    HW232779  10.582   5.952   9.002
10314SOL     OW32780  13.987   4.231   4.872
10314SOL    HW132781  14.077   4.231   4.905
10314SOL    HW232782  13.956   4.141   4.887
10315SOL     OW32783  10.197  12.191   7.519
10315SOL    HW132784  10.109  12.190   7.559
10315SOL    HW232785  10.257  12.196   7.594
10316SOL     OW32786  13.905  12.040   7.593
10316SOL    HW132787  13.831  12.073   7.644
10316SOL    HW232788  13.975  12.103   7.608
10317SOL     OW32789   2.952  12.923  11.101
10317SOL    HW132790   2.987  12.909  11.013
10317SOL    HW232791   3.021  12.971  11.147
10318SOL     OW32792   1.359  10.776   8.055
10318SOL    HW132793   1.285  10.740   8.007
10318SOL    HW232794   1.427  10.709   8.048
10319SOL     OW32795   9.180  12.064   9.010
10319SOL    HW132796   9.111  12.115   9.052
10319SOL    HW232797   9.254  12.125   9.003
10320SOL     OW32798   2.242   2.414  10.783
10320SOL    HW132799   2.192   2.332  10.786
10320SOL    HW232800   2.302   2.408  10.857
10321SOL     OW32801   4.599   2.454   8.393
10321SOL    HW132802   4.576   2.378   8.447
10321SOL    HW232803   4.695   2.459   8.398
10322SOL     OW32804  11.424   0.388   1.742
10322SOL    HW132805  11.338   0.385   1.701
10322SOL    HW232806  11.456   0.477   1.725
10323SOL     OW32807   1.576  12.259  13.313
10323SOL    HW132808   1.588  12.177  13.265
10323SOL    HW232809   1.632  12.322  13.267
10324SOL     OW32810  10.636   3.991   9.291
10324SOL    HW132811  10.567   4.035   9.242
10324SOL    HW232812  10.629   4.027   9.379
10325SOL     OW32813   5.732  12.640   3.156
10325SOL    HW132814   5.769  12.593   3.082
10325SOL    HW232815   5.704  12.724   3.119
10326SOL     OW32816   5.343   3.758   1.615
10326SOL    HW132817   5.261   3.761   1.567
10326SOL    HW232818   5.323   3.797   1.700
10327SOL     OW32819  13.723  12.220   9.779
10327SOL    HW132820  13.813  12.186   9.784
10327SOL    HW232821  13.690  12.185   9.696
10328SOL     OW32822   9.187   3.841   1.497
10328SOL    HW132823   9.153   3.767   1.448
10328SOL    HW232824   9.254   3.803   1.555
10329SOL     OW32825   1.927  14.043   0.048
10329SOL    HW132826   1.980  14.077   0.121
10329SOL    HW232827   1.960  14.090  14.851
10330SOL     OW32828   0.808   0.254   0.485
10330SOL    HW132829   0.902   0.240   0.472
10330SOL    HW232830   0.801   0.341   0.523
10331SOL     OW32831  13.815   8.721   9.736
10331SOL    HW132832  13.860   8.739   9.653
10331SOL    HW232833  13.749   8.789   9.742
10332SOL     OW32834   1.788   9.147   8.217
10332SOL    HW132835   1.874   9.164   8.180
10332SOL    HW232836   1.796   9.172   8.309
10333SOL     OW32837  11.532  10.856   0.357
10333SOL    HW132838  11.497  10.899   0.279
10333SOL    HW232839  11.508  10.764   0.347
10334SOL     OW32840   8.239  10.315  11.991
10334SOL    HW132841   8.291  10.390  11.961
10334SOL    HW232842   8.157  10.354  12.021
10335SOL     OW32843  14.857   2.912   3.425
10335SOL    HW132844  14.847   2.823   3.390
10335SOL    HW232845  14.803   2.967   3.368
10336SOL     OW32846  14.624   9.753   4.345
10336SOL    HW132847  14.583   9.710   4.269
10336SOL    HW232848  14.658   9.680   4.398
10337SOL     OW32849  11.445   4.444   8.094
10337SOL    HW132850  11.529   4.408   8.123
10337SOL    HW232851  11.389   4.367   8.085
10338SOL     OW32852  12.279  11.584   6.617
10338SOL    HW132853  12.247  11.660   6.667
10338SOL    HW232854  12.209  11.567   6.553
10339SOL     OW32855   3.798   6.786  12.291
10339SOL    HW132856   3.821   6.855  12.353
10339SOL    HW232857   3.723   6.820  12.242
10340SOL     OW32858  13.169   6.291   0.299
10340SOL    HW132859  13.185   6.256   0.211
10340SOL    HW232860  13.251   6.333   0.324
10341SOL     OW32861   6.064  14.242  14.727
10341SOL    HW132862   6.072  14.185  14.803
10341SOL    HW232863   6.133  14.214  14.667
10342SOL     OW32864   8.028   0.367  13.696
10342SOL    HW132865   8.011   0.401  13.608
10342SOL    HW232866   7.941   0.357  13.735
10343SOL     OW32867   8.305  13.638   1.287
10343SOL    HW132868   8.392  13.610   1.314
10343SOL    HW232869   8.271  13.687   1.362
10344SOL     OW32870   1.648   1.716  11.150
10344SOL    HW132871   1.662   1.695  11.058
10344SOL    HW232872   1.729   1.691  11.193
10345SOL     OW32873   2.311   6.839   6.228
10345SOL    HW132874   2.325   6.758   6.179
10345SOL    HW232875   2.306   6.907   6.161
10346SOL     OW32876   7.651   7.825   7.279
10346SOL    HW132877   7.693   7.902   7.316
10346SOL    HW232878   7.721   7.759   7.277
10347SOL     OW32879  13.924   3.372  11.834
10347SOL    HW132880  14.019   3.366  11.846
10347SOL    HW232881  13.913   3.411  11.747
10348SOL     OW32882  11.893   1.932   6.753
10348SOL    HW132883  11.970   1.976   6.717
10348SOL    HW232884  11.928   1.857   6.801
10349SOL     OW32885  11.781   3.301   2.398
10349SOL    HW132886  11.697   3.262   2.375
10349SOL    HW232887  11.795   3.275   2.489
10350SOL     OW32888   1.457  14.026   4.707
10350SOL    HW132889   1.427  14.109   4.670
10350SOL    HW232890   1.552  14.028   4.699
10351SOL     OW32891  13.477  14.684   5.256
10351SOL    HW132892  13.419  14.754   5.225
10351SOL    HW232893  13.559  14.730   5.276
10352SOL     OW32894   0.010   7.311   3.330
10352SOL    HW132895  14.848   7.271   3.406
10352SOL    HW232896   0.104   7.310   3.350
10353SOL     OW32897   6.789   1.861   8.020
10353SOL    HW132898   6.878   1.845   7.989
10353SOL    HW232899   6.792   1.836   8.112
10354SOL     OW32900  12.491  14.167   0.964
10354SOL    HW132901  12.409  14.185   0.919
10354SOL    HW232902  12.493  14.229   1.037
10355SOL     OW32903  14.197   5.578   1.738
10355SOL    HW132904  14.103   5.575   1.758
10355SOL    HW232905  14.205   5.534   1.653
10356SOL     OW32906   7.703   7.532   3.155
10356SOL    HW132907   7.713   7.538   3.250
10356SOL    HW232908   7.765   7.596   3.120
10357SOL     OW32909  13.053   9.501   4.569
10357SOL    HW132910  12.979   9.441   4.571
10357SOL    HW232911  13.126   9.451   4.605
10358SOL     OW32912   7.662   3.580   5.345
10358SOL    HW132913   7.598   3.647   5.370
10358SOL    HW232914   7.723   3.625   5.286
10359SOL     OW32915  12.413   2.570   9.675
10359SOL    HW132916  12.410   2.522   9.758
10359SOL    HW232917  12.481   2.636   9.689
10360SOL     OW32918   5.676   2.683   3.990
10360SOL    HW132919   5.601   2.624   3.980
10360SOL    HW232920   5.698   2.678   4.083
10361SOL     OW32921   4.256   6.357   1.923
10361SOL    HW132922   4.261   6.293   1.994
10361SOL    HW232923   4.283   6.307   1.845
10362SOL     OW32924   7.260   8.591  10.758
10362SOL    HW132925   7.304   8.545  10.829
10362SOL    HW232926   7.293   8.681  10.763
10363SOL     OW32927   0.439   6.993  12.397
10363SOL    HW132928   0.455   7.021  12.307
10363SOL    HW232929   0.527   6.986  12.435
10364SOL     OW32930   3.599   9.485  10.626
10364SOL    HW132931   3.529   9.523  10.679
10364SOL    HW232932   3.575   9.505  10.536
10365SOL     OW32933   8.396   5.996   0.910
10365SOL    HW132934   8.353   6.006   0.825
10365SOL    HW232935   8.377   6.077   0.956
10366SOL     OW32936   8.052   1.354  12.365
10366SOL    HW132937   8.089   1.433  12.405
10366SOL    HW232938   8.040   1.294  12.438
10367SOL     OW32939   7.681  13.924   5.756
10367SOL    HW132940   7.625  13.846   5.756
10367SOL    HW232941   7.685  13.951   5.848
10368SOL     OW32942   7.287   7.865  13.804
10368SOL    HW132943   7.346   7.796  13.836
10368SOL    HW232944   7.334   7.946  13.824
10369SOL     OW32945   8.700   5.436   6.557
10369SOL    HW132946   8.682   5.345   6.581
10369SOL    HW232947   8.627   5.485   6.594
10370SOL     OW32948   0.864  12.648   8.552
10370SOL    HW132949   0.770  12.661   8.565
10370SOL    HW232950   0.905  12.725   8.592
10371SOL     OW32951  10.425  12.654   6.699
10371SOL    HW132952  10.471  12.639   6.782
10371SOL    HW232953  10.368  12.578   6.689
10372SOL     OW32954  11.523   1.552   5.927
10372SOL    HW132955  11.476   1.631   5.898
10372SOL    HW232956  11.600   1.585   5.972
10373SOL     OW32957  10.528   2.388   2.412
10373SOL    HW132958  10.601   2.327   2.410
10373SOL    HW232959  10.528   2.424   2.500
10374SOL     OW32960   8.176  14.662  13.360
10374SOL    HW132961   8.258  14.703  13.387
10374SOL    HW232962   8.197  14.622  13.276
10375SOL     OW32963   3.318   9.925   0.834
10375SOL    HW132964   3.381   9.970   0.889
10375SOL    HW232965   3.272   9.996   0.788
10376SOL     OW32966   5.270   6.551  14.626
10376SOL    HW132967   5.305   6.496  14.696
10376SOL    HW232968   5.339   6.614  14.607
10377SOL     OW32969  12.726   5.196  13.200
10377SOL    HW132970  12.690   5.110  13.178
10377SOL    HW232971  12.775   5.182  13.281
10378SOL     OW32972   3.367   9.033   8.365
10378SOL    HW132973   3.320   9.034   8.282
10378SOL    HW232974   3.418   9.115   8.365
10379SOL     OW32975   8.920  12.779   3.425
10379SOL    HW132976   8.853  12.712   3.409
10379SOL    HW232977   8.993  12.752   3.369
10380SOL     OW32978  10.284  14.125  12.313
10380SOL    HW132979  10.271  14.142  12.406
10380SOL    HW232980  10.264  14.208  12.270
10381SOL     OW32981   9.763  14.363   4.456
10381SOL    HW132982   9.680  14.389   4.416
10381SOL    HW232983   9.746  14.275   4.491
10382SOL     OW32984  14.024   5.626  11.698
10382SOL    HW132985  14.008   5.720  11.702
10382SOL    HW232986  13.982   5.598  11.617
10383SOL     OW32987   3.603   6.931   0.167
10383SOL    HW132988   3.674   6.962   0.111
10383SOL    HW232989   3.646   6.886   0.239
10384SOL     OW32990   6.762   3.057   6.550
10384SOL    HW132991   6.809   2.984   6.591
10384SOL    HW232992   6.681   3.018   6.516
10385SOL     OW32993   3.537   0.208   5.277
10385SOL    HW132994   3.585   0.126   5.261
10385SOL    HW232995   3.474   0.213   5.205
10386SOL     OW32996   8.226  11.975   0.835
10386SOL    HW132997   8.244  11.896   0.887
10386SOL    HW232998   8.183  11.942   0.756
10387SOL     OW32999   9.434   8.795  14.778
10387SOL    HW133000   9.413   8.702  14.780
10387SOL    HW233001   9.427   8.820  14.686
10388SOL     OW33002   8.018  10.339  13.148
10388SOL    HW133003   7.936  10.379  13.180
10388SOL    HW233004   8.014  10.249  13.178
10389SOL     OW33005   6.840   4.859   7.735
10389SOL    HW133006   6.926   4.851   7.778
10389SOL    HW233007   6.780   4.811   7.791
10390SOL     OW33008   0.026   8.891   2.315
10390SOL    HW133009  14.852   8.813   2.300
10390SOL    HW233010  14.875   8.925   2.399
10391SOL     OW33011   3.799  11.511   9.319
10391SOL    HW133012   3.842  11.560   9.248
10391SOL    HW233013   3.830  11.421   9.309
10392SOL     OW33014   3.536   7.180   6.349
10392SOL    HW133015   3.535   7.231   6.269
10392SOL    HW233016   3.594   7.106   6.329
10393SOL     OW33017  12.734   3.622   9.073
10393SOL    HW133018  12.770   3.711   9.071
10393SOL    HW233019  12.708   3.610   9.164
10394SOL     OW33020  10.325  14.362   4.534
10394SOL    HW133021  10.246  14.345   4.482
10394SOL    HW233022  10.396  14.362   4.470
10395SOL     OW33023  14.866  11.649   2.852
10395SOL    HW133024  14.877  11.577   2.789
10395SOL    HW233025  14.776  11.679   2.838
10396SOL     OW33026   1.483   0.426  10.277
10396SOL    HW133027   1.464   0.448  10.369
10396SOL    HW233028   1.574   0.453  10.264
10397SOL     OW33029  13.642   1.939  11.211
10397SOL    HW133030  13.555   1.975  11.230
10397SOL    HW233031  13.643   1.931  11.115
10398SOL     OW33032   6.230   0.671   5.833
10398SOL    HW133033   6.204   0.580   5.819
10398SOL    HW233034   6.326   0.668   5.839
10399SOL     OW33035  11.802  11.989   6.589
10399SOL    HW133036  11.887  12.032   6.604
10399SOL    HW233037  11.739  12.045   6.634
10400SOL     OW33038   9.578   8.915  12.355
10400SOL    HW133039   9.641   8.898  12.284
10400SOL    HW233040   9.534   8.831  12.369
10401SOL     OW33041   0.225   5.709   2.878
10401SOL    HW133042   0.318   5.724   2.859
10401SOL    HW233043   0.189   5.797   2.889
10402SOL     OW33044   6.042  11.056   5.222
10402SOL    HW133045   5.994  11.116   5.166
10402SOL    HW233046   6.116  11.027   5.169
10403SOL     OW33047  10.159   4.902  11.935
10403SOL    HW133048  10.217   4.938  12.003
10403SOL    HW233049  10.171   4.807  11.940
10404SOL     OW33050   6.234   3.075   9.892
10404SOL    HW133051   6.256   2.999   9.945
10404SOL    HW233052   6.307   3.135   9.906
10405SOL     OW33053   1.194   4.405  13.577
10405SOL    HW133054   1.117   4.409  13.520
10405SOL    HW233055   1.245   4.483  13.554
10406SOL     OW33056   1.987   7.217   6.788
10406SOL    HW133057   1.982   7.294   6.846
10406SOL    HW233058   1.987   7.142   6.847
10407SOL     OW33059   1.022   5.166   3.409
10407SOL    HW133060   0.962   5.158   3.336
10407SOL    HW233061   1.105   5.132   3.376
10408SOL     OW33062  12.199   1.427  13.503
10408SOL    HW133063  12.150   1.464  13.429
10408SOL    HW233064  12.131   1.396  13.563
10409SOL     OW33065   6.337   3.163  12.453
10409SOL    HW133066   6.381   3.111  12.520
10409SOL    HW233067   6.299   3.237  12.501
10410SOL     OW33068   5.042   1.514   3.130
10410SOL    HW133069   5.004   1.427   3.139
10410SOL    HW233070   4.998   1.551   3.053
10411SOL     OW33071   2.094  13.834   6.626
10411SOL    HW133072   2.090  13.814   6.532
10411SOL    HW233073   2.023  13.897   6.640
10412SOL     OW33074   6.523   0.673  14.594
10412SOL    HW133075   6.614   0.680  14.567
10412SOL    HW233076   6.485   0.608  14.534
10413SOL     OW33077   3.055  12.730  10.593
10413SOL    HW133078   3.008  12.702  10.514
10413SOL    HW233079   3.086  12.818  10.572
10414SOL     OW33080   6.902  13.287   4.804
10414SOL    HW133081   6.953  13.288   4.723
10414SOL    HW233082   6.822  13.239   4.782
10415SOL     OW33083  12.245   3.588  12.833
10415SOL    HW133084  12.260   3.535  12.911
10415SOL    HW233085  12.244   3.525  12.761
10416SOL     OW33086   4.722  11.385   6.187
10416SOL    HW133087   4.632  11.390   6.153
10416SOL    HW233088   4.720  11.313   6.249
10417SOL     OW33089   4.968   0.925  11.826
10417SOL    HW133090   4.915   0.854  11.790
10417SOL    HW233091   4.915   1.004  11.815
10418SOL     OW33092   1.762   6.320   6.340
10418SOL    HW133093   1.789   6.409   6.364
10418SOL    HW233094   1.713   6.288   6.416
10419SOL     OW33095  13.542  13.830   6.552
10419SOL    HW133096  13.537  13.833   6.648
10419SOL    HW233097  13.634  13.844   6.532
10420SOL     OW33098   4.110   7.698   4.922
10420SOL    HW133099   4.155   7.742   4.995
10420SOL    HW233100   4.087   7.770   4.863
10421SOL     OW33101   4.268   1.043   9.427
10421SOL    HW133102   4.212   0.990   9.484
10421SOL    HW233103   4.213   1.063   9.351
10422SOL     OW33104   4.250   5.448  12.224
10422SOL    HW133105   4.224   5.476  12.136
10422SOL    HW233106   4.260   5.353  12.216
10423SOL     OW33107   3.486   3.412   0.481
10423SOL    HW133108   3.513   3.335   0.431
10423SOL    HW233109   3.411   3.447   0.432
10424SOL     OW33110   0.757   1.559  11.806
10424SOL    HW133111   0.774   1.648  11.837
10424SOL    HW233112   0.739   1.569  11.712
10425SOL     OW33113   4.337   4.355  13.508
10425SOL    HW133114   4.412   4.410  13.532
10425SOL    HW233115   4.360   4.268  13.541
10426SOL     OW33116   4.307   5.822  12.671
10426SOL    HW133117   4.307   5.734  12.632
10426SOL    HW233118   4.395   5.856  12.651
10427SOL     OW33119   0.114   9.084  13.588
10427SOL    HW133120   0.036   9.106  13.537
10427SOL    HW233121   0.080   9.042  13.667
10428SOL     OW33122   7.034   6.992  12.593
10428SOL    HW133123   6.946   7.029  12.606
10428SOL    HW233124   7.020   6.919  12.532
10429SOL     OW33125  14.041  10.792   9.721
10429SOL    HW133126  14.077  10.728   9.782
10429SOL    HW233127  13.947  10.774   9.720
10430SOL     OW33128  11.023   3.130   4.761
10430SOL    HW133129  10.973   3.096   4.687
10430SOL    HW233130  11.008   3.225   4.759
10431SOL     OW33131   9.752  12.392   5.208
10431SOL    HW133132   9.708  12.325   5.261
10431SOL    HW233133   9.756  12.469   5.265
10432SOL     OW33134  13.136  14.226   1.625
10432SOL    HW133135  13.107  14.135   1.630
10432SOL    HW233136  13.186  14.238   1.706
10433SOL     OW33137   9.917   4.688   1.764
10433SOL    HW133138   9.996   4.739   1.745
10433SOL    HW233139   9.847   4.753   1.765
10434SOL     OW33140  10.218   5.517   9.995
10434SOL    HW133141  10.168   5.588   9.954
10434SOL    HW233142  10.229   5.452   9.925
10435SOL     OW33143   5.264  12.063   0.392
10435SOL    HW133144   5.231  12.105   0.472
10435SOL    HW233145   5.352  12.098   0.380
10436SOL     OW33146  14.532   4.575   6.877
10436SOL    HW133147  14.534   4.504   6.813
10436SOL    HW233148  14.441   4.577   6.906
10437SOL     OW33149  10.076   9.382   3.043
10437SOL    HW133150  10.050   9.318   2.978
10437SOL    HW233151  10.076   9.335   3.126
10438SOL     OW33152   6.877   1.156   8.645
10438SOL    HW133153   6.828   1.199   8.715
10438SOL    HW233154   6.946   1.109   8.691
10439SOL     OW33155   0.129   0.569   4.774
10439SOL    HW133156   0.199   0.585   4.837
10439SOL    HW233157   0.128   0.474   4.763
10440SOL     OW33158   2.480  11.235  11.072
10440SOL    HW133159   2.447  11.321  11.098
10440SOL    HW233160   2.570  11.252  11.042
10441SOL     OW33161   4.929   9.219  14.418
10441SOL    HW133162   5.000   9.270  14.457
10441SOL    HW233163   4.949   9.218  14.325
10442SOL     OW33164   8.342  12.733   7.107
10442SOL    HW133165   8.363  12.718   7.015
10442SOL    HW233166   8.394  12.669   7.155
10443SOL     OW33167   6.685  12.408  12.826
10443SOL    HW133168   6.695  12.500  12.804
10443SOL    HW233169   6.691  12.405  12.922
10444SOL     OW33170  12.129   8.647  13.631
10444SOL    HW133171  12.099   8.672  13.718
10444SOL    HW233172  12.155   8.729  13.589
10445SOL     OW33173   6.727   0.928   4.604
10445SOL    HW133174   6.789   0.870   4.648
10445SOL    HW233175   6.738   1.012   4.649
10446SOL     OW33176   1.332   8.758   9.704
10446SOL    HW133177   1.255   8.720   9.746
10446SOL    HW233178   1.297   8.810   9.632
10447SOL     OW33179  14.609   4.193   9.549
10447SOL    HW133180  14.637   4.185   9.640
10447SOL    HW233181  14.584   4.285   9.540
10448SOL     OW33182   5.392  13.547   8.114
10448SOL    HW133183   5.302  13.540   8.084
10448SOL    HW233184   5.446  13.531   8.036
10449SOL     OW33185  10.497   4.139   6.037
10449SOL    HW133186  10.500   4.047   6.012
10449SOL    HW233187  10.412   4.170   6.006
10450SOL     OW33188  11.074   5.848   8.195
10450SOL    HW133189  11.041   5.937   8.187
10450SOL    HW233190  11.049   5.821   8.283
10451SOL     OW33191   2.432   4.888  12.858
10451SOL    HW133192   2.442   4.896  12.763
10451SOL    HW233193   2.417   4.978  12.887
10452SOL     OW33194   4.135  11.988  11.785
10452SOL    HW133195   4.150  11.916  11.724
10452SOL    HW233196   4.097  11.946  11.863
10453SOL     OW33197   2.092   0.872   2.847
10453SOL    HW133198   2.157   0.822   2.897
10453SOL    HW233199   2.116   0.856   2.755
10454SOL     OW33200  12.444   9.450   1.371
10454SOL    HW133201  12.526   9.456   1.323
10454SOL    HW233202  12.453   9.513   1.443
10455SOL     OW33203   6.379   2.356   5.155
10455SOL    HW133204   6.377   2.295   5.081
10455SOL    HW233205   6.305   2.414   5.140
10456SOL     OW33206   3.804   4.571   0.398
10456SOL    HW133207   3.886   4.606   0.434
10456SOL    HW233208   3.826   4.483   0.368
10457SOL     OW33209   0.830  12.575   8.939
10457SOL    HW133210   0.893  12.619   8.995
10457SOL    HW233211   0.824  12.486   8.975
10458SOL     OW33212   3.826  10.853   4.000
10458SOL    HW133213   3.746  10.863   4.052
10458SOL    HW233214   3.884  10.922   4.032
10459SOL     OW33215  11.308   6.362   7.120
10459SOL    HW133216  11.278   6.440   7.072
10459SOL    HW233217  11.327   6.298   7.052
10460SOL     OW33218   0.347   8.855  12.265
10460SOL    HW133219   0.337   8.780  12.207
10460SOL    HW233220   0.391   8.821  12.342
10461SOL     OW33221  13.806   9.908   7.830
10461SOL    HW133222  13.882   9.862   7.795
10461SOL    HW233223  13.842   9.965   7.898
10462SOL     OW33224   7.905   9.688   1.281
10462SOL    HW133225   7.908   9.602   1.239
10462SOL    HW233226   7.926   9.670   1.373
10463SOL     OW33227   8.982   4.068   0.317
10463SOL    HW133228   8.947   4.152   0.290
10463SOL    HW233229   8.932   4.045   0.396
10464SOL     OW33230   3.181   2.454   4.392
10464SOL    HW133231   3.199   2.441   4.299
10464SOL    HW233232   3.103   2.402   4.410
10465SOL     OW33233   0.276   9.176   8.128
10465SOL    HW133234   0.246   9.266   8.121
10465SOL    HW233235   0.303   9.167   8.219
10466SOL     OW33236  12.883  13.662   0.745
10466SOL    HW133237  12.974  13.635   0.738
10466SOL    HW233238  12.835  13.580   0.755
10467SOL     OW33239   7.059   4.342   2.995
10467SOL    HW133240   7.139   4.358   2.945
10467SOL    HW233241   7.058   4.247   3.009
10468SOL     OW33242  12.721   1.366   0.833
10468SOL    HW133243  12.816   1.359   0.843
10468SOL    HW233244  12.710   1.417   0.753
10469SOL     OW33245   1.793  14.019   1.085
10469SOL    HW133246   1.718  13.980   1.041
10469SOL    HW233247   1.759  14.100   1.124
10470SOL     OW33248  12.998  12.425   9.134
10470SOL    HW133249  13.083  12.394   9.103
10470SOL    HW233250  12.989  12.386   9.221
10471SOL     OW33251  10.512   3.177  10.532
10471SOL    HW133252  10.530   3.151  10.623
10471SOL    HW233253  10.452   3.250  10.540
10472SOL     OW33254  12.099   5.518   3.570
10472SOL    HW133255  12.175   5.556   3.526
10472SOL    HW233256  12.129   5.433   3.601
10473SOL     OW33257   3.272   1.095  13.309
10473SOL    HW133258   3.311   1.174  13.272
10473SOL    HW233259   3.180   1.117  13.322
10474SOL     OW33260   7.192   2.062   7.847
10474SOL    HW133261   7.267   2.018   7.807
10474SOL    HW233262   7.195   2.151   7.811
10475SOL     OW33263   9.261  10.755  10.118
10475SOL    HW133264   9.310  10.743  10.036
10475SOL    HW233265   9.320  10.722  10.186
10476SOL     OW33266  12.548   8.806   2.868
10476SOL    HW133267  12.606   8.778   2.797
10476SOL    HW233268  12.582   8.762   2.946
10477SOL     OW33269   7.169   7.136   8.120
10477SOL    HW133270   7.144   7.206   8.181
10477SOL    HW233271   7.117   7.154   8.041
10478SOL     OW33272   0.719   1.937   6.363
10478SOL    HW133273   0.811   1.958   6.378
10478SOL    HW233274   0.710   1.846   6.391
10479SOL     OW33275  12.469   0.668  10.980
10479SOL    HW133276  12.533   0.736  11.001
10479SOL    HW233277  12.419   0.656  11.061
10480SOL     OW33278   6.856   9.569   5.194
10480SOL    HW133279   6.892   9.565   5.106
10480SOL    HW233280   6.798   9.493   5.201
10481SOL     OW33281   5.303   7.864   0.953
10481SOL    HW133282   5.247   7.941   0.954
10481SOL    HW233283   5.360   7.875   1.029
10482SOL     OW33284  13.873  11.513  10.108
10482SOL    HW133285  13.965  11.532  10.090
10482SOL    HW233286  13.834  11.599  10.126
10483SOL     OW33287   6.273   4.490   4.499
10483SOL    HW133288   6.236   4.483   4.411
10483SOL    HW233289   6.222   4.560   4.541
10484SOL     OW33290   5.669   8.682  14.020
10484SOL    HW133291   5.615   8.693  14.098
10484SOL    HW233292   5.615   8.717  13.949
10485SOL     OW33293   8.197   8.384   2.827
10485SOL    HW133294   8.192   8.461   2.771
10485SOL    HW233295   8.284   8.387   2.865
10486SOL     OW33296  11.023   2.613  12.530
10486SOL    HW133297  10.969   2.691  12.517
10486SOL    HW233298  11.032   2.575  12.443
10487SOL     OW33299  11.389   9.225   6.559
10487SOL    HW133300  11.385   9.140   6.514
10487SOL    HW233301  11.403   9.288   6.488
10488SOL     OW33302  10.659   6.268   5.496
10488SOL    HW133303  10.700   6.353   5.484
10488SOL    HW233304  10.568   6.281   5.468
10489SOL     OW33305   0.936  11.635   4.749
10489SOL    HW133306   0.959  11.684   4.670
10489SOL    HW233307   0.851  11.670   4.775
10490SOL     OW33308   4.095  14.489  10.172
10490SOL    HW133309   4.081  14.398  10.147
10490SOL    HW233310   4.184  14.491  10.208
10491SOL     OW33311   4.716  13.629  14.374
10491SOL    HW133312   4.760  13.582  14.304
10491SOL    HW233313   4.743  13.720  14.363
10492SOL     OW33314  13.912   9.752   0.431
10492SOL    HW133315  13.835   9.795   0.396
10492SOL    HW233316  13.904   9.661   0.403
10493SOL     OW33317  14.815  13.493   3.047
10493SOL    HW133318  14.745  13.531   3.100
10493SOL    HW233319   0.016  13.527   3.088
10494SOL     OW33320   1.295   9.227   6.210
10494SOL    HW133321   1.215   9.258   6.169
10494SOL    HW233322   1.339   9.177   6.142
10495SOL     OW33323  11.965  11.706   2.973
10495SOL    HW133324  12.031  11.775   2.972
10495SOL    HW233325  11.926  11.709   3.060
10496SOL     OW33326   6.106  10.577   5.768
10496SOL    HW133327   6.184  10.626   5.792
10496SOL    HW233328   6.126  10.541   5.681
10497SOL     OW33329  10.995   9.131   0.227
10497SOL    HW133330  11.019   9.078   0.151
10497SOL    HW233331  10.994   9.068   0.300
10498SOL     OW33332   3.327   1.530  14.365
10498SOL    HW133333   3.420   1.508  14.377
10498SOL    HW233334   3.300   1.479  14.289
10499SOL     OW33335   1.743  12.975  10.669
10499SOL    HW133336   1.811  12.999  10.732
10499SOL    HW233337   1.700  12.899  10.708
10500SOL     OW33338  11.472   0.194   5.734
10500SOL    HW133339  11.547   0.151   5.774
10500SOL    HW233340  11.420   0.124   5.696
10501SOL     OW33341  14.374   7.041  11.448
10501SOL    HW133342  14.379   6.961  11.500
10501SOL    HW233343  14.386   7.111  11.512
10502SOL     OW33344   1.633   5.953   0.159
10502SOL    HW133345   1.618   5.881   0.221
10502SOL    HW233346   1.728   5.951   0.143
10503SOL     OW33347   0.608   7.758   1.165
10503SOL    HW133348   0.554   7.719   1.233
10503SOL    HW233349   0.697   7.758   1.201
10504SOL     OW33350   8.189   3.976   3.878
10504SOL    HW133351   8.162   3.997   3.788
10504SOL    HW233352   8.271   3.928   3.868
10505SOL     OW33353   6.544   8.281  12.182
10505SOL    HW133354   6.499   8.197  12.194
10505SOL    HW233355   6.618   8.260  12.124
10506SOL     OW33356   9.177  14.055  13.986
10506SOL    HW133357   9.222  13.976  14.015
10506SOL    HW233358   9.203  14.123  14.049
10507SOL     OW33359   5.838   8.135  10.267
10507SOL    HW133360   5.807   8.051  10.300
10507SOL    HW233361   5.901   8.164  10.333
10508SOL     OW33362  13.688   1.507   2.044
10508SOL    HW133363  13.651   1.421   2.066
10508SOL    HW233364  13.698   1.505   1.949
10509SOL     OW33365  10.520   8.983   6.877
10509SOL    HW133366  10.497   9.026   6.959
10509SOL    HW233367  10.446   9.003   6.819
10510SOL     OW33368   9.615  13.802   0.959
10510SOL    HW133369   9.534  13.753   0.943
10510SOL    HW233370   9.609  13.878   0.901
10511SOL     OW33371  11.714   7.223  12.322
10511SOL    HW133372  11.680   7.269  12.398
10511SOL    HW233373  11.802   7.260  12.310
10512SOL     OW33374   7.528   0.173   7.593
10512SOL    HW133375   7.459   0.239   7.592
10512SOL    HW233376   7.572   0.184   7.677
10513SOL     OW33377  10.715  13.425   6.821
10513SOL    HW133378  10.783  13.409   6.886
10513SOL    HW233379  10.688  13.516   6.837
10514SOL     OW33380   6.923  13.157   0.900
10514SOL    HW133381   6.902  13.092   0.966
10514SOL    HW233382   7.015  13.140   0.878
10515SOL     OW33383  10.987   9.709  13.573
10515SOL    HW133384  10.956   9.619  13.581
10515SOL    HW233385  11.075   9.708  13.611
10516SOL     OW33386  14.724   1.354  12.027
10516SOL    HW133387  14.724   1.324  11.936
10516SOL    HW233388  14.689   1.443  12.023
10517SOL     OW33389   9.261   4.818   7.652
10517SOL    HW133390   9.287   4.726   7.657
10517SOL    HW233391   9.308   4.853   7.576
10518SOL     OW33392  11.867  10.509   3.825
10518SOL    HW133393  11.799  10.456   3.783
10518SOL    HW233394  11.855  10.494   3.919
10519SOL     OW33395   5.376   4.475   2.257
10519SOL    HW133396   5.450   4.424   2.289
10519SOL    HW233397   5.330   4.502   2.336
10520SOL     OW33398   7.804  14.650  12.117
10520SOL    HW133399   7.876  14.648  12.179
10520SOL    HW233400   7.735  14.700  12.162
10521SOL     OW33401   9.938   1.549   8.265
10521SOL    HW133402   9.988   1.480   8.308
10521SOL    HW233403   9.981   1.560   8.180
10522SOL     OW33404  14.512  13.260  11.712
10522SOL    HW133405  14.476  13.255  11.623
10522SOL    HW233406  14.474  13.185  11.758
10523SOL     OW33407   9.272   6.966   9.712
10523SOL    HW133408   9.362   6.994   9.729
10523SOL    HW233409   9.280   6.904   9.640
10524SOL     OW33410  13.897   7.592   5.792
10524SOL    HW133411  13.985   7.579   5.756
10524SOL    HW233412  13.902   7.554   5.880
10525SOL     OW33413  14.494   3.290   1.680
10525SOL    HW133414  14.486   3.313   1.588
10525SOL    HW233415  14.429   3.222   1.694
10526SOL     OW33416  13.000  12.515   8.420
10526SOL    HW133417  13.074  12.505   8.479
10526SOL    HW233418  13.017  12.452   8.349
10527SOL     OW33419   8.074  13.822   6.733
10527SOL    HW133420   8.022  13.785   6.803
10527SOL    HW233421   8.031  13.904   6.711
10528SOL     OW33422   7.285   9.465   8.408
10528SOL    HW133423   7.238   9.390   8.371
10528SOL    HW233424   7.257   9.540   8.355
10529SOL     OW33425  14.705   1.771   3.604
10529SOL    HW133426  14.660   1.694   3.640
10529SOL    HW233427  14.633   1.831   3.580
10530SOL     OW33428   6.935   7.968  14.704
10530SOL    HW133429   6.897   7.894  14.656
10530SOL    HW233430   6.886   8.044  14.672
10531SOL     OW33431  10.131  13.797   1.835
10531SOL    HW133432  10.037  13.801   1.853
10531SOL    HW233433  10.169  13.754   1.912
10532SOL     OW33434   5.780   8.077   6.751
10532SOL    HW133435   5.850   8.013   6.740
10532SOL    HW233436   5.814   8.157   6.710
10533SOL     OW33437   9.598   4.465   0.964
10533SOL    HW133438   9.652   4.543   0.976
10533SOL    HW233439   9.511   4.491   0.993
10534SOL     OW33440   5.589   6.243   6.710
10534SOL    HW133441   5.539   6.188   6.650
10534SOL    HW233442   5.529   6.314   6.733
10535SOL     OW33443   5.740   5.364  13.046
10535SOL    HW133444   5.781   5.284  13.079
10535SOL    HW233445   5.653   5.336  13.019
10536SOL     OW33446   9.848   3.957  12.985
10536SOL    HW133447   9.761   3.919  12.998
10536SOL    HW233448   9.862   3.952  12.890
10537SOL     OW33449   3.042   4.558  14.174
10537SOL    HW133450   3.125   4.515  14.195
10537SOL    HW233451   3.023   4.612  14.251
10538SOL     OW33452   9.929  13.258   1.107
10538SOL    HW133453   9.842  13.292   1.090
10538SOL    HW233454   9.918  13.162   1.104
10539SOL     OW33455   2.039   4.455  13.471
10539SOL    HW133456   2.037   4.543  13.508
10539SOL    HW233457   1.947   4.429  13.467
10540SOL     OW33458   9.934   8.347  10.225
10540SOL    HW133459   9.911   8.263  10.264
10540SOL    HW233460  10.028   8.341  10.209
10541SOL     OW33461  12.543  11.068   5.884
10541SOL    HW133462  12.464  11.083   5.834
10541SOL    HW233463  12.610  11.122   5.842
10542SOL     OW33464   6.161   2.315   2.261
10542SOL    HW133465   6.230   2.278   2.316
10542SOL    HW233466   6.128   2.240   2.211
10543SOL     OW33467   5.295  12.072   2.936
10543SOL    HW133468   5.244  12.111   2.865
10543SOL    HW233469   5.305  11.980   2.912
10544SOL     OW33470   4.852  12.961  14.017
10544SOL    HW133471   4.863  12.916  14.102
10544SOL    HW233472   4.766  12.934  13.987
10545SOL     OW33473  11.276   5.093   7.669
10545SOL    HW133474  11.210   5.062   7.607
10545SOL    HW233475  11.344   5.026   7.669
10546SOL     OW33476   1.601   6.695   3.167
10546SOL    HW133477   1.568   6.736   3.087
10546SOL    HW233478   1.527   6.643   3.200
10547SOL     OW33479  14.795   5.012   2.649
10547SOL    HW133480  14.831   4.981   2.566
10547SOL    HW233481  14.745   5.091   2.625
10548SOL     OW33482   3.587   8.624  11.236
10548SOL    HW133483   3.568   8.587  11.322
10548SOL    HW233484   3.507   8.608  11.185
10549SOL     OW33485  12.138  13.805   0.034
10549SOL    HW133486  12.171  13.715   0.029
10549SOL    HW233487  12.050  13.800  14.876
10550SOL     OW33488   4.720   5.883   2.954
10550SOL    HW133489   4.690   5.802   2.913
10550SOL    HW233490   4.655   5.902   3.022
10551SOL     OW33491   4.491   0.445   3.967
10551SOL    HW133492   4.398   0.469   3.969
10551SOL    HW233493   4.491   0.350   3.974
10552SOL     OW33494   9.893   6.538   7.027
10552SOL    HW133495   9.974   6.502   7.066
10552SOL    HW233496   9.916   6.553   6.935
10553SOL     OW33497   7.531   0.131  13.148
10553SOL    HW133498   7.608   0.076  13.160
10553SOL    HW233499   7.478   0.084  13.083
10554SOL     OW33500   4.929   9.036   6.050
10554SOL    HW133501   4.899   8.945   6.040
10554SOL    HW233502   4.857   9.089   6.016
10555SOL     OW33503   6.875  11.166  13.182
10555SOL    HW133504   6.970  11.164  13.181
10555SOL    HW233505   6.851  11.233  13.119
10556SOL     OW33506  14.430   1.235   7.490
10556SOL    HW133507  14.465   1.269   7.572
10556SOL    HW233508  14.422   1.141   7.504
10557SOL     OW33509  11.461  10.041  10.336
10557SOL    HW133510  11.411  10.123  10.345
10557SOL    HW233511  11.552  10.069  10.338
10558SOL     OW33512   6.930  13.480   4.176
10558SOL    HW133513   7.021  13.503   4.160
10558SOL    HW233514   6.885  13.565   4.182
10559SOL     OW33515  12.614   2.143   2.977
10559SOL    HW133516  12.572   2.065   2.941
10559SOL    HW233517  12.585   2.214   2.921
10560SOL     OW33518  10.225  11.188  11.920
10560SOL    HW133519  10.153  11.243  11.952
10560SOL    HW233520  10.299  11.208  11.978
10561SOL     OW33521   7.004   5.923   9.076
10561SOL    HW133522   7.013   5.851   9.013
10561SOL    HW233523   6.997   5.879   9.161
10562SOL     OW33524   9.128  11.634  11.376
10562SOL    HW133525   9.131  11.563  11.440
10562SOL    HW233526   9.121  11.590  11.291
10563SOL     OW33527   5.216   5.490  10.370
10563SOL    HW133528   5.204   5.397  10.390
10563SOL    HW233529   5.309   5.498  10.349
10564SOL     OW33530   6.547   3.804  14.196
10564SOL    HW133531   6.547   3.880  14.137
10564SOL    HW233532   6.500   3.835  14.274
10565SOL     OW33533   4.110   4.987  12.140
10565SOL    HW133534   4.116   4.973  12.046
10565SOL    HW233535   4.163   5.066  12.156
10566SOL     OW33536   3.079   9.438   5.116
10566SOL    HW133537   3.097   9.531   5.127
10566SOL    HW233538   3.128   9.396   5.187
10567SOL     OW33539   3.689   6.185   4.085
10567SOL    HW133540   3.704   6.091   4.099
10567SOL    HW233541   3.594   6.196   4.094
10568SOL     OW33542  10.339  10.241  12.642
10568SOL    HW133543  10.261  10.197  12.608
10568SOL    HW233544  10.357  10.198  12.725
10569SOL     OW33545   6.273  13.740   0.668
10569SOL    HW133546   6.196  13.692   0.636
10569SOL    HW233547   6.258  13.830   0.640
10570SOL     OW33548  14.421   7.736   3.751
10570SOL    HW133549  14.487   7.754   3.818
10570SOL    HW233550  14.471   7.722   3.671
10571SOL     OW33551   0.021   6.970  10.971
10571SOL    HW133552   0.101   7.018  10.993
10571SOL    HW233553  14.833   7.038  10.961
10572SOL     OW33554   3.218   4.603   7.647
10572SOL    HW133555   3.164   4.681   7.661
10572SOL    HW233556   3.195   4.544   7.718
10573SOL     OW33557  13.804   7.191   3.830
10573SOL    HW133558  13.789   7.101   3.804
10573SOL    HW233559  13.742   7.206   3.901
10574SOL     OW33560   4.619  12.752  10.086
10574SOL    HW133561   4.538  12.709  10.059
10574SOL    HW233562   4.642  12.809  10.012
10575SOL     OW33563  10.012   9.852  11.284
10575SOL    HW133564  10.007   9.921  11.351
10575SOL    HW233565   9.940   9.871  11.224
10576SOL     OW33566   9.193  10.883   7.886
10576SOL    HW133567   9.287  10.896   7.873
10576SOL    HW233568   9.182  10.885   7.981
10577SOL     OW33569   0.914   3.225   7.480
10577SOL    HW133570   0.937   3.311   7.516
10577SOL    HW233571   0.839   3.242   7.423
10578SOL     OW33572   3.271   6.871   9.020
10578SOL    HW133573   3.337   6.940   9.026
10578SOL    HW233574   3.188   6.916   9.032
10579SOL     OW33575  10.212   1.036   3.703
10579SOL    HW133576  10.256   1.117   3.729
10579SOL    HW233577  10.119   1.055   3.712
10580SOL     OW33578   2.442   7.242  11.865
10580SOL    HW133579   2.503   7.279  11.802
10580SOL    HW233580   2.488   7.246  11.949
10581SOL     OW33581   7.612  14.729  10.628
10581SOL    HW133582   7.663  14.694  10.701
10581SOL    HW233583   7.524  14.693  10.641
10582SOL     OW33584  13.100   5.840   3.653
10582SOL    HW133585  13.110   5.902   3.725
10582SOL    HW233586  13.121   5.891   3.574
10583SOL     OW33587   7.437  11.976  13.475
10583SOL    HW133588   7.489  11.917  13.529
10583SOL    HW233589   7.478  11.974  13.389
10584SOL     OW33590   8.160  11.506   0.407
10584SOL    HW133591   8.096  11.439   0.433
10584SOL    HW233592   8.239  11.484   0.456
10585SOL     OW33593   9.276  11.146   9.763
10585SOL    HW133594   9.321  11.096   9.695
10585SOL    HW233595   9.242  11.223   9.718
10586SOL     OW33596   8.322   7.877  10.873
10586SOL    HW133597   8.294   7.965  10.847
10586SOL    HW233598   8.335   7.883  10.967
10587SOL     OW33599  10.852  12.548   6.127
10587SOL    HW133600  10.846  12.535   6.222
10587SOL    HW233601  10.771  12.592   6.104
10588SOL     OW33602  13.524   2.830   6.894
10588SOL    HW133603  13.545   2.853   6.803
10588SOL    HW233604  13.607   2.804   6.933
10589SOL     OW33605   4.461  12.978   9.446
10589SOL    HW133606   4.504  12.895   9.425
10589SOL    HW233607   4.472  13.032   9.368
10590SOL     OW33608  13.028   9.750   4.917
10590SOL    HW133609  12.977   9.826   4.890
10590SOL    HW233610  13.085   9.782   4.986
10591SOL     OW33611  11.851   8.467   2.545
10591SOL    HW133612  11.861   8.553   2.503
10591SOL    HW233613  11.779   8.426   2.499
10592SOL     OW33614   9.627  13.126  14.725
10592SOL    HW133615   9.599  13.136  14.634
10592SOL    HW233616   9.714  13.166  14.728
10593SOL     OW33617   9.890   9.237  11.729
10593SOL    HW133618   9.959   9.278  11.781
10593SOL    HW233619   9.835   9.310  11.701
10594SOL     OW33620   6.082   0.584   5.268
10594SOL    HW133621   6.171   0.550   5.267
10594SOL    HW233622   6.064   0.609   5.178
10595SOL     OW33623   4.799   1.606  11.604
10595SOL    HW133624   4.740   1.532  11.619
10595SOL    HW233625   4.749   1.683  11.632
10596SOL     OW33626  12.192  14.169  13.211
10596SOL    HW133627  12.231  14.180  13.124
10596SOL    HW233628  12.119  14.231  13.213
10597SOL     OW33629  13.483  12.846   4.026
10597SOL    HW133630  13.556  12.883   4.076
10597SOL    HW233631  13.520  12.831   3.938
10598SOL     OW33632   7.181   5.932  10.140
10598SOL    HW133633   7.116   5.881  10.188
10598SOL    HW233634   7.129   5.991  10.085
10599SOL     OW33635   3.439   5.474   7.776
10599SOL    HW133636   3.530   5.500   7.787
10599SOL    HW233637   3.442   5.396   7.721
10600SOL     OW33638   9.717  12.427  13.731
10600SOL    HW133639   9.624  12.452  13.727
10600SOL    HW233640   9.739  12.434  13.824
10601SOL     OW33641   1.369   0.843   0.349
10601SOL    HW133642   1.407   0.890   0.275
10601SOL    HW233643   1.437   0.782   0.376
10602SOL     OW33644  11.148   7.708   6.744
10602SOL    HW133645  11.068   7.760   6.752
10602SOL    HW233646  11.219   7.772   6.756
10603SOL     OW33647  10.427   4.072   9.129
10603SOL    HW133648  10.333   4.065   9.144
10603SOL    HW233649  10.442   4.165   9.115
10604SOL     OW33650   8.474   7.848   3.633
10604SOL    HW133651   8.410   7.917   3.616
10604SOL    HW233652   8.558   7.893   3.638
10605SOL     OW33653   1.982   2.829   7.117
10605SOL    HW133654   1.913   2.764   7.133
10605SOL    HW233655   1.991   2.875   7.201
10606SOL     OW33656   6.484  10.581  13.574
10606SOL    HW133657   6.403  10.551  13.534
10606SOL    HW233658   6.552  10.525  13.536
10607SOL     OW33659   1.264   0.774   7.763
10607SOL    HW133660   1.307   0.859   7.774
10607SOL    HW233661   1.329   0.710   7.791
10608SOL     OW33662   6.489  12.201   0.429
10608SOL    HW133663   6.506  12.119   0.476
10608SOL    HW233664   6.491  12.269   0.496
10609SOL     OW33665   0.545  10.665   2.880
10609SOL    HW133666   0.468  10.646   2.933
10609SOL    HW233667   0.619  10.658   2.941
10610SOL     OW33668   0.579  13.330  13.360
10610SOL    HW133669   0.523  13.272  13.308
10610SOL    HW233670   0.517  13.380  13.413
10611SOL     OW33671   3.204   0.394   1.620
10611SOL    HW133672   3.295   0.371   1.607
10611SOL    HW233673   3.180   0.350   1.702
10612SOL     OW33674   3.241  12.909   2.091
10612SOL    HW133675   3.309  12.933   2.154
10612SOL    HW233676   3.256  12.967   2.016
10613SOL     OW33677   6.012   0.445  14.032
10613SOL    HW133678   6.087   0.411  14.080
10613SOL    HW233679   6.008   0.538  14.057
10614SOL     OW33680  10.300  11.769   9.805
10614SOL    HW133681  10.378  11.824   9.800
10614SOL    HW233682  10.252  11.802   9.881
10615SOL     OW33683  14.719   3.135   5.647
10615SOL    HW133684  14.731   3.072   5.718
10615SOL    HW233685  14.804   3.138   5.603
10616SOL     OW33686   1.986   1.935   6.706
10616SOL    HW133687   2.082   1.931   6.707
10616SOL    HW233688   1.959   1.858   6.656
10617SOL     OW33689  14.039   1.093  13.434
10617SOL    HW133690  14.094   1.017  13.418
10617SOL    HW233691  13.982   1.068  13.507
10618SOL     OW33692   3.765   4.401  11.987
10618SOL    HW133693   3.792   4.402  12.079
10618SOL    HW233694   3.735   4.311  11.972
10619SOL     OW33695   1.547   0.166  12.668
10619SOL    HW133696   1.538   0.205  12.581
10619SOL    HW233697   1.632   0.195  12.699
10620SOL     OW33698  14.180  13.932  10.356
10620SOL    HW133699  14.239  13.884  10.298
10620SOL    HW233700  14.097  13.937  10.307
10621SOL     OW33701   2.021   3.605  10.508
10621SOL    HW133702   2.005   3.699  10.512
10621SOL    HW233703   2.065   3.592  10.424
10622SOL     OW33704   5.440  10.702   4.829
10622SOL    HW133705   5.485  10.652   4.762
10622SOL    HW233706   5.508  10.725   4.892
10623SOL     OW33707   1.395   2.730   3.598
10623SOL    HW133708   1.432   2.818   3.598
10623SOL    HW233709   1.430   2.690   3.518
10624SOL     OW33710   4.851   3.598   7.302
10624SOL    HW133711   4.921   3.639   7.251
10624SOL    HW233712   4.801   3.548   7.238
10625SOL     OW33713   6.099  11.510   0.309
10625SOL    HW133714   6.153  11.588   0.298
10625SOL    HW233715   6.022  11.525   0.255
10626SOL     OW33716   8.674  10.614   4.473
10626SOL    HW133717   8.693  10.581   4.385
10626SOL    HW233718   8.633  10.699   4.459
10627SOL     OW33719   9.557   4.848  10.684
10627SOL    HW133720   9.550   4.753  10.684
10627SOL    HW233721   9.618   4.867  10.612
10628SOL     OW33722  11.202   9.069  12.222
10628SOL    HW133723  11.266   9.027  12.165
10628SOL    HW233724  11.150   8.996  12.256
10629SOL     OW33725  12.827   4.631  10.734
10629SOL    HW133726  12.755   4.692  10.751
10629SOL    HW233727  12.880   4.675  10.668
10630SOL     OW33728   5.377   3.344   3.910
10630SOL    HW133729   5.412   3.402   3.843
10630SOL    HW233730   5.382   3.256   3.871
10631SOL     OW33731   2.704   5.081   5.110
10631SOL    HW133732   2.703   5.174   5.091
10631SOL    HW233733   2.611   5.056   5.116
10632SOL     OW33734  11.569  14.021   3.833
10632SOL    HW133735  11.522  13.985   3.909
10632SOL    HW233736  11.644  13.963   3.821
10633SOL     OW33737   2.481   4.257   4.741
10633SOL    HW133738   2.563   4.210   4.722
10633SOL    HW233739   2.483   4.271   4.836
10634SOL     OW33740  14.183   7.600   5.193
10634SOL    HW133741  14.173   7.664   5.264
10634SOL    HW233742  14.097   7.560   5.185
10635SOL     OW33743   4.560   7.572   3.026
10635SOL    HW133744   4.647   7.590   3.060
10635SOL    HW233745   4.502   7.586   3.101
10636SOL     OW33746  13.496  12.616   8.939
10636SOL    HW133747  13.412  12.661   8.943
10636SOL    HW233748  13.556  12.672   8.988
10637SOL     OW33749   4.982  10.928  11.101
10637SOL    HW133750   5.006  11.008  11.054
10637SOL    HW233751   4.925  10.881  11.040
10638SOL     OW33752  10.616   4.171  12.161
10638SOL    HW133753  10.532   4.212  12.140
10638SOL    HW233754  10.627   4.186  12.255
10639SOL     OW33755   1.991   4.282  11.192
10639SOL    HW133756   2.028   4.272  11.105
10639SOL    HW233757   2.067   4.286  11.250
10640SOL     OW33758   3.161   9.393  11.386
10640SOL    HW133759   3.082   9.374  11.436
10640SOL    HW233760   3.233   9.363  11.441
10641SOL     OW33761   3.011   9.789   7.240
10641SOL    HW133762   3.013   9.698   7.213
10641SOL    HW233763   2.927   9.822   7.209
10642SOL     OW33764   6.023  14.384   0.288
10642SOL    HW133765   6.112  14.398   0.254
10642SOL    HW233766   6.016  14.288   0.296
10643SOL     OW33767   0.319   8.228   2.902
10643SOL    HW133768   0.278   8.312   2.882
10643SOL    HW233769   0.251   8.163   2.886
10644SOL     OW33770  13.020   5.568   3.868
10644SOL    HW133771  13.051   5.654   3.895
10644SOL    HW233772  12.959   5.585   3.797
10645SOL     OW33773  13.765  12.019   6.911
10645SOL    HW133774  13.794  11.928   6.919
10645SOL    HW233775  13.779  12.057   6.997
10646SOL     OW33776   0.320   7.348   3.003
10646SOL    HW133777   0.276   7.265   2.983
10646SOL    HW233778   0.289   7.408   2.935
10647SOL     OW33779   4.111   3.516  14.137
10647SOL    HW133780   4.034   3.545  14.089
10647SOL    HW233781   4.083   3.517  14.229
10648SOL     OW33782  13.972   4.645  12.503
10648SOL    HW133783  14.009   4.570  12.458
10648SOL    HW233784  13.966   4.618  12.595
10649SOL     OW33785  12.059  12.667  13.112
10649SOL    HW133786  12.148  12.701  13.109
10649SOL    HW233787  12.056  12.615  13.193
10650SOL     OW33788  12.461   8.146  13.318
10650SOL    HW133789  12.443   8.190  13.235
10650SOL    HW233790  12.377   8.108  13.344
10651SOL     OW33791  11.432  13.214   1.069
10651SOL    HW133792  11.508  13.271   1.081
10651SOL    HW233793  11.412  13.219   0.975
10652SOL     OW33794   5.619   4.629   1.600
10652SOL    HW133795   5.593   4.541   1.573
10652SOL    HW233796   5.541   4.665   1.641
10653SOL     OW33797  13.530   3.186   8.540
10653SOL    HW133798  13.592   3.118   8.511
10653SOL    HW233799  13.586   3.262   8.558
10654SOL     OW33800   0.029  12.843   9.262
10654SOL    HW133801   0.090  12.828   9.335
10654SOL    HW233802   0.063  12.921   9.219
10655SOL     OW33803   2.073   4.381   1.016
10655SOL    HW133804   2.167   4.394   1.006
10655SOL    HW233805   2.038   4.389   0.927
10656SOL     OW33806  14.435  11.648   0.242
10656SOL    HW133807  14.389  11.716   0.291
10656SOL    HW233808  14.442  11.683   0.153
10657SOL     OW33809   1.399   8.706  11.115
10657SOL    HW133810   1.425   8.722  11.024
10657SOL    HW233811   1.459   8.637  11.145
10658SOL     OW33812  14.520   1.732   3.231
10658SOL    HW133813  14.448   1.751   3.170
10658SOL    HW233814  14.599   1.742   3.178
10659SOL     OW33815   1.757   8.732   6.982
10659SOL    HW133816   1.740   8.825   6.968
10659SOL    HW233817   1.691   8.704   7.045
10660SOL     OW33818   2.955   3.246  12.363
10660SOL    HW133819   2.925   3.262  12.453
10660SOL    HW233820   2.900   3.303  12.309
10661SOL     OW33821   9.505  12.018  10.641
10661SOL    HW133822   9.567  12.080  10.603
10661SOL    HW233823   9.429  12.021  10.583
10662SOL     OW33824  12.509   8.822   1.619
10662SOL    HW133825  12.422   8.804   1.655
10662SOL    HW233826  12.529   8.746   1.564
10663SOL     OW33827   4.607   7.094   9.092
10663SOL    HW133828   4.680   7.153   9.072
10663SOL    HW233829   4.563   7.134   9.166
10664SOL     OW33830   3.929  10.813   5.175
10664SOL    HW133831   3.986  10.742   5.204
10664SOL    HW233832   3.942  10.882   5.240
10665SOL     OW33833   7.862   3.927  10.717
10665SOL    HW133834   7.878   3.835  10.738
10665SOL    HW233835   7.859   3.971  10.802
10666SOL     OW33836  10.466  11.698   0.404
10666SOL    HW133837  10.486  11.683   0.496
10666SOL    HW233838  10.429  11.786   0.401
10667SOL     OW33839  11.744  13.749  12.150
10667SOL    HW133840  11.822  13.785  12.108
10667SOL    HW233841  11.697  13.706  12.079
10668SOL     OW33842   7.362   9.832  10.805
10668SOL    HW133843   7.280   9.837  10.757
10668SOL    HW233844   7.380   9.922  10.831
10669SOL     OW33845   9.195  10.686   5.879
10669SOL    HW133846   9.274  10.741   5.879
10669SOL    HW233847   9.137  10.728   5.943
10670SOL     OW33848  10.604   1.025   1.142
10670SOL    HW133849  10.654   1.089   1.092
10670SOL    HW233850  10.523   1.013   1.091
10671SOL     OW33851  11.375   8.608   0.081
10671SOL    HW133852  11.436   8.634   0.012
10671SOL    HW233853  11.329   8.533   0.045
10672SOL     OW33854   9.823   7.717   5.437
10672SOL    HW133855   9.787   7.640   5.483
10672SOL    HW233856   9.827   7.689   5.345
10673SOL     OW33857   1.090  14.544   9.982
10673SOL    HW133858   1.020  14.530  10.046
10673SOL    HW233859   1.108  14.638   9.986
10674SOL     OW33860  10.012   8.661   3.448
10674SOL    HW133861   9.933   8.698   3.408
10674SOL    HW233862  10.084   8.694   3.395
10675SOL     OW33863  12.141   8.883   4.141
10675SOL    HW133864  12.132   8.814   4.207
10675SOL    HW233865  12.117   8.963   4.188
10676SOL     OW33866  14.271   9.517  11.888
10676SOL    HW133867  14.223   9.470  11.957
10676SOL    HW233868  14.219   9.502  11.809
10677SOL     OW33869  10.026  13.677   5.279
10677SOL    HW133870  10.095  13.736   5.248
10677SOL    HW233871   9.947  13.732   5.281
10678SOL     OW33872   8.518  13.827   3.912
10678SOL    HW133873   8.597  13.879   3.920
10678SOL    HW233874   8.451  13.889   3.882
10679SOL     OW33875   4.437  14.055   1.604
10679SOL    HW133876   4.442  14.113   1.528
10679SOL    HW233877   4.383  13.981   1.574
10680SOL     OW33878   5.318  13.705   7.526
10680SOL    HW133879   5.389  13.648   7.495
10680SOL    HW233880   5.362  13.786   7.552
10681SOL     OW33881  11.667  12.327   1.276
10681SOL    HW133882  11.643  12.299   1.188
10681SOL    HW233883  11.654  12.422   1.275
10682SOL     OW33884   3.959   5.605   4.698
10682SOL    HW133885   3.982   5.697   4.706
10682SOL    HW233886   3.879   5.595   4.749
10683SOL     OW33887  12.967   5.316  14.540
10683SOL    HW133888  12.969   5.316  14.444
10683SOL    HW233889  12.915   5.238  14.563
10684SOL     OW33890   8.177   9.158  11.683
10684SOL    HW133891   8.234   9.229  11.652
10684SOL    HW233892   8.118   9.142  11.609
10685SOL     OW33893  12.754   8.759   6.268
10685SOL    HW133894  12.777   8.726   6.181
10685SOL    HW233895  12.723   8.681   6.314
10686SOL     OW33896   4.014   2.931   4.519
10686SOL    HW133897   4.073   2.998   4.486
10686SOL    HW233898   3.929   2.975   4.526
10687SOL     OW33899   6.639  12.206  11.662
10687SOL    HW133900   6.649  12.290  11.708
10687SOL    HW233901   6.548  12.204  11.634
10688SOL     OW33902   7.049   9.612  12.526
10688SOL    HW133903   7.142   9.634  12.528
10688SOL    HW233904   7.047   9.519  12.501
10689SOL     OW33905   6.182   1.601  13.403
10689SOL    HW133906   6.107   1.543  13.388
10689SOL    HW233907   6.150   1.668  13.463
10690SOL     OW33908   3.023   3.828   7.082
10690SOL    HW133909   3.015   3.881   7.161
10690SOL    HW233910   2.937   3.833   7.041
10691SOL     OW33911   3.814   5.943   4.107
10691SOL    HW133912   3.804   5.881   4.035
10691SOL    HW233913   3.886   5.908   4.160
10692SOL     OW33914   2.943   2.862   6.091
10692SOL    HW133915   2.863   2.915   6.094
10692SOL    HW233916   3.002   2.904   6.154
10693SOL     OW33917  10.562   6.971   2.453
10693SOL    HW133918  10.469   6.985   2.436
10693SOL    HW233919  10.604   7.052   2.425
10694SOL     OW33920  13.856   2.838  12.074
10694SOL    HW133921  13.872   2.824  12.168
10694SOL    HW233922  13.916   2.909  12.051
10695SOL     OW33923  14.182  12.739   3.932
10695SOL    HW133924  14.167  12.646   3.944
10695SOL    HW233925  14.241  12.764   4.003
10696SOL     OW33926   0.376  11.753   3.793
10696SOL    HW133927   0.341  11.785   3.710
10696SOL    HW233928   0.376  11.657   3.784
10697SOL     OW33929   2.168  12.071   6.472
10697SOL    HW133930   2.095  12.070   6.409
10697SOL    HW233931   2.183  12.164   6.489
10698SOL     OW33932  12.142   4.360   5.705
10698SOL    HW133933  12.073   4.425   5.717
10698SOL    HW233934  12.215   4.409   5.667
10699SOL     OW33935   5.778  10.166   1.374
10699SOL    HW133936   5.804  10.256   1.354
10699SOL    HW233937   5.722  10.140   1.301
10700SOL     OW33938   1.689   0.568   3.232
10700SOL    HW133939   1.769   0.515   3.232
10700SOL    HW233940   1.643   0.541   3.153
10701SOL     OW33941   0.505   8.319   7.455
10701SOL    HW133942   0.454   8.267   7.517
10701SOL    HW233943   0.551   8.254   7.401
10702SOL     OW33944  10.628   1.021  12.236
10702SOL    HW133945  10.541   0.996  12.205
10702SOL    HW233946  10.660   0.943  12.282
10703SOL     OW33947  13.858  12.925  12.333
10703SOL    HW133948  13.936  12.869  12.335
10703SOL    HW233949  13.872  12.989  12.403
10704SOL     OW33950  10.256   9.520   3.646
10704SOL    HW133951  10.295   9.563   3.569
10704SOL    HW233952  10.163   9.541   3.642
10705SOL     OW33953   7.428   2.590  14.796
10705SOL    HW133954   7.349   2.644  14.794
10705SOL    HW233955   7.434   2.560   0.007
10706SOL     OW33956  12.743   6.586  14.833
10706SOL    HW133957  12.655   6.573  14.798
10706SOL    HW233958  12.730   6.637   0.034
10707SOL     OW33959  10.361   0.026   1.012
10707SOL    HW133960  10.331  14.865   1.094
10707SOL    HW233961  10.426  14.844   0.977
10708SOL     OW33962   1.570   3.908   8.765
10708SOL    HW133963   1.508   3.864   8.824
10708SOL    HW233964   1.515   3.954   8.702
10709SOL     OW33965  11.398   5.711  11.005
10709SOL    HW133966  11.409   5.743  10.916
10709SOL    HW233967  11.338   5.773  11.046
10710SOL     OW33968   4.419   0.359  10.228
10710SOL    HW133969   4.458   0.323  10.308
10710SOL    HW233970   4.340   0.404  10.258
10711SOL     OW33971   7.351   9.302  11.482
10711SOL    HW133972   7.389   9.225  11.440
10711SOL    HW233973   7.427   9.353  11.511
10712SOL     OW33974  10.944   4.590   3.222
10712SOL    HW133975  10.872   4.527   3.215
10712SOL    HW233976  10.906   4.665   3.268
10713SOL     OW33977   4.601   4.141  13.290
10713SOL    HW133978   4.625   4.233  13.284
10713SOL    HW233979   4.683   4.096  13.314
10714SOL     OW33980  10.253   6.699   5.657
10714SOL    HW133981  10.211   6.771   5.609
10714SOL    HW233982  10.211   6.620   5.623
10715SOL     OW33983  13.908  14.504  10.577
10715SOL    HW133984  13.950  14.534  10.659
10715SOL    HW233985  13.869  14.420  10.600
10716SOL     OW33986   8.992   0.206   5.097
10716SOL    HW133987   8.915   0.253   5.066
10716SOL    HW233988   8.968   0.176   5.185
10717SOL     OW33989   4.526   1.663  10.220
10717SOL    HW133990   4.593   1.646  10.153
10717SOL    HW233991   4.461   1.718  10.176
10718SOL     OW33992  13.086   5.673   5.869
10718SOL    HW133993  13.016   5.609   5.881
10718SOL    HW233994  13.057   5.728   5.796
10719SOL     OW33995   2.956   1.346   4.990
10719SOL    HW133996   2.882   1.379   4.939
10719SOL    HW233997   2.928   1.259   5.019
10720SOL     OW33998   6.103   5.873   1.679
10720SOL    HW133999   6.085   5.932   1.752
10720SOL    HW234000   6.127   5.931   1.607
10721SOL     OW34001   5.654   3.212   0.126
10721SOL    HW134002   5.633   3.304   0.109
10721SOL    HW234003   5.613   3.193   0.210
10722SOL     OW34004   1.151   1.361   8.529
10722SOL    HW134005   1.201   1.291   8.488
10722SOL    HW234006   1.074   1.317   8.566
10723SOL     OW34007  14.168   8.716  14.147
10723SOL    HW134008  14.131   8.696  14.233
10723SOL    HW234009  14.201   8.632  14.116
10724SOL     OW34010  14.646   6.593   0.089
10724SOL    HW134011  14.705   6.668   0.086
10724SOL    HW234012  14.624   6.584   0.182
10725SOL     OW34013  10.287   2.751   2.830
10725SOL    HW134014  10.222   2.681   2.835
10725SOL    HW234015  10.302   2.763   2.736
10726SOL     OW34016   1.018  13.871   1.334
10726SOL    HW134017   0.932  13.833   1.316
10726SOL    HW234018   0.999  13.949   1.387
10727SOL     OW34019   2.433  11.876  11.928
10727SOL    HW134020   2.525  11.901  11.941
10727SOL    HW234021   2.423  11.873  11.833
10728SOL     OW34022  12.730  11.568   8.721
10728SOL    HW134023  12.812  11.589   8.765
10728SOL    HW234024  12.662  11.594   8.782
10729SOL     OW34025   8.603   9.843  11.146
10729SOL    HW134026   8.534   9.909  11.137
10729SOL    HW234027   8.560   9.769  11.190
10730SOL     OW34028  13.549  11.093   9.784
10730SOL    HW134029  13.482  11.073   9.718
10730SOL    HW234030  13.579  11.181   9.762
10731SOL     OW34031   7.755   7.580   4.888
10731SOL    HW134032   7.719   7.492   4.897
10731SOL    HW234033   7.835   7.579   4.939
10732SOL     OW34034   6.620   1.883   7.808
10732SOL    HW134035   6.675   1.927   7.743
10732SOL    HW234036   6.674   1.882   7.888
10733SOL     OW34037   7.809   1.731   4.030
10733SOL    HW134038   7.901   1.702   4.035
10733SOL    HW234039   7.794   1.779   4.111
10734SOL     OW34040  13.157   8.551   8.945
10734SOL    HW134041  13.113   8.583   9.024
10734SOL    HW234042  13.099   8.484   8.911
10735SOL     OW34043   4.215   3.867   4.877
10735SOL    HW134044   4.127   3.888   4.848
10735SOL    HW234045   4.204   3.835   4.967
10736SOL     OW34046   0.186   8.967   3.351
10736SOL    HW134047   0.278   8.952   3.373
10736SOL    HW234048   0.154   8.882   3.321
10737SOL     OW34049   7.617   0.153   5.106
10737SOL    HW134050   7.581   0.112   5.028
10737SOL    HW234051   7.560   0.228   5.122
10738SOL     OW34052   9.571  13.252  12.709
10738SOL    HW134053   9.546  13.314  12.640
10738SOL    HW234054   9.561  13.301  12.790
10739SOL     OW34055  14.824   0.036   7.403
10739SOL    HW134056  14.770   0.057   7.328
10739SOL    HW234057  14.850  14.824   7.389
10740SOL     OW34058  11.502   2.915   9.989
10740SOL    HW134059  11.478   2.973  10.061
10740SOL    HW234060  11.519   2.974   9.916
10741SOL     OW34061   7.052   8.607  11.746
10741SOL    HW134062   7.041   8.673  11.814
10741SOL    HW234063   7.145   8.585  11.747
10742SOL     OW34064   2.424  10.253  10.405
10742SOL    HW134065   2.509  10.211  10.398
10742SOL    HW234066   2.441  10.333  10.456
10743SOL     OW34067   4.825  13.230  14.059
10743SOL    HW134068   4.864  13.143  14.045
10743SOL    HW234069   4.762  13.240  13.988
10744SOL     OW34070  12.373   9.721   1.188
10744SOL    HW134071  12.423   9.727   1.107
10744SOL    HW234072  12.413   9.785   1.247
10745SOL     OW34073  12.692   2.146  11.342
10745SOL    HW134074  12.638   2.131  11.419
10745SOL    HW234075  12.715   2.058  11.311
10746SOL     OW34076   6.309   3.175  11.882
10746SOL    HW134077   6.279   3.097  11.928
10746SOL    HW234078   6.233   3.233  11.881
10747SOL     OW34079  10.726  11.581  11.713
10747SOL    HW134080  10.705  11.638  11.786
10747SOL    HW234081  10.821  11.573  11.715
10748SOL     OW34082   5.720   3.357   1.247
10748SOL    HW134083   5.744   3.438   1.292
10748SOL    HW234084   5.674   3.306   1.313
10749SOL     OW34085   1.708   4.882   0.741
10749SOL    HW134086   1.725   4.887   0.647
10749SOL    HW234087   1.741   4.965   0.775
10750SOL     OW34088   2.461   8.025   3.723
10750SOL    HW134089   2.537   7.986   3.767
10750SOL    HW234090   2.386   7.998   3.776
10751SOL     OW34091   8.763   4.992   9.059
10751SOL    HW134092   8.760   4.917   9.119
10751SOL    HW234093   8.837   4.973   9.001
10752SOL     OW34094   5.129   9.118   6.513
10752SOL    HW134095   5.199   9.165   6.467
10752SOL    HW234096   5.083   9.071   6.443
10753SOL     OW34097   7.803  12.515  12.620
10753SOL    HW134098   7.748  12.490  12.695
10753SOL    HW234099   7.818  12.432  12.573
10754SOL     OW34100   6.987  12.046   2.207
10754SOL    HW134101   6.933  12.032   2.285
10754SOL    HW234102   6.933  12.100   2.150
10755SOL     OW34103   9.873  11.169   1.851
10755SOL    HW134104   9.959  11.141   1.882
10755SOL    HW234105   9.892  11.232   1.781
10756SOL     OW34106   8.804   7.520   0.305
10756SOL    HW134107   8.766   7.577   0.239
10756SOL    HW234108   8.731   7.496   0.362
10757SOL     OW34109  10.297   4.434  13.218
10757SOL    HW134110  10.285   4.528  13.230
10757SOL    HW234111  10.215   4.405  13.177
10758SOL     OW34112   6.062  10.842  10.016
10758SOL    HW134113   5.973  10.822   9.987
10758SOL    HW234114   6.105  10.756  10.019
10759SOL     OW34115   9.910  10.188   4.159
10759SOL    HW134116   9.978  10.128   4.187
10759SOL    HW234117   9.829  10.139   4.170
10760SOL     OW34118   9.934  10.783   5.435
10760SOL    HW134119   9.869  10.718   5.459
10760SOL    HW234120   9.967  10.754   5.350
10761SOL     OW34121   5.397   8.949   3.909
10761SOL    HW134122   5.312   8.916   3.879
10761SOL    HW234123   5.435   8.990   3.832
10762SOL     OW34124   5.554  14.211  11.996
10762SOL    HW134125   5.479  14.155  12.014
10762SOL    HW234126   5.525  14.299  12.021
10763SOL     OW34127   5.700  13.349   3.392
10763SOL    HW134128   5.786  13.381   3.365
10763SOL    HW234129   5.639  13.388   3.329
10764SOL     OW34130   6.935  11.693   6.356
10764SOL    HW134131   6.976  11.627   6.411
10764SOL    HW234132   6.841  11.680   6.370
10765SOL     OW34133  12.889   1.353   0.414
10765SOL    HW134134  12.826   1.281   0.413
10765SOL    HW234135  12.838   1.428   0.444
10766SOL     OW34136  12.506   0.602   0.785
10766SOL    HW134137  12.534   0.515   0.759
10766SOL    HW234138  12.588   0.650   0.802
10767SOL     OW34139   4.479   3.705   6.658
10767SOL    HW134140   4.389   3.727   6.635
10767SOL    HW234141   4.471   3.634   6.722
10768SOL     OW34142   1.537  14.382   7.671
10768SOL    HW134143   1.542  14.358   7.763
10768SOL    HW234144   1.628  14.385   7.641
10769SOL     OW34145  10.505   4.395   0.788
10769SOL    HW134146  10.454   4.315   0.790
10769SOL    HW234147  10.546   4.396   0.702
10770SOL     OW34148  11.122   2.007   8.980
10770SOL    HW134149  11.107   2.097   9.009
10770SOL    HW234150  11.051   1.989   8.919
10771SOL     OW34151   8.550   4.763  12.899
10771SOL    HW134152   8.513   4.815  12.970
10771SOL    HW234153   8.570   4.826  12.831
10772SOL     OW34154   9.226   9.652   5.087
10772SOL    HW134155   9.215   9.698   5.004
10772SOL    HW234156   9.191   9.565   5.071
10773SOL     OW34157   4.940   9.084   8.117
10773SOL    HW134158   4.940   8.989   8.102
10773SOL    HW234159   4.944   9.093   8.212
10774SOL     OW34160   5.336   3.626  13.601
10774SOL    HW134161   5.281   3.579  13.538
10774SOL    HW234162   5.422   3.585  13.592
10775SOL     OW34163   3.328   1.774   6.673
10775SOL    HW134164   3.264   1.712   6.638
10775SOL    HW234165   3.370   1.727   6.746
10776SOL     OW34166  10.216  12.940  12.070
10776SOL    HW134167  10.195  12.962  11.979
10776SOL    HW234168  10.221  12.845  12.071
10777SOL     OW34169  12.620  11.825  10.100
10777SOL    HW134170  12.593  11.751  10.046
10777SOL    HW234171  12.638  11.895  10.037
10778SOL     OW34172   0.429   5.047  11.608
10778SOL    HW134173   0.387   4.975  11.560
10778SOL    HW234174   0.363   5.074  11.672
10779SOL     OW34175  13.885   9.457   9.223
10779SOL    HW134176  13.976   9.484   9.229
10779SOL    HW234177  13.847   9.482   9.307
10780SOL     OW34178  10.016  10.926  12.660
10780SOL    HW134179   9.934  10.970  12.686
10780SOL    HW234180  10.068  10.995  12.620
10781SOL     OW34181  11.017  12.371   9.005
10781SOL    HW134182  11.094  12.388   9.059
10781SOL    HW234183  10.943  12.397   9.060
10782SOL     OW34184   4.879   0.141   5.223
10782SOL    HW134185   4.862   0.047   5.221
10782SOL    HW234186   4.937   0.153   5.297
10783SOL     OW34187  14.582  11.840   0.616
10783SOL    HW134188  14.633  11.793   0.550
10783SOL    HW234189  14.546  11.771   0.672
10784SOL     OW34190  10.417  12.211  10.172
10784SOL    HW134191  10.344  12.176  10.224
10784SOL    HW234192  10.494  12.164  10.205
10785SOL     OW34193  12.538   1.781   2.313
10785SOL    HW134194  12.560   1.689   2.300
10785SOL    HW234195  12.446   1.787   2.289
10786SOL     OW34196   0.449   3.191   9.495
10786SOL    HW134197   0.495   3.262   9.541
10786SOL    HW234198   0.505   3.172   9.420
10787SOL     OW34199  13.261  12.922   7.584
10787SOL    HW134200  13.257  12.969   7.667
10787SOL    HW234201  13.199  12.969   7.527
10788SOL     OW34202   9.831   7.535  13.494
10788SOL    HW134203   9.789   7.611  13.532
10788SOL    HW234204   9.854   7.561  13.405
10789SOL     OW34205   8.711  14.008   3.880
10789SOL    HW134206   8.763  13.933   3.850
10789SOL    HW234207   8.701  14.063   3.802
10790SOL     OW34208  11.492   8.241  13.196
10790SOL    HW134209  11.448   8.191  13.265
10790SOL    HW234210  11.572   8.273  13.238
10791SOL     OW34211   8.330   2.785  13.055
10791SOL    HW134212   8.338   2.825  12.969
10791SOL    HW234213   8.261   2.719  13.045
10792SOL     OW34214   2.766   4.175   7.762
10792SOL    HW134215   2.755   4.166   7.667
10792SOL    HW234216   2.765   4.085   7.795
10793SOL     OW34217   4.580   1.236  11.354
10793SOL    HW134218   4.493   1.273  11.355
10793SOL    HW234219   4.635   1.302  11.312
10794SOL     OW34220  13.173   1.913  12.106
10794SOL    HW134221  13.081   1.937  12.097
10794SOL    HW234222  13.214   1.989  12.149
10795SOL     OW34223  12.265  10.142   3.078
10795SOL    HW134224  12.243  10.231   3.051
10795SOL    HW234225  12.245  10.139   3.171
10796SOL     OW34226   0.509  11.689   3.417
10796SOL    HW134227   0.508  11.624   3.346
10796SOL    HW234228   0.589  11.739   3.402
10797SOL     OW34229   2.437   5.499   8.505
10797SOL    HW134230   2.426   5.476   8.413
10797SOL    HW234231   2.495   5.575   8.504
10798SOL     OW34232   9.472   2.315  11.043
10798SOL    HW134233   9.564   2.323  11.068
10798SOL    HW234234   9.473   2.269  10.959
10799SOL     OW34235   3.478   1.165   2.569
10799SOL    HW134236   3.513   1.184   2.482
10799SOL    HW234237   3.445   1.076   2.563
10800SOL     OW34238   8.229   3.725   7.540
10800SOL    HW134239   8.269   3.811   7.529
10800SOL    HW234240   8.142   3.743   7.575
10801SOL     OW34241  12.617   5.944  11.336
10801SOL    HW134242  12.576   6.005  11.397
10801SOL    HW234243  12.562   5.866  11.339
10802SOL     OW34244  11.795   7.216   7.345
10802SOL    HW134245  11.837   7.222   7.259
10802SOL    HW234246  11.723   7.279   7.341
10803SOL     OW34247   3.253   1.283   2.768
10803SOL    HW134248   3.307   1.234   2.706
10803SOL    HW234249   3.313   1.344   2.810
10804SOL     OW34250   4.324   5.052   6.134
10804SOL    HW134251   4.270   5.131   6.139
10804SOL    HW234252   4.377   5.064   6.055
10805SOL     OW34253  13.576  13.043   9.291
10805SOL    HW134254  13.564  13.103   9.217
10805SOL    HW234255  13.610  13.099   9.361
10806SOL     OW34256  13.969   0.591  10.167
10806SOL    HW134257  14.007   0.520  10.219
10806SOL    HW234258  13.894   0.621  10.218
10807SOL     OW34259   4.801   2.303   0.748
10807SOL    HW134260   4.842   2.318   0.833
10807SOL    HW234261   4.867   2.332   0.684
10808SOL     OW34262  12.543   3.846   2.220
10808SOL    HW134263  12.450   3.831   2.201
10808SOL    HW234264  12.556   3.939   2.203
10809SOL     OW34265   3.828   1.203   3.275
10809SOL    HW134266   3.787   1.243   3.198
10809SOL    HW234267   3.907   1.254   3.289
10810SOL     OW34268   1.641  10.204  11.245
10810SOL    HW134269   1.576  10.182  11.178
10810SOL    HW234270   1.703  10.261  11.200
10811SOL     OW34271   1.728   2.177   5.815
10811SOL    HW134272   1.675   2.224   5.750
10811SOL    HW234273   1.741   2.241   5.885
10812SOL     OW34274   7.027   0.416   4.376
10812SOL    HW134275   7.010   0.496   4.427
10812SOL    HW234276   7.121   0.402   4.383
10813SOL     OW34277  10.757  14.351  12.869
10813SOL    HW134278  10.680  14.366  12.923
10813SOL    HW234279  10.756  14.423  12.805
10814SOL     OW34280  12.167  10.129  11.095
10814SOL    HW134281  12.114  10.069  11.042
10814SOL    HW234282  12.104  10.194  11.126
10815SOL     OW34283   9.510  10.336  14.587
10815SOL    HW134284   9.436  10.371  14.538
10815SOL    HW234285   9.586  10.383  14.552
10816SOL     OW34286   1.811   8.293   2.429
10816SOL    HW134287   1.827   8.212   2.477
10816SOL    HW234288   1.812   8.361   2.496
10817SOL     OW34289   6.094   2.327   1.889
10817SOL    HW134290   6.164   2.316   1.953
10817SOL    HW234291   6.013   2.308   1.938
10818SOL     OW34292  14.407  13.471   8.427
10818SOL    HW134293  14.329  13.439   8.472
10818SOL    HW234294  14.480  13.440   8.480
10819SOL     OW34295   8.488  14.670   7.537
10819SOL    HW134296   8.484  14.581   7.502
10819SOL    HW234297   8.434  14.666   7.616
10820SOL     OW34298   8.447  12.173  12.114
10820SOL    HW134299   8.500  12.094  12.101
10820SOL    HW234300   8.477  12.208  12.199
10821SOL     OW34301  13.084   3.801  10.190
10821SOL    HW134302  13.028   3.845  10.125
10821SOL    HW234303  13.084   3.860  10.265
10822SOL     OW34304   2.153   0.382   5.383
10822SOL    HW134305   2.116   0.432   5.455
10822SOL    HW234306   2.085   0.317   5.360
10823SOL     OW34307   9.932  12.000  10.209
10823SOL    HW134308   9.862  12.052  10.169
10823SOL    HW234309   9.901  11.909  10.202
10824SOL     OW34310   1.944   5.679   9.168
10824SOL    HW134311   1.862   5.669   9.216
10824SOL    HW234312   1.951   5.601   9.114
10825SOL     OW34313   0.547   9.460  14.793
10825SOL    HW134314   0.591   9.477  14.710
10825SOL    HW234315   0.602   9.393  14.835
10826SOL     OW34316   8.335   6.324   8.961
10826SOL    HW134317   8.332   6.249   9.020
10826SOL    HW234318   8.422   6.319   8.919
10827SOL     OW34319   6.363  14.185  10.045
10827SOL    HW134320   6.407  14.270  10.052
10827SOL    HW234321   6.275  14.206  10.014
10828SOL     OW34322   0.050   7.919   7.935
10828SOL    HW134323   0.011   7.932   7.849
10828SOL    HW234324   0.082   8.005   7.961
10829SOL     OW34325   4.428   0.308   0.864
10829SOL    HW134326   4.482   0.288   0.788
10829SOL    HW234327   4.429   0.228   0.916
10830SOL     OW34328   8.042   1.014   1.128
10830SOL    HW134329   8.116   1.071   1.106
10830SOL    HW234330   8.075   0.925   1.117
10831SOL     OW34331  11.758   0.969   5.123
10831SOL    HW134332  11.732   0.988   5.033
10831SOL    HW234333  11.852   0.986   5.124
10832SOL     OW34334   8.319   0.827   5.807
10832SOL    HW134335   8.315   0.858   5.898
10832SOL    HW234336   8.382   0.886   5.765
10833SOL     OW34337   9.055   7.764   9.322
10833SOL    HW134338   8.965   7.735   9.307
10833SOL    HW234339   9.079   7.726   9.406
10834SOL     OW34340   0.954   4.144   6.038
10834SOL    HW134341   0.877   4.093   6.016
10834SOL    HW234342   1.003   4.151   5.956
10835SOL     OW34343   0.479  13.859  10.618
10835SOL    HW134344   0.489  13.927  10.551
10835SOL    HW234345   0.549  13.878  10.681
10836SOL     OW34346   1.977   6.883   9.097
10836SOL    HW134347   2.022   6.956   9.139
10836SOL    HW234348   2.041   6.849   9.033
10837SOL     OW34349  10.979  10.104   2.918
10837SOL    HW134350  10.891  10.067   2.917
10837SOL    HW234351  11.035  10.032   2.948
10838SOL     OW34352   8.731  11.790   6.607
10838SOL    HW134353   8.790  11.854   6.567
10838SOL    HW234354   8.674  11.842   6.664
10839SOL     OW34355  12.580   8.754  12.005
10839SOL    HW134356  12.589   8.666  11.970
10839SOL    HW234357  12.645   8.806  11.958
10840SOL     OW34358  12.437  12.853   8.882
10840SOL    HW134359  12.520  12.821   8.847
10840SOL    HW234360  12.370  12.804   8.833
10841SOL     OW34361   9.171   3.021  13.408
10841SOL    HW134362   9.106   2.955  13.432
10841SOL    HW234363   9.178   3.015  13.313
10842SOL     OW34364   8.800   5.431   1.192
10842SOL    HW134365   8.779   5.517   1.155
10842SOL    HW234366   8.722   5.378   1.175
10843SOL     OW34367   8.210   8.909   9.231
10843SOL    HW134368   8.206   8.888   9.138
10843SOL    HW234369   8.152   8.846   9.272
10844SOL     OW34370   8.926   6.713  10.855
10844SOL    HW134371   8.992   6.661  10.901
10844SOL    HW234372   8.930   6.683  10.764
10845SOL     OW34373   6.375   3.623  13.958
10845SOL    HW134374   6.377   3.702  13.903
10845SOL    HW234375   6.338   3.652  14.041
10846SOL     OW34376   7.592   9.434   7.837
10846SOL    HW134377   7.542   9.436   7.918
10846SOL    HW234378   7.535   9.474   7.772
10847SOL     OW34379  14.793  11.524   5.164
10847SOL    HW134380  14.813  11.500   5.254
10847SOL    HW234381  14.716  11.581   5.171
10848SOL     OW34382  14.165   1.273  11.584
10848SOL    HW134383  14.256   1.255  11.604
10848SOL    HW234384  14.115   1.215  11.642
10849SOL     OW34385   3.544  14.081  14.792
10849SOL    HW134386   3.614  14.144  14.805
10849SOL    HW234387   3.509  14.101  14.705
10850SOL     OW34388   3.066   8.682   0.224
10850SOL    HW134389   3.150   8.696   0.267
10850SOL    HW234390   3.001   8.688   0.294
10851SOL     OW34391   8.198   9.658   3.395
10851SOL    HW134392   8.194   9.647   3.300
10851SOL    HW234393   8.199   9.569   3.429
10852SOL     OW34394   9.672   0.218   7.465
10852SOL    HW134395   9.654   0.299   7.417
10852SOL    HW234396   9.646   0.148   7.405
10853SOL     OW34397   7.687  10.460   2.239
10853SOL    HW134398   7.742  10.439   2.314
10853SOL    HW234399   7.712  10.397   2.171
10854SOL     OW34400  14.305   6.300  14.491
10854SOL    HW134401  14.334   6.250  14.415
10854SOL    HW234402  14.366   6.374  14.496
10855SOL     OW34403   5.823  12.188   0.249
10855SOL    HW134404   5.814  12.124   0.320
10855SOL    HW234405   5.773  12.264   0.280
10856SOL     OW34406  11.094   5.467   4.372
10856SOL    HW134407  11.067   5.488   4.282
10856SOL    HW234408  11.189   5.456   4.367
10857SOL     OW34409   2.594  13.206  11.290
10857SOL    HW134410   2.634  13.291  11.271
10857SOL    HW234411   2.576  13.209  11.384
10858SOL     OW34412   4.983   5.788   8.944
10858SOL    HW134413   5.074   5.812   8.961
10858SOL    HW234414   4.980   5.777   8.849
10859SOL     OW34415   0.560   8.504   9.108
10859SOL    HW134416   0.562   8.588   9.154
10859SOL    HW234417   0.469   8.495   9.080
10860SOL     OW34418  12.089  14.156  11.854
10860SOL    HW134419  12.072  14.072  11.897
10860SOL    HW234420  12.174  14.144  11.811
10861SOL     OW34421   1.661  10.025  12.345
10861SOL    HW134422   1.590   9.977  12.389
10861SOL    HW234423   1.693   9.964  12.278
10862SOL     OW34424   8.038  12.093   9.915
10862SOL    HW134425   7.944  12.077   9.924
10862SOL    HW234426   8.070  12.106  10.004
10863SOL     OW34427   6.842   7.422   2.626
10863SOL    HW134428   6.895   7.485   2.576
10863SOL    HW234429   6.904   7.379   2.684
10864SOL     OW34430  10.170  12.447   1.661
10864SOL    HW134431  10.085  12.405   1.663
10864SOL    HW234432  10.196  12.446   1.569
10865SOL     OW34433   8.652   6.169   3.142
10865SOL    HW134434   8.707   6.131   3.073
10865SOL    HW234435   8.710   6.179   3.217
10866SOL     OW34436   0.428   2.310   8.815
10866SOL    HW134437   0.488   2.299   8.889
10866SOL    HW234438   0.346   2.270   8.846
10867SOL     OW34439   6.231  11.301   2.394
10867SOL    HW134440   6.226  11.331   2.303
10867SOL    HW234441   6.209  11.378   2.446
10868SOL     OW34442   0.201   4.325  10.852
10868SOL    HW134443   0.225   4.418  10.859
10868SOL    HW234444   0.112   4.321  10.888
10869SOL     OW34445   8.239   9.731   2.212
10869SOL    HW134446   8.194   9.652   2.181
10869SOL    HW234447   8.294   9.701   2.284
10870SOL     OW34448  13.046  12.238   2.505
10870SOL    HW134449  13.113  12.277   2.449
10870SOL    HW234450  13.078  12.251   2.594
10871SOL     OW34451   8.581   0.313  10.644
10871SOL    HW134452   8.537   0.395  10.667
10871SOL    HW234453   8.530   0.279  10.570
10872SOL     OW34454   5.050  11.843   4.903
10872SOL    HW134455   4.990  11.775   4.935
10872SOL    HW234456   5.024  11.922   4.951
10873SOL     OW34457  11.510  10.081  10.656
10873SOL    HW134458  11.461  10.144  10.604
10873SOL    HW234459  11.443  10.027  10.699
10874SOL     OW34460  10.580   9.551   0.142
10874SOL    HW134461  10.581   9.506   0.058
10874SOL    HW234462  10.608   9.641   0.122
10875SOL     OW34463   6.619  11.234  11.039
10875SOL    HW134464   6.620  11.138  11.045
10875SOL    HW234465   6.667  11.253  10.959
10876SOL     OW34466  10.342   3.570   8.476
10876SOL    HW134467  10.258   3.536   8.506
10876SOL    HW234468  10.406   3.504   8.504
10877SOL     OW34469   1.836  11.766   6.604
10877SOL    HW134470   1.856  11.678   6.636
10877SOL    HW234471   1.902  11.822   6.645
10878SOL     OW34472  11.725  10.302   0.827
10878SOL    HW134473  11.669  10.263   0.761
10878SOL    HW234474  11.766  10.228   0.871
10879SOL     OW34475   4.295   8.581  12.301
10879SOL    HW134476   4.270   8.535  12.221
10879SOL    HW234477   4.313   8.512  12.364
10880SOL     OW34478  13.051   1.773  13.705
10880SOL    HW134479  12.966   1.739  13.733
10880SOL    HW234480  13.077   1.715  13.633
10881SOL     OW34481  12.373   4.671  10.468
10881SOL    HW134482  12.388   4.651  10.376
10881SOL    HW234483  12.458   4.658  10.510
10882SOL     OW34484  13.360   0.237  14.689
10882SOL    HW134485  13.397   0.287  14.762
10882SOL    HW234486  13.280   0.284  14.665
10883SOL     OW34487  13.748   7.652  14.515
10883SOL    HW134488  13.670   7.616  14.473
10883SOL    HW234489  13.807   7.673  14.442
10884SOL     OW34490   4.503   3.179  11.947
10884SOL    HW134491   4.495   3.265  11.989
10884SOL    HW234492   4.521   3.199  11.855
10885SOL     OW34493   3.816  14.719   4.828
10885SOL    HW134494   3.890  14.775   4.849
10885SOL    HW234495   3.752  14.778   4.786
10886SOL     OW34496   1.206   8.815   6.595
10886SOL    HW134497   1.271   8.773   6.652
10886SOL    HW234498   1.253   8.887   6.554
10887SOL     OW34499  12.182   9.877  11.251
10887SOL    HW134500  12.119   9.824  11.202
10887SOL    HW234501  12.163   9.967  11.225
10888SOL     OW34502   4.617  14.253  13.133
10888SOL    HW134503   4.606  14.348  13.135
10888SOL    HW234504   4.590  14.224  13.220
10889SOL     OW34505   4.250   5.656  10.423
10889SOL    HW134506   4.193   5.730  10.400
10889SOL    HW234507   4.257   5.660  10.518
10890SOL     OW34508   3.984   4.921   8.696
10890SOL    HW134509   4.075   4.893   8.685
10890SOL    HW234510   3.933   4.841   8.691
10891SOL     OW34511   1.877   9.837  13.133
10891SOL    HW134512   1.838   9.883  13.059
10891SOL    HW234513   1.887   9.903  13.201
10892SOL     OW34514   3.736   0.554   9.353
10892SOL    HW134515   3.707   0.466   9.329
10892SOL    HW234516   3.757   0.548   9.446
10893SOL     OW34517   5.877  10.451  10.156
10893SOL    HW134518   5.873  10.481  10.066
10893SOL    HW234519   5.786  10.431  10.179
10894SOL     OW34520   1.475   2.480   6.677
10894SOL    HW134521   1.406   2.542   6.653
10894SOL    HW234522   1.495   2.434   6.596
10895SOL     OW34523   2.594   4.092   5.363
10895SOL    HW134524   2.560   4.003   5.367
10895SOL    HW234525   2.523   4.146   5.397
10896SOL     OW34526  10.845   0.631  10.879
10896SOL    HW134527  10.870   0.698  10.943
10896SOL    HW234528  10.929   0.600  10.843
10897SOL     OW34529  11.575   4.368   3.371
10897SOL    HW134530  11.579   4.361   3.275
10897SOL    HW234531  11.491   4.331   3.395
10898SOL     OW34532  13.151   4.724  10.440
10898SOL    HW134533  13.214   4.784  10.479
10898SOL    HW234534  13.092   4.780  10.390
10899SOL     OW34535   0.532   6.174   8.192
10899SOL    HW134536   0.487   6.096   8.160
10899SOL    HW234537   0.512   6.242   8.128
10900SOL     OW34538  14.536   9.186   5.107
10900SOL    HW134539  14.585   9.214   5.030
10900SOL    HW234540  14.581   9.107   5.138
10901SOL     OW34541   4.402  10.597  14.267
10901SOL    HW134542   4.368  10.662  14.207
10901SOL    HW234543   4.392  10.636  14.354
10902SOL     OW34544   4.998   9.092   5.272
10902SOL    HW134545   4.920   9.089   5.327
10902SOL    HW234546   5.069   9.112   5.332
10903SOL     OW34547   1.164   4.678   8.461
10903SOL    HW134548   1.093   4.712   8.408
10903SOL    HW234549   1.166   4.584   8.443
10904SOL     OW34550  11.909  10.731   9.919
10904SOL    HW134551  11.816  10.711   9.915
10904SOL    HW234552  11.940  10.715   9.830
10905SOL     OW34553   4.303  14.813   9.478
10905SOL    HW134554   4.220  14.788   9.517
10905SOL    HW234555   4.327   0.015   9.522
10906SOL     OW34556   7.295   6.525   8.174
10906SOL    HW134557   7.282   6.566   8.259
10906SOL    HW234558   7.390   6.522   8.163
10907SOL     OW34559   5.060   5.441   7.590
10907SOL    HW134560   5.126   5.506   7.566
10907SOL    HW234561   5.020   5.416   7.506
10908SOL     OW34562   0.628   0.528   5.423
10908SOL    HW134563   0.707   0.563   5.463
10908SOL    HW234564   0.595   0.463   5.486
10909SOL     OW34565   8.703   6.900   0.857
10909SOL    HW134566   8.781   6.956   0.857
10909SOL    HW234567   8.738   6.811   0.859
10910SOL     OW34568  10.487   2.288   1.377
10910SOL    HW134569  10.394   2.272   1.394
10910SOL    HW234570  10.490   2.376   1.342
10911SOL     OW34571  11.104   8.449   4.363
10911SOL    HW134572  11.141   8.383   4.422
10911SOL    HW234573  11.011   8.453   4.387
10912SOL     OW34574  11.793   7.817   6.341
10912SOL    HW134575  11.844   7.760   6.284
10912SOL    HW234576  11.804   7.779   6.428
10913SOL     OW34577   7.302   3.179   8.484
10913SOL    HW134578   7.246   3.104   8.506
10913SOL    HW234579   7.373   3.175   8.548
10914SOL     OW34580  14.526   3.537   6.570
10914SOL    HW134581  14.510   3.547   6.664
10914SOL    HW234582  14.603   3.482   6.564
10915SOL     OW34583   2.763   4.878  12.345
10915SOL    HW134584   2.796   4.807  12.290
10915SOL    HW234585   2.681   4.903  12.304
10916SOL     OW34586   4.740  14.595   7.822
10916SOL    HW134587   4.761  14.527   7.886
10916SOL    HW234588   4.668  14.558   7.771
10917SOL     OW34589  11.424  14.740  10.690
10917SOL    HW134590  11.492  14.753  10.625
10917SOL    HW234591  11.380  14.825  10.696
10918SOL     OW34592   2.086   2.898  14.244
10918SOL    HW134593   2.043   2.975  14.281
10918SOL    HW234594   2.150   2.934  14.183
10919SOL     OW34595   0.692   1.231  12.166
10919SOL    HW134596   0.669   1.245  12.258
10919SOL    HW234597   0.634   1.160  12.137
10920SOL     OW34598   4.728  14.869   3.793
10920SOL    HW134599   4.766  14.835   3.874
10920SOL    HW234600   4.750   0.083   3.793
10921SOL     OW34601   6.148   8.597   1.451
10921SOL    HW134602   6.163   8.510   1.414
10921SOL    HW234603   6.235   8.631   1.471
10922SOL     OW34604   1.596   3.315   0.318
10922SOL    HW134605   1.586   3.354   0.405
10922SOL    HW234606   1.562   3.226   0.328
10923SOL     OW34607   8.301  10.091   4.209
10923SOL    HW134608   8.338  10.060   4.126
10923SOL    HW234609   8.250  10.016   4.241
10924SOL     OW34610   2.935   2.648  10.707
10924SOL    HW134611   2.987   2.669  10.630
10924SOL    HW234612   2.999   2.644  10.779
10925SOL     OW34613  12.184  10.206   4.963
10925SOL    HW134614  12.276  10.183   4.981
10925SOL    HW234615  12.159  10.147   4.892
10926SOL     OW34616   0.751   1.699   3.151
10926SOL    HW134617   0.679   1.636   3.154
10926SOL    HW234618   0.809   1.666   3.082
10927SOL     OW34619   7.277  11.231  13.401
10927SOL    HW134620   7.303  11.139  13.396
10927SOL    HW234621   7.354  11.276  13.435
10928SOL     OW34622   8.647   9.940   2.615
10928SOL    HW134623   8.684   9.852   2.605
10928SOL    HW234624   8.616   9.943   2.705
10929SOL     OW34625   6.750  14.863   0.752
10929SOL    HW134626   6.673   0.035   0.728
10929SOL    HW234627   6.822   0.047   0.750
10930SOL     OW34628   3.812   5.269   7.349
10930SOL    HW134629   3.760   5.341   7.385
10930SOL    HW234630   3.759   5.190   7.366
10931SOL     OW34631  14.865   3.564  10.004
10931SOL    HW134632  14.861   3.567   9.908
10931SOL    HW234633   0.038   3.486  10.024
10932SOL     OW34634   0.554   2.231   5.246
10932SOL    HW134635   0.546   2.323   5.223
10932SOL    HW234636   0.646   2.219   5.269
10933SOL     OW34637   4.716   7.216   2.997
10933SOL    HW134638   4.806   7.193   3.020
10933SOL    HW234639   4.677   7.245   3.080
10934SOL     OW34640  11.416   5.396   3.991
10934SOL    HW134641  11.472   5.360   4.060
10934SOL    HW234642  11.438   5.344   3.913
10935SOL     OW34643   3.141   1.707   3.652
10935SOL    HW134644   3.212   1.693   3.589
10935SOL    HW234645   3.095   1.785   3.619
10936SOL     OW34646   4.563   6.888   5.094
10936SOL    HW134647   4.577   6.883   5.188
10936SOL    HW234648   4.651   6.890   5.056
10937SOL     OW34649  14.212   8.197   0.233
10937SOL    HW134650  14.263   8.273   0.260
10937SOL    HW234651  14.211   8.140   0.310
10938SOL     OW34652  12.345  13.557   8.927
10938SOL    HW134653  12.420  13.506   8.897
10938SOL    HW234654  12.377  13.646   8.934
10939SOL     OW34655   5.551   8.104  12.928
10939SOL    HW134656   5.582   8.162  12.997
10939SOL    HW234657   5.457   8.095  12.944
10940SOL     OW34658   7.211   8.624   9.784
10940SOL    HW134659   7.194   8.709   9.826
10940SOL    HW234660   7.133   8.608   9.731
10941SOL     OW34661  10.115   7.269   8.887
10941SOL    HW134662  10.202   7.231   8.891
10941SOL    HW234663  10.062   7.214   8.946
10942SOL     OW34664   3.349   9.057  14.658
10942SOL    HW134665   3.444   9.052  14.672
10942SOL    HW234666   3.332   8.996  14.587
10943SOL     OW34667  11.355   2.507   7.291
10943SOL    HW134668  11.393   2.429   7.250
10943SOL    HW234669  11.405   2.580   7.254
10944SOL     OW34670  12.732  12.831  11.825
10944SOL    HW134671  12.655  12.849  11.772
10944SOL    HW234672  12.722  12.888  11.902
10945SOL     OW34673   6.186   9.258   9.628
10945SOL    HW134674   6.140   9.337   9.655
10945SOL    HW234675   6.129   9.218   9.562
10946SOL     OW34676   6.220   5.868   2.081
10946SOL    HW134677   6.273   5.878   2.002
10946SOL    HW234678   6.192   5.957   2.102
10947SOL     OW34679  12.427  11.358  11.442
10947SOL    HW134680  12.486  11.305  11.494
10947SOL    HW234681  12.372  11.295  11.395
10948SOL     OW34682  10.725   4.294  13.310
10948SOL    HW134683  10.639   4.311  13.349
10948SOL    HW234684  10.745   4.374  13.260
10949SOL     OW34685   1.736   0.763   8.233
10949SOL    HW134686   1.827   0.745   8.258
10949SOL    HW234687   1.692   0.781   8.316
10950SOL     OW34688   8.650   5.752   2.097
10950SOL    HW134689   8.681   5.701   2.172
10950SOL    HW234690   8.589   5.693   2.052
10951SOL     OW34691   6.675   4.852   8.255
10951SOL    HW134692   6.599   4.868   8.199
10951SOL    HW234693   6.734   4.799   8.201
10952SOL     OW34694   5.318  13.582  11.506
10952SOL    HW134695   5.281  13.619  11.586
10952SOL    HW234696   5.277  13.496  11.499
10953SOL     OW34697   6.649   5.757  10.588
10953SOL    HW134698   6.620   5.791  10.503
10953SOL    HW234699   6.589   5.796  10.651
10954SOL     OW34700   9.435   8.303   6.329
10954SOL    HW134701   9.522   8.343   6.328
10954SOL    HW234702   9.389   8.344   6.256
10955SOL     OW34703  14.201   8.923  10.658
10955SOL    HW134704  14.228   8.840  10.698
10955SOL    HW234705  14.143   8.963  10.723
10956SOL     OW34706  13.702  12.369   1.516
10956SOL    HW134707  13.664  12.331   1.437
10956SOL    HW234708  13.718  12.461   1.493
10957SOL     OW34709   4.444   3.563   8.853
10957SOL    HW134710   4.374   3.574   8.918
10957SOL    HW234711   4.404   3.514   8.782
10958SOL     OW34712  11.137   6.418  10.271
10958SOL    HW134713  11.054   6.375  10.246
10958SOL    HW234714  11.124   6.443  10.362
10959SOL     OW34715   2.216   5.338  12.942
10959SOL    HW134716   2.249   5.422  12.910
10959SOL    HW234717   2.293   5.282  12.948
10960SOL     OW34718   5.483   9.674   0.469
10960SOL    HW134719   5.518   9.633   0.390
10960SOL    HW234720   5.538   9.643   0.540
10961SOL     OW34721   7.477   3.404   5.026
10961SOL    HW134722   7.500   3.312   5.043
10961SOL    HW234723   7.560   3.451   5.031
10962SOL     OW34724   1.978   5.028   3.819
10962SOL    HW134725   1.945   5.117   3.826
10962SOL    HW234726   2.009   5.021   3.729
10963SOL     OW34727   9.081  11.122   4.647
10963SOL    HW134728   9.042  11.196   4.599
10963SOL    HW234729   9.080  11.150   4.738
10964SOL     OW34730  10.184  11.847  13.625
10964SOL    HW134731  10.234  11.839  13.543
10964SOL    HW234732  10.092  11.847  13.597
10965SOL     OW34733   2.856   0.920  13.588
10965SOL    HW134734   2.951   0.920  13.577
10965SOL    HW234735   2.822   0.930  13.499
10966SOL     OW34736  11.497   9.523   6.811
10966SOL    HW134737  11.425   9.570   6.768
10966SOL    HW234738  11.490   9.434   6.778
10967SOL     OW34739   2.168  10.574   5.203
10967SOL    HW134740   2.194  10.487   5.233
10967SOL    HW234741   2.133  10.560   5.115
10968SOL     OW34742   5.548  11.566  12.983
10968SOL    HW134743   5.516  11.483  12.948
10968SOL    HW234744   5.595  11.607  12.911
10969SOL     OW34745   8.665   2.384   7.540
10969SOL    HW134746   8.600   2.451   7.519
10969SOL    HW234747   8.619   2.325   7.601
10970SOL     OW34748   2.945  12.776  13.274
10970SOL    HW134749   2.887  12.709  13.309
10970SOL    HW234750   2.951  12.755  13.181
10971SOL     OW34751   1.892  12.981   8.139
10971SOL    HW134752   1.831  13.026   8.198
10971SOL    HW234753   1.899  12.892   8.176
10972SOL     OW34754   7.695   0.292   1.920
10972SOL    HW134755   7.716   0.299   1.827
10972SOL    HW234756   7.636   0.365   1.937
10973SOL     OW34757  12.708   7.546  13.094
10973SOL    HW134758  12.767   7.477  13.064
10973SOL    HW234759  12.765   7.612  13.133
10974SOL     OW34760   2.687   8.598   4.980
10974SOL    HW134761   2.629   8.586   5.055
10974SOL    HW234762   2.772   8.619   5.019
10975SOL     OW34763   0.561  10.081   4.170
10975SOL    HW134764   0.581  10.121   4.254
10975SOL    HW234765   0.574  10.152   4.106
10976SOL     OW34766   2.153   9.992   7.683
10976SOL    HW134767   2.230  10.049   7.684
10976SOL    HW234768   2.078  10.051   7.690
10977SOL     OW34769   9.456   8.807   8.095
10977SOL    HW134770   9.469   8.828   8.187
10977SOL    HW234771   9.368   8.838   8.074
10978SOL     OW34772  14.037  10.455  10.596
10978SOL    HW134773  14.063  10.363  10.600
10978SOL    HW234774  14.080  10.495  10.672
10979SOL     OW34775  13.754   2.084  11.430
10979SOL    HW134776  13.704   2.153  11.385
10979SOL    HW234777  13.743   2.007  11.374
10980SOL     OW34778   8.104   6.916  13.858
10980SOL    HW134779   8.064   6.851  13.799
10980SOL    HW234780   8.196   6.919  13.831
10981SOL     OW34781   5.596  14.763  10.259
10981SOL    HW134782   5.625  14.815  10.184
10981SOL    HW234783   5.504  14.744  10.239
10982SOL     OW34784   0.369   8.539   1.710
10982SOL    HW134785   0.278   8.545   1.681
10982SOL    HW234786   0.364   8.496   1.795
10983SOL     OW34787  13.237   0.905   9.379
10983SOL    HW134788  13.147   0.898   9.346
10983SOL    HW234789  13.267   0.990   9.348
10984SOL     OW34790  14.763   5.714   1.459
10984SOL    HW134791  14.744   5.621   1.446
10984SOL    HW234792  14.724   5.757   1.383
10985SOL     OW34793   1.378  11.332   6.930
10985SOL    HW134794   1.446  11.318   6.996
10985SOL    HW234795   1.324  11.254   6.934
10986SOL     OW34796   9.119   5.551   0.910
10986SOL    HW134797   9.043   5.607   0.925
10986SOL    HW234798   9.169   5.597   0.843
10987SOL     OW34799   3.727   0.860   6.843
10987SOL    HW134800   3.745   0.871   6.750
10987SOL    HW234801   3.646   0.909   6.858
10988SOL     OW34802   6.295   0.076  11.208
10988SOL    HW134803   6.263   0.147  11.263
10988SOL    HW234804   6.294  14.878  11.266
10989SOL     OW34805   5.827  10.215   1.706
10989SOL    HW134806   5.847  10.258   1.789
10989SOL    HW234807   5.908  10.169   1.683
10990SOL     OW34808   6.122   8.891   4.043
10990SOL    HW134809   6.209   8.906   4.079
10990SOL    HW234810   6.070   8.863   4.118
10991SOL     OW34811  11.349   2.604   7.854
10991SOL    HW134812  11.367   2.533   7.916
10991SOL    HW234813  11.283   2.568   7.795
10992SOL     OW34814   0.188   1.468  11.287
10992SOL    HW134815   0.237   1.405  11.340
10992SOL    HW234816   0.148   1.415  11.217
10993SOL     OW34817   8.408   0.475  11.974
10993SOL    HW134818   8.333   0.533  11.959
10993SOL    HW234819   8.484   0.532  11.966
10994SOL     OW34820  13.101  12.468  14.436
10994SOL    HW134821  13.143  12.553  14.454
10994SOL    HW234822  13.024  12.467  14.493
10995SOL     OW34823  13.553  11.039   1.780
10995SOL    HW134824  13.538  10.946   1.796
10995SOL    HW234825  13.566  11.077   1.867
10996SOL     OW34826  14.879  11.070   2.780
10996SOL    HW134827   0.015  11.158   2.813
10996SOL    HW234828   0.084  11.026   2.789
10997SOL     OW34829   7.256   4.141   2.655
10997SOL    HW134830   7.310   4.090   2.596
10997SOL    HW234831   7.192   4.079   2.690
10998SOL     OW34832   0.387   3.078  13.301
10998SOL    HW134833   0.468   3.092  13.350
10998SOL    HW234834   0.350   2.998  13.337
10999SOL     OW34835   2.444   5.051   7.538
10999SOL    HW134836   2.402   5.097   7.466
10999SOL    HW234837   2.427   4.958   7.521
11000SOL     OW34838  13.933  12.028   3.069
11000SOL    HW134839  13.970  11.952   3.114
11000SOL    HW234840  13.897  11.993   2.988
11001SOL     OW34841   6.610   0.294   6.669
11001SOL    HW134842   6.678   0.313   6.604
11001SOL    HW234843   6.607   0.198   6.673
11002SOL     OW34844  10.643   6.890   7.200
11002SOL    HW134845  10.704   6.816   7.195
11002SOL    HW234846  10.625   6.899   7.293
11003SOL     OW34847  12.326  14.610   0.437
11003SOL    HW134848  12.329  14.626   0.343
11003SOL    HW234849  12.233  14.616   0.459
11004SOL     OW34850   7.810  12.058  11.801
11004SOL    HW134851   7.801  12.101  11.715
11004SOL    HW234852   7.904  12.046  11.812
11005SOL     OW34853  12.893  14.323   9.164
11005SOL    HW134854  12.848  14.243   9.135
11005SOL    HW234855  12.973  14.326   9.112
11006SOL     OW34856   1.418  10.331  14.423
11006SOL    HW134857   1.403  10.237  14.413
11006SOL    HW234858   1.513  10.340  14.415
11007SOL     OW34859   6.231   1.372   4.699
11007SOL    HW134860   6.151   1.331   4.733
11007SOL    HW234861   6.242   1.451   4.752
11008SOL     OW34862   0.302   2.835  14.576
11008SOL    HW134863   0.296   2.740  14.571
11008SOL    HW234864   0.396   2.854  14.579
11009SOL     OW34865  14.056   2.468   8.340
11009SOL    HW134866  14.023   2.556   8.360
11009SOL    HW234867  14.077   2.431   8.426
11010SOL     OW34868  10.362   6.059  10.370
11010SOL    HW134869  10.391   6.071  10.460
11010SOL    HW234870  10.292   5.993  10.375
11011SOL     OW34871   0.083   3.792  10.142
11011SOL    HW134872   0.136   3.747  10.208
11011SOL    HW234873   0.070   3.726  10.073
11012SOL     OW34874   3.004  10.950   4.050
11012SOL    HW134875   2.955  11.024   4.087
11012SOL    HW234876   3.075  10.935   4.113
11013SOL     OW34877   6.967  13.950   6.347
11013SOL    HW134878   7.023  14.024   6.324
11013SOL    HW234879   6.961  13.953   6.442
11014SOL     OW34880   4.461  10.392  12.094
11014SOL    HW134881   4.493  10.318  12.146
11014SOL    HW234882   4.539  10.430  12.054
11015SOL     OW34883   7.611   1.555  14.783
11015SOL    HW134884   7.702   1.535  14.805
11015SOL    HW234885   7.617   1.625  14.718
11016SOL     OW34886  14.772   4.862   8.215
11016SOL    HW134887  14.780   4.864   8.311
11016SOL    HW234888  14.817   4.782   8.189
11017SOL     OW34889   8.843  13.163  14.522
11017SOL    HW134890   8.766  13.162  14.465
11017SOL    HW234891   8.847  13.075  14.559
11018SOL     OW34892   5.374   1.804  11.783
11018SOL    HW134893   5.403   1.775  11.870
11018SOL    HW234894   5.280   1.822  11.794
11019SOL     OW34895   7.565  12.247   9.179
11019SOL    HW134896   7.615  12.181   9.130
11019SOL    HW234897   7.524  12.301   9.111
11020SOL     OW34898   1.236  11.295   0.898
11020SOL    HW134899   1.228  11.265   0.988
11020SOL    HW234900   1.155  11.267   0.856
11021SOL     OW34901   1.390   8.357  13.488
11021SOL    HW134902   1.343   8.439  13.474
11021SOL    HW234903   1.383   8.341  13.582
11022SOL     OW34904   9.578  13.206  10.186
11022SOL    HW134905   9.537  13.125  10.157
11022SOL    HW234906   9.670  13.182  10.201
11023SOL     OW34907   1.406  12.145  10.970
11023SOL    HW134908   1.335  12.106  10.918
11023SOL    HW234909   1.405  12.096  11.052
11024SOL     OW34910  12.000   2.830  10.795
11024SOL    HW134911  11.952   2.803  10.873
11024SOL    HW234912  12.092   2.817  10.818
11025SOL     OW34913  11.718   5.438  11.931
11025SOL    HW134914  11.732   5.407  11.842
11025SOL    HW234915  11.623   5.443  11.940
11026SOL     OW34916  10.307   0.928   2.658
11026SOL    HW134917  10.354   0.863   2.711
11026SOL    HW234918  10.263   0.984   2.721
11027SOL     OW34919   5.958   3.334  14.012
11027SOL    HW134920   5.958   3.419  14.057
11027SOL    HW234921   6.043   3.296  14.034
11028SOL     OW34922   2.525  11.509   6.891
11028SOL    HW134923   2.481  11.594   6.885
11028SOL    HW234924   2.607  11.521   6.845
11029SOL     OW34925   8.078   6.192   1.153
11029SOL    HW134926   8.071   6.097   1.160
11029SOL    HW234927   8.163   6.208   1.113
11030SOL     OW34928   4.921  13.187   1.876
11030SOL    HW134929   5.015  13.178   1.860
11030SOL    HW234930   4.893  13.256   1.816
11031SOL     OW34931   0.941   8.957  10.273
11031SOL    HW134932   1.016   9.003  10.311
11031SOL    HW234933   0.920   8.889  10.337
11032SOL     OW34934  10.583  10.619   3.389
11032SOL    HW134935  10.488  10.620   3.400
11032SOL    HW234936  10.607  10.526   3.387
11033SOL     OW34937   0.010   9.040  11.196
11033SOL    HW134938   0.039   8.950  11.205
11033SOL    HW234939  14.795   9.034  11.182
11034SOL     OW34940  11.411   0.980  13.702
11034SOL    HW134941  11.484   1.037  13.725
11034SOL    HW234942  11.446   0.923  13.633
11035SOL     OW34943   3.366  11.250   9.783
11035SOL    HW134944   3.365  11.344   9.801
11035SOL    HW234945   3.310  11.213   9.850
11036SOL     OW34946   6.414   4.469  10.367
11036SOL    HW134947   6.418   4.517  10.285
11036SOL    HW234948   6.320   4.458  10.384
11037SOL     OW34949  10.820   8.802  13.413
11037SOL    HW134950  10.829   8.895  13.430
11037SOL    HW234951  10.821   8.762  13.500
11038SOL     OW34952  10.432   5.206  12.190
11038SOL    HW134953  10.367   5.275  12.206
11038SOL    HW234954  10.515   5.247  12.213
11039SOL     OW34955  14.518  11.440   6.709
11039SOL    HW134956  14.461  11.468   6.637
11039SOL    HW234957  14.600  11.414   6.667
11040SOL     OW34958   3.537  10.328   3.766
11040SOL    HW134959   3.552  10.402   3.825
11040SOL    HW234960   3.595  10.346   3.691
11041SOL     OW34961  10.001  10.562   3.944
11041SOL    HW134962  10.073  10.606   3.989
11041SOL    HW234963   9.950  10.633   3.906
11042SOL     OW34964   4.000   1.488  13.990
11042SOL    HW134965   3.979   1.447  14.074
11042SOL    HW234966   4.043   1.419  13.940
11043SOL     OW34967   4.450  13.455   5.365
11043SOL    HW134968   4.470  13.525   5.426
11043SOL    HW234969   4.516  13.462   5.296
11044SOL     OW34970  12.032   3.258  10.352
11044SOL    HW134971  12.084   3.204  10.412
11044SOL    HW234972  12.015   3.338  10.401
11045SOL     OW34973   3.776  12.212   3.756
11045SOL    HW134974   3.738  12.300   3.759
11045SOL    HW234975   3.702  12.154   3.745
11046SOL     OW34976  13.772   2.436   6.160
11046SOL    HW134977  13.863   2.457   6.139
11046SOL    HW234978  13.757   2.350   6.122
11047SOL     OW34979   0.364  14.712  12.637
11047SOL    HW134980   0.352  14.618  12.647
11047SOL    HW234981   0.359  14.727  12.542
11048SOL     OW34982   5.676   3.199   8.359
11048SOL    HW134983   5.676   3.264   8.429
11048SOL    HW234984   5.711   3.246   8.283
11049SOL     OW34985   1.623  13.827   5.786
11049SOL    HW134986   1.687  13.843   5.855
11049SOL    HW234987   1.634  13.901   5.726
11050SOL     OW34988  12.344  10.566   4.368
11050SOL    HW134989  12.329  10.480   4.329
11050SOL    HW234990  12.438  10.568   4.385
11051SOL     OW34991   0.844   3.310   6.583
11051SOL    HW134992   0.891   3.382   6.542
11051SOL    HW234993   0.758   3.346   6.605
11052SOL     OW34994   0.223  12.139   5.006
11052SOL    HW134995   0.194  12.110   4.920
11052SOL    HW234996   0.201  12.067   5.065
11053SOL     OW34997   2.306   0.831   4.532
11053SOL    HW134998   2.302   0.818   4.437
11053SOL    HW234999   2.265   0.753   4.569
11054SOL     OW35000  13.441  14.665   7.350
11054SOL    HW135001  13.475  14.604   7.284
11054SOL    HW235002  13.465  14.625   7.434
11055SOL     OW35003   4.679  13.210   0.874
11055SOL    HW135004   4.718  13.142   0.929
11055SOL    HW235005   4.742  13.283   0.878
11056SOL     OW35006   6.804   5.905   2.689
11056SOL    HW135007   6.845   5.835   2.740
11056SOL    HW235008   6.871   5.973   2.683
11057SOL     OW35009  11.393   2.361  10.221
11057SOL    HW135010  11.413   2.434  10.163
11057SOL    HW235011  11.371   2.289  10.161
11058SOL     OW35012   3.166   4.151   4.195
11058SOL    HW135013   3.176   4.058   4.172
11058SOL    HW235014   3.111   4.150   4.273
11059SOL     OW35015   1.257   8.132   7.886
11059SOL    HW135016   1.297   8.057   7.843
11059SOL    HW235017   1.199   8.170   7.820
11060SOL     OW35018  13.010   5.331   4.943
11060SOL    HW135019  13.016   5.255   4.885
11060SOL    HW235020  12.924   5.368   4.925
11061SOL     OW35021   0.313   1.725  13.773
11061SOL    HW135022   0.233   1.691  13.732
11061SOL    HW235023   0.315   1.818  13.748
11062SOL     OW35024  14.700   4.471  10.593
11062SOL    HW135025  14.772   4.525  10.561
11062SOL    HW235026  14.714   4.463  10.687
11063SOL     OW35027  10.800  13.216   2.236
11063SOL    HW135028  10.722  13.166   2.213
11063SOL    HW235029  10.872  13.172   2.191
11064SOL     OW35030  11.101   9.452  14.773
11064SOL    HW135031  11.058   9.536  14.756
11064SOL    HW235032  11.069   9.425  14.858
11065SOL     OW35033  11.249   1.301   7.799
11065SOL    HW135034  11.234   1.331   7.709
11065SOL    HW235035  11.177   1.338   7.849
11066SOL     OW35036  11.246   9.489  13.143
11066SOL    HW135037  11.221   9.499  13.235
11066SOL    HW235038  11.267   9.396  13.134
11067SOL     OW35039   5.434   6.002   9.511
11067SOL    HW135040   5.422   5.911   9.485
11067SOL    HW235041   5.387   6.010   9.594
11068SOL     OW35042  11.251  10.115   5.580
11068SOL    HW135043  11.223  10.145   5.667
11068SOL    HW235044  11.170  10.083   5.539
11069SOL     OW35045  11.854   7.475  10.334
11069SOL    HW135046  11.909   7.524  10.396
11069SOL    HW235047  11.778   7.448  10.386
11070SOL     OW35048   9.762  10.670  14.109
11070SOL    HW135049   9.806  10.743  14.153
11070SOL    HW235050   9.690  10.711  14.061
11071SOL     OW35051  14.631   6.386  12.288
11071SOL    HW135052  14.698   6.387  12.357
11071SOL    HW235053  14.679   6.408  12.208
11072SOL     OW35054   4.783  12.018   4.216
11072SOL    HW135055   4.796  12.102   4.171
11072SOL    HW235056   4.691  11.996   4.200
11073SOL     OW35057   0.503  13.909  13.559
11073SOL    HW135058   0.444  13.930  13.487
11073SOL    HW235059   0.457  13.841  13.608
11074SOL     OW35060   3.148  14.870   7.410
11074SOL    HW135061   3.153   0.058   7.342
11074SOL    HW235062   3.055  14.851   7.419
11075SOL     OW35063   6.636  10.482   4.676
11075SOL    HW135064   6.559  10.443   4.634
11075SOL    HW235065   6.696  10.408   4.687
11076SOL     OW35066   2.754   4.020   4.956
11076SOL    HW135067   2.711   4.094   4.998
11076SOL    HW235068   2.811   3.983   5.024
11077SOL     OW35069   2.459  11.525   3.052
11077SOL    HW135070   2.518  11.566   3.116
11077SOL    HW235071   2.399  11.473   3.105
11078SOL     OW35072   3.238   6.580   9.416
11078SOL    HW135073   3.237   6.499   9.366
11078SOL    HW235074   3.331   6.597   9.431
11079SOL     OW35075   8.419   8.818   3.599
11079SOL    HW135076   8.503   8.858   3.619
11079SOL    HW235077   8.369   8.822   3.681
11080SOL     OW35078   7.463  10.287  14.041
11080SOL    HW135079   7.547  10.327  14.065
11080SOL    HW235080   7.485  10.196  14.020
11081SOL     OW35081   7.809  10.398  13.540
11081SOL    HW135082   7.798  10.312  13.498
11081SOL    HW235083   7.795  10.380  13.633
11082SOL     OW35084   6.508  12.699   9.539
11082SOL    HW135085   6.580  12.659   9.588
11082SOL    HW235086   6.541  12.785   9.514
11083SOL     OW35087  10.372  14.823   7.831
11083SOL    HW135088  10.398  14.753   7.771
11083SOL    HW235089  10.379  14.784   7.918
11084SOL     OW35090  10.575  12.017  12.601
11084SOL    HW135091  10.625  11.971  12.533
11084SOL    HW235092  10.531  12.088  12.555
11085SOL     OW35093   1.796  12.468   4.113
11085SOL    HW135094   1.831  12.486   4.025
11085SOL    HW235095   1.731  12.399   4.100
11086SOL     OW35096   9.180   5.682  12.918
11086SOL    HW135097   9.171   5.640  13.004
11086SOL    HW235098   9.273   5.704  12.912
11087SOL     OW35099  12.371   1.254   1.488
11087SOL    HW135100  12.331   1.232   1.572
11087SOL    HW235101  12.371   1.350   1.486
11088SOL     OW35102  13.028   4.996  11.867
11088SOL    HW135103  13.008   5.019  11.776
11088SOL    HW235104  13.053   4.903  11.863
11089SOL     OW35105   8.908   1.379  13.389
11089SOL    HW135106   8.996   1.340  13.387
11089SOL    HW235107   8.909   1.444  13.319
11090SOL     OW35108   9.218   0.618   1.041
11090SOL    HW135109   9.276   0.543   1.051
11090SOL    HW235110   9.197   0.619   0.948
11091SOL     OW35111  10.464  12.175   3.268
11091SOL    HW135112  10.450  12.082   3.288
11091SOL    HW235113  10.510  12.175   3.185
11092SOL     OW35114  11.188   7.715   7.395
11092SOL    HW135115  11.151   7.710   7.306
11092SOL    HW235116  11.221   7.804   7.402
11093SOL     OW35117  12.372   7.078  14.059
11093SOL    HW135118  12.458   7.086  14.018
11093SOL    HW235119  12.369   6.988  14.091
11094SOL     OW35120   1.514  13.630   2.729
11094SOL    HW135121   1.492  13.717   2.697
11094SOL    HW235122   1.512  13.574   2.651
11095SOL     OW35123   8.485   2.207  13.504
11095SOL    HW135124   8.446   2.135  13.454
11095SOL    HW235125   8.410   2.256  13.537
11096SOL     OW35126  14.255   4.211   5.971
11096SOL    HW135127  14.303   4.146   5.920
11096SOL    HW235128  14.215   4.269   5.906
11097SOL     OW35129  11.171   9.857   2.221
11097SOL    HW135130  11.130   9.937   2.254
11097SOL    HW235131  11.110   9.825   2.154
11098SOL     OW35132   3.748  12.324   0.683
11098SOL    HW135133   3.674  12.265   0.668
11098SOL    HW235134   3.782  12.343   0.595
11099SOL     OW35135  13.074  14.034   5.354
11099SOL    HW135136  13.148  14.079   5.394
11099SOL    HW235137  13.020  14.104   5.319
11100SOL     OW35138   0.270   5.361   6.541
11100SOL    HW135139   0.200   5.324   6.596
11100SOL    HW235140   0.284   5.295   6.473
11101SOL     OW35141   4.059  11.380   6.058
11101SOL    HW135142   4.019  11.414   6.138
11101SOL    HW235143   3.991  11.325   6.019
11102SOL     OW35144   0.756   6.830   7.790
11102SOL    HW135145   0.831   6.804   7.737
11102SOL    HW235146   0.730   6.915   7.755
11103SOL     OW35147  10.434   4.499   8.923
11103SOL    HW135148  10.508   4.546   8.884
11103SOL    HW235149  10.360   4.559   8.917
11104SOL     OW35150  11.312   1.788   3.580
11104SOL    HW135151  11.220   1.813   3.594
11104SOL    HW235152  11.342   1.759   3.666
11105SOL     OW35153  13.632   0.442  13.560
11105SOL    HW135154  13.653   0.471  13.648
11105SOL    HW235155  13.716   0.416  13.522
11106SOL     OW35156   3.797  13.017  13.118
11106SOL    HW135157   3.856  13.053  13.051
11106SOL    HW235158   3.794  12.923  13.099
11107SOL     OW35159   4.212  12.368   6.523
11107SOL    HW135160   4.286  12.368   6.463
11107SOL    HW235161   4.155  12.298   6.491
11108SOL     OW35162   9.252   3.299   6.080
11108SOL    HW135163   9.191   3.331   6.014
11108SOL    HW235164   9.332   3.349   6.065
11109SOL     OW35165   3.943   7.232  13.857
11109SOL    HW135166   4.012   7.257  13.918
11109SOL    HW235167   3.989   7.206  13.778
11110SOL     OW35168   9.088  13.126  13.512
11110SOL    HW135169   8.993  13.131  13.507
11110SOL    HW235170   9.105  13.058  13.578
11111SOL     OW35171   9.973   8.414   0.828
11111SOL    HW135172  10.068   8.405   0.833
11111SOL    HW235173   9.943   8.330   0.793
11112SOL     OW35174  13.537  13.064  11.656
11112SOL    HW135175  13.569  13.104  11.737
11112SOL    HW235176  13.574  12.976  11.656
11113SOL     OW35177   1.269   6.064   3.992
11113SOL    HW135178   1.224   6.146   4.011
11113SOL    HW235179   1.279   6.021   4.077
11114SOL     OW35180   4.140  11.150   1.301
11114SOL    HW135181   4.131  11.148   1.396
11114SOL    HW235182   4.145  11.058   1.276
11115SOL     OW35183   5.664  12.596   6.383
11115SOL    HW135184   5.665  12.513   6.430
11115SOL    HW235185   5.637  12.574   6.295
11116SOL     OW35186  11.376   1.369  12.595
11116SOL    HW135187  11.406   1.457  12.570
11116SOL    HW235188  11.381   1.368  12.690
11117SOL     OW35189   1.054  11.115   5.517
11117SOL    HW135190   1.120  11.045   5.519
11117SOL    HW235191   1.067  11.158   5.433
11118SOL     OW35192   6.025   6.626   4.855
11118SOL    HW135193   6.032   6.702   4.913
11118SOL    HW235194   5.938   6.633   4.816
11119SOL     OW35195   0.882   1.603   5.912
11119SOL    HW135196   0.962   1.573   5.870
11119SOL    HW235197   0.908   1.629   6.000
11120SOL     OW35198   5.583  13.542  14.770
11120SOL    HW135199   5.504  13.595  14.782
11120SOL    HW235200   5.644  13.575  14.837
11121SOL     OW35201  13.028   5.563   3.336
11121SOL    HW135202  12.961   5.578   3.270
11121SOL    HW235203  13.061   5.475   3.318
11122SOL     OW35204   2.457  12.640   9.059
11122SOL    HW135205   2.513  12.567   9.031
11122SOL    HW235206   2.508  12.685   9.126
11123SOL     OW35207  10.083  12.495   8.211
11123SOL    HW135208  10.048  12.529   8.128
11123SOL    HW235209  10.020  12.428   8.238
11124SOL     OW35210   6.024   2.667  12.976
11124SOL    HW135211   6.109   2.638  12.942
11124SOL    HW235212   6.023   2.761  12.960
11125SOL     OW35213   3.162   0.156   4.545
11125SOL    HW135214   3.123   0.071   4.523
11125SOL    HW235215   3.098   0.220   4.514
11126SOL     OW35216   0.818   9.631  10.859
11126SOL    HW135217   0.781   9.697  10.918
11126SOL    HW235218   0.864   9.681  10.792
11127SOL     OW35219   5.252  11.226   7.902
11127SOL    HW135220   5.299  11.176   7.968
11127SOL    HW235221   5.235  11.310   7.943
11128SOL     OW35222   2.816   7.644   2.231
11128SOL    HW135223   2.748   7.578   2.242
11128SOL    HW235224   2.855   7.625   2.145
11129SOL     OW35225  13.857  13.103   6.253
11129SOL    HW135226  13.878  13.040   6.183
11129SOL    HW235227  13.899  13.184   6.224
11130SOL     OW35228   1.995   2.699   5.162
11130SOL    HW135229   2.047   2.751   5.223
11130SOL    HW235230   2.045   2.700   5.081
11131SOL     OW35231  14.735  13.722   0.406
11131SOL    HW135232  14.726  13.772   0.488
11131SOL    HW235233  14.828  13.703   0.400
11132SOL     OW35234   6.580   9.478   6.485
11132SOL    HW135235   6.656   9.456   6.540
11132SOL    HW235236   6.508   9.427   6.522
11133SOL     OW35237  10.719   5.173   0.755
11133SOL    HW135238  10.772   5.245   0.790
11133SOL    HW235239  10.783   5.113   0.716
11134SOL     OW35240   8.247   0.622   0.144
11134SOL    HW135241   8.292   0.554   0.195
11134SOL    HW235242   8.155   0.616   0.171
11135SOL     OW35243   1.776   5.637  11.888
11135SOL    HW135244   1.748   5.653  11.978
11135SOL    HW235245   1.697   5.608  11.843
11136SOL     OW35246   5.743   4.574   5.805
11136SOL    HW135247   5.759   4.663   5.837
11136SOL    HW235248   5.745   4.520   5.883
11137SOL     OW35249   2.663  13.177   1.470
11137SOL    HW135250   2.702  13.210   1.551
11137SOL    HW235251   2.683  13.083   1.470
11138SOL     OW35252   7.896  11.083  14.038
11138SOL    HW135253   7.924  11.044  13.956
11138SOL    HW235254   7.844  11.015  14.081
11139SOL     OW35255  14.666   4.648   7.099
11139SOL    HW135256  14.646   4.739   7.122
11139SOL    HW235257  14.614   4.631   7.020
11140SOL     OW35258  14.007   9.467  11.053
11140SOL    HW135259  14.013   9.424  10.967
11140SOL    HW235260  14.058   9.548  11.042
11141SOL     OW35261   9.821  13.804  13.103
11141SOL    HW135262   9.914  13.787  13.091
11141SOL    HW235263   9.817  13.890  13.147
11142SOL     OW35264   1.224   2.521   4.677
11142SOL    HW135265   1.221   2.462   4.752
11142SOL    HW235266   1.284   2.591   4.703
11143SOL     OW35267   0.881  10.086   0.270
11143SOL    HW135268   0.973  10.103   0.249
11143SOL    HW235269   0.879  10.077   0.365
11144SOL     OW35270  10.344  12.783   0.528
11144SOL    HW135271  10.315  12.872   0.547
11144SOL    HW235272  10.276  12.747   0.471
11145SOL     OW35273  13.621   6.921  14.482
11145SOL    HW135274  13.645   6.988  14.546
11145SOL    HW235275  13.705   6.890  14.448
11146SOL     OW35276   3.135   6.911  10.539
11146SOL    HW135277   3.210   6.888  10.594
11146SOL    HW235278   3.105   6.827  10.504
11147SOL     OW35279  11.493   9.347   7.181
11147SOL    HW135280  11.567   9.310   7.230
11147SOL    HW235281  11.431   9.274   7.174
11148SOL     OW35282   3.874  11.659   9.085
11148SOL    HW135283   3.942  11.721   9.059
11148SOL    HW235284   3.822  11.645   9.006
11149SOL     OW35285   2.457   6.627   2.935
11149SOL    HW135286   2.388   6.690   2.913
11149SOL    HW235287   2.525   6.681   2.976
11150SOL     OW35288  12.630  14.430  13.842
11150SOL    HW135289  12.581  14.357  13.878
11150SOL    HW235290  12.677  14.467  13.917
11151SOL     OW35291   4.480  12.082   4.984
11151SOL    HW135292   4.453  11.992   4.967
11151SOL    HW235293   4.527  12.108   4.904
11152SOL     OW35294   2.344   3.383   8.864
11152SOL    HW135295   2.364   3.299   8.825
11152SOL    HW235296   2.425   3.409   8.910
11153SOL     OW35297   7.141  12.516  14.164
11153SOL    HW135298   7.182  12.578  14.103
11153SOL    HW235299   7.200  12.513  14.239
11154SOL     OW35300  10.348   2.468   9.172
11154SOL    HW135301  10.410   2.397   9.155
11154SOL    HW235302  10.390   2.546   9.135
11155SOL     OW35303   7.890   1.024   0.815
11155SOL    HW135304   7.953   1.013   0.886
11155SOL    HW235305   7.820   0.962   0.835
11156SOL     OW35306   8.477   9.680  14.701
11156SOL    HW135307   8.558   9.719  14.736
11156SOL    HW235308   8.462   9.726  14.619
11157SOL     OW35309  11.740  12.624   2.376
11157SOL    HW135310  11.775  12.569   2.305
11157SOL    HW235311  11.760  12.714   2.349
11158SOL     OW35312   0.917   8.194   8.245
11158SOL    HW135313   0.832   8.175   8.284
11158SOL    HW235314   0.964   8.110   8.248
11159SOL     OW35315   9.452   1.216   9.173
11159SOL    HW135316   9.439   1.291   9.116
11159SOL    HW235317   9.543   1.189   9.158
11160SOL     OW35318   8.514   9.396   6.601
11160SOL    HW135319   8.599   9.434   6.581
11160SOL    HW235320   8.455   9.471   6.608
11161SOL     OW35321   7.992  10.768   3.740
11161SOL    HW135322   8.008  10.735   3.651
11161SOL    HW235323   7.952  10.694   3.786
11162SOL     OW35324   8.446   4.008   7.915
11162SOL    HW135325   8.355   4.035   7.929
11162SOL    HW235326   8.439   3.932   7.857
11163SOL     OW35327  10.075  10.833  13.991
11163SOL    HW135328  10.073  10.774  13.916
11163SOL    HW235329  10.074  10.921  13.953
11164SOL     OW35330  11.631  11.218  14.029
11164SOL    HW135331  11.540  11.193  14.014
11164SOL    HW235332  11.629  11.266  14.112
11165SOL     OW35333   6.206   6.334   5.263
11165SOL    HW135334   6.210   6.416   5.313
11165SOL    HW235335   6.157   6.357   5.184
11166SOL     OW35336  13.991   5.921   3.933
11166SOL    HW135337  14.042   5.921   4.014
11166SOL    HW235338  14.057   5.925   3.864
11167SOL     OW35339   9.631   3.494  12.589
11167SOL    HW135340   9.577   3.564  12.552
11167SOL    HW235341   9.692   3.538  12.647
11168SOL     OW35342   7.466  11.680  13.847
11168SOL    HW135343   7.532  11.665  13.914
11168SOL    HW235344   7.410  11.603  13.850
11169SOL     OW35345   9.662   0.801   4.404
11169SOL    HW135346   9.716   0.751   4.465
11169SOL    HW235347   9.597   0.845   4.460
11170SOL     OW35348   0.013   2.018   2.936
11170SOL    HW135349  14.869   2.108   2.958
11170SOL    HW235350   0.058   2.026   2.851
11171SOL     OW35351   2.548   3.695   0.847
11171SOL    HW135352   2.612   3.624   0.852
11171SOL    HW235353   2.464   3.651   0.832
11172SOL     OW35354   3.189  14.139   9.899
11172SOL    HW135355   3.195  14.099   9.986
11172SOL    HW235356   3.135  14.078   9.848
11173SOL     OW35357   2.047   0.483   2.855
11173SOL    HW135358   2.129   0.492   2.807
11173SOL    HW235359   2.039   0.563   2.906
11174SOL     OW35360   5.850   8.943   4.755
11174SOL    HW135361   5.873   8.856   4.788
11174SOL    HW235362   5.931   8.993   4.759
11175SOL     OW35363  13.494   1.766   7.243
11175SOL    HW135364  13.506   1.825   7.169
11175SOL    HW235365  13.452   1.688   7.205
11176SOL     OW35366   1.546   2.792   1.362
11176SOL    HW135367   1.557   2.832   1.448
11176SOL    HW235368   1.635   2.768   1.336
11177SOL     OW35369   2.971  10.410   5.021
11177SOL    HW135370   3.008  10.399   4.934
11177SOL    HW235371   2.938  10.323   5.045
11178SOL     OW35372   9.099   7.072   4.259
11178SOL    HW135373   9.171   7.111   4.209
11178SOL    HW235374   9.061   7.145   4.307
11179SOL     OW35375   4.060  13.563   3.192
11179SOL    HW135376   4.034  13.560   3.284
11179SOL    HW235377   4.105  13.480   3.177
11180SOL     OW35378   3.266  11.596   7.891
11180SOL    HW135379   3.254  11.688   7.869
11180SOL    HW235380   3.182  11.555   7.872
11181SOL     OW35381  12.692   4.621  12.688
11181SOL    HW135382  12.704   4.716  12.689
11181SOL    HW235383  12.729   4.592  12.605
11182SOL     OW35384   7.559   0.621   5.256
11182SOL    HW135385   7.542   0.707   5.293
11182SOL    HW235386   7.623   0.582   5.316
11183SOL     OW35387   0.751   2.732  14.438
11183SOL    HW135388   0.732   2.645  14.472
11183SOL    HW235389   0.832   2.758  14.480
11184SOL     OW35390  12.332   9.100  10.292
11184SOL    HW135391  12.248   9.070  10.327
11184SOL    HW235392  12.335   9.064  10.203
11185SOL     OW35393  11.181   4.678   6.873
11185SOL    HW135394  11.152   4.686   6.782
11185SOL    HW235395  11.276   4.695   6.869
11186SOL     OW35396  14.163   3.877  14.409
11186SOL    HW135397  14.082   3.859  14.361
11186SOL    HW235398  14.222   3.913  14.343
11187SOL     OW35399   3.249   0.324   5.334
11187SOL    HW135400   3.281   0.317   5.424
11187SOL    HW235401   3.298   0.258   5.285
11188SOL     OW35402   3.863   3.993   2.444
11188SOL    HW135403   3.813   3.929   2.494
11188SOL    HW235404   3.952   3.989   2.479
11189SOL     OW35405   5.376  10.375  11.337
11189SOL    HW135406   5.453  10.417  11.375
11189SOL    HW235407   5.326  10.345  11.412
11190SOL     OW35408  12.880  12.263   7.424
11190SOL    HW135409  12.939  12.270   7.499
11190SOL    HW235410  12.792  12.265   7.462
11191SOL     OW35411   6.815  11.895   0.417
11191SOL    HW135412   6.726  11.871   0.444
11191SOL    HW235413   6.871  11.826   0.453
11192SOL     OW35414   4.673   2.728  10.453
11192SOL    HW135415   4.650   2.783  10.378
11192SOL    HW235416   4.763   2.753  10.474
11193SOL     OW35417   6.980   6.074   2.591
11193SOL    HW135418   6.980   6.155   2.540
11193SOL    HW235419   7.073   6.049   2.597
11194SOL     OW35420   4.025   6.503  13.666
11194SOL    HW135421   4.053   6.526  13.754
11194SOL    HW235422   4.099   6.527  13.610
11195SOL     OW35423  13.263   8.230   5.967
11195SOL    HW135424  13.327   8.173   5.924
11195SOL    HW235425  13.290   8.319   5.944
11196SOL     OW35426   5.024   8.207  11.991
11196SOL    HW135427   5.018   8.240  11.902
11196SOL    HW235428   5.054   8.116  11.981
11197SOL     OW35429   5.123   6.280   0.919
11197SOL    HW135430   5.208   6.240   0.938
11197SOL    HW235431   5.144   6.357   0.866
11198SOL     OW35432  11.419  14.439  14.361
11198SOL    HW135433  11.360  14.512  14.379
11198SOL    HW235434  11.362  14.372  14.323
11199SOL     OW35435   0.384  13.875  14.248
11199SOL    HW135436   0.390  13.797  14.304
11199SOL    HW235437   0.475  13.900  14.232
11200SOL     OW35438   0.963   2.828   3.098
11200SOL    HW135439   1.048   2.859   3.068
11200SOL    HW235440   0.929   2.900   3.152
11201SOL     OW35441  11.055   3.516  13.589
11201SOL    HW135442  11.041   3.598  13.543
11201SOL    HW235443  10.972   3.469  13.579
11202SOL     OW35444   4.334   2.184   0.662
11202SOL    HW135445   4.306   2.210   0.750
11202SOL    HW235446   4.255   2.152   0.619
11203SOL     OW35447   1.872   3.303   8.157
11203SOL    HW135448   1.808   3.311   8.086
11203SOL    HW235449   1.866   3.387   8.202
11204SOL     OW35450  12.598   3.089   7.138
11204SOL    HW135451  12.517   3.037   7.138
11204SOL    HW235452  12.577   3.165   7.193
11205SOL     OW35453   0.342   5.497  11.873
11205SOL    HW135454   0.283   5.437  11.918
11205SOL    HW235455   0.295   5.580  11.871
11206SOL     OW35456  12.648   4.068   8.583
11206SOL    HW135457  12.578   4.134   8.577
11206SOL    HW235458  12.666   4.061   8.677
11207SOL     OW35459   2.207   9.464   4.808
11207SOL    HW135460   2.147   9.533   4.781
11207SOL    HW235461   2.212   9.473   4.903
11208SOL     OW35462   9.369   7.757  12.492
11208SOL    HW135463   9.343   7.666  12.509
11208SOL    HW235464   9.406   7.787  12.575
11209SOL     OW35465   8.526  14.560   3.067
11209SOL    HW135466   8.452  14.587   3.013
11209SOL    HW235467   8.602  14.569   3.008
11210SOL     OW35468   3.136  10.956  12.056
11210SOL    HW135469   3.077  10.949  11.981
11210SOL    HW235470   3.130  10.872  12.101
11211SOL     OW35471   5.915   5.090   2.322
11211SOL    HW135472   5.934   5.172   2.367
11211SOL    HW235473   5.821   5.076   2.337
11212SOL     OW35474   6.598  11.425   6.184
11212SOL    HW135475   6.618  11.417   6.091
11212SOL    HW235476   6.589  11.335   6.216
11213SOL     OW35477   0.293  11.021   7.628
11213SOL    HW135478   0.264  10.948   7.574
11213SOL    HW235479   0.233  11.093   7.604
11214SOL     OW35480   1.550   9.900   0.306
11214SOL    HW135481   1.590   9.818   0.335
11214SOL    HW235482   1.472   9.873   0.257
11215SOL     OW35483   4.499   0.179   4.042
11215SOL    HW135484   4.429   0.190   4.107
11215SOL    HW235485   4.483   0.092   4.005
11216SOL     OW35486  13.474  10.441  13.394
11216SOL    HW135487  13.403  10.386  13.362
11216SOL    HW235488  13.524  10.465  13.315
11217SOL     OW35489   9.399   4.060   4.250
11217SOL    HW135490   9.343   4.081   4.325
11217SOL    HW235491   9.428   4.145   4.218
11218SOL     OW35492  10.367   8.654  11.504
11218SOL    HW135493  10.434   8.708  11.463
11218SOL    HW235494  10.348   8.697  11.587
11219SOL     OW35495   0.869   1.624   8.396
11219SOL    HW135496   0.865   1.679   8.475
11219SOL    HW235497   0.935   1.667   8.341
11220SOL     OW35498   1.463   4.323   1.540
11220SOL    HW135499   1.395   4.384   1.511
11220SOL    HW235500   1.532   4.331   1.474
11221SOL     OW35501   2.440   6.598   4.070
11221SOL    HW135502   2.419   6.594   4.164
11221SOL    HW235503   2.384   6.531   4.030
11222SOL     OW35504  10.982  13.414   3.300
11222SOL    HW135505  10.919  13.460   3.355
11222SOL    HW235506  10.935  13.338   3.267
11223SOL     OW35507  13.356  13.471   6.952
11223SOL    HW135508  13.385  13.393   6.999
11223SOL    HW235509  13.427  13.535   6.963
11224SOL     OW35510   2.562   9.911   1.400
11224SOL    HW135511   2.589   9.982   1.341
11224SOL    HW235512   2.573   9.832   1.348
11225SOL     OW35513  10.680   8.385   2.585
11225SOL    HW135514  10.681   8.373   2.490
11225SOL    HW235515  10.595   8.351   2.613
11226SOL     OW35516   5.828  13.502   4.989
11226SOL    HW135517   5.897  13.488   4.924
11226SOL    HW235518   5.761  13.436   4.968
11227SOL     OW35519   6.450   6.671   3.796
11227SOL    HW135520   6.384   6.690   3.729
11227SOL    HW235521   6.506   6.603   3.757
11228SOL     OW35522   7.858   5.104  13.901
11228SOL    HW135523   7.894   5.084  13.815
11228SOL    HW235524   7.919   5.167  13.939
11229SOL     OW35525   6.463  12.244  14.297
11229SOL    HW135526   6.556  12.251  14.276
11229SOL    HW235527   6.442  12.152  14.281
11230SOL     OW35528   6.580   7.210   5.623
11230SOL    HW135529   6.535   7.227   5.706
11230SOL    HW235530   6.512   7.220   5.556
11231SOL     OW35531   6.518   4.047   3.522
11231SOL    HW135532   6.495   3.955   3.513
11231SOL    HW235533   6.434   4.093   3.523
11232SOL     OW35534   6.381   1.075  12.210
11232SOL    HW135535   6.416   0.987  12.195
11232SOL    HW235536   6.289   1.069  12.185
11233SOL     OW35537   7.984  10.289   8.104
11233SOL    HW135538   8.032  10.207   8.099
11233SOL    HW235539   7.926  10.288   8.027
11234SOL     OW35540  11.037   8.154   8.192
11234SOL    HW135541  11.113   8.155   8.250
11234SOL    HW235542  11.002   8.066   8.200
11235SOL     OW35543   6.986   3.722  13.095
11235SOL    HW135544   7.035   3.650  13.136
11235SOL    HW235545   6.984   3.700  13.002
11236SOL     OW35546   5.628  11.838   1.421
11236SOL    HW135547   5.710  11.878   1.449
11236SOL    HW235548   5.608  11.775   1.490
11237SOL     OW35549   8.237   0.754   1.293
11237SOL    HW135550   8.243   0.726   1.202
11237SOL    HW235551   8.326   0.745   1.327
11238SOL     OW35552  14.040  12.095   2.393
11238SOL    HW135553  14.092  12.018   2.419
11238SOL    HW235554  13.974  12.059   2.334
11239SOL     OW35555   6.728   0.159   2.864
11239SOL    HW135556   6.729   0.220   2.938
11239SOL    HW235557   6.814   0.116   2.867
11240SOL     OW35558   6.937   4.971   7.478
11240SOL    HW135559   6.942   4.878   7.455
11240SOL    HW235560   6.882   4.974   7.556
11241SOL     OW35561   8.898   4.551   1.694
11241SOL    HW135562   8.864   4.557   1.783
11241SOL    HW235563   8.824   4.518   1.642
11242SOL     OW35564   9.952   0.199   7.870
11242SOL    HW135565   9.875   0.143   7.858
11242SOL    HW235566  10.020   0.159   7.816
11243SOL     OW35567   2.163   6.627   5.755
11243SOL    HW135568   2.202   6.540   5.759
11243SOL    HW235569   2.213   6.679   5.819
11244SOL     OW35570   5.885   0.825   8.781
11244SOL    HW135571   5.929   0.828   8.696
11244SOL    HW235572   5.830   0.746   8.776
11245SOL     OW35573  11.575  13.478   9.667
11245SOL    HW135574  11.644  13.534   9.703
11245SOL    HW235575  11.620  13.399   9.638
11246SOL     OW35576   5.215  12.931   0.829
11246SOL    HW135577   5.141  12.975   0.872
11246SOL    HW235578   5.174  12.876   0.763
11247SOL     OW35579  11.634   1.300  13.512
11247SOL    HW135580  11.642   1.364  13.583
11247SOL    HW235581  11.686   1.225  13.542
11248SOL     OW35582   0.802   1.552   6.642
11248SOL    HW135583   0.753   1.579   6.719
11248SOL    HW235584   0.878   1.504   6.676
11249SOL     OW35585  11.433   1.086   0.714
11249SOL    HW135586  11.478   1.009   0.678
11249SOL    HW235587  11.456   1.085   0.807
11250SOL     OW35588  11.571  10.923   4.579
11250SOL    HW135589  11.579  11.018   4.576
11250SOL    HW235590  11.520  10.905   4.658
11251SOL     OW35591  10.422  11.954   7.134
11251SOL    HW135592  10.502  11.983   7.179
11251SOL    HW235593  10.361  11.933   7.204
11252SOL     OW35594   2.445  13.856   7.691
11252SOL    HW135595   2.360  13.897   7.702
11252SOL    HW235596   2.428  13.781   7.633
11253SOL     OW35597   9.959   5.882   0.859
11253SOL    HW135598   9.906   5.906   0.783
11253SOL    HW235599  10.019   5.815   0.825
11254SOL     OW35600   4.228  10.935   4.188
11254SOL    HW135601   4.316  10.940   4.227
11254SOL    HW235602   4.226  10.849   4.146
11255SOL     OW35603  11.484   1.493   3.304
11255SOL    HW135604  11.433   1.559   3.351
11255SOL    HW235605  11.524   1.541   3.231
11256SOL     OW35606   9.236  12.576   6.739
11256SOL    HW135607   9.192  12.506   6.690
11256SOL    HW235608   9.327  12.572   6.709
11257SOL     OW35609  11.759  13.350   7.795
11257SOL    HW135610  11.762  13.446   7.794
11257SOL    HW235611  11.666  13.329   7.788
11258SOL     OW35612   0.308   7.481   3.949
11258SOL    HW135613   0.214   7.493   3.965
11258SOL    HW235614   0.324   7.389   3.967
11259SOL     OW35615   2.006   6.184   3.322
11259SOL    HW135616   1.994   6.269   3.365
11259SOL    HW235617   2.013   6.122   3.394
11260SOL     OW35618  14.436  13.405   4.252
11260SOL    HW135619  14.487  13.386   4.173
11260SOL    HW235620  14.358  13.350   4.243
11261SOL     OW35621   3.205  14.565   3.904
11261SOL    HW135622   3.121  14.582   3.862
11261SOL    HW235623   3.263  14.632   3.868
11262SOL     OW35624   3.323   1.274   9.642
11262SOL    HW135625   3.304   1.318   9.724
11262SOL    HW235626   3.377   1.336   9.593
11263SOL     OW35627  11.190  14.379   2.096
11263SOL    HW135628  11.126  14.408   2.031
11263SOL    HW235629  11.268  14.358   2.045
11264SOL     OW35630   3.093   3.810   5.604
11264SOL    HW135631   2.999   3.830   5.596
11264SOL    HW235632   3.132   3.892   5.634
11265SOL     OW35633  13.535   7.091   9.323
11265SOL    HW135634  13.480   7.078   9.246
11265SOL    HW235635  13.592   7.014   9.325
11266SOL     OW35636   3.161   1.533  14.609
11266SOL    HW135637   3.087   1.475  14.593
11266SOL    HW235638   3.227   1.507  14.544
11267SOL     OW35639   3.504  13.341   4.428
11267SOL    HW135640   3.501  13.255   4.387
11267SOL    HW235641   3.421  13.348   4.476
11268SOL     OW35642  13.716   9.431   2.807
11268SOL    HW135643  13.629   9.395   2.825
11268SOL    HW235644  13.704   9.525   2.815
11269SOL     OW35645  11.236   5.374   5.780
11269SOL    HW135646  11.299   5.424   5.833
11269SOL    HW235647  11.260   5.396   5.690
11270SOL     OW35648   6.004   9.773   3.020
11270SOL    HW135649   6.092   9.765   3.056
11270SOL    HW235650   5.984   9.866   3.023
11271SOL     OW35651  11.744  14.575   8.979
11271SOL    HW135652  11.661  14.551   9.022
11271SOL    HW235653  11.740  14.530   8.894
11272SOL     OW35654  11.366  14.443   0.763
11272SOL    HW135655  11.280  14.453   0.804
11272SOL    HW235656  11.418  14.516   0.796
11273SOL     OW35657  12.737   5.213   2.398
11273SOL    HW135658  12.775   5.301   2.403
11273SOL    HW235659  12.754   5.185   2.308
11274SOL     OW35660  13.889   3.916   2.219
11274SOL    HW135661  13.945   3.904   2.296
11274SOL    HW235662  13.878   3.827   2.184
11275SOL     OW35663  11.495   2.805  12.815
11275SOL    HW135664  11.404   2.815  12.843
11275SOL    HW235665  11.532   2.742  12.878
11276SOL     OW35666   4.287   3.867   5.961
11276SOL    HW135667   4.334   3.873   6.044
11276SOL    HW235668   4.334   3.926   5.902
11277SOL     OW35669  14.093  14.294  11.948
11277SOL    HW135670  14.098  14.249  11.864
11277SOL    HW235671  14.022  14.357  11.938
11278SOL     OW35672   3.571  12.631  12.848
11278SOL    HW135673   3.659  12.628  12.810
11278SOL    HW235674   3.584  12.615  12.942
11279SOL     OW35675   6.244   7.090   7.915
11279SOL    HW135676   6.289   7.020   7.867
11279SOL    HW235677   6.233   7.160   7.850
11280SOL     OW35678   7.080  12.546   7.858
11280SOL    HW135679   6.985  12.538   7.868
11280SOL    HW235680   7.108  12.460   7.827
11281SOL     OW35681  10.235   7.429   1.166
11281SOL    HW135682  10.170   7.491   1.199
11281SOL    HW235683  10.307   7.435   1.229
11282SOL     OW35684   9.186   8.614   0.606
11282SOL    HW135685   9.095   8.590   0.591
11282SOL    HW235686   9.184   8.674   0.681
11283SOL     OW35687   4.472   5.959   1.806
11283SOL    HW135688   4.511   5.934   1.722
11283SOL    HW235689   4.421   6.037   1.787
11284SOL     OW35690   3.002  14.727   6.439
11284SOL    HW135691   3.094  14.706   6.453
11284SOL    HW235692   2.954  14.652   6.474
11285SOL     OW35693   9.951   4.085   4.146
11285SOL    HW135694  10.026   4.129   4.107
11285SOL    HW235695   9.989   4.020   4.205
11286SOL     OW35696   7.949   7.861   5.157
11286SOL    HW135697   7.990   7.845   5.242
11286SOL    HW235698   7.855   7.861   5.175
11287SOL     OW35699  12.465   9.873   4.835
11287SOL    HW135700  12.405   9.838   4.770
11287SOL    HW235701  12.530   9.922   4.784
11288SOL     OW35702   4.117   5.058  14.651
11288SOL    HW135703   4.068   5.134  14.620
11288SOL    HW235704   4.181   5.095  14.713
11289SOL     OW35705   1.047   2.494   5.823
11289SOL    HW135706   0.994   2.527   5.895
11289SOL    HW235707   1.112   2.437   5.865
11290SOL     OW35708  12.390  10.914   1.918
11290SOL    HW135709  12.433  10.993   1.885
11290SOL    HW235710  12.417  10.846   1.857
11291SOL     OW35711  12.888  13.016   5.194
11291SOL    HW135712  12.906  12.971   5.112
11291SOL    HW235713  12.911  12.954   5.262
11292SOL     OW35714   8.361   0.390   7.208
11292SOL    HW135715   8.397   0.385   7.119
11292SOL    HW235716   8.407   0.321   7.256
11293SOL     OW35717   5.917   6.169   3.609
11293SOL    HW135718   5.975   6.244   3.608
11293SOL    HW235719   5.863   6.179   3.531
11294SOL     OW35720   2.846   0.816   9.079
11294SOL    HW135721   2.853   0.721   9.068
11294SOL    HW235722   2.752   0.833   9.082
11295SOL     OW35723   3.682  14.389   5.118
11295SOL    HW135724   3.602  14.362   5.163
11295SOL    HW235725   3.746  14.320   5.139
11296SOL     OW35726  10.825   6.759   5.747
11296SOL    HW135727  10.764   6.799   5.810
11296SOL    HW235728  10.773   6.693   5.702
11297SOL     OW35729   7.167  11.758   0.264
11297SOL    HW135730   7.163  11.778   0.358
11297SOL    HW235731   7.205  11.837   0.225
11298SOL     OW35732   3.223   3.308   2.545
11298SOL    HW135733   3.178   3.313   2.629
11298SOL    HW235734   3.316   3.299   2.567
11299SOL     OW35735   2.658   5.473   6.258
11299SOL    HW135736   2.709   5.432   6.188
11299SOL    HW235737   2.690   5.433   6.338
11300SOL     OW35738  10.780   0.986  11.918
11300SOL    HW135739  10.725   0.909  11.931
11300SOL    HW235740  10.794   1.021  12.007
11301SOL     OW35741   5.335  13.776   0.504
11301SOL    HW135742   5.419  13.822   0.493
11301SOL    HW235743   5.359  13.694   0.549
11302SOL     OW35744   7.879  14.322   4.748
11302SOL    HW135745   7.934  14.244   4.743
11302SOL    HW235746   7.924  14.378   4.811
11303SOL     OW35747   1.056  10.392   9.075
11303SOL    HW135748   1.027  10.417   8.987
11303SOL    HW235749   1.151  10.410   9.074
11304SOL     OW35750  13.409   9.694  11.427
11304SOL    HW135751  13.445   9.711  11.341
11304SOL    HW235752  13.477   9.722  11.488
11305SOL     OW35753   7.796   2.563  11.263
11305SOL    HW135754   7.764   2.473  11.270
11305SOL    HW235755   7.871   2.567  11.322
11306SOL     OW35756  13.787  11.987   2.557
11306SOL    HW135757  13.771  12.033   2.474
11306SOL    HW235758  13.713  11.927   2.565
11307SOL     OW35759   1.128   8.562  14.800
11307SOL    HW135760   1.156   8.605  14.718
11307SOL    HW235761   1.198   8.499  14.818
11308SOL     OW35762   4.207  13.730  14.274
11308SOL    HW135763   4.182  13.820  14.253
11308SOL    HW235764   4.303  13.731  14.270
11309SOL     OW35765  14.266   9.746  11.661
11309SOL    HW135766  14.235   9.766  11.749
11309SOL    HW235767  14.356   9.779  11.659
11310SOL     OW35768  14.184  13.062   0.003
11310SOL    HW135769  14.275  13.046   0.025
11310SOL    HW235770  14.136  13.040   0.083
11311SOL     OW35771   3.381   7.863  12.210
11311SOL    HW135772   3.385   7.924  12.284
11311SOL    HW235773   3.469   7.825  12.205
11312SOL     OW35774   5.401  10.984   6.285
11312SOL    HW135775   5.414  10.922   6.214
11312SOL    HW235776   5.489  11.004   6.317
11313SOL     OW35777  13.074  10.797   9.631
11313SOL    HW135778  13.088  10.882   9.673
11313SOL    HW235779  13.107  10.808   9.542
11314SOL     OW35780  13.142  14.324   3.582
11314SOL    HW135781  13.191  14.317   3.663
11314SOL    HW235782  13.169  14.408   3.544
11315SOL     OW35783  12.849   9.577   9.203
11315SOL    HW135784  12.760   9.573   9.167
11315SOL    HW235785  12.883   9.488   9.194
11316SOL     OW35786  11.509   5.727   2.982
11316SOL    HW135787  11.485   5.726   2.890
11316SOL    HW235788  11.425   5.731   3.029
11317SOL     OW35789   1.174   7.183   2.107
11317SOL    HW135790   1.191   7.269   2.144
11317SOL    HW235791   1.137   7.132   2.180
11318SOL     OW35792  12.508   2.799   6.886
11318SOL    HW135793  12.552   2.770   6.966
11318SOL    HW235794  12.544   2.886   6.869
11319SOL     OW35795   0.310  10.297   5.846
11319SOL    HW135796   0.353  10.318   5.929
11319SOL    HW235797   0.376  10.253   5.794
11320SOL     OW35798  12.790  10.416   6.138
11320SOL    HW135799  12.785  10.437   6.045
11320SOL    HW235800  12.795  10.501   6.182
11321SOL     OW35801   8.578   1.494   8.218
11321SOL    HW135802   8.506   1.521   8.161
11321SOL    HW235803   8.642   1.455   8.159
11322SOL     OW35804  10.377  13.494  10.769
11322SOL    HW135805  10.462  13.531  10.794
11322SOL    HW235806  10.350  13.545  10.693
11323SOL     OW35807   6.002   8.465   3.540
11323SOL    HW135808   6.030   8.390   3.488
11323SOL    HW235809   6.039   8.541   3.496
11324SOL     OW35810  11.843   6.673  11.027
11324SOL    HW135811  11.931   6.677  10.988
11324SOL    HW235812  11.794   6.615  10.970
11325SOL     OW35813   7.473   6.539   2.487
11325SOL    HW135814   7.477   6.633   2.504
11325SOL    HW235815   7.384   6.523   2.456
11326SOL     OW35816   9.818  13.159   8.795
11326SOL    HW135817   9.751  13.160   8.726
11326SOL    HW235818   9.782  13.099   8.860
11327SOL     OW35819   9.994   3.576   2.231
11327SOL    HW135820  10.016   3.575   2.325
11327SOL    HW235821   9.928   3.508   2.222
11328SOL     OW35822  10.004   1.318   9.062
11328SOL    HW135823  10.086   1.341   9.019
11328SOL    HW235824  10.024   1.238   9.111
11329SOL     OW35825   0.275  11.537   2.205
11329SOL    HW135826   0.366  11.553   2.177
11329SOL    HW235827   0.240  11.478   2.139
11330SOL     OW35828   0.277   7.806   1.399
11330SOL    HW135829   0.301   7.734   1.340
11330SOL    HW235830   0.337   7.797   1.473
11331SOL     OW35831   0.585   5.071   6.243
11331SOL    HW135832   0.525   5.058   6.170
11331SOL    HW235833   0.531   5.059   6.321
11332SOL     OW35834   5.430   1.556   5.048
11332SOL    HW135835   5.453   1.626   4.986
11332SOL    HW235836   5.446   1.475   4.999
11333SOL     OW35837   4.537  10.619  11.410
11333SOL    HW135838   4.618  10.669  11.408
11333SOL    HW235839   4.533  10.583  11.499
11334SOL     OW35840  13.003   7.602   8.474
11334SOL    HW135841  12.978   7.673   8.415
11334SOL    HW235842  12.934   7.601   8.541
11335SOL     OW35843   9.477   6.932  11.281
11335SOL    HW135844   9.412   6.986  11.236
11335SOL    HW235845   9.426   6.870  11.332
11336SOL     OW35846  11.990   5.055   7.236
11336SOL    HW135847  11.984   4.969   7.278
11336SOL    HW235848  11.962   5.040   7.146
11337SOL     OW35849   7.688  11.537  13.180
11337SOL    HW135850   7.705  11.628  13.205
11337SOL    HW235851   7.646  11.543  13.095
11338SOL     OW35852   4.513   3.176   8.415
11338SOL    HW135853   4.570   3.231   8.469
11338SOL    HW235854   4.455   3.132   8.477
11339SOL     OW35855   9.558   5.212  11.894
11339SOL    HW135856   9.648   5.245  11.895
11339SOL    HW235857   9.553   5.151  11.967
11340SOL     OW35858   9.385   7.727   2.886
11340SOL    HW135859   9.446   7.777   2.831
11340SOL    HW235860   9.352   7.658   2.830
11341SOL     OW35861  14.187   7.127   9.834
11341SOL    HW135862  14.146   7.066   9.773
11341SOL    HW235863  14.205   7.074   9.912
11342SOL     OW35864   5.617   6.724   5.658
11342SOL    HW135865   5.611   6.731   5.563
11342SOL    HW235866   5.702   6.761   5.680
11343SOL     OW35867  12.138   4.716   4.318
11343SOL    HW135868  12.093   4.691   4.238
11343SOL    HW235869  12.069   4.727   4.383
11344SOL     OW35870  11.927   7.705  10.452
11344SOL    HW135871  11.954   7.683  10.541
11344SOL    HW235872  11.881   7.788  10.461
11345SOL     OW35873   3.739  12.180  13.668
11345SOL    HW135874   3.691  12.182  13.751
11345SOL    HW235875   3.703  12.252  13.617
11346SOL     OW35876   3.319   1.453   1.437
11346SOL    HW135877   3.380   1.460   1.511
11346SOL    HW235878   3.369   1.407   1.370
11347SOL     OW35879   8.163   6.416   7.862
11347SOL    HW135880   8.150   6.435   7.769
11347SOL    HW235881   8.229   6.347   7.863
11348SOL     OW35882   2.661   5.608   0.130
11348SOL    HW135883   2.683   5.627   0.221
11348SOL    HW235884   2.740   5.567   0.094
11349SOL     OW35885  13.327  12.764  12.550
11349SOL    HW135886  13.358  12.703  12.483
11349SOL    HW235887  13.308  12.844  12.501
11350SOL     OW35888   1.797   6.753  13.229
11350SOL    HW135889   1.707   6.786  13.234
11350SOL    HW235890   1.787   6.658  13.227
11351SOL     OW35891   5.294   3.936  11.953
11351SOL    HW135892   5.369   3.988  11.981
11351SOL    HW235893   5.301   3.855  12.003
11352SOL     OW35894  14.536   4.907  14.615
11352SOL    HW135895  14.600   4.964  14.657
11352SOL    HW235896  14.454   4.956  14.619
11353SOL     OW35897   7.493  13.237   3.082
11353SOL    HW135898   7.518  13.145   3.087
11353SOL    HW235899   7.459  13.257   3.169
11354SOL     OW35900  11.288   3.209   0.702
11354SOL    HW135901  11.196   3.187   0.718
11354SOL    HW235902  11.306   3.281   0.763
11355SOL     OW35903   6.431  13.515  11.710
11355SOL    HW135904   6.376  13.551  11.641
11355SOL    HW235905   6.372  13.502  11.784
11356SOL     OW35906  14.418   4.366   8.986
11356SOL    HW135907  14.440   4.455   9.014
11356SOL    HW235908  14.378   4.326   9.063
11357SOL     OW35909  13.768   7.657   9.094
11357SOL    HW135910  13.721   7.587   9.139
11357SOL    HW235911  13.761   7.635   9.001
11358SOL     OW35912   7.845   6.615  11.677
11358SOL    HW135913   7.756   6.580  11.671
11358SOL    HW235914   7.902   6.539  11.666
11359SOL     OW35915   8.875  12.256   7.879
11359SOL    HW135916   8.949  12.201   7.853
11359SOL    HW235917   8.868  12.244   7.974
11360SOL     OW35918   5.030  11.189  10.963
11360SOL    HW135919   5.083  11.241  11.023
11360SOL    HW235920   5.028  11.241  10.882
11361SOL     OW35921   8.265  14.047   5.701
11361SOL    HW135922   8.197  14.106   5.732
11361SOL    HW235923   8.330  14.045   5.772
11362SOL     OW35924   7.428   6.145  13.758
11362SOL    HW135925   7.460   6.138  13.848
11362SOL    HW235926   7.334   6.161  13.768
11363SOL     OW35927   5.338  11.438   9.480
11363SOL    HW135928   5.245  11.417   9.494
11363SOL    HW235929   5.377  11.429   9.567
11364SOL     OW35930  11.307   5.453   7.775
11364SOL    HW135931  11.393   5.492   7.760
11364SOL    HW235932  11.325   5.360   7.787
11365SOL     OW35933   8.344   6.679  11.716
11365SOL    HW135934   8.300   6.616  11.658
11365SOL    HW235935   8.430   6.693  11.676
11366SOL     OW35936   7.431  11.404   5.599
11366SOL    HW135937   7.391  11.352   5.530
11366SOL    HW235938   7.488  11.466   5.553
11367SOL     OW35939   9.098   6.095  14.004
11367SOL    HW135940   9.193   6.096  13.990
11367SOL    HW235941   9.086   6.142  14.087
11368SOL     OW35942   0.607   1.055   9.469
11368SOL    HW135943   0.520   1.018   9.457
11368SOL    HW235944   0.600   1.111   9.546
11369SOL     OW35945   3.674  14.471  11.122
11369SOL    HW135946   3.703  14.397  11.175
11369SOL    HW235947   3.579  14.461  11.115
11370SOL     OW35948   6.377  12.664  12.076
11370SOL    HW135949   6.366  12.679  11.982
11370SOL    HW235950   6.320  12.590  12.096
11371SOL     OW35951  14.625  13.080   7.474
11371SOL    HW135952  14.709  13.048   7.441
11371SOL    HW235953  14.560  13.019   7.439
11372SOL     OW35954  12.882   2.136  12.626
11372SOL    HW135955  12.856   2.075  12.557
11372SOL    HW235956  12.911   2.081  12.698
11373SOL     OW35957   2.284   6.529  13.628
11373SOL    HW135958   2.351   6.480  13.675
11373SOL    HW235959   2.313   6.620  13.633
11374SOL     OW35960  12.394  11.174  10.590
11374SOL    HW135961  12.415  11.097  10.538
11374SOL    HW235962  12.457  11.172  10.663
11375SOL     OW35963   1.630   8.709   4.162
11375SOL    HW135964   1.573   8.752   4.226
11375SOL    HW235965   1.639   8.773   4.091
11376SOL     OW35966   7.727   7.372   6.780
11376SOL    HW135967   7.817   7.401   6.793
11376SOL    HW235968   7.734   7.277   6.773
11377SOL     OW35969   3.671   0.242   6.081
11377SOL    HW135970   3.731   0.278   6.147
11377SOL    HW235971   3.724   0.234   6.002
11378SOL     OW35972  12.412  12.624   0.338
11378SOL    HW135973  12.328  12.594   0.305
11378SOL    HW235974  12.393  12.708   0.379
11379SOL     OW35975   8.894   1.965   3.846
11379SOL    HW135976   8.954   2.036   3.824
11379SOL    HW235977   8.815   1.983   3.795
11380SOL     OW35978   8.220  14.114   1.268
11380SOL    HW135979   8.275  14.036   1.257
11380SOL    HW235980   8.208  14.148   1.180
11381SOL     OW35981   3.563   3.920   7.242
11381SOL    HW135982   3.520   3.986   7.297
11381SOL    HW235983   3.578   3.846   7.301
11382SOL     OW35984   1.015  11.795   4.545
11382SOL    HW135985   0.962  11.841   4.480
11382SOL    HW235986   1.049  11.865   4.601
11383SOL     OW35987   1.982   0.163   0.130
11383SOL    HW135988   2.029   0.231   0.179
11383SOL    HW235989   1.991   0.189   0.039
11384SOL     OW35990  12.147  14.752   1.777
11384SOL    HW135991  12.120  14.665   1.806
11384SOL    HW235992  12.225  14.772   1.829
11385SOL     OW35993   6.416  10.660   9.394
11385SOL    HW135994   6.421  10.621   9.481
11385SOL    HW235995   6.505  10.654   9.360
11386SOL     OW35996   4.281   0.423  12.905
11386SOL    HW135997   4.207   0.400  12.960
11386SOL    HW235998   4.330   0.341  12.895
11387SOL     OW35999   7.408   8.933   9.572
11387SOL    HW136000   7.372   9.022   9.562
11387SOL    HW236001   7.440   8.931   9.662
11388SOL     OW36002   6.680   6.973  14.029
11388SOL    HW136003   6.736   6.927  14.092
11388SOL    HW236004   6.594   6.932  14.039
11389SOL     OW36005   2.236   1.461   4.284
11389SOL    HW136006   2.296   1.532   4.261
11389SOL    HW236007   2.293   1.387   4.303
11390SOL     OW36008   3.685   0.137   0.393
11390SOL    HW136009   3.651   0.130   0.304
11390SOL    HW236010   3.609   0.123   0.450
11391SOL     OW36011   1.693  10.164   6.651
11391SOL    HW136012   1.677  10.256   6.630
11391SOL    HW236013   1.641  10.148   6.730
11392SOL     OW36014   3.579   7.244   0.133
11392SOL    HW136015   3.600   7.214   0.044
11392SOL    HW236016   3.542   7.167   0.176
11393SOL     OW36017   4.124   5.580   5.950
11393SOL    HW136018   4.142   5.666   5.989
11393SOL    HW236019   4.191   5.571   5.882
11394SOL     OW36020  13.513   5.550   8.356
11394SOL    HW136021  13.501   5.524   8.264
11394SOL    HW236022  13.486   5.642   8.358
11395SOL     OW36023  12.882  14.486  14.260
11395SOL    HW136024  12.810  14.424  14.268
11395SOL    HW236025  12.875  14.520  14.170
11396SOL     OW36026  10.988   3.206   7.418
11396SOL    HW136027  11.042   3.282   7.437
11396SOL    HW236028  10.913   3.215   7.476
11397SOL     OW36029  12.057   2.446   3.663
11397SOL    HW136030  12.087   2.365   3.622
11397SOL    HW236031  12.012   2.418   3.743
11398SOL     OW36032   8.486  14.246   2.850
11398SOL    HW136033   8.516  14.331   2.820
11398SOL    HW236034   8.411  14.265   2.907
11399SOL     OW36035   7.280  10.103   7.925
11399SOL    HW136036   7.323  10.082   7.843
11399SOL    HW236037   7.209  10.039   7.932
11400SOL     OW36038   0.315   3.629   0.399
11400SOL    HW136039   0.312   3.707   0.455
11400SOL    HW236040   0.235   3.581   0.419
11401SOL     OW36041  13.564  11.267   1.652
11401SOL    HW136042  13.556  11.184   1.699
11401SOL    HW236043  13.614  11.246   1.573
11402SOL     OW36044   7.483   4.690   3.457
11402SOL    HW136045   7.461   4.680   3.550
11402SOL    HW236046   7.494   4.600   3.426
11403SOL     OW36047  10.051  11.072   7.164
11403SOL    HW136048   9.992  10.997   7.164
11403SOL    HW236049  10.086  11.075   7.075
11404SOL     OW36050   6.566  13.944   8.945
11404SOL    HW136051   6.472  13.965   8.939
11404SOL    HW236052   6.580  13.925   9.038
11405SOL     OW36053   3.191   8.127   2.921
11405SOL    HW136054   3.282   8.140   2.947
11405SOL    HW236055   3.193   8.119   2.826
11406SOL     OW36056   6.038   6.963  14.856
11406SOL    HW136057   6.056   7.039  14.801
11406SOL    HW236058   6.064   6.888  14.803
11407SOL     OW36059  12.840   4.345   0.185
11407SOL    HW136060  12.811   4.259   0.215
11407SOL    HW236061  12.934   4.334   0.171
11408SOL     OW36062   9.947   2.945   3.487
11408SOL    HW136063   9.991   2.865   3.457
11408SOL    HW236064   9.855   2.930   3.466
11409SOL     OW36065   5.853  13.752  10.985
11409SOL    HW136066   5.932  13.768  10.932
11409SOL    HW236067   5.850  13.657  10.995
11410SOL     OW36068   8.250  10.642   0.778
11410SOL    HW136069   8.251  10.588   0.857
11410SOL    HW236070   8.292  10.588   0.712
11411SOL     OW36071   3.560   5.178   3.850
11411SOL    HW136072   3.590   5.108   3.793
11411SOL    HW236073   3.640   5.215   3.888
11412SOL     OW36074   9.320   3.249  11.698
11412SOL    HW136075   9.228   3.272  11.708
11412SOL    HW236076   9.322   3.153  11.703
11413SOL     OW36077   8.599   1.601   8.627
11413SOL    HW136078   8.620   1.626   8.536
11413SOL    HW236079   8.601   1.684   8.675
11414SOL     OW36080  10.530  12.940   7.995
11414SOL    HW136081  10.564  12.891   8.070
11414SOL    HW236082  10.607  12.979   7.955
11415SOL     OW36083   2.091   8.768   3.741
11415SOL    HW136084   2.144   8.711   3.797
11415SOL    HW236085   2.154   8.817   3.689
11416SOL     OW36086   2.044   4.236  11.874
11416SOL    HW136087   2.045   4.227  11.779
11416SOL    HW236088   1.973   4.178  11.903
11417SOL     OW36089  11.524   6.441   5.607
11417SOL    HW136090  11.540   6.535   5.594
11417SOL    HW236091  11.451   6.438   5.670
11418SOL     OW36092  13.529   3.496   0.437
11418SOL    HW136093  13.617   3.521   0.467
11418SOL    HW236094  13.527   3.401   0.445
11419SOL     OW36095   2.234   9.548   1.958
11419SOL    HW136096   2.168   9.577   2.021
11419SOL    HW236097   2.271   9.629   1.923
11420SOL     OW36098   7.465  14.564  13.127
11420SOL    HW136099   7.490  14.498  13.063
11420SOL    HW236100   7.530  14.555  13.197
11421SOL     OW36101  13.489   7.598   0.397
11421SOL    HW136102  13.534   7.530   0.447
11421SOL    HW236103  13.401   7.565   0.385
11422SOL     OW36104   8.043   6.725   3.469
11422SOL    HW136105   8.096   6.805   3.466
11422SOL    HW236106   7.954   6.757   3.484
11423SOL     OW36107   7.223   7.068   6.056
11423SOL    HW136108   7.192   6.980   6.033
11423SOL    HW236109   7.301   7.081   6.003
11424SOL     OW36110   9.232   9.547   8.198
11424SOL    HW136111   9.213   9.617   8.136
11424SOL    HW236112   9.202   9.581   8.282
11425SOL     OW36113   0.553   9.191   8.175
11425SOL    HW136114   0.573   9.282   8.154
11425SOL    HW236115   0.461   9.179   8.150
11426SOL     OW36116   7.689  10.186   2.676
11426SOL    HW136117   7.694  10.281   2.670
11426SOL    HW236118   7.596  10.168   2.692
11427SOL     OW36119   3.078   9.987  12.624
11427SOL    HW136120   3.076  10.036  12.542
11427SOL    HW236121   3.170   9.992  12.653
11428SOL     OW36122   4.119   1.921  12.499
11428SOL    HW136123   4.076   1.852  12.548
11428SOL    HW236124   4.051   1.987  12.485
11429SOL     OW36125  12.108  12.224   4.955
11429SOL    HW136126  12.037  12.175   4.996
11429SOL    HW236127  12.101  12.312   4.992
11430SOL     OW36128   4.624  13.485  14.576
11430SOL    HW136129   4.690  13.470  14.644
11430SOL    HW236130   4.670  13.532  14.507
11431SOL     OW36131   1.924   1.291  10.442
11431SOL    HW136132   1.959   1.274  10.355
11431SOL    HW236133   1.978   1.238  10.500
11432SOL     OW36134   5.739   3.023  13.021
11432SOL    HW136135   5.660   2.969  13.017
11432SOL    HW236136   5.706   3.112  13.033
11433SOL     OW36137   6.777   4.058   9.589
11433SOL    HW136138   6.765   4.146   9.623
11433SOL    HW236139   6.730   4.058   9.505
11434SOL     OW36140   5.881  11.293   9.005
11434SOL    HW136141   5.963  11.250   8.979
11434SOL    HW236142   5.884  11.378   8.960
11435SOL     OW36143   7.768   1.111   9.521
11435SOL    HW136144   7.719   1.072   9.448
11435SOL    HW236145   7.859   1.089   9.502
11436SOL     OW36146   0.476   7.927   7.474
11436SOL    HW136147   0.514   7.840   7.488
11436SOL    HW236148   0.382   7.912   7.476
11437SOL     OW36149   4.514   7.510  13.454
11437SOL    HW136150   4.534   7.447  13.384
11437SOL    HW236151   4.570   7.585  13.436
11438SOL     OW36152   1.575   2.400   1.093
11438SOL    HW136153   1.602   2.407   1.185
11438SOL    HW236154   1.580   2.307   1.073
11439SOL     OW36155   2.746   0.147   2.057
11439SOL    HW136156   2.715   0.078   2.116
11439SOL    HW236157   2.709   0.124   1.971
11440SOL     OW36158  11.488   5.444   6.997
11440SOL    HW136159  11.442   5.444   6.913
11440SOL    HW236160  11.464   5.527   7.038
11441SOL     OW36161   2.978  13.879   2.584
11441SOL    HW136162   2.977  13.881   2.488
11441SOL    HW236163   2.999  13.969   2.609
11442SOL     OW36164  12.585  10.146   8.495
11442SOL    HW136165  12.618  10.069   8.543
11442SOL    HW236166  12.581  10.118   8.404
11443SOL     OW36167   9.615   0.776   7.167
11443SOL    HW136168   9.612   0.682   7.147
11443SOL    HW236169   9.700   0.789   7.208
11444SOL     OW36170  12.642  14.282   6.102
11444SOL    HW136171  12.722  14.229   6.101
11444SOL    HW236172  12.575  14.223   6.068
11445SOL     OW36173  13.939   9.731  12.549
11445SOL    HW136174  13.912   9.657  12.495
11445SOL    HW236175  13.893   9.806  12.514
11446SOL     OW36176  13.949   3.903   0.432
11446SOL    HW136177  14.010   3.877   0.501
11446SOL    HW236178  13.864   3.906   0.475
11447SOL     OW36179   3.429   1.427  12.950
11447SOL    HW136180   3.361   1.494  12.955
11447SOL    HW236181   3.504   1.466  12.994
11448SOL     OW36182   6.170  12.279   0.927
11448SOL    HW136183   6.167  12.342   0.999
11448SOL    HW236184   6.261  12.283   0.896
11449SOL     OW36185   0.493   8.903   3.911
11449SOL    HW136186   0.477   8.995   3.890
11449SOL    HW236187   0.505   8.860   3.826
11450SOL     OW36188   1.773  14.673   8.719
11450SOL    HW136189   1.820  14.590   8.709
11450SOL    HW236190   1.696  14.651   8.772
11451SOL     OW36191  13.269   8.206  11.642
11451SOL    HW136192  13.180   8.213  11.677
11451SOL    HW236193  13.326   8.218  11.718
11452SOL     OW36194   4.751   7.526   4.860
11452SOL    HW136195   4.800   7.608   4.860
11452SOL    HW236196   4.811   7.461   4.897
11453SOL     OW36197  13.920   4.244   8.423
11453SOL    HW136198  13.984   4.175   8.407
11453SOL    HW236199  13.852   4.230   8.358
11454SOL     OW36200  10.506   5.664   9.526
11454SOL    HW136201  10.591   5.707   9.519
11454SOL    HW236202  10.491   5.655   9.620
11455SOL     OW36203  12.915   0.078  12.157
11455SOL    HW136204  12.984   0.069  12.223
11455SOL    HW236205  12.958   0.061  12.074
11456SOL     OW36206  13.974   5.591   1.470
11456SOL    HW136207  13.936   5.580   1.558
11456SOL    HW236208  13.979   5.502   1.435
11457SOL     OW36209   4.719  12.826  14.531
11457SOL    HW136210   4.775  12.902  14.524
11457SOL    HW236211   4.740  12.788  14.617
11458SOL     OW36212  11.473   0.072  13.239
11458SOL    HW136213  11.471   0.060  13.334
11458SOL    HW236214  11.381   0.076  13.213
11459SOL     OW36215   7.237   3.378   4.445
11459SOL    HW136216   7.192   3.404   4.526
11459SOL    HW236217   7.231   3.454   4.388
11460SOL     OW36218   2.705   9.801   4.952
11460SOL    HW136219   2.711   9.853   4.871
11460SOL    HW236220   2.671   9.862   5.017
11461SOL     OW36221   2.718   1.739   5.591
11461SOL    HW136222   2.761   1.793   5.525
11461SOL    HW236223   2.788   1.687   5.629
11462SOL     OW36224   2.251  10.527  14.811
11462SOL    HW136225   2.206  10.611  14.816
11462SOL    HW236226   2.254  10.507  14.717
11463SOL     OW36227   4.279   4.758   3.037
11463SOL    HW136228   4.299   4.667   3.012
11463SOL    HW236229   4.329   4.772   3.118
11464SOL     OW36230   8.034   3.227   7.962
11464SOL    HW136231   8.077   3.255   8.043
11464SOL    HW236232   8.100   3.178   7.915
11465SOL     OW36233   8.164  10.009  11.414
11465SOL    HW136234   8.238   9.949  11.429
11465SOL    HW236235   8.142  10.043  11.501
11466SOL     OW36236   0.926  13.914   5.104
11466SOL    HW136237   0.834  13.915   5.130
11466SOL    HW236238   0.973  13.898   5.186
11467SOL     OW36239   7.927   4.203  14.350
11467SOL    HW136240   7.892   4.150  14.279
11467SOL    HW236241   7.884   4.170  14.429
11468SOL     OW36242  12.492   0.722  10.606
11468SOL    HW136243  12.533   0.648  10.561
11468SOL    HW236244  12.560   0.788  10.612
11469SOL     OW36245  12.167  10.881   9.274
11469SOL    HW136246  12.084  10.920   9.301
11469SOL    HW236247  12.162  10.790   9.305
11470SOL     OW36248   7.232  13.446   4.562
11470SOL    HW136249   7.319  13.466   4.527
11470SOL    HW236250   7.247  13.376   4.625
11471SOL     OW36251  14.756   8.830   9.504
11471SOL    HW136252  14.759   8.925   9.487
11471SOL    HW236253  14.832   8.813   9.558
11472SOL     OW36254  14.454   8.148   4.178
11472SOL    HW136255  14.510   8.072   4.194
11472SOL    HW236256  14.366   8.116   4.195
11473SOL     OW36257  13.697   6.285  14.783
11473SOL    HW136258  13.741   6.232  14.716
11473SOL    HW236259  13.740   6.370  14.778
11474SOL     OW36260  13.218  10.566  10.106
11474SOL    HW136261  13.188  10.619  10.180
11474SOL    HW236262  13.177  10.605  10.030
11475SOL     OW36263   0.022   9.869   1.129
11475SOL    HW136264   0.094   9.903   1.075
11475SOL    HW236265   0.044   9.897   1.218
11476SOL     OW36266   7.747   8.436   7.095
11476SOL    HW136267   7.776   8.489   7.021
11476SOL    HW236268   7.681   8.491   7.139
11477SOL     OW36269  13.015   8.444  13.801
11477SOL    HW136270  13.072   8.411  13.870
11477SOL    HW236271  13.059   8.522  13.769
11478SOL     OW36272   1.717  13.593   2.920
11478SOL    HW136273   1.801  13.571   2.879
11478SOL    HW236274   1.659  13.614   2.846
11479SOL     OW36275  11.021   7.253   4.476
11479SOL    HW136276  10.942   7.274   4.426
11479SOL    HW236277  11.067   7.337   4.483
11480SOL     OW36278   4.999   5.928   6.642
11480SOL    HW136279   4.924   5.879   6.609
11480SOL    HW236280   4.978   6.020   6.625
11481SOL     OW36281  13.974  11.913   6.722
11481SOL    HW136282  13.990  12.006   6.738
11481SOL    HW236283  13.995  11.870   6.805
11482SOL     OW36284   9.320   3.235  13.229
11482SOL    HW136285   9.290   3.169  13.166
11482SOL    HW236286   9.243   3.256  13.282
11483SOL     OW36287   1.774   0.326  10.499
11483SOL    HW136288   1.764   0.397  10.435
11483SOL    HW236289   1.703   0.265  10.479
11484SOL     OW36290   6.609   1.007   2.494
11484SOL    HW136291   6.539   0.974   2.551
11484SOL    HW236292   6.689   0.988   2.543
11485SOL     OW36293   0.162  12.423   9.931
11485SOL    HW136294   0.163  12.515   9.956
11485SOL    HW236295   0.070  12.405   9.911
11486SOL     OW36296   0.710   6.932   9.428
11486SOL    HW136297   0.763   6.990   9.372
11486SOL    HW236298   0.763   6.921   9.507
11487SOL     OW36299   5.134  12.558   5.697
11487SOL    HW136300   5.046  12.538   5.665
11487SOL    HW236301   5.120  12.599   5.782
11488SOL     OW36302   3.183  10.203   4.477
11488SOL    HW136303   3.104  10.255   4.463
11488SOL    HW236304   3.232  10.250   4.544
11489SOL     OW36305   0.271   4.837   5.945
11489SOL    HW136306   0.177   4.850   5.959
11489SOL    HW236307   0.281   4.833   5.850
11490SOL     OW36308   5.958   0.791   8.174
11490SOL    HW136309   6.039   0.842   8.175
11490SOL    HW236310   5.952   0.757   8.084
11491SOL     OW36311  14.650   1.452   1.080
11491SOL    HW136312  14.626   1.539   1.047
11491SOL    HW236313  14.691   1.409   1.004
11492SOL     OW36314   2.944  14.686   1.476
11492SOL    HW136315   2.951  14.658   1.567
11492SOL    HW236316   3.027  14.661   1.436
11493SOL     OW36317  12.321  11.184  12.474
11493SOL    HW136318  12.277  11.252  12.423
11493SOL    HW236319  12.361  11.230  12.547
11494SOL     OW36320   6.293   4.973  10.675
11494SOL    HW136321   6.210   5.009  10.707
11494SOL    HW236322   6.360   5.013  10.732
11495SOL     OW36323   4.454  14.327   0.946
11495SOL    HW136324   4.515  14.291   1.011
11495SOL    HW236325   4.449  14.420   0.967
11496SOL     OW36326  12.374   0.327  13.910
11496SOL    HW136327  12.291   0.360  13.944
11496SOL    HW236328  12.374   0.233  13.931
11497SOL     OW36329   8.151   9.766  12.674
11497SOL    HW136330   8.062   9.740  12.696
11497SOL    HW236331   8.184   9.808  12.753
11498SOL     OW36332  13.207  13.807  13.247
11498SOL    HW136333  13.135  13.870  13.256
11498SOL    HW236334  13.193  13.767  13.161
11499SOL     OW36335   2.425  11.664  12.634
11499SOL    HW136336   2.489  11.735  12.629
11499SOL    HW236337   2.377  11.681  12.715
11500SOL     OW36338  13.049   1.206   3.065
11500SOL    HW136339  13.051   1.145   2.992
11500SOL    HW236340  13.116   1.271   3.045
11501SOL     OW36341   6.282   3.490   2.803
11501SOL    HW136342   6.265   3.396   2.793
11501SOL    HW236343   6.197   3.528   2.823
11502SOL     OW36344   7.852  14.083  11.831
11502SOL    HW136345   7.832  13.993  11.859
11502SOL    HW236346   7.770  14.131  11.844
11503SOL     OW36347   1.994   8.491  12.642
11503SOL    HW136348   1.905   8.527  12.637
11503SOL    HW236349   2.009   8.476  12.735
11504SOL     OW36350   5.285  12.088   7.132
11504SOL    HW136351   5.289  12.127   7.219
11504SOL    HW236352   5.361  12.029   7.130
11505SOL     OW36353  11.915  11.994   1.471
11505SOL    HW136354  11.945  11.992   1.562
11505SOL    HW236355  11.946  11.911   1.434
11506SOL     OW36356  11.119   7.656  10.373
11506SOL    HW136357  11.145   7.581  10.320
11506SOL    HW236358  11.164   7.643  10.456
11507SOL     OW36359  10.761  11.574  14.470
11507SOL    HW136360  10.674  11.551  14.501
11507SOL    HW236361  10.809  11.598  14.549
11508SOL     OW36362  14.829  12.874   9.567
11508SOL    HW136363   0.041  12.850   9.549
11508SOL    HW236364  14.834  12.926   9.647
11509SOL     OW36365   9.478   4.737   6.822
11509SOL    HW136366   9.397   4.778   6.853
11509SOL    HW236367   9.546   4.801   6.842
11510SOL     OW36368   1.621   4.809   2.314
11510SOL    HW136369   1.579   4.741   2.261
11510SOL    HW236370   1.552   4.837   2.375
11511SOL     OW36371   4.841  13.163  11.852
11511SOL    HW136372   4.795  13.210  11.921
11511SOL    HW236373   4.774  13.106  11.813
11512SOL     OW36374   2.984   1.713   0.368
11512SOL    HW136375   2.992   1.787   0.428
11512SOL    HW236376   3.069   1.706   0.326
11513SOL     OW36377   1.474   5.287   7.914
11513SOL    HW136378   1.544   5.342   7.950
11513SOL    HW236379   1.495   5.280   7.821
11514SOL     OW36380   0.025   2.296   7.779
11514SOL    HW136381  14.847   2.222   7.758
11514SOL    HW236382   0.097   2.290   7.716
11515SOL     OW36383  12.145   0.952  14.335
11515SOL    HW136384  12.186   0.916  14.414
11515SOL    HW236385  12.120   1.041  14.359
11516SOL     OW36386   2.800   3.205  14.225
11516SOL    HW136387   2.828   3.279  14.172
11516SOL    HW236388   2.728   3.166  14.176
11517SOL     OW36389   1.856   3.091   0.866
11517SOL    HW136390   1.772   3.057   0.835
11517SOL    HW236391   1.834   3.174   0.909
11518SOL     OW36392  13.232  14.862  11.108
11518SOL    HW136393  13.188  14.812  11.177
11518SOL    HW236394  13.198  14.825  11.026
11519SOL     OW36395   0.452  11.284  13.511
11519SOL    HW136396   0.508  11.355  13.480
11519SOL    HW236397   0.473  11.276  13.604
11520SOL     OW36398  12.841  11.697  14.112
11520SOL    HW136399  12.774  11.718  14.047
11520SOL    HW236400  12.866  11.781  14.149
11521SOL     OW36401   7.143   7.541   5.335
11521SOL    HW136402   7.061   7.547   5.384
11521SOL    HW236403   7.160   7.447   5.327
11522SOL     OW36404   0.758  11.564   9.559
11522SOL    HW136405   0.793  11.613   9.633
11522SOL    HW236406   0.690  11.508   9.597
11523SOL     OW36407   9.281   3.965  14.387
11523SOL    HW136408   9.250   4.054  14.369
11523SOL    HW236409   9.203   3.918  14.418
11524SOL     OW36410   7.006   1.044   3.779
11524SOL    HW136411   6.914   1.070   3.788
11524SOL    HW236412   7.005   0.949   3.795
11525SOL     OW36413   3.004   5.106   6.347
11525SOL    HW136414   2.996   5.112   6.252
11525SOL    HW236415   3.005   5.013   6.365
11526SOL     OW36416   6.605  13.981   1.218
11526SOL    HW136417   6.659  13.955   1.143
11526SOL    HW236418   6.630  13.922   1.288
11527SOL     OW36419  14.243  13.471   9.394
11527SOL    HW136420  14.168  13.502   9.345
11527SOL    HW236421  14.318  13.490   9.338
11528SOL     OW36422  10.187  10.578   7.179
11528SOL    HW136423  10.158  10.637   7.110
11528SOL    HW236424  10.239  10.511   7.134
11529SOL     OW36425   3.206   2.511  11.938
11529SOL    HW136426   3.246   2.585  11.891
11529SOL    HW236427   3.132   2.550  11.985
11530SOL     OW36428   8.655   0.160   7.043
11530SOL    HW136429   8.650   0.066   7.025
11530SOL    HW236430   8.733   0.170   7.097
11531SOL     OW36431  11.768   4.039  12.445
11531SOL    HW136432  11.765   4.063  12.538
11531SOL    HW236433  11.697   4.090  12.405
11532SOL     OW36434   9.111  14.092   7.944
11532SOL    HW136435   9.180  14.158   7.940
11532SOL    HW236436   9.069  14.096   7.858
11533SOL     OW36437   7.098   6.906   8.721
11533SOL    HW136438   7.041   6.932   8.649
11533SOL    HW236439   7.186   6.931   8.693
11534SOL     OW36440   8.103   1.350  10.630
11534SOL    HW136441   8.154   1.383  10.556
11534SOL    HW236442   8.070   1.266  10.601
11535SOL     OW36443   9.348  13.571  13.713
11535SOL    HW136444   9.391  13.500  13.665
11535SOL    HW236445   9.311  13.528  13.791
11536SOL     OW36446  14.857   9.005  10.809
11536SOL    HW136447  14.848   9.100  10.809
11536SOL    HW236448   0.011   8.984  10.897
11537SOL     OW36449   3.619  13.416   3.986
11537SOL    HW136450   3.609  13.498   4.034
11537SOL    HW236451   3.565  13.427   3.908
11538SOL     OW36452  11.213   0.625   7.762
11538SOL    HW136453  11.239   0.579   7.842
11538SOL    HW236454  11.161   0.699   7.793
11539SOL     OW36455   6.204   9.587   4.217
11539SOL    HW136456   6.190   9.530   4.141
11539SOL    HW236457   6.200   9.675   4.181
11540SOL     OW36458   2.584   7.052  14.563
11540SOL    HW136459   2.556   7.134  14.523
11540SOL    HW236460   2.604   6.995  14.489
11541SOL     OW36461  11.950   4.594   0.928
11541SOL    HW136462  11.974   4.553   0.845
11541SOL    HW236463  11.854   4.592   0.928
11542SOL     OW36464   5.568   3.298  12.096
11542SOL    HW136465   5.502   3.322  12.031
11542SOL    HW236466   5.586   3.380  12.143
11543SOL     OW36467  14.396  10.648   6.196
11543SOL    HW136468  14.372  10.660   6.104
11543SOL    HW236469  14.447  10.726   6.218
11544SOL     OW36470   1.622   5.966   6.379
11544SOL    HW136471   1.692   5.941   6.440
11544SOL    HW236472   1.555   6.006   6.435
11545SOL     OW36473  12.037   7.995   8.901
11545SOL    HW136474  11.975   7.954   8.842
11545SOL    HW236475  12.063   7.925   8.962
11546SOL     OW36476   3.238   3.296   4.509
11546SOL    HW136477   3.294   3.374   4.520
11546SOL    HW236478   3.243   3.276   4.416
11547SOL     OW36479  12.042   2.658   1.644
11547SOL    HW136480  12.075   2.647   1.733
11547SOL    HW236481  11.977   2.728   1.650
11548SOL     OW36482  13.584  10.623   9.603
11548SOL    HW136483  13.557  10.621   9.511
11548SOL    HW236484  13.586  10.531   9.630
11549SOL     OW36485   8.679  12.204  11.672
11549SOL    HW136486   8.667  12.197  11.767
11549SOL    HW236487   8.772  12.188  11.658
11550SOL     OW36488   7.533   3.319   3.782
11550SOL    HW136489   7.573   3.373   3.714
11550SOL    HW236490   7.455   3.367   3.809
11551SOL     OW36491   6.868   8.933   3.737
11551SOL    HW136492   6.876   9.029   3.734
11551SOL    HW236493   6.780   8.915   3.703
11552SOL     OW36494   3.592  13.092   2.879
11552SOL    HW136495   3.530  13.110   2.808
11552SOL    HW236496   3.640  13.174   2.890
11553SOL     OW36497  11.966  12.716   3.734
11553SOL    HW136498  12.051  12.681   3.707
11553SOL    HW236499  11.920  12.733   3.652
11554SOL     OW36500  14.264   7.339   0.433
11554SOL    HW136501  14.178   7.356   0.473
11554SOL    HW236502  14.321   7.323   0.508
11555SOL     OW36503  14.872   6.305   8.029
11555SOL    HW136504  14.806   6.337   7.966
11555SOL    HW236505  14.854   6.211   8.035
11556SOL     OW36506  12.252  14.688  12.121
11556SOL    HW136507  12.314  14.631  12.167
11556SOL    HW236508  12.221  14.749  12.189
11557SOL     OW36509  11.133  14.426   7.198
11557SOL    HW136510  11.081  14.502   7.173
11557SOL    HW236511  11.222  14.448   7.171
11558SOL     OW36512   3.992  11.069  12.455
11558SOL    HW136513   4.022  11.008  12.387
11558SOL    HW236514   3.937  11.015  12.513
11559SOL     OW36515  10.370   0.031   3.432
11559SOL    HW136516  10.357   0.082   3.352
11559SOL    HW236517  10.449  14.859   3.415
11560SOL     OW36518   0.753  12.483   8.166
11560SOL    HW136519   0.774  12.391   8.148
11560SOL    HW236520   0.658  12.483   8.179
11561SOL     OW36521  11.907  10.001   2.331
11561SOL    HW136522  11.885   9.910   2.352
11561SOL    HW236523  11.854  10.021   2.254
11562SOL     OW36524   5.429   5.059   7.788
11562SOL    HW136525   5.422   4.964   7.792
11562SOL    HW236526   5.501   5.075   7.727
11563SOL     OW36527   5.551  14.520   9.047
11563SOL    HW136528   5.582  14.439   9.007
11563SOL    HW236529   5.521  14.574   8.973
11564SOL     OW36530  13.811   2.872   3.161
11564SOL    HW136531  13.882   2.936   3.158
11564SOL    HW236532  13.794   2.851   3.069
11565SOL     OW36533  13.818   0.102   4.843
11565SOL    HW136534  13.805   0.139   4.756
11565SOL    HW236535  13.804   0.176   4.903
11566SOL     OW36536   6.631  14.622   3.466
11566SOL    HW136537   6.704  14.683   3.461
11566SOL    HW236538   6.665  14.546   3.513
11567SOL     OW36539   3.681   2.513   2.302
11567SOL    HW136540   3.776   2.523   2.302
11567SOL    HW236541   3.650   2.574   2.369
11568SOL     OW36542   2.747  13.322  10.123
11568SOL    HW136543   2.818  13.386  10.121
11568SOL    HW236544   2.741  13.296  10.215
11569SOL     OW36545   3.764  12.237   4.308
11569SOL    HW136546   3.794  12.234   4.217
11569SOL    HW236547   3.684  12.184   4.309
11570SOL     OW36548  12.579   9.291   4.180
11570SOL    HW136549  12.588   9.361   4.245
11570SOL    HW236550  12.640   9.315   4.110
11571SOL     OW36551   5.676   8.692   8.027
11571SOL    HW136552   5.618   8.755   8.068
11571SOL    HW236553   5.618   8.620   8.001
11572SOL     OW36554   5.057  10.200   6.828
11572SOL    HW136555   5.151  10.215   6.822
11572SOL    HW236556   5.048  10.125   6.887
11573SOL     OW36557   9.993  10.684  12.792
11573SOL    HW136558  10.010  10.751  12.725
11573SOL    HW236559   9.947  10.731  12.862
11574SOL     OW36560   1.853  14.362   0.635
11574SOL    HW136561   1.884  14.419   0.565
11574SOL    HW236562   1.932  14.328   0.676
11575SOL     OW36563   3.151  11.817   5.608
11575SOL    HW136564   3.208  11.755   5.562
11575SOL    HW236565   3.211  11.869   5.662
11576SOL     OW36566   0.377  14.780   6.236
11576SOL    HW136567   0.365  14.750   6.326
11576SOL    HW236568   0.306  14.739   6.187
11577SOL     OW36569   8.364  13.467   6.330
11577SOL    HW136570   8.424  13.431   6.395
11577SOL    HW236571   8.408  13.546   6.298
11578SOL     OW36572   2.847   8.405   4.554
11578SOL    HW136573   2.831   8.499   4.547
11578SOL    HW236574   2.794   8.378   4.629
11579SOL     OW36575  13.219  13.497   8.503
11579SOL    HW136576  13.305  13.468   8.534
11579SOL    HW236577  13.196  13.435   8.434
11580SOL     OW36578   4.902   3.742   9.624
11580SOL    HW136579   4.914   3.647   9.630
11580SOL    HW236580   4.809   3.753   9.602
11581SOL     OW36581   3.826  12.335   0.399
11581SOL    HW136582   3.890  12.406   0.396
11581SOL    HW236583   3.742  12.379   0.408
11582SOL     OW36584   3.201   1.001   4.509
11582SOL    HW136585   3.187   1.094   4.528
11582SOL    HW236586   3.293   0.985   4.530
11583SOL     OW36587   9.999   9.963   7.707
11583SOL    HW136588  10.092   9.957   7.683
11583SOL    HW236589   9.968  10.042   7.662
11584SOL     OW36590   1.199   5.884   9.286
11584SOL    HW136591   1.256   5.921   9.354
11584SOL    HW236592   1.125   5.944   9.282
11585SOL     OW36593  13.762   0.961   0.981
11585SOL    HW136594  13.699   0.918   1.039
11585SOL    HW236595  13.708   1.003   0.914
11586SOL     OW36596   6.284  10.138   4.107
11586SOL    HW136597   6.252  10.192   4.180
11586SOL    HW236598   6.337  10.198   4.055
11587SOL     OW36599   5.765   3.715   1.830
11587SOL    HW136600   5.765   3.795   1.883
11587SOL    HW236601   5.854   3.682   1.837
11588SOL     OW36602   0.649   8.817   2.311
11588SOL    HW136603   0.593   8.894   2.316
11588SOL    HW236604   0.710   8.836   2.241
11589SOL     OW36605  12.983   8.560  14.305
11589SOL    HW136606  12.969   8.541  14.212
11589SOL    HW236607  12.941   8.487  14.351
11590SOL     OW36608  12.291   1.880   3.840
11590SOL    HW136609  12.286   1.790   3.808
11590SOL    HW236610  12.208   1.893   3.886
11591SOL     OW36611   8.533   0.651  14.030
11591SOL    HW136612   8.535   0.746  14.015
11591SOL    HW236613   8.593   0.637  14.103
11592SOL     OW36614   4.119   8.857  10.928
11592SOL    HW136615   4.129   8.801  11.005
11592SOL    HW236616   4.184   8.926  10.940
11593SOL     OW36617  12.673  11.013   3.801
11593SOL    HW136618  12.749  10.990   3.855
11593SOL    HW236619  12.600  11.014   3.863
11594SOL     OW36620   3.062  14.363  10.532
11594SOL    HW136621   3.007  14.393  10.460
11594SOL    HW236622   3.040  14.270  10.542
11595SOL     OW36623  10.713   7.040  12.740
11595SOL    HW136624  10.623   7.042  12.774
11595SOL    HW236625  10.711   7.098  12.664
11596SOL     OW36626  13.144   5.661  10.861
11596SOL    HW136627  13.212   5.596  10.841
11596SOL    HW236628  13.156   5.728  10.793
11597SOL     OW36629   2.798   3.308   3.269
11597SOL    HW136630   2.810   3.293   3.363
11597SOL    HW236631   2.862   3.376   3.248
11598SOL     OW36632  10.488  13.071   6.565
11598SOL    HW136633  10.557  13.009   6.589
11598SOL    HW236634  10.529  13.157   6.576
11599SOL     OW36635   2.760   3.805  14.533
11599SOL    HW136636   2.681   3.758  14.561
11599SOL    HW236637   2.727   3.881  14.486
11600SOL     OW36638   2.035   0.357   7.019
11600SOL    HW136639   2.042   0.448   7.047
11600SOL    HW236640   2.032   0.362   6.923
11601SOL     OW36641   9.302   1.946   0.186
11601SOL    HW136642   9.249   1.866   0.181
11601SOL    HW236643   9.390   1.915   0.209
11602SOL     OW36644   2.963   6.878   9.556
11602SOL    HW136645   2.970   6.786   9.583
11602SOL    HW236646   3.052   6.912   9.564
11603SOL     OW36647  10.852  14.708   6.552
11603SOL    HW136648  10.814  14.780   6.602
11603SOL    HW236649  10.930  14.745   6.512
11604SOL     OW36650   1.036   1.209  14.605
11604SOL    HW136651   0.971   1.275  14.580
11604SOL    HW236652   0.986   1.143  14.652
11605SOL     OW36653  13.917   6.239   7.357
11605SOL    HW136654  13.975   6.164   7.372
11605SOL    HW236655  13.857   6.209   7.288
11606SOL     OW36656   0.336   6.583   9.223
11606SOL    HW136657   0.365   6.540   9.303
11606SOL    HW236658   0.414   6.630   9.192
11607SOL     OW36659   9.412   3.936  12.824
11607SOL    HW136660   9.483   3.969  12.768
11607SOL    HW236661   9.345   4.004  12.818
11608SOL     OW36662   3.364   6.640  13.659
11608SOL    HW136663   3.307   6.708  13.621
11608SOL    HW236664   3.432   6.688  13.704
11609SOL     OW36665   8.682  13.575   1.693
11609SOL    HW136666   8.747  13.620   1.640
11609SOL    HW236667   8.697  13.606   1.782
11610SOL     OW36668  11.567   1.585  12.089
11610SOL    HW136669  11.476   1.593  12.061
11610SOL    HW236670  11.570   1.627  12.175
11611SOL     OW36671   5.637   0.729  10.439
11611SOL    HW136672   5.722   0.756  10.405
11611SOL    HW236673   5.591   0.811  10.457
11612SOL     OW36674  12.079  10.767  11.021
11612SOL    HW136675  12.083  10.790  10.928
11612SOL    HW236676  12.092  10.672  11.022
11613SOL     OW36677  10.314  10.356   7.089
11613SOL    HW136678  10.401  10.334   7.054
11613SOL    HW236679  10.257  10.286   7.057
11614SOL     OW36680   3.110   1.086   9.568
11614SOL    HW136681   3.066   1.092   9.483
11614SOL    HW236682   3.190   1.138   9.557
11615SOL     OW36683   8.860   3.203  10.680
11615SOL    HW136684   8.870   3.279  10.623
11615SOL    HW236685   8.766   3.201  10.700
11616SOL     OW36686  13.351   2.412   6.943
11616SOL    HW136687  13.300   2.485   6.908
11616SOL    HW236688  13.311   2.334   6.904
11617SOL     OW36689   6.885  10.061  10.440
11617SOL    HW136690   6.886  10.122  10.514
11617SOL    HW236691   6.794  10.034  10.432
11618SOL     OW36692   1.098  11.465   8.960
11618SOL    HW136693   1.079  11.384   9.007
11618SOL    HW236694   1.148  11.517   9.022
11619SOL     OW36695   5.394   8.290   0.892
11619SOL    HW136696   5.371   8.252   0.977
11619SOL    HW236697   5.473   8.243   0.865
11620SOL     OW36698  13.663  11.080   2.260
11620SOL    HW136699  13.621  11.145   2.317
11620SOL    HW236700  13.735  11.046   2.312
11621SOL     OW36701   7.453   8.733   0.548
11621SOL    HW136702   7.386   8.777   0.600
11621SOL    HW236703   7.414   8.724   0.461
11622SOL     OW36704  14.261  11.501   2.449
11622SOL    HW136705  14.175  11.527   2.417
11622SOL    HW236706  14.322  11.532   2.382
11623SOL     OW36707  14.072  14.252  13.973
11623SOL    HW136708  13.991  14.293  14.003
11623SOL    HW236709  14.055  14.158  13.980
11624SOL     OW36710   5.146   6.343   7.743
11624SOL    HW136711   5.174   6.429   7.776
11624SOL    HW236712   5.054   6.336   7.768
11625SOL     OW36713  10.267   2.759   5.784
11625SOL    HW136714  10.204   2.709   5.732
11625SOL    HW236715  10.232   2.755   5.873
11626SOL     OW36716  11.611   4.767  13.063
11626SOL    HW136717  11.589   4.825  13.135
11626SOL    HW236718  11.527   4.733  13.033
11627SOL     OW36719  14.486   9.758  13.182
11627SOL    HW136720  14.528   9.675  13.159
11627SOL    HW236721  14.518   9.777  13.270
11628SOL     OW36722  11.406  11.836   8.223
11628SOL    HW136723  11.344  11.834   8.295
11628SOL    HW236724  11.422  11.744   8.202
11629SOL     OW36725   0.901   0.784   5.181
11629SOL    HW136726   0.896   0.718   5.251
11629SOL    HW236727   0.985   0.827   5.195
11630SOL     OW36728  10.476   5.205  10.796
11630SOL    HW136729  10.409   5.237  10.856
11630SOL    HW236730  10.428   5.151  10.733
11631SOL     OW36731  13.669  14.619  11.949
11631SOL    HW136732  13.703  14.684  11.888
11631SOL    HW236733  13.574  14.619  11.934
11632SOL     OW36734   6.413   8.876   7.691
11632SOL    HW136735   6.475   8.940   7.654
11632SOL    HW236736   6.448   8.857   7.777
11633SOL     OW36737  11.897  10.016   7.334
11633SOL    HW136738  11.807  10.045   7.351
11633SOL    HW236739  11.926  10.070   7.261
11634SOL     OW36740   9.375  12.744   2.206
11634SOL    HW136741   9.404  12.675   2.146
11634SOL    HW236742   9.441  12.745   2.275
11635SOL     OW36743   0.242   0.281  12.380
11635SOL    HW136744   0.156   0.257  12.346
11635SOL    HW236745   0.224   0.355  12.439
11636SOL     OW36746   9.771   2.781   5.120
11636SOL    HW136747   9.845   2.744   5.168
11636SOL    HW236748   9.725   2.836   5.184
11637SOL     OW36749   0.380   0.210   2.859
11637SOL    HW136750   0.438   0.262   2.804
11637SOL    HW236751   0.438   0.173   2.926
11638SOL     OW36752   0.864  13.157   2.093
11638SOL    HW136753   0.955  13.164   2.123
11638SOL    HW236754   0.812  13.164   2.173
11639SOL     OW36755   4.599  10.236   5.409
11639SOL    HW136756   4.657  10.272   5.476
11639SOL    HW236757   4.513  10.231   5.452
11640SOL     OW36758   6.226   9.423   2.035
11640SOL    HW136759   6.179   9.344   2.010
11640SOL    HW236760   6.170   9.466   2.100
11641SOL     OW36761   6.568  11.980  12.268
11641SOL    HW136762   6.532  12.063  12.237
11641SOL    HW236763   6.508  11.952  12.338
11642SOL     OW36764   9.064   7.477   9.832
11642SOL    HW136765   9.088   7.513   9.917
11642SOL    HW236766   9.147   7.463   9.787
11643SOL     OW36767   3.960   3.581   9.678
11643SOL    HW136768   3.931   3.491   9.688
11643SOL    HW236769   4.049   3.581   9.713
11644SOL     OW36770  10.245   9.855   2.589
11644SOL    HW136771  10.267   9.769   2.553
11644SOL    HW236772  10.171   9.885   2.536
11645SOL     OW36773   8.509   1.915   1.037
11645SOL    HW136774   8.443   1.867   1.086
11645SOL    HW236775   8.472   2.002   1.026
11646SOL     OW36776  10.407   4.606   4.405
11646SOL    HW136777  10.367   4.691   4.389
11646SOL    HW236778  10.500   4.620   4.386
11647SOL     OW36779   6.075   4.212   9.855
11647SOL    HW136780   6.136   4.149   9.815
11647SOL    HW236781   6.111   4.298   9.832
11648SOL     OW36782   1.971   4.531  11.538
11648SOL    HW136783   2.058   4.537  11.498
11648SOL    HW236784   1.979   4.582  11.618
11649SOL     OW36785  11.727   8.244  14.097
11649SOL    HW136786  11.770   8.317  14.142
11649SOL    HW236787  11.650   8.284  14.055
11650SOL     OW36788   8.977   1.101   2.918
11650SOL    HW136789   9.016   1.110   2.831
11650SOL    HW236790   8.927   1.182   2.931
11651SOL     OW36791   1.398   3.350   9.922
11651SOL    HW136792   1.358   3.402   9.853
11651SOL    HW236793   1.370   3.393  10.003
11652SOL     OW36794   9.156  12.585  11.517
11652SOL    HW136795   9.083  12.645  11.499
11652SOL    HW236796   9.135  12.506  11.468
11653SOL     OW36797   7.933   4.385   3.098
11653SOL    HW136798   7.997   4.454   3.116
11653SOL    HW236799   7.873   4.424   3.034
11654SOL     OW36800  12.142   3.615   7.605
11654SOL    HW136801  12.144   3.539   7.547
11654SOL    HW236802  12.143   3.690   7.546
11655SOL     OW36803   6.161   0.265   0.960
11655SOL    HW136804   6.211   0.296   0.885
11655SOL    HW236805   6.207   0.300   1.036
11656SOL     OW36806   4.468   8.744   4.608
11656SOL    HW136807   4.507   8.657   4.601
11656SOL    HW236808   4.538   8.799   4.643
11657SOL     OW36809  12.249   2.150   7.889
11657SOL    HW136810  12.202   2.093   7.950
11657SOL    HW236811  12.246   2.237   7.930
11658SOL     OW36812  14.662   0.684   7.032
11658SOL    HW136813  14.722   0.612   7.052
11658SOL    HW236814  14.717   0.752   6.993
11659SOL     OW36815  13.391   0.786   5.189
11659SOL    HW136816  13.449   0.726   5.235
11659SOL    HW236817  13.437   0.870   5.190
11660SOL     OW36818   3.605   9.631  12.770
11660SOL    HW136819   3.587   9.542  12.739
11660SOL    HW236820   3.672   9.664  12.711
11661SOL     OW36821   2.871  12.489   1.287
11661SOL    HW136822   2.913  12.440   1.358
11661SOL    HW236823   2.910  12.576   1.291
11662SOL     OW36824  11.495   4.746  13.489
11662SOL    HW136825  11.552   4.700  13.551
11662SOL    HW236826  11.554   4.781  13.423
11663SOL     OW36827   3.162   3.785   3.066
11663SOL    HW136828   3.227   3.809   3.132
11663SOL    HW236829   3.199   3.708   3.023
11664SOL     OW36830  14.360   7.896  14.280
11664SOL    HW136831  14.396   7.932  14.361
11664SOL    HW236832  14.266   7.895  14.294
11665SOL     OW36833  13.910   1.519  14.261
11665SOL    HW136834  13.970   1.571  14.315
11665SOL    HW236835  13.831   1.573  14.254
11666SOL     OW36836   1.882   1.611  11.249
11666SOL    HW136837   1.882   1.623  11.344
11666SOL    HW236838   1.869   1.516  11.238
11667SOL     OW36839   2.435   8.466  10.485
11667SOL    HW136840   2.492   8.390  10.481
11667SOL    HW236841   2.361   8.443  10.429
11668SOL     OW36842   8.328  12.757   1.662
11668SOL    HW136843   8.264  12.778   1.594
11668SOL    HW236844   8.304  12.669   1.692
11669SOL     OW36845   3.970   6.647   2.415
11669SOL    HW136846   3.934   6.590   2.483
11669SOL    HW236847   3.893   6.687   2.375
11670SOL     OW36848   6.954   7.873  13.955
11670SOL    HW136849   7.022   7.807  13.968
11670SOL    HW236850   6.872   7.827  13.969
11671SOL     OW36851  13.628   3.604  10.878
11671SOL    HW136852  13.537   3.625  10.856
11671SOL    HW236853  13.649   3.660  10.953
11672SOL     OW36854   0.855   0.927  10.310
11672SOL    HW136855   0.938   0.974  10.305
11672SOL    HW236856   0.863   0.873  10.389
11673SOL     OW36857  12.295  12.000   4.541
11673SOL    HW136858  12.279  12.073   4.601
11673SOL    HW236859  12.375  12.023   4.495
11674SOL     OW36860   2.382   3.661   3.796
11674SOL    HW136861   2.359   3.702   3.880
11674SOL    HW236862   2.453   3.601   3.817
11675SOL     OW36863  13.681   5.698   7.461
11675SOL    HW136864  13.726   5.654   7.533
11675SOL    HW236865  13.652   5.781   7.499
11676SOL     OW36866  10.990  14.344   8.119
11676SOL    HW136867  10.980  14.436   8.143
11676SOL    HW236868  11.075  14.318   8.154
11677SOL     OW36869  13.734   2.532  13.988
11677SOL    HW136870  13.688   2.597  13.935
11677SOL    HW236871  13.681   2.452  13.980
11678SOL     OW36872   9.434  12.570   9.450
11678SOL    HW136873   9.465  12.514   9.521
11678SOL    HW236874   9.392  12.509   9.389
11679SOL     OW36875   6.853   4.676   0.267
11679SOL    HW136876   6.936   4.646   0.231
11679SOL    HW236877   6.811   4.597   0.300
11680SOL     OW36878   8.377   9.199   2.647
11680SOL    HW136879   8.429   9.163   2.575
11680SOL    HW236880   8.302   9.140   2.654
11681SOL     OW36881   4.836   3.714  10.860
11681SOL    HW136882   4.751   3.680  10.885
11681SOL    HW236883   4.827   3.809  10.870
11682SOL     OW36884   6.008   0.075   0.463
11682SOL    HW136885   5.940   0.028   0.512
11682SOL    HW236886   6.048   0.007   0.408
11683SOL     OW36887   3.205   6.373   9.664
11683SOL    HW136888   3.276   6.427   9.700
11683SOL    HW236889   3.203   6.296   9.720
11684SOL     OW36890   6.145   1.052   7.817
11684SOL    HW136891   6.189   1.111   7.879
11684SOL    HW236892   6.053   1.081   7.817
11685SOL     OW36893   6.271   9.592  12.759
11685SOL    HW136894   6.306   9.545  12.683
11685SOL    HW236895   6.182   9.560  12.769
11686SOL     OW36896   5.168  10.506   7.621
11686SOL    HW136897   5.138  10.582   7.672
11686SOL    HW236898   5.153  10.431   7.679
11687SOL     OW36899   5.581   5.793  13.096
11687SOL    HW136900   5.544   5.882  13.090
11687SOL    HW236901   5.603   5.770  13.006
11688SOL     OW36902  10.312   7.074   8.571
11688SOL    HW136903  10.308   7.140   8.501
11688SOL    HW236904  10.263   7.113   8.643
11689SOL     OW36905  13.007  10.366  11.364
11689SOL    HW136906  13.089  10.376  11.317
11689SOL    HW236907  13.018  10.284  11.414
11690SOL     OW36908   3.377   7.676   5.817
11690SOL    HW136909   3.363   7.650   5.908
11690SOL    HW236910   3.470   7.659   5.801
11691SOL     OW36911   4.212   7.027   7.421
11691SOL    HW136912   4.169   7.069   7.347
11691SOL    HW236913   4.273   7.093   7.455
11692SOL     OW36914  13.284   0.339   3.958
11692SOL    HW136915  13.298   0.244   3.961
11692SOL    HW236916  13.289   0.367   4.049
11693SOL     OW36917   9.886  12.787   4.546
11693SOL    HW136918   9.841  12.848   4.488
11693SOL    HW236919   9.850  12.701   4.523
11694SOL     OW36920   1.801  14.367   8.668
11694SOL    HW136921   1.824  14.292   8.723
11694SOL    HW236922   1.808  14.334   8.578
11695SOL     OW36923   1.481  12.286  10.143
11695SOL    HW136924   1.539  12.237  10.084
11695SOL    HW236925   1.413  12.223  10.168
11696SOL     OW36926  13.367  11.566  14.600
11696SOL    HW136927  13.426  11.495  14.625
11696SOL    HW236928  13.349  11.551  14.507
11697SOL     OW36929   4.087   5.506   6.520
11697SOL    HW136930   4.023   5.569   6.553
11697SOL    HW236931   4.157   5.560   6.484
11698SOL     OW36932   3.008   9.368   9.949
11698SOL    HW136933   3.027   9.424  10.024
11698SOL    HW236934   2.938   9.310   9.979
11699SOL     OW36935   4.512   7.988   6.520
11699SOL    HW136936   4.564   8.011   6.444
11699SOL    HW236937   4.456   8.064   6.535
11700SOL     OW36938   2.713   2.423  14.436
11700SOL    HW136939   2.746   2.513  14.437
11700SOL    HW236940   2.792   2.369  14.429
11701SOL     OW36941  11.803   3.303  10.843
11701SOL    HW136942  11.746   3.289  10.767
11701SOL    HW236943  11.889   3.274  10.814
11702SOL     OW36944  13.894  11.383  13.680
11702SOL    HW136945  13.890  11.292  13.650
11702SOL    HW236946  13.803  11.409  13.692
11703SOL     OW36947   3.029   5.210   9.769
11703SOL    HW136948   3.101   5.225   9.830
11703SOL    HW236949   3.025   5.115   9.760
11704SOL     OW36950   8.787   5.141   5.945
11704SOL    HW136951   8.720   5.085   5.907
11704SOL    HW236952   8.738   5.216   5.979
11705SOL     OW36953   3.158  13.815   1.796
11705SOL    HW136954   3.214  13.775   1.729
11705SOL    HW236955   3.143  13.904   1.764
11706SOL     OW36956   8.379   1.381   1.212
11706SOL    HW136957   8.475   1.386   1.217
11706SOL    HW236958   8.351   1.379   1.304
11707SOL     OW36959   0.276   3.020   7.478
11707SOL    HW136960   0.224   2.965   7.536
11707SOL    HW236961   0.356   3.038   7.528
11708SOL     OW36962  11.179   8.542   3.142
11708SOL    HW136963  11.106   8.582   3.094
11708SOL    HW236964  11.178   8.586   3.227
11709SOL     OW36965   4.569  13.839   2.250
11709SOL    HW136966   4.617  13.783   2.312
11709SOL    HW236967   4.498  13.877   2.302
11710SOL     OW36968   8.583   3.763  11.793
11710SOL    HW136969   8.614   3.685  11.838
11710SOL    HW236970   8.525   3.730  11.724
11711SOL     OW36971   1.894   0.136   1.578
11711SOL    HW136972   1.911   0.229   1.591
11711SOL    HW236973   1.979   0.094   1.589
11712SOL     OW36974   5.068  11.479  13.588
11712SOL    HW136975   5.093  11.567  13.559
11712SOL    HW236976   5.048  11.490  13.681
11713SOL     OW36977  10.399  13.507   6.569
11713SOL    HW136978  10.348  13.579   6.606
11713SOL    HW236979  10.343  13.430   6.578
11714SOL     OW36980  14.858   9.176   5.019
11714SOL    HW136981  14.878   9.230   5.096
11714SOL    HW236982   0.051   9.113   5.015
11715SOL     OW36983  11.063  10.336   6.770
11715SOL    HW136984  11.064  10.246   6.800
11715SOL    HW236985  11.019  10.385   6.840
11716SOL     OW36986   8.076   9.520   2.154
11716SOL    HW136987   8.010   9.460   2.118
11716SOL    HW236988   8.141   9.462   2.194
11717SOL     OW36989   7.152   6.566  10.515
11717SOL    HW136990   7.105   6.615  10.448
11717SOL    HW236991   7.232   6.616  10.529
11718SOL     OW36992   5.328   8.406  14.098
11718SOL    HW136993   5.287   8.331  14.056
11718SOL    HW236994   5.314   8.391  14.192
11719SOL     OW36995   9.164   1.735   3.645
11719SOL    HW136996   9.086   1.764   3.597
11719SOL    HW236997   9.183   1.648   3.610
11720SOL     OW36998   5.391   1.467  11.382
11720SOL    HW136999   5.375   1.378  11.413
11720SOL    HW237000   5.388   1.521  11.461
11721SOL     OW37001   9.772   2.725   6.642
11721SOL    HW137002   9.783   2.664   6.715
11721SOL    HW237003   9.715   2.793   6.676
11722SOL     OW37004  14.458   3.243   8.753
11722SOL    HW137005  14.489   3.197   8.831
11722SOL    HW237006  14.382   3.292   8.782
11723SOL     OW37007  14.615   8.016   2.808
11723SOL    HW137008  14.555   7.947   2.781
11723SOL    HW237009  14.572   8.056   2.884
11724SOL     OW37010  14.366  10.242   3.652
11724SOL    HW137011  14.312  10.169   3.681
11724SOL    HW237012  14.303  10.311   3.630
11725SOL     OW37013  12.251   6.309  13.705
11725SOL    HW137014  12.263   6.356  13.622
11725SOL    HW237015  12.159   6.323  13.727
11726SOL     OW37016  13.817   8.080   8.907
11726SOL    HW137017  13.785   8.033   8.984
11726SOL    HW237018  13.892   8.028   8.877
11727SOL     OW37019  12.881  10.817   4.941
11727SOL    HW137020  12.819  10.759   4.986
11727SOL    HW237021  12.967  10.786   4.968
11728SOL     OW37022  12.196  13.792  14.461
11728SOL    HW137023  12.219  13.710  14.419
11728SOL    HW237024  12.159  13.846  14.391
11729SOL     OW37025   5.602   9.978  12.357
11729SOL    HW137026   5.676  10.027  12.321
11729SOL    HW237027   5.620   9.887  12.334
11730SOL     OW37028   2.969   3.260   3.886
11730SOL    HW137029   3.046   3.316   3.877
11730SOL    HW237030   3.005   3.174   3.907
11731SOL     OW37031   6.671   8.543   6.110
11731SOL    HW137032   6.653   8.536   6.203
11731SOL    HW237033   6.767   8.539   6.104
11732SOL     OW37034   4.822   9.782   9.177
11732SOL    HW137035   4.827   9.869   9.137
11732SOL    HW237036   4.750   9.738   9.130
11733SOL     OW37037   7.075   0.723   8.288
11733SOL    HW137038   7.103   0.632   8.292
11733SOL    HW237039   7.079   0.753   8.379
11734SOL     OW37040  11.873  13.113   5.472
11734SOL    HW137041  11.960  13.102   5.512
11734SOL    HW237042  11.819  13.147   5.543
11735SOL     OW37043   6.990  11.207  14.208
11735SOL    HW137044   6.927  11.135  14.203
11735SOL    HW237045   7.014  11.211  14.300
11736SOL     OW37046  13.879   3.570   9.156
11736SOL    HW137047  13.828   3.549   9.078
11736SOL    HW237048  13.966   3.592   9.123
11737SOL     OW37049   5.812   2.646  13.653
11737SOL    HW137050   5.835   2.680  13.740
11737SOL    HW237051   5.874   2.687  13.594
11738SOL     OW37052   8.311   5.252   3.634
11738SOL    HW137053   8.368   5.184   3.597
11738SOL    HW237054   8.274   5.296   3.557
11739SOL     OW37055  10.075   5.355   8.855
11739SOL    HW137056  10.041   5.395   8.935
11739SOL    HW237057  10.046   5.414   8.785
11740SOL     OW37058  13.891   8.673  14.018
11740SOL    HW137059  13.807   8.700  14.055
11740SOL    HW237060  13.937   8.755  14.001
11741SOL     OW37061  13.277   2.161   6.853
11741SOL    HW137062  13.345   2.121   6.799
11741SOL    HW237063  13.197   2.115   6.828
11742SOL     OW37064   0.229  12.956   1.408
11742SOL    HW137065   0.176  12.994   1.339
11742SOL    HW237066   0.203  12.864   1.411
11743SOL     OW37067   4.206  13.088  13.508
11743SOL    HW137068   4.258  13.007  13.511
11743SOL    HW237069   4.128  13.067  13.559
11744SOL     OW37070   6.121   8.372   2.491
11744SOL    HW137071   6.038   8.403   2.454
11744SOL    HW237072   6.169   8.452   2.511
11745SOL     OW37073   7.506   3.528   9.790
11745SOL    HW137074   7.477   3.565   9.874
11745SOL    HW237075   7.425   3.514   9.741
11746SOL     OW37076   9.724   5.020   8.200
11746SOL    HW137077   9.723   5.064   8.285
11746SOL    HW237078   9.699   5.088   8.137
11747SOL     OW37079   4.979  10.212   1.162
11747SOL    HW137080   5.053  10.255   1.119
11747SOL    HW237081   4.916  10.282   1.179
11748SOL     OW37082   4.215  11.304   2.005
11748SOL    HW137083   4.130  11.287   1.965
11748SOL    HW237084   4.198  11.370   2.072
11749SOL     OW37085   1.832   9.058   7.153
11749SOL    HW137086   1.786   9.080   7.234
11749SOL    HW237087   1.896   8.992   7.179
11750SOL     OW37088   3.176   5.212   2.996
11750SOL    HW137089   3.215   5.127   2.973
11750SOL    HW237090   3.162   5.206   3.090
11751SOL     OW37091  14.305   6.158   0.373
11751SOL    HW137092  14.257   6.094   0.425
11751SOL    HW237093  14.389   6.167   0.418
11752SOL     OW37094   1.486   0.737  10.058
11752SOL    HW137095   1.521   0.664  10.007
11752SOL    HW237096   1.417   0.697  10.112
11753SOL     OW37097   7.285   6.114  10.561
11753SOL    HW137098   7.205   6.166  10.569
11753SOL    HW237099   7.287   6.061  10.641
11754SOL     OW37100   4.960  12.451   9.565
11754SOL    HW137101   5.022  12.521   9.545
11754SOL    HW237102   5.012  12.370   9.559
11755SOL     OW37103   0.446   8.858   3.366
11755SOL    HW137104   0.400   8.774   3.360
11755SOL    HW237105   0.473   8.863   3.458
11756SOL     OW37106  11.016  11.959   6.291
11756SOL    HW137107  11.077  11.891   6.320
11756SOL    HW237108  10.978  11.924   6.211
11757SOL     OW37109   5.479   0.965  13.920
11757SOL    HW137110   5.395   0.951  13.963
11757SOL    HW237111   5.540   0.983  13.991
11758SOL     OW37112   3.137   2.867   8.332
11758SOL    HW137113   3.056   2.876   8.282
11758SOL    HW237114   3.130   2.932   8.402
11759SOL     OW37115  13.620   5.843   8.792
11759SOL    HW137116  13.644   5.751   8.777
11759SOL    HW237117  13.533   5.851   8.752
11760SOL     OW37118  10.780   4.394   6.721
11760SOL    HW137119  10.789   4.400   6.816
11760SOL    HW237120  10.815   4.308   6.699
11761SOL     OW37121  10.424   5.377   0.104
11761SOL    HW137122  10.330   5.390   0.121
11761SOL    HW237123  10.460   5.465   0.098
11762SOL     OW37124  14.035   8.067  10.425
11762SOL    HW137125  14.000   8.055  10.513
11762SOL    HW237126  13.969   8.028  10.368
11763SOL     OW37127   4.764   0.897   2.702
11763SOL    HW137128   4.703   0.965   2.732
11763SOL    HW237129   4.802   0.933   2.622
11764SOL     OW37130  11.189  13.202  11.067
11764SOL    HW137131  11.279  13.218  11.098
11764SOL    HW237132  11.140  13.280  11.096
11765SOL     OW37133  11.145  11.094   3.139
11765SOL    HW137134  11.151  11.067   3.047
11765SOL    HW237135  11.054  11.123   3.150
11766SOL     OW37136   0.473   8.812   5.829
11766SOL    HW137137   0.461   8.719   5.844
11766SOL    HW237138   0.560   8.832   5.863
11767SOL     OW37139   1.621  10.844   3.284
11767SOL    HW137140   1.697  10.877   3.331
11767SOL    HW237141   1.546  10.866   3.340
11768SOL     OW37142  12.990   5.305   4.078
11768SOL    HW137143  13.070   5.353   4.102
11768SOL    HW237144  12.940   5.367   4.026
11769SOL     OW37145   3.795  10.883   5.660
11769SOL    HW137146   3.740  10.812   5.692
11769SOL    HW237147   3.844  10.912   5.736
11770SOL     OW37148  12.712   1.343   9.742
11770SOL    HW137149  12.636   1.293   9.772
11770SOL    HW237150  12.688   1.435   9.757
11771SOL     OW37151  12.462  12.062   9.905
11771SOL    HW137152  12.389  12.033   9.960
11771SOL    HW237153  12.428  12.139   9.859
11772SOL     OW37154   9.510   7.901  14.795
11772SOL    HW137155   9.557   7.884  14.876
11772SOL    HW237156   9.519   7.995  14.780
11773SOL     OW37157  10.913  12.550   7.254
11773SOL    HW137158  10.916  12.457   7.234
11773SOL    HW237159  10.835  12.582   7.209
11774SOL     OW37160   9.425   9.018   5.464
11774SOL    HW137161   9.464   9.088   5.410
11774SOL    HW237162   9.334   9.044   5.475
11775SOL     OW37163   6.168  12.074   3.374
11775SOL    HW137164   6.250  12.025   3.374
11775SOL    HW237165   6.101  12.011   3.399
11776SOL     OW37166  14.712  10.955   7.505
11776SOL    HW137167  14.707  10.994   7.592
11776SOL    HW237168  14.780  10.888   7.513
11777SOL     OW37169   1.258   5.813   0.113
11777SOL    HW137170   1.238   5.724   0.140
11777SOL    HW237171   1.236   5.867   0.189
11778SOL     OW37172   7.477  12.629   3.014
11778SOL    HW137173   7.423  12.589   2.945
11778SOL    HW237174   7.420  12.629   3.091
11779SOL     OW37175   8.416  12.957  10.294
11779SOL    HW137176   8.459  12.910  10.366
11779SOL    HW237177   8.339  12.904  10.275
11780SOL     OW37178   2.405   1.339   4.958
11780SOL    HW137179   2.358   1.327   5.041
11780SOL    HW237180   2.351   1.402   4.910
11781SOL     OW37181   0.816  14.522   2.344
11781SOL    HW137182   0.788  14.436   2.312
11781SOL    HW237183   0.848  14.505   2.432
11782SOL     OW37184   1.676   7.700   9.465
11782SOL    HW137185   1.723   7.625   9.429
11782SOL    HW237186   1.634   7.667   9.544
11783SOL     OW37187   9.707  14.827   1.627
11783SOL    HW137188   9.788  14.777   1.613
11783SOL    HW237189   9.704  14.842   1.721
11784SOL     OW37190   7.887   6.013   4.653
11784SOL    HW137191   7.811   6.049   4.697
11784SOL    HW237192   7.933   6.089   4.617
11785SOL     OW37193  10.957   0.892   7.342
11785SOL    HW137194  10.985   0.841   7.418
11785SOL    HW237195  11.036   0.935   7.312
11786SOL     OW37196   2.568  11.191   9.167
11786SOL    HW137197   2.567  11.102   9.132
11786SOL    HW237198   2.598  11.246   9.095
11787SOL     OW37199   8.629   9.641   2.012
11787SOL    HW137200   8.684   9.679   1.943
11787SOL    HW237201   8.548   9.618   1.968
11788SOL     OW37202   3.917   8.785   4.279
11788SOL    HW137203   3.982   8.743   4.336
11788SOL    HW237204   3.927   8.741   4.195
11789SOL     OW37205   0.299   5.935   0.343
11789SOL    HW137206   0.308   6.024   0.309
11789SOL    HW237207   0.205   5.917   0.339
11790SOL     OW37208  11.792  13.802  11.123
11790SOL    HW137209  11.762  13.848  11.201
11790SOL    HW237210  11.879  13.838  11.106
11791SOL     OW37211  14.003   5.044   6.664
11791SOL    HW137212  13.953   5.086   6.734
11791SOL    HW237213  14.007   5.109   6.594
11792SOL     OW37214   3.466  10.480   2.923
11792SOL    HW137215   3.377  10.447   2.937
11792SOL    HW237216   3.505  10.482   3.010
11793SOL     OW37217   9.706   6.253   6.988
11793SOL    HW137218   9.782   6.275   6.934
11793SOL    HW237219   9.713   6.312   7.063
11794SOL     OW37220   0.754   3.627  14.044
11794SOL    HW137221   0.800   3.578  14.112
11794SOL    HW237222   0.742   3.563  13.973
11795SOL     OW37223  10.226  11.333  14.553
11795SOL    HW137224  10.223  11.267  14.484
11795SOL    HW237225  10.140  11.373  14.551
11796SOL     OW37226   9.393  10.842   6.057
11796SOL    HW137227   9.470  10.828   6.002
11796SOL    HW237228   9.384  10.937   6.062
11797SOL     OW37229   4.190   8.580   6.925
11797SOL    HW137230   4.247   8.517   6.968
11797SOL    HW237231   4.221   8.584   6.835
11798SOL     OW37232   8.996   7.989   5.793
11798SOL    HW137233   8.908   8.024   5.777
11798SOL    HW237234   9.003   7.987   5.889
11799SOL     OW37235   8.710   3.537   3.319
11799SOL    HW137236   8.742   3.604   3.258
11799SOL    HW237237   8.778   3.470   3.320
11800SOL     OW37238  12.004   6.941   4.792
11800SOL    HW137239  11.937   6.896   4.844
11800SOL    HW237240  11.955   7.005   4.741
11801SOL     OW37241  10.010   6.372  14.020
11801SOL    HW137242   9.944   6.323  14.068
11801SOL    HW237243  10.066   6.305  13.981
11802SOL     OW37244  12.628   6.278  14.382
11802SOL    HW137245  12.631   6.332  14.303
11802SOL    HW237246  12.708   6.302  14.430
11803SOL     OW37247  10.210   4.924   9.484
11803SOL    HW137248  10.173   4.889   9.403
11803SOL    HW237249  10.219   5.018   9.469
11804SOL     OW37250  13.804  10.698   4.110
11804SOL    HW137251  13.897  10.677   4.120
11804SOL    HW237252  13.760  10.613   4.120
11805SOL     OW37253   9.949  11.873  11.603
11805SOL    HW137254   9.990  11.802  11.553
11805SOL    HW237255   9.957  11.950  11.547
11806SOL     OW37256   8.654   9.089   2.107
11806SOL    HW137257   8.620   9.149   2.173
11806SOL    HW237258   8.728   9.046   2.150
11807SOL     OW37259  14.445   3.529  10.166
11807SOL    HW137260  14.415   3.519  10.257
11807SOL    HW237261  14.417   3.448  10.123
11808SOL     OW37262   9.822   4.499   4.546
11808SOL    HW137263   9.798   4.455   4.628
11808SOL    HW237264   9.748   4.557   4.528
11809SOL     OW37265   5.157  14.208   1.519
11809SOL    HW137266   5.078  14.197   1.465
11809SOL    HW237267   5.225  14.235   1.457
11810SOL     OW37268   6.579   5.061   3.264
11810SOL    HW137269   6.547   5.056   3.354
11810SOL    HW237270   6.534   4.990   3.218
11811SOL     OW37271   5.690   7.379   1.533
11811SOL    HW137272   5.675   7.463   1.576
11811SOL    HW237273   5.784   7.375   1.519
11812SOL     OW37274   7.254   8.014   1.041
11812SOL    HW137275   7.329   7.961   1.015
11812SOL    HW237276   7.286   8.067   1.114
11813SOL     OW37277   5.346   0.653   0.901
11813SOL    HW137278   5.265   0.618   0.938
11813SOL    HW237279   5.334   0.748   0.902
11814SOL     OW37280  10.504   2.839  13.947
11814SOL    HW137281  10.465   2.926  13.957
11814SOL    HW237282  10.572   2.851  13.881
11815SOL     OW37283   1.921   8.859   8.010
11815SOL    HW137284   1.840   8.809   8.019
11815SOL    HW237285   1.940   8.856   7.916
11816SOL     OW37286  14.205  10.012   8.699
11816SOL    HW137287  14.261   9.989   8.772
11816SOL    HW237288  14.262  10.009   8.622
11817SOL     OW37289   9.514  11.425   8.261
11817SOL    HW137290   9.458  11.407   8.187
11817SOL    HW237291   9.456  11.424   8.337
11818SOL     OW37292   9.746   5.452   3.940
11818SOL    HW137293   9.822   5.427   3.888
11818SOL    HW237294   9.695   5.509   3.882
11819SOL     OW37295  10.279   2.622  12.439
11819SOL    HW137296  10.245   2.711  12.433
11819SOL    HW237297  10.202   2.566  12.427
11820SOL     OW37298   9.423   5.389  11.741
11820SOL    HW137299   9.476   5.321  11.781
11820SOL    HW237300   9.352   5.342  11.697
11821SOL     OW37301   2.547   9.419   1.503
11821SOL    HW137302   2.589   9.483   1.444
11821SOL    HW237303   2.620   9.367   1.537
11822SOL     OW37304  13.988   7.415  12.618
11822SOL    HW137305  14.003   7.321  12.614
11822SOL    HW237306  13.896   7.426  12.593
11823SOL     OW37307   1.620  14.089  11.623
11823SOL    HW137308   1.541  14.038  11.641
11823SOL    HW237309   1.610  14.118  11.533
11824SOL     OW37310  12.544  10.169   0.512
11824SOL    HW137311  12.459  10.141   0.549
11824SOL    HW237312  12.522  10.241   0.453
11825SOL     OW37313   5.421  14.778   2.770
11825SOL    HW137314   5.379  14.801   2.853
11825SOL    HW237315   5.352  14.786   2.705
11826SOL     OW37316   1.792   2.412   3.147
11826SOL    HW137317   1.844   2.337   3.177
11826SOL    HW237318   1.800   2.476   3.217
11827SOL     OW37319  11.147   5.099  14.737
11827SOL    HW137320  11.241   5.095  14.756
11827SOL    HW237321  11.107   5.042  14.802
11828SOL     OW37322  13.989   0.265   9.930
11828SOL    HW137323  14.037   0.231  10.006
11828SOL    HW237324  13.909   0.213   9.926
11829SOL     OW37325   0.185   2.699  14.055
11829SOL    HW137326   0.095   2.676  14.029
11829SOL    HW237327   0.230   2.615  14.058
11830SOL     OW37328   3.056  11.057   1.067
11830SOL    HW137329   3.020  11.102   1.144
11830SOL    HW237330   2.985  11.003   1.035
11831SOL     OW37331   2.620   1.556  12.099
11831SOL    HW137332   2.558   1.621  12.064
11831SOL    HW237333   2.607   1.479  12.044
11832SOL     OW37334  10.888   8.190   7.644
11832SOL    HW137335  10.926   8.180   7.731
11832SOL    HW237336  10.849   8.277   7.645
11833SOL     OW37337   8.521  10.128  14.846
11833SOL    HW137338   8.565  10.122   0.052
11833SOL    HW237339   8.435  10.088  14.861
11834SOL     OW37340   4.883   0.147   7.807
11834SOL    HW137341   4.909   0.055   7.804
11834SOL    HW237342   4.962   0.195   7.781
11835SOL     OW37343  10.663   0.216  11.404
11835SOL    HW137344  10.599   0.153  11.438
11835SOL    HW237345  10.637   0.230  11.313
11836SOL     OW37346  12.047  14.671   0.432
11836SOL    HW137347  11.993  14.750   0.443
11836SOL    HW237348  11.997  14.602   0.473
11837SOL     OW37349   4.520   8.719   2.179
11837SOL    HW137350   4.450   8.709   2.244
11837SOL    HW237351   4.475   8.712   2.095
11838SOL     OW37352   4.650   6.447   9.426
11838SOL    HW137353   4.706   6.525   9.422
11838SOL    HW237354   4.628   6.439   9.519
11839SOL     OW37355   3.382   5.824  14.037
11839SOL    HW137356   3.434   5.757  13.993
11839SOL    HW237357   3.315   5.848  13.972
11840SOL     OW37358  14.587   2.930   0.494
11840SOL    HW137359  14.500   2.935   0.532
11840SOL    HW237360  14.636   2.872   0.553
11841SOL     OW37361  12.501  11.855   2.049
11841SOL    HW137362  12.509  11.882   2.140
11841SOL    HW237363  12.447  11.776   2.052
11842SOL     OW37364   7.193   4.638   9.427
11842SOL    HW137365   7.265   4.580   9.451
11842SOL    HW237366   7.116   4.598   9.467
11843SOL     OW37367   0.801   8.385   9.704
11843SOL    HW137368   0.770   8.303   9.665
11843SOL    HW237369   0.887   8.399   9.664
11844SOL     OW37370   7.005   2.470   9.527
11844SOL    HW137371   6.994   2.542   9.590
11844SOL    HW237372   7.014   2.513   9.442
11845SOL     OW37373   4.242   4.346   3.711
11845SOL    HW137374   4.214   4.428   3.751
11845SOL    HW237375   4.211   4.278   3.771
11846SOL     OW37376   7.648   6.238   1.544
11846SOL    HW137377   7.650   6.299   1.471
11846SOL    HW237378   7.687   6.287   1.617
11847SOL     OW37379   9.560   8.450   7.068
11847SOL    HW137380   9.510   8.478   6.992
11847SOL    HW237381   9.574   8.356   7.053
11848SOL     OW37382  10.244  11.377   6.324
11848SOL    HW137383  10.304  11.352   6.394
11848SOL    HW237384  10.179  11.433   6.366
11849SOL     OW37385   9.666   0.693  12.244
11849SOL    HW137386   9.582   0.738  12.242
11849SOL    HW237387   9.725   0.749  12.193
11850SOL     OW37388   0.961   7.872   5.708
11850SOL    HW137389   1.015   7.809   5.660
11850SOL    HW237390   0.876   7.828   5.717
11851SOL     OW37391  12.072   4.572  12.693
11851SOL    HW137392  12.083   4.492  12.641
11851SOL    HW237393  11.978   4.580  12.706
11852SOL     OW37394   7.442  11.313   3.392
11852SOL    HW137395   7.410  11.331   3.481
11852SOL    HW237396   7.527  11.273   3.405
11853SOL     OW37397  10.373  11.869   1.614
11853SOL    HW137398  10.450  11.925   1.619
11853SOL    HW237399  10.356  11.860   1.520
11854SOL     OW37400  10.469   6.848  13.810
11854SOL    HW137401  10.408   6.922  13.819
11854SOL    HW237402  10.551   6.888  13.782
11855SOL     OW37403   9.339   4.889   8.707
11855SOL    HW137404   9.313   4.924   8.792
11855SOL    HW237405   9.418   4.839   8.724
11856SOL     OW37406   0.659  10.604   9.642
11856SOL    HW137407   0.572  10.599   9.680
11856SOL    HW237408   0.649  10.660   9.565
11857SOL     OW37409   2.147   9.557  10.264
11857SOL    HW137410   2.155   9.566  10.169
11857SOL    HW237411   2.205   9.484  10.286
11858SOL     OW37412   1.078   4.401  10.100
11858SOL    HW137413   1.110   4.480  10.057
11858SOL    HW237414   1.014   4.432  10.163
11859SOL     OW37415  10.986  11.951   2.251
11859SOL    HW137416  10.964  12.024   2.193
11859SOL    HW237417  10.980  11.989   2.339
11860SOL     OW37418   8.015   3.600   7.822
11860SOL    HW137419   8.085   3.538   7.802
11860SOL    HW237420   8.060   3.682   7.839
11861SOL     OW37421   0.637   1.336  11.898
11861SOL    HW137422   0.658   1.317  11.989
11861SOL    HW237423   0.676   1.422  11.882
11862SOL     OW37424  11.777   5.986   0.681
11862SOL    HW137425  11.809   5.967   0.593
11862SOL    HW237426  11.821   5.922   0.737
11863SOL     OW37427  12.564   0.836   0.474
11863SOL    HW137428  12.571   0.876   0.387
11863SOL    HW237429  12.655   0.823   0.501
11864SOL     OW37430   5.692  11.941  10.126
11864SOL    HW137431   5.685  11.858  10.172
11864SOL    HW237432   5.743  11.921  10.047
11865SOL     OW37433  13.565  12.902   3.237
11865SOL    HW137434  13.532  12.855   3.161
11865SOL    HW237435  13.565  12.994   3.211
11866SOL     OW37436   0.999   4.814   1.760
11866SOL    HW137437   1.042   4.890   1.721
11866SOL    HW237438   1.053   4.739   1.735
11867SOL     OW37439  10.831   3.943   3.174
11867SOL    HW137440  10.903   4.005   3.166
11867SOL    HW237441  10.757   3.997   3.203
11868SOL     OW37442   2.442  11.648   5.568
11868SOL    HW137443   2.396  11.697   5.637
11868SOL    HW237444   2.424  11.697   5.488
11869SOL     OW37445  13.860   6.864   7.924
11869SOL    HW137446  13.930   6.925   7.947
11869SOL    HW237447  13.891   6.778   7.953
11870SOL     OW37448   7.039   4.923  11.810
11870SOL    HW137449   7.038   4.847  11.868
11870SOL    HW237450   7.110   4.978  11.844
11871SOL     OW37451   5.050   1.428  12.054
11871SOL    HW137452   4.990   1.393  11.988
11871SOL    HW237453   5.036   1.523  12.051
11872SOL     OW37454  14.775   5.543   6.623
11872SOL    HW137455  14.737   5.631   6.631
11872SOL    HW237456  14.705   5.491   6.583
11873SOL     OW37457  12.581   3.204  12.603
11873SOL    HW137458  12.655   3.159  12.563
11873SOL    HW237459  12.620   3.253  12.676
11874SOL     OW37460  10.942   4.286   8.426
11874SOL    HW137461  10.855   4.258   8.399
11874SOL    HW237462  10.968   4.222   8.492
11875SOL     OW37463   3.192  11.159   4.791
11875SOL    HW137464   3.238  11.126   4.868
11875SOL    HW237465   3.108  11.113   4.793
11876SOL     OW37466   2.557  12.984  10.575
11876SOL    HW137467   2.513  12.972  10.491
11876SOL    HW237468   2.648  13.002  10.552
11877SOL     OW37469  13.304  11.452   0.587
11877SOL    HW137470  13.261  11.537   0.576
11877SOL    HW237471  13.371  11.450   0.518
11878SOL     OW37472   4.239   0.120  13.301
11878SOL    HW137473   4.204   0.150  13.385
11878SOL    HW237474   4.297   0.047  13.324
11879SOL     OW37475   6.231  10.294   3.763
11879SOL    HW137476   6.264  10.285   3.674
11879SOL    HW237477   6.298  10.343   3.810
11880SOL     OW37478   9.216  12.046   7.586
11880SOL    HW137479   9.180  12.132   7.565
11880SOL    HW237480   9.177  11.987   7.522
11881SOL     OW37481  11.186  11.966  10.431
11881SOL    HW137482  11.260  11.969  10.492
11881SOL    HW237483  11.148  12.053  10.436
11882SOL     OW37484   5.533   7.833   1.808
11882SOL    HW137485   5.598   7.783   1.858
11882SOL    HW237486   5.451   7.817   1.854
11883SOL     OW37487  11.549  12.112  14.720
11883SOL    HW137488  11.567  12.129  14.812
11883SOL    HW237489  11.619  12.054  14.692
11884SOL     OW37490   2.782   3.504  13.779
11884SOL    HW137491   2.714   3.518  13.845
11884SOL    HW237492   2.772   3.577  13.718
11885SOL     OW37493   4.516   6.962   8.854
11885SOL    HW137494   4.587   6.996   8.799
11885SOL    HW237495   4.529   7.004   8.939
11886SOL     OW37496   1.783   0.507   6.876
11886SOL    HW137497   1.859   0.564   6.890
11886SOL    HW237498   1.792   0.476   6.786
11887SOL     OW37499   4.804  12.410  14.564
11887SOL    HW137500   4.741  12.362  14.510
11887SOL    HW237501   4.759  12.423  14.648
11888SOL     OW37502   0.521  13.694   4.704
11888SOL    HW137503   0.594  13.701   4.643
11888SOL    HW237504   0.548  13.628   4.768
11889SOL     OW37505   9.430  11.572   4.737
11889SOL    HW137506   9.365  11.609   4.678
11889SOL    HW237507   9.424  11.626   4.816
11890SOL     OW37508   0.517  13.703   8.281
11890SOL    HW137509   0.532  13.619   8.323
11890SOL    HW237510   0.514  13.683   8.187
11891SOL     OW37511   2.359   4.070   3.052
11891SOL    HW137512   2.279   4.048   3.005
11891SOL    HW237513   2.383   3.990   3.098
11892SOL     OW37514  14.134   9.286   4.322
11892SOL    HW137515  14.074   9.246   4.386
11892SOL    HW237516  14.113   9.244   4.239
11893SOL     OW37517   8.119   2.631   2.719
11893SOL    HW137518   8.153   2.558   2.771
11893SOL    HW237519   8.110   2.595   2.631
11894SOL     OW37520  13.946   2.356   1.508
11894SOL    HW137521  13.976   2.420   1.572
11894SOL    HW237522  14.018   2.292   1.502
11895SOL     OW37523   4.786   0.617   7.331
11895SOL    HW137524   4.753   0.528   7.345
11895SOL    HW237525   4.732   0.652   7.260
11896SOL     OW37526   8.121  12.742   5.653
11896SOL    HW137527   8.193  12.689   5.620
11896SOL    HW237528   8.106  12.709   5.742
11897SOL     OW37529   0.014   0.530   3.268
11897SOL    HW137530   0.102   0.561   3.288
11897SOL    HW237531  14.838   0.565   3.338
11898SOL     OW37532   1.388   7.139   0.900
11898SOL    HW137533   1.477   7.103   0.895
11898SOL    HW237534   1.353   7.129   0.811
11899SOL     OW37535   8.749  14.632   0.424
11899SOL    HW137536   8.810  14.604   0.356
11899SOL    HW237537   8.674  14.573   0.415
11900SOL     OW37538   8.281  10.763  13.761
11900SOL    HW137539   8.333  10.813  13.823
11900SOL    HW237540   8.219  10.714  13.816
11901SOL     OW37541   6.474   7.832   5.413
11901SOL    HW137542   6.458   7.921   5.442
11901SOL    HW237543   6.569   7.828   5.398
11902SOL     OW37544  13.600  12.775  10.251
11902SOL    HW137545  13.687  12.740  10.233
11902SOL    HW237546  13.566  12.720  10.322
11903SOL     OW37547   5.180   7.363   1.828
11903SOL    HW137548   5.172   7.349   1.734
11903SOL    HW237549   5.118   7.434   1.847
11904SOL     OW37550  14.172  11.624  13.855
11904SOL    HW137551  14.180  11.699  13.796
11904SOL    HW237552  14.177  11.547  13.799
11905SOL     OW37553   9.221   5.880   1.698
11905SOL    HW137554   9.279   5.836   1.761
11905SOL    HW237555   9.140   5.895   1.747
11906SOL     OW37556   6.729  12.314  12.010
11906SOL    HW137557   6.775  12.341  11.931
11906SOL    HW237558   6.636  12.322  11.988
11907SOL     OW37559  10.718   0.551   1.901
11907SOL    HW137560  10.787   0.485   1.910
11907SOL    HW237561  10.732   0.588   1.814
11908SOL     OW37562   7.480   3.506   8.803
11908SOL    HW137563   7.469   3.574   8.869
11908SOL    HW237564   7.530   3.437   8.847
11909SOL     OW37565   5.492   9.148   4.082
11909SOL    HW137566   5.464   9.103   4.003
11909SOL    HW237567   5.585   9.127   4.091
11910SOL     OW37568   1.849   7.029  13.715
11910SOL    HW137569   1.910   7.094  13.681
11910SOL    HW237570   1.893   6.993  13.792
11911SOL     OW37571   7.960   8.942   2.152
11911SOL    HW137572   7.904   8.865   2.153
11911SOL    HW237573   8.017   8.930   2.076
11912SOL     OW37574   2.919   1.513   9.255
11912SOL    HW137575   2.965   1.478   9.178
11912SOL    HW237576   2.915   1.607   9.239
11913SOL     OW37577  14.041   1.390  12.093
11913SOL    HW137578  13.963   1.349  12.129
11913SOL    HW237579  14.099   1.317  12.072
11914SOL     OW37580   6.435  10.462   3.862
11914SOL    HW137581   6.506  10.402   3.885
11914SOL    HW237582   6.471  10.549   3.877
11915SOL     OW37583   5.663   3.725   6.888
11915SOL    HW137584   5.729   3.682   6.834
11915SOL    HW237585   5.677   3.818   6.872
11916SOL     OW37586  13.045   6.077  12.971
11916SOL    HW137587  13.055   6.154  13.028
11916SOL    HW237588  13.097   6.099  12.893
11917SOL     OW37589  14.461   1.852   0.810
11917SOL    HW137590  14.473   1.936   0.853
11917SOL    HW237591  14.550   1.819   0.798
11918SOL     OW37592   3.582   1.205   5.570
11918SOL    HW137593   3.562   1.282   5.517
11918SOL    HW237594   3.525   1.136   5.535
11919SOL     OW37595   1.749   1.708  12.318
11919SOL    HW137596   1.820   1.723  12.255
11919SOL    HW237597   1.789   1.726  12.403
11920SOL     OW37598   8.569  14.267  12.740
11920SOL    HW137599   8.530  14.352  12.723
11920SOL    HW237600   8.661  14.285  12.760
11921SOL     OW37601  13.801   8.916   9.353
11921SOL    HW137602  13.786   9.010   9.345
11921SOL    HW237603  13.896   8.907   9.354
11922SOL     OW37604   9.259   0.017   6.453
11922SOL    HW137605   9.288   0.095   6.406
11922SOL    HW237606   9.338  14.843   6.463
11923SOL     OW37607   4.121   7.177   1.358
11923SOL    HW137608   4.157   7.257   1.320
11923SOL    HW237609   4.197   7.130   1.392
11924SOL     OW37610   6.868   9.807  10.089
11924SOL    HW137611   6.865   9.865  10.014
11924SOL    HW237612   6.919   9.856  10.155
11925SOL     OW37613   0.846   2.078   7.368
11925SOL    HW137614   0.921   2.107   7.316
11925SOL    HW237615   0.816   2.156   7.414
11926SOL     OW37616   1.703   6.139   6.147
11926SOL    HW137617   1.665   6.079   6.211
11926SOL    HW237618   1.728   6.217   6.197
11927SOL     OW37619   2.065  13.628   4.908
11927SOL    HW137620   2.153  13.624   4.945
11927SOL    HW237621   2.011  13.665   4.978
11928SOL     OW37622   2.696  11.206   6.951
11928SOL    HW137623   2.668  11.115   6.937
11928SOL    HW237624   2.763  11.220   6.884
11929SOL     OW37625   1.054   8.463   5.725
11929SOL    HW137626   1.112   8.391   5.748
11929SOL    HW237627   1.084   8.536   5.779
11930SOL     OW37628   5.318   4.035  14.225
11930SOL    HW137629   5.292   3.970  14.290
11930SOL    HW237630   5.274   4.116  14.252
11931SOL     OW37631   9.130   9.861   5.410
11931SOL    HW137632   9.037   9.849   5.391
11931SOL    HW237633   9.164   9.911   5.336
11932SOL     OW37634   1.675  12.616   3.082
11932SOL    HW137635   1.660  12.654   3.168
11932SOL    HW237636   1.626  12.673   3.022
11933SOL     OW37637   3.957   8.797  12.325
11933SOL    HW137638   4.010   8.866  12.364
11933SOL    HW237639   3.866   8.824  12.342
11934SOL     OW37640   0.543   3.512  14.348
11934SOL    HW137641   0.461   3.475  14.381
11934SOL    HW237642   0.609   3.445  14.365
11935SOL     OW37643   6.322  14.196   8.973
11935SOL    HW137644   6.262  14.121   8.975
11935SOL    HW237645   6.276  14.262   8.922
11936SOL     OW37646   2.821   1.871   1.625
11936SOL    HW137647   2.907   1.896   1.657
11936SOL    HW237648   2.767   1.863   1.704
11937SOL     OW37649  13.503   8.695  10.284
11937SOL    HW137650  13.534   8.621  10.233
11937SOL    HW237651  13.416   8.670  10.314
11938SOL     OW37652  13.990   5.547   2.552
11938SOL    HW137653  14.043   5.559   2.473
11938SOL    HW237654  13.944   5.464   2.538
11939SOL     OW37655   9.892   2.995   8.043
11939SOL    HW137656   9.809   3.004   7.997
11939SOL    HW237657   9.898   2.902   8.063
11940SOL     OW37658  12.913   6.836  11.198
11940SOL    HW137659  12.970   6.781  11.252
11940SOL    HW237660  12.960   6.920  11.193
11941SOL     OW37661   8.212   3.265   6.324
11941SOL    HW137662   8.145   3.281   6.390
11941SOL    HW237663   8.294   3.289   6.368
11942SOL     OW37664   2.804  11.367   2.654
11942SOL    HW137665   2.719  11.411   2.649
11942SOL    HW237666   2.835  11.385   2.742
11943SOL     OW37667   9.928   9.014   8.042
11943SOL    HW137668   9.852   9.047   7.994
11943SOL    HW237669   9.905   8.923   8.064
11944SOL     OW37670  14.550   0.097   6.168
11944SOL    HW137671  14.500   0.073   6.246
11944SOL    HW237672  14.496   0.069   6.094
11945SOL     OW37673  14.482   9.376  14.656
11945SOL    HW137674  14.427   9.427  14.596
11945SOL    HW237675  14.548   9.336  14.601
11946SOL     OW37676  12.909   1.584   2.380
11946SOL    HW137677  12.966   1.526   2.330
11946SOL    HW237678  12.858   1.631   2.314
11947SOL     OW37679  12.052   4.384   2.685
11947SOL    HW137680  12.036   4.460   2.740
11947SOL    HW237681  11.998   4.315   2.724
11948SOL     OW37682   1.061   6.775   5.572
11948SOL    HW137683   0.981   6.773   5.521
11948SOL    HW237684   1.123   6.824   5.518
11949SOL     OW37685   2.238   9.011  14.878
11949SOL    HW137686   2.195   9.000  14.793
11949SOL    HW237687   2.329   9.033  14.856
11950SOL     OW37688  10.792   0.897  13.338
11950SOL    HW137689  10.700   0.922  13.340
11950SOL    HW237690  10.828   0.933  13.420
11951SOL     OW37691  12.963   9.862  10.586
11951SOL    HW137692  13.039   9.808  10.607
11951SOL    HW237693  12.998   9.934  10.534
11952SOL     OW37694  12.437  10.922   8.599
11952SOL    HW137695  12.511  10.948   8.543
11952SOL    HW237696  12.464  10.838   8.637
11953SOL     OW37697   3.317   4.841   4.793
11953SOL    HW137698   3.336   4.929   4.826
11953SOL    HW237699   3.404   4.802   4.780
11954SOL     OW37700  11.608   7.658  12.232
11954SOL    HW137701  11.701   7.633  12.233
11954SOL    HW237702  11.587   7.669  12.140
11955SOL     OW37703  14.314  13.439   5.559
11955SOL    HW137704  14.379  13.368   5.556
11955SOL    HW237705  14.366  13.519   5.552
11956SOL     OW37706   1.316   3.016   4.637
11956SOL    HW137707   1.397   3.045   4.678
11956SOL    HW237708   1.255   3.005   4.711
11957SOL     OW37709   4.740   5.704   1.397
11957SOL    HW137710   4.786   5.768   1.342
11957SOL    HW237711   4.804   5.634   1.410
11958SOL     OW37712   8.360  13.781   3.599
11958SOL    HW137713   8.332  13.759   3.511
11958SOL    HW237714   8.322  13.867   3.617
11959SOL     OW37715  10.039   5.578   4.479
11959SOL    HW137716  10.109   5.533   4.526
11959SOL    HW237717  10.067   5.669   4.475
11960SOL     OW37718   1.312   2.883  10.796
11960SOL    HW137719   1.342   2.804  10.751
11960SOL    HW237720   1.378   2.898  10.863
11961SOL     OW37721   5.227   7.042   8.387
11961SOL    HW137722   5.156   7.101   8.361
11961SOL    HW237723   5.198   7.007   8.472
11962SOL     OW37724   3.369  14.755   4.569
11962SOL    HW137725   3.294  14.814   4.562
11962SOL    HW237726   3.431  14.787   4.502
11963SOL     OW37727  12.477   9.697   0.865
11963SOL    HW137728  12.556   9.653   0.833
11963SOL    HW237729  12.405   9.650   0.822
11964SOL     OW37730  11.370   0.877   5.323
11964SOL    HW137731  11.292   0.920   5.286
11964SOL    HW237732  11.338   0.832   5.401
11965SOL     OW37733  14.053   2.122   8.141
11965SOL    HW137734  13.997   2.102   8.216
11965SOL    HW237735  14.012   2.074   8.068
11966SOL     OW37736   0.016  11.731  12.504
11966SOL    HW137737  14.802  11.755  12.511
11966SOL    HW237738   0.021  11.644  12.543
11967SOL     OW37739  14.745  13.122   2.114
11967SOL    HW137740  14.809  13.105   2.046
11967SOL    HW237741  14.680  13.053   2.104
11968SOL     OW37742  12.205   7.186   6.649
11968SOL    HW137743  12.295   7.208   6.626
11968SOL    HW237744  12.182   7.114   6.591
11969SOL     OW37745  10.002   5.068   5.748
11969SOL    HW137746   9.963   5.155   5.735
11969SOL    HW237747  10.061   5.079   5.823
11970SOL     OW37748   5.776   5.512  10.292
11970SOL    HW137749   5.820   5.488  10.210
11970SOL    HW237750   5.844   5.501  10.359
11971SOL     OW37751  13.048  12.168   8.327
11971SOL    HW137752  13.066  12.164   8.421
11971SOL    HW237753  13.049  12.076   8.299
11972SOL     OW37754   1.600   5.379  12.032
11972SOL    HW137755   1.508   5.353  12.025
11972SOL    HW237756   1.639   5.352  11.949
11973SOL     OW37757   2.753  13.448  13.400
11973SOL    HW137758   2.826  13.401  13.360
11973SOL    HW237759   2.676  13.415  13.353
11974SOL     OW37760   0.397   8.225   1.176
11974SOL    HW137761   0.382   8.301   1.119
11974SOL    HW237762   0.402   8.262   1.264
11975SOL     OW37763   3.797   2.283  10.355
11975SOL    HW137764   3.779   2.326  10.439
11975SOL    HW237765   3.892   2.271  10.355
11976SOL     OW37766   7.541   2.321   4.462
11976SOL    HW137767   7.593   2.266   4.404
11976SOL    HW237768   7.595   2.332   4.540
11977SOL     OW37769   2.784   6.576  13.059
11977SOL    HW137770   2.744   6.641  13.116
11977SOL    HW237771   2.859   6.543  13.110
11978SOL     OW37772  10.266   0.999   7.640
11978SOL    HW137773  10.240   1.080   7.684
11978SOL    HW237774  10.343   0.969   7.688
11979SOL     OW37775   0.883   0.472   5.992
11979SOL    HW137776   0.813   0.496   5.932
11979SOL    HW237777   0.931   0.403   5.947
11980SOL     OW37778   5.139  14.768   4.129
11980SOL    HW137779   5.191  14.807   4.058
11980SOL    HW237780   5.202  14.715   4.178
11981SOL     OW37781   7.685  12.603   1.717
11981SOL    HW137782   7.728  12.549   1.783
11981SOL    HW237783   7.715  12.692   1.736
11982SOL     OW37784   3.566   8.975  13.734
11982SOL    HW137785   3.524   9.059  13.753
11982SOL    HW237786   3.552   8.961  13.641
11983SOL     OW37787   7.155   3.336   1.326
11983SOL    HW137788   7.131   3.296   1.243
11983SOL    HW237789   7.210   3.411   1.302
11984SOL     OW37790   4.504   8.627   9.500
11984SOL    HW137791   4.463   8.565   9.439
11984SOL    HW237792   4.440   8.697   9.511
11985SOL     OW37793   4.861  12.405   3.248
11985SOL    HW137794   4.817  12.487   3.228
11985SOL    HW237795   4.948  12.431   3.279
11986SOL     OW37796   3.916   8.766   8.824
11986SOL    HW137797   4.002   8.735   8.795
11986SOL    HW237798   3.922   8.862   8.818
11987SOL     OW37799   1.133   8.789  10.883
11987SOL    HW137800   1.167   8.704  10.912
11987SOL    HW237801   1.171   8.802  10.796
11988SOL     OW37802  10.624   7.948  12.684
11988SOL    HW137803  10.688   7.970  12.616
11988SOL    HW237804  10.671   7.891  12.744
11989SOL     OW37805   1.201   6.303   7.352
11989SOL    HW137806   1.148   6.302   7.272
11989SOL    HW237807   1.287   6.273   7.324
11990SOL     OW37808  10.739   1.173  10.514
11990SOL    HW137809  10.678   1.151  10.584
11990SOL    HW237810  10.825   1.174  10.557
11991SOL     OW37811   0.670  10.258   7.131
11991SOL    HW137812   0.731  10.192   7.163
11991SOL    HW237813   0.629  10.294   7.210
11992SOL     OW37814  10.099  12.965   4.279
11992SOL    HW137815  10.029  12.958   4.215
11992SOL    HW237816  10.159  13.030   4.242
11993SOL     OW37817   3.813   2.783   1.960
11993SOL    HW137818   3.810   2.826   2.046
11993SOL    HW237819   3.805   2.855   1.897
11994SOL     OW37820   3.534  12.156  12.968
11994SOL    HW137821   3.554  12.221  13.035
11994SOL    HW237822   3.594  12.176  12.896
11995SOL     OW37823   2.606   7.646  14.113
11995SOL    HW137824   2.554   7.577  14.072
11995SOL    HW237825   2.666   7.675  14.044
11996SOL     OW37826  14.170   8.842   4.624
11996SOL    HW137827  14.197   8.892   4.547
11996SOL    HW237828  14.212   8.887   4.697
11997SOL     OW37829  13.884   3.529  12.487
11997SOL    HW137830  13.903   3.560  12.399
11997SOL    HW237831  13.793   3.498  12.483
11998SOL     OW37832  12.769  11.980   8.785
11998SOL    HW137833  12.739  11.972   8.876
11998SOL    HW237834  12.716  12.051   8.749
11999SOL     OW37835  11.360   9.895   3.637
11999SOL    HW137836  11.286   9.844   3.670
11999SOL    HW237837  11.429   9.830   3.620
12000SOL     OW37838   0.232   2.717  12.669
12000SOL    HW137839   0.300   2.678  12.614
12000SOL    HW237840   0.181   2.772  12.609
12001SOL     OW37841   8.520   5.468   9.875
12001SOL    HW137842   8.450   5.518   9.833
12001SOL    HW237843   8.523   5.500   9.965
12002SOL     OW37844   7.021   8.895   8.781
12002SOL    HW137845   7.038   8.815   8.731
12002SOL    HW237846   7.063   8.881   8.865
12003SOL     OW37847   8.838  12.921   4.277
12003SOL    HW137848   8.805  12.858   4.342
12003SOL    HW237849   8.920  12.953   4.314
12004SOL     OW37850  12.173   2.579  13.120
12004SOL    HW137851  12.144   2.600  13.209
12004SOL    HW237852  12.093   2.556  13.073
12005SOL     OW37853  12.188   9.649  12.006
12005SOL    HW137854  12.204   9.743  12.003
12005SOL    HW237855  12.148   9.634  12.092
12006SOL     OW37856   3.387  12.784   5.031
12006SOL    HW137857   3.400  12.841   4.955
12006SOL    HW237858   3.297  12.752   5.021
12007SOL     OW37859   4.294  12.274   1.204
12007SOL    HW137860   4.278  12.334   1.277
12007SOL    HW237861   4.342  12.201   1.242
12008SOL     OW37862   3.547   0.078  14.745
12008SOL    HW137863   3.528   0.159  14.698
12008SOL    HW237864   3.591   0.023  14.680
12009SOL     OW37865   1.504   8.869  10.544
12009SOL    HW137866   1.591   8.910  10.552
12009SOL    HW237867   1.521   8.775  10.544
12010SOL     OW37868   0.044   3.854  12.041
12010SOL    HW137869   0.016   3.814  11.959
12010SOL    HW237870  14.849   3.842  12.100
12011SOL     OW37871  12.424  14.589  13.452
12011SOL    HW137872  12.442  14.681  13.435
12011SOL    HW237873  12.505  14.555  13.490
12012SOL     OW37874   3.647  13.053   7.849
12012SOL    HW137875   3.581  12.988   7.823
12012SOL    HW237876   3.730  13.014   7.823
12013SOL     OW37877   0.949   8.959   3.370
12013SOL    HW137878   1.002   9.014   3.312
12013SOL    HW237879   1.012   8.903   3.415
12014SOL     OW37880   6.144  12.729  12.376
12014SOL    HW137881   6.117  12.708  12.287
12014SOL    HW237882   6.081  12.795  12.405
12015SOL     OW37883  13.328   8.583   1.245
12015SOL    HW137884  13.383   8.554   1.318
12015SOL    HW237885  13.323   8.678   1.255
12016SOL     OW37886   9.899   3.861   9.403
12016SOL    HW137887   9.950   3.783   9.426
12016SOL    HW237888   9.940   3.932   9.452
12017SOL     OW37889   8.227   8.497   5.837
12017SOL    HW137890   8.188   8.578   5.806
12017SOL    HW237891   8.178   8.428   5.793
12018SOL     OW37892   4.879  14.500  12.932
12018SOL    HW137893   4.829  14.571  12.973
12018SOL    HW237894   4.864  14.513  12.838
12019SOL     OW37895   1.996   7.832  10.882
12019SOL    HW137896   1.921   7.789  10.840
12019SOL    HW237897   2.039   7.761  10.931
12020SOL     OW37898   1.153   9.015  11.035
12020SOL    HW137899   1.147   8.925  11.006
12020SOL    HW237900   1.229   9.051  10.989
12021SOL     OW37901  11.219   9.222   2.234
12021SOL    HW137902  11.289   9.287   2.231
12021SOL    HW237903  11.263   9.138   2.222
12022SOL     OW37904   5.057   1.103  14.090
12022SOL    HW137905   5.072   1.023  14.040
12022SOL    HW237906   5.003   1.076  14.163
12023SOL     OW37907  14.188  11.370   0.471
12023SOL    HW137908  14.283  11.380   0.477
12023SOL    HW237909  14.153  11.451   0.506
12024SOL     OW37910   9.609   8.421  14.653
12024SOL    HW137911   9.584   8.486  14.719
12024SOL    HW237912   9.703   8.437  14.638
12025SOL     OW37913  11.871   0.152   6.547
12025SOL    HW137914  11.844   0.235   6.586
12025SOL    HW237915  11.932   0.177   6.477
12026SOL     OW37916   0.592   8.885  13.909
12026SOL    HW137917   0.640   8.816  13.864
12026SOL    HW237918   0.639   8.897  13.992
12027SOL     OW37919  13.972  12.218  13.543
12027SOL    HW137920  14.057  12.191  13.508
12027SOL    HW237921  13.991  12.298  13.591
12028SOL     OW37922   0.652  10.924   9.208
12028SOL    HW137923   0.670  10.951   9.118
12028SOL    HW237924   0.570  10.969   9.230
12029SOL     OW37925   3.427  10.078  11.527
12029SOL    HW137926   3.334  10.059  11.514
12029SOL    HW237927   3.471   9.994  11.515
12030SOL     OW37928   4.679   3.092  14.736
12030SOL    HW137929   4.719   3.048  14.661
12030SOL    HW237930   4.588   3.106  14.710
12031SOL     OW37931  12.835   2.015   9.541
12031SOL    HW137932  12.920   1.970   9.537
12031SOL    HW237933  12.793   1.979   9.619
12032SOL     OW37934  10.574  14.151   0.526
12032SOL    HW137935  10.651  14.104   0.556
12032SOL    HW237936  10.536  14.189   0.606
12033SOL     OW37937  10.773   2.828  12.867
12033SOL    HW137938  10.840   2.765  12.843
12033SOL    HW237939  10.709   2.824  12.796
12034SOL     OW37940   0.928  10.470   2.767
12034SOL    HW137941   0.845  10.476   2.718
12034SOL    HW237942   0.925  10.545   2.827
12035SOL     OW37943   6.642   0.900   5.003
12035SOL    HW137944   6.559   0.917   5.049
12035SOL    HW237945   6.701   0.968   5.034
12036SOL     OW37946   1.685  13.027   3.294
12036SOL    HW137947   1.706  13.049   3.204
12036SOL    HW237948   1.696  12.932   3.299
12037SOL     OW37949  13.271   9.430   3.282
12037SOL    HW137950  13.265   9.335   3.282
12037SOL    HW237951  13.187   9.459   3.320
12038SOL     OW37952  13.855   4.561   9.629
12038SOL    HW137953  13.877   4.637   9.575
12038SOL    HW237954  13.861   4.486   9.569
12039SOL     OW37955  14.709   6.292   5.025
12039SOL    HW137956  14.790   6.263   5.066
12039SOL    HW237957  14.676   6.213   4.980
12040SOL     OW37958   5.462  12.037  14.676
12040SOL    HW137959   5.397  12.107  14.685
12040SOL    HW237960   5.519  12.047  14.753
12041SOL     OW37961  13.665   9.272  13.550
12041SOL    HW137962  13.738   9.228  13.592
12041SOL    HW237963  13.596   9.274  13.617
12042SOL     OW37964   4.102  14.131   8.807
12042SOL    HW137965   4.128  14.119   8.899
12042SOL    HW237966   4.177  14.174   8.766
12043SOL     OW37967   9.278   5.219  11.965
12043SOL    HW137968   9.370   5.191  11.962
12043SOL    HW237969   9.261   5.255  11.878
12044SOL     OW37970  13.264   7.532   9.357
12044SOL    HW137971  13.225   7.484   9.283
12044SOL    HW237972  13.350   7.493   9.368
12045SOL     OW37973   4.485   4.936  11.092
12045SOL    HW137974   4.402   4.968  11.128
12045SOL    HW237975   4.460   4.865  11.032
12046SOL     OW37976  12.066   0.646  11.607
12046SOL    HW137977  12.145   0.652  11.661
12046SOL    HW237978  12.047   0.737  11.584
12047SOL     OW37979   5.903   5.419  10.045
12047SOL    HW137980   5.853   5.420   9.964
12047SOL    HW237981   5.994   5.433  10.017
12048SOL     OW37982   0.661   1.298   2.672
12048SOL    HW137983   0.678   1.233   2.741
12048SOL    HW237984   0.644   1.379   2.719
12049SOL     OW37985  14.182   1.109   7.156
12049SOL    HW137986  14.161   1.039   7.217
12049SOL    HW237987  14.146   1.080   7.073
12050SOL     OW37988   5.610   8.087   7.889
12050SOL    HW137989   5.696   8.062   7.923
12050SOL    HW237990   5.559   8.111   7.967
12051SOL     OW37991  10.511  11.094   3.801
12051SOL    HW137992  10.451  11.169   3.792
12051SOL    HW237993  10.526  11.086   3.895
12052SOL     OW37994   0.362   6.632   1.583
12052SOL    HW137995   0.398   6.550   1.617
12052SOL    HW237996   0.377   6.696   1.653
12053SOL     OW37997   3.611   7.605   0.169
12053SOL    HW137998   3.557   7.562   0.102
12053SOL    HW237999   3.621   7.695   0.139
12054SOL     OW38000   4.478   6.093  12.512
12054SOL    HW138001   4.409   6.067  12.451
12054SOL    HW238002   4.432   6.108  12.595
12055SOL     OW38003  11.334   0.200   9.819
12055SOL    HW138004  11.395   0.262   9.779
12055SOL    HW238005  11.251   0.214   9.772
12056SOL     OW38006   0.691  10.576   1.099
12056SOL    HW138007   0.777  10.617   1.089
12056SOL    HW238008   0.665  10.598   1.189
12057SOL     OW38009   7.358   5.101  11.113
12057SOL    HW138010   7.379   5.085  11.021
12057SOL    HW238011   7.419   5.045  11.161
12058SOL     OW38012   0.600   2.062   2.893
12058SOL    HW138013   0.638   1.993   2.840
12058SOL    HW238014   0.534   2.017   2.947
12059SOL     OW38015  12.574   1.523   5.447
12059SOL    HW138016  12.616   1.526   5.533
12059SOL    HW238017  12.641   1.554   5.386
12060SOL     OW38018   7.596   2.789  12.708
12060SOL    HW138019   7.624   2.747  12.627
12060SOL    HW238020   7.669   2.846  12.732
12061SOL     OW38021  14.575   5.438  14.500
12061SOL    HW138022  14.574   5.490  14.581
12061SOL    HW238023  14.668   5.426  14.480
12062SOL     OW38024   5.056  13.769   9.831
12062SOL    HW138025   4.991  13.702   9.808
12062SOL    HW238026   5.099  13.790   9.749
12063SOL     OW38027   1.788   0.968   8.489
12063SOL    HW138028   1.728   0.914   8.540
12063SOL    HW238029   1.738   0.992   8.411
12064SOL     OW38030   5.242   9.168   5.437
12064SOL    HW138031   5.273   9.258   5.432
12064SOL    HW238032   5.227   9.153   5.531
12065SOL     OW38033  14.456   9.121   6.239
12065SOL    HW138034  14.440   9.159   6.153
12065SOL    HW238035  14.541   9.079   6.232
12066SOL     OW38036   3.189  14.018   6.908
12066SOL    HW138037   3.134  13.992   6.982
12066SOL    HW238038   3.271  13.970   6.920
12067SOL     OW38039   8.569   3.071   0.473
12067SOL    HW138040   8.654   3.067   0.429
12067SOL    HW238041   8.507   3.037   0.408
12068SOL     OW38042   0.723   3.736   2.684
12068SOL    HW138043   0.652   3.790   2.719
12068SOL    HW238044   0.682   3.654   2.660
12069SOL     OW38045   0.342   1.579   0.312
12069SOL    HW138046   0.418   1.532   0.278
12069SOL    HW238047   0.318   1.640   0.242
12070SOL     OW38048   3.935   8.333   0.236
12070SOL    HW138049   3.914   8.375   0.319
12070SOL    HW238050   3.866   8.269   0.223
12071SOL     OW38051   4.336  11.180   0.978
12071SOL    HW138052   4.331  11.167   0.883
12071SOL    HW238053   4.260  11.234   0.999
12072SOL     OW38054   0.690  11.082   0.205
12072SOL    HW138055   0.716  11.034   0.126
12072SOL    HW238056   0.596  11.063   0.215
12073SOL     OW38057   3.339  12.018  12.785
12073SOL    HW138058   3.298  12.099  12.756
12073SOL    HW238059   3.413  12.047  12.839
12074SOL     OW38060  12.829   5.318   9.832
12074SOL    HW138061  12.767   5.343   9.763
12074SOL    HW238062  12.861   5.402   9.867
12075SOL     OW38063  12.673  10.392  14.288
12075SOL    HW138064  12.594  10.429  14.250
12075SOL    HW238065  12.735  10.384  14.215
12076SOL     OW38066   9.559   4.363   7.209
12076SOL    HW138067   9.618   4.380   7.283
12076SOL    HW238068   9.617   4.366   7.132
12077SOL     OW38069   8.167  14.256   1.028
12077SOL    HW138070   8.226  14.278   0.955
12077SOL    HW238071   8.119  14.180   0.997
12078SOL     OW38072   6.795   8.197   2.770
12078SOL    HW138073   6.875   8.147   2.754
12078SOL    HW238074   6.779   8.244   2.689
12079SOL     OW38075   0.360   8.287   4.422
12079SOL    HW138076   0.306   8.241   4.486
12079SOL    HW238077   0.301   8.350   4.381
12080SOL     OW38078   8.514   6.545   0.701
12080SOL    HW138079   8.475   6.551   0.788
12080SOL    HW238080   8.516   6.635   0.669
12081SOL     OW38081  11.750   9.559   0.999
12081SOL    HW138082  11.724   9.467   1.003
12081SOL    HW238083  11.728   9.586   0.910
12082SOL     OW38084  13.391  10.346  10.122
12082SOL    HW138085  13.418  10.391  10.042
12082SOL    HW238086  13.376  10.417  10.185
12083SOL     OW38087  14.844  13.194  12.087
12083SOL    HW138088  14.877  13.272  12.130
12083SOL    HW238089   0.036  13.130  12.095
12084SOL     OW38090   4.565   7.677   8.507
12084SOL    HW138091   4.620   7.599   8.515
12084SOL    HW238092   4.624   7.745   8.475
12085SOL     OW38093   5.400   6.618   6.574
12085SOL    HW138094   5.492   6.644   6.565
12085SOL    HW238095   5.352   6.686   6.528
12086SOL     OW38096  10.398  13.905   2.427
12086SOL    HW138097  10.363  13.950   2.503
12086SOL    HW238098  10.461  13.967   2.389
12087SOL     OW38099   1.447  10.802   1.936
12087SOL    HW138100   1.536  10.791   1.970
12087SOL    HW238101   1.400  10.850   2.004
12088SOL     OW38102  13.880   7.523   3.277
12088SOL    HW138103  13.791   7.490   3.281
12088SOL    HW238104  13.875   7.601   3.221
12089SOL     OW38105   1.216  10.554  12.737
12089SOL    HW138106   1.271  10.591  12.806
12089SOL    HW238107   1.221  10.460  12.749
12090SOL     OW38108  11.509   5.936   3.150
12090SOL    HW138109  11.458   6.008   3.113
12090SOL    HW238110  11.523   5.876   3.077
12091SOL     OW38111   6.610  14.473   6.724
12091SOL    HW138112   6.659  14.425   6.657
12091SOL    HW238113   6.590  14.406   6.790
12092SOL     OW38114   9.563   4.284   9.081
12092SOL    HW138115   9.587   4.365   9.125
12092SOL    HW238116   9.484   4.254   9.127
12093SOL     OW38117  10.074   2.539   2.003
12093SOL    HW138118  10.101   2.548   1.912
12093SOL    HW238119  10.155   2.523   2.051
12094SOL     OW38120   8.767   8.752   6.114
12094SOL    HW138121   8.721   8.780   6.036
12094SOL    HW238122   8.722   8.797   6.186
12095SOL     OW38123   0.231   6.952   1.680
12095SOL    HW138124   0.308   6.920   1.633
12095SOL    HW238125   0.159   6.941   1.618
12096SOL     OW38126   1.419   8.752   6.074
12096SOL    HW138127   1.387   8.733   6.162
12096SOL    HW238128   1.357   8.817   6.041
12097SOL     OW38129  13.962   0.708   7.601
12097SOL    HW138130  13.888   0.746   7.649
12097SOL    HW238131  13.933   0.621   7.576
12098SOL     OW38132  11.826   3.590  13.229
12098SOL    HW138133  11.835   3.661  13.292
12098SOL    HW238134  11.732   3.580  13.217
12099SOL     OW38135   2.029   8.545   1.046
12099SOL    HW138136   2.101   8.495   1.085
12099SOL    HW238137   2.049   8.636   1.068
12100SOL     OW38138  10.890  10.000  12.897
12100SOL    HW138139  10.924  10.081  12.860
12100SOL    HW238140  10.945   9.931  12.860
12101SOL     OW38141  13.606   9.782  13.979
12101SOL    HW138142  13.593   9.690  13.958
12101SOL    HW238143  13.589   9.789  14.073
12102SOL     OW38144   3.015   7.189   4.423
12102SOL    HW138145   2.948   7.156   4.363
12102SOL    HW238146   3.095   7.143   4.397
12103SOL     OW38147   2.787   3.455   1.925
12103SOL    HW138148   2.702   3.463   1.969
12103SOL    HW238149   2.827   3.378   1.965
12104SOL     OW38150  12.813   1.071   1.207
12104SOL    HW138151  12.850   1.158   1.194
12104SOL    HW238152  12.737   1.086   1.263
12105SOL     OW38153   3.092   4.248  12.286
12105SOL    HW138154   3.010   4.275  12.327
12105SOL    HW238155   3.138   4.198  12.355
12106SOL     OW38156  13.721  10.757  14.279
12106SOL    HW138157  13.643  10.705  14.265
12106SOL    HW238158  13.763  10.718  14.356
12107SOL     OW38159   4.319  10.452  13.026
12107SOL    HW138160   4.359  10.511  13.090
12107SOL    HW238161   4.284  10.379  13.078
12108SOL     OW38162  12.892   0.821   3.939
12108SOL    HW138163  12.845   0.739   3.944
12108SOL    HW238164  12.977   0.803   3.979
12109SOL     OW38165   4.653   0.319   6.183
12109SOL    HW138166   4.568   0.357   6.162
12109SOL    HW238167   4.674   0.265   6.107
12110SOL     OW38168   8.696   4.452  13.547
12110SOL    HW138169   8.652   4.475  13.465
12110SOL    HW238170   8.789   4.452  13.525
12111SOL     OW38171   4.081   7.121   7.949
12111SOL    HW138172   4.163   7.106   7.995
12111SOL    HW238173   4.107   7.139   7.859
12112SOL     OW38174   2.124   6.830   6.451
12112SOL    HW138175   2.178   6.801   6.525
12112SOL    HW238176   2.173   6.802   6.374
12113SOL     OW38177   1.851   7.075   5.509
12113SOL    HW138178   1.794   7.039   5.577
12113SOL    HW238179   1.796   7.078   5.431
12114SOL     OW38180   7.328  11.111   0.993
12114SOL    HW138181   7.401  11.153   1.037
12114SOL    HW238182   7.319  11.158   0.911
12115SOL     OW38183   8.888  11.582   4.507
12115SOL    HW138184   8.818  11.648   4.508
12115SOL    HW238185   8.903  11.564   4.414
12116SOL     OW38186   2.861   8.611  11.042
12116SOL    HW138187   2.956   8.622  11.047
12116SOL    HW238188   2.843   8.601  10.949
12117SOL     OW38189   1.886  13.917  14.325
12117SOL    HW138190   1.839  13.867  14.259
12117SOL    HW238191   1.868  13.870  14.407
12118SOL     OW38192   9.554   2.805  13.493
12118SOL    HW138193   9.560   2.816  13.588
12118SOL    HW238194   9.460   2.793  13.476
12119SOL     OW38195   3.399   1.479  10.986
12119SOL    HW138196   3.446   1.401  11.017
12119SOL    HW238197   3.445   1.504  10.906
12120SOL     OW38198  11.194   9.266  13.537
12120SOL    HW138199  11.192   9.171  13.546
12120SOL    HW238200  11.269   9.294  13.590
12121SOL     OW38201   3.638   7.259  14.345
12121SOL    HW138202   3.607   7.207  14.419
12121SOL    HW238203   3.562   7.266  14.287
12122SOL     OW38204   0.697   9.557   1.679
12122SOL    HW138205   0.627   9.604   1.634
12122SOL    HW238206   0.731   9.496   1.612
12123SOL     OW38207   7.000   8.541  10.419
12123SOL    HW138208   6.956   8.493  10.489
12123SOL    HW238209   6.999   8.632  10.448
12124SOL     OW38210   8.355   6.737  13.454
12124SOL    HW138211   8.366   6.729  13.548
12124SOL    HW238212   8.366   6.830  13.436
12125SOL     OW38213  13.890   0.413   8.292
12125SOL    HW138214  13.935   0.484   8.245
12125SOL    HW238215  13.878   0.447   8.381
12126SOL     OW38216   8.514   8.415   8.667
12126SOL    HW138217   8.600   8.454   8.658
12126SOL    HW238218   8.531   8.320   8.670
12127SOL     OW38219   6.109   0.019   8.594
12127SOL    HW138220   6.040   0.073   8.631
12127SOL    HW238221   6.121  14.827   8.658
12128SOL     OW38222  11.632  10.753   4.261
12128SOL    HW138223  11.697  10.738   4.330
12128SOL    HW238224  11.602  10.843   4.276
12129SOL     OW38225   8.088   9.444   8.560
12129SOL    HW138226   8.120   9.403   8.641
12129SOL    HW238227   8.028   9.379   8.523
12130SOL     OW38228   0.750  13.614   6.550
12130SOL    HW138229   0.674  13.630   6.607
12130SOL    HW238230   0.759  13.695   6.500
12131SOL     OW38231   0.620   4.288  10.596
12131SOL    HW138232   0.567   4.211  10.613
12131SOL    HW238233   0.697   4.255  10.549
12132SOL     OW38234   9.127  11.050  10.452
12132SOL    HW138235   9.078  11.121  10.410
12132SOL    HW238236   9.131  10.981  10.386
12133SOL     OW38237  10.899   8.868   9.311
12133SOL    HW138238  10.853   8.844   9.392
12133SOL    HW238239  10.831   8.867   9.244
12134SOL     OW38240  14.553   9.353   0.859
12134SOL    HW138241  14.645   9.376   0.868
12134SOL    HW238242  14.541   9.334   0.766
12135SOL     OW38243   5.485  13.519  12.089
12135SOL    HW138244   5.491  13.579  12.015
12135SOL    HW238245   5.533  13.563  12.159
12136SOL     OW38246  10.306   2.802   8.426
12136SOL    HW138247  10.337   2.868   8.364
12136SOL    HW238248  10.319   2.842   8.512
12137SOL     OW38249   3.316   3.638  10.156
12137SOL    HW138250   3.339   3.653  10.247
12137SOL    HW238251   3.397   3.607  10.115
12138SOL     OW38252   1.978   0.215   4.740
12138SOL    HW138253   2.049   0.248   4.796
12138SOL    HW238254   1.932   0.152   4.795
12139SOL     OW38255  12.507  10.958   5.142
12139SOL    HW138256  12.495  11.007   5.061
12139SOL    HW238257  12.583  10.999   5.184
12140SOL     OW38258  14.705   7.570   8.507
12140SOL    HW138259  14.625   7.548   8.460
12140SOL    HW238260  14.676   7.600   8.593
12141SOL     OW38261   7.069   4.249   1.413
12141SOL    HW138262   7.074   4.334   1.370
12141SOL    HW238263   7.134   4.253   1.483
12142SOL     OW38264   9.875   1.791   0.333
12142SOL    HW138265   9.829   1.714   0.366
12142SOL    HW238266   9.886   1.774   0.239
12143SOL     OW38267   5.598   7.247   3.192
12143SOL    HW138268   5.510   7.284   3.201
12143SOL    HW238269   5.593   7.163   3.237
12144SOL     OW38270  11.874   6.026   6.747
12144SOL    HW138271  11.902   6.085   6.677
12144SOL    HW238272  11.891   5.939   6.712
12145SOL     OW38273   5.599  10.579   4.339
12145SOL    HW138274   5.546  10.505   4.309
12145SOL    HW238275   5.689  10.552   4.322
12146SOL     OW38276  13.510  13.231   9.095
12146SOL    HW138277  13.424  13.191   9.079
12146SOL    HW238278  13.496  13.325   9.083
12147SOL     OW38279  12.094   4.145  13.189
12147SOL    HW138280  12.188   4.127  13.189
12147SOL    HW238281  12.072   4.158  13.281
12148SOL     OW38282   8.378   2.652  10.521
12148SOL    HW138283   8.408   2.741  10.538
12148SOL    HW238284   8.338   2.656  10.434
12149SOL     OW38285   1.387   5.022   5.332
12149SOL    HW138286   1.458   5.047   5.392
12149SOL    HW238287   1.391   4.927   5.328
12150SOL     OW38288  10.268   8.030   9.976
12150SOL    HW138289  10.361   8.009   9.978
12150SOL    HW238290  10.246   8.035   9.883
12151SOL     OW38291   3.176   1.112   2.375
12151SOL    HW138292   3.269   1.135   2.382
12151SOL    HW238293   3.175   1.033   2.321
12152SOL     OW38294  11.295   6.252   4.060
12152SOL    HW138295  11.298   6.194   3.983
12152SOL    HW238296  11.220   6.222   4.110
12153SOL     OW38297   1.230   7.284   7.125
12153SOL    HW138298   1.176   7.245   7.194
12153SOL    HW238299   1.171   7.296   7.051
12154SOL     OW38300   4.018  10.997   6.019
12154SOL    HW138301   3.966  10.918   6.033
12154SOL    HW238302   4.106  10.964   5.997
12155SOL     OW38303   1.734   5.614   3.255
12155SOL    HW138304   1.764   5.688   3.202
12155SOL    HW238305   1.652   5.587   3.215
12156SOL     OW38306   5.291   7.453   3.231
12156SOL    HW138307   5.329   7.466   3.144
12156SOL    HW238308   5.268   7.360   3.233
12157SOL     OW38309  11.950   8.935   7.369
12157SOL    HW138310  11.947   9.011   7.311
12157SOL    HW238311  11.936   8.861   7.310
12158SOL     OW38312  12.894   7.259   9.136
12158SOL    HW138313  12.894   7.172   9.177
12158SOL    HW238314  12.865   7.243   9.046
12159SOL     OW38315  11.379   7.800  12.585
12159SOL    HW138316  11.435   7.825  12.511
12159SOL    HW238317  11.440   7.774  12.654
12160SOL     OW38318   3.278   4.384   2.087
12160SOL    HW138319   3.216   4.316   2.113
12160SOL    HW238320   3.245   4.464   2.128
12161SOL     OW38321   8.788   3.423  14.604
12161SOL    HW138322   8.804   3.485  14.532
12161SOL    HW238323   8.738   3.352  14.563
12162SOL     OW38324  10.221   8.774   7.466
12162SOL    HW138325  10.166   8.729   7.529
12162SOL    HW238326  10.196   8.738   7.381
12163SOL     OW38327  12.083   9.843   8.814
12163SOL    HW138328  12.016   9.896   8.771
12163SOL    HW238329  12.036   9.767   8.848
12164SOL     OW38330  10.951   1.652  14.483
12164SOL    HW138331  10.913   1.658  14.570
12164SOL    HW238332  10.888   1.694  14.425
12165SOL     OW38333   2.475   2.072   3.364
12165SOL    HW138334   2.511   2.122   3.437
12165SOL    HW238335   2.497   2.125   3.287
12166SOL     OW38336   6.778  12.604   7.316
12166SOL    HW138337   6.806  12.514   7.329
12166SOL    HW238338   6.692  12.596   7.274
12167SOL     OW38339   1.290  13.413   7.556
12167SOL    HW138340   1.279  13.401   7.462
12167SOL    HW238341   1.224  13.357   7.596
12168SOL     OW38342   5.834   0.855   6.932
12168SOL    HW138343   5.808   0.944   6.956
12168SOL    HW238344   5.889   0.866   6.855
12169SOL     OW38345   7.068   4.528   8.530
12169SOL    HW138346   7.080   4.592   8.460
12169SOL    HW238347   7.154   4.490   8.544
12170SOL     OW38348   5.630   5.400   4.384
12170SOL    HW138349   5.709   5.453   4.369
12170SOL    HW238350   5.640   5.325   4.325
12171SOL     OW38351   0.430  14.597  11.341
12171SOL    HW138352   0.464  14.525  11.394
12171SOL    HW238353   0.418  14.558  11.254
12172SOL     OW38354  13.085  12.253   0.503
12172SOL    HW138355  13.070  12.290   0.590
12172SOL    HW238356  13.040  12.169   0.504
12173SOL     OW38357   2.924   5.283  12.592
12173SOL    HW138358   2.994   5.331  12.637
12173SOL    HW238359   2.909   5.332  12.511
12174SOL     OW38360   2.963   5.511  11.133
12174SOL    HW138361   3.040   5.481  11.181
12174SOL    HW238362   2.966   5.462  11.050
12175SOL     OW38363   3.465  14.274   9.878
12175SOL    HW138364   3.434  14.184   9.885
12175SOL    HW238365   3.537  14.270   9.814
12176SOL     OW38366   0.772  11.207  12.381
12176SOL    HW138367   0.770  11.232  12.473
12176SOL    HW238368   0.844  11.258  12.344
12177SOL     OW38369   2.343   8.174   8.292
12177SOL    HW138370   2.392   8.197   8.370
12177SOL    HW238371   2.292   8.253   8.271
12178SOL     OW38372   8.259   0.681  14.115
12178SOL    HW138373   8.192   0.696  14.048
12178SOL    HW238374   8.337   0.657  14.064
12179SOL     OW38375   1.573   2.854   8.955
12179SOL    HW138376   1.581   2.922   9.022
12179SOL    HW238377   1.580   2.772   9.003
12180SOL     OW38378  12.146   9.204   2.766
12180SOL    HW138379  12.156   9.185   2.672
12180SOL    HW238380  12.125   9.298   2.769
12181SOL     OW38381   6.400   0.946  11.009
12181SOL    HW138382   6.342   1.022  11.013
12181SOL    HW238383   6.359   0.889  10.943
12182SOL     OW38384   4.881  13.759   6.310
12182SOL    HW138385   4.838  13.675   6.294
12182SOL    HW238386   4.860  13.781   6.400
12183SOL     OW38387   2.497   1.453   3.746
12183SOL    HW138388   2.576   1.406   3.718
12183SOL    HW238389   2.428   1.387   3.746
12184SOL     OW38390   4.070   9.010  11.615
12184SOL    HW138391   4.105   9.099  11.610
12184SOL    HW238392   4.081   8.985  11.706
12185SOL     OW38393   7.541   2.958  12.312
12185SOL    HW138394   7.594   2.879  12.317
12185SOL    HW238395   7.502   2.956  12.225
12186SOL     OW38396   0.710  10.260  11.523
12186SOL    HW138397   0.692  10.183  11.470
12186SOL    HW238398   0.692  10.334  11.465
12187SOL     OW38399   3.359   5.601   2.042
12187SOL    HW138400   3.453   5.618   2.049
12187SOL    HW238401   3.331   5.586   2.132
12188SOL     OW38402  14.836   3.357  14.579
12188SOL    HW138403  14.819   3.431  14.637
12188SOL    HW238404  14.751   3.333  14.544
12189SOL     OW38405   7.313   3.735  13.432
12189SOL    HW138406   7.287   3.807  13.489
12189SOL    HW238407   7.264   3.660  13.464
12190SOL     OW38408   2.816   3.490   8.901
12190SOL    HW138409   2.862   3.414   8.939
12190SOL    HW238410   2.886   3.552   8.883
12191SOL     OW38411   1.961  10.143   6.465
12191SOL    HW138412   1.902  10.216   6.484
12191SOL    HW238413   1.983  10.153   6.372
12192SOL     OW38414   7.222   3.638  13.759
12192SOL    HW138415   7.195   3.576  13.826
12192SOL    HW238416   7.206   3.593  13.676
12193SOL     OW38417   3.154   8.030   0.816
12193SOL    HW138418   3.197   8.091   0.875
12193SOL    HW238419   3.061   8.036   0.838
12194SOL     OW38420   5.467  12.348   1.504
12194SOL    HW138421   5.455  12.255   1.482
12194SOL    HW238422   5.505  12.386   1.425
12195SOL     OW38423   0.366  13.140  11.893
12195SOL    HW138424   0.298  13.185  11.843
12195SOL    HW238425   0.417  13.093  11.827
12196SOL     OW38426   0.163  12.341   5.880
12196SOL    HW138427   0.144  12.248   5.870
12196SOL    HW238428   0.078  12.384   5.873
12197SOL     OW38429   4.374   0.458   4.637
12197SOL    HW138430   4.341   0.369   4.651
12197SOL    HW238431   4.448   0.446   4.578
12198SOL     OW38432  12.036   6.440  10.808
12198SOL    HW138433  12.097   6.380  10.850
12198SOL    HW238434  12.089   6.514  10.780
12199SOL     OW38435   3.087   6.668   3.772
12199SOL    HW138436   3.064   6.624   3.854
12199SOL    HW238437   3.171   6.630   3.748
12200SOL     OW38438  13.394   7.951  11.881
12200SOL    HW138439  13.382   7.898  11.960
12200SOL    HW238440  13.373   8.041  11.909
12201SOL     OW38441   6.372   9.504   9.835
12201SOL    HW138442   6.418   9.581   9.802
12201SOL    HW238443   6.435   9.433   9.826
12202SOL     OW38444  11.941   9.613   4.111
12202SOL    HW138445  11.960   9.611   4.017
12202SOL    HW238446  11.846   9.618   4.117
12203SOL     OW38447  13.512   4.178  14.114
12203SOL    HW138448  13.480   4.122  14.043
12203SOL    HW238449  13.575   4.125  14.161
12204SOL     OW38450  13.376   8.764  13.094
12204SOL    HW138451  13.410   8.818  13.166
12204SOL    HW238452  13.365   8.677  13.132
12205SOL     OW38453   9.465   9.241  11.109
12205SOL    HW138454   9.405   9.309  11.077
12205SOL    HW238455   9.546   9.288  11.127
12206SOL     OW38456   5.224   4.122   2.330
12206SOL    HW138457   5.309   4.160   2.308
12206SOL    HW238458   5.243   4.030   2.350
12207SOL     OW38459   9.613   3.900   7.299
12207SOL    HW138460   9.658   3.984   7.310
12207SOL    HW238461   9.599   3.869   7.388
12208SOL     OW38462  13.142  14.432   9.316
12208SOL    HW138463  13.049  14.445   9.298
12208SOL    HW238464  13.166  14.355   9.265
12209SOL     OW38465  12.507   5.266   6.050
12209SOL    HW138466  12.565   5.207   6.003
12209SOL    HW238467  12.532   5.257   6.142
12210SOL     OW38468   2.523  13.840   6.602
12210SOL    HW138469   2.431  13.829   6.628
12210SOL    HW238470   2.526  13.807   6.512
12211SOL     OW38471   2.596  10.040   3.890
12211SOL    HW138472   2.682  10.080   3.879
12211SOL    HW238473   2.612   9.946   3.875
12212SOL     OW38474   7.004  11.600   2.429
12212SOL    HW138475   7.015  11.690   2.459
12212SOL    HW238476   6.987  11.549   2.509
12213SOL     OW38477   9.765   9.569   2.000
12213SOL    HW138478   9.829   9.535   2.063
12213SOL    HW238479   9.742   9.494   1.946
12214SOL     OW38480  11.739  11.310   2.249
12214SOL    HW138481  11.768  11.231   2.294
12214SOL    HW238482  11.802  11.322   2.178
12215SOL     OW38483  12.855  13.141  11.157
12215SOL    HW138484  12.816  13.208  11.102
12215SOL    HW238485  12.819  13.058  11.123
12216SOL     OW38486  14.184   0.670   2.016
12216SOL    HW138487  14.180   0.764   2.035
12216SOL    HW238488  14.276   0.647   2.027
12217SOL     OW38489  12.224   1.382   6.148
12217SOL    HW138490  12.230   1.298   6.193
12217SOL    HW238491  12.311   1.394   6.110
12218SOL     OW38492   2.649  10.638   9.204
12218SOL    HW138493   2.724  10.593   9.167
12218SOL    HW238494   2.573  10.599   9.160
12219SOL     OW38495   4.236  14.398   6.483
12219SOL    HW138496   4.212  14.393   6.576
12219SOL    HW238497   4.284  14.316   6.467
12220SOL     OW38498   0.475   6.385   2.995
12220SOL    HW138499   0.453   6.293   2.980
12220SOL    HW238500   0.449   6.401   3.086
12221SOL     OW38501   5.495  10.761  12.478
12221SOL    HW138502   5.489  10.703  12.554
12221SOL    HW238503   5.543  10.837  12.511
12222SOL     OW38504   6.174  10.857   5.987
12222SOL    HW138505   6.086  10.839   5.954
12222SOL    HW238506   6.232  10.805   5.932
12223SOL     OW38507   6.501   0.233  11.673
12223SOL    HW138508   6.534   0.225  11.763
12223SOL    HW238509   6.499   0.327  11.657
12224SOL     OW38510   5.634   7.332  13.150
12224SOL    HW138511   5.650   7.335  13.055
12224SOL    HW238512   5.550   7.377  13.161
12225SOL     OW38513   4.620  13.379   8.476
12225SOL    HW138514   4.548  13.434   8.446
12225SOL    HW238515   4.635  13.317   8.405
12226SOL     OW38516   5.750  11.812   3.553
12226SOL    HW138517   5.689  11.806   3.479
12226SOL    HW238518   5.752  11.723   3.589
12227SOL     OW38519  10.775   9.840   8.769
12227SOL    HW138520  10.844   9.808   8.711
12227SOL    HW238521  10.778   9.935   8.760
12228SOL     OW38522   7.402  14.729  11.389
12228SOL    HW138523   7.372  14.743  11.299
12228SOL    HW238524   7.335  14.770  11.444
12229SOL     OW38525   6.327   9.018   9.609
12229SOL    HW138526   6.313   9.108   9.639
12229SOL    HW238527   6.275   8.964   9.668
12230SOL     OW38528   5.676   0.722   5.323
12230SOL    HW138529   5.645   0.633   5.337
12230SOL    HW238530   5.601   0.777   5.348
12231SOL     OW38531   6.893   3.033   8.492
12231SOL    HW138532   6.846   2.960   8.452
12231SOL    HW238533   6.972   2.994   8.529
12232SOL     OW38534   6.977   8.493   3.035
12232SOL    HW138535   6.905   8.438   3.004
12232SOL    HW238536   7.015   8.444   3.107
12233SOL     OW38537   1.503   5.056   2.115
12233SOL    HW138538   1.501   5.121   2.185
12233SOL    HW238539   1.514   4.973   2.159
12234SOL     OW38540  11.161  10.596   7.704
12234SOL    HW138541  11.196  10.548   7.779
12234SOL    HW238542  11.189  10.546   7.628
12235SOL     OW38543  10.034  12.236  10.986
12235SOL    HW138544   9.975  12.161  11.001
12235SOL    HW238545  10.039  12.243  10.890
12236SOL     OW38546   1.850   2.913   0.613
12236SOL    HW138547   1.907   2.988   0.627
12236SOL    HW238548   1.872   2.882   0.525
12237SOL     OW38549   5.701   8.023   4.676
12237SOL    HW138550   5.647   7.989   4.604
12237SOL    HW238551   5.724   8.111   4.648
12238SOL     OW38552   5.372   5.165   0.165
12238SOL    HW138553   5.286   5.165   0.208
12238SOL    HW238554   5.373   5.083   0.115
12239SOL     OW38555  12.358   9.259  12.938
12239SOL    HW138556  12.277   9.269  12.989
12239SOL    HW238557  12.427   9.253  13.004
12240SOL     OW38558   5.876   9.349  14.466
12240SOL    HW138559   5.936   9.290  14.420
12240SOL    HW238560   5.849   9.413  14.400
12241SOL     OW38561  12.856  10.416  14.059
12241SOL    HW138562  12.872  10.327  14.028
12241SOL    HW238563  12.859  10.470  13.981
12242SOL     OW38564   7.769  12.129   9.861
12242SOL    HW138565   7.740  12.135   9.770
12242SOL    HW238566   7.754  12.216   9.897
12243SOL     OW38567   5.816   6.755   7.836
12243SOL    HW138568   5.809   6.677   7.891
12243SOL    HW238569   5.888   6.805   7.874
12244SOL     OW38570   7.093  10.753   9.675
12244SOL    HW138571   7.063  10.665   9.699
12244SOL    HW238572   7.187  10.751   9.691
12245SOL     OW38573  12.624   3.918   1.260
12245SOL    HW138574  12.579   3.836   1.281
12245SOL    HW238575  12.558   3.970   1.213
12246SOL     OW38576  11.773   8.444  14.762
12246SOL    HW138577  11.731   8.458  14.847
12246SOL    HW238578  11.831   8.369  14.776
12247SOL     OW38579  13.610  14.163   5.343
12247SOL    HW138580  13.543  14.104   5.307
12247SOL    HW238581  13.681  14.106   5.371
12248SOL     OW38582   5.359  14.819  12.546
12248SOL    HW138583   5.268  14.847  12.548
12248SOL    HW238584   5.367  14.761  12.622
12249SOL     OW38585  13.686  12.407  13.586
12249SOL    HW138586  13.719  12.426  13.674
12249SOL    HW238587  13.753  12.442  13.527
12250SOL     OW38588  12.179   1.269  10.725
12250SOL    HW138589  12.120   1.284  10.798
12250SOL    HW238590  12.122   1.257  10.649
12251SOL     OW38591  10.946   1.400   4.704
12251SOL    HW138592  11.021   1.358   4.660
12251SOL    HW238593  10.895   1.438   4.632
12252SOL     OW38594   6.154   9.454   2.847
12252SOL    HW138595   6.071   9.501   2.835
12252SOL    HW238596   6.135   9.365   2.817
12253SOL     OW38597   3.841   5.694   8.279
12253SOL    HW138598   3.909   5.755   8.307
12253SOL    HW238599   3.762   5.747   8.274
12254SOL     OW38600   2.024   5.644  12.169
12254SOL    HW138601   2.024   5.580  12.239
12254SOL    HW238602   1.935   5.680  12.169
12255SOL     OW38603  10.173   0.685   2.600
12255SOL    HW138604  10.080   0.686   2.623
12255SOL    HW238605  10.202   0.775   2.612
12256SOL     OW38606   0.428   4.453  14.352
12256SOL    HW138607   0.431   4.362  14.381
12256SOL    HW238608   0.391   4.449  14.264
12257SOL     OW38609   7.701   0.252   0.928
12257SOL    HW138610   7.771   0.315   0.908
12257SOL    HW238611   7.636   0.303   0.976
12258SOL     OW38612  14.791   5.562   1.881
12258SOL    HW138613  14.828   5.564   1.969
12258SOL    HW238614  14.835   5.632   1.834
12259SOL     OW38615   8.168   1.659   1.309
12259SOL    HW138616   8.227   1.676   1.236
12259SOL    HW238617   8.080   1.669   1.272
12260SOL     OW38618   6.762  14.639   2.116
12260SOL    HW138619   6.784  14.728   2.087
12260SOL    HW238620   6.767  14.643   2.212
12261SOL     OW38621  13.104  12.245   6.997
12261SOL    HW138622  13.111  12.229   7.091
12261SOL    HW238623  13.048  12.323   6.990
12262SOL     OW38624  10.572  11.086   2.545
12262SOL    HW138625  10.520  11.136   2.482
12262SOL    HW238626  10.611  11.153   2.602
12263SOL     OW38627  11.245   1.053   9.553
12263SOL    HW138628  11.323   1.063   9.607
12263SOL    HW238629  11.241   1.132   9.500
12264SOL     OW38630   0.765  14.375   0.021
12264SOL    HW138631   0.796  14.458   0.057
12264SOL    HW238632   0.721  14.399  14.819
12265SOL     OW38633  14.432   6.057  10.880
12265SOL    HW138634  14.475   6.087  10.961
12265SOL    HW238635  14.472   6.110  10.811
12266SOL     OW38636   2.830  11.511   5.572
12266SOL    HW138637   2.776  11.477   5.644
12266SOL    HW238638   2.905  11.452   5.569
12267SOL     OW38639  13.359   1.293  10.254
12267SOL    HW138640  13.445   1.305  10.214
12267SOL    HW238641  13.336   1.202  10.234
12268SOL     OW38642   7.914   5.842  13.784
12268SOL    HW138643   7.976   5.843  13.857
12268SOL    HW238644   7.877   5.931  13.783
12269SOL     OW38645   0.733  12.022  13.300
12269SOL    HW138646   0.817  11.978  13.284
12269SOL    HW238647   0.734  12.040  13.395
12270SOL     OW38648  10.088   0.354   3.492
12270SOL    HW138649  10.097   0.263   3.465
12270SOL    HW238650  10.066   0.349   3.585
12271SOL     OW38651   8.413  11.941   8.833
12271SOL    HW138652   8.476  11.901   8.772
12271SOL    HW238653   8.455  12.022   8.860
12272SOL     OW38654   9.049   5.443   3.496
12272SOL    HW138655   9.099   5.458   3.416
12272SOL    HW238656   8.959   5.465   3.473
12273SOL     OW38657  12.298  11.273   4.648
12273SOL    HW138658  12.239  11.210   4.689
12273SOL    HW238659  12.338  11.224   4.576
12274SOL     OW38660   5.837   3.005   8.491
12274SOL    HW138661   5.796   3.072   8.436
12274SOL    HW238662   5.796   3.016   8.576
12275SOL     OW38663  13.776   5.833  12.461
12275SOL    HW138664  13.722   5.756  12.476
12275SOL    HW238665  13.799   5.829  12.368
12276SOL     OW38666   0.863   8.417  12.798
12276SOL    HW138667   0.877   8.497  12.747
12276SOL    HW238668   0.931   8.357  12.766
12277SOL     OW38669  10.300   2.409   2.810
12277SOL    HW138670  10.239   2.440   2.878
12277SOL    HW238671  10.324   2.321   2.837
12278SOL     OW38672   9.585  14.003   2.043
12278SOL    HW138673   9.548  14.061   1.977
12278SOL    HW238674   9.605  13.922   1.996
12279SOL     OW38675   3.458   6.881  11.463
12279SOL    HW138676   3.401   6.956  11.481
12279SOL    HW238677   3.467   6.837  11.547
12280SOL     OW38678  11.180   6.742  11.140
12280SOL    HW138679  11.237   6.736  11.216
12280SOL    HW238680  11.232   6.790  11.075
12281SOL     OW38681   8.639   1.442   1.698
12281SOL    HW138682   8.618   1.506   1.631
12281SOL    HW238683   8.734   1.448   1.709
12282SOL     OW38684   9.058  13.371   1.403
12282SOL    HW138685   9.083  13.318   1.479
12282SOL    HW238686   9.047  13.307   1.332
12283SOL     OW38687  12.884  11.539   3.915
12283SOL    HW138688  12.903  11.468   3.977
12283SOL    HW238689  12.789  11.550   3.919
12284SOL     OW38690   0.943   4.387   2.692
12284SOL    HW138691   0.958   4.367   2.784
12284SOL    HW238692   0.955   4.303   2.647
12285SOL     OW38693   9.526  12.154   9.621
12285SOL    HW138694   9.576  12.191   9.548
12285SOL    HW238695   9.473  12.226   9.653
12286SOL     OW38696   9.610   6.787   0.182
12286SOL    HW138697   9.523   6.762   0.213
12286SOL    HW238698   9.659   6.705   0.180
12287SOL     OW38699   7.448   3.003   6.704
12287SOL    HW138700   7.368   2.950   6.706
12287SOL    HW238701   7.500   2.972   6.778
12288SOL     OW38702   1.539   4.882  13.279
12288SOL    HW138703   1.613   4.929  13.242
12288SOL    HW238704   1.463   4.938  13.263
12289SOL     OW38705   7.697   4.624   5.989
12289SOL    HW138706   7.632   4.631   6.059
12289SOL    HW238707   7.645   4.603   5.911
12290SOL     OW38708  11.734  13.020  14.087
12290SOL    HW138709  11.733  13.115  14.102
12290SOL    HW238710  11.802  12.987  14.145
12291SOL     OW38711  11.306  14.291   8.655
12291SOL    HW138712  11.325  14.327   8.568
12291SOL    HW238713  11.285  14.199   8.638
12292SOL     OW38714   2.208  14.266   9.995
12292SOL    HW138715   2.290  14.230  10.030
12292SOL    HW238716   2.155  14.189   9.975
12293SOL     OW38717   6.983   6.835   2.371
12293SOL    HW138718   6.935   6.897   2.425
12293SOL    HW238719   7.058   6.808   2.425
12294SOL     OW38720   2.200   6.398   0.625
12294SOL    HW138721   2.254   6.468   0.663
12294SOL    HW238722   2.258   6.322   0.623
12295SOL     OW38723   3.744  13.277   4.316
12295SOL    HW138724   3.731  13.183   4.311
12295SOL    HW238725   3.669  13.310   4.365
12296SOL     OW38726   2.404   4.716   0.886
12296SOL    HW138727   2.345   4.720   0.810
12296SOL    HW238728   2.472   4.780   0.868
12297SOL     OW38729  11.335  12.861  14.066
12297SOL    HW138730  11.416  12.822  14.034
12297SOL    HW238731  11.346  12.955  14.052
12298SOL     OW38732   7.994   7.682   2.120
12298SOL    HW138733   8.074   7.655   2.077
12298SOL    HW238734   7.941   7.602   2.124
12299SOL     OW38735   4.684   4.521   4.439
12299SOL    HW138736   4.779   4.526   4.428
12299SOL    HW238737   4.672   4.454   4.506
12300SOL     OW38738   5.215   6.861   5.985
12300SOL    HW138739   5.130   6.889   5.952
12300SOL    HW238740   5.275   6.874   5.911
12301SOL     OW38741   0.212   0.888   8.049
12301SOL    HW138742   0.135   0.912   8.100
12301SOL    HW238743   0.204   0.794   8.036
12302SOL     OW38744  13.017   2.681   6.991
12302SOL    HW138745  13.006   2.760   7.044
12302SOL    HW238746  12.949   2.688   6.924
12303SOL     OW38747  14.151   4.622   4.077
12303SOL    HW138748  14.116   4.711   4.071
12303SOL    HW238749  14.087   4.568   4.030
12304SOL     OW38750   2.985   3.798   9.395
12304SOL    HW138751   2.898   3.803   9.435
12304SOL    HW238752   3.042   3.768   9.465
12305SOL     OW38753   7.738   6.743   6.500
12305SOL    HW138754   7.701   6.828   6.524
12305SOL    HW238755   7.671   6.704   6.444
12306SOL     OW38756   8.317   0.492  11.522
12306SOL    HW138757   8.400   0.478  11.567
12306SOL    HW238758   8.267   0.549  11.581
12307SOL     OW38759   3.537   9.828  11.534
12307SOL    HW138760   3.513   9.739  11.560
12307SOL    HW238761   3.567   9.819  11.443
12308SOL     OW38762   6.434   8.392   9.237
12308SOL    HW138763   6.374   8.374   9.165
12308SOL    HW238764   6.507   8.440   9.196
12309SOL     OW38765   7.833  12.464   6.909
12309SOL    HW138766   7.842  12.466   6.814
12309SOL    HW238767   7.861  12.550   6.938
12310SOL     OW38768   9.195   6.298  12.235
12310SOL    HW138769   9.247   6.219  12.220
12310SOL    HW238770   9.235   6.338  12.313
12311SOL     OW38771   6.757   8.054  13.723
12311SOL    HW138772   6.790   8.144  13.721
12311SOL    HW238773   6.714   8.042  13.639
12312SOL     OW38774   2.743   7.023  13.541
12312SOL    HW138775   2.698   7.101  13.508
12312SOL    HW238776   2.679   6.953  13.530
12313SOL     OW38777  14.702   3.520  10.890
12313SOL    HW138778  14.737   3.592  10.943
12313SOL    HW238779  14.767   3.450  10.898
12314SOL     OW38780   9.036  11.367  13.707
12314SOL    HW138781   9.022  11.452  13.749
12314SOL    HW238782   9.128  11.368  13.680
12315SOL     OW38783   9.666   4.552   1.387
12315SOL    HW138784   9.638   4.643   1.384
12315SOL    HW238785   9.759   4.557   1.411
12316SOL     OW38786   8.974   6.010  11.252
12316SOL    HW138787   9.048   5.965  11.294
12316SOL    HW238788   8.964   6.091  11.303
12317SOL     OW38789  13.129   9.922  10.339
12317SOL    HW138790  13.083   9.962  10.266
12317SOL    HW238791  13.201   9.873  10.298
12318SOL     OW38792   9.108   9.470   6.900
12318SOL    HW138793   9.089   9.485   6.807
12318SOL    HW238794   9.193   9.511   6.914
12319SOL     OW38795   0.308  10.497   7.659
12319SOL    HW138796   0.395  10.531   7.637
12319SOL    HW238797   0.301  10.507   7.753
12320SOL     OW38798   9.427  14.694   9.586
12320SOL    HW138799   9.433  14.599   9.572
12320SOL    HW238800   9.337  14.707   9.615
12321SOL     OW38801   6.844   8.645   8.616
12321SOL    HW138802   6.819   8.554   8.633
12321SOL    HW238803   6.921   8.637   8.560
12322SOL     OW38804   0.328   8.907  13.891
12322SOL    HW138805   0.320   8.859  13.809
12322SOL    HW238806   0.423   8.912  13.905
12323SOL     OW38807   4.107   4.400  12.097
12323SOL    HW138808   4.096   4.494  12.085
12323SOL    HW238809   4.125   4.389  12.190
12324SOL     OW38810   1.333  13.957   1.864
12324SOL    HW138811   1.333  14.050   1.842
12324SOL    HW238812   1.317  13.913   1.781
12325SOL     OW38813   9.163   6.977  14.286
12325SOL    HW138814   9.121   6.909  14.233
12325SOL    HW238815   9.132   7.059  14.248
12326SOL     OW38816  13.028   4.690  12.294
12326SOL    HW138817  12.984   4.705  12.378
12326SOL    HW238818  13.120   4.709  12.311
12327SOL     OW38819   6.044   5.928   5.095
12327SOL    HW138820   6.020   6.021   5.096
12327SOL    HW238821   6.095   5.916   5.176
12328SOL     OW38822   9.718   0.170   5.617
12328SOL    HW138823   9.744   0.115   5.692
12328SOL    HW238824   9.688   0.107   5.551
12329SOL     OW38825   9.404  13.366  14.739
12329SOL    HW138826   9.387  13.284  14.693
12329SOL    HW238827   9.361  13.356  14.823
12330SOL     OW38828   0.296   3.472  13.405
12330SOL    HW138829   0.319   3.425  13.325
12330SOL    HW238830   0.223   3.422  13.442
12331SOL     OW38831  11.590  11.413  12.076
12331SOL    HW138832  11.666  11.355  12.075
12331SOL    HW238833  11.581  11.439  12.168
12332SOL     OW38834   2.079  13.988  13.501
12332SOL    HW138835   2.152  14.002  13.441
12332SOL    HW238836   2.043  13.903  13.476
12333SOL     OW38837  14.672  14.354   8.796
12333SOL    HW138838  14.626  14.425   8.842
12333SOL    HW238839  14.753  14.394   8.766
12334SOL     OW38840  14.461  11.853   3.122
12334SOL    HW138841  14.495  11.900   3.198
12334SOL    HW238842  14.467  11.916   3.050
12335SOL     OW38843   7.117  14.855   2.719
12335SOL    HW138844   7.213  14.857   2.725
12335SOL    HW238845   7.096   0.041   2.652
12336SOL     OW38846   2.414  11.494   0.019
12336SOL    HW138847   2.405  11.517  14.805
12336SOL    HW238848   2.350  11.424   0.032
12337SOL     OW38849   0.837   8.282   6.750
12337SOL    HW138850   0.741   8.288   6.746
12337SOL    HW238851   0.867   8.372   6.734
12338SOL     OW38852   7.887   6.766   4.718
12338SOL    HW138853   7.836   6.845   4.735
12338SOL    HW238854   7.831   6.712   4.663
12339SOL     OW38855   3.571   0.740  10.221
12339SOL    HW138856   3.645   0.679  10.219
12339SOL    HW238857   3.610   0.827  10.213
12340SOL     OW38858  12.137   7.542   5.062
12340SOL    HW138859  12.166   7.469   5.007
12340SOL    HW238860  12.056   7.573   5.020
12341SOL     OW38861   3.775   8.063   1.473
12341SOL    HW138862   3.742   7.993   1.530
12341SOL    HW238863   3.791   8.137   1.532
12342SOL     OW38864   9.032  11.082   7.155
12342SOL    HW138865   9.042  11.004   7.100
12342SOL    HW238866   9.104  11.076   7.218
12343SOL     OW38867   2.008   8.808  12.750
12343SOL    HW138868   2.042   8.730  12.706
12343SOL    HW238869   2.027   8.880  12.689
12344SOL     OW38870  12.689   6.048  13.817
12344SOL    HW138871  12.761   6.110  13.830
12344SOL    HW238872  12.648   6.040  13.903
12345SOL     OW38873   5.128   0.070   1.624
12345SOL    HW138874   5.220   0.058   1.647
12345SOL    HW238875   5.129   0.084   1.529
12346SOL     OW38876   1.079  12.488   2.313
12346SOL    HW138877   1.023  12.563   2.332
12346SOL    HW238878   1.164  12.511   2.350
12347SOL     OW38879  13.441   6.192   8.291
12347SOL    HW138880  13.361   6.156   8.253
12347SOL    HW238881  13.511   6.134   8.258
12348SOL     OW38882   2.824  11.173  11.322
12348SOL    HW138883   2.888  11.114  11.281
12348SOL    HW238884   2.765  11.114  11.368
12349SOL     OW38885   8.476  12.967   1.634
12349SOL    HW138886   8.426  12.892   1.665
12349SOL    HW238887   8.547  12.977   1.697
12350SOL     OW38888   1.235   4.658   7.895
12350SOL    HW138889   1.251   4.728   7.958
12350SOL    HW238890   1.196   4.588   7.946
12351SOL     OW38891   8.843   0.790   6.412
12351SOL    HW138892   8.825   0.874   6.455
12351SOL    HW238893   8.929   0.800   6.372
12352SOL     OW38894   0.972   4.707   4.769
12352SOL    HW138895   0.881   4.733   4.757
12352SOL    HW238896   0.974   4.667   4.856
12353SOL     OW38897   0.881   8.908   2.149
12353SOL    HW138898   0.866   8.907   2.054
12353SOL    HW238899   0.963   8.860   2.161
12354SOL     OW38900  12.253   5.886  11.772
12354SOL    HW138901  12.320   5.943  11.810
12354SOL    HW238902  12.171   5.915  11.813
12355SOL     OW38903  10.454   8.525  13.972
12355SOL    HW138904  10.475   8.519  14.065
12355SOL    HW238905  10.370   8.479  13.963
12356SOL     OW38906   8.420  13.016   2.654
12356SOL    HW138907   8.424  12.960   2.577
12356SOL    HW238908   8.366  13.090   2.626
12357SOL     OW38909   4.830   4.873  10.981
12357SOL    HW138910   4.777   4.944  10.946
12357SOL    HW238911   4.809   4.870  11.074
12358SOL     OW38912   1.122   3.193  11.764
12358SOL    HW138913   1.195   3.200  11.825
12358SOL    HW238914   1.116   3.279  11.723
12359SOL     OW38915   0.491  11.266   5.702
12359SOL    HW138916   0.578  11.228   5.713
12359SOL    HW238917   0.461  11.283   5.791
12360SOL     OW38918  13.252   0.410  12.820
12360SOL    HW138919  13.176   0.400  12.877
12360SOL    HW238920  13.238   0.345  12.751
12361SOL     OW38921  10.214  12.172   1.489
12361SOL    HW138922  10.221  12.223   1.408
12361SOL    HW238923  10.180  12.087   1.462
12362SOL     OW38924  10.398   5.089   4.874
12362SOL    HW138925  10.364   5.148   4.941
12362SOL    HW238926  10.491   5.079   4.895
12363SOL     OW38927  13.841   6.731  10.119
12363SOL    HW138928  13.921   6.693  10.085
12363SOL    HW238929  13.807   6.665  10.180
12364SOL     OW38930  13.282   7.407   0.038
12364SOL    HW138931  13.328   7.367   0.112
12364SOL    HW238932  13.346   7.408  14.846
12365SOL     OW38933   1.233   9.417   2.767
12365SOL    HW138934   1.296   9.372   2.710
12365SOL    HW238935   1.205   9.351   2.829
12366SOL     OW38936   1.602   7.606  10.552
12366SOL    HW138937   1.573   7.522  10.516
12366SOL    HW238938   1.541   7.624  10.623
12367SOL     OW38939   9.172  10.174   0.938
12367SOL    HW138940   9.216  10.142   0.859
12367SOL    HW238941   9.242  10.207   0.993
12368SOL     OW38942  12.476  14.558   2.448
12368SOL    HW138943  12.441  14.532   2.533
12368SOL    HW238944  12.564  14.520   2.446
12369SOL     OW38945   6.501   4.770  13.916
12369SOL    HW138946   6.417   4.729  13.935
12369SOL    HW238947   6.554   4.755  13.995
12370SOL     OW38948   8.381  14.116  14.182
12370SOL    HW138949   8.363  14.066  14.261
12370SOL    HW238950   8.297  14.157  14.161
12371SOL     OW38951   5.030   1.342   8.868
12371SOL    HW138952   4.969   1.299   8.807
12371SOL    HW238953   5.104   1.369   8.813
12372SOL     OW38954   9.777   7.675  10.152
12372SOL    HW138955   9.791   7.688  10.246
12372SOL    HW238956   9.807   7.756  10.112
12373SOL     OW38957   7.909   6.468  11.185
12373SOL    HW138958   7.925   6.534  11.118
12373SOL    HW238959   7.993   6.459  11.230
12374SOL     OW38960  10.636  14.507   8.056
12374SOL    HW138961  10.690  14.480   7.982
12374SOL    HW238962  10.549  14.470   8.037
12375SOL     OW38963   2.033   2.776   6.111
12375SOL    HW138964   2.036   2.686   6.143
12375SOL    HW238965   1.995   2.826   6.183
12376SOL     OW38966   6.008  12.588   4.532
12376SOL    HW138967   5.948  12.524   4.493
12376SOL    HW238968   5.951  12.655   4.570
12377SOL     OW38969  11.717   9.281   6.078
12377SOL    HW138970  11.731   9.331   6.159
12377SOL    HW238971  11.653   9.334   6.029
12378SOL     OW38972   6.810   1.973   3.229
12378SOL    HW138973   6.847   1.891   3.195
12378SOL    HW238974   6.763   2.011   3.154
12379SOL     OW38975  14.468  10.395  11.711
12379SOL    HW138976  14.413  10.341  11.655
12379SOL    HW238977  14.487  10.473  11.658
12380SOL     OW38978   9.328   5.832   7.303
12380SOL    HW138979   9.283   5.784   7.233
12380SOL    HW238980   9.313   5.780   7.382
12381SOL     OW38981  12.036   6.230   5.358
12381SOL    HW138982  11.946   6.230   5.389
12381SOL    HW238983  12.089   6.245   5.436
12382SOL     OW38984   9.696  14.729   4.157
12382SOL    HW138985   9.790  14.748   4.162
12382SOL    HW238986   9.681  14.704   4.066
12383SOL     OW38987   7.608   9.325   9.694
12383SOL    HW138988   7.700   9.300   9.688
12383SOL    HW238989   7.573   9.307   9.607
12384SOL     OW38990  10.616   0.764   2.519
12384SOL    HW138991  10.607   0.769   2.424
12384SOL    HW238992  10.540   0.812   2.552
12385SOL     OW38993   8.269   8.456  14.471
12385SOL    HW138994   8.197   8.400  14.502
12385SOL    HW238995   8.273   8.440  14.377
12386SOL     OW38996   6.126   7.993   4.415
12386SOL    HW138997   6.139   8.070   4.359
12386SOL    HW238998   6.036   7.965   4.398
12387SOL     OW38999   4.095   2.463   3.785
12387SOL    HW139000   4.056   2.376   3.777
12387SOL    HW239001   4.066   2.494   3.871
12388SOL     OW39002  14.830   7.937  13.382
12388SOL    HW139003  14.797   7.998  13.316
12388SOL    HW239004  14.754   7.918  13.437
12389SOL     OW39005   6.377   2.234  10.406
12389SOL    HW139006   6.388   2.200  10.317
12389SOL    HW239007   6.283   2.251  10.413
12390SOL     OW39008  11.183  13.189   6.003
12390SOL    HW139009  11.165  13.197   5.910
12390SOL    HW239010  11.158  13.099   6.025
12391SOL     OW39011   7.784   9.909  13.628
12391SOL    HW139012   7.842   9.878  13.698
12391SOL    HW239013   7.699   9.922  13.671
12392SOL     OW39014  13.943  10.680   3.100
12392SOL    HW139015  13.987  10.745   3.156
12392SOL    HW239016  13.849  10.695   3.116
12393SOL     OW39017   9.273   5.116   6.085
12393SOL    HW139018   9.270   5.168   6.005
12393SOL    HW239019   9.261   5.026   6.055
12394SOL     OW39020   8.251   0.342   0.545
12394SOL    HW139021   8.306   0.286   0.490
12394SOL    HW239022   8.310   0.374   0.613
12395SOL     OW39023   5.377   2.446   7.570
12395SOL    HW139024   5.301   2.503   7.581
12395SOL    HW239025   5.351   2.384   7.501
12396SOL     OW39026  14.423   7.846   6.446
12396SOL    HW139027  14.462   7.912   6.504
12396SOL    HW239028  14.472   7.855   6.364
12397SOL     OW39029  10.387  14.576  10.093
12397SOL    HW139030  10.320  14.625  10.140
12397SOL    HW239031  10.463  14.575  10.152
12398SOL     OW39032  11.792   0.428   1.323
12398SOL    HW139033  11.712   0.476   1.343
12398SOL    HW239034  11.767   0.336   1.334
12399SOL     OW39035  11.259  12.370   9.183
12399SOL    HW139036  11.257  12.440   9.248
12399SOL    HW239037  11.327  12.310   9.213
12400SOL     OW39038  13.198  12.823   9.500
12400SOL    HW139039  13.215  12.734   9.468
12400SOL    HW239040  13.268  12.839   9.563
12401SOL     OW39041   0.003   8.425   2.175
12401SOL    HW139042   0.011   8.452   2.084
12401SOL    HW239043  14.798   8.380   2.180
12402SOL     OW39044   8.308   1.185  13.220
12402SOL    HW139045   8.400   1.198  13.243
12402SOL    HW239046   8.261   1.201  13.302
12403SOL     OW39047  10.850   2.375   4.463
12403SOL    HW139048  10.796   2.437   4.414
12403SOL    HW239049  10.791   2.342   4.531
12404SOL     OW39050   2.020   8.659  12.390
12404SOL    HW139051   1.930   8.661  12.424
12404SOL    HW239052   2.072   8.627  12.464
12405SOL     OW39053  12.654   3.293  11.642
12405SOL    HW139054  12.711   3.366  11.665
12405SOL    HW239055  12.656   3.236  11.719
12406SOL     OW39056  10.121  11.385   5.600
12406SOL    HW139057  10.089  11.331   5.672
12406SOL    HW239058  10.093  11.474   5.622
12407SOL     OW39059  10.836  13.259   1.563
12407SOL    HW139060  10.816  13.297   1.648
12407SOL    HW239061  10.931  13.265   1.556
12408SOL     OW39062   6.803   8.771   3.257
12408SOL    HW139063   6.818   8.798   3.166
12408SOL    HW239064   6.795   8.853   3.305
12409SOL     OW39065   7.680   8.401   0.084
12409SOL    HW139066   7.751   8.460   0.055
12409SOL    HW239067   7.666   8.343   0.010
12410SOL     OW39068  13.380   8.714   7.734
12410SOL    HW139069  13.288   8.692   7.752
12410SOL    HW239070  13.387   8.711   7.639
12411SOL     OW39071   7.556   5.891   0.066
12411SOL    HW139072   7.483   5.933   0.020
12411SOL    HW239073   7.545   5.798   0.047
12412SOL     OW39074   7.897   2.220  13.109
12412SOL    HW139075   7.825   2.277  13.136
12412SOL    HW239076   7.943   2.199  13.190
12413SOL     OW39077   5.268   6.775   1.602
12413SOL    HW139078   5.315   6.808   1.679
12413SOL    HW239079   5.193   6.728   1.637
12414SOL     OW39080  11.784  11.587   9.786
12414SOL    HW139081  11.828  11.569   9.870
12414SOL    HW239082  11.737  11.668   9.802
12415SOL     OW39083  13.473   3.814   7.515
12415SOL    HW139084  13.463   3.720   7.499
12415SOL    HW239085  13.542   3.820   7.581
12416SOL     OW39086  10.197   8.639   1.316
12416SOL    HW139087  10.153   8.645   1.232
12416SOL    HW239088  10.139   8.585   1.370
12417SOL     OW39089   2.875   5.672  10.221
12417SOL    HW139090   2.805   5.608  10.205
12417SOL    HW239091   2.875   5.727  10.143
12418SOL     OW39092   1.243   6.180   7.626
12418SOL    HW139093   1.227   6.230   7.546
12418SOL    HW239094   1.338   6.177   7.634
12419SOL     OW39095   2.021   1.824   9.887
12419SOL    HW139096   2.064   1.814   9.972
12419SOL    HW239097   2.084   1.874   9.834
12420SOL     OW39098   9.983  14.391   0.676
12420SOL    HW139099   9.936  14.458   0.727
12420SOL    HW239100  10.052  14.360   0.735
12421SOL     OW39101   8.098  14.750   2.981
12421SOL    HW139102   8.025  14.788   2.931
12421SOL    HW239103   8.097  14.799   3.064
12422SOL     OW39104   9.972   5.229   0.335
12422SOL    HW139105   9.957   5.134   0.328
12422SOL    HW239106  10.048   5.237   0.393
12423SOL     OW39107   2.905   4.364   7.213
12423SOL    HW139108   2.974   4.408   7.164
12423SOL    HW239109   2.865   4.433   7.266
12424SOL     OW39110   8.221   4.974   0.419
12424SOL    HW139111   8.249   4.892   0.377
12424SOL    HW239112   8.296   5.001   0.472
12425SOL     OW39113  10.246   7.457   5.075
12425SOL    HW139114  10.206   7.438   4.990
12425SOL    HW239115  10.176   7.439   5.139
12426SOL     OW39116   8.673  14.696   1.094
12426SOL    HW139117   8.625  14.757   1.150
12426SOL    HW239118   8.762  14.695   1.130
12427SOL     OW39119   4.765   6.951  11.001
12427SOL    HW139120   4.747   6.940  10.908
12427SOL    HW239121   4.684   6.988  11.037
12428SOL     OW39122  14.214  10.112  14.395
12428SOL    HW139123  14.190  10.020  14.383
12428SOL    HW239124  14.131  10.159  14.392
12429SOL     OW39125   2.713   3.960  12.015
12429SOL    HW139126   2.802   3.928  12.004
12429SOL    HW239127   2.721   4.035  12.074
12430SOL     OW39128  12.913  10.403   9.281
12430SOL    HW139129  12.963  10.453   9.345
12430SOL    HW239130  12.973  10.334   9.253
12431SOL     OW39131   7.849   8.712  12.973
12431SOL    HW139132   7.888   8.673  12.895
12431SOL    HW239133   7.923   8.733  13.030
12432SOL     OW39134  13.354   4.740   1.525
12432SOL    HW139135  13.392   4.742   1.613
12432SOL    HW239136  13.319   4.651   1.517
12433SOL     OW39137   7.879   5.670   4.388
12433SOL    HW139138   7.947   5.736   4.375
12433SOL    HW239139   7.799   5.712   4.356
12434SOL     OW39140  12.338  11.018  14.461
12434SOL    HW139141  12.416  11.056  14.420
12434SOL    HW239142  12.371  10.942  14.508
12435SOL     OW39143  12.588  11.531   2.167
12435SOL    HW139144  12.568  11.529   2.261
12435SOL    HW239145  12.515  11.579   2.128
12436SOL     OW39146   6.152  11.000  10.510
12436SOL    HW139147   6.127  10.924  10.458
12436SOL    HW239148   6.070  11.046  10.526
12437SOL     OW39149   9.172   2.748   7.980
12437SOL    HW139150   9.094   2.767   8.032
12437SOL    HW239151   9.244   2.787   8.030
12438SOL     OW39152  11.973  14.623   1.542
12438SOL    HW139153  12.036  14.689   1.573
12438SOL    HW239154  11.958  14.566   1.617
12439SOL     OW39155  12.422  10.555   0.710
12439SOL    HW139156  12.376  10.500   0.774
12439SOL    HW239157  12.514  10.536   0.723
12440SOL     OW39158   3.462   1.304  11.548
12440SOL    HW139159   3.416   1.370  11.601
12440SOL    HW239160   3.397   1.236  11.534
12441SOL     OW39161   9.705   0.383   1.068
12441SOL    HW139162   9.741   0.470   1.087
12441SOL    HW239163   9.764   0.345   1.003
12442SOL     OW39164  12.176   6.380  14.607
12442SOL    HW139165  12.205   6.438  14.677
12442SOL    HW239166  12.222   6.297  14.624
12443SOL     OW39167   2.638   8.468   2.601
12443SOL    HW139168   2.563   8.525   2.617
12443SOL    HW239169   2.609   8.411   2.529
12444SOL     OW39170  14.722  14.513  14.733
12444SOL    HW139171  14.764  14.597  14.751
12444SOL    HW239172  14.702  14.477  14.820
12445SOL     OW39173  13.262  10.738   6.647
12445SOL    HW139174  13.296  10.656   6.611
12445SOL    HW239175  13.185  10.757   6.594
12446SOL     OW39176  12.849   5.044   5.478
12446SOL    HW139177  12.941   5.036   5.454
12446SOL    HW239178  12.801   5.023   5.397
12447SOL     OW39179   2.443   3.364  14.605
12447SOL    HW139180   2.475   3.442  14.559
12447SOL    HW239181   2.511   3.298  14.591
12448SOL     OW39182  13.106   7.450   9.558
12448SOL    HW139183  13.140   7.468   9.470
12448SOL    HW239184  13.137   7.362   9.578
12449SOL     OW39185   1.638   4.650   3.930
12449SOL    HW139186   1.543   4.642   3.924
12449SOL    HW239187   1.654   4.745   3.931
12450SOL     OW39188   9.348   3.037  10.246
12450SOL    HW139189   9.344   3.039  10.150
12450SOL    HW239190   9.441   3.053  10.266
12451SOL     OW39191   4.703   3.328  10.925
12451SOL    HW139192   4.790   3.324  10.885
12451SOL    HW239193   4.720   3.322  11.019
12452SOL     OW39194  12.942  10.649   7.006
12452SOL    HW139195  13.019  10.645   6.949
12452SOL    HW239196  12.868  10.632   6.947
12453SOL     OW39197   9.044   8.123   2.299
12453SOL    HW139198   9.115   8.175   2.337
12453SOL    HW239199   8.966   8.151   2.346
12454SOL     OW39200   9.972   4.231   5.218
12454SOL    HW139201  10.018   4.314   5.229
12454SOL    HW239202   9.950   4.204   5.307
12455SOL     OW39203   0.349   1.931   2.041
12455SOL    HW139204   0.418   1.997   2.051
12455SOL    HW239205   0.268   1.981   2.034
12456SOL     OW39206   9.007   8.598  13.163
12456SOL    HW139207   9.055   8.532  13.112
12456SOL    HW239208   9.055   8.679  13.148
12457SOL     OW39209  12.887   1.457   5.858
12457SOL    HW139210  12.840   1.495   5.785
12457SOL    HW239211  12.980   1.474   5.838
12458SOL     OW39212   7.398  10.523   0.258
12458SOL    HW139213   7.385  10.551   0.348
12458SOL    HW239214   7.313  10.537   0.216
12459SOL     OW39215   4.590  12.350  14.411
12459SOL    HW139216   4.571  12.256  14.406
12459SOL    HW239217   4.632  12.370  14.327
12460SOL     OW39218   5.280  10.103  14.259
12460SOL    HW139219   5.271  10.197  14.243
12460SOL    HW239220   5.315  10.068  14.177
12461SOL     OW39221   1.696   7.679   4.610
12461SOL    HW139222   1.687   7.752   4.671
12461SOL    HW239223   1.606   7.656   4.588
12462SOL     OW39224   6.011   1.046   1.178
12462SOL    HW139225   5.967   1.051   1.263
12462SOL    HW239226   6.003   0.954   1.152
12463SOL     OW39227  12.283   9.144   7.617
12463SOL    HW139228  12.340   9.140   7.540
12463SOL    HW239229  12.210   9.086   7.596
12464SOL     OW39230   8.634   0.001   5.134
12464SOL    HW139231   8.625  14.789   5.161
12464SOL    HW239232   8.728   0.020   5.143
12465SOL     OW39233   7.006   0.407   8.544
12465SOL    HW139234   7.069   0.428   8.474
12465SOL    HW239235   7.029   0.467   8.615
12466SOL     OW39236   9.334  13.375   0.177
12466SOL    HW139237   9.251  13.378   0.224
12466SOL    HW239238   9.381  13.301   0.215
12467SOL     OW39239   8.820  10.133   2.483
12467SOL    HW139240   8.771  10.056   2.513
12467SOL    HW239241   8.910  10.116   2.510
12468SOL     OW39242   7.553   0.311   6.791
12468SOL    HW139243   7.640   0.342   6.767
12468SOL    HW239244   7.549   0.319   6.887
12469SOL     OW39245   4.464  14.613  12.789
12469SOL    HW139246   4.444  14.564  12.710
12469SOL    HW239247   4.414  14.695  12.780
12470SOL     OW39248  14.498   9.137   9.629
12470SOL    HW139249  14.521   9.055   9.672
12470SOL    HW239250  14.572   9.196   9.647
12471SOL     OW39251   2.469   9.254  10.504
12471SOL    HW139252   2.540   9.284  10.562
12471SOL    HW239253   2.510   9.186  10.450
12472SOL     OW39254  14.386  12.478   4.125
12472SOL    HW139255  14.425  12.432   4.200
12472SOL    HW239256  14.316  12.420   4.096
12473SOL     OW39257   8.507   7.901   6.245
12473SOL    HW139258   8.562   7.969   6.285
12473SOL    HW239259   8.418   7.923   6.273
12474SOL     OW39260   4.900   4.178   9.169
12474SOL    HW139261   4.898   4.107   9.234
12474SOL    HW239262   4.984   4.221   9.183
12475SOL     OW39263   8.293   6.674   9.597
12475SOL    HW139264   8.365   6.617   9.569
12475SOL    HW239265   8.336   6.746   9.643
12476SOL     OW39266   1.060   6.221   8.745
12476SOL    HW139267   1.043   6.315   8.738
12476SOL    HW239268   1.016   6.195   8.826
12477SOL     OW39269   8.697   9.980  12.386
12477SOL    HW139270   8.613   9.984  12.432
12477SOL    HW239271   8.717   9.886  12.381
12478SOL     OW39272  10.431  12.856  13.158
12478SOL    HW139273  10.337  12.874  13.161
12478SOL    HW239274  10.444  12.815  13.072
12479SOL     OW39275   4.313  10.136   8.633
12479SOL    HW139276   4.252  10.087   8.688
12479SOL    HW239277   4.306  10.096   8.547
12480SOL     OW39278   5.119   2.151   3.625
12480SOL    HW139279   5.063   2.073   3.626
12480SOL    HW239280   5.063   2.222   3.655
12481SOL     OW39281   8.200  13.454  11.034
12481SOL    HW139282   8.264  13.387  11.008
12481SOL    HW239283   8.224  13.476  11.124
12482SOL     OW39284   5.642   3.092   4.990
12482SOL    HW139285   5.616   3.003   5.016
12482SOL    HW239286   5.724   3.108   5.037
12483SOL     OW39287  12.217   9.682   0.129
12483SOL    HW139288  12.193   9.699   0.038
12483SOL    HW239289  12.312   9.697   0.132
12484SOL     OW39290   8.174  12.149   5.292
12484SOL    HW139291   8.250  12.098   5.320
12484SOL    HW239292   8.145  12.194   5.371
12485SOL     OW39293   0.554   0.389  12.884
12485SOL    HW139294   0.573   0.317  12.824
12485SOL    HW239295   0.464   0.374  12.912
12486SOL     OW39296   0.940   3.599   9.217
12486SOL    HW139297   0.894   3.663   9.271
12486SOL    HW239298   0.882   3.582   9.144
12487SOL     OW39299  10.422   2.501   9.769
12487SOL    HW139300  10.453   2.575   9.822
12487SOL    HW239301  10.362   2.541   9.706
12488SOL     OW39302  10.825  12.617   8.825
12488SOL    HW139303  10.779  12.657   8.751
12488SOL    HW239304  10.893  12.563   8.785
12489SOL     OW39305  14.406  10.858  11.069
12489SOL    HW139306  14.378  10.768  11.049
12489SOL    HW239307  14.330  10.912  11.048
12490SOL     OW39308   2.757   5.736   4.999
12490SOL    HW139309   2.791   5.806   4.943
12490SOL    HW239310   2.668   5.762   5.019
12491SOL     OW39311   3.020   2.109   4.144
12491SOL    HW139312   2.973   2.030   4.115
12491SOL    HW239313   2.984   2.179   4.090
12492SOL     OW39314   8.273  11.895   7.770
12492SOL    HW139315   8.193  11.935   7.804
12492SOL    HW239316   8.308  11.961   7.710
12493SOL     OW39317   7.100   5.656   1.895
12493SOL    HW139318   7.192   5.676   1.914
12493SOL    HW239319   7.096   5.560   1.897
12494SOL     OW39320   4.017   7.010  13.549
12494SOL    HW139321   3.942   6.996  13.607
12494SOL    HW239322   4.012   7.103  13.526
12495SOL     OW39323   3.447   8.569   4.623
12495SOL    HW139324   3.413   8.481   4.605
12495SOL    HW239325   3.472   8.566   4.716
12496SOL     OW39326   4.216   3.515   2.444
12496SOL    HW139327   4.145   3.451   2.451
12496SOL    HW239328   4.178   3.597   2.473
12497SOL     OW39329   0.446  13.495   4.455
12497SOL    HW139330   0.468  13.524   4.366
12497SOL    HW239331   0.530  13.486   4.499
12498SOL     OW39332   4.489  14.073  11.624
12498SOL    HW139333   4.424  14.139  11.649
12498SOL    HW239334   4.511  14.029  11.706
12499SOL     OW39335  12.718   8.138   0.465
12499SOL    HW139336  12.723   8.206   0.533
12499SOL    HW239337  12.765   8.063   0.503
12500SOL     OW39338   3.500   8.785   1.234
12500SOL    HW139339   3.469   8.797   1.144
12500SOL    HW239340   3.443   8.842   1.286
12501SOL     OW39341   1.206   8.721   8.345
12501SOL    HW139342   1.298   8.695   8.349
12501SOL    HW239343   1.157   8.639   8.345
12502SOL     OW39344   4.147   8.745  14.322
12502SOL    HW139345   4.117   8.832  14.292
12502SOL    HW239346   4.242   8.751  14.319
12503SOL     OW39347   4.837   9.567   3.392
12503SOL    HW139348   4.926   9.551   3.423
12503SOL    HW239349   4.823   9.660   3.410
12504SOL     OW39350   6.338   8.082  12.551
12504SOL    HW139351   6.304   8.000  12.517
12504SOL    HW239352   6.260   8.134  12.572
12505SOL     OW39353  11.790   5.946  11.124
12505SOL    HW139354  11.809   5.963  11.217
12505SOL    HW239355  11.861   5.988  11.077
12506SOL     OW39356   3.311   4.855  13.480
12506SOL    HW139357   3.312   4.825  13.571
12506SOL    HW239358   3.269   4.783  13.432
12507SOL     OW39359   4.115   4.947   3.916
12507SOL    HW139360   4.162   4.961   3.998
12507SOL    HW239361   4.149   5.016   3.858
12508SOL     OW39362   6.550  13.351  11.309
12508SOL    HW139363   6.586  13.275  11.263
12508SOL    HW239364   6.480  13.315  11.364
12509SOL     OW39365   4.915   3.897   5.636
12509SOL    HW139366   4.990   3.954   5.649
12509SOL    HW239367   4.950   3.808   5.645
12510SOL     OW39368   2.077  10.674   6.079
12510SOL    HW139369   2.035  10.725   6.148
12510SOL    HW239370   2.111  10.596   6.123
12511SOL     OW39371   5.340   1.787   4.623
12511SOL    HW139372   5.287   1.727   4.569
12511SOL    HW239373   5.338   1.748   4.710
12512SOL     OW39374   8.463   5.388   3.314
12512SOL    HW139375   8.542   5.347   3.278
12512SOL    HW239376   8.496   5.452   3.377
12513SOL     OW39377   2.423   3.604  13.506
12513SOL    HW139378   2.353   3.600  13.571
12513SOL    HW239379   2.499   3.638  13.553
12514SOL     OW39380   3.026   4.606   3.788
12514SOL    HW139381   2.959   4.547   3.751
12514SOL    HW239382   3.104   4.589   3.735
12515SOL     OW39383   2.873   6.675   3.589
12515SOL    HW139384   2.929   6.676   3.666
12515SOL    HW239385   2.789   6.710   3.620
12516SOL     OW39386   4.674   5.601   9.290
12516SOL    HW139387   4.607   5.600   9.221
12516SOL    HW239388   4.757   5.597   9.242
12517SOL     OW39389  12.773   5.458   5.157
12517SOL    HW139390  12.683   5.438   5.183
12517SOL    HW239391  12.771   5.457   5.062
12518SOL     OW39392  12.947  10.154   6.237
12518SOL    HW139393  12.993  10.230   6.272
12518SOL    HW239394  12.865  10.190   6.203
12519SOL     OW39395   5.344   2.214  13.002
12519SOL    HW139396   5.423   2.265  13.022
12519SOL    HW239397   5.374   2.146  12.942
12520SOL     OW39398   9.844  10.958   9.372
12520SOL    HW139399   9.898  10.895   9.324
12520SOL    HW239400   9.829  11.029   9.310
12521SOL     OW39401   0.997   6.206   3.305
12521SOL    HW139402   1.078   6.197   3.256
12521SOL    HW239403   0.965   6.293   3.284
12522SOL     OW39404   1.922   7.731   4.426
12522SOL    HW139405   1.852   7.762   4.484
12522SOL    HW239406   1.947   7.808   4.376
12523SOL     OW39407   2.622   5.442   7.838
12523SOL    HW139408   2.583   5.520   7.798
12523SOL    HW239409   2.620   5.376   7.768
12524SOL     OW39410   1.331  11.859   3.212
12524SOL    HW139411   1.347  11.948   3.245
12524SOL    HW239412   1.413  11.813   3.228
12525SOL     OW39413   4.240  13.672   5.939
12525SOL    HW139414   4.195  13.612   5.998
12525SOL    HW239415   4.181  13.683   5.865
12526SOL     OW39416   2.513   7.703   2.442
12526SOL    HW139417   2.518   7.640   2.513
12526SOL    HW239418   2.454   7.771   2.474
12527SOL     OW39419   3.021  10.311   9.377
12527SOL    HW139420   3.114  10.333   9.369
12527SOL    HW239421   3.012  10.229   9.328
12528SOL     OW39422   8.595   6.695   6.778
12528SOL    HW139423   8.562   6.730   6.861
12528SOL    HW239424   8.522   6.703   6.718
12529SOL     OW39425   2.659  13.277  12.495
12529SOL    HW139426   2.738  13.264  12.443
12529SOL    HW239427   2.685  13.337  12.564
12530SOL     OW39428  11.742  13.071   5.735
12530SOL    HW139429  11.711  12.994   5.689
12530SOL    HW239430  11.813  13.040   5.791
12531SOL     OW39431   6.482   1.453  13.890
12531SOL    HW139432   6.543   1.487  13.955
12531SOL    HW239433   6.524   1.473  13.806
12532SOL     OW39434  13.692  13.167  12.115
12532SOL    HW139435  13.716  13.214  12.194
12532SOL    HW239436  13.647  13.088  12.146
12533SOL     OW39437  14.300   7.213  10.925
12533SOL    HW139438  14.272   7.122  10.915
12533SOL    HW239439  14.340   7.217  11.012
12534SOL     OW39440   2.519   7.728  13.194
12534SOL    HW139441   2.443   7.715  13.252
12534SOL    HW239442   2.594   7.708  13.250
12535SOL     OW39443  10.231  11.172   4.356
12535SOL    HW139444  10.147  11.174   4.402
12535SOL    HW239445  10.238  11.257   4.314
12536SOL     OW39446   4.279  10.914   1.621
12536SOL    HW139447   4.187  10.894   1.639
12536SOL    HW239448   4.293  11.000   1.659
12537SOL     OW39449   4.058   0.232   8.687
12537SOL    HW139450   4.093   0.185   8.763
12537SOL    HW239451   4.094   0.186   8.612
12538SOL     OW39452   2.613   4.628   1.374
12538SOL    HW139453   2.601   4.566   1.446
12538SOL    HW239454   2.702   4.662   1.385
12539SOL     OW39455  13.058  12.909   1.298
12539SOL    HW139456  12.993  12.911   1.369
12539SOL    HW239457  13.093  12.998   1.296
12540SOL     OW39458   5.862   5.828  11.122
12540SOL    HW139459   5.846   5.792  11.035
12540SOL    HW239460   5.931   5.892  11.109
12541SOL     OW39461   8.015  14.558  11.647
12541SOL    HW139462   7.968  14.593  11.723
12541SOL    HW239463   8.037  14.468  11.671
12542SOL     OW39464   5.062  14.335   3.975
12542SOL    HW139465   5.021  14.310   3.893
12542SOL    HW239466   5.122  14.406   3.951
12543SOL     OW39467   1.445  12.356   0.449
12543SOL    HW139468   1.388  12.404   0.509
12543SOL    HW239469   1.412  12.378   0.362
12544SOL     OW39470  13.183  11.606   8.506
12544SOL    HW139471  13.129  11.530   8.485
12544SOL    HW239472  13.265  11.569   8.541
12545SOL     OW39473   2.027   5.340  10.717
12545SOL    HW139474   2.114   5.368  10.692
12545SOL    HW239475   1.989   5.303  10.638
12546SOL     OW39476   7.458   5.132   0.375
12546SOL    HW139477   7.412   5.193   0.434
12546SOL    HW239478   7.511   5.078   0.433
12547SOL     OW39479   4.575   0.367   7.085
12547SOL    HW139480   4.512   0.427   7.124
12547SOL    HW239481   4.655   0.419   7.075
12548SOL     OW39482  12.417  13.432   7.813
12548SOL    HW139483  12.410  13.522   7.844
12548SOL    HW239484  12.503  13.403   7.842
12549SOL     OW39485   1.854   0.378   8.368
12549SOL    HW139486   1.920   0.425   8.318
12549SOL    HW239487   1.808   0.325   8.303
12550SOL     OW39488   9.023   1.710   5.019
12550SOL    HW139489   9.116   1.717   5.037
12550SOL    HW239490   9.005   1.616   5.021
12551SOL     OW39491   4.316   6.717  14.390
12551SOL    HW139492   4.334   6.673  14.307
12551SOL    HW239493   4.220   6.728  14.391
12552SOL     OW39494   1.903   9.100   4.239
12552SOL    HW139495   1.981   9.092   4.185
12552SOL    HW239496   1.860   9.180   4.209
12553SOL     OW39497   5.947   7.128  11.883
12553SOL    HW139498   5.884   7.065  11.916
12553SOL    HW239499   6.031   7.102  11.922
12554SOL     OW39500   6.330  13.876   7.156
12554SOL    HW139501   6.267  13.949   7.157
12554SOL    HW239502   6.389  13.895   7.229
12555SOL     OW39503   3.568  10.024   4.497
12555SOL    HW139504   3.473  10.029   4.504
12555SOL    HW239505   3.588   9.932   4.514
12556SOL     OW39506  13.648   2.650  12.460
12556SOL    HW139507  13.616   2.607  12.381
12556SOL    HW239508  13.733   2.609  12.477
12557SOL     OW39509   7.437   7.459  14.394
12557SOL    HW139510   7.457   7.367  14.375
12557SOL    HW239511   7.437   7.465  14.490
12558SOL     OW39512   4.858  12.415  13.602
12558SOL    HW139513   4.891  12.485  13.546
12558SOL    HW239514   4.929  12.351  13.607
12559SOL     OW39515   4.611   5.184   9.953
12559SOL    HW139516   4.665   5.124   9.902
12559SOL    HW239517   4.618   5.268   9.908
12560SOL     OW39518   5.168  14.370  13.312
12560SOL    HW139519   5.085  14.321  13.313
12560SOL    HW239520   5.153  14.439  13.248
12561SOL     OW39521   6.753   6.008  13.610
12561SOL    HW139522   6.666   6.038  13.584
12561SOL    HW239523   6.741   5.917  13.636
12562SOL     OW39524  12.619   5.216   7.490
12562SOL    HW139525  12.609   5.283   7.557
12562SOL    HW239526  12.529   5.186   7.472
12563SOL     OW39527   7.167   1.303   4.843
12563SOL    HW139528   7.187   1.365   4.772
12563SOL    HW239529   7.121   1.231   4.800
12564SOL     OW39530  10.125   0.551   0.002
12564SOL    HW139531  10.150   0.624   0.057
12564SOL    HW239532  10.176   0.477   0.034
12565SOL     OW39533   9.279  14.366   5.717
12565SOL    HW139534   9.314  14.454   5.729
12565SOL    HW239535   9.311  14.339   5.631
12566SOL     OW39536   3.624   1.977   6.343
12566SOL    HW139537   3.544   1.939   6.380
12566SOL    HW239538   3.620   1.955   6.250
12567SOL     OW39539   5.978  12.940  12.389
12567SOL    HW139540   6.003  13.003  12.457
12567SOL    HW239541   5.886  12.958  12.373
12568SOL     OW39542   6.165  12.968   1.777
12568SOL    HW139543   6.206  13.032   1.719
12568SOL    HW239544   6.149  13.016   1.858
12569SOL     OW39545   6.764  12.713   1.047
12569SOL    HW139546   6.687  12.749   1.004
12569SOL    HW239547   6.745  12.620   1.057
12570SOL     OW39548   0.061  10.755   5.968
12570SOL    HW139549  14.848  10.755   5.944
12570SOL    HW239550   0.086  10.663   5.969
12571SOL     OW39551   4.662  13.076   5.926
12571SOL    HW139552   4.678  12.990   5.886
12571SOL    HW239553   4.676  13.062   6.020
12572SOL     OW39554   7.788   2.628   6.175
12572SOL    HW139555   7.773   2.720   6.154
12572SOL    HW239556   7.700   2.591   6.183
12573SOL     OW39557   4.701   1.487  11.260
12573SOL    HW139558   4.754   1.558  11.296
12573SOL    HW239559   4.723   1.485  11.167
12574SOL     OW39560  12.770   0.863   1.902
12574SOL    HW139561  12.674   0.863   1.900
12574SOL    HW239562  12.792   0.936   1.960
12575SOL     OW39563  14.210  11.156   3.476
12575SOL    HW139564  14.249  11.243   3.465
12575SOL    HW239565  14.151  11.146   3.401
12576SOL     OW39566   7.827  10.445   2.953
12576SOL    HW139567   7.784  10.394   3.021
12576SOL    HW239568   7.910  10.474   2.992
12577SOL     OW39569   3.872  10.150   8.298
12577SOL    HW139570   3.798  10.209   8.310
12577SOL    HW239571   3.946  10.209   8.279
12578SOL     OW39572   0.177   1.503   8.390
12578SOL    HW139573   0.103   1.456   8.429
12578SOL    HW239574   0.247   1.493   8.454
12579SOL     OW39575   8.877  12.825  13.677
12579SOL    HW139576   8.823  12.901  13.695
12579SOL    HW239577   8.967  12.859  13.676
12580SOL     OW39578   7.865  10.821   7.586
12580SOL    HW139579   7.875  10.732   7.555
12580SOL    HW239580   7.931  10.831   7.655
12581SOL     OW39581   0.363  10.195   2.911
12581SOL    HW139582   0.457  10.209   2.903
12581SOL    HW239583   0.346  10.202   3.005
12582SOL     OW39584  11.725   0.179   1.404
12582SOL    HW139585  11.800   0.131   1.368
12582SOL    HW239586  11.700   0.129   1.482
12583SOL     OW39587  13.003   7.715   6.809
12583SOL    HW139588  13.054   7.677   6.880
12583SOL    HW239589  12.951   7.784   6.850
12584SOL     OW39590   4.043   8.409  11.795
12584SOL    HW139591   4.125   8.456  11.781
12584SOL    HW239592   4.013   8.438  11.881
12585SOL     OW39593   0.972   6.181  13.135
12585SOL    HW139594   0.881   6.174  13.107
12585SOL    HW239595   0.982   6.272  13.162
12586SOL     OW39596   8.089   6.312  13.828
12586SOL    HW139597   8.091   6.404  13.854
12586SOL    HW239598   8.002   6.300  13.790
12587SOL     OW39599  12.295  14.180   3.771
12587SOL    HW139600  12.348  14.260   3.782
12587SOL    HW239601  12.359  14.112   3.750
12588SOL     OW39602   3.575   2.106   0.726
12588SOL    HW139603   3.602   2.171   0.790
12588SOL    HW239604   3.482   2.124   0.711
12589SOL     OW39605  14.163  12.640   6.560
12589SOL    HW139606  14.129  12.572   6.501
12589SOL    HW239607  14.122  12.622   6.644
12590SOL     OW39608  13.725   4.236   1.036
12590SOL    HW139609  13.690   4.324   1.025
12590SOL    HW239610  13.794   4.229   0.970
12591SOL     OW39611   2.319   5.589  13.461
12591SOL    HW139612   2.328   5.675  13.503
12591SOL    HW239613   2.229   5.588  13.428
12592SOL     OW39614   8.611   8.643  11.487
12592SOL    HW139615   8.642   8.591  11.413
12592SOL    HW239616   8.516   8.629  11.488
12593SOL     OW39617   7.605  13.603   5.180
12593SOL    HW139618   7.595  13.509   5.165
12593SOL    HW239619   7.687  13.625   5.136
12594SOL     OW39620   1.538  13.888   0.257
12594SOL    HW139621   1.519  13.811   0.203
12594SOL    HW239622   1.560  13.852   0.343
12595SOL     OW39623   6.061   3.672   4.164
12595SOL    HW139624   6.091   3.746   4.217
12595SOL    HW239625   5.967   3.687   4.153
12596SOL     OW39626  10.433   7.334   5.240
12596SOL    HW139627  10.369   7.398   5.208
12596SOL    HW239628  10.397   7.249   5.214
12597SOL     OW39629  14.349   2.188   4.927
12597SOL    HW139630  14.285   2.252   4.958
12597SOL    HW239631  14.391   2.230   4.852
12598SOL     OW39632  12.538   0.530  12.344
12598SOL    HW139633  12.595   0.455  12.362
12598SOL    HW239634  12.485   0.502  12.269
12599SOL     OW39635  10.209  11.167   0.232
12599SOL    HW139636  10.115  11.151   0.241
12599SOL    HW239637  10.247  11.081   0.215
12600SOL     OW39638   5.117   8.620   6.047
12600SOL    HW139639   5.209   8.637   6.071
12600SOL    HW239640   5.072   8.701   6.068
12601SOL     OW39641   2.644  13.658   0.782
12601SOL    HW139642   2.698  13.708   0.721
12601SOL    HW239643   2.554  13.683   0.761
12602SOL     OW39644   3.796   0.692   9.854
12602SOL    HW139645   3.731   0.635   9.895
12602SOL    HW239646   3.761   0.780   9.863
12603SOL     OW39647  12.145  13.662   9.725
12603SOL    HW139648  12.075  13.719   9.755
12603SOL    HW239649  12.104  13.605   9.660
12604SOL     OW39650   4.904   1.827   3.187
12604SOL    HW139651   4.957   1.771   3.244
12604SOL    HW239652   4.958   1.838   3.108
12605SOL     OW39653  14.009   3.085  13.868
12605SOL    HW139654  14.053   3.157  13.822
12605SOL    HW239655  14.046   3.006  13.829
12606SOL     OW39656   0.547   3.728   3.372
12606SOL    HW139657   0.453   3.728   3.356
12606SOL    HW239658   0.586   3.716   3.286
12607SOL     OW39659  10.663   5.360   9.164
12607SOL    HW139660  10.578   5.397   9.139
12607SOL    HW239661  10.669   5.374   9.259
12608SOL     OW39662   2.964   0.928   4.677
12608SOL    HW139663   3.008   0.979   4.608
12608SOL    HW239664   2.982   0.837   4.654
12609SOL     OW39665   8.993  13.981   0.389
12609SOL    HW139666   9.011  14.074   0.377
12609SOL    HW239667   9.056  13.938   0.330
12610SOL     OW39668  11.321   5.729  13.005
12610SOL    HW139669  11.363   5.783  12.939
12610SOL    HW239670  11.393   5.681  13.046
12611SOL     OW39671   7.775  14.569  10.095
12611SOL    HW139672   7.768  14.530  10.183
12611SOL    HW239673   7.869  14.574  10.078
12612SOL     OW39674   7.340  14.645   6.860
12612SOL    HW139675   7.391  14.628   6.939
12612SOL    HW239676   7.370  14.731   6.830
12613SOL     OW39677   7.650   1.965   4.733
12613SOL    HW139678   7.632   1.887   4.787
12613SOL    HW239679   7.645   2.038   4.795
12614SOL     OW39680   9.828  14.790  10.415
12614SOL    HW139681   9.846  14.742  10.495
12614SOL    HW239682   9.915  14.818  10.384
12615SOL     OW39683  11.305   1.586  10.497
12615SOL    HW139684  11.323   1.577  10.591
12615SOL    HW239685  11.354   1.665  10.471
12616SOL     OW39686   6.828  10.001   0.642
12616SOL    HW139687   6.840  10.089   0.679
12616SOL    HW239688   6.858  10.009   0.552
12617SOL     OW39689  11.287   3.485  13.298
12617SOL    HW139690  11.294   3.437  13.380
12617SOL    HW239691  11.251   3.570  13.323
12618SOL     OW39692   9.633  11.288   4.862
12618SOL    HW139693   9.673  11.228   4.926
12618SOL    HW239694   9.665  11.375   4.887
12619SOL     OW39695   6.447   3.827   4.074
12619SOL    HW139696   6.512   3.860   4.011
12619SOL    HW239697   6.421   3.905   4.124
12620SOL     OW39698   8.077   4.240  10.025
12620SOL    HW139699   8.127   4.316  10.056
12620SOL    HW239700   8.141   4.185   9.980
12621SOL     OW39701  11.856   6.922   5.227
12621SOL    HW139702  11.840   7.016   5.216
12621SOL    HW239703  11.892   6.894   5.143
12622SOL     OW39704   5.691   3.964   8.764
12622SOL    HW139705   5.656   3.875   8.764
12622SOL    HW239706   5.634   4.012   8.704
12623SOL     OW39707   0.523   9.056   7.203
12623SOL    HW139708   0.608   9.036   7.243
12623SOL    HW239709   0.532   9.028   7.112
12624SOL     OW39710   0.653  12.426   3.726
12624SOL    HW139711   0.706  12.505   3.730
12624SOL    HW239712   0.563  12.458   3.716
12625SOL     OW39713  12.679  10.619  14.810
12625SOL    HW139714  12.642  10.586  14.728
12625SOL    HW239715  12.687  10.714  14.797
12626SOL     OW39716   6.410   7.023  10.145
12626SOL    HW139717   6.372   6.969  10.076
12626SOL    HW239718   6.464   7.087  10.099
12627SOL     OW39719  11.282   6.725  10.169
12627SOL    HW139720  11.254   6.713  10.260
12627SOL    HW239721  11.301   6.636  10.138
12628SOL     OW39722   8.913  13.927   7.533
12628SOL    HW139723   8.846  13.958   7.594
12628SOL    HW239724   8.928  13.836   7.558
12629SOL     OW39725  12.383   0.533  13.038
12629SOL    HW139726  12.335   0.546  12.956
12629SOL    HW239727  12.332   0.582  13.103
12630SOL     OW39728  12.139   5.295   9.137
12630SOL    HW139729  12.231   5.301   9.110
12630SOL    HW239730  12.091   5.341   9.068
12631SOL     OW39731   5.306   5.517   8.613
12631SOL    HW139732   5.301   5.593   8.556
12631SOL    HW239733   5.317   5.553   8.701
12632SOL     OW39734  10.204   3.619   0.273
12632SOL    HW139735  10.267   3.566   0.225
12632SOL    HW239736  10.139   3.645   0.208
12633SOL     OW39737   0.354  12.632   8.982
12633SOL    HW139738   0.384  12.660   9.068
12633SOL    HW239739   0.433  12.629   8.929
12634SOL     OW39740   7.408   5.362   3.463
12634SOL    HW139741   7.389   5.407   3.545
12634SOL    HW239742   7.418   5.270   3.488
12635SOL     OW39743   8.737   4.000   8.649
12635SOL    HW139744   8.766   3.991   8.558
12635SOL    HW239745   8.649   3.963   8.650
12636SOL     OW39746   0.741   0.738   2.089
12636SOL    HW139747   0.816   0.745   2.030
12636SOL    HW239748   0.735   0.824   2.131
12637SOL     OW39749   1.655   4.569   0.008
12637SOL    HW139750   1.644   4.504  14.818
12637SOL    HW239751   1.742   4.606  14.872
12638SOL     OW39752  10.498  10.492   4.809
12638SOL    HW139753  10.556  10.419   4.788
12638SOL    HW239754  10.547  10.545   4.872
12639SOL     OW39755   6.747   0.928   4.335
12639SOL    HW139756   6.676   0.867   4.314
12639SOL    HW239757   6.767   0.912   4.427
12640SOL     OW39758   7.353   4.426  14.679
12640SOL    HW139759   7.331   4.510  14.720
12640SOL    HW239760   7.371   4.448  14.588
12641SOL     OW39761   4.319   0.102   2.032
12641SOL    HW139762   4.302   0.099   1.938
12641SOL    HW239763   4.270   0.028   2.067
12642SOL     OW39764   6.054   3.423   3.233
12642SOL    HW139765   6.144   3.393   3.246
12642SOL    HW239766   6.001   3.344   3.236
12643SOL     OW39767   1.790   9.030   1.890
12643SOL    HW139768   1.867   9.042   1.946
12643SOL    HW239769   1.720   9.005   1.950
12644SOL     OW39770  12.435   4.136   8.368
12644SOL    HW139771  12.413   4.125   8.461
12644SOL    HW239772  12.365   4.190   8.333
12645SOL     OW39773   2.110   5.719   1.409
12645SOL    HW139774   2.019   5.746   1.399
12645SOL    HW239775   2.159   5.778   1.352
12646SOL     OW39776  14.121   4.019  13.272
12646SOL    HW139777  14.156   3.957  13.336
12646SOL    HW239778  14.193   4.034  13.211
12647SOL     OW39779   3.636   5.414   5.661
12647SOL    HW139780   3.599   5.416   5.573
12647SOL    HW239781   3.714   5.360   5.654
12648SOL     OW39782  13.604   0.936   2.806
12648SOL    HW139783  13.545   0.997   2.851
12648SOL    HW239784  13.691   0.970   2.825
12649SOL     OW39785  12.630  10.776   6.558
12649SOL    HW139786  12.678  10.700   6.591
12649SOL    HW239787  12.551  10.739   6.519
12650SOL     OW39788   6.758   6.196  11.356
12650SOL    HW139789   6.684   6.160  11.307
12650SOL    HW239790   6.832   6.140  11.332
12651SOL     OW39791   9.037   1.108  10.174
12651SOL    HW139792   9.012   1.200  10.185
12651SOL    HW239793   8.989   1.079  10.097
12652SOL     OW39794  12.885   5.245  12.287
12652SOL    HW139795  12.806   5.268  12.237
12652SOL    HW239796  12.954   5.243  12.221
12653SOL     OW39797   5.153   8.039  10.122
12653SOL    HW139798   5.184   8.117  10.169
12653SOL    HW239799   5.198   7.966  10.165
12654SOL     OW39800   0.791  11.082   5.149
12654SOL    HW139801   0.825  11.079   5.238
12654SOL    HW239802   0.724  11.151   5.151
12655SOL     OW39803  14.623   5.441   1.726
12655SOL    HW139804  14.683   5.506   1.763
12655SOL    HW239805  14.621   5.371   1.790
12656SOL     OW39806   2.924   3.975   6.380
12656SOL    HW139807   2.936   3.966   6.286
12656SOL    HW239808   2.950   3.889   6.416
12657SOL     OW39809  11.891  13.669   6.114
12657SOL    HW139810  11.840  13.589   6.107
12657SOL    HW239811  11.829  13.735   6.145
12658SOL     OW39812   1.014  11.937   1.276
12658SOL    HW139813   1.052  12.022   1.298
12658SOL    HW239814   1.054  11.913   1.193
12659SOL     OW39815   0.596   9.063  12.556
12659SOL    HW139816   0.563   9.127  12.494
12659SOL    HW239817   0.622   8.988  12.503
12660SOL     OW39818   2.392  11.612  12.346
12660SOL    HW139819   2.431  11.596  12.432
12660SOL    HW239820   2.309  11.655  12.364
12661SOL     OW39821   1.872   3.181   4.216
12661SOL    HW139822   1.926   3.255   4.243
12661SOL    HW239823   1.933   3.121   4.174
12662SOL     OW39824   3.594   5.474  11.692
12662SOL    HW139825   3.657   5.513  11.631
12662SOL    HW239826   3.579   5.542  11.757
12663SOL     OW39827  10.883   0.456   5.425
12663SOL    HW139828  10.959   0.435   5.371
12663SOL    HW239829  10.910   0.530   5.478
12664SOL     OW39830   5.637   6.148   3.718
12664SOL    HW139831   5.567   6.103   3.672
12664SOL    HW239832   5.713   6.139   3.661
12665SOL     OW39833   0.849   0.273   7.661
12665SOL    HW139834   0.863   0.178   7.661
12665SOL    HW239835   0.799   0.289   7.581
12666SOL     OW39836   0.768   6.442   9.533
12666SOL    HW139837   0.681   6.440   9.491
12666SOL    HW239838   0.815   6.510   9.484
12667SOL     OW39839  14.519  10.100   8.888
12667SOL    HW139840  14.481  10.115   8.975
12667SOL    HW239841  14.613  10.098   8.904
12668SOL     OW39842  14.326   3.317   7.999
12668SOL    HW139843  14.354   3.227   8.016
12668SOL    HW239844  14.405   3.361   7.968
12669SOL     OW39845   1.721   8.302   5.801
12669SOL    HW139846   1.802   8.292   5.749
12669SOL    HW239847   1.751   8.305   5.892
12670SOL     OW39848   3.083   2.111   1.356
12670SOL    HW139849   3.172   2.075   1.358
12670SOL    HW239850   3.073   2.146   1.268
12671SOL     OW39851  10.782  10.272   9.896
12671SOL    HW139852  10.861  10.308   9.936
12671SOL    HW239853  10.724  10.253   9.970
12672SOL     OW39854   0.452   1.433  13.632
12672SOL    HW139855   0.458   1.522  13.598
12672SOL    HW239856   0.358   1.418  13.642
12673SOL     OW39857   9.359   3.313   2.785
12673SOL    HW139858   9.315   3.252   2.844
12673SOL    HW239859   9.447   3.277   2.774
12674SOL     OW39860   5.946  11.907   3.415
12674SOL    HW139861   5.888  11.873   3.484
12674SOL    HW239862   5.891  11.967   3.365
12675SOL     OW39863   9.404   6.153   3.035
12675SOL    HW139864   9.377   6.229   2.983
12675SOL    HW239865   9.404   6.080   2.974
12676SOL     OW39866  14.528   2.073   9.254
12676SOL    HW139867  14.498   2.011   9.321
12676SOL    HW239868  14.525   2.024   9.172
12677SOL     OW39869  13.805   8.764   3.408
12677SOL    HW139870  13.803   8.693   3.344
12677SOL    HW239871  13.893   8.761   3.445
12678SOL     OW39872   1.561   6.977  10.047
12678SOL    HW139873   1.486   6.919  10.060
12678SOL    HW239874   1.532   7.039   9.981
12679SOL     OW39875  12.924   5.950  10.733
12679SOL    HW139876  12.909   5.964  10.827
12679SOL    HW239877  13.019   5.944  10.725
12680SOL     OW39878   6.983  11.868   1.992
12680SOL    HW139879   6.974  11.776   1.966
12680SOL    HW239880   6.960  11.869   2.085
12681SOL     OW39881  10.100  14.025   3.319
12681SOL    HW139882  10.184  13.987   3.293
12681SOL    HW239883  10.035  13.960   3.291
12682SOL     OW39884  10.799  12.179  12.233
12682SOL    HW139885  10.791  12.265  12.275
12682SOL    HW239886  10.870  12.189  12.170
12683SOL     OW39887   3.798  10.119   7.563
12683SOL    HW139888   3.794  10.135   7.657
12683SOL    HW239889   3.724  10.062   7.545
12684SOL     OW39890   1.642   6.073  11.160
12684SOL    HW139891   1.602   6.049  11.076
12684SOL    HW239892   1.695   6.150  11.141
12685SOL     OW39893   7.753  14.796   6.778
12685SOL    HW139894   7.691  14.802   6.705
12685SOL    HW239895   7.705  14.830   6.854
12686SOL     OW39896  10.935   4.483   9.429
12686SOL    HW139897  10.907   4.506   9.517
12686SOL    HW239898  10.941   4.568   9.383
12687SOL     OW39899   2.669   9.899   0.097
12687SOL    HW139900   2.611   9.930   0.027
12687SOL    HW239901   2.747   9.954   0.089
12688SOL     OW39902   2.801  13.604  10.134
12688SOL    HW139903   2.813  13.679  10.075
12688SOL    HW239904   2.746  13.638  10.205
12689SOL     OW39905   8.881   4.691   0.975
12689SOL    HW139906   8.817   4.623   0.959
12689SOL    HW239907   8.862   4.759   0.910
12690SOL     OW39908   6.756   8.631   8.064
12690SOL    HW139909   6.810   8.615   8.142
12690SOL    HW239910   6.674   8.665   8.098
12691SOL     OW39911   2.031   0.886   4.026
12691SOL    HW139912   2.035   0.948   3.954
12691SOL    HW239913   2.098   0.916   4.088
12692SOL     OW39914   6.929  14.688   5.280
12692SOL    HW139915   6.873  14.631   5.334
12692SOL    HW239916   6.965  14.629   5.214
12693SOL     OW39917   6.525   8.694   0.877
12693SOL    HW139918   6.525   8.787   0.896
12693SOL    HW239919   6.502   8.652   0.961
12694SOL     OW39920   2.628  13.944   1.200
12694SOL    HW139921   2.713  13.925   1.239
12694SOL    HW239922   2.646  13.952   1.106
12695SOL     OW39923   1.540   7.336   9.497
12695SOL    HW139924   1.634   7.328   9.485
12695SOL    HW239925   1.508   7.245   9.496
12696SOL     OW39926   8.481  11.429  12.378
12696SOL    HW139927   8.419  11.432  12.451
12696SOL    HW239928   8.560  11.389  12.414
12697SOL     OW39929   3.891   7.765   6.144
12697SOL    HW139930   3.825   7.732   6.205
12697SOL    HW239931   3.969   7.776   6.198
12698SOL     OW39932   4.758   1.712  14.099
12698SOL    HW139933   4.714   1.638  14.056
12698SOL    HW239934   4.690   1.753  14.152
12699SOL     OW39935  13.829  14.785  12.407
12699SOL    HW139936  13.789  14.777  12.493
12699SOL    HW239937  13.798  14.710  12.358
12700SOL     OW39938  13.738   2.736  12.950
12700SOL    HW139939  13.705   2.712  12.863
12700SOL    HW239940  13.762   2.828  12.941
12701SOL     OW39941   6.902   5.255  11.450
12701SOL    HW139942   6.824   5.223  11.404
12701SOL    HW239943   6.870   5.323  11.508
12702SOL     OW39944   1.177   3.328  13.347
12702SOL    HW139945   1.175   3.250  13.402
12702SOL    HW239946   1.162   3.295  13.258
12703SOL     OW39947  10.988   1.166   4.466
12703SOL    HW139948  11.027   1.087   4.504
12703SOL    HW239949  10.894   1.147   4.462
12704SOL     OW39950   6.172  14.311   5.771
12704SOL    HW139951   6.229  14.382   5.802
12704SOL    HW239952   6.216  14.231   5.801
12705SOL     OW39953  10.183  13.008  11.747
12705SOL    HW139954  10.092  13.038  11.743
12705SOL    HW239955  10.186  12.934  11.687
12706SOL     OW39956   0.158  12.725   6.900
12706SOL    HW139957   0.166  12.800   6.959
12706SOL    HW239958   0.069  12.733   6.864
12707SOL     OW39959  10.248  12.282   5.581
12707SOL    HW139960  10.204  12.248   5.658
12707SOL    HW239961  10.282  12.205   5.536
12708SOL     OW39962   2.358   7.150   6.914
12708SOL    HW139963   2.341   7.062   6.880
12708SOL    HW239964   2.326   7.147   7.004
12709SOL     OW39965   8.471   3.131   4.168
12709SOL    HW139966   8.391   3.119   4.117
12709SOL    HW239967   8.460   3.074   4.244
12710SOL     OW39968   3.563  13.134   3.353
12710SOL    HW139969   3.524  13.072   3.291
12710SOL    HW239970   3.632  13.178   3.303
12711SOL     OW39971   8.802  10.799   8.397
12711SOL    HW139972   8.734  10.799   8.465
12711SOL    HW239973   8.797  10.887   8.359
12712SOL     OW39974   2.020   8.147  14.279
12712SOL    HW139975   1.929   8.143  14.309
12712SOL    HW239976   2.067   8.083  14.332
12713SOL     OW39977   3.439   5.091   1.865
12713SOL    HW139978   3.371   5.156   1.844
12713SOL    HW239979   3.506   5.141   1.913
12714SOL     OW39980   2.499  12.881  11.335
12714SOL    HW139981   2.458  12.945  11.277
12714SOL    HW239982   2.591  12.880  11.308
12715SOL     OW39983  10.425  14.148   2.736
12715SOL    HW139984  10.395  14.203   2.663
12715SOL    HW239985  10.350  14.145   2.796
12716SOL     OW39986   1.300  14.559   8.545
12716SOL    HW139987   1.279  14.518   8.629
12716SOL    HW239988   1.243  14.515   8.482
12717SOL     OW39989  14.562   3.020   6.983
12717SOL    HW139990  14.568   3.071   6.902
12717SOL    HW239991  14.644   3.037   7.028
12718SOL     OW39992   1.868   7.091   0.998
12718SOL    HW139993   1.884   7.035   0.922
12718SOL    HW239994   1.794   7.050   1.043
12719SOL     OW39995  10.017   5.114   6.245
12719SOL    HW139996   9.945   5.163   6.205
12719SOL    HW239997  10.029   5.038   6.188
12720SOL     OW39998   6.411   5.340   1.058
12720SOL    HW139999   6.421   5.262   1.003
12720SOL    HW240000   6.316   5.348   1.071
12721SOL     OW40001   0.785  14.215   7.978
12721SOL    HW140002   0.726  14.173   8.040
12721SOL    HW240003   0.748  14.196   7.892
12722SOL     OW40004   3.210   2.082   9.420
12722SOL    HW140005   3.290   2.081   9.367
12722SOL    HW240006   3.165   2.001   9.396
12723SOL     OW40007  14.809   3.028  13.057
12723SOL    HW140008  14.864   3.102  13.078
12723SOL    HW240009  14.867   2.967  13.011
12724SOL     OW40010  14.400   2.265   1.901
12724SOL    HW140011  14.391   2.172   1.924
12724SOL    HW240012  14.407   2.310   1.985
12725SOL     OW40013   2.855  13.854   2.000
12725SOL    HW140014   2.783  13.891   1.949
12725SOL    HW240015   2.850  13.760   1.984
12726SOL     OW40016  10.576  12.022   7.891
12726SOL    HW140017  10.671  12.010   7.894
12726SOL    HW240018  10.551  12.042   7.981
12727SOL     OW40019   3.884   6.364   3.391
12727SOL    HW140020   3.798   6.355   3.349
12727SOL    HW240021   3.864   6.378   3.484
12728SOL     OW40022   2.759  13.847  10.494
12728SOL    HW140023   2.708  13.802  10.426
12728SOL    HW240024   2.709  13.928  10.510
12729SOL     OW40025   0.374   8.641   1.078
12729SOL    HW140026   0.410   8.672   0.994
12729SOL    HW240027   0.451   8.618   1.129
12730SOL     OW40028   3.855   9.599   1.251
12730SOL    HW140029   3.792   9.650   1.200
12730SOL    HW240030   3.814   9.512   1.260
12731SOL     OW40031   3.134   9.953   4.887
12731SOL    HW140032   3.115  10.004   4.966
12731SOL    HW240033   3.214   9.992   4.852
12732SOL     OW40034  14.042  12.898  11.696
12732SOL    HW140035  14.093  12.817  11.687
12732SOL    HW240036  14.107  12.966  11.712
12733SOL     OW40037  11.305   1.956   1.697
12733SOL    HW140038  11.352   1.975   1.778
12733SOL    HW240039  11.372   1.925   1.637
12734SOL     OW40040   8.993   6.703   5.948
12734SOL    HW140041   9.053   6.682   5.876
12734SOL    HW240042   9.032   6.780   5.989
12735SOL     OW40043   0.966   3.940  14.231
12735SOL    HW140044   0.996   3.851  14.251
12735SOL    HW240045   0.890   3.928  14.175
12736SOL     OW40046   4.488   6.282   6.812
12736SOL    HW140047   4.455   6.261   6.725
12736SOL    HW240048   4.413   6.271   6.870
12737SOL     OW40049  13.618  14.461   0.344
12737SOL    HW140050  13.568  14.401   0.290
12737SOL    HW240051  13.592  14.548   0.315
12738SOL     OW40052  13.963   7.453   2.626
12738SOL    HW140053  14.024   7.414   2.563
12738SOL    HW240054  13.877   7.442   2.584
12739SOL     OW40055   8.432   4.040  14.016
12739SOL    HW140056   8.501   4.085  14.066
12739SOL    HW240057   8.404   4.104  13.951
12740SOL     OW40058   5.351  11.810   7.869
12740SOL    HW140059   5.293  11.885   7.881
12740SOL    HW240060   5.296  11.744   7.827
12741SOL     OW40061   5.286  12.435   9.304
12741SOL    HW140062   5.236  12.358   9.276
12741SOL    HW240063   5.377  12.415   9.281
12742SOL     OW40064  12.548   3.018   7.445
12742SOL    HW140065  12.492   3.081   7.400
12742SOL    HW240066  12.613   3.071   7.490
12743SOL     OW40067   7.153  13.442   4.865
12743SOL    HW140068   7.114  13.512   4.918
12743SOL    HW240069   7.088  13.372   4.866
12744SOL     OW40070   5.157  13.245   4.117
12744SOL    HW140071   5.110  13.289   4.046
12744SOL    HW240072   5.090  13.229   4.184
12745SOL     OW40073  13.351  10.309   9.461
12745SOL    HW140074  13.322  10.365   9.389
12745SOL    HW240075  13.286  10.322   9.529
12746SOL     OW40076   9.371   4.271   0.535
12746SOL    HW140077   9.359   4.176   0.531
12746SOL    HW240078   9.338   4.296   0.621
12747SOL     OW40079   8.123  12.448   3.272
12747SOL    HW140080   8.051  12.485   3.323
12747SOL    HW240081   8.083  12.418   3.191
12748SOL     OW40082   0.120   9.512   7.042
12748SOL    HW140083   0.135   9.443   6.977
12748SOL    HW240084   0.061   9.573   6.998
12749SOL     OW40085   9.501  10.321  13.686
12749SOL    HW140086   9.475  10.248  13.742
12749SOL    HW240087   9.476  10.295  13.598
12750SOL     OW40088   8.322  14.358   3.424
12750SOL    HW140089   8.337  14.299   3.498
12750SOL    HW240090   8.409  14.376   3.389
12751SOL     OW40091  14.055   2.381   7.270
12751SOL    HW140092  14.004   2.318   7.220
12751SOL    HW240093  14.035   2.361   7.362
12752SOL     OW40094  10.215   4.220   4.829
12752SOL    HW140095  10.262   4.139   4.848
12752SOL    HW240096  10.124   4.201   4.852
12753SOL     OW40097   1.436   3.622   6.474
12753SOL    HW140098   1.523   3.598   6.508
12753SOL    HW240099   1.453   3.686   6.406
12754SOL     OW40100   8.650   3.226  13.865
12754SOL    HW140101   8.743   3.240  13.880
12754SOL    HW240102   8.606   3.282  13.929
12755SOL     OW40103  14.436  11.853  13.999
12755SOL    HW140104  14.426  11.829  13.907
12755SOL    HW240105  14.452  11.770  14.043
12756SOL     OW40106   4.126  12.103  11.087
12756SOL    HW140107   4.209  12.065  11.116
12756SOL    HW240108   4.061  12.067  11.147
12757SOL     OW40109   1.550   0.334   1.749
12757SOL    HW140110   1.471   0.388   1.759
12757SOL    HW240111   1.518   0.244   1.753
12758SOL     OW40112   6.510   8.515  11.789
12758SOL    HW140113   6.443   8.464  11.834
12758SOL    HW240114   6.584   8.515  11.850
12759SOL     OW40115   0.980   3.786   1.394
12759SOL    HW140116   0.964   3.875   1.426
12759SOL    HW240117   0.959   3.729   1.468
12760SOL     OW40118   4.931   2.229  12.301
12760SOL    HW140119   5.024   2.248  12.315
12760SOL    HW240120   4.907   2.172  12.373
12761SOL     OW40121   1.221   6.001   8.662
12761SOL    HW140122   1.160   6.069   8.691
12761SOL    HW240123   1.306   6.044   8.660
12762SOL     OW40124  12.493   8.816  10.335
12762SOL    HW140125  12.561   8.793  10.272
12762SOL    HW240126  12.464   8.903  10.308
12763SOL     OW40127   6.600   5.680   5.075
12763SOL    HW140128   6.664   5.730   5.126
12763SOL    HW240129   6.537   5.746   5.045
12764SOL     OW40130  10.673  10.876  13.859
12764SOL    HW140131  10.656  10.811  13.927
12764SOL    HW240132  10.642  10.836  13.778
12765SOL     OW40133   0.550   1.852   2.465
12765SOL    HW140134   0.603   1.772   2.472
12765SOL    HW240135   0.604   1.920   2.504
12766SOL     OW40136   7.510  12.228   5.475
12766SOL    HW140137   7.538  12.146   5.433
12766SOL    HW240138   7.572  12.293   5.445
12767SOL     OW40139   2.827   8.132  13.364
12767SOL    HW140140   2.899   8.080  13.327
12767SOL    HW240141   2.854   8.151  13.453
12768SOL     OW40142   4.834  12.530   0.706
12768SOL    HW140143   4.922  12.500   0.684
12768SOL    HW240144   4.807  12.581   0.630
12769SOL     OW40145   4.395  10.054   2.661
12769SOL    HW140146   4.299  10.050   2.665
12769SOL    HW240147   4.423   9.965   2.684
12770SOL     OW40148   6.674   1.239  13.317
12770SOL    HW140149   6.596   1.206  13.272
12770SOL    HW240150   6.727   1.280  13.249
12771SOL     OW40151   4.583  13.702   1.145
12771SOL    HW140152   4.663  13.656   1.170
12771SOL    HW240153   4.576  13.688   1.051
12772SOL     OW40154  12.213   9.439  10.247
12772SOL    HW140155  12.275   9.404  10.183
12772SOL    HW240156  12.129   9.438  10.201
12773SOL     OW40157  13.602   6.377   3.219
12773SOL    HW140158  13.680   6.430   3.205
12773SOL    HW240159  13.635   6.291   3.246
12774SOL     OW40160   8.175   5.400   8.858
12774SOL    HW140161   8.215   5.414   8.943
12774SOL    HW240162   8.121   5.478   8.843
12775SOL     OW40163  12.940  10.292  12.896
12775SOL    HW140164  12.896  10.331  12.820
12775SOL    HW240165  12.971  10.367  12.946
12776SOL     OW40166   3.948   4.924   8.287
12776SOL    HW140167   3.894   4.961   8.216
12776SOL    HW240168   3.895   4.938   8.366
12777SOL     OW40169  13.082   0.289   0.967
12777SOL    HW140170  13.029   0.368   0.975
12777SOL    HW240171  13.108   0.268   1.057
12778SOL     OW40172   5.245   7.091  13.649
12778SOL    HW140173   5.316   7.029  13.628
12778SOL    HW240174   5.280   7.177  13.626
12779SOL     OW40175   0.558  12.018   8.243
12779SOL    HW140176   0.478  12.051   8.283
12779SOL    HW240177   0.551  12.042   8.151
12780SOL     OW40178  11.075   0.294   7.330
12780SOL    HW140179  11.078   0.271   7.423
12780SOL    HW240180  11.146   0.357   7.319
12781SOL     OW40181  14.374  14.592  12.018
12781SOL    HW140182  14.354  14.541  11.940
12781SOL    HW240183  14.454  14.551  12.053
12782SOL     OW40184   5.728  14.782   8.755
12782SOL    HW140185   5.704  14.815   8.669
12782SOL    HW240186   5.763  14.694   8.737
12783SOL     OW40187   7.826   3.756   5.586
12783SOL    HW140188   7.857   3.740   5.496
12783SOL    HW240189   7.772   3.680   5.606
12784SOL     OW40190   2.948  13.891   1.252
12784SOL    HW140191   2.996  13.846   1.322
12784SOL    HW240192   2.934  13.979   1.287
12785SOL     OW40193   3.944   3.652   3.107
12785SOL    HW140194   3.950   3.710   3.183
12785SOL    HW240195   4.015   3.681   3.049
12786SOL     OW40196  13.816  12.223  11.493
12786SOL    HW140197  13.792  12.173  11.571
12786SOL    HW240198  13.912  12.221  11.491
12787SOL     OW40199   3.842   0.961   7.964
12787SOL    HW140200   3.886   0.883   7.931
12787SOL    HW240201   3.906   1.031   7.956
12788SOL     OW40202   6.520   8.959  13.616
12788SOL    HW140203   6.519   8.983  13.523
12788SOL    HW240204   6.584   9.019  13.655
12789SOL     OW40205   8.378  13.639  11.554
12789SOL    HW140206   8.350  13.613  11.642
12789SOL    HW240207   8.463  13.596  11.542
12790SOL     OW40208   6.398   1.674   8.110
12790SOL    HW140209   6.303   1.673   8.099
12790SOL    HW240210   6.413   1.728   8.187
12791SOL     OW40211   6.173   5.842  11.386
12791SOL    HW140212   6.160   5.827  11.479
12791SOL    HW240213   6.264   5.870  11.379
12792SOL     OW40214  10.399  14.546   9.666
12792SOL    HW140215  10.445  14.469   9.699
12792SOL    HW240216  10.309  14.516   9.651
12793SOL     OW40217  12.956   3.590   8.170
12793SOL    HW140218  13.047   3.613   8.192
12793SOL    HW240219  12.924   3.666   8.121
12794SOL     OW40220   0.683  10.031   3.251
12794SOL    HW140221   0.631   9.975   3.193
12794SOL    HW240222   0.657  10.005   3.339
12795SOL     OW40223  12.664   1.321   6.805
12795SOL    HW140224  12.699   1.397   6.853
12795SOL    HW240225  12.575   1.347   6.782
12796SOL     OW40226  14.069   7.053   8.282
12796SOL    HW140227  13.975   7.052   8.299
12796SOL    HW240228  14.103   7.126   8.334
12797SOL     OW40229   2.218   5.643   8.830
12797SOL    HW140230   2.290   5.657   8.768
12797SOL    HW240231   2.178   5.561   8.801
12798SOL     OW40232  11.327   7.135   9.145
12798SOL    HW140233  11.232   7.125   9.135
12798SOL    HW240234  11.347   7.217   9.101
12799SOL     OW40235   4.743   8.898   1.477
12799SOL    HW140236   4.674   8.848   1.434
12799SOL    HW240237   4.742   8.983   1.433
12800SOL     OW40238  14.094   2.507  10.391
12800SOL    HW140239  14.159   2.503  10.460
12800SOL    HW240240  14.131   2.454  10.320
12801SOL     OW40241   5.188  10.596  10.288
12801SOL    HW140242   5.116  10.612  10.349
12801SOL    HW240243   5.154  10.529  10.228
12802SOL     OW40244   5.531   9.812  12.813
12802SOL    HW140245   5.517   9.859  12.895
12802SOL    HW240246   5.615   9.768  12.824
12803SOL     OW40247   9.273   1.034  13.098
12803SOL    HW140248   9.209   1.101  13.123
12803SOL    HW240249   9.227   0.980  13.033
12804SOL     OW40250   9.738  11.331   3.289
12804SOL    HW140251   9.737  11.262   3.356
12804SOL    HW240252   9.830  11.342   3.268
12805SOL     OW40253   9.137  13.066   0.460
12805SOL    HW140254   9.107  12.976   0.449
12805SOL    HW240255   9.230  13.063   0.439
12806SOL     OW40256  13.952   5.373   0.005
12806SOL    HW140257  13.866   5.363  14.842
12806SOL    HW240258  14.013   5.387  14.812
12807SOL     OW40259   7.229   9.259  12.105
12807SOL    HW140260   7.273   9.302  12.179
12807SOL    HW240261   7.186   9.183  12.144
12808SOL     OW40262   6.877   4.082  14.181
12808SOL    HW140263   6.947   4.104  14.119
12808SOL    HW240264   6.919   4.085  14.267
12809SOL     OW40265   1.966   8.191  12.752
12809SOL    HW140266   2.013   8.268  12.786
12809SOL    HW240267   1.890   8.228  12.706
12810SOL     OW40268   1.209  11.294   5.782
12810SOL    HW140269   1.141  11.228   5.787
12810SOL    HW240270   1.162  11.377   5.778
12811SOL     OW40271   4.482   6.879   6.613
12811SOL    HW140272   4.554   6.863   6.551
12811SOL    HW240273   4.517   6.941   6.676
12812SOL     OW40274  11.038   5.867  10.022
12812SOL    HW140275  11.131   5.875  10.045
12812SOL    HW240276  11.008   5.957  10.010
12813SOL     OW40277   0.544   2.423   2.157
12813SOL    HW140278   0.467   2.453   2.205
12813SOL    HW240279   0.511   2.354   2.099
12814SOL     OW40280   3.977  11.792   5.801
12814SOL    HW140281   3.993  11.881   5.833
12814SOL    HW240282   4.032  11.737   5.857
12815SOL     OW40283  10.361  11.294   3.963
12815SOL    HW140284  10.285  11.244   3.995
12815SOL    HW240285  10.429  11.280   4.029
12816SOL     OW40286   7.822  10.954   8.481
12816SOL    HW140287   7.752  10.890   8.488
12816SOL    HW240288   7.895  10.915   8.530
12817SOL     OW40289   3.529  13.544   6.501
12817SOL    HW140290   3.618  13.515   6.520
12817SOL    HW240291   3.483  13.464   6.473
12818SOL     OW40292   3.388  12.584   1.432
12818SOL    HW140293   3.427  12.668   1.459
12818SOL    HW240294   3.434  12.563   1.350
12819SOL     OW40295   9.144  11.989   3.104
12819SOL    HW140296   9.072  11.940   3.144
12819SOL    HW240297   9.142  11.964   3.012
12820SOL     OW40298   4.286   6.633   2.586
12820SOL    HW140299   4.259   6.722   2.566
12820SOL    HW240300   4.355   6.614   2.522
12821SOL     OW40301  11.924   0.026   4.466
12821SOL    HW140302  11.946   0.087   4.536
12821SOL    HW240303  11.833   0.045   4.445
12822SOL     OW40304   6.527   3.259   1.004
12822SOL    HW140305   6.604   3.307   1.035
12822SOL    HW240306   6.507   3.298   0.919
12823SOL     OW40307   0.128   3.906   6.454
12823SOL    HW140308   0.167   3.821   6.473
12823SOL    HW240309   0.146   3.921   6.361
12824SOL     OW40310   0.636   9.837  12.746
12824SOL    HW140311   0.589   9.848  12.663
12824SOL    HW240312   0.567   9.835  12.812
12825SOL     OW40313   2.741  11.885  14.683
12825SOL    HW140314   2.734  11.790  14.671
12825SOL    HW240315   2.811  11.912  14.623
12826SOL     OW40316   9.534  10.466   6.437
12826SOL    HW140317   9.597  10.531   6.466
12826SOL    HW240318   9.569  10.383   6.467
12827SOL     OW40319   2.277  13.682   0.604
12827SOL    HW140320   2.299  13.670   0.512
12827SOL    HW240321   2.244  13.772   0.609
12828SOL     OW40322  12.727   3.798   2.669
12828SOL    HW140323  12.801   3.781   2.610
12828SOL    HW240324  12.728   3.892   2.683
12829SOL     OW40325   6.021  14.854   1.379
12829SOL    HW140326   6.001   0.019   1.296
12829SOL    HW240327   6.072   0.039   1.429
12830SOL     OW40328   8.312   4.296  10.648
12830SOL    HW140329   8.352   4.329  10.729
12830SOL    HW240330   8.334   4.363  10.582
12831SOL     OW40331   1.532  13.687   0.617
12831SOL    HW140332   1.548  13.640   0.699
12831SOL    HW240333   1.463  13.637   0.574
12832SOL     OW40334   5.768   0.981  11.448
12832SOL    HW140335   5.761   1.076  11.447
12832SOL    HW240336   5.859   0.964  11.472
12833SOL     OW40337   8.051   8.820  11.327
12833SOL    HW140338   7.966   8.777  11.337
12833SOL    HW240339   8.043   8.871  11.247
12834SOL     OW40340   4.954   2.109  14.638
12834SOL    HW140341   4.880   2.167  14.651
12834SOL    HW240342   5.028   2.168  14.621
12835SOL     OW40343  10.558   8.863   7.196
12835SOL    HW140344  10.524   8.894   7.280
12835SOL    HW240345  10.620   8.930   7.168
12836SOL     OW40346   3.150   6.819   3.115
12836SOL    HW140347   3.212   6.878   3.156
12836SOL    HW240348   3.082   6.807   3.181
12837SOL     OW40349   4.210   8.929   8.082
12837SOL    HW140350   4.129   8.972   8.053
12837SOL    HW240351   4.263   8.923   8.002
12838SOL     OW40352  14.283  10.047   1.873
12838SOL    HW140353  14.261  10.082   1.959
12838SOL    HW240354  14.208   9.992   1.850
12839SOL     OW40355  12.398   9.361  14.839
12839SOL    HW140356  12.356   9.376  14.754
12839SOL    HW240357  12.327   9.366   0.023
12840SOL     OW40358   3.636   5.550   5.395
12840SOL    HW140359   3.692   5.498   5.338
12840SOL    HW240360   3.692   5.620   5.428
12841SOL     OW40361   0.681   6.804   6.617
12841SOL    HW140362   0.611   6.739   6.611
12841SOL    HW240363   0.693   6.834   6.526
12842SOL     OW40364   3.594   9.311  11.123
12842SOL    HW140365   3.554   9.278  11.203
12842SOL    HW240366   3.626   9.232  11.078
12843SOL     OW40367   1.509   5.302   8.410
12843SOL    HW140368   1.460   5.230   8.370
12843SOL    HW240369   1.456   5.380   8.392
12844SOL     OW40370   5.637   2.097   6.011
12844SOL    HW140371   5.624   2.182   6.054
12844SOL    HW240372   5.703   2.053   6.065
12845SOL     OW40373   9.899  13.550   9.337
12845SOL    HW140374   9.960  13.605   9.385
12845SOL    HW240375   9.908  13.577   9.245
12846SOL     OW40376   0.071   3.717   5.039
12846SOL    HW140377   0.052   3.679   5.125
12846SOL    HW240378   0.108   3.803   5.057
12847SOL     OW40379   5.879   4.480   3.411
12847SOL    HW140380   5.847   4.567   3.437
12847SOL    HW240381   5.945   4.458   3.476
12848SOL     OW40382  10.171   9.403   9.455
12848SOL    HW140383  10.195   9.370   9.368
12848SOL    HW240384  10.108   9.473   9.436
12849SOL     OW40385  10.555   5.377   1.567
12849SOL    HW140386  10.606   5.396   1.646
12849SOL    HW240387  10.518   5.461   1.541
12850SOL     OW40388   6.621   4.010   1.676
12850SOL    HW140389   6.649   4.094   1.639
12850SOL    HW240390   6.653   4.011   1.766
12851SOL     OW40391   4.892   1.468   6.158
12851SOL    HW140392   4.849   1.383   6.171
12851SOL    HW240393   4.950   1.477   6.234
12852SOL     OW40394  13.663  12.512  14.768
12852SOL    HW140395  13.652  12.427  14.724
12852SOL    HW240396  13.729  12.557  14.715
12853SOL     OW40397   2.742   7.617   6.421
12853SOL    HW140398   2.671   7.638   6.360
12853SOL    HW240399   2.806   7.570   6.367
12854SOL     OW40400   1.745   7.375  11.704
12854SOL    HW140401   1.725   7.439  11.772
12854SOL    HW240402   1.801   7.423  11.643
12855SOL     OW40403   0.660   7.466   7.818
12855SOL    HW140404   0.751   7.441   7.800
12855SOL    HW240405   0.655   7.558   7.791
12856SOL     OW40406   3.709   3.968  12.989
12856SOL    HW140407   3.615   3.966  12.971
12856SOL    HW240408   3.718   4.026  13.064
12857SOL     OW40409   3.863   6.426  10.120
12857SOL    HW140410   3.824   6.421  10.033
12857SOL    HW240411   3.902   6.340  10.134
12858SOL     OW40412   9.714   6.863  12.074
12858SOL    HW140413   9.717   6.910  11.991
12858SOL    HW240414   9.764   6.917  12.135
12859SOL     OW40415   2.529   5.076  11.629
12859SOL    HW140416   2.487   5.125  11.699
12859SOL    HW240417   2.536   4.986  11.663
12860SOL     OW40418   9.689   3.582   9.545
12860SOL    HW140419   9.742   3.611   9.471
12860SOL    HW240420   9.599   3.602   9.520
12861SOL     OW40421  11.014   1.060   7.621
12861SOL    HW140422  10.946   1.007   7.580
12861SOL    HW240423  10.968   1.138   7.653
12862SOL     OW40424   2.340  11.036  10.932
12862SOL    HW140425   2.406  11.100  10.961
12862SOL    HW240426   2.278  11.031  11.005
12863SOL     OW40427   2.164   2.862   6.784
12863SOL    HW140428   2.189   2.809   6.860
12863SOL    HW240429   2.221   2.939   6.789
12864SOL     OW40430  10.550   9.259   9.489
12864SOL    HW140431  10.552   9.263   9.394
12864SOL    HW240432  10.465   9.294   9.513
12865SOL     OW40433  10.812  13.376  12.244
12865SOL    HW140434  10.865  13.297  12.231
12865SOL    HW240435  10.725  13.351  12.214
12866SOL     OW40436   4.413   4.965   5.671
12866SOL    HW140437   4.350   5.010   5.615
12866SOL    HW240438   4.479   4.931   5.610
12867SOL     OW40439   0.078  11.270   4.014
12867SOL    HW140440   0.033  11.304   3.937
12867SOL    HW240441   0.154  11.328   4.024
12868SOL     OW40442   2.459  13.836   7.033
12868SOL    HW140443   2.485  13.896   6.963
12868SOL    HW240444   2.540  13.790   7.056
12869SOL     OW40445  10.709   6.095   4.299
12869SOL    HW140446  10.646   6.023   4.294
12869SOL    HW240447  10.773   6.075   4.231
12870SOL     OW40448  10.156  12.850   4.533
12870SOL    HW140449  10.163  12.887   4.445
12870SOL    HW240450  10.062  12.851   4.552
12871SOL     OW40451  12.349   7.815   9.602
12871SOL    HW140452  12.285   7.799   9.533
12871SOL    HW240453  12.372   7.729   9.636
12872SOL     OW40454   5.015   4.941  12.663
12872SOL    HW140455   5.013   4.938  12.758
12872SOL    HW240456   4.925   4.961  12.638
12873SOL     OW40457   3.785  13.388   9.915
12873SOL    HW140458   3.822  13.325   9.853
12873SOL    HW240459   3.785  13.342   9.999
12874SOL     OW40460  12.245   2.621   9.424
12874SOL    HW140461  12.321   2.619   9.482
12874SOL    HW240462  12.171   2.638   9.482
12875SOL     OW40463   1.911  10.628   2.127
12875SOL    HW140464   1.928  10.612   2.220
12875SOL    HW240465   1.904  10.541   2.089
12876SOL     OW40466  12.581  12.382   6.863
12876SOL    HW140467  12.599  12.296   6.826
12876SOL    HW240468  12.559  12.365   6.955
12877SOL     OW40469  14.181  10.991   4.045
12877SOL    HW140470  14.173  10.928   3.973
12877SOL    HW240471  14.208  11.073   4.004
12878SOL     OW40472  14.231   9.467   8.376
12878SOL    HW140473  14.291   9.533   8.340
12878SOL    HW240474  14.284   9.413   8.434
12879SOL     OW40475   7.232   3.496  10.401
12879SOL    HW140476   7.199   3.510  10.313
12879SOL    HW240477   7.270   3.408  10.399
12880SOL     OW40478   4.212  14.081   6.465
12880SOL    HW140479   4.142  14.113   6.522
12880SOL    HW240480   4.274  14.038   6.524
12881SOL     OW40481   1.316   6.249  13.575
12881SOL    HW140482   1.410   6.252  13.593
12881SOL    HW240483   1.302   6.161  13.541
12882SOL     OW40484  12.384   0.776   8.728
12882SOL    HW140485  12.475   0.758   8.752
12882SOL    HW240486  12.375   0.871   8.737
12883SOL     OW40487   4.860   9.547   1.289
12883SOL    HW140488   4.800   9.621   1.275
12883SOL    HW240489   4.803   9.472   1.303
12884SOL     OW40490   8.547   1.047   5.772
12884SOL    HW140491   8.632   1.022   5.736
12884SOL    HW240492   8.548   1.012   5.861
12885SOL     OW40493   1.825   0.371   1.208
12885SOL    HW140494   1.751   0.396   1.154
12885SOL    HW240495   1.894   0.433   1.185
12886SOL     OW40496   4.095  12.403   9.981
12886SOL    HW140497   4.077  12.493   9.955
12886SOL    HW240498   4.042  12.349   9.922
12887SOL     OW40499   6.528   0.847   6.143
12887SOL    HW140500   6.505   0.934   6.175
12887SOL    HW240501   6.540   0.859   6.049
12888SOL     OW40502  13.859   5.089  10.517
12888SOL    HW140503  13.899   5.170  10.549
12888SOL    HW240504  13.914   5.062  10.444
12889SOL     OW40505   1.976  14.181   1.840
12889SOL    HW140506   1.890  14.142   1.851
12889SOL    HW240507   1.989  14.234   1.918
12890SOL     OW40508   9.063   0.320   3.623
12890SOL    HW140509   9.091   0.353   3.709
12890SOL    HW240510   8.967   0.316   3.630
12891SOL     OW40511   2.634  10.691   8.609
12891SOL    HW140512   2.587  10.661   8.531
12891SOL    HW240513   2.721  10.714   8.578
12892SOL     OW40514   0.649   5.477  11.363
12892SOL    HW140515   0.613   5.390  11.344
12892SOL    HW240516   0.624   5.494  11.454
12893SOL     OW40517  14.627   1.802  12.352
12893SOL    HW140518  14.576   1.824  12.430
12893SOL    HW240519  14.580   1.845  12.280
12894SOL     OW40520   6.819  14.106  12.158
12894SOL    HW140521   6.840  14.141  12.245
12894SOL    HW240522   6.753  14.166  12.123
12895SOL     OW40523  11.263   5.040   1.008
12895SOL    HW140524  11.210   5.014   0.933
12895SOL    HW240525  11.238   5.131   1.025
12896SOL     OW40526  10.663   9.215  14.372
12896SOL    HW140527  10.700   9.303  14.362
12896SOL    HW240528  10.589   9.213  14.311
12897SOL     OW40529  10.274   4.421  11.179
12897SOL    HW140530  10.276   4.515  11.197
12897SOL    HW240531  10.366   4.397  11.168
12898SOL     OW40532   3.234   8.927   9.049
12898SOL    HW140533   3.286   8.846   9.052
12898SOL    HW240534   3.292   8.994   9.084
12899SOL     OW40535   5.118  14.469  10.507
12899SOL    HW140536   5.101  14.402  10.573
12899SOL    HW240537   5.119  14.421  10.424
12900SOL     OW40538   9.944  11.222   8.921
12900SOL    HW140539   9.864  11.273   8.909
12900SOL    HW240540  10.015  11.284   8.905
12901SOL     OW40541  13.357   2.158  10.484
12901SOL    HW140542  13.364   2.074  10.439
12901SOL    HW240543  13.280   2.200  10.445
12902SOL     OW40544   0.663   3.930   5.244
12902SOL    HW140545   0.753   3.929   5.211
12902SOL    HW240546   0.622   4.004   5.200
12903SOL     OW40547   3.782   5.813   7.898
12903SOL    HW140548   3.787   5.797   7.804
12903SOL    HW240549   3.704   5.767   7.927
12904SOL     OW40550   9.640   2.103   9.170
12904SOL    HW140551   9.645   2.178   9.111
12904SOL    HW240552   9.722   2.105   9.219
12905SOL     OW40553  11.292  12.044   7.276
12905SOL    HW140554  11.233  12.054   7.201
12905SOL    HW240555  11.258  12.106   7.341
12906SOL     OW40556  10.787   7.903  12.405
12906SOL    HW140557  10.832   7.943  12.480
12906SOL    HW240558  10.835   7.822  12.388
12907SOL     OW40559   5.539   8.629   0.808
12907SOL    HW140560   5.498   8.686   0.873
12907SOL    HW240561   5.629   8.621   0.838
12908SOL     OW40562   3.905  13.466   2.254
12908SOL    HW140563   3.920  13.371   2.248
12908SOL    HW240564   3.986  13.505   2.222
12909SOL     OW40565   0.949  14.353   8.806
12909SOL    HW140566   0.868  14.401   8.788
12909SOL    HW240567   0.922  14.283   8.865
12910SOL     OW40568   9.235   5.195   0.367
12910SOL    HW140569   9.301   5.171   0.301
12910SOL    HW240570   9.219   5.114   0.415
12911SOL     OW40571   2.188   5.298   3.820
12911SOL    HW140572   2.154   5.268   3.735
12911SOL    HW240573   2.214   5.218   3.864
12912SOL     OW40574   2.921  10.721  10.270
12912SOL    HW140575   2.932  10.771  10.190
12912SOL    HW240576   2.971  10.769  10.336
12913SOL     OW40577   6.833   3.284  11.008
12913SOL    HW140578   6.849   3.192  11.032
12913SOL    HW240579   6.743   3.284  10.975
12914SOL     OW40580  12.346   9.572   5.430
12914SOL    HW140581  12.402   9.641   5.395
12914SOL    HW240582  12.320   9.604   5.516
12915SOL     OW40583  14.568   5.108   3.248
12915SOL    HW140584  14.637   5.061   3.295
12915SOL    HW240585  14.489   5.056   3.262
12916SOL     OW40586  11.235  13.076   9.559
12916SOL    HW140587  11.196  13.163   9.573
12916SOL    HW240588  11.302  13.069   9.627
12917SOL     OW40589   1.364   7.933  11.073
12917SOL    HW140590   1.435   7.875  11.048
12917SOL    HW240591   1.350   7.917  11.166
12918SOL     OW40592  10.598   6.412   7.889
12918SOL    HW140593  10.613   6.484   7.951
12918SOL    HW240594  10.511   6.380   7.912
12919SOL     OW40595   5.604   6.296  11.873
12919SOL    HW140596   5.529   6.354  11.861
12919SOL    HW240597   5.665   6.322  11.804
12920SOL     OW40598  14.329  10.957   0.915
12920SOL    HW140599  14.404  10.900   0.934
12920SOL    HW240600  14.274  10.950   0.993
12921SOL     OW40601   1.596  14.373   4.876
12921SOL    HW140602   1.528  14.431   4.909
12921SOL    HW240603   1.585  14.292   4.926
12922SOL     OW40604   8.398   6.052  13.606
12922SOL    HW140605   8.354   6.062  13.690
12922SOL    HW240606   8.404   5.957  13.593
12923SOL     OW40607   4.733  11.240   1.150
12923SOL    HW140608   4.764  11.197   1.230
12923SOL    HW240609   4.810  11.242   1.094
12924SOL     OW40610  13.448  11.425   8.912
12924SOL    HW140611  13.422  11.420   9.004
12924SOL    HW240612  13.375  11.470   8.869
12925SOL     OW40613   8.381  10.663   4.547
12925SOL    HW140614   8.449  10.626   4.602
12925SOL    HW240615   8.422  10.675   4.461
12926SOL     OW40616   1.751  11.107   0.399
12926SOL    HW140617   1.681  11.165   0.430
12926SOL    HW240618   1.705  11.031   0.363
12927SOL     OW40619   1.520   7.418   5.762
12927SOL    HW140620   1.508   7.444   5.853
12927SOL    HW240621   1.515   7.500   5.713
12928SOL     OW40622   2.795  11.969  13.088
12928SOL    HW140623   2.882  12.005  13.073
12928SOL    HW240624   2.810  11.897  13.151
12929SOL     OW40625   9.007  13.757  10.959
12929SOL    HW140626   9.047  13.816  11.024
12929SOL    HW240627   9.076  13.695  10.937
12930SOL     OW40628  14.542  13.050  12.910
12930SOL    HW140629  14.612  13.113  12.928
12930SOL    HW240630  14.583  12.964  12.917
12931SOL     OW40631   0.350   9.460   2.959
12931SOL    HW140632   0.292   9.508   2.900
12931SOL    HW240633   0.331   9.368   2.942
12932SOL     OW40634  14.504  13.006   2.502
12932SOL    HW140635  14.449  12.929   2.519
12932SOL    HW240636  14.589  12.969   2.478
12933SOL     OW40637  14.075  13.930  13.924
12933SOL    HW140638  14.141  13.927  13.855
12933SOL    HW240639  13.993  13.905  13.879
12934SOL     OW40640  10.185   3.652   4.303
12934SOL    HW140641  10.269   3.640   4.259
12934SOL    HW240642  10.208   3.664   4.395
12935SOL     OW40643   6.988   1.308  13.648
12935SOL    HW140644   6.999   1.222  13.609
12935SOL    HW240645   7.075   1.349  13.641
12936SOL     OW40646   4.845  11.180   8.788
12936SOL    HW140647   4.851  11.171   8.693
12936SOL    HW240648   4.931  11.210   8.816
12937SOL     OW40649  11.910  12.155   3.679
12937SOL    HW140650  11.983  12.138   3.619
12937SOL    HW240651  11.931  12.101   3.756
12938SOL     OW40652   7.274  11.088   8.176
12938SOL    HW140653   7.229  11.095   8.260
12938SOL    HW240654   7.224  11.023   8.127
12939SOL     OW40655  14.614   6.926   1.695
12939SOL    HW140656  14.640   6.999   1.752
12939SOL    HW240657  14.685   6.863   1.703
12940SOL     OW40658  14.611   6.054   4.885
12940SOL    HW140659  14.627   5.965   4.854
12940SOL    HW240660  14.515   6.060   4.892
12941SOL     OW40661   9.099  14.247  12.006
12941SOL    HW140662   9.152  14.315  11.965
12941SOL    HW240663   9.142  14.231  12.091
12942SOL     OW40664   2.400   2.926   3.986
12942SOL    HW140665   2.491   2.898   3.973
12942SOL    HW240666   2.353   2.890   3.911
12943SOL     OW40667   0.145  14.202  14.008
12943SOL    HW140668   0.084  14.233  14.075
12943SOL    HW240669   0.097  14.212  13.925
12944SOL     OW40670   8.146   0.428   2.080
12944SOL    HW140671   8.206   0.377   2.026
12944SOL    HW240672   8.175   0.519   2.071
12945SOL     OW40673   0.250  10.762   8.515
12945SOL    HW140674   0.180  10.702   8.489
12945SOL    HW240675   0.274  10.807   8.434
12946SOL     OW40676   4.995   3.424   1.874
12946SOL    HW140677   5.034   3.394   1.956
12946SOL    HW240678   5.070   3.454   1.821
12947SOL     OW40679  13.767  10.192   3.058
12947SOL    HW140680  13.833  10.192   2.990
12947SOL    HW240681  13.802  10.135   3.127
12948SOL     OW40682   3.024   2.137   9.638
12948SOL    HW140683   3.000   2.045   9.637
12948SOL    HW240684   3.086   2.147   9.566
12949SOL     OW40685   1.305  13.467   0.559
12949SOL    HW140686   1.298  13.470   0.654
12949SOL    HW240687   1.336  13.379   0.539
12950SOL     OW40688   1.789   7.170   2.711
12950SOL    HW140689   1.729   7.122   2.768
12950SOL    HW240690   1.818   7.105   2.646
12951SOL     OW40691   0.908  12.917   5.559
12951SOL    HW140692   0.899  12.863   5.638
12951SOL    HW240693   0.991  12.962   5.570
12952SOL     OW40694   7.810   9.655  14.447
12952SOL    HW140695   7.747   9.685  14.513
12952SOL    HW240696   7.817   9.561  14.461
12953SOL     OW40697   9.943   6.722  10.782
12953SOL    HW140698   9.875   6.698  10.845
12953SOL    HW240699  10.024   6.688  10.820
12954SOL     OW40700   2.876   8.560   0.834
12954SOL    HW140701   2.841   8.567   0.923
12954SOL    HW240702   2.906   8.648   0.812
12955SOL     OW40703   9.531  13.713  11.204
12955SOL    HW140704   9.575  13.713  11.289
12955SOL    HW240705   9.573  13.642  11.155
12956SOL     OW40706   3.862   1.219   9.262
12956SOL    HW140707   3.773   1.185   9.263
12956SOL    HW240708   3.867   1.272   9.182
12957SOL     OW40709   6.570  13.902   4.311
12957SOL    HW140710   6.621  13.970   4.354
12957SOL    HW240711   6.564  13.932   4.220
12958SOL     OW40712   0.352  10.638  10.042
12958SOL    HW140713   0.307  10.722  10.042
12958SOL    HW240714   0.443  10.658  10.066
12959SOL     OW40715   4.166   2.927  11.400
12959SOL    HW140716   4.163   2.859  11.467
12959SOL    HW240717   4.191   3.006  11.448
12960SOL     OW40718   2.700   3.207   3.946
12960SOL    HW140719   2.683   3.134   3.886
12960SOL    HW240720   2.793   3.225   3.935
12961SOL     OW40721   8.202   9.995   7.713
12961SOL    HW140722   8.158   9.986   7.629
12961SOL    HW240723   8.148   9.945   7.775
12962SOL     OW40724   4.052  13.344   8.955
12962SOL    HW140725   4.046  13.432   8.992
12962SOL    HW240726   4.037  13.285   9.029
12963SOL     OW40727   5.930   6.546   5.997
12963SOL    HW140728   5.911   6.486   6.069
12963SOL    HW240729   5.898   6.500   5.919
12964SOL     OW40730  14.451  13.048   6.400
12964SOL    HW140731  14.399  12.970   6.422
12964SOL    HW240732  14.430  13.066   6.309
12965SOL     OW40733   2.679  11.989   4.758
12965SOL    HW140734   2.627  12.070   4.759
12965SOL    HW240735   2.745  12.002   4.826
12966SOL     OW40736  11.324   2.145  12.624
12966SOL    HW140737  11.318   2.085  12.549
12966SOL    HW240738  11.304   2.231  12.587
12967SOL     OW40739   7.205  13.340   8.572
12967SOL    HW140740   7.109  13.343   8.569
12967SOL    HW240741   7.231  13.432   8.580
12968SOL     OW40742   9.993   2.408   4.209
12968SOL    HW140743  10.055   2.480   4.203
12968SOL    HW240744   9.984   2.392   4.303
12969SOL     OW40745   9.379  13.293   6.410
12969SOL    HW140746   9.381  13.389   6.405
12969SOL    HW240747   9.425  13.272   6.491
12970SOL     OW40748  14.143   7.551   3.318
12970SOL    HW140749  14.052   7.544   3.290
12970SOL    HW240750  14.193   7.506   3.250
12971SOL     OW40751  13.864   4.872   2.486
12971SOL    HW140752  13.864   4.807   2.416
12971SOL    HW240753  13.812   4.944   2.452
12972SOL     OW40754   2.929   3.539   3.159
12972SOL    HW140755   2.922   3.579   3.072
12972SOL    HW240756   2.944   3.613   3.218
12973SOL     OW40757   9.014   6.275   6.055
12973SOL    HW140758   8.934   6.298   6.102
12973SOL    HW240759   9.053   6.204   6.107
12974SOL     OW40760   3.256   7.377  12.284
12974SOL    HW140761   3.194   7.377  12.357
12974SOL    HW240762   3.299   7.292  12.290
12975SOL     OW40763   0.407   9.489   2.568
12975SOL    HW140764   0.398   9.579   2.599
12975SOL    HW240765   0.462   9.446   2.634
12976SOL     OW40766  11.386  13.724   8.789
12976SOL    HW140767  11.333  13.744   8.866
12976SOL    HW240768  11.471  13.763   8.807
12977SOL     OW40769  14.567   6.964   4.742
12977SOL    HW140770  14.514   6.993   4.817
12977SOL    HW240771  14.625   6.897   4.779
12978SOL     OW40772   2.768  11.305   7.436
12978SOL    HW140773   2.803  11.236   7.380
12978SOL    HW240774   2.741  11.373   7.375
12979SOL     OW40775   1.710   4.646   9.346
12979SOL    HW140776   1.784   4.699   9.377
12979SOL    HW240777   1.648   4.646   9.418
12980SOL     OW40778  11.447   7.232   7.959
12980SOL    HW140779  11.448   7.327   7.955
12980SOL    HW240780  11.539   7.207   7.967
12981SOL     OW40781   0.129   4.584   1.871
12981SOL    HW140782   0.188   4.554   1.801
12981SOL    HW240783   0.114   4.506   1.924
12982SOL     OW40784   1.326  10.347   2.153
12982SOL    HW140785   1.258  10.397   2.108
12982SOL    HW240786   1.390  10.326   2.084
12983SOL     OW40787  12.427   7.818   4.990
12983SOL    HW140788  12.341   7.847   4.958
12983SOL    HW240789  12.444   7.736   4.943
12984SOL     OW40790   1.511   2.599   2.629
12984SOL    HW140791   1.480   2.687   2.612
12984SOL    HW240792   1.565   2.608   2.708
12985SOL     OW40793   8.632  12.532   7.480
12985SOL    HW140794   8.686  12.551   7.557
12985SOL    HW240795   8.551  12.497   7.515
12986SOL     OW40796  10.325   7.880   3.030
12986SOL    HW140797  10.388   7.822   2.987
12986SOL    HW240798  10.309   7.839   3.115
12987SOL     OW40799  11.644  12.902   6.435
12987SOL    HW140800  11.679  12.991   6.430
12987SOL    HW240801  11.578  12.906   6.505
12988SOL     OW40802   3.809  13.579   1.633
12988SOL    HW140803   3.893  13.625   1.632
12988SOL    HW240804   3.772  13.595   1.546
12989SOL     OW40805   3.514   5.658  13.106
12989SOL    HW140806   3.466   5.678  13.186
12989SOL    HW240807   3.447   5.629  13.044
12990SOL     OW40808   5.000  10.682   4.329
12990SOL    HW140809   5.057  10.631   4.272
12990SOL    HW240810   4.971  10.619   4.396
12991SOL     OW40811  11.318  12.503   7.186
12991SOL    HW140812  11.341  12.422   7.233
12991SOL    HW240813  11.373  12.570   7.227
12992SOL     OW40814   6.426   5.957   7.260
12992SOL    HW140815   6.386   5.871   7.275
12992SOL    HW240816   6.379   6.016   7.318
12993SOL     OW40817   2.585   9.958   0.352
12993SOL    HW140818   2.678   9.941   0.370
12993SOL    HW240819   2.574   9.934   0.260
12994SOL     OW40820   9.073   0.067   1.241
12994SOL    HW140821   9.007  14.879   1.227
12994SOL    HW240822   9.145   0.021   1.284
12995SOL     OW40823  13.624   8.912   9.857
12995SOL    HW140824  13.590   8.871   9.937
12995SOL    HW240825  13.599   9.004   9.864
12996SOL     OW40826   1.750  14.043   5.542
12996SOL    HW140827   1.831  14.057   5.493
12996SOL    HW240828   1.765  14.085   5.627
12997SOL     OW40829   8.652   0.685   7.154
12997SOL    HW140830   8.569   0.683   7.201
12997SOL    HW240831   8.716   0.711   7.220
12998SOL     OW40832   1.483   4.217   3.374
12998SOL    HW140833   1.411   4.278   3.362
12998SOL    HW240834   1.497   4.215   3.469
12999SOL     OW40835  14.813   7.225  11.440
12999SOL    HW140836  14.802   7.314  11.407
12999SOL    HW240837  14.741   7.213  11.501
13000SOL     OW40838   6.063  11.464  13.251
13000SOL    HW140839   5.992  11.481  13.190
13000SOL    HW240840   6.131  11.422  13.198
13001SOL     OW40841   2.480  11.225   5.073
13001SOL    HW140842   2.400  11.248   5.120
13001SOL    HW240843   2.541  11.296   5.095
13002SOL     OW40844   9.068  11.457  12.847
13002SOL    HW140845   9.114  11.433  12.766
13002SOL    HW240846   9.004  11.388  12.861
13003SOL     OW40847  11.027  12.016   2.518
13003SOL    HW140848  11.122  12.026   2.513
13003SOL    HW240849  11.008  12.015   2.612
13004SOL     OW40850  10.257   7.754   3.264
13004SOL    HW140851  10.204   7.675   3.279
13004SOL    HW240852  10.339   7.737   3.310
13005SOL     OW40853   4.898   1.106   3.818
13005SOL    HW140854   4.893   1.067   3.731
13005SOL    HW240855   4.989   1.133   3.828
13006SOL     OW40856  12.211  10.639   9.896
13006SOL    HW140857  12.130  10.686   9.915
13006SOL    HW240858  12.262  10.700   9.842
13007SOL     OW40859   7.810   4.615   5.616
13007SOL    HW140860   7.801   4.701   5.657
13007SOL    HW240861   7.741   4.562   5.657
13008SOL     OW40862   8.012   3.936   7.637
13008SOL    HW140863   7.920   3.914   7.648
13008SOL    HW240864   8.017   4.029   7.660
13009SOL     OW40865   4.941   2.758   2.702
13009SOL    HW140866   4.961   2.709   2.623
13009SOL    HW240867   4.846   2.773   2.698
13010SOL     OW40868   0.223   8.964   3.018
13010SOL    HW140869   0.263   8.880   3.043
13010SOL    HW240870   0.224   9.016   3.098
13011SOL     OW40871   9.010   6.363   9.834
13011SOL    HW140872   8.984   6.382   9.744
13011SOL    HW240873   8.935   6.318   9.871
13012SOL     OW40874  13.637  11.105   3.336
13012SOL    HW140875  13.642  11.044   3.410
13012SOL    HW240876  13.596  11.184   3.373
13013SOL     OW40877   5.363  14.794   6.019
13013SOL    HW140878   5.446  14.775   5.975
13013SOL    HW240879   5.296  14.769   5.955
13014SOL     OW40880   2.430  10.674   5.252
13014SOL    HW140881   2.344  10.648   5.221
13014SOL    HW240882   2.423  10.769   5.266
13015SOL     OW40883   7.510  12.511   8.460
13015SOL    HW140884   7.448  12.575   8.424
13015SOL    HW240885   7.555  12.558   8.531
13016SOL     OW40886   4.142   4.677   2.525
13016SOL    HW140887   4.102   4.635   2.601
13016SOL    HW240888   4.123   4.619   2.452
13017SOL     OW40889  12.876  14.277   3.621
13017SOL    HW140890  12.966  14.293   3.592
13017SOL    HW240891  12.874  14.184   3.643
13018SOL     OW40892   6.474   2.038   9.048
13018SOL    HW140893   6.436   2.125   9.037
13018SOL    HW240894   6.568   2.052   9.036
13019SOL     OW40895   6.713   4.330   9.642
13019SOL    HW140896   6.770   4.407   9.643
13019SOL    HW240897   6.637   4.356   9.590
13020SOL     OW40898   2.044   0.013  11.293
13020SOL    HW140899   2.089  14.823  11.341
13020SOL    HW240900   1.970  14.849  11.251
13021SOL     OW40901  10.935   0.976   5.713
13021SOL    HW140902  10.994   1.049   5.729
13021SOL    HW240903  10.903   0.951   5.800
13022SOL     OW40904  12.215   3.915   1.308
13022SOL    HW140905  12.259   3.930   1.392
13022SOL    HW240906  12.279   3.941   1.242
13023SOL     OW40907  13.890  13.005   3.680
13023SOL    HW140908  13.850  13.092   3.686
13023SOL    HW240909  13.971  13.019   3.632
13024SOL     OW40910  12.983  10.727  11.309
13024SOL    HW140911  13.076  10.746  11.320
13024SOL    HW240912  12.980  10.650  11.254
13025SOL     OW40913   0.564   3.383   9.643
13025SOL    HW140914   0.641   3.437   9.624
13025SOL    HW240915   0.538   3.409   9.731
13026SOL     OW40916  12.795   4.677   7.849
13026SOL    HW140917  12.769   4.711   7.763
13026SOL    HW240918  12.859   4.609   7.829
13027SOL     OW40919  13.762   9.503   6.966
13027SOL    HW140920  13.726   9.418   6.941
13027SOL    HW240921  13.725   9.565   6.904
13028SOL     OW40922   8.505  14.826   2.799
13028SOL    HW140923   8.492   0.023   2.855
13028SOL    HW240924   8.500  14.751   2.858
13029SOL     OW40925  14.330   7.305   3.584
13029SOL    HW140926  14.284   7.359   3.648
13029SOL    HW240927  14.264   7.287   3.516
13030SOL     OW40928  14.426   7.536  12.258
13030SOL    HW140929  14.467   7.537  12.345
13030SOL    HW240930  14.384   7.621  12.251
13031SOL     OW40931   5.838   8.119   7.372
13031SOL    HW140932   5.832   8.141   7.279
13031SOL    HW240933   5.777   8.046   7.383
13032SOL     OW40934  12.639  12.375  12.437
13032SOL    HW140935  12.625  12.448  12.377
13032SOL    HW240936  12.727  12.390  12.472
13033SOL     OW40937   4.124  10.159   5.862
13033SOL    HW140938   4.069  10.126   5.791
13033SOL    HW240939   4.093  10.248   5.877
13034SOL     OW40940   8.437   6.893   8.747
13034SOL    HW140941   8.488   6.971   8.768
13034SOL    HW240942   8.353   6.906   8.793
13035SOL     OW40943  12.475   4.319   9.586
13035SOL    HW140944  12.537   4.258   9.627
13035SOL    HW240945  12.486   4.400   9.635
13036SOL     OW40946   2.180   6.479   6.894
13036SOL    HW140947   2.088   6.500   6.874
13036SOL    HW240948   2.184   6.384   6.888
13037SOL     OW40949   6.095   3.356  13.738
13037SOL    HW140950   6.079   3.442  13.776
13037SOL    HW240951   6.189   3.341  13.750
13038SOL     OW40952  12.075  12.186  14.676
13038SOL    HW140953  12.089  12.269  14.721
13038SOL    HW240954  12.161  12.164  14.640
13039SOL     OW40955   0.910   7.446   5.532
13039SOL    HW140956   0.992   7.492   5.552
13039SOL    HW240957   0.843   7.514   5.539
13040SOL     OW40958  12.448  11.151  13.094
13040SOL    HW140959  12.508  11.165  13.021
13040SOL    HW240960  12.504  11.148  13.172
13041SOL     OW40961   5.669   3.281  11.818
13041SOL    HW140962   5.690   3.374  11.827
13041SOL    HW240963   5.606   3.264  11.888
13042SOL     OW40964   0.694   6.966   5.839
13042SOL    HW140965   0.755   6.899   5.870
13042SOL    HW240966   0.700   6.962   5.744
13043SOL     OW40967   9.353  11.734  12.954
13043SOL    HW140968   9.443  11.758  12.973
13043SOL    HW240969   9.300  11.788  13.011
13044SOL     OW40970   9.160   9.859   4.062
13044SOL    HW140971   9.254   9.845   4.071
13044SOL    HW240972   9.144   9.857   3.968
13045SOL     OW40973   9.727   0.060   3.085
13045SOL    HW140974   9.810   0.043   3.040
13045SOL    HW240975   9.742   0.142   3.132
13046SOL     OW40976  10.020   4.023  14.238
13046SOL    HW140977   9.941   3.973  14.254
13046SOL    HW240978  10.043   4.060  14.324
13047SOL     OW40979   5.611  12.143   9.130
13047SOL    HW140980   5.531  12.188   9.102
13047SOL    HW240981   5.606  12.142   9.226
13048SOL     OW40982   3.299  10.979   7.262
13048SOL    HW140983   3.259  10.906   7.308
13048SOL    HW240984   3.361  11.016   7.324
13049SOL     OW40985   7.233  14.215  13.084
13049SOL    HW140986   7.240  14.245  12.994
13049SOL    HW240987   7.312  14.248  13.127
13050SOL     OW40988  10.706   3.814   4.876
13050SOL    HW140989  10.636   3.853   4.927
13050SOL    HW240990  10.769   3.782   4.941
13051SOL     OW40991   8.316   8.768   1.350
13051SOL    HW140992   8.258   8.697   1.378
13051SOL    HW240993   8.290   8.785   1.259
13052SOL     OW40994   1.382  14.619  14.053
13052SOL    HW140995   1.310  14.668  14.015
13052SOL    HW240996   1.373  14.631  14.147
13053SOL     OW40997  14.566   6.798   7.773
13053SOL    HW140998  14.638   6.839   7.725
13053SOL    HW240999  14.516   6.871   7.809
13054SOL     OW41000   1.368   0.727  12.869
13054SOL    HW141001   1.419   0.750  12.792
13054SOL    HW241002   1.300   0.794  12.875
13055SOL     OW41003   6.494   1.013   3.441
13055SOL    HW141004   6.433   1.006   3.367
13055SOL    HW241005   6.580   1.005   3.401
13056SOL     OW41006   2.732   2.845   9.910
13056SOL    HW141007   2.751   2.765   9.959
13056SOL    HW241008   2.791   2.842   9.835
13057SOL     OW41009  13.579  12.119  10.770
13057SOL    HW141010  13.639  12.126  10.695
13057SOL    HW241011  13.536  12.034  10.758
13058SOL     OW41012   5.373   3.242  14.714
13058SOL    HW141013   5.367   3.208  14.804
13058SOL    HW241014   5.457   3.287  14.712
13059SOL     OW41015   5.594   6.157   1.152
13059SOL    HW141016   5.605   6.190   1.242
13059SOL    HW241017   5.681   6.129   1.126
13060SOL     OW41018   6.131   5.198   7.589
13060SOL    HW141019   6.173   5.144   7.522
13060SOL    HW241020   6.075   5.138   7.637
13061SOL     OW41021   6.127   8.430   0.605
13061SOL    HW141022   6.097   8.344   0.634
13061SOL    HW241023   6.170   8.467   0.682
13062SOL     OW41024   5.917   8.299  12.956
13062SOL    HW141025   6.003   8.325  12.989
13062SOL    HW241026   5.910   8.207  12.978
13063SOL     OW41027   2.558   8.991   4.189
13063SOL    HW141028   2.639   8.950   4.222
13063SOL    HW241029   2.559   9.079   4.225
13064SOL     OW41030  11.103   0.956   4.569
13064SOL    HW141031  11.154   0.875   4.561
13064SOL    HW241032  11.065   0.952   4.656
13065SOL     OW41033  10.764  12.158   0.681
13065SOL    HW141034  10.805  12.097   0.619
13065SOL    HW241035  10.776  12.117   0.766
13066SOL     OW41036  13.207  13.134   1.536
13066SOL    HW141037  13.133  13.149   1.595
13066SOL    HW241038  13.284  13.153   1.589
13067SOL     OW41039  11.086  13.345   2.602
13067SOL    HW141040  11.165  13.304   2.637
13067SOL    HW241041  11.065  13.414   2.665
13068SOL     OW41042   2.122  12.525   7.116
13068SOL    HW141043   2.099  12.456   7.177
13068SOL    HW241044   2.044  12.539   7.063
13069SOL     OW41045   8.230  13.962   4.053
13069SOL    HW141046   8.145  14.004   4.040
13069SOL    HW241047   8.209  13.872   4.077
13070SOL     OW41048  12.239   4.274   3.534
13070SOL    HW141049  12.293   4.260   3.612
13070SOL    HW241050  12.247   4.192   3.485
13071SOL     OW41051   8.217   5.506   9.992
13071SOL    HW141052   8.166   5.561   9.934
13071SOL    HW241053   8.237   5.428   9.941
13072SOL     OW41054   7.382   5.494   5.445
13072SOL    HW141055   7.473   5.498   5.475
13072SOL    HW241056   7.369   5.403   5.421
13073SOL     OW41057   3.768   5.392   7.072
13073SOL    HW141058   3.795   5.315   7.122
13073SOL    HW241059   3.818   5.387   6.991
13074SOL     OW41060   5.563   8.284  10.520
13074SOL    HW141061   5.533   8.205  10.565
13074SOL    HW241062   5.637   8.315  10.574
13075SOL     OW41063  12.813   4.022   3.456
13075SOL    HW141064  12.752   4.093   3.434
13075SOL    HW241065  12.794   3.954   3.392
13076SOL     OW41066   8.059  13.366   4.844
13076SOL    HW141067   8.078  13.343   4.935
13076SOL    HW241068   7.970  13.402   4.847
13077SOL     OW41069   4.819   8.472  14.049
13077SOL    HW141070   4.887   8.523  14.005
13077SOL    HW241071   4.831   8.491  14.142
13078SOL     OW41072   4.522   2.463  14.158
13078SOL    HW141073   4.577   2.465  14.081
13078SOL    HW241074   4.446   2.410  14.133
13079SOL     OW41075   1.225   9.209   0.509
13079SOL    HW141076   1.148   9.247   0.549
13079SOL    HW241077   1.201   9.118   0.491
13080SOL     OW41078   1.240   0.116   8.664
13080SOL    HW141079   1.310   0.130   8.728
13080SOL    HW241080   1.159   0.130   8.713
13081SOL     OW41081  10.133   8.075   5.555
13081SOL    HW141082  10.174   7.989   5.549
13081SOL    HW241083  10.126   8.106   5.465
13082SOL     OW41084  11.495   8.129   1.622
13082SOL    HW141085  11.540   8.213   1.628
13082SOL    HW241086  11.514   8.085   1.705
13083SOL     OW41087  12.744   9.986   2.426
13083SOL    HW141088  12.682   9.933   2.377
13083SOL    HW241089  12.693  10.061   2.456
13084SOL     OW41090  11.577   8.982   1.963
13084SOL    HW141091  11.513   9.050   1.942
13084SOL    HW241092  11.534   8.900   1.938
13085SOL     OW41093   7.930  13.636  11.508
13085SOL    HW141094   7.890  13.550  11.520
13085SOL    HW241095   7.859  13.698  11.525
13086SOL     OW41096   6.002   2.798  13.523
13086SOL    HW141097   6.010   2.867  13.589
13086SOL    HW241098   6.024   2.842  13.441
13087SOL     OW41099   2.136   4.978  10.490
13087SOL    HW141100   2.043   4.963  10.474
13087SOL    HW241101   2.144   5.073  10.500
13088SOL     OW41102  12.599   9.149   7.442
13088SOL    HW141103  12.630   9.183   7.526
13088SOL    HW241104  12.674   9.157   7.384
13089SOL     OW41105   0.083   5.474  13.799
13089SOL    HW141106   0.129   5.394  13.828
13089SOL    HW241107   0.149   5.523  13.751
13090SOL     OW41108   5.162   9.198   1.206
13090SOL    HW141109   5.202   9.146   1.275
13090SOL    HW241110   5.152   9.285   1.244
13091SOL     OW41111   1.892   6.406  13.694
13091SOL    HW141112   1.802   6.419  13.726
13091SOL    HW241113   1.896   6.457  13.613
13092SOL     OW41114   3.786   5.865  14.610
13092SOL    HW141115   3.756   5.774  14.604
13092SOL    HW241116   3.710   5.913  14.640
13093SOL     OW41117  12.970  13.412  11.339
13093SOL    HW141118  13.063  13.427  11.322
13093SOL    HW241119  12.940  13.360  11.264
13094SOL     OW41120  13.696   5.259   5.738
13094SOL    HW141121  13.745   5.295   5.664
13094SOL    HW241122  13.736   5.300   5.815
13095SOL     OW41123   9.861   0.797   1.779
13095SOL    HW141124   9.870   0.817   1.872
13095SOL    HW241125   9.945   0.760   1.753
13096SOL     OW41126  13.700   1.496   5.280
13096SOL    HW141127  13.762   1.423   5.286
13096SOL    HW241128  13.624   1.459   5.235
13097SOL     OW41129  10.595   9.083  11.897
13097SOL    HW141130  10.632   8.995  11.888
13097SOL    HW241131  10.527   9.074  11.963
13098SOL     OW41132   3.005   5.188  10.358
13098SOL    HW141133   3.079   5.135  10.387
13098SOL    HW241134   3.034   5.279  10.370
13099SOL     OW41135   7.896   2.536   5.949
13099SOL    HW141136   7.952   2.465   5.979
13099SOL    HW241137   7.847   2.563   6.027
13100SOL     OW41138  12.684  12.134  13.501
13100SOL    HW141139  12.594  12.101  13.501
13100SOL    HW241140  12.697  12.168  13.590
13101SOL     OW41141  10.151   8.627   3.217
13101SOL    HW141142  10.231   8.579   3.238
13101SOL    HW241143  10.083   8.559   3.212
13102SOL     OW41144  10.044   0.887   4.568
13102SOL    HW141145  10.133   0.923   4.572
13102SOL    HW241146  10.057   0.792   4.561
13103SOL     OW41147   9.181   1.697   9.369
13103SOL    HW141148   9.175   1.604   9.349
13103SOL    HW241149   9.251   1.703   9.434
13104SOL     OW41150   3.817  10.209  13.743
13104SOL    HW141151   3.725  10.233  13.750
13104SOL    HW241152   3.822  10.121  13.780
13105SOL     OW41153  10.932   8.992   7.488
13105SOL    HW141154  10.988   8.984   7.565
13105SOL    HW241155  10.847   8.959   7.518
13106SOL     OW41156   5.354   3.537   7.695
13106SOL    HW141157   5.276   3.500   7.654
13106SOL    HW241158   5.426   3.511   7.639
13107SOL     OW41159  11.397   5.408  11.584
13107SOL    HW141160  11.352   5.481  11.543
13107SOL    HW241161  11.327   5.346  11.608
13108SOL     OW41162   2.500   9.801   6.120
13108SOL    HW141163   2.557   9.847   6.182
13108SOL    HW241164   2.559   9.744   6.071
13109SOL     OW41165  10.776   7.527   2.337
13109SOL    HW141166  10.753   7.571   2.419
13109SOL    HW241167  10.693   7.522   2.289
13110SOL     OW41168   0.958  11.968   4.906
13110SOL    HW141169   0.953  11.986   4.813
13110SOL    HW241170   0.880  12.009   4.943
13111SOL     OW41171  10.238   8.576   5.973
13111SOL    HW141172  10.245   8.635   5.897
13111SOL    HW241173  10.203   8.631   6.042
13112SOL     OW41174   6.596   1.877   7.084
13112SOL    HW141175   6.570   1.860   6.994
13112SOL    HW241176   6.691   1.878   7.082
13113SOL     OW41177  14.349   3.068   1.816
13113SOL    HW141178  14.372   2.979   1.790
13113SOL    HW241179  14.255   3.075   1.797
13114SOL     OW41180  14.484   6.361  13.250
13114SOL    HW141181  14.501   6.449  13.217
13114SOL    HW241182  14.401   6.368  13.297
13115SOL     OW41183  13.974   3.396   5.216
13115SOL    HW141184  13.893   3.441   5.195
13115SOL    HW241185  14.038   3.431   5.154
13116SOL     OW41186   0.895   9.287  13.111
13116SOL    HW141187   0.800   9.293  13.106
13116SOL    HW241188   0.916   9.322  13.198
13117SOL     OW41189   2.313   7.240   0.582
13117SOL    HW141190   2.351   7.157   0.608
13117SOL    HW241191   2.355   7.305   0.638
13118SOL     OW41192  12.289   2.108   5.792
13118SOL    HW141193  12.305   2.114   5.886
13118SOL    HW241194  12.252   2.020   5.779
13119SOL     OW41195   4.614   1.023   1.788
13119SOL    HW141196   4.571   0.948   1.829
13119SOL    HW241197   4.644   0.990   1.703
13120SOL     OW41198   3.678   7.687  13.108
13120SOL    HW141199   3.612   7.620  13.092
13120SOL    HW241200   3.750   7.665  13.049
13121SOL     OW41201  12.583   1.929  10.841
13121SOL    HW141202  12.532   1.987  10.783
13121SOL    HW241203  12.517   1.882  10.892
13122SOL     OW41204   0.376   4.841  13.973
13122SOL    HW141205   0.300   4.793  13.937
13122SOL    HW241206   0.371   4.825  14.067
13123SOL     OW41207   1.823  12.342   2.630
13123SOL    HW141208   1.902  12.288   2.629
13123SOL    HW241209   1.828  12.390   2.713
13124SOL     OW41210  14.760   0.969   4.547
13124SOL    HW141211  14.669   0.939   4.542
13124SOL    HW241212  14.811   0.890   4.564
13125SOL     OW41213  13.444   3.255   3.928
13125SOL    HW141214  13.431   3.349   3.922
13125SOL    HW241215  13.388   3.218   3.859
13126SOL     OW41216   5.743   4.541   8.674
13126SOL    HW141217   5.782   4.482   8.610
13126SOL    HW241218   5.649   4.527   8.665
13127SOL     OW41219   4.347  12.669  10.330
13127SOL    HW141220   4.365  12.579  10.304
13127SOL    HW241221   4.434  12.708  10.342
13128SOL     OW41222   8.995   6.509   8.751
13128SOL    HW141223   9.075   6.460   8.732
13128SOL    HW241224   8.940   6.494   8.674
13129SOL     OW41225  11.288   1.536   6.411
13129SOL    HW141226  11.359   1.503   6.466
13129SOL    HW241227  11.243   1.600   6.466
13130SOL     OW41228  11.131  12.841   3.353
13130SOL    HW141229  11.061  12.904   3.340
13130SOL    HW241230  11.209  12.894   3.370
13131SOL     OW41231   2.975  10.500  11.519
13131SOL    HW141232   3.051  10.503  11.578
13131SOL    HW241233   3.010  10.464  11.437
13132SOL     OW41234   8.538   7.047   1.246
13132SOL    HW141235   8.507   7.001   1.168
13132SOL    HW241236   8.537   6.981   1.314
13133SOL     OW41237   4.131  13.013  11.099
13133SOL    HW141238   4.202  13.029  11.161
13133SOL    HW241239   4.137  12.919  11.080
13134SOL     OW41240   6.604  14.519   3.046
13134SOL    HW141241   6.653  14.440   3.069
13134SOL    HW241242   6.615  14.577   3.121
13135SOL     OW41243  12.669   4.697   8.312
13135SOL    HW141244  12.709   4.681   8.397
13135SOL    HW241245  12.721   4.768   8.274
13136SOL     OW41246   1.237   7.375  11.484
13136SOL    HW141247   1.313   7.374  11.542
13136SOL    HW241248   1.253   7.302  11.423
13137SOL     OW41249   4.022   4.786   3.164
13137SOL    HW141250   3.987   4.813   3.079
13137SOL    HW241251   4.111   4.757   3.145
13138SOL     OW41252   6.484  11.300   4.905
13138SOL    HW141253   6.397  11.317   4.941
13138SOL    HW241254   6.527  11.386   4.906
13139SOL     OW41255  12.886   6.283   2.534
13139SOL    HW141256  12.899   6.238   2.450
13139SOL    HW241257  12.818   6.348   2.517
13140SOL     OW41258   3.400   2.464  14.761
13140SOL    HW141259   3.380   2.373  14.741
13140SOL    HW241260   3.320   2.499  14.799
13141SOL     OW41261   5.187   6.024   8.269
13141SOL    HW141262   5.123   6.094   8.253
13141SOL    HW241263   5.207   6.030   8.362
13142SOL     OW41264   9.158   2.782  10.043
13142SOL    HW141265   9.076   2.827  10.021
13142SOL    HW241266   9.195   2.758   9.958
13143SOL     OW41267  10.882   9.561  12.786
13143SOL    HW141268  10.905   9.511  12.865
13143SOL    HW241269  10.803   9.519  12.753
13144SOL     OW41270  13.183   8.494   3.657
13144SOL    HW141271  13.168   8.402   3.680
13144SOL    HW241272  13.275   8.510   3.679
13145SOL     OW41273   7.593  13.407  12.146
13145SOL    HW141274   7.538  13.454  12.082
13145SOL    HW241275   7.650  13.475  12.183
13146SOL     OW41276   8.977   1.509   3.596
13146SOL    HW141277   9.058   1.482   3.640
13146SOL    HW241278   8.938   1.573   3.656
13147SOL     OW41279   7.426   7.645  10.314
13147SOL    HW141280   7.420   7.580  10.244
13147SOL    HW241281   7.377   7.721  10.281
13148SOL     OW41282   4.615   5.388   6.031
13148SOL    HW141283   4.606   5.445   5.955
13148SOL    HW241284   4.533   5.338   6.034
13149SOL     OW41285  14.578  13.851  13.342
13149SOL    HW141286  14.590  13.924  13.402
13149SOL    HW241287  14.496  13.870  13.296
13150SOL     OW41288   3.143   5.845   7.855
13150SOL    HW141289   3.055   5.839   7.893
13150SOL    HW241290   3.160   5.939   7.848
13151SOL     OW41291   7.495   2.226   7.911
13151SOL    HW141292   7.500   2.196   8.001
13151SOL    HW241293   7.402   2.221   7.889
13152SOL     OW41294   8.551   7.716   8.208
13152SOL    HW141295   8.539   7.783   8.275
13152SOL    HW241296   8.611   7.653   8.247
13153SOL     OW41297   3.899   1.359   6.457
13153SOL    HW141298   3.990   1.387   6.466
13153SOL    HW241299   3.900   1.267   6.483
13154SOL     OW41300  10.622   5.396   5.891
13154SOL    HW141301  10.602   5.364   5.979
13154SOL    HW241302  10.660   5.483   5.905
13155SOL     OW41303   7.290   0.115   1.373
13155SOL    HW141304   7.276   0.191   1.430
13155SOL    HW241305   7.231   0.048   1.408
13156SOL     OW41306   6.981  13.557   7.614
13156SOL    HW141307   7.068  13.532   7.582
13156SOL    HW241308   6.923  13.547   7.538
13157SOL     OW41309   0.057   9.773   3.859
13157SOL    HW141310   0.076   9.832   3.932
13157SOL    HW241311   0.101   9.691   3.881
13158SOL     OW41312   8.617   5.759   0.269
13158SOL    HW141313   8.622   5.769   0.364
13158SOL    HW241314   8.566   5.835   0.240
13159SOL     OW41315   3.334  11.489   9.190
13159SOL    HW141316   3.341  11.422   9.258
13159SOL    HW241317   3.399  11.555   9.215
13160SOL     OW41318   8.822  10.476   5.661
13160SOL    HW141319   8.899  10.423   5.683
13160SOL    HW241320   8.832  10.555   5.714
13161SOL     OW41321  11.343  10.516   0.933
13161SOL    HW141322  11.350  10.581   0.863
13161SOL    HW241323  11.278  10.552   0.993
13162SOL     OW41324   7.330   1.787  11.762
13162SOL    HW141325   7.234   1.791  11.765
13162SOL    HW241326   7.358   1.838  11.838
13163SOL     OW41327   6.305  13.603  13.006
13163SOL    HW141328   6.380  13.610  13.065
13163SOL    HW241329   6.326  13.531  12.948
13164SOL     OW41330  11.301   2.552   2.971
13164SOL    HW141331  11.288   2.457   2.969
13164SOL    HW241332  11.385   2.564   3.015
13165SOL     OW41333   3.471   6.312   4.253
13165SOL    HW141334   3.393   6.341   4.301
13165SOL    HW241335   3.448   6.324   4.161
13166SOL     OW41336   5.211  11.328   8.536
13166SOL    HW141337   5.280  11.346   8.472
13166SOL    HW241338   5.254  11.272   8.601
13167SOL     OW41339   4.945   7.634   7.009
13167SOL    HW141340   4.915   7.694   7.078
13167SOL    HW241341   4.879   7.565   7.007
13168SOL     OW41342  10.692   8.723  12.676
13168SOL    HW141343  10.621   8.785  12.663
13168SOL    HW241344  10.769   8.778  12.690
13169SOL     OW41345  10.292   0.675   7.890
13169SOL    HW141346  10.214   0.725   7.868
13169SOL    HW241347  10.259   0.596   7.933
13170SOL     OW41348   1.195   5.333   8.607
13170SOL    HW141349   1.254   5.355   8.679
13170SOL    HW241350   1.110   5.366   8.636
13171SOL     OW41351   9.050   2.756  13.300
13171SOL    HW141352   9.017   2.715  13.220
13171SOL    HW241353   9.087   2.683  13.350
13172SOL     OW41354  13.414   7.158  13.016
13172SOL    HW141355  13.441   7.228  13.076
13172SOL    HW241356  13.373   7.205  12.943
13173SOL     OW41357  11.483   4.284  10.122
13173SOL    HW141358  11.422   4.213  10.104
13173SOL    HW241359  11.501   4.323  10.037
13174SOL     OW41360  11.743   9.760  12.181
13174SOL    HW141361  11.775   9.735  12.268
13174SOL    HW241362  11.798   9.834  12.155
13175SOL     OW41363  11.803   3.676  12.050
13175SOL    HW141364  11.866   3.739  12.085
13175SOL    HW241365  11.845   3.591  12.062
13176SOL     OW41366   9.499   9.083   2.773
13176SOL    HW141367   9.547   9.027   2.712
13176SOL    HW241368   9.558   9.156   2.791
13177SOL     OW41369  12.832  10.123  14.731
13177SOL    HW141370  12.761  10.115  14.667
13177SOL    HW241371  12.845  10.217  14.740
13178SOL     OW41372   9.471  12.071   7.866
13178SOL    HW141373   9.463  12.139   7.799
13178SOL    HW241374   9.555  12.090   7.908
13179SOL     OW41375  13.536   8.452  11.385
13179SOL    HW141376  13.593   8.383  11.418
13179SOL    HW241377  13.578   8.482  11.305
13180SOL     OW41378   6.294   7.160   1.239
13180SOL    HW141379   6.291   7.137   1.147
13180SOL    HW241380   6.214   7.123   1.276
13181SOL     OW41381  13.415   4.733   6.335
13181SOL    HW141382  13.476   4.668   6.299
13181SOL    HW241383  13.365   4.763   6.259
13182SOL     OW41384  14.482   6.156   7.937
13182SOL    HW141385  14.455   6.217   8.005
13182SOL    HW241386  14.409   6.153   7.876
13183SOL     OW41387   3.714   2.672   5.026
13183SOL    HW141388   3.757   2.757   5.037
13183SOL    HW241389   3.702   2.640   5.115
13184SOL     OW41390   8.372   0.390   0.248
13184SOL    HW141391   8.291   0.348   0.221
13184SOL    HW241392   8.441   0.332   0.216
13185SOL     OW41393   3.111   7.845  14.067
13185SOL    HW141394   3.202   7.872  14.056
13185SOL    HW241395   3.116   7.764  14.117
13186SOL     OW41396  14.506   5.245   4.714
13186SOL    HW141397  14.445   5.183   4.755
13186SOL    HW241398  14.522   5.208   4.627
13187SOL     OW41399  10.067   2.433  12.465
13187SOL    HW141400   9.981   2.403  12.434
13187SOL    HW241401  10.123   2.355  12.458
13188SOL     OW41402   1.818   8.831   8.984
13188SOL    HW141403   1.732   8.793   8.969
13188SOL    HW241404   1.877   8.755   8.993
13189SOL     OW41405   5.082   0.183   2.479
13189SOL    HW141406   5.119   0.119   2.419
13189SOL    HW241407   5.143   0.256   2.477
13190SOL     OW41408   2.273   4.324   3.569
13190SOL    HW141409   2.229   4.387   3.627
13190SOL    HW241410   2.216   4.247   3.571
13191SOL     OW41411   3.009  13.205   4.603
13191SOL    HW141412   3.055  13.155   4.670
13191SOL    HW241413   3.023  13.157   4.522
13192SOL     OW41414   1.567   7.312   8.537
13192SOL    HW141415   1.498   7.248   8.548
13192SOL    HW241416   1.577   7.353   8.623
13193SOL     OW41417  14.476  10.382   2.727
13193SOL    HW141418  14.497  10.453   2.667
13193SOL    HW241419  14.482  10.303   2.673
13194SOL     OW41420   6.309   9.416   4.723
13194SOL    HW141421   6.288   9.356   4.652
13194SOL    HW241422   6.377   9.371   4.773
13195SOL     OW41423   2.443   5.147   2.614
13195SOL    HW141424   2.421   5.130   2.522
13195SOL    HW241425   2.536   5.171   2.613
13196SOL     OW41426   7.590   9.412  13.235
13196SOL    HW141427   7.668   9.363  13.263
13196SOL    HW241428   7.552   9.445  13.317
13197SOL     OW41429   4.016  13.186   5.608
13197SOL    HW141430   4.072  13.190   5.530
13197SOL    HW241431   4.056  13.118   5.662
13198SOL     OW41432   3.925  13.209   0.937
13198SOL    HW141433   3.913  13.124   0.895
13198SOL    HW241434   3.840  13.228   0.977
13199SOL     OW41435  12.505  10.372   7.179
13199SOL    HW141436  12.461  10.337   7.101
13199SOL    HW241437  12.596  10.347   7.168
13200SOL     OW41438  13.292  10.594   8.005
13200SOL    HW141439  13.344  10.617   7.928
13200SOL    HW241440  13.349  10.536   8.056
13201SOL     OW41441   1.772  11.876   9.720
13201SOL    HW141442   1.791  11.810   9.787
13201SOL    HW241443   1.743  11.952   9.770
13202SOL     OW41444   9.131   7.847  10.994
13202SOL    HW141445   9.194   7.833  11.066
13202SOL    HW241446   9.161   7.927  10.952
13203SOL     OW41447  12.048  12.970   3.790
13203SOL    HW141448  11.976  12.917   3.756
13203SOL    HW241449  12.125  12.943   3.740
13204SOL     OW41450   5.360  11.644  11.344
13204SOL    HW141451   5.450  11.674  11.334
13204SOL    HW241452   5.358  11.602  11.430
13205SOL     OW41453   9.750   1.145  14.255
13205SOL    HW141454   9.814   1.206  14.291
13205SOL    HW241455   9.795   1.102  14.182
13206SOL     OW41456  14.578   6.420   8.554
13206SOL    HW141457  14.567   6.394   8.645
13206SOL    HW241458  14.671   6.444   8.548
13207SOL     OW41459  14.836   2.590   8.365
13207SOL    HW141460   0.026   2.650   8.392
13207SOL    HW241461  14.768   2.647   8.328
13208SOL     OW41462   3.441   9.390   2.138
13208SOL    HW141463   3.436   9.456   2.207
13208SOL    HW241464   3.354   9.351   2.135
13209SOL     OW41465   6.988  10.393   1.756
13209SOL    HW141466   6.964  10.370   1.846
13209SOL    HW241467   6.927  10.342   1.701
13210SOL     OW41468   6.302   4.832  11.984
13210SOL    HW141469   6.360   4.757  11.985
13210SOL    HW241470   6.288   4.851  11.891
13211SOL     OW41471   4.589   2.991   3.893
13211SOL    HW141472   4.507   3.035   3.868
13211SOL    HW241473   4.658   3.048   3.858
13212SOL     OW41474  14.595  13.934   5.379
13212SOL    HW141475  14.671  13.899   5.332
13212SOL    HW241476  14.543  13.978   5.311
13213SOL     OW41477   1.744  12.080   1.991
13213SOL    HW141478   1.683  12.019   1.948
13213SOL    HW241479   1.803  12.023   2.040
13214SOL     OW41480   8.764   1.189   3.938
13214SOL    HW141481   8.856   1.206   3.919
13214SOL    HW241482   8.763   1.162   4.030
13215SOL     OW41483   8.202   1.754   1.570
13215SOL    HW141484   8.178   1.749   1.477
13215SOL    HW241485   8.132   1.806   1.610
13216SOL     OW41486   9.640   5.569   8.112
13216SOL    HW141487   9.712   5.625   8.085
13216SOL    HW241488   9.679   5.504   8.170
13217SOL     OW41489   3.883  12.854   7.310
13217SOL    HW141490   3.812  12.910   7.341
13217SOL    HW241491   3.856  12.766   7.334
13218SOL     OW41492  14.171   4.385  12.208
13218SOL    HW141493  14.132   4.395  12.295
13218SOL    HW241494  14.102   4.345  12.155
13219SOL     OW41495  12.814   2.158   1.558
13219SOL    HW141496  12.823   2.170   1.652
13219SOL    HW241497  12.779   2.241   1.525
13220SOL     OW41498  14.395   5.048  13.851
13220SOL    HW141499  14.459   5.115  13.824
13220SOL    HW241500  14.445   4.967  13.851
13221SOL     OW41501   1.379   6.044   9.448
13221SOL    HW141502   1.394   6.036   9.542
13221SOL    HW241503   1.464   6.065   9.411
13222SOL     OW41504   3.695   6.971  12.576
13222SOL    HW141505   3.787   6.979  12.602
13222SOL    HW241506   3.655   7.052  12.606
13223SOL     OW41507  14.647  14.634   1.276
13223SOL    HW141508  14.621  14.710   1.223
13223SOL    HW241509  14.570  14.577   1.275
13224SOL     OW41510   4.059   2.848   2.150
13224SOL    HW141511   4.134   2.904   2.164
13224SOL    HW241512   3.988   2.888   2.201
13225SOL     OW41513  10.654  10.752  11.555
13225SOL    HW141514  10.655  10.808  11.477
13225SOL    HW241515  10.710  10.798  11.617
13226SOL     OW41516  12.892   6.507   1.485
13226SOL    HW141517  12.893   6.508   1.390
13226SOL    HW241518  12.984   6.513   1.511
13227SOL     OW41519   2.504  13.789  13.088
13227SOL    HW141520   2.552  13.818  13.165
13227SOL    HW241521   2.464  13.869  13.053
13228SOL     OW41522   8.302  13.999  14.417
13228SOL    HW141523   8.344  13.937  14.476
13228SOL    HW241524   8.229  14.034  14.466
13229SOL     OW41525  14.371  12.055  14.616
13229SOL    HW141526  14.431  12.107  14.562
13229SOL    HW241527  14.388  12.083  14.705
13230SOL     OW41528   8.625   8.217   7.609
13230SOL    HW141529   8.563   8.290   7.598
13230SOL    HW241530   8.710   8.254   7.585
13231SOL     OW41531   4.243   7.677   5.348
13231SOL    HW141532   4.172   7.635   5.396
13231SOL    HW241533   4.200   7.736   5.286
13232SOL     OW41534   4.591   3.599  10.863
13232SOL    HW141535   4.513   3.621  10.914
13232SOL    HW241536   4.601   3.504  10.875
13233SOL     OW41537  13.075  13.977   1.439
13233SOL    HW141538  13.129  13.899   1.431
13233SOL    HW241539  13.124  14.045   1.393
13234SOL     OW41540   7.101   7.766   4.199
13234SOL    HW141541   7.150   7.718   4.267
13234SOL    HW241542   7.011   7.735   4.208
13235SOL     OW41543  13.434   7.890  12.811
13235SOL    HW141544  13.436   7.819  12.747
13235SOL    HW241545  13.424   7.970  12.759
13236SOL     OW41546  13.432   7.423   6.688
13236SOL    HW141547  13.445   7.398   6.780
13236SOL    HW241548  13.352   7.378   6.662
13237SOL     OW41549  13.540  11.472   7.599
13237SOL    HW141550  13.525  11.380   7.622
13237SOL    HW241551  13.626  11.473   7.558
13238SOL     OW41552  12.651   9.439   4.422
13238SOL    HW141553  12.727   9.498   4.425
13238SOL    HW241554  12.631   9.421   4.514
13239SOL     OW41555   8.967   9.442   2.401
13239SOL    HW141556   8.970   9.439   2.496
13239SOL    HW241557   8.875   9.461   2.380
13240SOL     OW41558   5.019  14.086   0.287
13240SOL    HW141559   5.011  14.011   0.228
13240SOL    HW241560   4.939  14.086   0.338
13241SOL     OW41561   6.584   1.531   9.933
13241SOL    HW141562   6.493   1.507   9.950
13241SOL    HW241563   6.616   1.464   9.873
13242SOL     OW41564   0.668   2.521  10.308
13242SOL    HW141565   0.686   2.477  10.225
13242SOL    HW241566   0.615   2.597  10.284
13243SOL     OW41567  12.117   7.807  11.617
13243SOL    HW141568  12.197   7.755  11.629
13243SOL    HW241569  12.047   7.752  11.651
13244SOL     OW41570  10.495   3.627  10.588
13244SOL    HW141571  10.564   3.563  10.574
13244SOL    HW241572  10.444   3.626  10.507
13245SOL     OW41573   3.109   7.452   4.264
13245SOL    HW141574   3.104   7.370   4.315
13245SOL    HW241575   3.077   7.428   4.177
13246SOL     OW41576   5.084  11.312   0.177
13246SOL    HW141577   5.002  11.360   0.184
13246SOL    HW241578   5.146  11.375   0.141
13247SOL     OW41579   8.034  12.391   6.266
13247SOL    HW141580   8.118  12.429   6.294
13247SOL    HW241581   7.979  12.467   6.247
13248SOL     OW41582   3.917   1.856   7.336
13248SOL    HW141583   3.926   1.859   7.241
13248SOL    HW241584   3.826   1.830   7.352
13249SOL     OW41585  11.838  10.241   5.602
13249SOL    HW141586  11.809  10.225   5.513
13249SOL    HW241587  11.848  10.337   5.607
13250SOL     OW41588   8.474  13.053   0.885
13250SOL    HW141589   8.537  12.987   0.854
13250SOL    HW241590   8.446  13.098   0.805
13251SOL     OW41591   6.347   7.137   0.020
13251SOL    HW141592   6.336   7.059  14.845
13251SOL    HW241593   6.281   7.199  14.867
13252SOL     OW41594   6.616   1.642   1.202
13252SOL    HW141595   6.589   1.710   1.140
13252SOL    HW241596   6.537   1.624   1.253
13253SOL     OW41597  13.382   8.137  12.098
13253SOL    HW141598  13.345   8.188  12.170
13253SOL    HW241599  13.442   8.076  12.140
13254SOL     OW41600   0.213   8.862   4.319
13254SOL    HW141601   0.288   8.881   4.263
13254SOL    HW241602   0.198   8.768   4.308
13255SOL     OW41603  12.523   2.817   9.768
13255SOL    HW141604  12.541   2.890   9.827
13255SOL    HW241605  12.573   2.838   9.689
13256SOL     OW41606  13.981   5.891   5.978
13256SOL    HW141607  13.932   5.809   5.982
13256SOL    HW241608  13.958   5.928   5.893
13257SOL     OW41609  12.552   3.726  12.252
13257SOL    HW141610  12.571   3.634  12.233
13257SOL    HW241611  12.593   3.742  12.337
13258SOL     OW41612   6.906   8.565   7.166
13258SOL    HW141613   6.973   8.514   7.121
13258SOL    HW241614   6.952   8.644   7.196
13259SOL     OW41615   5.575   8.743  14.304
13259SOL    HW141616   5.497   8.691  14.320
13259SOL    HW241617   5.543   8.830  14.282
13260SOL     OW41618   2.528   0.564   5.751
13260SOL    HW141619   2.577   0.505   5.694
13260SOL    HW241620   2.541   0.530   5.839
13261SOL     OW41621   1.669  14.678   2.707
13261SOL    HW141622   1.620  14.724   2.639
13261SOL    HW241623   1.657  14.586   2.687
13262SOL     OW41624   0.485  13.725   0.916
13262SOL    HW141625   0.506  13.636   0.945
13262SOL    HW241626   0.408  13.749   0.968
13263SOL     OW41627   7.917   0.476  11.977
13263SOL    HW141628   7.919   0.533  11.900
13263SOL    HW241629   7.837   0.426  11.968
13264SOL     OW41630   6.793  11.225  10.779
13264SOL    HW141631   6.847  11.147  10.793
13264SOL    HW241632   6.719  11.194  10.727
13265SOL     OW41633   0.561   2.105   6.543
13265SOL    HW141634   0.621   2.090   6.470
13265SOL    HW241635   0.586   2.040   6.609
13266SOL     OW41636  13.590  13.452   3.571
13266SOL    HW141637  13.676  13.447   3.529
13266SOL    HW241638  13.532  13.403   3.512
13267SOL     OW41639  10.663  12.117   5.589
13267SOL    HW141640  10.642  12.076   5.673
13267SOL    HW241641  10.671  12.043   5.529
13268SOL     OW41642  12.911   4.641  11.175
13268SOL    HW141643  12.817   4.644  11.188
13268SOL    HW241644  12.933   4.548  11.185
13269SOL     OW41645   3.875   8.881   0.942
13269SOL    HW141646   3.860   8.789   0.922
13269SOL    HW241647   3.845   8.891   1.033
13270SOL     OW41648  10.230   0.374  13.315
13270SOL    HW141649  10.284   0.445  13.349
13270SOL    HW241650  10.279   0.294  13.335
13271SOL     OW41651  10.712  11.899   5.765
13271SOL    HW141652  10.617  11.896   5.764
13271SOL    HW241653  10.739  11.811   5.792
13272SOL     OW41654   5.192  13.606   6.779
13272SOL    HW141655   5.270  13.562   6.812
13272SOL    HW241656   5.140  13.535   6.739
13273SOL     OW41657  11.267   6.164   9.466
13273SOL    HW141658  11.323   6.178   9.390
13273SOL    HW241659  11.237   6.073   9.457
13274SOL     OW41660  12.768   4.276   0.933
13274SOL    HW141661  12.810   4.227   1.004
13274SOL    HW241662  12.742   4.359   0.973
13275SOL     OW41663  13.339   1.585   7.085
13275SOL    HW141664  13.308   1.675   7.092
13275SOL    HW241665  13.369   1.577   6.995
13276SOL     OW41666  10.478  13.991  10.808
13276SOL    HW141667  10.435  14.031  10.733
13276SOL    HW241668  10.434  14.029  10.884
13277SOL     OW41669   8.546   2.076   9.342
13277SOL    HW141670   8.610   2.128   9.391
13277SOL    HW241671   8.562   2.098   9.250
13278SOL     OW41672  14.039   7.352   7.436
13278SOL    HW141673  13.951   7.336   7.469
13278SOL    HW241674  14.053   7.284   7.371
13279SOL     OW41675   9.119  12.933  13.726
13279SOL    HW141676   9.194  12.886  13.763
13279SOL    HW241677   9.083  12.983  13.800
13280SOL     OW41678  10.645   5.136   7.464
13280SOL    HW141679  10.625   5.198   7.535
13280SOL    HW241680  10.586   5.062   7.479
13281SOL     OW41681   5.536   7.765  11.609
13281SOL    HW141682   5.591   7.686  11.611
13281SOL    HW241683   5.578   7.821  11.544
13282SOL     OW41684   4.360   1.152   6.157
13282SOL    HW141685   4.322   1.186   6.076
13282SOL    HW241686   4.366   1.057   6.143
13283SOL     OW41687  11.145   7.349  13.322
13283SOL    HW141688  11.231   7.307  13.328
13283SOL    HW241689  11.164   7.441  13.306
13284SOL     OW41690  13.281   9.953  14.121
13284SOL    HW141691  13.283   9.858  14.105
13284SOL    HW241692  13.305   9.992  14.037
13285SOL     OW41693   2.335   6.802  11.840
13285SOL    HW141694   2.337   6.779  11.933
13285SOL    HW241695   2.374   6.726  11.796
13286SOL     OW41696   9.987   2.314  11.124
13286SOL    HW141697  10.046   2.259  11.073
13286SOL    HW241698  10.037   2.337  11.202
13287SOL     OW41699   6.073   6.364   0.264
13287SOL    HW141700   6.096   6.314   0.342
13287SOL    HW241701   6.143   6.428   0.255
13288SOL     OW41702   9.335  13.223   7.954
13288SOL    HW141703   9.395  13.293   7.978
13288SOL    HW241704   9.366  13.147   8.003
13289SOL     OW41705   3.819   6.983   8.481
13289SOL    HW141706   3.894   7.038   8.505
13289SOL    HW241707   3.758   6.994   8.554
13290SOL     OW41708   0.594  13.498   1.044
13290SOL    HW141709   0.601  13.467   1.135
13290SOL    HW241710   0.684  13.499   1.012
13291SOL     OW41711  13.476  14.759   5.545
13291SOL    HW141712  13.519  14.714   5.472
13291SOL    HW241713  13.511  14.718   5.624
13292SOL     OW41714   1.135   7.623   5.738
13292SOL    HW141715   1.172   7.661   5.817
13292SOL    HW241716   1.152   7.529   5.745
13293SOL     OW41717  12.647  10.891   1.723
13293SOL    HW141718  12.663  10.966   1.781
13293SOL    HW241719  12.730  10.845   1.721
13294SOL     OW41720   2.290   8.135  14.629
13294SOL    HW141721   2.325   8.152  14.716
13294SOL    HW241722   2.350   8.070  14.591
13295SOL     OW41723   9.765   5.323   8.664
13295SOL    HW141724   9.840   5.381   8.674
13295SOL    HW241725   9.698   5.378   8.624
13296SOL     OW41726   6.466   5.244   9.211
13296SOL    HW141727   6.532   5.307   9.183
13296SOL    HW241728   6.487   5.164   9.163
13297SOL     OW41729   4.691  10.167   2.930
13297SOL    HW141730   4.640  10.123   2.998
13297SOL    HW241731   4.721  10.248   2.971
13298SOL     OW41732   8.514  11.918   8.329
13298SOL    HW141733   8.538  11.894   8.240
13298SOL    HW241734   8.429  11.962   8.319
13299SOL     OW41735   3.636   8.955  10.677
13299SOL    HW141736   3.722   8.938  10.714
13299SOL    HW241737   3.632   9.050  10.667
13300SOL     OW41738  14.087   2.815  10.157
13300SOL    HW141739  14.135   2.840  10.236
13300SOL    HW241740  14.105   2.721  10.148
13301SOL     OW41741  11.746  12.563   6.335
13301SOL    HW141742  11.767  12.626   6.404
13301SOL    HW241743  11.666  12.520   6.365
13302SOL     OW41744   3.229   2.009   8.205
13302SOL    HW141745   3.149   1.978   8.248
13302SOL    HW241746   3.244   1.948   8.133
13303SOL     OW41747   9.732  10.919   8.911
13303SOL    HW141748   9.753  10.832   8.944
13303SOL    HW241749   9.812  10.970   8.923
13304SOL     OW41750   7.485   5.731   9.934
13304SOL    HW141751   7.415   5.666   9.929
13304SOL    HW241752   7.467   5.780  10.014
13305SOL     OW41753  10.652   1.040   4.565
13305SOL    HW141754  10.708   1.091   4.623
13305SOL    HW241755  10.640   0.956   4.610
13306SOL     OW41756   3.194   5.494   3.042
13306SOL    HW141757   3.155   5.431   2.981
13306SOL    HW241758   3.272   5.449   3.075
13307SOL     OW41759   9.528  12.013   3.242
13307SOL    HW141760   9.491  12.087   3.290
13307SOL    HW241761   9.511  12.033   3.150
13308SOL     OW41762  10.497  13.797   6.100
13308SOL    HW141763  10.521  13.889   6.093
13308SOL    HW241764  10.486  13.782   6.194
13309SOL     OW41765  13.135   3.586   9.233
13309SOL    HW141766  13.126   3.555   9.142
13309SOL    HW241767  13.048   3.622   9.253
13310SOL     OW41768   8.528   9.521  14.453
13310SOL    HW141769   8.566   9.450  14.400
13310SOL    HW241770   8.600   9.549  14.510
13311SOL     OW41771   0.305  12.135   6.770
13311SOL    HW141772   0.213  12.159   6.756
13311SOL    HW241773   0.305  12.040   6.775
13312SOL     OW41774   2.498  14.667  13.065
13312SOL    HW141775   2.471  14.686  12.975
13312SOL    HW241776   2.425  14.696  13.119
13313SOL     OW41777   7.356   7.013  10.891
13313SOL    HW141778   7.386   7.032  10.980
13313SOL    HW241779   7.271   7.057  10.884
13314SOL     OW41780   5.790   4.859  12.659
13314SOL    HW141781   5.700   4.887  12.638
13314SOL    HW241782   5.838   4.872  12.578
13315SOL     OW41783   0.483   8.192   2.238
13315SOL    HW141784   0.560   8.206   2.182
13315SOL    HW241785   0.427   8.267   2.223
13316SOL     OW41786  14.574   4.759  11.307
13316SOL    HW141787  14.633   4.823  11.266
13316SOL    HW241788  14.579   4.683  11.249
13317SOL     OW41789   9.404   1.340   6.523
13317SOL    HW141790   9.421   1.286   6.446
13317SOL    HW241791   9.348   1.410   6.490
13318SOL     OW41792  11.617   6.756   6.943
13318SOL    HW141793  11.551   6.790   7.004
13318SOL    HW241794  11.575   6.760   6.857
13319SOL     OW41795   4.318  12.206   8.369
13319SOL    HW141796   4.265  12.181   8.444
13319SOL    HW241797   4.368  12.128   8.346
13320SOL     OW41798  10.750   6.866   8.841
13320SOL    HW141799  10.741   6.792   8.781
13320SOL    HW241800  10.740   6.943   8.785
13321SOL     OW41801  14.367  11.379   8.116
13321SOL    HW141802  14.326  11.386   8.029
13321SOL    HW241803  14.398  11.468   8.135
13322SOL     OW41804   5.290   1.624   8.473
13322SOL    HW141805   5.285   1.590   8.384
13322SOL    HW241806   5.383   1.625   8.494
13323SOL     OW41807  12.431   1.155   7.448
13323SOL    HW141808  12.412   1.248   7.437
13323SOL    HW241809  12.391   1.131   7.532
13324SOL     OW41810   2.499   6.367   1.269
13324SOL    HW141811   2.410   6.363   1.304
13324SOL    HW241812   2.511   6.459   1.243
13325SOL     OW41813   4.310   5.035   2.948
13325SOL    HW141814   4.294   4.942   2.964
13325SOL    HW241815   4.315   5.074   3.035
13326SOL     OW41816   5.779  13.563   1.651
13326SOL    HW141817   5.784  13.591   1.743
13326SOL    HW241818   5.857  13.510   1.638
13327SOL     OW41819   5.404  11.353   9.747
13327SOL    HW141820   5.497  11.350   9.724
13327SOL    HW241821   5.389  11.444   9.776
13328SOL     OW41822   1.623   6.137   9.329
13328SOL    HW141823   1.704   6.088   9.341
13328SOL    HW241824   1.633   6.215   9.383
13329SOL     OW41825  13.028   0.439   0.625
13329SOL    HW141826  13.082   0.372   0.583
13329SOL    HW241827  13.003   0.400   0.709
13330SOL     OW41828   5.122  12.720   6.377
13330SOL    HW141829   5.088  12.796   6.424
13330SOL    HW241830   5.086  12.729   6.288
13331SOL     OW41831   7.223   4.655  12.242
13331SOL    HW141832   7.220   4.560  12.229
13331SOL    HW241833   7.155   4.673  12.307
13332SOL     OW41834   4.195   4.138  14.219
13332SOL    HW141835   4.242   4.113  14.299
13332SOL    HW241836   4.185   4.233  14.226
13333SOL     OW41837   8.793   1.928   8.606
13333SOL    HW141838   8.715   1.899   8.654
13333SOL    HW241839   8.758   1.968   8.527
13334SOL     OW41840   8.179   0.636  11.973
13334SOL    HW141841   8.190   0.708  12.035
13334SOL    HW241842   8.100   0.591  12.002
13335SOL     OW41843   7.758   4.881  12.204
13335SOL    HW141844   7.748   4.791  12.236
13335SOL    HW241845   7.810   4.925  12.272
13336SOL     OW41846   9.575   2.027   0.972
13336SOL    HW141847   9.510   2.062   0.911
13336SOL    HW241848   9.523   1.987   1.042
13337SOL     OW41849   3.934   4.521  11.251
13337SOL    HW141850   3.870   4.524  11.180
13337SOL    HW241851   3.910   4.593  11.309
13338SOL     OW41852   5.356  10.496  14.577
13338SOL    HW141853   5.283  10.459  14.528
13338SOL    HW241854   5.422  10.517  14.511
13339SOL     OW41855   2.201   1.669   9.541
13339SOL    HW141856   2.170   1.595   9.594
13339SOL    HW241857   2.232   1.628   9.460
13340SOL     OW41858   5.517   0.731   3.499
13340SOL    HW141859   5.423   0.732   3.516
13340SOL    HW241860   5.524   0.704   3.407
13341SOL     OW41861   4.347   5.585   4.141
13341SOL    HW141862   4.407   5.611   4.211
13341SOL    HW241863   4.300   5.665   4.119
13342SOL     OW41864   6.295  12.804  11.096
13342SOL    HW141865   6.311  12.742  11.167
13342SOL    HW241866   6.378  12.850  11.084
13343SOL     OW41867   0.773   3.552   8.989
13343SOL    HW141868   0.736   3.620   8.932
13343SOL    HW241869   0.712   3.546   9.062
13344SOL     OW41870  12.277   4.318   8.286
13344SOL    HW141871  12.304   4.333   8.196
13344SOL    HW241872  12.240   4.402   8.315
13345SOL     OW41873   9.156   1.593   8.693
13345SOL    HW141874   9.100   1.563   8.765
13345SOL    HW241875   9.143   1.688   8.692
13346SOL     OW41876   3.698  12.735  12.504
13346SOL    HW141877   3.672  12.648  12.536
13346SOL    HW241878   3.622  12.767  12.456
13347SOL     OW41879   5.968  11.891  13.214
13347SOL    HW141880   6.029  11.820  13.237
13347SOL    HW241881   5.986  11.959  13.278
13348SOL     OW41882   9.183   4.388   9.120
13348SOL    HW141883   9.195   4.458   9.185
13348SOL    HW241884   9.144   4.431   9.045
13349SOL     OW41885   8.054   4.013   9.600
13349SOL    HW141886   8.140   3.972   9.593
13349SOL    HW241887   8.023   3.989   9.687
13350SOL     OW41888   1.221   6.742   7.646
13350SOL    HW141889   1.215   6.650   7.620
13350SOL    HW241890   1.207   6.741   7.741
13351SOL     OW41891   3.376   9.916   5.252
13351SOL    HW141892   3.356   9.847   5.189
13351SOL    HW241893   3.309   9.906   5.320
13352SOL     OW41894   0.718   4.330   1.552
13352SOL    HW141895   0.781   4.306   1.620
13352SOL    HW241896   0.646   4.269   1.565
13353SOL     OW41897  10.105  13.307  14.491
13353SOL    HW141898  10.027  13.253  14.482
13353SOL    HW241899  10.099  13.344  14.579
13354SOL     OW41900  14.174   1.747   0.829
13354SOL    HW141901  14.261   1.765   0.792
13354SOL    HW241902  14.113   1.783   0.765
13355SOL     OW41903  10.425   8.866  14.241
13355SOL    HW141904  10.340   8.857  14.284
13355SOL    HW241905  10.445   8.959  14.247
13356SOL     OW41906   8.817   7.404   9.415
13356SOL    HW141907   8.845   7.422   9.505
13356SOL    HW241908   8.852   7.317   9.397
13357SOL     OW41909   4.923   2.049  12.553
13357SOL    HW141910   4.926   2.006  12.639
13357SOL    HW241911   4.938   1.978  12.491
13358SOL     OW41912   2.451   8.988   9.038
13358SOL    HW141913   2.450   9.067   9.094
13358SOL    HW241914   2.361   8.979   9.007
13359SOL     OW41915   3.243  11.892   4.543
13359SOL    HW141916   3.149  11.878   4.554
13359SOL    HW241917   3.283  11.856   4.622
13360SOL     OW41918  11.378   3.994   6.544
13360SOL    HW141919  11.374   3.970   6.451
13360SOL    HW241920  11.343   4.083   6.548
13361SOL     OW41921  10.522   1.730  14.715
13361SOL    HW141922  10.525   1.771  14.802
13361SOL    HW241923  10.439   1.760  14.678
13362SOL     OW41924  12.092   9.677  12.279
13362SOL    HW141925  12.025   9.744  12.297
13362SOL    HW241926  12.056   9.597  12.317
13363SOL     OW41927  13.694  13.725   9.566
13363SOL    HW141928  13.741  13.801   9.599
13363SOL    HW241929  13.742  13.650   9.602
13364SOL     OW41930  13.966   9.633   2.460
13364SOL    HW141931  13.986   9.601   2.548
13364SOL    HW241932  13.966   9.729   2.469
13365SOL     OW41933   9.528   4.787   1.301
13365SOL    HW141934   9.462   4.809   1.236
13365SOL    HW241935   9.566   4.871   1.327
13366SOL     OW41936   6.024   6.121  10.738
13366SOL    HW141937   5.954   6.087  10.794
13366SOL    HW241938   6.071   6.044  10.708
13367SOL     OW41939   8.261   3.647  12.580
13367SOL    HW141940   8.344   3.647  12.532
13367SOL    HW241941   8.266   3.723  12.637
13368SOL     OW41942   7.811   0.902   3.735
13368SOL    HW141943   7.845   0.984   3.773
13368SOL    HW241944   7.722   0.895   3.769
13369SOL     OW41945  12.923   6.794   3.416
13369SOL    HW141946  12.997   6.841   3.455
13369SOL    HW241947  12.846   6.840   3.448
13370SOL     OW41948   4.861   3.550   1.676
13370SOL    HW141949   4.766   3.545   1.688
13370SOL    HW241950   4.896   3.486   1.739
13371SOL     OW41951   7.156   3.745   9.054
13371SOL    HW141952   7.181   3.745   8.962
13371SOL    HW241953   7.092   3.815   9.063
13372SOL     OW41954  12.742  10.138   6.946
13372SOL    HW141955  12.650  10.129   6.921
13372SOL    HW241956  12.744  10.214   7.004
13373SOL     OW41957   1.460   1.486   7.742
13373SOL    HW141958   1.449   1.579   7.722
13373SOL    HW241959   1.371   1.451   7.748
13374SOL     OW41960   8.900   6.661   4.878
13374SOL    HW141961   8.841   6.731   4.909
13374SOL    HW241962   8.905   6.600   4.952
13375SOL     OW41963   5.821   1.409   0.290
13375SOL    HW141964   5.800   1.317   0.307
13375SOL    HW241965   5.880   1.434   0.361
13376SOL     OW41966  12.812  12.716   2.114
13376SOL    HW141967  12.756  12.691   2.187
13376SOL    HW241968  12.899  12.726   2.153
13377SOL     OW41969   2.593   9.475  13.787
13377SOL    HW141970   2.574   9.382  13.801
13377SOL    HW241971   2.571   9.490  13.695
13378SOL     OW41972  11.656  11.381   4.420
13378SOL    HW141973  11.563  11.392   4.401
13378SOL    HW241974  11.696  11.362   4.335
13379SOL     OW41975  10.638   1.546   3.264
13379SOL    HW141976  10.709   1.486   3.242
13379SOL    HW241977  10.571   1.491   3.304
13380SOL     OW41978  13.411  10.915   3.744
13380SOL    HW141979  13.336  10.957   3.700
13380SOL    HW241980  13.378  10.829   3.770
13381SOL     OW41981   0.207   2.031   6.829
13381SOL    HW141982   0.171   2.114   6.798
13381SOL    HW241983   0.274   2.056   6.893
13382SOL     OW41984  13.671   5.771   6.151
13382SOL    HW141985  13.652   5.864   6.134
13382SOL    HW241986  13.615   5.749   6.225
13383SOL     OW41987  12.331   2.888   9.529
13383SOL    HW141988  12.370   2.867   9.444
13383SOL    HW241989  12.347   2.982   9.540
13384SOL     OW41990  11.950   8.665   6.474
13384SOL    HW141991  12.005   8.739   6.498
13384SOL    HW241992  11.878   8.703   6.424
13385SOL     OW41993  11.494   8.106   4.742
13385SOL    HW141994  11.444   8.178   4.780
13385SOL    HW241995  11.480   8.115   4.647
13386SOL     OW41996   7.150   2.835   7.139
13386SOL    HW141997   7.152   2.828   7.043
13386SOL    HW241998   7.058   2.853   7.159
13387SOL     OW41999  13.989  12.969   6.468
13387SOL    HW142000  13.970  13.034   6.399
13387SOL    HW242001  14.059  12.915   6.431
13388SOL     OW42002   1.124   9.672   8.887
13388SOL    HW142003   1.164   9.653   8.803
13388SOL    HW242004   1.059   9.740   8.868
13389SOL     OW42005   4.307   7.071   8.097
13389SOL    HW142006   4.336   7.053   8.187
13389SOL    HW242007   4.388   7.088   8.049
13390SOL     OW42008   6.719   7.264   0.263
13390SOL    HW142009   6.782   7.295   0.198
13390SOL    HW242010   6.772   7.237   0.338
13391SOL     OW42011   6.325   0.799  12.326
13391SOL    HW142012   6.238   0.829  12.298
13391SOL    HW242013   6.366   0.765  12.247
13392SOL     OW42014   2.380   2.294   8.533
13392SOL    HW142015   2.361   2.277   8.625
13392SOL    HW242016   2.433   2.374   8.533
13393SOL     OW42017   7.679   4.308   4.516
13393SOL    HW142018   7.718   4.310   4.603
13393SOL    HW242019   7.612   4.377   4.518
13394SOL     OW42020  11.532   7.617  13.267
13394SOL    HW142021  11.477   7.628  13.190
13394SOL    HW242022  11.585   7.697  13.271
13395SOL     OW42023   1.818   4.348  13.883
13395SOL    HW142024   1.903   4.387  13.862
13395SOL    HW242025   1.760   4.423  13.898
13396SOL     OW42026   8.720   2.087  14.065
13396SOL    HW142027   8.741   1.996  14.083
13396SOL    HW242028   8.758   2.104  13.979
13397SOL     OW42029   8.217   7.242   2.614
13397SOL    HW142030   8.132   7.242   2.569
13397SOL    HW242031   8.206   7.306   2.685
13398SOL     OW42032  11.725   6.673   6.503
13398SOL    HW142033  11.796   6.737   6.491
13398SOL    HW242034  11.668   6.713   6.569
13399SOL     OW42035  12.092   0.787   4.959
13399SOL    HW142036  12.185   0.789   4.981
13399SOL    HW242037  12.071   0.694   4.950
13400SOL     OW42038   8.309  13.442  13.979
13400SOL    HW142039   8.394  13.457  13.939
13400SOL    HW242040   8.320  13.363  14.032
13401SOL     OW42041   1.912   3.724   9.805
13401SOL    HW142042   1.818   3.711   9.815
13401SOL    HW242043   1.940   3.652   9.748
13402SOL     OW42044   5.741   2.863  10.473
13402SOL    HW142045   5.678   2.887  10.541
13402SOL    HW242046   5.699   2.793  10.424
13403SOL     OW42047   7.033  14.464   7.089
13403SOL    HW142048   7.026  14.467   7.184
13403SOL    HW242049   7.105  14.403   7.072
13404SOL     OW42050  12.027   3.316  13.008
13404SOL    HW142051  12.041   3.410  13.005
13404SOL    HW242052  11.937   3.303  12.978
13405SOL     OW42053   5.406  10.565   5.750
13405SOL    HW142054   5.466  10.640   5.752
13405SOL    HW242055   5.367  10.568   5.663
13406SOL     OW42056  14.699  14.348  11.370
13406SOL    HW142057  14.783  14.338  11.324
13406SOL    HW242058  14.655  14.418  11.322
13407SOL     OW42059  13.769   7.086  11.661
13407SOL    HW142060  13.853   7.070  11.703
13407SOL    HW242061  13.724   7.147  11.719
13408SOL     OW42062   9.474   0.308   3.352
13408SOL    HW142063   9.474   0.326   3.446
13408SOL    HW242064   9.404   0.245   3.339
13409SOL     OW42065   2.120  11.762   8.603
13409SOL    HW142066   2.055  11.717   8.657
13409SOL    HW242067   2.198  11.706   8.607
13410SOL     OW42068   5.957  11.518   8.825
13410SOL    HW142069   6.015  11.493   8.753
13410SOL    HW242070   5.896  11.581   8.786
13411SOL     OW42071   9.744   9.132   6.541
13411SOL    HW142072   9.706   9.213   6.575
13411SOL    HW242073   9.796   9.160   6.466
13412SOL     OW42074   9.887  12.932   0.414
13412SOL    HW142075   9.820  12.900   0.354
13412SOL    HW242076   9.960  12.956   0.358
13413SOL     OW42077   2.625   0.652   1.157
13413SOL    HW142078   2.643   0.614   1.244
13413SOL    HW242079   2.549   0.709   1.171
13414SOL     OW42080   7.623   8.969   9.283
13414SOL    HW142081   7.686   8.977   9.355
13414SOL    HW242082   7.557   9.037   9.301
13415SOL     OW42083   4.384   7.631   2.836
13415SOL    HW142084   4.440   7.673   2.771
13415SOL    HW242085   4.444   7.607   2.907
13416SOL     OW42086   4.764   1.117  12.562
13416SOL    HW142087   4.699   1.048  12.552
13416SOL    HW242088   4.755   1.171  12.483
13417SOL     OW42089   9.014   6.353   0.933
13417SOL    HW142090   9.054   6.430   0.892
13417SOL    HW242091   8.945   6.326   0.872
13418SOL     OW42092  12.238  14.673   4.194
13418SOL    HW142093  12.228  14.585   4.158
13418SOL    HW242094  12.321  14.704   4.159
13419SOL     OW42095  12.157   1.670  10.532
13419SOL    HW142096  12.129   1.600  10.473
13419SOL    HW242097  12.107   1.747  10.504
13420SOL     OW42098   7.150   6.677   3.097
13420SOL    HW142099   7.061   6.654   3.125
13420SOL    HW242100   7.206   6.647   3.168
13421SOL     OW42101   8.907  13.779   6.183
13421SOL    HW142102   8.937  13.699   6.226
13421SOL    HW242103   8.869  13.749   6.100
13422SOL     OW42104   9.926   5.126   3.529
13422SOL    HW142105   9.848   5.166   3.570
13422SOL    HW242106   9.935   5.173   3.446
13423SOL     OW42107  11.872   4.786  13.004
13423SOL    HW142108  11.777   4.800  13.003
13423SOL    HW242109  11.883   4.692  12.990
13424SOL     OW42110   0.818  13.052   1.820
13424SOL    HW142111   0.725  13.076   1.819
13424SOL    HW242112   0.841  13.049   1.913
13425SOL     OW42113  11.164  12.142  13.360
13425SOL    HW142114  11.185  12.210  13.424
13425SOL    HW242115  11.222  12.161  13.286
13426SOL     OW42116  12.764   3.606  12.497
13426SOL    HW142117  12.702   3.674  12.525
13426SOL    HW242118  12.811   3.644  12.423
13427SOL     OW42119   3.866   5.273  11.540
13427SOL    HW142120   3.812   5.204  11.503
13427SOL    HW242121   3.811   5.352  11.534
13428SOL     OW42122  14.097  12.365  13.075
13428SOL    HW142123  14.155  12.387  13.148
13428SOL    HW242124  14.015  12.410  13.095
13429SOL     OW42125   8.495   0.189   9.783
13429SOL    HW142126   8.551   0.148   9.849
13429SOL    HW242127   8.448   0.257   9.831
13430SOL     OW42128   2.067   6.756   0.618
13430SOL    HW142129   2.014   6.822   0.664
13430SOL    HW242130   2.144   6.804   0.589
13431SOL     OW42131   7.855   5.689   2.066
13431SOL    HW142132   7.837   5.776   2.100
13431SOL    HW242133   7.924   5.703   2.000
13432SOL     OW42134   3.255  12.383   8.649
13432SOL    HW142135   3.307  12.462   8.656
13432SOL    HW242136   3.183  12.407   8.590
13433SOL     OW42137   9.223  14.543  13.370
13433SOL    HW142138   9.261  14.550  13.457
13433SOL    HW242139   9.160  14.615  13.365
13434SOL     OW42140  10.483   9.508   7.726
13434SOL    HW142141  10.402   9.557   7.710
13434SOL    HW242142  10.553   9.569   7.702
13435SOL     OW42143  12.172   3.254   9.374
13435SOL    HW142144  12.085   3.238   9.412
13435SOL    HW242145  12.158   3.330   9.316
13436SOL     OW42146  14.879   4.612  10.485
13436SOL    HW142147   0.049   4.554  10.428
13436SOL    HW242148   0.062   4.680  10.510
13437SOL     OW42149   0.417   8.089   3.200
13437SOL    HW142150   0.382   8.119   3.116
13437SOL    HW242151   0.357   8.020   3.228
13438SOL     OW42152   8.421   3.454  11.991
13438SOL    HW142153   8.408   3.380  11.931
13438SOL    HW242154   8.343   3.509  11.979
13439SOL     OW42155   7.089   2.277   5.268
13439SOL    HW142156   7.180   2.268   5.242
13439SOL    HW242157   7.084   2.362   5.312
13440SOL     OW42158  12.364  12.813  12.794
13440SOL    HW142159  12.413  12.893  12.811
13440SOL    HW242160  12.403  12.776  12.715
13441SOL     OW42161   8.923   3.304   8.957
13441SOL    HW142162   8.940   3.247   8.881
13441SOL    HW242163   8.828   3.315   8.957
13442SOL     OW42164   4.101  11.866  10.207
13442SOL    HW142165   4.105  11.777  10.171
13442SOL    HW242166   4.081  11.853  10.300
13443SOL     OW42167  13.925  13.764   4.308
13443SOL    HW142168  14.007  13.719   4.332
13443SOL    HW242169  13.932  13.850   4.351
13444SOL     OW42170   6.397   1.073  11.535
13444SOL    HW142171   6.492   1.077  11.531
13444SOL    HW242172   6.369   1.163  11.521
13445SOL     OW42173   0.116  12.470   2.633
13445SOL    HW142174   0.020  12.463   2.638
13445SOL    HW242175   0.135  12.462   2.540
13446SOL     OW42176   1.041   9.087   4.160
13446SOL    HW142177   1.048   9.012   4.220
13446SOL    HW242178   0.992   9.152   4.209
13447SOL     OW42179  12.184   8.174   6.396
13447SOL    HW142180  12.202   8.173   6.302
13447SOL    HW242181  12.133   8.253   6.410
13448SOL     OW42182   8.922   7.631   0.962
13448SOL    HW142183   8.884   7.601   0.879
13448SOL    HW242184   8.927   7.553   1.016
13449SOL     OW42185  12.821  13.256  12.715
13449SOL    HW142186  12.860  13.214  12.792
13449SOL    HW242187  12.817  13.349  12.739
13450SOL     OW42188   3.534   6.288   2.730
13450SOL    HW142189   3.542   6.363   2.789
13450SOL    HW242190   3.571   6.319   2.647
13451SOL     OW42191  12.628   6.217   9.626
13451SOL    HW142192  12.603   6.127   9.648
13451SOL    HW242193  12.723   6.219   9.640
13452SOL     OW42194   7.969   4.757   1.397
13452SOL    HW142195   7.882   4.796   1.391
13452SOL    HW242196   7.970   4.690   1.328
13453SOL     OW42197   2.763   9.638  13.337
13453SOL    HW142198   2.805   9.687  13.266
13453SOL    HW242199   2.809   9.667  13.416
13454SOL     OW42200   1.939  13.685  10.259
13454SOL    HW142201   1.845  13.668  10.250
13454SOL    HW242202   1.979  13.639  10.185
13455SOL     OW42203   8.206   5.296   9.174
13455SOL    HW142204   8.161   5.237   9.114
13455SOL    HW242205   8.274   5.338   9.120
13456SOL     OW42206  14.449   1.384  11.440
13456SOL    HW142207  14.374   1.352  11.390
13456SOL    HW242208  14.450   1.330  11.519
13457SOL     OW42209  13.573   8.086   7.609
13457SOL    HW142210  13.497   8.077   7.666
13457SOL    HW242211  13.563   8.171   7.568
13458SOL     OW42212  10.810   5.305   3.689
13458SOL    HW142213  10.864   5.378   3.658
13458SOL    HW242214  10.748   5.289   3.617
13459SOL     OW42215   6.308   9.185  12.606
13459SOL    HW142216   6.309   9.095  12.572
13459SOL    HW242217   6.231   9.188  12.663
13460SOL     OW42218   8.716  12.788   0.500
13460SOL    HW142219   8.655  12.721   0.468
13460SOL    HW242220   8.721  12.852   0.429
13461SOL     OW42221  12.118   8.715   0.965
13461SOL    HW142222  12.142   8.666   0.886
13461SOL    HW242223  12.133   8.654   1.037
13462SOL     OW42224   7.619   6.230  14.324
13462SOL    HW142225   7.611   6.322  14.347
13462SOL    HW242226   7.578   6.184  14.398
13463SOL     OW42227   8.036   8.632  12.344
13463SOL    HW142228   8.033   8.542  12.377
13463SOL    HW242229   7.944   8.658  12.337
13464SOL     OW42230   0.258   4.548   6.535
13464SOL    HW142231   0.164   4.552   6.556
13464SOL    HW242232   0.264   4.484   6.464
13465SOL     OW42233   7.799   3.923   0.540
13465SOL    HW142234   7.851   3.904   0.462
13465SOL    HW242235   7.759   4.007   0.522
13466SOL     OW42236   5.988   7.415   3.189
13466SOL    HW142237   5.986   7.395   3.282
13466SOL    HW242238   6.080   7.435   3.171
13467SOL     OW42239   4.540   4.164  12.945
13467SOL    HW142240   4.575   4.245  12.982
13467SOL    HW242241   4.598   4.144  12.871
13468SOL     OW42242   7.432  14.212   7.227
13468SOL    HW142243   7.430  14.271   7.151
13468SOL    HW242244   7.379  14.137   7.199
13469SOL     OW42245   4.188  12.370   5.685
13469SOL    HW142246   4.146  12.429   5.748
13469SOL    HW242247   4.252  12.425   5.640
13470SOL     OW42248   8.137  13.059   3.916
13470SOL    HW142249   8.095  13.013   3.843
13470SOL    HW242250   8.122  13.002   3.992
13471SOL     OW42251   3.659   2.150   1.597
13471SOL    HW142252   3.680   2.227   1.649
13471SOL    HW242253   3.639   2.082   1.662
13472SOL     OW42254  14.599  11.016   2.090
13472SOL    HW142255  14.549  10.936   2.107
13472SOL    HW242256  14.678  11.006   2.142
13473SOL     OW42257   8.548  12.164  10.016
13473SOL    HW142258   8.581  12.185  10.104
13473SOL    HW242259   8.473  12.107  10.033
13474SOL     OW42260  13.427   2.805   3.061
13474SOL    HW142261  13.408   2.715   3.088
13474SOL    HW242262  13.442   2.799   2.966
13475SOL     OW42263   4.418  11.245   0.238
13475SOL    HW142264   4.328  11.215   0.226
13475SOL    HW242265   4.432  11.310   0.169
13476SOL     OW42266   7.863  13.715   6.874
13476SOL    HW142267   7.836  13.714   6.782
13476SOL    HW242268   7.867  13.623   6.899
13477SOL     OW42269  14.414   0.107   6.447
13477SOL    HW142270  14.412   0.184   6.505
13477SOL    HW242271  14.456   0.039   6.499
13478SOL     OW42272   8.250   3.293  10.251
13478SOL    HW142273   8.158   3.318  10.251
13478SOL    HW242274   8.286   3.337  10.328
13479SOL     OW42275   8.562  13.018   8.875
13479SOL    HW142276   8.519  12.955   8.933
13479SOL    HW242277   8.490  13.075   8.845
13480SOL     OW42278   4.499   2.058   7.606
13480SOL    HW142279   4.544   2.031   7.526
13480SOL    HW242280   4.411   2.022   7.597
13481SOL     OW42281   1.209  13.217   0.982
13481SOL    HW142282   1.255  13.255   1.057
13481SOL    HW242283   1.117  13.216   1.009
13482SOL     OW42284   6.042   8.482   7.324
13482SOL    HW142285   5.988   8.557   7.301
13482SOL    HW242286   6.029   8.471   7.418
13483SOL     OW42287   2.601   3.343  12.038
13483SOL    HW142288   2.551   3.422  12.016
13483SOL    HW242289   2.650   3.324  11.958
13484SOL     OW42290   1.290   1.956  13.668
13484SOL    HW142291   1.251   2.031  13.713
13484SOL    HW242292   1.381   1.983  13.652
13485SOL     OW42293   0.949  13.544   5.606
13485SOL    HW142294   0.878  13.547   5.670
13485SOL    HW242295   0.913  13.493   5.533
13486SOL     OW42296   1.803   3.874   4.567
13486SOL    HW142297   1.841   3.930   4.635
13486SOL    HW242298   1.729   3.925   4.533
13487SOL     OW42299  11.494   0.969   9.333
13487SOL    HW142300  11.548   0.893   9.313
13487SOL    HW242301  11.405   0.941   9.312
13488SOL     OW42302   0.292  10.365  10.542
13488SOL    HW142303   0.226  10.337  10.478
13488SOL    HW242304   0.254  10.443  10.583
13489SOL     OW42305   8.475   1.145   3.166
13489SOL    HW142306   8.479   1.177   3.257
13489SOL    HW242307   8.384   1.156   3.141
13490SOL     OW42308  11.955   3.112   3.589
13490SOL    HW142309  12.041   3.085   3.623
13490SOL    HW242310  11.917   3.032   3.553
13491SOL     OW42311  13.808   5.361  13.269
13491SOL    HW142312  13.764   5.406  13.341
13491SOL    HW242313  13.748   5.290  13.245
13492SOL     OW42314   3.778   5.209  14.224
13492SOL    HW142315   3.866   5.195  14.191
13492SOL    HW242316   3.789   5.270  14.297
13493SOL     OW42317   2.310   3.960   5.772
13493SOL    HW142318   2.234   3.902   5.783
13493SOL    HW242319   2.386   3.901   5.774
13494SOL     OW42320   3.939  11.542  14.035
13494SOL    HW142321   3.963  11.511  13.947
13494SOL    HW242322   3.853  11.505  14.051
13495SOL     OW42323  14.474   4.901  12.721
13495SOL    HW142324  14.553   4.848  12.725
13495SOL    HW242325  14.410   4.845  12.676
13496SOL     OW42326  10.035   8.888   3.901
13496SOL    HW142327   9.981   8.947   3.848
13496SOL    HW242328  10.011   8.908   3.991
13497SOL     OW42329   5.153   3.091  13.598
13497SOL    HW142330   5.171   3.093  13.692
13497SOL    HW242331   5.058   3.079  13.591
13498SOL     OW42332   8.430  14.315   5.386
13498SOL    HW142333   8.412  14.406   5.410
13498SOL    HW242334   8.354  14.266   5.416
13499SOL     OW42335   0.829   8.931   1.892
13499SOL    HW142336   0.847   9.007   1.837
13499SOL    HW242337   0.741   8.903   1.865
13500SOL     OW42338   2.536  10.802   7.894
13500SOL    HW142339   2.612  10.757   7.930
13500SOL    HW242340   2.465  10.739   7.902
13501SOL     OW42341  11.013  14.282   4.579
13501SOL    HW142342  11.035  14.365   4.623
13501SOL    HW242343  11.067  14.217   4.624
13502SOL     OW42344  14.721  13.533  10.417
13502SOL    HW142345  14.808  13.515  10.453
13502SOL    HW242346  14.724  13.626  10.393
13503SOL     OW42347   8.661   3.878   6.929
13503SOL    HW142348   8.681   3.962   6.972
13503SOL    HW242349   8.673   3.896   6.836
13504SOL     OW42350  11.890   0.543  14.855
13504SOL    HW142351  11.960   0.514   0.035
13504SOL    HW242352  11.913   0.504  14.770
13505SOL     OW42353   3.047  13.296   8.895
13505SOL    HW142354   3.058  13.363   8.963
13505SOL    HW242355   3.078  13.215   8.936
13506SOL     OW42356   8.102  13.787   4.315
13506SOL    HW142357   8.083  13.863   4.260
13506SOL    HW242358   8.137  13.722   4.255
13507SOL     OW42359   9.637  12.248  11.554
13507SOL    HW142360   9.653  12.276  11.464
13507SOL    HW242361   9.668  12.322  11.607
13508SOL     OW42362   8.435  11.361   0.855
13508SOL    HW142363   8.443  11.397   0.766
13508SOL    HW242364   8.505  11.296   0.860
13509SOL     OW42365  11.430   6.907   1.428
13509SOL    HW142366  11.474   6.973   1.481
13509SOL    HW242367  11.495   6.884   1.360
13510SOL     OW42368   2.795   4.333   3.236
13510SOL    HW142369   2.801   4.407   3.176
13510SOL    HW242370   2.874   4.339   3.289
13511SOL     OW42371   9.792  13.043   3.054
13511SOL    HW142372   9.869  13.060   3.000
13511SOL    HW242373   9.815  13.077   3.140
13512SOL     OW42374   9.516  14.280   5.157
13512SOL    HW142375   9.612  14.286   5.165
13512SOL    HW242376   9.493  14.350   5.097
13513SOL     OW42377  11.508   9.906   1.603
13513SOL    HW142378  11.478   9.996   1.586
13513SOL    HW242379  11.546   9.877   1.521
13514SOL     OW42380   9.898  12.648   2.779
13514SOL    HW142381   9.864  12.649   2.869
13514SOL    HW242382   9.980  12.598   2.785
13515SOL     OW42383   1.428   4.402   5.169
13515SOL    HW142384   1.369   4.342   5.124
13515SOL    HW242385   1.504   4.349   5.192
13516SOL     OW42386  11.643  12.070   2.974
13516SOL    HW142387  11.728  12.103   3.004
13516SOL    HW242388  11.629  11.990   3.024
13517SOL     OW42389   2.862   7.522   7.321
13517SOL    HW142390   2.775   7.494   7.292
13517SOL    HW242391   2.885   7.594   7.262
13518SOL     OW42392  11.206  14.185   0.845
13518SOL    HW142393  11.150  14.262   0.835
13518SOL    HW242394  11.153  14.112   0.814
13519SOL     OW42395   8.377  11.372  10.315
13519SOL    HW142396   8.327  11.292  10.332
13519SOL    HW242397   8.333  11.412  10.241
13520SOL     OW42398   1.661  11.029  12.508
13520SOL    HW142399   1.644  10.951  12.455
13520SOL    HW242400   1.622  11.009  12.593
13521SOL     OW42401  14.363   4.683   1.573
13521SOL    HW142402  14.348   4.776   1.560
13521SOL    HW242403  14.291   4.640   1.527
13522SOL     OW42404   5.751   8.526  10.079
13522SOL    HW142405   5.692   8.487  10.142
13522SOL    HW242406   5.710   8.608  10.054
13523SOL     OW42407   5.551   2.776   2.198
13523SOL    HW142408   5.637   2.792   2.236
13523SOL    HW242409   5.544   2.681   2.194
13524SOL     OW42410   7.274   8.137  11.017
13524SOL    HW142411   7.296   8.044  11.018
13524SOL    HW242412   7.309   8.171  11.099
13525SOL     OW42413  14.860  14.064  10.585
13525SOL    HW142414   0.013  13.986  10.539
13525SOL    HW242415  14.765  14.052  10.589
13526SOL     OW42416  12.312   2.370   5.019
13526SOL    HW142417  12.354   2.450   5.049
13526SOL    HW242418  12.218   2.390   5.022
13527SOL     OW42419   1.264  10.547   1.130
13527SOL    HW142420   1.222  10.526   1.214
13527SOL    HW242421   1.208  10.506   1.064
13528SOL     OW42422  12.603  14.013  11.658
13528SOL    HW142423  12.635  14.104  11.657
13528SOL    HW242424  12.643  13.973  11.581
13529SOL     OW42425   0.541   7.209  10.863
13529SOL    HW142426   0.535   7.233  10.771
13529SOL    HW242427   0.494   7.279  10.909
13530SOL     OW42428   4.312  10.341  12.750
13530SOL    HW142429   4.355  10.387  12.823
13530SOL    HW242430   4.224  10.323  12.782
13531SOL     OW42431   0.194   5.834  13.184
13531SOL    HW142432   0.246   5.861  13.260
13531SOL    HW242433   0.120   5.786  13.222
13532SOL     OW42434   8.181   5.292  12.638
13532SOL    HW142435   8.209   5.205  12.609
13532SOL    HW242436   8.159   5.280  12.731
13533SOL     OW42437   8.254  10.939   8.818
13533SOL    HW142438   8.290  11.026   8.803
13533SOL    HW242439   8.173  10.938   8.766
13534SOL     OW42440   3.677   6.215  13.931
13534SOL    HW142441   3.711   6.142  13.982
13534SOL    HW242442   3.605   6.178  13.880
13535SOL     OW42443   4.624   3.244  14.027
13535SOL    HW142444   4.531   3.234  14.009
13535SOL    HW242445   4.631   3.329  14.070
13536SOL     OW42446   3.090   2.897  13.484
13536SOL    HW142447   3.177   2.911  13.523
13536SOL    HW242448   3.047   2.982  13.490
13537SOL     OW42449   3.248   4.609   1.129
13537SOL    HW142450   3.223   4.547   1.197
13537SOL    HW242451   3.201   4.580   1.051
13538SOL     OW42452  10.664   8.007   2.006
13538SOL    HW142453  10.635   8.065   1.936
13538SOL    HW242454  10.589   8.002   2.066
13539SOL     OW42455   9.090  13.314  13.903
13539SOL    HW142456   9.023  13.370  13.943
13539SOL    HW242457   9.057  13.225  13.916
13540SOL     OW42458  14.612  10.632   1.894
13540SOL    HW142459  14.579  10.612   1.982
13540SOL    HW242460  14.568  10.714   1.870
13541SOL     OW42461  10.557   4.724   6.257
13541SOL    HW142462  10.554   4.629   6.267
13541SOL    HW242463  10.644   4.743   6.223
13542SOL     OW42464   5.406   5.342   9.530
13542SOL    HW142465   5.340   5.330   9.462
13542SOL    HW242466   5.460   5.264   9.524
13543SOL     OW42467  13.252  13.162  10.198
13543SOL    HW142468  13.184  13.155  10.131
13543SOL    HW242469  13.333  13.177  10.149
13544SOL     OW42470   6.074   9.531   4.651
13544SOL    HW142471   6.023   9.571   4.721
13544SOL    HW242472   6.160   9.513   4.690
13545SOL     OW42473  13.523   6.877  11.798
13545SOL    HW142474  13.471   6.837  11.868
13545SOL    HW242475  13.515   6.971  11.813
13546SOL     OW42476   7.336   5.724   3.424
13546SOL    HW142477   7.421   5.724   3.468
13546SOL    HW242478   7.278   5.775   3.480
13547SOL     OW42479   6.740   6.808   7.535
13547SOL    HW142480   6.724   6.803   7.629
13547SOL    HW242481   6.760   6.900   7.519
13548SOL     OW42482   3.114   9.206  12.698
13548SOL    HW142483   3.093   9.194  12.605
13548SOL    HW242484   3.183   9.142  12.716
13549SOL     OW42485   8.249   5.250  14.463
13549SOL    HW142486   8.329   5.219  14.505
13549SOL    HW242487   8.194   5.172  14.455
13550SOL     OW42488   4.201   5.762  14.344
13550SOL    HW142489   4.217   5.709  14.422
13550SOL    HW242490   4.256   5.839  14.356
13551SOL     OW42491   0.407  10.527   9.788
13551SOL    HW142492   0.407  10.442   9.833
13551SOL    HW242493   0.380  10.590   9.854
13552SOL     OW42494   3.974   3.452   7.683
13552SOL    HW142495   3.913   3.509   7.637
13552SOL    HW242496   4.021   3.406   7.614
13553SOL     OW42497  13.678   2.510  13.408
13553SOL    HW142498  13.756   2.483  13.360
13553SOL    HW242499  13.640   2.581  13.355
13554SOL     OW42500   6.366   9.546  11.001
13554SOL    HW142501   6.357   9.505  10.914
13554SOL    HW242502   6.294   9.608  11.006
13555SOL     OW42503  14.463   5.973   9.908
13555SOL    HW142504  14.383   6.024   9.903
13555SOL    HW242505  14.512   6.012   9.980
13556SOL     OW42506   7.478  11.134   7.839
13556SOL    HW142507   7.495  11.140   7.745
13556SOL    HW242508   7.470  11.040   7.856
13557SOL     OW42509   9.138  14.722   1.614
13557SOL    HW142510   9.066  14.683   1.665
13557SOL    HW242511   9.154  14.659   1.544
13558SOL     OW42512   8.727   1.085   4.174
13558SOL    HW142513   8.693   1.161   4.221
13558SOL    HW242514   8.664   1.015   4.193
13559SOL     OW42515   7.495   9.063   6.654
13559SOL    HW142516   7.561   9.104   6.709
13559SOL    HW242517   7.433   9.024   6.716
13560SOL     OW42518  14.494  13.064  13.837
13560SOL    HW142519  14.503  13.139  13.895
13560SOL    HW242520  14.419  13.086  13.781
13561SOL     OW42521  11.026   9.892  12.154
13561SOL    HW142522  11.066   9.807  12.173
13561SOL    HW242523  10.977   9.913  12.233
13562SOL     OW42524  10.359   4.659  12.440
13562SOL    HW142525  10.435   4.626  12.488
13562SOL    HW242526  10.283   4.627  12.490
13563SOL     OW42527   7.992   4.931   0.569
13563SOL    HW142528   7.980   4.850   0.519
13563SOL    HW242529   8.071   4.971   0.532
13564SOL     OW42530   0.389  14.069   0.060
13564SOL    HW142531   0.305  14.054   0.015
13564SOL    HW242532   0.446  14.105  14.871
13565SOL     OW42533   9.217  14.753  14.749
13565SOL    HW142534   9.238  14.664  14.776
13565SOL    HW242535   9.287  14.777  14.688
13566SOL     OW42536   2.458  13.536   2.633
13566SOL    HW142537   2.437  13.448   2.602
13566SOL    HW242538   2.379  13.565   2.679
13567SOL     OW42539   3.239   1.152   4.228
13567SOL    HW142540   3.264   1.206   4.153
13567SOL    HW242541   3.290   1.071   4.217
13568SOL     OW42542  11.057  12.502   2.725
13568SOL    HW142543  11.003  12.579   2.708
13568SOL    HW242544  11.146  12.531   2.708
13569SOL     OW42545   8.582   2.709  14.044
13569SOL    HW142546   8.601   2.660  14.124
13569SOL    HW242547   8.543   2.791  14.074
13570SOL     OW42548  12.033   7.827   2.654
13570SOL    HW142549  12.010   7.918   2.642
13570SOL    HW242550  12.129   7.827   2.658
13571SOL     OW42551   0.329   6.182   2.254
13571SOL    HW142552   0.313   6.276   2.258
13571SOL    HW242553   0.242   6.142   2.260
13572SOL     OW42554   7.488   2.650   1.781
13572SOL    HW142555   7.459   2.639   1.690
13572SOL    HW242556   7.490   2.744   1.794
13573SOL     OW42557   4.158   7.957  14.163
13573SOL    HW142558   4.241   7.958  14.212
13573SOL    HW242559   4.179   7.911  14.082
13574SOL     OW42560   2.867   3.177  14.476
13574SOL    HW142561   2.835   3.260  14.511
13574SOL    HW242562   2.845   3.180  14.383
13575SOL     OW42563   8.181   0.995  12.719
13575SOL    HW142564   8.262   1.030  12.756
13575SOL    HW242565   8.210   0.926  12.659
13576SOL     OW42566   4.351   5.296   3.529
13576SOL    HW142567   4.353   5.202   3.517
13576SOL    HW242568   4.434   5.318   3.572
13577SOL     OW42569   2.088  10.907   4.670
13577SOL    HW142570   2.049  10.846   4.607
13577SOL    HW242571   2.130  10.973   4.616
13578SOL     OW42572   5.274  10.900   9.781
13578SOL    HW142573   5.355  10.852   9.764
13578SOL    HW242574   5.253  10.881   9.872
13579SOL     OW42575  12.355  10.638   5.803
13579SOL    HW142576  12.387  10.651   5.714
13579SOL    HW242577  12.406  10.699   5.856
13580SOL     OW42578   9.974   5.062   6.745
13580SOL    HW142579   9.995   5.085   6.655
13580SOL    HW242580  10.022   5.126   6.798
13581SOL     OW42581   3.110   1.164   7.816
13581SOL    HW142582   3.066   1.112   7.883
13581SOL    HW242583   3.136   1.244   7.862
13582SOL     OW42584  13.726  11.700   9.918
13582SOL    HW142585  13.765  11.736   9.997
13582SOL    HW242586  13.635  11.730   9.920
13583SOL     OW42587   1.762  13.624   2.079
13583SOL    HW142588   1.776  13.717   2.094
13583SOL    HW242589   1.683  13.620   2.025
13584SOL     OW42590   3.351   5.117   4.837
13584SOL    HW142591   3.437   5.133   4.798
13584SOL    HW242592   3.369   5.102   4.930
13585SOL     OW42593   0.923   5.428  11.791
13585SOL    HW142594   0.845   5.396  11.836
13585SOL    HW242595   0.986   5.444  11.861
13586SOL     OW42596   4.826  13.520   7.050
13586SOL    HW142597   4.776  13.599   7.068
13586SOL    HW242598   4.824  13.512   6.954
13587SOL     OW42599   9.133  10.965   8.414
13587SOL    HW142600   9.223  10.982   8.384
13587SOL    HW242601   9.089  10.927   8.337
13588SOL     OW42602   7.443   7.786   0.461
13588SOL    HW142603   7.354   7.784   0.426
13588SOL    HW242604   7.496   7.817   0.388
13589SOL     OW42605  12.009   7.310  11.449
13589SOL    HW142606  11.948   7.241  11.422
13589SOL    HW242607  12.091   7.264  11.466
13590SOL     OW42608  13.439   7.725  13.163
13590SOL    HW142609  13.377   7.740  13.092
13590SOL    HW242610  13.421   7.794  13.227
13591SOL     OW42611   6.843  12.801   9.000
13591SOL    HW142612   6.929  12.825   9.036
13591SOL    HW242613   6.784  12.869   9.032
13592SOL     OW42614   9.408   5.945   0.107
13592SOL    HW142615   9.323   5.936   0.064
13592SOL    HW242616   9.406   5.879   0.176
13593SOL     OW42617   9.270   7.988  14.587
13593SOL    HW142618   9.297   8.014  14.499
13593SOL    HW242619   9.296   7.896  14.593
13594SOL     OW42620  14.116   6.581   7.852
13594SOL    HW142621  14.037   6.558   7.902
13594SOL    HW242622  14.087   6.582   7.760
13595SOL     OW42623  13.846   1.943   4.770
13595SOL    HW142624  13.791   1.946   4.848
13595SOL    HW242625  13.796   1.990   4.703
13596SOL     OW42626   9.617  14.089   6.112
13596SOL    HW142627   9.645  14.014   6.060
13596SOL    HW242628   9.610  14.055   6.202
13597SOL     OW42629   8.090  10.080   1.771
13597SOL    HW142630   8.130  10.118   1.850
13597SOL    HW242631   8.138   9.998   1.757
13598SOL     OW42632  12.505   8.117   1.134
13598SOL    HW142633  12.445   8.148   1.065
13598SOL    HW242634  12.584   8.092   1.086
13599SOL     OW42635   9.644  11.082   5.741
13599SOL    HW142636   9.684  11.156   5.695
13599SOL    HW242637   9.669  11.006   5.688
13600SOL     OW42638  10.942   9.419  13.567
13600SOL    HW142639  10.910   9.446  13.653
13600SOL    HW242640  11.024   9.372  13.585
13601SOL     OW42641  13.685   5.446  10.338
13601SOL    HW142642  13.759   5.469  10.282
13601SOL    HW242643  13.610   5.440  10.279
13602SOL     OW42644   6.849   0.859  10.832
13602SOL    HW142645   6.769   0.835  10.880
13602SOL    HW242646   6.818   0.886  10.746
13603SOL     OW42647   5.875   4.744   8.769
13603SOL    HW142648   5.832   4.682   8.710
13603SOL    HW242649   5.826   4.825   8.758
13604SOL     OW42650   9.742   2.015  11.516
13604SOL    HW142651   9.669   2.058  11.560
13604SOL    HW242652   9.820   2.063  11.545
13605SOL     OW42653  13.138   6.460   4.522
13605SOL    HW142654  13.161   6.373   4.555
13605SOL    HW242655  13.205   6.479   4.456
13606SOL     OW42656   8.388  13.839  12.156
13606SOL    HW142657   8.383  13.906  12.088
13606SOL    HW242658   8.353  13.760  12.114
13607SOL     OW42659   8.911  13.454   1.027
13607SOL    HW142660   8.998  13.417   1.038
13607SOL    HW242661   8.907  13.479   0.935
13608SOL     OW42662   9.274   7.383   7.698
13608SOL    HW142663   9.322   7.431   7.766
13608SOL    HW242664   9.294   7.429   7.617
13609SOL     OW42665   5.753   1.846  14.569
13609SOL    HW142666   5.661   1.851  14.595
13609SOL    HW242667   5.798   1.900  14.634
13610SOL     OW42668   9.474  10.361  14.855
13610SOL    HW142669   9.517  10.362  14.769
13610SOL    HW242670   9.466  10.453  14.879
13611SOL     OW42671  12.146   3.230   5.899
13611SOL    HW142672  12.222   3.183   5.863
13611SOL    HW242673  12.168   3.323   5.888
13612SOL     OW42674   1.663   6.999   7.528
13612SOL    HW142675   1.587   6.958   7.569
13612SOL    HW242676   1.637   7.090   7.513
13613SOL     OW42677  13.906  13.794  12.952
13613SOL    HW142678  13.860  13.851  13.013
13613SOL    HW242679  13.844  13.723  12.933
13614SOL     OW42680  10.970   6.251   3.720
13614SOL    HW142681  10.989   6.251   3.813
13614SOL    HW242682  11.055   6.242   3.677
13615SOL     OW42683  11.471  14.623  13.433
13615SOL    HW142684  11.548  14.649  13.382
13615SOL    HW242685  11.404  14.688  13.411
13616SOL     OW42686   3.568  12.857   3.492
13616SOL    HW142687   3.603  12.828   3.576
13616SOL    HW242688   3.557  12.952   3.501
13617SOL     OW42689   6.334  11.609  11.169
13617SOL    HW142690   6.284  11.527  11.177
13617SOL    HW242691   6.410  11.584  11.117
13618SOL     OW42692  14.113   7.396   9.926
13618SOL    HW142693  14.065   7.316   9.905
13618SOL    HW242694  14.205   7.372   9.918
13619SOL     OW42695  14.324   9.384   4.134
13619SOL    HW142696  14.366   9.307   4.095
13619SOL    HW242697  14.274   9.350   4.208
13620SOL     OW42698  12.360   0.779  14.823
13620SOL    HW142699  12.297   0.708  14.832
13620SOL    HW242700  12.399   0.788   0.031
13621SOL     OW42701  10.613   7.805   4.426
13621SOL    HW142702  10.656   7.810   4.341
13621SOL    HW242703  10.575   7.892   4.439
13622SOL     OW42704   0.032   5.692   0.743
13622SOL    HW142705   0.066   5.669   0.656
13622SOL    HW242706   0.032   5.787   0.744
13623SOL     OW42707  13.254  11.842   1.177
13623SOL    HW142708  13.231  11.772   1.116
13623SOL    HW242709  13.262  11.920   1.122
13624SOL     OW42710   6.705   0.327   1.189
13624SOL    HW142711   6.687   0.299   1.279
13624SOL    HW242712   6.667   0.258   1.134
13625SOL     OW42713   8.780  11.145   5.879
13625SOL    HW142714   8.842  11.205   5.921
13625SOL    HW242715   8.836  11.079   5.837
13626SOL     OW42716   4.246   9.311   4.961
13626SOL    HW142717   4.338   9.329   4.981
13626SOL    HW242718   4.249   9.231   4.909
13627SOL     OW42719   7.389   4.053  11.307
13627SOL    HW142720   7.315   4.113  11.303
13627SOL    HW242721   7.445   4.079  11.234
13628SOL     OW42722   9.763  10.263  12.082
13628SOL    HW142723   9.703  10.311  12.139
13628SOL    HW242724   9.752  10.171  12.108
13629SOL     OW42725  12.615   1.310  13.518
13629SOL    HW142726  12.681   1.295  13.586
13629SOL    HW242727  12.651   1.269  13.439
13630SOL     OW42728   1.024   5.213   7.731
13630SOL    HW142729   0.990   5.141   7.678
13630SOL    HW242730   1.096   5.174   7.782
13631SOL     OW42731   1.097   4.833  10.174
13631SOL    HW142732   1.151   4.911  10.163
13631SOL    HW242733   1.137   4.768  10.115
13632SOL     OW42734   0.347  14.005   5.589
13632SOL    HW142735   0.260  14.038   5.614
13632SOL    HW242736   0.356  14.030   5.497
13633SOL     OW42737   8.644   3.363   6.839
13633SOL    HW142738   8.586   3.298   6.878
13633SOL    HW242739   8.629   3.443   6.890
13634SOL     OW42740   7.345   7.277   2.979
13634SOL    HW142741   7.367   7.350   3.037
13634SOL    HW242742   7.250   7.282   2.970
13635SOL     OW42743   5.238  14.234   5.908
13635SOL    HW142744   5.232  14.296   5.980
13635SOL    HW242745   5.299  14.274   5.846
13636SOL     OW42746  11.462   7.543   1.126
13636SOL    HW142747  11.555   7.533   1.147
13636SOL    HW242748  11.444   7.472   1.064
13637SOL     OW42749   3.142  14.005   7.812
13637SOL    HW142750   3.147  13.940   7.883
13637SOL    HW242751   3.051  14.003   7.784
13638SOL     OW42752   0.296  10.836   6.067
13638SOL    HW142753   0.206  10.806   6.049
13638SOL    HW242754   0.284  10.923   6.106
13639SOL     OW42755   6.018   3.846   8.941
13639SOL    HW142756   6.060   3.899   8.873
13639SOL    HW242757   6.027   3.899   9.020
13640SOL     OW42758   3.985   3.084   9.381
13640SOL    HW142759   3.986   3.126   9.467
13640SOL    HW242760   4.031   3.145   9.323
13641SOL     OW42761   2.417   6.126   7.316
13641SOL    HW142762   2.343   6.080   7.354
13641SOL    HW242763   2.493   6.071   7.336
13642SOL     OW42764   3.301  14.550  13.439
13642SOL    HW142765   3.362  14.570  13.368
13642SOL    HW242766   3.230  14.502  13.396
13643SOL     OW42767   9.106   2.338  10.484
13643SOL    HW142768   9.048   2.305  10.415
13643SOL    HW242769   9.187   2.289  10.472
13644SOL     OW42770   5.835   9.105   6.022
13644SOL    HW142771   5.812   9.044   5.951
13644SOL    HW242772   5.919   9.142   5.995
13645SOL     OW42773   3.169   7.901  12.479
13645SOL    HW142774   3.246   7.856  12.515
13645SOL    HW242775   3.154   7.859  12.395
13646SOL     OW42776   6.500   2.915   0.025
13646SOL    HW142777   6.535   2.897  14.817
13646SOL    HW242778   6.413   2.877   0.025
13647SOL     OW42779  10.396   6.751  12.444
13647SOL    HW142780  10.467   6.812  12.427
13647SOL    HW242781  10.325   6.805  12.478
13648SOL     OW42782   6.790  13.547   9.881
13648SOL    HW142783   6.824  13.498   9.956
13648SOL    HW242784   6.714  13.497   9.852
13649SOL     OW42785   5.032   2.567   6.390
13649SOL    HW142786   4.942   2.576   6.421
13649SOL    HW242787   5.064   2.486   6.431
13650SOL     OW42788   4.030   7.468  12.189
13650SOL    HW142789   4.064   7.390  12.145
13650SOL    HW242790   4.069   7.465  12.276
13651SOL     OW42791  13.534   8.749   6.282
13651SOL    HW142792  13.535   8.663   6.326
13651SOL    HW242793  13.623   8.759   6.249
13652SOL     OW42794   7.861   4.618  12.329
13652SOL    HW142795   7.794   4.601  12.396
13652SOL    HW242796   7.924   4.546  12.339
13653SOL     OW42797   1.158   5.163   8.384
13653SOL    HW142798   1.227   5.107   8.348
13653SOL    HW242799   1.203   5.218   8.448
13654SOL     OW42800  14.160  13.919   1.837
13654SOL    HW142801  14.194  13.985   1.897
13654SOL    HW242802  14.228  13.851   1.835
13655SOL     OW42803   8.868   0.184   2.963
13655SOL    HW142804   8.791   0.227   2.925
13655SOL    HW242805   8.933   0.185   2.892
13656SOL     OW42806   1.634   6.285  12.665
13656SOL    HW142807   1.646   6.248  12.578
13656SOL    HW242808   1.588   6.368  12.649
13657SOL     OW42809   9.882  11.892   9.214
13657SOL    HW142810   9.882  11.893   9.119
13657SOL    HW242811   9.958  11.945   9.239
13658SOL     OW42812   0.432   8.622  11.683
13658SOL    HW142813   0.358   8.563  11.668
13658SOL    HW242814   0.488   8.611  11.607
13659SOL     OW42815   1.877   6.198   7.729
13659SOL    HW142816   1.812   6.261   7.760
13659SOL    HW242817   1.943   6.197   7.798
13660SOL     OW42818   6.394   5.626   7.752
13660SOL    HW142819   6.418   5.608   7.843
13660SOL    HW242820   6.438   5.709   7.732
13661SOL     OW42821  14.816  12.243  13.472
13661SOL    HW142822  14.862  12.225  13.554
13661SOL    HW242823  14.859  12.187  13.408
13662SOL     OW42824   1.006  11.816   2.864
13662SOL    HW142825   0.981  11.813   2.772
13662SOL    HW242826   1.100  11.795   2.864
13663SOL     OW42827   9.227   5.156  12.239
13663SOL    HW142828   9.212   5.236  12.188
13663SOL    HW242829   9.231   5.087  12.173
13664SOL     OW42830   8.406   3.630   5.908
13664SOL    HW142831   8.446   3.687   5.974
13664SOL    HW242832   8.344   3.576   5.957
13665SOL     OW42833   1.326   1.480   4.792
13665SOL    HW142834   1.254   1.443   4.741
13665SOL    HW242835   1.372   1.537   4.731
13666SOL     OW42836   4.064   3.591  13.462
13666SOL    HW142837   4.103   3.667  13.420
13666SOL    HW242838   4.036   3.535  13.390
13667SOL     OW42839   5.939   0.033  10.619
13667SOL    HW142840   5.868   0.012  10.557
13667SOL    HW242841   5.992  14.832  10.622
13668SOL     OW42842   2.705   2.798  10.601
13668SOL    HW142843   2.711   2.892  10.618
13668SOL    HW242844   2.785   2.761  10.639
13669SOL     OW42845  13.976   4.997  10.193
13669SOL    HW142846  13.900   4.938  10.187
13669SOL    HW242847  13.974   5.046  10.111
13670SOL     OW42848   6.414   6.307   0.465
13670SOL    HW142849   6.329   6.284   0.502
13670SOL    HW242850   6.477   6.290   0.535
13671SOL     OW42851  12.101   9.604   6.621
13671SOL    HW142852  12.102   9.598   6.717
13671SOL    HW242853  12.045   9.530   6.594
13672SOL     OW42854   3.390  12.443  12.521
13672SOL    HW142855   3.340  12.387  12.581
13672SOL    HW242856   3.361  12.416  12.434
13673SOL     OW42857  13.338   0.356   6.462
13673SOL    HW142858  13.299   0.288   6.408
13673SOL    HW242859  13.265   0.395   6.509
13674SOL     OW42860   8.882  14.219  13.158
13674SOL    HW142861   8.927  14.262  13.085
13674SOL    HW242862   8.790  14.216  13.132
13675SOL     OW42863   2.207  13.870   2.790
13675SOL    HW142864   2.281  13.913   2.832
13675SOL    HW242865   2.159  13.940   2.748
13676SOL     OW42866   8.263   8.409   3.782
13676SOL    HW142867   8.226   8.322   3.797
13676SOL    HW242868   8.197   8.454   3.728
13677SOL     OW42869  11.032  12.452   8.760
13677SOL    HW142870  11.023  12.409   8.845
13677SOL    HW242871  11.127  12.458   8.746
13678SOL     OW42872   8.527  13.366   6.541
13678SOL    HW142873   8.582  13.289   6.554
13678SOL    HW242874   8.521  13.407   6.628
13679SOL     OW42875   3.299   6.737   7.300
13679SOL    HW142876   3.233   6.793   7.259
13679SOL    HW242877   3.382   6.778   7.278
13680SOL     OW42878  12.586  10.791   5.886
13680SOL    HW142879  12.637  10.790   5.805
13680SOL    HW242880  12.548  10.879   5.889
13681SOL     OW42881  14.024  10.581   1.646
13681SOL    HW142882  14.037  10.491   1.617
13681SOL    HW242883  14.087  10.633   1.596
13682SOL     OW42884   8.074   1.941   4.381
13682SOL    HW142885   7.983   1.919   4.405
13682SOL    HW242886   8.104   1.866   4.330
13683SOL     OW42887   6.147  13.791  12.875
13683SOL    HW142888   6.117  13.853  12.941
13683SOL    HW242889   6.216  13.741  12.919
13684SOL     OW42890   6.590  13.539  13.159
13684SOL    HW142891   6.602  13.463  13.216
13684SOL    HW242892   6.598  13.614  13.217
13685SOL     OW42893  14.841   9.908  12.756
13685SOL    HW142894   0.033   9.909  12.691
13685SOL    HW242895  14.795   9.991  12.743
13686SOL     OW42896  10.869  10.719  10.813
13686SOL    HW142897  10.853  10.631  10.779
13686SOL    HW242898  10.799  10.732  10.878
13687SOL     OW42899   2.413   5.950   8.009
13687SOL    HW142900   2.357   5.997   8.071
13687SOL    HW242901   2.495   5.938   8.056
13688SOL     OW42902   6.424   1.496   5.925
13688SOL    HW142903   6.500   1.555   5.928
13688SOL    HW242904   6.458   1.412   5.954
13689SOL     OW42905  11.511   0.274   6.394
13689SOL    HW142906  11.513   0.354   6.446
13689SOL    HW242907  11.578   0.219   6.433
13690SOL     OW42908   9.035  10.036   8.812
13690SOL    HW142909   9.074  10.095   8.747
13690SOL    HW242910   9.092  10.044   8.888
13691SOL     OW42911   9.570  11.423   5.397
13691SOL    HW142912   9.529  11.505   5.370
13691SOL    HW242913   9.497  11.366   5.420
13692SOL     OW42914   2.796   7.143   2.671
13692SOL    HW142915   2.815   7.085   2.597
13692SOL    HW242916   2.710   7.115   2.703
13693SOL     OW42917   1.456   8.631   8.320
13693SOL    HW142918   1.549   8.654   8.328
13693SOL    HW242919   1.455   8.554   8.263
13694SOL     OW42920  12.275   3.411  12.587
13694SOL    HW142921  12.281   3.317  12.571
13694SOL    HW242922  12.215   3.443  12.520
13695SOL     OW42923  11.308   4.798   1.093
13695SOL    HW142924  11.225   4.794   1.141
13695SOL    HW242925  11.305   4.882   1.047
13696SOL     OW42926   9.627  10.425  11.770
13696SOL    HW142927   9.593  10.458  11.854
13696SOL    HW242928   9.718  10.400  11.789
13697SOL     OW42929   5.386  12.297  11.123
13697SOL    HW142930   5.396  12.346  11.205
13697SOL    HW242931   5.374  12.206  11.151
13698SOL     OW42932  12.671  10.548   0.819
13698SOL    HW142933  12.701  10.589   0.900
13698SOL    HW242934  12.745  10.557   0.759
13699SOL     OW42935  12.030   5.324   7.112
13699SOL    HW142936  11.969   5.395   7.130
13699SOL    HW242937  11.989   5.246   7.149
13700SOL     OW42938   8.935  10.672  13.100
13700SOL    HW142939   8.977  10.606  13.045
13700SOL    HW242940   8.893  10.732  13.039
13701SOL     OW42941  11.153  14.610   6.218
13701SOL    HW142942  11.089  14.634   6.150
13701SOL    HW242943  11.181  14.694   6.255
13702SOL     OW42944   1.248   8.252   5.793
13702SOL    HW142945   1.189   8.176   5.793
13702SOL    HW242946   1.335   8.214   5.787
13703SOL     OW42947  11.198  11.743   5.605
13703SOL    HW142948  11.149  11.811   5.653
13703SOL    HW242949  11.289  11.771   5.610
13704SOL     OW42950   4.995   1.700   6.364
13704SOL    HW142951   5.066   1.679   6.424
13704SOL    HW242952   5.039   1.734   6.286
13705SOL     OW42953  14.167   2.843   0.279
13705SOL    HW142954  14.252   2.886   0.276
13705SOL    HW242955  14.167   2.795   0.362
13706SOL     OW42956   6.305   0.111  14.672
13706SOL    HW142957   6.239   0.042  14.660
13706SOL    HW242958   6.348   0.088  14.754
13707SOL     OW42959   0.718   9.379   8.918
13707SOL    HW142960   0.685   9.437   8.849
13707SOL    HW242961   0.811   9.403   8.927
13708SOL     OW42962  13.991  13.384   7.502
13708SOL    HW142963  14.060  13.324   7.530
13708SOL    HW242964  13.955  13.343   7.424
13709SOL     OW42965   1.154  10.942   8.224
13709SOL    HW142966   1.205  10.875   8.270
13709SOL    HW242967   1.202  10.956   8.142
13710SOL     OW42968   8.993   3.677   9.263
13710SOL    HW142969   9.038   3.731   9.197
13710SOL    HW242970   8.907   3.717   9.272
13711SOL     OW42971   6.827   0.092  12.098
13711SOL    HW142972   6.802   0.156  12.032
13711SOL    HW242973   6.836   0.142  12.179
13712SOL     OW42974   8.511   4.401   2.143
13712SOL    HW142975   8.468   4.385   2.059
13712SOL    HW242976   8.598   4.361   2.134
13713SOL     OW42977   4.971  11.141  11.526
13713SOL    HW142978   4.888  11.154  11.573
13713SOL    HW242979   4.948  11.082  11.454
13714SOL     OW42980  10.830   2.651  11.946
13714SOL    HW142981  10.824   2.610  11.860
13714SOL    HW242982  10.750   2.624  11.991
13715SOL     OW42983   0.463   2.068   9.589
13715SOL    HW142984   0.457   2.140   9.526
13715SOL    HW242985   0.496   1.994   9.538
13716SOL     OW42986   2.333  12.403   6.964
13716SOL    HW142987   2.376  12.479   6.926
13716SOL    HW242988   2.309  12.431   7.053
13717SOL     OW42989   4.132   7.716   3.067
13717SOL    HW142990   4.146   7.797   3.117
13717SOL    HW242991   4.077   7.743   2.994
13718SOL     OW42992   2.620   7.411   6.552
13718SOL    HW142993   2.670   7.490   6.531
13718SOL    HW242994   2.686   7.345   6.574
13719SOL     OW42995   1.972   8.726   9.563
13719SOL    HW142996   2.043   8.774   9.606
13719SOL    HW242997   1.999   8.634   9.568
13720SOL     OW42998   8.944   7.884   8.394
13720SOL    HW142999   8.890   7.908   8.319
13720SOL    HW243000   8.887   7.898   8.470
13721SOL     OW43001   0.253   3.961   7.336
13721SOL    HW143002   0.310   4.038   7.343
13721SOL    HW243003   0.168   3.991   7.370
13722SOL     OW43004  14.587  11.910   1.360
13722SOL    HW143005  14.625  11.823   1.367
13722SOL    HW243006  14.662  11.970   1.370
13723SOL     OW43007   0.940   7.978   2.117
13723SOL    HW143008   0.869   7.954   2.177
13723SOL    HW243009   1.014   7.998   2.175
13724SOL     OW43010  13.170  12.684   6.031
13724SOL    HW143011  13.235  12.636   5.979
13724SOL    HW243012  13.086  12.647   6.003
13725SOL     OW43013   6.338   3.924   3.249
13725SOL    HW143014   6.355   3.855   3.185
13725SOL    HW243015   6.325   3.878   3.332
13726SOL     OW43016  11.750   5.251   1.309
13726SOL    HW143017  11.758   5.241   1.404
13726SOL    HW243018  11.794   5.174   1.273
13727SOL     OW43019   7.449  13.178  10.130
13727SOL    HW143020   7.436  13.270  10.107
13727SOL    HW243021   7.441  13.132  10.046
13728SOL     OW43022   6.874   3.354   7.470
13728SOL    HW143023   6.949   3.376   7.414
13728SOL    HW243024   6.825   3.289   7.420
13729SOL     OW43025  11.142   7.483   4.574
13729SOL    HW143026  11.076   7.456   4.638
13729SOL    HW243027  11.205   7.533   4.625
13730SOL     OW43028   6.801  11.198  13.955
13730SOL    HW143029   6.819  11.105  13.971
13730SOL    HW243030   6.881  11.231  13.913
13731SOL     OW43031   8.457   6.380   7.592
13731SOL    HW143032   8.462   6.467   7.633
13731SOL    HW243033   8.366   6.372   7.563
13732SOL     OW43034   2.451   1.059   3.144
13732SOL    HW143035   2.528   1.025   3.189
13732SOL    HW243036   2.445   1.007   3.064
13733SOL     OW43037  13.013   9.190   9.932
13733SOL    HW143038  13.032   9.201   9.839
13733SOL    HW243039  13.090   9.223   9.977
13734SOL     OW43040   2.626   1.607  10.849
13734SOL    HW143041   2.576   1.610  10.930
13734SOL    HW243042   2.563   1.578  10.783
13735SOL     OW43043   5.370  13.109  10.099
13735SOL    HW143044   5.434  13.146  10.159
13735SOL    HW243045   5.289  13.107  10.149
13736SOL     OW43046   7.845   9.901   6.064
13736SOL    HW143047   7.814   9.906   5.973
13736SOL    HW243048   7.919   9.840   6.062
13737SOL     OW43049  11.359  12.380   5.950
13737SOL    HW143050  11.265  12.363   5.954
13737SOL    HW243051  11.367  12.473   5.968
13738SOL     OW43052  11.199   2.349   5.929
13738SOL    HW143053  11.247   2.274   5.965
13738SOL    HW243054  11.115   2.312   5.901
13739SOL     OW43055   9.027   0.874   0.110
13739SOL    HW143056   8.974   0.885   0.189
13739SOL    HW243057   8.980   0.808   0.059
13740SOL     OW43058   8.222   8.766  12.481
13740SOL    HW143059   8.273   8.686  12.495
13740SOL    HW243060   8.149   8.738  12.425
13741SOL     OW43061   7.122   4.140   4.699
13741SOL    HW143062   7.146   4.062   4.648
13741SOL    HW243063   7.046   4.113   4.750
13742SOL     OW43064   1.919   0.401   7.693
13742SOL    HW143065   1.992   0.446   7.650
13742SOL    HW243066   1.948   0.310   7.701
13743SOL     OW43067   7.597   0.952   0.731
13743SOL    HW143068   7.621   0.962   0.639
13743SOL    HW243069   7.601   1.041   0.767
13744SOL     OW43070  12.474  14.092   0.504
13744SOL    HW143071  12.454  14.183   0.480
13744SOL    HW243072  12.530  14.061   0.433
13745SOL     OW43073  11.414   9.630   6.126
13745SOL    HW143074  11.340   9.659   6.180
13745SOL    HW243075  11.410   9.686   6.048
13746SOL     OW43076   0.533  12.720   0.023
13746SOL    HW143077   0.451  12.693  14.861
13746SOL    HW243078   0.552  12.651   0.086
13747SOL     OW43079   6.574   0.798   0.778
13747SOL    HW143080   6.669   0.800   0.767
13747SOL    HW243081   6.560   0.743   0.856
13748SOL     OW43082   0.195  13.084  11.449
13748SOL    HW143083   0.210  13.011  11.509
13748SOL    HW243084   0.249  13.155  11.483
13749SOL     OW43085   4.550   3.773  14.505
13749SOL    HW143086   4.492   3.825  14.562
13749SOL    HW243087   4.594   3.837  14.450
13750SOL     OW43088   0.692   7.129  11.771
13750SOL    HW143089   0.755   7.087  11.713
13750SOL    HW243090   0.731   7.122  11.858
13751SOL     OW43091   1.544   6.479   6.670
13751SOL    HW143092   1.558   6.544   6.601
13751SOL    HW243093   1.493   6.525   6.736
13752SOL     OW43094   6.141   8.453  13.678
13752SOL    HW143095   6.162   8.362  13.696
13752SOL    HW243096   6.045   8.458  13.686
13753SOL     OW43097  13.812   9.565  12.384
13753SOL    HW143098  13.744   9.560  12.452
13753SOL    HW243099  13.851   9.477  12.383
13754SOL     OW43100  14.140   8.154   3.316
13754SOL    HW143101  14.167   8.245   3.307
13754SOL    HW243102  14.148   8.118   3.227
13755SOL     OW43103  13.732   3.187  10.547
13755SOL    HW143104  13.663   3.156  10.606
13755SOL    HW243105  13.724   3.283  10.551
13756SOL     OW43106  10.972  14.660   5.724
13756SOL    HW143107  10.950  14.584   5.778
13756SOL    HW243108  11.054  14.637   5.681
13757SOL     OW43109   9.690   3.267  11.985
13757SOL    HW143110   9.621   3.229  12.039
13757SOL    HW243111   9.649   3.344  11.945
13758SOL     OW43112  11.440  10.417   4.734
13758SOL    HW143113  11.506  10.486   4.724
13758SOL    HW243114  11.490  10.337   4.747
13759SOL     OW43115   4.428  13.857   9.412
13759SOL    HW143116   4.446  13.791   9.344
13759SOL    HW243117   4.333  13.854   9.424
13760SOL     OW43118  11.210  14.021   4.549
13760SOL    HW143119  11.286  13.963   4.540
13760SOL    HW243120  11.235  14.084   4.616
13761SOL     OW43121  14.356  13.159   6.143
13761SOL    HW143122  14.296  13.231   6.166
13761SOL    HW243123  14.370  13.169   6.049
13762SOL     OW43124  12.941   8.189   1.760
13762SOL    HW143125  12.917   8.133   1.834
13762SOL    HW243126  12.877   8.169   1.692
13763SOL     OW43127  12.217  11.744   8.470
13763SOL    HW143128  12.222  11.836   8.446
13763SOL    HW243129  12.242  11.696   8.391
13764SOL     OW43130   5.957  10.215   9.524
13764SOL    HW143131   5.892  10.148   9.502
13764SOL    HW243132   5.961  10.271   9.447
13765SOL     OW43133   1.943   9.380  12.525
13765SOL    HW143134   1.971   9.416  12.609
13765SOL    HW243135   2.015   9.399  12.465
13766SOL     OW43136   1.658   7.367   0.764
13766SOL    HW143137   1.622   7.436   0.709
13766SOL    HW243138   1.680   7.297   0.702
13767SOL     OW43139   3.742   9.420   4.052
13767SOL    HW143140   3.810   9.467   4.101
13767SOL    HW243141   3.731   9.338   4.100
13768SOL     OW43142   0.921   1.596   4.822
13768SOL    HW143143   0.926   1.563   4.912
13768SOL    HW243144   0.860   1.669   4.827
13769SOL     OW43145   9.893   7.878   6.670
13769SOL    HW143146   9.887   7.811   6.602
13769SOL    HW243147   9.820   7.937   6.652
13770SOL     OW43148   2.975  13.730  10.615
13770SOL    HW143149   3.039  13.800  10.626
13770SOL    HW243150   2.908  13.767  10.556
13771SOL     OW43151   3.740   1.907   0.639
13771SOL    HW143152   3.666   1.965   0.656
13771SOL    HW243153   3.738   1.844   0.711
13772SOL     OW43154   6.103   8.074   3.103
13772SOL    HW143155   6.129   8.053   3.013
13772SOL    HW243156   6.011   8.101   3.096
13773SOL     OW43157   0.635  12.725   1.610
13773SOL    HW143158   0.708  12.699   1.555
13773SOL    HW243159   0.604  12.808   1.572
13774SOL     OW43160   3.885   2.532   4.249
13774SOL    HW143161   3.921   2.564   4.332
13774SOL    HW243162   3.848   2.446   4.270
13775SOL     OW43163   2.627  12.711   9.274
13775SOL    HW143164   2.712  12.752   9.289
13775SOL    HW243165   2.633  12.627   9.320
13776SOL     OW43166   9.667   2.323   7.463
13776SOL    HW143167   9.756   2.345   7.434
13776SOL    HW243168   9.627   2.407   7.483
13777SOL     OW43169   3.128   0.911  13.620
13777SOL    HW143170   3.217   0.899  13.587
13777SOL    HW243171   3.140   0.958  13.703
13778SOL     OW43172   4.378   8.931  11.072
13778SOL    HW143173   4.424   8.933  10.988
13778SOL    HW243174   4.410   9.007  11.119
13779SOL     OW43175   3.096   8.402   9.703
13779SOL    HW143176   3.053   8.432   9.623
13779SOL    HW243177   3.113   8.483   9.752
13780SOL     OW43178   3.945   6.524  11.179
13780SOL    HW143179   3.987   6.464  11.242
13780SOL    HW243180   4.008   6.595  11.169
13781SOL     OW43181  11.393   8.410  14.324
13781SOL    HW143182  11.451   8.485  14.311
13781SOL    HW243183  11.413   8.379  14.413
13782SOL     OW43184   2.764  10.394   4.613
13782SOL    HW143185   2.719  10.475   4.635
13782SOL    HW243186   2.777  10.350   4.697
13783SOL     OW43187  11.255   2.660   8.585
13783SOL    HW143188  11.162   2.651   8.605
13783SOL    HW243189  11.288   2.570   8.581
13784SOL     OW43190   3.521   5.473   8.351
13784SOL    HW143191   3.488   5.499   8.265
13784SOL    HW243192   3.611   5.505   8.353
13785SOL     OW43193  13.998   8.035  11.472
13785SOL    HW143194  14.028   8.039  11.381
13785SOL    HW243195  14.012   8.124  11.505
13786SOL     OW43196  12.833  13.781  10.452
13786SOL    HW143197  12.873  13.826  10.526
13786SOL    HW243198  12.838  13.844  10.380
13787SOL     OW43199   6.737   8.691  10.718
13787SOL    HW143200   6.813   8.635  10.711
13787SOL    HW243201   6.666   8.641  10.678
13788SOL     OW43202   5.975   2.128   9.472
13788SOL    HW143203   6.007   2.122   9.382
13788SOL    HW243204   6.051   2.156   9.522
13789SOL     OW43205  10.883   8.758   4.090
13789SOL    HW143206  10.806   8.780   4.143
13789SOL    HW243207  10.955   8.755   4.153
13790SOL     OW43208   5.652   2.223   2.058
13790SOL    HW143209   5.730   2.268   2.092
13790SOL    HW243210   5.664   2.224   1.963
13791SOL     OW43211  13.976  10.039   2.344
13791SOL    HW143212  14.017  10.022   2.429
13791SOL    HW243213  14.047  10.073   2.290
13792SOL     OW43214   7.264   6.551  14.809
13792SOL    HW143215   7.247   6.644  14.826
13792SOL    HW243216   7.237   6.538  14.718
13793SOL     OW43217   6.321   8.169   3.241
13793SOL    HW143218   6.247   8.151   3.183
13793SOL    HW243219   6.354   8.083   3.265
13794SOL     OW43220   8.527   8.036  14.154
13794SOL    HW143221   8.556   8.017  14.064
13794SOL    HW243222   8.608   8.060  14.200
13795SOL     OW43223   7.572  13.065   4.024
13795SOL    HW143224   7.662  13.091   4.045
13795SOL    HW243225   7.532  13.046   4.110
13796SOL     OW43226   2.747  14.551   3.585
13796SOL    HW143227   2.685  14.479   3.594
13796SOL    HW243228   2.692  14.628   3.570
13797SOL     OW43229   7.217  11.580   9.902
13797SOL    HW143230   7.213  11.615   9.812
13797SOL    HW243231   7.185  11.490   9.894
13798SOL     OW43232  14.757   8.965   2.554
13798SOL    HW143233  14.735   8.902   2.622
13798SOL    HW243234  14.709   9.045   2.579
13799SOL     OW43235  11.290   1.713  10.175
13799SOL    HW143236  11.202   1.694  10.142
13799SOL    HW243237  11.276   1.778  10.244
13800SOL     OW43238   0.106   5.456   3.877
13800SOL    HW143239   0.177   5.407   3.836
13800SOL    HW243240   0.142   5.484   3.961
13801SOL     OW43241   2.111  10.047   9.690
13801SOL    HW143242   2.192  10.005   9.721
13801SOL    HW243243   2.139  10.132   9.656
13802SOL     OW43244  14.253  10.106   3.215
13802SOL    HW143245  14.262  10.105   3.120
13802SOL    HW243246  14.333  10.148   3.246
13803SOL     OW43247  11.974   4.549  11.852
13803SOL    HW143248  12.000   4.610  11.783
13803SOL    HW243249  11.908   4.493  11.811
13804SOL     OW43250   1.722  12.465  14.448
13804SOL    HW143251   1.714  12.383  14.399
13804SOL    HW243252   1.808  12.459  14.490
13805SOL     OW43253   6.364   6.229  11.983
13805SOL    HW143254   6.404   6.306  11.942
13805SOL    HW243255   6.438   6.179  12.017
13806SOL     OW43256  11.077  14.076   8.443
13806SOL    HW143257  11.017  14.034   8.381
13806SOL    HW243258  11.143  14.117   8.387
13807SOL     OW43259  11.289   7.212   4.667
13807SOL    HW143260  11.214   7.238   4.613
13807SOL    HW243261  11.260   7.229   4.757
13808SOL     OW43262  10.174  10.021   4.630
13808SOL    HW143263  10.104  10.026   4.695
13808SOL    HW243264  10.136   9.968   4.559
13809SOL     OW43265   7.334  11.535  11.455
13809SOL    HW143266   7.369  11.596  11.520
13809SOL    HW243267   7.296  11.591  11.387
13810SOL     OW43268   3.064  13.471   9.090
13810SOL    HW143269   3.073  13.550   9.142
13810SOL    HW243270   2.975  13.440   9.109
13811SOL     OW43271   1.717   1.150   9.872
13811SOL    HW143272   1.695   1.115   9.786
13811SOL    HW243273   1.644   1.123   9.928
13812SOL     OW43274   7.984   0.761   6.768
13812SOL    HW143275   8.065   0.713   6.749
13812SOL    HW243276   7.996   0.845   6.723
13813SOL     OW43277   2.621   7.754   0.037
13813SOL    HW143278   2.666   7.671   0.054
13813SOL    HW243279   2.532   7.740   0.069
13814SOL     OW43280  10.498  13.290   9.612
13814SOL    HW143281  10.458  13.246   9.538
13814SOL    HW243282  10.438  13.273   9.685
13815SOL     OW43283  11.025   2.211  11.205
13815SOL    HW143284  10.977   2.168  11.135
13815SOL    HW243285  10.971   2.196  11.283
13816SOL     OW43286  12.028   8.639   9.828
13816SOL    HW143287  12.058   8.561   9.781
13816SOL    HW243288  11.948   8.611   9.872
13817SOL     OW43289   2.571   0.076  14.733
13817SOL    HW143290   2.569   0.111  14.644
13817SOL    HW243291   2.664   0.063  14.752
13818SOL     OW43292   8.842   2.841  10.953
13818SOL    HW143293   8.889   2.881  10.880
13818SOL    HW243294   8.750   2.843  10.926
13819SOL     OW43295  10.490  10.188   9.223
13819SOL    HW143296  10.402  10.155   9.205
13819SOL    HW243297  10.548  10.114   9.204
13820SOL     OW43298  14.096   1.925  13.833
13820SOL    HW143299  14.110   1.865  13.760
13820SOL    HW243300  14.009   1.901  13.867
13821SOL     OW43301  13.858  12.336   2.786
13821SOL    HW143302  13.880  12.388   2.863
13821SOL    HW243303  13.935  12.282   2.770
13822SOL     OW43304   8.052   1.635   8.030
13822SOL    HW143305   8.117   1.682   7.978
13822SOL    HW243306   7.968   1.657   7.990
13823SOL     OW43307  11.106   7.365  10.064
13823SOL    HW143308  11.118   7.460  10.074
13823SOL    HW243309  11.180   7.337  10.011
13824SOL     OW43310  14.406   1.245  11.683
13824SOL    HW143311  14.377   1.261  11.772
13824SOL    HW243312  14.484   1.190  11.693
13825SOL     OW43313  11.975  14.705  11.075
13825SOL    HW143314  11.946  14.792  11.104
13825SOL    HW243315  11.909  14.678  11.011
13826SOL     OW43316   5.086   2.886  13.335
13826SOL    HW143317   5.059   2.888  13.427
13826SOL    HW243318   5.142   2.963  13.324
13827SOL     OW43319   1.126   9.600   4.979
13827SOL    HW143320   1.102   9.614   4.887
13827SOL    HW243321   1.048   9.628   5.028
13828SOL     OW43322   6.132   8.884   7.651
13828SOL    HW143323   6.226   8.876   7.666
13828SOL    HW243324   6.108   8.967   7.691
13829SOL     OW43325   6.599   5.818  14.716
13829SOL    HW143326   6.645   5.845  14.637
13829SOL    HW243327   6.516   5.783  14.685
13830SOL     OW43328   6.240   4.945   9.124
13830SOL    HW143329   6.294   4.937   9.046
13830SOL    HW243330   6.189   4.864   9.128
13831SOL     OW43331  13.871  13.272  11.507
13831SOL    HW143332  13.896  13.185  11.476
13831SOL    HW243333  13.780  13.282  11.480
13832SOL     OW43334   8.871   0.437   5.455
13832SOL    HW143335   8.816   0.436   5.377
13832SOL    HW243336   8.860   0.350   5.494
13833SOL     OW43337  14.710   2.557   2.802
13833SOL    HW143338  14.661   2.587   2.879
13833SOL    HW243339  14.651   2.495   2.760
13834SOL     OW43340   8.252   6.160  12.621
13834SOL    HW143341   8.240   6.188  12.530
13834SOL    HW243342   8.177   6.103  12.639
13835SOL     OW43343  14.113  11.504   9.419
13835SOL    HW143344  14.201  11.542   9.415
13835SOL    HW243345  14.109  11.463   9.505
13836SOL     OW43346  14.646   7.665   9.519
13836SOL    HW143347  14.718   7.643   9.460
13836SOL    HW243348  14.568   7.626   9.478
13837SOL     OW43349  10.330  11.742  10.256
13837SOL    HW143350  10.366  11.689  10.327
13837SOL    HW243351  10.239  11.758  10.281
13838SOL     OW43352  13.745   7.362  14.262
13838SOL    HW143353  13.818   7.390  14.316
13838SOL    HW243354  13.774   7.377  14.172
13839SOL     OW43355   3.872   8.556   2.668
13839SOL    HW143356   3.957   8.527   2.701
13839SOL    HW243357   3.885   8.648   2.645
13840SOL     OW43358   9.671  11.905   5.500
13840SOL    HW143359   9.629  11.872   5.420
13840SOL    HW243360   9.606  11.892   5.569
13841SOL     OW43361   6.826  11.557   7.124
13841SOL    HW143362   6.763  11.487   7.140
13841SOL    HW243363   6.867  11.572   7.210
13842SOL     OW43364   1.496   6.351  14.707
13842SOL    HW143365   1.418   6.312  14.666
13842SOL    HW243366   1.569   6.320  14.653
13843SOL     OW43367   3.414   5.689  11.268
13843SOL    HW143368   3.485   5.628  11.247
13843SOL    HW243369   3.447   5.775  11.242
13844SOL     OW43370   8.222   0.778  11.289
13844SOL    HW143371   8.160   0.766  11.360
13844SOL    HW243372   8.257   0.691  11.272
13845SOL     OW43373   2.691   6.697  12.824
13845SOL    HW143374   2.640   6.626  12.786
13845SOL    HW243375   2.733   6.658  12.901
13846SOL     OW43376  12.152   4.629   7.141
13846SOL    HW143377  12.235   4.580   7.140
13846SOL    HW243378  12.104   4.598   7.065
13847SOL     OW43379  12.673   8.807   8.163
13847SOL    HW143380  12.689   8.766   8.078
13847SOL    HW243381  12.742   8.872   8.172
13848SOL     OW43382  11.607   6.769   8.636
13848SOL    HW143383  11.516   6.778   8.666
13848SOL    HW243384  11.599   6.741   8.545
13849SOL     OW43385  14.791   9.745   2.150
13849SOL    HW143386  14.841   9.664   2.135
13849SOL    HW243387  14.774   9.746   2.244
13850SOL     OW43388   8.987   8.204   7.874
13850SOL    HW143389   9.051   8.168   7.813
13850SOL    HW243390   9.039   8.255   7.937
13851SOL     OW43391   7.349  13.895  11.090
13851SOL    HW143392   7.364  13.936  11.005
13851SOL    HW243393   7.341  13.968  11.151
13852SOL     OW43394   0.363   2.530   9.316
13852SOL    HW143395   0.426   2.503   9.249
13852SOL    HW243396   0.314   2.601   9.276
13853SOL     OW43397   9.154   1.784  10.090
13853SOL    HW143398   9.136   1.862  10.143
13853SOL    HW243399   9.164   1.818  10.001
13854SOL     OW43400   0.434   0.326   6.114
13854SOL    HW143401   0.380   0.405   6.120
13854SOL    HW243402   0.472   0.330   6.026
13855SOL     OW43403   6.225   9.357   2.410
13855SOL    HW143404   6.196   9.412   2.337
13855SOL    HW243405   6.283   9.413   2.462
13856SOL     OW43406   8.785  12.712  11.895
13856SOL    HW143407   8.828  12.658  11.961
13856SOL    HW243408   8.755  12.650  11.828
13857SOL     OW43409   9.437   7.371   1.589
13857SOL    HW143410   9.495   7.414   1.652
13857SOL    HW243411   9.371   7.328   1.643
13858SOL     OW43412   5.620   1.420   9.103
13858SOL    HW143413   5.645   1.512   9.105
13858SOL    HW243414   5.696   1.375   9.065
13859SOL     OW43415   9.869   0.097  13.235
13859SOL    HW143416   9.810   0.022  13.241
13859SOL    HW243417   9.813   0.173  13.254
13860SOL     OW43418  11.563   9.631  12.842
13860SOL    HW143419  11.590   9.618  12.932
13860SOL    HW243420  11.467   9.626  12.845
13861SOL     OW43421  11.192  10.390   2.562
13861SOL    HW143422  11.276  10.429   2.539
13861SOL    HW243423  11.200  10.370   2.655
13862SOL     OW43424  11.816   2.622   5.574
13862SOL    HW143425  11.904   2.610   5.611
13862SOL    HW243426  11.812   2.716   5.553
13863SOL     OW43427   9.419   3.629   5.582
13863SOL    HW143428   9.357   3.646   5.511
13863SOL    HW243429   9.395   3.542   5.614
13864SOL     OW43430  10.601  11.510   4.403
13864SOL    HW143431  10.642  11.452   4.468
13864SOL    HW243432  10.517  11.533   4.442
13865SOL     OW43433   2.332   4.103  14.836
13865SOL    HW143434   2.333   4.094  14.741
13865SOL    HW243435   2.413   4.061  14.865
13866SOL     OW43436   0.438   3.499   3.151
13866SOL    HW143437   0.369   3.504   3.085
13866SOL    HW243438   0.511   3.548   3.114
13867SOL     OW43439   6.168   2.462   2.522
13867SOL    HW143440   6.233   2.397   2.492
13867SOL    HW243441   6.084   2.416   2.514
13868SOL     OW43442  10.574  13.843   1.784
13868SOL    HW143443  10.581  13.809   1.695
13868SOL    HW243444  10.615  13.776   1.838
13869SOL     OW43445   2.514  13.824   5.844
13869SOL    HW143446   2.577  13.886   5.880
13869SOL    HW243447   2.478  13.779   5.921
13870SOL     OW43448   7.727  10.240   5.157
13870SOL    HW143449   7.783  10.315   5.179
13870SOL    HW243450   7.694  10.260   5.069
13871SOL     OW43451   6.735  10.501   2.813
13871SOL    HW143452   6.730  10.419   2.763
13871SOL    HW243453   6.644  10.521   2.835
13872SOL     OW43454   9.299   6.695   1.415
13872SOL    HW143455   9.368   6.648   1.369
13872SOL    HW243456   9.344   6.766   1.460
13873SOL     OW43457   8.874  10.121  13.896
13873SOL    HW143458   8.871  10.039  13.847
13873SOL    HW243459   8.957  10.161  13.869
13874SOL     OW43460  14.689  11.930   0.869
13874SOL    HW143461  14.632  11.855   0.887
13874SOL    HW243462  14.724  11.913   0.782
13875SOL     OW43463  14.577   5.339   0.241
13875SOL    HW143464  14.538   5.425   0.232
13875SOL    HW243465  14.521   5.293   0.303
13876SOL     OW43466   6.232  10.309  10.801
13876SOL    HW143467   6.267  10.268  10.722
13876SOL    HW243468   6.299  10.372  10.827
13877SOL     OW43469   7.335   4.436  13.757
13877SOL    HW143470   7.303   4.349  13.734
13877SOL    HW243471   7.313   4.491  13.682
13878SOL     OW43472   8.096   7.591   5.460
13878SOL    HW143473   8.095   7.679   5.423
13878SOL    HW243474   8.019   7.587   5.516
13879SOL     OW43475   1.540   4.676   5.454
13879SOL    HW143476   1.626   4.669   5.412
13879SOL    HW243477   1.549   4.751   5.514
13880SOL     OW43478   2.254   5.163   7.391
13880SOL    HW143479   2.268   5.252   7.359
13880SOL    HW243480   2.219   5.116   7.315
13881SOL     OW43481   1.569  12.064   4.962
13881SOL    HW143482   1.581  11.983   5.011
13881SOL    HW243483   1.626  12.054   4.886
13882SOL     OW43484  13.532   5.705  14.428
13882SOL    HW143485  13.534   5.783  14.373
13882SOL    HW243486  13.513   5.634  14.368
13883SOL     OW43487   4.435   7.565  12.874
13883SOL    HW143488   4.432   7.661  12.877
13883SOL    HW243489   4.518   7.545  12.832
13884SOL     OW43490  14.663   5.426   7.497
13884SOL    HW143491  14.617   5.342   7.494
13884SOL    HW243492  14.608   5.485   7.445
13885SOL     OW43493   9.706  10.881   5.582
13885SOL    HW143494   9.793  10.884   5.544
13885SOL    HW243495   9.657  10.821   5.526
13886SOL     OW43496   1.928   0.866   0.991
13886SOL    HW143497   1.923   0.860   0.896
13886SOL    HW243498   1.852   0.919   1.016
13887SOL     OW43499  13.599   0.109   7.827
13887SOL    HW143500  13.688   0.079   7.807
13887SOL    HW243501  13.613   0.186   7.884
13888SOL     OW43502   6.941   9.839   4.961
13888SOL    HW143503   6.999   9.840   5.038
13888SOL    HW243504   6.950   9.927   4.924
13889SOL     OW43505   1.052  11.800   0.589
13889SOL    HW143506   1.028  11.724   0.536
13889SOL    HW243507   1.133  11.833   0.549
13890SOL     OW43508   6.320   4.525   4.208
13890SOL    HW143509   6.330   4.433   4.228
13890SOL    HW243510   6.408   4.561   4.213
13891SOL     OW43511   1.062   4.190   8.804
13891SOL    HW143512   1.042   4.213   8.895
13891SOL    HW243513   1.156   4.171   8.804
13892SOL     OW43514   9.400   8.592   8.362
13892SOL    HW143515   9.446   8.671   8.333
13892SOL    HW243516   9.311   8.603   8.328
13893SOL     OW43517  11.598   0.377  11.276
13893SOL    HW143518  11.509   0.345  11.261
13893SOL    HW243519  11.591   0.433  11.353
13894SOL     OW43520  12.638   9.135   4.584
13894SOL    HW143521  12.578   9.083   4.530
13894SOL    HW243522  12.590   9.215   4.603
13895SOL     OW43523   5.145   7.489   4.434
13895SOL    HW143524   5.140   7.525   4.346
13895SOL    HW243525   5.167   7.565   4.489
13896SOL     OW43526   4.885   8.717   3.756
13896SOL    HW143527   4.803   8.669   3.753
13896SOL    HW243528   4.935   8.686   3.680
13897SOL     OW43529   1.937  14.427   3.305
13897SOL    HW143530   1.870  14.379   3.353
13897SOL    HW243531   1.893  14.457   3.225
13898SOL     OW43532  11.188   2.305  13.709
13898SOL    HW143533  11.199   2.307  13.615
13898SOL    HW243534  11.103   2.262  13.723
13899SOL     OW43535   2.493   0.177   2.295
13899SOL    HW143536   2.582   0.149   2.313
13899SOL    HW243537   2.443   0.095   2.290
13900SOL     OW43538   3.898   5.281   3.654
13900SOL    HW143539   3.880   5.240   3.739
13900SOL    HW243540   3.833   5.351   3.647
13901SOL     OW43541   4.279  13.485  13.234
13901SOL    HW143542   4.224  13.408  13.220
13901SOL    HW243543   4.220  13.559  13.218
13902SOL     OW43544  11.402   5.266  14.819
13902SOL    HW143545  11.325   5.316  14.845
13902SOL    HW243546  11.432   5.307  14.739
13903SOL     OW43547  10.469   0.635  11.411
13903SOL    HW143548  10.404   0.589  11.464
13903SOL    HW243549  10.525   0.679  11.474
13904SOL     OW43550   8.643   5.345  10.183
13904SOL    HW143551   8.588   5.423  10.174
13904SOL    HW243552   8.598   5.279  10.130
13905SOL     OW43553   6.101   9.332  11.248
13905SOL    HW143554   6.040   9.357  11.179
13905SOL    HW243555   6.159   9.268  11.208
13906SOL     OW43556   3.848   6.673  12.887
13906SOL    HW143557   3.814   6.700  12.802
13906SOL    HW243558   3.792   6.600  12.914
13907SOL     OW43559  12.909   0.498   4.827
13907SOL    HW143560  12.978   0.505   4.893
13907SOL    HW243561  12.878   0.408   4.834
13908SOL     OW43562   0.447   5.388   1.361
13908SOL    HW143563   0.452   5.298   1.328
13908SOL    HW243564   0.359   5.417   1.338
13909SOL     OW43565   1.250   9.697   4.104
13909SOL    HW143566   1.233   9.753   4.180
13909SOL    HW243567   1.194   9.732   4.035
13910SOL     OW43568   8.478  11.306  14.704
13910SOL    HW143569   8.479  11.303  14.608
13910SOL    HW243570   8.498  11.397  14.725
13911SOL     OW43571  10.921  13.815  12.696
13911SOL    HW143572  11.006  13.786  12.731
13911SOL    HW243573  10.904  13.898  12.740
13912SOL     OW43574   7.318   1.925   9.740
13912SOL    HW143575   7.299   2.011   9.702
13912SOL    HW243576   7.266   1.921   9.820
13913SOL     OW43577   0.231   6.354   1.025
13913SOL    HW143578   0.265   6.382   0.940
13913SOL    HW243579   0.151   6.306   1.004
13914SOL     OW43580  10.562   1.530   0.193
13914SOL    HW143581  10.634   1.468   0.204
13914SOL    HW243582  10.489   1.490   0.240
13915SOL     OW43583   9.931   3.611   7.109
13915SOL    HW143584   9.866   3.642   7.046
13915SOL    HW243585  10.013   3.610   7.060
13916SOL     OW43586   4.218   0.331   9.321
13916SOL    HW143587   4.159   0.406   9.330
13916SOL    HW243588   4.159   0.256   9.309
13917SOL     OW43589   2.382   7.814   7.234
13917SOL    HW143590   2.422   7.756   7.169
13917SOL    HW243591   2.448   7.824   7.302
13918SOL     OW43592   5.397   1.413   6.525
13918SOL    HW143593   5.460   1.457   6.582
13918SOL    HW243594   5.445   1.336   6.492
13919SOL     OW43595   3.210   2.265   8.065
13919SOL    HW143596   3.233   2.188   8.118
13919SOL    HW243597   3.155   2.230   7.995
13920SOL     OW43598  14.533   2.246   4.687
13920SOL    HW143599  14.488   2.292   4.616
13920SOL    HW243600  14.604   2.306   4.713
13921SOL     OW43601   1.496   0.139  14.680
13921SOL    HW143602   1.467   0.133  14.771
13921SOL    HW243603   1.427   0.189  14.636
13922SOL     OW43604   8.337   9.087   6.097
13922SOL    HW143605   8.328   9.153   6.028
13922SOL    HW243606   8.271   9.112   6.163
13923SOL     OW43607   0.420  13.889  13.242
13923SOL    HW143608   0.467  13.819  13.287
13923SOL    HW243609   0.340  13.848  13.210
13924SOL     OW43610   7.036  13.100   4.947
13924SOL    HW143611   7.038  13.180   5.000
13924SOL    HW243612   6.974  13.120   4.877
13925SOL     OW43613  12.293   9.727  14.234
13925SOL    HW143614  12.219   9.685  14.278
13925SOL    HW243615  12.329   9.658  14.178
13926SOL     OW43616   6.990  11.158   0.876
13926SOL    HW143617   7.036  11.077   0.854
13926SOL    HW243618   6.901  11.144   0.844
13927SOL     OW43619   8.037   8.485   5.594
13927SOL    HW143620   7.944   8.469   5.581
13927SOL    HW243621   8.053   8.569   5.551
13928SOL     OW43622   2.239   2.715   5.270
13928SOL    HW143623   2.232   2.694   5.363
13928SOL    HW243624   2.289   2.796   5.268
13929SOL     OW43625   7.472  11.446   8.265
13929SOL    HW143626   7.470  11.431   8.359
13929SOL    HW243627   7.469  11.541   8.256
13930SOL     OW43628   6.713   5.966   9.928
13930SOL    HW143629   6.733   5.936  10.017
13930SOL    HW243630   6.704   6.061   9.937
13931SOL     OW43631  13.164   6.655  13.999
13931SOL    HW143632  13.117   6.630  13.920
13931SOL    HW243633  13.097   6.694  14.055
13932SOL     OW43634   8.272   6.910   4.099
13932SOL    HW143635   8.356   6.945   4.131
13932SOL    HW243636   8.278   6.920   4.004
13933SOL     OW43637   9.788   4.962   4.953
13933SOL    HW143638   9.780   5.004   4.867
13933SOL    HW243639   9.698   4.946   4.981
13934SOL     OW43640   9.730   7.506   4.843
13934SOL    HW143641   9.669   7.574   4.872
13934SOL    HW243642   9.802   7.554   4.803
13935SOL     OW43643   5.812  12.182  14.491
13935SOL    HW143644   5.828  12.111  14.429
13935SOL    HW243645   5.789  12.138  14.573
13936SOL     OW43646   6.725   2.219   0.650
13936SOL    HW143647   6.777   2.238   0.572
13936SOL    HW243648   6.777   2.153   0.697
13937SOL     OW43649   3.936   0.425   6.703
13937SOL    HW143650   3.880   0.483   6.651
13937SOL    HW243651   3.924   0.454   6.793
13938SOL     OW43652   5.858   3.714   3.364
13938SOL    HW143653   5.812   3.630   3.369
13938SOL    HW243654   5.811   3.771   3.425
13939SOL     OW43655   0.711  13.969   9.746
13939SOL    HW143656   0.697  13.907   9.674
13939SOL    HW243657   0.663  14.047   9.719
13940SOL     OW43658   1.166   1.706   4.382
13940SOL    HW143659   1.241   1.670   4.336
13940SOL    HW243660   1.198   1.724   4.470
13941SOL     OW43661   0.354   8.822   6.920
13941SOL    HW143662   0.427   8.872   6.884
13941SOL    HW243663   0.395   8.757   6.976
13942SOL     OW43664   9.900   5.527   0.609
13942SOL    HW143665   9.903   5.563   0.698
13942SOL    HW243666   9.812   5.491   0.601
13943SOL     OW43667   8.268   5.353  12.183
13943SOL    HW143668   8.321   5.415  12.234
13943SOL    HW243669   8.314   5.269  12.193
13944SOL     OW43670   5.871  12.315  10.644
13944SOL    HW143671   5.922  12.388  10.678
13944SOL    HW243672   5.803  12.299  10.710
13945SOL     OW43673   7.268  12.644   0.868
13945SOL    HW143674   7.329  12.715   0.851
13945SOL    HW243675   7.315  12.565   0.842
13946SOL     OW43676  12.769   0.838  14.270
13946SOL    HW143677  12.700   0.904  14.259
13946SOL    HW243678  12.835   0.880  14.324
13947SOL     OW43679   4.202   5.950   0.908
13947SOL    HW143680   4.178   6.036   0.944
13947SOL    HW243681   4.175   5.954   0.817
13948SOL     OW43682  11.950   0.595   3.594
13948SOL    HW143683  11.929   0.663   3.530
13948SOL    HW243684  12.045   0.597   3.600
13949SOL     OW43685   7.427   4.483   9.497
13949SOL    HW143686   7.466   4.493   9.410
13949SOL    HW243687   7.493   4.435   9.547
13950SOL     OW43688  10.058   2.406   0.710
13950SOL    HW143689  10.152   2.400   0.690
13950SOL    HW243690  10.032   2.492   0.677
13951SOL     OW43691   4.984  10.754   1.617
13951SOL    HW143692   4.921  10.687   1.642
13951SOL    HW243693   5.011  10.730   1.528
13952SOL     OW43694   5.755   7.429  13.377
13952SOL    HW143695   5.701   7.501  13.411
13952SOL    HW243696   5.705   7.396  13.301
13953SOL     OW43697  11.617   6.705   9.996
13953SOL    HW143698  11.711   6.713  10.014
13953SOL    HW243699  11.583   6.654  10.070
13954SOL     OW43700   9.697  14.609  12.342
13954SOL    HW143701   9.755  14.581  12.413
13954SOL    HW243702   9.677  14.528  12.294
13955SOL     OW43703   8.876  14.139  12.449
13955SOL    HW143704   8.836  14.112  12.366
13955SOL    HW243705   8.822  14.098  12.516
13956SOL     OW43706   4.730   5.334   7.178
13956SOL    HW143707   4.657   5.281   7.209
13956SOL    HW243708   4.697   5.375   7.098
13957SOL     OW43709  11.235  12.030  12.557
13957SOL    HW143710  11.310  12.033  12.498
13957SOL    HW243711  11.248  12.105  12.616
13958SOL     OW43712   7.129   5.678   5.356
13958SOL    HW143713   7.111   5.761   5.400
13958SOL    HW243714   7.149   5.702   5.266
13959SOL     OW43715   7.380   5.245   5.291
13959SOL    HW143716   7.440   5.180   5.256
13959SOL    HW243717   7.296   5.226   5.249
13960SOL     OW43718   5.889   0.160  13.843
13960SOL    HW143719   5.962   0.165  13.904
13960SOL    HW243720   5.870   0.066  13.836
13961SOL     OW43721   1.256   8.897  10.099
13961SOL    HW143722   1.247   8.882  10.005
13961SOL    HW243723   1.187   8.959  10.121
13962SOL     OW43724   6.194   3.587   3.680
13962SOL    HW143725   6.252   3.588   3.755
13962SOL    HW243726   6.196   3.497   3.649
13963SOL     OW43727   6.722  11.772   5.800
13963SOL    HW143728   6.686  11.709   5.737
13963SOL    HW243729   6.687  11.744   5.884
13964SOL     OW43730  10.327  12.493   7.501
13964SOL    HW143731  10.314  12.400   7.521
13964SOL    HW243732  10.422  12.505   7.505
13965SOL     OW43733   2.593   9.251  13.560
13965SOL    HW143734   2.617   9.207  13.478
13965SOL    HW243735   2.506   9.216  13.580
13966SOL     OW43736   4.178   5.823  11.093
13966SOL    HW143737   4.261   5.847  11.051
13966SOL    HW243738   4.190   5.847  11.185
13967SOL     OW43739   0.678   6.325   8.666
13967SOL    HW143740   0.698   6.260   8.599
13967SOL    HW243741   0.704   6.408   8.627
13968SOL     OW43742   2.227   3.847   8.987
13968SOL    HW143743   2.250   3.901   9.062
13968SOL    HW243744   2.217   3.759   9.022
13969SOL     OW43745   5.842   2.028   5.002
13969SOL    HW143746   5.897   2.104   4.984
13969SOL    HW243747   5.804   2.005   4.917
13970SOL     OW43748   0.748   1.879  12.211
13970SOL    HW143749   0.745   1.787  12.185
13970SOL    HW243750   0.683   1.885  12.281
13971SOL     OW43751   2.091  10.583   5.809
13971SOL    HW143752   2.056  10.643   5.744
13971SOL    HW243753   2.097  10.636   5.889
13972SOL     OW43754   8.385   6.047  10.706
13972SOL    HW143755   8.307   6.075  10.754
13972SOL    HW243756   8.422   5.977  10.759
13973SOL     OW43757   6.051   7.158   7.024
13973SOL    HW143758   6.103   7.124   7.098
13973SOL    HW243759   6.060   7.253   7.031
13974SOL     OW43760   4.473   4.352  14.037
13974SOL    HW143761   4.417   4.280  14.008
13974SOL    HW243762   4.526   4.315  14.107
13975SOL     OW43763   3.050  14.016  14.349
13975SOL    HW143764   2.977  14.073  14.373
13975SOL    HW243765   3.127  14.072  14.354
13976SOL     OW43766   9.468   1.883  12.757
13976SOL    HW143767   9.523   1.822  12.708
13976SOL    HW243768   9.475   1.965  12.708
13977SOL     OW43769  10.638   1.877   0.894
13977SOL    HW143770  10.554   1.845   0.861
13977SOL    HW243771  10.703   1.843   0.833
13978SOL     OW43772   0.151   1.386   3.827
13978SOL    HW143773   0.169   1.474   3.859
13978SOL    HW243774   0.236   1.352   3.799
13979SOL     OW43775   0.119   9.302   0.020
13979SOL    HW143776   0.185   9.326  14.834
13979SOL    HW243777   0.146   9.348   0.100
13980SOL     OW43778  11.713   3.445   5.492
13980SOL    HW143779  11.790   3.419   5.543
13980SOL    HW243780  11.691   3.532   5.525
13981SOL     OW43781   9.082   4.715   4.629
13981SOL    HW143782   9.024   4.780   4.669
13981SOL    HW243783   9.023   4.646   4.598
13982SOL     OW43784   0.276  11.744   3.542
13982SOL    HW143785   0.235  11.815   3.493
13982SOL    HW243786   0.348  11.714   3.485
13983SOL     OW43787  14.288   4.636  13.952
13983SOL    HW143788  14.225   4.567  13.975
13983SOL    HW243789  14.235   4.716  13.949
13984SOL     OW43790   5.672  11.220  14.674
13984SOL    HW143791   5.690  11.313  14.667
13984SOL    HW243792   5.735  11.178  14.615
13985SOL     OW43793  12.713   9.765   1.666
13985SOL    HW143794  12.766   9.775   1.744
13985SOL    HW243795  12.626   9.797   1.691
13986SOL     OW43796   3.625  10.063   7.046
13986SOL    HW143797   3.617  10.035   6.955
13986SOL    HW243798   3.682  10.139   7.043
13987SOL     OW43799  13.285   3.012  12.491
13987SOL    HW143800  13.321   3.065  12.420
13987SOL    HW243801  13.202   3.055  12.513
13988SOL     OW43802  11.486  13.306   7.749
13988SOL    HW143803  11.444  13.351   7.822
13988SOL    HW243804  11.427  13.234   7.727
13989SOL     OW43805  12.584   1.306  10.480
13989SOL    HW143806  12.617   1.216  10.480
13989SOL    HW243807  12.611   1.341  10.395
13990SOL     OW43808   4.273   3.178  10.299
13990SOL    HW143809   4.185   3.183  10.263
13990SOL    HW243810   4.318   3.115  10.243
13991SOL     OW43811  10.399   6.260   7.999
13991SOL    HW143812  10.377   6.173   7.966
13991SOL    HW243813  10.315   6.307   8.000
13992SOL     OW43814   6.717   0.235   3.276
13992SOL    HW143815   6.661   0.306   3.309
13992SOL    HW243816   6.656   0.178   3.228
13993SOL     OW43817   6.858   8.378   7.760
13993SOL    HW143818   6.900   8.392   7.845
13993SOL    HW243819   6.788   8.443   7.757
13994SOL     OW43820  14.113   1.910  13.124
13994SOL    HW143821  14.072   1.835  13.167
13994SOL    HW243822  14.041   1.972  13.109
13995SOL     OW43823   7.755   5.195  13.201
13995SOL    HW143824   7.718   5.223  13.285
13995SOL    HW243825   7.844   5.230  13.201
13996SOL     OW43826   8.767   7.418   7.313
13996SOL    HW143827   8.741   7.498   7.358
13996SOL    HW243828   8.726   7.347   7.363
13997SOL     OW43829  11.355   0.224   0.831
13997SOL    HW143830  11.404   0.222   0.749
13997SOL    HW243831  11.309   0.140   0.834
13998SOL     OW43832   7.791   6.108   9.538
13998SOL    HW143833   7.796   6.064   9.453
13998SOL    HW243834   7.875   6.154   9.546
13999SOL     OW43835  13.890   2.011   0.020
13999SOL    HW143836  13.880   1.993   0.113
13999SOL    HW243837  13.802   2.000  14.862
14000SOL     OW43838   9.876   8.670   8.181
14000SOL    HW143839   9.882   8.641   8.272
14000SOL    HW243840   9.782   8.669   8.161
14001SOL     OW43841   7.883  14.866   9.040
14001SOL    HW143842   7.912   0.064   9.087
14001SOL    HW243843   7.950  14.800   9.057
14002SOL     OW43844   1.703  14.017   8.263
14002SOL    HW143845   1.791  13.983   8.248
14002SOL    HW243846   1.705  14.054   8.351
14003SOL     OW43847   1.632  10.491   0.794
14003SOL    HW143848   1.706  10.550   0.804
14003SOL    HW243849   1.636  10.462   0.703
14004SOL     OW43850  13.650   2.204  13.716
14004SOL    HW143851  13.727   2.218  13.772
14004SOL    HW243852  13.634   2.109  13.720
14005SOL     OW43853   0.673   7.521   4.017
14005SOL    HW143854   0.622   7.597   4.044
14005SOL    HW243855   0.739   7.511   4.085
14006SOL     OW43856  11.120   6.626  11.744
14006SOL    HW143857  11.078   6.665  11.668
14006SOL    HW243858  11.187   6.568  11.708
14007SOL     OW43859  14.208   6.077   9.916
14007SOL    HW143860  14.113   6.065   9.911
14007SOL    HW243861  14.219   6.171   9.930
14008SOL     OW43862   4.722  10.199   1.724
14008SOL    HW143863   4.632  10.205   1.691
14008SOL    HW243864   4.768  10.271   1.681
14009SOL     OW43865   8.908   4.384  14.123
14009SOL    HW143866   8.995   4.409  14.091
14009SOL    HW243867   8.847   4.425  14.061
14010SOL     OW43868  14.137   7.356   6.971
14010SOL    HW143869  14.108   7.348   6.880
14010SOL    HW243870  14.176   7.443   6.976
14011SOL     OW43871   6.219   3.002   9.629
14011SOL    HW143872   6.138   3.038   9.593
14011SOL    HW243873   6.220   3.032   9.720
14012SOL     OW43874  10.058   5.248  10.805
14012SOL    HW143875  10.094   5.169  10.845
14012SOL    HW243876  10.040   5.307  10.878
14013SOL     OW43877  12.840   2.517   3.451
14013SOL    HW143878  12.846   2.428   3.484
14013SOL    HW243879  12.928   2.553   3.464
14014SOL     OW43880  14.441   8.818   1.985
14014SOL    HW143881  14.460   8.875   2.059
14014SOL    HW243882  14.359   8.775   2.008
14015SOL     OW43883  14.711  10.447   6.692
14015SOL    HW143884  14.704  10.508   6.765
14015SOL    HW243885  14.760  10.373   6.727
14016SOL     OW43886   4.835   6.598   0.985
14016SOL    HW143887   4.808   6.599   1.077
14016SOL    HW243888   4.906   6.661   0.980
14017SOL     OW43889   6.359   0.315   1.126
14017SOL    HW143890   6.450   0.287   1.115
14017SOL    HW243891   6.365   0.405   1.157
14018SOL     OW43892   8.467   1.569   7.331
14018SOL    HW143893   8.427   1.620   7.261
14018SOL    HW243894   8.404   1.499   7.350
14019SOL     OW43895   1.295   7.307  12.586
14019SOL    HW143896   1.351   7.362  12.641
14019SOL    HW243897   1.356   7.258  12.531
14020SOL     OW43898   6.252   3.551   9.584
14020SOL    HW143899   6.235   3.636   9.625
14020SOL    HW243900   6.342   3.558   9.550
14021SOL     OW43901   7.327  10.330   5.990
14021SOL    HW143902   7.242  10.358   6.025
14021SOL    HW243903   7.305  10.273   5.916
14022SOL     OW43904   7.473  11.086   4.010
14022SOL    HW143905   7.526  11.017   3.971
14022SOL    HW243906   7.440  11.136   3.934
14023SOL     OW43907   1.879  12.683   6.679
14023SOL    HW143908   1.974  12.685   6.686
14023SOL    HW243909   1.860  12.607   6.624
14024SOL     OW43910  11.158  13.608   5.937
14024SOL    HW143911  11.244  13.634   5.971
14024SOL    HW243912  11.095  13.653   5.993
14025SOL     OW43913   2.884   4.676  11.700
14025SOL    HW143914   2.907   4.595  11.745
14025SOL    HW243915   2.966   4.708  11.664
14026SOL     OW43916   9.630   5.615  11.124
14026SOL    HW143917   9.677   5.532  11.137
14026SOL    HW243918   9.558   5.611  11.187
14027SOL     OW43919   4.217  14.464   0.558
14027SOL    HW143920   4.291  14.407   0.579
14027SOL    HW243921   4.256  14.546   0.530
14028SOL     OW43922  12.876  10.570   7.514
14028SOL    HW143923  12.929  10.593   7.438
14028SOL    HW243924  12.855  10.477   7.501
14029SOL     OW43925   0.532   3.871  10.879
14029SOL    HW143926   0.598   3.938  10.859
14029SOL    HW243927   0.530   3.868  10.975
14030SOL     OW43928   2.845   5.004   8.657
14030SOL    HW143929   2.930   4.964   8.640
14030SOL    HW243930   2.797   4.939   8.708
14031SOL     OW43931   9.848  11.927  13.805
14031SOL    HW143932   9.854  11.962  13.716
14031SOL    HW243933   9.789  11.852  13.797
14032SOL     OW43934   0.101  14.508   4.773
14032SOL    HW143935   0.178  14.514   4.716
14032SOL    HW243936   0.129  14.451   4.845
14033SOL     OW43937   2.260  10.245  10.191
14033SOL    HW143938   2.322  10.224  10.260
14033SOL    HW243939   2.236  10.336  10.206
14034SOL     OW43940   8.040   4.637   8.719
14034SOL    HW143941   8.030   4.714   8.664
14034SOL    HW243942   7.963   4.584   8.701
14035SOL     OW43943   9.995  12.144   3.635
14035SOL    HW143944   9.958  12.090   3.704
14035SOL    HW243945   9.924  12.156   3.572
14036SOL     OW43946   2.575   8.813   7.614
14036SOL    HW143947   2.546   8.725   7.639
14036SOL    HW243948   2.612   8.802   7.527
14037SOL     OW43949  10.479  14.622   3.880
14037SOL    HW143950  10.552  14.582   3.927
14037SOL    HW243951  10.457  14.558   3.811
14038SOL     OW43952  11.714   4.917  10.754
14038SOL    HW143953  11.710   4.890  10.845
14038SOL    HW243954  11.747   4.840  10.708
14039SOL     OW43955  11.136   3.085   7.832
14039SOL    HW143956  11.101   3.023   7.769
14039SOL    HW243957  11.084   3.164   7.820
14040SOL     OW43958  11.541  14.122   9.626
14040SOL    HW143959  11.459  14.165   9.604
14040SOL    HW243960  11.515  14.037   9.662
14041SOL     OW43961   3.395   5.461   1.236
14041SOL    HW143962   3.333   5.452   1.164
14041SOL    HW243963   3.404   5.372   1.271
14042SOL     OW43964   6.536  12.879   7.417
14042SOL    HW143965   6.583  12.904   7.496
14042SOL    HW243966   6.462  12.826   7.448
14043SOL     OW43967  14.740   6.991   8.957
14043SOL    HW143968  14.653   7.023   8.981
14043SOL    HW243969  14.724   6.914   8.902
14044SOL     OW43970   9.905  13.889   1.960
14044SOL    HW143971   9.888  13.983   1.954
14044SOL    HW243972   9.953  13.878   2.042
14045SOL     OW43973  10.306   8.073   0.537
14045SOL    HW143974  10.339   8.046   0.451
14045SOL    HW243975  10.365   8.142   0.565
14046SOL     OW43976  12.737   5.843   2.426
14046SOL    HW143977  12.644   5.853   2.443
14046SOL    HW243978  12.772   5.806   2.507
14047SOL     OW43979  13.900   5.717  10.108
14047SOL    HW143980  13.967   5.772  10.149
14047SOL    HW243981  13.819   5.766  10.118
14048SOL     OW43982  13.410   1.514  11.448
14048SOL    HW143983  13.411   1.459  11.369
14048SOL    HW243984  13.498   1.552  11.452
14049SOL     OW43985   5.779  10.085   2.755
14049SOL    HW143986   5.844  10.133   2.704
14049SOL    HW243987   5.830  10.040   2.822
14050SOL     OW43988  11.879  12.132   5.074
14050SOL    HW143989  11.820  12.123   5.149
14050SOL    HW243990  11.835  12.084   5.003
14051SOL     OW43991   9.060  13.830   0.173
14051SOL    HW143992   9.075  13.743   0.134
14051SOL    HW243993   9.144  13.875   0.163
14052SOL     OW43994   8.069  11.906   3.738
14052SOL    HW143995   8.113  11.991   3.740
14052SOL    HW243996   8.029  11.898   3.825
14053SOL     OW43997   8.101   2.113   5.085
14053SOL    HW143998   8.119   2.206   5.076
14053SOL    HW243999   8.174   2.070   5.040
14054SOL     OW44000   4.609  10.129   0.746
14054SOL    HW144001   4.678  10.122   0.680
14054SOL    HW244002   4.622  10.053   0.802
14055SOL     OW44003   6.310   8.332  11.912
14055SOL    HW144004   6.335   8.282  11.990
14055SOL    HW244005   6.214   8.338  11.918
14056SOL     OW44006   9.267   8.530  10.199
14056SOL    HW144007   9.280   8.617  10.162
14056SOL    HW244008   9.200   8.490  10.143
14057SOL     OW44009  13.390  14.093  13.386
14057SOL    HW144010  13.359  14.069  13.474
14057SOL    HW244011  13.426  14.011  13.351
14058SOL     OW44012   6.587  10.939   9.352
14058SOL    HW144013   6.678  10.920   9.374
14058SOL    HW244014   6.543  10.854   9.355
14059SOL     OW44015   0.892   4.633   6.526
14059SOL    HW144016   0.853   4.705   6.476
14059SOL    HW244017   0.826   4.609   6.590
14060SOL     OW44018  10.449  14.727  13.599
14060SOL    HW144019  10.451  14.632  13.583
14060SOL    HW244020  10.356  14.749  13.602
14061SOL     OW44021  13.518   9.316   3.352
14061SOL    HW144022  13.460   9.384   3.317
14061SOL    HW244023  13.522   9.334   3.446
14062SOL     OW44024  12.527   3.663   8.124
14062SOL    HW144025  12.558   3.718   8.196
14062SOL    HW244026  12.464   3.719   8.077
14063SOL     OW44027  13.084   6.367   5.132
14063SOL    HW144028  13.104   6.400   5.220
14063SOL    HW244029  13.003   6.317   5.143
14064SOL     OW44030  11.314  11.343   1.076
14064SOL    HW144031  11.262  11.410   1.032
14064SOL    HW244032  11.282  11.260   1.040
14065SOL     OW44033  13.968  11.110  11.875
14065SOL    HW144034  14.042  11.097  11.935
14065SOL    HW244035  13.895  11.064  11.917
14066SOL     OW44036  10.804   1.583   2.179
14066SOL    HW144037  10.835   1.669   2.207
14066SOL    HW244038  10.837   1.572   2.090
14067SOL     OW44039  12.041   7.905   9.729
14067SOL    HW144040  11.950   7.913   9.756
14067SOL    HW244041  12.040   7.834   9.664
14068SOL     OW44042   3.284  13.098  13.737
14068SOL    HW144043   3.265  13.004  13.735
14068SOL    HW244044   3.211  13.138  13.690
14069SOL     OW44045  11.639   7.111   4.961
14069SOL    HW144046  11.620   7.109   5.055
14069SOL    HW244047  11.626   7.202   4.935
14070SOL     OW44048   6.894   4.122   7.441
14070SOL    HW144049   6.960   4.078   7.495
14070SOL    HW244050   6.811   4.106   7.486
14071SOL     OW44051  11.502   8.252   9.695
14071SOL    HW144052  11.496   8.340   9.658
14071SOL    HW244053  11.498   8.194   9.619
14072SOL     OW44054   9.582   5.158   3.936
14072SOL    HW144055   9.516   5.089   3.934
14072SOL    HW244056   9.662   5.114   3.966
14073SOL     OW44057  10.440   1.366   0.830
14073SOL    HW144058  10.420   1.412   0.911
14073SOL    HW244059  10.463   1.277   0.858
14074SOL     OW44060   7.067   9.865   1.286
14074SOL    HW144061   7.064   9.789   1.227
14074SOL    HW244062   7.127   9.839   1.356
14075SOL     OW44063   9.092  11.604   3.065
14075SOL    HW144064   9.157  11.640   3.004
14075SOL    HW244065   9.083  11.670   3.133
14076SOL     OW44066   9.018   1.170   9.554
14076SOL    HW144067   9.086   1.223   9.513
14076SOL    HW244068   9.065   1.098   9.595
14077SOL     OW44069   8.919  13.884  12.136
14077SOL    HW144070   9.000  13.838  12.156
14077SOL    HW244071   8.850  13.820  12.154
14078SOL     OW44072   5.694   0.020   6.674
14078SOL    HW144073   5.745   0.100   6.685
14078SOL    HW244074   5.674  14.871   6.763
14079SOL     OW44075  10.323   6.488  10.421
14079SOL    HW144076  10.312   6.439  10.339
14079SOL    HW244077  10.346   6.422  10.486
14080SOL     OW44078   5.750   7.598   1.917
14080SOL    HW144079   5.747   7.639   2.004
14080SOL    HW244080   5.682   7.530   1.921
14081SOL     OW44081   8.172   6.181   2.648
14081SOL    HW144082   8.138   6.209   2.563
14081SOL    HW244083   8.238   6.246   2.670
14082SOL     OW44084   3.326  10.145   5.466
14082SOL    HW144085   3.361  10.214   5.410
14082SOL    HW244086   3.400  10.088   5.483
14083SOL     OW44087   4.068   6.141   3.987
14083SOL    HW144088   4.003   6.081   3.950
14083SOL    HW244089   4.152   6.097   3.975
14084SOL     OW44090  13.010  10.256   8.097
14084SOL    HW144091  13.070  10.193   8.136
14084SOL    HW244092  13.001  10.325   8.163
14085SOL     OW44093   4.149  13.592   2.504
14085SOL    HW144094   4.185  13.667   2.551
14085SOL    HW244095   4.186  13.516   2.548
14086SOL     OW44096   5.936   4.127   8.757
14086SOL    HW144097   5.916   4.213   8.794
14086SOL    HW244098   5.852   4.081   8.756
14087SOL     OW44099   6.508   1.760  13.887
14087SOL    HW144100   6.583   1.737  13.942
14087SOL    HW244101   6.507   1.693  13.818
14088SOL     OW44102   9.260   6.043  10.945
14088SOL    HW144103   9.165   6.032  10.951
14088SOL    HW244104   9.278   6.046  10.851
14089SOL     OW44105   6.920   4.674   9.765
14089SOL    HW144106   6.848   4.695   9.825
14089SOL    HW244107   6.999   4.703   9.810
14090SOL     OW44108  10.447  10.899   0.865
14090SOL    HW144109  10.414  10.981   0.827
14090SOL    HW244110  10.439  10.913   0.960
14091SOL     OW44111   2.493   4.757   0.535
14091SOL    HW144112   2.575   4.724   0.498
14091SOL    HW244113   2.466   4.688   0.596
14092SOL     OW44114  12.072   6.203   4.729
14092SOL    HW144115  12.102   6.128   4.780
14092SOL    HW244116  12.140   6.217   4.663
14093SOL     OW44117   8.830   1.058  11.139
14093SOL    HW144118   8.768   0.994  11.176
14093SOL    HW244119   8.802   1.069  11.048
14094SOL     OW44120  12.578   9.040   1.444
14094SOL    HW144121  12.528   9.117   1.473
14094SOL    HW244122  12.553   8.971   1.505
14095SOL     OW44123   9.458  14.357   5.475
14095SOL    HW144124   9.439  14.265   5.456
14095SOL    HW244125   9.443  14.402   5.393
14096SOL     OW44126  10.066  11.381   7.524
14096SOL    HW144127  10.007  11.394   7.599
14096SOL    HW244128  10.152  11.406   7.557
14097SOL     OW44129  13.178   9.606  11.288
14097SOL    HW144130  13.263   9.607  11.333
14097SOL    HW244131  13.130   9.679  11.326
14098SOL     OW44132   5.353   2.843   1.886
14098SOL    HW144133   5.365   2.867   1.978
14098SOL    HW244134   5.442   2.825   1.854
14099SOL     OW44135   7.084  12.703   1.869
14099SOL    HW144136   7.131  12.718   1.950
14099SOL    HW244137   7.152  12.687   1.804
14100SOL     OW44138   4.046   7.690   5.861
14100SOL    HW144139   3.979   7.635   5.902
14100SOL    HW244140   4.091   7.632   5.800
14101SOL     OW44141   8.733  12.939   5.144
14101SOL    HW144142   8.788  12.876   5.191
14101SOL    HW244143   8.715  12.898   5.060
14102SOL     OW44144   2.577  13.579  14.113
14102SOL    HW144145   2.664  13.600  14.147
14102SOL    HW244146   2.524  13.657  14.132
14103SOL     OW44147   7.722   6.010   6.458
14103SOL    HW144148   7.628   6.027   6.454
14103SOL    HW244149   7.763   6.087   6.419
14104SOL     OW44150   9.292  14.724   0.802
14104SOL    HW144151   9.360  14.724   0.869
14104SOL    HW244152   9.210  14.728   0.852
14105SOL     OW44153   1.854  10.817   1.755
14105SOL    HW144154   1.799  10.883   1.798
14105SOL    HW244155   1.794  10.746   1.734
14106SOL     OW44156   9.103  14.422   1.155
14106SOL    HW144157   9.099  14.338   1.201
14106SOL    HW244158   9.185  14.418   1.106
14107SOL     OW44159   7.861   2.518   7.981
14107SOL    HW144160   7.851   2.439   8.035
14107SOL    HW244161   7.805   2.583   8.024
14108SOL     OW44162   4.539  10.602   9.013
14108SOL    HW144163   4.562  10.695   9.015
14108SOL    HW244164   4.513  10.582   9.102
14109SOL     OW44165   0.139   8.035  11.681
14109SOL    HW144166   0.168   8.060  11.768
14109SOL    HW244167   0.205   8.071  11.622
14110SOL     OW44168   8.295   6.000  11.493
14110SOL    HW144169   8.202   5.986  11.510
14110SOL    HW244170   8.333   6.016  11.580
14111SOL     OW44171   9.747   3.107  11.040
14111SOL    HW144172   9.680   3.127  10.976
14111SOL    HW244173   9.807   3.181  11.037
14112SOL     OW44174   5.134  10.452  10.526
14112SOL    HW144175   5.039  10.444  10.525
14112SOL    HW244176   5.152  10.514  10.597
14113SOL     OW44177   2.929   6.029  14.792
14113SOL    HW144178   2.868   5.956  14.808
14113SOL    HW244179   2.904   6.062  14.706
14114SOL     OW44180   3.229   7.061   5.822
14114SOL    HW144181   3.155   7.076   5.763
14114SOL    HW244182   3.248   6.968   5.814
14115SOL     OW44183   5.282   0.458  14.297
14115SOL    HW144184   5.262   0.550  14.276
14115SOL    HW244185   5.204   0.410  14.270
14116SOL     OW44186  11.572  12.153   4.375
14116SOL    HW144187  11.523  12.234   4.361
14116SOL    HW244188  11.662  12.182   4.388
14117SOL     OW44189  11.359   1.104   2.223
14117SOL    HW144190  11.267   1.128   2.229
14117SOL    HW244191  11.364   1.043   2.150
14118SOL     OW44192  11.932   2.551   4.668
14118SOL    HW144193  11.893   2.469   4.639
14118SOL    HW244194  12.001   2.568   4.604
14119SOL     OW44195   2.257  11.451  10.659
14119SOL    HW144196   2.244  11.512  10.732
14119SOL    HW244197   2.278  11.507  10.584
14120SOL     OW44198   8.815  10.805   4.796
14120SOL    HW144199   8.788  10.885   4.750
14120SOL    HW244200   8.737  10.778   4.844
14121SOL     OW44201   9.540  10.094   1.951
14121SOL    HW144202   9.629  10.066   1.932
14121SOL    HW244203   9.546  10.190   1.957
14122SOL     OW44204   1.709   0.412   7.870
14122SOL    HW144205   1.708   0.476   7.941
14122SOL    HW244206   1.800   0.411   7.840
14123SOL     OW44207  11.395   9.732   7.107
14123SOL    HW144208  11.352   9.693   7.183
14123SOL    HW244209  11.486   9.704   7.113
14124SOL     OW44210   5.173   8.385  14.580
14124SOL    HW144211   5.106   8.447  14.608
14124SOL    HW244212   5.133   8.299  14.592
14125SOL     OW44213   5.924   4.383   7.618
14125SOL    HW144214   5.863   4.323   7.574
14125SOL    HW244215   5.953   4.335   7.695
14126SOL     OW44216  11.443   3.624  14.566
14126SOL    HW144217  11.466   3.565  14.638
14126SOL    HW244218  11.447   3.711  14.604
14127SOL     OW44219   3.933   7.809   7.390
14127SOL    HW144220   3.957   7.723   7.355
14127SOL    HW244221   3.899   7.790   7.478
14128SOL     OW44222   2.162   5.377  12.033
14128SOL    HW144223   2.126   5.298  12.072
14128SOL    HW244224   2.134   5.447  12.092
14129SOL     OW44225   4.201  11.707   2.837
14129SOL    HW144226   4.238  11.671   2.756
14129SOL    HW244227   4.109  11.723   2.817
14130SOL     OW44228   4.995   8.804   8.268
14130SOL    HW144229   5.027   8.758   8.345
14130SOL    HW244230   5.074   8.835   8.223
14131SOL     OW44231   0.385   2.547   5.721
14131SOL    HW144232   0.333   2.492   5.663
14131SOL    HW244233   0.418   2.616   5.665
14132SOL     OW44234   3.804   0.673   5.082
14132SOL    HW144235   3.734   0.739   5.076
14132SOL    HW244236   3.761   0.596   5.118
14133SOL     OW44237   8.786   2.519   0.202
14133SOL    HW144238   8.875   2.554   0.211
14133SOL    HW244239   8.755   2.553   0.118
14134SOL     OW44240   8.059   7.515  11.839
14134SOL    HW144241   8.056   7.438  11.896
14134SOL    HW244242   8.131   7.568  11.874
14135SOL     OW44243   1.203   9.427  10.965
14135SOL    HW144244   1.124   9.473  10.995
14135SOL    HW244245   1.170   9.354  10.914
14136SOL     OW44246   2.959   3.493   9.430
14136SOL    HW144247   3.023   3.480   9.360
14136SOL    HW244248   2.920   3.578   9.412
14137SOL     OW44249  10.824   8.041  14.049
14137SOL    HW144250  10.912   8.078  14.054
14137SOL    HW244251  10.819   8.003  13.961
14138SOL     OW44252   0.875   2.724   5.014
14138SOL    HW144253   0.952   2.780   5.007
14138SOL    HW244254   0.904   2.650   5.068
14139SOL     OW44255  13.065  13.114   8.808
14139SOL    HW144256  13.035  13.024   8.811
14139SOL    HW244257  12.997  13.164   8.854
14140SOL     OW44258   2.073   6.754  11.768
14140SOL    HW144259   2.060   6.798  11.684
14140SOL    HW244260   2.154   6.791  11.803
14141SOL     OW44261  11.955   9.463   8.270
14141SOL    HW144262  11.918   9.551   8.263
14141SOL    HW244263  11.896   9.408   8.218
14142SOL     OW44264   5.352   1.569  11.623
14142SOL    HW144265   5.388   1.627  11.690
14142SOL    HW244266   5.258   1.572  11.637
14143SOL     OW44267  12.503   6.118  11.511
14143SOL    HW144268  12.495   6.150  11.602
14143SOL    HW244269  12.441   6.172  11.462
14144SOL     OW44270   0.583  12.311   8.382
14144SOL    HW144271   0.512  12.285   8.323
14144SOL    HW244272   0.539  12.326   8.466
14145SOL     OW44273  11.655   2.146   5.360
14145SOL    HW144274  11.584   2.160   5.297
14145SOL    HW244275  11.679   2.054   5.349
14146SOL     OW44276   2.396   9.401   8.054
14146SOL    HW144277   2.447   9.476   8.084
14146SOL    HW244278   2.323   9.394   8.116
14147SOL     OW44279   4.673   2.831  14.864
14147SOL    HW144280   4.692   2.876  14.782
14147SOL    HW244281   4.750   2.777   0.001
14148SOL     OW44282   1.115   5.469  12.048
14148SOL    HW144283   1.103   5.555  12.087
14148SOL    HW244284   1.040   5.418  12.079
14149SOL     OW44285   6.137   0.568   7.471
14149SOL    HW144286   6.150   0.615   7.388
14149SOL    HW244287   6.088   0.490   7.446
14150SOL     OW44288   8.145  11.811  10.408
14150SOL    HW144289   8.131  11.899  10.442
14150SOL    HW244290   8.230  11.785  10.445
14151SOL     OW44291  10.010   0.348   1.435
14151SOL    HW144292  10.015   0.303   1.520
14151SOL    HW244293   9.931   0.314   1.394
14152SOL     OW44294   1.059   3.072   8.551
14152SOL    HW144295   1.083   3.163   8.532
14152SOL    HW244296   1.050   3.069   8.647
14153SOL     OW44297   0.100  11.868   4.302
14153SOL    HW144298   0.076  11.954   4.269
14153SOL    HW244299   0.170  11.838   4.243
14154SOL     OW44300   1.378   0.037  13.713
14154SOL    HW144301   1.356  14.826  13.736
14154SOL    HW244302   1.424   0.071  13.790
14155SOL     OW44303  10.671   2.661  10.512
14155SOL    HW144304  10.721   2.705  10.582
14155SOL    HW244305  10.737   2.642  10.445
14156SOL     OW44306   6.799   8.334  13.346
14156SOL    HW144307   6.753   8.418  13.351
14156SOL    HW244308   6.857   8.333  13.422
14157SOL     OW44309  12.487  10.507   9.458
14157SOL    HW144310  12.401  10.480   9.425
14157SOL    HW244311  12.545  10.496   9.383
14158SOL     OW44312   0.871   3.182   2.219
14158SOL    HW144313   0.837   3.166   2.131
14158SOL    HW244314   0.963   3.204   2.206
14159SOL     OW44315  14.349   1.044   4.260
14159SOL    HW144316  14.281   1.096   4.302
14159SOL    HW244317  14.392   1.106   4.200
14160SOL     OW44318  13.949   3.854   4.128
14160SOL    HW144319  14.042   3.852   4.149
14160SOL    HW244320  13.925   3.762   4.113
14161SOL     OW44321   0.984   8.748   9.685
14161SOL    HW144322   1.000   8.685   9.755
14161SOL    HW244323   1.026   8.711   9.608
14162SOL     OW44324   2.444   3.401   6.141
14162SOL    HW144325   2.530   3.365   6.163
14162SOL    HW244326   2.430   3.471   6.205
14163SOL     OW44327   9.628  14.424   9.762
14163SOL    HW144328   9.624  14.340   9.716
14163SOL    HW244329   9.699  14.471   9.719
14164SOL     OW44330   6.692   3.202   7.298
14164SOL    HW144331   6.645   3.257   7.361
14164SOL    HW244332   6.659   3.114   7.314
14165SOL     OW44333   0.558   6.090   6.538
14165SOL    HW144334   0.516   6.064   6.456
14165SOL    HW244335   0.599   6.175   6.519
14166SOL     OW44336   4.321  11.475   1.328
14166SOL    HW144337   4.347  11.389   1.295
14166SOL    HW244338   4.383  11.536   1.290
14167SOL     OW44339   0.382   1.225  14.607
14167SOL    HW144340   0.367   1.227  14.701
14167SOL    HW244341   0.400   1.133  14.587
14168SOL     OW44342   8.740   7.764   3.937
14168SOL    HW144343   8.668   7.713   3.899
14168SOL    HW244344   8.727   7.853   3.904
14169SOL     OW44345   7.214  14.487   7.840
14169SOL    HW144346   7.168  14.556   7.888
14169SOL    HW244347   7.188  14.406   7.883
14170SOL     OW44348   3.115  10.513   7.302
14170SOL    HW144349   3.138  10.496   7.211
14170SOL    HW244350   3.105  10.426   7.342
14171SOL     OW44351  11.844   6.414   9.357
14171SOL    HW144352  11.780   6.460   9.411
14171SOL    HW244353  11.885   6.482   9.304
14172SOL     OW44354   7.503   9.970   9.101
14172SOL    HW144355   7.586  10.013   9.082
14172SOL    HW244356   7.524   9.905   9.169
14173SOL     OW44357   9.718  13.996   9.521
14173SOL    HW144358   9.797  13.960   9.562
14173SOL    HW244359   9.646  13.946   9.560
14174SOL     OW44360  13.475   5.101   3.108
14174SOL    HW144361  13.561   5.140   3.123
14174SOL    HW244362  13.484   5.055   3.024
14175SOL     OW44363   9.928  11.670   0.126
14175SOL    HW144364   9.934  11.624   0.209
14175SOL    HW244365   9.994  11.738   0.131
14176SOL     OW44366  11.038   2.008   2.941
14176SOL    HW144367  11.101   1.981   3.008
14176SOL    HW244368  11.000   2.089   2.975
14177SOL     OW44369  14.293   6.312   0.650
14177SOL    HW144370  14.343   6.234   0.674
14177SOL    HW244371  14.335   6.344   0.570
14178SOL     OW44372  11.290   7.848  13.514
14178SOL    HW144373  11.293   7.754  13.496
14178SOL    HW244374  11.261   7.854  13.605
14179SOL     OW44375  10.018   3.222   2.457
14179SOL    HW144376   9.932   3.231   2.417
14179SOL    HW244377  10.017   3.282   2.532
14180SOL     OW44378  10.169   6.566  10.948
14180SOL    HW144379  10.252   6.569  10.901
14180SOL    HW244380  10.169   6.480  10.991
14181SOL     OW44381   9.508   3.242  14.165
14181SOL    HW144382   9.534   3.333  14.152
14181SOL    HW244383   9.423   3.247  14.210
14182SOL     OW44384   3.107   1.871   5.708
14182SOL    HW144385   3.191   1.839   5.741
14182SOL    HW244386   3.056   1.791   5.690
14183SOL     OW44387   1.776  11.042   6.288
14183SOL    HW144388   1.742  11.023   6.200
14183SOL    HW244389   1.843  11.109   6.273
14184SOL     OW44390   0.070   2.141   6.509
14184SOL    HW144391   0.033   2.152   6.421
14184SOL    HW244392   0.163   2.124   6.494
14185SOL     OW44393   7.923   2.889   7.870
14185SOL    HW144394   8.004   2.941   7.864
14185SOL    HW244395   7.917   2.865   7.963
14186SOL     OW44396  14.622   3.727   7.477
14186SOL    HW144397  14.682   3.653   7.472
14186SOL    HW244398  14.541   3.695   7.437
14187SOL     OW44399   2.426   2.658   0.517
14187SOL    HW144400   2.509   2.611   0.505
14187SOL    HW244401   2.372   2.631   0.442
14188SOL     OW44402  13.871   2.091   7.920
14188SOL    HW144403  13.784   2.124   7.946
14188SOL    HW244404  13.907   2.160   7.864
14189SOL     OW44405   3.977   1.044   7.093
14189SOL    HW144406   4.049   1.055   7.031
14189SOL    HW244407   3.947   1.134   7.111
14190SOL     OW44408   4.469   1.793   0.904
14190SOL    HW144409   4.470   1.698   0.913
14190SOL    HW244410   4.507   1.810   0.818
14191SOL     OW44411   4.889  10.217   7.938
14191SOL    HW144412   4.915  10.189   8.026
14191SOL    HW244413   4.798  10.244   7.948
14192SOL     OW44414  10.215   4.176   6.496
14192SOL    HW144415  10.271   4.193   6.572
14192SOL    HW244416  10.152   4.248   6.497
14193SOL     OW44417   8.650   6.996   7.681
14193SOL    HW144418   8.562   7.000   7.643
14193SOL    HW244419   8.634   6.986   7.775
14194SOL     OW44420  14.454   5.535   8.465
14194SOL    HW144421  14.402   5.561   8.541
14194SOL    HW244422  14.389   5.519   8.396
14195SOL     OW44423   9.423  13.959   1.354
14195SOL    HW144424   9.445  13.980   1.445
14195SOL    HW244425   9.477  13.883   1.333
14196SOL     OW44426  11.406  14.657   6.028
14196SOL    HW144427  11.330  14.643   5.972
14196SOL    HW244428  11.412  14.752   6.037
14197SOL     OW44429   0.329  13.495  10.238
14197SOL    HW144430   0.335  13.426  10.304
14197SOL    HW244431   0.268  13.461  10.173
14198SOL     OW44432   8.075   6.915  10.912
14198SOL    HW144433   8.170   6.905  10.903
14198SOL    HW244434   8.065   6.987  10.975
14199SOL     OW44435   9.263   7.941   4.649
14199SOL    HW144436   9.171   7.917   4.639
14199SOL    HW244437   9.287   7.979   4.565
14200SOL     OW44438  10.361  10.635  13.047
14200SOL    HW144439  10.363  10.653  12.953
14200SOL    HW244440  10.270  10.653  13.073
14201SOL     OW44441   4.779   8.710   1.695
14201SOL    HW144442   4.828   8.748   1.769
14201SOL    HW244443   4.789   8.775   1.625
14202SOL     OW44444   6.781   6.024   6.055
14202SOL    HW144445   6.848   5.965   6.089
14202SOL    HW244446   6.744   6.065   6.133
14203SOL     OW44447   2.436   9.783  12.426
14203SOL    HW144448   2.452   9.740  12.342
14203SOL    HW244449   2.363   9.735  12.464
14204SOL     OW44450   0.930   3.037   7.051
14204SOL    HW144451   0.885   3.058   6.970
14204SOL    HW244452   1.022   3.057   7.034
14205SOL     OW44453   2.190   7.237   9.009
14205SOL    HW144454   2.278   7.225   8.974
14205SOL    HW244455   2.132   7.223   8.934
14206SOL     OW44456  12.739  10.923   9.699
14206SOL    HW144457  12.810  10.933   9.762
14206SOL    HW244458  12.666  10.889   9.751
14207SOL     OW44459  10.173   7.920   5.272
14207SOL    HW144460  10.218   7.933   5.189
14207SOL    HW244461  10.080   7.914   5.248
14208SOL     OW44462   4.977   0.699   8.314
14208SOL    HW144463   5.002   0.612   8.345
14208SOL    HW244464   4.916   0.683   8.242
14209SOL     OW44465   6.403   7.444  12.682
14209SOL    HW144466   6.403   7.529  12.726
14209SOL    HW244467   6.350   7.458  12.604
14210SOL     OW44468  11.354  14.367  13.491
14210SOL    HW144469  11.394  14.440  13.445
14210SOL    HW244470  11.261  14.387  13.494
14211SOL     OW44471   9.825   6.259   1.606
14211SOL    HW144472   9.848   6.241   1.697
14211SOL    HW244473   9.866   6.344   1.587
14212SOL     OW44474   7.206   5.386   8.917
14212SOL    HW144475   7.137   5.409   8.856
14212SOL    HW244476   7.164   5.387   9.003
14213SOL     OW44477  11.316   3.627   7.159
14213SOL    HW144478  11.355   3.604   7.075
14213SOL    HW244479  11.252   3.558   7.176
14214SOL     OW44480  12.697  10.884  10.423
14214SOL    HW144481  12.626  10.854  10.365
14214SOL    HW244482  12.683  10.834  10.504
14215SOL     OW44483   4.133   0.959  10.680
14215SOL    HW144484   4.176   0.896  10.622
14215SOL    HW244485   4.048   0.920  10.699
14216SOL     OW44486   1.257  14.667   1.208
14216SOL    HW144487   1.272  14.633   1.120
14216SOL    HW244488   1.168  14.641   1.230
14217SOL     OW44489  10.857   4.290   3.925
14217SOL    HW144490  10.800   4.270   3.851
14217SOL    HW244491  10.816   4.245   3.999
14218SOL     OW44492   7.568   5.367  10.046
14218SOL    HW144493   7.622   5.317  10.106
14218SOL    HW244494   7.621   5.376   9.967
14219SOL     OW44495   6.067   0.036   6.811
14219SOL    HW144496   6.005  14.847   6.836
14219SOL    HW244497   6.013   0.114   6.798
14220SOL     OW44498  10.657   2.939   0.859
14220SOL    HW144499  10.607   3.013   0.823
14220SOL    HW244500  10.748   2.969   0.855
14221SOL     OW44501  14.007  14.295  12.854
14221SOL    HW144502  13.926  14.245  12.843
14221SOL    HW244503  13.980  14.373  12.902
14222SOL     OW44504  10.843   9.489   7.720
14222SOL    HW144505  10.898   9.456   7.792
14222SOL    HW244506  10.821   9.411   7.670
14223SOL     OW44507   2.039   2.589  12.977
14223SOL    HW144508   1.999   2.514  12.933
14223SOL    HW244509   2.007   2.583  13.067
14224SOL     OW44510   2.694   6.475   5.729
14224SOL    HW144511   2.622   6.423   5.693
14224SOL    HW244512   2.690   6.460   5.824
14225SOL     OW44513   2.760  10.426  14.563
14225SOL    HW144514   2.811  10.411  14.483
14225SOL    HW244515   2.683  10.474  14.534
14226SOL     OW44516   0.293   8.521  10.359
14226SOL    HW144517   0.358   8.582  10.394
14226SOL    HW244518   0.217   8.531  10.417
14227SOL     OW44519  12.441   1.507  13.601
14227SOL    HW144520  12.501   1.440  13.570
14227SOL    HW244521  12.354   1.472  13.581
14228SOL     OW44522   3.836   6.797   3.969
14228SOL    HW144523   3.900   6.810   3.899
14228SOL    HW244524   3.773   6.868   3.957
14229SOL     OW44525  13.609  13.701   0.540
14229SOL    HW144526  13.589  13.608   0.550
14229SOL    HW244527  13.604  13.737   0.629
14230SOL     OW44528   9.618  11.333   3.680
14230SOL    HW144529   9.639  11.372   3.765
14230SOL    HW244530   9.609  11.407   3.621
14231SOL     OW44531  13.708  11.891   7.816
14231SOL    HW144532  13.674  11.960   7.758
14231SOL    HW244533  13.649  11.817   7.803
14232SOL     OW44534  12.794   3.167   3.929
14232SOL    HW144535  12.840   3.091   3.966
14232SOL    HW244536  12.718   3.130   3.884
14233SOL     OW44537   8.337  13.743  14.105
14233SOL    HW144538   8.390  13.808  14.059
14233SOL    HW244539   8.303  13.687  14.035
14234SOL     OW44540   5.973  13.940   0.427
14234SOL    HW144541   5.993  13.982   0.511
14234SOL    HW244542   5.934  13.856   0.451
14235SOL     OW44543   9.464   2.399   0.688
14235SOL    HW144544   9.385   2.351   0.667
14235SOL    HW244545   9.444   2.490   0.664
14236SOL     OW44546   3.765   1.716   0.214
14236SOL    HW144547   3.817   1.659   0.270
14236SOL    HW244548   3.687   1.664   0.192
14237SOL     OW44549   8.157   1.700  11.131
14237SOL    HW144550   8.144   1.752  11.051
14237SOL    HW244551   8.227   1.639  11.108
14238SOL     OW44552   7.786   2.593   8.823
14238SOL    HW144553   7.692   2.582   8.812
14238SOL    HW244554   7.809   2.531   8.892
14239SOL     OW44555   5.011   1.632   5.588
14239SOL    HW144556   4.927   1.657   5.547
14239SOL    HW244557   4.990   1.621   5.681
14240SOL     OW44558   4.127   0.677   2.975
14240SOL    HW144559   4.075   0.672   2.895
14240SOL    HW244560   4.218   0.686   2.944
14241SOL     OW44561  14.804   9.621   1.128
14241SOL    HW144562  14.852   9.704   1.134
14241SOL    HW244563  14.729   9.641   1.071
14242SOL     OW44564  11.298   4.252   6.488
14242SOL    HW144565  11.240   4.306   6.541
14242SOL    HW244566  11.375   4.306   6.474
14243SOL     OW44567   4.918   8.639   9.087
14243SOL    HW144568   4.988   8.703   9.070
14243SOL    HW244569   4.849   8.689   9.130
14244SOL     OW44570  11.515  11.680   3.376
14244SOL    HW144571  11.588  11.664   3.437
14244SOL    HW244572  11.476  11.593   3.363
14245SOL     OW44573   2.390   0.257   9.566
14245SOL    HW144574   2.476   0.237   9.604
14245SOL    HW244575   2.338   0.179   9.582
14246SOL     OW44576   4.587   1.182   3.477
14246SOL    HW144577   4.552   1.183   3.566
14246SOL    HW244578   4.511   1.163   3.422
14247SOL     OW44579   6.195   1.967   7.633
14247SOL    HW144580   6.160   2.056   7.641
14247SOL    HW244581   6.267   1.964   7.696
14248SOL     OW44582  10.918  14.303   3.075
14248SOL    HW144583  10.831  14.322   3.109
14248SOL    HW244584  10.967  14.385   3.087
14249SOL     OW44585   9.934   4.537  10.450
14249SOL    HW144586   9.842   4.558  10.432
14249SOL    HW244587   9.982   4.616  10.426
14250SOL     OW44588   6.353   8.346  10.332
14250SOL    HW144589   6.318   8.431  10.359
14250SOL    HW244590   6.410   8.319  10.405
14251SOL     OW44591   5.488  11.628   9.948
14251SOL    HW144592   5.574  11.667   9.963
14251SOL    HW244593   5.474  11.636   9.854
14252SOL     OW44594  11.784   0.016   7.387
14252SOL    HW144595  11.790   0.034   7.481
14252SOL    HW244596  11.863   0.056   7.350
14253SOL     OW44597  11.554   6.214   4.099
14253SOL    HW144598  11.578   6.126   4.068
14253SOL    HW244599  11.461   6.222   4.077
14254SOL     OW44600   8.766  14.219  10.526
14254SOL    HW144601   8.721  14.162  10.589
14254SOL    HW244602   8.696  14.250  10.469
14255SOL     OW44603  13.565   7.434   6.298
14255SOL    HW144604  13.536   7.415   6.387
14255SOL    HW244605  13.573   7.348   6.256
14256SOL     OW44606   9.308   5.471   2.428
14256SOL    HW144607   9.251   5.516   2.491
14256SOL    HW244608   9.274   5.497   2.342
14257SOL     OW44609  13.401  13.029  12.427
14257SOL    HW144610  13.482  12.996  12.387
14257SOL    HW244611  13.371  13.097  12.366
14258SOL     OW44612   2.713  12.322   6.390
14258SOL    HW144613   2.764  12.313   6.310
14258SOL    HW244614   2.654  12.247   6.390
14259SOL     OW44615  13.191  14.201   9.543
14259SOL    HW144616  13.170  14.141   9.472
14259SOL    HW244617  13.234  14.275   9.500
14260SOL     OW44618  10.988   5.104  12.990
14260SOL    HW144619  10.998   5.042  12.918
14260SOL    HW244620  10.959   5.051  13.064
14261SOL     OW44621   2.729   7.653   3.875
14261SOL    HW144622   2.681   7.626   3.953
14261SOL    HW244623   2.669   7.636   3.803
14262SOL     OW44624   2.277   6.628   0.160
14262SOL    HW144625   2.306   6.584   0.240
14262SOL    HW244626   2.260   6.718   0.187
14263SOL     OW44627   7.327   8.323   9.785
14263SOL    HW144628   7.369   8.395   9.738
14263SOL    HW244629   7.363   8.329   9.874
14264SOL     OW44630   5.230   6.426   5.230
14264SOL    HW144631   5.188   6.425   5.315
14264SOL    HW244632   5.295   6.356   5.234
14265SOL     OW44633   8.166   9.374   6.752
14265SOL    HW144634   8.223   9.328   6.690
14265SOL    HW244635   8.150   9.459   6.712
14266SOL     OW44636   8.904   7.119   9.397
14266SOL    HW144637   8.953   7.043   9.429
14266SOL    HW244638   8.885   7.098   9.306
14267SOL     OW44639   4.959  10.807  11.550
14267SOL    HW144640   5.003  10.852  11.623
14267SOL    HW244641   5.029  10.760  11.505
14268SOL     OW44642  12.513   0.874   1.522
14268SOL    HW144643  12.546   0.803   1.467
14268SOL    HW244644  12.523   0.953   1.468
14269SOL     OW44645   5.288   3.284  10.092
14269SOL    HW144646   5.327   3.286  10.004
14269SOL    HW244647   5.343   3.224  10.142
14270SOL     OW44648  10.172  13.451  11.997
14270SOL    HW144649  10.233  13.443  12.070
14270SOL    HW244650  10.226  13.435  11.919
14271SOL     OW44651   5.847   8.485  14.072
14271SOL    HW144652   5.807   8.571  14.058
14271SOL    HW244653   5.790   8.424  14.024
14272SOL     OW44654   9.763  13.513   2.467
14272SOL    HW144655   9.781  13.607   2.470
14272SOL    HW244656   9.737  13.497   2.376
14273SOL     OW44657   4.953  14.165  12.632
14273SOL    HW144658   4.945  14.085  12.579
14273SOL    HW244659   4.889  14.152  12.703
14274SOL     OW44660   8.418   9.645  14.108
14274SOL    HW144661   8.377   9.701  14.174
14274SOL    HW244662   8.507   9.633  14.139
14275SOL     OW44663  10.849  10.758   0.545
14275SOL    HW144664  10.772  10.812   0.564
14275SOL    HW244665  10.911  10.780   0.615
14276SOL     OW44666   3.429   9.359   1.785
14276SOL    HW144667   3.472   9.336   1.702
14276SOL    HW244668   3.405   9.450   1.775
14277SOL     OW44669   1.220   1.167   6.629
14277SOL    HW144670   1.126   1.152   6.619
14277SOL    HW244671   1.257   1.153   6.542
14278SOL     OW44672   5.867   7.229   5.076
14278SOL    HW144673   5.771   7.229   5.075
14278SOL    HW244674   5.891   7.136   5.081
14279SOL     OW44675   3.217  11.469  10.574
14279SOL    HW144676   3.163  11.414  10.632
14279SOL    HW244677   3.237  11.546  10.626
14280SOL     OW44678   1.568  11.741   6.686
14280SOL    HW144679   1.548  11.648   6.676
14280SOL    HW244680   1.650  11.753   6.640
14281SOL     OW44681   4.672   7.802  10.375
14281SOL    HW144682   4.676   7.758  10.290
14281SOL    HW244683   4.580   7.824  10.386
14282SOL     OW44684   7.274   1.328   0.270
14282SOL    HW144685   7.349   1.342   0.213
14282SOL    HW244686   7.259   1.414   0.311
14283SOL     OW44687   8.204   0.815   6.061
14283SOL    HW144688   8.115   0.809   6.024
14283SOL    HW244689   8.200   0.890   6.121
14284SOL     OW44690   3.971   0.519   1.098
14284SOL    HW144691   4.000   0.453   1.035
14284SOL    HW244692   3.960   0.472   1.180
14285SOL     OW44693   6.762   5.434   3.353
14285SOL    HW144694   6.773   5.453   3.445
14285SOL    HW244695   6.816   5.498   3.307
14286SOL     OW44696  11.103   2.183   9.365
14286SOL    HW144697  11.086   2.222   9.279
14286SOL    HW244698  11.069   2.247   9.428
14287SOL     OW44699  13.988   4.744   4.342
14287SOL    HW144700  13.938   4.740   4.261
14287SOL    HW244701  14.071   4.700   4.321
14288SOL     OW44702   2.229   3.372   7.517
14288SOL    HW144703   2.183   3.441   7.565
14288SOL    HW244704   2.216   3.394   7.425
14289SOL     OW44705   2.282   2.949  13.492
14289SOL    HW144706   2.340   2.981  13.562
14289SOL    HW244707   2.212   3.014  13.488
14290SOL     OW44708  12.118  10.229   5.678
14290SOL    HW144709  12.131  10.153   5.734
14290SOL    HW244710  12.034  10.213   5.635
14291SOL     OW44711   9.802   1.273   1.243
14291SOL    HW144712   9.833   1.351   1.196
14291SOL    HW244713   9.841   1.281   1.330
14292SOL     OW44714   2.616   8.681  13.183
14292SOL    HW144715   2.708   8.690  13.161
14292SOL    HW244716   2.596   8.761  13.233
14293SOL     OW44717   1.234  10.124   7.430
14293SOL    HW144718   1.140  10.130   7.447
14293SOL    HW244719   1.274  10.177   7.499
14294SOL     OW44720  12.517   0.676   7.857
14294SOL    HW144721  12.560   0.755   7.824
14294SOL    HW244722  12.534   0.677   7.951
14295SOL     OW44723   4.836   6.714   6.190
14295SOL    HW144724   4.796   6.785   6.139
14295SOL    HW244725   4.911   6.686   6.138
14296SOL     OW44726   3.046   6.590   7.861
14296SOL    HW144727   3.048   6.577   7.766
14296SOL    HW244728   2.984   6.661   7.875
14297SOL     OW44729  14.662  13.637   9.250
14297SOL    HW144730  14.713  13.619   9.171
14297SOL    HW244731  14.584  13.582   9.242
14298SOL     OW44732  11.232   8.144  12.384
14298SOL    HW144733  11.310   8.141  12.328
14298SOL    HW244734  11.176   8.074  12.350
14299SOL     OW44735   3.567  14.301  13.539
14299SOL    HW144736   3.549  14.388  13.504
14299SOL    HW244737   3.516  14.296  13.620
14300SOL     OW44738  13.709   9.328   1.086
14300SOL    HW144739  13.714   9.301   1.177
14300SOL    HW244740  13.759   9.409   1.081
14301SOL     OW44741   3.117   5.926   2.334
14301SOL    HW144742   3.129   5.891   2.422
14301SOL    HW244743   3.057   5.864   2.292
14302SOL     OW44744   8.906   0.349   8.438
14302SOL    HW144745   8.983   0.326   8.387
14302SOL    HW244746   8.918   0.303   8.521
14303SOL     OW44747   6.318   6.338   4.141
14303SOL    HW144748   6.390   6.342   4.078
14303SOL    HW244749   6.242   6.314   4.088
14304SOL     OW44750   4.070  13.906  11.608
14304SOL    HW144751   4.065  14.001  11.597
14304SOL    HW244752   4.093  13.894  11.700
14305SOL     OW44753  14.527  14.809  14.362
14305SOL    HW144754  14.456  14.810  14.297
14305SOL    HW244755  14.486  14.842  14.442
14306SOL     OW44756  13.236   0.900   0.207
14306SOL    HW144757  13.157   0.867   0.249
14306SOL    HW244758  13.252   0.985   0.248
14307SOL     OW44759   8.771   3.747   3.904
14307SOL    HW144760   8.821   3.811   3.956
14307SOL    HW244761   8.832   3.719   3.836
14308SOL     OW44762  10.842   8.115   4.261
14308SOL    HW144763  10.749   8.115   4.239
14308SOL    HW244764  10.867   8.207   4.259
14309SOL     OW44765   4.344   8.588   7.294
14309SOL    HW144766   4.270   8.530   7.274
14309SOL    HW244767   4.408   8.570   7.226
14310SOL     OW44768   9.796   9.529  12.240
14310SOL    HW144769   9.779   9.483  12.157
14310SOL    HW244770   9.844   9.465  12.293
14311SOL     OW44771   5.226  14.855   7.052
14311SOL    HW144772   5.236  14.828   6.960
14311SOL    HW244773   5.189  14.778   7.095
14312SOL     OW44774   1.560  11.365   2.953
14312SOL    HW144775   1.494  11.433   2.939
14312SOL    HW244776   1.511  11.292   2.991
14313SOL     OW44777   1.579   1.509   9.773
14313SOL    HW144778   1.514   1.482   9.838
14313SOL    HW244779   1.587   1.433   9.715
14314SOL     OW44780   1.209   0.601  14.516
14314SOL    HW144781   1.293   0.610  14.472
14314SOL    HW244782   1.231   0.578  14.606
14315SOL     OW44783   5.965   0.789   5.387
14315SOL    HW144784   6.009   0.850   5.328
14315SOL    HW244785   5.987   0.702   5.352
14316SOL     OW44786   9.178  12.318   5.716
14316SOL    HW144787   9.162  12.248   5.779
14316SOL    HW244788   9.200  12.394   5.770
14317SOL     OW44789   0.133   1.003  10.321
14317SOL    HW144790   0.077   0.950  10.378
14317SOL    HW244791   0.090   1.003  10.236
14318SOL     OW44792  10.618  13.978  14.643
14318SOL    HW144793  10.612  13.889  14.676
14318SOL    HW244794  10.589  13.972  14.552
14319SOL     OW44795  13.677  12.369   5.396
14319SOL    HW144796  13.594  12.326   5.415
14319SOL    HW244797  13.683  12.440   5.460
14320SOL     OW44798   8.231  10.584   9.554
14320SOL    HW144799   8.139  10.563   9.572
14320SOL    HW244800   8.228  10.659   9.495
14321SOL     OW44801  11.253   3.647   4.435
14321SOL    HW144802  11.203   3.685   4.362
14321SOL    HW244803  11.228   3.699   4.511
14322SOL     OW44804   4.355   0.285  11.363
14322SOL    HW144805   4.262   0.267  11.369
14322SOL    HW244806   4.362   0.380  11.376
14323SOL     OW44807   0.830  10.722   4.651
14323SOL    HW144808   0.891  10.737   4.578
14323SOL    HW244809   0.775  10.650   4.622
14324SOL     OW44810   8.950   4.470   4.602
14324SOL    HW144811   8.888   4.434   4.665
14324SOL    HW244812   8.895   4.505   4.532
14325SOL     OW44813  14.503   7.656  14.259
14325SOL    HW144814  14.468   7.593  14.197
14325SOL    HW244815  14.434   7.722  14.267
14326SOL     OW44816  14.709   1.495   6.057
14326SOL    HW144817  14.685   1.544   6.136
14326SOL    HW244818  14.732   1.562   5.993
14327SOL     OW44819   6.922   0.830   9.633
14327SOL    HW144820   6.865   0.885   9.578
14327SOL    HW244821   6.862   0.764   9.669
14328SOL     OW44822   7.992   2.069  13.435
14328SOL    HW144823   7.915   2.107  13.478
14328SOL    HW244824   8.064   2.127  13.460
14329SOL     OW44825   6.637  11.353   6.633
14329SOL    HW144826   6.623  11.345   6.728
14329SOL    HW244827   6.551  11.340   6.595
14330SOL     OW44828   2.350   6.316  14.563
14330SOL    HW144829   2.306   6.312  14.478
14330SOL    HW244830   2.279   6.329  14.626
14331SOL     OW44831  10.948   4.294   9.227
14331SOL    HW144832  10.968   4.354   9.299
14331SOL    HW244833  10.916   4.215   9.270
14332SOL     OW44834  13.607   3.138   1.988
14332SOL    HW144835  13.649   3.084   1.921
14332SOL    HW244836  13.663   3.130   2.065
14333SOL     OW44837  13.939  14.210   4.211
14333SOL    HW144838  13.883  14.180   4.282
14333SOL    HW244839  14.003  14.266   4.253
14334SOL     OW44840   2.564   9.937  14.741
14334SOL    HW144841   2.611  10.004  14.690
14334SOL    HW244842   2.496   9.906  14.681
14335SOL     OW44843   3.161   3.930   5.353
14335SOL    HW144844   3.096   3.865   5.325
14335SOL    HW244845   3.198   3.894   5.433
14336SOL     OW44846   0.920   9.379  13.370
14336SOL    HW144847   0.991   9.443  13.371
14336SOL    HW244848   0.859   9.410  13.437
14337SOL     OW44849   0.088   3.576  12.141
14337SOL    HW144850   0.001   3.549  12.171
14337SOL    HW244851   0.071   3.631  12.065
14338SOL     OW44852   6.278   6.127   6.735
14338SOL    HW144853   6.234   6.176   6.666
14338SOL    HW244854   6.301   6.193   6.801
14339SOL     OW44855  10.990   1.706   7.753
14339SOL    HW144856  10.959   1.728   7.665
14339SOL    HW244857  10.916   1.660   7.793
14340SOL     OW44858  12.319  12.759  13.066
14340SOL    HW144859  12.381  12.686  13.069
14340SOL    HW244860  12.334  12.800  12.981
14341SOL     OW44861   8.152   6.438   6.341
14341SOL    HW144862   8.128   6.360   6.392
14341SOL    HW244863   8.210   6.404   6.272
14342SOL     OW44864   9.254   2.583   4.710
14342SOL    HW144865   9.172   2.535   4.703
14342SOL    HW244866   9.280   2.600   4.620
14343SOL     OW44867   1.385  13.293   6.605
14343SOL    HW144868   1.387  13.307   6.700
14343SOL    HW244869   1.303  13.335   6.576
14344SOL     OW44870  12.665   5.956  12.137
14344SOL    HW144871  12.609   5.915  12.204
14344SOL    HW244872  12.751   5.917  12.151
14345SOL     OW44873   5.465   2.500   1.773
14345SOL    HW144874   5.493   2.508   1.681
14345SOL    HW244875   5.429   2.412   1.780
14346SOL     OW44876   2.765  12.530   6.584
14346SOL    HW144877   2.763  12.437   6.563
14346SOL    HW244878   2.837  12.564   6.531
14347SOL     OW44879   7.067  13.885   0.474
14347SOL    HW144880   7.038  13.954   0.534
14347SOL    HW244881   7.018  13.807   0.501
14348SOL     OW44882   9.120   6.531  10.956
14348SOL    HW144883   9.119   6.452  11.011
14348SOL    HW244884   9.162   6.504  10.875
14349SOL     OW44885  14.286  10.763   5.951
14349SOL    HW144886  14.282  10.859   5.960
14349SOL    HW244887  14.195  10.736   5.943
14350SOL     OW44888   7.686  10.503   6.180
14350SOL    HW144889   7.719  10.416   6.203
14350SOL    HW244890   7.641  10.491   6.096
14351SOL     OW44891   8.075   9.445  12.845
14351SOL    HW144892   8.061   9.371  12.903
14351SOL    HW244893   8.060   9.522  12.899
14352SOL     OW44894  10.213   7.009  11.223
14352SOL    HW144895  10.301   6.973  11.232
14352SOL    HW244896  10.165   6.943  11.173
14353SOL     OW44897   8.878   3.094  10.022
14353SOL    HW144898   8.788   3.064  10.005
14353SOL    HW244899   8.872   3.134  10.109
14354SOL     OW44900   5.317  12.747   6.583
14354SOL    HW144901   5.331  12.655   6.607
14354SOL    HW244902   5.404  12.787   6.591
14355SOL     OW44903   4.836   7.291   3.291
14355SOL    HW144904   4.837   7.211   3.343
14355SOL    HW244905   4.897   7.272   3.219
14356SOL     OW44906   3.352   5.593   5.349
14356SOL    HW144907   3.434   5.612   5.394
14356SOL    HW244908   3.287   5.648   5.394
14357SOL     OW44909   7.596  13.425  10.512
14357SOL    HW144910   7.540  13.500  10.494
14357SOL    HW244911   7.601  13.422  10.608
14358SOL     OW44912   9.478   7.875  13.632
14358SOL    HW144913   9.445   7.942  13.572
14358SOL    HW244914   9.433   7.891  13.715
14359SOL     OW44915   3.616   8.121   0.940
14359SOL    HW144916   3.691   8.064   0.959
14359SOL    HW244917   3.557   8.066   0.888
14360SOL     OW44918  13.156   1.834   2.042
14360SOL    HW144919  13.204   1.893   2.100
14360SOL    HW244920  13.063   1.852   2.061
14361SOL     OW44921  10.239   3.823  14.854
14361SOL    HW144922  10.231   3.906   0.022
14361SOL    HW244923  10.160   3.774  14.879
14362SOL     OW44924   1.904   2.926   6.296
14362SOL    HW144925   1.871   2.887   6.377
14362SOL    HW244926   1.826   2.958   6.251
14363SOL     OW44927  12.037   1.878   3.937
14363SOL    HW144928  12.008   1.939   3.869
14363SOL    HW244929  11.985   1.799   3.923
14364SOL     OW44930   3.368  10.232   5.813
14364SOL    HW144931   3.308  10.259   5.743
14364SOL    HW244932   3.317  10.242   5.893
14365SOL     OW44933   5.898  13.133   2.983
14365SOL    HW144934   5.954  13.119   2.907
14365SOL    HW244935   5.888  13.045   3.021
14366SOL     OW44936   6.434   8.625   1.128
14366SOL    HW144937   6.338   8.626   1.124
14366SOL    HW244938   6.456   8.541   1.168
14367SOL     OW44939   8.732   2.323  12.373
14367SOL    HW144940   8.744   2.408  12.414
14367SOL    HW244941   8.649   2.331  12.325
14368SOL     OW44942   9.563  11.073   1.721
14368SOL    HW144943   9.648  11.029   1.725
14368SOL    HW244944   9.505  11.017   1.775
14369SOL     OW44945  12.341   2.730   1.663
14369SOL    HW144946  12.367   2.699   1.576
14369SOL    HW244947  12.304   2.653   1.706
14370SOL     OW44948   4.230   8.080   7.945
14370SOL    HW144949   4.315   8.036   7.934
14370SOL    HW244950   4.199   8.095   7.856
14371SOL     OW44951  13.024  13.026  11.323
14371SOL    HW144952  13.075  12.966  11.269
14371SOL    HW244953  12.976  13.081  11.260
14372SOL     OW44954   7.200   1.760   5.887
14372SOL    HW144955   7.192   1.679   5.837
14372SOL    HW244956   7.272   1.807   5.845
14373SOL     OW44957   6.134  11.296  12.706
14373SOL    HW144958   6.167  11.369  12.759
14373SOL    HW244959   6.105  11.231  12.771
14374SOL     OW44960  11.564   1.302  10.778
14374SOL    HW144961  11.644   1.302  10.726
14374SOL    HW244962  11.550   1.210  10.801
14375SOL     OW44963   0.410   0.987   3.279
14375SOL    HW144964   0.503   1.001   3.292
14375SOL    HW244965   0.375   1.073   3.254
14376SOL     OW44966   2.966  11.208   6.169
14376SOL    HW144967   2.889  11.263   6.182
14376SOL    HW244968   2.932  11.118   6.173
14377SOL     OW44969  10.939  12.580   3.629
14377SOL    HW144970  10.945  12.491   3.595
14377SOL    HW244971  10.994  12.632   3.569
14378SOL     OW44972  11.101  14.400  13.933
14378SOL    HW144973  11.032  14.350  13.888
14378SOL    HW244974  11.055  14.473  13.974
14379SOL     OW44975  14.866   0.773  12.918
14379SOL    HW144976   0.001   0.723  12.998
14379SOL    HW244977  14.801   0.839  12.942
14380SOL     OW44978  10.415  12.909   2.292
14380SOL    HW144979  10.485  12.887   2.353
14380SOL    HW244980  10.348  12.842   2.307
14381SOL     OW44981  12.720   0.082   5.959
14381SOL    HW144982  12.664   0.137   6.014
14381SOL    HW244983  12.778   0.037   6.021
14382SOL     OW44984   1.974   0.453   3.855
14382SOL    HW144985   2.057   0.407   3.849
14382SOL    HW244986   1.918   0.411   3.790
14383SOL     OW44987   2.644  13.031  11.078
14383SOL    HW144988   2.650  13.105  11.138
14383SOL    HW244989   2.721  12.978  11.096
14384SOL     OW44990   6.997  11.560   5.215
14384SOL    HW144991   6.977  11.539   5.124
14384SOL    HW244992   7.050  11.487   5.246
14385SOL     OW44993   2.606   5.038  14.358
14385SOL    HW144994   2.700   5.055  14.370
14385SOL    HW244995   2.563   5.099  14.418
14386SOL     OW44996   9.092   4.506   3.714
14386SOL    HW144997   9.168   4.472   3.761
14386SOL    HW244998   9.129   4.549   3.637
14387SOL     OW44999  11.677  13.204   9.903
14387SOL    HW145000  11.656  13.295   9.921
14387SOL    HW245001  11.759  13.207   9.854
14388SOL     OW45002   2.114   1.134   6.103
14388SOL    HW145003   2.148   1.047   6.084
14388SOL    HW245004   2.193   1.188   6.114
14389SOL     OW45005   2.690  14.123   8.731
14389SOL    HW145006   2.598  14.135   8.753
14389SOL    HW245007   2.697  14.031   8.707
14390SOL     OW45008  10.182  13.969   8.613
14390SOL    HW145009  10.131  13.895   8.580
14390SOL    HW245010  10.166  13.970   8.707
14391SOL     OW45011   0.731   3.423  10.138
14391SOL    HW145012   0.733   3.466  10.052
14391SOL    HW245013   0.759   3.333  10.121
14392SOL     OW45014   9.628  10.876   3.662
14392SOL    HW145015   9.589  10.808   3.608
14392SOL    HW245016   9.554  10.919   3.705
14393SOL     OW45017   5.070  12.780  12.947
14393SOL    HW145018   5.141  12.808  13.004
14393SOL    HW245019   4.992  12.822  12.983
14394SOL     OW45020   4.943   3.316   6.565
14394SOL    HW145021   4.865   3.280   6.523
14394SOL    HW245022   5.003   3.241   6.572
14395SOL     OW45023   9.744  14.014  12.246
14395SOL    HW145024   9.830  14.055  12.235
14395SOL    HW245025   9.738  13.995  12.339
14396SOL     OW45026   2.907  12.919   6.208
14396SOL    HW145027   2.943  12.920   6.297
14396SOL    HW245028   2.832  12.979   6.212
14397SOL     OW45029   6.790   6.575   6.601
14397SOL    HW145030   6.810   6.595   6.510
14397SOL    HW245031   6.758   6.657   6.638
14398SOL     OW45032   2.314  12.926   2.421
14398SOL    HW145033   2.233  12.885   2.390
14398SOL    HW245034   2.333  12.993   2.356
14399SOL     OW45035  10.345   3.670  11.030
14399SOL    HW145036  10.265   3.722  11.032
14399SOL    HW245037  10.347   3.627  11.116
14400SOL     OW45038  11.205   1.658  14.231
14400SOL    HW145039  11.146   1.608  14.288
14400SOL    HW245040  11.202   1.747  14.266
14401SOL     OW45041  10.996  10.461   2.894
14401SOL    HW145042  11.080  10.425   2.920
14401SOL    HW245043  10.942  10.455   2.974
14402SOL     OW45044   5.750   8.836   0.160
14402SOL    HW145045   5.831   8.829   0.109
14402SOL    HW245046   5.733   8.930   0.162
14403SOL     OW45047   2.493   5.301   8.020
14403SOL    HW145048   2.539   5.343   7.947
14403SOL    HW245049   2.485   5.209   7.995
14404SOL     OW45050   2.890   2.957  10.381
14404SOL    HW145051   2.891   2.881  10.440
14404SOL    HW245052   2.798   2.982  10.377
14405SOL     OW45053   4.916   4.288   9.558
14405SOL    HW145054   4.967   4.357   9.600
14405SOL    HW245055   4.981   4.228   9.524
14406SOL     OW45056   5.452  12.418  10.066
14406SOL    HW145057   5.436  12.398  10.158
14406SOL    HW245058   5.531  12.368  10.044
14407SOL     OW45059   1.046  14.550   0.247
14407SOL    HW145060   0.975  14.546   0.183
14407SOL    HW245061   1.017  14.494   0.319
14408SOL     OW45062   8.821   2.825  12.293
14408SOL    HW145063   8.749   2.865  12.341
14408SOL    HW245064   8.864   2.898  12.249
14409SOL     OW45065   8.969  12.526  14.043
14409SOL    HW145066   8.889  12.560  14.083
14409SOL    HW245067   9.005  12.465  14.107
14410SOL     OW45068  13.717   3.495  14.527
14410SOL    HW145069  13.798   3.544  14.542
14410SOL    HW245070  13.670   3.546  14.461
14411SOL     OW45071  10.101   3.104  13.685
14411SOL    HW145072  10.106   3.183  13.739
14411SOL    HW245073  10.011   3.073  13.698
14412SOL     OW45074   6.248   9.103   2.318
14412SOL    HW145075   6.238   9.059   2.402
14412SOL    HW245076   6.234   9.196   2.338
14413SOL     OW45077   8.667  11.506   4.763
14413SOL    HW145078   8.649  11.565   4.690
14413SOL    HW245079   8.613  11.539   4.835
14414SOL     OW45080   8.300  13.994  11.174
14414SOL    HW145081   8.314  13.939  11.251
14414SOL    HW245082   8.337  14.079  11.199
14415SOL     OW45083   8.147  11.430   9.115
14415SOL    HW145084   8.175  11.347   9.076
14415SOL    HW245085   8.202  11.496   9.072
14416SOL     OW45086   1.727   1.821   0.017
14416SOL    HW145087   1.761   1.867  14.819
14416SOL    HW245088   1.656   1.766  14.861
14417SOL     OW45089  10.107  14.042   5.349
14417SOL    HW145090  10.167  14.114   5.329
14417SOL    HW245091  10.153  13.964   5.318
14418SOL     OW45092   1.617  13.934   7.850
14418SOL    HW145093   1.571  14.018   7.847
14418SOL    HW245094   1.560  13.875   7.800
14419SOL     OW45095   0.924   1.000  14.733
14419SOL    HW145096   0.963   0.913  14.735
14419SOL    HW245097   0.830   0.984  14.727
14420SOL     OW45098   4.433   5.044  12.004
14420SOL    HW145099   4.407   4.954  12.024
14420SOL    HW245100   4.413   5.093  12.084
14421SOL     OW45101  10.480   4.390   3.906
14421SOL    HW145102  10.420   4.350   3.969
14421SOL    HW245103  10.426   4.409   3.830
14422SOL     OW45104   0.916   7.379   9.083
14422SOL    HW145105   0.893   7.298   9.130
14422SOL    HW245106   1.007   7.395   9.107
14423SOL     OW45107   1.438  12.521   1.083
14423SOL    HW145108   1.359  12.501   1.133
14423SOL    HW245109   1.432  12.615   1.065
14424SOL     OW45110  10.984  11.123  12.789
14424SOL    HW145111  11.039  11.069  12.733
14424SOL    HW245112  10.913  11.152  12.732
14425SOL     OW45113  13.861  11.653   6.551
14425SOL    HW145114  13.790  11.708   6.518
14425SOL    HW245115  13.904  11.706   6.618
14426SOL     OW45116  10.698  14.035  13.369
14426SOL    HW145117  10.669  13.949  13.338
14426SOL    HW245118  10.667  14.096  13.302
14427SOL     OW45119   2.910  14.748   3.394
14427SOL    HW145120   2.848  14.709   3.455
14427SOL    HW245121   2.857  14.777   3.319
14428SOL     OW45122   9.766  11.936   3.766
14428SOL    HW145123   9.755  11.930   3.671
14428SOL    HW245124   9.711  11.865   3.800
14429SOL     OW45125  13.074  13.017   4.745
14429SOL    HW145126  13.166  13.009   4.770
14429SOL    HW245127  13.072  12.989   4.653
14430SOL     OW45128   1.430  10.763   6.089
14430SOL    HW145129   1.388  10.694   6.139
14430SOL    HW245130   1.418  10.737   5.997
14431SOL     OW45131   2.754   8.645   3.362
14431SOL    HW145132   2.728   8.733   3.336
14431SOL    HW245133   2.845   8.637   3.334
14432SOL     OW45134   0.666   1.167   1.173
14432SOL    HW145135   0.677   1.123   1.089
14432SOL    HW245136   0.753   1.200   1.196
14433SOL     OW45137   3.760  12.497   6.340
14433SOL    HW145138   3.714  12.538   6.414
14433SOL    HW245139   3.852  12.519   6.354
14434SOL     OW45140   2.890   4.935  10.466
14434SOL    HW145141   2.904   5.027  10.444
14434SOL    HW245142   2.847   4.899  10.389
14435SOL     OW45143   6.735   8.137   7.721
14435SOL    HW145144   6.784   8.219   7.727
14435SOL    HW245145   6.683   8.146   7.642
14436SOL     OW45146   4.333   4.366   0.227
14436SOL    HW145147   4.422   4.333   0.223
14436SOL    HW245148   4.320   4.411   0.143
14437SOL     OW45149   6.919   0.827  12.635
14437SOL    HW145150   6.977   0.858  12.704
14437SOL    HW245151   6.970   0.760  12.589
14438SOL     OW45152   8.898   0.569   3.344
14438SOL    HW145153   8.865   0.658   3.332
14438SOL    HW245154   8.969   0.561   3.279
14439SOL     OW45155   4.974   6.278   6.974
14439SOL    HW145156   4.930   6.270   7.058
14439SOL    HW245157   4.997   6.188   6.951
14440SOL     OW45158   3.554   4.008   2.125
14440SOL    HW145159   3.478   3.988   2.070
14440SOL    HW245160   3.623   4.033   2.063
14441SOL     OW45161  11.428   9.976  12.693
14441SOL    HW145162  11.468   9.890  12.679
14441SOL    HW245163  11.361   9.961  12.760
14442SOL     OW45164  14.106   2.347   1.867
14442SOL    HW145165  14.196   2.377   1.854
14442SOL    HW245166  14.085   2.373   1.957
14443SOL     OW45167   9.535   4.902   9.522
14443SOL    HW145168   9.542   4.813   9.490
14443SOL    HW245169   9.441   4.922   9.519
14444SOL     OW45170   9.673   1.343   5.436
14444SOL    HW145171   9.711   1.384   5.514
14444SOL    HW245172   9.681   1.249   5.452
14445SOL     OW45173   1.534  10.638   3.101
14445SOL    HW145174   1.575  10.724   3.112
14445SOL    HW245175   1.557  10.612   3.012
14446SOL     OW45176   2.882   6.712   8.872
14446SOL    HW145177   2.933   6.786   8.906
14446SOL    HW245178   2.935   6.677   8.801
14447SOL     OW45179  12.274   1.125   5.888
14447SOL    HW145180  12.343   1.185   5.915
14447SOL    HW245181  12.193   1.172   5.907
14448SOL     OW45182  10.114   6.450   7.128
14448SOL    HW145183  10.166   6.493   7.196
14448SOL    HW245184  10.172   6.383   7.092
14449SOL     OW45185   7.604  12.633   4.693
14449SOL    HW145186   7.549  12.558   4.668
14449SOL    HW245187   7.680  12.593   4.737
14450SOL     OW45188   9.782   1.618  10.590
14450SOL    HW145189   9.686   1.611  10.590
14450SOL    HW245190   9.811   1.554  10.654
14451SOL     OW45191   9.101  10.982   3.105
14451SOL    HW145192   9.020  10.932   3.117
14451SOL    HW245193   9.163  10.917   3.071
14452SOL     OW45194   8.995   7.811   7.660
14452SOL    HW145195   8.907   7.778   7.677
14452SOL    HW245196   9.001   7.816   7.564
14453SOL     OW45197  11.158  11.647   1.166
14453SOL    HW145198  11.253  11.645   1.181
14453SOL    HW245199  11.146  11.606   1.080
14454SOL     OW45200   3.998   5.494  10.411
14454SOL    HW145201   4.002   5.474  10.505
14454SOL    HW245202   4.068   5.558  10.397
14455SOL     OW45203   7.967   6.371   9.346
14455SOL    HW145204   8.056   6.392   9.318
14455SOL    HW245205   7.912   6.395   9.272
14456SOL     OW45206  11.432   4.282   8.683
14456SOL    HW145207  11.506   4.343   8.684
14456SOL    HW245208  11.356   4.338   8.700
14457SOL     OW45209   2.930   5.503   1.647
14457SOL    HW145210   3.018   5.473   1.622
14457SOL    HW245211   2.929   5.595   1.624
14458SOL     OW45212   9.060  10.122  12.298
14458SOL    HW145213   9.012  10.176  12.235
14458SOL    HW245214   9.114  10.065  12.243
14459SOL     OW45215   4.904  14.197   1.403
14459SOL    HW145216   4.829  14.138   1.395
14459SOL    HW245217   4.954  14.182   1.323
14460SOL     OW45218   5.065  11.644  13.932
14460SOL    HW145219   5.100  11.693  14.006
14460SOL    HW245220   4.996  11.700  13.896
14461SOL     OW45221   6.152   2.536   0.494
14461SOL    HW145222   6.164   2.582   0.410
14461SOL    HW245223   6.233   2.553   0.542
14462SOL     OW45224  10.388  14.836   4.696
14462SOL    HW145225  10.394  14.847   4.790
14462SOL    HW245226  10.308  14.786   4.682
14463SOL     OW45227   9.628   9.084   4.766
14463SOL    HW145228   9.609   8.990   4.771
14463SOL    HW245229   9.562   9.118   4.706
14464SOL     OW45230   8.654   7.808   7.654
14464SOL    HW145231   8.642   7.831   7.746
14464SOL    HW245232   8.645   7.891   7.607
14465SOL     OW45233   0.484   7.889   9.718
14465SOL    HW145234   0.399   7.889   9.763
14465SOL    HW245235   0.463   7.864   9.628
14466SOL     OW45236  14.801  14.135   4.774
14466SOL    HW145237   0.017  14.125   4.763
14466SOL    HW245238  14.782  14.222   4.741
14467SOL     OW45239   6.545  10.049  10.742
14467SOL    HW145240   6.546  10.039  10.838
14467SOL    HW245241   6.484  10.121  10.727
14468SOL     OW45242   1.550  14.682   1.759
14468SOL    HW145243   1.605  14.751   1.797
14468SOL    HW245244   1.576  14.679   1.667
14469SOL     OW45245   0.351   2.378   9.632
14469SOL    HW145246   0.305   2.301   9.665
14469SOL    HW245247   0.283   2.445   9.625
14470SOL     OW45248   9.450   7.880   0.634
14470SOL    HW145249   9.416   7.791   0.645
14470SOL    HW245250   9.414   7.929   0.707
14471SOL     OW45251   6.973   3.828   0.747
14471SOL    HW145252   6.980   3.924   0.743
14471SOL    HW245253   6.922   3.804   0.670
14472SOL     OW45254   2.773   6.033   0.630
14472SOL    HW145255   2.723   6.012   0.709
14472SOL    HW245256   2.711   6.021   0.559
14473SOL     OW45257  13.570   1.601   8.709
14473SOL    HW145258  13.517   1.676   8.736
14473SOL    HW245259  13.601   1.624   8.621
14474SOL     OW45260   1.250   4.101  10.445
14474SOL    HW145261   1.275   4.191  10.423
14474SOL    HW245262   1.295   4.083  10.528
14475SOL     OW45263  12.994  13.130   6.003
14475SOL    HW145264  12.964  13.083   5.925
14475SOL    HW245265  13.084  13.155   5.982
14476SOL     OW45266   7.195  11.873   2.228
14476SOL    HW145267   7.122  11.929   2.255
14476SOL    HW245268   7.232  11.916   2.152
14477SOL     OW45269  11.621   3.528   4.599
14477SOL    HW145270  11.555   3.582   4.642
14477SOL    HW245271  11.570   3.467   4.544
14478SOL     OW45272  11.231   5.349  14.243
14478SOL    HW145273  11.221   5.284  14.312
14478SOL    HW245274  11.149   5.397  14.242
14479SOL     OW45275  11.184   9.495   1.002
14479SOL    HW145276  11.178   9.558   0.930
14479SOL    HW245277  11.094   9.470   1.019
14480SOL     OW45278   4.195   6.530   6.863
14480SOL    HW145279   4.255   6.595   6.899
14480SOL    HW245280   4.219   6.525   6.770
14481SOL     OW45281   2.797   0.601   0.177
14481SOL    HW145282   2.734   0.631   0.244
14481SOL    HW245283   2.792   0.668   0.109
14482SOL     OW45284   1.761   8.782   3.066
14482SOL    HW145285   1.778   8.731   3.145
14482SOL    HW245286   1.676   8.751   3.034
14483SOL     OW45287   1.338   1.366   0.607
14483SOL    HW145288   1.253   1.334   0.576
14483SOL    HW245289   1.397   1.355   0.533
14484SOL     OW45290   4.324  11.984   3.208
14484SOL    HW145291   4.394  12.048   3.221
14484SOL    HW245292   4.332  11.959   3.116
14485SOL     OW45293  11.086   0.254   9.768
14485SOL    HW145294  11.121   0.290   9.686
14485SOL    HW245295  10.993   0.240   9.750
14486SOL     OW45296  11.637   1.100   7.888
14486SOL    HW145297  11.696   1.071   7.819
14486SOL    HW245298  11.581   1.024   7.906
14487SOL     OW45299   5.951   3.131   6.839
14487SOL    HW145300   5.955   3.074   6.762
14487SOL    HW245301   5.920   3.215   6.806
14488SOL     OW45302   7.257   1.126   5.245
14488SOL    HW145303   7.291   1.210   5.276
14488SOL    HW245304   7.180   1.110   5.298
14489SOL     OW45305   8.796   5.353   9.593
14489SOL    HW145306   8.778   5.315   9.506
14489SOL    HW245307   8.724   5.322   9.648
14490SOL     OW45308   5.562  10.730   5.338
14490SOL    HW145309   5.641  10.676   5.344
14490SOL    HW245310   5.519  10.701   5.257
14491SOL     OW45311   5.848  11.303   3.805
14491SOL    HW145312   5.792  11.308   3.883
14491SOL    HW245313   5.933  11.273   3.838
14492SOL     OW45314  10.870   2.692  13.613
14492SOL    HW145315  10.934   2.625  13.587
14492SOL    HW245316  10.878   2.760  13.546
14493SOL     OW45317   2.283   7.058   0.276
14493SOL    HW145318   2.309   7.149   0.285
14493SOL    HW245319   2.269   7.046   0.182
14494SOL     OW45320   0.297   1.733   2.458
14494SOL    HW145321   0.387   1.763   2.446
14494SOL    HW245322   0.259   1.735   2.370
14495SOL     OW45323  13.880   1.926   9.901
14495SOL    HW145324  13.841   1.994   9.956
14495SOL    HW245325  13.813   1.858   9.896
14496SOL     OW45326  11.917   7.941   6.936
14496SOL    HW145327  11.856   8.008   6.906
14496SOL    HW245328  11.942   7.969   7.024
14497SOL     OW45329   5.520   4.574  11.672
14497SOL    HW145330   5.557   4.624  11.599
14497SOL    HW245331   5.573   4.600  11.748
14498SOL     OW45332  13.973  13.903  10.147
14498SOL    HW145333  13.955  13.814  10.176
14498SOL    HW245334  13.947  13.904  10.054
14499SOL     OW45335  11.357   6.759   7.119
14499SOL    HW145336  11.323   6.847   7.104
14499SOL    HW245337  11.385   6.759   7.211
14500SOL     OW45338   0.718  11.039   3.452
14500SOL    HW145339   0.658  11.095   3.403
14500SOL    HW245340   0.662  10.975   3.495
14501SOL     OW45341   2.519   1.398   7.437
14501SOL    HW145342   2.430   1.422   7.413
14501SOL    HW245343   2.510   1.344   7.515
14502SOL     OW45344   5.433  14.024  13.540
14502SOL    HW145345   5.491  14.021  13.616
14502SOL    HW245346   5.490  14.006  13.466
14503SOL     OW45347  12.347   3.285   0.583
14503SOL    HW145348  12.416   3.337   0.625
14503SOL    HW245349  12.302   3.346   0.526
14504SOL     OW45350  12.548   0.594   6.296
14504SOL    HW145351  12.562   0.688   6.305
14504SOL    HW245352  12.504   0.585   6.212
14505SOL     OW45353   8.816   0.751  14.858
14505SOL    HW145354   8.832   0.687  14.789
14505SOL    HW245355   8.730   0.726   0.014
14506SOL     OW45356  14.859   7.116   6.204
14506SOL    HW145357  14.783   7.067   6.173
14506SOL    HW245358   0.044   7.050   6.227
14507SOL     OW45359  12.330   1.172  11.797
14507SOL    HW145360  12.352   1.150  11.887
14507SOL    HW245361  12.394   1.238  11.771
14508SOL     OW45362  13.818  11.864  14.554
14508SOL    HW145363  13.759  11.931  14.519
14508SOL    HW245364  13.904  11.905  14.553
14509SOL     OW45365   2.948   7.057   5.766
14509SOL    HW145366   2.919   7.111   5.839
14509SOL    HW245367   2.951   6.968   5.801
14510SOL     OW45368  14.404  14.799   3.875
14510SOL    HW145369  14.490  14.806   3.833
14510SOL    HW245370  14.358  14.878   3.846
14511SOL     OW45371   9.793   3.211  12.500
14511SOL    HW145372   9.774   3.156  12.576
14511SOL    HW245373   9.737   3.289  12.513
14512SOL     OW45374   4.283   4.499  11.687
14512SOL    HW145375   4.331   4.560  11.632
14512SOL    HW245376   4.243   4.438  11.626
14513SOL     OW45377   2.174   8.109   2.343
14513SOL    HW145378   2.147   8.156   2.422
14513SOL    HW245379   2.096   8.108   2.287
14514SOL     OW45380  12.159   8.755  13.157
14514SOL    HW145381  12.099   8.774  13.228
14514SOL    HW245382  12.158   8.834  13.102
14515SOL     OW45383   3.764   9.868  12.840
14515SOL    HW145384   3.817   9.873  12.761
14515SOL    HW245385   3.814   9.814  12.900
14516SOL     OW45386   1.558   3.356   2.552
14516SOL    HW145387   1.475   3.337   2.594
14516SOL    HW245388   1.567   3.451   2.557
14517SOL     OW45389   3.013  11.253  11.884
14517SOL    HW145390   3.077  11.283  11.820
14517SOL    HW245391   3.065  11.210  11.952
14518SOL     OW45392   5.314   7.494  12.952
14518SOL    HW145393   5.314   7.415  12.898
14518SOL    HW245394   5.320   7.566  12.889
14519SOL     OW45395   7.448   5.067   3.484
14519SOL    HW145396   7.365   5.024   3.505
14519SOL    HW245397   7.515   5.002   3.507
14520SOL     OW45398   0.151   9.459   8.965
14520SOL    HW145399   0.087   9.473   9.035
14520SOL    HW245400   0.162   9.545   8.925
14521SOL     OW45401   9.996   0.219  14.496
14521SOL    HW145402   9.956   0.135  14.517
14521SOL    HW245403  10.083   0.215  14.534
14522SOL     OW45404   2.092   3.653  11.446
14522SOL    HW145405   2.119   3.716  11.514
14522SOL    HW245406   2.028   3.701  11.393
14523SOL     OW45407   7.476  14.246   2.200
14523SOL    HW145408   7.393  14.260   2.246
14523SOL    HW245409   7.528  14.193   2.261
14524SOL     OW45410  12.019  13.231   3.237
14524SOL    HW145411  12.023  13.259   3.328
14524SOL    HW245412  11.929  13.249   3.210
14525SOL     OW45413   3.899   1.559  12.303
14525SOL    HW145414   3.894   1.627  12.235
14525SOL    HW245415   3.868   1.602  12.382
14526SOL     OW45416  12.110  14.842   2.454
14526SOL    HW145417  12.131   0.056   2.443
14526SOL    HW245418  12.181  14.796   2.410
14527SOL     OW45419   3.067   2.531  13.629
14527SOL    HW145420   3.122   2.546  13.551
14527SOL    HW245421   2.997   2.474  13.598
14528SOL     OW45422   6.298  12.459   4.222
14528SOL    HW145423   6.255  12.527   4.274
14528SOL    HW245424   6.241  12.383   4.230
14529SOL     OW45425  14.434  12.021   5.741
14529SOL    HW145426  14.484  11.993   5.664
14529SOL    HW245427  14.499  12.064   5.797
14530SOL     OW45428  11.377   2.692  10.081
14530SOL    HW145429  11.411   2.770  10.037
14530SOL    HW245430  11.330   2.726  10.157
14531SOL     OW45431   8.281   8.133   4.957
14531SOL    HW145432   8.299   8.055   4.903
14531SOL    HW245433   8.186   8.133   4.966
14532SOL     OW45434   1.818   5.312  14.336
14532SOL    HW145435   1.767   5.233  14.315
14532SOL    HW245436   1.753   5.374  14.369
14533SOL     OW45437  14.011   8.581  11.421
14533SOL    HW145438  14.090   8.534  11.447
14533SOL    HW245439  14.043   8.653  11.366
14534SOL     OW45440   1.940  13.066   3.720
14534SOL    HW145441   1.871  13.102   3.777
14534SOL    HW245442   1.988  13.005   3.776
14535SOL     OW45443   5.852   0.195  11.039
14535SOL    HW145444   5.756   0.195  11.041
14535SOL    HW245445   5.878   0.136  11.111
14536SOL     OW45446  12.611   8.509  11.889
14536SOL    HW145447  12.636   8.518  11.797
14536SOL    HW245448  12.528   8.461  11.887
14537SOL     OW45449   7.203   8.629  12.599
14537SOL    HW145450   7.122   8.578  12.596
14537SOL    HW245451   7.273   8.565  12.607
14538SOL     OW45452   7.415   9.974   5.555
14538SOL    HW145453   7.358   9.906   5.592
14538SOL    HW245454   7.407   9.963   5.460
14539SOL     OW45455   6.053  10.904   2.623
14539SOL    HW145456   6.110  10.960   2.569
14539SOL    HW245457   6.075  10.815   2.596
14540SOL     OW45458   4.499  13.072  14.350
14540SOL    HW145459   4.583  13.118  14.349
14540SOL    HW245460   4.482  13.050  14.259
14541SOL     OW45461   4.931   4.333  10.859
14541SOL    HW145462   4.978   4.350  10.940
14541SOL    HW245463   4.978   4.384  10.793
14542SOL     OW45464   2.086   8.313   5.947
14542SOL    HW145465   2.105   8.329   5.854
14542SOL    HW245466   2.157   8.358   5.993
14543SOL     OW45467   1.649  10.666   4.214
14543SOL    HW145468   1.584  10.596   4.222
14543SOL    HW245469   1.732  10.624   4.235
14544SOL     OW45470   0.232   3.467   8.426
14544SOL    HW145471   0.318   3.488   8.463
14544SOL    HW245472   0.246   3.470   8.331
14545SOL     OW45473  12.653  13.048  14.171
14545SOL    HW145474  12.682  13.088  14.089
14545SOL    HW245475  12.559  13.034  14.159
14546SOL     OW45476  11.106  12.819  11.164
14546SOL    HW145477  11.045  12.758  11.206
14546SOL    HW245478  11.119  12.888  11.229
14547SOL     OW45479  10.959  10.655  13.405
14547SOL    HW145480  10.988  10.595  13.336
14547SOL    HW245481  11.025  10.724  13.405
14548SOL     OW45482   9.219  12.203  14.036
14548SOL    HW145483   9.211  12.258  13.958
14548SOL    HW245484   9.167  12.247  14.103
14549SOL     OW45485  10.156  11.899   4.451
14549SOL    HW145486  10.116  11.906   4.537
14549SOL    HW245487  10.247  11.876   4.468
14550SOL     OW45488   4.328  14.597  14.202
14550SOL    HW145489   4.241  14.572  14.172
14550SOL    HW245490   4.355  14.667  14.143
14551SOL     OW45491   0.318   7.678  12.140
14551SOL    HW145492   0.341   7.665  12.047
14551SOL    HW245493   0.390   7.731  12.175
14552SOL     OW45494   8.612   6.517  13.540
14552SOL    HW145495   8.525   6.554  13.526
14552SOL    HW245496   8.625   6.520  13.635
14553SOL     OW45497  14.662   8.635  10.129
14553SOL    HW145498  14.628   8.687  10.202
14553SOL    HW245499  14.591   8.634  10.066
14554SOL     OW45500  14.539   5.854   0.487
14554SOL    HW145501  14.511   5.846   0.395
14554SOL    HW245502  14.606   5.923   0.485
14555SOL     OW45503  11.564   1.332   7.715
14555SOL    HW145504  11.591   1.260   7.772
14555SOL    HW245505  11.481   1.363   7.752
14556SOL     OW45506  11.815  14.021  13.562
14556SOL    HW145507  11.891  14.078  13.565
14556SOL    HW245508  11.833  13.961  13.489
14557SOL     OW45509   2.278   1.115   8.183
14557SOL    HW145510   2.281   1.119   8.278
14557SOL    HW245511   2.363   1.150   8.155
14558SOL     OW45512   2.637  14.714   0.934
14558SOL    HW145513   2.564  14.676   0.983
14558SOL    HW245514   2.708  14.720   0.998
14559SOL     OW45515  11.358  10.509   1.734
14559SOL    HW145516  11.385  10.470   1.651
14559SOL    HW245517  11.297  10.578   1.709
14560SOL     OW45518   7.654   9.037   4.273
14560SOL    HW145519   7.659   8.977   4.347
14560SOL    HW245520   7.686   9.120   4.308
14561SOL     OW45521   5.515  12.355   6.243
14561SOL    HW145522   5.555  12.409   6.175
14561SOL    HW245523   5.576  12.281   6.254
14562SOL     OW45524   5.754   6.630   0.401
14562SOL    HW145525   5.759   6.551   0.348
14562SOL    HW245526   5.825   6.686   0.368
14563SOL     OW45527   8.873   8.101   0.411
14563SOL    HW145528   8.829   8.061   0.485
14563SOL    HW245529   8.884   8.030   0.348
14564SOL     OW45530   8.210   7.527   3.832
14564SOL    HW145531   8.273   7.553   3.765
14564SOL    HW245532   8.126   7.560   3.801
14565SOL     OW45533   3.582  11.541   7.076
14565SOL    HW145534   3.665  11.550   7.029
14565SOL    HW245535   3.589  11.456   7.120
14566SOL     OW45536   2.261   0.321  14.342
14566SOL    HW145537   2.231   0.293  14.255
14566SOL    HW245538   2.335   0.379  14.324
14567SOL     OW45539   6.862   2.060   4.516
14567SOL    HW145540   6.857   2.133   4.578
14567SOL    HW245541   6.864   1.982   4.571
14568SOL     OW45542  13.622   1.573   1.452
14568SOL    HW145543  13.557   1.503   1.458
14568SOL    HW245544  13.685   1.541   1.387
14569SOL     OW45545   9.415   5.223  10.759
14569SOL    HW145546   9.453   5.310  10.748
14569SOL    HW245547   9.342   5.236  10.820
14570SOL     OW45548   2.631   7.817   5.414
14570SOL    HW145549   2.716   7.776   5.400
14570SOL    HW245550   2.583   7.804   5.332
14571SOL     OW45551   7.600  14.512   6.619
14571SOL    HW145552   7.521  14.565   6.603
14571SOL    HW245553   7.666  14.549   6.561
14572SOL     OW45554   5.401   3.017   1.189
14572SOL    HW145555   5.357   2.985   1.268
14572SOL    HW245556   5.367   3.105   1.176
14573SOL     OW45557  11.885   2.254   5.097
14573SOL    HW145558  11.864   2.164   5.073
14573SOL    HW245559  11.820   2.308   5.052
14574SOL     OW45560   6.273  10.624   5.068
14574SOL    HW145561   6.303  10.701   5.116
14574SOL    HW245562   6.311  10.634   4.981
14575SOL     OW45563   1.875   1.679  11.547
14575SOL    HW145564   1.886   1.768  11.581
14575SOL    HW245565   1.861   1.626  11.625
14576SOL     OW45566   9.682  10.042   9.530
14576SOL    HW145567   9.707  10.101   9.601
14576SOL    HW245568   9.708  10.087   9.450
14577SOL     OW45569   1.497   8.959  11.902
14577SOL    HW145570   1.589   8.957  11.926
14577SOL    HW245571   1.485   9.040  11.853
14578SOL     OW45572   8.335   6.922  13.033
14578SOL    HW145573   8.349   6.973  12.953
14578SOL    HW245574   8.391   6.845  13.023
14579SOL     OW45575   4.633   7.958   8.075
14579SOL    HW145576   4.645   7.897   8.148
14579SOL    HW245577   4.721   7.992   8.057
14580SOL     OW45578   9.367   8.318   3.562
14580SOL    HW145579   9.273   8.322   3.549
14580SOL    HW245580   9.382   8.239   3.613
14581SOL     OW45581   6.344   1.900   7.848
14581SOL    HW145582   6.335   1.827   7.909
14581SOL    HW245583   6.437   1.905   7.828
14582SOL     OW45584  10.399   3.356   0.648
14582SOL    HW145585  10.377   3.424   0.711
14582SOL    HW245586  10.396   3.275   0.699
14583SOL     OW45587  11.490   3.092  11.326
14583SOL    HW145588  11.510   3.050  11.242
14583SOL    HW245589  11.550   3.166  11.330
14584SOL     OW45590  12.505  12.843   4.246
14584SOL    HW145591  12.571  12.901   4.209
14584SOL    HW245592  12.556  12.780   4.298
14585SOL     OW45593   9.933  14.251   1.365
14585SOL    HW145594   9.871  14.230   1.295
14585SOL    HW245595  10.006  14.293   1.320
14586SOL     OW45596  10.847  14.860   9.812
14586SOL    HW145597  10.817   0.028   9.734
14586SOL    HW245598  10.775  14.801   9.834
14587SOL     OW45599   1.468  14.834   6.683
14587SOL    HW145600   1.503  14.821   6.772
14587SOL    HW245601   1.544  14.860   6.632
14588SOL     OW45602  14.200   8.154   2.103
14588SOL    HW145603  14.282   8.113   2.130
14588SOL    HW245604  14.181   8.115   2.018
14589SOL     OW45605   4.382  11.830   3.685
14589SOL    HW145606   4.435  11.907   3.707
14589SOL    HW245607   4.327  11.859   3.612
14590SOL     OW45608  11.361   5.855   5.804
14590SOL    HW145609  11.336   5.763   5.817
14590SOL    HW245610  11.415   5.876   5.880
14591SOL     OW45611   6.973  13.281  13.121
14591SOL    HW145612   7.066  13.295  13.138
14591SOL    HW245613   6.955  13.331  13.042
14592SOL     OW45614  12.700  11.691  10.776
14592SOL    HW145615  12.647  11.680  10.855
14592SOL    HW245616  12.774  11.744  10.804
14593SOL     OW45617  14.248   2.378   3.728
14593SOL    HW145618  14.315   2.387   3.795
14593SOL    HW245619  14.198   2.301   3.755
14594SOL     OW45620   5.287  10.671   0.265
14594SOL    HW145621   5.226  10.722   0.212
14594SOL    HW245622   5.369  10.671   0.215
14595SOL     OW45623  10.515   8.415   3.156
14595SOL    HW145624  10.487   8.441   3.069
14595SOL    HW245625  10.502   8.320   3.158
14596SOL     OW45626   1.546   5.931   5.978
14596SOL    HW145627   1.528   5.877   6.056
14596SOL    HW245628   1.460   5.944   5.939
14597SOL     OW45629   5.023   0.181   9.263
14597SOL    HW145630   5.117   0.173   9.249
14597SOL    HW245631   5.002   0.270   9.235
14598SOL     OW45632   5.449   2.980   8.316
14598SOL    HW145633   5.473   2.922   8.244
14598SOL    HW245634   5.529   3.029   8.335
14599SOL     OW45635  13.983  12.656   7.052
14599SOL    HW145636  13.955  12.685   6.965
14599SOL    HW245637  14.075  12.682   7.057
14600SOL     OW45638   5.936   7.697   1.538
14600SOL    HW145639   5.958   7.653   1.456
14600SOL    HW245640   5.952   7.790   1.520
14601SOL     OW45641  12.712   8.979   1.768
14601SOL    HW145642  12.798   8.963   1.729
14601SOL    HW245643  12.650   8.953   1.700
14602SOL     OW45644   4.767   6.595  10.596
14602SOL    HW145645   4.787   6.590  10.503
14602SOL    HW245646   4.773   6.505  10.627
14603SOL     OW45647  10.808   0.203   0.723
14603SOL    HW145648  10.822   0.204   0.818
14603SOL    HW245649  10.863   0.132   0.691
14604SOL     OW45650   0.540   4.877   1.814
14604SOL    HW145651   0.490   4.882   1.895
14604SOL    HW245652   0.630   4.858   1.841
14605SOL     OW45653  13.355  12.340  14.056
14605SOL    HW145654  13.391  12.285  13.986
14605SOL    HW245655  13.274  12.374  14.019
14606SOL     OW45656  11.595   5.594   0.438
14606SOL    HW145657  11.608   5.499   0.434
14606SOL    HW245658  11.587   5.613   0.531
14607SOL     OW45659  12.392   2.951  12.803
14607SOL    HW145660  12.352   2.908  12.879
14607SOL    HW245661  12.364   3.042  12.809
14608SOL     OW45662   8.701   2.807  12.003
14608SOL    HW145663   8.699   2.901  12.021
14608SOL    HW245664   8.647   2.769  12.073
14609SOL     OW45665  14.394   6.075  12.650
14609SOL    HW145666  14.319   6.036  12.605
14609SOL    HW245667  14.460   6.086  12.582
14610SOL     OW45668  11.193   3.293   2.160
14610SOL    HW145669  11.204   3.372   2.213
14610SOL    HW245670  11.107   3.303   2.119
14611SOL     OW45671  14.206   5.712  10.399
14611SOL    HW145672  14.137   5.770  10.366
14611SOL    HW245673  14.280   5.727  10.340
14612SOL     OW45674   2.173   6.734  12.743
14612SOL    HW145675   2.128   6.802  12.793
14612SOL    HW245676   2.109   6.663  12.738
14613SOL     OW45677  13.906  11.616   8.624
14613SOL    HW145678  13.890  11.566   8.543
14613SOL    HW245679  13.907  11.549   8.692
14614SOL     OW45680   1.552  10.412   8.833
14614SOL    HW145681   1.592  10.464   8.762
14614SOL    HW245682   1.534  10.327   8.793
14615SOL     OW45683   2.647   5.580   0.896
14615SOL    HW145684   2.677   5.508   0.839
14615SOL    HW245685   2.661   5.547   0.985
14616SOL     OW45686   1.392  12.532  12.732
14616SOL    HW145687   1.338  12.553  12.808
14616SOL    HW245688   1.481  12.531  12.767
14617SOL     OW45689   6.960   2.058  11.652
14617SOL    HW145690   7.003   1.989  11.702
14617SOL    HW245691   6.874   2.067  11.693
14618SOL     OW45692  12.742   6.608   3.500
14618SOL    HW145693  12.823   6.660   3.504
14618SOL    HW245694  12.692   6.635   3.576
14619SOL     OW45695   9.729   6.375  12.774
14619SOL    HW145696   9.780   6.419  12.842
14619SOL    HW245697   9.638   6.393  12.797
14620SOL     OW45698   9.717   8.806  11.568
14620SOL    HW145699   9.738   8.733  11.626
14620SOL    HW245700   9.712   8.882  11.626
14621SOL     OW45701   6.131   0.144  13.972
14621SOL    HW145702   6.188   0.068  13.979
14621SOL    HW245703   6.168   0.207  14.034
14622SOL     OW45704  13.105  14.368   2.918
14622SOL    HW145705  13.063  14.402   2.997
14622SOL    HW245706  13.050  14.399   2.846
14623SOL     OW45707   5.584   8.726   2.892
14623SOL    HW145708   5.530   8.800   2.864
14623SOL    HW245709   5.674   8.757   2.881
14624SOL     OW45710   4.761  11.156  13.200
14624SOL    HW145711   4.839  11.212  13.194
14624SOL    HW245712   4.689  11.210  13.169
14625SOL     OW45713   9.381   5.825   6.550
14625SOL    HW145714   9.382   5.896   6.487
14625SOL    HW245715   9.303   5.841   6.603
14626SOL     OW45716   2.203   7.135   8.526
14626SOL    HW145717   2.230   7.047   8.502
14626SOL    HW245718   2.218   7.187   8.446
14627SOL     OW45719  14.258   2.930   2.557
14627SOL    HW145720  14.311   2.981   2.619
14627SOL    HW245721  14.231   2.994   2.491
14628SOL     OW45722   1.260   9.090   3.652
14628SOL    HW145723   1.264   9.084   3.747
14628SOL    HW245724   1.339   9.140   3.628
14629SOL     OW45725  14.208   5.315  10.771
14629SOL    HW145726  14.159   5.278  10.699
14629SOL    HW245727  14.292   5.339  10.733
14630SOL     OW45728   1.307   0.594   6.964
14630SOL    HW145729   1.366   0.645   7.019
14630SOL    HW245730   1.360   0.520   6.934
14631SOL     OW45731  10.750   6.764  11.511
14631SOL    HW145732  10.657   6.741  11.507
14631SOL    HW245733  10.761   6.800  11.599
14632SOL     OW45734   6.724   1.879   2.682
14632SOL    HW145735   6.712   1.809   2.618
14632SOL    HW245736   6.818   1.877   2.701
14633SOL     OW45737   1.320   2.640   5.104
14633SOL    HW145738   1.249   2.579   5.082
14633SOL    HW245739   1.397   2.584   5.118
14634SOL     OW45740  13.060   7.192   5.254
14634SOL    HW145741  13.038   7.169   5.164
14634SOL    HW245742  13.026   7.120   5.306
14635SOL     OW45743   4.420   5.949   8.440
14635SOL    HW145744   4.381   6.021   8.391
14635SOL    HW245745   4.377   5.871   8.405
14636SOL     OW45746   4.048   2.200   2.920
14636SOL    HW145747   3.989   2.133   2.885
14636SOL    HW245748   4.126   2.194   2.866
14637SOL     OW45749   6.277   9.553  14.531
14637SOL    HW145750   6.257   9.459  14.527
14637SOL    HW245751   6.373   9.557  14.530
14638SOL     OW45752  10.394   8.769  13.085
14638SOL    HW145753  10.389   8.699  13.020
14638SOL    HW245754  10.488   8.775  13.106
14639SOL     OW45755  12.271   7.064  12.544
14639SOL    HW145756  12.271   6.975  12.509
14639SOL    HW245757  12.317   7.116  12.479
14640SOL     OW45758   9.572   4.815   0.877
14640SOL    HW145759   9.494   4.792   0.928
14640SOL    HW245760   9.542   4.811   0.786
14641SOL     OW45761   8.762   9.478   6.505
14641SOL    HW145762   8.837   9.474   6.445
14641SOL    HW245763   8.794   9.526   6.581
14642SOL     OW45764   3.976  11.823  11.964
14642SOL    HW145765   3.886  11.790  11.972
14642SOL    HW245766   4.010  11.821  12.053
14643SOL     OW45767   3.303   3.310  10.342
14643SOL    HW145768   3.285   3.304  10.248
14643SOL    HW245769   3.277   3.224  10.376
14644SOL     OW45770   8.354   3.149  13.896
14644SOL    HW145771   8.348   3.177  13.805
14644SOL    HW245772   8.447   3.154  13.916
14645SOL     OW45773   5.010  13.980  14.563
14645SOL    HW145774   4.973  13.939  14.642
14645SOL    HW245775   5.100  13.999  14.586
14646SOL     OW45776  10.257   0.136   6.393
14646SOL    HW145777  10.309   0.056   6.399
14646SOL    HW245778  10.239   0.160   6.484
14647SOL     OW45779   8.351  14.226   1.663
14647SOL    HW145780   8.343  14.228   1.568
14647SOL    HW245781   8.288  14.291   1.694
14648SOL     OW45782  12.463   4.127   7.429
14648SOL    HW145783  12.437   4.214   7.399
14648SOL    HW245784  12.489   4.140   7.520
14649SOL     OW45785  10.806   3.762   9.302
14649SOL    HW145786  10.854   3.811   9.236
14649SOL    HW245787  10.719   3.803   9.305
14650SOL     OW45788   9.400   5.375   4.034
14650SOL    HW145789   9.460   5.319   3.984
14650SOL    HW245790   9.446   5.391   4.117
14651SOL     OW45791   6.251  12.443   5.920
14651SOL    HW145792   6.183  12.493   5.874
14651SOL    HW245793   6.217  12.354   5.923
14652SOL     OW45794   2.131   1.011  10.822
14652SOL    HW145795   2.126   0.916  10.833
14652SOL    HW245796   2.135   1.045  10.911
14653SOL     OW45797   1.080   2.725   7.898
14653SOL    HW145798   1.137   2.779   7.954
14653SOL    HW245799   1.005   2.781   7.880
14654SOL     OW45800   1.044   9.031   8.662
14654SOL    HW145801   1.022   9.049   8.754
14654SOL    HW245802   1.134   8.997   8.665
14655SOL     OW45803  14.725   6.103   7.822
14655SOL    HW145804  14.710   6.144   7.737
14655SOL    HW245805  14.649   6.129   7.874
14656SOL     OW45806   8.811   1.391   8.085
14656SOL    HW145807   8.883   1.338   8.118
14656SOL    HW245808   8.829   1.479   8.118
14657SOL     OW45809   2.049   8.360   6.321
14657SOL    HW145810   2.116   8.370   6.388
14657SOL    HW245811   1.989   8.294   6.356
14658SOL     OW45812   4.400  14.127   3.011
14658SOL    HW145813   4.413  14.133   2.916
14658SOL    HW245814   4.331  14.062   3.022
14659SOL     OW45815   0.045  13.066  11.052
14659SOL    HW145816   0.033  13.020  10.969
14659SOL    HW245817  14.866  13.141  11.047
14660SOL     OW45818   7.483  13.574  11.941
14660SOL    HW145819   7.520  13.528  11.865
14660SOL    HW245820   7.389  13.566  11.930
14661SOL     OW45821  13.401   5.835   0.453
14661SOL    HW145822  13.466   5.874   0.394
14661SOL    HW245823  13.426   5.743   0.459
14662SOL     OW45824   6.948  11.441  10.833
14662SOL    HW145825   6.912  11.352  10.832
14662SOL    HW245826   6.975  11.457  10.743
14663SOL     OW45827  14.151   3.919   9.668
14663SOL    HW145828  14.079   3.902   9.729
14663SOL    HW245829  14.115   3.981   9.605
14664SOL     OW45830   6.728   3.408   2.136
14664SOL    HW145831   6.688   3.355   2.066
14664SOL    HW245832   6.668   3.399   2.210
14665SOL     OW45833   7.246   3.110   2.690
14665SOL    HW145834   7.241   3.020   2.723
14665SOL    HW245835   7.211   3.105   2.601
14666SOL     OW45836   9.420  14.455   8.095
14666SOL    HW145837   9.433  14.402   8.017
14666SOL    HW245838   9.445  14.398   8.168
14667SOL     OW45839   2.924  12.135  12.242
14667SOL    HW145840   2.867  12.185  12.183
14667SOL    HW245841   3.012  12.153  12.211
14668SOL     OW45842  10.945   1.211  13.353
14668SOL    HW145843  10.861   1.247  13.383
14668SOL    HW245844  10.953   1.127  13.399
14669SOL     OW45845   0.761   6.542   0.219
14669SOL    HW145846   0.825   6.473   0.235
14669SOL    HW245847   0.766   6.559   0.125
14670SOL     OW45848  11.404   3.056  11.989
14670SOL    HW145849  11.495   3.083  12.000
14670SOL    HW245850  11.370   3.047  12.078
14671SOL     OW45851   7.950   2.128   8.869
14671SOL    HW145852   7.871   2.074   8.867
14671SOL    HW245853   7.975   2.137   8.777
14672SOL     OW45854   4.650   1.299  12.398
14672SOL    HW145855   4.576   1.336  12.349
14672SOL    HW245856   4.726   1.317  12.342
14673SOL     OW45857   3.281   2.439   1.377
14673SOL    HW145858   3.376   2.449   1.382
14673SOL    HW245859   3.268   2.345   1.361
14674SOL     OW45860   0.783  10.880   0.820
14674SOL    HW145861   0.872  10.864   0.850
14674SOL    HW245862   0.792  10.939   0.746
14675SOL     OW45863  10.519   5.224   4.193
14675SOL    HW145864  10.442   5.222   4.137
14675SOL    HW245865  10.570   5.298   4.160
14676SOL     OW45866   5.282  12.216  14.724
14676SOL    HW145867   5.259  12.303  14.692
14676SOL    HW245868   5.200  12.178  14.754
14677SOL     OW45869   5.044   3.530  10.875
14677SOL    HW145870   4.968   3.582  10.849
14677SOL    HW245871   5.022   3.499  10.963
14678SOL     OW45872  12.240   3.702   6.681
14678SOL    HW145873  12.223   3.794   6.659
14678SOL    HW245874  12.170   3.678   6.741
14679SOL     OW45875   8.821   6.114   3.349
14679SOL    HW145876   8.908   6.154   3.341
14679SOL    HW245877   8.830   6.029   3.305
14680SOL     OW45878   8.306  12.480   1.750
14680SOL    HW145879   8.255  12.432   1.684
14680SOL    HW245880   8.264  12.459   1.833
14681SOL     OW45881   1.661   1.472   6.836
14681SOL    HW145882   1.579   1.470   6.787
14681SOL    HW245883   1.730   1.461   6.770
14682SOL     OW45884   0.199   6.801  13.587
14682SOL    HW145885   0.202   6.860  13.663
14682SOL    HW245886   0.290   6.778  13.571
14683SOL     OW45887  13.259   3.089   6.716
14683SOL    HW145888  13.339   3.141   6.723
14683SOL    HW245889  13.189   3.150   6.738
14684SOL     OW45890  14.718  10.579   0.319
14684SOL    HW145891  14.812  10.595   0.309
14684SOL    HW245892  14.708  10.542   0.407
14685SOL     OW45893   4.301   8.593  10.148
14685SOL    HW145894   4.322   8.685  10.164
14685SOL    HW245895   4.303   8.585  10.052
14686SOL     OW45896   8.456  14.771  13.123
14686SOL    HW145897   8.405  14.844  13.160
14686SOL    HW245898   8.516  14.746  13.194
14687SOL     OW45899  10.733   6.629  14.632
14687SOL    HW145900  10.816   6.676  14.629
14687SOL    HW245901  10.693   6.644  14.547
14688SOL     OW45902   1.489  13.211   7.506
14688SOL    HW145903   1.513  13.155   7.580
14688SOL    HW245904   1.422  13.269   7.541
14689SOL     OW45905   4.399   1.356   4.642
14689SOL    HW145906   4.372   1.448   4.644
14689SOL    HW245907   4.336   1.314   4.584
14690SOL     OW45908  11.666   1.400  10.238
14690SOL    HW145909  11.611   1.458  10.186
14690SOL    HW245910  11.605   1.338  10.278
14691SOL     OW45911   7.110   7.869   0.021
14691SOL    HW145912   7.031   7.902  14.857
14691SOL    HW245913   7.117   7.919   0.102
14692SOL     OW45914   7.856  11.167  13.571
14692SOL    HW145915   7.810  11.240  13.530
14692SOL    HW245916   7.807  11.150  13.652
14693SOL     OW45917   5.687   0.522  12.122
14693SOL    HW145918   5.768   0.493  12.163
14693SOL    HW245919   5.663   0.602  12.171
14694SOL     OW45920   8.354  11.914  13.538
14694SOL    HW145921   8.359  11.980  13.470
14694SOL    HW245922   8.297  11.846  13.501
14695SOL     OW45923  11.784   8.959  14.186
14695SOL    HW145924  11.707   9.004  14.221
14695SOL    HW245925  11.780   8.975  14.092
14696SOL     OW45926   6.601  12.357   2.393
14696SOL    HW145927   6.627  12.410   2.318
14696SOL    HW245928   6.537  12.411   2.440
14697SOL     OW45929  11.297   7.735   5.589
14697SOL    HW145930  11.218   7.683   5.605
14697SOL    HW245931  11.270   7.826   5.603
14698SOL     OW45932   2.733   6.502  13.430
14698SOL    HW145933   2.749   6.510  13.524
14698SOL    HW245934   2.644   6.468  13.423
14699SOL     OW45935   1.609   3.829   6.890
14699SOL    HW145936   1.571   3.820   6.803
14699SOL    HW245937   1.680   3.765   6.892
14700SOL     OW45938  12.399   4.020   1.151
14700SOL    HW145939  12.368   4.025   1.060
14700SOL    HW245940  12.393   4.109   1.184
14701SOL     OW45941  12.380   6.433  10.145
14701SOL    HW145942  12.447   6.456  10.080
14701SOL    HW245943  12.429   6.413  10.224
14702SOL     OW45944  13.063   2.293   7.302
14702SOL    HW145945  13.062   2.388   7.290
14702SOL    HW245946  13.038   2.280   7.394
14703SOL     OW45947   3.335   4.191   2.604
14703SOL    HW145948   3.242   4.212   2.597
14703SOL    HW245949   3.370   4.210   2.516
14704SOL     OW45950   3.140  14.249   8.229
14704SOL    HW145951   3.156  14.344   8.235
14704SOL    HW245952   3.054  14.242   8.188
14705SOL     OW45953   0.264   4.977  12.015
14705SOL    HW145954   0.340   5.025  12.049
14705SOL    HW245955   0.204   4.972  12.090
14706SOL     OW45956   3.013   8.964   3.242
14706SOL    HW145957   3.007   8.956   3.337
14706SOL    HW245958   2.965   9.045   3.222
14707SOL     OW45959   5.135   4.762   3.163
14707SOL    HW145960   5.192   4.754   3.086
14707SOL    HW245961   5.047   4.748   3.129
14708SOL     OW45962   6.298  14.065   5.784
14708SOL    HW145963   6.246  14.000   5.736
14708SOL    HW245964   6.329  14.019   5.862
14709SOL     OW45965   5.235   0.801   8.284
14709SOL    HW145966   5.156   0.747   8.285
14709SOL    HW245967   5.274   0.784   8.198
14710SOL     OW45968   9.483  11.977   8.225
14710SOL    HW145969   9.514  11.976   8.135
14710SOL    HW245970   9.413  12.042   8.226
14711SOL     OW45971   9.997   2.076   5.904
14711SOL    HW145972  10.026   2.164   5.882
14711SOL    HW245973  10.078   2.026   5.915
14712SOL     OW45974   1.122   6.652   0.267
14712SOL    HW145975   1.217   6.650   0.278
14712SOL    HW245976   1.101   6.745   0.253
14713SOL     OW45977   3.268   8.799   4.677
14713SOL    HW145978   3.210   8.833   4.609
14713SOL    HW245979   3.292   8.711   4.646
14714SOL     OW45980   5.726   2.931   8.106
14714SOL    HW145981   5.667   2.863   8.138
14714SOL    HW245982   5.780   2.954   8.182
14715SOL     OW45983   4.116  11.506   8.739
14715SOL    HW145984   4.142  11.452   8.664
14715SOL    HW245985   4.172  11.583   8.734
14716SOL     OW45986   5.541  14.525  12.029
14716SOL    HW145987   5.531  14.618  12.050
14716SOL    HW245988   5.562  14.483  12.113
14717SOL     OW45989   0.543  13.033   4.374
14717SOL    HW145990   0.581  13.121   4.365
14717SOL    HW245991   0.448  13.047   4.369
14718SOL     OW45992  11.313   0.013  11.416
14718SOL    HW145993  11.290   0.106  11.421
14718SOL    HW245994  11.393   0.006  11.469
14719SOL     OW45995   4.478   1.736   3.261
14719SOL    HW145996   4.536   1.757   3.188
14719SOL    HW245997   4.459   1.820   3.302
14720SOL     OW45998   1.542  12.929  11.887
14720SOL    HW145999   1.539  12.847  11.837
14720SOL    HW246000   1.578  12.904  11.972
14721SOL     OW46001   8.364  12.661   7.766
14721SOL    HW146002   8.435  12.725   7.762
14721SOL    HW246003   8.308  12.691   7.837
14722SOL     OW46004   0.801  12.366  13.483
14722SOL    HW146005   0.842  12.280  13.484
14722SOL    HW246006   0.810  12.398  13.573
14723SOL     OW46007   3.966   8.926   1.587
14723SOL    HW146008   3.897   8.984   1.620
14723SOL    HW246009   4.045   8.953   1.634
14724SOL     OW46010   1.814   9.386   4.207
14724SOL    HW146011   1.845   9.468   4.168
14724SOL    HW246012   1.726   9.373   4.171
14725SOL     OW46013  10.886  13.667   9.211
14725SOL    HW146014  10.794  13.644   9.201
14725SOL    HW246015  10.933  13.585   9.193
14726SOL     OW46016   6.278   2.674  13.332
14726SOL    HW146017   6.370   2.674  13.305
14726SOL    HW246018   6.230   2.699  13.254
14727SOL     OW46019  11.975   0.348  14.644
14727SOL    HW146020  11.953   0.285  14.714
14727SOL    HW246021  12.071   0.350  14.643
14728SOL     OW46022  14.383  14.726  13.189
14728SOL    HW146023  14.365  14.765  13.275
14728SOL    HW246024  14.343  14.787  13.127
14729SOL     OW46025   6.979   0.249   1.083
14729SOL    HW146026   6.936   0.261   1.168
14729SOL    HW246027   7.055   0.307   1.086
14730SOL     OW46028   1.471   2.929   5.063
14730SOL    HW146029   1.522   2.962   4.990
14730SOL    HW246030   1.380   2.937   5.034
14731SOL     OW46031   3.026   0.785   5.550
14731SOL    HW146032   2.969   0.849   5.592
14731SOL    HW246033   3.064   0.831   5.476
14732SOL     OW46034   9.958  11.548  13.926
14732SOL    HW146035  10.044  11.522  13.960
14732SOL    HW246036   9.962  11.525  13.833
14733SOL     OW46037   2.026  11.339   5.995
14733SOL    HW146038   1.943  11.385   5.993
14733SOL    HW246039   2.048  11.325   5.903
14734SOL     OW46040   8.766  13.750   0.665
14734SOL    HW146041   8.766  13.797   0.749
14734SOL    HW246042   8.673  13.739   0.644
14735SOL     OW46043   5.614   3.513   0.543
14735SOL    HW146044   5.539   3.454   0.549
14735SOL    HW246045   5.680   3.476   0.602
14736SOL     OW46046   5.175  11.197   5.211
14736SOL    HW146047   5.124  11.117   5.199
14736SOL    HW246048   5.174  11.211   5.306
14737SOL     OW46049  14.570  10.156  13.812
14737SOL    HW146050  14.647  10.125  13.859
14737SOL    HW246051  14.601  10.166  13.721
14738SOL     OW46052  14.870   3.175   3.575
14738SOL    HW146053   0.010   3.186   3.481
14738SOL    HW246054   0.015   3.085   3.594
14739SOL     OW46055  11.987   1.345   8.431
14739SOL    HW146056  11.994   1.262   8.478
14739SOL    HW246057  11.939   1.324   8.351
14740SOL     OW46058   1.634   5.745   7.455
14740SOL    HW146059   1.547   5.730   7.491
14740SOL    HW246060   1.622   5.814   7.390
14741SOL     OW46061   8.786   3.896   9.098
14741SOL    HW146062   8.788   3.804   9.071
14741SOL    HW246063   8.745   3.894   9.185
14742SOL     OW46064   3.118   0.380  12.804
14742SOL    HW146065   3.071   0.426  12.734
14742SOL    HW246066   3.153   0.451  12.859
14743SOL     OW46067   5.475  13.498   7.248
14743SOL    HW146068   5.562  13.492   7.208
14743SOL    HW246069   5.421  13.542   7.182
14744SOL     OW46070  13.793   1.523  14.611
14744SOL    HW146071  13.811   1.501  14.702
14744SOL    HW246072  13.868   1.577  14.584
14745SOL     OW46073   8.793   9.976  11.294
14745SOL    HW146074   8.855   9.904  11.280
14745SOL    HW246075   8.717   9.952  11.241
14746SOL     OW46076   8.567   8.926   1.362
14746SOL    HW146077   8.618   8.928   1.443
14746SOL    HW246078   8.499   8.861   1.377
14747SOL     OW46079   2.122   9.168   4.055
14747SOL    HW146080   2.187   9.097   4.048
14747SOL    HW246081   2.174   9.248   4.058
14748SOL     OW46082   5.734   8.124   6.393
14748SOL    HW146083   5.692   8.203   6.429
14748SOL    HW246084   5.730   8.060   6.463
14749SOL     OW46085  13.501  14.479  14.421
14749SOL    HW146086  13.552  14.560  14.433
14749SOL    HW246087  13.488  14.446  14.510
14750SOL     OW46088  11.725   7.764   6.919
14750SOL    HW146089  11.685   7.748   7.004
14750SOL    HW246090  11.810   7.802   6.939
14751SOL     OW46091   7.549  13.127  11.754
14751SOL    HW146092   7.486  13.125  11.826
14751SOL    HW246093   7.520  13.058  11.695
14752SOL     OW46094   5.720   3.017   2.582
14752SOL    HW146095   5.638   3.048   2.620
14752SOL    HW246096   5.707   3.026   2.487
14753SOL     OW46097   8.531   0.812   8.970
14753SOL    HW146098   8.472   0.830   8.897
14753SOL    HW246099   8.494   0.860   9.043
14754SOL     OW46100  13.810   5.601  14.645
14754SOL    HW146101  13.810   5.519  14.596
14754SOL    HW246102  13.728   5.643  14.622
14755SOL     OW46103   5.772  13.811  13.456
14755SOL    HW146104   5.701  13.749  13.442
14755SOL    HW246105   5.764  13.838  13.547
14756SOL     OW46106   5.477   3.271   6.430
14756SOL    HW146107   5.417   3.309   6.367
14756SOL    HW246108   5.466   3.324   6.510
14757SOL     OW46109  11.847   9.866  11.571
14757SOL    HW146110  11.779   9.860  11.638
14757SOL    HW246111  11.835   9.788  11.517
14758SOL     OW46112   0.793  13.883   3.958
14758SOL    HW146113   0.848  13.805   3.966
14758SOL    HW246114   0.711  13.860   4.000
14759SOL     OW46115  12.008   5.755  13.751
14759SOL    HW146116  12.045   5.804  13.678
14759SOL    HW246117  11.933   5.708  13.713
14760SOL     OW46118   4.651  13.400   5.191
14760SOL    HW146119   4.706  13.477   5.182
14760SOL    HW246120   4.631  13.373   5.101
14761SOL     OW46121   4.409   4.187   2.444
14761SOL    HW146122   4.475   4.216   2.381
14761SOL    HW246123   4.346   4.259   2.448
14762SOL     OW46124  10.495   9.958  12.479
14762SOL    HW146125  10.565  10.001  12.528
14762SOL    HW246126  10.537   9.931  12.397
14763SOL     OW46127  10.572  10.109   6.743
14763SOL    HW146128  10.573  10.132   6.650
14763SOL    HW246129  10.639  10.041   6.752
14764SOL     OW46130   9.105   1.739   2.305
14764SOL    HW146131   9.188   1.705   2.271
14764SOL    HW246132   9.126   1.828   2.334
14765SOL     OW46133   1.758   4.361  13.127
14765SOL    HW146134   1.791   4.279  13.163
14765SOL    HW246135   1.824   4.386  13.062
14766SOL     OW46136   8.485  13.404   4.218
14766SOL    HW146137   8.458  13.448   4.137
14766SOL    HW246138   8.424  13.332   4.228
14767SOL     OW46139  13.008  12.705  14.860
14767SOL    HW146140  12.938  12.647   0.008
14767SOL    HW246141  12.966  12.790  14.847
14768SOL     OW46142   0.157   2.869  11.105
14768SOL    HW146143   0.160   2.803  11.036
14768SOL    HW246144   0.099   2.937  11.070
14769SOL     OW46145   6.866   1.436  10.554
14769SOL    HW146146   6.843   1.364  10.613
14769SOL    HW246147   6.905   1.502  10.611
14770SOL     OW46148   4.481   4.617   7.370
14770SOL    HW146149   4.494   4.712   7.365
14770SOL    HW246150   4.433   4.596   7.289
14771SOL     OW46151  11.580   7.697  13.650
14771SOL    HW146152  11.656   7.692  13.591
14771SOL    HW246153  11.508   7.661  13.599
14772SOL     OW46154   3.615   3.050   5.457
14772SOL    HW146155   3.533   3.042   5.506
14772SOL    HW246156   3.661   2.968   5.473
14773SOL     OW46157   1.277  13.441  10.147
14773SOL    HW146158   1.343  13.472  10.209
14773SOL    HW246159   1.210  13.400  10.202
14774SOL     OW46160   9.309   5.958   2.852
14774SOL    HW146161   9.264   5.884   2.894
14774SOL    HW246162   9.323   5.928   2.762
14775SOL     OW46163  13.032   9.800   9.593
14775SOL    HW146164  12.974   9.755   9.531
14775SOL    HW246165  12.975   9.821   9.668
14776SOL     OW46166   0.980   3.412   5.176
14776SOL    HW146167   0.917   3.482   5.189
14776SOL    HW246168   0.934   3.332   5.203
14777SOL     OW46169   7.967  13.048  12.109
14777SOL    HW146170   7.973  12.985  12.181
14777SOL    HW246171   7.873  13.066  12.100
14778SOL     OW46172   6.909   3.771   2.893
14778SOL    HW146173   6.940   3.705   2.956
14778SOL    HW246174   6.892   3.721   2.813
14779SOL     OW46175   3.596   6.988  11.227
14779SOL    HW146176   3.573   6.938  11.306
14779SOL    HW246177   3.516   6.991  11.176
14780SOL     OW46178   1.456   3.415  13.015
14780SOL    HW146179   1.377   3.466  12.996
14780SOL    HW246180   1.442   3.332  12.970
14781SOL     OW46181   3.248   6.847   5.604
14781SOL    HW146182   3.179   6.872   5.542
14781SOL    HW246183   3.306   6.790   5.553
14782SOL     OW46184  13.968   8.336   0.137
14782SOL    HW146185  13.900   8.283   0.180
14782SOL    HW246186  14.050   8.291   0.155
14783SOL     OW46187  10.500   9.869  13.577
14783SOL    HW146188  10.493   9.880  13.483
14783SOL    HW246189  10.563   9.936  13.605
14784SOL     OW46190  12.771  10.709   2.578
14784SOL    HW146191  12.758  10.619   2.548
14784SOL    HW246192  12.791  10.759   2.499
14785SOL     OW46193  13.278   7.566  13.917
14785SOL    HW146194  13.210   7.633  13.909
14785SOL    HW246195  13.262   7.526  14.003
14786SOL     OW46196   6.893   2.942   7.185
14786SOL    HW146197   6.890   2.936   7.281
14786SOL    HW246198   6.943   3.022   7.167
14787SOL     OW46199   3.656  12.584   0.697
14787SOL    HW146200   3.628  12.546   0.614
14787SOL    HW246201   3.695  12.511   0.746
14788SOL     OW46202   4.661   0.532  14.144
14788SOL    HW146203   4.648   0.565  14.055
14788SOL    HW246204   4.617   0.447  14.145
14789SOL     OW46205   6.358   5.550  14.239
14789SOL    HW146206   6.386   5.625  14.187
14789SOL    HW246207   6.291   5.584  14.298
14790SOL     OW46208   4.539   6.128   9.640
14790SOL    HW146209   4.575   6.088   9.719
14790SOL    HW246210   4.531   6.056   9.578
14791SOL     OW46211   2.033   5.236  11.000
14791SOL    HW146212   2.027   5.289  10.920
14791SOL    HW246213   1.996   5.292  11.068
14792SOL     OW46214   1.363   4.102   2.924
14792SOL    HW146215   1.304   4.081   2.996
14792SOL    HW246216   1.333   4.187   2.892
14793SOL     OW46217  12.864   4.744   4.229
14793SOL    HW146218  12.803   4.788   4.289
14793SOL    HW246219  12.907   4.815   4.182
14794SOL     OW46220   5.141   2.599  12.182
14794SOL    HW146221   5.214   2.568  12.236
14794SOL    HW246222   5.175   2.678  12.139
14795SOL     OW46223   3.460   3.458   4.438
14795SOL    HW146224   3.512   3.467   4.518
14795SOL    HW246225   3.524   3.469   4.367
14796SOL     OW46226   8.969  14.401   8.741
14796SOL    HW146227   8.896  14.362   8.789
14796SOL    HW246228   9.039  14.409   8.806
14797SOL     OW46229   0.539  13.787  14.738
14797SOL    HW146230   0.525  13.755  14.648
14797SOL    HW246231   0.468  13.849  14.752
14798SOL     OW46232  11.811   7.967   9.870
14798SOL    HW146233  11.879   7.964   9.937
14798SOL    HW246234  11.788   8.060   9.864
14799SOL     OW46235   6.897   4.782   2.418
14799SOL    HW146236   6.810   4.773   2.377
14799SOL    HW246237   6.886   4.852   2.482
14800SOL     OW46238   8.904   6.715  10.219
14800SOL    HW146239   8.943   6.629  10.200
14800SOL    HW246240   8.979   6.771  10.239
14801SOL     OW46241  13.362  12.506   5.342
14801SOL    HW146242  13.295  12.542   5.399
14801SOL    HW246243  13.401  12.434   5.392
14802SOL     OW46244  13.789   0.408   6.770
14802SOL    HW146245  13.880   0.424   6.746
14802SOL    HW246246  13.741   0.415   6.688
14803SOL     OW46247   6.440   9.449  10.217
14803SOL    HW146248   6.488   9.532  10.218
14803SOL    HW246249   6.348   9.474  10.227
14804SOL     OW46250   0.243   4.964  10.768
14804SOL    HW146251   0.332   4.973  10.799
14804SOL    HW246252   0.190   5.014  10.830
14805SOL     OW46253  14.736   0.906   3.182
14805SOL    HW146254  14.805   0.844   3.158
14805SOL    HW246255  14.658   0.875   3.135
14806SOL     OW46256   5.656   3.943  10.970
14806SOL    HW146257   5.702   3.984  11.044
14806SOL    HW246258   5.721   3.943  10.899
14807SOL     OW46259   1.290   9.845   9.355
14807SOL    HW146260   1.235   9.923   9.353
14807SOL    HW246261   1.258   9.790   9.283
14808SOL     OW46262   2.038   8.771   7.758
14808SOL    HW146263   2.030   8.679   7.732
14808SOL    HW246264   2.129   8.780   7.787
14809SOL     OW46265   6.120   2.080   3.488
14809SOL    HW146266   6.130   2.164   3.442
14809SOL    HW246267   6.027   2.078   3.512
14810SOL     OW46268   8.057   0.263   4.218
14810SOL    HW146269   7.997   0.242   4.146
14810SOL    HW246270   8.138   0.216   4.197
14811SOL     OW46271   5.820   0.317   0.394
14811SOL    HW146272   5.868   0.235   0.401
14811SOL    HW246273   5.842   0.352   0.308
14812SOL     OW46274  12.783   9.620   7.282
14812SOL    HW146275  12.755   9.555   7.217
14812SOL    HW246276  12.706   9.634   7.336
14813SOL     OW46277   3.371  12.650   0.492
14813SOL    HW146278   3.394  12.725   0.547
14813SOL    HW246279   3.281  12.668   0.463
14814SOL     OW46280   1.805  13.293  10.318
14814SOL    HW146281   1.847  13.323  10.399
14814SOL    HW246282   1.749  13.220  10.345
14815SOL     OW46283  10.677   8.827   1.768
14815SOL    HW146284  10.611   8.765   1.738
14815SOL    HW246285  10.658   8.838   1.862
14816SOL     OW46286  11.483  14.120  13.525
14816SOL    HW146287  11.444  14.207  13.526
14816SOL    HW246288  11.408  14.060  13.524
14817SOL     OW46289   0.411   2.690   8.692
14817SOL    HW146290   0.473   2.676   8.620
14817SOL    HW246291   0.446   2.765   8.740
14818SOL     OW46292  14.815   6.560  11.505
14818SOL    HW146293  14.725   6.591  11.496
14818SOL    HW246294  14.822   6.535  11.597
14819SOL     OW46295  12.489   1.202   8.949
14819SOL    HW146296  12.570   1.224   8.902
14819SOL    HW246297  12.517   1.182   9.038
14820SOL     OW46298  11.772   6.531  14.241
14820SOL    HW146299  11.785   6.442  14.208
14820SOL    HW246300  11.861   6.564  14.255
14821SOL     OW46301  12.714   4.574   9.672
14821SOL    HW146302  12.645   4.639   9.667
14821SOL    HW246303  12.698   4.527   9.754
14822SOL     OW46304   0.841  12.163   5.517
14822SOL    HW146305   0.750  12.134   5.515
14822SOL    HW246306   0.855  12.207   5.433
14823SOL     OW46307   5.647   1.347  12.419
14823SOL    HW146308   5.587   1.275  12.437
14823SOL    HW246309   5.608   1.393  12.345
14824SOL     OW46310  14.083  13.667   9.767
14824SOL    HW146311  14.035  13.742   9.802
14824SOL    HW246312  14.014  13.606   9.740
14825SOL     OW46313   5.086   8.272  12.698
14825SOL    HW146314   5.120   8.183  12.705
14825SOL    HW246315   5.096   8.294  12.606
14826SOL     OW46316   9.255   5.418   3.300
14826SOL    HW146317   9.249   5.356   3.228
14826SOL    HW246318   9.343   5.405   3.336
14827SOL     OW46319  10.776   4.598   9.718
14827SOL    HW146320  10.783   4.503   9.728
14827SOL    HW246321  10.717   4.626   9.788
14828SOL     OW46322  14.611   5.603   1.226
14828SOL    HW146323  14.521   5.596   1.193
14828SOL    HW246324  14.656   5.529   1.186
14829SOL     OW46325  11.707   5.644   4.619
14829SOL    HW146326  11.655   5.674   4.544
14829SOL    HW246327  11.643   5.633   4.689
14830SOL     OW46328  10.626   8.288   9.549
14830SOL    HW146329  10.710   8.332   9.539
14830SOL    HW246330  10.615   8.239   9.467
14831SOL     OW46331   4.462   0.281   3.657
14831SOL    HW146332   4.519   0.248   3.588
14831SOL    HW246333   4.414   0.203   3.688
14832SOL     OW46334   3.723   7.424   1.235
14832SOL    HW146335   3.740   7.410   1.142
14832SOL    HW246336   3.743   7.517   1.250
14833SOL     OW46337   0.768  12.610   6.844
14833SOL    HW146338   0.738  12.530   6.889
14833SOL    HW246339   0.822  12.578   6.772
14834SOL     OW46340   5.757   0.834   5.058
14834SOL    HW146341   5.762   0.789   5.142
14834SOL    HW246342   5.838   0.884   5.052
14835SOL     OW46343  14.264   2.600   2.319
14835SOL    HW146344  14.176   2.573   2.343
14835SOL    HW246345  14.251   2.674   2.260
14836SOL     OW46346  14.641  13.683   6.184
14836SOL    HW146347  14.575  13.614   6.175
14836SOL    HW246348  14.682  13.689   6.098
14837SOL     OW46349  13.819   2.999   7.672
14837SOL    HW146350  13.908   3.031   7.659
14837SOL    HW246351  13.813   2.919   7.620
14838SOL     OW46352  11.836  12.841  13.725
14838SOL    HW146353  11.808  12.810  13.811
14838SOL    HW246354  11.915  12.790  13.705
14839SOL     OW46355   2.270   8.426   7.172
14839SOL    HW146356   2.280   8.384   7.086
14839SOL    HW246357   2.356   8.416   7.214
14840SOL     OW46358   3.404  11.834  12.581
14840SOL    HW146359   3.373  11.902  12.641
14840SOL    HW246360   3.388  11.752  12.628
14841SOL     OW46361  10.449   0.553  11.965
14841SOL    HW146362  10.489   0.467  11.981
14841SOL    HW246363  10.430   0.553  11.871
14842SOL     OW46364   8.933   4.731   6.064
14842SOL    HW146365   8.926   4.804   6.125
14842SOL    HW246366   8.854   4.736   6.010
14843SOL     OW46367   4.487   6.251   5.095
14843SOL    HW146368   4.488   6.275   5.002
14843SOL    HW246369   4.399   6.272   5.125
14844SOL     OW46370   7.419  14.475   6.156
14844SOL    HW146371   7.481  14.537   6.194
14844SOL    HW246372   7.430  14.485   6.061
14845SOL     OW46373  13.895  10.467  13.047
14845SOL    HW146374  13.950  10.528  13.096
14845SOL    HW246375  13.884  10.392  13.106
14846SOL     OW46376   2.681   9.240   0.315
14846SOL    HW146377   2.670   9.255   0.409
14846SOL    HW246378   2.612   9.291   0.274
14847SOL     OW46379  11.203   3.138   5.446
14847SOL    HW146380  11.288   3.097   5.429
14847SOL    HW246381  11.143   3.093   5.387
14848SOL     OW46382   6.904   0.238   6.980
14848SOL    HW146383   6.986   0.285   6.972
14848SOL    HW246384   6.882   0.214   6.890
14849SOL     OW46385   9.400   3.473   1.344
14849SOL    HW146386   9.459   3.470   1.419
14849SOL    HW246387   9.369   3.383   1.334
14850SOL     OW46388   6.158  14.780   0.010
14850SOL    HW146389   6.230  14.818   0.060
14850SOL    HW246390   6.187  14.691  14.869
14851SOL     OW46391   7.407  11.737  11.640
14851SOL    HW146392   7.463  11.804  11.680
14851SOL    HW246393   7.328  11.736  11.694
14852SOL     OW46394   5.984   7.737  14.511
14852SOL    HW146395   6.026   7.681  14.576
14852SOL    HW246396   6.048   7.744  14.440
14853SOL     OW46397  13.574   1.103   5.659
14853SOL    HW146398  13.510   1.171   5.680
14853SOL    HW246399  13.652   1.127   5.709
14854SOL     OW46400   2.638   4.535   8.655
14854SOL    HW146401   2.568   4.590   8.620
14854SOL    HW246402   2.712   4.595   8.666
14855SOL     OW46403  13.255  13.203  10.902
14855SOL    HW146404  13.268  13.283  10.952
14855SOL    HW246405  13.225  13.138  10.966
14856SOL     OW46406   6.512  11.852   9.880
14856SOL    HW146407   6.516  11.757   9.892
14856SOL    HW246408   6.421  11.874   9.899
14857SOL     OW46409  12.986   6.740  10.838
14857SOL    HW146410  12.930   6.682  10.786
14857SOL    HW246411  13.014   6.686  10.912
14858SOL     OW46412   9.308  14.697   5.611
14858SOL    HW146413   9.226  14.696   5.661
14858SOL    HW246414   9.375  14.718   5.677
14859SOL     OW46415   3.672   1.059   2.085
14859SOL    HW146416   3.658   1.112   2.007
14859SOL    HW246417   3.698   0.973   2.052
14860SOL     OW46418   7.460  12.646   6.296
14860SOL    HW146419   7.460  12.550   6.291
14860SOL    HW246420   7.482  12.664   6.387
14861SOL     OW46421  14.550   2.843   3.004
14861SOL    HW146422  14.551   2.938   3.001
14861SOL    HW246423  14.459   2.819   2.987
14862SOL     OW46424   5.477   0.499   6.972
14862SOL    HW146425   5.425   0.439   6.919
14862SOL    HW246426   5.498   0.448   7.051
14863SOL     OW46427  12.956   6.625   7.102
14863SOL    HW146428  13.001   6.691   7.049
14863SOL    HW246429  13.008   6.619   7.182
14864SOL     OW46430   1.699   3.566   6.549
14864SOL    HW146431   1.752   3.644   6.568
14864SOL    HW246432   1.751   3.493   6.582
14865SOL     OW46433   2.475   3.625   1.919
14865SOL    HW146434   2.430   3.553   1.875
14865SOL    HW246435   2.498   3.686   1.849
14866SOL     OW46436   9.697   5.294   0.649
14866SOL    HW146437   9.683   5.285   0.744
14866SOL    HW246438   9.760   5.225   0.627
14867SOL     OW46439  12.372   4.070   6.771
14867SOL    HW146440  12.407   4.147   6.815
14867SOL    HW246441  12.391   4.085   6.678
14868SOL     OW46442  11.720   7.154  11.114
14868SOL    HW146443  11.635   7.198  11.114
14868SOL    HW246444  11.752   7.163  11.203
14869SOL     OW46445  13.419   8.938   6.800
14869SOL    HW146446  13.495   8.921   6.743
14869SOL    HW246447  13.449   9.007   6.859
14870SOL     OW46448   7.805  13.980  11.364
14870SOL    HW146449   7.736  13.986  11.298
14870SOL    HW246450   7.864  14.052  11.343
14871SOL     OW46451   8.073   5.860   6.134
14871SOL    HW146452   8.053   5.935   6.077
14871SOL    HW246453   8.110   5.795   6.076
14872SOL     OW46454   3.048  11.298   0.833
14872SOL    HW146455   2.995  11.222   0.857
14872SOL    HW246456   3.019  11.367   0.893
14873SOL     OW46457   2.836  13.181   5.990
14873SOL    HW146458   2.867  13.258   6.038
14873SOL    HW246459   2.740  13.187   5.993
14874SOL     OW46460  10.413   3.052   0.654
14874SOL    HW146461  10.327   3.082   0.624
14874SOL    HW246462  10.395   3.006   0.736
14875SOL     OW46463  13.550   2.168   0.989
14875SOL    HW146464  13.497   2.225   0.933
14875SOL    HW246465  13.552   2.212   1.074
14876SOL     OW46466  10.401   6.008   3.599
14876SOL    HW146467  10.377   5.916   3.592
14876SOL    HW246468  10.320   6.056   3.580
14877SOL     OW46469   9.095   6.629   5.335
14877SOL    HW146470   9.092   6.692   5.407
14877SOL    HW246471   9.084   6.544   5.376
14878SOL     OW46472   6.453   2.327   0.436
14878SOL    HW146473   6.455   2.358   0.526
14878SOL    HW246474   6.531   2.364   0.396
14879SOL     OW46475   1.771   1.364  12.971
14879SOL    HW146476   1.699   1.412  13.012
14879SOL    HW246477   1.850   1.410  13.000
14880SOL     OW46478  14.236  13.998   4.573
14880SOL    HW146479  14.306  13.970   4.514
14880SOL    HW246480  14.237  14.094   4.569
14881SOL     OW46481   2.048   7.117   0.556
14881SOL    HW146482   2.131   7.165   0.558
14881SOL    HW246483   2.069   7.035   0.509
14882SOL     OW46484  11.921   1.611   3.897
14882SOL    HW146485  11.857   1.575   3.958
14882SOL    HW246486  11.868   1.644   3.824
14883SOL     OW46487   7.993   7.307  14.462
14883SOL    HW146488   8.004   7.347  14.376
14883SOL    HW246489   8.001   7.213  14.447
14884SOL     OW46490   7.741   5.726   9.490
14884SOL    HW146491   7.701   5.774   9.562
14884SOL    HW246492   7.667   5.684   9.445
14885SOL     OW46493  10.491  10.907   2.741
14885SOL    HW146494  10.525  10.822   2.710
14885SOL    HW246495  10.512  10.968   2.670
14886SOL     OW46496   2.744   4.967   1.751
14886SOL    HW146497   2.810   5.002   1.810
14886SOL    HW246498   2.661   4.996   1.788
14887SOL     OW46499  12.634   9.106   9.759
14887SOL    HW146500  12.706   9.045   9.742
14887SOL    HW246501  12.562   9.051   9.788
14888SOL     OW46502   8.848   1.684   4.695
14888SOL    HW146503   8.890   1.644   4.620
14888SOL    HW246504   8.881   1.635   4.770
14889SOL     OW46505   1.464  12.739  10.280
14889SOL    HW146506   1.524  12.667  10.258
14889SOL    HW246507   1.511  12.818  10.252
14890SOL     OW46508   3.700   7.204  10.322
14890SOL    HW146509   3.663   7.284  10.360
14890SOL    HW246510   3.794   7.222  10.316
14891SOL     OW46511  10.598   0.675   9.149
14891SOL    HW146512  10.578   0.585   9.172
14891SOL    HW246513  10.680   0.694   9.196
14892SOL     OW46514   1.095  12.523   5.312
14892SOL    HW146515   1.176  12.472   5.303
14892SOL    HW246516   1.111  12.600   5.257
14893SOL     OW46517  10.801  13.633  12.364
14893SOL    HW146518  10.742  13.634  12.439
14893SOL    HW246519  10.777  13.554  12.315
14894SOL     OW46520   6.286  13.456  13.358
14894SOL    HW146521   6.212  13.449  13.418
14894SOL    HW246522   6.246  13.464  13.271
14895SOL     OW46523   0.634   9.408   3.099
14895SOL    HW146524   0.549   9.410   3.055
14895SOL    HW246525   0.613   9.382   3.189
14896SOL     OW46526   9.348   5.523   4.810
14896SOL    HW146527   9.304   5.608   4.819
14896SOL    HW246528   9.309   5.484   4.732
14897SOL     OW46529   8.749  13.729   9.926
14897SOL    HW146530   8.806  13.660   9.960
14897SOL    HW246531   8.773  13.806   9.977
14898SOL     OW46532   5.407   6.473  14.876
14898SOL    HW146533   5.437   6.524   0.072
14898SOL    HW246534   5.486   6.462  14.822
14899SOL     OW46535  11.852  11.147  13.907
14899SOL    HW146536  11.913  11.222  13.902
14899SOL    HW246537  11.769  11.186  13.934
14900SOL     OW46538  10.331   9.283  12.382
14900SOL    HW146539  10.310   9.269  12.290
14900SOL    HW246540  10.411   9.232  12.396
14901SOL     OW46541   0.205   9.517   1.156
14901SOL    HW146542   0.122   9.564   1.158
14901SOL    HW246543   0.258   9.564   1.091
14902SOL     OW46544   9.623   7.806   5.935
14902SOL    HW146545   9.591   7.716   5.940
14902SOL    HW246546   9.641   7.820   5.842
14903SOL     OW46547  13.531   4.519   4.729
14903SOL    HW146548  13.517   4.426   4.750
14903SOL    HW246549  13.621   4.523   4.698
14904SOL     OW46550  10.957   6.699   7.771
14904SOL    HW146551  10.896   6.726   7.702
14904SOL    HW246552  10.909   6.714   7.852
14905SOL     OW46553   6.225  13.913   3.077
14905SOL    HW146554   6.186  13.826   3.081
14905SOL    HW246555   6.254  13.930   3.167
14906SOL     OW46556   8.704   6.215  12.003
14906SOL    HW146557   8.695   6.125  11.972
14906SOL    HW246558   8.776   6.211  12.066
14907SOL     OW46559  11.582   2.536   9.790
14907SOL    HW146560  11.605   2.559   9.880
14907SOL    HW246561  11.577   2.441   9.790
14908SOL     OW46562  11.951  14.230   1.367
14908SOL    HW146563  11.942  14.237   1.272
14908SOL    HW246564  12.012  14.300   1.390
14909SOL     OW46565   1.439   8.946   2.018
14909SOL    HW146566   1.382   8.963   2.093
14909SOL    HW246567   1.418   8.856   1.993
14910SOL     OW46568   3.776   2.638   6.790
14910SOL    HW146569   3.822   2.616   6.870
14910SOL    HW246570   3.717   2.565   6.775
14911SOL     OW46571   0.533   4.565   1.805
14911SOL    HW146572   0.513   4.622   1.731
14911SOL    HW246573   0.491   4.481   1.782
14912SOL     OW46574   2.109   4.573   7.212
14912SOL    HW146575   2.060   4.639   7.163
14912SOL    HW246576   2.068   4.490   7.188
14913SOL     OW46577   7.939   5.947   3.156
14913SOL    HW146578   7.907   6.036   3.138
14913SOL    HW246579   7.951   5.909   3.069
14914SOL     OW46580   0.846  14.140  14.257
14914SOL    HW146581   0.821  14.079  14.326
14914SOL    HW246582   0.812  14.225  14.287
14915SOL     OW46583   5.186   6.452   3.360
14915SOL    HW146584   5.148   6.442   3.447
14915SOL    HW246585   5.280   6.466   3.376
14916SOL     OW46586   8.582  10.707   2.427
14916SOL    HW146587   8.664  10.748   2.454
14916SOL    HW246588   8.514  10.767   2.455
14917SOL     OW46589  11.860   0.947   8.411
14917SOL    HW146590  11.931   1.003   8.441
14917SOL    HW246591  11.832   0.985   8.328
14918SOL     OW46592  10.144   9.796   3.323
14918SOL    HW146593  10.090   9.806   3.401
14918SOL    HW246594  10.196   9.877   3.319
14919SOL     OW46595   7.877  12.320   9.535
14919SOL    HW146596   7.791  12.348   9.505
14919SOL    HW246597   7.859  12.251   9.599
14920SOL     OW46598  13.529  13.796  10.221
14920SOL    HW146599  13.550  13.713  10.264
14920SOL    HW246600  13.544  13.780  10.128
14921SOL     OW46601   4.138  13.688   6.640
14921SOL    HW146602   4.224  13.728   6.654
14921SOL    HW246603   4.158  13.606   6.594
14922SOL     OW46604   8.684   9.797   3.166
14922SOL    HW146605   8.620   9.769   3.101
14922SOL    HW246606   8.654   9.758   3.248
14923SOL     OW46607   5.532  12.186   9.742
14923SOL    HW146608   5.565  12.224   9.824
14923SOL    HW246609   5.611  12.170   9.690
14924SOL     OW46610  14.570   1.235   2.421
14924SOL    HW146611  14.666   1.237   2.427
14924SOL    HW246612  14.549   1.300   2.354
14925SOL     OW46613  12.193   4.390  10.908
14925SOL    HW146614  12.142   4.469  10.926
14925SOL    HW246615  12.195   4.384  10.812
14926SOL     OW46616   7.851   6.024   0.262
14926SOL    HW146617   7.764   6.012   0.302
14926SOL    HW246618   7.912   6.021   0.335
14927SOL     OW46619  13.080  10.741   2.161
14927SOL    HW146620  13.163  10.758   2.116
14927SOL    HW246621  13.019  10.803   2.123
14928SOL     OW46622   7.843  13.935  12.482
14928SOL    HW146623   7.755  13.948  12.446
14928SOL    HW246624   7.858  14.010  12.538
14929SOL     OW46625   4.942  10.236   3.525
14929SOL    HW146626   4.862  10.224   3.576
14929SOL    HW246627   4.968  10.327   3.543
14930SOL     OW46628  12.378  10.297   8.601
14930SOL    HW146629  12.432  10.233   8.555
14930SOL    HW246630  12.427  10.379   8.592
14931SOL     OW46631   9.461   3.404   0.943
14931SOL    HW146632   9.369   3.380   0.957
14931SOL    HW246633   9.501   3.324   0.908
14932SOL     OW46634  12.092  14.195  10.185
14932SOL    HW146635  12.137  14.225  10.264
14932SOL    HW246636  12.004  14.232  10.192
14933SOL     OW46637   9.720   5.011  10.145
14933SOL    HW146638   9.763   5.094  10.163
14933SOL    HW246639   9.627   5.034  10.136
14934SOL     OW46640   6.590   4.590  13.706
14934SOL    HW146641   6.559   4.620  13.792
14934SOL    HW246642   6.650   4.518  13.726
14935SOL     OW46643   9.732   0.845   5.973
14935SOL    HW146644   9.806   0.844   6.034
14935SOL    HW246645   9.747   0.769   5.916
14936SOL     OW46646   9.926   9.004   7.702
14936SOL    HW146647   9.860   9.057   7.747
14936SOL    HW246648   9.964   9.063   7.637
14937SOL     OW46649   0.842  14.199   4.030
14937SOL    HW146650   0.818  14.206   4.122
14937SOL    HW246651   0.924  14.149   4.029
14938SOL     OW46652   1.774   3.408  12.512
14938SOL    HW146653   1.783   3.316  12.486
14938SOL    HW246654   1.823   3.457  12.446
14939SOL     OW46655   4.364  11.516   4.663
14939SOL    HW146656   4.276  11.492   4.636
14939SOL    HW246657   4.413  11.434   4.662
14940SOL     OW46658  11.360   2.911   5.375
14940SOL    HW146659  11.327   2.921   5.286
14940SOL    HW246660  11.380   2.818   5.384
14941SOL     OW46661   4.175   4.600   4.085
14941SOL    HW146662   4.082   4.592   4.102
14941SOL    HW246663   4.181   4.640   3.998
14942SOL     OW46664  10.690   8.836   8.266
14942SOL    HW146665  10.721   8.762   8.215
14942SOL    HW246666  10.597   8.818   8.281
14943SOL     OW46667   3.915   9.035   4.856
14943SOL    HW146668   3.831   9.079   4.857
14943SOL    HW246669   3.946   9.039   4.946
14944SOL     OW46670  12.129  12.153   0.852
14944SOL    HW146671  12.150  12.075   0.903
14944SOL    HW246672  12.169  12.225   0.902
14945SOL     OW46673  12.727   1.977   5.829
14945SOL    HW146674  12.633   1.983   5.813
14945SOL    HW246675  12.756   2.069   5.833
14946SOL     OW46676   8.214   9.308  13.854
14946SOL    HW146677   8.307   9.305  13.830
14946SOL    HW246678   8.181   9.220  13.835
14947SOL     OW46679   6.380  10.647  10.410
14947SOL    HW146680   6.336  10.630  10.494
14947SOL    HW246681   6.433  10.725  10.427
14948SOL     OW46682   5.436   2.961   9.098
14948SOL    HW146683   5.394   2.973   9.013
14948SOL    HW246684   5.530   2.963   9.078
14949SOL     OW46685   5.468  12.408   4.809
14949SOL    HW146686   5.456  12.323   4.768
14949SOL    HW246687   5.395  12.461   4.778
14950SOL     OW46688   1.516   0.137  13.907
14950SOL    HW146689   1.471   0.134  13.992
14950SOL    HW246690   1.606   0.160  13.928
14951SOL     OW46691  12.336   8.211   0.937
14951SOL    HW146692  12.383   8.263   0.872
14951SOL    HW246693  12.309   8.132   0.890
14952SOL     OW46694   1.489   5.638  12.087
14952SOL    HW146695   1.501   5.622  11.994
14952SOL    HW246696   1.399   5.669  12.095
14953SOL     OW46697   1.891   2.982   8.602
14953SOL    HW146698   1.869   2.916   8.667
14953SOL    HW246699   1.859   2.947   8.520
14954SOL     OW46700   3.185   9.420   9.620
14954SOL    HW146701   3.098   9.456   9.639
14954SOL    HW246702   3.186   9.335   9.663
14955SOL     OW46703   3.032   2.751   8.646
14955SOL    HW146704   3.089   2.740   8.570
14955SOL    HW246705   2.961   2.806   8.615
14956SOL     OW46706   5.396  11.610  12.168
14956SOL    HW146707   5.442  11.532  12.199
14956SOL    HW246708   5.325  11.623  12.231
14957SOL     OW46709   5.063  10.485   3.573
14957SOL    HW146710   5.126  10.495   3.644
14957SOL    HW246711   5.108  10.522   3.496
14958SOL     OW46712   6.326   2.803  11.111
14958SOL    HW146713   6.293   2.817  11.200
14958SOL    HW246714   6.399   2.742  11.122
14959SOL     OW46715  11.806   3.643  10.455
14959SOL    HW146716  11.848   3.583  10.517
14959SOL    HW246717  11.789   3.722  10.506
14960SOL     OW46718   7.395  10.504   8.513
14960SOL    HW146719   7.305  10.479   8.492
14960SOL    HW246720   7.441  10.500   8.429
14961SOL     OW46721   2.483  14.445   5.031
14961SOL    HW146722   2.448  14.408   5.112
14961SOL    HW246723   2.426  14.410   4.962
14962SOL     OW46724  10.207  14.201  13.223
14962SOL    HW146725  10.211  14.222  13.130
14962SOL    HW246726  10.267  14.127  13.234
14963SOL     OW46727   6.030  11.893  11.680
14963SOL    HW146728   6.024  11.986  11.655
14963SOL    HW246729   6.123  11.872  11.669
14964SOL     OW46730   0.332   6.543   4.931
14964SOL    HW146731   0.403   6.526   4.992
14964SOL    HW246732   0.297   6.629   4.957
14965SOL     OW46733  14.202   0.409   5.479
14965SOL    HW146734  14.212   0.314   5.489
14965SOL    HW246735  14.216   0.443   5.568
14966SOL     OW46736   7.743   8.616   7.433
14966SOL    HW146737   7.651   8.604   7.409
14966SOL    HW246738   7.782   8.529   7.424
14967SOL     OW46739   3.805   1.235   1.157
14967SOL    HW146740   3.880   1.184   1.186
14967SOL    HW246741   3.731   1.197   1.205
14968SOL     OW46742   9.352   2.222   1.298
14968SOL    HW146743   9.402   2.253   1.222
14968SOL    HW246744   9.409   2.157   1.338
14969SOL     OW46745  11.833   0.410   6.479
14969SOL    HW146746  11.817   0.488   6.533
14969SOL    HW246747  11.912   0.432   6.429
14970SOL     OW46748  11.346   0.640   5.485
14970SOL    HW146749  11.408   0.651   5.557
14970SOL    HW246750  11.397   0.599   5.415
14971SOL     OW46751   7.959   1.901   1.522
14971SOL    HW146752   8.007   1.982   1.509
14971SOL    HW246753   7.871   1.919   1.491
14972SOL     OW46754   1.002   6.769  14.333
14972SOL    HW146755   1.031   6.731  14.416
14972SOL    HW246756   0.970   6.694  14.283
14973SOL     OW46757  10.602   9.250   7.901
14973SOL    HW146758  10.564   9.335   7.880
14973SOL    HW246759  10.599   9.201   7.819
14974SOL     OW46760   9.131   7.135   2.394
14974SOL    HW146761   9.187   7.107   2.466
14974SOL    HW246762   9.067   7.065   2.385
14975SOL     OW46763   9.572  12.905   7.887
14975SOL    HW146764   9.521  12.843   7.938
14975SOL    HW246765   9.654  12.914   7.936
14976SOL     OW46766   6.561   1.596   7.480
14976SOL    HW146767   6.519   1.665   7.429
14976SOL    HW246768   6.648   1.586   7.442
14977SOL     OW46769  11.583   9.447   1.831
14977SOL    HW146770  11.549   9.536   1.817
14977SOL    HW246771  11.627   9.426   1.749
14978SOL     OW46772   5.565   5.807   6.165
14978SOL    HW146773   5.490   5.792   6.222
14978SOL    HW246774   5.552   5.746   6.092
14979SOL     OW46775   0.413  13.929   4.528
14979SOL    HW146776   0.464  13.861   4.571
14979SOL    HW246777   0.447  14.011   4.565
14980SOL     OW46778   1.124   6.101   9.470
14980SOL    HW146779   1.219   6.084   9.471
14980SOL    HW246780   1.092   6.058   9.550
14981SOL     OW46781   0.690   6.235  14.090
14981SOL    HW146782   0.707   6.317  14.044
14981SOL    HW246783   0.614   6.254  14.145
14982SOL     OW46784  14.329  12.874   7.758
14982SOL    HW146785  14.277  12.825   7.695
14982SOL    HW246786  14.344  12.813   7.830
14983SOL     OW46787   7.719  10.399  14.160
14983SOL    HW146788   7.766  10.343  14.097
14983SOL    HW246789   7.785  10.462  14.189
14984SOL     OW46790   9.656   6.644  13.904
14984SOL    HW146791   9.697   6.558  13.904
14984SOL    HW246792   9.727   6.705  13.887
14985SOL     OW46793   5.353   3.569   7.968
14985SOL    HW146794   5.373   3.562   7.875
14985SOL    HW246795   5.268   3.526   7.977
14986SOL     OW46796   9.661   2.365   8.145
14986SOL    HW146797   9.609   2.366   8.065
14986SOL    HW246798   9.724   2.294   8.132
14987SOL     OW46799   8.382   5.488   7.232
14987SOL    HW146800   8.442   5.433   7.182
14987SOL    HW246801   8.387   5.453   7.321
14988SOL     OW46802   1.808   7.865  11.187
14988SOL    HW146803   1.763   7.870  11.103
14988SOL    HW246804   1.827   7.956  11.210
14989SOL     OW46805   5.075   8.169  10.876
14989SOL    HW146806   5.131   8.106  10.922
14989SOL    HW246807   5.114   8.254  10.895
14990SOL     OW46808  11.710   0.402   3.209
14990SOL    HW146809  11.676   0.399   3.119
14990SOL    HW246810  11.715   0.495   3.229
14991SOL     OW46811  14.542   3.896   3.076
14991SOL    HW146812  14.619   3.936   3.116
14991SOL    HW246813  14.515   3.957   3.008
14992SOL     OW46814   7.961   3.190  13.299
14992SOL    HW146815   7.965   3.263  13.360
14992SOL    HW246816   7.915   3.225  13.222
14993SOL     OW46817  11.328   7.884   9.600
14993SOL    HW146818  11.272   7.878   9.523
14993SOL    HW246819  11.390   7.954   9.579
14994SOL     OW46820   7.791   8.728  11.349
14994SOL    HW146821   7.731   8.801  11.337
14994SOL    HW246822   7.805   8.723  11.444
14995SOL     OW46823   2.866  12.904   3.401
14995SOL    HW146824   2.802  12.838   3.429
14995SOL    HW246825   2.861  12.904   3.305
14996SOL     OW46826   7.754   1.249   9.773
14996SOL    HW146827   7.774   1.214   9.686
14996SOL    HW246828   7.803   1.332   9.777
14997SOL     OW46829   4.546   4.147  10.792
14997SOL    HW146830   4.454   4.119  10.794
14997SOL    HW246831   4.543   4.241  10.810
14998SOL     OW46832  10.827   0.152   0.993
14998SOL    HW146833  10.755   0.130   1.053
14998SOL    HW246834  10.891   0.083   1.008
14999SOL     OW46835   5.395   8.976   7.232
14999SOL    HW146836   5.317   9.001   7.282
14999SOL    HW246837   5.453   9.051   7.239
15000SOL     OW46838   7.876   5.449  10.608
15000SOL    HW146839   7.953   5.394  10.622
15000SOL    HW246840   7.841   5.420  10.524
15001SOL     OW46841  12.258   9.086   0.741
15001SOL    HW146842  12.326   9.150   0.762
15001SOL    HW246843  12.304   9.003   0.734
15002SOL     OW46844   4.155  10.068   4.302
15002SOL    HW146845   4.136  10.104   4.215
15002SOL    HW246846   4.203  10.137   4.347
15003SOL     OW46847  11.987  13.633   2.159
15003SOL    HW146848  12.050  13.690   2.202
15003SOL    HW246849  12.028  13.547   2.158
15004SOL     OW46850  11.192  10.189  14.082
15004SOL    HW146851  11.161  10.217  13.996
15004SOL    HW246852  11.119  10.207  14.141
15005SOL     OW46853   2.557   7.128  13.394
15005SOL    HW146854   2.546   7.124  13.299
15005SOL    HW246855   2.517   7.211  13.419
15006SOL     OW46856   2.393   0.076  11.317
15006SOL    HW146857   2.352   0.027  11.246
15006SOL    HW246858   2.399   0.014  11.389
15007SOL     OW46859   2.619   1.571   3.370
15007SOL    HW146860   2.706   1.609   3.385
15007SOL    HW246861   2.625   1.530   3.284
15008SOL     OW46862   9.546   7.250  11.390
15008SOL    HW146863   9.574   7.159  11.376
15008SOL    HW246864   9.522   7.254  11.482
15009SOL     OW46865  14.676  12.939   3.680
15009SOL    HW146866  14.667  12.931   3.775
15009SOL    HW246867  14.627  13.017   3.657
15010SOL     OW46868   2.124   4.954   9.999
15010SOL    HW146869   2.172   4.986   9.922
15010SOL    HW246870   2.139   5.021  10.066
15011SOL     OW46871   5.069   1.007   7.796
15011SOL    HW146872   5.113   0.922   7.795
15011SOL    HW246873   5.060   1.027   7.890
15012SOL     OW46874   7.445   2.655  14.168
15012SOL    HW146875   7.355   2.681  14.185
15012SOL    HW246876   7.453   2.570  14.211
15013SOL     OW46877   4.454   0.608   1.008
15013SOL    HW146878   4.548   0.610   0.992
15013SOL    HW246879   4.428   0.518   0.989
15014SOL     OW46880  13.841  12.139   6.087
15014SOL    HW146881  13.900  12.124   6.014
15014SOL    HW246882  13.794  12.055   6.098
15015SOL     OW46883  13.051   7.329   0.355
15015SOL    HW146884  12.965   7.311   0.394
15015SOL    HW246885  13.085   7.242   0.333
15016SOL     OW46886   7.372  13.022   7.213
15016SOL    HW146887   7.293  13.041   7.264
15016SOL    HW246888   7.382  12.927   7.217
15017SOL     OW46889   6.065  12.543   7.759
15017SOL    HW146890   5.970  12.545   7.770
15017SOL    HW246891   6.099  12.555   7.848
15018SOL     OW46892  10.331   8.354   1.480
15018SOL    HW146893  10.339   8.267   1.440
15018SOL    HW246894  10.237   8.371   1.483
15019SOL     OW46895   2.172   3.216  13.492
15019SOL    HW146896   2.079   3.216  13.468
15019SOL    HW246897   2.217   3.236  13.411
15020SOL     OW46898   5.545   8.031   4.462
15020SOL    HW146899   5.481   8.090   4.503
15020SOL    HW246900   5.547   8.058   4.370
15021SOL     OW46901   1.831  11.986  11.680
15021SOL    HW146902   1.802  11.898  11.706
15021SOL    HW246903   1.845  11.980  11.586
15022SOL     OW46904   7.027  11.713   0.665
15022SOL    HW146905   7.032  11.762   0.747
15022SOL    HW246906   7.115  11.721   0.627
15023SOL     OW46907  11.726  11.599  12.387
15023SOL    HW146908  11.667  11.667  12.354
15023SOL    HW246909  11.685  11.516  12.360
15024SOL     OW46910  14.792   0.514  14.124
15024SOL    HW146911  14.870   0.567  14.106
15024SOL    HW246912  14.799   0.491  14.216
15025SOL     OW46913   5.484  12.381  14.200
15025SOL    HW146914   5.445  12.353  14.283
15025SOL    HW246915   5.551  12.315  14.182
15026SOL     OW46916   3.442  12.024  13.643
15026SOL    HW146917   3.464  12.002  13.733
15026SOL    HW246918   3.352  12.059  13.648
15027SOL     OW46919   5.974   9.905  13.138
15027SOL    HW146920   5.954   9.818  13.104
15027SOL    HW246921   5.924   9.965  13.083
15028SOL     OW46922  13.170  12.479  14.800
15028SOL    HW146923  13.118  12.557  14.784
15028SOL    HW246924  13.108  12.416  14.837
15029SOL     OW46925   1.881   7.263  11.350
15029SOL    HW146926   1.868   7.351  11.385
15029SOL    HW246927   1.825   7.260  11.273
15030SOL     OW46928  14.348   2.469   6.022
15030SOL    HW146929  14.439   2.493   6.036
15030SOL    HW246930  14.317   2.439   6.107
15031SOL     OW46931  12.670   8.773  10.705
15031SOL    HW146932  12.631   8.826  10.635
15031SOL    HW246933  12.726   8.834  10.753
15032SOL     OW46934  12.900   6.448   1.233
15032SOL    HW146935  12.880   6.374   1.175
15032SOL    HW246936  12.947   6.510   1.177
15033SOL     OW46937  13.441   5.705  10.089
15033SOL    HW146938  13.423   5.673  10.177
15033SOL    HW246939  13.481   5.631  10.043
15034SOL     OW46940   0.277  13.770   8.497
15034SOL    HW146941   0.294  13.848   8.551
15034SOL    HW246942   0.347  13.770   8.433
15035SOL     OW46943  12.616   9.930  10.625
15035SOL    HW146944  12.603   9.854  10.569
15035SOL    HW246945  12.528   9.953  10.655
15036SOL     OW46946  13.946  12.588  14.521
15036SOL    HW146947  13.936  12.498  14.490
15036SOL    HW246948  13.910  12.642  14.451
15037SOL     OW46949   1.026   1.057  12.271
15037SOL    HW146950   1.027   0.991  12.201
15037SOL    HW246951   0.946   1.038  12.321
15038SOL     OW46952   8.837   3.227   4.483
15038SOL    HW146953   8.821   3.294   4.416
15038SOL    HW246954   8.866   3.276   4.560
15039SOL     OW46955   2.119   3.467   5.650
15039SOL    HW146956   2.205   3.426   5.647
15039SOL    HW246957   2.057   3.395   5.660
15040SOL     OW46958  11.348  12.168   8.766
15040SOL    HW146959  11.316  12.253   8.735
15040SOL    HW246960  11.401  12.189   8.843
15041SOL     OW46961  11.505  14.201  12.822
15041SOL    HW146962  11.469  14.240  12.902
15041SOL    HW246963  11.440  14.136  12.795
15042SOL     OW46964   2.751   1.773   9.044
15042SOL    HW146965   2.657   1.789   9.040
15042SOL    HW246966   2.771   1.726   8.963
15043SOL     OW46967  14.262  10.446   1.859
15043SOL    HW146968  14.182  10.396   1.845
15043SOL    HW246969  14.251  10.484   1.946
15044SOL     OW46970  13.411   2.560   0.438
15044SOL    HW146971  13.406   2.574   0.532
15044SOL    HW246972  13.487   2.502   0.426
15045SOL     OW46973  10.459  10.571   6.600
15045SOL    HW146974  10.554  10.565   6.604
15045SOL    HW246975  10.440  10.664   6.595
15046SOL     OW46976   2.851   5.077  14.413
15046SOL    HW146977   2.843   5.150  14.474
15046SOL    HW246978   2.934   5.093  14.368
15047SOL     OW46979   6.136   4.793   1.872
15047SOL    HW146980   6.183   4.737   1.811
15047SOL    HW246981   6.168   4.767   1.958
15048SOL     OW46982   7.827  13.199   4.251
15048SOL    HW146983   7.844  13.105   4.249
15048SOL    HW246984   7.880  13.235   4.180
15049SOL     OW46985   4.151   5.024   0.123
15049SOL    HW146986   4.078   5.083   0.102
15049SOL    HW246987   4.229   5.078   0.113
15050SOL     OW46988  10.530  12.466   5.947
15050SOL    HW146989  10.529  12.371   5.958
15050SOL    HW246990  10.531  12.501   6.036
15051SOL     OW46991   7.051   6.782  12.840
15051SOL    HW146992   7.036   6.773  12.746
15051SOL    HW246993   7.124   6.722  12.859
15052SOL     OW46994   5.135  11.218   4.465
15052SOL    HW146995   5.095  11.229   4.552
15052SOL    HW246996   5.221  11.259   4.474
15053SOL     OW46997   0.901   3.559   7.766
15053SOL    HW146998   0.818   3.571   7.812
15053SOL    HW246999   0.932   3.474   7.795
15054SOL     OW47000  12.580   3.040   1.026
15054SOL    HW147001  12.674   3.045   1.011
15054SOL    HW247002  12.540   3.053   0.940
15055SOL     OW47003   7.330  13.085  12.928
15055SOL    HW147004   7.353  13.046  13.012
15055SOL    HW247005   7.324  13.011  12.868
15056SOL     OW47006  12.279   3.959  11.128
15056SOL    HW147007  12.183   3.962  11.121
15056SOL    HW247008  12.310   3.999  11.048
15057SOL     OW47009   1.445   7.472   8.148
15057SOL    HW147010   1.540   7.474   8.159
15057SOL    HW247011   1.420   7.385   8.181
15058SOL     OW47012   0.472   5.290  10.326
15058SOL    HW147013   0.444   5.254  10.410
15058SOL    HW247014   0.391   5.307  10.279
15059SOL     OW47015   3.023  11.636  10.806
15059SOL    HW147016   3.032  11.681  10.722
15059SOL    HW247017   3.110  11.602  10.825
15060SOL     OW47018   1.625   0.873   4.819
15060SOL    HW147019   1.566   0.914   4.756
15060SOL    HW247020   1.707   0.862   4.771
15061SOL     OW47021   0.196   4.769  14.532
15061SOL    HW147022   0.157   4.682  14.523
15061SOL    HW247023   0.121   4.829  14.526
15062SOL     OW47024  11.362   0.462  11.851
15062SOL    HW147025  11.450   0.468  11.889
15062SOL    HW247026  11.303   0.479  11.924
15063SOL     OW47027   8.839   1.960   4.625
15063SOL    HW147028   8.853   1.869   4.649
15063SOL    HW247029   8.781   1.956   4.548
15064SOL     OW47030  13.030   7.618   4.028
15064SOL    HW147031  13.103   7.679   4.032
15064SOL    HW247032  12.989   7.634   3.943
15065SOL     OW47033   3.068   1.714   7.003
15065SOL    HW147034   3.051   1.789   6.946
15065SOL    HW247035   2.981   1.687   7.033
15066SOL     OW47036  13.277   9.285   7.566
15066SOL    HW147037  13.214   9.218   7.542
15066SOL    HW247038  13.239   9.328   7.642
15067SOL     OW47039   8.759   8.597  11.715
15067SOL    HW147040   8.815   8.530  11.676
15067SOL    HW247041   8.692   8.614  11.649
15068SOL     OW47042   5.807  13.006  10.827
15068SOL    HW147043   5.796  12.958  10.745
15068SOL    HW247044   5.865  13.079  10.805
15069SOL     OW47045   7.622   9.288   5.341
15069SOL    HW147046   7.625   9.377   5.307
15069SOL    HW247047   7.536   9.255   5.315
15070SOL     OW47048   2.291  13.208   3.876
15070SOL    HW147049   2.299  13.250   3.790
15070SOL    HW247050   2.253  13.123   3.857
15071SOL     OW47051   1.903   1.742   2.538
15071SOL    HW147052   1.987   1.721   2.498
15071SOL    HW247053   1.925   1.780   2.623
15072SOL     OW47054   0.394   1.080   8.128
15072SOL    HW147055   0.372   1.064   8.220
15072SOL    HW247056   0.358   1.004   8.082
15073SOL     OW47057  11.626   2.166   2.453
15073SOL    HW147058  11.597   2.256   2.467
15073SOL    HW247059  11.623   2.154   2.359
15074SOL     OW47060   7.871  14.095  12.700
15074SOL    HW147061   7.843  14.092  12.792
15074SOL    HW247062   7.956  14.138  12.702
15075SOL     OW47063   6.024  11.159  12.904
15075SOL    HW147064   6.006  11.067  12.924
15075SOL    HW247065   5.939  11.202  12.909
15076SOL     OW47066  10.655   7.251  10.293
15076SOL    HW147067  10.627   7.185  10.230
15076SOL    HW247068  10.741   7.280  10.261
15077SOL     OW47069   7.316  14.524  10.372
15077SOL    HW147070   7.262  14.446  10.387
15077SOL    HW247071   7.391  14.513  10.430
15078SOL     OW47072  10.219   1.464   9.444
15078SOL    HW147073  10.141   1.409   9.447
15078SOL    HW247074  10.253   1.462   9.533
15079SOL     OW47075   5.333   3.254  10.534
15079SOL    HW147076   5.360   3.320  10.470
15079SOL    HW247077   5.287   3.304  10.602
15080SOL     OW47078   6.593  11.886   8.528
15080SOL    HW147079   6.614  11.792   8.522
15080SOL    HW247080   6.535  11.892   8.604
15081SOL     OW47081  10.791   1.341   0.238
15081SOL    HW147082  10.867   1.375   0.190
15081SOL    HW247083  10.745   1.286   0.175
15082SOL     OW47084   7.840   5.797   4.877
15082SOL    HW147085   7.796   5.715   4.897
15082SOL    HW247086   7.795   5.830   4.800
15083SOL     OW47087   8.463   0.525   5.718
15083SOL    HW147088   8.509   0.449   5.753
15083SOL    HW247089   8.532   0.591   5.705
15084SOL     OW47090   7.153   9.853   0.451
15084SOL    HW147091   7.146   9.883   0.541
15084SOL    HW247092   7.063   9.846   0.420
15085SOL     OW47093  14.792  11.477   1.843
15085SOL    HW147094  14.701  11.492   1.815
15085SOL    HW247095  14.820  11.402   1.791
15086SOL     OW47096  11.505   9.395   7.811
15086SOL    HW147097  11.473   9.365   7.726
15086SOL    HW247098  11.464   9.481   7.823
15087SOL     OW47099   3.202  12.037   3.667
15087SOL    HW147100   3.285  12.015   3.625
15087SOL    HW247101   3.156  11.953   3.673
15088SOL     OW47102   7.854   6.629   4.172
15088SOL    HW147103   7.769   6.659   4.205
15088SOL    HW247104   7.882   6.562   4.235
15089SOL     OW47105   7.557   1.913  14.790
15089SOL    HW147106   7.580   1.867  14.710
15089SOL    HW247107   7.641   1.943  14.825
15090SOL     OW47108  10.324   3.797   8.901
15090SOL    HW147109  10.390   3.866   8.900
15090SOL    HW247110  10.313   3.772   8.809
15091SOL     OW47111   9.355   9.100  14.476
15091SOL    HW147112   9.282   9.093  14.415
15091SOL    HW247113   9.316   9.081  14.562
15092SOL     OW47114   5.235   6.080   0.593
15092SOL    HW147115   5.217   6.169   0.623
15092SOL    HW247116   5.158   6.055   0.542
15093SOL     OW47117  10.451  11.647  13.930
15093SOL    HW147118  10.532  11.600  13.913
15093SOL    HW247119  10.393  11.623  13.858
15094SOL     OW47120   2.569   8.112   9.041
15094SOL    HW147121   2.573   8.088   8.948
15094SOL    HW247122   2.516   8.044   9.081
15095SOL     OW47123   7.082   6.306   7.792
15095SOL    HW147124   7.090   6.328   7.699
15095SOL    HW247125   7.037   6.380   7.831
15096SOL     OW47126  14.752  14.333   9.745
15096SOL    HW147127  14.663  14.327   9.711
15096SOL    HW247128  14.756  14.266   9.814
15097SOL     OW47129   7.979  10.171  13.757
15097SOL    HW147130   8.062  10.218  13.759
15097SOL    HW247131   7.977  10.122  13.839
15098SOL     OW47132   6.390   1.012   0.808
15098SOL    HW147133   6.345   0.969   0.881
15098SOL    HW247134   6.476   0.971   0.806
15099SOL     OW47135   8.270  14.119   1.925
15099SOL    HW147136   8.360  14.093   1.943
15099SOL    HW247137   8.263  14.121   1.830
15100SOL     OW47138   2.842  13.821   3.862
15100SOL    HW147139   2.909  13.825   3.930
15100SOL    HW247140   2.813  13.730   3.861
15101SOL     OW47141  12.352   0.488   5.101
15101SOL    HW147142  12.445   0.469   5.086
15101SOL    HW247143  12.316   0.499   5.013
15102SOL     OW47144  12.246  11.307  14.084
15102SOL    HW147145  12.189  11.368  14.131
15102SOL    HW247146  12.207  11.300  13.996
15103SOL     OW47147  10.089  12.147   5.262
15103SOL    HW147148  10.017  12.161   5.324
15103SOL    HW247149  10.158  12.206   5.292
15104SOL     OW47150  11.348   8.587   0.355
15104SOL    HW147151  11.347   8.608   0.261
15104SOL    HW247152  11.397   8.504   0.360
15105SOL     OW47153   2.269   8.709   8.720
15105SOL    HW147154   2.182   8.680   8.693
15105SOL    HW247155   2.330   8.649   8.677
15106SOL     OW47156   9.348   4.718   0.995
15106SOL    HW147157   9.355   4.675   1.080
15106SOL    HW247158   9.269   4.772   1.002
15107SOL     OW47159   2.118  14.087   3.034
15107SOL    HW147160   2.195  14.102   3.088
15107SOL    HW247161   2.044  14.112   3.089
15108SOL     OW47162   9.763   9.324   2.462
15108SOL    HW147163   9.792   9.275   2.539
15108SOL    HW247164   9.714   9.398   2.498
15109SOL     OW47165   5.234   0.031   0.885
15109SOL    HW147166   5.152  14.864   0.867
15109SOL    HW247167   5.235   0.104   0.823
15110SOL     OW47168   1.429   0.682  11.260
15110SOL    HW147169   1.492   0.615  11.285
15110SOL    HW247170   1.468   0.727  11.186
15111SOL     OW47171  14.358   2.153  12.708
15111SOL    HW147172  14.405   2.148  12.625
15111SOL    HW247173  14.338   2.246  12.718
15112SOL     OW47174   1.177   7.245  13.047
15112SOL    HW147175   1.215   7.332  13.058
15112SOL    HW247176   1.124   7.252  12.967
15113SOL     OW47177   6.191   0.481  13.554
15113SOL    HW147178   6.192   0.564  13.602
15113SOL    HW247179   6.192   0.414  13.623
15114SOL     OW47180   5.685  13.520  11.275
15114SOL    HW147181   5.631  13.442  11.260
15114SOL    HW247182   5.654  13.583  11.211
15115SOL     OW47183  13.150  14.081   2.111
15115SOL    HW147184  13.124  14.168   2.081
15115SOL    HW247185  13.072  14.027   2.098
15116SOL     OW47186   2.199  10.669   4.405
15116SOL    HW147187   2.104  10.681   4.408
15116SOL    HW247188   2.212  10.597   4.343
15117SOL     OW47189   8.956   0.457  12.961
15117SOL    HW147190   8.865   0.447  12.935
15117SOL    HW247191   8.952   0.495  13.049
15118SOL     OW47192   5.924   7.841   1.848
15118SOL    HW147193   5.913   7.755   1.809
15118SOL    HW247194   5.932   7.901   1.773
15119SOL     OW47195   9.097  10.945  14.593
15119SOL    HW147196   9.186  10.911  14.593
15119SOL    HW247197   9.044  10.873  14.628
15120SOL     OW47198   4.029   7.465   3.684
15120SOL    HW147199   4.026   7.452   3.779
15120SOL    HW247200   4.009   7.557   3.671
15121SOL     OW47201   3.575   0.748  13.109
15121SOL    HW147202   3.496   0.803  13.106
15121SOL    HW247203   3.554   0.672  13.055
15122SOL     OW47204  10.500   8.863   1.369
15122SOL    HW147205  10.539   8.790   1.320
15122SOL    HW247206  10.571   8.896   1.424
15123SOL     OW47207   9.729  12.021   5.233
15123SOL    HW147208   9.763  12.085   5.171
15123SOL    HW247209   9.799  11.956   5.241
15124SOL     OW47210  13.918   0.599   2.071
15124SOL    HW147211  13.910   0.576   2.164
15124SOL    HW247212  14.011   0.584   2.051
15125SOL     OW47213  10.611   3.197   9.008
15125SOL    HW147214  10.647   3.279   8.974
15125SOL    HW247215  10.517   3.212   9.012
15126SOL     OW47216   9.084   5.702   2.365
15126SOL    HW147217   9.029   5.736   2.436
15126SOL    HW247218   9.059   5.610   2.357
15127SOL     OW47219   1.329   8.615   9.954
15127SOL    HW147220   1.353   8.654  10.038
15127SOL    HW247221   1.392   8.545   9.941
15128SOL     OW47222   3.554  11.572   9.402
15128SOL    HW147223   3.563  11.555   9.496
15128SOL    HW247224   3.637  11.544   9.365
15129SOL     OW47225   1.764  14.222   6.670
15129SOL    HW147226   1.677  14.183   6.673
15129SOL    HW247227   1.752  14.306   6.626
15130SOL     OW47228   8.557   3.440   8.040
15130SOL    HW147229   8.636   3.479   8.002
15130SOL    HW247230   8.584   3.353   8.068
15131SOL     OW47231   8.005  10.345   3.280
15131SOL    HW147232   8.029  10.274   3.341
15131SOL    HW247233   7.940  10.306   3.222
15132SOL     OW47234   4.353  11.926  13.728
15132SOL    HW147235   4.426  11.970  13.772
15132SOL    HW247236   4.297  11.896  13.800
15133SOL     OW47237   8.098   4.047   8.660
15133SOL    HW147238   8.105   4.030   8.566
15133SOL    HW247239   8.182   4.018   8.696
15134SOL     OW47240   8.372   7.723   1.829
15134SOL    HW147241   8.370   7.812   1.867
15134SOL    HW247242   8.325   7.669   1.893
15135SOL     OW47243   5.619   6.589   5.015
15135SOL    HW147244   5.537   6.546   4.993
15135SOL    HW247245   5.601   6.637   5.096
15136SOL     OW47246  13.462   2.483  13.579
15136SOL    HW147247  13.549   2.498  13.541
15136SOL    HW247248  13.477   2.418  13.648
15137SOL     OW47249   5.605   2.457   5.475
15137SOL    HW147250   5.652   2.536   5.501
15137SOL    HW247251   5.588   2.411   5.557
15138SOL     OW47252   6.369  14.728   2.612
15138SOL    HW147253   6.329  14.670   2.676
15138SOL    HW247254   6.458  14.741   2.644
15139SOL     OW47255  14.248  14.415  10.232
15139SOL    HW147256  14.184  14.369  10.286
15139SOL    HW247257  14.293  14.345  10.184
15140SOL     OW47258   2.475  11.187   1.996
15140SOL    HW147259   2.418  11.158   2.067
15140SOL    HW247260   2.416  11.232   1.935
15141SOL     OW47261   6.699  10.500   2.045
15141SOL    HW147262   6.694  10.538   2.132
15141SOL    HW247263   6.620  10.446   2.038
15142SOL     OW47264   8.227  13.394   5.487
15142SOL    HW147265   8.246  13.417   5.396
15142SOL    HW247266   8.227  13.298   5.488
15143SOL     OW47267   3.680   7.126   7.927
15143SOL    HW147268   3.590   7.157   7.917
15143SOL    HW247269   3.733   7.188   7.878
15144SOL     OW47270  12.104   9.574   9.419
15144SOL    HW147271  12.037   9.570   9.488
15144SOL    HW247272  12.073   9.512   9.353
15145SOL     OW47273   5.361   9.760   5.421
15145SOL    HW147274   5.454   9.738   5.413
15145SOL    HW247275   5.345   9.765   5.515
15146SOL     OW47276   9.932   8.887  14.587
15146SOL    HW147277   9.887   8.844  14.659
15146SOL    HW247278  10.006   8.932  14.627
15147SOL     OW47279  14.088   4.657   9.031
15147SOL    HW147280  13.995   4.675   9.047
15147SOL    HW247281  14.088   4.580   8.975
15148SOL     OW47282   5.200   2.866   8.065
15148SOL    HW147283   5.190   2.922   7.988
15148SOL    HW247284   5.157   2.915   8.135
15149SOL     OW47285  12.661   8.568  11.636
15149SOL    HW147286  12.579   8.596  11.596
15149SOL    HW247287  12.729   8.594  11.574
15150SOL     OW47288   8.563  12.413  12.599
15150SOL    HW147289   8.656  12.415  12.618
15150SOL    HW247290   8.557  12.434  12.506
15151SOL     OW47291  11.924   6.858   3.402
15151SOL    HW147292  11.972   6.923   3.352
15151SOL    HW247293  11.836   6.859   3.366
15152SOL     OW47294   1.576   1.781   3.990
15152SOL    HW147295   1.607   1.857   4.038
15152SOL    HW247296   1.655   1.736   3.961
15153SOL     OW47297  13.768   0.214   4.066
15153SOL    HW147298  13.715   0.283   4.106
15153SOL    HW247299  13.741   0.211   3.975
15154SOL     OW47300  11.146  10.971   5.361
15154SOL    HW147301  11.206  10.927   5.301
15154SOL    HW247302  11.202  11.007   5.429
15155SOL     OW47303   0.029  13.630   0.082
15155SOL    HW147304  14.820  13.613   0.115
15155SOL    HW247305   0.050  13.718   0.111
15156SOL     OW47306  11.069   7.405   3.823
15156SOL    HW147307  10.980   7.418   3.789
15156SOL    HW247308  11.126   7.420   3.747
15157SOL     OW47309  14.037   2.110   3.273
15157SOL    HW147310  14.040   2.163   3.353
15157SOL    HW247311  13.994   2.167   3.209
15158SOL     OW47312   0.864   4.078  10.585
15158SOL    HW147313   0.893   4.126  10.663
15158SOL    HW247314   0.868   3.986  10.610
15159SOL     OW47315   9.578   6.208   4.563
15159SOL    HW147316   9.524   6.244   4.492
15159SOL    HW247317   9.631   6.141   4.521
15160SOL     OW47318   5.419  12.196   2.096
15160SOL    HW147319   5.334  12.159   2.072
15160SOL    HW247320   5.432  12.267   2.033
15161SOL     OW47321  14.144   1.168   7.570
15161SOL    HW147322  14.231   1.195   7.538
15161SOL    HW247323  14.106   1.249   7.604
15162SOL     OW47324   6.579   5.754   1.590
15162SOL    HW147325   6.508   5.817   1.580
15162SOL    HW247326   6.562   5.686   1.525
15163SOL     OW47327   7.000   5.101   8.818
15163SOL    HW147328   7.020   5.104   8.724
15163SOL    HW247329   6.930   5.035   8.825
15164SOL     OW47330   2.244   1.909   9.763
15164SOL    HW147331   2.292   1.912   9.680
15164SOL    HW247332   2.302   1.950   9.827
15165SOL     OW47333  11.412   1.432  11.672
15165SOL    HW147334  11.372   1.518  11.676
15165SOL    HW247335  11.482   1.440  11.607
15166SOL     OW47336  13.107   3.894  13.807
15166SOL    HW147337  13.104   3.825  13.873
15166SOL    HW247338  13.198   3.898  13.780
15167SOL     OW47339  14.810   0.595   5.348
15167SOL    HW147340  14.872   0.527   5.323
15167SOL    HW247341  14.858   0.649   5.411
15168SOL     OW47342   1.484  13.213   2.812
15168SOL    HW147343   1.477  13.254   2.898
15168SOL    HW247344   1.573  13.232   2.783
15169SOL     OW47345   6.608   9.350  10.469
15169SOL    HW147346   6.676   9.327  10.405
15169SOL    HW247347   6.526   9.338  10.422
15170SOL     OW47348   9.593   2.092  10.471
15170SOL    HW147349   9.652   2.043  10.530
15170SOL    HW247350   9.548   2.024  10.421
15171SOL     OW47351   1.689   0.221   2.283
15171SOL    HW147352   1.600   0.255   2.287
15171SOL    HW247353   1.736   0.282   2.226
15172SOL     OW47354  13.999   5.646  14.140
15172SOL    HW147355  13.960   5.675  14.222
15172SOL    HW247356  13.953   5.565  14.118
15173SOL     OW47357   3.254  11.199  12.157
15173SOL    HW147358   3.198  11.124  12.137
15173SOL    HW247359   3.209  11.244  12.229
15174SOL     OW47360   8.522  10.889   9.867
15174SOL    HW147361   8.616  10.883   9.886
15174SOL    HW247362   8.490  10.800   9.877
15175SOL     OW47363   8.386   2.691  11.214
15175SOL    HW147364   8.478   2.664  11.219
15175SOL    HW247365   8.340   2.632  11.274
15176SOL     OW47366  13.704   2.273   8.140
15176SOL    HW147367  13.696   2.345   8.201
15176SOL    HW247368  13.706   2.194   8.195
15177SOL     OW47369   5.115   7.152   3.647
15177SOL    HW147370   5.031   7.194   3.667
15177SOL    HW247371   5.176   7.225   3.636
15178SOL     OW47372  13.078   0.022   8.039
15178SOL    HW147373  13.142  14.832   8.049
15178SOL    HW247374  13.032   0.025   8.123
15179SOL     OW47375  10.777   2.460   9.061
15179SOL    HW147376  10.783   2.480   8.967
15179SOL    HW247377  10.779   2.546   9.103
15180SOL     OW47378  10.019   1.140  11.174
15180SOL    HW147379   9.967   1.216  11.148
15180SOL    HW247380  10.092   1.138  11.112
15181SOL     OW47381   5.139  13.326   1.474
15181SOL    HW147382   5.178  13.392   1.416
15181SOL    HW247383   5.201  13.320   1.547
15182SOL     OW47384   5.795   5.846   8.658
15182SOL    HW147385   5.839   5.920   8.701
15182SOL    HW247386   5.766   5.881   8.574
15183SOL     OW47387  12.242   1.907   8.967
15183SOL    HW147388  12.181   1.839   8.994
15183SOL    HW247389  12.325   1.883   9.009
15184SOL     OW47390  14.296   5.460  12.682
15184SOL    HW147391  14.372   5.519  12.683
15184SOL    HW247392  14.330   5.379  12.644
15185SOL     OW47393   0.947   7.023  11.348
15185SOL    HW147394   0.939   6.939  11.305
15185SOL    HW247395   1.031   7.058  11.317
15186SOL     OW47396   3.235   8.632   9.747
15186SOL    HW147397   3.224   8.682   9.828
15186SOL    HW247398   3.315   8.582   9.761
15187SOL     OW47399   2.209  11.042  11.187
15187SOL    HW147400   2.141  11.102  11.217
15187SOL    HW247401   2.269  11.035  11.261
15188SOL     OW47402  13.086  12.754   3.029
15188SOL    HW147403  13.018  12.747   3.096
15188SOL    HW247404  13.156  12.697   3.060
15189SOL     OW47405   6.541   4.210   8.633
15189SOL    HW147406   6.631   4.177   8.629
15189SOL    HW247407   6.539   4.264   8.712
15190SOL     OW47408   5.239   2.356   5.064
15190SOL    HW147409   5.176   2.300   5.020
15190SOL    HW247410   5.259   2.311   5.146
15191SOL     OW47411   9.315  14.856  13.523
15191SOL    HW147412   9.294  14.818  13.608
15191SOL    HW247413   9.391  14.805  13.493
15192SOL     OW47414  10.502   0.096   7.402
15192SOL    HW147415  10.428   0.059   7.353
15192SOL    HW247416  10.561   0.021   7.415
15193SOL     OW47417  10.038   5.074  12.204
15193SOL    HW147418  10.077   5.088  12.291
15193SOL    HW247419  10.100   5.113  12.143
15194SOL     OW47420   2.362  11.914   8.265
15194SOL    HW147421   2.322  11.987   8.312
15194SOL    HW247422   2.338  11.836   8.316
15195SOL     OW47423  10.765  13.436   8.444
15195SOL    HW147424  10.825  13.416   8.515
15195SOL    HW247425  10.721  13.516   8.472
15196SOL     OW47426   4.589   8.334   2.925
15196SOL    HW147427   4.596   8.242   2.947
15196SOL    HW247428   4.641   8.379   2.992
15197SOL     OW47429  13.552   2.116   2.349
15197SOL    HW147430  13.592   2.130   2.435
15197SOL    HW247431  13.599   2.040   2.314
15198SOL     OW47432   1.161   5.601   7.508
15198SOL    HW147433   1.206   5.537   7.453
15198SOL    HW247434   1.097   5.550   7.558
15199SOL     OW47435  10.331  10.500   2.683
15199SOL    HW147436  10.394  10.429   2.677
15199SOL    HW247437  10.371  10.562   2.744
15200SOL     OW47438   2.193  12.096  12.340
15200SOL    HW147439   2.273  12.112  12.390
15200SOL    HW247440   2.222  12.046  12.264
15201SOL     OW47441   2.377   0.954  13.739
15201SOL    HW147442   2.367   0.875  13.686
15201SOL    HW247443   2.453   0.937  13.794
15202SOL     OW47444  10.474   9.302   9.769
15202SOL    HW147445  10.455   9.217   9.809
15202SOL    HW247446  10.405   9.359   9.802
15203SOL     OW47447   5.181   3.194   3.122
15203SOL    HW147448   5.258   3.231   3.078
15203SOL    HW247449   5.162   3.255   3.192
15204SOL     OW47450  10.660   0.829   4.722
15204SOL    HW147451  10.746   0.787   4.718
15204SOL    HW247452  10.598   0.756   4.723
15205SOL     OW47453   9.126  10.748   2.790
15205SOL    HW147454   9.101  10.684   2.857
15205SOL    HW247455   9.082  10.829   2.816
15206SOL     OW47456   7.847   1.504   0.023
15206SOL    HW147457   7.894   1.571   0.072
15206SOL    HW247458   7.870   1.421   0.065
15207SOL     OW47459   4.411   1.943   4.122
15207SOL    HW147460   4.438   1.882   4.053
15207SOL    HW247461   4.358   2.009   4.076
15208SOL     OW47462   7.044   8.466   9.053
15208SOL    HW147463   7.066   8.405   9.123
15208SOL    HW247464   7.039   8.551   9.097
15209SOL     OW47465   6.620  14.699  14.502
15209SOL    HW147466   6.672  14.624  14.474
15209SOL    HW247467   6.654  14.772  14.451
15210SOL     OW47468   5.427   7.563  13.844
15210SOL    HW147469   5.436   7.468  13.845
15210SOL    HW247470   5.334   7.578  13.861
15211SOL     OW47471  10.864  13.205   0.725
15211SOL    HW147472  10.768  13.212   0.720
15211SOL    HW247473  10.892  13.204   0.633
15212SOL     OW47474   9.605   6.052  10.549
15212SOL    HW147475   9.570   5.981  10.602
15212SOL    HW247476   9.554   6.048  10.468
15213SOL     OW47477  13.610   5.201  12.235
15213SOL    HW147478  13.631   5.157  12.317
15213SOL    HW247479  13.693   5.238  12.205
15214SOL     OW47480   1.887   0.475   2.384
15214SOL    HW147481   1.817   0.540   2.394
15214SOL    HW247482   1.866   0.429   2.303
15215SOL     OW47483   0.759   5.511   0.425
15215SOL    HW147484   0.680   5.477   0.467
15215SOL    HW247485   0.765   5.462   0.342
15216SOL     OW47486   4.095   7.607  14.387
15216SOL    HW147487   4.172   7.596  14.331
15216SOL    HW247488   4.112   7.688  14.435
15217SOL     OW47489   7.357   6.088   1.128
15217SOL    HW147490   7.411   6.166   1.137
15217SOL    HW247491   7.413   6.025   1.084
15218SOL     OW47492  14.023   8.578   4.995
15218SOL    HW147493  13.960   8.632   4.946
15218SOL    HW247494  13.971   8.537   5.064
15219SOL     OW47495   9.248   5.362   0.718
15219SOL    HW147496   9.202   5.408   0.788
15219SOL    HW247497   9.287   5.286   0.760
15220SOL     OW47498  11.649   8.126   4.033
15220SOL    HW147499  11.710   8.125   3.959
15220SOL    HW247500  11.594   8.203   4.019
15221SOL     OW47501   1.223   3.525  14.211
15221SOL    HW147502   1.293   3.468  14.180
15221SOL    HW247503   1.187   3.564  14.131
15222SOL     OW47504  13.023   8.057   7.938
15222SOL    HW147505  13.024   7.986   8.002
15222SOL    HW247506  12.996   8.134   7.988
15223SOL     OW47507   7.089  12.444   1.558
15223SOL    HW147508   7.169  12.473   1.601
15223SOL    HW247509   7.043  12.394   1.624
15224SOL     OW47510   9.104   5.076   8.599
15224SOL    HW147511   9.195   5.104   8.613
15224SOL    HW247512   9.063   5.152   8.557
15225SOL     OW47513   8.240  12.152   1.682
15225SOL    HW147514   8.184  12.164   1.758
15225SOL    HW247515   8.181  12.125   1.612
15226SOL     OW47516   3.226  12.357   0.552
15226SOL    HW147517   3.135  12.388   0.555
15226SOL    HW247518   3.278  12.436   0.545
15227SOL     OW47519  14.768   3.077  12.401
15227SOL    HW147520  14.721   3.152  12.365
15227SOL    HW247521  14.704   3.032  12.456
15228SOL     OW47522   6.729   0.650  14.062
15228SOL    HW147523   6.764   0.738  14.050
15228SOL    HW247524   6.688   0.629  13.978
15229SOL     OW47525   1.214   8.384  11.051
15229SOL    HW147526   1.290   8.442  11.048
15229SOL    HW247527   1.204   8.354  10.961
15230SOL     OW47528   3.972   0.361   1.327
15230SOL    HW147529   3.991   0.383   1.418
15230SOL    HW247530   4.057   0.361   1.284
15231SOL     OW47531   0.018  10.933   6.320
15231SOL    HW147532  14.829  10.996   6.341
15231SOL    HW247533   0.086  10.985   6.277
15232SOL     OW47534   3.600  12.913   0.952
15232SOL    HW147535   3.618  12.829   0.993
15232SOL    HW247536   3.621  12.900   0.860
15233SOL     OW47537   7.923   5.499   9.061
15233SOL    HW147538   7.962   5.425   9.107
15233SOL    HW247539   7.899   5.560   9.130
15234SOL     OW47540   9.893  13.565  10.339
15234SOL    HW147541   9.830  13.524  10.398
15234SOL    HW247542   9.918  13.646  10.383
15235SOL     OW47543   1.082  12.207  10.276
15235SOL    HW147544   1.139  12.165  10.341
15235SOL    HW247545   1.131  12.201  10.194
15236SOL     OW47546   2.652   8.124  12.129
15236SOL    HW147547   2.577   8.068  12.110
15236SOL    HW247548   2.719   8.064  12.160
15237SOL     OW47549   3.491   6.275   5.739
15237SOL    HW147550   3.451   6.358   5.713
15237SOL    HW247551   3.559   6.260   5.672
15238SOL     OW47552  12.747   5.099  10.410
15238SOL    HW147553  12.680   5.034  10.388
15238SOL    HW247554  12.756   5.153  10.331
15239SOL     OW47555   3.473  11.996   6.691
15239SOL    HW147556   3.528  12.060   6.736
15239SOL    HW247557   3.531  11.922   6.675
15240SOL     OW47558   8.760   9.374  11.969
15240SOL    HW147559   8.778   9.335  11.883
15240SOL    HW247560   8.814   9.324  12.030
15241SOL     OW47561   0.284  13.801   7.787
15241SOL    HW147562   0.303  13.871   7.850
15241SOL    HW247563   0.191  13.781   7.802
15242SOL     OW47564   2.560   2.318   0.618
15242SOL    HW147565   2.588   2.377   0.549
15242SOL    HW247566   2.639   2.302   0.670
15243SOL     OW47567  11.027   3.075   3.088
15243SOL    HW147568  11.093   3.140   3.110
15243SOL    HW247569  10.958   3.088   3.152
15244SOL     OW47570   1.172  12.152   1.709
15244SOL    HW147571   1.086  12.193   1.715
15244SOL    HW247572   1.160  12.080   1.647
15245SOL     OW47573   2.669   0.442   0.750
15245SOL    HW147574   2.646   0.416   0.661
15245SOL    HW247575   2.586   0.445   0.796
15246SOL     OW47576   9.318   8.924   9.374
15246SOL    HW147577   9.399   8.951   9.417
15246SOL    HW247578   9.312   8.830   9.390
15247SOL     OW47579  13.076   9.817  13.507
15247SOL    HW147580  13.171   9.830  13.513
15247SOL    HW247581  13.053   9.846  13.418
15248SOL     OW47582   6.340  10.416  11.660
15248SOL    HW147583   6.432  10.395  11.672
15248SOL    HW247584   6.339  10.509  11.636
15249SOL     OW47585  11.975  13.024   1.749
15249SOL    HW147586  12.068  13.038   1.732
15249SOL    HW247587  11.973  12.960   1.820
15250SOL     OW47588  10.300   1.258   4.876
15250SOL    HW147589  10.305   1.243   4.781
15250SOL    HW247590  10.207   1.271   4.894
15251SOL     OW47591   7.575   4.491   1.373
15251SOL    HW147592   7.643   4.483   1.439
15251SOL    HW247593   7.496   4.514   1.422
15252SOL     OW47594  10.465   6.656  13.397
15252SOL    HW147595  10.470   6.619  13.309
15252SOL    HW247596  10.553   6.689  13.415
15253SOL     OW47597   9.474   2.153   7.829
15253SOL    HW147598   9.419   2.195   7.763
15253SOL    HW247599   9.486   2.063   7.797
15254SOL     OW47600   4.461   2.318  14.816
15254SOL    HW147601   4.555   2.337  14.817
15254SOL    HW247602   4.434   2.322   0.028
15255SOL     OW47603   9.852  12.996  12.307
15255SOL    HW147604   9.773  12.942  12.299
15255SOL    HW247605   9.897  12.985  12.223
15256SOL     OW47606  14.564   0.673   5.631
15256SOL    HW147607  14.524   0.693   5.547
15256SOL    HW247608  14.605   0.755   5.658
15257SOL     OW47609   5.344   5.713   0.131
15257SOL    HW147610   5.264   5.760   0.155
15257SOL    HW247611   5.321   5.620   0.140
15258SOL     OW47612   1.936   6.302  10.597
15258SOL    HW147613   1.916   6.292  10.690
15258SOL    HW247614   1.873   6.245  10.552
15259SOL     OW47615   1.361  13.551   8.983
15259SOL    HW147616   1.437  13.497   9.002
15259SOL    HW247617   1.352  13.549   8.888
15260SOL     OW47618  13.836   5.191   0.720
15260SOL    HW147619  13.782   5.270   0.727
15260SOL    HW247620  13.864   5.174   0.810
15261SOL     OW47621  12.078   4.090   5.640
15261SOL    HW147622  12.094   4.184   5.651
15261SOL    HW247623  12.162   4.055   5.610
15262SOL     OW47624  13.462   7.973  14.848
15262SOL    HW147625  13.510   7.960   0.051
15262SOL    HW247626  13.432   7.885  14.824
15263SOL     OW47627   2.458   0.204   7.088
15263SOL    HW147628   2.512   0.129   7.062
15263SOL    HW247629   2.389   0.167   7.143
15264SOL     OW47630   7.619   3.004   4.235
15264SOL    HW147631   7.653   3.070   4.296
15264SOL    HW247632   7.595   3.054   4.157
15265SOL     OW47633   0.138   4.307  12.235
15265SOL    HW147634   0.113   4.260  12.315
15265SOL    HW247635   0.104   4.395  12.248
15266SOL     OW47636   6.109   2.228   5.916
15266SOL    HW147637   6.060   2.310   5.918
15266SOL    HW247638   6.129   2.209   6.008
15267SOL     OW47639   0.127   9.807  10.854
15267SOL    HW147640   0.091   9.826  10.768
15267SOL    HW247641   0.180   9.884  10.876
15268SOL     OW47642  10.994   2.022  12.275
15268SOL    HW147643  10.917   1.970  12.300
15268SOL    HW247644  11.008   2.082  12.348
15269SOL     OW47645   1.511   3.989   6.078
15269SOL    HW147646   1.455   4.037   6.015
15269SOL    HW247647   1.527   3.905   6.036
15270SOL     OW47648   8.991  11.933   9.745
15270SOL    HW147649   8.953  11.873   9.809
15270SOL    HW247650   9.029  11.875   9.679
15271SOL     OW47651   6.392  12.545   7.327
15271SOL    HW147652   6.326  12.591   7.379
15271SOL    HW247653   6.408  12.464   7.374
15272SOL     OW47654   5.362  13.048  13.446
15272SOL    HW147655   5.338  13.079  13.358
15272SOL    HW247656   5.309  13.102  13.505
15273SOL     OW47657   2.376   2.268   8.800
15273SOL    HW147658   2.287   2.258   8.834
15273SOL    HW247659   2.419   2.185   8.821
15274SOL     OW47660   4.352   8.438   1.054
15274SOL    HW147661   4.420   8.372   1.047
15274SOL    HW247662   4.276   8.392   1.090
15275SOL     OW47663  12.758   6.070   7.458
15275SOL    HW147664  12.729   5.986   7.492
15275SOL    HW247665  12.783   6.052   7.367
15276SOL     OW47666   3.302   8.862   5.926
15276SOL    HW147667   3.377   8.921   5.924
15276SOL    HW247668   3.338   8.777   5.951
15277SOL     OW47669   5.623   6.859   3.118
15277SOL    HW147670   5.656   6.901   3.197
15277SOL    HW247671   5.652   6.915   3.046
15278SOL     OW47672  12.882  14.306   4.437
15278SOL    HW147673  12.873  14.222   4.392
15278SOL    HW247674  12.800  14.318   4.484
15279SOL     OW47675   7.548   1.438   7.158
15279SOL    HW147676   7.525   1.420   7.249
15279SOL    HW247677   7.465   1.432   7.111
15280SOL     OW47678  14.241  10.951   1.234
15280SOL    HW147679  14.194  11.029   1.264
15280SOL    HW247680  14.178  10.879   1.245
15281SOL     OW47681   7.655  14.339   9.981
15281SOL    HW147682   7.568  14.345  10.020
15281SOL    HW247683   7.698  14.421  10.007
15282SOL     OW47684  14.773  14.791  14.453
15282SOL    HW147685  14.793  14.698  14.440
15282SOL    HW247686  14.684  14.801  14.420
15283SOL     OW47687   2.251  12.940   0.674
15283SOL    HW147688   2.286  12.883   0.606
15283SOL    HW247689   2.305  12.923   0.750
15284SOL     OW47690   3.198   0.597   5.692
15284SOL    HW147691   3.145   0.519   5.711
15284SOL    HW247692   3.136   0.659   5.653
15285SOL     OW47693   7.145  14.658  10.032
15285SOL    HW147694   7.132  14.665  10.126
15285SOL    HW247695   7.169  14.566  10.018
15286SOL     OW47696  11.939   2.252   3.016
15286SOL    HW147697  12.018   2.264   2.962
15286SOL    HW247698  11.950   2.314   3.088
15287SOL     OW47699   5.379   0.869   0.430
15287SOL    HW147700   5.334   0.933   0.487
15287SOL    HW247701   5.459   0.914   0.403
15288SOL     OW47702  10.465  11.684   1.274
15288SOL    HW147703  10.397  11.625   1.307
15288SOL    HW247704  10.530  11.688   1.345
15289SOL     OW47705   5.709   8.544   3.084
15289SOL    HW147706   5.690   8.457   3.049
15289SOL    HW247707   5.644   8.601   3.043
15290SOL     OW47708  13.335  10.099   5.882
15290SOL    HW147709  13.332  10.130   5.791
15290SOL    HW247710  13.261  10.143   5.924
15291SOL     OW47711   4.517  12.450   4.686
15291SOL    HW147712   4.512  12.434   4.781
15291SOL    HW247713   4.524  12.545   4.678
15292SOL     OW47714   4.726   1.075   4.826
15292SOL    HW147715   4.690   1.042   4.744
15292SOL    HW247716   4.821   1.060   4.819
15293SOL     OW47717  11.117   0.426   0.719
15293SOL    HW147718  11.042   0.419   0.778
15293SOL    HW247719  11.169   0.347   0.736
15294SOL     OW47720  12.570   7.402   0.181
15294SOL    HW147721  12.540   7.325   0.228
15294SOL    HW247722  12.500   7.421   0.119
15295SOL     OW47723   1.644  13.915   0.608
15295SOL    HW147724   1.575  13.954   0.661
15295SOL    HW247725   1.625  13.821   0.609
15296SOL     OW47726   5.603   0.339   2.098
15296SOL    HW147727   5.633   0.421   2.058
15296SOL    HW247728   5.681   0.284   2.102
15297SOL     OW47729  13.816   9.820   1.702
15297SOL    HW147730  13.729   9.820   1.742
15297SOL    HW247731  13.833   9.728   1.682
15298SOL     OW47732  11.712   8.791   1.121
15298SOL    HW147733  11.754   8.795   1.207
15298SOL    HW247734  11.623   8.762   1.140
15299SOL     OW47735   7.507  11.854   5.002
15299SOL    HW147736   7.447  11.819   5.067
15299SOL    HW247737   7.478  11.815   4.919
15300SOL     OW47738  11.363  13.912   6.755
15300SOL    HW147739  11.282  13.919   6.805
15300SOL    HW247740  11.405  13.998   6.766
15301SOL     OW47741  12.945   2.444  10.958
15301SOL    HW147742  12.975   2.369  11.009
15301SOL    HW247743  12.920   2.407  10.874
15302SOL     OW47744   2.924   7.869  12.793
15302SOL    HW147745   2.915   7.931  12.865
15302SOL    HW247746   3.011   7.830  12.805
15303SOL     OW47747   2.533  13.245   1.058
15303SOL    HW147748   2.593  13.185   1.103
15303SOL    HW247749   2.590  13.312   1.021
15304SOL     OW47750   5.370   8.266  10.191
15304SOL    HW147751   5.353   8.202  10.260
15304SOL    HW247752   5.465   8.277  10.192
15305SOL     OW47753  10.348   3.291  11.804
15305SOL    HW147754  10.369   3.199  11.816
15305SOL    HW247755  10.356   3.329  11.891
15306SOL     OW47756  12.932   4.926   0.299
15306SOL    HW147757  12.912   4.885   0.383
15306SOL    HW247758  13.028   4.924   0.294
15307SOL     OW47759   2.959  13.312  11.742
15307SOL    HW147760   3.019  13.268  11.802
15307SOL    HW247761   2.899  13.243  11.713
15308SOL     OW47762   8.792   6.841   5.781
15308SOL    HW147763   8.779   6.917   5.839
15308SOL    HW247764   8.849   6.783   5.831
15309SOL     OW47765   4.695  14.022   3.832
15309SOL    HW147766   4.702  14.054   3.922
15309SOL    HW247767   4.624  13.958   3.834
15310SOL     OW47768  13.617   6.399   9.732
15310SOL    HW147769  13.636   6.307   9.713
15310SOL    HW247770  13.573   6.397   9.817
15311SOL     OW47771   9.752  12.114   1.692
15311SOL    HW147772   9.768  12.080   1.779
15311SOL    HW247773   9.743  12.037   1.636
15312SOL     OW47774   9.152   2.295   3.031
15312SOL    HW147775   9.091   2.362   3.060
15312SOL    HW247776   9.206   2.277   3.108
15313SOL     OW47777   4.986   4.680   2.400
15313SOL    HW147778   4.914   4.618   2.394
15313SOL    HW247779   4.947   4.765   2.379
15314SOL     OW47780   3.902   9.500  10.792
15314SOL    HW147781   3.882   9.549  10.872
15314SOL    HW247782   3.826   9.514  10.735
15315SOL     OW47783  12.347   9.233  13.279
15315SOL    HW147784  12.262   9.257  13.316
15315SOL    HW247785  12.387   9.317  13.255
15316SOL     OW47786  13.250  10.849   5.971
15316SOL    HW147787  13.331  10.800   5.989
15316SOL    HW247788  13.187  10.781   5.945
15317SOL     OW47789   6.502   3.345   8.365
15317SOL    HW147790   6.493   3.380   8.277
15317SOL    HW247791   6.595   3.354   8.386
15318SOL     OW47792   4.044  10.318  12.452
15318SOL    HW147793   4.027  10.244  12.394
15318SOL    HW247794   4.121  10.361  12.415
15319SOL     OW47795  10.484   1.883   6.959
15319SOL    HW147796  10.464   1.893   6.866
15319SOL    HW247797  10.562   1.828   6.961
15320SOL     OW47798   9.483   5.579   7.004
15320SOL    HW147799   9.487   5.675   7.001
15320SOL    HW247800   9.460   5.554   6.915
15321SOL     OW47801   3.826   1.076   6.517
15321SOL    HW147802   3.889   1.067   6.589
15321SOL    HW247803   3.767   1.001   6.529
15322SOL     OW47804  14.746   5.911   6.092
15322SOL    HW147805  14.741   5.828   6.044
15322SOL    HW247806  14.761   5.885   6.183
15323SOL     OW47807   1.208  10.610   3.871
15323SOL    HW147808   1.303  10.618   3.870
15323SOL    HW247809   1.187  10.563   3.790
15324SOL     OW47810  11.898   9.004  13.608
15324SOL    HW147811  11.947   8.925  13.585
15324SOL    HW247812  11.927   9.027  13.696
15325SOL     OW47813   4.207   6.932  13.989
15325SOL    HW147814   4.286   6.877  13.984
15325SOL    HW247815   4.227   7.007  13.933
15326SOL     OW47816  10.973   3.511   4.339
15326SOL    HW147817  10.926   3.427   4.348
15326SOL    HW247818  10.959   3.554   4.424
15327SOL     OW47819   4.772  14.558   8.405
15327SOL    HW147820   4.719  14.605   8.341
15327SOL    HW247821   4.831  14.624   8.441
15328SOL     OW47822   0.046   7.541  12.750
15328SOL    HW147823   0.132   7.578  12.770
15328SOL    HW247824   0.065   7.466  12.694
15329SOL     OW47825   1.166  12.271   8.104
15329SOL    HW147826   1.143  12.344   8.047
15329SOL    HW247827   1.197  12.312   8.184
15330SOL     OW47828   0.490   8.836   9.147
15330SOL    HW147829   0.399   8.808   9.162
15330SOL    HW247830   0.523   8.859   9.233
15331SOL     OW47831  13.808  13.987   0.676
15331SOL    HW147832  13.719  14.019   0.692
15331SOL    HW247833  13.842  13.965   0.763
15332SOL     OW47834   8.856   7.954  14.770
15332SOL    HW147835   8.777   7.905  14.747
15332SOL    HW247836   8.850   8.035  14.720
15333SOL     OW47837   1.810  14.143   5.795
15333SOL    HW147838   1.878  14.078   5.781
15333SOL    HW247839   1.823  14.172   5.886
15334SOL     OW47840  12.939   9.327  12.479
15334SOL    HW147841  12.990   9.365  12.551
15334SOL    HW247842  13.000   9.268  12.435
15335SOL     OW47843   5.177   2.698   2.814
15335SOL    HW147844   5.161   2.637   2.886
15335SOL    HW247845   5.090   2.730   2.790
15336SOL     OW47846   2.699  10.398  14.272
15336SOL    HW147847   2.617  10.426  14.312
15336SOL    HW247848   2.672  10.346  14.195
15337SOL     OW47849   9.599   2.837   2.983
15337SOL    HW147850   9.532   2.770   2.972
15337SOL    HW247851   9.576   2.904   2.919
15338SOL     OW47852  10.326   5.033   0.733
15338SOL    HW147853  10.368   5.026   0.647
15338SOL    HW247854  10.278   5.115   0.730
15339SOL     OW47855   6.222  11.032   2.441
15339SOL    HW147856   6.196  10.980   2.366
15339SOL    HW247857   6.208  11.123   2.413
15340SOL     OW47858   3.062   4.914   7.076
15340SOL    HW147859   3.100   4.985   7.129
15340SOL    HW247860   3.116   4.911   6.997
15341SOL     OW47861   6.385   1.872   9.669
15341SOL    HW147862   6.445   1.902   9.737
15341SOL    HW247863   6.415   1.919   9.590
15342SOL     OW47864   5.617  10.717   2.081
15342SOL    HW147865   5.591  10.649   2.019
15342SOL    HW247866   5.712  10.718   2.077
15343SOL     OW47867   0.582   7.862   3.592
15343SOL    HW147868   0.630   7.844   3.673
15343SOL    HW247869   0.647   7.854   3.523
15344SOL     OW47870  13.086  12.691   1.147
15344SOL    HW147871  13.016  12.628   1.166
15344SOL    HW247872  13.070  12.763   1.208
15345SOL     OW47873   2.604   3.521   5.896
15345SOL    HW147874   2.512   3.512   5.923
15345SOL    HW247875   2.634   3.431   5.882
15346SOL     OW47876   5.798  13.241   6.044
15346SOL    HW147877   5.728  13.184   6.013
15346SOL    HW247878   5.780  13.326   6.005
15347SOL     OW47879  12.500   2.069   9.664
15347SOL    HW147880  12.413   2.108   9.669
15347SOL    HW247881  12.506   2.033   9.576
15348SOL     OW47882   8.212  11.148  13.859
15348SOL    HW147883   8.177  11.200  13.787
15348SOL    HW247884   8.200  11.058  13.832
15349SOL     OW47885  12.610  13.407  11.711
15349SOL    HW147886  12.656  13.401  11.626
15349SOL    HW247887  12.517  13.401  11.688
15350SOL     OW47888   0.502   3.828  10.112
15350SOL    HW147889   0.597   3.840  10.117
15350SOL    HW247890   0.467   3.914  10.090
15351SOL     OW47891   0.050   5.955   8.696
15351SOL    HW147892   0.062   5.871   8.651
15351SOL    HW247893  14.834   5.967   8.701
15352SOL     OW47894   9.162  10.236   0.173
15352SOL    HW147895   9.132  10.301   0.109
15352SOL    HW247896   9.202  10.166   0.121
15353SOL     OW47897  12.672   4.948   8.535
15353SOL    HW147898  12.614   4.973   8.607
15353SOL    HW247899  12.652   5.011   8.466
15354SOL     OW47900   5.496   8.212   4.905
15354SOL    HW147901   5.456   8.188   4.822
15354SOL    HW247902   5.521   8.129   4.945
15355SOL     OW47903   0.122  11.948  10.777
15355SOL    HW147904   0.077  12.004  10.840
15355SOL    HW247905   0.186  12.006  10.736
15356SOL     OW47906   7.746   3.051   5.765
15356SOL    HW147907   7.725   2.958   5.757
15356SOL    HW247908   7.782   3.075   5.680
15357SOL     OW47909   9.518   2.609   9.619
15357SOL    HW147910   9.457   2.636   9.551
15357SOL    HW247911   9.463   2.575   9.689
15358SOL     OW47912   7.128   6.426   7.534
15358SOL    HW147913   7.180   6.356   7.493
15358SOL    HW247914   7.191   6.497   7.547
15359SOL     OW47915   1.636  12.517  10.146
15359SOL    HW147916   1.586  12.436  10.142
15359SOL    HW247917   1.724  12.492  10.115
15360SOL     OW47918  10.777  14.774   7.972
15360SOL    HW147919  10.738  14.739   7.892
15360SOL    HW247920  10.721  14.742   8.042
15361SOL     OW47921  14.649  12.484   2.017
15361SOL    HW147922  14.687  12.555   2.069
15361SOL    HW247923  14.696  12.405   2.045
15362SOL     OW47924   1.046   2.517   4.193
15362SOL    HW147925   1.072   2.530   4.284
15362SOL    HW247926   1.127   2.532   4.143
15363SOL     OW47927   2.280   1.355  12.032
15363SOL    HW147928   2.268   1.437  12.081
15363SOL    HW247929   2.267   1.381  11.940
15364SOL     OW47930   4.999   0.780  14.674
15364SOL    HW147931   5.090   0.751  14.683
15364SOL    HW247932   4.957   0.753  14.755
15365SOL     OW47933   6.131   9.388   6.515
15365SOL    HW147934   6.144   9.366   6.423
15365SOL    HW247935   6.202   9.343   6.562
15366SOL     OW47936  12.936   4.211   7.620
15366SOL    HW147937  13.009   4.207   7.559
15366SOL    HW247938  12.858   4.205   7.565
15367SOL     OW47939   1.246  13.999   6.341
15367SOL    HW147940   1.284  13.992   6.253
15367SOL    HW247941   1.322  14.008   6.398
15368SOL     OW47942   7.185   4.217   8.070
15368SOL    HW147943   7.192   4.138   8.015
15368SOL    HW247944   7.143   4.186   8.150
15369SOL     OW47945  11.458   0.971  11.808
15369SOL    HW147946  11.456   0.889  11.858
15369SOL    HW247947  11.367   0.990  11.789
15370SOL     OW47948  12.286   5.297  11.571
15370SOL    HW147949  12.218   5.248  11.526
15370SOL    HW247950  12.240   5.369  11.615
15371SOL     OW47951   2.643  13.840   0.384
15371SOL    HW147952   2.674  13.844   0.474
15371SOL    HW247953   2.712  13.881   0.332
15372SOL     OW47954   8.760  14.270   8.897
15372SOL    HW147955   8.698  14.206   8.864
15372SOL    HW247956   8.828  14.218   8.940
15373SOL     OW47957  12.152  10.648  12.747
15373SOL    HW147958  12.168  10.581  12.813
15373SOL    HW247959  12.060  10.671  12.757
15374SOL     OW47960   1.285   6.076  11.079
15374SOL    HW147961   1.240   5.992  11.074
15374SOL    HW247962   1.299   6.091  11.173
15375SOL     OW47963   7.635   6.630   7.723
15375SOL    HW147964   7.730   6.622   7.721
15375SOL    HW247965   7.604   6.541   7.740
15376SOL     OW47966   6.968   6.247   5.976
15376SOL    HW147967   6.912   6.172   5.956
15376SOL    HW247968   7.031   6.249   5.903
15377SOL     OW47969  10.035   3.339  11.822
15377SOL    HW147970  10.039   3.433  11.802
15377SOL    HW247971   9.946   3.313  11.799
15378SOL     OW47972   7.771  14.780   8.391
15378SOL    HW147973   7.854  14.824   8.374
15378SOL    HW247974   7.722  14.842   8.445
15379SOL     OW47975   6.393   7.230   7.165
15379SOL    HW147976   6.325   7.166   7.187
15379SOL    HW247977   6.389   7.294   7.236
15380SOL     OW47978   0.598   5.017  13.988
15380SOL    HW147979   0.510   4.981  13.976
15380SOL    HW247980   0.651   4.976  13.919
15381SOL     OW47981   4.186   3.767   5.166
15381SOL    HW147982   4.236   3.704   5.218
15381SOL    HW247983   4.099   3.727   5.157
15382SOL     OW47984   5.850   4.272   9.534
15382SOL    HW147985   5.842   4.258   9.440
15382SOL    HW247986   5.765   4.246   9.570
15383SOL     OW47987   7.442   6.084   4.993
15383SOL    HW147988   7.482   6.011   4.946
15383SOL    HW247989   7.516   6.142   5.013
15384SOL     OW47990  10.953   8.846   4.400
15384SOL    HW147991  10.953   8.941   4.385
15384SOL    HW247992  11.031   8.815   4.355
15385SOL     OW47993  13.603  12.173   2.860
15385SOL    HW147994  13.536  12.159   2.793
15385SOL    HW247995  13.653  12.248   2.827
15386SOL     OW47996   0.653   8.990   6.949
15386SOL    HW147997   0.744   8.970   6.972
15386SOL    HW247998   0.637   8.941   6.868
15387SOL     OW47999   6.485  13.238  11.688
15387SOL    HW148000   6.452  13.197  11.608
15387SOL    HW248001   6.435  13.320  11.695
15388SOL     OW48002  14.772   9.806   9.450
15388SOL    HW148003  14.859   9.773   9.429
15388SOL    HW248004  14.713   9.755   9.394
15389SOL     OW48005   7.483   8.475   6.733
15389SOL    HW148006   7.577   8.457   6.733
15389SOL    HW248007   7.453   8.445   6.647
15390SOL     OW48008   2.292   6.721   7.559
15390SOL    HW148009   2.303   6.638   7.513
15390SOL    HW248010   2.200   6.723   7.585
15391SOL     OW48011   7.171   7.856   9.413
15391SOL    HW148012   7.158   7.784   9.351
15391SOL    HW248013   7.146   7.820   9.498
15392SOL     OW48014   2.667  13.944  11.389
15392SOL    HW148015   2.724  14.017  11.411
15392SOL    HW248016   2.599  13.946  11.456
15393SOL     OW48017   7.496   9.743   4.653
15393SOL    HW148018   7.457   9.713   4.571
15393SOL    HW248019   7.552   9.671   4.681
15394SOL     OW48020   8.995  14.006   8.698
15394SOL    HW148021   8.991  14.032   8.790
15394SOL    HW248022   8.935  13.932   8.692
15395SOL     OW48023   3.799   1.875  13.506
15395SOL    HW148024   3.876   1.925  13.533
15395SOL    HW248025   3.817   1.849  13.416
15396SOL     OW48026  13.598  14.276   7.330
15396SOL    HW148027  13.511  14.278   7.290
15396SOL    HW248028  13.595  14.200   7.389
15397SOL     OW48029   0.808   5.743   9.157
15397SOL    HW148030   0.866   5.769   9.085
15397SOL    HW248031   0.864   5.693   9.216
15398SOL     OW48032   2.444  12.802   3.135
15398SOL    HW148033   2.419  12.713   3.108
15398SOL    HW248034   2.437  12.801   3.230
15399SOL     OW48035   3.455   9.996  14.827
15399SOL    HW148036   3.360   9.981  14.833
15399SOL    HW248037   3.465  10.050  14.748
15400SOL     OW48038   7.651   3.550   0.204
15400SOL    HW148039   7.650   3.571   0.110
15400SOL    HW248040   7.559   3.542   0.228
15401SOL     OW48041  12.512   6.371   2.809
15401SOL    HW148042  12.500   6.281   2.780
15401SOL    HW248043  12.490   6.424   2.732
15402SOL     OW48044  11.567  11.675   2.844
15402SOL    HW148045  11.586  11.606   2.907
15402SOL    HW248046  11.642  11.674   2.784
15403SOL     OW48047   3.077   3.354  10.529
15403SOL    HW148048   3.138   3.283  10.512
15403SOL    HW248049   3.098   3.384  10.618
15404SOL     OW48050  11.168   4.102   3.487
15404SOL    HW148051  11.083   4.141   3.507
15404SOL    HW248052  11.231   4.171   3.506
15405SOL     OW48053  10.815  13.201  14.065
15405SOL    HW148054  10.857  13.204  14.151
15405SOL    HW248055  10.722  13.216  14.083
15406SOL     OW48056   9.999   9.052  11.196
15406SOL    HW148057   9.993   9.014  11.284
15406SOL    HW248058  10.075   9.111  11.201
15407SOL     OW48059  11.592  11.574   6.217
15407SOL    HW148060  11.627  11.650   6.262
15407SOL    HW248061  11.513  11.551   6.266
15408SOL     OW48062  10.567   7.768  14.286
15408SOL    HW148063  10.606   7.852  14.309
15408SOL    HW248064  10.595   7.752  14.196
15409SOL     OW48065   2.393  12.993  13.802
15409SOL    HW148066   2.337  13.026  13.872
15409SOL    HW248067   2.337  12.991  13.725
15410SOL     OW48068   2.749   7.593   2.632
15410SOL    HW148069   2.697   7.561   2.706
15410SOL    HW248070   2.728   7.687   2.627
15411SOL     OW48071   3.267   2.224   7.411
15411SOL    HW148072   3.222   2.295   7.458
15411SOL    HW248073   3.200   2.156   7.401
15412SOL     OW48074   6.243   6.216   8.937
15412SOL    HW148075   6.228   6.165   8.857
15412SOL    HW248076   6.287   6.156   8.996
15413SOL     OW48077   1.774   1.119  12.876
15413SOL    HW148078   1.782   1.211  12.903
15413SOL    HW248079   1.708   1.083  12.935
15414SOL     OW48080   7.243  11.840   0.505
15414SOL    HW148081   7.283  11.857   0.590
15414SOL    HW248082   7.203  11.924   0.480
15415SOL     OW48083  13.382   0.125   5.227
15415SOL    HW148084  13.474   0.146   5.208
15415SOL    HW248085  13.333   0.197   5.188
15416SOL     OW48086   7.874  11.813   1.616
15416SOL    HW148087   7.821  11.822   1.537
15416SOL    HW248088   7.812  11.818   1.688
15417SOL     OW48089   3.198  14.657   5.768
15417SOL    HW148090   3.266  14.697   5.822
15417SOL    HW248091   3.144  14.731   5.740
15418SOL     OW48092   1.857   2.210   8.898
15418SOL    HW148093   1.826   2.279   8.957
15418SOL    HW248094   1.781   2.153   8.888
15419SOL     OW48095   4.357  11.895  11.185
15419SOL    HW148096   4.366  11.801  11.170
15419SOL    HW248097   4.282  11.904  11.243
15420SOL     OW48098  14.224  12.657  10.620
15420SOL    HW148099  14.190  12.720  10.557
15420SOL    HW248100  14.147  12.612  10.653
15421SOL     OW48101   1.987   2.774  11.415
15421SOL    HW148102   2.046   2.699  11.407
15421SOL    HW248103   1.922   2.746  11.480
15422SOL     OW48104   4.583  11.329  12.756
15422SOL    HW148105   4.641  11.265  12.715
15422SOL    HW248106   4.537  11.369  12.683
15423SOL     OW48107   9.746   7.398   6.382
15423SOL    HW148108   9.681   7.462   6.410
15423SOL    HW248109   9.816   7.405   6.447
15424SOL     OW48110   0.633   7.600   4.899
15424SOL    HW148111   0.669   7.603   4.811
15424SOL    HW248112   0.573   7.526   4.898
15425SOL     OW48113   5.690  11.599  12.058
15425SOL    HW148114   5.729  11.628  11.976
15425SOL    HW248115   5.745  11.525  12.086
15426SOL     OW48116   5.441   5.323   5.228
15426SOL    HW148117   5.529   5.308   5.262
15426SOL    HW248118   5.450   5.402   5.174
15427SOL     OW48119  13.370  10.380  11.885
15427SOL    HW148120  13.382  10.448  11.951
15427SOL    HW248121  13.457  10.343  11.871
15428SOL     OW48122  10.845  13.720  12.098
15428SOL    HW148123  10.932  13.703  12.063
15428SOL    HW248124  10.848  13.682  12.186
15429SOL     OW48125  13.505  10.005   1.754
15429SOL    HW148126  13.575  10.064   1.782
15429SOL    HW248127  13.475   9.963   1.835
15430SOL     OW48128   6.832   5.388   1.446
15430SOL    HW148129   6.883   5.339   1.509
15430SOL    HW248130   6.892   5.454   1.412
15431SOL     OW48131  12.235   4.589   1.490
15431SOL    HW148132  12.174   4.520   1.517
15431SOL    HW248133  12.296   4.596   1.563
15432SOL     OW48134   5.515   0.253   5.177
15432SOL    HW148135   5.485   0.262   5.086
15432SOL    HW248136   5.609   0.271   5.173
15433SOL     OW48137   8.697  11.909  14.622
15433SOL    HW148138   8.681  11.936  14.713
15433SOL    HW248139   8.612  11.914  14.580
15434SOL     OW48140  10.227   2.466   7.176
15434SOL    HW148141  10.133   2.451   7.167
15434SOL    HW248142  10.265   2.437   7.094
15435SOL     OW48143   8.575   9.723   5.925
15435SOL    HW148144   8.561   9.723   6.020
15435SOL    HW248145   8.498   9.766   5.889
15436SOL     OW48146  10.466   7.283   7.345
15436SOL    HW148147  10.442   7.242   7.262
15436SOL    HW248148  10.390   7.337   7.368
15437SOL     OW48149   8.148   4.493  11.529
15437SOL    HW148150   8.106   4.517  11.446
15437SOL    HW248151   8.163   4.576  11.573
15438SOL     OW48152  12.030  13.950  12.559
15438SOL    HW148153  12.118  13.930  12.591
15438SOL    HW248154  11.975  13.881  12.597
15439SOL     OW48155   7.435   1.656   5.103
15439SOL    HW148156   7.398   1.578   5.063
15439SOL    HW248157   7.375   1.677   5.175
15440SOL     OW48158   6.450   9.760   9.975
15440SOL    HW148159   6.481   9.688  10.031
15440SOL    HW248160   6.399   9.816  10.034
15441SOL     OW48161   4.806   2.933  11.316
15441SOL    HW148162   4.885   2.879  11.324
15441SOL    HW248163   4.805   2.960  11.224
15442SOL     OW48164   3.613   1.364   7.335
15442SOL    HW148165   3.577   1.447   7.303
15442SOL    HW248166   3.536   1.308   7.345
15443SOL     OW48167   8.389   5.222  13.314
15443SOL    HW148168   8.354   5.310  13.301
15443SOL    HW248169   8.377   5.178  13.230
15444SOL     OW48170   9.199   0.604   7.425
15444SOL    HW148171   9.183   0.698   7.418
15444SOL    HW248172   9.112   0.565   7.431
15445SOL     OW48173  13.912   2.211   9.986
15445SOL    HW148174  13.929   2.258   9.905
15445SOL    HW248175  13.849   2.266  10.032
15446SOL     OW48176  14.501  10.140  10.097
15446SOL    HW148177  14.555  10.182  10.164
15446SOL    HW248178  14.414  10.132  10.137
15447SOL     OW48179  12.655  11.451  13.056
15447SOL    HW148180  12.685  11.397  13.129
15447SOL    HW248181  12.613  11.390  12.996
15448SOL     OW48182   3.173  10.158   1.380
15448SOL    HW148183   3.179  10.097   1.454
15448SOL    HW248184   3.245  10.132   1.322
15449SOL     OW48185   0.646  13.141   2.832
15449SOL    HW148186   0.671  13.185   2.750
15449SOL    HW248187   0.705  13.177   2.898
15450SOL     OW48188   9.964   2.066   1.749
15450SOL    HW148189   9.890   2.050   1.808
15450SOL    HW248190   9.927   2.117   1.677
15451SOL     OW48191  12.418   0.910  13.307
15451SOL    HW148192  12.392   0.999  13.330
15451SOL    HW248193  12.362   0.854  13.361
15452SOL     OW48194  13.705   0.477   3.345
15452SOL    HW148195  13.699   0.562   3.388
15452SOL    HW248196  13.766   0.427   3.400
15453SOL     OW48197   4.911  12.973   8.055
15453SOL    HW148198   4.940  12.899   8.108
15453SOL    HW248199   4.850  12.935   7.992
15454SOL     OW48200   3.650  10.986  13.395
15454SOL    HW148201   3.567  11.027  13.419
15454SOL    HW248202   3.709  11.059  13.375
15455SOL     OW48203  12.900   0.019   7.241
15455SOL    HW148204  12.894   0.099   7.293
15455SOL    HW248205  12.923  14.830   7.305
15456SOL     OW48206  13.918   8.312   7.867
15456SOL    HW148207  13.946   8.277   7.952
15456SOL    HW248208  13.922   8.237   7.808
15457SOL     OW48209   5.177   6.021   4.226
15457SOL    HW148210   5.262   5.987   4.255
15457SOL    HW248211   5.114   5.985   4.287
15458SOL     OW48212  10.256   0.124  10.717
15458SOL    HW148213  10.168   0.162  10.728
15458SOL    HW248214  10.308   0.196  10.681
15459SOL     OW48215  14.360   1.895   9.362
15459SOL    HW148216  14.291   1.920   9.422
15459SOL    HW248217  14.339   1.805   9.336
15460SOL     OW48218   4.370   9.200  12.001
15460SOL    HW148219   4.284   9.240  12.012
15460SOL    HW248220   4.373   9.130  12.066
15461SOL     OW48221   1.863   1.099  12.067
15461SOL    HW148222   1.827   1.015  12.095
15461SOL    HW248223   1.787   1.155  12.056
15462SOL     OW48224   1.966  11.260  14.814
15462SOL    HW148225   1.913  11.227   0.007
15462SOL    HW248226   2.051  11.281  14.853
15463SOL     OW48227  12.178  13.759   8.648
15463SOL    HW148228  12.111  13.804   8.597
15463SOL    HW248229  12.145  13.670   8.658
15464SOL     OW48230  10.535   0.807   2.248
15464SOL    HW148231  10.463   0.807   2.185
15464SOL    HW248232  10.539   0.896   2.281
15465SOL     OW48233   0.650   2.975   1.622
15465SOL    HW148234   0.583   2.983   1.690
15465SOL    HW248235   0.721   3.033   1.651
15466SOL     OW48236  13.551  11.272  11.057
15466SOL    HW148237  13.625  11.217  11.036
15466SOL    HW248238  13.478  11.212  11.069
15467SOL     OW48239  12.524   3.618   0.914
15467SOL    HW148240  12.562   3.702   0.939
15467SOL    HW248241  12.446   3.609   0.969
15468SOL     OW48242  10.396   3.409   2.027
15468SOL    HW148243  10.421   3.412   1.934
15468SOL    HW248244  10.441   3.332   2.061
15469SOL     OW48245  11.485   5.970   5.583
15469SOL    HW148246  11.478   5.934   5.671
15469SOL    HW248247  11.529   6.054   5.596
15470SOL     OW48248  13.454   3.496   7.461
15470SOL    HW148249  13.405   3.448   7.528
15470SOL    HW248250  13.399   3.491   7.383
15471SOL     OW48251  14.222   2.652  12.238
15471SOL    HW148252  14.200   2.738  12.274
15471SOL    HW248253  14.232   2.668  12.144
15472SOL     OW48254   6.918  13.157   1.839
15472SOL    HW148255   6.879  13.244   1.831
15472SOL    HW248256   6.984  13.154   1.770
15473SOL     OW48257   7.265   0.330   9.864
15473SOL    HW148258   7.354   0.357   9.841
15473SOL    HW248259   7.223   0.310   9.781
15474SOL     OW48260  11.857   5.857   3.216
15474SOL    HW148261  11.768   5.871   3.185
15474SOL    HW248262  11.871   5.926   3.281
15475SOL     OW48263   4.304  12.001   5.327
15475SOL    HW148264   4.291  11.924   5.271
15475SOL    HW248265   4.315  12.073   5.266
15476SOL     OW48266   9.134  11.577   3.975
15476SOL    HW148267   9.073  11.521   3.927
15476SOL    HW248268   9.078  11.642   4.018
15477SOL     OW48269   5.598   1.361   7.540
15477SOL    HW148270   5.514   1.406   7.532
15477SOL    HW248271   5.589   1.309   7.620
15478SOL     OW48272   5.587   2.869   2.888
15478SOL    HW148273   5.570   2.901   2.976
15478SOL    HW248274   5.513   2.900   2.836
15479SOL     OW48275   8.484   5.464   2.237
15479SOL    HW148276   8.396   5.458   2.275
15479SOL    HW248277   8.526   5.382   2.263
15480SOL     OW48278   9.902  10.439   9.599
15480SOL    HW148279   9.822  10.486   9.577
15480SOL    HW248280   9.967  10.508   9.615
15481SOL     OW48281   4.704  12.747   6.761
15481SOL    HW148282   4.663  12.662   6.778
15481SOL    HW248283   4.798  12.728   6.755
15482SOL     OW48284   1.945   5.418   6.347
15482SOL    HW148285   1.899   5.487   6.394
15482SOL    HW248286   2.033   5.417   6.385
15483SOL     OW48287  10.279   1.719  12.229
15483SOL    HW148288  10.274   1.664  12.307
15483SOL    HW248289  10.255   1.661  12.157
15484SOL     OW48290   1.107   4.503   8.794
15484SOL    HW148291   1.105   4.407   8.789
15484SOL    HW248292   1.166   4.529   8.723
15485SOL     OW48293   7.210  12.155  11.576
15485SOL    HW148294   7.283  12.194  11.623
15485SOL    HW248295   7.238  12.156  11.484
15486SOL     OW48296   0.645   8.522   0.875
15486SOL    HW148297   0.730   8.497   0.837
15486SOL    HW248298   0.598   8.439   0.882
15487SOL     OW48299  13.308   1.359  10.860
15487SOL    HW148300  13.278   1.271  10.884
15487SOL    HW248301  13.296   1.410  10.940
15488SOL     OW48302   2.571   1.284   1.430
15488SOL    HW148303   2.537   1.235   1.355
15488SOL    HW248304   2.644   1.335   1.395
15489SOL     OW48305   9.866  14.073   0.397
15489SOL    HW148306   9.942  14.110   0.442
15489SOL    HW248307   9.848  13.992   0.444
15490SOL     OW48308  12.224   9.672  13.904
15490SOL    HW148309  12.262   9.608  13.965
15490SOL    HW248310  12.288   9.677  13.832
15491SOL     OW48311  10.957   1.643   0.340
15491SOL    HW148312  11.041   1.682   0.316
15491SOL    HW248313  10.901   1.659   0.264
15492SOL     OW48314   5.982  10.337   5.871
15492SOL    HW148315   5.928  10.337   5.951
15492SOL    HW248316   6.028  10.420   5.873
15493SOL     OW48317   9.469   9.338  14.364
15493SOL    HW148318   9.389   9.388  14.378
15493SOL    HW248319   9.449   9.251  14.399
15494SOL     OW48320   3.262   3.837  14.117
15494SOL    HW148321   3.214   3.771  14.168
15494SOL    HW248322   3.194   3.898  14.088
15495SOL     OW48323   4.302   8.613   6.643
15495SOL    HW148324   4.270   8.605   6.553
15495SOL    HW248325   4.381   8.559   6.646
15496SOL     OW48326   1.932  14.295   3.628
15496SOL    HW148327   1.865  14.340   3.575
15496SOL    HW248328   1.958  14.360   3.693
15497SOL     OW48329   7.059   9.656  13.816
15497SOL    HW148330   7.004   9.600  13.761
15497SOL    HW248331   7.012   9.663  13.898
15498SOL     OW48332   6.088   0.850   8.584
15498SOL    HW148333   6.078   0.922   8.521
15498SOL    HW248334   6.183   0.844   8.598
15499SOL     OW48335   7.966   8.286   7.176
15499SOL    HW148336   7.972   8.356   7.241
15499SOL    HW248337   7.883   8.302   7.131
15500SOL     OW48338   3.505   9.816   9.797
15500SOL    HW148339   3.590   9.841   9.833
15500SOL    HW248340   3.518   9.728   9.763
15501SOL     OW48341  10.975   6.997   4.541
15501SOL    HW148342  10.982   7.092   4.553
15501SOL    HW248343  10.883   6.977   4.554
15502SOL     OW48344  10.632  13.293  10.858
15502SOL    HW148345  10.727  13.285  10.871
15502SOL    HW248346  10.613  13.235  10.784
15503SOL     OW48347   0.571  10.579   4.806
15503SOL    HW148348   0.486  10.537   4.818
15503SOL    HW248349   0.567  10.658   4.859
15504SOL     OW48350   0.301   3.195   0.259
15504SOL    HW148351   0.281   3.201   0.352
15504SOL    HW248352   0.392   3.224   0.251
15505SOL     OW48353   8.999  12.976  11.617
15505SOL    HW148354   8.947  12.990  11.697
15505SOL    HW248355   9.084  12.947  11.648
15506SOL     OW48356  12.161   0.322   0.428
15506SOL    HW148357  12.222   0.316   0.502
15506SOL    HW248358  12.075   0.331   0.468
15507SOL     OW48359   9.266  12.641   0.880
15507SOL    HW148360   9.326  12.705   0.843
15507SOL    HW248361   9.220  12.688   0.949
15508SOL     OW48362  12.039   8.881  12.611
15508SOL    HW148363  12.016   8.788  12.616
15508SOL    HW248364  12.088   8.888  12.529
15509SOL     OW48365  14.234  11.914   2.411
15509SOL    HW148366  14.251  11.820   2.418
15509SOL    HW248367  14.311  11.949   2.367
15510SOL     OW48368  12.250   7.203   5.958
15510SOL    HW148369  12.282   7.290   5.934
15510SOL    HW248370  12.329   7.151   5.974
15511SOL     OW48371   3.893  11.676   2.227
15511SOL    HW148372   3.802  11.650   2.216
15511SOL    HW248373   3.924  11.627   2.303
15512SOL     OW48374   9.238  14.800   2.423
15512SOL    HW148375   9.236   0.016   2.433
15512SOL    HW248376   9.146  14.776   2.409
15513SOL     OW48377  14.784   5.054   5.453
15513SOL    HW148378  14.723   5.128   5.455
15513SOL    HW248379  14.867   5.091   5.482
15514SOL     OW48380  14.745   3.120   1.522
15514SOL    HW148381  14.704   3.203   1.499
15514SOL    HW248382  14.813   3.143   1.586
15515SOL     OW48383   6.733   0.428   9.642
15515SOL    HW148384   6.807   0.404   9.698
15515SOL    HW248385   6.773   0.455   9.560
15516SOL     OW48386   2.980  12.966   3.637
15516SOL    HW148387   2.910  12.973   3.702
15516SOL    HW248388   2.937  12.929   3.560
15517SOL     OW48389   7.012  11.503   6.573
15517SOL    HW148390   6.947  11.472   6.509
15517SOL    HW248391   6.960  11.525   6.650
15518SOL     OW48392   3.446  13.815   5.959
15518SOL    HW148393   3.385  13.888   5.971
15518SOL    HW248394   3.497  13.813   6.040
15519SOL     OW48395  13.952   3.614  14.605
15519SOL    HW148396  13.922   3.642  14.691
15519SOL    HW248397  14.047   3.613  14.612
15520SOL     OW48398  14.786   3.272  11.742
15520SOL    HW148399  14.856   3.248  11.681
15520SOL    HW248400  14.771   3.194  11.794
15521SOL     OW48401   2.606   6.223  13.963
15521SOL    HW148402   2.588   6.258  14.050
15521SOL    HW248403   2.677   6.161  13.977
15522SOL     OW48404  10.217   8.462   3.859
15522SOL    HW148405  10.228   8.470   3.953
15522SOL    HW248406  10.143   8.519   3.839
15523SOL     OW48407   8.158   1.177   9.141
15523SOL    HW148408   8.068   1.199   9.119
15523SOL    HW248409   8.209   1.205   9.064
15524SOL     OW48410   6.152   0.768   9.258
15524SOL    HW148411   6.129   0.795   9.169
15524SOL    HW248412   6.070   0.738   9.296
15525SOL     OW48413   3.679   6.295   8.242
15525SOL    HW148414   3.584   6.298   8.251
15525SOL    HW248415   3.706   6.387   8.235
15526SOL     OW48416   2.986   1.924   3.562
15526SOL    HW148417   2.890   1.921   3.570
15526SOL    HW248418   3.002   1.983   3.488
15527SOL     OW48419   7.441   4.135   7.692
15527SOL    HW148420   7.461   4.144   7.785
15527SOL    HW248421   7.451   4.042   7.675
15528SOL     OW48422   1.951   3.269   9.981
15528SOL    HW148423   2.031   3.254   9.930
15528SOL    HW248424   1.979   3.262  10.072
15529SOL     OW48425  12.059   5.282  13.443
15529SOL    HW148426  12.146   5.242  13.452
15529SOL    HW248427  12.068   5.368  13.484
15530SOL     OW48428   4.369  11.557   3.700
15530SOL    HW148429   4.382  11.650   3.680
15530SOL    HW248430   4.426  11.541   3.776
15531SOL     OW48431   8.936  13.760   1.559
15531SOL    HW148432   9.027  13.788   1.550
15531SOL    HW248433   8.892  13.834   1.601
15532SOL     OW48434   0.585  11.864   6.466
15532SOL    HW148435   0.569  11.955   6.492
15532SOL    HW248436   0.507  11.817   6.498
15533SOL     OW48437  11.908   7.069   9.526
15533SOL    HW148438  11.856   7.112   9.458
15533SOL    HW248439  11.843   7.034   9.587
15534SOL     OW48440   6.404  11.904  11.120
15534SOL    HW148441   6.496  11.921  11.140
15534SOL    HW248442   6.391  11.812  11.144
15535SOL     OW48443   8.945   2.271  10.287
15535SOL    HW148444   9.018   2.262  10.225
15535SOL    HW248445   8.880   2.324  10.240
15536SOL     OW48446  10.538   4.119   7.372
15536SOL    HW148447  10.516   4.183   7.439
15536SOL    HW248448  10.494   4.150   7.293
15537SOL     OW48449   8.115   0.319  12.112
15537SOL    HW148450   8.034   0.367  12.091
15537SOL    HW248451   8.163   0.315  12.030
15538SOL     OW48452  13.172   7.792  12.115
15538SOL    HW148453  13.240   7.729  12.088
15538SOL    HW248454  13.119   7.804  12.036
15539SOL     OW48455   9.424   5.309  10.051
15539SOL    HW148456   9.445   5.215  10.048
15539SOL    HW248457   9.481   5.343  10.120
15540SOL     OW48458  11.093   1.882   3.727
15540SOL    HW148459  11.123   1.970   3.751
15540SOL    HW248460  11.001   1.893   3.705
15541SOL     OW48461   4.015  11.844  13.529
15541SOL    HW148462   4.105  11.823  13.507
15541SOL    HW248463   3.976  11.761  13.556
15542SOL     OW48464   7.720  10.791   9.119
15542SOL    HW148465   7.774  10.854   9.073
15542SOL    HW248466   7.733  10.709   9.071
15543SOL     OW48467  13.910  11.696  13.898
15543SOL    HW148468  13.898  11.633  13.968
15543SOL    HW248469  14.004  11.693  13.878
15544SOL     OW48470   3.283   5.512   3.895
15544SOL    HW148471   3.254   5.488   3.983
15544SOL    HW248472   3.376   5.532   3.906
15545SOL     OW48473   5.022  14.233   1.167
15545SOL    HW148474   5.106  14.196   1.142
15545SOL    HW248475   5.002  14.296   1.098
15546SOL     OW48476   9.459   0.967  10.038
15546SOL    HW148477   9.457   0.940  10.130
15546SOL    HW248478   9.464   0.885   9.989
15547SOL     OW48479   6.210   9.448   0.529
15547SOL    HW148480   6.230   9.531   0.572
15547SOL    HW248481   6.276   9.387   0.560
15548SOL     OW48482   0.157  11.369   5.080
15548SOL    HW148483   0.190  11.446   5.032
15548SOL    HW248484   0.106  11.320   5.015
15549SOL     OW48485  13.503   0.794  12.936
15549SOL    HW148486  13.459   0.860  12.990
15549SOL    HW248487  13.433   0.735  12.908
15550SOL     OW48488   8.943  12.529  10.567
15550SOL    HW148489   8.882  12.483  10.510
15550SOL    HW248490   8.997  12.460  10.605
15551SOL     OW48491  14.522   1.392   9.884
15551SOL    HW148492  14.482   1.476   9.904
15551SOL    HW248493  14.484   1.331   9.947
15552SOL     OW48494  11.100   8.581   9.574
15552SOL    HW148495  11.077   8.520   9.644
15552SOL    HW248496  11.180   8.544   9.536
15553SOL     OW48497  13.702   2.820  13.528
15553SOL    HW148498  13.742   2.907  13.521
15553SOL    HW248499  13.728   2.775  13.447
15554SOL     OW48500  12.165   8.056   3.409
15554SOL    HW148501  12.200   8.142   3.430
15554SOL    HW248502  12.122   8.027   3.489
15555SOL     OW48503  11.220  11.328   3.763
15555SOL    HW148504  11.222  11.307   3.856
15555SOL    HW248505  11.162  11.404   3.757
15556SOL     OW48506  10.249  12.223   4.333
15556SOL    HW148507  10.236  12.170   4.255
15556SOL    HW248508  10.179  12.196   4.392
15557SOL     OW48509   3.216   1.263  11.182
15557SOL    HW148510   3.301   1.267  11.138
15557SOL    HW248511   3.158   1.316  11.128
15558SOL     OW48512  12.128   3.229  13.225
15558SOL    HW148513  12.108   3.250  13.134
15558SOL    HW248514  12.202   3.286  13.247
15559SOL     OW48515   6.367   7.215   5.340
15559SOL    HW148516   6.408   7.129   5.327
15559SOL    HW248517   6.282   7.207   5.298
15560SOL     OW48518   2.652   8.328  13.704
15560SOL    HW148519   2.742   8.349  13.681
15560SOL    HW248520   2.652   8.233  13.715
15561SOL     OW48521   3.742   5.812   2.576
15561SOL    HW148522   3.735   5.896   2.621
15561SOL    HW248523   3.820   5.771   2.614
15562SOL     OW48524   9.887   3.632  11.602
15562SOL    HW148525   9.941   3.563  11.564
15562SOL    HW248526   9.911   3.633  11.695
15563SOL     OW48527  12.135   3.112  14.292
15563SOL    HW148528  12.143   3.190  14.347
15563SOL    HW248529  12.172   3.139  14.208
15564SOL     OW48530  13.733  12.254   8.959
15564SOL    HW148531  13.660  12.222   8.906
15564SOL    HW248532  13.807  12.198   8.936
15565SOL     OW48533   5.777  14.479   4.996
15565SOL    HW148534   5.858  14.430   4.978
15565SOL    HW248535   5.754  14.520   4.912
15566SOL     OW48536   8.234   2.478   8.169
15566SOL    HW148537   8.181   2.399   8.174
15566SOL    HW248538   8.209   2.518   8.086
15567SOL     OW48539  12.677  13.495  14.069
15567SOL    HW148540  12.728  13.536  14.139
15567SOL    HW248541  12.738  13.487  13.996
15568SOL     OW48542   9.450   5.675   0.501
15568SOL    HW148543   9.515   5.704   0.565
15568SOL    HW248544   9.461   5.580   0.498
15569SOL     OW48545   6.842  14.348   4.901
15569SOL    HW148546   6.845  14.434   4.942
15569SOL    HW248547   6.841  14.366   4.807
15570SOL     OW48548   7.672  11.176   8.403
15570SOL    HW148549   7.737  11.109   8.427
15570SOL    HW248550   7.595  11.126   8.378
15571SOL     OW48551   9.364  10.563   7.856
15571SOL    HW148552   9.269  10.568   7.853
15571SOL    HW248553   9.383  10.475   7.891
15572SOL     OW48554  13.799   5.014   9.236
15572SOL    HW148555  13.716   5.016   9.189
15572SOL    HW248556  13.777   5.046   9.324
15573SOL     OW48557   0.716  10.515   6.981
15573SOL    HW148558   0.701  10.431   7.024
15573SOL    HW248559   0.720  10.494   6.888
15574SOL     OW48560  12.355   9.316  11.724
15574SOL    HW148561  12.349   9.222  11.742
15574SOL    HW248562  12.339   9.358  11.809
15575SOL     OW48563   8.896  14.362   1.487
15575SOL    HW148564   8.843  14.372   1.566
15575SOL    HW248565   8.834  14.370   1.415
15576SOL     OW48566  12.482   0.083   6.370
15576SOL    HW148567  12.559   0.038   6.405
15576SOL    HW248568  12.464   0.153   6.433
15577SOL     OW48569   3.410  13.604  11.947
15577SOL    HW148570   3.504  13.587  11.959
15577SOL    HW248571   3.377  13.526  11.903
15578SOL     OW48572   0.904  14.583   8.607
15578SOL    HW148573   0.827  14.627   8.642
15578SOL    HW248574   0.970  14.593   8.675
15579SOL     OW48575  10.385   8.112  12.710
15579SOL    HW148576  10.334   8.091  12.632
15579SOL    HW248577  10.459   8.052  12.708
15580SOL     OW48578   4.230  11.516   2.188
15580SOL    HW148579   4.315  11.527   2.231
15580SOL    HW248580   4.174  11.476   2.255
15581SOL     OW48581   4.951   5.808  14.515
15581SOL    HW148582   4.879   5.862  14.545
15581SOL    HW248583   4.992   5.859  14.446
15582SOL     OW48584   6.222   2.446   6.213
15582SOL    HW148585   6.215   2.538   6.188
15582SOL    HW248586   6.309   2.419   6.183
15583SOL     OW48587   4.246   5.173  12.952
15583SOL    HW148588   4.192   5.168  12.874
15583SOL    HW248589   4.231   5.261  12.986
15584SOL     OW48590  11.246  14.659   8.273
15584SOL    HW148591  11.154  14.659   8.300
15584SOL    HW248592  11.247  14.604   8.194
15585SOL     OW48593   4.898  12.325  10.512
15585SOL    HW148594   4.932  12.363  10.592
15585SOL    HW248595   4.954  12.359  10.443
15586SOL     OW48596  13.664  13.049   7.265
15586SOL    HW148597  13.574  13.068   7.292
15586SOL    HW248598  13.668  12.953   7.259
15587SOL     OW48599  13.298   8.170   7.992
15587SOL    HW148600  13.219   8.117   7.980
15587SOL    HW248601  13.341   8.168   7.907
15588SOL     OW48602   8.771   1.533   7.846
15588SOL    HW148603   8.715   1.512   7.771
15588SOL    HW248604   8.752   1.465   7.910
15589SOL     OW48605  11.730   0.418  14.563
15589SOL    HW148606  11.809   0.380  14.603
15589SOL    HW248607  11.690   0.346  14.515
15590SOL     OW48608   3.175  10.403   3.837
15590SOL    HW148609   3.261  10.368   3.863
15590SOL    HW248610   3.131  10.421   3.919
15591SOL     OW48611   7.149  10.065   0.990
15591SOL    HW148612   7.192  10.021   1.064
15591SOL    HW248613   7.060  10.032   0.991
15592SOL     OW48614   2.831   1.364  11.466
15592SOL    HW148615   2.912   1.373  11.414
15592SOL    HW248616   2.813   1.452  11.498
15593SOL     OW48617   7.307   5.303   7.468
15593SOL    HW148618   7.369   5.372   7.489
15593SOL    HW248619   7.362   5.228   7.445
15594SOL     OW48620   2.099   9.006   9.846
15594SOL    HW148621   2.014   9.044   9.869
15594SOL    HW248622   2.080   8.945   9.775
15595SOL     OW48623   3.820   8.180  11.957
15595SOL    HW148624   3.751   8.146  12.013
15595SOL    HW248625   3.797   8.272  11.944
15596SOL     OW48626   4.454   0.926   2.272
15596SOL    HW148627   4.372   0.878   2.267
15596SOL    HW248628   4.500   0.888   2.346
15597SOL     OW48629   1.389   8.968  13.239
15597SOL    HW148630   1.307   8.923  13.219
15597SOL    HW248631   1.445   8.951  13.163
15598SOL     OW48632   3.329  12.174   7.622
15598SOL    HW148633   3.268  12.123   7.676
15598SOL    HW248634   3.358  12.112   7.554
15599SOL     OW48635   0.098   3.844   5.986
15599SOL    HW148636   0.172   3.866   6.043
15599SOL    HW248637   0.114   3.892   5.905
15600SOL     OW48638   2.057  13.716   3.634
15600SOL    HW148639   2.081  13.783   3.569
15600SOL    HW248640   2.071  13.759   3.719
15601SOL     OW48641  11.988   3.541   2.230
15601SOL    HW148642  12.029   3.526   2.315
15601SOL    HW248643  12.060   3.531   2.167
15602SOL     OW48644   8.748   3.293   1.014
15602SOL    HW148645   8.758   3.386   1.034
15602SOL    HW248646   8.656   3.285   0.987
15603SOL     OW48647  12.916   7.828  12.934
15603SOL    HW148648  12.896   7.817  12.841
15603SOL    HW248649  13.012   7.824  12.939
15604SOL     OW48650  13.156   3.263  11.871
15604SOL    HW148651  13.097   3.191  11.851
15604SOL    HW248652  13.228   3.222  11.919
15605SOL     OW48653   3.079  12.106   5.399
15605SOL    HW148654   3.161  12.077   5.438
15605SOL    HW248655   3.073  12.199   5.420
15606SOL     OW48656  10.023   7.207   8.166
15606SOL    HW148657   9.999   7.294   8.135
15606SOL    HW248658   9.964   7.191   8.240
15607SOL     OW48659   5.581  10.916   3.865
15607SOL    HW148660   5.526  10.967   3.806
15607SOL    HW248661   5.594  10.972   3.942
15608SOL     OW48662  12.389   0.196   6.968
15608SOL    HW148663  12.325   0.217   7.037
15608SOL    HW248664  12.453   0.139   7.011
15609SOL     OW48665  13.765  11.984  13.013
15609SOL    HW148666  13.733  11.925  12.945
15609SOL    HW248667  13.693  11.991  13.075
15610SOL     OW48668   8.739   1.306   5.242
15610SOL    HW148669   8.671   1.247   5.275
15610SOL    HW248670   8.696   1.390   5.233
15611SOL     OW48671  11.715   6.789  14.159
15611SOL    HW148672  11.719   6.697  14.185
15611SOL    HW248673  11.769   6.794  14.081
15612SOL     OW48674  10.036  14.325  12.782
15612SOL    HW148675  10.049  14.230  12.790
15612SOL    HW248676   9.950  14.334  12.741
15613SOL     OW48677  13.736  11.215   8.644
15613SOL    HW148678  13.751  11.166   8.564
15613SOL    HW248679  13.654  11.262   8.628
15614SOL     OW48680  10.001   0.924  11.768
15614SOL    HW148681   9.918   0.968  11.783
15614SOL    HW248682   9.993   0.884  11.681
15615SOL     OW48683   7.806  11.304   6.979
15615SOL    HW148684   7.800  11.390   6.938
15615SOL    HW248685   7.869  11.256   6.926
15616SOL     OW48686   4.325  10.817  14.433
15616SOL    HW148687   4.351  10.859  14.515
15616SOL    HW248688   4.332  10.886  14.367
15617SOL     OW48689  10.113   9.007  14.803
15617SOL    HW148690  10.063   9.087  14.812
15617SOL    HW248691  10.155   8.995   0.009
15618SOL     OW48692   6.826   4.412   3.736
15618SOL    HW148693   6.751   4.445   3.786
15618SOL    HW248694   6.881   4.489   3.722
15619SOL     OW48695  14.840  14.559  12.427
15619SOL    HW148696  14.799  14.532  12.510
15619SOL    HW248697   0.052  14.533  12.436
15620SOL     OW48698   8.232   8.169  11.226
15620SOL    HW148699   8.141   8.178  11.254
15620SOL    HW248700   8.239   8.224  11.148
15621SOL     OW48701   7.328   5.593   0.349
15621SOL    HW148702   7.420   5.565   0.345
15621SOL    HW248703   7.320   5.658   0.279
15622SOL     OW48704  12.049  12.540  11.248
15622SOL    HW148705  12.024  12.631  11.267
15622SOL    HW248706  12.114  12.548  11.178
15623SOL     OW48707   7.079   7.354   0.768
15623SOL    HW148708   7.093   7.415   0.841
15623SOL    HW248709   7.045   7.408   0.697
15624SOL     OW48710   5.728   2.225   2.889
15624SOL    HW148711   5.726   2.268   2.804
15624SOL    HW248712   5.808   2.174   2.888
15625SOL     OW48713   1.649  11.902   1.791
15625SOL    HW148714   1.717  11.880   1.726
15625SOL    HW248715   1.568  11.905   1.740
15626SOL     OW48716   8.735  12.822  13.026
15626SOL    HW148717   8.817  12.856  12.991
15626SOL    HW248718   8.679  12.900  13.034
15627SOL     OW48719   0.619   8.991   4.598
15627SOL    HW148720   0.707   8.995   4.561
15627SOL    HW248721   0.618   8.911   4.650
15628SOL     OW48722   1.774  10.228   9.212
15628SOL    HW148723   1.683  10.207   9.232
15628SOL    HW248724   1.795  10.302   9.269
15629SOL     OW48725   7.700   7.686  10.005
15629SOL    HW148726   7.650   7.759   9.969
15629SOL    HW248727   7.746   7.648   9.931
15630SOL     OW48728  13.405   5.720   3.809
15630SOL    HW148729  13.366   5.698   3.894
15630SOL    HW248730  13.355   5.667   3.746
15631SOL     OW48731   5.444   1.132  13.693
15631SOL    HW148732   5.376   1.070  13.667
15631SOL    HW248733   5.469   1.103  13.781
15632SOL     OW48734  10.276  11.279   5.183
15632SOL    HW148735  10.267  11.195   5.228
15632SOL    HW248736  10.187  11.301   5.156
15633SOL     OW48737   2.282   1.922   7.976
15633SOL    HW148738   2.199   1.958   8.005
15633SOL    HW248739   2.263   1.879   7.893
15634SOL     OW48740   7.395   1.583   2.051
15634SOL    HW148741   7.370   1.599   1.960
15634SOL    HW248742   7.359   1.658   2.099
15635SOL     OW48743   7.712  10.130   2.293
15635SOL    HW148744   7.660  10.158   2.369
15635SOL    HW248745   7.780  10.073   2.331
15636SOL     OW48746  10.311   5.297  10.987
15636SOL    HW148747  10.303   5.328  11.077
15636SOL    HW248748  10.237   5.337  10.941
15637SOL     OW48749   5.990  12.112   6.862
15637SOL    HW148750   5.920  12.059   6.826
15637SOL    HW248751   6.069  12.058   6.854
15638SOL     OW48752   5.494   6.827  11.707
15638SOL    HW148753   5.516   6.918  11.728
15638SOL    HW248754   5.520   6.816  11.616
15639SOL     OW48755   1.198   4.621  11.575
15639SOL    HW148756   1.130   4.554  11.573
15639SOL    HW248757   1.209   4.642  11.668
15640SOL     OW48758  11.690   1.446   0.924
15640SOL    HW148759  11.698   1.422   0.832
15640SOL    HW248760  11.758   1.396   0.969
15641SOL     OW48761   5.865  14.651   1.443
15641SOL    HW148762   5.941  14.599   1.468
15641SOL    HW248763   5.900  14.738   1.423
15642SOL     OW48764   2.834   6.626   4.627
15642SOL    HW148765   2.739   6.614   4.624
15642SOL    HW248766   2.849   6.714   4.593
15643SOL     OW48767  13.067   6.332  13.048
15643SOL    HW148768  13.051   6.404  12.987
15643SOL    HW248769  13.090   6.374  13.130
15644SOL     OW48770   3.003   1.912   0.699
15644SOL    HW148771   2.924   1.915   0.752
15644SOL    HW248772   3.064   1.858   0.750
15645SOL     OW48773  12.652  11.281   2.070
15645SOL    HW148774  12.736  11.272   2.113
15645SOL    HW248775  12.632  11.374   2.073
15646SOL     OW48776   0.114  12.698  10.006
15646SOL    HW148777   0.191  12.749  10.030
15646SOL    HW248778   0.110  12.705   9.910
15647SOL     OW48779  14.036   5.945   2.124
15647SOL    HW148780  14.030   5.856   2.156
15647SOL    HW248781  14.085   5.938   2.042
15648SOL     OW48782   5.615   0.407  12.509
15648SOL    HW148783   5.589   0.390  12.418
15648SOL    HW248784   5.543   0.459  12.545
15649SOL     OW48785  13.722   0.381   7.609
15649SOL    HW148786  13.777   0.379   7.688
15649SOL    HW248787  13.728   0.293   7.574
15650SOL     OW48788   3.091   9.561   6.607
15650SOL    HW148789   3.023   9.501   6.639
15650SOL    HW248790   3.173   9.515   6.625
15651SOL     OW48791   5.805  13.784  14.216
15651SOL    HW148792   5.862  13.708  14.230
15651SOL    HW248793   5.737  13.777  14.283
15652SOL     OW48794  14.854  14.472   2.556
15652SOL    HW148795  14.774  14.444   2.511
15652SOL    HW248796  14.829  14.553   2.600
15653SOL     OW48797   8.166   6.686   0.169
15653SOL    HW148798   8.243   6.637   0.144
15653SOL    HW248799   8.103   6.671   0.098
15654SOL     OW48800   9.846  10.963   0.861
15654SOL    HW148801   9.870  10.955   0.953
15654SOL    HW248802   9.861  11.055   0.840
15655SOL     OW48803  12.720  13.437  10.585
15655SOL    HW148804  12.799  13.463  10.633
15655SOL    HW248805  12.747  13.359  10.536
15656SOL     OW48806  14.623   2.641   8.950
15656SOL    HW148807  14.611   2.554   8.912
15656SOL    HW248808  14.618   2.626   9.045
15657SOL     OW48809  14.711   7.954   0.739
15657SOL    HW148810  14.747   8.030   0.785
15657SOL    HW248811  14.659   7.993   0.668
15658SOL     OW48812   1.631   3.268  10.874
15658SOL    HW148813   1.693   3.217  10.821
15658SOL    HW248814   1.559   3.288  10.814
15659SOL     OW48815   5.147   8.596   9.908
15659SOL    HW148816   5.209   8.668   9.916
15659SOL    HW248817   5.070   8.633   9.865
15660SOL     OW48818  13.985   7.148  13.166
15660SOL    HW148819  13.922   7.207  13.124
15660SOL    HW248820  14.047   7.126  13.096
15661SOL     OW48821   5.815   6.289   2.138
15661SOL    HW148822   5.765   6.350   2.193
15661SOL    HW248823   5.808   6.325   2.050
15662SOL     OW48824   8.876   0.826   2.246
15662SOL    HW148825   8.784   0.850   2.239
15662SOL    HW248826   8.885   0.790   2.334
15663SOL     OW48827   5.699   0.574   1.993
15663SOL    HW148828   5.791   0.587   1.970
15663SOL    HW248829   5.676   0.652   2.043
15664SOL     OW48830  13.183   2.213   9.287
15664SOL    HW148831  13.095   2.174   9.284
15664SOL    HW248832  13.221   2.180   9.368
15665SOL     OW48833   1.478   1.790   7.100
15665SOL    HW148834   1.541   1.856   7.129
15665SOL    HW248835   1.420   1.837   7.039
15666SOL     OW48836  14.211  12.068   6.401
15666SOL    HW148837  14.139  12.105   6.451
15666SOL    HW248838  14.175  12.056   6.313
15667SOL     OW48839  11.490  14.478   3.928
15667SOL    HW148840  11.404  14.499   3.891
15667SOL    HW248841  11.470  14.426   4.006
15668SOL     OW48842  10.067   1.363   2.881
15668SOL    HW148843  10.005   1.344   2.951
15668SOL    HW248844  10.148   1.385   2.927
15669SOL     OW48845   9.413   5.387   5.894
15669SOL    HW148846   9.485   5.397   5.832
15669SOL    HW248847   9.363   5.313   5.862
15670SOL     OW48848   7.543  12.569  12.818
15670SOL    HW148849   7.462  12.566  12.766
15670SOL    HW248850   7.514  12.564  12.909
15671SOL     OW48851  11.808   2.566   5.860
15671SOL    HW148852  11.746   2.637   5.876
15671SOL    HW248853  11.807   2.554   5.765
15672SOL     OW48854   4.768   9.173  13.939
15672SOL    HW148855   4.739   9.234  14.007
15672SOL    HW248856   4.726   9.090  13.962
15673SOL     OW48857   0.967   7.117   8.645
15673SOL    HW148858   0.952   7.024   8.632
15673SOL    HW248859   1.045   7.122   8.701
15674SOL     OW48860   7.810  10.178   9.519
15674SOL    HW148861   7.816  10.272   9.534
15674SOL    HW248862   7.716  10.158   9.527
15675SOL     OW48863   7.961  13.221   8.420
15675SOL    HW148864   7.918  13.216   8.506
15675SOL    HW248865   7.996  13.133   8.406
15676SOL     OW48866   5.033   7.891   6.871
15676SOL    HW148867   4.956   7.947   6.880
15676SOL    HW248868   5.007   7.808   6.912
15677SOL     OW48869  10.484  13.353   8.594
15677SOL    HW148870  10.572  13.363   8.558
15677SOL    HW248871  10.471  13.430   8.648
15678SOL     OW48872  14.319  14.302  10.940
15678SOL    HW148873  14.289  14.211  10.934
15678SOL    HW248874  14.414  14.296  10.933
15679SOL     OW48875   2.012   5.789   5.229
15679SOL    HW148876   1.940   5.768   5.289
15679SOL    HW248877   1.968   5.808   5.146
15680SOL     OW48878  13.166   7.577   6.113
15680SOL    HW148879  13.148   7.507   6.050
15680SOL    HW248880  13.129   7.656   6.072
15681SOL     OW48881   1.954   1.563   4.272
15681SOL    HW148882   1.928   1.611   4.351
15681SOL    HW248883   2.048   1.549   4.283
15682SOL     OW48884  14.640  11.938  11.006
15682SOL    HW148885  14.556  11.980  11.025
15682SOL    HW248886  14.700  12.011  10.989
15683SOL     OW48887   7.016   9.296   0.864
15683SOL    HW148888   6.966   9.329   0.938
15683SOL    HW248889   7.104   9.332   0.877
15684SOL     OW48890   3.623   7.565   9.723
15684SOL    HW148891   3.629   7.643   9.668
15684SOL    HW248892   3.603   7.599   9.810
15685SOL     OW48893   4.879   9.886  11.778
15685SOL    HW148894   4.890   9.956  11.842
15685SOL    HW248895   4.907   9.807  11.824
15686SOL     OW48896   3.486   2.624   3.104
15686SOL    HW148897   3.506   2.604   3.196
15686SOL    HW248898   3.537   2.559   3.055
15687SOL     OW48899   2.665  10.137   1.536
15687SOL    HW148900   2.634  10.168   1.621
15687SOL    HW248901   2.590  10.091   1.499
15688SOL     OW48902   5.841   5.229  11.739
15688SOL    HW148903   5.934   5.238  11.761
15688SOL    HW248904   5.796   5.276  11.810
15689SOL     OW48905  14.762  11.943  10.627
15689SOL    HW148906  14.825  11.937  10.555
15689SOL    HW248907  14.817  11.954  10.705
15690SOL     OW48908   0.414  11.304  14.840
15690SOL    HW148909   0.475  11.365   0.002
15690SOL    HW248910   0.451  11.288  14.753
15691SOL     OW48911   3.983  12.551  14.584
15691SOL    HW148912   4.073  12.570  14.558
15691SOL    HW248913   3.951  12.491  14.516
15692SOL     OW48914   6.672   6.349  13.596
15692SOL    HW148915   6.685   6.358  13.502
15692SOL    HW248916   6.719   6.423  13.635
15693SOL     OW48917   5.120  11.586   0.577
15693SOL    HW148918   5.159  11.501   0.558
15693SOL    HW248919   5.086  11.616   0.493
15694SOL     OW48920  10.480   1.386   1.105
15694SOL    HW148921  10.564   1.430   1.092
15694SOL    HW248922  10.482   1.355   1.195
15695SOL     OW48923   2.853   6.394  11.522
15695SOL    HW148924   2.917   6.352  11.464
15695SOL    HW248925   2.777   6.410  11.466
15696SOL     OW48926   2.237   0.494  12.622
15696SOL    HW148927   2.230   0.400  12.643
15696SOL    HW248928   2.148   0.527  12.633
15697SOL     OW48929   0.488   4.908   5.092
15697SOL    HW148930   0.428   4.958   5.037
15697SOL    HW248931   0.460   4.817   5.082
15698SOL     OW48932   0.511  13.410   5.211
15698SOL    HW148933   0.442  13.474   5.193
15698SOL    HW248934   0.587  13.442   5.163
15699SOL     OW48935   9.717  13.763  12.133
15699SOL    HW148936   9.802  13.720  12.127
15699SOL    HW248937   9.737  13.850  12.167
15700SOL     OW48938   2.055   6.097  14.137
15700SOL    HW148939   2.130   6.055  14.095
15700SOL    HW248940   2.000   6.127  14.064
15701SOL     OW48941   2.033   5.375   1.102
15701SOL    HW148942   2.032   5.303   1.165
15701SOL    HW248943   1.941   5.404   1.097
15702SOL     OW48944  10.389  13.061   9.467
15702SOL    HW148945  10.446  13.027   9.398
15702SOL    HW248946  10.372  12.985   9.523
15703SOL     OW48947   2.559  10.733   1.584
15703SOL    HW148948   2.562  10.742   1.489
15703SOL    HW248949   2.565  10.639   1.599
15704SOL     OW48950   0.584   2.193   7.177
15704SOL    HW148951   0.675   2.162   7.171
15704SOL    HW248952   0.558   2.173   7.267
15705SOL     OW48953   6.413  14.316  11.685
15705SOL    HW148954   6.491  14.294  11.736
15705SOL    HW248955   6.426  14.272  11.601
15706SOL     OW48956   1.386   0.055   2.884
15706SOL    HW148957   1.302   0.080   2.847
15706SOL    HW248958   1.451   0.101   2.832
15707SOL     OW48959   2.466   7.245   9.118
15707SOL    HW148960   2.408   7.320   9.131
15707SOL    HW248961   2.469   7.202   9.204
15708SOL     OW48962  10.476   1.733  14.045
15708SOL    HW148963  10.484   1.815  14.093
15708SOL    HW248964  10.500   1.754  13.955
15709SOL     OW48965  13.871   2.889   1.273
15709SOL    HW148966  13.966   2.899   1.263
15709SOL    HW248967  13.849   2.813   1.219
15710SOL     OW48968   6.779   1.910  12.388
15710SOL    HW148969   6.801   1.923  12.296
15710SOL    HW248970   6.821   1.983  12.433
15711SOL     OW48971   3.737   9.933   3.917
15711SOL    HW148972   3.746  10.011   3.971
15711SOL    HW248973   3.646   9.907   3.927
15712SOL     OW48974  10.748  10.505   2.790
15712SOL    HW148975  10.825  10.460   2.823
15712SOL    HW248976  10.715  10.555   2.865
15713SOL     OW48977  12.406   9.256   5.520
15713SOL    HW148978  12.319   9.245   5.482
15713SOL    HW248979  12.463   9.278   5.447
15714SOL     OW48980  13.801   7.666  11.023
15714SOL    HW148981  13.809   7.744  10.968
15714SOL    HW248982  13.823   7.696  11.111
15715SOL     OW48983   2.277   1.519   1.783
15715SOL    HW148984   2.234   1.445   1.826
15715SOL    HW248985   2.318   1.480   1.705
15716SOL     OW48986   3.352  13.419   0.611
15716SOL    HW148987   3.359  13.493   0.670
15716SOL    HW248988   3.272  13.373   0.639
15717SOL     OW48989  14.550   3.413   2.319
15717SOL    HW148990  14.599   3.351   2.374
15717SOL    HW248991  14.616   3.452   2.263
15718SOL     OW48992   8.353   2.542   4.267
15718SOL    HW148993   8.356   2.478   4.196
15718SOL    HW248994   8.284   2.603   4.241
15719SOL     OW48995  12.114  11.399  14.665
15719SOL    HW148996  12.147  11.332  14.725
15719SOL    HW248997  12.019  11.396  14.676
15720SOL     OW48998  14.625   0.330   3.191
15720SOL    HW148999  14.603   0.399   3.255
15720SOL    HW249000  14.716   0.307   3.211
15721SOL     OW49001   3.998   3.304   7.940
15721SOL    HW149002   3.920   3.264   7.902
15721SOL    HW249003   4.005   3.388   7.895
15722SOL     OW49004   9.770   0.352   9.996
15722SOL    HW149005   9.694   0.338  10.053
15722SOL    HW249006   9.763   0.283   9.930
15723SOL     OW49007  11.615   1.537  11.445
15723SOL    HW149008  11.680   1.466  11.442
15723SOL    HW249009  11.550   1.513  11.379
15724SOL     OW49010  14.562   3.791   9.641
15724SOL    HW149011  14.500   3.738   9.591
15724SOL    HW249012  14.536   3.881   9.623
15725SOL     OW49013  11.563  11.715   5.119
15725SOL    HW149014  11.520  11.686   5.038
15725SOL    HW249015  11.642  11.661   5.124
15726SOL     OW49016  12.277   9.001   1.872
15726SOL    HW149017  12.256   8.942   1.800
15726SOL    HW249018  12.341   8.954   1.925
15727SOL     OW49019   7.921   4.484   2.299
15727SOL    HW149020   8.002   4.511   2.255
15727SOL    HW249021   7.934   4.509   2.391
15728SOL     OW49022  14.208   3.552   2.586
15728SOL    HW149023  14.247   3.563   2.500
15728SOL    HW249024  14.261   3.607   2.644
15729SOL     OW49025  14.330  12.675   9.913
15729SOL    HW149026  14.274  12.686   9.836
15729SOL    HW249027  14.420  12.680   9.879
15730SOL     OW49028  14.535   9.953  11.098
15730SOL    HW149029  14.528   9.860  11.074
15730SOL    HW249030  14.624   9.962  11.134
15731SOL     OW49031   0.845   3.279   4.417
15731SOL    HW149032   0.905   3.248   4.485
15731SOL    HW249033   0.758   3.266   4.454
15732SOL     OW49034   9.579  12.826   1.299
15732SOL    HW149035   9.494  12.844   1.339
15732SOL    HW249036   9.575  12.870   1.214
15733SOL     OW49037   6.170  11.294  12.220
15733SOL    HW149038   6.260  11.288  12.250
15733SOL    HW249039   6.121  11.238  12.280
15734SOL     OW49040  13.383   6.327  14.288
15734SOL    HW149041  13.462   6.376  14.311
15734SOL    HW249042  13.368   6.347  14.196
15735SOL     OW49043  13.290   5.087   8.187
15735SOL    HW149044  13.195   5.091   8.175
15735SOL    HW249045  13.321   5.034   8.113
15736SOL     OW49046   4.196   1.277   9.111
15736SOL    HW149047   4.211   1.286   9.206
15736SOL    HW249048   4.282   1.294   9.072
15737SOL     OW49049   7.443   7.991   3.027
15737SOL    HW149050   7.535   7.992   3.051
15737SOL    HW249051   7.443   7.980   2.932
15738SOL     OW49052   4.813   6.902   7.089
15738SOL    HW149053   4.872   6.955   7.143
15738SOL    HW249054   4.829   6.812   7.119
15739SOL     OW49055  14.321   4.919   4.136
15739SOL    HW149056  14.351   4.860   4.206
15739SOL    HW249057  14.307   5.003   4.180
15740SOL     OW49058   0.629   6.501   7.457
15740SOL    HW149059   0.602   6.591   7.438
15740SOL    HW249060   0.686   6.508   7.533
15741SOL     OW49061   7.406   0.794   2.945
15741SOL    HW149062   7.340   0.830   3.003
15741SOL    HW249063   7.409   0.701   2.967
15742SOL     OW49064   9.435   1.040   6.868
15742SOL    HW149065   9.473   0.955   6.846
15742SOL    HW249066   9.343   1.033   6.842
15743SOL     OW49067   2.726  12.778  11.871
15743SOL    HW149068   2.790  12.737  11.812
15743SOL    HW249069   2.774  12.850  11.912
15744SOL     OW49070   0.827   4.202   5.318
15744SOL    HW149071   0.793   4.291   5.331
15744SOL    HW249072   0.760   4.159   5.264
15745SOL     OW49073   1.814   7.188   8.792
15745SOL    HW149074   1.758   7.115   8.767
15745SOL    HW249075   1.903   7.157   8.775
15746SOL     OW49076   3.089  12.496   3.478
15746SOL    HW149077   3.167  12.458   3.437
15746SOL    HW249078   3.110  12.588   3.489
15747SOL     OW49079   0.322   7.685   4.349
15747SOL    HW149080   0.278   7.742   4.286
15747SOL    HW249081   0.382   7.633   4.295
15748SOL     OW49082   2.883  11.930  10.790
15748SOL    HW149083   2.962  11.881  10.813
15748SOL    HW249084   2.833  11.870  10.735
15749SOL     OW49085   6.173  12.614   8.007
15749SOL    HW149086   6.255  12.661   7.994
15749SOL    HW249087   6.131  12.658   8.081
15750SOL     OW49088   2.781   5.643  11.488
15750SOL    HW149089   2.786   5.738  11.475
15750SOL    HW249090   2.729   5.612  11.414
15751SOL     OW49091  12.705   4.414  12.108
15751SOL    HW149092  12.756   4.334  12.094
15751SOL    HW249093  12.768   4.485  12.096
15752SOL     OW49094   4.392   1.552  11.154
15752SOL    HW149095   4.438   1.604  11.088
15752SOL    HW249096   4.462   1.512  11.205
15753SOL     OW49097  14.108  13.857   7.634
15753SOL    HW149098  14.138  13.921   7.570
15753SOL    HW249099  14.048  13.906   7.691
15754SOL     OW49100   3.815  11.857  13.171
15754SOL    HW149101   3.818  11.889  13.081
15754SOL    HW249102   3.850  11.930  13.223
15755SOL     OW49103  12.453   1.512   1.413
15755SOL    HW149104  12.374   1.512   1.359
15755SOL    HW249105  12.516   1.565   1.365
15756SOL     OW49106   4.960   1.654   8.860
15756SOL    HW149107   4.978   1.614   8.945
15756SOL    HW249108   5.023   1.614   8.801
15757SOL     OW49109   0.257   5.633  13.696
15757SOL    HW149110   0.284   5.722  13.717
15757SOL    HW249111   0.294   5.616  13.609
15758SOL     OW49112   8.277  11.008   5.527
15758SOL    HW149113   8.305  11.071   5.593
15758SOL    HW249114   8.272  11.059   5.446
15759SOL     OW49115  10.556  13.568  14.509
15759SOL    HW149116  10.477  13.606  14.549
15759SOL    HW249117  10.576  13.492  14.562
15760SOL     OW49118  13.764   0.782  10.355
15760SOL    HW149119  13.735   0.705  10.306
15760SOL    HW249120  13.786   0.846  10.288
15761SOL     OW49121   9.754  14.152   8.995
15761SOL    HW149122   9.670  14.189   8.969
15761SOL    HW249123   9.820  14.203   8.948
15762SOL     OW49124   2.518   5.943  13.213
15762SOL    HW149125   2.471   5.864  13.185
15762SOL    HW249126   2.472   6.015  13.169
15763SOL     OW49127   4.726   0.721  12.698
15763SOL    HW149128   4.754   0.638  12.739
15763SOL    HW249129   4.631   0.716  12.697
15764SOL     OW49130  10.239   9.211   0.415
15764SOL    HW149131  10.277   9.297   0.435
15764SOL    HW249132  10.221   9.172   0.500
15765SOL     OW49133   9.843  11.400   8.258
15765SOL    HW149134   9.755  11.425   8.231
15765SOL    HW249135   9.830  11.351   8.339
15766SOL     OW49136  10.481  12.944  11.886
15766SOL    HW149137  10.563  12.940  11.934
15766SOL    HW249138  10.449  13.033  11.899
15767SOL     OW49139  10.373   1.952   6.125
15767SOL    HW149140  10.443   1.897   6.160
15767SOL    HW249141  10.333   1.991   6.202
15768SOL     OW49142   8.946   8.923   7.840
15768SOL    HW149143   8.956   9.018   7.843
15768SOL    HW249144   8.865   8.906   7.888
15769SOL     OW49145   9.971   6.437   9.447
15769SOL    HW149146   9.909   6.386   9.394
15769SOL    HW249147   9.926   6.520   9.462
15770SOL     OW49148  14.292   9.636   0.293
15770SOL    HW149149  14.365   9.609   0.238
15770SOL    HW249150  14.274   9.560   0.347
15771SOL     OW49151  12.363  12.809   4.930
15771SOL    HW149152  12.372  12.741   4.863
15771SOL    HW249153  12.440  12.799   4.986
15772SOL     OW49154   8.580  12.269   7.015
15772SOL    HW149155   8.667  12.283   7.053
15772SOL    HW249156   8.581  12.320   6.934
15773SOL     OW49157   9.436  14.524   6.289
15773SOL    HW149158   9.429  14.453   6.225
15773SOL    HW249159   9.380  14.496   6.362
15774SOL     OW49160   5.903  14.552   9.299
15774SOL    HW149161   5.918  14.459   9.282
15774SOL    HW249162   5.888  14.557   9.393
15775SOL     OW49163  11.466  10.563   4.344
15775SOL    HW149164  11.540  10.622   4.330
15775SOL    HW249165  11.483  10.523   4.429
15776SOL     OW49166   3.434  14.307   5.237
15776SOL    HW149167   3.440  14.213   5.218
15776SOL    HW249168   3.359  14.315   5.295
15777SOL     OW49169   8.861   1.542   5.999
15777SOL    HW149170   8.793   1.544   5.932
15777SOL    HW249171   8.910   1.462   5.980
15778SOL     OW49172   1.221   2.953   6.703
15778SOL    HW149173   1.157   3.008   6.658
15778SOL    HW249174   1.169   2.887   6.749
15779SOL     OW49175   0.627   0.995   2.181
15779SOL    HW149176   0.576   1.072   2.155
15779SOL    HW249177   0.660   1.017   2.268
15780SOL     OW49178   7.214  11.750   4.627
15780SOL    HW149179   7.149  11.685   4.601
15780SOL    HW249180   7.228  11.734   4.721
15781SOL     OW49181   8.586   1.291   3.717
15781SOL    HW149182   8.637   1.278   3.797
15781SOL    HW249183   8.516   1.225   3.723
15782SOL     OW49184  14.054   9.836   4.855
15782SOL    HW149185  13.974   9.888   4.865
15782SOL    HW249186  14.121   9.899   4.829
15783SOL     OW49187   6.915   9.978  13.476
15783SOL    HW149188   6.972  10.055  13.477
15783SOL    HW249189   6.878   9.975  13.564
15784SOL     OW49190   8.747   4.308   2.126
15784SOL    HW149191   8.805   4.353   2.188
15784SOL    HW249192   8.786   4.325   2.040
15785SOL     OW49193   4.985   0.122   4.199
15785SOL    HW149194   5.050   0.051   4.198
15785SOL    HW249195   5.017   0.184   4.133
15786SOL     OW49196  12.272  11.015  10.179
15786SOL    HW149197  12.184  11.013  10.216
15786SOL    HW249198  12.259  11.037  10.087
15787SOL     OW49199  10.672  11.776   0.761
15787SOL    HW149200  10.757  11.734   0.751
15787SOL    HW249201  10.666  11.797   0.854
15788SOL     OW49202   2.728   4.634   3.918
15788SOL    HW149203   2.758   4.725   3.905
15788SOL    HW249204   2.788   4.599   3.984
15789SOL     OW49205  12.742  12.120   1.592
15789SOL    HW149206  12.684  12.196   1.599
15789SOL    HW249207  12.825  12.150   1.629
15790SOL     OW49208   1.007   7.006   3.787
15790SOL    HW149209   0.955   6.926   3.779
15790SOL    HW249210   0.954   7.073   3.743
15791SOL     OW49211   2.085   5.789   4.889
15791SOL    HW149212   2.080   5.694   4.899
15791SOL    HW249213   2.018   5.823   4.947
15792SOL     OW49214   4.366  14.196   0.586
15792SOL    HW149215   4.371  14.107   0.550
15792SOL    HW249216   4.320  14.185   0.669
15793SOL     OW49217   1.605  14.167  13.428
15793SOL    HW149218   1.696  14.194  13.443
15793SOL    HW249219   1.563  14.175  13.514
15794SOL     OW49220  13.801  10.759   7.029
15794SOL    HW149221  13.894  10.749   7.050
15794SOL    HW249222  13.757  10.766   7.113
15795SOL     OW49223   0.373   6.579   0.178
15795SOL    HW149224   0.421   6.498   0.167
15795SOL    HW249225   0.423   6.629   0.243
15796SOL     OW49226   3.152   9.059   6.330
15796SOL    HW149227   3.188   8.975   6.361
15796SOL    HW249228   3.129   9.043   6.239
15797SOL     OW49229  11.384   4.230   8.370
15797SOL    HW149230  11.347   4.302   8.420
15797SOL    HW249231  11.316   4.163   8.368
15798SOL     OW49232  12.177  11.039   4.961
15798SOL    HW149233  12.103  11.098   4.950
15798SOL    HW249234  12.198  11.043   5.055
15799SOL     OW49235  13.848   3.139   2.986
15799SOL    HW149236  13.842   3.232   3.008
15799SOL    HW249237  13.934   3.112   3.017
15800SOL     OW49238   9.656  10.907   1.485
15800SOL    HW149239   9.620  10.820   1.498
15800SOL    HW249240   9.701  10.927   1.567
15801SOL     OW49241   7.538  12.895   6.845
15801SOL    HW149242   7.581  12.980   6.834
15801SOL    HW249243   7.572  12.841   6.773
15802SOL     OW49244   0.649  11.552  12.418
15802SOL    HW149245   0.566  11.585  12.385
15802SOL    HW249246   0.654  11.583  12.508
15803SOL     OW49247  12.106  13.023   7.508
15803SOL    HW149248  12.191  12.984   7.490
15803SOL    HW249249  12.123  13.084   7.580
15804SOL     OW49250   0.641   2.808  13.760
15804SOL    HW149251   0.729   2.785  13.729
15804SOL    HW249252   0.627   2.750  13.835
15805SOL     OW49253   0.543  13.327   1.822
15805SOL    HW149254   0.636  13.345   1.839
15805SOL    HW249255   0.541  13.296   1.732
15806SOL     OW49256   2.790   1.491   7.404
15806SOL    HW149257   2.705   1.455   7.428
15806SOL    HW249258   2.853   1.439   7.453
15807SOL     OW49259  13.166   2.463   7.721
15807SOL    HW149260  13.212   2.424   7.796
15807SOL    HW249261  13.111   2.531   7.760
15808SOL     OW49262  11.984   3.268   1.449
15808SOL    HW149263  11.935   3.315   1.516
15808SOL    HW249264  11.986   3.328   1.374
15809SOL     OW49265   8.535   7.040  12.137
15809SOL    HW149266   8.601   7.018  12.071
15809SOL    HW249267   8.453   7.041  12.089
15810SOL     OW49268   2.401   1.316   3.154
15810SOL    HW149269   2.411   1.221   3.152
15810SOL    HW249270   2.324   1.334   3.100
15811SOL     OW49271   2.171  13.369   1.915
15811SOL    HW149272   2.157  13.464   1.913
15811SOL    HW249273   2.214  13.350   1.831
15812SOL     OW49274   2.710   9.379   1.047
15812SOL    HW149275   2.738   9.471   1.052
15812SOL    HW249276   2.631   9.381   0.993
15813SOL     OW49277   1.676   8.266   4.487
15813SOL    HW149278   1.679   8.357   4.457
15813SOL    HW249279   1.626   8.220   4.420
15814SOL     OW49280   7.794  13.683   7.308
15814SOL    HW149281   7.757  13.604   7.268
15814SOL    HW249282   7.870  13.652   7.356
15815SOL     OW49283   0.350   4.234   2.106
15815SOL    HW149284   0.322   4.310   2.158
15815SOL    HW249285   0.397   4.179   2.168
15816SOL     OW49286   5.523   6.802  10.752
15816SOL    HW149287   5.439   6.758  10.769
15816SOL    HW249288   5.508   6.851  10.671
15817SOL     OW49289  10.558  13.087  13.199
15817SOL    HW149290  10.491  13.150  13.173
15817SOL    HW249291  10.510  13.006  13.215
15818SOL     OW49292   7.620   4.151   0.267
15818SOL    HW149293   7.556   4.105   0.212
15818SOL    HW249294   7.598   4.124   0.356
15819SOL     OW49295   6.928  13.225   6.224
15819SOL    HW149296   6.910  13.174   6.145
15819SOL    HW249297   7.024  13.228   6.228
15820SOL     OW49298  14.328   9.520   7.755
15820SOL    HW149299  14.328   9.612   7.730
15820SOL    HW249300  14.270   9.515   7.831
15821SOL     OW49301   5.976   4.838   6.028
15821SOL    HW149302   5.970   4.920   5.979
15821SOL    HW249303   6.015   4.862   6.112
15822SOL     OW49304   2.042  13.363  10.776
15822SOL    HW149305   2.131  13.383  10.804
15822SOL    HW249306   2.017  13.286  10.829
15823SOL     OW49307  14.060   6.206  11.171
15823SOL    HW149308  14.107   6.130  11.139
15823SOL    HW249309  14.113   6.239  11.244
15824SOL     OW49310   6.917  11.221   7.712
15824SOL    HW149311   6.986  11.225   7.778
15824SOL    HW249312   6.955  11.170   7.640
15825SOL     OW49313   7.421  14.438  12.372
15825SOL    HW149314   7.413  14.353  12.414
15825SOL    HW249315   7.354  14.493  12.414
15826SOL     OW49316  12.840   7.233   0.538
15826SOL    HW149317  12.794   7.153   0.516
15826SOL    HW249318  12.788   7.303   0.497
15827SOL     OW49319  10.377   1.678   8.231
15827SOL    HW149320  10.440   1.657   8.300
15827SOL    HW249321  10.390   1.772   8.216
15828SOL     OW49322   0.936   5.692  12.736
15828SOL    HW149323   0.936   5.748  12.658
15828SOL    HW249324   1.021   5.647  12.733
15829SOL     OW49325   1.549   1.486   9.252
15829SOL    HW149326   1.636   1.524   9.256
15829SOL    HW249327   1.496   1.540   9.310
15830SOL     OW49328  13.320  13.999   1.708
15830SOL    HW149329  13.349  13.952   1.630
15830SOL    HW249330  13.327  13.935   1.779
15831SOL     OW49331   2.883   4.354  12.767
15831SOL    HW149332   2.895   4.269  12.810
15831SOL    HW249333   2.841   4.409  12.833
15832SOL     OW49334  14.374   5.124  10.499
15832SOL    HW149335  14.416   5.123  10.413
15832SOL    HW249336  14.434   5.074  10.555
15833SOL     OW49337   8.386   9.595   4.311
15833SOL    HW149338   8.309   9.638   4.348
15833SOL    HW249339   8.432   9.560   4.386
15834SOL     OW49340  12.427   0.299   1.333
15834SOL    HW149341  12.428   0.277   1.240
15834SOL    HW249342  12.336   0.285   1.360
15835SOL     OW49343   3.291   2.389   7.635
15835SOL    HW149344   3.338   2.320   7.589
15835SOL    HW249345   3.332   2.393   7.721
15836SOL     OW49346  13.858  14.498   6.045
15836SOL    HW149347  13.907  14.422   6.012
15836SOL    HW249348  13.801  14.462   6.113
15837SOL     OW49349   2.673   4.761  12.036
15837SOL    HW149350   2.747   4.763  12.096
15837SOL    HW249351   2.690   4.833  11.975
15838SOL     OW49352   4.213   0.310  12.018
15838SOL    HW149353   4.192   0.241  12.082
15838SOL    HW249354   4.165   0.387  12.050
15839SOL     OW49355   5.996   8.180   4.244
15839SOL    HW149356   6.004   8.274   4.229
15839SOL    HW249357   6.035   8.141   4.166
15840SOL     OW49358  12.076   2.601   4.425
15840SOL    HW149359  12.043   2.670   4.367
15840SOL    HW249360  12.036   2.521   4.391
15841SOL     OW49361   4.755   4.849   1.841
15841SOL    HW149362   4.699   4.771   1.844
15841SOL    HW249363   4.802   4.850   1.924
15842SOL     OW49364  10.905   8.923  12.477
15842SOL    HW149365  10.884   8.879  12.559
15842SOL    HW249366  10.860   9.007  12.483
15843SOL     OW49367   1.436   5.575   7.570
15843SOL    HW149368   1.388   5.588   7.652
15843SOL    HW249369   1.373   5.599   7.502
15844SOL     OW49370   9.441  10.362   1.947
15844SOL    HW149371   9.365  10.355   2.004
15844SOL    HW249372   9.420  10.435   1.888
15845SOL     OW49373   1.890  11.700   2.315
15845SOL    HW149374   1.983  11.675   2.310
15845SOL    HW249375   1.843  11.621   2.291
15846SOL     OW49376  13.144   7.079   0.296
15846SOL    HW149377  13.228   7.035   0.307
15846SOL    HW249378  13.080   7.008   0.292
15847SOL     OW49379   0.997   2.513  12.856
15847SOL    HW149380   0.918   2.468  12.829
15847SOL    HW249381   1.028   2.556  12.777
15848SOL     OW49382   0.930   1.220  10.878
15848SOL    HW149383   0.974   1.304  10.863
15848SOL    HW249384   0.843   1.244  10.909
15849SOL     OW49385  12.679   5.298   7.913
15849SOL    HW149386  12.636   5.213   7.907
15849SOL    HW249387  12.770   5.280   7.893
15850SOL     OW49388  14.876  10.885  11.894
15850SOL    HW149389   0.077  10.905  11.845
15850SOL    HW249390  14.811  10.865  11.826
15851SOL     OW49391  14.808  11.413   4.684
15851SOL    HW149392  14.855  11.480   4.634
15851SOL    HW249393  14.842  11.421   4.773
15852SOL     OW49394   4.391   9.523   5.190
15852SOL    HW149395   4.463   9.559   5.138
15852SOL    HW249396   4.425   9.441   5.224
15853SOL     OW49397  11.397  10.524   2.812
15853SOL    HW149398  11.443  10.442   2.827
15853SOL    HW249399  11.333  10.504   2.744
15854SOL     OW49400  11.790   6.409   5.586
15854SOL    HW149401  11.700   6.430   5.611
15854SOL    HW249402  11.789   6.407   5.491
15855SOL     OW49403   6.504   8.572  11.208
15855SOL    HW149404   6.512   8.571  11.303
15855SOL    HW249405   6.439   8.504  11.189
15856SOL     OW49406   7.182   8.058  12.605
15856SOL    HW149407   7.182   8.068  12.700
15856SOL    HW249408   7.089   8.062  12.580
15857SOL     OW49409  10.597  10.321   7.861
15857SOL    HW149410  10.515  10.272   7.871
15857SOL    HW249411  10.579  10.386   7.793
15858SOL     OW49412   5.137  13.763   9.554
15858SOL    HW149413   5.205  13.819   9.592
15858SOL    HW249414   5.182  13.681   9.532
15859SOL     OW49415  12.005  12.741  11.498
15859SOL    HW149416  11.924  12.691  11.494
15859SOL    HW249417  11.983  12.826  11.460
15860SOL     OW49418   3.604  10.363   8.089
15860SOL    HW149419   3.621  10.357   8.183
15860SOL    HW249420   3.691  10.372   8.050
15861SOL     OW49421   1.664   2.923  11.876
15861SOL    HW149422   1.585   2.906  11.928
15861SOL    HW249423   1.735   2.922  11.939
15862SOL     OW49424   0.002   5.196   1.638
15862SOL    HW149425   0.052   5.138   1.580
15862SOL    HW249426   0.047   5.280   1.631
15863SOL     OW49427   5.036  11.685  13.111
15863SOL    HW149428   5.012  11.651  13.025
15863SOL    HW249429   5.131  11.687  13.111
15864SOL     OW49430  14.606   3.782  13.931
15864SOL    HW149431  14.546   3.775  13.856
15864SOL    HW249432  14.680   3.726  13.907
15865SOL     OW49433  11.561   1.774   4.090
15865SOL    HW149434  11.654   1.788   4.104
15865SOL    HW249435  11.522   1.861   4.101
15866SOL     OW49436   6.552  13.926   4.032
15866SOL    HW149437   6.637  13.896   4.001
15866SOL    HW249438   6.560  14.022   4.034
15867SOL     OW49439   1.992  13.247   6.887
15867SOL    HW149440   1.905  13.218   6.860
15867SOL    HW249441   1.996  13.229   6.981
15868SOL     OW49442   8.940   5.025   6.137
15868SOL    HW149443   8.905   5.062   6.056
15868SOL    HW249444   9.033   5.048   6.136
15869SOL     OW49445   7.494   5.390  12.021
15869SOL    HW149446   7.525   5.350  11.939
15869SOL    HW249447   7.541   5.342  12.090
15870SOL     OW49448   5.250   9.138   2.477
15870SOL    HW149449   5.262   9.142   2.382
15870SOL    HW249450   5.203   9.218   2.499
15871SOL     OW49451   0.016   1.182   3.123
15871SOL    HW149452  14.856   1.095   3.124
15871SOL    HW249453  14.821   1.242   3.127
15872SOL     OW49454  13.856   9.086   8.065
15872SOL    HW149455  13.911   9.010   8.085
15872SOL    HW249456  13.906   9.135   8.000
15873SOL     OW49457  14.741  12.079   4.803
15873SOL    HW149458  14.723  11.999   4.852
15873SOL    HW249459  14.835  12.090   4.810
15874SOL     OW49460   8.185   3.584   8.190
15874SOL    HW149461   8.148   3.661   8.147
15874SOL    HW249462   8.122   3.563   8.259
15875SOL     OW49463  12.135   5.264  10.775
15875SOL    HW149464  12.205   5.243  10.837
15875SOL    HW249465  12.075   5.190  10.781
15876SOL     OW49466   5.834  13.965   2.522
15876SOL    HW149467   5.797  13.903   2.585
15876SOL    HW249468   5.884  14.027   2.576
15877SOL     OW49469  14.053   3.492  11.004
15877SOL    HW149470  14.003   3.551  11.060
15877SOL    HW249471  14.109   3.443  11.065
15878SOL     OW49472  12.517   7.416   7.611
15878SOL    HW149473  12.553   7.473   7.679
15878SOL    HW249474  12.523   7.328   7.648
15879SOL     OW49475   2.476   7.706  10.933
15879SOL    HW149476   2.380   7.707  10.937
15879SOL    HW249477   2.499   7.614  10.924
15880SOL     OW49478  13.334   4.029   5.502
15880SOL    HW149479  13.377   4.115   5.498
15880SOL    HW249480  13.319   4.014   5.596
15881SOL     OW49481  13.230   2.005   0.594
15881SOL    HW149482  13.177   2.011   0.673
15881SOL    HW249483  13.214   2.087   0.548
15882SOL     OW49484   9.668   2.991   4.881
15882SOL    HW149485   9.623   3.024   4.958
15882SOL    HW249486   9.748   2.951   4.916
15883SOL     OW49487   9.517  12.714  11.860
15883SOL    HW149488   9.538  12.773  11.788
15883SOL    HW249489   9.444  12.662  11.827
15884SOL     OW49490  12.018   7.120  11.832
15884SOL    HW149491  12.002   7.029  11.856
15884SOL    HW249492  12.089   7.116  11.769
15885SOL     OW49493  10.362  13.601   4.553
15885SOL    HW149494  10.287  13.542   4.558
15885SOL    HW249495  10.324  13.688   4.537
15886SOL     OW49496   6.698   1.801   9.957
15886SOL    HW149497   6.663   1.712   9.957
15886SOL    HW249498   6.792   1.789   9.943
15887SOL     OW49499   8.089   5.264   9.415
15887SOL    HW149500   8.035   5.185   9.413
15887SOL    HW249501   8.104   5.284   9.322
15888SOL     OW49502   9.377   5.706   5.139
15888SOL    HW149503   9.368   5.782   5.082
15888SOL    HW249504   9.297   5.705   5.192
15889SOL     OW49505   2.535   9.900  14.344
15889SOL    HW149506   2.566   9.914  14.254
15889SOL    HW249507   2.591   9.957  14.397
15890SOL     OW49508  11.689  13.433   5.033
15890SOL    HW149509  11.746  13.428   5.109
15890SOL    HW249510  11.704  13.521   4.998
15891SOL     OW49511   9.857   5.698   6.815
15891SOL    HW149512   9.953   5.701   6.812
15891SOL    HW249513   9.834   5.615   6.774
15892SOL     OW49514   6.232   7.480  12.473
15892SOL    HW149515   6.277   7.556  12.436
15892SOL    HW249516   6.184   7.442  12.399
15893SOL     OW49517   1.899   2.313   8.162
15893SOL    HW149518   1.907   2.289   8.254
15893SOL    HW249519   1.828   2.258   8.129
15894SOL     OW49520  11.226  10.958   0.603
15894SOL    HW149521  11.319  10.939   0.619
15894SOL    HW249522  11.216  10.950   0.509
15895SOL     OW49523   0.256   1.192   5.134
15895SOL    HW149524   0.304   1.126   5.083
15895SOL    HW249525   0.228   1.256   5.069
15896SOL     OW49526   3.719  13.218  10.157
15896SOL    HW149527   3.804  13.238  10.196
15896SOL    HW249528   3.656  13.272  10.204
15897SOL     OW49529   3.174   6.814   4.264
15897SOL    HW149530   3.209   6.832   4.176
15897SOL    HW249531   3.090   6.772   4.249
15898SOL     OW49532   8.063   0.168   2.517
15898SOL    HW149533   8.042   0.259   2.538
15898SOL    HW249534   8.095   0.171   2.426
15899SOL     OW49535   3.456  10.212   1.808
15899SOL    HW149536   3.495  10.212   1.720
15899SOL    HW249537   3.475  10.125   1.842
15900SOL     OW49538   4.917   1.631   9.642
15900SOL    HW149539   4.855   1.558   9.637
15900SOL    HW249540   4.972   1.611   9.717
15901SOL     OW49541  12.570   0.845   9.702
15901SOL    HW149542  12.599   0.756   9.722
15901SOL    HW249543  12.652   0.893   9.687
15902SOL     OW49544   3.014   8.838   9.756
15902SOL    HW149545   3.050   8.916   9.715
15902SOL    HW249546   3.024   8.769   9.691
15903SOL     OW49547   6.400   8.566  13.572
15903SOL    HW149548   6.376   8.658  13.582
15903SOL    HW249549   6.323   8.517  13.602
15904SOL     OW49550   0.601   5.248   4.765
15904SOL    HW149551   0.685   5.294   4.755
15904SOL    HW249552   0.581   5.256   4.858
15905SOL     OW49553  11.033   9.813  12.784
15905SOL    HW149554  10.995   9.725  12.786
15905SOL    HW249555  11.093   9.812  12.709
15906SOL     OW49556   0.125  12.148   0.673
15906SOL    HW149557   0.065  12.185   0.609
15906SOL    HW249558   0.212  12.168   0.638
15907SOL     OW49559   8.263  11.056   8.012
15907SOL    HW149560   8.235  11.140   7.976
15907SOL    HW249561   8.351  11.043   7.977
15908SOL     OW49562   6.275  14.476   0.227
15908SOL    HW149563   6.347  14.537   0.209
15908SOL    HW249564   6.301  14.432   0.308
15909SOL     OW49565   1.801   4.712   0.211
15909SOL    HW149566   1.738   4.758   0.267
15909SOL    HW249567   1.831   4.778   0.150
15910SOL     OW49568   6.820   5.579   2.667
15910SOL    HW149569   6.784   5.498   2.701
15910SOL    HW249570   6.785   5.586   2.578
15911SOL     OW49571   8.785   9.832   8.388
15911SOL    HW149572   8.702   9.834   8.436
15911SOL    HW249573   8.780   9.752   8.335
15912SOL     OW49574   0.713   0.422   2.931
15912SOL    HW149575   0.711   0.340   2.881
15912SOL    HW249576   0.778   0.406   2.999
15913SOL     OW49577  10.482  13.732   6.992
15913SOL    HW149578  10.476  13.822   7.026
15913SOL    HW249579  10.395  13.713   6.959
15914SOL     OW49580   9.072  13.894   3.126
15914SOL    HW149581   9.158  13.906   3.087
15914SOL    HW249582   9.073  13.805   3.159
15915SOL     OW49583  14.819   8.579  12.412
15915SOL    HW149584  14.860   8.644  12.354
15915SOL    HW249585   0.012   8.537  12.457
15916SOL     OW49586   1.398  13.412   1.741
15916SOL    HW149587   1.417  13.321   1.717
15916SOL    HW249588   1.373  13.408   1.833
15917SOL     OW49589  14.179   9.225  11.123
15917SOL    HW149590  14.110   9.290  11.134
15917SOL    HW249591  14.133   9.145  11.100
15918SOL     OW49592   2.238   5.008   8.043
15918SOL    HW149593   2.308   5.013   7.979
15918SOL    HW249594   2.160   4.985   7.992
15919SOL     OW49595   7.651   7.357  13.412
15919SOL    HW149596   7.559   7.355  13.439
15919SOL    HW249597   7.698   7.383  13.492
15920SOL     OW49598   0.626   2.132  13.975
15920SOL    HW149599   0.556   2.195  13.992
15920SOL    HW249600   0.584   2.065  13.921
15921SOL     OW49601   6.567   0.597   0.985
15921SOL    HW149602   6.488   0.575   1.035
15921SOL    HW249603   6.638   0.592   1.048
15922SOL     OW49604   7.173   3.496  13.507
15922SOL    HW149605   7.185   3.407  13.542
15922SOL    HW249606   7.093   3.490  13.455
15923SOL     OW49607  12.751  12.970  12.662
15923SOL    HW149608  12.807  13.043  12.688
15923SOL    HW249609  12.667  12.987  12.706
15924SOL     OW49610   5.962   5.327  12.418
15924SOL    HW149611   5.940   5.296  12.506
15924SOL    HW249612   6.051   5.295  12.403
15925SOL     OW49613   4.432   4.602   4.717
15925SOL    HW149614   4.437   4.676   4.656
15925SOL    HW249615   4.509   4.549   4.696
15926SOL     OW49616  13.789  11.227   7.629
15926SOL    HW149617  13.816  11.194   7.715
15926SOL    HW249618  13.696  11.206   7.623
15927SOL     OW49619   7.904  10.898  14.818
15927SOL    HW149620   7.925  10.989  14.793
15927SOL    HW249621   7.989  10.861  14.842
15928SOL     OW49622  13.902   8.635   8.968
15928SOL    HW149623  13.815   8.628   9.006
15928SOL    HW249624  13.959   8.656   9.042
15929SOL     OW49625   3.668   8.773  11.964
15929SOL    HW149626   3.747   8.827  11.960
15929SOL    HW249627   3.672   8.731  12.050
15930SOL     OW49628   6.544   2.247   5.731
15930SOL    HW149629   6.484   2.204   5.792
15930SOL    HW249630   6.585   2.175   5.684
15931SOL     OW49631  11.449   9.322   9.893
15931SOL    HW149632  11.367   9.290   9.853
15931SOL    HW249633  11.518   9.272   9.848
15932SOL     OW49634   9.533   9.935  11.968
15932SOL    HW149635   9.577   9.908  11.888
15932SOL    HW249636   9.560   9.870  12.033
15933SOL     OW49637   1.807   2.211  14.719
15933SOL    HW149638   1.766   2.278  14.664
15933SOL    HW249639   1.878   2.257  14.763
15934SOL     OW49640  13.885   1.126   2.655
15934SOL    HW149641  13.897   1.040   2.614
15934SOL    HW249642  13.868   1.107   2.747
15935SOL     OW49643  14.347   4.346   1.717
15935SOL    HW149644  14.343   4.316   1.627
15935SOL    HW249645  14.405   4.422   1.715
15936SOL     OW49646  11.681   7.758  10.005
15936SOL    HW149647  11.737   7.818   9.955
15936SOL    HW249648  11.658   7.808  10.084
15937SOL     OW49649   8.104   1.028   1.418
15937SOL    HW149650   8.086   0.992   1.331
15937SOL    HW249651   8.199   1.044   1.418
15938SOL     OW49652   1.196   5.701  13.406
15938SOL    HW149653   1.200   5.797  13.408
15938SOL    HW249654   1.109   5.681  13.442
15939SOL     OW49655   3.109   5.644   3.709
15939SOL    HW149656   3.055   5.570   3.682
15939SOL    HW249657   3.176   5.606   3.766
15940SOL     OW49658   6.846   9.010  10.420
15940SOL    HW149659   6.925   8.956  10.429
15940SOL    HW249660   6.863   9.086  10.475
15941SOL     OW49661   4.279   0.030   7.785
15941SOL    HW149662   4.200   0.082   7.797
15941SOL    HW249663   4.280   0.011   7.691
15942SOL     OW49664  13.044   2.761   1.382
15942SOL    HW149665  12.996   2.780   1.462
15942SOL    HW249666  12.981   2.778   1.312
15943SOL     OW49667  11.179  13.437   3.490
15943SOL    HW149668  11.138  13.492   3.557
15943SOL    HW249669  11.105  13.402   3.440
15944SOL     OW49670   9.995   5.750   3.907
15944SOL    HW149671  10.009   5.662   3.873
15944SOL    HW249672   9.922   5.784   3.856
15945SOL     OW49673  10.022  14.584   1.326
15945SOL    HW149674  10.088  14.533   1.374
15945SOL    HW249675   9.970  14.518   1.280
15946SOL     OW49676   8.735   6.323   8.006
15946SOL    HW149677   8.737   6.238   7.962
15946SOL    HW249678   8.673   6.375   7.956
15947SOL     OW49679   6.138  13.249   9.787
15947SOL    HW149680   6.200  13.237   9.715
15947SOL    HW249681   6.190  13.235   9.866
15948SOL     OW49682   3.879   3.937   9.716
15948SOL    HW149683   3.920   3.982   9.790
15948SOL    HW249684   3.950   3.886   9.676
15949SOL     OW49685   3.676  14.642  13.660
15949SOL    HW149686   3.678  14.696  13.580
15949SOL    HW249687   3.740  14.683  13.718
15950SOL     OW49688   6.051   0.642   9.803
15950SOL    HW149689   6.015   0.586   9.872
15950SOL    HW249690   6.136   0.603   9.782
15951SOL     OW49691  12.708   0.023  10.395
15951SOL    HW149692  12.767  14.857  10.335
15951SOL    HW249693  12.705  14.846  10.473
15952SOL     OW49694   0.976  14.421  13.307
15952SOL    HW149695   0.976  14.508  13.267
15952SOL    HW249696   0.884  14.394  13.303
15953SOL     OW49697   5.155   2.477   2.978
15953SOL    HW149698   5.157   2.474   3.074
15953SOL    HW249699   5.075   2.431   2.953
15954SOL     OW49700   6.733   8.682   1.385
15954SOL    HW149701   6.795   8.672   1.312
15954SOL    HW249702   6.710   8.593   1.409
15955SOL     OW49703   7.049   3.672  12.838
15955SOL    HW149704   7.136   3.681  12.877
15955SOL    HW249705   7.065   3.660  12.745
15956SOL     OW49706   2.147   1.106  11.125
15956SOL    HW149707   2.222   1.097  11.184
15956SOL    HW249708   2.072   1.079  11.178
15957SOL     OW49709   9.536   2.032  12.526
15957SOL    HW149710   9.616   2.072  12.563
15957SOL    HW249711   9.554   2.027  12.432
15958SOL     OW49712   3.008   1.522   1.794
15958SOL    HW149713   3.024   1.444   1.847
15958SOL    HW249714   2.971   1.488   1.713
15959SOL     OW49715  13.602   7.794   4.666
15959SOL    HW149716  13.687   7.750   4.661
15959SOL    HW249717  13.546   7.731   4.711
15960SOL     OW49718   3.647  10.949   4.193
15960SOL    HW149719   3.610  10.891   4.259
15960SOL    HW249720   3.703  11.009   4.241
15961SOL     OW49721   2.657   3.493   8.671
15961SOL    HW149722   2.618   3.490   8.758
15961SOL    HW249723   2.732   3.434   8.676
15962SOL     OW49724  10.858   2.842   3.163
15962SOL    HW149725  10.856   2.937   3.154
15962SOL    HW249726  10.771   2.813   3.133
15963SOL     OW49727   7.894   7.269   3.325
15963SOL    HW149728   7.837   7.341   3.352
15963SOL    HW249729   7.974   7.311   3.295
15964SOL     OW49730   7.128   1.808  12.043
15964SOL    HW149731   7.085   1.878  12.092
15964SOL    HW249732   7.077   1.730  12.061
15965SOL     OW49733  11.231  10.301   1.880
15965SOL    HW149734  11.277  10.380   1.851
15965SOL    HW249735  11.141  10.330   1.896
15966SOL     OW49736  11.359   9.879   1.199
15966SOL    HW149737  11.269   9.877   1.166
15966SOL    HW249738  11.389   9.788   1.195
15967SOL     OW49739   0.709   5.452   0.936
15967SOL    HW149740   0.769   5.377   0.942
15967SOL    HW249741   0.626   5.414   0.908
15968SOL     OW49742  13.567   0.057   2.800
15968SOL    HW149743  13.649   0.026   2.762
15968SOL    HW249744  13.550   0.140   2.756
15969SOL     OW49745   8.463  10.772  10.914
15969SOL    HW149746   8.508  10.697  10.874
15969SOL    HW249747   8.471  10.756  11.008
15970SOL     OW49748   0.152   0.582  14.586
15970SOL    HW149749   0.228   0.640  14.594
15970SOL    HW249750   0.077   0.641  14.589
15971SOL     OW49751   2.569  11.517   1.064
15971SOL    HW149752   2.480  11.528   1.098
15971SOL    HW249753   2.590  11.425   1.082
15972SOL     OW49754  13.817   2.603   1.452
15972SOL    HW149755  13.882   2.532   1.449
15972SOL    HW249756  13.742   2.564   1.496
15973SOL     OW49757  10.939   9.964   3.823
15973SOL    HW149758  10.926  10.052   3.858
15973SOL    HW249759  10.957   9.978   3.730
15974SOL     OW49760   5.048   3.140  11.059
15974SOL    HW149761   5.134   3.116  11.095
15974SOL    HW249762   5.067   3.166  10.969
15975SOL     OW49763   1.871   7.276   6.446
15975SOL    HW149764   1.876   7.186   6.476
15975SOL    HW249765   1.960   7.310   6.458
15976SOL     OW49766  14.873   4.062  13.663
15976SOL    HW149767   0.005   4.024  13.576
15976SOL    HW249768  14.781   4.084  13.668
15977SOL     OW49769   4.941   3.129   3.040
15977SOL    HW149770   4.945   3.075   2.961
15977SOL    HW249771   5.033   3.142   3.064
15978SOL     OW49772  13.756  11.884  10.928
15978SOL    HW149773  13.740  11.866  10.836
15978SOL    HW249774  13.831  11.943  10.929
15979SOL     OW49775  13.098   8.005   7.678
15979SOL    HW149776  13.052   7.986   7.759
15979SOL    HW249777  13.117   7.919   7.640
15980SOL     OW49778   6.614  13.736   8.621
15980SOL    HW149779   6.617  13.799   8.549
15980SOL    HW249780   6.521  13.731   8.643
15981SOL     OW49781   9.208   3.210  10.667
15981SOL    HW149782   9.177   3.194  10.578
15981SOL    HW249783   9.292   3.254  10.655
15982SOL     OW49784   9.734   1.002   3.993
15982SOL    HW149785   9.737   0.934   3.926
15982SOL    HW249786   9.825   1.012   4.022
15983SOL     OW49787   3.640  10.271  11.336
15983SOL    HW149788   3.725  10.269  11.292
15983SOL    HW249789   3.651  10.210  11.409
15984SOL     OW49790  12.288  11.930  10.948
15984SOL    HW149791  12.276  12.018  10.985
15984SOL    HW249792  12.302  11.874  11.024
15985SOL     OW49793   7.155   1.208   1.315
15985SOL    HW149794   7.082   1.172   1.264
15985SOL    HW249795   7.114   1.272   1.373
15986SOL     OW49796  11.895   3.213   4.362
15986SOL    HW149797  11.857   3.294   4.326
15986SOL    HW249798  11.945   3.176   4.290
15987SOL     OW49799   7.277  14.700  10.680
15987SOL    HW149800   7.228  14.729  10.757
15987SOL    HW249801   7.272  14.774  10.619
15988SOL     OW49802   3.977   8.619  13.094
15988SOL    HW149803   3.938   8.700  13.060
15988SOL    HW249804   4.027   8.584  13.021
15989SOL     OW49805  10.466   2.378  13.697
15989SOL    HW149806  10.385   2.395  13.746
15989SOL    HW249807  10.536   2.391  13.762
15990SOL     OW49808  14.575   7.976   8.407
15990SOL    HW149809  14.651   7.984   8.350
15990SOL    HW249810  14.509   7.933   8.353
15991SOL     OW49811  13.125  10.236   4.837
15991SOL    HW149812  13.218  10.220   4.849
15991SOL    HW249813  13.119  10.329   4.815
15992SOL     OW49814  12.656  11.707   3.605
15992SOL    HW149815  12.667  11.620   3.566
15992SOL    HW249816  12.744  11.745   3.606
15993SOL     OW49817   6.939  10.432   9.164
15993SOL    HW149818   6.978  10.517   9.146
15993SOL    HW249819   6.930  10.429   9.260
15994SOL     OW49820   9.602   6.185   0.538
15994SOL    HW149821   9.553   6.131   0.601
15994SOL    HW249822   9.643   6.122   0.479
15995SOL     OW49823   8.677   3.777   2.156
15995SOL    HW149824   8.760   3.730   2.169
15995SOL    HW249825   8.704   3.869   2.150
15996SOL     OW49826   9.738  14.362   8.151
15996SOL    HW149827   9.770  14.280   8.114
15996SOL    HW249828   9.649  14.343   8.179
15997SOL     OW49829  11.549   3.855   4.514
15997SOL    HW149830  11.521   3.765   4.532
15997SOL    HW249831  11.626   3.868   4.569
15998SOL     OW49832   2.320   9.460   3.496
15998SOL    HW149833   2.384   9.454   3.567
15998SOL    HW249834   2.372   9.464   3.416
15999SOL     OW49835   8.617  13.961   5.889
15999SOL    HW149836   8.662  14.045   5.875
15999SOL    HW249837   8.602  13.927   5.801
16000SOL     OW49838   1.958   8.861   4.343
16000SOL    HW149839   1.994   8.806   4.274
16000SOL    HW249840   1.935   8.943   4.298
16001SOL     OW49841   0.154   0.522   1.785
16001SOL    HW149842   0.135   0.592   1.722
16001SOL    HW249843   0.250   0.515   1.784
16002SOL     OW49844   2.138  14.737  11.513
16002SOL    HW149845   2.091  14.657  11.492
16002SOL    HW249846   2.125  14.748  11.608
16003SOL     OW49847  13.115  13.397  13.972
16003SOL    HW149848  13.154  13.481  13.997
16003SOL    HW249849  13.034  13.421  13.927
16004SOL     OW49850   7.369   8.427  10.042
16004SOL    HW149851   7.409   8.510  10.016
16004SOL    HW249852   7.314   8.449  10.117
16005SOL     OW49853   8.861   8.590  10.978
16005SOL    HW149854   8.825   8.676  10.960
16005SOL    HW249855   8.797   8.528  10.943
16006SOL     OW49856  14.066   8.274   2.392
16006SOL    HW149857  14.108   8.247   2.311
16006SOL    HW249858  14.081   8.368   2.397
16007SOL     OW49859   2.683   3.191   1.301
16007SOL    HW149860   2.761   3.232   1.264
16007SOL    HW249861   2.625   3.264   1.322
16008SOL     OW49862   8.543   4.289   7.467
16008SOL    HW149863   8.529   4.234   7.544
16008SOL    HW249864   8.635   4.314   7.472
16009SOL     OW49865   2.877  10.446   9.775
16009SOL    HW149866   2.944  10.437   9.708
16009SOL    HW249867   2.809  10.384   9.750
16010SOL     OW49868   3.883  11.235   7.743
16010SOL    HW149869   3.948  11.165   7.749
16010SOL    HW249870   3.895  11.286   7.823
16011SOL     OW49871   6.310   8.443   3.151
16011SOL    HW149872   6.392   8.492   3.143
16011SOL    HW249873   6.337   8.356   3.181
16012SOL     OW49874   7.252  10.937   0.185
16012SOL    HW149875   7.208  10.884   0.252
16012SOL    HW249876   7.196  10.929   0.108
16013SOL     OW49877  11.461   1.193   3.775
16013SOL    HW149878  11.459   1.115   3.831
16013SOL    HW249879  11.533   1.176   3.714
16014SOL     OW49880   6.792   2.238  13.768
16014SOL    HW149881   6.785   2.274  13.857
16014SOL    HW249882   6.767   2.310  13.711
16015SOL     OW49883   9.658   0.348   5.274
16015SOL    HW149884   9.703   0.264   5.285
16015SOL    HW249885   9.682   0.377   5.186
16016SOL     OW49886   1.943  10.291  13.422
16016SOL    HW149887   1.938  10.340  13.340
16016SOL    HW249888   2.019  10.328  13.467
16017SOL     OW49889  10.456  12.428   4.277
16017SOL    HW149890  10.368  12.396   4.258
16017SOL    HW249891  10.471  12.403   4.369
16018SOL     OW49892   4.569   3.391  13.544
16018SOL    HW149893   4.620   3.351  13.474
16018SOL    HW249894   4.484   3.410  13.505
16019SOL     OW49895  13.115  11.858   6.238
16019SOL    HW149896  13.082  11.799   6.306
16019SOL    HW249897  13.053  11.931   6.238
16020SOL     OW49898   8.778   1.872   5.742
16020SOL    HW149899   8.837   1.808   5.704
16020SOL    HW249900   8.801   1.874   5.835
16021SOL     OW49901   1.130   1.121   0.830
16021SOL    HW149902   1.182   1.087   0.758
16021SOL    HW249903   1.063   1.054   0.845
16022SOL     OW49904   2.784   6.016   8.588
16022SOL    HW149905   2.755   5.963   8.663
16022SOL    HW249906   2.708   6.020   8.530
16023SOL     OW49907  13.451   2.455  13.109
16023SOL    HW149908  13.371   2.470  13.159
16023SOL    HW249909  13.438   2.502  13.027
16024SOL     OW49910   7.776   7.594   2.441
16024SOL    HW149911   7.693   7.550   2.461
16024SOL    HW249912   7.818   7.538   2.376
16025SOL     OW49913   5.145   8.585   4.570
16025SOL    HW149914   5.053   8.609   4.577
16025SOL    HW249915   5.144   8.500   4.526
16026SOL     OW49916  13.016   9.107   4.311
16026SOL    HW149917  12.961   9.078   4.238
16026SOL    HW249918  13.070   9.031   4.332
16027SOL     OW49919  14.627   4.377   5.202
16027SOL    HW149920  14.604   4.462   5.165
16027SOL    HW249921  14.546   4.326   5.195
16028SOL     OW49922  11.252   9.004   6.443
16028SOL    HW149923  11.229   8.975   6.354
16028SOL    HW249924  11.221   9.094   6.448
16029SOL     OW49925   1.142   4.518   4.976
16029SOL    HW149926   1.182   4.444   4.930
16029SOL    HW249927   1.166   4.505   5.067
16030SOL     OW49928   6.003   8.655   0.436
16030SOL    HW149929   6.056   8.581   0.464
16030SOL    HW249930   6.032   8.673   0.347
16031SOL     OW49931  11.274   5.785  13.620
16031SOL    HW149932  11.331   5.737  13.559
16031SOL    HW249933  11.216   5.835  13.563
16032SOL     OW49934  11.619   6.225  10.667
16032SOL    HW149935  11.703   6.195  10.633
16032SOL    HW249936  11.618   6.195  10.758
16033SOL     OW49937   5.422   0.867  14.179
16033SOL    HW149938   5.419   0.960  14.202
16033SOL    HW249939   5.469   0.826  14.252
16034SOL     OW49940   7.348   5.570   1.719
16034SOL    HW149941   7.253   5.570   1.710
16034SOL    HW249942   7.370   5.660   1.743
16035SOL     OW49943  13.105   9.278   1.531
16035SOL    HW149944  13.124   9.266   1.438
16035SOL    HW249945  13.173   9.337   1.562
16036SOL     OW49946   3.985  13.768  12.802
16036SOL    HW149947   4.061  13.742  12.853
16036SOL    HW249948   3.959  13.853  12.839
16037SOL     OW49949   3.048   9.105   5.481
16037SOL    HW149950   3.136   9.127   5.512
16037SOL    HW249951   2.990   9.127   5.553
16038SOL     OW49952  11.566  11.121   3.507
16038SOL    HW149953  11.493  11.126   3.444
16038SOL    HW249954  11.643  11.102   3.453
16039SOL     OW49955   1.003   0.704   9.519
16039SOL    HW149956   0.972   0.626   9.565
16039SOL    HW249957   0.933   0.768   9.529
16040SOL     OW49958   3.122  12.245  12.034
16040SOL    HW149959   3.069  12.275  11.960
16040SOL    HW249960   3.186  12.186  11.995
16041SOL     OW49961  12.073  11.515   3.133
16041SOL    HW149962  11.980  11.539   3.134
16041SOL    HW249963  12.091  11.490   3.043
16042SOL     OW49964   4.159  13.762   9.437
16042SOL    HW149965   4.181  13.670   9.420
16042SOL    HW249966   4.068  13.759   9.467
16043SOL     OW49967   0.582  14.733   5.209
16043SOL    HW149968   0.580  14.686   5.292
16043SOL    HW249969   0.624  14.673   5.147
16044SOL     OW49970  14.024   8.710   5.887
16044SOL    HW149971  14.106   8.752   5.861
16044SOL    HW249972  13.967   8.783   5.910
16045SOL     OW49973   1.798  13.026  12.725
16045SOL    HW149974   1.868  12.972  12.762
16045SOL    HW249975   1.786  12.992  12.636
16046SOL     OW49976  12.457   6.122   5.078
16046SOL    HW149977  12.410   6.073   5.146
16046SOL    HW249978  12.520   6.060   5.043
16047SOL     OW49979  11.462   0.278  12.227
16047SOL    HW149980  11.473   0.239  12.140
16047SOL    HW249981  11.384   0.236  12.262
16048SOL     OW49982   2.518   4.451   9.566
16048SOL    HW149983   2.457   4.388   9.529
16048SOL    HW249984   2.599   4.401   9.578
16049SOL     OW49985   3.902   3.614  10.918
16049SOL    HW149986   3.836   3.657  10.972
16049SOL    HW249987   3.958   3.685  10.887
16050SOL     OW49988  12.427   5.861   8.936
16050SOL    HW149989  12.336   5.876   8.961
16050SOL    HW249990  12.436   5.905   8.852
16051SOL     OW49991  13.400  11.805   7.018
16051SOL    HW149992  13.315  11.848   7.025
16051SOL    HW249993  13.399  11.738   7.086
16052SOL     OW49994   4.603   9.565  11.870
16052SOL    HW149995   4.673   9.544  11.809
16052SOL    HW249996   4.577   9.481  11.907
16053SOL     OW49997   2.642  11.451   5.110
16053SOL    HW149998   2.733  11.455   5.082
16053SOL    HW249999   2.633  11.524   5.171
16054SOL     OW50000  11.370   6.319   4.345
16054SOL    HW150001  11.360   6.232   4.383
16054SOL    HW250002  11.380   6.304   4.251
16055SOL     OW50003   6.566   4.239   2.705
16055SOL    HW150004   6.612   4.304   2.758
16055SOL    HW250005   6.482   4.228   2.749
16056SOL     OW50006   2.883   6.069   6.482
16056SOL    HW150007   2.898   6.148   6.431
16056SOL    HW250008   2.969   6.044   6.514
16057SOL     OW50009   1.069  10.705   5.489
16057SOL    HW150010   1.143  10.765   5.486
16057SOL    HW250011   1.086  10.642   5.419
16058SOL     OW50012   3.386   3.837   1.791
16058SOL    HW150013   3.463   3.793   1.757
16058SOL    HW250014   3.324   3.836   1.718
16059SOL     OW50015  10.729   6.117   9.913
16059SOL    HW150016  10.800   6.154   9.966
16059SOL    HW250017  10.735   6.162   9.829
16060SOL     OW50018   8.659   9.750   0.420
16060SOL    HW150019   8.709   9.831   0.408
16060SOL    HW250020   8.635   9.723   0.332
16061SOL     OW50021   8.117   0.726   8.582
16061SOL    HW150022   8.072   0.766   8.508
16061SOL    HW250023   8.084   0.636   8.583
16062SOL     OW50024  12.073  14.384   7.681
16062SOL    HW150025  12.111  14.315   7.735
16062SOL    HW250026  12.072  14.461   7.737
16063SOL     OW50027  10.112  12.241  13.716
16063SOL    HW150028  10.122  12.218  13.808
16063SOL    HW250029  10.046  12.180  13.683
16064SOL     OW50030   8.924   7.839   1.166
16064SOL    HW150031   8.905   7.758   1.119
16064SOL    HW250032   8.973   7.811   1.244
16065SOL     OW50033   7.972  12.522  11.506
16065SOL    HW150034   7.967  12.616  11.489
16065SOL    HW250035   7.883  12.497  11.533
16066SOL     OW50036   7.172   6.207   2.340
16066SOL    HW150037   7.167   6.253   2.256
16066SOL    HW250038   7.265   6.186   2.350
16067SOL     OW50039  14.278   5.927  13.895
16067SOL    HW150040  14.372   5.911  13.904
16067SOL    HW250041  14.271   6.021  13.880
16068SOL     OW50042   3.763   4.783   4.334
16068SOL    HW150043   3.765   4.866   4.380
16068SOL    HW250044   3.843   4.738   4.362
16069SOL     OW50045   4.468  13.676   4.285
16069SOL    HW150046   4.415  13.738   4.334
16069SOL    HW250047   4.443  13.689   4.194
16070SOL     OW50048  13.511  12.111   0.509
16070SOL    HW150049  13.443  12.178   0.500
16070SOL    HW250050  13.566  12.123   0.432
16071SOL     OW50051   7.236   0.626   7.504
16071SOL    HW150052   7.146   0.611   7.533
16071SOL    HW250053   7.239   0.586   7.417
16072SOL     OW50054  11.521   7.900   1.792
16072SOL    HW150055  11.431   7.867   1.788
16072SOL    HW250056  11.569   7.835   1.842
16073SOL     OW50057   9.470   9.968   1.032
16073SOL    HW150058   9.553   9.920   1.022
16073SOL    HW250059   9.452   9.965   1.126
16074SOL     OW50060   2.585  10.168  12.718
16074SOL    HW150061   2.551  10.132  12.799
16074SOL    HW250062   2.522  10.141  12.651
16075SOL     OW50063   3.351   2.616   0.527
16075SOL    HW150064   3.372   2.588   0.438
16075SOL    HW250065   3.262   2.649   0.522
16076SOL     OW50066  13.405  14.455   6.659
16076SOL    HW150067  13.333  14.500   6.702
16076SOL    HW250068  13.458  14.526   6.621
16077SOL     OW50069   5.185  12.666   1.639
16077SOL    HW150070   5.221  12.602   1.700
16077SOL    HW250071   5.171  12.618   1.558
16078SOL     OW50072   9.951   5.978   6.823
16078SOL    HW150073   9.928   5.905   6.880
16078SOL    HW250074   9.984   5.936   6.743
16079SOL     OW50075  13.391  11.147   4.206
16079SOL    HW150076  13.300  11.153   4.178
16079SOL    HW250077  13.407  11.053   4.215
16080SOL     OW50078   8.424   1.569  14.746
16080SOL    HW150079   8.384   1.632  14.687
16080SOL    HW250080   8.479   1.515  14.689
16081SOL     OW50081   8.410  11.810   7.163
16081SOL    HW150082   8.399  11.743   7.231
16081SOL    HW250083   8.404  11.893   7.211
16082SOL     OW50084  13.500  13.712   7.305
16082SOL    HW150085  13.514  13.676   7.217
16082SOL    HW250086  13.407  13.696   7.323
16083SOL     OW50087   5.624  10.845  13.976
16083SOL    HW150088   5.605  10.914  13.913
16083SOL    HW250089   5.657  10.891  14.053
16084SOL     OW50090   0.513   7.222  13.065
16084SOL    HW150091   0.491   7.134  13.096
16084SOL    HW250092   0.471   7.281  13.127
16085SOL     OW50093   0.147   8.306   7.613
16085SOL    HW150094   0.151   8.398   7.587
16085SOL    HW250095   0.074   8.301   7.674
16086SOL     OW50096  14.036  11.544  11.610
16086SOL    HW150097  14.130  11.537  11.626
16086SOL    HW250098  13.995  11.507  11.688
16087SOL     OW50099   6.880   2.167   1.445
16087SOL    HW150100   6.897   2.252   1.485
16087SOL    HW250101   6.788   2.170   1.420
16088SOL     OW50102  10.597   3.195  14.605
16088SOL    HW150103  10.665   3.132  14.628
16088SOL    HW250104  10.529   3.183  14.672
16089SOL     OW50105   6.746   2.229   8.743
16089SOL    HW150106   6.655   2.246   8.718
16089SOL    HW250107   6.750   2.250   8.836
16090SOL     OW50108  11.489   2.745  13.502
16090SOL    HW150109  11.509   2.739  13.408
16090SOL    HW250110  11.409   2.694  13.513
16091SOL     OW50111  11.508   5.749   7.350
16091SOL    HW150112  11.457   5.816   7.304
16091SOL    HW250113  11.527   5.788   7.435
16092SOL     OW50114  14.298   8.628   5.046
16092SOL    HW150115  14.296   8.650   5.139
16092SOL    HW250116  14.211   8.591   5.029
16093SOL     OW50117  14.186   3.711   0.967
16093SOL    HW150118  14.150   3.795   0.996
16093SOL    HW250119  14.251   3.734   0.901
16094SOL     OW50120  13.141   8.885   4.372
16094SOL    HW150121  13.115   8.883   4.465
16094SOL    HW250122  13.111   8.802   4.337
16095SOL     OW50123   9.957   5.590   6.270
16095SOL    HW150124   9.900   5.577   6.194
16095SOL    HW250125   9.896   5.612   6.341
16096SOL     OW50126  14.554   9.178   2.543
16096SOL    HW150127  14.498   9.255   2.528
16096SOL    HW250128  14.510   9.108   2.495
16097SOL     OW50129  10.932   4.503  11.831
16097SOL    HW150130  10.945   4.516  11.737
16097SOL    HW250131  11.018   4.521  11.869
16098SOL     OW50132   5.869   6.259   4.239
16098SOL    HW150133   5.872   6.352   4.264
16098SOL    HW250134   5.833   6.259   4.151
16099SOL     OW50135   5.187  13.281  13.005
16099SOL    HW150136   5.225  13.247  13.085
16099SOL    HW250137   5.120  13.217  12.981
16100SOL     OW50138  11.485   0.854  10.639
16100SOL    HW150139  11.580   0.851  10.653
16100SOL    HW250140  11.472   0.804  10.558
16101SOL     OW50141  12.911  13.596   7.648
16101SOL    HW150142  12.933  13.644   7.729
16101SOL    HW250143  12.949  13.649   7.578
16102SOL     OW50144   2.884   6.592  13.895
16102SOL    HW150145   2.947   6.531  13.935
16102SOL    HW250146   2.928   6.622  13.815
16103SOL     OW50147   5.650   8.644   6.092
16103SOL    HW150148   5.730   8.630   6.042
16103SOL    HW250149   5.657   8.733   6.125
16104SOL     OW50150   6.975   2.660   4.877
16104SOL    HW150151   7.063   2.633   4.905
16104SOL    HW250152   6.957   2.739   4.928
16105SOL     OW50153   1.850   9.095  13.901
16105SOL    HW150154   1.853   9.073  13.808
16105SOL    HW250155   1.919   9.041  13.941
16106SOL     OW50156   2.327   8.186   0.016
16106SOL    HW150157   2.406   8.175   0.069
16106SOL    HW250158   2.304   8.278   0.026
16107SOL     OW50159   6.902   3.845   9.710
16107SOL    HW150160   6.861   3.918   9.663
16107SOL    HW250161   6.989   3.878   9.734
16108SOL     OW50162   6.020  12.145   9.059
16108SOL    HW150163   6.085  12.207   9.092
16108SOL    HW250164   6.072  12.073   9.023
16109SOL     OW50165   8.150  14.631   6.227
16109SOL    HW150166   8.185  14.563   6.284
16109SOL    HW250167   8.070  14.660   6.270
16110SOL     OW50168   2.901   2.620  13.083
16110SOL    HW150169   2.830   2.656  13.137
16110SOL    HW250170   2.897   2.525  13.098
16111SOL     OW50171  10.878   3.477   1.692
16111SOL    HW150172  10.973   3.487   1.697
16111SOL    HW250173  10.846   3.501   1.779
16112SOL     OW50174  10.430  11.248   8.191
16112SOL    HW150175  10.387  11.168   8.162
16112SOL    HW250176  10.368  11.318   8.171
16113SOL     OW50177  13.611   9.728  12.943
16113SOL    HW150178  13.677   9.771  12.888
16113SOL    HW250179  13.633   9.755  13.032
16114SOL     OW50180  14.592   2.730   0.249
16114SOL    HW150181  14.672   2.780   0.267
16114SOL    HW250182  14.522   2.795   0.258
16115SOL     OW50183  12.975  12.358   7.897
16115SOL    HW150184  13.070  12.373   7.900
16115SOL    HW250185  12.941  12.431   7.846
16116SOL     OW50186  10.858   8.988   7.814
16116SOL    HW150187  10.799   8.999   7.740
16116SOL    HW250188  10.821   8.915   7.864
16117SOL     OW50189  13.562   2.375   0.320
16117SOL    HW150190  13.498   2.305   0.332
16117SOL    HW250191  13.545   2.408   0.231
16118SOL     OW50192   8.250   2.949   5.946
16118SOL    HW150193   8.187   2.877   5.952
16118SOL    HW250194   8.280   2.946   5.855
16119SOL     OW50195   9.611   5.488   8.501
16119SOL    HW150196   9.519   5.486   8.527
16119SOL    HW250197   9.609   5.474   8.406
16120SOL     OW50198   2.658   6.550   0.123
16120SOL    HW150199   2.689   6.593   0.203
16120SOL    HW250200   2.697   6.599   0.052
16121SOL     OW50201   1.303  14.153   8.703
16121SOL    HW150202   1.353  14.079   8.738
16121SOL    HW250203   1.214  14.118   8.692
16122SOL     OW50204  12.357   2.254  12.943
16122SOL    HW150205  12.276   2.263  12.994
16122SOL    HW250206  12.365   2.336  12.895
16123SOL     OW50207  12.719   6.044   2.670
16123SOL    HW150208  12.764   5.967   2.706
16123SOL    HW250209  12.756   6.053   2.582
16124SOL     OW50210   0.834   7.872   6.619
16124SOL    HW150211   0.873   7.865   6.706
16124SOL    HW250212   0.871   7.800   6.569
16125SOL     OW50213   6.325  12.472  14.328
16125SOL    HW150214   6.362  12.385  14.312
16125SOL    HW250215   6.391  12.532  14.293
16126SOL     OW50216   5.006  10.160   7.292
16126SOL    HW150217   5.079  10.110   7.256
16126SOL    HW250218   4.928  10.115   7.261
16127SOL     OW50219   8.011   6.599   1.193
16127SOL    HW150220   8.055   6.579   1.110
16127SOL    HW250221   8.018   6.694   1.200
16128SOL     OW50222  12.482   2.653  10.303
16128SOL    HW150223  12.401   2.695  10.332
16128SOL    HW250224  12.527   2.721  10.253
16129SOL     OW50225   6.382   0.838  10.749
16129SOL    HW150226   6.429   0.922  10.751
16129SOL    HW250227   6.412   0.797  10.668
16130SOL     OW50228  10.610  11.136   5.230
16130SOL    HW150229  10.636  11.223   5.202
16130SOL    HW250230  10.692  11.088   5.240
16131SOL     OW50231   3.316   6.699  11.292
16131SOL    HW150232   3.388   6.642  11.320
16131SOL    HW250233   3.335   6.783  11.333
16132SOL     OW50234   4.433   7.301   0.238
16132SOL    HW150235   4.463   7.211   0.228
16132SOL    HW250236   4.341   7.299   0.214
16133SOL     OW50237   5.957   7.089  12.647
16133SOL    HW150238   6.030   7.035  12.677
16133SOL    HW250239   5.912   7.116  12.727
16134SOL     OW50240  13.247   3.084  14.649
16134SOL    HW150241  13.283   3.152  14.707
16134SOL    HW250242  13.323   3.050  14.603
16135SOL     OW50243   3.498   5.804   6.640
16135SOL    HW150244   3.548   5.863   6.583
16135SOL    HW250245   3.565   5.755   6.688
16136SOL     OW50246   7.165   5.900  13.981
16136SOL    HW150247   7.148   5.968  13.916
16136SOL    HW250248   7.250   5.925  14.018
16137SOL     OW50249   6.361   7.085  14.572
16137SOL    HW150250   6.383   7.005  14.619
16137SOL    HW250251   6.277   7.113  14.609
16138SOL     OW50252  14.094   5.842  14.507
16138SOL    HW150253  14.150   5.920  14.508
16138SOL    HW250254  14.050   5.843  14.592
16139SOL     OW50255   5.045  11.968   6.709
16139SOL    HW150256   5.048  12.063   6.702
16139SOL    HW250257   5.137  11.941   6.705
16140SOL     OW50258   4.626   5.336  14.408
16140SOL    HW150259   4.711   5.371  14.381
16140SOL    HW250260   4.562   5.382  14.354
16141SOL     OW50261   1.830   9.682   8.106
16141SOL    HW150262   1.753   9.676   8.049
16141SOL    HW250263   1.812   9.757   8.163
16142SOL     OW50264  11.837   6.040   9.055
16142SOL    HW150265  11.809   6.038   9.146
16142SOL    HW250266  11.911   6.102   9.054
16143SOL     OW50267   1.739   7.390   4.800
16143SOL    HW150268   1.742   7.459   4.735
16143SOL    HW250269   1.715   7.434   4.882
16144SOL     OW50270   2.778  12.765  10.719
16144SOL    HW150271   2.709  12.788  10.782
16144SOL    HW250272   2.825  12.693  10.761
16145SOL     OW50273  14.473   2.772   2.466
16145SOL    HW150274  14.394   2.818   2.495
16145SOL    HW250275  14.440   2.702   2.409
16146SOL     OW50276  11.539   2.250   4.698
16146SOL    HW150277  11.484   2.223   4.771
16146SOL    HW250278  11.569   2.338   4.721
16147SOL     OW50279   4.795  10.001   1.205
16147SOL    HW150280   4.854  10.070   1.173
16147SOL    HW250281   4.825   9.982   1.293
16148SOL     OW50282  14.761  10.822   5.723
16148SOL    HW150283  14.706  10.860   5.655
16148SOL    HW250284  14.698  10.780   5.782
16149SOL     OW50285  10.263   2.418   1.090
16149SOL    HW150286  10.322   2.489   1.066
16149SOL    HW250287  10.229   2.443   1.176
16150SOL     OW50288  13.880   5.685   4.307
16150SOL    HW150289  13.922   5.630   4.373
16150SOL    HW250290  13.913   5.652   4.224
16151SOL     OW50291  14.455  11.379   1.182
16151SOL    HW150292  14.377  11.332   1.151
16151SOL    HW250293  14.522  11.360   1.115
16152SOL     OW50294   9.688   6.344   5.386
16152SOL    HW150295   9.636   6.349   5.466
16152SOL    HW250296   9.640   6.397   5.322
16153SOL     OW50297   6.727   6.553   1.802
16153SOL    HW150298   6.798   6.490   1.813
16153SOL    HW250299   6.760   6.633   1.842
16154SOL     OW50300  13.933  10.237   4.951
16154SOL    HW150301  13.954  10.216   5.042
16154SOL    HW250302  13.933  10.152   4.907
16155SOL     OW50303   8.855  11.928  13.519
16155SOL    HW150304   8.895  11.994  13.462
16155SOL    HW250305   8.835  11.975  13.600
16156SOL     OW50306   5.450   2.265  10.658
16156SOL    HW150307   5.389   2.235  10.725
16156SOL    HW250308   5.464   2.189  10.602
16157SOL     OW50309   7.759   3.248   9.846
16157SOL    HW150310   7.762   3.328   9.898
16157SOL    HW250311   7.672   3.248   9.807
16158SOL     OW50312   7.794  13.692   6.598
16158SOL    HW150313   7.729  13.622   6.610
16158SOL    HW250314   7.782  13.721   6.508
16159SOL     OW50315  10.690  10.539   0.110
16159SOL    HW150316  10.768  10.561   0.060
16159SOL    HW250317  10.688  10.443   0.113
16160SOL     OW50318   6.175   5.841  10.157
16160SOL    HW150319   6.145   5.833  10.066
16160SOL    HW250320   6.269   5.858  10.150
16161SOL     OW50321   3.549   8.834   8.399
16161SOL    HW150322   3.496   8.771   8.350
16161SOL    HW250323   3.504   8.918   8.385
16162SOL     OW50324   9.100  13.240   3.688
16162SOL    HW150325   9.078  13.187   3.765
16162SOL    HW250326   9.039  13.314   3.692
16163SOL     OW50327   4.406   9.444  13.800
16163SOL    HW150328   4.341   9.505  13.765
16163SOL    HW250329   4.373   9.421  13.887
16164SOL     OW50330   7.839   0.643  13.120
16164SOL    HW150331   7.913   0.591  13.087
16164SOL    HW250332   7.848   0.640  13.215
16165SOL     OW50333  10.919  11.412   2.532
16165SOL    HW150334  11.012  11.402   2.555
16165SOL    HW250335  10.885  11.473   2.597
16166SOL     OW50336   3.799   7.675  10.142
16166SOL    HW150337   3.733   7.631  10.090
16166SOL    HW250338   3.774   7.768  10.141
16167SOL     OW50339   0.522  12.101   9.397
16167SOL    HW150340   0.563  12.072   9.478
16167SOL    HW250341   0.565  12.050   9.329
16168SOL     OW50342   0.223   9.700   7.516
16168SOL    HW150343   0.216   9.704   7.421
16168SOL    HW250344   0.305   9.746   7.536
16169SOL     OW50345   8.304   3.955  12.126
16169SOL    HW150346   8.243   4.022  12.158
16169SOL    HW250347   8.315   3.896  12.201
16170SOL     OW50348   8.374  14.442   6.674
16170SOL    HW150349   8.459  14.429   6.717
16170SOL    HW250350   8.322  14.490   6.738
16171SOL     OW50351   5.830  10.557  11.017
16171SOL    HW150352   5.749  10.529  11.059
16171SOL    HW250353   5.850  10.641  11.058
16172SOL     OW50354   4.607  10.911  14.305
16172SOL    HW150355   4.619  10.934  14.397
16172SOL    HW250356   4.524  10.951  14.281
16173SOL     OW50357  10.981   4.199   4.972
16173SOL    HW150358  11.029   4.116   4.975
16173SOL    HW250359  10.889   4.174   4.969
16174SOL     OW50360   6.814   8.739   4.320
16174SOL    HW150361   6.801   8.791   4.240
16174SOL    HW250362   6.828   8.649   4.288
16175SOL     OW50363  13.032   0.519  14.174
16175SOL    HW150364  12.961   0.584  14.169
16175SOL    HW250365  12.988   0.437  14.197
16176SOL     OW50366   9.349   4.734   2.561
16176SOL    HW150367   9.295   4.669   2.606
16176SOL    HW250368   9.359   4.699   2.472
16177SOL     OW50369  10.457  13.662   8.273
16177SOL    HW150370  10.432  13.737   8.327
16177SOL    HW250371  10.549  13.676   8.252
16178SOL     OW50372  11.303   9.502   1.593
16178SOL    HW150373  11.249   9.561   1.541
16178SOL    HW250374  11.348   9.560   1.655
16179SOL     OW50375   1.834  14.725  13.848
16179SOL    HW150376   1.773  14.737  13.921
16179SOL    HW250377   1.781  14.738  13.770
16180SOL     OW50378   1.209   3.280   0.314
16180SOL    HW150379   1.171   3.361   0.281
16180SOL    HW250380   1.261   3.307   0.390
16181SOL     OW50381   1.642   0.779   8.620
16181SOL    HW150382   1.567   0.783   8.679
16181SOL    HW250383   1.647   0.686   8.595
16182SOL     OW50384   4.298   2.119   4.744
16182SOL    HW150385   4.234   2.156   4.805
16182SOL    HW250386   4.318   2.191   4.684
16183SOL     OW50387   4.965   9.085   7.124
16183SOL    HW150388   4.954   9.138   7.046
16183SOL    HW250389   5.012   9.007   7.094
16184SOL     OW50390   7.058  11.590  11.801
16184SOL    HW150391   7.010  11.571  11.882
16184SOL    HW250392   7.124  11.655  11.827
16185SOL     OW50393   2.338   2.686  10.291
16185SOL    HW150394   2.338   2.712  10.383
16185SOL    HW250395   2.275   2.746  10.250
16186SOL     OW50396  13.862   7.874   9.520
16186SOL    HW150397  13.782   7.919   9.545
16186SOL    HW250398  13.855   7.863   9.425
16187SOL     OW50399   5.181   2.974   5.134
16187SOL    HW150400   5.226   2.890   5.127
16187SOL    HW250401   5.242   3.037   5.097
16188SOL     OW50402   2.553   1.472   8.606
16188SOL    HW150403   2.575   1.542   8.544
16188SOL    HW250404   2.560   1.392   8.555
16189SOL     OW50405   5.720   6.361   7.688
16189SOL    HW150406   5.762   6.276   7.701
16189SOL    HW250407   5.640   6.342   7.640
16190SOL     OW50408   4.399  14.734   7.946
16190SOL    HW150409   4.356  14.649   7.931
16190SOL    HW250410   4.346  14.797   7.897
16191SOL     OW50411   3.385  14.572   5.453
16191SOL    HW150412   3.465  14.520   5.445
16191SOL    HW250413   3.411  14.661   5.432
16192SOL     OW50414  14.687   1.192  10.738
16192SOL    HW150415  14.695   1.286  10.723
16192SOL    HW250416  14.760   1.154  10.690
16193SOL     OW50417   2.671   1.324   5.249
16193SOL    HW150418   2.738   1.310   5.316
16193SOL    HW250419   2.600   1.368   5.295
16194SOL     OW50420   7.895  14.347   3.707
16194SOL    HW150421   7.851  14.432   3.703
16194SOL    HW250422   7.906  14.331   3.801
16195SOL     OW50423  13.763   8.071   4.444
16195SOL    HW150424  13.699   8.129   4.402
16195SOL    HW250425  13.842   8.079   4.391
16196SOL     OW50426   1.503   6.820  13.325
16196SOL    HW150427   1.426   6.836  13.379
16196SOL    HW250428   1.573   6.801  13.388
16197SOL     OW50429  13.263   3.282  12.658
16197SOL    HW150430  13.174   3.316  12.649
16197SOL    HW250431  13.305   3.302  12.574
16198SOL     OW50432  12.749   6.226  11.961
16198SOL    HW150433  12.785   6.313  11.944
16198SOL    HW250434  12.747   6.219  12.057
16199SOL     OW50435  13.557  14.539  12.711
16199SOL    HW150436  13.550  14.474  12.781
16199SOL    HW250437  13.466  14.561  12.690
16200SOL     OW50438   9.722   9.351   9.831
16200SOL    HW150439   9.762   9.283   9.885
16200SOL    HW250440   9.767   9.432   9.858
16201SOL     OW50441   5.201   4.953   5.040
16201SOL    HW150442   5.253   4.883   5.001
16201SOL    HW250443   5.259   4.992   5.106
16202SOL     OW50444   1.356   9.831  14.160
16202SOL    HW150445   1.447   9.817  14.132
16202SOL    HW250446   1.350   9.925  14.174
16203SOL     OW50447   3.586   8.466   7.975
16203SOL    HW150448   3.617   8.436   8.061
16203SOL    HW250449   3.594   8.561   7.979
16204SOL     OW50450   7.080   3.964   7.537
16204SOL    HW150451   7.140   3.946   7.609
16204SOL    HW250452   7.100   3.897   7.472
16205SOL     OW50453   4.325   7.692   9.836
16205SOL    HW150454   4.327   7.672   9.930
16205SOL    HW250455   4.236   7.671   9.809
16206SOL     OW50456  12.873   2.954  10.037
16206SOL    HW150457  12.921   2.938   9.956
16206SOL    HW250458  12.801   3.011  10.012
16207SOL     OW50459   6.437   0.060  13.079
16207SOL    HW150460   6.418   0.152  13.098
16207SOL    HW250461   6.408   0.049  12.988
16208SOL     OW50462  11.185   2.330   4.124
16208SOL    HW150463  11.134   2.288   4.193
16208SOL    HW250464  11.134   2.408   4.100
16209SOL     OW50465   8.298   3.762   4.270
16209SOL    HW150466   8.321   3.855   4.260
16209SOL    HW250467   8.222   3.762   4.327
16210SOL     OW50468   0.848   7.712  10.447
16210SOL    HW150469   0.864   7.632  10.397
16210SOL    HW250470   0.754   7.729  10.435
16211SOL     OW50471   9.374   4.469  12.163
16211SOL    HW150472   9.326   4.387  12.161
16211SOL    HW250473   9.390   4.490  12.071
16212SOL     OW50474   8.596   3.658   5.649
16212SOL    HW150475   8.521   3.704   5.688
16212SOL    HW250476   8.606   3.580   5.704
16213SOL     OW50477   1.824   7.154   7.789
16213SOL    HW150478   1.748   7.097   7.798
16213SOL    HW250479   1.792   7.232   7.745
16214SOL     OW50480   6.585  13.756  12.613
16214SOL    HW150481   6.494  13.775  12.634
16214SOL    HW250482   6.598  13.665  12.639
16215SOL     OW50483  10.334  10.870   6.014
16215SOL    HW150484  10.406  10.933   6.016
16215SOL    HW250485  10.310  10.863   5.922
16216SOL     OW50486  11.863   8.444   7.462
16216SOL    HW150487  11.831   8.506   7.397
16216SOL    HW250488  11.947   8.414   7.428
16217SOL     OW50489   5.818   5.018   2.847
16217SOL    HW150490   5.826   5.113   2.858
16217SOL    HW250491   5.904   4.984   2.870
16218SOL     OW50492  11.760   9.056   4.001
16218SOL    HW150493  11.696   9.024   3.937
16218SOL    HW250494  11.844   9.048   3.957
16219SOL     OW50495   1.687   0.725   6.395
16219SOL    HW150496   1.769   0.720   6.444
16219SOL    HW250497   1.619   0.711   6.461
16220SOL     OW50498   1.894   2.931   4.788
16220SOL    HW150499   1.937   3.009   4.752
16220SOL    HW250500   1.829   2.907   4.723
16221SOL     OW50501   7.065   3.971  13.108
16221SOL    HW150502   7.002   4.027  13.154
16221SOL    HW250503   7.027   3.883  13.115
16222SOL     OW50504  12.402   8.795   4.132
16222SOL    HW150505  12.327   8.842   4.168
16222SOL    HW250506  12.448   8.861   4.079
16223SOL     OW50507  13.696   8.810   7.635
16223SOL    HW150508  13.723   8.797   7.726
16223SOL    HW250509  13.733   8.895   7.611
16224SOL     OW50510  11.320   8.830   4.641
16224SOL    HW150511  11.246   8.883   4.669
16224SOL    HW250512  11.295   8.797   4.555
16225SOL     OW50513  13.027   4.954   5.101
16225SOL    HW150514  13.075   4.898   5.162
16225SOL    HW250515  13.091   4.975   5.033
16226SOL     OW50516   1.208  11.193   3.885
16226SOL    HW150517   1.158  11.235   3.816
16226SOL    HW250518   1.261  11.127   3.840
16227SOL     OW50519   0.718   7.233   5.053
16227SOL    HW150520   0.691   7.295   5.122
16227SOL    HW250521   0.772   7.169   5.099
16228SOL     OW50522   5.451   7.085   9.721
16228SOL    HW150523   5.387   7.068   9.651
16228SOL    HW250524   5.459   7.000   9.766
16229SOL     OW50525   2.534  12.791  14.816
16229SOL    HW150526   2.528  12.862  14.753
16229SOL    HW250527   2.540  12.834   0.022
16230SOL     OW50528  11.987  13.280  13.415
16230SOL    HW150529  11.998  13.199  13.463
16230SOL    HW250530  12.035  13.345  13.466
16231SOL     OW50531   9.308   6.325   0.756
16231SOL    HW150532   9.316   6.420   0.763
16231SOL    HW250533   9.327   6.292   0.844
16232SOL     OW50534  14.703  10.070  14.118
16232SOL    HW150535  14.676   9.993  14.069
16232SOL    HW250536  14.679  10.052  14.208
16233SOL     OW50537   3.934   8.217   6.645
16233SOL    HW150538   4.026   8.206   6.671
16233SOL    HW250539   3.906   8.296   6.690
16234SOL     OW50540  11.495  10.051  11.782
16234SOL    HW150541  11.424  10.057  11.717
16234SOL    HW250542  11.465  10.105  11.855
16235SOL     OW50543   1.051   2.080   1.832
16235SOL    HW150544   1.032   2.124   1.915
16235SOL    HW250545   0.966   2.044   1.804
16236SOL     OW50546   2.995  13.707   0.193
16236SOL    HW150547   2.978  13.671   0.106
16236SOL    HW250548   2.960  13.796   0.190
16237SOL     OW50549   6.602  13.729   3.224
16237SOL    HW150550   6.565  13.755   3.139
16237SOL    HW250551   6.610  13.634   3.219
16238SOL     OW50552   2.921   3.596  14.012
16238SOL    HW150553   2.966   3.514  13.990
16238SOL    HW250554   2.982   3.642  14.070
16239SOL     OW50555   6.385   2.858   1.904
16239SOL    HW150556   6.438   2.788   1.866
16239SOL    HW250557   6.300   2.817   1.921
16240SOL     OW50558   5.715  14.553  10.019
16240SOL    HW150559   5.679  14.554  10.107
16240SOL    HW250560   5.638  14.549   9.962
16241SOL     OW50561   1.348  14.535   6.352
16241SOL    HW150562   1.275  14.595   6.336
16241SOL    HW250563   1.364  14.541   6.446
16242SOL     OW50564  13.663  13.153  13.199
16242SOL    HW150565  13.664  13.071  13.248
16242SOL    HW250566  13.682  13.221  13.263
16243SOL     OW50567  11.053   7.518   2.019
16243SOL    HW150568  10.983   7.576   1.988
16243SOL    HW250569  11.109   7.504   1.943
16244SOL     OW50570   6.452   0.915   2.116
16244SOL    HW150571   6.505   0.993   2.133
16244SOL    HW250572   6.466   0.896   2.024
16245SOL     OW50573  10.244  10.372   9.980
16245SOL    HW150574  10.203  10.458   9.966
16245SOL    HW250575  10.273  10.373  10.071
16246SOL     OW50576  12.319  14.737   6.274
16246SOL    HW150577  12.369  14.810   6.311
16246SOL    HW250578  12.283  14.771   6.192
16247SOL     OW50579  12.815   0.675   1.721
16247SOL    HW150580  12.798   0.735   1.793
16247SOL    HW250581  12.879   0.721   1.666
16248SOL     OW50582   9.259   1.910   9.196
16248SOL    HW150583   9.330   1.961   9.235
16248SOL    HW250584   9.228   1.854   9.268
16249SOL     OW50585   1.948  12.627   8.212
16249SOL    HW150586   1.954  12.570   8.135
16249SOL    HW250587   2.034  12.667   8.219
16250SOL     OW50588   7.722   0.136  10.734
16250SOL    HW150589   7.694   0.051  10.702
16250SOL    HW250590   7.650   0.195  10.710
16251SOL     OW50591  14.314   4.511  12.945
16251SOL    HW150592  14.398   4.519  12.899
16251SOL    HW250593  14.259   4.460  12.886
16252SOL     OW50594   8.990  11.995   8.477
16252SOL    HW150595   8.934  11.970   8.551
16252SOL    HW250596   8.945  11.961   8.400
16253SOL     OW50597  13.175  14.363   3.897
16253SOL    HW150598  13.212  14.276   3.908
16253SOL    HW250599  13.230  14.419   3.953
16254SOL     OW50600  11.112  12.052  14.863
16254SOL    HW150601  11.145  11.973   0.027
16254SOL    HW250602  11.058  12.095   0.050
16255SOL     OW50603   3.306  11.315   9.400
16255SOL    HW150604   3.260  11.254   9.344
16255SOL    HW250605   3.238  11.353   9.456
16256SOL     OW50606   7.138   7.530  12.525
16256SOL    HW150607   7.097   7.494  12.447
16256SOL    HW250608   7.186   7.606  12.494
16257SOL     OW50609   8.884   9.038  11.874
16257SOL    HW150610   8.917   8.959  11.831
16257SOL    HW250611   8.952   9.104  11.858
16258SOL     OW50612   6.732   7.434  11.412
16258SOL    HW150613   6.696   7.378  11.344
16258SOL    HW250614   6.826   7.415  11.411
16259SOL     OW50615  10.878  11.522   4.599
16259SOL    HW150616  10.816  11.595   4.602
16259SOL    HW250617  10.839  11.460   4.537
16260SOL     OW50618  14.101   9.732  13.422
16260SOL    HW150619  14.155   9.661  13.387
16260SOL    HW250620  14.163   9.803  13.439
16261SOL     OW50621   3.174   0.227   2.661
16261SOL    HW150622   3.089   0.241   2.620
16261SOL    HW250623   3.210   0.315   2.672
16262SOL     OW50624   3.622   2.244   2.480
16262SOL    HW150625   3.563   2.237   2.405
16262SOL    HW250626   3.689   2.178   2.463
16263SOL     OW50627   8.142  12.277   0.982
16263SOL    HW150628   8.143  12.372   0.974
16263SOL    HW250629   8.234  12.252   0.983
16264SOL     OW50630   6.912   8.668   2.557
16264SOL    HW150631   6.928   8.681   2.650
16264SOL    HW250632   6.839   8.606   2.553
16265SOL     OW50633  11.776   0.171  10.646
16265SOL    HW150634  11.684   0.177  10.622
16265SOL    HW250635  11.823   0.189  10.565
16266SOL     OW50636   5.026   3.228  12.620
16266SOL    HW150637   5.029   3.133  12.632
16266SOL    HW250638   4.939   3.245  12.585
16267SOL     OW50639  14.748   7.059   5.799
16267SOL    HW150640  14.696   7.097   5.728
16267SOL    HW250641  14.757   6.966   5.776
16268SOL     OW50642  13.039   4.116  13.999
16268SOL    HW150643  12.969   4.055  14.020
16268SOL    HW250644  13.084   4.076  13.924
16269SOL     OW50645  13.354  10.567  13.885
16269SOL    HW150646  13.427  10.505  13.885
16269SOL    HW250647  13.383  10.638  13.943
16270SOL     OW50648   9.144   9.292   4.169
16270SOL    HW150649   9.194   9.210   4.173
16270SOL    HW250650   9.077   9.276   4.102
16271SOL     OW50651   0.451  14.099   0.546
16271SOL    HW150652   0.419  14.127   0.460
16271SOL    HW250653   0.535  14.143   0.556
16272SOL     OW50654   6.800   7.529   4.754
16272SOL    HW150655   6.889   7.514   4.721
16272SOL    HW250656   6.808   7.606   4.811
16273SOL     OW50657  11.192   9.516   5.843
16273SOL    HW150658  11.243   9.435   5.849
16273SOL    HW250659  11.242   9.571   5.783
16274SOL     OW50660  12.573   3.839  10.060
16274SOL    HW150661  12.543   3.822  10.149
16274SOL    HW250662  12.660   3.878  10.070
16275SOL     OW50663   7.967   3.551   6.091
16275SOL    HW150664   7.947   3.595   6.174
16275SOL    HW250665   7.881   3.538   6.050
16276SOL     OW50666   4.794  12.154   9.934
16276SOL    HW150667   4.778  12.224   9.870
16276SOL    HW250668   4.874  12.111   9.903
16277SOL     OW50669   8.815   3.590   1.015
16277SOL    HW150670   8.898   3.636   1.011
16277SOL    HW250671   8.749   3.660   1.009
16278SOL     OW50672  11.829   4.517   1.624
16278SOL    HW150673  11.898   4.583   1.612
16278SOL    HW250674  11.749   4.567   1.635
16279SOL     OW50675  13.206  11.646   0.969
16279SOL    HW150676  13.301  11.641   0.961
16279SOL    HW250677  13.180  11.561   1.004
16280SOL     OW50678   4.321  14.009   4.677
16280SOL    HW150679   4.343  14.093   4.638
16280SOL    HW250680   4.376  13.946   4.630
16281SOL     OW50681  11.503   3.900  14.081
16281SOL    HW150682  11.515   3.827  14.020
16281SOL    HW250683  11.471   3.860  14.162
16282SOL     OW50684  14.013  13.279   1.961
16282SOL    HW150685  14.104  13.260   1.939
16282SOL    HW250686  13.962  13.217   1.908
16283SOL     OW50687   8.407  11.275   1.873
16283SOL    HW150688   8.435  11.191   1.838
16283SOL    HW250689   8.464  11.291   1.948
16284SOL     OW50690   6.040   7.501  14.834
16284SOL    HW150691   5.975   7.569  14.849
16284SOL    HW250692   5.998   7.439  14.775
16285SOL     OW50693  11.122   8.890   8.100
16285SOL    HW150694  11.105   8.796   8.097
16285SOL    HW250695  11.154   8.911   8.012
16286SOL     OW50696   0.698   1.060   6.008
16286SOL    HW150697   0.775   1.082   5.954
16286SOL    HW250698   0.637   1.019   5.946
16287SOL     OW50699   6.406  10.905   8.332
16287SOL    HW150700   6.379  10.821   8.297
16287SOL    HW250701   6.443  10.885   8.418
16288SOL     OW50702   9.375  13.130   0.318
16288SOL    HW150703   9.446  13.068   0.301
16288SOL    HW250704   9.412  13.191   0.382
16289SOL     OW50705   4.279  11.000   3.155
16289SOL    HW150706   4.231  10.925   3.122
16289SOL    HW250707   4.353  10.963   3.203
16290SOL     OW50708  13.408   6.010   3.112
16290SOL    HW150709  13.485   5.996   3.167
16290SOL    HW250710  13.393   6.105   3.115
16291SOL     OW50711  13.090   7.030  12.516
16291SOL    HW150712  13.155   7.096  12.491
16291SOL    HW250713  13.131   6.946  12.496
16292SOL     OW50714  10.380  12.071   9.462
16292SOL    HW150715  10.309  12.061   9.526
16292SOL    HW250716  10.418  12.157   9.482
16293SOL     OW50717  13.601   4.855   9.123
16293SOL    HW150718  13.534   4.792   9.148
16293SOL    HW250719  13.576   4.884   9.036
16294SOL     OW50720   6.320   9.751  13.613
16294SOL    HW150721   6.395   9.692  13.621
16294SOL    HW250722   6.276   9.722  13.532
16295SOL     OW50723   5.797   3.170  10.371
16295SOL    HW150724   5.731   3.223  10.327
16295SOL    HW250725   5.764   3.080  10.365
16296SOL     OW50726   0.537  11.362   4.365
16296SOL    HW150727   0.495  11.277   4.353
16296SOL    HW250728   0.623  11.353   4.323
16297SOL     OW50729   4.985   6.145   2.504
16297SOL    HW150730   5.011   6.093   2.580
16297SOL    HW250731   4.957   6.229   2.542
16298SOL     OW50732  11.531  13.353  12.289
16298SOL    HW150733  11.487  13.289  12.345
16298SOL    HW250734  11.477  13.432  12.295
16299SOL     OW50735   1.440   3.404  12.307
16299SOL    HW150736   1.382   3.341  12.264
16299SOL    HW250737   1.500   3.432  12.238
16300SOL     OW50738   6.930   3.504   5.577
16300SOL    HW150739   6.917   3.497   5.482
16300SOL    HW250740   6.943   3.414   5.607
16301SOL     OW50741   1.410  11.923   6.062
16301SOL    HW150742   1.498  11.887   6.049
16301SOL    HW250743   1.400  11.926   6.157
16302SOL     OW50744   0.042   4.427   9.104
16302SOL    HW150745   0.067   4.335   9.108
16302SOL    HW250746  14.848   4.434   9.165
16303SOL     OW50747  12.794   4.977   0.862
16303SOL    HW150748  12.749   5.013   0.938
16303SOL    HW250749  12.725   4.930   0.815
16304SOL     OW50750   0.556   7.745  14.470
16304SOL    HW150751   0.524   7.818  14.523
16304SOL    HW250752   0.538   7.770  14.380
16305SOL     OW50753   2.708  10.272   5.942
16305SOL    HW150754   2.789  10.257   5.893
16305SOL    HW250755   2.673  10.353   5.906
16306SOL     OW50756   4.623  10.647   5.304
16306SOL    HW150757   4.700  10.624   5.253
16306SOL    HW250758   4.657  10.669   5.391
16307SOL     OW50759  13.184   9.623  12.850
16307SOL    HW150760  13.242   9.679  12.800
16307SOL    HW250761  13.132   9.683  12.903
16308SOL     OW50762  14.630  12.404  12.640
16308SOL    HW150763  14.685  12.433  12.567
16308SOL    HW250764  14.603  12.316  12.615
16309SOL     OW50765   7.612   9.790   5.101
16309SOL    HW150766   7.527   9.750   5.081
16309SOL    HW250767   7.592   9.861   5.161
16310SOL     OW50768  11.391  12.899   0.950
16310SOL    HW150769  11.406  12.923   1.041
16310SOL    HW250770  11.476  12.909   0.908
16311SOL     OW50771   9.614   9.941   2.270
16311SOL    HW150772   9.583  10.031   2.276
16311SOL    HW250773   9.642   9.931   2.179
16312SOL     OW50774   8.627   2.491   2.916
16312SOL    HW150775   8.624   2.419   2.853
16312SOL    HW250776   8.683   2.557   2.874
16313SOL     OW50777   6.161  13.206   3.519
16313SOL    HW150778   6.236  13.164   3.563
16313SOL    HW250779   6.085  13.177   3.569
16314SOL     OW50780   9.368   3.769   3.924
16314SOL    HW150781   9.322   3.766   4.009
16314SOL    HW250782   9.456   3.800   3.946
16315SOL     OW50783  11.287   4.341   7.425
16315SOL    HW150784  11.291   4.260   7.477
16315SOL    HW250785  11.279   4.311   7.335
16316SOL     OW50786   5.458   4.676   4.267
16316SOL    HW150787   5.544   4.665   4.226
16316SOL    HW250788   5.475   4.667   4.361
16317SOL     OW50789  11.776   1.881   1.732
16317SOL    HW150790  11.847   1.816   1.728
16317SOL    HW250791  11.771   1.916   1.643
16318SOL     OW50792  10.092   0.285   2.369
16318SOL    HW150793  10.081   0.381   2.370
16318SOL    HW250794  10.069   0.258   2.457
16319SOL     OW50795   4.608   8.189   1.900
16319SOL    HW150796   4.646   8.157   1.817
16319SOL    HW250797   4.670   8.256   1.930
16320SOL     OW50798   5.082   1.511   9.374
16320SOL    HW150799   5.122   1.441   9.425
16320SOL    HW250800   5.069   1.472   9.287
16321SOL     OW50801   6.588  14.698  13.371
16321SOL    HW150802   6.623  14.683  13.459
16321SOL    HW250803   6.581  14.793  13.365
16322SOL     OW50804   9.675   6.145   2.012
16322SOL    HW150805   9.671   6.069   1.954
16322SOL    HW250806   9.724   6.115   2.089
16323SOL     OW50807   7.570  13.140   7.600
16323SOL    HW150808   7.560  13.188   7.517
16323SOL    HW250809   7.578  13.048   7.573
16324SOL     OW50810  12.170   4.887   1.385
16324SOL    HW150811  12.159   4.955   1.451
16324SOL    HW250812  12.180   4.806   1.434
16325SOL     OW50813  11.584   8.802   4.035
16325SOL    HW150814  11.668   8.839   4.065
16325SOL    HW250815  11.573   8.837   3.947
16326SOL     OW50816  11.448   3.124  12.838
16326SOL    HW150817  11.465   3.194  12.901
16326SOL    HW250818  11.391   3.063  12.885
16327SOL     OW50819   4.105   0.840   4.244
16327SOL    HW150820   4.200   0.843   4.249
16327SOL    HW250821   4.080   0.762   4.293
16328SOL     OW50822  14.285  13.728  14.292
16328SOL    HW150823  14.205  13.777  14.275
16328SOL    HW250824  14.259  13.636  14.282
16329SOL     OW50825   8.689  12.343   9.022
16329SOL    HW150826   8.752  12.373   8.956
16329SOL    HW250827   8.626  12.290   8.974
16330SOL     OW50828   0.191   3.226   9.017
16330SOL    HW150829   0.097   3.243   9.028
16330SOL    HW250830   0.231   3.313   9.012
16331SOL     OW50831   9.186  11.760  10.993
16331SOL    HW150832   9.130  11.834  10.969
16331SOL    HW250833   9.229  11.735  10.911
16332SOL     OW50834   4.179  12.258   7.232
16332SOL    HW150835   4.190  12.309   7.312
16332SOL    HW250836   4.129  12.181   7.259
16333SOL     OW50837   2.164   3.762   6.610
16333SOL    HW150838   2.217   3.683   6.614
16333SOL    HW250839   2.227   3.833   6.599
16334SOL     OW50840  12.816   3.218   9.784
16334SOL    HW150841  12.901   3.241   9.820
16334SOL    HW250842  12.766   3.299   9.785
16335SOL     OW50843  11.884   6.564   1.677
16335SOL    HW150844  11.841   6.536   1.758
16335SOL    HW250845  11.848   6.651   1.660
16336SOL     OW50846   3.367   3.835   3.263
16336SOL    HW150847   3.386   3.895   3.335
16336SOL    HW250848   3.407   3.876   3.186
16337SOL     OW50849   3.117   4.298   6.054
16337SOL    HW150850   3.076   4.370   6.102
16337SOL    HW250851   3.055   4.277   5.984
16338SOL     OW50852  11.480  11.746   2.215
16338SOL    HW150853  11.501  11.702   2.297
16338SOL    HW250854  11.531  11.827   2.218
16339SOL     OW50855  11.975   9.129   0.418
16339SOL    HW150856  12.000   9.164   0.504
16339SOL    HW250857  11.947   9.205   0.368
16340SOL     OW50858   2.278   8.368   4.940
16340SOL    HW150859   2.339   8.328   5.001
16340SOL    HW250860   2.202   8.310   4.940
16341SOL     OW50861  12.375  12.467  13.553
16341SOL    HW150862  12.331  12.463  13.638
16341SOL    HW250863  12.435  12.542  13.561
16342SOL     OW50864  12.460   1.655   7.993
16342SOL    HW150865  12.469   1.619   7.904
16342SOL    HW250866  12.530   1.721   7.999
16343SOL     OW50867   2.592  11.010   8.732
16343SOL    HW150868   2.614  11.094   8.772
16343SOL    HW250869   2.643  11.007   8.651
16344SOL     OW50870   5.742   2.371  11.938
16344SOL    HW150871   5.801   2.304  11.974
16344SOL    HW250872   5.789   2.454  11.953
16345SOL     OW50873   6.139  12.967   7.809
16345SOL    HW150874   6.231  12.970   7.834
16345SOL    HW250875   6.135  13.011   7.724
16346SOL     OW50876   4.563   7.659   8.007
16346SOL    HW150877   4.554   7.642   8.101
16346SOL    HW250878   4.575   7.573   7.967
16347SOL     OW50879   9.713   3.744   1.252
16347SOL    HW150880   9.790   3.694   1.278
16347SOL    HW250881   9.742   3.835   1.251
16348SOL     OW50882   0.453   6.031   2.059
16348SOL    HW150883   0.407   6.043   1.976
16348SOL    HW250884   0.425   6.104   2.113
16349SOL     OW50885  10.179   1.616   7.096
16349SOL    HW150886  10.106   1.581   7.147
16349SOL    HW250887  10.249   1.552   7.108
16350SOL     OW50888  10.349  13.989  11.123
16350SOL    HW150889  10.430  14.038  11.135
16350SOL    HW250890  10.290  14.051  11.080
16351SOL     OW50891  14.438  13.140   0.119
16351SOL    HW150892  14.424  13.080   0.192
16351SOL    HW250893  14.428  13.227   0.157
16352SOL     OW50894   7.984   4.517  14.631
16352SOL    HW150895   8.058   4.460  14.651
16352SOL    HW250896   7.909   4.474  14.672
16353SOL     OW50897   2.921   6.122   9.715
16353SOL    HW150898   2.938   6.187   9.646
16353SOL    HW250899   2.973   6.046   9.690
16354SOL     OW50900   7.691   5.766   8.110
16354SOL    HW150901   7.637   5.843   8.125
16354SOL    HW250902   7.649   5.721   8.036
16355SOL     OW50903   1.005   5.732  10.022
16355SOL    HW150904   0.971   5.731  10.111
16355SOL    HW250905   0.958   5.803   9.979
16356SOL     OW50906  14.254   5.388   8.887
16356SOL    HW150907  14.302   5.313   8.921
16356SOL    HW250908  14.227   5.437   8.965
16357SOL     OW50909   6.108   3.716   0.614
16357SOL    HW150910   6.026   3.679   0.582
16357SOL    HW250911   6.100   3.810   0.602
16358SOL     OW50912   3.923   5.418  12.098
16358SOL    HW150913   3.901   5.476  12.171
16358SOL    HW250914   3.838   5.384  12.068
16359SOL     OW50915   5.091  10.072   6.581
16359SOL    HW150916   5.070  10.134   6.650
16359SOL    HW250917   5.181  10.094   6.555
16360SOL     OW50918  13.326   7.881  13.357
16360SOL    HW150919  13.234   7.880  13.334
16360SOL    HW250920  13.327   7.890  13.453
16361SOL     OW50921  12.972  12.215   3.497
16361SOL    HW150922  12.929  12.144   3.544
16361SOL    HW250923  13.046  12.173   3.453
16362SOL     OW50924   5.068   6.678   6.461
16362SOL    HW150925   5.103   6.766   6.473
16362SOL    HW250926   5.119   6.642   6.388
16363SOL     OW50927   7.575   2.438   6.175
16363SOL    HW150928   7.553   2.365   6.117
16363SOL    HW250929   7.500   2.497   6.170
16364SOL     OW50930  13.455  13.758  11.922
16364SOL    HW150931  13.514  13.788  11.853
16364SOL    HW250932  13.498  13.679  11.957
16365SOL     OW50933  11.663   7.483  13.891
16365SOL    HW150934  11.628   7.572  13.890
16365SOL    HW250935  11.721   7.479  13.815
16366SOL     OW50936   2.141   8.590  11.954
16366SOL    HW150937   2.231   8.590  11.988
16366SOL    HW250938   2.110   8.501  11.969
16367SOL     OW50939   1.192   5.699  12.180
16367SOL    HW150940   1.220   5.707  12.271
16367SOL    HW250941   1.127   5.768  12.167
16368SOL     OW50942   8.182   6.952   3.454
16368SOL    HW150943   8.266   6.945   3.499
16368SOL    HW250944   8.202   6.997   3.372
16369SOL     OW50945  13.397   5.779   8.303
16369SOL    HW150946  13.433   5.858   8.262
16369SOL    HW250947  13.305   5.802   8.320
16370SOL     OW50948   8.751  12.310   9.316
16370SOL    HW150949   8.763  12.229   9.365
16370SOL    HW250950   8.767  12.287   9.225
16371SOL     OW50951   4.554  13.629   5.580
16371SOL    HW150952   4.637  13.614   5.625
16371SOL    HW250953   4.549  13.724   5.572
16372SOL     OW50954   0.962   9.508  12.202
16372SOL    HW150955   0.938   9.446  12.132
16372SOL    HW250956   1.023   9.568  12.160
16373SOL     OW50957   5.792  11.982   4.245
16373SOL    HW150958   5.840  11.975   4.327
16373SOL    HW250959   5.793  11.893   4.209
16374SOL     OW50960   4.579   7.860   7.594
16374SOL    HW150961   4.533   7.851   7.677
16374SOL    HW250962   4.653   7.800   7.600
16375SOL     OW50963  14.507   2.463   9.769
16375SOL    HW150964  14.501   2.406   9.845
16375SOL    HW250965  14.595   2.500   9.773
16376SOL     OW50966   6.964   3.575   2.329
16376SOL    HW150967   6.936   3.587   2.238
16376SOL    HW250968   7.034   3.510   2.324
16377SOL     OW50969   0.765   9.578   4.119
16377SOL    HW150970   0.706   9.503   4.122
16377SOL    HW250971   0.848   9.541   4.088
16378SOL     OW50972  14.503  12.841  14.007
16378SOL    HW150973  14.481  12.922  13.960
16378SOL    HW250974  14.598  12.844  14.017
16379SOL     OW50975   7.220  14.558  12.479
16379SOL    HW150976   7.153  14.627  12.488
16379SOL    HW250977   7.175  14.478  12.505
16380SOL     OW50978  11.720   7.098   0.364
16380SOL    HW150979  11.655   7.057   0.422
16380SOL    HW250980  11.738   7.183   0.403
16381SOL     OW50981   5.206   6.844   1.995
16381SOL    HW150982   5.161   6.916   1.950
16381SOL    HW250983   5.237   6.883   2.076
16382SOL     OW50984  10.058  12.470   3.890
16382SOL    HW150985  10.036  12.509   3.974
16382SOL    HW250986   9.984  12.492   3.833
16383SOL     OW50987   3.720   5.690   4.803
16383SOL    HW150988   3.772   5.769   4.816
16383SOL    HW250989   3.630   5.721   4.795
16384SOL     OW50990   5.645   0.434   7.797
16384SOL    HW150991   5.650   0.519   7.840
16384SOL    HW250992   5.647   0.454   7.704
16385SOL     OW50993  10.537  14.377   2.406
16385SOL    HW150994  10.546  14.383   2.311
16385SOL    HW250995  10.581  14.456   2.438
16386SOL     OW50996   1.116   6.811   6.106
16386SOL    HW150997   1.082   6.859   6.030
16386SOL    HW250998   1.099   6.719   6.086
16387SOL     OW50999   4.780   4.754   5.467
16387SOL    HW151000   4.708   4.817   5.460
16387SOL    HW251001   4.841   4.779   5.398
16388SOL     OW51002   3.965   4.041  12.883
16388SOL    HW151003   4.020   3.996  12.947
16388SOL    HW251004   3.875   4.020  12.909
16389SOL     OW51005   2.621   5.662   3.495
16389SOL    HW151006   2.689   5.727   3.507
16389SOL    HW251007   2.600   5.664   3.402
16390SOL     OW51008  12.301   0.377  10.072
16390SOL    HW151009  12.254   0.376   9.989
16390SOL    HW251010  12.388   0.343  10.050
16391SOL     OW51011   2.693   5.915   9.925
16391SOL    HW151012   2.777   5.902   9.969
16391SOL    HW251013   2.627   5.883   9.987
16392SOL     OW51014   8.319  14.720   9.356
16392SOL    HW151015   8.327  14.793   9.417
16392SOL    HW251016   8.386  14.736   9.290
16393SOL     OW51017   9.865   9.159   4.891
16393SOL    HW151018   9.782   9.144   4.846
16393SOL    HW251019   9.867   9.254   4.905
16394SOL     OW51020  12.861   7.305   8.874
16394SOL    HW151021  12.837   7.395   8.850
16394SOL    HW251022  12.905   7.271   8.796
16395SOL     OW51023   8.099   7.706   4.983
16395SOL    HW151024   8.028   7.761   5.017
16395SOL    HW251025   8.171   7.719   5.045
16396SOL     OW51026   6.955   2.189   9.624
16396SOL    HW151027   6.912   2.267   9.589
16396SOL    HW251028   7.048   2.205   9.610
16397SOL     OW51029   4.686  13.831  10.887
16397SOL    HW151030   4.704  13.834  10.981
16397SOL    HW251031   4.764  13.868  10.846
16398SOL     OW51032   2.350   6.589   4.318
16398SOL    HW151033   2.282   6.652   4.342
16398SOL    HW251034   2.412   6.592   4.391
16399SOL     OW51035  13.193   3.185  13.070
16399SOL    HW151036  13.218   3.136  13.148
16399SOL    HW251037  13.101   3.208  13.085
16400SOL     OW51038   0.620  10.317   4.342
16400SOL    HW151039   0.548  10.350   4.396
16400SOL    HW251040   0.676  10.394   4.328
16401SOL     OW51041   2.555   7.131   7.215
16401SOL    HW151042   2.592   7.077   7.285
16401SOL    HW251043   2.466   7.099   7.204
16402SOL     OW51044  11.136   3.638   4.800
16402SOL    HW151045  11.130   3.651   4.895
16402SOL    HW251046  11.123   3.544   4.787
16403SOL     OW51047   2.700   0.686  11.752
16403SOL    HW151048   2.701   0.654  11.661
16403SOL    HW251049   2.704   0.607  11.805
16404SOL     OW51050   9.239   1.053   9.906
16404SOL    HW151051   9.310   1.009   9.953
16404SOL    HW251052   9.172   1.068   9.973
16405SOL     OW51053   9.915   9.368   5.164
16405SOL    HW151054   9.836   9.403   5.206
16405SOL    HW251055   9.929   9.425   5.088
16406SOL     OW51056   6.646  13.177   5.532
16406SOL    HW151057   6.729  13.170   5.486
16406SOL    HW251058   6.580  13.156   5.466
16407SOL     OW51059   8.732   3.723   7.228
16407SOL    HW151060   8.785   3.753   7.155
16407SOL    HW251061   8.683   3.648   7.193
16408SOL     OW51062   7.114   7.630   5.693
16408SOL    HW151063   7.174   7.702   5.673
16408SOL    HW251064   7.028   7.663   5.667
16409SOL     OW51065   8.995   7.589   1.727
16409SOL    HW151066   9.089   7.581   1.742
16409SOL    HW251067   8.955   7.544   1.801
16410SOL     OW51068  12.921   2.428   0.456
16410SOL    HW151069  12.927   2.458   0.547
16410SOL    HW251070  12.857   2.487   0.416
16411SOL     OW51071   8.419   6.944  14.477
16411SOL    HW151072   8.423   6.851  14.457
16411SOL    HW251073   8.393   6.947  14.569
16412SOL     OW51074   3.813  11.512   4.214
16412SOL    HW151075   3.774  11.577   4.156
16412SOL    HW251076   3.748  11.499   4.283
16413SOL     OW51077  14.608   8.645  11.372
16413SOL    HW151078  14.694   8.666  11.335
16413SOL    HW251079  14.572   8.730  11.397
16414SOL     OW51080  10.214   6.951  14.325
16414SOL    HW151081  10.206   6.862  14.291
16414SOL    HW251082  10.214   6.941  14.420
16415SOL     OW51083   2.268   2.046   3.816
16415SOL    HW151084   2.239   2.114   3.877
16415SOL    HW251085   2.220   1.968   3.842
16416SOL     OW51086   0.537  13.703   4.070
16416SOL    HW151087   0.510  13.619   4.108
16416SOL    HW251088   0.501  13.701   3.981
16417SOL     OW51089   8.225   4.504   8.280
16417SOL    HW151090   8.278   4.528   8.356
16417SOL    HW251091   8.262   4.421   8.250
16418SOL     OW51092   4.629   9.219   6.450
16418SOL    HW151093   4.622   9.254   6.538
16418SOL    HW251094   4.617   9.124   6.461
16419SOL     OW51095   5.936   5.415  10.990
16419SOL    HW151096   6.004   5.466  10.946
16419SOL    HW251097   5.854   5.459  10.966
16420SOL     OW51098   6.331  10.689  11.569
16420SOL    HW151099   6.245  10.727  11.589
16420SOL    HW251100   6.390  10.727  11.634
16421SOL     OW51101   1.237   8.725  12.737
16421SOL    HW151102   1.241   8.821  12.744
16421SOL    HW251103   1.149   8.707  12.705
16422SOL     OW51104  12.728   8.197   8.382
16422SOL    HW151105  12.686   8.267   8.331
16422SOL    HW251106  12.822   8.213   8.373
16423SOL     OW51107   2.638   6.333   6.905
16423SOL    HW151108   2.614   6.347   6.997
16423SOL    HW251109   2.564   6.284   6.868
16424SOL     OW51110  13.895   6.527   5.632
16424SOL    HW151111  13.862   6.616   5.618
16424SOL    HW251112  13.915   6.495   5.544
16425SOL     OW51113   3.876   9.311   8.200
16425SOL    HW151114   3.934   9.351   8.135
16425SOL    HW251115   3.889   9.363   8.279
16426SOL     OW51116   8.429  11.887  12.351
16426SOL    HW151117   8.383  11.812  12.314
16426SOL    HW251118   8.392  11.896  12.439
16427SOL     OW51119   8.120   9.928   2.748
16427SOL    HW151120   8.027   9.950   2.739
16427SOL    HW251121   8.166  10.006   2.718
16428SOL     OW51122  11.697   3.419   3.650
16428SOL    HW151123  11.747   3.494   3.682
16428SOL    HW251124  11.647   3.390   3.726
16429SOL     OW51125   6.608   0.747   0.509
16429SOL    HW151126   6.552   0.775   0.582
16429SOL    HW251127   6.684   0.804   0.514
16430SOL     OW51128   5.537   4.112   7.938
16430SOL    HW151129   5.557   4.134   8.029
16430SOL    HW251130   5.524   4.197   7.895
16431SOL     OW51131  12.810   0.593   8.623
16431SOL    HW151132  12.891   0.602   8.673
16431SOL    HW251133  12.763   0.675   8.638
16432SOL     OW51134   3.329  14.352   6.994
16432SOL    HW151135   3.277  14.420   7.037
16432SOL    HW251136   3.270  14.314   6.929
16433SOL     OW51137  14.374   7.173  11.207
16433SOL    HW151138  14.280   7.187  11.217
16433SOL    HW251139  14.402   7.136  11.291
16434SOL     OW51140   9.326   7.349  14.458
16434SOL    HW151141   9.243   7.356  14.505
16434SOL    HW251142   9.303   7.360  14.366
16435SOL     OW51143  11.184  12.799   0.491
16435SOL    HW151144  11.180  12.721   0.547
16435SOL    HW251145  11.235  12.772   0.415
16436SOL     OW51146   9.676   3.856   4.639
16436SOL    HW151147   9.678   3.882   4.547
16436SOL    HW251148   9.760   3.884   4.674
16437SOL     OW51149   7.862   4.682   7.644
16437SOL    HW151150   7.914   4.630   7.583
16437SOL    HW251151   7.848   4.624   7.719
16438SOL     OW51152   5.269   5.403   2.305
16438SOL    HW151153   5.287   5.425   2.214
16438SOL    HW251154   5.179   5.433   2.319
16439SOL     OW51155   9.747  10.878   4.574
16439SOL    HW151156   9.765  10.800   4.626
16439SOL    HW251157   9.739  10.847   4.484
16440SOL     OW51158  10.381  14.803  10.943
16440SOL    HW151159  10.438  14.839  11.011
16440SOL    HW251160  10.298  14.849  10.954
16441SOL     OW51161   6.490   6.066  12.611
16441SOL    HW151162   6.484   5.974  12.636
16441SOL    HW251163   6.477   6.114  12.693
16442SOL     OW51164  12.342  14.594   0.161
16442SOL    HW151165  12.285  14.566   0.090
16442SOL    HW251166  12.424  14.547   0.145
16443SOL     OW51167  10.574   2.200  11.489
16443SOL    HW151168  10.567   2.153  11.573
16443SOL    HW251169  10.492   2.248  11.481
16444SOL     OW51170   0.351   3.069  12.370
16444SOL    HW151171   0.390   2.990  12.409
16444SOL    HW251172   0.299   3.108  12.440
16445SOL     OW51173   1.489  12.126   5.894
16445SOL    HW151174   1.584  12.127   5.882
16445SOL    HW251175   1.473  12.053   5.953
16446SOL     OW51176  13.898   8.476   2.663
16446SOL    HW151177  13.988   8.461   2.695
16446SOL    HW251178  13.858   8.389   2.664
16447SOL     OW51179   1.659  12.007   7.241
16447SOL    HW151180   1.620  12.061   7.173
16447SOL    HW251181   1.643  11.917   7.212
16448SOL     OW51182   6.518  10.076   1.589
16448SOL    HW151183   6.517  10.163   1.550
16448SOL    HW251184   6.568  10.086   1.670
16449SOL     OW51185   1.133   4.084   0.063
16449SOL    HW151186   1.154   4.113  14.853
16449SOL    HW251187   1.039   4.098   0.072
16450SOL     OW51188   4.092  13.150   2.962
16450SOL    HW151189   4.173  13.110   2.993
16450SOL    HW251190   4.117  13.195   2.881
16451SOL     OW51191   9.255  10.409   5.959
16451SOL    HW151192   9.252  10.495   5.917
16451SOL    HW251193   9.212  10.422   6.043
16452SOL     OW51194   8.226   3.450   7.741
16452SOL    HW151195   8.249   3.386   7.673
16452SOL    HW251196   8.229   3.401   7.823
16453SOL     OW51197   2.956   3.232  13.928
16453SOL    HW151198   2.925   3.153  13.973
16453SOL    HW251199   3.018   3.199  13.863
16454SOL     OW51200   3.295  13.879   3.921
16454SOL    HW151201   3.251  13.904   4.002
16454SOL    HW251202   3.387  13.900   3.937
16455SOL     OW51203  14.443   8.225   7.334
16455SOL    HW151204  14.393   8.240   7.254
16455SOL    HW251205  14.516   8.286   7.329
16456SOL     OW51206  11.112   4.402  12.445
16456SOL    HW151207  11.084   4.493  12.454
16456SOL    HW251208  11.031   4.352  12.446
16457SOL     OW51209  14.707   0.612   3.925
16457SOL    HW151210  14.767   0.661   3.982
16457SOL    HW251211  14.632   0.670   3.913
16458SOL     OW51212   0.854   2.130  13.815
16458SOL    HW151213   0.790   2.149  13.884
16458SOL    HW251214   0.939   2.133  13.859
16459SOL     OW51215   5.234  12.668  13.316
16459SOL    HW151216   5.312  12.613  13.314
16459SOL    HW251217   5.180  12.636  13.244
16460SOL     OW51218  13.274   7.156  13.826
16460SOL    HW151219  13.192   7.205  13.834
16460SOL    HW251220  13.255   7.086  13.763
16461SOL     OW51221   6.183   7.089   6.805
16461SOL    HW151222   6.146   7.091   6.894
16461SOL    HW251223   6.119   7.041   6.754
16462SOL     OW51224   3.965  11.192  10.433
16462SOL    HW151225   3.998  11.202  10.343
16462SOL    HW251226   3.891  11.252  10.438
16463SOL     OW51227   2.564   1.110   0.387
16463SOL    HW151228   2.535   1.070   0.469
16463SOL    HW251229   2.486   1.111   0.331
16464SOL     OW51230   0.770   8.706   2.835
16464SOL    HW151231   0.763   8.798   2.808
16464SOL    HW251232   0.687   8.667   2.810
16465SOL     OW51233  14.822   8.082   2.015
16465SOL    HW151234  14.806   8.093   1.922
16465SOL    HW251235  14.806   7.989   2.032
16466SOL     OW51236   3.929   7.754   0.148
16466SOL    HW151237   3.988   7.799   0.087
16466SOL    HW251238   3.885   7.688   0.095
16467SOL     OW51239   0.039   2.531  11.868
16467SOL    HW151240   0.062   2.486  11.786
16467SOL    HW251241   0.003   2.462  11.924
16468SOL     OW51242   0.174  13.985  12.357
16468SOL    HW151243   0.170  13.951  12.447
16468SOL    HW251244   0.143  13.913  12.302
16469SOL     OW51245   5.892  14.369   0.549
16469SOL    HW151246   5.834  14.307   0.504
16469SOL    HW251247   5.943  14.409   0.479
16470SOL     OW51248  10.699   2.358   8.211
16470SOL    HW151249  10.652   2.351   8.294
16470SOL    HW251250  10.645   2.311   8.148
16471SOL     OW51251  13.396   6.071   7.995
16471SOL    HW151252  13.438   5.985   7.991
16471SOL    HW251253  13.357   6.074   8.082
16472SOL     OW51254  12.976   5.023   4.235
16472SOL    HW151255  12.993   5.111   4.201
16472SOL    HW251256  13.023   4.964   4.176
16473SOL     OW51257   7.343   1.035   4.040
16473SOL    HW151258   7.318   1.071   3.955
16473SOL    HW251259   7.266   1.047   4.095
16474SOL     OW51260   0.118   2.682   4.296
16474SOL    HW151261   0.061   2.608   4.274
16474SOL    HW251262   0.196   2.668   4.242
16475SOL     OW51263   0.796  12.005   1.835
16475SOL    HW151264   0.700  12.006   1.842
16475SOL    HW251265   0.826  12.041   1.919
16476SOL     OW51266   8.562   8.800   9.195
16476SOL    HW151267   8.559   8.851   9.277
16476SOL    HW251268   8.525   8.715   9.218
16477SOL     OW51269   9.541   2.640   3.255
16477SOL    HW151270   9.511   2.606   3.171
16477SOL    HW251271   9.461   2.651   3.307
16478SOL     OW51272   1.671   3.919   0.788
16478SOL    HW151273   1.683   4.014   0.792
16478SOL    HW251274   1.576   3.906   0.784
16479SOL     OW51275  12.209  12.468  13.814
16479SOL    HW151276  12.281  12.506  13.865
16479SOL    HW251277  12.173  12.401  13.871
16480SOL     OW51278  13.787   0.503  11.919
16480SOL    HW151279  13.783   0.422  11.867
16480SOL    HW251280  13.731   0.485  11.994
16481SOL     OW51281  10.078   6.232  11.669
16481SOL    HW151282  10.095   6.319  11.635
16481SOL    HW251283   9.985   6.233  11.694
16482SOL     OW51284  12.631   8.043   6.073
16482SOL    HW151285  12.595   8.097   6.143
16482SOL    HW251286  12.723   8.069   6.068
16483SOL     OW51287   7.790  12.405  12.193
16483SOL    HW151288   7.742  12.475  12.149
16483SOL    HW251289   7.786  12.331  12.132
16484SOL     OW51290   0.858   2.928   1.351
16484SOL    HW151291   0.895   2.899   1.267
16484SOL    HW251292   0.763   2.918   1.340
16485SOL     OW51293   1.624   7.801  13.295
16485SOL    HW151294   1.647   7.855  13.220
16485SOL    HW251295   1.535   7.771  13.276
16486SOL     OW51296  11.831   4.492  12.900
16486SOL    HW151297  11.904   4.438  12.932
16486SOL    HW251298  11.754   4.437  12.914
16487SOL     OW51299  14.434  13.781  10.147
16487SOL    HW151300  14.372  13.763  10.077
16487SOL    HW251301  14.469  13.696  10.171
16488SOL     OW51302   5.327   3.945   8.417
16488SOL    HW151303   5.288   3.868   8.459
16488SOL    HW251304   5.387   3.908   8.352
16489SOL     OW51305   2.066   4.861   4.008
16489SOL    HW151306   2.115   4.802   3.950
16489SOL    HW251307   2.022   4.921   3.948
16490SOL     OW51308   6.751  11.321  14.717
16490SOL    HW151309   6.709  11.328  14.631
16490SOL    HW251310   6.685  11.355  14.778
16491SOL     OW51311  11.498   5.288  12.598
16491SOL    HW151312  11.499   5.326  12.511
16491SOL    HW251313  11.468   5.198  12.585
16492SOL     OW51314  11.033  13.141   3.863
16492SOL    HW151315  10.999  13.231   3.863
16492SOL    HW251316  11.104  13.143   3.800
16493SOL     OW51317  10.442   1.506   2.370
16493SOL    HW151318  10.502   1.469   2.436
16493SOL    HW251319  10.489   1.582   2.336
16494SOL     OW51320  12.188   1.962   7.699
16494SOL    HW151321  12.162   1.882   7.745
16494SOL    HW251322  12.251   2.004   7.757
16495SOL     OW51323  13.425   7.661   3.518
16495SOL    HW151324  13.500   7.665   3.459
16495SOL    HW251325  13.354   7.623   3.465
16496SOL     OW51326   4.202   6.331  14.489
16496SOL    HW151327   4.119   6.356  14.449
16496SOL    HW251328   4.199   6.236  14.494
16497SOL     OW51329   7.635   5.142  10.941
16497SOL    HW151330   7.616   5.208  11.008
16497SOL    HW251331   7.710   5.178  10.893
16498SOL     OW51332  11.964  12.010   4.747
16498SOL    HW151333  11.873  12.038   4.740
16498SOL    HW251334  12.009  12.083   4.789
16499SOL     OW51335   1.106   4.193   5.804
16499SOL    HW151336   1.043   4.245   5.753
16499SOL    HW251337   1.146   4.134   5.740
16500SOL     OW51338   7.421   2.766  10.020
16500SOL    HW151339   7.504   2.786  10.062
16500SOL    HW251340   7.367   2.844  10.036
16501SOL     OW51341  14.291   3.814  10.145
16501SOL    HW151342  14.280   3.886  10.084
16501SOL    HW251343  14.325   3.855  10.225
16502SOL     OW51344  13.021   1.012   7.629
16502SOL    HW151345  13.002   0.918   7.626
16502SOL    HW251346  13.019   1.039   7.538
16503SOL     OW51347   6.731   2.620  10.580
16503SOL    HW151348   6.803   2.584  10.632
16503SOL    HW251349   6.696   2.691  10.634
16504SOL     OW51350  12.855  13.086   4.404
16504SOL    HW151351  12.775  13.046   4.436
16504SOL    HW251352  12.838  13.104   4.311
16505SOL     OW51353   3.335  13.642   7.052
16505SOL    HW151354   3.373  13.693   7.124
16505SOL    HW251355   3.244  13.673   7.046
16506SOL     OW51356  10.573   5.172  13.437
16506SOL    HW151357  10.479   5.169  13.455
16506SOL    HW251358  10.605   5.242  13.495
16507SOL     OW51359   4.606  11.031   7.715
16507SOL    HW151360   4.599  11.106   7.655
16507SOL    HW251361   4.659  10.967   7.667
16508SOL     OW51362   3.659   5.885   0.015
16508SOL    HW151363   3.686   5.936   0.092
16508SOL    HW251364   3.609   5.947  14.841
16509SOL     OW51365  11.542   8.559   5.221
16509SOL    HW151366  11.591   8.575   5.301
16509SOL    HW251367  11.538   8.645   5.178
16510SOL     OW51368   8.435   8.299  11.707
16510SOL    HW151369   8.474   8.352  11.638
16510SOL    HW251370   8.380   8.236  11.661
16511SOL     OW51371   1.345  12.439   3.340
16511SOL    HW151372   1.363  12.514   3.396
16511SOL    HW251373   1.327  12.477   3.254
16512SOL     OW51374   2.418   6.188   6.705
16512SOL    HW151375   2.487   6.139   6.750
16512SOL    HW251376   2.430   6.166   6.612
16513SOL     OW51377  12.022   1.290   9.976
16513SOL    HW151378  12.002   1.339  10.057
16513SOL    HW251379  12.036   1.200  10.005
16514SOL     OW51380  12.206  12.882  13.333
16514SOL    HW151381  12.127  12.921  13.369
16514SOL    HW251382  12.188  12.788  13.330
16515SOL     OW51383   4.050   0.401   7.997
16515SOL    HW151384   4.026   0.318   8.037
16515SOL    HW251385   3.971   0.428   7.950
16516SOL     OW51386  11.802   4.135  10.920
16516SOL    HW151387  11.777   4.137  11.012
16516SOL    HW251388  11.835   4.223  10.902
16517SOL     OW51389   9.356   9.458  12.184
16517SOL    HW151390   9.382   9.408  12.107
16517SOL    HW251391   9.328   9.543  12.150
16518SOL     OW51392  11.859   1.359   8.198
16518SOL    HW151393  11.902   1.444   8.202
16518SOL    HW251394  11.770   1.376   8.230
16519SOL     OW51395   0.119   6.594   2.615
16519SOL    HW151396   0.179   6.650   2.664
16519SOL    HW251397   0.093   6.526   2.677
16520SOL     OW51398   9.845   1.919  14.719
16520SOL    HW151399   9.849   2.014  14.729
16520SOL    HW251400   9.818   1.905  14.628
16521SOL     OW51401   3.896  13.953   4.121
16521SOL    HW151402   3.836  13.913   4.057
16521SOL    HW251403   3.847  13.951   4.203
16522SOL     OW51404   6.722   0.317   7.442
16522SOL    HW151405   6.637   0.279   7.463
16522SOL    HW251406   6.774   0.244   7.412
16523SOL     OW51407   3.787   0.717   7.084
16523SOL    HW151408   3.852   0.786   7.080
16523SOL    HW251409   3.732   0.731   7.007
16524SOL     OW51410   5.632  11.821   9.665
16524SOL    HW151411   5.648  11.870   9.584
16524SOL    HW251412   5.704  11.845   9.723
16525SOL     OW51413   1.285   9.416   4.144
16525SOL    HW151414   1.379   9.414   4.126
16525SOL    HW251415   1.265   9.509   4.157
16526SOL     OW51416   8.506  11.037   1.829
16526SOL    HW151417   8.568  11.002   1.765
16526SOL    HW251418   8.474  10.959   1.876
16527SOL     OW51419  11.336   0.576   0.797
16527SOL    HW151420  11.365   0.509   0.859
16527SOL    HW251421  11.285   0.527   0.731
16528SOL     OW51422   2.799   2.320   9.545
16528SOL    HW151423   2.739   2.334   9.618
16528SOL    HW251424   2.878   2.286   9.585
16529SOL     OW51425  11.824   8.714   6.020
16529SOL    HW151426  11.824   8.760   6.104
16529SOL    HW251427  11.792   8.626   6.041
16530SOL     OW51428   1.180   4.259   3.912
16530SOL    HW151429   1.255   4.298   3.957
16530SOL    HW251430   1.189   4.165   3.929
16531SOL     OW51431  11.226   1.567  13.514
16531SOL    HW151432  11.301   1.628  13.512
16531SOL    HW251433  11.262   1.484  13.483
16532SOL     OW51434   4.594  10.050   5.149
16532SOL    HW151435   4.604  10.070   5.242
16532SOL    HW251436   4.512  10.000   5.144
16533SOL     OW51437   7.930   3.084   2.340
16533SOL    HW151438   7.962   3.048   2.423
16533SOL    HW251439   7.995   3.056   2.275
16534SOL     OW51440   0.399   0.883   7.737
16534SOL    HW151441   0.452   0.812   7.775
16534SOL    HW251442   0.457   0.959   7.736
16535SOL     OW51443   5.403   8.717   1.372
16535SOL    HW151444   5.336   8.673   1.424
16535SOL    HW251445   5.478   8.724   1.430
16536SOL     OW51446   8.420   8.833   0.507
16536SOL    HW151447   8.416   8.898   0.577
16536SOL    HW251448   8.384   8.753   0.546
16537SOL     OW51449   9.561   3.806   3.175
16537SOL    HW151450   9.557   3.885   3.229
16537SOL    HW251451   9.501   3.745   3.218
16538SOL     OW51452   6.529   7.177  10.809
16538SOL    HW151453   6.551   7.166  10.717
16538SOL    HW251454   6.500   7.091  10.837
16539SOL     OW51455   7.823  11.324  12.075
16539SOL    HW151456   7.870  11.246  12.106
16539SOL    HW251457   7.881  11.397  12.096
16540SOL     OW51458   6.945   8.184   5.451
16540SOL    HW151459   6.852   8.195   5.436
16540SOL    HW251460   6.951   8.114   5.516
16541SOL     OW51461  11.846   2.532  11.140
16541SOL    HW151462  11.829   2.440  11.122
16541SOL    HW251463  11.940   2.536  11.159
16542SOL     OW51464   4.761   6.620   2.406
16542SOL    HW151465   4.770   6.537   2.454
16542SOL    HW251466   4.743   6.685   2.474
16543SOL     OW51467   9.988   2.363   9.347
16543SOL    HW151468  10.042   2.439   9.367
16543SOL    HW251469   9.961   2.329   9.433
16544SOL     OW51470   1.254   9.281   8.479
16544SOL    HW151471   1.259   9.349   8.411
16544SOL    HW251472   1.324   9.219   8.457
16545SOL     OW51473   1.834   6.066   5.275
16545SOL    HW151474   1.860   6.028   5.191
16545SOL    HW251475   1.742   6.040   5.284
16546SOL     OW51476   3.602  10.866   2.157
16546SOL    HW151477   3.541  10.845   2.228
16546SOL    HW251478   3.633  10.781   2.126
16547SOL     OW51479   5.292   1.552   3.335
16547SOL    HW151480   5.247   1.476   3.371
16547SOL    HW251481   5.273   1.549   3.241
16548SOL     OW51482   3.242   7.976  10.931
16548SOL    HW151483   3.196   7.993  11.014
16548SOL    HW251484   3.178   7.930  10.877
16549SOL     OW51485  10.078   3.357  14.433
16549SOL    HW151486  10.173   3.355  14.434
16549SOL    HW251487  10.054   3.412  14.508
16550SOL     OW51488   2.669  14.430   4.045
16550SOL    HW151489   2.689  14.523   4.041
16550SOL    HW251490   2.578  14.426   4.077
16551SOL     OW51491  11.277   9.103   0.501
16551SOL    HW151492  11.302   9.025   0.450
16551SOL    HW251493  11.344   9.168   0.480
16552SOL     OW51494   7.449  13.770   0.221
16552SOL    HW151495   7.513  13.718   0.174
16552SOL    HW251496   7.395  13.706   0.267
16553SOL     OW51497   4.077   2.539   4.738
16553SOL    HW151498   4.141   2.610   4.741
16553SOL    HW251499   3.992   2.584   4.733
16554SOL     OW51500  12.835  10.804  14.180
16554SOL    HW151501  12.901  10.812  14.112
16554SOL    HW251502  12.762  10.758  14.138
16555SOL     OW51503   1.567   4.262   9.081
16555SOL    HW151504   1.549   4.168   9.080
16555SOL    HW251505   1.660   4.269   9.061
16556SOL     OW51506   2.623   1.704  10.511
16556SOL    HW151507   2.586   1.616  10.520
16556SOL    HW251508   2.557   1.761  10.551
16557SOL     OW51509   9.019  13.000  10.918
16557SOL    HW151510   8.972  12.997  11.002
16557SOL    HW251511   9.107  12.969  10.939
16558SOL     OW51512  13.271  11.191   6.283
16558SOL    HW151513  13.353  11.227   6.315
16558SOL    HW251514  13.259  11.110   6.333
16559SOL     OW51515   9.586   0.197   7.736
16559SOL    HW151516   9.558   0.107   7.752
16559SOL    HW251517   9.600   0.201   7.641
16560SOL     OW51518  13.678  12.746   8.107
16560SOL    HW151519  13.677  12.783   8.195
16560SOL    HW251520  13.731  12.807   8.055
16561SOL     OW51521  11.444   8.151  12.005
16561SOL    HW151522  11.449   8.247  12.001
16561SOL    HW251523  11.465   8.123  11.916
16562SOL     OW51524   0.822  14.872   6.099
16562SOL    HW151525   0.790  14.830   6.019
16562SOL    HW251526   0.748   0.044   6.130
16563SOL     OW51527   3.763  10.312  11.783
16563SOL    HW151528   3.727  10.231  11.817
16563SOL    HW251529   3.857  10.295  11.775
16564SOL     OW51530   1.975  10.470   3.992
16564SOL    HW151531   1.880  10.473   3.982
16564SOL    HW251532   2.002  10.396   3.938
16565SOL     OW51533   0.548   0.753  10.406
16565SOL    HW151534   0.471   0.809  10.421
16565SOL    HW251535   0.587   0.743  10.493
16566SOL     OW51536   2.008   7.191   1.747
16566SOL    HW151537   1.929   7.137   1.749
16566SOL    HW251538   1.981   7.275   1.785
16567SOL     OW51539   7.598   3.262   8.949
16567SOL    HW151540   7.551   3.218   9.020
16567SOL    HW251541   7.686   3.223   8.951
16568SOL     OW51542   6.784   8.232   0.388
16568SOL    HW151543   6.735   8.297   0.439
16568SOL    HW251544   6.769   8.149   0.435
16569SOL     OW51545  10.119   1.234   1.304
16569SOL    HW151546  10.149   1.302   1.244
16569SOL    HW251547  10.072   1.281   1.373
16570SOL     OW51548   0.627   3.075  14.817
16570SOL    HW151549   0.639   3.053   0.030
16570SOL    HW251550   0.544   3.123  14.814
16571SOL     OW51551   7.695  14.594   3.302
16571SOL    HW151552   7.658  14.520   3.349
16571SOL    HW251553   7.790  14.581   3.306
16572SOL     OW51554   9.629   6.599   6.209
16572SOL    HW151555   9.615   6.613   6.303
16572SOL    HW251556   9.655   6.508   6.202
16573SOL     OW51557   7.022   1.181  13.079
16573SOL    HW151558   7.028   1.257  13.137
16573SOL    HW251559   7.091   1.122  13.110
16574SOL     OW51560   6.760   6.459   6.971
16574SOL    HW151561   6.692   6.518   7.003
16574SOL    HW251562   6.808   6.432   7.050
16575SOL     OW51563   1.343  14.025   3.687
16575SOL    HW151564   1.386  13.975   3.617
16575SOL    HW251565   1.259  14.050   3.649
16576SOL     OW51566  14.234   4.004   2.230
16576SOL    HW151567  14.208   4.096   2.224
16576SOL    HW251568  14.186   3.971   2.306
16577SOL     OW51569   6.152  14.455   1.663
16577SOL    HW151570   6.200  14.423   1.587
16577SOL    HW251571   6.095  14.382   1.688
16578SOL     OW51572   2.704   6.969  11.263
16578SOL    HW151573   2.692   6.908  11.190
16578SOL    HW251574   2.616   7.005  11.279
16579SOL     OW51575  10.563   7.766   2.972
16579SOL    HW151576  10.630   7.804   3.029
16579SOL    HW251577  10.607   7.756   2.887
16580SOL     OW51578   9.156   5.971   5.693
16580SOL    HW151579   9.179   5.913   5.766
16580SOL    HW251580   9.066   5.997   5.712
16581SOL     OW51581  11.288  11.303  10.970
16581SOL    HW151582  11.312  11.299  10.878
16581SOL    HW251583  11.204  11.257  10.975
16582SOL     OW51584  10.058   1.882  12.282
16582SOL    HW151585  10.149   1.855  12.267
16582SOL    HW251586  10.027   1.823  12.351
16583SOL     OW51587  13.650   5.917   9.445
16583SOL    HW151588  13.662   5.901   9.352
16583SOL    HW251589  13.566   5.876   9.466
16584SOL     OW51590  14.761   4.857  13.510
16584SOL    HW151591  14.720   4.800  13.445
16584SOL    HW251592  14.708   4.936  13.510
16585SOL     OW51593   5.016   4.651  10.989
16585SOL    HW151594   4.927   4.685  10.980
16585SOL    HW251595   5.063   4.718  11.039
16586SOL     OW51596   1.282   0.232   3.363
16586SOL    HW151597   1.245   0.219   3.276
16586SOL    HW251598   1.210   0.267   3.415
16587SOL     OW51599   3.644   2.131  10.731
16587SOL    HW151600   3.554   2.121  10.762
16587SOL    HW251601   3.635   2.160  10.640
16588SOL     OW51602   3.188   7.626   7.333
16588SOL    HW151603   3.105   7.661   7.363
16588SOL    HW251604   3.223   7.692   7.273
16589SOL     OW51605  12.055   7.787   6.734
16589SOL    HW151606  12.062   7.840   6.654
16589SOL    HW251607  11.992   7.834   6.789
16590SOL     OW51608   5.419  14.633   2.051
16590SOL    HW151609   5.400  14.727   2.044
16590SOL    HW251610   5.337  14.590   2.027
16591SOL     OW51611   5.344   5.497   2.925
16591SOL    HW151612   5.414   5.500   2.990
16591SOL    HW251613   5.291   5.575   2.942
16592SOL     OW51614   0.784   9.524   2.580
16592SOL    HW151615   0.878   9.527   2.602
16592SOL    HW251616   0.778   9.463   2.508
16593SOL     OW51617   3.637  11.624   1.647
16593SOL    HW151618   3.707  11.559   1.638
16593SOL    HW251619   3.558  11.571   1.659
16594SOL     OW51620   0.603   8.074   4.459
16594SOL    HW151621   0.529   8.118   4.417
16594SOL    HW251622   0.638   8.138   4.521
16595SOL     OW51623   8.647   6.768   2.487
16595SOL    HW151624   8.585   6.824   2.534
16595SOL    HW251625   8.724   6.765   2.543
16596SOL     OW51626   7.162   3.693   7.514
16596SOL    HW151627   7.123   3.615   7.555
16596SOL    HW251628   7.184   3.665   7.425
16597SOL     OW51629   0.817   2.778   2.112
16597SOL    HW151630   0.802   2.775   2.017
16597SOL    HW251631   0.910   2.794   2.121
16598SOL     OW51632   1.818   8.009   3.761
16598SOL    HW151633   1.871   8.079   3.723
16598SOL    HW251634   1.824   7.937   3.698
16599SOL     OW51635   6.423  12.801   6.658
16599SOL    HW151636   6.369  12.792   6.736
16599SOL    HW251637   6.383  12.742   6.594
16600SOL     OW51638  11.785  11.168  11.137
16600SOL    HW151639  11.844  11.169  11.213
16600SOL    HW251640  11.823  11.231  11.077
16601SOL     OW51641   1.105  14.079   4.091
16601SOL    HW151642   1.168  14.047   4.026
16601SOL    HW251643   1.057  14.001   4.118
16602SOL     OW51644   2.601  14.576   2.718
16602SOL    HW151645   2.648  14.566   2.801
16602SOL    HW251646   2.584  14.487   2.688
16603SOL     OW51647  11.713   3.823   3.436
16603SOL    HW151648  11.633   3.798   3.481
16603SOL    HW251649  11.694   3.909   3.398
16604SOL     OW51650   8.997   1.909  12.790
16604SOL    HW151651   8.921   1.900  12.734
16604SOL    HW251652   8.993   1.999  12.823
16605SOL     OW51653   4.741  11.473   5.658
16605SOL    HW151654   4.804  11.525   5.609
16605SOL    HW251655   4.730  11.394   5.606
16606SOL     OW51656   0.143   2.102   2.065
16606SOL    HW151657   0.056   2.113   2.027
16606SOL    HW251658   0.135   2.138   2.153
16607SOL     OW51659   1.942   0.444   3.235
16607SOL    HW151660   1.986   0.422   3.317
16607SOL    HW251661   2.013   0.471   3.177
16608SOL     OW51662   7.359   5.028  14.031
16608SOL    HW151663   7.439   5.030  13.979
16608SOL    HW251664   7.356   5.113  14.075
16609SOL     OW51665  12.849   7.738   2.891
16609SOL    HW151666  12.894   7.694   2.819
16609SOL    HW251667  12.782   7.791   2.848
16610SOL     OW51668  11.694  14.659   0.614
16610SOL    HW151669  11.657  14.597   0.551
16610SOL    HW251670  11.752  14.607   0.669
16611SOL     OW51671   6.519   7.113   0.232
16611SOL    HW151672   6.478   7.147   0.153
16611SOL    HW251673   6.598   7.167   0.243
16612SOL     OW51674   9.220   8.063   1.078
16612SOL    HW151675   9.217   7.973   1.110
16612SOL    HW251676   9.263   8.112   1.148
16613SOL     OW51677  14.351   5.530   0.368
16613SOL    HW151678  14.357   5.563   0.278
16613SOL    HW251679  14.320   5.605   0.419
16614SOL     OW51680  11.387  13.063  10.309
16614SOL    HW151681  11.400  12.974  10.341
16614SOL    HW251682  11.384  13.054  10.214
16615SOL     OW51683   1.772   4.642   8.136
16615SOL    HW151684   1.835   4.597   8.080
16615SOL    HW251685   1.783   4.735   8.113
16616SOL     OW51686   7.732   4.079  12.042
16616SOL    HW151687   7.725   4.023  12.119
16616SOL    HW251688   7.647   4.070  11.998
16617SOL     OW51689  11.870   2.764   4.843
16617SOL    HW151690  11.900   2.719   4.765
16617SOL    HW251691  11.815   2.835   4.811
16618SOL     OW51692   1.568   4.807   9.795
16618SOL    HW151693   1.599   4.894   9.819
16618SOL    HW251694   1.511   4.822   9.719
16619SOL     OW51695   8.060   2.761   4.670
16619SOL    HW151696   8.116   2.711   4.611
16619SOL    HW251697   8.110   2.840   4.690
16620SOL     OW51698   3.303  12.417   2.861
16620SOL    HW151699   3.284  12.510   2.847
16620SOL    HW251700   3.247  12.392   2.933
16621SOL     OW51701   6.308   7.325   4.351
16621SOL    HW151702   6.258   7.244   4.342
16621SOL    HW251703   6.399   7.298   4.341
16622SOL     OW51704   0.480  13.829   1.369
16622SOL    HW151705   0.476  13.917   1.407
16622SOL    HW251706   0.512  13.773   1.440
16623SOL     OW51707   7.693  12.038   9.036
16623SOL    HW151708   7.624  11.976   9.010
16623SOL    HW251709   7.737  12.060   8.954
16624SOL     OW51710  10.024  13.592  13.299
16624SOL    HW151711  10.093  13.656  13.316
16624SOL    HW251712   9.944  13.632  13.332
16625SOL     OW51713   8.677  14.287   9.448
16625SOL    HW151714   8.669  14.381   9.434
16625SOL    HW251715   8.602  14.250   9.402
16626SOL     OW51716   0.092  10.832   5.302
16626SOL    HW151717   0.095  10.798   5.392
16626SOL    HW251718   0.050  10.764   5.251
16627SOL     OW51719   8.844   2.700   1.026
16627SOL    HW151720   8.839   2.788   1.065
16627SOL    HW251721   8.791   2.706   0.946
16628SOL     OW51722   2.672   4.079   1.913
16628SOL    HW151723   2.731   4.006   1.934
16628SOL    HW251724   2.725   4.157   1.926
16629SOL     OW51725   6.807  14.798  12.785
16629SOL    HW151726   6.828  14.864  12.851
16629SOL    HW251727   6.814  14.715  12.832
16630SOL     OW51728  11.285  14.745   2.862
16630SOL    HW151729  11.272  14.790   2.779
16630SOL    HW251730  11.257  14.807   2.928
16631SOL     OW51731   7.008   7.754  11.721
16631SOL    HW151732   7.064   7.698  11.667
16631SOL    HW251733   6.921   7.742  11.685
16632SOL     OW51734   6.109   0.313   9.450
16632SOL    HW151735   6.166   0.276   9.383
16632SOL    HW251736   6.132   0.406   9.453
16633SOL     OW51737   0.441   9.037  14.233
16633SOL    HW151738   0.504   9.104  14.258
16633SOL    HW251739   0.461   8.963  14.290
16634SOL     OW51740  11.492   5.620   4.148
16634SOL    HW151741  11.575   5.642   4.106
16634SOL    HW251742  11.434   5.597   4.075
16635SOL     OW51743   9.312   9.153  14.791
16635SOL    HW151744   9.281   9.115  14.874
16635SOL    HW251745   9.295   9.247  14.800
16636SOL     OW51746   0.965   0.969   6.578
16636SOL    HW151747   0.958   0.878   6.609
16636SOL    HW251748   0.946   0.963   6.484
16637SOL     OW51749   1.139   3.960  11.971
16637SOL    HW151750   1.181   4.034  12.015
16637SOL    HW251751   1.171   3.883  12.019
16638SOL     OW51752   5.355   2.739  13.535
16638SOL    HW151753   5.380   2.798  13.464
16638SOL    HW251754   5.399   2.657  13.515
16639SOL     OW51755   4.279   7.809   5.914
16639SOL    HW151756   4.331   7.729   5.902
16639SOL    HW251757   4.189   7.782   5.895
16640SOL     OW51758   6.068  14.493   6.296
16640SOL    HW151759   6.003  14.563   6.288
16640SOL    HW251760   6.063  14.465   6.387
16641SOL     OW51761   5.104   1.085  11.273
16641SOL    HW151762   5.014   1.115  11.280
16641SOL    HW251763   5.097   0.990  11.263
16642SOL     OW51764   7.158  10.074   1.886
16642SOL    HW151765   7.171  10.054   1.793
16642SOL    HW251766   7.207  10.155   1.900
16643SOL     OW51767   3.849   5.159   8.909
16643SOL    HW151768   3.932   5.155   8.861
16643SOL    HW251769   3.784   5.184   8.843
16644SOL     OW51770   9.297  14.677   6.766
16644SOL    HW151771   9.298  14.635   6.852
16644SOL    HW251772   9.204  14.685   6.745
16645SOL     OW51773  14.160   8.521   9.702
16645SOL    HW151774  14.229   8.534   9.636
16645SOL    HW251775  14.181   8.584   9.771
16646SOL     OW51776   9.668  13.284   9.482
16646SOL    HW151777   9.720  13.243   9.414
16646SOL    HW251778   9.611  13.345   9.435
16647SOL     OW51779   4.155   2.638   8.825
16647SOL    HW151780   4.194   2.598   8.903
16647SOL    HW251781   4.230   2.664   8.771
16648SOL     OW51782   4.774   4.566   0.200
16648SOL    HW151783   4.723   4.557   0.120
16648SOL    HW251784   4.709   4.589   0.267
16649SOL     OW51785   0.567   7.589   8.183
16649SOL    HW151786   0.659   7.588   8.155
16649SOL    HW251787   0.528   7.512   8.141
16650SOL     OW51788  10.592   3.273   9.325
16650SOL    HW151789  10.640   3.356   9.325
16650SOL    HW251790  10.514   3.289   9.272
16651SOL     OW51791   4.258   6.600   6.323
16651SOL    HW151792   4.166   6.627   6.330
16651SOL    HW251793   4.278   6.608   6.230
16652SOL     OW51794   4.218   5.499  14.864
16652SOL    HW151795   4.133   5.505  14.820
16652SOL    HW251796   4.203   5.539   0.071
16653SOL     OW51797   2.241  11.867  14.176
16653SOL    HW151798   2.262  11.894  14.266
16653SOL    HW251799   2.306  11.912  14.122
16654SOL     OW51800   5.384   8.365  12.946
16654SOL    HW151801   5.468   8.357  12.991
16654SOL    HW251802   5.406   8.366  12.853
16655SOL     OW51803   1.152  10.624   9.339
16655SOL    HW151804   1.069  10.630   9.293
16655SOL    HW251805   1.151  10.697   9.401
16656SOL     OW51806   6.579   4.884   0.620
16656SOL    HW151807   6.646   4.889   0.552
16656SOL    HW251808   6.510   4.829   0.582
16657SOL     OW51809   6.854   2.177  10.301
16657SOL    HW151810   6.771   2.178  10.348
16657SOL    HW251811   6.862   2.265  10.264
16658SOL     OW51812   0.646   0.520   7.760
16658SOL    HW151813   0.667   0.558   7.845
16658SOL    HW251814   0.553   0.540   7.746
16659SOL     OW51815  13.004   4.855  13.384
16659SOL    HW151816  12.951   4.932  13.405
16659SOL    HW251817  13.094   4.887  13.387
16660SOL     OW51818   7.891  13.624   4.360
16660SOL    HW151819   7.947  13.551   4.334
16660SOL    HW251820   7.947  13.701   4.353
16661SOL     OW51821   7.310  12.613   1.574
16661SOL    HW151822   7.365  12.691   1.566
16661SOL    HW251823   7.350  12.549   1.515
16662SOL     OW51824   8.083  10.712  10.470
16662SOL    HW151825   7.998  10.684  10.437
16662SOL    HW251826   8.079  10.808  10.469
16663SOL     OW51827   7.592   6.404   7.476
16663SOL    HW151828   7.568   6.496   7.490
16663SOL    HW251829   7.564   6.360   7.556
16664SOL     OW51830   4.222   9.178  14.804
16664SOL    HW151831   4.210   9.086  14.781
16664SOL    HW251832   4.315   9.185  14.827
16665SOL     OW51833   9.208  10.255   5.069
16665SOL    HW151834   9.243  10.275   4.983
16665SOL    HW251835   9.169  10.337   5.100
16666SOL     OW51836   1.233   4.113  13.629
16666SOL    HW151837   1.320   4.122  13.668
16666SOL    HW251838   1.206   4.203  13.610
16667SOL     OW51839   7.980   9.056   7.588
16667SOL    HW151840   8.025   9.133   7.553
16667SOL    HW251841   8.048   8.988   7.589
16668SOL     OW51842   7.583  13.694   5.431
16668SOL    HW151843   7.584  13.639   5.353
16668SOL    HW251844   7.494  13.729   5.434
16669SOL     OW51845  13.791  12.146   0.673
16669SOL    HW151846  13.803  12.239   0.693
16669SOL    HW251847  13.704  12.141   0.634
16670SOL     OW51848   2.235  10.916   1.181
16670SOL    HW151849   2.257  10.970   1.257
16670SOL    HW251850   2.149  10.947   1.153
16671SOL     OW51851   0.856   1.389   9.583
16671SOL    HW151852   0.790   1.371   9.516
16671SOL    HW251853   0.845   1.319   9.648
16672SOL     OW51854  10.996  13.684   2.066
16672SOL    HW151855  10.969  13.663   2.156
16672SOL    HW251856  10.939  13.756   2.040
16673SOL     OW51857  10.039  11.007  11.690
16673SOL    HW151858  10.059  11.071  11.759
16673SOL    HW251859   9.952  10.975  11.712
16674SOL     OW51860   1.614  14.129  11.350
16674SOL    HW151861   1.531  14.087  11.328
16674SOL    HW251862   1.673  14.104  11.279
16675SOL     OW51863  10.560  13.932   8.802
16675SOL    HW151864  10.468  13.959   8.811
16675SOL    HW251865  10.585  13.905   8.891
16676SOL     OW51866   6.193   7.041  12.015
16676SOL    HW151867   6.223   7.004  12.098
16676SOL    HW251868   6.259   7.012  11.951
16677SOL     OW51869  14.671   2.689   1.091
16677SOL    HW151870  14.688   2.631   1.165
16677SOL    HW251871  14.648   2.631   1.019
16678SOL     OW51872   7.580  14.243  10.345
16678SOL    HW151873   7.491  14.222  10.374
16678SOL    HW251874   7.596  14.183  10.271
16679SOL     OW51875  13.501   0.346   0.874
16679SOL    HW151876  13.414   0.321   0.845
16679SOL    HW251877  13.545   0.263   0.893
16680SOL     OW51878  10.601   5.885  14.562
16680SOL    HW151879  10.625   5.941  14.636
16680SOL    HW251880  10.654   5.918  14.489
16681SOL     OW51881   3.963   5.392   4.242
16681SOL    HW151882   3.885   5.423   4.197
16681SOL    HW251883   3.932   5.367   4.329
16682SOL     OW51884   6.219  10.631  12.324
16682SOL    HW151885   6.190  10.686  12.398
16682SOL    HW251886   6.176  10.670  12.248
16683SOL     OW51887  10.222   9.678  11.261
16683SOL    HW151888  10.144   9.726  11.289
16683SOL    HW251889  10.215   9.674  11.166
16684SOL     OW51890   4.967   4.830   6.534
16684SOL    HW151891   4.891   4.788   6.575
16684SOL    HW251892   4.967   4.919   6.570
16685SOL     OW51893   2.449  10.575   7.058
16685SOL    HW151894   2.401  10.519   6.996
16685SOL    HW251895   2.482  10.647   7.005
16686SOL     OW51896   4.928   9.408  10.978
16686SOL    HW151897   4.982   9.461  11.036
16686SOL    HW251898   4.876   9.353  11.037
16687SOL     OW51899   8.730   8.785   0.802
16687SOL    HW151900   8.807   8.837   0.827
16687SOL    HW251901   8.690   8.834   0.731
16688SOL     OW51902  12.380   3.935  10.612
16688SOL    HW151903  12.297   3.955  10.569
16688SOL    HW251904  12.436   4.010  10.591
16689SOL     OW51905   1.406   6.003   0.506
16689SOL    HW151906   1.356   6.004   0.588
16689SOL    HW251907   1.384   5.919   0.466
16690SOL     OW51908   3.401  13.434  13.861
16690SOL    HW151909   3.410  13.505  13.797
16690SOL    HW251910   3.452  13.362  13.823
16691SOL     OW51911  14.683   3.486  12.648
16691SOL    HW151912  14.632   3.472  12.728
16691SOL    HW251913  14.664   3.411  12.593
16692SOL     OW51914  12.933   7.676   9.354
16692SOL    HW151915  12.872   7.725   9.408
16692SOL    HW251916  13.006   7.737   9.340
16693SOL     OW51917   0.734   9.412   5.949
16693SOL    HW151918   0.815   9.460   5.930
16693SOL    HW251919   0.698   9.391   5.863
16694SOL     OW51920   8.104  12.318  13.683
16694SOL    HW151921   8.131  12.408  13.698
16694SOL    HW251922   8.058  12.320  13.599
16695SOL     OW51923  11.192   0.172   4.017
16695SOL    HW151924  11.186   0.186   4.111
16695SOL    HW251925  11.105   0.142   3.991
16696SOL     OW51926  14.730   3.788   5.779
16696SOL    HW151927  14.794   3.766   5.712
16696SOL    HW251928  14.714   3.882   5.768
16697SOL     OW51929   5.652  13.643   8.954
16697SOL    HW151930   5.695  13.559   8.974
16697SOL    HW251931   5.657  13.692   9.036
16698SOL     OW51932   6.619   3.571  14.404
16698SOL    HW151933   6.627   3.547  14.311
16698SOL    HW251934   6.526   3.584  14.418
16699SOL     OW51935   6.604   8.470   9.028
16699SOL    HW151936   6.600   8.535   8.958
16699SOL    HW251937   6.628   8.389   8.984
16700SOL     OW51938   7.934  11.771   3.075
16700SOL    HW151939   7.866  11.704   3.071
16700SOL    HW251940   8.016  11.722   3.076
16701SOL     OW51941   3.544  14.769   6.055
16701SOL    HW151942   3.549  14.831   6.127
16701SOL    HW251943   3.631  14.771   6.015
16702SOL     OW51944   3.436   0.141  10.614
16702SOL    HW151945   3.458   0.215  10.671
16702SOL    HW251946   3.520   0.109  10.583
16703SOL     OW51947  12.271   4.367   1.756
16703SOL    HW151948  12.205   4.411   1.703
16703SOL    HW251949  12.318   4.438   1.800
16704SOL     OW51950   2.911   1.178  13.125
16704SOL    HW151951   3.004   1.201  13.117
16704SOL    HW251952   2.888   1.205  13.214
16705SOL     OW51953  13.423   7.859   0.734
16705SOL    HW151954  13.337   7.837   0.698
16705SOL    HW251955  13.483   7.850   0.660
16706SOL     OW51956  10.700  12.662   3.764
16706SOL    HW151957  10.769  12.607   3.727
16706SOL    HW251958  10.741  12.702   3.841
16707SOL     OW51959   7.025  12.005   9.505
16707SOL    HW151960   6.980  12.069   9.450
16707SOL    HW251961   6.954  11.949   9.539
16708SOL     OW51962  12.937  13.587   4.613
16708SOL    HW151963  12.962  13.547   4.696
16708SOL    HW251964  12.884  13.520   4.569
16709SOL     OW51965   4.794   8.386   3.605
16709SOL    HW151966   4.763   8.350   3.522
16709SOL    HW251967   4.828   8.472   3.583
16710SOL     OW51968  12.955   5.305   6.955
16710SOL    HW151969  12.988   5.301   6.866
16710SOL    HW251970  12.860   5.300   6.947
16711SOL     OW51971  14.596   1.414   6.755
16711SOL    HW151972  14.647   1.477   6.704
16711SOL    HW251973  14.657   1.381   6.821
16712SOL     OW51974   3.793  12.185   2.185
16712SOL    HW151975   3.839  12.133   2.119
16712SOL    HW251976   3.715  12.133   2.205
16713SOL     OW51977   3.817  11.340   4.618
16713SOL    HW151978   3.876  11.320   4.690
16713SOL    HW251979   3.746  11.277   4.627
16714SOL     OW51980   8.108   3.595   9.250
16714SOL    HW151981   8.163   3.669   9.223
16714SOL    HW251982   8.090   3.611   9.342
16715SOL     OW51983   4.568   7.193  10.342
16715SOL    HW151984   4.546   7.268  10.398
16715SOL    HW251985   4.483   7.159  10.314
16716SOL     OW51986   1.516   5.699  14.029
16716SOL    HW151987   1.430   5.691  14.069
16716SOL    HW251988   1.518   5.633  13.960
16717SOL     OW51989   4.150  11.611   5.371
16717SOL    HW151990   4.241  11.634   5.353
16717SOL    HW251991   4.145  11.607   5.467
16718SOL     OW51992  14.361   1.337   3.733
16718SOL    HW151993  14.329   1.374   3.815
16718SOL    HW251994  14.293   1.357   3.669
16719SOL     OW51995   9.071   3.942   9.137
16719SOL    HW151996   9.086   4.030   9.172
16719SOL    HW251997   8.980   3.942   9.108
16720SOL     OW51998   2.100  13.266   1.137
16720SOL    HW151999   2.169  13.309   1.187
16720SOL    HW252000   2.114  13.294   1.047
16721SOL     OW52001  10.261  12.287  12.352
16721SOL    HW152002  10.237  12.237  12.430
16721SOL    HW252003  10.193  12.266  12.288
16722SOL     OW52004   5.166  10.252   4.196
16722SOL    HW152005   5.078  10.288   4.183
16722SOL    HW252006   5.152  10.161   4.221
16723SOL     OW52007  11.656  12.220  13.764
16723SOL    HW152008  11.655  12.124  13.756
16723SOL    HW252009  11.572  12.241  13.804
16724SOL     OW52010  10.813  10.834   3.493
16724SOL    HW152011  10.740  10.857   3.550
16724SOL    HW252012  10.811  10.738   3.489
16725SOL     OW52013  10.747  13.386   0.986
16725SOL    HW152014  10.768  13.472   0.948
16725SOL    HW252015  10.745  13.401   1.080
16726SOL     OW52016  13.376   2.417   6.389
16726SOL    HW152017  13.398   2.509   6.402
16726SOL    HW252018  13.306   2.399   6.452
16727SOL     OW52019   2.594   1.645   8.404
16727SOL    HW152020   2.540   1.648   8.325
16727SOL    HW252021   2.637   1.730   8.407
16728SOL     OW52022   2.552  12.047  12.210
16728SOL    HW152023   2.468  12.005  12.196
16728SOL    HW252024   2.537  12.139  12.185
16729SOL     OW52025   0.828   3.055   6.748
16729SOL    HW152026   0.886   3.021   6.680
16729SOL    HW252027   0.826   3.150   6.731
16730SOL     OW52028   4.038  10.778   1.620
16730SOL    HW152029   4.078  10.699   1.584
16730SOL    HW252030   3.990  10.817   1.547
16731SOL     OW52031   5.285  14.807  10.930
16731SOL    HW152032   5.304  14.859  11.008
16731SOL    HW252033   5.337  14.727  10.940
16732SOL     OW52034   9.538   1.051  13.076
16732SOL    HW152035   9.442   1.054  13.086
16732SOL    HW252036   9.566   0.983  13.138
16733SOL     OW52037   6.881   9.804   3.572
16733SOL    HW152038   6.810   9.771   3.628
16733SOL    HW252039   6.956   9.812   3.630
16734SOL     OW52040  13.624   8.897  11.905
16734SOL    HW152041  13.651   8.933  11.990
16734SOL    HW252042  13.556   8.957  11.874
16735SOL     OW52043   1.861  11.647   8.652
16735SOL    HW152044   1.869  11.632   8.746
16735SOL    HW252045   1.788  11.592   8.626
16736SOL     OW52046   3.419  10.724   7.362
16736SOL    HW152047   3.363  10.760   7.431
16736SOL    HW252048   3.466  10.652   7.404
16737SOL     OW52049  13.315   8.376   4.672
16737SOL    HW152050  13.288   8.292   4.710
16737SOL    HW252051  13.411   8.375   4.679
16738SOL     OW52052   0.649   9.087   8.426
16738SOL    HW152053   0.705   9.012   8.407
16738SOL    HW252054   0.608   9.109   8.342
16739SOL     OW52055   2.639   7.116   6.912
16739SOL    HW152056   2.544   7.127   6.918
16739SOL    HW252057   2.655   7.030   6.951
16740SOL     OW52058   8.006   9.217   3.246
16740SOL    HW152059   7.975   9.128   3.264
16740SOL    HW252060   8.096   9.205   3.216
16741SOL     OW52061  11.911  13.449   6.715
16741SOL    HW152062  11.897  13.535   6.755
16741SOL    HW252063  11.992  13.417   6.754
16742SOL     OW52064   8.405   7.164   6.511
16742SOL    HW152065   8.357   7.241   6.481
16742SOL    HW252066   8.462   7.141   6.438
16743SOL     OW52067   7.019  14.424   2.266
16743SOL    HW152068   6.967  14.386   2.337
16743SOL    HW252069   7.108  14.396   2.284
16744SOL     OW52070  13.885  12.817  12.743
16744SOL    HW152071  13.865  12.733  12.784
16744SOL    HW252072  13.854  12.882  12.806
16745SOL     OW52073   3.477   1.812   8.712
16745SOL    HW152074   3.538   1.739   8.700
16745SOL    HW252075   3.527   1.877   8.762
16746SOL     OW52076   1.970   4.926   6.950
16746SOL    HW152077   1.945   4.911   7.042
16746SOL    HW252078   1.962   5.020   6.938
16747SOL     OW52079  11.710   6.530   4.316
16747SOL    HW152080  11.631   6.544   4.368
16747SOL    HW252081  11.745   6.619   4.302
16748SOL     OW52082   4.006   5.917   8.381
16748SOL    HW152083   4.070   5.968   8.332
16748SOL    HW252084   4.015   5.947   8.471
16749SOL     OW52085   8.126   4.223   6.249
16749SOL    HW152086   8.127   4.215   6.154
16749SOL    HW252087   8.193   4.290   6.268
16750SOL     OW52088  11.590  14.604   7.949
16750SOL    HW152089  11.651  14.598   8.023
16750SOL    HW252090  11.611  14.688   7.909
16751SOL     OW52091  10.356   8.191  11.020
16751SOL    HW152092  10.368   8.266  10.961
16751SOL    HW252093  10.337   8.230  11.105
16752SOL     OW52094   8.445   9.490  13.234
16752SOL    HW152095   8.386   9.473  13.307
16752SOL    HW252096   8.393   9.540  13.172
16753SOL     OW52097   7.608   9.443   6.997
16753SOL    HW152098   7.532   9.409   6.949
16753SOL    HW252099   7.604   9.538   6.983
16754SOL     OW52100   1.305   5.717  13.115
16754SOL    HW152101   1.326   5.630  13.079
16754SOL    HW252102   1.244   5.699  13.186
16755SOL     OW52103   7.740  13.605  10.849
16755SOL    HW152104   7.769  13.632  10.937
16755SOL    HW252105   7.667  13.664  10.829
16756SOL     OW52106  12.933   0.291   8.129
16756SOL    HW152107  12.996   0.334   8.071
16756SOL    HW252108  12.957   0.321   8.217
16757SOL     OW52109   6.015  11.917  11.301
16757SOL    HW152110   5.954  11.900  11.373
16757SOL    HW252111   5.964  11.903  11.222
16758SOL     OW52112   8.197   5.558   3.059
16758SOL    HW152113   8.165   5.469   3.044
16758SOL    HW252114   8.163   5.581   3.145
16759SOL     OW52115   8.614   2.965  13.461
16759SOL    HW152116   8.553   2.940  13.392
16759SOL    HW252117   8.622   3.060  13.451
16760SOL     OW52118   9.350   5.989   2.223
16760SOL    HW152119   9.259   6.017   2.224
16760SOL    HW252120   9.397   6.058   2.269
16761SOL     OW52121   4.016   8.396   4.213
16761SOL    HW152122   4.019   8.475   4.159
16761SOL    HW252123   4.100   8.353   4.197
16762SOL     OW52124   6.492  11.860  12.002
16762SOL    HW152125   6.550  11.792  11.966
16762SOL    HW252126   6.475  11.831  12.092
16763SOL     OW52127   3.353   0.618   0.033
16763SOL    HW152128   3.281   0.619   0.097
16763SOL    HW252129   3.317   0.663  14.836
16764SOL     OW52130   6.302   9.259   1.690
16764SOL    HW152131   6.242   9.184   1.698
16764SOL    HW252132   6.320   9.265   1.596
16765SOL     OW52133   5.935   6.266  13.007
16765SOL    HW152134   5.893   6.336  13.057
16765SOL    HW252135   5.863   6.210  12.979
16766SOL     OW52136   6.613   9.767   0.948
16766SOL    HW152137   6.567   9.783   0.865
16766SOL    HW252138   6.628   9.855   0.983
16767SOL     OW52139  13.549   5.813   4.823
16767SOL    HW152140  13.476   5.816   4.762
16767SOL    HW252141  13.535   5.733   4.873
16768SOL     OW52142  10.379  10.246   6.172
16768SOL    HW152143  10.399  10.194   6.094
16768SOL    HW252144  10.420  10.197   6.244
16769SOL     OW52145   8.243   6.297  10.822
16769SOL    HW152146   8.223   6.370  10.882
16769SOL    HW252147   8.158   6.256  10.806
16770SOL     OW52148   9.478  11.233  14.216
16770SOL    HW152149   9.526  11.304  14.260
16770SOL    HW252150   9.537  11.158  14.220
16771SOL     OW52151  13.288  13.143   2.452
16771SOL    HW152152  13.228  13.096   2.510
16771SOL    HW252153  13.371  13.145   2.500
16772SOL     OW52154   3.845   6.246  13.369
16772SOL    HW152155   3.875   6.200  13.291
16772SOL    HW252156   3.750   6.247  13.362
16773SOL     OW52157  13.375   7.246  10.640
16773SOL    HW152158  13.433   7.255  10.715
16773SOL    HW252159  13.420   7.291  10.568
16774SOL     OW52160   6.892   6.477   1.056
16774SOL    HW152161   6.983   6.483   1.086
16774SOL    HW252162   6.849   6.554   1.092
16775SOL     OW52163   5.661  11.984   4.820
16775SOL    HW152164   5.687  12.052   4.882
16775SOL    HW252165   5.743  11.953   4.784
16776SOL     OW52166  12.074   7.600   8.641
16776SOL    HW152167  12.036   7.513   8.649
16776SOL    HW252168  12.041   7.632   8.557
16777SOL     OW52169   2.289   2.800   7.675
16777SOL    HW152170   2.226   2.728   7.671
16777SOL    HW252171   2.267   2.848   7.754
16778SOL     OW52172   8.479  12.053  11.615
16778SOL    HW152173   8.405  12.112  11.632
16778SOL    HW252174   8.557  12.106  11.631
16779SOL     OW52175   1.478   5.449   5.128
16779SOL    HW152176   1.458   5.359   5.105
16779SOL    HW252177   1.573   5.454   5.129
16780SOL     OW52178  10.348   3.743  12.561
16780SOL    HW152179  10.437   3.751  12.596
16780SOL    HW252180  10.297   3.705  12.633
16781SOL     OW52181   0.222   3.132  11.917
16781SOL    HW152182   0.291   3.176  11.867
16781SOL    HW252183   0.161   3.101  11.851
16782SOL     OW52184  12.392   8.129   1.750
16782SOL    HW152185  12.454   8.182   1.800
16782SOL    HW252186  12.444   8.056   1.718
16783SOL     OW52187   9.976  12.658   9.539
16783SOL    HW152188   9.947  12.749   9.546
16783SOL    HW252189   9.899  12.610   9.509
16784SOL     OW52190  13.670   6.555   2.824
16784SOL    HW152191  13.720   6.627   2.864
16784SOL    HW252192  13.586   6.557   2.868
16785SOL     OW52193  12.662  12.046   1.869
16785SOL    HW152194  12.597  11.992   1.913
16785SOL    HW252195  12.719  11.983   1.823
16786SOL     OW52196   6.088   2.933   0.651
16786SOL    HW152197   6.171   2.973   0.622
16786SOL    HW252198   6.113   2.843   0.673
16787SOL     OW52199   6.686   8.600   9.514
16787SOL    HW152200   6.775   8.577   9.540
16787SOL    HW252201   6.674   8.689   9.548
16788SOL     OW52202  14.862   5.752   3.758
16788SOL    HW152203  14.785   5.729   3.810
16788SOL    HW252204   0.036   5.805   3.818
16789SOL     OW52205  11.257   4.965   9.128
16789SOL    HW152206  11.203   4.913   9.187
16789SOL    HW252207  11.339   4.916   9.121
16790SOL     OW52208   4.431   3.489   7.127
16790SOL    HW152209   4.432   3.397   7.152
16790SOL    HW252210   4.511   3.501   7.076
16791SOL     OW52211  12.422  13.983   8.341
16791SOL    HW152212  12.496  13.996   8.401
16791SOL    HW252213  12.441  13.901   8.296
16792SOL     OW52214   3.214   2.857   9.681
16792SOL    HW152215   3.197   2.797   9.609
16792SOL    HW252216   3.304   2.886   9.667
16793SOL     OW52217   4.346   9.108  13.530
16793SOL    HW152218   4.313   9.113  13.619
16793SOL    HW252219   4.430   9.153  13.532
16794SOL     OW52220  13.592  14.296   6.561
16794SOL    HW152221  13.513  14.339   6.596
16794SOL    HW252222  13.558  14.219   6.514
16795SOL     OW52223   5.414   3.984   6.733
16795SOL    HW152224   5.356   4.060   6.730
16795SOL    HW252225   5.488   4.009   6.677
16796SOL     OW52226  10.548   0.910   7.343
16796SOL    HW152227  10.498   0.843   7.389
16796SOL    HW252228  10.615   0.861   7.295
16797SOL     OW52229   0.386   5.430   6.143
16797SOL    HW152230   0.302   5.475   6.152
16797SOL    HW252231   0.430   5.445   6.226
16798SOL     OW52232   0.728  12.720  11.419
16798SOL    HW152233   0.788  12.725  11.345
16798SOL    HW252234   0.643  12.747  11.384
16799SOL     OW52235  10.904  11.549   2.128
16799SOL    HW152236  10.846  11.503   2.189
16799SOL    HW252237  10.858  11.630   2.106
16800SOL     OW52238   0.445   0.980  14.491
16800SOL    HW152239   0.540   0.997  14.486
16800SOL    HW252240   0.417   0.973  14.400
16801SOL     OW52241  14.390   9.960  13.780
16801SOL    HW152242  14.459  10.023  13.797
16801SOL    HW252243  14.309  10.006  13.803
16802SOL     OW52244   7.616  12.311   3.093
16802SOL    HW152245   7.686  12.375   3.078
16802SOL    HW252246   7.558  12.322   3.017
16803SOL     OW52247  10.259   5.123  13.536
16803SOL    HW152248  10.265   5.031  13.562
16803SOL    HW252249  10.247   5.171  13.619
16804SOL     OW52250   1.499   4.674  11.234
16804SOL    HW152251   1.559   4.706  11.167
16804SOL    HW252252   1.537   4.702  11.316
16805SOL     OW52253   1.790  10.767   4.740
16805SOL    HW152254   1.702  10.733   4.759
16805SOL    HW252255   1.781  10.862   4.748
16806SOL     OW52256   3.842   3.180  10.925
16806SOL    HW152257   3.839   3.209  11.016
16806SOL    HW252258   3.775   3.231  10.881
16807SOL     OW52259   5.735   1.368   2.956
16807SOL    HW152260   5.781   1.301   3.007
16807SOL    HW252261   5.697   1.320   2.882
16808SOL     OW52262   0.697   2.376   0.265
16808SOL    HW152263   0.626   2.312   0.268
16808SOL    HW252264   0.701   2.410   0.355
16809SOL     OW52265   1.039   5.219   8.127
16809SOL    HW152266   0.957   5.267   8.122
16809SOL    HW252267   1.076   5.243   8.212
16810SOL     OW52268   5.029  11.548   8.534
16810SOL    HW152269   5.116  11.508   8.523
16810SOL    HW252270   4.998  11.564   8.445
16811SOL     OW52271   3.508  14.752   6.773
16811SOL    HW152272   3.503  14.779   6.864
16811SOL    HW252273   3.427  14.703   6.758
16812SOL     OW52274   3.127   2.291   3.147
16812SOL    HW152275   3.052   2.306   3.089
16812SOL    HW252276   3.175   2.373   3.145
16813SOL     OW52277  10.271   7.028   9.145
16813SOL    HW152278  10.328   7.095   9.182
16813SOL    HW252279  10.325   6.981   9.082
16814SOL     OW52280   3.151   2.630  10.897
16814SOL    HW152281   3.144   2.564  10.965
16814SOL    HW252282   3.237   2.670  10.911
16815SOL     OW52283   9.757   3.840   8.324
16815SOL    HW152284   9.821   3.838   8.395
16815SOL    HW252285   9.809   3.851   8.245
16816SOL     OW52286   9.085   7.196   7.400
16816SOL    HW152287   9.049   7.120   7.356
16816SOL    HW252288   9.135   7.160   7.474
16817SOL     OW52289   8.299  12.202  12.572
16817SOL    HW152290   8.222  12.258  12.562
16817SOL    HW252291   8.371  12.262  12.589
16818SOL     OW52292   9.430  12.665   4.812
16818SOL    HW152293   9.435  12.591   4.872
16818SOL    HW252294   9.413  12.741   4.868
16819SOL     OW52295   5.354   2.652   8.029
16819SOL    HW152296   5.315   2.738   8.046
16819SOL    HW252297   5.280   2.596   8.006
16820SOL     OW52298   6.782   0.573   3.835
16820SOL    HW152299   6.791   0.588   3.741
16820SOL    HW252300   6.762   0.480   3.842
16821SOL     OW52301   9.221   2.166   2.593
16821SOL    HW152302   9.157   2.164   2.664
16821SOL    HW252303   9.233   2.259   2.573
16822SOL     OW52304  10.073   0.627   4.905
16822SOL    HW152305  10.088   0.546   4.953
16822SOL    HW252306   9.979   0.641   4.910
16823SOL     OW52307   9.168   8.212  10.152
16823SOL    HW152308   9.184   8.140  10.213
16823SOL    HW252309   9.211   8.185  10.071
16824SOL     OW52310  11.655  11.127   8.626
16824SOL    HW152311  11.625  11.217   8.641
16824SOL    HW252312  11.624  11.106   8.538
16825SOL     OW52313   8.285  14.702   9.731
16825SOL    HW152314   8.362  14.696   9.675
16825SOL    HW252315   8.261  14.611   9.748
16826SOL     OW52316  11.670  12.562   4.930
16826SOL    HW152317  11.646  12.619   5.004
16826SOL    HW252318  11.688  12.477   4.970
16827SOL     OW52319   0.983  11.136   1.775
16827SOL    HW152320   1.018  11.099   1.856
16827SOL    HW252321   0.933  11.065   1.735
16828SOL     OW52322   7.080  14.182   6.229
16828SOL    HW152323   7.088  14.270   6.264
16828SOL    HW252324   6.994  14.181   6.187
16829SOL     OW52325  10.550  12.662   4.521
16829SOL    HW152326  10.585  12.575   4.498
16829SOL    HW252327  10.618  12.702   4.575
16830SOL     OW52328   1.614  13.570   5.697
16830SOL    HW152329   1.619  13.652   5.746
16830SOL    HW252330   1.537  13.525   5.732
16831SOL     OW52331  14.647  10.311   7.650
16831SOL    HW152332  14.656  10.256   7.572
16831SOL    HW252333  14.685  10.259   7.720
16832SOL     OW52334   5.825   6.143   9.668
16832SOL    HW152335   5.906   6.194   9.670
16832SOL    HW252336   5.792   6.148   9.758
16833SOL     OW52337   7.917  14.098   2.178
16833SOL    HW152338   7.999  14.146   2.187
16833SOL    HW252339   7.920  14.063   2.089
16834SOL     OW52340   0.722   1.915  10.580
16834SOL    HW152341   0.662   1.919  10.507
16834SOL    HW252342   0.796   1.863  10.548
16835SOL     OW52343   5.145   0.483   1.639
16835SOL    HW152344   5.166   0.455   1.728
16835SOL    HW252345   5.055   0.514   1.644
16836SOL     OW52346   5.711   0.587   6.404
16836SOL    HW152347   5.714   0.503   6.449
16836SOL    HW252348   5.625   0.589   6.362
16837SOL     OW52349  11.821   5.473   1.006
16837SOL    HW152350  11.867   5.500   1.085
16837SOL    HW252351  11.826   5.378   1.005
16838SOL     OW52352  13.088  12.748  11.541
16838SOL    HW152353  13.093  12.653  11.556
16838SOL    HW252354  13.166  12.784  11.582
16839SOL     OW52355   6.636   6.200   7.857
16839SOL    HW152356   6.599   6.238   7.777
16839SOL    HW252357   6.717   6.157   7.828
16840SOL     OW52358   4.857  13.094   9.336
16840SOL    HW152359   4.859  13.084   9.431
16840SOL    HW252360   4.837  13.007   9.303
16841SOL     OW52361   5.323  12.791  13.543
16841SOL    HW152362   5.337  12.882  13.516
16841SOL    HW252363   5.305  12.745  13.462
16842SOL     OW52364   3.505   2.831   9.827
16842SOL    HW152365   3.521   2.802   9.737
16842SOL    HW252366   3.463   2.755   9.869
16843SOL     OW52367   9.409   7.071   8.888
16843SOL    HW152368   9.395   6.994   8.832
16843SOL    HW252369   9.382   7.145   8.833
16844SOL     OW52370  10.901   2.597   1.439
16844SOL    HW152371  10.856   2.676   1.468
16844SOL    HW252372  10.934   2.558   1.520
16845SOL     OW52373   9.020  10.055   6.260
16845SOL    HW152374   9.031  10.084   6.351
16845SOL    HW252375   9.109  10.037   6.231
16846SOL     OW52376   3.978   6.013   2.575
16846SOL    HW152377   4.007   6.085   2.632
16846SOL    HW252378   3.955   5.942   2.635
16847SOL     OW52379   9.253  10.013   6.115
16847SOL    HW152380   9.275   9.919   6.112
16847SOL    HW252381   9.324  10.052   6.165
16848SOL     OW52382   7.839   7.116   5.192
16848SOL    HW152383   7.821   7.210   5.193
16848SOL    HW252384   7.913   7.106   5.133
16849SOL     OW52385   5.398   9.660   7.317
16849SOL    HW152386   5.408   9.750   7.287
16849SOL    HW252387   5.487   9.632   7.339
16850SOL     OW52388  12.494  13.930   4.432
16850SOL    HW152389  12.428  13.881   4.383
16850SOL    HW252390  12.499  13.886   4.517
16851SOL     OW52391   6.166   7.940  12.015
16851SOL    HW152392   6.227   7.892  11.959
16851SOL    HW252393   6.214   8.018  12.042
16852SOL     OW52394  10.636   0.175   9.881
16852SOL    HW152395  10.594   0.223   9.810
16852SOL    HW252396  10.717   0.141   9.844
16853SOL     OW52397  10.042   7.587  10.617
16853SOL    HW152398  10.133   7.607  10.593
16853SOL    HW252399  10.049   7.505  10.666
16854SOL     OW52400   6.872   0.111  12.964
16854SOL    HW152401   6.806   0.166  12.922
16854SOL    HW252402   6.854   0.119  13.058
16855SOL     OW52403  12.066   3.644  14.416
16855SOL    HW152404  12.077   3.659  14.510
16855SOL    HW252405  12.039   3.729  14.382
16856SOL     OW52406   2.641   0.041   3.023
16856SOL    HW152407   2.620   0.134   3.027
16856SOL    HW252408   2.556  14.876   3.029
16857SOL     OW52409   1.997   5.430   1.731
16857SOL    HW152410   1.919   5.447   1.783
16857SOL    HW252411   2.049   5.510   1.739
16858SOL     OW52412  10.860   0.571   5.039
16858SOL    HW152413  10.820   0.638   5.095
16858SOL    HW252414  10.954   0.584   5.051
16859SOL     OW52415  12.900   5.766   7.089
16859SOL    HW152416  12.889   5.677   7.121
16859SOL    HW252417  12.873   5.761   6.997
16860SOL     OW52418  11.393   3.143  10.170
16860SOL    HW152419  11.301   3.130  10.147
16860SOL    HW252420  11.412   3.234  10.148
16861SOL     OW52421   6.668  13.748   1.336
16861SOL    HW152422   6.622  13.694   1.401
16861SOL    HW252423   6.761  13.734   1.355
16862SOL     OW52424  13.977   5.538   0.510
16862SOL    HW152425  14.060   5.491   0.505
16862SOL    HW252426  13.939   5.530   0.423
16863SOL     OW52427   1.107   3.812  10.864
16863SOL    HW152428   1.033   3.806  10.803
16863SOL    HW252429   1.184   3.814  10.808
16864SOL     OW52430   9.558  11.625   6.380
16864SOL    HW152431   9.632  11.668   6.423
16864SOL    HW252432   9.517  11.694   6.328
16865SOL     OW52433   1.895   4.743   3.504
16865SOL    HW152434   1.967   4.763   3.445
16865SOL    HW252435   1.895   4.648   3.511
16866SOL     OW52436   8.422   4.638  11.311
16866SOL    HW152437   8.489   4.706  11.320
16866SOL    HW252438   8.419   4.595  11.396
16867SOL     OW52439   0.354   3.584   9.857
16867SOL    HW152440   0.273   3.555   9.815
16867SOL    HW252441   0.380   3.511   9.913
16868SOL     OW52442   8.428  12.144  14.279
16868SOL    HW152443   8.426  12.166  14.373
16868SOL    HW252444   8.485  12.067  14.274
16869SOL     OW52445   9.941   1.566   9.842
16869SOL    HW152446   9.982   1.540   9.924
16869SOL    HW252447   9.850   1.538   9.851
16870SOL     OW52448  14.861   9.841  14.457
16870SOL    HW152449   0.039   9.830  14.534
16870SOL    HW252450  14.781   9.795  14.480
16871SOL     OW52451  11.828   4.796  12.433
16871SOL    HW152452  11.818   4.758  12.521
16871SOL    HW252453  11.743   4.836  12.415
16872SOL     OW52454   3.136  11.880   1.097
16872SOL    HW152455   3.071  11.818   1.066
16872SOL    HW252456   3.220  11.839   1.079
16873SOL     OW52457  13.997  11.256  11.588
16873SOL    HW152458  13.943  11.335  11.581
16873SOL    HW252459  14.064  11.278  11.653
16874SOL     OW52460   4.563   8.024   9.066
16874SOL    HW152461   4.635   8.063   9.017
16874SOL    HW252462   4.558   8.075   9.147
16875SOL     OW52463   0.013   6.997   4.319
16875SOL    HW152464   0.097   6.973   4.359
16875SOL    HW252465  14.829   6.990   4.391
16876SOL     OW52466   3.496   7.907   6.019
16876SOL    HW152467   3.427   7.945   6.074
16876SOL    HW252468   3.484   7.948   5.933
16877SOL     OW52469   3.277   3.032   5.186
16877SOL    HW152470   3.283   2.988   5.102
16877SOL    HW252471   3.207   2.987   5.232
16878SOL     OW52472   7.675  10.451   2.727
16878SOL    HW152473   7.581  10.450   2.746
16878SOL    HW252474   7.717  10.427   2.810
16879SOL     OW52475   2.589   3.646   7.111
16879SOL    HW152476   2.645   3.603   7.047
16879SOL    HW252477   2.521   3.689   7.059
16880SOL     OW52478   0.231  11.353   0.890
16880SOL    HW152479   0.194  11.375   0.804
16880SOL    HW252480   0.304  11.415   0.900
16881SOL     OW52481   6.491   0.730   2.867
16881SOL    HW152482   6.526   0.769   2.947
16881SOL    HW252483   6.559   0.670   2.837
16882SOL     OW52484   5.581   5.882   7.125
16882SOL    HW152485   5.667   5.903   7.091
16882SOL    HW252486   5.520   5.933   7.072
16883SOL     OW52487   9.353  11.875   5.419
16883SOL    HW152488   9.397  11.931   5.354
16883SOL    HW252489   9.309  11.936   5.478
16884SOL     OW52490   0.615  11.383   6.007
16884SOL    HW152491   0.701  11.407   6.042
16884SOL    HW252492   0.599  11.295   6.040
16885SOL     OW52493   9.729   8.675   3.328
16885SOL    HW152494   9.790   8.735   3.284
16885SOL    HW252495   9.642   8.707   3.303
16886SOL     OW52496  12.436   7.376   6.167
16886SOL    HW152497  12.519   7.407   6.203
16886SOL    HW252498  12.372   7.443   6.191
16887SOL     OW52499   3.073  10.838   0.721
16887SOL    HW152500   3.012  10.765   0.713
16887SOL    HW252501   3.126  10.817   0.798
16888SOL     OW52502   9.754  11.995  14.732
16888SOL    HW152503   9.700  11.924  14.765
16888SOL    HW252504   9.717  12.074  14.772
16889SOL     OW52505   3.740   3.429   9.508
16889SOL    HW152506   3.659   3.411   9.557
16889SOL    HW252507   3.809   3.388   9.559
16890SOL     OW52508   5.146   6.848   4.326
16890SOL    HW152509   5.170   6.785   4.259
16890SOL    HW252510   5.056   6.874   4.304
16891SOL     OW52511   3.640   4.826   7.707
16891SOL    HW152512   3.622   4.734   7.685
16891SOL    HW252513   3.558   4.872   7.688
16892SOL     OW52514  14.804   0.672   9.568
16892SOL    HW152515  14.722   0.672   9.618
16892SOL    HW252516  14.781   0.712   9.484
16893SOL     OW52517  11.523   7.372   2.362
16893SOL    HW152518  11.539   7.437   2.430
16893SOL    HW252519  11.428   7.373   2.349
16894SOL     OW52520   5.726  10.258  13.267
16894SOL    HW152521   5.658  10.293  13.325
16894SOL    HW252522   5.713  10.163  13.270
16895SOL     OW52523   5.307   5.958   3.667
16895SOL    HW152524   5.353   5.974   3.749
16895SOL    HW252525   5.357   6.008   3.602
16896SOL     OW52526   9.923   9.412   9.115
16896SOL    HW152527   9.976   9.401   9.036
16896SOL    HW252528   9.844   9.457   9.086
16897SOL     OW52529  11.871   1.737   4.949
16897SOL    HW152530  11.781   1.703   4.945
16897SOL    HW252531  11.923   1.661   4.973
16898SOL     OW52532  13.619  11.006  10.928
16898SOL    HW152533  13.565  10.937  10.964
16898SOL    HW252534  13.583  11.023  10.841
16899SOL     OW52535   0.417   1.872  13.387
16899SOL    HW152536   0.333   1.844  13.352
16899SOL    HW252537   0.454   1.929  13.319
16900SOL     OW52538   9.377  13.189  14.505
16900SOL    HW152539   9.287  13.198  14.536
16900SOL    HW252540   9.369  13.151  14.418
16901SOL     OW52541   1.697   4.602  10.914
16901SOL    HW152542   1.712   4.638  11.001
16901SOL    HW252543   1.745   4.659  10.855
16902SOL     OW52544   3.437   5.549   6.485
16902SOL    HW152545   3.454   5.576   6.395
16902SOL    HW252546   3.459   5.626   6.538
16903SOL     OW52547  10.696  10.790   9.543
16903SOL    HW152548  10.659  10.754   9.623
16903SOL    HW252549  10.712  10.714   9.488
16904SOL     OW52550  13.084  10.632  13.827
16904SOL    HW152551  13.171  10.614  13.863
16904SOL    HW252552  13.075  10.572  13.753
16905SOL     OW52553   8.914  10.341  10.333
16905SOL    HW152554   8.954  10.298  10.258
16905SOL    HW252555   8.841  10.284  10.358
16906SOL     OW52556   5.193   7.757  12.366
16906SOL    HW152557   5.142   7.831  12.398
16906SOL    HW252558   5.193   7.695  12.439
16907SOL     OW52559   1.119   3.371  10.138
16907SOL    HW152560   1.107   3.283  10.102
16907SOL    HW252561   1.051   3.379  10.204
16908SOL     OW52562  11.826   8.311  11.350
16908SOL    HW152563  11.833   8.226  11.306
16908SOL    HW252564  11.767   8.362  11.295
16909SOL     OW52565   9.195   0.595  11.857
16909SOL    HW152566   9.277   0.600  11.906
16909SOL    HW252567   9.156   0.512  11.884
16910SOL     OW52568  13.189   2.567   6.802
16910SOL    HW152569  13.225   2.604   6.721
16910SOL    HW252570  13.144   2.641   6.844
16911SOL     OW52571   0.603   5.584  11.604
16911SOL    HW152572   0.577   5.511  11.659
16911SOL    HW252573   0.537   5.652  11.622
16912SOL     OW52574   3.024  12.981   8.478
16912SOL    HW152575   3.067  13.045   8.421
16912SOL    HW252576   2.960  13.032   8.528
16913SOL     OW52577   2.763  11.000  12.123
16913SOL    HW152578   2.694  11.009  12.188
16913SOL    HW252579   2.734  10.928  12.067
16914SOL     OW52580  10.486   4.590  11.771
16914SOL    HW152581  10.541   4.668  11.773
16914SOL    HW252582  10.546   4.518  11.791
16915SOL     OW52583   4.705   5.865   4.902
16915SOL    HW152584   4.792   5.904   4.891
16915SOL    HW252585   4.666   5.914   4.974
16916SOL     OW52586  12.875   1.859   0.029
16916SOL    HW152587  12.864   1.813  14.824
16916SOL    HW252588  12.964   1.894   0.026
16917SOL     OW52589   9.039   2.181  12.880
16917SOL    HW152590   9.109   2.216  12.824
16917SOL    HW252591   9.043   2.234  12.959
16918SOL     OW52592   5.702   0.302   3.343
16918SOL    HW152593   5.658   0.269   3.265
16918SOL    HW252594   5.778   0.349   3.308
16919SOL     OW52595  13.060  14.797  11.879
16919SOL    HW152596  12.971  14.799  11.844
16919SOL    HW252597  13.080  14.704  11.888
16920SOL     OW52598  14.875   1.630   3.457
16920SOL    HW152599  14.834   1.700   3.508
16920SOL    HW252600  14.845   1.549   3.500
16921SOL     OW52601   8.944   0.873   6.063
16921SOL    HW152602   9.018   0.831   6.107
16921SOL    HW252603   8.867   0.829   6.099
16922SOL     OW52604  13.139   7.874   0.290
16922SOL    HW152605  13.116   7.843   0.378
16922SOL    HW252606  13.137   7.969   0.297
16923SOL     OW52607   2.242   1.748   2.899
16923SOL    HW152608   2.235   1.743   2.994
16923SOL    HW252609   2.271   1.661   2.872
16924SOL     OW52610   6.877   4.952  13.255
16924SOL    HW152611   6.852   4.932  13.165
16924SOL    HW252612   6.814   5.018  13.284
16925SOL     OW52613  13.402  13.894   7.691
16925SOL    HW152614  13.359  13.833   7.631
16925SOL    HW252615  13.379  13.862   7.778
16926SOL     OW52616   5.107  11.030  11.734
16926SOL    HW152617   5.052  11.091  11.685
16926SOL    HW252618   5.195  11.046  11.702
16927SOL     OW52619   6.102  12.288   7.565
16927SOL    HW152620   6.019  12.337   7.563
16927SOL    HW252621   6.106  12.244   7.480
16928SOL     OW52622   4.527   4.194   7.247
16928SOL    HW152623   4.492   4.134   7.313
16928SOL    HW252624   4.451   4.221   7.197
16929SOL     OW52625  14.817  11.761   3.288
16929SOL    HW152626  14.747  11.820   3.313
16929SOL    HW252627  14.849  11.725   3.371
16930SOL     OW52628   2.166   3.670  11.815
16930SOL    HW152629   2.103   3.604  11.843
16930SOL    HW252630   2.140   3.749  11.862
16931SOL     OW52631  14.025  12.784  11.166
16931SOL    HW152632  13.975  12.760  11.087
16931SOL    HW252633  14.026  12.704  11.219
16932SOL     OW52634  12.833   5.847  14.500
16932SOL    HW152635  12.795   5.776  14.551
16932SOL    HW252636  12.898   5.888  14.558
16933SOL     OW52637   3.360   3.016   7.497
16933SOL    HW152638   3.358   3.026   7.402
16933SOL    HW252639   3.424   3.081   7.526
16934SOL     OW52640   7.800  11.174   5.101
16934SOL    HW152641   7.802  11.230   5.023
16934SOL    HW252642   7.747  11.224   5.164
16935SOL     OW52643   0.747  10.968   4.792
16935SOL    HW152644   0.777  10.941   4.879
16935SOL    HW252645   0.769  10.893   4.736
16936SOL     OW52646   6.003   0.890  13.332
16936SOL    HW152647   5.950   0.876  13.411
16936SOL    HW252648   5.983   0.980  13.307
16937SOL     OW52649   2.791  12.077   3.675
16937SOL    HW152650   2.725  12.009   3.664
16937SOL    HW252651   2.854  12.039   3.737
16938SOL     OW52652   9.417  11.211   5.432
16938SOL    HW152653   9.336  11.255   5.460
16938SOL    HW252654   9.414  11.127   5.477
16939SOL     OW52655   7.667   7.245   2.177
16939SOL    HW152656   7.637   7.227   2.088
16939SOL    HW252657   7.736   7.181   2.193
16940SOL     OW52658  14.392   5.091  12.910
16940SOL    HW152659  14.455   5.162  12.898
16940SOL    HW252660  14.416   5.026  12.843
16941SOL     OW52661   9.333   1.289   2.923
16941SOL    HW152662   9.283   1.216   2.958
16941SOL    HW252663   9.273   1.363   2.925
16942SOL     OW52664  11.342   4.090   7.013
16942SOL    HW152665  11.292   4.025   6.963
16942SOL    HW252666  11.356   4.049   7.098
16943SOL     OW52667   9.218   3.714   9.062
16943SOL    HW152668   9.190   3.802   9.088
16943SOL    HW252669   9.174   3.699   8.978
16944SOL     OW52670   2.454   1.251   9.940
16944SOL    HW152671   2.485   1.205  10.017
16944SOL    HW252672   2.475   1.343   9.957
16945SOL     OW52673  13.222  11.437  13.309
16945SOL    HW152674  13.154  11.474  13.252
16945SOL    HW252675  13.304  11.475  13.276
16946SOL     OW52676  13.896   3.871  10.204
16946SOL    HW152677  13.895   3.813  10.128
16946SOL    HW252678  13.971   3.841  10.256
16947SOL     OW52679   2.512  10.491  10.582
16947SOL    HW152680   2.430  10.535  10.561
16947SOL    HW252681   2.579  10.539  10.533
16948SOL     OW52682   1.734  13.912  13.652
16948SOL    HW152683   1.740  14.004  13.677
16948SOL    HW252684   1.643  13.902  13.623
16949SOL     OW52685   9.999   9.264  10.782
16949SOL    HW152686   9.973   9.257  10.690
16949SOL    HW252687   9.996   9.173  10.814
16950SOL     OW52688  12.207  12.689   7.961
16950SOL    HW152689  12.183  12.777   7.992
16950SOL    HW252690  12.193  12.692   7.866
16951SOL     OW52691   8.269  10.312   6.720
16951SOL    HW152692   8.206  10.297   6.649
16951SOL    HW252693   8.223  10.285   6.799
16952SOL     OW52694  13.953   1.528   9.623
16952SOL    HW152695  13.995   1.477   9.553
16952SOL    HW252696  13.913   1.602   9.578
16953SOL     OW52697  11.522   9.029   3.322
16953SOL    HW152698  11.482   8.965   3.381
16953SOL    HW252699  11.454   9.094   3.307
16954SOL     OW52700   6.936   0.555   4.700
16954SOL    HW152701   6.869   0.622   4.712
16954SOL    HW252702   6.887   0.475   4.681
16955SOL     OW52703  12.652   2.974   8.007
16955SOL    HW152704  12.565   2.963   7.969
16955SOL    HW252705  12.696   3.035   7.948
16956SOL     OW52706   1.449   0.724   8.837
16956SOL    HW152707   1.369   0.732   8.890
16956SOL    HW252708   1.442   0.638   8.797
16957SOL     OW52709   4.918  14.336   0.002
16957SOL    HW152710   4.841  14.300   0.045
16957SOL    HW252711   4.972  14.370   0.073
16958SOL     OW52712   0.269   1.290   4.113
16958SOL    HW152713   0.346   1.347   4.100
16958SOL    HW252714   0.297   1.205   4.080
16959SOL     OW52715   4.066   8.763  10.433
16959SOL    HW152716   4.104   8.675  10.435
16959SOL    HW252717   3.988   8.758  10.489
16960SOL     OW52718  11.842   0.946   3.180
16960SOL    HW152719  11.822   0.964   3.088
16960SOL    HW252720  11.826   1.028   3.225
16961SOL     OW52721   6.572   8.111   6.930
16961SOL    HW152722   6.528   8.149   7.006
16961SOL    HW252723   6.586   8.185   6.870
16962SOL     OW52724   0.722  13.961  11.829
16962SOL    HW152725   0.742  14.051  11.855
16962SOL    HW252726   0.808  13.919  11.822
16963SOL     OW52727  10.925  13.566  13.908
16963SOL    HW152728  10.966  13.502  13.966
16963SOL    HW252729  10.837  13.578  13.944
16964SOL     OW52730  14.207   7.929   6.772
16964SOL    HW152731  14.301   7.933   6.754
16964SOL    HW252732  14.171   7.876   6.701
16965SOL     OW52733   4.724   1.557   3.391
16965SOL    HW152734   4.653   1.616   3.415
16965SOL    HW252735   4.753   1.588   3.305
16966SOL     OW52736   6.946   4.490   9.551
16966SOL    HW152737   6.897   4.570   9.531
16966SOL    HW252738   6.993   4.511   9.633
16967SOL     OW52739  13.014  12.653   2.321
16967SOL    HW152740  13.084  12.689   2.375
16967SOL    HW252741  12.992  12.570   2.364
16968SOL     OW52742   3.695   1.202   1.827
16968SOL    HW152743   3.603   1.181   1.837
16968SOL    HW252744   3.731   1.131   1.773
16969SOL     OW52745   2.524   6.664  13.234
16969SOL    HW152746   2.505   6.585  13.285
16969SOL    HW252747   2.504   6.736  13.294
16970SOL     OW52748  10.431   5.977   1.090
16970SOL    HW152749  10.396   5.896   1.128
16970SOL    HW252750  10.494   6.008   1.155
16971SOL     OW52751  10.069  11.606  13.460
16971SOL    HW152752  10.058  11.574  13.371
16971SOL    HW252753  10.133  11.676  13.453
16972SOL     OW52754   4.696  13.861   4.294
16972SOL    HW152755   4.663  13.774   4.271
16972SOL    HW252756   4.618  13.917   4.295
16973SOL     OW52757  10.916   5.093   9.205
16973SOL    HW152758  10.942   5.099   9.297
16973SOL    HW252759  10.971   5.157   9.160
16974SOL     OW52760  12.820   1.842  11.229
16974SOL    HW152761  12.818   1.746  11.223
16974SOL    HW252762  12.889   1.868  11.168
16975SOL     OW52763   3.496   6.725  10.912
16975SOL    HW152764   3.517   6.632  10.907
16975SOL    HW252765   3.576   6.767  10.941
16976SOL     OW52766   1.893   9.984  12.728
16976SOL    HW152767   1.860  10.042  12.660
16976SOL    HW252768   1.947   9.920  12.682
16977SOL     OW52769   6.837  13.282   9.268
16977SOL    HW152770   6.915  13.251   9.222
16977SOL    HW252771   6.767  13.226   9.236
16978SOL     OW52772  13.131  10.231  13.451
16978SOL    HW152773  13.184  10.280  13.389
16978SOL    HW252774  13.042  10.237  13.417
16979SOL     OW52775   7.954   2.628   1.324
16979SOL    HW152776   7.947   2.584   1.239
16979SOL    HW252777   8.005   2.567   1.378
16980SOL     OW52778   5.114   6.911   5.614
16980SOL    HW152779   5.186   6.864   5.656
16980SOL    HW252780   5.126   6.895   5.520
16981SOL     OW52781   4.005   3.544   0.839
16981SOL    HW152782   3.956   3.473   0.880
16981SOL    HW252783   4.068   3.571   0.906
16982SOL     OW52784   9.202  10.801   0.912
16982SOL    HW152785   9.207  10.862   0.986
16982SOL    HW252786   9.146  10.845   0.849
16983SOL     OW52787  13.326  10.055   6.835
16983SOL    HW152788  13.236  10.074   6.808
16983SOL    HW252789  13.376  10.130   6.805
16984SOL     OW52790   9.687   8.970   9.275
16984SOL    HW152791   9.669   8.969   9.369
16984SOL    HW252792   9.753   9.038   9.264
16985SOL     OW52793  13.389   7.416  11.884
16985SOL    HW152794  13.417   7.415  11.975
16985SOL    HW252795  13.346   7.501  11.873
16986SOL     OW52796   9.936   8.787   6.345
16986SOL    HW152797   9.938   8.875   6.307
16986SOL    HW252798   9.853   8.784   6.393
16987SOL     OW52799  11.119  11.282   0.047
16987SOL    HW152800  11.159  11.197   0.064
16987SOL    HW252801  11.158  11.311  14.843
16988SOL     OW52802   1.030   6.648   1.885
16988SOL    HW152803   0.960   6.592   1.853
16988SOL    HW252804   1.072   6.681   1.805
16989SOL     OW52805  10.996  13.026   2.163
16989SOL    HW152806  11.019  13.070   2.081
16989SOL    HW252807  10.974  12.937   2.137
16990SOL     OW52808   4.841  12.880   5.773
16990SOL    HW152809   4.766  12.835   5.734
16990SOL    HW252810   4.872  12.820   5.841
16991SOL     OW52811   2.755  14.666   5.983
16991SOL    HW152812   2.828  14.661   6.045
16991SOL    HW252813   2.677  14.656   6.037
16992SOL     OW52814   1.941   0.699   3.357
16992SOL    HW152815   1.921   0.674   3.267
16992SOL    HW252816   1.956   0.793   3.354
16993SOL     OW52817  10.714   5.380  10.738
16993SOL    HW152818  10.694   5.471  10.715
16993SOL    HW252819  10.630   5.342  10.763
16994SOL     OW52820   4.963   7.578   2.176
16994SOL    HW152821   4.933   7.497   2.218
16994SOL    HW252822   5.055   7.586   2.201
16995SOL     OW52823   5.888   8.921   1.949
16995SOL    HW152824   5.871   8.991   2.013
16995SOL    HW252825   5.847   8.952   1.869
16996SOL     OW52826   9.706  13.593   4.892
16996SOL    HW152827   9.674  13.507   4.917
16996SOL    HW252828   9.761  13.621   4.965
16997SOL     OW52829   9.695  12.826   0.210
16997SOL    HW152830   9.648  12.902   0.175
16997SOL    HW252831   9.629  12.779   0.262
16998SOL     OW52832  13.594   6.435   3.810
16998SOL    HW152833  13.652   6.403   3.741
16998SOL    HW252834  13.547   6.358   3.841
16999SOL     OW52835   3.086  12.869  12.577
16999SOL    HW152836   3.031  12.794  12.598
16999SOL    HW252837   3.092  12.919  12.659
17000SOL     OW52838   4.410   1.327   4.903
17000SOL    HW152839   4.342   1.379   4.946
17000SOL    HW252840   4.385   1.326   4.811
17001SOL     OW52841   8.334   3.412  10.482
17001SOL    HW152842   8.291   3.497  10.488
17001SOL    HW252843   8.300   3.362  10.556
17002SOL     OW52844   7.033   5.383   7.494
17002SOL    HW152845   6.969   5.382   7.422
17002SOL    HW252846   7.117   5.369   7.451
17003SOL     OW52847  11.826   1.927   3.003
17003SOL    HW152848  11.772   2.006   3.003
17003SOL    HW252849  11.853   1.915   3.094
17004SOL     OW52850   4.314   1.666   8.569
17004SOL    HW152851   4.388   1.606   8.563
17004SOL    HW252852   4.314   1.696   8.660
17005SOL     OW52853  13.184   0.622   1.682
17005SOL    HW152854  13.254   0.612   1.746
17005SOL    HW252855  13.105   0.596   1.729
17006SOL     OW52856  13.437  11.398   3.040
17006SOL    HW152857  13.528  11.371   3.048
17006SOL    HW252858  13.386  11.317   3.046
17007SOL     OW52859   2.521   1.430   4.426
17007SOL    HW152860   2.549   1.517   4.456
17007SOL    HW252861   2.476   1.393   4.502
17008SOL     OW52862   4.678   8.851   5.861
17008SOL    HW152863   4.655   8.777   5.805
17008SOL    HW252864   4.612   8.918   5.841
17009SOL     OW52865   5.934  12.162  12.431
17009SOL    HW152866   5.926  12.089  12.370
17009SOL    HW252867   5.929  12.122  12.518
17010SOL     OW52868   2.981   8.740  12.852
17010SOL    HW152869   2.987   8.705  12.763
17010SOL    HW252870   2.896   8.784  12.854
17011SOL     OW52871   9.523  12.375  14.113
17011SOL    HW152872   9.616  12.394  14.103
17011SOL    HW252873   9.479  12.451  14.075
17012SOL     OW52874   8.924   9.383   1.576
17012SOL    HW152875   8.901   9.435   1.499
17012SOL    HW252876   8.980   9.441   1.628
17013SOL     OW52877   9.401  12.485   6.242
17013SOL    HW152878   9.478  12.501   6.297
17013SOL    HW252879   9.433  12.425   6.174
17014SOL     OW52880   8.667   2.750   0.322
17014SOL    HW152881   8.697   2.791   0.403
17014SOL    HW252882   8.707   2.663   0.323
17015SOL     OW52883  14.533   5.956  11.944
17015SOL    HW152884  14.472   5.971  11.872
17015SOL    HW252885  14.620   5.966  11.905
17016SOL     OW52886   3.024   5.060  13.269
17016SOL    HW152887   2.945   5.106  13.298
17016SOL    HW252888   3.080   5.056  13.347
17017SOL     OW52889  13.611   9.721  10.757
17017SOL    HW152890  13.528   9.680  10.782
17017SOL    HW252891  13.620   9.795  10.817
17018SOL     OW52892   6.797   3.633   7.514
17018SOL    HW152893   6.837   3.715   7.483
17018SOL    HW252894   6.790   3.579   7.436
17019SOL     OW52895  14.233   3.489   3.365
17019SOL    HW152896  14.252   3.427   3.295
17019SOL    HW252897  14.186   3.560   3.321
17020SOL     OW52898   8.534  13.507   7.506
17020SOL    HW152899   8.535  13.434   7.445
17020SOL    HW252900   8.602  13.486   7.570
17021SOL     OW52901   2.812  13.541   3.898
17021SOL    HW152902   2.739  13.490   3.864
17021SOL    HW252903   2.826  13.506   3.986
17022SOL     OW52904   7.491  10.465   3.507
17022SOL    HW152905   7.565  10.465   3.446
17022SOL    HW252906   7.414  10.478   3.452
17023SOL     OW52907   9.130   1.459   3.063
17023SOL    HW152908   9.049   1.434   3.107
17023SOL    HW252909   9.190   1.484   3.134
17024SOL     OW52910   6.317   8.654   4.028
17024SOL    HW152911   6.233   8.700   4.023
17024SOL    HW252912   6.339   8.654   4.121
17025SOL     OW52913   2.616   6.172   5.748
17025SOL    HW152914   2.698   6.127   5.769
17025SOL    HW252915   2.574   6.187   5.832
17026SOL     OW52916  10.174   0.573  12.058
17026SOL    HW152917  10.138   0.496  12.012
17026SOL    HW252918  10.262   0.547  12.083
17027SOL     OW52919  11.659  13.892   0.680
17027SOL    HW152920  11.585  13.928   0.729
17027SOL    HW252921  11.736  13.927   0.725
17028SOL     OW52922   2.116  12.555   2.867
17028SOL    HW152923   2.047  12.603   2.821
17028SOL    HW252924   2.076  12.470   2.888
17029SOL     OW52925   6.851   3.608  10.728
17029SOL    HW152926   6.797   3.681  10.759
17029SOL    HW252927   6.897   3.578  10.807
17030SOL     OW52928   9.323  14.705  11.029
17030SOL    HW152929   9.380  14.781  11.018
17030SOL    HW252930   9.314  14.695  11.123
17031SOL     OW52931  14.745  12.339   8.376
17031SOL    HW152932  14.808  12.410   8.360
17031SOL    HW252933  14.663  12.384   8.398
17032SOL     OW52934   1.334  13.904   6.842
17032SOL    HW152935   1.319  13.814   6.813
17032SOL    HW252936   1.256  13.952   6.813
17033SOL     OW52937   2.305  13.466  11.632
17033SOL    HW152938   2.224  13.432  11.593
17033SOL    HW252939   2.281  13.487  11.722
17034SOL     OW52940  10.942   0.077   4.666
17034SOL    HW152941  10.902   0.029   4.594
17034SOL    HW252942  10.868   0.112   4.716
17035SOL     OW52943   4.690  10.270  13.986
17035SOL    HW152944   4.651  10.191  13.947
17035SOL    HW252945   4.625  10.298  14.051
17036SOL     OW52946   4.216  12.676   3.699
17036SOL    HW152947   4.275  12.749   3.677
17036SOL    HW252948   4.259  12.631   3.772
17037SOL     OW52949  14.423  14.819   1.124
17037SOL    HW152950  14.352  14.786   1.180
17037SOL    HW252951  14.393  14.801   1.034
17038SOL     OW52952   5.723  11.787  10.616
17038SOL    HW152953   5.764  11.726  10.677
17038SOL    HW252954   5.793  11.815  10.558
17039SOL     OW52955   3.358   5.778   8.720
17039SOL    HW152956   3.305   5.858   8.722
17039SOL    HW252957   3.305   5.714   8.768
17040SOL     OW52958   3.977   5.220   6.248
17040SOL    HW152959   3.987   5.226   6.343
17040SOL    HW252960   4.059   5.255   6.213
17041SOL     OW52961  10.722  10.618   0.918
17041SOL    HW152962  10.754  10.551   0.857
17041SOL    HW252963  10.659  10.669   0.867
17042SOL     OW52964  12.325   9.869   0.425
17042SOL    HW152965  12.332   9.876   0.520
17042SOL    HW252966  12.395   9.808   0.401
17043SOL     OW52967  11.097   0.716   0.917
17043SOL    HW152968  11.165   0.652   0.895
17043SOL    HW252969  11.051   0.731   0.835
17044SOL     OW52970  12.686   6.728   0.678
17044SOL    HW152971  12.735   6.715   0.759
17044SOL    HW252972  12.728   6.670   0.615
17045SOL     OW52973  13.714  13.733   4.498
17045SOL    HW152974  13.746  13.767   4.582
17045SOL    HW252975  13.791  13.729   4.442
17046SOL     OW52976   3.920  13.537  14.823
17046SOL    HW152977   3.943  13.549   0.036
17046SOL    HW252978   3.883  13.620  14.796
17047SOL     OW52979   2.415   2.520   8.864
17047SOL    HW152980   2.474   2.517   8.940
17047SOL    HW252981   2.400   2.428   8.842
17048SOL     OW52982   5.539   7.816  11.254
17048SOL    HW152983   5.490   7.828  11.173
17048SOL    HW252984   5.503   7.880  11.315
17049SOL     OW52985   2.488   7.895  12.086
17049SOL    HW152986   2.516   7.822  12.141
17049SOL    HW252987   2.394   7.902  12.099
17050SOL     OW52988   6.246   2.810  14.874
17050SOL    HW152989   6.161   2.802  14.830
17050SOL    HW252990   6.236   2.758   0.075
17051SOL     OW52991  12.580   0.384   7.727
17051SOL    HW152992  12.659   0.337   7.754
17051SOL    HW252993  12.550   0.429   7.806
17052SOL     OW52994  10.585   1.430   2.581
17052SOL    HW152995  10.666   1.383   2.558
17052SOL    HW252996  10.544   1.376   2.648
17053SOL     OW52997   0.252   8.165   9.460
17053SOL    HW152998   0.234   8.231   9.527
17053SOL    HW252999   0.231   8.210   9.377
17054SOL     OW53000  11.154   1.774  12.332
17054SOL    HW153001  11.203   1.856  12.345
17054SOL    HW253002  11.068   1.803  12.303
17055SOL     OW53003   7.920   2.047   2.078
17055SOL    HW153004   7.897   2.041   1.985
17055SOL    HW253005   7.836   2.043   2.123
17056SOL     OW53006   8.730   1.626   2.670
17056SOL    HW153007   8.740   1.587   2.583
17056SOL    HW253008   8.781   1.707   2.666
17057SOL     OW53009   0.820   3.147   2.947
17057SOL    HW153010   0.910   3.164   2.976
17057SOL    HW253011   0.780   3.100   3.019
17058SOL     OW53012   3.968  14.193   5.105
17058SOL    HW153013   3.959  14.264   5.041
17058SOL    HW253014   3.919  14.120   5.068
17059SOL     OW53015   8.383   7.567   7.483
17059SOL    HW153016   8.382   7.476   7.456
17059SOL    HW253017   8.301   7.579   7.531
17060SOL     OW53018   7.836   6.906   3.507
17060SOL    HW153019   7.773   6.849   3.551
17060SOL    HW253020   7.805   6.995   3.527
17061SOL     OW53021   4.036   1.305   3.722
17061SOL    HW153022   3.953   1.323   3.768
17061SOL    HW253023   4.099   1.365   3.763
17062SOL     OW53024   6.324  13.995   4.376
17062SOL    HW153025   6.396  13.933   4.367
17062SOL    HW253026   6.270  13.958   4.446
17063SOL     OW53027   6.537  14.184   4.009
17063SOL    HW153028   6.470  14.221   4.065
17063SOL    HW253029   6.526  14.230   3.925
17064SOL     OW53030   8.885   8.737   9.843
17064SOL    HW153031   8.819   8.685   9.797
17064SOL    HW253032   8.933   8.782   9.774
17065SOL     OW53033   6.258  11.314   5.108
17065SOL    HW153034   6.221  11.226   5.103
17065SOL    HW253035   6.189  11.371   5.072
17066SOL     OW53036   0.785  10.054  14.764
17066SOL    HW153037   0.821  10.094  14.685
17066SOL    HW253038   0.694  10.033  14.741
17067SOL     OW53039  14.817   9.593  12.526
17067SOL    HW153040  14.859   9.519  12.568
17067SOL    HW253041  14.826   9.665  12.589
17068SOL     OW53042  13.574   0.835  12.505
17068SOL    HW153043  13.595   0.837  12.412
17068SOL    HW253044  13.585   0.743  12.531
17069SOL     OW53045  13.144   0.663   5.229
17069SOL    HW153046  13.113   0.730   5.290
17069SOL    HW253047  13.232   0.691   5.204
17070SOL     OW53048   4.147  14.455   6.212
17070SOL    HW153049   4.227  14.437   6.261
17070SOL    HW253050   4.138  14.381   6.152
17071SOL     OW53051   8.570   5.067   6.538
17071SOL    HW153052   8.653   5.055   6.493
17071SOL    HW253053   8.514   5.111   6.475
17072SOL     OW53054  14.462   4.388   6.698
17072SOL    HW153055  14.518   4.317   6.727
17072SOL    HW253056  14.373   4.361   6.722
17073SOL     OW53057  12.817   9.748   9.981
17073SOL    HW153058  12.725   9.773   9.992
17073SOL    HW253059  12.835   9.689  10.054
17074SOL     OW53060   1.758  11.033   7.764
17074SOL    HW153061   1.736  10.993   7.848
17074SOL    HW253062   1.683  11.087   7.742
17075SOL     OW53063   4.283  11.224   9.583
17075SOL    HW153064   4.366  11.270   9.568
17075SOL    HW253065   4.257  11.250   9.671
17076SOL     OW53066   4.472   0.449   1.797
17076SOL    HW153067   4.517   0.517   1.748
17076SOL    HW253068   4.539   0.383   1.815
17077SOL     OW53069  11.237   0.364   5.478
17077SOL    HW153070  11.263   0.456   5.477
17077SOL    HW253071  11.226   0.344   5.571
17078SOL     OW53072   9.143   4.444  13.998
17078SOL    HW153073   9.214   4.381  14.011
17078SOL    HW253074   9.155   4.475  13.909
17079SOL     OW53075   0.377   3.360   1.303
17079SOL    HW153076   0.415   3.279   1.336
17079SOL    HW253077   0.365   3.415   1.381
17080SOL     OW53078  12.398   5.775   0.011
17080SOL    HW153079  12.423   5.837  14.822
17080SOL    HW253080  12.311   5.805   0.039
17081SOL     OW53081  11.011  12.536  14.425
17081SOL    HW153082  11.104  12.559  14.430
17081SOL    HW253083  11.004  12.453  14.471
17082SOL     OW53084  12.727  14.550   3.205
17082SOL    HW153085  12.661  14.580   3.142
17082SOL    HW253086  12.709  14.599   3.285
17083SOL     OW53087   7.118   4.860   7.830
17083SOL    HW153088   7.134   4.926   7.763
17083SOL    HW253089   7.204   4.825   7.851
17084SOL     OW53090   6.493  11.803   6.294
17084SOL    HW153091   6.410  11.756   6.285
17084SOL    HW253092   6.549  11.742   6.342
17085SOL     OW53093   5.003   5.970   2.290
17085SOL    HW153094   5.080   5.922   2.321
17085SOL    HW253095   5.014   6.059   2.325
17086SOL     OW53096   3.334  11.873  11.745
17086SOL    HW153097   3.267  11.810  11.771
17086SOL    HW253098   3.413  11.821  11.730
17087SOL     OW53099   6.812   2.011   7.634
17087SOL    HW153100   6.768   1.955   7.570
17087SOL    HW253101   6.887   1.959   7.663
17088SOL     OW53102   1.918   4.965   4.447
17088SOL    HW153103   1.879   4.919   4.373
17088SOL    HW253104   1.970   4.898   4.491
17089SOL     OW53105   8.376   0.744  12.948
17089SOL    HW153106   8.325   0.665  12.967
17089SOL    HW253107   8.424   0.723  12.867
17090SOL     OW53108   1.253   8.627   3.054
17090SOL    HW153109   1.192   8.597   3.122
17090SOL    HW253110   1.326   8.666   3.103
17091SOL     OW53111   8.202   7.894  12.078
17091SOL    HW153112   8.245   7.831  12.020
17091SOL    HW253113   8.274   7.937  12.124
17092SOL     OW53114  10.645   3.449   8.171
17092SOL    HW153115  10.557   3.486   8.169
17092SOL    HW253116  10.678   3.459   8.081
17093SOL     OW53117  12.835  12.478   0.458
17093SOL    HW153118  12.779  12.550   0.428
17093SOL    HW253119  12.914  12.522   0.490
17094SOL     OW53120   0.400   2.500  13.266
17094SOL    HW153121   0.306   2.479  13.273
17094SOL    HW253122   0.429   2.507  13.357
17095SOL     OW53123  14.512  12.108   7.623
17095SOL    HW153124  14.449  12.117   7.694
17095SOL    HW253125  14.498  12.020   7.589
17096SOL     OW53126   4.464  14.440   2.386
17096SOL    HW153127   4.551  14.404   2.400
17096SOL    HW253128   4.459  14.454   2.292
17097SOL     OW53129  11.949   5.976  11.357
17097SOL    HW153130  12.006   6.010  11.288
17097SOL    HW253131  11.992   5.895  11.386
17098SOL     OW53132  13.664  10.971   5.757
17098SOL    HW153133  13.702  11.043   5.708
17098SOL    HW253134  13.570  10.991   5.761
17099SOL     OW53135   9.441   5.817  10.616
17099SOL    HW153136   9.372   5.753  10.635
17099SOL    HW253137   9.509   5.799  10.682
17100SOL     OW53138   3.173   9.012  10.833
17100SOL    HW153139   3.219   8.988  10.913
17100SOL    HW253140   3.201   8.947  10.768
17101SOL     OW53141   5.229   0.871   9.990
17101SOL    HW153142   5.272   0.886  10.074
17101SOL    HW253143   5.253   0.781   9.967
17102SOL     OW53144   0.462   6.568   2.416
17102SOL    HW153145   0.456   6.653   2.458
17102SOL    HW253146   0.486   6.507   2.486
17103SOL     OW53147   3.415   0.350   7.817
17103SOL    HW153148   3.368   0.281   7.770
17103SOL    HW253149   3.443   0.411   7.749
17104SOL     OW53150   2.281   2.913   0.488
17104SOL    HW153151   2.318   2.825   0.478
17104SOL    HW253152   2.204   2.901   0.544
17105SOL     OW53153  11.356  11.531  11.963
17105SOL    HW153154  11.293  11.568  12.025
17105SOL    HW253155  11.433  11.509  12.016
17106SOL     OW53156  12.608   0.617   5.432
17106SOL    HW153157  12.514   0.614   5.449
17106SOL    HW253158  12.622   0.553   5.362
17107SOL     OW53159   0.998   4.362   6.749
17107SOL    HW153160   0.933   4.404   6.693
17107SOL    HW253161   0.979   4.397   6.837
17108SOL     OW53162  11.707   2.929   5.103
17108SOL    HW153163  11.644   2.999   5.121
17108SOL    HW253164  11.757   2.961   5.028
17109SOL     OW53165   2.597   8.676   3.780
17109SOL    HW153166   2.518   8.720   3.749
17109SOL    HW253167   2.647   8.744   3.824
17110SOL     OW53168   3.598  11.798   2.577
17110SOL    HW153169   3.639  11.851   2.508
17110SOL    HW253170   3.505  11.797   2.555
17111SOL     OW53171  12.809   3.250  13.039
17111SOL    HW153172  12.800   3.160  13.070
17111SOL    HW253173  12.719   3.281  13.028
17112SOL     OW53174   2.757   5.563  13.405
17112SOL    HW153175   2.729   5.581  13.495
17112SOL    HW253176   2.770   5.650  13.366
17113SOL     OW53177  13.603   2.757  11.984
17113SOL    HW153178  13.608   2.726  11.894
17113SOL    HW253179  13.682   2.810  11.995
17114SOL     OW53180  11.223   7.544   6.405
17114SOL    HW153181  11.184   7.509   6.486
17114SOL    HW253182  11.244   7.466   6.354
17115SOL     OW53183   0.028   8.839   0.760
17115SOL    HW153184  14.863   8.921   0.738
17115SOL    HW253185  14.850   8.796   0.823
17116SOL     OW53186   4.912  11.416  14.010
17116SOL    HW153187   4.948  11.504  14.005
17116SOL    HW253188   4.979  11.360  13.971
17117SOL     OW53189  12.745   1.920   5.126
17117SOL    HW153190  12.742   1.845   5.185
17117SOL    HW253191  12.669   1.907   5.068
17118SOL     OW53192   5.901  12.781   4.929
17118SOL    HW153193   5.913  12.870   4.896
17118SOL    HW253194   5.806  12.773   4.943
17119SOL     OW53195  11.162   5.366   9.469
17119SOL    HW153196  11.211   5.284   9.468
17119SOL    HW253197  11.130   5.373   9.559
17120SOL     OW53198   4.131   0.980   8.294
17120SOL    HW153199   4.145   1.070   8.266
17120SOL    HW253200   4.190   0.969   8.369
17121SOL     OW53201   4.603  13.566   7.637
17121SOL    HW153202   4.596  13.587   7.730
17121SOL    HW253203   4.697  13.548   7.624
17122SOL     OW53204   6.459   2.270   9.349
17122SOL    HW153205   6.553   2.256   9.350
17122SOL    HW253206   6.442   2.309   9.264
17123SOL     OW53207   4.041   4.204  10.819
17123SOL    HW153208   3.960   4.169  10.782
17123SOL    HW253209   4.048   4.162  10.904
17124SOL     OW53210   6.883  10.046  14.138
17124SOL    HW153211   6.969  10.086  14.155
17124SOL    HW253212   6.851  10.090  14.059
17125SOL     OW53213  10.069  10.153   1.067
17125SOL    HW153214  10.088  10.219   1.000
17125SOL    HW253215  10.155  10.125   1.098
17126SOL     OW53216   8.642  12.936   5.439
17126SOL    HW153217   8.703  12.946   5.365
17126SOL    HW253218   8.668  12.854   5.481
17127SOL     OW53219  10.694  13.208   4.841
17127SOL    HW153220  10.774  13.221   4.790
17127SOL    HW253221  10.625  13.249   4.788
17128SOL     OW53222  13.868  12.079  13.330
17128SOL    HW153223  13.896  12.137  13.401
17128SOL    HW253224  13.824  12.137  13.267
17129SOL     OW53225   9.423   5.662   7.944
17129SOL    HW153226   9.461   5.743   7.977
17129SOL    HW253227   9.488   5.595   7.963
17130SOL     OW53228   6.587  12.132   3.007
17130SOL    HW153229   6.556  12.213   2.966
17130SOL    HW253230   6.527  12.065   2.976
17131SOL     OW53231  13.279   7.688   3.212
17131SOL    HW153232  13.367   7.652   3.201
17131SOL    HW253233  13.276   7.761   3.150
17132SOL     OW53234  13.194   3.284   1.510
17132SOL    HW153235  13.155   3.309   1.594
17132SOL    HW253236  13.119   3.269   1.453
17133SOL     OW53237  13.151  10.231   1.347
17133SOL    HW153238  13.202  10.180   1.410
17133SOL    HW253239  13.064  10.191   1.348
17134SOL     OW53240  13.160   7.404   1.520
17134SOL    HW153241  13.224   7.419   1.451
17134SOL    HW253242  13.190   7.457   1.593
17135SOL     OW53243   1.286  14.437   5.299
17135SOL    HW153244   1.231  14.404   5.228
17135SOL    HW253245   1.244  14.407   5.379
17136SOL     OW53246   7.846   8.398  10.759
17136SOL    HW153247   7.861   8.315  10.804
17136SOL    HW253248   7.908   8.397  10.686
17137SOL     OW53249  12.366   8.708  11.283
17137SOL    HW153250  12.377   8.785  11.227
17137SOL    HW253251  12.312   8.648  11.231
17138SOL     OW53252  14.452   9.978  11.664
17138SOL    HW153253  14.506  10.016  11.594
17138SOL    HW253254  14.389  10.046  11.686
17139SOL     OW53255   5.999  13.407  12.643
17139SOL    HW153256   5.911  13.371  12.638
17139SOL    HW253257   5.986  13.501  12.655
17140SOL     OW53258  12.986   8.442  10.246
17140SOL    HW153259  12.986   8.413  10.154
17140SOL    HW253260  12.987   8.360  10.296
17141SOL     OW53261   1.763  12.088   2.414
17141SOL    HW153262   1.795  12.171   2.379
17141SOL    HW253263   1.841  12.045   2.449
17142SOL     OW53264  11.417   2.527   8.196
17142SOL    HW153265  11.408   2.468   8.270
17142SOL    HW253266  11.497   2.577   8.215
17143SOL     OW53267  13.673   9.390   6.600
17143SOL    HW153268  13.636   9.382   6.512
17143SOL    HW253269  13.607   9.351   6.658
17144SOL     OW53270   8.790   0.530   2.273
17144SOL    HW153271   8.852   0.546   2.202
17144SOL    HW253272   8.704   0.551   2.234
17145SOL     OW53273   8.050   6.944   7.822
17145SOL    HW153274   8.121   7.007   7.838
17145SOL    HW253275   8.050   6.932   7.727
17146SOL     OW53276  11.348  14.047   3.132
17146SOL    HW153277  11.379  13.962   3.101
17146SOL    HW253278  11.261  14.057   3.093
17147SOL     OW53279   1.722  10.568   8.262
17147SOL    HW153280   1.646  10.568   8.321
17147SOL    HW253281   1.770  10.648   8.285
17148SOL     OW53282   6.633  14.283  11.837
17148SOL    HW153283   6.680  14.312  11.915
17148SOL    HW253284   6.690  14.305  11.764
17149SOL     OW53285   2.447  10.176   0.969
17149SOL    HW153286   2.504  10.192   0.894
17149SOL    HW253287   2.389  10.252   0.972
17150SOL     OW53288  10.335   6.824   0.157
17150SOL    HW153289  10.350   6.793   0.246
17150SOL    HW253290  10.240   6.830   0.149
17151SOL     OW53291   3.083   6.396   6.597
17151SOL    HW153292   3.139   6.375   6.523
17151SOL    HW253293   3.130   6.362   6.673
17152SOL     OW53294  12.077   8.448   6.755
17152SOL    HW153295  12.090   8.542   6.768
17152SOL    HW253296  12.101   8.409   6.839
17153SOL     OW53297   3.637  11.183  12.940
17153SOL    HW153298   3.551  11.195  12.980
17153SOL    HW253299   3.632  11.097  12.898
17154SOL     OW53300   8.702   5.233   6.234
17154SOL    HW153301   8.745   5.150   6.214
17154SOL    HW253302   8.612   5.209   6.256
17155SOL     OW53303   1.606  11.908   3.408
17155SOL    HW153304   1.540  11.855   3.451
17155SOL    HW253305   1.613  11.871   3.320
17156SOL     OW53306  12.992   7.042  14.140
17156SOL    HW153307  12.962   6.952  14.126
17156SOL    HW253308  13.087   7.036  14.139
17157SOL     OW53309  12.285  13.628  13.416
17157SOL    HW153310  12.249  13.716  13.429
17157SOL    HW253311  12.317  13.629  13.326
17158SOL     OW53312   7.527   0.494  13.056
17158SOL    HW153313   7.516   0.415  13.004
17158SOL    HW253314   7.551   0.561  12.992
17159SOL     OW53315   2.029  10.384  10.387
17159SOL    HW153316   2.113  10.423  10.366
17159SOL    HW253317   1.969  10.458  10.398
17160SOL     OW53318   3.204  14.390   5.814
17160SOL    HW153319   3.206  14.363   5.722
17160SOL    HW253320   3.187  14.484   5.810
17161SOL     OW53321  11.359   7.779   2.855
17161SOL    HW153322  11.333   7.769   2.947
17161SOL    HW253323  11.354   7.873   2.838
17162SOL     OW53324   5.873  11.731   4.705
17162SOL    HW153325   5.890  11.768   4.792
17162SOL    HW253326   5.809  11.661   4.721
17163SOL     OW53327  10.366  12.799   0.047
17163SOL    HW153328  10.439  12.855   0.020
17163SOL    HW253329  10.313  12.855   0.104
17164SOL     OW53330  14.114   4.238  14.434
17164SOL    HW153331  14.067   4.302  14.488
17164SOL    HW253332  14.205   4.245  14.462
17165SOL     OW53333  14.577   4.696   0.376
17165SOL    HW153334  14.553   4.762   0.311
17165SOL    HW253335  14.608   4.622   0.324
17166SOL     OW53336  12.068   7.516   6.735
17166SOL    HW153337  11.982   7.491   6.768
17166SOL    HW253338  12.063   7.610   6.720
17167SOL     OW53339   4.041  10.830   2.138
17167SOL    HW153340   4.004  10.803   2.054
17167SOL    HW253341   3.996  10.776   2.203
17168SOL     OW53342  14.747   1.722  10.206
17168SOL    HW153343  14.762   1.641  10.254
17168SOL    HW253344  14.749   1.696  10.114
17169SOL     OW53345   0.685   5.631  12.670
17169SOL    HW153346   0.771   5.653  12.706
17169SOL    HW253347   0.624   5.689  12.716
17170SOL     OW53348   7.650   5.516   1.970
17170SOL    HW153349   7.673   5.424   1.987
17170SOL    HW253350   7.701   5.566   2.034
17171SOL     OW53351   2.850   9.350   8.737
17171SOL    HW153352   2.938   9.314   8.748
17171SOL    HW253353   2.864   9.445   8.731
17172SOL     OW53354   1.808   6.668   0.913
17172SOL    HW153355   1.856   6.607   0.858
17172SOL    HW253356   1.872   6.698   0.978
17173SOL     OW53357   1.184   2.588  14.274
17173SOL    HW153358   1.148   2.574  14.187
17173SOL    HW253359   1.192   2.683  14.282
17174SOL     OW53360   0.575  10.819   3.579
17174SOL    HW153361   0.497  10.770   3.605
17174SOL    HW253362   0.642  10.795   3.643
17175SOL     OW53363   2.590  11.514   1.654
17175SOL    HW153364   2.647  11.491   1.727
17175SOL    HW253365   2.552  11.430   1.626
17176SOL     OW53366  13.655  12.574   7.594
17176SOL    HW153367  13.608  12.654   7.568
17176SOL    HW253368  13.701  12.598   7.674
17177SOL     OW53369  10.589  10.681   8.651
17177SOL    HW153370  10.559  10.629   8.725
17177SOL    HW253371  10.684  10.686   8.661
17178SOL     OW53372  11.913  14.010   7.952
17178SOL    HW153373  11.868  14.088   7.985
17178SOL    HW253374  11.849  13.969   7.894
17179SOL     OW53375   9.305  13.475  13.974
17179SOL    HW153376   9.282  13.494  14.065
17179SOL    HW253377   9.254  13.397  13.952
17180SOL     OW53378   2.937  10.533   2.702
17180SOL    HW153379   3.006  10.591   2.733
17180SOL    HW253380   2.982  10.469   2.646
17181SOL     OW53381  11.677  12.723  13.019
17181SOL    HW153382  11.753  12.667  13.036
17181SOL    HW253383  11.632  12.681  12.945
17182SOL     OW53384   6.526  14.071   5.646
17182SOL    HW153385   6.501  13.997   5.590
17182SOL    HW253386   6.452  14.082   5.706
17183SOL     OW53387   6.393  11.684   2.324
17183SOL    HW153388   6.376  11.612   2.264
17183SOL    HW253389   6.309  11.699   2.368
17184SOL     OW53390   4.353   7.192   3.044
17184SOL    HW153391   4.306   7.265   3.004
17184SOL    HW253392   4.370   7.221   3.134
17185SOL     OW53393  14.169   6.830   4.828
17185SOL    HW153394  14.161   6.825   4.923
17185SOL    HW253395  14.203   6.745   4.802
17186SOL     OW53396   8.352   1.500   9.820
17186SOL    HW153397   8.423   1.507   9.757
17186SOL    HW253398   8.273   1.495   9.767
17187SOL     OW53399  13.043  11.363   4.552
17187SOL    HW153400  13.115  11.410   4.594
17187SOL    HW253401  13.065  11.363   4.459
17188SOL     OW53402   2.738  11.242   8.947
17188SOL    HW153403   2.811  11.232   8.886
17188SOL    HW253404   2.751  11.327   8.988
17189SOL     OW53405   4.712   3.087   0.909
17189SOL    HW153406   4.686   3.100   0.818
17189SOL    HW253407   4.713   2.992   0.921
17190SOL     OW53408   9.868  11.211  11.354
17190SOL    HW153409   9.785  11.213  11.306
17190SOL    HW253410   9.867  11.292  11.406
17191SOL     OW53411  12.274   9.416   0.946
17191SOL    HW153412  12.223   9.489   0.910
17191SOL    HW253413  12.209   9.349   0.967
17192SOL     OW53414   6.168   5.573  14.726
17192SOL    HW153415   6.114   5.536  14.796
17192SOL    HW253416   6.121   5.651  14.698
17193SOL     OW53417  14.736   9.572   2.403
17193SOL    HW153418  14.816   9.581   2.454
17193SOL    HW253419  14.733   9.479   2.378
17194SOL     OW53420  11.188   2.341   6.406
17194SOL    HW153421  11.276   2.310   6.386
17194SOL    HW253422  11.201   2.427   6.445
17195SOL     OW53423  14.581   1.227   9.615
17195SOL    HW153424  14.572   1.245   9.709
17195SOL    HW253425  14.585   1.314   9.575
17196SOL     OW53426  14.464   4.813   5.852
17196SOL    HW153427  14.474   4.718   5.849
17196SOL    HW253428  14.494   4.838   5.940
17197SOL     OW53429   1.403  12.425   4.279
17197SOL    HW153430   1.312  12.397   4.275
17197SOL    HW253431   1.436  12.388   4.361
17198SOL     OW53432   6.598   6.153   3.535
17198SOL    HW153433   6.614   6.233   3.585
17198SOL    HW253434   6.503   6.148   3.528
17199SOL     OW53435   1.586   9.102   8.823
17199SOL    HW153436   1.647   9.038   8.787
17199SOL    HW253437   1.526   9.051   8.877
17200SOL     OW53438   0.644   5.132   8.989
17200SOL    HW153439   0.687   5.046   8.988
17200SOL    HW253440   0.565   5.119   8.935
17201SOL     OW53441   9.988   1.084   5.216
17201SOL    HW153442  10.007   1.081   5.122
17201SOL    HW253443   9.893   1.094   5.221
17202SOL     OW53444   9.574  13.142   6.835
17202SOL    HW153445   9.593  13.202   6.907
17202SOL    HW253446   9.478  13.132   6.836
17203SOL     OW53447   4.667   9.595   3.717
17203SOL    HW153448   4.717   9.519   3.688
17203SOL    HW253449   4.733   9.661   3.737
17204SOL     OW53450   2.969   6.044   4.352
17204SOL    HW153451   2.889   6.003   4.320
17204SOL    HW253452   3.002   5.984   4.419
17205SOL     OW53453   2.092  11.156   9.867
17205SOL    HW153454   2.164  11.128   9.811
17205SOL    HW253455   2.013  11.139   9.816
17206SOL     OW53456   3.972   2.168   1.007
17206SOL    HW153457   4.004   2.079   1.015
17206SOL    HW253458   4.044   2.223   1.039
17207SOL     OW53459   6.970   1.008   0.310
17207SOL    HW153460   6.936   1.097   0.301
17207SOL    HW253461   6.919   0.969   0.381
17208SOL     OW53462   5.677   2.690   7.793
17208SOL    HW153463   5.609   2.757   7.784
17208SOL    HW253464   5.656   2.625   7.726
17209SOL     OW53465  12.727   8.188  13.380
17209SOL    HW153466  12.698   8.242  13.453
17209SOL    HW253467  12.646   8.166  13.332
17210SOL     OW53468   8.747   0.214   0.426
17210SOL    HW153469   8.843   0.222   0.421
17210SOL    HW253470   8.716   0.250   0.343
17211SOL     OW53471   0.730   6.664  11.738
17211SOL    HW153472   0.655   6.712  11.703
17211SOL    HW253473   0.806   6.713  11.707
17212SOL     OW53474   7.250  10.644  10.454
17212SOL    HW153475   7.297  10.700  10.516
17212SOL    HW253476   7.158  10.653  10.478
17213SOL     OW53477   0.705  11.226   2.549
17213SOL    HW153478   0.695  11.153   2.488
17213SOL    HW253479   0.690  11.304   2.496
17214SOL     OW53480   3.468   3.748   5.205
17214SOL    HW153481   3.393   3.808   5.198
17214SOL    HW253482   3.492   3.730   5.114
17215SOL     OW53483   4.121  10.392   7.842
17215SOL    HW153484   4.106  10.416   7.750
17215SOL    HW253485   4.214  10.410   7.856
17216SOL     OW53486   6.444  12.793   4.138
17216SOL    HW153487   6.524  12.742   4.152
17216SOL    HW253488   6.392  12.739   4.078
17217SOL     OW53489  11.891  11.884  12.658
17217SOL    HW153490  11.888  11.800  12.704
17217SOL    HW253491  11.969  11.878  12.604
17218SOL     OW53492   9.870   6.234   1.275
17218SOL    HW153493   9.949   6.180   1.267
17218SOL    HW253494   9.803   6.173   1.308
17219SOL     OW53495   9.089   9.484   2.669
17219SOL    HW153496   9.154   9.434   2.718
17219SOL    HW253497   9.135   9.514   2.591
17220SOL     OW53498  11.255  12.849  13.521
17220SOL    HW153499  11.328  12.805  13.565
17220SOL    HW253500  11.226  12.915  13.583
17221SOL     OW53501  13.713   1.420   4.126
17221SOL    HW153502  13.782   1.360   4.097
17221SOL    HW253503  13.710   1.409   4.221
17222SOL     OW53504   4.328   3.602   0.497
17222SOL    HW153505   4.336   3.678   0.440
17222SOL    HW253506   4.309   3.530   0.436
17223SOL     OW53507   2.379  10.933  14.641
17223SOL    HW153508   2.317  10.868  14.674
17223SOL    HW253509   2.339  10.964  14.559
17224SOL     OW53510   6.034   3.338   5.628
17224SOL    HW153511   6.038   3.412   5.688
17224SOL    HW253512   5.943   3.334   5.599
17225SOL     OW53513   4.522  14.392   3.785
17225SOL    HW153514   4.530  14.487   3.775
17225SOL    HW253515   4.606  14.365   3.823
17226SOL     OW53516   6.363   9.413   3.102
17226SOL    HW153517   6.271   9.389   3.096
17226SOL    HW253518   6.397   9.402   3.014
17227SOL     OW53519   5.512   9.337   9.884
17227SOL    HW153520   5.433   9.389   9.900
17227SOL    HW253521   5.485   9.273   9.818
17228SOL     OW53522   3.681   8.782   2.679
17228SOL    HW153523   3.627   8.859   2.694
17228SOL    HW253524   3.688   8.741   2.766
17229SOL     OW53525   8.547  11.541  12.134
17229SOL    HW153526   8.539  11.510  12.225
17229SOL    HW253527   8.466  11.589  12.118
17230SOL     OW53528  14.157   7.494   5.697
17230SOL    HW153529  14.163   7.408   5.656
17230SOL    HW253530  14.177   7.556   5.626
17231SOL     OW53531   8.804   7.658   9.087
17231SOL    HW153532   8.748   7.610   9.147
17231SOL    HW253533   8.893   7.627   9.106
17232SOL     OW53534   4.934   7.903   4.358
17232SOL    HW153535   4.894   7.905   4.446
17232SOL    HW253536   4.872   7.853   4.305
17233SOL     OW53537  14.162   1.976  11.929
17233SOL    HW153538  14.198   1.936  11.850
17233SOL    HW253539  14.236   2.019  11.971
17234SOL     OW53540  11.646   1.173   1.808
17234SOL    HW153541  11.603   1.096   1.843
17234SOL    HW253542  11.683   1.217   1.886
17235SOL     OW53543  13.115  10.639   5.016
17235SOL    HW153544  13.123  10.545   5.028
17235SOL    HW253545  13.204  10.670   4.998
17236SOL     OW53546  10.226   3.371   2.857
17236SOL    HW153547  10.249   3.393   2.948
17236SOL    HW253548  10.270   3.439   2.805
17237SOL     OW53549   8.995   2.115  14.743
17237SOL    HW153550   9.088   2.108  14.764
17237SOL    HW253551   8.951   2.114  14.828
17238SOL     OW53552   8.816   2.192   8.728
17238SOL    HW153553   8.830   2.115   8.674
17238SOL    HW253554   8.832   2.163   8.817
17239SOL     OW53555  11.938   8.766  13.342
17239SOL    HW153556  11.908   8.718  13.419
17239SOL    HW253557  11.858   8.797  13.299
17240SOL     OW53558   4.519   1.971   6.229
17240SOL    HW153559   4.462   1.952   6.155
17240SOL    HW253560   4.516   2.067   6.237
17241SOL     OW53561   5.063   2.005   9.820
17241SOL    HW153562   5.120   1.936   9.854
17241SOL    HW253563   4.978   1.963   9.810
17242SOL     OW53564  10.517   4.093  10.379
17242SOL    HW153565  10.554   4.157  10.439
17242SOL    HW253566  10.444   4.054  10.427
17243SOL     OW53567  10.912   6.494  10.936
17243SOL    HW153568  10.893   6.560  11.003
17243SOL    HW253569  10.832   6.489  10.884
17244SOL     OW53570   4.903  12.375   1.066
17244SOL    HW153571   4.995  12.357   1.048
17244SOL    HW253572   4.903  12.415   1.153
17245SOL     OW53573   2.871   2.499   9.936
17245SOL    HW153574   2.905   2.573   9.885
17245SOL    HW253575   2.949   2.452   9.966
17246SOL     OW53576   6.797   3.464  10.510
17246SOL    HW153577   6.836   3.521  10.443
17246SOL    HW253578   6.813   3.509  10.592
17247SOL     OW53579   3.527   1.837  13.123
17247SOL    HW153580   3.465   1.774  13.160
17247SOL    HW253581   3.496   1.922  13.155
17248SOL     OW53582  10.136  11.124   1.853
17248SOL    HW153583  10.209  11.077   1.894
17248SOL    HW253584  10.178  11.184   1.792
17249SOL     OW53585   9.160   0.428   6.109
17249SOL    HW153586   9.222   0.501   6.110
17249SOL    HW253587   9.177   0.382   6.192
17250SOL     OW53588   9.795  14.452   4.041
17250SOL    HW153589   9.798  14.491   4.129
17250SOL    HW253590   9.705  14.466   4.012
17251SOL     OW53591   0.453  11.658   8.339
17251SOL    HW153592   0.454  11.682   8.247
17251SOL    HW253593   0.380  11.595   8.347
17252SOL     OW53594  13.403   6.598   0.643
17252SOL    HW153595  13.451   6.674   0.608
17252SOL    HW253596  13.455   6.523   0.614
17253SOL     OW53597   4.689   4.837   3.674
17253SOL    HW153598   4.764   4.777   3.679
17253SOL    HW253599   4.697   4.878   3.588
17254SOL     OW53600   6.639   2.914  13.881
17254SOL    HW153601   6.636   2.821  13.903
17254SOL    HW253602   6.699   2.952  13.946
17255SOL     OW53603   3.594  13.143   4.971
17255SOL    HW153604   3.689  13.152   4.982
17255SOL    HW253605   3.560  13.136   5.061
17256SOL     OW53606  11.886  13.040  12.503
17256SOL    HW153607  11.830  13.107  12.542
17256SOL    HW253608  11.974  13.079  12.503
17257SOL     OW53609   6.186   3.146   8.317
17257SOL    HW153610   6.152   3.234   8.329
17257SOL    HW253611   6.280   3.159   8.299
17258SOL     OW53612   9.850   4.759  11.564
17258SOL    HW153613   9.887   4.841  11.597
17258SOL    HW253614   9.839   4.704  11.641
17259SOL     OW53615  10.761  14.339   3.827
17259SOL    HW153616  10.726  14.284   3.897
17259SOL    HW253617  10.755  14.284   3.749
17260SOL     OW53618   9.346  13.578  14.577
17260SOL    HW153619   9.432  13.613  14.553
17260SOL    HW253620   9.366  13.504  14.634
17261SOL     OW53621   1.913   0.267   5.332
17261SOL    HW153622   1.850   0.337   5.344
17261SOL    HW253623   1.918   0.225   5.418
17262SOL     OW53624   4.639   5.145   8.303
17262SOL    HW153625   4.687   5.222   8.337
17262SOL    HW253626   4.673   5.133   8.215
17263SOL     OW53627  13.667   0.176   3.039
17263SOL    HW153628  13.725   0.245   3.006
17263SOL    HW253629  13.630   0.136   2.960
17264SOL     OW53630   2.985  13.655   5.519
17264SOL    HW153631   2.926  13.719   5.559
17264SOL    HW253632   3.027  13.612   5.594
17265SOL     OW53633   7.433  12.433   4.718
17265SOL    HW153634   7.377  12.442   4.795
17265SOL    HW253635   7.383  12.377   4.658
17266SOL     OW53636   4.447  11.467   5.549
17266SOL    HW153637   4.519  11.441   5.607
17266SOL    HW253638   4.467  11.425   5.465
17267SOL     OW53639   6.061   4.001   3.117
17267SOL    HW153640   6.035   3.911   3.099
17267SOL    HW253641   6.151   3.996   3.148
17268SOL     OW53642  10.149  14.480  12.550
17268SOL    HW153643  10.129  14.406  12.607
17268SOL    HW253644  10.106  14.459  12.467
17269SOL     OW53645  13.333  10.819   9.144
17269SOL    HW153646  13.307  10.885   9.080
17269SOL    HW253647  13.314  10.735   9.102
17270SOL     OW53648   9.043  11.348   8.341
17270SOL    HW153649   8.971  11.331   8.402
17270SOL    HW253650   8.999  11.363   8.257
17271SOL     OW53651   0.075   5.599   3.349
17271SOL    HW153652   0.156   5.558   3.318
17271SOL    HW253653   0.041   5.539   3.415
17272SOL     OW53654  12.292   6.109   2.461
17272SOL    HW153655  12.361   6.154   2.412
17272SOL    HW253656  12.214   6.119   2.407
17273SOL     OW53657   1.156  14.709  12.828
17273SOL    HW153658   1.218  14.780  12.812
17273SOL    HW253659   1.073  14.754  12.846
17274SOL     OW53660   2.141  13.001  12.911
17274SOL    HW153661   2.149  13.078  12.855
17274SOL    HW253662   2.105  12.933  12.853
17275SOL     OW53663   0.558  10.237   9.576
17275SOL    HW153664   0.598  10.232   9.662
17275SOL    HW253665   0.466  10.255   9.593
17276SOL     OW53666   6.527   5.732   2.770
17276SOL    HW153667   6.495   5.698   2.687
17276SOL    HW253668   6.574   5.812   2.746
17277SOL     OW53669   6.533   8.698   3.238
17277SOL    HW153670   6.623   8.720   3.263
17277SOL    HW253671   6.488   8.680   3.321
17278SOL     OW53672   0.644   6.426  12.038
17278SOL    HW153673   0.716   6.486  12.055
17278SOL    HW253674   0.663   6.388  11.953
17279SOL     OW53675   7.949   3.670  10.805
17279SOL    HW153676   7.910   3.699  10.887
17279SOL    HW253677   8.027   3.621  10.831
17280SOL     OW53678  12.622   1.906   7.025
17280SOL    HW153679  12.554   1.951   7.075
17280SOL    HW253680  12.659   1.842   7.086
17281SOL     OW53681   5.447   4.031  12.258
17281SOL    HW153682   5.396   4.082  12.322
17281SOL    HW253683   5.434   3.940  12.284
17282SOL     OW53684  13.558   5.709   0.805
17282SOL    HW153685  13.560   5.805   0.804
17282SOL    HW253686  13.555   5.684   0.713
17283SOL     OW53687   2.596   6.954   6.138
17283SOL    HW153688   2.651   7.013   6.189
17283SOL    HW253689   2.507   6.968   6.172
17284SOL     OW53690  14.083  12.513   2.131
17284SOL    HW153691  14.178  12.499   2.127
17284SOL    HW253692  14.068  12.548   2.219
17285SOL     OW53693  12.099   0.120   1.683
17285SOL    HW153694  12.169   0.168   1.727
17285SOL    HW253695  12.102   0.032   1.721
17286SOL     OW53696  12.528   9.121  12.600
17286SOL    HW153697  12.477   9.200  12.579
17286SOL    HW253698  12.612   9.135  12.557
17287SOL     OW53699   8.304   4.438   2.885
17287SOL    HW153700   8.227   4.491   2.904
17287SOL    HW253701   8.352   4.434   2.968
17288SOL     OW53702   3.575   5.116   5.608
17288SOL    HW153703   3.616   5.119   5.695
17288SOL    HW253704   3.647   5.135   5.548
17289SOL     OW53705  13.145  12.474  13.128
17289SOL    HW153706  13.233  12.508  13.145
17289SOL    HW253707  13.149  12.441  13.038
17290SOL     OW53708  13.739  13.915   6.037
17290SOL    HW153709  13.681  13.944   5.966
17290SOL    HW253710  13.724  13.978   6.107
17291SOL     OW53711   6.343   7.679  13.010
17291SOL    HW153712   6.345   7.758  12.957
17291SOL    HW253713   6.406   7.621  12.968
17292SOL     OW53714   1.778  11.584  14.778
17292SOL    HW153715   1.838  11.568  14.850
17292SOL    HW253716   1.711  11.516  14.787
17293SOL     OW53717  13.706  14.450   1.913
17293SOL    HW153718  13.673  14.471   1.826
17293SOL    HW253719  13.795  14.486   1.915
17294SOL     OW53720  13.022   4.866  10.706
17294SOL    HW153721  13.017   4.953  10.667
17294SOL    HW253722  13.000   4.879  10.798
17295SOL     OW53723   9.668  11.368   6.339
17295SOL    HW153724   9.748  11.358   6.287
17295SOL    HW253725   9.638  11.457   6.319
17296SOL     OW53726   8.359   3.808   2.359
17296SOL    HW153727   8.309   3.762   2.292
17296SOL    HW253728   8.294   3.839   2.422
17297SOL     OW53729  13.827   4.138   6.132
17297SOL    HW153730  13.818   4.081   6.056
17297SOL    HW253731  13.920   4.134   6.155
17298SOL     OW53732   4.852   2.976   5.392
17298SOL    HW153733   4.818   2.888   5.405
17298SOL    HW253734   4.873   2.980   5.299
17299SOL     OW53735   5.259  14.357   2.278
17299SOL    HW153736   5.271  14.445   2.314
17299SOL    HW253737   5.267  14.370   2.183
17300SOL     OW53738  13.131  14.871   4.908
17300SOL    HW153739  13.108   0.071   4.957
17300SOL    HW253740  13.136   0.020   4.817
17301SOL     OW53741   3.740   4.177   7.802
17301SOL    HW153742   3.760   4.245   7.866
17301SOL    HW253743   3.753   4.219   7.717
17302SOL     OW53744  14.152  14.134   9.834
17302SOL    HW153745  14.202  14.075   9.778
17302SOL    HW253746  14.135  14.210   9.779
17303SOL     OW53747   2.648  12.896   5.784
17303SOL    HW153748   2.729  12.845   5.780
17303SOL    HW253749   2.600  12.858   5.858
17304SOL     OW53750   1.504   0.690   7.121
17304SOL    HW153751   1.495   0.785   7.112
17304SOL    HW253752   1.597   0.673   7.105
17305SOL     OW53753   5.352   2.948  14.784
17305SOL    HW153754   5.434   2.958  14.832
17305SOL    HW253755   5.284   2.947  14.851
17306SOL     OW53756   7.536   8.980   3.553
17306SOL    HW153757   7.573   8.897   3.583
17306SOL    HW253758   7.591   9.047   3.594
17307SOL     OW53759  14.788   6.673   7.316
17307SOL    HW153760  14.725   6.604   7.337
17307SOL    HW253761  14.871   6.643   7.352
17308SOL     OW53762   8.092   2.528   5.583
17308SOL    HW153763   8.124   2.483   5.504
17308SOL    HW253764   8.165   2.584   5.609
17309SOL     OW53765   1.096  14.270   3.396
17309SOL    HW153766   1.181  14.314   3.390
17309SOL    HW253767   1.032  14.339   3.376
17310SOL     OW53768   1.740   6.118   3.219
17310SOL    HW153769   1.819   6.162   3.250
17310SOL    HW253770   1.673   6.139   3.284
17311SOL     OW53771  13.585   1.294  10.530
17311SOL    HW153772  13.499   1.331  10.511
17311SOL    HW253773  13.616   1.343  10.606
17312SOL     OW53774   9.117   3.444   6.269
17312SOL    HW153775   9.032   3.402   6.270
17312SOL    HW253776   9.177   3.377   6.236
17313SOL     OW53777   4.017  11.930   9.762
17313SOL    HW153778   4.092  11.980   9.792
17313SOL    HW253779   4.033  11.841   9.792
17314SOL     OW53780  13.814   6.853   3.095
17314SOL    HW153781  13.754   6.917   3.057
17314SOL    HW253782  13.857   6.812   3.020
17315SOL     OW53783  14.064   6.210   4.766
17315SOL    HW153784  14.034   6.288   4.719
17315SOL    HW253785  13.990   6.185   4.821
17316SOL     OW53786  13.832  12.926   0.979
17316SOL    HW153787  13.828  13.021   0.968
17316SOL    HW253788  13.871  12.914   1.066
17317SOL     OW53789  14.046  12.567  11.286
17317SOL    HW153790  14.037  12.479  11.249
17317SOL    HW253791  14.019  12.557  11.377
17318SOL     OW53792   9.317   4.398   1.030
17318SOL    HW153793   9.276   4.362   1.108
17318SOL    HW253794   9.253   4.460   0.995
17319SOL     OW53795  14.468   8.900  11.436
17319SOL    HW153796  14.404   8.920  11.504
17319SOL    HW253797  14.552   8.920  11.476
17320SOL     OW53798   8.373   7.571   0.612
17320SOL    HW153799   8.282   7.602   0.607
17320SOL    HW253800   8.426   7.650   0.605
17321SOL     OW53801   3.224   7.235   8.416
17321SOL    HW153802   3.249   7.325   8.394
17321SOL    HW253803   3.278   7.213   8.492
17322SOL     OW53804   8.544   8.725  11.101
17322SOL    HW153805   8.520   8.805  11.054
17322SOL    HW253806   8.510   8.739  11.189
17323SOL     OW53807   6.943   8.920  10.115
17323SOL    HW153808   6.984   8.922  10.201
17323SOL    HW253809   6.915   9.011  10.099
17324SOL     OW53810   9.075   9.788  10.356
17324SOL    HW153811   9.126   9.826  10.427
17324SOL    HW253812   9.043   9.864  10.306
17325SOL     OW53813  13.536  11.160   2.022
17325SOL    HW153814  13.594  11.138   2.094
17325SOL    HW253815  13.448  11.157   2.059
17326SOL     OW53816   0.725   7.117   8.802
17326SOL    HW153817   0.749   7.028   8.831
17326SOL    HW253818   0.803   7.149   8.757
17327SOL     OW53819   2.975   2.484   5.386
17327SOL    HW153820   3.017   2.457   5.304
17327SOL    HW253821   2.955   2.402   5.431
17328SOL     OW53822   3.521   5.735   1.748
17328SOL    HW153823   3.476   5.750   1.831
17328SOL    HW253824   3.459   5.762   1.681
17329SOL     OW53825   3.386   0.623   5.239
17329SOL    HW153826   3.400   0.690   5.173
17329SOL    HW253827   3.294   0.598   5.229
17330SOL     OW53828   0.529   4.523  13.965
17330SOL    HW153829   0.574   4.448  14.002
17330SOL    HW253830   0.452   4.486  13.920
17331SOL     OW53831   4.863   3.777   9.021
17331SOL    HW153832   4.873   3.754   8.929
17331SOL    HW253833   4.791   3.840   9.023
17332SOL     OW53834   3.620   7.290   2.821
17332SOL    HW153835   3.602   7.366   2.765
17332SOL    HW253836   3.672   7.232   2.766
17333SOL     OW53837  11.957   1.898  10.050
17333SOL    HW153838  12.014   1.903   9.973
17333SOL    HW253839  11.869   1.894  10.014
17334SOL     OW53840  13.072  12.575   2.664
17334SOL    HW153841  13.005  12.628   2.706
17334SOL    HW253842  13.023  12.512   2.611
17335SOL     OW53843  12.110  10.321   2.948
17335SOL    HW153844  12.095  10.233   2.915
17335SOL    HW253845  12.135  10.372   2.871
17336SOL     OW53846  14.443  10.437   4.544
17336SOL    HW153847  14.485  10.359   4.579
17336SOL    HW253848  14.369  10.403   4.493
17337SOL     OW53849   2.313   8.964   4.083
17337SOL    HW153850   2.403   8.969   4.114
17337SOL    HW253851   2.274   8.893   4.135
17338SOL     OW53852   3.904   6.057   2.004
17338SOL    HW153853   3.899   6.022   1.915
17338SOL    HW253854   3.939   5.985   2.057
17339SOL     OW53855  11.547   4.940   1.571
17339SOL    HW153856  11.508   4.959   1.486
17339SOL    HW253857  11.509   5.006   1.630
17340SOL     OW53858  10.795   6.569   6.720
17340SOL    HW153859  10.881   6.594   6.686
17340SOL    HW253860  10.766   6.645   6.771
17341SOL     OW53861   1.960   6.965  14.709
17341SOL    HW153862   2.021   6.892  14.718
17341SOL    HW253863   1.961   7.008  14.794
17342SOL     OW53864   3.529  14.683  10.619
17342SOL    HW153865   3.582  14.632  10.681
17342SOL    HW253866   3.450  14.630  10.607
17343SOL     OW53867   9.582   5.124  11.539
17343SOL    HW153868   9.669   5.117  11.578
17343SOL    HW253869   9.597   5.150  11.449
17344SOL     OW53870   9.655   0.787   7.958
17344SOL    HW153871   9.696   0.847   8.020
17344SOL    HW253872   9.619   0.717   8.013
17345SOL     OW53873  14.160   4.431   5.839
17345SOL    HW153874  14.210   4.463   5.764
17345SOL    HW253875  14.069   4.447   5.816
17346SOL     OW53876  11.156  10.957   7.588
17346SOL    HW153877  11.134  11.046   7.562
17346SOL    HW253878  11.185  10.914   7.508
17347SOL     OW53879   5.090  10.095   0.279
17347SOL    HW153880   5.168  10.042   0.263
17347SOL    HW253881   5.112  10.182   0.247
17348SOL     OW53882   5.753   4.903  11.861
17348SOL    HW153883   5.719   4.960  11.930
17348SOL    HW253884   5.847   4.924  11.858
17349SOL     OW53885   7.787  13.021  11.655
17349SOL    HW153886   7.729  13.024  11.579
17349SOL    HW253887   7.751  13.084  11.717
17350SOL     OW53888  14.080   6.559  14.721
17350SOL    HW153889  14.152   6.515  14.765
17350SOL    HW253890  14.106   6.651  14.717
17351SOL     OW53891  14.733   5.850   1.231
17351SOL    HW153892  14.702   5.759   1.232
17351SOL    HW253893  14.714   5.881   1.142
17352SOL     OW53894  10.093   4.398   2.010
17352SOL    HW153895  10.004   4.363   2.019
17352SOL    HW253896  10.133   4.346   1.940
17353SOL     OW53897  10.394  10.851   3.062
17353SOL    HW153898  10.483  10.815   3.056
17353SOL    HW253899  10.405  10.943   3.038
17354SOL     OW53900   6.204   0.379  11.182
17354SOL    HW153901   6.188   0.465  11.222
17354SOL    HW253902   6.250   0.329  11.250
17355SOL     OW53903   1.628   3.793   3.275
17355SOL    HW153904   1.615   3.871   3.221
17355SOL    HW253905   1.567   3.804   3.348
17356SOL     OW53906  13.831   4.160   3.282
17356SOL    HW153907  13.806   4.216   3.355
17356SOL    HW253908  13.766   4.090   3.282
17357SOL     OW53909   2.303  10.771   1.551
17357SOL    HW153910   2.385  10.749   1.595
17357SOL    HW253911   2.251  10.691   1.556
17358SOL     OW53912  12.265   7.120   2.011
17358SOL    HW153913  12.273   7.054   1.941
17358SOL    HW253914  12.216   7.192   1.971
17359SOL     OW53915   8.737  10.504  11.675
17359SOL    HW153916   8.664  10.453  11.711
17359SOL    HW253917   8.768  10.556  11.749
17360SOL     OW53918   3.239   7.519   0.256
17360SOL    HW153919   3.307   7.504   0.321
17360SOL    HW253920   3.190   7.437   0.253
17361SOL     OW53921   1.141   7.605   7.675
17361SOL    HW153922   1.115   7.631   7.764
17361SOL    HW253923   1.103   7.672   7.619
17362SOL     OW53924   7.733  13.804   6.347
17362SOL    HW153925   7.732  13.779   6.255
17362SOL    HW253926   7.681  13.885   6.350
17363SOL     OW53927   8.456  13.304  11.059
17363SOL    HW153928   8.462  13.229  11.000
17363SOL    HW253929   8.535  13.354  11.042
17364SOL     OW53930   3.815   6.046   7.169
17364SOL    HW153931   3.807   6.108   7.242
17364SOL    HW253932   3.745   5.983   7.183
17365SOL     OW53933  13.825  12.360   0.454
17365SOL    HW153934  13.828  12.275   0.410
17365SOL    HW253935  13.900  12.408   0.419
17366SOL     OW53936   9.883  11.978   6.916
17366SOL    HW153937   9.825  11.946   6.847
17366SOL    HW253938   9.825  11.987   6.992
17367SOL     OW53939   2.587   6.716  10.190
17367SOL    HW153940   2.566   6.791  10.134
17367SOL    HW253941   2.524   6.721  10.262
17368SOL     OW53942  12.264   2.882  14.355
17368SOL    HW153943  12.224   2.964  14.326
17368SOL    HW253944  12.293   2.899  14.445
17369SOL     OW53945  12.961  11.628  12.449
17369SOL    HW153946  12.889  11.627  12.385
17369SOL    HW253947  12.919  11.649  12.532
17370SOL     OW53948  14.034  10.279   8.953
17370SOL    HW153949  14.005  10.357   9.002
17370SOL    HW253950  14.088  10.231   9.016
17371SOL     OW53951  14.257   3.152   5.289
17371SOL    HW153952  14.172   3.111   5.306
17371SOL    HW253953  14.241   3.246   5.298
17372SOL     OW53954   5.547   1.958  13.114
17372SOL    HW153955   5.545   2.003  13.030
17372SOL    HW253956   5.517   1.869  13.094
17373SOL     OW53957  11.263  12.889   4.235
17373SOL    HW153958  11.321  12.909   4.309
17373SOL    HW253959  11.205  12.820   4.268
17374SOL     OW53960   4.032   8.656   0.167
17374SOL    HW153961   4.096   8.593   0.131
17374SOL    HW253962   4.083   8.709   0.228
17375SOL     OW53963  14.471   6.199   8.893
17375SOL    HW153964  14.472   6.148   8.974
17375SOL    HW253965  14.378   6.207   8.872
17376SOL     OW53966   0.354   2.799  13.317
17376SOL    HW153967   0.268   2.772  13.285
17376SOL    HW253968   0.406   2.812  13.237
17377SOL     OW53969   2.128  11.805  11.800
17377SOL    HW153970   2.190  11.878  11.797
17377SOL    HW253971   2.141  11.759  11.718
17378SOL     OW53972   3.477   4.962   9.478
17378SOL    HW153973   3.389   4.970   9.439
17378SOL    HW253974   3.532   4.934   9.406
17379SOL     OW53975   7.654   7.095  12.700
17379SOL    HW153976   7.626   7.106  12.610
17379SOL    HW253977   7.726   7.033  12.696
17380SOL     OW53978   6.029   0.154  12.493
17380SOL    HW153979   6.046   0.105  12.412
17380SOL    HW253980   6.114   0.193  12.515
17381SOL     OW53981   0.623   0.309   2.355
17381SOL    HW153982   0.681   0.273   2.422
17381SOL    HW253983   0.670   0.384   2.319
17382SOL     OW53984  12.628   5.986   3.479
17382SOL    HW153985  12.675   5.944   3.551
17382SOL    HW253986  12.545   6.014   3.517
17383SOL     OW53987   1.806   7.556  14.055
17383SOL    HW153988   1.817   7.481  14.113
17383SOL    HW253989   1.740   7.528  13.992
17384SOL     OW53990  10.006   4.076   8.521
17384SOL    HW153991  10.062   4.032   8.457
17384SOL    HW253992  10.027   4.032   8.604
17385SOL     OW53993  11.092   1.115   9.939
17385SOL    HW153994  11.163   1.161   9.983
17385SOL    HW253995  11.131   1.031   9.913
17386SOL     OW53996   9.775   1.869   6.613
17386SOL    HW153997   9.711   1.932   6.581
17386SOL    HW253998   9.730   1.823   6.683
17387SOL     OW53999   5.985   6.770   0.355
17387SOL    HW154000   6.020   6.849   0.314
17387SOL    HW254001   6.055   6.705   0.349
17388SOL     OW54002   3.070  10.007   8.078
17388SOL    HW154003   3.132   9.986   8.008
17388SOL    HW254004   3.102  10.089   8.114
17389SOL     OW54005   6.945   2.206   7.314
17389SOL    HW154006   6.894   2.274   7.358
17389SOL    HW254007   6.981   2.249   7.237
17390SOL     OW54008   5.884   5.685   3.713
17390SOL    HW154009   5.899   5.614   3.650
17390SOL    HW254010   5.967   5.692   3.761
17391SOL     OW54011   0.896   4.886   3.851
17391SOL    HW154012   0.895   4.976   3.818
17391SOL    HW254013   0.883   4.831   3.774
17392SOL     OW54014   7.447   0.776   3.409
17392SOL    HW154015   7.490   0.717   3.470
17392SOL    HW254016   7.480   0.750   3.323
17393SOL     OW54017   8.368  14.060   7.816
17393SOL    HW154018   8.390  14.006   7.740
17393SOL    HW254019   8.447  14.110   7.834
17394SOL     OW54020  10.625  13.805  13.212
17394SOL    HW154021  10.620  13.713  13.239
17394SOL    HW254022  10.713  13.813  13.173
17395SOL     OW54023   2.073  12.440  13.919
17395SOL    HW154024   2.007  12.455  13.851
17395SOL    HW254025   2.030  12.467  14.000
17396SOL     OW54026  10.131  13.131   9.245
17396SOL    HW154027  10.162  13.221   9.261
17396SOL    HW254028  10.108  13.130   9.153
17397SOL     OW54029  13.482   3.441   9.233
17397SOL    HW154030  13.416   3.384   9.193
17397SOL    HW254031  13.440   3.475   9.312
17398SOL     OW54032   5.774  12.280   1.547
17398SOL    HW154033   5.785  12.227   1.468
17398SOL    HW254034   5.681  12.300   1.551
17399SOL     OW54035  10.046   2.821   2.012
17399SOL    HW154036  10.061   2.741   2.063
17399SOL    HW254037   9.954   2.817   1.987
17400SOL     OW54038   4.164   0.851  10.084
17400SOL    HW154039   4.129   0.895  10.161
17400SOL    HW254040   4.114   0.888  10.011
17401SOL     OW54041   5.061  12.448  10.334
17401SOL    HW154042   5.087  12.525  10.284
17401SOL    HW254043   5.090  12.374  10.282
17402SOL     OW54044   0.533  14.724   9.926
17402SOL    HW154045   0.558  14.644   9.971
17402SOL    HW254046   0.502  14.783   9.995
17403SOL     OW54047  10.364   0.132  13.381
17403SOL    HW154048  10.385   0.065  13.316
17403SOL    HW254049  10.440   0.134  13.438
17404SOL     OW54050   1.641  12.785  10.898
17404SOL    HW154051   1.689  12.708  10.867
17404SOL    HW254052   1.643  12.778  10.993
17405SOL     OW54053  13.459   7.718  14.733
17405SOL    HW154054  13.446   7.731  14.639
17405SOL    HW254055  13.473   7.623  14.743
17406SOL     OW54056   0.790  12.935   4.358
17406SOL    HW154057   0.821  12.894   4.438
17406SOL    HW254058   0.700  12.960   4.377
17407SOL     OW54059   6.093  12.082  13.367
17407SOL    HW154060   6.179  12.045  13.388
17407SOL    HW254061   6.112  12.167  13.328
17408SOL     OW54062   5.252   5.578   2.646
17408SOL    HW154063   5.173   5.525   2.661
17408SOL    HW254064   5.312   5.551   2.715
17409SOL     OW54065   9.338  12.970   9.427
17409SOL    HW154066   9.297  13.034   9.370
17409SOL    HW254067   9.418  12.945   9.381
17410SOL     OW54068  12.718   6.264  14.751
17410SOL    HW154069  12.787   6.286  14.813
17410SOL    HW254070  12.740   6.175  14.722
17411SOL     OW54071   4.092   2.278   8.850
17411SOL    HW154072   4.056   2.328   8.923
17411SOL    HW254073   4.109   2.344   8.783
17412SOL     OW54074  11.523   3.168   5.145
17412SOL    HW154075  11.443   3.156   5.195
17412SOL    HW254076  11.591   3.183   5.211
17413SOL     OW54077  10.881   1.156   7.025
17413SOL    HW154078  10.940   1.187   7.094
17413SOL    HW254079  10.857   1.067   7.052
17414SOL     OW54080  14.805  14.076   0.831
17414SOL    HW154081  14.721  14.120   0.817
17414SOL    HW254082  14.798  13.995   0.781
17415SOL     OW54083   3.491   6.923   8.391
17415SOL    HW154084   3.544   6.846   8.369
17415SOL    HW254085   3.401   6.894   8.385
17416SOL     OW54086  12.780   4.250   7.397
17416SOL    HW154087  12.720   4.303   7.450
17416SOL    HW254088  12.838   4.315   7.357
17417SOL     OW54089  10.560   7.954  12.988
17417SOL    HW154090  10.588   8.041  12.961
17417SOL    HW254091  10.486   7.933  12.931
17418SOL     OW54092   0.593   5.598   9.523
17418SOL    HW154093   0.628   5.541   9.591
17418SOL    HW254094   0.556   5.539   9.457
17419SOL     OW54095  14.262  13.385   6.900
17419SOL    HW154096  14.353  13.414   6.897
17419SOL    HW254097  14.221  13.441   6.967
17420SOL     OW54098  12.172   8.291   1.992
17420SOL    HW154099  12.127   8.316   2.073
17420SOL    HW254100  12.229   8.365   1.973
17421SOL     OW54101  11.703  11.529   6.813
17421SOL    HW154102  11.780  11.585   6.820
17421SOL    HW254103  11.668  11.548   6.726
17422SOL     OW54104  13.538  11.174   9.443
17422SOL    HW154105  13.529  11.083   9.414
17422SOL    HW254106  13.452  11.212   9.429
17423SOL     OW54107   7.576  10.523   8.729
17423SOL    HW154108   7.503  10.519   8.668
17423SOL    HW254109   7.637  10.456   8.698
17424SOL     OW54110  11.079   1.460   2.310
17424SOL    HW154111  10.995   1.424   2.282
17424SOL    HW254112  11.107   1.402   2.381
17425SOL     OW54113  14.713  10.900   2.939
17425SOL    HW154114  14.780  10.956   2.901
17425SOL    HW254115  14.754  10.861   3.016
17426SOL     OW54116  13.550   5.090   9.675
17426SOL    HW154117  13.467   5.134   9.659
17426SOL    HW254118  13.533   5.031   9.749
17427SOL     OW54119  14.626   6.503   7.454
17427SOL    HW154120  14.553   6.478   7.511
17427SOL    HW254121  14.681   6.558   7.510
17428SOL     OW54122   3.335   1.617  13.616
17428SOL    HW154123   3.415   1.576  13.649
17428SOL    HW254124   3.360   1.708  13.600
17429SOL     OW54125   9.839   6.706  14.738
17429SOL    HW154126   9.796   6.779  14.783
17429SOL    HW254127   9.859   6.643  14.808
17430SOL     OW54128  13.756  13.310   2.090
17430SOL    HW154129  13.728  13.298   2.181
17430SOL    HW254130  13.849  13.288   2.091
17431SOL     OW54131  11.138   6.985   7.644
17431SOL    HW154132  11.220   7.033   7.655
17431SOL    HW254133  11.153   6.928   7.569
17432SOL     OW54134  11.063   1.090   8.780
17432SOL    HW154135  11.149   1.079   8.820
17432SOL    HW254136  11.081   1.095   8.686
17433SOL     OW54137  14.401  11.546   6.484
17433SOL    HW154138  14.416  11.639   6.500
17433SOL    HW254139  14.381  11.540   6.391
17434SOL     OW54140   9.051   0.162  13.000
17434SOL    HW154141   9.048   0.246  12.954
17434SOL    HW254142   9.061   0.185  13.092
17435SOL     OW54143   8.643   8.101   9.589
17435SOL    HW154144   8.570   8.041   9.573
17435SOL    HW254145   8.720   8.053   9.560
17436SOL     OW54146  10.908   7.787  13.565
17436SOL    HW154147  10.870   7.713  13.613
17436SOL    HW254148  10.994   7.799  13.605
17437SOL     OW54149   4.415   7.054   5.378
17437SOL    HW154150   4.418   7.118   5.308
17437SOL    HW254151   4.353   7.090   5.442
17438SOL     OW54152   4.998   1.425   1.488
17438SOL    HW154153   4.991   1.365   1.562
17438SOL    HW254154   4.924   1.403   1.431
17439SOL     OW54155  11.027  10.661   4.831
17439SOL    HW154156  10.972  10.737   4.808
17439SOL    HW254157  11.110  10.678   4.787
17440SOL     OW54158  13.296  10.379  12.766
17440SOL    HW154159  13.244  10.459  12.756
17440SOL    HW254160  13.351  10.396  12.842
17441SOL     OW54161  13.588  13.590  13.202
17441SOL    HW154162  13.539  13.523  13.155
17441SOL    HW254163  13.646  13.541  13.261
17442SOL     OW54164  14.283  11.928  13.046
17442SOL    HW154165  14.261  11.844  13.008
17442SOL    HW254166  14.210  11.985  13.022
17443SOL     OW54167   7.012   7.877  14.333
17443SOL    HW154168   7.028   7.971  14.337
17443SOL    HW254169   7.092   7.841  14.294
17444SOL     OW54170  10.700   5.868   5.132
17444SOL    HW154171  10.671   5.894   5.219
17444SOL    HW254172  10.643   5.916   5.072
17445SOL     OW54173  13.280   6.590  13.359
17445SOL    HW154174  13.295   6.629  13.446
17445SOL    HW254175  13.334   6.511  13.359
17446SOL     OW54176   0.597   9.185  13.441
17446SOL    HW154177   0.610   9.098  13.404
17446SOL    HW254178   0.650   9.243  13.386
17447SOL     OW54179   2.489   5.695  11.843
17447SOL    HW154180   2.474   5.603  11.865
17447SOL    HW254181   2.405   5.726  11.810
17448SOL     OW54182   3.953   4.624  12.011
17448SOL    HW154183   3.935   4.533  11.991
17448SOL    HW254184   3.867   4.662  12.031
17449SOL     OW54185  10.815  12.971   7.139
17449SOL    HW154186  10.884  13.038   7.146
17449SOL    HW254187  10.734  13.020   7.149
17450SOL     OW54188   0.911   1.792   8.963
17450SOL    HW154189   0.816   1.798   8.973
17450SOL    HW254190   0.946   1.840   9.038
17451SOL     OW54191  11.391   0.240  11.678
17451SOL    HW154192  11.455   0.276  11.617
17451SOL    HW254193  11.369   0.313  11.736
17452SOL     OW54194   8.602   5.142  10.367
17452SOL    HW154195   8.589   5.057  10.326
17452SOL    HW254196   8.595   5.205  10.294
17453SOL     OW54197  12.127   1.478   6.574
17453SOL    HW154198  12.148   1.393   6.612
17453SOL    HW254199  12.179   1.540   6.626
17454SOL     OW54200  11.407  11.070   2.347
17454SOL    HW154201  11.322  11.088   2.387
17454SOL    HW254202  11.389  11.002   2.282
17455SOL     OW54203   9.929  13.042   5.923
17455SOL    HW154204   9.915  12.952   5.895
17455SOL    HW254205  10.019  13.062   5.897
17456SOL     OW54206   8.084   0.509  13.044
17456SOL    HW154207   8.051   0.425  13.013
17456SOL    HW254208   8.178   0.495  13.057
17457SOL     OW54209  10.558  13.181   7.684
17457SOL    HW154210  10.605  13.145   7.759
17457SOL    HW254211  10.510  13.106   7.648
17458SOL     OW54212   0.972   9.567   4.315
17458SOL    HW154213   1.035   9.635   4.339
17458SOL    HW254214   0.930   9.602   4.236
17459SOL     OW54215  13.152   0.575   4.976
17459SOL    HW154216  13.142   0.610   5.064
17459SOL    HW254217  13.243   0.548   4.971
17460SOL     OW54218  14.528  10.867   8.662
17460SOL    HW154219  14.529  10.942   8.720
17460SOL    HW254220  14.536  10.791   8.720
17461SOL     OW54221  13.758   3.547   5.085
17461SOL    HW154222  13.752   3.642   5.097
17461SOL    HW254223  13.671   3.515   5.111
17462SOL     OW54224  10.462  10.411   9.815
17462SOL    HW154225  10.395  10.372   9.870
17462SOL    HW254226  10.453  10.368   9.730
17463SOL     OW54227   6.889   1.959  13.705
17463SOL    HW154228   6.868   2.050  13.681
17463SOL    HW254229   6.872   1.955  13.799
17464SOL     OW54230  10.143   7.972   9.413
17464SOL    HW154231  10.083   8.040   9.382
17464SOL    HW254232  10.207   8.020   9.466
17465SOL     OW54233   8.389   0.001   5.974
17465SOL    HW154234   8.467  14.825   5.974
17465SOL    HW254235   8.380   0.031   5.884
17466SOL     OW54236   2.997  12.925   6.455
17466SOL    HW154237   3.039  13.003   6.491
17466SOL    HW254238   2.934  12.899   6.523
17467SOL     OW54239  13.277   9.514   1.087
17467SOL    HW154240  13.244   9.526   0.998
17467SOL    HW254241  13.316   9.427   1.086
17468SOL     OW54242   2.213   7.003  13.616
17468SOL    HW154243   2.151   7.006  13.689
17468SOL    HW254244   2.179   7.066  13.553
17469SOL     OW54245  12.825   1.056   3.399
17469SOL    HW154246  12.748   1.033   3.347
17469SOL    HW254247  12.811   1.148   3.421
17470SOL     OW54248   8.967   6.088   8.175
17470SOL    HW154249   9.016   6.170   8.182
17470SOL    HW254250   9.030   6.021   8.200
17471SOL     OW54251   5.825   9.419   5.141
17471SOL    HW154252   5.851   9.347   5.199
17471SOL    HW254253   5.884   9.491   5.163
17472SOL     OW54254  14.623  13.625   4.812
17472SOL    HW154255  14.651  13.625   4.904
17472SOL    HW254256  14.648  13.711   4.779
17473SOL     OW54257   2.368   1.787  12.016
17473SOL    HW154258   2.308   1.857  11.989
17473SOL    HW254259   2.317   1.707  12.004
17474SOL     OW54260  12.333   3.141  12.535
17474SOL    HW154261  12.327   3.047  12.518
17474SOL    HW254262  12.424   3.156  12.560
17475SOL     OW54263  14.483  11.753   4.367
17475SOL    HW154264  14.452  11.665   4.390
17475SOL    HW254265  14.578  11.748   4.378
17476SOL     OW54266   4.079   0.429   4.184
17476SOL    HW154267   4.125   0.417   4.267
17476SOL    HW254268   3.997   0.472   4.207
17477SOL     OW54269   6.567   1.293  14.735
17477SOL    HW154270   6.575   1.274  14.642
17477SOL    HW254271   6.477   1.270  14.757
17478SOL     OW54272   0.796   2.129  10.987
17478SOL    HW154273   0.730   2.061  11.000
17478SOL    HW254274   0.823   2.154  11.075
17479SOL     OW54275   4.821   3.180  13.851
17479SOL    HW154276   4.731   3.193  13.881
17479SOL    HW254277   4.874   3.231  13.912
17480SOL     OW54278   3.372   5.595   2.339
17480SOL    HW154279   3.342   5.627   2.424
17480SOL    HW254280   3.322   5.515   2.324
17481SOL     OW54281   6.304   4.175   9.124
17481SOL    HW154282   6.363   4.245   9.151
17481SOL    HW254283   6.335   4.149   9.038
17482SOL     OW54284   2.358  14.156   1.763
17482SOL    HW154285   2.367  14.074   1.714
17482SOL    HW254286   2.289  14.203   1.717
17483SOL     OW54287  14.483  10.748   1.337
17483SOL    HW154288  14.481  10.669   1.282
17483SOL    HW254289  14.528  10.813   1.283
17484SOL     OW54290   7.942   0.879   8.941
17484SOL    HW154291   8.022   0.834   8.916
17484SOL    HW254292   7.903   0.907   8.858
17485SOL     OW54293   9.795   7.738   3.468
17485SOL    HW154294   9.791   7.782   3.383
17485SOL    HW254295   9.813   7.808   3.530
17486SOL     OW54296  14.739   7.142   2.342
17486SOL    HW154297  14.828   7.123   2.371
17486SOL    HW254298  14.687   7.068   2.373
17487SOL     OW54299   7.346   7.201  11.838
17487SOL    HW154300   7.286   7.232  11.770
17487SOL    HW254301   7.290   7.152  11.898
17488SOL     OW54302  10.415   2.987  14.688
17488SOL    HW154303  10.429   3.032  14.771
17488SOL    HW254304  10.477   2.914  14.689
17489SOL     OW54305   7.794   6.924   0.221
17489SOL    HW154306   7.881   6.900   0.253
17489SOL    HW254307   7.746   6.948   0.301
17490SOL     OW54308   0.613   3.278   7.462
17490SOL    HW154309   0.641   3.280   7.554
17490SOL    HW254310   0.611   3.370   7.436
17491SOL     OW54311   4.944   8.553  14.631
17491SOL    HW154312   4.883   8.480  14.641
17491SOL    HW254313   4.935   8.603  14.712
17492SOL     OW54314   6.953   9.549   4.946
17492SOL    HW154315   6.931   9.636   4.913
17492SOL    HW254316   7.048   9.543   4.936
17493SOL     OW54317   2.766  10.627   9.554
17493SOL    HW154318   2.753  10.532   9.552
17493SOL    HW254319   2.844  10.642   9.500
17494SOL     OW54320  11.719   4.694  14.010
17494SOL    HW154321  11.688   4.764  14.068
17494SOL    HW254322  11.799   4.662  14.052
17495SOL     OW54323   2.179  11.069   2.057
17495SOL    HW154324   2.149  11.133   1.991
17495SOL    HW254325   2.130  10.990   2.037
17496SOL     OW54326   8.335   4.230  12.807
17496SOL    HW154327   8.257   4.235  12.862
17496SOL    HW254328   8.332   4.309  12.754
17497SOL     OW54329   2.650  10.103  14.494
17497SOL    HW154330   2.578  10.149  14.452
17497SOL    HW254331   2.698  10.171  14.542
17498SOL     OW54332   9.172   0.350   5.403
17498SOL    HW154333   9.252   0.318   5.444
17498SOL    HW254334   9.134   0.273   5.360
17499SOL     OW54335   2.536   7.670   3.694
17499SOL    HW154336   2.517   7.758   3.725
17499SOL    HW254337   2.535   7.677   3.599
17500SOL     OW54338  11.041  11.287  10.821
17500SOL    HW154339  11.073  11.324  10.739
17500SOL    HW254340  10.971  11.228  10.795
17501SOL     OW54341  11.146   9.610  10.470
17501SOL    HW154342  11.065   9.590  10.423
17501SOL    HW254343  11.211   9.550  10.433
17502SOL     OW54344   2.535   9.033   8.239
17502SOL    HW154345   2.540   9.065   8.148
17502SOL    HW254346   2.442   9.042   8.262
17503SOL     OW54347  10.671  11.775  11.900
17503SOL    HW154348  10.681  11.779  11.995
17503SOL    HW254349  10.585  11.812  11.884
17504SOL     OW54350   3.546  10.756  11.332
17504SOL    HW154351   3.584  10.838  11.301
17504SOL    HW254352   3.604  10.688  11.298
17505SOL     OW54353   6.729   2.703   6.533
17505SOL    HW154354   6.703   2.612   6.522
17505SOL    HW254355   6.685   2.732   6.613
17506SOL     OW54356  13.180   1.572   9.374
17506SOL    HW154357  13.234   1.564   9.295
17506SOL    HW254358  13.100   1.616   9.344
17507SOL     OW54359  13.017   9.386   3.468
17507SOL    HW154360  12.933   9.343   3.482
17507SOL    HW254361  13.002   9.447   3.396
17508SOL     OW54362   5.322  11.183  11.651
17508SOL    HW154363   5.351  11.246  11.585
17508SOL    HW254364   5.272  11.236  11.714
17509SOL     OW54365  10.921  13.593  13.135
17509SOL    HW154366  10.882  13.680  13.127
17509SOL    HW254367  10.905  13.552  13.050
17510SOL     OW54368   3.457   3.118   4.856
17510SOL    HW154369   3.369   3.134   4.822
17510SOL    HW254370   3.496   3.056   4.794
17511SOL     OW54371   8.575  13.618  10.705
17511SOL    HW154372   8.515  13.678  10.659
17511SOL    HW254373   8.661  13.637  10.667
17512SOL     OW54374   9.727   2.313   5.031
17512SOL    HW154375   9.797   2.350   4.977
17512SOL    HW254376   9.670   2.388   5.050
17513SOL     OW54377  10.312   5.525  10.300
17513SOL    HW154378  10.265   5.451  10.340
17513SOL    HW254379  10.252   5.559  10.234
17514SOL     OW54380  14.734  11.695   0.447
17514SOL    HW154381  14.780  11.612   0.437
17514SOL    HW254382  14.675  11.698   0.372
17515SOL     OW54383  11.119   2.882   2.948
17515SOL    HW154384  11.109   2.961   3.001
17515SOL    HW254385  11.068   2.899   2.869
17516SOL     OW54386   8.441  13.355  12.842
17516SOL    HW154387   8.356  13.398  12.833
17516SOL    HW254388   8.441  13.321  12.931
17517SOL     OW54389   6.147   6.187   3.957
17517SOL    HW154390   6.088   6.129   3.909
17517SOL    HW254391   6.235   6.163   3.927
17518SOL     OW54392  13.899   7.579   1.117
17518SOL    HW154393  13.944   7.653   1.076
17518SOL    HW254394  13.967   7.536   1.169
17519SOL     OW54395   3.717   2.600   9.057
17519SOL    HW154396   3.760   2.673   9.012
17519SOL    HW254397   3.635   2.638   9.090
17520SOL     OW54398  11.490   7.862   3.430
17520SOL    HW154399  11.518   7.921   3.500
17520SOL    HW254400  11.404   7.830   3.458
17521SOL     OW54401   2.541  11.523   4.552
17521SOL    HW154402   2.489  11.519   4.633
17521SOL    HW254403   2.609  11.587   4.571
17522SOL     OW54404   8.005   3.488   5.689
17522SOL    HW154405   8.042   3.432   5.757
17522SOL    HW254406   7.911   3.488   5.707
17523SOL     OW54407  10.122   0.388   6.313
17523SOL    HW154408  10.054   0.374   6.247
17523SOL    HW254409  10.182   0.314   6.301
17524SOL     OW54410  14.694  10.195   9.879
17524SOL    HW154411  14.674  10.135   9.951
17524SOL    HW254412  14.669  10.146   9.800
17525SOL     OW54413   5.780   3.128   1.014
17525SOL    HW154414   5.687   3.143   0.996
17525SOL    HW254415   5.782   3.100   1.106
17526SOL     OW54416  14.775  10.933  11.433
17526SOL    HW154417  14.830  10.883  11.373
17526SOL    HW254418  14.819  11.018  11.441
17527SOL     OW54419   1.739   3.778  12.731
17527SOL    HW154420   1.724   3.808  12.821
17527SOL    HW254421   1.719   3.684  12.734
17528SOL     OW54422   9.325   2.546  13.662
17528SOL    HW154423   9.277   2.553  13.745
17528SOL    HW254424   9.319   2.634  13.624
17529SOL     OW54425   3.605   8.996   1.515
17529SOL    HW154426   3.624   8.903   1.510
17529SOL    HW254427   3.664   9.036   1.451
17530SOL     OW54428   4.726   0.886   2.402
17530SOL    HW154429   4.797   0.835   2.362
17530SOL    HW254430   4.746   0.977   2.382
17531SOL     OW54431   9.063  13.708   4.360
17531SOL    HW154432   9.079  13.658   4.440
17531SOL    HW254433   9.146  13.705   4.312
17532SOL     OW54434   3.740  13.774   2.615
17532SOL    HW154435   3.747  13.705   2.549
17532SOL    HW254436   3.670  13.831   2.583
17533SOL     OW54437  10.221   2.840   1.742
17533SOL    HW154438  10.223   2.866   1.834
17533SOL    HW254439  10.135   2.865   1.711
17534SOL     OW54440  13.841   9.992   6.677
17534SOL    HW154441  13.786  10.021   6.604
17534SOL    HW254442  13.878  10.074   6.712
17535SOL     OW54443   7.928  12.009   5.324
17535SOL    HW154444   8.009  12.059   5.319
17535SOL    HW254445   7.889  12.016   5.237
17536SOL     OW54446  14.111  13.870   3.606
17536SOL    HW154447  14.093  13.959   3.638
17536SOL    HW254448  14.051  13.859   3.532
17537SOL     OW54449   4.908   5.186   1.307
17537SOL    HW154450   4.874   5.273   1.286
17537SOL    HW254451   4.944   5.195   1.395
17538SOL     OW54452   6.256   4.914  11.730
17538SOL    HW154453   6.336   4.936  11.682
17538SOL    HW254454   6.196   4.881  11.663
17539SOL     OW54455  10.713   9.439   5.477
17539SOL    HW154456  10.655   9.483   5.539
17539SOL    HW254457  10.682   9.348   5.475
17540SOL     OW54458  12.784  12.112  10.430
17540SOL    HW154459  12.718  12.157  10.378
17540SOL    HW254460  12.743  12.028  10.453
17541SOL     OW54461   4.512   0.778  10.340
17541SOL    HW154462   4.606   0.789  10.357
17541SOL    HW254463   4.505   0.766  10.246
17542SOL     OW54464  11.572   2.686  12.111
17542SOL    HW154465  11.589   2.652  12.023
17542SOL    HW254466  11.574   2.781  12.100
17543SOL     OW54467   5.099   0.033   3.266
17543SOL    HW154468   5.094   0.050   3.172
17543SOL    HW254469   5.180   0.076   3.293
17544SOL     OW54470   8.671  12.338  13.536
17544SOL    HW154471   8.653  12.426  13.506
17544SOL    HW254472   8.586  12.293  13.532
17545SOL     OW54473  10.156   0.829   7.444
17545SOL    HW154474  10.191   0.904   7.493
17545SOL    HW254475  10.064   0.824   7.471
17546SOL     OW54476   4.703   6.701  13.137
17546SOL    HW154477   4.686   6.795  13.148
17546SOL    HW254478   4.736   6.693  13.047
17547SOL     OW54479   6.614   2.178   3.606
17547SOL    HW154480   6.574   2.255   3.646
17547SOL    HW254481   6.567   2.104   3.645
17548SOL     OW54482  14.434   9.643   1.475
17548SOL    HW154483  14.417   9.683   1.561
17548SOL    HW254484  14.481   9.710   1.426
17549SOL     OW54485   6.306   9.969   4.587
17549SOL    HW154486   6.321   9.910   4.513
17549SOL    HW254487   6.379   9.952   4.646
17550SOL     OW54488  12.181   2.892   1.366
17550SOL    HW154489  12.162   2.798   1.369
17550SOL    HW254490  12.240   2.902   1.291
17551SOL     OW54491  10.067   2.664  14.322
17551SOL    HW154492  10.042   2.755  14.306
17551SOL    HW254493   9.986   2.614  14.307
17552SOL     OW54494   5.149  12.623   0.400
17552SOL    HW154495   5.114  12.685   0.337
17552SOL    HW254496   5.176  12.547   0.346
17553SOL     OW54497   8.483  11.926  13.226
17553SOL    HW154498   8.443  11.997  13.276
17553SOL    HW254499   8.559  11.900  13.279
17554SOL     OW54500   0.983  10.759   8.106
17554SOL    HW154501   1.034  10.836   8.130
17554SOL    HW254502   1.032  10.720   8.033
17555SOL     OW54503  14.002   3.942   9.892
17555SOL    HW154504  13.974   3.859   9.932
17555SOL    HW254505  14.084   3.963   9.936
17556SOL     OW54506  13.122   8.136   0.354
17556SOL    HW154507  13.214   8.139   0.380
17556SOL    HW254508  13.083   8.213   0.395
17557SOL     OW54509   4.310  12.671   0.408
17557SOL    HW154510   4.291  12.717   0.489
17557SOL    HW254511   4.226  12.663   0.364
17558SOL     OW54512   8.641   2.442   4.208
17558SOL    HW154513   8.607   2.528   4.234
17558SOL    HW254514   8.588   2.418   4.131
17559SOL     OW54515   2.708   3.187   0.354
17559SOL    HW154516   2.627   3.136   0.353
17559SOL    HW254517   2.711   3.224   0.442
17560SOL     OW54518   5.482  13.655   4.486
17560SOL    HW154519   5.509  13.730   4.434
17560SOL    HW254520   5.433  13.600   4.425
17561SOL     OW54521   7.129   8.664   3.770
17561SOL    HW154522   7.173   8.672   3.854
17561SOL    HW254523   7.117   8.754   3.740
17562SOL     OW54524   7.094   1.654   2.403
17562SOL    HW154525   7.020   1.705   2.370
17562SOL    HW254526   7.055   1.573   2.436
17563SOL     OW54527  13.551   7.314  13.707
17563SOL    HW154528  13.638   7.279  13.689
17563SOL    HW254529  13.494   7.272  13.642
17564SOL     OW54530   1.338   0.213   8.917
17564SOL    HW154531   1.424   0.256   8.916
17564SOL    HW254532   1.313   0.210   9.009
17565SOL     OW54533  11.677  11.241  11.515
17565SOL    HW154534  11.627  11.162  11.498
17565SOL    HW254535  11.652  11.267  11.604
17566SOL     OW54536  12.446  12.571   8.058
17566SOL    HW154537  12.395  12.548   8.136
17566SOL    HW254538  12.383  12.616   8.002
17567SOL     OW54539   7.389  13.607  10.545
17567SOL    HW154540   7.357  13.682  10.495
17567SOL    HW254541   7.311  13.570  10.587
17568SOL     OW54542   1.906   1.707   1.914
17568SOL    HW154543   1.889   1.719   2.008
17568SOL    HW254544   1.999   1.727   1.903
17569SOL     OW54545   7.326  10.735   4.772
17569SOL    HW154546   7.279  10.744   4.690
17569SOL    HW254547   7.264  10.765   4.839
17570SOL     OW54548  13.881   5.194  13.721
17570SOL    HW154549  13.967   5.213  13.684
17570SOL    HW254550  13.846   5.280  13.745
17571SOL     OW54551  13.155   8.989   7.681
17571SOL    HW154552  13.106   8.978   7.600
17571SOL    HW254553  13.246   8.973   7.657
17572SOL     OW54554   8.681   3.353   5.240
17572SOL    HW154555   8.659   3.399   5.159
17572SOL    HW254556   8.727   3.274   5.211
17573SOL     OW54557   0.384   0.026   8.549
17573SOL    HW154558   0.349   0.086   8.482
17573SOL    HW254559   0.476   0.052   8.559
17574SOL     OW54560   8.963  12.094  14.175
17574SOL    HW154561   8.873  12.094  14.208
17574SOL    HW254562   8.971  12.012  14.126
17575SOL     OW54563   4.718  11.685  12.749
17575SOL    HW154564   4.654  11.620  12.722
17575SOL    HW254565   4.672  11.739  12.813
17576SOL     OW54566  11.929  11.270   9.348
17576SOL    HW154567  11.866  11.272   9.420
17576SOL    HW254568  11.966  11.182   9.352
17577SOL     OW54569  11.933   5.431   2.213
17577SOL    HW154570  11.954   5.355   2.267
17577SOL    HW254571  11.838   5.437   2.216
17578SOL     OW54572   8.614   9.265   3.722
17578SOL    HW154573   8.657   9.300   3.644
17578SOL    HW254574   8.539   9.323   3.735
17579SOL     OW54575   7.828  10.922   2.940
17579SOL    HW154576   7.742  10.886   2.962
17579SOL    HW254577   7.885  10.845   2.932
17580SOL     OW54578   6.942   1.031   7.022
17580SOL    HW154579   6.921   0.987   6.940
17580SOL    HW254580   6.871   1.094   7.034
17581SOL     OW54581   1.884   4.860   7.201
17581SOL    HW154582   1.905   4.867   7.294
17581SOL    HW254583   1.806   4.915   7.190
17582SOL     OW54584  10.982   5.663  13.426
17582SOL    HW154585  11.047   5.640  13.360
17582SOL    HW254586  10.917   5.716  13.379
17583SOL     OW54587   5.651   8.528   0.546
17583SOL    HW154588   5.712   8.601   0.535
17583SOL    HW254589   5.623   8.534   0.637
17584SOL     OW54590   3.934  12.644  14.146
17584SOL    HW154591   3.909  12.551  14.155
17584SOL    HW254592   3.995  12.645  14.073
17585SOL     OW54593  14.062   5.756  13.807
17585SOL    HW154594  14.116   5.833  13.821
17585SOL    HW254595  13.977   5.779  13.845
17586SOL     OW54596   4.917  14.726  13.708
17586SOL    HW154597   4.984  14.660  13.686
17586SOL    HW254598   4.906  14.776  13.627
17587SOL     OW54599   6.009   5.920   7.700
17587SOL    HW154600   5.960   5.984   7.751
17587SOL    HW254601   5.976   5.931   7.610
17588SOL     OW54602   5.687   5.078   8.428
17588SOL    HW154603   5.686   5.149   8.492
17588SOL    HW254604   5.595   5.064   8.407
17589SOL     OW54605  10.592   3.125  10.794
17589SOL    HW154606  10.673   3.167  10.765
17589SOL    HW254607  10.617   3.034  10.810
17590SOL     OW54608   0.721   4.515   6.693
17590SOL    HW154609   0.633   4.551   6.691
17590SOL    HW254610   0.708   4.420   6.694
17591SOL     OW54611   8.140   0.724  10.428
17591SOL    HW154612   8.086   0.759  10.499
17591SOL    HW254613   8.169   0.639  10.460
17592SOL     OW54614  10.635   7.469   5.386
17592SOL    HW154615  10.576   7.409   5.340
17592SOL    HW254616  10.715   7.468   5.334
17593SOL     OW54617  10.927   9.561  10.324
17593SOL    HW154618  10.914   9.471  10.351
17593SOL    HW254619  10.843   9.588  10.288
17594SOL     OW54620  10.620  13.064  11.123
17594SOL    HW154621  10.636  12.976  11.156
17594SOL    HW254622  10.656  13.063  11.034
17595SOL     OW54623   0.392   7.474   3.695
17595SOL    HW154624   0.355   7.497   3.780
17595SOL    HW254625   0.484   7.500   3.702
17596SOL     OW54626  12.753   4.384   8.228
17596SOL    HW154627  12.681   4.446   8.227
17596SOL    HW254628  12.777   4.377   8.320
17597SOL     OW54629   2.268  11.559   0.646
17597SOL    HW154630   2.351  11.553   0.694
17597SOL    HW254631   2.294  11.571   0.554
17598SOL     OW54632   0.962  12.742   9.756
17598SOL    HW154633   0.905  12.670   9.730
17598SOL    HW254634   0.927  12.819   9.710
17599SOL     OW54635   8.785   9.588   4.451
17599SOL    HW154636   8.700   9.545   4.436
17599SOL    HW254637   8.789   9.657   4.385
17600SOL     OW54638   1.670  13.201   0.707
17600SOL    HW154639   1.717  13.121   0.684
17600SOL    HW254640   1.587  13.194   0.660
17601SOL     OW54641   2.579   8.626   0.407
17601SOL    HW154642   2.649   8.645   0.470
17601SOL    HW254643   2.615   8.654   0.323
17602SOL     OW54644  12.754   8.055   3.691
17602SOL    HW154645  12.812   7.986   3.659
17602SOL    HW254646  12.784   8.134   3.646
17603SOL     OW54647  11.988  11.109  14.713
17603SOL    HW154648  11.949  11.195  14.693
17603SOL    HW254649  11.953  11.087  14.799
17604SOL     OW54650  13.765   8.957   3.887
17604SOL    HW154651  13.746   8.885   3.827
17604SOL    HW254652  13.781   8.916   3.971
17605SOL     OW54653   2.977  10.892   5.410
17605SOL    HW154654   3.043  10.833   5.373
17605SOL    HW254655   3.025  10.947   5.472
17606SOL     OW54656   6.052   2.453   1.111
17606SOL    HW154657   5.961   2.478   1.092
17606SOL    HW254658   6.099   2.536   1.118
17607SOL     OW54659  13.016  11.479   5.478
17607SOL    HW154660  12.959  11.555   5.469
17607SOL    HW254661  13.075  11.484   5.402
17608SOL     OW54662   6.197   8.838   1.930
17608SOL    HW154663   6.216   8.745   1.935
17608SOL    HW254664   6.102   8.844   1.932
17609SOL     OW54665   4.270   8.445   8.767
17609SOL    HW154666   4.356   8.484   8.786
17609SOL    HW254667   4.260   8.455   8.672
17610SOL     OW54668   8.304   0.361   9.870
17610SOL    HW154669   8.285   0.378   9.962
17610SOL    HW254670   8.291   0.445   9.827
17611SOL     OW54671  12.243   4.883   4.576
17611SOL    HW154672  12.160   4.905   4.534
17611SOL    HW254673  12.295   4.842   4.508
17612SOL     OW54674  10.224   8.272   9.181
17612SOL    HW154675  10.289   8.202   9.179
17612SOL    HW254676  10.182   8.264   9.267
17613SOL     OW54677  11.763  12.581  11.472
17613SOL    HW154678  11.808  12.497  11.465
17613SOL    HW254679  11.678  12.565  11.431
17614SOL     OW54680   1.902  10.167  10.486
17614SOL    HW154681   1.945  10.239  10.441
17614SOL    HW254682   1.908  10.093  10.425
17615SOL     OW54683   5.615   1.512   3.152
17615SOL    HW154684   5.659   1.471   3.078
17615SOL    HW254685   5.666   1.591   3.170
17616SOL     OW54686   9.827   4.309   3.199
17616SOL    HW154687   9.735   4.335   3.191
17616SOL    HW254688   9.828   4.217   3.171
17617SOL     OW54689  13.211   4.895   4.443
17617SOL    HW154690  13.244   4.816   4.400
17617SOL    HW254691  13.161   4.940   4.375
17618SOL     OW54692   4.525   6.876  12.214
17618SOL    HW154693   4.608   6.886  12.167
17618SOL    HW254694   4.501   6.784  12.202
17619SOL     OW54695   1.902  13.405  13.120
17619SOL    HW154696   1.808  13.408  13.141
17619SOL    HW254697   1.905  13.376  13.029
17620SOL     OW54698  10.773  13.443   2.468
17620SOL    HW154699  10.857  13.437   2.422
17620SOL    HW254700  10.755  13.537   2.473
17621SOL     OW54701   6.408   6.875   1.414
17621SOL    HW154702   6.463   6.952   1.397
17621SOL    HW254703   6.451   6.804   1.367
17622SOL     OW54704   4.767   6.196   7.664
17622SOL    HW154705   4.717   6.199   7.745
17622SOL    HW254706   4.838   6.135   7.682
17623SOL     OW54707   6.647   2.876  12.931
17623SOL    HW154708   6.553   2.860  12.922
17623SOL    HW254709   6.688   2.795  12.899
17624SOL     OW54710   4.077  12.935   7.089
17624SOL    HW154711   4.028  13.006   7.047
17624SOL    HW254712   4.022  12.908   7.162
17625SOL     OW54713  11.613   4.349   1.455
17625SOL    HW154714  11.651   4.360   1.368
17625SOL    HW254715  11.600   4.439   1.486
17626SOL     OW54716   3.524  11.224   2.792
17626SOL    HW154717   3.600  11.281   2.801
17626SOL    HW254718   3.531  11.188   2.704
17627SOL     OW54719  14.657  10.543   8.124
17627SOL    HW154720  14.565  10.542   8.150
17627SOL    HW254721  14.703  10.502   8.197
17628SOL     OW54722   3.305   0.717   9.395
17628SOL    HW154723   3.321   0.623   9.393
17628SOL    HW254724   3.356   0.751   9.321
17629SOL     OW54725   3.492  12.751   8.065
17629SOL    HW154726   3.405  12.724   8.035
17629SOL    HW254727   3.490  12.741   8.160
17630SOL     OW54728  14.120  14.381   9.702
17630SOL    HW154729  14.146  14.463   9.660
17630SOL    HW254730  14.176  14.375   9.779
17631SOL     OW54731   6.445   1.662   5.687
17631SOL    HW154732   6.399   1.621   5.760
17631SOL    HW254733   6.383   1.658   5.614
17632SOL     OW54734   2.931   6.475   2.799
17632SOL    HW154735   2.927   6.503   2.891
17632SOL    HW254736   2.882   6.542   2.752
17633SOL     OW54737   3.022   5.749   6.186
17633SOL    HW154738   3.048   5.819   6.246
17633SOL    HW254739   2.930   5.733   6.206
17634SOL     OW54740   1.217   1.304  10.525
17634SOL    HW154741   1.297   1.265  10.560
17634SOL    HW254742   1.200   1.254  10.445
17635SOL     OW54743  11.149  14.363   6.339
17635SOL    HW154744  11.057  14.364   6.315
17635SOL    HW254745  11.180  14.452   6.319
17636SOL     OW54746  12.543   4.110   7.721
17636SOL    HW154747  12.592   4.028   7.711
17636SOL    HW254748  12.601   4.166   7.773
17637SOL     OW54749   0.885   6.331   6.071
17637SOL    HW154750   0.908   6.333   6.164
17637SOL    HW254751   0.799   6.289   6.069
17638SOL     OW54752   1.036  11.570  10.765
17638SOL    HW154753   0.978  11.576  10.841
17638SOL    HW254754   0.982  11.530  10.697
17639SOL     OW54755   1.555   3.166  10.564
17639SOL    HW154756   1.496   3.124  10.502
17639SOL    HW254757   1.601   3.232  10.513
17640SOL     OW54758   6.113  14.136  13.235
17640SOL    HW154759   6.039  14.109  13.290
17640SOL    HW254760   6.132  14.226  13.263
17641SOL     OW54761  14.758   7.609   4.950
17641SOL    HW154762  14.805   7.552   5.011
17641SOL    HW254763  14.694   7.654   5.005
17642SOL     OW54764   0.644   5.154  11.444
17642SOL    HW154765   0.718   5.168  11.505
17642SOL    HW254766   0.569   5.141  11.501
17643SOL     OW54767  10.626   1.918   6.541
17643SOL    HW154768  10.593   1.925   6.451
17643SOL    HW254769  10.693   1.850   6.538
17644SOL     OW54770  10.609   5.709   5.536
17644SOL    HW154771  10.694   5.664   5.540
17644SOL    HW254772  10.548   5.648   5.578
17645SOL     OW54773   3.296   5.330   5.698
17645SOL    HW154774   3.231   5.371   5.754
17645SOL    HW254775   3.371   5.315   5.755
17646SOL     OW54776   0.437   8.123   9.991
17646SOL    HW154777   0.471   8.035   9.974
17646SOL    HW254778   0.376   8.111  10.064
17647SOL     OW54779  12.680   0.832   8.683
17647SOL    HW154780  12.728   0.881   8.617
17647SOL    HW254781  12.698   0.878   8.765
17648SOL     OW54782  10.207   3.437  12.476
17648SOL    HW154783  10.215   3.529  12.503
17648SOL    HW254784  10.297   3.411  12.455
17649SOL     OW54785   3.135   2.206   4.744
17649SOL    HW154786   3.046   2.200   4.707
17649SOL    HW254787   3.153   2.300   4.746
17650SOL     OW54788   9.581   6.150   3.273
17650SOL    HW154789   9.543   6.174   3.188
17650SOL    HW254790   9.533   6.205   3.335
17651SOL     OW54791   1.146   7.460  13.539
17651SOL    HW154792   1.100   7.440  13.458
17651SOL    HW254793   1.131   7.383  13.595
17652SOL     OW54794   0.642  13.124   7.001
17652SOL    HW154795   0.673  13.177   6.927
17652SOL    HW254796   0.555  13.093   6.974
17653SOL     OW54797   2.667   0.481   5.489
17653SOL    HW154798   2.673   0.392   5.454
17653SOL    HW254799   2.758   0.508   5.503
17654SOL     OW54800   1.518   7.806   8.742
17654SOL    HW154801   1.492   7.767   8.659
17654SOL    HW254802   1.608   7.835   8.728
17655SOL     OW54803   8.472   9.247  14.668
17655SOL    HW154804   8.557   9.269  14.706
17655SOL    HW254805   8.444   9.169  14.717
17656SOL     OW54806   5.307   0.713  12.404
17656SOL    HW154807   5.350   0.677  12.327
17656SOL    HW254808   5.219   0.674  12.403
17657SOL     OW54809   1.001   9.866   7.992
17657SOL    HW154810   1.095   9.870   8.012
17657SOL    HW254811   0.995   9.815   7.912
17658SOL     OW54812  12.110   5.884  13.537
17658SOL    HW154813  12.186   5.839  13.502
17658SOL    HW254814  12.128   5.977  13.523
17659SOL     OW54815   2.361  12.896   1.719
17659SOL    HW154816   2.368  12.850   1.635
17659SOL    HW254817   2.395  12.983   1.702
17660SOL     OW54818  11.374   4.998   9.751
17660SOL    HW154819  11.467   4.995   9.726
17660SOL    HW254820  11.353   5.091   9.757
17661SOL     OW54821  13.284   8.976   3.786
17661SOL    HW154822  13.307   9.001   3.696
17661SOL    HW254823  13.197   9.015   3.800
17662SOL     OW54824  10.733   8.396  10.235
17662SOL    HW154825  10.722   8.413  10.329
17662SOL    HW254826  10.648   8.362  10.207
17663SOL     OW54827   2.753   1.393   5.900
17663SOL    HW154828   2.789   1.479   5.923
17663SOL    HW254829   2.712   1.406   5.815
17664SOL     OW54830   9.255   4.692   0.730
17664SOL    HW154831   9.301   4.679   0.812
17664SOL    HW254832   9.193   4.763   0.748
17665SOL     OW54833   8.318  10.381   5.538
17665SOL    HW154834   8.348  10.309   5.595
17665SOL    HW254835   8.391  10.443   5.538
17666SOL     OW54836  14.261   5.105   4.752
17666SOL    HW154837  14.221   5.052   4.682
17666SOL    HW254838  14.270   5.044   4.825
17667SOL     OW54839  12.439   6.031  11.942
17667SOL    HW154840  12.518   6.013  11.994
17667SOL    HW254841  12.367   6.020  12.003
17668SOL     OW54842   2.090   7.708   5.058
17668SOL    HW154843   2.065   7.689   4.967
17668SOL    HW254844   2.111   7.801   5.058
17669SOL     OW54845  10.153   2.478   4.597
17669SOL    HW154846  10.186   2.494   4.686
17669SOL    HW254847  10.139   2.566   4.561
17670SOL     OW54848  13.391   8.216  12.996
17670SOL    HW154849  13.422   8.302  12.967
17670SOL    HW254850  13.364   8.172  12.915
17671SOL     OW54851   1.941  12.344   1.486
17671SOL    HW154852   2.024  12.346   1.438
17671SOL    HW254853   1.959  12.391   1.567
17672SOL     OW54854   5.353   4.495   4.966
17672SOL    HW154855   5.371   4.402   4.977
17672SOL    HW254856   5.438   4.538   4.977
17673SOL     OW54857   5.351  12.214   8.437
17673SOL    HW154858   5.411  12.212   8.512
17673SOL    HW254859   5.365  12.299   8.397
17674SOL     OW54860  13.364   0.423   5.295
17674SOL    HW154861  13.434   0.385   5.350
17674SOL    HW254862  13.288   0.428   5.353
17675SOL     OW54863   8.385  13.727   5.318
17675SOL    HW154864   8.333  13.664   5.269
17675SOL    HW254865   8.363  13.711   5.410
17676SOL     OW54866   4.605  12.656   0.434
17676SOL    HW154867   4.611  12.711   0.512
17676SOL    HW254868   4.525  12.685   0.390
17677SOL     OW54869   8.660  10.665   2.767
17677SOL    HW154870   8.646  10.570   2.764
17677SOL    HW254871   8.731  10.681   2.704
17678SOL     OW54872  11.599   3.103   5.847
17678SOL    HW154873  11.692   3.124   5.838
17678SOL    HW254874  11.568   3.098   5.756
17679SOL     OW54875  11.239  10.956   3.531
17679SOL    HW154876  11.209  10.890   3.469
17679SOL    HW254877  11.168  10.963   3.595
17680SOL     OW54878  11.925   1.963  13.684
17680SOL    HW154879  11.996   1.907  13.717
17680SOL    HW254880  11.889   2.005  13.762
17681SOL     OW54881   6.764   7.344   5.198
17681SOL    HW154882   6.837   7.299   5.158
17681SOL    HW254883   6.719   7.388   5.125
17682SOL     OW54884   3.495   2.262   5.269
17682SOL    HW154885   3.435   2.198   5.308
17682SOL    HW254886   3.574   2.256   5.322
17683SOL     OW54887   2.536   6.466   2.394
17683SOL    HW154888   2.595   6.437   2.324
17683SOL    HW254889   2.574   6.429   2.473
17684SOL     OW54890   4.474  12.761  12.342
17684SOL    HW154891   4.486  12.805  12.426
17684SOL    HW254892   4.550  12.703  12.334
17685SOL     OW54893   0.654  14.162  13.309
17685SOL    HW154894   0.605  14.087  13.274
17685SOL    HW254895   0.722  14.123  13.363
17686SOL     OW54896   1.955  13.684   8.731
17686SOL    HW154897   2.028  13.636   8.771
17686SOL    HW254898   1.944  13.642   8.645
17687SOL     OW54899   9.171   0.260  12.608
17687SOL    HW154900   9.148   0.183  12.660
17687SOL    HW254901   9.180   0.331  12.671
17688SOL     OW54902   7.792  11.031  13.129
17688SOL    HW154903   7.873  11.055  13.085
17688SOL    HW254904   7.768  11.110  13.178
17689SOL     OW54905   6.381  10.514  10.163
17689SOL    HW154906   6.404  10.429  10.200
17689SOL    HW254907   6.404  10.577  10.232
17690SOL     OW54908   4.252  13.994   4.342
17690SOL    HW154909   4.219  13.905   4.354
17690SOL    HW254910   4.192  14.033   4.278
17691SOL     OW54911  10.367  14.306  11.386
17691SOL    HW154912  10.358  14.371  11.456
17691SOL    HW254913  10.458  14.316  11.356
17692SOL     OW54914  11.925  14.820  12.862
17692SOL    HW154915  11.951   0.020  12.910
17692SOL    HW254916  11.967  14.749  12.911
17693SOL     OW54917   2.808  13.169   4.346
17693SOL    HW154918   2.874  13.102   4.367
17693SOL    HW254919   2.859  13.242   4.310
17694SOL     OW54920   8.284   6.453   4.144
17694SOL    HW154921   8.357   6.473   4.203
17694SOL    HW254922   8.326   6.434   4.060
17695SOL     OW54923  10.117   9.816   1.957
17695SOL    HW154924  10.048   9.774   1.905
17695SOL    HW254925  10.153   9.746   2.011
17696SOL     OW54926   1.278   9.631   6.515
17696SOL    HW154927   1.362   9.654   6.475
17696SOL    HW254928   1.273   9.536   6.505
17697SOL     OW54929   6.792  12.307  10.881
17697SOL    HW154930   6.724  12.246  10.853
17697SOL    HW254931   6.860  12.299  10.814
17698SOL     OW54932  11.011   1.666  10.087
17698SOL    HW154933  10.938   1.628  10.038
17698SOL    HW254934  10.975   1.685  10.173
17699SOL     OW54935  12.262   8.119   2.732
17699SOL    HW154936  12.207   8.132   2.655
17699SOL    HW254937  12.314   8.041   2.712
17700SOL     OW54938   1.099   5.798   3.956
17700SOL    HW154939   1.010   5.797   3.922
17700SOL    HW254940   1.129   5.889   3.944
17701SOL     OW54941   5.789   8.224   6.138
17701SOL    HW154942   5.797   8.183   6.224
17701SOL    HW254943   5.852   8.296   6.139
17702SOL     OW54944  12.690  12.680   2.353
17702SOL    HW154945  12.611  12.728   2.327
17702SOL    HW254946  12.706  12.707   2.443
17703SOL     OW54947  11.687   1.122   8.688
17703SOL    HW154948  11.648   1.207   8.669
17703SOL    HW254949  11.663   1.105   8.779
17704SOL     OW54950  11.657   2.942  12.089
17704SOL    HW154951  11.679   3.025  12.048
17704SOL    HW254952  11.737   2.915  12.134
17705SOL     OW54953   6.533  11.032   4.541
17705SOL    HW154954   6.614  10.993   4.574
17705SOL    HW254955   6.463  10.980   4.581
17706SOL     OW54956   5.479   8.150   9.797
17706SOL    HW154957   5.446   8.061   9.791
17706SOL    HW254958   5.558   8.143   9.851
17707SOL     OW54959   7.428  12.970  11.550
17707SOL    HW154960   7.486  12.901  11.516
17707SOL    HW254961   7.404  13.022  11.473
17708SOL     OW54962   3.985  14.364   0.150
17708SOL    HW154963   3.939  14.429   0.204
17708SOL    HW254964   4.049  14.324   0.208
17709SOL     OW54965   6.056  10.103  11.734
17709SOL    HW154966   6.126  10.067  11.679
17709SOL    HW254967   6.027  10.029  11.788
17710SOL     OW54968   0.814  12.088   5.806
17710SOL    HW154969   0.821  12.121   5.716
17710SOL    HW254970   0.734  12.127   5.840
17711SOL     OW54971   4.078   0.668   5.246
17711SOL    HW154972   4.020   0.647   5.172
17711SOL    HW254973   4.020   0.702   5.313
17712SOL     OW54974   8.589   9.534   5.370
17712SOL    HW154975   8.573   9.482   5.449
17712SOL    HW254976   8.577   9.625   5.399
17713SOL     OW54977   6.310   9.659   8.494
17713SOL    HW154978   6.385   9.718   8.492
17713SOL    HW254979   6.253   9.689   8.423
17714SOL     OW54980   7.685   8.087   2.448
17714SOL    HW154981   7.714   8.148   2.515
17714SOL    HW254982   7.755   8.022   2.442
17715SOL     OW54983   3.568  11.893   3.235
17715SOL    HW154984   3.644  11.915   3.288
17715SOL    HW254985   3.518  11.974   3.229
17716SOL     OW54986  12.780   4.365   5.158
17716SOL    HW154987  12.847   4.332   5.099
17716SOL    HW254988  12.697   4.347   5.114
17717SOL     OW54989  10.806   0.702   7.805
17717SOL    HW154990  10.762   0.656   7.876
17717SOL    HW254991  10.776   0.793   7.813
17718SOL     OW54992   6.359   2.317  14.838
17718SOL    HW154993   6.272   2.344  14.807
17718SOL    HW254994   6.347   2.304   0.053
17719SOL     OW54995   0.186   4.629   7.676
17719SOL    HW154996   0.110   4.663   7.722
17719SOL    HW254997   0.253   4.620   7.744
17720SOL     OW54998   4.509  10.414   9.616
17720SOL    HW154999   4.561  10.494   9.614
17720SOL    HW255000   4.458  10.420   9.697
17721SOL     OW55001   1.321   0.781   6.202
17721SOL    HW155002   1.286   0.692   6.211
17721SOL    HW255003   1.314   0.818   6.290
17722SOL     OW55004   6.475  12.808  14.416
17722SOL    HW155005   6.495  12.730  14.469
17722SOL    HW255006   6.476  12.776  14.326
17723SOL     OW55007   0.137  14.832   4.626
17723SOL    HW155008   0.162  14.810   4.537
17723SOL    HW255009   0.216  14.816   4.678
17724SOL     OW55010  12.510   0.659   2.868
17724SOL    HW155011  12.477   0.733   2.918
17724SOL    HW255012  12.436   0.630   2.815
17725SOL     OW55013   7.082  11.632  12.596
17725SOL    HW155014   7.047  11.671  12.516
17725SOL    HW255015   7.170  11.668  12.604
17726SOL     OW55016  14.837   8.284  11.001
17726SOL    HW155017  14.785   8.346  10.950
17726SOL    HW255018  14.774   8.220  11.034
17727SOL     OW55019  11.932  13.513   9.621
17727SOL    HW155020  11.861  13.573   9.643
17727SOL    HW255021  11.918  13.491   9.529
17728SOL     OW55022  14.246   2.407  12.769
17728SOL    HW155023  14.327   2.445  12.802
17728SOL    HW255024  14.178   2.470  12.792
17729SOL     OW55025   4.329   4.671  11.287
17729SOL    HW155026   4.250   4.676  11.340
17729SOL    HW255027   4.321   4.744  11.226
17730SOL     OW55028   7.662   1.257  12.392
17730SOL    HW155029   7.606   1.304  12.455
17730SOL    HW255030   7.721   1.205  12.446
17731SOL     OW55031  13.473  10.577  10.280
17731SOL    HW155032  13.547  10.612  10.232
17731SOL    HW255033  13.414  10.652  10.290
17732SOL     OW55034  11.665   9.264   8.496
17732SOL    HW155035  11.620   9.231   8.574
17732SOL    HW255036  11.758   9.250   8.515
17733SOL     OW55037   0.459  13.523  10.532
17733SOL    HW155038   0.540  13.507  10.484
17733SOL    HW255039   0.473  13.608  10.575
17734SOL     OW55040   9.331   6.512   1.849
17734SOL    HW155041   9.408   6.561   1.819
17734SOL    HW255042   9.355   6.480   1.936
17735SOL     OW55043   4.436   2.400   1.990
17735SOL    HW155044   4.489   2.389   1.911
17735SOL    HW255045   4.346   2.409   1.956
17736SOL     OW55046   3.423  12.187  10.374
17736SOL    HW155047   3.513  12.221  10.372
17736SOL    HW255048   3.429  12.110  10.431
17737SOL     OW55049  10.042   4.804  10.494
17737SOL    HW155050  10.013   4.887  10.530
17737SOL    HW255051  10.056   4.821  10.401
17738SOL     OW55052   2.761  14.043   5.379
17738SOL    HW155053   2.730  14.110   5.318
17738SOL    HW255054   2.727  14.072   5.464
17739SOL     OW55055   5.772  13.156   0.997
17739SOL    HW155056   5.823  13.177   1.075
17739SOL    HW255057   5.829  13.099   0.945
17740SOL     OW55058  13.058   3.262   9.516
17740SOL    HW155059  12.968   3.254   9.548
17740SOL    HW255060  13.112   3.223   9.585
17741SOL     OW55061  13.587   8.969   3.400
17741SOL    HW155062  13.603   8.973   3.306
17741SOL    HW255063  13.659   8.915   3.434
17742SOL     OW55064   5.236   9.379   1.451
17742SOL    HW155065   5.264   9.334   1.531
17742SOL    HW255066   5.317   9.414   1.414
17743SOL     OW55067  10.253   0.164   2.136
17743SOL    HW155068  10.341   0.177   2.170
17743SOL    HW255069  10.195   0.198   2.204
17744SOL     OW55070   8.564   0.438   4.581
17744SOL    HW155071   8.570   0.384   4.660
17744SOL    HW255072   8.630   0.402   4.522
17745SOL     OW55073  12.348  12.598   4.710
17745SOL    HW155074  12.416  12.613   4.644
17745SOL    HW255075  12.266  12.606   4.662
17746SOL     OW55076   9.002   0.548   5.039
17746SOL    HW155077   8.966   0.611   5.100
17746SOL    HW255078   8.946   0.471   5.049
17747SOL     OW55079   2.115  14.299   9.443
17747SOL    HW155080   2.126  14.377   9.389
17747SOL    HW255081   2.173  14.234   9.404
17748SOL     OW55082   2.006   3.337   7.243
17748SOL    HW155083   2.014   3.275   7.171
17748SOL    HW255084   2.087   3.387   7.241
17749SOL     OW55085  13.047  12.047  12.167
17749SOL    HW155086  13.007  12.059  12.081
17749SOL    HW255087  13.096  12.127  12.182
17750SOL     OW55088   3.530  13.218  13.692
17750SOL    HW155089   3.442  13.186  13.712
17750SOL    HW255090   3.529  13.232  13.598
17751SOL     OW55091   2.623   5.499   2.230
17751SOL    HW155092   2.640   5.592   2.211
17751SOL    HW255093   2.708   5.456   2.218
17752SOL     OW55094   1.603   5.646  13.195
17752SOL    HW155095   1.653   5.724  13.169
17752SOL    HW255096   1.521   5.681  13.231
17753SOL     OW55097   0.602   1.563   8.426
17753SOL    HW155098   0.611   1.480   8.379
17753SOL    HW255099   0.688   1.603   8.420
17754SOL     OW55100   9.969   3.301  13.115
17754SOL    HW155101  10.011   3.385  13.130
17754SOL    HW255102  10.040   3.241  13.095
17755SOL     OW55103   9.107   9.695   0.954
17755SOL    HW155104   9.158   9.706   1.034
17755SOL    HW255105   9.158   9.741   0.887
17756SOL     OW55106  11.017   5.824  10.274
17756SOL    HW155107  11.051   5.910  10.296
17756SOL    HW255108  11.014   5.822  10.179
17757SOL     OW55109   1.903  11.857   4.118
17757SOL    HW155110   1.896  11.830   4.027
17757SOL    HW255111   1.990  11.828   4.145
17758SOL     OW55112  11.081   8.666  11.810
17758SOL    HW155113  10.990   8.695  11.813
17758SOL    HW255114  11.083   8.596  11.744
17759SOL     OW55115   4.705  13.944   0.867
17759SOL    HW155116   4.788  13.927   0.822
17759SOL    HW255117   4.654  13.864   0.854
17760SOL     OW55118   5.503   3.341   7.202
17760SOL    HW155119   5.574   3.296   7.158
17760SOL    HW255120   5.430   3.339   7.140
17761SOL     OW55121  11.306   9.149  13.782
17761SOL    HW155122  11.240   9.081  13.767
17761SOL    HW255123  11.387   9.100  13.797
17762SOL     OW55124  10.776   4.756   9.493
17762SOL    HW155125  10.782   4.698   9.569
17762SOL    HW255126  10.741   4.838   9.527
17763SOL     OW55127  14.187   9.871   4.524
17763SOL    HW155128  14.226   9.783   4.523
17763SOL    HW255129  14.255   9.928   4.487
17764SOL     OW55130  10.596   1.181   7.079
17764SOL    HW155131  10.642   1.136   7.150
17764SOL    HW255132  10.663   1.234   7.036
17765SOL     OW55133  14.347   8.572   9.506
17765SOL    HW155134  14.374   8.662   9.485
17765SOL    HW255135  14.428   8.521   9.502
17766SOL     OW55136   2.341   1.392   0.551
17766SOL    HW155137   2.362   1.440   0.471
17766SOL    HW255138   2.426   1.360   0.582
17767SOL     OW55139   2.863   8.606  11.996
17767SOL    HW155140   2.822   8.522  11.973
17767SOL    HW255141   2.933   8.583  12.057
17768SOL     OW55142   8.047   3.956  12.655
17768SOL    HW155143   8.027   3.889  12.720
17768SOL    HW255144   8.143   3.959  12.651
17769SOL     OW55145   7.304  14.286  11.761
17769SOL    HW155146   7.293  14.267  11.854
17769SOL    HW255147   7.385  14.338  11.757
17770SOL     OW55148   3.878   8.762   2.465
17770SOL    HW155149   3.946   8.823   2.493
17770SOL    HW255150   3.805   8.777   2.526
17771SOL     OW55151   6.418   1.625   7.722
17771SOL    HW155152   6.467   1.602   7.643
17771SOL    HW255153   6.462   1.703   7.755
17772SOL     OW55154   9.251   8.266   1.547
17772SOL    HW155155   9.264   8.179   1.583
17772SOL    HW255156   9.184   8.306   1.601
17773SOL     OW55157  11.212   9.953   8.280
17773SOL    HW155158  11.138   9.926   8.226
17773SOL    HW255159  11.287   9.954   8.220
17774SOL     OW55160   1.044  13.161   4.945
17774SOL    HW155161   1.046  13.146   4.851
17774SOL    HW255162   1.117  13.110   4.980
17775SOL     OW55163   7.431   5.842   5.383
17775SOL    HW155164   7.381   5.760   5.377
17775SOL    HW255165   7.401   5.895   5.310
17776SOL     OW55166   6.302   1.061   7.584
17776SOL    HW155167   6.247   1.028   7.655
17776SOL    HW255168   6.261   1.026   7.505
17777SOL     OW55169   6.165   5.061   6.122
17777SOL    HW155170   6.173   5.098   6.210
17777SOL    HW255171   6.186   5.134   6.063
17778SOL     OW55172   9.848  10.583  11.960
17778SOL    HW155173   9.859  10.497  11.921
17778SOL    HW255174   9.904  10.582  12.038
17779SOL     OW55175   1.759  12.318   8.365
17779SOL    HW155176   1.702  12.378   8.316
17779SOL    HW255177   1.723  12.319   8.453
17780SOL     OW55178   9.984  11.047  12.251
17780SOL    HW155179  10.078  11.063  12.262
17780SOL    HW255180   9.942  11.124  12.291
17781SOL     OW55181  14.750   5.436   1.473
17781SOL    HW155182  14.676   5.410   1.418
17781SOL    HW255183  14.720   5.418   1.563
17782SOL     OW55184   5.928   7.601   4.675
17782SOL    HW155185   5.938   7.557   4.759
17782SOL    HW255186   6.018   7.617   4.645
17783SOL     OW55187   7.888   5.027   8.048
17783SOL    HW155188   7.963   5.031   7.990
17783SOL    HW255189   7.812   5.021   7.990
17784SOL     OW55190  13.792   2.547   9.510
17784SOL    HW155191  13.848   2.515   9.439
17784SOL    HW255192  13.724   2.598   9.467
17785SOL     OW55193   6.906   4.583   5.615
17785SOL    HW155194   6.836   4.551   5.558
17785SOL    HW255195   6.944   4.657   5.567
17786SOL     OW55196   6.347   2.032  10.711
17786SOL    HW155197   6.342   2.035  10.616
17786SOL    HW255198   6.270   2.081  10.741
17787SOL     OW55199   0.252  12.516  11.249
17787SOL    HW155200   0.337  12.492  11.287
17787SOL    HW255201   0.273  12.575  11.177
17788SOL     OW55202   0.626   8.397   0.039
17788SOL    HW155203   0.602   8.480   0.079
17788SOL    HW255204   0.617   8.333   0.109
17789SOL     OW55205   6.651  10.818   3.535
17789SOL    HW155206   6.577  10.758   3.539
17789SOL    HW255207   6.713  10.783   3.599
17790SOL     OW55208   8.018   1.719   0.180
17790SOL    HW155209   8.084   1.788   0.183
17790SOL    HW255210   8.023   1.677   0.266
17791SOL     OW55211   2.988   0.742   8.771
17791SOL    HW155212   2.968   0.687   8.847
17791SOL    HW255213   2.968   0.686   8.696
17792SOL     OW55214   1.792  14.483   4.422
17792SOL    HW155215   1.826  14.529   4.346
17792SOL    HW255216   1.851  14.409   4.434
17793SOL     OW55217  11.829  14.860  10.363
17793SOL    HW155218  11.906  14.827  10.408
17793SOL    HW255219  11.836  14.826  10.274
17794SOL     OW55220   4.248   3.673   5.746
17794SOL    HW155221   4.262   3.716   5.662
17794SOL    HW255222   4.297   3.726   5.809
17795SOL     OW55223  13.380   1.287   0.203
17795SOL    HW155224  13.455   1.233   0.230
17795SOL    HW255225  13.331   1.302   0.283
17796SOL     OW55226  10.240  11.934  13.068
17796SOL    HW155227  10.157  11.953  13.024
17796SOL    HW255228  10.229  11.972  13.155
17797SOL     OW55229  11.258   5.202  11.342
17797SOL    HW155230  11.281   5.165  11.428
17797SOL    HW255231  11.239   5.125  11.288
17798SOL     OW55232   3.287   2.427   0.962
17798SOL    HW155233   3.252   2.339   0.978
17798SOL    HW255234   3.330   2.421   0.877
17799SOL     OW55235  12.327  10.218   2.149
17799SOL    HW155236  12.238  10.215   2.113
17799SOL    HW255237  12.354  10.309   2.138
17800SOL     OW55238   5.721   8.732   7.635
17800SOL    HW155239   5.792   8.748   7.697
17800SOL    HW255240   5.761   8.743   7.549
17801SOL     OW55241   6.933  10.862  12.656
17801SOL    HW155242   7.027  10.883  12.656
17801SOL    HW255243   6.926  10.783  12.603
17802SOL     OW55244   7.804   3.343  11.388
17802SOL    HW155245   7.861   3.419  11.402
17802SOL    HW255246   7.715   3.376  11.404
17803SOL     OW55247  11.853  12.334   6.494
17803SOL    HW155248  11.891  12.421   6.497
17803SOL    HW255249  11.917  12.278   6.539
17804SOL     OW55250   0.947   9.661  11.781
17804SOL    HW155251   0.944   9.609  11.862
17804SOL    HW255252   0.950   9.752  11.811
17805SOL     OW55253  11.302  10.477  14.841
17805SOL    HW155254  11.355  10.450  14.766
17805SOL    HW255255  11.216  10.438  14.826
17806SOL     OW55256  10.858   5.889  13.230
17806SOL    HW155257  10.826   5.972  13.195
17806SOL    HW255258  10.860   5.830  13.155
17807SOL     OW55259  14.691   7.956  12.290
17807SOL    HW155260  14.676   7.901  12.214
17807SOL    HW255261  14.604   7.985  12.317
17808SOL     OW55262   7.101   3.320   9.774
17808SOL    HW155263   7.111   3.415   9.768
17808SOL    HW255264   7.098   3.291   9.682
17809SOL     OW55265   0.661  13.500  14.066
17809SOL    HW155266   0.602  13.571  14.040
17809SOL    HW255267   0.682  13.456  13.983
17810SOL     OW55268   8.700   8.848   6.420
17810SOL    HW155269   8.609   8.845   6.393
17810SOL    HW255270   8.699   8.890   6.506
17811SOL     OW55271   4.271   3.641  11.273
17811SOL    HW155272   4.180   3.629  11.246
17811SOL    HW255273   4.322   3.589  11.211
17812SOL     OW55274  12.145   8.730   6.096
17812SOL    HW155275  12.219   8.785   6.125
17812SOL    HW255276  12.126   8.674   6.171
17813SOL     OW55277   2.658  14.758   1.562
17813SOL    HW155278   2.734  14.816   1.572
17813SOL    HW255279   2.682  14.679   1.609
17814SOL     OW55280   5.852  10.364   3.247
17814SOL    HW155281   5.834  10.457   3.238
17814SOL    HW255282   5.788  10.321   3.190
17815SOL     OW55283  13.479   0.921   1.368
17815SOL    HW155284  13.555   0.879   1.408
17815SOL    HW255285  13.419   0.849   1.350
17816SOL     OW55286   2.103  11.039  13.219
17816SOL    HW155287   2.049  11.086  13.155
17816SOL    HW255288   2.144  11.108  13.270
17817SOL     OW55289  10.864   0.187   1.370
17817SOL    HW155290  10.809   0.218   1.298
17817SOL    HW255291  10.848   0.249   1.441
17818SOL     OW55292   6.451  10.016   0.506
17818SOL    HW155293   6.510  10.079   0.464
17818SOL    HW255294   6.364  10.041   0.477
17819SOL     OW55295   4.775   3.648  10.287
17819SOL    HW155296   4.855   3.621  10.331
17819SOL    HW255297   4.748   3.729  10.331
17820SOL     OW55298   0.591   3.904  12.782
17820SOL    HW155299   0.528   3.902  12.854
17820SOL    HW255300   0.541   3.937  12.707
17821SOL     OW55301  13.623   7.926   6.531
17821SOL    HW155302  13.678   7.870   6.476
17821SOL    HW255303  13.645   8.015   6.504
17822SOL     OW55304   9.270   5.356   5.021
17822SOL    HW155305   9.201   5.417   5.049
17822SOL    HW255306   9.307   5.398   4.943
17823SOL     OW55307   8.801   3.102   0.286
17823SOL    HW155308   8.745   3.143   0.219
17823SOL    HW255309   8.851   3.174   0.323
17824SOL     OW55310  12.710   2.144  13.589
17824SOL    HW155311  12.760   2.091  13.651
17824SOL    HW255312  12.619   2.132  13.617
17825SOL     OW55313  14.253   7.550   2.863
17825SOL    HW155314  14.303   7.631   2.875
17825SOL    HW255315  14.278   7.520   2.775
17826SOL     OW55316   9.122  11.888   1.883
17826SOL    HW155317   9.204  11.841   1.896
17826SOL    HW255318   9.148  11.976   1.858
17827SOL     OW55319   1.263  11.324   6.540
17827SOL    HW155320   1.179  11.281   6.524
17827SOL    HW255321   1.329  11.263   6.507
17828SOL     OW55322  14.020   6.921   8.753
17828SOL    HW155323  14.066   6.843   8.784
17828SOL    HW255324  14.061   6.941   8.669
17829SOL     OW55325   4.744   9.256  12.453
17829SOL    HW155326   4.789   9.299  12.525
17829SOL    HW255327   4.761   9.162  12.466
17830SOL     OW55328   5.048   3.681   0.489
17830SOL    HW155329   5.068   3.668   0.582
17830SOL    HW255330   5.092   3.762   0.465
17831SOL     OW55331   3.845  11.484  11.152
17831SOL    HW155332   3.932  11.522  11.144
17831SOL    HW255333   3.854  11.415  11.218
17832SOL     OW55334   9.307   9.343   4.850
17832SOL    HW155335   9.233   9.396   4.882
17832SOL    HW255336   9.268   9.281   4.789
17833SOL     OW55337  14.005   7.494  12.912
17833SOL    HW155338  13.931   7.455  12.959
17833SOL    HW255339  13.992   7.468  12.821
17834SOL     OW55340  10.986  12.507  10.081
17834SOL    HW155341  10.898  12.536  10.057
17834SOL    HW255342  11.043  12.555  10.021
17835SOL     OW55343  11.169  12.559   1.656
17835SOL    HW155344  11.218  12.641   1.663
17835SOL    HW255345  11.230  12.492   1.688
17836SOL     OW55346   6.608  14.271   8.266
17836SOL    HW155347   6.612  14.243   8.175
17836SOL    HW255348   6.637  14.362   8.265
17837SOL     OW55349   5.136  12.109   8.211
17837SOL    HW155350   5.187  12.188   8.225
17837SOL    HW255351   5.080  12.129   8.137
17838SOL     OW55352   6.478  12.873   3.187
17838SOL    HW155353   6.423  12.871   3.109
17838SOL    HW255354   6.425  12.831   3.255
17839SOL     OW55355   6.745   4.986   1.141
17839SOL    HW155356   6.682   5.049   1.105
17839SOL    HW255357   6.816   4.985   1.076
17840SOL     OW55358   1.045   1.428   1.916
17840SOL    HW155359   1.114   1.380   1.870
17840SOL    HW255360   1.091   1.478   1.983
17841SOL     OW55361  12.342   2.960   0.345
17841SOL    HW155362  12.320   3.035   0.290
17841SOL    HW255363  12.431   2.978   0.376
17842SOL     OW55364   3.321  11.938  10.984
17842SOL    HW155365   3.407  11.929  10.941
17842SOL    HW255366   3.334  11.903  11.072
17843SOL     OW55367   6.666   8.040  11.373
17843SOL    HW155368   6.596   8.003  11.319
17843SOL    HW255369   6.668   7.985  11.451
17844SOL     OW55370   0.609  10.599  13.773
17844SOL    HW155371   0.580  10.526  13.719
17844SOL    HW255372   0.697  10.620  13.740
17845SOL     OW55373  12.940   2.025  14.001
17845SOL    HW155374  12.895   1.954  14.046
17845SOL    HW255375  12.882   2.100  14.010
17846SOL     OW55376   7.891  10.307  11.954
17846SOL    HW155377   7.927  10.390  11.924
17846SOL    HW255378   7.855  10.267  11.874
17847SOL     OW55379  13.506   7.965   1.399
17847SOL    HW155380  13.432   7.939   1.454
17847SOL    HW255381  13.557   8.024   1.455
17848SOL     OW55382   9.414  11.385   1.338
17848SOL    HW155383   9.500  11.425   1.350
17848SOL    HW255384   9.420  11.341   1.254
17849SOL     OW55385  10.691   0.941   7.800
17849SOL    HW155386  10.692   0.969   7.709
17849SOL    HW255387  10.600   0.916   7.817
17850SOL     OW55388   8.591  13.465   7.799
17850SOL    HW155389   8.685  13.462   7.814
17850SOL    HW255390   8.566  13.374   7.784
17851SOL     OW55391   4.601   6.876   1.508
17851SOL    HW155392   4.564   6.837   1.587
17851SOL    HW255393   4.565   6.823   1.437
17852SOL     OW55394  11.374   2.736   9.677
17852SOL    HW155395  11.384   2.703   9.766
17852SOL    HW255396  11.311   2.808   9.684
17853SOL     OW55397  14.610   1.885   0.225
17853SOL    HW155398  14.682   1.933   0.183
17853SOL    HW255399  14.553   1.860   0.153
17854SOL     OW55400  11.281   3.657   8.823
17854SOL    HW155401  11.231   3.588   8.867
17854SOL    HW255402  11.275   3.732   8.881
17855SOL     OW55403   0.963   8.526  13.070
17855SOL    HW155404   1.000   8.525  12.982
17855SOL    HW255405   0.869   8.516  13.058
17856SOL     OW55406   3.295  13.402   8.205
17856SOL    HW155407   3.207  13.406   8.242
17856SOL    HW255408   3.353  13.405   8.281
17857SOL     OW55409   5.452  13.168   4.100
17857SOL    HW155410   5.363  13.135   4.086
17857SOL    HW255411   5.476  13.209   4.017
17858SOL     OW55412  12.960   3.710   0.851
17858SOL    HW155413  13.051   3.682   0.845
17858SOL    HW255414  12.909   3.632   0.833
17859SOL     OW55415   0.926   5.538   5.113
17859SOL    HW155416   0.929   5.449   5.078
17859SOL    HW255417   0.958   5.530   5.202
17860SOL     OW55418   3.191  14.839   9.647
17860SOL    HW155419   3.259  14.794   9.698
17860SOL    HW255420   3.206   0.053   9.664
17861SOL     OW55421   3.124   7.548  10.852
17861SOL    HW155422   3.111   7.499  10.933
17861SOL    HW255423   3.089   7.491  10.784
17862SOL     OW55424   9.059   1.831   4.080
17862SOL    HW155425   9.021   1.854   3.996
17862SOL    HW255426   9.069   1.914   4.126
17863SOL     OW55427   1.338   6.761   3.463
17863SOL    HW155428   1.355   6.851   3.490
17863SOL    HW255429   1.281   6.725   3.531
17864SOL     OW55430  14.469   9.249   1.490
17864SOL    HW155431  14.457   9.309   1.564
17864SOL    HW255432  14.497   9.305   1.418
17865SOL     OW55433   4.552  10.147   4.395
17865SOL    HW155434   4.500  10.103   4.463
17865SOL    HW255435   4.598  10.217   4.441
17866SOL     OW55436  10.958   8.233  12.983
17866SOL    HW155437  10.982   8.312  12.935
17866SOL    HW255438  10.967   8.257  13.075
17867SOL     OW55439   6.153  11.588   8.240
17867SOL    HW155440   6.131  11.508   8.287
17867SOL    HW255441   6.093  11.590   8.165
17868SOL     OW55442  14.586  14.238  10.804
17868SOL    HW155443  14.601  14.162  10.861
17868SOL    HW255444  14.504  14.219  10.759
17869SOL     OW55445   9.923   7.628  13.077
17869SOL    HW155446   9.966   7.638  12.992
17869SOL    HW255447   9.995   7.626  13.140
17870SOL     OW55448  12.891  12.737   2.810
17870SOL    HW155449  12.826  12.807   2.805
17870SOL    HW255450  12.959  12.772   2.867
17871SOL     OW55451   5.047  11.835   1.427
17871SOL    HW155452   5.089  11.880   1.355
17871SOL    HW255453   4.957  11.822   1.398
17872SOL     OW55454  14.193   6.972  10.914
17872SOL    HW155455  14.183   6.881  10.944
17872SOL    HW255456  14.138   7.023  10.974
17873SOL     OW55457   8.343   2.393  10.637
17873SOL    HW155458   8.282   2.361  10.571
17873SOL    HW255459   8.371   2.478  10.604
17874SOL     OW55460   9.218   8.923   3.188
17874SOL    HW155461   9.302   8.894   3.225
17874SOL    HW255462   9.234   8.927   3.093
17875SOL     OW55463   5.863   5.807   2.270
17875SOL    HW155464   5.847   5.901   2.266
17875SOL    HW255465   5.953   5.799   2.301
17876SOL     OW55466  13.657  11.203   4.355
17876SOL    HW155467  13.672  11.108   4.358
17876SOL    HW255468  13.590  11.214   4.288
17877SOL     OW55469   5.499   1.843   8.698
17877SOL    HW155470   5.473   1.916   8.642
17877SOL    HW255471   5.549   1.786   8.640
17878SOL     OW55472   4.984  11.962  10.324
17878SOL    HW155473   5.068  11.987  10.364
17878SOL    HW255474   4.946  12.044  10.294
17879SOL     OW55475  14.541   1.168   1.887
17879SOL    HW155476  14.447   1.150   1.888
17879SOL    HW255477  14.548   1.262   1.869
17880SOL     OW55478   3.554   0.391  13.286
17880SOL    HW155479   3.592   0.347  13.210
17880SOL    HW255480   3.520   0.473  13.252
17881SOL     OW55481  10.947  14.219   9.627
17881SOL    HW155482  10.915  14.282   9.563
17881SOL    HW255483  10.937  14.263   9.712
17882SOL     OW55484   0.078   5.183   3.436
17882SOL    HW155485   0.010   5.118   3.456
17882SOL    HW255486   0.033   5.248   3.381
17883SOL     OW55487   4.506   0.588  12.995
17883SOL    HW155488   4.478   0.498  13.007
17883SOL    HW255489   4.448   0.640  13.050
17884SOL     OW55490  14.180   0.674   2.846
17884SOL    HW155491  14.088   0.673   2.819
17884SOL    HW255492  14.178   0.650   2.938
17885SOL     OW55493   1.130  10.403   5.072
17885SOL    HW155494   1.087  10.470   5.018
17885SOL    HW255495   1.127  10.439   5.160
17886SOL     OW55496  12.548   2.684   4.279
17886SOL    HW155497  12.500   2.764   4.256
17886SOL    HW255498  12.527   2.668   4.371
17887SOL     OW55499   6.583  12.981  11.914
17887SOL    HW155500   6.584  12.969  11.819
17887SOL    HW255501   6.628  12.903  11.949
17888SOL     OW55502  13.352   8.447  13.991
17888SOL    HW155503  13.262   8.436  14.024
17888SOL    HW255504  13.407   8.425  14.066
17889SOL     OW55505  10.810   6.293   7.015
17889SOL    HW155506  10.720   6.264   7.031
17889SOL    HW255507  10.822   6.285   6.921
17890SOL     OW55508   3.187   3.479  14.537
17890SOL    HW155509   3.178   3.396  14.490
17890SOL    HW255510   3.144   3.463  14.621
17891SOL     OW55511   4.828   9.900  14.792
17891SOL    HW155512   4.855   9.814  14.825
17891SOL    HW255513   4.903   9.957  14.809
17892SOL     OW55514   7.507  13.787  10.790
17892SOL    HW155515   7.506  13.878  10.821
17892SOL    HW255516   7.543  13.794  10.701
17893SOL     OW55517   5.694  12.811   6.568
17893SOL    HW155518   5.747  12.760   6.630
17893SOL    HW255519   5.679  12.752   6.495
17894SOL     OW55520   7.469  10.057   1.557
17894SOL    HW155521   7.508   9.970   1.562
17894SOL    HW255522   7.531  10.114   1.602
17895SOL     OW55523   4.970  14.279   0.724
17895SOL    HW155524   4.904  14.209   0.724
17895SOL    HW255525   4.944  14.336   0.651
17896SOL     OW55526   0.467  10.938   3.895
17896SOL    HW155527   0.448  10.921   3.802
17896SOL    HW255528   0.558  10.913   3.905
17897SOL     OW55529   7.305   6.299   1.978
17897SOL    HW155530   7.334   6.232   2.040
17897SOL    HW255531   7.241   6.351   2.026
17898SOL     OW55532   7.465   3.894   9.604
17898SOL    HW155533   7.539   3.920   9.551
17898SOL    HW255534   7.430   3.816   9.561
17899SOL     OW55535   3.699   9.171   4.128
17899SOL    HW155536   3.628   9.146   4.069
17899SOL    HW255537   3.777   9.131   4.090
17900SOL     OW55538  12.015   2.068  12.475
17900SOL    HW155539  11.996   2.029  12.390
17900SOL    HW255540  12.010   2.162  12.461
17901SOL     OW55541  13.404   1.915   1.643
17901SOL    HW155542  13.340   1.844   1.651
17901SOL    HW255543  13.458   1.890   1.569
17902SOL     OW55544   2.262   9.480   5.388
17902SOL    HW155545   2.298   9.504   5.473
17902SOL    HW255546   2.313   9.531   5.325
17903SOL     OW55547  13.872   5.064   8.390
17903SOL    HW155548  13.948   5.009   8.409
17903SOL    HW255549  13.905   5.153   8.396
17904SOL     OW55550  12.069   9.140   6.032
17904SOL    HW155551  11.987   9.184   6.008
17904SOL    HW255552  12.068   9.059   5.982
17905SOL     OW55553   7.420   5.391   0.772
17905SOL    HW155554   7.390   5.434   0.692
17905SOL    HW255555   7.345   5.340   0.801
17906SOL     OW55556   2.640   4.620   7.264
17906SOL    HW155557   2.554   4.579   7.252
17906SOL    HW255558   2.656   4.668   7.183
17907SOL     OW55559   3.624   0.305  11.325
17907SOL    HW155560   3.532   0.302  11.350
17907SOL    HW255561   3.668   0.346  11.400
17908SOL     OW55562   8.228   7.161   7.893
17908SOL    HW155563   8.292   7.140   7.961
17908SOL    HW255564   8.272   7.226   7.838
17909SOL     OW55565   3.551   9.216  13.369
17909SOL    HW155566   3.537   9.283  13.302
17909SOL    HW255567   3.595   9.262  13.440
17910SOL     OW55568   1.706   1.543   2.229
17910SOL    HW155569   1.716   1.458   2.273
17910SOL    HW255570   1.661   1.521   2.147
17911SOL     OW55571   5.284  12.106  12.426
17911SOL    HW155572   5.218  12.042  12.450
17911SOL    HW255573   5.237  12.189  12.421
17912SOL     OW55574   6.091   7.502  10.391
17912SOL    HW155575   6.113   7.453  10.312
17912SOL    HW255576   6.026   7.566  10.363
17913SOL     OW55577   8.449  13.743   5.716
17913SOL    HW155578   8.381  13.762   5.652
17913SOL    HW255579   8.422  13.791   5.794
17914SOL     OW55580   5.893   9.682   9.224
17914SOL    HW155581   5.829   9.640   9.166
17914SOL    HW255582   5.963   9.617   9.233
17915SOL     OW55583   7.301  13.960   7.109
17915SOL    HW155584   7.264  13.916   7.185
17915SOL    HW255585   7.348  13.891   7.061
17916SOL     OW55586  11.946   0.176   9.913
17916SOL    HW155587  12.014   0.201   9.850
17916SOL    HW255588  11.988   0.184   9.998
17917SOL     OW55589   7.924   6.804   8.748
17917SOL    HW155590   7.899   6.715   8.771
17917SOL    HW255591   7.843   6.844   8.717
17918SOL     OW55592   4.470   8.837   8.230
17918SOL    HW155593   4.440   8.884   8.152
17918SOL    HW255594   4.565   8.847   8.230
17919SOL     OW55595   9.256   4.843   5.083
17919SOL    HW155596   9.272   4.793   5.003
17919SOL    HW255597   9.170   4.815   5.113
17920SOL     OW55598   0.587   1.942   8.845
17920SOL    HW155599   0.616   1.991   8.769
17920SOL    HW255600   0.528   1.876   8.810
17921SOL     OW55601   9.423  12.539  11.240
17921SOL    HW155602   9.464  12.454  11.224
17921SOL    HW255603   9.367  12.553  11.163
17922SOL     OW55604  14.089   3.888  13.998
17922SOL    HW155605  14.158   3.953  14.012
17922SOL    HW255606  14.118   3.839  13.921
17923SOL     OW55607   0.998   7.539   7.356
17923SOL    HW155608   0.913   7.522   7.396
17923SOL    HW255609   1.056   7.470   7.391
17924SOL     OW55610   5.708  13.323  14.665
17924SOL    HW155611   5.650  13.258  14.626
17924SOL    HW255612   5.650  13.393  14.695
17925SOL     OW55613   2.569   0.842  13.893
17925SOL    HW155614   2.624   0.768  13.867
17925SOL    HW255615   2.596   0.862  13.983
17926SOL     OW55616   0.665   3.606   1.208
17926SOL    HW155617   0.596   3.639   1.265
17926SOL    HW255618   0.739   3.665   1.223
17927SOL     OW55619   1.597   1.205  11.943
17927SOL    HW155620   1.584   1.298  11.922
17927SOL    HW255621   1.558   1.195  12.030
17928SOL     OW55622   6.427  13.153  11.447
17928SOL    HW155623   6.338  13.122  11.430
17928SOL    HW255624   6.484  13.083  11.415
17929SOL     OW55625   4.059   9.204   6.310
17929SOL    HW155626   4.013   9.263   6.251
17929SOL    HW255627   4.103   9.142   6.252
17930SOL     OW55628   7.282   8.654   4.007
17930SOL    HW155629   7.268   8.603   4.086
17930SOL    HW255630   7.363   8.618   3.969
17931SOL     OW55631   5.126   5.173   4.794
17931SOL    HW155632   5.064   5.123   4.847
17931SOL    HW255633   5.211   5.157   4.833
17932SOL     OW55634  12.881   5.939  11.265
17932SOL    HW155635  12.785   5.938  11.273
17932SOL    HW255636  12.906   5.847  11.269
17933SOL     OW55637  12.637   5.273   6.943
17933SOL    HW155638  12.671   5.282   7.032
17933SOL    HW255639  12.570   5.206   6.949
17934SOL     OW55640  13.940  10.290   2.500
17934SOL    HW155641  13.906  10.368   2.457
17934SOL    HW255642  13.881  10.220   2.472
17935SOL     OW55643   8.953  11.645  10.806
17935SOL    HW155644   9.042  11.667  10.779
17935SOL    HW255645   8.945  11.680  10.894
17936SOL     OW55646   7.300   0.160  11.250
17936SOL    HW155647   7.284   0.126  11.162
17936SOL    HW255648   7.213   0.177  11.286
17937SOL     OW55649   3.510   5.494  10.943
17937SOL    HW155650   3.566   5.472  10.869
17937SOL    HW255651   3.444   5.424  10.944
17938SOL     OW55652   9.186  10.492   8.788
17938SOL    HW155653   9.252  10.556   8.760
17938SOL    HW255654   9.107  10.544   8.803
17939SOL     OW55655   9.733   9.444   3.380
17939SOL    HW155656   9.641   9.452   3.356
17939SOL    HW255657   9.736   9.370   3.440
17940SOL     OW55658   8.078  10.744  13.367
17940SOL    HW155659   8.035  10.814  13.416
17940SOL    HW255660   8.046  10.754  13.277
17941SOL     OW55661  12.713   7.371  12.756
17941SOL    HW155662  12.638   7.419  12.791
17941SOL    HW255663  12.780   7.380  12.824
17942SOL     OW55664   5.287  13.513   8.693
17942SOL    HW155665   5.222  13.515   8.763
17942SOL    HW255666   5.265  13.435   8.642
17943SOL     OW55667  12.109   0.711   1.572
17943SOL    HW155668  12.163   0.785   1.600
17943SOL    HW255669  12.098   0.724   1.478
17944SOL     OW55670   7.806   2.999   9.956
17944SOL    HW155671   7.796   3.074   9.897
17944SOL    HW255672   7.828   2.926   9.898
17945SOL     OW55673  12.343   1.688  14.116
17945SOL    HW155674  12.258   1.675  14.158
17945SOL    HW255675  12.406   1.686  14.188
17946SOL     OW55676  14.203   7.616   6.941
17946SOL    HW155677  14.253   7.664   6.875
17946SOL    HW255678  14.118   7.659   6.943
17947SOL     OW55679   7.896   3.270   4.524
17947SOL    HW155680   7.965   3.330   4.495
17947SOL    HW255681   7.890   3.284   4.619
17948SOL     OW55682   3.544   9.679   1.374
17948SOL    HW155683   3.567   9.767   1.405
17948SOL    HW255684   3.622   9.626   1.391
17949SOL     OW55685   7.486   5.481   8.972
17949SOL    HW155686   7.390   5.482   8.963
17949SOL    HW255687   7.516   5.423   8.902
17950SOL     OW55688   0.550   3.165   2.826
17950SOL    HW155689   0.632   3.157   2.875
17950SOL    HW255690   0.500   3.230   2.875
17951SOL     OW55691  12.604   6.726   4.694
17951SOL    HW155692  12.645   6.801   4.651
17951SOL    HW255693  12.623   6.652   4.636
17952SOL     OW55694   8.534   4.514   6.445
17952SOL    HW155695   8.524   4.514   6.540
17952SOL    HW255696   8.538   4.607   6.421
17953SOL     OW55697   0.482   0.664   1.284
17953SOL    HW155698   0.393   0.636   1.262
17953SOL    HW255699   0.482   0.758   1.267
17954SOL     OW55700   4.191   1.438   0.641
17954SOL    HW155701   4.183   1.407   0.550
17954SOL    HW255702   4.181   1.360   0.694
17955SOL     OW55703   2.307   0.356   2.102
17955SOL    HW155704   2.248   0.312   2.163
17955SOL    HW255705   2.394   0.345   2.140
17956SOL     OW55706  14.607   3.401   5.865
17956SOL    HW155707  14.638   3.415   5.776
17956SOL    HW255708  14.590   3.489   5.899
17957SOL     OW55709   7.722  11.332   9.202
17957SOL    HW155710   7.703  11.307   9.292
17957SOL    HW255711   7.641  11.314   9.154
17958SOL     OW55712   2.839   0.371   1.808
17958SOL    HW155713   2.755   0.358   1.853
17958SOL    HW255714   2.855   0.465   1.814
17959SOL     OW55715   5.662   6.075  10.558
17959SOL    HW155716   5.698   6.002  10.608
17959SOL    HW255717   5.719   6.149  10.580
17960SOL     OW55718   6.590  14.023  10.328
17960SOL    HW155719   6.668  14.051  10.376
17960SOL    HW255720   6.530  14.098  10.334
17961SOL     OW55721  14.627   8.328  10.641
17961SOL    HW155722  14.660   8.375  10.717
17961SOL    HW255723  14.563   8.387  10.601
17962SOL     OW55724   5.620  11.933  11.645
17962SOL    HW155725   5.629  12.020  11.682
17962SOL    HW255726   5.543  11.939  11.588
17963SOL     OW55727   1.285   1.328   7.238
17963SOL    HW155728   1.300   1.415   7.276
17963SOL    HW255729   1.369   1.283   7.249
17964SOL     OW55730  12.047  12.978   6.180
17964SOL    HW155731  11.962  12.934   6.183
17964SOL    HW255732  12.110  12.909   6.201
17965SOL     OW55733   7.351   7.260   8.760
17965SOL    HW155734   7.305   7.334   8.719
17965SOL    HW255735   7.330   7.185   8.704
17966SOL     OW55736  14.133  13.706  10.962
17966SOL    HW155737  14.221  13.732  10.933
17966SOL    HW255738  14.142  13.697  11.057
17967SOL     OW55739   2.713   1.632  13.564
17967SOL    HW155740   2.652   1.558  13.567
17967SOL    HW255741   2.661   1.706  13.596
17968SOL     OW55742   2.457   1.556   0.361
17968SOL    HW155743   2.500   1.486   0.310
17968SOL    HW255744   2.399   1.598   0.298
17969SOL     OW55745   1.492   3.414   4.586
17969SOL    HW155746   1.406   3.450   4.564
17969SOL    HW255747   1.528   3.474   4.651
17970SOL     OW55748   4.986   0.686   5.861
17970SOL    HW155749   4.948   0.773   5.871
17970SOL    HW255750   4.959   0.639   5.940
17971SOL     OW55751   4.612  13.614   3.936
17971SOL    HW155752   4.662  13.539   3.968
17971SOL    HW255753   4.520  13.587   3.944
17972SOL     OW55754   0.916  14.502   2.590
17972SOL    HW155755   0.910  14.459   2.676
17972SOL    HW255756   0.997  14.552   2.594
17973SOL     OW55757   9.590  11.700   7.541
17973SOL    HW155758   9.546  11.704   7.456
17973SOL    HW255759   9.575  11.786   7.580
17974SOL     OW55760   1.080  13.427   8.576
17974SOL    HW155761   1.074  13.411   8.670
17974SOL    HW255762   1.052  13.518   8.565
17975SOL     OW55763   6.011   8.624   9.447
17975SOL    HW155764   6.104   8.645   9.447
17975SOL    HW255765   6.008   8.530   9.462
17976SOL     OW55766   6.302   1.968  13.017
17976SOL    HW155767   6.229   2.016  12.978
17976SOL    HW255768   6.267   1.879  13.029
17977SOL     OW55769  13.229   5.019   9.086
17977SOL    HW155770  13.296   5.075   9.125
17977SOL    HW255771  13.178   4.988   9.160
17978SOL     OW55772   4.564   1.271   8.804
17978SOL    HW155773   4.569   1.176   8.805
17978SOL    HW255774   4.528   1.294   8.890
17979SOL     OW55775   1.859   1.173   9.376
17979SOL    HW155776   1.949   1.149   9.397
17979SOL    HW255777   1.859   1.183   9.281
17980SOL     OW55778   1.038   8.075  14.195
17980SOL    HW155779   1.065   7.984  14.185
17980SOL    HW255780   1.033   8.088  14.290
17981SOL     OW55781   7.051   3.977   2.733
17981SOL    HW155782   7.060   3.897   2.681
17981SOL    HW255783   7.019   3.947   2.818
17982SOL     OW55784  11.495   4.366   2.500
17982SOL    HW155785  11.572   4.313   2.520
17982SOL    HW255786  11.486   4.426   2.574
17983SOL     OW55787  13.287   9.886   3.394
17983SOL    HW155788  13.345   9.810   3.402
17983SOL    HW255789  13.333   9.946   3.335
17984SOL     OW55790  10.049  11.623  11.983
17984SOL    HW155791  10.128  11.658  12.024
17984SOL    HW255792   9.999  11.700  11.956
17985SOL     OW55793  14.860   4.282   5.307
17985SOL    HW155794   0.024   4.364   5.283
17985SOL    HW255795  14.786   4.276   5.246
17986SOL     OW55796   6.442   7.637  12.354
17986SOL    HW155797   6.494   7.614  12.431
17986SOL    HW255798   6.470   7.575  12.287
17987SOL     OW55799   3.414   5.907   1.132
17987SOL    HW155800   3.334   5.934   1.087
17987SOL    HW255801   3.443   5.829   1.085
17988SOL     OW55802  14.362  14.599   7.607
17988SOL    HW155803  14.289  14.571   7.662
17988SOL    HW255804  14.394  14.519   7.566
17989SOL     OW55805   0.155   0.583   2.664
17989SOL    HW155806   0.065   0.596   2.636
17989SOL    HW255807   0.191   0.672   2.670
17990SOL     OW55808   2.174   3.176   6.884
17990SOL    HW155809   2.108   3.145   6.946
17990SOL    HW255810   2.152   3.268   6.869
17991SOL     OW55811   4.571   3.665   1.170
17991SOL    HW155812   4.643   3.673   1.232
17991SOL    HW255813   4.493   3.660   1.225
17992SOL     OW55814  10.614   4.452   0.549
17992SOL    HW155815  10.664   4.375   0.524
17992SOL    HW255816  10.624   4.512   0.475
17993SOL     OW55817   6.252   5.236   8.094
17993SOL    HW155818   6.191   5.162   8.103
17993SOL    HW255819   6.283   5.230   8.003
17994SOL     OW55820   0.274   9.721  11.094
17994SOL    HW155821   0.213   9.706  11.022
17994SOL    HW255822   0.311   9.635  11.113
17995SOL     OW55823  11.264   6.370   1.512
17995SOL    HW155824  11.302   6.449   1.474
17995SOL    HW255825  11.177   6.364   1.471
17996SOL     OW55826   4.569   2.270  12.810
17996SOL    HW155827   4.658   2.268  12.846
17996SOL    HW255828   4.542   2.178  12.808
17997SOL     OW55829   4.901  14.014   2.585
17997SOL    HW155830   4.985  13.998   2.542
17997SOL    HW255831   4.917  13.997   2.677
17998SOL     OW55832   3.430   1.839   9.298
17998SOL    HW155833   3.490   1.845   9.223
17998SOL    HW255834   3.407   1.746   9.303
17999SOL     OW55835   0.865   5.406  10.391
17999SOL    HW155836   0.870   5.324  10.441
17999SOL    HW255837   0.954   5.418  10.356
18000SOL     OW55838   4.047  13.733   7.339
18000SOL    HW155839   4.023  13.652   7.383
18000SOL    HW255840   3.967  13.761   7.294
18001SOL     OW55841   5.447   3.895  13.337
18001SOL    HW155842   5.541   3.907  13.325
18001SOL    HW255843   5.440   3.848  13.420
18002SOL     OW55844   0.453   5.082   0.752
18002SOL    HW155845   0.547   5.082   0.736
18002SOL    HW255846   0.424   4.995   0.726
18003SOL     OW55847   2.195   6.343   5.288
18003SOL    HW155848   2.211   6.255   5.256
18003SOL    HW255849   2.107   6.339   5.326
18004SOL     OW55850   7.204  13.097   6.206
18004SOL    HW155851   7.241  13.055   6.129
18004SOL    HW255852   7.278  13.112   6.264
18005SOL     OW55853  12.315  12.374  12.776
18005SOL    HW155854  12.403  12.351  12.745
18005SOL    HW255855  12.292  12.304  12.838
18006SOL     OW55856   4.910  14.152   8.693
18006SOL    HW155857   4.882  14.108   8.774
18006SOL    HW255858   4.861  14.109   8.624
18007SOL     OW55859   0.546   7.565   6.269
18007SOL    HW155860   0.496   7.525   6.198
18007SOL    HW255861   0.624   7.601   6.227
18008SOL     OW55862   8.934   9.378   4.549
18008SOL    HW155863   8.916   9.463   4.509
18008SOL    HW255864   8.916   9.314   4.480
18009SOL     OW55865   7.664  11.464  11.672
18009SOL    HW155866   7.744  11.456  11.723
18009SOL    HW255867   7.644  11.375  11.642
18010SOL     OW55868  13.572  11.537  12.231
18010SOL    HW155869  13.537  11.612  12.279
18010SOL    HW255870  13.494  11.486  12.207
18011SOL     OW55871  11.169   0.674   4.611
18011SOL    HW155872  11.255   0.647   4.646
18011SOL    HW255873  11.180   0.671   4.516
18012SOL     OW55874  12.775  10.833   0.580
18012SOL    HW155875  12.856  10.881   0.565
18012SOL    HW255876  12.802  10.741   0.581
18013SOL     OW55877   0.090   6.664  11.888
18013SOL    HW155878   0.085   6.757  11.913
18013SOL    HW255879   0.164   6.661  11.826
18014SOL     OW55880   9.030   3.813  13.505
18014SOL    HW155881   9.086   3.838  13.431
18014SOL    HW255882   8.982   3.736  13.473
18015SOL     OW55883   3.346   3.227   3.646
18015SOL    HW155884   3.426   3.199   3.691
18015SOL    HW255885   3.276   3.176   3.687
18016SOL     OW55886  14.335  14.387   0.751
18016SOL    HW155887  14.319  14.369   0.658
18016SOL    HW255888  14.385  14.469   0.751
18017SOL     OW55889  11.058   1.221   6.492
18017SOL    HW155890  11.043   1.178   6.577
18017SOL    HW255891  11.143   1.264   6.502
18018SOL     OW55892   4.161   1.107   6.513
18018SOL    HW155893   4.110   1.045   6.461
18018SOL    HW255894   4.128   1.098   6.602
18019SOL     OW55895  14.358  10.473   3.178
18019SOL    HW155896  14.314  10.540   3.230
18019SOL    HW255897  14.364  10.511   3.090
18020SOL     OW55898   5.428   4.901   9.927
18020SOL    HW155899   5.446   4.838   9.997
18020SOL    HW255900   5.387   4.975   9.972
18021SOL     OW55901   0.274   8.977  13.363
18021SOL    HW155902   0.231   9.012  13.441
18021SOL    HW255903   0.358   8.943  13.395
18022SOL     OW55904   5.856   3.292   9.529
18022SOL    HW155905   5.839   3.379   9.564
18022SOL    HW255906   5.950   3.280   9.541
18023SOL     OW55907   0.971   5.573   2.336
18023SOL    HW155908   1.048   5.617   2.373
18023SOL    HW255909   1.006   5.491   2.300
18024SOL     OW55910   5.201  11.869  14.482
18024SOL    HW155911   5.266  11.907  14.423
18024SOL    HW255912   5.153  11.806  14.428
18025SOL     OW55913  12.267  14.457  11.873
18025SOL    HW155914  12.178  14.493  11.881
18025SOL    HW255915  12.265  14.378  11.926
18026SOL     OW55916  13.153   0.266  12.587
18026SOL    HW155917  13.074   0.224  12.619
18026SOL    HW255918  13.210   0.193  12.561
18027SOL     OW55919   1.195   9.413   7.784
18027SOL    HW155920   1.208   9.507   7.796
18027SOL    HW255921   1.100   9.403   7.773
18028SOL     OW55922   0.247   0.090  14.844
18028SOL    HW155923   0.200   0.084   0.048
18028SOL    HW255924   0.191   0.146  14.789
18029SOL     OW55925   0.848   0.109   4.260
18029SOL    HW155926   0.758   0.084   4.237
18029SOL    HW255927   0.855   0.092   4.354
18030SOL     OW55928   8.805  10.210   8.628
18030SOL    HW155929   8.834  10.300   8.641
18030SOL    HW255930   8.826  10.165   8.710
18031SOL     OW55931   3.952  10.742   8.969
18031SOL    HW155932   4.046  10.750   8.956
18031SOL    HW255933   3.929  10.658   8.930
18032SOL     OW55934   8.203   3.761   7.955
18032SOL    HW155935   8.255   3.724   7.883
18032SOL    HW255936   8.198   3.854   7.936
18033SOL     OW55937   5.740   9.186   4.402
18033SOL    HW155938   5.735   9.117   4.337
18033SOL    HW255939   5.662   9.174   4.457
18034SOL     OW55940   0.844   6.374  10.898
18034SOL    HW155941   0.875   6.296  10.853
18034SOL    HW255942   0.763   6.347  10.941
18035SOL     OW55943  14.595   1.197   4.784
18035SOL    HW155944  14.519   1.139   4.781
18035SOL    HW255945  14.563   1.274   4.832
18036SOL     OW55946   0.029  11.015   0.379
18036SOL    HW155947   0.079  10.934   0.392
18036SOL    HW255948   0.087  11.084   0.413
18037SOL     OW55949   5.590   0.252  11.624
18037SOL    HW155950   5.662   0.300  11.582
18037SOL    HW255951   5.620   0.161  11.624
18038SOL     OW55952   7.565  11.979   7.993
18038SOL    HW155953   7.555  11.991   8.087
18038SOL    HW255954   7.619  12.053   7.965
18039SOL     OW55955   4.725   0.736  14.426
18039SOL    HW155956   4.763   0.797  14.489
18039SOL    HW255957   4.796   0.718  14.364
18040SOL     OW55958   2.761   0.648   8.179
18040SOL    HW155959   2.740   0.673   8.269
18040SOL    HW255960   2.797   0.559   8.187
18041SOL     OW55961   0.162   3.153   2.487
18041SOL    HW155962   0.111   3.231   2.510
18041SOL    HW255963   0.253   3.182   2.491
18042SOL     OW55964   2.207   2.105   1.843
18042SOL    HW155965   2.228   2.129   1.753
18042SOL    HW255966   2.141   2.036   1.835
18043SOL     OW55967   8.967  13.203   0.629
18043SOL    HW155968   9.017  13.161   0.559
18043SOL    HW255969   8.947  13.290   0.595
18044SOL     OW55970  12.176  11.572  13.576
18044SOL    HW155971  12.141  11.656  13.548
18044SOL    HW255972  12.247  11.594  13.637
18045SOL     OW55973   8.402   5.104  13.070
18045SOL    HW155974   8.349   5.027  13.046
18045SOL    HW255975   8.492   5.073  13.066
18046SOL     OW55976   2.809  12.322   1.073
18046SOL    HW155977   2.814  12.249   1.135
18046SOL    HW255978   2.793  12.399   1.128
18047SOL     OW55979  10.452   5.365   7.199
18047SOL    HW155980  10.441   5.433   7.132
18047SOL    HW255981  10.512   5.404   7.263
18048SOL     OW55982   5.772   0.417  13.874
18048SOL    HW155983   5.826   0.444  13.948
18048SOL    HW255984   5.783   0.322  13.869
18049SOL     OW55985   7.888   4.800   0.833
18049SOL    HW155986   7.881   4.853   0.912
18049SOL    HW255987   7.947   4.850   0.776
18050SOL     OW55988   3.434   5.242  10.514
18050SOL    HW155989   3.396   5.273  10.596
18050SOL    HW255990   3.524   5.217  10.537
18051SOL     OW55991   5.504  12.569  13.330
18051SOL    HW155992   5.584  12.536  13.373
18051SOL    HW255993   5.536  12.621  13.256
18052SOL     OW55994  11.872   3.044  11.024
18052SOL    HW155995  11.850   2.955  11.053
18052SOL    HW255996  11.810   3.100  11.071
18053SOL     OW55997   2.725   8.664   5.398
18053SOL    HW155998   2.710   8.758   5.390
18053SOL    HW255999   2.658   8.625   5.342
18054SOL     OW56000   9.083   7.682  11.637
18054SOL    HW156001   9.128   7.750  11.588
18054SOL    HW256002   8.993   7.714  11.646
18055SOL     OW56003   6.250  11.526   3.973
18055SOL    HW156004   6.294  11.605   3.939
18055SOL    HW256005   6.265  11.460   3.905
18056SOL     OW56006  11.393   5.042   6.680
18056SOL    HW156007  11.419   4.951   6.693
18056SOL    HW256008  11.297   5.040   6.686
18057SOL     OW56009  14.738   6.248   7.591
18057SOL    HW156010  14.823   6.287   7.614
18057SOL    HW256011  14.705   6.303   7.520
18058SOL     OW56012   5.436   4.882  13.392
18058SOL    HW156013   5.360   4.937  13.377
18058SOL    HW256014   5.483   4.882  13.309
18059SOL     OW56015  11.730  13.070   2.567
18059SOL    HW156016  11.683  13.140   2.521
18059SOL    HW256017  11.662  13.005   2.586
18060SOL     OW56018   9.285   9.026  10.047
18060SOL    HW156019   9.312   9.094  10.109
18060SOL    HW256020   9.351   9.030   9.977
18061SOL     OW56021   9.217  11.936  14.198
18061SOL    HW156022   9.179  11.919  14.112
18061SOL    HW256023   9.156  11.897  14.260
18062SOL     OW56024  14.633   0.205   3.495
18062SOL    HW156025  14.589   0.239   3.573
18062SOL    HW256026  14.562   0.183   3.435
18063SOL     OW56027   8.232   1.744   9.624
18063SOL    HW156028   8.243   1.767   9.531
18063SOL    HW256029   8.160   1.799   9.653
18064SOL     OW56030  14.740   4.045   2.176
18064SOL    HW156031  14.653   4.005   2.179
18064SOL    HW256032  14.723   4.139   2.166
18065SOL     OW56033  12.596   6.741  11.570
18065SOL    HW156034  12.524   6.794  11.537
18065SOL    HW256035  12.557   6.655  11.588
18066SOL     OW56036   8.785   7.355   0.575
18066SOL    HW156037   8.705   7.393   0.539
18066SOL    HW256038   8.776   7.261   0.561
18067SOL     OW56039  10.809  10.629   9.302
18067SOL    HW156040  10.796  10.715   9.262
18067SOL    HW256041  10.779  10.566   9.236
18068SOL     OW56042  13.909   6.906  12.844
18068SOL    HW156043  13.994   6.934  12.877
18068SOL    HW256044  13.927   6.877  12.754
18069SOL     OW56045  13.172   5.297  13.300
18069SOL    HW156046  13.240   5.286  13.367
18069SOL    HW256047  13.201   5.243  13.227
18070SOL     OW56048  14.045   6.610  10.016
18070SOL    HW156049  14.076   6.585   9.929
18070SOL    HW256050  14.123   6.605  10.071
18071SOL     OW56051  13.468   4.512   2.800
18071SOL    HW156052  13.430   4.566   2.731
18071SOL    HW256053  13.512   4.441   2.754
18072SOL     OW56054  12.875   2.790  12.049
18072SOL    HW156055  12.855   2.700  12.026
18072SOL    HW256056  12.834   2.803  12.134
18073SOL     OW56057   7.804   8.480  13.681
18073SOL    HW156058   7.776   8.389  13.669
18073SOL    HW256059   7.788   8.521  13.596
18074SOL     OW56060   0.341  14.777   0.565
18074SOL    HW156061   0.255  14.814   0.585
18074SOL    HW256062   0.396  14.799   0.640
18075SOL     OW56063  12.810   5.733   4.779
18075SOL    HW156064  12.887   5.748   4.834
18075SOL    HW256065  12.845   5.729   4.689
18076SOL     OW56066   2.545   5.192  10.894
18076SOL    HW156067   2.460   5.191  10.937
18076SOL    HW256068   2.605   5.227  10.960
18077SOL     OW56069   4.725   9.242   8.102
18077SOL    HW156070   4.775   9.313   8.061
18077SOL    HW256071   4.786   9.168   8.105
18078SOL     OW56072   1.546   7.341  10.141
18078SOL    HW156073   1.508   7.319  10.056
18078SOL    HW256074   1.495   7.416  10.171
18079SOL     OW56075   9.175   1.067   6.081
18079SOL    HW156076   9.155   1.069   6.175
18079SOL    HW256077   9.216   0.982   6.068
18080SOL     OW56078  11.572   1.476  13.165
18080SOL    HW156079  11.517   1.529  13.222
18080SOL    HW256080  11.569   1.388  13.203
18081SOL     OW56081   0.778   0.530   2.314
18081SOL    HW156082   0.764   0.591   2.242
18081SOL    HW256083   0.853   0.566   2.361
18082SOL     OW56084   7.591   7.581  11.522
18082SOL    HW156085   7.610   7.499  11.566
18082SOL    HW256086   7.547   7.634  11.588
18083SOL     OW56087  12.235   8.382   5.754
18083SOL    HW156088  12.290   8.457   5.777
18083SOL    HW256089  12.261   8.361   5.664
18084SOL     OW56090   5.970   1.462   7.568
18084SOL    HW156091   5.950   1.553   7.591
18084SOL    HW256092   6.037   1.469   7.500
18085SOL     OW56093  10.152   6.785  14.079
18085SOL    HW156094  10.158   6.856  14.016
18085SOL    HW256095  10.150   6.706  14.025
18086SOL     OW56096   9.615  12.132   2.257
18086SOL    HW156097   9.659  12.107   2.338
18086SOL    HW256098   9.536  12.178   2.287
18087SOL     OW56099  13.512   0.832   4.881
18087SOL    HW156100  13.459   0.770   4.931
18087SOL    HW256101  13.449   0.875   4.822
18088SOL     OW56102   5.475  12.320   3.577
18088SOL    HW156103   5.473  12.228   3.553
18088SOL    HW256104   5.395  12.356   3.539
18089SOL     OW56105   6.352   5.280   0.479
18089SOL    HW156106   6.425   5.335   0.509
18089SOL    HW256107   6.317   5.240   0.559
18090SOL     OW56108  11.140   7.489   0.915
18090SOL    HW156109  11.057   7.458   0.951
18090SOL    HW256110  11.173   7.416   0.863
18091SOL     OW56111   2.439  13.573  10.446
18091SOL    HW156112   2.461  13.502  10.507
18091SOL    HW256113   2.347  13.560  10.426
18092SOL     OW56114   4.179   7.466   3.377
18092SOL    HW156115   4.174   7.377   3.343
18092SOL    HW256116   4.088   7.492   3.390
18093SOL     OW56117   5.730  13.613   7.255
18093SOL    HW156118   5.675  13.646   7.325
18093SOL    HW256119   5.755  13.691   7.205
18094SOL     OW56120   2.056  10.370   6.131
18094SOL    HW156121   1.974  10.325   6.149
18094SOL    HW256122   2.075  10.349   6.039
18095SOL     OW56123   8.548  11.163   8.846
18095SOL    HW156124   8.575  11.076   8.875
18095SOL    HW256125   8.627  11.216   8.850
18096SOL     OW56126   3.484   7.080   9.013
18096SOL    HW156127   3.471   7.158   8.959
18096SOL    HW256128   3.526   7.113   9.092
18097SOL     OW56129   9.664  11.492   1.398
18097SOL    HW156130   9.679  11.582   1.426
18097SOL    HW256131   9.735  11.475   1.335
18098SOL     OW56132  12.460  10.550  14.238
18098SOL    HW156133  12.435  10.504  14.159
18098SOL    HW256134  12.405  10.628  14.239
18099SOL     OW56135  13.531  12.600   3.320
18099SOL    HW156136  13.497  12.663   3.257
18099SOL    HW256137  13.621  12.584   3.293
18100SOL     OW56138   1.153   7.300  12.204
18100SOL    HW156139   1.182   7.373  12.258
18100SOL    HW256140   1.191   7.222  12.246
18101SOL     OW56141  10.512   3.046   6.084
18101SOL    HW156142  10.528   2.952   6.084
18101SOL    HW256143  10.541   3.076   6.170
18102SOL     OW56144   8.164   8.944  13.508
18102SOL    HW156145   8.123   8.972  13.427
18102SOL    HW256146   8.194   8.855  13.491
18103SOL     OW56147   8.145   1.938  12.149
18103SOL    HW156148   8.201   1.882  12.096
18103SOL    HW256149   8.139   1.894  12.234
18104SOL     OW56150   3.166   3.300   5.448
18104SOL    HW156151   3.243   3.313   5.503
18104SOL    HW256152   3.171   3.370   5.383
18105SOL     OW56153   0.575  13.537   5.527
18105SOL    HW156154   0.500  13.496   5.484
18105SOL    HW256155   0.649  13.480   5.506
18106SOL     OW56156   3.216  12.252   2.125
18106SOL    HW156157   3.274  12.301   2.067
18106SOL    HW256158   3.244  12.279   2.213
18107SOL     OW56159  14.399  10.061   4.102
18107SOL    HW156160  14.427  10.120   4.031
18107SOL    HW256161  14.467  10.071   4.169
18108SOL     OW56162   8.052  12.646   2.033
18108SOL    HW156163   8.116  12.583   2.064
18108SOL    HW256164   8.050  12.634   1.938
18109SOL     OW56165  10.427   5.997   0.819
18109SOL    HW156166  10.520   5.995   0.797
18109SOL    HW256167  10.424   5.987   0.914
18110SOL     OW56168   8.642  12.720   4.799
18110SOL    HW156169   8.589  12.681   4.868
18110SOL    HW256170   8.732  12.714   4.832
18111SOL     OW56171   3.891   9.583  12.617
18111SOL    HW156172   3.960   9.544  12.670
18111SOL    HW256173   3.872   9.517  12.550
18112SOL     OW56174   5.638   0.955  10.744
18112SOL    HW156175   5.631   1.043  10.781
18112SOL    HW256176   5.717   0.959  10.690
18113SOL     OW56177   4.447  11.395   7.883
18113SOL    HW156178   4.497  11.354   7.954
18113SOL    HW256179   4.378  11.331   7.863
18114SOL     OW56180   8.636  10.748  11.225
18114SOL    HW156181   8.596  10.665  11.199
18114SOL    HW256182   8.650  10.740  11.319
18115SOL     OW56183  10.441  14.807   6.121
18115SOL    HW156184  10.498  14.874   6.083
18115SOL    HW256185  10.418  14.750   6.048
18116SOL     OW56186   7.143  12.409  13.342
18116SOL    HW156187   7.080  12.448  13.403
18116SOL    HW256188   7.103  12.421  13.256
18117SOL     OW56189   8.949   5.778   2.582
18117SOL    HW156190   8.854   5.773   2.577
18117SOL    HW256191   8.969   5.871   2.587
18118SOL     OW56192   6.213   2.013   0.743
18118SOL    HW156193   6.196   1.921   0.764
18118SOL    HW256194   6.275   2.041   0.811
18119SOL     OW56195  14.537   4.448   9.586
18119SOL    HW156196  14.452   4.413   9.612
18119SOL    HW256197  14.519   4.538   9.559
18120SOL     OW56198  13.069  11.510   0.382
18120SOL    HW156199  13.113  11.551   0.457
18120SOL    HW256200  13.135  11.511   0.313
18121SOL     OW56201  10.445  14.413   1.603
18121SOL    HW156202  10.450  14.366   1.686
18121SOL    HW256203  10.394  14.492   1.625
18122SOL     OW56204  14.189  14.168   8.193
18122SOL    HW156205  14.266  14.133   8.148
18122SOL    HW256206  14.115  14.141   8.138
18123SOL     OW56207  12.121   4.364   5.247
18123SOL    HW156208  12.128   4.426   5.175
18123SOL    HW256209  12.119   4.418   5.326
18124SOL     OW56210   3.359   0.944   5.161
18124SOL    HW156211   3.339   0.994   5.081
18124SOL    HW256212   3.288   0.881   5.168
18125SOL     OW56213   0.149   2.424  13.371
18125SOL    HW156214   0.091   2.418  13.296
18125SOL    HW256215   0.104   2.482  13.432
18126SOL     OW56216  10.464   8.252  11.798
18126SOL    HW156217  10.534   8.188  11.812
18126SOL    HW256218  10.477   8.284  11.709
18127SOL     OW56219   5.325   1.882  10.847
18127SOL    HW156220   5.237   1.845  10.847
18127SOL    HW256221   5.366   1.845  10.925
18128SOL     OW56222  10.983   4.851   1.161
18128SOL    HW156223  10.949   4.927   1.208
18128SOL    HW256224  10.913   4.828   1.100
18129SOL     OW56225   4.399   1.994   9.840
18129SOL    HW156226   4.462   2.066   9.845
18129SOL    HW256227   4.314   2.037   9.833
18130SOL     OW56228  10.454   3.702  11.463
18130SOL    HW156229  10.434   3.676  11.553
18130SOL    HW256230  10.542   3.668  11.447
18131SOL     OW56231   1.475   7.675   9.260
18131SOL    HW156232   1.496   7.724   9.181
18131SOL    HW256233   1.502   7.731   9.332
18132SOL     OW56234  12.668   6.938  10.084
18132SOL    HW156235  12.684   6.956  10.177
18132SOL    HW256236  12.573   6.927  10.079
18133SOL     OW56237   2.302  13.451  12.812
18133SOL    HW156238   2.358  13.476  12.885
18133SOL    HW256239   2.362  13.447  12.737
18134SOL     OW56240  12.482   7.885   9.844
18134SOL    HW156241  12.453   7.896   9.753
18134SOL    HW256242  12.403   7.856   9.890
18135SOL     OW56243  14.160  13.175   5.475
18135SOL    HW156244  14.072  13.185   5.439
18135SOL    HW256245  14.181  13.261   5.510
18136SOL     OW56246   5.282   3.869  13.092
18136SOL    HW156247   5.331   3.867  13.175
18136SOL    HW256248   5.226   3.946  13.099
18137SOL     OW56249   2.844  11.766  12.112
18137SOL    HW156250   2.785  11.725  12.175
18137SOL    HW256251   2.909  11.698  12.093
18138SOL     OW56252  10.697   9.157   2.089
18138SOL    HW156253  10.786   9.192   2.088
18138SOL    HW256254  10.651   9.204   2.020
18139SOL     OW56255  14.498  12.598  12.763
18139SOL    HW156256  14.554  12.527  12.733
18139SOL    HW256257  14.526  12.614  12.854
18140SOL     OW56258   0.139   5.958   0.790
18140SOL    HW156259   0.144   6.039   0.740
18140SOL    HW256260   0.222   5.914   0.772
18141SOL     OW56261  14.403  14.801   7.191
18141SOL    HW156262  14.415   0.009   7.155
18141SOL    HW256263  14.367  14.815   7.278
18142SOL     OW56264  13.780   2.447  11.925
18142SOL    HW156265  13.811   2.358  11.939
18142SOL    HW256266  13.859   2.501  11.930
18143SOL     OW56267   6.064  13.145  12.578
18143SOL    HW156268   6.160  13.140  12.568
18143SOL    HW256269   6.046  13.239  12.582
18144SOL     OW56270  14.738  13.482   9.859
18144SOL    HW156271  14.803  13.452   9.795
18144SOL    HW256272  14.659  13.431   9.837
18145SOL     OW56273   6.826   5.870   1.477
18145SOL    HW156274   6.772   5.796   1.504
18145SOL    HW256275   6.904   5.865   1.533
18146SOL     OW56276  11.410  10.141   7.597
18146SOL    HW156277  11.436  10.108   7.683
18146SOL    HW256278  11.371  10.065   7.553
18147SOL     OW56279   5.752  10.553   9.262
18147SOL    HW156280   5.671  10.546   9.211
18147SOL    HW256281   5.811  10.602   9.205
18148SOL     OW56282   2.096   0.894  13.221
18148SOL    HW156283   2.129   0.920  13.135
18148SOL    HW256284   2.003   0.877  13.207
18149SOL     OW56285  14.277   6.198   7.763
18149SOL    HW156286  14.205   6.253   7.732
18149SOL    HW256287  14.276   6.122   7.705
18150SOL     OW56288   0.648   5.480   3.149
18150SOL    HW156289   0.572   5.425   3.169
18150SOL    HW256290   0.640   5.499   3.055
18151SOL     OW56291   3.707  10.578   2.495
18151SOL    HW156292   3.779  10.560   2.556
18151SOL    HW256293   3.635  10.524   2.527
18152SOL     OW56294  10.118   4.840   1.693
18152SOL    HW156295  10.103   4.925   1.651
18152SOL    HW256296  10.212   4.825   1.685
18153SOL     OW56297  14.417   2.628   9.578
18153SOL    HW156298  14.431   2.572   9.654
18153SOL    HW256299  14.501   2.674   9.566
18154SOL     OW56300   4.530  10.371  14.201
18154SOL    HW156301   4.464  10.439  14.217
18154SOL    HW256302   4.483  10.289  14.216
18155SOL     OW56303   5.365  11.247  12.363
18155SOL    HW156304   5.407  11.250  12.277
18155SOL    HW256305   5.438  11.247  12.426
18156SOL     OW56306  10.148   0.251   2.751
18156SOL    HW156307  10.056   0.243   2.726
18156SOL    HW256308  10.147   0.259   2.846
18157SOL     OW56309  10.168   9.025   7.879
18157SOL    HW156310  10.129   9.035   7.792
18157SOL    HW256311  10.093   9.013   7.937
18158SOL     OW56312  12.448   0.854   3.078
18158SOL    HW156313  12.372   0.900   3.113
18158SOL    HW256314  12.484   0.913   3.012
18159SOL     OW56315   7.161   0.960   5.910
18159SOL    HW156316   7.183   1.044   5.870
18159SOL    HW256317   7.189   0.895   5.845
18160SOL     OW56318  10.543  12.873  11.586
18160SOL    HW156319  10.562  12.877  11.680
18160SOL    HW256320  10.554  12.781  11.563
18161SOL     OW56321   7.925   6.545   8.817
18161SOL    HW156322   8.015   6.548   8.849
18161SOL    HW256323   7.878   6.492   8.882
18162SOL     OW56324   9.748   9.087   3.306
18162SOL    HW156325   9.665   9.109   3.349
18162SOL    HW256326   9.810   9.075   3.379
18163SOL     OW56327   8.554  11.609  11.783
18163SOL    HW156328   8.492  11.547  11.821
18163SOL    HW256329   8.640  11.572  11.800
18164SOL     OW56330   6.699  10.910  10.043
18164SOL    HW156331   6.613  10.879  10.071
18164SOL    HW256332   6.749  10.831  10.025
18165SOL     OW56333  14.805   1.996   2.537
18165SOL    HW156334  14.798   1.934   2.464
18165SOL    HW256335   0.020   2.008   2.549
18166SOL     OW56336  12.331   6.096   1.962
18166SOL    HW156337  12.263   6.063   1.904
18166SOL    HW256338  12.285   6.126   2.040
18167SOL     OW56339  13.453   8.009   2.603
18167SOL    HW156340  13.430   7.925   2.566
18167SOL    HW256341  13.506   7.988   2.680
18168SOL     OW56342  14.178  13.295   4.268
18168SOL    HW156343  14.123  13.350   4.213
18168SOL    HW256344  14.156  13.321   4.358
18169SOL     OW56345  12.519  10.800   0.630
18169SOL    HW156346  12.518  10.729   0.694
18169SOL    HW256347  12.612  10.814   0.611
18170SOL     OW56348  10.545   1.106   0.505
18170SOL    HW156349  10.544   1.104   0.410
18170SOL    HW256350  10.618   1.164   0.528
18171SOL     OW56351  10.923   2.582   9.532
18171SOL    HW156352  10.974   2.572   9.612
18171SOL    HW256353  10.849   2.636   9.558
18172SOL     OW56354   9.818  10.557   2.472
18172SOL    HW156355   9.737  10.572   2.521
18172SOL    HW256356   9.881  10.530   2.538
18173SOL     OW56357   3.498  14.449   9.298
18173SOL    HW156358   3.584  14.470   9.333
18173SOL    HW256359   3.491  14.353   9.305
18174SOL     OW56360  11.923  11.891   6.887
18174SOL    HW156361  11.956  11.812   6.930
18174SOL    HW256362  11.869  11.934   6.954
18175SOL     OW56363   3.427   0.325  12.770
18175SOL    HW156364   3.404   0.271  12.695
18175SOL    HW256365   3.343   0.342  12.815
18176SOL     OW56366   5.746  13.195   6.909
18176SOL    HW156367   5.776  13.108   6.933
18176SOL    HW256368   5.747  13.245   6.991
18177SOL     OW56369  12.322   7.796  14.630
18177SOL    HW156370  12.250   7.788  14.569
18177SOL    HW256371  12.397   7.821  14.576
18178SOL     OW56372   5.078   7.189  10.235
18178SOL    HW156373   5.123   7.260  10.190
18178SOL    HW256374   4.986   7.217  10.239
18179SOL     OW56375   7.847  12.030  11.116
18179SOL    HW156376   7.837  12.002  11.026
18179SOL    HW256377   7.933  11.996  11.143
18180SOL     OW56378  11.088   5.044  10.503
18180SOL    HW156379  11.079   5.139  10.495
18180SOL    HW256380  11.180   5.026  10.485
18181SOL     OW56381  14.314  14.878   9.060
18181SOL    HW156382  14.286  14.809   8.999
18181SOL    HW256383  14.233   0.047   9.079
18182SOL     OW56384  13.222   6.208   6.814
18182SOL    HW156385  13.142   6.155   6.827
18182SOL    HW256386  13.277   6.185   6.889
18183SOL     OW56387   2.308   8.688  14.771
18183SOL    HW156388   2.354   8.766  14.741
18183SOL    HW256389   2.224   8.691  14.725
18184SOL     OW56390  12.760  11.216   7.945
18184SOL    HW156391  12.682  11.271   7.955
18184SOL    HW256392  12.806  11.253   7.870
18185SOL     OW56393   4.588   6.531  11.567
18185SOL    HW156394   4.649   6.571  11.505
18185SOL    HW256395   4.634   6.532  11.651
18186SOL     OW56396  14.654   6.034   3.869
18186SOL    HW156397  14.655   6.111   3.812
18186SOL    HW256398  14.722   6.052   3.934
18187SOL     OW56399   6.886  14.871  10.572
18187SOL    HW156400   6.931  14.794  10.536
18187SOL    HW256401   6.955   0.041  10.616
18188SOL     OW56402   3.963  12.185   3.024
18188SOL    HW156403   4.050  12.183   3.066
18188SOL    HW256404   3.957  12.100   2.980
18189SOL     OW56405  11.964  12.577   0.419
18189SOL    HW156406  11.914  12.657   0.401
18189SOL    HW256407  11.897  12.510   0.437
18190SOL     OW56408   5.829   8.623   5.575
18190SOL    HW156409   5.914   8.619   5.618
18190SOL    HW256410   5.817   8.536   5.537
18191SOL     OW56411   2.580  10.509   5.850
18191SOL    HW156412   2.623  10.593   5.867
18191SOL    HW256413   2.495  10.517   5.894
18192SOL     OW56414   1.962  12.973   2.228
18192SOL    HW156415   1.972  13.067   2.213
18192SOL    HW256416   1.919  12.941   2.149
18193SOL     OW56417  12.130   2.647   1.374
18193SOL    HW156418  12.100   2.560   1.346
18193SOL    HW256419  12.064   2.675   1.437
18194SOL     OW56420  10.942  11.618  12.651
18194SOL    HW156421  11.030  11.653  12.665
18194SOL    HW256422  10.885  11.681  12.694
18195SOL     OW56423  12.690  12.674   5.897
18195SOL    HW156424  12.694  12.713   5.810
18195SOL    HW256425  12.661  12.584   5.882
18196SOL     OW56426   6.280   1.183  10.118
18196SOL    HW156427   6.202   1.189  10.172
18196SOL    HW256428   6.323   1.102  10.145
18197SOL     OW56429  12.444   5.769  13.050
18197SOL    HW156430  12.365   5.751  12.999
18197SOL    HW256431  12.515   5.733  12.997
18198SOL     OW56432   0.460   1.865  14.088
18198SOL    HW156433   0.465   1.866  13.993
18198SOL    HW256434   0.551   1.857  14.117
18199SOL     OW56435   5.641   3.391   9.789
18199SOL    HW156436   5.599   3.305   9.784
18199SOL    HW256437   5.576   3.447   9.832
18200SOL     OW56438   6.482   4.438   6.166
18200SOL    HW156439   6.535   4.507   6.125
18200SOL    HW256440   6.488   4.364   6.105
18201SOL     OW56441  12.203   1.317   1.778
18201SOL    HW156442  12.222   1.405   1.812
18201SOL    HW256443  12.234   1.258   1.846
18202SOL     OW56444   2.187   0.906  11.997
18202SOL    HW156445   2.150   0.977  11.945
18202SOL    HW256446   2.156   0.923  12.086
18203SOL     OW56447  11.106   0.579   2.141
18203SOL    HW156448  11.027   0.580   2.195
18203SOL    HW256449  11.074   0.594   2.052
18204SOL     OW56450   9.167   2.966   1.487
18204SOL    HW156451   9.098   3.007   1.538
18204SOL    HW256452   9.135   2.969   1.397
18205SOL     OW56453   2.695   9.537   4.894
18205SOL    HW156454   2.712   9.629   4.912
18205SOL    HW256455   2.611   9.537   4.846
18206SOL     OW56456   8.040   4.696  11.103
18206SOL    HW156457   8.008   4.662  11.020
18206SOL    HW256458   8.008   4.786  11.106
18207SOL     OW56459   9.103   0.795   2.418
18207SOL    HW156460   9.150   0.851   2.480
18207SOL    HW256461   9.123   0.831   2.332
18208SOL     OW56462   2.264   6.856   4.795
18208SOL    HW156463   2.298   6.892   4.877
18208SOL    HW256464   2.254   6.762   4.811
18209SOL     OW56465   9.041  10.900   9.683
18209SOL    HW156466   9.037  10.859   9.596
18209SOL    HW256467   8.992  10.981   9.673
18210SOL     OW56468   7.426   4.854   7.663
18210SOL    HW156469   7.427   4.804   7.745
18210SOL    HW256470   7.493   4.812   7.609
18211SOL     OW56471   4.447   4.511  10.643
18211SOL    HW156472   4.430   4.442  10.707
18211SOL    HW256473   4.528   4.485  10.599
18212SOL     OW56474   4.876  13.052  10.359
18212SOL    HW156475   4.781  13.040  10.358
18212SOL    HW256476   4.888  13.140  10.396
18213SOL     OW56477   2.256   1.970  13.508
18213SOL    HW156478   2.170   2.011  13.499
18213SOL    HW256479   2.249   1.917  13.588
18214SOL     OW56480   2.356  10.455   6.065
18214SOL    HW156481   2.312  10.540   6.064
18214SOL    HW256482   2.292  10.394   6.028
18215SOL     OW56483   6.790   3.098  11.925
18215SOL    HW156484   6.719   3.113  11.862
18215SOL    HW256485   6.770   3.012  11.963
18216SOL     OW56486   7.027   3.373   0.518
18216SOL    HW156487   7.068   3.304   0.571
18216SOL    HW256488   6.940   3.340   0.498
18217SOL     OW56489   5.852   3.728   5.237
18217SOL    HW156490   5.937   3.690   5.212
18217SOL    HW256491   5.874   3.810   5.281
18218SOL     OW56492   8.571   5.332   7.937
18218SOL    HW156493   8.591   5.252   7.985
18218SOL    HW256494   8.653   5.381   7.935
18219SOL     OW56495  12.356  14.801   8.922
18219SOL    HW156496  12.267  14.837   8.929
18219SOL    HW256497  12.358  14.758   8.837
18220SOL     OW56498   8.112  11.558   5.784
18220SOL    HW156499   8.175  11.529   5.850
18220SOL    HW256500   8.136  11.510   5.705
18221SOL     OW56501  13.643  14.155   1.567
18221SOL    HW156502  13.605  14.109   1.492
18221SOL    HW256503  13.725  14.191   1.534
18222SOL     OW56504   9.134   5.161  14.574
18222SOL    HW156505   9.172   5.127  14.493
18222SOL    HW256506   9.040   5.168  14.555
18223SOL     OW56507  11.900  12.024   8.522
18223SOL    HW156508  11.927  12.095   8.580
18223SOL    HW256509  11.940  11.946   8.560
18224SOL     OW56510   9.203   5.534   7.757
18224SOL    HW156511   9.259   5.576   7.822
18224SOL    HW256512   9.114   5.556   7.784
18225SOL     OW56513   6.518   2.075   0.481
18225SOL    HW156514   6.564   2.057   0.563
18225SOL    HW256515   6.526   2.169   0.469
18226SOL     OW56516   7.915   5.672   1.316
18226SOL    HW156517   7.868   5.600   1.272
18226SOL    HW256518   8.007   5.658   1.292
18227SOL     OW56519   7.349   8.151  12.423
18227SOL    HW156520   7.292   8.132  12.349
18227SOL    HW256521   7.296   8.131  12.500
18228SOL     OW56522   3.569   4.161   9.647
18228SOL    HW156523   3.501   4.126   9.589
18228SOL    HW256524   3.578   4.095   9.715
18229SOL     OW56525   0.519   4.216   1.281
18229SOL    HW156526   0.539   4.129   1.248
18229SOL    HW256527   0.436   4.238   1.239
18230SOL     OW56528   6.095   2.638   9.125
18230SOL    HW156529   6.065   2.549   9.108
18230SOL    HW256530   6.161   2.655   9.057
18231SOL     OW56531  13.284   2.301  13.447
18231SOL    HW156532  13.355   2.343  13.496
18231SOL    HW256533  13.327   2.228  13.401
18232SOL     OW56534   9.939  14.689   8.049
18232SOL    HW156535   9.873  14.758   8.049
18232SOL    HW256536   9.929  14.647   7.964
18233SOL     OW56537   3.330  14.465  10.604
18233SOL    HW156538   3.239  14.451  10.578
18233SOL    HW256539   3.381  14.410  10.543
18234SOL     OW56540  12.054  10.981   7.291
18234SOL    HW156541  11.986  10.930   7.335
18234SOL    HW256542  12.110  11.012   7.362
18235SOL     OW56543   8.829   6.476   3.139
18235SOL    HW156544   8.921   6.464   3.114
18235SOL    HW256545   8.782   6.409   3.090
18236SOL     OW56546  11.350  10.442   5.883
18236SOL    HW156547  11.311  10.367   5.928
18236SOL    HW256548  11.296  10.455   5.805
18237SOL     OW56549   2.835   4.235  10.229
18237SOL    HW156550   2.753   4.284  10.234
18237SOL    HW256551   2.816   4.161  10.172
18238SOL     OW56552   0.348   8.002  12.153
18238SOL    HW156553   0.264   7.973  12.120
18238SOL    HW256554   0.353   7.968  12.243
18239SOL     OW56555   3.530   1.858   9.973
18239SOL    HW156556   3.565   1.934  10.019
18239SOL    HW256557   3.511   1.890   9.885
18240SOL     OW56558  14.668  12.530   1.415
18240SOL    HW156559  14.581  12.569   1.424
18240SOL    HW256560  14.707  12.537   1.502
18241SOL     OW56561   6.660   9.017   2.290
18241SOL    HW156562   6.702   9.059   2.215
18241SOL    HW256563   6.702   8.931   2.297
18242SOL     OW56564   2.252   2.306   6.658
18242SOL    HW156565   2.165   2.270   6.676
18242SOL    HW256566   2.264   2.375   6.723
18243SOL     OW56567  11.301  13.850   7.065
18243SOL    HW156568  11.254  13.875   6.985
18243SOL    HW256569  11.350  13.929   7.090
18244SOL     OW56570   0.315  13.946  14.639
18244SOL    HW156571   0.329  13.860  14.600
18244SOL    HW256572   0.386  14.000  14.604
18245SOL     OW56573  10.378   1.353   2.113
18245SOL    HW156574  10.305   1.292   2.123
18245SOL    HW256575  10.384   1.396   2.198
18246SOL     OW56576   7.209   0.840   3.497
18246SOL    HW156577   7.301   0.829   3.472
18246SOL    HW256578   7.201   0.793   3.580
18247SOL     OW56579   4.704   0.764  11.774
18247SOL    HW156580   4.728   0.681  11.814
18247SOL    HW256581   4.611   0.754  11.752
18248SOL     OW56582   6.637  13.873   7.980
18248SOL    HW156583   6.696  13.799   7.996
18248SOL    HW256584   6.634  13.881   7.885
18249SOL     OW56585  10.441  10.791   4.203
18249SOL    HW156586  10.504  10.856   4.233
18249SOL    HW256587  10.449  10.791   4.108
18250SOL     OW56588   3.876   2.169   8.158
18250SOL    HW156589   3.930   2.096   8.129
18250SOL    HW256590   3.898   2.180   8.250
18251SOL     OW56591   8.514   4.535  14.613
18251SOL    HW156592   8.597   4.487  14.621
18251SOL    HW256593   8.452   4.485  14.666
18252SOL     OW56594  12.314   3.067   2.829
18252SOL    HW156595  12.258   3.138   2.859
18252SOL    HW256596  12.259   3.016   2.770
18253SOL     OW56597   7.128  13.973   4.545
18253SOL    HW156598   7.206  13.980   4.489
18253SOL    HW256599   7.142  13.893   4.595
18254SOL     OW56600   7.166   3.538   5.810
18254SOL    HW156601   7.194   3.626   5.786
18254SOL    HW256602   7.098   3.516   5.747
18255SOL     OW56603   0.750   2.491   6.592
18255SOL    HW156604   0.684   2.426   6.615
18255SOL    HW256605   0.729   2.567   6.647
18256SOL     OW56606   3.238   2.607   1.150
18256SOL    HW156607   3.239   2.558   1.232
18256SOL    HW256608   3.259   2.543   1.082
18257SOL     OW56609   7.162  11.637   2.739
18257SOL    HW156610   7.182  11.631   2.646
18257SOL    HW256611   7.235  11.684   2.778
18258SOL     OW56612  14.752   0.936   4.865
18258SOL    HW156613  14.812   0.919   4.937
18258SOL    HW256614  14.753   1.031   4.855
18259SOL     OW56615  13.800  10.029   8.528
18259SOL    HW156616  13.839  10.082   8.597
18259SOL    HW256617  13.779  10.091   8.458
18260SOL     OW56618   0.049   2.433  12.686
18260SOL    HW156619   0.074   2.407  12.597
18260SOL    HW256620   0.131   2.426  12.736
18261SOL     OW56621   3.361  13.181   8.031
18261SOL    HW156622   3.357  13.252   8.096
18261SOL    HW256623   3.454  13.172   8.012
18262SOL     OW56624   8.436  10.277   3.822
18262SOL    HW156625   8.392  10.360   3.841
18262SOL    HW256626   8.365  10.218   3.795
18263SOL     OW56627   9.756   2.290  13.191
18263SOL    HW156628   9.807   2.290  13.110
18263SOL    HW256629   9.759   2.381  13.222
18264SOL     OW56630   2.105   4.294  10.488
18264SOL    HW156631   2.182   4.334  10.447
18264SOL    HW256632   2.043   4.282  10.416
18265SOL     OW56633  12.681   5.035   1.601
18265SOL    HW156634  12.629   4.987   1.536
18265SOL    HW256635  12.767   5.044   1.561
18266SOL     OW56636  11.990  12.933   7.220
18266SOL    HW156637  12.005  12.938   7.314
18266SOL    HW256638  11.895  12.939   7.211
18267SOL     OW56639   2.935  14.447  10.281
18267SOL    HW156640   2.854  14.497  10.293
18267SOL    HW256641   2.988  14.501  10.223
18268SOL     OW56642   6.758   8.399  12.467
18268SOL    HW156643   6.665   8.382  12.485
18268SOL    HW256644   6.757   8.452  12.387
18269SOL     OW56645   2.529   9.472  11.640
18269SOL    HW156646   2.560   9.554  11.601
18269SOL    HW256647   2.515   9.413  11.566
18270SOL     OW56648   8.096   0.995   6.939
18270SOL    HW156649   8.035   1.045   6.992
18270SOL    HW256650   8.042   0.926   6.899
18271SOL     OW56651   2.764   3.697  12.843
18271SOL    HW156652   2.717   3.641  12.904
18271SOL    HW256653   2.780   3.778  12.891
18272SOL     OW56654   1.486  12.425   7.904
18272SOL    HW156655   1.521  12.481   7.834
18272SOL    HW256656   1.391  12.431   7.895
18273SOL     OW56657   8.290   9.857  12.889
18273SOL    HW156658   8.380   9.886  12.873
18273SOL    HW256659   8.269   9.892  12.975
18274SOL     OW56660   7.447   7.995   8.436
18274SOL    HW156661   7.487   7.910   8.420
18274SOL    HW256662   7.516   8.058   8.416
18275SOL     OW56663   1.411   6.170   9.116
18275SOL    HW156664   1.359   6.235   9.164
18275SOL    HW256665   1.479   6.142   9.177
18276SOL     OW56666  12.299   9.738   8.320
18276SOL    HW156667  12.343   9.716   8.238
18276SOL    HW256668  12.294   9.834   8.320
18277SOL     OW56669  14.413   8.734   5.843
18277SOL    HW156670  14.417   8.638   5.845
18277SOL    HW256671  14.473   8.763   5.911
18278SOL     OW56672  10.863   8.075   3.797
18278SOL    HW156673  10.819   8.155   3.768
18278SOL    HW256674  10.809   8.042   3.868
18279SOL     OW56675   1.241   9.254   1.866
18279SOL    HW156676   1.290   9.254   1.784
18279SOL    HW256677   1.216   9.163   1.879
18280SOL     OW56678  10.866   0.770   0.459
18280SOL    HW156679  10.884   0.765   0.553
18280SOL    HW256680  10.775   0.800   0.453
18281SOL     OW56681   3.438   9.871   1.655
18281SOL    HW156682   3.352   9.908   1.675
18281SOL    HW256683   3.475   9.931   1.590
18282SOL     OW56684   0.407   1.898   9.893
18282SOL    HW156685   0.399   1.917   9.986
18282SOL    HW256686   0.485   1.947   9.865
18283SOL     OW56687  13.621  13.354   4.315
18283SOL    HW156688  13.579  13.403   4.386
18283SOL    HW256689  13.713  13.351   4.340
18284SOL     OW56690  10.290   9.020   6.775
18284SOL    HW156691  10.235   9.074   6.718
18284SOL    HW256692  10.241   9.015   6.858
18285SOL     OW56693  11.448   4.971   2.002
18285SOL    HW156694  11.394   4.895   1.980
18285SOL    HW256695  11.480   4.953   2.090
18286SOL     OW56696   4.760  10.850  12.847
18286SOL    HW156697   4.816  10.800  12.788
18286SOL    HW256698   4.732  10.926  12.795
18287SOL     OW56699  13.255   4.696  14.515
18287SOL    HW156700  13.210   4.652  14.587
18287SOL    HW256701  13.202   4.774  14.498
18288SOL     OW56702  12.275   0.747   3.806
18288SOL    HW156703  12.266   0.693   3.727
18288SOL    HW256704  12.248   0.690   3.878
18289SOL     OW56705   4.501   6.401  10.170
18289SOL    HW156706   4.466   6.342  10.236
18289SOL    HW256707   4.433   6.468  10.158
18290SOL     OW56708   5.793   0.153   2.438
18290SOL    HW156709   5.724   0.095   2.407
18290SOL    HW256710   5.873   0.119   2.398
18291SOL     OW56711   7.767   8.785   1.458
18291SOL    HW156712   7.856   8.798   1.428
18291SOL    HW256713   7.774   8.721   1.529
18292SOL     OW56714   9.965   6.474   1.668
18292SOL    HW156715  10.033   6.541   1.661
18292SOL    HW256716   9.996   6.416   1.738
18293SOL     OW56717   2.113   7.650   5.359
18293SOL    HW156718   2.034   7.608   5.392
18293SOL    HW256719   2.088   7.685   5.273
18294SOL     OW56720  11.948   3.810   7.079
18294SOL    HW156721  11.999   3.827   7.158
18294SOL    HW256722  11.903   3.727   7.098
18295SOL     OW56723  11.576   2.830   1.620
18295SOL    HW156724  11.648   2.788   1.665
18295SOL    HW256725  11.497   2.787   1.653
18296SOL     OW56726  11.979   3.794   3.365
18296SOL    HW156727  12.007   3.796   3.456
18296SOL    HW256728  11.883   3.794   3.369
18297SOL     OW56729   8.114  13.387   9.878
18297SOL    HW156730   8.055  13.318   9.907
18297SOL    HW256731   8.083  13.410   9.790
18298SOL     OW56732  12.059   6.985   2.285
18298SOL    HW156733  12.131   6.954   2.230
18298SOL    HW256734  12.016   7.053   2.233
18299SOL     OW56735   1.490   5.554   6.292
18299SOL    HW156736   1.445   5.503   6.224
18299SOL    HW256737   1.450   5.524   6.374
18300SOL     OW56738  11.424  11.116  12.800
18300SOL    HW156739  11.467  11.139  12.882
18300SOL    HW256740  11.408  11.022  12.807
18301SOL     OW56741   6.892   1.193   4.424
18301SOL    HW156742   6.803   1.162   4.409
18301SOL    HW256743   6.948   1.121   4.397
18302SOL     OW56744   6.118   6.562  10.153
18302SOL    HW156745   6.108   6.592  10.062
18302SOL    HW256746   6.206   6.588  10.178
18303SOL     OW56747   8.134   5.899  11.726
18303SOL    HW156748   8.182   5.946  11.794
18303SOL    HW256749   8.172   5.811  11.726
18304SOL     OW56750  12.044   3.418   5.091
18304SOL    HW156751  12.034   3.475   5.167
18304SOL    HW256752  11.961   3.371   5.084
18305SOL     OW56753  14.679  14.743  12.091
18305SOL    HW156754  14.739  14.690  12.039
18305SOL    HW256755  14.609  14.767  12.030
18306SOL     OW56756  14.112   7.429   1.205
18306SOL    HW156757  14.108   7.342   1.166
18306SOL    HW256758  14.192   7.468   1.169
18307SOL     OW56759  12.390   7.026   0.466
18307SOL    HW156760  12.328   6.975   0.518
18307SOL    HW256761  12.420   7.096   0.524
18308SOL     OW56762   2.540  11.917   0.857
18308SOL    HW156763   2.456  11.960   0.838
18308SOL    HW256764   2.600  11.989   0.876
18309SOL     OW56765  14.186   2.813  13.040
18309SOL    HW156766  14.263   2.822  13.095
18309SOL    HW256767  14.139   2.737  13.075
18310SOL     OW56768  11.747  13.281  14.440
18310SOL    HW156769  11.723  13.374  14.442
18310SOL    HW256770  11.698  13.242  14.513
18311SOL     OW56771   8.952  11.142   4.371
18311SOL    HW156772   8.901  11.199   4.428
18311SOL    HW256773   9.014  11.200   4.327
18312SOL     OW56774   5.300   8.940   9.467
18312SOL    HW156775   5.250   8.889   9.532
18312SOL    HW256776   5.330   8.875   9.404
18313SOL     OW56777  12.996   3.399   7.638
18313SOL    HW156778  13.000   3.400   7.733
18313SOL    HW256779  13.026   3.311   7.614
18314SOL     OW56780   1.872  12.952  10.244
18314SOL    HW156781   1.805  12.913  10.187
18314SOL    HW256782   1.822  13.006  10.305
18315SOL     OW56783   3.611   4.883   9.221
18315SOL    HW156784   3.571   4.947   9.164
18315SOL    HW256785   3.594   4.799   9.179
18316SOL     OW56786   6.715  13.581   2.174
18316SOL    HW156787   6.663  13.590   2.093
18316SOL    HW256788   6.689  13.496   2.209
18317SOL     OW56789  10.226  13.157   0.595
18317SOL    HW156790  10.250  13.225   0.659
18317SOL    HW256791  10.154  13.109   0.637
18318SOL     OW56792   4.712   0.209  12.787
18318SOL    HW156793   4.718   0.228  12.881
18318SOL    HW256794   4.626   0.242  12.761
18319SOL     OW56795  10.171   1.611  13.251
18319SOL    HW156796  10.259   1.640  13.274
18319SOL    HW256797  10.184   1.526  13.209
18320SOL     OW56798  12.183   2.780   7.011
18320SOL    HW156799  12.153   2.715   7.074
18320SOL    HW256800  12.241   2.731   6.953
18321SOL     OW56801   5.772   8.630  11.146
18321SOL    HW156802   5.831   8.681  11.202
18321SOL    HW256803   5.814   8.629  11.060
18322SOL     OW56804   2.749  14.599  12.419
18322SOL    HW156805   2.812  14.662  12.453
18322SOL    HW256806   2.684  14.590  12.488
18323SOL     OW56807   1.611   1.464  10.794
18323SOL    HW156808   1.696   1.476  10.750
18323SOL    HW256809   1.553   1.434  10.725
18324SOL     OW56810  11.315   9.966  12.077
18324SOL    HW156811  11.393   9.921  12.045
18324SOL    HW256812  11.249   9.951  12.010
18325SOL     OW56813   8.372   4.236   8.530
18325SOL    HW156814   8.453   4.281   8.505
18325SOL    HW256815   8.347   4.276   8.613
18326SOL     OW56816  11.403   4.838   8.300
18326SOL    HW156817  11.396   4.820   8.206
18326SOL    HW256818  11.328   4.794   8.339
18327SOL     OW56819   9.639   7.178   8.070
18327SOL    HW156820   9.701   7.124   8.022
18327SOL    HW256821   9.554   7.140   8.051
18328SOL     OW56822   1.147   3.111   0.602
18328SOL    HW156823   1.110   3.186   0.556
18328SOL    HW256824   1.202   3.067   0.537
18329SOL     OW56825  14.628  14.687  14.098
18329SOL    HW156826  14.622  14.757  14.163
18329SOL    HW256827  14.718  14.656  14.104
18330SOL     OW56828   7.768   5.216   5.461
18330SOL    HW156829   7.707   5.162   5.511
18330SOL    HW256830   7.795   5.160   5.388
18331SOL     OW56831  12.848   7.714   5.398
18331SOL    HW156832  12.833   7.761   5.480
18331SOL    HW256833  12.897   7.636   5.424
18332SOL     OW56834   5.353   4.125   0.424
18332SOL    HW156835   5.395   4.044   0.395
18332SOL    HW256836   5.399   4.195   0.377
18333SOL     OW56837  12.133   8.643   0.249
18333SOL    HW156838  12.046   8.611   0.274
18333SOL    HW256839  12.119   8.735   0.226
18334SOL     OW56840  11.812   1.471   8.614
18334SOL    HW156841  11.881   1.434   8.559
18334SOL    HW256842  11.735   1.416   8.598
18335SOL     OW56843  11.178  13.676  13.046
18335SOL    HW156844  11.242  13.610  13.072
18335SOL    HW256845  11.103  13.661  13.105
18336SOL     OW56846   7.286   5.844   8.337
18336SOL    HW156847   7.353   5.776   8.347
18336SOL    HW256848   7.208   5.807   8.377
18337SOL     OW56849  13.613  13.316   1.100
18337SOL    HW156850  13.606  13.325   1.195
18337SOL    HW256851  13.523  13.328   1.068
18338SOL     OW56852  11.279  14.303  11.695
18338SOL    HW156853  11.288  14.354  11.615
18338SOL    HW256854  11.254  14.367  11.762
18339SOL     OW56855   5.268   2.152  10.850
18339SOL    HW156856   5.275   2.057  10.853
18339SOL    HW256857   5.175   2.170  10.866
18340SOL     OW56858  13.649   7.425   3.430
18340SOL    HW156859  13.563   7.384   3.431
18340SOL    HW256860  13.645   7.489   3.501
18341SOL     OW56861  10.594   1.864  11.334
18341SOL    HW156862  10.525   1.930  11.321
18341SOL    HW256863  10.585   1.838  11.426
18342SOL     OW56864   2.529  12.509   7.318
18342SOL    HW156865   2.455  12.453   7.345
18342SOL    HW256866   2.593  12.447   7.282
18343SOL     OW56867  11.789   9.569  11.537
18343SOL    HW156868  11.730   9.558  11.463
18343SOL    HW256869  11.732   9.576  11.613
18344SOL     OW56870   2.461  14.134  12.355
18344SOL    HW156871   2.381  14.094  12.390
18344SOL    HW256872   2.480  14.206  12.416
18345SOL     OW56873   8.612   6.800   4.088
18345SOL    HW156874   8.682   6.784   4.151
18345SOL    HW256875   8.555   6.865   4.130
18346SOL     OW56876   7.830   7.039  10.759
18346SOL    HW156877   7.833   6.986  10.839
18346SOL    HW256878   7.745   7.017  10.719
18347SOL     OW56879   5.469  14.688   8.860
18347SOL    HW156880   5.531  14.760   8.871
18347SOL    HW256881   5.396  14.727   8.813
18348SOL     OW56882   1.737  11.363  13.965
18348SOL    HW156883   1.817  11.367  14.018
18348SOL    HW256884   1.757  11.301  13.896
18349SOL     OW56885   3.478   1.517   2.739
18349SOL    HW156886   3.513   1.441   2.786
18349SOL    HW256887   3.512   1.592   2.787
18350SOL     OW56888   2.270   7.538   7.662
18350SOL    HW156889   2.361   7.511   7.646
18350SOL    HW256890   2.242   7.577   7.579
18351SOL     OW56891   7.239   0.266  10.314
18351SOL    HW156892   7.151   0.303  10.305
18351SOL    HW256893   7.258   0.229  10.228
18352SOL     OW56894   7.407  10.455  11.153
18352SOL    HW156895   7.388  10.504  11.074
18352SOL    HW256896   7.450  10.518  11.211
18353SOL     OW56897  13.495   1.950   0.247
18353SOL    HW156898  13.529   1.909   0.168
18353SOL    HW256899  13.526   1.893   0.318
18354SOL     OW56900  12.582  11.728   4.443
18354SOL    HW156901  12.507  11.669   4.442
18354SOL    HW256902  12.573  11.777   4.525
18355SOL     OW56903   9.000   6.685   7.428
18355SOL    HW156904   8.923   6.727   7.466
18355SOL    HW256905   9.066   6.686   7.497
18356SOL     OW56906  14.838   6.170   4.026
18356SOL    HW156907  14.847   6.242   4.088
18356SOL    HW256908  14.878   6.203   3.945
18357SOL     OW56909   9.902   8.090   4.965
18357SOL    HW156910   9.904   8.039   5.046
18357SOL    HW256911   9.816   8.131   4.965
18358SOL     OW56912  12.581   9.842  14.782
18358SOL    HW156913  12.604   9.912  14.722
18358SOL    HW256914  12.611   9.762  14.738
18359SOL     OW56915   8.366   6.603   5.672
18359SOL    HW156916   8.325   6.612   5.586
18359SOL    HW256917   8.381   6.693   5.701
18360SOL     OW56918   1.850   2.487   4.278
18360SOL    HW156919   1.883   2.404   4.311
18360SOL    HW256920   1.845   2.543   4.356
18361SOL     OW56921   2.012   3.111  11.094
18361SOL    HW156922   1.971   3.151  11.171
18361SOL    HW256923   1.956   3.035  11.074
18362SOL     OW56924   2.223   8.403   6.546
18362SOL    HW156925   2.319   8.409   6.543
18362SOL    HW256926   2.204   8.346   6.620
18363SOL     OW56927   9.540   1.190   9.764
18363SOL    HW156928   9.494   1.215   9.844
18363SOL    HW256929   9.478   1.207   9.693
18364SOL     OW56930   5.074   1.216  14.470
18364SOL    HW156931   5.160   1.243  14.436
18364SOL    HW256932   5.084   1.219  14.565
18365SOL     OW56933   9.151  12.249   3.113
18365SOL    HW156934   9.167  12.248   3.019
18365SOL    HW256935   9.141  12.157   3.137
18366SOL     OW56936   0.543   7.313   2.557
18366SOL    HW156937   0.606   7.266   2.504
18366SOL    HW256938   0.458   7.284   2.525
18367SOL     OW56939   7.406   9.267  12.533
18367SOL    HW156940   7.470   9.211  12.576
18367SOL    HW256941   7.435   9.356  12.554
18368SOL     OW56942  13.293   7.200   8.486
18368SOL    HW156943  13.338   7.121   8.516
18368SOL    HW256944  13.286   7.189   8.391
18369SOL     OW56945  10.234   0.807   6.297
18369SOL    HW156946  10.292   0.870   6.255
18369SOL    HW256947  10.272   0.791   6.383
18370SOL     OW56948   9.499   0.157   6.978
18370SOL    HW156949   9.428   0.192   7.031
18370SOL    HW256950   9.458   0.131   6.895
18371SOL     OW56951  10.600  11.365   7.231
18371SOL    HW156952  10.617  11.412   7.312
18371SOL    HW256953  10.681  11.316   7.215
18372SOL     OW56954  10.397  10.062   2.987
18372SOL    HW156955  10.315  10.034   2.947
18372SOL    HW256956  10.462  10.053   2.916
18373SOL     OW56957   8.989   2.165  11.711
18373SOL    HW156958   8.919   2.104  11.686
18373SOL    HW256959   8.970   2.244  11.660
18374SOL     OW56960  14.299  14.048   9.601
18374SOL    HW156961  14.357  13.975   9.621
18374SOL    HW256962  14.356  14.112   9.557
18375SOL     OW56963   5.126  11.983  13.024
18375SOL    HW156964   5.215  11.958  13.050
18375SOL    HW256965   5.110  12.066  13.068
18376SOL     OW56966   6.878  11.443   3.237
18376SOL    HW156967   6.945  11.398   3.186
18376SOL    HW256968   6.851  11.516   3.181
18377SOL     OW56969  14.527  13.359   5.303
18377SOL    HW156970  14.579  13.307   5.241
18377SOL    HW256971  14.557  13.329   5.389
18378SOL     OW56972   3.542  13.408   9.753
18378SOL    HW156973   3.602  13.420   9.826
18378SOL    HW256974   3.517  13.315   9.757
18379SOL     OW56975   7.096   9.415   2.929
18379SOL    HW156976   7.150   9.480   2.973
18379SOL    HW256977   7.141   9.332   2.945
18380SOL     OW56978  13.271  12.263  13.791
18380SOL    HW156979  13.235  12.343  13.753
18380SOL    HW256980  13.328  12.228  13.723
18381SOL     OW56981   7.548   7.799   4.077
18381SOL    HW156982   7.455   7.815   4.069
18381SOL    HW256983   7.581   7.871   4.131
18382SOL     OW56984   7.332  13.814  12.509
18382SOL    HW156985   7.280  13.734  12.511
18382SOL    HW256986   7.297  13.868  12.580
18383SOL     OW56987   3.419   8.586   2.971
18383SOL    HW156988   3.406   8.570   2.877
18383SOL    HW256989   3.352   8.651   2.993
18384SOL     OW56990  14.020   0.852   3.481
18384SOL    HW156991  14.072   0.932   3.478
18384SOL    HW256992  13.991   0.839   3.391
18385SOL     OW56993   3.394  14.511   8.152
18385SOL    HW156994   3.372  14.442   8.090
18385SOL    HW256995   3.367  14.592   8.109
18386SOL     OW56996   4.333   6.769  11.232
18386SOL    HW156997   4.332   6.811  11.146
18386SOL    HW256998   4.424   6.776  11.261
18387SOL     OW56999  12.639   8.910   6.615
18387SOL    HW157000  12.622   8.983   6.555
18387SOL    HW257001  12.734   8.903   6.619
18388SOL     OW57002   5.102  12.104   5.354
18388SOL    HW157003   5.152  12.124   5.433
18388SOL    HW257004   5.058  12.186   5.331
18389SOL     OW57005   2.299  13.741   1.894
18389SOL    HW157006   2.350  13.693   1.830
18389SOL    HW257007   2.208  13.722   1.872
18390SOL     OW57008   8.048   2.418  13.919
18390SOL    HW157009   7.954   2.404  13.928
18390SOL    HW257010   8.084   2.402  14.006
18391SOL     OW57011   0.070  13.301   4.098
18391SOL    HW157012   0.039  13.389   4.122
18391SOL    HW257013   0.111  13.313   4.012
18392SOL     OW57014  12.211   1.711   8.078
18392SOL    HW157015  12.198   1.804   8.097
18392SOL    HW257016  12.302   1.704   8.050
18393SOL     OW57017   1.794   8.951  14.759
18393SOL    HW157018   1.816   9.015  14.826
18393SOL    HW257019   1.712   8.912  14.789
18394SOL     OW57020   1.756   5.383   1.186
18394SOL    HW157021   1.806   5.358   1.264
18394SOL    HW257022   1.665   5.379   1.212
18395SOL     OW57023   7.861   2.165  11.496
18395SOL    HW157024   7.841   2.201  11.583
18395SOL    HW257025   7.889   2.241  11.445
18396SOL     OW57026  11.226  10.797   9.936
18396SOL    HW157027  11.141  10.816   9.896
18396SOL    HW257028  11.217  10.709   9.972
18397SOL     OW57029   7.451   5.160  14.451
18397SOL    HW157030   7.524   5.144  14.390
18397SOL    HW257031   7.493   5.196  14.529
18398SOL     OW57032   5.224   9.394   5.093
18398SOL    HW157033   5.303   9.425   5.050
18398SOL    HW257034   5.196   9.467   5.148
18399SOL     OW57035   3.235   5.725   7.398
18399SOL    HW157036   3.215   5.691   7.485
18399SOL    HW257037   3.150   5.738   7.356
18400SOL     OW57038   2.367  12.769   1.157
18400SOL    HW157039   2.281  12.779   1.117
18400SOL    HW257040   2.412  12.706   1.102
18401SOL     OW57041  10.763   3.937   5.431
18401SOL    HW157042  10.736   4.001   5.366
18401SOL    HW257043  10.838   3.976   5.475
18402SOL     OW57044   5.103   0.461   8.364
18402SOL    HW157045   5.192   0.437   8.391
18402SOL    HW257046   5.107   0.463   8.268
18403SOL     OW57047  12.511  14.068   2.484
18403SOL    HW157048  12.511  14.127   2.409
18403SOL    HW257049  12.418  14.048   2.498
18404SOL     OW57050  11.928   2.623   9.965
18404SOL    HW157051  11.907   2.645  10.056
18404SOL    HW257052  11.885   2.690   9.913
18405SOL     OW57053  10.203   6.199   2.833
18405SOL    HW157054  10.197   6.254   2.755
18405SOL    HW257055  10.114   6.166   2.847
18406SOL     OW57056   0.179  12.042   4.731
18406SOL    HW157057   0.132  12.083   4.659
18406SOL    HW257058   0.268  12.028   4.697
18407SOL     OW57059   6.990   4.324   0.534
18407SOL    HW157060   6.937   4.315   0.455
18407SOL    HW257061   7.077   4.294   0.509
18408SOL     OW57062  11.943  14.176   6.413
18408SOL    HW157063  12.029  14.173   6.455
18408SOL    HW257064  11.920  14.085   6.398
18409SOL     OW57065  10.689  12.337   3.321
18409SOL    HW157066  10.657  12.425   3.301
18409SOL    HW257067  10.611  12.282   3.313
18410SOL     OW57068   8.555  12.219   7.392
18410SOL    HW157069   8.617  12.229   7.465
18410SOL    HW257070   8.568  12.297   7.338
18411SOL     OW57071   3.029   0.026  11.095
18411SOL    HW157072   3.005   0.099  11.038
18411SOL    HW257073   3.117   0.001  11.068
18412SOL     OW57074   6.929   2.937   3.045
18412SOL    HW157075   6.988   2.884   2.993
18412SOL    HW257076   6.950   2.915   3.136
18413SOL     OW57077   0.320   6.416   3.438
18413SOL    HW157078   0.287   6.453   3.357
18413SOL    HW257079   0.261   6.344   3.458
18414SOL     OW57080   3.149   0.064  12.766
18414SOL    HW157081   3.054   0.060  12.775
18414SOL    HW257082   3.173   0.149  12.802
18415SOL     OW57083   5.608   9.211   6.093
18415SOL    HW157084   5.697   9.182   6.076
18415SOL    HW257085   5.603   9.219   6.188
18416SOL     OW57086  13.892   2.245   3.107
18416SOL    HW157087  13.812   2.283   3.143
18416SOL    HW257088  13.886   2.260   3.013
18417SOL     OW57089   2.134   4.293   3.028
18417SOL    HW157090   2.118   4.215   2.975
18417SOL    HW257091   2.100   4.366   2.975
18418SOL     OW57092   3.465   5.601   5.926
18418SOL    HW157093   3.419   5.627   6.006
18418SOL    HW257094   3.435   5.663   5.860
18419SOL     OW57095   0.698  12.455  14.004
18419SOL    HW157096   0.694  12.362  13.980
18419SOL    HW257097   0.714  12.454  14.099
18420SOL     OW57098  11.615  10.152   3.844
18420SOL    HW157099  11.524  10.171   3.866
18420SOL    HW257100  11.629  10.063   3.877
18421SOL     OW57101  11.617   9.783   5.056
18421SOL    HW157102  11.630   9.692   5.028
18421SOL    HW257103  11.640   9.836   4.980
18422SOL     OW57104   1.690  10.476   0.524
18422SOL    HW157105   1.759  10.494   0.460
18422SOL    HW257106   1.609  10.474   0.473
18423SOL     OW57107   1.229   8.912   5.933
18423SOL    HW157108   1.144   8.929   5.974
18423SOL    HW257109   1.254   8.995   5.892
18424SOL     OW57110   1.681   0.035   1.903
18424SOL    HW157111   1.689   0.057   1.996
18424SOL    HW257112   1.755   0.079   1.862
18425SOL     OW57113   7.607   7.739  11.844
18425SOL    HW157114   7.660   7.794  11.902
18425SOL    HW257115   7.652   7.654  11.843
18426SOL     OW57116   6.295  11.370  10.992
18426SOL    HW157117   6.293  11.328  11.078
18426SOL    HW257118   6.308  11.298  10.931
18427SOL     OW57119   6.977  11.185   4.725
18427SOL    HW157120   7.013  11.139   4.801
18427SOL    HW257121   6.969  11.118   4.658
18428SOL     OW57122   0.960  13.380  11.302
18428SOL    HW157123   0.926  13.305  11.351
18428SOL    HW257124   0.893  13.397  11.236
18429SOL     OW57125   2.344   9.101   2.931
18429SOL    HW157126   2.391   9.151   2.998
18429SOL    HW257127   2.256   9.137   2.930
18430SOL     OW57128  12.966  12.961   9.502
18430SOL    HW157129  12.907  12.912   9.445
18430SOL    HW257130  13.046  12.908   9.506
18431SOL     OW57131  12.884  13.451   4.918
18431SOL    HW157132  12.942  13.380   4.890
18431SOL    HW257133  12.913  13.472   5.007
18432SOL     OW57134   8.514   4.057   0.791
18432SOL    HW157135   8.441   4.003   0.761
18432SOL    HW257136   8.474   4.141   0.811
18433SOL     OW57137   7.960  11.265  14.622
18433SOL    HW157138   8.051  11.238  14.616
18433SOL    HW257139   7.955  11.345  14.570
18434SOL     OW57140   9.300   9.026  11.998
18434SOL    HW157141   9.231   8.959  11.993
18434SOL    HW257142   9.379   8.980  11.967
18435SOL     OW57143   8.638   2.761   6.065
18435SOL    HW157144   8.582   2.832   6.095
18435SOL    HW257145   8.701   2.803   6.007
18436SOL     OW57146  11.116   2.157  10.554
18436SOL    HW157147  11.058   2.119  10.488
18436SOL    HW257148  11.058   2.211  10.608
18437SOL     OW57149  13.789   4.305   8.975
18437SOL    HW157150  13.744   4.389   8.974
18437SOL    HW257151  13.781   4.273   8.884
18438SOL     OW57152   0.120   1.463   0.979
18438SOL    HW157153   0.210   1.438   0.958
18438SOL    HW257154   0.122   1.484   1.072
18439SOL     OW57155   1.705   2.554   9.990
18439SOL    HW157156   1.763   2.513  10.054
18439SOL    HW257157   1.638   2.487   9.972
18440SOL     OW57158   1.331   9.856   7.443
18440SOL    HW157159   1.304   9.946   7.422
18440SOL    HW257160   1.403   9.866   7.505
18441SOL     OW57161  11.635  13.834   6.841
18441SOL    HW157162  11.637  13.840   6.937
18441SOL    HW257163  11.543  13.851   6.819
18442SOL     OW57164   9.578   3.066   2.058
18442SOL    HW157165   9.575   3.160   2.044
18442SOL    HW257166   9.559   3.028   1.972
18443SOL     OW57167  10.840  13.203   6.319
18443SOL    HW157168  10.922  13.197   6.369
18443SOL    HW257169  10.863  13.175   6.231
18444SOL     OW57170   2.631   7.024   8.745
18444SOL    HW157171   2.638   7.117   8.725
18444SOL    HW257172   2.598   7.021   8.835
18445SOL     OW57173   5.939  10.576  10.510
18445SOL    HW157174   5.989  10.526  10.446
18445SOL    HW257175   5.847  10.561  10.486
18446SOL     OW57176   2.473   4.152  14.593
18446SOL    HW157177   2.547   4.211  14.605
18446SOL    HW257178   2.484   4.118  14.504
18447SOL     OW57179  14.343   0.562   4.344
18447SOL    HW157180  14.412   0.511   4.302
18447SOL    HW257181  14.378   0.584   4.430
18448SOL     OW57182  10.166   1.979  13.430
18448SOL    HW157183  10.130   2.040  13.366
18448SOL    HW257184  10.100   1.974  13.499
18449SOL     OW57185   1.974  14.341   2.064
18449SOL    HW157186   1.975  14.365   2.157
18449SOL    HW257187   1.932  14.416   2.021
18450SOL     OW57188  13.453  10.660   1.279
18450SOL    HW157189  13.447  10.693   1.189
18450SOL    HW257190  13.493  10.573   1.270
18451SOL     OW57191   8.409   9.796   0.822
18451SOL    HW157192   8.474   9.750   0.769
18451SOL    HW257193   8.337   9.814   0.762
18452SOL     OW57194   1.015   7.921   4.462
18452SOL    HW157195   0.977   7.987   4.403
18452SOL    HW257196   0.970   7.840   4.439
18453SOL     OW57197   1.292   0.439   1.806
18453SOL    HW157198   1.283   0.353   1.848
18453SOL    HW257199   1.226   0.439   1.737
18454SOL     OW57200   7.126   3.184   5.925
18454SOL    HW157201   7.065   3.139   5.866
18454SOL    HW257202   7.082   3.266   5.946
18455SOL     OW57203   3.965   6.488   7.169
18455SOL    HW157204   3.975   6.563   7.110
18455SOL    HW257205   3.896   6.514   7.230
18456SOL     OW57206   1.194  12.675  13.852
18456SOL    HW157207   1.180  12.651  13.761
18456SOL    HW257208   1.220  12.594  13.895
18457SOL     OW57209   5.680  13.002  13.734
18457SOL    HW157210   5.753  12.941  13.745
18457SOL    HW257211   5.701  13.049  13.653
18458SOL     OW57212   8.744  10.946   0.955
18458SOL    HW157213   8.716  10.917   1.042
18458SOL    HW257214   8.709  10.880   0.896
18459SOL     OW57215   6.221   6.366  13.119
18459SOL    HW157216   6.211   6.392  13.210
18459SOL    HW257217   6.292   6.302  13.119
18460SOL     OW57218  11.663   5.789   1.123
18460SOL    HW157219  11.614   5.867   1.149
18460SOL    HW257220  11.701   5.757   1.205
18461SOL     OW57221   3.519   9.578  10.387
18461SOL    HW157222   3.473   9.647  10.436
18461SOL    HW257223   3.504   9.600  10.295
18462SOL     OW57224   3.672   1.046   8.932
18462SOL    HW157225   3.650   0.963   8.890
18462SOL    HW257226   3.634   1.113   8.876
18463SOL     OW57227  13.749  13.165   5.494
18463SOL    HW157228  13.704  13.096   5.444
18463SOL    HW257229  13.775  13.122   5.576
18464SOL     OW57230   5.565  10.553  12.313
18464SOL    HW157231   5.512  10.561  12.234
18464SOL    HW257232   5.551  10.634  12.361
18465SOL     OW57233  13.891  11.976   1.675
18465SOL    HW157234  13.822  12.039   1.653
18465SOL    HW257235  13.845  11.893   1.689
18466SOL     OW57236   1.291   7.727  12.501
18466SOL    HW157237   1.276   7.764  12.589
18466SOL    HW257238   1.373   7.767  12.473
18467SOL     OW57239   7.620   7.987   9.500
18467SOL    HW157240   7.549   7.958   9.443
18467SOL    HW257241   7.606   8.081   9.510
18468SOL     OW57242  10.331  11.231   3.584
18468SOL    HW157243  10.239  11.216   3.607
18468SOL    HW257244  10.348  11.321   3.610
18469SOL     OW57245   3.759   8.145  13.678
18469SOL    HW157246   3.848   8.115  13.696
18469SOL    HW257247   3.767   8.241  13.672
18470SOL     OW57248  14.211   8.937   5.457
18470SOL    HW157249  14.244   8.920   5.545
18470SOL    HW257250  14.275   8.995   5.417
18471SOL     OW57251   3.738  13.983   1.668
18471SOL    HW157252   3.703  14.014   1.585
18471SOL    HW257253   3.671  13.924   1.703
18472SOL     OW57254   3.424  14.738   3.777
18472SOL    HW157255   3.370  14.740   3.698
18472SOL    HW257256   3.456  14.828   3.786
18473SOL     OW57257   2.881  14.402   5.611
18473SOL    HW157258   2.828  14.443   5.542
18473SOL    HW257259   2.971  14.409   5.579
18474SOL     OW57260   6.760   2.125   8.074
18474SOL    HW157261   6.793   2.040   8.045
18474SOL    HW257262   6.685   2.104   8.129
18475SOL     OW57263   9.107  14.122   9.208
18475SOL    HW157264   9.054  14.086   9.279
18475SOL    HW257265   9.196  14.094   9.228
18476SOL     OW57266   4.645   7.066   7.399
18476SOL    HW157267   4.677   7.130   7.463
18476SOL    HW257268   4.712   7.064   7.331
18477SOL     OW57269   7.239   6.709   9.173
18477SOL    HW157270   7.269   6.698   9.084
18477SOL    HW257271   7.143   6.710   9.166
18478SOL     OW57272   5.044  10.845   9.666
18478SOL    HW157273   5.002  10.796   9.736
18478SOL    HW257274   5.135  10.854   9.695
18479SOL     OW57275   5.959  12.077  13.803
18479SOL    HW157276   5.931  12.165  13.826
18479SOL    HW257277   5.988  12.039  13.886
18480SOL     OW57278   8.824   8.813   2.567
18480SOL    HW157279   8.867   8.752   2.627
18480SOL    HW257280   8.762   8.860   2.621
18481SOL     OW57281   2.605   6.571   6.542
18481SOL    HW157282   2.671   6.503   6.556
18481SOL    HW257283   2.522   6.528   6.561
18482SOL     OW57284  10.548   8.140  13.339
18482SOL    HW157285  10.504   8.063  13.304
18482SOL    HW257286  10.520   8.212  13.282
18483SOL     OW57287   9.956   9.490  11.134
18483SOL    HW157288  10.024   9.548  11.102
18483SOL    HW257289   9.998   9.404  11.141
18484SOL     OW57290   9.066   5.263   9.353
18484SOL    HW157291   9.138   5.270   9.416
18484SOL    HW257292   9.009   5.337   9.373
18485SOL     OW57293   4.300  12.034   6.440
18485SOL    HW157294   4.219  12.021   6.390
18485SOL    HW257295   4.365  12.058   6.374
18486SOL     OW57296  14.331  11.977   1.398
18486SOL    HW157297  14.426  11.967   1.405
18486SOL    HW257298  14.296  11.924   1.469
18487SOL     OW57299   2.885  12.542  10.842
18487SOL    HW157300   2.980  12.546  10.848
18487SOL    HW257301   2.855  12.528  10.932
18488SOL     OW57302  13.666   0.678   4.726
18488SOL    HW157303  13.631   0.761   4.760
18488SOL    HW257304  13.690   0.629   4.804
18489SOL     OW57305  13.801   4.420   4.781
18489SOL    HW157306  13.837   4.504   4.753
18489SOL    HW257307  13.872   4.377   4.829
18490SOL     OW57308   3.921   1.421   0.985
18490SOL    HW157309   3.840   1.471   0.969
18490SOL    HW257310   3.892   1.347   1.039
18491SOL     OW57311  13.997   1.860   3.926
18491SOL    HW157312  13.917   1.878   3.977
18491SOL    HW257313  13.965   1.836   3.839
18492SOL     OW57314   2.309   2.424   7.317
18492SOL    HW157315   2.237   2.482   7.293
18492SOL    HW257316   2.272   2.366   7.384
18493SOL     OW57317   2.804   4.223  14.788
18493SOL    HW157318   2.871   4.177  14.838
18493SOL    HW257319   2.793   4.306  14.833
18494SOL     OW57320   7.675  14.083  14.576
18494SOL    HW157321   7.600  14.096  14.518
18494SOL    HW257322   7.684  13.988  14.581
18495SOL     OW57323   0.791  10.599  14.134
18495SOL    HW157324   0.862  10.660  14.112
18495SOL    HW257325   0.720  10.656  14.164
18496SOL     OW57326   7.688  11.458  12.877
18496SOL    HW157327   7.636  11.478  12.799
18496SOL    HW257328   7.758  11.401  12.844
18497SOL     OW57329   1.166   8.516   6.547
18497SOL    HW157330   1.197   8.444   6.602
18497SOL    HW257331   1.162   8.591   6.605
18498SOL     OW57332   7.495   4.546   6.378
18498SOL    HW157333   7.412   4.593   6.383
18498SOL    HW257334   7.526   4.562   6.289
18499SOL     OW57335   3.551  13.236   6.461
18499SOL    HW157336   3.641  13.265   6.480
18499SOL    HW257337   3.514  13.215   6.547
18500SOL     OW57338  13.482   3.569  13.045
18500SOL    HW157339  13.494   3.650  12.995
18500SOL    HW257340  13.420   3.592  13.113
18501SOL     OW57341   6.669   9.985   1.096
18501SOL    HW157342   6.603  10.052   1.112
18501SOL    HW257343   6.636   9.907   1.142
18502SOL     OW57344   9.992  10.758   1.344
18502SOL    HW157345   9.988  10.717   1.431
18502SOL    HW257346   9.941  10.701   1.288
18503SOL     OW57347   1.229  13.661   4.185
18503SOL    HW157348   1.271  13.575   4.191
18503SOL    HW257349   1.185  13.672   4.269
18504SOL     OW57350   9.740  14.396   4.789
18504SOL    HW157351   9.644  14.393   4.796
18504SOL    HW257352   9.757  14.475   4.738
18505SOL     OW57353  11.570  10.639   1.550
18505SOL    HW157354  11.627  10.562   1.547
18505SOL    HW257355  11.629  10.713   1.532
18506SOL     OW57356   6.785  10.641   4.533
18506SOL    HW157357   6.720  10.581   4.569
18506SOL    HW257358   6.852  10.648   4.601
18507SOL     OW57359  11.168  11.256   7.767
18507SOL    HW157360  11.116  11.260   7.846
18507SOL    HW257361  11.238  11.193   7.787
18508SOL     OW57362   1.956  13.417  11.126
18508SOL    HW157363   2.028  13.477  11.106
18508SOL    HW257364   1.952  13.357  11.052
18509SOL     OW57365  14.872   2.312   2.537
18509SOL    HW157366  14.788   2.272   2.559
18509SOL    HW257367   0.054   2.276   2.601
18510SOL     OW57368   0.050   3.007   2.945
18510SOL    HW157369   0.071   3.100   2.939
18510SOL    HW257370   0.050   2.977   2.854
18511SOL     OW57371  12.302  13.111   0.570
18511SOL    HW157372  12.367  13.167   0.612
18511SOL    HW257373  12.218  13.143   0.602
18512SOL     OW57374  11.024   9.332   7.276
18512SOL    HW157375  11.088   9.390   7.237
18512SOL    HW257376  11.033   9.250   7.227
18513SOL     OW57377   2.158   3.851   2.521
18513SOL    HW157378   2.214   3.855   2.598
18513SOL    HW257379   2.167   3.762   2.489
18514SOL     OW57380   5.609   6.953  13.679
18514SOL    HW157381   5.549   6.948  13.753
18514SOL    HW257382   5.696   6.938  13.718
18515SOL     OW57383   1.002  14.171   8.137
18515SOL    HW157384   0.913  14.185   8.105
18515SOL    HW257385   1.040  14.107   8.076
18516SOL     OW57386   7.752   5.600   4.007
18516SOL    HW157387   7.771   5.522   3.956
18516SOL    HW257388   7.811   5.667   3.972
18517SOL     OW57389   0.841  10.393   0.933
18517SOL    HW157390   0.816  10.470   0.882
18517SOL    HW257391   0.806  10.410   1.021
18518SOL     OW57392   5.391  11.799   1.708
18518SOL    HW157393   5.344  11.776   1.628
18518SOL    HW257394   5.475  11.754   1.701
18519SOL     OW57395   4.018  12.528   7.693
18519SOL    HW157396   3.974  12.521   7.778
18519SOL    HW257397   3.970  12.467   7.636
18520SOL     OW57398  14.734   5.758  10.958
18520SOL    HW157399  14.716   5.702  10.882
18520SOL    HW257400  14.671   5.829  10.951
18521SOL     OW57401   3.648   0.525   5.805
18521SOL    HW157402   3.580   0.592   5.814
18521SOL    HW257403   3.730   0.572   5.825
18522SOL     OW57404   8.758   0.385   7.545
18522SOL    HW157405   8.663   0.379   7.535
18522SOL    HW257406   8.773   0.387   7.640
18523SOL     OW57407  12.871   7.591   6.464
18523SOL    HW157408  12.861   7.602   6.369
18523SOL    HW257409  12.800   7.644   6.502
18524SOL     OW57410  12.890   3.701  10.716
18524SOL    HW157411  12.812   3.755  10.731
18524SOL    HW257412  12.856   3.613  10.706
18525SOL     OW57413   4.969   8.358  11.214
18525SOL    HW157414   4.898   8.339  11.153
18525SOL    HW257415   5.049   8.340  11.164
18526SOL     OW57416  11.307  11.908  11.460
18526SOL    HW157417  11.312  11.980  11.523
18526SOL    HW257418  11.393  11.867  11.463
18527SOL     OW57419   3.276  14.696   4.184
18527SOL    HW157420   3.246  14.782   4.154
18527SOL    HW257421   3.285  14.645   4.104
18528SOL     OW57422   0.981   7.923   9.618
18528SOL    HW157423   0.916   7.861   9.651
18528SOL    HW257424   1.004   7.890   9.531
18529SOL     OW57425  13.831   2.278  12.253
18529SOL    HW157426  13.900   2.307  12.194
18529SOL    HW257427  13.874   2.220  12.315
18530SOL     OW57428  13.440   5.415  12.564
18530SOL    HW157429  13.491   5.341  12.596
18530SOL    HW257430  13.352   5.380  12.551
18531SOL     OW57431  12.097   9.671   1.133
18531SOL    HW157432  12.188   9.693   1.154
18531SOL    HW257433  12.089   9.579   1.155
18532SOL     OW57434  11.070   7.128  10.735
18532SOL    HW157435  11.125   7.107  10.811
18532SOL    HW257436  11.130   7.128  10.661
18533SOL     OW57437  10.259   7.482   2.136
18533SOL    HW157438  10.192   7.464   2.202
18533SOL    HW257439  10.340   7.446   2.173
18534SOL     OW57440  14.506   3.096   6.044
18534SOL    HW157441  14.442   3.155   6.005
18534SOL    HW257442  14.508   3.120   6.137
18535SOL     OW57443   1.557  13.588   0.880
18535SOL    HW157444   1.619  13.531   0.925
18535SOL    HW257445   1.471  13.552   0.904
18536SOL     OW57446   4.683   6.124   8.674
18536SOL    HW157447   4.591   6.108   8.650
18536SOL    HW257448   4.679   6.154   8.765
18537SOL     OW57449  14.463  14.507   9.383
18537SOL    HW157450  14.413  14.468   9.312
18537SOL    HW257451  14.474  14.599   9.359
18538SOL     OW57452   0.701  12.677   1.890
18538SOL    HW157453   0.669  12.692   1.801
18538SOL    HW257454   0.654  12.741   1.943
18539SOL     OW57455   7.113   0.461   6.033
18539SOL    HW157456   7.132   0.443   5.941
18539SOL    HW257457   7.164   0.539   6.054
18540SOL     OW57458   9.455   4.477   4.598
18540SOL    HW157459   9.513   4.494   4.672
18540SOL    HW257460   9.402   4.557   4.591
18541SOL     OW57461   7.399   3.580   9.127
18541SOL    HW157462   7.347   3.659   9.141
18541SOL    HW257463   7.486   3.602   9.159
18542SOL     OW57464   5.971  10.590   1.704
18542SOL    HW157465   5.897  10.609   1.647
18542SOL    HW257466   5.971  10.495   1.714
18543SOL     OW57467   5.064   9.266   6.249
18543SOL    HW157468   4.995   9.292   6.309
18543SOL    HW257469   5.145   9.301   6.288
18544SOL     OW57470   6.715   6.670   0.098
18544SOL    HW157471   6.734   6.602   0.163
18544SOL    HW257472   6.652   6.727   0.142
18545SOL     OW57473   6.340  13.866   1.243
18545SOL    HW157474   6.425  13.904   1.221
18545SOL    HW257475   6.287  13.878   1.164
18546SOL     OW57476   1.560   5.227   6.936
18546SOL    HW157477   1.576   5.141   6.896
18546SOL    HW257478   1.540   5.208   7.027
18547SOL     OW57479   3.989   2.284   9.689
18547SOL    HW157480   4.022   2.353   9.746
18547SOL    HW257481   3.980   2.208   9.745
18548SOL     OW57482   6.464   9.500   7.591
18548SOL    HW157483   6.376   9.532   7.569
18548SOL    HW257484   6.503   9.476   7.507
18549SOL     OW57485   1.791   4.934   8.130
18549SOL    HW157486   1.702   4.966   8.116
18549SOL    HW257487   1.806   4.946   8.223
18550SOL     OW57488  12.460   8.924  14.578
18550SOL    HW157489  12.392   8.870  14.538
18550SOL    HW257490  12.529   8.929  14.511
18551SOL     OW57491   4.854   1.964   1.258
18551SOL    HW157492   4.924   2.003   1.205
18551SOL    HW257493   4.782   2.026   1.252
18552SOL     OW57494  11.072   3.216   8.657
18552SOL    HW157495  10.998   3.207   8.597
18552SOL    HW257496  11.141   3.161   8.619
18553SOL     OW57497   2.024   2.604  10.074
18553SOL    HW157498   1.963   2.545  10.118
18553SOL    HW257499   2.031   2.570   9.985
18554SOL     OW57500   1.318   8.338   6.071
18554SOL    HW157501   1.300   8.327   5.978
18554SOL    HW257502   1.408   8.372   6.074
18555SOL     OW57503  11.876   6.961  10.338
18555SOL    HW157504  11.833   7.021  10.399
18555SOL    HW257505  11.925   7.019  10.279
18556SOL     OW57506   6.368   0.719   6.749
18556SOL    HW157507   6.402   0.740   6.663
18556SOL    HW257508   6.350   0.625   6.745
18557SOL     OW57509   9.301   8.236  12.254
18557SOL    HW157510   9.288   8.141  12.247
18557SOL    HW257511   9.389   8.250  12.219
18558SOL     OW57512   6.155   4.139   5.552
18558SOL    HW157513   6.215   4.098   5.490
18558SOL    HW257514   6.191   4.117   5.638
18559SOL     OW57515   6.680   1.800   1.684
18559SOL    HW157516   6.590   1.770   1.675
18559SOL    HW257517   6.672   1.884   1.729
18560SOL     OW57518   5.821   8.357  10.868
18560SOL    HW157519   5.872   8.345  10.948
18560SOL    HW257520   5.847   8.284  10.812
18561SOL     OW57521   4.007   7.993  11.820
18561SOL    HW157522   3.944   8.062  11.844
18561SOL    HW257523   4.036   8.017  11.732
18562SOL     OW57524   1.994   9.924   9.903
18562SOL    HW157525   2.065   9.974   9.942
18562SOL    HW257526   1.991   9.953   9.812
18563SOL     OW57527   0.818  11.310  14.687
18563SOL    HW157528   0.813  11.248  14.760
18563SOL    HW257529   0.741  11.367  14.698
18564SOL     OW57530   8.737  14.615   3.812
18564SOL    HW157531   8.821  14.659   3.822
18564SOL    HW257532   8.731  14.557   3.888
18565SOL     OW57533   2.065  11.438  14.638
18565SOL    HW157534   2.013  11.409  14.713
18565SOL    HW257535   2.099  11.524  14.663
18566SOL     OW57536   0.002  14.048   1.517
18566SOL    HW157537   0.018  13.976   1.578
18566SOL    HW257538  14.863  14.123   1.574
18567SOL     OW57539   4.912   4.391  11.687
18567SOL    HW157540   4.954   4.476  11.676
18567SOL    HW257541   4.931   4.344  11.606
18568SOL     OW57542   6.238  11.480  12.878
18568SOL    HW157543   6.305  11.516  12.819
18568SOL    HW257544   6.168  11.545  12.876
18569SOL     OW57545   9.830  12.307  14.369
18569SOL    HW157546   9.889  12.265  14.307
18569SOL    HW257547   9.781  12.235  14.409
18570SOL     OW57548   1.443  10.453  13.212
18570SOL    HW157549   1.358  10.444  13.169
18570SOL    HW257550   1.426  10.428  13.303
18571SOL     OW57551   5.331   9.432   6.363
18571SOL    HW157552   5.348   9.477   6.280
18571SOL    HW257553   5.253   9.475   6.398
18572SOL     OW57554   0.100   1.840  10.371
18572SOL    HW157555   0.175   1.870  10.320
18572SOL    HW257556   0.031   1.826  10.307
18573SOL     OW57557  11.022   9.145   3.434
18573SOL    HW157558  10.944   9.180   3.476
18573SOL    HW257559  11.029   9.055   3.466
18574SOL     OW57560   3.409   7.539   1.004
18574SOL    HW157561   3.389   7.486   1.081
18574SOL    HW257562   3.416   7.628   1.038
18575SOL     OW57563  12.093   4.128   7.509
18575SOL    HW157564  12.149   4.050   7.506
18575SOL    HW257565  12.092   4.153   7.601
18576SOL     OW57566   7.135   7.608  13.084
18576SOL    HW157567   7.189   7.534  13.056
18576SOL    HW257568   7.121   7.592  13.177
18577SOL     OW57569   1.822   8.661   6.085
18577SOL    HW157570   1.876   8.601   6.033
18577SOL    HW257571   1.751   8.606   6.119
18578SOL     OW57572   2.001   2.111   7.626
18578SOL    HW157573   2.008   2.016   7.635
18578SOL    HW257574   1.926   2.135   7.681
18579SOL     OW57575   5.760   3.114  11.270
18579SOL    HW157576   5.783   3.207  11.273
18579SOL    HW257577   5.768   3.085  11.361
18580SOL     OW57578   1.067   3.417   0.799
18580SOL    HW157579   1.017   3.350   0.845
18580SOL    HW257580   1.011   3.495   0.801
18581SOL     OW57581   8.423   6.076   2.164
18581SOL    HW157582   8.514   6.068   2.192
18581SOL    HW257583   8.382   6.133   2.230
18582SOL     OW57584  12.305   7.849   2.570
18582SOL    HW157585  12.330   7.901   2.494
18582SOL    HW257586  12.379   7.791   2.586
18583SOL     OW57587  11.458   1.842   1.502
18583SOL    HW157588  11.376   1.816   1.460
18583SOL    HW257589  11.512   1.763   1.500
18584SOL     OW57590   2.347   9.009   4.538
18584SOL    HW157591   2.260   9.040   4.516
18584SOL    HW257592   2.340   8.978   4.628
18585SOL     OW57593   3.636   3.410   5.738
18585SOL    HW157594   3.711   3.369   5.695
18585SOL    HW257595   3.605   3.345   5.801
18586SOL     OW57596   6.227  10.314  11.396
18586SOL    HW157597   6.245  10.286  11.486
18586SOL    HW257598   6.136  10.342  11.398
18587SOL     OW57599  12.671   8.581   0.879
18587SOL    HW157600  12.766   8.581   0.867
18587SOL    HW257601  12.648   8.674   0.890
18588SOL     OW57602   8.515  14.184   0.347
18588SOL    HW157603   8.467  14.190   0.265
18588SOL    HW257604   8.550  14.095   0.349
18589SOL     OW57605   3.349   8.266   9.608
18589SOL    HW157606   3.297   8.311   9.675
18589SOL    HW257607   3.436   8.305   9.614
18590SOL     OW57608   4.788   3.493   9.070
18590SOL    HW157609   4.718   3.519   9.130
18590SOL    HW257610   4.831   3.575   9.047
18591SOL     OW57611   1.870   8.993  13.638
18591SOL    HW157612   1.950   8.940  13.644
18591SOL    HW257613   1.870   9.026  13.548
18592SOL     OW57614   2.924   7.976   4.193
18592SOL    HW157615   2.954   7.886   4.208
18592SOL    HW257616   2.964   8.027   4.263
18593SOL     OW57617   9.968  10.350   9.213
18593SOL    HW157618   9.990  10.304   9.132
18593SOL    HW257619  10.039  10.413   9.225
18594SOL     OW57620  12.695   4.050  13.109
18594SOL    HW157621  12.788   4.069  13.126
18594SOL    HW257622  12.684   3.960  13.138
18595SOL     OW57623   6.371  11.890   3.397
18595SOL    HW157624   6.459  11.881   3.433
18595SOL    HW257625   6.314  11.845   3.460
18596SOL     OW57626   5.871   2.820  11.383
18596SOL    HW157627   5.862   2.879  11.308
18596SOL    HW257628   5.920   2.746  11.351
18597SOL     OW57629   6.758   5.201   7.493
18597SOL    HW157630   6.776   5.134   7.559
18597SOL    HW257631   6.812   5.176   7.419
18598SOL     OW57632   2.659  14.250  14.008
18598SOL    HW157633   2.567  14.276  14.000
18598SOL    HW257634   2.707  14.333  14.015
18599SOL     OW57635   0.462   4.133   5.731
18599SOL    HW157636   0.397   4.165   5.793
18599SOL    HW257637   0.486   4.210   5.679
18600SOL     OW57638   3.765   9.746  10.398
18600SOL    HW157639   3.719   9.662  10.390
18600SOL    HW257640   3.698   9.812  10.382
18601SOL     OW57641  14.784   2.174   1.933
18601SOL    HW157642  14.731   2.097   1.911
18601SOL    HW257643  14.742   2.246   1.886
18602SOL     OW57644   1.594   7.337  10.526
18602SOL    HW157645   1.550   7.284  10.459
18602SOL    HW257646   1.608   7.277  10.599
18603SOL     OW57647   2.640   3.502   9.919
18603SOL    HW157648   2.705   3.497   9.989
18603SOL    HW257649   2.556   3.503   9.964
18604SOL     OW57650   4.424   2.856   4.791
18604SOL    HW157651   4.334   2.888   4.786
18604SOL    HW257652   4.448   2.837   4.701
18605SOL     OW57653  10.297   1.126   2.422
18605SOL    HW157654  10.292   1.043   2.470
18605SOL    HW257655  10.385   1.127   2.386
18606SOL     OW57656   8.694   4.509   3.980
18606SOL    HW157657   8.762   4.540   3.920
18606SOL    HW257658   8.742   4.483   4.059
18607SOL     OW57659   4.384   9.859  13.458
18607SOL    HW157660   4.359   9.812  13.378
18607SOL    HW257661   4.424   9.940  13.426
18608SOL     OW57662   4.564   7.967  13.244
18608SOL    HW157663   4.532   7.882  13.213
18608SOL    HW257664   4.585   7.953  13.337
18609SOL     OW57665   9.523   9.119  10.151
18609SOL    HW157666   9.523   9.113  10.056
18609SOL    HW257667   9.509   9.029  10.180
18610SOL     OW57668   2.563   4.755   3.637
18610SOL    HW157669   2.519   4.699   3.701
18610SOL    HW257670   2.600   4.694   3.573
18611SOL     OW57671   0.815  12.673  14.181
18611SOL    HW157672   0.864  12.716  14.111
18611SOL    HW257673   0.862  12.696  14.261
18612SOL     OW57674  10.994   0.752  12.163
18612SOL    HW157675  10.941   0.682  12.203
18612SOL    HW257676  10.961   0.833  12.203
18613SOL     OW57677  12.338   5.738   6.444
18613SOL    HW157678  12.298   5.712   6.527
18613SOL    HW257679  12.271   5.720   6.378
18614SOL     OW57680   3.723  11.869   6.687
18614SOL    HW157681   3.790  11.930   6.655
18614SOL    HW257682   3.771  11.789   6.709
18615SOL     OW57683   1.650   4.193   0.768
18615SOL    HW157684   1.594   4.262   0.805
18615SOL    HW257685   1.649   4.209   0.674
18616SOL     OW57686   9.326   5.456   9.292
18616SOL    HW157687   9.306   5.436   9.384
18616SOL    HW257688   9.369   5.378   9.259
18617SOL     OW57689   6.223   9.873   1.135
18617SOL    HW157690   6.269   9.907   1.212
18617SOL    HW257691   6.131   9.894   1.151
18618SOL     OW57692   3.755   3.582   3.531
18618SOL    HW157693   3.771   3.664   3.577
18618SOL    HW257694   3.727   3.608   3.444
18619SOL     OW57695   3.455  10.362  12.875
18619SOL    HW157696   3.372  10.408  12.888
18619SOL    HW257697   3.514  10.401  12.939
18620SOL     OW57698  12.973   2.318  11.408
18620SOL    HW157699  13.052   2.265  11.420
18620SOL    HW257700  12.930   2.318  11.493
18621SOL     OW57701   9.276   5.400  13.939
18621SOL    HW157702   9.239   5.484  13.911
18621SOL    HW257703   9.213   5.366  14.001
18622SOL     OW57704  14.220   8.803  10.127
18622SOL    HW157705  14.246   8.820  10.217
18622SOL    HW257706  14.253   8.878  10.078
18623SOL     OW57707  13.578  14.850   4.983
18623SOL    HW157708  13.661  14.801   4.980
18623SOL    HW257709  13.577   0.010   5.070
18624SOL     OW57710   5.796   8.396   9.229
18624SOL    HW157711   5.727   8.410   9.293
18624SOL    HW257712   5.846   8.477   9.230
18625SOL     OW57713  12.358   1.871   1.956
18625SOL    HW157714  12.448   1.847   1.977
18625SOL    HW257715  12.349   1.853   1.863
18626SOL     OW57716  12.796   2.593   4.280
18626SOL    HW157717  12.803   2.512   4.330
18626SOL    HW257718  12.703   2.604   4.265
18627SOL     OW57719  12.014   2.683   0.265
18627SOL    HW157720  12.104   2.694   0.296
18627SOL    HW257721  12.009   2.739   0.188
18628SOL     OW57722   1.607  10.643   2.604
18628SOL    HW157723   1.599  10.725   2.554
18628SOL    HW257724   1.532  10.643   2.663
18629SOL     OW57725   7.013   7.256   0.303
18629SOL    HW157726   7.045   7.169   0.326
18629SOL    HW257727   7.022   7.261   0.208
18630SOL     OW57728   8.448  10.414   8.315
18630SOL    HW157729   8.488  10.327   8.327
18630SOL    HW257730   8.386  10.402   8.243
18631SOL     OW57731   1.136   3.801   9.727
18631SOL    HW157732   1.149   3.836   9.815
18631SOL    HW257733   1.220   3.812   9.684
18632SOL     OW57734   6.651   7.711   1.462
18632SOL    HW157735   6.730   7.757   1.434
18632SOL    HW257736   6.654   7.627   1.416
18633SOL     OW57737  12.043   4.802   7.345
18633SOL    HW157738  12.095   4.776   7.269
18633SOL    HW257739  12.086   4.761   7.419
18634SOL     OW57740   1.193   3.787  14.773
18634SOL    HW157741   1.235   3.804  14.858
18634SOL    HW257742   1.119   3.848  14.771
18635SOL     OW57743   9.045   0.480  12.259
18635SOL    HW157744   9.021   0.569  12.234
18635SOL    HW257745   9.118   0.490  12.320
18636SOL     OW57746   1.612   0.129   0.273
18636SOL    HW157747   1.670   0.073   0.221
18636SOL    HW257748   1.667   0.201   0.302
18637SOL     OW57749   6.931  13.547   5.485
18637SOL    HW157750   6.947  13.575   5.575
18637SOL    HW257751   6.837  13.559   5.473
18638SOL     OW57752   3.815   1.548   8.507
18638SOL    HW157753   3.766   1.575   8.430
18638SOL    HW257754   3.895   1.601   8.505
18639SOL     OW57755   3.614  13.949  10.640
18639SOL    HW157756   3.690  13.997  10.608
18639SOL    HW257757   3.646  13.859  10.650
18640SOL     OW57758   7.524   2.940   1.765
18640SOL    HW157759   7.438   2.966   1.799
18640SOL    HW257760   7.581   2.939   1.842
18641SOL     OW57761   8.133  14.254  10.972
18641SOL    HW157762   8.102  14.198  11.044
18641SOL    HW257763   8.091  14.218  10.894
18642SOL     OW57764  11.175  14.783   9.411
18642SOL    HW157765  11.220  14.801   9.329
18642SOL    HW257766  11.239  14.808   9.479
18643SOL     OW57767  11.861  12.761   6.488
18643SOL    HW157768  11.788  12.817   6.461
18643SOL    HW257769  11.939  12.816   6.477
18644SOL     OW57770   6.646   1.522  12.676
18644SOL    HW157771   6.605   1.437  12.656
18644SOL    HW257772   6.651   1.567  12.591
18645SOL     OW57773   5.901   5.339   7.957
18645SOL    HW157774   5.934   5.376   8.039
18645SOL    HW257775   5.925   5.403   7.890
18646SOL     OW57776   1.164   3.604  10.473
18646SOL    HW157777   1.104   3.631  10.403
18646SOL    HW257778   1.116   3.536  10.521
18647SOL     OW57779   2.991  12.735   2.010
18647SOL    HW157780   3.072  12.783   2.026
18647SOL    HW257781   2.980  12.737   1.915
18648SOL     OW57782  12.899   2.365  12.317
18648SOL    HW157783  12.933   2.303  12.381
18648SOL    HW257784  12.929   2.332  12.233
18649SOL     OW57785   2.082   9.084   4.532
18649SOL    HW157786   2.042   9.008   4.490
18649SOL    HW257787   2.052   9.078   4.623
18650SOL     OW57788   4.781  12.080   5.310
18650SOL    HW157789   4.756  12.171   5.294
18650SOL    HW257790   4.818  12.080   5.399
18651SOL     OW57791   6.301   4.321   3.375
18651SOL    HW157792   6.358   4.385   3.419
18651SOL    HW257793   6.281   4.256   3.442
18652SOL     OW57794  14.122   3.859   6.113
18652SOL    HW157795  14.117   3.955   6.112
18652SOL    HW257796  14.102   3.835   6.204
18653SOL     OW57797   0.014   4.396  12.481
18653SOL    HW157798   0.072   4.337  12.529
18653SOL    HW257799  14.852   4.449  12.549
18654SOL     OW57800  12.125   7.106   9.673
18654SOL    HW157801  12.096   7.089   9.763
18654SOL    HW257802  12.045   7.101   9.620
18655SOL     OW57803  12.528  14.517  13.154
18655SOL    HW157804  12.538  14.516  13.249
18655SOL    HW257805  12.440  14.483  13.139
18656SOL     OW57806   6.553   9.445   4.497
18656SOL    HW157807   6.608   9.369   4.515
18656SOL    HW257808   6.464   9.411   4.499
18657SOL     OW57809  11.808  12.756   0.001
18657SOL    HW157810  11.755  12.701  14.823
18657SOL    HW257811  11.775  12.738   0.089
18658SOL     OW57812   1.585   0.995   3.524
18658SOL    HW157813   1.567   1.042   3.443
18658SOL    HW257814   1.508   0.939   3.537
18659SOL     OW57815  14.251  14.197  11.404
18659SOL    HW157816  14.339  14.176  11.371
18659SOL    HW257817  14.192  14.175  11.332
18660SOL     OW57818  11.925   6.756  12.526
18660SOL    HW157819  11.897   6.848  12.532
18660SOL    HW257820  11.896   6.718  12.609
18661SOL     OW57821   7.088   0.722  14.440
18661SOL    HW157822   7.073   0.783  14.512
18661SOL    HW257823   7.061   0.637  14.474
18662SOL     OW57824  11.641   4.897  14.212
18662SOL    HW157825  11.569   4.947  14.251
18662SOL    HW257826  11.677   4.957  14.146
18663SOL     OW57827  10.872  11.857  10.686
18663SOL    HW157828  10.846  11.919  10.618
18663SOL    HW257829  10.909  11.782  10.638
18664SOL     OW57830   3.813   8.895  11.266
18664SOL    HW157831   3.898   8.873  11.305
18664SOL    HW257832   3.801   8.830  11.197
18665SOL     OW57833   7.290   3.475   6.203
18665SOL    HW157834   7.373   3.465   6.251
18665SOL    HW257835   7.317   3.487   6.112
18666SOL     OW57836  11.039   4.371   1.597
18666SOL    HW157837  11.105   4.408   1.538
18666SOL    HW257838  10.975   4.440   1.609
18667SOL     OW57839  10.819   3.559   3.468
18667SOL    HW157840  10.809   3.477   3.515
18667SOL    HW257841  10.742   3.565   3.411
18668SOL     OW57842   9.796   1.619  14.623
18668SOL    HW157843   9.887   1.589  14.622
18668SOL    HW257844   9.789   1.680  14.550
18669SOL     OW57845   5.979   0.365   1.340
18669SOL    HW157846   6.028   0.290   1.374
18669SOL    HW257847   6.011   0.375   1.250
18670SOL     OW57848   7.006   3.858  10.378
18670SOL    HW157849   6.978   3.895  10.462
18670SOL    HW257850   6.927   3.855  10.325
18671SOL     OW57851  13.609  12.786   9.112
18671SOL    HW157852  13.575  12.770   9.200
18671SOL    HW257853  13.625  12.880   9.110
18672SOL     OW57854  14.855   7.534   1.240
18672SOL    HW157855   0.013   7.478   1.172
18672SOL    HW257856   0.019   7.618   1.228
18673SOL     OW57857  13.391  11.615  11.944
18673SOL    HW157858  13.299  11.641  11.942
18673SOL    HW257859  13.390  11.519  11.945
18674SOL     OW57860   8.611  13.338   5.388
18674SOL    HW157861   8.560  13.355   5.466
18674SOL    HW257862   8.680  13.278   5.416
18675SOL     OW57863   9.692   7.249   4.936
18675SOL    HW157864   9.715   7.336   4.906
18675SOL    HW257865   9.695   7.194   4.858
18676SOL     OW57866   7.528   3.079  12.770
18676SOL    HW157867   7.485   3.041  12.693
18676SOL    HW257868   7.459   3.081  12.836
18677SOL     OW57869   5.509   8.557   7.745
18677SOL    HW157870   5.549   8.632   7.702
18677SOL    HW257871   5.582   8.506   7.779
18678SOL     OW57872   7.504  13.390   0.873
18678SOL    HW157873   7.582  13.446   0.864
18678SOL    HW257874   7.432  13.452   0.886
18679SOL     OW57875  13.711   0.458  10.609
18679SOL    HW157876  13.659   0.447  10.529
18679SOL    HW257877  13.675   0.394  10.670
18680SOL     OW57878   5.892   7.729  12.412
18680SOL    HW157879   5.837   7.718  12.335
18680SOL    HW257880   5.969   7.776  12.380
18681SOL     OW57881  11.434  13.231  13.565
18681SOL    HW157882  11.437  13.302  13.501
18681SOL    HW257883  11.354  13.183  13.543
18682SOL     OW57884   6.857   2.999   1.424
18682SOL    HW157885   6.795   2.967   1.489
18682SOL    HW257886   6.803   3.022   1.349
18683SOL     OW57887  10.483   6.516   8.365
18683SOL    HW157888  10.394   6.524   8.331
18683SOL    HW257889  10.473   6.483   8.454
18684SOL     OW57890   8.020  10.469   9.669
18684SOL    HW157891   8.093  10.419   9.707
18684SOL    HW257892   7.943  10.440   9.718
18685SOL     OW57893   6.372  14.842   2.939
18685SOL    HW157894   6.419  14.774   2.891
18685SOL    HW257895   6.304  14.872   2.879
18686SOL     OW57896   8.146   7.276  14.714
18686SOL    HW157897   8.072   7.336  14.709
18686SOL    HW257898   8.166   7.256  14.623
18687SOL     OW57899  13.188  10.228  12.571
18687SOL    HW157900  13.237  10.153  12.538
18687SOL    HW257901  13.230  10.249  12.654
18688SOL     OW57902   5.046  12.314  12.905
18688SOL    HW157903   5.063  12.283  12.993
18688SOL    HW257904   4.950  12.312  12.896
18689SOL     OW57905   6.972  12.965   3.097
18689SOL    HW157906   6.935  13.053   3.088
18689SOL    HW257907   6.896  12.909   3.115
18690SOL     OW57908  11.989   5.529   9.347
18690SOL    HW157909  12.032   5.596   9.401
18690SOL    HW257910  11.950   5.469   9.410
18691SOL     OW57911   2.200   8.637   4.925
18691SOL    HW157912   2.275   8.694   4.942
18691SOL    HW257913   2.238   8.551   4.909
18692SOL     OW57914  12.577  12.255  12.824
18692SOL    HW157915  12.672  12.262  12.816
18692SOL    HW257916  12.559  12.277  12.916
18693SOL     OW57917   5.059   5.024  11.927
18693SOL    HW157918   5.030   4.988  12.012
18693SOL    HW257919   5.060   5.118  11.940
18694SOL     OW57920  13.622   1.510   0.871
18694SOL    HW157921  13.714   1.488   0.884
18694SOL    HW257922  13.623   1.595   0.827
18695SOL     OW57923   9.403   4.126   9.432
18695SOL    HW157924   9.369   4.157   9.348
18695SOL    HW257925   9.379   4.033   9.433
18696SOL     OW57926  12.131   8.942   0.261
18696SOL    HW157927  12.052   8.966   0.311
18696SOL    HW257928  12.163   9.026   0.226
18697SOL     OW57929   9.942  14.016  11.203
18697SOL    HW157930   9.904  13.928  11.216
18697SOL    HW257931   9.971  14.042  11.290
18698SOL     OW57932  10.230   5.256  10.462
18698SOL    HW157933  10.179   5.298  10.531
18698SOL    HW257934  10.274   5.183  10.506
18699SOL     OW57935  14.448   4.323   0.498
18699SOL    HW157936  14.367   4.272   0.498
18699SOL    HW257937  14.420   4.411   0.523
18700SOL     OW57938  12.945   0.837   1.276
18700SOL    HW157939  13.037   0.859   1.258
18700SOL    HW257940  12.897   0.916   1.251
18701SOL     OW57941  12.263   5.854   6.097
18701SOL    HW157942  12.263   5.935   6.148
18701SOL    HW257943  12.308   5.878   6.016
18702SOL     OW57944   4.661  12.058   1.519
18702SOL    HW157945   4.690  11.967   1.524
18702SOL    HW257946   4.707  12.101   1.591
18703SOL     OW57947   5.285   3.965   2.713
18703SOL    HW157948   5.323   3.887   2.753
18703SOL    HW257949   5.323   4.038   2.763
18704SOL     OW57950   9.944   7.040   0.411
18704SOL    HW157951   9.895   6.972   0.457
18704SOL    HW257952   9.947   7.114   0.473
18705SOL     OW57953   6.001   9.240  10.264
18705SOL    HW157954   5.911   9.266  10.282
18705SOL    HW257955   6.031   9.303  10.199
18706SOL     OW57956   5.642   0.985   3.246
18706SOL    HW157957   5.619   1.077   3.260
18706SOL    HW257958   5.667   0.979   3.154
18707SOL     OW57959   1.630   5.089  14.020
18707SOL    HW157960   1.714   5.097  13.973
18707SOL    HW257961   1.655   5.091  14.112
18708SOL     OW57962   7.482  14.437   5.663
18708SOL    HW157963   7.562  14.449   5.611
18708SOL    HW257964   7.438  14.362   5.623
18709SOL     OW57965   4.629   8.985   8.502
18709SOL    HW157966   4.546   9.016   8.540
18709SOL    HW257967   4.674   8.943   8.575
18710SOL     OW57968  13.905   5.167  10.933
18710SOL    HW157969  13.994   5.136  10.920
18710SOL    HW257970  13.874   5.120  11.011
18711SOL     OW57971  14.595   2.341   1.732
18711SOL    HW157972  14.584   2.307   1.643
18711SOL    HW257973  14.551   2.276   1.787
18712SOL     OW57974  14.469  12.363   3.152
18712SOL    HW157975  14.415  12.437   3.124
18712SOL    HW257976  14.543  12.363   3.090
18713SOL     OW57977  11.283   4.711   5.123
18713SOL    HW157978  11.354   4.705   5.059
18713SOL    HW257979  11.206   4.681   5.077
18714SOL     OW57980   0.495   2.707   7.676
18714SOL    HW157981   0.454   2.719   7.762
18714SOL    HW257982   0.488   2.792   7.633
18715SOL     OW57983   5.170   9.918  12.163
18715SOL    HW157984   5.114   9.894  12.237
18715SOL    HW257985   5.204   9.835  12.130
18716SOL     OW57986  13.386  11.044   8.601
18716SOL    HW157987  13.423  11.124   8.638
18716SOL    HW257988  13.443  10.974   8.631
18717SOL     OW57989   2.100   0.988   9.114
18717SOL    HW157990   2.173   1.046   9.136
18717SOL    HW257991   2.124   0.952   9.029
18718SOL     OW57992  10.350  13.090  14.580
18718SOL    HW157993  10.324  13.182  14.582
18718SOL    HW257994  10.411  13.084  14.507
18719SOL     OW57995  10.575  10.930  11.829
18719SOL    HW157996  10.570  10.912  11.923
18719SOL    HW257997  10.669  10.932  11.810
18720SOL     OW57998   0.022   6.026   9.416
18720SOL    HW157999   0.025   6.116   9.449
18720SOL    HW258000  14.851   6.032   9.335
18721SOL     OW58001   2.916  11.811  11.212
18721SOL    HW158002   2.837  11.858  11.238
18721SOL    HW258003   2.982  11.839  11.276
18722SOL     OW58004   6.780  13.424   1.520
18722SOL    HW158005   6.818  13.512   1.521
18722SOL    HW258006   6.844  13.370   1.473
18723SOL     OW58007   0.690  10.203  13.564
18723SOL    HW158008   0.663  10.172  13.478
18723SOL    HW258009   0.667  10.296  13.564
18724SOL     OW58010   5.332  13.314   1.662
18724SOL    HW158011   5.426  13.314   1.648
18724SOL    HW258012   5.320  13.267   1.745
18725SOL     OW58013  13.510  12.072   0.118
18725SOL    HW158014  13.446  12.068   0.189
18725SOL    HW258015  13.468  12.026   0.045
18726SOL     OW58016   3.540   1.062   6.764
18726SOL    HW158017   3.445   1.065   6.752
18726SOL    HW258018   3.574   1.130   6.706
18727SOL     OW58019  10.574  13.261  12.558
18727SOL    HW158020  10.567  13.220  12.644
18727SOL    HW258021  10.587  13.188  12.497
18728SOL     OW58022   1.907   1.159   6.748
18728SOL    HW158023   1.871   1.176   6.661
18728SOL    HW258024   1.996   1.127   6.731
18729SOL     OW58025  12.106   0.357   2.841
18729SOL    HW158026  12.103   0.412   2.919
18729SOL    HW258027  12.059   0.407   2.774
18730SOL     OW58028   5.522   2.221   9.883
18730SOL    HW158029   5.540   2.251   9.794
18730SOL    HW258030   5.602   2.177   9.910
18731SOL     OW58031  11.795  10.224  12.104
18731SOL    HW158032  11.701  10.216  12.124
18731SOL    HW258033  11.798  10.285  12.030
18732SOL     OW58034   6.128   9.953   0.779
18732SOL    HW158035   6.068  10.012   0.734
18732SOL    HW258036   6.161  10.004   0.853
18733SOL     OW58037   5.461  10.471  11.705
18733SOL    HW158038   5.507  10.414  11.766
18733SOL    HW258039   5.369  10.450  11.716
18734SOL     OW58040  10.137  12.280   6.507
18734SOL    HW158041  10.098  12.242   6.585
18734SOL    HW258042  10.146  12.206   6.446
18735SOL     OW58043  10.924  12.886   9.650
18735SOL    HW158044  10.830  12.867   9.647
18735SOL    HW258045  10.929  12.981   9.638
18736SOL     OW58046   7.381  14.695   3.200
18736SOL    HW158047   7.455  14.688   3.260
18736SOL    HW258048   7.328  14.617   3.218
18737SOL     OW58049  11.166   9.556   7.791
18737SOL    HW158050  11.114   9.547   7.871
18737SOL    HW258051  11.187   9.466   7.766
18738SOL     OW58052  13.735   7.106  13.768
18738SOL    HW158053  13.732   7.031  13.708
18738SOL    HW258054  13.749   7.068  13.854
18739SOL     OW58055   3.991   0.782  11.350
18739SOL    HW158056   4.079   0.774  11.314
18739SOL    HW258057   3.945   0.840  11.290
18740SOL     OW58058   0.312  12.211   3.451
18740SOL    HW158059   0.392  12.190   3.499
18740SOL    HW258060   0.243  12.206   3.516
18741SOL     OW58061   4.664  14.413   9.257
18741SOL    HW158062   4.626  14.443   9.174
18741SOL    HW258063   4.757  14.434   9.249
18742SOL     OW58064   7.983   2.328   2.189
18742SOL    HW158065   7.953   2.268   2.121
18742SOL    HW258066   7.907   2.338   2.247
18743SOL     OW58067  13.569  14.082   8.462
18743SOL    HW158068  13.627  14.051   8.392
18743SOL    HW258069  13.542  14.003   8.508
18744SOL     OW58070  13.576  10.648   4.503
18744SOL    HW158071  13.614  10.719   4.555
18744SOL    HW258072  13.481  10.663   4.508
18745SOL     OW58073  14.496   9.380   2.968
18745SOL    HW158074  14.449   9.445   2.917
18745SOL    HW258075  14.585   9.414   2.975
18746SOL     OW58076   9.106   0.191   7.376
18746SOL    HW158077   9.196   0.192   7.344
18746SOL    HW258078   9.055   0.156   7.302
18747SOL     OW58079  11.394  11.185   2.761
18747SOL    HW158080  11.446  11.250   2.714
18747SOL    HW258081  11.403  11.210   2.853
18748SOL     OW58082   2.376   9.785   3.617
18748SOL    HW158083   2.362   9.783   3.522
18748SOL    HW258084   2.288   9.784   3.654
18749SOL     OW58085  14.079  11.113  11.279
18749SOL    HW158086  14.127  11.116  11.362
18749SOL    HW258087  14.016  11.042  11.290
18750SOL     OW58088   2.244  13.446   6.443
18750SOL    HW158089   2.239  13.460   6.538
18750SOL    HW258090   2.337  13.438   6.424
18751SOL     OW58091   1.576   3.350   9.419
18751SOL    HW158092   1.503   3.293   9.440
18751SOL    HW258093   1.646   3.324   9.479
18752SOL     OW58094  11.573  13.818   9.923
18752SOL    HW158095  11.580  13.839  10.015
18752SOL    HW258096  11.508  13.747   9.919
18753SOL     OW58097   1.463  13.971  13.672
18753SOL    HW158098   1.445  14.064  13.687
18753SOL    HW258099   1.456  13.931  13.758
18754SOL     OW58100   6.612   3.393   4.686
18754SOL    HW158101   6.662   3.312   4.676
18754SOL    HW258102   6.523   3.364   4.706
18755SOL     OW58103  10.845   1.017   1.820
18755SOL    HW158104  10.882   1.102   1.798
18755SOL    HW258105  10.865   0.962   1.744
18756SOL     OW58106   9.160   2.054   9.427
18756SOL    HW158107   9.134   2.146   9.428
18756SOL    HW258108   9.251   2.055   9.398
18757SOL     OW58109   3.633   0.871  14.557
18757SOL    HW158110   3.657   0.960  14.586
18757SOL    HW258111   3.556   0.849  14.610
18758SOL     OW58112  12.742  10.233   1.461
18758SOL    HW158113  12.806  10.304   1.458
18758SOL    HW258114  12.692  10.242   1.380
18759SOL     OW58115  10.204  14.561  10.900
18759SOL    HW158116  10.264  14.606  10.961
18759SOL    HW258117  10.202  14.617  10.823
18760SOL     OW58118   5.356  13.092   5.272
18760SOL    HW158119   5.275  13.122   5.313
18760SOL    HW258120   5.400  13.172   5.243
18761SOL     OW58121   4.843   4.926   7.380
18761SOL    HW158122   4.752   4.916   7.352
18761SOL    HW258123   4.837   4.959   7.470
18762SOL     OW58124   4.039   6.975  10.557
18762SOL    HW158125   3.999   6.988  10.471
18762SOL    HW258126   4.127   6.942  10.538
18763SOL     OW58127   1.596   0.707  10.681
18763SOL    HW158128   1.667   0.771  10.684
18763SOL    HW258129   1.552   0.724  10.598
18764SOL     OW58130   0.128  14.393   6.868
18764SOL    HW158131   0.129  14.345   6.950
18764SOL    HW258132   0.039  14.385   6.836
18765SOL     OW58133  11.502   9.209   4.491
18765SOL    HW158134  11.523   9.169   4.575
18765SOL    HW258135  11.494   9.135   4.430
18766SOL     OW58136  14.239  12.388   4.669
18766SOL    HW158137  14.332  12.406   4.661
18766SOL    HW258138  14.226  12.305   4.622
18767SOL     OW58139   1.612   1.484  12.064
18767SOL    HW158140   1.521   1.489  12.034
18767SOL    HW258141   1.605   1.469  12.159
18768SOL     OW58142  11.280   0.114   0.229
18768SOL    HW158143  11.304   0.200   0.192
18768SOL    HW258144  11.351   0.056   0.202
18769SOL     OW58145   2.296   4.549  14.671
18769SOL    HW158146   2.262   4.591  14.750
18769SOL    HW258147   2.380   4.594  14.655
18770SOL     OW58148   0.955  13.911   4.254
18770SOL    HW158149   1.033  13.883   4.302
18770SOL    HW258150   0.907  13.830   4.238
18771SOL     OW58151   7.258   0.420  11.220
18771SOL    HW158152   7.334   0.465  11.183
18771SOL    HW258153   7.285   0.328  11.226
18772SOL     OW58154  12.877  11.150  13.815
18772SOL    HW158155  12.851  11.229  13.767
18772SOL    HW258156  12.964  11.170  13.850
18773SOL     OW58157  10.137  14.777   1.150
18773SOL    HW158158  10.140  14.760   1.056
18773SOL    HW258159  10.096  14.698   1.187
18774SOL     OW58160   4.896   6.631  14.311
18774SOL    HW158161   4.959   6.588  14.368
18774SOL    HW258162   4.912   6.725  14.324
18775SOL     OW58163   6.901  12.815  13.878
18775SOL    HW158164   6.809  12.838  13.895
18775SOL    HW258165   6.915  12.735  13.928
18776SOL     OW58166  12.916  10.794  13.437
18776SOL    HW158167  12.893  10.883  13.464
18776SOL    HW258168  13.011  10.796  13.424
18777SOL     OW58169   5.348  10.043   3.538
18777SOL    HW158170   5.280   9.990   3.580
18777SOL    HW258171   5.409  10.065   3.609
18778SOL     OW58172  11.328   3.902   1.658
18778SOL    HW158173  11.309   3.976   1.601
18778SOL    HW258174  11.375   3.840   1.602
18779SOL     OW58175  14.254  10.442   5.867
18779SOL    HW158176  14.302  10.518   5.831
18779SOL    HW258177  14.315  10.403   5.929
18780SOL     OW58178  13.521   5.642   1.060
18780SOL    HW158179  13.545   5.652   0.968
18780SOL    HW258180  13.505   5.548   1.070
18781SOL     OW58181   6.426   7.137   6.256
18781SOL    HW158182   6.504   7.141   6.200
18781SOL    HW258183   6.401   7.229   6.268
18782SOL     OW58184   6.852   4.358  10.605
18782SOL    HW158185   6.761   4.389  10.604
18782SOL    HW258186   6.858   4.301  10.528
18783SOL     OW58187  14.807   1.534   0.815
18783SOL    HW158188  14.787   1.620   0.851
18783SOL    HW258189   0.013   1.512   0.851
18784SOL     OW58190   4.038  11.772   4.907
18784SOL    HW158191   4.060  11.811   4.822
18784SOL    HW258192   3.948  11.742   4.897
18785SOL     OW58193   3.048  11.414   0.590
18785SOL    HW158194   3.016  11.365   0.514
18785SOL    HW258195   3.046  11.350   0.661
18786SOL     OW58196  10.399   4.926   2.205
18786SOL    HW158197  10.479   4.873   2.195
18786SOL    HW258198  10.409   4.969   2.290
18787SOL     OW58199   2.866  12.571  13.502
18787SOL    HW158200   2.853  12.631  13.576
18787SOL    HW258201   2.789  12.585  13.447
18788SOL     OW58202  14.282   4.354   3.329
18788SOL    HW158203  14.368   4.391   3.351
18788SOL    HW258204  14.229   4.371   3.406
18789SOL     OW58205   0.025   0.108   0.122
18789SOL    HW158206  14.833   0.171   0.135
18789SOL    HW258207   0.013   0.043   0.191
18790SOL     OW58208  10.149   4.931   2.523
18790SOL    HW158209  10.061   4.941   2.486
18790SOL    HW258210  10.158   4.838   2.541
18791SOL     OW58211   5.230   4.210   3.142
18791SOL    HW158212   5.285   4.287   3.153
18791SOL    HW258213   5.238   4.162   3.225
18792SOL     OW58214  10.696   8.334  10.930
18792SOL    HW158215  10.755   8.351  10.857
18792SOL    HW258216  10.667   8.420  10.959
18793SOL     OW58217  14.619  14.766   1.676
18793SOL    HW158218  14.673  14.839   1.645
18793SOL    HW258219  14.592  14.792   1.764
18794SOL     OW58220   2.973  13.963   1.554
18794SOL    HW158221   2.933  14.041   1.516
18794SOL    HW258222   2.899  13.903   1.568
18795SOL     OW58223   6.092   4.963   8.747
18795SOL    HW158224   6.049   5.033   8.796
18795SOL    HW258225   6.020   4.917   8.702
18796SOL     OW58226   6.811   5.039   0.530
18796SOL    HW158227   6.821   4.949   0.562
18796SOL    HW258228   6.839   5.035   0.439
18797SOL     OW58229   3.549   4.557   9.429
18797SOL    HW158230   3.541   4.606   9.348
18797SOL    HW258231   3.610   4.486   9.408
18798SOL     OW58232  12.170  14.729   4.463
18798SOL    HW158233  12.083  14.770   4.460
18798SOL    HW258234  12.186  14.700   4.374
18799SOL     OW58235   1.908  10.495   4.761
18799SOL    HW158236   1.909  10.462   4.672
18799SOL    HW258237   1.914  10.590   4.751
18800SOL     OW58238   9.938   3.154   5.043
18800SOL    HW158239   9.935   3.066   5.007
18800SOL    HW258240   9.920   3.211   4.969
18801SOL     OW58241   4.361   9.960   9.333
18801SOL    HW158242   4.392  10.006   9.410
18801SOL    HW258243   4.371  10.022   9.261
18802SOL     OW58244   1.045   3.127   4.021
18802SOL    HW158245   1.078   3.071   4.091
18802SOL    HW258246   0.968   3.170   4.058
18803SOL     OW58247   2.872  11.884   2.691
18803SOL    HW158248   2.848  11.864   2.600
18803SOL    HW258249   2.795  11.928   2.727
18804SOL     OW58250   3.681   1.303   9.577
18804SOL    HW158251   3.701   1.214   9.549
18804SOL    HW258252   3.701   1.304   9.671
18805SOL     OW58253  12.850  11.347   1.705
18805SOL    HW158254  12.921  11.324   1.765
18805SOL    HW258255  12.891  11.348   1.618
18806SOL     OW58256  12.698   7.241   3.537
18806SOL    HW158257  12.639   7.185   3.587
18806SOL    HW258258  12.640   7.304   3.494
18807SOL     OW58259   3.198   0.292   3.372
18807SOL    HW158260   3.192   0.202   3.342
18807SOL    HW258261   3.134   0.299   3.443
18808SOL     OW58262   8.323   7.387  14.435
18808SOL    HW158263   8.319   7.480  14.456
18808SOL    HW258264   8.324   7.384  14.339
18809SOL     OW58265  14.782   9.470   8.144
18809SOL    HW158266  14.693   9.473   8.109
18809SOL    HW258267  14.835   9.520   8.082
18810SOL     OW58268  11.628  10.581  12.509
18810SOL    HW158269  11.581  10.601  12.590
18810SOL    HW258270  11.594  10.645  12.446
18811SOL     OW58271   7.762   0.572   9.232
18811SOL    HW158272   7.757   0.488   9.186
18811SOL    HW258273   7.816   0.553   9.309
18812SOL     OW58274   6.481  10.721   1.393
18812SOL    HW158275   6.473  10.774   1.472
18812SOL    HW258276   6.563  10.750   1.353
18813SOL     OW58277   2.571   4.479   6.446
18813SOL    HW158278   2.623   4.527   6.381
18813SOL    HW258279   2.487   4.526   6.447
18814SOL     OW58280   8.915   5.153   6.865
18814SOL    HW158281   8.870   5.072   6.842
18814SOL    HW258282   8.946   5.187   6.782
18815SOL     OW58283   6.003  14.050  10.846
18815SOL    HW158284   6.050  13.969  10.865
18815SOL    HW258285   5.983  14.087  10.932
18816SOL     OW58286   6.470   5.510   0.846
18816SOL    HW158287   6.486   5.479   0.935
18816SOL    HW258288   6.449   5.603   0.856
18817SOL     OW58289  10.953   4.595   0.181
18817SOL    HW158290  11.009   4.518   0.186
18817SOL    HW258291  11.006   4.666   0.216
18818SOL     OW58292   2.125  14.718   3.344
18818SOL    HW158293   2.112  14.789   3.281
18818SOL    HW258294   2.170  14.649   3.294
18819SOL     OW58295  11.215  11.427   5.255
18819SOL    HW158296  11.242  11.349   5.207
18819SOL    HW258297  11.227  11.404   5.347
18820SOL     OW58298   1.080  10.807  10.849
18820SOL    HW158299   1.151  10.844  10.796
18820SOL    HW258300   1.054  10.878  10.907
18821SOL     OW58301   6.401   7.930   6.019
18821SOL    HW158302   6.420   7.865   5.951
18821SOL    HW258303   6.451   8.008   5.992
18822SOL     OW58304  13.926  11.572   2.640
18822SOL    HW158305  13.969  11.656   2.629
18822SOL    HW258306  13.981  11.510   2.592
18823SOL     OW58307  10.474   9.021   5.091
18823SOL    HW158308  10.512   9.100   5.053
18823SOL    HW258309  10.449   9.046   5.179
18824SOL     OW58310  14.314   5.043   6.557
18824SOL    HW158311  14.237   5.005   6.516
18824SOL    HW258312  14.288   5.133   6.577
18825SOL     OW58313  12.753   5.119  13.757
18825SOL    HW158314  12.665   5.113  13.721
18825SOL    HW258315  12.756   5.204  13.801
18826SOL     OW58316   8.518  12.739  10.561
18826SOL    HW158317   8.427  12.770  10.565
18826SOL    HW258318   8.528  12.684  10.639
18827SOL     OW58319   1.175   7.704   1.300
18827SOL    HW158320   1.217   7.636   1.352
18827SOL    HW258321   1.216   7.698   1.214
18828SOL     OW58322   6.842   4.138  11.043
18828SOL    HW158323   6.932   4.127  11.011
18828SOL    HW258324   6.850   4.143  11.138
18829SOL     OW58325   0.303   4.612   8.927
18829SOL    HW158326   0.219   4.658   8.938
18829SOL    HW258327   0.280   4.519   8.925
18830SOL     OW58328  11.042  12.626   2.268
18830SOL    HW158329  11.017  12.578   2.189
18830SOL    HW258330  11.014  12.570   2.340
18831SOL     OW58331   9.421   9.513   1.937
18831SOL    HW158332   9.340   9.463   1.947
18831SOL    HW258333   9.483   9.470   1.995
18832SOL     OW58334  10.188   2.431  12.905
18832SOL    HW158335  10.156   2.496  12.843
18832SOL    HW258336  10.156   2.462  12.990
18833SOL     OW58337   9.298  10.220   6.481
18833SOL    HW158338   9.292  10.130   6.449
18833SOL    HW258339   9.391  10.240   6.479
18834SOL     OW58340   9.675   9.465  11.082
18834SOL    HW158341   9.769   9.451  11.082
18834SOL    HW258342   9.661   9.534  11.016
18835SOL     OW58343   4.386  10.770  12.144
18835SOL    HW158344   4.476  10.777  12.176
18835SOL    HW258345   4.391  10.801  12.054
18836SOL     OW58346   4.509   8.555   7.528
18836SOL    HW158347   4.441   8.529   7.591
18836SOL    HW258348   4.466   8.553   7.443
18837SOL     OW58349  14.607  14.277   1.641
18837SOL    HW158350  14.569  14.362   1.661
18837SOL    HW258351  14.702  14.293   1.642
18838SOL     OW58352  11.917   2.264   0.456
18838SOL    HW158353  11.894   2.333   0.393
18838SOL    HW258354  11.834   2.239   0.495
18839SOL     OW58355   0.903  14.451   3.321
18839SOL    HW158356   0.848  14.519   3.282
18839SOL    HW258357   0.884  14.456   3.415
18840SOL     OW58358  14.737   9.376   0.279
18840SOL    HW158359  14.722   9.402   0.189
18840SOL    HW258360  14.798   9.302   0.274
18841SOL     OW58361  14.055   3.373   1.206
18841SOL    HW158362  14.099   3.368   1.291
18841SOL    HW258363  13.975   3.422   1.223
18842SOL     OW58364   8.216  11.747  11.809
18842SOL    HW158365   8.127  11.714  11.808
18842SOL    HW258366   8.232  11.778  11.720
18843SOL     OW58367  12.295   2.830   5.542
18843SOL    HW158368  12.363   2.779   5.496
18843SOL    HW258369  12.223   2.836   5.479
18844SOL     OW58370   1.020  10.757   9.914
18844SOL    HW158371   1.015  10.662   9.901
18844SOL    HW258372   0.946  10.792   9.864
18845SOL     OW58373   8.488  10.456   8.931
18845SOL    HW158374   8.429  10.386   8.901
18845SOL    HW258375   8.441  10.537   8.912
18846SOL     OW58376  14.652   2.025   9.790
18846SOL    HW158377  14.658   2.008   9.884
18846SOL    HW258378  14.564   1.995   9.766
18847SOL     OW58379   5.077  13.760   1.266
18847SOL    HW158380   5.167  13.786   1.288
18847SOL    HW258381   5.041  13.836   1.221
18848SOL     OW58382   3.032   1.175  10.512
18848SOL    HW158383   3.087   1.196  10.437
18848SOL    HW258384   2.983   1.098  10.484
18849SOL     OW58385   0.119   9.987   2.247
18849SOL    HW158386   0.084   9.976   2.158
18849SOL    HW258387   0.196   9.930   2.250
18850SOL     OW58388   1.777   5.265   8.416
18850SOL    HW158389   1.686   5.294   8.418
18850SOL    HW258390   1.808   5.278   8.506
18851SOL     OW58391  13.191   8.030  10.807
18851SOL    HW158392  13.143   8.032  10.890
18851SOL    HW258393  13.125   8.053  10.742
18852SOL     OW58394   1.002   3.400  10.605
18852SOL    HW158395   0.937   3.422  10.671
18852SOL    HW258396   1.067   3.348  10.653
18853SOL     OW58397   1.000   8.173  11.107
18853SOL    HW158398   1.047   8.103  11.062
18853SOL    HW258399   1.055   8.250  11.095
18854SOL     OW58400   7.465  12.462   0.875
18854SOL    HW158401   7.537  12.465   0.812
18854SOL    HW258402   7.483  12.385   0.929
18855SOL     OW58403   2.737  12.977   3.758
18855SOL    HW158404   2.728  13.060   3.805
18855SOL    HW258405   2.650  12.959   3.722
18856SOL     OW58406  11.781   9.414   7.857
18856SOL    HW158407  11.824   9.498   7.842
18856SOL    HW258408  11.692   9.426   7.824
18857SOL     OW58409  12.322   9.539  10.514
18857SOL    HW158410  12.277   9.618  10.545
18857SOL    HW258411  12.253   9.484  10.479
18858SOL     OW58412   4.874  12.897  10.632
18858SOL    HW158413   4.870  12.953  10.554
18858SOL    HW258414   4.968  12.884  10.647
18859SOL     OW58415   2.108   3.000  14.664
18859SOL    HW158416   2.062   3.064  14.718
18859SOL    HW258417   2.201   3.024  14.671
18860SOL     OW58418   5.264   6.994   4.126
18860SOL    HW158419   5.186   7.043   4.098
18860SOL    HW258420   5.235   6.948   4.205
18861SOL     OW58421   2.528   7.509  13.621
18861SOL    HW158422   2.565   7.423  13.639
18861SOL    HW258423   2.576   7.540  13.545
18862SOL     OW58424  11.650   9.594  10.255
18862SOL    HW158425  11.649   9.614  10.348
18862SOL    HW258426  11.658   9.498  10.251
18863SOL     OW58427   4.364   5.331   1.664
18863SOL    HW158428   4.443   5.321   1.611
18863SOL    HW258429   4.307   5.387   1.612
18864SOL     OW58430   8.533   0.088   4.022
18864SOL    HW158431   8.494   0.029   4.088
18864SOL    HW258432   8.569   0.160   4.073
18865SOL     OW58433   5.061  10.827  13.223
18865SOL    HW158434   5.002  10.867  13.159
18865SOL    HW258435   5.023  10.740  13.239
18866SOL     OW58436   7.217   1.827   0.809
18866SOL    HW158437   7.221   1.904   0.866
18866SOL    HW258438   7.222   1.752   0.868
18867SOL     OW58439   5.380  12.482   8.416
18867SOL    HW158440   5.329  12.482   8.335
18867SOL    HW258441   5.471  12.492   8.387
18868SOL     OW58442   8.798  10.949  10.361
18868SOL    HW158443   8.751  10.868  10.339
18868SOL    HW258444   8.864  10.958  10.292
18869SOL     OW58445   9.678   1.085   2.321
18869SOL    HW158446   9.633   1.141   2.257
18869SOL    HW258447   9.643   1.113   2.406
18870SOL     OW58448   5.821   3.369  13.689
18870SOL    HW158449   5.912   3.381  13.715
18870SOL    HW258450   5.785   3.310  13.755
18871SOL     OW58451   6.916  12.114   1.901
18871SOL    HW158452   6.836  12.106   1.952
18871SOL    HW258453   6.962  12.031   1.913
18872SOL     OW58454  10.156   9.262  11.164
18872SOL    HW158455  10.188   9.282  11.077
18872SOL    HW258456  10.235   9.255  11.218
18873SOL     OW58457   5.469   6.663  12.499
18873SOL    HW158458   5.509   6.600  12.438
18873SOL    HW258459   5.455   6.613  12.579
18874SOL     OW58460  14.879  13.056   3.018
18874SOL    HW158461  14.813  13.011   2.965
18874SOL    HW258462  14.852  13.037   3.109
18875SOL     OW58463   3.897   2.035   6.825
18875SOL    HW158464   3.966   2.042   6.759
18875SOL    HW258465   3.869   2.125   6.840
18876SOL     OW58466   2.428   3.112   0.365
18876SOL    HW158467   2.354   3.172   0.379
18876SOL    HW258468   2.401   3.031   0.406
18877SOL     OW58469   7.753   2.733   5.801
18877SOL    HW158470   7.778   2.649   5.840
18877SOL    HW258471   7.783   2.728   5.711
18878SOL     OW58472   7.641   3.368   7.985
18878SOL    HW158473   7.686   3.286   7.964
18878SOL    HW258474   7.710   3.425   8.019
18879SOL     OW58475   8.205   0.127  13.683
18879SOL    HW158476   8.204   0.047  13.736
18879SOL    HW258477   8.137   0.182  13.721
18880SOL     OW58478  14.730  10.482  13.194
18880SOL    HW158479  14.671  10.519  13.128
18880SOL    HW258480  14.804  10.448  13.143
18881SOL     OW58481   2.679  10.118  13.185
18881SOL    HW158482   2.639  10.082  13.106
18881SOL    HW258483   2.741  10.051  13.214
18882SOL     OW58484   9.256   4.183   5.921
18882SOL    HW158485   9.348   4.155   5.926
18882SOL    HW258486   9.261   4.270   5.881
18883SOL     OW58487   2.397   1.417  10.436
18883SOL    HW158488   2.373   1.326  10.454
18883SOL    HW258489   2.404   1.457  10.523
18884SOL     OW58490   9.820   2.835   9.512
18884SOL    HW158491   9.750   2.895   9.487
18884SOL    HW258492   9.882   2.890   9.561
18885SOL     OW58493   3.029  13.866  14.027
18885SOL    HW158494   3.116  13.863  13.988
18885SOL    HW258495   2.999  13.956  14.012
18886SOL     OW58496   1.457   1.233  11.558
18886SOL    HW158497   1.407   1.250  11.478
18886SOL    HW258498   1.473   1.319  11.596
18887SOL     OW58499  12.372   7.814   2.916
18887SOL    HW158500  12.308   7.748   2.892
18887SOL    HW258501  12.324   7.875   2.972
18888SOL     OW58502  10.845  13.837   9.530
18888SOL    HW158503  10.861  13.746   9.554
18888SOL    HW258504  10.784  13.870   9.596
18889SOL     OW58505  11.465   1.685   3.787
18889SOL    HW158506  11.457   1.652   3.876
18889SOL    HW258507  11.557   1.708   3.777
18890SOL     OW58508   9.825   0.348  12.502
18890SOL    HW158509   9.808   0.314  12.415
18890SOL    HW258510   9.883   0.423  12.488
18891SOL     OW58511   5.619   9.475  10.599
18891SOL    HW158512   5.569   9.443  10.524
18891SOL    HW258513   5.636   9.397  10.652
18892SOL     OW58514   4.497  11.603  10.316
18892SOL    HW158515   4.437  11.660  10.364
18892SOL    HW258516   4.580  11.610  10.364
18893SOL     OW58517   0.733   1.313   5.169
18893SOL    HW158518   0.754   1.227   5.133
18893SOL    HW258519   0.666   1.347   5.111
18894SOL     OW58520   4.460   9.196   4.246
18894SOL    HW158521   4.548   9.169   4.219
18894SOL    HW258522   4.426   9.121   4.295
18895SOL     OW58523   9.811  11.204  10.387
18895SOL    HW158524   9.877  11.157  10.336
18895SOL    HW258525   9.736  11.145  10.390
18896SOL     OW58526   4.506  11.821   7.679
18896SOL    HW158527   4.541  11.816   7.768
18896SOL    HW258528   4.451  11.744   7.670
18897SOL     OW58529   2.348   4.982   1.587
18897SOL    HW158530   2.398   5.000   1.666
18897SOL    HW258531   2.312   5.068   1.562
18898SOL     OW58532   7.729  12.892  12.584
18898SOL    HW158533   7.660  12.836  12.549
18898SOL    HW258534   7.810  12.851  12.554
18899SOL     OW58535   2.136  13.939   9.283
18899SOL    HW158536   2.127  14.006   9.215
18899SOL    HW258537   2.050  13.898   9.288
18900SOL     OW58538   4.740   4.575   1.959
18900SOL    HW158539   4.796   4.507   1.997
18900SOL    HW258540   4.724   4.636   2.032
18901SOL     OW58541  13.851  10.451   7.090
18901SOL    HW158542  13.890  10.538   7.101
18901SOL    HW258543  13.847  10.415   7.179
18902SOL     OW58544   8.343   5.996   8.805
18902SOL    HW158545   8.435   6.005   8.783
18902SOL    HW258546   8.341   5.933   8.877
18903SOL     OW58547   0.562   3.468   8.135
18903SOL    HW158548   0.508   3.544   8.157
18903SOL    HW258549   0.574   3.421   8.218
18904SOL     OW58550   2.814   0.917  11.904
18904SOL    HW158551   2.719   0.911  11.905
18904SOL    HW258552   2.844   0.826  11.905
18905SOL     OW58553   8.616   5.867   7.973
18905SOL    HW158554   8.538   5.911   7.939
18905SOL    HW258555   8.688   5.925   7.950
18906SOL     OW58556   8.915   9.539  11.395
18906SOL    HW158557   8.941   9.451  11.423
18906SOL    HW258558   8.865   9.524  11.315
18907SOL     OW58559   4.344   0.307   2.864
18907SOL    HW158560   4.421   0.258   2.893
18907SOL    HW258561   4.379   0.374   2.805
18908SOL     OW58562   4.195   1.256   4.460
18908SOL    HW158563   4.166   1.334   4.413
18908SOL    HW258564   4.136   1.187   4.430
18909SOL     OW58565   5.843   9.061   0.446
18909SOL    HW158566   5.936   9.075   0.463
18909SOL    HW258567   5.813   9.144   0.410
18910SOL     OW58568  11.517   3.603  12.911
18910SOL    HW158569  11.570   3.609  12.831
18910SOL    HW258570  11.515   3.692  12.945
18911SOL     OW58571   9.320   5.905   1.046
18911SOL    HW158572   9.225   5.917   1.046
18911SOL    HW258573   9.340   5.876   0.957
18912SOL     OW58574   0.690  13.707  10.281
18912SOL    HW158575   0.775  13.668  10.260
18912SOL    HW258576   0.711  13.785  10.331
18913SOL     OW58577   5.346  13.531   4.875
18913SOL    HW158578   5.338  13.610   4.823
18913SOL    HW258579   5.369  13.463   4.811
18914SOL     OW58580   8.753   4.461  11.501
18914SOL    HW158581   8.842   4.439  11.528
18914SOL    HW258582   8.761   4.490  11.411
18915SOL     OW58583   0.724   8.587   6.544
18915SOL    HW158584   0.721   8.676   6.511
18915SOL    HW258585   0.634   8.570   6.575
18916SOL     OW58586   1.359  10.006  10.701
18916SOL    HW158587   1.315  10.083  10.668
18916SOL    HW258588   1.298   9.968  10.764
18917SOL     OW58589   2.749  13.468   9.111
18917SOL    HW158590   2.713  13.557   9.109
18917SOL    HW258591   2.673  13.411   9.100
18918SOL     OW58592   4.336  13.956  14.511
18918SOL    HW158593   4.344  14.013  14.435
18918SOL    HW258594   4.270  13.892  14.487
18919SOL     OW58595   8.308   3.051   0.266
18919SOL    HW158596   8.382   3.024   0.212
18919SOL    HW258597   8.275   3.131   0.223
18920SOL     OW58598  13.775   7.645   9.808
18920SOL    HW158599  13.701   7.699   9.836
18920SOL    HW258600  13.823   7.626   9.888
18921SOL     OW58601   1.494  13.856   8.218
18921SOL    HW158602   1.560  13.926   8.220
18921SOL    HW258603   1.414  13.899   8.189
18922SOL     OW58604   2.767   8.908   4.564
18922SOL    HW158605   2.827   8.891   4.491
18922SOL    HW258606   2.822   8.903   4.642
18923SOL     OW58607  11.024   7.111   6.658
18923SOL    HW158608  11.119   7.118   6.645
18923SOL    HW258609  10.987   7.168   6.591
18924SOL     OW58610   0.390  10.256   7.482
18924SOL    HW158611   0.388  10.285   7.573
18924SOL    HW258612   0.416  10.164   7.486
18925SOL     OW58613  10.765   1.785   1.139
18925SOL    HW158614  10.712   1.846   1.087
18925SOL    HW258615  10.775   1.708   1.083
18926SOL     OW58616   2.855   2.206   2.974
18926SOL    HW158617   2.878   2.291   2.937
18926SOL    HW258618   2.779   2.178   2.924
18927SOL     OW58619   5.467   4.955   8.939
18927SOL    HW158620   5.462   4.965   9.034
18927SOL    HW258621   5.475   4.861   8.926
18928SOL     OW58622   4.129   4.676  12.880
18928SOL    HW158623   4.060   4.613  12.900
18928SOL    HW258624   4.128   4.737  12.953
18929SOL     OW58625   2.656   4.973  10.306
18929SOL    HW158626   2.666   5.061  10.271
18929SOL    HW258627   2.659   4.983  10.401
18930SOL     OW58628   0.662   0.256  11.495
18930SOL    HW158629   0.594   0.309  11.453
18930SOL    HW258630   0.634   0.166  11.482
18931SOL     OW58631  11.777   9.331   8.122
18931SOL    HW158632  11.769   9.330   8.027
18931SOL    HW258633  11.794   9.240   8.146
18932SOL     OW58634   5.283   8.143   7.522
18932SOL    HW158635   5.281   8.238   7.515
18932SOL    HW258636   5.228   8.124   7.598
18933SOL     OW58637   1.532   8.024   3.768
18933SOL    HW158638   1.508   8.003   3.858
18933SOL    HW258639   1.627   8.029   3.769
18934SOL     OW58640  10.042   3.707   2.880
18934SOL    HW158641  10.032   3.666   2.966
18934SOL    HW258642   9.966   3.678   2.830
18935SOL     OW58643   9.567  11.733   0.388
18935SOL    HW158644   9.584  11.824   0.362
18935SOL    HW258645   9.616  11.721   0.469
18936SOL     OW58646  10.444   9.365   6.858
18936SOL    HW158647  10.351   9.387   6.857
18936SOL    HW258648  10.483   9.425   6.921
18937SOL     OW58649   5.526   4.996  11.374
18937SOL    HW158650   5.483   4.911  11.379
18937SOL    HW258651   5.551   5.016  11.464
18938SOL     OW58652  14.612   0.203  11.332
18938SOL    HW158653  14.536   0.243  11.375
18938SOL    HW258654  14.614   0.113  11.366
18939SOL     OW58655   1.792   2.956   2.571
18939SOL    HW158656   1.875   2.954   2.523
18939SOL    HW258657   1.732   3.002   2.513
18940SOL     OW58658  14.375  10.417  10.781
18940SOL    HW158659  14.365  10.323  10.797
18940SOL    HW258660  14.289  10.454  10.800
18941SOL     OW58661   4.721   4.439  12.004
18941SOL    HW158662   4.805   4.393  12.009
18941SOL    HW258663   4.744   4.532  12.006
18942SOL     OW58664   3.139  14.039   5.716
18942SOL    HW158665   3.073  14.013   5.652
18942SOL    HW258666   3.090  14.092   5.781
18943SOL     OW58667   0.569  13.836   7.122
18943SOL    HW158668   0.546  13.764   7.063
18943SOL    HW258669   0.639  13.883   7.076
18944SOL     OW58670   6.356   9.857  10.741
18944SOL    HW158671   6.363   9.786  10.676
18944SOL    HW258672   6.428   9.916  10.719
18945SOL     OW58673  13.995  10.665  13.233
18945SOL    HW158674  13.936  10.734  13.263
18945SOL    HW258675  14.064  10.661  13.299
18946SOL     OW58676   4.613  11.484   6.837
18946SOL    HW158677   4.689  11.503   6.891
18946SOL    HW258678   4.542  11.469   6.900
18947SOL     OW58679   0.950   3.097   8.796
18947SOL    HW158680   0.888   3.159   8.757
18947SOL    HW258681   0.975   3.138   8.879
18948SOL     OW58682   6.139   7.829   6.440
18948SOL    HW158683   6.135   7.809   6.346
18948SOL    HW258684   6.180   7.915   6.444
18949SOL     OW58685  11.127   7.452   6.684
18949SOL    HW158686  11.103   7.424   6.772
18949SOL    HW258687  11.135   7.547   6.690
18950SOL     OW58688   4.773   8.463   1.600
18950SOL    HW158689   4.781   8.557   1.618
18950SOL    HW258690   4.852   8.425   1.640
18951SOL     OW58691   8.200   0.760  12.489
18951SOL    HW158692   8.125   0.746  12.546
18951SOL    HW258693   8.199   0.686  12.428
18952SOL     OW58694   6.929   8.509   4.105
18952SOL    HW158695   6.854   8.480   4.157
18952SOL    HW258696   6.914   8.602   4.090
18953SOL     OW58697   6.312  10.990  13.633
18953SOL    HW158698   6.349  10.910  13.670
18953SOL    HW258699   6.330  11.057  13.698
18954SOL     OW58700  11.393  11.032   6.224
18954SOL    HW158701  11.405  11.009   6.316
18954SOL    HW258702  11.452  11.107   6.211
18955SOL     OW58703   5.509  13.039   3.105
18955SOL    HW158704   5.562  12.988   3.043
18955SOL    HW258705   5.530  13.002   3.191
18956SOL     OW58706   6.756   9.285  13.257
18956SOL    HW158707   6.739   9.249  13.170
18956SOL    HW258708   6.842   9.250  13.280
18957SOL     OW58709   3.424  14.567   2.548
18957SOL    HW158710   3.485  14.623   2.596
18957SOL    HW258711   3.429  14.598   2.457
18958SOL     OW58712  13.956   5.795   5.213
18958SOL    HW158713  14.024   5.827   5.153
18958SOL    HW258714  13.909   5.874   5.239
18959SOL     OW58715  11.649  11.065  10.035
18959SOL    HW158716  11.577  11.004  10.020
18959SOL    HW258717  11.619  11.119  10.108
18960SOL     OW58718   2.304   0.751   2.962
18960SOL    HW158719   2.361   0.827   2.953
18960SOL    HW258720   2.364   0.678   2.975
18961SOL     OW58721   1.018   6.919  13.207
18961SOL    HW158722   1.103   6.961  13.203
18961SOL    HW258723   0.973   6.949  13.128
18962SOL     OW58724   6.801   0.077   4.531
18962SOL    HW158725   6.791   0.016   4.604
18962SOL    HW258726   6.727   0.057   4.473
18963SOL     OW58727   2.465   0.628   3.894
18963SOL    HW158728   2.530   0.684   3.937
18963SOL    HW258729   2.381   0.669   3.915
18964SOL     OW58730  11.691   1.419   3.789
18964SOL    HW158731  11.730   1.359   3.853
18964SOL    HW258732  11.699   1.505   3.829
18965SOL     OW58733   3.346   7.892   3.286
18965SOL    HW158734   3.401   7.887   3.365
18965SOL    HW258735   3.294   7.812   3.288
18966SOL     OW58736   4.795   7.038   6.091
18966SOL    HW158737   4.879   7.031   6.046
18966SOL    HW258738   4.819   7.062   6.181
18967SOL     OW58739   7.164   6.855  11.307
18967SOL    HW158740   7.253   6.882  11.284
18967SOL    HW258741   7.122   6.935  11.337
18968SOL     OW58742   8.623  14.120  11.156
18968SOL    HW158743   8.712  14.125  11.124
18968SOL    HW258744   8.628  14.148  11.248
18969SOL     OW58745  12.357   8.813   3.180
18969SOL    HW158746  12.400   8.729   3.192
18969SOL    HW258747  12.307   8.804   3.099
18970SOL     OW58748   4.484  11.927   5.928
18970SOL    HW158749   4.470  11.892   5.840
18970SOL    HW258750   4.490  11.850   5.984
18971SOL     OW58751   7.903  13.491  10.173
18971SOL    HW158752   7.992  13.456  10.170
18971SOL    HW258753   7.887  13.524  10.085
18972SOL     OW58754   6.115   5.184  14.608
18972SOL    HW158755   6.187   5.212  14.666
18972SOL    HW258756   6.038   5.183  14.665
18973SOL     OW58757  10.674  13.688   6.813
18973SOL    HW158758  10.629  13.733   6.743
18973SOL    HW258759  10.622  13.707   6.892
18974SOL     OW58760   8.949   9.708   3.046
18974SOL    HW158761   8.964   9.696   2.953
18974SOL    HW258762   8.854   9.700   3.057
18975SOL     OW58763   8.162  10.773  14.712
18975SOL    HW158764   8.118  10.688  14.710
18975SOL    HW258765   8.193  10.781  14.802
18976SOL     OW58766   7.645   3.065   2.368
18976SOL    HW158767   7.624   3.020   2.287
18976SOL    HW258768   7.738   3.087   2.361
18977SOL     OW58769   1.632   2.864  11.402
18977SOL    HW158770   1.610   2.956  11.420
18977SOL    HW258771   1.548   2.818  11.407
18978SOL     OW58772   7.446   9.106  13.235
18978SOL    HW158773   7.501   9.149  13.170
18978SOL    HW258774   7.387   9.051  13.183
18979SOL     OW58775   5.383   0.724   2.684
18979SOL    HW158776   5.325   0.650   2.664
18979SOL    HW258777   5.468   0.697   2.650
18980SOL     OW58778   3.953  14.433   6.572
18980SOL    HW158779   4.018  14.413   6.505
18980SOL    HW258780   3.872  14.393   6.541
18981SOL     OW58781  10.458   4.919  11.504
18981SOL    HW158782  10.553   4.933  11.501
18981SOL    HW258783  10.445   4.833  11.463
18982SOL     OW58784   6.679   5.240   1.686
18982SOL    HW158785   6.648   5.327   1.711
18982SOL    HW258786   6.773   5.252   1.672
18983SOL     OW58787  11.542   6.708  13.882
18983SOL    HW158788  11.629   6.747  13.888
18983SOL    HW258789  11.553   6.620  13.919
18984SOL     OW58790   4.133   2.544   5.792
18984SOL    HW158791   4.038   2.533   5.792
18984SOL    HW258792   4.147   2.627   5.746
18985SOL     OW58793  12.641  13.307   0.127
18985SOL    HW158794  12.679  13.391   0.100
18985SOL    HW258795  12.683  13.242   0.071
18986SOL     OW58796   5.561   3.559   1.665
18986SOL    HW158797   5.490   3.623   1.669
18986SOL    HW258798   5.627   3.593   1.725
18987SOL     OW58799   0.366  11.743   2.599
18987SOL    HW158800   0.332  11.669   2.550
18987SOL    HW258801   0.296  11.768   2.659
18988SOL     OW58802  10.815   7.167   4.100
18988SOL    HW158803  10.754   7.218   4.046
18988SOL    HW258804  10.896   7.217   4.099
18989SOL     OW58805   9.474   8.309  12.018
18989SOL    HW158806   9.481   8.227  11.968
18989SOL    HW258807   9.432   8.370  11.957
18990SOL     OW58808   1.400   4.951   3.082
18990SOL    HW158809   1.424   4.873   3.032
18990SOL    HW258810   1.309   4.936   3.107
18991SOL     OW58811  10.538   6.995  14.473
18991SOL    HW158812  10.590   7.070  14.501
18991SOL    HW258813  10.475   6.981  14.544
18992SOL     OW58814   4.217   8.542  10.433
18992SOL    HW158815   4.263   8.475  10.483
18992SOL    HW258816   4.285   8.587  10.384
18993SOL     OW58817  13.825   5.899   9.000
18993SOL    HW158818  13.842   5.804   9.000
18993SOL    HW258819  13.772   5.914   8.923
18994SOL     OW58820   5.488   5.712   4.827
18994SOL    HW158821   5.546   5.636   4.824
18994SOL    HW258822   5.409   5.680   4.871
18995SOL     OW58823   3.130   5.998   6.395
18995SOL    HW158824   3.226   6.004   6.391
18995SOL    HW258825   3.099   6.073   6.345
18996SOL     OW58826   4.604  14.149   7.698
18996SOL    HW158827   4.686  14.115   7.733
18996SOL    HW258828   4.630  14.195   7.618
18997SOL     OW58829   5.808   0.147  11.326
18997SOL    HW158830   5.722   0.189  11.332
18997SOL    HW258831   5.856   0.179  11.402
18998SOL     OW58832   2.584   4.452  12.408
18998SOL    HW158833   2.514   4.417  12.353
18998SOL    HW258834   2.625   4.520  12.355
18999SOL     OW58835   8.993   5.699  11.874
18999SOL    HW158836   8.920   5.758  11.855
18999SOL    HW258837   8.951   5.620  11.908
19000SOL     OW58838  10.232  13.688   2.931
19000SOL    HW158839  10.183  13.637   2.995
19000SOL    HW258840  10.232  13.777   2.966
19001SOL     OW58841  13.586   7.995  11.323
19001SOL    HW158842  13.563   7.903  11.333
19001SOL    HW258843  13.506   8.042  11.347
19002SOL     OW58844   7.996  14.428   9.453
19002SOL    HW158845   8.027  14.346   9.416
19002SOL    HW258846   7.945  14.402   9.530
19003SOL     OW58847   4.902  13.117   1.235
19003SOL    HW158848   4.841  13.069   1.179
19003SOL    HW258849   4.847  13.163   1.298
19004SOL     OW58850   3.360   2.382   2.868
19004SOL    HW158851   3.358   2.379   2.772
19004SOL    HW258852   3.304   2.457   2.890
19005SOL     OW58853  11.197   3.270   3.158
19005SOL    HW158854  11.183   3.364   3.173
19005SOL    HW258855  11.218   3.235   3.245
19006SOL     OW58856  13.592   3.380   5.863
19006SOL    HW158857  13.583   3.386   5.958
19006SOL    HW258858  13.502   3.384   5.831
19007SOL     OW58859   1.998  12.313   7.521
19007SOL    HW158860   2.071  12.330   7.581
19007SOL    HW258861   1.946  12.393   7.524
19008SOL     OW58862  13.866   3.350   7.489
19008SOL    HW158863  13.943   3.364   7.545
19008SOL    HW258864  13.872   3.417   7.421
19009SOL     OW58865   5.088  12.074  11.992
19009SOL    HW158866   5.154  12.126  12.037
19009SOL    HW258867   5.059  12.010  12.058
19010SOL     OW58868  10.518   6.293   0.545
19010SOL    HW158869  10.579   6.223   0.570
19010SOL    HW258870  10.432   6.255   0.559
19011SOL     OW58871   2.816  10.074   4.567
19011SOL    HW158872   2.799  10.143   4.503
19011SOL    HW258873   2.795  10.113   4.652
19012SOL     OW58874   8.074   7.870   5.391
19012SOL    HW158875   8.146   7.934   5.392
19012SOL    HW258876   8.013   7.901   5.457
19013SOL     OW58877  14.283   4.648   6.367
19013SOL    HW158878  14.265   4.642   6.273
19013SOL    HW258879  14.208   4.696   6.403
19014SOL     OW58880  11.455   1.943   7.003
19014SOL    HW158881  11.472   2.036   6.990
19014SOL    HW258882  11.384   1.940   7.067
19015SOL     OW58883   5.888   8.589  13.247
19015SOL    HW158884   5.873   8.672  13.202
19015SOL    HW258885   5.921   8.530  13.179
19016SOL     OW58886  10.423  14.772   8.082
19016SOL    HW158887  10.505  14.744   8.122
19016SOL    HW258888  10.362  14.702   8.101
19017SOL     OW58889   2.872  13.290   2.841
19017SOL    HW158890   2.827  13.355   2.895
19017SOL    HW258891   2.896  13.337   2.761
19018SOL     OW58892   5.264   9.693   3.685
19018SOL    HW158893   5.186   9.641   3.704
19018SOL    HW258894   5.233   9.783   3.687
19019SOL     OW58895   7.869   6.739   7.289
19019SOL    HW158896   7.783   6.723   7.251
19019SOL    HW258897   7.859   6.820   7.339
19020SOL     OW58898   5.188   8.875  14.242
19020SOL    HW158899   5.105   8.910  14.208
19020SOL    HW258900   5.181   8.886  14.337
19021SOL     OW58901   7.328  12.071  11.902
19021SOL    HW158902   7.405  12.033  11.858
19021SOL    HW258903   7.365  12.129  11.968
19022SOL     OW58904   8.229  12.097   8.678
19022SOL    HW158905   8.287  12.048   8.736
19022SOL    HW258906   8.220  12.041   8.601
19023SOL     OW58907   3.858  10.008   5.722
19023SOL    HW158908   3.852   9.922   5.680
19023SOL    HW258909   3.918  10.058   5.667
19024SOL     OW58910   9.040  14.257  14.500
19024SOL    HW158911   8.970  14.213  14.453
19024SOL    HW258912   8.996  14.302  14.573
19025SOL     OW58913  13.161   4.859   5.498
19025SOL    HW158914  13.094   4.793   5.479
19025SOL    HW258915  13.136   4.934   5.444
19026SOL     OW58916  14.401   4.051   2.899
19026SOL    HW158917  14.394   4.146   2.886
19026SOL    HW258918  14.313   4.024   2.924
19027SOL     OW58919   2.890   6.698   1.761
19027SOL    HW158920   2.821   6.760   1.737
19027SOL    HW258921   2.910   6.652   1.680
19028SOL     OW58922  13.958  12.913   2.421
19028SOL    HW158923  14.022  12.843   2.409
19028SOL    HW258924  13.880  12.868   2.455
19029SOL     OW58925   2.232   7.162  12.979
19029SOL    HW158926   2.256   7.182  13.069
19029SOL    HW258927   2.177   7.235  12.951
19030SOL     OW58928  10.745   8.692   9.501
19030SOL    HW158929  10.791   8.737   9.572
19030SOL    HW258930  10.734   8.602   9.533
19031SOL     OW58931   0.199   9.573   3.968
19031SOL    HW158932   0.169   9.484   3.948
19031SOL    HW258933   0.289   9.563   3.998
19032SOL     OW58934  11.070  13.085  13.647
19032SOL    HW158935  11.002  13.148  13.624
19032SOL    HW258936  11.040  13.046  13.729
19033SOL     OW58937   8.749   3.739   2.820
19033SOL    HW158938   8.789   3.818   2.856
19033SOL    HW258939   8.785   3.733   2.731
19034SOL     OW58940   4.519  11.590  10.025
19034SOL    HW158941   4.441  11.646  10.016
19034SOL    HW258942   4.542  11.595  10.118
19035SOL     OW58943   8.062  10.450   5.958
19035SOL    HW158944   8.039  10.542   5.943
19035SOL    HW258945   8.154  10.453   5.985
19036SOL     OW58946  13.132  14.744  14.131
19036SOL    HW158947  13.147  14.799  14.208
19036SOL    HW258948  13.168  14.658  14.155
19037SOL     OW58949   9.710   9.851   0.880
19037SOL    HW158950   9.751   9.933   0.852
19037SOL    HW258951   9.715   9.795   0.803
19038SOL     OW58952  13.526  12.746   4.345
19038SOL    HW158953  13.582  12.678   4.309
19038SOL    HW258954  13.553  12.753   4.437
19039SOL     OW58955   5.086   3.881   2.932
19039SOL    HW158956   5.040   3.806   2.894
19039SOL    HW258957   5.118   3.930   2.857
19040SOL     OW58958  10.575   0.850   1.504
19040SOL    HW158959  10.510   0.852   1.434
19040SOL    HW258960  10.545   0.916   1.566
19041SOL     OW58961   6.928   1.831  14.624
19041SOL    HW158962   6.931   1.826  14.720
19041SOL    HW258963   6.979   1.910  14.604
19042SOL     OW58964  13.889  12.996  11.458
19042SOL    HW158965  13.951  12.968  11.525
19042SOL    HW258966  13.932  12.972  11.375
19043SOL     OW58967   7.273   3.681   1.551
19043SOL    HW158968   7.272   3.654   1.459
19043SOL    HW258969   7.364   3.704   1.568
19044SOL     OW58970   0.967   0.672   0.244
19044SOL    HW158971   0.929   0.657   0.330
19044SOL    HW258972   0.894   0.656   0.183
19045SOL     OW58973  10.867   2.942   9.774
19045SOL    HW158974  10.935   2.920   9.837
19045SOL    HW258975  10.806   2.998   9.823
19046SOL     OW58976   4.872   8.626   8.808
19046SOL    HW158977   4.880   8.623   8.903
19046SOL    HW258978   4.902   8.540   8.778
19047SOL     OW58979   5.520   8.975   6.993
19047SOL    HW158980   5.604   8.968   7.038
19047SOL    HW258981   5.456   8.987   7.064
19048SOL     OW58982   8.968   0.863   8.666
19048SOL    HW158983   8.902   0.794   8.656
19048SOL    HW258984   8.921   0.936   8.707
19049SOL     OW58985  10.545  14.545  14.857
19049SOL    HW158986  10.604  14.559   0.052
19049SOL    HW258987  10.596  14.488  14.797
19050SOL     OW58988   3.800   0.447   7.882
19050SOL    HW158989   3.769   0.426   7.794
19050SOL    HW258990   3.749   0.390   7.940
19051SOL     OW58991   5.357   6.035  14.642
19051SOL    HW158992   5.415   6.092  14.692
19051SOL    HW258993   5.364   5.950  14.686
19052SOL     OW58994   0.772  14.209   9.462
19052SOL    HW158995   0.720  14.193   9.384
19052SOL    HW258996   0.842  14.143   9.458
19053SOL     OW58997   8.414   5.041   1.462
19053SOL    HW158998   8.388   4.949   1.468
19053SOL    HW258999   8.409   5.061   1.368
19054SOL     OW59000   8.111  13.213  14.604
19054SOL    HW159001   8.174  13.235  14.535
19054SOL    HW259002   8.164  13.174  14.674
19055SOL     OW59003  10.736   2.269   5.933
19055SOL    HW159004  10.704   2.281   6.022
19055SOL    HW259005  10.657   2.264   5.879
19056SOL     OW59006   6.360   7.760   0.725
19056SOL    HW159007   6.297   7.737   0.793
19056SOL    HW259008   6.350   7.855   0.714
19057SOL     OW59009   4.100   7.862   6.322
19057SOL    HW159010   4.041   7.830   6.391
19057SOL    HW259011   4.146   7.935   6.363
19058SOL     OW59012   3.031  10.897  13.387
19058SOL    HW159013   3.107  10.839  13.391
19058SOL    HW259014   2.961  10.848  13.431
19059SOL     OW59015  13.603   2.616   9.705
19059SOL    HW159016  13.627   2.645   9.793
19059SOL    HW259017  13.685   2.589   9.665
19060SOL     OW59018   0.979  13.850   1.665
19060SOL    HW159019   0.963  13.935   1.623
19060SOL    HW259020   0.893  13.810   1.672
19061SOL     OW59021   7.313   3.973   5.519
19061SOL    HW159022   7.295   4.041   5.455
19061SOL    HW259023   7.227   3.949   5.553
19062SOL     OW59024  12.790   5.334   8.959
19062SOL    HW159025  12.841   5.332   8.878
19062SOL    HW259026  12.699   5.329   8.931
19063SOL     OW59027  13.574  10.350   9.680
19063SOL    HW159028  13.512  10.383   9.745
19063SOL    HW259029  13.520  10.300   9.619
19064SOL     OW59030   9.048   9.797  14.562
19064SOL    HW159031   9.045   9.794  14.467
19064SOL    HW259032   9.077   9.887  14.582
19065SOL     OW59033   8.211   2.504  13.319
19065SOL    HW159034   8.259   2.578  13.357
19065SOL    HW259035   8.195   2.530  13.229
19066SOL     OW59036   6.771   5.093   3.984
19066SOL    HW159037   6.814   5.178   3.988
19066SOL    HW259038   6.743   5.085   3.892
19067SOL     OW59039   9.794  10.072   1.834
19067SOL    HW159040   9.883  10.042   1.815
19067SOL    HW259041   9.755  10.087   1.748
19068SOL     OW59042   6.739   7.785   9.335
19068SOL    HW159043   6.741   7.689   9.330
19068SOL    HW259044   6.649   7.806   9.361
19069SOL     OW59045   9.970   5.262  11.372
19069SOL    HW159046  10.051   5.310  11.390
19069SOL    HW259047  10.000   5.176  11.342
19070SOL     OW59048  10.323   0.264   7.529
19070SOL    HW159049  10.393   0.208   7.495
19070SOL    HW259050  10.260   0.271   7.456
19071SOL     OW59051   8.031   2.769  14.121
19071SOL    HW159052   8.033   2.698  14.055
19071SOL    HW259053   7.975   2.735  14.191
19072SOL     OW59054   1.575   7.009   8.369
19072SOL    HW159055   1.659   7.055   8.369
19072SOL    HW259056   1.599   6.917   8.363
19073SOL     OW59057   0.627  12.955   4.098
19073SOL    HW159058   0.658  13.037   4.136
19073SOL    HW259059   0.573  12.915   4.166
19074SOL     OW59060   8.952   8.874  13.618
19074SOL    HW159061   9.006   8.871  13.539
19074SOL    HW259062   8.866   8.901  13.588
19075SOL     OW59063  14.100   9.588  10.441
19075SOL    HW159064  14.092   9.612  10.533
19075SOL    HW259065  14.033   9.520  10.428
19076SOL     OW59066  14.694   8.023   6.866
19076SOL    HW159067  14.724   8.030   6.775
19076SOL    HW259068  14.702   8.112   6.900
19077SOL     OW59069   2.421  11.814   5.020
19077SOL    HW159070   2.511  11.834   5.046
19077SOL    HW259071   2.393  11.891   4.971
19078SOL     OW59072   7.890  12.757   9.575
19078SOL    HW159073   7.969  12.781   9.624
19078SOL    HW259074   7.821  12.753   9.642
19079SOL     OW59075   8.751   5.800   4.207
19079SOL    HW159076   8.765   5.893   4.225
19079SOL    HW259077   8.804   5.782   4.129
19080SOL     OW59078  13.261  10.351  13.251
19080SOL    HW159079  13.270  10.288  13.180
19080SOL    HW259080  13.237  10.433  13.208
19081SOL     OW59081  13.772   3.228  12.613
19081SOL    HW159082  13.730   3.275  12.541
19081SOL    HW259083  13.769   3.289  12.687
19082SOL     OW59084   4.087   2.648   4.441
19082SOL    HW159085   4.171   2.685   4.414
19082SOL    HW259086   4.024   2.719   4.427
19083SOL     OW59087   5.377  12.255  14.414
19083SOL    HW159088   5.296  12.275  14.463
19083SOL    HW259089   5.445  12.249  14.481
19084SOL     OW59090   7.971  12.286   9.002
19084SOL    HW159091   7.947  12.205   8.958
19084SOL    HW259092   8.018  12.336   8.935
19085SOL     OW59093   9.723  14.749   5.050
19085SOL    HW159094   9.684  14.813   5.110
19085SOL    HW259095   9.751  14.801   4.975
19086SOL     OW59096  12.412   7.403  14.267
19086SOL    HW159097  12.341   7.339  14.272
19086SOL    HW259098  12.369   7.485  14.244
19087SOL     OW59099   5.098   4.339   0.694
19087SOL    HW159100   5.079   4.248   0.673
19087SOL    HW259101   5.050   4.390   0.629
19088SOL     OW59102   7.600   9.885   2.619
19088SOL    HW159103   7.659   9.875   2.694
19088SOL    HW259104   7.534   9.948   2.649
19089SOL     OW59105   6.891   2.733   3.567
19089SOL    HW159106   6.883   2.788   3.645
19089SOL    HW259107   6.984   2.713   3.562
19090SOL     OW59108   5.270   2.974   5.379
19090SOL    HW159109   5.290   2.882   5.396
19090SOL    HW259110   5.221   2.973   5.296
19091SOL     OW59111   2.396   1.059   4.655
19091SOL    HW159112   2.386   0.971   4.621
19091SOL    HW259113   2.445   1.049   4.736
19092SOL     OW59114   0.415  13.511   0.261
19092SOL    HW159115   0.408  13.607   0.258
19092SOL    HW259116   0.477  13.489   0.192
19093SOL     OW59117   3.581   1.978   7.786
19093SOL    HW159118   3.611   2.017   7.868
19093SOL    HW259119   3.489   2.003   7.780
19094SOL     OW59120  13.884   4.283   0.826
19094SOL    HW159121  13.823   4.282   0.752
19094SOL    HW259122  13.914   4.374   0.831
19095SOL     OW59123   7.332   3.235  10.557
19095SOL    HW159124   7.380   3.292  10.617
19095SOL    HW259125   7.241   3.240  10.588
19096SOL     OW59126   6.386   0.490   7.502
19096SOL    HW159127   6.294   0.514   7.492
19096SOL    HW259128   6.407   0.444   7.420
19097SOL     OW59129   4.063  10.080   0.485
19097SOL    HW159130   4.062  10.079   0.389
19097SOL    HW259131   4.156  10.077   0.508
19098SOL     OW59132  11.043   9.744   0.142
19098SOL    HW159133  11.123   9.797   0.138
19098SOL    HW259134  11.045   9.703   0.229
19099SOL     OW59135   5.482  14.530  10.532
19099SOL    HW159136   5.400  14.558  10.572
19099SOL    HW259137   5.550  14.571  10.586
19100SOL     OW59138  12.170   7.335  12.799
19100SOL    HW159139  12.209   7.253  12.829
19100SOL    HW259140  12.238   7.375  12.745
19101SOL     OW59141   3.758   6.302   9.164
19101SOL    HW159142   3.676   6.341   9.137
19101SOL    HW259143   3.825   6.365   9.137
19102SOL     OW59144  12.105   3.240   9.960
19102SOL    HW159145  12.118   3.266   9.869
19102SOL    HW259146  12.067   3.317  10.002
19103SOL     OW59147  13.894   8.127   7.167
19103SOL    HW159148  13.941   8.202   7.130
19103SOL    HW259149  13.891   8.063   7.096
19104SOL     OW59150  14.391  13.906   4.786
19104SOL    HW159151  14.485  13.901   4.772
19104SOL    HW259152  14.357  13.950   4.708
19105SOL     OW59153   4.801   5.076   0.167
19105SOL    HW159154   4.893   5.100   0.166
19105SOL    HW259155   4.767   5.112   0.249
19106SOL     OW59156  14.297   5.376  10.145
19106SOL    HW159157  14.243   5.374  10.224
19106SOL    HW259158  14.333   5.287  10.139
19107SOL     OW59159   2.322   4.139  12.195
19107SOL    HW159160   2.359   4.168  12.112
19107SOL    HW259161   2.358   4.051  12.208
19108SOL     OW59162   0.818   3.221   4.119
19108SOL    HW159163   0.856   3.307   4.138
19108SOL    HW259164   0.739   3.241   4.068
19109SOL     OW59165  14.019   4.137   8.127
19109SOL    HW159166  13.939   4.164   8.173
19109SOL    HW259167  14.071   4.093   8.194
19110SOL     OW59168   2.047   0.083   4.102
19110SOL    HW159169   1.995   0.147   4.150
19110SOL    HW259170   2.114   0.136   4.057
19111SOL     OW59171   0.957   9.273  14.680
19111SOL    HW159172   0.881   9.256  14.624
19111SOL    HW259173   0.961   9.368  14.687
19112SOL     OW59174   4.285   6.259  13.829
19112SOL    HW159175   4.278   6.354  13.841
19112SOL    HW259176   4.262   6.245  13.737
19113SOL     OW59177  11.549   9.139   9.268
19113SOL    HW159178  11.537   9.098   9.354
19113SOL    HW259179  11.603   9.076   9.219
19114SOL     OW59180   0.953   1.937   8.251
19114SOL    HW159181   0.889   1.992   8.296
19114SOL    HW259182   0.901   1.873   8.203
19115SOL     OW59183   6.137   2.718   1.898
19115SOL    HW159184   6.090   2.721   1.815
19115SOL    HW259185   6.080   2.668   1.956
19116SOL     OW59186   3.356   1.730  13.337
19116SOL    HW159187   3.379   1.788  13.410
19116SOL    HW259188   3.416   1.655  13.347
19117SOL     OW59189  12.560  11.375   6.407
19117SOL    HW159190  12.611  11.342   6.333
19117SOL    HW259191  12.613  11.353   6.484
19118SOL     OW59192   7.000   4.595   5.876
19118SOL    HW159193   6.995   4.691   5.882
19118SOL    HW259194   6.966   4.575   5.789
19119SOL     OW59195   2.410   9.584   5.602
19119SOL    HW159196   2.375   9.632   5.677
19119SOL    HW259197   2.412   9.493   5.631
19120SOL     OW59198  12.280   3.605   3.163
19120SOL    HW159199  12.299   3.553   3.085
19120SOL    HW259200  12.219   3.550   3.214
19121SOL     OW59201  11.557   9.218  13.283
19121SOL    HW159202  11.628   9.163  13.316
19121SOL    HW259203  11.601   9.286  13.233
19122SOL     OW59204  13.943   2.085  12.438
19122SOL    HW159205  13.864   2.059  12.391
19122SOL    HW259206  13.942   2.033  12.518
19123SOL     OW59207  12.372  13.047   6.072
19123SOL    HW159208  12.367  13.077   6.163
19123SOL    HW259209  12.307  12.978   6.066
19124SOL     OW59210   9.721   0.006   5.894
19124SOL    HW159211   9.739   0.058   5.972
19124SOL    HW259212   9.728  14.795   5.923
19125SOL     OW59213  13.142   6.298   9.023
19125SOL    HW159214  13.133   6.379   9.074
19125SOL    HW259215  13.237   6.287   9.013
19126SOL     OW59216   5.075   7.198   0.331
19126SOL    HW159217   5.083   7.251   0.411
19126SOL    HW259218   5.141   7.234   0.272
19127SOL     OW59219   1.189   5.299  13.231
19127SOL    HW159220   1.222   5.297  13.321
19127SOL    HW259221   1.119   5.364  13.233
19128SOL     OW59222  14.405   5.643  14.261
19128SOL    HW159223  14.419   5.549  14.270
19128SOL    HW259224  14.383   5.656  14.169
19129SOL     OW59225  12.302   9.912  11.959
19129SOL    HW159226  12.261   9.940  11.878
19129SOL    HW259227  12.366   9.980  11.979
19130SOL     OW59228   1.223   7.234   2.523
19130SOL    HW159229   1.302   7.269   2.482
19130SOL    HW259230   1.154   7.246   2.457
19131SOL     OW59231  14.111  11.311   6.065
19131SOL    HW159232  14.122  11.344   6.154
19131SOL    HW259233  14.043  11.366   6.027
19132SOL     OW59234   4.657  11.456  14.841
19132SOL    HW159235   4.566  11.437  14.866
19132SOL    HW259236   4.670  11.407  14.760
19133SOL     OW59237   3.626   7.373   4.140
19133SOL    HW159238   3.554   7.436   4.151
19133SOL    HW259239   3.670   7.402   4.060
19134SOL     OW59240  10.477  13.934   7.461
19134SOL    HW159241  10.549  13.905   7.405
19134SOL    HW259242  10.490  13.886   7.543
19135SOL     OW59243   3.928   2.470  13.760
19135SOL    HW159244   3.845   2.470  13.807
19135SOL    HW259245   3.913   2.414  13.683
19136SOL     OW59246   7.563   4.686   9.674
19136SOL    HW159247   7.654   4.659   9.684
19136SOL    HW259248   7.564   4.744   9.597
19137SOL     OW59249  10.174   9.166  13.048
19137SOL    HW159250  10.205   9.238  13.103
19137SOL    HW259251  10.099   9.203  13.001
19138SOL     OW59252   6.354   2.927   2.859
19138SOL    HW159253   6.385   2.955   2.945
19138SOL    HW259254   6.417   2.965   2.797
19139SOL     OW59255   3.647   0.648  14.066
19139SOL    HW159256   3.562   0.692  14.058
19139SOL    HW259257   3.685   0.685  14.145
19140SOL     OW59258   1.936  11.556   8.389
19140SOL    HW159259   1.948  11.571   8.482
19140SOL    HW259260   1.863  11.614   8.365
19141SOL     OW59261   2.977  13.905  13.251
19141SOL    HW159262   3.028  13.838  13.296
19141SOL    HW259263   2.953  13.865  13.167
19142SOL     OW59264  12.187  13.156  14.393
19142SOL    HW159265  12.125  13.154  14.466
19142SOL    HW259266  12.140  13.200  14.322
19143SOL     OW59267   4.061  13.212   1.817
19143SOL    HW159268   4.117  13.248   1.886
19143SOL    HW259269   4.076  13.118   1.820
19144SOL     OW59270   7.575  13.138  13.611
19144SOL    HW159271   7.561  13.062  13.555
19144SOL    HW259272   7.622  13.201  13.555
19145SOL     OW59273   4.322   6.891  10.678
19145SOL    HW159274   4.404   6.941  10.678
19145SOL    HW259275   4.350   6.801  10.663
19146SOL     OW59276   4.189   8.373   0.588
19146SOL    HW159277   4.179   8.331   0.673
19146SOL    HW259278   4.202   8.301   0.527
19147SOL     OW59279  11.330   1.603   7.308
19147SOL    HW159280  11.247   1.594   7.263
19147SOL    HW259281  11.325   1.690   7.350
19148SOL     OW59282   1.508   2.401   3.401
19148SOL    HW159283   1.595   2.364   3.419
19148SOL    HW259284   1.523   2.496   3.397
19149SOL     OW59285  11.560   4.418  14.847
19149SOL    HW159286  11.580   4.512  14.848
19149SOL    HW259287  11.469   4.414  14.819
19150SOL     OW59288   6.225  12.142   2.190
19150SOL    HW159289   6.162  12.214   2.187
19150SOL    HW259290   6.171  12.064   2.200
19151SOL     OW59291   3.504   7.218  12.624
19151SOL    HW159292   3.459   7.197  12.705
19151SOL    HW259293   3.477   7.308  12.604
19152SOL     OW59294   8.770  13.537   8.598
19152SOL    HW159295   8.751  13.489   8.678
19152SOL    HW259296   8.781  13.469   8.532
19153SOL     OW59297   3.388  10.980  11.980
19153SOL    HW159298   3.296  10.968  12.004
19153SOL    HW259299   3.427  11.025  12.055
19154SOL     OW59300   4.487   8.121   2.149
19154SOL    HW159301   4.563   8.083   2.193
19154SOL    HW259302   4.501   8.101   2.056
19155SOL     OW59303   2.532   0.924   4.864
19155SOL    HW159304   2.574   0.953   4.944
19155SOL    HW259305   2.487   0.842   4.888
19156SOL     OW59306  14.020  10.326  14.615
19156SOL    HW159307  13.995  10.273  14.540
19156SOL    HW259308  13.949  10.316  14.678
19157SOL     OW59309   1.665  13.835  11.206
19157SOL    HW159310   1.644  13.742  11.210
19157SOL    HW259311   1.739  13.846  11.265
19158SOL     OW59312   4.934   1.931   3.609
19158SOL    HW159313   4.904   1.865   3.672
19158SOL    HW259314   4.974   1.881   3.538
19159SOL     OW59315   5.216   2.550   3.249
19159SOL    HW159316   5.121   2.558   3.246
19159SOL    HW259317   5.243   2.605   3.323
19160SOL     OW59318   8.013  13.443  13.524
19160SOL    HW159319   8.088  13.448  13.466
19160SOL    HW259320   8.040  13.382  13.593
19161SOL     OW59321   4.246  14.171   6.185
19161SOL    HW159322   4.311  14.109   6.153
19161SOL    HW259323   4.223  14.138   6.272
19162SOL     OW59324  14.814   9.518   0.494
19162SOL    HW159325  14.760   9.528   0.573
19162SOL    HW259326  14.758   9.468   0.434
19163SOL     OW59327  10.319   6.320   8.922
19163SOL    HW159328  10.405   6.349   8.890
19163SOL    HW259329  10.297   6.382   8.992
19164SOL     OW59330   3.291  13.668   1.223
19164SOL    HW159331   3.253  13.713   1.298
19164SOL    HW259332   3.372  13.716   1.205
19165SOL     OW59333   7.011   3.356  12.846
19165SOL    HW159334   6.990   3.310  12.764
19165SOL    HW259335   7.082   3.416  12.821
19166SOL     OW59336   0.272  12.391   8.424
19166SOL    HW159337   0.336  12.394   8.495
19166SOL    HW259338   0.277  12.301   8.392
19167SOL     OW59339   8.697   1.862   7.680
19167SOL    HW159340   8.776   1.829   7.723
19167SOL    HW259341   8.653   1.784   7.647
19168SOL     OW59342  13.292  13.654   3.544
19168SOL    HW159343  13.347  13.597   3.598
19168SOL    HW259344  13.350  13.683   3.474
19169SOL     OW59345   2.277  13.608  14.730
19169SOL    HW159346   2.317  13.637  14.647
19169SOL    HW259347   2.350  13.606  14.792
19170SOL     OW59348   2.806   3.069   7.914
19170SOL    HW159349   2.723   3.068   7.867
19170SOL    HW259350   2.795   3.137   7.981
19171SOL     OW59351  11.064   3.747  13.438
19171SOL    HW159352  11.056   3.758  13.343
19171SOL    HW259353  11.148   3.787  13.460
19172SOL     OW59354   9.916   2.872  14.718
19172SOL    HW159355   9.861   2.857  14.795
19172SOL    HW259356   9.864   2.841  14.644
19173SOL     OW59357   8.999   1.660  12.959
19173SOL    HW159358   9.093   1.659  12.941
19173SOL    HW259359   8.963   1.724  12.896
19174SOL     OW59360  12.569  13.783   6.367
19174SOL    HW159361  12.652  13.759   6.410
19174SOL    HW259362  12.554  13.874   6.392
19175SOL     OW59363   1.224   4.483   3.425
19175SOL    HW159364   1.139   4.457   3.461
19175SOL    HW259365   1.269   4.526   3.498
19176SOL     OW59366   0.542   9.385   1.951
19176SOL    HW159367   0.563   9.300   1.914
19176SOL    HW259368   0.601   9.446   1.908
19177SOL     OW59369  12.172   8.448  12.474
19177SOL    HW159370  12.252   8.476  12.431
19177SOL    HW259371  12.167   8.354  12.457
19178SOL     OW59372   9.789   4.819   6.193
19178SOL    HW159373   9.788   4.724   6.198
19178SOL    HW259374   9.697   4.844   6.188
19179SOL     OW59375   7.729   7.257   8.221
19179SOL    HW159376   7.803   7.285   8.276
19179SOL    HW259377   7.651   7.287   8.268
19180SOL     OW59378  14.612   5.275   5.503
19180SOL    HW159379  14.613   5.345   5.438
19180SOL    HW259380  14.529   5.230   5.489
19181SOL     OW59381   1.354   8.945  13.837
19181SOL    HW159382   1.291   8.988  13.779
19181SOL    HW259383   1.437   8.949  13.790
19182SOL     OW59384   0.681   5.389  14.354
19182SOL    HW159385   0.746   5.370  14.286
19182SOL    HW259386   0.677   5.309  14.406
19183SOL     OW59387  13.048   0.595   8.123
19183SOL    HW159388  12.997   0.610   8.043
19183SOL    HW259389  12.987   0.615   8.194
19184SOL     OW59390   8.791   5.616   8.008
19184SOL    HW159391   8.790   5.606   7.912
19184SOL    HW259392   8.763   5.706   8.023
19185SOL     OW59393  11.765  10.568  14.841
19185SOL    HW159394  11.860  10.556  14.846
19185SOL    HW259395  11.751  10.661  14.856
19186SOL     OW59396  13.041   7.122  13.580
19186SOL    HW159397  13.053   7.027  13.587
19186SOL    HW259398  12.952   7.132  13.547
19187SOL     OW59399   6.943   0.979   7.887
19187SOL    HW159400   6.972   0.910   7.827
19187SOL    HW259401   6.923   0.932   7.968
19188SOL     OW59402   9.207   3.531  14.550
19188SOL    HW159403   9.121   3.573  14.552
19188SOL    HW259404   9.265   3.596  14.513
19189SOL     OW59405   5.044  14.395   7.162
19189SOL    HW159406   5.094  14.476   7.171
19189SOL    HW259407   4.980  14.414   7.094
19190SOL     OW59408   3.267  14.304  13.135
19190SOL    HW159409   3.263  14.400  13.138
19190SOL    HW259410   3.185  14.278  13.093
19191SOL     OW59411   0.988  10.113   6.708
19191SOL    HW159412   0.988  10.169   6.631
19191SOL    HW259413   0.961  10.027   6.676
19192SOL     OW59414   6.848   8.170  10.925
19192SOL    HW159415   6.923   8.143  10.872
19192SOL    HW259416   6.878   8.164  11.015
19193SOL     OW59417  11.276   3.676   7.622
19193SOL    HW159418  11.263   3.767   7.649
19193SOL    HW259419  11.269   3.625   7.703
19194SOL     OW59420   3.015   2.891   7.890
19194SOL    HW159421   3.086   2.947   7.860
19194SOL    HW259422   2.937   2.946   7.887
19195SOL     OW59423   6.332   7.600   5.358
19195SOL    HW159424   6.403   7.535   5.366
19195SOL    HW259425   6.377   7.684   5.363
19196SOL     OW59426  11.121   8.639   6.032
19196SOL    HW159427  11.180   8.600   6.096
19196SOL    HW259428  11.177   8.692   5.976
19197SOL     OW59429  12.641  12.354   7.951
19197SOL    HW159430  12.711  12.339   8.014
19197SOL    HW259431  12.613  12.444   7.968
19198SOL     OW59432   4.856  11.795  13.882
19198SOL    HW159433   4.801  11.752  13.817
19198SOL    HW259434   4.907  11.859  13.832
19199SOL     OW59435   0.671   1.278  14.227
19199SOL    HW159436   0.606   1.310  14.290
19199SOL    HW259437   0.661   1.336  14.151
19200SOL     OW59438  12.044   6.424  12.995
19200SOL    HW159439  12.131   6.402  13.026
19200SOL    HW259440  11.994   6.444  13.074
19201SOL     OW59441   2.665   1.744   4.361
19201SOL    HW159442   2.642   1.676   4.297
19201SOL    HW259443   2.605   1.816   4.342
19202SOL     OW59444  11.639   5.672  12.428
19202SOL    HW159445  11.704   5.713  12.370
19202SOL    HW259446  11.644   5.722  12.509
19203SOL     OW59447   4.682   4.299   5.480
19203SOL    HW159448   4.741   4.347   5.421
19203SOL    HW259449   4.725   4.214   5.493
19204SOL     OW59450   0.643   3.654   3.051
19204SOL    HW159451   0.661   3.674   2.960
19204SOL    HW259452   0.729   3.634   3.089
19205SOL     OW59453   0.088   1.374   7.501
19205SOL    HW159454   0.177   1.407   7.492
19205SOL    HW259455   0.089   1.288   7.460
19206SOL     OW59456   2.549  14.229  12.921
19206SOL    HW159457   2.581  14.180  12.846
19206SOL    HW259458   2.598  14.311  12.918
19207SOL     OW59459   1.586   0.264  12.412
19207SOL    HW159460   1.637   0.343  12.400
19207SOL    HW259461   1.556   0.241  12.323
19208SOL     OW59462   1.643  10.685  13.543
19208SOL    HW159463   1.559  10.638  13.541
19208SOL    HW259464   1.647  10.723  13.631
19209SOL     OW59465   9.970   3.403   5.379
19209SOL    HW159466   9.987   3.495   5.358
19209SOL    HW259467   9.955   3.403   5.474
19210SOL     OW59468   6.073   2.452   3.505
19210SOL    HW159469   6.084   2.433   3.598
19210SOL    HW259470   6.097   2.544   3.496
19211SOL     OW59471  13.045  10.745   8.437
19211SOL    HW159472  13.021  10.709   8.523
19211SOL    HW259473  12.982  10.817   8.423
19212SOL     OW59474   3.165   1.150   7.367
19212SOL    HW159475   3.091   1.090   7.361
19212SOL    HW259476   3.176   1.165   7.461
19213SOL     OW59477   8.426   8.614  14.232
19213SOL    HW159478   8.444   8.532  14.187
19213SOL    HW259479   8.341   8.642  14.199
19214SOL     OW59480  12.269   3.766   4.868
19214SOL    HW159481  12.206   3.832   4.839
19214SOL    HW259482  12.337   3.816   4.913
19215SOL     OW59483   0.600   0.609  12.339
19215SOL    HW159484   0.611   0.540  12.404
19215SOL    HW259485   0.682   0.658  12.341
19216SOL     OW59486  10.891   8.602   3.198
19216SOL    HW159487  10.922   8.564   3.281
19216SOL    HW259488  10.813   8.651   3.222
19217SOL     OW59489   3.276   3.547   2.998
19217SOL    HW159490   3.332   3.532   2.922
19217SOL    HW259491   3.335   3.540   3.073
19218SOL     OW59492   8.211  10.123  12.668
19218SOL    HW159493   8.227  10.156  12.756
19218SOL    HW259494   8.280  10.059  12.653
19219SOL     OW59495   6.139   1.946   5.127
19219SOL    HW159496   6.052   1.908   5.137
19219SOL    HW259497   6.155   1.948   5.033
19220SOL     OW59498   5.567   8.346   3.001
19220SOL    HW159499   5.496   8.309   3.053
19220SOL    HW259500   5.599   8.272   2.948
19221SOL     OW59501  13.247  12.631   7.798
19221SOL    HW159502  13.229  12.559   7.859
19221SOL    HW259503  13.326  12.673   7.833
19222SOL     OW59504  10.852  13.997   7.343
19222SOL    HW159505  10.812  14.082   7.365
19222SOL    HW259506  10.883  14.008   7.254
19223SOL     OW59507  12.906  10.110   1.228
19223SOL    HW159508  12.857  10.059   1.292
19223SOL    HW259509  12.926  10.048   1.158
19224SOL     OW59510   5.452   0.937   3.935
19224SOL    HW159511   5.512   1.010   3.922
19224SOL    HW259512   5.406   0.929   3.851
19225SOL     OW59513  14.618  13.399   9.037
19225SOL    HW159514  14.704  13.359   9.047
19225SOL    HW259515  14.579  13.353   8.962
19226SOL     OW59516  14.087  10.483  10.884
19226SOL    HW159517  14.034  10.452  10.957
19226SOL    HW259518  14.052  10.570  10.865
19227SOL     OW59519   0.973   5.082   3.671
19227SOL    HW159520   0.911   5.143   3.712
19227SOL    HW259521   0.970   5.104   3.578
19228SOL     OW59522   6.720  14.755   9.309
19228SOL    HW159523   6.633  14.716   9.297
19228SOL    HW259524   6.718  14.789   9.399
19229SOL     OW59525   8.629  12.783   6.705
19229SOL    HW159526   8.605  12.736   6.625
19229SOL    HW259527   8.691  12.851   6.675
19230SOL     OW59528   8.750  12.650   1.324
19230SOL    HW159529   8.790  12.734   1.300
19230SOL    HW259530   8.792  12.627   1.407
19231SOL     OW59531   6.637   6.558   7.523
19231SOL    HW159532   6.665   6.648   7.505
19231SOL    HW259533   6.710   6.504   7.492
19232SOL     OW59534   6.996  13.078   3.523
19232SOL    HW159535   7.028  13.076   3.613
19232SOL    HW259536   6.964  12.989   3.507
19233SOL     OW59537  11.408   9.595   1.200
19233SOL    HW159538  11.353   9.572   1.126
19233SOL    HW259539  11.435   9.510   1.237
19234SOL     OW59540   1.386   8.613   7.459
19234SOL    HW159541   1.449   8.544   7.437
19234SOL    HW259542   1.351   8.588   7.544
19235SOL     OW59543   6.104  12.655   8.753
19235SOL    HW159544   6.167  12.667   8.682
19235SOL    HW259545   6.056  12.575   8.730
19236SOL     OW59546  11.574   0.183   9.413
19236SOL    HW159547  11.499   0.224   9.369
19236SOL    HW259548  11.645   0.187   9.349
19237SOL     OW59549   1.276   4.032  11.577
19237SOL    HW159550   1.219   3.963  11.612
19237SOL    HW259551   1.326   3.988  11.508
19238SOL     OW59552  12.995   0.415   3.509
19238SOL    HW159553  13.026   0.460   3.431
19238SOL    HW259554  12.974   0.485   3.571
19239SOL     OW59555   1.298  12.316  14.195
19239SOL    HW159556   1.355  12.323  14.272
19239SOL    HW259557   1.236  12.247  14.217
19240SOL     OW59558  10.294   2.419  10.637
19240SOL    HW159559  10.314   2.484  10.570
19240SOL    HW259560  10.378   2.398  10.676
19241SOL     OW59561  10.598   8.748  11.331
19241SOL    HW159562  10.653   8.771  11.256
19241SOL    HW259563  10.660   8.742  11.404
19242SOL     OW59564   6.142   3.808   1.729
19242SOL    HW159565   6.231   3.803   1.695
19242SOL    HW259566   6.128   3.901   1.747
19243SOL     OW59567  14.382   3.328   6.282
19243SOL    HW159568  14.388   3.234   6.302
19243SOL    HW259569  14.330   3.332   6.201
19244SOL     OW59570  11.618  12.923   1.118
19244SOL    HW159571  11.662  12.992   1.068
19244SOL    HW259572  11.652  12.931   1.207
19245SOL     OW59573   2.948   3.109  12.696
19245SOL    HW159574   2.875   3.048  12.704
19245SOL    HW259575   2.907   3.192  12.671
19246SOL     OW59576   1.676  10.489   6.691
19246SOL    HW159577   1.708  10.450   6.772
19246SOL    HW259578   1.604  10.546   6.718
19247SOL     OW59579   1.954   0.862   1.741
19247SOL    HW159580   1.984   0.896   1.825
19247SOL    HW259581   1.883   0.921   1.715
19248SOL     OW59582  11.679   9.566   4.910
19248SOL    HW159583  11.611   9.507   4.878
19248SOL    HW259584  11.721   9.599   4.831
19249SOL     OW59585   1.007   6.876   2.516
19249SOL    HW159586   0.922   6.834   2.501
19249SOL    HW259587   1.011   6.888   2.611
19250SOL     OW59588   1.924   1.104   0.338
19250SOL    HW159589   1.902   1.177   0.281
19250SOL    HW259590   1.893   1.027   0.291
19251SOL     OW59591  12.677  14.127  10.464
19251SOL    HW159592  12.634  14.042  10.459
19251SOL    HW259593  12.770  14.106  10.476
19252SOL     OW59594   8.192   5.286   1.263
19252SOL    HW159595   8.249   5.212   1.243
19252SOL    HW259596   8.252   5.359   1.277
19253SOL     OW59597   8.080   5.205  14.173
19253SOL    HW159598   8.131   5.153  14.112
19253SOL    HW259599   8.056   5.144  14.243
19254SOL     OW59600   6.126   2.600   4.209
19254SOL    HW159601   6.084   2.569   4.130
19254SOL    HW259602   6.217   2.570   4.202
19255SOL     OW59603   7.837   1.417   3.117
19255SOL    HW159604   7.921   1.444   3.155
19255SOL    HW259605   7.773   1.438   3.184
19256SOL     OW59606   7.228  13.401  11.127
19256SOL    HW159607   7.158  13.443  11.178
19256SOL    HW259608   7.214  13.307  11.141
19257SOL     OW59609   9.113   3.846   1.882
19257SOL    HW159610   9.040   3.903   1.859
19257SOL    HW259611   9.190   3.903   1.880
19258SOL     OW59612  10.389   5.682   8.156
19258SOL    HW159613  10.323   5.660   8.220
19258SOL    HW259614  10.431   5.599   8.134
19259SOL     OW59615   5.102   8.300  12.431
19259SOL    HW159616   5.171   8.271  12.371
19259SOL    HW259617   5.024   8.253  12.402
19260SOL     OW59618   0.951  14.797   9.129
19260SOL    HW159619   1.021  14.806   9.195
19260SOL    HW259620   0.941  14.702   9.119
19261SOL     OW59621  12.727   4.665   0.279
19261SOL    HW159622  12.660   4.719   0.237
19261SOL    HW259623  12.805   4.720   0.279
19262SOL     OW59624  14.011   7.929  14.576
19262SOL    HW159625  14.022   8.001  14.637
19262SOL    HW259626  13.934   7.881  14.608
19263SOL     OW59627   8.065  13.894   8.850
19263SOL    HW159628   8.110  13.810   8.859
19263SOL    HW259629   7.988  13.874   8.796
19264SOL     OW59630  14.091   5.816   2.572
19264SOL    HW159631  14.048   5.901   2.582
19264SOL    HW259632  14.019   5.754   2.560
19265SOL     OW59633   7.468   4.206   4.735
19265SOL    HW159634   7.503   4.123   4.768
19265SOL    HW259635   7.442   4.187   4.645
19266SOL     OW59636   7.988   3.801   9.051
19266SOL    HW159637   7.967   3.814   9.144
19266SOL    HW259638   7.955   3.879   9.007
19267SOL     OW59639   8.195  10.900  11.132
19267SOL    HW159640   8.124  10.959  11.107
19267SOL    HW259641   8.269  10.957  11.150
19268SOL     OW59642   7.812   6.677  11.329
19268SOL    HW159643   7.788   6.651  11.418
19268SOL    HW259644   7.813   6.595  11.280
19269SOL     OW59645   5.431   1.484  10.431
19269SOL    HW159646   5.506   1.477  10.490
19269SOL    HW259647   5.455   1.431  10.355
19270SOL     OW59648   3.259   2.357   9.410
19270SOL    HW159649   3.233   2.272   9.448
19270SOL    HW259650   3.338   2.337   9.359
19271SOL     OW59651   9.860   0.108   0.699
19271SOL    HW159652   9.769   0.118   0.669
19271SOL    HW259653   9.869   0.172   0.769
19272SOL     OW59654   5.388   7.491   4.184
19272SOL    HW159655   5.425   7.565   4.233
19272SOL    HW259656   5.316   7.529   4.134
19273SOL     OW59657  13.426   9.147   3.972
19273SOL    HW159658  13.395   9.125   3.884
19273SOL    HW259659  13.415   9.066   4.022
19274SOL     OW59660   9.466   8.566  12.822
19274SOL    HW159661   9.487   8.658  12.836
19274SOL    HW259662   9.372   8.566  12.800
19275SOL     OW59663   9.460  11.808   2.505
19275SOL    HW159664   9.462  11.714   2.522
19275SOL    HW259665   9.409  11.817   2.425
19276SOL     OW59666  10.418   2.560  10.450
19276SOL    HW159667  10.495   2.614  10.468
19276SOL    HW259668  10.453   2.471  10.442
19277SOL     OW59669   5.113   2.098   2.077
19277SOL    HW159670   5.199   2.113   2.115
19277SOL    HW259671   5.101   2.003   2.083
19278SOL     OW59672  12.872  14.054   9.094
19278SOL    HW159673  12.854  14.061   9.000
19278SOL    HW259674  12.876  13.959   9.110
19279SOL     OW59675  12.301   2.103  11.981
19279SOL    HW159676  12.280   2.021  11.936
19279SOL    HW259677  12.245   2.168  11.937
19280SOL     OW59678  13.713   3.019   3.668
19280SOL    HW159679  13.645   3.030   3.601
19280SOL    HW259680  13.704   2.929   3.697
19281SOL     OW59681  11.114   9.921  11.146
19281SOL    HW159682  11.181   9.860  11.178
19281SOL    HW259683  11.164   9.992  11.106
19282SOL     OW59684  11.515   1.795   8.345
19282SOL    HW159685  11.504   1.740   8.267
19282SOL    HW259686  11.430   1.836   8.358
19283SOL     OW59687   6.471   2.339  11.705
19283SOL    HW159688   6.521   2.258  11.694
19283SOL    HW259689   6.382   2.309  11.724
19284SOL     OW59690   0.005  13.813   7.633
19284SOL    HW159691  14.877  13.908   7.645
19284SOL    HW259692  14.826  13.795   7.559
19285SOL     OW59693   3.839   8.855  10.813
19285SOL    HW159694   3.923   8.869  10.858
19285SOL    HW259695   3.833   8.760  10.802
19286SOL     OW59696   3.787   7.193  12.228
19286SOL    HW159697   3.877   7.162  12.232
19286SOL    HW259698   3.734   7.115  12.241
19287SOL     OW59699   1.674   2.387   2.371
19287SOL    HW159700   1.621   2.446   2.318
19287SOL    HW259701   1.614   2.352   2.437
19288SOL     OW59702   7.449  14.526  11.052
19288SOL    HW159703   7.401  14.602  11.085
19288SOL    HW259704   7.395  14.492  10.981
19289SOL     OW59705   2.747   7.096   1.904
19289SOL    HW159706   2.677   7.103   1.838
19289SOL    HW259707   2.739   7.175   1.957
19290SOL     OW59708   4.263   9.813   0.265
19290SOL    HW159709   4.289   9.797   0.174
19290SOL    HW259710   4.201   9.744   0.285
19291SOL     OW59711   3.019   0.135   3.892
19291SOL    HW159712   2.978   0.066   3.840
19291SOL    HW259713   3.072   0.184   3.830
19292SOL     OW59714  12.201   4.992   7.649
19292SOL    HW159715  12.144   5.045   7.593
19292SOL    HW259716  12.149   4.977   7.729
19293SOL     OW59717   3.073   8.581  12.154
19293SOL    HW159718   3.157   8.578  12.107
19293SOL    HW259719   3.096   8.564  12.245
19294SOL     OW59720  14.821   5.550   2.206
19294SOL    HW159721  14.833   5.637   2.245
19294SOL    HW259722  14.726   5.540   2.199
19295SOL     OW59723   4.484   5.209   7.275
19295SOL    HW159724   4.407   5.191   7.223
19295SOL    HW259725   4.452   5.258   7.351
19296SOL     OW59726   9.926   4.846  10.060
19296SOL    HW159727   9.844   4.891  10.077
19296SOL    HW259728   9.987   4.882  10.125
19297SOL     OW59729   4.016  14.779   9.528
19297SOL    HW159730   3.953  14.771   9.456
19297SOL    HW259731   4.019  14.691   9.567
19298SOL     OW59732  12.533   6.673   5.818
19298SOL    HW159733  12.545   6.601   5.879
19298SOL    HW259734  12.622   6.696   5.790
19299SOL     OW59735  13.952   0.828   1.279
19299SOL    HW159736  13.938   0.736   1.257
19299SOL    HW259737  13.903   0.841   1.360
19300SOL     OW59738   1.607  12.242   4.152
19300SOL    HW159739   1.518  12.252   4.184
19300SOL    HW259740   1.660  12.233   4.231
19301SOL     OW59741   2.504   7.665  11.802
19301SOL    HW159742   2.589   7.668  11.758
19301SOL    HW259743   2.521   7.619  11.884
19302SOL     OW59744  13.795   3.918   9.283
19302SOL    HW159745  13.778   3.988   9.346
19302SOL    HW259746  13.883   3.937   9.249
19303SOL     OW59747  12.529   3.176   3.568
19303SOL    HW159748  12.609   3.218   3.598
19303SOL    HW259749  12.554   3.084   3.555
19304SOL     OW59750   4.072   0.284   1.685
19304SOL    HW159751   4.140   0.266   1.620
19304SOL    HW259752   4.016   0.350   1.644
19305SOL     OW59753   6.962   7.238   2.790
19305SOL    HW159754   6.986   7.301   2.858
19305SOL    HW259755   7.038   7.180   2.782
19306SOL     OW59756  11.803   0.347   4.947
19306SOL    HW159757  11.787   0.369   5.039
19306SOL    HW259758  11.744   0.273   4.929
19307SOL     OW59759   6.235  11.163   8.068
19307SOL    HW159760   6.198  11.166   7.979
19307SOL    HW259761   6.159  11.170   8.126
19308SOL     OW59762  13.662   2.004  10.425
19308SOL    HW159763  13.661   2.081  10.369
19308SOL    HW259764  13.650   2.038  10.514
19309SOL     OW59765   5.244   7.200   0.004
19309SOL    HW159766   5.236   7.105  14.876
19309SOL    HW259767   5.298   7.213   0.083
19310SOL     OW59768   4.017   5.305  14.568
19310SOL    HW159769   4.105   5.304  14.532
19310SOL    HW259770   3.964   5.348  14.501
19311SOL     OW59771  13.353   7.083   6.626
19311SOL    HW159772  13.304   7.165   6.629
19311SOL    HW259773  13.392   7.081   6.539
19312SOL     OW59774   1.170  10.844  11.236
19312SOL    HW159775   1.234  10.774  11.224
19312SOL    HW259776   1.133  10.828  11.322
19313SOL     OW59777   2.714   5.954  11.300
19313SOL    HW159778   2.643   5.943  11.237
19313SOL    HW259779   2.767   6.026  11.264
19314SOL     OW59780  10.236  10.857   2.065
19314SOL    HW159781  10.255  10.792   2.132
19314SOL    HW259782  10.160  10.905   2.098
19315SOL     OW59783   3.394  11.126   3.397
19315SOL    HW159784   3.346  11.189   3.343
19315SOL    HW259785   3.398  11.166   3.484
19316SOL     OW59786   6.464   1.573   4.837
19316SOL    HW159787   6.375   1.597   4.864
19316SOL    HW259788   6.520   1.611   4.905
19317SOL     OW59789   0.092   9.459  12.921
19317SOL    HW159790   0.133   9.451  13.008
19317SOL    HW259791   0.102   9.552  12.898
19318SOL     OW59792   8.453   9.638   3.057
19318SOL    HW159793   8.362   9.658   3.036
19318SOL    HW259794   8.448   9.569   3.123
19319SOL     OW59795   9.985  12.528   5.680
19319SOL    HW159796  10.066  12.476   5.681
19319SOL    HW259797  10.013  12.614   5.647
19320SOL     OW59798   5.868  11.794  14.017
19320SOL    HW159799   5.780  11.814  14.048
19320SOL    HW259800   5.862  11.800  13.921
19321SOL     OW59801   3.863   0.485   7.253
19321SOL    HW159802   3.852   0.556   7.189
19321SOL    HW259803   3.795   0.422   7.230
19322SOL     OW59804   4.152   7.226   7.220
19322SOL    HW159805   4.063   7.230   7.186
19322SOL    HW259806   4.203   7.282   7.161
19323SOL     OW59807   1.534   4.977  11.414
19323SOL    HW159808   1.533   5.035  11.338
19323SOL    HW259809   1.446   4.984  11.451
19324SOL     OW59810   4.322  11.968   1.144
19324SOL    HW159811   4.312  11.954   1.050
19324SOL    HW259812   4.238  12.003   1.172
19325SOL     OW59813   8.876  12.509   6.737
19325SOL    HW159814   8.813  12.514   6.665
19325SOL    HW259815   8.946  12.453   6.704
19326SOL     OW59816  13.410  10.658   7.758
19326SOL    HW159817  13.471  10.592   7.727
19326SOL    HW259818  13.465  10.731   7.784
19327SOL     OW59819  10.233  13.134   2.595
19327SOL    HW159820  10.273  13.194   2.532
19327SOL    HW259821  10.192  13.066   2.541
19328SOL     OW59822   1.992   8.423  11.444
19328SOL    HW159823   1.994   8.365  11.368
19328SOL    HW259824   1.937   8.497  11.416
19329SOL     OW59825   7.718   2.055   9.398
19329SOL    HW159826   7.703   1.961   9.390
19329SOL    HW259827   7.667   2.081   9.474
19330SOL     OW59828  13.140   3.168   7.609
19330SOL    HW159829  13.148   3.109   7.684
19330SOL    HW259830  13.231   3.184   7.582
19331SOL     OW59831   3.481   7.400   2.330
19331SOL    HW159832   3.509   7.325   2.278
19331SOL    HW259833   3.547   7.467   2.311
19332SOL     OW59834   7.720  10.976   5.541
19332SOL    HW159835   7.815  10.985   5.545
19332SOL    HW259836   7.691  10.980   5.632
19333SOL     OW59837   4.897   3.621   8.681
19333SOL    HW159838   4.835   3.558   8.719
19333SOL    HW259839   4.841   3.690   8.645
19334SOL     OW59840  13.047  13.620   4.231
19334SOL    HW159841  13.094  13.621   4.147
19334SOL    HW259842  12.964  13.576   4.212
19335SOL     OW59843   3.873   2.193  12.838
19335SOL    HW159844   3.857   2.265  12.776
19335SOL    HW259845   3.910   2.236  12.915
19336SOL     OW59846  10.369   7.637   7.239
19336SOL    HW159847  10.401   7.627   7.328
19336SOL    HW259848  10.275   7.650   7.248
19337SOL     OW59849   3.412   3.619   7.646
19337SOL    HW159850   3.401   3.675   7.723
19337SOL    HW259851   3.391   3.531   7.677
19338SOL     OW59852   4.917   1.897   4.555
19338SOL    HW159853   4.859   1.958   4.601
19338SOL    HW259854   4.898   1.912   4.462
19339SOL     OW59855   9.656   3.111   9.702
19339SOL    HW159856   9.735   3.060   9.683
19339SOL    HW259857   9.685   3.202   9.700
19340SOL     OW59858   8.539   3.372   8.408
19340SOL    HW159859   8.558   3.326   8.489
19340SOL    HW259860   8.589   3.453   8.413
19341SOL     OW59861   1.989   0.825   4.336
19341SOL    HW159862   1.949   0.739   4.323
19341SOL    HW259863   2.073   0.820   4.290
19342SOL     OW59864   8.790   3.137   1.769
19342SOL    HW159865   8.811   3.210   1.828
19342SOL    HW259866   8.758   3.180   1.689
19343SOL     OW59867  13.034   1.795   5.678
19343SOL    HW159868  13.057   1.721   5.622
19343SOL    HW259869  13.113   1.850   5.678
19344SOL     OW59870   8.477  14.311   4.833
19344SOL    HW159871   8.392  14.298   4.875
19344SOL    HW259872   8.510  14.392   4.873
19345SOL     OW59873   5.504   5.261   1.972
19345SOL    HW159874   5.458   5.340   1.999
19345SOL    HW259875   5.514   5.271   1.877
19346SOL     OW59876  10.327   3.052   0.166
19346SOL    HW159877  10.355   3.084   0.251
19346SOL    HW259878  10.287   3.128   0.123
19347SOL     OW59879   2.884  10.191   6.341
19347SOL    HW159880   2.818  10.228   6.400
19347SOL    HW259881   2.957  10.254   6.345
19348SOL     OW59882  10.399   7.133   0.192
19348SOL    HW159883  10.341   7.174   0.127
19348SOL    HW259884  10.340   7.091   0.254
19349SOL     OW59885   7.928  10.574   7.489
19349SOL    HW159886   7.977  10.600   7.411
19349SOL    HW259887   7.982  10.508   7.531
19350SOL     OW59888   9.568   8.607  10.708
19350SOL    HW159889   9.512   8.530  10.698
19350SOL    HW259890   9.541   8.666  10.637
19351SOL     OW59891   6.651   1.117  10.169
19351SOL    HW159892   6.666   1.114  10.074
19351SOL    HW259893   6.661   1.210  10.192
19352SOL     OW59894   6.684  13.955  12.457
19352SOL    HW159895   6.623  14.027  12.474
19352SOL    HW259896   6.651  13.883  12.511
19353SOL     OW59897   8.220   4.177   7.550
19353SOL    HW159898   8.154   4.168   7.619
19353SOL    HW259899   8.292   4.223   7.592
19354SOL     OW59900  11.379   3.946   6.240
19354SOL    HW159901  11.398   3.865   6.192
19354SOL    HW259902  11.283   3.945   6.251
19355SOL     OW59903   4.507   6.331   6.342
19355SOL    HW159904   4.500   6.393   6.414
19355SOL    HW259905   4.529   6.248   6.384
19356SOL     OW59906  12.604   4.846   0.689
19356SOL    HW159907  12.635   4.795   0.615
19356SOL    HW259908  12.510   4.857   0.674
19357SOL     OW59909  13.054   8.362   9.646
19357SOL    HW159910  13.010   8.321   9.571
19357SOL    HW259911  13.119   8.298   9.674
19358SOL     OW59912   6.108  10.470  11.000
19358SOL    HW159913   6.117  10.402  10.934
19358SOL    HW259914   6.016  10.496  10.996
19359SOL     OW59915  14.233  13.153   2.887
19359SOL    HW159916  14.302  13.096   2.854
19359SOL    HW259917  14.251  13.238   2.846
19360SOL     OW59918   3.694   0.792   1.985
19360SOL    HW159919   3.642   0.774   1.907
19360SOL    HW259920   3.720   0.706   2.018
19361SOL     OW59921   2.145   9.723   3.797
19361SOL    HW159922   2.123   9.652   3.737
19361SOL    HW259923   2.068   9.781   3.795
19362SOL     OW59924  13.764  11.679   3.322
19362SOL    HW159925  13.830  11.740   3.354
19362SOL    HW259926  13.739  11.714   3.236
19363SOL     OW59927   8.702   4.659   2.420
19363SOL    HW159928   8.756   4.709   2.481
19363SOL    HW259929   8.664   4.589   2.473
19364SOL     OW59930  11.847  13.996   6.106
19364SOL    HW159931  11.761  13.963   6.079
19364SOL    HW259932  11.852  14.084   6.070
19365SOL     OW59933   3.629  12.293   1.933
19365SOL    HW159934   3.611  12.254   2.018
19365SOL    HW259935   3.573  12.245   1.872
19366SOL     OW59936   7.937   9.239  11.812
19366SOL    HW159937   8.022   9.199  11.793
19366SOL    HW259938   7.893   9.178  11.870
19367SOL     OW59939   7.376   5.068   9.949
19367SOL    HW159940   7.358   5.160   9.927
19367SOL    HW259941   7.459   5.049   9.907
19368SOL     OW59942   1.549  14.879  11.932
19368SOL    HW159943   1.612  14.807  11.939
19368SOL    HW259944   1.566   0.038  11.846
19369SOL     OW59945   5.967   7.491  10.908
19369SOL    HW159946   5.881   7.457  10.933
19369SOL    HW259947   5.959   7.512  10.815
19370SOL     OW59948   6.111   7.735   3.063
19370SOL    HW159949   6.145   7.785   2.990
19370SOL    HW259950   6.188   7.693   3.101
19371SOL     OW59951  12.883   0.983   4.162
19371SOL    HW159952  12.834   0.928   4.100
19371SOL    HW259953  12.897   1.065   4.114
19372SOL     OW59954   9.132   2.839  12.219
19372SOL    HW159955   9.105   2.793  12.299
19372SOL    HW259956   9.063   2.903  12.204
19373SOL     OW59957  12.596  10.410   7.969
19373SOL    HW159958  12.648  10.480   7.932
19373SOL    HW259959  12.649  10.331   7.956
19374SOL     OW59960  12.458   5.036  12.090
19374SOL    HW159961  12.370   5.012  12.119
19374SOL    HW259962  12.444   5.105  12.025
19375SOL     OW59963  10.176   9.157   4.128
19375SOL    HW159964  10.218   9.075   4.152
19375SOL    HW259965  10.129   9.185   4.206
19376SOL     OW59966  12.676  13.137   7.907
19376SOL    HW159967  12.695  13.163   7.817
19376SOL    HW259968  12.664  13.220   7.953
19377SOL     OW59969   1.657  10.199   8.092
19377SOL    HW159970   1.741  10.240   8.116
19377SOL    HW259971   1.603  10.209   8.171
19378SOL     OW59972   6.385   2.148   4.966
19378SOL    HW159973   6.463   2.157   4.912
19378SOL    HW259974   6.352   2.060   4.948
19379SOL     OW59975   4.811  14.757  13.111
19379SOL    HW159976   4.880  14.822  13.124
19379SOL    HW259977   4.773  14.779  13.026
19380SOL     OW59978  13.756  10.357  10.834
19380SOL    HW159979  13.843  10.383  10.865
19380SOL    HW259980  13.755  10.383  10.742
19381SOL     OW59981   4.149   9.469  14.202
19381SOL    HW159982   4.193   9.554  14.192
19381SOL    HW259983   4.068   9.489  14.248
19382SOL     OW59984   9.259   2.505  12.587
19382SOL    HW159985   9.339   2.460  12.611
19382SOL    HW259986   9.287   2.576  12.529
19383SOL     OW59987  11.216   2.141   8.563
19383SOL    HW159988  11.202   2.229   8.598
19383SOL    HW259989  11.271   2.098   8.629
19384SOL     OW59990   4.534   8.882   4.081
19384SOL    HW159991   4.482   8.896   4.002
19384SOL    HW259992   4.621   8.917   4.059
19385SOL     OW59993  12.009  12.830   1.955
19385SOL    HW159994  11.967  12.752   1.918
19385SOL    HW259995  12.082  12.795   2.007
19386SOL     OW59996   3.893   6.635   3.585
19386SOL    HW159997   3.932   6.663   3.668
19386SOL    HW259998   3.967   6.632   3.524
19387SOL     OW59999  11.983   8.748   5.383
19387SOL    HW160000  12.037   8.803   5.327
19387SOL    HW260001  12.043   8.681   5.416
19388SOL     OW60002   4.022  10.165   5.572
19388SOL    HW160003   3.961  10.166   5.497
19388SOL    HW260004   4.082  10.238   5.555
19389SOL     OW60005   7.236   6.721   7.359
19389SOL    HW160006   7.327   6.696   7.377
19389SOL    HW260007   7.222   6.697   7.268
19390SOL     OW60008  11.145  13.036   7.123
19390SOL    HW160009  11.123  12.945   7.102
19390SOL    HW260010  11.146  13.040   7.218
19391SOL     OW60011  11.581   6.006   6.942
19391SOL    HW160012  11.491   6.001   6.976
19391SOL    HW260013  11.613   6.091   6.971
19392SOL     OW60014   7.771   4.582   8.485
19392SOL    HW160015   7.862   4.588   8.455
19392SOL    HW260016   7.721   4.629   8.417
19393SOL     OW60017   9.078   2.573   1.097
19393SOL    HW160018   9.003   2.620   1.060
19393SOL    HW260019   9.064   2.481   1.073
19394SOL     OW60020   0.318  12.830  14.374
19394SOL    HW160021   0.290  12.741  14.352
19394SOL    HW260022   0.289  12.883  14.300
19395SOL     OW60023   2.722   4.997   0.377
19395SOL    HW160024   2.811   5.030   0.384
19395SOL    HW260025   2.728   4.920   0.322
19396SOL     OW60026   9.639   0.518   0.520
19396SOL    HW160027   9.648   0.607   0.485
19396SOL    HW260028   9.623   0.464   0.443
19397SOL     OW60029  10.928   9.043  13.474
19397SOL    HW160030  11.001   9.016  13.530
19397SOL    HW260031  10.891   9.120  13.518
19398SOL     OW60032   9.958   6.257   5.352
19398SOL    HW160033   9.866   6.286   5.358
19398SOL    HW260034   9.954   6.172   5.308
19399SOL     OW60035  13.949  14.741   8.795
19399SOL    HW160036  13.922  14.739   8.703
19399SOL    HW260037  13.893  14.675   8.837
19400SOL     OW60038   6.015   0.694   4.045
19400SOL    HW160039   6.000   0.620   4.104
19400SOL    HW260040   5.981   0.663   3.960
19401SOL     OW60041   1.733  13.280   2.746
19401SOL    HW160042   1.740  13.349   2.681
19401SOL    HW260043   1.824  13.264   2.773
19402SOL     OW60044  13.180   7.726   7.826
19402SOL    HW160045  13.111   7.688   7.771
19402SOL    HW260046  13.135   7.788   7.883
19403SOL     OW60047   4.676   0.650   2.877
19403SOL    HW160048   4.698   0.740   2.852
19403SOL    HW260049   4.685   0.649   2.973
19404SOL     OW60050   2.014   3.755   3.532
19404SOL    HW160051   1.985   3.805   3.456
19404SOL    HW260052   2.106   3.779   3.543
19405SOL     OW60053   6.942   4.167   3.867
19405SOL    HW160054   6.900   4.229   3.807
19405SOL    HW260055   7.028   4.151   3.829
19406SOL     OW60056   6.657  10.201   4.092
19406SOL    HW160057   6.618  10.177   4.008
19406SOL    HW260058   6.669  10.296   4.086
19407SOL     OW60059   7.567  11.956   8.277
19407SOL    HW160060   7.633  11.900   8.238
19407SOL    HW260061   7.604  11.981   8.362
19408SOL     OW60062  11.706   7.660  14.321
19408SOL    HW160063  11.657   7.639  14.400
19408SOL    HW260064  11.689   7.588  14.261
19409SOL     OW60065  14.537   6.528   5.804
19409SOL    HW160066  14.497   6.442   5.815
19409SOL    HW260067  14.471   6.589   5.838
19410SOL     OW60068   6.891   2.565  14.347
19410SOL    HW160069   6.934   2.514  14.278
19410SOL    HW260070   6.833   2.624  14.299
19411SOL     OW60071   9.651   7.342  12.121
19411SOL    HW160072   9.622   7.262  12.165
19411SOL    HW260073   9.585   7.408  12.145
19412SOL     OW60074   9.769   7.311  14.294
19412SOL    HW160075   9.864   7.297  14.289
19412SOL    HW260076   9.739   7.247  14.359
19413SOL     OW60077   0.859   7.966   8.900
19413SOL    HW160078   0.918   8.007   8.837
19413SOL    HW260079   0.803   7.909   8.847
19414SOL     OW60080   6.710  12.172   8.900
19414SOL    HW160081   6.748  12.103   8.846
19414SOL    HW260082   6.621  12.182   8.867
19415SOL     OW60083  11.359   6.323   6.032
19415SOL    HW160084  11.397   6.266   5.965
19415SOL    HW260085  11.341   6.405   5.987
19416SOL     OW60086   0.975   9.033   9.666
19416SOL    HW160087   0.967   9.012   9.573
19416SOL    HW260088   0.954   8.951   9.710
19417SOL     OW60089   8.835  10.573   3.579
19417SOL    HW160090   8.869  10.492   3.541
19417SOL    HW260091   8.893  10.591   3.653
19418SOL     OW60092   5.791   1.408  12.001
19418SOL    HW160093   5.727   1.341  11.975
19418SOL    HW260094   5.748   1.456  12.072
19419SOL     OW60095  14.847  12.139   2.576
19419SOL    HW160096  14.782  12.074   2.602
19419SOL    HW260097  14.859  12.125   2.482
19420SOL     OW60098   9.376  10.579   1.768
19420SOL    HW160099   9.281  10.593   1.772
19420SOL    HW260100   9.412  10.664   1.746
19421SOL     OW60101  13.742  12.118  11.724
19421SOL    HW160102  13.654  12.142  11.697
19421SOL    HW260103  13.733  12.031  11.764
19422SOL     OW60104   4.576   5.257  12.964
19422SOL    HW160105   4.657   5.256  12.914
19422SOL    HW260106   4.515   5.307  12.910
19423SOL     OW60107   6.576   0.657   7.984
19423SOL    HW160108   6.492   0.672   7.940
19423SOL    HW260109   6.622   0.740   7.976
19424SOL     OW60110  11.523   4.171  11.759
19424SOL    HW160111  11.473   4.140  11.834
19424SOL    HW260112  11.530   4.265  11.771
19425SOL     OW60113   3.272  14.127   1.350
19425SOL    HW160114   3.274  14.033   1.365
19425SOL    HW260115   3.364  14.154   1.351
19426SOL     OW60116  12.385  11.501   8.314
19426SOL    HW160117  12.322  11.541   8.255
19426SOL    HW260118  12.453  11.567   8.325
19427SOL     OW60119   1.329  11.320   7.835
19427SOL    HW160120   1.266  11.247   7.840
19427SOL    HW260121   1.282  11.389   7.788
19428SOL     OW60122  11.609   7.296   3.179
19428SOL    HW160123  11.619   7.223   3.118
19428SOL    HW260124  11.529   7.276   3.227
19429SOL     OW60125  11.695   2.369  13.418
19429SOL    HW160126  11.708   2.283  13.457
19429SOL    HW260127  11.718   2.431  13.488
19430SOL     OW60128   2.488   7.461   5.771
19430SOL    HW160129   2.443   7.503   5.697
19430SOL    HW260130   2.418   7.419   5.821
19431SOL     OW60131   0.792  11.938   5.237
19431SOL    HW160132   0.829  11.904   5.156
19431SOL    HW260133   0.795  11.863   5.298
19432SOL     OW60134   6.100   1.287   5.084
19432SOL    HW160135   6.104   1.381   5.103
19432SOL    HW260136   6.043   1.252   5.152
19433SOL     OW60137   2.095   9.872   4.518
19433SOL    HW160138   2.181   9.906   4.493
19433SOL    HW260139   2.033   9.940   4.491
19434SOL     OW60140  12.582  12.082   3.107
19434SOL    HW160141  12.507  12.110   3.055
19434SOL    HW260142  12.617  12.006   3.059
19435SOL     OW60143  13.841  10.015   9.842
19435SOL    HW160144  13.894   9.988   9.918
19435SOL    HW260145  13.753  10.026   9.878
19436SOL     OW60146   7.992   5.394   2.019
19436SOL    HW160147   8.080   5.429   2.030
19436SOL    HW260148   7.938   5.471   2.003
19437SOL     OW60149  14.230   4.542  14.565
19437SOL    HW160150  14.268   4.477  14.625
19437SOL    HW260151  14.305   4.595  14.537
19438SOL     OW60152  12.942   4.059   1.068
19438SOL    HW160153  12.904   3.974   1.089
19438SOL    HW260154  13.019   4.040   1.015
19439SOL     OW60155   3.444   9.436  14.179
19439SOL    HW160156   3.536   9.410  14.165
19439SOL    HW260157   3.404   9.361  14.222
19440SOL     OW60158   1.236  14.857  11.579
19440SOL    HW160159   1.244  14.793  11.508
19440SOL    HW260160   1.142  14.867  11.592
19441SOL     OW60161   6.059  12.086   8.092
19441SOL    HW160162   6.110  12.166   8.082
19441SOL    HW260163   6.116  12.026   8.141
19442SOL     OW60164  11.641   3.981   9.183
19442SOL    HW160165  11.730   3.997   9.212
19442SOL    HW260166  11.649   3.918   9.112
19443SOL     OW60167   4.032  14.148   2.109
19443SOL    HW160168   4.112  14.172   2.155
19443SOL    HW260169   3.981  14.098   2.173
19444SOL     OW60170  13.342   5.415   2.960
19444SOL    HW160171  13.272   5.351   2.974
19444SOL    HW260172  13.345   5.466   3.041
19445SOL     OW60173   3.227   8.580   4.347
19445SOL    HW160174   3.205   8.516   4.414
19445SOL    HW260175   3.316   8.557   4.320
19446SOL     OW60176   6.642   8.170   4.222
19446SOL    HW160177   6.685   8.188   4.138
19446SOL    HW260178   6.555   8.140   4.198
19447SOL     OW60179   2.051  10.984  12.384
19447SOL    HW160180   2.097  11.051  12.333
19447SOL    HW260181   2.033  11.027  12.468
19448SOL     OW60182  10.315  14.670  14.794
19448SOL    HW160183  10.303  14.726  14.870
19448SOL    HW260184  10.401  14.630  14.806
19449SOL     OW60185   1.229   3.829   3.697
19449SOL    HW160186   1.207   3.764   3.763
19449SOL    HW260187   1.322   3.813   3.678
19450SOL     OW60188  14.190   2.366   4.609
19450SOL    HW160189  14.252   2.336   4.542
19450SOL    HW260190  14.128   2.293   4.619
19451SOL     OW60191   2.117  14.581   7.912
19451SOL    HW160192   2.033  14.626   7.906
19451SOL    HW260193   2.142  14.565   7.821
19452SOL     OW60194   9.831   4.908   5.474
19452SOL    HW160195   9.917   4.869   5.457
19452SOL    HW260196   9.776   4.878   5.401
19453SOL     OW60197  12.486   8.543   9.909
19453SOL    HW160198  12.445   8.476   9.854
19453SOL    HW260199  12.423   8.615   9.909
19454SOL     OW60200   8.250   1.326   7.095
19454SOL    HW160201   8.234   1.296   7.005
19454SOL    HW260202   8.177   1.385   7.114
19455SOL     OW60203   4.606   4.080   4.592
19455SOL    HW160204   4.654   4.019   4.648
19455SOL    HW260205   4.516   4.076   4.624
19456SOL     OW60206   6.709   3.963   0.661
19456SOL    HW160207   6.803   3.981   0.662
19456SOL    HW260208   6.696   3.908   0.584
19457SOL     OW60209  12.896  12.692   3.209
19457SOL    HW160210  12.844  12.765   3.242
19457SOL    HW260211  12.905  12.633   3.284
19458SOL     OW60212  13.125   1.139   1.042
19458SOL    HW160213  13.041   1.176   1.016
19458SOL    HW260214  13.151   1.190   1.119
19459SOL     OW60215  14.466   3.985  13.479
19459SOL    HW160216  14.440   3.948  13.394
19459SOL    HW260217  14.425   4.071  13.482
19460SOL     OW60218   5.073   7.661   4.207
19460SOL    HW160219   5.013   7.705   4.147
19460SOL    HW260220   5.074   7.716   4.285
19461SOL     OW60221  12.947  13.550   8.483
19461SOL    HW160222  12.958  13.572   8.391
19461SOL    HW260223  13.036  13.545   8.518
19462SOL     OW60224  12.650   8.846   1.059
19462SOL    HW160225  12.610   8.877   0.978
19462SOL    HW260226  12.582   8.792   1.100
19463SOL     OW60227   1.898  13.170  11.585
19463SOL    HW160228   1.951  13.236  11.630
19463SOL    HW260229   1.817  13.165  11.636
19464SOL     OW60230  12.567  13.907  10.992
19464SOL    HW160231  12.556  13.870  10.904
19464SOL    HW260232  12.490  13.877  11.040
19465SOL     OW60233   0.934   0.364   1.237
19465SOL    HW160234   0.915   0.449   1.275
19465SOL    HW260235   0.893   0.301   1.296
19466SOL     OW60236   2.178   9.812   4.768
19466SOL    HW160237   2.095   9.784   4.805
19466SOL    HW260238   2.159   9.830   4.676
19467SOL     OW60239   6.836   7.258  12.442
19467SOL    HW160240   6.827   7.281  12.349
19467SOL    HW260241   6.823   7.164  12.445
19468SOL     OW60242   3.601   6.351   5.187
19468SOL    HW160243   3.654   6.273   5.200
19468SOL    HW260244   3.541   6.329   5.115
19469SOL     OW60245   3.959   9.802   2.509
19469SOL    HW160246   3.984   9.796   2.417
19469SOL    HW260247   4.009   9.877   2.542
19470SOL     OW60248   7.347   1.133  10.889
19470SOL    HW160249   7.346   1.126  10.984
19470SOL    HW260250   7.255   1.123  10.864
19471SOL     OW60251   4.445   0.785   1.485
19471SOL    HW160252   4.473   0.856   1.427
19471SOL    HW260253   4.372   0.822   1.534
19472SOL     OW60254   8.558   5.795  11.238
19472SOL    HW160255   8.610   5.872  11.261
19472SOL    HW260256   8.514   5.771  11.320
19473SOL     OW60257   5.552  13.573  13.853
19473SOL    HW160258   5.471  13.569  13.803
19473SOL    HW260259   5.581  13.664  13.844
19474SOL     OW60260  13.522  14.513  13.538
19474SOL    HW160261  13.446  14.530  13.594
19474SOL    HW260262  13.582  14.463  13.594
19475SOL     OW60263   3.532  12.467  11.390
19475SOL    HW160264   3.460  12.455  11.328
19475SOL    HW260265   3.537  12.562  11.402
19476SOL     OW60266   0.014   9.217   4.205
19476SOL    HW160267   0.105   9.222   4.175
19476SOL    HW260268  14.855   9.147   4.152
19477SOL     OW60269   7.577  14.027  13.489
19477SOL    HW160270   7.600  13.989  13.575
19477SOL    HW260271   7.525  13.959  13.447
19478SOL     OW60272   2.648   6.972  14.829
19478SOL    HW160273   2.570   7.017  14.861
19478SOL    HW260274   2.639   6.973  14.733
19479SOL     OW60275   6.625   0.513   5.653
19479SOL    HW160276   6.701   0.553   5.696
19479SOL    HW260277   6.556   0.516   5.719
19480SOL     OW60278  13.677  13.211   0.704
19480SOL    HW160279  13.697  13.206   0.797
19480SOL    HW260280  13.614  13.140   0.689
19481SOL     OW60281   3.927   9.582  11.394
19481SOL    HW160282   3.883   9.550  11.315
19481SOL    HW260283   3.859   9.582  11.461
19482SOL     OW60284  12.007  13.604   4.252
19482SOL    HW160285  12.080  13.559   4.294
19482SOL    HW260286  11.968  13.658   4.321
19483SOL     OW60287   9.147   0.168   3.071
19483SOL    HW160288   9.071   0.123   3.036
19483SOL    HW260289   9.134   0.260   3.047
19484SOL     OW60290  10.664   9.440  12.680
19484SOL    HW160291  10.643   9.433  12.587
19484SOL    HW260292  10.581   9.428  12.725
19485SOL     OW60293  13.693   5.302   6.326
19485SOL    HW160294  13.660   5.272   6.411
19485SOL    HW260295  13.659   5.238   6.263
19486SOL     OW60296   4.100  14.417   3.686
19486SOL    HW160297   4.055  14.431   3.603
19486SOL    HW260298   4.058  14.340   3.724
19487SOL     OW60299   3.708  11.974   6.134
19487SOL    HW160300   3.615  11.996   6.146
19487SOL    HW260301   3.714  11.881   6.154
19488SOL     OW60302  10.707   2.891  13.766
19488SOL    HW160303  10.759   2.830  13.715
19488SOL    HW260304  10.679   2.958  13.703
19489SOL     OW60305   5.060   3.563  10.528
19489SOL    HW160306   4.971   3.577  10.559
19489SOL    HW260307   5.073   3.468  10.537
19490SOL     OW60308  10.164   7.011  10.073
19490SOL    HW160309  10.103   6.989  10.144
19490SOL    HW260310  10.234   7.060  10.117
19491SOL     OW60311   4.680   8.907  14.002
19491SOL    HW160312   4.587   8.912  14.023
19491SOL    HW260313   4.683   8.891  13.908
19492SOL     OW60314   0.383  11.359   6.842
19492SOL    HW160315   0.301  11.387   6.884
19492SOL    HW260316   0.451  11.381   6.906
19493SOL     OW60317  12.739   6.926   4.554
19493SOL    HW160318  12.702   6.996   4.500
19493SOL    HW260319  12.813   6.966   4.598
19494SOL     OW60320  11.498  11.707   9.634
19494SOL    HW160321  11.447  11.763   9.692
19494SOL    HW260322  11.553  11.769   9.585
19495SOL     OW60323   3.062   6.868   7.243
19495SOL    HW160324   3.018   6.949   7.267
19495SOL    HW260325   3.025   6.802   7.302
19496SOL     OW60326   0.349   5.380   5.848
19496SOL    HW160327   0.273   5.389   5.906
19496SOL    HW260328   0.424   5.401   5.904
19497SOL     OW60329  10.653  12.596   5.017
19497SOL    HW160330  10.702  12.562   4.942
19497SOL    HW260331  10.598  12.665   4.980
19498SOL     OW60332   1.872   4.603   1.908
19498SOL    HW160333   1.933   4.615   1.835
19498SOL    HW260334   1.791   4.572   1.867
19499SOL     OW60335  10.630   5.355  13.620
19499SOL    HW160336  10.705   5.413  13.634
19499SOL    HW260337  10.588   5.350  13.706
19500SOL     OW60338   0.340   4.368   0.682
19500SOL    HW160339   0.317   4.419   0.760
19500SOL    HW260340   0.293   4.285   0.694
19501SOL     OW60341   2.290   2.131  14.074
19501SOL    HW160342   2.384   2.134  14.090
19501SOL    HW260343   2.257   2.214  14.109
19502SOL     OW60344   2.731   6.744  14.035
19502SOL    HW160345   2.772   6.686  13.971
19502SOL    HW260346   2.801   6.763  14.098
19503SOL     OW60347   5.054  14.097   1.745
19503SOL    HW160348   5.075  14.150   1.668
19503SOL    HW260349   5.109  14.019   1.737
19504SOL     OW60350   8.334  14.754  11.013
19504SOL    HW160351   8.273  14.772  10.942
19504SOL    HW260352   8.321  14.661  11.033
19505SOL     OW60353   2.623   2.784  10.265
19505SOL    HW160354   2.685   2.755  10.197
19505SOL    HW260355   2.550   2.723  10.257
19506SOL     OW60356  10.131   5.921  11.216
19506SOL    HW160357  10.091   5.997  11.174
19506SOL    HW260358  10.066   5.891  11.279
19507SOL     OW60359   4.046   6.946   3.543
19507SOL    HW160360   4.066   7.022   3.488
19507SOL    HW260361   4.081   6.872   3.493
19508SOL     OW60362  10.358  10.950  11.158
19508SOL    HW160363  10.329  11.024  11.211
19508SOL    HW260364  10.365  10.985  11.069
19509SOL     OW60365   0.202   2.229   8.581
19509SOL    HW160366   0.217   2.294   8.650
19509SOL    HW260367   0.108   2.233   8.565
19510SOL     OW60368  11.099  12.327   4.185
19510SOL    HW160369  11.018  12.292   4.224
19510SOL    HW260370  11.070  12.389   4.119
19511SOL     OW60371   2.097   0.027   8.450
19511SOL    HW160372   2.165  14.872   8.508
19511SOL    HW260373   2.100  14.849   8.374
19512SOL     OW60374  13.412   8.558   5.468
19512SOL    HW160375  13.401   8.479   5.416
19512SOL    HW260376  13.364   8.540   5.549
19513SOL     OW60377  14.158   0.693  14.286
19513SOL    HW160378  14.165   0.618  14.345
19513SOL    HW260379  14.071   0.686  14.248
19514SOL     OW60380  14.238  10.312  10.150
19514SOL    HW160381  14.152  10.272  10.164
19514SOL    HW260382  14.261  10.289  10.060
19515SOL     OW60383   7.883   5.037   9.455
19515SOL    HW160384   7.848   4.951   9.432
19515SOL    HW260385   7.945   5.019   9.526
19516SOL     OW60386  14.347   0.066  12.721
19516SOL    HW160387  14.397  14.866  12.743
19516SOL    HW260388  14.405   0.138  12.744
19517SOL     OW60389   8.516  10.497   4.765
19517SOL    HW160390   8.435  10.475   4.810
19517SOL    HW260391   8.536  10.420   4.712
19518SOL     OW60392   4.643  12.246   2.993
19518SOL    HW160393   4.572  12.275   2.935
19518SOL    HW260394   4.720  12.242   2.936
19519SOL     OW60395  13.781   3.163   0.225
19519SOL    HW160396  13.788   3.072   0.196
19519SOL    HW260397  13.695   3.191   0.194
19520SOL     OW60398   7.695   6.201  12.380
19520SOL    HW160399   7.665   6.138  12.315
19520SOL    HW260400   7.617   6.250  12.404
19521SOL     OW60401  13.616   3.678   9.391
19521SOL    HW160402  13.674   3.754   9.387
19521SOL    HW260403  13.642   3.624   9.316
19522SOL     OW60404  12.360   6.580   7.766
19522SOL    HW160405  12.392   6.491   7.783
19522SOL    HW260406  12.268   6.577   7.791
19523SOL     OW60407   8.551   5.118   3.855
19523SOL    HW160408   8.472   5.070   3.878
19523SOL    HW260409   8.523   5.209   3.849
19524SOL     OW60410   4.519  12.411   8.414
19524SOL    HW160411   4.600  12.361   8.406
19524SOL    HW260412   4.449  12.345   8.407
19525SOL     OW60413  10.574   9.127   0.089
19525SOL    HW160414  10.535   9.131   0.176
19525SOL    HW260415  10.598   9.035   0.077
19526SOL     OW60416   7.802   2.143   2.990
19526SOL    HW160417   7.783   2.210   3.055
19526SOL    HW260418   7.718   2.100   2.975
19527SOL     OW60419   7.120   6.429   2.103
19527SOL    HW160420   7.027   6.416   2.119
19527SOL    HW260421   7.132   6.524   2.107
19528SOL     OW60422   1.249   7.319   7.875
19528SOL    HW160423   1.275   7.245   7.930
19528SOL    HW260424   1.272   7.396   7.927
19529SOL     OW60425   3.906   1.579   7.279
19529SOL    HW160426   3.834   1.600   7.219
19529SOL    HW260427   3.953   1.661   7.290
19530SOL     OW60428   3.159   8.448   4.585
19530SOL    HW160429   3.201   8.467   4.669
19530SOL    HW260430   3.076   8.494   4.588
19531SOL     OW60431  13.876   2.302  13.813
19531SOL    HW160432  13.933   2.258  13.750
19531SOL    HW260433  13.933   2.320  13.889
19532SOL     OW60434   3.803   8.362   5.431
19532SOL    HW160435   3.734   8.415   5.471
19532SOL    HW260436   3.885   8.404   5.458
19533SOL     OW60437   9.993   4.701   7.997
19533SOL    HW160438  10.004   4.632   7.932
19533SOL    HW260439  10.074   4.751   7.993
19534SOL     OW60440  11.119   9.096   3.742
19534SOL    HW160441  11.044   9.036   3.743
19534SOL    HW260442  11.193   9.043   3.769
19535SOL     OW60443   1.161  12.090  12.339
19535SOL    HW160444   1.070  12.119  12.335
19535SOL    HW260445   1.161  12.023  12.408
19536SOL     OW60446  10.608   8.168   4.123
19536SOL    HW160447  10.606   8.133   4.034
19536SOL    HW260448  10.585   8.261   4.113
19537SOL     OW60449   0.184   0.757   4.456
19537SOL    HW160450   0.200   0.734   4.547
19537SOL    HW260451   0.139   0.841   4.459
19538SOL     OW60452   0.422   2.285   2.595
19538SOL    HW160453   0.511   2.299   2.564
19538SOL    HW260454   0.373   2.362   2.565
19539SOL     OW60455   3.926   3.861   3.333
19539SOL    HW160456   3.940   3.925   3.403
19539SOL    HW260457   3.831   3.858   3.323
19540SOL     OW60458   5.434   5.032  11.108
19540SOL    HW160459   5.443   5.025  11.203
19540SOL    HW260460   5.501   5.095  11.082
19541SOL     OW60461   4.348  12.660   8.705
19541SOL    HW160462   4.267  12.702   8.735
19541SOL    HW260463   4.369  12.706   8.623
19542SOL     OW60464   5.600   2.009   1.700
19542SOL    HW160465   5.558   1.935   1.657
19542SOL    HW260466   5.650   1.971   1.772
19543SOL     OW60467   9.849   5.517   9.001
19543SOL    HW160468   9.845   5.584   8.932
19543SOL    HW260469   9.759   5.512   9.034
19544SOL     OW60470   2.121  13.112  14.368
19544SOL    HW160471   2.148  13.155  14.287
19544SOL    HW260472   2.197  13.122  14.427
19545SOL     OW60473   8.055   5.096   5.166
19545SOL    HW160474   7.985   5.041   5.131
19545SOL    HW260475   8.018   5.184   5.168
19546SOL     OW60476  12.564  14.115   8.603
19546SOL    HW160477  12.485  14.096   8.654
19546SOL    HW260478  12.563  14.210   8.592
19547SOL     OW60479  14.736   1.572   6.388
19547SOL    HW160480  14.695   1.636   6.330
19547SOL    HW260481  14.739   1.615   6.474
19548SOL     OW60482   1.285   3.508  14.859
19548SOL    HW160483   1.330   3.561   0.046
19548SOL    HW260484   1.334   3.522  14.779
19549SOL     OW60485   7.783  14.598   6.997
19549SOL    HW160486   7.725  14.523   6.987
19549SOL    HW260487   7.748  14.664   6.938
19550SOL     OW60488   2.950  11.419  10.263
19550SOL    HW160489   2.914  11.374  10.340
19550SOL    HW260490   3.041  11.389  10.260
19551SOL     OW60491  12.774   6.288   1.954
19551SOL    HW160492  12.688   6.326   1.937
19551SOL    HW260493  12.814   6.346   2.018
19552SOL     OW60494  14.680  10.192   9.369
19552SOL    HW160495  14.656  10.107   9.333
19552SOL    HW260496  14.731  10.234   9.300
19553SOL     OW60497   4.017   5.556  11.475
19553SOL    HW160498   4.040   5.467  11.503
19553SOL    HW260499   4.100   5.594  11.446
19554SOL     OW60500  13.635   2.594   6.512
19554SOL    HW160501  13.607   2.512   6.552
19554SOL    HW260502  13.573   2.659   6.543
19555SOL     OW60503   0.838   6.648  11.987
19555SOL    HW160504   0.920   6.600  11.983
19555SOL    HW260505   0.807   6.650  11.897
19556SOL     OW60506   3.425  11.309   8.990
19556SOL    HW160507   3.393  11.374   9.052
19556SOL    HW260508   3.500  11.269   9.034
19557SOL     OW60509  11.927   8.326   6.213
19557SOL    HW160510  11.962   8.343   6.301
19557SOL    HW260511  11.997   8.277   6.169
19558SOL     OW60512  12.749   8.623   9.866
19558SOL    HW160513  12.723   8.693   9.806
19558SOL    HW260514  12.666   8.581   9.891
19559SOL     OW60515  12.338  10.521   4.888
19559SOL    HW160516  12.253  10.563   4.882
19559SOL    HW260517  12.345  10.468   4.808
19560SOL     OW60518   6.071   0.685   3.406
19560SOL    HW160519   6.100   0.693   3.497
19560SOL    HW260520   5.998   0.746   3.398
19561SOL     OW60521  10.423   3.693  13.780
19561SOL    HW160522  10.459   3.654  13.700
19561SOL    HW260523  10.433   3.787  13.766
19562SOL     OW60524  10.503   0.978  14.793
19562SOL    HW160525  10.573   0.986  14.859
19562SOL    HW260526  10.444   1.051  14.813
19563SOL     OW60527   9.774   7.078   7.461
19563SOL    HW160528   9.811   7.114   7.380
19563SOL    HW260529   9.734   6.995   7.434
19564SOL     OW60530   8.371   8.335   0.512
19564SOL    HW160531   8.461   8.329   0.481
19564SOL    HW260532   8.369   8.414   0.566
19565SOL     OW60533   7.019  11.397   9.313
19565SOL    HW160534   6.989  11.458   9.380
19565SOL    HW260535   6.941  11.380   9.260
19566SOL     OW60536  14.867  11.381   9.615
19566SOL    HW160537   0.020  11.345   9.533
19566SOL    HW260538  14.846  11.305   9.669
19567SOL     OW60539  14.235  12.715   9.336
19567SOL    HW160540  14.168  12.683   9.396
19567SOL    HW260541  14.186  12.751   9.262
19568SOL     OW60542   7.543   0.712  10.615
19568SOL    HW160543   7.511   0.773  10.682
19568SOL    HW260544   7.469   0.700  10.556
19569SOL     OW60545   9.306   6.835  13.578
19569SOL    HW160546   9.387   6.841  13.527
19569SOL    HW260547   9.307   6.747  13.615
19570SOL     OW60548  14.625  12.271  10.151
19570SOL    HW160549  14.677  12.332  10.204
19570SOL    HW260550  14.595  12.323  10.076
19571SOL     OW60551   2.886   0.891   4.928
19571SOL    HW160552   2.852   0.803   4.943
19571SOL    HW260553   2.886   0.902   4.833
19572SOL     OW60554  12.839   4.008   1.424
19572SOL    HW160555  12.878   4.060   1.353
19572SOL    HW260556  12.756   3.977   1.388
19573SOL     OW60557   7.165   6.279   6.940
19573SOL    HW160558   7.100   6.280   6.869
19573SOL    HW260559   7.237   6.334   6.907
19574SOL     OW60560   7.954   4.767  12.023
19574SOL    HW160561   8.009   4.720  12.086
19574SOL    HW260562   7.883   4.805  12.076
19575SOL     OW60563   5.601   3.080  12.292
19575SOL    HW160564   5.513   3.063  12.323
19575SOL    HW260565   5.591   3.150  12.228
19576SOL     OW60566   4.080   6.861   1.333
19576SOL    HW160567   4.013   6.811   1.287
19576SOL    HW260568   4.061   6.952   1.313
19577SOL     OW60569   3.118   8.874  11.325
19577SOL    HW160570   3.165   8.792  11.337
19577SOL    HW260571   3.026   8.849  11.321
19578SOL     OW60572  10.711  12.296   8.452
19578SOL    HW160573  10.661  12.352   8.393
19578SOL    HW260574  10.797  12.338   8.457
19579SOL     OW60575   9.266  13.868  10.020
19579SOL    HW160576   9.287  13.806  10.089
19579SOL    HW260577   9.268  13.954  10.063
19580SOL     OW60578   8.175   1.067   7.491
19580SOL    HW160579   8.256   1.025   7.462
19580SOL    HW260580   8.109   1.036   7.430
19581SOL     OW60581  10.234   6.705   8.497
19581SOL    HW160582  10.194   6.618   8.499
19581SOL    HW260583  10.182   6.754   8.434
19582SOL     OW60584  13.124   2.299  10.462
19582SOL    HW160585  13.117   2.340  10.375
19582SOL    HW260586  13.044   2.248  10.470
19583SOL     OW60587   3.883   3.210   1.514
19583SOL    HW160588   3.896   3.152   1.438
19583SOL    HW260589   3.821   3.276   1.483
19584SOL     OW60590   1.956   1.317   5.626
19584SOL    HW160591   1.965   1.260   5.550
19584SOL    HW260592   2.021   1.286   5.689
19585SOL     OW60593   7.660  10.664   6.980
19585SOL    HW160594   7.671  10.738   6.921
19585SOL    HW260595   7.686  10.588   6.928
19586SOL     OW60596  13.245  12.567   3.355
19586SOL    HW160597  13.218  12.494   3.299
19586SOL    HW260598  13.341  12.563   3.355
19587SOL     OW60599  10.908  11.604  13.982
19587SOL    HW160600  10.887  11.692  13.951
19587SOL    HW260601  10.890  11.547  13.908
19588SOL     OW60602   1.411   5.175   5.099
19588SOL    HW160603   1.375   5.126   5.025
19588SOL    HW260604   1.388   5.122   5.176
19589SOL     OW60605  14.476  10.987  11.471
19589SOL    HW160606  14.525  11.031  11.401
19589SOL    HW260607  14.503  10.895  11.465
19590SOL     OW60608  10.012   4.967   8.275
19590SOL    HW160609   9.938   4.941   8.220
19590SOL    HW260610  10.060   4.886   8.290
19591SOL     OW60611   3.905  13.963  10.508
19591SOL    HW160612   3.864  13.879  10.525
19591SOL    HW260613   3.956  13.982  10.587
19592SOL     OW60614   3.971   5.416   7.875
19592SOL    HW160615   4.052   5.366   7.878
19592SOL    HW260616   3.939   5.415   7.965
19593SOL     OW60617   0.870   8.350   3.480
19593SOL    HW160618   0.892   8.333   3.388
19593SOL    HW260619   0.871   8.264   3.521
19594SOL     OW60620   2.697  11.363   3.236
19594SOL    HW160621   2.764  11.421   3.273
19594SOL    HW260622   2.744  11.312   3.170
19595SOL     OW60623   9.603   9.188   2.108
19595SOL    HW160624   9.606   9.270   2.157
19595SOL    HW260625   9.520   9.148   2.132
19596SOL     OW60626   4.977  14.204  10.573
19596SOL    HW160627   4.915  14.276  10.557
19596SOL    HW260628   4.954  14.138  10.507
19597SOL     OW60629   7.510  11.688   5.515
19597SOL    HW160630   7.605  11.677   5.504
19597SOL    HW260631   7.502  11.753   5.585
19598SOL     OW60632   3.615   2.744   7.230
19598SOL    HW160633   3.571   2.766   7.312
19598SOL    HW260634   3.703   2.715   7.258
19599SOL     OW60635   8.309  13.721   8.187
19599SOL    HW160636   8.360  13.702   8.109
19599SOL    HW260637   8.221  13.741   8.154
19600SOL     OW60638  10.675   2.827  12.355
19600SOL    HW160639  10.640   2.742  12.379
19600SOL    HW260640  10.761   2.830  12.396
19601SOL     OW60641   8.989   6.301   8.390
19601SOL    HW160642   9.082   6.304   8.413
19601SOL    HW260643   8.983   6.347   8.307
19602SOL     OW60644   9.507   9.804  10.619
19602SOL    HW160645   9.596   9.771  10.633
19602SOL    HW260646   9.493   9.796  10.525
19603SOL     OW60647  14.642  12.556  14.600
19603SOL    HW160648  14.553  12.525  14.583
19603SOL    HW260649  14.677  12.576  14.513
19604SOL     OW60650  14.582  12.888   2.088
19604SOL    HW160651  14.543  12.861   2.005
19604SOL    HW260652  14.511  12.933   2.134
19605SOL     OW60653   3.345   8.141  13.315
19605SOL    HW160654   3.350   8.102  13.227
19605SOL    HW260655   3.395   8.081  13.370
19606SOL     OW60656   3.434   0.167   1.986
19606SOL    HW160657   3.428   0.134   2.076
19606SOL    HW260658   3.351   0.213   1.971
19607SOL     OW60659   3.110   9.482  14.455
19607SOL    HW160660   3.102   9.553  14.519
19607SOL    HW260661   3.203   9.457  14.459
19608SOL     OW60662   2.371  14.517  11.617
19608SOL    HW160663   2.375  14.526  11.712
19608SOL    HW260664   2.451  14.469  11.594
19609SOL     OW60665   4.071   4.921   4.668
19609SOL    HW160666   4.043   5.007   4.637
19609SOL    HW260667   4.161   4.935   4.699
19610SOL     OW60668   7.936   2.942   8.218
19610SOL    HW160669   7.845   2.939   8.190
19610SOL    HW260670   7.962   2.851   8.228
19611SOL     OW60671   3.966   7.907   0.716
19611SOL    HW160672   4.054   7.938   0.734
19611SOL    HW260673   3.936   7.868   0.798
19612SOL     OW60674  14.664  11.475   4.177
19612SOL    HW160675  14.749  11.521   4.179
19612SOL    HW260676  14.619  11.512   4.101
19613SOL     OW60677   6.441   2.721   2.576
19613SOL    HW160678   6.363   2.773   2.552
19613SOL    HW260679   6.410   2.664   2.647
19614SOL     OW60680  14.818   3.353  12.031
19614SOL    HW160681  14.781   3.430  12.073
19614SOL    HW260682  14.769   3.344  11.949
19615SOL     OW60683   3.699  11.338   2.382
19615SOL    HW160684   3.781  11.294   2.361
19615SOL    HW260685   3.664  11.365   2.297
19616SOL     OW60686   2.208   4.711   0.696
19616SOL    HW160687   2.179   4.642   0.636
19616SOL    HW260688   2.150   4.785   0.678
19617SOL     OW60689   1.973  13.124   0.028
19617SOL    HW160690   1.916  13.067  14.856
19617SOL    HW260691   1.976  13.206  14.858
19618SOL     OW60692  14.531   8.361  13.941
19618SOL    HW160693  14.594   8.390  14.007
19618SOL    HW260694  14.481   8.291  13.984
19619SOL     OW60695   6.741   1.533   3.332
19619SOL    HW160696   6.683   1.608   3.326
19619SOL    HW260697   6.812   1.552   3.271
19620SOL     OW60698  12.493   6.440  11.608
19620SOL    HW160699  12.472   6.381  11.679
19620SOL    HW260700  12.588   6.450  11.612
19621SOL     OW60701   3.624  13.046   7.182
19621SOL    HW160702   3.561  13.022   7.114
19621SOL    HW260703   3.635  13.141   7.173
19622SOL     OW60704   9.724   4.142   6.087
19622SOL    HW160705   9.803   4.164   6.137
19622SOL    HW260706   9.661   4.115   6.153
19623SOL     OW60707   4.734   8.793   9.237
19623SOL    HW160708   4.815   8.797   9.289
19623SOL    HW260709   4.672   8.846   9.287
19624SOL     OW60710   8.504  12.889  14.527
19624SOL    HW160711   8.472  12.845  14.606
19624SOL    HW260712   8.485  12.828  14.456
19625SOL     OW60713  12.534   9.138   2.651
19625SOL    HW160714  12.601   9.197   2.687
19625SOL    HW260715  12.516   9.173   2.564
19626SOL     OW60716  10.306   5.550   5.104
19626SOL    HW160717  10.369   5.574   5.036
19626SOL    HW260718  10.281   5.461   5.083
19627SOL     OW60719   3.555   8.715   1.512
19627SOL    HW160720   3.506   8.636   1.535
19627SOL    HW260721   3.541   8.726   1.418
19628SOL     OW60722   4.502   9.757  13.729
19628SOL    HW160723   4.531   9.670  13.701
19628SOL    HW260724   4.464   9.796  13.650
19629SOL     OW60725   5.756   4.665  14.134
19629SOL    HW160726   5.838   4.643  14.179
19629SOL    HW260727   5.687   4.636  14.193
19630SOL     OW60728  11.763   5.757  10.943
19630SOL    HW160729  11.760   5.819  11.015
19630SOL    HW260730  11.856   5.736  10.934
19631SOL     OW60731   3.798   4.648   1.151
19631SOL    HW160732   3.798   4.572   1.093
19631SOL    HW260733   3.767   4.720   1.096
19632SOL     OW60734   1.116   1.222  14.231
19632SOL    HW160735   1.088   1.291  14.171
19632SOL    HW260736   1.151   1.268  14.307
19633SOL     OW60737   9.674  11.923  11.681
19633SOL    HW160738   9.647  11.960  11.597
19633SOL    HW260739   9.755  11.876  11.661
19634SOL     OW60740   4.676  14.283  13.605
19634SOL    HW160741   4.669  14.377  13.589
19634SOL    HW260742   4.767  14.262  13.585
19635SOL     OW60743  12.982   6.319  14.151
19635SOL    HW160744  12.993   6.319  14.246
19635SOL    HW260745  12.925   6.394  14.134
19636SOL     OW60746  13.267  13.730   0.397
19636SOL    HW160747  13.301  13.691   0.478
19636SOL    HW260748  13.255  13.655   0.339
19637SOL     OW60749   8.291  11.494   1.361
19637SOL    HW160750   8.329  11.579   1.338
19637SOL    HW260751   8.268  11.504   1.454
19638SOL     OW60752   4.372   7.207   5.900
19638SOL    HW160753   4.388   7.268   5.828
19638SOL    HW260754   4.401   7.122   5.866
19639SOL     OW60755  10.586   1.440  13.717
19639SOL    HW160756  10.603   1.515  13.661
19639SOL    HW260757  10.670   1.420  13.758
19640SOL     OW60758   2.770   6.755   1.056
19640SOL    HW160759   2.771   6.811   0.979
19640SOL    HW260760   2.860   6.756   1.088
19641SOL     OW60761   4.061   8.410  10.259
19641SOL    HW160762   4.049   8.371  10.345
19641SOL    HW260763   4.122   8.483  10.274
19642SOL     OW60764   1.415   1.455   3.789
19642SOL    HW160765   1.341   1.452   3.850
19642SOL    HW260766   1.482   1.400   3.830
19643SOL     OW60767   6.242   0.607  12.556
19643SOL    HW160768   6.197   0.538  12.606
19643SOL    HW260769   6.172   0.653  12.511
19644SOL     OW60770  10.201  11.054   6.822
19644SOL    HW160771  10.131  10.990   6.810
19644SOL    HW260772  10.158  11.139   6.810
19645SOL     OW60773   8.760   9.072  10.604
19645SOL    HW160774   8.836   9.060  10.661
19645SOL    HW260775   8.771   9.006  10.535
19646SOL     OW60776   0.551  14.722   4.468
19646SOL    HW160777   0.643  14.701   4.449
19646SOL    HW260778   0.502  14.674   4.401
19647SOL     OW60779   6.549   8.614  11.515
19647SOL    HW160780   6.467   8.570  11.494
19647SOL    HW260781   6.566   8.591  11.606
19648SOL     OW60782   5.578  13.140  13.933
19648SOL    HW160783   5.661  13.186  13.945
19648SOL    HW260784   5.590  13.089  13.853
19649SOL     OW60785   6.672   0.194   0.431
19649SOL    HW160786   6.690   0.240   0.349
19649SOL    HW260787   6.730   0.118   0.429
19650SOL     OW60788   2.234   7.220   3.759
19650SOL    HW160789   2.328   7.222   3.778
19650SOL    HW260790   2.194   7.269   3.831
19651SOL     OW60791  11.020   7.368  12.249
19651SOL    HW160792  11.096   7.371  12.307
19651SOL    HW260793  10.961   7.304  12.290
19652SOL     OW60794  10.949  14.658  11.856
19652SOL    HW160795  10.885  14.640  11.925
19652SOL    HW260796  10.926  14.746  11.825
19653SOL     OW60797   3.693  13.860  12.567
19653SOL    HW160798   3.702  13.854  12.662
19653SOL    HW260799   3.745  13.937  12.543
19654SOL     OW60800  10.855   0.480   7.337
19654SOL    HW160801  10.809   0.397   7.322
19654SOL    HW260802  10.948   0.458   7.331
19655SOL     OW60803   0.617   9.353   4.165
19655SOL    HW160804   0.530   9.356   4.205
19655SOL    HW260805   0.659   9.277   4.205
19656SOL     OW60806   2.016   4.548   4.304
19656SOL    HW160807   1.977   4.593   4.228
19656SOL    HW260808   2.062   4.618   4.352
19657SOL     OW60809   7.473  14.788  11.783
19657SOL    HW160810   7.504  14.878  11.799
19657SOL    HW260811   7.415  14.770  11.857
19658SOL     OW60812  12.164  13.027   6.970
19658SOL    HW160813  12.106  12.988   7.035
19658SOL    HW260814  12.106  13.071   6.909
19659SOL     OW60815   1.988   7.693   3.609
19659SOL    HW160816   2.012   7.756   3.676
19659SOL    HW260817   1.917   7.736   3.561
19660SOL     OW60818   6.165   0.364   3.845
19660SOL    HW160819   6.187   0.443   3.893
19660SOL    HW260820   6.110   0.393   3.773
19661SOL     OW60821   9.554  12.062   0.893
19661SOL    HW160822   9.512  12.001   0.954
19661SOL    HW260823   9.487  12.128   0.875
19662SOL     OW60824  10.958  14.740  13.192
19662SOL    HW160825  10.943  14.751  13.098
19662SOL    HW260826  10.892  14.675  13.218
19663SOL     OW60827  10.573  12.187  14.856
19663SOL    HW160828  10.495  12.185   0.032
19663SOL    HW260829  10.645  12.197   0.040
19664SOL     OW60830   0.980   9.386   8.049
19664SOL    HW160831   0.975   9.298   8.086
19664SOL    HW260832   1.021   9.438   8.118
19665SOL     OW60833   0.902   2.453   3.805
19665SOL    HW160834   0.997   2.463   3.794
19665SOL    HW260835   0.865   2.483   3.723
19666SOL     OW60836   1.636  14.478   6.473
19666SOL    HW160837   1.555  14.482   6.524
19666SOL    HW260838   1.672  14.567   6.479
19667SOL     OW60839   5.682   9.953  13.894
19667SOL    HW160840   5.674  10.047  13.909
19667SOL    HW260841   5.776   9.938  13.884
19668SOL     OW60842   1.183   5.765   1.417
19668SOL    HW160843   1.261   5.791   1.465
19668SOL    HW260844   1.173   5.671   1.434
19669SOL     OW60845  11.014  11.023  14.760
19669SOL    HW160846  11.082  11.064  14.813
19669SOL    HW260847  11.023  11.063  14.673
19670SOL     OW60848   3.041  10.352   1.529
19670SOL    HW160849   3.090  10.294   1.470
19670SOL    HW260850   3.013  10.295   1.600
19671SOL     OW60851   6.900   1.266   1.699
19671SOL    HW160852   6.994   1.260   1.681
19671SOL    HW260853   6.890   1.351   1.742
19672SOL     OW60854   9.638   6.802   1.600
19672SOL    HW160855   9.618   6.791   1.507
19672SOL    HW260856   9.730   6.779   1.608
19673SOL     OW60857   5.045  14.638   6.250
19673SOL    HW160858   5.110  14.705   6.270
19673SOL    HW260859   4.961  14.683   6.258
19674SOL     OW60860   2.249   8.984   1.487
19674SOL    HW160861   2.216   8.951   1.570
19674SOL    HW260862   2.256   9.079   1.499
19675SOL     OW60863  12.120  10.011   7.795
19675SOL    HW160864  12.184  10.079   7.776
19675SOL    HW260865  12.168   9.929   7.783
19676SOL     OW60866   9.777  13.685   4.419
19676SOL    HW160867   9.694  13.714   4.383
19676SOL    HW260868   9.785  13.594   4.390
19677SOL     OW60869   3.786   6.467   2.527
19677SOL    HW160870   3.804   6.390   2.473
19677SOL    HW260871   3.721   6.516   2.477
19678SOL     OW60872   8.415   0.429   0.778
19678SOL    HW160873   8.494   0.439   0.831
19678SOL    HW260874   8.343   0.435   0.841
19679SOL     OW60875   7.297  10.656  14.099
19679SOL    HW160876   7.379  10.695  14.070
19679SOL    HW260877   7.236  10.730  14.105
19680SOL     OW60878   5.660  10.971   3.414
19680SOL    HW160879   5.704  11.048   3.451
19680SOL    HW260880   5.725  10.931   3.357
19681SOL     OW60881   9.805   6.491  12.527
19681SOL    HW160882   9.723   6.500  12.478
19681SOL    HW260883   9.780   6.442  12.605
19682SOL     OW60884   3.247   4.397   5.556
19682SOL    HW160885   3.216   4.404   5.465
19682SOL    HW260886   3.234   4.484   5.593
19683SOL     OW60887  12.633  10.193   2.134
19683SOL    HW160888  12.593  10.153   2.212
19683SOL    HW260889  12.601  10.283   2.135
19684SOL     OW60890  13.410   5.974   9.027
19684SOL    HW160891  13.440   6.036   8.960
19684SOL    HW260892  13.403   6.027   9.107
19685SOL     OW60893   6.689   2.746   7.208
19685SOL    HW160894   6.766   2.794   7.177
19685SOL    HW260895   6.711   2.720   7.298
19686SOL     OW60896   3.876  11.770   9.439
19686SOL    HW160897   3.900  11.746   9.528
19686SOL    HW260898   3.855  11.687   9.396
19687SOL     OW60899   4.003  12.646   8.557
19687SOL    HW160900   3.956  12.685   8.482
19687SOL    HW260901   4.069  12.589   8.517
19688SOL     OW60902   9.670   4.185   5.289
19688SOL    HW160903   9.706   4.102   5.258
19688SOL    HW260904   9.722   4.205   5.367
19689SOL     OW60905   0.616  12.490   7.476
19689SOL    HW160906   0.685  12.439   7.433
19689SOL    HW260907   0.535  12.445   7.454
19690SOL     OW60908   1.885  12.226   9.789
19690SOL    HW160909   1.886  12.296   9.854
19690SOL    HW260910   1.792  12.204   9.779
19691SOL     OW60911  12.884  14.877   1.722
19691SOL    HW160912  12.936   0.079   1.723
19691SOL    HW260913  12.949  14.807   1.724
19692SOL     OW60914  13.412   6.108  13.946
19692SOL    HW160915  13.381   6.195  13.970
19692SOL    HW260916  13.360   6.048  13.999
19693SOL     OW60917  14.697   7.248  10.871
19693SOL    HW160918  14.672   7.220  10.959
19693SOL    HW260919  14.792   7.248  10.872
19694SOL     OW60920   1.197   2.610   8.229
19694SOL    HW160921   1.219   2.542   8.292
19694SOL    HW260922   1.143   2.672   8.278
19695SOL     OW60923  11.525   7.675   1.551
19695SOL    HW160924  11.619   7.686   1.562
19695SOL    HW260925  11.516   7.606   1.486
19696SOL     OW60926   3.891   7.746   3.572
19696SOL    HW160927   3.942   7.691   3.514
19696SOL    HW260928   3.868   7.822   3.518
19697SOL     OW60929  12.107   9.856   1.581
19697SOL    HW160930  12.132   9.913   1.654
19697SOL    HW260931  12.032   9.900   1.541
19698SOL     OW60932   6.782   2.335   7.919
19698SOL    HW160933   6.795   2.412   7.974
19698SOL    HW260934   6.783   2.262   7.981
19699SOL     OW60935   4.123  11.311   0.372
19699SOL    HW160936   4.040  11.293   0.416
19699SOL    HW260937   4.134  11.406   0.379
19700SOL     OW60938   7.376   7.270   1.118
19700SOL    HW160939   7.311   7.249   1.051
19700SOL    HW260940   7.419   7.350   1.087
19701SOL     OW60941   8.602   6.183  12.403
19701SOL    HW160942   8.595   6.115  12.335
19701SOL    HW260943   8.634   6.136  12.480
19702SOL     OW60944   3.497   1.405  14.728
19702SOL    HW160945   3.433   1.371  14.790
19702SOL    HW260946   3.450   1.410  14.645
19703SOL     OW60947   0.145   4.985  12.264
19703SOL    HW160948   0.110   5.070  12.237
19703SOL    HW260949   0.126   4.981  12.358
19704SOL     OW60950   3.558  13.262  13.430
19704SOL    HW160951   3.529  13.347  13.462
19704SOL    HW260952   3.503  13.244  13.354
19705SOL     OW60953   9.644   5.601   2.066
19705SOL    HW160954   9.601   5.561   2.141
19705SOL    HW260955   9.593   5.681   2.049
19706SOL     OW60956  11.651   3.805   7.496
19706SOL    HW160957  11.633   3.834   7.407
19706SOL    HW260958  11.697   3.878   7.536
19707SOL     OW60959  14.562  13.910  12.169
19707SOL    HW160960  14.518  13.994  12.159
19707SOL    HW260961  14.591  13.887  12.081
19708SOL     OW60962  14.266  14.318   0.215
19708SOL    HW160963  14.201  14.285   0.153
19708SOL    HW260964  14.262  14.413   0.206
19709SOL     OW60965   0.401   2.539   1.763
19709SOL    HW160966   0.444   2.459   1.732
19709SOL    HW260967   0.448   2.609   1.718
19710SOL     OW60968   4.671   6.357   1.042
19710SOL    HW160969   4.679   6.348   1.137
19710SOL    HW260970   4.758   6.381   1.012
19711SOL     OW60971   1.824   7.572   2.131
19711SOL    HW160972   1.801   7.481   2.152
19711SOL    HW260973   1.826   7.616   2.216
19712SOL     OW60974   0.018  14.019   3.653
19712SOL    HW160975  14.848  14.101   3.659
19712SOL    HW260976   0.099  14.036   3.700
19713SOL     OW60977   5.464  11.355  14.311
19713SOL    HW160978   5.401  11.313  14.370
19713SOL    HW260979   5.414  11.370  14.231
19714SOL     OW60980   9.390  14.025  11.969
19714SOL    HW160981   9.366  14.050  11.879
19714SOL    HW260982   9.455  14.090  11.996
19715SOL     OW60983  13.500  14.034  14.078
19715SOL    HW160984  13.570  13.996  14.024
19715SOL    HW260985  13.510  13.991  14.163
19716SOL     OW60986   7.044  13.218  12.307
19716SOL    HW160987   6.972  13.155  12.304
19716SOL    HW260988   7.037  13.268  12.226
19717SOL     OW60989  12.883   4.406  13.031
19717SOL    HW160990  12.841   4.407  13.118
19717SOL    HW260991  12.820   4.449  12.974
19718SOL     OW60992   2.301  14.832   2.267
19718SOL    HW160993   2.265  14.819   2.180
19718SOL    HW260994   2.308  14.744   2.304
19719SOL     OW60995   8.229   1.299   5.264
19719SOL    HW160996   8.146   1.340   5.238
19719SOL    HW260997   8.239   1.225   5.204
19720SOL     OW60998   4.227   9.734   2.014
19720SOL    HW160999   4.290   9.788   2.062
19720SOL    HW261000   4.238   9.646   2.051
19721SOL     OW61001   5.279   1.673  12.199
19721SOL    HW161002   5.190   1.678  12.164
19721SOL    HW261003   5.322   1.752  12.167
19722SOL     OW61004   2.947   2.642   7.670
19722SOL    HW161005   3.006   2.583   7.624
19722SOL    HW261006   2.996   2.725   7.676
19723SOL     OW61007   1.027  14.027   1.913
19723SOL    HW161008   1.109  13.978   1.923
19723SOL    HW261009   0.969  13.992   1.981
19724SOL     OW61010   4.073  10.503   3.355
19724SOL    HW161011   4.152  10.456   3.383
19724SOL    HW261012   4.080  10.589   3.398
19725SOL     OW61013   1.057   5.217   2.511
19725SOL    HW161014   0.972   5.243   2.476
19725SOL    HW261015   1.095   5.297   2.546
19726SOL     OW61016   6.261   7.826  12.494
19726SOL    HW161017   6.207   7.816  12.416
19726SOL    HW261018   6.343   7.782  12.473
19727SOL     OW61019   5.616   4.297   0.794
19727SOL    HW161020   5.600   4.233   0.863
19727SOL    HW261021   5.531   4.340   0.781
19728SOL     OW61022   0.853  10.548   8.603
19728SOL    HW161023   0.805  10.597   8.536
19728SOL    HW261024   0.936  10.596   8.612
19729SOL     OW61025   2.354   5.531   0.894
19729SOL    HW161026   2.442   5.558   0.871
19729SOL    HW261027   2.366   5.452   0.947
19730SOL     OW61028   2.868  14.864  12.865
19730SOL    HW161029   2.773  14.866  12.853
19730SOL    HW261030   2.882   0.018  12.954
19731SOL     OW61031   8.843   5.173   5.562
19731SOL    HW161032   8.908   5.199   5.627
19731SOL    HW261033   8.844   5.077   5.564
19732SOL     OW61034   3.667   9.624   7.105
19732SOL    HW161035   3.636   9.659   7.188
19732SOL    HW261036   3.761   9.612   7.117
19733SOL     OW61037  14.175  11.709  12.669
19733SOL    HW161038  14.258  11.679  12.633
19733SOL    HW261039  14.186  11.702  12.764
19734SOL     OW61040   1.301  12.808   7.830
19734SOL    HW161041   1.215  12.796   7.789
19734SOL    HW261042   1.281  12.828   7.922
19735SOL     OW61043   2.115  13.154   1.636
19735SOL    HW161044   2.125  13.069   1.679
19735SOL    HW261045   2.021  13.171   1.640
19736SOL     OW61046   4.842   0.912   8.087
19736SOL    HW161047   4.747   0.922   8.097
19736SOL    HW261048   4.858   0.819   8.104
19737SOL     OW61049   9.649   9.022  11.709
19737SOL    HW161050   9.732   9.050  11.747
19737SOL    HW261051   9.606   9.104  11.683
19738SOL     OW61052  14.298   6.958   9.383
19738SOL    HW161053  14.291   6.864   9.370
19738SOL    HW261054  14.209   6.991   9.377
19739SOL     OW61055   5.319   4.760  11.613
19739SOL    HW161056   5.385   4.720  11.669
19739SOL    HW261057   5.240   4.709  11.628
19740SOL     OW61058  11.710   5.406  14.789
19740SOL    HW161059  11.674   5.397  14.877
19740SOL    HW261060  11.689   5.495  14.763
19741SOL     OW61061   8.861  10.867   6.484
19741SOL    HW161062   8.944  10.888   6.442
19741SOL    HW261063   8.797  10.871   6.412
19742SOL     OW61064   1.548   6.956  13.004
19742SOL    HW161065   1.508   6.951  12.916
19742SOL    HW261066   1.549   6.866  13.035
19743SOL     OW61067   1.113  13.366   4.344
19743SOL    HW161068   1.175  13.413   4.288
19743SOL    HW261069   1.165  13.300   4.388
19744SOL     OW61070   3.022   7.689  14.448
19744SOL    HW161071   3.049   7.646  14.530
19744SOL    HW261072   2.950   7.746  14.474
19745SOL     OW61073   7.575   3.037   2.834
19745SOL    HW161074   7.622   3.080   2.762
19745SOL    HW261075   7.598   2.945   2.826
19746SOL     OW61076  13.457  13.103   8.817
19746SOL    HW161077  13.543  13.062   8.821
19746SOL    HW261078  13.397  13.031   8.799
19747SOL     OW61079   7.280  13.722   6.723
19747SOL    HW161080   7.274  13.772   6.641
19747SOL    HW261081   7.197  13.741   6.768
19748SOL     OW61082   0.559   2.362   0.538
19748SOL    HW161083   0.575   2.269   0.524
19748SOL    HW261084   0.646   2.399   0.554
19749SOL     OW61085   3.228   0.548   4.136
19749SOL    HW161086   3.139   0.572   4.111
19749SOL    HW261087   3.262   0.500   4.060
19750SOL     OW61088   5.418  12.173  10.590
19750SOL    HW161089   5.436  12.247  10.648
19750SOL    HW261090   5.504  12.146  10.558
19751SOL     OW61091  14.350   3.133   0.409
19751SOL    HW161092  14.384   3.127   0.498
19751SOL    HW261093  14.284   3.202   0.414
19752SOL     OW61094  12.376   1.178   9.547
19752SOL    HW161095  12.422   1.259   9.526
19752SOL    HW261096  12.294   1.206   9.586
19753SOL     OW61097   1.331   9.221  13.331
19753SOL    HW161098   1.328   9.247  13.423
19753SOL    HW261099   1.388   9.144  13.329
19754SOL     OW61100   7.585   3.744   8.015
19754SOL    HW161101   7.507   3.759   7.963
19754SOL    HW261102   7.559   3.678   8.080
19755SOL     OW61103   3.436  14.064  12.515
19755SOL    HW161104   3.431  14.146  12.465
19755SOL    HW261105   3.514  14.020  12.480
19756SOL     OW61106  13.976  10.815   6.559
19756SOL    HW161107  13.897  10.783   6.517
19756SOL    HW261108  13.946  10.873   6.629
19757SOL     OW61109   4.382   4.385  14.559
19757SOL    HW161110   4.379   4.425  14.472
19757SOL    HW261111   4.419   4.298  14.544
19758SOL     OW61112   0.193   0.086   2.586
19758SOL    HW161113   0.276   0.045   2.612
19758SOL    HW261114   0.219   0.174   2.558
19759SOL     OW61115   9.552   5.409  14.131
19759SOL    HW161116   9.615   5.407  14.059
19759SOL    HW261117   9.606   5.410  14.210
19760SOL     OW61118   8.878   2.406   8.388
19760SOL    HW161119   8.913   2.443   8.469
19760SOL    HW261120   8.942   2.432   8.321
19761SOL     OW61121   4.949   2.252   5.992
19761SOL    HW161122   5.011   2.294   6.052
19761SOL    HW261123   4.869   2.242   6.043
19762SOL     OW61124   2.674  11.947  11.999
19762SOL    HW161125   2.642  12.006  12.068
19762SOL    HW261126   2.735  11.889  12.044
19763SOL     OW61127   0.473  11.464   3.805
19763SOL    HW161128   0.536  11.527   3.839
19763SOL    HW261129   0.512  11.378   3.823
19764SOL     OW61130   6.359   6.548  10.590
19764SOL    HW161131   6.299   6.475  10.609
19764SOL    HW261132   6.304   6.614  10.548
19765SOL     OW61133  11.655   4.253   4.790
19765SOL    HW161134  11.562   4.231   4.787
19765SOL    HW261135  11.659   4.345   4.764
19766SOL     OW61136  11.006   0.892  14.460
19766SOL    HW161137  10.980   0.959  14.397
19766SOL    HW261138  11.085   0.927  14.501
19767SOL     OW61139  10.832   9.994  12.324
19767SOL    HW161140  10.785  10.077  12.329
19767SOL    HW261141  10.816   9.953  12.409
19768SOL     OW61142   1.253   8.863   2.213
19768SOL    HW161143   1.334   8.815   2.229
19768SOL    HW261144   1.194   8.798   2.175
19769SOL     OW61145   0.638  14.857   6.462
19769SOL    HW161146   0.608   0.042   6.398
19769SOL    HW261147   0.734  14.867   6.461
19770SOL     OW61148   3.514   4.007   3.897
19770SOL    HW161149   3.582   4.075   3.890
19770SOL    HW261150   3.491   4.005   3.990
19771SOL     OW61151   6.882   4.323   1.080
19771SOL    HW161152   6.798   4.355   1.112
19771SOL    HW261153   6.862   4.241   1.036
19772SOL     OW61154   3.024   8.408   9.418
19772SOL    HW161155   3.033   8.368   9.332
19772SOL    HW261156   2.995   8.497   9.401
19773SOL     OW61157  13.220  13.892  12.432
19773SOL    HW161158  13.241  13.972  12.384
19773SOL    HW261159  13.141  13.914  12.482
19774SOL     OW61160   3.337   8.146   1.567
19774SOL    HW161161   3.385   8.201   1.628
19774SOL    HW261162   3.246   8.151   1.595
19775SOL     OW61163  14.675   4.144   7.446
19775SOL    HW161164  14.743   4.138   7.378
19775SOL    HW261165  14.660   4.053   7.472
19776SOL     OW61166  13.485   3.438   9.819
19776SOL    HW161167  13.435   3.357   9.816
19776SOL    HW261168  13.464   3.482   9.736
19777SOL     OW61169  14.835   3.898   2.413
19777SOL    HW161170   0.038   3.947   2.412
19777SOL    HW261171  14.796   3.914   2.327
19778SOL     OW61172   8.916  14.570   2.446
19778SOL    HW161173   8.984  14.532   2.390
19778SOL    HW261174   8.923  14.664   2.433
19779SOL     OW61175   4.427   2.801  10.983
19779SOL    HW161176   4.416   2.890  10.952
19779SOL    HW261177   4.424   2.808  11.078
19780SOL     OW61178   5.892   4.338  11.426
19780SOL    HW161179   5.954   4.354  11.497
19780SOL    HW261180   5.864   4.247  11.440
19781SOL     OW61181   9.734  12.759  14.029
19781SOL    HW161182   9.752  12.852  14.018
19781SOL    HW261183   9.796  12.730  14.095
19782SOL     OW61184   6.257   7.818  14.428
19782SOL    HW161185   6.258   7.912  14.446
19782SOL    HW261186   6.346   7.789  14.447
19783SOL     OW61187   0.364   9.106  12.148
19783SOL    HW161188   0.375   9.021  12.190
19783SOL    HW261189   0.444   9.119  12.098
19784SOL     OW61190   1.387  14.438   3.380
19784SOL    HW161191   1.453  14.470   3.440
19784SOL    HW261192   1.426  14.360   3.340
19785SOL     OW61193   3.877   3.312   9.695
19785SOL    HW161194   3.862   3.331   9.788
19785SOL    HW261195   3.881   3.216   9.691
19786SOL     OW61196   0.229   1.983  14.873
19786SOL    HW161197   0.291   2.027   0.052
19786SOL    HW261198   0.169   2.053  14.846
19787SOL     OW61199  11.762  13.020   9.598
19787SOL    HW161200  11.702  12.946   9.604
19787SOL    HW261201  11.813  13.003   9.519
19788SOL     OW61202   0.649   8.778   0.566
19788SOL    HW161203   0.612   8.836   0.632
19788SOL    HW261204   0.650   8.830   0.486
19789SOL     OW61205   9.624   0.497  10.720
19789SOL    HW161206   9.630   0.489  10.625
19789SOL    HW261207   9.531   0.486  10.739
19790SOL     OW61208  13.431   9.139   7.403
19790SOL    HW161209  13.397   9.209   7.459
19790SOL    HW261210  13.447   9.066   7.463
19791SOL     OW61211   5.658   2.370   5.043
19791SOL    HW161212   5.711   2.331   4.974
19791SOL    HW261213   5.705   2.349   5.124
19792SOL     OW61214   4.727   1.857   2.174
19792SOL    HW161215   4.743   1.769   2.207
19792SOL    HW261216   4.704   1.909   2.251
19793SOL     OW61217   4.009  14.410  13.582
19793SOL    HW161218   3.993  14.499  13.551
19793SOL    HW261219   3.937  14.359  13.544
19794SOL     OW61220   0.399   3.724   7.264
19794SOL    HW161221   0.332   3.786   7.291
19794SOL    HW261222   0.472   3.778   7.233
19795SOL     OW61223  13.909   1.178   3.134
19795SOL    HW161224  13.990   1.225   3.115
19795SOL    HW261225  13.862   1.234   3.196
19796SOL     OW61226   4.255  13.534   1.232
19796SOL    HW161227   4.331  13.495   1.275
19796SOL    HW261228   4.222  13.464   1.175
19797SOL     OW61229  13.974   2.757   7.586
19797SOL    HW161230  14.040   2.769   7.518
19797SOL    HW261231  13.945   2.666   7.576
19798SOL     OW61232   5.176   1.825  14.022
19798SOL    HW161233   5.122   1.747  14.034
19798SOL    HW261234   5.192   1.829  13.928
19799SOL     OW61235   7.265  14.385  11.286
19799SOL    HW161236   7.240  14.371  11.378
19799SOL    HW261237   7.316  14.465  11.287
19800SOL     OW61238   7.475   7.247  14.655
19800SOL    HW161239   7.516   7.163  14.636
19800SOL    HW261240   7.383   7.235  14.630
19801SOL     OW61241  13.951  10.843   2.171
19801SOL    HW161242  13.862  10.809   2.177
19801SOL    HW261243  13.982  10.814   2.084
19802SOL     OW61244  11.555  10.099  14.140
19802SOL    HW161245  11.473  10.083  14.186
19802SOL    HW261246  11.622  10.093  14.207
19803SOL     OW61247   3.118   4.845  14.543
19803SOL    HW161248   3.094   4.917  14.602
19803SOL    HW261249   3.126   4.769  14.601
19804SOL     OW61250   5.641  10.819  14.739
19804SOL    HW161251   5.604  10.822  14.651
19804SOL    HW261252   5.730  10.854  14.729
19805SOL     OW61253  13.637   5.169   8.840
19805SOL    HW161254  13.576   5.104   8.873
19805SOL    HW261255  13.584   5.223   8.780
19806SOL     OW61256   8.043   6.975   6.225
19806SOL    HW161257   8.053   6.902   6.163
19806SOL    HW261258   8.000   6.936   6.301
19807SOL     OW61259   5.599  10.991  10.830
19807SOL    HW161260   5.672  10.933  10.814
19807SOL    HW261261   5.637  11.079  10.828
19808SOL     OW61262  11.018   4.085   9.450
19808SOL    HW161263  11.072   4.017   9.491
19808SOL    HW261264  11.076   4.160   9.441
19809SOL     OW61265   2.595   7.208   1.357
19809SOL    HW161266   2.526   7.266   1.325
19809SOL    HW261267   2.664   7.268   1.388
19810SOL     OW61268   8.502   2.085   0.317
19810SOL    HW161269   8.509   2.141   0.394
19810SOL    HW261270   8.523   2.142   0.243
19811SOL     OW61271   6.520   5.869  13.015
19811SOL    HW161272   6.599   5.819  13.038
19811SOL    HW261273   6.448   5.808  13.031
19812SOL     OW61274   1.306  13.481   7.983
19812SOL    HW161275   1.300  13.407   8.044
19812SOL    HW261276   1.396  13.480   7.951
19813SOL     OW61277   8.289   5.401   4.552
19813SOL    HW161278   8.278   5.313   4.516
19813SOL    HW261279   8.327   5.451   4.480
19814SOL     OW61280   0.020   4.825   3.212
19814SOL    HW161281   0.064   4.889   3.156
19814SOL    HW261282   0.086   4.759   3.229
19815SOL     OW61283  10.877  11.661  10.463
19815SOL    HW161284  10.843  11.676  10.375
19815SOL    HW261285  10.803  11.626  10.512
19816SOL     OW61286   6.897   8.072  10.161
19816SOL    HW161287   6.845   8.010  10.212
19816SOL    HW261288   6.853   8.156  10.173
19817SOL     OW61289   6.844  11.443   4.090
19817SOL    HW161290   6.814  11.490   4.167
19817SOL    HW261291   6.827  11.351   4.110
19818SOL     OW61292  10.890   4.595   1.622
19818SOL    HW161293  10.869   4.654   1.694
19818SOL    HW261294  10.891   4.651   1.545
19819SOL     OW61295   5.133   2.826  14.463
19819SOL    HW161296   5.199   2.771  14.421
19819SOL    HW261297   5.058   2.824  14.402
19820SOL     OW61298   3.540  12.405   4.828
19820SOL    HW161299   3.602  12.434   4.895
19820SOL    HW261300   3.594  12.390   4.750
19821SOL     OW61301   0.412   4.316   9.399
19821SOL    HW161302   0.409   4.276   9.311
19821SOL    HW261303   0.481   4.267   9.445
19822SOL     OW61304   8.935   6.185   9.491
19822SOL    HW161305   9.029   6.182   9.471
19822SOL    HW261306   8.925   6.261   9.548
19823SOL     OW61307   3.569   8.796  10.916
19823SOL    HW161308   3.652   8.787  10.963
19823SOL    HW261309   3.595   8.823  10.827
19824SOL     OW61310   9.966   2.640   0.581
19824SOL    HW161311   9.879   2.670   0.554
19824SOL    HW261312   9.992   2.701   0.650
19825SOL     OW61313  10.493   5.688  10.416
19825SOL    HW161314  10.428   5.639  10.366
19825SOL    HW261315  10.548   5.729  10.350
19826SOL     OW61316   2.010   5.492   6.069
19826SOL    HW161317   1.971   5.466   6.153
19826SOL    HW261318   1.993   5.586   6.062
19827SOL     OW61319  12.425  13.935   6.798
19827SOL    HW161320  12.431  13.854   6.747
19827SOL    HW261321  12.434  13.906   6.889
19828SOL     OW61322   0.391   7.731   7.045
19828SOL    HW161323   0.464   7.754   6.987
19828SOL    HW261324   0.360   7.815   7.079
19829SOL     OW61325   8.831   7.915  11.464
19829SOL    HW161326   8.767   7.943  11.398
19829SOL    HW261327   8.916   7.925  11.421
19830SOL     OW61328   7.395  11.540   0.150
19830SOL    HW161329   7.372  11.452   0.179
19830SOL    HW261330   7.343  11.598   0.206
19831SOL     OW61331   1.194   7.012   8.974
19831SOL    HW161332   1.252   7.072   9.021
19831SOL    HW261333   1.203   7.036   8.882
19832SOL     OW61334  13.624  12.319   6.056
19832SOL    HW161335  13.716  12.296   6.050
19832SOL    HW261336  13.601  12.306   6.148
19833SOL     OW61337   5.322   7.311   8.823
19833SOL    HW161338   5.369   7.293   8.741
19833SOL    HW261339   5.345   7.402   8.844
19834SOL     OW61340   3.461   7.764   1.410
19834SOL    HW161341   3.490   7.679   1.441
19834SOL    HW261342   3.373   7.775   1.447
19835SOL     OW61343   2.725  12.669   0.506
19835SOL    HW161344   2.788  12.657   0.435
19835SOL    HW261345   2.641  12.646   0.467
19836SOL     OW61346   2.006  11.187  12.991
19836SOL    HW161347   1.940  11.248  12.959
19836SOL    HW261348   1.984  11.104  12.950
19837SOL     OW61349   4.077  10.687  11.112
19837SOL    HW161350   4.172  10.681  11.126
19837SOL    HW261351   4.039  10.635  11.183
19838SOL     OW61352   7.558   1.835  13.186
19838SOL    HW161353   7.641   1.801  13.217
19838SOL    HW261354   7.563   1.930  13.201
19839SOL     OW61355   9.154  13.856   2.747
19839SOL    HW161356   9.164  13.798   2.822
19839SOL    HW261357   9.070  13.899   2.761
19840SOL     OW61358   0.917   8.861   6.697
19840SOL    HW161359   0.902   8.920   6.623
19840SOL    HW261360   0.995   8.895   6.740
19841SOL     OW61361   4.330  14.397  11.179
19841SOL    HW161362   4.397  14.391  11.247
19841SOL    HW261363   4.247  14.391  11.226
19842SOL     OW61364   4.571  14.770   1.605
19842SOL    HW161365   4.633  14.777   1.678
19842SOL    HW261366   4.497  14.721   1.641
19843SOL     OW61367  12.759  11.133   8.509
19843SOL    HW161368  12.811  11.157   8.587
19843SOL    HW261369  12.731  11.218   8.474
19844SOL     OW61370   1.587  12.198   8.929
19844SOL    HW161371   1.612  12.285   8.958
19844SOL    HW261372   1.660  12.142   8.956
19845SOL     OW61373   0.652   7.717  13.707
19845SOL    HW161374   0.592   7.688  13.776
19845SOL    HW261375   0.691   7.636  13.674
19846SOL     OW61376   8.013   2.849   3.646
19846SOL    HW161377   8.077   2.901   3.598
19846SOL    HW261378   7.942   2.910   3.665
19847SOL     OW61379   6.593   3.983   1.070
19847SOL    HW161380   6.513   3.998   1.120
19847SOL    HW261381   6.642   3.919   1.122
19848SOL     OW61382   3.308  12.994   0.417
19848SOL    HW161383   3.250  13.070   0.421
19848SOL    HW261384   3.394  13.030   0.401
19849SOL     OW61385   3.149  10.269   7.445
19849SOL    HW161386   3.124  10.180   7.420
19849SOL    HW261387   3.242  10.263   7.464
19850SOL     OW61388   9.036   3.718   0.962
19850SOL    HW161389   9.058   3.801   1.005
19850SOL    HW261390   9.119   3.687   0.927
19851SOL     OW61391   7.015   6.420  13.437
19851SOL    HW161392   7.099   6.451  13.403
19851SOL    HW261393   6.956   6.495  13.427
19852SOL     OW61394  14.062   1.786   4.782
19852SOL    HW161395  13.984   1.828   4.748
19852SOL    HW261396  14.094   1.846   4.850
19853SOL     OW61397  10.060   6.634   4.093
19853SOL    HW161398  10.087   6.634   4.002
19853SOL    HW261399   9.993   6.566   4.099
19854SOL     OW61400   3.939   5.983  12.951
19854SOL    HW161401   3.912   5.905  12.999
19854SOL    HW261402   3.972   5.949  12.868
19855SOL     OW61403   7.644   7.956   2.127
19855SOL    HW161404   7.595   7.928   2.049
19855SOL    HW261405   7.734   7.968   2.096
19856SOL     OW61406   6.594   7.146  10.529
19856SOL    HW161407   6.649   7.200  10.473
19856SOL    HW261408   6.653   7.081  10.567
19857SOL     OW61409   5.908  13.173   5.702
19857SOL    HW161410   5.873  13.101   5.754
19857SOL    HW261411   5.886  13.149   5.611
19858SOL     OW61412   9.083   4.765  14.013
19858SOL    HW161413   9.115   4.694  13.957
19858SOL    HW261414   9.159   4.788  14.067
19859SOL     OW61415   5.581   1.248   8.012
19859SOL    HW161416   5.531   1.236   7.932
19859SOL    HW261417   5.527   1.207   8.080
19860SOL     OW61418  10.923   8.760  14.866
19860SOL    HW161419  10.943   8.754  14.772
19860SOL    HW261420  10.989   8.706   0.029
19861SOL     OW61421   1.345   8.340  14.205
19861SOL    HW161422   1.253   8.332  14.232
19861SOL    HW261423   1.360   8.263  14.150
19862SOL     OW61424   2.685  11.869   7.701
19862SOL    HW161425   2.775  11.894   7.683
19862SOL    HW261426   2.634  11.948   7.682
19863SOL     OW61427  12.744   8.875  11.802
19863SOL    HW161428  12.762   8.812  11.733
19863SOL    HW261429  12.676   8.932  11.765
19864SOL     OW61430   5.240  11.735   0.853
19864SOL    HW161431   5.312  11.689   0.897
19864SOL    HW261432   5.215  11.676   0.782
19865SOL     OW61433   4.967   6.044   7.751
19865SOL    HW161434   5.015   5.977   7.704
19865SOL    HW261435   5.021   6.122   7.744
19866SOL     OW61436   2.702   6.585  11.661
19866SOL    HW161437   2.694   6.670  11.618
19866SOL    HW261438   2.778   6.544  11.620
19867SOL     OW61439   9.530   8.434   9.499
19867SOL    HW161440   9.477   8.356   9.483
19867SOL    HW261441   9.531   8.480   9.415
19868SOL     OW61442   0.552   3.144   0.380
19868SOL    HW161443   0.499   3.118   0.455
19868SOL    HW261444   0.565   3.064   0.330
19869SOL     OW61445   0.920   6.708   6.742
19869SOL    HW161446   0.888   6.618   6.730
19869SOL    HW261447   0.847   6.763   6.714
19870SOL     OW61448   1.562   5.947   5.281
19870SOL    HW161449   1.539   5.859   5.308
19870SOL    HW261450   1.532   5.953   5.190
19871SOL     OW61451   2.978  13.343   5.067
19871SOL    HW161452   2.946  13.395   4.994
19871SOL    HW261453   2.906  13.343   5.131
19872SOL     OW61454   3.752  14.663  14.815
19872SOL    HW161455   3.840  14.671  14.779
19872SOL    HW261456   3.695  14.704  14.750
19873SOL     OW61457   5.077  14.671   7.194
19873SOL    HW161458   5.073  14.721   7.274
19873SOL    HW261459   4.987  14.669   7.162
19874SOL     OW61460   0.230  11.821   9.099
19874SOL    HW161461   0.284  11.745   9.115
19874SOL    HW261462   0.230  11.870   9.181
19875SOL     OW61463   6.042   9.862   4.656
19875SOL    HW161464   6.132   9.855   4.623
19875SOL    HW261465   5.991   9.891   4.581
19876SOL     OW61466  11.991  14.271  13.618
19876SOL    HW161467  12.068  14.307  13.574
19876SOL    HW261468  12.019  14.258  13.709
19877SOL     OW61469   5.546   6.282   5.812
19877SOL    HW161470   5.458   6.294   5.846
19877SOL    HW261471   5.560   6.188   5.815
19878SOL     OW61472   3.083   8.519   5.767
19878SOL    HW161473   3.048   8.432   5.786
19878SOL    HW261474   3.025   8.553   5.698
19879SOL     OW61475   5.243   7.947   3.491
19879SOL    HW161476   5.258   7.858   3.457
19879SOL    HW261477   5.159   7.973   3.454
19880SOL     OW61478   8.414   5.593  11.046
19880SOL    HW161479   8.342   5.616  11.105
19880SOL    HW261480   8.493   5.603  11.099
19881SOL     OW61481   0.719   6.617   4.575
19881SOL    HW161482   0.662   6.693   4.578
19881SOL    HW261483   0.714   6.580   4.664
19882SOL     OW61484   1.050   4.960  11.653
19882SOL    HW161485   1.010   4.899  11.591
19882SOL    HW261486   1.003   5.042  11.639
19883SOL     OW61487  13.682  14.003  12.022
19883SOL    HW161488  13.705  14.088  12.061
19883SOL    HW261489  13.615  14.024  11.957
19884SOL     OW61490   4.628   0.236   1.260
19884SOL    HW161491   4.682   0.160   1.280
19884SOL    HW261492   4.632   0.290   1.339
19885SOL     OW61493  10.792   1.172  12.477
19885SOL    HW161494  10.886   1.162  12.460
19885SOL    HW261495  10.767   1.091  12.522
19886SOL     OW61496   2.081   0.711  14.166
19886SOL    HW161497   2.092   0.796  14.209
19886SOL    HW261498   2.150   0.709  14.099
19887SOL     OW61499  14.035  10.296   1.881
19887SOL    HW161500  13.977  10.285   1.957
19887SOL    HW261501  13.992  10.247   1.811
19888SOL     OW61502   6.823  14.419   7.939
19888SOL    HW161503   6.757  14.383   7.999
19888SOL    HW261504   6.903  14.373   7.961
19889SOL     OW61505  11.193  12.077   4.760
19889SOL    HW161506  11.175  12.152   4.703
19889SOL    HW261507  11.236  12.013   4.703
19890SOL     OW61508  10.245   3.888   6.599
19890SOL    HW161509  10.272   3.980   6.596
19890SOL    HW261510  10.324   3.840   6.622
19891SOL     OW61511  11.838   6.578   7.446
19891SOL    HW161512  11.875   6.493   7.470
19891SOL    HW261513  11.748   6.574   7.478
19892SOL     OW61514   1.337  14.808   5.051
19892SOL    HW161515   1.387  14.729   5.032
19892SOL    HW261516   1.403  14.878   5.056
19893SOL     OW61517  12.821   7.972  11.132
19893SOL    HW161518  12.736   7.967  11.087
19893SOL    HW261519  12.822   8.059  11.171
19894SOL     OW61520   9.481   3.477  13.196
19894SOL    HW161521   9.425   3.406  13.163
19894SOL    HW261522   9.568   3.456  13.163
19895SOL     OW61523   7.542  10.357   0.088
19895SOL    HW161524   7.519  10.422   0.153
19895SOL    HW261525   7.637  10.347   0.096
19896SOL     OW61526   6.460   8.126   4.859
19896SOL    HW161527   6.388   8.106   4.798
19896SOL    HW261528   6.531   8.068   4.832
19897SOL     OW61529  14.808   8.419   5.987
19897SOL    HW161530  14.724   8.372   5.989
19897SOL    HW261531  14.794   8.491   5.926
19898SOL     OW61532   6.476  14.467   5.638
19898SOL    HW161533   6.541  14.408   5.675
19898SOL    HW261534   6.430  14.502   5.715
19899SOL     OW61535   7.716  11.786   3.286
19899SOL    HW161536   7.629  11.775   3.325
19899SOL    HW261537   7.706  11.861   3.227
19900SOL     OW61538   0.052   8.402   8.205
19900SOL    HW161539   0.114   8.391   8.278
19900SOL    HW261540   0.080   8.484   8.163
19901SOL     OW61541   6.234  10.953  12.165
19901SOL    HW161542   6.187  10.959  12.248
19901SOL    HW261543   6.167  10.934  12.100
19902SOL     OW61544   0.416   8.666   9.771
19902SOL    HW161545   0.443   8.674   9.862
19902SOL    HW261546   0.398   8.756   9.744
19903SOL     OW61547   6.771   9.101   9.023
19903SOL    HW161548   6.752   9.129   9.112
19903SOL    HW261549   6.690   9.060   8.993
19904SOL     OW61550  12.759  12.494  10.790
19904SOL    HW161551  12.850  12.478  10.763
19904SOL    HW261552  12.758  12.468  10.882
19905SOL     OW61553  11.098  11.542   8.931
19905SOL    HW161554  11.039  11.469   8.950
19905SOL    HW261555  11.124  11.576   9.017
19906SOL     OW61556   3.163  10.889   7.035
19906SOL    HW161557   3.075  10.890   7.072
19906SOL    HW261558   3.219  10.921   7.105
19907SOL     OW61559   2.490   4.266   6.830
19907SOL    HW161560   2.504   4.358   6.851
19907SOL    HW261561   2.547   4.218   6.891
19908SOL     OW61562   3.696   2.974  10.314
19908SOL    HW161563   3.715   2.896  10.260
19908SOL    HW261564   3.614   3.007  10.279
19909SOL     OW61565   9.196   5.500   1.944
19909SOL    HW161566   9.132   5.567   1.967
19909SOL    HW261567   9.224   5.523   1.856
19910SOL     OW61568  12.943   4.588   4.453
19910SOL    HW161569  12.944   4.617   4.362
19910SOL    HW261570  12.992   4.506   4.453
19911SOL     OW61571   6.184  10.818   1.695
19911SOL    HW161572   6.113  10.872   1.729
19911SOL    HW261573   6.163  10.730   1.725
19912SOL     OW61574   2.788  12.143   5.829
19912SOL    HW161575   2.855  12.119   5.893
19912SOL    HW261576   2.710  12.161   5.882
19913SOL     OW61577   8.606   9.987   3.581
19913SOL    HW161578   8.634   9.909   3.628
19913SOL    HW261579   8.511   9.978   3.574
19914SOL     OW61580   6.633  13.045   6.222
19914SOL    HW161581   6.683  13.106   6.167
19914SOL    HW261582   6.578  12.997   6.160
19915SOL     OW61583   8.750  13.720   8.899
19915SOL    HW161584   8.666  13.701   8.941
19915SOL    HW261585   8.727  13.773   8.822
19916SOL     OW61586   7.390  14.275   3.345
19916SOL    HW161587   7.452  14.342   3.373
19916SOL    HW261588   7.434  14.192   3.363
19917SOL     OW61589   4.254   3.560  10.517
19917SOL    HW161590   4.331   3.602  10.556
19917SOL    HW261591   4.284   3.472  10.494
19918SOL     OW61592   7.092  11.585   8.877
19918SOL    HW161593   7.130  11.559   8.961
19918SOL    HW261594   7.015  11.636   8.900
19919SOL     OW61595   3.122   4.492   0.387
19919SOL    HW161596   3.184   4.559   0.415
19919SOL    HW261597   3.068   4.535   0.320
19920SOL     OW61598   0.497   4.583   0.595
19920SOL    HW161599   0.588   4.557   0.608
19920SOL    HW261600   0.446   4.505   0.620
19921SOL     OW61601   9.771   7.947  12.702
19921SOL    HW161602   9.863   7.966  12.683
19921SOL    HW261603   9.764   7.955  12.797
19922SOL     OW61604   4.131   7.731   9.397
19922SOL    HW161605   4.187   7.656   9.420
19922SOL    HW261606   4.186   7.808   9.412
19923SOL     OW61607   3.210   2.638  13.403
19923SOL    HW161608   3.248   2.663  13.319
19923SOL    HW261609   3.167   2.718  13.434
19924SOL     OW61610  11.345   5.214   2.311
19924SOL    HW161611  11.395   5.136   2.291
19924SOL    HW261612  11.337   5.214   2.407
19925SOL     OW61613   9.257   8.014   2.557
19925SOL    HW161614   9.167   8.018   2.590
19925SOL    HW261615   9.268   8.095   2.507
19926SOL     OW61616  10.253  10.030   0.115
19926SOL    HW161617  10.304   9.963   0.161
19926SOL    HW261618  10.207  10.077   0.184
19927SOL     OW61619  12.843   8.329   4.542
19927SOL    HW161620  12.841   8.361   4.452
19927SOL    HW261621  12.931   8.349   4.573
19928SOL     OW61622   9.742   5.518  14.745
19928SOL    HW161623   9.734   5.614  14.745
19928SOL    HW261624   9.731   5.493  14.837
19929SOL     OW61625   8.369   2.156   4.880
19929SOL    HW161626   8.354   2.072   4.923
19929SOL    HW261627   8.455   2.184   4.913
19930SOL     OW61628  13.078   0.334   2.880
19930SOL    HW161629  13.155   0.331   2.823
19930SOL    HW261630  13.004   0.325   2.820
19931SOL     OW61631   2.289   5.846  12.900
19931SOL    HW161632   2.218   5.868  12.841
19931SOL    HW261633   2.280   5.907  12.974
19932SOL     OW61634  13.731   9.789   2.519
19932SOL    HW161635  13.670   9.863   2.518
19932SOL    HW261636  13.808   9.823   2.564
19933SOL     OW61637   3.702   8.573   8.394
19933SOL    HW161638   3.650   8.646   8.427
19933SOL    HW261639   3.740   8.533   8.472
19934SOL     OW61640   3.486   9.344  10.085
19934SOL    HW161641   3.523   9.291  10.156
19934SOL    HW261642   3.403   9.303  10.064
19935SOL     OW61643   0.427   9.085   1.467
19935SOL    HW161644   0.443   9.102   1.374
19935SOL    HW261645   0.428   8.989   1.474
19936SOL     OW61646   6.422  13.370   3.675
19936SOL    HW161647   6.328  13.382   3.666
19936SOL    HW261648   6.436  13.277   3.659
19937SOL     OW61649  11.715  12.982  12.767
19937SOL    HW161650  11.721  13.048  12.697
19937SOL    HW261651  11.770  12.910  12.736
19938SOL     OW61652   0.957   8.951   1.199
19938SOL    HW161653   1.017   8.914   1.264
19938SOL    HW261654   0.912   8.876   1.162
19939SOL     OW61655  13.085   5.447  12.147
19939SOL    HW161656  13.142   5.464  12.222
19939SOL    HW261657  13.126   5.495  12.075
19940SOL     OW61658   2.152  13.554   7.134
19940SOL    HW161659   2.226  13.496   7.119
19940SOL    HW261660   2.092  13.536   7.061
19941SOL     OW61661   8.220   7.707   6.519
19941SOL    HW161662   8.204   7.620   6.482
19941SOL    HW261663   8.179   7.768   6.457
19942SOL     OW61664   8.010  11.654   4.974
19942SOL    HW161665   7.965  11.707   4.908
19942SOL    HW261666   7.941  11.602   5.014
19943SOL     OW61667   1.432   5.768   1.563
19943SOL    HW161668   1.486   5.810   1.631
19943SOL    HW261669   1.370   5.714   1.611
19944SOL     OW61670   1.539   5.021   8.063
19944SOL    HW161671   1.494   4.952   8.014
19944SOL    HW261672   1.502   5.102   8.029
19945SOL     OW61673   5.054   0.287   4.765
19945SOL    HW161674   5.055   0.238   4.683
19945SOL    HW261675   5.059   0.220   4.833
19946SOL     OW61676   5.542  13.713   1.817
19946SOL    HW161677   5.601  13.712   1.742
19946SOL    HW261678   5.562  13.794   1.863
19947SOL     OW61679  13.573   2.647  14.730
19947SOL    HW161680  13.633   2.591  14.778
19947SOL    HW261681  13.622   2.728  14.715
19948SOL     OW61682   5.920   3.546   9.283
19948SOL    HW161683   5.929   3.637   9.256
19948SOL    HW261684   5.849   3.548   9.348
19949SOL     OW61685   7.235  12.238   7.131
19949SOL    HW161686   7.324  12.207   7.113
19949SOL    HW261687   7.212  12.200   7.215
19950SOL     OW61688   6.201   0.207  10.925
19950SOL    HW161689   6.186   0.270  10.854
19950SOL    HW261690   6.188   0.257  11.005
19951SOL     OW61691   0.242  10.803   6.855
19951SOL    HW161692   0.319  10.778   6.906
19951SOL    HW261693   0.244  10.899   6.855
19952SOL     OW61694  12.712   5.349   0.826
19952SOL    HW161695  12.716   5.389   0.913
19952SOL    HW261696  12.629   5.301   0.826
19953SOL     OW61697   9.442   0.113   1.568
19953SOL    HW161698   9.524   0.162   1.559
19953SOL    HW261699   9.385   0.152   1.502
19954SOL     OW61700   1.476  13.857   3.539
19954SOL    HW161701   1.565  13.863   3.574
19954SOL    HW261702   1.480  13.784   3.476
19955SOL     OW61703   5.813   4.394   7.311
19955SOL    HW161704   5.807   4.313   7.361
19955SOL    HW261705   5.763   4.458   7.363
19956SOL     OW61706  13.083   4.410   6.297
19956SOL    HW161707  12.999   4.431   6.338
19956SOL    HW261708  13.149   4.447   6.356
19957SOL     OW61709   6.981  10.070  11.004
19957SOL    HW161710   7.072  10.099  11.005
19957SOL    HW261711   6.980   9.995  10.944
19958SOL     OW61712  13.942   4.851   4.076
19958SOL    HW161713  13.956   4.946   4.074
19958SOL    HW261714  13.864   4.837   4.023
19959SOL     OW61715  11.207   5.589   1.594
19959SOL    HW161716  11.208   5.683   1.615
19959SOL    HW261717  11.185   5.547   1.677
19960SOL     OW61718   7.334   2.613  11.404
19960SOL    HW161719   7.422   2.640  11.377
19960SOL    HW261720   7.287   2.597  11.323
19961SOL     OW61721   4.372   6.106   0.692
19961SOL    HW161722   4.392   6.024   0.648
19961SOL    HW261723   4.447   6.120   0.750
19962SOL     OW61724   0.259   3.515   2.928
19962SOL    HW161725   0.209   3.460   2.866
19962SOL    HW261726   0.236   3.605   2.903
19963SOL     OW61727  12.309   2.806  13.451
19963SOL    HW161728  12.366   2.804  13.373
19963SOL    HW261729  12.370   2.816  13.524
19964SOL     OW61730   4.767   4.278  14.532
19964SOL    HW161731   4.779   4.251  14.623
19964SOL    HW261732   4.847   4.251  14.488
19965SOL     OW61733  11.194   6.196   7.683
19965SOL    HW161734  11.153   6.174   7.599
19965SOL    HW261735  11.214   6.111   7.723
19966SOL     OW61736   6.023   3.719   5.473
19966SOL    HW161737   5.943   3.700   5.523
19966SOL    HW261738   6.083   3.756   5.538
19967SOL     OW61739   1.303   2.582  13.667
19967SOL    HW161740   1.236   2.527  13.628
19967SOL    HW261741   1.310   2.657  13.609
19968SOL     OW61742   9.871  11.975   6.062
19968SOL    HW161743   9.889  11.982   5.968
19968SOL    HW261744   9.942  11.919   6.095
19969SOL     OW61745   4.808   0.165   5.990
19969SOL    HW161746   4.746   0.109   5.944
19969SOL    HW261747   4.814   0.244   5.936
19970SOL     OW61748   4.882   1.947   4.289
19970SOL    HW161749   4.880   1.875   4.225
19970SOL    HW261750   4.790   1.975   4.296
19971SOL     OW61751   2.666   7.833  12.744
19971SOL    HW161752   2.748   7.816  12.791
19971SOL    HW261753   2.629   7.911  12.785
19972SOL     OW61754  14.419   7.394  12.538
19972SOL    HW161755  14.495   7.452  12.527
19972SOL    HW261756  14.353   7.449  12.579
19973SOL     OW61757  11.874   2.631  14.740
19973SOL    HW161758  11.906   2.544  14.764
19973SOL    HW261759  11.942   2.690  14.773
19974SOL     OW61760   8.949  11.995  13.104
19974SOL    HW161761   8.887  11.923  13.115
19974SOL    HW261762   8.895  12.069  13.078
19975SOL     OW61763   6.622   2.623   9.519
19975SOL    HW161764   6.537   2.625   9.564
19975SOL    HW261765   6.644   2.530   9.515
19976SOL     OW61766  12.372   7.999   0.716
19976SOL    HW161767  12.430   7.940   0.669
19976SOL    HW261768  12.314   8.034   0.649
19977SOL     OW61769   4.805   9.079   2.889
19977SOL    HW161770   4.818   8.985   2.903
19977SOL    HW261771   4.710   9.091   2.896
19978SOL     OW61772   9.056   7.721  14.221
19978SOL    HW161773   9.092   7.792  14.274
19978SOL    HW261774   9.019   7.660  14.286
19979SOL     OW61775   9.005   3.178   0.929
19979SOL    HW161776   8.919   3.159   0.965
19979SOL    HW261777   9.009   3.127   0.848
19980SOL     OW61778  11.568  12.493  11.289
19980SOL    HW161779  11.622  12.545  11.230
19980SOL    HW261780  11.480  12.529  11.280
19981SOL     OW61781   0.838  11.879   1.468
19981SOL    HW161782   0.884  11.902   1.388
19981SOL    HW261783   0.787  11.957   1.490
19982SOL     OW61784   1.333   6.981  14.760
19982SOL    HW161785   1.251   6.934  14.777
19982SOL    HW261786   1.330   7.001  14.667
19983SOL     OW61787   7.119   4.504   1.004
19983SOL    HW161788   7.080   4.592   1.001
19983SOL    HW261789   7.046   4.446   1.025
19984SOL     OW61790  11.443  13.591   5.428
19984SOL    HW161791  11.439  13.646   5.350
19984SOL    HW261792  11.367  13.533   5.421
19985SOL     OW61793  11.186   3.098   6.776
19985SOL    HW161794  11.208   3.115   6.868
19985SOL    HW261795  11.092   3.084   6.776
19986SOL     OW61796   2.075   0.085  10.483
19986SOL    HW161797   2.013   0.039  10.539
19986SOL    HW261798   2.125   0.141  10.543
19987SOL     OW61799  11.807   6.657  12.761
19987SOL    HW161800  11.789   6.566  12.783
19987SOL    HW261801  11.829   6.698  12.844
19988SOL     OW61802   3.388   7.163  12.877
19988SOL    HW161803   3.384   7.175  12.972
19988SOL    HW261804   3.298   7.145  12.851
19989SOL     OW61805   9.058  14.205   9.891
19989SOL    HW161806   9.139  14.237   9.852
19989SOL    HW261807   8.991  14.224   9.825
19990SOL     OW61808   0.253   2.917   6.027
19990SOL    HW161809   0.227   3.008   6.013
19990SOL    HW261810   0.217   2.870   5.952
19991SOL     OW61811   1.836   1.865  14.316
19991SOL    HW161812   1.792   1.785  14.344
19991SOL    HW261813   1.892   1.889  14.390
19992SOL     OW61814   2.496   9.008   3.866
19992SOL    HW161815   2.575   8.962   3.894
19992SOL    HW261816   2.438   9.004   3.941
19993SOL     OW61817  10.837  14.019   9.320
19993SOL    HW161818  10.813  14.100   9.364
19993SOL    HW261819  10.845  13.955   9.391
19994SOL     OW61820   3.224  12.025  14.697
19994SOL    HW161821   3.314  12.019  14.728
19994SOL    HW261822   3.207  11.941  14.656
19995SOL     OW61823  10.600   4.973   9.546
19995SOL    HW161824  10.553   4.929   9.617
19995SOL    HW261825  10.551   4.952   9.467
19996SOL     OW61826   1.633   2.515   0.861
19996SOL    HW161827   1.619   2.474   0.946
19996SOL    HW261828   1.667   2.602   0.882
19997SOL     OW61829  14.820   6.663   9.845
19997SOL    HW161830  14.806   6.577   9.885
19997SOL    HW261831  14.732   6.702   9.842
19998SOL     OW61832   5.017  12.088   9.807
19998SOL    HW161833   5.088  12.025   9.809
19998SOL    HW261834   5.004  12.107   9.714
19999SOL     OW61835   8.931   4.386   6.535
19999SOL    HW161836   8.940   4.399   6.440
19999SOL    HW261837   8.956   4.470   6.573
20000SOL     OW61838   6.651   0.723  13.366
20000SOL    HW161839   6.611   0.637  13.378
20000SOL    HW261840   6.686   0.745  13.452
20001SOL     OW61841  13.845   2.454   3.531
20001SOL    HW161842  13.853   2.530   3.473
20001SOL    HW261843  13.926   2.405   3.517
20002SOL     OW61844  14.004   4.053   9.172
20002SOL    HW161845  14.010   4.148   9.164
20002SOL    HW261846  14.082   4.028   9.222
20003SOL     OW61847   9.002   9.934   1.260
20003SOL    HW161848   9.079   9.878   1.275
20003SOL    HW261849   8.928   9.874   1.256
20004SOL     OW61850   7.129  12.436  11.328
20004SOL    HW161851   7.162  12.494  11.396
20004SOL    HW261852   7.200  12.374  11.312
20005SOL     OW61853  13.461   9.457   1.951
20005SOL    HW161854  13.510   9.538   1.967
20005SOL    HW261855  13.389   9.460   2.014
20006SOL     OW61856   7.101   2.668  13.836
20006SOL    HW161857   7.100   2.664  13.741
20006SOL    HW261858   7.136   2.583  13.864
20007SOL     OW61859  11.357   3.954   9.893
20007SOL    HW161860  11.298   4.022   9.925
20007SOL    HW261861  11.390   3.988   9.810
20008SOL     OW61862  13.636   2.812   0.461
20008SOL    HW161863  13.719   2.779   0.497
20008SOL    HW261864  13.636   2.784   0.370
20009SOL     OW61865  11.755   0.481   2.725
20009SOL    HW161866  11.775   0.400   2.677
20009SOL    HW261867  11.840   0.521   2.742
20010SOL     OW61868   3.689   9.813   7.847
20010SOL    HW161869   3.686   9.883   7.912
20010SOL    HW261870   3.598   9.783   7.841
20011SOL     OW61871   9.893  13.347  10.908
20011SOL    HW161872   9.984  13.351  10.936
20011SOL    HW261873   9.881  13.256  10.880
20012SOL     OW61874   3.456   9.611   6.456
20012SOL    HW161875   3.406   9.588   6.378
20012SOL    HW261876   3.538   9.563   6.448
20013SOL     OW61877   4.795  10.716   1.060
20013SOL    HW161878   4.729  10.651   1.041
20013SOL    HW261879   4.850  10.719   0.981
20014SOL     OW61880   6.706   8.386   7.302
20014SOL    HW161881   6.753   8.305   7.320
20014SOL    HW261882   6.765   8.435   7.243
20015SOL     OW61883  14.701   8.714   0.961
20015SOL    HW161884  14.733   8.760   1.039
20015SOL    HW261885  14.607   8.732   0.960
20016SOL     OW61886   5.333  14.620   2.323
20016SOL    HW161887   5.404  14.632   2.259
20016SOL    HW261888   5.374  14.635   2.408
20017SOL     OW61889   9.799   3.424   7.744
20017SOL    HW161890   9.879   3.424   7.797
20017SOL    HW261891   9.768   3.514   7.747
20018SOL     OW61892   4.841  13.333   2.290
20018SOL    HW161893   4.792  13.257   2.322
20018SOL    HW261894   4.803  13.351   2.204
20019SOL     OW61895   7.452   1.933  14.395
20019SOL    HW161896   7.547   1.935  14.385
20019SOL    HW261897   7.437   1.967  14.483
20020SOL     OW61898   6.090  11.911  10.489
20020SOL    HW161899   5.998  11.933  10.506
20020SOL    HW261900   6.109  11.840  10.551
20021SOL     OW61901   1.657   7.769   2.736
20021SOL    HW161902   1.573   7.748   2.696
20021SOL    HW261903   1.672   7.700   2.800
20022SOL     OW61904  10.972  13.398   3.842
20022SOL    HW161905  10.996  13.437   3.927
20022SOL    HW261906  10.878  13.412   3.835
20023SOL     OW61907  12.986   0.202   3.199
20023SOL    HW161908  13.066   0.238   3.161
20023SOL    HW261909  12.928   0.277   3.210
20024SOL     OW61910   5.822  12.462  14.240
20024SOL    HW161911   5.865  12.441  14.323
20024SOL    HW261912   5.804  12.378  14.200
20025SOL     OW61913   7.951  13.713  10.660
20025SOL    HW161914   8.040  13.707  10.694
20025SOL    HW261915   7.914  13.626  10.675
20026SOL     OW61916   7.966  14.727  11.911
20026SOL    HW161917   8.039  14.664  11.915
20026SOL    HW261918   7.915  14.708  11.990
20027SOL     OW61919  10.718  10.555  11.814
20027SOL    HW161920  10.629  10.567  11.779
20027SOL    HW261921  10.704  10.515  11.900
20028SOL     OW61922  13.890  10.697   4.857
20028SOL    HW161923  13.960  10.745   4.813
20028SOL    HW261924  13.882  10.615   4.807
20029SOL     OW61925   5.946  12.890   1.619
20029SOL    HW161926   6.021  12.903   1.677
20029SOL    HW261927   5.949  12.797   1.596
20030SOL     OW61928   2.196   2.105   3.025
20030SOL    HW161929   2.137   2.044   3.069
20030SOL    HW261930   2.264   2.049   2.988
20031SOL     OW61931   7.466  11.689   4.475
20031SOL    HW161932   7.540  11.735   4.436
20031SOL    HW261933   7.394  11.752   4.470
20032SOL     OW61934  10.436   9.039   0.773
20032SOL    HW161935  10.356   9.034   0.721
20032SOL    HW261936  10.467   9.129   0.762
20033SOL     OW61937  13.869   4.179   2.478
20033SOL    HW161938  13.850   4.243   2.547
20033SOL    HW261939  13.811   4.105   2.497
20034SOL     OW61940   6.096   7.844  12.280
20034SOL    HW161941   6.158   7.850  12.207
20034SOL    HW261942   6.048   7.926  12.277
20035SOL     OW61943  14.660   4.802   1.427
20035SOL    HW161944  14.737   4.799   1.370
20035SOL    HW261945  14.639   4.895   1.435
20036SOL     OW61946   6.845  12.506   7.034
20036SOL    HW161947   6.769  12.500   7.091
20036SOL    HW261948   6.870  12.415   7.018
20037SOL     OW61949  10.887   4.436  14.290
20037SOL    HW161950  10.833   4.358  14.279
20037SOL    HW261951  10.959   4.408  14.347
20038SOL     OW61952   7.087  14.331   5.298
20038SOL    HW161953   7.123  14.291   5.219
20038SOL    HW261954   7.047  14.258   5.346
20039SOL     OW61955   0.545  11.100   4.457
20039SOL    HW161956   0.456  11.097   4.421
20039SOL    HW261957   0.539  11.160   4.531
20040SOL     OW61958   1.265  12.108   2.247
20040SOL    HW161959   1.213  12.032   2.271
20040SOL    HW261960   1.270  12.160   2.327
20041SOL     OW61961  13.803   9.392   8.960
20041SOL    HW161962  13.878   9.395   8.901
20041SOL    HW261963  13.837   9.422   9.044
20042SOL     OW61964   7.812  12.204  11.574
20042SOL    HW161965   7.771  12.158  11.501
20042SOL    HW261966   7.797  12.297  11.555
20043SOL     OW61967  10.964   2.208  12.889
20043SOL    HW161968  10.921   2.277  12.939
20043SOL    HW261969  11.058   2.225  12.900
20044SOL     OW61970   4.386  14.786   3.101
20044SOL    HW161971   4.373  14.715   3.164
20044SOL    HW261972   4.298  14.808   3.071
20045SOL     OW61973   0.537   3.017   7.629
20045SOL    HW161974   0.578   3.093   7.668
20045SOL    HW261975   0.600   2.986   7.563
20046SOL     OW61976   1.494   3.880   3.701
20046SOL    HW161977   1.572   3.824   3.705
20046SOL    HW261978   1.490   3.908   3.609
20047SOL     OW61979   7.252  14.655   8.681
20047SOL    HW161980   7.218  14.708   8.609
20047SOL    HW261981   7.206  14.572   8.674
20048SOL     OW61982   6.183   5.677   5.501
20048SOL    HW161983   6.177   5.600   5.558
20048SOL    HW261984   6.277   5.693   5.492
20049SOL     OW61985   5.522  14.193   0.049
20049SOL    HW161986   5.479  14.113   0.021
20049SOL    HW261987   5.475  14.263   0.004
20050SOL     OW61988   9.752  14.585   0.467
20050SOL    HW161989   9.738  14.491   0.452
20050SOL    HW261990   9.845  14.599   0.447
20051SOL     OW61991   9.845   1.499  13.056
20051SOL    HW161992   9.806   1.412  13.067
20051SOL    HW261993   9.845   1.536  13.144
20052SOL     OW61994   6.478  12.430   3.402
20052SOL    HW161995   6.567  12.430   3.439
20052SOL    HW261996   6.435  12.354   3.442
20053SOL     OW61997   5.310  12.540  10.458
20053SOL    HW161998   5.326  12.628  10.424
20053SOL    HW261999   5.217  12.524  10.439
20054SOL     OW62000   1.763   3.247   3.939
20054SOL    HW162001   1.682   3.198   3.930
20054SOL    HW262002   1.755   3.292   4.023
20055SOL     OW62003   9.278   2.450   2.661
20055SOL    HW162004   9.189   2.482   2.676
20055SOL    HW262005   9.330   2.529   2.651
20056SOL     OW62006  14.738   7.126   8.582
20056SOL    HW162007  14.643   7.113   8.578
20056SOL    HW262008  14.755   7.198   8.521
20057SOL     OW62009   6.382   7.502   7.356
20057SOL    HW162010   6.395   7.596   7.344
20057SOL    HW262011   6.291   7.487   7.330
20058SOL     OW62012  12.856   4.655  12.061
20058SOL    HW162013  12.786   4.709  12.098
20058SOL    HW262014  12.932   4.672  12.118
20059SOL     OW62015  11.357   3.785  12.523
20059SOL    HW162016  11.320   3.784  12.435
20059SOL    HW262017  11.451   3.787  12.510
20060SOL     OW62018   1.233   5.045  10.234
20060SOL    HW162019   1.228   5.070  10.142
20060SOL    HW262020   1.315   5.084  10.265
20061SOL     OW62021   9.748  10.437  13.760
20061SOL    HW162022   9.660  10.400  13.755
20061SOL    HW262023   9.789  10.393  13.835
20062SOL     OW62024  12.669  13.527   2.140
20062SOL    HW162025  12.689  13.583   2.065
20062SOL    HW262026  12.690  13.581   2.216
20063SOL     OW62027   9.506   6.338  13.971
20063SOL    HW162028   9.536   6.383  14.050
20063SOL    HW262029   9.586   6.322  13.921
20064SOL     OW62030   2.818   1.810  11.837
20064SOL    HW162031   2.755   1.854  11.894
20064SOL    HW262032   2.792   1.718  11.838
20065SOL     OW62033   8.580  14.364   4.591
20065SOL    HW162034   8.559  14.352   4.683
20065SOL    HW262035   8.661  14.316   4.578
20066SOL     OW62036  14.562   5.056  10.245
20066SOL    HW162037  14.499   4.989  10.219
20066SOL    HW262038  14.644   5.007  10.259
20067SOL     OW62039   2.412   4.406   8.116
20067SOL    HW162040   2.473   4.479   8.126
20067SOL    HW262041   2.463   4.337   8.075
20068SOL     OW62042   8.628   3.192   8.196
20068SOL    HW162043   8.586   3.254   8.255
20068SOL    HW262044   8.631   3.110   8.246
20069SOL     OW62045   2.015   2.257   3.836
20069SOL    HW162046   2.066   2.332   3.803
20069SOL    HW262047   2.045   2.245   3.926
20070SOL     OW62048   2.552  10.428   2.499
20070SOL    HW162049   2.615  10.497   2.515
20070SOL    HW262050   2.564  10.404   2.407
20071SOL     OW62051  10.967   0.987  11.495
20071SOL    HW162052  10.900   0.919  11.498
20071SOL    HW262053  10.918   1.069  11.485
20072SOL     OW62054  12.899   9.303   6.881
20072SOL    HW162055  12.989   9.272   6.867
20072SOL    HW262056  12.904   9.356   6.960
20073SOL     OW62057   1.847  11.972   0.993
20073SOL    HW162058   1.872  12.050   1.041
20073SOL    HW262059   1.776  11.934   1.045
20074SOL     OW62060  11.186  10.184   7.024
20074SOL    HW162061  11.276  10.203   6.996
20074SOL    HW262062  11.171  10.094   6.997
20075SOL     OW62063   3.320   6.801  10.720
20075SOL    HW162064   3.390   6.780  10.781
20075SOL    HW262065   3.240   6.777  10.766
20076SOL     OW62066   9.243   2.538   0.573
20076SOL    HW162067   9.196   2.621   0.559
20076SOL    HW262068   9.180   2.483   0.620
20077SOL     OW62069   6.779  10.715   9.121
20077SOL    HW162070   6.727  10.718   9.041
20077SOL    HW262071   6.816  10.803   9.130
20078SOL     OW62072   9.042   6.612  13.434
20078SOL    HW162073   9.056   6.690  13.487
20078SOL    HW262074   9.090   6.629  13.353
20079SOL     OW62075   0.660  10.781   2.680
20079SOL    HW162076   0.599  10.728   2.732
20079SOL    HW262077   0.728  10.719   2.653
20080SOL     OW62078   1.468   5.819   6.225
20080SOL    HW162079   1.453   5.731   6.261
20080SOL    HW262080   1.538   5.855   6.280
20081SOL     OW62081  12.300  13.879  10.140
20081SOL    HW162082  12.265  13.809  10.195
20081SOL    HW262083  12.338  13.942  10.202
20082SOL     OW62084   8.863  13.176   2.772
20082SOL    HW162085   8.860  13.237   2.846
20082SOL    HW262086   8.873  13.090   2.812
20083SOL     OW62087   1.247  13.479  13.396
20083SOL    HW162088   1.171  13.461  13.341
20083SOL    HW262089   1.228  13.564  13.435
20084SOL     OW62090  12.089  14.035   7.606
20084SOL    HW162091  12.111  14.106   7.666
20084SOL    HW262092  12.173  14.008   7.569
20085SOL     OW62093   3.416  12.653   4.724
20085SOL    HW162094   3.450  12.598   4.654
20085SOL    HW262095   3.385  12.592   4.791
20086SOL     OW62096  14.287   7.434   3.115
20086SOL    HW162097  14.376   7.457   3.142
20086SOL    HW262098  14.274   7.482   3.033
20087SOL     OW62099   6.096   4.525  12.575
20087SOL    HW162100   6.097   4.584  12.499
20087SOL    HW262101   6.017   4.550  12.623
20088SOL     OW62102   8.227   0.993   2.413
20088SOL    HW162103   8.136   0.973   2.392
20088SOL    HW262104   8.222   1.069   2.472
20089SOL     OW62105   6.121   9.273   9.050
20089SOL    HW162106   6.153   9.248   9.136
20089SOL    HW262107   6.140   9.367   9.044
20090SOL     OW62108  10.549   0.698   0.874
20090SOL    HW162109  10.547   0.658   0.961
20090SOL    HW262110  10.494   0.642   0.820
20091SOL     OW62111   8.884   9.976   5.556
20091SOL    HW162112   8.944   9.919   5.603
20091SOL    HW262113   8.797   9.956   5.592
20092SOL     OW62114   0.397  13.126   2.014
20092SOL    HW162115   0.486  13.160   2.001
20092SOL    HW262116   0.345  13.203   2.037
20093SOL     OW62117  10.928   7.620  12.984
20093SOL    HW162118  10.863   7.613  12.914
20093SOL    HW262119  10.879   7.657  13.058
20094SOL     OW62120  12.195  13.420   9.358
20094SOL    HW162121  12.151  13.505   9.354
20094SOL    HW262122  12.201  13.391   9.267
20095SOL     OW62123  14.644   9.364  11.052
20095SOL    HW162124  14.553   9.380  11.075
20095SOL    HW262125  14.640   9.333  10.962
20096SOL     OW62126   2.296   0.090   8.109
20096SOL    HW162127   2.258   0.176   8.091
20096SOL    HW262128   2.236   0.028   8.067
20097SOL     OW62129   2.378   3.674  14.103
20097SOL    HW162130   2.440   3.676  14.030
20097SOL    HW262131   2.430   3.698  14.180
20098SOL     OW62132   0.772  10.874   1.969
20098SOL    HW162133   0.806  10.880   1.880
20098SOL    HW262134   0.821  10.803   2.009
20099SOL     OW62135  10.309   4.345   9.298
20099SOL    HW162136  10.377   4.341   9.231
20099SOL    HW262137  10.354   4.377   9.376
20100SOL     OW62138  11.827   0.490   0.576
20100SOL    HW162139  11.792   0.502   0.488
20100SOL    HW262140  11.752   0.461   0.628
20101SOL     OW62141   2.404   3.121   9.388
20101SOL    HW162142   2.486   3.160   9.357
20101SOL    HW262143   2.425   3.089   9.476
20102SOL     OW62144   4.822   9.651   6.128
20102SOL    HW162145   4.837   9.560   6.103
20102SOL    HW262146   4.744   9.648   6.184
20103SOL     OW62147   8.430   4.898   2.388
20103SOL    HW162148   8.348   4.889   2.340
20103SOL    HW262149   8.495   4.856   2.333
20104SOL     OW62150   5.473  10.841   7.052
20104SOL    HW162151   5.505  10.780   7.119
20104SOL    HW262152   5.492  10.797   6.969
20105SOL     OW62153  12.142   2.609  12.296
20105SOL    HW162154  12.162   2.638  12.207
20105SOL    HW262155  12.107   2.521  12.286
20106SOL     OW62156   5.619  10.386  10.194
20106SOL    HW162157   5.560  10.459  10.213
20106SOL    HW262158   5.566  10.326  10.141
20107SOL     OW62159   4.166  10.659  12.286
20107SOL    HW162160   4.175  10.703  12.371
20107SOL    HW262161   4.242  10.687  12.236
20108SOL     OW62162   3.704   6.281  14.705
20108SOL    HW162163   3.614   6.314  14.706
20108SOL    HW262164   3.744   6.319  14.783
20109SOL     OW62165   4.629  12.985   2.167
20109SOL    HW162166   4.634  13.053   2.100
20109SOL    HW262167   4.602  13.031   2.246
20110SOL     OW62168  13.935  13.284   7.020
20110SOL    HW162169  13.993  13.277   6.943
20110SOL    HW262170  13.890  13.367   7.008
20111SOL     OW62171   2.613   0.693   0.343
20111SOL    HW162172   2.572   0.639   0.411
20111SOL    HW262173   2.650   0.767   0.391
20112SOL     OW62174  11.288   7.139  10.056
20112SOL    HW162175  11.346   7.064  10.070
20112SOL    HW262176  11.337   7.213  10.092
20113SOL     OW62177  10.145   9.224   0.148
20113SOL    HW162178  10.168   9.228   0.241
20113SOL    HW262179  10.049   9.228   0.148
20114SOL     OW62180  10.298   2.329   0.030
20114SOL    HW162181  10.285   2.348   0.123
20114SOL    HW262182  10.255   2.402  14.863
20115SOL     OW62183   0.839  14.689   4.369
20115SOL    HW162184   0.858  14.747   4.442
20115SOL    HW262185   0.915  14.697   4.311
20116SOL     OW62186   3.095   4.776  13.187
20116SOL    HW162187   3.098   4.730  13.103
20116SOL    HW262188   3.044   4.855  13.170
20117SOL     OW62189  13.136  13.664  14.437
20117SOL    HW162190  13.171  13.604  14.503
20117SOL    HW262191  13.042  13.665  14.453
20118SOL     OW62192   4.092   3.668   6.793
20118SOL    HW162193   4.126   3.756   6.800
20118SOL    HW262194   4.071   3.642   6.883
20119SOL     OW62195   0.498   9.727  14.729
20119SOL    HW162196   0.495   9.640  14.770
20119SOL    HW262197   0.510   9.787  14.803
20120SOL     OW62198   4.474   6.078   1.446
20120SOL    HW162199   4.386   6.041   1.446
20120SOL    HW262200   4.533   6.003   1.454
20121SOL     OW62201  14.352   8.338   6.499
20121SOL    HW162202  14.403   8.293   6.431
20121SOL    HW262203  14.263   8.303   6.489
20122SOL     OW62204   1.982   2.208   7.354
20122SOL    HW162205   1.978   2.163   7.438
20122SOL    HW262206   1.982   2.137   7.289
20123SOL     OW62207   1.102   2.103   2.608
20123SOL    HW162208   1.099   2.192   2.573
20123SOL    HW262209   1.021   2.095   2.659
20124SOL     OW62210   4.287   2.408   7.918
20124SOL    HW162211   4.219   2.464   7.881
20124SOL    HW262212   4.288   2.331   7.862
20125SOL     OW62213   3.670   2.511   5.364
20125SOL    HW162214   3.669   2.596   5.408
20125SOL    HW262215   3.579   2.494   5.341
20126SOL     OW62216   5.788  14.240   0.157
20126SOL    HW162217   5.819  14.327   0.181
20126SOL    HW262218   5.698  14.254   0.126
20127SOL     OW62219   6.222   8.081   6.510
20127SOL    HW162220   6.238   8.106   6.419
20127SOL    HW262221   6.281   8.138   6.561
20128SOL     OW62222   3.543   4.389   4.916
20128SOL    HW162223   3.456   4.350   4.927
20128SOL    HW262224   3.580   4.344   4.840
20129SOL     OW62225   5.978   3.922  13.317
20129SOL    HW162226   5.963   3.872  13.237
20129SOL    HW262227   6.066   3.898  13.345
20130SOL     OW62228  10.317   4.549   3.449
20130SOL    HW162229  10.278   4.466   3.421
20130SOL    HW262230  10.304   4.607   3.373
20131SOL     OW62231  12.469  11.728   1.048
20131SOL    HW162232  12.441  11.709   1.137
20131SOL    HW262233  12.539  11.665   1.030
20132SOL     OW62234   2.585   1.017  12.485
20132SOL    HW162235   2.657   1.015  12.548
20132SOL    HW262236   2.604   1.094  12.430
20133SOL     OW62237   8.841  12.163  14.438
20133SOL    HW162238   8.855  12.071  14.460
20133SOL    HW262239   8.921  12.207  14.467
20134SOL     OW62240  10.906  14.879  11.537
20134SOL    HW162241  10.918   0.083  11.493
20134SOL    HW262242  10.954   0.009  11.620
20135SOL     OW62243   4.452  10.575  13.914
20135SOL    HW162244   4.469  10.660  13.955
20135SOL    HW262245   4.382  10.537  13.966
20136SOL     OW62246   3.651   1.491  10.367
20136SOL    HW162247   3.628   1.537  10.447
20136SOL    HW262248   3.739   1.457  10.383
20137SOL     OW62249   0.511   4.629   5.653
20137SOL    HW162250   0.590   4.669   5.616
20137SOL    HW262251   0.535   4.607   5.743
20138SOL     OW62252   2.583   5.050  12.214
20138SOL    HW162253   2.615   5.136  12.242
20138SOL    HW262254   2.516   5.069  12.149
20139SOL     OW62255  13.922   8.700   4.586
20139SOL    HW162256  14.002   8.745   4.612
20139SOL    HW262257  13.851   8.759   4.613
20140SOL     OW62258  12.889  12.491  12.442
20140SOL    HW162259  12.877  12.582  12.468
20140SOL    HW262260  12.946  12.495  12.365
20141SOL     OW62261   2.137  11.677   4.346
20141SOL    HW162262   2.111  11.587   4.369
20141SOL    HW262263   2.150  11.674   4.251
20142SOL     OW62264   9.572   6.815  10.309
20142SOL    HW162265   9.494   6.777  10.268
20142SOL    HW262266   9.639   6.748  10.300
20143SOL     OW62267   7.082  12.541   4.265
20143SOL    HW162268   7.138  12.473   4.302
20143SOL    HW262269   7.143  12.604   4.227
20144SOL     OW62270  12.625   1.795  14.500
20144SOL    HW162271  12.693   1.835  14.445
20144SOL    HW262272  12.671   1.770  14.580
20145SOL     OW62273  11.383   2.151  10.039
20145SOL    HW162274  11.288   2.142  10.047
20145SOL    HW262275  11.419   2.079  10.090
20146SOL     OW62276   7.137  14.704   4.888
20146SOL    HW162277   7.185  14.696   4.805
20146SOL    HW262278   7.184  14.772   4.936
20147SOL     OW62279   3.025   7.699   4.243
20147SOL    HW162280   3.032   7.607   4.267
20147SOL    HW262281   3.111   7.721   4.206
20148SOL     OW62282  14.308   2.464  10.577
20148SOL    HW162283  14.362   2.415  10.515
20148SOL    HW262284  14.327   2.423  10.662
20149SOL     OW62285   8.999  12.476   2.689
20149SOL    HW162286   8.979  12.479   2.782
20149SOL    HW262287   8.932  12.417   2.652
20150SOL     OW62288  11.048   8.109   7.894
20150SOL    HW162289  11.069   8.142   7.981
20150SOL    HW262290  11.073   8.016   7.897
20151SOL     OW62291   2.910   9.311   9.679
20151SOL    HW162292   2.825   9.279   9.711
20151SOL    HW262293   2.960   9.330   9.758
20152SOL     OW62294  13.557  12.726  13.520
20152SOL    HW162295  13.527  12.647  13.475
20152SOL    HW262296  13.539  12.710  13.612
20153SOL     OW62297   4.266  11.480   1.002
20153SOL    HW162298   4.199  11.412   1.009
20153SOL    HW262299   4.219  11.562   1.017
20154SOL     OW62300   3.297   9.725   8.079
20154SOL    HW162301   3.315   9.809   8.120
20154SOL    HW262302   3.379   9.676   8.086
20155SOL     OW62303   2.940   8.647   5.563
20155SOL    HW162304   3.008   8.706   5.530
20155SOL    HW262305   2.877   8.641   5.491
20156SOL     OW62306   0.189   6.454   0.752
20156SOL    HW162307   0.224   6.485   0.668
20156SOL    HW262308   0.167   6.533   0.800
20157SOL     OW62309   4.140   0.082  12.457
20157SOL    HW162310   4.053   0.108  12.485
20157SOL    HW262311   4.132   0.068  12.362
20158SOL     OW62312   6.413  11.949   5.371
20158SOL    HW162313   6.479  11.936   5.440
20158SOL    HW262314   6.348  11.881   5.386
20159SOL     OW62315  12.934   2.236   5.916
20159SOL    HW162316  12.950   2.213   5.824
20159SOL    HW262317  12.952   2.330   5.921
20160SOL     OW62318   7.325   2.629   7.752
20160SOL    HW162319   7.341   2.560   7.687
20160SOL    HW262320   7.401   2.626   7.810
20161SOL     OW62321  14.342   3.684   4.888
20161SOL    HW162322  14.256   3.650   4.913
20161SOL    HW262323  14.347   3.673   4.793
20162SOL     OW62324   4.347   1.107  10.256
20162SOL    HW162325   4.380   1.160  10.184
20162SOL    HW262326   4.252   1.123  10.255
20163SOL     OW62327   0.145  10.674   8.899
20163SOL    HW162328   0.142  10.655   8.992
20163SOL    HW262329   0.079  10.616   8.860
20164SOL     OW62330  10.272   9.376  14.827
20164SOL    HW162331  10.366   9.364  14.818
20164SOL    HW262332  10.249   9.330   0.028
20165SOL     OW62333  11.166   5.636  12.064
20165SOL    HW162334  11.215   5.707  12.106
20165SOL    HW262335  11.190   5.640  11.972
20166SOL     OW62336  11.880   8.160   9.551
20166SOL    HW162337  11.861   8.194   9.638
20166SOL    HW262338  11.876   8.065   9.561
20167SOL     OW62339   6.838  13.024   2.065
20167SOL    HW162340   6.857  13.093   2.129
20167SOL    HW262341   6.887  13.049   1.987
20168SOL     OW62342   6.842   1.347  11.798
20168SOL    HW162343   6.847   1.255  11.825
20168SOL    HW262344   6.749   1.369  11.802
20169SOL     OW62345   9.800   1.690  14.331
20169SOL    HW162346   9.886   1.652  14.312
20169SOL    HW262347   9.741   1.648  14.268
20170SOL     OW62348  12.295   2.294   5.318
20170SOL    HW162349  12.200   2.295   5.325
20170SOL    HW262350  12.313   2.226   5.253
20171SOL     OW62351   4.063  14.117   4.781
20171SOL    HW162352   4.142  14.063   4.774
20171SOL    HW262353   4.081  14.176   4.854
20172SOL     OW62354   5.358   6.784  11.076
20172SOL    HW162355   5.369   6.792  10.981
20172SOL    HW262356   5.389   6.868  11.110
20173SOL     OW62357  10.335   9.624  12.179
20173SOL    HW162358  10.319   9.535  12.149
20173SOL    HW262359  10.248   9.664  12.184
20174SOL     OW62360   6.050   2.314   5.339
20174SOL    HW162361   6.052   2.323   5.435
20174SOL    HW262362   6.118   2.250   5.319
20175SOL     OW62363  14.200   5.493   2.841
20175SOL    HW162364  14.257   5.488   2.918
20175SOL    HW262365  14.116   5.524   2.875
20176SOL     OW62366   2.916  11.968   3.882
20176SOL    HW162367   2.998  12.003   3.917
20176SOL    HW262368   2.943  11.912   3.809
20177SOL     OW62369   3.153  10.403   6.747
20177SOL    HW162370   3.241  10.386   6.780
20177SOL    HW262371   3.147  10.498   6.745
20178SOL     OW62372   0.704  12.950   5.251
20178SOL    HW162373   0.664  12.959   5.337
20178SOL    HW262374   0.763  13.025   5.243
20179SOL     OW62375   9.031   2.717   2.090
20179SOL    HW162376   8.966   2.722   2.161
20179SOL    HW262377   9.110   2.754   2.128
20180SOL     OW62378   6.013  11.785   8.517
20180SOL    HW162379   5.967  11.718   8.465
20180SOL    HW262380   5.966  11.866   8.497
20181SOL     OW62381  10.466   1.783  10.362
20181SOL    HW162382  10.392   1.844  10.361
20181SOL    HW262383  10.445   1.719  10.295
20182SOL     OW62384   3.217   2.662   8.457
20182SOL    HW162385   3.196   2.731   8.395
20182SOL    HW262386   3.219   2.582   8.405
20183SOL     OW62387   3.389  14.246  12.278
20183SOL    HW162388   3.302  14.207  12.280
20183SOL    HW262389   3.373  14.340  12.273
20184SOL     OW62390  14.531  11.138  11.200
20184SOL    HW162391  14.506  11.204  11.135
20184SOL    HW262392  14.575  11.188  11.269
20185SOL     OW62393   8.044  10.589   8.314
20185SOL    HW162394   8.105  10.567   8.385
20185SOL    HW262395   8.099  10.630   8.247
20186SOL     OW62396   9.699   9.110   7.859
20186SOL    HW162397   9.641   9.051   7.811
20186SOL    HW262398   9.645   9.187   7.877
20187SOL     OW62399   4.055  11.277   3.493
20187SOL    HW162400   4.072  11.216   3.421
20187SOL    HW262401   4.136  11.328   3.499
20188SOL     OW62402   6.260  11.670   1.006
20188SOL    HW162403   6.355  11.682   0.993
20188SOL    HW262404   6.227  11.649   0.919
20189SOL     OW62405   7.867   9.951   7.318
20189SOL    HW162406   7.787   9.976   7.365
20189SOL    HW262407   7.876   9.857   7.336
20190SOL     OW62408   4.475  10.219   0.439
20190SOL    HW162409   4.549  10.277   0.455
20190SOL    HW262410   4.488  10.146   0.500
20191SOL     OW62411   5.497   9.259   5.643
20191SOL    HW162412   5.453   9.320   5.585
20191SOL    HW262413   5.590   9.276   5.630
20192SOL     OW62414   3.155   3.544   8.616
20192SOL    HW162415   3.209   3.623   8.615
20192SOL    HW262416   3.216   3.472   8.599
20193SOL     OW62417  12.537   1.077   7.868
20193SOL    HW162418  12.596   1.135   7.916
20193SOL    HW262419  12.595   1.013   7.827
20194SOL     OW62420  12.276  13.952  10.639
20194SOL    HW162421  12.262  13.941  10.734
20194SOL    HW262422  12.301  14.043  10.629
20195SOL     OW62423   0.188  14.424   5.831
20195SOL    HW162424   0.240  14.499   5.860
20195SOL    HW262425   0.160  14.382   5.913
20196SOL     OW62426  13.805   0.087   3.266
20196SOL    HW162427  13.756   0.111   3.187
20196SOL    HW262428  13.827   0.170   3.307
20197SOL     OW62429  10.990   9.825   5.733
20197SOL    HW162430  10.983   9.743   5.684
20197SOL    HW262431  10.899   9.845   5.758
20198SOL     OW62432   2.764   5.454   4.980
20198SOL    HW162433   2.847   5.424   4.943
20198SOL    HW262434   2.755   5.544   4.950
20199SOL     OW62435  11.248   1.981   5.754
20199SOL    HW162436  11.320   2.019   5.704
20199SOL    HW262437  11.268   1.888   5.758
20200SOL     OW62438   8.037   8.818   9.678
20200SOL    HW162439   8.068   8.734   9.711
20200SOL    HW262440   8.107   8.850   9.621
20201SOL     OW62441   0.101   8.577   5.088
20201SOL    HW162442   0.063   8.548   5.171
20201SOL    HW262443   0.178   8.521   5.076
20202SOL     OW62444   9.251   9.557   7.492
20202SOL    HW162445   9.199   9.555   7.572
20202SOL    HW262446   9.334   9.598   7.519
20203SOL     OW62447   4.717  13.474  11.522
20203SOL    HW162448   4.646  13.455  11.461
20203SOL    HW262449   4.733  13.390  11.565
20204SOL     OW62450  10.055  13.958   4.724
20204SOL    HW162451   9.964  13.934   4.711
20204SOL    HW262452  10.101  13.919   4.649
20205SOL     OW62453   1.027  13.108   5.932
20205SOL    HW162454   1.010  13.092   6.025
20205SOL    HW262455   1.047  13.022   5.896
20206SOL     OW62456   5.470   3.757   8.273
20206SOL    HW162457   5.453   3.718   8.188
20206SOL    HW262458   5.540   3.704   8.310
20207SOL     OW62459  13.148   2.241   6.193
20207SOL    HW162460  13.141   2.203   6.106
20207SOL    HW262461  13.193   2.324   6.180
20208SOL     OW62462  14.119   9.463   4.827
20208SOL    HW162463  14.072   9.430   4.903
20208SOL    HW262464  14.162   9.543   4.858
20209SOL     OW62465   6.863  10.203  13.917
20209SOL    HW162466   6.820  10.199  13.831
20209SOL    HW262467   6.863  10.296  13.939
20210SOL     OW62468  10.199  14.397  14.786
20210SOL    HW162469  10.241  14.480  14.762
20210SOL    HW262470  10.252  14.363  14.858
20211SOL     OW62471   6.223   0.947   4.936
20211SOL    HW162472   6.259   0.869   4.893
20211SOL    HW262473   6.292   1.013   4.926
20212SOL     OW62474   5.619   4.107  12.850
20212SOL    HW162475   5.525   4.102  12.866
20212SOL    HW262476   5.637   4.201  12.844
20213SOL     OW62477   8.164  14.304   7.411
20213SOL    HW162478   8.087  14.249   7.428
20213SOL    HW262479   8.129  14.392   7.400
20214SOL     OW62480  11.040   2.791   6.421
20214SOL    HW162481  11.103   2.755   6.483
20214SOL    HW262482  11.051   2.739   6.342
20215SOL     OW62483  14.345  11.543  14.061
20215SOL    HW162484  14.279  11.534  13.992
20215SOL    HW262485  14.422  11.499  14.026
20216SOL     OW62486   4.713  10.679   6.386
20216SOL    HW162487   4.796  10.642   6.414
20216SOL    HW262488   4.730  10.714   6.298
20217SOL     OW62489   1.985   8.755   5.780
20217SOL    HW162490   1.949   8.771   5.693
20217SOL    HW262491   2.078   8.737   5.764
20218SOL     OW62492   0.355  13.669   1.209
20218SOL    HW162493   0.303  13.621   1.274
20218SOL    HW262494   0.404  13.734   1.260
20219SOL     OW62495   7.553   0.729  13.248
20219SOL    HW162496   7.604   0.657  13.284
20219SOL    HW262497   7.497   0.688  13.182
20220SOL     OW62498  11.073   5.253  12.624
20220SOL    HW162499  11.128   5.309  12.679
20220SOL    HW262500  10.985   5.265  12.659
20221SOL     OW62501   8.589   0.838   5.370
20221SOL    HW162502   8.499   0.867   5.385
20221SOL    HW262503   8.602   0.767   5.434
20222SOL     OW62504  10.923  13.478   5.196
20222SOL    HW162505  10.966  13.419   5.257
20222SOL    HW262506  10.981  13.480   5.120
20223SOL     OW62507   8.798   6.016   0.423
20223SOL    HW162508   8.726   6.078   0.434
20223SOL    HW262509   8.869   6.069   0.387
20224SOL     OW62510   5.838   4.360   8.881
20224SOL    HW162511   5.807   4.418   8.811
20224SOL    HW262512   5.853   4.418   8.956
20225SOL     OW62513   9.565   6.159   9.403
20225SOL    HW162514   9.514   6.206   9.470
20225SOL    HW262515   9.506   6.154   9.328
20226SOL     OW62516   6.108  13.646   3.041
20226SOL    HW162517   6.028  13.683   3.004
20226SOL    HW262518   6.097  13.552   3.034
20227SOL     OW62519   9.045  10.789   1.409
20227SOL    HW162520   9.004  10.837   1.337
20227SOL    HW262521   9.063  10.856   1.475
20228SOL     OW62522   5.132  12.124   2.486
20228SOL    HW162523   5.069  12.093   2.421
20228SOL    HW262524   5.159  12.045   2.533
20229SOL     OW62525   2.925  10.909   2.744
20229SOL    HW162526   3.011  10.948   2.760
20229SOL    HW262527   2.885  10.901   2.831
20230SOL     OW62528   9.596  11.844   1.575
20230SOL    HW162529   9.658  11.803   1.636
20230SOL    HW262530   9.623  11.811   1.489
20231SOL     OW62531  11.374  11.965  11.182
20231SOL    HW162532  11.295  11.932  11.226
20231SOL    HW262533  11.396  12.045  11.229
20232SOL     OW62534   7.806   4.468   6.449
20232SOL    HW162535   7.784   4.561   6.451
20232SOL    HW262536   7.803   4.445   6.356
20233SOL     OW62537   8.510   9.274   9.902
20233SOL    HW162538   8.578   9.214   9.872
20233SOL    HW262539   8.498   9.336   9.830
20234SOL     OW62540   2.555   0.608   6.326
20234SOL    HW162541   2.626   0.665   6.298
20234SOL    HW262542   2.583   0.520   6.301
20235SOL     OW62543   3.901   1.408   6.911
20235SOL    HW162544   3.873   1.357   6.987
20235SOL    HW262545   3.975   1.460   6.944
20236SOL     OW62546   5.069  13.547   9.204
20236SOL    HW162547   5.061  13.452   9.201
20236SOL    HW262548   5.020  13.573   9.282
20237SOL     OW62549   9.958   3.627   1.748
20237SOL    HW162550   9.888   3.652   1.688
20237SOL    HW262551   9.914   3.613   1.832
20238SOL     OW62552   6.830   5.357  14.365
20238SOL    HW162553   6.759   5.402  14.410
20238SOL    HW262554   6.793   5.271  14.343
20239SOL     OW62555   7.045   3.420   6.050
20239SOL    HW162556   7.033   3.502   6.002
20239SOL    HW262557   7.131   3.429   6.091
20240SOL     OW62558   2.188   6.938   4.125
20240SOL    HW162559   2.135   7.018   4.130
20240SOL    HW262560   2.149   6.887   4.055
20241SOL     OW62561   2.984  11.232  10.004
20241SOL    HW162562   2.917  11.216  10.071
20241SOL    HW262563   2.936  11.235   9.921
20242SOL     OW62564   0.044   5.243  10.411
20242SOL    HW162565   0.043   5.153  10.442
20242SOL    HW262566  14.861   5.244  10.338
20243SOL     OW62567  10.139  12.243   5.865
20243SOL    HW162568  10.183  12.325   5.885
20243SOL    HW262569  10.056  12.248   5.913
20244SOL     OW62570  12.303   4.021   0.319
20244SOL    HW162571  12.267   3.938   0.286
20244SOL    HW262572  12.322   4.005   0.411
20245SOL     OW62573  10.661   5.136   8.965
20245SOL    HW162574  10.648   5.071   9.034
20245SOL    HW262575  10.687   5.216   9.011
20246SOL     OW62576   9.607   0.918  12.582
20246SOL    HW162577   9.620   0.843  12.640
20246SOL    HW262578   9.592   0.992  12.640
20247SOL     OW62579   3.363   1.685   4.343
20247SOL    HW162580   3.343   1.708   4.434
20247SOL    HW262581   3.411   1.602   4.349
20248SOL     OW62582   1.012   8.981   2.757
20248SOL    HW162583   0.997   9.044   2.827
20248SOL    HW262584   1.102   8.952   2.770
20249SOL     OW62585  13.089  13.254  10.402
20249SOL    HW162586  13.134  13.249  10.318
20249SOL    HW262587  13.158  13.275  10.465
20250SOL     OW62588  11.892  11.572   5.887
20250SOL    HW162589  11.852  11.652   5.923
20250SOL    HW262590  11.974  11.562   5.936
20251SOL     OW62591  13.443   4.443  12.907
20251SOL    HW162592  13.413   4.444  12.999
20251SOL    HW262593  13.432   4.533  12.878
20252SOL     OW62594   0.141   7.180  11.248
20252SOL    HW162595   0.223   7.158  11.293
20252SOL    HW262596   0.076   7.183  11.318
20253SOL     OW62597   8.493   2.771   8.940
20253SOL    HW162598   8.426   2.784   8.873
20253SOL    HW262599   8.531   2.857   8.953
20254SOL     OW62600   9.118   5.763   8.104
20254SOL    HW162601   9.099   5.682   8.056
20254SOL    HW262602   9.056   5.763   8.176
20255SOL     OW62603   8.568   2.820   1.223
20255SOL    HW162604   8.524   2.785   1.145
20255SOL    HW262605   8.505   2.882   1.259
20256SOL     OW62606   1.313  11.987   2.002
20256SOL    HW162607   1.328  11.988   2.096
20256SOL    HW262608   1.219  11.972   1.992
20257SOL     OW62609   8.774   6.362   4.569
20257SOL    HW162610   8.811   6.345   4.656
20257SOL    HW262611   8.827   6.310   4.509
20258SOL     OW62612   0.771   0.304   3.619
20258SOL    HW162613   0.824   0.375   3.655
20258SOL    HW262614   0.697   0.296   3.680
20259SOL     OW62615  10.762  13.810   9.926
20259SOL    HW162616  10.712  13.735   9.960
20259SOL    HW262617  10.712  13.840   9.851
20260SOL     OW62618  13.343   2.837   5.439
20260SOL    HW162619  13.261   2.807   5.400
20260SOL    HW262620  13.385   2.886   5.368
20261SOL     OW62621  12.992   3.906   2.830
20261SOL    HW162622  12.909   3.866   2.854
20261SOL    HW262623  13.035   3.926   2.913
20262SOL     OW62624  12.276   6.876   9.614
20262SOL    HW162625  12.238   6.955   9.653
20262SOL    HW262626  12.262   6.808   9.680
20263SOL     OW62627   3.294   8.385   5.949
20263SOL    HW162628   3.254   8.353   5.869
20263SOL    HW262629   3.308   8.479   5.934
20264SOL     OW62630  13.787   5.841   1.357
20264SOL    HW162631  13.817   5.755   1.384
20264SOL    HW262632  13.804   5.844   1.263
20265SOL     OW62633   3.914   4.615   1.384
20265SOL    HW162634   3.843   4.652   1.436
20265SOL    HW262635   3.886   4.630   1.293
20266SOL     OW62636   6.910  12.314   1.722
20266SOL    HW162637   6.851  12.382   1.755
20266SOL    HW262638   6.904  12.243   1.786
20267SOL     OW62639   4.816   1.185   8.317
20267SOL    HW162640   4.740   1.131   8.292
20267SOL    HW262641   4.874   1.124   8.363
20268SOL     OW62642   1.432   3.246   0.626
20268SOL    HW162643   1.459   3.257   0.717
20268SOL    HW262644   1.354   3.299   0.617
20269SOL     OW62645   3.398  13.174   5.279
20269SOL    HW162646   3.373  13.087   5.248
20269SOL    HW262647   3.464  13.158   5.347
20270SOL     OW62648   6.735   6.451   5.831
20270SOL    HW162649   6.737   6.395   5.908
20270SOL    HW262650   6.652   6.497   5.836
20271SOL     OW62651   4.962   3.455  12.360
20271SOL    HW162652   4.987   3.387  12.297
20271SOL    HW262653   4.904   3.410  12.421
20272SOL     OW62654   4.956   2.775   1.375
20272SOL    HW162655   4.933   2.717   1.303
20272SOL    HW262656   4.953   2.719   1.453
20273SOL     OW62657  12.210  14.249   6.732
20273SOL    HW162658  12.304  14.256   6.751
20273SOL    HW262659  12.206  14.214   6.643
20274SOL     OW62660  14.512  14.306   6.187
20274SOL    HW162661  14.508  14.254   6.267
20274SOL    HW262662  14.573  14.260   6.131
20275SOL     OW62663   4.027   3.711  10.531
20275SOL    HW162664   4.106   3.657  10.531
20275SOL    HW262665   4.042   3.775  10.600
20276SOL     OW62666  10.446  14.279   5.921
20276SOL    HW162667  10.433  14.326   6.003
20276SOL    HW262668  10.358  14.255   5.892
20277SOL     OW62669   2.009   0.750   7.413
20277SOL    HW162670   1.926   0.795   7.430
20277SOL    HW262671   1.992   0.658   7.435
20278SOL     OW62672   6.819   8.570   0.435
20278SOL    HW162673   6.904   8.529   0.447
20278SOL    HW262674   6.786   8.585   0.523
20279SOL     OW62675  11.091   4.310   4.741
20279SOL    HW162676  11.033   4.287   4.813
20279SOL    HW262677  11.033   4.317   4.665
20280SOL     OW62678  13.248   7.538   5.757
20280SOL    HW162679  13.210   7.493   5.832
20280SOL    HW262680  13.205   7.498   5.681
20281SOL     OW62681   1.360   1.497   5.194
20281SOL    HW162682   1.404   1.578   5.221
20281SOL    HW262683   1.390   1.482   5.105
20282SOL     OW62684   8.277   4.757   1.953
20282SOL    HW162685   8.324   4.818   2.011
20282SOL    HW262686   8.242   4.813   1.884
20283SOL     OW62687  12.139  12.902   0.350
20283SOL    HW162688  12.228  12.910   0.384
20283SOL    HW262689  12.151  12.897   0.255
20284SOL     OW62690  12.131  14.125   9.021
20284SOL    HW162691  12.090  14.109   9.106
20284SOL    HW262692  12.218  14.159   9.042
20285SOL     OW62693   2.181   9.508  13.064
20285SOL    HW162694   2.233   9.428  13.056
20285SOL    HW262695   2.228   9.573  13.013
20286SOL     OW62696  12.858   1.328   3.478
20286SOL    HW162697  12.868   1.414   3.521
20286SOL    HW262698  12.943   1.313   3.436
20287SOL     OW62699   4.975   3.090   6.278
20287SOL    HW162700   4.995   3.001   6.249
20287SOL    HW262701   5.015   3.146   6.211
20288SOL     OW62702  14.657  13.889   4.735
20288SOL    HW162703  14.711  13.962   4.767
20288SOL    HW262704  14.685  13.877   4.645
20289SOL     OW62705  10.324   7.627  10.553
20289SOL    HW162706  10.403   7.595  10.596
20289SOL    HW262707  10.298   7.555  10.496
20290SOL     OW62708  12.530  13.716   5.691
20290SOL    HW162709  12.618  13.688   5.668
20290SOL    HW262710  12.497  13.646   5.748
20291SOL     OW62711   6.303   0.539   0.014
20291SOL    HW162712   6.311   0.499  14.808
20291SOL    HW262713   6.366   0.611   0.013
20292SOL     OW62714  14.746   2.545   4.854
20292SOL    HW162715  14.814   2.506   4.798
20292SOL    HW262716  14.765   2.639   4.852
20293SOL     OW62717  14.210   0.216  10.613
20293SOL    HW162718  14.121   0.245  10.590
20293SOL    HW262719  14.265   0.292  10.596
20294SOL     OW62720  12.942  12.517  14.213
20294SOL    HW162721  13.000  12.481  14.280
20294SOL    HW262722  12.926  12.443  14.154
20295SOL     OW62723  10.583   4.027   3.887
20295SOL    HW162724  10.530   4.103   3.859
20295SOL    HW262725  10.667   4.065   3.912
20296SOL     OW62726   1.480   6.560   5.993
20296SOL    HW162727   1.491   6.555   6.088
20296SOL    HW262728   1.443   6.475   5.968
20297SOL     OW62729   9.024  14.708   6.712
20297SOL    HW162730   9.024  14.735   6.621
20297SOL    HW262731   8.963  14.768   6.755
20298SOL     OW62732  13.511   7.185   6.131
20298SOL    HW162733  13.603   7.205   6.114
20298SOL    HW262734  13.491   7.113   6.071
20299SOL     OW62735   1.474  13.167  12.027
20299SOL    HW162736   1.397  13.209  11.991
20299SOL    HW262737   1.477  13.080  11.985
20300SOL     OW62738   3.299  11.032  11.029
20300SOL    HW162739   3.297  11.048  11.123
20300SOL    HW262740   3.383  11.066  11.000
20301SOL     OW62741  11.047   2.482   6.132
20301SOL    HW162742  11.096   2.448   6.058
20301SOL    HW262743  11.087   2.442   6.209
20302SOL     OW62744   6.669   2.956  11.554
20302SOL    HW162745   6.633   3.002  11.630
20302SOL    HW262746   6.678   3.023  11.487
20303SOL     OW62747   2.754  10.618   2.537
20303SOL    HW162748   2.814  10.598   2.609
20303SOL    HW262749   2.791  10.697   2.497
20304SOL     OW62750   9.373   3.119   1.018
20304SOL    HW162751   9.400   3.042   1.067
20304SOL    HW262752   9.424   3.116   0.937
20305SOL     OW62753   4.849   5.458  14.308
20305SOL    HW162754   4.875   5.545  14.279
20305SOL    HW262755   4.906   5.398  14.259
20306SOL     OW62756   7.671  13.757  10.508
20306SOL    HW162757   7.742  13.715  10.459
20306SOL    HW262758   7.607  13.782  10.442
20307SOL     OW62759   6.877  12.401  11.766
20307SOL    HW162760   6.923  12.473  11.724
20307SOL    HW262761   6.923  12.322  11.737
20308SOL     OW62762   0.385   7.226   3.975
20308SOL    HW162763   0.461   7.219   4.032
20308SOL    HW262764   0.317   7.173   4.018
20309SOL     OW62765   8.852  14.203   4.750
20309SOL    HW162766   8.835  14.296   4.766
20309SOL    HW262767   8.931  14.202   4.696
20310SOL     OW62768   2.830  14.552   0.485
20310SOL    HW162769   2.847  14.564   0.579
20310SOL    HW262770   2.744  14.591   0.471
20311SOL     OW62771   7.255   7.055   3.939
20311SOL    HW162772   7.275   6.962   3.929
20311SOL    HW262773   7.339   7.099   3.932
20312SOL     OW62774   9.277   6.313   8.366
20312SOL    HW162775   9.325   6.290   8.287
20312SOL    HW262776   9.341   6.361   8.420
20313SOL     OW62777   6.814   5.093   8.345
20313SOL    HW162778   6.803   5.124   8.435
20313SOL    HW262779   6.752   5.022   8.336
20314SOL     OW62780   7.843  12.792  13.512
20314SOL    HW162781   7.855  12.745  13.430
20314SOL    HW262782   7.799  12.729  13.570
20315SOL     OW62783  13.224   9.537  13.290
20315SOL    HW162784  13.270   9.621  13.295
20315SOL    HW262785  13.271   9.488  13.223
20316SOL     OW62786   5.298   0.213   3.299
20316SOL    HW162787   5.368   0.222   3.234
20316SOL    HW262788   5.295   0.297   3.344
20317SOL     OW62789   7.655   3.780  10.983
20317SOL    HW162790   7.727   3.727  11.017
20317SOL    HW262791   7.687   3.870  10.989
20318SOL     OW62792  10.512   5.988   9.637
20318SOL    HW162793  10.585   6.037   9.599
20318SOL    HW262794  10.436   6.015   9.586
20319SOL     OW62795  13.196   6.643   3.848
20319SOL    HW162796  13.284   6.671   3.823
20319SOL    HW262797  13.178   6.689   3.930
20320SOL     OW62798  10.812   1.891   3.689
20320SOL    HW162799  10.730   1.842   3.692
20320SOL    HW262800  10.787   1.981   3.711
20321SOL     OW62801   2.643   0.191   2.663
20321SOL    HW162802   2.591   0.232   2.733
20321SOL    HW262803   2.602   0.106   2.650
20322SOL     OW62804   4.606  10.569  10.881
20322SOL    HW162805   4.689  10.526  10.902
20322SOL    HW262806   4.554  10.562  10.962
20323SOL     OW62807   0.434   0.082   4.558
20323SOL    HW162808   0.483   0.005   4.528
20323SOL    HW262809   0.405   0.059   4.647
20324SOL     OW62810   3.940   3.954   4.781
20324SOL    HW162811   3.880   3.988   4.847
20324SOL    HW262812   3.920   3.860   4.777
20325SOL     OW62813   5.673   5.491  10.948
20325SOL    HW162814   5.660   5.538  10.865
20325SOL    HW262815   5.595   5.436  10.957
20326SOL     OW62816   1.692   5.834   9.939
20326SOL    HW162817   1.677   5.803  10.028
20326SOL    HW262818   1.693   5.754   9.886
20327SOL     OW62819   9.437  11.209   7.139
20327SOL    HW162820   9.517  11.234   7.093
20327SOL    HW262821   9.427  11.276   7.208
20328SOL     OW62822   8.822  11.798  11.607
20328SOL    HW162823   8.748  11.825  11.661
20328SOL    HW262824   8.802  11.833  11.520
20329SOL     OW62825  14.539   6.574   9.174
20329SOL    HW162826  14.544   6.531   9.089
20329SOL    HW262827  14.613   6.635   9.175
20330SOL     OW62828   1.009   0.192   0.821
20330SOL    HW162829   1.032   0.111   0.776
20330SOL    HW262830   1.035   0.262   0.761
20331SOL     OW62831   9.404   8.724   1.591
20331SOL    HW162832   9.356   8.647   1.563
20331SOL    HW262833   9.496   8.696   1.594
20332SOL     OW62834   9.105   5.085  13.040
20332SOL    HW162835   9.196   5.056  13.031
20332SOL    HW262836   9.099   5.115  13.131
20333SOL     OW62837   8.724  12.045   3.320
20333SOL    HW162838   8.667  12.003   3.256
20333SOL    HW262839   8.741  11.978   3.386
20334SOL     OW62840  14.496  11.432   6.198
20334SOL    HW162841  14.480  11.480   6.117
20334SOL    HW262842  14.592  11.431   6.208
20335SOL     OW62843  14.370   7.051   6.641
20335SOL    HW162844  14.308   7.123   6.657
20335SOL    HW262845  14.442   7.068   6.702
20336SOL     OW62846  13.667   4.039  13.281
20336SOL    HW162847  13.648   3.957  13.327
20336SOL    HW262848  13.695   4.011  13.194
20337SOL     OW62849   6.644   0.825   9.890
20337SOL    HW162850   6.549   0.833   9.890
20337SOL    HW262851   6.667   0.815   9.797
20338SOL     OW62852   0.023  13.356   5.204
20338SOL    HW162853   0.065  13.279   5.241
20338SOL    HW262854  14.853  13.324   5.128
20339SOL     OW62855   7.487   6.339   0.544
20339SOL    HW162856   7.480   6.277   0.472
20339SOL    HW262857   7.525   6.418   0.505
20340SOL     OW62858  10.968   5.127   0.141
20340SOL    HW162859  10.892   5.179   0.115
20340SOL    HW262860  10.961   5.047   0.089
20341SOL     OW62861   3.794   1.550   5.311
20341SOL    HW162862   3.864   1.613   5.324
20341SOL    HW262863   3.839   1.468   5.290
20342SOL     OW62864   1.627  10.093  13.527
20342SOL    HW162865   1.546  10.049  13.551
20342SOL    HW262866   1.690  10.065  13.594
20343SOL     OW62867  12.597   2.099  10.304
20343SOL    HW162868  12.528   2.138  10.358
20343SOL    HW262869  12.614   2.014  10.344
20344SOL     OW62870  13.029   2.901   1.997
20344SOL    HW162871  12.991   2.837   2.057
20344SOL    HW262872  13.122   2.878   1.993
20345SOL     OW62873   9.611  13.756   5.209
20345SOL    HW162874   9.610  13.823   5.141
20345SOL    HW262875   9.677  13.786   5.271
20346SOL     OW62876  10.596   4.570  12.561
20346SOL    HW162877  10.672   4.601  12.512
20346SOL    HW262878  10.630   4.500  12.616
20347SOL     OW62879  13.247   0.166   8.749
20347SOL    HW162880  13.155   0.141   8.739
20347SOL    HW262881  13.251   0.211   8.833
20348SOL     OW62882   3.604  13.475   8.876
20348SOL    HW162883   3.685  13.473   8.824
20348SOL    HW262884   3.534  13.472   8.810
20349SOL     OW62885   4.693   2.342   9.472
20349SOL    HW162886   4.761   2.360   9.536
20349SOL    HW262887   4.739   2.338   9.388
20350SOL     OW62888  12.502   0.878   8.159
20350SOL    HW162889  12.421   0.914   8.124
20350SOL    HW262890  12.500   0.899   8.253
20351SOL     OW62891   6.918   0.849   3.080
20351SOL    HW162892   6.928   0.770   3.026
20351SOL    HW262893   6.879   0.914   3.021
20352SOL     OW62894   6.270  10.830   3.193
20352SOL    HW162895   6.215  10.801   3.121
20352SOL    HW262896   6.235  10.916   3.216
20353SOL     OW62897   1.886   6.839   7.514
20353SOL    HW162898   1.957   6.901   7.497
20353SOL    HW262899   1.806   6.889   7.499
20354SOL     OW62900   5.251   7.738  11.442
20354SOL    HW162901   5.284   7.819  11.402
20354SOL    HW262902   5.270   7.748  11.535
20355SOL     OW62903   2.135   6.780   8.211
20355SOL    HW162904   2.141   6.838   8.135
20355SOL    HW262905   2.148   6.692   8.176
20356SOL     OW62906   0.446   0.982   0.636
20356SOL    HW162907   0.389   0.973   0.560
20356SOL    HW262908   0.418   1.063   0.678
20357SOL     OW62909  10.392   5.550   4.441
20357SOL    HW162910  10.347   5.481   4.490
20357SOL    HW262911  10.358   5.542   4.352
20358SOL     OW62912   8.778   3.874   1.236
20358SOL    HW162913   8.754   3.823   1.313
20358SOL    HW262914   8.696   3.912   1.205
20359SOL     OW62915   2.122   2.733   7.425
20359SOL    HW162916   2.064   2.682   7.369
20359SOL    HW262917   2.106   2.700   7.514
20360SOL     OW62918   8.099  12.811   5.244
20360SOL    HW162919   8.015  12.822   5.199
20360SOL    HW262920   8.082  12.841   5.333
20361SOL     OW62921   2.304   1.934   0.797
20361SOL    HW162922   2.355   1.853   0.799
20361SOL    HW262923   2.349   1.989   0.732
20362SOL     OW62924  13.569   0.216  13.156
20362SOL    HW162925  13.577   0.279  13.227
20362SOL    HW262926  13.613   0.137  13.189
20363SOL     OW62927   8.622   8.646   0.433
20363SOL    HW162928   8.555   8.713   0.441
20363SOL    HW262929   8.583   8.580   0.375
20364SOL     OW62930   5.373   3.395   4.610
20364SOL    HW162931   5.385   3.326   4.545
20364SOL    HW262932   5.287   3.378   4.647
20365SOL     OW62933   9.817   6.866   0.994
20365SOL    HW162934   9.726   6.856   0.964
20365SOL    HW262935   9.869   6.860   0.914
20366SOL     OW62936  10.458   8.018   4.456
20366SOL    HW162937  10.366   8.003   4.437
20366SOL    HW262938  10.458   8.081   4.528
20367SOL     OW62939  11.279   2.769   8.343
20367SOL    HW162940  11.356   2.718   8.321
20367SOL    HW262941  11.271   2.763   8.438
20368SOL     OW62942  13.696   9.724   4.705
20368SOL    HW162943  13.724   9.712   4.795
20368SOL    HW262944  13.612   9.771   4.711
20369SOL     OW62945   0.029  11.103   2.042
20369SOL    HW162946  14.876  11.014   2.028
20369SOL    HW262947   0.074  11.099   2.126
20370SOL     OW62948   9.192  13.095  12.774
20370SOL    HW162949   9.133  13.030  12.736
20370SOL    HW262950   9.135  13.150  12.828
20371SOL     OW62951   9.792   1.554   4.638
20371SOL    HW162952   9.772   1.461   4.644
20371SOL    HW262953   9.774   1.588   4.726
20372SOL     OW62954   4.825   5.020  10.589
20372SOL    HW162955   4.804   5.096  10.643
20372SOL    HW262956   4.742   4.995  10.549
20373SOL     OW62957   6.640  12.375   4.118
20373SOL    HW162958   6.700  12.315   4.162
20373SOL    HW262959   6.563  12.378   4.176
20374SOL     OW62960   1.100  13.423   1.871
20374SOL    HW162961   1.105  13.463   1.958
20374SOL    HW262962   1.133  13.491   1.812
20375SOL     OW62963   4.314   6.798   7.205
20375SOL    HW162964   4.403   6.777   7.230
20375SOL    HW262965   4.266   6.805   7.288
20376SOL     OW62966   3.416   8.311   4.537
20376SOL    HW162967   3.332   8.271   4.557
20376SOL    HW262968   3.480   8.258   4.585
20377SOL     OW62969  12.074   3.388  13.782
20377SOL    HW162970  12.099   3.480  13.783
20377SOL    HW262971  12.045   3.371  13.872
20378SOL     OW62972   0.673  13.460   4.575
20378SOL    HW162973   0.756  13.507   4.585
20378SOL    HW262974   0.690  13.373   4.611
20379SOL     OW62975   1.110  10.706   2.617
20379SOL    HW162976   1.171  10.650   2.569
20379SOL    HW262977   1.107  10.670   2.705
20380SOL     OW62978  14.485  11.136   5.724
20380SOL    HW162979  14.551  11.203   5.708
20380SOL    HW262980  14.526  11.054   5.695
20381SOL     OW62981   9.824   0.564   0.113
20381SOL    HW162982   9.840   0.593   0.203
20381SOL    HW262983   9.909   0.574   0.070
20382SOL     OW62984   3.262   8.404   0.653
20382SOL    HW162985   3.193   8.392   0.718
20382SOL    HW262986   3.283   8.316   0.623
20383SOL     OW62987   7.891   2.573  13.016
20383SOL    HW162988   7.887   2.560  13.110
20383SOL    HW262989   7.799   2.574  12.988
20384SOL     OW62990   2.373  14.067   3.220
20384SOL    HW162991   2.461  14.074   3.256
20384SOL    HW262992   2.316  14.052   3.296
20385SOL     OW62993  10.056  12.702   9.141
20385SOL    HW162994  10.094  12.747   9.216
20385SOL    HW262995  10.112  12.625   9.127
20386SOL     OW62996  11.900   2.438  11.921
20386SOL    HW162997  11.867   2.445  11.831
20386SOL    HW262998  11.835   2.485  11.974
20387SOL     OW62999  11.405   8.730   9.464
20387SOL    HW163000  11.322   8.741   9.417
20387SOL    HW263001  11.462   8.685   9.401
20388SOL     OW63002   0.348   4.285   8.408
20388SOL    HW163003   0.409   4.350   8.443
20388SOL    HW263004   0.262   4.326   8.419
20389SOL     OW63005   7.760   8.866  12.286
20389SOL    HW163006   7.676   8.829  12.313
20389SOL    HW263007   7.777   8.828  12.200
20390SOL     OW63008   4.190   6.787   8.062
20390SOL    HW163009   4.186   6.883   8.061
20390SOL    HW263010   4.116   6.760   8.115
20391SOL     OW63011   9.395  13.669  13.276
20391SOL    HW163012   9.321  13.692  13.219
20391SOL    HW263013   9.470  13.664  13.216
20392SOL     OW63014   4.333   7.387   8.025
20392SOL    HW163015   4.296   7.437   8.097
20392SOL    HW263016   4.269   7.318   8.007
20393SOL     OW63017   8.319   8.677  12.054
20393SOL    HW163018   8.288   8.746  12.113
20393SOL    HW263019   8.274   8.694  11.971
20394SOL     OW63020   3.301   0.601   9.787
20394SOL    HW163021   3.300   0.599   9.691
20394SOL    HW263022   3.268   0.688   9.810
20395SOL     OW63023   5.362  13.900   8.124
20395SOL    HW163024   5.365  13.840   8.049
20395SOL    HW263025   5.389  13.846   8.198
20396SOL     OW63026   1.519   9.941   2.439
20396SOL    HW163027   1.469   9.902   2.367
20396SOL    HW263028   1.592   9.880   2.452
20397SOL     OW63029   6.312   7.297  13.569
20397SOL    HW163030   6.318   7.345  13.486
20397SOL    HW263031   6.397   7.311  13.611
20398SOL     OW63032  11.037  11.949   9.202
20398SOL    HW163033  10.983  12.024   9.175
20398SOL    HW263034  10.998  11.921   9.285
20399SOL     OW63035   9.905   8.855   3.175
20399SOL    HW163036   9.941   8.824   3.093
20399SOL    HW263037   9.956   8.934   3.195
20400SOL     OW63038   6.884   9.380   1.750
20400SOL    HW163039   6.855   9.389   1.841
20400SOL    HW263040   6.804   9.365   1.700
20401SOL     OW63041   8.568   1.042  13.445
20401SOL    HW163042   8.589   1.111  13.508
20401SOL    HW263043   8.648   1.034  13.392
20402SOL     OW63044   2.820   8.746  14.752
20402SOL    HW163045   2.752   8.780  14.810
20402SOL    HW263046   2.902   8.779  14.789
20403SOL     OW63047   9.450   8.818   5.624
20403SOL    HW163048   9.424   8.740   5.574
20403SOL    HW263049   9.451   8.888   5.559
20404SOL     OW63050  12.862   7.122   3.268
20404SOL    HW163051  12.846   7.110   3.362
20404SOL    HW263052  12.800   7.190   3.241
20405SOL     OW63053  12.511   5.885   8.066
20405SOL    HW163054  12.428   5.867   8.110
20405SOL    HW263055  12.520   5.980   8.069
20406SOL     OW63056  13.263  12.264  13.334
20406SOL    HW163057  13.279  12.170  13.343
20406SOL    HW263058  13.221  12.273  13.249
20407SOL     OW63059   7.708  12.099   9.594
20407SOL    HW163060   7.704  12.004   9.582
20407SOL    HW263061   7.707  12.134   9.505
20408SOL     OW63062   9.714  13.802  11.008
20408SOL    HW163063   9.755  13.751  11.078
20408SOL    HW263064   9.626  13.820  11.039
20409SOL     OW63065  12.096   5.006  13.248
20409SOL    HW163066  12.058   5.055  13.175
20409SOL    HW263067  12.188   5.033  13.249
20410SOL     OW63068   6.262  11.694   6.854
20410SOL    HW163069   6.185  11.637   6.842
20410SOL    HW263070   6.336  11.633   6.858
20411SOL     OW63071  12.398   2.181   8.326
20411SOL    HW163072  12.445   2.178   8.410
20411SOL    HW263073  12.338   2.107   8.330
20412SOL     OW63074   4.300  12.999  12.232
20412SOL    HW163075   4.298  12.959  12.319
20412SOL    HW263076   4.321  13.091  12.249
20413SOL     OW63077   3.959   4.922   6.684
20413SOL    HW163078   3.997   4.835   6.689
20413SOL    HW263079   3.970   4.959   6.772
20414SOL     OW63080  12.231   2.504   3.327
20414SOL    HW163081  12.291   2.579   3.321
20414SOL    HW263082  12.287   2.432   3.355
20415SOL     OW63083  11.747   6.621   3.447
20415SOL    HW163084  11.652   6.628   3.457
20415SOL    HW263085  11.763   6.638   3.354
20416SOL     OW63086   8.820  10.705   5.391
20416SOL    HW163087   8.842  10.618   5.425
20416SOL    HW263088   8.724  10.706   5.386
20417SOL     OW63089  11.803   9.976  14.643
20417SOL    HW163090  11.725   9.954  14.694
20417SOL    HW263091  11.875   9.969  14.706
20418SOL     OW63092   2.409   1.299   6.687
20418SOL    HW163093   2.450   1.376   6.726
20418SOL    HW263094   2.482   1.246   6.655
20419SOL     OW63095   1.712   2.090   5.481
20419SOL    HW163096   1.785   2.028   5.480
20419SOL    HW263097   1.752   2.174   5.456
20420SOL     OW63098   6.841   4.935   2.654
20420SOL    HW163099   6.921   4.986   2.670
20420SOL    HW263100   6.778   4.969   2.717
20421SOL     OW63101  10.624  10.234   0.201
20421SOL    HW163102  10.600  10.161   0.144
20421SOL    HW263103  10.572  10.221   0.281
20422SOL     OW63104  14.072   3.581   4.208
20422SOL    HW163105  14.059   3.558   4.300
20422SOL    HW263106  13.998   3.541   4.162
20423SOL     OW63107  11.342   5.194   2.579
20423SOL    HW163108  11.417   5.173   2.636
20423SOL    HW263109  11.302   5.110   2.560
20424SOL     OW63110   4.592   9.132   2.463
20424SOL    HW163111   4.670   9.081   2.484
20424SOL    HW263112   4.538   9.073   2.410
20425SOL     OW63113   9.916   8.925   2.884
20425SOL    HW163114   9.839   8.876   2.855
20425SOL    HW263115   9.985   8.898   2.824
20426SOL     OW63116   4.432  14.283   6.794
20426SOL    HW163117   4.454  14.222   6.724
20426SOL    HW263118   4.340  14.306   6.778
20427SOL     OW63119   3.785   8.462   6.727
20427SOL    HW163120   3.833   8.442   6.807
20427SOL    HW263121   3.738   8.543   6.747
20428SOL     OW63122  10.961  14.255  13.016
20428SOL    HW163123  11.009  14.338  13.011
20428SOL    HW263124  10.887  14.267  12.957
20429SOL     OW63125  11.891   5.084   3.825
20429SOL    HW163126  11.930   5.012   3.774
20429SOL    HW263127  11.813   5.045   3.864
20430SOL     OW63128  12.652  12.164   3.975
20430SOL    HW163129  12.736  12.210   3.976
20430SOL    HW263130  12.592  12.226   3.933
20431SOL     OW63131   0.875   4.517   5.115
20431SOL    HW163132   0.958   4.486   5.150
20431SOL    HW263133   0.894   4.605   5.083
20432SOL     OW63134  13.701  10.298   6.823
20432SOL    HW163135  13.774  10.270   6.768
20432SOL    HW263136  13.743  10.350   6.893
20433SOL     OW63137   9.776   2.778   0.064
20433SOL    HW163138   9.791   2.686   0.042
20433SOL    HW263139   9.681   2.786   0.072
20434SOL     OW63140  12.198   3.107   1.546
20434SOL    HW163141  12.109   3.142   1.548
20434SOL    HW263142  12.191   3.026   1.495
20435SOL     OW63143   6.708  10.864   2.133
20435SOL    HW163144   6.804  10.858   2.137
20435SOL    HW263145   6.684  10.915   2.211
20436SOL     OW63146  14.486  12.648   8.891
20436SOL    HW163147  14.549  12.720   8.892
20436SOL    HW263148  14.436  12.660   8.972
20437SOL     OW63149   5.468  11.321  12.080
20437SOL    HW163150   5.561  11.324  12.103
20437SOL    HW263151   5.466  11.277  11.995
20438SOL     OW63152  10.573  10.608   4.414
20438SOL    HW163153  10.491  10.626   4.461
20438SOL    HW263154  10.564  10.654   4.331
20439SOL     OW63155   0.430  12.502   7.833
20439SOL    HW163156   0.515  12.460   7.822
20439SOL    HW263157   0.435  12.580   7.779
20440SOL     OW63158  11.867  12.012  13.481
20440SOL    HW163159  11.818  11.962  13.416
20440SOL    HW263160  11.922  12.070  13.429
20441SOL     OW63161  13.844  13.170   4.519
20441SOL    HW163162  13.763  13.146   4.473
20441SOL    HW263163  13.822  13.252   4.563
20442SOL     OW63164   1.394   7.646   3.315
20442SOL    HW163165   1.458   7.644   3.386
20442SOL    HW263166   1.445   7.659   3.236
20443SOL     OW63167  13.971   8.863  10.260
20443SOL    HW163168  13.878   8.856  10.237
20443SOL    HW263169  14.017   8.847  10.177
20444SOL     OW63170  13.679   6.044  14.428
20444SOL    HW163171  13.585   6.060  14.420
20444SOL    HW263172  13.689   6.001  14.513
20445SOL     OW63173   6.208   2.811   6.361
20445SOL    HW163174   6.219   2.873   6.433
20445SOL    HW263175   6.284   2.753   6.367
20446SOL     OW63176   4.725   0.900  10.589
20446SOL    HW163177   4.690   0.989  10.586
20446SOL    HW263178   4.731   0.874  10.497
20447SOL     OW63179   2.759   6.439   3.231
20447SOL    HW163180   2.688   6.492   3.268
20447SOL    HW263181   2.715   6.378   3.172
20448SOL     OW63182   8.156   0.922   9.549
20448SOL    HW163183   8.112   0.868   9.614
20448SOL    HW263184   8.147   0.874   9.466
20449SOL     OW63185  14.753   7.382  14.310
20449SOL    HW163186  14.748   7.312  14.244
20449SOL    HW263187  14.667   7.425  14.306
20450SOL     OW63188  12.689   0.373  11.473
20450SOL    HW163189  12.752   0.434  11.436
20450SOL    HW263190  12.725   0.287  11.455
20451SOL     OW63191   5.294   1.435  12.653
20451SOL    HW163192   5.336   1.495  12.591
20451SOL    HW263193   5.200   1.444  12.634
20452SOL     OW63194   3.681   0.409  14.594
20452SOL    HW163195   3.764   0.380  14.632
20452SOL    HW263196   3.698   0.497  14.562
20453SOL     OW63197   3.183   4.593  10.817
20453SOL    HW163198   3.129   4.526  10.775
20453SOL    HW263199   3.184   4.665  10.755
20454SOL     OW63200   6.424   0.290   1.609
20454SOL    HW163201   6.494   0.291   1.544
20454SOL    HW263202   6.441   0.367   1.663
20455SOL     OW63203  11.379   2.278   8.881
20455SOL    HW163204  11.309   2.260   8.944
20455SOL    HW263205  11.429   2.350   8.920
20456SOL     OW63206  12.567   5.719  10.691
20456SOL    HW163207  12.494   5.668  10.726
20456SOL    HW263208  12.645   5.668  10.713
20457SOL     OW63209   4.639  13.593  12.384
20457SOL    HW163210   4.635  13.533  12.458
20457SOL    HW263211   4.729  13.588  12.353
20458SOL     OW63212   0.779  11.297   7.591
20458SOL    HW163213   0.756  11.333   7.676
20458SOL    HW263214   0.804  11.373   7.538
20459SOL     OW63215   7.807   3.960   5.756
20459SOL    HW163216   7.878   4.016   5.724
20459SOL    HW263217   7.821   3.876   5.713
20460SOL     OW63218   8.861   5.138  14.630
20460SOL    HW163219   8.787   5.198  14.639
20460SOL    HW263220   8.844   5.069  14.694
20461SOL     OW63221   2.448  10.183   9.222
20461SOL    HW163222   2.511  10.182   9.150
20461SOL    HW263223   2.480  10.116   9.282
20462SOL     OW63224   9.310   9.662  10.158
20462SOL    HW163225   9.222   9.676  10.193
20462SOL    HW263226   9.327   9.569  10.171
20463SOL     OW63227   0.633   3.947   5.864
20463SOL    HW163228   0.569   3.999   5.815
20463SOL    HW263229   0.595   3.859   5.865
20464SOL     OW63230   2.684   0.999   6.756
20464SOL    HW163231   2.645   1.052   6.687
20464SOL    HW263232   2.733   1.061   6.810
20465SOL     OW63233   5.317   2.537  11.658
20465SOL    HW163234   5.343   2.515  11.569
20465SOL    HW263235   5.395   2.522  11.711
20466SOL     OW63236   8.761  11.824  10.151
20466SOL    HW163237   8.850  11.836  10.185
20466SOL    HW263238   8.707  11.812  10.230
20467SOL     OW63239   2.675   2.194  11.729
20467SOL    HW163240   2.639   2.147  11.655
20467SOL    HW263241   2.766   2.210  11.706
20468SOL     OW63242  13.243   2.642   5.226
20468SOL    HW163243  13.227   2.552   5.196
20468SOL    HW263244  13.155   2.679   5.237
20469SOL     OW63245   6.314   6.898   6.136
20469SOL    HW163246   6.359   6.963   6.191
20469SOL    HW263247   6.367   6.819   6.144
20470SOL     OW63248  10.132   0.392   3.108
20470SOL    HW163249  10.148   0.477   3.067
20470SOL    HW263250  10.053   0.405   3.161
20471SOL     OW63251   9.671   5.528  10.597
20471SOL    HW163252   9.691   5.607  10.545
20471SOL    HW263253   9.582   5.504  10.572
20472SOL     OW63254   8.214   3.357  14.296
20472SOL    HW163255   8.266   3.426  14.255
20472SOL    HW263256   8.204   3.290  14.228
20473SOL     OW63257   1.119   5.420  14.696
20473SOL    HW163258   1.032   5.455  14.714
20473SOL    HW263259   1.135   5.357  14.766
20474SOL     OW63260  10.810   9.156   5.829
20474SOL    HW163261  10.818   9.251   5.831
20474SOL    HW263262  10.832   9.132   5.739
20475SOL     OW63263  13.486   9.160   3.128
20475SOL    HW163264  13.506   9.200   3.212
20475SOL    HW263265  13.569   9.122   3.099
20476SOL     OW63266   9.510   1.981   4.812
20476SOL    HW163267   9.567   2.005   4.739
20476SOL    HW263268   9.484   1.891   4.793
20477SOL     OW63269  10.114  14.553   4.891
20477SOL    HW163270  10.040  14.514   4.938
20477SOL    HW263271  10.098  14.531   4.799
20478SOL     OW63272   3.234   4.857   0.663
20478SOL    HW163273   3.269   4.866   0.752
20478SOL    HW263274   3.158   4.914   0.661
20479SOL     OW63275   5.366   4.686   1.390
20479SOL    HW163276   5.377   4.663   1.482
20479SOL    HW263277   5.303   4.622   1.356
20480SOL     OW63278  10.197  14.779  13.128
20480SOL    HW163279  10.154  14.797  13.212
20480SOL    HW263280  10.148  14.832  13.065
20481SOL     OW63281   8.365   8.768  11.637
20481SOL    HW163282   8.366   8.715  11.558
20481SOL    HW263283   8.374   8.858  11.605
20482SOL     OW63284   2.170  11.512  12.592
20482SOL    HW163285   2.141  11.587  12.541
20482SOL    HW263286   2.264  11.525  12.603
20483SOL     OW63287   7.583   6.341   1.889
20483SOL    HW163288   7.498   6.313   1.921
20483SOL    HW263289   7.646   6.298   1.947
20484SOL     OW63290   7.477   3.194   8.160
20484SOL    HW163291   7.533   3.223   8.087
20484SOL    HW263292   7.391   3.181   8.120
20485SOL     OW63293  10.997   4.745  12.048
20485SOL    HW163294  10.913   4.702  12.060
20485SOL    HW263295  11.062   4.674  12.050
20486SOL     OW63296   4.702  10.754   4.660
20486SOL    HW163297   4.748  10.822   4.708
20486SOL    HW263298   4.618  10.794   4.637
20487SOL     OW63299   1.194   8.987   8.323
20487SOL    HW163300   1.281   8.997   8.362
20487SOL    HW263301   1.175   8.894   8.328
20488SOL     OW63302  10.646   3.965  13.874
20488SOL    HW163303  10.676   3.875  13.883
20488SOL    HW263304  10.719   4.018  13.906
20489SOL     OW63305   1.674   9.036  11.056
20489SOL    HW163306   1.628   9.117  11.078
20489SOL    HW263307   1.766   9.063  11.048
20490SOL     OW63308  14.276  11.032   5.976
20490SOL    HW163309  14.269  11.034   5.881
20490SOL    HW263310  14.193  11.070   6.007
20491SOL     OW63311   0.132   0.748  12.126
20491SOL    HW163312   0.060   0.725  12.068
20491SOL    HW263313   0.090   0.767  12.210
20492SOL     OW63314   7.833   9.374  11.550
20492SOL    HW163315   7.871   9.345  11.633
20492SOL    HW263316   7.856   9.467  11.544
20493SOL     OW63317   2.448   7.477   3.444
20493SOL    HW163318   2.358   7.508   3.453
20493SOL    HW263319   2.447   7.424   3.364
20494SOL     OW63320   3.737   6.068   2.758
20494SOL    HW163321   3.653   6.112   2.774
20494SOL    HW263322   3.790   6.089   2.835
20495SOL     OW63323  11.643  14.484   7.485
20495SOL    HW163324  11.553  14.471   7.455
20495SOL    HW263325  11.678  14.395   7.493
20496SOL     OW63326   1.633   8.969   5.407
20496SOL    HW163327   1.683   8.965   5.325
20496SOL    HW263328   1.548   8.931   5.385
20497SOL     OW63329   7.744   3.725  12.002
20497SOL    HW163330   7.825   3.774  11.986
20497SOL    HW263331   7.767   3.663  12.071
20498SOL     OW63332   4.120   5.823   1.861
20498SOL    HW163333   4.119   5.751   1.925
20498SOL    HW263334   4.134   5.780   1.777
20499SOL     OW63335   4.365   5.946   5.361
20499SOL    HW163336   4.342   6.037   5.339
20499SOL    HW263337   4.412   5.953   5.444
20500SOL     OW63338   0.144   7.618   0.076
20500SOL    HW163339   0.239   7.608   0.069
20500SOL    HW263340   0.110   7.583  14.873
20501SOL     OW63341   2.995  10.460   4.012
20501SOL    HW163342   2.966  10.392   4.073
20501SOL    HW263343   2.945  10.537   4.037
20502SOL     OW63344  13.936  12.243   7.069
20502SOL    HW163345  14.005  12.230   7.134
20502SOL    HW263346  13.859  12.265   7.121
20503SOL     OW63347   7.699   7.249  13.877
20503SOL    HW163348   7.659   7.167  13.906
20503SOL    HW263349   7.782   7.223  13.838
20504SOL     OW63350   7.684  14.343   2.469
20504SOL    HW163351   7.616  14.390   2.421
20504SOL    HW263352   7.709  14.272   2.410
20505SOL     OW63353  10.962  12.456  10.356
20505SOL    HW163354  10.994  12.505  10.280
20505SOL    HW263355  10.868  12.472  10.357
20506SOL     OW63356  11.731   7.013   9.753
20506SOL    HW163357  11.651   6.974   9.789
20506SOL    HW263358  11.727   7.105   9.782
20507SOL     OW63359  12.419   5.627  13.392
20507SOL    HW163360  12.391   5.686  13.322
20507SOL    HW263361  12.509   5.654  13.412
20508SOL     OW63362  12.214   2.154  11.598
20508SOL    HW163363  12.230   2.224  11.534
20508SOL    HW263364  12.251   2.076  11.558
20509SOL     OW63365  14.826  11.379   5.387
20509SOL    HW163366  14.872  11.432   5.452
20509SOL    HW263367   0.011  11.315   5.358
20510SOL     OW63368   0.874   9.974  14.008
20510SOL    HW163369   0.832  10.023  13.937
20510SOL    HW263370   0.878   9.884  13.977
20511SOL     OW63371   7.300   1.065  14.570
20511SOL    HW163372   7.309   1.108  14.655
20511SOL    HW263373   7.346   1.122  14.509
20512SOL     OW63374  12.170  11.868   7.140
20512SOL    HW163375  12.213  11.837   7.219
20512SOL    HW263376  12.100  11.805   7.123
20513SOL     OW63377   1.947  11.795  13.642
20513SOL    HW163378   1.994  11.718  13.674
20513SOL    HW263379   1.926  11.774  13.551
20514SOL     OW63380   5.072  13.840  12.228
20514SOL    HW163381   4.988  13.794  12.223
20514SOL    HW263382   5.135  13.778  12.192
20515SOL     OW63383   1.151   3.377  12.006
20515SOL    HW163384   1.156   3.446  11.940
20515SOL    HW263385   1.058   3.355  12.011
20516SOL     OW63386  14.003   7.211   7.769
20516SOL    HW163387  14.079   7.229   7.714
20516SOL    HW263388  14.039   7.164   7.844
20517SOL     OW63389   2.807   2.846  11.319
20517SOL    HW163390   2.720   2.810  11.304
20517SOL    HW263391   2.792   2.940  11.336
20518SOL     OW63392   4.050   3.315   2.568
20518SOL    HW163393   4.126   3.260   2.583
20518SOL    HW263394   3.975   3.256   2.577
20519SOL     OW63395   1.303   8.342   7.577
20519SOL    HW163396   1.296   8.330   7.482
20519SOL    HW263397   1.213   8.337   7.609
20520SOL     OW63398   5.854   1.874   1.702
20520SOL    HW163399   5.850   1.788   1.659
20520SOL    HW263400   5.834   1.855   1.794
20521SOL     OW63401   7.240   7.452   8.990
20521SOL    HW163402   7.268   7.534   8.949
20521SOL    HW263403   7.319   7.397   8.990
20522SOL     OW63404   6.039  10.382   0.345
20522SOL    HW163405   6.134  10.376   0.347
20522SOL    HW263406   6.019  10.465   0.387
20523SOL     OW63407   5.410   7.905   2.369
20523SOL    HW163408   5.421   7.824   2.419
20523SOL    HW263409   5.335   7.948   2.410
20524SOL     OW63410   5.122   5.177   0.759
20524SOL    HW163411   5.176   5.239   0.710
20524SOL    HW263412   5.143   5.091   0.722
20525SOL     OW63413   9.595   8.143   5.851
20525SOL    HW163414   9.689   8.155   5.865
20525SOL    HW263415   9.567   8.224   5.807
20526SOL     OW63416  14.656  14.104  13.091
20526SOL    HW163417  14.614  14.086  13.176
20526SOL    HW263418  14.588  14.145  13.039
20527SOL     OW63419   3.160   3.671  12.080
20527SOL    HW163420   3.207   3.674  11.997
20527SOL    HW263421   3.114   3.587  12.078
20528SOL     OW63422  13.108  10.021   3.063
20528SOL    HW163423  13.191  10.004   3.018
20528SOL    HW263424  13.130  10.082   3.133
20529SOL     OW63425   3.458  13.962   5.039
20529SOL    HW163426   3.528  13.979   4.976
20529SOL    HW263427   3.384  14.013   5.007
20530SOL     OW63428  10.422   8.713   6.365
20530SOL    HW163429  10.380   8.706   6.451
20530SOL    HW263430  10.352   8.692   6.303
20531SOL     OW63431   8.015  14.795   7.512
20531SOL    HW163432   7.987  14.729   7.575
20531SOL    HW263433   8.015  14.877   7.561
20532SOL     OW63434   6.416   9.767  14.087
20532SOL    HW163435   6.414   9.845  14.143
20532SOL    HW263436   6.382   9.697  14.143
20533SOL     OW63437   3.635  13.465  13.055
20533SOL    HW163438   3.701  13.397  13.043
20533SOL    HW263439   3.681  13.535  13.101
20534SOL     OW63440   1.624   2.466   6.129
20534SOL    HW163441   1.605   2.530   6.197
20534SOL    HW263442   1.712   2.435   6.148
20535SOL     OW63443  10.721   4.358   4.285
20535SOL    HW163444  10.702   4.425   4.220
20535SOL    HW263445  10.803   4.385   4.325
20536SOL     OW63446   8.322   2.753   4.921
20536SOL    HW163447   8.245   2.696   4.918
20536SOL    HW263448   8.342   2.771   4.829
20537SOL     OW63449   4.889  10.395  11.936
20537SOL    HW163450   4.959  10.344  11.896
20537SOL    HW263451   4.852  10.337  12.002
20538SOL     OW63452   8.962   9.664   3.356
20538SOL    HW163453   8.870   9.670   3.330
20538SOL    HW263454   9.011   9.658   3.274
20539SOL     OW63455   0.310  14.332   2.729
20539SOL    HW163456   0.380  14.269   2.710
20539SOL    HW263457   0.229  14.284   2.714
20540SOL     OW63458   6.228   8.693  11.692
20540SOL    HW163459   6.297   8.759  11.690
20540SOL    HW263460   6.261   8.622  11.636
20541SOL     OW63461   4.117  12.449  10.418
20541SOL    HW163462   4.200  12.404  10.402
20541SOL    HW263463   4.089  12.418  10.504
20542SOL     OW63464  10.349   7.392  12.600
20542SOL    HW163465  10.299   7.314  12.575
20542SOL    HW263466  10.431   7.358  12.636
20543SOL     OW63467   5.337   0.521   1.188
20543SOL    HW163468   5.346   0.560   1.275
20543SOL    HW263469   5.256   0.472   1.192
20544SOL     OW63470   9.939   8.880   5.754
20544SOL    HW163471   9.921   8.852   5.664
20544SOL    HW263472   9.854   8.908   5.788
20545SOL     OW63473   5.721   3.986  13.368
20545SOL    HW163474   5.726   4.081  13.358
20545SOL    HW263475   5.807   3.955  13.339
20546SOL     OW63476   0.696   2.849   2.351
20546SOL    HW163477   0.641   2.925   2.333
20546SOL    HW263478   0.731   2.824   2.265
20547SOL     OW63479  10.645   0.141  12.801
20547SOL    HW163480  10.568   0.106  12.846
20547SOL    HW263481  10.609   0.181  12.722
20548SOL     OW63482   4.723   9.977  13.667
20548SOL    HW163483   4.758  10.051  13.617
20548SOL    HW263484   4.743   9.900  13.614
20549SOL     OW63485   6.559  12.919  11.098
20549SOL    HW163486   6.628  12.902  11.033
20549SOL    HW263487   6.570  13.011  11.121
20550SOL     OW63488  14.199   2.548   1.610
20550SOL    HW163489  14.249   2.554   1.691
20550SOL    HW263490  14.137   2.621   1.615
20551SOL     OW63491  13.767   8.695   1.781
20551SOL    HW163492  13.698   8.630   1.772
20551SOL    HW263493  13.763   8.746   1.700
20552SOL     OW63494  12.322   3.244  12.904
20552SOL    HW163495  12.310   3.299  12.826
20552SOL    HW263496  12.233   3.219  12.929
20553SOL     OW63497   1.287  14.578   0.620
20553SOL    HW163498   1.221  14.587   0.689
20553SOL    HW263499   1.288  14.484   0.601
20554SOL     OW63500   8.194   9.294   2.302
20554SOL    HW163501   8.151   9.211   2.286
20554SOL    HW263502   8.154   9.327   2.383
20555SOL     OW63503  12.537   1.235   8.199
20555SOL    HW163504  12.493   1.290   8.134
20555SOL    HW263505  12.471   1.169   8.223
20556SOL     OW63506   3.486   2.999   0.522
20556SOL    HW163507   3.493   2.913   0.481
20556SOL    HW263508   3.501   3.061   0.450
20557SOL     OW63509   9.865  13.395  13.662
20557SOL    HW163510   9.772  13.412  13.679
20557SOL    HW263511   9.872  13.300  13.663
20558SOL     OW63512  10.618  13.547  10.458
20558SOL    HW163513  10.607  13.633  10.500
20558SOL    HW263514  10.541  13.497  10.485
20559SOL     OW63515   5.907   1.635   5.732
20559SOL    HW163516   5.861   1.596   5.657
20559SOL    HW263517   5.961   1.564   5.767
20560SOL     OW63518   7.784  11.604   4.354
20560SOL    HW163519   7.825  11.537   4.299
20560SOL    HW263520   7.717  11.642   4.298
20561SOL     OW63521   5.350  13.158   6.848
20561SOL    HW163522   5.343  13.180   6.941
20561SOL    HW263523   5.275  13.101   6.831
20562SOL     OW63524  13.878   3.749   2.602
20562SOL    HW163525  13.922   3.799   2.533
20562SOL    HW263526  13.923   3.776   2.682
20563SOL     OW63527   9.354   1.018  13.379
20563SOL    HW163528   9.439   1.006  13.422
20563SOL    HW263529   9.372   1.006  13.286
20564SOL     OW63530   3.175   9.807  13.041
20564SOL    HW163531   3.120   9.780  12.967
20564SOL    HW263532   3.263   9.778  13.018
20565SOL     OW63533   4.659  14.114  13.930
20565SOL    HW163534   4.734  14.166  13.961
20565SOL    HW263535   4.598  14.115  14.004
20566SOL     OW63536   0.919   5.283   5.014
20566SOL    HW163537   0.993   5.247   5.063
20566SOL    HW263538   0.842   5.257   5.065
20567SOL     OW63539  11.947   3.682  11.344
20567SOL    HW163540  11.972   3.654  11.257
20567SOL    HW263541  11.887   3.756  11.330
20568SOL     OW63542   4.587  14.621  10.640
20568SOL    HW163543   4.509  14.598  10.590
20568SOL    HW263544   4.580  14.715  10.654
20569SOL     OW63545   8.118  11.681   1.592
20569SOL    HW163546   8.044  11.742   1.603
20569SOL    HW263547   8.162  11.682   1.677
20570SOL     OW63548   9.665   4.481   9.212
20570SOL    HW163549   9.722   4.455   9.284
20570SOL    HW263550   9.711   4.553   9.169
20571SOL     OW63551   8.221   0.703  11.695
20571SOL    HW163552   8.199   0.674  11.784
20571SOL    HW263553   8.268   0.786  11.708
20572SOL     OW63554  10.921   1.014  13.928
20572SOL    HW163555  10.984   1.001  13.857
20572SOL    HW263556  10.935   1.105  13.955
20573SOL     OW63557   3.032  14.858   1.137
20573SOL    HW163558   2.985   0.008   1.214
20573SOL    HW263559   3.108  14.811   1.171
20574SOL     OW63560   3.031  11.751  12.619
20574SOL    HW163561   3.047  11.803  12.541
20574SOL    HW263562   3.096  11.681  12.615
20575SOL     OW63563  14.311   1.919   7.276
20575SOL    HW163564  14.217   1.904   7.279
20575SOL    HW263565  14.320   2.010   7.249
20576SOL     OW63566   4.703  12.518   3.512
20576SOL    HW163567   4.773  12.541   3.452
20576SOL    HW263568   4.647  12.457   3.463
20577SOL     OW63569  14.405   5.929   6.797
20577SOL    HW163570  14.353   5.942   6.877
20577SOL    HW263571  14.424   6.017   6.766
20578SOL     OW63572   0.375   3.293   7.626
20578SOL    HW163573   0.431   3.229   7.582
20578SOL    HW263574   0.366   3.261   7.715
20579SOL     OW63575   9.633  12.223   1.327
20579SOL    HW163576   9.550  12.249   1.286
20579SOL    HW263577   9.618  12.238   1.421
20580SOL     OW63578   1.145   0.212   2.823
20580SOL    HW163579   1.054   0.185   2.807
20580SOL    HW263580   1.181   0.226   2.735
20581SOL     OW63581   6.329   0.701   0.652
20581SOL    HW163582   6.311   0.772   0.590
20581SOL    HW263583   6.398   0.735   0.709
20582SOL     OW63584   5.056   5.882   4.965
20582SOL    HW163585   5.015   5.855   5.047
20582SOL    HW263586   5.132   5.824   4.956
20583SOL     OW63587  11.182   7.945  10.317
20583SOL    HW163588  11.177   7.851  10.297
20583SOL    HW263589  11.128   7.956  10.395
20584SOL     OW63590   4.882  11.630   5.892
20584SOL    HW163591   4.801  11.579   5.884
20584SOL    HW263592   4.950  11.564   5.905
20585SOL     OW63593   9.153   5.509   3.987
20585SOL    HW163594   9.234   5.472   4.021
20585SOL    HW263595   9.177   5.546   3.902
20586SOL     OW63596   5.830   5.152   1.912
20586SOL    HW163597   5.924   5.166   1.917
20586SOL    HW263598   5.816   5.110   1.827
20587SOL     OW63599   6.525   2.580  11.845
20587SOL    HW163600   6.506   2.493  11.809
20587SOL    HW263601   6.620   2.583  11.853
20588SOL     OW63602   1.800  10.349   2.128
20588SOL    HW163603   1.780  10.273   2.182
20588SOL    HW263604   1.855  10.315   2.058
20589SOL     OW63605  12.263   4.600   7.810
20589SOL    HW163606  12.331   4.550   7.854
20589SOL    HW263607  12.264   4.568   7.719
20590SOL     OW63608   6.614  11.018   3.805
20590SOL    HW163609   6.691  10.962   3.816
20590SOL    HW263610   6.624  11.056   3.718
20591SOL     OW63611  12.490   6.915  12.926
20591SOL    HW163612  12.533   6.996  12.955
20591SOL    HW263613  12.416   6.946  12.873
20592SOL     OW63614   9.452   0.660   2.218
20592SOL    HW163615   9.475   0.716   2.293
20592SOL    HW263616   9.481   0.572   2.245
20593SOL     OW63617   5.105  11.504   2.159
20593SOL    HW163618   5.173  11.463   2.105
20593SOL    HW263619   5.153  11.552   2.226
20594SOL     OW63620  10.296   1.487  13.526
20594SOL    HW163621  10.308   1.521  13.437
20594SOL    HW263622  10.364   1.420  13.536
20595SOL     OW63623   2.806  12.460   3.137
20595SOL    HW163624   2.865  12.482   3.209
20595SOL    HW263625   2.858  12.473   3.058
20596SOL     OW63626   1.419   9.735   1.442
20596SOL    HW163627   1.385   9.660   1.491
20596SOL    HW263628   1.514   9.729   1.452
20597SOL     OW63629  13.682  11.197   0.368
20597SOL    HW163630  13.615  11.218   0.303
20597SOL    HW263631  13.638  11.142   0.432
20598SOL     OW63632  10.172  14.367  12.269
20598SOL    HW163633  10.195  14.460  12.260
20598SOL    HW263634  10.080  14.363  12.242
20599SOL     OW63635   3.923   7.779   8.868
20599SOL    HW163636   3.943   7.685   8.874
20599SOL    HW263637   3.848   7.784   8.809
20600SOL     OW63638   3.634   5.350  12.956
20600SOL    HW163639   3.636   5.345  13.051
20600SOL    HW263640   3.544   5.377  12.935
20601SOL     OW63641   7.977  10.697   0.642
20601SOL    HW163642   8.033  10.620   0.652
20601SOL    HW263643   7.903  10.667   0.591
20602SOL     OW63644   6.011   8.058  11.310
20602SOL    HW163645   6.019   7.974  11.355
20602SOL    HW263646   6.086   8.108  11.341
20603SOL     OW63647   0.914   5.103   2.016
20603SOL    HW163648   0.851   5.104   2.087
20603SOL    HW263649   0.907   5.015   1.979
20604SOL     OW63650   5.431  11.379  10.064
20604SOL    HW163651   5.352  11.383  10.008
20604SOL    HW263652   5.467  11.467  10.061
20605SOL     OW63653   2.023  13.065   6.484
20605SOL    HW163654   1.938  13.060   6.529
20605SOL    HW263655   2.022  13.151   6.441
20606SOL     OW63656   4.097   4.560   9.820
20606SOL    HW163657   4.043   4.545   9.897
20606SOL    HW263658   4.143   4.642   9.838
20607SOL     OW63659   4.382   2.938  11.981
20607SOL    HW163660   4.436   2.882  11.925
20607SOL    HW263661   4.428   3.022  11.983
20608SOL     OW63662   8.413  11.675  10.890
20608SOL    HW163663   8.343  11.612  10.876
20608SOL    HW263664   8.492  11.632  10.857
20609SOL     OW63665  10.822   9.344   9.278
20609SOL    HW163666  10.862   9.362   9.363
20609SOL    HW263667  10.797   9.252   9.283
20610SOL     OW63668  10.790  11.122   6.322
20610SOL    HW163669  10.862  11.104   6.262
20610SOL    HW263670  10.784  11.217   6.325
20611SOL     OW63671   5.272   8.299   1.445
20611SOL    HW163672   5.332   8.270   1.514
20611SOL    HW263673   5.242   8.385   1.474
20612SOL     OW63674   6.516   5.715   6.394
20612SOL    HW163675   6.448   5.710   6.327
20612SOL    HW263676   6.472   5.686   6.474
20613SOL     OW63677   7.504   3.433  11.401
20613SOL    HW163678   7.528   3.454  11.311
20613SOL    HW263679   7.432   3.493  11.421
20614SOL     OW63680   5.466   9.338   0.787
20614SOL    HW163681   5.518   9.259   0.774
20614SOL    HW263682   5.412   9.320   0.863
20615SOL     OW63683  14.427   1.670   2.423
20615SOL    HW163684  14.481   1.703   2.496
20615SOL    HW263685  14.401   1.748   2.375
20616SOL     OW63686  12.967  10.693   5.268
20616SOL    HW163687  12.918  10.612   5.274
20616SOL    HW263688  13.031  10.678   5.198
20617SOL     OW63689   2.073   1.300   0.775
20617SOL    HW163690   2.146   1.245   0.746
20617SOL    HW263691   2.058   1.361   0.703
20618SOL     OW63692   8.881   2.146  12.514
20618SOL    HW163693   8.812   2.201  12.476
20618SOL    HW263694   8.835   2.088  12.575
20619SOL     OW63695  12.329   2.446   0.681
20619SOL    HW163696  12.297   2.536   0.689
20619SOL    HW263697  12.251   2.395   0.660
20620SOL     OW63698   0.233  11.949   3.358
20620SOL    HW163699   0.298  11.936   3.289
20620SOL    HW263700   0.249  12.038   3.390
20621SOL     OW63701   8.392   2.787   2.610
20621SOL    HW163702   8.314   2.793   2.664
20621SOL    HW263703   8.457   2.745   2.667
20622SOL     OW63704   0.594  13.255   0.922
20622SOL    HW163705   0.600  13.268   0.827
20622SOL    HW263706   0.568  13.341   0.957
20623SOL     OW63707   2.216  14.267  13.312
20623SOL    HW163708   2.167  14.347  13.333
20623SOL    HW263709   2.256  14.284  13.227
20624SOL     OW63710   9.150   9.845  13.302
20624SOL    HW163711   9.235   9.814  13.332
20624SOL    HW263712   9.125   9.913  13.365
20625SOL     OW63713  14.642  13.889   3.633
20625SOL    HW163714  14.731  13.922   3.631
20625SOL    HW263715  14.595  13.948   3.692
20626SOL     OW63716   6.545   1.545   4.084
20626SOL    HW163717   6.581   1.526   4.171
20626SOL    HW263718   6.621   1.569   4.031
20627SOL     OW63719   9.655  10.805  10.235
20627SOL    HW163720   9.640  10.895  10.266
20627SOL    HW263721   9.735  10.811  10.182
20628SOL     OW63722   7.554   8.261   9.021
20628SOL    HW163723   7.558   8.170   9.050
20628SOL    HW263724   7.635   8.300   9.054
20629SOL     OW63725   2.072   6.320  14.788
20629SOL    HW163726   2.150   6.288  14.834
20629SOL    HW263727   2.031   6.241  14.753
20630SOL     OW63728   3.116   6.358  12.410
20630SOL    HW163729   3.155   6.424  12.468
20630SOL    HW263730   3.025   6.386  12.399
20631SOL     OW63731  13.924  11.069   4.892
20631SOL    HW163732  13.913  11.155   4.851
20631SOL    HW263733  13.836  11.044   4.920
20632SOL     OW63734   7.521   2.401  11.574
20632SOL    HW163735   7.429   2.382  11.590
20632SOL    HW263736   7.533   2.389  11.480
20633SOL     OW63737   1.057   3.888  13.757
20633SOL    HW163738   1.124   3.920  13.818
20633SOL    HW263739   1.107   3.838  13.692
20634SOL     OW63740   3.377  10.551   4.952
20634SOL    HW163741   3.466  10.535   4.981
20634SOL    HW263742   3.386  10.573   4.859
20635SOL     OW63743   6.621   9.860   9.815
20635SOL    HW163744   6.566   9.817   9.880
20635SOL    HW263745   6.659   9.789   9.764
20636SOL     OW63746   7.280   1.679  10.767
20636SOL    HW163747   7.363   1.669  10.720
20636SOL    HW263748   7.306   1.701  10.856
20637SOL     OW63749   5.571  14.283   6.623
20637SOL    HW163750   5.623  14.228   6.564
20637SOL    HW263751   5.523  14.342   6.565
20638SOL     OW63752  12.541  12.169   8.225
20638SOL    HW163753  12.493  12.138   8.149
20638SOL    HW263754  12.631  12.181   8.193
20639SOL     OW63755   5.513   4.726   2.339
20639SOL    HW163756   5.541   4.696   2.425
20639SOL    HW263757   5.463   4.653   2.303
20640SOL     OW63758  11.285   2.012  13.528
20640SOL    HW163759  11.312   2.025  13.436
20640SOL    HW263760  11.311   2.093  13.572
20641SOL     OW63761  13.655  10.120   3.432
20641SOL    HW163762  13.706  10.106   3.352
20641SOL    HW263763  13.679  10.047   3.489
20642SOL     OW63764   3.932   3.487  14.655
20642SOL    HW163765   3.993   3.456  14.722
20642SOL    HW263766   3.867   3.538  14.703
20643SOL     OW63767   2.725   1.923   0.758
20643SOL    HW163768   2.694   1.861   0.692
20643SOL    HW263769   2.668   1.909   0.834
20644SOL     OW63770  11.835  14.576   9.852
20644SOL    HW163771  11.755  14.542   9.812
20644SOL    HW263772  11.873  14.501   9.898
20645SOL     OW63773   0.743   6.335   8.202
20645SOL    HW163774   0.673   6.271   8.191
20645SOL    HW263775   0.698   6.419   8.207
20646SOL     OW63776   0.029   5.913   5.310
20646SOL    HW163777   0.115   5.893   5.274
20646SOL    HW263778   0.046   5.968   5.386
20647SOL     OW63779  14.625  14.429   8.529
20647SOL    HW163780  14.667  14.513   8.516
20647SOL    HW263781  14.635  14.411   8.623
20648SOL     OW63782  11.956   6.342   8.401
20648SOL    HW163783  11.988   6.419   8.448
20648SOL    HW263784  11.890   6.376   8.341
20649SOL     OW63785   0.888   9.720  13.835
20649SOL    HW163786   0.819   9.653  13.829
20649SOL    HW263787   0.956   9.689  13.775
20650SOL     OW63788   4.779   3.030  14.151
20650SOL    HW163789   4.807   3.073  14.232
20650SOL    HW263790   4.735   3.099  14.102
20651SOL     OW63791   8.238  12.757  14.513
20651SOL    HW163792   8.287  12.786  14.436
20651SOL    HW263793   8.185  12.832  14.539
20652SOL     OW63794   6.977   9.065   0.718
20652SOL    HW163795   7.010   9.151   0.745
20652SOL    HW263796   6.887   9.082   0.691
20653SOL     OW63797  13.238   4.525   6.494
20653SOL    HW163798  13.260   4.594   6.432
20653SOL    HW263799  13.285   4.549   6.574
20654SOL     OW63800  11.103   4.585  14.415
20654SOL    HW163801  11.015   4.556  14.439
20654SOL    HW263802  11.123   4.537  14.335
20655SOL     OW63803   8.832   3.764   5.492
20655SOL    HW163804   8.834   3.682   5.443
20655SOL    HW263805   8.753   3.758   5.546
20656SOL     OW63806   7.481   7.670  14.668
20656SOL    HW163807   7.437   7.659  14.753
20656SOL    HW263808   7.421   7.724  14.617
20657SOL     OW63809   9.466  11.563   4.242
20657SOL    HW163810   9.501  11.610   4.167
20657SOL    HW263811   9.404  11.500   4.205
20658SOL     OW63812   6.197   5.786   4.636
20658SOL    HW163813   6.277   5.748   4.672
20658SOL    HW263814   6.190   5.749   4.548
20659SOL     OW63815   1.785  14.803  11.583
20659SOL    HW163816   1.852  14.856  11.541
20659SOL    HW263817   1.790  14.718  11.539
20660SOL     OW63818  12.147   5.298   1.280
20660SOL    HW163819  12.118   5.294   1.371
20660SOL    HW263820  12.163   5.391   1.264
20661SOL     OW63821   2.836   0.078  13.470
20661SOL    HW163822   2.881   0.015  13.526
20661SOL    HW263823   2.903   0.108  13.409
20662SOL     OW63824  14.848   8.550   3.035
20662SOL    HW163825   0.005   8.462   3.050
20662SOL    HW263826  14.766   8.534   2.988
20663SOL     OW63827   6.763  13.009   8.722
20663SOL    HW163828   6.789  13.067   8.651
20663SOL    HW263829   6.834  13.018   8.786
20664SOL     OW63830   6.202   3.232   5.061
20664SOL    HW163831   6.160   3.158   5.104
20664SOL    HW263832   6.154   3.241   4.978
20665SOL     OW63833  10.793   9.253   7.615
20665SOL    HW163834  10.836   9.180   7.571
20665SOL    HW263835  10.700   9.234   7.608
20666SOL     OW63836   7.129   0.760  14.830
20666SOL    HW163837   7.064   0.750   0.019
20666SOL    HW263838   7.212   0.768  14.877
20667SOL     OW63839  12.695  12.485   8.707
20667SOL    HW163840  12.671  12.572   8.740
20667SOL    HW263841  12.708  12.499   8.613
20668SOL     OW63842   0.558  11.096  14.627
20668SOL    HW163843   0.633  11.048  14.663
20668SOL    HW263844   0.482  11.052  14.665
20669SOL     OW63845   0.009  12.088   5.310
20669SOL    HW163846   0.037  12.034   5.236
20669SOL    HW263847  14.864  12.172   5.272
20670SOL     OW63848   0.829   2.544   9.014
20670SOL    HW163849   0.884   2.580   9.084
20670SOL    HW263850   0.740   2.551   9.047
20671SOL     OW63851   3.127   4.584   3.093
20671SOL    HW163852   3.142   4.604   3.000
20671SOL    HW263853   3.033   4.569   3.098
20672SOL     OW63854   3.629   6.067  11.657
20672SOL    HW163855   3.683   6.028  11.726
20672SOL    HW263856   3.690   6.125  11.610
20673SOL     OW63857   5.366   7.354   8.025
20673SOL    HW163858   5.419   7.291   7.976
20673SOL    HW263859   5.298   7.381   7.963
20674SOL     OW63860   6.481   2.928   4.972
20674SOL    HW163861   6.459   3.018   4.946
20674SOL    HW263862   6.529   2.937   5.054
20675SOL     OW63863   0.859  10.921   1.642
20675SOL    HW163864   0.884  10.912   1.550
20675SOL    HW263865   0.764  10.908   1.642
20676SOL     OW63866  10.579   3.588   8.799
20676SOL    HW163867  10.540   3.635   8.873
20676SOL    HW263868  10.534   3.503   8.799
20677SOL     OW63869   1.112  10.443   5.378
20677SOL    HW163870   1.096  10.419   5.469
20677SOL    HW263871   1.205  10.429   5.365
20678SOL     OW63872   8.583   0.519   4.880
20678SOL    HW163873   8.609   0.436   4.840
20678SOL    HW263874   8.496   0.538   4.843
20679SOL     OW63875   1.390   1.476  11.924
20679SOL    HW163876   1.422   1.477  11.833
20679SOL    HW263877   1.299   1.448  11.917
20680SOL     OW63878   8.633  12.429   4.758
20680SOL    HW163879   8.571  12.496   4.731
20680SOL    HW263880   8.580  12.350   4.770
20681SOL     OW63881  14.056  10.655   4.110
20681SOL    HW163882  14.130  10.618   4.157
20681SOL    HW263883  14.094  10.699   4.034
20682SOL     OW63884   9.828   5.026   7.527
20682SOL    HW163885   9.844   5.018   7.621
20682SOL    HW263886   9.821   5.121   7.512
20683SOL     OW63887   7.315   7.377  12.714
20683SOL    HW163888   7.325   7.282  12.714
20683SOL    HW263889   7.257   7.396  12.641
20684SOL     OW63890   6.537  12.407   5.112
20684SOL    HW163891   6.544  12.354   5.191
20684SOL    HW263892   6.545  12.344   5.040
20685SOL     OW63893   1.946   5.153   5.470
20685SOL    HW163894   1.973   5.236   5.509
20685SOL    HW263895   2.022   5.095   5.483
20686SOL     OW63896   6.666  11.867   4.151
20686SOL    HW163897   6.704  11.838   4.068
20686SOL    HW263898   6.578  11.897   4.128
20687SOL     OW63899   7.636  11.155   1.675
20687SOL    HW163900   7.701  11.207   1.628
20687SOL    HW263901   7.553  11.196   1.654
20688SOL     OW63902  12.419   4.052   5.499
20688SOL    HW163903  12.491   4.092   5.547
20688SOL    HW263904  12.408   4.107   5.421
20689SOL     OW63905   8.233   7.912   7.988
20689SOL    HW163906   8.141   7.891   8.007
20689SOL    HW263907   8.254   7.858   7.912
20690SOL     OW63908  10.207  14.248   5.828
20690SOL    HW163909  10.175  14.258   5.738
20690SOL    HW263910  10.210  14.153   5.841
20691SOL     OW63911  13.704   8.318   2.189
20691SOL    HW163912  13.614   8.295   2.213
20691SOL    HW263913  13.758   8.249   2.228
20692SOL     OW63914   0.166   6.172  13.206
20692SOL    HW163915   0.110   6.117  13.261
20692SOL    HW263916   0.111   6.248  13.186
20693SOL     OW63917  13.490   3.780   7.093
20693SOL    HW163918  13.505   3.740   7.007
20693SOL    HW263919  13.473   3.706   7.151
20694SOL     OW63920  14.513   1.380   5.922
20694SOL    HW163921  14.477   1.447   5.864
20694SOL    HW263922  14.579   1.427   5.974
20695SOL     OW63923   0.835   8.076   1.230
20695SOL    HW163924   0.873   8.164   1.223
20695SOL    HW263925   0.909   8.019   1.247
20696SOL     OW63926   8.131   6.844   5.689
20696SOL    HW163927   8.138   6.761   5.641
20696SOL    HW263928   8.190   6.834   5.763
20697SOL     OW63929  10.413  12.697   4.177
20697SOL    HW163930  10.444  12.618   4.221
20697SOL    HW263931  10.331  12.672   4.135
20698SOL     OW63932   4.643  12.719  12.772
20698SOL    HW163933   4.679  12.631  12.759
20698SOL    HW263934   4.611  12.719  12.862
20699SOL     OW63935  13.509   3.418   6.291
20699SOL    HW163936  13.603   3.428   6.271
20699SOL    HW263937  13.505   3.416   6.386
20700SOL     OW63938   8.623   2.656   3.900
20700SOL    HW163939   8.556   2.618   3.843
20700SOL    HW263940   8.608   2.751   3.894
20701SOL     OW63941  14.731   9.723   6.170
20701SOL    HW163942  14.812   9.771   6.157
20701SOL    HW263943  14.747   9.637   6.132
20702SOL     OW63944  12.068   2.270   6.136
20702SOL    HW163945  12.008   2.344   6.125
20702SOL    HW263946  12.011   2.195   6.155
20703SOL     OW63947   1.522   0.594  12.655
20703SOL    HW163948   1.584   0.663  12.629
20703SOL    HW263949   1.565   0.550  12.729
20704SOL     OW63950   5.435  10.658  13.412
20704SOL    HW163951   5.359  10.615  13.373
20704SOL    HW263952   5.436  10.630  13.503
20705SOL     OW63953   3.520  10.432   8.586
20705SOL    HW163954   3.431  10.396   8.591
20705SOL    HW263955   3.508  10.526   8.594
20706SOL     OW63956  13.414   2.114   6.596
20706SOL    HW163957  13.425   2.028   6.638
20706SOL    HW263958  13.352   2.097   6.525
20707SOL     OW63959   7.868   0.968   0.123
20707SOL    HW163960   7.913   1.008   0.198
20707SOL    HW263961   7.931   0.905   0.089
20708SOL     OW63962  14.225  13.568   1.016
20708SOL    HW163963  14.276  13.648   1.029
20708SOL    HW263964  14.139  13.599   0.987
20709SOL     OW63965   4.749   1.782   9.009
20709SOL    HW163966   4.830   1.774   8.959
20709SOL    HW263967   4.685   1.730   8.960
20710SOL     OW63968   2.984   8.020   5.543
20710SOL    HW163969   2.890   8.002   5.551
20710SOL    HW263970   3.003   8.079   5.616
20711SOL     OW63971   2.869   2.534  12.539
20711SOL    HW163972   2.880   2.498  12.451
20711SOL    HW263973   2.874   2.458  12.597
20712SOL     OW63974   0.808  11.097  14.457
20712SOL    HW163975   0.758  11.106  14.538
20712SOL    HW263976   0.897  11.078  14.485
20713SOL     OW63977   1.344  12.355   7.596
20713SOL    HW163978   1.385  12.317   7.674
20713SOL    HW263979   1.397  12.324   7.523
20714SOL     OW63980  10.918   3.568   2.932
20714SOL    HW163981  10.866   3.611   2.864
20714SOL    HW263982  10.906   3.623   3.010
20715SOL     OW63983   8.386   2.798   7.647
20715SOL    HW163984   8.297   2.801   7.613
20715SOL    HW263985   8.438   2.847   7.583
20716SOL     OW63986  14.800  10.799   0.097
20716SOL    HW163987  14.729  10.861   0.083
20716SOL    HW263988  14.772  10.745   0.170
20717SOL     OW63989   5.133   2.804  12.460
20717SOL    HW163990   5.108   2.823  12.370
20717SOL    HW263991   5.225   2.780  12.456
20718SOL     OW63992   1.802  12.818   0.769
20718SOL    HW163993   1.803  12.732   0.809
20718SOL    HW263994   1.760  12.805   0.684
20719SOL     OW63995   1.394  11.529   7.427
20719SOL    HW163996   1.392  11.541   7.521
20719SOL    HW263997   1.360  11.440   7.413
20720SOL     OW63998  14.809  11.530   6.908
20720SOL    HW163999  14.769  11.466   6.849
20720SOL    HW264000  14.743  11.599   6.917
20721SOL     OW64001   1.102   0.403  11.646
20721SOL    HW164002   1.181   0.420  11.595
20721SOL    HW264003   1.032   0.396  11.581
20722SOL     OW64004   0.692   8.281  14.301
20722SOL    HW164005   0.719   8.359  14.254
20722SOL    HW264006   0.649   8.314  14.380
20723SOL     OW64007  13.702   9.514   9.463
20723SOL    HW164008  13.677   9.487   9.551
20723SOL    HW264009  13.750   9.596   9.476
20724SOL     OW64010  13.437  14.602   0.639
20724SOL    HW164011  13.474  14.523   0.680
20724SOL    HW264012  13.404  14.572   0.555
20725SOL     OW64013  14.648  13.392  12.597
20725SOL    HW164014  14.614  13.339  12.525
20725SOL    HW264015  14.740  13.408  12.574
20726SOL     OW64016   6.641   4.831   4.042
20726SOL    HW164017   6.725   4.787   4.059
20726SOL    HW264018   6.667   4.916   4.005
20727SOL     OW64019   5.242  13.796   5.164
20727SOL    HW164020   5.196  13.864   5.214
20727SOL    HW264021   5.186  13.719   5.173
20728SOL     OW64022   0.179  10.570   2.803
20728SOL    HW164023   0.214  10.656   2.827
20728SOL    HW264024   0.225  10.508   2.859
20729SOL     OW64025   0.887   0.961  11.531
20729SOL    HW164026   0.889   0.993  11.621
20729SOL    HW264027   0.899   1.039  11.477
20730SOL     OW64028   4.802   4.463   5.286
20730SOL    HW164029   4.880   4.409   5.278
20730SOL    HW264030   4.813   4.533   5.222
20731SOL     OW64031   3.987   8.887   3.239
20731SOL    HW164032   3.997   8.842   3.323
20731SOL    HW264033   4.071   8.930   3.224
20732SOL     OW64034   9.142  14.827  12.226
20732SOL    HW164035   9.093  14.796  12.302
20732SOL    HW264036   9.149   0.042  12.238
20733SOL     OW64037   6.666  10.325  10.896
20733SOL    HW164038   6.668  10.230  10.908
20733SOL    HW264039   6.753  10.354  10.922
20734SOL     OW64040   1.267  13.881  12.726
20734SOL    HW164041   1.355  13.916  12.732
20734SOL    HW264042   1.210  13.955  12.746
20735SOL     OW64043   2.112  13.810  11.350
20735SOL    HW164044   2.170  13.886  11.345
20735SOL    HW264045   2.066  13.821  11.432
20736SOL     OW64046   7.156   6.289   8.487
20736SOL    HW164047   7.195   6.240   8.414
20736SOL    HW264048   7.136   6.374   8.450
20737SOL     OW64049   4.976   1.814   6.097
20737SOL    HW164050   4.982   1.853   6.010
20737SOL    HW264051   4.892   1.768   6.097
20738SOL     OW64052   9.531  13.538   9.118
20738SOL    HW164053   9.561  13.475   9.053
20738SOL    HW264054   9.504  13.614   9.067
20739SOL     OW64055   7.150   1.943   9.441
20739SOL    HW164056   7.170   1.997   9.517
20739SOL    HW264057   7.129   1.857   9.477
20740SOL     OW64058  11.978   2.829   8.152
20740SOL    HW164059  12.055   2.838   8.209
20740SOL    HW264060  12.007   2.861   8.067
20741SOL     OW64061   6.737   0.780   7.237
20741SOL    HW164062   6.680   0.827   7.298
20741SOL    HW264063   6.682   0.767   7.159
20742SOL     OW64064   1.885   1.331   8.371
20742SOL    HW164065   1.923   1.285   8.296
20742SOL    HW264066   1.820   1.390   8.333
20743SOL     OW64067   4.912   1.389  14.344
20743SOL    HW164068   4.935   1.459  14.405
20743SOL    HW264069   4.975   1.319  14.363
20744SOL     OW64070   8.012   6.267   3.306
20744SOL    HW164071   8.062   6.217   3.241
20744SOL    HW264072   8.058   6.351   3.310
20745SOL     OW64073  12.318   4.633   1.234
20745SOL    HW164074  12.279   4.629   1.321
20745SOL    HW264075  12.250   4.598   1.175
20746SOL     OW64076   5.123   2.235  13.954
20746SOL    HW164077   5.107   2.194  14.039
20746SOL    HW264078   5.039   2.231  13.909
20747SOL     OW64079   1.299   3.224   5.214
20747SOL    HW164080   1.259   3.160   5.274
20747SOL    HW264081   1.386   3.240   5.252
20748SOL     OW64082   2.908  11.392   5.026
20748SOL    HW164083   2.947  11.404   5.113
20748SOL    HW264084   2.946  11.310   4.995
20749SOL     OW64085  13.657   8.799  14.858
20749SOL    HW164086  13.736   8.853  14.863
20749SOL    HW264087  13.620   8.819  14.772
20750SOL     OW64088  10.953   2.127   6.733
20750SOL    HW164089  11.018   2.146   6.800
20750SOL    HW264090  10.979   2.182   6.658
20751SOL     OW64091  14.187  10.750   3.889
20751SOL    HW164092  14.239  10.676   3.860
20751SOL    HW264093  14.200  10.817   3.822
20752SOL     OW64094   1.472   5.598  11.783
20752SOL    HW164095   1.503   5.625  11.696
20752SOL    HW264096   1.377   5.609  11.779
20753SOL     OW64097   5.201   8.582   1.518
20753SOL    HW164098   5.114   8.616   1.495
20753SOL    HW264099   5.193   8.557   1.610
20754SOL     OW64100   1.860   6.188  13.545
20754SOL    HW164101   1.850   6.265  13.601
20754SOL    HW264102   1.947   6.154  13.565
20755SOL     OW64103   7.185  10.751   3.203
20755SOL    HW164104   7.169  10.820   3.268
20755SOL    HW264105   7.114  10.761   3.139
20756SOL     OW64106   8.661   5.480   0.590
20756SOL    HW164107   8.757   5.475   0.585
20756SOL    HW264108   8.644   5.543   0.660
20757SOL     OW64109  10.545   8.057   3.874
20757SOL    HW164110  10.565   7.967   3.850
20757SOL    HW264111  10.449   8.062   3.875
20758SOL     OW64112  12.475   5.022  11.259
20758SOL    HW164113  12.474   4.977  11.344
20758SOL    HW264114  12.449   4.955  11.196
20759SOL     OW64115   3.106  13.792   2.084
20759SOL    HW164116   3.142  13.866   2.034
20759SOL    HW264117   3.011  13.798   2.070
20760SOL     OW64118  10.790  10.850  12.098
20760SOL    HW164119  10.846  10.808  12.163
20760SOL    HW264120  10.819  10.814  12.014
20761SOL     OW64121   1.050   3.097   6.553
20761SOL    HW164122   0.983   3.166   6.553
20761SOL    HW264123   1.078   3.092   6.461
20762SOL     OW64124  11.873   9.977   1.473
20762SOL    HW164125  11.839  10.054   1.519
20762SOL    HW264126  11.803   9.953   1.412
20763SOL     OW64127  12.500  10.298  13.258
20763SOL    HW164128  12.504  10.302  13.353
20763SOL    HW264129  12.500  10.205  13.237
20764SOL     OW64130   1.485   5.809  10.647
20764SOL    HW164131   1.510   5.794  10.555
20764SOL    HW264132   1.407   5.864  10.641
20765SOL     OW64133  14.870  12.960   6.275
20765SOL    HW164134  14.854  13.014   6.352
20765SOL    HW264135  14.786  12.960   6.229
20766SOL     OW64136   7.849   0.321  12.379
20766SOL    HW164137   7.886   0.309  12.466
20766SOL    HW264138   7.886   0.404  12.348
20767SOL     OW64139   1.705   7.177   3.204
20767SOL    HW164140   1.640   7.246   3.193
20767SOL    HW264141   1.726   7.178   3.297
20768SOL     OW64142   7.953   7.339   4.763
20768SOL    HW164143   7.876   7.317   4.815
20768SOL    HW264144   8.025   7.343   4.826
20769SOL     OW64145   7.918   0.929  11.160
20769SOL    HW164146   7.923   0.858  11.096
20769SOL    HW264147   7.953   1.005  11.113
20770SOL     OW64148  10.787   3.572   4.721
20770SOL    HW164149  10.748   3.559   4.634
20770SOL    HW264150  10.735   3.642   4.760
20771SOL     OW64151   3.999   6.383   9.741
20771SOL    HW164152   4.071   6.320   9.747
20771SOL    HW264153   4.025   6.454   9.800
20772SOL     OW64154   6.483   9.761   7.163
20772SOL    HW164155   6.431   9.764   7.083
20772SOL    HW264156   6.565   9.804   7.140
20773SOL     OW64157   8.904   2.538   1.652
20773SOL    HW164158   8.972   2.605   1.649
20773SOL    HW264159   8.880   2.533   1.745
20774SOL     OW64160   5.629   2.884   9.561
20774SOL    HW164161   5.646   2.831   9.639
20774SOL    HW264162   5.624   2.820   9.489
20775SOL     OW64163  10.631  12.767   2.022
20775SOL    HW164164  10.593  12.791   1.937
20775SOL    HW264165  10.618  12.673   2.028
20776SOL     OW64166  11.232   1.497   4.841
20776SOL    HW164167  11.215   1.442   4.764
20776SOL    HW264168  11.321   1.474   4.867
20777SOL     OW64169   6.449   5.073  12.874
20777SOL    HW164170   6.536   5.039  12.895
20777SOL    HW264171   6.417   5.110  12.955
20778SOL     OW64172  12.922  10.227   0.831
20778SOL    HW164173  12.959  10.144   0.801
20778SOL    HW264174  12.866  10.256   0.759
20779SOL     OW64175   3.317  12.025   6.472
20779SOL    HW164176   3.340  11.956   6.410
20779SOL    HW264177   3.386  12.022   6.538
20780SOL     OW64178   2.692   0.491  12.178
20780SOL    HW164179   2.609   0.452  12.204
20780SOL    HW264180   2.693   0.577  12.219
20781SOL     OW64181  12.180   5.171  12.143
20781SOL    HW164182  12.166   5.076  12.140
20781SOL    HW264183  12.128   5.200  12.218
20782SOL     OW64184   4.829  11.749   0.941
20782SOL    HW164185   4.737  11.765   0.962
20782SOL    HW264186   4.832  11.748   0.846
20783SOL     OW64187  11.582  10.897   5.213
20783SOL    HW164188  11.521  10.962   5.250
20783SOL    HW264189  11.632  10.947   5.148
20784SOL     OW64190   7.943   1.207  14.031
20784SOL    HW164191   7.931   1.302  14.030
20784SOL    HW264192   7.962   1.186  14.122
20785SOL     OW64193  12.392   6.230  12.773
20785SOL    HW164194  12.458   6.217  12.705
20785SOL    HW264195  12.420   6.308  12.820
20786SOL     OW64196   1.960   9.539   5.803
20786SOL    HW164197   1.981   9.616   5.855
20786SOL    HW264198   1.904   9.486   5.860
20787SOL     OW64199   1.621   8.629   6.498
20787SOL    HW164200   1.689   8.648   6.562
20787SOL    HW264201   1.595   8.715   6.465
20788SOL     OW64202  11.106  10.531   8.935
20788SOL    HW164203  11.193  10.554   8.901
20788SOL    HW264204  11.125  10.493   9.021
20789SOL     OW64205   5.224  12.618   3.954
20789SOL    HW164206   5.200  12.531   3.922
20789SOL    HW264207   5.288  12.650   3.891
20790SOL     OW64208  11.837  13.287   8.299
20790SOL    HW164209  11.817  13.338   8.220
20790SOL    HW264210  11.792  13.204   8.285
20791SOL     OW64211   0.538  10.284  11.832
20791SOL    HW164212   0.618  10.232  11.818
20791SOL    HW264213   0.477  10.223  11.873
20792SOL     OW64214  10.508  13.007  14.780
20792SOL    HW164215  10.442  13.036  14.717
20792SOL    HW264216  10.564  12.948  14.730
20793SOL     OW64217   0.490   2.881  12.516
20793SOL    HW164218   0.470   2.901  12.607
20793SOL    HW264219   0.553   2.810  12.520
20794SOL     OW64220   1.649   4.435   1.768
20794SOL    HW164221   1.699   4.372   1.716
20794SOL    HW264222   1.561   4.431   1.732
20795SOL     OW64223   2.963   5.563   2.040
20795SOL    HW164224   2.997   5.515   1.965
20795SOL    HW264225   2.950   5.496   2.107
20796SOL     OW64226   1.245  13.683  12.897
20796SOL    HW164227   1.253  13.737  12.819
20796SOL    HW264228   1.176  13.726  12.949
20797SOL     OW64229   9.604   9.265  12.168
20797SOL    HW164230   9.538   9.271  12.237
20797SOL    HW264231   9.565   9.208  12.102
20798SOL     OW64232   1.325   2.827   0.108
20798SOL    HW164233   1.346   2.737   0.084
20798SOL    HW264234   1.377   2.881   0.048
20799SOL     OW64235   0.067   8.364   9.261
20799SOL    HW164236   0.026   8.305   9.324
20799SOL    HW264237   0.107   8.307   9.196
20800SOL     OW64238   7.758   4.748   6.436
20800SOL    HW164239   7.791   4.802   6.365
20800SOL    HW264240   7.677   4.791   6.464
20801SOL     OW64241   1.829  11.377   1.189
20801SOL    HW164242   1.741  11.340   1.186
20801SOL    HW264243   1.820  11.462   1.145
20802SOL     OW64244   5.998   2.461   2.893
20802SOL    HW164245   5.905   2.454   2.872
20802SOL    HW264246   6.008   2.549   2.930
20803SOL     OW64247  11.129   3.561   0.790
20803SOL    HW164248  11.055   3.520   0.746
20803SOL    HW264249  11.203   3.503   0.773
20804SOL     OW64250  11.068   0.485  10.816
20804SOL    HW164251  11.026   0.416  10.765
20804SOL    HW264252  11.128   0.439  10.875
20805SOL     OW64253  11.423   4.655   0.113
20805SOL    HW164254  11.457   4.658   0.202
20805SOL    HW264255  11.376   4.738   0.103
20806SOL     OW64256   1.432   8.187  11.952
20806SOL    HW164257   1.398   8.231  11.874
20806SOL    HW264258   1.526   8.206  11.950
20807SOL     OW64259  10.854   5.207   7.765
20807SOL    HW164260  10.915   5.257   7.711
20807SOL    HW264261  10.881   5.116   7.753
20808SOL     OW64262  13.651   5.153   8.222
20808SOL    HW164263  13.721   5.133   8.284
20808SOL    HW264264  13.581   5.190   8.276
20809SOL     OW64265   1.166  14.552   3.997
20809SOL    HW164266   1.079  14.524   3.969
20809SOL    HW264267   1.203  14.596   3.921
20810SOL     OW64268  14.510  11.824  10.652
20810SOL    HW164269  14.591  11.862  10.614
20810SOL    HW264270  14.539  11.744  10.695
20811SOL     OW64271   2.623   5.359   1.392
20811SOL    HW164272   2.608   5.419   1.465
20811SOL    HW264273   2.609   5.272   1.429
20812SOL     OW64274   3.241  10.790  13.132
20812SOL    HW164275   3.275  10.741  13.207
20812SOL    HW264276   3.149  10.762  13.126
20813SOL     OW64277   3.246  10.590   9.184
20813SOL    HW164278   3.327  10.588   9.132
20813SOL    HW264279   3.258  10.523   9.250
20814SOL     OW64280   2.723  12.453  10.632
20814SOL    HW164281   2.803  12.485  10.675
20814SOL    HW264282   2.677  12.533  10.607
20815SOL     OW64283  14.472   2.819   3.761
20815SOL    HW164284  14.419   2.842   3.837
20815SOL    HW264285  14.562   2.835   3.789
20816SOL     OW64286  14.099   0.278   0.613
20816SOL    HW164287  14.045   0.240   0.543
20816SOL    HW264288  14.052   0.356   0.640
20817SOL     OW64289  11.954   5.662   8.897
20817SOL    HW164290  11.924   5.736   8.843
20817SOL    HW264291  11.885   5.651   8.962
20818SOL     OW64292   3.907   8.265   1.285
20818SOL    HW164293   3.850   8.198   1.323
20818SOL    HW264294   3.905   8.337   1.348
20819SOL     OW64295   8.762   6.415   6.067
20819SOL    HW164296   8.708   6.373   6.000
20819SOL    HW264297   8.755   6.508   6.048
20820SOL     OW64298   6.373  12.534   0.493
20820SOL    HW164299   6.375  12.628   0.473
20820SOL    HW264300   6.371  12.529   0.588
20821SOL     OW64301  12.117   3.872   7.829
20821SOL    HW164302  12.061   3.796   7.837
20821SOL    HW264303  12.156   3.883   7.915
20822SOL     OW64304   9.781   5.806   5.052
20822SOL    HW164305   9.707   5.853   5.090
20822SOL    HW264306   9.807   5.743   5.119
20823SOL     OW64307   3.949   0.164   9.168
20823SOL    HW164308   3.934   0.175   9.262
20823SOL    HW264309   3.976   0.073   9.158
20824SOL     OW64310   1.434   7.601   3.788
20824SOL    HW164311   1.525   7.573   3.794
20824SOL    HW264312   1.434   7.675   3.727
20825SOL     OW64313   6.097  11.720  14.142
20825SOL    HW164314   6.024  11.759  14.094
20825SOL    HW264315   6.079  11.740  14.234
20826SOL     OW64316  14.758   7.308   4.651
20826SOL    HW164317  14.794   7.283   4.566
20826SOL    HW264318  14.712   7.390   4.633
20827SOL     OW64319  13.207   1.657  12.136
20827SOL    HW164320  13.286   1.644  12.083
20827SOL    HW264321  13.190   1.751  12.130
20828SOL     OW64322   3.768   4.300   0.675
20828SOL    HW164323   3.673   4.287   0.674
20828SOL    HW264324   3.804   4.220   0.636
20829SOL     OW64325   7.218  12.723  10.995
20829SOL    HW164326   7.243  12.750  10.907
20829SOL    HW264327   7.208  12.806  11.043
20830SOL     OW64328  13.031   8.086   8.385
20830SOL    HW164329  12.986   8.044   8.459
20830SOL    HW264330  13.065   8.167   8.421
20831SOL     OW64331   7.886   5.593  10.291
20831SOL    HW164332   7.826   5.521  10.310
20831SOL    HW264333   7.838   5.648  10.229
20832SOL     OW64334  12.518   6.260  11.798
20832SOL    HW164335  12.598   6.248  11.849
20832SOL    HW264336  12.455   6.199  11.837
20833SOL     OW64337   1.451   2.921   6.940
20833SOL    HW164338   1.527   2.862   6.942
20833SOL    HW264339   1.425   2.931   7.031
20834SOL     OW64340   7.232   5.755  13.734
20834SOL    HW164341   7.274   5.735  13.818
20834SOL    HW264342   7.152   5.801  13.757
20835SOL     OW64343   2.251  12.168   6.029
20835SOL    HW164344   2.279  12.183   6.119
20835SOL    HW264345   2.238  12.073   6.024
20836SOL     OW64346  10.220  11.067   4.095
20836SOL    HW164347  10.302  11.022   4.118
20836SOL    HW264348  10.200  11.121   4.171
20837SOL     OW64349  11.249   9.066   4.216
20837SOL    HW164350  11.228   9.020   4.135
20837SOL    HW264351  11.325   9.020   4.251
20838SOL     OW64352   3.902   5.261   0.680
20838SOL    HW164353   3.910   5.354   0.701
20838SOL    HW264354   3.971   5.219   0.732
20839SOL     OW64355   8.753   1.723   6.409
20839SOL    HW164356   8.669   1.760   6.385
20839SOL    HW264357   8.818   1.787   6.380
20840SOL     OW64358   0.920  12.300  11.504
20840SOL    HW164359   1.011  12.290  11.477
20840SOL    HW264360   0.925  12.318  11.598
20841SOL     OW64361   8.056   5.903   0.600
20841SOL    HW164362   8.088   5.845   0.531
20841SOL    HW264363   7.962   5.910   0.584
20842SOL     OW64364   7.585  10.106   4.370
20842SOL    HW164365   7.592  10.077   4.461
20842SOL    HW264366   7.568  10.026   4.320
20843SOL     OW64367   2.939   3.629  10.712
20843SOL    HW164368   2.995   3.674  10.776
20843SOL    HW264369   2.914   3.547  10.755
20844SOL     OW64370   4.179   2.084   7.981
20844SOL    HW164371   4.173   2.088   8.076
20844SOL    HW264372   4.109   2.024   7.955
20845SOL     OW64373  10.863  11.650   9.802
20845SOL    HW164374  10.943  11.609   9.836
20845SOL    HW264375  10.876  11.653   9.707
20846SOL     OW64376  12.515  14.105   4.054
20846SOL    HW164377  12.549  14.017   4.074
20846SOL    HW264378  12.569  14.136   3.982
20847SOL     OW64379   9.998  14.824   6.114
20847SOL    HW164380  10.068   0.010   6.099
20847SOL    HW264381  10.024  14.750   6.060
20848SOL     OW64382   0.039   0.524   4.211
20848SOL    HW164383  14.840   0.532   4.265
20848SOL    HW264384   0.035   0.599   4.152
20849SOL     OW64385  12.909   1.195   6.704
20849SOL    HW164386  12.834   1.234   6.750
20849SOL    HW264387  12.913   1.106   6.738
20850SOL     OW64388   4.606   8.495  13.105
20850SOL    HW164389   4.686   8.545  13.121
20850SOL    HW264390   4.588   8.508  13.012
20851SOL     OW64391  10.530  14.565   5.699
20851SOL    HW164392  10.534  14.470   5.699
20851SOL    HW264393  10.611  14.592   5.654
20852SOL     OW64394   9.621  11.854  13.020
20852SOL    HW164395   9.681  11.928  13.024
20852SOL    HW264396   9.660  11.788  13.078
20853SOL     OW64397   0.257   5.904   9.687
20853SOL    HW164398   0.285   5.879   9.599
20853SOL    HW264399   0.304   5.843   9.745
20854SOL     OW64400   8.584  13.573   2.175
20854SOL    HW164401   8.496  13.611   2.168
20854SOL    HW264402   8.582  13.526   2.259
20855SOL     OW64403   5.946   0.829   9.621
20855SOL    HW164404   5.940   0.797   9.531
20855SOL    HW264405   5.972   0.752   9.672
20856SOL     OW64406   6.371   4.563   0.963
20856SOL    HW164407   6.295   4.581   1.019
20856SOL    HW264408   6.335   4.559   0.874
20857SOL     OW64409   6.624   8.448   4.526
20857SOL    HW164410   6.652   8.469   4.615
20857SOL    HW264411   6.536   8.413   4.537
20858SOL     OW64412   7.220   0.900   6.761
20858SOL    HW164413   7.269   0.881   6.840
20858SOL    HW264414   7.261   0.977   6.723
20859SOL     OW64415  11.416  13.364   1.907
20859SOL    HW164416  11.505  13.331   1.916
20859SOL    HW264417  11.391  13.341   1.817
20860SOL     OW64418   2.239  12.559   2.487
20860SOL    HW164419   2.193  12.631   2.444
20860SOL    HW264420   2.246  12.491   2.421
20861SOL     OW64421   9.247   2.161   8.193
20861SOL    HW164422   9.195   2.126   8.265
20861SOL    HW264423   9.338   2.151   8.221
20862SOL     OW64424   9.333   8.639   2.857
20862SOL    HW164425   9.311   8.548   2.878
20862SOL    HW264426   9.311   8.649   2.764
20863SOL     OW64427   4.183  14.398  14.761
20863SOL    HW164428   4.135  14.348  14.827
20863SOL    HW264429   4.269  14.414  14.801
20864SOL     OW64430   3.245   8.431   4.852
20864SOL    HW164431   3.180   8.454   4.918
20864SOL    HW264432   3.327   8.471   4.884
20865SOL     OW64433   9.077   9.452   5.006
20865SOL    HW164434   9.067   9.365   5.046
20865SOL    HW264435   9.008   9.455   4.940
20866SOL     OW64436   9.787   5.885   8.607
20866SOL    HW164437   9.712   5.836   8.640
20866SOL    HW264438   9.773   5.888   8.513
20867SOL     OW64439  10.018   6.785   8.888
20867SOL    HW164440  10.027   6.757   8.979
20867SOL    HW264441   9.942   6.843   8.888
20868SOL     OW64442   3.683  13.297   7.983
20868SOL    HW164443   3.697  13.210   7.944
20868SOL    HW264444   3.756  13.350   7.949
20869SOL     OW64445  11.317  14.406   0.497
20869SOL    HW164446  11.365  14.378   0.575
20869SOL    HW264447  11.383  14.449   0.442
20870SOL     OW64448  12.719  12.286  14.290
20870SOL    HW164449  12.765  12.338  14.356
20870SOL    HW264450  12.628  12.316  14.296
20871SOL     OW64451   0.088  14.654   1.992
20871SOL    HW164452   0.183  14.649   2.003
20871SOL    HW264453   0.077  14.724   1.927
20872SOL     OW64454   4.363   0.857   8.484
20872SOL    HW164455   4.432   0.798   8.454
20872SOL    HW264456   4.371   0.857   8.580
20873SOL     OW64457   7.277   9.283   4.452
20873SOL    HW164458   7.335   9.222   4.497
20873SOL    HW264459   7.243   9.340   4.521
20874SOL     OW64460  10.690  11.064   2.941
20874SOL    HW164461  10.709  11.129   2.873
20874SOL    HW264462  10.594  11.064   2.948
20875SOL     OW64463   4.018   8.058  13.767
20875SOL    HW164464   4.072   7.986  13.797
20875SOL    HW264465   4.075   8.109  13.709
20876SOL     OW64466   6.491   3.139   7.558
20876SOL    HW164467   6.457   3.184   7.635
20876SOL    HW264468   6.491   3.046   7.582
20877SOL     OW64469   8.876   4.904   3.339
20877SOL    HW164470   8.794   4.916   3.291
20877SOL    HW264471   8.913   4.823   3.303
20878SOL     OW64472  14.271   6.354  11.328
20878SOL    HW164473  14.287   6.446  11.304
20878SOL    HW264474  14.226   6.359  11.412
20879SOL     OW64475  10.746   4.459   5.612
20879SOL    HW164476  10.698   4.376   5.605
20879SOL    HW264477  10.831   4.440   5.573
20880SOL     OW64478   9.308   5.732   9.104
20880SOL    HW164479   9.218   5.758   9.119
20880SOL    HW264480   9.323   5.660   9.165
20881SOL     OW64481   6.185   8.030   6.834
20881SOL    HW164482   6.170   8.055   6.925
20881SOL    HW264483   6.187   8.112   6.786
20882SOL     OW64484  14.110   0.532   9.345
20882SOL    HW164485  14.140   0.612   9.387
20882SOL    HW264486  14.175   0.466   9.369
20883SOL     OW64487   5.792   7.715   8.190
20883SOL    HW164488   5.797   7.763   8.272
20883SOL    HW264489   5.883   7.704   8.163
20884SOL     OW64490   9.210  11.929  12.053
20884SOL    HW164491   9.117  11.908  12.044
20884SOL    HW264492   9.211  12.013  12.100
20885SOL     OW64493   6.196  14.527  14.824
20885SOL    HW164494   6.241  14.461  14.878
20885SOL    HW264495   6.246  14.529  14.742
20886SOL     OW64496   9.988   7.428   3.805
20886SOL    HW164497   9.898   7.397   3.809
20886SOL    HW264498   9.999   7.460   3.715
20887SOL     OW64499   9.190   7.563   7.469
20887SOL    HW164500   9.112   7.591   7.518
20887SOL    HW264501   9.157   7.502   7.403
20888SOL     OW64502  11.556   4.430   6.821
20888SOL    HW164503  11.627   4.375   6.854
20888SOL    HW264504  11.554   4.505   6.881
20889SOL     OW64505   6.240  10.625   9.718
20889SOL    HW164506   6.176  10.643   9.649
20889SOL    HW264507   6.274  10.538   9.698
20890SOL     OW64508   4.067   3.247  14.724
20890SOL    HW164509   4.128   3.256  14.798
20890SOL    HW264510   4.084   3.159  14.689
20891SOL     OW64511  14.681   9.656   0.712
20891SOL    HW164512  14.614   9.651   0.643
20891SOL    HW264513  14.701   9.749   0.719
20892SOL     OW64514   3.656   1.804   7.352
20892SOL    HW164515   3.592   1.734   7.364
20892SOL    HW264516   3.635   1.868   7.420
20893SOL     OW64517  13.991   4.986   2.903
20893SOL    HW164518  14.040   5.053   2.855
20893SOL    HW264519  13.901   4.994   2.869
20894SOL     OW64520   1.982   0.752   1.414
20894SOL    HW164521   1.982   0.702   1.332
20894SOL    HW264522   1.902   0.805   1.409
20895SOL     OW64523  12.531  11.996   7.935
20895SOL    HW164524  12.589  12.041   7.874
20895SOL    HW264525  12.484  11.932   7.882
20896SOL     OW64526   8.195   4.914   9.256
20896SOL    HW164527   8.142   4.970   9.199
20896SOL    HW264528   8.144   4.833   9.263
20897SOL     OW64529  11.536  12.113   7.024
20897SOL    HW164530  11.614  12.081   7.070
20897SOL    HW264531  11.486  12.160   7.091
20898SOL     OW64532   2.572   0.302   3.035
20898SOL    HW164533   2.519   0.285   2.957
20898SOL    HW264534   2.618   0.384   3.015
20899SOL     OW64535   5.450   1.749  13.452
20899SOL    HW164536   5.372   1.695  13.437
20899SOL    HW264537   5.421   1.838  13.433
20900SOL     OW64538   2.244   0.925  10.126
20900SOL    HW164539   2.175   0.978  10.085
20900SOL    HW264540   2.325   0.971  10.107
20901SOL     OW64541  13.139   2.931   4.733
20901SOL    HW164542  13.141   2.861   4.798
20901SOL    HW264543  13.048   2.959   4.730
20902SOL     OW64544   4.487   5.960   7.180
20902SOL    HW164545   4.443   5.905   7.245
20902SOL    HW264546   4.464   6.050   7.205
20903SOL     OW64547   6.042   7.809   7.966
20903SOL    HW164548   6.090   7.822   7.885
20903SOL    HW264549   6.107   7.774   8.027
20904SOL     OW64550   5.980   4.720   4.802
20904SOL    HW164551   6.027   4.657   4.857
20904SOL    HW264552   6.046   4.752   4.740
20905SOL     OW64553   4.030   6.182   5.700
20905SOL    HW164554   4.074   6.264   5.679
20905SOL    HW264555   4.008   6.144   5.615
20906SOL     OW64556   6.630   9.278   3.799
20906SOL    HW164557   6.594   9.213   3.738
20906SOL    HW264558   6.604   9.246   3.885
20907SOL     OW64559   2.737   3.663   1.757
20907SOL    HW164560   2.795   3.643   1.684
20907SOL    HW264561   2.749   3.590   1.817
20908SOL     OW64562   7.891  13.687   9.122
20908SOL    HW164563   7.853  13.710   9.038
20908SOL    HW264564   7.919  13.596   9.112
20909SOL     OW64565   3.091   0.884   3.305
20909SOL    HW164566   3.021   0.945   3.283
20909SOL    HW264567   3.172   0.936   3.299
20910SOL     OW64568  11.417  14.477   6.499
20910SOL    HW164569  11.353  14.544   6.477
20910SOL    HW264570  11.433  14.488   6.593
20911SOL     OW64571   7.123  12.041  12.510
20911SOL    HW164572   7.185  12.028  12.583
20911SOL    HW264573   7.050  11.982  12.530
20912SOL     OW64574  11.864   7.424   1.463
20912SOL    HW164575  11.957   7.405   1.475
20912SOL    HW264576  11.846   7.497   1.521
20913SOL     OW64577  13.748   5.444   1.618
20913SOL    HW164578  13.699   5.363   1.604
20913SOL    HW264579  13.692   5.513   1.581
20914SOL     OW64580  12.379  10.531   3.547
20914SOL    HW164581  12.375  10.565   3.457
20914SOL    HW264582  12.473  10.530   3.567
20915SOL     OW64583   9.039   1.055   7.265
20915SOL    HW164584   8.963   1.019   7.219
20915SOL    HW264585   9.004   1.129   7.314
20916SOL     OW64586  13.269  10.044   1.554
20916SOL    HW164587  13.336  10.004   1.610
20916SOL    HW264588  13.221   9.970   1.516
20917SOL     OW64589  13.669  11.365   0.776
20917SOL    HW164590  13.705  11.276   0.783
20917SOL    HW264591  13.577  11.355   0.798
20918SOL     OW64592  14.483   5.988   2.497
20918SOL    HW164593  14.467   6.052   2.566
20918SOL    HW264594  14.565   6.017   2.456
20919SOL     OW64595  11.786  14.398   6.342
20919SOL    HW164596  11.703  14.358   6.318
20919SOL    HW264597  11.848  14.325   6.344
20920SOL     OW64598  12.197  10.138   0.299
20920SOL    HW164599  12.186  10.106   0.210
20920SOL    HW264600  12.241  10.067   0.345
20921SOL     OW64601  11.556   0.408  10.717
20921SOL    HW164602  11.482   0.460  10.749
20921SOL    HW264603  11.572   0.345  10.788
20922SOL     OW64604   1.190   2.199  10.159
20922SOL    HW164605   1.274   2.152  10.156
20922SOL    HW264606   1.141   2.157  10.230
20923SOL     OW64607  14.317   6.802   6.708
20923SOL    HW164608  14.291   6.823   6.798
20923SOL    HW264609  14.342   6.886   6.670
20924SOL     OW64610   3.937   4.940   6.163
20924SOL    HW164611   3.847   4.973   6.158
20924SOL    HW264612   3.975   4.986   6.237
20925SOL     OW64613   7.662   0.314   8.182
20925SOL    HW164614   7.614   0.356   8.253
20925SOL    HW264615   7.631   0.357   8.103
20926SOL     OW64616   1.556   9.891   9.335
20926SOL    HW164617   1.570   9.836   9.258
20926SOL    HW264618   1.461   9.889   9.349
20927SOL     OW64619   3.682   6.584   3.070
20927SOL    HW164620   3.671   6.522   3.142
20927SOL    HW264621   3.740   6.652   3.105
20928SOL     OW64622   1.891  10.210  14.328
20928SOL    HW164623   1.944  10.207  14.249
20928SOL    HW264624   1.950  10.246  14.395
20929SOL     OW64625   9.954   3.465   0.750
20929SOL    HW164626   9.909   3.535   0.797
20929SOL    HW264627  10.023   3.510   0.700
20930SOL     OW64628   3.702  10.663   1.256
20930SOL    HW164629   3.669  10.609   1.184
20930SOL    HW264630   3.698  10.752   1.223
20931SOL     OW64631  10.727   4.038  14.655
20931SOL    HW164632  10.783   3.992  14.718
20931SOL    HW264633  10.754   4.129  14.661
20932SOL     OW64634   6.932   9.466  11.882
20932SOL    HW164635   6.869   9.439  11.949
20932SOL    HW264636   6.884   9.528  11.827
20933SOL     OW64637  10.761   4.552   7.607
20933SOL    HW164638  10.851   4.571   7.634
20933SOL    HW264639  10.719   4.519   7.687
20934SOL     OW64640  10.061  12.839   0.648
20934SOL    HW164641  10.106  12.772   0.700
20934SOL    HW264642  10.050  12.800   0.562
20935SOL     OW64643  10.529  11.087   7.791
20935SOL    HW164644  10.455  11.148   7.800
20935SOL    HW264645  10.490  11.001   7.807
20936SOL     OW64646   7.471  10.103   0.049
20936SOL    HW164647   7.471  10.197   0.031
20936SOL    HW264648   7.479  10.062  14.842
20937SOL     OW64649   8.845   4.288   3.391
20937SOL    HW164650   8.833   4.296   3.485
20937SOL    HW264651   8.858   4.377   3.360
20938SOL     OW64652   4.069   6.265   7.249
20938SOL    HW164653   4.016   6.207   7.194
20938SOL    HW264654   4.037   6.353   7.229
20939SOL     OW64655   5.625  12.424  11.042
20939SOL    HW164656   5.580  12.346  11.074
20939SOL    HW264657   5.571  12.497  11.073
20940SOL     OW64658  10.436   8.313   2.667
20940SOL    HW164659  10.361   8.333   2.610
20940SOL    HW264660  10.422   8.222   2.694
20941SOL     OW64661   2.104   9.019  14.637
20941SOL    HW164662   2.117   8.941  14.584
20941SOL    HW264663   2.010   9.037  14.631
20942SOL     OW64664   1.740  12.445   9.275
20942SOL    HW164665   1.717  12.530   9.313
20942SOL    HW264666   1.826  12.425   9.311
20943SOL     OW64667   5.060   9.454  13.166
20943SOL    HW164668   5.117   9.433  13.092
20943SOL    HW264669   5.031   9.544  13.149
20944SOL     OW64670   7.090   3.252  10.311
20944SOL    HW164671   7.111   3.183  10.374
20944SOL    HW264672   6.996   3.267  10.321
20945SOL     OW64673   8.709   1.839   4.980
20945SOL    HW164674   8.705   1.843   5.076
20945SOL    HW264675   8.793   1.799   4.961
20946SOL     OW64676   7.913   8.338   3.298
20946SOL    HW164677   7.886   8.430   3.304
20946SOL    HW264678   7.998   8.335   3.341
20947SOL     OW64679   5.580   9.912  11.285
20947SOL    HW164680   5.540   9.998  11.294
20947SOL    HW264681   5.522   9.865  11.224
20948SOL     OW64682   3.726   7.764   5.734
20948SOL    HW164683   3.759   7.826   5.669
20948SOL    HW264684   3.762   7.794   5.817
20949SOL     OW64685  10.338  14.638   1.659
20949SOL    HW164686  10.308  14.689   1.584
20949SOL    HW264687  10.259  14.624   1.712
20950SOL     OW64688  10.031  14.067   8.873
20950SOL    HW164689  10.035  14.163   8.873
20950SOL    HW264690   9.948  14.046   8.915
20951SOL     OW64691  13.292   9.143   4.519
20951SOL    HW164692  13.221   9.175   4.464
20951SOL    HW264693  13.261   9.059   4.553
20952SOL     OW64694  10.496   2.600   8.737
20952SOL    HW164695  10.460   2.684   8.766
20952SOL    HW264696  10.430   2.536   8.762
20953SOL     OW64697  14.508   3.439   1.036
20953SOL    HW164698  14.531   3.355   1.076
20953SOL    HW264699  14.422   3.460   1.072
20954SOL     OW64700  13.077   0.239   1.729
20954SOL    HW164701  13.067   0.328   1.765
20954SOL    HW264702  13.107   0.253   1.639
20955SOL     OW64703   3.867   1.834   1.705
20955SOL    HW164704   3.918   1.783   1.769
20955SOL    HW264705   3.794   1.869   1.755
20956SOL     OW64706  12.606   3.423   1.359
20956SOL    HW164707  12.680   3.403   1.301
20956SOL    HW264708  12.539   3.359   1.337
20957SOL     OW64709  10.649  13.247   4.118
20957SOL    HW164710  10.657  13.310   4.189
20957SOL    HW264711  10.681  13.164   4.154
20958SOL     OW64712  14.356   6.969  10.699
20958SOL    HW164713  14.388   6.881  10.719
20958SOL    HW264714  14.295   6.989  10.770
20959SOL     OW64715  11.578   6.297  13.549
20959SOL    HW164716  11.542   6.367  13.603
20959SOL    HW264717  11.517   6.224  13.561
20960SOL     OW64718   5.170  13.481   7.505
20960SOL    HW164719   5.212  13.563   7.481
20960SOL    HW264720   5.176  13.478   7.600
20961SOL     OW64721  11.820   4.839   7.746
20961SOL    HW164722  11.780   4.924   7.767
20961SOL    HW264723  11.898   4.835   7.802
20962SOL     OW64724   2.342   3.522  14.367
20962SOL    HW164725   2.291   3.460  14.418
20962SOL    HW264726   2.300   3.607  14.384
20963SOL     OW64727   3.147   7.178   3.526
20963SOL    HW164728   3.128   7.264   3.490
20963SOL    HW264729   3.061   7.138   3.539
20964SOL     OW64730   0.277  12.302   8.781
20964SOL    HW164731   0.232  12.294   8.866
20964SOL    HW264732   0.207  12.317   8.718
20965SOL     OW64733  10.430   7.353  12.031
20965SOL    HW164734  10.505   7.394  11.988
20965SOL    HW264735  10.437   7.260  12.008
20966SOL     OW64736  13.274  14.853  10.211
20966SOL    HW164737  13.349  14.803  10.242
20966SOL    HW264738  13.313   0.049  10.166
20967SOL     OW64739   2.736   3.968   8.924
20967SOL    HW164740   2.822   3.943   8.956
20967SOL    HW264741   2.741   3.960   8.829
20968SOL     OW64742  10.549   6.585   4.372
20968SOL    HW164743  10.504   6.651   4.319
20968SOL    HW264744  10.539   6.504   4.323
20969SOL     OW64745   2.310   3.570  12.393
20969SOL    HW164746   2.398   3.558  12.429
20969SOL    HW264747   2.255   3.587  12.469
20970SOL     OW64748   4.039  13.022   9.813
20970SOL    HW164749   3.953  13.044   9.850
20970SOL    HW264750   4.018  12.971   9.735
20971SOL     OW64751   0.114   2.224   0.109
20971SOL    HW164752   0.125   2.220   0.204
20971SOL    HW264753   0.079   2.312   0.093
20972SOL     OW64754  10.814   2.352   5.287
20972SOL    HW164755  10.793   2.259   5.279
20972SOL    HW264756  10.875   2.357   5.361
20973SOL     OW64757   3.667  10.576  12.618
20973SOL    HW164758   3.586  10.524  12.616
20973SOL    HW264759   3.637  10.667  12.627
20974SOL     OW64760  10.270   8.628  12.546
20974SOL    HW164761  10.241   8.716  12.569
20974SOL    HW264762  10.199   8.571  12.575
20975SOL     OW64763   7.399   7.731   3.094
20975SOL    HW164764   7.378   7.823   3.109
20975SOL    HW264765   7.451   7.731   3.013
20976SOL     OW64766  11.263   8.373   6.367
20976SOL    HW164767  11.211   8.453   6.372
20976SOL    HW264768  11.250   8.341   6.278
20977SOL     OW64769   1.832   6.059  11.860
20977SOL    HW164770   1.919   6.042  11.825
20977SOL    HW264771   1.827   6.009  11.941
20978SOL     OW64772  12.411  14.696   4.607
20978SOL    HW164773  12.325  14.695   4.567
20978SOL    HW264774  12.410  14.771   4.667
20979SOL     OW64775   8.232   3.651   7.153
20979SOL    HW164776   8.182   3.730   7.173
20979SOL    HW264777   8.230   3.600   7.234
20980SOL     OW64778   4.900   9.054   0.966
20980SOL    HW164779   4.990   9.028   0.989
20980SOL    HW264780   4.903   9.072   0.872
20981SOL     OW64781   9.422  12.803  10.297
20981SOL    HW164782   9.417  12.878  10.356
20981SOL    HW264783   9.404  12.727  10.353
20982SOL     OW64784   7.945  12.179   8.061
20982SOL    HW164785   7.969  12.090   8.034
20982SOL    HW264786   8.023  12.231   8.042
20983SOL     OW64787   7.050  14.018  10.996
20983SOL    HW164788   7.102  14.032  11.075
20983SOL    HW264789   6.981  14.083  11.001
20984SOL     OW64790   6.281   6.188  10.965
20984SOL    HW164791   6.220   6.114  10.969
20984SOL    HW264792   6.227   6.262  10.938
20985SOL     OW64793  14.365   1.123  10.352
20985SOL    HW164794  14.336   1.034  10.333
20985SOL    HW264795  14.409   1.116  10.437
20986SOL     OW64796   6.698   2.140   2.222
20986SOL    HW164797   6.612   2.099   2.219
20986SOL    HW264798   6.744   2.104   2.146
20987SOL     OW64799   2.120  10.379  12.576
20987SOL    HW164800   2.046  10.386  12.515
20987SOL    HW264801   2.164  10.464  12.569
20988SOL     OW64802   3.549   4.874  11.273
20988SOL    HW164803   3.493   4.940  11.232
20988SOL    HW264804   3.600   4.922  11.338
20989SOL     OW64805   8.579   8.995  11.210
20989SOL    HW164806   8.626   8.979  11.292
20989SOL    HW264807   8.489   8.969  11.229
20990SOL     OW64808   3.855   7.055   3.261
20990SOL    HW164809   3.839   7.127   3.200
20990SOL    HW264810   3.793   7.070   3.333
20991SOL     OW64811   3.303  11.514  11.918
20991SOL    HW164812   3.355  11.433  11.917
20991SOL    HW264813   3.328  11.559  11.837
20992SOL     OW64814   8.133   9.756  12.048
20992SOL    HW164815   8.116   9.849  12.039
20992SOL    HW264816   8.070   9.714  11.989
20993SOL     OW64817  13.599   5.729   9.736
20993SOL    HW164818  13.527   5.785   9.706
20993SOL    HW264819  13.672   5.790   9.750
20994SOL     OW64820  12.659   7.945   8.982
20994SOL    HW164821  12.575   7.899   8.987
20994SOL    HW264822  12.692   7.944   9.071
20995SOL     OW64823   1.895   3.529  11.591
20995SOL    HW164824   1.990   3.531  11.579
20995SOL    HW264825   1.883   3.534  11.686
20996SOL     OW64826   6.544   1.937  12.030
20996SOL    HW164827   6.503   2.015  12.067
20996SOL    HW264828   6.569   1.885  12.106
20997SOL     OW64829   9.743   1.665   1.280
20997SOL    HW164830   9.677   1.659   1.211
20997SOL    HW264831   9.823   1.630   1.241
20998SOL     OW64832  12.754  14.424   2.598
20998SOL    HW164833  12.778  14.406   2.689
20998SOL    HW264834  12.790  14.511   2.581
20999SOL     OW64835   3.119  13.044   9.005
20999SOL    HW164836   3.044  13.021   9.060
20999SOL    HW264837   3.095  13.013   8.917
21000SOL     OW64838  13.576   6.613   6.643
21000SOL    HW164839  13.566   6.708   6.630
21000SOL    HW264840  13.644   6.606   6.710
21001SOL     OW64841  13.591  13.951   4.071
21001SOL    HW164842  13.684  13.927   4.076
21001SOL    HW264843  13.547  13.884   4.123
21002SOL     OW64844   5.623   1.049   8.925
21002SOL    HW164845   5.650   1.011   9.009
21002SOL    HW264846   5.664   1.136   8.925
21003SOL     OW64847  10.425   8.199   1.996
21003SOL    HW164848  10.393   8.113   1.968
21003SOL    HW264849  10.427   8.194   2.091
21004SOL     OW64850   2.706  11.274  13.846
21004SOL    HW164851   2.787  11.317  13.873
21004SOL    HW264852   2.664  11.338  13.787
21005SOL     OW64853   9.811  10.679   7.699
21005SOL    HW164854   9.806  10.679   7.795
21005SOL    HW264855   9.902  10.656   7.680
21006SOL     OW64856   3.897   9.867   6.910
21006SOL    HW164857   3.935   9.788   6.871
21006SOL    HW264858   3.894   9.849   7.004
21007SOL     OW64859   4.497   0.996   3.121
21007SOL    HW164860   4.449   1.013   3.201
21007SOL    HW264861   4.475   0.906   3.098
21008SOL     OW64862  13.463   7.871  10.464
21008SOL    HW164863  13.472   7.958  10.425
21008SOL    HW264864  13.481   7.884  10.557
21009SOL     OW64865  12.157   8.200   1.165
21009SOL    HW164866  12.081   8.165   1.119
21009SOL    HW264867  12.216   8.229   1.095
21010SOL     OW64868   7.906   8.969  10.507
21010SOL    HW164869   7.897   8.952  10.601
21010SOL    HW264870   7.989   8.929  10.483
21011SOL     OW64871   3.571  14.065   4.593
21011SOL    HW164872   3.608  14.104   4.672
21011SOL    HW264873   3.492  14.116   4.576
21012SOL     OW64874  11.937  12.664   8.797
21012SOL    HW164875  11.883  12.635   8.724
21012SOL    HW264876  11.937  12.760   8.790
21013SOL     OW64877   6.524   5.091   1.880
21013SOL    HW164878   6.546   5.103   1.788
21013SOL    HW264879   6.493   5.000   1.886
21014SOL     OW64880  12.412   8.558  13.644
21014SOL    HW164881  12.456   8.547  13.559
21014SOL    HW264882  12.412   8.653  13.658
21015SOL     OW64883  11.278   5.293  13.968
21015SOL    HW164884  11.183   5.291  13.974
21015SOL    HW264885  11.302   5.380  13.999
21016SOL     OW64886  14.859  11.513   8.443
21016SOL    HW164887  14.856  11.418   8.440
21016SOL    HW264888  14.820  11.536   8.528
21017SOL     OW64889  11.760  13.120  14.686
21017SOL    HW164890  11.692  13.065  14.647
21017SOL    HW264891  11.745  13.114  14.780
21018SOL     OW64892   5.967   1.295  10.945
21018SOL    HW164893   6.034   1.345  10.900
21018SOL    HW264894   5.905   1.361  10.978
21019SOL     OW64895  12.978   4.172   0.629
21019SOL    HW164896  12.943   4.090   0.594
21019SOL    HW264897  13.040   4.144   0.697
21020SOL     OW64898  14.467   0.942   0.234
21020SOL    HW164899  14.396   0.985   0.186
21020SOL    HW264900  14.547   0.973   0.191
21021SOL     OW64901   8.939   2.560   6.961
21021SOL    HW164902   9.031   2.558   6.988
21021SOL    HW264903   8.942   2.557   6.865
21022SOL     OW64904  14.661  13.310   8.215
21022SOL    HW164905  14.576  13.325   8.173
21022SOL    HW264906  14.719  13.373   8.173
21023SOL     OW64907   0.185   9.371   7.298
21023SOL    HW164908   0.123   9.411   7.237
21023SOL    HW264909   0.267   9.365   7.250
21024SOL     OW64910   5.473  10.118   0.281
21024SOL    HW164911   5.446  10.027   0.290
21024SOL    HW264912   5.453  10.158   0.366
21025SOL     OW64913  12.144   5.189   9.401
21025SOL    HW164914  12.066   5.232   9.437
21025SOL    HW264915  12.150   5.221   9.312
21026SOL     OW64916   2.348  11.308   3.676
21026SOL    HW164917   2.311  11.254   3.607
21026SOL    HW264918   2.343  11.254   3.755
21027SOL     OW64919   2.461   8.416  11.741
21027SOL    HW164920   2.472   8.354  11.813
21027SOL    HW264921   2.370   8.405  11.713
21028SOL     OW64922   3.953  13.850   7.712
21028SOL    HW164923   4.027  13.817   7.764
21028SOL    HW264924   3.901  13.901   7.774
21029SOL     OW64925   9.014   8.754   8.570
21029SOL    HW164926   9.086   8.705   8.529
21029SOL    HW264927   9.005   8.832   8.517
21030SOL     OW64928   2.704   0.070   0.718
21030SOL    HW164929   2.771   0.065   0.786
21030SOL    HW264930   2.629   0.023   0.755
21031SOL     OW64931   6.748  10.368   0.929
21031SOL    HW164932   6.671  10.311   0.930
21031SOL    HW264933   6.805  10.333   0.998
21032SOL     OW64934  12.523   9.529  10.730
21032SOL    HW164935  12.597   9.579  10.698
21032SOL    HW264936  12.465   9.520  10.654
21033SOL     OW64937   2.268  12.569   6.117
21033SOL    HW164938   2.212  12.531   6.184
21033SOL    HW264939   2.344  12.511   6.114
21034SOL     OW64940   3.568   4.641   5.011
21034SOL    HW164941   3.527   4.562   4.977
21034SOL    HW264942   3.552   4.638   5.106
21035SOL     OW64943   2.947  11.419   1.688
21035SOL    HW164944   3.006  11.491   1.709
21035SOL    HW264945   2.925  11.381   1.772
21036SOL     OW64946   4.837  14.635  11.537
21036SOL    HW164947   4.809  14.548  11.511
21036SOL    HW264948   4.897  14.663  11.468
21037SOL     OW64949   6.258   8.332   6.031
21037SOL    HW164950   6.294   8.418   6.008
21037SOL    HW264951   6.247   8.287   5.948
21038SOL     OW64952   9.577   2.585   7.375
21038SOL    HW164953   9.569   2.642   7.452
21038SOL    HW264954   9.656   2.616   7.330
21039SOL     OW64955   9.434  11.585   0.975
21039SOL    HW164956   9.353  11.590   1.025
21039SOL    HW264957   9.447  11.492   0.960
21040SOL     OW64958  10.621   5.998  13.453
21040SOL    HW164959  10.666   5.919  13.424
21040SOL    HW264960  10.690   6.064  13.460
21041SOL     OW64961   6.658  14.060  13.434
21041SOL    HW164962   6.583  14.028  13.484
21041SOL    HW264963   6.688  14.137  13.482
21042SOL     OW64964  12.218   0.984   3.141
21042SOL    HW164965  12.144   0.950   3.192
21042SOL    HW264966  12.205   1.079   3.143
21043SOL     OW64967  12.140   0.310   6.423
21043SOL    HW164968  12.181   0.351   6.348
21043SOL    HW264969  12.104   0.228   6.389
21044SOL     OW64970   2.382   7.126   2.152
21044SOL    HW164971   2.406   7.203   2.100
21044SOL    HW264972   2.324   7.160   2.220
21045SOL     OW64973   2.918   3.382   8.610
21045SOL    HW164974   2.958   3.384   8.697
21045SOL    HW264975   2.965   3.450   8.561
21046SOL     OW64976   9.280   3.637   6.667
21046SOL    HW164977   9.260   3.567   6.605
21046SOL    HW264978   9.373   3.657   6.652
21047SOL     OW64979   3.523   0.078   3.521
21047SOL    HW164980   3.614   0.059   3.544
21047SOL    HW264981   3.503   0.160   3.566
21048SOL     OW64982  12.754   7.442   0.381
21048SOL    HW164983  12.748   7.527   0.426
21048SOL    HW264984  12.683   7.445   0.317
21049SOL     OW64985  10.431   5.662  14.282
21049SOL    HW164986  10.440   5.569  14.259
21049SOL    HW264987  10.394   5.660  14.370
21050SOL     OW64988   5.610  13.647  12.302
21050SOL    HW164989   5.669  13.720  12.285
21050SOL    HW264990   5.653  13.597  12.372
21051SOL     OW64991  10.126  13.772   2.480
21051SOL    HW164992  10.170  13.857   2.480
21051SOL    HW264993  10.182  13.716   2.427
21052SOL     OW64994   0.789  12.173  12.189
21052SOL    HW164995   0.862  12.195  12.131
21052SOL    HW264996   0.814  12.090  12.229
21053SOL     OW64997  11.488   2.072   7.317
21053SOL    HW164998  11.517   2.154   7.276
21053SOL    HW264999  11.397   2.089   7.342
21054SOL     OW65000   2.828  12.276  14.056
21054SOL    HW165001   2.896  12.211  14.041
21054SOL    HW265002   2.800  12.262  14.147
21055SOL     OW65003  14.244   8.089   9.907
21055SOL    HW165004  14.336   8.086   9.935
21055SOL    HW265005  14.229   8.181   9.883
21056SOL     OW65006   3.598   7.875   7.548
21056SOL    HW165007   3.556   7.956   7.576
21056SOL    HW265008   3.545   7.806   7.589
21057SOL     OW65009   8.490   2.777  11.491
21057SOL    HW165010   8.522   2.730  11.414
21057SOL    HW265011   8.443   2.711  11.542
21058SOL     OW65012  11.889  12.224   6.882
21058SOL    HW165013  11.798  12.242   6.907
21058SOL    HW265014  11.927  12.181   6.958
21059SOL     OW65015   1.198   7.689   1.931
21059SOL    HW165016   1.208   7.641   1.849
21059SOL    HW265017   1.282   7.733   1.944
21060SOL     OW65018   3.726  10.843   7.368
21060SOL    HW165019   3.785  10.784   7.415
21060SOL    HW265020   3.760  10.930   7.384
21061SOL     OW65021  10.798   2.374   7.778
21061SOL    HW165022  10.730   2.413   7.834
21061SOL    HW265023  10.871   2.357   7.837
21062SOL     OW65024  12.540   7.957   7.152
21062SOL    HW165025  12.510   8.025   7.092
21062SOL    HW265026  12.463   7.933   7.203
21063SOL     OW65027   6.758   8.394   1.457
21063SOL    HW165028   6.815   8.346   1.518
21063SOL    HW265029   6.669   8.372   1.486
21064SOL     OW65030   9.184   7.445   0.289
21064SOL    HW165031   9.223   7.440   0.376
21064SOL    HW265032   9.145   7.532   0.285
21065SOL     OW65033   8.698   6.110   1.412
21065SOL    HW165034   8.712   6.104   1.318
21065SOL    HW265035   8.786   6.107   1.450
21066SOL     OW65036   5.807   0.395   4.009
21066SOL    HW165037   5.761   0.446   3.942
21066SOL    HW265038   5.738   0.360   4.065
21067SOL     OW65039  14.557  12.045   9.201
21067SOL    HW165040  14.552  12.115   9.266
21067SOL    HW265041  14.470  12.042   9.161
21068SOL     OW65042  14.044   9.127   1.001
21068SOL    HW165043  14.026   9.048   1.052
21068SOL    HW265044  13.984   9.122   0.927
21069SOL     OW65045  11.156   6.012   0.156
21069SOL    HW165046  11.230   6.015   0.095
21069SOL    HW265047  11.123   5.922   0.148
21070SOL     OW65048   2.464   1.604  11.091
21070SOL    HW165049   2.371   1.621  11.075
21070SOL    HW265050   2.483   1.648  11.174
21071SOL     OW65051   8.170  13.498   1.501
21071SOL    HW165052   8.104  13.505   1.570
21071SOL    HW265053   8.253  13.513   1.547
21072SOL     OW65054   7.607  10.637  10.979
21072SOL    HW165055   7.629  10.548  11.006
21072SOL    HW265056   7.660  10.694  11.035
21073SOL     OW65057  14.698   8.846  13.505
21073SOL    HW165058  14.748   8.877  13.580
21073SOL    HW265059  14.676   8.755  13.527
21074SOL     OW65060   5.315   6.014  13.961
21074SOL    HW165061   5.312   6.075  13.887
21074SOL    HW265062   5.225   5.982  13.969
21075SOL     OW65063   9.407   3.786   4.205
21075SOL    HW165064   9.397   3.881   4.208
21075SOL    HW265065   9.370   3.755   4.287
21076SOL     OW65066   8.974   8.064   8.780
21076SOL    HW165067   9.009   8.153   8.776
21076SOL    HW265068   8.962   8.048   8.874
21077SOL     OW65069  11.081   9.315   8.563
21077SOL    HW165070  11.058   9.369   8.639
21077SOL    HW265071  11.059   9.370   8.487
21078SOL     OW65072   7.464   0.803   8.552
21078SOL    HW165073   7.448   0.782   8.644
21078SOL    HW265074   7.385   0.848   8.524
21079SOL     OW65075  13.541   2.940  12.844
21079SOL    HW165076  13.468   3.003  12.843
21079SOL    HW265077  13.533   2.894  12.760
21080SOL     OW65078  14.022  14.716  14.095
21080SOL    HW165079  13.993  14.670  14.016
21080SOL    HW265080  13.978  14.801  14.091
21081SOL     OW65081  12.633   1.558  14.743
21081SOL    HW165082  12.596   1.469  14.740
21081SOL    HW265083  12.599   1.595  14.824
21082SOL     OW65084   1.820   8.743   6.715
21082SOL    HW165085   1.774   8.826   6.701
21082SOL    HW265086   1.811   8.727   6.809
21083SOL     OW65087   1.368   5.183   2.830
21083SOL    HW165088   1.439   5.188   2.894
21083SOL    HW265089   1.401   5.229   2.753
21084SOL     OW65090  13.438   5.993   5.719
21084SOL    HW165091  13.476   5.920   5.768
21084SOL    HW265092  13.388   5.951   5.649
21085SOL     OW65093   3.095  12.110  10.991
21085SOL    HW165094   3.140  12.109  10.907
21085SOL    HW265095   3.111  12.024  11.028
21086SOL     OW65096   0.607   8.572   6.149
21086SOL    HW165097   0.609   8.477   6.159
21086SOL    HW265098   0.692   8.602   6.182
21087SOL     OW65099  10.845  13.799   7.516
21087SOL    HW165100  10.760  13.822   7.553
21087SOL    HW265101  10.872  13.877   7.468
21088SOL     OW65102   3.259   2.221   5.439
21088SOL    HW165103   3.239   2.174   5.520
21088SOL    HW265104   3.191   2.194   5.378
21089SOL     OW65105  11.098   1.179  14.667
21089SOL    HW165106  11.127   1.088  14.665
21089SOL    HW265107  11.161   1.225  14.612
21090SOL     OW65108  10.406   0.392   1.131
21090SOL    HW165109  10.457   0.473   1.137
21090SOL    HW265110  10.387   0.369   1.222
21091SOL     OW65111   5.660   9.098  12.531
21091SOL    HW165112   5.687   9.037  12.599
21091SOL    HW265113   5.715   9.176  12.546
21092SOL     OW65114   5.842  12.748   0.403
21092SOL    HW165115   5.899  12.681   0.442
21092SOL    HW265116   5.901  12.820   0.382
21093SOL     OW65117   5.466   3.656   9.059
21093SOL    HW165118   5.394   3.689   9.004
21093SOL    HW265119   5.505   3.735   9.096
21094SOL     OW65120   8.689  13.750   7.919
21094SOL    HW165121   8.632  13.674   7.909
21094SOL    HW265122   8.656  13.813   7.856
21095SOL     OW65123   8.640  14.756   0.007
21095SOL    HW165124   8.596  14.753  14.802
21095SOL    HW265125   8.720  14.706  14.874
21096SOL     OW65126  14.455  14.728   9.602
21096SOL    HW165127  14.536  14.687   9.572
21096SOL    HW265128  14.428  14.675   9.676
21097SOL     OW65129   7.444   8.714  13.877
21097SOL    HW165130   7.463   8.804  13.902
21097SOL    HW265131   7.409   8.673  13.956
21098SOL     OW65132   4.415   6.199   3.390
21098SOL    HW165133   4.505   6.192   3.359
21098SOL    HW265134   4.368   6.130   3.343
21099SOL     OW65135   3.716   9.159   1.080
21099SOL    HW165136   3.730   9.069   1.107
21099SOL    HW265137   3.622   9.163   1.060
21100SOL     OW65138  11.953   1.884   4.727
21100SOL    HW165139  11.881   1.948   4.728
21100SOL    HW265140  11.937   1.829   4.805
21101SOL     OW65141  13.795   6.919  13.589
21101SOL    HW165142  13.731   6.856  13.555
21101SOL    HW265143  13.846   6.944  13.512
21102SOL     OW65144   0.564   8.768   3.642
21102SOL    HW165145   0.605   8.687   3.673
21102SOL    HW265146   0.626   8.805   3.580
21103SOL     OW65147   4.661   2.526  13.215
21103SOL    HW165148   4.620   2.544  13.299
21103SOL    HW265149   4.627   2.441  13.189
21104SOL     OW65150   3.540   5.887  13.670
21104SOL    HW165151   3.507   5.804  13.702
21104SOL    HW265152   3.549   5.874  13.575
21105SOL     OW65153  13.989   9.545   9.768
21105SOL    HW165154  13.978   9.459   9.809
21105SOL    HW265155  13.902   9.584   9.768
21106SOL     OW65156  11.081   5.011   5.145
21106SOL    HW165157  11.111   5.101   5.127
21106SOL    HW265158  11.122   4.958   5.076
21107SOL     OW65159   4.882   1.975  13.289
21107SOL    HW165160   4.868   2.031  13.213
21107SOL    HW265161   4.823   2.010  13.356
21108SOL     OW65162   1.578  14.146  12.262
21108SOL    HW165163   1.641  14.210  12.227
21108SOL    HW265164   1.579  14.074  12.199
21109SOL     OW65165  12.139   9.323  12.701
21109SOL    HW165166  12.108   9.244  12.656
21109SOL    HW265167  12.136   9.300  12.794
21110SOL     OW65168   5.519   1.612  14.270
21110SOL    HW165169   5.513   1.624  14.175
21110SOL    HW265170   5.453   1.547  14.290
21111SOL     OW65171   9.924  12.857   2.601
21111SOL    HW165172   9.852  12.916   2.623
21111SOL    HW265173   9.914  12.783   2.661
21112SOL     OW65174   5.259   2.773   8.396
21112SOL    HW165175   5.326   2.838   8.373
21112SOL    HW265176   5.176   2.819   8.383
21113SOL     OW65177   6.125   6.122   2.149
21113SOL    HW165178   6.206   6.159   2.183
21113SOL    HW265179   6.093   6.188   2.086
21114SOL     OW65180   7.245   2.063  12.736
21114SOL    HW165181   7.271   2.043  12.646
21114SOL    HW265182   7.153   2.091  12.729
21115SOL     OW65183   7.187   5.839   1.153
21115SOL    HW165184   7.210   5.931   1.137
21115SOL    HW265185   7.152   5.808   1.069
21116SOL     OW65186   5.773  11.881   2.482
21116SOL    HW165187   5.739  11.821   2.415
21116SOL    HW265188   5.782  11.965   2.436
21117SOL     OW65189  10.344  11.088   6.268
21117SOL    HW165190  10.425  11.045   6.296
21117SOL    HW265191  10.319  11.142   6.343
21118SOL     OW65192  12.866  12.415  14.572
21118SOL    HW165193  12.918  12.366  14.636
21118SOL    HW265194  12.787  12.439  14.619
21119SOL     OW65195  12.791   7.732  13.624
21119SOL    HW165196  12.736   7.664  13.663
21119SOL    HW265197  12.763   7.813  13.667
21120SOL     OW65198   1.155   7.589  11.108
21120SOL    HW165199   1.107   7.611  11.028
21120SOL    HW265200   1.106   7.517  11.147
21121SOL     OW65201   5.314   5.973   2.595
21121SOL    HW165202   5.324   6.067   2.580
21121SOL    HW265203   5.226   5.963   2.631
21122SOL     OW65204   3.717   9.057   5.764
21122SOL    HW165205   3.769   9.113   5.706
21122SOL    HW265206   3.770   9.047   5.843
21123SOL     OW65207   1.222  10.186   4.957
21123SOL    HW165208   1.188  10.259   5.007
21123SOL    HW265209   1.264  10.129   5.022
21124SOL     OW65210   1.599   5.887  11.346
21124SOL    HW165211   1.525   5.839  11.307
21124SOL    HW265212   1.624   5.950  11.278
21125SOL     OW65213  10.791   0.904   7.121
21125SOL    HW165214  10.817   0.841   7.054
21125SOL    HW265215  10.827   0.870   7.203
21126SOL     OW65216   9.350  14.339   0.637
21126SOL    HW165217   9.351  14.432   0.617
21126SOL    HW265218   9.316  14.333   0.726
21127SOL     OW65219  10.678   2.036   4.253
21127SOL    HW165220  10.591   2.031   4.214
21127SOL    HW265221  10.664   2.076   4.338
21128SOL     OW65222   7.439   5.034   8.074
21128SOL    HW165223   7.366   5.092   8.052
21128SOL    HW265224   7.481   5.076   8.149
21129SOL     OW65225  13.936  12.314  11.877
21129SOL    HW165226  13.865  12.291  11.818
21129SOL    HW265227  14.000  12.243  11.867
21130SOL     OW65228  12.795   5.112  14.587
21130SOL    HW165229  12.788   5.060  14.507
21130SOL    HW265230  12.728   5.075  14.645
21131SOL     OW65231   7.536  12.727   6.034
21131SOL    HW165232   7.513  12.638   6.006
21131SOL    HW265233   7.487  12.740   6.115
21132SOL     OW65234   8.198  11.057  14.629
21132SOL    HW165235   8.256  11.080  14.701
21132SOL    HW265236   8.176  10.965  14.644
21133SOL     OW65237   3.282   7.162   7.706
21133SOL    HW165238   3.329   7.130   7.783
21133SOL    HW265239   3.244   7.083   7.667
21134SOL     OW65240   4.098   8.189  11.641
21134SOL    HW165241   4.079   8.241  11.719
21134SOL    HW265242   4.124   8.253  11.575
21135SOL     OW65243  10.175   3.228  11.245
21135SOL    HW165244  10.134   3.310  11.272
21135SOL    HW265245  10.266   3.236  11.273
21136SOL     OW65246  12.347   9.209   9.437
21136SOL    HW165247  12.410   9.275   9.468
21136SOL    HW265248  12.378   9.127   9.474
21137SOL     OW65249   5.216   5.589   6.146
21137SOL    HW165250   5.215   5.658   6.080
21137SOL    HW265251   5.281   5.617   6.210
21138SOL     OW65252   5.177  10.655   9.046
21138SOL    HW165253   5.090  10.682   9.075
21138SOL    HW265254   5.200  10.717   8.978
21139SOL     OW65255   1.229  12.121  13.095
21139SOL    HW165256   1.176  12.200  13.085
21139SOL    HW265257   1.307  12.138  13.042
21140SOL     OW65258   4.251  14.827  13.880
21140SOL    HW165259   4.347  14.827  13.875
21140SOL    HW265260   4.222  14.823  13.789
21141SOL     OW65261   0.102   6.352   7.505
21141SOL    HW165262   0.119   6.335   7.598
21141SOL    HW265263   0.188   6.345   7.463
21142SOL     OW65264   3.901  13.714   5.903
21142SOL    HW165265   3.881  13.632   5.948
21142SOL    HW265266   3.821  13.766   5.911
21143SOL     OW65267   3.805   3.736  12.882
21143SOL    HW165268   3.747   3.671  12.924
21143SOL    HW265269   3.785   3.818  12.927
21144SOL     OW65270  11.707   6.264   6.884
21144SOL    HW165271  11.768   6.333   6.860
21144SOL    HW265272  11.749   6.183   6.855
21145SOL     OW65273   7.458   4.777   7.006
21145SOL    HW165274   7.399   4.815   7.072
21145SOL    HW265275   7.402   4.719   6.954
21146SOL     OW65276   2.056  10.736  11.018
21146SOL    HW165277   2.146  10.737  10.985
21146SOL    HW265278   2.051  10.656  11.071
21147SOL     OW65279  14.130   5.898   7.470
21147SOL    HW165280  14.215   5.909   7.512
21147SOL    HW265281  14.068   5.941   7.529
21148SOL     OW65282   9.053   0.501  11.399
21148SOL    HW165283   9.018   0.448  11.471
21148SOL    HW265284   8.982   0.504  11.335
21149SOL     OW65285   5.835   3.516   3.032
21149SOL    HW165286   5.760   3.464   3.004
21149SOL    HW265287   5.871   3.468   3.106
21150SOL     OW65288   7.092  12.368  10.085
21150SOL    HW165289   7.072  12.285  10.129
21150SOL    HW265290   7.012  12.420  10.096
21151SOL     OW65291  10.604   6.810   9.513
21151SOL    HW165292  10.640   6.862   9.442
21151SOL    HW265293  10.582   6.874   9.581
21152SOL     OW65294   0.690   8.822  12.815
21152SOL    HW165295   0.710   8.904  12.859
21152SOL    HW265296   0.594   8.818  12.814
21153SOL     OW65297  10.535   4.467   2.031
21153SOL    HW165298  10.452   4.504   2.002
21153SOL    HW265299  10.558   4.517   2.110
21154SOL     OW65300   5.098  11.042   1.235
21154SOL    HW165301   5.111  11.065   1.143
21154SOL    HW265302   5.025  10.980   1.235
21155SOL     OW65303   5.778   1.974   0.629
21155SOL    HW165304   5.858   1.968   0.576
21155SOL    HW265305   5.778   1.894   0.681
21156SOL     OW65306   7.034   9.654   1.094
21156SOL    HW165307   7.119   9.638   1.053
21156SOL    HW265308   7.039   9.608   1.178
21157SOL     OW65309   0.814   1.820   4.710
21157SOL    HW165310   0.840   1.912   4.715
21157SOL    HW265311   0.857   1.788   4.630
21158SOL     OW65312   8.760   1.652  12.689
21158SOL    HW165313   8.711   1.585  12.738
21158SOL    HW265314   8.836   1.605  12.655
21159SOL     OW65315   6.233   3.115  12.827
21159SOL    HW165316   6.169   3.170  12.784
21159SOL    HW265317   6.299   3.097  12.760
21160SOL     OW65318  12.100  10.929  11.241
21160SOL    HW165319  12.097  10.882  11.158
21160SOL    HW265320  12.035  10.885  11.296
21161SOL     OW65321   8.946  13.010   5.584
21161SOL    HW165322   8.903  13.001   5.670
21161SOL    HW265323   8.897  13.079   5.540
21162SOL     OW65324   6.980  13.728   4.869
21162SOL    HW165325   7.016  13.749   4.784
21162SOL    HW265326   6.895  13.687   4.850
21163SOL     OW65327  11.901   7.022   2.523
21163SOL    HW165328  11.957   7.001   2.448
21163SOL    HW265329  11.846   6.945   2.534
21164SOL     OW65330   6.065  14.108   9.466
21164SOL    HW165331   6.065  14.015   9.489
21164SOL    HW265332   5.975  14.125   9.436
21165SOL     OW65333   2.517   9.592   6.763
21165SOL    HW165334   2.454   9.643   6.711
21165SOL    HW265335   2.577   9.555   6.698
21166SOL     OW65336  11.525   3.176   2.426
21166SOL    HW165337  11.448   3.124   2.450
21166SOL    HW265338  11.510   3.261   2.467
21167SOL     OW65339   2.056   5.156  12.144
21167SOL    HW165340   1.989   5.150  12.075
21167SOL    HW265341   2.026   5.096  12.212
21168SOL     OW65342   4.683  10.598   1.585
21168SOL    HW165343   4.655  10.581   1.675
21168SOL    HW265344   4.674  10.514   1.541
21169SOL     OW65345  14.045  11.131   3.028
21169SOL    HW165346  14.088  11.192   2.969
21169SOL    HW265347  13.986  11.185   3.081
21170SOL     OW65348   6.488  14.509  12.963
21170SOL    HW165349   6.441  14.426  12.952
21170SOL    HW265350   6.516  14.509  13.055
21171SOL     OW65351   0.117  14.638   6.145
21171SOL    HW165352   0.078  14.592   6.219
21171SOL    HW265353   0.059  14.712   6.129
21172SOL     OW65354   2.235   4.601  10.452
21172SOL    HW165355   2.265   4.680  10.496
21172SOL    HW265356   2.199   4.632  10.369
21173SOL     OW65357   5.286   1.045   9.167
21173SOL    HW165358   5.220   1.097   9.214
21173SOL    HW265359   5.258   1.048   9.075
21174SOL     OW65360  11.061   4.999   5.429
21174SOL    HW165361  10.978   5.045   5.441
21174SOL    HW265362  11.074   4.998   5.334
21175SOL     OW65363  10.253   6.492   8.218
21175SOL    HW165364  10.239   6.503   8.124
21175SOL    HW265365  10.172   6.452   8.250
21176SOL     OW65366  14.858   1.207   4.320
21176SOL    HW165367  14.864   1.183   4.227
21176SOL    HW265368  14.869   1.302   4.321
21177SOL     OW65369  13.719  13.442  13.875
21177SOL    HW165370  13.747  13.353  13.896
21177SOL    HW265371  13.673  13.472  13.954
21178SOL     OW65372   0.184   6.655  13.921
21178SOL    HW165373   0.103   6.692  13.886
21178SOL    HW265374   0.206   6.583  13.862
21179SOL     OW65375  14.043   4.446   1.640
21179SOL    HW165376  14.037   4.366   1.587
21179SOL    HW265377  13.978   4.434   1.709
21180SOL     OW65378  10.739   6.786  11.797
21180SOL    HW165379  10.697   6.703  11.818
21180SOL    HW265380  10.669   6.839  11.760
21181SOL     OW65381  13.648  10.023  13.818
21181SOL    HW165382  13.564  10.008  13.862
21181SOL    HW265383  13.682   9.935  13.801
21182SOL     OW65384  14.867  14.422   9.501
21182SOL    HW165385  14.841  14.357   9.436
21182SOL    HW265386  14.809  14.407   9.576
21183SOL     OW65387   5.421  13.007   9.141
21183SOL    HW165388   5.443  13.096   9.168
21183SOL    HW265389   5.486  12.952   9.183
21184SOL     OW65390   0.335  12.678   6.719
21184SOL    HW165391   0.280  12.701   6.794
21184SOL    HW265392   0.303  12.594   6.689
21185SOL     OW65393  14.363   2.205   7.696
21185SOL    HW165394  14.309   2.179   7.621
21185SOL    HW265395  14.344   2.139   7.762
21186SOL     OW65396   5.132   5.764   0.783
21186SOL    HW165397   5.085   5.796   0.860
21186SOL    HW265398   5.076   5.788   0.709
21187SOL     OW65399   5.023  13.975   9.018
21187SOL    HW165400   4.942  13.954   8.971
21187SOL    HW265401   4.996  14.038   9.084
21188SOL     OW65402   5.573  13.663  11.494
21188SOL    HW165403   5.602  13.609  11.420
21188SOL    HW265404   5.483  13.633  11.511
21189SOL     OW65405   3.101  10.031   2.056
21189SOL    HW165406   3.169  10.023   2.122
21189SOL    HW265407   3.075  10.123   2.058
21190SOL     OW65408  14.809   2.264   2.979
21190SOL    HW165409  14.850   2.335   2.930
21190SOL    HW265410  14.771   2.306   3.057
21191SOL     OW65411   5.636   8.143   2.832
21191SOL    HW165412   5.665   8.181   2.750
21191SOL    HW265413   5.675   8.055   2.834
21192SOL     OW65414  11.798   7.192   9.315
21192SOL    HW165415  11.846   7.231   9.242
21192SOL    HW265416  11.763   7.111   9.280
21193SOL     OW65417  12.926  14.187   5.899
21193SOL    HW165418  12.940  14.280   5.881
21193SOL    HW265419  12.918  14.147   5.812
21194SOL     OW65420   8.744   9.884   1.598
21194SOL    HW165421   8.722   9.942   1.526
21194SOL    HW265422   8.694   9.804   1.581
21195SOL     OW65423   7.436   2.438   0.551
21195SOL    HW165424   7.524   2.401   0.556
21195SOL    HW265425   7.427   2.465   0.460
21196SOL     OW65426   6.574   2.524  12.466
21196SOL    HW165427   6.620   2.547  12.385
21196SOL    HW265428   6.615   2.580  12.533
21197SOL     OW65429  11.988   1.524   4.727
21197SOL    HW165430  11.901   1.539   4.691
21197SOL    HW265431  12.000   1.429   4.721
21198SOL     OW65432   7.275   6.484   2.800
21198SOL    HW165433   7.234   6.409   2.843
21198SOL    HW265434   7.224   6.498   2.721
21199SOL     OW65435   2.611   7.267   4.320
21199SOL    HW165436   2.603   7.308   4.407
21199SOL    HW265437   2.522   7.238   4.300
21200SOL     OW65438   9.614   7.343   7.036
21200SOL    HW165439   9.543   7.407   7.039
21200SOL    HW265440   9.636   7.336   6.943
21201SOL     OW65441   9.192   7.849   6.890
21201SOL    HW165442   9.283   7.820   6.892
21201SOL    HW265443   9.147   7.783   6.836
21202SOL     OW65444   1.606   3.543  14.491
21202SOL    HW165445   1.560   3.594  14.558
21202SOL    HW265446   1.586   3.452  14.511
21203SOL     OW65447   9.115  11.413   7.069
21203SOL    HW165448   9.021  11.399   7.055
21203SOL    HW265449   9.141  11.345   7.131
21204SOL     OW65450   0.304   7.654   8.029
21204SOL    HW165451   0.309   7.654   8.124
21204SOL    HW265452   0.355   7.730   8.002
21205SOL     OW65453   6.090   3.950   3.469
21205SOL    HW165454   6.064   3.902   3.549
21205SOL    HW265455   6.077   3.886   3.399
21206SOL     OW65456  10.357   7.304   3.736
21206SOL    HW165457  10.397   7.292   3.822
21206SOL    HW265458  10.360   7.399   3.721
21207SOL     OW65459   5.444   2.628   9.052
21207SOL    HW165460   5.420   2.540   9.025
21207SOL    HW265461   5.536   2.636   9.029
21208SOL     OW65462   4.356   1.006  11.501
21208SOL    HW165463   4.449   1.024  11.518
21208SOL    HW265464   4.316   1.000  11.587
21209SOL     OW65465  11.241   9.382   4.808
21209SOL    HW165466  11.193   9.461   4.833
21209SOL    HW265467  11.173   9.317   4.790
21210SOL     OW65468   8.976  13.173   4.427
21210SOL    HW165469   9.017  13.092   4.458
21210SOL    HW265470   8.928  13.206   4.503
21211SOL     OW65471   0.554   1.200   2.435
21211SOL    HW165472   0.596   1.232   2.515
21211SOL    HW265473   0.481   1.146   2.466
21212SOL     OW65474   3.354   3.472   7.230
21212SOL    HW165475   3.327   3.526   7.304
21212SOL    HW265476   3.277   3.468   7.173
21213SOL     OW65477  10.307  13.249  13.165
21213SOL    HW165478  10.253  13.274  13.091
21213SOL    HW265479  10.274  13.302  13.238
21214SOL     OW65480   1.148  13.598   2.073
21214SOL    HW165481   1.097  13.648   2.008
21214SOL    HW265482   1.203  13.664   2.116
21215SOL     OW65483  10.661   0.826  10.393
21215SOL    HW165484  10.620   0.749  10.353
21215SOL    HW265485  10.682   0.798  10.482
21216SOL     OW65486   8.820  14.135  14.345
21216SOL    HW165487   8.772  14.205  14.391
21216SOL    HW265488   8.793  14.145  14.254
21217SOL     OW65489   4.144   5.493  11.738
21217SOL    HW165490   4.160   5.415  11.685
21217SOL    HW265491   4.064   5.530  11.702
21218SOL     OW65492  12.152   4.751   5.860
21218SOL    HW165493  12.064   4.714   5.859
21218SOL    HW265494  12.188   4.726   5.945
21219SOL     OW65495  12.377   4.380   4.869
21219SOL    HW165496  12.422   4.407   4.950
21219SOL    HW265497  12.446   4.382   4.802
21220SOL     OW65498   8.569   3.184   4.499
21220SOL    HW165499   8.664   3.178   4.507
21220SOL    HW265500   8.555   3.257   4.438
21221SOL     OW65501   1.460   3.602   0.313
21221SOL    HW165502   1.470   3.614   0.218
21221SOL    HW265503   1.530   3.541   0.337
21222SOL     OW65504  12.927   7.636  11.675
21222SOL    HW165505  12.851   7.690  11.697
21222SOL    HW265506  12.890   7.551  11.651
21223SOL     OW65507   5.348   2.982   9.553
21223SOL    HW165508   5.393   2.987   9.637
21223SOL    HW265509   5.416   2.993   9.487
21224SOL     OW65510  10.187   5.616   8.337
21224SOL    HW165511  10.157   5.629   8.427
21224SOL    HW265512  10.199   5.522   8.328
21225SOL     OW65513  14.872   1.116   7.173
21225SOL    HW165514  14.812   1.186   7.197
21225SOL    HW265515   0.078   1.158   7.167
21226SOL     OW65516   5.546   3.738   8.711
21226SOL    HW165517   5.581   3.649   8.713
21226SOL    HW265518   5.451   3.728   8.716
21227SOL     OW65519   5.139   6.218  14.711
21227SOL    HW165520   5.102   6.196  14.796
21227SOL    HW265521   5.201   6.148  14.693
21228SOL     OW65522  12.270   1.377  11.016
21228SOL    HW165523  12.299   1.390  11.106
21228SOL    HW265524  12.349   1.388  10.963
21229SOL     OW65525   0.893   8.414   8.873
21229SOL    HW165526   0.947   8.349   8.917
21229SOL    HW265527   0.809   8.371   8.860
21230SOL     OW65528  13.001  10.716   1.274
21230SOL    HW165529  13.081  10.675   1.307
21230SOL    HW265530  13.008  10.807   1.300
21231SOL     OW65531  11.784   8.945   4.235
21231SOL    HW165532  11.775   9.000   4.157
21231SOL    HW265533  11.827   9.002   4.299
21232SOL     OW65534   8.407   6.488  10.179
21232SOL    HW165535   8.334   6.425  10.180
21232SOL    HW265536   8.406   6.527  10.267
21233SOL     OW65537   0.285  13.656   6.499
21233SOL    HW165538   0.350  13.591   6.471
21233SOL    HW265539   0.266  13.633   6.589
21234SOL     OW65540  13.154   3.510  11.301
21234SOL    HW165541  13.139   3.455  11.378
21234SOL    HW265542  13.099   3.587  11.315
21235SOL     OW65543   9.399   4.269   9.680
21235SOL    HW165544   9.416   4.235   9.593
21235SOL    HW265545   9.304   4.280   9.684
21236SOL     OW65546   9.183   0.610  13.276
21236SOL    HW165547   9.226   0.574  13.354
21236SOL    HW265548   9.093   0.580  13.283
21237SOL     OW65549   9.153  12.327   8.779
21237SOL    HW165550   9.207  12.318   8.857
21237SOL    HW265551   9.177  12.252   8.724
21238SOL     OW65552  13.296  10.142  14.780
21238SOL    HW165553  13.337  10.228  14.791
21238SOL    HW265554  13.218  10.145  14.835
21239SOL     OW65555   9.055   9.309   8.244
21239SOL    HW165556   9.121   9.376   8.226
21239SOL    HW265557   9.025   9.280   8.158
21240SOL     OW65558  14.030   0.438  12.284
21240SOL    HW165559  13.935   0.429  12.295
21240SOL    HW265560  14.063   0.348  12.287
21241SOL     OW65561   1.313   8.038  12.444
21241SOL    HW165562   1.401   8.002  12.431
21241SOL    HW265563   1.273   8.033  12.357
21242SOL     OW65564  13.706   0.338   0.671
21242SOL    HW165565  13.631   0.368   0.723
21242SOL    HW265566  13.742   0.265   0.721
21243SOL     OW65567  11.739   9.560   1.374
21243SOL    HW165568  11.670   9.500   1.345
21243SOL    HW265569  11.719   9.642   1.330
21244SOL     OW65570   7.356   0.015   8.858
21244SOL    HW165571   7.340  14.850   8.941
21244SOL    HW265572   7.283  14.869   8.802
21245SOL     OW65573   2.108   5.996  11.280
21245SOL    HW165574   2.035   5.967  11.334
21245SOL    HW265575   2.165   5.919  11.273
21246SOL     OW65576   1.839  14.166   8.852
21246SOL    HW165577   1.774  14.124   8.908
21246SOL    HW265578   1.878  14.094   8.802
21247SOL     OW65579   4.400   7.584   0.301
21247SOL    HW165580   4.305   7.577   0.296
21247SOL    HW265581   4.430   7.494   0.314
21248SOL     OW65582   7.340   0.855   0.685
21248SOL    HW165583   7.435   0.845   0.695
21248SOL    HW265584   7.304   0.772   0.713
21249SOL     OW65585  14.588   4.079  13.217
21249SOL    HW165586  14.655   4.013  13.199
21249SOL    HW265587  14.508   4.044  13.178
21250SOL     OW65588  11.123  14.259  12.468
21250SOL    HW165589  11.125  14.270  12.373
21250SOL    HW265590  11.110  14.348  12.502
21251SOL     OW65591   8.268  10.219   3.078
21251SOL    HW165592   8.295  10.170   3.155
21251SOL    HW265593   8.185  10.180   3.052
21252SOL     OW65594  11.031   2.573   9.771
21252SOL    HW165595  11.117   2.577   9.812
21252SOL    HW265596  10.974   2.538   9.839
21253SOL     OW65597   0.308   6.270   6.557
21253SOL    HW165598   0.318   6.219   6.637
21253SOL    HW265599   0.264   6.211   6.496
21254SOL     OW65600  14.426   9.375   1.102
21254SOL    HW165601  14.482   9.355   1.027
21254SOL    HW265602  14.358   9.433   1.067
21255SOL     OW65603   8.344   7.364  11.882
21255SOL    HW165604   8.338   7.370  11.786
21255SOL    HW265605   8.265   7.318  11.908
21256SOL     OW65606   7.363   6.145   5.945
21256SOL    HW165607   7.353   6.077   5.879
21256SOL    HW265608   7.293   6.128   6.008
21257SOL     OW65609   8.252  10.707   6.605
21257SOL    HW165610   8.273  10.770   6.537
21257SOL    HW265611   8.158  10.695   6.599
21258SOL     OW65612   2.384  13.904   4.877
21258SOL    HW165613   2.439  13.862   4.811
21258SOL    HW265614   2.351  13.983   4.835
21259SOL     OW65615   3.475   1.208  12.269
21259SOL    HW165616   3.535   1.272  12.229
21259SOL    HW265617   3.416   1.261  12.323
21260SOL     OW65618   5.670   8.307  13.934
21260SOL    HW165619   5.628   8.231  13.975
21260SOL    HW265620   5.598   8.364  13.910
21261SOL     OW65621   3.339   9.536   3.138
21261SOL    HW165622   3.377   9.463   3.088
21261SOL    HW265623   3.415   9.582   3.175
21262SOL     OW65624   1.194   4.059   1.209
21262SOL    HW165625   1.271   4.016   1.248
21262SOL    HW265626   1.139   4.081   1.284
21263SOL     OW65627   8.683   2.951  11.434
21263SOL    HW165628   8.721   2.892  11.370
21263SOL    HW265629   8.600   2.910  11.458
21264SOL     OW65630   6.610   4.346   1.155
21264SOL    HW165631   6.568   4.419   1.199
21264SOL    HW265632   6.609   4.275   1.220
21265SOL     OW65633   0.478   3.217   3.101
21265SOL    HW165634   0.555   3.171   3.136
21265SOL    HW265635   0.475   3.299   3.150
21266SOL     OW65636   8.241   6.254  12.361
21266SOL    HW165637   8.155   6.248  12.320
21266SOL    HW265638   8.297   6.199  12.307
21267SOL     OW65639  14.690   6.078   0.436
21267SOL    HW165640  14.676   6.148   0.372
21267SOL    HW265641  14.751   6.116   0.500
21268SOL     OW65642  11.348  13.526  11.903
21268SOL    HW165643  11.320  13.612  11.871
21268SOL    HW265644  11.403  13.545  11.979
21269SOL     OW65645   0.838   2.929  10.934
21269SOL    HW165646   0.787   2.947  11.014
21269SOL    HW265647   0.928   2.924  10.964
21270SOL     OW65648   3.580   4.969   4.251
21270SOL    HW165649   3.504   5.014   4.288
21270SOL    HW265650   3.566   4.877   4.273
21271SOL     OW65651   5.639   4.056  14.699
21271SOL    HW165652   5.676   4.107  14.627
21271SOL    HW265653   5.569   4.005  14.658
21272SOL     OW65654   2.664   2.614   9.062
21272SOL    HW165655   2.728   2.558   9.106
21272SOL    HW265656   2.599   2.633   9.130
21273SOL     OW65657   7.429   6.985   2.964
21273SOL    HW165658   7.457   7.076   2.963
21273SOL    HW265659   7.510   6.934   2.963
21274SOL     OW65660   2.665   6.870  14.344
21274SOL    HW165661   2.584   6.859  14.294
21274SOL    HW265662   2.711   6.786  14.334
21275SOL     OW65663   6.403  10.075  11.792
21275SOL    HW165664   6.487  10.028  11.794
21275SOL    HW265665   6.423  10.157  11.748
21276SOL     OW65666  14.189  10.644  11.310
21276SOL    HW165667  14.203  10.571  11.250
21276SOL    HW265668  14.272  10.693  11.307
21277SOL     OW65669   0.284   8.060  10.749
21277SOL    HW165670   0.196   8.063  10.787
21277SOL    HW265671   0.273   8.095  10.661
21278SOL     OW65672   2.574   7.366   8.303
21278SOL    HW165673   2.646   7.307   8.324
21278SOL    HW265674   2.577   7.373   8.207
21279SOL     OW65675   3.370  14.530   4.745
21279SOL    HW165676   3.397  14.545   4.836
21279SOL    HW265677   3.410  14.601   4.696
21280SOL     OW65678   4.929   9.947   7.899
21280SOL    HW165679   4.939   9.931   7.805
21280SOL    HW265680   4.905  10.040   7.904
21281SOL     OW65681   8.061  12.822   4.073
21281SOL    HW165682   8.059  12.726   4.071
21281SOL    HW265683   8.019  12.846   4.155
21282SOL     OW65684   5.690   6.953   7.478
21282SOL    HW165685   5.704   7.047   7.464
21282SOL    HW265686   5.685   6.916   7.390
21283SOL     OW65687   7.929   1.759   6.592
21283SOL    HW165688   7.933   1.812   6.672
21283SOL    HW265689   7.837   1.736   6.583
21284SOL     OW65690  11.599   3.030   8.477
21284SOL    HW165691  11.692   3.037   8.459
21284SOL    HW265692  11.594   2.989   8.564
21285SOL     OW65693   6.432   0.750   8.760
21285SOL    HW165694   6.388   0.833   8.738
21285SOL    HW265695   6.493   0.773   8.831
21286SOL     OW65696   4.898   0.982  14.512
21286SOL    HW165697   4.921   0.913  14.575
21286SOL    HW265698   4.983   1.010  14.478
21287SOL     OW65699  14.488   1.482   0.838
21287SOL    HW165700  14.444   1.539   0.775
21287SOL    HW265701  14.580   1.485   0.813
21288SOL     OW65702   9.136   0.266  13.722
21288SOL    HW165703   9.090   0.190  13.757
21288SOL    HW265704   9.121   0.261  13.627
21289SOL     OW65705   7.245  14.444  13.828
21289SOL    HW165706   7.252  14.363  13.778
21289SOL    HW265707   7.156  14.441  13.865
21290SOL     OW65708   4.031   7.098   8.638
21290SOL    HW165709   4.067   7.185   8.621
21290SOL    HW265710   4.106   7.045   8.663
21291SOL     OW65711   5.110   4.537  10.738
21291SOL    HW165712   5.174   4.535  10.809
21291SOL    HW265713   5.044   4.599  10.768
21292SOL     OW65714  11.522  12.207   8.988
21292SOL    HW165715  11.520  12.176   9.078
21292SOL    HW265716  11.523  12.303   8.996
21293SOL     OW65717   8.084   6.614   5.220
21293SOL    HW165718   8.030   6.535   5.228
21293SOL    HW265719   8.101   6.621   5.126
21294SOL     OW65720   5.897   8.090   1.067
21294SOL    HW165721   5.963   8.052   1.008
21294SOL    HW265722   5.813   8.072   1.025
21295SOL     OW65723   0.023   8.701   2.062
21295SOL    HW165724  14.859   8.708   2.148
21295SOL    HW265725  14.833   8.718   1.999
21296SOL     OW65726  10.480   8.536  14.252
21296SOL    HW165727  10.545   8.605  14.265
21296SOL    HW265728  10.427   8.539  14.332
21297SOL     OW65729  11.955   1.416  12.572
21297SOL    HW165730  11.995   1.353  12.632
21297SOL    HW265731  11.873   1.440  12.614
21298SOL     OW65732  13.519   3.359  11.680
21298SOL    HW165733  13.478   3.445  11.668
21298SOL    HW265734  13.595   3.361  11.621
21299SOL     OW65735  10.177  14.290   6.354
21299SOL    HW165736  10.116  14.319   6.286
21299SOL    HW265737  10.209  14.371   6.394
21300SOL     OW65738  12.554   2.308  10.736
21300SOL    HW165739  12.500   2.375  10.695
21300SOL    HW265740  12.524   2.225  10.698
21301SOL     OW65741   2.660   1.968   5.098
21301SOL    HW165742   2.704   1.919   5.168
21301SOL    HW265743   2.645   2.055   5.135
21302SOL     OW65744  13.412   6.964   7.056
21302SOL    HW165745  13.494   6.944   7.101
21302SOL    HW265746  13.439   6.997   6.970
21303SOL     OW65747  13.850   3.088  13.462
21303SOL    HW165748  13.904   3.166  13.474
21303SOL    HW265749  13.850   3.072  13.368
21304SOL     OW65750   1.296   6.048   3.335
21304SOL    HW165751   1.329   6.088   3.255
21304SOL    HW265752   1.302   5.954   3.318
21305SOL     OW65753  12.712  14.348  10.143
21305SOL    HW165754  12.678  14.416  10.201
21305SOL    HW265755  12.802  14.334  10.171
21306SOL     OW65756   6.616   7.534   8.660
21306SOL    HW165757   6.587   7.584   8.736
21306SOL    HW265758   6.612   7.596   8.587
21307SOL     OW65759   3.564   3.371  14.612
21307SOL    HW165760   3.644   3.326  14.641
21307SOL    HW265761   3.504   3.362  14.686
21308SOL     OW65762   8.596  11.598   3.112
21308SOL    HW165763   8.550  11.624   3.032
21308SOL    HW265764   8.539  11.533   3.153
21309SOL     OW65765  14.247   2.469   3.237
21309SOL    HW165766  14.236   2.434   3.149
21309SOL    HW265767  14.182   2.540   3.243
21310SOL     OW65768   1.641   2.726   6.276
21310SOL    HW165769   1.624   2.814   6.308
21310SOL    HW265770   1.714   2.695   6.331
21311SOL     OW65771   8.102   4.219  14.078
21311SOL    HW165772   8.078   4.260  13.995
21311SOL    HW265773   8.024   4.169  14.104
21312SOL     OW65774   9.945   2.799  12.547
21312SOL    HW165775   9.959   2.814  12.453
21312SOL    HW265776   9.850   2.792  12.556
21313SOL     OW65777  10.175  13.882   6.139
21313SOL    HW165778  10.234  13.911   6.069
21313SOL    HW265779  10.092  13.928   6.120
21314SOL     OW65780  10.820   9.325   4.439
21314SOL    HW165781  10.833   9.248   4.383
21314SOL    HW265782  10.891   9.385   4.414
21315SOL     OW65783   5.336   5.237   3.786
21315SOL    HW165784   5.251   5.192   3.788
21315SOL    HW265785   5.372   5.216   3.699
21316SOL     OW65786   4.791   6.077   4.108
21316SOL    HW165787   4.747   6.107   4.028
21316SOL    HW265788   4.880   6.112   4.100
21317SOL     OW65789  10.797   0.711   2.111
21317SOL    HW165790  10.775   0.700   2.204
21317SOL    HW265791  10.748   0.642   2.067
21318SOL     OW65792  13.704   8.479   7.844
21318SOL    HW165793  13.744   8.563   7.863
21318SOL    HW265794  13.777   8.417   7.840
21319SOL     OW65795   0.489  11.588   5.889
21319SOL    HW165796   0.517  11.578   5.798
21319SOL    HW265797   0.538  11.520   5.936
21320SOL     OW65798   0.143  14.547   0.263
21320SOL    HW165799   0.232  14.539   0.227
21320SOL    HW265800   0.148  14.505   0.349
21321SOL     OW65801  12.144   5.575   4.372
21321SOL    HW165802  12.064   5.522   4.367
21321SOL    HW265803  12.160   5.603   4.282
21322SOL     OW65804   5.325   8.921   2.648
21322SOL    HW165805   5.413   8.927   2.686
21322SOL    HW265806   5.325   8.986   2.578
21323SOL     OW65807   8.014   7.496   0.823
21323SOL    HW165808   7.948   7.491   0.754
21323SOL    HW265809   8.060   7.412   0.818
21324SOL     OW65810   4.875  12.194   8.983
21324SOL    HW165811   4.889  12.129   8.915
21324SOL    HW265812   4.867  12.277   8.936
21325SOL     OW65813   8.305   6.945   3.789
21325SOL    HW165814   8.343   6.962   3.704
21325SOL    HW265815   8.290   6.850   3.791
21326SOL     OW65816  10.492   0.837  12.971
21326SOL    HW165817  10.580   0.815  13.001
21326SOL    HW265818  10.506   0.885  12.889
21327SOL     OW65819   3.469   9.754   3.706
21327SOL    HW165820   3.508   9.816   3.644
21327SOL    HW265821   3.472   9.800   3.790
21328SOL     OW65822   7.392   6.073   2.097
21328SOL    HW165823   7.329   6.005   2.119
21328SOL    HW265824   7.437   6.040   2.019
21329SOL     OW65825  10.482  12.161   9.103
21329SOL    HW165826  10.495  12.078   9.056
21329SOL    HW265827  10.423  12.211   9.047
21330SOL     OW65828   8.603   7.825  14.787
21330SOL    HW165829   8.580   7.756  14.850
21330SOL    HW265830   8.628   7.778  14.708
21331SOL     OW65831  13.920  14.664   5.140
21331SOL    HW165832  13.876  14.657   5.056
21331SOL    HW265833  13.959  14.751   5.140
21332SOL     OW65834   1.174   2.847   5.079
21332SOL    HW165835   1.212   2.763   5.105
21332SOL    HW265836   1.141   2.884   5.161
21333SOL     OW65837  13.870  12.927   9.463
21333SOL    HW165838  13.850  13.007   9.415
21333SOL    HW265839  13.899  12.866   9.396
21334SOL     OW65840   3.171   5.961   1.036
21334SOL    HW165841   3.123   6.032   0.993
21334SOL    HW265842   3.147   5.968   1.129
21335SOL     OW65843  12.640   0.712   7.350
21335SOL    HW165844  12.636   0.805   7.330
21335SOL    HW265845  12.552   0.690   7.378
21336SOL     OW65846   3.633  10.229   2.431
21336SOL    HW165847   3.584  10.246   2.512
21336SOL    HW265848   3.722  10.210   2.460
21337SOL     OW65849   8.078  12.966   7.397
21337SOL    HW165850   8.006  12.993   7.454
21337SOL    HW265851   8.078  13.031   7.327
21338SOL     OW65852  14.606   4.366   8.302
21338SOL    HW165853  14.673   4.297   8.308
21338SOL    HW265854  14.606   4.407   8.388
21339SOL     OW65855   9.932   6.462  14.865
21339SOL    HW165856  10.018   6.475  14.825
21339SOL    HW265857   9.888   6.400  14.806
21340SOL     OW65858   2.522   0.170  10.643
21340SOL    HW165859   2.551   0.132  10.726
21340SOL    HW265860   2.542   0.263  10.650
21341SOL     OW65861   2.155  10.332   4.470
21341SOL    HW165862   2.150  10.242   4.436
21341SOL    HW265863   2.063  10.358   4.481
21342SOL     OW65864   2.339   7.818  10.607
21342SOL    HW165865   2.392   7.888  10.568
21342SOL    HW265866   2.286   7.862  10.673
21343SOL     OW65867   5.381  10.813  11.701
21343SOL    HW165868   5.379  10.836  11.608
21343SOL    HW265869   5.401  10.719  11.702
21344SOL     OW65870   5.712   7.650  14.535
21344SOL    HW165871   5.796   7.694  14.539
21344SOL    HW265872   5.661   7.688  14.607
21345SOL     OW65873   3.075   8.188  12.865
21345SOL    HW165874   3.117   8.165  12.782
21345SOL    HW265875   3.147   8.217  12.921
21346SOL     OW65876   4.995   0.567  11.737
21346SOL    HW165877   4.976   0.515  11.815
21346SOL    HW265878   4.921   0.550  11.679
21347SOL     OW65879  13.592  10.142   4.533
21347SOL    HW165880  13.609  10.225   4.579
21347SOL    HW265881  13.503  10.119   4.558
21348SOL     OW65882  13.189  13.278   6.574
21348SOL    HW165883  13.108  13.263   6.624
21348SOL    HW265884  13.246  13.324   6.635
21349SOL     OW65885   1.940  13.141  12.160
21349SOL    HW165886   1.961  13.118  12.069
21349SOL    HW265887   1.880  13.072  12.188
21350SOL     OW65888   9.095   7.676   5.552
21350SOL    HW165889   9.183   7.667   5.589
21350SOL    HW265890   9.110   7.699   5.460
21351SOL     OW65891   5.187   4.703  13.308
21351SOL    HW165892   5.255   4.680  13.371
21351SOL    HW265893   5.223   4.678  13.223
21352SOL     OW65894   2.382   3.059   6.143
21352SOL    HW165895   2.431   3.098   6.070
21352SOL    HW265896   2.304   3.113   6.150
21353SOL     OW65897   6.278   7.519   8.512
21353SOL    HW165898   6.327   7.593   8.547
21353SOL    HW265899   6.345   7.462   8.473
21354SOL     OW65900   7.498   3.820  11.602
21354SOL    HW165901   7.408   3.786  11.601
21354SOL    HW265902   7.541   3.771  11.671
21355SOL     OW65903   5.179   0.691   0.655
21355SOL    HW165904   5.173   0.604   0.617
21355SOL    HW265905   5.271   0.699   0.682
21356SOL     OW65906   7.955  10.349  10.278
21356SOL    HW165907   7.991  10.286  10.340
21356SOL    HW265908   8.025  10.362  10.214
21357SOL     OW65909   0.841   8.274   7.454
21357SOL    HW165910   0.787   8.204   7.416
21357SOL    HW265911   0.858   8.334   7.381
21358SOL     OW65912   3.510   5.994  12.041
21358SOL    HW165913   3.439   6.054  12.018
21358SOL    HW265914   3.543   5.962  11.957
21359SOL     OW65915  12.711  11.111   3.324
21359SOL    HW165916  12.726  11.143   3.413
21359SOL    HW265917  12.636  11.162   3.292
21360SOL     OW65918  14.608   4.538   0.792
21360SOL    HW165919  14.537   4.548   0.729
21360SOL    HW265920  14.564   4.527   0.876
21361SOL     OW65921   3.251   9.886   7.638
21361SOL    HW165922   3.337   9.843   7.639
21361SOL    HW265923   3.196   9.830   7.693
21362SOL     OW65924   3.176  10.092   5.120
21362SOL    HW165925   3.221  10.173   5.097
21362SOL    HW265926   3.241  10.041   5.167
21363SOL     OW65927   2.840   2.779  11.793
21363SOL    HW165928   2.824   2.805  11.884
21363SOL    HW265929   2.918   2.828  11.767
21364SOL     OW65930   8.408   6.123  11.754
21364SOL    HW165931   8.431   6.114  11.846
21364SOL    HW265932   8.354   6.202  11.750
21365SOL     OW65933   6.375   5.222   2.541
21365SOL    HW165934   6.449   5.270   2.576
21365SOL    HW265935   6.300   5.253   2.592
21366SOL     OW65936   1.433   8.605  11.990
21366SOL    HW165937   1.483   8.643  12.062
21366SOL    HW265938   1.361   8.666  11.976
21367SOL     OW65939   4.800  12.617   1.228
21367SOL    HW165940   4.804  12.630   1.133
21367SOL    HW265941   4.866  12.677   1.262
21368SOL     OW65942  10.338   3.208   7.996
21368SOL    HW165943  10.419   3.197   7.946
21368SOL    HW265944  10.298   3.121   7.995
21369SOL     OW65945  12.749  10.485   4.598
21369SOL    HW165946  12.812  10.496   4.669
21369SOL    HW265947  12.797  10.436   4.531
21370SOL     OW65948  11.458   9.924   8.083
21370SOL    HW165949  11.497   9.938   7.997
21370SOL    HW265950  11.420   9.836   8.078
21371SOL     OW65951   7.966   3.953  11.386
21371SOL    HW165952   7.971   4.049  11.382
21371SOL    HW265953   7.914   3.936  11.464
21372SOL     OW65954   1.421  12.712  14.628
21372SOL    HW165955   1.437  12.623  14.661
21372SOL    HW265956   1.421  12.703  14.533
21373SOL     OW65957  13.640   9.011  14.478
21373SOL    HW165958  13.596   8.935  14.516
21373SOL    HW265959  13.569   9.074  14.462
21374SOL     OW65960   0.995   0.013   4.041
21374SOL    HW165961   1.040  14.821   4.087
21374SOL    HW265962   0.942   0.055   4.109
21375SOL     OW65963   3.319  11.817   8.275
21375SOL    HW165964   3.312  11.879   8.202
21375SOL    HW265965   3.287  11.867   8.351
21376SOL     OW65966   8.805   1.573  10.507
21376SOL    HW165967   8.784   1.635  10.576
21376SOL    HW265968   8.805   1.625  10.427
21377SOL     OW65969   9.386   0.314   1.357
21377SOL    HW165970   9.293   0.316   1.333
21377SOL    HW265971   9.410   0.406   1.368
21378SOL     OW65972   6.590   2.895   2.144
21378SOL    HW165973   6.514   2.874   2.197
21378SOL    HW265974   6.556   2.901   2.055
21379SOL     OW65975   1.328   1.176  14.563
21379SOL    HW165976   1.374   1.261  14.558
21379SOL    HW265977   1.251   1.194  14.616
21380SOL     OW65978   1.571   6.714   5.776
21380SOL    HW165979   1.530   6.666   5.847
21380SOL    HW265980   1.661   6.729   5.805
21381SOL     OW65981   5.826   3.962   9.907
21381SOL    HW165982   5.919   3.945   9.916
21381SOL    HW265983   5.800   4.001   9.990
21382SOL     OW65984  10.365   0.639  13.404
21382SOL    HW165985  10.437   0.654  13.342
21382SOL    HW265986  10.392   0.562  13.453
21383SOL     OW65987   1.345   7.360  14.142
21383SOL    HW165988   1.377   7.392  14.227
21383SOL    HW265989   1.250   7.349  14.155
21384SOL     OW65990  12.488  10.817  11.516
21384SOL    HW165991  12.559  10.753  11.526
21384SOL    HW265992  12.466  10.813  11.423
21385SOL     OW65993   5.239  12.872   3.056
21385SOL    HW165994   5.157  12.894   3.100
21385SOL    HW265995   5.289  12.953   3.057
21386SOL     OW65996   1.106  10.716   0.520
21386SOL    HW165997   1.093  10.622   0.532
21386SOL    HW265998   1.135  10.748   0.606
21387SOL     OW65999   1.098  13.919   8.020
21387SOL    HW166000   1.056  13.915   7.933
21387SOL    HW266001   1.037  13.873   8.077
21388SOL     OW66002   3.139  13.200   2.362
21388SOL    HW166003   3.176  13.260   2.427
21388SOL    HW266004   3.069  13.155   2.409
21389SOL     OW66005  13.526   4.694   0.715
21389SOL    HW166006  13.491   4.660   0.632
21389SOL    HW266007  13.570   4.775   0.690
21390SOL     OW66008   4.764   8.553   2.187
21390SOL    HW166009   4.738   8.491   2.255
21390SOL    HW266010   4.681   8.587   2.152
21391SOL     OW66011  12.060   3.629   1.405
21391SOL    HW166012  12.124   3.565   1.437
21391SOL    HW266013  12.039   3.683   1.482
21392SOL     OW66014  14.550  12.496   5.956
21392SOL    HW166015  14.494  12.425   5.987
21392SOL    HW266016  14.567  12.549   6.033
21393SOL     OW66017  11.761  14.170   5.645
21393SOL    HW166018  11.769  14.077   5.663
21393SOL    HW266019  11.835  14.210   5.691
21394SOL     OW66020  10.695   1.152   5.375
21394SOL    HW166021  10.780   1.154   5.332
21394SOL    HW266022  10.632   1.151   5.304
21395SOL     OW66023   3.652   8.491   9.096
21395SOL    HW166024   3.651   8.573   9.146
21395SOL    HW266025   3.562   8.457   9.105
21396SOL     OW66026  14.302   0.328   9.327
21396SOL    HW166027  14.278   0.328   9.234
21396SOL    HW266028  14.314   0.236   9.348
21397SOL     OW66029  11.290   5.168  13.140
21397SOL    HW166030  11.328   5.250  13.109
21397SOL    HW266031  11.207   5.160  13.093
21398SOL     OW66032  12.953  11.438  14.744
21398SOL    HW166033  12.888  11.393  14.798
21398SOL    HW266034  12.901  11.480  14.674
21399SOL     OW66035   0.758   4.179  13.353
21399SOL    HW166036   0.779   4.159  13.262
21399SOL    HW266037   0.841   4.169  13.399
21400SOL     OW66038   6.275  12.165   9.485
21400SOL    HW166039   6.266  12.245   9.536
21400SOL    HW266040   6.215  12.103   9.526
21401SOL     OW66041   5.778   6.863  10.869
21401SOL    HW166042   5.802   6.771  10.869
21401SOL    HW266043   5.705   6.868  10.807
21402SOL     OW66044  10.659   9.706   8.997
21402SOL    HW166045  10.568   9.724   8.976
21402SOL    HW266046  10.707   9.730   8.917
21403SOL     OW66047  14.051   0.806  11.089
21403SOL    HW166048  14.133   0.834  11.048
21403SOL    HW266049  14.060   0.711  11.097
21404SOL     OW66050   9.347   5.546   8.607
21404SOL    HW166051   9.292   5.585   8.540
21404SOL    HW266052   9.319   5.587   8.689
21405SOL     OW66053  13.062   7.830  14.018
21405SOL    HW166054  13.015   7.752  13.991
21405SOL    HW266055  13.092   7.811  14.107
21406SOL     OW66056   5.086   9.504   6.424
21406SOL    HW166057   4.999   9.503   6.384
21406SOL    HW266058   5.073   9.547   6.509
21407SOL     OW66059  11.370   2.069  14.156
21407SOL    HW166060  11.405   2.158  14.160
21407SOL    HW266061  11.326   2.065  14.071
21408SOL     OW66062   4.856   3.609   0.935
21408SOL    HW166063   4.871   3.635   1.026
21408SOL    HW266064   4.769   3.569   0.936
21409SOL     OW66065   2.182   7.748   1.549
21409SOL    HW166066   2.100   7.744   1.597
21409SOL    HW266067   2.207   7.841   1.551
21410SOL     OW66068   6.344  12.472   2.487
21410SOL    HW166069   6.382  12.471   2.575
21410SOL    HW266070   6.253  12.500   2.500
21411SOL     OW66071   9.479   3.157  14.610
21411SOL    HW166072   9.410   3.122  14.667
21411SOL    HW266073   9.435   3.176  14.527
21412SOL     OW66074  14.041   3.920   0.193
21412SOL    HW166075  14.110   3.855   0.203
21412SOL    HW266076  13.991   3.915   0.274
21413SOL     OW66077   2.435  12.048   9.781
21413SOL    HW166078   2.398  12.108   9.717
21413SOL    HW266079   2.484  12.104   9.842
21414SOL     OW66080  14.777   4.609  14.469
21414SOL    HW166081  14.750   4.540  14.530
21414SOL    HW266082  14.857   4.575  14.429
21415SOL     OW66083   4.830   1.661  12.780
21415SOL    HW166084   4.748   1.615  12.794
21415SOL    HW266085   4.898   1.593  12.793
21416SOL     OW66086  13.096   2.348   2.181
21416SOL    HW166087  13.179   2.301   2.184
21416SOL    HW266088  13.064   2.348   2.271
21417SOL     OW66089   4.591   6.464   4.516
21417SOL    HW166090   4.678   6.486   4.481
21417SOL    HW266091   4.569   6.537   4.574
21418SOL     OW66092  10.383  10.258  10.399
21418SOL    HW166093  10.328  10.335  10.413
21418SOL    HW266094  10.401  10.226  10.487
21419SOL     OW66095  10.210   5.414   4.635
21419SOL    HW166096  10.287   5.403   4.691
21419SOL    HW266097  10.138   5.374   4.684
21420SOL     OW66098   1.382   0.952   7.113
21420SOL    HW166099   1.345   0.949   7.201
21420SOL    HW266100   1.309   0.981   7.058
21421SOL     OW66101  14.036   2.096   8.970
21421SOL    HW166102  14.107   2.039   8.998
21421SOL    HW266103  14.079   2.174   8.936
21422SOL     OW66104   4.410   8.190   6.212
21422SOL    HW166105   4.486   8.246   6.226
21422SOL    HW266106   4.445   8.114   6.165
21423SOL     OW66107   6.160   7.378  14.249
21423SOL    HW166108   6.158   7.468  14.218
21423SOL    HW266109   6.247   7.367  14.286
21424SOL     OW66110   2.965   3.724   5.330
21424SOL    HW166111   3.020   3.646   5.319
21424SOL    HW266112   2.909   3.726   5.253
21425SOL     OW66113  12.970   3.881   1.594
21425SOL    HW166114  13.006   3.937   1.663
21425SOL    HW266115  12.930   3.943   1.533
21426SOL     OW66116   3.448   0.861   2.502
21426SOL    HW166117   3.436   0.841   2.409
21426SOL    HW266118   3.446   0.776   2.545
21427SOL     OW66119   2.076   2.180   6.204
21427SOL    HW166120   2.158   2.185   6.253
21427SOL    HW266121   2.054   2.087   6.204
21428SOL     OW66122   3.585   5.154   9.873
21428SOL    HW166123   3.544   5.197   9.948
21428SOL    HW266124   3.551   5.065   9.875
21429SOL     OW66125   9.565   9.676   7.090
21429SOL    HW166126   9.503   9.695   7.161
21429SOL    HW266127   9.642   9.730   7.109
21430SOL     OW66128  12.583   1.772   0.466
21430SOL    HW166129  12.531   1.853   0.457
21430SOL    HW266130  12.617   1.756   0.379
21431SOL     OW66131   3.761   0.099   3.645
21431SOL    HW166132   3.829   0.138   3.591
21431SOL    HW266133   3.795   0.105   3.734
21432SOL     OW66134   7.639  10.071  11.778
21432SOL    HW166135   7.564  10.122  11.747
21432SOL    HW266136   7.700  10.071  11.704
21433SOL     OW66137   7.168   4.251   6.586
21433SOL    HW166138   7.097   4.311   6.609
21433SOL    HW266139   7.159   4.178   6.648
21434SOL     OW66140  11.230  10.200   4.745
21434SOL    HW166141  11.221  10.255   4.666
21434SOL    HW266142  11.324  10.202   4.764
21435SOL     OW66143   8.487   6.947   0.979
21435SOL    HW166144   8.486   6.860   1.018
21435SOL    HW266145   8.565   6.948   0.924
21436SOL     OW66146  12.062  11.819   5.566
21436SOL    HW166147  12.115  11.888   5.525
21436SOL    HW266148  12.003  11.866   5.625
21437SOL     OW66149   8.354   1.266   7.624
21437SOL    HW166150   8.329   1.174   7.630
21437SOL    HW266151   8.323   1.294   7.538
21438SOL     OW66152   2.022  11.854  14.034
21438SOL    HW166153   2.095  11.854  14.096
21438SOL    HW266154   2.064  11.857  13.948
21439SOL     OW66155  12.022  14.618  13.008
21439SOL    HW166156  11.939  14.578  13.035
21439SOL    HW266157  12.089  14.572  13.059
21440SOL     OW66158  12.510   3.673   4.514
21440SOL    HW166159  12.450   3.634   4.578
21440SOL    HW266160  12.526   3.603   4.451
21441SOL     OW66161  11.796  12.400   1.514
21441SOL    HW166162  11.761  12.346   1.444
21441SOL    HW266163  11.874  12.441   1.477
21442SOL     OW66164   5.931   1.322  12.420
21442SOL    HW166165   5.842   1.323  12.455
21442SOL    HW266166   5.988   1.325  12.497
21443SOL     OW66167   1.141  14.729  13.914
21443SOL    HW166168   1.094  14.772  13.844
21443SOL    HW266169   1.088  14.744  13.992
21444SOL     OW66170  10.687  10.954   4.264
21444SOL    HW166171  10.689  10.951   4.359
21444SOL    HW266172  10.771  10.917   4.237
21445SOL     OW66173   3.425   8.149  10.809
21445SOL    HW166174   3.491   8.154  10.878
21445SOL    HW266175   3.359   8.089  10.843
21446SOL     OW66176   2.937   4.729   8.122
21446SOL    HW166177   2.900   4.685   8.198
21446SOL    HW266178   3.008   4.671   8.093
21447SOL     OW66179  11.878   5.380  13.692
21447SOL    HW166180  11.859   5.301  13.642
21447SOL    HW266181  11.960   5.362  13.737
21448SOL     OW66182   8.228  12.969  11.052
21448SOL    HW166183   8.226  13.044  10.992
21448SOL    HW266184   8.150  12.918  11.029
21449SOL     OW66185   4.006   3.306   6.953
21449SOL    HW166186   4.013   3.383   7.009
21449SOL    HW266187   4.068   3.321   6.882
21450SOL     OW66188  11.972   3.574  12.982
21450SOL    HW166189  12.010   3.655  12.949
21450SOL    HW266190  11.926   3.600  13.062
21451SOL     OW66191   7.434  11.211  14.684
21451SOL    HW166192   7.448  11.117  14.673
21451SOL    HW266193   7.387  11.238  14.605
21452SOL     OW66194   7.605   8.129  12.664
21452SOL    HW166195   7.552   8.061  12.624
21452SOL    HW266196   7.660   8.082  12.727
21453SOL     OW66197   8.170   7.872  14.813
21453SOL    HW166198   8.178   7.776  14.807
21453SOL    HW266199   8.260   7.903  14.805
21454SOL     OW66200   7.981   1.616   5.794
21454SOL    HW166201   8.040   1.688   5.770
21454SOL    HW266202   7.901   1.659   5.823
21455SOL     OW66203  11.443   1.001  14.708
21455SOL    HW166204  11.472   0.969  14.794
21455SOL    HW266205  11.363   0.952  14.690
21456SOL     OW66206  10.778   6.824   5.005
21456SOL    HW166207  10.839   6.862   4.942
21456SOL    HW266208  10.766   6.734   4.975
21457SOL     OW66209   6.302  14.668   9.432
21457SOL    HW166210   6.330  14.588   9.476
21457SOL    HW266211   6.325  14.654   9.340
21458SOL     OW66212   4.526   4.819   0.705
21458SOL    HW166213   4.618   4.845   0.710
21458SOL    HW266214   4.495   4.825   0.796
21459SOL     OW66215   7.571  11.650  10.777
21459SOL    HW166216   7.512  11.692  10.715
21459SOL    HW266217   7.606  11.574  10.730
21460SOL     OW66218  12.260  12.619   6.519
21460SOL    HW166219  12.320  12.596   6.589
21460SOL    HW266220  12.173  12.612   6.559
21461SOL     OW66221  14.133  10.376   3.571
21461SOL    HW166222  14.045  10.405   3.597
21461SOL    HW266223  14.117  10.312   3.501
21462SOL     OW66224  13.229  12.603   4.335
21462SOL    HW166225  13.256  12.600   4.426
21462SOL    HW266226  13.136  12.625   4.338
21463SOL     OW66227  10.412  14.116   4.808
21463SOL    HW166228  10.330  14.085   4.847
21463SOL    HW266229  10.420  14.207   4.838
21464SOL     OW66230   7.559   6.513   2.820
21464SOL    HW166231   7.465   6.505   2.801
21464SOL    HW266232   7.581   6.430   2.862
21465SOL     OW66233   7.093  14.409   9.348
21465SOL    HW166234   7.057  14.377   9.431
21465SOL    HW266235   7.034  14.480   9.322
21466SOL     OW66236   8.089   4.702  10.336
21466SOL    HW166237   8.006   4.740  10.365
21466SOL    HW266238   8.155   4.767  10.358
21467SOL     OW66239   1.103   2.598   1.194
21467SOL    HW166240   1.142   2.644   1.269
21467SOL    HW266241   1.123   2.654   1.119
21468SOL     OW66242   9.353   7.453  10.591
21468SOL    HW166243   9.373   7.361  10.574
21468SOL    HW266244   9.438   7.493  10.610
21469SOL     OW66245   0.696   1.362   3.312
21469SOL    HW166246   0.760   1.293   3.302
21469SOL    HW266247   0.677   1.365   3.406
21470SOL     OW66248   2.499  11.655   9.710
21470SOL    HW166249   2.563  11.702   9.765
21470SOL    HW266250   2.538  11.657   9.622
21471SOL     OW66251  12.473   3.548   7.513
21471SOL    HW166252  12.450   3.630   7.557
21471SOL    HW266253  12.554   3.520   7.556
21472SOL     OW66254   2.586   1.322   0.688
21472SOL    HW166255   2.603   1.336   0.782
21472SOL    HW266256   2.672   1.331   0.647
21473SOL     OW66257   3.216   5.164   1.716
21473SOL    HW166258   3.298   5.200   1.683
21473SOL    HW266259   3.198   5.089   1.660
21474SOL     OW66260   0.391  11.050   8.633
21474SOL    HW166261   0.396  11.009   8.547
21474SOL    HW266262   0.312  11.013   8.673
21475SOL     OW66263  12.462   7.405   4.973
21475SOL    HW166264  12.441   7.388   5.064
21475SOL    HW266265  12.498   7.493   4.973
21476SOL     OW66266   8.165   8.029   6.661
21476SOL    HW166267   8.253   8.061   6.685
21476SOL    HW266268   8.136   7.980   6.738
21477SOL     OW66269  10.717   7.626   6.512
21477SOL    HW166270  10.786   7.648   6.449
21477SOL    HW266271  10.651   7.580   6.460
21478SOL     OW66272   3.843  13.234   1.370
21478SOL    HW166273   3.918  13.192   1.328
21478SOL    HW266274   3.869  13.242   1.462
21479SOL     OW66275  14.550   0.039   6.900
21479SOL    HW166276  14.458   0.037   6.925
21479SOL    HW266277  14.565   0.129   6.870
21480SOL     OW66278  11.161  10.537  10.486
21480SOL    HW166279  11.189  10.602  10.550
21480SOL    HW266280  11.202  10.565  10.404
21481SOL     OW66281  10.380   7.094  12.661
21481SOL    HW166282  10.310   7.119  12.721
21481SOL    HW266283  10.346   7.017  12.615
21482SOL     OW66284  13.117   4.258  14.254
21482SOL    HW166285  13.086   4.242  14.165
21482SOL    HW266286  13.038   4.253  14.308
21483SOL     OW66287   3.155   1.547  12.697
21483SOL    HW166288   3.091   1.581  12.760
21483SOL    HW266289   3.230   1.606  12.704
21484SOL     OW66290   1.517   9.125   1.099
21484SOL    HW166291   1.445   9.151   1.157
21484SOL    HW266292   1.581   9.084   1.157
21485SOL     OW66293   3.202   4.933  14.841
21485SOL    HW166294   3.133   4.910   0.024
21485SOL    HW266295   3.283   4.905   0.005
21486SOL     OW66296  12.694   0.954   2.303
21486SOL    HW166297  12.668   0.903   2.379
21486SOL    HW266298  12.623   0.943   2.240
21487SOL     OW66299   7.054   2.207  10.004
21487SOL    HW166300   7.095   2.121  10.018
21487SOL    HW266301   7.081   2.259  10.079
21488SOL     OW66302   8.285   1.557   8.600
21488SOL    HW166303   8.377   1.563   8.574
21488SOL    HW266304   8.276   1.472   8.642
21489SOL     OW66305   6.772   9.338  12.839
21489SOL    HW166306   6.765   9.433  12.845
21489SOL    HW266307   6.861   9.322  12.810
21490SOL     OW66308   0.319  10.931   4.135
21490SOL    HW166309   0.357  10.849   4.166
21490SOL    HW266310   0.361  10.947   4.050
21491SOL     OW66311  13.228  11.006   1.723
21491SOL    HW166312  13.272  10.960   1.652
21491SOL    HW266313  13.267  10.970   1.803
21492SOL     OW66314   0.226   8.146   0.853
21492SOL    HW166315   0.293   8.166   0.787
21492SOL    HW266316   0.270   8.087   0.915
21493SOL     OW66317  13.268   3.479   4.951
21493SOL    HW166318  13.197   3.544   4.956
21493SOL    HW266319  13.225   3.396   4.973
21494SOL     OW66320   5.847  10.167   0.329
21494SOL    HW166321   5.776  10.218   0.290
21494SOL    HW266322   5.914  10.232   0.349
21495SOL     OW66323   6.903  12.451   1.273
21495SOL    HW166324   6.929  12.543   1.275
21495SOL    HW266325   6.889  12.428   1.365
21496SOL     OW66326   8.219  13.052  13.477
21496SOL    HW166327   8.222  13.013  13.564
21496SOL    HW266328   8.126  13.067  13.460
21497SOL     OW66329   3.549  11.791  13.514
21497SOL    HW166330   3.494  11.865  13.538
21497SOL    HW266331   3.490  11.716  13.512
21498SOL     OW66332  14.383   9.196  10.399
21498SOL    HW166333  14.327   9.230  10.329
21498SOL    HW266334  14.340   9.224  10.479
21499SOL     OW66335  12.967   7.882   0.063
21499SOL    HW166336  12.998   7.950   0.004
21499SOL    HW266337  13.036   7.872   0.128
21500SOL     OW66338  10.357  13.272   0.851
21500SOL    HW166339  10.319  13.348   0.895
21500SOL    HW266340  10.326  13.197   0.902
21501SOL     OW66341  14.855   6.802   3.151
21501SOL    HW166342  14.821   6.881   3.193
21501SOL    HW266343   0.061   6.788   3.191
21502SOL     OW66344   7.024   8.958  14.168
21502SOL    HW166345   6.984   8.998  14.091
21502SOL    HW266346   7.113   8.938  14.141
21503SOL     OW66347  14.674  12.009   4.389
21503SOL    HW166348  14.584  12.005   4.424
21503SOL    HW266349  14.704  11.918   4.388
21504SOL     OW66350   5.866  14.488  11.041
21504SOL    HW166351   5.803  14.462  10.974
21504SOL    HW266352   5.868  14.414  11.102
21505SOL     OW66353   2.729   5.690   9.093
21505SOL    HW166354   2.712   5.679   9.186
21505SOL    HW266355   2.802   5.752   9.089
21506SOL     OW66356   6.059   7.737  10.041
21506SOL    HW166357   6.014   7.821  10.034
21506SOL    HW266358   5.990   7.672  10.033
21507SOL     OW66359  11.333  13.543  13.495
21507SOL    HW166360  11.247  13.565  13.530
21507SOL    HW266361  11.315  13.483  13.423
21508SOL     OW66362  13.722   0.156   0.879
21508SOL    HW166363  13.763   0.199   0.954
21508SOL    HW266364  13.696   0.070   0.913
21509SOL     OW66365   8.289   5.052  14.816
21509SOL    HW166366   8.208   5.076  14.862
21509SOL    HW266367   8.338   5.001   0.001
21510SOL     OW66368   2.011   0.084   5.142
21510SOL    HW166369   2.034   0.009   5.197
21510SOL    HW266370   1.970   0.146   5.202
21511SOL     OW66371   6.631   2.402  14.648
21511SOL    HW166372   6.602   2.328  14.700
21511SOL    HW266373   6.557   2.463  14.649
21512SOL     OW66374   3.386  14.386   7.566
21512SOL    HW166375   3.417  14.475   7.548
21512SOL    HW266376   3.448  14.351   7.630
21513SOL     OW66377   5.943   9.728   0.537
21513SOL    HW166378   5.923   9.764   0.623
21513SOL    HW266379   5.900   9.788   0.475
21514SOL     OW66380   3.869   2.377   3.054
21514SOL    HW166381   3.916   2.364   3.137
21514SOL    HW266382   3.911   2.318   2.992
21515SOL     OW66383  12.450   1.136  12.037
21515SOL    HW166384  12.456   1.231  12.042
21515SOL    HW266385  12.535   1.105  12.068
21516SOL     OW66386   6.503   4.734   3.840
21516SOL    HW166387   6.566   4.774   3.900
21516SOL    HW266388   6.417   4.757   3.875
21517SOL     OW66389   7.372   8.232  11.808
21517SOL    HW166390   7.393   8.255  11.898
21517SOL    HW266391   7.300   8.168  11.815
21518SOL     OW66392   8.960  10.137   2.870
21518SOL    HW166393   8.872  10.101   2.876
21518SOL    HW266394   8.948  10.228   2.845
21519SOL     OW66395   5.893   8.322   0.811
21519SOL    HW166396   5.948   8.246   0.792
21519SOL    HW266397   5.804   8.288   0.808
21520SOL     OW66398   0.676  13.038   8.339
21520SOL    HW166399   0.685  13.067   8.430
21520SOL    HW266400   0.732  12.961   8.332
21521SOL     OW66401   3.745  10.016   9.852
21521SOL    HW166402   3.764   9.991   9.762
21521SOL    HW266403   3.828  10.004   9.899
21522SOL     OW66404  11.132   6.297  12.195
21522SOL    HW166405  11.171   6.234  12.255
21522SOL    HW266406  11.089   6.244  12.129
21523SOL     OW66407   9.784  11.521   4.884
21523SOL    HW166408   9.722  11.592   4.899
21523SOL    HW266409   9.841  11.552   4.815
21524SOL     OW66410   3.978  14.525   8.548
21524SOL    HW166411   3.960  14.447   8.600
21524SOL    HW266412   4.074  14.530   8.545
21525SOL     OW66413  11.498   0.050   8.419
21525SOL    HW166414  11.477   0.120   8.481
21525SOL    HW266415  11.490   0.091   8.332
21526SOL     OW66416  10.843   5.977   3.709
21526SOL    HW166417  10.894   5.904   3.675
21526SOL    HW266418  10.882   6.055   3.670
21527SOL     OW66419  13.370  14.428   6.228
21527SOL    HW166420  13.311  14.494   6.192
21527SOL    HW266421  13.323  14.345   6.217
21528SOL     OW66422   6.998  12.266   6.309
21528SOL    HW166423   7.037  12.204   6.247
21528SOL    HW266424   7.072  12.306   6.353
21529SOL     OW66425   0.252   2.855   2.031
21529SOL    HW166426   0.312   2.781   2.022
21529SOL    HW266427   0.199   2.834   2.108
21530SOL     OW66428  12.832   3.438   8.835
21530SOL    HW166429  12.747   3.404   8.809
21530SOL    HW266430  12.813   3.526   8.869
21531SOL     OW66431   8.263   5.680  13.099
21531SOL    HW166432   8.322   5.721  13.162
21531SOL    HW266433   8.306   5.692  13.014
21532SOL     OW66434  14.744  12.997   8.601
21532SOL    HW166435  14.743  13.046   8.519
21532SOL    HW266436  14.830  12.955   8.603
21533SOL     OW66437  13.423   5.968  12.108
21533SOL    HW166438  13.415   5.952  12.202
21533SOL    HW266439  13.333   5.980  12.078
21534SOL     OW66440   5.028   4.162   6.829
21534SOL    HW166441   5.031   4.109   6.908
21534SOL    HW266442   4.944   4.208   6.833
21535SOL     OW66443  10.424  13.184  11.294
21535SOL    HW166444  10.431  13.266  11.245
21535SOL    HW266445  10.471  13.120  11.240
21536SOL     OW66446   2.582   4.350  10.217
21536SOL    HW166447   2.522   4.360  10.291
21536SOL    HW266448   2.598   4.439  10.187
21537SOL     OW66449   8.297   5.920  11.204
21537SOL    HW166450   8.319   5.955  11.290
21537SOL    HW266451   8.379   5.884  11.171
21538SOL     OW66452   9.278   0.134  10.686
21538SOL    HW166453   9.328   0.196  10.634
21538SOL    HW266454   9.279   0.053  10.634
21539SOL     OW66455   6.929   7.262   1.965
21539SOL    HW166456   6.844   7.282   1.927
21539SOL    HW266457   6.909   7.227   2.052
21540SOL     OW66458   3.741  11.150  12.652
21540SOL    HW166459   3.723  11.079  12.714
21540SOL    HW266460   3.672  11.142  12.586
21541SOL     OW66461   9.186  14.456   6.588
21541SOL    HW166462   9.166  14.545   6.561
21541SOL    HW266463   9.177  14.404   6.508
21542SOL     OW66464   5.442   4.655  10.340
21542SOL    HW166465   5.358   4.661  10.386
21542SOL    HW266466   5.503   4.703  10.395
21543SOL     OW66467   9.085   2.155   0.211
21543SOL    HW166468   9.020   2.086   0.227
21543SOL    HW266469   9.168   2.109   0.204
21544SOL     OW66470  12.245   6.413   2.485
21544SOL    HW166471  12.168   6.357   2.497
21544SOL    HW266472  12.240   6.442   2.394
21545SOL     OW66473   1.691   7.768   6.245
21545SOL    HW166474   1.727   7.713   6.314
21545SOL    HW266475   1.737   7.742   6.166
21546SOL     OW66476  14.209  11.770   5.551
21546SOL    HW166477  14.292  11.817   5.538
21546SOL    HW266478  14.167  11.815   5.624
21547SOL     OW66479  14.576   3.440  11.905
21547SOL    HW166480  14.515   3.412  11.973
21547SOL    HW266481  14.527   3.503  11.853
21548SOL     OW66482  12.533   3.204  13.993
21548SOL    HW166483  12.493   3.187  13.908
21548SOL    HW266484  12.626   3.217  13.975
21549SOL     OW66485  11.801   5.826   0.439
21549SOL    HW166486  11.876   5.766   0.434
21549SOL    HW266487  11.725   5.770   0.427
21550SOL     OW66488   3.282  12.030   8.090
21550SOL    HW166489   3.213  12.091   8.065
21550SOL    HW266490   3.358  12.086   8.108
21551SOL     OW66491   8.993  14.769   9.948
21551SOL    HW166492   8.954  14.852   9.918
21551SOL    HW266493   8.970  14.766  10.041
21552SOL     OW66494   0.527   2.245   8.569
21552SOL    HW166495   0.483   2.256   8.653
21552SOL    HW266496   0.509   2.326   8.521
21553SOL     OW66497  13.160   8.999   4.913
21553SOL    HW166498  13.106   9.061   4.962
21553SOL    HW266499  13.245   9.042   4.906
21554SOL     OW66500   2.941  14.417   9.709
21554SOL    HW166501   2.940  14.417   9.805
21554SOL    HW266502   3.033  14.431   9.686
21555SOL     OW66503   2.531   2.776  12.909
21555SOL    HW166504   2.567   2.862  12.890
21555SOL    HW266505   2.464   2.792  12.975
21556SOL     OW66506   2.416   8.929   9.446
21556SOL    HW166507   2.421   8.976   9.362
21556SOL    HW266508   2.422   8.837   9.422
21557SOL     OW66509   1.441   5.252   0.438
21557SOL    HW166510   1.392   5.291   0.510
21557SOL    HW266511   1.523   5.223   0.478
21558SOL     OW66512  13.906   7.553   5.216
21558SOL    HW166513  13.877   7.585   5.131
21558SOL    HW266514  13.825   7.548   5.268
21559SOL     OW66515   1.942   1.978  11.646
21559SOL    HW166516   1.863   2.007  11.601
21559SOL    HW266517   1.910   1.936  11.726
21560SOL     OW66518   9.971   6.678  12.364
21560SOL    HW166519   9.959   6.763  12.406
21560SOL    HW266520   9.937   6.615  12.428
21561SOL     OW66521   6.540   9.392  14.146
21561SOL    HW166522   6.533   9.429  14.058
21561SOL    HW266523   6.560   9.467  14.202
21562SOL     OW66524   8.890   4.101  13.999
21562SOL    HW166525   8.830   4.035  14.034
21562SOL    HW266526   8.948   4.123  14.072
21563SOL     OW66527   7.745   6.538  13.322
21563SOL    HW166528   7.653   6.559  13.307
21563SOL    HW266529   7.759   6.553  13.415
21564SOL     OW66530   8.083   3.536   3.966
21564SOL    HW166531   8.060   3.495   3.883
21564SOL    HW266532   8.046   3.624   3.960
21565SOL     OW66533   9.134  13.332   9.831
21565SOL    HW166534   9.080  13.292   9.899
21565SOL    HW266535   9.224  13.322   9.861
21566SOL     OW66536  10.276   0.160   3.182
21566SOL    HW166537  10.250   0.107   3.107
21566SOL    HW266538  10.233   0.245   3.167
21567SOL     OW66539   0.646   8.046  14.175
21567SOL    HW166540   0.698   8.053  14.095
21567SOL    HW266541   0.656   8.130  14.218
21568SOL     OW66542  11.552   7.853   9.185
21568SOL    HW166543  11.632   7.878   9.137
21568SOL    HW266544  11.566   7.762   9.209
21569SOL     OW66545   9.482   4.495   5.304
21569SOL    HW166546   9.467   4.409   5.264
21569SOL    HW266547   9.490   4.555   5.230
21570SOL     OW66548   0.602   3.150   4.599
21570SOL    HW166549   0.671   3.107   4.547
21570SOL    HW266550   0.568   3.080   4.655
21571SOL     OW66551   5.353   1.049   6.737
21571SOL    HW166552   5.351   0.960   6.773
21571SOL    HW266553   5.398   1.041   6.653
21572SOL     OW66554   0.303   1.025  12.709
21572SOL    HW166555   0.374   0.967  12.738
21572SOL    HW266556   0.280   0.992  12.622
21573SOL     OW66557  12.182   0.662   6.533
21573SOL    HW166558  12.142   0.595   6.588
21573SOL    HW266559  12.274   0.636   6.526
21574SOL     OW66560   4.523  12.398   6.471
21574SOL    HW166561   4.517  12.486   6.509
21574SOL    HW266562   4.610  12.367   6.495
21575SOL     OW66563   7.223   5.473  13.279
21575SOL    HW166564   7.159   5.407  13.304
21575SOL    HW266565   7.286   5.474  13.352
21576SOL     OW66566  11.778  10.186   2.854
21576SOL    HW166567  11.789  10.178   2.760
21576SOL    HW266568  11.859  10.151   2.891
21577SOL     OW66569  10.305   6.547   5.917
21577SOL    HW166570  10.239   6.507   5.862
21577SOL    HW266571  10.330   6.628   5.872
21578SOL     OW66572   1.874  11.544  11.940
21578SOL    HW166573   1.855  11.451  11.946
21578SOL    HW266574   1.970  11.550  11.939
21579SOL     OW66575   1.737  12.770   5.647
21579SOL    HW166576   1.701  12.685   5.669
21579SOL    HW266577   1.743  12.817   5.730
21580SOL     OW66578   8.579   7.416   5.530
21580SOL    HW166579   8.544   7.327   5.523
21580SOL    HW266580   8.579   7.449   5.440
21581SOL     OW66581  14.340  14.406   9.158
21581SOL    HW166582  14.259  14.422   9.205
21581SOL    HW266583  14.339  14.312   9.140
21582SOL     OW66584   9.985   0.924   6.161
21582SOL    HW166585  10.035   0.992   6.115
21582SOL    HW266586  10.052   0.871   6.204
21583SOL     OW66587  14.828   7.144   1.448
21583SOL    HW166588   0.011   7.076   1.420
21583SOL    HW266589   0.004   7.219   1.472
21584SOL     OW66590   2.968  14.115  10.638
21584SOL    HW166591   3.031  14.056  10.597
21584SOL    HW266592   2.968  14.090  10.730
21585SOL     OW66593   9.668   6.043   5.396
21585SOL    HW166594   9.649   6.002   5.480
21585SOL    HW266595   9.621   6.127   5.399
21586SOL     OW66596   6.107  12.265  11.867
21586SOL    HW166597   6.141  12.341  11.820
21586SOL    HW266598   6.169  12.252  11.939
21587SOL     OW66599   8.843  14.728   2.134
21587SOL    HW166600   8.881  14.755   2.218
21587SOL    HW266601   8.779  14.660   2.157
21588SOL     OW66602   8.323  10.717   0.347
21588SOL    HW166603   8.330  10.647   0.412
21588SOL    HW266604   8.298  10.795   0.396
21589SOL     OW66605   0.078   8.255   7.337
21589SOL    HW166606   0.042   8.170   7.361
21589SOL    HW266607   0.085   8.302   7.421
21590SOL     OW66608   7.613   4.587   4.645
21590SOL    HW166609   7.539   4.634   4.685
21590SOL    HW266610   7.663   4.655   4.600
21591SOL     OW66611   7.684   0.250   6.148
21591SOL    HW166612   7.768   0.244   6.103
21591SOL    HW266613   7.703   0.219   6.237
21592SOL     OW66614   3.953   6.788  14.643
21592SOL    HW166615   3.975   6.767  14.553
21592SOL    HW266616   3.993   6.874  14.658
21593SOL     OW66617   6.821   3.916  11.683
21593SOL    HW166618   6.836   3.931  11.776
21593SOL    HW266619   6.767   3.837  11.680
21594SOL     OW66620  11.392  11.890  14.078
21594SOL    HW166621  11.376  11.905  13.984
21594SOL    HW266622  11.305  11.873  14.114
21595SOL     OW66623   5.819  12.748   7.611
21595SOL    HW166624   5.837  12.842   7.609
21595SOL    HW266625   5.798  12.726   7.520
21596SOL     OW66626   9.066  12.318  10.280
21596SOL    HW166627   9.038  12.253  10.216
21596SOL    HW266628   9.012  12.395  10.262
21597SOL     OW66629  13.327  14.564  13.033
21597SOL    HW166630  13.325  14.534  13.124
21597SOL    HW266631  13.235  14.581  13.011
21598SOL     OW66632   0.438   6.598  12.836
21598SOL    HW166633   0.511   6.638  12.789
21598SOL    HW266634   0.478   6.555  12.912
21599SOL     OW66635  14.592   4.786  10.988
21599SOL    HW166636  14.583   4.880  11.007
21599SOL    HW266637  14.687   4.770  10.993
21600SOL     OW66638   7.976   4.585   4.702
21600SOL    HW166639   7.979   4.573   4.607
21600SOL    HW266640   7.928   4.667   4.714
21601SOL     OW66641  14.610   7.181   6.008
21601SOL    HW166642  14.527   7.141   5.981
21601SOL    HW266643  14.675   7.145   5.948
21602SOL     OW66644  14.575   4.269  12.749
21602SOL    HW166645  14.610   4.180  12.753
21602SOL    HW266646  14.480   4.257  12.758
21603SOL     OW66647  14.423   2.953   5.343
21603SOL    HW166648  14.488   2.941   5.274
21603SOL    HW266649  14.376   3.033   5.318
21604SOL     OW66650  10.292  10.369   1.259
21604SOL    HW166651  10.373  10.413   1.284
21604SOL    HW266652  10.241  10.365   1.340
21605SOL     OW66653  10.599   9.554   5.069
21605SOL    HW166654  10.570   9.577   4.981
21605SOL    HW266655  10.681   9.506   5.057
21606SOL     OW66656   6.976   6.678   9.988
21606SOL    HW166657   6.925   6.647  10.064
21606SOL    HW266658   7.064   6.693  10.022
21607SOL     OW66659  14.630   9.073  12.551
21607SOL    HW166660  14.701   9.130  12.523
21607SOL    HW266661  14.672   8.990  12.571
21608SOL     OW66662   2.906  11.916   9.397
21608SOL    HW166663   2.923  11.978   9.326
21608SOL    HW266664   2.862  11.967   9.464
21609SOL     OW66665   5.047  12.710   8.794
21609SOL    HW166666   5.123  12.665   8.830
21609SOL    HW266667   5.065  12.716   8.700
21610SOL     OW66668   6.913  11.949   6.474
21610SOL    HW166669   7.007  11.965   6.487
21610SOL    HW266670   6.909  11.860   6.438
21611SOL     OW66671  11.935   1.359   5.701
21611SOL    HW166672  11.844   1.388   5.692
21611SOL    HW266673  11.951   1.307   5.622
21612SOL     OW66674   1.744  11.037   1.920
21612SOL    HW166675   1.795  10.981   1.979
21612SOL    HW266676   1.662  11.052   1.967
21613SOL     OW66677  14.407   5.097   5.480
21613SOL    HW166678  14.438   5.065   5.565
21613SOL    HW266679  14.425   5.024   5.420
21614SOL     OW66680  14.588   7.696   5.161
21614SOL    HW166681  14.503   7.740   5.165
21614SOL    HW266682  14.604   7.666   5.250
21615SOL     OW66683   7.759   2.843   8.708
21615SOL    HW166684   7.771   2.767   8.764
21615SOL    HW266685   7.810   2.912   8.749
21616SOL     OW66686  14.049  14.855   8.281
21616SOL    HW166687  14.065  14.780   8.339
21616SOL    HW266688  14.003   0.039   8.336
21617SOL     OW66689   3.566   4.821   9.853
21617SOL    HW166690   3.616   4.796   9.776
21617SOL    HW266691   3.496   4.878   9.820
21618SOL     OW66692   0.937   6.488  14.740
21618SOL    HW166693   0.886   6.407  14.747
21618SOL    HW266694   1.008   6.478  14.803
21619SOL     OW66695   8.373  13.245   8.809
21619SOL    HW166696   8.314  13.316   8.833
21619SOL    HW266697   8.321  13.189   8.752
21620SOL     OW66698   5.150   5.178   3.433
21620SOL    HW166699   5.166   5.245   3.367
21620SOL    HW266700   5.234   5.166   3.476
21621SOL     OW66701  14.765   5.427   1.045
21621SOL    HW166702  14.812   5.352   1.081
21621SOL    HW266703  14.828   5.472   0.990
21622SOL     OW66704  14.508   7.456   1.859
21622SOL    HW166705  14.451   7.467   1.783
21622SOL    HW266706  14.464   7.391   1.913
21623SOL     OW66707  13.161   8.275   7.228
21623SOL    HW166708  13.169   8.182   7.210
21623SOL    HW266709  13.174   8.282   7.323
21624SOL     OW66710   7.796   2.953   1.104
21624SOL    HW166711   7.860   3.021   1.082
21624SOL    HW266712   7.731   2.999   1.158
21625SOL     OW66713   1.279   2.935  13.897
21625SOL    HW166714   1.272   2.931  13.992
21625SOL    HW266715   1.223   2.865  13.865
21626SOL     OW66716  13.476  10.720   6.222
21626SOL    HW166717  13.507  10.742   6.310
21626SOL    HW266718  13.508  10.790   6.167
21627SOL     OW66719   7.190   5.507   3.349
21627SOL    HW166720   7.239   5.583   3.379
21627SOL    HW266721   7.243   5.432   3.378
21628SOL     OW66722  14.533   2.047   2.152
21628SOL    HW166723  14.502   2.137   2.154
21628SOL    HW266724  14.477   2.000   2.214
21629SOL     OW66725  10.707  13.134   5.830
21629SOL    HW166726  10.620  13.174   5.820
21629SOL    HW266727  10.765  13.191   5.779
21630SOL     OW66728   0.195   2.756   7.110
21630SOL    HW166729   0.284   2.729   7.130
21630SOL    HW266730   0.151   2.675   7.082
21631SOL     OW66731  13.894   1.032  11.137
21631SOL    HW166732  13.929   0.943  11.139
21631SOL    HW266733  13.938   1.076  11.210
21632SOL     OW66734  12.196   1.275   3.174
21632SOL    HW166735  12.232   1.352   3.129
21632SOL    HW266736  12.105   1.297   3.190
21633SOL     OW66737  11.290   7.500   2.191
21633SOL    HW166738  11.261   7.515   2.281
21633SOL    HW266739  11.213   7.515   2.138
21634SOL     OW66740   6.191   9.014   3.268
21634SOL    HW166741   6.238   8.989   3.188
21634SOL    HW266742   6.114   8.957   3.270
21635SOL     OW66743   6.827  11.406   6.392
21635SOL    HW166744   6.785  11.352   6.458
21635SOL    HW266745   6.783  11.383   6.310
21636SOL     OW66746   1.562   7.527   9.684
21636SOL    HW166747   1.499   7.514   9.755
21636SOL    HW266748   1.563   7.444   9.637
21637SOL     OW66749   0.439   9.234  11.045
21637SOL    HW166750   0.489   9.166  11.000
21637SOL    HW266751   0.386   9.186  11.109
21638SOL     OW66752   3.672   3.320  11.663
21638SOL    HW166753   3.738   3.262  11.701
21638SOL    HW266754   3.589   3.276  11.680
21639SOL     OW66755   1.517   6.194  11.473
21639SOL    HW166756   1.612   6.189  11.486
21639SOL    HW266757   1.490   6.102  11.464
21640SOL     OW66758   8.870   9.817   5.972
21640SOL    HW166759   8.837   9.729   5.956
21640SOL    HW266760   8.918   9.840   5.892
21641SOL     OW66761   1.926  10.237  12.880
21641SOL    HW166762   1.904  10.151  12.843
21641SOL    HW266763   2.021  10.239  12.880
21642SOL     OW66764  11.775  10.111  14.290
21642SOL    HW166765  11.785  10.161  14.372
21642SOL    HW266766  11.821  10.164  14.225
21643SOL     OW66767   3.106   3.124   6.848
21643SOL    HW166768   3.127   3.074   6.927
21643SOL    HW266769   3.036   3.183   6.875
21644SOL     OW66770   0.266   4.746  12.451
21644SOL    HW166771   0.325   4.821  12.453
21644SOL    HW266772   0.201   4.764  12.518
21645SOL     OW66773  12.747   0.421  14.598
21645SOL    HW166774  12.704   0.474  14.531
21645SOL    HW266775  12.833   0.401  14.562
21646SOL     OW66776  11.707   0.213   6.152
21646SOL    HW166777  11.692   0.295   6.200
21646SOL    HW266778  11.681   0.145   6.214
21647SOL     OW66779   3.209  10.429   1.235
21647SOL    HW166780   3.129  10.388   1.268
21647SOL    HW266781   3.228  10.500   1.297
21648SOL     OW66782   6.938   4.681   2.738
21648SOL    HW166783   6.881   4.749   2.701
21648SOL    HW266784   7.017   4.728   2.763
21649SOL     OW66785   9.834  12.627  11.130
21649SOL    HW166786   9.757  12.581  11.099
21649SOL    HW266787   9.883  12.563  11.181
21650SOL     OW66788   0.069  11.135   4.469
21650SOL    HW166789   0.013  11.172   4.401
21650SOL    HW266790   0.009  11.086   4.525
21651SOL     OW66791  10.829   5.158   8.758
21651SOL    HW166792  10.793   5.188   8.841
21651SOL    HW266793  10.781   5.077   8.739
21652SOL     OW66794   2.391   7.398   1.254
21652SOL    HW166795   2.313   7.345   1.269
21652SOL    HW266796   2.390   7.462   1.325
21653SOL     OW66797   0.383   8.153   7.623
21653SOL    HW166798   0.372   8.067   7.581
21653SOL    HW266799   0.297   8.195   7.614
21654SOL     OW66800   8.427  13.593   7.978
21654SOL    HW166801   8.377  13.647   7.917
21654SOL    HW266802   8.468  13.526   7.923
21655SOL     OW66803   9.094   3.827   9.940
21655SOL    HW166804   9.169   3.885   9.952
21655SOL    HW266805   9.052   3.825  10.026
21656SOL     OW66806   3.145   5.236   8.726
21656SOL    HW166807   3.051   5.233   8.739
21656SOL    HW266808   3.157   5.265   8.636
21657SOL     OW66809  13.436   0.980   3.171
21657SOL    HW166810  13.444   1.007   3.080
21657SOL    HW266811  13.400   0.891   3.167
21658SOL     OW66812   0.566   4.418  13.267
21658SOL    HW166813   0.617   4.387  13.192
21658SOL    HW266814   0.544   4.339  13.316
21659SOL     OW66815  10.565   4.779   1.253
21659SOL    HW166816  10.502   4.718   1.216
21659SOL    HW266817  10.574   4.848   1.187
21660SOL     OW66818  14.141   2.634   7.151
21660SOL    HW166819  14.154   2.540   7.167
21660SOL    HW266820  14.071   2.638   7.086
21661SOL     OW66821   0.120   8.049   5.334
21661SOL    HW166822   0.131   8.134   5.376
21661SOL    HW266823   0.145   8.063   5.243
21662SOL     OW66824   5.664   0.492   3.783
21662SOL    HW166825   5.628   0.488   3.695
21662SOL    HW266826   5.622   0.567   3.824
21663SOL     OW66827   0.137  10.955   4.819
21663SOL    HW166828   0.047  10.922   4.818
21663SOL    HW266829   0.175  10.918   4.899
21664SOL     OW66830  13.281   7.065  14.170
21664SOL    HW166831  13.349   7.113  14.123
21664SOL    HW266832  13.306   6.973  14.163
21665SOL     OW66833   9.279   3.115   2.956
21665SOL    HW166834   9.305   3.040   2.902
21665SOL    HW266835   9.183   3.117   2.950
21666SOL     OW66836   6.311   0.983   6.859
21666SOL    HW166837   6.310   0.897   6.817
21666SOL    HW266838   6.246   0.976   6.929
21667SOL     OW66839  12.320   3.828   3.537
21667SOL    HW166840  12.358   3.769   3.471
21667SOL    HW266841  12.315   3.913   3.494
21668SOL     OW66842   9.987   1.854   7.040
21668SOL    HW166843  10.063   1.842   7.096
21668SOL    HW266844   9.929   1.781   7.063
21669SOL     OW66845   3.864   1.337   0.713
21669SOL    HW166846   3.789   1.291   0.752
21669SOL    HW266847   3.909   1.376   0.788
21670SOL     OW66848   4.897   8.322  14.865
21670SOL    HW166849   4.864   8.401   0.029
21670SOL    HW266850   4.967   8.290   0.044
21671SOL     OW66851  10.388   0.491  14.555
21671SOL    HW166852  10.293   0.499  14.570
21671SOL    HW266853  10.416   0.580  14.532
21672SOL     OW66854   0.044   0.854   2.834
21672SOL    HW166855  14.871   0.930   2.806
21672SOL    HW266856   0.008   0.781   2.784
21673SOL     OW66857   5.285  11.563   7.709
21673SOL    HW166858   5.380  11.556   7.702
21673SOL    HW266859   5.254  11.564   7.619
21674SOL     OW66860  13.727   4.521  11.248
21674SOL    HW166861  13.775   4.512  11.331
21674SOL    HW266862  13.772   4.591  11.202
21675SOL     OW66863   5.336   6.074   1.992
21675SOL    HW166864   5.286   6.028   1.924
21675SOL    HW266865   5.283   6.151   2.012
21676SOL     OW66866   2.891   4.298   1.939
21676SOL    HW166867   2.890   4.273   2.032
21676SOL    HW266868   2.839   4.378   1.935
21677SOL     OW66869  13.298  14.586   0.937
21677SOL    HW166870  13.213  14.630   0.942
21677SOL    HW266871  13.319  14.584   0.844
21678SOL     OW66872   5.497   1.203   3.529
21678SOL    HW166873   5.580   1.238   3.561
21678SOL    HW266874   5.504   1.207   3.434
21679SOL     OW66875   2.828   8.704   7.107
21679SOL    HW166876   2.781   8.780   7.142
21679SOL    HW266877   2.920   8.720   7.130
21680SOL     OW66878   1.625   0.663  13.562
21680SOL    HW166879   1.604   0.737  13.620
21680SOL    HW266880   1.691   0.697  13.503
21681SOL     OW66881   7.855   9.258   9.657
21681SOL    HW166882   7.842   9.253   9.563
21681SOL    HW266883   7.917   9.330   9.669
21682SOL     OW66884   8.390   0.943  13.705
21682SOL    HW166885   8.318   0.879  13.704
21682SOL    HW266886   8.458   0.905  13.650
21683SOL     OW66887  12.227   8.533   1.162
21683SOL    HW166888  12.134   8.519   1.178
21683SOL    HW266889  12.270   8.455   1.197
21684SOL     OW66890   1.686   5.459   1.513
21684SOL    HW166891   1.736   5.536   1.539
21684SOL    HW266892   1.745   5.385   1.531
21685SOL     OW66893  10.853   2.721  11.307
21685SOL    HW166894  10.812   2.714  11.394
21685SOL    HW266895  10.779   2.734  11.247
21686SOL     OW66896   8.653  14.133   4.332
21686SOL    HW166897   8.708  14.153   4.256
21686SOL    HW266898   8.706  14.075   4.386
21687SOL     OW66899  11.325   1.980  12.389
21687SOL    HW166900  11.412   1.943  12.400
21687SOL    HW266901  11.335   2.044  12.318
21688SOL     OW66902   1.078  10.107  10.518
21688SOL    HW166903   1.059  10.066  10.602
21688SOL    HW266904   1.045  10.197  10.527
21689SOL     OW66905   3.670  10.433  13.034
21689SOL    HW166906   3.763  10.414  13.022
21689SOL    HW266907   3.661  10.455  13.127
21690SOL     OW66908  12.572  12.616  13.326
21690SOL    HW166909  12.642  12.594  13.387
21690SOL    HW266910  12.522  12.535  13.317
21691SOL     OW66911  12.960  13.469   8.998
21691SOL    HW166912  13.048  13.440   8.977
21691SOL    HW266913  12.923  13.498   8.915
21692SOL     OW66914  10.208   1.524   9.110
21692SOL    HW166915  10.287   1.470   9.108
21692SOL    HW266916  10.144   1.472   9.157
21693SOL     OW66917  11.439   6.755   9.172
21693SOL    HW166918  11.473   6.783   9.257
21693SOL    HW266919  11.475   6.667   9.160
21694SOL     OW66920   6.266  13.396   3.294
21694SOL    HW166921   6.347  13.416   3.341
21694SOL    HW266922   6.233  13.317   3.336
21695SOL     OW66923  13.282   8.203   7.683
21695SOL    HW166924  13.211   8.141   7.666
21695SOL    HW266925  13.266   8.275   7.621
21696SOL     OW66926   2.832   0.027  10.515
21696SOL    HW166927   2.780   0.059  10.441
21696SOL    HW266928   2.880   0.104  10.546
21697SOL     OW66929   0.549  10.235   8.378
21697SOL    HW166930   0.605  10.206   8.451
21697SOL    HW266931   0.537  10.156   8.325
21698SOL     OW66932   8.478   2.663   1.021
21698SOL    HW166933   8.503   2.583   0.975
21698SOL    HW266934   8.396   2.640   1.066
21699SOL     OW66935  14.056   6.863  14.208
21699SOL    HW166936  14.093   6.852  14.120
21699SOL    HW266937  14.097   6.942  14.242
21700SOL     OW66938  11.521  13.500   7.046
21700SOL    HW166939  11.587  13.570   7.042
21700SOL    HW266940  11.547  13.440   6.976
21701SOL     OW66941  10.807   1.044   2.357
21701SOL    HW166942  10.890   1.037   2.404
21701SOL    HW266943  10.828   1.020   2.267
21702SOL     OW66944   8.695   8.603   9.697
21702SOL    HW166945   8.655   8.516   9.701
21702SOL    HW266946   8.639   8.658   9.751
21703SOL     OW66947   9.479   5.392  13.747
21703SOL    HW166948   9.405   5.374  13.804
21703SOL    HW266949   9.449   5.370  13.659
21704SOL     OW66950   5.677   6.898   7.197
21704SOL    HW166951   5.715   6.810   7.202
21704SOL    HW266952   5.726   6.941   7.126
21705SOL     OW66953  13.911  10.019  10.354
21705SOL    HW166954  13.996   9.982  10.377
21705SOL    HW266955  13.853   9.943  10.346
21706SOL     OW66956   8.019   8.091  11.948
21706SOL    HW166957   7.968   8.116  12.025
21706SOL    HW266958   8.088   8.033  11.982
21707SOL     OW66959  10.750   6.489  14.324
21707SOL    HW166960  10.827   6.524  14.369
21707SOL    HW266961  10.688   6.562  14.320
21708SOL     OW66962  10.409  11.106   2.044
21708SOL    HW166963  10.393  11.046   2.117
21708SOL    HW266964  10.360  11.185   2.067
21709SOL     OW66965   7.949   3.816  13.875
21709SOL    HW166966   7.934   3.755  13.947
21709SOL    HW266967   7.891   3.889  13.893
21710SOL     OW66968   1.055   9.634  14.365
21710SOL    HW166969   1.028   9.624  14.274
21710SOL    HW266970   1.151   9.628  14.363
21711SOL     OW66971   4.339  10.600   9.480
21711SOL    HW166972   4.377  10.526   9.528
21711SOL    HW266973   4.300  10.655   9.549
21712SOL     OW66974   0.650   1.008  14.767
21712SOL    HW166975   0.658   1.093  14.811
21712SOL    HW266976   0.562   0.978  14.790
21713SOL     OW66977  12.401  10.633  12.828
21713SOL    HW166978  12.451  10.560  12.791
21713SOL    HW266979  12.317  10.631  12.781
21714SOL     OW66980   3.063   8.102   2.416
21714SOL    HW166981   3.097   8.099   2.505
21714SOL    HW266982   3.059   8.010   2.389
21715SOL     OW66983   7.757   6.294  11.056
21715SOL    HW166984   7.770   6.351  10.980
21715SOL    HW266985   7.776   6.349  11.132
21716SOL     OW66986   9.329  11.435  12.721
21716SOL    HW166987   9.347  11.458  12.630
21716SOL    HW266988   9.378  11.500  12.772
21717SOL     OW66989   2.362  14.585   2.879
21717SOL    HW166990   2.425  14.550   2.816
21717SOL    HW266991   2.284  14.532   2.868
21718SOL     OW66992   3.626   6.010  13.107
21718SOL    HW166993   3.688   5.954  13.061
21718SOL    HW266994   3.595   6.072  13.041
21719SOL     OW66995   5.895  10.707   0.754
21719SOL    HW166996   5.946  10.755   0.690
21719SOL    HW266997   5.805  10.736   0.741
21720SOL     OW66998   8.555   9.168  12.300
21720SOL    HW166999   8.529   9.204  12.385
21720SOL    HW267000   8.547   9.242  12.239
21721SOL     OW67001   9.556   1.437  12.906
21721SOL    HW167002   9.583   1.504  12.844
21721SOL    HW267003   9.466   1.415  12.879
21722SOL     OW67004   8.183   1.966   1.963
21722SOL    HW167005   8.102   2.001   2.000
21722SOL    HW267006   8.156   1.931   1.877
21723SOL     OW67007   7.840  10.595  10.349
21723SOL    HW167008   7.861  10.502  10.350
21723SOL    HW267009   7.804  10.612  10.436
21724SOL     OW67010   9.184   4.649  12.240
21724SOL    HW167011   9.094   4.616  12.237
21724SOL    HW267012   9.238   4.571  12.226
21725SOL     OW67013   9.908   6.826  13.631
21725SOL    HW167014   9.989   6.876  13.627
21725SOL    HW267015   9.881   6.831  13.723
21726SOL     OW67016  11.889  10.772  11.964
21726SOL    HW167017  11.897  10.865  11.987
21726SOL    HW267018  11.800  10.764  11.930
21727SOL     OW67019   5.729   7.279  13.678
21727SOL    HW167020   5.808   7.269  13.625
21727SOL    HW267021   5.657   7.262  13.616
21728SOL     OW67022  10.492   3.074  12.108
21728SOL    HW167023  10.438   3.118  12.174
21728SOL    HW267024  10.582   3.092  12.135
21729SOL     OW67025   7.568   7.413   2.501
21729SOL    HW167026   7.479   7.448   2.490
21729SOL    HW267027   7.601   7.457   2.579
21730SOL     OW67028   9.636   0.807  11.506
21730SOL    HW167029   9.698   0.795  11.578
21730SOL    HW267030   9.678   0.870  11.448
21731SOL     OW67031   8.091   6.490   9.594
21731SOL    HW167032   8.055   6.487   9.505
21731SOL    HW267033   8.146   6.568   9.595
21732SOL     OW67034  13.445   3.254   6.827
21732SOL    HW167035  13.423   3.344   6.851
21732SOL    HW267036  13.534   3.259   6.794
21733SOL     OW67037  13.890   3.042   1.541
21733SOL    HW167038  13.798   3.015   1.543
21733SOL    HW267039  13.916   3.032   1.449
21734SOL     OW67040   0.832  10.203   1.290
21734SOL    HW167041   0.801  10.235   1.374
21734SOL    HW267042   0.755  10.208   1.233
21735SOL     OW67043   2.102   3.791   1.396
21735SOL    HW167044   2.137   3.758   1.314
21735SOL    HW267045   2.179   3.802   1.452
21736SOL     OW67046  10.157   3.826   1.327
21736SOL    HW167047  10.153   3.813   1.422
21736SOL    HW267048  10.251   3.823   1.306
21737SOL     OW67049  13.351   5.314   0.738
21737SOL    HW167050  13.445   5.295   0.731
21737SOL    HW267051  13.309   5.229   0.723
21738SOL     OW67052   9.344   4.344   1.715
21738SOL    HW167053   9.378   4.394   1.789
21738SOL    HW267054   9.288   4.405   1.668
21739SOL     OW67055   4.327  12.026  13.048
21739SOL    HW167056   4.283  12.074  12.979
21739SOL    HW267057   4.260  11.968  13.084
21740SOL     OW67058   5.096  13.635   7.239
21740SOL    HW167059   5.143  13.604   7.162
21740SOL    HW267060   5.074  13.556   7.288
21741SOL     OW67061   0.651   2.759   0.465
21741SOL    HW167062   0.570   2.799   0.497
21741SOL    HW267063   0.718   2.826   0.478
21742SOL     OW67064   9.685  13.830   8.129
21742SOL    HW167065   9.714  13.739   8.122
21742SOL    HW267066   9.604  13.834   8.079
21743SOL     OW67067   5.350  13.095   8.154
21743SOL    HW167068   5.340  13.066   8.244
21743SOL    HW267069   5.443  13.118   8.147
21744SOL     OW67070  10.732   9.161   4.188
21744SOL    HW167071  10.746   9.253   4.170
21744SOL    HW267072  10.815   9.119   4.165
21745SOL     OW67073   6.188   0.073   6.214
21745SOL    HW167074   6.109   0.113   6.177
21745SOL    HW267075   6.251   0.145   6.217
21746SOL     OW67076  11.105   3.041   2.264
21746SOL    HW167077  11.166   3.107   2.232
21746SOL    HW267078  11.032   3.092   2.300
21747SOL     OW67079   5.308   5.879   5.704
21747SOL    HW167080   5.244   5.914   5.643
21747SOL    HW267081   5.256   5.829   5.767
21748SOL     OW67082   4.013   6.849  12.604
21748SOL    HW167083   4.103   6.820  12.594
21748SOL    HW267084   3.970   6.778  12.652
21749SOL     OW67085   2.673  12.478  14.530
21749SOL    HW167086   2.713  12.456  14.615
21749SOL    HW267087   2.695  12.570  14.517
21750SOL     OW67088  11.098   3.943   0.039
21750SOL    HW167089  11.186   3.942   0.077
21750SOL    HW267090  11.064   3.855   0.054
21751SOL     OW67091   2.468   5.348  12.204
21751SOL    HW167092   2.525   5.374  12.276
21751SOL    HW267093   2.525   5.345  12.127
21752SOL     OW67094   3.964  11.405   7.554
21752SOL    HW167095   3.927  11.341   7.614
21752SOL    HW267096   3.999  11.353   7.482
21753SOL     OW67097   7.452   1.462   3.576
21753SOL    HW167098   7.380   1.485   3.635
21753SOL    HW267099   7.471   1.371   3.597
21754SOL     OW67100   7.739  10.080   8.802
21754SOL    HW167101   7.658  10.068   8.752
21754SOL    HW267102   7.791  10.002   8.782
21755SOL     OW67103   5.153   6.175  11.445
21755SOL    HW167104   5.185   6.209  11.529
21755SOL    HW267105   5.141   6.252  11.391
21756SOL     OW67106   8.869  13.873  10.155
21756SOL    HW167107   8.921  13.952  10.169
21756SOL    HW267108   8.849  13.841  10.242
21757SOL     OW67109  11.360   3.446  11.761
21757SOL    HW167110  11.442   3.462  11.809
21757SOL    HW267111  11.313   3.383  11.816
21758SOL     OW67112   0.307   7.781  10.391
21758SOL    HW167113   0.261   7.834  10.455
21758SOL    HW267114   0.253   7.703  10.381
21759SOL     OW67115  11.929   4.272   0.835
21759SOL    HW167116  11.835   4.274   0.818
21759SOL    HW267117  11.966   4.229   0.758
21760SOL     OW67118   7.993  13.776  11.293
21760SOL    HW167119   8.006  13.715  11.365
21760SOL    HW267120   7.949  13.852  11.333
21761SOL     OW67121  11.074   5.973  13.408
21761SOL    HW167122  11.139   5.987  13.339
21761SOL    HW267123  11.002   5.929  13.364
21762SOL     OW67124   7.213   7.438   8.634
21762SOL    HW167125   7.238   7.522   8.672
21762SOL    HW267126   7.121   7.450   8.609
21763SOL     OW67127  12.518  10.548   1.716
21763SOL    HW167128  12.528  10.523   1.624
21763SOL    HW267129  12.485  10.637   1.714
21764SOL     OW67130  14.724   0.705   5.115
21764SOL    HW167131  14.760   0.670   5.197
21764SOL    HW267132  14.635   0.670   5.111
21765SOL     OW67133   6.372   2.551   0.708
21765SOL    HW167134   6.465   2.530   0.710
21765SOL    HW267135   6.328   2.469   0.732
21766SOL     OW67136   7.190   3.312   0.225
21766SOL    HW167137   7.135   3.334   0.300
21766SOL    HW267138   7.142   3.241   0.181
21767SOL     OW67139   1.289   9.625   2.936
21767SOL    HW167140   1.349   9.690   2.900
21767SOL    HW267141   1.301   9.548   2.880
21768SOL     OW67142   6.077   3.538   8.903
21768SOL    HW167143   6.046   3.621   8.865
21768SOL    HW267144   6.000   3.499   8.943
21769SOL     OW67145   0.948  12.934   9.552
21769SOL    HW167146   0.924  13.027   9.561
21769SOL    HW267147   1.044  12.935   9.551
21770SOL     OW67148  12.077   7.379   9.627
21770SOL    HW167149  11.999   7.401   9.678
21770SOL    HW267150  12.111   7.299   9.667
21771SOL     OW67151  11.169   0.695  13.988
21771SOL    HW167152  11.095   0.647  14.025
21771SOL    HW267153  11.148   0.787  14.001
21772SOL     OW67154   7.920   2.046   7.077
21772SOL    HW167155   7.834   2.045   7.120
21772SOL    HW267156   7.980   2.081   7.142
21773SOL     OW67157   6.078   4.949   3.522
21773SOL    HW167158   6.050   4.972   3.434
21773SOL    HW267159   6.165   4.989   3.531
21774SOL     OW67160   6.330   8.493   4.784
21774SOL    HW167161   6.398   8.560   4.793
21774SOL    HW267162   6.334   8.443   4.865
21775SOL     OW67163  12.204  14.434   1.971
21775SOL    HW167164  12.298  14.444   1.984
21775SOL    HW267165  12.165  14.460   2.055
21776SOL     OW67166   8.276   6.550  11.496
21776SOL    HW167167   8.356   6.571  11.447
21776SOL    HW267168   8.215   6.519  11.429
21777SOL     OW67169   0.461   9.666   9.002
21777SOL    HW167170   0.503   9.684   9.086
21777SOL    HW267171   0.367   9.662   9.023
21778SOL     OW67172   2.779   5.787   9.572
21778SOL    HW167173   2.842   5.838   9.521
21778SOL    HW267174   2.738   5.851   9.630
21779SOL     OW67175   7.623  10.797   0.422
21779SOL    HW167176   7.685  10.778   0.351
21779SOL    HW267177   7.598  10.711   0.456
21780SOL     OW67178   8.992  13.702   8.484
21780SOL    HW167179   8.935  13.736   8.415
21780SOL    HW267180   8.961  13.613   8.498
21781SOL     OW67181   3.589   5.486  11.213
21781SOL    HW167182   3.562   5.520  11.127
21781SOL    HW267183   3.534   5.409  11.226
21782SOL     OW67184   2.132   4.067  14.028
21782SOL    HW167185   2.060   4.127  14.049
21782SOL    HW267186   2.126   3.998  14.094
21783SOL     OW67187   2.973   7.233  13.760
21783SOL    HW167188   3.018   7.317  13.773
21783SOL    HW267189   2.991   7.184  13.840
21784SOL     OW67190  12.074   6.045   5.156
21784SOL    HW167191  12.051   6.108   5.225
21784SOL    HW267192  11.996   5.990   5.146
21785SOL     OW67193  12.689  11.465   3.480
21785SOL    HW167194  12.696  11.384   3.529
21785SOL    HW267195  12.610  11.456   3.427
21786SOL     OW67196  13.674   3.598   6.031
21786SOL    HW167197  13.745   3.650   5.994
21786SOL    HW267198  13.716   3.539   6.094
21787SOL     OW67199   6.758  13.385   6.645
21787SOL    HW167200   6.665  13.367   6.661
21787SOL    HW267201   6.766  13.387   6.550
21788SOL     OW67202  12.456   0.169  12.982
21788SOL    HW167203  12.504   0.092  13.012
21788SOL    HW267204  12.365   0.152  13.009
21789SOL     OW67205  10.379   8.297   5.765
21789SOL    HW167206  10.430   8.267   5.841
21789SOL    HW267207  10.292   8.316   5.801
21790SOL     OW67208  14.495   1.224   4.066
21790SOL    HW167209  14.498   1.172   3.986
21790SOL    HW267210  14.564   1.289   4.056
21791SOL     OW67211   2.021   4.179   9.612
21791SOL    HW167212   2.015   4.137   9.697
21791SOL    HW267213   1.944   4.235   9.607
21792SOL     OW67214  10.734  13.181   5.093
21792SOL    HW167215  10.769  13.096   5.121
21792SOL    HW267216  10.710  13.168   5.002
21793SOL     OW67217   3.229   6.599  13.027
21793SOL    HW167218   3.155   6.539  13.039
21793SOL    HW267219   3.188   6.686  13.023
21794SOL     OW67220   7.948   9.644   0.627
21794SOL    HW167221   7.918   9.560   0.592
21794SOL    HW267222   7.880   9.707   0.601
21795SOL     OW67223   9.531   9.933   9.275
21795SOL    HW167224   9.513   9.995   9.205
21795SOL    HW267225   9.461   9.948   9.339
21796SOL     OW67226  10.677   4.958   2.445
21796SOL    HW167227  10.763   4.984   2.477
21796SOL    HW267228  10.692   4.927   2.356
21797SOL     OW67229  13.651   3.257  12.159
21797SOL    HW167230  13.579   3.291  12.107
21797SOL    HW267231  13.651   3.311  12.238
21798SOL     OW67232  13.894   5.788   9.493
21798SOL    HW167233  13.915   5.785   9.587
21798SOL    HW267234  13.809   5.831   9.489
21799SOL     OW67235   8.156   8.448   9.228
21799SOL    HW167236   8.075   8.479   9.187
21799SOL    HW267237   8.184   8.375   9.174
21800SOL     OW67238  10.272   2.805   4.452
21800SOL    HW167239  10.196   2.855   4.421
21800SOL    HW267240  10.325   2.869   4.499
21801SOL     OW67241   9.301  12.405   7.857
21801SOL    HW167242   9.335  12.422   7.945
21801SOL    HW267243   9.367  12.348   7.817
21802SOL     OW67244   8.871   0.203   9.586
21802SOL    HW167245   8.890   0.178   9.496
21802SOL    HW267246   8.941   0.264   9.609
21803SOL     OW67247   8.286  11.621   2.656
21803SOL    HW167248   8.241  11.705   2.669
21803SOL    HW267249   8.229  11.573   2.596
21804SOL     OW67250   3.735   6.498  13.607
21804SOL    HW167251   3.816   6.496  13.659
21804SOL    HW267252   3.672   6.447  13.659
21805SOL     OW67253  10.123   5.033  14.173
21805SOL    HW167254  10.122   5.117  14.126
21805SOL    HW267255  10.098   5.055  14.262
21806SOL     OW67256   2.382  12.435   8.006
21806SOL    HW167257   2.292  12.466   8.000
21806SOL    HW267258   2.375  12.340   8.005
21807SOL     OW67259   0.288   3.962  12.080
21807SOL    HW167260   0.198   3.930  12.076
21807SOL    HW267261   0.336   3.907  12.018
21808SOL     OW67262   7.058  12.443   3.905
21808SOL    HW167263   7.136  12.493   3.878
21808SOL    HW267264   7.091  12.380   3.969
21809SOL     OW67265   2.149   5.212  13.701
21809SOL    HW167266   2.119   5.200  13.791
21809SOL    HW267267   2.155   5.307  13.691
21810SOL     OW67268  11.850  12.700  11.939
21810SOL    HW167269  11.840  12.622  11.993
21810SOL    HW267270  11.786  12.762  11.974
21811SOL     OW67271  10.093   7.930  14.295
21811SOL    HW167272  10.153   7.971  14.234
21811SOL    HW267273  10.016   7.988  14.297
21812SOL     OW67274   7.289   8.899   1.583
21812SOL    HW167275   7.376   8.939   1.585
21812SOL    HW267276   7.271   8.878   1.675
21813SOL     OW67277   6.981   9.554   0.357
21813SOL    HW167278   7.048   9.522   0.418
21813SOL    HW267279   6.899   9.548   0.406
21814SOL     OW67280   8.178  14.291   8.321
21814SOL    HW167281   8.199  14.382   8.341
21814SOL    HW267282   8.247  14.263   8.261
21815SOL     OW67283  11.446  13.896   0.122
21815SOL    HW167284  11.465  13.937   0.038
21815SOL    HW267285  11.531  13.885   0.164
21816SOL     OW67286   4.500  14.382  12.305
21816SOL    HW167287   4.469  14.333  12.380
21816SOL    HW267288   4.548  14.456  12.342
21817SOL     OW67289  12.119   0.676   8.685
21817SOL    HW167290  12.200   0.723   8.704
21817SOL    HW267291  12.060   0.700   8.757
21818SOL     OW67292   8.593   5.933   1.136
21818SOL    HW167293   8.558   5.929   1.047
21818SOL    HW267294   8.687   5.950   1.124
21819SOL     OW67295   4.378   7.917  10.636
21819SOL    HW167296   4.407   7.831  10.666
21819SOL    HW267297   4.409   7.977  10.704
21820SOL     OW67298   2.752   9.216   5.432
21820SOL    HW167299   2.716   9.129   5.452
21820SOL    HW267300   2.836   9.198   5.390
21821SOL     OW67301   8.856   7.327   7.069
21821SOL    HW167302   8.784   7.368   7.118
21821SOL    HW267303   8.935   7.359   7.112
21822SOL     OW67304   7.041   6.075   5.237
21822SOL    HW167305   7.047   6.034   5.324
21822SOL    HW267306   6.956   6.119   5.238
21823SOL     OW67307   0.169  10.105  11.456
21823SOL    HW167308   0.247  10.052  11.467
21823SOL    HW267309   0.101  10.059  11.504
21824SOL     OW67310  10.931   8.408   7.154
21824SOL    HW167311  10.942   8.391   7.248
21824SOL    HW267312  10.841   8.382   7.135
21825SOL     OW67313   8.376   8.673  13.026
21825SOL    HW167314   8.345   8.596  13.072
21825SOL    HW267315   8.466   8.653  13.001
21826SOL     OW67316   4.297   8.407   3.081
21826SOL    HW167317   4.279   8.441   2.994
21826SOL    HW267318   4.284   8.312   3.073
21827SOL     OW67319   8.714   3.294   4.088
21827SOL    HW167320   8.635   3.241   4.101
21827SOL    HW267321   8.684   3.374   4.047
21828SOL     OW67322  12.890   9.814   4.628
21828SOL    HW167323  12.813   9.867   4.650
21828SOL    HW267324  12.963   9.876   4.636
21829SOL     OW67325   2.910   8.662  13.165
21829SOL    HW167326   2.939   8.687  13.077
21829SOL    HW267327   2.962   8.585  13.187
21830SOL     OW67328   1.115   5.036   9.717
21830SOL    HW167329   1.034   4.989   9.736
21830SOL    HW267330   1.091   5.100   9.650
21831SOL     OW67331   8.889   0.270  10.255
21831SOL    HW167332   8.844   0.190  10.283
21831SOL    HW267333   8.894   0.323  10.335
21832SOL     OW67334  11.404   9.195   0.080
21832SOL    HW167335  11.359   9.140   0.016
21832SOL    HW267336  11.411   9.139   0.158
21833SOL     OW67337   7.528  13.846  11.525
21833SOL    HW167338   7.484  13.928  11.546
21833SOL    HW267339   7.519  13.793  11.604
21834SOL     OW67340  10.610   3.506  12.243
21834SOL    HW167341  10.680   3.479  12.184
21834SOL    HW267342  10.608   3.601  12.235
21835SOL     OW67343   3.747   4.574  11.034
21835SOL    HW167344   3.699   4.646  10.993
21835SOL    HW267345   3.751   4.507  10.966
21836SOL     OW67346  10.518   5.080  11.128
21836SOL    HW167347  10.537   4.996  11.168
21836SOL    HW267348  10.553   5.073  11.039
21837SOL     OW67349  11.156  12.039   9.987
21837SOL    HW167350  11.183  12.117   9.939
21837SOL    HW267351  11.080  12.067  10.038
21838SOL     OW67352  11.984   9.786   0.225
21838SOL    HW167353  12.069   9.746   0.209
21838SOL    HW267354  11.923   9.734   0.172
21839SOL     OW67355   0.543   7.917  11.659
21839SOL    HW167356   0.633   7.924  11.629
21839SOL    HW267357   0.549   7.931  11.754
21840SOL     OW67358   9.824  10.249   5.018
21840SOL    HW167359   9.821  10.208   5.105
21840SOL    HW267360   9.782  10.334   5.031
21841SOL     OW67361   6.781   2.327   1.861
21841SOL    HW167362   6.741   2.409   1.890
21841SOL    HW267363   6.847   2.308   1.928
21842SOL     OW67364   1.372  10.775  11.826
21842SOL    HW167365   1.404  10.820  11.748
21842SOL    HW267366   1.430  10.699  11.836
21843SOL     OW67367   5.187  10.721  12.579
21843SOL    HW167368   5.208  10.638  12.536
21843SOL    HW267369   5.255  10.733  12.645
21844SOL     OW67370   0.938   7.419   6.480
21844SOL    HW167371   0.988   7.340   6.499
21844SOL    HW267372   0.864   7.390   6.427
21845SOL     OW67373   6.941   0.778   7.624
21845SOL    HW167374   6.868   0.717   7.612
21845SOL    HW267375   6.988   0.744   7.700
21846SOL     OW67376  11.043  13.273   6.919
21846SOL    HW167377  11.039  13.367   6.901
21846SOL    HW267378  11.064  13.267   7.012
21847SOL     OW67379  14.605   8.556   6.514
21847SOL    HW167380  14.534   8.493   6.524
21847SOL    HW267381  14.680   8.517   6.559
21848SOL     OW67382  13.140   8.340   2.336
21848SOL    HW167383  13.048   8.314   2.334
21848SOL    HW267384  13.142   8.424   2.290
21849SOL     OW67385   1.096   8.226  12.704
21849SOL    HW167386   1.087   8.142  12.749
21849SOL    HW267387   1.090   8.204  12.611
21850SOL     OW67388   7.460   8.576  11.873
21850SOL    HW167389   7.482   8.666  11.851
21850SOL    HW267390   7.544   8.531  11.879
21851SOL     OW67391   3.255   7.147  14.341
21851SOL    HW167392   3.258   7.169  14.248
21851SOL    HW267393   3.233   7.054  14.343
21852SOL     OW67394  13.593  13.617  11.483
21852SOL    HW167395  13.604  13.541  11.425
21852SOL    HW267396  13.590  13.580  11.571
21853SOL     OW67397   8.529   1.315  12.542
21853SOL    HW167398   8.458   1.339  12.600
21853SOL    HW267399   8.567   1.235  12.580
21854SOL     OW67400   2.145   0.211   2.743
21854SOL    HW167401   2.203   0.154   2.693
21854SOL    HW267402   2.091   0.255   2.677
21855SOL     OW67403  10.773  10.818  13.540
21855SOL    HW167404  10.784  10.909  13.512
21855SOL    HW267405  10.826  10.767  13.480
21856SOL     OW67406   4.588   7.956  14.414
21856SOL    HW167407   4.604   8.010  14.491
21856SOL    HW267408   4.558   7.872  14.449
21857SOL     OW67409  13.090  12.408   0.291
21857SOL    HW167410  13.081  12.361   0.374
21857SOL    HW267411  13.002  12.406   0.253
21858SOL     OW67412   3.040  11.307   1.409
21858SOL    HW167413   2.993  11.350   1.480
21858SOL    HW267414   2.971  11.272   1.353
21859SOL     OW67415   0.999   5.719   6.176
21859SOL    HW167416   0.905   5.732   6.170
21859SOL    HW267417   1.012   5.672   6.258
21860SOL     OW67418   0.837   7.755   2.600
21860SOL    HW167419   0.824   7.791   2.512
21860SOL    HW267420   0.927   7.780   2.623
21861SOL     OW67421   5.492   9.338  14.188
21861SOL    HW167422   5.411   9.294  14.165
21861SOL    HW267423   5.549   9.325  14.112
21862SOL     OW67424   4.783  14.394   2.872
21862SOL    HW167425   4.699  14.411   2.915
21862SOL    HW267426   4.848  14.422   2.936
21863SOL     OW67427  10.277   8.756   6.997
21863SOL    HW167428  10.230   8.700   7.058
21863SOL    HW267429  10.215   8.826   6.976
21864SOL     OW67430  11.127   6.448   0.347
21864SOL    HW167431  11.152   6.388   0.277
21864SOL    HW267432  11.033   6.461   0.336
21865SOL     OW67433   4.495  11.925  10.927
21865SOL    HW167434   4.437  11.895  10.997
21865SOL    HW267435   4.477  12.019  10.920
21866SOL     OW67436   4.827   2.206   1.623
21866SOL    HW167437   4.734   2.231   1.621
21866SOL    HW267438   4.856   2.213   1.532
21867SOL     OW67439   5.511  14.262   4.210
21867SOL    HW167440   5.583  14.218   4.164
21867SOL    HW267441   5.432  14.218   4.178
21868SOL     OW67442   5.510  13.184   0.932
21868SOL    HW167443   5.498  13.142   0.847
21868SOL    HW267444   5.603  13.174   0.951
21869SOL     OW67445   4.134   7.612  10.194
21869SOL    HW167446   4.093   7.695  10.219
21869SOL    HW267447   4.071   7.571  10.135
21870SOL     OW67448   2.892   5.726  14.697
21870SOL    HW167449   2.885   5.643  14.649
21870SOL    HW267450   2.806   5.766  14.689
21871SOL     OW67451   1.486  11.652   6.387
21871SOL    HW167452   1.502  11.740   6.422
21871SOL    HW267453   1.543  11.595   6.439
21872SOL     OW67454  12.632   0.586   6.760
21872SOL    HW167455  12.700   0.519   6.752
21872SOL    HW267456  12.573   0.553   6.828
21873SOL     OW67457   7.050  12.736   0.745
21873SOL    HW167458   7.118  12.690   0.794
21873SOL    HW267459   6.978  12.673   0.739
21874SOL     OW67460   0.881   5.620  11.365
21874SOL    HW167461   0.922   5.535  11.357
21874SOL    HW267462   0.789   5.601  11.383
21875SOL     OW67463   1.579   8.393   6.351
21875SOL    HW167464   1.515   8.359   6.414
21875SOL    HW267465   1.625   8.461   6.399
21876SOL     OW67466   6.416   0.969  10.182
21876SOL    HW167467   6.494   1.024  10.178
21876SOL    HW267468   6.445   0.883  10.151
21877SOL     OW67469  11.906  10.821   2.702
21877SOL    HW167470  11.857  10.822   2.620
21877SOL    HW267471  11.970  10.751   2.691
21878SOL     OW67472   4.832  13.137   9.881
21878SOL    HW167473   4.902  13.091   9.928
21878SOL    HW267474   4.856  13.230   9.886
21879SOL     OW67475   1.518  11.730  11.329
21879SOL    HW167476   1.502  11.825  11.324
21879SOL    HW267477   1.545  11.715  11.420
21880SOL     OW67478   4.383  14.309   4.198
21880SOL    HW167479   4.388  14.404   4.195
21880SOL    HW267480   4.351  14.284   4.112
21881SOL     OW67481   4.577  12.192   1.914
21881SOL    HW167482   4.483  12.185   1.931
21881SOL    HW267483   4.605  12.103   1.894
21882SOL     OW67484  13.416   6.725  13.172
21882SOL    HW167485  13.428   6.652  13.112
21882SOL    HW267486  13.379   6.686  13.252
21883SOL     OW67487   3.790  10.410   0.844
21883SOL    HW167488   3.875  10.408   0.887
21883SOL    HW267489   3.806  10.372   0.758
21884SOL     OW67490  10.032   3.008   6.290
21884SOL    HW167491   9.970   3.078   6.311
21884SOL    HW267492   9.991   2.928   6.324
21885SOL     OW67493   5.233   6.385  12.590
21885SOL    HW167494   5.317   6.370  12.634
21885SOL    HW267495   5.256   6.403  12.499
21886SOL     OW67496   8.278   9.550   5.769
21886SOL    HW167497   8.316   9.638   5.772
21886SOL    HW267498   8.193   9.559   5.812
21887SOL     OW67499   8.808  12.591  14.269
21887SOL    HW167500   8.727  12.574  14.318
21887SOL    HW267501   8.875  12.602  14.336
21888SOL     OW67502   8.106   6.352   6.929
21888SOL    HW167503   8.179   6.406   6.959
21888SOL    HW267504   8.052   6.338   7.007
21889SOL     OW67505  10.272   8.966   8.882
21889SOL    HW167506  10.342   8.957   8.817
21889SOL    HW267507  10.297   9.043   8.933
21890SOL     OW67508   6.971   5.439   3.747
21890SOL    HW167509   6.977   5.343   3.745
21890SOL    HW267510   7.051   5.468   3.702
21891SOL     OW67511   8.246  10.326  11.366
21891SOL    HW167512   8.195  10.404  11.388
21891SOL    HW267513   8.242  10.271  11.444
21892SOL     OW67514   6.176   3.918  11.323
21892SOL    HW167515   6.129   3.953  11.398
21892SOL    HW267516   6.146   3.827  11.316
21893SOL     OW67517  10.243  14.658   4.540
21893SOL    HW167518  10.316  14.597   4.530
21893SOL    HW267519  10.175  14.607   4.584
21894SOL     OW67520   7.822   6.059   6.744
21894SOL    HW167521   7.774   6.137   6.773
21894SOL    HW267522   7.797   6.048   6.652
21895SOL     OW67523   6.916  11.713   7.793
21895SOL    HW167524   6.916  11.760   7.876
21895SOL    HW267525   6.826  11.681   7.784
21896SOL     OW67526   4.230   7.162   2.145
21896SOL    HW167527   4.187   7.085   2.182
21896SOL    HW267528   4.300   7.183   2.207
21897SOL     OW67529   7.295  13.350   6.403
21897SOL    HW167530   7.231  13.394   6.347
21897SOL    HW267531   7.246  13.327   6.482
21898SOL     OW67532   8.973   1.747   1.563
21898SOL    HW167533   9.043   1.753   1.628
21898SOL    HW267534   8.970   1.834   1.524
21899SOL     OW67535   7.641   6.579   1.584
21899SOL    HW167536   7.696   6.519   1.635
21899SOL    HW267537   7.623   6.533   1.503
21900SOL     OW67538   5.645   9.879   9.094
21900SOL    HW167539   5.567   9.926   9.064
21900SOL    HW267540   5.716   9.943   9.085
21901SOL     OW67541   9.977   8.546  14.175
21901SOL    HW167542   9.921   8.591  14.239
21901SOL    HW267543  10.027   8.484  14.228
21902SOL     OW67544   3.459  12.351   9.669
21902SOL    HW167545   3.479  12.440   9.639
21902SOL    HW267546   3.417  12.310   9.593
21903SOL     OW67547   3.226   0.812  12.153
21903SOL    HW167548   3.171   0.884  12.124
21903SOL    HW267549   3.312   0.852  12.166
21904SOL     OW67550   6.056   7.236   1.704
21904SOL    HW167551   6.066   7.307   1.768
21904SOL    HW267552   6.100   7.161   1.745
21905SOL     OW67553   8.571   5.921  10.003
21905SOL    HW167554   8.598   5.929   9.912
21905SOL    HW267555   8.564   6.012  10.033
21906SOL     OW67556  13.274  11.197   0.320
21906SOL    HW167557  13.308  11.285   0.337
21906SOL    HW267558  13.234  11.171   0.402
21907SOL     OW67559  13.102   5.619   2.072
21907SOL    HW167560  13.056   5.678   2.013
21907SOL    HW267561  13.045   5.542   2.078
21908SOL     OW67562   9.819  10.202   0.191
21908SOL    HW167563   9.803  10.229   0.282
21908SOL    HW267564   9.733  10.180   0.157
21909SOL     OW67565  10.672   9.382   2.743
21909SOL    HW167566  10.746   9.441   2.758
21909SOL    HW267567  10.706   9.314   2.684
21910SOL     OW67568   6.304   2.922   1.288
21910SOL    HW167569   6.287   2.854   1.354
21910SOL    HW267570   6.389   2.958   1.312
21911SOL     OW67571   1.351   6.352  12.979
21911SOL    HW167572   1.445   6.336  12.971
21911SOL    HW267573   1.310   6.266  12.969
21912SOL     OW67574   3.331  11.292  13.771
21912SOL    HW167575   3.381  11.329  13.698
21912SOL    HW267576   3.259  11.245  13.729
21913SOL     OW67577  14.643  10.583   2.960
21913SOL    HW167578  14.552  10.575   2.991
21913SOL    HW267579  14.676  10.494   2.961
21914SOL     OW67580   2.292   8.952   3.612
21914SOL    HW167581   2.357   8.991   3.670
21914SOL    HW267582   2.343   8.897   3.552
21915SOL     OW67583  11.859   8.546   3.499
21915SOL    HW167584  11.882   8.560   3.591
21915SOL    HW267585  11.849   8.451   3.491
21916SOL     OW67586  10.157   8.098  12.147
21916SOL    HW167587  10.185   8.101  12.055
21916SOL    HW267588  10.173   8.007  12.173
21917SOL     OW67589  14.093   3.485  12.967
21917SOL    HW167590  14.011   3.435  12.966
21917SOL    HW267591  14.143   3.451  12.893
21918SOL     OW67592   2.670  12.684  14.171
21918SOL    HW167593   2.703  12.643  14.252
21918SOL    HW267594   2.735  12.663  14.105
21919SOL     OW67595  10.692   0.467   7.039
21919SOL    HW167596  10.780   0.431   7.039
21919SOL    HW267597  10.696   0.541   7.099
21920SOL     OW67598  14.341   1.370   6.698
21920SOL    HW167599  14.359   1.307   6.629
21920SOL    HW267600  14.425   1.381   6.743
21921SOL     OW67601  11.301  11.628   2.835
21921SOL    HW167602  11.280  11.541   2.867
21921SOL    HW267603  11.397  11.632   2.837
21922SOL     OW67604   5.566   4.186   5.780
21922SOL    HW167605   5.514   4.255   5.822
21922SOL    HW267606   5.513   4.107   5.789
21923SOL     OW67607  10.293   6.621   9.115
21923SOL    HW167608  10.354   6.686   9.080
21923SOL    HW267609  10.347   6.560   9.164
21924SOL     OW67610   7.089   9.251  11.563
21924SOL    HW167611   7.182   9.271  11.548
21924SOL    HW267612   7.086   9.222  11.654
21925SOL     OW67613   6.408   0.910   2.665
21925SOL    HW167614   6.438   0.840   2.723
21925SOL    HW267615   6.361   0.863   2.595
21926SOL     OW67616   1.646   1.079   9.588
21926SOL    HW167617   1.599   1.000   9.559
21926SOL    HW267618   1.713   1.092   9.520
21927SOL     OW67619  14.684   5.112  13.108
21927SOL    HW167620  14.650   5.157  13.186
21927SOL    HW267621  14.631   5.033  13.101
21928SOL     OW67622  12.884  13.945   1.918
21928SOL    HW167623  12.891  13.974   1.827
21928SOL    HW267624  12.827  14.010   1.960
21929SOL     OW67625   6.965   5.559   8.105
21929SOL    HW167626   6.967   5.476   8.057
21929SOL    HW267627   7.027   5.545   8.177
21930SOL     OW67628   0.058   5.476   8.296
21930SOL    HW167629   0.075   5.547   8.234
21930SOL    HW267630   0.088   5.397   8.251
21931SOL     OW67631   7.058   3.511   9.418
21931SOL    HW167632   6.974   3.557   9.422
21931SOL    HW267633   7.119   3.576   9.383
21932SOL     OW67634   2.261  11.194   0.941
21932SOL    HW167635   2.193  11.229   0.883
21932SOL    HW267636   2.243  11.235   1.026
21933SOL     OW67637  10.774   1.069  13.096
21933SOL    HW167638  10.763   0.979  13.064
21933SOL    HW267639  10.795   1.060  13.189
21934SOL     OW67640   7.542   9.892   8.202
21934SOL    HW167641   7.484   9.919   8.274
21934SOL    HW267642   7.613   9.846   8.246
21935SOL     OW67643   9.346  11.073   4.413
21935SOL    HW167644   9.268  11.127   4.424
21935SOL    HW267645   9.320  10.986   4.443
21936SOL     OW67646  13.914   6.718   7.196
21936SOL    HW167647  13.929   6.662   7.272
21936SOL    HW267648  13.840   6.677   7.151
21937SOL     OW67649  12.499  11.888  12.876
21937SOL    HW167650  12.409  11.916  12.895
21937SOL    HW267651  12.491  11.795  12.853
21938SOL     OW67652   8.138  10.585  11.462
21938SOL    HW167653   8.225  10.619  11.438
21938SOL    HW267654   8.080  10.616  11.393
21939SOL     OW67655   6.021  12.151   3.625
21939SOL    HW167656   6.022  12.156   3.530
21939SOL    HW267657   5.934  12.117   3.647
21940SOL     OW67658  12.611   9.976   9.545
21940SOL    HW167659  12.611   9.994   9.451
21940SOL    HW267660  12.668  10.044   9.582
21941SOL     OW67661   7.161   9.866   9.141
21941SOL    HW167662   7.073   9.894   9.163
21941SOL    HW267663   7.159   9.852   9.046
21942SOL     OW67664   9.245  12.303  13.747
21942SOL    HW167665   9.157  12.341  13.745
21942SOL    HW267666   9.230  12.208  13.748
21943SOL     OW67667   1.443  12.416  10.636
21943SOL    HW167668   1.532  12.448  10.648
21943SOL    HW267669   1.427  12.423  10.542
21944SOL     OW67670   0.779  13.631   7.436
21944SOL    HW167671   0.714  13.575   7.392
21944SOL    HW267672   0.832  13.570   7.487
21945SOL     OW67673   4.189  12.349   7.478
21945SOL    HW167674   4.236  12.270   7.504
21945SOL    HW267675   4.169  12.393   7.560
21946SOL     OW67676  14.874   3.973   9.665
21946SOL    HW167677   0.078   3.993   9.709
21946SOL    HW267678  14.813   4.040   9.696
21947SOL     OW67679  12.450  13.391  12.143
21947SOL    HW167680  12.439  13.307  12.099
21947SOL    HW267681  12.384  13.448  12.103
21948SOL     OW67682  11.200  11.037   9.695
21948SOL    HW167683  11.194  10.950   9.656
21948SOL    HW267684  11.170  11.097   9.626
21949SOL     OW67685  12.670  13.001   3.856
21949SOL    HW167686  12.673  12.925   3.798
21949SOL    HW267687  12.595  13.051   3.826
21950SOL     OW67688   0.394  13.808  11.572
21950SOL    HW167689   0.320  13.834  11.626
21950SOL    HW267690   0.412  13.885  11.518
21951SOL     OW67691   0.965  13.149  13.130
21951SOL    HW167692   0.919  13.178  13.051
21951SOL    HW267693   1.057  13.157  13.109
21952SOL     OW67694   2.050   3.899   2.246
21952SOL    HW167695   2.144   3.895   2.228
21952SOL    HW267696   2.043   3.952   2.325
21953SOL     OW67697   4.407   5.579   0.334
21953SOL    HW167698   4.355   5.556   0.412
21953SOL    HW267699   4.345   5.628   0.279
21954SOL     OW67700   2.552   5.273   4.505
21954SOL    HW167701   2.560   5.216   4.582
21954SOL    HW267702   2.471   5.322   4.520
21955SOL     OW67703   9.250   4.507  10.846
21955SOL    HW167704   9.338   4.494  10.881
21955SOL    HW267705   9.237   4.601  10.846
21956SOL     OW67706   3.273   5.163   4.099
21956SOL    HW167707   3.271   5.114   4.017
21956SOL    HW267708   3.183   5.196   4.110
21957SOL     OW67709   1.321  13.918   1.124
21957SOL    HW167710   1.342  13.834   1.165
21957SOL    HW267711   1.228  13.912   1.104
21958SOL     OW67712  10.027   1.931   5.016
21958SOL    HW167713  10.097   1.992   4.993
21958SOL    HW267714   9.947   1.973   4.984
21959SOL     OW67715  12.324   7.855   5.772
21959SOL    HW167716  12.332   7.818   5.684
21959SOL    HW267717  12.412   7.888   5.792
21960SOL     OW67718   8.366   7.379   5.781
21960SOL    HW167719   8.295   7.387   5.717
21960SOL    HW267720   8.424   7.452   5.761
21961SOL     OW67721  14.263   0.746   6.179
21961SOL    HW167722  14.329   0.787   6.122
21961SOL    HW267723  14.204   0.701   6.120
21962SOL     OW67724   8.706   9.117   8.244
21962SOL    HW167725   8.645   9.095   8.174
21962SOL    HW267726   8.671   9.073   8.321
21963SOL     OW67727   3.404   2.493  10.763
21963SOL    HW167728   3.438   2.464  10.848
21963SOL    HW267729   3.374   2.582  10.778
21964SOL     OW67730   9.301  14.039  11.056
21964SOL    HW167731   9.242  14.051  10.981
21964SOL    HW267732   9.274  13.956  11.095
21965SOL     OW67733  10.812   3.155  12.553
21965SOL    HW167734  10.719   3.153  12.530
21965SOL    HW267735  10.846   3.070  12.526
21966SOL     OW67736   7.313  13.141   8.392
21966SOL    HW167737   7.230  13.098   8.374
21966SOL    HW267738   7.292  13.209   8.457
21967SOL     OW67739   1.739  12.055   8.249
21967SOL    HW167740   1.779  12.120   8.306
21967SOL    HW267741   1.716  12.104   8.169
21968SOL     OW67742   8.930  11.166   5.583
21968SOL    HW167743   8.940  11.075   5.613
21968SOL    HW267744   8.879  11.159   5.503
21969SOL     OW67745   4.389   0.152   1.717
21969SOL    HW167746   4.368   0.191   1.632
21969SOL    HW267747   4.478   0.182   1.736
21970SOL     OW67748   7.978  13.443   3.187
21970SOL    HW167749   8.020  13.476   3.108
21970SOL    HW267750   8.049  13.407   3.239
21971SOL     OW67751  10.339  14.757  12.046
21971SOL    HW167752  10.298  14.812  11.979
21971SOL    HW267753  10.429  14.788  12.051
21972SOL     OW67754   5.909  12.427  13.037
21972SOL    HW167755   5.850  12.425  12.962
21972SOL    HW267756   5.874  12.361  13.097
21973SOL     OW67757   7.760   0.587  12.529
21973SOL    HW167758   7.758   0.539  12.612
21973SOL    HW267759   7.839   0.640  12.534
21974SOL     OW67760  12.687   7.175  11.516
21974SOL    HW167761  12.624   7.230  11.470
21974SOL    HW267762  12.725   7.119  11.448
21975SOL     OW67763   4.653   9.540  10.054
21975SOL    HW167764   4.673   9.581   9.970
21975SOL    HW267765   4.644   9.447  10.033
21976SOL     OW67766   9.524   6.895   7.841
21976SOL    HW167767   9.591   6.963   7.846
21976SOL    HW267768   9.452   6.930   7.893
21977SOL     OW67769   3.817   1.505   3.230
21977SOL    HW167770   3.909   1.483   3.225
21977SOL    HW267771   3.806   1.543   3.318
21978SOL     OW67772  13.358   9.410   8.558
21978SOL    HW167773  13.355   9.393   8.653
21978SOL    HW267774  13.405   9.335   8.522
21979SOL     OW67775  12.766   0.260   4.560
21979SOL    HW167776  12.756   0.286   4.468
21979SOL    HW267777  12.860   0.248   4.572
21980SOL     OW67778   7.080  11.348   8.734
21980SOL    HW167779   7.125  11.362   8.651
21980SOL    HW267780   7.077  11.435   8.775
21981SOL     OW67781   1.648  10.792   7.285
21981SOL    HW167782   1.624  10.705   7.252
21981SOL    HW267783   1.728  10.776   7.336
21982SOL     OW67784   6.897  14.061   9.242
21982SOL    HW167785   6.957  13.988   9.228
21982SOL    HW267786   6.885  14.064   9.337
21983SOL     OW67787   2.977   4.933   3.128
21983SOL    HW167788   2.891   4.896   3.110
21983SOL    HW267789   2.964   5.028   3.123
21984SOL     OW67790   5.842  13.121   5.449
21984SOL    HW167791   5.883  13.197   5.409
21984SOL    HW267792   5.811  13.068   5.375
21985SOL     OW67793  10.122   0.516   8.681
21985SOL    HW167794  10.129   0.510   8.777
21985SOL    HW267795  10.042   0.566   8.667
21986SOL     OW67796   2.923   2.786   6.747
21986SOL    HW167797   2.871   2.728   6.690
21986SOL    HW267798   2.858   2.843   6.787
21987SOL     OW67799   3.094  13.119  14.282
21987SOL    HW167800   3.149  13.171  14.341
21987SOL    HW267801   3.129  13.136  14.195
21988SOL     OW67802   0.403   2.953   5.659
21988SOL    HW167803   0.370   3.040   5.680
21988SOL    HW267804   0.325   2.899   5.646
21989SOL     OW67805   4.432  11.807   5.031
21989SOL    HW167806   4.402  11.728   4.984
21989SOL    HW267807   4.369  11.817   5.102
21990SOL     OW67808   9.616   3.436  14.616
21990SOL    HW167809   9.585   3.429  14.706
21990SOL    HW267810   9.609   3.347  14.581
21991SOL     OW67811  12.947  11.984   2.465
21991SOL    HW167812  12.854  12.005   2.455
21991SOL    HW267813  12.986  12.066   2.497
21992SOL     OW67814   6.885   0.785   1.007
21992SOL    HW167815   6.960   0.789   1.066
21992SOL    HW267816   6.842   0.702   1.028
21993SOL     OW67817  14.733   5.935   5.800
21993SOL    HW167818  14.676   5.860   5.782
21993SOL    HW267819  14.744   5.933   5.896
21994SOL     OW67820   1.484   9.804   6.418
21994SOL    HW167821   1.427   9.857   6.474
21994SOL    HW267822   1.572   9.840   6.432
21995SOL     OW67823   1.712   4.106  12.691
21995SOL    HW167824   1.746   4.026  12.732
21995SOL    HW267825   1.791   4.157  12.670
21996SOL     OW67826   0.613   7.751   4.110
21996SOL    HW167827   0.673   7.812   4.067
21996SOL    HW267828   0.625   7.767   4.204
21997SOL     OW67829   9.440  14.729   8.059
21997SOL    HW167830   9.395  14.762   8.136
21997SOL    HW267831   9.446  14.634   8.072
21998SOL     OW67832   6.868   2.522   9.782
21998SOL    HW167833   6.795   2.531   9.720
21998SOL    HW267834   6.853   2.437   9.824
21999SOL     OW67835   3.572   1.886   8.172
21999SOL    HW167836   3.565   1.943   8.095
21999SOL    HW267837   3.561   1.944   8.247
22000SOL     OW67838  14.171   6.986   7.266
22000SOL    HW167839  14.205   6.950   7.184
22000SOL    HW267840  14.100   7.044   7.239
22001SOL     OW67841   0.407   3.747  11.424
22001SOL    HW167842   0.469   3.760  11.352
22001SOL    HW267843   0.321   3.762  11.384
22002SOL     OW67844   0.560  11.225   3.170
22002SOL    HW167845   0.560  11.219   3.075
22002SOL    HW267846   0.576  11.136   3.200
22003SOL     OW67847   4.698   9.814   5.952
22003SOL    HW167848   4.759   9.783   6.019
22003SOL    HW267849   4.617   9.766   5.970
22004SOL     OW67850   7.418   0.734   9.073
22004SOL    HW167851   7.350   0.749   9.138
22004SOL    HW267852   7.499   0.757   9.118
22005SOL     OW67853   2.522   2.789   0.744
22005SOL    HW167854   2.443   2.766   0.793
22005SOL    HW267855   2.514   2.741   0.661
22006SOL     OW67856   7.051  12.829   2.678
22006SOL    HW167857   7.096  12.911   2.661
22006SOL    HW267858   6.959  12.853   2.690
22007SOL     OW67859   5.914   5.420   1.563
22007SOL    HW167860   5.904   5.456   1.651
22007SOL    HW267861   5.828   5.382   1.543
22008SOL     OW67862  12.309   7.658  14.264
22008SOL    HW167863  12.229   7.644  14.214
22008SOL    HW267864  12.308   7.751  14.284
22009SOL     OW67865  12.249   1.610  13.174
22009SOL    HW167866  12.245   1.675  13.104
22009SOL    HW267867  12.199   1.648  13.246
22010SOL     OW67868   7.560   1.052   6.120
22010SOL    HW167869   7.533   1.060   6.028
22010SOL    HW267870   7.545   0.960   6.141
22011SOL     OW67871   9.132   9.355   5.648
22011SOL    HW167872   9.063   9.421   5.647
22011SOL    HW267873   9.086   9.272   5.631
22012SOL     OW67874   4.162   8.012   4.149
22012SOL    HW167875   4.137   7.974   4.233
22012SOL    HW267876   4.229   8.078   4.172
22013SOL     OW67877  12.057   1.036  10.058
22013SOL    HW167878  12.012   0.987   9.989
22013SOL    HW267879  12.075   0.970  10.125
22014SOL     OW67880  12.664   1.218  11.468
22014SOL    HW167881  12.732   1.151  11.464
22014SOL    HW267882  12.712   1.301  11.468
22015SOL     OW67883   5.482   1.219   7.753
22015SOL    HW167884   5.387   1.233   7.757
22015SOL    HW267885   5.493   1.146   7.691
22016SOL     OW67886  10.251   7.138   4.973
22016SOL    HW167887  10.169   7.133   5.023
22016SOL    HW267888  10.318   7.109   5.034
22017SOL     OW67889  10.981   1.436   4.997
22017SOL    HW167890  10.988   1.450   4.902
22017SOL    HW267891  11.063   1.393   5.021
22018SOL     OW67892   4.217  12.393   0.588
22018SOL    HW167893   4.241  12.301   0.596
22018SOL    HW267894   4.283  12.430   0.528
22019SOL     OW67895  13.240   5.578   5.376
22019SOL    HW167896  13.228   5.483   5.382
22019SOL    HW267897  13.155   5.611   5.350
22020SOL     OW67898   2.892  11.328  13.067
22020SOL    HW167899   2.800  11.339  13.043
22020SOL    HW267900   2.889  11.282  13.151
22021SOL     OW67901   9.154   2.038   5.126
22021SOL    HW167902   9.242   2.002   5.133
22021SOL    HW267903   9.099   1.978   5.178
22022SOL     OW67904   0.025   0.269   3.525
22022SOL    HW167905  14.865   0.314   3.600
22022SOL    HW267906  14.832   0.256   3.464
22023SOL     OW67907   5.918   6.010  14.560
22023SOL    HW167908   5.987   5.948  14.584
22023SOL    HW267909   5.958   6.067  14.495
22024SOL     OW67910   2.167   1.429   3.049
22024SOL    HW167911   2.173   1.456   3.141
22024SOL    HW267912   2.087   1.472   3.017
22025SOL     OW67913   3.636  11.188   6.420
22025SOL    HW167914   3.689  11.135   6.481
22025SOL    HW267915   3.570  11.127   6.387
22026SOL     OW67916  10.607   0.919   6.889
22026SOL    HW167917  10.578   0.996   6.938
22026SOL    HW267918  10.664   0.872   6.950
22027SOL     OW67919   7.295  10.764   1.574
22027SOL    HW167920   7.365  10.700   1.562
22027SOL    HW267921   7.219  10.712   1.599
22028SOL     OW67922   1.223  13.634   6.768
22028SOL    HW167923   1.191  13.544   6.759
22028SOL    HW267924   1.153  13.687   6.731
22029SOL     OW67925  14.308   1.095  12.976
22029SOL    HW167926  14.268   1.178  13.004
22029SOL    HW267927  14.318   1.104  12.881
22030SOL     OW67928   0.858   7.790  11.789
22030SOL    HW167929   0.949   7.767  11.770
22030SOL    HW267930   0.830   7.841  11.713
22031SOL     OW67931   1.049   4.114  12.623
22031SOL    HW167932   1.104   4.165  12.563
22031SOL    HW267933   1.107   4.088  12.694
22032SOL     OW67934   3.669  13.887   3.938
22032SOL    HW167935   3.661  13.806   3.988
22032SOL    HW267936   3.701  13.859   3.852
22033SOL     OW67937   5.607  10.354   5.704
22033SOL    HW167938   5.535  10.414   5.721
22033SOL    HW267939   5.613  10.300   5.783
22034SOL     OW67940  10.561   5.768   3.763
22034SOL    HW167941  10.604   5.726   3.688
22034SOL    HW267942  10.468   5.748   3.751
22035SOL     OW67943   3.895   3.946  11.168
22035SOL    HW167944   3.885   4.037  11.196
22035SOL    HW267945   3.938   3.902  11.242
22036SOL     OW67946   4.012  14.110   6.651
22036SOL    HW167947   3.991  14.070   6.735
22036SOL    HW267948   3.927  14.127   6.609
22037SOL     OW67949   6.201  13.272   7.895
22037SOL    HW167950   6.228  13.209   7.827
22037SOL    HW267951   6.142  13.222   7.951
22038SOL     OW67952   9.113   8.803   5.534
22038SOL    HW167953   9.198   8.783   5.495
22038SOL    HW267954   9.050   8.787   5.465
22039SOL     OW67955   9.680   9.527   2.987
22039SOL    HW167956   9.691   9.450   3.043
22039SOL    HW267957   9.762   9.575   2.997
22040SOL     OW67958  13.277  12.321   8.248
22040SOL    HW167959  13.201  12.265   8.264
22040SOL    HW267960  13.338  12.300   8.318
22041SOL     OW67961   0.152   3.754  12.333
22041SOL    HW167962   0.151   3.695  12.258
22041SOL    HW267963   0.061   3.784  12.342
22042SOL     OW67964  12.859   8.294   5.778
22042SOL    HW167965  12.853   8.250   5.863
22042SOL    HW267966  12.772   8.331   5.763
22043SOL     OW67967   9.212   5.462  11.103
22043SOL    HW167968   9.242   5.552  11.088
22043SOL    HW267969   9.212   5.422  11.016
22044SOL     OW67970   9.846   1.637   7.146
22044SOL    HW167971   9.769   1.633   7.202
22044SOL    HW267972   9.893   1.555   7.165
22045SOL     OW67973  12.580   3.190  14.766
22045SOL    HW167974  12.507   3.170  14.707
22045SOL    HW267975  12.655   3.143  14.728
22046SOL     OW67976   2.632   7.521   9.854
22046SOL    HW167977   2.551   7.555   9.816
22046SOL    HW267978   2.658   7.586   9.919
22047SOL     OW67979   7.763   7.488  11.836
22047SOL    HW167980   7.851   7.508  11.802
22047SOL    HW267981   7.727   7.426  11.773
22048SOL     OW67982   8.136   9.340  13.235
22048SOL    HW167983   8.220   9.296  13.244
22048SOL    HW267984   8.113   9.367  13.324
22049SOL     OW67985  10.907   6.888   8.310
22049SOL    HW167986  10.882   6.802   8.344
22049SOL    HW267987  11.002   6.892   8.322
22050SOL     OW67988   9.643   0.313  12.669
22050SOL    HW167989   9.720   0.340  12.618
22050SOL    HW267990   9.654   0.218  12.681
22051SOL     OW67991   7.005   1.979  10.169
22051SOL    HW167992   6.964   1.914  10.225
22051SOL    HW267993   6.966   2.062  10.197
22052SOL     OW67994   1.659   2.724   4.822
22052SOL    HW167995   1.660   2.736   4.917
22052SOL    HW267996   1.633   2.633   4.810
22053SOL     OW67997  10.997  13.357   8.638
22053SOL    HW167998  11.044  13.428   8.681
22053SOL    HW267999  11.047  13.278   8.659
22054SOL     OW68000   1.528   4.336  13.316
22054SOL    HW168001   1.500   4.245  13.323
22054SOL    HW268002   1.490   4.378  13.394
22055SOL     OW68003  14.194   1.930   7.767
22055SOL    HW168004  14.255   1.902   7.698
22055SOL    HW268005  14.248   1.936   7.846
22056SOL     OW68006   9.866   9.665   4.129
22056SOL    HW168007   9.896   9.753   4.106
22056SOL    HW268008   9.798   9.645   4.066
22057SOL     OW68009   8.232   6.980  11.193
22057SOL    HW168010   8.170   6.945  11.257
22057SOL    HW268011   8.313   6.932  11.210
22058SOL     OW68012  12.753   0.507  13.955
22058SOL    HW168013  12.719   0.520  13.866
22058SOL    HW268014  12.822   0.573  13.964
22059SOL     OW68015  10.552  10.991  13.063
22059SOL    HW168016  10.560  10.895  13.067
22059SOL    HW268017  10.635  11.023  13.098
22060SOL     OW68018  12.389   9.667  10.204
22060SOL    HW168019  12.342   9.584  10.211
22060SOL    HW268020  12.321   9.733  10.193
22061SOL     OW68021   0.294   2.526   2.583
22061SOL    HW168022   0.345   2.580   2.643
22061SOL    HW268023   0.204   2.558   2.593
22062SOL     OW68024   9.297   3.883   9.347
22062SOL    HW168025   9.208   3.891   9.381
22062SOL    HW268026   9.290   3.912   9.256
22063SOL     OW68027   7.311   1.457   4.465
22063SOL    HW168028   7.245   1.480   4.531
22063SOL    HW268029   7.368   1.534   4.461
22064SOL     OW68030  10.437   8.203   7.157
22064SOL    HW168031  10.424   8.270   7.224
22064SOL    HW268032  10.394   8.125   7.193
22065SOL     OW68033  10.671   7.408   4.168
22065SOL    HW168034  10.649   7.501   4.161
22065SOL    HW268035  10.624   7.366   4.095
22066SOL     OW68036   2.214   0.248  14.065
22066SOL    HW168037   2.154   0.182  14.030
22066SOL    HW268038   2.296   0.232  14.018
22067SOL     OW68039  11.853  11.564   9.521
22067SOL    HW168040  11.828  11.481   9.483
22067SOL    HW268041  11.819  11.561   9.611
22068SOL     OW68042   2.752  13.199   8.223
22068SOL    HW168043   2.758  13.290   8.252
22068SOL    HW268044   2.732  13.150   8.302
22069SOL     OW68045  13.221   3.820   4.788
22069SOL    HW168046  13.276   3.749   4.757
22069SOL    HW268047  13.140   3.777   4.817
22070SOL     OW68048   2.047   2.856  11.707
22070SOL    HW168049   1.954   2.837  11.696
22070SOL    HW268050   2.068   2.915  11.634
22071SOL     OW68051  10.127  10.329   4.755
22071SOL    HW168052  10.111  10.243   4.715
22071SOL    HW268053  10.208  10.359   4.713
22072SOL     OW68054   3.679   9.123  12.437
22072SOL    HW168055   3.600   9.127  12.382
22072SOL    HW268056   3.690   9.030  12.455
22073SOL     OW68057   7.727   9.049  13.112
22073SOL    HW168058   7.747   9.124  13.168
22073SOL    HW268059   7.727   8.974  13.172
22074SOL     OW68060  10.168   9.506   5.153
22074SOL    HW168061  10.171   9.424   5.104
22074SOL    HW268062  10.186   9.481   5.243
22075SOL     OW68063  13.149   7.157   8.904
22075SOL    HW168064  13.101   7.215   8.964
22075SOL    HW268065  13.141   7.201   8.819
22076SOL     OW68066   5.668  13.139  13.355
22076SOL    HW168067   5.749  13.106  13.394
22076SOL    HW268068   5.599  13.112  13.416
22077SOL     OW68069  12.836   5.119   5.183
22077SOL    HW168070  12.871   5.160   5.262
22077SOL    HW268071  12.913   5.096   5.132
22078SOL     OW68072   1.998   9.834   2.879
22078SOL    HW168073   1.903   9.823   2.882
22078SOL    HW268074   2.010   9.924   2.848
22079SOL     OW68075   6.545   2.087  10.918
22079SOL    HW168076   6.516   2.072  10.828
22079SOL    HW268077   6.616   2.151  10.910
22080SOL     OW68078   8.153  12.354   8.248
22080SOL    HW168079   8.158  12.353   8.152
22080SOL    HW268080   8.060  12.344   8.268
22081SOL     OW68081   3.775   1.781   5.582
22081SOL    HW168082   3.793   1.804   5.491
22081SOL    HW268083   3.680   1.791   5.591
22082SOL     OW68084   7.646   1.135  11.883
22082SOL    HW168085   7.603   1.174  11.959
22082SOL    HW268086   7.722   1.191  11.867
22083SOL     OW68087  11.400   3.345   5.392
22083SOL    HW168088  11.457   3.330   5.468
22083SOL    HW268089  11.313   3.317   5.420
22084SOL     OW68090  14.431  12.266   4.391
22084SOL    HW168091  14.502  12.304   4.442
22084SOL    HW268092  14.368  12.235   4.457
22085SOL     OW68093   1.103  14.318  11.485
22085SOL    HW168094   1.049  14.258  11.535
22085SOL    HW268095   1.081  14.405  11.519
22086SOL     OW68096  11.575   0.106  14.816
22086SOL    HW168097  11.540   0.034  14.764
22086SOL    HW268098  11.669   0.105  14.797
22087SOL     OW68099   1.310   9.954   6.158
22087SOL    HW168100   1.275  10.001   6.082
22087SOL    HW268101   1.306   9.862   6.134
22088SOL     OW68102  13.317  11.261  12.808
22088SOL    HW168103  13.379  11.226  12.744
22088SOL    HW268104  13.370  11.284  12.884
22089SOL     OW68105   8.256   1.259   6.518
22089SOL    HW168106   8.268   1.178   6.568
22089SOL    HW268107   8.163   1.278   6.527
22090SOL     OW68108   1.816   4.855   4.227
22090SOL    HW168109   1.842   4.772   4.186
22090SOL    HW268110   1.839   4.922   4.162
22091SOL     OW68111  12.917  11.994   2.846
22091SOL    HW168112  12.928  11.977   2.939
22091SOL    HW268113  12.931  11.909   2.804
22092SOL     OW68114   3.426   2.006  14.309
22092SOL    HW168115   3.352   1.946  14.317
22092SOL    HW268116   3.465   1.985  14.224
22093SOL     OW68117   5.947   8.941  13.989
22093SOL    HW168118   5.885   8.931  14.061
22093SOL    HW268119   6.003   8.863  13.994
22094SOL     OW68120   4.510   8.777   1.387
22094SOL    HW168121   4.474   8.702   1.434
22094SOL    HW268122   4.472   8.769   1.299
22095SOL     OW68123  13.996  14.330   6.431
22095SOL    HW168124  14.056  14.385   6.381
22095SOL    HW268125  13.921  14.387   6.449
22096SOL     OW68126   5.412  12.331  10.346
22096SOL    HW168127   5.370  12.406  10.388
22096SOL    HW268128   5.343  12.289  10.295
22097SOL     OW68129   2.792   0.226   5.423
22097SOL    HW168130   2.826   0.245   5.336
22097SOL    HW268131   2.870   0.210   5.476
22098SOL     OW68132   0.276   8.376  11.660
22098SOL    HW168133   0.271   8.329  11.744
22098SOL    HW268134   0.342   8.329  11.610
22099SOL     OW68135  10.487   8.417  11.586
22099SOL    HW168136  10.436   8.496  11.568
22099SOL    HW268137  10.575   8.448  11.606
22100SOL     OW68138   6.198   4.212  14.697
22100SOL    HW168139   6.120   4.262  14.723
22100SOL    HW268140   6.200   4.137  14.756
22101SOL     OW68141  10.018   3.407   2.681
22101SOL    HW168142  10.071   3.373   2.753
22101SOL    HW268143   9.950   3.459   2.724
22102SOL     OW68144  12.421  11.893   8.160
22102SOL    HW168145  12.456  11.930   8.079
22102SOL    HW268146  12.492  11.838   8.194
22103SOL     OW68147  12.869  14.735   1.383
22103SOL    HW168148  12.891  14.697   1.468
22103SOL    HW268149  12.825  14.817   1.404
22104SOL     OW68150  14.708   4.108   8.320
22104SOL    HW168151  14.742   4.060   8.244
22104SOL    HW268152  14.769   4.086   8.391
22105SOL     OW68153  14.703  11.155   3.582
22105SOL    HW168154  14.745  11.113   3.657
22105SOL    HW268155  14.688  11.084   3.520
22106SOL     OW68156   9.569   7.206   9.996
22106SOL    HW168157   9.622   7.285   9.997
22106SOL    HW268158   9.496   7.224  10.055
22107SOL     OW68159  12.787  14.355   0.620
22107SOL    HW168160  12.716  14.395   0.670
22107SOL    HW268161  12.812  14.423   0.557
22108SOL     OW68162   9.656  10.644   3.266
22108SOL    HW168163   9.731  10.585   3.270
22108SOL    HW268164   9.693  10.727   3.236
22109SOL     OW68165   1.473  14.826  12.316
22109SOL    HW168166   1.401  14.868  12.364
22109SOL    HW268167   1.486   0.003  12.239
22110SOL     OW68168  11.980   7.358  11.160
22110SOL    HW168169  11.977   7.346  11.255
22110SOL    HW268170  11.892   7.387  11.136
22111SOL     OW68171  13.827  14.279   2.674
22111SOL    HW168172  13.837  14.184   2.688
22111SOL    HW268173  13.773  14.285   2.596
22112SOL     OW68174   8.832   3.368   8.620
22112SOL    HW168175   8.748   3.323   8.622
22112SOL    HW268176   8.813   3.458   8.646
22113SOL     OW68177  10.218   5.704  14.745
22113SOL    HW168178  10.129   5.738  14.750
22113SOL    HW268179  10.270   5.776  14.709
22114SOL     OW68180   4.705   8.738   9.673
22114SOL    HW168181   4.641   8.771   9.736
22114SOL    HW268182   4.654   8.683   9.614
22115SOL     OW68183   4.427   3.476   2.623
22115SOL    HW168184   4.406   3.540   2.690
22115SOL    HW268185   4.356   3.483   2.559
22116SOL     OW68186  12.494   6.048   0.907
22116SOL    HW168187  12.479   6.138   0.937
22116SOL    HW268188  12.429   6.035   0.838
22117SOL     OW68189   1.254   7.870   4.814
22117SOL    HW168190   1.220   7.942   4.867
22117SOL    HW268191   1.254   7.905   4.724
22118SOL     OW68192   0.999   9.403   8.958
22118SOL    HW168193   0.989   9.333   8.894
22118SOL    HW268194   1.063   9.462   8.920
22119SOL     OW68195   9.777   0.520  14.225
22119SOL    HW168196   9.812   0.579  14.158
22119SOL    HW268197   9.717   0.574  14.275
22120SOL     OW68198  12.873  11.763  10.187
22120SOL    HW168199  12.853  11.702  10.116
22120SOL    HW268200  12.811  11.836  10.175
22121SOL     OW68201   0.242   7.722  13.240
22121SOL    HW168202   0.176   7.741  13.173
22121SOL    HW268203   0.202   7.750  13.322
22122SOL     OW68204   3.933   7.220   4.017
22122SOL    HW168205   3.906   7.238   4.107
22122SOL    HW268206   3.970   7.303   3.985
22123SOL     OW68207  12.694  12.259   5.115
22123SOL    HW168208  12.598  12.261   5.107
22123SOL    HW268209  12.724  12.340   5.076
22124SOL     OW68210   8.397   9.764   9.040
22124SOL    HW168211   8.317   9.737   8.994
22124SOL    HW268212   8.396   9.860   9.034
22125SOL     OW68213   0.021  14.519   1.416
22125SOL    HW168214  14.860  14.522   1.503
22125SOL    HW268215  14.830  14.490   1.358
22126SOL     OW68216   1.053   9.526   1.481
22126SOL    HW168217   1.037   9.554   1.391
22126SOL    HW268218   1.023   9.600   1.534
22127SOL     OW68219   1.743   8.840   3.594
22127SOL    HW168220   1.740   8.869   3.685
22127SOL    HW268221   1.825   8.790   3.588
22128SOL     OW68222  11.036  11.534   3.727
22128SOL    HW168223  10.956  11.505   3.770
22128SOL    HW268224  11.050  11.623   3.760
22129SOL     OW68225   5.006   5.471  13.995
22129SOL    HW168226   5.037   5.558  14.021
22129SOL    HW268227   4.918   5.465  14.030
22130SOL     OW68228   6.516  14.629  12.052
22130SOL    HW168229   6.447  14.681  12.010
22130SOL    HW268230   6.574  14.604  11.981
22131SOL     OW68231   6.013   8.843   4.319
22131SOL    HW168232   5.919   8.843   4.299
22131SOL    HW268233   6.017   8.821   4.412
22132SOL     OW68234   0.887   8.079   4.670
22132SOL    HW168235   0.962   8.035   4.628
22132SOL    HW268236   0.831   8.008   4.699
22133SOL     OW68237  11.325  13.791  11.789
22133SOL    HW168238  11.283  13.873  11.765
22133SOL    HW268239  11.373  13.811  11.870
22134SOL     OW68240  13.028   6.752  14.416
22134SOL    HW168241  13.091   6.680  14.409
22134SOL    HW268242  13.079   6.824  14.453
22135SOL     OW68243   8.510  12.180   8.059
22135SOL    HW168244   8.501  12.271   8.032
22135SOL    HW268245   8.428  12.139   8.033
22136SOL     OW68246   2.782   7.273   7.080
22136SOL    HW168247   2.738   7.190   7.065
22136SOL    HW268248   2.742   7.334   7.017
22137SOL     OW68249   0.310  10.242   2.615
22137SOL    HW168250   0.292  10.221   2.707
22137SOL    HW268251   0.388  10.298   2.618
22138SOL     OW68252  13.110   1.297  11.102
22138SOL    HW168253  13.133   1.381  11.063
22138SOL    HW268254  13.141   1.232  11.039
22139SOL     OW68255   5.053   4.701   8.854
22139SOL    HW168256   4.988   4.722   8.787
22139SOL    HW268257   5.010   4.722   8.936
22140SOL     OW68258  12.797   3.324   1.202
22140SOL    HW168259  12.757   3.347   1.118
22140SOL    HW268260  12.847   3.244   1.183
22141SOL     OW68261   9.874   5.467   6.646
22141SOL    HW168262   9.966   5.472   6.617
22141SOL    HW268263   9.843   5.383   6.612
22142SOL     OW68264   6.748  13.506   7.764
22142SOL    HW168265   6.825  13.488   7.711
22142SOL    HW268266   6.719  13.420   7.795
22143SOL     OW68267   0.913   7.499   2.768
22143SOL    HW168268   0.866   7.551   2.703
22143SOL    HW268269   0.882   7.533   2.853
22144SOL     OW68270   3.157   4.681  11.589
22144SOL    HW168271   3.240   4.720  11.559
22144SOL    HW268272   3.099   4.688  11.514
22145SOL     OW68273   5.921   5.645   9.444
22145SOL    HW168274   5.941   5.614   9.356
22145SOL    HW268275   5.898   5.737   9.433
22146SOL     OW68276   8.385   3.346   0.259
22146SOL    HW168277   8.301   3.378   0.226
22146SOL    HW268278   8.367   3.325   0.351
22147SOL     OW68279  10.739  14.816   2.469
22147SOL    HW168280  10.782  14.731   2.464
22147SOL    HW268281  10.802  14.871   2.516
22148SOL     OW68282   3.182   9.643   9.936
22148SOL    HW168283   3.210   9.554   9.915
22148SOL    HW268284   3.157   9.681   9.853
22149SOL     OW68285   7.263   4.518  10.330
22149SOL    HW168286   7.343   4.465  10.324
22149SOL    HW268287   7.254   4.558  10.244
22150SOL     OW68288   7.691   8.863   6.998
22150SOL    HW168289   7.725   8.852   7.087
22150SOL    HW268290   7.612   8.808   6.996
22151SOL     OW68291   9.180  12.216   2.833
22151SOL    HW168292   9.232  12.189   2.758
22151SOL    HW268293   9.089  12.203   2.805
22152SOL     OW68294   4.271  10.011  10.568
22152SOL    HW168295   4.194  10.068  10.566
22152SOL    HW268296   4.274   9.972  10.481
22153SOL     OW68297   4.935   4.198   3.358
22153SOL    HW168298   4.939   4.173   3.266
22153SOL    HW268299   5.011   4.156   3.398
22154SOL     OW68300  11.460   1.890   9.819
22154SOL    HW168301  11.419   1.967   9.779
22154SOL    HW268302  11.428   1.891   9.910
22155SOL     OW68303   6.968   1.098  11.922
22155SOL    HW168304   7.039   1.056  11.872
22155SOL    HW268305   6.980   1.066  12.011
22156SOL     OW68306   4.872  13.559   5.070
22156SOL    HW168307   4.954  13.522   5.102
22156SOL    HW268308   4.897  13.613   4.995
22157SOL     OW68309  10.527  14.106   1.073
22157SOL    HW168310  10.472  14.061   1.008
22157SOL    HW268311  10.577  14.036   1.115
22158SOL     OW68312   9.567   9.609   6.662
22158SOL    HW168313   9.511   9.671   6.616
22158SOL    HW268314   9.654   9.622   6.623
22159SOL     OW68315   4.432  10.218   1.724
22159SOL    HW168316   4.381  10.148   1.764
22159SOL    HW268317   4.382  10.242   1.646
22160SOL     OW68318  13.358   7.305   4.780
22160SOL    HW168319  13.403   7.251   4.716
22160SOL    HW268320  13.276   7.260   4.798
22161SOL     OW68321  13.398   9.521   9.035
22161SOL    HW168322  13.371   9.593   8.978
22161SOL    HW268323  13.403   9.560   9.122
22162SOL     OW68324   9.727   4.985   1.836
22162SOL    HW168325   9.751   4.939   1.916
22162SOL    HW268326   9.798   5.048   1.822
22163SOL     OW68327   8.486   7.392   6.970
22163SOL    HW168328   8.545   7.330   7.011
22163SOL    HW268329   8.523   7.478   6.989
22164SOL     OW68330   0.187  14.635   9.824
22164SOL    HW168331   0.227  14.605   9.906
22164SOL    HW268332   0.094  14.645   9.845
22165SOL     OW68333  13.355   2.243   9.927
22165SOL    HW168334  13.381   2.304   9.858
22165SOL    HW268335  13.278   2.283   9.967
22166SOL     OW68336   9.827  12.526  14.769
22166SOL    HW168337   9.876  12.604  14.792
22166SOL    HW268338   9.894  12.462  14.745
22167SOL     OW68339   8.740   6.693  13.061
22167SOL    HW168340   8.709   6.783  13.058
22167SOL    HW268341   8.761   6.677  13.153
22168SOL     OW68342   7.611   4.914   1.070
22168SOL    HW168343   7.603   5.008   1.050
22168SOL    HW268344   7.525   4.878   1.053
22169SOL     OW68345   8.914   4.501  12.949
22169SOL    HW168346   8.928   4.586  12.907
22169SOL    HW268347   8.860   4.520  13.026
22170SOL     OW68348   7.344   2.225   5.196
22170SOL    HW168349   7.359   2.131   5.186
22170SOL    HW268350   7.430   2.261   5.216
22171SOL     OW68351   4.017   2.058   4.331
22171SOL    HW168352   3.994   2.113   4.406
22171SOL    HW268353   4.062   1.982   4.370
22172SOL     OW68354   1.200   2.949  13.234
22172SOL    HW168355   1.187   3.030  13.184
22172SOL    HW268356   1.295   2.936  13.235
22173SOL     OW68357   6.106   7.866   5.569
22173SOL    HW168358   6.076   7.849   5.480
22173SOL    HW268359   6.108   7.961   5.576
22174SOL     OW68360  13.920   0.658   5.591
22174SOL    HW168361  13.928   0.564   5.607
22174SOL    HW268362  13.933   0.667   5.496
22175SOL     OW68363   9.897  14.696  14.012
22175SOL    HW168364   9.991  14.712  14.001
22175SOL    HW268365   9.872  14.644  13.935
22176SOL     OW68366  11.176  10.952   0.326
22176SOL    HW168367  11.208  10.984   0.242
22176SOL    HW268368  11.092  10.911   0.306
22177SOL     OW68369   5.994  14.097  10.106
22177SOL    HW168370   5.956  14.016  10.072
22177SOL    HW268371   5.930  14.130  10.168
22178SOL     OW68372   1.229   1.827   9.273
22178SOL    HW168373   1.308   1.811   9.221
22178SOL    HW268374   1.160   1.840   9.208
22179SOL     OW68375   3.618   2.262   3.703
22179SOL    HW168376   3.710   2.285   3.694
22179SOL    HW268377   3.603   2.196   3.635
22180SOL     OW68378   0.417  10.909   8.364
22180SOL    HW168379   0.511  10.911   8.384
22180SOL    HW268380   0.413  10.885   8.271
22181SOL     OW68381   7.845   7.372  12.240
22181SOL    HW168382   7.938   7.394  12.233
22181SOL    HW268383   7.799   7.448  12.204
22182SOL     OW68384  12.687   7.136  10.730
22182SOL    HW168385  12.706   7.153  10.638
22182SOL    HW268386  12.673   7.041  10.735
22183SOL     OW68387   2.547   8.175   7.619
22183SOL    HW168388   2.560   8.237   7.547
22183SOL    HW268389   2.535   8.230   7.696
22184SOL     OW68390   0.053   6.052   1.958
22184SOL    HW168391  14.862   6.006   1.911
22184SOL    HW268392   0.122   6.063   1.893
22185SOL     OW68393   5.190   7.548  13.202
22185SOL    HW168394   5.127   7.619  13.193
22185SOL    HW268395   5.215   7.527  13.112
22186SOL     OW68396   2.312  14.512   0.292
22186SOL    HW168397   2.300  14.485   0.201
22186SOL    HW268398   2.246  14.579   0.307
22187SOL     OW68399  13.518   7.463   8.400
22187SOL    HW168400  13.513   7.557   8.420
22187SOL    HW268401  13.437   7.427   8.437
22188SOL     OW68402   4.865   3.753   6.950
22188SOL    HW168403   4.934   3.694   6.982
22188SOL    HW268404   4.884   3.762   6.856
22189SOL     OW68405   8.308   4.370   4.378
22189SOL    HW168406   8.291   4.465   4.379
22189SOL    HW268407   8.227   4.332   4.342
22190SOL     OW68408   1.819   0.043   2.710
22190SOL    HW168409   1.771   0.085   2.639
22190SOL    HW268410   1.769  14.843   2.729
22191SOL     OW68411   0.334   0.296  13.420
22191SOL    HW168412   0.412   0.264  13.374
22191SOL    HW268413   0.358   0.384  13.449
22192SOL     OW68414  11.099  13.120   4.788
22192SOL    HW168415  11.186  13.118   4.828
22192SOL    HW268416  11.091  13.036   4.742
22193SOL     OW68417   5.111   7.090   1.911
22193SOL    HW168418   5.152   7.168   1.873
22193SOL    HW268419   5.072   7.120   1.993
22194SOL     OW68420   6.235   9.206   4.069
22194SOL    HW168421   6.289   9.144   4.118
22194SOL    HW268422   6.153   9.210   4.117
22195SOL     OW68423   3.638  11.023   5.199
22195SOL    HW168424   3.696  10.981   5.262
22195SOL    HW268425   3.674  11.111   5.187
22196SOL     OW68426   1.605   6.280   2.431
22196SOL    HW168427   1.566   6.251   2.513
22196SOL    HW268428   1.533   6.277   2.368
22197SOL     OW68429  10.093  14.233  11.995
22197SOL    HW168430  10.066  14.298  12.060
22197SOL    HW268431  10.068  14.149  12.035
22198SOL     OW68432  11.153  11.627   4.956
22198SOL    HW168433  11.115  11.687   4.893
22198SOL    HW268434  11.087  11.618   5.024
22199SOL     OW68435   0.582   8.939   8.087
22199SOL    HW168436   0.674   8.914   8.075
22199SOL    HW268437   0.585   9.034   8.101
22200SOL     OW68438  13.648   8.292   3.896
22200SOL    HW168439  13.645   8.202   3.863
22200SOL    HW268440  13.738   8.320   3.879
22201SOL     OW68441   7.608  10.794   5.300
22201SOL    HW168442   7.561  10.846   5.365
22201SOL    HW268443   7.692  10.840   5.289
22202SOL     OW68444  11.325  13.001   3.778
22202SOL    HW168445  11.347  13.044   3.861
22202SOL    HW268446  11.319  12.908   3.801
22203SOL     OW68447   8.332  10.756   4.960
22203SOL    HW168448   8.313  10.809   4.883
22203SOL    HW268449   8.248  10.716   4.982
22204SOL     OW68450   8.096   2.986   2.138
22204SOL    HW168451   8.169   2.960   2.195
22204SOL    HW268452   8.061   2.904   2.104
22205SOL     OW68453   5.590   1.795  12.843
22205SOL    HW168454   5.665   1.735  12.840
22205SOL    HW268455   5.513   1.738  12.838
22206SOL     OW68456   4.475  12.704   4.573
22206SOL    HW168457   4.436  12.736   4.655
22206SOL    HW268458   4.554  12.756   4.563
22207SOL     OW68459   1.291   1.350   5.429
22207SOL    HW168460   1.291   1.391   5.342
22207SOL    HW268461   1.320   1.260   5.413
22208SOL     OW68462   2.178  11.931  13.824
22208SOL    HW168463   2.161  12.020  13.856
22208SOL    HW268464   2.263  11.938  13.779
22209SOL     OW68465  14.546  11.589  13.555
22209SOL    HW168466  14.569  11.522  13.619
22209SOL    HW268467  14.464  11.558  13.517
22210SOL     OW68468   1.953  11.956   8.538
22210SOL    HW168469   2.003  11.884   8.575
22210SOL    HW268470   1.873  11.916   8.506
22211SOL     OW68471  12.651  12.114   6.843
22211SOL    HW168472  12.614  12.031   6.815
22211SOL    HW268473  12.745  12.104   6.828
22212SOL     OW68474   6.609   7.148   6.047
22212SOL    HW168475   6.628   7.055   6.039
22212SOL    HW268476   6.539   7.164   5.984
22213SOL     OW68477   8.597  10.763   0.222
22213SOL    HW168478   8.508  10.795   0.207
22213SOL    HW268479   8.595  10.724   0.309
22214SOL     OW68480   3.760  10.954   0.101
22214SOL    HW168481   3.742  10.940   0.195
22214SOL    HW268482   3.750  11.048   0.089
22215SOL     OW68483  13.664   3.847   4.846
22215SOL    HW168484  13.579   3.879   4.876
22215SOL    HW268485  13.649   3.756   4.823
22216SOL     OW68486   5.099   7.084   6.695
22216SOL    HW168487   5.019   7.055   6.739
22216SOL    HW268488   5.083   7.176   6.672
22217SOL     OW68489  10.287  13.231  10.704
22217SOL    HW168490  10.324  13.316  10.730
22217SOL    HW268491  10.286  13.180  10.785
22218SOL     OW68492  12.770   8.042   4.490
22218SOL    HW168493  12.747   8.037   4.397
22218SOL    HW268494  12.728   8.122   4.521
22219SOL     OW68495   3.274   2.135  10.104
22219SOL    HW168496   3.223   2.064  10.144
22219SOL    HW268497   3.263   2.122  10.010
22220SOL     OW68498  11.177   7.652   3.075
22220SOL    HW168499  11.179   7.619   3.165
22220SOL    HW268500  11.202   7.577   3.022
22221SOL     OW68501   9.199  10.804   8.668
22221SOL    HW168502   9.184  10.876   8.607
22221SOL    HW268503   9.238  10.845   8.745
22222SOL     OW68504   9.529   8.553  13.896
22222SOL    HW168505   9.616   8.521  13.921
22222SOL    HW268506   9.484   8.568  13.979
22223SOL     OW68507   8.585   1.138  12.332
22223SOL    HW168508   8.658   1.089  12.370
22223SOL    HW268509   8.568   1.208  12.395
22224SOL     OW68510   2.523  11.414  12.703
22224SOL    HW168511   2.504  11.507  12.689
22224SOL    HW268512   2.615  11.404  12.681
22225SOL     OW68513   4.961   1.824  13.697
22225SOL    HW168514   5.024   1.752  13.693
22225SOL    HW268515   4.997   1.890  13.637
22226SOL     OW68516   9.893   2.535   0.255
22226SOL    HW168517   9.987   2.549   0.263
22226SOL    HW268518   9.854   2.616   0.289
22227SOL     OW68519  13.241  11.024  10.845
22227SOL    HW168520  13.277  11.095  10.898
22227SOL    HW268521  13.313  10.997  10.788
22228SOL     OW68522   8.957   1.490   7.500
22228SOL    HW168523   8.983   1.564   7.555
22228SOL    HW268524   8.876   1.519   7.457
22229SOL     OW68525  13.280   4.306  12.127
22229SOL    HW168526  13.329   4.242  12.074
22229SOL    HW268527  13.309   4.290  12.217
22230SOL     OW68528   9.808   3.934  10.843
22230SOL    HW168529   9.772   3.897  10.763
22230SOL    HW268530   9.798   3.865  10.908
22231SOL     OW68531   3.677   0.858   4.395
22231SOL    HW168532   3.615   0.793   4.361
22231SOL    HW268533   3.737   0.874   4.322
22232SOL     OW68534   8.790   0.161   6.717
22232SOL    HW168535   8.819   0.133   6.804
22232SOL    HW268536   8.861   0.136   6.658
22233SOL     OW68537   2.982   4.216   9.204
22233SOL    HW168538   3.026   4.293   9.241
22233SOL    HW268539   3.025   4.142   9.247
22234SOL     OW68540  14.645   6.553   0.756
22234SOL    HW168541  14.660   6.478   0.698
22234SOL    HW268542  14.732   6.576   0.788
22235SOL     OW68543  14.413   4.800   1.844
22235SOL    HW168544  14.459   4.852   1.777
22235SOL    HW268545  14.358   4.864   1.889
22236SOL     OW68546   7.159  10.929  10.004
22236SOL    HW168547   7.249  10.929   9.975
22236SOL    HW268548   7.151  11.007  10.059
22237SOL     OW68549  13.150  11.912   7.003
22237SOL    HW168550  13.099  11.988   7.031
22237SOL    HW268551  13.125  11.898   6.912
22238SOL     OW68552   4.070   4.563   7.125
22238SOL    HW168553   4.079   4.508   7.047
22238SOL    HW268554   3.978   4.587   7.127
22239SOL     OW68555   0.150  14.508  12.714
22239SOL    HW168556   0.158  14.511  12.619
22239SOL    HW268557   0.056  14.509  12.731
22240SOL     OW68558   4.152   6.106   5.921
22240SOL    HW168559   4.089   6.110   5.993
22240SOL    HW268560   4.099   6.109   5.842
22241SOL     OW68561   4.513   0.682  14.680
22241SOL    HW168562   4.541   0.706  14.592
22241SOL    HW268563   4.455   0.753  14.707
22242SOL     OW68564  11.405   8.501   5.508
22242SOL    HW168565  11.320   8.533   5.539
22242SOL    HW268566  11.464   8.512   5.583
22243SOL     OW68567  13.851  12.714   6.540
22243SOL    HW168568  13.864  12.660   6.462
22243SOL    HW268569  13.890  12.798   6.518
22244SOL     OW68570   6.776  12.461   6.362
22244SOL    HW168571   6.821  12.432   6.283
22244SOL    HW268572   6.847  12.490   6.420
22245SOL     OW68573   9.290   9.943   6.385
22245SOL    HW168574   9.369   9.907   6.344
22245SOL    HW268575   9.267   9.878   6.452
22246SOL     OW68576   0.007   8.040   3.950
22246SOL    HW168577   0.083   8.076   3.996
22246SOL    HW268578   0.016   8.072   3.861
22247SOL     OW68579   1.266   2.504  13.918
22247SOL    HW168580   1.181   2.523  13.959
22247SOL    HW268581   1.270   2.564  13.844
22248SOL     OW68582   5.918  13.357   5.360
22248SOL    HW168583   5.987  13.397   5.414
22248SOL    HW268584   5.959  13.347   5.274
22249SOL     OW68585   8.291   9.904   1.831
22249SOL    HW168586   8.276   9.904   1.925
22249SOL    HW268587   8.385   9.917   1.821
22250SOL     OW68588   7.605   8.591   3.226
22250SOL    HW168589   7.576   8.537   3.152
22250SOL    HW268590   7.694   8.618   3.202
22251SOL     OW68591   1.028   8.451   4.470
22251SOL    HW168592   0.961   8.467   4.404
22251SOL    HW268593   1.010   8.516   4.538
22252SOL     OW68594   3.001   4.990   2.716
22252SOL    HW168595   2.923   4.962   2.668
22252SOL    HW268596   2.983   5.081   2.741
22253SOL     OW68597   4.214   2.854  12.187
22253SOL    HW168598   4.188   2.774  12.141
22253SOL    HW268599   4.275   2.897  12.128
22254SOL     OW68600   8.644  13.802  13.408
22254SOL    HW168601   8.706  13.783  13.338
22254SOL    HW268602   8.595  13.878  13.376
22255SOL     OW68603   7.007   0.196   7.649
22255SOL    HW168604   6.918   0.229   7.659
22255SOL    HW268605   7.050   0.258   7.589
22256SOL     OW68606   4.558  13.942  11.384
22256SOL    HW168607   4.564  14.000  11.308
22256SOL    HW268608   4.544  14.001  11.458
22257SOL     OW68609   1.790   7.800   9.115
22257SOL    HW168610   1.722   7.827   9.176
22257SOL    HW268611   1.796   7.871   9.051
22258SOL     OW68612  11.273  13.275  14.238
22258SOL    HW168613  11.297  13.251  14.148
22258SOL    HW268614  11.259  13.192  14.283
22259SOL     OW68615   2.165   3.774  13.296
22259SOL    HW168616   2.216   3.839  13.344
22259SOL    HW268617   2.230   3.720  13.251
22260SOL     OW68618   9.906   8.874   9.939
22260SOL    HW168619   9.983   8.922   9.907
22260SOL    HW268620   9.940   8.787   9.960
22261SOL     OW68621   7.590   2.417   1.220
22261SOL    HW168622   7.632   2.362   1.154
22261SOL    HW268623   7.498   2.390   1.219
22262SOL     OW68624   3.314   0.442   9.339
22262SOL    HW168625   3.384   0.435   9.274
22262SOL    HW268626   3.343   0.385   9.411
22263SOL     OW68627   8.306   7.466  11.037
22263SOL    HW168628   8.284   7.385  10.991
22263SOL    HW268629   8.311   7.533  10.968
22264SOL     OW68630   1.758   2.612   5.673
22264SOL    HW168631   1.832   2.633   5.730
22264SOL    HW268632   1.741   2.692   5.624
22265SOL     OW68633   3.369   5.465   4.317
22265SOL    HW168634   3.368   5.526   4.391
22265SOL    HW268635   3.294   5.492   4.263
22266SOL     OW68636  13.285   8.532   4.941
22266SOL    HW168637  13.274   8.487   4.857
22266SOL    HW268638  13.202   8.518   4.986
22267SOL     OW68639   4.830  11.156  13.522
22267SOL    HW168640   4.913  11.108  13.514
22267SOL    HW268641   4.771  11.113  13.461
22268SOL     OW68642   4.042   3.821  13.079
22268SOL    HW168643   4.097   3.762  13.130
22268SOL    HW268644   4.011   3.768  13.006
22269SOL     OW68645  13.993   1.118  14.551
22269SOL    HW168646  13.944   1.183  14.500
22269SOL    HW268647  13.992   1.039  14.497
22270SOL     OW68648   6.842   1.452   4.437
22270SOL    HW168649   6.759   1.467   4.391
22270SOL    HW268650   6.852   1.357   4.436
22271SOL     OW68651  12.161   9.467   7.605
22271SOL    HW168652  12.129   9.399   7.665
22271SOL    HW268653  12.218   9.419   7.544
22272SOL     OW68654   6.272   6.164   2.870
22272SOL    HW168655   6.312   6.248   2.891
22272SOL    HW268656   6.178   6.181   2.866
22273SOL     OW68657  10.422  12.142   8.448
22273SOL    HW168658  10.501  12.182   8.485
22273SOL    HW268659  10.362  12.215   8.434
22274SOL     OW68660   6.720  14.159   6.312
22274SOL    HW168661   6.706  14.070   6.344
22274SOL    HW268662   6.759  14.148   6.226
22275SOL     OW68663   4.625   9.285   3.233
22275SOL    HW168664   4.653   9.376   3.228
22275SOL    HW268665   4.699   9.235   3.200
22276SOL     OW68666  11.853  12.780   0.726
22276SOL    HW168667  11.927  12.841   0.734
22276SOL    HW268668  11.776  12.837   0.723
22277SOL     OW68669   7.812   4.476   9.256
22277SOL    HW168670   7.845   4.498   9.168
22277SOL    HW268671   7.888   4.438   9.300
22278SOL     OW68672   1.812  10.334  13.878
22278SOL    HW168673   1.864  10.404  13.840
22278SOL    HW268674   1.734  10.328  13.822
22279SOL     OW68675   6.299   0.559   9.894
22279SOL    HW168676   6.354   0.513   9.832
22279SOL    HW268677   6.294   0.501   9.970
22280SOL     OW68678   9.773  11.235  11.904
22280SOL    HW168679   9.802  11.281  11.825
22280SOL    HW268680   9.691  11.278  11.928
22281SOL     OW68681   7.698   2.959   2.001
22281SOL    HW168682   7.626   2.946   2.063
22281SOL    HW268683   7.718   3.053   2.007
22282SOL     OW68684   9.219   6.376   8.758
22282SOL    HW168685   9.313   6.378   8.740
22282SOL    HW268686   9.187   6.300   8.708
22283SOL     OW68687  14.455   6.819  13.687
22283SOL    HW168688  14.396   6.772  13.628
22283SOL    HW268689  14.437   6.783  13.773
22284SOL     OW68690  13.728   5.279   9.830
22284SOL    HW168691  13.770   5.339   9.768
22284SOL    HW268692  13.688   5.212   9.775
22285SOL     OW68693   6.105   1.386   2.091
22285SOL    HW168694   6.138   1.404   2.179
22285SOL    HW268695   6.043   1.458   2.074
22286SOL     OW68696  10.536  13.047   8.915
22286SOL    HW168697  10.508  12.986   8.983
22286SOL    HW268698  10.554  13.129   8.962
22287SOL     OW68699  14.773   2.233  13.061
22287SOL    HW168700  14.737   2.209  13.146
22287SOL    HW268701  14.710   2.199  12.997
22288SOL     OW68702  10.343   3.133   5.883
22288SOL    HW168703  10.380   3.086   5.958
22288SOL    HW268704  10.374   3.085   5.807
22289SOL     OW68705   4.821  14.840   0.663
22289SOL    HW168706   4.762  14.859   0.735
22289SOL    HW268707   4.768  14.792   0.600
22290SOL     OW68708   8.641  14.319  14.474
22290SOL    HW168709   8.618  14.374  14.399
22290SOL    HW268710   8.571  14.333  14.537
22291SOL     OW68711  10.505  13.490   1.463
22291SOL    HW168712  10.436  13.480   1.396
22291SOL    HW268713  10.505  13.406   1.509
22292SOL     OW68714   5.210   7.663   2.253
22292SOL    HW168715   5.214   7.691   2.344
22292SOL    HW268716   5.300   7.638   2.232
22293SOL     OW68717   0.292  13.976  12.046
22293SOL    HW168718   0.231  13.979  12.120
22293SOL    HW268719   0.335  14.061  12.047
22294SOL     OW68720   7.636   9.184   1.073
22294SOL    HW168721   7.566   9.240   1.040
22294SOL    HW268722   7.717   9.234   1.059
22295SOL     OW68723  10.547   2.260   9.054
22295SOL    HW168724  10.606   2.332   9.031
22295SOL    HW268725  10.586   2.183   9.012
22296SOL     OW68726   7.832   4.445   1.870
22296SOL    HW168727   7.917   4.425   1.832
22296SOL    HW268728   7.841   4.534   1.904
22297SOL     OW68729  11.925  10.749   8.489
22297SOL    HW168730  11.926  10.825   8.548
22297SOL    HW268731  11.833  10.725   8.483
22298SOL     OW68732   6.369   3.345  10.021
22298SOL    HW168733   6.462   3.346  10.002
22298SOL    HW268734   6.363   3.316  10.112
22299SOL     OW68735   1.014   5.403   0.555
22299SOL    HW168736   1.030   5.331   0.493
22299SOL    HW268737   0.923   5.428   0.539
22300SOL     OW68738   2.680   0.088   1.202
22300SOL    HW168739   2.745   0.154   1.228
22300SOL    HW268740   2.724   0.004   1.218
22301SOL     OW68741  14.155  11.015  12.067
22301SOL    HW168742  14.200  10.938  12.032
22301SOL    HW268743  14.223  11.061  12.116
22302SOL     OW68744   0.246   0.576   7.465
22302SOL    HW168745   0.309   0.589   7.536
22302SOL    HW268746   0.301   0.554   7.389
22303SOL     OW68747  11.468   2.516   6.450
22303SOL    HW168748  11.448   2.516   6.544
22303SOL    HW268749  11.555   2.478   6.444
22304SOL     OW68750   7.929   4.830   2.734
22304SOL    HW168751   7.861   4.843   2.667
22304SOL    HW268752   8.006   4.875   2.699
22305SOL     OW68753   4.534   9.377  10.588
22305SOL    HW168754   4.576   9.291  10.587
22305SOL    HW268755   4.483   9.378  10.669
22306SOL     OW68756   5.177  12.058   4.648
22306SOL    HW168757   5.098  12.100   4.615
22306SOL    HW268758   5.148  12.010   4.726
22307SOL     OW68759   2.979  11.699  14.153
22307SOL    HW168760   2.933  11.774  14.190
22307SOL    HW268761   2.973  11.711  14.058
22308SOL     OW68762  10.150   6.930   1.301
22308SOL    HW168763  10.067   6.882   1.289
22308SOL    HW268764  10.166   6.927   1.395
22309SOL     OW68765   9.263   5.961   8.328
22309SOL    HW168766   9.230   5.872   8.342
22309SOL    HW268767   9.349   5.962   8.369
22310SOL     OW68768   4.090   6.831  12.192
22310SOL    HW168769   4.154   6.901  12.204
22310SOL    HW268770   4.009   6.865  12.229
22311SOL     OW68771  13.168   5.804  12.718
22311SOL    HW168772  13.247   5.762  12.685
22311SOL    HW268773  13.166   5.889  12.674
22312SOL     OW68774   6.886  12.326   0.308
22312SOL    HW168775   6.808  12.292   0.265
22312SOL    HW268776   6.938  12.249   0.331
22313SOL     OW68777   4.441   5.176  11.775
22313SOL    HW168778   4.442   5.121  11.854
22313SOL    HW268779   4.398   5.257  11.804
22314SOL     OW68780   9.037   0.678   9.296
22314SOL    HW168781   9.115   0.710   9.341
22314SOL    HW268782   9.041   0.719   9.209
22315SOL     OW68783   5.715   7.507   3.178
22315SOL    HW168784   5.810   7.492   3.177
22315SOL    HW268785   5.679   7.425   3.213
22316SOL     OW68786  13.619   9.747  12.236
22316SOL    HW168787  13.663   9.771  12.155
22316SOL    HW268788  13.669   9.672  12.269
22317SOL     OW68789   9.640   3.542   3.836
22317SOL    HW168790   9.634   3.614   3.900
22317SOL    HW268791   9.568   3.559   3.775
22318SOL     OW68792   9.003  11.730   3.695
22318SOL    HW168793   9.008  11.822   3.720
22318SOL    HW268794   9.093  11.698   3.698
22319SOL     OW68795   7.651   3.229  11.136
22319SOL    HW168796   7.725   3.193  11.087
22319SOL    HW268797   7.647   3.321  11.109
22320SOL     OW68798   8.315   8.580  11.459
22320SOL    HW168799   8.384   8.515  11.444
22320SOL    HW268800   8.235   8.528  11.464
22321SOL     OW68801   1.755   6.324   6.682
22321SOL    HW168802   1.719   6.411   6.700
22321SOL    HW268803   1.692   6.264   6.722
22322SOL     OW68804  13.038  11.433   5.753
22322SOL    HW168805  13.021  11.442   5.659
22322SOL    HW268806  12.953  11.450   5.794
22323SOL     OW68807  10.973  10.283   3.197
22323SOL    HW168808  11.036  10.351   3.175
22323SOL    HW268809  11.006  10.243   3.277
22324SOL     OW68810  12.657  14.667   4.840
22324SOL    HW168811  12.706  14.748   4.853
22324SOL    HW268812  12.717  14.611   4.791
22325SOL     OW68813   8.878   8.350   9.367
22325SOL    HW168814   8.898   8.369   9.275
22325SOL    HW268815   8.792   8.389   9.382
22326SOL     OW68816  14.291  11.628  12.407
22326SOL    HW168817  14.213  11.622  12.462
22326SOL    HW268818  14.310  11.538  12.382
22327SOL     OW68819  12.862   6.021   3.847
22327SOL    HW168820  12.931   6.075   3.807
22327SOL    HW268821  12.818   5.980   3.773
22328SOL     OW68822   8.530   2.348   9.709
22328SOL    HW168823   8.446   2.343   9.664
22328SOL    HW268824   8.510   2.322   9.799
22329SOL     OW68825   1.767  13.246   3.476
22329SOL    HW168826   1.725  13.193   3.408
22329SOL    HW268827   1.836  13.294   3.430
22330SOL     OW68828   1.161   8.835   1.805
22330SOL    HW168829   1.072   8.847   1.838
22330SOL    HW268830   1.187   8.748   1.838
22331SOL     OW68831   9.578  11.195  10.884
22331SOL    HW168832   9.610  11.137  10.816
22331SOL    HW268833   9.598  11.149  10.966
22332SOL     OW68834  10.630   9.298  11.524
22332SOL    HW168835  10.665   9.357  11.457
22332SOL    HW268836  10.642   9.210  11.486
22333SOL     OW68837   4.101   8.603   9.881
22333SOL    HW168838   4.049   8.624   9.959
22333SOL    HW268839   4.154   8.680   9.866
22334SOL     OW68840  13.820   5.707   1.986
22334SOL    HW168841  13.727   5.692   1.969
22334SOL    HW268842  13.827   5.713   2.081
22335SOL     OW68843  14.567   7.635   7.056
22335SOL    HW168844  14.482   7.614   7.096
22335SOL    HW268845  14.548   7.648   6.964
22336SOL     OW68846   6.797   9.924   7.811
22336SOL    HW168847   6.759   9.853   7.759
22336SOL    HW268848   6.835   9.983   7.745
22337SOL     OW68849   3.693   0.723   9.138
22337SOL    HW168850   3.713   0.679   9.220
22337SOL    HW268851   3.777   0.726   9.091
22338SOL     OW68852   2.869  12.622  10.402
22338SOL    HW168853   2.855  12.631  10.308
22338SOL    HW268854   2.783  12.640  10.441
22339SOL     OW68855  13.981   6.777   1.036
22339SOL    HW168856  14.071   6.750   1.017
22339SOL    HW268857  13.989   6.841   1.107
22340SOL     OW68858  12.523  11.440   1.352
22340SOL    HW168859  12.586  11.508   1.376
22340SOL    HW268860  12.544  11.419   1.261
22341SOL     OW68861   3.575   4.866   1.775
22341SOL    HW168862   3.506   4.806   1.802
22341SOL    HW268863   3.541   4.953   1.796
22342SOL     OW68864   8.277   2.552   8.599
22342SOL    HW168865   8.195   2.598   8.620
22342SOL    HW268866   8.343   2.621   8.599
22343SOL     OW68867  10.819   7.878   2.325
22343SOL    HW168868  10.773   7.855   2.245
22343SOL    HW268869  10.762   7.849   2.395
22344SOL     OW68870   1.810  13.601  12.171
22344SOL    HW168871   1.781  13.518  12.208
22344SOL    HW268872   1.766  13.668  12.223
22345SOL     OW68873   7.612   9.036   8.473
22345SOL    HW168874   7.568   9.073   8.397
22345SOL    HW268875   7.577   9.085   8.548
22346SOL     OW68876  11.958   2.726  12.709
22346SOL    HW168877  11.877   2.744  12.662
22346SOL    HW268878  12.022   2.704  12.641
22347SOL     OW68879   5.714  12.576   7.794
22347SOL    HW168880   5.760  12.625   7.726
22347SOL    HW268881   5.717  12.633   7.871
22348SOL     OW68882  12.204  12.417   2.798
22348SOL    HW168883  12.281  12.360   2.793
22348SOL    HW268884  12.192  12.449   2.709
22349SOL     OW68885   7.599   5.381  13.036
22349SOL    HW168886   7.516   5.351  13.073
22349SOL    HW268887   7.666   5.342  13.093
22350SOL     OW68888   5.100  13.408  13.921
22350SOL    HW168889   5.179  13.354  13.920
22350SOL    HW268890   5.032  13.352  13.881
22351SOL     OW68891   7.609   8.207   7.027
22351SOL    HW168892   7.528   8.228   6.981
22351SOL    HW268893   7.652   8.291   7.041
22352SOL     OW68894   6.128  14.852  11.906
22352SOL    HW168895   6.110  14.767  11.947
22352SOL    HW268896   6.061   0.031  11.943
22353SOL     OW68897   4.031  10.271  11.826
22353SOL    HW168898   4.126  10.264  11.831
22353SOL    HW268899   4.000  10.246  11.913
22354SOL     OW68900  11.476   1.761  10.961
22354SOL    HW168901  11.419   1.708  10.906
22354SOL    HW268902  11.416   1.811  11.017
22355SOL     OW68903   4.646   3.898   6.905
22355SOL    HW168904   4.695   3.903   6.823
22355SOL    HW268905   4.711   3.878   6.971
22356SOL     OW68906   0.608  10.176   3.723
22356SOL    HW168907   0.550  10.174   3.800
22356SOL    HW268908   0.693  10.147   3.756
22357SOL     OW68909   8.025   1.166  12.572
22357SOL    HW168910   8.083   1.107  12.619
22357SOL    HW268911   7.982   1.217  12.640
22358SOL     OW68912   0.363   0.014   1.395
22358SOL    HW168913   0.280  14.847   1.405
22358SOL    HW268914   0.338   0.102   1.368
22359SOL     OW68915  13.548   2.902   0.099
22359SOL    HW168916  13.629   2.943   0.069
22359SOL    HW268917  13.577   2.829   0.153
22360SOL     OW68918  14.399   0.598  11.332
22360SOL    HW168919  14.368   0.673  11.384
22360SOL    HW268920  14.487   0.580  11.365
22361SOL     OW68921   1.569   2.817  14.410
22361SOL    HW168922   1.600   2.729  14.388
22361SOL    HW268923   1.541   2.811  14.501
22362SOL     OW68924   7.758  13.614  12.178
22362SOL    HW168925   7.737  13.707  12.169
22362SOL    HW268926   7.849  13.607  12.148
22363SOL     OW68927   0.861   8.992   9.995
22363SOL    HW168928   0.795   8.927   9.968
22363SOL    HW268929   0.867   8.981  10.090
22364SOL     OW68930   4.062  13.111   4.998
22364SOL    HW168931   4.007  13.162   4.938
22364SOL    HW268932   4.059  13.159   5.081
22365SOL     OW68933  14.058   1.057  11.387
22365SOL    HW168934  14.138   1.096  11.351
22365SOL    HW268935  14.043   1.103  11.469
22366SOL     OW68936  13.613  12.046   8.753
22366SOL    HW168937  13.600  11.994   8.673
22366SOL    HW268938  13.701  12.024   8.781
22367SOL     OW68939  11.161   6.962   6.991
22367SOL    HW168940  11.114   6.990   7.069
22367SOL    HW268941  11.109   6.889   6.956
22368SOL     OW68942   6.093   6.225  14.361
22368SOL    HW168943   6.101   6.312  14.321
22368SOL    HW268944   6.086   6.242  14.455
22369SOL     OW68945  14.371   9.799   7.780
22369SOL    HW168946  14.456   9.756   7.790
22369SOL    HW268947  14.386   9.868   7.715
22370SOL     OW68948   8.002   9.185   1.174
22370SOL    HW168949   7.958   9.258   1.129
22370SOL    HW268950   7.963   9.106   1.136
22371SOL     OW68951  13.953   1.026  13.690
22371SOL    HW168952  13.955   1.121  13.701
22371SOL    HW268953  13.868   0.999  13.725
22372SOL     OW68954   7.020  11.962   9.092
22372SOL    HW168955   6.981  11.887   9.046
22372SOL    HW268956   6.974  12.038   9.058
22373SOL     OW68957   4.982   5.759  13.459
22373SOL    HW168958   5.055   5.711  13.420
22373SOL    HW268959   4.912   5.694  13.466
22374SOL     OW68960   1.178  11.217   8.190
22374SOL    HW168961   1.133  11.154   8.133
22374SOL    HW268962   1.267  11.181   8.198
22375SOL     OW68963  10.543   2.576   1.367
22375SOL    HW168964  10.625   2.545   1.405
22375SOL    HW268965  10.549   2.672   1.371
22376SOL     OW68966   6.765   2.361  13.316
22376SOL    HW168967   6.755   2.390  13.225
22376SOL    HW268968   6.812   2.433  13.359
22377SOL     OW68969   0.828   4.572  13.761
22377SOL    HW168970   0.867   4.526  13.686
22377SOL    HW268971   0.775   4.505  13.805
22378SOL     OW68972  13.842  13.750  11.098
22378SOL    HW168973  13.767  13.807  11.114
22378SOL    HW268974  13.884  13.742  11.183
22379SOL     OW68975  12.053   9.942   7.019
22379SOL    HW168976  12.112  10.014   6.997
22379SOL    HW268977  11.997   9.932   6.942
22380SOL     OW68978   2.587  11.795  14.377
22380SOL    HW168979   2.579  11.730  14.447
22380SOL    HW268980   2.538  11.870  14.409
22381SOL     OW68981  13.940   6.022   3.536
22381SOL    HW168982  13.924   6.099   3.592
22381SOL    HW268983  13.983   6.058   3.458
22382SOL     OW68984  13.084   8.619  14.546
22382SOL    HW168985  13.060   8.533  14.582
22382SOL    HW268986  13.059   8.613  14.454
22383SOL     OW68987   1.728  14.650  11.853
22383SOL    HW168988   1.802  14.633  11.795
22383SOL    HW268989   1.652  14.614  11.807
22384SOL     OW68990   4.586   4.274   0.170
22384SOL    HW168991   4.664   4.274   0.225
22384SOL    HW268992   4.613   4.318   0.089
22385SOL     OW68993  14.479   4.854   2.583
22385SOL    HW168994  14.544   4.867   2.652
22385SOL    HW268995  14.399   4.829   2.630
22386SOL     OW68996   0.813   2.980   0.530
22386SOL    HW168997   0.787   3.004   0.619
22386SOL    HW268998   0.874   3.049   0.503
22387SOL     OW68999  13.984   1.788   8.114
22387SOL    HW169000  13.969   1.763   8.023
22387SOL    HW269001  13.897   1.797   8.151
22388SOL     OW69002   1.931   3.495   3.377
22388SOL    HW169003   1.977   3.559   3.431
22388SOL    HW269004   1.839   3.508   3.397
22389SOL     OW69005  14.746   0.859   0.782
22389SOL    HW169006  14.669   0.836   0.730
22389SOL    HW269007  14.719   0.849   0.873
22390SOL     OW69008   0.126   0.975   0.775
22390SOL    HW169009   0.042   0.930   0.783
22390SOL    HW269010   0.103   1.068   0.777
22391SOL     OW69011  12.358  13.210  10.652
22391SOL    HW169012  12.423  13.188  10.719
22391SOL    HW269013  12.274  13.194  10.695
22392SOL     OW69014   1.647  10.775   0.627
22392SOL    HW169015   1.705  10.725   0.683
22392SOL    HW269016   1.600  10.709   0.575
22393SOL     OW69017   8.086   4.595   7.368
22393SOL    HW169018   8.161   4.556   7.414
22393SOL    HW269019   8.066   4.533   7.298
22394SOL     OW69020   4.942   0.465   9.586
22394SOL    HW169021   4.884   0.422   9.649
22394SOL    HW269022   4.926   0.559   9.599
22395SOL     OW69023  14.600   9.533   6.736
22395SOL    HW169024  14.590   9.440   6.714
22395SOL    HW269025  14.645   9.571   6.661
22396SOL     OW69026   7.653   2.113   4.965
22396SOL    HW169027   7.729   2.074   5.008
22396SOL    HW269028   7.633   2.190   5.019
22397SOL     OW69029  12.002  10.290  12.324
22397SOL    HW169030  11.943  10.262  12.254
22397SOL    HW269031  11.962  10.370  12.359
22398SOL     OW69032   5.338   0.103   2.554
22398SOL    HW169033   5.362   0.049   2.479
22398SOL    HW269034   5.247   0.079   2.572
22399SOL     OW69035  11.198   9.687   0.790
22399SOL    HW169036  11.142   9.625   0.744
22399SOL    HW269037  11.161   9.773   0.771
22400SOL     OW69038   3.264  14.355   0.438
22400SOL    HW169039   3.180  14.397   0.421
22400SOL    HW269040   3.250  14.302   0.516
22401SOL     OW69041   3.361   9.707   5.079
22401SOL    HW169042   3.330   9.658   5.003
22401SOL    HW269043   3.457   9.701   5.074
22402SOL     OW69044   9.055   6.429   3.030
22402SOL    HW169045   9.016   6.361   2.974
22402SOL    HW269046   9.142   6.443   2.993
22403SOL     OW69047   8.516   0.455  14.421
22403SOL    HW169048   8.563   0.529  14.459
22403SOL    HW269049   8.577   0.417  14.358
22404SOL     OW69050   4.282   8.550  11.703
22404SOL    HW169051   4.360   8.549  11.648
22404SOL    HW269052   4.306   8.604  11.778
22405SOL     OW69053   9.954   0.906  10.952
22405SOL    HW169054   9.962   0.823  10.904
22405SOL    HW269055   9.958   0.881  11.044
22406SOL     OW69056   7.251   8.570   8.899
22406SOL    HW169057   7.215   8.621   8.827
22406SOL    HW269058   7.175   8.523   8.935
22407SOL     OW69059   8.944  13.482   3.697
22407SOL    HW169060   8.869  13.514   3.748
22407SOL    HW269061   8.918  13.494   3.606
22408SOL     OW69062   1.491   0.513   0.254
22408SOL    HW169063   1.406   0.553   0.234
22408SOL    HW269064   1.491   0.504   0.349
22409SOL     OW69065   7.816   9.473  10.589
22409SOL    HW169066   7.864   9.424  10.656
22409SOL    HW269067   7.817   9.564  10.620
22410SOL     OW69068  13.366   6.062   0.578
22410SOL    HW169069  13.438   6.025   0.629
22410SOL    HW269070  13.335   5.989   0.524
22411SOL     OW69071   5.290   9.520  11.041
22411SOL    HW169072   5.223   9.588  11.040
22411SOL    HW269073   5.331   9.525  10.955
22412SOL     OW69074   4.455   7.233   2.314
22412SOL    HW169075   4.450   7.304   2.378
22412SOL    HW269076   4.463   7.153   2.367
22413SOL     OW69077   0.202   9.067   2.632
22413SOL    HW169078   0.248   9.000   2.582
22413SOL    HW269079   0.161   9.123   2.566
22414SOL     OW69080  11.180  13.963  13.818
22414SOL    HW169081  11.170  13.933  13.728
22414SOL    HW269082  11.269  13.997  13.822
22415SOL     OW69083   0.528  14.154   4.696
22415SOL    HW169084   0.481  14.228   4.734
22415SOL    HW269085   0.517  14.165   4.601
22416SOL     OW69086   8.350   9.620   4.002
22416SOL    HW169087   8.259   9.652   4.007
22416SOL    HW269088   8.374   9.604   4.094
22417SOL     OW69089   2.841   6.512   6.947
22417SOL    HW169090   2.888   6.429   6.960
22417SOL    HW269091   2.759   6.486   6.904
22418SOL     OW69092   9.833  13.122  13.039
22418SOL    HW169093   9.740  13.110  13.060
22418SOL    HW269094   9.875  13.137  13.124
22419SOL     OW69095   6.288   0.475   6.715
22419SOL    HW169096   6.323   0.405   6.771
22419SOL    HW269097   6.205   0.499   6.756
22420SOL     OW69098  12.622   4.579  10.537
22420SOL    HW169099  12.667   4.570  10.621
22420SOL    HW269100  12.681   4.634  10.485
22421SOL     OW69101   0.274   3.216   4.537
22421SOL    HW169102   0.258   3.143   4.478
22421SOL    HW269103   0.218   3.198   4.613
22422SOL     OW69104   6.006   7.417   9.827
22422SOL    HW169105   6.101   7.408   9.819
22422SOL    HW269106   5.985   7.494   9.774
22423SOL     OW69107  11.816   0.650   7.423
22423SOL    HW169108  11.906   0.684   7.428
22423SOL    HW269109  11.773   0.706   7.359
22424SOL     OW69110  10.509  12.406  10.772
22424SOL    HW169111  10.513  12.444  10.860
22424SOL    HW269112  10.451  12.464  10.723
22425SOL     OW69113   5.938   2.987  11.102
22425SOL    HW169114   6.016   2.998  11.157
22425SOL    HW269115   5.872   3.043  11.143
22426SOL     OW69116  11.999  12.543   6.566
22426SOL    HW169117  12.000  12.532   6.661
22426SOL    HW269118  11.940  12.618   6.552
22427SOL     OW69119   3.206  10.118   3.419
22427SOL    HW169120   3.126  10.072   3.395
22427SOL    HW269121   3.225  10.089   3.508
22428SOL     OW69122   8.699   6.812   5.267
22428SOL    HW169123   8.680   6.721   5.244
22428SOL    HW269124   8.746   6.807   5.350
22429SOL     OW69125   5.689   4.618  11.886
22429SOL    HW169126   5.732   4.695  11.848
22429SOL    HW269127   5.757   4.575  11.937
22430SOL     OW69128   6.780   0.151  10.928
22430SOL    HW169129   6.695   0.180  10.962
22430SOL    HW269130   6.784   0.058  10.951
22431SOL     OW69131  11.933  13.900   9.533
22431SOL    HW169132  12.000  13.948   9.582
22431SOL    HW269133  11.851  13.923   9.576
22432SOL     OW69134   8.672  13.940   5.620
22432SOL    HW169135   8.656  13.864   5.564
22432SOL    HW269136   8.673  14.014   5.559
22433SOL     OW69137  14.080   7.645   7.733
22433SOL    HW169138  14.105   7.660   7.824
22433SOL    HW269139  14.163   7.640   7.686
22434SOL     OW69140  12.539   2.397   9.217
22434SOL    HW169141  12.575   2.310   9.236
22434SOL    HW269142  12.569   2.452   9.290
22435SOL     OW69143   3.289   3.394   9.946
22435SOL    HW169144   3.197   3.416   9.956
22435SOL    HW269145   3.334   3.479   9.946
22436SOL     OW69146   0.743   6.270  10.289
22436SOL    HW169147   0.674   6.255  10.225
22436SOL    HW269148   0.697   6.289  10.370
22437SOL     OW69149   5.548  13.085  11.772
22437SOL    HW169150   5.547  13.030  11.851
22437SOL    HW269151   5.641  13.098  11.754
22438SOL     OW69152   7.012   0.605   7.111
22438SOL    HW169153   7.027   0.697   7.132
22438SOL    HW269154   6.938   0.579   7.166
22439SOL     OW69155   7.380  13.778   1.021
22439SOL    HW169156   7.353  13.692   0.988
22439SOL    HW269157   7.475  13.774   1.021
22440SOL     OW69158  12.581  12.684   6.236
22440SOL    HW169159  12.645  12.714   6.301
22440SOL    HW269160  12.631  12.630   6.176
22441SOL     OW69161   5.563   5.938  13.947
22441SOL    HW169162   5.470   5.959  13.954
22441SOL    HW269163   5.566   5.842  13.951
22442SOL     OW69164  12.481  14.813   5.950
22442SOL    HW169165  12.566  14.855   5.961
22442SOL    HW269166  12.474  14.794   5.857
22443SOL     OW69167  11.715   3.118   1.272
22443SOL    HW169168  11.682   3.043   1.223
22443SOL    HW269169  11.805   3.129   1.241
22444SOL     OW69170   4.349   9.701  12.391
22444SOL    HW169171   4.373   9.667  12.305
22444SOL    HW269172   4.420   9.761  12.414
22445SOL     OW69173   4.522   6.492   4.039
22445SOL    HW169174   4.508   6.560   3.974
22445SOL    HW269175   4.505   6.534   4.123
22446SOL     OW69176   6.375  14.219  14.859
22446SOL    HW169177   6.454  14.269   0.001
22446SOL    HW269178   6.379  14.206  14.765
22447SOL     OW69179   4.461   9.812  11.902
22447SOL    HW169180   4.523   9.740  11.892
22447SOL    HW269181   4.445   9.816  11.997
22448SOL     OW69182  10.393   5.781   2.828
22448SOL    HW169183  10.481   5.798   2.795
22448SOL    HW269184  10.380   5.847   2.896
22449SOL     OW69185  12.878  11.245   2.259
22449SOL    HW169186  12.960  11.233   2.305
22449SOL    HW269187  12.822  11.173   2.288
22450SOL     OW69188   0.086   5.006  10.030
22450SOL    HW169189   0.061   5.024   9.939
22450SOL    HW269190   0.181   5.009  10.030
22451SOL     OW69191  14.263   1.165   1.273
22451SOL    HW169192  14.320   1.101   1.317
22451SOL    HW269193  14.199   1.112   1.226
22452SOL     OW69194  13.697  14.222   8.876
22452SOL    HW169195  13.730  14.228   8.786
22452SOL    HW269196  13.647  14.140   8.878
22453SOL     OW69197   9.343   2.160   0.840
22453SOL    HW169198   9.272   2.104   0.810
22453SOL    HW269199   9.307   2.206   0.916
22454SOL     OW69200   5.925  11.628   3.862
22454SOL    HW169201   6.015  11.640   3.831
22454SOL    HW269202   5.933  11.574   3.940
22455SOL     OW69203   7.453   3.074   3.634
22455SOL    HW169204   7.521   3.007   3.625
22455SOL    HW269205   7.485   3.131   3.704
22456SOL     OW69206   6.434   6.286   5.116
22456SOL    HW169207   6.349   6.302   5.157
22456SOL    HW269208   6.425   6.323   5.029
22457SOL     OW69209   3.663   2.565  11.734
22457SOL    HW169210   3.721   2.491  11.713
22457SOL    HW269211   3.635   2.599  11.650
22458SOL     OW69212   8.866   5.114   4.927
22458SOL    HW169213   8.770   5.115   4.929
22458SOL    HW269214   8.890   5.196   4.886
22459SOL     OW69215  10.221  10.483  10.981
22459SOL    HW169216  10.143  10.465  10.929
22459SOL    HW269217  10.267  10.552  10.933
22460SOL     OW69218  14.150   4.708  11.463
22460SOL    HW169219  14.179   4.755  11.385
22460SOL    HW269220  14.220   4.646  11.482
22461SOL     OW69221  11.925  10.254  12.739
22461SOL    HW169222  12.019  10.248  12.722
22461SOL    HW269223  11.896  10.164  12.747
22462SOL     OW69224   2.303   7.532   6.971
22462SOL    HW169225   2.383   7.547   7.021
22462SOL    HW269226   2.313   7.586   6.893
22463SOL     OW69227   8.875   4.493   2.253
22463SOL    HW169228   8.936   4.552   2.209
22463SOL    HW269229   8.811   4.551   2.294
22464SOL     OW69230  12.152   2.049   1.795
22464SOL    HW169231  12.177   2.095   1.875
22464SOL    HW269232  12.225   2.063   1.735
22465SOL     OW69233  11.311   4.066  13.024
22465SOL    HW169234  11.229   4.106  13.051
22465SOL    HW269235  11.291   4.021  12.942
22466SOL     OW69236   1.610   5.438  10.136
22466SOL    HW169237   1.618   5.520  10.184
22466SOL    HW269238   1.691   5.432  10.085
22467SOL     OW69239   3.446   9.512  12.522
22467SOL    HW169240   3.438   9.462  12.441
22467SOL    HW269241   3.362   9.498  12.566
22468SOL     OW69242  12.432   7.434   5.255
22468SOL    HW169243  12.368   7.504   5.244
22468SOL    HW269244  12.513   7.479   5.280
22469SOL     OW69245  10.068   0.942   0.736
22469SOL    HW169246  10.072   0.846   0.739
22469SOL    HW269247  10.156   0.968   0.707
22470SOL     OW69248   7.958   0.222   5.979
22470SOL    HW169249   7.965   0.178   6.063
22470SOL    HW269250   7.943   0.152   5.915
22471SOL     OW69251   5.576   6.820   1.011
22471SOL    HW169252   5.502   6.766   1.036
22471SOL    HW269253   5.614   6.776   0.935
22472SOL     OW69254   1.468  11.483   3.478
22472SOL    HW169255   1.537  11.417   3.490
22472SOL    HW269256   1.387  11.433   3.485
22473SOL     OW69257   4.840  11.603   9.623
22473SOL    HW169258   4.807  11.619   9.712
22473SOL    HW269259   4.788  11.660   9.567
22474SOL     OW69260  10.387   1.986   9.289
22474SOL    HW169261  10.389   2.068   9.338
22474SOL    HW269262  10.479   1.971   9.265
22475SOL     OW69263   1.364   8.969   0.318
22475SOL    HW169264   1.329   9.043   0.269
22475SOL    HW269265   1.294   8.944   0.378
22476SOL     OW69266   5.264   5.889  10.008
22476SOL    HW169267   5.251   5.983   9.992
22476SOL    HW269268   5.176   5.856  10.028
22477SOL     OW69269   2.787   7.268   3.158
22477SOL    HW169270   2.750   7.196   3.209
22477SOL    HW269271   2.823   7.225   3.080
22478SOL     OW69272   6.111   6.971   0.230
22478SOL    HW169273   6.099   6.973   0.135
22478SOL    HW269274   6.059   7.044   0.262
22479SOL     OW69275   2.904  13.936  10.209
22479SOL    HW169276   2.934  14.018  10.168
22479SOL    HW269277   2.981  13.904  10.256
22480SOL     OW69278   4.720   0.882   0.677
22480SOL    HW169279   4.738   0.975   0.661
22480SOL    HW269280   4.786   0.856   0.741
22481SOL     OW69281   6.680   2.190   3.346
22481SOL    HW169282   6.736   2.112   3.353
22481SOL    HW269283   6.646   2.202   3.435
22482SOL     OW69284   2.327   5.433   0.249
22482SOL    HW169285   2.278   5.485   0.312
22482SOL    HW269286   2.401   5.398   0.299
22483SOL     OW69287  13.557   8.395   3.014
22483SOL    HW169288  13.637   8.420   3.060
22483SOL    HW269289  13.487   8.428   3.069
22484SOL     OW69290   6.721   9.071   0.634
22484SOL    HW169291   6.677   9.037   0.713
22484SOL    HW269292   6.656   9.061   0.565
22485SOL     OW69293   8.719   8.970   1.597
22485SOL    HW169294   8.741   9.055   1.635
22485SOL    HW269295   8.755   8.906   1.659
22486SOL     OW69296   6.626   6.853   2.554
22486SOL    HW169297   6.594   6.922   2.495
22486SOL    HW269298   6.583   6.773   2.523
22487SOL     OW69299  14.264  10.663  13.833
22487SOL    HW169300  14.192  10.719  13.861
22487SOL    HW269301  14.223  10.597  13.776
22488SOL     OW69302  13.790  14.007   2.634
22488SOL    HW169303  13.722  14.002   2.567
22488SOL    HW269304  13.758  13.953   2.706
22489SOL     OW69305  12.568   9.813   9.301
22489SOL    HW169306  12.631   9.754   9.343
22489SOL    HW269307  12.548   9.771   9.217
22490SOL     OW69308   0.656  14.372   5.611
22490SOL    HW169309   0.583  14.338   5.663
22490SOL    HW269310   0.726  14.385   5.675
22491SOL     OW69311  12.474   9.750  13.142
22491SOL    HW169312  12.496   9.832  13.186
22491SOL    HW269313  12.505   9.762  13.053
22492SOL     OW69314  10.342  14.415  13.518
22492SOL    HW169315  10.350  14.394  13.610
22492SOL    HW269316  10.260  14.374  13.490
22493SOL     OW69317   8.844   7.293  12.322
22493SOL    HW169318   8.877   7.382  12.310
22493SOL    HW269319   8.841   7.257  12.233
22494SOL     OW69320  14.046  13.436   4.015
22494SOL    HW169321  13.952  13.422   4.028
22494SOL    HW269322  14.067  13.383   3.938
22495SOL     OW69323   3.310   4.295  12.129
22495SOL    HW169324   3.392   4.284  12.178
22495SOL    HW269325   3.241   4.279  12.193
22496SOL     OW69326   1.490   5.074  10.749
22496SOL    HW169327   1.553   5.017  10.704
22496SOL    HW269328   1.406   5.030  10.739
22497SOL     OW69329  10.805   9.276   0.742
22497SOL    HW169330  10.891   9.260   0.704
22497SOL    HW269331  10.775   9.189   0.769
22498SOL     OW69332   8.973   1.514   9.182
22498SOL    HW169333   9.019   1.592   9.152
22498SOL    HW269334   8.938   1.538   9.267
22499SOL     OW69335   1.865  10.763   7.434
22499SOL    HW169336   1.930  10.831   7.452
22499SOL    HW269337   1.905  10.683   7.469
22500SOL     OW69338   8.777   3.882  13.714
22500SOL    HW169339   8.865   3.916  13.695
22500SOL    HW269340   8.718   3.952  13.687
22501SOL     OW69341  12.009  14.326   9.406
22501SOL    HW169342  11.915  14.331   9.390
22501SOL    HW269343  12.047  14.384   9.339
22502SOL     OW69344  12.741  11.505   8.230
22502SOL    HW169345  12.688  11.429   8.253
22502SOL    HW269346  12.808  11.471   8.170
22503SOL     OW69347   0.533  14.812   0.760
22503SOL    HW169348   0.575   0.008   0.719
22503SOL    HW269349   0.497  14.846   0.842
22504SOL     OW69350  10.330   1.194  14.840
22504SOL    HW169351  10.294   1.247   0.031
22504SOL    HW269352  10.283   1.222  14.761
22505SOL     OW69353   4.136  13.659  14.543
22505SOL    HW169354   4.181  13.634  14.463
22505SOL    HW269355   4.188  13.619  14.613
22506SOL     OW69356   6.042  13.345   8.847
22506SOL    HW169357   6.130  13.310   8.834
22506SOL    HW269358   6.044  13.432   8.807
22507SOL     OW69359  11.255  12.340   3.789
22507SOL    HW169360  11.211  12.255   3.794
22507SOL    HW269361  11.263  12.357   3.695
22508SOL     OW69362   0.652  11.157   6.147
22508SOL    HW169363   0.655  11.191   6.237
22508SOL    HW269364   0.597  11.078   6.154
22509SOL     OW69365  14.536   3.771   6.441
22509SOL    HW169366  14.574   3.700   6.493
22509SOL    HW269367  14.572   3.758   6.353
22510SOL     OW69368   2.214  10.846   7.119
22510SOL    HW169369   2.268  10.773   7.147
22510SOL    HW269370   2.232  10.855   7.025
22511SOL     OW69371   9.504  13.012   0.066
22511SOL    HW169372   9.410  13.028   0.075
22511SOL    HW269373   9.526  13.046  14.858
22512SOL     OW69374   7.413  10.456   4.047
22512SOL    HW169375   7.475  10.503   4.102
22512SOL    HW269376   7.419  10.365   4.077
22513SOL     OW69377   7.162   6.815   1.039
22513SOL    HW169378   7.230   6.871   1.077
22513SOL    HW269379   7.116   6.779   1.115
22514SOL     OW69380  11.477   7.103   5.581
22514SOL    HW169381  11.423   7.107   5.660
22514SOL    HW269382  11.425   7.053   5.519
22515SOL     OW69383   4.265   3.915  13.440
22515SOL    HW169384   4.320   3.840  13.419
22515SOL    HW269385   4.272   3.972  13.363
22516SOL     OW69386   0.107   6.641   1.956
22516SOL    HW169387   0.079   6.556   1.991
22516SOL    HW269388   0.201   6.630   1.940
22517SOL     OW69389  14.642   2.465   5.972
22517SOL    HW169390  14.634   2.413   5.892
22517SOL    HW269391  14.618   2.554   5.946
22518SOL     OW69392   7.990   5.419   8.277
22518SOL    HW169393   8.085   5.413   8.282
22518SOL    HW269394   7.973   5.480   8.205
22519SOL     OW69395   9.634  10.211   2.924
22519SOL    HW169396   9.648  10.239   3.014
22519SOL    HW269397   9.712  10.162   2.901
22520SOL     OW69398   3.979   9.863  10.277
22520SOL    HW169399   3.938   9.850  10.363
22520SOL    HW269400   3.919   9.822  10.215
22521SOL     OW69401  11.236   8.030   2.313
22521SOL    HW169402  11.188   8.103   2.273
22521SOL    HW269403  11.245   8.055   2.405
22522SOL     OW69404   4.461   4.309   6.891
22522SOL    HW169405   4.515   4.386   6.872
22522SOL    HW269406   4.492   4.243   6.829
22523SOL     OW69407   5.393  14.561  13.092
22523SOL    HW169408   5.316  14.543  13.038
22523SOL    HW269409   5.414  14.652  13.073
22524SOL     OW69410  14.736   9.496   3.375
22524SOL    HW169411  14.769   9.442   3.304
22524SOL    HW269412  14.808   9.497   3.439
22525SOL     OW69413   5.295   8.186   8.287
22525SOL    HW169414   5.255   8.099   8.280
22525SOL    HW269415   5.384   8.175   8.254
22526SOL     OW69416  12.446   6.360   6.243
22526SOL    HW169417  12.356   6.387   6.220
22526SOL    HW269418  12.468   6.413   6.319
22527SOL     OW69419  11.069  11.112  13.362
22527SOL    HW169420  11.144  11.098  13.420
22527SOL    HW269421  11.107  11.116  13.274
22528SOL     OW69422  14.260   1.497   9.529
22528SOL    HW169423  14.219   1.411   9.547
22528SOL    HW269424  14.247   1.546   9.610
22529SOL     OW69425   6.927   4.824  13.980
22529SOL    HW169426   7.006   4.872  13.958
22529SOL    HW269427   6.893   4.794  13.896
22530SOL     OW69428  11.820   6.008  11.630
22530SOL    HW169429  11.744   6.063  11.647
22530SOL    HW269430  11.817   5.991  11.536
22531SOL     OW69431   2.515  14.578   1.958
22531SOL    HW169432   2.446  14.637   1.928
22531SOL    HW269433   2.474  14.492   1.961
22532SOL     OW69434  10.557   5.590   8.993
22532SOL    HW169435  10.523   5.598   9.082
22532SOL    HW269436  10.592   5.676   8.974
22533SOL     OW69437  13.419   2.964   0.501
22533SOL    HW169438  13.506   2.929   0.482
22533SOL    HW269439  13.359   2.896   0.470
22534SOL     OW69440   5.631  14.296   9.326
22534SOL    HW169441   5.602  14.376   9.369
22534SOL    HW269442   5.611  14.309   9.234
22535SOL     OW69443   7.065  14.077  13.472
22535SOL    HW169444   7.084  14.043  13.385
22535SOL    HW269445   7.060  13.999  13.528
22536SOL     OW69446  12.781   2.419   3.031
22536SOL    HW169447  12.794   2.326   3.049
22536SOL    HW269448  12.863   2.460   3.058
22537SOL     OW69449   5.271   8.716   3.133
22537SOL    HW169450   5.289   8.641   3.076
22537SOL    HW269451   5.275   8.680   3.221
22538SOL     OW69452   0.662  14.501  10.062
22538SOL    HW169453   0.628  14.452  10.136
22538SOL    HW269454   0.740  14.545  10.096
22539SOL     OW69455   9.406  10.148   1.672
22539SOL    HW169456   9.358  10.220   1.631
22539SOL    HW269457   9.424  10.180   1.761
22540SOL     OW69458  11.909   4.523   8.972
22540SOL    HW169459  11.997   4.494   8.947
22540SOL    HW269460  11.854   4.445   8.961
22541SOL     OW69461   2.556   7.906   8.321
22541SOL    HW169462   2.539   7.812   8.324
22541SOL    HW269463   2.470   7.947   8.321
22542SOL     OW69464   8.607   5.354   2.921
22542SOL    HW169465   8.569   5.427   2.970
22542SOL    HW269466   8.536   5.290   2.914
22543SOL     OW69467  12.049   5.321   4.180
22543SOL    HW169468  12.093   5.373   4.112
22543SOL    HW269469  12.041   5.234   4.142
22544SOL     OW69470   0.109   8.190   4.552
22544SOL    HW169471   0.097   8.249   4.627
22544SOL    HW269472   0.044   8.122   4.564
22545SOL     OW69473  13.227  14.195   6.536
22545SOL    HW169474  13.191  14.280   6.562
22545SOL    HW269475  13.182  14.174   6.455
22546SOL     OW69476   5.666   5.834  14.745
22546SOL    HW169477   5.574   5.812  14.760
22546SOL    HW269478   5.666   5.882  14.662
22547SOL     OW69479   0.175  14.308   8.342
22547SOL    HW169480   0.089  14.291   8.381
22547SOL    HW269481   0.227  14.343   8.414
22548SOL     OW69482   1.289   2.800   3.280
22548SOL    HW169483   1.261   2.788   3.189
22548SOL    HW269484   1.214   2.772   3.332
22549SOL     OW69485   3.627  10.796  11.624
22549SOL    HW169486   3.644  10.790  11.530
22549SOL    HW269487   3.690  10.736  11.664
22550SOL     OW69488   6.928   2.025   1.058
22550SOL    HW169489   7.010   1.978   1.064
22550SOL    HW269490   6.916   2.042   0.965
22551SOL     OW69491   9.308   7.275   8.726
22551SOL    HW169492   9.379   7.334   8.751
22551SOL    HW269493   9.252   7.327   8.668
22552SOL     OW69494   2.671   0.154   8.884
22552SOL    HW169495   2.719   0.192   8.957
22552SOL    HW269496   2.725   0.081   8.855
22553SOL     OW69497   3.524   7.698   7.924
22553SOL    HW169498   3.560   7.720   8.010
22553SOL    HW269499   3.598   7.707   7.864
22554SOL     OW69500   1.406  14.851   6.237
22554SOL    HW169501   1.377  14.832   6.148
22554SOL    HW269502   1.346  14.802   6.293
22555SOL     OW69503   3.034   8.820   0.991
22555SOL    HW169504   2.962   8.789   1.046
22555SOL    HW269505   2.998   8.897   0.947
22556SOL     OW69506  13.791   5.184   6.828
22556SOL    HW169507  13.867   5.224   6.870
22556SOL    HW269508  13.716   5.215   6.879
22557SOL     OW69509   2.955   5.555   3.422
22557SOL    HW169510   2.889   5.519   3.480
22557SOL    HW269511   3.031   5.497   3.433
22558SOL     OW69512   3.568   9.780   8.293
22558SOL    HW169513   3.484   9.804   8.332
22558SOL    HW269514   3.631   9.837   8.337
22559SOL     OW69515  13.620   9.995   6.171
22559SOL    HW169516  13.658   9.907   6.174
22559SOL    HW269517  13.583  10.002   6.082
22560SOL     OW69518   1.892   6.540  12.071
22560SOL    HW169519   1.825   6.599  12.107
22560SOL    HW269520   1.951   6.524  12.144
22561SOL     OW69521   2.534  14.625   0.444
22561SOL    HW169522   2.565  14.689   0.381
22561SOL    HW269523   2.450  14.595   0.410
22562SOL     OW69524   4.936   8.552  10.789
22562SOL    HW169525   5.028   8.573  10.802
22562SOL    HW269526   4.891   8.635  10.808
22563SOL     OW69527   4.128   6.407   2.532
22563SOL    HW169528   4.067   6.414   2.459
22563SOL    HW269529   4.160   6.496   2.545
22564SOL     OW69530  14.270  10.043  12.382
22564SOL    HW169531  14.348  10.024  12.434
22564SOL    HW269532  14.241   9.958  12.350
22565SOL     OW69533   7.205   8.132   8.075
22565SOL    HW169534   7.133   8.071   8.092
22565SOL    HW269535   7.184   8.170   7.990
22566SOL     OW69536   7.116   7.630   9.232
22566SOL    HW169537   7.031   7.588   9.222
22566SOL    HW269538   7.158   7.621   9.146
22567SOL     OW69539   6.093   6.556   1.424
22567SOL    HW169540   6.095   6.632   1.482
22567SOL    HW269541   6.146   6.581   1.349
22568SOL     OW69542   0.183   2.989   5.281
22568SOL    HW169543   0.173   2.894   5.269
22568SOL    HW269544   0.267   2.998   5.327
22569SOL     OW69545   8.917   4.391   4.117
22569SOL    HW169546   8.998   4.428   4.080
22569SOL    HW269547   8.945   4.350   4.199
22570SOL     OW69548  12.657   8.983  13.505
22570SOL    HW169549  12.740   9.002  13.461
22570SOL    HW269550  12.590   9.000  13.439
22571SOL     OW69551  12.898  14.382   8.411
22571SOL    HW169552  12.849  14.401   8.331
22571SOL    HW269553  12.976  14.438   8.406
22572SOL     OW69554   0.132  13.887   9.999
22572SOL    HW169555   0.051  13.865  10.045
22572SOL    HW269556   0.152  13.810   9.946
22573SOL     OW69557   6.737   8.294  11.815
22573SOL    HW169558   6.780   8.218  11.777
22573SOL    HW269559   6.752   8.365  11.752
22574SOL     OW69560  11.684  14.139   5.330
22574SOL    HW169561  11.739  14.164   5.404
22574SOL    HW269562  11.713  14.195   5.258
22575SOL     OW69563   2.039   7.925   6.469
22575SOL    HW169564   2.085   7.961   6.393
22575SOL    HW269565   1.984   7.996   6.500
22576SOL     OW69566  11.318   3.368   7.077
22576SOL    HW169567  11.403   3.343   7.113
22576SOL    HW269568  11.254   3.322   7.132
22577SOL     OW69569   6.869   4.831  12.983
22577SOL    HW169570   6.866   4.809  12.890
22577SOL    HW269571   6.961   4.852  13.000
22578SOL     OW69572  14.556  13.073   0.780
22578SOL    HW169573  14.650  13.073   0.796
22578SOL    HW269574  14.518  13.030   0.857
22579SOL     OW69575  13.668   6.993   1.018
22579SOL    HW169576  13.754   7.034   1.010
22579SOL    HW269577  13.671   6.946   1.101
22580SOL     OW69578   2.319  10.038  13.849
22580SOL    HW169579   2.343  10.123  13.813
22580SOL    HW269580   2.262  10.058  13.923
22581SOL     OW69581   9.866   8.941  10.254
22581SOL    HW169582   9.829   9.028  10.272
22581SOL    HW269583   9.866   8.934  10.159
22582SOL     OW69584   0.214  12.020   7.283
22582SOL    HW169585   0.146  12.013   7.351
22582SOL    HW269586   0.280  12.078   7.320
22583SOL     OW69587   1.754  13.939  12.714
22583SOL    HW169588   1.727  14.024  12.680
22583SOL    HW269589   1.762  13.952  12.808
22584SOL     OW69590   7.306   5.097   1.179
22584SOL    HW169591   7.298   5.013   1.135
22584SOL    HW269592   7.220   5.138   1.170
22585SOL     OW69593  13.410   7.689  14.452
22585SOL    HW169594  13.464   7.760  14.417
22585SOL    HW269595  13.434   7.613  14.399
22586SOL     OW69596  12.381  13.895  13.370
22586SOL    HW169597  12.289  13.912  13.388
22586SOL    HW269598  12.384  13.872  13.277
22587SOL     OW69599   8.225  10.890   7.251
22587SOL    HW169600   8.162  10.913   7.183
22587SOL    HW269601   8.311  10.904   7.210
22588SOL     OW69602   5.113   2.765   0.322
22588SOL    HW169603   5.158   2.684   0.348
22588SOL    HW269604   5.141   2.830   0.387
22589SOL     OW69605   4.228   8.388  12.116
22589SOL    HW169606   4.272   8.310  12.081
22589SOL    HW269607   4.142   8.357  12.142
22590SOL     OW69608   7.164   4.739   0.480
22590SOL    HW169609   7.217   4.707   0.553
22590SOL    HW269610   7.126   4.660   0.442
22591SOL     OW69611  14.144   0.677   0.102
22591SOL    HW169612  14.208   0.731   0.054
22591SOL    HW269613  14.198   0.612   0.147
22592SOL     OW69614   4.791   9.734  13.510
22592SOL    HW169615   4.858   9.667  13.527
22592SOL    HW269616   4.708   9.690  13.526
22593SOL     OW69617   6.162   5.990   3.468
22593SOL    HW169618   6.158   5.954   3.379
22593SOL    HW269619   6.070   5.996   3.495
22594SOL     OW69620   4.401  10.220   7.529
22594SOL    HW169621   4.374  10.297   7.480
22594SOL    HW269622   4.473  10.251   7.585
22595SOL     OW69623   6.988   8.921   0.072
22595SOL    HW169624   6.948   8.869   0.141
22595SOL    HW269625   6.917   8.979   0.042
22596SOL     OW69626   8.433   6.547   0.049
22596SOL    HW169627   8.438   6.630   0.003
22596SOL    HW269628   8.475   6.484  14.869
22597SOL     OW69629  12.681   7.308  10.167
22597SOL    HW169630  12.702   7.284  10.077
22597SOL    HW269631  12.648   7.227  10.206
22598SOL     OW69632  10.701   3.875   5.974
22598SOL    HW169633  10.764   3.825   5.922
22598SOL    HW269634  10.616   3.847   5.941
22599SOL     OW69635   5.869  13.264   9.226
22599SOL    HW169636   5.947  13.227   9.187
22599SOL    HW269637   5.843  13.334   9.166
22600SOL     OW69638   5.033  13.788   0.112
22600SOL    HW169639   5.009  13.698   0.134
22600SOL    HW269640   5.127  13.793   0.131
22601SOL     OW69641   4.930   2.496  12.320
22601SOL    HW169642   4.914   2.410  12.281
22601SOL    HW269643   5.023   2.513  12.306
22602SOL     OW69644   8.393   8.172   6.730
22602SOL    HW169645   8.482   8.178   6.765
22602SOL    HW269646   8.369   8.263   6.711
22603SOL     OW69647   2.256  13.995   8.650
22603SOL    HW169648   2.311  13.926   8.688
22603SOL    HW269649   2.282  13.998   8.558
22604SOL     OW69650  11.207   5.558  11.175
22604SOL    HW169651  11.191   5.586  11.085
22604SOL    HW269652  11.281   5.498  11.168
22605SOL     OW69653  11.940   4.037  11.663
22605SOL    HW169654  12.005   4.006  11.726
22605SOL    HW269655  11.856   4.011  11.699
22606SOL     OW69656   8.980   4.392  11.223
22606SOL    HW169657   8.986   4.324  11.156
22606SOL    HW269658   9.043   4.365  11.290
22607SOL     OW69659   5.412   3.948   9.857
22607SOL    HW169660   5.356   3.961   9.780
22607SOL    HW269661   5.497   3.984   9.831
22608SOL     OW69662   6.635  10.072  12.830
22608SOL    HW169663   6.553  10.023  12.823
22608SOL    HW269664   6.631  10.113  12.917
22609SOL     OW69665  12.624  12.241  10.685
22609SOL    HW169666  12.679  12.169  10.718
22609SOL    HW269667  12.655  12.318  10.732
22610SOL     OW69668   3.975   7.556   7.982
22610SOL    HW169669   3.892   7.599   7.959
22610SOL    HW269670   3.998   7.592   8.067
22611SOL     OW69671  13.850   2.695   5.509
22611SOL    HW169672  13.836   2.728   5.598
22611SOL    HW269673  13.907   2.760   5.468
22612SOL     OW69674   4.213   1.270   1.537
22612SOL    HW169675   4.160   1.233   1.608
22612SOL    HW269676   4.179   1.228   1.458
22613SOL     OW69677  10.635   3.436   0.179
22613SOL    HW169678  10.676   3.350   0.170
22613SOL    HW269679  10.708   3.498   0.175
22614SOL     OW69680  12.973   0.964   9.094
22614SOL    HW169681  12.954   0.901   9.164
22614SOL    HW269682  13.055   0.933   9.055
22615SOL     OW69683   2.506   5.056   1.815
22615SOL    HW169684   2.485   5.147   1.797
22615SOL    HW269685   2.485   5.044   1.908
22616SOL     OW69686  14.552   6.991   9.941
22616SOL    HW169687  14.554   7.027  10.030
22616SOL    HW269688  14.587   7.061   9.886
22617SOL     OW69689  10.845   7.305  13.343
22617SOL    HW169690  10.799   7.387  13.356
22617SOL    HW269691  10.932   7.330  13.311
22618SOL     OW69692   0.592   9.239  14.314
22618SOL    HW169693   0.561   9.326  14.291
22618SOL    HW269694   0.682   9.236  14.282
22619SOL     OW69695   8.753   7.800  13.023
22619SOL    HW169696   8.692   7.736  12.987
22619SOL    HW269697   8.757   7.779  13.117
22620SOL     OW69698   2.251   0.622  13.962
22620SOL    HW169699   2.334   0.635  14.007
22620SOL    HW269700   2.272   0.558  13.893
22621SOL     OW69701   9.843   1.742   4.435
22621SOL    HW169702   9.821   1.691   4.357
22621SOL    HW269703   9.837   1.679   4.507
22622SOL     OW69704   8.330  12.983   6.559
22622SOL    HW169705   8.346  12.993   6.653
22622SOL    HW269706   8.418  12.980   6.521
22623SOL     OW69707   7.204   5.415   1.158
22623SOL    HW169708   7.158   5.337   1.189
22623SOL    HW269709   7.166   5.433   1.072
22624SOL     OW69710  11.302   4.638   8.810
22624SOL    HW169711  11.270   4.613   8.897
22624SOL    HW269712  11.351   4.719   8.825
22625SOL     OW69713   8.815  10.217   4.500
22625SOL    HW169714   8.885  10.274   4.468
22625SOL    HW269715   8.777  10.179   4.421
22626SOL     OW69716   1.695  10.786  14.132
22626SOL    HW169717   1.657  10.872  14.150
22626SOL    HW269718   1.780  10.805  14.091
22627SOL     OW69719  13.198  13.956   4.492
22627SOL    HW169720  13.159  14.033   4.534
22627SOL    HW269721  13.125  13.895   4.482
22628SOL     OW69722  14.001   0.315   1.880
22628SOL    HW169723  13.976   0.389   1.935
22628SOL    HW269724  13.966   0.238   1.925
22629SOL     OW69725   9.506   1.174   2.508
22629SOL    HW169726   9.500   1.172   2.603
22629SOL    HW269727   9.432   1.229   2.481
22630SOL     OW69728  10.040  13.318   3.594
22630SOL    HW169729   9.968  13.363   3.637
22630SOL    HW269730  10.030  13.226   3.621
22631SOL     OW69731  10.184  13.849  10.762
22631SOL    HW169732  10.101  13.845  10.809
22631SOL    HW269733  10.242  13.900  10.818
22632SOL     OW69734   3.598   0.929   4.823
22632SOL    HW169735   3.618   0.939   4.916
22632SOL    HW269736   3.683   0.917   4.782
22633SOL     OW69737  13.872   9.101   0.786
22633SOL    HW169738  13.815   9.038   0.830
22633SOL    HW269739  13.812   9.167   0.751
22634SOL     OW69740  12.045   3.938  13.581
22634SOL    HW169741  11.978   3.988  13.628
22634SOL    HW269742  12.128   3.979  13.606
22635SOL     OW69743  12.191   3.345  11.469
22635SOL    HW169744  12.186   3.252  11.493
22635SOL    HW269745  12.240   3.346  11.387
22636SOL     OW69746   9.293  11.109   5.173
22636SOL    HW169747   9.307  11.125   5.266
22636SOL    HW269748   9.317  11.192   5.130
22637SOL     OW69749   8.638   1.731   8.346
22637SOL    HW169750   8.651   1.653   8.293
22637SOL    HW269751   8.546   1.754   8.333
22638SOL     OW69752  11.906  14.757   2.642
22638SOL    HW169753  11.980  14.789   2.590
22638SOL    HW269754  11.909  14.661   2.631
22639SOL     OW69755   2.304   3.698   7.335
22639SOL    HW169756   2.335   3.772   7.282
22639SOL    HW269757   2.299   3.733   7.424
22640SOL     OW69758   8.675  11.639   7.538
22640SOL    HW169759   8.684  11.695   7.461
22640SOL    HW269760   8.600  11.675   7.585
22641SOL     OW69761  14.563  11.234   9.100
22641SOL    HW169762  14.501  11.294   9.059
22641SOL    HW269763  14.525  11.147   9.087
22642SOL     OW69764   1.181  12.891  13.277
22642SOL    HW169765   1.219  12.883  13.189
22642SOL    HW269766   1.103  12.944  13.265
22643SOL     OW69767   2.269   0.611   1.062
22643SOL    HW169768   2.217   0.691   1.071
22643SOL    HW269769   2.205   0.541   1.055
22644SOL     OW69770   1.989  14.428   6.023
22644SOL    HW169771   2.026  14.355   6.073
22644SOL    HW269772   1.923  14.466   6.082
22645SOL     OW69773  10.777  11.839  13.840
22645SOL    HW169774  10.701  11.819  13.785
22645SOL    HW269775  10.759  11.926  13.875
22646SOL     OW69776   0.942   8.302  14.617
22646SOL    HW169777   0.908   8.213  14.630
22646SOL    HW269778   0.950   8.338  14.705
22647SOL     OW69779  10.002   1.743   1.066
22647SOL    HW169780  10.065   1.816   1.070
22647SOL    HW269781   9.916   1.785   1.068
22648SOL     OW69782   8.841   7.444   9.687
22648SOL    HW169783   8.810   7.365   9.730
22648SOL    HW269784   8.926   7.462   9.729
22649SOL     OW69785   2.533   6.873   0.334
22649SOL    HW169786   2.514   6.940   0.268
22649SOL    HW269787   2.579   6.919   0.403
22650SOL     OW69788   6.259  12.478  11.767
22650SOL    HW169789   6.199  12.492  11.694
22650SOL    HW269790   6.279  12.566  11.799
22651SOL     OW69791   3.467   2.752   4.928
22651SOL    HW169792   3.498   2.731   4.840
22651SOL    HW269793   3.517   2.694   4.985
22652SOL     OW69794  10.065  14.258   8.071
22652SOL    HW169795  10.026  14.331   8.119
22652SOL    HW269796   9.991  14.217   8.026
22653SOL     OW69797   2.375   3.735   6.058
22653SOL    HW169798   2.326   3.817   6.069
22653SOL    HW269799   2.350   3.682   6.134
22654SOL     OW69800   2.042   8.007   4.653
22654SOL    HW169801   2.119   8.058   4.626
22654SOL    HW269802   2.072   7.916   4.653
22655SOL     OW69803   3.563   5.084  13.008
22655SOL    HW169804   3.597   5.172  12.990
22655SOL    HW269805   3.608   5.057  13.089
22656SOL     OW69806   4.790   2.970  13.667
22656SOL    HW169807   4.791   3.045  13.727
22656SOL    HW269808   4.734   2.998  13.594
22657SOL     OW69809   0.904   0.884  11.185
22657SOL    HW169810   0.929   0.914  11.097
22657SOL    HW269811   0.855   0.958  11.222
22658SOL     OW69812  11.649  14.831   0.852
22658SOL    HW169813  11.688   0.036   0.829
22658SOL    HW269814  11.634  14.788   0.768
22659SOL     OW69815   5.714   0.367   1.367
22659SOL    HW169816   5.808   0.380   1.359
22659SOL    HW269817   5.680   0.376   1.278
22660SOL     OW69818  12.606   7.030   6.531
22660SOL    HW169819  12.671   7.073   6.586
22660SOL    HW269820  12.537   7.095   6.520
22661SOL     OW69821   7.711   4.755   3.628
22661SOL    HW169822   7.799   4.718   3.618
22661SOL    HW269823   7.665   4.729   3.548
22662SOL     OW69824   4.485   2.846   2.398
22662SOL    HW169825   4.414   2.861   2.337
22662SOL    HW269826   4.560   2.891   2.360
22663SOL     OW69827   4.608  10.364   7.634
22663SOL    HW169828   4.690  10.406   7.608
22663SOL    HW269829   4.623  10.338   7.725
22664SOL     OW69830   4.251   4.973   6.570
22664SOL    HW169831   4.172   4.955   6.620
22664SOL    HW269832   4.231   4.943   6.481
22665SOL     OW69833   4.679   8.892  11.318
22665SOL    HW169834   4.699   8.930  11.233
22665SOL    HW269835   4.727   8.947  11.380
22666SOL     OW69836  13.360   0.360  13.595
22666SOL    HW169837  13.451   0.381  13.574
22666SOL    HW269838  13.310   0.394  13.521
22667SOL     OW69839   9.978  10.340   5.495
22667SOL    HW169840   9.908  10.405   5.492
22667SOL    HW269841  10.046  10.375   5.437
22668SOL     OW69842  12.743   4.450   5.389
22668SOL    HW169843  12.781   4.441   5.301
22668SOL    HW269844  12.801   4.401   5.446
22669SOL     OW69845   8.488   3.567   1.011
22669SOL    HW169846   8.534   3.556   1.094
22669SOL    HW269847   8.520   3.651   0.977
22670SOL     OW69848   9.825   5.813  14.164
22670SOL    HW169849   9.833   5.833  14.071
22670SOL    HW269850   9.912   5.783  14.190
22671SOL     OW69851   6.048   0.744   2.576
22671SOL    HW169852   6.061   0.651   2.557
22671SOL    HW269853   6.117   0.789   2.528
22672SOL     OW69854   5.045   4.975  11.678
22672SOL    HW169855   4.963   4.936  11.649
22672SOL    HW269856   5.038   4.976  11.774
22673SOL     OW69857  10.331  14.702   5.017
22673SOL    HW169858  10.284  14.632   4.972
22673SOL    HW269859  10.417  14.664   5.037
22674SOL     OW69860  11.595  13.496  10.787
22674SOL    HW169861  11.592  13.589  10.807
22674SOL    HW269862  11.655  13.459  10.853
22675SOL     OW69863   5.002  10.130  14.803
22675SOL    HW169864   5.026  10.221  14.817
22675SOL    HW269865   5.085  10.086  14.782
22676SOL     OW69866  11.485   5.913   6.049
22676SOL    HW169867  11.569   5.869   6.066
22676SOL    HW269868  11.510   6.003   6.027
22677SOL     OW69869  14.859   4.831   5.738
22677SOL    HW169870   0.056   4.844   5.682
22677SOL    HW269871  14.826   4.745   5.713
22678SOL     OW69872  14.028   4.015   1.065
22678SOL    HW169873  14.033   4.083   1.132
22678SOL    HW269874  14.077   4.050   0.991
22679SOL     OW69875   4.855   3.585   6.642
22679SOL    HW169876   4.898   3.507   6.607
22679SOL    HW269877   4.789   3.551   6.703
22680SOL     OW69878  11.907  13.647   7.418
22680SOL    HW169879  11.920  13.578   7.353
22680SOL    HW269880  11.865  13.603   7.492
22681SOL     OW69881   7.911  14.737   2.227
22681SOL    HW169882   7.859  14.817   2.218
22681SOL    HW269883   7.903  14.713   2.319
22682SOL     OW69884   3.894  12.717   2.294
22682SOL    HW169885   3.826  12.765   2.246
22682SOL    HW269886   3.848  12.644   2.335
22683SOL     OW69887  12.984   1.414   6.536
22683SOL    HW169888  12.909   1.465   6.507
22683SOL    HW269889  12.947   1.344   6.589
22684SOL     OW69890   8.618   5.296  12.765
22684SOL    HW169891   8.651   5.240  12.836
22684SOL    HW269892   8.634   5.386  12.796
22685SOL     OW69893  12.683   8.151   8.036
22685SOL    HW169894  12.682   8.081   7.971
22685SOL    HW269895  12.591   8.169   8.054
22686SOL     OW69896   5.284   0.786   4.541
22686SOL    HW169897   5.282   0.799   4.447
22686SOL    HW269898   5.332   0.705   4.554
22687SOL     OW69899  11.852  11.460   0.111
22687SOL    HW169900  11.832  11.549   0.139
22687SOL    HW269901  11.947  11.456   0.107
22688SOL     OW69902   2.263   8.536  13.558
22688SOL    HW169903   2.234   8.563  13.471
22688SOL    HW269904   2.331   8.470  13.542
22689SOL     OW69905  14.519  10.442   0.161
22689SOL    HW169906  14.600  10.476   0.200
22689SOL    HW269907  14.488  10.512   0.104
22690SOL     OW69908   6.646   2.771   4.659
22690SOL    HW169909   6.631   2.726   4.742
22690SOL    HW269910   6.560   2.808   4.636
22691SOL     OW69911  11.477   7.805   2.430
22691SOL    HW169912  11.384   7.826   2.423
22691SOL    HW269913  11.482   7.744   2.504
22692SOL     OW69914   0.367   6.655   9.637
22692SOL    HW169915   0.325   6.738   9.661
22692SOL    HW269916   0.325   6.590   9.692
22693SOL     OW69917   1.688   0.155   9.879
22693SOL    HW169918   1.717   0.194   9.961
22693SOL    HW269919   1.769   0.127   9.836
22694SOL     OW69920   0.590   4.877   8.087
22694SOL    HW169921   0.606   4.890   7.994
22694SOL    HW269922   0.503   4.839   8.092
22695SOL     OW69923   3.680   1.627   5.964
22695SOL    HW169924   3.715   1.550   5.918
22695SOL    HW269925   3.693   1.606   6.057
22696SOL     OW69926   0.573   8.204   2.831
22696SOL    HW169927   0.613   8.278   2.875
22696SOL    HW269928   0.481   8.207   2.855
22697SOL     OW69929  10.516  13.623  10.197
22697SOL    HW169930  10.428  13.632  10.232
22697SOL    HW269931  10.563  13.571  10.263
22698SOL     OW69932   7.251  10.422  13.928
22698SOL    HW169933   7.323  10.368  13.960
22698SOL    HW269934   7.262  10.506  13.972
22699SOL     OW69935   1.407  12.116  12.251
22699SOL    HW169936   1.450  12.066  12.321
22699SOL    HW269937   1.314  12.114  12.274
22700SOL     OW69938   2.426   0.698   8.748
22700SOL    HW169939   2.474   0.646   8.813
22700SOL    HW269940   2.351   0.643   8.725
22701SOL     OW69941  12.208  12.245  12.529
22701SOL    HW169942  12.191  12.319  12.588
22701SOL    HW269943  12.142  12.253  12.461
22702SOL     OW69944   2.096   8.998   0.544
22702SOL    HW169945   2.103   9.005   0.449
22702SOL    HW269946   2.185   9.008   0.576
22703SOL     OW69947   8.910   2.879   0.150
22703SOL    HW169948   8.859   2.945   0.195
22703SOL    HW269949   8.904   2.902   0.057
22704SOL     OW69950   2.358   3.343  11.149
22704SOL    HW169951   2.323   3.285  11.081
22704SOL    HW269952   2.299   3.331  11.223
22705SOL     OW69953   5.586  12.378  13.697
22705SOL    HW169954   5.496  12.381  13.663
22705SOL    HW269955   5.579  12.415  13.785
22706SOL     OW69956   8.681  11.810   5.322
22706SOL    HW169957   8.658  11.727   5.363
22706SOL    HW269958   8.775  11.804   5.305
22707SOL     OW69959   9.117  10.216   8.617
22707SOL    HW169960   9.089  10.233   8.527
22707SOL    HW269961   9.134  10.303   8.654
22708SOL     OW69962  10.450   6.946   5.548
22708SOL    HW169963  10.407   6.903   5.622
22708SOL    HW269964  10.515   7.004   5.589
22709SOL     OW69965   4.017   3.552   3.834
22709SOL    HW169966   4.073   3.521   3.763
22709SOL    HW269967   4.014   3.647   3.821
22710SOL     OW69968  11.029  11.462   7.198
22710SOL    HW169969  10.988  11.544   7.226
22710SOL    HW269970  11.122  11.473   7.218
22711SOL     OW69971   4.783   3.248   4.136
22711SOL    HW169972   4.779   3.334   4.093
22711SOL    HW269973   4.856   3.203   4.092
22712SOL     OW69974   4.879   6.683   0.020
22712SOL    HW169975   4.935   6.759   0.041
22712SOL    HW269976   4.805   6.720  14.852
22713SOL     OW69977   8.783   6.686   1.255
22713SOL    HW169978   8.854   6.652   1.201
22713SOL    HW269979   8.819   6.765   1.294
22714SOL     OW69980   3.505   4.944  13.291
22714SOL    HW169981   3.462   4.931  13.376
22714SOL    HW269982   3.433   4.951  13.229
22715SOL     OW69983   1.761   7.108   6.659
22715SOL    HW169984   1.845   7.146   6.684
22715SOL    HW269985   1.724   7.075   6.741
22716SOL     OW69986   8.374   5.023   9.721
22716SOL    HW169987   8.316   4.966   9.771
22716SOL    HW269988   8.398   4.972   9.644
22717SOL     OW69989  10.471   5.955  10.031
22717SOL    HW169990  10.521   5.996   9.961
22717SOL    HW269991  10.508   5.991  10.111
22718SOL     OW69992   6.700   3.599  13.822
22718SOL    HW169993   6.650   3.612  13.741
22718SOL    HW269994   6.730   3.687  13.845
22719SOL     OW69995   9.428   7.348   4.989
22719SOL    HW169996   9.521   7.330   4.978
22719SOL    HW269997   9.420   7.443   4.983
22720SOL     OW69998  14.454   3.343  13.227
22720SOL    HW169999  14.515   3.414  13.207
22720SOL    HW270000  14.474   3.276  13.162
22721SOL     OW70001   6.545  12.441   3.141
22721SOL    HW170002   6.523  12.445   3.234
22721SOL    HW270003   6.493  12.511   3.101
22722SOL     OW70004   7.379   1.610   7.421
22722SOL    HW170005   7.364   1.516   7.407
22722SOL    HW270006   7.317   1.653   7.363
22723SOL     OW70007  14.855   6.430   8.535
22723SOL    HW170008   0.016   6.344   8.548
22723SOL    HW270009  14.830   6.431   8.443
22724SOL     OW70010   0.236   8.627  12.541
22724SOL    HW170011   0.298   8.699  12.535
22724SOL    HW270012   0.288   8.553  12.571
22725SOL     OW70013   4.496  14.393  13.904
22725SOL    HW170014   4.544  14.476  13.895
22725SOL    HW270015   4.435  14.394  13.830
22726SOL     OW70016   3.685   2.347   4.320
22726SOL    HW170017   3.631   2.344   4.241
22726SOL    HW270018   3.621   2.345   4.392
22727SOL     OW70019   1.201   3.738   6.649
22727SOL    HW170020   1.116   3.774   6.673
22727SOL    HW270021   1.202   3.651   6.688
22728SOL     OW70022  11.632  11.636   3.815
22728SOL    HW170023  11.679  11.719   3.820
22728SOL    HW270024  11.696  11.570   3.845
22729SOL     OW70025   7.640   1.910  11.625
22729SOL    HW170026   7.680   1.852  11.561
22729SOL    HW270027   7.684   1.889  11.707
22730SOL     OW70028  12.056  10.646   4.016
22730SOL    HW170029  11.968  10.676   3.995
22730SOL    HW270030  12.098  10.634   3.930
22731SOL     OW70031   1.436   6.075  12.272
22731SOL    HW170032   1.446   5.984  12.298
22731SOL    HW270033   1.437   6.074  12.177
22732SOL     OW70034   7.233   1.940  12.984
22732SOL    HW170035   7.234   1.971  12.894
22732SOL    HW270036   7.275   1.854  12.981
22733SOL     OW70037   5.825   1.337   8.028
22733SOL    HW170038   5.843   1.316   7.936
22733SOL    HW270039   5.746   1.289   8.050
22734SOL     OW70040   0.090  12.103   5.961
22734SOL    HW170041   0.100  12.023   5.910
22734SOL    HW270042   0.054  12.073   6.045
22735SOL     OW70043   0.934   4.491   4.168
22735SOL    HW170044   1.027   4.506   4.184
22735SOL    HW270045   0.926   4.396   4.159
22736SOL     OW70046   1.687   2.450   2.877
22736SOL    HW170047   1.696   2.365   2.834
22736SOL    HW270048   1.724   2.435   2.964
22737SOL     OW70049   5.049  14.742  12.261
22737SOL    HW170050   5.028  14.664  12.312
22737SOL    HW270051   5.115  14.788  12.313
22738SOL     OW70052  13.421   4.940   8.450
22738SOL    HW170053  13.425   5.028   8.414
22738SOL    HW270054  13.509   4.904   8.438
22739SOL     OW70055  10.834   3.667   6.914
22739SOL    HW170056  10.920   3.624   6.916
22739SOL    HW270057  10.818   3.693   7.004
22740SOL     OW70058  10.950   9.605   8.195
22740SOL    HW170059  10.977   9.549   8.122
22740SOL    HW270060  10.855   9.611   8.188
22741SOL     OW70061  10.358   9.213   8.972
22741SOL    HW170062  10.383   9.298   9.008
22741SOL    HW270063  10.342   9.230   8.879
22742SOL     OW70064   2.479  10.128   4.109
22742SOL    HW170065   2.437  10.051   4.147
22742SOL    HW270066   2.536  10.093   4.041
22743SOL     OW70067   2.215  11.868   2.061
22743SOL    HW170068   2.266  11.874   1.980
22743SOL    HW270069   2.205  11.774   2.077
22744SOL     OW70070   5.440  11.477  13.364
22744SOL    HW170071   5.524  11.440  13.392
22744SOL    HW270072   5.380  11.402  13.365
22745SOL     OW70073   8.636   0.532  14.813
22745SOL    HW170074   8.545   0.562  14.811
22745SOL    HW270075   8.630   0.437  14.825
22746SOL     OW70076   4.843   6.136   6.398
22746SOL    HW170077   4.857   6.184   6.480
22746SOL    HW270078   4.929   6.134   6.356
22747SOL     OW70079   4.351   3.557  10.998
22747SOL    HW170080   4.256   3.547  10.998
22747SOL    HW270081   4.384   3.467  11.010
22748SOL     OW70082  11.581   1.762   1.875
22748SOL    HW170083  11.626   1.797   1.799
22748SOL    HW270084  11.557   1.838   1.927
22749SOL     OW70085   3.355  11.500  11.651
22749SOL    HW170086   3.435  11.475  11.604
22749SOL    HW270087   3.291  11.433  11.626
22750SOL     OW70088   9.114   8.515   6.338
22750SOL    HW170089   9.075   8.600   6.362
22750SOL    HW270090   9.181   8.538   6.273
22751SOL     OW70091   0.633   2.253   4.342
22751SOL    HW170092   0.686   2.270   4.264
22751SOL    HW270093   0.596   2.166   4.328
22752SOL     OW70094   0.130   9.125   1.575
22752SOL    HW170095   0.204   9.118   1.515
22752SOL    HW270096   0.080   9.200   1.542
22753SOL     OW70097   4.129   3.934  11.960
22753SOL    HW170098   4.061   4.000  11.973
22753SOL    HW270099   4.137   3.927  11.865
22754SOL     OW70100   9.955   6.737  14.495
22754SOL    HW170101   9.940   6.758  14.587
22754SOL    HW270102   9.922   6.814  14.448
22755SOL     OW70103  14.382   5.544   4.158
22755SOL    HW170104  14.440   5.475   4.190
22755SOL    HW270105  14.321   5.559   4.230
22756SOL     OW70106  12.591   8.094   3.419
22756SOL    HW170107  12.572   8.170   3.475
22756SOL    HW270108  12.550   8.020   3.464
22757SOL     OW70109   2.432   6.566   1.827
22757SOL    HW170110   2.340   6.591   1.817
22757SOL    HW270111   2.459   6.606   1.910
22758SOL     OW70112  11.806   2.792   7.147
22758SOL    HW170113  11.844   2.709   7.119
22758SOL    HW270114  11.876   2.856   7.133
22759SOL     OW70115   8.966   4.964  12.626
22759SOL    HW170116   8.940   5.015  12.549
22759SOL    HW270117   8.981   4.876  12.591
22760SOL     OW70118  13.096  14.633   7.848
22760SOL    HW170119  13.046  14.677   7.917
22760SOL    HW270120  13.030  14.601   7.787
22761SOL     OW70121   9.468  12.703   8.389
22761SOL    HW170122   9.449  12.622   8.436
22761SOL    HW270123   9.389  12.720   8.337
22762SOL     OW70124   4.428  13.361   7.628
22762SOL    HW170125   4.479  13.442   7.620
22762SOL    HW270126   4.485  13.301   7.675
22763SOL     OW70127   7.928  11.841  13.269
22763SOL    HW170128   7.980  11.839  13.188
22763SOL    HW270129   7.912  11.934  13.285
22764SOL     OW70130   5.441   1.361   7.158
22764SOL    HW170131   5.354   1.388   7.188
22764SOL    HW270132   5.464   1.425   7.091
22765SOL     OW70133   1.442  12.452  10.370
22765SOL    HW170134   1.415  12.544  10.361
22765SOL    HW270135   1.438  12.418  10.280
22766SOL     OW70136   9.724  14.756   7.723
22766SOL    HW170137   9.628  14.748   7.724
22766SOL    HW270138   9.745  14.778   7.632
22767SOL     OW70139   5.163  12.156   0.633
22767SOL    HW170140   5.194  12.095   0.699
22767SOL    HW270141   5.090  12.202   0.674
22768SOL     OW70142   1.008   3.805   7.255
22768SOL    HW170143   1.072   3.745   7.293
22768SOL    HW270144   1.021   3.887   7.301
22769SOL     OW70145  11.889  10.804  10.184
22769SOL    HW170146  11.894  10.755  10.101
22769SOL    HW270147  11.893  10.896  10.158
22770SOL     OW70148  13.414   1.589   1.039
22770SOL    HW170149  13.477   1.559   0.973
22770SOL    HW270150  13.448   1.674   1.068
22771SOL     OW70151  11.087  14.487  12.950
22771SOL    HW170152  11.072  14.580  12.935
22771SOL    HW270153  11.124  14.455  12.867
22772SOL     OW70154  13.688   6.546   0.892
22772SOL    HW170155  13.708   6.505   0.976
22772SOL    HW270156  13.620   6.610   0.912
22773SOL     OW70157   5.388   9.593   6.732
22773SOL    HW170158   5.336   9.662   6.691
22773SOL    HW270159   5.356   9.589   6.822
22774SOL     OW70160   5.733   8.060  12.441
22774SOL    HW170161   5.814   8.022  12.474
22774SOL    HW270162   5.730   8.033  12.349
22775SOL     OW70163   9.946   7.645  12.504
22775SOL    HW170164   9.893   7.626  12.581
22775SOL    HW270165   9.899   7.716  12.460
22776SOL     OW70166   5.201   6.229   3.819
22776SOL    HW170167   5.267   6.167   3.850
22776SOL    HW270168   5.225   6.312   3.860
22777SOL     OW70169  10.641  13.875   9.694
22777SOL    HW170170  10.620  13.967   9.678
22777SOL    HW270171  10.576  13.826   9.643
22778SOL     OW70172   3.349  11.659   5.492
22778SOL    HW170173   3.441  11.641   5.475
22778SOL    HW270174   3.334  11.627   5.581
22779SOL     OW70175   5.032   6.619   2.012
22779SOL    HW170176   4.965   6.680   2.042
22779SOL    HW270177   5.114   6.667   2.020
22780SOL     OW70178   4.646  11.020   3.775
22780SOL    HW170179   4.592  11.098   3.781
22780SOL    HW270180   4.724  11.040   3.827
22781SOL     OW70181  12.937   1.304   2.499
22781SOL    HW170182  13.002   1.255   2.549
22781SOL    HW270183  12.897   1.238   2.441
22782SOL     OW70184  13.268   7.107   1.190
22782SOL    HW170185  13.357   7.142   1.193
22782SOL    HW270186  13.241   7.118   1.099
22783SOL     OW70187   9.333   6.961  10.684
22783SOL    HW170188   9.244   6.981  10.714
22783SOL    HW270189   9.372   6.909  10.754
22784SOL     OW70190   5.416   0.098   0.183
22784SOL    HW170191   5.337   0.046   0.166
22784SOL    HW270192   5.421   0.159   0.109
22785SOL     OW70193  13.269   3.595   6.157
22785SOL    HW170194  13.357   3.567   6.181
22785SOL    HW270195  13.220   3.594   6.239
22786SOL     OW70196  13.583   9.574  12.537
22786SOL    HW170197  13.505   9.626  12.520
22786SOL    HW270198  13.585   9.564  12.633
22787SOL     OW70199  11.379   8.553   6.069
22787SOL    HW170200  11.330   8.470   6.075
22787SOL    HW270201  11.436   8.553   6.146
22788SOL     OW70202   9.168   6.089   0.699
22788SOL    HW170203   9.126   6.083   0.614
22788SOL    HW270204   9.191   6.182   0.709
22789SOL     OW70205   6.474  11.020  12.662
22789SOL    HW170206   6.444  10.952  12.723
22789SOL    HW270207   6.570  11.017  12.668
22790SOL     OW70208   6.037   6.434   3.526
22790SOL    HW170209   6.056   6.410   3.435
22790SOL    HW270210   6.035   6.530   3.525
22791SOL     OW70211   1.876  14.208   5.158
22791SOL    HW170212   1.906  14.217   5.248
22791SOL    HW270213   1.842  14.294   5.135
22792SOL     OW70214   1.846   5.278  13.247
22792SOL    HW170215   1.766   5.313  13.286
22792SOL    HW270216   1.903   5.354  13.235
22793SOL     OW70217  14.429   7.579   0.544
22793SOL    HW170218  14.396   7.522   0.614
22793SOL    HW270219  14.482   7.645   0.590
22794SOL     OW70220   4.225   2.217  12.342
22794SOL    HW170221   4.242   2.311  12.344
22794SOL    HW270222   4.137   2.208  12.379
22795SOL     OW70223   6.277   0.239   5.942
22795SOL    HW170224   6.285   0.283   6.027
22795SOL    HW270225   6.292   0.147   5.962
22796SOL     OW70226  13.219   3.273   5.233
22796SOL    HW170227  13.252   3.231   5.312
22796SOL    HW270228  13.186   3.358   5.263
22797SOL     OW70229   1.845   3.973  11.607
22797SOL    HW170230   1.859   4.000  11.516
22797SOL    HW270231   1.762   3.924  11.605
22798SOL     OW70232   8.662  13.413   4.887
22798SOL    HW170233   8.621  13.495   4.860
22798SOL    HW270234   8.667  13.419   4.982
22799SOL     OW70235   9.138  13.190   3.036
22799SOL    HW170236   9.222  13.163   3.073
22799SOL    HW270237   9.105  13.111   2.993
22800SOL     OW70238  12.860   4.684   1.050
22800SOL    HW170239  12.843   4.692   1.144
22800SOL    HW270240  12.773   4.691   1.010
22801SOL     OW70241   1.058  14.574  10.452
22801SOL    HW170242   1.006  14.638  10.501
22801SOL    HW270243   1.149  14.595  10.475
22802SOL     OW70244  12.207   3.453  14.781
22802SOL    HW170245  12.190   3.529  14.837
22802SOL    HW270246  12.266   3.486  14.713
22803SOL     OW70247  13.720   7.355  11.500
22803SOL    HW170248  13.691   7.338  11.589
22803SOL    HW270249  13.666   7.297  11.446
22804SOL     OW70250  13.062   1.359   8.207
22804SOL    HW170251  12.986   1.314   8.170
22804SOL    HW270252  13.134   1.296   8.197
22805SOL     OW70253  11.030  12.715   9.818
22805SOL    HW170254  10.984  12.779   9.763
22805SOL    HW270255  11.069  12.767   9.888
22806SOL     OW70256  11.922  10.924   6.650
22806SOL    HW170257  11.994  10.871   6.615
22806SOL    HW270258  11.915  10.897   6.741
22807SOL     OW70259   1.492  13.180  12.321
22807SOL    HW170260   1.397  13.196  12.319
22807SOL    HW270261   1.513  13.148  12.234
22808SOL     OW70262   3.879   0.819  10.784
22808SOL    HW170263   3.878   0.812  10.879
22808SOL    HW270264   3.876   0.728  10.753
22809SOL     OW70265  12.306  14.648   8.691
22809SOL    HW170266  12.216  14.665   8.718
22809SOL    HW270267  12.301  14.630   8.597
22810SOL     OW70268  13.054   8.691   0.902
22810SOL    HW170269  13.105   8.616   0.934
22810SOL    HW270270  13.006   8.721   0.980
22811SOL     OW70271   4.820  13.855   4.613
22811SOL    HW170272   4.747  13.794   4.597
22811SOL    HW270273   4.778  13.940   4.622
22812SOL     OW70274   3.123   5.297  14.819
22812SOL    HW170275   3.085   5.385  14.813
22812SOL    HW270276   3.173   5.299   0.022
22813SOL     OW70277   3.183   6.134   3.254
22813SOL    HW170278   3.093   6.118   3.282
22813SOL    HW270279   3.218   6.047   3.236
22814SOL     OW70280  12.745   9.392  11.168
22814SOL    HW170281  12.661   9.430  11.196
22814SOL    HW270282  12.791   9.464  11.125
22815SOL     OW70283   0.820   4.812  13.160
22815SOL    HW170284   0.751   4.770  13.210
22815SOL    HW270285   0.790   4.808  13.069
22816SOL     OW70286   4.128   6.201   9.016
22816SOL    HW170287   4.062   6.132   9.011
22816SOL    HW270288   4.100   6.255   9.090
22817SOL     OW70289  14.166  12.710   2.377
22817SOL    HW170290  14.219  12.774   2.424
22817SOL    HW270291  14.166  12.632   2.432
22818SOL     OW70292   9.469   6.748  12.193
22818SOL    HW170293   9.542   6.786  12.144
22818SOL    HW270294   9.431   6.823  12.240
22819SOL     OW70295   5.343  14.208  11.678
22819SOL    HW170296   5.416  14.148  11.685
22819SOL    HW270297   5.351  14.246  11.591
22820SOL     OW70298   0.720   8.796   6.382
22820SOL    HW170299   0.694   8.876   6.336
22820SOL    HW270300   0.773   8.748   6.319
22821SOL     OW70301   8.539  14.096  12.007
22821SOL    HW170302   8.533  14.139  12.092
22821SOL    HW270303   8.609  14.031  12.018
22822SOL     OW70304   3.703   1.941   2.721
22822SOL    HW170305   3.766   1.967   2.654
22822SOL    HW270306   3.711   2.008   2.789
22823SOL     OW70307  13.975  12.382   6.173
22823SOL    HW170308  14.031  12.385   6.096
22823SOL    HW270309  13.922  12.303   6.161
22824SOL     OW70310   3.951   3.118   1.253
22824SOL    HW170311   4.034   3.134   1.297
22824SOL    HW270312   3.976   3.095   1.163
22825SOL     OW70313   8.392   8.953   2.268
22825SOL    HW170314   8.323   8.990   2.323
22825SOL    HW270315   8.390   8.859   2.287
22826SOL     OW70316   1.506   8.889   2.685
22826SOL    HW170317   1.440   8.821   2.697
22826SOL    HW270318   1.545   8.869   2.599
22827SOL     OW70319  11.596  13.148   7.024
22827SOL    HW170320  11.607  13.058   6.993
22827SOL    HW270321  11.510  13.174   6.993
22828SOL     OW70322   9.585   1.988   9.806
22828SOL    HW170323   9.596   1.905   9.760
22828SOL    HW270324   9.627   2.053   9.750
22829SOL     OW70325   2.311   2.789   1.552
22829SOL    HW170326   2.288   2.795   1.645
22829SOL    HW270327   2.315   2.695   1.535
22830SOL     OW70328   6.278   0.832   1.523
22830SOL    HW170329   6.218   0.840   1.449
22830SOL    HW270330   6.365   0.830   1.483
22831SOL     OW70331   1.980  13.023  13.171
22831SOL    HW170332   2.050  12.988  13.227
22831SOL    HW270333   2.013  13.012  13.082
22832SOL     OW70334   5.524  11.618   7.123
22832SOL    HW170335   5.593  11.572   7.075
22832SOL    HW270336   5.571  11.677   7.181
22833SOL     OW70337   9.940   7.184  11.189
22833SOL    HW170338   9.891   7.249  11.139
22833SOL    HW270339   9.940   7.218  11.278
22834SOL     OW70340  12.358   0.627   5.532
22834SOL    HW170341  12.303   0.613   5.455
22834SOL    HW270342  12.298   0.619   5.607
22835SOL     OW70343  11.325   0.703   8.957
22835SOL    HW170344  11.337   0.610   8.937
22835SOL    HW270345  11.241   0.725   8.917
22836SOL     OW70346  10.076   0.822  12.241
22836SOL    HW170347  10.150   0.872  12.206
22836SOL    HW270348  10.111   0.735  12.258
22837SOL     OW70349  12.822  12.678  11.609
22837SOL    HW170350  12.904  12.725  11.596
22837SOL    HW270351  12.803  12.687  11.702
22838SOL     OW70352   6.756  13.223  12.803
22838SOL    HW170353   6.710  13.296  12.846
22838SOL    HW270354   6.839  13.260  12.776
22839SOL     OW70355  13.481   6.615   8.012
22839SOL    HW170356  13.534   6.588   7.936
22839SOL    HW270357  13.505   6.706   8.027
22840SOL     OW70358   6.905   1.022  11.047
22840SOL    HW170359   6.868   0.970  10.976
22840SOL    HW270360   6.831   1.039  11.106
22841SOL     OW70361   1.995   1.771  12.227
22841SOL    HW170362   2.013   1.862  12.201
22841SOL    HW270363   1.993   1.773  12.322
22842SOL     OW70364   7.999   2.838  11.200
22842SOL    HW170365   7.929   2.896  11.232
22842SOL    HW270366   7.959   2.752  11.196
22843SOL     OW70367   3.993   7.502   1.530
22843SOL    HW170368   3.961   7.424   1.484
22843SOL    HW270369   4.052   7.467   1.597
22844SOL     OW70370  12.893   5.775  10.503
22844SOL    HW170371  12.882   5.864  10.537
22844SOL    HW270372  12.859   5.718  10.572
22845SOL     OW70373  14.050  13.860   0.553
22845SOL    HW170374  13.976  13.908   0.591
22845SOL    HW270375  14.074  13.796   0.620
22846SOL     OW70376   3.041  11.635   8.327
22846SOL    HW170377   2.969  11.697   8.339
22846SOL    HW270378   3.107  11.685   8.279
22847SOL     OW70379  11.273   3.370  14.635
22847SOL    HW170380  11.214   3.438  14.604
22847SOL    HW270381  11.352   3.381  14.582
22848SOL     OW70382  11.392  14.435  12.452
22848SOL    HW170383  11.459  14.373  12.423
22848SOL    HW270384  11.441  14.514  12.476
22849SOL     OW70385   0.802   9.113  12.726
22849SOL    HW170386   0.783   9.204  12.750
22849SOL    HW270387   0.724   9.084  12.679
22850SOL     OW70388   2.698   5.934   3.760
22850SOL    HW170389   2.790   5.907   3.760
22850SOL    HW270390   2.681   5.964   3.671
22851SOL     OW70391  14.455  13.338   0.342
22851SOL    HW170392  14.452  13.273   0.412
22851SOL    HW270393  14.476  13.420   0.385
22852SOL     OW70394   5.655   1.511  11.627
22852SOL    HW170395   5.597   1.552  11.563
22852SOL    HW270396   5.596   1.471  11.691
22853SOL     OW70397   9.217   2.860  12.691
22853SOL    HW170398   9.229   2.936  12.746
22853SOL    HW270399   9.303   2.819  12.687
22854SOL     OW70400   0.892   7.430   2.159
22854SOL    HW170401   0.811   7.478   2.175
22854SOL    HW270402   0.865   7.353   2.108
22855SOL     OW70403   2.497   6.848  12.219
22855SOL    HW170404   2.436   6.865  12.291
22855SOL    HW270405   2.580   6.885  12.249
22856SOL     OW70406   7.435   8.108  10.416
22856SOL    HW170407   7.514   8.122  10.363
22856SOL    HW270408   7.468   8.102  10.506
22857SOL     OW70409   4.937   1.070   2.464
22857SOL    HW170410   4.923   1.151   2.513
22857SOL    HW270411   4.975   1.099   2.381
22858SOL     OW70412  12.727   0.706   0.167
22858SOL    HW170413  12.736   0.666   0.081
22858SOL    HW270414  12.633   0.721   0.177
22859SOL     OW70415   8.382   8.713   5.566
22859SOL    HW170416   8.336   8.722   5.649
22859SOL    HW270417   8.333   8.768   5.505
22860SOL     OW70418   5.357  10.029   2.371
22860SOL    HW170419   5.308  10.100   2.413
22860SOL    HW270420   5.403   9.986   2.443
22861SOL     OW70421   1.486  12.351   6.272
22861SOL    HW170422   1.478  12.396   6.188
22861SOL    HW270423   1.564  12.296   6.263
22862SOL     OW70424   7.804   8.133   8.965
22862SOL    HW170425   7.750   8.072   9.015
22862SOL    HW270426   7.856   8.179   9.030
22863SOL     OW70427   7.853  11.805  11.998
22863SOL    HW170428   7.758  11.818  11.998
22863SOL    HW270429   7.888  11.885  12.037
22864SOL     OW70430  12.708  10.780   9.223
22864SOL    HW170431  12.666  10.694   9.214
22864SOL    HW270432  12.744  10.779   9.311
22865SOL     OW70433   3.598   3.774   2.252
22865SOL    HW170434   3.692   3.791   2.244
22865SOL    HW270435   3.557   3.858   2.230
22866SOL     OW70436   0.469  14.535   7.684
22866SOL    HW170437   0.546  14.583   7.714
22866SOL    HW270438   0.414  14.526   7.761
22867SOL     OW70439   7.389   7.835  11.642
22867SOL    HW170440   7.467   7.871  11.600
22867SOL    HW270441   7.413   7.826  11.734
22868SOL     OW70442  12.918   0.821   9.336
22868SOL    HW170443  12.923   0.853   9.427
22868SOL    HW270444  12.873   0.737   9.343
22869SOL     OW70445   8.698   4.613   9.591
22869SOL    HW170446   8.727   4.700   9.563
22869SOL    HW270447   8.779   4.566   9.608
22870SOL     OW70448   9.872   2.050  10.698
22870SOL    HW170449   9.862   2.000  10.780
22870SOL    HW270450   9.954   2.097  10.708
22871SOL     OW70451   3.384  12.162   0.121
22871SOL    HW170452   3.417  12.130   0.037
22871SOL    HW270453   3.349  12.249   0.101
22872SOL     OW70454   2.105  13.273   9.355
22872SOL    HW170455   2.199  13.269   9.372
22872SOL    HW270456   2.084  13.186   9.320
22873SOL     OW70457  13.132   3.453   3.431
22873SOL    HW170458  13.211   3.400   3.433
22873SOL    HW270459  13.105   3.460   3.522
22874SOL     OW70460  13.001   6.922   0.766
22874SOL    HW170461  12.992   6.886   0.854
22874SOL    HW270462  12.959   6.857   0.709
22875SOL     OW70463   8.342   0.182   5.453
22875SOL    HW170464   8.383   0.258   5.411
22875SOL    HW270465   8.302   0.218   5.533
22876SOL     OW70466   0.672  12.964   3.051
22876SOL    HW170467   0.607  12.994   2.987
22876SOL    HW270468   0.661  12.869   3.053
22877SOL     OW70469   7.878   7.159  12.028
22877SOL    HW170470   7.802   7.201  12.067
22877SOL    HW270471   7.886   7.075  12.074
22878SOL     OW70472   3.898   6.977   0.518
22878SOL    HW170473   3.993   6.970   0.524
22878SOL    HW270474   3.867   6.966   0.607
22879SOL     OW70475   0.596   9.851   4.784
22879SOL    HW170476   0.623   9.923   4.841
22879SOL    HW270477   0.501   9.847   4.793
22880SOL     OW70478   7.790   1.105   7.119
22880SOL    HW170479   7.798   1.133   7.210
22880SOL    HW270480   7.756   1.015   7.125
22881SOL     OW70481   1.329   1.590   1.820
22881SOL    HW170482   1.366   1.503   1.832
22881SOL    HW270483   1.320   1.625   1.909
22882SOL     OW70484  10.251   9.623   6.131
22882SOL    HW170485  10.271   9.716   6.147
22882SOL    HW270486  10.187   9.624   6.060
22883SOL     OW70487   4.547  13.310   3.824
22883SOL    HW170488   4.507  13.353   3.749
22883SOL    HW270489   4.476  13.261   3.865
22884SOL     OW70490   0.068   8.500   1.856
22884SOL    HW170491   0.086   8.530   1.767
22884SOL    HW270492   0.015   8.570   1.895
22885SOL     OW70493  12.514  14.211  11.989
22885SOL    HW170494  12.522  14.292  11.940
22885SOL    HW270495  12.425  14.212  12.025
22886SOL     OW70496   1.295  12.869  13.537
22886SOL    HW170497   1.270  12.950  13.582
22886SOL    HW270498   1.272  12.884  13.446
22887SOL     OW70499   7.038   8.221   2.427
22887SOL    HW170500   6.949   8.218   2.462
22887SOL    HW270501   7.086   8.158   2.481
22888SOL     OW70502  14.396   2.899   5.638
22888SOL    HW170503  14.390   2.928   5.547
22888SOL    HW270504  14.486   2.868   5.648
22889SOL     OW70505  10.879   8.886   1.185
22889SOL    HW170506  10.947   8.887   1.118
22889SOL    HW270507  10.891   8.969   1.232
22890SOL     OW70508  12.336   8.834   0.640
22890SOL    HW170509  12.242   8.817   0.644
22890SOL    HW270510  12.355   8.845   0.547
22891SOL     OW70511  10.707  10.232  14.228
22891SOL    HW170512  10.668  10.238  14.316
22891SOL    HW270513  10.666  10.154  14.190
22892SOL     OW70514   7.560   4.144  10.722
22892SOL    HW170515   7.529   4.179  10.639
22892SOL    HW270516   7.534   4.052  10.722
22893SOL     OW70517   8.573  10.606  12.596
22893SOL    HW170518   8.553  10.526  12.644
22893SOL    HW270519   8.611  10.665  12.662
22894SOL     OW70520  11.311  13.137  13.153
22894SOL    HW170521  11.395  13.093  13.141
22894SOL    HW270522  11.257  13.105  13.081
22895SOL     OW70523   3.943   6.433   4.627
22895SOL    HW170524   4.039   6.439   4.631
22895SOL    HW270525   3.922   6.435   4.534
22896SOL     OW70526   7.371   6.930  14.361
22896SOL    HW170527   7.386   6.934  14.456
22896SOL    HW270528   7.449   6.886  14.327
22897SOL     OW70529  10.520   9.994   6.284
22897SOL    HW170530  10.522   9.953   6.370
22897SOL    HW270531  10.611  10.018   6.266
22898SOL     OW70532  13.816  10.736   2.826
22898SOL    HW170533  13.846  10.699   2.743
22898SOL    HW270534  13.868  10.690   2.892
22899SOL     OW70535   8.364   3.292  11.018
22899SOL    HW170536   8.274   3.288  11.051
22899SOL    HW270537   8.411   3.342  11.085
22900SOL     OW70538   6.806   5.308   1.048
22900SOL    HW170539   6.835   5.397   1.072
22900SOL    HW270540   6.728   5.294   1.101
22901SOL     OW70541   4.004   2.886  13.278
22901SOL    HW170542   4.059   2.941  13.333
22901SOL    HW270543   3.921   2.881  13.324
22902SOL     OW70544  12.612   1.002   0.984
22902SOL    HW170545  12.660   1.057   1.047
22902SOL    HW270546  12.522   1.001   1.016
22903SOL     OW70547  13.861   1.366  13.611
22903SOL    HW170548  13.804   1.391  13.538
22903SOL    HW270549  13.947   1.401  13.587
22904SOL     OW70550   5.425   9.274   8.284
22904SOL    HW170551   5.429   9.343   8.218
22904SOL    HW270552   5.388   9.199   8.237
22905SOL     OW70553   1.332   1.473  13.122
22905SOL    HW170554   1.295   1.530  13.188
22905SOL    HW270555   1.311   1.384  13.152
22906SOL     OW70556   0.572   0.773   2.679
22906SOL    HW170557   0.501   0.744   2.621
22906SOL    HW270558   0.530   0.793   2.762
22907SOL     OW70559   9.022   2.645  10.724
22907SOL    HW170560   9.076   2.718  10.693
22907SOL    HW270561   8.933   2.679  10.720
22908SOL     OW70562  12.875   7.164   6.951
22908SOL    HW170563  12.962   7.203   6.961
22908SOL    HW270564  12.815   7.235   6.972
22909SOL     OW70565   4.725  11.024   7.966
22909SOL    HW170566   4.806  10.988   7.931
22909SOL    HW270567   4.664  11.023   7.892
22910SOL     OW70568   7.992   3.856   0.028
22910SOL    HW170569   7.907   3.861  14.863
22910SOL    HW270570   8.035   3.938   0.005
22911SOL     OW70571   4.622   5.735   9.985
22911SOL    HW170572   4.583   5.823   9.985
22911SOL    HW270573   4.547   5.676   9.976
22912SOL     OW70574   5.998   4.587   8.084
22912SOL    HW170575   6.076   4.533   8.077
22912SOL    HW270576   5.989   4.605   8.177
22913SOL     OW70577   9.311   4.377   7.358
22913SOL    HW170578   9.396   4.364   7.316
22913SOL    HW270579   9.312   4.318   7.433
22914SOL     OW70580   9.455  13.346   7.063
22914SOL    HW170581   9.426  13.392   6.985
22914SOL    HW270582   9.551  13.350   7.061
22915SOL     OW70583  13.362  11.000   7.768
22915SOL    HW170584  13.283  10.988   7.821
22915SOL    HW270585  13.383  10.913   7.735
22916SOL     OW70586  11.465   2.673  12.518
22916SOL    HW170587  11.459   2.754  12.468
22916SOL    HW270588  11.477   2.701  12.608
22917SOL     OW70589   5.418   5.285   2.726
22917SOL    HW170590   5.390   5.278   2.635
22917SOL    HW270591   5.396   5.375   2.751
22918SOL     OW70592  14.808   6.147   1.650
22918SOL    HW170593   0.008   6.096   1.635
22918SOL    HW270594  14.746   6.116   1.584
22919SOL     OW70595  13.867   7.323   5.759
22919SOL    HW170596  13.879   7.418   5.766
22919SOL    HW270597  13.846   7.308   5.667
22920SOL     OW70598   9.556   5.007   5.160
22920SOL    HW170599   9.551   5.080   5.222
22920SOL    HW270600   9.506   5.036   5.084
22921SOL     OW70601   0.277   6.721  14.189
22921SOL    HW170602   0.187   6.755  14.193
22921SOL    HW270603   0.280   6.670  14.108
22922SOL     OW70604   9.486  10.591  10.014
22922SOL    HW170605   9.462  10.573   9.923
22922SOL    HW270606   9.480  10.506  10.058
22923SOL     OW70607   1.989  13.178  10.970
22923SOL    HW170608   1.899  13.159  10.997
22923SOL    HW270609   2.012  13.107  10.910
22924SOL     OW70610  12.515  14.509   6.491
22924SOL    HW170611  12.439  14.559   6.519
22924SOL    HW270612  12.500  14.492   6.397
22925SOL     OW70613  12.167   3.407   3.316
22925SOL    HW170614  12.220   3.433   3.392
22925SOL    HW270615  12.095   3.357   3.354
22926SOL     OW70616  13.002   6.924  11.530
22926SOL    HW170617  13.093   6.894  11.528
22926SOL    HW270618  13.008   7.017  11.554
22927SOL     OW70619   1.595   6.446   7.274
22927SOL    HW170620   1.620   6.461   7.365
22927SOL    HW270621   1.678   6.437   7.227
22928SOL     OW70622  13.663  10.351  10.240
22928SOL    HW170623  13.589  10.315  10.191
22928SOL    HW270624  13.630  10.433  10.276
22929SOL     OW70625   6.946   9.096  12.715
22929SOL    HW170626   6.960   9.132  12.803
22929SOL    HW270627   7.017   9.033  12.704
22930SOL     OW70628  13.619  12.146   3.146
22930SOL    HW170629  13.704  12.103   3.158
22930SOL    HW270630  13.604  12.143   3.052
22931SOL     OW70631  12.733   9.254   1.040
22931SOL    HW170632  12.672   9.320   1.075
22931SOL    HW270633  12.677   9.182   1.012
22932SOL     OW70634  10.371   9.516   1.859
22932SOL    HW170635  10.310   9.510   1.933
22932SOL    HW270636  10.439   9.577   1.889
22933SOL     OW70637  14.225   5.733   9.118
22933SOL    HW170638  14.218   5.734   9.214
22933SOL    HW270639  14.188   5.648   9.093
22934SOL     OW70640   9.094   7.193  14.841
22934SOL    HW170641   9.109   7.283  14.872
22934SOL    HW270642   9.115   7.195  14.748
22935SOL     OW70643   1.853   1.337  11.244
22935SOL    HW170644   1.944   1.313  11.260
22935SOL    HW270645   1.802   1.273  11.293
22936SOL     OW70646   0.513  14.456   1.546
22936SOL    HW170647   0.535  14.522   1.480
22936SOL    HW270648   0.562  14.378   1.520
22937SOL     OW70649   5.954   2.820   3.733
22937SOL    HW170650   5.892   2.753   3.704
22937SOL    HW270651   6.008   2.839   3.657
22938SOL     OW70652  14.865   0.195   4.530
22938SOL    HW170653  14.872   0.109   4.572
22938SOL    HW270654  14.875   0.258   4.602
22939SOL     OW70655  12.784   9.980  12.078
22939SOL    HW170656  12.785  10.026  12.163
22939SOL    HW270657  12.793  10.050  12.014
22940SOL     OW70658   6.786   9.757   4.749
22940SOL    HW170659   6.727   9.823   4.713
22940SOL    HW270660   6.803   9.788   4.838
22941SOL     OW70661  11.861   9.868   9.976
22941SOL    HW170662  11.872   9.781  10.014
22941SOL    HW270663  11.784   9.860   9.920
22942SOL     OW70664   9.344   3.036   8.557
22942SOL    HW170665   9.355   3.110   8.617
22942SOL    HW270666   9.372   2.960   8.608
22943SOL     OW70667   7.432   2.408   2.717
22943SOL    HW170668   7.337   2.405   2.709
22943SOL    HW270669   7.453   2.339   2.780
22944SOL     OW70670   2.357   1.868   5.873
22944SOL    HW170671   2.378   1.780   5.903
22944SOL    HW270672   2.408   1.880   5.793
22945SOL     OW70673  13.057   9.032   1.165
22945SOL    HW170674  13.110   8.964   1.125
22945SOL    HW270675  13.015   8.989   1.240
22946SOL     OW70676   7.020   0.265   5.321
22946SOL    HW170677   6.985   0.327   5.386
22946SOL    HW270678   6.978   0.182   5.343
22947SOL     OW70679  10.323   8.615   9.854
22947SOL    HW170680  10.263   8.680   9.818
22947SOL    HW270681  10.388   8.601   9.785
22948SOL     OW70682   6.339   6.234  11.560
22948SOL    HW170683   6.307   6.306  11.506
22948SOL    HW270684   6.425   6.262  11.590
22949SOL     OW70685  13.144   5.899  11.559
22949SOL    HW170686  13.125   5.807  11.539
22949SOL    HW270687  13.138   5.943  11.474
22950SOL     OW70688   4.456   4.028   1.331
22950SOL    HW170689   4.395   3.971   1.377
22950SOL    HW270690   4.471   4.101   1.392
22951SOL     OW70691   7.593  14.136   6.821
22951SOL    HW170692   7.633  14.059   6.781
22951SOL    HW270693   7.566  14.191   6.747
22952SOL     OW70694   8.142   3.687   8.844
22952SOL    HW170695   8.083   3.722   8.911
22952SOL    HW270696   8.184   3.612   8.886
22953SOL     OW70697   4.494  14.178  13.362
22953SOL    HW170698   4.572  14.125  13.375
22953SOL    HW270699   4.422  14.122  13.393
22954SOL     OW70700   3.436  14.732   7.057
22954SOL    HW170701   3.375  14.675   7.105
22954SOL    HW270702   3.514  14.678   7.045
22955SOL     OW70703  13.049   7.303   3.709
22955SOL    HW170704  13.007   7.232   3.660
22955SOL    HW270705  13.140   7.274   3.720
22956SOL     OW70706  12.149  10.553   4.577
22956SOL    HW170707  12.079  10.606   4.539
22956SOL    HW270708  12.216  10.548   4.508
22957SOL     OW70709  12.185  11.994  13.851
22957SOL    HW170710  12.208  12.045  13.774
22957SOL    HW270711  12.089  11.997  13.855
22958SOL     OW70712  12.392   4.722   9.462
22958SOL    HW170713  12.331   4.789   9.430
22958SOL    HW270714  12.455   4.711   9.391
22959SOL     OW70715   4.539   4.224   6.227
22959SOL    HW170716   4.451   4.237   6.263
22959SOL    HW270717   4.532   4.145   6.173
22960SOL     OW70718   1.555   8.141   4.896
22960SOL    HW170719   1.623   8.186   4.846
22960SOL    HW270720   1.472   8.173   4.860
22961SOL     OW70721   2.836  12.553  13.984
22961SOL    HW170722   2.925  12.574  13.957
22961SOL    HW270723   2.838  12.459  14.004
22962SOL     OW70724   0.298   7.620   1.168
22962SOL    HW170725   0.386   7.589   1.188
22962SOL    HW270726   0.266   7.561   1.100
22963SOL     OW70727   6.163  10.182  13.354
22963SOL    HW170728   6.177  10.124  13.279
22963SOL    HW270729   6.229  10.156  13.418
22964SOL     OW70730   9.864  13.155  13.318
22964SOL    HW170731   9.806  13.204  13.376
22964SOL    HW270732   9.846  13.063  13.337
22965SOL     OW70733  12.945   2.013  12.082
22965SOL    HW170734  12.897   2.023  12.000
22965SOL    HW270735  12.906   2.076  12.142
22966SOL     OW70736   3.598   0.734   7.302
22966SOL    HW170737   3.651   0.720   7.224
22966SOL    HW270738   3.660   0.727   7.375
22967SOL     OW70739   7.046  14.332   9.622
22967SOL    HW170740   7.005  14.402   9.672
22967SOL    HW270741   7.106  14.290   9.683
22968SOL     OW70742  14.013   2.712   2.948
22968SOL    HW170743  14.059   2.629   2.933
22968SOL    HW270744  14.025   2.761   2.867
22969SOL     OW70745  12.300   4.527   0.870
22969SOL    HW170746  12.328   4.442   0.905
22969SOL    HW270747  12.339   4.531   0.783
22970SOL     OW70748  11.061   6.492   6.325
22970SOL    HW170749  11.032   6.560   6.264
22970SOL    HW270750  11.155   6.482   6.307
22971SOL     OW70751   0.459   2.319  13.035
22971SOL    HW170752   0.373   2.326  12.994
22971SOL    HW270753   0.447   2.359  13.122
22972SOL     OW70754   6.821   1.588   4.671
22972SOL    HW170755   6.810   1.527   4.599
22972SOL    HW270756   6.779   1.545   4.746
22973SOL     OW70757   0.690   3.935   2.068
22973SOL    HW170758   0.624   3.870   2.092
22973SOL    HW270759   0.738   3.952   2.149
22974SOL     OW70760  14.334   6.788   1.286
22974SOL    HW170761  14.251   6.761   1.326
22974SOL    HW270762  14.401   6.756   1.347
22975SOL     OW70763  12.554   1.001   5.728
22975SOL    HW170764  12.490   1.015   5.659
22975SOL    HW270765  12.561   1.086   5.772
22976SOL     OW70766   3.613  11.002   9.865
22976SOL    HW170767   3.569  10.921   9.892
22976SOL    HW270768   3.550  11.047   9.809
22977SOL     OW70769   1.851   4.974  10.471
22977SOL    HW170770   1.811   4.898  10.428
22977SOL    HW270771   1.808   5.049  10.430
22978SOL     OW70772  13.662   6.678   7.503
22978SOL    HW170773  13.643   6.769   7.481
22978SOL    HW270774  13.697   6.641   7.422
22979SOL     OW70775   6.013   6.429  11.913
22979SOL    HW170776   6.051   6.401  11.997
22979SOL    HW270777   5.949   6.361  11.893
22980SOL     OW70778   4.193   0.750  13.713
22980SOL    HW170779   4.128   0.727  13.646
22980SOL    HW270780   4.245   0.820  13.674
22981SOL     OW70781   6.705   7.909   8.871
22981SOL    HW170782   6.750   7.879   8.951
22981SOL    HW270783   6.775   7.948   8.818
22982SOL     OW70784   7.150   2.364   0.337
22982SOL    HW170785   7.066   2.330   0.307
22982SOL    HW270786   7.169   2.314   0.416
22983SOL     OW70787   5.912   0.719   3.045
22983SOL    HW170788   5.941   0.674   2.966
22983SOL    HW270789   5.816   0.712   3.042
22984SOL     OW70790  11.818   2.425   6.096
22984SOL    HW170791  11.823   2.512   6.135
22984SOL    HW270792  11.835   2.439   6.002
22985SOL     OW70793  12.411   6.127   3.076
22985SOL    HW170794  12.349   6.092   3.138
22985SOL    HW270795  12.455   6.198   3.123
22986SOL     OW70796  11.012   4.973  14.529
22986SOL    HW170797  10.934   4.938  14.572
22986SOL    HW270798  11.052   5.031  14.594
22987SOL     OW70799   3.948   2.937  11.215
22987SOL    HW170800   4.028   2.935  11.267
22987SOL    HW270801   3.877   2.938  11.279
22988SOL     OW70802   3.534   0.148   6.617
22988SOL    HW170803   3.541   0.056   6.645
22988SOL    HW270804   3.611   0.190   6.656
22989SOL     OW70805   8.938   6.783   6.564
22989SOL    HW170806   9.010   6.764   6.503
22989SOL    HW270807   8.879   6.840   6.515
22990SOL     OW70808   8.900  10.661  10.851
22990SOL    HW170809   8.991  10.664  10.820
22990SOL    HW270810   8.877  10.753  10.866
22991SOL     OW70811   1.787  10.923   8.989
22991SOL    HW170812   1.849  10.882   8.929
22991SOL    HW270813   1.732  10.978   8.934
22992SOL     OW70814   8.964   2.508   9.825
22992SOL    HW170815   9.013   2.496   9.744
22992SOL    HW270816   8.978   2.600   9.847
22993SOL     OW70817   4.373  10.081   9.780
22993SOL    HW170818   4.430  10.105   9.854
22993SOL    HW270819   4.296  10.137   9.790
22994SOL     OW70820   8.821   1.071  11.445
22994SOL    HW170821   8.856   1.008  11.507
22994SOL    HW270822   8.835   1.032  11.359
22995SOL     OW70823   5.777  12.452   0.759
22995SOL    HW170824   5.785  12.420   0.849
22995SOL    HW270825   5.866  12.477   0.735
22996SOL     OW70826   3.910   0.571  10.661
22996SOL    HW170827   3.869   0.494  10.699
22996SOL    HW270828   3.994   0.540  10.626
22997SOL     OW70829   3.491   6.539   6.213
22997SOL    HW170830   3.468   6.448   6.196
22997SOL    HW270831   3.584   6.537   6.235
22998SOL     OW70832   5.366  11.662   3.967
22998SOL    HW170833   5.410  11.726   4.022
22998SOL    HW270834   5.286  11.640   4.015
22999SOL     OW70835   0.352   0.573  10.185
22999SOL    HW170836   0.435   0.582  10.137
22999SOL    HW270837   0.376   0.523  10.263
23000SOL     OW70838  14.729   2.520   2.187
23000SOL    HW170839  14.734   2.426   2.205
23000SOL    HW270840  14.761   2.561   2.268
23001SOL     OW70841   2.911  12.382  14.390
23001SOL    HW170842   2.832  12.407  14.438
23001SOL    HW270843   2.907  12.287  14.384
23002SOL     OW70844  13.067   2.050  13.737
23002SOL    HW170845  13.062   1.954  13.735
23002SOL    HW270846  13.035   2.074  13.824
23003SOL     OW70847   5.555  12.124   4.169
23003SOL    HW170848   5.635  12.091   4.210
23003SOL    HW270849   5.492  12.129   4.240
23004SOL     OW70850  11.488  14.455   5.059
23004SOL    HW170851  11.401  14.495   5.058
23004SOL    HW270852  11.481  14.384   5.122
23005SOL     OW70853   3.909   0.127  13.565
23005SOL    HW170854   3.864   0.193  13.513
23005SOL    HW270855   3.839   0.076  13.605
23006SOL     OW70856   3.050  13.683   4.550
23006SOL    HW170857   2.960  13.695   4.579
23006SOL    HW270858   3.045  13.616   4.482
23007SOL     OW70859   5.573   5.600  13.786
23007SOL    HW170860   5.502   5.624  13.727
23007SOL    HW270861   5.652   5.626  13.739
23008SOL     OW70862   8.261   1.337   3.320
23008SOL    HW170863   8.244   1.310   3.230
23008SOL    HW270864   8.174   1.357   3.355
23009SOL     OW70865  12.730  10.226   2.774
23009SOL    HW170866  12.766  10.222   2.863
23009SOL    HW270867  12.716  10.319   2.758
23010SOL     OW70868   8.152   9.889   9.652
23010SOL    HW170869   8.058   9.871   9.646
23010SOL    HW270870   8.177   9.916   9.564
23011SOL     OW70871  12.818  13.233   8.926
23011SOL    HW170872  12.866  13.290   8.986
23011SOL    HW270873  12.739  13.208   8.973
23012SOL     OW70874  13.628  13.087   4.377
23012SOL    HW170875  13.662  13.025   4.313
23012SOL    HW270876  13.642  13.173   4.338
23013SOL     OW70877   2.416  10.090   2.411
23013SOL    HW170878   2.511  10.078   2.417
23013SOL    HW270879   2.383  10.006   2.380
23014SOL     OW70880   6.081   6.705  11.955
23014SOL    HW170881   6.074   6.610  11.957
23014SOL    HW270882   6.058   6.733  12.044
23015SOL     OW70883  12.025  14.256  12.778
23015SOL    HW170884  11.947  14.209  12.809
23015SOL    HW270885  11.995  14.346  12.765
23016SOL     OW70886   7.688   8.110   5.632
23016SOL    HW170887   7.675   8.112   5.727
23016SOL    HW270888   7.600   8.099   5.596
23017SOL     OW70889   9.700  12.876  10.358
23017SOL    HW170890   9.721  12.932  10.283
23017SOL    HW270891   9.648  12.805  10.322
23018SOL     OW70892   2.927   1.665  14.438
23018SOL    HW170893   2.986   1.590  14.444
23018SOL    HW270894   2.907   1.687  14.529
23019SOL     OW70895   9.120  12.188  12.175
23019SOL    HW170896   9.044  12.180  12.118
23019SOL    HW270897   9.165  12.267  12.145
23020SOL     OW70898   3.700   5.593  10.106
23020SOL    HW170899   3.714   5.602  10.012
23020SOL    HW270900   3.723   5.502  10.125
23021SOL     OW70901   7.104   4.733   8.924
23021SOL    HW170902   7.022   4.758   8.880
23021SOL    HW270903   7.093   4.764   9.014
23022SOL     OW70904   6.497   5.013   3.541
23022SOL    HW170905   6.542   4.928   3.537
23022SOL    HW270906   6.422   4.996   3.598
23023SOL     OW70907   9.016   1.034   2.178
23023SOL    HW170908   8.947   1.095   2.152
23023SOL    HW270909   8.975   0.948   2.177
23024SOL     OW70910   2.305   2.104  10.577
23024SOL    HW170911   2.273   2.181  10.623
23024SOL    HW270912   2.304   2.130  10.484
23025SOL     OW70913   4.548  12.127   9.617
23025SOL    HW170914   4.488  12.155   9.548
23025SOL    HW270915   4.614  12.196   9.621
23026SOL     OW70916   2.096  11.931   4.422
23026SOL    HW170917   2.102  11.838   4.402
23026SOL    HW270918   2.004  11.953   4.407
23027SOL     OW70919   0.586   3.901   6.878
23027SOL    HW170920   0.585   3.805   6.876
23027SOL    HW270921   0.569   3.928   6.788
23028SOL     OW70922   0.466  11.979   2.450
23028SOL    HW170923   0.446  11.908   2.511
23028SOL    HW270924   0.559  11.996   2.461
23029SOL     OW70925  11.270   7.222   2.232
23029SOL    HW170926  11.262   7.312   2.201
23029SOL    HW270927  11.241   7.168   2.158
23030SOL     OW70928   2.031  11.806   0.898
23030SOL    HW170929   1.966  11.873   0.921
23030SOL    HW270930   2.081  11.845   0.826
23031SOL     OW70931   8.094  14.555   5.709
23031SOL    HW170932   8.007  14.595   5.711
23031SOL    HW270933   8.112  14.533   5.800
23032SOL     OW70934  12.877   8.659   7.529
23032SOL    HW170935  12.898   8.578   7.483
23032SOL    HW270936  12.791   8.684   7.496
23033SOL     OW70937  12.752   8.704   5.328
23033SOL    HW170938  12.690   8.777   5.334
23033SOL    HW270939  12.716   8.647   5.260
23034SOL     OW70940   2.606   1.561   2.392
23034SOL    HW170941   2.699   1.557   2.370
23034SOL    HW270942   2.563   1.509   2.325
23035SOL     OW70943   4.764   9.589   8.193
23035SOL    HW170944   4.800   9.576   8.106
23035SOL    HW270945   4.675   9.620   8.178
23036SOL     OW70946   9.898   6.496  10.541
23036SOL    HW170947   9.817   6.446  10.548
23036SOL    HW270948   9.886   6.569  10.602
23037SOL     OW70949   4.397   9.081   2.241
23037SOL    HW170950   4.344   9.157   2.222
23037SOL    HW270951   4.466   9.082   2.174
23038SOL     OW70952   3.892   6.173  14.189
23038SOL    HW170953   3.908   6.146  14.279
23038SOL    HW270954   3.816   6.121  14.161
23039SOL     OW70955  11.645   7.201  10.349
23039SOL    HW170956  11.676   7.156  10.428
23039SOL    HW270957  11.598   7.278  10.382
23040SOL     OW70958   2.560  11.608   2.770
23040SOL    HW170959   2.611  11.532   2.799
23040SOL    HW270960   2.500  11.626   2.842
23041SOL     OW70961   4.879   3.430   3.602
23041SOL    HW170962   4.971   3.406   3.606
23041SOL    HW270963   4.850   3.433   3.693
23042SOL     OW70964   9.163   1.498   5.340
23042SOL    HW170965   9.085   1.551   5.360
23042SOL    HW270966   9.143   1.413   5.378
23043SOL     OW70967  11.115   1.087   2.800
23043SOL    HW170968  11.198   1.127   2.771
23043SOL    HW270969  11.129   1.068   2.892
23044SOL     OW70970  10.472  12.682   7.851
23044SOL    HW170971  10.545  12.631   7.817
23044SOL    HW270972  10.506  12.771   7.858
23045SOL     OW70973   8.647   6.055  12.646
23045SOL    HW170974   8.733   6.017  12.630
23045SOL    HW270975   8.597   5.984  12.687
23046SOL     OW70976   4.905   7.234   1.318
23046SOL    HW170977   4.811   7.216   1.321
23046SOL    HW270978   4.942   7.177   1.385
23047SOL     OW70979   5.201  13.658  14.602
23047SOL    HW170980   5.129  13.597  14.615
23047SOL    HW270981   5.178  13.706  14.522
23048SOL     OW70982   4.557   3.628  13.762
23048SOL    HW170983   4.524   3.543  13.732
23048SOL    HW270984   4.619   3.655  13.694
23049SOL     OW70985   1.293  12.891   8.822
23049SOL    HW170986   1.297  12.928   8.734
23049SOL    HW270987   1.227  12.822   8.817
23050SOL     OW70988   0.851   5.909   5.276
23050SOL    HW170989   0.872   6.001   5.261
23050SOL    HW270990   0.916   5.878   5.339
23051SOL     OW70991  10.629   5.610  10.637
23051SOL    HW170992  10.581   5.657  10.705
23051SOL    HW270993  10.588   5.637  10.555
23052SOL     OW70994   4.237   8.077   4.831
23052SOL    HW170995   4.267   8.075   4.922
23052SOL    HW270996   4.198   8.163   4.820
23053SOL     OW70997   5.545   2.243   6.404
23053SOL    HW170998   5.572   2.313   6.345
23053SOL    HW270999   5.593   2.166   6.374
23054SOL     OW71000   9.487  11.953   9.012
23054SOL    HW171001   9.514  11.862   9.003
23054SOL    HW271002   9.534  12.000   8.942
23055SOL     OW71003   5.050   6.626   2.447
23055SOL    HW171004   5.021   6.540   2.475
23055SOL    HW271005   4.970   6.669   2.415
23056SOL     OW71006  10.223   7.974   2.535
23056SOL    HW171007  10.264   7.979   2.449
23056SOL    HW271008  10.133   7.947   2.517
23057SOL     OW71009   7.378   1.856  10.992
23057SOL    HW171010   7.411   1.918  11.057
23057SOL    HW271011   7.410   1.771  11.021
23058SOL     OW71012   9.321   1.213   8.244
23058SOL    HW171013   9.288   1.256   8.323
23058SOL    HW271014   9.412   1.191   8.265
23059SOL     OW71015  10.164  10.478   3.030
23059SOL    HW171016  10.130  10.487   2.940
23059SOL    HW271017  10.150  10.385   3.050
23060SOL     OW71018   5.757   8.438   7.836
23060SOL    HW171019   5.756   8.386   7.916
23060SOL    HW271020   5.843   8.479   7.835
23061SOL     OW71021   7.559   2.330   3.117
23061SOL    HW171022   7.552   2.276   3.196
23061SOL    HW271023   7.645   2.371   3.123
23062SOL     OW71024   3.039   1.083   5.836
23062SOL    HW171025   3.096   1.027   5.888
23062SOL    HW271026   3.066   1.069   5.746
23063SOL     OW71027  10.575   0.459   6.782
23063SOL    HW171028  10.612   0.537   6.739
23063SOL    HW271029  10.608   0.465   6.872
23064SOL     OW71030  12.648   3.824  13.253
23064SOL    HW171031  12.643   3.735  13.289
23064SOL    HW271032  12.575   3.870  13.292
23065SOL     OW71033   4.071   5.328   2.290
23065SOL    HW171034   4.022   5.364   2.364
23065SOL    HW271035   4.158   5.309   2.326
23066SOL     OW71036   2.316   7.007   5.486
23066SOL    HW171037   2.286   6.923   5.453
23066SOL    HW271038   2.252   7.030   5.554
23067SOL     OW71039   2.972   0.266  12.235
23067SOL    HW171040   2.976   0.181  12.279
23067SOL    HW271041   3.044   0.263  12.172
23068SOL     OW71042   3.328   9.764   8.438
23068SOL    HW171043   3.325   9.751   8.533
23068SOL    HW271044   3.241   9.799   8.416
23069SOL     OW71045   1.297   6.279  12.396
23069SOL    HW171046   1.353   6.210  12.360
23069SOL    HW271047   1.359   6.344  12.429
23070SOL     OW71048  11.395   4.104   9.254
23070SOL    HW171049  11.391   4.144   9.167
23070SOL    HW271050  11.469   4.044   9.249
23071SOL     OW71051   2.473   3.389   4.527
23071SOL    HW171052   2.487   3.370   4.434
23071SOL    HW271053   2.432   3.475   4.528
23072SOL     OW71054  13.603   6.728  13.867
23072SOL    HW171055  13.583   6.784  13.791
23072SOL    HW271056  13.695   6.704  13.855
23073SOL     OW71057  12.591   9.918   9.984
23073SOL    HW171058  12.505   9.878   9.996
23073SOL    HW271059  12.578   9.984   9.916
23074SOL     OW71060   4.858  12.678   0.954
23074SOL    HW171061   4.938  12.630   0.975
23074SOL    HW271062   4.830  12.644   0.870
23075SOL     OW71063   3.732  11.870  12.452
23075SOL    HW171064   3.690  11.787  12.430
23075SOL    HW271065   3.776  11.853  12.536
23076SOL     OW71066   3.718   6.885   5.275
23076SOL    HW171067   3.645   6.946   5.262
23076SOL    HW271068   3.712   6.825   5.201
23077SOL     OW71069  12.835   3.784  12.305
23077SOL    HW171070  12.913   3.811  12.354
23077SOL    HW271071  12.788   3.866  12.287
23078SOL     OW71072   9.861   3.936  13.562
23078SOL    HW171073   9.943   3.944  13.612
23078SOL    HW271074   9.796   3.981  13.615
23079SOL     OW71075   5.292  11.991   7.600
23079SOL    HW171076   5.267  11.899   7.600
23079SOL    HW271077   5.373  11.995   7.651
23080SOL     OW71078   2.810   5.360   8.030
23080SOL    HW171079   2.792   5.269   8.005
23080SOL    HW271080   2.742   5.411   7.986
23081SOL     OW71081  10.552   6.161  12.815
23081SOL    HW171082  10.466   6.137  12.850
23081SOL    HW271083  10.546   6.142  12.721
23082SOL     OW71084  14.691   4.354   6.122
23082SOL    HW171085  14.758   4.300   6.164
23082SOL    HW271086  14.614   4.343   6.178
23083SOL     OW71087   4.983   9.739   3.906
23083SOL    HW171088   5.009   9.650   3.881
23083SOL    HW271089   5.047   9.796   3.864
23084SOL     OW71090   0.452  10.279   0.468
23084SOL    HW171091   0.500  10.312   0.544
23084SOL    HW271092   0.482  10.334   0.395
23085SOL     OW71093  10.991  13.818  11.391
23085SOL    HW171094  10.946  13.899  11.417
23085SOL    HW271095  10.937  13.783  11.320
23086SOL     OW71096  13.207  14.674   9.431
23086SOL    HW171097  13.159  14.656   9.511
23086SOL    HW271098  13.188  14.598   9.374
23087SOL     OW71099   2.284   1.539   7.436
23087SOL    HW171100   2.333   1.614   7.471
23087SOL    HW271101   2.218   1.579   7.379
23088SOL     OW71102   7.464   7.219   6.957
23088SOL    HW171103   7.390   7.214   7.018
23088SOL    HW271104   7.498   7.309   6.967
23089SOL     OW71105   0.192  11.399  11.070
23089SOL    HW171106   0.160  11.455  10.999
23089SOL    HW271107   0.287  11.397  11.057
23090SOL     OW71108   4.927  12.729   5.508
23090SOL    HW171109   4.928  12.825   5.501
23090SOL    HW271110   4.929  12.711   5.602
23091SOL     OW71111   5.895  10.568   0.489
23091SOL    HW171112   5.919  10.638   0.427
23091SOL    HW271113   5.824  10.605   0.540
23092SOL     OW71114   7.605   5.730   3.512
23092SOL    HW171115   7.691   5.688   3.507
23092SOL    HW271116   7.623   5.823   3.500
23093SOL     OW71117   7.618  13.260   8.363
23093SOL    HW171118   7.528  13.261   8.329
23093SOL    HW271119   7.608  13.280   8.456
23094SOL     OW71120  14.119  13.331   4.544
23094SOL    HW171121  14.024  13.320   4.548
23094SOL    HW271122  14.141  13.381   4.622
23095SOL     OW71123   3.724   8.841   7.120
23095SOL    HW171124   3.814   8.849   7.153
23095SOL    HW271125   3.734   8.834   7.025
23096SOL     OW71126   9.435   7.064  14.326
23096SOL    HW171127   9.395   7.133  14.379
23096SOL    HW271128   9.361   7.019  14.285
23097SOL     OW71129   0.346  10.058  13.485
23097SOL    HW171130   0.438  10.083  13.491
23097SOL    HW271131   0.348   9.964  13.466
23098SOL     OW71132   7.242   9.004  13.023
23098SOL    HW171133   7.283   8.922  12.993
23098SOL    HW271134   7.170   8.975  13.078
23099SOL     OW71135   8.876   2.803   4.215
23099SOL    HW171136   8.836   2.804   4.302
23099SOL    HW271137   8.874   2.894   4.186
23100SOL     OW71138  14.257  10.361  12.941
23100SOL    HW171139  14.237  10.454  12.948
23100SOL    HW271140  14.209  10.332  12.863
23101SOL     OW71141   9.264  14.524  12.642
23101SOL    HW171142   9.283  14.460  12.711
23101SOL    HW271143   9.338  14.585  12.646
23102SOL     OW71144   6.548  14.716   8.863
23102SOL    HW171145   6.559  14.811   8.858
23102SOL    HW271146   6.456  14.704   8.884
23103SOL     OW71147   0.723   4.754   6.948
23103SOL    HW171148   0.629   4.768   6.953
23103SOL    HW271149   0.741   4.689   7.016
23104SOL     OW71150  13.098  14.546   8.333
23104SOL    HW171151  13.150  14.493   8.272
23104SOL    HW271152  13.152  14.623   8.351
23105SOL     OW71153   4.490   8.510  13.985
23105SOL    HW171154   4.521   8.591  13.944
23105SOL    HW271155   4.558   8.487  14.048
23106SOL     OW71156   0.227   9.401  11.396
23106SOL    HW171157   0.139   9.386  11.362
23106SOL    HW271158   0.240   9.333  11.462
23107SOL     OW71159   8.661  13.988   5.246
23107SOL    HW171160   8.688  14.032   5.166
23107SOL    HW271161   8.632  14.058   5.304
23108SOL     OW71162   0.427   8.082   2.490
23108SOL    HW171163   0.420   8.126   2.405
23108SOL    HW271164   0.412   8.152   2.554
23109SOL     OW71165   8.486   6.579  11.346
23109SOL    HW171166   8.536   6.502  11.372
23109SOL    HW271167   8.507   6.592  11.253
23110SOL     OW71168  11.400  12.034  12.836
23110SOL    HW171169  11.479  12.087  12.837
23110SOL    HW271170  11.424  11.955  12.787
23111SOL     OW71171   0.401  10.511  12.923
23111SOL    HW171172   0.346  10.439  12.952
23111SOL    HW271173   0.491  10.479  12.936
23112SOL     OW71174   1.483   3.986   2.444
23112SOL    HW171175   1.527   4.071   2.440
23112SOL    HW271176   1.521   3.936   2.372
23113SOL     OW71177   0.562  10.789   4.956
23113SOL    HW171178   0.541  10.788   5.049
23113SOL    HW271179   0.656  10.805   4.952
23114SOL     OW71180   0.291  12.919   8.934
23114SOL    HW171181   0.287  12.828   8.963
23114SOL    HW271182   0.385  12.940   8.935
23115SOL     OW71183   3.060   8.595   8.254
23115SOL    HW171184   3.139   8.595   8.201
23115SOL    HW271185   3.057   8.509   8.294
23116SOL     OW71186   0.893  14.524  14.526
23116SOL    HW171187   0.944  14.474  14.589
23116SOL    HW271188   0.957  14.561  14.466
23117SOL     OW71189   7.291  14.282   8.428
23117SOL    HW171190   7.265  14.194   8.454
23117SOL    HW271191   7.333  14.320   8.505
23118SOL     OW71192   7.412  12.309   3.303
23118SOL    HW171193   7.414  12.215   3.283
23118SOL    HW271194   7.489  12.344   3.258
23119SOL     OW71195  11.500  12.163   3.254
23119SOL    HW171196  11.430  12.165   3.189
23119SOL    HW271197  11.482  12.085   3.306
23120SOL     OW71198  13.507   5.144   5.577
23120SOL    HW171199  13.501   5.213   5.511
23120SOL    HW271200  13.566   5.179   5.643
23121SOL     OW71201   4.040   7.284   9.107
23121SOL    HW171202   3.988   7.295   9.027
23121SOL    HW271203   3.979   7.302   9.178
23122SOL     OW71204  12.963   0.854  13.648
23122SOL    HW171205  12.906   0.831  13.575
23122SOL    HW271206  13.012   0.773  13.667
23123SOL     OW71207   7.571   6.776   6.023
23123SOL    HW171208   7.661   6.750   6.044
23123SOL    HW271209   7.581   6.845   5.957
23124SOL     OW71210   3.731  11.789  11.497
23124SOL    HW171211   3.822  11.769  11.518
23124SOL    HW271212   3.733  11.822  11.408
23125SOL     OW71213   3.354   4.330   4.300
23125SOL    HW171214   3.298   4.405   4.279
23125SOL    HW271215   3.302   4.254   4.273
23126SOL     OW71216  11.885  10.029   0.113
23126SOL    HW171217  11.958  10.053   0.056
23126SOL    HW271218  11.912   9.945   0.151
23127SOL     OW71219   2.889   9.935   1.515
23127SOL    HW171220   2.924   9.986   1.587
23127SOL    HW271221   2.799   9.967   1.504
23128SOL     OW71222  13.416  12.896   2.153
23128SOL    HW171223  13.462  12.978   2.134
23128SOL    HW271224  13.484  12.838   2.187
23129SOL     OW71225  11.555  14.658   9.354
23129SOL    HW171226  11.502  14.727   9.315
23129SOL    HW271227  11.520  14.577   9.316
23130SOL     OW71228  14.348   7.205   1.324
23130SOL    HW171229  14.298   7.124   1.313
23130SOL    HW271230  14.433   7.186   1.284
23131SOL     OW71231   9.407   8.156  12.816
23131SOL    HW171232   9.357   8.076  12.797
23131SOL    HW271233   9.388   8.175  12.908
23132SOL     OW71234   6.363  12.518   9.871
23132SOL    HW171235   6.365  12.576   9.947
23132SOL    HW271236   6.326  12.572   9.801
23133SOL     OW71237  13.492   6.304   9.986
23133SOL    HW171238  13.501   6.210   9.966
23133SOL    HW271239  13.527   6.313  10.074
23134SOL     OW71240   2.976   4.761   6.661
23134SOL    HW171241   3.029   4.741   6.738
23134SOL    HW271242   2.970   4.678   6.613
23135SOL     OW71243  12.101  12.655   4.534
23135SOL    HW171244  12.049  12.735   4.547
23135SOL    HW271245  12.150  12.672   4.453
23136SOL     OW71246  10.989   2.658   3.777
23136SOL    HW171247  11.004   2.682   3.685
23136SOL    HW271248  11.062   2.698   3.824
23137SOL     OW71249  14.434  14.771   8.396
23137SOL    HW171250  14.530  14.769   8.395
23137SOL    HW271251  14.411  14.846   8.340
23138SOL     OW71252  12.954   6.494   0.342
23138SOL    HW171253  12.938   6.509   0.249
23138SOL    HW271254  13.009   6.416   0.344
23139SOL     OW71255  14.351  13.286   3.888
23139SOL    HW171256  14.293  13.317   3.819
23139SOL    HW271257  14.299  13.220   3.934
23140SOL     OW71258  11.792   0.320   9.630
23140SOL    HW171259  11.846   0.241   9.634
23140SOL    HW271260  11.739   0.309   9.551
23141SOL     OW71261   2.623  12.965   2.725
23141SOL    HW171262   2.541  12.920   2.706
23141SOL    HW271263   2.609  13.055   2.694
23142SOL     OW71264   4.948   3.885   6.704
23142SOL    HW171265   4.917   3.974   6.723
23142SOL    HW271266   5.026   3.898   6.651
23143SOL     OW71267   8.101   4.655  13.307
23143SOL    HW171268   8.175   4.630  13.252
23143SOL    HW271269   8.108   4.600  13.385
23144SOL     OW71270  13.001   4.078   8.805
23144SOL    HW171271  12.949   3.998   8.797
23144SOL    HW271272  12.953   4.143   8.753
23145SOL     OW71273  13.303   2.823  14.340
23145SOL    HW171274  13.244   2.886  14.300
23145SOL    HW271275  13.247   2.748  14.363
23146SOL     OW71276   2.859  12.103   1.242
23146SOL    HW171277   2.870  12.112   1.336
23146SOL    HW271278   2.797  12.031   1.232
23147SOL     OW71279   5.367   2.008   4.954
23147SOL    HW171280   5.398   1.984   5.041
23147SOL    HW271281   5.360   2.103   4.957
23148SOL     OW71282   0.763  13.416   7.084
23148SOL    HW171283   0.692  13.444   7.142
23148SOL    HW271284   0.721  13.355   7.023
23149SOL     OW71285   2.661  13.199   3.551
23149SOL    HW171286   2.672  13.189   3.456
23149SOL    HW271287   2.602  13.127   3.575
23150SOL     OW71288  12.240  13.261   1.084
23150SOL    HW171289  12.282  13.191   1.034
23150SOL    HW271290  12.308  13.327   1.094
23151SOL     OW71291   9.333   8.765   5.365
23151SOL    HW171292   9.333   8.676   5.329
23151SOL    HW271293   9.335   8.822   5.288
23152SOL     OW71294  13.149   7.435   5.533
23152SOL    HW171295  13.213   7.409   5.467
23152SOL    HW271296  13.065   7.433   5.487
23153SOL     OW71297  13.065   8.482   8.183
23153SOL    HW171298  13.050   8.546   8.113
23153SOL    HW271299  13.021   8.403   8.153
23154SOL     OW71300  12.866   8.104  14.537
23154SOL    HW171301  12.813   8.126  14.613
23154SOL    HW271302  12.861   8.009  14.531
23155SOL     OW71303   3.444   1.627   7.338
23155SOL    HW171304   3.381   1.688   7.300
23155SOL    HW271305   3.396   1.545   7.345
23156SOL     OW71306   7.867   0.857  10.162
23156SOL    HW171307   7.877   0.806  10.081
23156SOL    HW271308   7.849   0.791  10.229
23157SOL     OW71309   4.000  13.806   2.411
23157SOL    HW171310   3.913  13.768   2.403
23157SOL    HW271311   4.048  13.746   2.468
23158SOL     OW71312   9.847  13.015   9.779
23158SOL    HW171313   9.895  13.080   9.832
23158SOL    HW271314   9.848  13.051   9.690
23159SOL     OW71315  13.426   2.343   1.523
23159SOL    HW171316  13.493   2.371   1.584
23159SOL    HW271317  13.348   2.331   1.577
23160SOL     OW71318   9.517  12.641   3.019
23160SOL    HW171319   9.502  12.613   2.928
23160SOL    HW271320   9.438  12.614   3.065
23161SOL     OW71321   9.742  13.570   8.078
23161SOL    HW171322   9.789  13.523   8.146
23161SOL    HW271323   9.803  13.573   8.004
23162SOL     OW71324   5.019  10.472   9.524
23162SOL    HW171325   4.980  10.385   9.529
23162SOL    HW271326   5.080  10.467   9.451
23163SOL     OW71327   5.305  13.093  10.491
23163SOL    HW171328   5.386  13.104  10.542
23163SOL    HW271329   5.271  13.181  10.479
23164SOL     OW71330   9.780   5.649   4.608
23164SOL    HW171331   9.754   5.557   4.602
23164SOL    HW271332   9.860   5.654   4.556
23165SOL     OW71333  13.477   2.039   3.711
23165SOL    HW171334  13.468   2.088   3.793
23165SOL    HW271335  13.412   1.969   3.717
23166SOL     OW71336   4.604  12.732   5.729
23166SOL    HW171337   4.564  12.811   5.694
23166SOL    HW271338   4.536  12.692   5.784
23167SOL     OW71339   4.977   1.948   1.537
23167SOL    HW171340   4.967   1.944   1.442
23167SOL    HW271341   4.978   1.857   1.566
23168SOL     OW71342   9.079   6.774  12.216
23168SOL    HW171343   9.103   6.865  12.197
23168SOL    HW271344   8.998   6.760  12.168
23169SOL     OW71345   9.618  13.256  14.376
23169SOL    HW171346   9.540  13.259  14.433
23169SOL    HW271347   9.613  13.171  14.334
23170SOL     OW71348   5.574  12.136   5.267
23170SOL    HW171349   5.578  12.046   5.299
23170SOL    HW271350   5.492  12.170   5.302
23171SOL     OW71351   4.189   3.195   0.398
23171SOL    HW171352   4.195   3.175   0.491
23171SOL    HW271353   4.095   3.194   0.380
23172SOL     OW71354   3.408  14.835  12.076
23172SOL    HW171355   3.371   0.043  12.092
23172SOL    HW271356   3.332  14.777  12.071
23173SOL     OW71357   0.798   3.275  14.425
23173SOL    HW171358   0.824   3.189  14.458
23173SOL    HW271359   0.779   3.326  14.503
23174SOL     OW71360  11.254  13.370  13.312
23174SOL    HW171361  11.159  13.381  13.317
23174SOL    HW271362  11.266  13.282  13.277
23175SOL     OW71363   7.776   7.860  10.608
23175SOL    HW171364   7.688   7.890  10.632
23175SOL    HW271365   7.766   7.826  10.519
23176SOL     OW71366  11.617  13.189  10.431
23176SOL    HW171367  11.556  13.120  10.405
23176SOL    HW271368  11.692  13.143  10.469
23177SOL     OW71369   5.470   3.374   9.143
23177SOL    HW171370   5.503   3.391   9.231
23177SOL    HW271371   5.500   3.449   9.091
23178SOL     OW71372   3.392   0.243   2.466
23178SOL    HW171373   3.333   0.318   2.454
23178SOL    HW271374   3.357   0.199   2.544
23179SOL     OW71375  14.281  11.985   9.776
23179SOL    HW171376  14.258  11.944   9.692
23179SOL    HW271377  14.309  11.911   9.831
23180SOL     OW71378   3.959   1.412  14.568
23180SOL    HW171379   3.946   1.507  14.567
23180SOL    HW271380   4.054   1.401  14.570
23181SOL     OW71381   1.691  13.588   5.162
23181SOL    HW171382   1.713  13.573   5.254
23181SOL    HW271383   1.598  13.566   5.155
23182SOL     OW71384   0.008   5.707   7.872
23182SOL    HW171385   0.034   5.797   7.852
23182SOL    HW271386   0.077   5.676   7.931
23183SOL     OW71387  10.572   1.052   9.594
23183SOL    HW171388  10.632   1.090   9.658
23183SOL    HW271389  10.562   1.120   9.528
23184SOL     OW71390   6.246  11.922   9.885
23184SOL    HW171391   6.220  12.005   9.926
23184SOL    HW271392   6.176  11.861   9.908
23185SOL     OW71393  10.601  12.543   7.580
23185SOL    HW171394  10.643  12.467   7.619
23185SOL    HW271395  10.673  12.605   7.564
23186SOL     OW71396   1.879   3.578   5.097
23186SOL    HW171397   1.830   3.501   5.124
23186SOL    HW271398   1.893   3.628   5.178
23187SOL     OW71399   0.935   7.733   4.083
23187SOL    HW171400   0.981   7.809   4.047
23187SOL    HW271401   0.961   7.660   4.028
23188SOL     OW71402  13.122  11.349   7.833
23188SOL    HW171403  13.033  11.356   7.798
23188SOL    HW271404  13.111  11.352   7.928
23189SOL     OW71405   7.131   3.247   1.050
23189SOL    HW171406   7.144   3.171   0.993
23189SOL    HW271407   7.125   3.321   0.990
23190SOL     OW71408   0.178   3.413   5.384
23190SOL    HW171409   0.129   3.480   5.337
23190SOL    HW271410   0.242   3.380   5.321
23191SOL     OW71411   0.540   5.918  12.297
23191SOL    HW171412   0.504   5.976  12.230
23191SOL    HW271413   0.592   5.976  12.353
23192SOL     OW71414   8.451   2.930   3.416
23192SOL    HW171415   8.464   2.884   3.333
23192SOL    HW271416   8.514   3.002   3.414
23193SOL     OW71417   6.596  11.541   4.928
23193SOL    HW171418   6.662  11.603   4.897
23193SOL    HW271419   6.550  11.588   4.997
23194SOL     OW71420   4.744   0.958   5.382
23194SOL    HW171421   4.700   0.937   5.300
23194SOL    HW271422   4.790   1.040   5.365
23195SOL     OW71423   5.171  13.841   1.734
23195SOL    HW171424   5.202  13.789   1.659
23195SOL    HW271425   5.103  13.786   1.774
23196SOL     OW71426  13.290   3.663   4.396
23196SOL    HW171427  13.195   3.670   4.402
23196SOL    HW271428  13.305   3.610   4.317
23197SOL     OW71429   4.494   7.976  12.354
23197SOL    HW171430   4.438   7.924  12.296
23197SOL    HW271431   4.518   8.052  12.301
23198SOL     OW71432  11.502   9.079   8.655
23198SOL    HW171433  11.444   9.105   8.583
23198SOL    HW271434  11.568   9.024   8.614
23199SOL     OW71435   1.476  11.035  13.030
23199SOL    HW171436   1.446  10.953  12.990
23199SOL    HW271437   1.540  11.007  13.096
23200SOL     OW71438  13.567   5.458   5.039
23200SOL    HW171439  13.575   5.536   5.093
23200SOL    HW271440  13.507   5.484   4.969
23201SOL     OW71441   9.861   5.363   5.931
23201SOL    HW171442   9.952   5.377   5.959
23201SOL    HW271443   9.863   5.374   5.836
23202SOL     OW71444   3.180  12.660   2.873
23202SOL    HW171445   3.207  12.678   2.783
23202SOL    HW271446   3.085  12.648   2.868
23203SOL     OW71447   2.471   5.070   3.462
23203SOL    HW171448   2.395   5.020   3.493
23203SOL    HW271449   2.488   5.133   3.532
23204SOL     OW71450   4.669  11.782  12.393
23204SOL    HW171451   4.660  11.869  12.431
23204SOL    HW271452   4.733  11.737  12.450
23205SOL     OW71453   8.213   6.521   3.603
23205SOL    HW171454   8.154   6.580   3.556
23205SOL    HW271455   8.245   6.461   3.536
23206SOL     OW71456  11.081   7.411   0.552
23206SOL    HW171457  11.071   7.350   0.624
23206SOL    HW271458  11.153   7.469   0.578
23207SOL     OW71459   5.891  10.993  12.661
23207SOL    HW171460   5.810  10.945  12.676
23207SOL    HW271461   5.954  10.953  12.722
23208SOL     OW71462   5.495  11.126   4.759
23208SOL    HW171463   5.587  11.144   4.778
23208SOL    HW271464   5.454  11.212   4.752
23209SOL     OW71465  13.696   8.934   3.140
23209SOL    HW171466  13.672   8.901   3.053
23209SOL    HW271467  13.792   8.933   3.140
23210SOL     OW71468  14.407  10.437   8.698
23210SOL    HW171469  14.439  10.348   8.713
23210SOL    HW271470  14.345  10.453   8.770
23211SOL     OW71471   3.517   2.761  13.401
23211SOL    HW171472   3.479   2.760  13.313
23211SOL    HW271473   3.590   2.823  13.395
23212SOL     OW71474   4.876  13.657   2.874
23212SOL    HW171475   4.883  13.732   2.933
23212SOL    HW271476   4.784  13.659   2.845
23213SOL     OW71477  10.949   4.883   2.968
23213SOL    HW171478  10.870   4.828   2.963
23213SOL    HW271479  10.933   4.940   3.043
23214SOL     OW71480   8.158   0.931   5.153
23214SOL    HW171481   8.218   0.992   5.111
23214SOL    HW271482   8.164   0.851   5.100
23215SOL     OW71483   5.423   2.838   6.390
23215SOL    HW171484   5.361   2.831   6.463
23215SOL    HW271485   5.507   2.812   6.427
23216SOL     OW71486  13.696   3.902   9.026
23216SOL    HW171487  13.738   3.831   8.977
23216SOL    HW271488  13.716   3.882   9.118
23217SOL     OW71489   5.727   3.681   0.106
23217SOL    HW171490   5.737   3.747   0.175
23217SOL    HW271491   5.815   3.648   0.092
23218SOL     OW71492   7.632   4.160   5.610
23218SOL    HW171493   7.692   4.154   5.684
23218SOL    HW271494   7.545   4.160   5.648
23219SOL     OW71495   7.017   0.938  12.871
23219SOL    HW171496   7.079   0.878  12.912
23219SOL    HW271497   7.013   1.013  12.930
23220SOL     OW71498   8.875  11.361   4.021
23220SOL    HW171499   8.800  11.315   4.059
23220SOL    HW271500   8.859  11.361   3.927
23221SOL     OW71501  13.614   1.258   0.645
23221SOL    HW171502  13.624   1.323   0.576
23221SOL    HW271503  13.697   1.260   0.693
23222SOL     OW71504   8.197   0.802   7.668
23222SOL    HW171505   8.188   0.880   7.614
23222SOL    HW271506   8.142   0.737   7.625
23223SOL     OW71507   2.560   3.974   0.051
23223SOL    HW171508   2.643   3.986   0.098
23223SOL    HW271509   2.548   3.879   0.047
23224SOL     OW71510   6.376   8.925   4.132
23224SOL    HW171511   6.430   8.925   4.053
23224SOL    HW271512   6.431   8.883   4.198
23225SOL     OW71513   9.450   5.116   0.193
23225SOL    HW171514   9.546   5.118   0.182
23225SOL    HW271515   9.419   5.068   0.116
23226SOL     OW71516   7.805   4.771   9.344
23226SOL    HW171517   7.896   4.766   9.371
23226SOL    HW271518   7.782   4.681   9.320
23227SOL     OW71519  14.074   5.283   7.790
23227SOL    HW171520  14.092   5.294   7.883
23227SOL    HW271521  14.057   5.189   7.779
23228SOL     OW71522  12.234   3.443   0.371
23228SOL    HW171523  12.246   3.537   0.363
23228SOL    HW271524  12.147   3.427   0.334
23229SOL     OW71525   9.961   6.445  14.403
23229SOL    HW171526   9.927   6.461  14.315
23229SOL    HW271527   9.938   6.524  14.452
23230SOL     OW71528   8.174   7.586   6.006
23230SOL    HW171529   8.087   7.607   6.041
23230SOL    HW271530   8.181   7.640   5.927
23231SOL     OW71531   9.101  14.036   7.086
23231SOL    HW171532   9.058  14.059   7.004
23231SOL    HW271533   9.030  14.002   7.142
23232SOL     OW71534  14.854   5.652   5.394
23232SOL    HW171535  14.859   5.748   5.398
23232SOL    HW271536   0.020   5.629   5.313
23233SOL     OW71537   8.854  10.007   4.054
23233SOL    HW171538   8.887   9.921   4.025
23233SOL    HW271539   8.876  10.066   3.982
23234SOL     OW71540  10.487   9.684   0.372
23234SOL    HW171541  10.536   9.643   0.444
23234SOL    HW271542  10.538   9.662   0.294
23235SOL     OW71543   6.314  13.401   7.403
23235SOL    HW171544   6.228  13.359   7.408
23235SOL    HW271545   6.353  13.368   7.323
23236SOL     OW71546  13.785  10.125  12.915
23236SOL    HW171547  13.743  10.189  12.857
23236SOL    HW271548  13.771  10.041  12.871
23237SOL     OW71549  13.413  11.080  11.218
23237SOL    HW171550  13.337  11.132  11.245
23237SOL    HW271551  13.455  11.054  11.299
23238SOL     OW71552  10.172   8.197  10.191
23238SOL    HW171553  10.209   8.168  10.108
23238SOL    HW271554  10.238   8.174  10.256
23239SOL     OW71555   5.628  13.859   4.355
23239SOL    HW171556   5.656  13.921   4.286
23239SOL    HW271557   5.708  13.842   4.405
23240SOL     OW71558   4.744   4.185  12.257
23240SOL    HW171559   4.652   4.200  12.280
23240SOL    HW271560   4.759   4.244  12.183
23241SOL     OW71561   0.557   4.180   5.202
23241SOL    HW171562   0.519   4.264   5.230
23241SOL    HW271563   0.489   4.140   5.148
23242SOL     OW71564   5.815  12.969  11.931
23242SOL    HW171565   5.801  12.895  11.871
23242SOL    HW271566   5.884  13.021  11.890
23243SOL     OW71567  12.830  11.755  14.482
23243SOL    HW171568  12.892  11.809  14.433
23243SOL    HW271569  12.786  11.815  14.541
23244SOL     OW71570   5.195   7.630   1.713
23244SOL    HW171571   5.203   7.555   1.654
23244SOL    HW271572   5.119   7.610   1.767
23245SOL     OW71573   3.804   1.568   5.012
23245SOL    HW171574   3.840   1.566   5.100
23245SOL    HW271575   3.770   1.479   4.998
23246SOL     OW71576   3.330  11.717  10.388
23246SOL    HW171577   3.258  11.653  10.385
23246SOL    HW271578   3.396  11.681  10.329
23247SOL     OW71579   1.475  12.990  10.865
23247SOL    HW171580   1.519  12.905  10.864
23247SOL    HW271581   1.428  12.993  10.781
23248SOL     OW71582   6.677   0.695  11.999
23248SOL    HW171583   6.754   0.701  12.055
23248SOL    HW271584   6.709   0.658  11.917
23249SOL     OW71585   9.260  13.367  11.587
23249SOL    HW171586   9.231  13.457  11.601
23249SOL    HW271587   9.333  13.355  11.648
23250SOL     OW71588  14.193   2.041  14.169
23250SOL    HW171589  14.249   2.062  14.244
23250SOL    HW271590  14.114   2.092  14.183
23251SOL     OW71591  12.435  13.385  14.191
23251SOL    HW171592  12.524  13.413  14.167
23251SOL    HW271593  12.448  13.324  14.264
23252SOL     OW71594   0.479   1.815  11.949
23252SOL    HW171595   0.455   1.882  12.013
23252SOL    HW271596   0.496   1.737  12.002
23253SOL     OW71597   0.015   6.667   0.846
23253SOL    HW171598  14.842   6.748   0.847
23253SOL    HW271599   0.031   6.648   0.938
23254SOL     OW71600   4.309   7.260  10.538
23254SOL    HW171601   4.340   7.350  10.530
23254SOL    HW271602   4.311   7.225  10.449
23255SOL     OW71603   2.303   2.875  13.866
23255SOL    HW171604   2.234   2.816  13.838
23255SOL    HW271605   2.259   2.959  13.882
23256SOL     OW71606   5.895   8.355   8.641
23256SOL    HW171607   5.938   8.279   8.681
23256SOL    HW271608   5.808   8.323   8.617
23257SOL     OW71609   9.056   0.049  14.427
23257SOL    HW171610   9.131   0.076  14.480
23257SOL    HW271611   8.991   0.021  14.491
23258SOL     OW71612  11.145  14.162   6.528
23258SOL    HW171613  11.156  14.214   6.449
23258SOL    HW271614  11.157  14.225   6.600
23259SOL     OW71615   5.601  14.775  12.426
23259SOL    HW171616   5.526  14.802  12.480
23259SOL    HW271617   5.571  14.697  12.380
23260SOL     OW71618  13.827   6.515   3.222
23260SOL    HW171619  13.885   6.569   3.168
23260SOL    HW271620  13.876   6.500   3.302
23261SOL     OW71621  13.286  10.025  12.419
23261SOL    HW171622  13.225   9.967  12.374
23261SOL    HW271623  13.373   9.994  12.390
23262SOL     OW71624   1.327   4.041   5.258
23262SOL    HW171625   1.307   3.989   5.181
23262SOL    HW271626   1.243   4.054   5.301
23263SOL     OW71627   6.154   2.573   9.384
23263SOL    HW171628   6.165   2.597   9.292
23263SOL    HW271629   6.083   2.629   9.415
23264SOL     OW71630  11.145   7.719  11.552
23264SOL    HW171631  11.117   7.741  11.463
23264SOL    HW271632  11.095   7.778  11.609
23265SOL     OW71633  12.180  12.584   3.654
23265SOL    HW171634  12.201  12.493   3.678
23265SOL    HW271635  12.196  12.588   3.560
23266SOL     OW71636   7.773   2.075   5.247
23266SOL    HW171637   7.798   2.000   5.194
23266SOL    HW271638   7.717   2.038   5.316
23267SOL     OW71639   8.987  10.326  14.143
23267SOL    HW171640   8.949  10.296  14.225
23267SOL    HW271641   9.055  10.261  14.124
23268SOL     OW71642  13.018  11.807   8.125
23268SOL    HW171643  12.981  11.884   8.081
23268SOL    HW271644  13.100  11.838   8.162
23269SOL     OW71645   3.806   2.337   9.430
23269SOL    HW171646   3.838   2.348   9.519
23269SOL    HW271647   3.853   2.403   9.379
23270SOL     OW71648   5.162  11.322  11.441
23270SOL    HW171649   5.222  11.256  11.407
23270SOL    HW271650   5.091  11.271  11.481
23271SOL     OW71651  13.474  14.314  10.215
23271SOL    HW171652  13.496  14.245  10.152
23271SOL    HW271653  13.559  14.343  10.249
23272SOL     OW71654   9.921   9.106   0.958
23272SOL    HW171655   9.829   9.105   0.932
23272SOL    HW271656   9.956   9.023   0.924
23273SOL     OW71657   3.067   1.696  11.998
23273SOL    HW171658   3.052   1.646  11.917
23273SOL    HW271659   2.979   1.714  12.031
23274SOL     OW71660   3.982   5.379   5.853
23274SOL    HW171661   4.019   5.380   5.764
23274SOL    HW271662   4.026   5.451   5.898
23275SOL     OW71663  14.407   2.515   1.291
23275SOL    HW171664  14.321   2.492   1.326
23275SOL    HW271665  14.438   2.436   1.248
23276SOL     OW71666   7.854  11.300   4.871
23276SOL    HW171667   7.799  11.377   4.855
23276SOL    HW271668   7.821  11.234   4.810
23277SOL     OW71669   9.605   7.895   2.429
23277SOL    HW171670   9.688   7.907   2.383
23277SOL    HW271671   9.538   7.910   2.362
23278SOL     OW71672   2.709  14.541  11.195
23278SOL    HW171673   2.734  14.476  11.129
23278SOL    HW271674   2.649  14.495  11.253
23279SOL     OW71675   4.937   4.064   8.660
23279SOL    HW171676   4.914   4.065   8.567
23279SOL    HW271677   4.931   3.972   8.685
23280SOL     OW71678  14.628   5.170  12.661
23280SOL    HW171679  14.546   5.130  12.630
23280SOL    HW271680  14.601   5.225  12.734
23281SOL     OW71681   8.557  12.551   3.989
23281SOL    HW171682   8.530  12.627   3.937
23281SOL    HW271683   8.621  12.506   3.935
23282SOL     OW71684   4.749  10.365   5.116
23282SOL    HW171685   4.760  10.279   5.157
23282SOL    HW271686   4.821  10.370   5.052
23283SOL     OW71687  12.817  11.473   0.333
23283SOL    HW171688  12.912  11.486   0.338
23283SOL    HW271689  12.795  11.425   0.413
23284SOL     OW71690   8.598   2.661   3.458
23284SOL    HW171691   8.600   2.624   3.370
23284SOL    HW271692   8.509   2.647   3.489
23285SOL     OW71693  13.006  12.160  12.883
23285SOL    HW171694  13.003  12.071  12.847
23285SOL    HW271695  13.017  12.148  12.977
23286SOL     OW71696   0.545   4.834  13.019
23286SOL    HW171697   0.509   4.749  13.045
23286SOL    HW271698   0.569   4.876  13.101
23287SOL     OW71699   4.463  12.302   2.444
23287SOL    HW171700   4.377  12.318   2.405
23287SOL    HW271701   4.497  12.226   2.397
23288SOL     OW71702   8.467   3.395   3.769
23288SOL    HW171703   8.530   3.329   3.737
23288SOL    HW271704   8.521   3.458   3.816
23289SOL     OW71705   9.461   6.258   8.140
23289SOL    HW171706   9.510   6.339   8.152
23289SOL    HW271707   9.494   6.222   8.057
23290SOL     OW71708   2.640  12.718  11.606
23290SOL    HW171709   2.646  12.775  11.683
23290SOL    HW271710   2.608  12.635  11.641
23291SOL     OW71711   7.359   0.697  10.932
23291SOL    HW171712   7.401   0.623  10.978
23291SOL    HW271713   7.288   0.656  10.883
23292SOL     OW71714   9.067   8.830  12.010
23292SOL    HW171715   8.972   8.832  12.023
23292SOL    HW271716   9.077   8.793  11.922
23293SOL     OW71717   2.413   6.462   9.587
23293SOL    HW171718   2.368   6.521   9.526
23293SOL    HW271719   2.347   6.438   9.651
23294SOL     OW71720   0.837   1.373  13.240
23294SOL    HW171721   0.887   1.443  13.281
23294SOL    HW271722   0.747   1.404  13.240
23295SOL     OW71723   1.817  10.807  11.752
23295SOL    HW171724   1.906  10.774  11.746
23295SOL    HW271725   1.823  10.898  11.723
23296SOL     OW71726   3.851   2.386  12.569
23296SOL    HW171727   3.904   2.449  12.520
23296SOL    HW271728   3.826   2.433  12.648
23297SOL     OW71729  10.535   6.250  13.877
23297SOL    HW171730  10.570   6.199  13.950
23297SOL    HW271731  10.476   6.190  13.832
23298SOL     OW71732  10.935  12.973   1.263
23298SOL    HW171733  10.839  12.982   1.266
23298SOL    HW271734  10.951  12.921   1.184
23299SOL     OW71735  14.479  14.159  14.691
23299SOL    HW171736  14.520  14.120  14.768
23299SOL    HW271737  14.548  14.211  14.650
23300SOL     OW71738   1.477   5.096   8.666
23300SOL    HW171739   1.390   5.111   8.628
23300SOL    HW271740   1.503   5.010   8.633
23301SOL     OW71741  11.519   9.496  11.981
23301SOL    HW171742  11.435   9.542  11.976
23301SOL    HW271743  11.524   9.467  12.072
23302SOL     OW71744   6.570   4.549   5.044
23302SOL    HW171745   6.652   4.532   4.997
23302SOL    HW271746   6.590   4.531   5.136
23303SOL     OW71747  13.353   6.403   3.994
23303SOL    HW171748  13.271   6.403   3.945
23303SOL    HW271749  13.381   6.495   3.993
23304SOL     OW71750   8.559  12.943   3.843
23304SOL    HW171751   8.484  13.002   3.838
23304SOL    HW271752   8.623  12.990   3.896
23305SOL     OW71753  11.182   2.278   0.747
23305SOL    HW171754  11.230   2.196   0.735
23305SOL    HW271755  11.094   2.259   0.715
23306SOL     OW71756   4.446   0.257  14.459
23306SOL    HW171757   4.436   0.344  14.499
23306SOL    HW271758   4.436   0.196  14.532
23307SOL     OW71759  14.325   6.181   4.909
23307SOL    HW171760  14.244   6.184   4.858
23307SOL    HW271761  14.295   6.187   5.000
23308SOL     OW71762   8.670   0.730   6.127
23308SOL    HW171763   8.751   0.682   6.144
23308SOL    HW271764   8.602   0.680   6.172
23309SOL     OW71765  13.614  10.269  13.568
23309SOL    HW171766  13.696  10.234  13.535
23309SOL    HW271767  13.611  10.359  13.535
23310SOL     OW71768   4.989  12.979   2.042
23310SOL    HW171769   4.950  13.059   2.006
23310SOL    HW271770   5.006  12.924   1.966
23311SOL     OW71771   4.556   6.279   0.396
23311SOL    HW171772   4.478   6.326   0.422
23311SOL    HW271773   4.616   6.289   0.470
23312SOL     OW71774  11.473  11.941  10.287
23312SOL    HW171775  11.416  11.888  10.232
23312SOL    HW271776  11.413  11.994  10.340
23313SOL     OW71777   1.773  13.669   0.171
23313SOL    HW171778   1.856  13.714   0.185
23313SOL    HW271779   1.772  13.598   0.235
23314SOL     OW71780  11.928  12.141   2.139
23314SOL    HW171781  11.833  12.145   2.129
23314SOL    HW271782  11.949  12.048   2.125
23315SOL     OW71783   0.993   1.718   7.315
23315SOL    HW171784   0.991   1.627   7.344
23315SOL    HW271785   1.036   1.715   7.230
23316SOL     OW71786  12.906  10.515  11.154
23316SOL    HW171787  12.938  10.462  11.081
23316SOL    HW271788  12.926  10.464  11.232
23317SOL     OW71789   5.762  14.630   7.741
23317SOL    HW171790   5.689  14.572   7.763
23317SOL    HW271791   5.820  14.626   7.818
23318SOL     OW71792   0.602   4.029   5.501
23318SOL    HW171793   0.615   3.989   5.415
23318SOL    HW271794   0.530   4.091   5.488
23319SOL     OW71795   7.262   9.246   0.254
23319SOL    HW171796   7.234   9.266   0.164
23319SOL    HW271797   7.346   9.291   0.263
23320SOL     OW71798   5.376  12.975   8.867
23320SOL    HW171799   5.400  12.892   8.827
23320SOL    HW271800   5.395  12.963   8.960
23321SOL     OW71801   6.653   9.478   7.965
23321SOL    HW171802   6.684   9.446   7.880
23321SOL    HW271803   6.618   9.400   8.008
23322SOL     OW71804  13.220   9.255  14.735
23322SOL    HW171805  13.315   9.245  14.736
23322SOL    HW271806  13.205   9.336  14.687
23323SOL     OW71807  11.465   2.667   9.120
23323SOL    HW171808  11.375   2.668   9.086
23323SOL    HW271809  11.458   2.702   9.208
23324SOL     OW71810  11.754   9.401  10.493
23324SOL    HW171811  11.824   9.466  10.491
23324SOL    HW271812  11.676   9.449  10.520
23325SOL     OW71813   6.402   5.501   1.687
23325SOL    HW171814   6.361   5.419   1.715
23325SOL    HW271815   6.328   5.558   1.665
23326SOL     OW71816   7.946  10.399  12.456
23326SOL    HW171817   7.958  10.459  12.382
23326SOL    HW271818   7.937  10.312  12.415
23327SOL     OW71819   9.572   5.886  14.577
23327SOL    HW171820   9.573   5.976  14.543
23327SOL    HW271821   9.653   5.847  14.543
23328SOL     OW71822  10.717  13.217   4.407
23328SOL    HW171823  10.636  13.178   4.440
23328SOL    HW271824  10.779  13.144   4.403
23329SOL     OW71825   7.707  10.324  10.566
23329SOL    HW171826   7.623  10.279  10.569
23329SOL    HW271827   7.769  10.257  10.538
23330SOL     OW71828   6.287  11.341   0.046
23330SOL    HW171829   6.197  11.373   0.043
23330SOL    HW271830   6.319  11.366   0.133
23331SOL     OW71831   9.163   6.276   6.845
23331SOL    HW171832   9.230   6.266   6.777
23331SOL    HW271833   9.175   6.365   6.877
23332SOL     OW71834  14.028   2.453   2.652
23332SOL    HW171835  14.025   2.528   2.591
23332SOL    HW271836  14.118   2.421   2.646
23333SOL     OW71837  12.118   8.301   0.082
23333SOL    HW171838  12.062   8.337   0.151
23333SOL    HW271839  12.188   8.256   0.129
23334SOL     OW71840   6.098  13.005   2.450
23334SOL    HW171841   6.155  13.074   2.414
23334SOL    HW271842   6.094  12.939   2.380
23335SOL     OW71843  10.145   6.413   4.702
23335SOL    HW171844  10.071   6.433   4.759
23335SOL    HW271845  10.175   6.327   4.731
23336SOL     OW71846   6.850   9.364   2.322
23336SOL    HW171847   6.795   9.302   2.370
23336SOL    HW271848   6.929   9.372   2.375
23337SOL     OW71849   6.380   0.545   9.374
23337SOL    HW171850   6.316   0.549   9.302
23337SOL    HW271851   6.415   0.456   9.370
23338SOL     OW71852   9.038  13.808   3.402
23338SOL    HW171853   9.066  13.899   3.412
23338SOL    HW271854   8.956  13.802   3.450
23339SOL     OW71855  14.618  11.592   5.592
23339SOL    HW171856  14.571  11.580   5.509
23339SOL    HW271857  14.556  11.638   5.648
23340SOL     OW71858  14.289   7.559  12.894
23340SOL    HW171859  14.217   7.532  12.951
23340SOL    HW271860  14.246   7.594  12.816
23341SOL     OW71861   1.153   9.840   6.630
23341SOL    HW171862   1.206   9.764   6.605
23341SOL    HW271863   1.189   9.912   6.578
23342SOL     OW71864   7.603   2.608   3.357
23342SOL    HW171865   7.640   2.667   3.292
23342SOL    HW271866   7.666   2.609   3.429
23343SOL     OW71867   9.164   3.081   8.206
23343SOL    HW171868   9.097   3.125   8.152
23343SOL    HW271869   9.116   3.046   8.281
23344SOL     OW71870  13.994   7.439  14.399
23344SOL    HW171871  14.077   7.395  14.382
23344SOL    HW271872  13.960   7.396  14.478
23345SOL     OW71873   5.963   0.482   1.065
23345SOL    HW171874   5.874   0.478   1.101
23345SOL    HW271875   5.949   0.493   0.971
23346SOL     OW71876   7.508  12.214  13.073
23346SOL    HW171877   7.449  12.233  13.001
23346SOL    HW271878   7.464  12.246  13.151
23347SOL     OW71879   3.171  12.816   6.937
23347SOL    HW171880   3.206  12.798   6.850
23347SOL    HW271881   3.096  12.875   6.921
23348SOL     OW71882  12.440   5.705   9.470
23348SOL    HW171883  12.509   5.640   9.457
23348SOL    HW271884  12.456   5.770   9.402
23349SOL     OW71885   4.488   5.074   5.913
23349SOL    HW171886   4.438   5.053   5.834
23349SOL    HW271887   4.579   5.075   5.884
23350SOL     OW71888  10.335   6.430  14.378
23350SOL    HW171889  10.289   6.513  14.367
23350SOL    HW271890  10.330   6.388  14.292
23351SOL     OW71891   0.878   1.550   8.808
23351SOL    HW171892   0.894   1.625   8.865
23351SOL    HW271893   0.889   1.584   8.720
23352SOL     OW71894  11.032   1.233   3.374
23352SOL    HW171895  11.038   1.137   3.368
23352SOL    HW271896  11.105   1.259   3.429
23353SOL     OW71897   3.773  14.140   0.841
23353SOL    HW171898   3.691  14.146   0.890
23353SOL    HW271899   3.746  14.148   0.749
23354SOL     OW71900   4.422  14.275   4.606
23354SOL    HW171901   4.454  14.310   4.689
23354SOL    HW271902   4.482  14.309   4.540
23355SOL     OW71903  12.493  13.641   3.879
23355SOL    HW171904  12.522  13.731   3.891
23355SOL    HW271905  12.521  13.595   3.958
23356SOL     OW71906   3.946   8.610   3.659
23356SOL    HW171907   3.983   8.698   3.661
23356SOL    HW271908   3.915   8.594   3.748
23357SOL     OW71909  10.818   8.794  11.513
23357SOL    HW171910  10.794   8.790  11.606
23357SOL    HW271911  10.885   8.726  11.502
23358SOL     OW71912   8.636   0.199   8.934
23358SOL    HW171913   8.592   0.280   8.905
23358SOL    HW271914   8.590   0.175   9.015
23359SOL     OW71915   0.685   4.183  10.911
23359SOL    HW171916   0.644   4.251  10.964
23359SOL    HW271917   0.693   4.222  10.824
23360SOL     OW71918  13.861  12.478  13.411
23360SOL    HW171919  13.887  12.567  13.388
23360SOL    HW271920  13.877  12.426  13.332
23361SOL     OW71921  13.992   4.694   2.929
23361SOL    HW171922  14.060   4.751   2.892
23361SOL    HW271923  14.040   4.622   2.969
23362SOL     OW71924   8.498   7.216  14.546
23362SOL    HW171925   8.474   7.128  14.518
23362SOL    HW271926   8.423   7.271  14.522
23363SOL     OW71927  11.480   2.261  14.580
23363SOL    HW171928  11.452   2.336  14.527
23363SOL    HW271929  11.405   2.243  14.637
23364SOL     OW71930   5.647  10.057  10.100
23364SOL    HW171931   5.569  10.004  10.116
23364SOL    HW271932   5.720   9.998  10.117
23365SOL     OW71933  14.446  11.409   5.469
23365SOL    HW171934  14.409  11.381   5.385
23365SOL    HW271935  14.501  11.336   5.497
23366SOL     OW71936   1.614  11.151   9.424
23366SOL    HW171937   1.615  11.178   9.332
23366SOL    HW271938   1.693  11.191   9.461
23367SOL     OW71939   2.251  14.422  11.148
23367SOL    HW171940   2.197  14.354  11.189
23367SOL    HW271941   2.238  14.408  11.054
23368SOL     OW71942   3.630   0.159   8.145
23368SOL    HW171943   3.554   0.111   8.113
23368SOL    HW271944   3.608   0.251   8.133
23369SOL     OW71945   9.724   2.030   7.488
23369SOL    HW171946   9.685   2.117   7.477
23369SOL    HW271947   9.818   2.044   7.482
23370SOL     OW71948   0.105   9.792  12.001
23370SOL    HW171949   0.068   9.704  11.994
23370SOL    HW271950   0.193   9.785  11.965
23371SOL     OW71951   3.930   9.600   5.149
23371SOL    HW171952   3.912   9.512   5.117
23371SOL    HW271953   4.008   9.628   5.103
23372SOL     OW71954  10.622   2.652   4.793
23372SOL    HW171955  10.596   2.741   4.816
23372SOL    HW271956  10.712   2.661   4.761
23373SOL     OW71957  10.540   8.219   4.896
23373SOL    HW171958  10.475   8.185   4.835
23373SOL    HW271959  10.549   8.311   4.874
23374SOL     OW71960   2.710   9.511   2.706
23374SOL    HW171961   2.772   9.441   2.725
23374SOL    HW271962   2.763   9.590   2.703
23375SOL     OW71963  14.002   3.486  13.676
23375SOL    HW171964  14.023   3.393  13.671
23375SOL    HW271965  14.033   3.522  13.594
23376SOL     OW71966  11.294  14.426   5.888
23376SOL    HW171967  11.312  14.419   5.982
23376SOL    HW271968  11.263  14.339   5.863
23377SOL     OW71969   7.967   7.115  11.060
23377SOL    HW171970   7.908   7.065  11.116
23377SOL    HW271971   7.912   7.181  11.019
23378SOL     OW71972   2.889   3.123  13.497
23378SOL    HW171973   2.810   3.132  13.444
23378SOL    HW271974   2.901   3.209  13.537
23379SOL     OW71975  11.471   6.874   0.596
23379SOL    HW171976  11.399   6.824   0.632
23379SOL    HW271977  11.444   6.965   0.603
23380SOL     OW71978  12.877   4.543  13.485
23380SOL    HW171979  12.913   4.569  13.400
23380SOL    HW271980  12.860   4.626  13.530
23381SOL     OW71981   6.544   8.245  13.542
23381SOL    HW171982   6.599   8.286  13.609
23381SOL    HW271983   6.587   8.163  13.522
23382SOL     OW71984   2.292  10.614   2.803
23382SOL    HW171985   2.379  10.652   2.791
23382SOL    HW271986   2.250  10.670   2.868
23383SOL     OW71987  10.627  14.693   9.728
23383SOL    HW171988  10.544  14.646   9.716
23383SOL    HW271989  10.667  14.694   9.642
23384SOL     OW71990   0.158   9.986   2.581
23384SOL    HW171991   0.115   9.988   2.495
23384SOL    HW271992   0.200  10.072   2.588
23385SOL     OW71993   8.199   3.204  12.999
23385SOL    HW171994   8.150   3.285  13.016
23385SOL    HW271995   8.133   3.142  12.971
23386SOL     OW71996  11.270  12.794   1.403
23386SOL    HW171997  11.205  12.859   1.427
23386SOL    HW271998  11.339  12.844   1.358
23387SOL     OW71999   6.866   3.390  13.833
23387SOL    HW172000   6.958   3.412  13.845
23387SOL    HW272001   6.822   3.474  13.826
23388SOL     OW72002  11.145   7.509   3.304
23388SOL    HW172003  11.105   7.448   3.241
23388SOL    HW272004  11.172   7.453   3.377
23389SOL     OW72005   5.840   7.680  14.830
23389SOL    HW172006   5.776   7.636   0.007
23389SOL    HW272007   5.799   7.764  14.809
23390SOL     OW72008  10.435   3.787   9.230
23390SOL    HW172009  10.470   3.802   9.318
23390SOL    HW272010  10.427   3.875   9.192
23391SOL     OW72011  10.309   1.447   3.001
23391SOL    HW172012  10.355   1.369   3.032
23391SOL    HW272013  10.372   1.518   3.013
23392SOL     OW72014   2.717   5.840   5.464
23392SOL    HW172015   2.663   5.767   5.494
23392SOL    HW272016   2.656   5.899   5.420
23393SOL     OW72017   1.199  12.571  14.346
23393SOL    HW172018   1.200  12.515  14.424
23393SOL    HW272019   1.187  12.510  14.274
23394SOL     OW72020   0.614   1.862   0.965
23394SOL    HW172021   0.703   1.876   0.996
23394SOL    HW272022   0.595   1.939   0.911
23395SOL     OW72023   6.457  14.333   6.270
23395SOL    HW172024   6.393  14.262   6.266
23395SOL    HW272025   6.490  14.341   6.181
23396SOL     OW72026   0.582  12.283  12.303
23396SOL    HW172027   0.654  12.233  12.265
23396SOL    HW272028   0.552  12.230  12.376
23397SOL     OW72029   0.923   1.108   9.094
23397SOL    HW172030   1.006   1.082   9.136
23397SOL    HW272031   0.869   1.139   9.167
23398SOL     OW72032  10.478   4.193   3.203
23398SOL    HW172033  10.523   4.180   3.120
23398SOL    HW272034  10.393   4.231   3.179
23399SOL     OW72035   1.890   1.863   9.085
23399SOL    HW172036   1.953   1.869   9.156
23399SOL    HW272037   1.806   1.850   9.129
23400SOL     OW72038  14.815   5.794   3.485
23400SOL    HW172039  14.849   5.775   3.572
23400SOL    HW272040  14.839   5.717   3.433
23401SOL     OW72041  11.128   7.951   7.009
23401SOL    HW172042  11.193   7.903   6.958
23401SOL    HW272043  11.177   8.023   7.049
23402SOL     OW72044   6.959   3.527  11.781
23402SOL    HW172045   6.864   3.532  11.794
23402SOL    HW272046   6.973   3.555  11.691
23403SOL     OW72047   8.638   2.400  13.049
23403SOL    HW172048   8.620   2.470  13.111
23403SOL    HW272049   8.707   2.434  12.992
23404SOL     OW72050   6.158  12.811   9.930
23404SOL    HW172051   6.211  12.844  10.002
23404SOL    HW272052   6.094  12.880   9.914
23405SOL     OW72053  13.528   0.210   3.277
23405SOL    HW172054  13.571   0.209   3.191
23405SOL    HW272055  13.540   0.299   3.309
23406SOL     OW72056   5.305  13.742   9.201
23406SOL    HW172057   5.322  13.780   9.115
23406SOL    HW272058   5.211  13.723   9.201
23407SOL     OW72059   2.111  14.575   1.559
23407SOL    HW172060   2.169  14.533   1.495
23407SOL    HW272061   2.161  14.574   1.641
23408SOL     OW72062   0.002   8.648   3.342
23408SOL    HW172063   0.064   8.579   3.320
23408SOL    HW272064  14.845   8.676   3.258
23409SOL     OW72065   8.337   3.010   8.214
23409SOL    HW172066   8.296   3.095   8.230
23409SOL    HW272067   8.271   2.961   8.165
23410SOL     OW72068  12.334  14.156   5.437
23410SOL    HW172069  12.383  14.092   5.489
23410SOL    HW272070  12.364  14.241   5.472
23411SOL     OW72071   0.431  10.514  11.957
23411SOL    HW172072   0.465  10.435  11.914
23411SOL    HW272073   0.340  10.493  11.977
23412SOL     OW72074  14.404   9.129   5.353
23412SOL    HW172075  14.445   9.167   5.275
23412SOL    HW272076  14.451   9.169   5.427
23413SOL     OW72077  13.813   7.206   3.117
23413SOL    HW172078  13.890   7.228   3.065
23413SOL    HW272079  13.739   7.224   3.060
23414SOL     OW72080  14.517  11.984   2.333
23414SOL    HW172081  14.579  11.911   2.325
23414SOL    HW272082  14.473  11.987   2.248
23415SOL     OW72083   8.739   7.986  12.275
23415SOL    HW172084   8.669   8.041  12.310
23415SOL    HW272085   8.750   7.916  12.339
23416SOL     OW72086   1.533   8.389   5.151
23416SOL    HW172087   1.511   8.457   5.214
23416SOL    HW272088   1.480   8.410   5.074
23417SOL     OW72089   0.254   4.943   7.799
23417SOL    HW172090   0.319   4.875   7.782
23417SOL    HW272091   0.213   4.917   7.882
23418SOL     OW72092   6.569  14.573   1.049
23418SOL    HW172093   6.614  14.658   1.046
23418SOL    HW272094   6.540  14.559   0.958
23419SOL     OW72095  12.119   5.209   7.423
23419SOL    HW172096  12.081   5.153   7.356
23419SOL    HW272097  12.090   5.298   7.400
23420SOL     OW72098   6.856   8.181  14.273
23420SOL    HW172099   6.832   8.136  14.192
23420SOL    HW272100   6.774   8.192  14.320
23421SOL     OW72101  13.966   6.874   7.542
23421SOL    HW172102  13.969   6.932   7.466
23421SOL    HW272103  13.995   6.927   7.615
23422SOL     OW72104   1.503  12.340   2.183
23422SOL    HW172105   1.443  12.277   2.224
23422SOL    HW272106   1.556  12.372   2.256
23423SOL     OW72107   7.881   1.994  14.099
23423SOL    HW172108   7.949   2.055  14.128
23423SOL    HW272109   7.925   1.938  14.035
23424SOL     OW72110  10.400   2.493   5.726
23424SOL    HW172111  10.487   2.529   5.710
23424SOL    HW272112  10.340   2.566   5.710
23425SOL     OW72113   6.041   1.569  12.360
23425SOL    HW172114   5.978   1.497  12.366
23425SOL    HW272115   6.119   1.529  12.321
23426SOL     OW72116   9.039   9.148   6.170
23426SOL    HW172117   9.133   9.164   6.173
23426SOL    HW272118   9.026   9.090   6.094
23427SOL     OW72119   5.756   0.762  12.362
23427SOL    HW172120   5.725   0.704  12.432
23427SOL    HW272121   5.679   0.775  12.306
23428SOL     OW72122   3.274   3.016  10.810
23428SOL    HW172123   3.313   3.102  10.794
23428SOL    HW272124   3.287   3.001  10.904
23429SOL     OW72125   1.375  10.046  12.375
23429SOL    HW172126   1.348   9.974  12.433
23429SOL    HW272127   1.295  10.068  12.327
23430SOL     OW72128   6.340  13.425   4.723
23430SOL    HW172129   6.270  13.375   4.681
23430SOL    HW272130   6.380  13.476   4.653
23431SOL     OW72131   8.664   1.009  14.189
23431SOL    HW172132   8.752   0.986  14.160
23431SOL    HW272133   8.642   0.943  14.255
23432SOL     OW72134   0.844   7.406   6.151
23432SOL    HW172135   0.840   7.500   6.131
23432SOL    HW272136   0.820   7.363   6.069
23433SOL     OW72137  12.239   8.787   1.683
23433SOL    HW172138  12.240   8.787   1.587
23433SOL    HW272139  12.166   8.730   1.706
23434SOL     OW72140   1.926   1.788   8.276
23434SOL    HW172141   1.931   1.726   8.203
23434SOL    HW272142   1.865   1.748   8.338
23435SOL     OW72143   9.763   2.110  12.636
23435SOL    HW172144   9.825   2.037  12.638
23435SOL    HW272145   9.792   2.167  12.707
23436SOL     OW72146   4.340   6.231   0.074
23436SOL    HW172147   4.280   6.294   0.115
23436SOL    HW272148   4.312   6.228  14.861
23437SOL     OW72149   5.202   9.798   8.955
23437SOL    HW172150   5.195   9.734   8.884
23437SOL    HW272151   5.172   9.750   9.033
23438SOL     OW72152   4.854  13.190  14.714
23438SOL    HW172153   4.862  13.107  14.667
23438SOL    HW272154   4.865  13.257  14.647
23439SOL     OW72155   0.404  11.921  10.940
23439SOL    HW172156   0.373  11.856  10.877
23439SOL    HW272157   0.499  11.920  10.931
23440SOL     OW72158   7.637  10.183   1.722
23440SOL    HW172159   7.669  10.273   1.709
23440SOL    HW272160   7.716  10.131   1.733
23441SOL     OW72161  13.336  11.358   9.903
23441SOL    HW172162  13.403  11.356   9.971
23441SOL    HW272163  13.380  11.395   9.827
23442SOL     OW72164   5.765   0.702   0.160
23442SOL    HW172165   5.802   0.763   0.224
23442SOL    HW272166   5.798   0.616   0.188
23443SOL     OW72167   2.184  12.912  11.342
23443SOL    HW172168   2.231  12.996  11.348
23443SOL    HW272169   2.092  12.935  11.351
23444SOL     OW72170   5.377   2.663   0.086
23444SOL    HW172171   5.397   2.664   0.179
23444SOL    HW272172   5.391   2.753   0.057
23445SOL     OW72173   1.387   8.584   1.575
23445SOL    HW172174   1.298   8.555   1.595
23445SOL    HW272175   1.379   8.679   1.562
23446SOL     OW72176  13.601  11.365  12.679
23446SOL    HW172177  13.540  11.429  12.642
23446SOL    HW272178  13.579  11.364  12.773
23447SOL     OW72179   0.211   9.613  12.442
23447SOL    HW172180   0.174   9.702  12.443
23447SOL    HW272181   0.138   9.556  12.418
23448SOL     OW72182   3.522  14.807   1.720
23448SOL    HW172183   3.507  14.776   1.810
23448SOL    HW272184   3.464  14.753   1.667
23449SOL     OW72185   1.126   5.177   6.033
23449SOL    HW172186   1.189   5.183   6.105
23449SOL    HW272187   1.045   5.212   6.069
23450SOL     OW72188   5.970  11.562   6.788
23450SOL    HW172189   5.941  11.546   6.878
23450SOL    HW272190   5.977  11.474   6.750
23451SOL     OW72191  11.793  12.648  12.598
23451SOL    HW172192  11.837  12.717  12.647
23451SOL    HW272193  11.818  12.567  12.641
23452SOL     OW72194   0.123  11.415   6.002
23452SOL    HW172195   0.151  11.484   5.943
23452SOL    HW272196   0.031  11.400   5.981
23453SOL     OW72197   9.828  12.578   0.818
23453SOL    HW172198   9.871  12.631   0.885
23453SOL    HW272199   9.895  12.567   0.750
23454SOL     OW72200  10.251   7.767   8.134
23454SOL    HW172201  10.191   7.842   8.136
23454SOL    HW272202  10.291   7.771   8.047
23455SOL     OW72203   3.224  12.507  11.505
23455SOL    HW172204   3.303  12.474  11.461
23455SOL    HW272205   3.167  12.536  11.433
23456SOL     OW72206   4.593  11.723  10.541
23456SOL    HW172207   4.563  11.805  10.502
23456SOL    HW272208   4.686  11.738  10.561
23457SOL     OW72209   2.508   0.898  13.023
23457SOL    HW172210   2.474   0.876  13.110
23457SOL    HW272211   2.495   0.993  13.016
23458SOL     OW72212   9.308   4.607  12.543
23458SOL    HW172213   9.328   4.692  12.581
23458SOL    HW272214   9.279   4.626  12.454
23459SOL     OW72215   9.486   9.779  13.071
23459SOL    HW172216   9.449   9.731  13.145
23459SOL    HW272217   9.409   9.811  13.023
23460SOL     OW72218   5.066   2.385   5.278
23460SOL    HW172219   5.161   2.380   5.268
23460SOL    HW272220   5.031   2.330   5.208
23461SOL     OW72221  13.770  10.386   8.810
23461SOL    HW172222  13.727  10.301   8.820
23461SOL    HW272223  13.863  10.367   8.820
23462SOL     OW72224  14.436   5.338  12.311
23462SOL    HW172225  14.420   5.264  12.369
23462SOL    HW272226  14.376   5.406  12.341
23463SOL     OW72227   4.238   2.615  13.570
23463SOL    HW172228   4.160   2.633  13.623
23463SOL    HW272229   4.276   2.701  13.553
23464SOL     OW72230   5.747  12.375   0.019
23464SOL    HW172231   5.776  12.429  14.825
23464SOL    HW272232   5.827  12.349   0.064
23465SOL     OW72233   3.138   5.891   0.389
23465SOL    HW172234   3.157   5.921   0.300
23465SOL    HW272235   3.105   5.968   0.434
23466SOL     OW72236   2.527   7.597   0.963
23466SOL    HW172237   2.459   7.529   0.964
23466SOL    HW272238   2.482   7.677   0.992
23467SOL     OW72239   3.256  11.201   0.331
23467SOL    HW172240   3.236  11.142   0.259
23467SOL    HW272241   3.225  11.157   0.410
23468SOL     OW72242   8.241   2.230   6.237
23468SOL    HW172243   8.190   2.159   6.198
23468SOL    HW272244   8.284   2.272   6.163
23469SOL     OW72245  10.788  11.527  13.545
23469SOL    HW172246  10.762  11.569  13.462
23469SOL    HW272247  10.869  11.481  13.524
23470SOL     OW72248   4.840   4.036  13.329
23470SOL    HW172249   4.931   4.057  13.352
23470SOL    HW272250   4.838   3.941  13.324
23471SOL     OW72251   5.041   3.363   6.856
23471SOL    HW172252   5.083   3.356   6.770
23471SOL    HW272253   4.948   3.359   6.837
23472SOL     OW72254   6.371   8.540   1.951
23472SOL    HW172255   6.278   8.534   1.970
23472SOL    HW272256   6.403   8.450   1.960
23473SOL     OW72257   2.164   5.019   0.277
23473SOL    HW172258   2.251   5.036   0.241
23473SOL    HW272259   2.147   5.094   0.335
23474SOL     OW72260  10.660  14.159   5.399
23474SOL    HW172261  10.648  14.212   5.477
23474SOL    HW272262  10.748  14.123   5.408
23475SOL     OW72263  12.784   0.376   5.241
23475SOL    HW172264  12.821   0.452   5.195
23475SOL    HW272265  12.814   0.387   5.332
23476SOL     OW72266   4.743   8.855   8.707
23476SOL    HW172267   4.654   8.829   8.731
23476SOL    HW272268   4.800   8.791   8.750
23477SOL     OW72269  13.612  11.353   9.708
23477SOL    HW172270  13.616  11.328   9.615
23477SOL    HW272271  13.698  11.389   9.727
23478SOL     OW72272   5.322   9.745   6.439
23478SOL    HW172273   5.243   9.702   6.408
23478SOL    HW272274   5.302   9.838   6.434
23479SOL     OW72275   5.273   3.504   1.892
23479SOL    HW172276   5.364   3.521   1.867
23479SOL    HW272277   5.277   3.491   1.986
23480SOL     OW72278   6.529   8.604   0.375
23480SOL    HW172279   6.490   8.642   0.454
23480SOL    HW272280   6.609   8.561   0.407
23481SOL     OW72281   1.118   8.412   9.659
23481SOL    HW172282   1.140   8.332   9.707
23481SOL    HW272283   1.093   8.474   9.727
23482SOL     OW72284  11.300   0.432   4.257
23482SOL    HW172285  11.357   0.473   4.191
23482SOL    HW272286  11.358   0.371   4.304
23483SOL     OW72287   2.751   1.857   6.138
23483SOL    HW172288   2.843   1.876   6.119
23483SOL    HW272289   2.714   1.941   6.164
23484SOL     OW72290   3.984  10.095  12.723
23484SOL    HW172291   3.970  10.024  12.660
23484SOL    HW272292   3.899  10.109  12.763
23485SOL     OW72293   7.055   4.760   3.865
23485SOL    HW172294   7.016   4.706   3.935
23485SOL    HW272295   7.044   4.707   3.786
23486SOL     OW72296   8.325  14.237  12.516
23486SOL    HW172297   8.386  14.309  12.529
23486SOL    HW272298   8.267  14.267  12.446
23487SOL     OW72299  14.626   5.104   1.520
23487SOL    HW172300  14.613   5.161   1.444
23487SOL    HW272301  14.714   5.125   1.551
23488SOL     OW72302   2.647  12.520  10.230
23488SOL    HW172303   2.661  12.595  10.173
23488SOL    HW272304   2.600  12.556  10.306
23489SOL     OW72305   0.874   4.025   8.089
23489SOL    HW172306   0.855   3.932   8.072
23489SOL    HW272307   0.964   4.025   8.121
23490SOL     OW72308   0.388  13.511   1.953
23490SOL    HW172309   0.360  13.465   2.032
23490SOL    HW272310   0.447  13.449   1.909
23491SOL     OW72311  11.955  12.027  11.321
23491SOL    HW172312  11.949  12.000  11.413
23491SOL    HW272313  12.038  12.074  11.315
23492SOL     OW72314  11.591  14.016   4.183
23492SOL    HW172315  11.587  14.037   4.276
23492SOL    HW272316  11.633  14.092   4.143
23493SOL     OW72317  12.532   2.493   3.001
23493SOL    HW172318  12.620   2.471   3.030
23493SOL    HW272319  12.529   2.470   2.909
23494SOL     OW72320  13.772   7.155   1.710
23494SOL    HW172321  13.707   7.097   1.750
23494SOL    HW272322  13.794   7.112   1.627
23495SOL     OW72323   6.534   2.186   7.512
23495SOL    HW172324   6.557   2.158   7.423
23495SOL    HW272325   6.572   2.118   7.568
23496SOL     OW72326   0.505   8.685  10.355
23496SOL    HW172327   0.577   8.641  10.400
23496SOL    HW272328   0.518   8.663  10.262
23497SOL     OW72329  13.192  13.697   5.082
23497SOL    HW172330  13.246  13.657   5.014
23497SOL    HW272331  13.128  13.749   5.033
23498SOL     OW72332  12.550  11.823   7.044
23498SOL    HW172333  12.577  11.908   7.078
23498SOL    HW272334  12.632  11.779   7.020
23499SOL     OW72335   7.201   7.327  11.267
23499SOL    HW172336   7.268   7.287  11.212
23499SOL    HW272337   7.137   7.362  11.204
23500SOL     OW72338   7.447  11.535  14.226
23500SOL    HW172339   7.460  11.457  14.173
23500SOL    HW272340   7.352  11.549  14.225
23501SOL     OW72341   9.805   6.280   9.305
23501SOL    HW172342   9.802   6.296   9.211
23501SOL    HW272343   9.716   6.252   9.327
23502SOL     OW72344   1.877   1.051   4.455
23502SOL    HW172345   1.926   1.130   4.433
23502SOL    HW272346   1.924   0.981   4.410
23503SOL     OW72347   7.620   1.100   4.067
23503SOL    HW172348   7.604   1.180   4.018
23503SOL    HW272349   7.537   1.053   4.065
23504SOL     OW72350   5.808   4.719  13.753
23504SOL    HW172351   5.765   4.636  13.732
23504SOL    HW272352   5.754   4.756  13.823
23505SOL     OW72353   3.343   8.941   5.261
23505SOL    HW172354   3.397   8.862   5.270
23505SOL    HW272355   3.325   8.969   5.350
23506SOL     OW72356   8.982  10.982   9.182
23506SOL    HW172357   8.891  10.970   9.209
23506SOL    HW272358   9.031  10.986   9.264
23507SOL     OW72359   0.371  13.803   0.266
23507SOL    HW172360   0.288  13.849   0.282
23507SOL    HW272361   0.422  13.863   0.212
23508SOL     OW72362   8.808   6.626   4.517
23508SOL    HW172363   8.738   6.690   4.527
23508SOL    HW272364   8.776   6.548   4.562
23509SOL     OW72365  14.616   3.709   9.984
23509SOL    HW172366  14.688   3.646   9.986
23509SOL    HW272367  14.561   3.686  10.059
23510SOL     OW72368   1.250   6.095   5.920
23510SOL    HW172369   1.179   6.148   5.882
23510SOL    HW272370   1.219   6.005   5.911
23511SOL     OW72371   4.811   8.634   0.639
23511SOL    HW172372   4.829   8.597   0.553
23511SOL    HW272373   4.896   8.665   0.670
23512SOL     OW72374   0.253   3.532   7.395
23512SOL    HW172375   0.253   3.459   7.333
23512SOL    HW272376   0.314   3.596   7.358
23513SOL     OW72377  14.449   6.667   2.756
23513SOL    HW172378  14.524   6.644   2.811
23513SOL    HW272379  14.467   6.626   2.672
23514SOL     OW72380   6.143   2.629   5.951
23514SOL    HW172381   6.210   2.616   5.884
23514SOL    HW272382   6.171   2.708   5.998
23515SOL     OW72383   1.464  11.659   0.228
23515SOL    HW172384   1.444  11.586   0.168
23515SOL    HW272385   1.551  11.688   0.201
23516SOL     OW72386  11.385   9.780   5.908
23516SOL    HW172387  11.360   9.723   5.835
23516SOL    HW272388  11.468   9.819   5.880
23517SOL     OW72389  14.514   1.269  13.053
23517SOL    HW172390  14.498   1.300  12.964
23517SOL    HW272391  14.450   1.198  13.066
23518SOL     OW72392   7.848   1.573   3.555
23518SOL    HW172393   7.777   1.578   3.619
23518SOL    HW272394   7.905   1.647   3.577
23519SOL     OW72395  13.549  14.501  10.797
23519SOL    HW172396  13.499  14.475  10.719
23519SOL    HW272397  13.556  14.596  10.791
23520SOL     OW72398   6.990   6.376  14.536
23520SOL    HW172399   7.018   6.466  14.551
23520SOL    HW272400   6.911   6.366  14.588
23521SOL     OW72401  14.706   5.203   8.991
23521SOL    HW172402  14.781   5.234   8.939
23521SOL    HW272403  14.662   5.284   9.019
23522SOL     OW72404   5.318   8.133   6.563
23522SOL    HW172405   5.291   8.053   6.608
23522SOL    HW272406   5.383   8.104   6.499
23523SOL     OW72407  14.023  10.122   8.040
23523SOL    HW172408  14.059  10.034   8.038
23523SOL    HW272409  14.082  10.172   8.097
23524SOL     OW72410  13.958   0.484   0.743
23524SOL    HW172411  13.863   0.484   0.731
23524SOL    HW272412  13.971   0.508   0.835
23525SOL     OW72413   7.080   7.090   1.476
23525SOL    HW172414   7.144   7.158   1.455
23525SOL    HW272415   7.130   7.009   1.479
23526SOL     OW72416   2.973   5.880  11.812
23526SOL    HW172417   2.887   5.855  11.780
23526SOL    HW272418   2.956   5.940  11.884
23527SOL     OW72419   9.147  12.089   6.536
23527SOL    HW172420   9.199  12.022   6.491
23527SOL    HW272421   9.162  12.071   6.629
23528SOL     OW72422   2.252   1.458  12.615
23528SOL    HW172423   2.168   1.480  12.655
23528SOL    HW272424   2.258   1.514  12.538
23529SOL     OW72425  12.132   1.661   9.006
23529SOL    HW172426  12.124   1.576   8.963
23529SOL    HW272427  12.045   1.676   9.043
23530SOL     OW72428   6.167   6.850   5.002
23530SOL    HW172429   6.190   6.927   4.951
23530SOL    HW272430   6.251   6.809   5.023
23531SOL     OW72431   3.140   4.503   7.359
23531SOL    HW172432   3.177   4.528   7.444
23531SOL    HW272433   3.046   4.523   7.367
23532SOL     OW72434  10.263   3.627   2.104
23532SOL    HW172435  10.314   3.549   2.083
23532SOL    HW272436  10.175   3.595   2.122
23533SOL     OW72437   2.060   1.316   9.088
23533SOL    HW172438   2.044   1.373   9.014
23533SOL    HW272439   1.975   1.276   9.107
23534SOL     OW72440   2.062  12.689   0.837
23534SOL    HW172441   2.103  12.644   0.763
23534SOL    HW272442   2.031  12.772   0.800
23535SOL     OW72443   9.933   6.040   8.826
23535SOL    HW172444   9.937   6.034   8.730
23535SOL    HW272445  10.023   6.056   8.853
23536SOL     OW72446   6.092   4.039  13.842
23536SOL    HW172447   6.009   4.078  13.869
23536SOL    HW272448   6.155   4.111  13.848
23537SOL     OW72449   5.439   4.536   3.649
23537SOL    HW172450   5.534   4.546   3.641
23537SOL    HW272451   5.421   4.550   3.742
23538SOL     OW72452   0.909   1.350  10.577
23538SOL    HW172453   0.926   1.257  10.567
23538SOL    HW272454   0.995   1.391  10.576
23539SOL     OW72455   2.764   5.442   0.680
23539SOL    HW172456   2.676   5.413   0.658
23539SOL    HW272457   2.793   5.492   0.604
23540SOL     OW72458   4.132  10.789  11.428
23540SOL    HW172459   4.170  10.724  11.487
23540SOL    HW272460   4.189  10.789  11.351
23541SOL     OW72461  10.359   2.901   8.040
23541SOL    HW172462  10.446   2.881   8.075
23541SOL    HW272463  10.352   2.849   7.960
23542SOL     OW72464   5.117   5.441   1.394
23542SOL    HW172465   5.193   5.499   1.393
23542SOL    HW272466   5.059   5.475   1.326
23543SOL     OW72467  11.921  14.697  13.974
23543SOL    HW172468  11.971  14.676  14.052
23543SOL    HW272469  11.984  14.685  13.902
23544SOL     OW72470   8.614  13.684   3.646
23544SOL    HW172471   8.524  13.717   3.649
23544SOL    HW272472   8.613  13.618   3.577
23545SOL     OW72473   6.859   7.551  12.055
23545SOL    HW172474   6.838   7.587  12.140
23545SOL    HW272475   6.941   7.594  12.030
23546SOL     OW72476   6.447   0.312   7.293
23546SOL    HW172477   6.361   0.281   7.263
23546SOL    HW272478   6.500   0.317   7.214
23547SOL     OW72479   8.979   5.685  12.260
23547SOL    HW172480   8.983   5.644  12.346
23547SOL    HW272481   8.990   5.778  12.277
23548SOL     OW72482   2.270  11.581  13.598
23548SOL    HW172483   2.305  11.628  13.523
23548SOL    HW272484   2.200  11.527  13.562
23549SOL     OW72485   9.318  14.641   7.206
23549SOL    HW172486   9.233  14.623   7.246
23549SOL    HW272487   9.341  14.560   7.161
23550SOL     OW72488   6.880   1.482   8.086
23550SOL    HW172489   6.933   1.458   8.010
23550SOL    HW272490   6.803   1.525   8.049
23551SOL     OW72491   8.241   1.748   5.539
23551SOL    HW172492   8.259   1.819   5.478
23551SOL    HW272493   8.171   1.697   5.498
23552SOL     OW72494   9.012  11.446   5.086
23552SOL    HW172495   9.094  11.405   5.116
23552SOL    HW272496   8.960  11.373   5.052
23553SOL     OW72497  10.433   0.069   0.063
23553SOL    HW172498  10.405   0.015   0.137
23553SOL    HW272499  10.370   0.049  14.873
23554SOL     OW72500   7.352   4.501  11.431
23554SOL    HW172501   7.325   4.560  11.501
23554SOL    HW272502   7.434   4.463  11.462
23555SOL     OW72503  10.976   5.708   7.184
23555SOL    HW172504  10.920   5.777   7.221
23555SOL    HW272505  11.034   5.755   7.124
23556SOL     OW72506   7.573   0.746  11.866
23556SOL    HW172507   7.578   0.664  11.818
23556SOL    HW272508   7.566   0.814  11.799
23557SOL     OW72509  10.625   5.090  14.678
23557SOL    HW172510  10.708   5.045  14.661
23557SOL    HW272511  10.572   5.026  14.725
23558SOL     OW72512   0.939   7.545  13.044
23558SOL    HW172513   0.880   7.526  12.972
23558SOL    HW272514   0.913   7.483  13.113
23559SOL     OW72515   0.070   9.319  13.890
23559SOL    HW172516   0.036   9.232  13.870
23559SOL    HW272517   0.159   9.304  13.922
23560SOL     OW72518  13.750   7.771   2.990
23560SOL    HW172519  13.810   7.706   2.956
23560SOL    HW272520  13.787   7.855   2.963
23561SOL     OW72521   4.032   6.019   6.551
23561SOL    HW172522   4.003   5.958   6.483
23561SOL    HW272523   4.004   5.978   6.633
23562SOL     OW72524  13.909  12.807   7.280
23562SOL    HW172525  13.929  12.754   7.202
23562SOL    HW272526  13.814  12.816   7.278
23563SOL     OW72527   1.897  12.962   2.503
23563SOL    HW172528   1.896  12.954   2.408
23563SOL    HW272529   1.950  13.040   2.520
23564SOL     OW72530  12.380   0.303   6.535
23564SOL    HW172531  12.403   0.395   6.550
23564SOL    HW272532  12.284   0.303   6.529
23565SOL     OW72533   3.720  14.628   2.355
23565SOL    HW172534   3.805  14.669   2.371
23565SOL    HW272535   3.729  14.588   2.268
23566SOL     OW72536   6.788  12.613   7.822
23566SOL    HW172537   6.841  12.626   7.744
23566SOL    HW272538   6.704  12.582   7.789
23567SOL     OW72539   5.527  14.499   1.216
23567SOL    HW172540   5.476  14.466   1.142
23567SOL    HW272541   5.471  14.566   1.256
23568SOL     OW72542  11.847   6.758  13.893
23568SOL    HW172543  11.844   6.854  13.887
23568SOL    HW272544  11.929   6.735  13.849
23569SOL     OW72545  10.324   0.139   9.470
23569SOL    HW172546  10.289   0.050   9.482
23569SOL    HW272547  10.263   0.194   9.519
23570SOL     OW72548   8.651   9.945   5.703
23570SOL    HW172549   8.675   9.887   5.775
23570SOL    HW272550   8.642  10.031   5.743
23571SOL     OW72551   4.508   7.108   1.112
23571SOL    HW172552   4.495   7.033   1.054
23571SOL    HW272553   4.420   7.132   1.140
23572SOL     OW72554   9.811  11.720   2.039
23572SOL    HW172555   9.871  11.734   2.112
23572SOL    HW272556   9.730  11.764   2.066
23573SOL     OW72557  11.056   8.170   0.975
23573SOL    HW172558  11.128   8.233   0.983
23573SOL    HW272559  11.069   8.129   0.890
23574SOL     OW72560   8.474  10.282   9.825
23574SOL    HW172561   8.524  10.206   9.854
23574SOL    HW272562   8.512  10.355   9.874
23575SOL     OW72563   8.921   9.871  10.757
23575SOL    HW172564   9.011   9.838  10.764
23575SOL    HW272565   8.930   9.966  10.755
23576SOL     OW72566   8.200  12.138  13.103
23576SOL    HW172567   8.223  12.229  13.084
23576SOL    HW272568   8.104  12.135  13.093
23577SOL     OW72569   7.529   3.821   6.357
23577SOL    HW172570   7.530   3.754   6.426
23577SOL    HW272571   7.523   3.904   6.404
23578SOL     OW72572   1.085   6.360  13.460
23578SOL    HW172573   1.040   6.417  13.523
23578SOL    HW272574   1.163   6.330  13.506
23579SOL     OW72575  14.534   6.252   2.917
23579SOL    HW172576  14.586   6.315   2.866
23579SOL    HW272577  14.598   6.213   2.977
23580SOL     OW72578   3.393   5.260  13.242
23580SOL    HW172579   3.352   5.343  13.216
23580SOL    HW272580   3.335   5.193  13.204
23581SOL     OW72581   4.076   4.203   9.225
23581SOL    HW172582   4.089   4.210   9.319
23581SOL    HW272583   4.154   4.157   9.193
23582SOL     OW72584  11.179   6.354   9.204
23582SOL    HW172585  11.222   6.285   9.153
23582SOL    HW272586  11.103   6.311   9.243
23583SOL     OW72587   8.605   6.726   3.107
23583SOL    HW172588   8.678   6.670   3.134
23583SOL    HW272589   8.566   6.756   3.189
23584SOL     OW72590   8.074   5.298   5.691
23584SOL    HW172591   8.010   5.247   5.741
23584SOL    HW272592   8.085   5.249   5.609
23585SOL     OW72593  14.171   5.961  12.512
23585SOL    HW172594  14.125   5.930  12.591
23585SOL    HW272595  14.147   5.898  12.444
23586SOL     OW72596  10.312  10.125  10.181
23586SOL    HW172597  10.385  10.138  10.120
23586SOL    HW272598  10.333  10.180  10.256
23587SOL     OW72599   8.375   1.393   0.415
23587SOL    HW172600   8.293   1.387   0.463
23587SOL    HW272601   8.360   1.459   0.348
23588SOL     OW72602   0.098  14.234   4.041
23588SOL    HW172603   0.065  14.293   3.973
23588SOL    HW272604   0.188  14.264   4.056
23589SOL     OW72605   2.546   2.278   3.497
23589SOL    HW172606   2.537   2.346   3.431
23589SOL    HW272607   2.465   2.283   3.549
23590SOL     OW72608  12.649   5.682   8.449
23590SOL    HW172609  12.589   5.694   8.523
23590SOL    HW272610  12.662   5.770   8.415
23591SOL     OW72611  10.059   8.057  11.213
23591SOL    HW172612  10.005   8.025  11.141
23591SOL    HW272613  10.128   7.992  11.223
23592SOL     OW72614   9.106  13.906   6.630
23592SOL    HW172615   9.102  13.822   6.674
23592SOL    HW272616   9.166  13.892   6.557
23593SOL     OW72617   5.671   4.184   1.845
23593SOL    HW172618   5.740   4.231   1.798
23593SOL    HW272619   5.622   4.252   1.891
23594SOL     OW72620   0.647  11.981   2.767
23594SOL    HW172621   0.694  11.941   2.840
23594SOL    HW272622   0.716  12.005   2.705
23595SOL     OW72623   5.817  11.135  14.463
23595SOL    HW172624   5.824  11.048  14.423
23595SOL    HW272625   5.802  11.194  14.389
23596SOL     OW72626   7.937   7.139   2.180
23596SOL    HW172627   7.958   7.071   2.116
23596SOL    HW272628   7.984   7.217   2.148
23597SOL     OW72629   9.079   1.301   5.708
23597SOL    HW172630   9.001   1.348   5.678
23597SOL    HW272631   9.066   1.292   5.802
23598SOL     OW72632  11.186  13.002   2.714
23598SOL    HW172633  11.137  12.986   2.794
23598SOL    HW272634  11.120  13.025   2.649
23599SOL     OW72635   6.366  14.769   1.925
23599SOL    HW172636   6.388  14.812   2.007
23599SOL    HW272637   6.392  14.832   1.857
23600SOL     OW72638  12.026   1.865  11.312
23600SOL    HW172639  12.083   1.844  11.238
23600SOL    HW272640  11.966   1.791  11.319
23601SOL     OW72641   5.429  10.194   4.005
23601SOL    HW172642   5.335  10.178   3.994
23601SOL    HW272643   5.469  10.158   3.926
23602SOL     OW72644   1.250  14.225   9.688
23602SOL    HW172645   1.261  14.258   9.599
23602SOL    HW272646   1.157  14.203   9.694
23603SOL     OW72647   2.790   2.444   7.308
23603SOL    HW172648   2.715   2.498   7.333
23603SOL    HW272649   2.850   2.505   7.266
23604SOL     OW72650   4.207   4.550   6.250
23604SOL    HW172651   4.195   4.514   6.162
23604SOL    HW272652   4.204   4.645   6.237
23605SOL     OW72653   9.321   9.379   2.764
23605SOL    HW172654   9.362   9.464   2.751
23605SOL    HW272655   9.394   9.318   2.771
23606SOL     OW72656   1.835  12.779  13.080
23606SOL    HW172657   1.742  12.776  13.059
23606SOL    HW272658   1.848  12.866  13.118
23607SOL     OW72659  13.925  12.128   4.981
23607SOL    HW172660  13.871  12.059   5.021
23607SOL    HW272661  14.008  12.124   5.029
23608SOL     OW72662   2.215  11.882   2.355
23608SOL    HW172663   2.212  11.858   2.263
23608SOL    HW272664   2.219  11.977   2.355
23609SOL     OW72665  12.887   9.843  11.859
23609SOL    HW172666  12.853   9.885  11.938
23609SOL    HW272667  12.906   9.753  11.885
23610SOL     OW72668   3.185  13.268  12.265
23610SOL    HW172669   3.208  13.182  12.228
23610SOL    HW272670   3.259  13.289  12.323
23611SOL     OW72671   5.962   8.605   8.732
23611SOL    HW172672   5.944   8.517   8.699
23611SOL    HW272673   5.883   8.630   8.779
23612SOL     OW72674   3.466  12.665   8.382
23612SOL    HW172675   3.388  12.718   8.374
23612SOL    HW272676   3.433  12.578   8.407
23613SOL     OW72677  10.822  13.857   3.809
23613SOL    HW172678  10.914  13.877   3.790
23613SOL    HW272679  10.813  13.764   3.787
23614SOL     OW72680   3.460  13.697   4.787
23614SOL    HW172681   3.509  13.618   4.764
23614SOL    HW272682   3.501  13.728   4.867
23615SOL     OW72683  10.768  12.473  12.707
23615SOL    HW172684  10.799  12.506  12.791
23615SOL    HW272685  10.777  12.547  12.647
23616SOL     OW72686   9.048   8.101   0.743
23616SOL    HW172687   9.060   8.156   0.821
23616SOL    HW272688   8.991   8.030   0.772
23617SOL     OW72689  10.808   3.613   8.665
23617SOL    HW172690  10.729   3.584   8.711
23617SOL    HW272691  10.848   3.678   8.723
23618SOL     OW72692   9.994   3.231  10.325
23618SOL    HW172693   9.992   3.319  10.363
23618SOL    HW272694  10.064   3.186  10.372
23619SOL     OW72695   5.148   9.944   3.725
23619SOL    HW172696   5.062   9.972   3.693
23619SOL    HW272697   5.158   9.990   3.809
23620SOL     OW72698   0.279  10.369   3.157
23620SOL    HW172699   0.189  10.375   3.124
23620SOL    HW272700   0.274  10.402   3.247
23621SOL     OW72701   3.586   7.968   8.331
23621SOL    HW172702   3.590   8.032   8.260
23621SOL    HW272703   3.524   8.005   8.393
23622SOL     OW72704  13.323   6.883   0.100
23622SOL    HW172705  13.259   6.914   0.037
23622SOL    HW272706  13.282   6.805   0.139
23623SOL     OW72707   7.894   7.681   9.379
23623SOL    HW172708   7.922   7.760   9.427
23623SOL    HW272709   7.800   7.678   9.392
23624SOL     OW72710   8.026   8.840   1.371
23624SOL    HW172711   8.098   8.902   1.377
23624SOL    HW272712   7.997   8.846   1.280
23625SOL     OW72713   3.890   8.284   7.726
23625SOL    HW172714   3.817   8.346   7.727
23625SOL    HW272715   3.961   8.331   7.769
23626SOL     OW72716  13.317  10.518   3.566
23626SOL    HW172717  13.339  10.571   3.643
23626SOL    HW272718  13.388  10.454   3.562
23627SOL     OW72719   1.239  14.351  14.115
23627SOL    HW172720   1.192  14.326  14.195
23627SOL    HW272721   1.330  14.358  14.142
23628SOL     OW72722   1.242  13.745   0.384
23628SOL    HW172723   1.230  13.692   0.305
23628SOL    HW272724   1.191  13.700   0.451
23629SOL     OW72725   9.347  12.885   0.755
23629SOL    HW172726   9.311  12.970   0.783
23629SOL    HW272727   9.441  12.893   0.769
23630SOL     OW72728  10.179   3.419   9.930
23630SOL    HW172729  10.127   3.485   9.883
23630SOL    HW272730  10.232   3.378   9.862
23631SOL     OW72731  10.104  11.074  12.981
23631SOL    HW172732  10.134  11.061  13.071
23631SOL    HW272733  10.070  10.989  12.954
23632SOL     OW72734  11.938   7.156   5.085
23632SOL    HW172735  11.913   7.241   5.121
23632SOL    HW272736  11.900   7.154   4.998
23633SOL     OW72737   3.303   7.919   0.080
23633SOL    HW172738   3.398   7.916   0.066
23633SOL    HW272739   3.289   7.867   0.159
23634SOL     OW72740   8.264  12.236   9.740
23634SOL    HW172741   8.183  12.187   9.724
23634SOL    HW272742   8.333  12.170   9.731
23635SOL     OW72743   3.815  11.026   2.138
23635SOL    HW172744   3.887  10.967   2.118
23635SOL    HW272745   3.747  10.969   2.174
23636SOL     OW72746   3.699   8.900   9.531
23636SOL    HW172747   3.661   8.902   9.443
23636SOL    HW272748   3.705   8.807   9.552
23637SOL     OW72749   4.734  11.784   1.604
23637SOL    HW172750   4.704  11.699   1.571
23637SOL    HW272751   4.824  11.767   1.634
23638SOL     OW72752   4.195   3.156   9.123
23638SOL    HW172753   4.144   3.107   9.058
23638SOL    HW272754   4.239   3.089   9.175
23639SOL     OW72755   3.212   9.495   4.044
23639SOL    HW172756   3.226   9.589   4.053
23639SOL    HW272757   3.281   9.455   4.097
23640SOL     OW72758   7.462  12.842   3.907
23640SOL    HW172759   7.502  12.870   3.989
23640SOL    HW272760   7.435  12.924   3.865
23641SOL     OW72761  14.365  11.149  12.255
23641SOL    HW172762  14.460  11.135  12.257
23641SOL    HW272763  14.345  11.188  12.339
23642SOL     OW72764   0.904   2.067  11.512
23642SOL    HW172765   0.990   2.032  11.492
23642SOL    HW272766   0.913   2.107  11.598
23643SOL     OW72767   9.198   7.017   0.148
23643SOL    HW172768   9.141   7.074   0.096
23643SOL    HW272769   9.204   6.936   0.097
23644SOL     OW72770   0.014   6.385   3.330
23644SOL    HW172771   0.023   6.416   3.240
23644SOL    HW272772   0.086   6.323   3.342
23645SOL     OW72773   5.881   8.168   8.252
23645SOL    HW172774   5.804   8.225   8.254
23645SOL    HW272775   5.939   8.209   8.188
23646SOL     OW72776   0.144   6.669   7.094
23646SOL    HW172777   0.100   6.670   7.179
23646SOL    HW272778   0.085   6.716   7.035
23647SOL     OW72779   7.562   2.288   8.478
23647SOL    HW172780   7.500   2.349   8.518
23647SOL    HW272781   7.507   2.214   8.451
23648SOL     OW72782   2.004   4.790  10.821
23648SOL    HW172783   2.008   4.720  10.757
23648SOL    HW272784   2.052   4.757  10.897
23649SOL     OW72785  12.932   9.736   4.131
23649SOL    HW172786  12.983   9.656   4.116
23649SOL    HW272787  12.994   9.797   4.172
23650SOL     OW72788  10.911   2.394   6.599
23650SOL    HW172789  10.819   2.403   6.621
23650SOL    HW272790  10.911   2.348   6.515
23651SOL     OW72791   5.323   0.628  13.224
23651SOL    HW172792   5.392   0.595  13.282
23651SOL    HW272793   5.253   0.564  13.232
23652SOL     OW72794   1.475   9.307   5.849
23652SOL    HW172795   1.468   9.398   5.878
23652SOL    HW272796   1.567   9.284   5.867
23653SOL     OW72797   5.271   5.158   7.980
23653SOL    HW172798   5.178   5.145   7.962
23653SOL    HW272799   5.316   5.116   7.907
23654SOL     OW72800   4.298  13.110   7.074
23654SOL    HW172801   4.302  13.158   7.157
23654SOL    HW272802   4.226  13.048   7.084
23655SOL     OW72803   8.424   4.021   4.263
23655SOL    HW172804   8.349   4.055   4.215
23655SOL    HW272805   8.415   4.058   4.351
23656SOL     OW72806   1.957   0.152   2.955
23656SOL    HW172807   2.009   0.171   2.876
23656SOL    HW272808   1.889   0.093   2.924
23657SOL     OW72809   6.385   7.396   6.272
23657SOL    HW172810   6.443   7.415   6.346
23657SOL    HW272811   6.379   7.478   6.224
23658SOL     OW72812   5.217  11.640   3.627
23658SOL    HW172813   5.130  11.619   3.660
23658SOL    HW272814   5.226  11.734   3.641
23659SOL     OW72815  14.082  13.744  12.746
23659SOL    HW172816  14.092  13.831  12.707
23659SOL    HW272817  14.023  13.758  12.821
23660SOL     OW72818   0.883  10.750  11.101
23660SOL    HW172819   0.972  10.776  11.121
23660SOL    HW272820   0.841  10.741  11.187
23661SOL     OW72821   8.115   6.709   9.870
23661SOL    HW172822   8.108   6.637   9.808
23661SOL    HW272823   8.207   6.709   9.897
23662SOL     OW72824  11.339  14.114   3.675
23662SOL    HW172825  11.285  14.037   3.662
23662SOL    HW272826  11.413  14.084   3.728
23663SOL     OW72827   8.017   7.204   9.105
23663SOL    HW172828   8.112   7.193   9.105
23663SOL    HW272829   8.001   7.269   9.173
23664SOL     OW72830   2.563  10.716  12.667
23664SOL    HW172831   2.556  10.688  12.576
23664SOL    HW272832   2.545  10.810  12.665
23665SOL     OW72833   6.601  14.258   0.514
23665SOL    HW172834   6.506  14.261   0.523
23665SOL    HW272835   6.634  14.313   0.586
23666SOL     OW72836  14.564   2.922   1.008
23666SOL    HW172837  14.629   2.855   1.030
23666SOL    HW272838  14.481   2.888   1.042
23667SOL     OW72839   0.103   0.575   8.483
23667SOL    HW172840   0.083   0.553   8.574
23667SOL    HW272841   0.020   0.609   8.448
23668SOL     OW72842   7.124   7.726  13.622
23668SOL    HW172843   7.160   7.770  13.699
23668SOL    HW272844   7.155   7.778  13.548
23669SOL     OW72845  10.638  13.461   5.540
23669SOL    HW172846  10.661  13.546   5.503
23669SOL    HW272847  10.563  13.432   5.487
23670SOL     OW72848  10.108   3.864  11.340
23670SOL    HW172849  10.145   3.943  11.381
23670SOL    HW272850  10.077   3.811  11.414
23671SOL     OW72851  10.931  11.338   8.956
23671SOL    HW172852  10.954  11.248   8.929
23671SOL    HW272853  10.894  11.328   9.044
23672SOL     OW72854  13.814   9.269   3.299
23672SOL    HW172855  13.834   9.263   3.206
23672SOL    HW272856  13.721   9.291   3.302
23673SOL     OW72857   6.125   8.279   6.714
23673SOL    HW172858   6.039   8.277   6.673
23673SOL    HW272859   6.173   8.348   6.667
23674SOL     OW72860   2.129   2.778   9.373
23674SOL    HW172861   2.199   2.815   9.319
23674SOL    HW272862   2.125   2.836   9.450
23675SOL     OW72863   9.656   7.527  11.802
23675SOL    HW172864   9.658   7.536  11.707
23675SOL    HW272865   9.637   7.615  11.834
23676SOL     OW72866   2.661  11.595   5.353
23676SOL    HW172867   2.587  11.606   5.413
23676SOL    HW272868   2.722  11.538   5.401
23677SOL     OW72869  11.421  14.061  13.841
23677SOL    HW172870  11.389  14.145  13.808
23677SOL    HW272871  11.481  14.084  13.911
23678SOL     OW72872   1.215   0.004   6.719
23678SOL    HW172873   1.200   0.021   6.626
23678SOL    HW272874   1.310  14.875   6.726
23679SOL     OW72875   1.170  10.532   2.044
23679SOL    HW172876   1.082  10.548   2.009
23679SOL    HW272877   1.196  10.617   2.081
23680SOL     OW72878   0.189   9.491   5.548
23680SOL    HW172879   0.283   9.480   5.533
23680SOL    HW272880   0.160   9.405   5.579
23681SOL     OW72881  12.836  14.835   7.738
23681SOL    HW172882  12.841  14.743   7.761
23681SOL    HW272883  12.800  14.878   7.816
23682SOL     OW72884   1.930   6.398   7.206
23682SOL    HW172885   1.889   6.411   7.120
23682SOL    HW272886   1.987   6.322   7.194
23683SOL     OW72887   2.886   1.968  12.428
23683SOL    HW172888   2.797   1.955  12.462
23683SOL    HW272889   2.877   1.955  12.333
23684SOL     OW72890   3.829  10.408  10.492
23684SOL    HW172891   3.737  10.391  10.512
23684SOL    HW272892   3.865  10.443  10.573
23685SOL     OW72893   5.191   4.282  13.268
23685SOL    HW172894   5.274   4.311  13.304
23685SOL    HW272895   5.126   4.343  13.302
23686SOL     OW72896   7.525   1.512  13.292
23686SOL    HW172897   7.516   1.451  13.365
23686SOL    HW272898   7.453   1.574  13.305
23687SOL     OW72899  11.161   4.074  11.015
23687SOL    HW172900  11.129   4.144  10.958
23687SOL    HW272901  11.103   4.000  10.998
23688SOL     OW72902  12.348  13.801   9.836
23688SOL    HW172903  12.312  13.847   9.912
23688SOL    HW272904  12.273  13.754   9.799
23689SOL     OW72905  12.260   6.837   8.796
23689SOL    HW172906  12.220   6.760   8.837
23689SOL    HW272907  12.346   6.806   8.766
23690SOL     OW72908  10.105   6.379  12.808
23690SOL    HW172909  10.152   6.461  12.823
23690SOL    HW272910  10.087   6.378  12.714
23691SOL     OW72911  12.029   4.647  10.299
23691SOL    HW172912  12.050   4.701  10.376
23691SOL    HW272913  11.983   4.571  10.335
23692SOL     OW72914   4.065   6.100   0.405
23692SOL    HW172915   4.132   6.047   0.362
23692SOL    HW272916   4.009   6.130   0.333
23693SOL     OW72917   3.936  14.180  13.158
23693SOL    HW172918   3.970  14.107  13.210
23693SOL    HW272919   3.987  14.177  13.077
23694SOL     OW72920   9.552   4.837  13.038
23694SOL    HW172921   9.458   4.835  13.053
23694SOL    HW272922   9.565   4.907  12.973
23695SOL     OW72923  11.575  10.349  10.283
23695SOL    HW172924  11.490  10.371  10.247
23695SOL    HW272925  11.638  10.378  10.217
23696SOL     OW72926   5.456   3.793   1.210
23696SOL    HW172927   5.488   3.816   1.297
23696SOL    HW272928   5.523   3.827   1.151
23697SOL     OW72929  14.372  10.575   2.917
23697SOL    HW172930  14.280  10.575   2.890
23697SOL    HW272931  14.415  10.516   2.855
23698SOL     OW72932   3.956   3.702   1.771
23698SOL    HW172933   3.992   3.772   1.716
23698SOL    HW272934   3.878   3.740   1.811
23699SOL     OW72935   6.543  12.095   1.069
23699SOL    HW172936   6.573  12.029   1.133
23699SOL    HW272937   6.604  12.086   0.996
23700SOL     OW72938   2.596  11.732   6.145
23700SOL    HW172939   2.657  11.688   6.085
23700SOL    HW272940   2.556  11.661   6.195
23701SOL     OW72941  14.724  11.537   5.988
23701SOL    HW172942  14.661  11.473   5.957
23701SOL    HW272943  14.682  11.622   5.973
23702SOL     OW72944   6.651  14.821   1.486
23702SOL    HW172945   6.584  14.753   1.478
23702SOL    HW272946   6.714  14.786   1.549
23703SOL     OW72947   4.407   1.194   9.629
23703SOL    HW172948   4.393   1.134   9.702
23703SOL    HW272949   4.362   1.153   9.555
23704SOL     OW72950   9.272   6.367   9.780
23704SOL    HW172951   9.180   6.378   9.806
23704SOL    HW272952   9.304   6.297   9.836
23705SOL     OW72953  14.076   9.160  13.058
23705SOL    HW172954  14.027   9.092  13.011
23705SOL    HW272955  14.053   9.147  13.150
23706SOL     OW72956   3.358   9.247   0.097
23706SOL    HW172957   3.380   9.157   0.121
23706SOL    HW272958   3.439   9.296   0.111
23707SOL     OW72959   5.268  10.999   4.816
23707SOL    HW172960   5.203  11.017   4.749
23707SOL    HW272961   5.346  11.048   4.788
23708SOL     OW72962   5.265  10.114   8.275
23708SOL    HW172963   5.300  10.184   8.330
23708SOL    HW272964   5.247  10.156   8.191
23709SOL     OW72965   1.091   2.096   3.653
23709SOL    HW172966   1.178   2.122   3.622
23709SOL    HW272967   1.030   2.138   3.593
23710SOL     OW72968  10.171   4.845   1.253
23710SOL    HW172969  10.087   4.799   1.254
23710SOL    HW272970  10.189   4.859   1.160
23711SOL     OW72971   9.296  10.395   2.664
23711SOL    HW172972   9.238  10.329   2.626
23711SOL    HW272973   9.382  10.353   2.664
23712SOL     OW72974   1.657  13.010   7.906
23712SOL    HW172975   1.622  13.048   7.986
23712SOL    HW272976   1.661  12.916   7.923
23713SOL     OW72977   5.425   5.498  11.401
23713SOL    HW172978   5.438   5.427  11.464
23713SOL    HW272979   5.503   5.552  11.409
23714SOL     OW72980   0.015   1.872  12.903
23714SOL    HW172981  14.855   1.787  12.882
23714SOL    HW272982  14.870   1.887  12.994
23715SOL     OW72983   5.160   1.070   4.132
23715SOL    HW172984   5.148   1.153   4.177
23715SOL    HW272985   5.211   1.016   4.194
23716SOL     OW72986  11.737   1.578  10.462
23716SOL    HW172987  11.700   1.595  10.548
23716SOL    HW272988  11.678   1.513  10.423
23717SOL     OW72989   5.842   5.860  10.633
23717SOL    HW172990   5.799   5.848  10.548
23717SOL    HW272991   5.935   5.860  10.612
23718SOL     OW72992   0.314  14.114   1.360
23718SOL    HW172993   0.326  14.072   1.445
23718SOL    HW272994   0.219  14.115   1.346
23719SOL     OW72995   3.636   4.951   0.635
23719SOL    HW172996   3.643   5.036   0.679
23719SOL    HW272997   3.723   4.912   0.644
23720SOL     OW72998   4.707  12.992   1.797
23720SOL    HW172999   4.708  13.042   1.716
23720SOL    HW273000   4.799  12.985   1.822
23721SOL     OW73001   4.027   6.712   6.230
23721SOL    HW173002   3.979   6.641   6.187
23721SOL    HW273003   3.987   6.792   6.195
23722SOL     OW73004   8.964   1.940  14.326
23722SOL    HW173005   8.892   1.986  14.368
23722SOL    HW273006   9.006   1.891  14.397
23723SOL     OW73007   4.639   9.289  11.522
23723SOL    HW173008   4.583   9.253  11.591
23723SOL    HW273009   4.585   9.356  11.480
23724SOL     OW73010  13.570   4.493   6.865
23724SOL    HW173011  13.475   4.494   6.852
23724SOL    HW273012  13.605   4.470   6.779
23725SOL     OW73013   5.718  14.449   3.805
23725SOL    HW173014   5.719  14.369   3.751
23725SOL    HW273015   5.667  14.512   3.754
23726SOL     OW73016   7.495  11.093   6.782
23726SOL    HW173017   7.527  11.094   6.872
23726SOL    HW273018   7.401  11.082   6.790
23727SOL     OW73019  13.512  11.461   1.301
23727SOL    HW173020  13.604  11.432   1.306
23727SOL    HW273021  13.517  11.556   1.295
23728SOL     OW73022   4.319  11.068   3.611
23728SOL    HW173023   4.379  11.142   3.621
23728SOL    HW273024   4.362  11.010   3.548
23729SOL     OW73025   0.383   0.517   6.999
23729SOL    HW173026   0.317   0.548   6.936
23729SOL    HW273027   0.465   0.520   6.950
23730SOL     OW73028   0.683   9.068   5.168
23730SOL    HW173029   0.618   9.116   5.219
23730SOL    HW273030   0.741   9.029   5.234
23731SOL     OW73031   2.829   7.938   2.574
23731SOL    HW173032   2.844   7.900   2.487
23731SOL    HW273033   2.754   7.996   2.563
23732SOL     OW73034  14.558  11.986  13.409
23732SOL    HW173035  14.514  11.966  13.492
23732SOL    HW273036  14.525  11.921  13.348
23733SOL     OW73037   1.027   6.622   3.518
23733SOL    HW173038   0.958   6.577   3.567
23733SOL    HW273039   1.098   6.632   3.581
23734SOL     OW73040   2.117  13.054  10.434
23734SOL    HW173041   2.090  13.035  10.344
23734SOL    HW273042   2.132  13.148  10.436
23735SOL     OW73043   1.835   2.321  12.618
23735SOL    HW173044   1.869   2.279  12.697
23735SOL    HW273045   1.741   2.307  12.621
23736SOL     OW73046  13.130   2.619  14.440
23736SOL    HW173047  13.085   2.644  14.359
23736SOL    HW273048  13.062   2.622  14.507
23737SOL     OW73049   7.269   4.873   8.501
23737SOL    HW173050   7.299   4.859   8.591
23737SOL    HW273051   7.224   4.957   8.503
23738SOL     OW73052   8.445  13.676   0.793
23738SOL    HW173053   8.413  13.756   0.752
23738SOL    HW273054   8.438  13.693   0.887
23739SOL     OW73055   7.936   2.738  12.761
23739SOL    HW173056   7.907   2.767  12.848
23739SOL    HW273057   7.985   2.812  12.726
23740SOL     OW73058  14.757   6.251   5.655
23740SOL    HW173059  14.682   6.240   5.596
23740SOL    HW273060  14.723   6.226   5.741
23741SOL     OW73061   7.944   7.760   8.023
23741SOL    HW173062   7.970   7.696   8.089
23741SOL    HW273063   7.902   7.830   8.073
23742SOL     OW73064   7.310  14.321   9.202
23742SOL    HW173065   7.231  14.330   9.256
23742SOL    HW273066   7.304  14.232   9.167
23743SOL     OW73067  11.346   8.422   8.154
23743SOL    HW173068  11.345   8.338   8.109
23743SOL    HW273069  11.423   8.467   8.121
23744SOL     OW73070   3.522  10.925   6.810
23744SOL    HW173071   3.509  10.991   6.878
23744SOL    HW273072   3.552  10.847   6.857
23745SOL     OW73073  13.719   0.520  13.954
23745SOL    HW173074  13.736   0.426  13.949
23745SOL    HW273075  13.799   0.560  13.920
23746SOL     OW73076   3.399   3.720   6.362
23746SOL    HW173077   3.417   3.785   6.430
23746SOL    HW273078   3.346   3.654   6.405
23747SOL     OW73079   4.292   1.535   3.409
23747SOL    HW173080   4.342   1.611   3.377
23747SOL    HW273081   4.307   1.534   3.503
23748SOL     OW73082  11.449   5.636  14.593
23748SOL    HW173083  11.409   5.651  14.678
23748SOL    HW273084  11.453   5.540  14.585
23749SOL     OW73085   4.806  11.650   2.857
23749SOL    HW173086   4.898  11.628   2.871
23749SOL    HW273087   4.793  11.638   2.763
23750SOL     OW73088   5.101  10.262  10.183
23750SOL    HW173089   5.018  10.218  10.197
23750SOL    HW273090   5.166  10.203  10.221
23751SOL     OW73091  12.063   9.236   3.670
23751SOL    HW173092  12.095   9.325   3.684
23751SOL    HW273093  12.001   9.244   3.598
23752SOL     OW73094  13.480   2.395  13.946
23752SOL    HW173095  13.527   2.328  13.896
23752SOL    HW273096  13.449   2.349  14.024
23753SOL     OW73097  10.899   0.132   5.942
23753SOL    HW173098  10.974   0.090   5.900
23753SOL    HW273099  10.879   0.077   6.017
23754SOL     OW73100   7.094   9.217   1.363
23754SOL    HW173101   7.086   9.244   1.455
23754SOL    HW273102   7.165   9.270   1.329
23755SOL     OW73103   7.838  12.155   1.878
23755SOL    HW173104   7.793  12.083   1.922
23755SOL    HW273105   7.810  12.148   1.787
23756SOL     OW73106  14.466   8.688  12.719
23756SOL    HW173107  14.497   8.689  12.629
23756SOL    HW273108  14.530   8.634  12.766
23757SOL     OW73109  13.554  12.411   7.150
23757SOL    HW173110  13.480  12.466   7.175
23757SOL    HW273111  13.583  12.446   7.066
23758SOL     OW73112   2.573  11.624   9.451
23758SOL    HW173113   2.542  11.561   9.387
23758SOL    HW273114   2.660  11.649   9.421
23759SOL     OW73115   1.550  13.762  12.741
23759SOL    HW173116   1.605  13.839  12.730
23759SOL    HW273117   1.480  13.791  12.800
23760SOL     OW73118   5.342   3.037   5.712
23760SOL    HW173119   5.274   3.104   5.715
23760SOL    HW273120   5.293   2.954   5.712
23761SOL     OW73121  14.228  10.321  13.903
23761SOL    HW173122  14.163  10.367  13.851
23761SOL    HW273123  14.312  10.353  13.870
23762SOL     OW73124   3.661   3.548  12.563
23762SOL    HW173125   3.573   3.554  12.601
23762SOL    HW273126   3.702   3.476  12.609
23763SOL     OW73127  10.107  10.722   1.815
23763SOL    HW173128  10.133  10.742   1.905
23763SOL    HW273129  10.011  10.717   1.819
23764SOL     OW73130  13.557  12.447  13.180
23764SOL    HW173131  13.554  12.488  13.266
23764SOL    HW273132  13.516  12.511  13.121
23765SOL     OW73133   7.816  11.673   5.530
23765SOL    HW173134   7.895  11.685   5.478
23765SOL    HW273135   7.825  11.735   5.603
23766SOL     OW73136   7.832  14.748   2.475
23766SOL    HW173137   7.808  14.697   2.552
23766SOL    HW273138   7.772  14.823   2.476
23767SOL     OW73139   7.115   4.514   0.312
23767SOL    HW173140   7.161   4.474   0.238
23767SOL    HW273141   7.036   4.460   0.324
23768SOL     OW73142  11.199   3.518  14.285
23768SOL    HW173143  11.226   3.427  14.295
23768SOL    HW273144  11.113   3.513  14.243
23769SOL     OW73145  10.371   3.330   7.684
23769SOL    HW173146  10.282   3.351   7.713
23769SOL    HW273147  10.424   3.403   7.715
23770SOL     OW73148   5.363  14.656  12.231
23770SOL    HW173149   5.420  14.591  12.272
23770SOL    HW273150   5.421  14.728  12.209
23771SOL     OW73151   2.298  10.407  10.814
23771SOL    HW173152   2.361  10.377  10.749
23771SOL    HW273153   2.349  10.461  10.874
23772SOL     OW73154   1.381  13.763   2.210
23772SOL    HW173155   1.424  13.780   2.126
23772SOL    HW273156   1.387  13.846   2.257
23773SOL     OW73157  13.288   5.549   7.103
23773SOL    HW173158  13.248   5.626   7.143
23773SOL    HW273159  13.265   5.556   7.010
23774SOL     OW73160   1.054   5.930  13.282
23774SOL    HW173161   1.000   5.866  13.235
23774SOL    HW273162   1.029   6.015  13.244
23775SOL     OW73163   9.899   2.898   7.724
23775SOL    HW173164   9.970   2.864   7.779
23775SOL    HW273165   9.820   2.884   7.776
23776SOL     OW73166  11.415   5.079  14.095
23776SOL    HW173167  11.377   5.160  14.061
23776SOL    HW273168  11.375   5.068  14.182
23777SOL     OW73169   6.048  11.206  11.101
23777SOL    HW173170   6.072  11.124  11.144
23777SOL    HW273171   5.960  11.190  11.066
23778SOL     OW73172   8.486   9.929   9.351
23778SOL    HW173173   8.568   9.971   9.323
23778SOL    HW273174   8.492   9.840   9.318
23779SOL     OW73175   8.589  10.740   4.879
23779SOL    HW173176   8.581  10.660   4.826
23779SOL    HW273177   8.503  10.750   4.920
23780SOL     OW73178   7.884   2.072   0.020
23780SOL    HW173179   7.918   2.032  14.819
23780SOL    HW273180   7.893   2.166   0.005
23781SOL     OW73181   9.396  13.337  12.260
23781SOL    HW173182   9.334  13.410  12.261
23781SOL    HW273183   9.448  13.350  12.339
23782SOL     OW73184  14.089   7.155   4.087
23782SOL    HW173185  14.165   7.184   4.138
23782SOL    HW273186  14.120   7.153   3.996
23783SOL     OW73187  12.819   0.715   6.652
23783SOL    HW173188  12.841   0.653   6.583
23783SOL    HW273189  12.748   0.674   6.700
23784SOL     OW73190   1.642   3.770  12.456
23784SOL    HW173191   1.663   3.771  12.549
23784SOL    HW273192   1.616   3.859  12.436
23785SOL     OW73193   6.262   7.679   8.067
23785SOL    HW173194   6.300   7.694   8.153
23785SOL    HW273195   6.337   7.663   8.010
23786SOL     OW73196   8.929   3.686   3.700
23786SOL    HW173197   9.021   3.663   3.709
23786SOL    HW273198   8.929   3.759   3.638
23787SOL     OW73199  11.228   9.988   8.553
23787SOL    HW173200  11.213   9.965   8.461
23787SOL    HW273201  11.209   9.907   8.601
23788SOL     OW73202   7.509  11.170   4.687
23788SOL    HW173203   7.420  11.157   4.655
23788SOL    HW273204   7.527  11.263   4.672
23789SOL     OW73205  11.543   5.617  11.209
23789SOL    HW173206  11.511   5.673  11.139
23789SOL    HW273207  11.536   5.528  11.175
23790SOL     OW73208  11.051   2.523  13.529
23790SOL    HW173209  11.112   2.552  13.597
23790SOL    HW273210  11.097   2.451  13.485
23791SOL     OW73211   8.471   0.768   8.047
23791SOL    HW173212   8.409   0.745   8.117
23791SOL    HW273213   8.462   0.699   7.983
23792SOL     OW73214   0.191   2.785  12.295
23792SOL    HW173215   0.270   2.751  12.337
23792SOL    HW273216   0.223   2.842  12.225
23793SOL     OW73217   1.431   7.704   7.983
23793SOL    HW173218   1.429   7.653   8.064
23793SOL    HW273219   1.375   7.780   8.001
23794SOL     OW73220   1.276   8.069   6.914
23794SOL    HW173221   1.351   8.085   6.856
23794SOL    HW273222   1.282   8.136   6.982
23795SOL     OW73223   7.067   1.913  14.854
23795SOL    HW173224   7.131   1.867  14.799
23795SOL    HW273225   7.115   1.988   0.009
23796SOL     OW73226  10.027   5.673  10.584
23796SOL    HW173227  10.029   5.621  10.503
23796SOL    HW273228  10.117   5.705  10.593
23797SOL     OW73229   2.782   7.722  10.775
23797SOL    HW173230   2.696   7.760  10.794
23797SOL    HW273231   2.768   7.628  10.774
23798SOL     OW73232   9.466   0.941   1.542
23798SOL    HW173233   9.556   0.911   1.539
23798SOL    HW273234   9.424   0.886   1.609
23799SOL     OW73235  13.844  14.674  14.858
23799SOL    HW173236  13.898  14.655   0.054
23799SOL    HW273237  13.868  14.763  14.832
23800SOL     OW73238   2.497  13.316  14.215
23800SOL    HW173239   2.509  13.406  14.186
23800SOL    HW273240   2.519  13.263  14.139
23801SOL     OW73241  10.286   0.962   1.646
23801SOL    HW173242  10.276   1.025   1.574
23801SOL    HW273243  10.289   1.015   1.725
23802SOL     OW73244  13.677   3.150   9.849
23802SOL    HW173245  13.772   3.143   9.837
23802SOL    HW273246  13.642   3.158   9.761
23803SOL     OW73247   4.299  10.519   2.690
23803SOL    HW173248   4.355  10.588   2.727
23803SOL    HW273249   4.237  10.566   2.634
23804SOL     OW73250   9.054   1.435  11.225
23804SOL    HW173251   9.060   1.354  11.175
23804SOL    HW273252   9.144   1.469  11.226
23805SOL     OW73253   6.371   0.655   4.562
23805SOL    HW173254   6.282   0.626   4.542
23805SOL    HW273255   6.412   0.670   4.477
23806SOL     OW73256   3.179  12.544   9.506
23806SOL    HW173257   3.273  12.552   9.524
23806SOL    HW273258   3.165  12.451   9.490
23807SOL     OW73259   9.427   3.744   0.650
23807SOL    HW173260   9.442   3.838   0.642
23807SOL    HW273261   9.422   3.728   0.745
23808SOL     OW73262   9.743   1.298  10.998
23808SOL    HW173263   9.729   1.302  11.093
23808SOL    HW273264   9.655   1.280  10.962
23809SOL     OW73265   8.733  14.452   6.950
23809SOL    HW173266   8.689  14.533   6.923
23809SOL    HW273267   8.705  14.387   6.886
23810SOL     OW73268  10.063  14.051   6.457
23810SOL    HW173269  10.074  14.144   6.436
23810SOL    HW273270  10.031  14.050   6.547
23811SOL     OW73271  12.797  11.390   8.539
23811SOL    HW173272  12.802  11.432   8.453
23811SOL    HW273273  12.757  11.455   8.596
23812SOL     OW73274   1.552  12.927   3.793
23812SOL    HW173275   1.589  12.892   3.874
23812SOL    HW273276   1.584  13.017   3.789
23813SOL     OW73277   5.836  11.031   9.971
23813SOL    HW173278   5.779  11.101  10.004
23813SOL    HW273279   5.821  11.031   9.877
23814SOL     OW73280  10.248   4.748   4.908
23814SOL    HW173281  10.253   4.816   4.841
23814SOL    HW273282  10.262   4.666   4.861
23815SOL     OW73283   3.027  10.322   9.995
23815SOL    HW173284   3.004  10.373   9.917
23815SOL    HW273285   2.965  10.248   9.994
23816SOL     OW73286   1.301  12.204   6.443
23816SOL    HW173287   1.208  12.215   6.424
23816SOL    HW273288   1.343  12.275   6.395
23817SOL     OW73289   4.212   7.073   9.046
23817SOL    HW173290   4.266   7.151   9.037
23817SOL    HW273291   4.127   7.107   9.075
23818SOL     OW73292   7.661  12.785  12.205
23818SOL    HW173293   7.596  12.829  12.261
23818SOL    HW273294   7.611  12.757  12.128
23819SOL     OW73295   8.786  12.006   0.570
23819SOL    HW173296   8.725  12.014   0.497
23819SOL    HW273297   8.856  11.950   0.536
23820SOL     OW73298  14.652   3.977   7.081
23820SOL    HW173299  14.654   3.960   6.986
23820SOL    HW273300  14.738   3.949   7.112
23821SOL     OW73301   7.202  11.207  11.989
23821SOL    HW173302   7.115  11.222  12.027
23821SOL    HW273303   7.201  11.257  11.907
23822SOL     OW73304   1.848   9.041  12.885
23822SOL    HW173305   1.900   9.075  12.958
23822SOL    HW273306   1.899   9.064  12.807
23823SOL     OW73307   8.693   7.845  12.513
23823SOL    HW173308   8.611   7.818  12.473
23823SOL    HW273309   8.672   7.856  12.606
23824SOL     OW73310  13.963   2.652   6.871
23824SOL    HW173311  14.044   2.677   6.827
23824SOL    HW273312  13.925   2.585   6.815
23825SOL     OW73313   3.993  10.585   5.474
23825SOL    HW173314   4.045  10.635   5.411
23825SOL    HW273315   3.912  10.566   5.428
23826SOL     OW73316  13.951  10.293   2.151
23826SOL    HW173317  13.947  10.336   2.236
23826SOL    HW273318  14.028  10.236   2.156
23827SOL     OW73319   0.132   3.864  12.735
23827SOL    HW173320   0.052   3.854  12.683
23827SOL    HW273321   0.139   3.783  12.784
23828SOL     OW73322   8.594   8.440   2.375
23828SOL    HW173323   8.584   8.402   2.463
23828SOL    HW273324   8.661   8.507   2.386
23829SOL     OW73325   0.804   7.214  13.134
23829SOL    HW173326   0.714   7.224  13.104
23829SOL    HW273327   0.797   7.214  13.230
23830SOL     OW73328   1.192   8.293   8.092
23830SOL    HW173329   1.213   8.226   8.028
23830SOL    HW273330   1.099   8.312   8.078
23831SOL     OW73331   4.549  12.714   3.950
23831SOL    HW173332   4.468  12.664   3.964
23831SOL    HW273333   4.587  12.675   3.871
23832SOL     OW73334   3.953  14.460  13.174
23832SOL    HW173335   3.931  14.367  13.173
23832SOL    HW273336   3.983  14.477  13.263
23833SOL     OW73337   3.525  11.082   5.600
23833SOL    HW173338   3.531  11.060   5.693
23833SOL    HW273339   3.616  11.092   5.572
23834SOL     OW73340   9.437   3.711   1.212
23834SOL    HW173341   9.410   3.636   1.265
23834SOL    HW273342   9.528   3.727   1.238
23835SOL     OW73343   0.599   8.259  11.994
23835SOL    HW173344   0.694   8.243  11.993
23835SOL    HW273345   0.561   8.177  12.025
23836SOL     OW73346   5.021   0.488   2.782
23836SOL    HW173347   4.996   0.580   2.779
23836SOL    HW273348   5.108   0.486   2.742
23837SOL     OW73349   7.704  14.507   1.443
23837SOL    HW173350   7.628  14.453   1.462
23837SOL    HW273351   7.684  14.548   1.358
23838SOL     OW73352   8.635  10.117   5.098
23838SOL    HW173353   8.686  10.196   5.080
23838SOL    HW273354   8.612  10.124   5.191
23839SOL     OW73355   7.742   8.060  13.849
23839SOL    HW173356   7.830   8.081  13.819
23839SOL    HW273357   7.740   7.964  13.853
23840SOL     OW73358  10.291  10.149  12.013
23840SOL    HW173359  10.368  10.093  12.016
23840SOL    HW273360  10.244  10.129  12.094
23841SOL     OW73361  11.520   3.577   7.536
23841SOL    HW173362  11.563   3.662   7.521
23841SOL    HW273363  11.430   3.600   7.559
23842SOL     OW73364  12.472  10.887  14.818
23842SOL    HW173365  12.445  10.911   0.028
23842SOL    HW273366  12.561  10.921  14.811
23843SOL     OW73367  12.056   3.132  10.816
23843SOL    HW173368  12.004   3.092  10.885
23843SOL    HW273369  12.060   3.066  10.747
23844SOL     OW73370   2.912   4.854   3.806
23844SOL    HW173371   2.964   4.887   3.733
23844SOL    HW273372   2.927   4.760   3.806
23845SOL     OW73373   6.776  11.334  13.380
23845SOL    HW173374   6.798  11.293  13.297
23845SOL    HW273375   6.837  11.296  13.444
23846SOL     OW73376  13.443  13.060   7.001
23846SOL    HW173377  13.399  12.986   7.040
23846SOL    HW273378  13.439  13.044   6.907
23847SOL     OW73379  14.217   1.327   7.305
23847SOL    HW173380  14.217   1.251   7.247
23847SOL    HW273381  14.304   1.327   7.344
23848SOL     OW73382   3.640   2.417   5.900
23848SOL    HW173383   3.555   2.373   5.906
23848SOL    HW273384   3.684   2.395   5.983
23849SOL     OW73385  13.220   4.932   7.144
23849SOL    HW173386  13.174   5.016   7.138
23849SOL    HW273387  13.274   4.940   7.223
23850SOL     OW73388   8.155  13.933   2.535
23850SOL    HW173389   8.203  13.915   2.615
23850SOL    HW273390   8.162  14.027   2.522
23851SOL     OW73391  12.241   6.475   2.211
23851SOL    HW173392  12.157   6.519   2.210
23851SOL    HW273393  12.221   6.383   2.194
23852SOL     OW73394   2.644   4.824  11.710
23852SOL    HW173395   2.720   4.766  11.706
23852SOL    HW273396   2.570   4.765  11.727
23853SOL     OW73397   5.157  13.696  13.920
23853SOL    HW173398   5.135  13.603  13.916
23853SOL    HW273399   5.235  13.700  13.975
23854SOL     OW73400   8.461   7.129   2.524
23854SOL    HW173401   8.376   7.171   2.538
23854SOL    HW273402   8.522   7.182   2.575
23855SOL     OW73403   2.334   1.680   9.241
23855SOL    HW173404   2.289   1.596   9.232
23855SOL    HW273405   2.425   1.661   9.219
23856SOL     OW73406  13.551   5.883  11.487
23856SOL    HW173407  13.604   5.861  11.564
23856SOL    HW273408  13.471   5.832  11.497
23857SOL     OW73409  10.468   2.242  10.395
23857SOL    HW173410  10.438   2.264  10.307
23857SOL    HW273411  10.437   2.152  10.410
23858SOL     OW73412  12.416   2.687   2.601
23858SOL    HW173413  12.498   2.728   2.627
23858SOL    HW273414  12.443   2.613   2.546
23859SOL     OW73415  14.837   3.681   6.836
23859SOL    HW173416   0.027   3.687   6.902
23859SOL    HW273417   0.004   3.666   6.754
23860SOL     OW73418   8.983  13.231  10.808
23860SOL    HW173419   8.946  13.212  10.722
23860SOL    HW273420   9.011  13.146  10.841
23861SOL     OW73421   3.268   1.102   1.359
23861SOL    HW173422   3.229   1.106   1.272
23861SOL    HW273423   3.201   1.058   1.413
23862SOL     OW73424   7.303   3.777   6.664
23862SOL    HW173425   7.351   3.807   6.742
23862SOL    HW273426   7.347   3.697   6.638
23863SOL     OW73427   1.551   3.286   5.343
23863SOL    HW173428   1.581   3.373   5.367
23863SOL    HW273429   1.631   3.236   5.328
23864SOL     OW73430   7.225  13.263  14.434
23864SOL    HW173431   7.238  13.177  14.473
23864SOL    HW273432   7.305  13.312  14.454
23865SOL     OW73433  10.848  13.057   6.795
23865SOL    HW173434  10.810  13.108   6.867
23865SOL    HW273435  10.942  13.076   6.800
23866SOL     OW73436   9.035  10.104   6.530
23866SOL    HW173437   8.951  10.147   6.545
23866SOL    HW273438   9.099  10.175   6.528
23867SOL     OW73439   1.336   5.282   0.708
23867SOL    HW173440   1.251   5.239   0.702
23867SOL    HW273441   1.388   5.224   0.766
23868SOL     OW73442   6.339   3.865  13.484
23868SOL    HW173443   6.282   3.941  13.470
23868SOL    HW273444   6.351   3.827  13.396
23869SOL     OW73445  11.237  12.478   7.865
23869SOL    HW173446  11.158  12.480   7.812
23869SOL    HW273447  11.293  12.413   7.822
23870SOL     OW73448   8.697  14.704  13.250
23870SOL    HW173449   8.747  14.727  13.171
23870SOL    HW273450   8.725  14.614  13.271
23871SOL     OW73451  12.459   6.850   8.427
23871SOL    HW173452  12.469   6.773   8.483
23871SOL    HW273453  12.440   6.921   8.488
23872SOL     OW73454   9.808  10.201   2.585
23872SOL    HW173455   9.848  10.118   2.558
23872SOL    HW273456   9.832  10.262   2.515
23873SOL     OW73457  12.809   6.517  14.471
23873SOL    HW173458  12.847   6.518  14.559
23873SOL    HW273459  12.884   6.513  14.412
23874SOL     OW73460  10.625   7.372   5.839
23874SOL    HW173461  10.639   7.305   5.772
23874SOL    HW273462  10.600   7.450   5.790
23875SOL     OW73463  11.139   6.506  12.508
23875SOL    HW173464  11.146   6.598  12.484
23875SOL    HW273465  11.050   6.481  12.486
23876SOL     OW73466   0.263  10.838   2.321
23876SOL    HW173467   0.302  10.817   2.406
23876SOL    HW273468   0.289  10.764   2.265
23877SOL     OW73469   7.776  13.245  12.814
23877SOL    HW173470   7.844  13.281  12.871
23877SOL    HW273471   7.812  13.255  12.725
23878SOL     OW73472  11.021   5.954  11.042
23878SOL    HW173473  10.978   5.869  11.028
23878SOL    HW273474  11.098   5.933  11.095
23879SOL     OW73475  10.621  14.777   0.847
23879SOL    HW173476  10.692  14.713   0.855
23879SOL    HW273477  10.655  14.843   0.787
23880SOL     OW73478  13.548  10.908   0.781
23880SOL    HW173479  13.563  10.942   0.869
23880SOL    HW273480  13.458  10.876   0.782
23881SOL     OW73481  13.541  11.166  13.206
23881SOL    HW173482  13.563  11.210  13.288
23881SOL    HW273483  13.524  11.237  13.144
23882SOL     OW73484  10.174   2.081   7.649
23882SOL    HW173485  10.242   2.125   7.596
23882SOL    HW273486  10.222   2.044   7.723
23883SOL     OW73487  10.552   4.516   6.610
23883SOL    HW173488  10.620   4.461   6.649
23883SOL    HW273489  10.565   4.506   6.515
23884SOL     OW73490  10.072  12.517   0.654
23884SOL    HW173491  10.123  12.564   0.719
23884SOL    HW273492  10.125  12.440   0.633
23885SOL     OW73493   4.031  11.113  13.823
23885SOL    HW173494   4.110  11.144  13.779
23885SOL    HW273495   4.041  11.142  13.914
23886SOL     OW73496  11.015   0.355   4.742
23886SOL    HW173497  10.921   0.373   4.754
23886SOL    HW273498  11.020   0.260   4.730
23887SOL     OW73499   7.185   4.771   3.339
23887SOL    HW173500   7.226   4.685   3.334
23887SOL    HW273501   7.132   4.778   3.259
23888SOL     OW73502   3.198   2.833   4.996
23888SOL    HW173503   3.280   2.799   4.960
23888SOL    HW273504   3.179   2.776   5.070
23889SOL     OW73505   0.111   5.280   9.522
23889SOL    HW173506   0.049   5.311   9.456
23889SOL    HW273507   0.157   5.359   9.551
23890SOL     OW73508   5.453   1.707   4.255
23890SOL    HW173509   5.504   1.683   4.332
23890SOL    HW273510   5.434   1.801   4.267
23891SOL     OW73511   4.648   7.754  13.760
23891SOL    HW173512   4.596   7.834  13.771
23891SOL    HW273513   4.717   7.761  13.826
23892SOL     OW73514   4.461   3.549  14.339
23892SOL    HW173515   4.524   3.479  14.318
23892SOL    HW273516   4.510   3.609  14.395
23893SOL     OW73517  13.524   4.432  11.825
23893SOL    HW173518  13.479   4.470  11.750
23893SOL    HW273519  13.574   4.359  11.789
23894SOL     OW73520  12.155   6.201   6.477
23894SOL    HW173521  12.206   6.121   6.463
23894SOL    HW273522  12.189   6.263   6.413
23895SOL     OW73523   9.303  10.305  12.306
23895SOL    HW173524   9.248  10.253  12.365
23895SOL    HW273525   9.243  10.371  12.270
23896SOL     OW73526   5.479   4.971  12.707
23896SOL    HW173527   5.430   4.922  12.641
23896SOL    HW273528   5.507   5.051  12.662
23897SOL     OW73529  11.561   3.084   5.518
23897SOL    HW173530  11.619   3.112   5.447
23897SOL    HW273531  11.504   3.018   5.478
23898SOL     OW73532  13.991   1.657   7.527
23898SOL    HW173533  13.918   1.698   7.481
23898SOL    HW273534  14.067   1.672   7.471
23899SOL     OW73535   5.136  11.804   2.092
23899SOL    HW173536   5.108  11.723   2.049
23899SOL    HW273537   5.138  11.782   2.185
23900SOL     OW73538   7.155  14.069  10.758
23900SOL    HW173539   7.192  13.991  10.717
23900SOL    HW273540   7.121  14.039  10.842
23901SOL     OW73541  12.265  10.512   1.394
23901SOL    HW173542  12.358  10.500   1.417
23901SOL    HW273543  12.218  10.499   1.476
23902SOL     OW73544  13.506   9.451   8.205
23902SOL    HW173545  13.591   9.408   8.214
23902SOL    HW273546  13.453   9.390   8.155
23903SOL     OW73547   5.665  13.185   0.621
23903SOL    HW173548   5.654  13.188   0.526
23903SOL    HW273549   5.596  13.126   0.651
23904SOL     OW73550   8.106   2.030   6.134
23904SOL    HW173551   8.062   1.965   6.189
23904SOL    HW273552   8.175   1.980   6.090
23905SOL     OW73553  13.677   3.794   7.749
23905SOL    HW173554  13.676   3.730   7.678
23905SOL    HW273555  13.691   3.743   7.828
23906SOL     OW73556  14.522   2.600   8.012
23906SOL    HW173557  14.454   2.560   7.957
23906SOL    HW273558  14.603   2.558   7.983
23907SOL     OW73559   4.681   5.672   3.753
23907SOL    HW173560   4.604   5.653   3.807
23907SOL    HW273561   4.655   5.645   3.664
23908SOL     OW73562   2.574   2.080   7.334
23908SOL    HW173563   2.612   2.131   7.262
23908SOL    HW273564   2.483   2.063   7.307
23909SOL     OW73565   7.743   9.894   9.449
23909SOL    HW173566   7.672   9.871   9.390
23909SOL    HW273567   7.796   9.956   9.400
23910SOL     OW73568   2.382   9.262  10.132
23910SOL    HW173569   2.311   9.254  10.196
23910SOL    HW273570   2.352   9.212  10.056
23911SOL     OW73571   0.411   7.577  11.912
23911SOL    HW173572   0.494   7.561  11.957
23911SOL    HW273573   0.432   7.571  11.819
23912SOL     OW73574   2.073   8.787   3.187
23912SOL    HW173575   2.049   8.866   3.236
23912SOL    HW273576   2.000   8.727   3.200
23913SOL     OW73577   6.309   3.363   4.677
23913SOL    HW173578   6.253   3.304   4.627
23913SOL    HW273579   6.248   3.422   4.722
23914SOL     OW73580   7.084   2.149  14.674
23914SOL    HW173581   7.067   2.193  14.591
23914SOL    HW273582   7.172   2.111  14.663
23915SOL     OW73583   5.120  12.038   0.174
23915SOL    HW173584   5.170  12.056   0.253
23915SOL    HW273585   5.065  12.115   0.163
23916SOL     OW73586   8.886   0.181  13.303
23916SOL    HW173587   8.818   0.164  13.237
23916SOL    HW273588   8.837   0.205  13.382
23917SOL     OW73589   6.544  10.632  12.757
23917SOL    HW173590   6.635  10.662  12.760
23917SOL    HW273591   6.516  10.631  12.848
23918SOL     OW73592   7.758   5.063  13.621
23918SOL    HW173593   7.693   4.998  13.646
23918SOL    HW273594   7.822   5.015  13.568
23919SOL     OW73595   8.934  13.141   5.070
23919SOL    HW173596   8.928  13.224   5.116
23919SOL    HW273597   8.853  13.095   5.093
23920SOL     OW73598  14.869  11.244   4.904
23920SOL    HW173599  14.825  11.204   4.829
23920SOL    HW273600   0.029  11.170   4.950
23921SOL     OW73601   5.208  10.883   5.782
23921SOL    HW173602   5.280  10.944   5.799
23921SOL    HW273603   5.173  10.912   5.697
23922SOL     OW73604  13.701   9.733   6.305
23922SOL    HW173605  13.741   9.648   6.285
23922SOL    HW273606  13.766   9.780   6.356
23923SOL     OW73607   7.401  12.458   1.388
23923SOL    HW173608   7.407  12.496   1.300
23923SOL    HW273609   7.332  12.392   1.380
23924SOL     OW73610   8.115  11.818   8.462
23924SOL    HW173611   8.130  11.736   8.414
23924SOL    HW273612   8.118  11.793   8.554
23925SOL     OW73613  10.651  10.736  10.962
23925SOL    HW173614  10.576  10.677  10.966
23925SOL    HW273615  10.694  10.726  11.047
23926SOL     OW73616   9.648   4.419   3.711
23926SOL    HW173617   9.690   4.412   3.797
23926SOL    HW273618   9.654   4.330   3.674
23927SOL     OW73619   2.060   8.087  13.544
23927SOL    HW173620   2.121   8.134  13.487
23927SOL    HW273621   2.084   8.113  13.632
23928SOL     OW73622  10.746  14.287   2.651
23928SOL    HW173623  10.744  14.256   2.561
23928SOL    HW273624  10.836  14.316   2.664
23929SOL     OW73625   2.303   1.048  13.361
23929SOL    HW173626   2.268   1.137  13.365
23929SOL    HW273627   2.227   0.994  13.342
23930SOL     OW73628   3.529   2.316   4.084
23930SOL    HW173629   3.447   2.267   4.073
23930SOL    HW273630   3.542   2.361   4.001
23931SOL     OW73631   2.142  12.222   9.985
23931SOL    HW173632   2.146  12.180   9.899
23931SOL    HW273633   2.174  12.311   9.969
23932SOL     OW73634   1.449   7.843   5.077
23932SOL    HW173635   1.394   7.922   5.084
23932SOL    HW273636   1.465   7.834   4.983
23933SOL     OW73637   3.265   5.544  11.706
23933SOL    HW173638   3.314   5.485  11.763
23933SOL    HW273639   3.234   5.613  11.764
23934SOL     OW73640   5.191   4.793   7.515
23934SOL    HW173641   5.185   4.733   7.441
23934SOL    HW273642   5.194   4.737   7.592
23935SOL     OW73643   9.332   5.961   4.677
23935SOL    HW173644   9.293   5.874   4.689
23935SOL    HW273645   9.379   5.977   4.759
23936SOL     OW73646   4.976   3.391  11.583
23936SOL    HW173647   4.978   3.395  11.679
23936SOL    HW273648   4.886   3.412  11.560
23937SOL     OW73649   1.143   9.018   4.878
23937SOL    HW173650   1.138   9.114   4.879
23937SOL    HW273651   1.053   8.989   4.866
23938SOL     OW73652   8.180   6.093   9.797
23938SOL    HW173653   8.245   6.064   9.734
23938SOL    HW273654   8.096   6.084   9.751
23939SOL     OW73655   5.771  14.704   2.326
23939SOL    HW173656   5.838  14.738   2.266
23939SOL    HW273657   5.815  14.631   2.370
23940SOL     OW73658   3.332  13.881   9.321
23940SOL    HW173659   3.404  13.833   9.363
23940SOL    HW273660   3.376  13.952   9.273
23941SOL     OW73661   1.602  11.766   3.160
23941SOL    HW173662   1.558  11.691   3.121
23941SOL    HW273663   1.660  11.799   3.091
23942SOL     OW73664   9.679   9.650   0.684
23942SOL    HW173665   9.593   9.658   0.725
23942SOL    HW273666   9.671   9.702   0.604
23943SOL     OW73667  12.406  14.188   4.507
23943SOL    HW173668  12.375  14.234   4.429
23943SOL    HW273669  12.447  14.108   4.473
23944SOL     OW73670   4.752   4.883   6.719
23944SOL    HW173671   4.801   4.952   6.763
23944SOL    HW273672   4.670   4.925   6.693
23945SOL     OW73673   7.965  14.620   5.423
23945SOL    HW173674   7.965  14.648   5.331
23945SOL    HW273675   7.988  14.528   5.420
23946SOL     OW73676   3.145   2.123   5.664
23946SOL    HW173677   3.058   2.142   5.629
23946SOL    HW273678   3.143   2.029   5.685
23947SOL     OW73679   8.404   8.996  11.529
23947SOL    HW173680   8.359   9.061  11.583
23947SOL    HW273681   8.493   9.030  11.520
23948SOL     OW73682   2.668   7.408  11.795
23948SOL    HW173683   2.709   7.492  11.775
23948SOL    HW273684   2.692   7.391  11.886
23949SOL     OW73685   3.510   4.903   2.469
23949SOL    HW173686   3.506   4.862   2.555
23949SOL    HW273687   3.594   4.950   2.469
23950SOL     OW73688  12.529  13.203  14.377
23950SOL    HW173689  12.607  13.170  14.334
23950SOL    HW273690  12.502  13.133  14.436
23951SOL     OW73691   0.760  14.686  11.468
23951SOL    HW173692   0.703  14.761  11.451
23951SOL    HW273693   0.731  14.619  11.406
23952SOL     OW73694  14.809   2.544   5.693
23952SOL    HW173695  14.719   2.558   5.720
23952SOL    HW273696  14.862   2.585   5.761
23953SOL     OW73697   4.861  10.830   8.860
23953SOL    HW173698   4.804  10.879   8.801
23953SOL    HW273699   4.804  10.764   8.899
23954SOL     OW73700  13.502   5.075  10.199
23954SOL    HW173701  13.522   5.114  10.284
23954SOL    HW273702  13.567   5.005  10.189
23955SOL     OW73703  14.853   8.895   3.659
23955SOL    HW173704   0.045   8.948   3.694
23955SOL    HW273705   0.017   8.819   3.620
23956SOL     OW73706   5.538  12.216  12.735
23956SOL    HW173707   5.448  12.187  12.751
23956SOL    HW273708   5.535  12.311  12.749
23957SOL     OW73709   6.657   2.650  10.315
23957SOL    HW173710   6.611   2.566  10.315
23957SOL    HW273711   6.693   2.657  10.404
23958SOL     OW73712   0.922   1.047  10.652
23958SOL    HW173713   0.890   1.094  10.729
23958SOL    HW273714   0.959   0.966  10.687
23959SOL     OW73715  14.660   9.308  10.384
23959SOL    HW173716  14.583   9.268  10.423
23959SOL    HW273717  14.625   9.372  10.322
23960SOL     OW73718  13.719  11.277   6.037
23960SOL    HW173719  13.733  11.318   6.122
23960SOL    HW273720  13.765  11.193   6.042
23961SOL     OW73721  12.062  10.168   2.082
23961SOL    HW173722  12.065  10.074   2.067
23961SOL    HW273723  12.000  10.180   2.154
23962SOL     OW73724  10.047   2.074  14.567
23962SOL    HW173725  10.082   2.044  14.651
23962SOL    HW273726  10.014   1.994  14.525
23963SOL     OW73727   0.563   5.800   1.739
23963SOL    HW173728   0.618   5.730   1.774
23963SOL    HW273729   0.474   5.773   1.758
23964SOL     OW73730   3.985   9.211  10.655
23964SOL    HW173731   3.980   9.188  10.748
23964SOL    HW273732   3.986   9.306  10.654
23965SOL     OW73733   6.547   3.322   6.360
23965SOL    HW173734   6.567   3.236   6.397
23965SOL    HW273735   6.555   3.382   6.434
23966SOL     OW73736   6.869   9.013   0.391
23966SOL    HW173737   6.929   9.085   0.370
23966SOL    HW273738   6.853   9.022   0.485
23967SOL     OW73739   6.130  13.633  14.467
23967SOL    HW173740   6.122  13.639  14.372
23967SOL    HW273741   6.049  13.591  14.495
23968SOL     OW73742   3.251   5.787   2.919
23968SOL    HW173743   3.332   5.749   2.884
23968SOL    HW273744   3.196   5.712   2.938
23969SOL     OW73745   9.643  10.258   7.817
23969SOL    HW173746   9.650  10.341   7.770
23969SOL    HW273747   9.644  10.283   7.909
23970SOL     OW73748   6.998   3.597  14.108
23970SOL    HW173749   7.034   3.645  14.182
23970SOL    HW273750   6.946   3.661  14.060
23971SOL     OW73751  14.223   3.904   9.306
23971SOL    HW173752  14.275   3.950   9.372
23971SOL    HW273753  14.181   3.833   9.354
23972SOL     OW73754  11.285   6.485   5.710
23972SOL    HW173755  11.281   6.577   5.682
23972SOL    HW273756  11.203   6.447   5.678
23973SOL     OW73757  14.423   7.908   8.203
23973SOL    HW173758  14.337   7.927   8.240
23973SOL    HW273759  14.417   7.817   8.173
23974SOL     OW73760   8.163  11.162  10.088
23974SOL    HW173761   8.248  11.204  10.077
23974SOL    HW273762   8.178  11.070  10.065
23975SOL     OW73763  11.105  14.032   7.784
23975SOL    HW173764  11.143  13.945   7.796
23975SOL    HW273765  11.116  14.051   7.691
23976SOL     OW73766   7.765   5.775  10.691
23976SOL    HW173767   7.854   5.743  10.673
23976SOL    HW273768   7.707   5.712  10.649
23977SOL     OW73769  11.335  12.250   6.820
23977SOL    HW173770  11.359  12.177   6.763
23977SOL    HW273771  11.417  12.279   6.859
23978SOL     OW73772  10.575   3.102   0.007
23978SOL    HW173773  10.620   3.027  14.848
23978SOL    HW273774  10.555   3.075   0.097
23979SOL     OW73775   7.336   5.074  13.638
23979SOL    HW173776   7.322   5.164  13.668
23979SOL    HW273777   7.372   5.085  13.549
23980SOL     OW73778   4.210   7.321   4.580
23980SOL    HW173779   4.236   7.242   4.628
23980SOL    HW273780   4.168   7.376   4.646
23981SOL     OW73781   0.864  13.819   3.341
23981SOL    HW173782   0.862  13.874   3.420
23981SOL    HW273783   0.955  13.824   3.311
23982SOL     OW73784   3.714   9.347   1.862
23982SOL    HW173785   3.735   9.423   1.807
23982SOL    HW273786   3.620   9.333   1.850
23983SOL     OW73787  14.196  10.309   0.445
23983SOL    HW173788  14.176  10.255   0.369
23983SOL    HW273789  14.291  10.319   0.444
23984SOL     OW73790  11.809  14.012  10.543
23984SOL    HW173791  11.763  13.959  10.608
23984SOL    HW273792  11.841  14.088  10.591
23985SOL     OW73793  11.007   0.070  10.215
23985SOL    HW173794  11.077   0.019  10.256
23985SOL    HW273795  10.976   0.127  10.285
23986SOL     OW73796   8.719   0.985  14.574
23986SOL    HW173797   8.743   1.065  14.527
23986SOL    HW273798   8.640   1.008  14.623
23987SOL     OW73799   5.817   7.167   1.888
23987SOL    HW173800   5.869   7.118   1.951
23987SOL    HW273801   5.881   7.204   1.827
23988SOL     OW73802   5.133  14.685  14.784
23988SOL    HW173803   5.076  14.762  14.782
23988SOL    HW273804   5.222  14.721  14.780
23989SOL     OW73805   8.236   6.671   4.971
23989SOL    HW173806   8.322   6.674   5.013
23989SOL    HW273807   8.244   6.731   4.896
23990SOL     OW73808  10.784  11.929  14.522
23990SOL    HW173809  10.693  11.911  14.546
23990SOL    HW273810  10.835  11.859  14.564
23991SOL     OW73811   7.697   7.036   1.957
23991SOL    HW173812   7.655   6.984   1.889
23991SOL    HW273813   7.790   7.037   1.932
23992SOL     OW73814   5.512  14.621   8.115
23992SOL    HW173815   5.479  14.666   8.192
23992SOL    HW273816   5.434  14.594   8.067
23993SOL     OW73817   6.678  14.129   8.634
23993SOL    HW173818   6.762  14.119   8.589
23993SOL    HW273819   6.693  14.197   8.699
23994SOL     OW73820   6.399   4.130   3.998
23994SOL    HW173821   6.480   4.117   3.949
23994SOL    HW273822   6.373   4.220   3.978
23995SOL     OW73823   8.698   8.990   3.356
23995SOL    HW173824   8.791   8.976   3.336
23995SOL    HW273825   8.696   9.008   3.450
23996SOL     OW73826   2.023   3.884  11.977
23996SOL    HW173827   2.069   3.940  11.915
23996SOL    HW273828   1.945   3.934  12.002
23997SOL     OW73829  10.130   0.942  13.882
23997SOL    HW173830  10.142   0.996  13.804
23997SOL    HW273831  10.216   0.904  13.899
23998SOL     OW73832   8.521  11.577  14.687
23998SOL    HW173833   8.482  11.651  14.734
23998SOL    HW273834   8.514  11.601  14.594
23999SOL     OW73835   0.208  10.895   9.754
23999SOL    HW173836   0.245  10.889   9.842
23999SOL    HW273837   0.118  10.863   9.763
24000SOL     OW73838  11.104   9.351   3.823
24000SOL    HW173839  11.134   9.333   3.912
24000SOL    HW273840  11.088   9.264   3.786
24001SOL     OW73841  14.254  14.658   0.456
24001SOL    HW173842  14.299  14.575   0.469
24001SOL    HW273843  14.181  14.637   0.398
24002SOL     OW73844   7.430   2.748   1.291
24002SOL    HW173845   7.510   2.703   1.318
24002SOL    HW273846   7.412   2.713   1.204
24003SOL     OW73847   7.952   3.665   6.328
24003SOL    HW173848   8.035   3.708   6.352
24003SOL    HW273849   7.892   3.737   6.310
24004SOL     OW73850  12.322   4.147   5.205
24004SOL    HW173851  12.312   4.132   5.110
24004SOL    HW273852  12.247   4.201   5.229
24005SOL     OW73853  12.449   1.900   6.659
24005SOL    HW173854  12.436   1.992   6.680
24005SOL    HW273855  12.524   1.899   6.599
24006SOL     OW73856   6.808   0.421   1.955
24006SOL    HW173857   6.792   0.334   1.990
24006SOL    HW273858   6.855   0.467   2.025
24007SOL     OW73859  10.576   0.616   1.132
24007SOL    HW173860  10.557   0.659   1.215
24007SOL    HW273861  10.669   0.635   1.115
24008SOL     OW73862   4.940   5.285  12.245
24008SOL    HW173863   5.032   5.276  12.220
24008SOL    HW273864   4.924   5.380  12.242
24009SOL     OW73865   7.858   5.391   6.955
24009SOL    HW173866   7.910   5.467   6.929
24009SOL    HW273867   7.898   5.361   7.036
24010SOL     OW73868  11.627  12.855   8.950
24010SOL    HW173869  11.620  12.776   8.896
24010SOL    HW273870  11.720  12.861   8.970
24011SOL     OW73871  12.051   5.120  13.724
24011SOL    HW173872  12.073   5.135  13.632
24011SOL    HW273873  12.124   5.070  13.758
24012SOL     OW73874  12.238   4.281   7.333
24012SOL    HW173875  12.249   4.218   7.262
24012SOL    HW273876  12.171   4.242   7.390
24013SOL     OW73877  13.509  12.048   7.358
24013SOL    HW173878  13.571  12.084   7.295
24013SOL    HW273879  13.503  11.955   7.334
24014SOL     OW73880  14.027   1.954  10.247
24014SOL    HW173881  14.099   1.901  10.214
24014SOL    HW273882  13.975   1.893  10.300
24015SOL     OW73883   3.419   1.960   6.860
24015SOL    HW173884   3.348   1.914   6.816
24015SOL    HW273885   3.438   2.034   6.802
24016SOL     OW73886  14.559   0.459   2.322
24016SOL    HW173887  14.524   0.542   2.353
24016SOL    HW273888  14.601   0.420   2.399
24017SOL     OW73889   8.648   1.651  11.521
24017SOL    HW173890   8.575   1.706  11.549
24017SOL    HW273891   8.704   1.642  11.599
24018SOL     OW73892   1.648   1.870   7.767
24018SOL    HW173893   1.722   1.918   7.803
24018SOL    HW273894   1.576   1.888   7.827
24019SOL     OW73895  10.102   8.633  13.846
24019SOL    HW173896  10.077   8.623  13.755
24019SOL    HW273897  10.128   8.545  13.873
24020SOL     OW73898  13.678  12.815   8.389
24020SOL    HW173899  13.673  12.724   8.417
24020SOL    HW273900  13.601  12.856   8.428
24021SOL     OW73901   6.098  13.092   2.024
24021SOL    HW173902   6.132  13.011   2.064
24021SOL    HW273903   6.009  13.099   2.057
24022SOL     OW73904   2.642   7.840   8.847
24022SOL    HW173905   2.580   7.830   8.919
24022SOL    HW273906   2.605   7.786   8.776
24023SOL     OW73907   6.663   0.093  10.451
24023SOL    HW173908   6.752   0.060  10.459
24023SOL    HW273909   6.667   0.182  10.487
24024SOL     OW73910   2.144  12.455   9.544
24024SOL    HW173911   2.081  12.396   9.502
24024SOL    HW273912   2.098  12.489   9.621
24025SOL     OW73913   1.469   0.380   6.048
24025SOL    HW173914   1.470   0.431   5.966
24025SOL    HW273915   1.437   0.294   6.022
24026SOL     OW73916  12.320   5.258   8.427
24026SOL    HW173917  12.341   5.175   8.385
24026SOL    HW273918  12.383   5.320   8.390
24027SOL     OW73919  14.665   5.255   2.575
24027SOL    HW173920  14.608   5.315   2.622
24027SOL    HW273921  14.705   5.310   2.506
24028SOL     OW73922  13.930  14.680   4.087
24028SOL    HW173923  13.876  14.629   4.147
24028SOL    HW273924  13.890  14.666   4.001
24029SOL     OW73925   2.890   8.812   2.853
24029SOL    HW173926   2.881   8.717   2.839
24029SOL    HW273927   2.896   8.849   2.765
24030SOL     OW73928  12.651   4.872  11.064
24030SOL    HW173929  12.695   4.791  11.090
24030SOL    HW273930  12.560   4.846  11.049
24031SOL     OW73931   4.358  13.186  10.359
24031SOL    HW173932   4.320  13.192  10.446
24031SOL    HW273933   4.283  13.165  10.302
24032SOL     OW73934   1.406  13.016   6.684
24032SOL    HW173935   1.392  13.103   6.645
24032SOL    HW273936   1.408  12.956   6.610
24033SOL     OW73937  14.649   8.500  12.832
24033SOL    HW173938  14.740   8.530  12.842
24033SOL    HW273939  14.650   8.410  12.865
24034SOL     OW73940   1.823   3.515  13.445
24034SOL    HW173941   1.770   3.440  13.421
24034SOL    HW273942   1.797   3.584  13.383
24035SOL     OW73943  10.443  10.902   5.493
24035SOL    HW173944  10.432  10.982   5.543
24035SOL    HW273945  10.493  10.929   5.416
24036SOL     OW73946  11.857  11.989   8.241
24036SOL    HW173947  11.946  12.010   8.214
24036SOL    HW273948  11.856  12.005   8.335
24037SOL     OW73949   1.116   9.622  11.238
24037SOL    HW173950   1.072   9.596  11.320
24037SOL    HW273951   1.066   9.578  11.169
24038SOL     OW73952   3.162  11.502   4.768
24038SOL    HW173953   3.138  11.447   4.694
24038SOL    HW273954   3.143  11.449   4.845
24039SOL     OW73955   8.606   6.740  11.626
24039SOL    HW173956   8.683   6.787  11.661
24039SOL    HW273957   8.618   6.742  11.531
24040SOL     OW73958   6.409   0.174   4.620
24040SOL    HW173959   6.403   0.223   4.538
24040SOL    HW273960   6.336   0.112   4.615
24041SOL     OW73961   8.150   6.196   8.812
24041SOL    HW173962   8.206   6.127   8.779
24041SOL    HW273963   8.210   6.255   8.858
24042SOL     OW73964   6.567   0.466   8.215
24042SOL    HW173965   6.584   0.379   8.179
24042SOL    HW273966   6.564   0.523   8.139
24043SOL     OW73967   9.530   8.227   2.318
24043SOL    HW173968   9.439   8.254   2.333
24043SOL    HW273969   9.566   8.295   2.261
24044SOL     OW73970   4.796   0.801  10.318
24044SOL    HW173971   4.846   0.725  10.288
24044SOL    HW273972   4.846   0.876  10.285
24045SOL     OW73973   8.129   5.566  11.668
24045SOL    HW173974   8.130   5.488  11.613
24045SOL    HW273975   8.184   5.543  11.743
24046SOL     OW73976   6.520   9.246  11.420
24046SOL    HW173977   6.557   9.331  11.440
24046SOL    HW273978   6.471   9.260  11.339
24047SOL     OW73979   0.334   2.868  11.578
24047SOL    HW173980   0.335   2.917  11.495
24047SOL    HW273981   0.374   2.784  11.557
24048SOL     OW73982  14.319   6.400  14.777
24048SOL    HW173983  14.329   6.352  14.859
24048SOL    HW273984  14.270   6.340  14.720
24049SOL     OW73985   6.432   4.840  14.374
24049SOL    HW173986   6.386   4.919  14.401
24049SOL    HW273987   6.447   4.852  14.280
24050SOL     OW73988   3.824  11.426  10.464
24050SOL    HW173989   3.777  11.503  10.494
24050SOL    HW273990   3.808  11.423  10.369
24051SOL     OW73991   1.270  13.663  11.277
24051SOL    HW173992   1.260  13.570  11.295
24051SOL    HW273993   1.354  13.687  11.316
24052SOL     OW73994  10.480   6.381   3.331
24052SOL    HW173995  10.520   6.440   3.267
24052SOL    HW273996  10.420   6.436   3.381
24053SOL     OW73997   7.277  10.865   4.406
24053SOL    HW173998   7.266  10.862   4.311
24053SOL    HW273999   7.331  10.942   4.422
24054SOL     OW74000   0.662   2.104  12.065
24054SOL    HW174001   0.698   2.131  11.980
24054SOL    HW274002   0.713   2.027  12.089
24055SOL     OW74003   5.802  14.861   7.584
24055SOL    HW174004   5.888   0.013   7.611
24055SOL    HW274005   5.794  14.774   7.623
24056SOL     OW74006  11.799   8.256   5.744
24056SOL    HW174007  11.887   8.221   5.739
24056SOL    HW274008  11.744   8.190   5.703
24057SOL     OW74009  14.549   2.169   0.694
24057SOL    HW174010  14.464   2.213   0.695
24057SOL    HW274011  14.560   2.140   0.603
24058SOL     OW74012   9.172  13.877   1.487
24058SOL    HW174013   9.245  13.910   1.433
24058SOL    HW274014   9.211  13.864   1.573
24059SOL     OW74015   0.498  11.762  13.267
24059SOL    HW174016   0.481  11.844  13.221
24059SOL    HW274017   0.440  11.764  13.343
24060SOL     OW74018   1.933   4.194   7.197
24060SOL    HW174019   1.848   4.233   7.218
24060SOL    HW274020   1.912   4.111   7.155
24061SOL     OW74021  12.241  11.371   2.372
24061SOL    HW174022  12.176  11.413   2.316
24061SOL    HW274023  12.191  11.314   2.430
24062SOL     OW74024   4.268   5.321  14.462
24062SOL    HW174025   4.287   5.326  14.368
24062SOL    HW274026   4.339   5.267  14.497
24063SOL     OW74027   8.927   6.327   4.821
24063SOL    HW174028   9.012   6.363   4.796
24063SOL    HW274029   8.946   6.237   4.846
24064SOL     OW74030  11.963   7.692  13.327
24064SOL    HW174031  12.056   7.681  13.343
24064SOL    HW274032  11.955   7.697  13.231
24065SOL     OW74033   4.837   0.052   9.726
24065SOL    HW174034   4.925   0.084   9.707
24065SOL    HW274035   4.784   0.082   9.651
24066SOL     OW74036   4.174   5.082   9.908
24066SOL    HW174037   4.229   5.063   9.984
24066SOL    HW274038   4.088   5.101   9.944
24067SOL     OW74039   0.858   6.143  13.416
24067SOL    HW174040   0.912   6.222  13.408
24067SOL    HW274041   0.898   6.093  13.486
24068SOL     OW74042   7.376   4.677  11.975
24068SOL    HW174043   7.321   4.667  12.053
24068SOL    HW274044   7.411   4.766  11.982
24069SOL     OW74045  14.390   7.518   1.139
24069SOL    HW174046  14.433   7.586   1.088
24069SOL    HW274047  14.461   7.471   1.182
24070SOL     OW74048  14.717   0.628   6.095
24070SOL    HW174049  14.674   0.609   6.011
24070SOL    HW274050  14.686   0.559   6.154
24071SOL     OW74051  14.821  14.110  11.071
24071SOL    HW174052  14.864  14.195  11.083
24071SOL    HW274053  14.840  14.062  11.151
24072SOL     OW74054   8.349  10.531   9.999
24072SOL    HW174055   8.315  10.468  10.062
24072SOL    HW274056   8.271  10.581   9.972
24073SOL     OW74057   5.844   4.606  12.698
24073SOL    HW174058   5.819   4.698  12.687
24073SOL    HW274059   5.835   4.589  12.792
24074SOL     OW74060   3.461   6.702   0.077
24074SOL    HW174061   3.466   6.752  14.874
24074SOL    HW274062   3.518   6.750   0.137
24075SOL     OW74063  12.599  10.778  13.552
24075SOL    HW174064  12.596  10.873  13.541
24075SOL    HW274065  12.686  10.752  13.520
24076SOL     OW74066   2.118   0.697   7.784
24076SOL    HW174067   2.023   0.702   7.783
24076SOL    HW274068   2.140   0.629   7.722
24077SOL     OW74069   2.901  12.853   3.142
24077SOL    HW174070   2.925  12.935   3.098
24077SOL    HW274071   2.818  12.828   3.101
24078SOL     OW74072   3.731   0.789  13.856
24078SOL    HW174073   3.816   0.803  13.897
24078SOL    HW274074   3.686   0.728  13.914
24079SOL     OW74075   2.938   3.641   7.473
24079SOL    HW174076   2.871   3.638   7.405
24079SOL    HW274077   2.911   3.712   7.530
24080SOL     OW74078   0.678   3.925   7.848
24080SOL    HW174079   0.599   3.893   7.805
24080SOL    HW274080   0.648   3.953   7.935
24081SOL     OW74081   4.574  11.019   5.877
24081SOL    HW174082   4.643  10.973   5.829
24081SOL    HW274083   4.591  10.998   5.969
24082SOL     OW74084  13.292   2.261   0.504
24082SOL    HW174085  13.273   2.342   0.551
24082SOL    HW274086  13.309   2.289   0.414
24083SOL     OW74087   8.432   8.922   0.766
24083SOL    HW174088   8.362   8.897   0.826
24083SOL    HW274089   8.506   8.943   0.822
24084SOL     OW74090   8.052  12.287   4.139
24084SOL    HW174091   8.052  12.377   4.171
24084SOL    HW274092   8.128  12.247   4.180
24085SOL     OW74093   3.627   1.881  11.167
24085SOL    HW174094   3.641   1.817  11.097
24085SOL    HW274095   3.716   1.909  11.191
24086SOL     OW74096   7.726   7.729   1.151
24086SOL    HW174097   7.816   7.696   1.156
24086SOL    HW274098   7.672   7.661   1.189
24087SOL     OW74099   6.958   5.856   5.057
24087SOL    HW174100   6.903   5.836   5.134
24087SOL    HW274101   6.994   5.943   5.076
24088SOL     OW74102  13.510   7.998   3.510
24088SOL    HW174103  13.566   7.923   3.487
24088SOL    HW274104  13.431   7.958   3.546
24089SOL     OW74105  10.427  12.226   3.814
24089SOL    HW174106  10.355  12.283   3.785
24089SOL    HW274107  10.455  12.264   3.897
24090SOL     OW74108   6.791   2.395  11.426
24090SOL    HW174109   6.792   2.369  11.334
24090SOL    HW274110   6.731   2.470  11.429
24091SOL     OW74111  12.896  14.479   6.803
24091SOL    HW174112  12.930  14.404   6.853
24091SOL    HW274113  12.841  14.440   6.736
24092SOL     OW74114  14.352   5.195  12.568
24092SOL    HW174115  14.353   5.149  12.484
24092SOL    HW274116  14.299   5.139  12.625
24093SOL     OW74117   8.120  10.189   7.348
24093SOL    HW174118   8.075  10.248   7.287
24093SOL    HW274119   8.076  10.205   7.432
24094SOL     OW74120  12.849  14.801   6.133
24094SOL    HW174121  12.900  14.792   6.214
24094SOL    HW274122  12.799  14.720   6.127
24095SOL     OW74123  13.947   8.651  13.234
24095SOL    HW174124  14.009   8.663  13.162
24095SOL    HW274125  13.992   8.686  13.311
24096SOL     OW74126   4.128   2.610  12.094
24096SOL    HW174127   4.201   2.588  12.037
24096SOL    HW274128   4.052   2.571  12.050
24097SOL     OW74129  12.024   1.764  13.327
24097SOL    HW174130  11.949   1.815  13.297
24097SOL    HW274131  11.987   1.682  13.357
24098SOL     OW74132  12.977  12.264  14.771
24098SOL    HW174133  12.916  12.213  14.824
24098SOL    HW274134  13.002  12.205  14.700
24099SOL     OW74135   1.983   9.862   6.364
24099SOL    HW174136   2.031   9.939   6.333
24099SOL    HW274137   1.933   9.833   6.289
24100SOL     OW74138   4.134   3.517   6.146
24100SOL    HW174139   4.117   3.477   6.061
24100SOL    HW274140   4.073   3.590   6.151
24101SOL     OW74141   8.585   2.302   2.733
24101SOL    HW174142   8.636   2.221   2.736
24101SOL    HW274143   8.508   2.280   2.680
24102SOL     OW74144   2.579   5.324  12.797
24102SOL    HW174145   2.561   5.274  12.717
24102SOL    HW274146   2.507   5.302  12.856
24103SOL     OW74147   0.393   2.872   0.483
24103SOL    HW174148   0.301   2.862   0.509
24103SOL    HW274149   0.395   2.850   0.390
24104SOL     OW74150  11.922   5.936   7.875
24104SOL    HW174151  12.001   5.910   7.923
24104SOL    HW274152  11.868   5.979   7.941
24105SOL     OW74153  13.632   6.093   5.070
24105SOL    HW174154  13.563   6.157   5.053
24105SOL    HW274155  13.597   6.039   5.142
24106SOL     OW74156   0.225   3.679   9.244
24106SOL    HW174157   0.305   3.731   9.242
24106SOL    HW274158   0.163   3.733   9.294
24107SOL     OW74159   8.863   5.044   2.503
24107SOL    HW174160   8.947   5.058   2.461
24107SOL    HW274161   8.826   5.132   2.514
24108SOL     OW74162   8.603   4.124  13.658
24108SOL    HW174163   8.609   4.146  13.565
24108SOL    HW274164   8.625   4.205  13.704
24109SOL     OW74165   4.289  12.616   7.633
24109SOL    HW174166   4.200  12.585   7.621
24109SOL    HW274167   4.290  12.703   7.592
24110SOL     OW74168  14.257   7.254   3.314
24110SOL    HW174169  14.163   7.262   3.301
24110SOL    HW274170  14.296   7.300   3.240
24111SOL     OW74171   3.088  11.066  11.635
24111SOL    HW174172   3.034  11.014  11.695
24111SOL    HW274173   3.111  11.005  11.565
24112SOL     OW74174   8.567  12.381   6.234
24112SOL    HW174175   8.540  12.392   6.325
24112SOL    HW274176   8.657  12.347   6.240
24113SOL     OW74177   9.441   2.474   6.021
24113SOL    HW174178   9.448   2.515   5.935
24113SOL    HW274179   9.505   2.403   6.019
24114SOL     OW74180   5.302   8.789   6.677
24114SOL    HW174181   5.376   8.845   6.701
24114SOL    HW274182   5.293   8.728   6.750
24115SOL     OW74183   7.564   1.202   3.642
24115SOL    HW174184   7.487   1.147   3.656
24115SOL    HW274185   7.588   1.188   3.551
24116SOL     OW74186  11.638   2.081   5.999
24116SOL    HW174187  11.584   2.151   6.035
24116SOL    HW274188  11.695   2.124   5.936
24117SOL     OW74189   3.426   6.263   7.619
24117SOL    HW174190   3.483   6.192   7.590
24117SOL    HW274191   3.467   6.295   7.699
24118SOL     OW74192   5.520   6.384   2.182
24118SOL    HW174193   5.551   6.453   2.124
24118SOL    HW274194   5.425   6.386   2.173
24119SOL     OW74195   7.947   2.883   2.837
24119SOL    HW174196   7.865   2.834   2.831
24119SOL    HW274197   8.015   2.816   2.839
24120SOL     OW74198   9.903   3.600   6.396
24120SOL    HW174199   9.955   3.532   6.440
24120SOL    HW274200   9.864   3.555   6.322
24121SOL     OW74201   9.847  13.292   9.696
24121SOL    HW174202   9.780  13.280   9.628
24121SOL    HW274203   9.912  13.350   9.656
24122SOL     OW74204   2.834   8.285   1.457
24122SOL    HW174205   2.874   8.198   1.453
24122SOL    HW274206   2.778   8.282   1.535
24123SOL     OW74207   8.075   3.508   4.656
24123SOL    HW174208   8.131   3.444   4.701
24123SOL    HW274209   8.019   3.543   4.725
24124SOL     OW74210  10.962   8.790   1.693
24124SOL    HW174211  10.874   8.828   1.685
24124SOL    HW274212  10.957   8.737   1.773
24125SOL     OW74213   4.874   5.257  12.757
24125SOL    HW174214   4.840   5.168  12.743
24125SOL    HW274215   4.839   5.307  12.683
24126SOL     OW74216   6.964   4.434   4.000
24126SOL    HW174217   6.961   4.401   3.910
24126SOL    HW274218   6.999   4.360   4.051
24127SOL     OW74219   9.262   4.153   2.892
24127SOL    HW174220   9.213   4.179   2.813
24127SOL    HW274221   9.314   4.078   2.864
24128SOL     OW74222  11.515  13.240  11.439
24128SOL    HW174223  11.450  13.294  11.482
24128SOL    HW274224  11.566  13.202  11.510
24129SOL     OW74225   2.075   4.911  11.826
24129SOL    HW174226   2.014   4.952  11.887
24129SOL    HW274227   2.075   4.969  11.750
24130SOL     OW74228  12.212  12.188   3.948
24130SOL    HW174229  12.282  12.127   3.926
24130SOL    HW274230  12.255  12.256   4.000
24131SOL     OW74231   9.306   3.568  14.260
24131SOL    HW174232   9.229   3.625  14.256
24131SOL    HW274233   9.379   3.623  14.233
24132SOL     OW74234   7.143   0.083   3.294
24132SOL    HW174235   7.152   0.004   3.346
24132SOL    HW274236   7.150   0.053   3.203
24133SOL     OW74237   1.140   2.343   2.482
24133SOL    HW174238   1.179   2.384   2.560
24133SOL    HW274239   1.105   2.417   2.432
24134SOL     OW74240   0.336   7.881   5.365
24134SOL    HW174241   0.320   7.795   5.403
24134SOL    HW274242   0.252   7.927   5.373
24135SOL     OW74243  11.148   6.455  11.047
24135SOL    HW174244  11.161   6.547  11.071
24135SOL    HW274245  11.065   6.454  10.999
24136SOL     OW74246   6.447   0.555   9.056
24136SOL    HW174247   6.360   0.567   9.094
24136SOL    HW274248   6.431   0.526   8.966
24137SOL     OW74249  10.174   4.758   2.087
24137SOL    HW174250  10.234   4.775   2.160
24137SOL    HW274251  10.223   4.699   2.029
24138SOL     OW74252  12.530   4.958  14.178
24138SOL    HW174253  12.468   4.932  14.247
24138SOL    HW274254  12.533   5.054  14.184
24139SOL     OW74255   5.623  14.650   1.821
24139SOL    HW174256   5.561  14.625   1.889
24139SOL    HW274257   5.648  14.568   1.778
24140SOL     OW74258  11.339  12.638  11.304
24140SOL    HW174259  11.378  12.725  11.298
24140SOL    HW274260  11.248  12.655  11.328
24141SOL     OW74261  13.233  12.690   9.971
24141SOL    HW174262  13.311  12.738   9.999
24141SOL    HW274263  13.163  12.755   9.971
24142SOL     OW74264   5.817   0.113  12.208
24142SOL    HW174265   5.829   0.108  12.113
24142SOL    HW274266   5.830   0.205  12.229
24143SOL     OW74267   7.170   7.273   5.363
24143SOL    HW174268   7.099   7.210   5.376
24143SOL    HW274269   7.236   7.225   5.314
24144SOL     OW74270  10.846   8.776  12.994
24144SOL    HW174271  10.939   8.785  13.017
24144SOL    HW274272  10.844   8.787  12.899
24145SOL     OW74273   0.791   3.833   7.589
24145SOL    HW174274   0.749   3.747   7.594
24145SOL    HW274275   0.784   3.869   7.677
24146SOL     OW74276  10.422   9.652   6.642
24146SOL    HW174277  10.421   9.564   6.679
24146SOL    HW274278  10.369   9.705   6.703
24147SOL     OW74279  12.837   9.252   3.951
24147SOL    HW174280  12.748   9.245   3.914
24147SOL    HW274281  12.845   9.344   3.976
24148SOL     OW74282   0.637   6.206   6.024
24148SOL    HW174283   0.614   6.115   6.038
24148SOL    HW274284   0.653   6.213   5.930
24149SOL     OW74285   9.899   2.288   9.604
24149SOL    HW174286   9.967   2.262   9.666
24149SOL    HW274287   9.864   2.370   9.639
24150SOL     OW74288   3.873  13.476   6.093
24150SOL    HW174289   3.883  13.401   6.152
24150SOL    HW274290   3.917  13.448   6.012
24151SOL     OW74291  11.694  14.490  12.162
24151SOL    HW174292  11.672  14.583  12.166
24151SOL    HW274293  11.757  14.483  12.090
24152SOL     OW74294   3.404   5.044  14.469
24152SOL    HW174295   3.433   4.957  14.443
24152SOL    HW274296   3.338   5.028  14.536
24153SOL     OW74297  12.111   3.120   0.052
24153SOL    HW174298  12.044   3.137  14.864
24153SOL    HW274299  12.180   3.074   0.006
24154SOL     OW74300   0.851  14.350   8.482
24154SOL    HW174301   0.887  14.432   8.517
24154SOL    HW274302   0.821  14.303   8.559
24155SOL     OW74303   8.407   3.736  10.343
24155SOL    HW174304   8.343   3.714  10.275
24155SOL    HW274305   8.354   3.770  10.415
24156SOL     OW74306  11.274  12.178  14.674
24156SOL    HW174307  11.217  12.138  14.740
24156SOL    HW274308  11.361  12.144  14.694
24157SOL     OW74309   6.148  11.548   7.302
24157SOL    HW174310   6.065  11.541   7.256
24157SOL    HW274311   6.126  11.533   7.394
24158SOL     OW74312   7.932   5.962  13.019
24158SOL    HW174313   7.840   5.979  12.998
24158SOL    HW274314   7.980   6.025  12.965
24159SOL     OW74315   9.541  10.917  11.692
24159SOL    HW174316   9.540  11.011  11.673
24159SOL    HW274317   9.619  10.905  11.747
24160SOL     OW74318   4.785   5.728   6.200
24160SOL    HW174319   4.874   5.761   6.188
24160SOL    HW274320   4.729   5.804   6.186
24161SOL     OW74321  13.591   0.107   3.545
24161SOL    HW174322  13.538   0.142   3.472
24161SOL    HW274323  13.664   0.064   3.503
24162SOL     OW74324  14.582   8.540  14.589
24162SOL    HW174325  14.648   8.470  14.584
24162SOL    HW274326  14.565   8.550  14.682
24163SOL     OW74327   3.418   2.906   3.569
24163SOL    HW174328   3.366   2.982   3.594
24163SOL    HW274329   3.436   2.861   3.652
24164SOL     OW74330  12.193  12.495   0.294
24164SOL    HW174331  12.113  12.527   0.335
24164SOL    HW274332  12.166  12.415   0.249
24165SOL     OW74333  12.521   9.470   3.673
24165SOL    HW174334  12.508   9.503   3.584
24165SOL    HW274335  12.598   9.516   3.705
24166SOL     OW74336   7.463   8.575   7.191
24166SOL    HW174337   7.393   8.510   7.202
24166SOL    HW274338   7.417   8.658   7.178
24167SOL     OW74339  10.533  14.171   8.444
24167SOL    HW174340  10.584  14.226   8.504
24167SOL    HW274341  10.442  14.189   8.468
24168SOL     OW74342  11.079   6.563   0.756
24168SOL    HW174343  11.013   6.625   0.724
24168SOL    HW274344  11.096   6.505   0.682
24169SOL     OW74345   2.160   6.432  12.816
24169SOL    HW174346   2.107   6.509  12.795
24169SOL    HW274347   2.191   6.448  12.906
24170SOL     OW74348   0.474   3.639   3.963
24170SOL    HW174349   0.416   3.569   3.994
24170SOL    HW274350   0.417   3.700   3.918
24171SOL     OW74351   0.177  13.223  14.502
24171SOL    HW174352   0.155  13.310  14.469
24171SOL    HW274353   0.259  13.236  14.550
24172SOL     OW74354   1.190   3.401   0.568
24172SOL    HW174355   1.149   3.468   0.514
24172SOL    HW274356   1.133   3.394   0.645
24173SOL     OW74357   3.191   4.648   9.002
24173SOL    HW174358   3.108   4.627   9.045
24173SOL    HW274359   3.194   4.589   8.927
24174SOL     OW74360   2.073   8.881   2.482
24174SOL    HW174361   2.147   8.891   2.422
24174SOL    HW274362   2.089   8.946   2.551
24175SOL     OW74363   6.524   0.094   8.812
24175SOL    HW174364   6.458   0.143   8.763
24175SOL    HW274365   6.580   0.161   8.851
24176SOL     OW74366  10.621   9.148  12.379
24176SOL    HW174367  10.566   9.079  12.342
24176SOL    HW274368  10.658   9.110  12.459
24177SOL     OW74369   7.267   4.206   9.540
24177SOL    HW174370   7.332   4.274   9.519
24177SOL    HW274371   7.246   4.221   9.632
24178SOL     OW74372   2.031  13.305   6.346
24178SOL    HW174373   1.967  13.374   6.360
24178SOL    HW274374   2.116  13.349   6.352
24179SOL     OW74375   4.918   6.211   1.819
24179SOL    HW174376   4.873   6.291   1.847
24179SOL    HW274377   4.876   6.141   1.869
24180SOL     OW74378   0.330  12.985   6.148
24180SOL    HW174379   0.298  12.901   6.179
24180SOL    HW274380   0.406  13.003   6.203
24181SOL     OW74381  13.386  10.937  14.101
24181SOL    HW174382  13.391  10.849  14.139
24181SOL    HW274383  13.292  10.957  14.099
24182SOL     OW74384  14.011   6.991   9.422
24182SOL    HW174385  13.990   7.084   9.412
24182SOL    HW274386  13.995   6.974   9.515
24183SOL     OW74387   9.068  13.870  11.621
24183SOL    HW174388   9.095  13.950  11.665
24183SOL    HW274389   8.974  13.864  11.638
24184SOL     OW74390   7.228  14.431   7.577
24184SOL    HW174391   7.315  14.400   7.551
24184SOL    HW274392   7.243  14.475   7.661
24185SOL     OW74393  13.899   0.304   3.483
24185SOL    HW174394  13.953   0.234   3.520
24185SOL    HW274395  13.954   0.342   3.414
24186SOL     OW74396   2.272   0.293   0.992
24186SOL    HW174397   2.320   0.225   0.945
24186SOL    HW274398   2.183   0.290   0.955
24187SOL     OW74399   5.213   1.830   4.009
24187SOL    HW174400   5.225   1.876   4.092
24187SOL    HW274401   5.187   1.898   3.947
24188SOL     OW74402  11.290   8.937   4.891
24188SOL    HW174403  11.373   8.972   4.922
24188SOL    HW274404  11.225   8.972   4.952
24189SOL     OW74405   5.809   2.407   5.263
24189SOL    HW174406   5.900   2.393   5.288
24189SOL    HW274407   5.764   2.425   5.346
24190SOL     OW74408   0.201   7.617   6.045
24190SOL    HW174409   0.259   7.554   6.004
24190SOL    HW274410   0.231   7.702   6.015
24191SOL     OW74411   8.457   7.227   8.568
24191SOL    HW174412   8.369   7.190   8.573
24191SOL    HW274413   8.502   7.196   8.646
24192SOL     OW74414  10.837   8.762   6.999
24192SOL    HW174415  10.852   8.685   7.053
24192SOL    HW274416  10.924   8.801   6.988
24193SOL     OW74417   8.727   7.202   7.497
24193SOL    HW174418   8.801   7.245   7.541
24193SOL    HW274419   8.747   7.109   7.502
24194SOL     OW74420   0.955   1.145  13.131
24194SOL    HW174421   0.895   1.206  13.173
24194SOL    HW274422   0.986   1.089  13.202
24195SOL     OW74423  10.076  11.190   3.636
24195SOL    HW174424  10.059  11.110   3.587
24195SOL    HW274425  10.003  11.195   3.699
24196SOL     OW74426   8.794   6.441   8.926
24196SOL    HW174427   8.858   6.432   8.855
24196SOL    HW274428   8.841   6.486   8.995
24197SOL     OW74429   4.690   4.447  14.851
24197SOL    HW174430   4.739   4.510  14.796
24197SOL    HW274431   4.748   4.372  14.858
24198SOL     OW74432   6.346   2.959   2.257
24198SOL    HW174433   6.342   2.997   2.344
24198SOL    HW274434   6.283   3.010   2.205
24199SOL     OW74435   1.803   1.616   9.947
24199SOL    HW174436   1.855   1.695   9.956
24199SOL    HW274437   1.843   1.569   9.873
24200SOL     OW74438   1.641   3.736   8.175
24200SOL    HW174439   1.597   3.768   8.254
24200SOL    HW274440   1.570   3.707   8.118
24201SOL     OW74441  12.601   7.262   5.489
24201SOL    HW174442  12.602   7.184   5.544
24201SOL    HW274443  12.508   7.277   5.470
24202SOL     OW74444  14.121   0.073   2.332
24202SOL    HW174445  14.208   0.093   2.299
24202SOL    HW274446  14.136   0.046   2.423
24203SOL     OW74447   3.008   2.096   3.345
24203SOL    HW174448   3.095   2.122   3.375
24203SOL    HW274449   3.002   2.131   3.256
24204SOL     OW74450   5.353  12.678  14.760
24204SOL    HW174451   5.270  12.717  14.732
24204SOL    HW274452   5.345  12.585  14.738
24205SOL     OW74453  11.723  13.567  10.116
24205SOL    HW174454  11.804  13.517  10.105
24205SOL    HW274455  11.682  13.530  10.194
24206SOL     OW74456   7.247   6.985   3.221
24206SOL    HW174457   7.295   6.952   3.144
24206SOL    HW274458   7.249   7.080   3.211
24207SOL     OW74459  13.134   0.514  10.941
24207SOL    HW174460  13.134   0.441  11.003
24207SOL    HW274461  13.194   0.578  10.980
24208SOL     OW74462   0.674  11.813   9.464
24208SOL    HW174463   0.657  11.852   9.549
24208SOL    HW274464   0.716  11.729   9.484
24209SOL     OW74465  14.302   6.278  10.379
24209SOL    HW174466  14.237   6.329  10.330
24209SOL    HW274467  14.386   6.313  10.351
24210SOL     OW74468  10.296   7.709   6.985
24210SOL    HW174469  10.328   7.758   7.061
24210SOL    HW274470  10.201   7.725   6.985
24211SOL     OW74471   5.253  13.975   8.900
24211SOL    HW174472   5.159  13.976   8.916
24211SOL    HW274473   5.276  13.882   8.897
24212SOL     OW74474   3.048   8.683  10.352
24212SOL    HW174475   2.994   8.617  10.309
24212SOL    HW274476   3.097   8.635  10.418
24213SOL     OW74477   8.250  14.507   6.456
24213SOL    HW174478   8.309  14.497   6.532
24213SOL    HW274479   8.167  14.534   6.494
24214SOL     OW74480   4.858  11.752   7.450
24214SOL    HW174481   4.854  11.689   7.522
24214SOL    HW274482   4.906  11.706   7.381
24215SOL     OW74483  13.126   3.097   2.870
24215SOL    HW174484  13.055   3.069   2.812
24215SOL    HW274485  13.082   3.141   2.943
24216SOL     OW74486  10.991  14.484   1.920
24216SOL    HW174487  11.007  14.570   1.880
24216SOL    HW274488  10.927  14.443   1.863
24217SOL     OW74489   2.701   3.647   9.470
24217SOL    HW174490   2.662   3.609   9.548
24217SOL    HW274491   2.634   3.637   9.402
24218SOL     OW74492   7.049   2.266  13.943
24218SOL    HW174493   7.009   2.188  13.982
24218SOL    HW274494   6.983   2.335  13.952
24219SOL     OW74495   3.854  10.045   1.269
24219SOL    HW174496   3.804  10.110   1.220
24219SOL    HW274497   3.932  10.030   1.216
24220SOL     OW74498   1.810   1.306   0.484
24220SOL    HW174499   1.867   1.381   0.469
24220SOL    HW274500   1.863   1.231   0.458
24221SOL     OW74501   8.999   1.553  12.573
24221SOL    HW174502   9.006   1.546  12.478
24221SOL    HW274503   9.082   1.592  12.601
24222SOL     OW74504   3.972   4.257  13.034
24222SOL    HW174505   3.979   4.191  12.965
24222SOL    HW274506   3.953   4.339  12.988
24223SOL     OW74507   3.858   8.669   7.674
24223SOL    HW174508   3.892   8.722   7.601
24223SOL    HW274509   3.827   8.733   7.738
24224SOL     OW74510   9.530  13.799  11.736
24224SOL    HW174511   9.502  13.882  11.775
24224SOL    HW274512   9.461  13.777  11.674
24225SOL     OW74513   1.406  12.848  14.112
24225SOL    HW174514   1.414  12.843  14.016
24225SOL    HW274515   1.432  12.762  14.143
24226SOL     OW74516   1.585  11.326   0.462
24226SOL    HW174517   1.491  11.340   0.459
24226SOL    HW274518   1.608  11.339   0.555
24227SOL     OW74519  12.182  11.331   5.890
24227SOL    HW174520  12.151  11.412   5.850
24227SOL    HW274521  12.124  11.317   5.965
24228SOL     OW74522   9.321   3.310  13.829
24228SOL    HW174523   9.408   3.276  13.807
24228SOL    HW274524   9.269   3.232  13.848
24229SOL     OW74525   3.635  13.197   8.355
24229SOL    HW174526   3.681  13.138   8.415
24229SOL    HW274527   3.613  13.141   8.280
24230SOL     OW74528   6.153  13.453   2.614
24230SOL    HW174529   6.094  13.434   2.687
24230SOL    HW274530   6.115  13.530   2.572
24231SOL     OW74531  11.344   0.872   4.409
24231SOL    HW174532  11.302   0.810   4.349
24231SOL    HW274533  11.435   0.842   4.414
24232SOL     OW74534   5.179  11.497   7.389
24232SOL    HW174535   5.207  11.505   7.298
24232SOL    HW274536   5.223  11.418   7.421
24233SOL     OW74537  12.392  14.707   7.176
24233SOL    HW174538  12.458  14.769   7.205
24233SOL    HW274539  12.321  14.761   7.141
24234SOL     OW74540   1.167   0.396   9.947
24234SOL    HW174541   1.252   0.356   9.929
24234SOL    HW274542   1.136   0.429   9.863
24235SOL     OW74543   6.928   1.570  14.051
24235SOL    HW174544   6.960   1.510  14.118
24235SOL    HW274545   6.994   1.639  14.046
24236SOL     OW74546   2.153   4.549   8.110
24236SOL    HW174547   2.141   4.594   8.193
24236SOL    HW274548   2.233   4.499   8.121
24237SOL     OW74549   4.746  12.582  13.818
24237SOL    HW174550   4.670  12.631  13.787
24237SOL    HW274551   4.762  12.517  13.750
24238SOL     OW74552  12.180   6.081   8.851
24238SOL    HW174553  12.161   6.067   8.943
24238SOL    HW274554  12.229   6.163   8.848
24239SOL     OW74555  13.928  10.156   9.388
24239SOL    HW174556  13.914  10.070   9.430
24239SOL    HW274557  13.841  10.181   9.358
24240SOL     OW74558  12.814   5.134  12.635
24240SOL    HW174559  12.864   5.105  12.559
24240SOL    HW274560  12.827   5.229  12.637
24241SOL     OW74561   7.160   0.650   6.652
24241SOL    HW174562   7.107   0.626   6.728
24241SOL    HW274563   7.214   0.723   6.683
24242SOL     OW74564   3.192   6.829  13.523
24242SOL    HW174565   3.267   6.850  13.467
24242SOL    HW274566   3.123   6.887  13.493
24243SOL     OW74567   1.451  14.581  14.711
24243SOL    HW174568   1.500  14.572  14.793
24243SOL    HW274569   1.462  14.496  14.667
24244SOL     OW74570  12.668   0.393   3.010
24244SOL    HW174571  12.596   0.444   3.047
24244SOL    HW274572  12.624   0.320   2.965
24245SOL     OW74573   6.558   9.554   1.187
24245SOL    HW174574   6.561   9.649   1.190
24245SOL    HW274575   6.540   9.533   1.096
24246SOL     OW74576   8.782  10.970   6.227
24246SOL    HW174577   8.695  10.946   6.260
24246SOL    HW274578   8.781  10.942   6.136
24247SOL     OW74579  10.371   2.252   9.439
24247SOL    HW174580  10.333   2.340   9.444
24247SOL    HW274581  10.366   2.218   9.528
24248SOL     OW74582   8.426  13.629  13.748
24248SOL    HW174583   8.519  13.649  13.750
24248SOL    HW274584   8.385  13.703  13.793
24249SOL     OW74585   2.203   6.956   2.675
24249SOL    HW174586   2.213   6.914   2.589
24249SOL    HW274587   2.237   7.045   2.663
24250SOL     OW74588   2.996  12.628   8.142
24250SOL    HW174589   2.920  12.617   8.198
24250SOL    HW274590   2.994  12.552   8.084
24251SOL     OW74591  11.269   1.207   3.514
24251SOL    HW174592  11.327   1.283   3.507
24251SOL    HW274593  11.297   1.150   3.443
24252SOL     OW74594   4.689   8.720   7.338
24252SOL    HW174595   4.632   8.767   7.399
24252SOL    HW274596   4.757   8.683   7.393
24253SOL     OW74597   9.736   0.713   8.875
24253SOL    HW174598   9.663   0.700   8.814
24253SOL    HW274599   9.694   0.736   8.958
24254SOL     OW74600   8.426  10.971  11.263
24254SOL    HW174601   8.461  11.044  11.212
24254SOL    HW274602   8.496  10.905  11.261
24255SOL     OW74603   8.912  13.697   8.068
24255SOL    HW174604   8.892  13.707   8.161
24255SOL    HW274605   8.828  13.704   8.023
24256SOL     OW74606   8.367   0.927  10.572
24256SOL    HW174607   8.379   1.004  10.627
24256SOL    HW274608   8.368   0.960  10.482
24257SOL     OW74609   5.835   9.546   3.377
24257SOL    HW174610   5.801   9.510   3.458
24257SOL    HW274611   5.854   9.469   3.322
24258SOL     OW74612  13.441  14.304   8.596
24258SOL    HW174613  13.361  14.252   8.603
24258SOL    HW274614  13.501  14.248   8.547
24259SOL     OW74615   0.229   3.240   7.959
24259SOL    HW174616   0.194   3.179   8.024
24259SOL    HW274617   0.156   3.254   7.898
24260SOL     OW74618   2.184   7.177   6.267
24260SOL    HW174619   2.227   7.154   6.349
24260SOL    HW274620   2.170   7.271   6.272
24261SOL     OW74621   7.057  11.858   5.516
24261SOL    HW174622   6.967  11.887   5.502
24261SOL    HW274623   7.055  11.815   5.601
24262SOL     OW74624  13.031  11.674   7.066
24262SOL    HW174625  13.071  11.744   7.014
24262SOL    HW274626  13.089  11.599   7.053
24263SOL     OW74627   1.643   0.963   9.194
24263SOL    HW174628   1.597   0.905   9.254
24263SOL    HW274629   1.615   1.051   9.220
24264SOL     OW74630  14.826  14.213   2.255
24264SOL    HW174631   0.002  14.179   2.184
24264SOL    HW274632  14.768  14.275   2.213
24265SOL     OW74633   7.857   8.709   8.277
24265SOL    HW174634   7.765   8.680   8.283
24265SOL    HW274635   7.863   8.753   8.192
24266SOL     OW74636   9.721   1.623   4.901
24266SOL    HW174637   9.674   1.695   4.944
24266SOL    HW274638   9.813   1.640   4.920
24267SOL     OW74639  12.986  13.533  12.558
24267SOL    HW174640  13.038  13.565  12.484
24267SOL    HW274641  12.993  13.603  12.623
24268SOL     OW74642   5.373   5.979   6.969
24268SOL    HW174643   5.324   6.050   7.010
24268SOL    HW274644   5.306   5.921   6.931
24269SOL     OW74645   1.628   2.278   9.366
24269SOL    HW174646   1.713   2.234   9.364
24269SOL    HW274647   1.644   2.364   9.328
24270SOL     OW74648   1.227   7.516  14.786
24270SOL    HW174649   1.255   7.607  14.802
24270SOL    HW274650   1.228   7.476  14.873
24271SOL     OW74651  12.265   7.936  10.839
24271SOL    HW174652  12.334   7.996  10.869
24271SOL    HW274653  12.311   7.874  10.782
24272SOL     OW74654   5.550  13.540   9.554
24272SOL    HW174655   5.631  13.517   9.507
24272SOL    HW274656   5.481  13.491   9.510
24273SOL     OW74657  13.555  12.963  14.840
24273SOL    HW174658  13.517  13.051  14.844
24273SOL    HW274659  13.603  12.961  14.757
24274SOL     OW74660   6.638   5.988   8.542
24274SOL    HW174661   6.557   5.939   8.555
24274SOL    HW274662   6.671   5.956   8.457
24275SOL     OW74663  12.479  14.492   3.008
24275SOL    HW174664  12.516  14.580   3.012
24275SOL    HW274665  12.387  14.503   3.033
24276SOL     OW74666   8.150  14.594   3.767
24276SOL    HW174667   8.226  14.579   3.710
24276SOL    HW274668   8.100  14.662   3.722
24277SOL     OW74669   4.802  14.359   0.979
24277SOL    HW174670   4.776  14.274   1.012
24277SOL    HW274671   4.774  14.359   0.887
24278SOL     OW74672   3.947   1.405   9.048
24278SOL    HW174673   3.947   1.413   8.953
24278SOL    HW274674   4.031   1.362   9.068
24279SOL     OW74675   2.606   3.337  11.593
24279SOL    HW174676   2.526   3.298  11.559
24279SOL    HW274677   2.579   3.421  11.629
24280SOL     OW74678  13.601   4.440   8.780
24280SOL    HW174679  13.625   4.372   8.717
24280SOL    HW274680  13.568   4.512   8.725
24281SOL     OW74681   3.527  14.809   3.299
24281SOL    HW174682   3.572  14.728   3.321
24281SOL    HW274683   3.541  14.865   3.375
24282SOL     OW74684   7.504   4.147   3.376
24282SOL    HW174685   7.537   4.127   3.463
24282SOL    HW274686   7.445   4.074   3.354
24283SOL     OW74687  12.966  14.084  13.639
24283SOL    HW174688  12.948  14.163  13.690
24283SOL    HW274689  12.896  14.081  13.574
24284SOL     OW74690   6.568  14.250   8.880
24284SOL    HW174691   6.474  14.249   8.895
24284SOL    HW274692   6.600  14.169   8.920
24285SOL     OW74693   9.693   6.399   9.662
24285SOL    HW174694   9.691   6.406   9.758
24285SOL    HW274695   9.729   6.483   9.634
24286SOL     OW74696   2.092  10.496   1.189
24286SOL    HW174697   2.179  10.531   1.210
24286SOL    HW274698   2.031  10.555   1.234
24287SOL     OW74699  12.808   6.137   1.701
24287SOL    HW174700  12.809   6.196   1.777
24287SOL    HW274701  12.879   6.075   1.718
24288SOL     OW74702   1.681  13.432  14.082
24288SOL    HW174703   1.763  13.459  14.040
24288SOL    HW274704   1.622  13.414  14.009
24289SOL     OW74705  11.857   1.012   7.766
24289SOL    HW174706  11.888   1.031   7.854
24289SOL    HW274707  11.888   1.086   7.713
24290SOL     OW74708   9.232   8.376   7.693
24290SOL    HW174709   9.179   8.306   7.653
24290SOL    HW274710   9.244   8.440   7.622
24291SOL     OW74711   6.232  14.111   9.688
24291SOL    HW174712   6.149  14.082   9.651
24291SOL    HW274713   6.209  14.148   9.773
24292SOL     OW74714   5.975  14.055   5.455
24292SOL    HW174715   6.063  14.019   5.446
24292SOL    HW274716   5.920  13.979   5.476
24293SOL     OW74717   4.248  10.974  13.533
24293SOL    HW174718   4.313  10.909  13.561
24293SOL    HW274719   4.299  11.053  13.516
24294SOL     OW74720  12.568   2.386   8.023
24294SOL    HW174721  12.565   2.476   8.054
24294SOL    HW274722  12.654   2.377   7.982
24295SOL     OW74723   9.463  14.811   5.797
24295SOL    HW174724   9.553  14.833   5.821
24295SOL    HW274725   9.417   0.016   5.796
24296SOL     OW74726   4.643   3.512   3.169
24296SOL    HW174727   4.664   3.447   3.102
24296SOL    HW274728   4.664   3.469   3.252
24297SOL     OW74729   6.564   4.403   6.870
24297SOL    HW174730   6.490   4.374   6.922
24297SOL    HW274731   6.525   4.430   6.786
24298SOL     OW74732   3.747   2.735  10.207
24298SOL    HW174733   3.822   2.682  10.180
24298SOL    HW274734   3.682   2.722  10.137
24299SOL     OW74735   2.407   3.134  12.381
24299SOL    HW174736   2.492   3.178  12.378
24299SOL    HW274737   2.359   3.168  12.306
24300SOL     OW74738  13.467  10.716   7.350
24300SOL    HW174739  13.491  10.654   7.282
24300SOL    HW274740  13.466  10.801   7.306
24301SOL     OW74741   5.673  11.220  10.079
24301SOL    HW174742   5.609  11.269  10.028
24301SOL    HW274743   5.620  11.165  10.137
24302SOL     OW74744  13.083  12.675  10.830
24302SOL    HW174745  13.092  12.618  10.754
24302SOL    HW274746  13.173  12.696  10.855
24303SOL     OW74747  12.209  10.419   6.118
24303SOL    HW174748  12.193  10.436   6.026
24303SOL    HW274749  12.296  10.457   6.135
24304SOL     OW74750   3.764  11.302  14.136
24304SOL    HW174751   3.707  11.261  14.201
24304SOL    HW274752   3.797  11.230  14.083
24305SOL     OW74753  12.545  11.779   7.499
24305SOL    HW174754  12.623  11.809   7.450
24305SOL    HW274755  12.567  11.796   7.590
24306SOL     OW74756   1.220   0.780   6.757
24306SOL    HW174757   1.263   0.703   6.795
24306SOL    HW274758   1.131   0.751   6.739
24307SOL     OW74759   5.566   7.208   1.351
24307SOL    HW174760   5.602   7.265   1.419
24307SOL    HW274761   5.641   7.155   1.323
24308SOL     OW74762   6.752  14.401   8.758
24308SOL    HW174763   6.681  14.375   8.817
24308SOL    HW274764   6.774  14.490   8.785
24309SOL     OW74765   1.114   7.924   6.156
24309SOL    HW174766   1.201   7.921   6.116
24309SOL    HW274767   1.130   7.939   6.249
24310SOL     OW74768  13.390   8.849   0.439
24310SOL    HW174769  13.398   8.854   0.344
24310SOL    HW274770  13.332   8.775   0.454
24311SOL     OW74771   2.489   6.237   7.639
24311SOL    HW174772   2.443   6.203   7.715
24311SOL    HW274773   2.427   6.229   7.567
24312SOL     OW74774  14.863  12.134  10.940
24312SOL    HW174775  14.866  12.207  10.879
24312SOL    HW274776  14.867  12.175  11.027
24313SOL     OW74777   9.394  14.269  10.426
24313SOL    HW174778   9.383  14.175  10.440
24313SOL    HW274779   9.485  14.286  10.451
24314SOL     OW74780   0.635   2.291  14.655
24314SOL    HW174781   0.681   2.223  14.706
24314SOL    HW274782   0.553   2.305  14.703
24315SOL     OW74783  11.975   8.582  12.777
24315SOL    HW174784  11.880   8.590  12.770
24315SOL    HW274785  11.994   8.495  12.743
24316SOL     OW74786   7.803   2.080  12.402
24316SOL    HW174787   7.847   2.099  12.485
24316SOL    HW274788   7.828   1.990  12.382
24317SOL     OW74789   9.823   2.627   1.099
24317SOL    HW174790   9.880   2.551   1.108
24317SOL    HW274791   9.801   2.630   1.006
24318SOL     OW74792  13.805   2.203   9.073
24318SOL    HW174793  13.776   2.241   8.990
24318SOL    HW274794  13.895   2.174   9.055
24319SOL     OW74795   6.510   5.384  12.979
24319SOL    HW174796   6.423   5.418  12.961
24319SOL    HW274797   6.496   5.311  13.039
24320SOL     OW74798   8.603  11.891   1.918
24320SOL    HW174799   8.601  11.951   1.843
24320SOL    HW274800   8.600  11.949   1.995
24321SOL     OW74801   5.114   5.599   4.653
24321SOL    HW174802   5.028   5.560   4.638
24321SOL    HW274803   5.173   5.524   4.661
24322SOL     OW74804   2.088   8.416   4.413
24322SOL    HW174805   2.086   8.391   4.505
24322SOL    HW274806   2.170   8.379   4.380
24323SOL     OW74807  14.141  14.737   3.374
24323SOL    HW174808  14.109  14.663   3.425
24323SOL    HW274809  14.084  14.741   3.298
24324SOL     OW74810  14.735  13.811   3.101
24324SOL    HW174811  14.659  13.858   3.134
24324SOL    HW274812  14.726  13.722   3.136
24325SOL     OW74813   0.300   1.074   3.954
24325SOL    HW174814   0.347   1.079   3.870
24325SOL    HW274815   0.276   0.982   3.963
24326SOL     OW74816   8.014   6.439  10.401
24326SOL    HW174817   8.020   6.345  10.420
24326SOL    HW274818   8.088   6.457  10.343
24327SOL     OW74819  11.126  11.403   0.297
24327SOL    HW174820  11.129  11.363   0.210
24327SOL    HW274821  11.215  11.395   0.331
24328SOL     OW74822  11.935  10.976   3.919
24328SOL    HW174823  11.879  10.907   3.954
24328SOL    HW274824  11.896  10.998   3.834
24329SOL     OW74825   5.509   6.429   0.964
24329SOL    HW174826   5.483   6.338   0.981
24329SOL    HW274827   5.504   6.472   1.050
24330SOL     OW74828   1.874  13.831   6.426
24330SOL    HW174829   1.786  13.836   6.387
24330SOL    HW274830   1.864  13.869   6.513
24331SOL     OW74831   8.177  13.594   6.985
24331SOL    HW174832   8.082  13.601   6.988
24331SOL    HW274833   8.208  13.674   7.028
24332SOL     OW74834   5.576  10.301  12.432
24332SOL    HW174835   5.518  10.361  12.385
24332SOL    HW274836   5.618  10.249  12.363
24333SOL     OW74837   9.372  13.107  12.571
24333SOL    HW174838   9.297  13.105  12.631
24333SOL    HW274839   9.441  13.151  12.621
24334SOL     OW74840   7.816   6.163   2.444
24334SOL    HW174841   7.782   6.245   2.479
24334SOL    HW274842   7.788   6.097   2.507
24335SOL     OW74843  11.353  12.298  10.341
24335SOL    HW174844  11.339  12.361  10.271
24335SOL    HW274845  11.267  12.284  10.379
24336SOL     OW74846   5.108   9.682   5.662
24336SOL    HW174847   5.202   9.697   5.663
24336SOL    HW274848   5.076   9.737   5.590
24337SOL     OW74849   9.037  11.987   3.788
24337SOL    HW174850   9.033  12.007   3.882
24337SOL    HW274851   9.129  12.002   3.765
24338SOL     OW74852   6.033  13.693  13.665
24338SOL    HW174853   5.970  13.626  13.692
24338SOL    HW274854   6.035  13.687  13.570
24339SOL     OW74855   6.942   0.161   1.395
24339SOL    HW174856   6.949   0.089   1.331
24339SOL    HW274857   6.962   0.120   1.479
24340SOL     OW74858   9.231   7.910   1.956
24340SOL    HW174859   9.296   7.841   1.940
24340SOL    HW274860   9.157   7.864   1.994
24341SOL     OW74861   4.968   3.306   8.519
24341SOL    HW174862   4.952   3.230   8.575
24341SOL    HW274863   5.039   3.353   8.563
24342SOL     OW74864  13.019   0.568   9.850
24342SOL    HW174865  13.030   0.475   9.833
24342SOL    HW274866  13.108   0.602   9.854
24343SOL     OW74867  14.389   4.383   1.463
24343SOL    HW174868  14.437   4.421   1.389
24343SOL    HW274869  14.307   4.433   1.465
24344SOL     OW74870  14.791   5.607  10.230
24344SOL    HW174871   0.005   5.621  10.247
24344SOL    HW274872  14.789   5.539  10.163
24345SOL     OW74873   5.978   8.156   3.851
24345SOL    HW174874   5.993   8.248   3.832
24345SOL    HW274875   5.900   8.155   3.906
24346SOL     OW74876   8.510   7.683  13.496
24346SOL    HW174877   8.510   7.707  13.589
24346SOL    HW274878   8.556   7.755  13.453
24347SOL     OW74879  13.895  12.941  10.248
24347SOL    HW174880  13.890  13.012  10.312
24347SOL    HW274881  13.881  12.984  10.163
24348SOL     OW74882   3.485   5.685  10.452
24348SOL    HW174883   3.447   5.770  10.473
24348SOL    HW274884   3.411   5.632  10.423
24349SOL     OW74885   7.348   0.764   8.801
24349SOL    HW174886   7.293   0.837   8.829
24349SOL    HW274887   7.400   0.742   8.878
24350SOL     OW74888  14.855  10.679   6.565
24350SOL    HW174889  14.854  10.667   6.659
24350SOL    HW274890  14.773  10.723   6.544
24351SOL     OW74891   8.936   4.333   5.630
24351SOL    HW174892   8.905   4.395   5.697
24351SOL    HW274893   8.983   4.266   5.680
24352SOL     OW74894   1.588   0.703   9.079
24352SOL    HW174895   1.561   0.695   8.988
24352SOL    HW274896   1.605   0.797   9.091
24353SOL     OW74897  11.843  13.246   1.676
24353SOL    HW174898  11.913  13.310   1.686
24353SOL    HW274899  11.888  13.161   1.680
24354SOL     OW74900   2.564   9.126   2.540
24354SOL    HW174901   2.629   9.063   2.571
24354SOL    HW274902   2.548   9.102   2.449
24355SOL     OW74903   0.781   4.508   9.414
24355SOL    HW174904   0.791   4.595   9.377
24355SOL    HW274905   0.737   4.523   9.498
24356SOL     OW74906   8.204   1.529   4.238
24356SOL    HW174907   8.249   1.503   4.158
24356SOL    HW274908   8.136   1.462   4.250
24357SOL     OW74909   7.623   4.736   8.298
24357SOL    HW174910   7.552   4.675   8.276
24357SOL    HW274911   7.683   4.730   8.224
24358SOL     OW74912  12.861   2.385  13.590
24358SOL    HW174913  12.896   2.384  13.679
24358SOL    HW274914  12.820   2.300  13.579
24359SOL     OW74915   1.543   3.028   1.523
24359SOL    HW174916   1.520   3.060   1.610
24359SOL    HW274917   1.486   3.078   1.464
24360SOL     OW74918   9.084   8.698   8.829
24360SOL    HW174919   9.046   8.618   8.863
24360SOL    HW274920   9.060   8.699   8.736
24361SOL     OW74921   5.689   9.261   3.406
24361SOL    HW174922   5.606   9.303   3.382
24361SOL    HW274923   5.684   9.252   3.502
24362SOL     OW74924   7.291   9.844   1.419
24362SOL    HW174925   7.246   9.841   1.503
24362SOL    HW274926   7.384   9.846   1.441
24363SOL     OW74927   4.880   5.865  12.022
24363SOL    HW174928   4.934   5.940  11.999
24363SOL    HW274929   4.900   5.799  11.956
24364SOL     OW74930   1.501   6.002  12.592
24364SOL    HW174931   1.536   5.967  12.510
24364SOL    HW274932   1.577   6.007  12.650
24365SOL     OW74933  11.587   7.069   1.604
24365SOL    HW174934  11.640   7.120   1.543
24365SOL    HW274935  11.616   7.098   1.691
24366SOL     OW74936   0.602  11.540   7.295
24366SOL    HW174937   0.589  11.463   7.350
24366SOL    HW274938   0.562  11.611   7.345
24367SOL     OW74939   8.435   4.495  12.854
24367SOL    HW174940   8.343   4.501  12.880
24367SOL    HW274941   8.470   4.582  12.872
24368SOL     OW74942   9.863   9.107   5.579
24368SOL    HW174943   9.800   9.089   5.649
24368SOL    HW274944   9.820   9.075   5.499
24369SOL     OW74945   4.504   6.837   2.001
24369SOL    HW174946   4.492   6.742   1.995
24369SOL    HW274947   4.478   6.858   2.090
24370SOL     OW74948   3.278   4.589   8.261
24370SOL    HW174949   3.290   4.684   8.257
24370SOL    HW274950   3.184   4.578   8.278
24371SOL     OW74951  12.197   8.742   2.981
24371SOL    HW174952  12.171   8.689   2.906
24371SOL    HW274953  12.160   8.829   2.963
24372SOL     OW74954   1.276  12.472   0.238
24372SOL    HW174955   1.212  12.483   0.309
24372SOL    HW274956   1.288  12.560   0.203
24373SOL     OW74957   2.841   9.344  11.073
24373SOL    HW174958   2.888   9.263  11.092
24373SOL    HW274959   2.890   9.384  11.001
24374SOL     OW74960  10.297  12.684  10.301
24374SOL    HW174961  10.344  12.767  10.292
24374SOL    HW274962  10.350  12.620  10.254
24375SOL     OW74963   4.241   3.799  12.755
24375SOL    HW174964   4.333   3.773  12.749
24375SOL    HW274965   4.239   3.865  12.824
24376SOL     OW74966  10.890   5.064  13.386
24376SOL    HW174967  10.979   5.071  13.352
24376SOL    HW274968  10.884   5.132  13.453
24377SOL     OW74969  13.381  10.483   9.864
24377SOL    HW174970  13.309  10.506   9.805
24377SOL    HW274971  13.395  10.562   9.917
24378SOL     OW74972   6.881   5.969   4.797
24378SOL    HW174973   6.806   5.925   4.757
24378SOL    HW274974   6.882   5.937   4.887
24379SOL     OW74975   2.880  11.171   8.722
24379SOL    HW174976   2.872  11.076   8.714
24379SOL    HW274977   2.967  11.184   8.761
24380SOL     OW74978   2.515   4.353  11.365
24380SOL    HW174979   2.466   4.297  11.305
24380SOL    HW274980   2.578   4.293  11.406
24381SOL     OW74981   6.563  13.861   0.862
24381SOL    HW174982   6.643  13.869   0.913
24381SOL    HW274983   6.508  13.801   0.912
24382SOL     OW74984   7.004  10.052   9.449
24382SOL    HW174985   6.984   9.971   9.496
24382SOL    HW274986   7.091  10.078   9.482
24383SOL     OW74987  12.150   9.920   6.280
24383SOL    HW174988  12.186   9.983   6.343
24383SOL    HW274989  12.100   9.859   6.334
24384SOL     OW74990   9.773   5.267  13.278
24384SOL    HW174991   9.839   5.323  13.238
24384SOL    HW274992   9.742   5.316  13.354
24385SOL     OW74993   4.228   9.604  13.660
24385SOL    HW174994   4.220   9.696  13.685
24385SOL    HW274995   4.200   9.601  13.569
24386SOL     OW74996   3.194   9.103   0.343
24386SOL    HW174997   3.247   9.180   0.365
24386SOL    HW274998   3.232   9.070   0.261
24387SOL     OW74999  11.120   1.334   2.575
24387SOL    HW175000  11.162   1.395   2.635
24387SOL    HW275001  11.151   1.248   2.603
24388SOL     OW75002   8.034   7.908   2.286
24388SOL    HW175003   8.010   7.827   2.241
24388SOL    HW275004   8.109   7.942   2.236
24389SOL     OW75005   9.280   5.710   9.558
24389SOL    HW175006   9.318   5.622   9.571
24389SOL    HW275007   9.195   5.706   9.602
24390SOL     OW75008   5.236   3.709   2.267
24390SOL    HW175009   5.192   3.755   2.195
24390SOL    HW275010   5.240   3.618   2.237
24391SOL     OW75011   3.103   1.176   6.377
24391SOL    HW175012   3.099   1.260   6.422
24391SOL    HW275013   3.191   1.142   6.396
24392SOL     OW75014  12.228   6.286  11.764
24392SOL    HW175015  12.179   6.320  11.689
24392SOL    HW275016  12.234   6.361  11.824
24393SOL     OW75017   5.827   1.954   6.124
24393SOL    HW175018   5.808   1.906   6.205
24393SOL    HW275019   5.784   1.902   6.056
24394SOL     OW75020   4.983   9.967   1.769
24394SOL    HW175021   5.063   9.963   1.716
24394SOL    HW275022   4.988  10.051   1.815
24395SOL     OW75023   4.943   2.909   7.538
24395SOL    HW175024   4.896   2.897   7.620
24395SOL    HW275025   4.995   2.988   7.552
24396SOL     OW75026   8.861   5.310  11.220
24396SOL    HW175027   8.814   5.383  11.261
24396SOL    HW275028   8.846   5.322  11.127
24397SOL     OW75029  13.160  13.933  14.515
24397SOL    HW175030  13.139  13.866  14.450
24397SOL    HW275031  13.182  13.884  14.595
24398SOL     OW75032  13.168   2.156  14.421
24398SOL    HW175033  13.108   2.226  14.397
24398SOL    HW275034  13.138   2.080  14.371
24399SOL     OW75035   7.467  12.823   3.609
24399SOL    HW175036   7.426  12.909   3.615
24399SOL    HW275037   7.428  12.773   3.680
24400SOL     OW75038   3.501   7.081  14.505
24400SOL    HW175039   3.520   6.994  14.469
24400SOL    HW275040   3.420   7.108  14.462
24401SOL     OW75041   4.265  12.176   9.810
24401SOL    HW175042   4.183  12.224   9.823
24401SOL    HW275043   4.296  12.203   9.724
24402SOL     OW75044  10.047   4.949   5.021
24402SOL    HW175045   9.955   4.936   4.997
24402SOL    HW275046  10.095   4.885   4.970
24403SOL     OW75047   3.152  13.449  14.202
24403SOL    HW175048   3.095  13.395  14.147
24403SOL    HW275049   3.095  13.520  14.233
24404SOL     OW75050   0.512   5.609   4.732
24404SOL    HW175051   0.570   5.576   4.664
24404SOL    HW275052   0.546   5.696   4.753
24405SOL     OW75053   2.905   7.277   8.367
24405SOL    HW175054   2.990   7.259   8.407
24405SOL    HW275055   2.878   7.361   8.404
24406SOL     OW75056   3.581   1.893   5.183
24406SOL    HW175057   3.643   1.820   5.195
24406SOL    HW275058   3.629   1.956   5.130
24407SOL     OW75059   7.303   6.246   7.417
24407SOL    HW175060   7.327   6.153   7.413
24407SOL    HW275061   7.340   6.283   7.337
24408SOL     OW75062   9.416   3.705  12.487
24408SOL    HW175063   9.369   3.782  12.520
24408SOL    HW275064   9.493   3.742  12.444
24409SOL     OW75065   9.405   2.855   4.993
24409SOL    HW175066   9.311   2.838   4.998
24409SOL    HW275067   9.445   2.771   4.973
24410SOL     OW75068   7.786   7.274   9.397
24410SOL    HW175069   7.771   7.183   9.419
24410SOL    HW275070   7.700   7.316   9.408
24411SOL     OW75071   1.327   5.448   8.228
24411SOL    HW175072   1.266   5.460   8.155
24411SOL    HW275073   1.413   5.469   8.191
24412SOL     OW75074   5.342   7.118   1.484
24412SOL    HW175075   5.410   7.140   1.547
24412SOL    HW275076   5.380   7.139   1.399
24413SOL     OW75077   7.341   1.304  11.788
24413SOL    HW175078   7.256   1.281  11.750
24413SOL    HW275079   7.325   1.385  11.836
24414SOL     OW75080  12.326   3.602   2.368
24414SOL    HW175081  12.418   3.579   2.351
24414SOL    HW275082  12.317   3.692   2.334
24415SOL     OW75083   8.734   3.865   0.433
24415SOL    HW175084   8.646   3.890   0.407
24415SOL    HW275085   8.747   3.779   0.394
24416SOL     OW75086   7.539   7.357   9.283
24416SOL    HW175087   7.550   7.297   9.209
24416SOL    HW275088   7.455   7.333   9.321
24417SOL     OW75089   1.792   8.601  11.352
24417SOL    HW175090   1.763   8.552  11.275
24417SOL    HW275091   1.760   8.690  11.338
24418SOL     OW75092   5.971   6.772  12.198
24418SOL    HW175093   5.945   6.863  12.181
24418SOL    HW275094   6.044   6.780  12.260
24419SOL     OW75095  11.516   9.855  14.306
24419SOL    HW175096  11.427   9.880  14.282
24419SOL    HW275097  11.508   9.765  14.338
24420SOL     OW75098   1.390   0.110  14.152
24420SOL    HW175099   1.351   0.181  14.204
24420SOL    HW275100   1.360   0.030  14.194
24421SOL     OW75101   6.753   7.260   2.407
24421SOL    HW175102   6.739   7.327   2.340
24421SOL    HW275103   6.788   7.308   2.482
24422SOL     OW75104   9.131   2.903   8.962
24422SOL    HW175105   9.076   2.908   9.040
24422SOL    HW275106   9.079   2.945   8.893
24423SOL     OW75107  12.677  12.325   0.184
24423SOL    HW175108  12.587  12.339   0.214
24423SOL    HW275109  12.669  12.267   0.108
24424SOL     OW75110   9.375   7.935  13.887
24424SOL    HW175111   9.365   8.008  13.949
24424SOL    HW275112   9.286   7.901  13.876
24425SOL     OW75113   1.681   6.239  14.105
24425SOL    HW175114   1.631   6.168  14.143
24425SOL    HW275115   1.618   6.310  14.094
24426SOL     OW75116   8.537  11.883   4.414
24426SOL    HW175117   8.511  11.878   4.322
24426SOL    HW275118   8.455  11.894   4.461
24427SOL     OW75119  12.021   6.505   1.454
24427SOL    HW175120  12.081   6.440   1.491
24427SOL    HW275121  11.960   6.524   1.525
24428SOL     OW75122   7.959   3.522   0.326
24428SOL    HW175123   7.870   3.510   0.292
24428SOL    HW275124   7.951   3.505   0.420
24429SOL     OW75125   4.285   0.485   9.689
24429SOL    HW175126   4.258   0.572   9.659
24429SOL    HW275127   4.304   0.497   9.782
24430SOL     OW75128  12.442   6.835   7.747
24430SOL    HW175129  12.427   6.741   7.757
24430SOL    HW275130  12.355   6.871   7.725
24431SOL     OW75131   0.980   4.727   7.784
24431SOL    HW175132   1.069   4.708   7.814
24431SOL    HW275133   0.936   4.762   7.861
24432SOL     OW75134   5.128  13.910   0.637
24432SOL    HW175135   5.174  13.984   0.598
24432SOL    HW275136   5.181  13.834   0.613
24433SOL     OW75137   5.230  11.912   1.203
24433SOL    HW175138   5.281  11.836   1.174
24433SOL    HW275139   5.153  11.912   1.145
24434SOL     OW75140  13.337  14.471  11.400
24434SOL    HW175141  13.425  14.454  11.434
24434SOL    HW275142  13.325  14.406  11.331
24435SOL     OW75143   7.221  14.335   3.616
24435SOL    HW175144   7.268  14.331   3.533
24435SOL    HW275145   7.288  14.327   3.683
24436SOL     OW75146   6.258   8.199  13.938
24436SOL    HW175147   6.210   8.136  13.992
24436SOL    HW275148   6.226   8.183  13.849
24437SOL     OW75149   8.709   7.646   1.378
24437SOL    HW175150   8.634   7.681   1.425
24437SOL    HW275151   8.785   7.685   1.422
24438SOL     OW75152   0.305   7.205   2.471
24438SOL    HW175153   0.299   7.180   2.379
24438SOL    HW275154   0.228   7.165   2.512
24439SOL     OW75155   3.924   8.508   1.421
24439SOL    HW175156   4.011   8.471   1.435
24439SOL    HW275157   3.941   8.596   1.386
24440SOL     OW75158   7.544   4.666   2.688
24440SOL    HW175159   7.560   4.589   2.634
24440SOL    HW275160   7.587   4.738   2.642
24441SOL     OW75161   4.137  12.129   8.571
24441SOL    HW175162   4.045  12.108   8.557
24441SOL    HW275163   4.150  12.118   8.666
24442SOL     OW75164  11.040  10.980  10.311
24442SOL    HW175165  11.042  10.997  10.405
24442SOL    HW275166  11.011  10.889  10.304
24443SOL     OW75167   1.722  14.092   4.479
24443SOL    HW175168   1.757  14.165   4.428
24443SOL    HW275169   1.754  14.107   4.568
24444SOL     OW75170   8.602   4.956   6.107
24444SOL    HW175171   8.533   5.001   6.058
24444SOL    HW275172   8.597   4.865   6.078
24445SOL     OW75173   8.549  11.285   4.642
24445SOL    HW175174   8.590  11.340   4.709
24445SOL    HW275175   8.503  11.217   4.691
24446SOL     OW75176  10.745   5.303   4.667
24446SOL    HW175177  10.732   5.398   4.660
24446SOL    HW275178  10.657   5.266   4.661
24447SOL     OW75179  13.928   6.305  11.616
24447SOL    HW175180  13.895   6.266  11.696
24447SOL    HW275181  13.855   6.355  11.580
24448SOL     OW75182  12.905   4.588   3.580
24448SOL    HW175183  12.826   4.634   3.551
24448SOL    HW275184  12.928   4.531   3.507
24449SOL     OW75185   7.843   5.511   6.547
24449SOL    HW175186   7.879   5.490   6.633
24449SOL    HW275187   7.843   5.606   6.543
24450SOL     OW75188  13.872  12.580  13.056
24450SOL    HW175189  13.798  12.597  12.997
24450SOL    HW275190  13.908  12.667  13.074
24451SOL     OW75191  13.677   8.346  10.344
24451SOL    HW175192  13.772   8.360  10.354
24451SOL    HW275193  13.656   8.385  10.259
24452SOL     OW75194   8.922  13.252   9.983
24452SOL    HW175195   8.911  13.162  10.015
24452SOL    HW275196   8.844  13.268   9.930
24453SOL     OW75197   9.229   8.579   7.468
24453SOL    HW175198   9.269   8.503   7.425
24453SOL    HW275199   9.220   8.644   7.399
24454SOL     OW75200   0.545   7.853   6.156
24454SOL    HW175201   0.501   7.784   6.106
24454SOL    HW275202   0.474   7.910   6.186
24455SOL     OW75203   9.948  12.226  12.423
24455SOL    HW175204   9.971  12.219  12.516
24455SOL    HW275205   9.919  12.317  12.412
24456SOL     OW75206   1.066   8.140   9.998
24456SOL    HW175207   1.136   8.157  10.061
24456SOL    HW275208   0.985   8.156  10.047
24457SOL     OW75209   8.965   1.201   3.614
24457SOL    HW175210   9.025   1.185   3.541
24457SOL    HW275211   8.888   1.240   3.573
24458SOL     OW75212   4.752   0.207   9.326
24458SOL    HW175213   4.841   0.180   9.304
24458SOL    HW275214   4.726   0.149   9.397
24459SOL     OW75215   5.881   5.741   4.519
24459SOL    HW175216   5.917   5.803   4.582
24459SOL    HW275217   5.881   5.657   4.564
24460SOL     OW75218  10.497  12.786  10.026
24460SOL    HW175219  10.404  12.805  10.038
24460SOL    HW275220  10.499  12.718   9.959
24461SOL     OW75221   7.317   6.288   1.714
24461SOL    HW175222   7.412   6.285   1.728
24461SOL    HW275223   7.280   6.290   1.802
24462SOL     OW75224   9.055   8.320   0.898
24462SOL    HW175225   8.986   8.301   0.962
24462SOL    HW275226   9.076   8.413   0.911
24463SOL     OW75227  13.963  12.298   9.521
24463SOL    HW175228  13.988  12.227   9.580
24463SOL    HW275229  13.867  12.295   9.519
24464SOL     OW75230  12.457   9.477   6.492
24464SOL    HW175231  12.535   9.448   6.540
24464SOL    HW275232  12.488   9.491   6.403
24465SOL     OW75233   6.597   1.691   5.945
24465SOL    HW175234   6.657   1.747   5.995
24465SOL    HW275235   6.518   1.743   5.936
24466SOL     OW75236   8.248   9.516  14.354
24466SOL    HW175237   8.306   9.585  14.385
24466SOL    HW275238   8.291   9.434  14.380
24467SOL     OW75239  11.326   9.633   5.657
24467SOL    HW175240  11.291   9.587   5.581
24467SOL    HW275241  11.359   9.716   5.623
24468SOL     OW75242  14.672  14.385   7.589
24468SOL    HW175243  14.600  14.389   7.526
24468SOL    HW275244  14.664  14.465   7.641
24469SOL     OW75245  10.447   7.449   9.611
24469SOL    HW175246  10.396   7.408   9.681
24469SOL    HW275247  10.382   7.473   9.545
24470SOL     OW75248  12.113  11.101   0.688
24470SOL    HW175249  12.184  11.049   0.650
24470SOL    HW275250  12.048  11.037   0.716
24471SOL     OW75251   4.776   7.940  12.857
24471SOL    HW175252   4.717   8.002  12.900
24471SOL    HW275253   4.786   7.869  12.921
24472SOL     OW75254   9.086  14.666   7.359
24472SOL    HW175255   9.026  14.738   7.339
24472SOL    HW275256   9.030  14.590   7.373
24473SOL     OW75257  12.678   3.058   4.882
24473SOL    HW175258  12.609   2.993   4.870
24473SOL    HW275259  12.662   3.094   4.969
24474SOL     OW75260   4.972  13.303  13.206
24474SOL    HW175261   4.968  13.369  13.136
24474SOL    HW275262   5.060  13.310  13.241
24475SOL     OW75263  11.858  14.152  12.457
24475SOL    HW175264  11.866  14.235  12.505
24475SOL    HW275265  11.895  14.087  12.516
24476SOL     OW75266   0.870  12.899   0.967
24476SOL    HW175267   0.782  12.867   0.984
24476SOL    HW275268   0.927  12.823   0.980
24477SOL     OW75269   8.170   7.457   6.418
24477SOL    HW175270   8.117   7.484   6.342
24477SOL    HW275271   8.142   7.368   6.437
24478SOL     OW75272   9.150   5.254   4.479
24478SOL    HW175273   9.143   5.284   4.389
24478SOL    HW275274   9.081   5.188   4.488
24479SOL     OW75275   0.091   8.065   0.580
24479SOL    HW175276   0.011   8.112   0.603
24479SOL    HW275277   0.138   8.056   0.663
24480SOL     OW75278   4.246   9.331  10.244
24480SOL    HW175279   4.292   9.399  10.195
24480SOL    HW275280   4.211   9.375  10.321
24481SOL     OW75281   1.869  10.194   5.710
24481SOL    HW175282   1.950  10.171   5.665
24481SOL    HW275283   1.804  10.201   5.639
24482SOL     OW75284  14.804   4.882   0.457
24482SOL    HW175285  14.725   4.831   0.477
24482SOL    HW275286  14.792   4.911   0.367
24483SOL     OW75287   3.029   7.479   0.876
24483SOL    HW175288   3.000   7.388   0.880
24483SOL    HW275289   3.043   7.504   0.967
24484SOL     OW75290  11.378   0.600   9.333
24484SOL    HW175291  11.336   0.684   9.321
24484SOL    HW275292  11.307   0.536   9.327
24485SOL     OW75293   9.833   1.878  11.305
24485SOL    HW175294   9.781   1.945  11.349
24485SOL    HW275295   9.920   1.885  11.343
24486SOL     OW75296  10.849   1.097   8.516
24486SOL    HW175297  10.911   1.169   8.528
24486SOL    HW275298  10.766   1.130   8.551
24487SOL     OW75299   8.078  14.338   1.799
24487SOL    HW175300   8.043  14.410   1.746
24487SOL    HW275301   8.066  14.367   1.889
24488SOL     OW75302   1.700  10.678   5.081
24488SOL    HW175303   1.709  10.674   4.986
24488SOL    HW275304   1.653  10.598   5.104
24489SOL     OW75305   2.115   4.228   4.746
24489SOL    HW175306   2.114   4.261   4.656
24489SOL    HW275307   2.205   4.199   4.761
24490SOL     OW75308   6.912   9.990   5.478
24490SOL    HW175309   6.819  10.005   5.463
24490SOL    HW275310   6.924   9.896   5.464
24491SOL     OW75311  11.282   9.217   3.051
24491SOL    HW175312  11.220   9.290   3.054
24491SOL    HW275313  11.346   9.243   2.985
24492SOL     OW75314   2.409  11.962  13.618
24492SOL    HW175315   2.466  12.022  13.570
24492SOL    HW275316   2.344  11.933  13.554
24493SOL     OW75317   7.804   9.415   8.562
24493SOL    HW175318   7.842   9.342   8.609
24493SOL    HW275319   7.713   9.388   8.545
24494SOL     OW75320   6.182   0.853   5.646
24494SOL    HW175321   6.086   0.855   5.640
24494SOL    HW275322   6.200   0.788   5.714
24495SOL     OW75323   2.224  11.701   6.634
24495SOL    HW175324   2.307  11.744   6.656
24495SOL    HW275325   2.212  11.635   6.703
24496SOL     OW75326   1.516  13.740   7.470
24496SOL    HW175327   1.422  13.722   7.458
24496SOL    HW275328   1.554  13.655   7.488
24497SOL     OW75329  13.413  14.097   8.037
24497SOL    HW175330  13.456  14.161   8.093
24497SOL    HW275331  13.320  14.120   8.038
24498SOL     OW75332   8.540  13.747  12.372
24498SOL    HW175333   8.493  13.800  12.308
24498SOL    HW275334   8.631  13.746  12.340
24499SOL     OW75335   8.748   8.663   2.331
24499SOL    HW175336   8.708   8.724   2.268
24499SOL    HW275337   8.779   8.719   2.402
24500SOL     OW75338   4.294  14.685   3.584
24500SOL    HW175339   4.217  14.640   3.618
24500SOL    HW275340   4.322  14.632   3.509
24501SOL     OW75341   4.583   0.521  14.412
24501SOL    HW175342   4.606   0.497  14.323
24501SOL    HW275343   4.630   0.602  14.429
24502SOL     OW75344   0.805  13.518   9.226
24502SOL    HW175345   0.888  13.543   9.266
24502SOL    HW275346   0.795  13.578   9.152
24503SOL     OW75347   4.308   2.588   6.460
24503SOL    HW175348   4.306   2.601   6.365
24503SOL    HW275349   4.348   2.503   6.472
24504SOL     OW75350  13.119   7.584  12.973
24504SOL    HW175351  13.154   7.671  12.952
24504SOL    HW275352  13.105   7.586  13.068
24505SOL     OW75353   3.781   0.206   7.459
24505SOL    HW175354   3.772   0.245   7.373
24505SOL    HW275355   3.848   0.138   7.448
24506SOL     OW75356  14.012   6.071   2.978
24506SOL    HW175357  13.991   5.980   2.957
24506SOL    HW275358  14.088   6.065   3.036
24507SOL     OW75359   0.343   8.010   6.243
24507SOL    HW175360   0.284   7.994   6.316
24507SOL    HW275361   0.376   8.098   6.258
24508SOL     OW75362   2.520  13.015   6.557
24508SOL    HW175363   2.439  12.966   6.544
24508SOL    HW275364   2.527  13.025   6.652
24509SOL     OW75365   8.161  11.686   1.877
24509SOL    HW175366   8.250  11.704   1.845
24509SOL    HW275367   8.169  11.602   1.922
24510SOL     OW75368   4.723  14.697   9.804
24510SOL    HW175369   4.644  14.692   9.750
24510SOL    HW275370   4.776  14.765   9.763
24511SOL     OW75371  11.629  13.344   5.738
24511SOL    HW175372  11.698  13.279   5.728
24511SOL    HW275373  11.549  13.293   5.749
24512SOL     OW75374   9.033  13.239  12.296
24512SOL    HW175375   9.096  13.186  12.247
24512SOL    HW275376   9.082  13.317  12.322
24513SOL     OW75377   2.033   2.468  11.939
24513SOL    HW175378   2.063   2.558  11.931
24513SOL    HW275379   1.969   2.469  12.011
24514SOL     OW75380   4.442  11.212   6.588
24514SOL    HW175381   4.498  11.139   6.616
24514SOL    HW275382   4.503  11.281   6.565
24515SOL     OW75383   0.514  12.684  13.957
24515SOL    HW175384   0.547  12.594  13.964
24515SOL    HW275385   0.591  12.739  13.968
24516SOL     OW75386   2.901  14.825   7.453
24516SOL    HW175387   2.840  14.763   7.496
24516SOL    HW275388   2.847  14.871   7.389
24517SOL     OW75389   3.622  10.290  13.514
24517SOL    HW175390   3.627  10.299  13.609
24517SOL    HW275391   3.570  10.210  13.500
24518SOL     OW75392   9.683  10.767  12.840
24518SOL    HW175393   9.745  10.824  12.795
24518SOL    HW275394   9.607  10.822  12.857
24519SOL     OW75395  14.007  14.856  11.945
24519SOL    HW175396  13.966  14.806  11.874
24519SOL    HW275397  14.041  14.790  12.005
24520SOL     OW75398   1.043   7.182  10.941
24520SOL    HW175399   1.085   7.100  10.916
24520SOL    HW275400   0.955   7.157  10.967
24521SOL     OW75401   0.908   1.823   2.712
24521SOL    HW175402   0.871   1.798   2.796
24521SOL    HW275403   0.908   1.918   2.712
24522SOL     OW75404  10.053   4.775   0.560
24522SOL    HW175405  10.128   4.816   0.516
24522SOL    HW275406  10.087   4.692   0.592
24523SOL     OW75407   1.473   9.309   2.968
24523SOL    HW175408   1.510   9.224   2.945
24523SOL    HW275409   1.477   9.360   2.887
24524SOL     OW75410   7.862  10.604   1.439
24524SOL    HW175411   7.883  10.597   1.346
24524SOL    HW275412   7.915  10.677   1.470
24525SOL     OW75413   7.264  13.326   9.721
24525SOL    HW175414   7.173  13.307   9.699
24525SOL    HW275415   7.288  13.399   9.665
24526SOL     OW75416   4.494   4.884   1.002
24526SOL    HW175417   4.435   4.811   1.022
24526SOL    HW275418   4.570   4.871   1.058
24527SOL     OW75419   3.551   2.181  10.088
24527SOL    HW175420   3.461   2.158  10.112
24527SOL    HW275421   3.548   2.193   9.993
24528SOL     OW75422  13.527   9.444  11.293
24528SOL    HW175423  13.497   9.516  11.237
24528SOL    HW275424  13.447   9.399  11.320
24529SOL     OW75425  12.923  12.289   8.723
24529SOL    HW175426  12.875  12.371   8.729
24529SOL    HW275427  12.865  12.230   8.675
24530SOL     OW75428   1.275  11.951   0.534
24530SOL    HW175429   1.367  11.951   0.563
24530SOL    HW275430   1.279  11.932   0.441
24531SOL     OW75431  12.237   3.065   2.400
24531SOL    HW175432  12.322   3.097   2.369
24531SOL    HW275433  12.175   3.133   2.375
24532SOL     OW75434   9.303  13.256  13.754
24532SOL    HW175435   9.236  13.259  13.822
24532SOL    HW275436   9.259  13.291  13.676
24533SOL     OW75437   8.743   6.090   6.258
24533SOL    HW175438   8.703   6.011   6.221
24533SOL    HW275439   8.677   6.158   6.245
24534SOL     OW75440   0.505   5.044  12.131
24534SOL    HW175441   0.594   5.031  12.098
24534SOL    HW275442   0.515   5.052  12.226
24535SOL     OW75443   8.951   5.239   0.685
24535SOL    HW175444   8.916   5.191   0.610
24535SOL    HW275445   8.983   5.321   0.648
24536SOL     OW75446   6.719  11.066  14.823
24536SOL    HW175447   6.630  11.045  14.794
24536SOL    HW275448   6.733  11.156  14.794
24537SOL     OW75449   7.729   7.879   9.801
24537SOL    HW175450   7.790   7.836   9.741
24537SOL    HW275451   7.776   7.957   9.830
24538SOL     OW75452   8.555   7.120   8.819
24538SOL    HW175453   8.649   7.109   8.836
24538SOL    HW275454   8.532   7.200   8.867
24539SOL     OW75455   5.295  10.184   5.394
24539SOL    HW175456   5.378  10.168   5.440
24539SOL    HW275457   5.229  10.183   5.463
24540SOL     OW75458   6.835   1.517   3.005
24540SOL    HW175459   6.746   1.517   2.970
24540SOL    HW275460   6.882   1.582   2.952
24541SOL     OW75461   3.851   9.553   9.278
24541SOL    HW175462   3.940   9.587   9.271
24541SOL    HW275463   3.850   9.504   9.360
24542SOL     OW75464   7.786   1.155   5.574
24542SOL    HW175465   7.844   1.205   5.518
24542SOL    HW275466   7.777   1.208   5.653
24543SOL     OW75467   0.733   2.858   9.359
24543SOL    HW175468   0.662   2.810   9.401
24543SOL    HW275469   0.730   2.945   9.398
24544SOL     OW75470   1.381   6.599   4.805
24544SOL    HW175471   1.303   6.559   4.768
24544SOL    HW275472   1.353   6.630   4.892
24545SOL     OW75473  10.014   1.559  13.612
24545SOL    HW175474  10.037   1.570  13.704
24545SOL    HW275475  10.098   1.549  13.567
24546SOL     OW75476   8.483   3.901   3.127
24546SOL    HW175477   8.514   3.924   3.215
24546SOL    HW275478   8.387   3.899   3.135
24547SOL     OW75479  13.374   9.728  12.392
24547SOL    HW175480  13.444   9.708  12.330
24547SOL    HW275481  13.293   9.714  12.342
24548SOL     OW75482  11.480   7.728   8.835
24548SOL    HW175483  11.436   7.811   8.854
24548SOL    HW275484  11.465   7.713   8.742
24549SOL     OW75485  14.447   8.738  13.129
24549SOL    HW175486  14.431   8.831  13.145
24549SOL    HW275487  14.536   8.735  13.095
24550SOL     OW75488  11.820   8.523   9.135
24550SOL    HW175489  11.803   8.457   9.202
24550SOL    HW275490  11.744   8.518   9.077
24551SOL     OW75491  14.174   6.228   5.520
24551SOL    HW175492  14.254   6.191   5.484
24551SOL    HW275493  14.190   6.234   5.614
24552SOL     OW75494   7.636  11.824  13.599
24552SOL    HW175495   7.731  11.814  13.590
24552SOL    HW275496   7.608  11.747  13.648
24553SOL     OW75497  11.550   8.089  11.775
24553SOL    HW175498  11.518   8.105  11.686
24553SOL    HW275499  11.610   8.014  11.766
24554SOL     OW75500   1.411   4.426  14.385
24554SOL    HW175501   1.346   4.406  14.318
24554SOL    HW275502   1.360   4.450  14.463
24555SOL     OW75503   6.248   3.882  12.720
24555SOL    HW175504   6.298   3.937  12.659
24555SOL    HW275505   6.280   3.906  12.807
24556SOL     OW75506   6.840   6.854  10.879
24556SOL    HW175507   6.775   6.864  10.949
24556SOL    HW275508   6.909   6.801  10.919
24557SOL     OW75509  11.274   9.156   3.339
24557SOL    HW175510  11.289   9.191   3.251
24557SOL    HW275511  11.180   9.171   3.355
24558SOL     OW75512   8.254  12.440  14.858
24558SOL    HW175513   8.228  12.532  14.854
24558SOL    HW275514   8.183  12.393  14.816
24559SOL     OW75515   7.314   3.731  12.925
24559SOL    HW175516   7.334   3.653  12.977
24559SOL    HW275517   7.375   3.726  12.851
24560SOL     OW75518   0.323   7.244  10.397
24560SOL    HW175519   0.301   7.152  10.383
24560SOL    HW275520   0.240   7.284  10.426
24561SOL     OW75521   9.369   8.617   6.236
24561SOL    HW175522   9.419   8.628   6.155
24561SOL    HW275523   9.401   8.687   6.293
24562SOL     OW75524  14.374   2.292   5.241
24562SOL    HW175525  14.343   2.328   5.157
24562SOL    HW275526  14.294   2.265   5.286
24563SOL     OW75527   1.511   9.543  10.187
24563SOL    HW175528   1.483   9.624  10.228
24563SOL    HW275529   1.606   9.552  10.177
24564SOL     OW75530  10.367   4.614   5.997
24564SOL    HW175531  10.272   4.611   5.987
24564SOL    HW275532  10.383   4.698   6.041
24565SOL     OW75533   9.266  13.394   0.705
24565SOL    HW175534   9.203  13.462   0.726
24565SOL    HW275535   9.260  13.383   0.610
24566SOL     OW75536   3.583  10.418  11.094
24566SOL    HW175537   3.576  10.365  11.174
24566SOL    HW275538   3.493  10.432  11.067
24567SOL     OW75539   0.148  12.722   3.985
24567SOL    HW175540   0.177  12.723   3.894
24567SOL    HW275541   0.052  12.721   3.979
24568SOL     OW75542  13.535   5.044   4.724
24568SOL    HW175543  13.560   5.034   4.816
24568SOL    HW275544  13.487   5.127   4.721
24569SOL     OW75545   0.459   2.696   2.737
24569SOL    HW175546   0.435   2.782   2.772
24569SOL    HW275547   0.522   2.716   2.667
24570SOL     OW75548  11.142   6.269   8.543
24570SOL    HW175549  11.074   6.307   8.487
24570SOL    HW275550  11.183   6.343   8.585
24571SOL     OW75551   1.139  10.885   7.051
24571SOL    HW175552   1.054  10.874   7.094
24571SOL    HW275553   1.132  10.968   7.005
24572SOL     OW75554   8.288   8.511  12.509
24572SOL    HW175555   8.320   8.496  12.598
24572SOL    HW275556   8.206   8.462  12.505
24573SOL     OW75557   1.459   8.974   8.451
24573SOL    HW175558   1.496   9.062   8.448
24573SOL    HW275559   1.535   8.916   8.452
24574SOL     OW75560  13.849   1.299  14.426
24574SOL    HW175561  13.804   1.342  14.499
24574SOL    HW275562  13.900   1.369  14.385
24575SOL     OW75563   1.420   8.949   4.528
24575SOL    HW175564   1.419   9.040   4.559
24575SOL    HW275565   1.502   8.941   4.480
24576SOL     OW75566   7.461   2.434   3.810
24576SOL    HW175567   7.420   2.400   3.890
24576SOL    HW275568   7.417   2.386   3.739
24577SOL     OW75569  12.705  14.599  12.389
24577SOL    HW175570  12.665  14.655  12.322
24577SOL    HW275571  12.691  14.510  12.357
24578SOL     OW75572   4.020  14.090  12.646
24578SOL    HW175573   3.935  14.106  12.605
24578SOL    HW275574   4.029  14.159  12.712
24579SOL     OW75575  14.237   2.096  14.675
24579SOL    HW175576  14.197   2.022  14.720
24579SOL    HW275577  14.295   2.135  14.740
24580SOL     OW75578   5.142   4.165   0.227
24580SOL    HW175579   5.191   4.146   0.308
24580SOL    HW275580   5.140   4.261   0.222
24581SOL     OW75581  12.360   9.875   6.064
24581SOL    HW175582  12.281   9.875   6.119
24581SOL    HW275583  12.356   9.792   6.016
24582SOL     OW75584  14.786   9.525   7.687
24582SOL    HW175585  14.728   9.483   7.624
24582SOL    HW275586  14.871   9.486   7.671
24583SOL     OW75587   7.145  10.652   9.132
24583SOL    HW175588   7.218  10.613   9.084
24583SOL    HW275589   7.133  10.594   9.208
24584SOL     OW75590   9.878   6.769  11.670
24584SOL    HW175591   9.880   6.727  11.756
24584SOL    HW275592   9.843   6.856  11.687
24585SOL     OW75593   1.063  11.088   5.058
24585SOL    HW175594   1.096  11.010   5.103
24585SOL    HW275595   0.969  11.088   5.076
24586SOL     OW75596  11.078  12.190   6.056
24586SOL    HW175597  10.985  12.180   6.035
24586SOL    HW275598  11.083  12.272   6.106
24587SOL     OW75599   4.665   9.762   1.284
24587SOL    HW175600   4.581   9.787   1.322
24587SOL    HW275601   4.699   9.842   1.246
24588SOL     OW75602   6.798   8.345   1.823
24588SOL    HW175603   6.839   8.424   1.859
24588SOL    HW275604   6.852   8.322   1.748
24589SOL     OW75605  14.120   2.488   9.208
24589SOL    HW175606  14.171   2.455   9.282
24589SOL    HW275607  14.030   2.460   9.226
24590SOL     OW75608   9.848  10.747   3.788
24590SOL    HW175609   9.767  10.782   3.749
24590SOL    HW275610   9.905  10.824   3.797
24591SOL     OW75611   4.023   9.617  12.308
24591SOL    HW175612   4.044   9.536  12.356
24591SOL    HW275613   4.108   9.654  12.285
24592SOL     OW75614   2.656   6.327   9.634
24592SOL    HW175615   2.570   6.355   9.604
24592SOL    HW275616   2.715   6.397   9.607
24593SOL     OW75617   5.195   9.543   7.468
24593SOL    HW175618   5.273   9.539   7.412
24593SOL    HW275619   5.206   9.623   7.518
24594SOL     OW75620  10.916   4.754   6.734
24594SOL    HW175621  10.982   4.699   6.692
24594SOL    HW275622  10.859   4.781   6.663
24595SOL     OW75623   5.090   3.967   7.639
24595SOL    HW175624   5.077   3.990   7.731
24595SOL    HW275625   5.096   4.051   7.594
24596SOL     OW75626   6.637   5.381  11.835
24596SOL    HW175627   6.549   5.359  11.803
24596SOL    HW275628   6.622   5.439  11.910
24597SOL     OW75629   3.464  10.344   6.595
24597SOL    HW175630   3.491  10.408   6.660
24597SOL    HW275631   3.497  10.379   6.512
24598SOL     OW75632   2.276  14.739   5.991
24598SOL    HW175633   2.345  14.745   5.924
24598SOL    HW275634   2.284  14.651   6.026
24599SOL     OW75635   1.349  13.268   1.227
24599SOL    HW175636   1.347  13.319   1.308
24599SOL    HW275637   1.431  13.218   1.233
24600SOL     OW75638   8.351   6.858   7.750
24600SOL    HW175639   8.403   6.877   7.829
24600SOL    HW275640   8.269   6.822   7.784
24601SOL     OW75641  12.983   2.725   3.037
24601SOL    HW175642  12.916   2.773   3.085
24601SOL    HW275643  12.991   2.642   3.083
24602SOL     OW75644   3.171   9.708   7.822
24602SOL    HW175645   3.197   9.760   7.898
24602SOL    HW275646   3.101   9.652   7.854
24603SOL     OW75647  11.181   3.715  10.981
24603SOL    HW175648  11.168   3.657  10.906
24603SOL    HW275649  11.179   3.803  10.944
24604SOL     OW75650   8.518  13.489  12.433
24604SOL    HW175651   8.515  13.582  12.410
24604SOL    HW275652   8.476  13.444  12.359
24605SOL     OW75653   6.329   6.002   9.884
24605SOL    HW175654   6.301   5.973   9.797
24605SOL    HW275655   6.411   6.049   9.869
24606SOL     OW75656  13.162  14.653  11.280
24606SOL    HW175657  13.088  14.595  11.262
24606SOL    HW275658  13.234  14.595  11.302
24607SOL     OW75659   1.204  10.928   1.238
24607SOL    HW175660   1.263  11.000   1.262
24607SOL    HW275661   1.263  10.859   1.207
24608SOL     OW75662  14.444   3.918   2.658
24608SOL    HW175663  14.471   3.972   2.733
24608SOL    HW275664  14.525   3.903   2.609
24609SOL     OW75665   1.902  12.273  10.252
24609SOL    HW175666   1.935  12.348  10.202
24609SOL    HW275667   1.875  12.210  10.185
24610SOL     OW75668   5.290   4.364   1.337
24610SOL    HW175669   5.347   4.385   1.412
24610SOL    HW275670   5.337   4.398   1.261
24611SOL     OW75671   2.758  12.358  13.001
24611SOL    HW175672   2.835  12.411  13.020
24611SOL    HW275673   2.733  12.320  13.086
24612SOL     OW75674  14.111   5.025   5.684
24612SOL    HW175675  14.149   4.939   5.699
24612SOL    HW275676  14.165   5.063   5.615
24613SOL     OW75677  10.369   2.293   6.396
24613SOL    HW175678  10.305   2.311   6.465
24613SOL    HW275679  10.409   2.377   6.377
24614SOL     OW75680   9.524  14.168   3.270
24614SOL    HW175681   9.514  14.170   3.365
24614SOL    HW275682   9.450  14.218   3.237
24615SOL     OW75683  10.241  11.326   6.051
24615SOL    HW175684  10.193  11.248   6.023
24615SOL    HW275685  10.235  11.325   6.147
24616SOL     OW75686   1.755   5.540   8.340
24616SOL    HW175687   1.774   5.456   8.381
24616SOL    HW275688   1.672   5.568   8.379
24617SOL     OW75689  12.832  10.319   0.318
24617SOL    HW175690  12.777  10.386   0.279
24617SOL    HW275691  12.813  10.240   0.267
24618SOL     OW75692   1.859   4.553  11.291
24618SOL    HW175693   1.882   4.579  11.380
24618SOL    HW275694   1.865   4.457  11.292
24619SOL     OW75695  10.854   6.771   5.473
24619SOL    HW175696  10.857   6.807   5.562
24619SOL    HW275697  10.938   6.794   5.434
24620SOL     OW75698  10.314   4.572   1.931
24620SOL    HW175699  10.290   4.562   1.839
24620SOL    HW275700  10.257   4.512   1.978
24621SOL     OW75701   5.074  10.803   3.076
24621SOL    HW175702   5.000  10.789   3.017
24621SOL    HW275703   5.053  10.885   3.121
24622SOL     OW75704   8.831   8.936   6.865
24622SOL    HW175705   8.871   8.917   6.781
24622SOL    HW275706   8.754   8.879   6.868
24623SOL     OW75707   9.113  12.547   7.968
24623SOL    HW175708   9.167  12.508   7.900
24623SOL    HW275709   9.117  12.641   7.951
24624SOL     OW75710   0.736   0.591   4.541
24624SOL    HW175711   0.657   0.574   4.489
24624SOL    HW275712   0.808   0.584   4.479
24625SOL     OW75713   6.232  12.407   6.790
24625SOL    HW175714   6.139  12.428   6.795
24625SOL    HW275715   6.236  12.321   6.748
24626SOL     OW75716   5.166  13.060   7.951
24626SOL    HW175717   5.205  13.067   8.039
24626SOL    HW275718   5.074  13.040   7.968
24627SOL     OW75719  13.860  14.155   9.435
24627SOL    HW175720  13.938  14.130   9.386
24627SOL    HW275721  13.814  14.216   9.378
24628SOL     OW75722   3.399  11.657   8.605
24628SOL    HW175723   3.377  11.577   8.652
24628SOL    HW275724   3.315  11.704   8.596
24629SOL     OW75725   7.370   6.859   7.088
24629SOL    HW175726   7.326   6.919   7.148
24629SOL    HW275727   7.304   6.792   7.069
24630SOL     OW75728  12.656   4.063  11.475
24630SOL    HW175729  12.561   4.070  11.464
24630SOL    HW275730  12.668   3.982  11.524
24631SOL     OW75731  13.883   4.835   5.447
24631SOL    HW175732  13.941   4.908   5.468
24631SOL    HW275733  13.797   4.863   5.478
24632SOL     OW75734   0.157   8.535   7.799
24632SOL    HW175735   0.064   8.526   7.820
24632SOL    HW275736   0.172   8.630   7.798
24633SOL     OW75737   0.646  13.809   0.435
24633SOL    HW175738   0.601  13.870   0.377
24633SOL    HW275739   0.732  13.798   0.396
24634SOL     OW75740   6.631   7.240   7.887
24634SOL    HW175741   6.542   7.271   7.905
24634SOL    HW275742   6.688   7.312   7.916
24635SOL     OW75743  10.438   7.052   1.797
24635SOL    HW175744  10.464   7.062   1.706
24635SOL    HW275745  10.519   7.062   1.847
24636SOL     OW75746  12.240   2.441   2.660
24636SOL    HW175747  12.187   2.430   2.581
24636SOL    HW275748  12.230   2.534   2.683
24637SOL     OW75749   0.390   0.129   4.007
24637SOL    HW175750   0.326   0.196   4.029
24637SOL    HW275751   0.338   0.053   3.982
24638SOL     OW75752   6.434  12.307   1.747
24638SOL    HW175753   6.349  12.330   1.785
24638SOL    HW275754   6.434  12.211   1.745
24639SOL     OW75755  14.358   6.029   5.465
24639SOL    HW175756  14.318   5.979   5.394
24639SOL    HW275757  14.337   5.980   5.544
24640SOL     OW75758  14.343   7.013  12.305
24640SOL    HW175759  14.406   6.942  12.303
24640SOL    HW275760  14.326   7.027  12.398
24641SOL     OW75761   4.048   7.794   3.991
24641SOL    HW175762   4.084   7.869   4.039
24641SOL    HW275763   4.115   7.773   3.926
24642SOL     OW75764  12.372   9.502  13.230
24642SOL    HW175765  12.420   9.573  13.188
24642SOL    HW275766  12.310   9.547  13.288
24643SOL     OW75767  12.871   1.646  14.661
24643SOL    HW175768  12.791   1.602  14.691
24643SOL    HW275769  12.861   1.650  14.566
24644SOL     OW75770  13.649   4.566   3.393
24644SOL    HW175771  13.638   4.483   3.347
24644SOL    HW275772  13.586   4.563   3.464
24645SOL     OW75773   4.180   4.035   2.715
24645SOL    HW175774   4.161   4.096   2.644
24645SOL    HW275775   4.254   3.984   2.683
24646SOL     OW75776  14.707   1.770  11.472
24646SOL    HW175777  14.707   1.795  11.380
24646SOL    HW275778  14.787   1.807  11.508
24647SOL     OW75779  11.281   5.330  13.438
24647SOL    HW175780  11.304   5.421  13.420
24647SOL    HW275781  11.318   5.281  13.364
24648SOL     OW75782  13.394   7.196   5.534
24648SOL    HW175783  13.437   7.111   5.527
24648SOL    HW275784  13.404   7.235   5.447
24649SOL     OW75785   4.329   8.814   3.415
24649SOL    HW175786   4.316   8.722   3.436
24649SOL    HW275787   4.345   8.815   3.321
24650SOL     OW75788   7.469  12.159  12.137
24650SOL    HW175789   7.494  12.245  12.171
24650SOL    HW275790   7.381  12.144  12.173
24651SOL     OW75791   6.950  10.253   1.087
24651SOL    HW175792   6.941  10.175   1.031
24651SOL    HW275793   6.984  10.219   1.170
24652SOL     OW75794   3.424   1.033   5.439
24652SOL    HW175795   3.437   0.941   5.458
24652SOL    HW275796   3.428   1.039   5.344
24653SOL     OW75797   1.416  14.176   2.858
24653SOL    HW175798   1.488  14.200   2.799
24653SOL    HW275799   1.400  14.256   2.909
24654SOL     OW75800   8.453  14.685   3.861
24654SOL    HW175801   8.430  14.744   3.789
24654SOL    HW275802   8.542  14.657   3.841
24655SOL     OW75803   6.339   0.296   6.931
24655SOL    HW175804   6.244   0.292   6.923
24655SOL    HW275805   6.355   0.372   6.987
24656SOL     OW75806   3.724   8.624   9.556
24656SOL    HW175807   3.725   8.581   9.471
24656SOL    HW275808   3.815   8.618   9.587
24657SOL     OW75809  13.856   7.865   9.244
24657SOL    HW175810  13.824   7.798   9.184
24657SOL    HW275811  13.950   7.850   9.248
24658SOL     OW75812  14.299   7.176   0.715
24658SOL    HW175813  14.374   7.132   0.674
24658SOL    HW275814  14.227   7.115   0.703
24659SOL     OW75815  13.614   9.896  13.493
24659SOL    HW175816  13.678   9.879  13.562
24659SOL    HW275817  13.545   9.946  13.535
24660SOL     OW75818   6.907   3.299   4.923
24660SOL    HW175819   6.891   3.221   4.871
24660SOL    HW275820   7.001   3.315   4.916
24661SOL     OW75821   9.178   7.130  13.752
24661SOL    HW175822   9.200   7.223  13.748
24661SOL    HW275823   9.262   7.085  13.746
24662SOL     OW75824  11.506   0.719   8.643
24662SOL    HW175825  11.543   0.664   8.712
24662SOL    HW275826  11.580   0.774   8.615
24663SOL     OW75827   5.988  11.185   8.203
24663SOL    HW175828   5.912  11.241   8.187
24663SOL    HW275829   5.977  11.112   8.142
24664SOL     OW75830   5.881  10.744   9.747
24664SOL    HW175831   5.854  10.705   9.663
24664SOL    HW275832   5.976  10.755   9.739
24665SOL     OW75833   8.783   6.554   0.416
24665SOL    HW175834   8.853   6.619   0.415
24665SOL    HW275835   8.702   6.605   0.406
24666SOL     OW75836  11.207   4.577   3.799
24666SOL    HW175837  11.163   4.501   3.837
24666SOL    HW275838  11.136   4.632   3.767
24667SOL     OW75839  10.977   1.081   9.695
24667SOL    HW175840  11.056   1.077   9.642
24667SOL    HW275841  11.008   1.103   9.783
24668SOL     OW75842   8.868  12.246   3.077
24668SOL    HW175843   8.945  12.281   3.031
24668SOL    HW275844   8.826  12.323   3.116
24669SOL     OW75845  11.118   7.447   6.023
24669SOL    HW175846  11.040   7.500   6.009
24669SOL    HW275847  11.091   7.358   6.000
24670SOL     OW75848   9.999  11.781   2.475
24670SOL    HW175849   9.982  11.857   2.529
24670SOL    HW275850  10.078  11.742   2.512
24671SOL     OW75851  14.748   6.949   4.535
24671SOL    HW175852  14.808   6.878   4.557
24671SOL    HW275853  14.708   6.973   4.619
24672SOL     OW75854   4.702  12.369   1.659
24672SOL    HW175855   4.763  12.355   1.731
24672SOL    HW275856   4.692  12.464   1.654
24673SOL     OW75857   9.293   0.296   2.775
24673SOL    HW175858   9.366   0.258   2.823
24673SOL    HW275859   9.270   0.374   2.825
24674SOL     OW75860  11.776   8.666  13.523
24674SOL    HW175861  11.751   8.580  13.556
24674SOL    HW275862  11.732   8.728  13.581
24675SOL     OW75863   3.903   7.935  12.688
24675SOL    HW175864   3.948   7.852  12.671
24675SOL    HW275865   3.911   7.983  12.606
24676SOL     OW75866   8.426  11.612  14.436
24676SOL    HW175867   8.381  11.637  14.356
24676SOL    HW275868   8.403  11.520  14.449
24677SOL     OW75869   5.213   5.812  11.238
24677SOL    HW175870   5.195   5.844  11.150
24677SOL    HW275871   5.201   5.717  11.232
24678SOL     OW75872   2.224   3.058  10.258
24678SOL    HW175873   2.192   2.969  10.243
24678SOL    HW275874   2.145   3.111  10.263
24679SOL     OW75875  14.055   6.942   2.706
24679SOL    HW175876  14.084   7.020   2.754
24679SOL    HW275877  14.112   6.939   2.629
24680SOL     OW75878  10.707  10.297  13.272
24680SOL    HW175879  10.634  10.356  13.252
24680SOL    HW275880  10.727  10.315  13.364
24681SOL     OW75881  14.099   2.828  13.777
24681SOL    HW175882  14.151   2.759  13.735
24681SOL    HW275883  14.046   2.783  13.842
24682SOL     OW75884   3.783   0.562  11.519
24682SOL    HW175885   3.763   0.536  11.609
24682SOL    HW275886   3.757   0.654  11.514
24683SOL     OW75887   4.576   0.036  10.619
24683SOL    HW175888   4.575   0.069  10.529
24683SOL    HW275889   4.489   0.056  10.654
24684SOL     OW75890   5.552   5.657  11.607
24684SOL    HW175891   5.491   5.669  11.680
24684SOL    HW275892   5.551   5.741  11.562
24685SOL     OW75893  12.653  12.499   2.820
24685SOL    HW175894  12.743  12.472   2.836
24685SOL    HW275895  12.631  12.554   2.895
24686SOL     OW75896   2.481   1.498   5.399
24686SOL    HW175897   2.390   1.469   5.394
24686SOL    HW275898   2.478   1.581   5.445
24687SOL     OW75899   6.154   3.358   0.783
24687SOL    HW175900   6.063   3.333   0.802
24687SOL    HW275901   6.201   3.275   0.776
24688SOL     OW75902  13.581  14.519   1.300
24688SOL    HW175903  13.606  14.449   1.239
24688SOL    HW275904  13.506  14.561   1.259
24689SOL     OW75905  10.892   4.918   2.108
24689SOL    HW175906  10.937   5.001   2.119
24689SOL    HW275907  10.954   4.853   2.141
24690SOL     OW75908   8.484  13.983   9.870
24690SOL    HW175909   8.400  13.996   9.914
24690SOL    HW275910   8.491  13.889   9.858
24691SOL     OW75911   4.174   7.064   9.911
24691SOL    HW175912   4.203   7.008   9.840
24691SOL    HW275913   4.180   7.009   9.989
24692SOL     OW75914  13.808   7.451   3.694
24692SOL    HW175915  13.898   7.475   3.670
24692SOL    HW275916  13.816   7.363   3.731
24693SOL     OW75917  13.245   1.533  11.055
24693SOL    HW175918  13.290   1.600  11.004
24693SOL    HW275919  13.194   1.582  11.120
24694SOL     OW75920   9.212   7.110   4.599
24694SOL    HW175921   9.273   7.180   4.576
24694SOL    HW275922   9.153   7.150   4.663
24695SOL     OW75923   6.210   0.238   8.931
24695SOL    HW175924   6.126   0.276   8.956
24695SOL    HW275925   6.193   0.143   8.927
24696SOL     OW75926   1.250   9.018  12.771
24696SOL    HW175927   1.301   9.099  12.772
24696SOL    HW275928   1.194   9.024  12.848
24697SOL     OW75929   6.335   1.044   8.113
24697SOL    HW175930   6.308   1.132   8.087
24697SOL    HW275931   6.396   1.058   8.186
24698SOL     OW75932  11.416  14.440   9.292
24698SOL    HW175933  11.357  14.385   9.345
24698SOL    HW275934  11.371  14.449   9.208
24699SOL     OW75935   9.870  13.114  10.803
24699SOL    HW175936   9.955  13.114  10.760
24699SOL    HW275937   9.846  13.022  10.810
24700SOL     OW75938   3.247   2.661   2.608
24700SOL    HW175939   3.188   2.613   2.667
24700SOL    HW275940   3.332   2.657   2.652
24701SOL     OW75941  11.369   2.957   7.146
24701SOL    HW175942  11.383   2.874   7.192
24701SOL    HW275943  11.376   3.024   7.213
24702SOL     OW75944   0.267  11.353  10.242
24702SOL    HW175945   0.217  11.356  10.324
24702SOL    HW275946   0.291  11.444  10.225
24703SOL     OW75947   3.764   9.535  11.608
24703SOL    HW175948   3.671   9.555  11.603
24703SOL    HW275949   3.789   9.562  11.696
24704SOL     OW75950   8.388   9.198   8.482
24704SOL    HW175951   8.435   9.241   8.553
24704SOL    HW275952   8.326   9.264   8.451
24705SOL     OW75953   9.524   2.114   2.186
24705SOL    HW175954   9.431   2.130   2.202
24705SOL    HW275955   9.567   2.196   2.209
24706SOL     OW75956   2.198  12.270   5.225
24706SOL    HW175957   2.124  12.330   5.216
24706SOL    HW275958   2.258  12.316   5.284
24707SOL     OW75959   2.552   3.946   8.111
24707SOL    HW175960   2.469   3.989   8.091
24707SOL    HW275961   2.530   3.886   8.183
24708SOL     OW75962   8.655   3.330   2.243
24708SOL    HW175963   8.670   3.378   2.162
24708SOL    HW275964   8.561   3.317   2.247
24709SOL     OW75965   5.823   6.334  12.486
24709SOL    HW175966   5.809   6.427  12.464
24709SOL    HW275967   5.839   6.292  12.402
24710SOL     OW75968   7.644  10.942   7.447
24710SOL    HW175969   7.603  10.922   7.363
24710SOL    HW275970   7.733  10.907   7.438
24711SOL     OW75971  11.054   0.569  12.594
24711SOL    HW175972  11.108   0.523  12.529
24711SOL    HW275973  11.027   0.501  12.656
24712SOL     OW75974  10.087   2.350   9.071
24712SOL    HW175975  10.171   2.316   9.038
24712SOL    HW275976  10.106   2.376   9.161
24713SOL     OW75977  10.350   7.003  13.062
24713SOL    HW175978  10.317   7.014  13.151
24713SOL    HW275979  10.393   6.917  13.062
24714SOL     OW75980  10.639   8.905   0.389
24714SOL    HW175981  10.576   8.977   0.396
24714SOL    HW275982  10.696   8.917   0.464
24715SOL     OW75983  12.280  13.679   9.297
24715SOL    HW175984  12.188  13.700   9.313
24715SOL    HW275985  12.327  13.754   9.333
24716SOL     OW75986  12.350   2.007   5.362
24716SOL    HW175987  12.264   2.037   5.392
24716SOL    HW275988  12.342   2.003   5.266
24717SOL     OW75989   7.261   9.153   2.922
24717SOL    HW175990   7.333   9.203   2.959
24717SOL    HW275991   7.301   9.072   2.890
24718SOL     OW75992  10.039   4.212   6.890
24718SOL    HW175993  10.080   4.200   6.804
24718SOL    HW275994  10.027   4.124   6.924
24719SOL     OW75995   0.679   2.082  14.870
24719SOL    HW175996   0.772   2.073   0.013
24719SOL    HW275997   0.638   2.005   0.030
24720SOL     OW75998   6.695   7.931   4.517
24720SOL    HW175999   6.730   8.018   4.533
24720SOL    HW276000   6.600   7.945   4.506
24721SOL     OW76001  13.372   6.024   3.809
24721SOL    HW176002  13.299   6.059   3.757
24721SOL    HW276003  13.347   5.933   3.825
24722SOL     OW76004   3.664   9.916  10.123
24722SOL    HW176005   3.596   9.974  10.156
24722SOL    HW276006   3.696   9.958  10.044
24723SOL     OW76007   8.988   2.550  10.393
24723SOL    HW176008   9.010   2.475  10.448
24723SOL    HW276009   9.072   2.587  10.368
24724SOL     OW76010  13.492  14.329  14.192
24724SOL    HW176011  13.491  14.419  14.223
24724SOL    HW276012  13.456  14.278  14.265
24725SOL     OW76013   4.866   5.475   3.858
24725SOL    HW176014   4.877   5.465   3.953
24725SOL    HW276015   4.779   5.516   3.849
24726SOL     OW76016   0.314   0.399   3.731
24726SOL    HW176017   0.386   0.426   3.788
24726SOL    HW276018   0.354   0.338   3.670
24727SOL     OW76019   0.305   5.902   9.407
24727SOL    HW176020   0.304   5.826   9.349
24727SOL    HW276021   0.239   5.961   9.372
24728SOL     OW76022   9.973   9.976   6.571
24728SOL    HW176023  10.017   9.998   6.489
24728SOL    HW276024  10.035   9.919   6.617
24729SOL     OW76025   6.922  11.036   4.986
24729SOL    HW176026   6.847  11.048   4.927
24729SOL    HW276027   6.885  10.990   5.062
24730SOL     OW76028  13.126  10.708   7.782
24730SOL    HW176029  13.065  10.645   7.820
24730SOL    HW276030  13.210  10.663   7.782
24731SOL     OW76031  13.414   2.580   0.708
24731SOL    HW176032  13.413   2.676   0.712
24731SOL    HW276033  13.412   2.553   0.800
24732SOL     OW76034  14.173   2.180  10.423
24732SOL    HW176035  14.156   2.193  10.516
24732SOL    HW276036  14.098   2.129  10.392
24733SOL     OW76037   0.645   1.515  14.075
24733SOL    HW176038   0.563   1.536  14.029
24733SOL    HW276039   0.713   1.532  14.011
24734SOL     OW76040  12.479   1.176   4.808
24734SOL    HW176041  12.413   1.195   4.742
24734SOL    HW276042  12.441   1.206   4.890
24735SOL     OW76043  14.171   5.689   0.940
24735SOL    HW176044  14.212   5.606   0.918
24735SOL    HW276045  14.086   5.687   0.895
24736SOL     OW76046   2.417   3.420   1.291
24736SOL    HW176047   2.456   3.497   1.333
24736SOL    HW276048   2.380   3.369   1.364
24737SOL     OW76049   3.173   5.390  12.625
24737SOL    HW176050   3.197   5.332  12.553
24737SOL    HW276051   3.216   5.473  12.604
24738SOL     OW76052   7.906   2.612   5.313
24738SOL    HW176053   7.886   2.521   5.295
24738SOL    HW276054   7.996   2.624   5.283
24739SOL     OW76055  13.001  11.531   6.190
24739SOL    HW176056  13.077  11.474   6.183
24739SOL    HW276057  12.927  11.472   6.196
24740SOL     OW76058   4.804   4.677  13.515
24740SOL    HW176059   4.735   4.707  13.456
24740SOL    HW276060   4.787   4.583  13.526
24741SOL     OW76061  10.147   7.161  12.392
24741SOL    HW176062  10.093   7.237  12.413
24741SOL    HW276063  10.233   7.197  12.374
24742SOL     OW76064   6.178  14.548   2.454
24742SOL    HW176065   6.175  14.519   2.363
24742SOL    HW276066   6.268  14.532   2.482
24743SOL     OW76067   8.706   2.016  12.693
24743SOL    HW176068   8.658   2.041  12.614
24743SOL    HW276069   8.666   2.068  12.762
24744SOL     OW76070   3.473   2.652   2.759
24744SOL    HW176071   3.523   2.647   2.678
24744SOL    HW276072   3.513   2.588   2.817
24745SOL     OW76073  14.003   1.362  14.054
24745SOL    HW176074  14.098   1.372  14.058
24745SOL    HW276075  13.969   1.419  14.124
24746SOL     OW76076  14.526   4.300   2.641
24746SOL    HW176077  14.543   4.376   2.697
24746SOL    HW276078  14.521   4.337   2.552
24747SOL     OW76079  10.457   3.640   9.824
24747SOL    HW176080  10.378   3.659   9.875
24747SOL    HW276081  10.484   3.553   9.853
24748SOL     OW76082  11.049  14.320   5.525
24748SOL    HW176083  11.051  14.403   5.478
24748SOL    HW276084  11.138  14.285   5.517
24749SOL     OW76085   3.210  12.172   4.133
24749SOL    HW176086   3.223  12.141   4.223
24749SOL    HW276087   3.176  12.261   4.144
24750SOL     OW76088  13.980  14.520   2.016
24750SOL    HW176089  14.069  14.486   2.024
24750SOL    HW276090  13.950  14.531   2.106
24751SOL     OW76091   0.742  11.153   7.283
24751SOL    HW176092   0.653  11.188   7.295
24751SOL    HW276093   0.796  11.231   7.270
24752SOL     OW76094   1.305   0.951   0.694
24752SOL    HW176095   1.372   0.962   0.761
24752SOL    HW276096   1.246   0.884   0.730
24753SOL     OW76097   9.162  13.784   4.699
24753SOL    HW176098   9.190  13.859   4.647
24753SOL    HW276099   9.120  13.823   4.776
24754SOL     OW76100  12.092   2.829   0.041
24754SOL    HW176101  12.187   2.838   0.032
24754SOL    HW276102  12.058   2.917   0.026
24755SOL     OW76103   2.098   1.311  12.244
24755SOL    HW176104   2.166   1.244  12.248
24755SOL    HW276105   2.143   1.389  12.213
24756SOL     OW76106   7.998  11.939  11.427
24756SOL    HW176107   8.091  11.924  11.444
24756SOL    HW276108   7.982  12.026  11.463
24757SOL     OW76109   8.191  10.971   4.291
24757SOL    HW176110   8.203  10.888   4.337
24757SOL    HW276111   8.116  11.012   4.334
24758SOL     OW76112   7.397   0.153   0.375
24758SOL    HW176113   7.436   0.239   0.390
24758SOL    HW276114   7.437   0.097   0.442
24759SOL     OW76115   7.527   1.376   6.245
24759SOL    HW176116   7.479   1.325   6.310
24759SOL    HW276117   7.585   1.313   6.203
24760SOL     OW76118   4.347   6.284   4.331
24760SOL    HW176119   4.259   6.258   4.359
24760SOL    HW276120   4.389   6.202   4.305
24761SOL     OW76121  10.438   1.255  11.560
24761SOL    HW176122  10.372   1.223  11.621
24761SOL    HW276123  10.389   1.301  11.492
24762SOL     OW76124  11.247   0.946  14.196
24762SOL    HW176125  11.250   1.028  14.245
24762SOL    HW276126  11.311   0.958  14.126
24763SOL     OW76127   8.471   6.559   4.754
24763SOL    HW176128   8.536   6.524   4.813
24763SOL    HW276129   8.415   6.614   4.809
24764SOL     OW76130  11.829   8.761   9.513
24764SOL    HW176131  11.855   8.673   9.541
24764SOL    HW276132  11.815   8.809   9.594
24765SOL     OW76133   7.777   5.840  12.741
24765SOL    HW176134   7.756   5.874  12.828
24765SOL    HW276135   7.695   5.849  12.692
24766SOL     OW76136   1.061  13.573   3.133
24766SOL    HW176137   1.021  13.535   3.055
24766SOL    HW276138   1.039  13.512   3.204
24767SOL     OW76139   9.257   9.980   7.590
24767SOL    HW176140   9.180   9.924   7.577
24767SOL    HW276141   9.281   9.967   7.682
24768SOL     OW76142   1.180   4.457   2.832
24768SOL    HW176143   1.163   4.482   2.923
24768SOL    HW276144   1.114   4.505   2.782
24769SOL     OW76145   7.472   5.063   5.133
24769SOL    HW176146   7.447   4.971   5.140
24769SOL    HW276147   7.413   5.100   5.067
24770SOL     OW76148   5.218   2.299   7.048
24770SOL    HW176149   5.133   2.276   7.087
24770SOL    HW276150   5.268   2.217   7.048
24771SOL     OW76151   5.017   7.204   8.328
24771SOL    HW176152   4.922   7.216   8.323
24771SOL    HW276153   5.053   7.292   8.316
24772SOL     OW76154   5.923  12.067   6.087
24772SOL    HW176155   5.873  12.119   6.150
24772SOL    HW276156   5.943  12.129   6.017
24773SOL     OW76157  12.926   2.309  10.726
24773SOL    HW176158  13.013   2.324  10.691
24773SOL    HW276159  12.928   2.217  10.754
24774SOL     OW76160   3.386   6.900  13.327
24774SOL    HW176161   3.440   6.824  13.349
24774SOL    HW276162   3.447   6.973  13.321
24775SOL     OW76163   4.350   5.722  10.068
24775SOL    HW176164   4.330   5.802  10.118
24775SOL    HW276165   4.279   5.662  10.088
24776SOL     OW76166   5.414   8.921  14.775
24776SOL    HW176167   5.498   8.875  14.769
24776SOL    HW276168   5.437   9.012  14.791
24777SOL     OW76169  12.835  10.950  11.390
24777SOL    HW176170  12.802  10.968  11.301
24777SOL    HW276171  12.879  10.865  11.382
24778SOL     OW76172   8.605  10.003   0.623
24778SOL    HW176173   8.641   9.919   0.652
24778SOL    HW276174   8.678  10.047   0.579
24779SOL     OW76175   6.210   7.667  14.191
24779SOL    HW176176   6.305   7.657  14.177
24779SOL    HW276177   6.203   7.726  14.266
24780SOL     OW76178  14.499   4.454   3.463
24780SOL    HW176179  14.539   4.468   3.549
24780SOL    HW276180  14.570   4.468   3.401
24781SOL     OW76181  11.202   9.264  12.972
24781SOL    HW176182  11.206   9.290  12.879
24781SOL    HW276183  11.226   9.172  12.972
24782SOL     OW76184   1.739  14.383  10.604
24782SOL    HW176185   1.679  14.314  10.633
24782SOL    HW276186   1.767  14.355  10.517
24783SOL     OW76187   2.203  12.348  13.468
24783SOL    HW176188   2.179  12.372  13.379
24783SOL    HW276189   2.147  12.274  13.490
24784SOL     OW76190  13.472   5.785   6.393
24784SOL    HW176191  13.496   5.715   6.453
24784SOL    HW276192  13.471   5.864   6.446
24785SOL     OW76193   1.734   7.399   7.689
24785SOL    HW176194   1.797   7.443   7.632
24785SOL    HW276195   1.667   7.465   7.706
24786SOL     OW76196   5.621  10.652   6.006
24786SOL    HW176197   5.691  10.635   5.943
24786SOL    HW276198   5.632  10.585   6.073
24787SOL     OW76199   1.485   6.828  11.863
24787SOL    HW176200   1.447   6.850  11.777
24787SOL    HW276201   1.577   6.809  11.844
24788SOL     OW76202  12.643   9.161   7.987
24788SOL    HW176203  12.737   9.160   7.972
24788SOL    HW276204  12.633   9.146   8.080
24789SOL     OW76205   9.488   0.924   4.582
24789SOL    HW176206   9.403   0.884   4.602
24789SOL    HW276207   9.480   1.014   4.616
24790SOL     OW76208   9.643   9.838  11.723
24790SOL    HW176209   9.671   9.929  11.715
24790SOL    HW276210   9.724   9.788  11.716
24791SOL     OW76211  11.213  13.416   4.542
24791SOL    HW176212  11.271  13.467   4.598
24791SOL    HW276213  11.125  13.442   4.570
24792SOL     OW76214   6.421   3.647  11.993
24792SOL    HW176215   6.393   3.597  11.916
24792SOL    HW276216   6.495   3.597  12.028
24793SOL     OW76217  13.372   0.368  11.881
24793SOL    HW176218  13.452   0.388  11.931
24793SOL    HW276219  13.323   0.307  11.936
24794SOL     OW76220   6.402   0.538   0.315
24794SOL    HW176221   6.418   0.605   0.248
24794SOL    HW276222   6.476   0.546   0.374
24795SOL     OW76223  13.497   1.644  11.767
24795SOL    HW176224  13.441   1.668  11.694
24795SOL    HW276225  13.553   1.575  11.733
24796SOL     OW76226   9.882   9.786   5.716
24796SOL    HW176227   9.904   9.738   5.636
24796SOL    HW276228   9.802   9.833   5.694
24797SOL     OW76229   5.728  13.547   2.287
24797SOL    HW176230   5.660  13.562   2.222
24797SOL    HW276231   5.798  13.609   2.265
24798SOL     OW76232   3.020   6.937   7.978
24798SOL    HW176233   2.950   6.910   8.038
24798SOL    HW276234   3.086   6.869   7.987
24799SOL     OW76235   6.009  10.671   2.941
24799SOL    HW176236   6.017  10.764   2.921
24799SOL    HW276237   5.933  10.666   3.000
24800SOL     OW76238   4.640  10.722   7.732
24800SOL    HW176239   4.735  10.711   7.725
24800SOL    HW276240   4.615  10.771   7.654
24801SOL     OW76241  14.683   2.978   2.681
24801SOL    HW176242  14.669   2.901   2.737
24801SOL    HW276243  14.698   2.941   2.594
24802SOL     OW76244  13.373   3.242   1.751
24802SOL    HW176245  13.298   3.301   1.753
24802SOL    HW276246  13.368   3.195   1.834
24803SOL     OW76247  13.511   1.558   9.467
24803SOL    HW176248  13.544   1.489   9.525
24803SOL    HW276249  13.499   1.514   9.382
24804SOL     OW76250   0.280   8.549   2.475
24804SOL    HW176251   0.285   8.614   2.405
24804SOL    HW276252   0.190   8.517   2.472
24805SOL     OW76253   2.880   6.855   5.235
24805SOL    HW176254   2.873   6.760   5.239
24805SOL    HW276255   2.790   6.887   5.235
24806SOL     OW76256   0.972  13.187  13.872
24806SOL    HW176257   0.975  13.163  13.780
24806SOL    HW276258   1.034  13.128  13.915
24807SOL     OW76259   2.601  10.955   6.888
24807SOL    HW176260   2.507  10.964   6.903
24807SOL    HW276261   2.611  10.868   6.849
24808SOL     OW76262   4.249   5.974   9.891
24808SOL    HW176263   4.254   5.919   9.813
24808SOL    HW276264   4.290   5.923   9.960
24809SOL     OW76265   8.129   0.340   4.587
24809SOL    HW176266   8.129   0.257   4.635
24809SOL    HW276267   8.039   0.370   4.589
24810SOL     OW76268   9.933   5.419  12.119
24810SOL    HW176269  10.023   5.395  12.140
24810SOL    HW276270   9.880   5.369  12.180
24811SOL     OW76271  13.933   5.165   4.751
24811SOL    HW176272  13.942   5.213   4.669
24811SOL    HW276273  13.862   5.210   4.798
24812SOL     OW76274   2.718   7.469  10.826
24812SOL    HW176275   2.758   7.451  10.912
24812SOL    HW276276   2.625   7.457  10.840
24813SOL     OW76277   0.962   7.958   5.008
24813SOL    HW176278   0.901   8.031   5.018
24813SOL    HW276279   0.907   7.879   5.011
24814SOL     OW76280   9.175   3.869  10.725
24814SOL    HW176281   9.095   3.916  10.705
24814SOL    HW276282   9.238   3.900  10.660
24815SOL     OW76283   5.191   8.200  14.840
24815SOL    HW176284   5.227   8.250   0.034
24815SOL    HW276285   5.265   8.188  14.781
24816SOL     OW76286   8.391   8.998  13.034
24816SOL    HW176287   8.433   8.918  13.003
24816SOL    HW276288   8.339   9.029  12.959
24817SOL     OW76289   4.658   9.909   9.901
24817SOL    HW176290   4.703   9.876   9.979
24817SOL    HW276291   4.606   9.983   9.932
24818SOL     OW76292  10.722  13.953   0.667
24818SOL    HW176293  10.739  13.895   0.741
24818SOL    HW276294  10.649  13.913   0.620
24819SOL     OW76295   1.395   6.627   5.297
24819SOL    HW176296   1.383   6.646   5.390
24819SOL    HW276297   1.489   6.621   5.286
24820SOL     OW76298   4.965   4.647   1.457
24820SOL    HW176299   4.930   4.567   1.418
24820SOL    HW276300   5.000   4.620   1.541
24821SOL     OW76301   1.282   6.058   7.954
24821SOL    HW176302   1.218   6.020   8.014
24821SOL    HW276303   1.251   6.032   7.867
24822SOL     OW76304  11.332  11.146  11.819
24822SOL    HW176305  11.307  11.082  11.752
24822SOL    HW276306  11.313  11.231  11.780
24823SOL     OW76307   5.040   4.849  13.544
24823SOL    HW176308   4.951   4.813  13.542
24823SOL    HW276309   5.079   4.819  13.461
24824SOL     OW76310   8.212  12.392   2.039
24824SOL    HW176311   8.169  12.310   2.017
24824SOL    HW276312   8.210  12.395   2.134
24825SOL     OW76313   6.308   6.758   8.624
24825SOL    HW176314   6.261   6.840   8.607
24825SOL    HW276315   6.288   6.703   8.549
24826SOL     OW76316   5.928   3.919   1.306
24826SOL    HW176317   5.957   3.828   1.296
24826SOL    HW276318   5.853   3.927   1.247
24827SOL     OW76319  12.593  13.851   4.098
24827SOL    HW176320  12.581  13.894   4.183
24827SOL    HW276321  12.582  13.758   4.116
24828SOL     OW76322   3.945   9.548   7.349
24828SOL    HW176323   3.942   9.460   7.386
24828SOL    HW276324   3.957   9.605   7.425
24829SOL     OW76325   6.196  10.733   9.251
24829SOL    HW176326   6.271  10.695   9.297
24829SOL    HW276327   6.235  10.786   9.182
24830SOL     OW76328   1.260  13.148   4.165
24830SOL    HW176329   1.322  13.081   4.194
24830SOL    HW276330   1.288  13.228   4.209
24831SOL     OW76331   3.036   9.534   7.208
24831SOL    HW176332   3.046   9.454   7.156
24831SOL    HW276333   3.126   9.565   7.221
24832SOL     OW76334   0.926   4.386  11.005
24832SOL    HW176335   0.991   4.455  10.994
24832SOL    HW276336   0.933   4.361  11.097
24833SOL     OW76337   5.908   9.035  12.032
24833SOL    HW176338   5.957   8.952  12.031
24833SOL    HW276339   5.976   9.102  12.021
24834SOL     OW76340  11.191   3.547   3.204
24834SOL    HW176341  11.104   3.580   3.183
24834SOL    HW276342  11.250   3.601   3.152
24835SOL     OW76343   9.793   9.854  14.741
24835SOL    HW176344   9.755   9.941  14.729
24835SOL    HW276345   9.879   9.870  14.780
24836SOL     OW76346  13.264   8.085   9.119
24836SOL    HW176347  13.341   8.127   9.080
24836SOL    HW276348  13.286   8.078   9.212
24837SOL     OW76349  10.528  14.621   1.871
24837SOL    HW176350  10.498  14.633   1.781
24837SOL    HW276351  10.509  14.705   1.913
24838SOL     OW76352  13.412  13.246   0.430
24838SOL    HW176353  13.405  13.241   0.334
24838SOL    HW276354  13.463  13.325   0.446
24839SOL     OW76355   8.520  12.642  11.295
24839SOL    HW176356   8.603  12.672  11.258
24839SOL    HW276357   8.497  12.709  11.359
24840SOL     OW76358  14.557   5.064  13.494
24840SOL    HW176359  14.488   5.020  13.446
24840SOL    HW276360  14.588   5.133  13.435
24841SOL     OW76361  12.207   3.806   5.928
24841SOL    HW176362  12.112   3.796   5.924
24841SOL    HW276363  12.241   3.717   5.929
24842SOL     OW76364   0.244  11.964   9.323
24842SOL    HW176365   0.325  12.015   9.327
24842SOL    HW276366   0.250  11.904   9.397
24843SOL     OW76367   3.402   1.606  13.981
24843SOL    HW176368   3.441   1.518  13.984
24843SOL    HW276369   3.313   1.591  13.949
24844SOL     OW76370   2.345  13.042  14.512
24844SOL    HW176371   2.337  12.981  14.438
24844SOL    HW276372   2.440  13.050  14.525
24845SOL     OW76373  12.604   5.321   3.868
24845SOL    HW176374  12.527   5.289   3.821
24845SOL    HW276375  12.611   5.265   3.945
24846SOL     OW76376  10.273  10.903   9.919
24846SOL    HW176377  10.356  10.933   9.883
24846SOL    HW276378  10.216  10.980   9.916
24847SOL     OW76379  13.666   3.576   7.232
24847SOL    HW176380  13.596   3.515   7.255
24847SOL    HW276381  13.709   3.536   7.157
24848SOL     OW76382   2.226  12.834  12.291
24848SOL    HW176383   2.243  12.868  12.204
24848SOL    HW276384   2.131  12.824  12.296
24849SOL     OW76385   3.845   7.494  10.340
24849SOL    HW176386   3.871   7.409  10.304
24849SOL    HW276387   3.859   7.556  10.268
24850SOL     OW76388   5.336   8.505   2.989
24850SOL    HW176389   5.415   8.467   2.951
24850SOL    HW276390   5.277   8.430   3.003
24851SOL     OW76391   4.028  14.319   3.028
24851SOL    HW176392   3.981  14.262   2.967
24851SOL    HW276393   4.057  14.393   2.974
24852SOL     OW76394  12.836   5.415  10.456
24852SOL    HW176395  12.850   5.491  10.514
24852SOL    HW276396  12.869   5.341  10.506
24853SOL     OW76397   7.965  10.080   5.054
24853SOL    HW176398   7.978  10.154   4.994
24853SOL    HW276399   7.909  10.116   5.123
24854SOL     OW76400   2.505   7.535   2.220
24854SOL    HW176401   2.443   7.466   2.244
24854SOL    HW276402   2.490   7.605   2.284
24855SOL     OW76403  14.590  13.990  10.527
24855SOL    HW176404  14.562  13.972  10.437
24855SOL    HW276405  14.561  14.080  10.544
24856SOL     OW76406   3.214   1.489  10.695
24856SOL    HW176407   3.179   1.403  10.719
24856SOL    HW276408   3.305   1.487  10.723
24857SOL     OW76409  13.392   3.597   4.663
24857SOL    HW176410  13.372   3.504   4.673
24857SOL    HW276411  13.373   3.617   4.571
24858SOL     OW76412  13.261  12.355   3.191
24858SOL    HW176413  13.313  12.330   3.114
24858SOL    HW276414  13.170  12.340   3.165
24859SOL     OW76415   3.705  11.877   3.895
24859SOL    HW176416   3.666  11.903   3.979
24859SOL    HW276417   3.716  11.782   3.902
24860SOL     OW76418   3.504  11.119  12.498
24860SOL    HW176419   3.458  11.203  12.505
24860SOL    HW276420   3.477  11.071  12.576
24861SOL     OW76421   4.226  12.100   5.738
24861SOL    HW176422   4.297  12.106   5.801
24861SOL    HW276423   4.217  12.189   5.703
24862SOL     OW76424  13.560   2.054   5.720
24862SOL    HW176425  13.476   2.091   5.748
24862SOL    HW276426  13.541   2.013   5.636
24863SOL     OW76427   3.380   3.010   7.206
24863SOL    HW176428   3.316   3.082   7.208
24863SOL    HW276429   3.372   2.975   7.117
24864SOL     OW76430   5.064   6.319   2.281
24864SOL    HW176431   4.986   6.282   2.239
24864SOL    HW276432   5.061   6.284   2.371
24865SOL     OW76433  12.970   0.283   3.951
24865SOL    HW176434  13.045   0.329   3.989
24865SOL    HW276435  13.003   0.246   3.869
24866SOL     OW76436   4.207   0.662   3.442
24866SOL    HW176437   4.183   0.600   3.373
24866SOL    HW276438   4.223   0.607   3.519
24867SOL     OW76439  12.062   4.823   7.858
24867SOL    HW176440  12.118   4.763   7.810
24867SOL    HW276441  12.120   4.864   7.922
24868SOL     OW76442  12.455   3.651   3.366
24868SOL    HW176443  12.399   3.625   3.293
24868SOL    HW276444  12.539   3.610   3.348
24869SOL     OW76445   9.050   2.192   2.814
24869SOL    HW176446   9.108   2.234   2.878
24869SOL    HW276447   8.993   2.136   2.867
24870SOL     OW76448  12.557   1.704   2.590
24870SOL    HW176449  12.535   1.735   2.502
24870SOL    HW276450  12.481   1.654   2.618
24871SOL     OW76451   1.255   9.152   1.534
24871SOL    HW176452   1.162   9.131   1.545
24871SOL    HW276453   1.298   9.113   1.609
24872SOL     OW76454  14.225   1.720   3.942
24872SOL    HW176455  14.144   1.764   3.919
24872SOL    HW276456  14.204   1.627   3.940
24873SOL     OW76457   2.414   0.842   9.296
24873SOL    HW176458   2.468   0.765   9.281
24873SOL    HW276459   2.332   0.807   9.331
24874SOL     OW76460   8.528   9.430  12.880
24874SOL    HW176461   8.561   9.439  12.790
24874SOL    HW276462   8.604   9.400  12.930
24875SOL     OW76463   8.957   7.412   7.799
24875SOL    HW176464   8.960   7.375   7.887
24875SOL    HW276465   9.045   7.400   7.764
24876SOL     OW76466   6.445   7.416   0.973
24876SOL    HW176467   6.414   7.440   1.061
24876SOL    HW276468   6.367   7.381   0.930
24877SOL     OW76469   8.379   9.210  13.301
24877SOL    HW176470   8.441   9.140  13.322
24877SOL    HW276471   8.434   9.285  13.277
24878SOL     OW76472   1.883  14.499  12.405
24878SOL    HW176473   1.860  14.587  12.375
24878SOL    HW276474   1.821  14.442  12.358
24879SOL     OW76475  14.331   0.500   8.959
24879SOL    HW176476  14.373   0.508   8.874
24879SOL    HW276477  14.264   0.568   8.960
24880SOL     OW76478  12.791  13.093  11.449
24880SOL    HW176479  12.870  13.060  11.407
24880SOL    HW276480  12.719  13.051  11.402
24881SOL     OW76481   5.733   5.014   8.122
24881SOL    HW176482   5.751   5.046   8.210
24881SOL    HW276483   5.819   5.013   8.079
24882SOL     OW76484  13.346  10.088  10.074
24882SOL    HW176485  13.354  10.181  10.095
24882SOL    HW276486  13.291  10.086   9.996
24883SOL     OW76487   0.111   9.244   5.636
24883SOL    HW176488   0.201   9.227   5.665
24883SOL    HW276489   0.089   9.171   5.579
24884SOL     OW76490   2.804  13.394   9.379
24884SOL    HW176491   2.779  13.416   9.289
24884SOL    HW276492   2.872  13.457   9.402
24885SOL     OW76493   9.398  10.683   0.763
24885SOL    HW176494   9.337  10.730   0.820
24885SOL    HW276495   9.393  10.592   0.791
24886SOL     OW76496  11.479  13.430   9.208
24886SOL    HW176497  11.447  13.444   9.297
24886SOL    HW276498  11.540  13.357   9.215
24887SOL     OW76499   7.512  10.895   3.101
24887SOL    HW176500   7.488  10.874   3.191
24887SOL    HW276501   7.538  10.811   3.063
24888SOL     OW76502   9.448   3.953  13.235
24888SOL    HW176503   9.482   3.959  13.325
24888SOL    HW276504   9.472   3.865  13.207
24889SOL     OW76505   0.154   8.724   6.298
24889SOL    HW176506   0.094   8.650   6.306
24889SOL    HW276507   0.223   8.693   6.240
24890SOL     OW76508   8.876  10.414   6.807
24890SOL    HW176509   8.869  10.499   6.764
24890SOL    HW276510   8.896  10.435   6.898
24891SOL     OW76511   6.691   7.774   8.170
24891SOL    HW176512   6.775   7.729   8.183
24891SOL    HW276513   6.670   7.809   8.257
24892SOL     OW76514  12.782  11.365   7.426
24892SOL    HW176515  12.775  11.270   7.422
24892SOL    HW276516  12.703  11.393   7.472
24893SOL     OW76517   3.882   3.289  11.185
24893SOL    HW176518   3.864   3.383  11.194
24893SOL    HW276519   3.860   3.252  11.270
24894SOL     OW76520   6.765   3.826  13.926
24894SOL    HW176521   6.741   3.853  14.015
24894SOL    HW276522   6.820   3.898  13.894
24895SOL     OW76523   5.487   6.651   0.186
24895SOL    HW176524   5.563   6.647   0.244
24895SOL    HW276525   5.426   6.709   0.231
24896SOL     OW76526   9.491   5.820  12.241
24896SOL    HW176527   9.585   5.834  12.244
24896SOL    HW276528   9.478   5.763  12.165
24897SOL     OW76529   9.258   1.407   5.079
24897SOL    HW176530   9.211   1.404   5.163
24897SOL    HW276531   9.328   1.471   5.093
24898SOL     OW76532  14.309   0.731   1.065
24898SOL    HW176533  14.347   0.809   1.024
24898SOL    HW276534  14.282   0.760   1.152
24899SOL     OW76535  13.790  12.893  13.006
24899SOL    HW176536  13.718  12.830  13.004
24899SOL    HW276537  13.836  12.873  13.087
24900SOL     OW76538  13.494   8.765   9.618
24900SOL    HW176539  13.499   8.811   9.534
24900SOL    HW276540  13.508   8.833   9.683
24901SOL     OW76541   8.261   2.998   9.784
24901SOL    HW176542   8.167   3.012   9.770
24901SOL    HW276543   8.276   3.021   9.876
24902SOL     OW76544   0.300   5.932  14.870
24902SOL    HW176545   0.271   5.917   0.080
24902SOL    HW276546   0.244   6.003  14.838
24903SOL     OW76547   4.298  12.393   9.064
24903SOL    HW176548   4.334  12.404   8.976
24903SOL    HW276549   4.343  12.316   9.099
24904SOL     OW76550   8.460   3.310   6.459
24904SOL    HW176551   8.399   3.347   6.523
24904SOL    HW276552   8.544   3.350   6.481
24905SOL     OW76553  10.978   9.430  12.199
24905SOL    HW176554  10.931   9.452  12.280
24905SOL    HW276555  10.912   9.385  12.145
24906SOL     OW76556   1.837   5.948   6.568
24906SOL    HW176557   1.928   5.976   6.562
24906SOL    HW276558   1.814   5.958   6.660
24907SOL     OW76559  12.171   7.796   8.372
24907SOL    HW176560  12.257   7.797   8.330
24907SOL    HW276561  12.160   7.885   8.405
24908SOL     OW76562  14.660   5.853   2.952
24908SOL    HW176563  14.608   5.826   2.877
24908SOL    HW276564  14.688   5.770   2.993
24909SOL     OW76565   5.218  11.000   2.844
24909SOL    HW176566   5.267  10.957   2.915
24909SOL    HW276567   5.141  11.037   2.887
24910SOL     OW76568   4.221  10.714   6.820
24910SOL    HW176569   4.269  10.639   6.783
24910SOL    HW276570   4.169  10.676   6.891
24911SOL     OW76571   0.543  14.001   3.827
24911SOL    HW176572   0.619  14.029   3.776
24911SOL    HW276573   0.571  14.007   3.918
24912SOL     OW76574   4.106   3.750   2.562
24912SOL    HW176575   4.130   3.829   2.513
24912SOL    HW276576   4.087   3.781   2.650
24913SOL     OW76577   2.450   8.196   4.084
24913SOL    HW176578   2.528   8.141   4.078
24913SOL    HW276579   2.467   8.268   4.023
24914SOL     OW76580   6.500  11.416   1.628
24914SOL    HW176581   6.428  11.479   1.618
24914SOL    HW276582   6.461  11.331   1.608
24915SOL     OW76583  14.743   1.130  11.253
24915SOL    HW176584  14.762   1.119  11.160
24915SOL    HW276585  14.829   1.126  11.296
24916SOL     OW76586   5.996  12.914   0.266
24916SOL    HW176587   5.954  12.999   0.270
24916SOL    HW276588   6.086  12.933   0.240
24917SOL     OW76589  12.730  10.141   5.989
24917SOL    HW176590  12.779  10.183   5.918
24917SOL    HW276591  12.650  10.193   5.997
24918SOL     OW76592   2.665   2.658   7.108
24918SOL    HW176593   2.704   2.739   7.141
24918SOL    HW276594   2.612   2.626   7.181
24919SOL     OW76595  12.821   9.633  12.813
24919SOL    HW176596  12.737   9.590  12.827
24919SOL    HW276597  12.884   9.578  12.858
24920SOL     OW76598  11.588   8.090   7.900
24920SOL    HW176599  11.553   8.002   7.912
24920SOL    HW276600  11.665   8.094   7.957
24921SOL     OW76601  11.606  12.300   5.584
24921SOL    HW176602  11.542  12.234   5.559
24921SOL    HW276603  11.688  12.252   5.595
24922SOL     OW76604   5.120   6.041  10.698
24922SOL    HW176605   5.213   6.059  10.711
24922SOL    HW276606   5.117   5.949  10.672
24923SOL     OW76607   8.417   8.257  10.557
24923SOL    HW176608   8.432   8.187  10.493
24923SOL    HW276609   8.424   8.338  10.506
24924SOL     OW76610  13.361   7.174  12.494
24924SOL    HW176611  13.416   7.110  12.539
24924SOL    HW276612  13.378   7.160  12.401
24925SOL     OW76613  14.351   3.697   0.759
24925SOL    HW176614  14.364   3.712   0.665
24925SOL    HW276615  14.397   3.615   0.777
24926SOL     OW76616   4.671   0.103  14.601
24926SOL    HW176617   4.707   0.191  14.592
24926SOL    HW276618   4.641   0.080  14.513
24927SOL     OW76619  10.084   4.023   0.319
24927SOL    HW176620  10.024   3.951   0.336
24927SOL    HW276621  10.029   4.102   0.326
24928SOL     OW76622  11.004   8.346   7.404
24928SOL    HW176623  10.979   8.289   7.477
24928SOL    HW276624  11.098   8.361   7.416
24929SOL     OW76625  14.431   8.680  12.248
24929SOL    HW176626  14.484   8.720  12.316
24929SOL    HW276627  14.369   8.624  12.295
24930SOL     OW76628   5.308   9.190   6.836
24930SOL    HW176629   5.341   9.132   6.905
24930SOL    HW276630   5.296   9.132   6.761
24931SOL     OW76631  14.701  14.607   9.165
24931SOL    HW176632  14.788  14.577   9.190
24931SOL    HW276633  14.696  14.593   9.070
24932SOL     OW76634  14.802   5.956  10.720
24932SOL    HW176635  14.740   5.991  10.655
24932SOL    HW276636  14.845   5.884  10.675
24933SOL     OW76637  12.560   9.378  12.048
24933SOL    HW176638  12.466   9.389  12.064
24933SOL    HW276639  12.602   9.421  12.123
24934SOL     OW76640  13.491   2.708  11.148
24934SOL    HW176641  13.521   2.791  11.109
24934SOL    HW276642  13.512   2.717  11.241
24935SOL     OW76643   2.313   8.447   7.791
24935SOL    HW176644   2.261   8.415   7.717
24935SOL    HW276645   2.348   8.367   7.832
24936SOL     OW76646   3.905  13.661   9.014
24936SOL    HW176647   3.882  13.624   9.100
24936SOL    HW276648   3.986  13.617   8.990
24937SOL     OW76649   6.527   8.154   5.228
24937SOL    HW176650   6.609   8.203   5.227
24937SOL    HW276651   6.553   8.063   5.215
24938SOL     OW76652  11.108   0.247   7.891
24938SOL    HW176653  11.123   0.295   7.972
24938SOL    HW276654  11.015   0.225   7.892
24939SOL     OW76655   8.152   7.036   9.908
24939SOL    HW176656   8.246   7.051   9.914
24939SOL    HW276657   8.142   6.942   9.924
24940SOL     OW76658   7.532  14.081   4.616
24940SOL    HW176659   7.477  14.134   4.559
24940SOL    HW276660   7.580  14.024   4.556
24941SOL     OW76661   6.596  13.619   7.420
24941SOL    HW176662   6.514  13.645   7.379
24941SOL    HW276663   6.584  13.637   7.513
24942SOL     OW76664   8.571  10.428   2.481
24942SOL    HW176665   8.622  10.380   2.416
24942SOL    HW276666   8.587  10.520   2.462
24943SOL     OW76667   8.965   7.308  13.563
24943SOL    HW176668   8.923   7.394  13.551
24943SOL    HW276669   8.942   7.283  13.653
24944SOL     OW76670   4.689  11.584   4.815
24944SOL    HW176671   4.738  11.602   4.895
24944SOL    HW276672   4.597  11.586   4.843
24945SOL     OW76673   6.117   0.859  14.356
24945SOL    HW176674   6.114   0.863  14.452
24945SOL    HW276675   6.163   0.938  14.329
24946SOL     OW76676  11.292  12.442   8.718
24946SOL    HW176677  11.329  12.468   8.634
24946SOL    HW276678  11.300  12.519   8.773
24947SOL     OW76679   4.434   7.214   7.477
24947SOL    HW176680   4.497   7.157   7.432
24947SOL    HW276681   4.393   7.264   7.407
24948SOL     OW76682   2.014   0.453   8.164
24948SOL    HW176683   2.068   0.406   8.227
24948SOL    HW276684   2.068   0.528   8.138
24949SOL     OW76685   3.178   3.199   4.764
24949SOL    HW176686   3.167   3.271   4.827
24949SOL    HW276687   3.224   3.238   4.690
24950SOL     OW76688  11.964   2.276   2.225
24950SOL    HW176689  11.944   2.230   2.144
24950SOL    HW276690  11.936   2.216   2.294
24951SOL     OW76691  13.458   7.346   8.832
24951SOL    HW176692  13.454   7.275   8.768
24951SOL    HW276693  13.439   7.425   8.782
24952SOL     OW76694  10.909   0.564  14.839
24952SOL    HW176695  10.830   0.537   0.008
24952SOL    HW276696  10.973   0.584   0.027
24953SOL     OW76697   8.335  13.439   5.212
24953SOL    HW176698   8.370  13.350   5.211
24953SOL    HW276699   8.329  13.463   5.120
24954SOL     OW76700  14.813   7.130   5.515
24954SOL    HW176701  14.754   7.055   5.504
24954SOL    HW276702   0.016   7.102   5.474
24955SOL     OW76703  13.686  14.150   7.908
24955SOL    HW176704  13.648  14.070   7.872
24955SOL    HW276705  13.616  14.188   7.962
24956SOL     OW76706   5.380   5.080   6.131
24956SOL    HW176707   5.380   4.986   6.149
24956SOL    HW276708   5.334   5.119   6.205
24957SOL     OW76709   1.077   5.506   5.356
24957SOL    HW176710   1.048   5.518   5.446
24957SOL    HW276711   1.168   5.477   5.363
24958SOL     OW76712   1.710   8.540   4.382
24958SOL    HW176713   1.718   8.598   4.307
24958SOL    HW276714   1.782   8.566   4.440
24959SOL     OW76715  13.880  12.001   9.916
24959SOL    HW176716  13.910  11.932   9.976
24959SOL    HW276717  13.786  11.985   9.907
24960SOL     OW76718  13.677   8.141   4.141
24960SOL    HW176719  13.770   8.126   4.157
24960SOL    HW276720  13.675   8.208   4.073
24961SOL     OW76721   0.326  14.131   8.184
24961SOL    HW176722   0.267  14.131   8.109
24961SOL    HW276723   0.288  14.195   8.244
24962SOL     OW76724  10.261   3.221   1.010
24962SOL    HW176725  10.265   3.297   0.953
24962SOL    HW276726  10.264   3.257   1.099
24963SOL     OW76727   1.740   1.633   6.271
24963SOL    HW176728   1.804   1.646   6.201
24963SOL    HW276729   1.679   1.707   6.262
24964SOL     OW76730   7.304  10.346  14.502
24964SOL    HW176731   7.386  10.310  14.470
24964SOL    HW276732   7.310  10.440  14.487
24965SOL     OW76733   7.880   2.554   2.842
24965SOL    HW176734   7.838   2.481   2.796
24965SOL    HW276735   7.965   2.564   2.797
24966SOL     OW76736   3.643   2.084   3.921
24966SOL    HW176737   3.675   2.097   4.010
24966SOL    HW276738   3.607   2.169   3.895
24967SOL     OW76739   4.854   1.170   5.236
24967SOL    HW176740   4.798   1.182   5.158
24967SOL    HW276741   4.919   1.105   5.209
24968SOL     OW76742  11.371   3.921   4.193
24968SOL    HW176743  11.411   3.996   4.238
24968SOL    HW276744  11.334   3.868   4.262
24969SOL     OW76745   1.127  14.812  14.803
24969SOL    HW176746   1.044  14.819  14.850
24969SOL    HW276747   1.103  14.783  14.715
24970SOL     OW76748   5.331   4.181   4.272
24970SOL    HW176749   5.378   4.189   4.189
24970SOL    HW276750   5.396   4.203   4.339
24971SOL     OW76751  12.192  14.066   1.426
24971SOL    HW176752  12.100  14.088   1.418
24971SOL    HW276753  12.199  14.021   1.511
24972SOL     OW76754  12.737   6.969   5.810
24972SOL    HW176755  12.824   6.970   5.850
24972SOL    HW276756  12.682   7.022   5.867
24973SOL     OW76757   9.005  14.354  12.953
24973SOL    HW176758   9.047  14.281  12.907
24973SOL    HW276759   9.069  14.382  13.018
24974SOL     OW76760   9.568   8.420  14.147
24974SOL    HW176761   9.559   8.514  14.162
24974SOL    HW276762   9.556   8.382  14.234
24975SOL     OW76763   8.125   1.719   2.155
24975SOL    HW176764   8.202   1.671   2.187
24975SOL    HW276765   8.139   1.809   2.186
24976SOL     OW76766   7.676   7.280  14.379
24976SOL    HW176767   7.671   7.374  14.398
24976SOL    HW276768   7.689   7.239  14.465
24977SOL     OW76769   2.274   7.187  13.252
24977SOL    HW176770   2.277   7.257  13.317
24977SOL    HW276771   2.182   7.161  13.250
24978SOL     OW76772   1.767   0.578  10.901
24978SOL    HW176773   1.781   0.499  10.849
24978SOL    HW276774   1.707   0.631  10.848
24979SOL     OW76775  13.715   4.231   4.081
24979SOL    HW176776  13.622   4.232   4.058
24979SOL    HW276777  13.726   4.149   4.131
24980SOL     OW76778  11.865   2.853  14.287
24980SOL    HW176779  11.930   2.880  14.222
24980SOL    HW276780  11.904   2.776  14.329
24981SOL     OW76781   7.494   8.772   8.044
24981SOL    HW176782   7.399   8.776   8.030
24981SOL    HW276783   7.504   8.753   8.137
24982SOL     OW76784   9.219   4.512   9.886
24982SOL    HW176785   9.206   4.423   9.918
24982SOL    HW276786   9.157   4.565   9.936
24983SOL     OW76787   8.701   7.702  14.536
24983SOL    HW176788   8.637   7.720  14.467
24983SOL    HW276789   8.714   7.608  14.533
24984SOL     OW76790  12.945  13.250  10.847
24984SOL    HW176791  13.000  13.327  10.833
24984SOL    HW276792  12.902  13.236  10.762
24985SOL     OW76793  12.365   2.776  11.223
24985SOL    HW176794  12.378   2.840  11.293
24985SOL    HW276795  12.278   2.796  11.189
24986SOL     OW76796   4.555   9.264  11.026
24986SOL    HW176797   4.529   9.341  10.975
24986SOL    HW276798   4.480   9.247  11.084
24987SOL     OW76799   9.912   3.168   0.251
24987SOL    HW176800   9.817   3.165   0.261
24987SOL    HW276801   9.926   3.234   0.184
24988SOL     OW76802   8.559   5.828   8.682
24988SOL    HW176803   8.481   5.772   8.685
24988SOL    HW276804   8.629   5.774   8.717
24989SOL     OW76805   5.171  11.933   5.723
24989SOL    HW176806   5.076  11.938   5.734
24989SOL    HW276807   5.194  11.847   5.759
24990SOL     OW76808   0.088   7.942   9.456
24990SOL    HW176809   0.144   7.864   9.455
24990SOL    HW276810   0.146   8.013   9.428
24991SOL     OW76811  14.840   8.357   5.219
24991SOL    HW176812  14.769   8.293   5.211
24991SOL    HW276813   0.036   8.314   5.179
24992SOL     OW76814   3.321   8.714   8.853
24992SOL    HW176815   3.315   8.777   8.780
24992SOL    HW276816   3.294   8.631   8.814
24993SOL     OW76817   1.922  10.307  11.443
24993SOL    HW176818   1.826  10.309  11.445
24993SOL    HW276819   1.944  10.214  11.433
24994SOL     OW76820   6.675  13.618   5.332
24994SOL    HW176821   6.630  13.701   5.349
24994SOL    HW276822   6.605  13.552   5.338
24995SOL     OW76823  11.339   5.384   5.293
24995SOL    HW176824  11.267   5.334   5.331
24995SOL    HW276825  11.296   5.449   5.237
24996SOL     OW76826   4.650   6.063   0.248
24996SOL    HW176827   4.618   6.142   0.290
24996SOL    HW276828   4.615   6.067   0.159
24997SOL     OW76829  13.813  11.461   1.206
24997SOL    HW176830  13.873  11.535   1.196
24997SOL    HW276831  13.824  11.410   1.125
24998SOL     OW76832  14.089   0.604   3.588
24998SOL    HW176833  14.047   0.540   3.645
24998SOL    HW276834  14.030   0.679   3.589
24999SOL     OW76835   0.156   3.392   6.468
24999SOL    HW176836   0.249   3.415   6.470
24999SOL    HW276837   0.145   3.341   6.388
25000SOL     OW76838  10.715   1.578  13.201
25000SOL    HW176839  10.665   1.537  13.272
25000SOL    HW276840  10.764   1.506  13.162
25001SOL     OW76841  11.383  14.341   9.930
25001SOL    HW176842  11.431  14.424   9.929
25001SOL    HW276843  11.432  14.285   9.990
25002SOL     OW76844   9.654  10.884   8.666
25002SOL    HW176845   9.719  10.819   8.639
25002SOL    HW276846   9.681  10.909   8.754
25003SOL     OW76847  11.645   0.181  11.799
25003SOL    HW176848  11.710   0.116  11.824
25003SOL    HW276849  11.584   0.184  11.873
25004SOL     OW76850  10.729   4.643  14.188
25004SOL    HW176851  10.746   4.727  14.144
25004SOL    HW276852  10.816   4.611  14.211
25005SOL     OW76853   6.761  12.652   4.561
25005SOL    HW176854   6.818  12.679   4.489
25005SOL    HW276855   6.822  12.618   4.627
25006SOL     OW76856  13.231  10.090   4.263
25006SOL    HW176857  13.318  10.050   4.262
25006SOL    HW276858  13.190  10.060   4.182
25007SOL     OW76859   8.290   6.553  12.374
25007SOL    HW176860   8.289   6.522  12.465
25007SOL    HW276861   8.198   6.564  12.351
25008SOL     OW76862   2.150   2.440   2.912
25008SOL    HW176863   2.151   2.405   2.823
25008SOL    HW276864   2.094   2.518   2.906
25009SOL     OW76865   9.157   5.934  11.449
25009SOL    HW176866   9.247   5.922  11.418
25009SOL    HW276867   9.160   6.015  11.500
25010SOL     OW76868   0.437   2.039   7.013
25010SOL    HW176869   0.458   2.100   7.083
25010SOL    HW276870   0.517   2.033   6.961
25011SOL     OW76871  12.386  14.103   6.076
25011SOL    HW176872  12.406  14.097   5.983
25011SOL    HW276873  12.299  14.065   6.085
25012SOL     OW76874   1.391  11.227  10.758
25012SOL    HW176875   1.371  11.321  10.758
25012SOL    HW276876   1.307  11.185  10.775
25013SOL     OW76877  11.445   0.722   1.086
25013SOL    HW176878  11.374   0.785   1.077
25013SOL    HW276879  11.420   0.649   1.029
25014SOL     OW76880   9.775   1.774   8.845
25014SOL    HW176881   9.824   1.816   8.916
25014SOL    HW276882   9.732   1.846   8.799
25015SOL     OW76883   9.870   5.827   7.104
25015SOL    HW176884   9.780   5.827   7.137
25015SOL    HW276885   9.881   5.742   7.063
25016SOL     OW76886   9.753  14.291  13.449
25016SOL    HW176887   9.750  14.283  13.544
25016SOL    HW276888   9.835  14.249  13.423
25017SOL     OW76889   0.740  14.695  12.032
25017SOL    HW176890   0.799  14.767  12.053
25017SOL    HW276891   0.729  14.700  11.937
25018SOL     OW76892   7.271   8.232   8.971
25018SOL    HW176893   7.208   8.235   9.043
25018SOL    HW276894   7.355   8.255   9.012
25019SOL     OW76895   8.349   9.490   1.400
25019SOL    HW176896   8.324   9.407   1.440
25019SOL    HW276897   8.312   9.557   1.457
25020SOL     OW76898  13.471  13.724   4.246
25020SOL    HW176899  13.484  13.667   4.322
25020SOL    HW276900  13.396  13.687   4.201
25021SOL     OW76901   8.109  11.041  10.674
25021SOL    HW176902   8.192  11.085  10.658
25021SOL    HW276903   8.079  11.014  10.587
25022SOL     OW76904  11.018  10.063   6.774
25022SOL    HW176905  11.070  10.036   6.849
25022SOL    HW276906  11.026   9.990   6.712
25023SOL     OW76907   5.744  13.843   5.514
25023SOL    HW176908   5.779  13.793   5.588
25023SOL    HW276909   5.707  13.777   5.456
25024SOL     OW76910   8.524   2.505   1.317
25024SOL    HW176911   8.461   2.535   1.252
25024SOL    HW276912   8.488   2.421   1.347
25025SOL     OW76913   9.264  14.434  11.497
25025SOL    HW176914   9.351  14.417  11.534
25025SOL    HW276915   9.279  14.499  11.428
25026SOL     OW76916  11.956  12.993   5.862
25026SOL    HW176917  11.992  12.913   5.824
25026SOL    HW276918  12.032  13.044   5.889
25027SOL     OW76919   7.381   4.354  10.014
25027SOL    HW176920   7.417   4.344  10.102
25027SOL    HW276921   7.453   4.327   9.956
25028SOL     OW76922   8.794  11.907   8.638
25028SOL    HW176923   8.706  11.928   8.607
25028SOL    HW276924   8.792  11.812   8.655
25029SOL     OW76925   1.429   0.504  10.518
25029SOL    HW176926   1.342   0.495  10.556
25029SOL    HW276927   1.439   0.598  10.501
25030SOL     OW76928   9.192   6.055   3.187
25030SOL    HW176929   9.254   6.099   3.129
25030SOL    HW276930   9.122   6.119   3.201
25031SOL     OW76931  12.232   9.994   8.432
25031SOL    HW176932  12.297  10.016   8.498
25031SOL    HW276933  12.148   9.999   8.478
25032SOL     OW76934  14.445  13.046   8.803
25032SOL    HW176935  14.518  12.991   8.833
25032SOL    HW276936  14.383  12.984   8.764
25033SOL     OW76937   1.636  13.435  13.080
25033SOL    HW176938   1.621  13.446  12.986
25033SOL    HW276939   1.597  13.514  13.119
25034SOL     OW76940   3.737   5.709  13.855
25034SOL    HW176941   3.699   5.781  13.804
25034SOL    HW276942   3.663   5.654  13.879
25035SOL     OW76943   9.800  14.204   2.525
25035SOL    HW176944   9.843  14.232   2.444
25035SOL    HW276945   9.707  14.194   2.500
25036SOL     OW76946   3.256   4.558   8.580
25036SOL    HW176947   3.162   4.554   8.596
25036SOL    HW276948   3.264   4.575   8.486
25037SOL     OW76949   9.397   7.769   9.631
25037SOL    HW176950   9.427   7.735   9.547
25037SOL    HW276951   9.441   7.715   9.696
25038SOL     OW76952  12.092   7.822   6.143
25038SOL    HW176953  12.034   7.898   6.149
25038SOL    HW276954  12.094   7.801   6.050
25039SOL     OW76955  12.595   0.449  13.752
25039SOL    HW176956  12.529   0.415  13.813
25039SOL    HW276957  12.544   0.489  13.682
25040SOL     OW76958   5.122  13.491  14.206
25040SOL    HW176959   5.155  13.573  14.242
25040SOL    HW276960   5.179  13.473  14.131
25041SOL     OW76961   9.955   9.943   2.174
25041SOL    HW176962   9.873   9.925   2.128
25041SOL    HW276963  10.021   9.895   2.124
25042SOL     OW76964   1.652   3.212  14.112
25042SOL    HW176965   1.643   3.305  14.133
25042SOL    HW276966   1.634   3.167  14.194
25043SOL     OW76967   7.352   5.010   2.901
25043SOL    HW176968   7.420   5.048   2.956
25043SOL    HW276969   7.336   5.075   2.833
25044SOL     OW76970  14.243   0.494   5.004
25044SOL    HW176971  14.282   0.453   4.927
25044SOL    HW276972  14.273   0.585   5.000
25045SOL     OW76973   0.043   0.385   9.194
25045SOL    HW176974   0.083   0.300   9.211
25045SOL    HW276975  14.828   0.369   9.204
25046SOL     OW76976   2.336   1.188  12.343
25046SOL    HW176977   2.390   1.253  12.389
25046SOL    HW276978   2.386   1.166  12.265
25047SOL     OW76979   7.697   1.780   1.483
25047SOL    HW176980   7.636   1.745   1.419
25047SOL    HW276981   7.776   1.727   1.473
25048SOL     OW76982  13.039  13.648   1.079
25048SOL    HW176983  12.995  13.566   1.103
25048SOL    HW276984  13.061  13.637   0.987
25049SOL     OW76985   3.718  11.447   8.973
25049SOL    HW176986   3.640  11.411   8.932
25049SOL    HW276987   3.752  11.376   9.029
25050SOL     OW76988  14.387   7.801   2.915
25050SOL    HW176989  14.345   7.833   2.995
25050SOL    HW276990  14.478   7.785   2.941
25051SOL     OW76991  12.906   5.125   7.432
25051SOL    HW176992  12.823   5.172   7.419
25051SOL    HW276993  12.888   5.063   7.503
25052SOL     OW76994   5.565  10.032   1.518
25052SOL    HW176995   5.482  10.067   1.485
25052SOL    HW276996   5.632  10.073   1.463
25053SOL     OW76997  12.510   4.685   9.183
25053SOL    HW176998  12.474   4.608   9.228
25053SOL    HW276999  12.605   4.671   9.185
25054SOL     OW77000   3.457   4.269   9.282
25054SOL    HW177001   3.514   4.308   9.216
25054SOL    HW277002   3.480   4.176   9.281
25055SOL     OW77003  11.935   1.121   8.969
25055SOL    HW177004  11.856   1.176   8.969
25055SOL    HW277005  11.976   1.138   9.054
25056SOL     OW77006   3.110   8.175   3.648
25056SOL    HW177007   3.192   8.133   3.624
25056SOL    HW277008   3.067   8.113   3.707
25057SOL     OW77009   3.914   6.868  10.290
25057SOL    HW177010   3.874   6.914  10.216
25057SOL    HW277011   3.852   6.881  10.362
25058SOL     OW77012   5.394   7.971   6.065
25058SOL    HW177013   5.417   7.994   6.155
25058SOL    HW277014   5.374   7.878   6.068
25059SOL     OW77015   5.407  13.459   3.284
25059SOL    HW177016   5.403  13.439   3.377
25059SOL    HW277017   5.318  13.487   3.261
25060SOL     OW77018  10.437   6.419   7.140
25060SOL    HW177019  10.457   6.328   7.161
25060SOL    HW277020  10.458   6.467   7.220
25061SOL     OW77021   2.159  12.832   0.408
25061SOL    HW177022   2.089  12.876   0.457
25061SOL    HW277023   2.135  12.740   0.410
25062SOL     OW77024   5.733   1.151   1.729
25062SOL    HW177025   5.772   1.080   1.780
25062SOL    HW277026   5.695   1.107   1.652
25063SOL     OW77027   3.862   4.459   8.116
25063SOL    HW177028   3.793   4.521   8.092
25063SOL    HW277029   3.927   4.513   8.160
25064SOL     OW77030   2.590  11.168   4.439
25064SOL    HW177031   2.620  11.128   4.358
25064SOL    HW277032   2.663  11.224   4.467
25065SOL     OW77033   5.744   3.946   1.100
25065SOL    HW177034   5.755   3.948   1.005
25065SOL    HW277035   5.709   4.032   1.122
25066SOL     OW77036  14.207   7.485   0.176
25066SOL    HW177037  14.265   7.450   0.243
25066SOL    HW277038  14.238   7.574   0.161
25067SOL     OW77039   8.376  12.747   0.972
25067SOL    HW177040   8.424  12.777   0.895
25067SOL    HW277041   8.333  12.826   1.006
25068SOL     OW77042  10.100   7.572   6.394
25068SOL    HW177043  10.090   7.477   6.404
25068SOL    HW277044  10.165   7.597   6.460
25069SOL     OW77045  11.476   4.135  14.803
25069SOL    HW177046  11.555   4.183  14.827
25069SOL    HW277047  11.508   4.049  14.774
25070SOL     OW77048   7.584  10.590  13.851
25070SOL    HW177049   7.607  10.625  13.937
25070SOL    HW277050   7.648  10.521  13.835
25071SOL     OW77051   3.966  14.627   6.761
25071SOL    HW177052   3.948  14.544   6.715
25071SOL    HW277053   4.016  14.679   6.697
25072SOL     OW77054  11.938   5.205  13.062
25072SOL    HW177055  11.981   5.285  13.033
25072SOL    HW277056  11.963   5.139  12.997
25073SOL     OW77057  13.081   9.995   8.920
25073SOL    HW177058  13.137   9.931   8.964
25073SOL    HW277059  12.993   9.960   8.928
25074SOL     OW77060  11.915  13.821   4.646
25074SOL    HW177061  11.848  13.870   4.694
25074SOL    HW277062  11.977  13.794   4.713
25075SOL     OW77063   4.250  10.862   5.670
25075SOL    HW177064   4.259  10.878   5.576
25075SOL    HW277065   4.248  10.767   5.678
25076SOL     OW77066  13.741   7.755  12.048
25076SOL    HW177067  13.799   7.804  11.991
25076SOL    HW277068  13.787   7.672  12.063
25077SOL     OW77069   3.515   8.656   2.492
25077SOL    HW177070   3.578   8.670   2.563
25077SOL    HW277071   3.500   8.561   2.493
25078SOL     OW77072   6.326  14.359   0.492
25078SOL    HW177073   6.260  14.312   0.543
25078SOL    HW277074   6.330  14.446   0.532
25079SOL     OW77075   8.111  14.773   2.547
25079SOL    HW177076   8.118  14.867   2.527
25079SOL    HW277077   8.017  14.755   2.545
25080SOL     OW77078   8.810   2.876  14.499
25080SOL    HW177079   8.901   2.894  14.477
25080SOL    HW277080   8.798   2.783  14.480
25081SOL     OW77081  11.213   6.560   9.368
25081SOL    HW177082  11.204   6.482   9.313
25081SOL    HW277083  11.303   6.590   9.354
25082SOL     OW77084   6.311   8.549   8.285
25082SOL    HW177085   6.268   8.544   8.199
25082SOL    HW277086   6.297   8.639   8.314
25083SOL     OW77087   8.168   8.084   9.914
25083SOL    HW177088   8.121   8.163   9.886
25083SOL    HW277089   8.103   8.014   9.905
25084SOL     OW77090   2.888   8.290   2.518
25084SOL    HW177091   2.836   8.359   2.478
25084SOL    HW277092   2.933   8.249   2.444
25085SOL     OW77093   5.136   9.367  12.910
25085SOL    HW177094   5.066   9.427  12.885
25085SOL    HW277095   5.130   9.295  12.847
25086SOL     OW77096  12.805  12.607  13.499
25086SOL    HW177097  12.870  12.626  13.431
25086SOL    HW277098  12.857  12.586  13.576
25087SOL     OW77099   7.959   4.308   8.761
25087SOL    HW177100   7.988   4.217   8.760
25087SOL    HW277101   8.013   4.352   8.696
25088SOL     OW77102   6.025  11.126   1.378
25088SOL    HW177103   5.983  11.045   1.407
25088SOL    HW277104   6.112  11.123   1.417
25089SOL     OW77105  10.911  12.523   1.056
25089SOL    HW177106  10.997  12.483   1.046
25089SOL    HW277107  10.871  12.516   0.969
25090SOL     OW77108   7.219  13.272   1.189
25090SOL    HW177109   7.204  13.214   1.264
25090SOL    HW277110   7.198  13.218   1.112
25091SOL     OW77111  13.330   1.397   8.018
25091SOL    HW177112  13.254   1.417   7.963
25091SOL    HW277113  13.336   1.302   8.017
25092SOL     OW77114   2.644  13.652   8.188
25092SOL    HW177115   2.633  13.608   8.103
25092SOL    HW277116   2.651  13.581   8.251
25093SOL     OW77117  10.711   6.268   9.695
25093SOL    HW177118  10.675   6.285   9.608
25093SOL    HW277119  10.783   6.330   9.704
25094SOL     OW77120   8.675   3.863  13.273
25094SOL    HW177121   8.642   3.937  13.324
25094SOL    HW277122   8.700   3.799  13.339
25095SOL     OW77123   6.297  10.070  13.581
25095SOL    HW177124   6.297   9.976  13.564
25095SOL    HW277125   6.358  10.081  13.654
25096SOL     OW77126   4.842   3.399  13.663
25096SOL    HW177127   4.749   3.410  13.640
25096SOL    HW277128   4.842   3.328  13.727
25097SOL     OW77129  11.614  14.310  10.413
25097SOL    HW177130  11.611  14.229  10.361
25097SOL    HW277131  11.681  14.363  10.370
25098SOL     OW77132   6.663   9.090   2.655
25098SOL    HW177133   6.630   9.059   2.739
25098SOL    HW277134   6.751   9.053   2.648
25099SOL     OW77135  10.189   6.152  13.468
25099SOL    HW177136  10.119   6.154  13.402
25099SOL    HW277137  10.230   6.239  13.461
25100SOL     OW77138   2.233   8.035  12.726
25100SOL    HW177139   2.301   7.993  12.674
25100SOL    HW277140   2.155   8.033  12.671
25101SOL     OW77141  12.147   9.008   9.085
25101SOL    HW177142  12.139   9.056   9.167
25101SOL    HW277143  12.115   8.920   9.105
25102SOL     OW77144   6.290  10.891  10.766
25102SOL    HW177145   6.350  10.828  10.806
25102SOL    HW277146   6.253  10.845  10.691
25103SOL     OW77147   8.999   7.470  12.216
25103SOL    HW177148   9.062   7.438  12.151
25103SOL    HW277149   8.994   7.564  12.200
25104SOL     OW77150  10.489   7.767   3.411
25104SOL    HW177151  10.513   7.697   3.472
25104SOL    HW277152  10.558   7.765   3.345
25105SOL     OW77153  13.763   4.535  13.913
25105SOL    HW177154  13.789   4.623  13.941
25105SOL    HW277155  13.718   4.498  13.990
25106SOL     OW77156   4.982  14.777   0.899
25106SOL    HW177157   4.918  14.757   0.831
25106SOL    HW277158   5.024  14.694   0.918
25107SOL     OW77159   1.529   6.977   0.061
25107SOL    HW177160   1.471   6.978  14.864
25107SOL    HW277161   1.583   7.055   0.051
25108SOL     OW77162   3.573   4.095  12.379
25108SOL    HW177163   3.540   4.184  12.389
25108SOL    HW277164   3.553   4.052  12.463
25109SOL     OW77165   7.326   9.373   2.043
25109SOL    HW177166   7.317   9.451   1.988
25109SOL    HW277167   7.241   9.367   2.088
25110SOL     OW77168  12.619   0.050   3.411
25110SOL    HW177169  12.594   0.093   3.492
25110SOL    HW277170  12.540   0.004   3.383
25111SOL     OW77171   0.551   1.929  13.803
25111SOL    HW177172   0.606   1.970  13.737
25111SOL    HW277173   0.463   1.929  13.764
25112SOL     OW77174  14.424  10.813   3.645
25112SOL    HW177175  14.447  10.817   3.738
25112SOL    HW277176  14.418  10.904   3.618
25113SOL     OW77177   3.253   0.455   3.873
25113SOL    HW177178   3.256   0.384   3.809
25113SOL    HW277179   3.345   0.480   3.885
25114SOL     OW77180   6.670   4.516   0.483
25114SOL    HW177181   6.652   4.458   0.557
25114SOL    HW277182   6.598   4.501   0.422
25115SOL     OW77183   8.429  14.194   3.132
25115SOL    HW177184   8.379  14.261   3.086
25115SOL    HW277185   8.475  14.241   3.202
25116SOL     OW77186   4.244  13.443  12.846
25116SOL    HW177187   4.292  13.493  12.780
25116SOL    HW277188   4.206  13.509  12.903
25117SOL     OW77189  13.485  14.134   4.712
25117SOL    HW177190  13.413  14.194   4.691
25117SOL    HW277191  13.561  14.191   4.724
25118SOL     OW77192   8.061   7.372   1.262
25118SOL    HW177193   7.980   7.332   1.293
25118SOL    HW277194   8.113   7.385   1.341
25119SOL     OW77195  14.332   2.190  12.012
25119SOL    HW177196  14.419   2.172  11.978
25119SOL    HW277197  14.347   2.230  12.098
25120SOL     OW77198   5.102   9.827  10.421
25120SOL    HW177199   5.191   9.797  10.405
25120SOL    HW277200   5.108   9.879  10.501
25121SOL     OW77201   6.017   1.776  12.139
25121SOL    HW177202   6.020   1.866  12.173
25121SOL    HW277203   6.032   1.721  12.216
25122SOL     OW77204  13.815  10.496   2.349
25122SOL    HW177205  13.810  10.572   2.406
25122SOL    HW277206  13.766  10.522   2.270
25123SOL     OW77207  11.244  13.892  11.462
25123SOL    HW177208  11.152  13.895  11.436
25123SOL    HW277209  11.242  13.904  11.557
25124SOL     OW77210   2.391   3.767   9.886
25124SOL    HW177211   2.396   3.695   9.949
25124SOL    HW277212   2.341   3.731   9.812
25125SOL     OW77213  11.633   5.596   6.747
25125SOL    HW177214  11.571   5.532   6.712
25125SOL    HW277215  11.697   5.610   6.677
25126SOL     OW77216   6.830  12.605  12.150
25126SOL    HW177217   6.769  12.638  12.216
25126SOL    HW277218   6.808  12.512  12.140
25127SOL     OW77219   4.203   2.608  14.764
25127SOL    HW177220   4.165   2.535  14.814
25127SOL    HW277221   4.289   2.621  14.803
25128SOL     OW77222   3.674   8.211   5.921
25128SOL    HW177223   3.762   8.176   5.937
25128SOL    HW277224   3.638   8.155   5.852
25129SOL     OW77225   2.430  13.506   1.742
25129SOL    HW177226   2.417  13.417   1.708
25129SOL    HW277227   2.447  13.559   1.665
25130SOL     OW77228  11.887  14.253  12.194
25130SOL    HW177229  11.942  14.332  12.187
25130SOL    HW277230  11.854  14.254  12.283
25131SOL     OW77231   7.808   3.407   2.190
25131SOL    HW177232   7.763   3.322   2.188
25131SOL    HW277233   7.774   3.454   2.114
25132SOL     OW77234  14.144   1.256  10.342
25132SOL    HW177235  14.222   1.204  10.362
25132SOL    HW277236  14.104   1.274  10.427
25133SOL     OW77237   1.487  13.108  13.657
25133SOL    HW177238   1.567  13.102  13.708
25133SOL    HW277239   1.514  13.085  13.568
25134SOL     OW77240   7.395  12.380   6.198
25134SOL    HW177241   7.419  12.307   6.142
25134SOL    HW277242   7.326  12.425   6.150
25135SOL     OW77243   9.051   2.850   2.424
25135SOL    HW177244   8.987   2.902   2.474
25135SOL    HW277245   9.016   2.761   2.427
25136SOL     OW77246  11.491  14.754  14.666
25136SOL    HW177247  11.443  14.758  14.584
25136SOL    HW277248  11.441  14.693  14.721
25137SOL     OW77249  14.255   8.331  12.740
25137SOL    HW177250  14.204   8.315  12.820
25137SOL    HW277251  14.346   8.322  12.767
25138SOL     OW77252   4.034  14.468   2.780
25138SOL    HW177253   4.053  14.411   2.706
25138SOL    HW277254   4.109  14.527   2.785
25139SOL     OW77255   4.589   3.084  10.837
25139SOL    HW177256   4.504   3.071  10.879
25139SOL    HW277257   4.610   3.176  10.855
25140SOL     OW77258   9.559   8.171   2.845
25140SOL    HW177259   9.609   8.089   2.846
25140SOL    HW277260   9.618   8.235   2.886
25141SOL     OW77261  12.452   7.773   9.082
25141SOL    HW177262  12.413   7.686   9.084
25141SOL    HW277263  12.429   7.811   9.166
25142SOL     OW77264  10.535   1.584   5.111
25142SOL    HW177265  10.503   1.554   5.196
25142SOL    HW277266  10.615   1.632   5.131
25143SOL     OW77267  11.998   9.191   8.311
25143SOL    HW177268  11.960   9.276   8.292
25143SOL    HW277269  12.006   9.189   8.406
25144SOL     OW77270   6.337   8.083   8.715
25144SOL    HW177271   6.407   8.149   8.710
25144SOL    HW277272   6.284   8.099   8.637
25145SOL     OW77273  11.101   6.171   7.410
25145SOL    HW177274  11.119   6.078   7.421
25145SOL    HW277275  11.122   6.188   7.318
25146SOL     OW77276  12.161  10.925   2.435
25146SOL    HW177277  12.190  10.855   2.493
25146SOL    HW277278  12.177  10.893   2.347
25147SOL     OW77279   0.301   5.026   8.938
25147SOL    HW177280   0.326   5.079   9.013
25147SOL    HW277281   0.218   4.984   8.963
25148SOL     OW77282   3.586  13.146   3.659
25148SOL    HW177283   3.562  13.057   3.684
25148SOL    HW277284   3.594  13.143   3.564
25149SOL     OW77285  11.425   3.323   4.736
25149SOL    HW177286  11.375   3.344   4.656
25149SOL    HW277287  11.404   3.231   4.753
25150SOL     OW77288   5.326  10.273   8.779
25150SOL    HW177289   5.324  10.208   8.709
25150SOL    HW277290   5.300  10.223   8.857
25151SOL     OW77291  13.317   3.419  13.281
25151SOL    HW177292  13.223   3.431  13.263
25151SOL    HW277293  13.329   3.324  13.284
25152SOL     OW77294   0.581   2.330  12.561
25152SOL    HW177295   0.554   2.287  12.480
25152SOL    HW277296   0.548   2.274  12.631
25153SOL     OW77297   9.340  10.419  13.906
25153SOL    HW177298   9.391  10.461  13.836
25153SOL    HW277299   9.400  10.355  13.944
25154SOL     OW77300  11.675  12.842   8.368
25154SOL    HW177301  11.755  12.801   8.337
25154SOL    HW277302  11.643  12.784   8.437
25155SOL     OW77303  11.933   0.715   7.708
25155SOL    HW177304  11.878   0.637   7.711
25155SOL    HW277305  11.892   0.776   7.769
25156SOL     OW77306  14.505   9.406  11.552
25156SOL    HW177307  14.428   9.409  11.609
25156SOL    HW277308  14.557   9.332  11.584
25157SOL     OW77309   2.886   3.663   2.133
25157SOL    HW177310   2.929   3.578   2.143
25157SOL    HW277311   2.793   3.645   2.147
25158SOL     OW77312   4.271  12.974   1.121
25158SOL    HW177313   4.345  12.949   1.175
25158SOL    HW277314   4.300  13.052   1.074
25159SOL     OW77315   9.700   0.941   1.273
25159SOL    HW177316   9.673   1.025   1.236
25159SOL    HW277317   9.727   0.963   1.363
25160SOL     OW77318  12.313   0.150   3.713
25160SOL    HW177319  12.293   0.057   3.727
25160SOL    HW277320  12.405   0.158   3.735
25161SOL     OW77321   6.884  13.905  14.288
25161SOL    HW177322   6.936  13.960  14.346
25161SOL    HW277323   6.809  13.877  14.341
25162SOL     OW77324   8.788   0.518  12.649
25162SOL    HW177325   8.765   0.527  12.557
25162SOL    HW277326   8.758   0.431  12.673
25163SOL     OW77327   8.565   6.749   3.588
25163SOL    HW177328   8.534   6.839   3.600
25163SOL    HW277329   8.569   6.712   3.677
25164SOL     OW77330  11.001   9.130   4.970
25164SOL    HW177331  10.907   9.119   4.979
25164SOL    HW277332  11.038   9.085   5.046
25165SOL     OW77333  13.248   0.348   1.201
25165SOL    HW177334  13.279   0.264   1.167
25165SOL    HW277335  13.282   0.412   1.139
25166SOL     OW77336   9.182   4.450   4.802
25166SOL    HW177337   9.116   4.480   4.739
25166SOL    HW277338   9.185   4.355   4.790
25167SOL     OW77339   3.873  10.765  11.455
25167SOL    HW177340   3.964  10.794  11.444
25167SOL    HW277341   3.880  10.681  11.500
25168SOL     OW77342   2.779   9.159   4.024
25168SOL    HW177343   2.798   9.251   4.006
25168SOL    HW277344   2.708   9.160   4.088
25169SOL     OW77345   5.513  14.437  11.774
25169SOL    HW177346   5.553  14.350  11.779
25169SOL    HW277347   5.518  14.471  11.863
25170SOL     OW77348   4.977   0.796   7.332
25170SOL    HW177349   4.899   0.744   7.352
25170SOL    HW277350   4.954   0.884   7.360
25171SOL     OW77351   0.662   0.531   5.835
25171SOL    HW177352   0.690   0.554   5.746
25171SOL    HW277353   0.623   0.612   5.869
25172SOL     OW77354   7.437   0.458   8.346
25172SOL    HW177355   7.472   0.459   8.435
25172SOL    HW277356   7.436   0.550   8.320
25173SOL     OW77357   1.083   9.041  13.042
25173SOL    HW177358   1.029   9.095  13.099
25173SOL    HW277359   1.091   8.958  13.089
25174SOL     OW77360   5.802   3.784   0.842
25174SOL    HW177361   5.863   3.815   0.776
25174SOL    HW277362   5.856   3.732   0.902
25175SOL     OW77363  14.156   8.795  14.715
25175SOL    HW177364  14.167   8.850  14.638
25175SOL    HW277365  14.223   8.827  14.777
25176SOL     OW77366  12.362  11.928  14.351
25176SOL    HW177367  12.358  11.951  14.258
25176SOL    HW277368  12.425  11.856  14.355
25177SOL     OW77369   7.048   3.465  12.033
25177SOL    HW177370   6.961   3.439  12.064
25177SOL    HW277371   7.038   3.478  11.939
25178SOL     OW77372  11.338   7.533  10.189
25178SOL    HW177373  11.366   7.620  10.216
25178SOL    HW277374  11.389   7.473  10.243
25179SOL     OW77375  12.878  13.169   3.783
25179SOL    HW177376  12.940  13.163   3.856
25179SOL    HW277377  12.799  13.126   3.815
25180SOL     OW77378  10.481  13.601   0.740
25180SOL    HW177379  10.488  13.695   0.724
25180SOL    HW277380  10.395  13.577   0.706
25181SOL     OW77381   3.880   3.272   5.658
25181SOL    HW177382   3.868   3.324   5.738
25181SOL    HW277383   3.943   3.322   5.606
25182SOL     OW77384  10.553  14.325   9.781
25182SOL    HW177385  10.602  14.376   9.845
25182SOL    HW277386  10.531  14.243   9.826
25183SOL     OW77387   7.425   8.373  14.464
25183SOL    HW177388   7.393   8.330  14.385
25183SOL    HW277389   7.348   8.380  14.521
25184SOL     OW77390   3.172  10.191   2.471
25184SOL    HW177391   3.210  10.239   2.545
25184SOL    HW277392   3.093  10.239   2.448
25185SOL     OW77393   6.222  10.293   1.447
25185SOL    HW177394   6.234  10.376   1.403
25185SOL    HW277395   6.182  10.316   1.531
25186SOL     OW77396  10.277  11.459   6.648
25186SOL    HW177397  10.239  11.378   6.614
25186SOL    HW277398  10.337  11.430   6.718
25187SOL     OW77399  12.220   4.886  12.191
25187SOL    HW177400  12.129   4.908  12.212
25187SOL    HW277401  12.217   4.796  12.160
25188SOL     OW77402   5.981   4.708   3.238
25188SOL    HW177403   5.998   4.801   3.220
25188SOL    HW277404   5.962   4.705   3.332
25189SOL     OW77405   0.501   6.076   4.056
25189SOL    HW177406   0.407   6.075   4.074
25189SOL    HW277407   0.507   6.070   3.960
25190SOL     OW77408   9.392   5.843   1.295
25190SOL    HW177409   9.358   5.927   1.327
25190SOL    HW277410   9.383   5.848   1.200
25191SOL     OW77411   3.542  10.529  12.163
25191SOL    HW177412   3.586  10.610  12.137
25191SOL    HW277413   3.613  10.465  12.172
25192SOL     OW77414  13.864   0.781   4.396
25192SOL    HW177415  13.793   0.736   4.350
25192SOL    HW277416  13.943   0.760   4.345
25193SOL     OW77417   4.428  12.901   6.108
25193SOL    HW177418   4.515  12.862   6.098
25193SOL    HW277419   4.368  12.839   6.067
25194SOL     OW77420  10.792   5.082   6.095
25194SOL    HW177421  10.712   5.030   6.095
25194SOL    HW277422  10.803   5.109   6.004
25195SOL     OW77423   8.776   2.412   4.466
25195SOL    HW177424   8.786   2.362   4.385
25195SOL    HW277425   8.734   2.493   4.439
25196SOL     OW77426   4.235   1.913   4.396
25196SOL    HW177427   4.281   1.960   4.326
25196SOL    HW277428   4.227   1.823   4.364
25197SOL     OW77429   1.452   0.496   4.713
25197SOL    HW177430   1.420   0.406   4.710
25197SOL    HW277431   1.396   0.543   4.651
25198SOL     OW77432   9.630  11.843   9.334
25198SOL    HW177433   9.712  11.882   9.302
25198SOL    HW277434   9.642  11.837   9.429
25199SOL     OW77435   4.824   8.048  13.786
25199SOL    HW177436   4.782   8.081  13.866
25199SOL    HW277437   4.891   7.988  13.818
25200SOL     OW77438   0.320   7.119   6.725
25200SOL    HW177439   0.330   7.163   6.809
25200SOL    HW277440   0.263   7.044   6.744
25201SOL     OW77441  11.457  11.948   8.595
25201SOL    HW177442  11.384  11.902   8.553
25201SOL    HW277443  11.415  12.015   8.649
25202SOL     OW77444  13.651   7.510   5.906
25202SOL    HW177445  13.632   7.442   5.841
25202SOL    HW277446  13.565   7.546   5.929
25203SOL     OW77447  10.552   3.636  13.499
25203SOL    HW177448  10.472   3.613  13.451
25203SOL    HW277449  10.591   3.552  13.521
25204SOL     OW77450  13.736  13.591   3.984
25204SOL    HW177451  13.645  13.562   3.992
25204SOL    HW277452  13.748  13.606   3.890
25205SOL     OW77453  13.877   8.841  12.661
25205SOL    HW177454  13.926   8.766  12.627
25205SOL    HW277455  13.915   8.917  12.616
25206SOL     OW77456   1.131   7.442   6.186
25206SOL    HW177457   1.155   7.528   6.219
25206SOL    HW277458   1.045   7.454   6.145
25207SOL     OW77459   4.780   1.684   9.307
25207SOL    HW177460   4.728   1.746   9.359
25207SOL    HW277461   4.721   1.655   9.238
25208SOL     OW77462   6.200  11.330   1.204
25208SOL    HW177463   6.148  11.373   1.272
25208SOL    HW277464   6.287  11.322   1.242
25209SOL     OW77465   8.920   0.163   9.312
25209SOL    HW177466   8.897   0.140   9.222
25209SOL    HW277467   8.981   0.235   9.304
25210SOL     OW77468  13.169  13.480  13.250
25210SOL    HW177469  13.120  13.557  13.279
25210SOL    HW277470  13.146  13.411  13.313
25211SOL     OW77471   1.425   0.131   1.560
25211SOL    HW177472   1.353   0.069   1.569
25211SOL    HW277473   1.383   0.213   1.534
25212SOL     OW77474   1.253   8.153  14.472
25212SOL    HW177475   1.214   8.235  14.441
25212SOL    HW277476   1.183   8.089  14.462
25213SOL     OW77477   4.625   8.168   8.641
25213SOL    HW177478   4.700   8.193   8.695
25213SOL    HW277479   4.603   8.247   8.593
25214SOL     OW77480   2.862   1.780   4.607
25214SOL    HW177481   2.841   1.791   4.700
25214SOL    HW277482   2.778   1.787   4.562
25215SOL     OW77483  10.592   8.812  14.030
25215SOL    HW177484  10.556   8.735  13.986
25215SOL    HW277485  10.530   8.831  14.100
25216SOL     OW77486   3.141   4.857   1.877
25216SOL    HW177487   3.083   4.802   1.823
25216SOL    HW277488   3.110   4.946   1.860
25217SOL     OW77489  11.823   9.826  11.016
25217SOL    HW177490  11.888   9.763  11.048
25217SOL    HW277491  11.745   9.773  11.001
25218SOL     OW77492   3.166   7.378   2.884
25218SOL    HW177493   3.203   7.304   2.932
25218SOL    HW277494   3.101   7.415   2.944
25219SOL     OW77495  12.831   4.093   4.933
25219SOL    HW177496  12.880   4.171   4.959
25219SOL    HW277497  12.884   4.051   4.866
25220SOL     OW77498   2.016   9.912  12.130
25220SOL    HW177499   2.045   9.836  12.079
25220SOL    HW277500   2.035   9.987  12.074
25221SOL     OW77501   5.028   2.137  10.590
25221SOL    HW177502   5.011   2.221  10.549
25221SOL    HW277503   5.025   2.155  10.684
25222SOL     OW77504  10.940   7.329   3.498
25222SOL    HW177505  11.026   7.361   3.525
25222SOL    HW277506  10.958   7.247   3.453
25223SOL     OW77507  11.706   7.364  12.008
25223SOL    HW177508  11.620   7.375  11.968
25223SOL    HW277509  11.691   7.303  12.080
25224SOL     OW77510   9.862   4.555   5.972
25224SOL    HW177511   9.794   4.570   5.905
25224SOL    HW277512   9.892   4.466   5.955
25225SOL     OW77513  10.572   1.408   8.077
25225SOL    HW177514  10.564   1.426   8.170
25225SOL    HW277515  10.638   1.469   8.046
25226SOL     OW77516  11.094   9.004  10.723
25226SOL    HW177517  11.157   8.962  10.782
25226SOL    HW277518  11.123   8.979  10.635
25227SOL     OW77519   5.581   4.608  12.572
25227SOL    HW177520   5.572   4.691  12.526
25227SOL    HW277521   5.652   4.623  12.635
25228SOL     OW77522   1.028   5.989  11.967
25228SOL    HW177523   0.973   6.067  11.973
25228SOL    HW277524   0.986   5.936  11.900
25229SOL     OW77525   7.058   1.836  11.788
25229SOL    HW177526   7.087   1.804  11.874
25229SOL    HW277527   6.966   1.810  11.783
25230SOL     OW77528  12.592  14.445  10.915
25230SOL    HW177529  12.686  14.446  10.900
25230SOL    HW277530  12.557  14.384  10.850
25231SOL     OW77531   0.608   1.045  10.235
25231SOL    HW177532   0.693   1.004  10.249
25231SOL    HW277533   0.547   0.994  10.289
25232SOL     OW77534   2.985  10.910   1.858
25232SOL    HW177535   3.044  10.956   1.798
25232SOL    HW277536   2.916  10.973   1.877
25233SOL     OW77537   7.501   2.617   4.630
25233SOL    HW177538   7.587   2.576   4.630
25233SOL    HW277539   7.517   2.707   4.604
25234SOL     OW77540   9.154   1.284  12.616
25234SOL    HW177541   9.089   1.349  12.589
25234SOL    HW277542   9.108   1.200  12.607
25235SOL     OW77543   9.124   8.405  11.622
25235SOL    HW177544   9.097   8.423  11.533
25235SOL    HW277545   9.060   8.342  11.655
25236SOL     OW77546   1.367   6.118  14.327
25236SOL    HW177547   1.457   6.087  14.324
25236SOL    HW277548   1.342   6.129  14.235
25237SOL     OW77549  11.010  13.986   8.050
25237SOL    HW177550  11.018  14.016   7.959
25237SOL    HW277551  11.096  14.002   8.088
25238SOL     OW77552   6.790   9.483   3.898
25238SOL    HW177553   6.787   9.463   3.992
25238SOL    HW277554   6.744   9.409   3.858
25239SOL     OW77555  10.340   1.835   4.078
25239SOL    HW177556  10.253   1.859   4.047
25239SOL    HW277557  10.366   1.908   4.135
25240SOL     OW77558   9.226  11.062   7.345
25240SOL    HW177559   9.221  10.997   7.415
25240SOL    HW277560   9.300  11.117   7.368
25241SOL     OW77561   7.285  10.148   3.846
25241SOL    HW177562   7.222  10.214   3.817
25241SOL    HW277563   7.278  10.148   3.942
25242SOL     OW77564   0.084   2.950  12.493
25242SOL    HW177565   0.120   2.903  12.418
25242SOL    HW277566   0.006   2.994  12.459
25243SOL     OW77567   0.053   3.379  11.265
25243SOL    HW177568  14.863   3.319  11.292
25243SOL    HW277569   0.035   3.460  11.313
25244SOL     OW77570   4.110   3.469   6.419
25244SOL    HW177571   4.114   3.445   6.326
25244SOL    HW277572   4.120   3.564   6.420
25245SOL     OW77573  10.264   2.646   3.963
25245SOL    HW177574  10.286   2.570   3.910
25245SOL    HW277575  10.317   2.717   3.926
25246SOL     OW77576  14.657  12.777  12.944
25246SOL    HW177577  14.723  12.816  12.887
25246SOL    HW277578  14.707  12.742  13.018
25247SOL     OW77579   7.404   7.443   5.043
25247SOL    HW177580   7.406   7.506   5.115
25247SOL    HW277581   7.356   7.487   4.973
25248SOL     OW77582   2.414  14.452   7.533
25248SOL    HW177583   2.496  14.424   7.575
25248SOL    HW277584   2.396  14.385   7.467
25249SOL     OW77585   1.058   7.098   2.326
25249SOL    HW177586   1.060   7.020   2.382
25249SOL    HW277587   0.965   7.119   2.317
25250SOL     OW77588   3.444   0.830   1.820
25250SOL    HW177589   3.412   0.808   1.733
25250SOL    HW277590   3.452   0.925   1.819
25251SOL     OW77591   1.169  11.960   9.500
25251SOL    HW177592   1.162  11.931   9.409
25251SOL    HW277593   1.225  12.037   9.497
25252SOL     OW77594  13.949   4.336   9.185
25252SOL    HW177595  13.969   4.428   9.166
25252SOL    HW277596  13.885   4.311   9.119
25253SOL     OW77597  11.140  12.842   4.764
25253SOL    HW177598  11.231  12.872   4.756
25253SOL    HW277599  11.146  12.747   4.753
25254SOL     OW77600   8.080   8.473  13.580
25254SOL    HW177601   7.991   8.507  13.583
25254SOL    HW277602   8.069   8.378  13.567
25255SOL     OW77603   6.332   3.383  13.355
25255SOL    HW177604   6.334   3.398  13.450
25255SOL    HW277605   6.362   3.292  13.346
25256SOL     OW77606  11.168   8.030  11.736
25256SOL    HW177607  11.211   7.990  11.812
25256SOL    HW277608  11.093   8.076  11.773
25257SOL     OW77609  13.248   2.785   0.383
25257SOL    HW177610  13.228   2.821   0.296
25257SOL    HW277611  13.326   2.732   0.369
25258SOL     OW77612  12.673   7.747   7.519
25258SOL    HW177613  12.622   7.692   7.460
25258SOL    HW277614  12.609   7.789   7.576
25259SOL     OW77615   5.771   8.909  13.797
25259SOL    HW177616   5.848   8.896  13.742
25259SOL    HW277617   5.806   8.933  13.882
25260SOL     OW77618   1.735  11.050   0.786
25260SOL    HW177619   1.737  11.143   0.809
25260SOL    HW277620   1.667  11.043   0.719
25261SOL     OW77621   1.458   0.487   1.404
25261SOL    HW177622   1.391   0.490   1.472
25261SOL    HW277623   1.412   0.450   1.328
25262SOL     OW77624   6.221  11.499   3.441
25262SOL    HW177625   6.283  11.463   3.378
25262SOL    HW277626   6.178  11.571   3.395
25263SOL     OW77627   8.731  14.599  12.939
25263SOL    HW177628   8.697  14.689  12.936
25263SOL    HW277629   8.719  14.566  12.850
25264SOL     OW77630   3.429  13.134   1.942
25264SOL    HW177631   3.512  13.171   1.912
25264SOL    HW277632   3.409  13.182   2.022
25265SOL     OW77633   2.978   9.283  13.107
25265SOL    HW177634   3.062   9.314  13.141
25265SOL    HW277635   2.964   9.334  13.027
25266SOL     OW77636  10.811   3.955  10.621
25266SOL    HW177637  10.889   4.010  10.612
25266SOL    HW277638  10.822   3.885  10.557
25267SOL     OW77639   8.931  12.173  11.350
25267SOL    HW177640   9.016  12.128  11.347
25267SOL    HW277641   8.906  12.171  11.442
25268SOL     OW77642  14.541   8.708  13.860
25268SOL    HW177643  14.534   8.673  13.949
25268SOL    HW277644  14.506   8.796  13.866
25269SOL     OW77645   6.109   4.490   4.905
25269SOL    HW177646   6.113   4.520   4.996
25269SOL    HW277647   6.118   4.395   4.911
25270SOL     OW77648   2.892   2.313   6.154
25270SOL    HW177649   2.914   2.383   6.092
25270SOL    HW277650   2.803   2.332   6.182
25271SOL     OW77651   5.562  12.562  10.564
25271SOL    HW177652   5.592  12.478  10.529
25271SOL    HW277653   5.483  12.581  10.513
25272SOL     OW77654   8.691   5.281   0.796
25272SOL    HW177655   8.682   5.376   0.803
25272SOL    HW277656   8.781   5.267   0.766
25273SOL     OW77657  11.956   7.603   0.871
25273SOL    HW177658  11.965   7.522   0.921
25273SOL    HW277659  12.019   7.593   0.799
25274SOL     OW77660  12.562   7.070   2.080
25274SOL    HW177661  12.470   7.093   2.087
25274SOL    HW277662  12.562   6.978   2.053
25275SOL     OW77663   6.836   1.673  11.741
25275SOL    HW177664   6.858   1.604  11.679
25275SOL    HW277665   6.767   1.724  11.698
25276SOL     OW77666   3.171   1.286   6.141
25276SOL    HW177667   3.258   1.246   6.140
25276SOL    HW277668   3.123   1.237   6.207
25277SOL     OW77669   7.571   9.507  14.092
25277SOL    HW177670   7.500   9.567  14.113
25277SOL    HW277671   7.581   9.453  14.171
25278SOL     OW77672   4.214   1.127   8.819
25278SOL    HW177673   4.182   1.139   8.909
25278SOL    HW277674   4.234   1.215   8.789
25279SOL     OW77675   3.917   8.419  11.297
25279SOL    HW177676   3.953   8.464  11.374
25279SOL    HW277677   3.835   8.381  11.328
25280SOL     OW77678   2.887   6.338   7.293
25280SOL    HW177679   2.913   6.312   7.205
25280SOL    HW277680   2.968   6.368   7.335
25281SOL     OW77681  10.327   7.646   6.548
25281SOL    HW177682  10.380   7.715   6.508
25281SOL    HW277683  10.391   7.585   6.585
25282SOL     OW77684  11.838   2.912   6.224
25282SOL    HW177685  11.860   2.956   6.142
25282SOL    HW277686  11.882   2.962   6.292
25283SOL     OW77687  12.113  10.647   9.400
25283SOL    HW177688  12.155  10.562   9.413
25283SOL    HW277689  12.033  10.627   9.352
25284SOL     OW77690   1.812   4.300   2.192
25284SOL    HW177691   1.842   4.388   2.217
25284SOL    HW277692   1.890   4.258   2.155
25285SOL     OW77693   0.166   2.861   5.721
25285SOL    HW177694   0.115   2.866   5.641
25285SOL    HW277695   0.108   2.818   5.784
25286SOL     OW77696   1.648  14.442   1.879
25286SOL    HW177697   1.714  14.503   1.912
25286SOL    HW277698   1.584  14.497   1.835
25287SOL     OW77699  10.379  11.555   1.850
25287SOL    HW177700  10.306  11.612   1.825
25287SOL    HW277701  10.457  11.610   1.838
25288SOL     OW77702  12.330   7.624   0.412
25288SOL    HW177703  12.379   7.697   0.449
25288SOL    HW277704  12.338   7.636   0.317
25289SOL     OW77705  10.946   5.000   4.048
25289SOL    HW177706  10.895   5.079   4.063
25289SOL    HW277707  11.013   5.001   4.116
25290SOL     OW77708   7.859  13.552   8.456
25290SOL    HW177709   7.949  13.561   8.424
25290SOL    HW277710   7.831  13.467   8.423
25291SOL     OW77711  10.364   9.722   3.107
25291SOL    HW177712  10.295   9.665   3.073
25291SOL    HW277713  10.437   9.710   3.047
25292SOL     OW77714   1.304   1.986   0.180
25292SOL    HW177715   1.260   1.904   0.157
25292SOL    HW277716   1.245   2.054   0.147
25293SOL     OW77717   9.190   0.368   4.064
25293SOL    HW177718   9.156   0.281   4.084
25293SOL    HW277719   9.269   0.376   4.117
25294SOL     OW77720   2.914   4.715  12.191
25294SOL    HW177721   2.979   4.765  12.141
25294SOL    HW277722   2.965   4.648  12.236
25295SOL     OW77723   8.382   5.331   7.740
25295SOL    HW177724   8.299   5.350   7.783
25295SOL    HW277725   8.445   5.323   7.812
25296SOL     OW77726  14.724   9.905   7.980
25296SOL    HW177727  14.742   9.962   7.905
25296SOL    HW277728  14.749   9.956   8.056
25297SOL     OW77729   3.398  10.080   4.821
25297SOL    HW177730   3.451  10.007   4.853
25297SOL    HW277731   3.459  10.154   4.816
25298SOL     OW77732   5.865   1.859   5.346
25298SOL    HW177733   5.906   1.909   5.417
25298SOL    HW277734   5.787   1.910   5.323
25299SOL     OW77735   8.783   3.957   0.129
25299SOL    HW177736   8.839   4.023   0.170
25299SOL    HW277737   8.797   3.878   0.182
25300SOL     OW77738   3.535  10.072  11.088
25300SOL    HW177739   3.518  10.077  10.994
25300SOL    HW277740   3.622  10.033  11.094
25301SOL     OW77741   0.135   6.924   8.496
25301SOL    HW177742   0.191   6.903   8.422
25301SOL    HW277743   0.057   6.964   8.457
25302SOL     OW77744   6.450   3.089  11.264
25302SOL    HW177745   6.544   3.102  11.280
25302SOL    HW277746   6.436   3.123  11.176
25303SOL     OW77747   2.888   9.749   5.773
25303SOL    HW177748   2.867   9.747   5.679
25303SOL    HW277749   2.846   9.671   5.808
25304SOL     OW77750   3.292  12.910   9.723
25304SOL    HW177751   3.293  12.865   9.639
25304SOL    HW277752   3.282  12.839   9.787
25305SOL     OW77753   8.346   3.612   5.010
25305SOL    HW177754   8.419   3.669   4.985
25305SOL    HW277755   8.377   3.523   4.992
25306SOL     OW77756  10.860  11.477   6.804
25306SOL    HW177757  10.911  11.428   6.740
25306SOL    HW277758  10.894  11.566   6.798
25307SOL     OW77759   2.011  13.433   5.244
25307SOL    HW177760   2.013  13.485   5.324
25307SOL    HW277761   2.008  13.497   5.173
25308SOL     OW77762   8.095  10.623  11.169
25308SOL    HW177763   8.129  10.605  11.082
25308SOL    HW277764   8.124  10.712  11.188
25309SOL     OW77765   3.275   5.014  13.921
25309SOL    HW177766   3.291   5.041  14.011
25309SOL    HW277767   3.180   5.024  13.910
25310SOL     OW77768   4.382   1.836  10.076
25310SOL    HW177769   4.330   1.762  10.047
25310SOL    HW277770   4.406   1.881   9.995
25311SOL     OW77771   9.739   0.006   6.485
25311SOL    HW177772   9.795  14.811   6.460
25311SOL    HW277773   9.650  14.856   6.462
25312SOL     OW77774   7.048   3.779   3.705
25312SOL    HW177775   7.062   3.825   3.622
25312SOL    HW277776   7.064   3.687   3.685
25313SOL     OW77777   5.583   0.560   0.804
25313SOL    HW177778   5.497   0.559   0.847
25313SOL    HW277779   5.574   0.625   0.734
25314SOL     OW77780  12.769  13.587   3.011
25314SOL    HW177781  12.737  13.615   3.097
25314SOL    HW277782  12.692  13.550   2.967
25315SOL     OW77783   8.807   0.266   3.694
25315SOL    HW177784   8.797   0.239   3.785
25315SOL    HW277785   8.752   0.205   3.644
25316SOL     OW77786  13.727   3.978   8.733
25316SOL    HW177787  13.657   3.943   8.788
25316SOL    HW277788  13.806   3.972   8.788
25317SOL     OW77789   2.228  14.820   0.047
25317SOL    HW177790   2.170  14.787  14.858
25317SOL    HW277791   2.181  14.804   0.129
25318SOL     OW77792  10.933   6.709  14.375
25318SOL    HW177793  10.979   6.733  14.455
25318SOL    HW277794  10.937   6.787  14.320
25319SOL     OW77795  12.428   2.786   4.651
25319SOL    HW177796  12.447   2.879   4.652
25319SOL    HW277797  12.337   2.779   4.677
25320SOL     OW77798  12.033   4.665   8.558
25320SOL    HW177799  11.967   4.680   8.490
25320SOL    HW277800  12.030   4.745   8.612
25321SOL     OW77801   6.990   4.394  12.690
25321SOL    HW177802   6.905   4.403  12.733
25321SOL    HW277803   7.041   4.468  12.722
25322SOL     OW77804   6.979   0.676  11.885
25322SOL    HW177805   7.056   0.720  11.850
25322SOL    HW277806   7.002   0.654  11.975
25323SOL     OW77807  14.324   7.155   7.434
25323SOL    HW177808  14.286   7.098   7.368
25323SOL    HW277809  14.343   7.098   7.508
25324SOL     OW77810   6.959   6.468   3.228
25324SOL    HW177811   6.982   6.387   3.184
25324SOL    HW277812   6.876   6.449   3.272
25325SOL     OW77813  10.104  10.894  11.441
25325SOL    HW177814  10.158  10.819  11.417
25325SOL    HW277815  10.131  10.916  11.530
25326SOL     OW77816   3.796   2.929  13.905
25326SOL    HW177817   3.834   2.844  13.879
25326SOL    HW277818   3.733   2.908  13.973
25327SOL     OW77819  11.897   3.193   6.856
25327SOL    HW177820  11.914   3.126   6.923
25327SOL    HW277821  11.949   3.268   6.884
25328SOL     OW77822   4.026   9.301   5.469
25328SOL    HW177823   4.031   9.240   5.395
25328SOL    HW277824   4.100   9.360   5.456
25329SOL     OW77825  12.144  11.891   1.886
25329SOL    HW177826  12.126  11.950   1.813
25329SOL    HW277827  12.209  11.936   1.938
25330SOL     OW77828   0.375  13.790  12.813
25330SOL    HW177829   0.380  13.694  12.815
25330SOL    HW277830   0.423  13.818  12.890
25331SOL     OW77831   8.939  12.737   6.905
25331SOL    HW177832   8.885  12.804   6.863
25331SOL    HW277833   8.920  12.657   6.857
25332SOL     OW77834  13.015   1.833  12.625
25332SOL    HW177835  13.094   1.870  12.585
25332SOL    HW277836  12.944   1.858  12.566
25333SOL     OW77837   2.547   8.207   0.163
25333SOL    HW177838   2.512   8.282   0.211
25333SOL    HW277839   2.640   8.206   0.185
25334SOL     OW77840   9.658  10.005   8.954
25334SOL    HW177841   9.726   9.939   8.973
25334SOL    HW277842   9.598   9.961   8.894
25335SOL     OW77843   3.085   4.077   3.926
25335SOL    HW177844   3.052   4.147   3.869
25335SOL    HW277845   3.111   4.121   4.007
25336SOL     OW77846   8.590   3.955   7.278
25336SOL    HW177847   8.625   3.887   7.220
25336SOL    HW277848   8.661   3.973   7.340
25337SOL     OW77849   8.113   7.107   7.076
25337SOL    HW177850   8.070   7.139   7.156
25337SOL    HW277851   8.051   7.046   7.038
25338SOL     OW77852   8.960   0.690  11.969
25338SOL    HW177853   8.910   0.755  11.919
25338SOL    HW277854   9.041   0.679  11.919
25339SOL     OW77855   3.603   1.686   7.967
25339SOL    HW177856   3.508   1.695   7.956
25339SOL    HW277857   3.624   1.742   8.042
25340SOL     OW77858   4.597  11.531   5.895
25340SOL    HW177859   4.621  11.510   5.805
25340SOL    HW277860   4.527  11.469   5.916
25341SOL     OW77861   3.546   7.565   9.999
25341SOL    HW177862   3.494   7.642  10.019
25341SOL    HW277863   3.484   7.492  10.004
25342SOL     OW77864   2.484   6.636   0.438
25342SOL    HW177865   2.490   6.722   0.397
25342SOL    HW277866   2.390   6.620   0.448
25343SOL     OW77867   9.278   5.199   3.131
25343SOL    HW177868   9.206   5.206   3.068
25343SOL    HW277869   9.346   5.151   3.084
25344SOL     OW77870   3.534   0.960  12.023
25344SOL    HW177871   3.481   1.039  12.014
25344SOL    HW277872   3.514   0.928  12.111
25345SOL     OW77873   3.176   7.618  14.219
25345SOL    HW177874   3.119   7.542  14.209
25345SOL    HW277875   3.139   7.665  14.294
25346SOL     OW77876  13.608  10.331   2.653
25346SOL    HW177877  13.695  10.346   2.616
25346SOL    HW277878  13.557  10.408   2.626
25347SOL     OW77879   5.552  11.894   5.414
25347SOL    HW177880   5.457  11.890   5.426
25347SOL    HW277881   5.588  11.877   5.501
25348SOL     OW77882   0.481   5.400   3.960
25348SOL    HW177883   0.421   5.350   4.016
25348SOL    HW277884   0.480   5.488   3.997
25349SOL     OW77885   5.401   4.262  10.912
25349SOL    HW177886   5.343   4.335  10.929
25349SOL    HW277887   5.345   4.184  10.917
25350SOL     OW77888   8.428   3.281   3.244
25350SOL    HW177889   8.347   3.313   3.285
25350SOL    HW277890   8.492   3.281   3.315
25351SOL     OW77891  12.631   3.059  13.737
25351SOL    HW177892  12.682   3.004  13.796
25351SOL    HW277893  12.546   3.014  13.730
25352SOL     OW77894   1.262  12.675   8.334
25352SOL    HW177895   1.339  12.617   8.330
25352SOL    HW277896   1.187  12.616   8.326
25353SOL     OW77897   7.054   2.704   7.699
25353SOL    HW177898   7.040   2.609   7.692
25353SOL    HW277899   7.147   2.713   7.716
25354SOL     OW77900  14.051  10.753   8.890
25354SOL    HW177901  14.097  10.669   8.897
25354SOL    HW277902  14.109  10.807   8.835
25355SOL     OW77903   8.828  12.063  13.762
25355SOL    HW177904   8.878  12.089  13.840
25355SOL    HW277905   8.758  12.128  13.756
25356SOL     OW77906  10.210   5.991  10.792
25356SOL    HW177907  10.275   5.942  10.842
25356SOL    HW277908  10.196   6.071  10.842
25357SOL     OW77909   6.376  10.084   5.041
25357SOL    HW177910   6.408  10.150   5.103
25357SOL    HW277911   6.420  10.106   4.958
25358SOL     OW77912   2.232   5.240   1.566
25358SOL    HW177913   2.146   5.217   1.600
25358SOL    HW277914   2.219   5.326   1.525
25359SOL     OW77915   8.805   4.964   6.364
25359SOL    HW177916   8.855   5.002   6.292
25359SOL    HW277917   8.746   4.901   6.321
25360SOL     OW77918  14.709   7.371   9.509
25360SOL    HW177919  14.760   7.415   9.440
25360SOL    HW277920  14.770   7.308   9.547
25361SOL     OW77921  13.037   4.175   7.854
25361SOL    HW177922  12.964   4.139   7.906
25361SOL    HW277923  12.995   4.212   7.777
25362SOL     OW77924   1.056   5.562   8.847
25362SOL    HW177925   1.147   5.576   8.873
25362SOL    HW277926   1.019   5.509   8.918
25363SOL     OW77927   7.248  11.805  11.920
25363SOL    HW177928   7.233  11.898  11.902
25363SOL    HW277929   7.240  11.797  12.015
25364SOL     OW77930  12.504   2.589  14.834
25364SOL    HW177931  12.413   2.562  14.846
25364SOL    HW277932  12.532   2.618   0.042
25365SOL     OW77933   9.103  10.095   9.896
25365SOL    HW177934   9.144  10.010   9.910
25365SOL    HW277935   9.112  10.141   9.979
25366SOL     OW77936  11.994   6.648  13.552
25366SOL    HW177937  11.909   6.692  13.548
25366SOL    HW277938  11.999   6.615  13.641
25367SOL     OW77939  13.852  13.475  14.754
25367SOL    HW177940  13.902  13.441  14.828
25367SOL    HW277941  13.916  13.482  14.683
25368SOL     OW77942   8.435   6.220  10.314
25368SOL    HW177943   8.367   6.170  10.269
25368SOL    HW277944   8.409   6.221  10.405
25369SOL     OW77945   4.466  12.169  13.387
25369SOL    HW177946   4.389  12.154  13.441
25369SOL    HW277947   4.467  12.096  13.325
25370SOL     OW77948  14.547  11.767  13.173
25370SOL    HW177949  14.457  11.755  13.142
25370SOL    HW277950  14.597  11.698  13.130
25371SOL     OW77951   5.963   3.622   8.289
25371SOL    HW177952   6.014   3.648   8.365
25371SOL    HW277953   5.882   3.671   8.296
25372SOL     OW77954   2.328   7.874   2.520
25372SOL    HW177955   2.324   7.920   2.604
25372SOL    HW277956   2.252   7.906   2.471
25373SOL     OW77957  10.530  10.910  12.094
25373SOL    HW177958  10.617  10.870  12.095
25373SOL    HW277959  10.486  10.874  12.171
25374SOL     OW77960  13.931   1.730  10.365
25374SOL    HW177961  13.938   1.660  10.301
25374SOL    HW277962  13.909   1.685  10.447
25375SOL     OW77963   2.979   3.733  12.441
25375SOL    HW177964   2.972   3.723  12.536
25375SOL    HW277965   3.072   3.748  12.426
25376SOL     OW77966   1.155  11.134   2.912
25376SOL    HW177967   1.205  11.125   2.831
25376SOL    HW277968   1.063  11.134   2.884
25377SOL     OW77969   8.578   9.747   4.655
25377SOL    HW177970   8.607   9.783   4.739
25377SOL    HW277971   8.578   9.652   4.667
25378SOL     OW77972   6.258  10.988  10.171
25378SOL    HW177973   6.189  10.946  10.120
25378SOL    HW277974   6.271  11.073  10.128
25379SOL     OW77975   8.375   2.447   0.693
25379SOL    HW177976   8.326   2.528   0.710
25379SOL    HW277977   8.449   2.450   0.753
25380SOL     OW77978  11.807  12.850   2.191
25380SOL    HW177979  11.853  12.898   2.123
25380SOL    HW277980  11.839  12.888   2.273
25381SOL     OW77981  14.249   9.409   2.710
25381SOL    HW177982  14.297   9.489   2.690
25381SOL    HW277983  14.160   9.439   2.729
25382SOL     OW77984   9.455   8.426   0.636
25382SOL    HW177985   9.433   8.409   0.544
25382SOL    HW277986   9.377   8.468   0.672
25383SOL     OW77987  14.641  10.732   2.719
25383SOL    HW177988  14.668  10.823   2.735
25383SOL    HW277989  14.638  10.693   2.806
25384SOL     OW77990  10.057   4.814   5.284
25384SOL    HW177991  10.114   4.889   5.270
25384SOL    HW277992   9.982   4.829   5.226
25385SOL     OW77993   9.947  10.149  11.373
25385SOL    HW177994   9.927  10.185  11.287
25385SOL    HW277995   9.986  10.222  11.421
25386SOL     OW77996  13.575   7.273  10.832
25386SOL    HW177997  13.599   7.364  10.850
25386SOL    HW277998  13.657   7.224  10.843
25387SOL     OW77999   6.498   1.367   9.148
25387SOL    HW178000   6.567   1.301   9.140
25387SOL    HW278001   6.417   1.321   9.125
25388SOL     OW78002   0.382   1.705   1.868
25388SOL    HW178003   0.304   1.661   1.835
25388SOL    HW278004   0.352   1.794   1.889
25389SOL     OW78005  12.215  10.359  13.220
25389SOL    HW178006  12.231  10.450  13.196
25389SOL    HW278007  12.294  10.332  13.267
25390SOL     OW78008  13.270   2.245   3.604
25390SOL    HW178009  13.296   2.318   3.661
25390SOL    HW278010  13.352   2.202   3.580
25391SOL     OW78011   5.237  11.551   7.117
25391SOL    HW178012   5.322  11.580   7.151
25391SOL    HW278013   5.252  11.532   7.025
25392SOL     OW78014  10.934   4.508   2.547
25392SOL    HW178015  10.920   4.576   2.481
25392SOL    HW278016  10.983   4.552   2.617
25393SOL     OW78017  12.943  11.831  13.242
25393SOL    HW178018  12.876  11.801  13.181
25393SOL    HW278019  12.900  11.831  13.328
25394SOL     OW78020   1.330   6.267   8.115
25394SOL    HW178021   1.423   6.280   8.129
25394SOL    HW278022   1.325   6.198   8.049
25395SOL     OW78023   8.652  10.577   1.164
25395SOL    HW178024   8.721  10.518   1.196
25395SOL    HW278025   8.574  10.551   1.214
25396SOL     OW78026   4.866  11.479  13.350
25396SOL    HW178027   4.916  11.439  13.279
25396SOL    HW278028   4.920  11.467  13.428
25397SOL     OW78029   2.914  13.206  12.908
25397SOL    HW178030   2.936  13.121  12.871
25397SOL    HW278031   2.929  13.196  13.002
25398SOL     OW78032  11.517   8.634   6.288
25398SOL    HW178033  11.501   8.701   6.354
25398SOL    HW278034  11.603   8.599   6.309
25399SOL     OW78035  10.459  11.446   3.714
25399SOL    HW178036  10.441  11.400   3.796
25399SOL    HW278037  10.422  11.533   3.727
25400SOL     OW78038  14.561  12.170   0.955
25400SOL    HW178039  14.615  12.098   0.922
25400SOL    HW278040  14.525  12.138   1.038
25401SOL     OW78041  11.095   5.511  14.599
25401SOL    HW178042  11.092   5.478  14.689
25401SOL    HW278043  11.160   5.581  14.601
25402SOL     OW78044  11.947  12.829  12.743
25402SOL    HW178045  12.026  12.776  12.741
25402SOL    HW278046  11.968  12.902  12.801
25403SOL     OW78047   1.781  12.412  12.322
25403SOL    HW178048   1.875  12.430  12.326
25403SOL    HW278049   1.774  12.317  12.332
25404SOL     OW78050   2.281   9.206  11.934
25404SOL    HW178051   2.352   9.265  11.960
25404SOL    HW278052   2.259   9.158  12.014
25405SOL     OW78053   7.180  11.934   6.540
25405SOL    HW178054   7.205  11.851   6.580
25405SOL    HW278055   7.207  11.926   6.449
25406SOL     OW78056   2.504   1.533   9.991
25406SOL    HW178057   2.415   1.553   9.962
25406SOL    HW278058   2.500   1.537  10.087
25407SOL     OW78059   2.689   6.998  12.763
25407SOL    HW178060   2.690   6.911  12.802
25407SOL    HW278061   2.726   7.055  12.832
25408SOL     OW78062  10.600  14.369  11.303
25408SOL    HW178063  10.634  14.441  11.249
25408SOL    HW278064  10.678  14.324  11.334
25409SOL     OW78065  11.346   4.459   9.227
25409SOL    HW178066  11.407   4.526   9.257
25409SOL    HW278067  11.274   4.507   9.186
25410SOL     OW78068   9.865   0.840   9.301
25410SOL    HW178069   9.850   0.911   9.363
25410SOL    HW278070   9.847   0.878   9.215
25411SOL     OW78071   8.408   7.401   2.911
25411SOL    HW178072   8.333   7.418   2.854
25411SOL    HW278073   8.432   7.488   2.945
25412SOL     OW78074  12.490   1.384  10.087
25412SOL    HW178075  12.426   1.359  10.154
25412SOL    HW278076  12.574   1.383  10.133
25413SOL     OW78077   9.665  10.604  13.060
25413SOL    HW178078   9.617  10.532  13.019
25413SOL    HW278079   9.693  10.659  12.987
25414SOL     OW78080  10.912   9.585   7.152
25414SOL    HW178081  10.876   9.543   7.231
25414SOL    HW278082  10.942   9.512   7.098
25415SOL     OW78083   3.614   8.871   7.578
25415SOL    HW178084   3.591   8.895   7.667
25415SOL    HW278085   3.652   8.951   7.540
25416SOL     OW78086   3.765   5.639  13.282
25416SOL    HW178087   3.688   5.651  13.338
25416SOL    HW278088   3.773   5.545  13.271
25417SOL     OW78089   1.503   0.690  14.078
25417SOL    HW178090   1.559   0.619  14.110
25417SOL    HW278091   1.415   0.651  14.075
25418SOL     OW78092   0.253   6.786   8.937
25418SOL    HW178093   0.293   6.852   8.880
25418SOL    HW278094   0.262   6.822   9.025
25419SOL     OW78095   6.070   6.715   4.451
25419SOL    HW178096   6.048   6.712   4.358
25419SOL    HW278097   6.001   6.770   4.490
25420SOL     OW78098   5.126  11.839  11.313
25420SOL    HW178099   5.094  11.754  11.281
25420SOL    HW278100   5.215  11.822  11.343
25421SOL     OW78101   3.903  10.272  13.471
25421SOL    HW178102   3.810  10.268  13.490
25421SOL    HW278103   3.945  10.225  13.543
25422SOL     OW78104   4.533   7.119  11.091
25422SOL    HW178105   4.489   7.148  11.011
25422SOL    HW278106   4.514   7.187  11.155
25423SOL     OW78107  13.711  14.031   7.056
25423SOL    HW178108  13.728  14.125   7.052
25423SOL    HW278109  13.711  14.009   7.149
25424SOL     OW78110   2.112   6.218   7.166
25424SOL    HW178111   2.136   6.153   7.233
25424SOL    HW278112   2.188   6.222   7.108
25425SOL     OW78113   3.854  12.297  13.209
25425SOL    HW178114   3.912  12.225  13.183
25425SOL    HW278115   3.891  12.329  13.292
25426SOL     OW78116  13.435   7.845   9.562
25426SOL    HW178117  13.506   7.908   9.550
25426SOL    HW278118  13.480   7.760   9.568
25427SOL     OW78119   6.369   3.365  14.478
25427SOL    HW178120   6.393   3.333  14.565
25427SOL    HW278121   6.363   3.286  14.424
25428SOL     OW78122  14.607   1.044  11.496
25428SOL    HW178123  14.636   1.084  11.414
25428SOL    HW278124  14.659   0.964  11.503
25429SOL     OW78125   9.386   7.637   2.194
25429SOL    HW178126   9.378   7.550   2.232
25429SOL    HW278127   9.355   7.697   2.262
25430SOL     OW78128  12.740  13.630  12.430
25430SOL    HW178129  12.727  13.550  12.379
25430SOL    HW278130  12.804  13.606  12.496
25431SOL     OW78131   2.051   5.228  14.232
25431SOL    HW178132   1.963   5.228  14.270
25431SOL    HW278133   2.082   5.318  14.246
25432SOL     OW78134  11.074   4.031  13.872
25432SOL    HW178135  11.070   3.936  13.864
25432SOL    HW278136  10.988   4.056  13.905
25433SOL     OW78137   1.131   1.827   8.021
25433SOL    HW178138   1.075   1.801   8.094
25433SOL    HW278139   1.070   1.854   7.952
25434SOL     OW78140   3.694   8.224   9.214
25434SOL    HW178141   3.673   8.195   9.125
25434SOL    HW278142   3.693   8.320   9.208
25435SOL     OW78143   8.536  11.734   8.065
25435SOL    HW178144   8.603  11.800   8.044
25435SOL    HW278145   8.585  11.661   8.102
25436SOL     OW78146   1.411   0.727   4.238
25436SOL    HW178147   1.368   0.812   4.237
25436SOL    HW278148   1.502   0.746   4.219
25437SOL     OW78149  13.104   5.357   2.357
25437SOL    HW178150  13.043   5.358   2.430
25437SOL    HW278151  13.063   5.412   2.290
25438SOL     OW78152  11.580   9.644  14.708
25438SOL    HW178153  11.560   9.550  14.717
25438SOL    HW278154  11.658   9.646  14.652
25439SOL     OW78155   0.001   6.500   4.580
25439SOL    HW178156   0.092   6.492   4.549
25439SOL    HW278157  14.875   6.587   4.618
25440SOL     OW78158   9.051   9.292   6.402
25440SOL    HW178159   9.051   9.222   6.337
25440SOL    HW278160   8.993   9.260   6.472
25441SOL     OW78161   8.242  13.113   3.539
25441SOL    HW178162   8.151  13.123   3.566
25441SOL    HW278163   8.265  13.197   3.499
25442SOL     OW78164   5.854   2.005  14.774
25442SOL    HW178165   5.852   1.960  14.859
25442SOL    HW278166   5.767   2.042  14.765
25443SOL     OW78167  14.493   5.636   5.649
25443SOL    HW178168  14.423   5.673   5.595
25443SOL    HW278169  14.464   5.651   5.739
25444SOL     OW78170   8.710   6.613   9.413
25444SOL    HW178171   8.802   6.624   9.391
25444SOL    HW278172   8.665   6.683   9.366
25445SOL     OW78173   7.692   5.053   9.782
25445SOL    HW178174   7.636   5.043   9.705
25445SOL    HW278175   7.716   5.145   9.784
25446SOL     OW78176  12.412   8.965  13.381
25446SOL    HW178177  12.449   8.925  13.303
25446SOL    HW278178  12.372   9.046  13.350
25447SOL     OW78179   3.992   2.108  10.175
25447SOL    HW178180   3.906   2.066  10.181
25447SOL    HW278181   4.026   2.105  10.264
25448SOL     OW78182   4.709   9.253   4.604
25448SOL    HW178183   4.795   9.294   4.619
25448SOL    HW278184   4.657   9.322   4.563
25449SOL     OW78185   4.885   6.615   8.353
25449SOL    HW178186   4.840   6.636   8.271
25449SOL    HW278187   4.826   6.645   8.421
25450SOL     OW78188   4.241   1.385   6.829
25450SOL    HW178189   4.186   1.409   6.904
25450SOL    HW278190   4.282   1.467   6.801
25451SOL     OW78191   9.946   3.951   5.263
25451SOL    HW178192   9.997   4.032   5.256
25451SOL    HW278193   9.956   3.909   5.178
25452SOL     OW78194   4.194   8.983   8.822
25452SOL    HW178195   4.180   8.976   8.916
25452SOL    HW278196   4.113   9.023   8.789
25453SOL     OW78197   0.835   4.548   7.132
25453SOL    HW178198   0.846   4.564   7.226
25453SOL    HW278199   0.787   4.465   7.127
25454SOL     OW78200   7.356   6.328  10.346
25454SOL    HW178201   7.331   6.306  10.256
25454SOL    HW278202   7.326   6.253  10.398
25455SOL     OW78203   0.999   5.608   6.430
25455SOL    HW178204   1.004   5.631   6.523
25455SOL    HW278205   1.058   5.534   6.421
25456SOL     OW78206   5.691   9.851   7.075
25456SOL    HW178207   5.699   9.755   7.084
25456SOL    HW278208   5.611   9.873   7.124
25457SOL     OW78209   8.125   9.118   9.731
25457SOL    HW178210   8.183   9.145   9.660
25457SOL    HW278211   8.048   9.174   9.723
25458SOL     OW78212  10.622   0.027   0.587
25458SOL    HW178213  10.618   0.043   0.493
25458SOL    HW278214  10.669   0.103   0.623
25459SOL     OW78215   2.458   8.721  11.335
25459SOL    HW178216   2.513   8.743  11.260
25459SOL    HW278217   2.489   8.778  11.405
25460SOL     OW78218  14.474  11.098  13.682
25460SOL    HW178219  14.462  11.115  13.776
25460SOL    HW278220  14.404  11.036  13.660
25461SOL     OW78221   2.343  12.912   4.928
25461SOL    HW178222   2.267  12.968   4.943
25461SOL    HW278223   2.418  12.969   4.941
25462SOL     OW78224   3.136   2.837   2.162
25462SOL    HW178225   3.204   2.790   2.114
25462SOL    HW278226   3.078   2.871   2.095
25463SOL     OW78227   9.507  14.282   9.146
25463SOL    HW178228   9.450  14.243   9.080
25463SOL    HW278229   9.466  14.257   9.230
25464SOL     OW78230   7.648  12.968  13.402
25464SOL    HW178231   7.584  12.900  13.381
25464SOL    HW278232   7.720  12.921  13.444
25465SOL     OW78233   5.848   6.753   3.984
25465SOL    HW178234   5.905   6.736   3.909
25465SOL    HW278235   5.861   6.847   4.002
25466SOL     OW78236   8.513   3.664   2.965
25466SOL    HW178237   8.588   3.700   2.917
25466SOL    HW278238   8.481   3.738   3.017
25467SOL     OW78239  12.526   6.063   6.694
25467SOL    HW178240  12.514   6.127   6.764
25467SOL    HW278241  12.527   5.979   6.739
25468SOL     OW78242  13.306   6.868   6.008
25468SOL    HW178243  13.276   6.945   6.057
25468SOL    HW278244  13.380   6.900   5.956
25469SOL     OW78245   5.658   7.187   0.912
25469SOL    HW178246   5.601   7.131   0.964
25469SOL    HW278247   5.623   7.275   0.925
25470SOL     OW78248  12.192   8.937  12.380
25470SOL    HW178249  12.196   8.927  12.285
25470SOL    HW278250  12.280   8.913  12.410
25471SOL     OW78251   8.154   9.063  13.775
25471SOL    HW178252   8.185   9.045  13.686
25471SOL    HW278253   8.134   8.977  13.811
25472SOL     OW78254  11.880  12.988  10.407
25472SOL    HW178255  11.962  12.940  10.404
25472SOL    HW278256  11.865  13.018  10.318
25473SOL     OW78257   4.933   1.405  12.828
25473SOL    HW178258   4.961   1.411  12.919
25473SOL    HW278259   4.892   1.319  12.820
25474SOL     OW78260  13.295   9.455   9.991
25474SOL    HW178261  13.218   9.511  10.001
25474SOL    HW278262  13.295   9.399  10.069
25475SOL     OW78263   1.056   4.707   2.878
25475SOL    HW178264   0.984   4.763   2.850
25475SOL    HW278265   1.135   4.755   2.853
25476SOL     OW78266  14.188  10.710   0.858
25476SOL    HW178267  14.224  10.756   0.782
25476SOL    HW278268  14.103  10.677   0.827
25477SOL     OW78269  12.563   7.887   2.759
25477SOL    HW178270  12.613   7.951   2.810
25477SOL    HW278271  12.500   7.851   2.821
25478SOL     OW78272   0.551   6.524   2.166
25478SOL    HW178273   0.621   6.460   2.179
25478SOL    HW278274   0.514   6.538   2.253
25479SOL     OW78275  14.337  10.378   7.590
25479SOL    HW178276  14.316  10.456   7.641
25479SOL    HW278277  14.432  10.381   7.580
25480SOL     OW78278   3.324   2.040   1.720
25480SOL    HW178279   3.235   2.020   1.749
25480SOL    HW278280   3.348   1.969   1.661
25481SOL     OW78281   1.353   6.798  11.625
25481SOL    HW178282   1.267   6.767  11.652
25481SOL    HW278283   1.373   6.750  11.545
25482SOL     OW78284  13.588   6.133  12.761
25482SOL    HW178285  13.635   6.059  12.723
25482SOL    HW278286  13.596   6.121  12.855
25483SOL     OW78287   9.533   6.171  14.842
25483SOL    HW178288   9.486   6.135   0.037
25483SOL    HW278289   9.482   6.144  14.765
25484SOL     OW78290  14.369   4.041   1.478
25484SOL    HW178291  14.320   3.982   1.534
25484SOL    HW278292  14.303   4.099   1.440
25485SOL     OW78293  10.183   2.547  14.576
25485SOL    HW178294  10.129   2.477  14.539
25485SOL    HW278295  10.159   2.625  14.524
25486SOL     OW78296   0.384  12.459   3.466
25486SOL    HW178297   0.348  12.456   3.554
25486SOL    HW278298   0.370  12.371   3.431
25487SOL     OW78299  12.269   7.932   7.248
25487SOL    HW178300  12.207   7.997   7.214
25487SOL    HW278301  12.218   7.879   7.308
25488SOL     OW78302   9.839  13.768  11.322
25488SOL    HW178303   9.889  13.697  11.363
25488SOL    HW278304   9.788  13.805  11.394
25489SOL     OW78305   2.558   6.196   4.419
25489SOL    HW178306   2.466   6.177   4.436
25489SOL    HW278307   2.571   6.173   4.327
25490SOL     OW78308   8.871   5.276   7.288
25490SOL    HW178309   8.938   5.306   7.227
25490SOL    HW278310   8.847   5.356   7.336
25491SOL     OW78311   0.902   9.761   2.269
25491SOL    HW178312   0.953   9.706   2.209
25491SOL    HW278313   0.844   9.699   2.313
25492SOL     OW78314   9.298   0.571   6.295
25492SOL    HW178315   9.246   0.511   6.348
25492SOL    HW278316   9.383   0.528   6.287
25493SOL     OW78317  10.309   3.456   5.681
25493SOL    HW178318  10.362   3.405   5.619
25493SOL    HW278319  10.227   3.408   5.686
25494SOL     OW78320   9.805   1.892   5.489
25494SOL    HW178321   9.859   1.951   5.437
25494SOL    HW278322   9.865   1.855   5.554
25495SOL     OW78323   6.211  10.598   3.437
25495SOL    HW178324   6.181  10.683   3.470
25495SOL    HW278325   6.305  10.597   3.455
25496SOL     OW78326   7.639   9.684   6.879
25496SOL    HW178327   7.558   9.718   6.839
25496SOL    HW278328   7.700   9.758   6.876
25497SOL     OW78329   1.846  10.842  14.538
25497SOL    HW178330   1.863  10.930  14.506
25497SOL    HW278331   1.769  10.851  14.595
25498SOL     OW78332   3.716   6.449   4.178
25498SOL    HW178333   3.644   6.415   4.231
25498SOL    HW278334   3.738   6.378   4.118
25499SOL     OW78335  12.718   5.649  10.002
25499SOL    HW178336  12.799   5.687   9.969
25499SOL    HW278337  12.746   5.583  10.065
25500SOL     OW78338   1.189  11.702   4.064
25500SOL    HW178339   1.188  11.655   3.980
25500SOL    HW278340   1.140  11.645   4.123
25501SOL     OW78341   3.094  13.262   7.984
25501SOL    HW178342   3.073  13.171   7.963
25501SOL    HW278343   3.187  13.261   8.007
25502SOL     OW78344   9.580   3.132   7.498
25502SOL    HW178345   9.491   3.147   7.467
25502SOL    HW278346   9.574   3.139   7.593
25503SOL     OW78347   3.265  10.166  14.059
25503SOL    HW178348   3.263  10.072  14.071
25503SOL    HW278349   3.321  10.199  14.129
25504SOL     OW78350   1.506  14.074   9.554
25504SOL    HW178351   1.430  14.124   9.583
25504SOL    HW278352   1.559  14.137   9.505
25505SOL     OW78353   9.201   5.791  11.669
25505SOL    HW178354   9.171   5.831  11.588
25505SOL    HW278355   9.122   5.780  11.722
25506SOL     OW78356  12.779   1.509   6.092
25506SOL    HW178357  12.812   1.487   6.005
25506SOL    HW278358  12.748   1.599   6.084
25507SOL     OW78359   3.604   0.995  10.344
25507SOL    HW178360   3.622   0.972  10.435
25507SOL    HW278361   3.532   1.058  10.348
25508SOL     OW78362  12.661  14.782   6.507
25508SOL    HW178363  12.600  14.708   6.516
25508SOL    HW278364  12.747  14.741   6.506
25509SOL     OW78365   0.238  10.910  11.787
25509SOL    HW178366   0.302  10.951  11.845
25509SOL    HW278367   0.283  10.832  11.754
25510SOL     OW78368   9.591   9.509   9.416
25510SOL    HW178369   9.593   9.466   9.501
25510SOL    HW278370   9.509   9.479   9.376
25511SOL     OW78371   2.950   2.232   5.492
25511SOL    HW178372   2.857   2.207   5.495
25511SOL    HW278373   2.983   2.190   5.413
25512SOL     OW78374  14.063  10.664   7.089
25512SOL    HW178375  14.091  10.653   6.998
25512SOL    HW278376  14.134  10.625   7.141
25513SOL     OW78377  12.412  12.890   5.522
25513SOL    HW178378  12.395  12.925   5.435
25513SOL    HW278379  12.439  12.799   5.507
25514SOL     OW78380   4.437   0.687   4.466
25514SOL    HW178381   4.486   0.690   4.383
25514SOL    HW278382   4.422   0.594   4.482
25515SOL     OW78383   8.871  11.894   8.246
25515SOL    HW178384   8.835  11.912   8.159
25515SOL    HW278385   8.830  11.811   8.272
25516SOL     OW78386  10.683   2.996   6.942
25516SOL    HW178387  10.724   3.039   7.017
25516SOL    HW278388  10.599   2.964   6.976
25517SOL     OW78389  14.279  12.817  11.083
25517SOL    HW178390  14.354  12.790  11.137
25517SOL    HW278391  14.204  12.809  11.142
25518SOL     OW78392   5.033   4.061   2.556
25518SOL    HW178393   5.060   4.072   2.465
25518SOL    HW278394   5.093   3.996   2.592
25519SOL     OW78395  11.418   8.232  14.808
25519SOL    HW178396  11.449   8.273  14.727
25519SOL    HW278397  11.498   8.211  14.856
25520SOL     OW78398  14.168   2.323  11.821
25520SOL    HW178399  14.229   2.264  11.865
25520SOL    HW278400  14.083   2.299  11.856
25521SOL     OW78401   3.375  11.189   0.666
25521SOL    HW178402   3.284  11.163   0.652
25521SOL    HW278403   3.412  11.121   0.722
25522SOL     OW78404   1.825   4.147   9.066
25522SOL    HW178405   1.836   4.081   9.134
25522SOL    HW278406   1.888   4.123   8.998
25523SOL     OW78407   0.540  10.939   9.795
25523SOL    HW178408   0.613  10.986   9.835
25523SOL    HW278409   0.506  10.883   9.865
25524SOL     OW78410  12.309  13.260  10.009
25524SOL    HW178411  12.281  13.253  10.100
25524SOL    HW278412  12.262  13.336   9.975
25525SOL     OW78413   9.571  11.217   6.097
25525SOL    HW178414   9.654  11.188   6.059
25525SOL    HW278415   9.597  11.267   6.175
25526SOL     OW78416   0.258  10.275   0.954
25526SOL    HW178417   0.181  10.332   0.957
25526SOL    HW278418   0.332  10.336   0.957
25527SOL     OW78419  14.552   8.685  14.866
25527SOL    HW178420  14.505   8.769  14.868
25527SOL    HW278421  14.636   8.704   0.027
25528SOL     OW78422  13.611   1.485   8.221
25528SOL    HW178423  13.675   1.441   8.165
25528SOL    HW278424  13.545   1.519   8.160
25529SOL     OW78425   0.546   6.963  10.978
25529SOL    HW178426   0.543   7.039  10.919
25529SOL    HW278427   0.463   6.968  11.026
25530SOL     OW78428   5.435  13.330   0.035
25530SOL    HW178429   5.488  13.397  14.872
25530SOL    HW278430   5.346  13.366   0.036
25531SOL     OW78431   5.972  11.344   3.518
25531SOL    HW178432   6.009  11.259   3.542
25531SOL    HW278433   6.048  11.396   3.492
25532SOL     OW78434   7.735   2.369   2.664
25532SOL    HW178435   7.768   2.349   2.576
25532SOL    HW278436   7.642   2.345   2.661
25533SOL     OW78437  10.868   4.470  10.826
25533SOL    HW178438  10.783   4.515  10.822
25533SOL    HW278439  10.861   4.401  10.759
25534SOL     OW78440   2.366   2.900   4.831
25534SOL    HW178441   2.420   2.967   4.789
25534SOL    HW278442   2.423   2.823   4.836
25535SOL     OW78443   4.369   8.198   9.603
25535SOL    HW178444   4.290   8.148   9.581
25535SOL    HW278445   4.438   8.133   9.607
25536SOL     OW78446   9.330   4.272   5.209
25536SOL    HW178447   9.395   4.202   5.201
25536SOL    HW278448   9.273   4.244   5.280
25537SOL     OW78449   1.355  10.274   8.562
25537SOL    HW178450   1.303  10.348   8.594
25537SOL    HW278451   1.386  10.231   8.642
25538SOL     OW78452   3.822  14.862  10.842
25538SOL    HW178453   3.837   0.015  10.931
25538SOL    HW278454   3.732   0.008  10.823
25539SOL     OW78455  10.237   1.273  10.742
25539SOL    HW178456  10.286   1.255  10.662
25539SOL    HW278457  10.267   1.360  10.770
25540SOL     OW78458   9.092   1.588   7.071
25540SOL    HW178459   9.092   1.536   6.990
25540SOL    HW278460   9.064   1.526   7.138
25541SOL     OW78461  10.683   8.531   5.865
25541SOL    HW178462  10.654   8.458   5.810
25541SOL    HW278463  10.779   8.528   5.859
25542SOL     OW78464   4.574   1.671   7.333
25542SOL    HW178465   4.580   1.645   7.241
25542SOL    HW278466   4.603   1.594   7.382
25543SOL     OW78467   1.355   6.006   6.632
25543SOL    HW178468   1.260   6.003   6.622
25543SOL    HW278469   1.385   5.921   6.601
25544SOL     OW78470   1.918   6.412   3.431
25544SOL    HW178471   1.863   6.426   3.508
25544SOL    HW278472   1.868   6.450   3.359
25545SOL     OW78473   3.690  10.948   2.932
25545SOL    HW178474   3.747  10.886   2.977
25545SOL    HW278475   3.737  11.032   2.937
25546SOL     OW78476   5.583   1.533   1.059
25546SOL    HW178477   5.555   1.510   0.970
25546SOL    HW278478   5.677   1.547   1.052
25547SOL     OW78479  10.340   6.849   8.245
25547SOL    HW178480  10.307   6.936   8.222
25547SOL    HW278481  10.432   6.863   8.265
25548SOL     OW78482   3.575  13.460   1.721
25548SOL    HW178483   3.515  13.394   1.686
25548SOL    HW278484   3.620  13.495   1.644
25549SOL     OW78485  13.020  12.847   9.895
25549SOL    HW178486  12.972  12.914   9.847
25549SOL    HW278487  12.957  12.775   9.906
25550SOL     OW78488   5.404  14.499   8.659
25550SOL    HW178489   5.455  14.535   8.732
25550SOL    HW278490   5.313  14.511   8.686
25551SOL     OW78491  11.020  14.400   0.915
25551SOL    HW178492  10.977  14.320   0.944
25551SOL    HW278493  11.061  14.435   0.993
25552SOL     OW78494  13.508   4.611   9.280
25552SOL    HW178495  13.447   4.611   9.354
25552SOL    HW278496  13.478   4.541   9.223
25553SOL     OW78497   7.657  10.546   4.997
25553SOL    HW178498   7.645  10.618   4.934
25553SOL    HW278499   7.611  10.576   5.076
25554SOL     OW78500  14.718   1.794   5.626
25554SOL    HW178501  14.670   1.849   5.688
25554SOL    HW278502  14.809   1.821   5.637
25555SOL     OW78503   3.242   8.629  12.956
25555SOL    HW178504   3.153   8.647  12.927
25555SOL    HW278505   3.243   8.534  12.971
25556SOL     OW78506  13.996  13.489  11.087
25556SOL    HW178507  13.975  13.580  11.111
25556SOL    HW278508  14.013  13.492  10.993
25557SOL     OW78509  12.341  14.089   9.535
25557SOL    HW178510  12.270  14.122   9.591
25557SOL    HW278511  12.421  14.118   9.578
25558SOL     OW78512  12.960   9.236   8.547
25558SOL    HW178513  13.012   9.176   8.600
25558SOL    HW278514  12.898   9.275   8.608
25559SOL     OW78515   9.345  11.437   7.335
25559SOL    HW178516   9.378  11.527   7.327
25559SOL    HW278517   9.251  11.448   7.348
25560SOL     OW78518   3.328  10.061  10.272
25560SOL    HW178519   3.305   9.968  10.275
25560SOL    HW278520   3.386  10.069  10.196
25561SOL     OW78521   0.047   5.129   8.739
25561SOL    HW178522   0.054   5.043   8.781
25561SOL    HW278523   0.132   5.170   8.754
25562SOL     OW78524  13.839   8.151   2.386
25562SOL    HW178525  13.867   8.066   2.353
25562SOL    HW278526  13.920   8.200   2.399
25563SOL     OW78527   9.308   6.914   0.788
25563SOL    HW178528   9.281   6.996   0.830
25563SOL    HW278529   9.378   6.941   0.728
25564SOL     OW78530   5.837   4.372   8.023
25564SOL    HW178531   5.902   4.320   7.976
25564SOL    HW278532   5.879   4.457   8.036
25565SOL     OW78533  10.116   2.211  11.999
25565SOL    HW178534  10.046   2.237  12.058
25565SOL    HW278535  10.184   2.176  12.057
25566SOL     OW78536   3.304   0.355   5.590
25566SOL    HW178537   3.286   0.447   5.605
25566SOL    HW278538   3.362   0.330   5.663
25567SOL     OW78539  10.604   7.693  12.372
25567SOL    HW178540  10.584   7.665  12.462
25567SOL    HW278541  10.622   7.787  12.380
25568SOL     OW78542   5.209   3.086  11.758
25568SOL    HW178543   5.244   2.997  11.766
25568SOL    HW278544   5.135   3.078  11.699
25569SOL     OW78545   5.947   8.322   2.852
25569SOL    HW178546   6.006   8.394   2.874
25569SOL    HW278547   5.914   8.291   2.936
25570SOL     OW78548   7.392  11.305  10.029
25570SOL    HW178549   7.396  11.389  10.077
25570SOL    HW278550   7.424  11.326   9.942
25571SOL     OW78551   6.848   6.379   2.144
25571SOL    HW178552   6.860   6.297   2.097
25571SOL    HW278553   6.754   6.399   2.134
25572SOL     OW78554   5.546   9.727   6.063
25572SOL    HW178555   5.488   9.653   6.085
25572SOL    HW278556   5.618   9.687   6.015
25573SOL     OW78557   3.596   5.837  10.818
25573SOL    HW178558   3.509   5.799  10.831
25573SOL    HW278559   3.581   5.911  10.759
25574SOL     OW78560  13.063   1.070   8.762
25574SOL    HW178561  13.053   1.042   8.671
25574SOL    HW278562  13.152   1.045   8.785
25575SOL     OW78563  14.048   2.922   3.808
25575SOL    HW178564  14.078   2.831   3.816
25575SOL    HW278565  13.975   2.929   3.868
25576SOL     OW78566  13.646   0.840   8.777
25576SOL    HW178567  13.577   0.815   8.838
25576SOL    HW278568  13.636   0.780   8.703
25577SOL     OW78569  13.261  11.970   9.416
25577SOL    HW178570  13.208  11.892   9.398
25577SOL    HW278571  13.239  11.994   9.506
25578SOL     OW78572  14.722   0.280   0.106
25578SOL    HW178573  14.702   0.352   0.046
25578SOL    HW278574  14.683   0.307   0.189
25579SOL     OW78575  12.282  14.549  11.276
25579SOL    HW178576  12.236  14.611  11.332
25579SOL    HW278577  12.335  14.603  11.218
25580SOL     OW78578   4.156   4.016   2.992
25580SOL    HW178579   4.179   3.997   2.901
25580SOL    HW278580   4.061   4.001   2.995
25581SOL     OW78581   5.161   3.768  10.195
25581SOL    HW178582   5.229   3.778  10.128
25581SOL    HW278583   5.158   3.674  10.213
25582SOL     OW78584   3.715   3.965   9.479
25582SOL    HW178585   3.773   3.986   9.552
25582SOL    HW278586   3.707   3.870   9.480
25583SOL     OW78587  10.681   7.089   1.977
25583SOL    HW178588  10.740   7.015   1.991
25583SOL    HW278589  10.597   7.060   2.013
25584SOL     OW78590   6.606  10.527  14.639
25584SOL    HW178591   6.604  10.431  14.635
25584SOL    HW278592   6.640  10.554  14.554
25585SOL     OW78593   8.191   0.214   0.069
25585SOL    HW178594   8.169   0.123   0.051
25585SOL    HW278595   8.194   0.255  14.861
25586SOL     OW78596  10.243   3.765  14.139
25586SOL    HW178597  10.234   3.858  14.158
25586SOL    HW278598  10.175   3.723  14.192
25587SOL     OW78599   4.823  14.583  10.143
25587SOL    HW178600   4.914  14.554  10.147
25587SOL    HW278601   4.830  14.676  10.121
25588SOL     OW78602   7.238   5.281   2.345
25588SOL    HW178603   7.176   5.350   2.324
25588SOL    HW278604   7.277   5.257   2.261
25589SOL     OW78605   3.592   9.414   6.849
25589SOL    HW178606   3.587   9.384   6.939
25589SOL    HW278607   3.503   9.402   6.814
25590SOL     OW78608  11.979  12.039   3.932
25590SOL    HW178609  11.948  12.042   4.022
25590SOL    HW278610  12.052  12.102   3.930
25591SOL     OW78611   7.334   0.049   2.046
25591SOL    HW178612   7.372   0.048   1.958
25591SOL    HW278613   7.318  14.836   2.066
25592SOL     OW78614  11.516  10.482   9.003
25592SOL    HW178615  11.519  10.422   9.077
25592SOL    HW278616  11.572  10.555   9.029
25593SOL     OW78617   7.112   8.233   6.829
25593SOL    HW178618   7.099   8.300   6.763
25593SOL    HW278619   7.130   8.153   6.780
25594SOL     OW78620  10.728  10.412   7.326
25594SOL    HW178621  10.747  10.382   7.415
25594SOL    HW278622  10.665  10.484   7.338
25595SOL     OW78623  11.489  11.723  12.749
25595SOL    HW178624  11.577  11.691  12.729
25595SOL    HW278625  11.445  11.649  12.790
25596SOL     OW78626  10.236   8.723   0.445
25596SOL    HW178627  10.201   8.635   0.457
25596SOL    HW278628  10.329   8.710   0.426
25597SOL     OW78629   9.992   0.046   0.257
25597SOL    HW178630  10.004   0.044   0.352
25597SOL    HW278631  10.063  14.871   0.223
25598SOL     OW78632   7.317   0.947   9.955
25598SOL    HW178633   7.245   0.907   9.907
25598SOL    HW278634   7.294   1.040   9.961
25599SOL     OW78635   1.875  10.399  11.750
25599SOL    HW178636   1.850  10.415  11.659
25599SOL    HW278637   1.970  10.391  11.748
25600SOL     OW78638  11.066  11.546   8.196
25600SOL    HW178639  11.009  11.470   8.187
25600SOL    HW278640  11.133  11.520   8.259
25601SOL     OW78641  13.955   7.261   6.434
25601SOL    HW178642  14.010   7.329   6.475
25601SOL    HW278643  13.897   7.232   6.504
25602SOL     OW78644  12.827  12.440   6.533
25602SOL    HW178645  12.818  12.527   6.493
25602SOL    HW278646  12.914  12.442   6.572
25603SOL     OW78647  12.967   4.797  12.545
25603SOL    HW178648  12.971   4.888  12.514
25603SOL    HW278649  12.975   4.803  12.640
25604SOL     OW78650  12.219  11.008  12.797
25604SOL    HW178651  12.164  10.970  12.866
25604SOL    HW278652  12.298  11.035  12.843
25605SOL     OW78653   4.599  10.121   4.117
25605SOL    HW178654   4.510  10.109   4.086
25605SOL    HW278655   4.592  10.124   4.212
25606SOL     OW78656   3.894   5.007   1.493
25606SOL    HW178657   3.912   5.024   1.401
25606SOL    HW278658   3.912   4.914   1.504
25607SOL     OW78659   7.293   7.053   3.525
25607SOL    HW178660   7.254   7.121   3.469
25607SOL    HW278661   7.218   7.005   3.559
25608SOL     OW78662   1.074  10.755  14.035
25608SOL    HW178663   1.079  10.849  14.052
25608SOL    HW278664   1.165  10.725  14.043
25609SOL     OW78665  10.119  14.844   9.006
25609SOL    HW178666  10.148  14.756   9.030
25609SOL    HW278667  10.154  14.857   8.918
25610SOL     OW78668  14.404   7.717   5.861
25610SOL    HW178669  14.375   7.739   5.772
25610SOL    HW278670  14.387   7.797   5.912
25611SOL     OW78671  14.479   5.823   4.981
25611SOL    HW178672  14.497   5.832   4.887
25611SOL    HW278673  14.559   5.785   5.017
25612SOL     OW78674   6.349   2.072  12.652
25612SOL    HW178675   6.397   2.045  12.730
25612SOL    HW278676   6.257   2.051  12.672
25613SOL     OW78677  14.157  11.758  12.194
25613SOL    HW178678  14.102  11.691  12.153
25613SOL    HW278679  14.189  11.718  12.275
25614SOL     OW78680   2.453   5.029   7.850
25614SOL    HW178681   2.406   5.040   7.767
25614SOL    HW278682   2.545   5.021   7.824
25615SOL     OW78683  13.552  13.987   0.215
25615SOL    HW178684  13.597  13.955   0.137
25615SOL    HW278685  13.610  13.966   0.288
25616SOL     OW78686  14.201   7.169   2.835
25616SOL    HW178687  14.273   7.230   2.819
25616SOL    HW278688  14.236   7.109   2.901
25617SOL     OW78689   9.722  12.042  13.403
25617SOL    HW178690   9.669  11.981  13.453
25617SOL    HW278691   9.681  12.045  13.317
25618SOL     OW78692   2.635  14.139  13.211
25618SOL    HW178693   2.601  14.146  13.300
25618SOL    HW278694   2.585  14.203  13.161
25619SOL     OW78695   5.256   2.638   6.953
25619SOL    HW178696   5.251   2.549   6.917
25619SOL    HW278697   5.170   2.653   6.992
25620SOL     OW78698   7.404   0.817   2.459
25620SOL    HW178699   7.466   0.800   2.388
25620SOL    HW278700   7.398   0.913   2.462
25621SOL     OW78701  10.665  10.582   5.684
25621SOL    HW178702  10.708  10.664   5.661
25621SOL    HW278703  10.591  10.576   5.624
25622SOL     OW78704  14.361  14.104  12.177
25622SOL    HW178705  14.318  14.187  12.198
25622SOL    HW278706  14.347  14.050  12.255
25623SOL     OW78707   3.633   8.981   3.205
25623SOL    HW178708   3.689   9.058   3.193
25623SOL    HW278709   3.669   8.937   3.282
25624SOL     OW78710  11.670  12.451  10.238
25624SOL    HW178711  11.706  12.538  10.255
25624SOL    HW278712  11.742  12.391  10.259
25625SOL     OW78713   8.712   3.123   7.957
25625SOL    HW178714   8.694   3.154   8.046
25625SOL    HW278715   8.625   3.102   7.921
25626SOL     OW78716   7.847   1.722   3.110
25626SOL    HW178717   7.826   1.657   3.042
25626SOL    HW278718   7.770   1.722   3.167
25627SOL     OW78719   1.337  11.704  11.991
25627SOL    HW178720   1.303  11.615  11.994
25627SOL    HW278721   1.427  11.694  11.960
25628SOL     OW78722  14.872   1.182  13.267
25628SOL    HW178723   0.072   1.185  13.320
25628SOL    HW278724  14.826   1.104  13.297
25629SOL     OW78725  13.282  14.137   2.991
25629SOL    HW178726  13.351  14.131   2.925
25629SOL    HW278727  13.226  14.209   2.961
25630SOL     OW78728   6.096   6.800   8.360
25630SOL    HW178729   6.154   6.730   8.332
25630SOL    HW278730   6.101   6.864   8.289
25631SOL     OW78731   0.673   4.233   1.981
25631SOL    HW178732   0.660   4.303   2.045
25631SOL    HW278733   0.692   4.155   2.033
25632SOL     OW78734   1.123  14.104  14.610
25632SOL    HW178735   1.168  14.083  14.691
25632SOL    HW278736   1.092  14.019  14.576
25633SOL     OW78737   3.315  11.754   9.046
25633SOL    HW178738   3.331  11.810   8.970
25633SOL    HW278739   3.257  11.685   9.014
25634SOL     OW78740   1.582  14.683   7.963
25634SOL    HW178741   1.618  14.726   8.041
25634SOL    HW278742   1.489  14.707   7.963
25635SOL     OW78743   1.311   0.363   0.637
25635SOL    HW178744   1.351   0.345   0.722
25635SOL    HW278745   1.310   0.279   0.592
25636SOL     OW78746   5.507  11.416   8.565
25636SOL    HW178747   5.459  11.381   8.640
25636SOL    HW278748   5.593  11.374   8.570
25637SOL     OW78749   1.184   3.077   6.957
25637SOL    HW178750   1.229   3.018   6.896
25637SOL    HW278751   1.162   3.153   6.904
25638SOL     OW78752  11.438   4.876  13.913
25638SOL    HW178753  11.409   4.801  13.965
25638SOL    HW278754  11.422   4.952  13.969
25639SOL     OW78755  12.066   6.604   6.508
25639SOL    HW178756  12.151   6.561   6.518
25639SOL    HW278757  12.027   6.600   6.595
25640SOL     OW78758  12.163  12.461   8.099
25640SOL    HW178759  12.198  12.501   8.179
25640SOL    HW278760  12.152  12.534   8.038
25641SOL     OW78761  10.635   2.225   8.706
25641SOL    HW178762  10.572   2.154   8.710
25641SOL    HW278763  10.716   2.184   8.676
25642SOL     OW78764  12.461  11.379   1.037
25642SOL    HW178765  12.407  11.320   0.984
25642SOL    HW278766  12.551  11.361   1.008
25643SOL     OW78767   3.154   5.683   3.266
25643SOL    HW178768   3.153   5.630   3.186
25643SOL    HW278769   3.063   5.686   3.295
25644SOL     OW78770  14.534   6.410   2.534
25644SOL    HW178771  14.578   6.359   2.466
25644SOL    HW278772  14.476   6.347   2.577
25645SOL     OW78773  11.102  12.928  11.617
25645SOL    HW178774  11.063  12.978  11.689
25645SOL    HW278775  11.036  12.930  11.548
25646SOL     OW78776  13.694   8.384   5.011
25646SOL    HW178777  13.758   8.404   5.080
25646SOL    HW278778  13.698   8.460   4.952
25647SOL     OW78779   1.476  11.550   8.166
25647SOL    HW178780   1.398  11.562   8.219
25647SOL    HW278781   1.472  11.459   8.137
25648SOL     OW78782   3.906  11.503  12.621
25648SOL    HW178783   3.923  11.424  12.673
25648SOL    HW278784   3.950  11.486  12.538
25649SOL     OW78785   3.331  11.043   2.427
25649SOL    HW178786   3.341  10.963   2.374
25649SOL    HW278787   3.300  11.011   2.511
25650SOL     OW78788  11.981   6.722   1.292
25650SOL    HW178789  12.017   6.644   1.335
25650SOL    HW278790  11.891   6.728   1.324
25651SOL     OW78791   1.386   8.892   3.474
25651SOL    HW178792   1.339   8.955   3.529
25651SOL    HW278793   1.450   8.945   3.426
25652SOL     OW78794   6.801   8.677   3.895
25652SOL    HW178795   6.792   8.601   3.838
25652SOL    HW278796   6.863   8.734   3.850
25653SOL     OW78797  12.129   8.546   3.160
25653SOL    HW178798  12.071   8.496   3.102
25653SOL    HW278799  12.159   8.620   3.106
25654SOL     OW78800   1.989   0.714   8.294
25654SOL    HW178801   2.051   0.722   8.222
25654SOL    HW278802   2.038   0.741   8.371
25655SOL     OW78803  11.511   7.026   9.338
25655SOL    HW178804  11.483   7.006   9.427
25655SOL    HW278805  11.431   7.056   9.294
25656SOL     OW78806  12.484   1.905   0.089
25656SOL    HW178807  12.559   1.858   0.128
25656SOL    HW278808  12.500   1.900  14.874
25657SOL     OW78809  14.264   5.247   3.163
25657SOL    HW178810  14.343   5.206   3.128
25657SOL    HW278811  14.239   5.191   3.237
25658SOL     OW78812  13.335   4.537  13.186
25658SOL    HW178813  13.346   4.495  13.271
25658SOL    HW278814  13.311   4.627  13.206
25659SOL     OW78815   5.014   0.589   1.280
25659SOL    HW178816   5.003   0.666   1.336
25659SOL    HW278817   5.073   0.617   1.211
25660SOL     OW78818   8.308   8.204  13.911
25660SOL    HW178819   8.228   8.252  13.929
25660SOL    HW278820   8.378   8.260  13.945
25661SOL     OW78821   9.749   9.754  13.108
25661SOL    HW178822   9.755   9.798  13.193
25661SOL    HW278823   9.661   9.774  13.077
25662SOL     OW78824  12.183   4.836   0.154
25662SOL    HW178825  12.183   4.742   0.137
25662SOL    HW278826  12.103   4.868   0.112
25663SOL     OW78827   3.817   2.272  11.020
25663SOL    HW178828   3.738   2.220  11.035
25663SOL    HW278829   3.881   2.210  10.985
25664SOL     OW78830  14.465  11.276   3.574
25664SOL    HW178831  14.552  11.238   3.565
25664SOL    HW278832  14.458  11.339   3.502
25665SOL     OW78833   5.622  13.272   5.165
25665SOL    HW178834   5.675  13.193   5.162
25665SOL    HW278835   5.621  13.304   5.075
25666SOL     OW78836   1.411  13.215  14.303
25666SOL    HW178837   1.344  13.212  14.235
25666SOL    HW278838   1.493  13.195  14.257
25667SOL     OW78839   4.536  11.928   4.522
25667SOL    HW178840   4.457  11.921   4.469
25667SOL    HW278841   4.577  11.841   4.515
25668SOL     OW78842  12.771   4.945   9.538
25668SOL    HW178843  12.821   5.003   9.482
25668SOL    HW278844  12.825   4.932   9.616
25669SOL     OW78845  11.819   8.936  14.490
25669SOL    HW178846  11.913   8.918  14.500
25669SOL    HW278847  11.785   8.860  14.443
25670SOL     OW78848   0.549   5.804  12.871
25670SOL    HW178849   0.490   5.754  12.927
25670SOL    HW278850   0.615   5.839  12.932
25671SOL     OW78851  11.140   2.483   0.955
25671SOL    HW178852  11.127   2.401   1.002
25671SOL    HW278853  11.157   2.457   0.865
25672SOL     OW78854   2.914  11.894  10.147
25672SOL    HW178855   2.955  11.973  10.113
25672SOL    HW278856   2.834  11.884  10.095
25673SOL     OW78857   8.942   3.281   0.439
25673SOL    HW178858   9.029   3.315   0.460
25673SOL    HW278859   8.883   3.354   0.456
25674SOL     OW78860   1.382   5.297   1.869
25674SOL    HW178861   1.312   5.266   1.925
25674SOL    HW278862   1.354   5.383   1.839
25675SOL     OW78863   9.822   4.864  13.159
25675SOL    HW178864   9.882   4.790  13.155
25675SOL    HW278865   9.762   4.850  13.085
25676SOL     OW78866   1.355  11.126   4.402
25676SOL    HW178867   1.405  11.049   4.375
25676SOL    HW278868   1.326  11.165   4.320
25677SOL     OW78869   1.392  12.366   0.878
25677SOL    HW178870   1.427  12.424   0.946
25677SOL    HW278871   1.315  12.325   0.919
25678SOL     OW78872  12.448  14.337   7.549
25678SOL    HW178873  12.500  14.397   7.495
25678SOL    HW278874  12.359  14.373   7.544
25679SOL     OW78875  14.057   8.833  13.411
25679SOL    HW178876  14.024   8.887  13.340
25679SOL    HW278877  13.979   8.811  13.463
25680SOL     OW78878  10.770   5.647  14.094
25680SOL    HW178879  10.698   5.597  14.054
25680SOL    HW278880  10.734   5.735  14.105
25681SOL     OW78881   7.976   6.383   6.701
25681SOL    HW178882   8.029   6.364   6.778
25681SOL    HW278883   7.888   6.352   6.722
25682SOL     OW78884   0.356   7.007   3.094
25682SOL    HW178885   0.287   7.043   3.039
25682SOL    HW278886   0.338   7.040   3.182
25683SOL     OW78887  13.006   8.978   5.336
25683SOL    HW178888  12.938   9.044   5.346
25683SOL    HW278889  13.085   9.020   5.370
25684SOL     OW78890   7.973  10.009   7.083
25684SOL    HW178891   7.966  10.102   7.062
25684SOL    HW278892   7.942  10.003   7.173
25685SOL     OW78893   0.033  12.325   0.436
25685SOL    HW178894   0.006  12.331   0.344
25685SOL    HW278895   0.052  12.416   0.461
25686SOL     OW78896   5.980  14.444   9.984
25686SOL    HW178897   6.046  14.474  10.046
25686SOL    HW278898   5.896  14.470  10.023
25687SOL     OW78899  12.557  11.447   7.540
25687SOL    HW178900  12.535  11.531   7.500
25687SOL    HW278901  12.510  11.448   7.624
25688SOL     OW78902   3.142   6.875  12.863
25688SOL    HW178903   3.079   6.933  12.820
25688SOL    HW278904   3.106   6.864  12.952
25689SOL     OW78905   2.606   8.811   4.825
25689SOL    HW178906   2.679   8.837   4.769
25689SOL    HW278907   2.645   8.751   4.888
25690SOL     OW78908   3.743   0.533   8.594
25690SOL    HW178909   3.791   0.500   8.518
25690SOL    HW278910   3.685   0.600   8.558
25691SOL     OW78911   9.806   5.017   0.655
25691SOL    HW178912   9.740   4.954   0.625
25691SOL    HW278913   9.889   4.971   0.645
25692SOL     OW78914   5.249   4.096  11.294
25692SOL    HW178915   5.250   4.143  11.377
25692SOL    HW278916   5.341   4.094  11.267
25693SOL     OW78917   4.515   8.663   1.770
25693SOL    HW178918   4.605   8.648   1.741
25693SOL    HW278919   4.509   8.617   1.854
25694SOL     OW78920   5.358  12.271   6.894
25694SOL    HW178921   5.391  12.185   6.866
25694SOL    HW278922   5.386  12.279   6.985
25695SOL     OW78923   4.785   0.057   8.192
25695SOL    HW178924   4.716   0.019   8.138
25695SOL    HW278925   4.866   0.016   8.159
25696SOL     OW78926   5.788  13.023  12.678
25696SOL    HW178927   5.880  13.046  12.674
25696SOL    HW278928   5.773  12.974  12.597
25697SOL     OW78929  12.205   6.914  13.600
25697SOL    HW178930  12.288   6.955  13.576
25697SOL    HW278931  12.202   6.834  13.548
25698SOL     OW78932   3.374   0.399   6.237
25698SOL    HW178933   3.344   0.369   6.152
25698SOL    HW278934   3.306   0.370   6.298
25699SOL     OW78935  10.948  10.594  11.687
25699SOL    HW178936  10.857  10.595  11.717
25699SOL    HW278937  10.984  10.513  11.724
25700SOL     OW78938   9.102   6.094   7.406
25700SOL    HW178939   9.045   6.082   7.482
25700SOL    HW278940   9.058   6.046   7.336
25701SOL     OW78941   2.112  10.010   6.642
25701SOL    HW178942   2.065  10.061   6.576
25701SOL    HW278943   2.204  10.021   6.619
25702SOL     OW78944   5.068   9.627   9.159
25702SOL    HW178945   5.001   9.691   9.183
25702SOL    HW278946   5.090   9.584   9.242
25703SOL     OW78947   2.925   4.053   7.269
25703SOL    HW178948   2.893   4.143   7.265
25703SOL    HW278949   2.851   4.000   7.237
25704SOL     OW78950  10.075   8.040  13.925
25704SOL    HW178951  10.149   8.074  13.873
25704SOL    HW278952  10.013   8.113  13.928
25705SOL     OW78953  13.138  10.869   2.729
25705SOL    HW178954  13.194  10.798   2.759
25705SOL    HW278955  13.145  10.936   2.797
25706SOL     OW78956  11.703   6.309   3.443
25706SOL    HW178957  11.701   6.287   3.350
25706SOL    HW278958  11.618   6.280   3.477
25707SOL     OW78959   2.684  10.216  10.615
25707SOL    HW178960   2.661  10.151  10.548
25707SOL    HW278961   2.632  10.293  10.593
25708SOL     OW78962   4.981  12.384  14.779
25708SOL    HW178963   4.954  12.312  14.836
25708SOL    HW278964   4.940  12.365  14.695
25709SOL     OW78965  14.397   2.316  11.042
25709SOL    HW178966  14.312   2.343  11.077
25709SOL    HW278967  14.461   2.367  11.091
25710SOL     OW78968  12.503   4.975   3.626
25710SOL    HW178969  12.567   4.979   3.697
25710SOL    HW278970  12.448   5.053   3.639
25711SOL     OW78971   7.199   1.575  11.186
25711SOL    HW178972   7.271   1.625  11.225
25711SOL    HW278973   7.130   1.577  11.252
25712SOL     OW78974  12.116  10.919   1.890
25712SOL    HW178975  12.063  10.865   1.949
25712SOL    HW278976  12.206  10.898   1.912
25713SOL     OW78977   7.765  14.742  13.565
25713SOL    HW178978   7.849  14.695  13.566
25713SOL    HW278979   7.705  14.685  13.612
25714SOL     OW78980   0.220   9.258   6.651
25714SOL    HW178981   0.149   9.198   6.670
25714SOL    HW278982   0.201   9.291   6.564
25715SOL     OW78983   1.026   2.416   2.198
25715SOL    HW178984   1.109   2.451   2.167
25715SOL    HW278985   0.980   2.492   2.234
25716SOL     OW78986  12.051   7.323   0.421
25716SOL    HW178987  12.041   7.236   0.459
25716SOL    HW278988  12.144   7.344   0.432
25717SOL     OW78989   4.401   7.083   4.130
25717SOL    HW178990   4.371   6.992   4.136
25717SOL    HW278991   4.337   7.133   4.181
25718SOL     OW78992   8.593   9.223   0.808
25718SOL    HW178993   8.580   9.188   0.720
25718SOL    HW278994   8.560   9.313   0.803
25719SOL     OW78995   6.144  11.923   3.839
25719SOL    HW178996   6.101  11.872   3.907
25719SOL    HW278997   6.084  11.995   3.821
25720SOL     OW78998  10.029   7.718  12.824
25720SOL    HW178999  10.034   7.813  12.831
25720SOL    HW279000   9.940   7.700  12.793
25721SOL     OW79001  10.075   6.436   9.717
25721SOL    HW179002  10.103   6.527   9.726
25721SOL    HW279003  10.069   6.422   9.623
25722SOL     OW79004   1.101  10.018   9.718
25722SOL    HW179005   1.151  10.026   9.799
25722SOL    HW279006   1.168  10.007   9.650
25723SOL     OW79007   3.428   8.495   1.582
25723SOL    HW179008   3.437   8.423   1.644
25723SOL    HW279009   3.334   8.514   1.579
25724SOL     OW79010   8.100   8.418   0.090
25724SOL    HW179011   8.185   8.426   0.133
25724SOL    HW279012   8.037   8.444   0.157
25725SOL     OW79013   1.313   2.248   7.434
25725SOL    HW179014   1.301   2.188   7.508
25725SOL    HW279015   1.402   2.229   7.403
25726SOL     OW79016   5.953  13.500   1.323
25726SOL    HW179017   5.976  13.493   1.415
25726SOL    HW279018   5.975  13.591   1.300
25727SOL     OW79019   0.840  14.417   1.893
25727SOL    HW179020   0.874  14.476   1.959
25727SOL    HW279021   0.747  14.411   1.911
25728SOL     OW79022   1.852   8.141  10.663
25728SOL    HW179023   1.769   8.128  10.711
25728SOL    HW279024   1.905   8.195  10.722
25729SOL     OW79025  11.937   1.234   5.433
25729SOL    HW179026  11.860   1.212   5.381
25729SOL    HW279027  12.005   1.255   5.368
25730SOL     OW79028   2.404  13.049   8.327
25730SOL    HW179029   2.398  12.993   8.405
25730SOL    HW279030   2.446  12.993   8.261
25731SOL     OW79031  14.811   8.230  12.022
25731SOL    HW179032  14.769   8.272  12.097
25731SOL    HW279033  14.738   8.193  11.971
25732SOL     OW79034   9.437  12.419   8.570
25732SOL    HW179035   9.408  12.481   8.637
25732SOL    HW279036   9.490  12.355   8.618
25733SOL     OW79037  12.439   6.450  10.413
25733SOL    HW179038  12.411   6.359  10.403
25733SOL    HW279039  12.376   6.488  10.475
25734SOL     OW79040   9.848   7.656  14.306
25734SOL    HW179041   9.765   7.645  14.260
25734SOL    HW279042   9.907   7.695  14.241
25735SOL     OW79043   3.811   1.942   9.313
25735SOL    HW179044   3.899   1.906   9.301
25735SOL    HW279045   3.761   1.909   9.238
25736SOL     OW79046   1.123   5.862   0.360
25736SOL    HW179047   1.041   5.830   0.399
25736SOL    HW279048   1.141   5.944   0.405
25737SOL     OW79049   0.347   3.129  10.199
25737SOL    HW179050   0.299   3.174  10.269
25737SOL    HW279051   0.354   3.039  10.229
25738SOL     OW79052   4.446   2.913   2.838
25738SOL    HW179053   4.415   2.993   2.882
25738SOL    HW279054   4.378   2.894   2.773
25739SOL     OW79055   6.179   4.124  13.171
25739SOL    HW179056   6.189   4.029  13.170
25739SOL    HW279057   6.087   4.139  13.152
25740SOL     OW79058   1.091  10.771   8.616
25740SOL    HW179059   1.094  10.778   8.711
25740SOL    HW279060   1.055  10.855   8.587
25741SOL     OW79061  13.761  14.784   3.473
25741SOL    HW179062  13.783  14.837   3.397
25741SOL    HW279063  13.700  14.718   3.438
25742SOL     OW79064  12.056  13.834   4.424
25742SOL    HW179065  11.987  13.838   4.490
25742SOL    HW279066  12.134  13.807   4.472
25743SOL     OW79067   9.612  13.945   5.009
25743SOL    HW179068   9.607  14.035   4.977
25743SOL    HW279069   9.524  13.910   4.995
25744SOL     OW79070  12.903  11.196   6.853
25744SOL    HW179071  12.914  11.280   6.897
25744SOL    HW279072  12.809  11.177   6.861
25745SOL     OW79073   8.636   2.713   6.929
25745SOL    HW179074   8.694   2.649   6.970
25745SOL    HW279075   8.622   2.680   6.841
25746SOL     OW79076  10.900  12.624  13.997
25746SOL    HW179077  10.819  12.589  13.960
25746SOL    HW279078  10.929  12.556  14.058
25747SOL     OW79079   6.466   6.752  12.004
25747SOL    HW179080   6.391   6.729  11.949
25747SOL    HW279081   6.542   6.729  11.951
25748SOL     OW79082   5.087   3.156   1.176
25748SOL    HW179083   5.167   3.206   1.189
25748SOL    HW279084   5.016   3.217   1.198
25749SOL     OW79085   7.915   7.219   5.488
25749SOL    HW179086   7.888   7.274   5.415
25749SOL    HW279087   7.997   7.179   5.459
25750SOL     OW79088  11.293   4.694  14.104
25750SOL    HW179089  11.266   4.759  14.168
25750SOL    HW279090  11.212   4.653  14.074
25751SOL     OW79091  12.836  11.594   9.964
25751SOL    HW179092  12.887  11.524   9.922
25751SOL    HW279093  12.797  11.641   9.891
25752SOL     OW79094   2.828   2.126  13.675
25752SOL    HW179095   2.812   2.218  13.657
25752SOL    HW279096   2.896   2.101  13.612
25753SOL     OW79097  11.278  13.721  11.041
25753SOL    HW179098  11.335  13.798  11.047
25753SOL    HW279099  11.304  13.680  10.958
25754SOL     OW79100  10.525   8.537   7.025
25754SOL    HW179101  10.485   8.477   6.963
25754SOL    HW279102  10.577   8.482   7.083
25755SOL     OW79103   6.087   2.085  12.858
25755SOL    HW179104   6.014   2.096  12.919
25755SOL    HW279105   6.121   2.174  12.846
25756SOL     OW79106   1.266   7.876  10.703
25756SOL    HW179107   1.302   7.789  10.686
25756SOL    HW279108   1.173   7.867  10.686
25757SOL     OW79109  11.444   9.602   9.878
25757SOL    HW179110  11.418   9.611   9.969
25757SOL    HW279111  11.457   9.508   9.866
25758SOL     OW79112  11.721   1.691   5.737
25758SOL    HW179113  11.795   1.669   5.681
25758SOL    HW279114  11.644   1.684   5.680
25759SOL     OW79115   9.146   1.856   1.774
25759SOL    HW179116   9.100   1.929   1.816
25759SOL    HW279117   9.183   1.806   1.846
25760SOL     OW79118   3.185   8.228   7.554
25760SOL    HW179119   3.245   8.225   7.480
25760SOL    HW279120   3.191   8.140   7.593
25761SOL     OW79121   4.131  12.771  10.159
25761SOL    HW179122   4.224  12.752  10.175
25761SOL    HW279123   4.084  12.699  10.200
25762SOL     OW79124   1.462   5.245   3.904
25762SOL    HW179125   1.469   5.151   3.889
25762SOL    HW279126   1.553   5.274   3.913
25763SOL     OW79127   1.940  13.781   5.123
25763SOL    HW179128   1.970  13.814   5.208
25763SOL    HW279129   1.847  13.764   5.135
25764SOL     OW79130   9.789  14.262   7.769
25764SOL    HW179131   9.744  14.286   7.687
25764SOL    HW279132   9.775  14.168   7.777
25765SOL     OW79133   7.858   8.812   3.575
25765SOL    HW179134   7.946   8.803   3.612
25765SOL    HW279135   7.825   8.723   3.568
25766SOL     OW79136   3.052   9.072   7.906
25766SOL    HW179137   2.988   9.014   7.865
25766SOL    HW279138   3.067   9.142   7.842
25767SOL     OW79139   3.399  14.460   0.204
25767SOL    HW179140   3.422  14.413   0.124
25767SOL    HW279141   3.391  14.392   0.271
25768SOL     OW79142   5.079  14.858   7.416
25768SOL    HW179143   5.046   0.039   7.483
25768SOL    HW279144   5.163  14.828   7.450
25769SOL     OW79145   4.711   0.523  11.934
25769SOL    HW179146   4.626   0.505  11.973
25769SOL    HW279147   4.770   0.533  12.009
25770SOL     OW79148  12.551  13.082   1.192
25770SOL    HW179149  12.603  13.002   1.200
25770SOL    HW279150  12.541  13.114   1.282
25771SOL     OW79151   0.670   2.539  12.916
25771SOL    HW179152   0.587   2.502  12.947
25771SOL    HW279153   0.686   2.494  12.833
25772SOL     OW79154   4.254   9.487  14.879
25772SOL    HW179155   4.261   9.421   0.069
25772SOL    HW279156   4.225   9.438  14.802
25773SOL     OW79157   7.006  14.164   3.329
25773SOL    HW179158   6.997  14.102   3.257
25773SOL    HW279159   6.995  14.110   3.408
25774SOL     OW79160   9.496   4.583  14.801
25774SOL    HW179161   9.502   4.623   0.009
25774SOL    HW279162   9.436   4.509  14.813
25775SOL     OW79163  10.270   3.420  10.182
25775SOL    HW179164  10.189   3.383  10.216
25775SOL    HW279165  10.258   3.422  10.087
25776SOL     OW79166   9.231   7.456   1.111
25776SOL    HW179167   9.257   7.458   1.019
25776SOL    HW279168   9.136   7.464   1.110
25777SOL     OW79169  12.738   0.665   5.691
25777SOL    HW179170  12.678   0.653   5.617
25777SOL    HW279171  12.766   0.577   5.713
25778SOL     OW79172   2.599   4.945   8.250
25778SOL    HW179173   2.504   4.946   8.248
25778SOL    HW279174   2.624   5.029   8.287
25779SOL     OW79175   9.043   5.114   2.140
25779SOL    HW179176   9.085   5.149   2.061
25779SOL    HW279177   9.115   5.102   2.202
25780SOL     OW79178  14.640  11.998   8.872
25780SOL    HW179179  14.616  12.088   8.851
25780SOL    HW279180  14.560  11.947   8.856
25781SOL     OW79181  11.808  14.187   1.083
25781SOL    HW179182  11.717  14.159   1.068
25781SOL    HW279183  11.858  14.105   1.084
25782SOL     OW79184   5.470   7.992  12.154
25782SOL    HW179185   5.463   8.060  12.087
25782SOL    HW279186   5.565   7.983  12.169
25783SOL     OW79187  13.724  12.600  11.754
25783SOL    HW179188  13.792  12.650  11.800
25783SOL    HW279189  13.678  12.553  11.823
25784SOL     OW79190   0.726   8.536   5.759
25784SOL    HW179191   0.713   8.446   5.729
25784SOL    HW279192   0.794   8.571   5.701
25785SOL     OW79193   7.045  13.917   5.897
25785SOL    HW179194   7.077  13.846   5.953
25785SOL    HW279195   7.125  13.956   5.860
25786SOL     OW79196  11.818  14.684   7.642
25786SOL    HW179197  11.789  14.660   7.731
25786SOL    HW279198  11.745  14.658   7.586
25787SOL     OW79199   2.587   3.000  14.318
25787SOL    HW179200   2.532   2.930  14.353
25787SOL    HW279201   2.532   3.079  14.325
25788SOL     OW79202   1.543  13.523   1.329
25788SOL    HW179203   1.599  13.468   1.275
25788SOL    HW279204   1.533  13.474   1.411
25789SOL     OW79205   2.823   7.987   7.978
25789SOL    HW179206   2.732   8.012   7.992
25789SOL    HW279207   2.842   8.012   7.888
25790SOL     OW79208  12.253   6.943   1.807
25790SOL    HW179209  12.186   6.875   1.808
25790SOL    HW279210  12.261   6.967   1.715
25791SOL     OW79211  12.046   9.545   5.711
25791SOL    HW179212  12.038   9.567   5.618
25791SOL    HW279213  12.123   9.489   5.716
25792SOL     OW79214  12.053   5.254   3.714
25792SOL    HW179215  11.979   5.265   3.654
25792SOL    HW279216  12.040   5.167   3.751
25793SOL     OW79217   6.801   9.281  14.109
25793SOL    HW179218   6.852   9.328  14.175
25793SOL    HW279219   6.714   9.322  14.112
25794SOL     OW79220   6.945   9.435  12.221
25794SOL    HW179221   6.985   9.522  12.223
25794SOL    HW279222   6.860   9.448  12.262
25795SOL     OW79223  13.377   2.044  14.549
25795SOL    HW179224  13.304   2.099  14.520
25795SOL    HW279225  13.455   2.087  14.515
25796SOL     OW79226   1.182   2.671   0.546
25796SOL    HW179227   1.231   2.701   0.623
25796SOL    HW279228   1.213   2.727   0.475
25797SOL     OW79229   0.274  12.191   7.604
25797SOL    HW179230   0.310  12.206   7.517
25797SOL    HW279231   0.308  12.106   7.630
25798SOL     OW79232   4.842   9.985  11.078
25798SOL    HW179233   4.756   9.991  11.036
25798SOL    HW279234   4.855  10.071  11.118
25799SOL     OW79235   5.192   9.277   5.939
25799SOL    HW179236   5.181   9.236   5.853
25799SOL    HW279237   5.280   9.314   5.937
25800SOL     OW79238   6.232   9.598   7.492
25800SOL    HW179239   6.180   9.677   7.505
25800SOL    HW279240   6.230   9.583   7.398
25801SOL     OW79241   9.577   7.933   6.242
25801SOL    HW179242   9.508   7.963   6.183
25801SOL    HW279243   9.658   7.950   6.195
25802SOL     OW79244  14.488   4.587  12.210
25802SOL    HW179245  14.582   4.597  12.191
25802SOL    HW279246  14.484   4.511  12.268
25803SOL     OW79247  10.793  14.335   7.392
25803SOL    HW179248  10.887  14.336   7.407
25803SOL    HW279249  10.755  14.333   7.480
25804SOL     OW79250  11.411  12.979  11.652
25804SOL    HW179251  11.323  12.941  11.641
25804SOL    HW279252  11.424  12.982  11.747
25805SOL     OW79253  11.752   1.095   0.742
25805SOL    HW179254  11.713   1.182   0.730
25805SOL    HW279255  11.715   1.063   0.824
25806SOL     OW79256   8.519   8.493   5.933
25806SOL    HW179257   8.592   8.438   5.963
25806SOL    HW279258   8.475   8.439   5.867
25807SOL     OW79259  13.414  11.394   7.915
25807SOL    HW179260  13.323  11.391   7.944
25807SOL    HW279261  13.448  11.307   7.937
25808SOL     OW79262   3.890   1.536   5.623
25808SOL    HW179263   3.856   1.621   5.595
25808SOL    HW279264   3.958   1.557   5.687
25809SOL     OW79265   7.854   7.367  10.984
25809SOL    HW179266   7.897   7.453  10.979
25809SOL    HW279267   7.854   7.336  10.894
25810SOL     OW79268  10.766   6.156  12.047
25810SOL    HW179269  10.691   6.141  12.104
25810SOL    HW279270  10.837   6.104  12.085
25811SOL     OW79271  12.588   7.572   8.124
25811SOL    HW179272  12.537   7.577   8.204
25811SOL    HW279273  12.585   7.480   8.098
25812SOL     OW79274  14.443  10.026   5.132
25812SOL    HW179275  14.438   9.936   5.161
25812SOL    HW279276  14.461  10.077   5.211
25813SOL     OW79277   5.340   1.288  10.721
25813SOL    HW179278   5.433   1.304  10.703
25813SOL    HW279279   5.332   1.192  10.717
25814SOL     OW79280  12.979   0.550  13.403
25814SOL    HW179281  12.952   0.544  13.311
25814SOL    HW279282  12.907   0.595  13.446
25815SOL     OW79283   0.144   1.813   1.309
25815SOL    HW179284   0.121   1.906   1.308
25815SOL    HW279285   0.231   1.809   1.269
25816SOL     OW79286   6.412   8.863  14.749
25816SOL    HW179287   6.333   8.816  14.777
25816SOL    HW279288   6.481   8.797  14.748
25817SOL     OW79289   9.257   4.476   5.801
25817SOL    HW179290   9.196   4.520   5.742
25817SOL    HW279291   9.311   4.547   5.837
25818SOL     OW79292  14.675   8.149   2.405
25818SOL    HW179293  14.684   8.197   2.323
25818SOL    HW279294  14.618   8.204   2.459
25819SOL     OW79295   1.024  12.052   4.003
25819SOL    HW179296   0.983  12.080   3.922
25819SOL    HW279297   0.954  12.055   4.068
25820SOL     OW79298   4.836  12.077   1.148
25820SOL    HW179299   4.806  12.161   1.112
25820SOL    HW279300   4.868  12.099   1.235
25821SOL     OW79301   6.930   3.441  11.177
25821SOL    HW179302   6.898   3.382  11.109
25821SOL    HW279303   6.948   3.383  11.252
25822SOL     OW79304   2.513  11.117   3.212
25822SOL    HW179305   2.565  11.197   3.224
25822SOL    HW279306   2.464  11.108   3.294
25823SOL     OW79307   4.074   9.763   8.331
25823SOL    HW179308   4.078   9.811   8.249
25823SOL    HW279309   4.131   9.687   8.317
25824SOL     OW79310   9.618  10.244   7.032
25824SOL    HW179311   9.600  10.252   6.938
25824SOL    HW279312   9.714  10.250   7.039
25825SOL     OW79313   5.068  11.285   7.175
25825SOL    HW179314   5.075  11.355   7.240
25825SOL    HW279315   5.088  11.205   7.223
25826SOL     OW79316  14.834   1.900  13.852
25826SOL    HW179317  14.773   1.896  13.779
25826SOL    HW279318  14.877   1.815  13.852
25827SOL     OW79319   2.379   1.035  11.241
25827SOL    HW179320   2.417   1.007  11.324
25827SOL    HW279321   2.450   1.080  11.196
25828SOL     OW79322   1.446   5.709   4.912
25828SOL    HW179323   1.365   5.718   4.963
25828SOL    HW279324   1.509   5.674   4.975
25829SOL     OW79325   1.286   6.380  11.755
25829SOL    HW179326   1.255   6.291  11.734
25829SOL    HW279327   1.331   6.370  11.839
25830SOL     OW79328   2.386   1.126   9.322
25830SOL    HW179329   2.388   1.030   9.325
25830SOL    HW279330   2.384   1.147   9.229
25831SOL     OW79331   5.458   3.476   3.245
25831SOL    HW179332   5.445   3.391   3.285
25831SOL    HW279333   5.478   3.535   3.318
25832SOL     OW79334   2.016   7.155   5.279
25832SOL    HW179335   1.955   7.093   5.237
25832SOL    HW279336   1.970   7.183   5.358
25833SOL     OW79337  10.337   5.336   7.962
25833SOL    HW179338  10.275   5.321   8.033
25833SOL    HW279339  10.398   5.401   7.996
25834SOL     OW79340   4.307  10.058   8.130
25834SOL    HW179341   4.274  10.079   8.218
25834SOL    HW279342   4.390  10.105   8.123
25835SOL     OW79343  13.421   2.808   9.214
25835SOL    HW179344  13.386   2.864   9.284
25835SOL    HW279345  13.344   2.780   9.164
25836SOL     OW79346  13.915   4.154  11.176
25836SOL    HW179347  13.928   4.249  11.186
25836SOL    HW279348  13.913   4.140  11.082
25837SOL     OW79349   7.495   8.611   0.048
25837SOL    HW179350   7.547   8.533   0.067
25837SOL    HW279351   7.443   8.587  14.850
25838SOL     OW79352   2.283  12.988   3.004
25838SOL    HW179353   2.340  12.925   3.048
25838SOL    HW279354   2.220  13.015   3.070
25839SOL     OW79355   1.788   1.408   1.268
25839SOL    HW179356   1.739   1.374   1.193
25839SOL    HW279357   1.858   1.461   1.230
25840SOL     OW79358  12.914  13.636  11.532
25840SOL    HW179359  12.872  13.626  11.447
25840SOL    HW279360  12.975  13.562  11.537
25841SOL     OW79361  10.335  10.299   4.163
25841SOL    HW179362  10.421  10.318   4.200
25841SOL    HW279363  10.275  10.355   4.212
25842SOL     OW79364   6.924   7.050   7.425
25842SOL    HW179365   6.864   7.074   7.355
25842SOL    HW279366   7.004   7.098   7.405
25843SOL     OW79367  10.869  10.257  14.868
25843SOL    HW179368  10.794  10.229  14.816
25843SOL    HW279369  10.880  10.188   0.054
25844SOL     OW79370   5.689  14.358  13.746
25844SOL    HW179371   5.694  14.383  13.654
25844SOL    HW279372   5.763  14.403  13.788
25845SOL     OW79373  11.284  11.973   1.046
25845SOL    HW179374  11.286  11.938   1.135
25845SOL    HW279375  11.361  12.030   1.041
25846SOL     OW79376   7.067   3.358  10.655
25846SOL    HW179377   7.087   3.416  10.582
25846SOL    HW279378   6.997   3.301  10.624
25847SOL     OW79379   2.726  10.730   3.718
25847SOL    HW179380   2.760  10.670   3.651
25847SOL    HW279381   2.791  10.800   3.721
25848SOL     OW79382  12.960  12.331   9.402
25848SOL    HW179383  12.935  12.241   9.382
25848SOL    HW279384  12.942  12.340   9.496
25849SOL     OW79385  12.795   8.584   2.274
25849SOL    HW179386  12.717   8.629   2.243
25849SOL    HW279387  12.848   8.569   2.196
25850SOL     OW79388   0.150   0.415   5.215
25850SOL    HW179389   0.206   0.433   5.290
25850SOL    HW279390   0.120   0.325   5.228
25851SOL     OW79391  10.158   4.848   5.715
25851SOL    HW179392  10.107   4.929   5.721
25851SOL    HW279393  10.133   4.799   5.793
25852SOL     OW79394   6.639  14.826   6.956
25852SOL    HW179395   6.714  14.780   6.993
25852SOL    HW279396   6.565  14.800   7.011
25853SOL     OW79397   1.573   6.418   4.825
25853SOL    HW179398   1.546   6.381   4.741
25853SOL    HW279399   1.528   6.502   4.830
25854SOL     OW79400  12.384  13.051  12.439
25854SOL    HW179401  12.347  13.050  12.350
25854SOL    HW279402  12.478  13.061  12.425
25855SOL     OW79403  14.506   9.080   7.205
25855SOL    HW179404  14.513   8.993   7.165
25855SOL    HW279405  14.417   9.108   7.185
25856SOL     OW79406   4.704   2.213   6.119
25856SOL    HW179407   4.634   2.274   6.092
25856SOL    HW279408   4.713   2.154   6.045
25857SOL     OW79409  10.696  11.859   5.417
25857SOL    HW179410  10.643  11.783   5.394
25857SOL    HW279411  10.777  11.822   5.452
25858SOL     OW79412   1.255   7.672   5.965
25858SOL    HW179413   1.347   7.652   5.984
25858SOL    HW279414   1.216   7.686   6.051
25859SOL     OW79415  10.842   6.876  10.327
25859SOL    HW179416  10.757   6.840  10.300
25859SOL    HW279417  10.906   6.821  10.282
25860SOL     OW79418   3.388  13.905   0.785
25860SOL    HW179419   3.478  13.900   0.752
25860SOL    HW279420   3.334  13.891   0.707
25861SOL     OW79421   7.308   2.417   9.857
25861SOL    HW179422   7.244   2.433   9.927
25861SOL    HW279423   7.318   2.503   9.815
25862SOL     OW79424   7.460   5.780   7.930
25862SOL    HW179425   7.429   5.692   7.953
25862SOL    HW279426   7.438   5.833   8.007
25863SOL     OW79427   9.619   2.223   6.083
25863SOL    HW179428   9.582   2.229   6.171
25863SOL    HW279429   9.713   2.210   6.098
25864SOL     OW79430   9.690   7.449  11.280
25864SOL    HW179431   9.745   7.415  11.209
25864SOL    HW279432   9.633   7.376  11.303
25865SOL     OW79433  11.687   4.951  13.402
25865SOL    HW179434  11.727   5.031  13.370
25865SOL    HW279435  11.600   4.978  13.432
25866SOL     OW79436  13.043   6.376   6.054
25866SOL    HW179437  13.024   6.445   5.992
25866SOL    HW279438  13.136   6.384   6.073
25867SOL     OW79439  10.798  10.633   5.232
25867SOL    HW179440  10.771  10.710   5.282
25867SOL    HW279441  10.756  10.560   5.276
25868SOL     OW79442   7.178   5.879   2.113
25868SOL    HW179443   7.089   5.882   2.148
25868SOL    HW279444   7.204   5.787   2.124
25869SOL     OW79445   3.935  13.663  13.854
25869SOL    HW179446   3.966  13.640  13.942
25869SOL    HW279447   3.843  13.683  13.865
25870SOL     OW79448  10.843   2.182  11.012
25870SOL    HW179449  10.778   2.112  11.003
25870SOL    HW279450  10.811   2.252  10.956
25871SOL     OW79451   4.908   2.730   5.593
25871SOL    HW179452   4.948   2.665   5.651
25871SOL    HW279453   4.910   2.689   5.507
25872SOL     OW79454   5.068   1.306   5.988
25872SOL    HW179455   5.086   1.254   5.909
25872SOL    HW279456   4.973   1.314   5.990
25873SOL     OW79457   1.661   0.401  11.946
25873SOL    HW179458   1.566   0.400  11.931
25873SOL    HW279459   1.697   0.357  11.870
25874SOL     OW79460   6.244  12.007   4.220
25874SOL    HW179461   6.190  12.077   4.184
25874SOL    HW279462   6.333  12.043   4.220
25875SOL     OW79463  13.331  14.580   1.200
25875SOL    HW179464  13.341  14.485   1.203
25875SOL    HW279465  13.320  14.599   1.107
25876SOL     OW79466  14.322   3.795   5.957
25876SOL    HW179467  14.249   3.805   6.019
25876SOL    HW279468  14.280   3.795   5.871
25877SOL     OW79469   8.539  13.155   7.824
25877SOL    HW179470   8.491  13.156   7.908
25877SOL    HW279471   8.474  13.183   7.760
25878SOL     OW79472   0.589   1.886  10.327
25878SOL    HW179473   0.605   1.814  10.265
25878SOL    HW279474   0.637   1.960  10.289
25879SOL     OW79475   6.239   8.210  12.149
25879SOL    HW179476   6.270   8.259  12.225
25879SOL    HW279477   6.176   8.148  12.185
25880SOL     OW79478   9.262  14.535   8.632
25880SOL    HW179479   9.292  14.456   8.676
25880SOL    HW279480   9.297  14.607   8.686
25881SOL     OW79481  14.776  12.866   1.456
25881SOL    HW179482  14.718  12.875   1.380
25881SOL    HW279483  14.724  12.899   1.530
25882SOL     OW79484  11.108   5.834   6.964
25882SOL    HW179485  11.109   5.753   6.913
25882SOL    HW279486  11.061   5.897   6.909
25883SOL     OW79487   1.882   8.294   0.876
25883SOL    HW179488   1.967   8.322   0.840
25883SOL    HW279489   1.817   8.342   0.825
25884SOL     OW79490  13.168  11.849  14.811
25884SOL    HW179491  13.130  11.764  14.788
25884SOL    HW279492  13.250  11.852  14.762
25885SOL     OW79493   8.686   8.291   6.153
25885SOL    HW179494   8.751   8.223   6.171
25885SOL    HW279495   8.724   8.371   6.190
25886SOL     OW79496  12.824  11.123  11.577
25886SOL    HW179497  12.829  11.064  11.502
25886SOL    HW279498  12.814  11.065  11.652
25887SOL     OW79499  12.890   1.096   5.187
25887SOL    HW179500  12.826   1.134   5.126
25887SOL    HW279501  12.841   1.028   5.233
25888SOL     OW79502   7.329   9.825   0.922
25888SOL    HW179503   7.366   9.902   0.879
25888SOL    HW279504   7.323   9.849   1.014
25889SOL     OW79505   1.167   4.831   3.780
25889SOL    HW179506   1.079   4.860   3.804
25889SOL    HW279507   1.218   4.911   3.772
25890SOL     OW79508  10.861  14.421   0.623
25890SOL    HW179509  10.934  14.419   0.561
25890SOL    HW279510  10.874  14.343   0.678
25891SOL     OW79511   4.265   2.883   5.100
25891SOL    HW179512   4.329   2.897   5.170
25891SOL    HW279513   4.268   2.963   5.049
25892SOL     OW79514   4.453   5.028  13.100
25892SOL    HW179515   4.382   5.027  13.037
25892SOL    HW279516   4.522   5.081  13.059
25893SOL     OW79517   3.658  14.542   4.052
25893SOL    HW179518   3.649  14.512   4.143
25893SOL    HW279519   3.749  14.572   4.046
25894SOL     OW79520   7.898  10.596   4.579
25894SOL    HW179521   7.849  10.527   4.623
25894SOL    HW279522   7.862  10.599   4.490
25895SOL     OW79523   9.836   3.757   7.702
25895SOL    HW179524   9.931   3.761   7.694
25895SOL    HW279525   9.818   3.786   7.791
25896SOL     OW79526   9.375  14.641   0.547
25896SOL    HW179527   9.316  14.663   0.619
25896SOL    HW279528   9.355  14.705   0.479
25897SOL     OW79529   3.636   7.161   4.865
25897SOL    HW179530   3.559   7.210   4.894
25897SOL    HW279531   3.602   7.079   4.831
25898SOL     OW79532   5.589   4.404  11.154
25898SOL    HW179533   5.542   4.396  11.071
25898SOL    HW279534   5.650   4.329  11.153
25899SOL     OW79535  12.587   1.786  12.803
25899SOL    HW179536  12.675   1.750  12.813
25899SOL    HW279537  12.594   1.848  12.731
25900SOL     OW79538   9.222   1.292  11.649
25900SOL    HW179539   9.228   1.225  11.581
25900SOL    HW279540   9.128   1.309  11.658
25901SOL     OW79541   9.163  12.244   0.889
25901SOL    HW179542   9.258  12.257   0.880
25901SOL    HW279543   9.125  12.328   0.861
25902SOL     OW79544   4.142   7.093   5.940
25902SOL    HW179545   4.163   7.018   5.995
25902SOL    HW279546   4.222   7.146   5.941
25903SOL     OW79547   4.226  10.722   8.897
25903SOL    HW179548   4.229  10.796   8.837
25903SOL    HW279549   4.261  10.756   8.979
25904SOL     OW79550   4.635   0.946   4.599
25904SOL    HW179551   4.559   0.948   4.541
25904SOL    HW279552   4.696   0.886   4.556
25905SOL     OW79553   5.509   2.390  14.665
25905SOL    HW179554   5.568   2.447  14.714
25905SOL    HW279555   5.422   2.415  14.694
25906SOL     OW79556   5.295   8.494   0.713
25906SOL    HW179557   5.324   8.583   0.693
25906SOL    HW279558   5.363   8.459   0.770
25907SOL     OW79559   0.896  13.533   8.309
25907SOL    HW179560   0.908  13.513   8.216
25907SOL    HW279561   0.865  13.451   8.347
25908SOL     OW79562  12.217   0.442   9.815
25908SOL    HW179563  12.260   0.522   9.787
25908SOL    HW279564  12.126   0.451   9.786
25909SOL     OW79565   2.841   4.307   1.451
25909SOL    HW179566   2.886   4.348   1.525
25909SOL    HW279567   2.751   4.294   1.483
25910SOL     OW79568   3.984  14.807   4.234
25910SOL    HW179569   3.958   0.003   4.286
25910SOL    HW279570   4.048  14.841   4.172
25911SOL     OW79571   3.619   6.366   3.232
25911SOL    HW179572   3.607   6.273   3.211
25911SOL    HW279573   3.544   6.387   3.288
25912SOL     OW79574   8.152  14.498   1.512
25912SOL    HW179575   8.167  14.587   1.480
25912SOL    HW279576   8.080  14.508   1.574
25913SOL     OW79577   5.852   9.694  13.413
25913SOL    HW179578   5.835   9.629  13.481
25913SOL    HW279579   5.866   9.775  13.461
25914SOL     OW79580  10.462   0.284   5.441
25914SOL    HW179581  10.504   0.363   5.405
25914SOL    HW279582  10.369   0.298   5.425
25915SOL     OW79583   1.540   6.731   0.945
25915SOL    HW179584   1.532   6.764   0.855
25915SOL    HW279585   1.631   6.705   0.952
25916SOL     OW79586   4.488   0.891   6.198
25916SOL    HW179587   4.468   0.830   6.269
25916SOL    HW279588   4.583   0.895   6.196
25917SOL     OW79589   7.723  11.475  10.977
25917SOL    HW179590   7.673  11.515  10.906
25917SOL    HW279591   7.667  11.483  11.054
25918SOL     OW79592  14.332   8.733  10.782
25918SOL    HW179593  14.331   8.641  10.754
25918SOL    HW279594  14.354   8.730  10.875
25919SOL     OW79595  13.271   9.026  10.788
25919SOL    HW179596  13.221   9.024  10.706
25919SOL    HW279597  13.349   8.975  10.770
25920SOL     OW79598   8.177  12.955   5.470
25920SOL    HW179599   8.181  13.030   5.530
25920SOL    HW279600   8.168  12.879   5.527
25921SOL     OW79601   5.155  12.214   6.673
25921SOL    HW179602   5.207  12.194   6.595
25921SOL    HW279603   5.200  12.289   6.713
25922SOL     OW79604   2.616  11.242   8.309
25922SOL    HW179605   2.668  11.297   8.369
25922SOL    HW279606   2.620  11.289   8.225
25923SOL     OW79607  13.662   0.364   1.928
25923SOL    HW179608  13.676   0.458   1.917
25923SOL    HW279609  13.667   0.329   1.839
25924SOL     OW79610  11.653   9.588  13.101
25924SOL    HW179611  11.613   9.639  13.172
25924SOL    HW279612  11.746   9.607  13.107
25925SOL     OW79613   1.532  13.185  13.188
25925SOL    HW179614   1.551  13.268  13.143
25925SOL    HW279615   1.581  13.119  13.139
25926SOL     OW79616  13.520   6.704   6.910
25926SOL    HW179617  13.518   6.785   6.860
25926SOL    HW279618  13.459   6.718   6.982
25927SOL     OW79619   7.171  11.575   8.255
25927SOL    HW179620   7.243  11.638   8.259
25927SOL    HW279621   7.201  11.507   8.195
25928SOL     OW79622   5.307   2.555   5.625
25928SOL    HW179623   5.359   2.552   5.546
25928SOL    HW279624   5.305   2.648   5.649
25929SOL     OW79625   2.624  12.421  11.960
25929SOL    HW179626   2.583  12.506  11.944
25929SOL    HW279627   2.630  12.380  11.873
25930SOL     OW79628   6.307   4.100   9.789
25930SOL    HW179629   6.395   4.135   9.803
25930SOL    HW279630   6.319   4.005   9.782
25931SOL     OW79631   2.836  13.942  13.702
25931SOL    HW179632   2.745  13.919  13.724
25931SOL    HW279633   2.860  14.009  13.766
25932SOL     OW79634   7.883   0.498   1.512
25932SOL    HW179635   7.916   0.561   1.447
25932SOL    HW279636   7.903   0.412   1.474
25933SOL     OW79637  11.244   1.426  10.285
25933SOL    HW179638  11.266   1.489  10.354
25933SOL    HW279639  11.224   1.480  10.208
25934SOL     OW79640  13.321   0.664   9.780
25934SOL    HW179641  13.371   0.725   9.726
25934SOL    HW279642  13.339   0.578   9.742
25935SOL     OW79643  10.208   8.061   2.261
25935SOL    HW179644  10.294   8.099   2.280
25935SOL    HW279645  10.150   8.137   2.252
25936SOL     OW79646   6.397   4.075   6.215
25936SOL    HW179647   6.480   4.054   6.259
25936SOL    HW279648   6.423   4.095   6.125
25937SOL     OW79649  10.779   2.446  12.952
25937SOL    HW179650  10.730   2.366  12.934
25937SOL    HW279651  10.715   2.507  12.988
25938SOL     OW79652   2.722  12.001   9.588
25938SOL    HW179653   2.679  11.972   9.669
25938SOL    HW279654   2.662  11.971   9.519
25939SOL     OW79655   4.660   9.959  12.047
25939SOL    HW179656   4.619   9.990  11.966
25939SOL    HW279657   4.670  10.037  12.100
25940SOL     OW79658   4.531  14.639   0.219
25940SOL    HW179659   4.459  14.680   0.172
25940SOL    HW279660   4.499  14.551   0.240
25941SOL     OW79661   6.672   5.127   7.001
25941SOL    HW179662   6.712   5.062   7.060
25941SOL    HW279663   6.746   5.179   6.970
25942SOL     OW79664   9.963  10.834  13.034
25942SOL    HW179665   9.896  10.869  13.092
25942SOL    HW279666  10.000  10.759  13.082
25943SOL     OW79667   7.693   5.020   3.635
25943SOL    HW179668   7.670   4.927   3.642
25943SOL    HW279669   7.738   5.027   3.551
25944SOL     OW79670   4.436  14.254   1.431
25944SOL    HW179671   4.373  14.274   1.362
25944SOL    HW279672   4.508  14.317   1.417
25945SOL     OW79673  12.342  10.139   1.384
25945SOL    HW179674  12.291  10.071   1.339
25945SOL    HW279675  12.295  10.154   1.466
25946SOL     OW79676   1.358  12.007   0.898
25946SOL    HW179677   1.415  11.945   0.853
25946SOL    HW279678   1.417  12.060   0.951
25947SOL     OW79679   4.361   1.513   9.953
25947SOL    HW179680   4.327   1.545   9.870
25947SOL    HW279681   4.446   1.555   9.962
25948SOL     OW79682  10.014  14.806   3.945
25948SOL    HW179683   9.935  14.810   3.892
25948SOL    HW279684  10.048  14.718   3.932
25949SOL     OW79685   7.498  14.029   3.423
25949SOL    HW179686   7.491  13.946   3.471
25949SOL    HW279687   7.587  14.058   3.439
25950SOL     OW79688   5.598   4.438  14.549
25950SOL    HW179689   5.688   4.465  14.570
25950SOL    HW279690   5.574   4.494  14.475
25951SOL     OW79691   2.622   8.223   5.339
25951SOL    HW179692   2.588   8.255   5.423
25951SOL    HW279693   2.545   8.221   5.282
25952SOL     OW79694   7.050   3.889   6.552
25952SOL    HW179695   7.136   3.870   6.591
25952SOL    HW279696   7.068   3.900   6.459
25953SOL     OW79697   5.168  14.453   2.039
25953SOL    HW179698   5.080  14.415   2.038
25953SOL    HW279699   5.206  14.429   1.955
25954SOL     OW79700   6.170  14.279   2.961
25954SOL    HW179701   6.147  14.367   2.993
25954SOL    HW279702   6.251  14.257   3.007
25955SOL     OW79703   3.435   4.556  14.212
25955SOL    HW179704   3.391   4.635  14.242
25955SOL    HW279705   3.474   4.581  14.128
25956SOL     OW79706   4.238   5.655   0.566
25956SOL    HW179707   4.164   5.630   0.510
25956SOL    HW279708   4.213   5.741   0.600
25957SOL     OW79709  10.441   5.957   1.886
25957SOL    HW179710  10.447   5.867   1.854
25957SOL    HW279711  10.425   5.949   1.980
25958SOL     OW79712   8.868   4.312   0.259
25958SOL    HW179713   8.957   4.344   0.273
25958SOL    HW279714   8.822   4.386   0.221
25959SOL     OW79715  11.148  13.818   4.250
25959SOL    HW179716  11.188  13.736   4.276
25959SOL    HW279717  11.169  13.879   4.321
25960SOL     OW79718   0.840  10.233   5.099
25960SOL    HW179719   0.862  10.191   5.182
25960SOL    HW279720   0.854  10.327   5.115
25961SOL     OW79721   1.743   5.626   6.160
25961SOL    HW179722   1.669   5.601   6.216
25961SOL    HW279723   1.807   5.663   6.221
25962SOL     OW79724   4.510   5.876  14.667
25962SOL    HW179725   4.565   5.906  14.740
25962SOL    HW279726   4.482   5.788  14.694
25963SOL     OW79727   6.969   6.791   0.849
25963SOL    HW179728   7.006   6.829   0.769
25963SOL    HW279729   7.040   6.795   0.913
25964SOL     OW79730   1.918   6.710   6.572
25964SOL    HW179731   1.837   6.751   6.542
25964SOL    HW279732   1.987   6.768   6.541
25965SOL     OW79733   3.294   0.897   8.236
25965SOL    HW179734   3.295   0.833   8.308
25965SOL    HW279735   3.356   0.965   8.263
25966SOL     OW79736   0.714   0.205   7.948
25966SOL    HW179737   0.671   0.281   7.988
25966SOL    HW279738   0.666   0.190   7.867
25967SOL     OW79739   7.953   2.953  11.528
25967SOL    HW179740   8.011   2.879  11.513
25967SOL    HW279741   7.897   2.926  11.601
25968SOL     OW79742  13.447   9.761   0.038
25968SOL    HW179743  13.425   9.806   0.119
25968SOL    HW279744  13.475   9.674   0.066
25969SOL     OW79745  12.714   1.088  12.047
25969SOL    HW179746  12.744   1.165  12.094
25969SOL    HW279747  12.708   1.116  11.955
25970SOL     OW79748   5.177   7.598  14.199
25970SOL    HW179749   5.245   7.533  14.212
25970SOL    HW279750   5.183   7.655  14.277
25971SOL     OW79751   0.188   5.735   1.863
25971SOL    HW179752   0.231   5.658   1.824
25971SOL    HW279753   0.111   5.749   1.808
25972SOL     OW79754   4.725  10.342  12.366
25972SOL    HW179755   4.656  10.408  12.362
25972SOL    HW279756   4.684  10.267  12.410
25973SOL     OW79757   4.438  11.605   2.388
25973SOL    HW179758   4.392  11.543   2.444
25973SOL    HW279759   4.527  11.570   2.381
25974SOL     OW79760   2.481  12.540   3.681
25974SOL    HW179761   2.426  12.559   3.605
25974SOL    HW279762   2.566  12.516   3.644
25975SOL     OW79763  11.201   7.441  11.136
25975SOL    HW179764  11.177   7.350  11.121
25975SOL    HW279765  11.183   7.455  11.229
25976SOL     OW79766  14.558   3.163  13.045
25976SOL    HW179767  14.650   3.156  13.019
25976SOL    HW279768  14.513   3.099  12.988
25977SOL     OW79769   6.059   1.433   5.578
25977SOL    HW179770   6.008   1.353   5.591
25977SOL    HW279771   6.022   1.472   5.499
25978SOL     OW79772  10.974   3.487   8.313
25978SOL    HW179773  10.990   3.499   8.220
25978SOL    HW279774  10.906   3.420   8.317
25979SOL     OW79775   3.513  12.611   7.631
25979SOL    HW179776   3.503  12.652   7.717
25979SOL    HW279777   3.519  12.685   7.570
25980SOL     OW79778   7.423   3.569   0.680
25980SOL    HW179779   7.342   3.520   0.694
25980SOL    HW279780   7.484   3.533   0.745
25981SOL     OW79781   1.448  13.743  14.633
25981SOL    HW179782   1.394  13.669  14.604
25981SOL    HW279783   1.385  13.804  14.671
25982SOL     OW79784   6.934   7.918   2.224
25982SOL    HW179785   6.953   7.864   2.301
25982SOL    HW279786   6.985   7.998   2.239
25983SOL     OW79787   4.128   0.255   9.654
25983SOL    HW179788   4.073   0.244   9.576
25983SOL    HW279789   4.151   0.348   9.654
25984SOL     OW79790   8.923   2.916   7.071
25984SOL    HW179791   8.943   2.828   7.103
25984SOL    HW279792   8.917   2.907   6.976
25985SOL     OW79793   9.438  11.703   7.307
25985SOL    HW179794   9.383  11.781   7.295
25985SOL    HW279795   9.485  11.693   7.225
25986SOL     OW79796   9.681   7.435   1.093
25986SOL    HW179797   9.654   7.344   1.105
25986SOL    HW279798   9.774   7.435   1.114
25987SOL     OW79799   6.741   9.813  12.480
25987SOL    HW179800   6.820   9.806  12.533
25987SOL    HW279801   6.773   9.826  12.391
25988SOL     OW79802  12.299   6.738   6.691
25988SOL    HW179803  12.256   6.785   6.763
25988SOL    HW279804  12.287   6.795   6.615
25989SOL     OW79805   2.720   9.203   6.377
25989SOL    HW179806   2.679   9.264   6.438
25989SOL    HW279807   2.813   9.205   6.400
25990SOL     OW79808  10.273  10.612  10.683
25990SOL    HW179809  10.185  10.597  10.719
25990SOL    HW279810  10.302  10.693  10.723
25991SOL     OW79811  11.058   1.870   4.304
25991SOL    HW179812  10.967   1.843   4.310
25991SOL    HW279813  11.102   1.821   4.373
25992SOL     OW79814   8.794   7.355   0.854
25992SOL    HW179815   8.863   7.297   0.820
25992SOL    HW279816   8.765   7.405   0.777
25993SOL     OW79817  10.475  14.820   3.057
25993SOL    HW179818  10.517  14.738   3.080
25993SOL    HW279819  10.486  14.875   3.135
25994SOL     OW79820   3.388   3.287  10.753
25994SOL    HW179821   3.426   3.279  10.840
25994SOL    HW279822   3.310   3.341  10.765
25995SOL     OW79823  12.167   4.151  11.823
25995SOL    HW179824  12.094   4.207  11.794
25995SOL    HW279825  12.244   4.188  11.780
25996SOL     OW79826   8.380   8.780   2.803
25996SOL    HW179827   8.441   8.843   2.765
25996SOL    HW279828   8.362   8.814   2.891
25997SOL     OW79829  12.439   3.237   1.204
25997SOL    HW179830  12.359   3.198   1.168
25997SOL    HW279831  12.510   3.191   1.159
25998SOL     OW79832   6.485  11.157   9.486
25998SOL    HW179833   6.501  11.068   9.452
25998SOL    HW279834   6.442  11.143   9.570
25999SOL     OW79835  10.003   0.055   5.698
25999SOL    HW179836  10.017   0.149   5.695
25999SOL    HW279837  10.086   0.019   5.732
26000SOL     OW79838   0.113   0.744   9.302
26000SOL    HW179839   0.083   0.828   9.335
26000SOL    HW279840   0.153   0.764   9.217
26001SOL     OW79841  10.123   0.357   1.828
26001SOL    HW179842  10.114   0.367   1.923
26001SOL    HW279843  10.070   0.428   1.791
26002SOL     OW79844   7.202  11.564  14.495
26002SOL    HW179845   7.213  11.570  14.590
26002SOL    HW279846   7.111  11.535  14.484
26003SOL     OW79847   2.730   9.924   5.478
26003SOL    HW179848   2.793   9.853   5.481
26003SOL    HW279849   2.646   9.882   5.460
26004SOL     OW79850   7.678   2.017   2.190
26004SOL    HW179851   7.627   2.082   2.140
26004SOL    HW279852   7.614   1.952   2.217
26005SOL     OW79853  11.581  12.759  14.167
26005SOL    HW179854  11.640  12.687  14.190
26005SOL    HW279855  11.640  12.831  14.143
26006SOL     OW79856  11.955   4.272   3.538
26006SOL    HW179857  12.051   4.279   3.541
26006SOL    HW279858  11.927   4.285   3.629
26007SOL     OW79859   7.610   7.194   3.337
26007SOL    HW179860   7.606   7.105   3.370
26007SOL    HW279861   7.692   7.198   3.287
26008SOL     OW79862   3.460  13.039  11.557
26008SOL    HW179863   3.494  12.952  11.533
26008SOL    HW279864   3.505  13.099  11.498
26009SOL     OW79865   9.267   9.720  13.734
26009SOL    HW179866   9.308   9.689  13.815
26009SOL    HW279867   9.177   9.742  13.759
26010SOL     OW79868  13.100  11.430   1.067
26010SOL    HW179869  13.062  11.382   1.141
26010SOL    HW279870  13.066  11.385   0.990
26011SOL     OW79871   1.083  14.637   3.052
26011SOL    HW179872   1.152  14.591   3.100
26011SOL    HW279873   1.005  14.584   3.066
26012SOL     OW79874   2.635   7.725   9.560
26012SOL    HW179875   2.562   7.735   9.621
26012SOL    HW279876   2.698   7.792   9.588
26013SOL     OW79877  14.116   0.170   4.325
26013SOL    HW179878  14.086   0.229   4.256
26013SOL    HW279879  14.043   0.110   4.340
26014SOL     OW79880  14.413   2.990  10.238
26014SOL    HW179881  14.499   3.010  10.275
26014SOL    HW279882  14.425   2.905  10.195
26015SOL     OW79883  11.247   8.840   8.369
26015SOL    HW179884  11.313   8.879   8.312
26015SOL    HW279885  11.164   8.875   8.338
26016SOL     OW79886   3.679  14.662   3.112
26016SOL    HW179887   3.617  14.731   3.088
26016SOL    HW279888   3.628  14.602   3.167
26017SOL     OW79889   4.045   2.917   3.910
26017SOL    HW179890   4.080   3.006   3.907
26017SOL    HW279891   3.952   2.928   3.886
26018SOL     OW79892  14.704   6.466  14.717
26018SOL    HW179893  14.787   6.497  14.681
26018SOL    HW279894  14.693   6.516  14.798
26019SOL     OW79895   7.184  14.352   5.804
26019SOL    HW179896   7.268  14.305   5.809
26019SOL    HW279897   7.201  14.424   5.743
26020SOL     OW79898   6.720   9.583  12.815
26020SOL    HW179899   6.798   9.619  12.774
26020SOL    HW279900   6.709   9.635  12.895
26021SOL     OW79901   6.907   4.065  11.340
26021SOL    HW179902   6.954   3.993  11.383
26021SOL    HW279903   6.916   4.138  11.400
26022SOL     OW79904   0.082   9.010  10.293
26022SOL    HW179905   0.027   9.027  10.217
26022SOL    HW279906   0.030   9.038  10.368
26023SOL     OW79907  13.167  14.278   0.890
26023SOL    HW179908  13.192  14.351   0.833
26023SOL    HW279909  13.092  14.311   0.940
26024SOL     OW79910   9.684   8.663   1.630
26024SOL    HW179911   9.748   8.705   1.573
26024SOL    HW279912   9.693   8.570   1.612
26025SOL     OW79913   4.149   0.305   7.577
26025SOL    HW179914   4.087   0.273   7.643
26025SOL    HW279915   4.188   0.226   7.540
26026SOL     OW79916  11.823   2.975  13.085
26026SOL    HW179917  11.807   3.042  13.153
26026SOL    HW279918  11.907   2.936  13.109
26027SOL     OW79919   3.155   8.531  12.419
26027SOL    HW179920   3.228   8.528  12.480
26027SOL    HW279921   3.122   8.442  12.415
26028SOL     OW79922   0.292   4.934   8.362
26028SOL    HW179923   0.268   5.023   8.388
26028SOL    HW279924   0.268   4.880   8.438
26029SOL     OW79925   4.051  11.076   3.997
26029SOL    HW179926   4.061  11.035   3.911
26029SOL    HW279927   4.109  11.027   4.054
26030SOL     OW79928   0.530   5.229  13.190
26030SOL    HW179929   0.588   5.195  13.257
26030SOL    HW279930   0.442   5.220  13.228
26031SOL     OW79931   9.368   7.202   4.176
26031SOL    HW179932   9.411   7.256   4.109
26031SOL    HW279933   9.319   7.265   4.229
26032SOL     OW79934   9.477   4.067  14.576
26032SOL    HW179935   9.416   4.011  14.529
26032SOL    HW279936   9.475   4.150  14.528
26033SOL     OW79937   2.889  11.659   8.809
26033SOL    HW179938   2.821  11.651   8.743
26033SOL    HW279939   2.948  11.585   8.793
26034SOL     OW79940   8.265  10.621  14.514
26034SOL    HW179941   8.223  10.664  14.588
26034SOL    HW279942   8.355  10.655  14.515
26035SOL     OW79943   2.017  10.915  12.890
26035SOL    HW179944   2.007  10.821  12.903
26035SOL    HW279945   2.111  10.930  12.892
26036SOL     OW79946   0.481   7.504   4.225
26036SOL    HW179947   0.428   7.429   4.252
26036SOL    HW279948   0.474   7.506   4.130
26037SOL     OW79949  10.001  10.428   6.621
26037SOL    HW179950  10.077  10.475   6.655
26037SOL    HW279951   9.987  10.467   6.534
26038SOL     OW79952  10.641  12.506  14.734
26038SOL    HW179953  10.554  12.492  14.771
26038SOL    HW279954  10.678  12.419  14.725
26039SOL     OW79955   3.847   0.855   4.188
26039SOL    HW179956   3.842   0.939   4.141
26039SOL    HW279957   3.940   0.835   4.191
26040SOL     OW79958   7.700   1.652   1.185
26040SOL    HW179959   7.671   1.743   1.191
26040SOL    HW279960   7.763   1.651   1.112
26041SOL     OW79961   2.098   7.907   8.882
26041SOL    HW179962   2.029   7.973   8.892
26041SOL    HW279963   2.074   7.860   8.802
26042SOL     OW79964  13.539  14.680  12.270
26042SOL    HW179965  13.518  14.709  12.182
26042SOL    HW279966  13.526  14.585  12.268
26043SOL     OW79967  13.760   6.943   9.294
26043SOL    HW179968  13.842   6.971   9.334
26043SOL    HW279969  13.778   6.940   9.200
26044SOL     OW79970  12.946   9.833   5.325
26044SOL    HW179971  12.989   9.760   5.281
26044SOL    HW279972  12.859   9.838   5.286
26045SOL     OW79973   0.722   5.258   7.667
26045SOL    HW179974   0.632   5.260   7.636
26045SOL    HW279975   0.748   5.350   7.670
26046SOL     OW79976   0.248   2.065  13.195
26046SOL    HW179977   0.199   1.985  13.215
26046SOL    HW279978   0.270   2.101  13.280
26047SOL     OW79979   9.571   0.906  11.899
26047SOL    HW179980   9.572   0.818  11.861
26047SOL    HW279981   9.585   0.891  11.993
26048SOL     OW79982   2.447   5.523  13.894
26048SOL    HW179983   2.489   5.481  13.969
26048SOL    HW279984   2.360   5.549  13.926
26049SOL     OW79985   5.243   2.067   5.402
26049SOL    HW179986   5.176   2.056   5.335
26049SOL    HW279987   5.196   2.098   5.479
26050SOL     OW79988   3.923  14.806   2.385
26050SOL    HW179989   3.891   0.017   2.387
26050SOL    HW279990   3.992  14.804   2.452
26051SOL     OW79991   7.338   5.152   4.914
26051SOL    HW179992   7.364   5.196   4.834
26051SOL    HW279993   7.248   5.124   4.898
26052SOL     OW79994   2.644   4.653  14.340
26052SOL    HW179995   2.555   4.687  14.340
26052SOL    HW279996   2.698   4.728  14.313
26053SOL     OW79997   4.775  10.368   5.586
26053SOL    HW179998   4.808  10.321   5.663
26053SOL    HW279999   4.736  10.448   5.621
26054SOL     OW80000  11.394   7.554  10.947
26054SOL    HW180001  11.321   7.615  10.941
26054SOL    HW280002  11.382   7.509  11.031
26055SOL     OW80003  12.963  12.419   0.781
26055SOL    HW180004  13.005  12.335   0.795
26055SOL    HW280005  12.906  12.431   0.858
26056SOL     OW80006   1.459   6.334   4.581
26056SOL    HW180007   1.444   6.271   4.511
26056SOL    HW280008   1.493   6.412   4.538
26057SOL     OW80009   1.572  12.971   2.181
26057SOL    HW180010   1.503  12.923   2.136
26057SOL    HW280011   1.588  12.921   2.261
26058SOL     OW80012   0.692  12.117   1.492
26058SOL    HW180013   0.597  12.115   1.503
26058SOL    HW280014   0.707  12.184   1.425
26059SOL     OW80015   0.120  12.705   1.383
26059SOL    HW180016   0.116  12.616   1.349
26059SOL    HW280017   0.033  12.741   1.368
26060SOL     OW80018  11.620   9.662  10.532
26060SOL    HW180019  11.691   9.712  10.573
26060SOL    HW280020  11.549   9.724  10.523
26061SOL     OW80021   8.893  14.012  14.030
26061SOL    HW180022   8.979  14.052  14.041
26061SOL    HW280023   8.896  13.973  13.942
26062SOL     OW80024   9.903   7.088  11.518
26062SOL    HW180025   9.935   7.015  11.465
26062SOL    HW280026   9.808   7.089  11.503
26063SOL     OW80027   1.225   7.363   7.609
26063SOL    HW180028   1.167   7.438   7.606
26063SOL    HW280029   1.222   7.334   7.701
26064SOL     OW80030   7.491   7.618   0.676
26064SOL    HW180031   7.488   7.677   0.601
26064SOL    HW280032   7.579   7.628   0.712
26065SOL     OW80033  10.314  12.191  10.724
26065SOL    HW180034  10.387  12.253  10.728
26065SOL    HW280035  10.332  12.129  10.795
26066SOL     OW80036  10.494   7.897  10.518
26066SOL    HW180037  10.408   7.862  10.538
26066SOL    HW280038  10.546   7.880  10.597
26067SOL     OW80039   5.515   9.050  11.559
26067SOL    HW180040   5.597   9.065  11.512
26067SOL    HW280041   5.539   8.995  11.633
26068SOL     OW80042   6.964  10.804   2.150
26068SOL    HW180043   7.041  10.850   2.115
26068SOL    HW280044   6.956  10.836   2.240
26069SOL     OW80045   2.117   5.696   9.417
26069SOL    HW180046   2.072   5.671   9.336
26069SOL    HW280047   2.049   5.735   9.471
26070SOL     OW80048  13.318  13.833   1.909
26070SOL    HW180049  13.339  13.740   1.918
26070SOL    HW280050  13.267  13.854   1.987
26071SOL     OW80051   1.900  14.652   2.876
26071SOL    HW180052   1.968  14.708   2.838
26071SOL    HW280053   1.827  14.659   2.814
26072SOL     OW80054  13.741   3.073   3.351
26072SOL    HW180055  13.675   3.077   3.282
26072SOL    HW280056  13.820   3.043   3.306
26073SOL     OW80057   3.819   4.660   8.367
26073SOL    HW180058   3.725   4.645   8.377
26073SOL    HW280059   3.827   4.755   8.357
26074SOL     OW80060   4.491  12.544   3.157
26074SOL    HW180061   4.438  12.619   3.183
26074SOL    HW280062   4.527  12.569   3.071
26075SOL     OW80063   5.885   3.206  10.842
26075SOL    HW180064   5.906   3.259  10.919
26075SOL    HW280065   5.822   3.259  10.794
26076SOL     OW80066  11.737   1.676  13.634
26076SOL    HW180067  11.646   1.700  13.647
26076SOL    HW280068  11.787   1.749  13.671
26077SOL     OW80069   3.919   7.262   8.843
26077SOL    HW180070   3.950   7.193   8.784
26077SOL    HW280071   3.825   7.249   8.848
26078SOL     OW80072   2.321   0.791  10.598
26078SOL    HW180073   2.249   0.822  10.544
26078SOL    HW280074   2.394   0.781  10.537
26079SOL     OW80075  11.984  13.830   3.152
26079SOL    HW180076  12.080  13.824   3.147
26079SOL    HW280077  11.959  13.882   3.076
26080SOL     OW80078  10.347   7.078   3.509
26080SOL    HW180079  10.329   7.128   3.429
26080SOL    HW280080  10.344   7.143   3.579
26081SOL     OW80081   4.008   7.555   7.088
26081SOL    HW180082   3.998   7.526   7.178
26081SOL    HW280083   4.060   7.486   7.046
26082SOL     OW80084  13.689   8.448  14.640
26082SOL    HW180085  13.628   8.381  14.672
26082SOL    HW280086  13.718   8.493  14.719
26083SOL     OW80087  11.105   8.409  13.243
26083SOL    HW180088  11.072   8.462  13.315
26083SOL    HW280089  11.067   8.322  13.258
26084SOL     OW80090   9.409  10.653   8.577
26084SOL    HW180091   9.325  10.687   8.607
26084SOL    HW280092   9.458  10.730   8.550
26085SOL     OW80093  14.825   6.370  13.422
26085SOL    HW180094  14.800   6.460  13.444
26085SOL    HW280095  14.819   6.366  13.327
26086SOL     OW80096   2.975   1.455   2.652
26086SOL    HW180097   2.973   1.398   2.575
26086SOL    HW280098   3.067   1.472   2.668
26087SOL     OW80099   5.105   0.799  11.193
26087SOL    HW180100   5.089   0.836  11.106
26087SOL    HW280101   5.147   0.715  11.175
26088SOL     OW80102  13.776   8.268  14.446
26088SOL    HW180103  13.807   8.321  14.373
26088SOL    HW280104  13.764   8.330  14.518
26089SOL     OW80105   5.033   8.938   2.508
26089SOL    HW180106   5.059   8.846   2.504
26089SOL    HW280107   5.113   8.986   2.489
26090SOL     OW80108   2.249  10.758  13.837
26090SOL    HW180109   2.330  10.807  13.822
26090SOL    HW280110   2.182  10.811  13.793
26091SOL     OW80111   8.854   7.708   2.331
26091SOL    HW180112   8.782   7.690   2.271
26091SOL    HW280113   8.815   7.705   2.418
26092SOL     OW80114   3.750  11.057  10.771
26092SOL    HW180115   3.844  11.051  10.755
26092SOL    HW280116   3.716  11.107  10.696
26093SOL     OW80117   6.197  14.357   6.087
26093SOL    HW180118   6.142  14.284   6.056
26093SOL    HW280119   6.155  14.385   6.169
26094SOL     OW80120   5.669   5.068  12.074
26094SOL    HW180121   5.656   5.148  12.125
26094SOL    HW280122   5.581   5.030  12.066
26095SOL     OW80123   9.413   0.874   7.806
26095SOL    HW180124   9.493   0.856   7.856
26095SOL    HW280125   9.362   0.931   7.863
26096SOL     OW80126   9.177  12.329  10.697
26096SOL    HW180127   9.139  12.296  10.778
26096SOL    HW280128   9.148  12.266  10.630
26097SOL     OW80129   2.148   0.956  14.254
26097SOL    HW180130   2.228   0.905  14.270
26097SOL    HW280131   2.151   0.977  14.161
26098SOL     OW80132  11.858  10.973  12.787
26098SOL    HW180133  11.856  10.880  12.765
26098SOL    HW280134  11.904  11.014  12.713
26099SOL     OW80135  10.302   1.990  14.117
26099SOL    HW180136  10.358   1.977  14.040
26099SOL    HW280137  10.315   2.081  14.141
26100SOL     OW80138   1.750   0.523   0.501
26100SOL    HW180139   1.811   0.552   0.569
26100SOL    HW280140   1.732   0.601   0.450
26101SOL     OW80141   5.297   4.499   5.564
26101SOL    HW180142   5.362   4.550   5.612
26101SOL    HW280143   5.318   4.408   5.585
26102SOL     OW80144   7.647  11.375  14.849
26102SOL    HW180145   7.588  11.394   0.042
26102SOL    HW280146   7.591  11.340  14.780
26103SOL     OW80147   2.600   8.436   0.766
26103SOL    HW180148   2.591   8.405   0.856
26103SOL    HW280149   2.672   8.499   0.770
26104SOL     OW80150   7.945   4.633   9.001
26104SOL    HW180151   7.890   4.602   8.930
26104SOL    HW280152   7.997   4.704   8.962
26105SOL     OW80153   2.741   2.931   6.924
26105SOL    HW180154   2.700   2.911   6.840
26105SOL    HW280155   2.669   2.962   6.979
26106SOL     OW80156   2.175  14.463   2.674
26106SOL    HW180157   2.183  14.367   2.669
26106SOL    HW280158   2.231  14.496   2.604
26107SOL     OW80159   2.384   0.752   0.178
26107SOL    HW180160   2.445   0.707   0.237
26107SOL    HW280161   2.434   0.828   0.146
26108SOL     OW80162  14.134   0.267   1.020
26108SOL    HW180163  14.191   0.288   1.094
26108SOL    HW280164  14.133   0.346   0.968
26109SOL     OW80165  10.373   0.272   0.883
26109SOL    HW180166  10.399   0.188   0.920
26109SOL    HW280167  10.370   0.331   0.958
26110SOL     OW80168   0.030   0.312   2.320
26110SOL    HW180169   0.010   0.237   2.264
26110SOL    HW280170  14.846   0.305   2.392
26111SOL     OW80171  13.454   7.783   9.251
26111SOL    HW180172  13.499   7.756   9.331
26111SOL    HW280173  13.403   7.707   9.226
26112SOL     OW80174   8.354   6.832  12.725
26112SOL    HW180175   8.389   6.756  12.771
26112SOL    HW280176   8.312   6.796  12.647
26113SOL     OW80177   4.690   1.007  14.147
26113SOL    HW180178   4.769   0.952  14.146
26113SOL    HW280179   4.654   1.000  14.059
26114SOL     OW80180   7.661   8.766   8.908
26114SOL    HW180181   7.729   8.788   8.844
26114SOL    HW280182   7.604   8.703   8.863
26115SOL     OW80183   4.011  10.964  11.122
26115SOL    HW180184   4.075  10.969  11.193
26115SOL    HW280185   4.033  10.883  11.075
26116SOL     OW80186  14.259   0.462   4.084
26116SOL    HW180187  14.278   0.474   4.177
26116SOL    HW280188  14.180   0.408   4.082
26117SOL     OW80189   3.865   1.574   8.053
26117SOL    HW180190   3.946   1.601   8.011
26117SOL    HW280191   3.796   1.603   7.993
26118SOL     OW80192   7.624  12.970   1.411
26118SOL    HW180193   7.573  12.984   1.331
26118SOL    HW280194   7.712  13.000   1.388
26119SOL     OW80195  12.151   7.796   3.187
26119SOL    HW180196  12.098   7.788   3.267
26119SOL    HW280197  12.168   7.890   3.179
26120SOL     OW80198   6.228  14.789  14.118
26120SOL    HW180199   6.152  14.835  14.154
26120SOL    HW280200   6.282  14.768  14.194
26121SOL     OW80201   5.099   9.365   7.660
26121SOL    HW180202   5.155   9.408   7.595
26121SOL    HW280203   5.014   9.407   7.650
26122SOL     OW80204   6.950   0.616  10.543
26122SOL    HW180205   6.974   0.541  10.598
26122SOL    HW280206   6.987   0.596  10.457
26123SOL     OW80207   6.547   8.346   9.483
26123SOL    HW180208   6.489   8.359   9.408
26123SOL    HW280209   6.596   8.428   9.491
26124SOL     OW80210  12.745   6.246   9.093
26124SOL    HW180211  12.828   6.226   9.136
26124SOL    HW280212  12.683   6.258   9.165
26125SOL     OW80213   3.562  10.995   1.474
26125SOL    HW180214   3.502  11.064   1.446
26125SOL    HW280215   3.614  10.974   1.397
26126SOL     OW80216   9.057  11.839  11.723
26126SOL    HW180217   9.021  11.847  11.811
26126SOL    HW280218   8.983  11.808  11.670
26127SOL     OW80219   7.925   5.910   2.870
26127SOL    HW180220   8.013   5.890   2.837
26127SOL    HW280221   7.920   6.005   2.868
26128SOL     OW80222   6.396   0.418   8.791
26128SOL    HW180223   6.395   0.436   8.697
26128SOL    HW280224   6.307   0.391   8.812
26129SOL     OW80225   0.007   3.761   8.637
26129SOL    HW180226   0.041   3.686   8.686
26129SOL    HW280227   0.072   3.777   8.569
26130SOL     OW80228   9.463   9.365  14.076
26130SOL    HW180229   9.555   9.384  14.055
26130SOL    HW280230   9.463   9.349  14.171
26131SOL     OW80231  12.550   6.522   6.446
26131SOL    HW180232  12.643   6.509   6.464
26131SOL    HW280233  12.539   6.617   6.443
26132SOL     OW80234   4.366   0.455   9.977
26132SOL    HW180235   4.276   0.486   9.973
26132SOL    HW280236   4.384   0.444  10.070
26133SOL     OW80237  14.280   2.626  11.053
26133SOL    HW180238  14.349   2.692  11.056
26133SOL    HW280239  14.249   2.620  11.143
26134SOL     OW80240   9.377  10.882   1.788
26134SOL    HW180241   9.405  10.889   1.880
26134SOL    HW280242   9.282  10.867   1.793
26135SOL     OW80243   4.992  10.882   7.403
26135SOL    HW180244   5.061  10.947   7.391
26135SOL    HW280245   4.938  10.917   7.473
26136SOL     OW80246   7.807   5.062   3.396
26136SOL    HW180247   7.871   5.000   3.362
26136SOL    HW280248   7.797   5.129   3.328
26137SOL     OW80249   3.234  11.967   8.468
26137SOL    HW180250   3.297  12.024   8.512
26137SOL    HW280251   3.208  11.904   8.535
26138SOL     OW80252  11.760  13.116   1.006
26138SOL    HW180253  11.716  13.177   0.948
26138SOL    HW280254  11.843  13.158   1.027
26139SOL     OW80255   5.301   6.310  13.212
26139SOL    HW180256   5.237   6.293  13.281
26139SOL    HW280257   5.272   6.257  13.138
26140SOL     OW80258   4.026   5.249   6.517
26140SOL    HW180259   4.053   5.207   6.598
26140SOL    HW280260   4.052   5.340   6.527
26141SOL     OW80261   3.646   6.806   5.950
26141SOL    HW180262   3.609   6.838   5.868
26141SOL    HW280263   3.570   6.793   6.007
26142SOL     OW80264   6.328  14.329   5.035
26142SOL    HW180265   6.295  14.296   4.951
26142SOL    HW280266   6.327  14.252   5.093
26143SOL     OW80267  13.916   3.839   3.813
26143SOL    HW180268  13.915   3.880   3.900
26143SOL    HW280269  13.985   3.773   3.819
26144SOL     OW80270  11.267   1.459   0.323
26144SOL    HW180271  11.324   1.534   0.305
26144SOL    HW280272  11.229   1.437   0.238
26145SOL     OW80273   7.732   4.421   4.115
26145SOL    HW180274   7.807   4.364   4.099
26145SOL    HW280275   7.662   4.362   4.142
26146SOL     OW80276   5.822  14.307   2.951
26146SOL    HW180277   5.913  14.309   2.981
26146SOL    HW280278   5.821  14.366   2.876
26147SOL     OW80279  12.994  11.277   8.729
26147SOL    HW180280  12.940  11.261   8.806
26147SOL    HW280281  12.942  11.338   8.676
26148SOL     OW80282   5.168   1.235   4.676
26148SOL    HW180283   5.184   1.288   4.754
26148SOL    HW280284   5.236   1.260   4.614
26149SOL     OW80285   1.228  13.098   9.108
26149SOL    HW180286   1.302  13.156   9.128
26149SOL    HW280287   1.248  13.062   9.022
26150SOL     OW80288   6.875   3.319   9.933
26150SOL    HW180289   6.921   3.311   9.850
26150SOL    HW280290   6.917   3.393   9.978
26151SOL     OW80291   7.629   1.319  12.779
26151SOL    HW180292   7.586   1.401  12.804
26151SOL    HW280293   7.564   1.273  12.726
26152SOL     OW80294   2.509   4.750   5.992
26152SOL    HW180295   2.473   4.838   5.979
26152SOL    HW280296   2.596   4.765   6.030
26153SOL     OW80297   4.676   6.275  12.693
26153SOL    HW180298   4.680   6.288  12.598
26153SOL    HW280299   4.656   6.182  12.704
26154SOL     OW80300   2.016   3.811  12.313
26154SOL    HW180301   1.984   3.895  12.280
26154SOL    HW280302   2.110   3.814  12.299
26155SOL     OW80303  11.941   7.196   2.163
26155SOL    HW180304  11.855   7.235   2.177
26155SOL    HW280305  11.966   7.225   2.075
26156SOL     OW80306  11.873  11.581  10.707
26156SOL    HW180307  11.795  11.596  10.759
26156SOL    HW280308  11.937  11.547  10.770
26157SOL     OW80309  13.142   0.871   5.421
26157SOL    HW180310  13.094   0.948   5.451
26157SOL    HW280311  13.234   0.889   5.441
26158SOL     OW80312  11.388   8.736   9.865
26158SOL    HW180313  11.455   8.783   9.816
26158SOL    HW280314  11.319   8.801   9.880
26159SOL     OW80315  12.921   1.092   2.326
26159SOL    HW180316  12.997   1.037   2.341
26159SOL    HW280317  12.846   1.033   2.336
26160SOL     OW80318   3.677   1.995  11.727
26160SOL    HW180319   3.748   1.932  11.737
26160SOL    HW280320   3.677   2.045  11.809
26161SOL     OW80321  10.504   8.311  10.135
26161SOL    HW180322  10.545   8.227  10.112
26161SOL    HW280323  10.446   8.329  10.061
26162SOL     OW80324  13.670   4.539   0.205
26162SOL    HW180325  13.751   4.527   0.254
26162SOL    HW280326  13.628   4.453   0.207
26163SOL     OW80327   6.695   1.567  14.780
26163SOL    HW180328   6.657   1.480  14.766
26163SOL    HW280329   6.750   1.557  14.857
26164SOL     OW80330   7.604   9.537   5.561
26164SOL    HW180331   7.508   9.534   5.561
26164SOL    HW280332   7.627   9.541   5.468
26165SOL     OW80333  12.749   0.738  13.449
26165SOL    HW180334  12.718   0.710  13.362
26165SOL    HW280335  12.742   0.659  13.502
26166SOL     OW80336   8.550  10.355  14.694
26166SOL    HW180337   8.507  10.415  14.755
26166SOL    HW280338   8.544  10.269  14.736
26167SOL     OW80339  10.383   9.747  12.653
26167SOL    HW180340  10.406   9.807  12.582
26167SOL    HW280341  10.414   9.662  12.624
26168SOL     OW80342   0.834   3.263   9.325
26168SOL    HW180343   0.831   3.205   9.249
26168SOL    HW280344   0.926   3.286   9.334
26169SOL     OW80345  11.913   4.234   2.874
26169SOL    HW180346  11.942   4.272   2.957
26169SOL    HW280347  11.953   4.147   2.872
26170SOL     OW80348  12.011   2.899   1.794
26170SOL    HW180349  11.966   2.982   1.811
26170SOL    HW280350  12.089   2.902   1.849
26171SOL     OW80351  14.639   6.318  14.381
26171SOL    HW180352  14.615   6.383  14.448
26171SOL    HW280353  14.694   6.367  14.319
26172SOL     OW80354   5.366  13.793   7.120
26172SOL    HW180355   5.300  13.840   7.069
26172SOL    HW280356   5.442  13.787   7.062
26173SOL     OW80357  14.669  13.857   0.181
26173SOL    HW180358  14.678  13.787   0.116
26173SOL    HW280359  14.690  13.816   0.264
26174SOL     OW80360   4.490  14.323   9.871
26174SOL    HW180361   4.521  14.409   9.900
26174SOL    HW280362   4.509  14.321   9.777
26175SOL     OW80363   8.446   8.583   3.456
26175SOL    HW180364   8.467   8.516   3.522
26175SOL    HW280365   8.424   8.661   3.508
26176SOL     OW80366   2.702   7.905   3.323
26176SOL    HW180367   2.649   7.837   3.364
26176SOL    HW280368   2.641   7.977   3.306
26177SOL     OW80369  13.232   4.569   7.736
26177SOL    HW180370  13.260   4.523   7.657
26177SOL    HW280371  13.310   4.570   7.792
26178SOL     OW80372   9.385   6.908   1.559
26178SOL    HW180373   9.332   6.892   1.637
26178SOL    HW280374   9.471   6.932   1.594
26179SOL     OW80375   1.344   3.793   2.065
26179SOL    HW180376   1.330   3.758   2.152
26179SOL    HW280377   1.375   3.882   2.080
26180SOL     OW80378   7.880  13.047   9.109
26180SOL    HW180379   7.866  13.108   9.037
26180SOL    HW280380   7.939  13.093   9.169
26181SOL     OW80381   0.729   7.957  13.621
26181SOL    HW180382   0.705   7.871  13.658
26181SOL    HW280383   0.651   7.985  13.573
26182SOL     OW80384   5.461   1.570   3.772
26182SOL    HW180385   5.427   1.560   3.860
26182SOL    HW280386   5.508   1.653   3.773
26183SOL     OW80387   9.186  10.090  12.790
26183SOL    HW180388   9.146  10.108  12.704
26183SOL    HW280389   9.229  10.005  12.779
26184SOL     OW80390   3.978   7.120   2.516
26184SOL    HW180391   3.916   7.191   2.496
26184SOL    HW280392   3.944   7.046   2.465
26185SOL     OW80393   9.010   2.318   1.210
26185SOL    HW180394   9.025   2.329   1.304
26185SOL    HW280395   8.929   2.365   1.193
26186SOL     OW80396  13.341   3.586   3.893
26186SOL    HW180397  13.261   3.570   3.943
26186SOL    HW280398  13.352   3.681   3.894
26187SOL     OW80399   5.109  10.063   8.841
26187SOL    HW180400   5.156  10.041   8.761
26187SOL    HW280401   5.116   9.984   8.895
26188SOL     OW80402   1.201   2.794  10.271
26188SOL    HW180403   1.259   2.826  10.340
26188SOL    HW280404   1.139   2.737  10.317
26189SOL     OW80405   0.839  13.417   0.961
26189SOL    HW180406   0.906  13.463   1.011
26189SOL    HW280407   0.837  13.329   0.999
26190SOL     OW80408   4.936  14.788   5.729
26190SOL    HW180409   4.913  14.721   5.793
26190SOL    HW280410   4.992  14.849   5.777
26191SOL     OW80411   6.229   5.332   7.807
26191SOL    HW180412   6.154   5.324   7.748
26191SOL    HW280413   6.199   5.392   7.875
26192SOL     OW80414   9.542   5.664   4.373
26192SOL    HW180415   9.602   5.687   4.444
26192SOL    HW280416   9.505   5.748   4.344
26193SOL     OW80417  14.591   7.533   5.785
26193SOL    HW180418  14.654   7.534   5.857
26193SOL    HW280419  14.523   7.595   5.812
26194SOL     OW80420   9.176   7.711  12.264
26194SOL    HW180421   9.087   7.731  12.292
26194SOL    HW280422   9.231   7.740  12.337
26195SOL     OW80423   1.570   8.391  12.152
26195SOL    HW180424   1.651   8.438  12.130
26195SOL    HW280425   1.501   8.442  12.109
26196SOL     OW80426   6.080   6.339   8.196
26196SOL    HW180427   6.119   6.349   8.283
26196SOL    HW280428   6.134   6.272   8.154
26197SOL     OW80429   0.600  10.422  11.318
26197SOL    HW180430   0.509  10.441  11.341
26197SOL    HW280431   0.599  10.411  11.223
26198SOL     OW80432  13.600   3.105   0.954
26198SOL    HW180433  13.636   3.019   0.978
26198SOL    HW280434  13.565   3.140   1.035
26199SOL     OW80435   4.571  13.735   7.891
26199SOL    HW180436   4.494  13.791   7.880
26199SOL    HW280437   4.646  13.794   7.877
26200SOL     OW80438   7.175   8.545   4.694
26200SOL    HW180439   7.204   8.624   4.648
26200SOL    HW280440   7.106   8.508   4.639
26201SOL     OW80441   4.205  10.979   9.496
26201SOL    HW180442   4.237  11.066   9.520
26201SOL    HW280443   4.199  10.981   9.400
26202SOL     OW80444   7.123   3.062   4.546
26202SOL    HW180445   7.054   3.109   4.499
26202SOL    HW280446   7.165   3.007   4.480
26203SOL     OW80447  10.719   8.420  10.511
26203SOL    HW180448  10.700   8.508  10.544
26203SOL    HW280449  10.788   8.387  10.568
26204SOL     OW80450  12.579   5.596   0.770
26204SOL    HW180451  12.578   5.551   0.685
26204SOL    HW280452  12.523   5.543   0.826
26205SOL     OW80453   6.358   0.501  12.814
26205SOL    HW180454   6.299   0.431  12.788
26205SOL    HW280455   6.313   0.581  12.786
26206SOL     OW80456   8.452   6.223  12.825
26206SOL    HW180457   8.500   6.153  12.781
26206SOL    HW280458   8.376   6.239  12.769
26207SOL     OW80459  13.519   5.286   1.638
26207SOL    HW180460  13.457   5.220   1.606
26207SOL    HW280461  13.600   5.237   1.654
26208SOL     OW80462   1.848  14.565   7.795
26208SOL    HW180463   1.850  14.507   7.719
26208SOL    HW280464   1.755  14.587   7.805
26209SOL     OW80465   2.396  14.036  11.025
26209SOL    HW180466   2.306  14.038  10.992
26209SOL    HW280467   2.450  14.017  10.948
26210SOL     OW80468   3.650   7.108   4.506
26210SOL    HW180469   3.626   7.186   4.556
26210SOL    HW280470   3.602   7.117   4.423
26211SOL     OW80471   5.835   7.030   8.905
26211SOL    HW180472   5.837   7.020   9.000
26211SOL    HW280473   5.742   7.040   8.885
26212SOL     OW80474  12.052   3.705   0.709
26212SOL    HW180475  12.126   3.668   0.757
26212SOL    HW280476  12.049   3.797   0.736
26213SOL     OW80477   4.090  14.482   9.704
26213SOL    HW180478   4.180  14.474   9.672
26213SOL    HW280479   4.095  14.549   9.773
26214SOL     OW80480   0.867  10.517   6.538
26214SOL    HW180481   0.877  10.572   6.616
26214SOL    HW280482   0.923  10.557   6.472
26215SOL     OW80483   3.844   8.646   3.163
26215SOL    HW180484   3.796   8.709   3.109
26215SOL    HW280485   3.931   8.643   3.124
26216SOL     OW80486   6.872   6.336   3.659
26216SOL    HW180487   6.868   6.288   3.741
26216SOL    HW280488   6.941   6.294   3.608
26217SOL     OW80489  10.690  14.243   7.649
26217SOL    HW180490  10.716  14.315   7.707
26217SOL    HW280491  10.595  14.248   7.646
26218SOL     OW80492   4.471   7.458   9.988
26218SOL    HW180493   4.442   7.538  10.031
26218SOL    HW280494   4.567   7.463   9.992
26219SOL     OW80495   6.134   5.992  12.539
26219SOL    HW180496   6.187   6.056  12.492
26219SOL    HW280497   6.167   5.994  12.629
26220SOL     OW80498   9.375  12.474   4.998
26220SOL    HW180499   9.378  12.434   5.084
26220SOL    HW280500   9.291  12.446   4.961
26221SOL     OW80501   0.899   3.547   3.150
26221SOL    HW180502   0.992   3.555   3.130
26221SOL    HW280503   0.897   3.520   3.242
26222SOL     OW80504   5.176   7.680   8.472
26222SOL    HW180505   5.145   7.669   8.562
26222SOL    HW280506   5.271   7.667   8.478
26223SOL     OW80507  12.830   2.247   3.581
26223SOL    HW180508  12.827   2.254   3.676
26223SOL    HW280509  12.898   2.182   3.563
26224SOL     OW80510   1.093   1.525   3.113
26224SOL    HW180511   1.051   1.566   3.188
26224SOL    HW280512   1.160   1.587   3.086
26225SOL     OW80513  11.545   7.765   8.488
26225SOL    HW180514  11.621   7.822   8.492
26225SOL    HW280515  11.546   7.731   8.398
26226SOL     OW80516  13.863  14.658  11.437
26226SOL    HW180517  13.778  14.640  11.396
26226SOL    HW280518  13.889  14.743  11.400
26227SOL     OW80519   3.704   5.423   9.640
26227SOL    HW180520   3.751   5.435   9.558
26227SOL    HW280521   3.642   5.352   9.622
26228SOL     OW80522   3.373   7.762   4.637
26228SOL    HW180523   3.408   7.716   4.713
26228SOL    HW280524   3.304   7.704   4.605
26229SOL     OW80525   9.625   1.832   9.165
26229SOL    HW180526   9.610   1.926   9.173
26229SOL    HW280527   9.708   1.826   9.118
26230SOL     OW80528   0.682   0.798  14.225
26230SOL    HW180529   0.693   0.871  14.165
26230SOL    HW280530   0.596   0.761  14.203
26231SOL     OW80531   5.656   6.024   7.673
26231SOL    HW180532   5.727   6.065   7.722
26231SOL    HW280533   5.631   5.949   7.727
26232SOL     OW80534   2.366   4.078   3.373
26232SOL    HW180535   2.312   4.014   3.326
26232SOL    HW280536   2.338   4.162   3.337
26233SOL     OW80537  10.706   1.017  10.999
26233SOL    HW180538  10.695   1.008  11.094
26233SOL    HW280539  10.663   0.940  10.963
26234SOL     OW80540   4.692   2.848   2.675
26234SOL    HW180541   4.745   2.912   2.627
26234SOL    HW280542   4.613   2.895   2.699
26235SOL     OW80543   8.919   7.194   8.059
26235SOL    HW180544   8.836   7.222   8.022
26235SOL    HW280545   8.896   7.152   8.142
26236SOL     OW80546   4.747   5.070   9.483
26236SOL    HW180547   4.802   5.008   9.531
26236SOL    HW280548   4.659   5.031   9.485
26237SOL     OW80549  14.623  11.363  10.195
26237SOL    HW180550  14.613  11.297  10.264
26237SOL    HW280551  14.677  11.431  10.235
26238SOL     OW80552   3.526   3.852  12.266
26238SOL    HW180553   3.539   3.942  12.294
26238SOL    HW280554   3.612   3.812  12.273
26239SOL     OW80555   6.803   5.148   4.326
26239SOL    HW180556   6.842   5.211   4.266
26239SOL    HW280557   6.709   5.163   4.320
26240SOL     OW80558   7.020   5.913  13.715
26240SOL    HW180559   7.060   5.981  13.660
26240SOL    HW280560   6.927   5.936  13.718
26241SOL     OW80561   0.259  14.051   8.619
26241SOL    HW180562   0.167  14.073   8.608
26241SOL    HW280563   0.259  13.975   8.678
26242SOL     OW80564   3.615   5.486   2.483
26242SOL    HW180565   3.554   5.548   2.442
26242SOL    HW280566   3.669   5.455   2.410
26243SOL     OW80567  14.335   0.258  13.992
26243SOL    HW180568  14.345   0.301  13.907
26243SOL    HW280569  14.315   0.167  13.971
26244SOL     OW80570   3.070   1.280  12.627
26244SOL    HW180571   3.119   1.360  12.644
26244SOL    HW280572   3.131   1.209  12.648
26245SOL     OW80573   2.399  13.028   2.189
26245SOL    HW180574   2.351  13.038   2.107
26245SOL    HW280575   2.461  12.956   2.172
26246SOL     OW80576   0.897   3.808   0.096
26246SOL    HW180577   0.888   3.841   0.006
26246SOL    HW280578   0.924   3.717   0.085
26247SOL     OW80579   8.987  14.173   7.374
26247SOL    HW180580   8.984  14.093   7.426
26247SOL    HW280581   8.903  14.175   7.328
26248SOL     OW80582   9.519  10.362   5.392
26248SOL    HW180583   9.451  10.313   5.438
26248SOL    HW280584   9.548  10.303   5.322
26249SOL     OW80585   0.914  11.054   3.942
26249SOL    HW180586   0.882  11.089   3.859
26249SOL    HW280587   0.986  10.995   3.917
26250SOL     OW80588   0.664   1.076   8.999
26250SOL    HW180589   0.752   1.053   9.027
26250SOL    HW280590   0.677   1.151   8.940
26251SOL     OW80591   7.396   7.275   2.706
26251SOL    HW180592   7.437   7.188   2.705
26251SOL    HW280593   7.436   7.319   2.781
26252SOL     OW80594   6.500  12.146   2.221
26252SOL    HW180595   6.523  12.198   2.298
26252SOL    HW280596   6.405  12.152   2.215
26253SOL     OW80597   6.481   0.342   2.956
26253SOL    HW180598   6.511   0.403   3.024
26253SOL    HW280599   6.506   0.256   2.988
26254SOL     OW80600   0.942  10.955   1.382
26254SOL    HW180601   0.952  11.050   1.371
26254SOL    HW280602   1.009  10.917   1.326
26255SOL     OW80603  11.929   8.263  12.375
26255SOL    HW180604  11.993   8.329  12.348
26255SOL    HW280605  11.873   8.309  12.438
26256SOL     OW80606   7.712  13.065  10.267
26256SOL    HW180607   7.751  13.105  10.345
26256SOL    HW280608   7.630  13.112  10.255
26257SOL     OW80609   7.150   0.154  13.189
26257SOL    HW180610   7.206   0.230  13.173
26257SOL    HW280611   7.099   0.179  13.266
26258SOL     OW80612   6.817   7.475  14.445
26258SOL    HW180613   6.829   7.384  14.417
26258SOL    HW280614   6.810   7.470  14.540
26259SOL     OW80615   1.239   3.559   4.569
26259SOL    HW180616   1.202   3.516   4.647
26259SOL    HW280617   1.281   3.638   4.603
26260SOL     OW80618   9.798   3.821   8.770
26260SOL    HW180619   9.803   3.735   8.810
26260SOL    HW280620   9.809   3.804   8.676
26261SOL     OW80621   0.927   7.818  13.468
26261SOL    HW180622   0.897   7.849  13.382
26261SOL    HW280623   0.887   7.879  13.530
26262SOL     OW80624   8.630   8.915  12.839
26262SOL    HW180625   8.641   8.899  12.746
26262SOL    HW280626   8.689   8.987  12.859
26263SOL     OW80627  11.645   1.568  14.583
26263SOL    HW180628  11.635   1.510  14.507
26263SOL    HW280629  11.675   1.511  14.653
26264SOL     OW80630  12.462  12.683  12.329
26264SOL    HW180631  12.440  12.768  12.291
26264SOL    HW280632  12.443  12.693  12.422
26265SOL     OW80633   7.679  12.072  13.739
26265SOL    HW180634   7.743  12.001  13.730
26265SOL    HW280635   7.599  12.028  13.768
26266SOL     OW80636   6.718   8.142   9.816
26266SOL    HW180637   6.631   8.122   9.851
26266SOL    HW280638   6.746   8.219   9.864
26267SOL     OW80639   9.656  13.782   1.928
26267SOL    HW180640   9.747  13.757   1.911
26267SOL    HW280641   9.608  13.753   1.850
26268SOL     OW80642   9.378   0.659  12.080
26268SOL    HW180643   9.352   0.613  12.159
26268SOL    HW280644   9.414   0.742  12.111
26269SOL     OW80645   7.904   2.646  10.465
26269SOL    HW180646   7.850   2.598  10.528
26269SOL    HW280647   7.952   2.710  10.519
26270SOL     OW80648  10.707  14.127   3.241
26270SOL    HW180649  10.796  14.110   3.271
26270SOL    HW280650  10.656  14.054   3.276
26271SOL     OW80651   6.419   7.401  14.362
26271SOL    HW180652   6.454   7.490  14.367
26271SOL    HW280653   6.441   7.362  14.447
26272SOL     OW80654  10.390   5.141   5.168
26272SOL    HW180655  10.453   5.179   5.106
26272SOL    HW280656  10.440   5.074   5.215
26273SOL     OW80657  13.737  11.517   5.548
26273SOL    HW180658  13.800  11.484   5.612
26273SOL    HW280659  13.673  11.565   5.600
26274SOL     OW80660  10.872  10.872   2.540
26274SOL    HW180661  10.893  10.964   2.552
26274SOL    HW280662  10.956  10.827   2.549
26275SOL     OW80663   3.136   4.030   9.340
26275SOL    HW180664   3.084   3.950   9.346
26275SOL    HW280665   3.198   4.023   9.413
26276SOL     OW80666   7.995  10.210   7.590
26276SOL    HW180667   7.911  10.193   7.547
26276SOL    HW280668   7.972  10.247   7.675
26277SOL     OW80669  12.754   1.131   4.456
26277SOL    HW180670  12.835   1.175   4.431
26277SOL    HW280671  12.693   1.152   4.385
26278SOL     OW80672   2.564  13.442   7.074
26278SOL    HW180673   2.612  13.516   7.038
26278SOL    HW280674   2.530  13.473   7.157
26279SOL     OW80675   2.542   3.746   8.966
26279SOL    HW180676   2.608   3.804   8.926
26279SOL    HW280677   2.482   3.806   9.010
26280SOL     OW80678  11.840  10.271   2.218
26280SOL    HW180679  11.751  10.285   2.250
26280SOL    HW280680  11.888  10.349   2.246
26281SOL     OW80681   8.345   6.979  12.395
26281SOL    HW180682   8.427   6.967  12.348
26281SOL    HW280683   8.365   7.045  12.462
26282SOL     OW80684  11.168   5.137   2.937
26282SOL    HW180685  11.133   5.226   2.941
26282SOL    HW280686  11.107   5.086   2.991
26283SOL     OW80687   1.927  13.543   7.866
26283SOL    HW180688   1.885  13.623   7.898
26283SOL    HW280689   2.017  13.549   7.898
26284SOL     OW80690  14.575   6.198   5.464
26284SOL    HW180691  14.628   6.166   5.391
26284SOL    HW280692  14.497   6.144   5.463
26285SOL     OW80693   4.872   9.800   2.149
26285SOL    HW180694   4.783   9.833   2.164
26285SOL    HW280695   4.929   9.867   2.189
26286SOL     OW80696   6.462   1.738  12.238
26286SOL    HW180697   6.445   1.692  12.155
26286SOL    HW280698   6.404   1.696  12.301
26287SOL     OW80699   0.062   1.206  14.875
26287SOL    HW180700  14.877   1.149   0.038
26287SOL    HW280701   0.137   1.149  14.857
26288SOL     OW80702   0.064   0.548   0.704
26288SOL    HW180703  14.860   0.574   0.744
26288SOL    HW280704   0.118   0.520   0.778
26289SOL     OW80705  10.594  10.340   3.354
26289SOL    HW180706  10.530  10.278   3.388
26289SOL    HW280707  10.674  10.322   3.403
26290SOL     OW80708   7.047   0.893   2.520
26290SOL    HW180709   7.044   0.847   2.437
26290SOL    HW280710   7.112   0.845   2.572
26291SOL     OW80711   7.515   1.924   1.659
26291SOL    HW180712   7.553   1.874   1.587
26291SOL    HW280713   7.558   2.010   1.654
26292SOL     OW80714   3.871   1.802  11.750
26292SOL    HW180715   3.957   1.761  11.746
26292SOL    HW280716   3.810   1.728  11.744
26293SOL     OW80717   8.785   5.120   9.937
26293SOL    HW180718   8.875   5.153   9.942
26293SOL    HW280719   8.751   5.158   9.855
26294SOL     OW80720  10.051  13.511   8.411
26294SOL    HW180721  10.137  13.477   8.387
26294SOL    HW280722   9.994  13.488   8.337
26295SOL     OW80723  11.239   4.444  13.916
26295SOL    HW180724  11.227   4.476  13.826
26295SOL    HW280725  11.334   4.447  13.930
26296SOL     OW80726  11.541   8.862   5.356
26296SOL    HW180727  11.624   8.819   5.377
26296SOL    HW280728  11.513   8.900   5.439
26297SOL     OW80729   1.031   8.951   3.719
26297SOL    HW180730   1.079   8.961   3.802
26297SOL    HW280731   1.080   9.005   3.657
26298SOL     OW80732  10.788  12.935   1.739
26298SOL    HW180733  10.796  12.910   1.647
26298SOL    HW280734  10.697  12.918   1.761
26299SOL     OW80735   7.790   2.759   7.666
26299SOL    HW180736   7.845   2.782   7.741
26299SOL    HW280737   7.700   2.771   7.697
26300SOL     OW80738  14.600  12.616   0.509
26300SOL    HW180739  14.667  12.685   0.513
26300SOL    HW280740  14.558  12.618   0.595
26301SOL     OW80741   3.657   6.789   4.413
26301SOL    HW180742   3.649   6.710   4.467
26301SOL    HW280743   3.647   6.757   4.323
26302SOL     OW80744  13.855  14.873  10.834
26302SOL    HW180745  13.760  14.867  10.850
26302SOL    HW280746  13.895  14.825  10.906
26303SOL     OW80747   4.365   1.567   4.053
26303SOL    HW180748   4.449   1.549   4.010
26303SOL    HW280749   4.337   1.651   4.017
26304SOL     OW80750   1.625  14.630  10.620
26304SOL    HW180751   1.631  14.536  10.636
26304SOL    HW280752   1.654  14.641  10.529
26305SOL     OW80753   4.025  14.219   5.520
26305SOL    HW180754   4.045  14.298   5.571
26305SOL    HW280755   4.061  14.147   5.572
26306SOL     OW80756   1.977   5.006   2.485
26306SOL    HW180757   2.008   5.093   2.511
26306SOL    HW280758   2.055   4.952   2.484
26307SOL     OW80759   6.689  12.677  14.118
26307SOL    HW180760   6.744  12.694  14.194
26307SOL    HW280761   6.747  12.636  14.054
26308SOL     OW80762  10.598   1.747   8.593
26308SOL    HW180763  10.671   1.746   8.655
26308SOL    HW280764  10.523   1.714   8.644
26309SOL     OW80765   4.039   0.972  12.689
26309SOL    HW180766   4.008   0.889  12.727
26309SOL    HW280767   3.965   1.003  12.637
26310SOL     OW80768   0.873   3.475  14.229
26310SOL    HW180769   0.841   3.423  14.303
26310SOL    HW280770   0.956   3.512  14.261
26311SOL     OW80771   1.611  14.805  14.575
26311SOL    HW180772   1.561   0.002  14.604
26311SOL    HW280773   1.575  14.732  14.625
26312SOL     OW80774   0.257   6.059   3.677
26312SOL    HW180775   0.352   6.068   3.687
26312SOL    HW280776   0.234   5.987   3.736
26313SOL     OW80777   9.806   1.162  14.574
26313SOL    HW180778   9.836   1.071  14.576
26313SOL    HW280779   9.852   1.202  14.500
26314SOL     OW80780  10.471   8.305  12.059
26314SOL    HW180781  10.445   8.286  11.969
26314SOL    HW280782  10.565   8.292  12.060
26315SOL     OW80783   6.934   0.280   4.150
26315SOL    HW180784   6.975   0.316   4.228
26315SOL    HW280785   6.840   0.288   4.166
26316SOL     OW80786   8.142   3.778   2.209
26316SOL    HW180787   8.180   3.807   2.126
26316SOL    HW280788   8.048   3.777   2.192
26317SOL     OW80789  14.875  11.917  10.376
26317SOL    HW180790   0.004  12.003  10.335
26317SOL    HW280791  14.871  11.856  10.302
26318SOL     OW80792  12.578   0.300  10.337
26318SOL    HW180793  12.631   0.223  10.356
26318SOL    HW280794  12.508   0.267  10.281
26319SOL     OW80795   7.134   9.754   1.639
26319SOL    HW180796   7.069   9.790   1.579
26319SOL    HW280797   7.085   9.734   1.719
26320SOL     OW80798  13.338   4.732   5.868
26320SOL    HW180799  13.418   4.732   5.920
26320SOL    HW280800  13.339   4.816   5.823
26321SOL     OW80801   5.345   9.624   3.425
26321SOL    HW180802   5.264   9.577   3.406
26321SOL    HW280803   5.330   9.663   3.511
26322SOL     OW80804  14.873   9.960   2.018
26322SOL    HW180805  14.785   9.996   2.005
26322SOL    HW280806  14.857   9.869   2.045
26323SOL     OW80807   2.040   2.494   7.252
26323SOL    HW180808   2.010   2.408   7.283
26323SOL    HW280809   2.018   2.495   7.159
26324SOL     OW80810   0.035   7.810   2.980
26324SOL    HW180811   0.102   7.773   2.923
26324SOL    HW280812   0.044   7.905   2.969
26325SOL     OW80813   3.851  13.479   2.735
26325SOL    HW180814   3.840  13.526   2.652
26325SOL    HW280815   3.924  13.524   2.778
26326SOL     OW80816  12.324  13.281  11.905
26326SOL    HW180817  12.322  13.192  11.869
26326SOL    HW280818  12.251  13.284  11.966
26327SOL     OW80819   5.244  14.639  11.977
26327SOL    HW180820   5.254  14.672  12.066
26327SOL    HW280821   5.334  14.627  11.945
26328SOL     OW80822   8.785  11.819   4.303
26328SOL    HW180823   8.751  11.780   4.223
26328SOL    HW280824   8.712  11.869   4.339
26329SOL     OW80825  10.083  12.641  13.142
26329SOL    HW180826  10.140  12.566  13.159
26329SOL    HW280827  10.104  12.704  13.211
26330SOL     OW80828   0.413  14.789   1.075
26330SOL    HW180829   0.360  14.862   1.107
26330SOL    HW280830   0.354  14.738   1.020
26331SOL     OW80831   4.963  13.134   9.091
26331SOL    HW180832   5.021  13.071   9.050
26331SOL    HW280833   4.969  13.114   9.185
26332SOL     OW80834   8.255  14.430  14.242
26332SOL    HW180835   8.219  14.343  14.256
26332SOL    HW280836   8.251  14.443  14.147
26333SOL     OW80837   0.967  13.567  10.233
26333SOL    HW180838   0.948  13.475  10.212
26333SOL    HW280839   0.971  13.610  10.147
26334SOL     OW80840  12.135   4.421   4.496
26334SOL    HW180841  12.162   4.509   4.468
26334SOL    HW280842  12.084   4.388   4.422
26335SOL     OW80843  11.132   1.741   4.940
26335SOL    HW180844  11.105   1.788   4.861
26335SOL    HW280845  11.159   1.655   4.909
26336SOL     OW80846   7.281  14.556   9.511
26336SOL    HW180847   7.214  14.624   9.521
26336SOL    HW280848   7.234  14.483   9.471
26337SOL     OW80849   9.093   9.567   8.432
26337SOL    HW180850   9.062   9.643   8.481
26337SOL    HW280851   9.039   9.565   8.353
26338SOL     OW80852  11.313   5.227   7.330
26338SOL    HW180853  11.315   5.317   7.298
26338SOL    HW280854  11.390   5.220   7.387
26339SOL     OW80855  11.320   8.811  13.748
26339SOL    HW180856  11.268   8.844  13.821
26339SOL    HW280857  11.311   8.715  13.754
26340SOL     OW80858   1.138   4.948   9.245
26340SOL    HW180859   1.127   4.877   9.309
26340SOL    HW280860   1.057   4.946   9.193
26341SOL     OW80861   7.823   7.996   7.896
26341SOL    HW180862   7.804   7.961   7.983
26341SOL    HW280863   7.773   7.940   7.836
26342SOL     OW80864   1.713   4.923   3.551
26342SOL    HW180865   1.771   4.998   3.540
26342SOL    HW280866   1.766   4.847   3.528
26343SOL     OW80867   7.992   3.567   2.623
26343SOL    HW180868   8.060   3.535   2.683
26343SOL    HW280869   8.033   3.641   2.578
26344SOL     OW80870   8.145   3.839  13.120
26344SOL    HW180871   8.107   3.829  13.207
26344SOL    HW280872   8.228   3.791  13.124
26345SOL     OW80873   1.895   2.068  12.725
26345SOL    HW180874   1.937   1.996  12.773
26345SOL    HW280875   1.806   2.037  12.707
26346SOL     OW80876   1.428   0.886  11.515
26346SOL    HW180877   1.355   0.870  11.575
26346SOL    HW280878   1.437   0.804  11.467
26347SOL     OW80879   7.022   8.687  11.099
26347SOL    HW180880   6.985   8.746  11.034
26347SOL    HW280881   6.947   8.660  11.152
26348SOL     OW80882  14.731  12.704   4.002
26348SOL    HW180883  14.658  12.665   3.955
26348SOL    HW280884  14.728  12.665   4.090
26349SOL     OW80885  10.317   9.082   2.237
26349SOL    HW180886  10.377   9.154   2.257
26349SOL    HW280887  10.288   9.099   2.148
26350SOL     OW80888   0.545   5.523   4.403
26350SOL    HW180889   0.627   5.537   4.449
26350SOL    HW280890   0.495   5.604   4.416
26351SOL     OW80891   1.876   6.590  13.498
26351SOL    HW180892   1.884   6.673  13.545
26351SOL    HW280893   1.797   6.599  13.446
26352SOL     OW80894  11.989  11.303   6.072
26352SOL    HW180895  11.895  11.291   6.081
26352SOL    HW280896  12.023  11.293   6.161
26353SOL     OW80897   3.589   9.315   1.586
26353SOL    HW180898   3.575   9.346   1.497
26353SOL    HW280899   3.628   9.228   1.575
26354SOL     OW80900  12.257   8.933   3.784
26354SOL    HW180901  12.306   8.852   3.795
26354SOL    HW280902  12.215   8.925   3.699
26355SOL     OW80903   1.643  10.848  13.157
26355SOL    HW180904   1.710  10.807  13.212
26355SOL    HW280905   1.561  10.831  13.204
26356SOL     OW80906  13.250   9.960   9.478
26356SOL    HW180907  13.227   9.876   9.517
26356SOL    HW280908  13.183  10.021   9.511
26357SOL     OW80909   0.467   3.997  14.641
26357SOL    HW180910   0.474   3.919  14.696
26357SOL    HW280911   0.540   4.053  14.670
26358SOL     OW80912   6.188  14.268   4.809
26358SOL    HW180913   6.135  14.312   4.875
26358SOL    HW280914   6.129  14.255   4.735
26359SOL     OW80915   5.242  13.664   2.965
26359SOL    HW180916   5.200  13.583   2.939
26359SOL    HW280917   5.237  13.664   3.061
26360SOL     OW80918   9.480   7.630  14.837
26360SOL    HW180919   9.458   7.721  14.815
26360SOL    HW280920   9.509   7.634   0.049
26361SOL     OW80921   6.835   0.027   1.025
26361SOL    HW180922   6.906   0.090   1.038
26361SOL    HW280923   6.829   0.016   0.931
26362SOL     OW80924   9.644  14.350  12.245
26362SOL    HW180925   9.606  14.317  12.164
26362SOL    HW280926   9.605  14.295  12.314
26363SOL     OW80927   2.568   4.266   7.515
26363SOL    HW180928   2.550   4.204   7.444
26363SOL    HW280929   2.528   4.226   7.592
26364SOL     OW80930   3.127  12.109   5.084
26364SOL    HW180931   3.110  12.075   5.172
26364SOL    HW280932   3.120  12.204   5.094
26365SOL     OW80933   3.957   3.103   6.328
26365SOL    HW180934   4.050   3.086   6.310
26365SOL    HW280935   3.953   3.118   6.423
26366SOL     OW80936  13.790   3.086  13.194
26366SOL    HW180937  13.821   3.091  13.104
26366SOL    HW280938  13.695   3.095  13.188
26367SOL     OW80939   3.159   9.724  13.617
26367SOL    HW180940   3.170   9.719  13.711
26367SOL    HW280941   3.236   9.683  13.580
26368SOL     OW80942  11.462   8.369   3.484
26368SOL    HW180943  11.406   8.346   3.411
26368SOL    HW280944  11.508   8.448   3.456
26369SOL     OW80945   9.807   7.235  13.643
26369SOL    HW180946   9.830   7.232  13.736
26369SOL    HW280947   9.825   7.324  13.616
26370SOL     OW80948  12.475   6.428  12.936
26370SOL    HW180949  12.489   6.517  12.969
26370SOL    HW280950  12.546   6.377  12.974
26371SOL     OW80951   6.502  10.436  12.432
26371SOL    HW180952   6.413  10.468  12.447
26371SOL    HW280953   6.546  10.506  12.383
26372SOL     OW80954   9.765   2.989   3.684
26372SOL    HW180955   9.717   2.909   3.703
26372SOL    HW280956   9.855   2.960   3.670
26373SOL     OW80957   7.040   8.582  12.301
26373SOL    HW180958   7.134   8.595  12.307
26373SOL    HW280959   7.022   8.509  12.360
26374SOL     OW80960   6.320  13.079   6.662
26374SOL    HW180961   6.276  13.089   6.578
26374SOL    HW280962   6.352  12.989   6.662
26375SOL     OW80963   9.402   4.575  11.487
26375SOL    HW180964   9.490   4.557  11.455
26375SOL    HW280965   9.405   4.666  11.518
26376SOL     OW80966   7.263   3.779  11.037
26376SOL    HW180967   7.232   3.762  11.126
26376SOL    HW280968   7.202   3.730  10.981
26377SOL     OW80969  11.284  10.452  10.793
26377SOL    HW180970  11.374  10.476  10.818
26377SOL    HW280971  11.241  10.433  10.876
26378SOL     OW80972  10.191   1.582   0.385
26378SOL    HW180973  10.107   1.614   0.419
26378SOL    HW280974  10.241   1.559   0.464
26379SOL     OW80975   7.538  14.598   9.929
26379SOL    HW180976   7.587  14.595  10.011
26379SOL    HW280977   7.570  14.677   9.885
26380SOL     OW80978   2.421   0.548  12.856
26380SOL    HW180979   2.427   0.499  12.938
26380SOL    HW280980   2.417   0.481  12.788
26381SOL     OW80981  10.715   7.609  11.381
26381SOL    HW180982  10.756   7.663  11.314
26381SOL    HW280983  10.621   7.625  11.371
26382SOL     OW80984   9.990   1.436  11.085
26382SOL    HW180985   9.999   1.383  11.006
26382SOL    HW280986   9.925   1.503  11.062
26383SOL     OW80987   9.334  10.467   9.419
26383SOL    HW180988   9.358  10.467   9.512
26383SOL    HW280989   9.311  10.559   9.401
26384SOL     OW80990   6.690   5.072   8.971
26384SOL    HW180991   6.603   5.107   8.951
26384SOL    HW280992   6.681   4.978   8.960
26385SOL     OW80993   0.898   5.766   0.495
26385SOL    HW180994   0.899   5.766   0.591
26385SOL    HW280995   0.863   5.681   0.471
26386SOL     OW80996  14.781   1.602   9.941
26386SOL    HW180997  14.812   1.512   9.938
26386SOL    HW280998  14.811   1.642   9.860
26387SOL     OW80999  12.602   8.362   3.003
26387SOL    HW181000  12.684   8.377   2.955
26387SOL    HW281001  12.535   8.356   2.935
26388SOL     OW81002   3.474   8.898   0.462
26388SOL    HW181003   3.555   8.932   0.501
26388SOL    HW281004   3.416   8.884   0.537
26389SOL     OW81005   6.336  12.085  12.583
26389SOL    HW181006   6.324  12.010  12.526
26389SOL    HW281007   6.298  12.159  12.535
26390SOL     OW81008   9.418  11.392   3.237
26390SOL    HW181009   9.358  11.321   3.215
26390SOL    HW281010   9.499  11.347   3.261
26391SOL     OW81011   9.697   8.089  11.085
26391SOL    HW181012   9.768   8.152  11.069
26391SOL    HW281013   9.741   8.010  11.114
26392SOL     OW81014   9.104   5.485  11.424
26392SOL    HW181015   9.093   5.439  11.340
26392SOL    HW281016   9.016   5.515  11.447
26393SOL     OW81017   2.544   5.669   1.523
26393SOL    HW181018   2.488   5.636   1.453
26393SOL    HW281019   2.540   5.764   1.513
26394SOL     OW81020   6.882   7.513   5.424
26394SOL    HW181021   6.851   7.517   5.333
26394SOL    HW281022   6.846   7.431   5.457
26395SOL     OW81023   0.879   0.096   2.754
26395SOL    HW181024   0.797   0.070   2.796
26395SOL    HW281025   0.942   0.029   2.781
26396SOL     OW81026   4.201   8.112   6.373
26396SOL    HW181027   4.273   8.121   6.311
26396SOL    HW281028   4.222   8.173   6.444
26397SOL     OW81029  11.750   9.487   2.932
26397SOL    HW181030  11.712   9.443   3.008
26397SOL    HW281031  11.800   9.560   2.970
26398SOL     OW81032   3.226   3.469   1.228
26398SOL    HW181033   3.184   3.384   1.214
26398SOL    HW281034   3.234   3.506   1.141
26399SOL     OW81035  14.821   0.116  11.107
26399SOL    HW181036  14.765   0.163  11.170
26399SOL    HW281037  14.864   0.049  11.159
26400SOL     OW81038  10.778   8.742  14.310
26400SOL    HW181039  10.823   8.710  14.232
26400SOL    HW281040  10.811   8.831  14.323
26401SOL     OW81041   0.673  14.404   8.872
26401SOL    HW181042   0.636  14.397   8.960
26401SOL    HW281043   0.612  14.358   8.815
26402SOL     OW81044  11.499  12.341  11.025
26402SOL    HW181045  11.539  12.364  11.109
26402SOL    HW281046  11.405  12.335  11.044
26403SOL     OW81047   3.555  11.908  10.808
26403SOL    HW181048   3.626  11.919  10.744
26403SOL    HW281049   3.589  11.947  10.888
26404SOL     OW81050   4.793  11.164   1.418
26404SOL    HW181051   4.709  11.120   1.432
26404SOL    HW281052   4.847  11.135   1.490
26405SOL     OW81053   1.043  13.817  14.361
26405SOL    HW181054   1.069  13.800  14.451
26405SOL    HW281055   1.034  13.731  14.320
26406SOL     OW81056   6.592   6.893   5.978
26406SOL    HW181057   6.610   6.849   5.895
26406SOL    HW281058   6.596   6.823   6.044
26407SOL     OW81059   5.301   0.344  11.995
26407SOL    HW181060   5.389   0.313  12.014
26407SOL    HW281061   5.245   0.267  12.005
26408SOL     OW81062  14.134   0.347   2.703
26408SOL    HW181063  14.088   0.405   2.644
26408SOL    HW281064  14.066   0.294   2.744
26409SOL     OW81065   0.565  14.403   7.125
26409SOL    HW181066   0.559  14.316   7.085
26409SOL    HW281067   0.485  14.412   7.176
26410SOL     OW81068  11.065  13.737   3.986
26410SOL    HW181069  11.074  13.782   4.070
26410SOL    HW281070  11.053  13.645   4.009
26411SOL     OW81071   8.991  10.421  14.468
26411SOL    HW181072   8.965  10.502  14.424
26411SOL    HW281073   9.086  10.418  14.458
26412SOL     OW81074   7.934  12.458   6.626
26412SOL    HW181075   7.851  12.422   6.595
26412SOL    HW281076   7.974  12.386   6.675
26413SOL     OW81077   4.073  11.389   3.189
26413SOL    HW181078   4.077  11.460   3.253
26413SOL    HW281079   4.042  11.314   3.238
26414SOL     OW81080   3.815   8.019   0.327
26414SOL    HW181081   3.843   8.059   0.409
26414SOL    HW281082   3.798   7.928   0.348
26415SOL     OW81083   2.422  10.103   9.611
26415SOL    HW181084   2.420  10.046   9.689
26415SOL    HW281085   2.361  10.174   9.631
26416SOL     OW81086   2.565   7.195  10.477
26416SOL    HW181087   2.481   7.235  10.499
26416SOL    HW281088   2.630   7.253  10.516
26417SOL     OW81089  11.464  12.057  12.386
26417SOL    HW181090  11.525  12.038  12.457
26417SOL    HW281091  11.473  12.151  12.370
26418SOL     OW81092   0.936  11.198  11.256
26418SOL    HW181093   0.953  11.285  11.292
26418SOL    HW281094   0.953  11.138  11.329
26419SOL     OW81095   5.168  11.864   2.607
26419SOL    HW181096   5.221  11.852   2.686
26419SOL    HW281097   5.077  11.857   2.638
26420SOL     OW81098   5.166   9.791   6.851
26420SOL    HW181099   5.243   9.783   6.906
26420SOL    HW281100   5.117   9.865   6.888
26421SOL     OW81101  11.366   8.956   3.747
26421SOL    HW181102  11.346   8.913   3.665
26421SOL    HW281103  11.461   8.949   3.756
26422SOL     OW81104   3.528   0.809  14.813
26422SOL    HW181105   3.469   0.738  14.839
26422SOL    HW281106   3.482   0.888  14.840
26423SOL     OW81107   8.245   0.960  11.064
26423SOL    HW181108   8.329   0.935  11.026
26423SOL    HW281109   8.233   0.899  11.136
26424SOL     OW81110  10.784   0.395   3.660
26424SOL    HW181111  10.752   0.320   3.710
26424SOL    HW281112  10.879   0.393   3.670
26425SOL     OW81113  14.451   7.175  13.610
26425SOL    HW181114  14.509   7.154  13.537
26425SOL    HW281115  14.407   7.256  13.583
26426SOL     OW81116   0.199   4.493   7.305
26426SOL    HW181117   0.270   4.517   7.365
26426SOL    HW281118   0.119   4.509   7.356
26427SOL     OW81119  13.478   8.979  11.628
26427SOL    HW181120  13.465   9.068  11.597
26427SOL    HW281121  13.408   8.964  11.691
26428SOL     OW81122  10.364   3.546   5.075
26428SOL    HW181123  10.420   3.491   5.131
26428SOL    HW281124  10.398   3.635   5.087
26429SOL     OW81125  10.497   4.191   0.384
26429SOL    HW181126  10.465   4.259   0.325
26429SOL    HW281127  10.587   4.218   0.405
26430SOL     OW81128   6.361   4.597   3.434
26430SOL    HW181129   6.299   4.650   3.483
26430SOL    HW281130   6.315   4.573   3.354
26431SOL     OW81131   9.466  13.523   6.820
26431SOL    HW181132   9.533  13.552   6.759
26431SOL    HW281133   9.446  13.600   6.873
26432SOL     OW81134   6.231  13.845   2.643
26432SOL    HW181135   6.169  13.888   2.702
26432SOL    HW281136   6.261  13.768   2.692
26433SOL     OW81137   3.950   9.152   5.657
26433SOL    HW181138   4.026   9.109   5.697
26433SOL    HW281139   3.986   9.207   5.588
26434SOL     OW81140   3.272   8.587   3.654
26434SOL    HW181141   3.242   8.534   3.728
26434SOL    HW281142   3.336   8.531   3.610
26435SOL     OW81143  10.911   2.440   4.021
26435SOL    HW181144  10.852   2.377   4.063
26435SOL    HW281145  10.898   2.426   3.928
26436SOL     OW81146  12.127   7.683  10.897
26436SOL    HW181147  12.128   7.774  10.869
26436SOL    HW281148  12.217   7.666  10.927
26437SOL     OW81149   1.202  11.642   1.992
26437SOL    HW181150   1.171  11.676   1.908
26437SOL    HW281151   1.227  11.719   2.042
26438SOL     OW81152   2.546   7.911   1.756
26438SOL    HW181153   2.576   7.820   1.759
26438SOL    HW281154   2.565   7.945   1.843
26439SOL     OW81155  12.895   1.570  10.431
26439SOL    HW181156  12.815   1.564  10.483
26439SOL    HW281157  12.951   1.500  10.464
26440SOL     OW81158   5.254   0.334   6.118
26440SOL    HW181159   5.171   0.370   6.149
26440SOL    HW281160   5.243   0.239   6.124
26441SOL     OW81161   2.014   9.506   0.227
26441SOL    HW181162   2.068   9.430   0.207
26441SOL    HW281163   1.930   9.487   0.186
26442SOL     OW81164   6.765   6.048   6.971
26442SOL    HW181165   6.752   6.128   6.920
26442SOL    HW281166   6.852   6.059   7.010
26443SOL     OW81167   6.988   0.434  13.953
26443SOL    HW181168   6.915   0.391  13.908
26443SOL    HW281169   7.051   0.365  13.969
26444SOL     OW81170   9.813   4.300  12.124
26444SOL    HW181171   9.796   4.280  12.216
26444SOL    HW281172   9.766   4.233  12.075
26445SOL     OW81173   8.667   7.301  11.678
26445SOL    HW181174   8.584   7.254  11.680
26445SOL    HW281175   8.643   7.393  11.676
26446SOL     OW81176  13.024   2.746   6.588
26446SOL    HW181177  13.113   2.764   6.617
26446SOL    HW281178  12.981   2.832   6.587
26447SOL     OW81179   0.288  10.547   7.911
26447SOL    HW181180   0.192  10.554   7.913
26447SOL    HW281181   0.309  10.493   7.987
26448SOL     OW81182   9.966  14.808   4.223
26448SOL    HW181183  10.002  14.803   4.135
26448SOL    HW281184   9.954   0.022   4.238
26449SOL     OW81185  10.137  10.305   7.377
26449SOL    HW181186  10.046  10.333   7.377
26449SOL    HW281187  10.181  10.367   7.318
26450SOL     OW81188   3.981   5.660  10.123
26450SOL    HW181189   3.905   5.621  10.080
26450SOL    HW281190   3.983   5.618  10.210
26451SOL     OW81191   7.193   9.276   9.504
26451SOL    HW181192   7.118   9.234   9.462
26451SOL    HW281193   7.155   9.336   9.568
26452SOL     OW81194   4.414   4.221  10.509
26452SOL    HW181195   4.409   4.216  10.413
26452SOL    HW281196   4.416   4.130  10.537
26453SOL     OW81197  14.489   6.118   5.927
26453SOL    HW181198  14.439   6.189   5.966
26453SOL    HW281199  14.580   6.146   5.934
26454SOL     OW81200   7.897   0.861  14.174
26454SOL    HW181201   7.870   0.785  14.122
26454SOL    HW281202   7.896   0.830  14.264
26455SOL     OW81203  12.469  12.849   2.261
26455SOL    HW181204  12.505  12.934   2.287
26455SOL    HW281205  12.463  12.854   2.165
26456SOL     OW81206   0.663   0.136   9.298
26456SOL    HW181207   0.743   0.128   9.349
26456SOL    HW281208   0.655   0.229   9.280
26457SOL     OW81209   8.001   9.061  11.470
26457SOL    HW181210   7.971   9.073  11.380
26457SOL    HW281211   8.043   8.975  11.470
26458SOL     OW81212   3.694   6.935  14.152
26458SOL    HW181213   3.784   6.941  14.184
26458SOL    HW281214   3.698   6.968  14.062
26459SOL     OW81215  11.847  13.001   5.238
26459SOL    HW181216  11.861  13.040   5.325
26459SOL    HW281217  11.752  12.994   5.230
26460SOL     OW81218  11.319  13.210   6.989
26460SOL    HW181219  11.277  13.127   7.008
26460SOL    HW281220  11.252  13.263   6.946
26461SOL     OW81221   0.500   5.462   8.427
26461SOL    HW181222   0.519   5.371   8.404
26461SOL    HW281223   0.586   5.503   8.439
26462SOL     OW81224   7.024  14.455   8.657
26462SOL    HW181225   6.950  14.396   8.648
26462SOL    HW281226   7.091  14.404   8.703
26463SOL     OW81227   6.913  14.108   9.517
26463SOL    HW181228   6.956  14.190   9.537
26463SOL    HW281229   6.936  14.050   9.589
26464SOL     OW81230  12.907   2.280   6.334
26464SOL    HW181231  12.883   2.361   6.288
26464SOL    HW281232  12.998   2.265   6.308
26465SOL     OW81233   0.871  11.731   9.752
26465SOL    HW181234   0.961  11.704   9.769
26465SOL    HW281235   0.851  11.796   9.819
26466SOL     OW81236   0.037  14.034  13.634
26466SOL    HW181237   0.015  13.968  13.568
26466SOL    HW281238   0.133  14.041  13.630
26467SOL     OW81239   1.172   4.537  12.297
26467SOL    HW181240   1.094   4.496  12.336
26467SOL    HW281241   1.170   4.509  12.206
26468SOL     OW81242  14.564   4.091  10.678
26468SOL    HW181243  14.651   4.126  10.696
26468SOL    HW281244  14.551   4.105  10.584
26469SOL     OW81245   1.864   4.567   6.594
26469SOL    HW181246   1.802   4.607   6.533
26469SOL    HW281247   1.811   4.506   6.645
26470SOL     OW81248   5.610   3.180   7.939
26470SOL    HW181249   5.655   3.102   7.971
26470SOL    HW281250   5.518   3.155   7.934
26471SOL     OW81251  10.317   5.044  12.688
26471SOL    HW181252  10.358   5.118  12.733
26471SOL    HW281253  10.288   4.987  12.759
26472SOL     OW81254   2.282   1.856   4.158
26472SOL    HW181255   2.186   1.859   4.159
26472SOL    HW281256   2.303   1.799   4.085
26473SOL     OW81257  13.116   4.837   9.253
26473SOL    HW181258  13.098   4.898   9.325
26473SOL    HW281259  13.172   4.770   9.291
26474SOL     OW81260   7.296   4.593  12.640
26474SOL    HW181261   7.284   4.513  12.691
26474SOL    HW281262   7.294   4.563  12.548
26475SOL     OW81263   6.482   9.078   0.461
26475SOL    HW181264   6.512   9.081   0.370
26475SOL    HW281265   6.448   8.989   0.472
26476SOL     OW81266   0.221   5.610   8.648
26476SOL    HW181267   0.150   5.644   8.593
26476SOL    HW281268   0.214   5.515   8.639
26477SOL     OW81269  12.345   0.497   8.682
26477SOL    HW181270  12.402   0.552   8.629
26477SOL    HW281271  12.258   0.537   8.673
26478SOL     OW81272  10.609   5.577   8.567
26478SOL    HW181273  10.532   5.528   8.598
26478SOL    HW281274  10.664   5.587   8.644
26479SOL     OW81275   3.547  11.144  10.511
26479SOL    HW181276   3.530  11.192  10.430
26479SOL    HW281277   3.489  11.184  10.576
26480SOL     OW81278   9.263   2.200  13.574
26480SOL    HW181279   9.214   2.120  13.595
26480SOL    HW281280   9.343   2.169  13.532
26481SOL     OW81281  12.041  10.188   4.259
26481SOL    HW181282  12.040  10.124   4.188
26481SOL    HW281283  12.023  10.136   4.338
26482SOL     OW81284   5.663  10.250  12.148
26482SOL    HW181285   5.750  10.231  12.113
26482SOL    HW281286   5.612  10.279  12.072
26483SOL     OW81287  14.104  13.277   3.752
26483SOL    HW181288  14.014  13.266   3.722
26483SOL    HW281289  14.154  13.209   3.707
26484SOL     OW81290   4.113   3.489   5.871
26484SOL    HW181291   4.161   3.560   5.828
26484SOL    HW281292   4.026   3.490   5.830
26485SOL     OW81293   2.259  14.831   8.631
26485SOL    HW181294   2.307  14.873   8.702
26485SOL    HW281295   2.307  14.750   8.615
26486SOL     OW81296  11.922   7.216   0.853
26486SOL    HW181297  12.010   7.182   0.837
26486SOL    HW281298  11.864   7.146   0.823
26487SOL     OW81299   1.975   9.480  12.777
26487SOL    HW181300   1.990   9.574  12.783
26487SOL    HW281301   1.905   9.463  12.841
26488SOL     OW81302   5.616   2.004  12.022
26488SOL    HW181303   5.677   2.004  11.948
26488SOL    HW281304   5.568   2.086  12.014
26489SOL     OW81305   1.577   9.301  11.059
26489SOL    HW181306   1.663   9.341  11.065
26489SOL    HW281307   1.538   9.338  10.980
26490SOL     OW81308   1.308   1.379  12.241
26490SOL    HW181309   1.248   1.430  12.295
26490SOL    HW281310   1.395   1.415  12.260
26491SOL     OW81311   0.353  14.659   5.818
26491SOL    HW181312   0.348  14.727   5.884
26491SOL    HW281313   0.413  14.594   5.855
26492SOL     OW81314   0.752  11.932  14.422
26492SOL    HW181315   0.702  11.854  14.397
26492SOL    HW281316   0.688  12.002  14.424
26493SOL     OW81317  14.577   1.516   3.679
26493SOL    HW181318  14.660   1.467   3.682
26493SOL    HW281319  14.513   1.457   3.718
26494SOL     OW81320   3.226  10.793   8.885
26494SOL    HW181321   3.276  10.776   8.964
26494SOL    HW281322   3.148  10.738   8.893
26495SOL     OW81323   2.121   2.846   4.932
26495SOL    HW181324   2.049   2.878   4.879
26495SOL    HW281325   2.200   2.870   4.883
26496SOL     OW81326   8.551  10.776   5.307
26496SOL    HW181327   8.554  10.846   5.242
26496SOL    HW281328   8.460  10.746   5.306
26497SOL     OW81329  10.407   9.364   2.795
26497SOL    HW181330  10.501   9.370   2.778
26497SOL    HW281331  10.392   9.271   2.816
26498SOL     OW81332   9.981   6.133   9.445
26498SOL    HW181333   9.944   6.145   9.533
26498SOL    HW281334   9.921   6.180   9.387
26499SOL     OW81335  12.487   7.816  13.130
26499SOL    HW181336  12.483   7.813  13.034
26499SOL    HW281337  12.581   7.824  13.149
26500SOL     OW81338   4.037   7.120  12.328
26500SOL    HW181339   4.066   7.078  12.409
26500SOL    HW281340   4.103   7.188  12.311
26501SOL     OW81341  10.045  12.201   3.991
26501SOL    HW181342   9.950  12.190   3.997
26501SOL    HW281343  10.057  12.290   3.958
26502SOL     OW81344   1.274  14.770   4.455
26502SOL    HW181345   1.360  14.794   4.423
26502SOL    HW281346   1.278  14.787   4.549
26503SOL     OW81347   1.370   9.094  10.847
26503SOL    HW181348   1.364   9.066  10.756
26503SOL    HW281349   1.433   9.167  10.846
26504SOL     OW81350   2.622   4.500   0.874
26504SOL    HW181351   2.578   4.514   0.958
26504SOL    HW281352   2.563   4.442   0.826
26505SOL     OW81353  11.100  12.112   8.111
26505SOL    HW181354  11.165  12.055   8.070
26505SOL    HW281355  11.148  12.155   8.182
26506SOL     OW81356   3.149   2.605  14.313
26506SOL    HW181357   3.191   2.536  14.366
26506SOL    HW281358   3.222   2.655  14.277
26507SOL     OW81359   6.068   3.205   9.118
26507SOL    HW181360   6.105   3.293   9.129
26507SOL    HW281361   6.120   3.149   9.176
26508SOL     OW81362   7.270   5.919   5.159
26508SOL    HW181363   7.188   5.961   5.187
26508SOL    HW281364   7.322   5.991   5.122
26509SOL     OW81365  10.493   8.901  12.686
26509SOL    HW181366  10.485   8.954  12.766
26509SOL    HW281367  10.407   8.906  12.645
26510SOL     OW81368   9.331  14.637  10.305
26510SOL    HW181369   9.304  14.588  10.227
26510SOL    HW281370   9.418  14.672  10.282
26511SOL     OW81371   2.181   2.206  11.037
26511SOL    HW181372   2.197   2.115  11.013
26511SOL    HW281373   2.164   2.203  11.131
26512SOL     OW81374   3.465   2.111   9.313
26512SOL    HW181375   3.552   2.138   9.285
26512SOL    HW281376   3.476   2.021   9.343
26513SOL     OW81377   0.048  10.672  14.459
26513SOL    HW181378  14.863  10.658  14.528
26513SOL    HW281379   0.102  10.745  14.490
26514SOL     OW81380   2.730   8.291   5.708
26514SOL    HW181381   2.742   8.238   5.629
26514SOL    HW281382   2.742   8.381   5.678
26515SOL     OW81383   7.372  14.007   0.074
26515SOL    HW181384   7.397  13.927   0.120
26515SOL    HW281385   7.334  14.062   0.142
26516SOL     OW81386  13.178   4.772   6.936
26516SOL    HW181387  13.232   4.813   6.868
26516SOL    HW281388  13.202   4.819   7.016
26517SOL     OW81389   8.500  11.545  11.523
26517SOL    HW181390   8.585  11.506  11.502
26517SOL    HW281391   8.510  11.577  11.612
26518SOL     OW81392   2.815  12.332   0.310
26518SOL    HW181393   2.872  12.308   0.238
26518SOL    HW281394   2.874  12.354   0.382
26519SOL     OW81395  12.746   5.194  10.131
26519SOL    HW181396  12.761   5.288  10.131
26519SOL    HW281397  12.680   5.180  10.063
26520SOL     OW81398  13.983   5.281   3.594
26520SOL    HW181399  13.922   5.253   3.527
26520SOL    HW281400  14.020   5.363   3.561
26521SOL     OW81401   9.099   4.646   2.200
26521SOL    HW181402   9.059   4.732   2.210
26521SOL    HW281403   9.103   4.611   2.289
26522SOL     OW81404   0.575   7.006  13.739
26522SOL    HW181405   0.561   7.087  13.788
26522SOL    HW281406   0.553   6.937  13.800
26523SOL     OW81407   0.040   6.388  11.313
26523SOL    HW181408  14.872   6.444  11.373
26523SOL    HW281409   0.037   6.434  11.229
26524SOL     OW81410   0.857   8.047   8.584
26524SOL    HW181411   0.946   8.078   8.568
26524SOL    HW281412   0.845   7.977   8.519
26525SOL     OW81413   9.304  12.357  11.741
26525SOL    HW181414   9.233  12.355  11.677
26525SOL    HW281415   9.281  12.288  11.803
26526SOL     OW81416   1.460   5.757   7.002
26526SOL    HW181417   1.419   5.844   7.007
26526SOL    HW281418   1.399   5.705   6.950
26527SOL     OW81419  10.221  13.765  13.286
26527SOL    HW181420  10.270  13.831  13.237
26527SOL    HW281421  10.256  13.770  13.375
26528SOL     OW81422   0.584   0.127   4.818
26528SOL    HW181423   0.667   0.095   4.781
26528SOL    HW281424   0.556   0.058   4.878
26529SOL     OW81425  10.820  13.249   9.072
26529SOL    HW181426  10.901  13.299   9.077
26529SOL    HW281427  10.752  13.314   9.057
26530SOL     OW81428   3.365  11.627   7.497
26530SOL    HW181429   3.381  11.533   7.510
26530SOL    HW281430   3.425  11.651   7.427
26531SOL     OW81431   1.862   5.578   0.354
26531SOL    HW181432   1.837   5.529   0.432
26531SOL    HW281433   1.855   5.515   0.282
26532SOL     OW81434   6.072  13.885   0.180
26532SOL    HW181435   6.034  13.901   0.267
26532SOL    HW281436   6.166  13.891   0.194
26533SOL     OW81437   2.773   0.745   9.832
26533SOL    HW181438   2.744   0.678   9.770
26533SOL    HW281439   2.735   0.826   9.799
26534SOL     OW81440   9.958  13.290   6.893
26534SOL    HW181441  10.028  13.316   6.952
26534SOL    HW281442   9.999  13.229   6.831
26535SOL     OW81443   6.094   7.996   0.917
26535SOL    HW181444   6.158   8.051   0.872
26535SOL    HW281445   6.136   7.911   0.924
26536SOL     OW81446  12.964   3.432   5.025
26536SOL    HW181447  12.967   3.368   5.096
26536SOL    HW281448  12.974   3.379   4.945
26537SOL     OW81449   7.215  11.428  10.322
26537SOL    HW181450   7.302  11.394  10.345
26537SOL    HW281451   7.178  11.456  10.406
26538SOL     OW81452   5.134  11.015   8.944
26538SOL    HW181453   5.159  11.099   8.906
26538SOL    HW281454   5.059  10.987   8.892
26539SOL     OW81455   3.812   9.872   3.305
26539SOL    HW181456   3.736   9.845   3.355
26539SOL    HW281457   3.804   9.967   3.298
26540SOL     OW81458   8.240  14.860  14.236
26540SOL    HW181459   8.226  14.811  14.154
26540SOL    HW281460   8.301   0.050  14.212
26541SOL     OW81461   5.476   4.299  11.712
26541SOL    HW181462   5.564   4.270  11.732
26541SOL    HW281463   5.486   4.392  11.690
26542SOL     OW81464   9.564   4.398   2.131
26542SOL    HW181465   9.548   4.316   2.085
26542SOL    HW281466   9.657   4.397   2.150
26543SOL     OW81467  10.442   1.470  10.732
26543SOL    HW181468  10.445   1.395  10.673
26543SOL    HW281469  10.521   1.520  10.712
26544SOL     OW81470  12.245   7.544  13.964
26544SOL    HW181471  12.197   7.463  13.950
26544SOL    HW281472  12.203   7.585  14.040
26545SOL     OW81473   1.586   0.913  13.796
26545SOL    HW181474   1.636   0.902  13.877
26545SOL    HW281475   1.501   0.873  13.815
26546SOL     OW81476   4.531   4.414   8.594
26546SOL    HW181477   4.566   4.404   8.682
26546SOL    HW281478   4.573   4.492   8.559
26547SOL     OW81479   3.951   3.846   0.938
26547SOL    HW181480   4.010   3.804   0.876
26547SOL    HW281481   4.003   3.915   0.979
26548SOL     OW81482  11.246   9.897   0.635
26548SOL    HW181483  11.248   9.972   0.694
26548SOL    HW281484  11.159   9.899   0.595
26549SOL     OW81485   4.278   5.366   1.054
26549SOL    HW181486   4.347   5.303   1.073
26549SOL    HW281487   4.229   5.327   0.982
26550SOL     OW81488   2.344   3.269  13.272
26550SOL    HW181489   2.371   3.352  13.233
26550SOL    HW281490   2.425   3.227  13.299
26551SOL     OW81491  12.284  11.159   7.541
26551SOL    HW181492  12.372  11.148   7.578
26551SOL    HW281493  12.249  11.237   7.585
26552SOL     OW81494   9.984   7.614  12.027
26552SOL    HW181495  10.073   7.583  12.011
26552SOL    HW281496   9.936   7.594  11.947
26553SOL     OW81497  12.514   5.640  14.575
26553SOL    HW181498  12.499   5.732  14.597
26553SOL    HW281499  12.427   5.601  14.571
26554SOL     OW81500   2.215   1.625  10.986
26554SOL    HW181501   2.193   1.659  10.899
26554SOL    HW281502   2.179   1.537  10.988
26555SOL     OW81503   3.749   4.293   7.251
26555SOL    HW181504   3.697   4.279   7.330
26555SOL    HW281505   3.757   4.388   7.244
26556SOL     OW81506   2.252   2.971   8.725
26556SOL    HW181507   2.193   2.914   8.774
26556SOL    HW281508   2.196   3.043   8.694
26557SOL     OW81509  12.592  13.727   8.746
26557SOL    HW181510  12.526  13.743   8.678
26557SOL    HW281511  12.569  13.787   8.816
26558SOL     OW81512   4.841  11.550   4.056
26558SOL    HW181513   4.897  11.478   4.085
26558SOL    HW281514   4.791  11.574   4.134
26559SOL     OW81515  14.762  12.393   4.676
26559SOL    HW181516  14.672  12.424   4.665
26559SOL    HW281517  14.784  12.412   4.767
26560SOL     OW81518   2.429   2.942   8.509
26560SOL    HW181519   2.451   3.023   8.462
26560SOL    HW281520   2.361   2.967   8.571
26561SOL     OW81521   7.483  14.642   2.615
26561SOL    HW181522   7.573  14.615   2.633
26561SOL    HW281523   7.458  14.591   2.538
26562SOL     OW81524   4.193   7.220   4.263
26562SOL    HW181525   4.174   7.299   4.313
26562SOL    HW281526   4.147   7.150   4.309
26563SOL     OW81527  13.298  14.326   2.375
26563SOL    HW181528  13.385  14.366   2.382
26563SOL    HW281529  13.313  14.242   2.332
26564SOL     OW81530  13.707  11.563  10.607
26564SOL    HW181531  13.734  11.502  10.539
26564SOL    HW281532  13.758  11.643  10.589
26565SOL     OW81533   5.722   4.166  14.462
26565SOL    HW181534   5.692   4.113  14.388
26565SOL    HW281535   5.742   4.251  14.424
26566SOL     OW81536  13.671  14.045  12.453
26566SOL    HW181537  13.680  14.136  12.479
26566SOL    HW281538  13.666  13.997  12.536
26567SOL     OW81539  10.533  11.713   5.274
26567SOL    HW181540  10.596  11.680   5.210
26567SOL    HW281541  10.466  11.757   5.222
26568SOL     OW81542   1.548   0.070   7.433
26568SOL    HW181543   1.595  14.866   7.434
26568SOL    HW281544   1.571   0.112   7.516
26569SOL     OW81545   0.099   1.693  13.597
26569SOL    HW181546   0.045   1.771  13.584
26569SOL    HW281547   0.063   1.629  13.536
26570SOL     OW81548   5.669  13.617   8.679
26570SOL    HW181549   5.656  13.615   8.774
26570SOL    HW281550   5.757  13.652   8.668
26571SOL     OW81551  13.144   7.158   3.306
26571SOL    HW181552  13.145   7.254   3.307
26571SOL    HW281553  13.052   7.134   3.298
26572SOL     OW81554  11.307   8.013   5.679
26572SOL    HW181555  11.321   8.106   5.700
26572SOL    HW281556  11.329   7.966   5.759
26573SOL     OW81557   6.463   0.336  10.298
26573SOL    HW181558   6.440   0.346  10.390
26573SOL    HW281559   6.539   0.394  10.286
26574SOL     OW81560  12.725  11.064   2.394
26574SOL    HW181561  12.725  11.107   2.479
26574SOL    HW281562  12.643  11.015   2.392
26575SOL     OW81563  10.709   9.705  10.206
26575SOL    HW181564  10.655   9.710  10.285
26575SOL    HW281565  10.717   9.796  10.179
26576SOL     OW81566   1.135   0.934   0.463
26576SOL    HW181567   1.198   0.869   0.432
26576SOL    HW281568   1.157   0.948   0.555
26577SOL     OW81569  12.543   5.900   2.997
26577SOL    HW181570  12.482   5.868   2.931
26577SOL    HW281571  12.523   5.993   3.006
26578SOL     OW81572   6.852   8.585   1.663
26578SOL    HW181573   6.904   8.580   1.582
26578SOL    HW281574   6.786   8.517   1.653
26579SOL     OW81575   5.031   2.851   7.296
26579SOL    HW181576   4.951   2.835   7.246
26579SOL    HW281577   5.002   2.851   7.387
26580SOL     OW81578  12.104  10.014   9.584
26580SOL    HW181579  12.088   9.998   9.491
26580SOL    HW281580  12.168  10.086   9.586
26581SOL     OW81581  10.361   3.502  13.352
26581SOL    HW181582  10.341   3.571  13.289
26581SOL    HW281583  10.415   3.440  13.303
26582SOL     OW81584   6.837   2.819   1.736
26582SOL    HW181585   6.842   2.843   1.828
26582SOL    HW281586   6.923   2.781   1.716
26583SOL     OW81587  12.729   4.866   2.424
26583SOL    HW181588  12.684   4.807   2.363
26583SOL    HW281589  12.740   4.948   2.375
26584SOL     OW81590   4.708  10.958   8.228
26584SOL    HW181591   4.646  10.885   8.222
26584SOL    HW281592   4.730  10.978   8.137
26585SOL     OW81593  12.481   7.818   0.529
26585SOL    HW181594  12.496   7.886   0.463
26585SOL    HW281595  12.559   7.761   0.523
26586SOL     OW81596  11.572  13.114   3.155
26586SOL    HW181597  11.515  13.055   3.106
26586SOL    HW281598  11.634  13.057   3.199
26587SOL     OW81599   0.179   1.109   7.443
26587SOL    HW181600   0.119   1.037   7.426
26587SOL    HW281601   0.266   1.068   7.445
26588SOL     OW81602   7.457   6.394   9.517
26588SOL    HW181603   7.400   6.471   9.519
26588SOL    HW281604   7.544   6.428   9.537
26589SOL     OW81605   7.172   0.940   8.160
26589SOL    HW181606   7.149   0.867   8.216
26589SOL    HW281607   7.156   0.908   8.071
26590SOL     OW81608  14.255   2.531   0.720
26590SOL    HW181609  14.176   2.508   0.768
26590SOL    HW281610  14.224   2.549   0.631
26591SOL     OW81611   9.706   4.381   4.776
26591SOL    HW181612   9.726   4.321   4.848
26591SOL    HW281613   9.695   4.466   4.818
26592SOL     OW81614   7.079   7.318  12.029
26592SOL    HW181615   7.152   7.261  12.053
26592SOL    HW281616   7.087   7.328  11.935
26593SOL     OW81617  14.656   7.775  12.080
26593SOL    HW181618  14.742   7.745  12.049
26593SOL    HW281619  14.601   7.697  12.075
26594SOL     OW81620  12.949  10.049   2.630
26594SOL    HW181621  12.907  10.009   2.706
26594SOL    HW281622  12.876  10.074   2.573
26595SOL     OW81623  14.814   2.209   6.942
26595SOL    HW181624  14.869   2.265   6.888
26595SOL    HW281625  14.732   2.257   6.951
26596SOL     OW81626  12.459   2.362   5.610
26596SOL    HW181627  12.423   2.358   5.521
26596SOL    HW281628  12.383   2.373   5.667
26597SOL     OW81629   2.847  14.494  14.097
26597SOL    HW181630   2.823  14.535  14.179
26597SOL    HW281631   2.880  14.566  14.042
26598SOL     OW81632  13.255   6.940   5.365
26598SOL    HW181633  13.202   6.880   5.312
26598SOL    HW281634  13.302   6.993   5.301
26599SOL     OW81635   8.083   0.796   9.781
26599SOL    HW181636   8.161   0.745   9.758
26599SOL    HW281637   8.116   0.864   9.840
26600SOL     OW81638   0.675  10.176   9.824
26600SOL    HW181639   0.699  10.084   9.826
26600SOL    HW281640   0.758  10.223   9.834
26601SOL     OW81641   8.616   5.033   3.323
26601SOL    HW181642   8.603   5.067   3.412
26601SOL    HW281643   8.673   5.097   3.281
26602SOL     OW81644   2.416   4.823  14.349
26602SOL    HW181645   2.337   4.856  14.305
26602SOL    HW281646   2.473   4.900  14.357
26603SOL     OW81647   8.467   2.541   6.193
26603SOL    HW181648   8.496   2.607   6.129
26603SOL    HW281649   8.445   2.464   6.140
26604SOL     OW81650   5.142  12.355  11.286
26604SOL    HW181651   5.136  12.263  11.259
26604SOL    HW281652   5.074  12.399  11.236
26605SOL     OW81653   9.898   6.058  12.540
26605SOL    HW181654   9.808   6.092  12.534
26605SOL    HW281655   9.893   5.972  12.497
26606SOL     OW81656   0.281   8.347   8.361
26606SOL    HW181657   0.295   8.400   8.439
26606SOL    HW281658   0.362   8.297   8.352
26607SOL     OW81659  12.810   5.891  13.079
26607SOL    HW181660  12.875   5.960  13.062
26607SOL    HW281661  12.730   5.923  13.039
26608SOL     OW81662   2.300   9.460  14.134
26608SOL    HW181663   2.216   9.447  14.178
26608SOL    HW281664   2.286   9.425  14.046
26609SOL     OW81665   4.199   5.535   9.774
26609SOL    HW181666   4.216   5.514   9.866
26609SOL    HW281667   4.192   5.450   9.731
26610SOL     OW81668   7.646   6.252   8.017
26610SOL    HW181669   7.736   6.255   7.984
26610SOL    HW281670   7.635   6.162   8.046
26611SOL     OW81671  10.790  10.712  11.203
26611SOL    HW181672  10.842  10.691  11.280
26611SOL    HW281673  10.742  10.792  11.227
26612SOL     OW81674   3.898  10.294   2.598
26612SOL    HW181675   3.927  10.295   2.689
26612SOL    HW281676   3.882  10.386   2.577
26613SOL     OW81677   7.949   5.742   5.346
26613SOL    HW181678   7.974   5.667   5.291
26613SOL    HW281679   7.901   5.800   5.287
26614SOL     OW81680   4.121   3.075  13.075
26614SOL    HW181681   4.184   3.027  13.021
26614SOL    HW281682   4.047   3.015  13.085
26615SOL     OW81683   7.672   6.782   8.124
26615SOL    HW181684   7.738   6.713   8.120
26615SOL    HW281685   7.595   6.745   8.082
26616SOL     OW81686  11.456   1.595  14.161
26616SOL    HW181687  11.443   1.652  14.085
26616SOL    HW281688  11.375   1.604  14.211
26617SOL     OW81689   8.625   8.742   6.884
26617SOL    HW181690   8.559   8.707   6.944
26617SOL    HW281691   8.631   8.677   6.814
26618SOL     OW81692   0.037   7.921   8.493
26618SOL    HW181693   0.082   7.901   8.575
26618SOL    HW281694  14.825   7.895   8.508
26619SOL     OW81695   1.624   8.894   1.291
26619SOL    HW181696   1.711   8.855   1.280
26619SOL    HW281697   1.622   8.923   1.382
26620SOL     OW81698   1.408   4.110  13.984
26620SOL    HW181699   1.360   4.027  13.977
26620SOL    HW281700   1.451   4.105  14.070
26621SOL     OW81701   3.754  11.402  11.625
26621SOL    HW181702   3.690  11.366  11.564
26621SOL    HW281703   3.837  11.396  11.579
26622SOL     OW81704   3.415  11.109  13.460
26622SOL    HW181705   3.336  11.100  13.512
26622SOL    HW281706   3.384  11.130  13.372
26623SOL     OW81707   3.553  10.411  10.568
26623SOL    HW181708   3.530  10.501  10.594
26623SOL    HW281709   3.485  10.386  10.507
26624SOL     OW81710  13.438   0.029   0.813
26624SOL    HW181711  13.395   0.111   0.788
26624SOL    HW281712  13.367  14.844   0.813
26625SOL     OW81713   6.577  13.474   0.540
26625SOL    HW181714   6.555  13.563   0.516
26625SOL    HW281715   6.581  13.476   0.636
26626SOL     OW81716   1.972   0.469   1.580
26626SOL    HW181717   1.880   0.492   1.577
26626SOL    HW281718   2.015   0.531   1.520
26627SOL     OW81719   4.690   7.565   2.588
26627SOL    HW181720   4.646   7.507   2.649
26627SOL    HW281721   4.783   7.542   2.595
26628SOL     OW81722   4.721   9.525   0.332
26628SOL    HW181723   4.684   9.608   0.302
26628SOL    HW281724   4.734   9.536   0.426
26629SOL     OW81725  10.310   3.833   8.601
26629SOL    HW181726  10.237   3.880   8.562
26629SOL    HW281727  10.338   3.772   8.532
26630SOL     OW81728  13.401  12.353  10.257
26630SOL    HW181729  13.469  12.396  10.204
26630SOL    HW281730  13.386  12.413  10.330
26631SOL     OW81731   0.506   8.607   7.009
26631SOL    HW181732   0.493   8.521   7.047
26631SOL    HW281733   0.566   8.651   7.068
26632SOL     OW81734   7.672   7.432  14.690
26632SOL    HW181735   7.628   7.460  14.770
26632SOL    HW281736   7.619   7.360  14.657
26633SOL     OW81737  10.109   2.651   6.952
26633SOL    HW181738  10.027   2.685   6.989
26633SOL    HW281739  10.177   2.699   6.999
26634SOL     OW81740   6.440  13.352   8.477
26634SOL    HW181741   6.509  13.286   8.483
26634SOL    HW281742   6.435  13.372   8.383
26635SOL     OW81743   1.603   2.506  13.233
26635SOL    HW181744   1.601   2.418  13.196
26635SOL    HW281745   1.682   2.509  13.286
26636SOL     OW81746  11.404  13.981   2.078
26636SOL    HW181747  11.378  14.031   2.001
26636SOL    HW281748  11.477  13.927   2.048
26637SOL     OW81749   4.594   9.786   4.190
26637SOL    HW181750   4.558   9.831   4.266
26637SOL    HW281751   4.671   9.740   4.224
26638SOL     OW81752   0.973   9.097   8.940
26638SOL    HW181753   0.887   9.076   8.976
26638SOL    HW281754   1.030   9.106   9.016
26639SOL     OW81755  10.883   3.075   8.013
26639SOL    HW181756  10.870   3.010   7.943
26639SOL    HW281757  10.917   3.152   7.968
26640SOL     OW81758  11.765   4.918   4.677
26640SOL    HW181759  11.699   4.980   4.646
26640SOL    HW281760  11.839   4.973   4.704
26641SOL     OW81761  14.272   3.091  14.386
26641SOL    HW181762  14.245   3.031  14.317
26641SOL    HW281763  14.368   3.094  14.379
26642SOL     OW81764  14.518   3.131   4.563
26642SOL    HW181765  14.503   3.046   4.604
26642SOL    HW281766  14.526   3.112   4.469
26643SOL     OW81767  13.104   2.648  13.085
26643SOL    HW181768  13.097   2.702  13.006
26643SOL    HW281769  13.166   2.694  13.141
26644SOL     OW81770   4.490   9.027  10.349
26644SOL    HW181771   4.467   9.096  10.411
26644SOL    HW281772   4.556   9.068  10.292
26645SOL     OW81773  13.085   3.455   3.995
26645SOL    HW181774  13.056   3.438   4.085
26645SOL    HW281775  13.004   3.466   3.945
26646SOL     OW81776   9.094   8.360   0.404
26646SOL    HW181777   9.176   8.314   0.423
26646SOL    HW281778   9.068   8.400   0.487
26647SOL     OW81779   8.693  12.928   1.808
26647SOL    HW181780   8.761  12.883   1.858
26647SOL    HW281781   8.739  12.997   1.761
26648SOL     OW81782  11.812   8.708  14.323
26648SOL    HW181783  11.809   8.777  14.256
26648SOL    HW281784  11.903   8.679  14.323
26649SOL     OW81785   8.202   4.621   0.499
26649SOL    HW181786   8.117   4.579   0.498
26649SOL    HW281787   8.262   4.555   0.463
26650SOL     OW81788   4.032  13.166   3.881
26650SOL    HW181789   3.960  13.225   3.859
26650SOL    HW281790   3.998  13.079   3.860
26651SOL     OW81791   1.028   3.271  13.911
26651SOL    HW181792   1.038   3.278  14.006
26651SOL    HW281793   1.117   3.278  13.877
26652SOL     OW81794  13.234  10.422   9.244
26652SOL    HW181795  13.236  10.504   9.196
26652SOL    HW281796  13.197  10.358   9.182
26653SOL     OW81797   2.420   7.907   9.149
26653SOL    HW181798   2.382   7.860   9.222
26653SOL    HW281799   2.439   7.840   9.084
26654SOL     OW81800  13.393   2.934   3.868
26654SOL    HW181801  13.412   2.913   3.959
26654SOL    HW281802  13.472   2.907   3.821
26655SOL     OW81803   6.030   7.486   2.187
26655SOL    HW181804   6.039   7.568   2.138
26655SOL    HW281805   6.113   7.440   2.171
26656SOL     OW81806   8.842   5.400   4.851
26656SOL    HW181807   8.747   5.399   4.848
26656SOL    HW281808   8.867   5.476   4.798
26657SOL     OW81809   6.852  14.236  13.553
26657SOL    HW181810   6.931  14.189  13.528
26657SOL    HW281811   6.857  14.243  13.648
26658SOL     OW81812   4.737  14.402   8.622
26658SOL    HW181813   4.776  14.318   8.596
26658SOL    HW281814   4.760  14.462   8.551
26659SOL     OW81815   4.894   1.113  12.227
26659SOL    HW181816   4.904   1.203  12.196
26659SOL    HW281817   4.936   1.113  12.313
26660SOL     OW81818   6.966  14.624  10.519
26660SOL    HW181819   6.885  14.576  10.505
26660SOL    HW281820   7.014  14.573  10.585
26661SOL     OW81821  13.430   9.959  12.156
26661SOL    HW181822  13.500   9.990  12.098
26661SOL    HW281823  13.468   9.882  12.199
26662SOL     OW81824   2.315  12.617   4.934
26662SOL    HW181825   2.246  12.584   4.992
26662SOL    HW281826   2.280  12.700   4.901
26663SOL     OW81827   1.963   2.641   3.658
26663SOL    HW181828   1.994   2.652   3.748
26663SOL    HW281829   2.039   2.664   3.604
26664SOL     OW81830  14.810   1.246   4.628
26664SOL    HW181831  14.718   1.240   4.653
26664SOL    HW281832  14.832   1.159   4.595
26665SOL     OW81833   4.478  11.273   8.505
26665SOL    HW181834   4.556  11.312   8.467
26665SOL    HW281835   4.482  11.181   8.480
26666SOL     OW81836   9.798   0.924   9.893
26666SOL    HW181837   9.882   0.879   9.900
26666SOL    HW281838   9.748   0.893   9.969
26667SOL     OW81839  10.112  11.870   2.005
26667SOL    HW181840  10.176  11.941   2.016
26667SOL    HW281841  10.077  11.855   2.093
26668SOL     OW81842   4.984   4.706   0.097
26668SOL    HW181843   4.898   4.686   0.135
26668SOL    HW281844   4.963   4.739   0.009
26669SOL     OW81845   6.281   8.694   6.552
26669SOL    HW181846   6.200   8.659   6.516
26669SOL    HW281847   6.268   8.696   6.647
26670SOL     OW81848   3.147  12.237   8.841
26670SOL    HW181849   3.100  12.296   8.899
26670SOL    HW281850   3.184  12.294   8.773
26671SOL     OW81851   4.350   7.718  13.572
26671SOL    HW181852   4.441   7.689  13.569
26671SOL    HW281853   4.306   7.656  13.631
26672SOL     OW81854  12.590   2.256   0.148
26672SOL    HW181855  12.536   2.313   0.203
26672SOL    HW281856  12.640   2.203   0.210
26673SOL     OW81857   2.936   9.716  14.026
26673SOL    HW181858   2.845   9.694  14.004
26673SOL    HW281859   2.953   9.669  14.107
26674SOL     OW81860   1.718   1.609  10.219
26674SOL    HW181861   1.756   1.607  10.132
26674SOL    HW281862   1.793   1.600  10.278
26675SOL     OW81863   3.709  12.928  12.729
26675SOL    HW181864   3.645  12.999  12.718
26675SOL    HW281865   3.691  12.867  12.658
26676SOL     OW81866  12.615   8.636   4.598
26676SOL    HW181867  12.571   8.638   4.513
26676SOL    HW281868  12.690   8.695   4.588
26677SOL     OW81869  11.648   1.608   9.701
26677SOL    HW181870  11.645   1.697   9.736
26677SOL    HW281871  11.671   1.619   9.609
26678SOL     OW81872   3.366   2.413  11.369
26678SOL    HW181873   3.362   2.452  11.456
26678SOL    HW281874   3.388   2.321  11.384
26679SOL     OW81875   5.070   6.392   3.600
26679SOL    HW181876   5.096   6.479   3.630
26679SOL    HW281877   5.102   6.332   3.667
26680SOL     OW81878   1.463   7.036  11.197
26680SOL    HW181879   1.548   7.007  11.232
26680SOL    HW281880   1.401   6.969  11.225
26681SOL     OW81881  10.585  10.938   4.678
26681SOL    HW181882  10.653  10.962   4.615
26681SOL    HW281883  10.505  10.933   4.626
26682SOL     OW81884   9.497   1.464   2.451
26682SOL    HW181885   9.586   1.433   2.438
26682SOL    HW281886   9.492   1.483   2.545
26683SOL     OW81887  10.340   3.569   2.729
26683SOL    HW181888  10.365   3.569   2.636
26683SOL    HW281889  10.309   3.659   2.745
26684SOL     OW81890   3.796   6.088  12.674
26684SOL    HW181891   3.738   6.115  12.744
26684SOL    HW281892   3.879   6.067  12.717
26685SOL     OW81893  14.136   3.124  14.600
26685SOL    HW181894  14.181   3.131  14.516
26685SOL    HW281895  14.119   3.215  14.626
26686SOL     OW81896   5.224   8.376  11.016
26686SOL    HW181897   5.304   8.325  11.024
26686SOL    HW281898   5.250   8.456  10.972
26687SOL     OW81899   7.358   3.260  12.480
26687SOL    HW181900   7.376   3.206  12.556
26687SOL    HW281901   7.306   3.203  12.422
26688SOL     OW81902  11.736   1.523  11.846
26688SOL    HW181903  11.688   1.534  11.928
26688SOL    HW281904  11.794   1.448  11.862
26689SOL     OW81905   7.090   3.752   0.983
26689SOL    HW181906   7.055   3.771   0.896
26689SOL    HW281907   7.039   3.809   1.042
26690SOL     OW81908   4.757  13.673   5.817
26690SOL    HW181909   4.811  13.695   5.893
26690SOL    HW281910   4.792  13.590   5.786
26691SOL     OW81911   0.262   1.775  12.950
26691SOL    HW181912   0.237   1.689  12.917
26691SOL    HW281913   0.185   1.830  12.937
26692SOL     OW81914  13.193  12.315   6.081
26692SOL    HW181915  13.156  12.226   6.084
26692SOL    HW281916  13.122  12.371   6.112
26693SOL     OW81917   0.089  11.695   5.077
26693SOL    HW181918   0.166  11.651   5.042
26693SOL    HW281919   0.028  11.624   5.098
26694SOL     OW81920   8.916   5.783   8.316
26694SOL    HW181921   8.829   5.784   8.357
26694SOL    HW281922   8.963   5.713   8.360
26695SOL     OW81923  12.063   5.391   8.219
26695SOL    HW181924  12.112   5.425   8.294
26695SOL    HW281925  11.982   5.357   8.257
26696SOL     OW81926   9.155   3.116   9.492
26696SOL    HW181927   9.060   3.114   9.483
26696SOL    HW281928   9.172   3.183   9.559
26697SOL     OW81929   6.140  14.048  11.326
26697SOL    HW181930   6.207  14.009  11.382
26697SOL    HW281931   6.189  14.100  11.263
26698SOL     OW81932   9.194   0.425   8.706
26698SOL    HW181933   9.274   0.405   8.755
26698SOL    HW281934   9.225   0.469   8.627
26699SOL     OW81935   0.353  14.213   3.289
26699SOL    HW181936   0.328  14.301   3.315
26699SOL    HW281937   0.410  14.225   3.213
26700SOL     OW81938   9.990  11.910  13.243
26700SOL    HW181939   9.911  11.857  13.240
26700SOL    HW281940   9.958  12.001  13.247
26701SOL     OW81941   9.402   7.872   3.409
26701SOL    HW181942   9.416   7.787   3.449
26701SOL    HW281943   9.398   7.854   3.315
26702SOL     OW81944  10.542   1.782  13.795
26702SOL    HW181945  10.459   1.738  13.773
26702SOL    HW281946  10.580   1.804  13.710
26703SOL     OW81947   3.739   3.708  12.308
26703SOL    HW181948   3.793   3.653  12.251
26703SOL    HW281949   3.700   3.647  12.370
26704SOL     OW81950   2.775  14.682   8.362
26704SOL    HW181951   2.825  14.760   8.385
26704SOL    HW281952   2.717  14.668   8.437
26705SOL     OW81953   1.905   8.045   8.328
26705SOL    HW181954   1.929   8.048   8.236
26705SOL    HW281955   1.820   8.087   8.333
26706SOL     OW81956   8.742   5.069   7.073
26706SOL    HW181957   8.682   5.067   6.998
26706SOL    HW281958   8.819   5.115   7.040
26707SOL     OW81959   3.333  12.886  13.558
26707SOL    HW181960   3.316  12.935  13.478
26707SOL    HW281961   3.277  12.809  13.552
26708SOL     OW81962   0.205   8.328   3.778
26708SOL    HW181963   0.273   8.394   3.764
26708SOL    HW281964   0.247   8.245   3.755
26709SOL     OW81965   0.771   6.840   2.183
26709SOL    HW181966   0.838   6.865   2.119
26709SOL    HW281967   0.724   6.921   2.201
26710SOL     OW81968   2.673   0.163   4.895
26710SOL    HW181969   2.718   0.107   4.959
26710SOL    HW281970   2.737   0.175   4.825
26711SOL     OW81971   6.191   4.090  10.783
26711SOL    HW181972   6.196   4.077  10.877
26711SOL    HW281973   6.201   4.002  10.746
26712SOL     OW81974  12.677   2.024   8.688
26712SOL    HW181975  12.741   2.063   8.629
26712SOL    HW281976  12.725   1.954   8.732
26713SOL     OW81977   0.834   5.685   3.985
26713SOL    HW181978   0.783   5.703   4.064
26713SOL    HW281979   0.838   5.589   3.981
26714SOL     OW81980   6.851  12.979   4.697
26714SOL    HW181981   6.783  13.001   4.761
26714SOL    HW281982   6.806  12.985   4.612
26715SOL     OW81983  10.434   6.491  12.394
26715SOL    HW181984  10.483   6.434  12.454
26715SOL    HW281985  10.448   6.579  12.430
26716SOL     OW81986   7.444   0.441   2.415
26716SOL    HW181987   7.452   0.372   2.481
26716SOL    HW281988   7.359   0.481   2.432
26717SOL     OW81989   2.387  10.736   4.591
26717SOL    HW181990   2.427  10.822   4.576
26717SOL    HW281991   2.323  10.726   4.521
26718SOL     OW81992  13.273  11.080   5.380
26718SOL    HW181993  13.288  10.986   5.391
26718SOL    HW281994  13.179  11.088   5.369
26719SOL     OW81995   6.889  14.528   4.428
26719SOL    HW181996   6.829  14.557   4.496
26719SOL    HW281997   6.974  14.524   4.471
26720SOL     OW81998   2.477   1.449  11.449
26720SOL    HW181999   2.386   1.424  11.432
26720SOL    HW282000   2.520   1.366  11.473
26721SOL     OW82001  14.524   3.389   3.044
26721SOL    HW182002  14.555   3.475   3.071
26721SOL    HW282003  14.492   3.401   2.955
26722SOL     OW82004   4.990  12.435   2.943
26722SOL    HW182005   4.940  12.478   3.013
26722SOL    HW282006   4.933  12.366   2.912
26723SOL     OW82007   2.342  13.277   9.485
26723SOL    HW182008   2.415  13.222   9.513
26723SOL    HW282009   2.383  13.355   9.449
26724SOL     OW82010  10.886  14.290   6.547
26724SOL    HW182011  10.947  14.217   6.535
26724SOL    HW282012  10.862  14.316   6.459
26725SOL     OW82013   9.870   1.665   5.707
26725SOL    HW182014   9.779   1.637   5.711
26725SOL    HW282015   9.905   1.622   5.629
26726SOL     OW82016   5.696   4.828   0.468
26726SOL    HW182017   5.634   4.899   0.451
26726SOL    HW282018   5.644   4.748   0.458
26727SOL     OW82019  11.249   2.284   3.042
26727SOL    HW182020  11.291   2.216   2.990
26727SOL    HW282021  11.157   2.280   3.017
26728SOL     OW82022  14.274   7.517   6.221
26728SOL    HW182023  14.360   7.500   6.183
26728SOL    HW282024  14.218   7.538   6.146
26729SOL     OW82025   2.437  13.223   8.603
26729SOL    HW182026   2.505  13.225   8.671
26729SOL    HW282027   2.399  13.310   8.604
26730SOL     OW82028   4.184   7.115  11.109
26730SOL    HW182029   4.204   7.203  11.076
26730SOL    HW282030   4.112   7.128  11.170
26731SOL     OW82031  13.273   6.764  12.784
26731SOL    HW182032  13.237   6.791  12.869
26731SOL    HW282033  13.365   6.791  12.787
26732SOL     OW82034  13.301  10.611  10.714
26732SOL    HW182035  13.389  10.607  10.753
26732SOL    HW282036  13.297  10.535  10.655
26733SOL     OW82037  11.573  11.762   1.093
26733SOL    HW182038  11.588  11.748   0.999
26733SOL    HW282039  11.513  11.692   1.118
26734SOL     OW82040   3.955   0.192  11.787
26734SOL    HW182041   4.042   0.219  11.816
26734SOL    HW282042   3.971   0.117  11.730
26735SOL     OW82043   8.661   4.654  12.577
26735SOL    HW182044   8.684   4.589  12.511
26735SOL    HW282045   8.573   4.630  12.606
26736SOL     OW82046  13.537  10.585  14.104
26736SOL    HW182047  13.514  10.492  14.105
26736SOL    HW282048  13.481  10.624  14.172
26737SOL     OW82049   8.241   9.853  13.509
26737SOL    HW182050   8.154   9.834  13.476
26737SOL    HW282051   8.241   9.819  13.598
26738SOL     OW82052   0.878  13.616   4.525
26738SOL    HW182053   0.846  13.707   4.522
26738SOL    HW282054   0.972  13.624   4.504
26739SOL     OW82055  11.584   1.562   4.546
26739SOL    HW182056  11.493   1.532   4.550
26739SOL    HW282057  11.607   1.581   4.637
26740SOL     OW82058   1.176   5.234  13.504
26740SOL    HW182059   1.109   5.248  13.571
26740SOL    HW282060   1.212   5.148  13.523
26741SOL     OW82061   0.728  10.886   5.923
26741SOL    HW182062   0.677  10.864   6.000
26741SOL    HW282063   0.673  10.858   5.849
26742SOL     OW82064   7.536   4.277   4.218
26742SOL    HW182065   7.462   4.216   4.222
26742SOL    HW282066   7.546   4.306   4.309
26743SOL     OW82067   1.855  12.317   5.327
26743SOL    HW182068   1.859  12.277   5.240
26743SOL    HW282069   1.826  12.246   5.384
26744SOL     OW82070   2.524   1.950   3.782
26744SOL    HW182071   2.435   1.985   3.792
26744SOL    HW282072   2.573   1.987   3.855
26745SOL     OW82073   9.097  10.464  13.008
26745SOL    HW182074   9.058  10.376  13.010
26745SOL    HW282075   9.188  10.450  13.032
26746SOL     OW82076   4.870   2.361   5.040
26746SOL    HW182077   4.795   2.391   5.092
26746SOL    HW282078   4.933   2.433   5.045
26747SOL     OW82079  11.606   2.317  12.916
26747SOL    HW182080  11.636   2.386  12.976
26747SOL    HW282081  11.673   2.315  12.847
26748SOL     OW82082  10.022  12.429  10.329
26748SOL    HW182083  10.081  12.357  10.309
26748SOL    HW282084   9.934  12.392  10.316
26749SOL     OW82085   6.407   1.946  11.149
26749SOL    HW182086   6.431   1.931  11.058
26749SOL    HW282087   6.417   2.040  11.162
26750SOL     OW82088  13.956   5.302   8.435
26750SOL    HW182089  13.986   5.327   8.522
26750SOL    HW282090  13.966   5.381   8.382
26751SOL     OW82091   6.906   3.800   7.784
26751SOL    HW182092   6.938   3.805   7.693
26751SOL    HW282093   6.880   3.889   7.806
26752SOL     OW82094  13.490  13.987   4.377
26752SOL    HW182095  13.471  13.900   4.341
26752SOL    HW282096  13.413  14.009   4.430
26753SOL     OW82097  14.332  12.974  10.768
26753SOL    HW182098  14.293  13.060  10.783
26753SOL    HW282099  14.341  12.936  10.856
26754SOL     OW82100   8.850   8.473   1.924
26754SOL    HW182101   8.890   8.554   1.894
26754SOL    HW282102   8.862   8.474   2.019
26755SOL     OW82103   0.643   6.193   5.762
26755SOL    HW182104   0.699   6.115   5.754
26755SOL    HW282105   0.593   6.194   5.680
26756SOL     OW82106  14.684   1.965  10.031
26756SOL    HW182107  14.779   1.976  10.043
26756SOL    HW282108  14.658   1.905  10.101
26757SOL     OW82109   5.243   1.974   7.559
26757SOL    HW182110   5.199   2.058   7.568
26757SOL    HW282111   5.172   1.910   7.558
26758SOL     OW82112  10.614   1.220   2.052
26758SOL    HW182113  10.600   1.140   2.002
26758SOL    HW282114  10.534   1.270   2.041
26759SOL     OW82115   9.273   1.701   1.005
26759SOL    HW182116   9.277   1.624   0.948
26759SOL    HW282117   9.233   1.669   1.086
26760SOL     OW82118  13.441   3.797   8.661
26760SOL    HW182119  13.421   3.852   8.736
26760SOL    HW282120  13.515   3.744   8.689
26761SOL     OW82121   0.878   1.955   9.773
26761SOL    HW182122   0.931   1.989   9.845
26761SOL    HW282123   0.810   1.904   9.815
26762SOL     OW82124   1.920   1.667   6.948
26762SOL    HW182125   1.936   1.653   6.855
26762SOL    HW282126   1.926   1.761   6.960
26763SOL     OW82127  10.851   3.862   7.662
26763SOL    HW182128  10.807   3.943   7.636
26763SOL    HW282129  10.936   3.891   7.697
26764SOL     OW82130  13.167   1.451   0.438
26764SOL    HW182131  13.118   1.530   0.416
26764SOL    HW282132  13.106   1.379   0.417
26765SOL     OW82133   8.041   4.000  12.186
26765SOL    HW182134   8.006   3.955  12.263
26765SOL    HW282135   8.059   3.930  12.123
26766SOL     OW82136   4.632  11.486   3.847
26766SOL    HW182137   4.712  11.483   3.900
26766SOL    HW282138   4.572  11.539   3.900
26767SOL     OW82139   0.050   1.998   0.499
26767SOL    HW182140   0.005   1.988   0.583
26767SOL    HW282141   0.015   2.080   0.463
26768SOL     OW82142  14.650  13.721  14.315
26768SOL    HW182143  14.570  13.775  14.311
26768SOL    HW282144  14.714  13.771  14.265
26769SOL     OW82145   6.152  10.837   3.812
26769SOL    HW182146   6.090  10.853   3.882
26769SOL    HW282147   6.206  10.764   3.844
26770SOL     OW82148   0.817   2.318   8.331
26770SOL    HW182149   0.883   2.338   8.397
26770SOL    HW282150   0.786   2.231   8.354
26771SOL     OW82151  13.249  11.514   5.312
26771SOL    HW182152  13.228  11.523   5.219
26771SOL    HW282153  13.301  11.434   5.318
26772SOL     OW82154  10.419  10.836   7.820
26772SOL    HW182155  10.359  10.774   7.778
26772SOL    HW282156  10.395  10.832   7.913
26773SOL     OW82157  12.976   0.889  12.411
26773SOL    HW182158  12.920   0.816  12.435
26773SOL    HW282159  12.944   0.963  12.462
26774SOL     OW82160   2.866   9.286   1.245
26774SOL    HW182161   2.813   9.324   1.175
26774SOL    HW282162   2.811   9.216   1.281
26775SOL     OW82163   3.233   0.334  11.173
26775SOL    HW182164   3.236   0.387  11.253
26775SOL    HW282165   3.249   0.245  11.202
26776SOL     OW82166   5.885  13.742   9.420
26776SOL    HW182167   5.934  13.803   9.475
26776SOL    HW282168   5.910  13.655   9.454
26777SOL     OW82169  10.699   7.107   5.380
26777SOL    HW182170  10.660   7.030   5.339
26777SOL    HW282171  10.754   7.145   5.311
26778SOL     OW82172   6.856   5.513  13.772
26778SOL    HW182173   6.860   5.491  13.865
26778SOL    HW282174   6.946   5.506  13.742
26779SOL     OW82175  13.777  11.668   8.041
26779SOL    HW182176  13.856  11.709   8.005
26779SOL    HW282177  13.727  11.641   7.964
26780SOL     OW82178   6.154   1.528   7.317
26780SOL    HW182179   6.199   1.577   7.385
26780SOL    HW282180   6.108   1.595   7.265
26781SOL     OW82181  13.392   7.852   1.602
26781SOL    HW182182  13.370   7.764   1.632
26781SOL    HW282183  13.483   7.864   1.626
26782SOL     OW82184   4.077   6.538  14.148
26782SOL    HW182185   4.075   6.445  14.129
26782SOL    HW282186   4.106   6.579  14.066
26783SOL     OW82187  10.526   3.039  11.204
26783SOL    HW182188  10.525   3.133  11.222
26783SOL    HW282189  10.437   3.020  11.174
26784SOL     OW82190   0.709  14.308  11.312
26784SOL    HW182191   0.710  14.235  11.250
26784SOL    HW282192   0.690  14.385  11.259
26785SOL     OW82193   3.995   4.229  13.731
26785SOL    HW182194   4.023   4.150  13.686
26785SOL    HW282195   3.927   4.267  13.675
26786SOL     OW82196   7.810   9.725  10.163
26786SOL    HW182197   7.860   9.664  10.217
26786SOL    HW282198   7.872   9.758  10.098
26787SOL     OW82199   7.827   7.131   0.948
26787SOL    HW182200   7.825   7.214   0.995
26787SOL    HW282201   7.820   7.156   0.855
26788SOL     OW82202  11.656   6.133  10.943
26788SOL    HW182203  11.698   6.048  10.956
26788SOL    HW282204  11.567   6.121  10.976
26789SOL     OW82205   7.606   4.969   6.815
26789SOL    HW182206   7.665   4.902   6.780
26789SOL    HW282207   7.543   4.920   6.869
26790SOL     OW82208  13.200  11.220  11.797
26790SOL    HW182209  13.236  11.143  11.841
26790SOL    HW282210  13.143  11.261  11.861
26791SOL     OW82211  11.145   0.819  11.283
26791SOL    HW182212  11.081   0.883  11.316
26791SOL    HW282213  11.229   0.854  11.311
26792SOL     OW82214   2.398   4.364   9.843
26792SOL    HW182215   2.475   4.414   9.818
26792SOL    HW282216   2.327   4.400   9.789
26793SOL     OW82217   1.037   6.361   7.127
26793SOL    HW182218   0.956   6.351   7.178
26793SOL    HW282219   1.047   6.456   7.117
26794SOL     OW82220  13.956  14.083   7.329
26794SOL    HW182221  13.913  14.003   7.300
26794SOL    HW282222  14.050  14.065   7.317
26795SOL     OW82223   0.425   1.591   4.253
26795SOL    HW182224   0.454   1.593   4.161
26795SOL    HW282225   0.471   1.665   4.293
26796SOL     OW82226   9.120  11.003   9.929
26796SOL    HW182227   9.188  11.058   9.891
26796SOL    HW282228   9.093  10.946   9.857
26797SOL     OW82229   2.829  11.285   0.040
26797SOL    HW182230   2.866  11.196   0.043
26797SOL    HW282231   2.900  11.341   0.071
26798SOL     OW82232   7.128   2.348   2.633
26798SOL    HW182233   7.038   2.320   2.619
26798SOL    HW282234   7.144   2.333   2.726
26799SOL     OW82235   6.377   6.879   0.236
26799SOL    HW182236   6.286   6.896   0.260
26799SOL    HW282237   6.419   6.965   0.239
26800SOL     OW82238   3.164   9.654  10.753
26800SOL    HW182239   3.120   9.669  10.837
26800SOL    HW282240   3.100   9.681  10.687
26801SOL     OW82241  11.139   7.767  14.307
26801SOL    HW182242  11.113   7.680  14.279
26801SOL    HW282243  11.060   7.821  14.296
26802SOL     OW82244   0.680  10.515  14.707
26802SOL    HW182245   0.704  10.550  14.622
26802SOL    HW282246   0.634  10.433  14.687
26803SOL     OW82247   9.713   7.545   1.802
26803SOL    HW182248   9.623   7.554   1.833
26803SOL    HW282249   9.711   7.579   1.713
26804SOL     OW82250   3.044   0.384   9.605
26804SOL    HW182251   3.082   0.401   9.519
26804SOL    HW282252   2.952   0.410   9.597
26805SOL     OW82253  11.295   8.710   5.304
26805SOL    HW182254  11.310   8.616   5.292
26805SOL    HW282255  11.380   8.744   5.332
26806SOL     OW82256  11.063  12.980  10.965
26806SOL    HW182257  11.104  13.061  10.996
26806SOL    HW282258  11.079  12.917  11.035
26807SOL     OW82259   7.685  11.319  14.544
26807SOL    HW182260   7.745  11.315  14.619
26807SOL    HW282261   7.599  11.300  14.582
26808SOL     OW82262   3.112   7.183  13.294
26808SOL    HW182263   3.028   7.221  13.269
26808SOL    HW282264   3.098   7.150  13.383
26809SOL     OW82265   3.352  14.082   2.541
26809SOL    HW182266   3.280  14.115   2.594
26809SOL    HW282267   3.320  13.999   2.505
26810SOL     OW82268  10.372   2.561  11.906
26810SOL    HW182269  10.324   2.557  11.988
26810SOL    HW282270  10.330   2.496  11.850
26811SOL     OW82271   5.016   9.815   6.285
26811SOL    HW182272   5.095   9.859   6.257
26811SOL    HW282273   4.988   9.764   6.209
26812SOL     OW82274   9.931  13.419   8.776
26812SOL    HW182275   9.886  13.335   8.772
26812SOL    HW282276   9.876  13.479   8.725
26813SOL     OW82277   4.560   6.599   5.916
26813SOL    HW182278   4.604   6.684   5.907
26813SOL    HW282279   4.614   6.550   5.978
26814SOL     OW82280   7.304  11.411  10.745
26814SOL    HW182281   7.393  11.411  10.710
26814SOL    HW282282   7.265  11.491  10.712
26815SOL     OW82283   0.316  10.150  11.150
26815SOL    HW182284   0.283  10.132  11.238
26815SOL    HW282285   0.410  10.136  11.157
26816SOL     OW82286   0.816  13.672  13.093
26816SOL    HW182287   0.778  13.688  13.179
26816SOL    HW282288   0.747  13.699  13.031
26817SOL     OW82289   8.277   5.135   5.301
26817SOL    HW182290   8.214   5.175   5.361
26817SOL    HW282291   8.224   5.088   5.238
26818SOL     OW82292  12.902  13.736   6.217
26818SOL    HW182293  12.873  13.737   6.308
26818SOL    HW282294  12.850  13.805   6.175
26819SOL     OW82295   2.529   4.924   1.289
26819SOL    HW182296   2.509   4.843   1.336
26819SOL    HW282297   2.594   4.968   1.344
26820SOL     OW82298  10.801   5.952   4.076
26820SOL    HW182299  10.750   5.992   4.006
26820SOL    HW282300  10.798   5.858   4.056
26821SOL     OW82301   7.075   2.471  14.816
26821SOL    HW182302   7.152   2.476  14.872
26821SOL    HW282303   7.027   2.395  14.848
26822SOL     OW82304   5.706   3.240   7.040
26822SOL    HW182305   5.722   3.146   7.033
26822SOL    HW282306   5.786   3.280   7.005
26823SOL     OW82307  13.493   7.697   7.318
26823SOL    HW182308  13.434   7.735   7.253
26823SOL    HW282309  13.555   7.768   7.338
26824SOL     OW82310   1.214   7.009  12.887
26824SOL    HW182311   1.243   7.049  12.968
26824SOL    HW282312   1.141   7.064  12.857
26825SOL     OW82313   5.596   2.588  13.488
26825SOL    HW182314   5.669   2.583  13.550
26825SOL    HW282315   5.637   2.602  13.403
26826SOL     OW82316   1.513   6.200  10.568
26826SOL    HW182317   1.482   6.160  10.487
26826SOL    HW282318   1.444   6.181  10.632
26827SOL     OW82319   8.407   5.345   2.658
26827SOL    HW182320   8.433   5.274   2.599
26827SOL    HW282321   8.391   5.302   2.741
26828SOL     OW82322  13.938   9.725  10.009
26828SOL    HW182323  13.878   9.688   9.944
26828SOL    HW282324  13.882   9.772  10.070
26829SOL     OW82325   7.629  12.380  10.383
26829SOL    HW182326   7.589  12.328  10.453
26829SOL    HW282327   7.662  12.458  10.427
26830SOL     OW82328  10.036  12.141   0.162
26830SOL    HW182329  10.007  12.090   0.087
26830SOL    HW282330  10.128  12.118   0.173
26831SOL     OW82331   1.959   2.270  10.885
26831SOL    HW182332   1.931   2.178  10.876
26831SOL    HW282333   2.036   2.266  10.942
26832SOL     OW82334   3.942   0.504   2.780
26832SOL    HW182335   3.996   0.442   2.829
26832SOL    HW282336   3.932   0.465   2.694
26833SOL     OW82337   3.333   3.284  13.099
26833SOL    HW182338   3.418   3.292  13.143
26833SOL    HW282339   3.356   3.275  13.006
26834SOL     OW82340  10.784   4.564   7.992
26834SOL    HW182341  10.710   4.623   8.007
26834SOL    HW282342  10.750   4.477   8.012
26835SOL     OW82343   2.499   0.944   3.717
26835SOL    HW182344   2.562   0.961   3.647
26835SOL    HW282345   2.508   0.850   3.735
26836SOL     OW82346   3.949   9.313  11.604
26836SOL    HW182347   3.889   9.387  11.609
26836SOL    HW282348   3.912   9.257  11.536
26837SOL     OW82349   5.301  14.193   1.104
26837SOL    HW182350   5.281  14.129   1.036
26837SOL    HW282351   5.364  14.252   1.064
26838SOL     OW82352   5.690  11.508   3.047
26838SOL    HW182353   5.646  11.592   3.064
26838SOL    HW282354   5.752  11.498   3.119
26839SOL     OW82355   6.068   2.458   8.461
26839SOL    HW182356   6.015   2.459   8.382
26839SOL    HW282357   6.005   2.449   8.532
26840SOL     OW82358  11.847   2.667   5.129
26840SOL    HW182359  11.757   2.670   5.162
26840SOL    HW282360  11.850   2.735   5.061
26841SOL     OW82361  11.232   4.229  12.714
26841SOL    HW182362  11.216   4.135  12.714
26841SOL    HW282363  11.223   4.255  12.622
26842SOL     OW82364   0.273   4.807   2.491
26842SOL    HW182365   0.362   4.788   2.462
26842SOL    HW282366   0.221   4.807   2.410
26843SOL     OW82367   9.600  10.314   4.736
26843SOL    HW182368   9.602  10.331   4.642
26843SOL    HW282369   9.649  10.233   4.747
26844SOL     OW82370  13.443  12.060   2.372
26844SOL    HW182371  13.370  11.998   2.375
26844SOL    HW282372  13.441  12.093   2.282
26845SOL     OW82373   3.490  14.052   1.911
26845SOL    HW182374   3.527  13.964   1.921
26845SOL    HW282375   3.420  14.041   1.847
26846SOL     OW82376   6.491   7.559   3.364
26846SOL    HW182377   6.565   7.574   3.305
26846SOL    HW282378   6.527   7.508   3.436
26847SOL     OW82379   1.733   8.267   8.059
26847SOL    HW182380   1.709   8.328   7.989
26847SOL    HW282381   1.764   8.189   8.013
26848SOL     OW82382   9.410   5.902   9.998
26848SOL    HW182383   9.497   5.931   9.970
26848SOL    HW282384   9.354   5.917   9.922
26849SOL     OW82385   2.561   3.526   5.513
26849SOL    HW182386   2.573   3.524   5.418
26849SOL    HW282387   2.636   3.575   5.545
26850SOL     OW82388  10.449   1.304   9.388
26850SOL    HW182389  10.391   1.309   9.463
26850SOL    HW282390  10.504   1.381   9.395
26851SOL     OW82391   9.643   0.981   9.047
26851SOL    HW182392   9.550   1.000   9.029
26851SOL    HW282393   9.642   0.898   9.093
26852SOL     OW82394   5.833   0.587  11.885
26852SOL    HW182395   5.786   0.553  11.961
26852SOL    HW282396   5.840   0.681  11.903
26853SOL     OW82397   5.147   9.733   7.176
26853SOL    HW182398   5.169   9.824   7.160
26853SOL    HW282399   5.212   9.703   7.240
26854SOL     OW82400   8.037  11.594  12.254
26854SOL    HW182401   8.031  11.687  12.275
26854SOL    HW282402   7.997  11.586  12.168
26855SOL     OW82403  11.311  11.359  12.672
26855SOL    HW182404  11.250  11.416  12.718
26855SOL    HW282405  11.297  11.273  12.712
26856SOL     OW82406  13.933   7.240   0.324
26856SOL    HW182407  14.021   7.209   0.302
26856SOL    HW282408  13.905   7.289   0.247
26857SOL     OW82409   1.246   6.637   3.681
26857SOL    HW182410   1.269   6.569   3.744
26857SOL    HW282411   1.288   6.716   3.715
26858SOL     OW82412   5.816   3.508   6.635
26858SOL    HW182413   5.806   3.413   6.624
26858SOL    HW282414   5.763   3.546   6.566
26859SOL     OW82415  10.721  13.457   2.135
26859SOL    HW182416  10.748  13.379   2.184
26859SOL    HW282417  10.628  13.466   2.155
26860SOL     OW82418   5.584   7.268  14.129
26860SOL    HW182419   5.604   7.241  14.039
26860SOL    HW282420   5.666   7.307  14.161
26861SOL     OW82421   2.213  13.425   8.128
26861SOL    HW182422   2.146  13.360   8.108
26861SOL    HW282423   2.181  13.470   8.206
26862SOL     OW82424   5.907   1.163  12.204
26862SOL    HW182425   5.903   1.216  12.283
26862SOL    HW282426   5.919   1.227  12.133
26863SOL     OW82427   2.256  10.099   1.291
26863SOL    HW182428   2.272  10.085   1.197
26863SOL    HW282429   2.295  10.184   1.310
26864SOL     OW82430  12.259   4.270   9.879
26864SOL    HW182431  12.214   4.230   9.805
26864SOL    HW282432  12.277   4.360   9.852
26865SOL     OW82433   0.090  11.885  12.977
26865SOL    HW182434   0.056  11.961  12.929
26865SOL    HW282435   0.183  11.903  12.989
26866SOL     OW82436   1.334   3.713   2.336
26866SOL    HW182437   1.295   3.649   2.395
26866SOL    HW282438   1.424   3.724   2.368
26867SOL     OW82439  12.428   9.111   0.998
26867SOL    HW182440  12.391   9.174   1.060
26867SOL    HW282441  12.352   9.063   0.964
26868SOL     OW82442   0.589   1.383  11.221
26868SOL    HW182443   0.646   1.436  11.276
26868SOL    HW282444   0.541   1.327  11.282
26869SOL     OW82445   4.863   6.340  10.332
26869SOL    HW182446   4.843   6.424  10.292
26869SOL    HW282447   4.915   6.361  10.409
26870SOL     OW82448  14.506   4.161   7.214
26870SOL    HW182449  14.559   4.102   7.160
26870SOL    HW282450  14.567   4.194   7.280
26871SOL     OW82451   2.348   9.645  12.882
26871SOL    HW182452   2.420   9.687  12.929
26871SOL    HW282453   2.389   9.606  12.805
26872SOL     OW82454   9.104  11.592  13.478
26872SOL    HW182455   9.137  11.634  13.399
26872SOL    HW282456   9.039  11.529  13.447
26873SOL     OW82457   0.858  14.523   9.084
26873SOL    HW182458   0.850  14.547   8.992
26873SOL    HW282459   0.902  14.438   9.083
26874SOL     OW82460   8.859  12.527  12.600
26874SOL    HW182461   8.850  12.598  12.537
26874SOL    HW282462   8.824  12.562  12.682
26875SOL     OW82463   7.639   5.831  10.935
26875SOL    HW182464   7.666   5.802  10.848
26875SOL    HW282465   7.619   5.924  10.923
26876SOL     OW82466   8.305   6.063   6.041
26876SOL    HW182467   8.233   6.033   5.986
26876SOL    HW282468   8.380   6.009   6.014
26877SOL     OW82469   1.752   5.209  10.371
26877SOL    HW182470   1.665   5.171  10.356
26877SOL    HW282471   1.749   5.294  10.327
26878SOL     OW82472   1.852  11.060   9.256
26878SOL    HW182473   1.776  11.066   9.197
26878SOL    HW282474   1.926  11.088   9.202
26879SOL     OW82475  13.281   6.986   2.765
26879SOL    HW182476  13.356   6.945   2.722
26879SOL    HW282477  13.222   6.913   2.784
26880SOL     OW82478   1.432   0.545  11.812
26880SOL    HW182479   1.432   0.567  11.906
26880SOL    HW282480   1.475   0.620  11.770
26881SOL     OW82481  12.761   8.046  10.676
26881SOL    HW182482  12.730   8.113  10.615
26881SOL    HW282483  12.779   8.094  10.757
26882SOL     OW82484   0.193   8.924  11.672
26882SOL    HW182485   0.260   8.885  11.616
26882SOL    HW282486   0.232   8.927  11.759
26883SOL     OW82487   4.582  13.106  12.636
26883SOL    HW182488   4.589  13.032  12.575
26883SOL    HW282489   4.603  13.183  12.583
26884SOL     OW82490  13.064   3.676   3.256
26884SOL    HW182491  13.095   3.602   3.308
26884SOL    HW282492  13.093   3.753   3.305
26885SOL     OW82493  11.855  11.838   1.104
26885SOL    HW182494  11.766  11.807   1.088
26885SOL    HW282495  11.909  11.791   1.041
26886SOL     OW82496   0.983   2.819  14.636
26886SOL    HW182497   1.022   2.733  14.649
26886SOL    HW282498   1.023   2.875  14.702
26887SOL     OW82499  10.597  11.859  10.784
26887SOL    HW182500  10.657  11.787  10.765
26887SOL    HW282501  10.653  11.936  10.791
26888SOL     OW82502   8.133  11.490   3.429
26888SOL    HW182503   8.148  11.478   3.522
26888SOL    HW282504   8.068  11.423   3.406
26889SOL     OW82505  11.068  13.172   0.893
26889SOL    HW182506  10.993  13.181   0.834
26889SOL    HW282507  11.070  13.079   0.915
26890SOL     OW82508  14.153  12.466   2.521
26890SOL    HW182509  14.198  12.389   2.487
26890SOL    HW282510  14.153  12.453   2.616
26891SOL     OW82511   2.699   2.987  10.950
26891SOL    HW182512   2.753   3.014  10.875
26891SOL    HW282513   2.610   3.013  10.927
26892SOL     OW82514   0.107  12.503  12.848
26892SOL    HW182515   0.158  12.550  12.915
26892SOL    HW282516   0.029  12.472  12.894
26893SOL     OW82517   2.211   4.864   2.427
26893SOL    HW182518   2.285   4.830   2.477
26893SOL    HW282519   2.221   4.825   2.340
26894SOL     OW82520   7.950  13.212  14.342
26894SOL    HW182521   7.935  13.284  14.281
26894SOL    HW282522   7.996  13.253  14.416
26895SOL     OW82523   6.165  12.148  10.789
26895SOL    HW182524   6.070  12.143  10.802
26895SOL    HW282525   6.190  12.234  10.823
26896SOL     OW82526  14.738  13.311   7.850
26896SOL    HW182527  14.742  13.405   7.831
26896SOL    HW282528  14.674  13.276   7.788
26897SOL     OW82529  13.018   2.460   1.096
26897SOL    HW182530  13.068   2.427   1.171
26897SOL    HW282531  13.074   2.528   1.058
26898SOL     OW82532   4.178  11.182  11.918
26898SOL    HW182533   4.083  11.181  11.922
26898SOL    HW282534   4.206  11.196  12.008
26899SOL     OW82535  11.764  13.214   0.093
26899SOL    HW182536  11.797  13.304   0.093
26899SOL    HW282537  11.688  13.216   0.151
26900SOL     OW82538  14.823   7.384   2.197
26900SOL    HW182539  14.778   7.314   2.244
26900SOL    HW282540  14.781   7.386   2.111
26901SOL     OW82541   2.900   3.975  11.135
26901SOL    HW182542   2.806   3.983  11.147
26901SOL    HW282543   2.925   4.054  11.086
26902SOL     OW82544   6.587   3.300  11.515
26902SOL    HW182545   6.530   3.337  11.447
26902SOL    HW282546   6.674   3.299  11.476
26903SOL     OW82547   9.969   9.655   1.799
26903SOL    HW182548   9.892   9.611   1.763
26903SOL    HW282549  10.031   9.657   1.726
26904SOL     OW82550  13.597   1.690   1.790
26904SOL    HW182551  13.669   1.753   1.796
26904SOL    HW282552  13.520   1.738   1.821
26905SOL     OW82553  10.711   4.118   4.152
26905SOL    HW182554  10.637   4.061   4.172
26905SOL    HW282555  10.689   4.201   4.195
26906SOL     OW82556  10.918   1.510   6.228
26906SOL    HW182557  11.007   1.477   6.216
26906SOL    HW282558  10.907   1.576   6.160
26907SOL     OW82559   7.229   1.707   5.533
26907SOL    HW182560   7.279   1.786   5.553
26907SOL    HW282561   7.244   1.649   5.608
26908SOL     OW82562   2.924   7.139  11.527
26908SOL    HW182563   2.922   7.047  11.502
26908SOL    HW282564   2.848   7.150  11.585
26909SOL     OW82565  12.636   4.146   4.348
26909SOL    HW182566  12.560   4.197   4.378
26909SOL    HW282567  12.639   4.072   4.408
26910SOL     OW82568   0.379  11.834  12.780
26910SOL    HW182569   0.414  11.921  12.798
26910SOL    HW282570   0.351  11.801  12.865
26911SOL     OW82571  14.532   0.517   3.355
26911SOL    HW182572  14.443   0.532   3.388
26911SOL    HW282573  14.588   0.572   3.410
26912SOL     OW82574  14.811  12.481  12.117
26912SOL    HW182575   0.022  12.498  12.090
26912SOL    HW282576  14.815  12.398  12.164
26913SOL     OW82577  12.474   3.623   6.162
26913SOL    HW182578  12.530   3.678   6.105
26913SOL    HW282579  12.503   3.644   6.250
26914SOL     OW82580   9.683  13.590   0.508
26914SOL    HW182581   9.596  13.626   0.489
26914SOL    HW282582   9.687  13.508   0.459
26915SOL     OW82583   9.808   9.239  10.980
26915SOL    HW182584   9.888   9.273  10.939
26915SOL    HW282585   9.839   9.167  11.036
26916SOL     OW82586   3.829   5.932  11.826
26916SOL    HW182587   3.875   5.867  11.880
26916SOL    HW282588   3.899   5.985  11.788
26917SOL     OW82589  12.949   4.063  11.557
26917SOL    HW182590  12.955   4.148  11.601
26917SOL    HW282591  12.868   4.067  11.507
26918SOL     OW82592  10.022  14.534  13.483
26918SOL    HW182593   9.975  14.545  13.565
26918SOL    HW282594  10.099  14.590  13.491
26919SOL     OW82595  11.455   5.882   1.698
26919SOL    HW182596  11.368   5.921   1.696
26919SOL    HW282597  11.515   5.957   1.698
26920SOL     OW82598   3.867  11.181   6.136
26920SOL    HW182599   3.922  11.190   6.213
26920SOL    HW282600   3.915  11.123   6.078
26921SOL     OW82601  12.716   9.823   6.925
26921SOL    HW182602  12.648   9.776   6.972
26921SOL    HW282603  12.715   9.911   6.962
26922SOL     OW82604   5.211   2.451  11.060
26922SOL    HW182605   5.214   2.403  11.143
26922SOL    HW282606   5.209   2.543  11.086
26923SOL     OW82607   1.946   8.815   8.408
26923SOL    HW182608   1.972   8.752   8.341
26923SOL    HW282609   2.028   8.843   8.448
26924SOL     OW82610  11.480   5.246   7.928
26924SOL    HW182611  11.507   5.337   7.933
26924SOL    HW282612  11.556   5.197   7.960
26925SOL     OW82613   6.848   8.437   3.738
26925SOL    HW182614   6.793   8.436   3.659
26925SOL    HW282615   6.937   8.436   3.704
26926SOL     OW82616  10.302  10.233  11.105
26926SOL    HW182617  10.380  10.232  11.161
26926SOL    HW282618  10.300  10.322  11.069
26927SOL     OW82619  14.639   1.039   3.388
26927SOL    HW182620  14.683   0.996   3.315
26927SOL    HW282621  14.710   1.072   3.443
26928SOL     OW82622   9.576   4.779   8.171
26928SOL    HW182623   9.624   4.699   8.146
26928SOL    HW282624   9.644   4.842   8.193
26929SOL     OW82625   0.562   3.770  14.279
26929SOL    HW182626   0.553   3.677  14.300
26929SOL    HW282627   0.567   3.772  14.184
26930SOL     OW82628  13.981   4.766   2.169
26930SOL    HW182629  14.046   4.762   2.239
26930SOL    HW282630  13.980   4.859   2.143
26931SOL     OW82631   4.766   7.600  13.190
26931SOL    HW182632   4.714   7.645  13.257
26931SOL    HW282633   4.763   7.508  13.216
26932SOL     OW82634  10.454   2.557   6.379
26932SOL    HW182635  10.404   2.561   6.460
26932SOL    HW282636  10.444   2.644   6.340
26933SOL     OW82637   2.377  14.660   8.240
26933SOL    HW182638   2.283  14.669   8.226
26933SOL    HW282639   2.413  14.746   8.218
26934SOL     OW82640  11.685  11.579  10.912
26934SOL    HW182641  11.614  11.635  10.880
26934SOL    HW282642  11.641  11.501  10.946
26935SOL     OW82643   3.629   0.490   5.187
26935SOL    HW182644   3.651   0.416   5.244
26935SOL    HW282645   3.549   0.526   5.224
26936SOL     OW82646   1.117   2.711   3.492
26936SOL    HW182647   1.076   2.774   3.552
26936SOL    HW282648   1.194   2.680   3.539
26937SOL     OW82649  14.655   8.701   6.266
26937SOL    HW182650  14.733   8.648   6.249
26937SOL    HW282651  14.629   8.677   6.355
26938SOL     OW82652   9.779   3.102   1.361
26938SOL    HW182653   9.819   3.186   1.341
26938SOL    HW282654   9.824   3.040   1.304
26939SOL     OW82655   0.710   0.913   0.643
26939SOL    HW182656   0.664   0.838   0.604
26939SOL    HW282657   0.641   0.970   0.676
26940SOL     OW82658   8.315   3.259   5.280
26940SOL    HW182659   8.352   3.299   5.359
26940SOL    HW282660   8.390   3.215   5.239
26941SOL     OW82661  14.800   9.355   6.516
26941SOL    HW182662  14.866   9.304   6.469
26941SOL    HW282663  14.726   9.359   6.456
26942SOL     OW82664  14.046   8.370   7.083
26942SOL    HW182665  14.080   8.360   7.172
26942SOL    HW282666  14.093   8.446   7.048
26943SOL     OW82667   0.387   6.562   7.165
26943SOL    HW182668   0.419   6.621   7.234
26943SOL    HW282669   0.322   6.614   7.118
26944SOL     OW82670   6.959   2.833   6.481
26944SOL    HW182671   6.937   2.864   6.393
26944SOL    HW282672   6.888   2.773   6.505
26945SOL     OW82673   3.988  12.135  13.573
26945SOL    HW182674   3.984  12.045  13.542
26945SOL    HW282675   3.902  12.150  13.612
26946SOL     OW82676   2.053   2.207   0.249
26946SOL    HW182677   2.137   2.241   0.280
26946SOL    HW282678   2.001   2.197   0.329
26947SOL     OW82679   8.979   6.490   4.338
26947SOL    HW182680   8.940   6.542   4.408
26947SOL    HW282681   9.043   6.434   4.383
26948SOL     OW82682  14.707   7.829   7.708
26948SOL    HW182683  14.617   7.799   7.720
26948SOL    HW282684  14.702   7.892   7.636
26949SOL     OW82685   2.488  14.860   6.248
26949SOL    HW182686   2.535   0.013   6.171
26949SOL    HW282687   2.435   0.055   6.277
26950SOL     OW82688   7.915   5.321   5.197
26950SOL    HW182689   7.932   5.409   5.164
26950SOL    HW282690   7.825   5.303   5.170
26951SOL     OW82691   2.330  13.845   0.168
26951SOL    HW182692   2.392  13.842   0.095
26951SOL    HW282693   2.351  13.769   0.221
26952SOL     OW82694  14.230   6.007   2.732
26952SOL    HW182695  14.168   6.011   2.805
26952SOL    HW282696  14.195   5.938   2.675
26953SOL     OW82697   3.477   8.579   2.205
26953SOL    HW182698   3.528   8.501   2.229
26953SOL    HW282699   3.449   8.616   2.289
26954SOL     OW82700   8.426  12.526   4.530
26954SOL    HW182701   8.470  12.454   4.486
26954SOL    HW282702   8.440  12.601   4.472
26955SOL     OW82703   7.457   0.515   0.230
26955SOL    HW182704   7.365   0.526   0.251
26955SOL    HW282705   7.486   0.442   0.285
26956SOL     OW82706   6.047   6.410  11.387
26956SOL    HW182707   6.007   6.429  11.303
26956SOL    HW282708   6.067   6.316  11.384
26957SOL     OW82709  13.251   0.592  10.397
26957SOL    HW182710  13.304   0.524  10.440
26957SOL    HW282711  13.197   0.627  10.467
26958SOL     OW82712   8.092   5.270  10.635
26958SOL    HW182713   8.133   5.279  10.549
26958SOL    HW282714   8.058   5.181  10.636
26959SOL     OW82715   8.954   5.390  10.212
26959SOL    HW182716   9.038   5.431  10.235
26959SOL    HW282717   8.904   5.460  10.170
26960SOL     OW82718   4.264   5.507   2.871
26960SOL    HW182719   4.174   5.495   2.840
26960SOL    HW282720   4.312   5.534   2.793
26961SOL     OW82721   3.370   5.066   7.786
26961SOL    HW182722   3.427   5.067   7.863
26961SOL    HW282723   3.285   5.040   7.820
26962SOL     OW82724   5.688  11.092  12.303
26962SOL    HW182725   5.761  11.031  12.312
26962SOL    HW282726   5.662  11.113  12.392
26963SOL     OW82727  11.329  11.536  10.125
26963SOL    HW182728  11.337  11.545  10.220
26963SOL    HW282729  11.344  11.625  10.092
26964SOL     OW82730  10.188  13.911   1.152
26964SOL    HW182731  10.144  13.936   1.233
26964SOL    HW282732  10.273  13.876   1.181
26965SOL     OW82733   5.327  12.680  13.975
26965SOL    HW182734   5.384  12.724  13.912
26965SOL    HW282735   5.239  12.692  13.939
26966SOL     OW82736   4.865   8.550   8.131
26966SOL    HW182737   4.873   8.610   8.056
26966SOL    HW282738   4.884   8.605   8.207
26967SOL     OW82739   8.745   7.694   7.414
26967SOL    HW182740   8.684   7.701   7.341
26967SOL    HW282741   8.700   7.737   7.487
26968SOL     OW82742  14.028   1.256  13.817
26968SOL    HW182743  13.988   1.312  13.751
26968SOL    HW282744  14.003   1.296  13.900
26969SOL     OW82745   8.752   2.957   8.370
26969SOL    HW182746   8.775   2.904   8.293
26969SOL    HW282747   8.835   2.968   8.417
26970SOL     OW82748  10.737   6.726  10.870
26970SOL    HW182749  10.756   6.693  10.783
26970SOL    HW282750  10.699   6.651  10.917
26971SOL     OW82751   0.560  10.406   5.260
26971SOL    HW182752   0.638  10.351   5.270
26971SOL    HW282753   0.588  10.478   5.204
26972SOL     OW82754   1.446   5.797   4.181
26972SOL    HW182755   1.436   5.801   4.276
26972SOL    HW282756   1.440   5.704   4.160
26973SOL     OW82757   6.110  13.580   2.193
26973SOL    HW182758   6.159  13.508   2.152
26973SOL    HW282759   6.134  13.657   2.142
26974SOL     OW82760   6.339   4.801   4.859
26974SOL    HW182761   6.349   4.788   4.953
26974SOL    HW282762   6.291   4.884   4.852
26975SOL     OW82763  13.548  11.691   0.220
26975SOL    HW182764  13.581  11.682   0.131
26975SOL    HW282765  13.548  11.602   0.255
26976SOL     OW82766   6.254  10.074  14.052
26976SOL    HW182767   6.228  10.162  14.026
26976SOL    HW282768   6.188  10.048  14.117
26977SOL     OW82769   9.563   9.511  12.919
26977SOL    HW182770   9.519   9.581  12.967
26977SOL    HW282771   9.594   9.553  12.839
26978SOL     OW82772   9.478   4.671   5.104
26978SOL    HW182773   9.413   4.734   5.132
26978SOL    HW282774   9.473   4.672   5.008
26979SOL     OW82775   4.172   7.411   2.083
26979SOL    HW182776   4.241   7.477   2.089
26979SOL    HW282777   4.210   7.333   2.123
26980SOL     OW82778  10.709  12.327   7.056
26980SOL    HW182779  10.638  12.280   7.014
26980SOL    HW282780  10.771  12.346   6.986
26981SOL     OW82781   8.565   4.920  10.224
26981SOL    HW182782   8.593   4.925  10.133
26981SOL    HW282783   8.627   4.859  10.265
26982SOL     OW82784   9.055   0.972   6.603
26982SOL    HW182785   8.963   0.996   6.597
26982SOL    HW282786   9.082   1.004   6.689
26983SOL     OW82787  14.473   8.723   8.294
26983SOL    HW182788  14.555   8.754   8.332
26983SOL    HW282789  14.430   8.675   8.365
26984SOL     OW82790   4.563   6.066   6.433
26984SOL    HW182791   4.586   5.979   6.465
26984SOL    HW282792   4.642   6.097   6.389
26985SOL     OW82793   6.606   6.772  10.026
26985SOL    HW182794   6.663   6.804  10.095
26985SOL    HW282795   6.655   6.701   9.985
26986SOL     OW82796   4.876  13.846  14.771
26986SOL    HW182797   4.932  13.814  14.842
26986SOL    HW282798   4.801  13.886  14.816
26987SOL     OW82799   9.129  12.657   0.094
26987SOL    HW182800   9.210  12.637   0.047
26987SOL    HW282801   9.126  12.594   0.166
26988SOL     OW82802  12.995   5.029   2.414
26988SOL    HW182803  12.987   5.088   2.340
26988SOL    HW282804  13.078   4.983   2.399
26989SOL     OW82805   4.633   8.042   4.195
26989SOL    HW182806   4.549   8.036   4.148
26989SOL    HW282807   4.642   7.957   4.237
26990SOL     OW82808   0.606   6.424  14.622
26990SOL    HW182809   0.621   6.350  14.681
26990SOL    HW282810   0.567   6.492  14.678
26991SOL     OW82811   6.599   7.746   5.735
26991SOL    HW182812   6.521   7.715   5.783
26991SOL    HW282813   6.570   7.827   5.693
26992SOL     OW82814  14.555  12.278  13.416
26992SOL    HW182815  14.526  12.189  13.396
26992SOL    HW282816  14.644  12.268  13.448
26993SOL     OW82817   5.230   0.737   6.012
26993SOL    HW182818   5.266   0.825   6.024
26993SOL    HW282819   5.234   0.723   5.917
26994SOL     OW82820   5.603   1.821  12.376
26994SOL    HW182821   5.619   1.906  12.417
26994SOL    HW282822   5.633   1.758  12.442
26995SOL     OW82823  12.381  13.592   3.460
26995SOL    HW182824  12.349  13.595   3.369
26995SOL    HW282825  12.340  13.667   3.503
26996SOL     OW82826  12.278   5.451   7.646
26996SOL    HW182827  12.225   5.399   7.706
26996SOL    HW282828  12.368   5.424   7.664
26997SOL     OW82829  10.838   3.617   0.183
26997SOL    HW182830  10.821   3.676   0.109
26997SOL    HW282831  10.882   3.673   0.247
26998SOL     OW82832   0.380   1.084  10.434
26998SOL    HW182833   0.406   1.172  10.406
26998SOL    HW282834   0.291   1.074  10.400
26999SOL     OW82835   7.845   4.545   9.976
26999SOL    HW182836   7.931   4.557  10.016
26999SOL    HW282837   7.835   4.450   9.969
27000SOL     OW82838  13.861   9.232  11.598
27000SOL    HW182839  13.818   9.313  11.574
27000SOL    HW282840  13.821   9.166  11.542
27001SOL     OW82841   8.805  10.442   9.304
27001SOL    HW182842   8.830  10.389   9.229
27001SOL    HW282843   8.869  10.513   9.306
27002SOL     OW82844   7.268   3.546   7.169
27002SOL    HW182845   7.243   3.627   7.125
27002SOL    HW282846   7.216   3.478   7.127
27003SOL     OW82847   5.628  12.545  13.915
27003SOL    HW182848   5.610  12.631  13.875
27003SOL    HW282849   5.666  12.567  14.000
27004SOL     OW82850  12.473   0.469   6.947
27004SOL    HW182851  12.394   0.514   6.979
27004SOL    HW282852  12.445   0.380   6.929
27005SOL     OW82853   3.270   8.076   8.226
27005SOL    HW182854   3.360   8.096   8.201
27005SOL    HW282855   3.221   8.156   8.206
27006SOL     OW82856   6.503   9.482   0.918
27006SOL    HW182857   6.474   9.552   0.859
27006SOL    HW282858   6.569   9.433   0.868
27007SOL     OW82859   9.998  10.369  14.235
27007SOL    HW182860  10.024  10.315  14.310
27007SOL    HW282861  10.016  10.315  14.159
27008SOL     OW82862  11.098   3.378   2.872
27008SOL    HW182863  11.029   3.423   2.920
27008SOL    HW282864  11.067   3.287   2.865
27009SOL     OW82865  10.324  12.683  11.223
27009SOL    HW182866  10.327  12.590  11.201
27009SOL    HW282867  10.395  12.695  11.287
27010SOL     OW82868   8.684   1.693  14.721
27010SOL    HW182869   8.764   1.694  14.774
27010SOL    HW282870   8.615   1.725  14.780
27011SOL     OW82871   5.558   7.490   3.781
27011SOL    HW182872   5.550   7.556   3.850
27011SOL    HW282873   5.548   7.540   3.699
27012SOL     OW82874   6.671   3.942   2.857
27012SOL    HW182875   6.742   3.880   2.872
27012SOL    HW282876   6.712   4.028   2.859
27013SOL     OW82877   1.995   3.856   9.523
27013SOL    HW182878   2.039   3.772   9.509
27013SOL    HW282879   2.058   3.907   9.574
27014SOL     OW82880   0.101   8.105  12.661
27014SOL    HW182881   0.107   8.077  12.569
27014SOL    HW282882   0.189   8.089  12.696
27015SOL     OW82883   2.246  12.812   3.621
27015SOL    HW182884   2.154  12.796   3.597
27015SOL    HW282885   2.245  12.821   3.716
27016SOL     OW82886  11.606   6.048   1.962
27016SOL    HW182887  11.587   5.956   1.979
27016SOL    HW282888  11.654   6.048   1.879
27017SOL     OW82889   6.855   2.468  10.171
27017SOL    HW182890   6.864   2.517  10.253
27017SOL    HW282891   6.902   2.520  10.107
27018SOL     OW82892  11.755   0.396  13.353
27018SOL    HW182893  11.827   0.364  13.299
27018SOL    HW282894  11.764   0.492  13.350
27019SOL     OW82895   8.398   6.391   8.592
27019SOL    HW182896   8.437   6.402   8.679
27019SOL    HW282897   8.401   6.296   8.577
27020SOL     OW82898  13.634   6.447   1.765
27020SOL    HW182899  13.583   6.366   1.756
27020SOL    HW282900  13.612   6.498   1.687
27021SOL     OW82901   3.746  10.069  11.534
27021SOL    HW182902   3.782  10.031  11.614
27021SOL    HW282903   3.652  10.078  11.552
27022SOL     OW82904  13.196   4.622  12.542
27022SOL    HW182905  13.123   4.684  12.549
27022SOL    HW282906  13.275   4.676  12.546
27023SOL     OW82907  12.197   0.513   1.926
27023SOL    HW182908  12.212   0.525   1.832
27023SOL    HW282909  12.223   0.423   1.944
27024SOL     OW82910  13.929   0.628   2.777
27024SOL    HW182911  13.839   0.663   2.783
27024SOL    HW282912  13.932   0.587   2.690
27025SOL     OW82913  10.434   8.246  11.311
27025SOL    HW182914  10.489   8.207  11.244
27025SOL    HW282915  10.453   8.196  11.391
27026SOL     OW82916   7.548   3.049  11.571
27026SOL    HW182917   7.472   3.003  11.535
27026SOL    HW282918   7.612   3.050  11.500
27027SOL     OW82919   2.129   1.287  13.374
27027SOL    HW182920   2.069   1.240  13.432
27027SOL    HW282921   2.161   1.360  13.426
27028SOL     OW82922   2.411   5.237   5.196
27028SOL    HW182923   2.445   5.269   5.113
27028SOL    HW282924   2.487   5.234   5.254
27029SOL     OW82925   5.070  10.416   5.822
27029SOL    HW182926   5.042  10.436   5.911
27029SOL    HW282927   5.165  10.431   5.823
27030SOL     OW82928   4.896   4.498  14.193
27030SOL    HW182929   4.889   4.564  14.124
27030SOL    HW282930   4.937   4.423  14.151
27031SOL     OW82931   0.891   2.407  12.470
27031SOL    HW182932   0.924   2.326  12.431
27031SOL    HW282933   0.811   2.427  12.421
27032SOL     OW82934  10.720   3.641  11.439
27032SOL    HW182935  10.739   3.711  11.376
27032SOL    HW282936  10.772   3.663  11.516
27033SOL     OW82937   5.495  10.519   3.444
27033SOL    HW182938   5.497  10.557   3.531
27033SOL    HW282939   5.575  10.551   3.402
27034SOL     OW82940  11.021   2.698   4.062
27034SOL    HW182941  10.985   2.627   4.008
27034SOL    HW282942  11.036   2.659   4.147
27035SOL     OW82943   9.091   8.909   2.767
27035SOL    HW182944   9.154   8.911   2.840
27035SOL    HW282945   9.116   8.832   2.716
27036SOL     OW82946   6.235  11.517   2.592
27036SOL    HW182947   6.281  11.474   2.664
27036SOL    HW282948   6.142  11.496   2.607
27037SOL     OW82949   8.339   1.100   4.206
27037SOL    HW182950   8.373   1.159   4.138
27037SOL    HW282951   8.389   1.019   4.194
27038SOL     OW82952   0.324   4.287   6.427
27038SOL    HW182953   0.412   4.263   6.398
27038SOL    HW282954   0.300   4.220   6.490
27039SOL     OW82955   6.532   9.758  10.935
27039SOL    HW182956   6.483   9.681  10.963
27039SOL    HW282957   6.464   9.824  10.918
27040SOL     OW82958   6.808   2.530   6.981
27040SOL    HW182959   6.770   2.483   6.907
27040SOL    HW282960   6.749   2.511   7.054
27041SOL     OW82961   1.292  11.495  10.754
27041SOL    HW182962   1.196  11.493  10.751
27041SOL    HW282963   1.315  11.573  10.703
27042SOL     OW82964   6.295   4.097   6.655
27042SOL    HW182965   6.316   4.153   6.580
27042SOL    HW282966   6.233   4.149   6.707
27043SOL     OW82967   1.706  13.722   8.379
27043SOL    HW182968   1.612  13.736   8.394
27043SOL    HW282969   1.724  13.768   8.296
27044SOL     OW82970   6.560  14.471   4.755
27044SOL    HW182971   6.605  14.442   4.676
27044SOL    HW282972   6.488  14.525   4.724
27045SOL     OW82973   2.294   2.251  14.842
27045SOL    HW182974   2.363   2.208  14.791
27045SOL    HW282975   2.341   2.318   0.013
27046SOL     OW82976  14.428   0.575   6.653
27046SOL    HW182977  14.442   0.642   6.720
27046SOL    HW282978  14.392   0.622   6.579
27047SOL     OW82979   5.143   0.021   5.856
27047SOL    HW182980   5.131   0.045   5.948
27047SOL    HW282981   5.225   0.063   5.831
27048SOL     OW82982   6.325  11.212   4.400
27048SOL    HW182983   6.262  11.243   4.335
27048SOL    HW282984   6.346  11.123   4.373
27049SOL     OW82985   9.151   3.614  11.301
27049SOL    HW182986   9.111   3.690  11.258
27049SOL    HW282987   9.082   3.548  11.304
27050SOL     OW82988   0.385  14.242   5.998
27050SOL    HW182989   0.298  14.265   6.031
27050SOL    HW282990   0.369  14.171   5.935
27051SOL     OW82991  11.885   8.746   7.548
27051SOL    HW182992  11.903   8.831   7.509
27051SOL    HW282993  11.825   8.703   7.487
27052SOL     OW82994  12.286   2.006   5.113
27052SOL    HW182995  12.337   1.933   5.077
27052SOL    HW282996  12.219   2.023   5.047
27053SOL     OW82997   6.082   9.544  11.673
27053SOL    HW182998   6.054   9.453  11.662
27053SOL    HW282999   6.155   9.554  11.612
27054SOL     OW83000   3.670   9.796   4.570
27054SOL    HW183001   3.685   9.727   4.505
27054SOL    HW283002   3.757   9.810   4.609
27055SOL     OW83003  12.002   2.476   8.350
27055SOL    HW183004  11.969   2.499   8.437
27055SOL    HW283005  12.097   2.468   8.362
27056SOL     OW83006  12.949   6.766  14.131
27056SOL    HW183007  12.917   6.678  14.115
27056SOL    HW283008  12.962   6.770  14.226
27057SOL     OW83009   8.127   2.885  12.152
27057SOL    HW183010   8.209   2.931  12.137
27057SOL    HW283011   8.087   2.877  12.066
27058SOL     OW83012   0.287   7.369   0.982
27058SOL    HW183013   0.278   7.448   0.928
27058SOL    HW283014   0.236   7.302   0.935
27059SOL     OW83015  12.306   6.049  13.765
27059SOL    HW183016  12.335   6.016  13.679
27059SOL    HW283017  12.308   6.144  13.756
27060SOL     OW83018   0.598   4.974   4.811
27060SOL    HW183019   0.605   5.062   4.774
27060SOL    HW283020   0.533   4.981   4.880
27061SOL     OW83021  10.380   4.213  14.391
27061SOL    HW183022  10.370   4.166  14.308
27061SOL    HW283023  10.362   4.147  14.458
27062SOL     OW83024  11.233  11.841  13.608
27062SOL    HW183025  11.276  11.818  13.525
27062SOL    HW283026  11.140  11.846  13.586
27063SOL     OW83027  13.476   9.555   7.271
27063SOL    HW183028  13.495   9.627   7.210
27063SOL    HW283029  13.438   9.598   7.348
27064SOL     OW83030   8.480  10.358   4.292
27064SOL    HW183031   8.442  10.356   4.204
27064SOL    HW283032   8.558  10.412   4.284
27065SOL     OW83033  14.560   4.695   5.171
27065SOL    HW183034  14.623   4.687   5.099
27065SOL    HW283035  14.585   4.777   5.215
27066SOL     OW83036  11.717   2.327  10.031
27066SOL    HW183037  11.676   2.413  10.044
27066SOL    HW283038  11.684   2.298   9.946
27067SOL     OW83039   3.753  11.537   6.742
27067SOL    HW183040   3.734  11.447   6.717
27067SOL    HW283041   3.822  11.565   6.680
27068SOL     OW83042   8.514  10.229   9.573
27068SOL    HW183043   8.506  10.246   9.666
27068SOL    HW283044   8.427  10.250   9.538
27069SOL     OW83045  13.703   8.449   7.102
27069SOL    HW183046  13.687   8.356   7.115
27069SOL    HW283047  13.620   8.484   7.071
27070SOL     OW83048   8.025   8.421   0.979
27070SOL    HW183049   8.017   8.327   0.964
27070SOL    HW283050   8.079   8.427   1.059
27071SOL     OW83051  11.205   6.510   3.936
27071SOL    HW183052  11.218   6.417   3.953
27071SOL    HW283053  11.289   6.550   3.956
27072SOL     OW83054   1.695   6.858   6.558
27072SOL    HW183055   1.667   6.864   6.650
27072SOL    HW283056   1.702   6.949   6.529
27073SOL     OW83057  14.479   1.823   2.948
27073SOL    HW183058  14.423   1.892   2.911
27073SOL    HW283059  14.564   1.837   2.907
27074SOL     OW83060  12.937  12.354   3.783
27074SOL    HW183061  12.913  12.269   3.746
27074SOL    HW283062  13.032  12.349   3.794
27075SOL     OW83063   5.062   9.624   0.938
27075SOL    HW183064   5.035   9.534   0.952
27075SOL    HW283065   5.131   9.640   1.002
27076SOL     OW83066   7.572   8.282   7.497
27076SOL    HW183067   7.546   8.372   7.514
27076SOL    HW283068   7.629   8.258   7.570
27077SOL     OW83069   3.926   1.160  11.918
27077SOL    HW183070   3.990   1.110  11.969
27077SOL    HW283071   3.932   1.122  11.830
27078SOL     OW83072  13.777   4.282  12.130
27078SOL    HW183073  13.755   4.218  12.198
27078SOL    HW283074  13.868   4.260  12.107
27079SOL     OW83075   0.703  13.302  10.750
27079SOL    HW183076   0.789  13.321  10.712
27079SOL    HW283077   0.662  13.388  10.761
27080SOL     OW83078   3.849   4.003  10.900
27080SOL    HW183079   3.773   3.961  10.861
27080SOL    HW283080   3.821   4.029  10.987
27081SOL     OW83081  12.232   8.730  14.496
27081SOL    HW183082  12.189   8.672  14.434
27081SOL    HW283083  12.184   8.717  14.578
27082SOL     OW83084  12.020   5.001   4.402
27082SOL    HW183085  11.954   5.056   4.360
27082SOL    HW283086  11.979   4.914   4.406
27083SOL     OW83087  14.355  14.273   7.821
27083SOL    HW183088  14.376  14.316   7.904
27083SOL    HW283089  14.260  14.275   7.816
27084SOL     OW83090   5.685  13.229   8.905
27084SOL    HW183091   5.665  13.218   8.998
27084SOL    HW283092   5.599  13.232   8.862
27085SOL     OW83093   9.458   7.853   1.376
27085SOL    HW183094   9.428   7.779   1.429
27085SOL    HW283095   9.522   7.815   1.316
27086SOL     OW83096   7.904   6.274   8.257
27086SOL    HW183097   7.872   6.186   8.237
27086SOL    HW283098   7.938   6.267   8.346
27087SOL     OW83099  13.466  10.551   2.608
27087SOL    HW183100  13.418  10.599   2.675
27087SOL    HW283101  13.430  10.581   2.525
27088SOL     OW83102   6.777   0.299   3.799
27088SOL    HW183103   6.713   0.245   3.752
27088SOL    HW283104   6.824   0.237   3.854
27089SOL     OW83105  14.154   3.524   9.636
27089SOL    HW183106  14.098   3.492   9.566
27089SOL    HW283107  14.094   3.557   9.703
27090SOL     OW83108  12.793  14.011   8.479
27090SOL    HW183109  12.814  14.065   8.403
27090SOL    HW283110  12.731  14.063   8.529
27091SOL     OW83111  14.861   5.930   4.199
27091SOL    HW183112  14.784   5.888   4.236
27091SOL    HW283113  14.827   5.978   4.123
27092SOL     OW83114  12.383   8.565   0.280
27092SOL    HW183115  12.413   8.555   0.190
27092SOL    HW283116  12.288   8.577   0.273
27093SOL     OW83117   8.687   8.004  11.217
27093SOL    HW183118   8.633   8.068  11.171
27093SOL    HW283119   8.758   7.985  11.157
27094SOL     OW83120   1.795   2.317  11.815
27094SOL    HW183121   1.879   2.329  11.859
27094SOL    HW283122   1.817   2.313  11.722
27095SOL     OW83123  11.406   2.864  13.898
27095SOL    HW183124  11.411   2.960  13.894
27095SOL    HW283125  11.333   2.847  13.958
27096SOL     OW83126   4.763   5.517  11.403
27096SOL    HW183127   4.717   5.506  11.487
27096SOL    HW283128   4.837   5.575  11.424
27097SOL     OW83129   7.020   1.400   0.610
27097SOL    HW183130   7.002   1.357   0.527
27097SOL    HW283131   6.969   1.350   0.674
27098SOL     OW83132  10.384  12.366   3.500
27098SOL    HW183133  10.302  12.346   3.545
27098SOL    HW283134  10.390  12.300   3.431
27099SOL     OW83135  13.203  11.900   2.342
27099SOL    HW183136  13.118  11.943   2.351
27099SOL    HW283137  13.186  11.825   2.285
27100SOL     OW83138   0.395  13.681   2.462
27100SOL    HW183139   0.392  13.601   2.515
27100SOL    HW283140   0.338  13.743   2.509
27101SOL     OW83141   7.585  13.275  11.277
27101SOL    HW183142   7.567  13.331  11.201
27101SOL    HW283143   7.570  13.186  11.246
27102SOL     OW83144  10.047   1.267   6.746
27102SOL    HW183145  10.128   1.257   6.696
27102SOL    HW283146  10.011   1.351   6.718
27103SOL     OW83147   0.094   5.396   7.314
27103SOL    HW183148   0.168   5.369   7.367
27103SOL    HW283149   0.019   5.349   7.350
27104SOL     OW83150   0.507   6.845   8.112
27104SOL    HW183151   0.566   6.919   8.121
27104SOL    HW283152   0.470   6.854   8.024
27105SOL     OW83153   0.391   4.976   0.201
27105SOL    HW183154   0.340   5.015   0.273
27105SOL    HW283155   0.424   4.894   0.237
27106SOL     OW83156   0.107   0.334   8.249
27106SOL    HW183157   0.159   0.399   8.295
27106SOL    HW283158   0.086   0.375   8.165
27107SOL     OW83159   3.955  10.404   7.260
27107SOL    HW183160   3.923  10.440   7.342
27107SOL    HW283161   3.984  10.316   7.283
27108SOL     OW83162   7.923   4.543   0.136
27108SOL    HW183163   7.932   4.520   0.044
27108SOL    HW283164   7.874   4.470   0.175
27109SOL     OW83165   2.227   6.101   5.559
27109SOL    HW183166   2.284   6.090   5.483
27109SOL    HW283167   2.139   6.084   5.526
27110SOL     OW83168   0.067   5.343  11.072
27110SOL    HW183169  14.861   5.358  11.032
27110SOL    HW283170   0.093   5.429  11.106
27111SOL     OW83171  10.020  12.713  10.308
27111SOL    HW183172  10.111  12.711  10.338
27111SOL    HW283173   9.991  12.622  10.314
27112SOL     OW83174   7.746   3.409   4.740
27112SOL    HW183175   7.661   3.369   4.756
27112SOL    HW283176   7.784   3.419   4.828
27113SOL     OW83177  10.513   6.883   4.642
27113SOL    HW183178  10.523   6.789   4.629
27113SOL    HW283179  10.422   6.901   4.620
27114SOL     OW83180   1.219  10.876   5.254
27114SOL    HW183181   1.268  10.811   5.304
27114SOL    HW283182   1.262  10.959   5.274
27115SOL     OW83183  13.223  13.726   7.559
27115SOL    HW183184  13.158  13.794   7.542
27115SOL    HW283185  13.222  13.671   7.481
27116SOL     OW83186   6.575   3.013   6.888
27116SOL    HW183187   6.646   2.981   6.943
27116SOL    HW283188   6.566   3.105   6.912
27117SOL     OW83189  14.084   9.007   1.772
27117SOL    HW183190  14.064   8.934   1.830
27117SOL    HW283191  14.002   9.024   1.726
27118SOL     OW83192   8.037  13.185   7.948
27118SOL    HW183193   8.046  13.268   7.995
27118SOL    HW283194   7.948  13.186   7.914
27119SOL     OW83195  12.400  10.893  10.485
27119SOL    HW183196  12.307  10.888  10.461
27119SOL    HW283197  12.408  10.837  10.562
27120SOL     OW83198   6.140   8.626   1.102
27120SOL    HW183199   6.091   8.586   1.174
27120SOL    HW283200   6.085   8.699   1.073
27121SOL     OW83201   8.605   4.018  10.698
27121SOL    HW183202   8.630   3.981  10.613
27121SOL    HW283203   8.509   4.017  10.697
27122SOL     OW83204  11.564   7.547   9.874
27122SOL    HW183205  11.616   7.611   9.923
27122SOL    HW283206  11.542   7.592   9.792
27123SOL     OW83207  10.742   6.581   4.898
27123SOL    HW183208  10.819   6.573   4.843
27123SOL    HW283209  10.669   6.551   4.843
27124SOL     OW83210   2.131   7.204   5.776
27124SOL    HW183211   2.130   7.130   5.715
27124SOL    HW283212   2.053   7.191   5.830
27125SOL     OW83213  10.930  12.835   2.901
27125SOL    HW183214  10.849  12.822   2.950
27125SOL    HW283215  10.977  12.902   2.951
27126SOL     OW83216   4.575   0.607   1.599
27126SOL    HW183217   4.536   0.687   1.564
27126SOL    HW283218   4.658   0.599   1.553
27127SOL     OW83219   1.812   7.920   2.042
27127SOL    HW183220   1.773   7.872   1.970
27127SOL    HW283221   1.880   7.861   2.076
27128SOL     OW83222   5.824   6.321  10.900
27128SOL    HW183223   5.789   6.334  10.812
27128SOL    HW283224   5.851   6.229  10.903
27129SOL     OW83225   2.628   1.460   0.949
27129SOL    HW183226   2.534   1.474   0.937
27129SOL    HW283227   2.635   1.399   1.022
27130SOL     OW83228   4.744  14.329  11.920
27130SOL    HW183229   4.752  14.299  11.829
27130SOL    HW283230   4.801  14.405  11.925
27131SOL     OW83231   6.205   8.943   1.429
27131SOL    HW183232   6.225   9.002   1.356
27131SOL    HW283233   6.130   8.892   1.399
27132SOL     OW83234  14.019  12.439  13.692
27132SOL    HW183235  14.101  12.482  13.715
27132SOL    HW283236  13.956  12.510  13.682
27133SOL     OW83237  12.212   7.180   9.254
27133SOL    HW183238  12.220   7.088   9.281
27133SOL    HW283239  12.286   7.194   9.195
27134SOL     OW83240   9.074  10.646   0.455
27134SOL    HW183241   9.106  10.734   0.475
27134SOL    HW283242   9.094  10.594   0.534
27135SOL     OW83243   0.373   0.746   3.480
27135SOL    HW183244   0.440   0.710   3.538
27135SOL    HW283245   0.413   0.823   3.441
27136SOL     OW83246  10.106   6.157   5.679
27136SOL    HW183247  10.176   6.134   5.618
27136SOL    HW283248  10.075   6.072   5.712
27137SOL     OW83249   9.582   5.126   6.650
27137SOL    HW183250   9.574   5.038   6.612
27137SOL    HW283251   9.634   5.175   6.586
27138SOL     OW83252   8.784   7.413  14.053
27138SOL    HW183253   8.734   7.434  13.975
27138SOL    HW283254   8.727   7.357  14.105
27139SOL     OW83255  12.876   6.262  13.828
27139SOL    HW183256  12.941   6.206  13.784
27139SOL    HW283257  12.927   6.317  13.887
27140SOL     OW83258   3.248   4.517   2.838
27140SOL    HW183259   3.292   4.514   2.754
27140SOL    HW283260   3.186   4.444   2.836
27141SOL     OW83261   3.085   9.836   6.810
27141SOL    HW183262   3.044   9.760   6.851
27141SOL    HW283263   3.065   9.826   6.717
27142SOL     OW83264  10.196   1.599  10.124
27142SOL    HW183265  10.165   1.648  10.201
27142SOL    HW283266  10.125   1.539  10.103
27143SOL     OW83267  13.161  14.294  13.577
27143SOL    HW183268  13.247  14.294  13.535
27143SOL    HW283269  13.127  14.206  13.562
27144SOL     OW83270   8.732   6.885  10.032
27144SOL    HW183271   8.781   6.818  10.080
27144SOL    HW283272   8.756   6.967  10.076
27145SOL     OW83273   0.779   9.341   5.119
27145SOL    HW183274   0.755   9.251   5.098
27145SOL    HW283275   0.705   9.374   5.170
27146SOL     OW83276  14.495   0.516   5.153
27146SOL    HW183277  14.402   0.532   5.138
27146SOL    HW283278  14.513   0.433   5.109
27147SOL     OW83279  12.364  12.748  14.570
27147SOL    HW183280  12.441  12.693  14.557
27147SOL    HW283281  12.354  12.796  14.488
27148SOL     OW83282   8.675  11.800  13.730
27148SOL    HW183283   8.755  11.851  13.718
27148SOL    HW283284   8.702  11.727  13.787
27149SOL     OW83285  14.269   6.925  13.304
27149SOL    HW183286  14.301   6.838  13.328
27149SOL    HW283287  14.338   6.961  13.248
27150SOL     OW83288   5.433   4.406   4.006
27150SOL    HW183289   5.405   4.497   4.014
27150SOL    HW283290   5.359   4.361   3.965
27151SOL     OW83291   0.181   1.411  14.014
27151SOL    HW183292   0.166   1.341  13.951
27151SOL    HW283293   0.113   1.475  13.995
27152SOL     OW83294  12.199   6.937  11.709
27152SOL    HW183295  12.257   6.864  11.729
27152SOL    HW283296  12.132   6.900  11.652
27153SOL     OW83297  12.692  12.652   8.040
27153SOL    HW183298  12.601  12.621   8.042
27153SOL    HW283299  12.685  12.746   8.024
27154SOL     OW83300  14.244  12.691  12.079
27154SOL    HW183301  14.250  12.781  12.045
27154SOL    HW283302  14.172  12.694  12.142
27155SOL     OW83303   8.177  11.166   3.008
27155SOL    HW183304   8.220  11.242   2.970
27155SOL    HW283305   8.235  11.093   2.988
27156SOL     OW83306  13.654  11.342   4.113
27156SOL    HW183307  13.685  11.257   4.080
27156SOL    HW283308  13.719  11.367   4.178
27157SOL     OW83309   5.370  11.995   6.015
27157SOL    HW183310   5.355  12.070   6.073
27157SOL    HW283311   5.419  12.032   5.941
27158SOL     OW83312   0.603   1.079  12.914
27158SOL    HW183313   0.581   1.003  12.859
27158SOL    HW283314   0.568   1.056  13.001
27159SOL     OW83315   3.910  12.829   5.911
27159SOL    HW183316   3.835  12.808   5.967
27159SOL    HW283317   3.914  12.925   5.912
27160SOL     OW83318   9.245  13.605   8.852
27160SOL    HW183319   9.165  13.644   8.816
27160SOL    HW283320   9.214  13.528   8.901
27161SOL     OW83321  10.377   0.997  11.811
27161SOL    HW183322  10.432   0.930  11.771
27161SOL    HW283323  10.321   0.948  11.871
27162SOL     OW83324  11.844  12.460   3.424
27162SOL    HW183325  11.784  12.426   3.357
27162SOL    HW283326  11.898  12.384   3.448
27163SOL     OW83327  13.579  11.397  10.048
27163SOL    HW183328  13.520  11.466  10.078
27163SOL    HW283329  13.646  11.444   9.999
27164SOL     OW83330  10.279   3.255   2.368
27164SOL    HW183331  10.243   3.319   2.306
27164SOL    HW283332  10.206   3.236   2.427
27165SOL     OW83333   3.636   6.018  10.096
27165SOL    HW183334   3.567   5.962  10.059
27165SOL    HW283335   3.699   5.957  10.134
27166SOL     OW83336   3.396  11.827   3.609
27166SOL    HW183337   3.463  11.780   3.559
27166SOL    HW283338   3.361  11.762   3.670
27167SOL     OW83339   4.624   4.507  12.541
27167SOL    HW183340   4.583   4.545  12.619
27167SOL    HW283341   4.711   4.479  12.571
27168SOL     OW83342   1.670   1.317   2.391
27168SOL    HW183343   1.588   1.279   2.361
27168SOL    HW283344   1.737   1.256   2.361
27169SOL     OW83345   6.327  13.879  11.131
27169SOL    HW183346   6.398  13.856  11.192
27169SOL    HW283347   6.346  13.970  11.106
27170SOL     OW83348  10.132   4.089  11.929
27170SOL    HW183349  10.060   4.123  11.876
27170SOL    HW283350  10.209   4.097  11.873
27171SOL     OW83351   4.262   9.291   0.712
27171SOL    HW183352   4.280   9.208   0.755
27171SOL    HW283353   4.194   9.332   0.765
27172SOL     OW83354  13.646   4.541   2.413
27172SOL    HW183355  13.732   4.511   2.386
27172SOL    HW283356  13.662   4.594   2.492
27173SOL     OW83357   2.846  14.642   0.734
27173SOL    HW183358   2.869  14.570   0.793
27173SOL    HW283359   2.784  14.695   0.784
27174SOL     OW83360  14.637   2.167   7.729
27174SOL    HW183361  14.659   2.103   7.797
27174SOL    HW283362  14.544   2.151   7.710
27175SOL     OW83363   2.618  13.580   4.998
27175SOL    HW183364   2.652  13.668   4.984
27175SOL    HW283365   2.688  13.522   4.968
27176SOL     OW83366  11.524   3.702   5.637
27176SOL    HW183367  11.574   3.779   5.612
27176SOL    HW283368  11.462   3.688   5.565
27177SOL     OW83369   7.764   4.367   6.988
27177SOL    HW183370   7.689   4.321   6.950
27177SOL    HW283371   7.753   4.458   6.961
27178SOL     OW83372  14.706   8.077  12.779
27178SOL    HW183373  14.675   7.986  12.770
27178SOL    HW283374  14.794   8.076  12.740
27179SOL     OW83375   2.286   5.849   0.525
27179SOL    HW183376   2.341   5.812   0.457
27179SOL    HW283377   2.244   5.925   0.484
27180SOL     OW83378   3.115   1.533   6.060
27180SOL    HW183379   3.144   1.573   6.142
27180SOL    HW283380   3.123   1.439   6.075
27181SOL     OW83381   8.746   0.208   6.131
27181SOL    HW183382   8.651   0.219   6.129
27181SOL    HW283383   8.781   0.294   6.152
27182SOL     OW83384   4.455   1.905  14.852
27182SOL    HW183385   4.449   1.930   0.065
27182SOL    HW283386   4.464   1.989  14.806
27183SOL     OW83387   1.755   9.080   4.861
27183SOL    HW183388   1.805   9.142   4.915
27183SOL    HW283389   1.664   9.103   4.876
27184SOL     OW83390   2.912   7.132   8.862
27184SOL    HW183391   2.848   7.095   8.801
27184SOL    HW283392   2.943   7.212   8.820
27185SOL     OW83393   4.104  10.049   2.597
27185SOL    HW183394   4.087  10.044   2.691
27185SOL    HW283395   4.038  10.109   2.564
27186SOL     OW83396  13.908   4.433  10.369
27186SOL    HW183397  13.968   4.450  10.297
27186SOL    HW283398  13.886   4.519  10.403
27187SOL     OW83399   0.710  12.873  13.940
27187SOL    HW183400   0.800  12.862  13.969
27187SOL    HW283401   0.667  12.923  14.010
27188SOL     OW83402   8.602  14.306   1.008
27188SOL    HW183403   8.662  14.231   1.009
27188SOL    HW283404   8.539  14.286   0.938
27189SOL     OW83405   7.578   4.260   9.815
27189SOL    HW183406   7.669   4.255   9.845
27189SOL    HW283407   7.585   4.289   9.724
27190SOL     OW83408   5.287   7.073   2.588
27190SOL    HW183409   5.293   7.127   2.509
27190SOL    HW283410   5.369   7.090   2.635
27191SOL     OW83411   2.747   6.195   3.623
27191SOL    HW183412   2.750   6.154   3.536
27191SOL    HW283413   2.743   6.289   3.605
27192SOL     OW83414  13.206   8.569   4.011
27192SOL    HW183415  13.267   8.641   3.999
27192SOL    HW283416  13.120   8.607   3.991
27193SOL     OW83417   1.447   4.943   3.971
27193SOL    HW183418   1.541   4.951   3.951
27193SOL    HW283419   1.420   4.862   3.928
27194SOL     OW83420  10.929   3.108   0.125
27194SOL    HW183421  11.021   3.102   0.100
27194SOL    HW283422  10.889   3.164   0.058
27195SOL     OW83423  14.286   5.580   2.603
27195SOL    HW183424  14.245   5.541   2.681
27195SOL    HW283425  14.251   5.670   2.601
27196SOL     OW83426   7.079   7.890   4.554
27196SOL    HW183427   7.150   7.952   4.569
27196SOL    HW283428   7.061   7.852   4.641
27197SOL     OW83429  13.388   7.783   0.997
27197SOL    HW183430  13.451   7.713   1.018
27197SOL    HW283431  13.373   7.775   0.903
27198SOL     OW83432  11.769   7.392   1.824
27198SOL    HW183433  11.694   7.445   1.850
27198SOL    HW283434  11.732   7.310   1.794
27199SOL     OW83435   4.554   6.397   1.791
27199SOL    HW183436   4.462   6.375   1.777
27199SOL    HW283437   4.587   6.419   1.704
27200SOL     OW83438  11.657   6.753  11.562
27200SOL    HW183439  11.628   6.716  11.479
27200SOL    HW283440  11.662   6.847  11.547
27201SOL     OW83441   2.488   9.462   9.953
27201SOL    HW183442   2.455   9.393  10.012
27201SOL    HW283443   2.421   9.530   9.956
27202SOL     OW83444  10.906  14.263   6.049
27202SOL    HW183445  10.971  14.258   5.978
27202SOL    HW283446  10.895  14.172   6.077
27203SOL     OW83447  10.626   8.246   0.902
27203SOL    HW183448  10.666   8.317   0.953
27203SOL    HW283449  10.538   8.238   0.937
27204SOL     OW83450  13.888   8.413   4.660
27204SOL    HW183451  13.814   8.365   4.621
27204SOL    HW283452  13.910   8.479   4.594
27205SOL     OW83453  12.873   0.515  10.685
27205SOL    HW183454  12.890   0.422  10.696
27205SOL    HW283455  12.818   0.521  10.607
27206SOL     OW83456  13.852   3.308   1.614
27206SOL    HW183457  13.869   3.214   1.605
27206SOL    HW283458  13.758   3.314   1.629
27207SOL     OW83459   9.145  14.547   5.272
27207SOL    HW183460   9.064  14.550   5.220
27207SOL    HW283461   9.147  14.459   5.308
27208SOL     OW83462  10.901  11.321   8.164
27208SOL    HW183463  10.858  11.327   8.079
27208SOL    HW283464  10.830  11.326   8.228
27209SOL     OW83465  12.093  12.288   0.157
27209SOL    HW183466  12.007  12.327   0.142
27209SOL    HW283467  12.079  12.195   0.143
27210SOL     OW83468  13.099   4.027   1.942
27210SOL    HW183469  13.153   4.068   1.874
27210SOL    HW283470  13.098   3.934   1.918
27211SOL     OW83471   6.915   2.225   0.307
27211SOL    HW183472   6.953   2.138   0.295
27211SOL    HW283473   6.854   2.234   0.234
27212SOL     OW83474   4.631  10.566   7.373
27212SOL    HW183475   4.682  10.561   7.454
27212SOL    HW283476   4.695  10.587   7.306
27213SOL     OW83477   2.830   9.996  13.397
27213SOL    HW183478   2.910   9.948  13.414
27213SOL    HW283479   2.853  10.088  13.411
27214SOL     OW83480   5.427   1.428   2.741
27214SOL    HW183481   5.520   1.442   2.722
27214SOL    HW283482   5.415   1.466   2.828
27215SOL     OW83483   5.225   1.739   5.796
27215SOL    HW183484   5.174   1.820   5.787
27215SOL    HW283485   5.279   1.736   5.718
27216SOL     OW83486  13.933  12.759   3.811
27216SOL    HW183487  13.903  12.838   3.765
27216SOL    HW283488  14.025  12.776   3.831
27217SOL     OW83489   7.545   3.448   1.309
27217SOL    HW183490   7.499   3.399   1.241
27217SOL    HW283491   7.623   3.397   1.328
27218SOL     OW83492  11.209   8.096   1.875
27218SOL    HW183493  11.233   8.009   1.841
27218SOL    HW283494  11.134   8.079   1.932
27219SOL     OW83495   4.419   2.654   5.936
27219SOL    HW183496   4.515   2.657   5.929
27219SOL    HW283497   4.388   2.707   5.863
27220SOL     OW83498   8.263   0.164   2.267
27220SOL    HW183499   8.296   0.083   2.229
27220SOL    HW283500   8.285   0.232   2.203
27221SOL     OW83501   5.218   3.743   5.039
27221SOL    HW183502   5.261   3.797   5.106
27221SOL    HW283503   5.231   3.653   5.070
27222SOL     OW83504  14.467  10.303   0.401
27222SOL    HW183505  14.530  10.234   0.423
27222SOL    HW283506  14.504  10.345   0.323
27223SOL     OW83507   8.564   4.395   2.787
27223SOL    HW183508   8.619   4.345   2.848
27223SOL    HW283509   8.480   4.404   2.833
27224SOL     OW83510  12.678   3.896   1.913
27224SOL    HW183511  12.719   3.893   1.827
27224SOL    HW283512  12.585   3.908   1.895
27225SOL     OW83513   0.133   2.968   9.241
27225SOL    HW183514   0.158   3.036   9.178
27225SOL    HW283515   0.040   2.986   9.259
27226SOL     OW83516  13.473   1.578   5.054
27226SOL    HW183517  13.562   1.544   5.044
27226SOL    HW283518  13.461   1.636   4.979
27227SOL     OW83519  14.598  14.055  13.522
27227SOL    HW183520  14.645  14.135  13.500
27227SOL    HW283521  14.528  14.084  13.581
27228SOL     OW83522  10.557   7.570   8.490
27228SOL    HW183523  10.584   7.635   8.425
27228SOL    HW283524  10.621   7.499   8.479
27229SOL     OW83525  13.708  10.113   7.426
27229SOL    HW183526  13.788  10.096   7.475
27229SOL    HW283527  13.729  10.189   7.371
27230SOL     OW83528   2.050  12.407   3.558
27230SOL    HW183529   2.138  12.370   3.552
27230SOL    HW283530   2.006  12.381   3.477
27231SOL     OW83531   0.978   2.942   1.095
27231SOL    HW183532   0.939   2.891   1.024
27231SOL    HW283533   0.926   3.022   1.097
27232SOL     OW83534   2.609  12.412   9.006
27232SOL    HW183535   2.678  12.354   9.040
27232SOL    HW283536   2.609  12.396   8.912
27233SOL     OW83537   5.138   4.806   5.385
27233SOL    HW183538   5.227   4.843   5.387
27233SOL    HW283539   5.095   4.853   5.313
27234SOL     OW83540   4.544  14.432   8.990
27234SOL    HW183541   4.579  14.412   8.903
27234SOL    HW283542   4.463  14.480   8.973
27235SOL     OW83543   8.848   0.598   0.789
27235SOL    HW183544   8.800   0.566   0.713
27235SOL    HW283545   8.939   0.578   0.770
27236SOL     OW83546  10.945   0.775   5.290
27236SOL    HW183547  11.032   0.736   5.285
27236SOL    HW283548  10.924   0.775   5.383
27237SOL     OW83549  13.621  11.317  14.067
27237SOL    HW183550  13.666  11.236  14.045
27237SOL    HW283551  13.686  11.369  14.113
27238SOL     OW83552  10.669   2.545   7.946
27238SOL    HW183553  10.638   2.500   8.025
27238SOL    HW283554  10.622   2.629   7.947
27239SOL     OW83555   0.155  11.576   4.597
27239SOL    HW183556   0.184  11.537   4.514
27239SOL    HW283557   0.191  11.665   4.596
27240SOL     OW83558   3.372   5.890  10.090
27240SOL    HW183559   3.371   5.811  10.144
27240SOL    HW283560   3.391   5.857  10.002
27241SOL     OW83561  11.876  11.972  10.963
27241SOL    HW183562  11.832  12.034  11.021
27241SOL    HW283563  11.808  11.944  10.902
27242SOL     OW83564   9.603   9.677  14.135
27242SOL    HW183565   9.667   9.606  14.130
27242SOL    HW283566   9.602   9.702  14.227
27243SOL     OW83567  13.670  11.408   1.920
27243SOL    HW183568  13.666  11.384   1.827
27243SOL    HW283569  13.609  11.348   1.963
27244SOL     OW83570   2.067   6.984  10.338
27244SOL    HW183571   2.125   6.942  10.402
27244SOL    HW283572   2.046   6.915  10.276
27245SOL     OW83573   0.329   2.493  11.019
27245SOL    HW183574   0.275   2.425  10.977
27245SOL    HW283575   0.418   2.473  10.992
27246SOL     OW83576   7.077   0.121   8.550
27246SOL    HW183577   7.044   0.089   8.634
27246SOL    HW283578   7.071   0.216   8.556
27247SOL     OW83579  14.383  13.245  13.056
27247SOL    HW183580  14.344  13.287  12.980
27247SOL    HW283581  14.457  13.196  13.021
27248SOL     OW83582   3.470  12.211   5.223
27248SOL    HW183583   3.562  12.187   5.210
27248SOL    HW283584   3.451  12.274   5.153
27249SOL     OW83585   9.306   6.662   4.525
27249SOL    HW183586   9.364   6.609   4.580
27249SOL    HW283587   9.279   6.604   4.454
27250SOL     OW83588   1.849   5.855   3.155
27250SOL    HW183589   1.935   5.863   3.196
27250SOL    HW283590   1.801   5.932   3.186
27251SOL     OW83591  12.386  12.913   3.270
27251SOL    HW183592  12.424  12.864   3.344
27251SOL    HW283593  12.294  12.925   3.294
27252SOL     OW83594   3.381   8.265   7.786
27252SOL    HW183595   3.293   8.231   7.801
27252SOL    HW283596   3.406   8.306   7.870
27253SOL     OW83597  12.004   1.654   4.422
27253SOL    HW183598  12.048   1.666   4.339
27253SOL    HW283599  12.024   1.733   4.472
27254SOL     OW83600   0.189  12.956   4.658
27254SOL    HW183601   0.276  12.946   4.618
27254SOL    HW283602   0.208  12.987   4.747
27255SOL     OW83603  10.582  10.192   8.142
27255SOL    HW183604  10.522  10.258   8.177
27255SOL    HW283605  10.620  10.233   8.065
27256SOL     OW83606  12.285   4.114  12.078
27256SOL    HW183607  12.221   4.131  12.009
27256SOL    HW283608  12.339   4.042  12.044
27257SOL     OW83609   5.198  14.664   5.582
27257SOL    HW183610   5.128  14.606   5.615
27257SOL    HW283611   5.159  14.708   5.507
27258SOL     OW83612  13.579   2.859   6.644
27258SOL    HW183613  13.565   2.947   6.608
27258SOL    HW283614  13.674   2.847   6.640
27259SOL     OW83615   1.579   8.254   3.534
27259SOL    HW183616   1.515   8.216   3.594
27259SOL    HW283617   1.560   8.347   3.534
27260SOL     OW83618  13.171   9.104   7.954
27260SOL    HW183619  13.157   9.089   7.861
27260SOL    HW283620  13.265   9.118   7.962
27261SOL     OW83621   8.696  14.477  13.578
27261SOL    HW183622   8.651  14.463  13.661
27261SOL    HW283623   8.764  14.542  13.597
27262SOL     OW83624   0.857   1.403  10.189
27262SOL    HW183625   0.790   1.468  10.210
27262SOL    HW283626   0.929   1.454  10.152
27263SOL     OW83627   0.748   8.713   4.931
27263SOL    HW183628   0.843   8.710   4.928
27263SOL    HW283629   0.726   8.711   5.024
27264SOL     OW83630   6.578   6.869   0.821
27264SOL    HW183631   6.651   6.908   0.869
27264SOL    HW283632   6.539   6.942   0.772
27265SOL     OW83633  11.279  11.441  12.359
27265SOL    HW183634  11.281  11.413  12.450
27265SOL    HW283635  11.245  11.366  12.311
27266SOL     OW83636  14.862  11.400   3.664
27266SOL    HW183637  14.811  11.322   3.640
27266SOL    HW283638   0.074  11.372   3.655
27267SOL     OW83639   9.730   6.534   0.186
27267SOL    HW183640   9.758   6.509   0.098
27267SOL    HW283641   9.779   6.477   0.244
27268SOL     OW83642   4.495   0.828  12.267
27268SOL    HW183643   4.472   0.862  12.353
27268SOL    HW283644   4.486   0.733  12.276
27269SOL     OW83645   8.976   9.898   2.295
27269SOL    HW183646   9.026   9.947   2.360
27269SOL    HW283647   8.953   9.963   2.228
27270SOL     OW83648  12.957   1.218   7.798
27270SOL    HW183649  12.957   1.135   7.751
27270SOL    HW283650  12.883   1.267   7.762
27271SOL     OW83651   2.604   8.386   6.813
27271SOL    HW183652   2.590   8.444   6.738
27271SOL    HW283653   2.651   8.311   6.776
27272SOL     OW83654   9.424   6.235  13.126
27272SOL    HW183655   9.355   6.296  13.102
27272SOL    HW283656   9.379   6.151  13.138
27273SOL     OW83657  11.929   0.545  10.121
27273SOL    HW183658  11.881   0.472  10.083
27273SOL    HW283659  11.897   0.622  10.073
27274SOL     OW83660  10.519   7.512  10.328
27274SOL    HW183661  10.539   7.536  10.418
27274SOL    HW283662  10.578   7.439  10.309
27275SOL     OW83663  13.192   3.528  13.810
27275SOL    HW183664  13.119   3.578  13.848
27275SOL    HW283665  13.151   3.446  13.780
27276SOL     OW83666  11.647   1.643   1.507
27276SOL    HW183667  11.740   1.662   1.515
27276SOL    HW283668  11.642   1.548   1.501
27277SOL     OW83669   9.109   6.781   2.959
27277SOL    HW183670   9.169   6.840   2.914
27277SOL    HW283671   9.068   6.730   2.890
27278SOL     OW83672  13.678   1.662   3.966
27278SOL    HW183673  13.692   1.581   4.016
27278SOL    HW283674  13.595   1.696   3.998
27279SOL     OW83675  14.203  10.892  10.092
27279SOL    HW183676  14.221  10.984  10.078
27279SOL    HW283677  14.289  10.851  10.098
27280SOL     OW83678   2.006   7.342   3.338
27280SOL    HW183679   2.001   7.281   3.411
27280SOL    HW283680   2.054   7.417   3.372
27281SOL     OW83681  13.299   7.338  10.133
27281SOL    HW183682  13.209   7.303  10.128
27281SOL    HW283683  13.311   7.384  10.050
27282SOL     OW83684   2.645   2.377  12.145
27282SOL    HW183685   2.659   2.472  12.149
27282SOL    HW283686   2.731   2.341  12.121
27283SOL     OW83687   2.803   3.597   4.000
27283SOL    HW183688   2.854   3.677   3.996
27283SOL    HW283689   2.801   3.565   3.910
27284SOL     OW83690  11.943   7.527  10.092
27284SOL    HW183691  11.918   7.488  10.176
27284SOL    HW283692  11.882   7.599  10.079
27285SOL     OW83693   7.182  12.432   8.805
27285SOL    HW183694   7.241  12.470   8.740
27285SOL    HW283695   7.098  12.425   8.760
27286SOL     OW83696  11.075   4.004   0.371
27286SOL    HW183697  11.066   4.025   0.464
27286SOL    HW283698  11.092   4.088   0.329
27287SOL     OW83699  13.445  10.060   8.037
27287SOL    HW183700  13.476  10.089   7.952
27287SOL    HW283701  13.370  10.003   8.017
27288SOL     OW83702  10.800   1.673   0.093
27288SOL    HW183703  10.773   1.754   0.137
27288SOL    HW283704  10.723   1.616   0.096
27289SOL     OW83705  13.469   3.542   6.874
27289SOL    HW183706  13.469   3.585   6.788
27289SOL    HW283707  13.391   3.575   6.917
27290SOL     OW83708   5.615   1.189   6.354
27290SOL    HW183709   5.693   1.210   6.303
27290SOL    HW283710   5.644   1.192   6.445
27291SOL     OW83711  13.811  11.347   2.348
27291SOL    HW183712  13.872  11.412   2.313
27291SOL    HW283713  13.832  11.266   2.302
27292SOL     OW83714   4.639  13.966   1.274
27292SOL    HW183715   4.658  13.954   1.367
27292SOL    HW283716   4.628  13.877   1.241
27293SOL     OW83717  14.764  14.817   6.023
27293SOL    HW183718  14.711  14.738   6.009
27293SOL    HW283719  14.710  14.871   6.082
27294SOL     OW83720   6.598   4.835   4.786
27294SOL    HW183721   6.503   4.843   4.780
27294SOL    HW283722   6.616   4.825   4.880
27295SOL     OW83723  12.105  14.730   3.341
27295SOL    HW183724  12.030  14.789   3.332
27295SOL    HW283725  12.093  14.687   3.425
27296SOL     OW83726   6.639   4.063  12.638
27296SOL    HW183727   6.644   4.155  12.614
27296SOL    HW283728   6.730   4.033  12.638
27297SOL     OW83729   6.985   3.449   8.585
27297SOL    HW183730   7.081   3.452   8.577
27297SOL    HW283731   6.970   3.403   8.667
27298SOL     OW83732   7.486  10.203  11.100
27298SOL    HW183733   7.457  10.288  11.132
27298SOL    HW283734   7.542  10.168  11.170
27299SOL     OW83735  12.913  12.253  13.776
27299SOL    HW183736  12.925  12.181  13.714
27299SOL    HW283737  12.953  12.329  13.734
27300SOL     OW83738   7.804  13.825  11.933
27300SOL    HW183739   7.882  13.779  11.964
27300SOL    HW283740   7.755  13.759  11.884
27301SOL     OW83741   0.710  13.618   6.253
27301SOL    HW183742   0.650  13.589   6.322
27301SOL    HW283743   0.761  13.688   6.294
27302SOL     OW83744  12.641  14.678   2.115
27302SOL    HW183745  12.696  14.629   2.177
27302SOL    HW283746  12.704  14.723   2.059
27303SOL     OW83747   0.400  11.872   1.708
27303SOL    HW183748   0.457  11.796   1.719
27303SOL    HW283749   0.407  11.920   1.790
27304SOL     OW83750   9.551  14.770   3.645
27304SOL    HW183751   9.458  14.750   3.641
27304SOL    HW283752   9.579  14.771   3.553
27305SOL     OW83753  14.267   4.367   8.772
27305SOL    HW183754  14.174   4.375   8.795
27305SOL    HW283755  14.313   4.363   8.855
27306SOL     OW83756  13.272   1.588  10.063
27306SOL    HW183757  13.197   1.644  10.085
27306SOL    HW283758  13.312   1.567  10.147
27307SOL     OW83759  10.774   1.566   7.183
27307SOL    HW183760  10.737   1.558   7.271
27307SOL    HW283761  10.756   1.481   7.142
27308SOL     OW83762  12.853   8.191  11.259
27308SOL    HW183763  12.814   8.278  11.266
27308SOL    HW283764  12.925   8.193  11.323
27309SOL     OW83765   7.463   0.657   1.109
27309SOL    HW183766   7.420   0.685   1.190
27309SOL    HW283767   7.480   0.738   1.062
27310SOL     OW83768  10.606  14.516  11.880
27310SOL    HW183769  10.517  14.483  11.875
27310SOL    HW283770  10.657  14.458  11.824
27311SOL     OW83771  12.507   2.136   7.776
27311SOL    HW183772  12.418   2.136   7.813
27311SOL    HW283773  12.565   2.130   7.851
27312SOL     OW83774  13.203   3.117   0.381
27312SOL    HW183775  13.181   3.160   0.464
27312SOL    HW283776  13.283   3.069   0.400
27313SOL     OW83777   8.829  11.717   3.006
27313SOL    HW183778   8.754  11.673   3.045
27313SOL    HW283779   8.886  11.647   2.976
27314SOL     OW83780   3.085   9.392   8.100
27314SOL    HW183781   3.164   9.343   8.078
27314SOL    HW283782   3.084   9.394   8.196
27315SOL     OW83783   7.298  10.162  11.969
27315SOL    HW183784   7.325  10.243  12.011
27315SOL    HW283785   7.233  10.124  12.028
27316SOL     OW83786   1.885   9.674  14.192
27316SOL    HW183787   1.871   9.735  14.265
27316SOL    HW283788   1.921   9.595  14.234
27317SOL     OW83789   3.718  12.204   9.697
27317SOL    HW183790   3.706  12.127   9.641
27317SOL    HW283791   3.640  12.257   9.681
27318SOL     OW83792   6.562  13.272   1.420
27318SOL    HW183793   6.603  13.191   1.449
27318SOL    HW283794   6.634  13.335   1.417
27319SOL     OW83795   9.961   3.633   1.313
27319SOL    HW183796  10.042   3.684   1.319
27319SOL    HW283797   9.983   3.558   1.258
27320SOL     OW83798  10.277   2.504  12.192
27320SOL    HW183799  10.289   2.576  12.254
27320SOL    HW283800  10.187   2.513  12.162
27321SOL     OW83801   2.647   0.748  12.232
27321SOL    HW183802   2.593   0.775  12.307
27321SOL    HW283803   2.586   0.746  12.158
27322SOL     OW83804   9.921   3.144   4.280
27322SOL    HW183805   9.962   3.225   4.251
27322SOL    HW283806   9.836   3.172   4.314
27323SOL     OW83807   4.461   1.104  13.432
27323SOL    HW183808   4.518   1.181  13.436
27323SOL    HW283809   4.501   1.049  13.364
27324SOL     OW83810  11.286   4.542   8.357
27324SOL    HW183811  11.327   4.495   8.284
27324SOL    HW283812  11.211   4.587   8.317
27325SOL     OW83813   8.444   3.921   4.541
27325SOL    HW183814   8.417   3.834   4.512
27325SOL    HW283815   8.540   3.918   4.540
27326SOL     OW83816   1.076   2.027   1.157
27326SOL    HW183817   1.067   2.121   1.143
27326SOL    HW283818   1.035   2.011   1.241
27327SOL     OW83819  13.284   1.882   5.766
27327SOL    HW183820  13.284   1.974   5.793
27327SOL    HW283821  13.340   1.880   5.689
27328SOL     OW83822   6.945   1.161   6.474
27328SOL    HW183823   6.952   1.066   6.474
27328SOL    HW283824   6.991   1.188   6.394
27329SOL     OW83825   2.955   2.279   4.370
27329SOL    HW183826   2.921   2.218   4.436
27329SOL    HW283827   2.993   2.223   4.302
27330SOL     OW83828   9.339  11.889   0.374
27330SOL    HW183829   9.353  11.949   0.447
27330SOL    HW283830   9.406  11.821   0.385
27331SOL     OW83831  12.487   9.524   9.456
27331SOL    HW183832  12.477   9.560   9.544
27331SOL    HW283833  12.532   9.441   9.469
27332SOL     OW83834  10.374   4.610   1.176
27332SOL    HW183835  10.296   4.647   1.216
27332SOL    HW283836  10.352   4.518   1.163
27333SOL     OW83837  13.257  13.477   2.150
27333SOL    HW183838  13.305  13.403   2.187
27333SOL    HW283839  13.320  13.549   2.148
27334SOL     OW83840   2.600   2.075   1.138
27334SOL    HW183841   2.515   2.050   1.174
27334SOL    HW283842   2.579   2.124   1.058
27335SOL     OW83843   0.836   7.708   0.157
27335SOL    HW183844   0.828   7.789   0.207
27335SOL    HW283845   0.871   7.734   0.072
27336SOL     OW83846  12.487   5.014  10.348
27336SOL    HW183847  12.407   4.982  10.390
27336SOL    HW283848  12.477   4.988  10.256
27337SOL     OW83849   0.932   7.219   2.734
27337SOL    HW183850   0.924   7.314   2.729
27337SOL    HW283851   0.851   7.190   2.776
27338SOL     OW83852   0.009   6.015  11.172
27338SOL    HW183853   0.078   6.081  11.175
27338SOL    HW283854   0.053   5.937  11.135
27339SOL     OW83855  10.564   0.402   8.261
27339SOL    HW183856  10.514   0.331   8.220
27339SOL    HW283857  10.582   0.371   8.349
27340SOL     OW83858   6.868   8.400   5.738
27340SOL    HW183859   6.915   8.317   5.744
27340SOL    HW283860   6.931   8.461   5.700
27341SOL     OW83861   7.925   6.864   9.587
27341SOL    HW183862   7.942   6.894   9.676
27341SOL    HW283863   7.948   6.939   9.532
27342SOL     OW83864  13.016   0.742  12.788
27342SOL    HW183865  12.926   0.716  12.770
27342SOL    HW283866  13.030   0.820  12.733
27343SOL     OW83867  14.095  10.539   2.874
27343SOL    HW183868  14.074  10.446   2.881
27343SOL    HW283869  14.048  10.580   2.946
27344SOL     OW83870  12.899   5.718   0.469
27344SOL    HW183871  12.846   5.679   0.400
27344SOL    HW283872  12.988   5.717   0.434
27345SOL     OW83873   2.071   6.119   1.359
27345SOL    HW183874   2.117   6.203   1.352
27345SOL    HW283875   1.979   6.141   1.346
27346SOL     OW83876  12.503  11.259   9.332
27346SOL    HW183877  12.538  11.173   9.310
27346SOL    HW283878  12.463  11.246   9.418
27347SOL     OW83879  14.630   3.631   3.099
27347SOL    HW183880  14.592   3.718   3.105
27347SOL    HW283881  14.719   3.641   3.132
27348SOL     OW83882   4.836   4.424  12.688
27348SOL    HW183883   4.806   4.360  12.753
27348SOL    HW283884   4.931   4.423  12.694
27349SOL     OW83885   9.306   1.755   5.083
27349SOL    HW183886   9.373   1.810   5.042
27349SOL    HW283887   9.350   1.717   5.159
27350SOL     OW83888   7.034  12.804   5.502
27350SOL    HW183889   7.015  12.797   5.595
27350SOL    HW283890   6.968  12.750   5.459
27351SOL     OW83891  11.176  12.181  12.990
27351SOL    HW183892  11.257  12.187  13.042
27351SOL    HW283893  11.205  12.190  12.899
27352SOL     OW83894  14.786   5.331   4.133
27352SOL    HW183895  14.713   5.307   4.190
27352SOL    HW283896  14.747   5.340   4.046
27353SOL     OW83897   2.571   4.128  10.922
27353SOL    HW183898   2.483   4.115  10.886
27353SOL    HW283899   2.625   4.066  10.874
27354SOL     OW83900   4.048   8.249  10.494
27354SOL    HW183901   4.142   8.235  10.489
27354SOL    HW283902   4.023   8.216  10.580
27355SOL     OW83903   9.604   2.149   3.296
27355SOL    HW183904   9.682   2.204   3.292
27355SOL    HW283905   9.613   2.089   3.222
27356SOL     OW83906   4.823   1.259   8.683
27356SOL    HW183907   4.741   1.278   8.727
27356SOL    HW283908   4.812   1.169   8.650
27357SOL     OW83909  12.390   9.111  13.755
27357SOL    HW183910  12.394   9.022  13.720
27357SOL    HW283911  12.457   9.159  13.706
27358SOL     OW83912  14.206  10.874  12.343
27358SOL    HW183913  14.229  10.926  12.420
27358SOL    HW283914  14.163  10.935  12.284
27359SOL     OW83915   0.322   1.716  11.326
27359SOL    HW183916   0.357   1.751  11.245
27359SOL    HW283917   0.296   1.626  11.305
27360SOL     OW83918  14.028   9.060   4.153
27360SOL    HW183919  14.000   9.129   4.093
27360SOL    HW283920  13.947   9.014   4.176
27361SOL     OW83921  10.024  14.500   3.375
27361SOL    HW183922  10.016  14.462   3.463
27361SOL    HW283923  10.019  14.425   3.316
27362SOL     OW83924   2.820  10.010  12.067
27362SOL    HW183925   2.865  10.025  11.984
27362SOL    HW283926   2.795  10.098  12.096
27363SOL     OW83927  11.661   3.405   7.391
27363SOL    HW183928  11.707   3.445   7.317
27363SOL    HW283929  11.625   3.478   7.440
27364SOL     OW83930   3.957   9.621   2.990
27364SOL    HW183931   3.985   9.704   3.030
27364SOL    HW283932   3.905   9.578   3.058
27365SOL     OW83933   1.144   3.822  10.002
27365SOL    HW183934   1.165   3.893  10.063
27365SOL    HW283935   1.055   3.796  10.025
27366SOL     OW83936   9.726   6.612  10.934
27366SOL    HW183937   9.699   6.668  11.007
27366SOL    HW283938   9.648   6.561  10.913
27367SOL     OW83939   5.205  13.163  13.625
27367SOL    HW183940   5.164  13.123  13.702
27367SOL    HW283941   5.209  13.256  13.646
27368SOL     OW83942   2.960   8.220   8.988
27368SOL    HW183943   3.040   8.253   9.031
27368SOL    HW283944   2.890   8.244   9.048
27369SOL     OW83945   5.544   9.661   2.899
27369SOL    HW183946   5.531   9.701   2.814
27369SOL    HW283947   5.635   9.679   2.922
27370SOL     OW83948   3.102   0.870  14.852
27370SOL    HW183949   3.025   0.884  14.796
27370SOL    HW283950   3.171   0.922  14.810
27371SOL     OW83951  10.257  13.020   6.684
27371SOL    HW183952  10.331  13.029   6.624
27371SOL    HW283953  10.296  13.001   6.769
27372SOL     OW83954   0.948   6.932   9.590
27372SOL    HW183955   0.997   6.910   9.670
27372SOL    HW283956   0.995   6.887   9.520
27373SOL     OW83957  12.416  12.182  13.597
27373SOL    HW183958  12.417  12.271  13.561
27373SOL    HW283959  12.323  12.160  13.603
27374SOL     OW83960   5.870  10.923  12.362
27374SOL    HW183961   5.863  10.843  12.310
27374SOL    HW283962   5.882  10.892  12.452
27375SOL     OW83963  12.442   1.738   7.272
27375SOL    HW183964  12.413   1.828   7.258
27375SOL    HW283965  12.406   1.690   7.198
27376SOL     OW83966  12.490   4.249  10.045
27376SOL    HW183967  12.456   4.246  10.135
27376SOL    HW283968  12.412   4.262   9.991
27377SOL     OW83969   3.705  11.038   8.455
27377SOL    HW183970   3.639  11.043   8.524
27377SOL    HW283971   3.701  11.124   8.412
27378SOL     OW83972  13.676   0.913  10.585
27378SOL    HW183973  13.718   0.868  10.512
27378SOL    HW283974  13.583   0.892  10.577
27379SOL     OW83975   0.105   1.619  10.547
27379SOL    HW183976   0.046   1.571  10.489
27379SOL    HW283977   0.132   1.695  10.496
27380SOL     OW83978   5.453   2.283   4.870
27380SOL    HW183979   5.510   2.313   4.940
27380SOL    HW283980   5.364   2.300   4.903
27381SOL     OW83981   8.269   2.252  12.820
27381SOL    HW183982   8.176   2.266  12.841
27381SOL    HW283983   8.269   2.175  12.763
27382SOL     OW83984   3.133  12.819   4.741
27382SOL    HW183985   3.206  12.769   4.705
27382SOL    HW283986   3.160  12.910   4.736
27383SOL     OW83987   1.963  11.545   0.699
27383SOL    HW183988   2.051  11.508   0.689
27383SOL    HW283989   1.964  11.585   0.786
27384SOL     OW83990   7.522   5.469  11.129
27384SOL    HW183991   7.604   5.423  11.112
27384SOL    HW283992   7.509   5.524  11.052
27385SOL     OW83993  11.987   8.644  12.418
27385SOL    HW183994  11.982   8.606  12.331
27385SOL    HW283995  12.068   8.608  12.455
27386SOL     OW83996  11.711  10.561   8.298
27386SOL    HW183997  11.702  10.656   8.307
27386SOL    HW283998  11.622  10.530   8.280
27387SOL     OW83999   9.931  11.887  14.377
27387SOL    HW184000   9.997  11.820  14.356
27387SOL    HW284001   9.849  11.838  14.383
27388SOL     OW84002  12.370  12.359   4.082
27388SOL    HW184003  12.412  12.383   4.165
27388SOL    HW284004  12.422  12.402   4.015
27389SOL     OW84005   6.035   3.230   4.838
27389SOL    HW184006   5.958   3.185   4.804
27389SOL    HW284007   6.013   3.323   4.834
27390SOL     OW84008   5.860   7.227   2.761
27390SOL    HW184009   5.832   7.238   2.852
27390SOL    HW284010   5.955   7.232   2.765
27391SOL     OW84011   2.074  14.025  12.611
27391SOL    HW184012   2.072  14.110  12.655
27391SOL    HW284013   2.041  13.964  12.676
27392SOL     OW84014   5.025   0.704   4.297
27392SOL    HW184015   4.950   0.654   4.265
27392SOL    HW284016   5.045   0.765   4.226
27393SOL     OW84017   4.230   1.182   0.218
27393SOL    HW184018   4.152   1.229   0.191
27393SOL    HW284019   4.242   1.204   0.310
27394SOL     OW84020   7.870   4.176   5.112
27394SOL    HW184021   7.826   4.158   5.029
27394SOL    HW284022   7.937   4.240   5.090
27395SOL     OW84023   6.490   1.668  10.610
27395SOL    HW184024   6.452   1.701  10.691
27395SOL    HW284025   6.460   1.577  10.606
27396SOL     OW84026   2.258  14.830  12.203
27396SOL    HW184027   2.215   0.036  12.211
27396SOL    HW284028   2.205  14.782  12.139
27397SOL     OW84029  12.309   9.945   8.123
27397SOL    HW184030  12.265  10.008   8.179
27397SOL    HW284031  12.357   9.998   8.059
27398SOL     OW84032   1.837   8.067   1.077
27398SOL    HW184033   1.904   8.001   1.098
27398SOL    HW284034   1.880   8.126   1.015
27399SOL     OW84035   7.961   3.522  14.197
27399SOL    HW184036   7.952   3.427  14.205
27399SOL    HW284037   7.990   3.535  14.107
27400SOL     OW84038  12.625   9.254  13.636
27400SOL    HW184039  12.669   9.188  13.583
27400SOL    HW284040  12.682   9.265  13.713
27401SOL     OW84041   9.261   0.473   5.021
27401SOL    HW184042   9.290   0.448   4.933
27401SOL    HW284043   9.169   0.496   5.011
27402SOL     OW84044   9.320  13.014   5.921
27402SOL    HW184045   9.295  13.066   5.997
27402SOL    HW284046   9.310  13.075   5.847
27403SOL     OW84047   9.626   7.885   5.094
27403SOL    HW184048   9.579   7.921   5.170
27403SOL    HW284049   9.583   7.925   5.019
27404SOL     OW84050   3.437  11.929   0.350
27404SOL    HW184051   3.422  11.961   0.261
27404SOL    HW284052   3.377  11.980   0.405
27405SOL     OW84053   4.312   1.669   6.105
27405SOL    HW184054   4.336   1.754   6.067
27405SOL    HW284055   4.232   1.644   6.059
27406SOL     OW84056   9.165   6.383  11.841
27406SOL    HW184057   9.143   6.296  11.876
27406SOL    HW284058   9.178   6.437  11.919
27407SOL     OW84059   1.249   2.960  14.178
27407SOL    HW184060   1.292   3.046  14.180
27407SOL    HW284061   1.156   2.979  14.186
27408SOL     OW84062  12.778  11.483  14.516
27408SOL    HW184063  12.786  11.570  14.476
27408SOL    HW284064  12.774  11.423  14.441
27409SOL     OW84065   0.113   7.631   6.311
27409SOL    HW184066   0.161   7.608   6.231
27409SOL    HW284067   0.101   7.548   6.356
27410SOL     OW84068  12.485  12.161   0.779
27410SOL    HW184069  12.444  12.237   0.821
27410SOL    HW284070  12.566  12.195   0.741
27411SOL     OW84071   5.710   7.295   0.160
27411SOL    HW184072   5.678   7.245   0.085
27411SOL    HW284073   5.779   7.241   0.198
27412SOL     OW84074   6.775   4.676  14.714
27412SOL    HW184075   6.705   4.699  14.653
27412SOL    HW284076   6.854   4.674  14.661
27413SOL     OW84077  12.610  13.422   5.006
27413SOL    HW184078  12.612  13.333   5.042
27413SOL    HW284079  12.700  13.441   4.982
27414SOL     OW84080  12.884   0.454   0.084
27414SOL    HW184081  12.828   0.434   0.159
27414SOL    HW284082  12.834   0.519   0.034
27415SOL     OW84083   7.457  12.066   1.158
27415SOL    HW184084   7.522  11.997   1.149
27415SOL    HW284085   7.456  12.087   1.252
27416SOL     OW84086   2.534   3.965   3.552
27416SOL    HW184087   2.618   3.936   3.515
27416SOL    HW284088   2.486   4.000   3.477
27417SOL     OW84089   5.086  13.302   9.350
27417SOL    HW184090   5.003  13.254   9.343
27417SOL    HW284091   5.150  13.236   9.375
27418SOL     OW84092   0.057   7.234  12.961
27418SOL    HW184093   0.017   7.188  13.035
27418SOL    HW284094   0.016   7.321  12.962
27419SOL     OW84095  14.042   7.089  11.080
27419SOL    HW184096  13.999   7.023  11.135
27419SOL    HW284097  14.067   7.158  11.141
27420SOL     OW84098   4.996   0.424  12.043
27420SOL    HW184099   4.960   0.353  11.990
27420SOL    HW284100   4.922   0.455  12.096
27421SOL     OW84101   3.451  10.616   2.690
27421SOL    HW184102   3.462  10.573   2.775
27421SOL    HW284103   3.520  10.682   2.686
27422SOL     OW84104   1.491   6.019   5.051
27422SOL    HW184105   1.533   6.001   4.967
27422SOL    HW284106   1.400   6.040   5.028
27423SOL     OW84107  13.478   0.615   8.866
27423SOL    HW184108  13.518   0.546   8.813
27423SOL    HW284109  13.535   0.623   8.943
27424SOL     OW84110   3.563   3.178   1.289
27424SOL    HW184111   3.655   3.193   1.266
27424SOL    HW284112   3.517   3.175   1.205
27425SOL     OW84113  10.352   3.411   9.679
27425SOL    HW184114  10.413   3.367   9.738
27425SOL    HW284115  10.401   3.422   9.597
27426SOL     OW84116  14.708   6.303   9.416
27426SOL    HW184117  14.695   6.244   9.341
27426SOL    HW284118  14.770   6.368   9.384
27427SOL     OW84119   7.999   3.389  10.232
27427SOL    HW184120   7.969   3.317  10.177
27427SOL    HW284121   7.980   3.359  10.321
27428SOL     OW84122   7.425   7.293  13.778
27428SOL    HW184123   7.500   7.233  13.780
27428SOL    HW284124   7.444   7.351  13.704
27429SOL     OW84125   1.800   1.211   9.104
27429SOL    HW184126   1.722   1.264   9.089
27429SOL    HW284127   1.791   1.138   9.042
27430SOL     OW84128   8.941  14.821  12.402
27430SOL    HW184129   8.869  14.875  12.433
27430SOL    HW284130   8.959  14.761  12.475
27431SOL     OW84131  12.119   2.814  11.123
27431SOL    HW184132  12.116   2.904  11.089
27431SOL    HW284133  12.069   2.818  11.205
27432SOL     OW84134  13.562   5.499   9.905
27432SOL    HW184135  13.631   5.433   9.893
27432SOL    HW284136  13.582   5.566   9.840
27433SOL     OW84137   8.478  12.432  10.383
27433SOL    HW184138   8.432  12.425  10.300
27433SOL    HW284139   8.410  12.415  10.449
27434SOL     OW84140  11.838   2.220   7.792
27434SOL    HW184141  11.925   2.246   7.760
27434SOL    HW284142  11.841   2.125   7.793
27435SOL     OW84143   1.323   2.504   1.574
27435SOL    HW184144   1.372   2.561   1.634
27435SOL    HW284145   1.273   2.565   1.519
27436SOL     OW84146  13.055   3.482   0.089
27436SOL    HW184147  13.117   3.446   0.026
27436SOL    HW284148  12.971   3.445   0.063
27437SOL     OW84149   5.412   3.106   0.815
27437SOL    HW184150   5.329   3.110   0.864
27437SOL    HW284151   5.459   3.033   0.854
27438SOL     OW84152   6.883   2.244   5.083
27438SOL    HW184153   6.925   2.309   5.027
27438SOL    HW284154   6.918   2.260   5.170
27439SOL     OW84155   8.751   9.659   4.131
27439SOL    HW184156   8.683   9.726   4.124
27439SOL    HW284157   8.704   9.579   4.151
27440SOL     OW84158   0.485   9.641  10.491
27440SOL    HW184159   0.465   9.674  10.578
27440SOL    HW284160   0.505   9.548  10.505
27441SOL     OW84161   9.091   1.163  11.192
27441SOL    HW184162   9.014   1.118  11.156
27441SOL    HW284163   9.109   1.118  11.275
27442SOL     OW84164  10.708   2.986   8.714
27442SOL    HW184165  10.789   2.951   8.750
27442SOL    HW284166  10.714   3.081   8.727
27443SOL     OW84167  10.176  14.007  11.646
27443SOL    HW184168  10.210  13.961  11.569
27443SOL    HW284169  10.250  14.011  11.706
27444SOL     OW84170  14.604   5.853  12.770
27444SOL    HW184171  14.564   5.939  12.784
27444SOL    HW284172  14.697   5.871  12.760
27445SOL     OW84173   1.225  14.403   8.777
27445SOL    HW184174   1.278  14.323   8.781
27445SOL    HW284175   1.135  14.372   8.789
27446SOL     OW84176   8.664  11.498   8.147
27446SOL    HW184177   8.618  11.431   8.199
27446SOL    HW284178   8.730  11.448   8.099
27447SOL     OW84179  10.921  12.243  13.347
27447SOL    HW184180  10.995  12.184  13.357
27447SOL    HW284181  10.845  12.185  13.336
27448SOL     OW84182   3.185   2.406  12.872
27448SOL    HW184183   3.258   2.397  12.811
27448SOL    HW284184   3.207   2.484  12.923
27449SOL     OW84185   0.329   1.652  10.132
27449SOL    HW184186   0.267   1.605  10.188
27449SOL    HW284187   0.375   1.583  10.084
27450SOL     OW84188  14.400   0.996   6.153
27450SOL    HW184189  14.395   1.038   6.067
27450SOL    HW284190  14.315   1.014   6.193
27451SOL     OW84191   1.795   8.170   0.053
27451SOL    HW184192   1.840   8.244   0.013
27451SOL    HW284193   1.856   8.097   0.044
27452SOL     OW84194  11.672   2.279   4.135
27452SOL    HW184195  11.586   2.286   4.177
27452SOL    HW284196  11.665   2.334   4.056
27453SOL     OW84197  10.881   0.029  10.449
27453SOL    HW184198  10.961   0.007  10.497
27453SOL    HW284199  10.828  14.829  10.453
27454SOL     OW84200   0.570   3.347   6.681
27454SOL    HW184201   0.611   3.343   6.767
27454SOL    HW284202   0.536   3.258   6.666
27455SOL     OW84203   1.554   4.867   8.493
27455SOL    HW184204   1.535   4.776   8.516
27455SOL    HW284205   1.649   4.870   8.484
27456SOL     OW84206  12.142   5.613   2.585
27456SOL    HW184207  12.068   5.606   2.525
27456SOL    HW284208  12.158   5.707   2.594
27457SOL     OW84209  13.024  14.674   9.086
27457SOL    HW184210  13.090  14.727   9.131
27457SOL    HW284211  13.074  14.604   9.044
27458SOL     OW84212  13.833   4.071   3.610
27458SOL    HW184213  13.874   3.999   3.659
27458SOL    HW284214  13.896   4.092   3.542
27459SOL     OW84215   4.573   9.259   0.668
27459SOL    HW184216   4.547   9.220   0.584
27459SOL    HW284217   4.575   9.185   0.729
27460SOL     OW84218   1.764   1.161  13.925
27460SOL    HW184219   1.768   1.158  14.021
27460SOL    HW284220   1.817   1.086  13.897
27461SOL     OW84221  14.664   8.392  12.267
27461SOL    HW184222  14.681   8.481  12.296
27461SOL    HW284223  14.576   8.395  12.230
27462SOL     OW84224  14.459   3.360   4.699
27462SOL    HW184225  14.489   3.292   4.639
27462SOL    HW284226  14.378   3.392   4.660
27463SOL     OW84227  12.377   4.580   4.468
27463SOL    HW184228  12.338   4.614   4.388
27463SOL    HW284229  12.446   4.643   4.489
27464SOL     OW84230   5.684   9.061  12.234
27464SOL    HW184231   5.760   9.111  12.204
27464SOL    HW284232   5.695   9.055  12.328
27465SOL     OW84233   5.629  10.876   1.357
27465SOL    HW184234   5.597  10.965   1.344
27465SOL    HW284235   5.695  10.863   1.289
27466SOL     OW84236   1.920   5.670   2.959
27466SOL    HW184237   1.878   5.719   3.030
27466SOL    HW284238   1.963   5.737   2.906
27467SOL     OW84239   2.340   7.595   0.135
27467SOL    HW184240   2.266   7.534   0.137
27467SOL    HW284241   2.376   7.592   0.224
27468SOL     OW84242   9.782   7.844  12.970
27468SOL    HW184243   9.845   7.894  13.021
27468SOL    HW284244   9.798   7.753  12.994
27469SOL     OW84245   8.702   3.922   4.484
27469SOL    HW184246   8.680   3.910   4.391
27469SOL    HW284247   8.729   4.014   4.490
27470SOL     OW84248   6.246   5.492   5.702
27470SOL    HW184249   6.201   5.411   5.678
27470SOL    HW284250   6.234   5.499   5.797
27471SOL     OW84251   7.248   3.108  14.460
27471SOL    HW184252   7.157   3.127  14.436
27471SOL    HW284253   7.245   3.021  14.499
27472SOL     OW84254  13.877   7.771  11.249
27472SOL    HW184255  13.949   7.726  11.294
27472SOL    HW284256  13.860   7.849  11.303
27473SOL     OW84257   6.790  10.424  12.824
27473SOL    HW184258   6.780  10.351  12.764
27473SOL    HW284259   6.814  10.499  12.769
27474SOL     OW84260   7.929   0.510   5.791
27474SOL    HW184261   7.910   0.454   5.715
27474SOL    HW284262   7.953   0.594   5.753
27475SOL     OW84263  11.382   6.726   4.203
27475SOL    HW184264  11.381   6.822   4.206
27475SOL    HW284265  11.294   6.702   4.174
27476SOL     OW84266  13.831   7.567   6.280
27476SOL    HW184267  13.756   7.534   6.230
27476SOL    HW284268  13.792   7.599   6.361
27477SOL     OW84269   8.114   6.881   6.705
27477SOL    HW184270   8.134   6.800   6.658
27477SOL    HW284271   8.199   6.920   6.722
27478SOL     OW84272  14.336  12.479  11.333
27478SOL    HW184273  14.267  12.546  11.332
27478SOL    HW284274  14.335  12.447  11.423
27479SOL     OW84275   1.276  11.925   5.276
27479SOL    HW184276   1.264  11.889   5.188
27479SOL    HW284277   1.192  11.969   5.295
27480SOL     OW84278  12.913   3.444   8.488
27480SOL    HW184279  12.998   3.408   8.516
27480SOL    HW284280  12.935   3.528   8.449
27481SOL     OW84281   5.101   4.082  13.426
27481SOL    HW184282   5.142   4.140  13.362
27481SOL    HW284283   5.150   4.000  13.420
27482SOL     OW84284  12.816   2.936   0.638
27482SOL    HW184285  12.807   2.902   0.727
27482SOL    HW284286  12.875   2.874   0.595
27483SOL     OW84287   7.430   7.547  10.052
27483SOL    HW184288   7.444   7.473   9.993
27483SOL    HW284289   7.516   7.587  10.063
27484SOL     OW84290  12.737   5.387  14.231
27484SOL    HW184291  12.695   5.384  14.317
27484SOL    HW284292  12.775   5.474  14.226
27485SOL     OW84293   9.849  14.113   7.217
27485SOL    HW184294   9.757  14.117   7.190
27485SOL    HW284295   9.885  14.041   7.165
27486SOL     OW84296  12.817   0.270   7.845
27486SOL    HW184297  12.882   0.224   7.792
27486SOL    HW284298  12.810   0.218   7.925
27487SOL     OW84299   7.115   1.228   9.081
27487SOL    HW184300   7.036   1.229   9.135
27487SOL    HW284301   7.108   1.306   9.026
27488SOL     OW84302   2.361   8.606   8.336
27488SOL    HW184303   2.445   8.638   8.302
27488SOL    HW284304   2.376   8.592   8.429
27489SOL     OW84305   1.886   2.909   1.222
27489SOL    HW184306   1.966   2.860   1.204
27489SOL    HW284307   1.846   2.863   1.296
27490SOL     OW84308   7.760   6.363   8.960
27490SOL    HW184309   7.798   6.409   9.035
27490SOL    HW284310   7.680   6.411   8.940
27491SOL     OW84311   5.525  14.710  14.000
27491SOL    HW184312   5.450  14.660  13.967
27491SOL    HW284313   5.502  14.732  14.090
27492SOL     OW84314   2.257  12.714  10.856
27492SOL    HW184315   2.236  12.761  10.936
27492SOL    HW284316   2.264  12.783  10.789
27493SOL     OW84317   0.193  10.214   3.531
27493SOL    HW184318   0.260  10.266   3.574
27493SOL    HW284319   0.242  10.147   3.483
27494SOL     OW84320   1.707   0.631   0.855
27494SOL    HW184321   1.756   0.615   0.775
27494SOL    HW284322   1.737   0.718   0.884
27495SOL     OW84323   6.402  12.592  11.238
27495SOL    HW184324   6.411  12.498  11.229
27495SOL    HW284325   6.401  12.607  11.333
27496SOL     OW84326  13.753   9.321   8.168
27496SOL    HW184327  13.833   9.336   8.218
27496SOL    HW284328  13.768   9.238   8.122
27497SOL     OW84329  14.805   3.325   4.497
27497SOL    HW184330  14.716   3.309   4.468
27497SOL    HW284331  14.851   3.242   4.480
27498SOL     OW84332   8.334  12.667   9.307
27498SOL    HW184333   8.412  12.719   9.329
27498SOL    HW284334   8.358  12.577   9.330
27499SOL     OW84335   8.289   6.837  10.097
27499SOL    HW184336   8.349   6.865  10.028
27499SOL    HW284337   8.296   6.742  10.099
27500SOL     OW84338   4.232  11.068   0.387
27500SOL    HW184339   4.245  11.072   0.292
27500SOL    HW284340   4.213  11.158   0.412
27501SOL     OW84341  13.693   9.944   3.634
27501SOL    HW184342  13.689   9.849   3.621
27501SOL    HW284343  13.692   9.955   3.729
27502SOL     OW84344  10.340   1.322   1.669
27502SOL    HW184345  10.372   1.394   1.724
27502SOL    HW284346  10.304   1.259   1.731
27503SOL     OW84347   1.594   0.055   5.385
27503SOL    HW184348   1.504   0.066   5.354
27503SOL    HW284349   1.648   0.060   5.306
27504SOL     OW84350   1.915  14.265  11.508
27504SOL    HW184351   1.917  14.213  11.589
27504SOL    HW284352   1.838  14.235  11.461
27505SOL     OW84353   6.067  12.770   2.015
27505SOL    HW184354   6.087  12.809   1.930
27505SOL    HW284355   5.998  12.707   1.997
27506SOL     OW84356   3.032   6.039   5.000
27506SOL    HW184357   3.008   5.986   5.076
27506SOL    HW284358   3.111   6.086   5.027
27507SOL     OW84359  12.446   6.675  13.815
27507SOL    HW184360  12.502   6.748  13.841
27507SOL    HW284361  12.462   6.664  13.722
27508SOL     OW84362  12.821   3.336   0.013
27508SOL    HW184363  12.860   3.264  14.843
27508SOL    HW284364  12.727   3.318   0.012
27509SOL     OW84365  12.973   7.609   1.860
27509SOL    HW184366  13.061   7.644   1.872
27509SOL    HW284367  12.957   7.614   1.766
27510SOL     OW84368   2.056   7.637  11.257
27510SOL    HW184369   1.975   7.674  11.222
27510SOL    HW284370   2.058   7.665  11.348
27511SOL     OW84371   1.388   7.646   5.595
27511SOL    HW184372   1.385   7.615   5.504
27511SOL    HW284373   1.297   7.643   5.624
27512SOL     OW84374   2.950   2.270  14.417
27512SOL    HW184375   3.005   2.282  14.495
27512SOL    HW284376   2.934   2.176  14.414
27513SOL     OW84377  14.121  10.540   1.068
27513SOL    HW184378  14.066  10.503   0.999
27513SOL    HW284379  14.180  10.600   1.023
27514SOL     OW84380   0.328   1.145   6.561
27514SOL    HW184381   0.260   1.208   6.584
27514SOL    HW284382   0.281   1.073   6.520
27515SOL     OW84383   6.370   4.687   8.663
27515SOL    HW184384   6.418   4.669   8.582
27515SOL    HW284385   6.278   4.690   8.636
27516SOL     OW84386   4.751  10.449   0.254
27516SOL    HW184387   4.768  10.356   0.268
27516SOL    HW284388   4.685  10.471   0.319
27517SOL     OW84389   6.213   6.050   1.134
27517SOL    HW184390   6.289   6.057   1.076
27517SOL    HW284391   6.233   6.108   1.207
27518SOL     OW84392  11.283   2.075   4.278
27518SOL    HW184393  11.314   2.017   4.348
27518SOL    HW284394  11.204   2.032   4.246
27519SOL     OW84395  13.558  12.494  11.925
27519SOL    HW184396  13.574  12.476  12.018
27519SOL    HW284397  13.489  12.432  11.900
27520SOL     OW84398  12.392  14.213   6.335
27520SOL    HW184399  12.394  14.294   6.285
27520SOL    HW284400  12.389  14.144   6.269
27521SOL     OW84401  10.040  14.067   2.608
27521SOL    HW184402   9.971  14.133   2.613
27521SOL    HW284403   9.992  13.984   2.602
27522SOL     OW84404   0.818   6.345   0.589
27522SOL    HW184405   0.878   6.407   0.548
27522SOL    HW284406   0.752   6.328   0.522
27523SOL     OW84407   3.887   7.925   5.235
27523SOL    HW184408   3.925   7.983   5.169
27523SOL    HW284409   3.821   7.979   5.279
27524SOL     OW84410   1.174   0.292   7.726
27524SOL    HW184411   1.193   0.318   7.636
27524SOL    HW284412   1.139   0.204   7.719
27525SOL     OW84413   5.832   1.000  14.463
27525SOL    HW184414   5.865   0.987  14.374
27525SOL    HW284415   5.787   1.084  14.460
27526SOL     OW84416  13.742   9.664   9.807
27526SOL    HW184417  13.667   9.681   9.865
27526SOL    HW284418  13.718   9.704   9.724
27527SOL     OW84419   5.250  14.770  11.685
27527SOL    HW184420   5.336  14.789  11.723
27527SOL    HW284421   5.194  14.841  11.716
27528SOL     OW84422  13.629   4.210   8.309
27528SOL    HW184423  13.623   4.115   8.298
27528SOL    HW284424  13.539   4.238   8.327
27529SOL     OW84425  10.941   3.186  11.191
27529SOL    HW184426  10.979   3.190  11.279
27529SOL    HW284427  10.933   3.093  11.172
27530SOL     OW84428   6.098   0.009   1.679
27530SOL    HW184429   6.020  14.834   1.685
27530SOL    HW284430   6.167  14.829   1.648
27531SOL     OW84431   2.010  13.976  13.919
27531SOL    HW184432   1.939  14.029  13.954
27531SOL    HW284433   1.977  13.887  13.922
27532SOL     OW84434   6.616   1.674   5.028
27532SOL    HW184435   6.644   1.750   5.079
27532SOL    HW284436   6.591   1.609   5.093
27533SOL     OW84437   1.822   6.623  14.115
27533SOL    HW184438   1.737   6.661  14.094
27533SOL    HW284439   1.813   6.595  14.206
27534SOL     OW84440   5.455   1.656   7.753
27534SOL    HW184441   5.523   1.606   7.797
27534SOL    HW284442   5.489   1.746   7.751
27535SOL     OW84443  11.789  11.825   4.507
27535SOL    HW184444  11.805  11.731   4.521
27535SOL    HW284445  11.874  11.866   4.524
27536SOL     OW84446   5.982   9.509  14.678
27536SOL    HW184447   6.025   9.464  14.750
27536SOL    HW284448   5.975   9.443  14.609
27537SOL     OW84449  10.074   9.887   7.233
27537SOL    HW184450  10.056   9.902   7.140
27537SOL    HW284451   9.988   9.879   7.274
27538SOL     OW84452   4.816  14.784   6.250
27538SOL    HW184453   4.729  14.758   6.279
27538SOL    HW284454   4.836  14.863   6.301
27539SOL     OW84455  10.376  13.959  13.114
27539SOL    HW184456  10.442  13.919  13.172
27539SOL    HW284457  10.421  13.967  13.030
27540SOL     OW84458   4.000   0.814  13.953
27540SOL    HW184459   3.971   0.883  14.012
27540SOL    HW284460   4.089   0.839  13.929
27541SOL     OW84461  10.898   9.729   3.985
27541SOL    HW184462  10.888   9.805   3.926
27541SOL    HW284463  10.877   9.654   3.930
27542SOL     OW84464  12.891   1.679   2.121
27542SOL    HW184465  12.887   1.586   2.100
27542SOL    HW284466  12.826   1.720   2.064
27543SOL     OW84467  14.152   3.868  11.625
27543SOL    HW184468  14.203   3.944  11.653
27543SOL    HW284469  14.164   3.864  11.530
27544SOL     OW84470   0.666   8.234   0.697
27544SOL    HW184471   0.625   8.315   0.669
27544SOL    HW284472   0.755   8.259   0.722
27545SOL     OW84473  14.590   6.572   6.198
27545SOL    HW184474  14.575   6.646   6.139
27545SOL    HW284475  14.685   6.564   6.203
27546SOL     OW84476  11.434   7.197  13.434
27546SOL    HW184477  11.450   7.230  13.522
27546SOL    HW284478  11.386   7.115  13.447
27547SOL     OW84479   5.190   5.748   8.421
27547SOL    HW184480   5.209   5.838   8.394
27547SOL    HW284481   5.223   5.693   8.350
27548SOL     OW84482  11.300  14.143  13.196
27548SOL    HW184483  11.385  14.103  13.178
27548SOL    HW284484  11.315  14.237  13.179
27549SOL     OW84485   6.401  10.430   9.172
27549SOL    HW184486   6.363  10.498   9.227
27549SOL    HW284487   6.335  10.360   9.171
27550SOL     OW84488  13.346   7.465   8.127
27550SOL    HW184489  13.359   7.555   8.160
27550SOL    HW284490  13.395   7.463   8.045
27551SOL     OW84491  13.674  12.162  14.788
27551SOL    HW184492  13.638  12.197  14.869
27551SOL    HW284493  13.664  12.067  14.796
27552SOL     OW84494   8.696   6.252   6.661
27552SOL    HW184495   8.744   6.331   6.686
27552SOL    HW284496   8.604   6.277   6.668
27553SOL     OW84497   0.060   3.720  13.107
27553SOL    HW184498   0.095   3.705  13.019
27553SOL    HW284499   0.136   3.710  13.165
27554SOL     OW84500   0.470  13.332  14.214
27554SOL    HW184501   0.422  13.278  14.150
27554SOL    HW284502   0.533  13.381  14.162
27555SOL     OW84503  12.267   6.889   6.114
27555SOL    HW184504  12.282   6.879   6.020
27555SOL    HW284505  12.173   6.904   6.122
27556SOL     OW84506  13.309   6.730   4.322
27556SOL    HW184507  13.358   6.655   4.357
27556SOL    HW284508  13.373   6.777   4.268
27557SOL     OW84509   4.334   6.526   2.165
27557SOL    HW184510   4.386   6.589   2.115
27557SOL    HW284511   4.329   6.448   2.109
27558SOL     OW84512   9.519  10.217   8.647
27558SOL    HW184513   9.464  10.141   8.665
27558SOL    HW284514   9.467  10.272   8.588
27559SOL     OW84515   8.762  12.719   1.623
27559SOL    HW184516   8.718  12.793   1.664
27559SOL    HW284517   8.697  12.649   1.625
27560SOL     OW84518  10.314   2.461  11.084
27560SOL    HW184519  10.285   2.536  11.031
27560SOL    HW284520  10.235   2.436  11.133
27561SOL     OW84521   9.726  13.970   7.867
27561SOL    HW184522   9.708  13.890   7.916
27561SOL    HW284523   9.678  13.961   7.786
27562SOL     OW84524  10.421   9.358   4.173
27562SOL    HW184525  10.368   9.281   4.151
27562SOL    HW284526  10.446   9.394   4.088
27563SOL     OW84527  12.195  10.513   2.680
27563SOL    HW184528  12.247  10.593   2.684
27563SOL    HW284529  12.212  10.478   2.593
27564SOL     OW84530   1.498   6.999  12.074
27564SOL    HW184531   1.578   7.046  12.050
27564SOL    HW284532   1.497   6.922  12.016
27565SOL     OW84533   4.193   1.494   3.826
27565SOL    HW184534   4.238   1.487   3.910
27565SOL    HW284535   4.257   1.534   3.767
27566SOL     OW84536   9.572   8.940   1.302
27566SOL    HW184537   9.602   8.886   1.229
27566SOL    HW284538   9.617   9.023   1.289
27567SOL     OW84539   2.965   5.515   4.428
27567SOL    HW184540   3.056   5.521   4.398
27567SOL    HW284541   2.913   5.544   4.352
27568SOL     OW84542   6.783  13.845   8.819
27568SOL    HW184543   6.706  13.883   8.860
27568SOL    HW284544   6.751  13.802   8.740
27569SOL     OW84545  12.266   7.069  12.822
27569SOL    HW184546  12.245   6.976  12.832
27569SOL    HW284547  12.260   7.085  12.728
27570SOL     OW84548  12.219  10.809   6.740
27570SOL    HW184549  12.150  10.842   6.798
27570SOL    HW284550  12.185  10.726   6.707
27571SOL     OW84551  10.903   4.386  13.852
27571SOL    HW184552  10.946   4.424  13.775
27571SOL    HW284553  10.880   4.462  13.906
27572SOL     OW84554   6.448   5.020   2.966
27572SOL    HW184555   6.525   4.965   2.955
27572SOL    HW284556   6.409   5.024   2.879
27573SOL     OW84557  13.821   3.407   2.691
27573SOL    HW184558  13.802   3.408   2.785
27573SOL    HW284559  13.767   3.477   2.655
27574SOL     OW84560  12.043   7.744  13.714
27574SOL    HW184561  12.046   7.827  13.666
27574SOL    HW284562  12.132   7.709  13.708
27575SOL     OW84563  12.547   6.308   0.985
27575SOL    HW184564  12.563   6.362   1.062
27575SOL    HW284565  12.549   6.370   0.912
27576SOL     OW84566   3.437   6.583  14.099
27576SOL    HW184567   3.472   6.553  14.183
27576SOL    HW284568   3.400   6.504  14.059
27577SOL     OW84569   8.611   4.693   6.083
27577SOL    HW184570   8.676   4.626   6.065
27577SOL    HW284571   8.527   4.653   6.060
27578SOL     OW84572   7.036  14.423   6.024
27578SOL    HW184573   7.080  14.401   5.942
27578SOL    HW284574   7.102  14.406   6.092
27579SOL     OW84575   4.455   4.962  10.750
27579SOL    HW184576   4.524   4.997  10.806
27579SOL    HW284577   4.483   4.982  10.661
27580SOL     OW84578  10.670  14.593  10.002
27580SOL    HW184579  10.749  14.644  10.015
27580SOL    HW284580  10.627  14.633   9.926
27581SOL     OW84581  14.051   0.121   1.534
27581SOL    HW184582  14.074   0.096   1.624
27581SOL    HW284583  14.025   0.038   1.493
27582SOL     OW84584   9.095  10.637   7.821
27582SOL    HW184585   9.118  10.722   7.859
27582SOL    HW284586   9.141  10.635   7.737
27583SOL     OW84587  13.691   7.796   3.885
27583SOL    HW184588  13.616   7.738   3.876
27583SOL    HW284589  13.702   7.807   3.979
27584SOL     OW84590   4.817   0.687   4.056
27584SOL    HW184591   4.893   0.745   4.051
27584SOL    HW284592   4.753   0.726   3.996
27585SOL     OW84593   6.561  10.369  12.984
27585SOL    HW184594   6.645  10.398  12.948
27585SOL    HW284595   6.582  10.289  13.032
27586SOL     OW84596   4.294   0.097   6.801
27586SOL    HW184597   4.233   0.114   6.729
27586SOL    HW284598   4.252   0.137   6.878
27587SOL     OW84599   4.264  13.540   0.217
27587SOL    HW184600   4.347  13.512   0.178
27587SOL    HW284601   4.290  13.592   0.293
27588SOL     OW84602   1.755   0.112   3.822
27588SOL    HW184603   1.786   0.169   3.892
27588SOL    HW284604   1.660   0.123   3.822
27589SOL     OW84605   7.224  14.198  12.270
27589SOL    HW184606   7.193  14.113  12.237
27589SOL    HW284607   7.172  14.263  12.221
27590SOL     OW84608   0.870   3.856   9.326
27590SOL    HW184609   0.847   3.925   9.389
27590SOL    HW284610   0.965   3.844   9.337
27591SOL     OW84611   1.081  13.054  12.404
27591SOL    HW184612   1.139  13.100  12.343
27591SOL    HW284613   1.034  12.991  12.351
27592SOL     OW84614   4.298   1.438   9.674
27592SOL    HW184615   4.312   1.483   9.590
27592SOL    HW284616   4.346   1.355   9.664
27593SOL     OW84617  10.934   0.585   8.051
27593SOL    HW184618  10.840   0.568   8.045
27593SOL    HW284619  10.965   0.588   7.960
27594SOL     OW84620   4.108   1.058   2.777
27594SOL    HW184621   4.067   0.980   2.741
27594SOL    HW284622   4.154   1.027   2.855
27595SOL     OW84623  14.349  14.108   5.213
27595SOL    HW184624  14.355  14.094   5.118
27595SOL    HW284625  14.260  14.080   5.236
27596SOL     OW84626   7.748   2.777   3.148
27596SOL    HW184627   7.809   2.825   3.205
27596SOL    HW284628   7.706   2.844   3.096
27597SOL     OW84629  14.607   8.436   9.012
27597SOL    HW184630  14.525   8.485   9.012
27597SOL    HW284631  14.647   8.457   9.097
27598SOL     OW84632   9.359  13.342   2.607
27598SOL    HW184633   9.306  13.419   2.629
27598SOL    HW284634   9.307  13.268   2.638
27599SOL     OW84635  11.435  10.073   0.506
27599SOL    HW184636  11.474  10.080   0.593
27599SOL    HW284637  11.376   9.998   0.512
27600SOL     OW84638  13.965   7.952   7.542
27600SOL    HW184639  13.916   7.877   7.578
27600SOL    HW284640  13.997   7.922   7.458
27601SOL     OW84641  14.522   6.664  13.230
27601SOL    HW184642  14.615   6.686  13.228
27601SOL    HW284643  14.492   6.691  13.317
27602SOL     OW84644  10.770   3.893   1.754
27602SOL    HW184645  10.797   3.831   1.686
27602SOL    HW284646  10.800   3.979   1.721
27603SOL     OW84647   9.981   6.875   0.742
27603SOL    HW184648   9.934   6.867   0.659
27603SOL    HW284649  10.057   6.929   0.722
27604SOL     OW84650   0.406   1.729  10.513
27604SOL    HW184651   0.466   1.658  10.538
27604SOL    HW284652   0.463   1.796  10.475
27605SOL     OW84653   3.724   5.214   4.182
27605SOL    HW184654   3.663   5.281   4.151
27605SOL    HW284655   3.675   5.132   4.171
27606SOL     OW84656  12.203  11.064  12.011
27606SOL    HW184657  12.171  11.104  12.092
27606SOL    HW284658  12.126  11.023  11.972
27607SOL     OW84659   1.565  13.426   8.262
27607SOL    HW184660   1.499  13.413   8.331
27607SOL    HW284661   1.544  13.512   8.225
27608SOL     OW84662   9.304   9.997   2.053
27608SOL    HW184663   9.393  10.024   2.032
27608SOL    HW284664   9.306   9.901   2.050
27609SOL     OW84665   1.758  10.968   5.211
27609SOL    HW184666   1.852  10.981   5.226
27609SOL    HW284667   1.751  10.877   5.183
27610SOL     OW84668   5.921   4.246   7.081
27610SOL    HW184669   5.890   4.305   7.150
27610SOL    HW284670   5.879   4.162   7.100
27611SOL     OW84671   7.390  13.261  12.266
27611SOL    HW184672   7.473  13.278  12.221
27611SOL    HW284673   7.350  13.347  12.276
27612SOL     OW84674  12.835   8.186  10.895
27612SOL    HW184675  12.876   8.264  10.858
27612SOL    HW284676  12.904   8.144  10.946
27613SOL     OW84677   1.251  14.700   5.386
27613SOL    HW184678   1.274  14.781   5.341
27613SOL    HW284679   1.274  14.630   5.325
27614SOL     OW84680   6.325   0.997   8.737
27614SOL    HW184681   6.243   1.011   8.784
27614SOL    HW284682   6.374   1.078   8.751
27615SOL     OW84683   9.742   5.500   7.119
27615SOL    HW184684   9.694   5.442   7.059
27615SOL    HW284685   9.674   5.543   7.170
27616SOL     OW84686   9.493  10.298   1.429
27616SOL    HW184687   9.461  10.352   1.501
27616SOL    HW284688   9.416  10.282   1.375
27617SOL     OW84689   8.821   4.092  14.559
27617SOL    HW184690   8.837   4.163  14.496
27617SOL    HW284691   8.752   4.040  14.518
27618SOL     OW84692   8.785   2.900   7.724
27618SOL    HW184693   8.749   2.970   7.779
27618SOL    HW284694   8.754   2.819   7.765
27619SOL     OW84695   2.340   4.884   7.110
27619SOL    HW184696   2.280   4.824   7.065
27619SOL    HW284697   2.413   4.828   7.137
27620SOL     OW84698   0.820   5.477  11.086
27620SOL    HW184699   0.858   5.418  11.152
27620SOL    HW284700   0.777   5.419  11.024
27621SOL     OW84701   1.033   1.374   0.874
27621SOL    HW184702   1.070   1.287   0.858
27621SOL    HW284703   1.098   1.418   0.930
27622SOL     OW84704   8.326   4.238  11.235
27622SOL    HW184705   8.340   4.277  11.321
27622SOL    HW284706   8.267   4.298  11.190
27623SOL     OW84707   5.637   3.728  10.751
27623SOL    HW184708   5.620   3.672  10.827
27623SOL    HW284709   5.582   3.805  10.765
27624SOL     OW84710   0.195  12.593   8.668
27624SOL    HW184711   0.184  12.525   8.601
27624SOL    HW284712   0.277  12.636   8.644
27625SOL     OW84713   8.720   9.416   6.951
27625SOL    HW184714   8.628   9.395   6.935
27625SOL    HW284715   8.756   9.338   6.994
27626SOL     OW84716  12.248   7.397   9.423
27626SOL    HW184717  12.237   7.327   9.359
27626SOL    HW284718  12.169   7.393   9.477
27627SOL     OW84719  10.943   5.122   4.746
27627SOL    HW184720  10.876   5.189   4.733
27627SOL    HW284721  11.023   5.172   4.761
27628SOL     OW84722  13.178   7.074  13.260
27628SOL    HW184723  13.148   7.015  13.330
27628SOL    HW284724  13.231   7.139  13.305
27629SOL     OW84725  11.667   0.842   0.286
27629SOL    HW184726  11.741   0.903   0.287
27629SOL    HW284727  11.630   0.847   0.374
27630SOL     OW84728   4.493   4.071   7.712
27630SOL    HW184729   4.562   4.126   7.675
27630SOL    HW284730   4.483   4.102   7.802
27631SOL     OW84731   5.760   7.751   2.707
27631SOL    HW184732   5.811   7.733   2.786
27631SOL    HW284733   5.808   7.707   2.637
27632SOL     OW84734   3.557   6.871  13.044
27632SOL    HW184735   3.476   6.912  13.076
27632SOL    HW284736   3.627   6.923  13.082
27633SOL     OW84737   2.602  12.186   5.102
27633SOL    HW184738   2.549  12.251   5.055
27633SOL    HW284739   2.595  12.212   5.194
27634SOL     OW84740   8.488   8.358  14.099
27634SOL    HW184741   8.502   8.296  14.170
27634SOL    HW284742   8.576   8.380  14.068
27635SOL     OW84743   4.053  13.313   9.453
27635SOL    HW184744   3.965  13.321   9.490
27635SOL    HW284745   4.097  13.249   9.509
27636SOL     OW84746  13.204   7.866   5.218
27636SOL    HW184747  13.274   7.836   5.276
27636SOL    HW284748  13.247   7.928   5.159
27637SOL     OW84749   9.162   5.591   2.934
27637SOL    HW184750   9.175   5.677   2.974
27637SOL    HW284751   9.076   5.563   2.967
27638SOL     OW84752  11.241  10.713   5.572
27638SOL    HW184753  11.308  10.777   5.596
27638SOL    HW284754  11.238  10.717   5.476
27639SOL     OW84755  12.142   0.575  13.264
27639SOL    HW184756  12.059   0.604  13.303
27639SOL    HW284757  12.119   0.494  13.218
27640SOL     OW84758   0.814   4.593  14.103
27640SOL    HW184759   0.736   4.564  14.055
27640SOL    HW284760   0.784   4.606  14.192
27641SOL     OW84761  11.209  13.116   6.735
27641SOL    HW184762  11.218  13.035   6.785
27641SOL    HW284763  11.156  13.173   6.791
27642SOL     OW84764   2.027   7.081   9.484
27642SOL    HW184765   2.095   7.141   9.515
27642SOL    HW284766   2.046   7.070   9.391
27643SOL     OW84767   1.023   5.376   0.831
27643SOL    HW184768   1.058   5.291   0.857
27643SOL    HW284769   1.030   5.376   0.736
27644SOL     OW84770  13.175  10.634   6.889
27644SOL    HW184771  13.256  10.591   6.916
27644SOL    HW284772  13.200  10.690   6.816
27645SOL     OW84773  11.484   3.424   2.523
27645SOL    HW184774  11.458   3.446   2.612
27645SOL    HW284775  11.578   3.444   2.520
27646SOL     OW84776  12.213  10.619   1.789
27646SOL    HW184777  12.243  10.706   1.763
27646SOL    HW284778  12.236  10.563   1.714
27647SOL     OW84779  12.013   5.056   4.125
27647SOL    HW184780  12.088   5.014   4.083
27647SOL    HW284781  11.940   4.998   4.106
27648SOL     OW84782   0.659  11.730   2.597
27648SOL    HW184783   0.611  11.790   2.654
27648SOL    HW284784   0.590  11.681   2.551
27649SOL     OW84785   4.354   9.499  12.627
27649SOL    HW184786   4.432   9.519  12.678
27649SOL    HW284787   4.357   9.560  12.554
27650SOL     OW84788   1.904  13.085  14.156
27650SOL    HW184789   1.950  13.169  14.156
27650SOL    HW284790   1.955  13.029  14.097
27651SOL     OW84791   8.257  14.025  11.958
27651SOL    HW184792   8.305  14.108  11.952
27651SOL    HW284793   8.170  14.045  11.922
27652SOL     OW84794   7.619   3.236   2.079
27652SOL    HW184795   7.625   3.315   2.025
27652SOL    HW284796   7.549   3.255   2.141
27653SOL     OW84797   0.625   7.253   4.811
27653SOL    HW184798   0.663   7.241   4.898
27653SOL    HW284799   0.592   7.342   4.810
27654SOL     OW84800   7.638  10.918  11.254
27654SOL    HW184801   7.724  10.957  11.269
27654SOL    HW284802   7.579  10.964  11.314
27655SOL     OW84803   1.353   4.981   7.228
27655SOL    HW184804   1.371   4.930   7.307
27655SOL    HW284805   1.270   5.025   7.246
27656SOL     OW84806  12.782   3.442  10.669
27656SOL    HW184807  12.797   3.389  10.747
27656SOL    HW284808  12.739   3.383  10.607
27657SOL     OW84809   8.526   4.533  10.419
27657SOL    HW184810   8.438   4.546  10.453
27657SOL    HW284811   8.584   4.554  10.492
27658SOL     OW84812  10.931  12.401   6.916
27658SOL    HW184813  10.990  12.345   6.966
27658SOL    HW284814  10.971  12.407   6.830
27659SOL     OW84815   2.758   5.981  10.844
27659SOL    HW184816   2.800   5.898  10.822
27659SOL    HW284817   2.830   6.042  10.859
27660SOL     OW84818   1.798  14.435   4.702
27660SOL    HW184819   1.757  14.480   4.628
27660SOL    HW284820   1.725  14.398   4.750
27661SOL     OW84821   7.873   7.639   5.631
27661SOL    HW184822   7.864   7.728   5.666
27661SOL    HW284823   7.809   7.587   5.680
27662SOL     OW84824  10.367   8.586   8.004
27662SOL    HW184825  10.334   8.676   8.010
27662SOL    HW284826  10.370   8.555   8.094
27663SOL     OW84827   9.798   4.456   7.383
27663SOL    HW184828   9.847   4.374   7.381
27663SOL    HW284829   9.851   4.518   7.334
27664SOL     OW84830   7.655  12.286   2.423
27664SOL    HW184831   7.661  12.336   2.504
27664SOL    HW284832   7.745  12.262   2.402
27665SOL     OW84833   3.158   0.759  12.427
27665SOL    HW184834   3.065   0.757  12.404
27665SOL    HW284835   3.203   0.770  12.344
27666SOL     OW84836   5.930   2.881   3.157
27666SOL    HW184837   5.858   2.888   3.220
27666SOL    HW284838   5.944   2.970   3.126
27667SOL     OW84839   6.584  12.715   0.030
27667SOL    HW184840   6.544  12.677   0.108
27667SOL    HW284841   6.539  12.799   0.018
27668SOL     OW84842   4.285   1.164   2.217
27668SOL    HW184843   4.191   1.177   2.207
27668SOL    HW284844   4.293   1.107   2.294
27669SOL     OW84845  14.394   8.311  10.237
27669SOL    HW184846  14.451   8.282  10.166
27669SOL    HW284847  14.332   8.371  10.195
27670SOL     OW84848  13.623   5.402   7.814
27670SOL    HW184849  13.657   5.338   7.752
27670SOL    HW284850  13.653   5.486   7.780
27671SOL     OW84851   3.687  13.943   5.902
27671SOL    HW184852   3.598  13.909   5.911
27671SOL    HW284853   3.677  14.038   5.906
27672SOL     OW84854  13.707  12.613   1.413
27672SOL    HW184855  13.772  12.670   1.372
27672SOL    HW284856  13.624  12.661   1.403
27673SOL     OW84857   3.166   9.244   5.978
27673SOL    HW184858   3.083   9.279   6.010
27673SOL    HW284859   3.216   9.322   5.954
27674SOL     OW84860   3.913  11.081   4.427
27674SOL    HW184861   3.903  11.137   4.350
27674SOL    HW284862   3.824  11.055   4.450
27675SOL     OW84863  13.655   8.372   4.546
27675SOL    HW184864  13.584   8.367   4.482
27675SOL    HW284865  13.612   8.354   4.630
27676SOL     OW84866   9.261  11.254  11.628
27676SOL    HW184867   9.353  11.227  11.626
27676SOL    HW284868   9.218  11.200  11.561
27677SOL     OW84869   4.670   2.216  11.587
27677SOL    HW184870   4.717   2.132  11.584
27677SOL    HW284871   4.579   2.192  11.603
27678SOL     OW84872  10.250  11.319   8.496
27678SOL    HW184873  10.318  11.370   8.538
27678SOL    HW284874  10.274  11.318   8.403
27679SOL     OW84875   3.563   6.952   4.722
27679SOL    HW184876   3.577   6.860   4.698
27679SOL    HW284877   3.605   7.001   4.651
27680SOL     OW84878   0.952   9.034   5.748
27680SOL    HW184879   0.966   8.943   5.723
27680SOL    HW284880   1.039   9.067   5.768
27681SOL     OW84881   5.843  13.091  14.370
27681SOL    HW184882   5.768  13.032  14.366
27681SOL    HW284883   5.920  13.034  14.365
27682SOL     OW84884   3.887   6.569  11.783
27682SOL    HW184885   3.909   6.604  11.869
27682SOL    HW284886   3.791   6.569  11.780
27683SOL     OW84887   4.801  10.627  13.849
27683SOL    HW184888   4.766  10.625  13.938
27683SOL    HW284889   4.840  10.714  13.841
27684SOL     OW84890   2.264   4.206  11.186
27684SOL    HW184891   2.227   4.125  11.221
27684SOL    HW284892   2.242   4.205  11.093
27685SOL     OW84893  12.482   5.208  10.564
27685SOL    HW184894  12.505   5.151  10.491
27685SOL    HW284895  12.400   5.249  10.538
27686SOL     OW84896   0.953   3.377  12.842
27686SOL    HW184897   0.890   3.317  12.881
27686SOL    HW284898   1.026   3.322  12.815
27687SOL     OW84899   0.873  10.945   7.119
27687SOL    HW184900   0.805  11.007   7.148
27687SOL    HW284901   0.839  10.859   7.145
27688SOL     OW84902   4.597   1.304  13.709
27688SOL    HW184903   4.632   1.341  13.627
27688SOL    HW284904   4.629   1.214  13.710
27689SOL     OW84905   8.191   4.512  13.547
27689SOL    HW184906   8.159   4.596  13.579
27689SOL    HW284907   8.275   4.500  13.592
27690SOL     OW84908  11.616  11.199   4.635
27690SOL    HW184909  11.648  11.268   4.577
27690SOL    HW284910  11.695  11.163   4.675
27691SOL     OW84911  12.459   1.083   0.580
27691SOL    HW184912  12.474   0.992   0.558
27691SOL    HW284913  12.543   1.112   0.618
27692SOL     OW84914   2.048   2.956   9.991
27692SOL    HW184915   2.026   2.967  10.083
27692SOL    HW284916   2.108   2.881   9.989
27693SOL     OW84917  12.776  11.042   5.353
27693SOL    HW184918  12.807  11.065   5.265
27693SOL    HW284919  12.711  11.109   5.374
27694SOL     OW84920   5.933   7.369   0.448
27694SOL    HW184921   5.843   7.378   0.482
27694SOL    HW284922   5.987   7.415   0.512
27695SOL     OW84923   4.179   6.258   9.462
27695SOL    HW184924   4.136   6.323   9.406
27695SOL    HW284925   4.255   6.303   9.498
27696SOL     OW84926   2.849  10.387   1.091
27696SOL    HW184927   2.786  10.403   1.161
27696SOL    HW284928   2.844  10.293   1.076
27697SOL     OW84929  14.201   2.572   7.974
27697SOL    HW184930  14.152   2.650   7.999
27697SOL    HW284931  14.148   2.499   8.006
27698SOL     OW84932   8.704   7.403   8.841
27698SOL    HW184933   8.759   7.424   8.765
27698SOL    HW284934   8.762   7.354   8.900
27699SOL     OW84935  14.140   8.885   2.552
27699SOL    HW184936  14.117   8.923   2.637
27699SOL    HW284937  14.069   8.914   2.494
27700SOL     OW84938   3.790  13.053   9.929
27700SOL    HW184939   3.781  12.963   9.959
27700SOL    HW284940   3.770  13.106  10.006
27701SOL     OW84941   5.236   3.753   3.131
27701SOL    HW184942   5.197   3.809   3.064
27701SOL    HW284943   5.329   3.751   3.110
27702SOL     OW84944  13.125   1.040   4.996
27702SOL    HW184945  13.065   1.069   5.065
27702SOL    HW284946  13.206   1.019   5.042
27703SOL     OW84947   7.794   1.709   5.548
27703SOL    HW184948   7.858   1.708   5.477
27703SOL    HW284949   7.826   1.774   5.609
27704SOL     OW84950   9.148   4.266   6.597
27704SOL    HW184951   9.189   4.307   6.673
27704SOL    HW284952   9.062   4.309   6.590
27705SOL     OW84953   9.977   4.561   7.223
27705SOL    HW184954   9.955   4.650   7.196
27705SOL    HW284955  10.020   4.522   7.147
27706SOL     OW84956   2.504   2.061   8.531
27706SOL    HW184957   2.444   2.135   8.527
27706SOL    HW284958   2.520   2.047   8.624
27707SOL     OW84959   5.239   0.415   3.757
27707SOL    HW184960   5.149   0.426   3.786
27707SOL    HW284961   5.254   0.321   3.758
27708SOL     OW84962   9.096  13.402   8.493
27708SOL    HW184963   9.070  13.334   8.554
27708SOL    HW284964   9.036  13.392   8.419
27709SOL     OW84965   2.627   6.141   3.947
27709SOL    HW184966   2.669   6.072   3.896
27709SOL    HW284967   2.597   6.096   4.027
27710SOL     OW84968   0.813   2.814   0.872
27710SOL    HW184969   0.846   2.766   0.795
27710SOL    HW284970   0.771   2.747   0.925
27711SOL     OW84971   4.579   4.877  13.955
27711SOL    HW184972   4.541   4.794  13.984
27711SOL    HW284973   4.636   4.853  13.883
27712SOL     OW84974   0.528   3.729   5.426
27712SOL    HW184975   0.435   3.739   5.446
27712SOL    HW284976   0.544   3.789   5.354
27713SOL     OW84977   9.095  12.487   7.671
27713SOL    HW184978   9.145  12.421   7.720
27713SOL    HW284979   9.050  12.437   7.604
27714SOL     OW84980   9.623   0.216  11.840
27714SOL    HW184981   9.552   0.241  11.781
27714SOL    HW284982   9.582   0.160  11.906
27715SOL     OW84983   2.867   9.949   0.378
27715SOL    HW184984   2.900   9.859   0.381
27715SOL    HW284985   2.863   9.971   0.285
27716SOL     OW84986  12.780  14.097  12.878
27716SOL    HW184987  12.771  14.150  12.799
27716SOL    HW284988  12.741  14.151  12.947
27717SOL     OW84989   4.929   8.048   2.140
27717SOL    HW184990   4.977   8.104   2.201
27717SOL    HW284991   4.852   8.020   2.189
27718SOL     OW84992  10.509  14.345   5.063
27718SOL    HW184993  10.530  14.423   5.011
27718SOL    HW284994  10.585  14.287   5.051
27719SOL     OW84995   6.281   9.583  14.258
27719SOL    HW184996   6.210   9.528  14.225
27719SOL    HW284997   6.275   9.576  14.353
27720SOL     OW84998   8.580   0.778   7.716
27720SOL    HW184999   8.652   0.717   7.733
27720SOL    HW285000   8.517   0.728   7.664
27721SOL     OW85001   3.111   7.189  12.783
27721SOL    HW185002   3.051   7.244  12.833
27721SOL    HW285003   3.055   7.132  12.732
27722SOL     OW85004   1.672   1.369   4.495
27722SOL    HW185005   1.741   1.305   4.476
27722SOL    HW285006   1.696   1.404   4.581
27723SOL     OW85007  11.291   5.422   0.747
27723SOL    HW185008  11.322   5.495   0.802
27723SOL    HW285009  11.200   5.410   0.773
27724SOL     OW85010   1.134  10.859   3.892
27724SOL    HW185011   1.149  10.765   3.890
27724SOL    HW285012   1.191  10.890   3.963
27725SOL     OW85013  11.228  10.794   9.510
27725SOL    HW185014  11.199  10.712   9.550
27725SOL    HW285015  11.202  10.786   9.418
27726SOL     OW85016   1.955   6.523   0.714
27726SOL    HW185017   1.999   6.603   0.687
27726SOL    HW285018   2.022   6.455   0.706
27727SOL     OW85019   8.175   7.096   5.979
27727SOL    HW185020   8.091   7.067   5.943
27727SOL    HW285021   8.167   7.083   6.073
27728SOL     OW85022  11.728   9.890   3.935
27728SOL    HW185023  11.704   9.812   3.985
27728SOL    HW285024  11.810   9.865   3.891
27729SOL     OW85025   7.209  11.217   7.784
27729SOL    HW185026   7.222  11.311   7.797
27729SOL    HW285027   7.288  11.177   7.819
27730SOL     OW85028   7.800   8.095  13.485
27730SOL    HW185029   7.745   8.052  13.419
27730SOL    HW285030   7.739   8.117  13.556
27731SOL     OW85031   0.560   4.684   9.789
27731SOL    HW185032   0.536   4.633   9.711
27731SOL    HW285033   0.499   4.757   9.788
27732SOL     OW85034   3.664  10.325   8.345
27732SOL    HW185035   3.686  10.413   8.374
27732SOL    HW285036   3.579  10.307   8.386
27733SOL     OW85037   3.213   8.396   3.837
27733SOL    HW185038   3.278   8.342   3.793
27733SOL    HW285039   3.213   8.365   3.928
27734SOL     OW85040  12.701   0.252  13.448
27734SOL    HW185041  12.636   0.228  13.515
27734SOL    HW285042  12.657   0.320  13.397
27735SOL     OW85043   9.596   3.164   3.001
27735SOL    HW185044   9.535   3.119   2.943
27735SOL    HW285045   9.589   3.116   3.084
27736SOL     OW85046   8.707   9.823   7.682
27736SOL    HW185047   8.768   9.816   7.755
27736SOL    HW285048   8.726   9.909   7.643
27737SOL     OW85049   1.541   6.786   7.070
27737SOL    HW185050   1.614   6.767   7.129
27737SOL    HW285051   1.525   6.703   7.025
27738SOL     OW85052  11.073  12.429   7.640
27738SOL    HW185053  11.009  12.375   7.595
27738SOL    HW285054  11.089  12.503   7.582
27739SOL     OW85055   9.191   0.678   6.953
27739SOL    HW185056   9.171   0.763   6.992
27739SOL    HW285057   9.206   0.697   6.861
27740SOL     OW85058  11.507   8.715   4.411
27740SOL    HW185059  11.589   8.704   4.363
27740SOL    HW285060  11.487   8.628   4.446
27741SOL     OW85061   0.377   4.682   4.465
27741SOL    HW185062   0.427   4.733   4.402
27741SOL    HW285063   0.352   4.746   4.532
27742SOL     OW85064   2.646  14.586   6.679
27742SOL    HW185065   2.716  14.568   6.617
27742SOL    HW285066   2.649  14.681   6.692
27743SOL     OW85067   4.612   1.419   0.550
27743SOL    HW185068   4.572   1.473   0.481
27743SOL    HW285069   4.542   1.407   0.614
27744SOL     OW85070   2.316   9.244   1.478
27744SOL    HW185071   2.314   9.217   1.386
27744SOL    HW285072   2.408   9.262   1.496
27745SOL     OW85073  10.034   1.978   0.132
27745SOL    HW185074  10.091   1.961   0.207
27745SOL    HW285075  10.003   1.891   0.106
27746SOL     OW85076   0.591  12.394   9.505
27746SOL    HW185077   0.572  12.350   9.422
27746SOL    HW285078   0.536  12.349   9.569
27747SOL     OW85079  10.730   5.735   1.724
27747SOL    HW185080  10.805   5.780   1.763
27747SOL    HW285081  10.768   5.675   1.660
27748SOL     OW85082  11.443   8.968   1.597
27748SOL    HW185083  11.470   9.055   1.568
27748SOL    HW285084  11.350   8.978   1.618
27749SOL     OW85085   2.156  13.346  13.254
27749SOL    HW185086   2.233  13.369  13.201
27749SOL    HW285087   2.082  13.373  13.200
27750SOL     OW85088   4.132  12.845   4.934
27750SOL    HW185089   4.106  12.933   4.960
27750SOL    HW285090   4.133  12.794   5.015
27751SOL     OW85091   1.660  12.393   2.408
27751SOL    HW185092   1.584  12.428   2.454
27751SOL    HW285093   1.715  12.357   2.478
27752SOL     OW85094  11.648   4.329  14.553
27752SOL    HW185095  11.662   4.327  14.647
27752SOL    HW285096  11.553   4.330  14.543
27753SOL     OW85097   2.791  12.931   5.367
27753SOL    HW185098   2.886  12.932   5.378
27753SOL    HW285099   2.777  12.926   5.273
27754SOL     OW85100   1.864  11.108   5.808
27754SOL    HW185101   1.792  11.059   5.768
27754SOL    HW285102   1.935  11.103   5.743
27755SOL     OW85103   6.599  13.302   8.797
27755SOL    HW185104   6.614  13.395   8.815
27755SOL    HW285105   6.687  13.266   8.785
27756SOL     OW85106  12.632   6.995   5.295
27756SOL    HW185107  12.604   6.995   5.386
27756SOL    HW285108  12.550   7.003   5.245
27757SOL     OW85109  13.491  10.858  10.086
27757SOL    HW185110  13.455  10.839   9.999
27757SOL    HW285111  13.550  10.784  10.104
27758SOL     OW85112  11.073  11.688   0.262
27758SOL    HW185113  11.126  11.624   0.309
27758SOL    HW285114  11.022  11.636   0.200
27759SOL     OW85115   2.014   0.191   5.584
27759SOL    HW185116   2.108   0.207   5.579
27759SOL    HW285117   1.995   0.193   5.678
27760SOL     OW85118   0.754   7.773   3.058
27760SOL    HW185119   0.753   7.678   3.068
27760SOL    HW285120   0.832   7.790   3.004
27761SOL     OW85121  12.926   2.605  10.403
27761SOL    HW185122  12.866   2.569  10.468
27761SOL    HW285123  12.882   2.591  10.319
27762SOL     OW85124  14.304   7.468   1.434
27762SOL    HW185125  14.314   7.376   1.408
27762SOL    HW285126  14.323   7.517   1.354
27763SOL     OW85127   5.584   4.031  14.295
27763SOL    HW185128   5.606   3.938  14.289
27763SOL    HW285129   5.489   4.033  14.302
27764SOL     OW85130   1.476  14.620  12.659
27764SOL    HW185131   1.487  14.608  12.565
27764SOL    HW285132   1.430  14.704  12.668
27765SOL     OW85133   0.538   3.718   8.903
27765SOL    HW185134   0.503   3.800   8.869
27765SOL    HW285135   0.600   3.744   8.971
27766SOL     OW85136   8.921  12.196  13.481
27766SOL    HW185137   8.986  12.263  13.463
27766SOL    HW285138   8.854  12.240  13.533
27767SOL     OW85139   1.218   9.912   1.444
27767SOL    HW185140   1.302   9.868   1.432
27767SOL    HW285141   1.155   9.840   1.456
27768SOL     OW85142   8.483  14.470   5.637
27768SOL    HW185143   8.466  14.496   5.728
27768SOL    HW285144   8.577  14.482   5.626
27769SOL     OW85145   7.901  11.024   7.322
27769SOL    HW185146   7.949  11.003   7.402
27769SOL    HW285147   7.938  11.107   7.293
27770SOL     OW85148   3.236   6.256   6.006
27770SOL    HW185149   3.144   6.233   5.994
27770SOL    HW285150   3.243   6.346   5.975
27771SOL     OW85151  11.845   8.559   4.629
27771SOL    HW185152  11.905   8.486   4.646
27771SOL    HW285153  11.759   8.517   4.622
27772SOL     OW85154   7.735   9.095   7.987
27772SOL    HW185155   7.738   9.108   7.892
27772SOL    HW285156   7.754   9.181   8.024
27773SOL     OW85157   4.717   2.142   3.084
27773SOL    HW185158   4.661   2.203   3.132
27773SOL    HW285159   4.798   2.138   3.135
27774SOL     OW85160   2.866   1.309   5.455
27774SOL    HW185161   2.935   1.244   5.458
27774SOL    HW285162   2.835   1.317   5.545
27775SOL     OW85163   3.520  14.102   3.673
27775SOL    HW185164   3.430  14.135   3.677
27775SOL    HW285165   3.528  14.046   3.750
27776SOL     OW85166   3.985   4.839  14.575
27776SOL    HW185167   4.017   4.915  14.624
27776SOL    HW285168   4.057   4.815  14.518
27777SOL     OW85169  11.952   8.260   7.792
27777SOL    HW185170  11.885   8.294   7.851
27777SOL    HW285171  11.980   8.336   7.741
27778SOL     OW85172   6.197   1.891   0.206
27778SOL    HW185173   6.201   1.870   0.113
27778SOL    HW285174   6.169   1.983   0.209
27779SOL     OW85175   7.345   1.853  14.160
27779SOL    HW185176   7.432   1.841  14.123
27779SOL    HW285177   7.361   1.883  14.249
27780SOL     OW85178   8.265   6.929   6.407
27780SOL    HW185179   8.176   6.960   6.390
27780SOL    HW285180   8.261   6.835   6.396
27781SOL     OW85181   7.626  13.110   1.688
27781SOL    HW185182   7.573  13.094   1.610
27781SOL    HW285183   7.700  13.162   1.656
27782SOL     OW85184   6.611   0.944   1.087
27782SOL    HW185185   6.608   1.039   1.071
27782SOL    HW285186   6.519   0.918   1.089
27783SOL     OW85187   4.305   2.650  13.891
27783SOL    HW185188   4.365   2.690  13.828
27783SOL    HW285189   4.289   2.719  13.955
27784SOL     OW85190  10.732   7.221   9.646
27784SOL    HW185191  10.785   7.141   9.647
27784SOL    HW285192  10.644   7.191   9.624
27785SOL     OW85193  10.136   8.294   0.166
27785SOL    HW185194  10.101   8.367   0.217
27785SOL    HW285195  10.229   8.291   0.190
27786SOL     OW85196   2.534  11.017   1.503
27786SOL    HW185197   2.490  10.938   1.535
27786SOL    HW285198   2.583  10.987   1.426
27787SOL     OW85199  14.388   3.249   8.346
27787SOL    HW185200  14.407   3.253   8.252
27787SOL    HW285201  14.322   3.180   8.353
27788SOL     OW85202  14.847  12.943   3.299
27788SOL    HW185203  14.846  12.851   3.274
27788SOL    HW285204  14.778  12.950   3.366
27789SOL     OW85205   8.641   1.914   2.224
27789SOL    HW185206   8.654   1.827   2.186
27789SOL    HW285207   8.547   1.931   2.214
27790SOL     OW85208   6.843   7.504   6.576
27790SOL    HW185209   6.857   7.574   6.640
27790SOL    HW285210   6.889   7.534   6.497
27791SOL     OW85211   7.102   7.707   6.587
27791SOL    HW185212   7.023   7.672   6.628
27791SOL    HW285213   7.174   7.661   6.629
27792SOL     OW85214   5.262   5.398  13.919
27792SOL    HW185215   5.275   5.423  13.828
27792SOL    HW285216   5.172   5.424  13.939
27793SOL     OW85217   4.947   6.308   1.132
27793SOL    HW185218   5.012   6.279   1.068
27793SOL    HW285219   4.963   6.402   1.141
27794SOL     OW85220   5.353   8.793   2.259
27794SOL    HW185221   5.310   8.762   2.179
27794SOL    HW285222   5.437   8.828   2.230
27795SOL     OW85223   3.473  12.540   2.071
27795SOL    HW185224   3.503  12.627   2.049
27795SOL    HW285225   3.542  12.481   2.041
27796SOL     OW85226   0.321  13.080   0.290
27796SOL    HW185227   0.240  13.129   0.301
27796SOL    HW285228   0.304  13.020   0.218
27797SOL     OW85229   0.186  12.160   1.402
27797SOL    HW185230   0.193  12.179   1.309
27797SOL    HW285231   0.277  12.148   1.432
27798SOL     OW85232   1.141   0.500   8.589
27798SOL    HW185233   1.110   0.410   8.592
27798SOL    HW285234   1.195   0.509   8.668
27799SOL     OW85235  10.630  13.453   4.623
27799SOL    HW185236  10.640  13.536   4.576
27799SOL    HW285237  10.719  13.423   4.638
27800SOL     OW85238   2.524   5.343   2.018
27800SOL    HW185239   2.515   5.420   2.074
27800SOL    HW285240   2.471   5.364   1.940
27801SOL     OW85241  10.684   4.281   9.973
27801SOL    HW185242  10.651   4.357  10.020
27801SOL    HW285243  10.707   4.218  10.041
27802SOL     OW85244   1.193  13.337   5.967
27802SOL    HW185245   1.110  13.383   5.980
27802SOL    HW285246   1.168  13.249   5.940
27803SOL     OW85247   5.316  11.985  13.610
27803SOL    HW185248   5.324  12.039  13.689
27803SOL    HW285249   5.403  11.948  13.597
27804SOL     OW85250   2.485  12.800   7.601
27804SOL    HW185251   2.564  12.766   7.643
27804SOL    HW285252   2.426  12.725   7.595
27805SOL     OW85253   8.763   1.512   3.109
27805SOL    HW185254   8.706   1.562   3.168
27805SOL    HW285255   8.717   1.514   3.025
27806SOL     OW85256   6.421   9.675  11.584
27806SOL    HW185257   6.448   9.641  11.498
27806SOL    HW285258   6.467   9.619  11.647
27807SOL     OW85259   0.572   8.557   2.284
27807SOL    HW185260   0.600   8.648   2.280
27807SOL    HW285261   0.594   8.529   2.373
27808SOL     OW85262   4.958   8.904  14.061
27808SOL    HW185263   4.969   8.868  13.973
27808SOL    HW285264   4.863   8.901  14.077
27809SOL     OW85265  10.562  11.956   3.529
27809SOL    HW185266  10.604  11.947   3.443
27809SOL    HW285267  10.599  12.036   3.565
27810SOL     OW85268   9.465  11.642   5.903
27810SOL    HW185269   9.559  11.647   5.921
27810SOL    HW285270   9.457  11.581   5.830
27811SOL     OW85271   2.785  12.311   5.579
27811SOL    HW185272   2.747  12.388   5.621
27811SOL    HW285273   2.825  12.262   5.651
27812SOL     OW85274   2.364  12.986  13.070
27812SOL    HW185275   2.423  13.012  13.000
27812SOL    HW285276   2.277  12.984  13.029
27813SOL     OW85277   7.375   4.863   3.858
27813SOL    HW185278   7.298   4.890   3.908
27813SOL    HW285279   7.363   4.903   3.772
27814SOL     OW85280   8.864   5.460  11.658
27814SOL    HW185281   8.861   5.392  11.726
27814SOL    HW285282   8.875   5.542  11.706
27815SOL     OW85283  13.747   1.190   5.400
27815SOL    HW185284  13.715   1.229   5.481
27815SOL    HW285285  13.682   1.123   5.378
27816SOL     OW85286   2.571  11.143   0.375
27816SOL    HW185287   2.500  11.085   0.403
27816SOL    HW285288   2.619  11.092   0.311
27817SOL     OW85289   3.178   2.803  11.363
27817SOL    HW185290   3.167   2.815  11.268
27817SOL    HW285291   3.116   2.734  11.385
27818SOL     OW85292   0.984   2.843  13.873
27818SOL    HW185293   0.990   2.911  13.806
27818SOL    HW285294   0.922   2.877  13.937
27819SOL     OW85295  12.407   0.353   7.329
27819SOL    HW185296  12.365   0.342   7.244
27819SOL    HW285297  12.500   0.338   7.313
27820SOL     OW85298  11.540  10.760   7.776
27820SOL    HW185299  11.503  10.828   7.720
27820SOL    HW285300  11.613  10.803   7.821
27821SOL     OW85301  12.040   8.351   2.230
27821SOL    HW185302  12.076   8.367   2.317
27821SOL    HW285303  12.025   8.439   2.194
27822SOL     OW85304  12.025   9.372   4.463
27822SOL    HW185305  12.120   9.361   4.463
27822SOL    HW285306  12.001   9.368   4.370
27823SOL     OW85307   9.485   0.307  12.939
27823SOL    HW185308   9.549   0.377  12.923
27823SOL    HW285309   9.483   0.257  12.858
27824SOL     OW85310  14.170  14.876  10.112
27824SOL    HW185311  14.205   0.075  10.154
27824SOL    HW285312  14.114  14.836  10.179
27825SOL     OW85313   0.989  13.496   6.056
27825SOL    HW185314   0.917  13.506   5.994
27825SOL    HW285315   0.986  13.575   6.110
27826SOL     OW85316  14.546   4.805   4.606
27826SOL    HW185317  14.535   4.805   4.701
27826SOL    HW285318  14.640   4.791   4.593
27827SOL     OW85319  13.361   7.672  11.247
27827SOL    HW185320  13.318   7.622  11.316
27827SOL    HW285321  13.445   7.698  11.284
27828SOL     OW85322   2.627   3.231   4.960
27828SOL    HW185323   2.623   3.317   4.919
27828SOL    HW285324   2.711   3.195   4.932
27829SOL     OW85325   4.507   1.397   2.533
27829SOL    HW185326   4.594   1.359   2.518
27829SOL    HW285327   4.521   1.459   2.605
27830SOL     OW85328   8.259  11.512  11.367
27830SOL    HW185329   8.288  11.563  11.292
27830SOL    HW285330   8.335  11.511  11.426
27831SOL     OW85331   5.863  12.394   7.522
27831SOL    HW185332   5.788  12.345   7.557
27831SOL    HW285333   5.824  12.474   7.485
27832SOL     OW85334   1.779  10.816   2.354
27832SOL    HW185335   1.745  10.898   2.391
27832SOL    HW285336   1.850  10.791   2.413
27833SOL     OW85337   6.186   6.510   7.165
27833SOL    HW185338   6.161   6.419   7.176
27833SOL    HW285339   6.185   6.546   7.254
27834SOL     OW85340  12.014   1.230   0.680
27834SOL    HW185341  11.922   1.211   0.662
27834SOL    HW285342  12.057   1.144   0.684
27835SOL     OW85343  11.386   7.162  10.706
27835SOL    HW185344  11.395   7.108  10.628
27835SOL    HW285345  11.435   7.114  10.774
27836SOL     OW85346   6.095   1.221  10.542
27836SOL    HW185347   6.130   1.135  10.565
27836SOL    HW285348   6.114   1.276  10.617
27837SOL     OW85349  11.128   5.817   6.123
27837SOL    HW185350  11.122   5.911   6.111
27837SOL    HW285351  11.126   5.805   6.218
27838SOL     OW85352   7.862   7.572  11.549
27838SOL    HW185353   7.854   7.478  11.564
27838SOL    HW285354   7.772   7.603  11.537
27839SOL     OW85355  11.117  12.099   8.435
27839SOL    HW185356  11.038  12.150   8.450
27839SOL    HW285357  11.182  12.163   8.407
27840SOL     OW85358   4.861   6.398   1.428
27840SOL    HW185359   4.934   6.373   1.484
27840SOL    HW285360   4.863   6.335   1.356
27841SOL     OW85361   8.604   7.121   6.135
27841SOL    HW185362   8.635   7.173   6.208
27841SOL    HW285363   8.544   7.179   6.088
27842SOL     OW85364   8.013   4.859   5.527
27842SOL    HW185365   7.943   4.918   5.499
27842SOL    HW285366   7.968   4.778   5.552
27843SOL     OW85367   7.056   7.506  12.257
27843SOL    HW185368   7.050   7.463  12.171
27843SOL    HW285369   7.128   7.569  12.247
27844SOL     OW85370   1.314   9.269   6.752
27844SOL    HW185371   1.238   9.219   6.721
27844SOL    HW285372   1.281   9.358   6.764
27845SOL     OW85373   6.413   6.202  10.710
27845SOL    HW185374   6.377   6.207  10.798
27845SOL    HW285375   6.492   6.257  10.713
27846SOL     OW85376  14.248   3.349   4.497
27846SOL    HW185377  14.155   3.371   4.493
27846SOL    HW285378  14.251   3.256   4.519
27847SOL     OW85379   1.185   2.959   1.474
27847SOL    HW185380   1.092   2.945   1.489
27847SOL    HW285381   1.222   2.973   1.561
27848SOL     OW85382   8.867   3.984   8.373
27848SOL    HW185383   8.942   3.925   8.377
27848SOL    HW285384   8.846   3.990   8.279
27849SOL     OW85385   1.963  12.582   6.254
27849SOL    HW185386   1.890  12.557   6.310
27849SOL    HW285387   1.932  12.562   6.165
27850SOL     OW85388   6.799   0.185   2.077
27850SOL    HW185389   6.780   0.119   2.010
27850SOL    HW285390   6.870   0.148   2.129
27851SOL     OW85391   8.999   2.411  12.636
27851SOL    HW185392   8.950   2.341  12.593
27851SOL    HW285393   9.090   2.398  12.608
27852SOL     OW85394   4.415  13.971   7.308
27852SOL    HW185395   4.348  13.965   7.240
27852SOL    HW285396   4.371  13.942   7.387
27853SOL     OW85397   5.812   4.081   6.366
27853SOL    HW185398   5.888   4.140   6.374
27853SOL    HW285399   5.749   4.131   6.314
27854SOL     OW85400  14.001   4.174  10.201
27854SOL    HW185401  13.970   4.262  10.180
27854SOL    HW285402  13.963   4.118  10.133
27855SOL     OW85403  12.344   2.455   1.143
27855SOL    HW185404  12.375   2.512   1.214
27855SOL    HW285405  12.414   2.458   1.078
27856SOL     OW85406   8.560   2.016  10.100
27856SOL    HW185407   8.645   1.992  10.136
27856SOL    HW285408   8.497   1.983  10.165
27857SOL     OW85409   1.355  10.808   3.340
27857SOL    HW185410   1.340  10.773   3.252
27857SOL    HW285411   1.295  10.882   3.347
27858SOL     OW85412   7.776   2.119   1.420
27858SOL    HW185413   7.708   2.105   1.486
27858SOL    HW285414   7.821   2.199   1.449
27859SOL     OW85415  13.648   1.567  10.226
27859SOL    HW185416  13.584   1.637  10.230
27859SOL    HW285417  13.680   1.559  10.316
27860SOL     OW85418   8.515   8.102  12.378
27860SOL    HW185419   8.479   8.102  12.467
27860SOL    HW285420   8.506   8.193  12.350
27861SOL     OW85421   5.491   7.867   1.533
27861SOL    HW185422   5.397   7.879   1.522
27861SOL    HW285423   5.504   7.869   1.628
27862SOL     OW85424   9.134  13.479   3.118
27862SOL    HW185425   9.105  13.393   3.088
27862SOL    HW285426   9.193  13.460   3.191
27863SOL     OW85427   0.607   8.439  13.705
27863SOL    HW185428   0.532   8.462  13.649
27863SOL    HW285429   0.583   8.354  13.743
27864SOL     OW85430   7.671   4.226  13.921
27864SOL    HW185431   7.599   4.286  13.943
27864SOL    HW285432   7.658   4.206  13.829
27865SOL     OW85433   9.022  11.026   1.566
27865SOL    HW185434   9.105  11.054   1.527
27865SOL    HW285435   8.964  11.101   1.556
27866SOL     OW85436  12.389   1.187   3.337
27866SOL    HW185437  12.300   1.215   3.317
27866SOL    HW285438  12.415   1.242   3.412
27867SOL     OW85439  12.426   0.675   4.540
27867SOL    HW185440  12.519   0.695   4.545
27867SOL    HW285441  12.423   0.581   4.524
27868SOL     OW85442   6.549   5.508   8.467
27868SOL    HW185443   6.459   5.515   8.498
27868SOL    HW285444   6.542   5.524   8.372
27869SOL     OW85445   5.583  11.845   6.478
27869SOL    HW185446   5.648  11.792   6.523
27869SOL    HW285447   5.621  11.933   6.477
27870SOL     OW85448  10.364  11.486   7.489
27870SOL    HW185449  10.344  11.538   7.411
27870SOL    HW285450  10.459  11.471   7.483
27871SOL     OW85451   6.529  13.518   1.965
27871SOL    HW185452   6.473  13.443   1.983
27871SOL    HW285453   6.471  13.594   1.971
27872SOL     OW85454   4.688  11.533   0.385
27872SOL    HW185455   4.693  11.624   0.414
27872SOL    HW285456   4.614  11.496   0.434
27873SOL     OW85457  13.587  12.383  12.757
27873SOL    HW185458  13.495  12.410  12.752
27873SOL    HW285459  13.603  12.337  12.675
27874SOL     OW85460  10.289   7.248   8.343
27874SOL    HW185461  10.286   7.339   8.313
27874SOL    HW285462  10.207   7.209   8.313
27875SOL     OW85463   0.353   4.412  10.036
27875SOL    HW185464   0.441   4.448  10.033
27875SOL    HW285465   0.335   4.383   9.947
27876SOL     OW85466  13.410  11.871   4.653
27876SOL    HW185467  13.481  11.833   4.705
27876SOL    HW285468  13.344  11.898   4.717
27877SOL     OW85469  14.713   1.688   6.636
27877SOL    HW185470  14.775   1.692   6.708
27877SOL    HW285471  14.709   1.778   6.603
27878SOL     OW85472  13.578   8.922   7.223
27878SOL    HW185473  13.509   8.985   7.246
27878SOL    HW285474  13.531   8.848   7.186
27879SOL     OW85475   8.917   8.332   1.353
27879SOL    HW185476   8.976   8.285   1.293
27879SOL    HW285477   8.832   8.289   1.340
27880SOL     OW85478  14.300  11.616   4.757
27880SOL    HW185479  14.291  11.523   4.778
27880SOL    HW285480  14.225  11.657   4.800
27881SOL     OW85481  11.639   3.018  10.808
27881SOL    HW185482  11.630   2.923  10.797
27881SOL    HW285483  11.726   3.029  10.848
27882SOL     OW85484   7.228   7.862   1.326
27882SOL    HW185485   7.306   7.874   1.380
27882SOL    HW285486   7.261   7.846   1.238
27883SOL     OW85487   0.664  14.560   6.486
27883SOL    HW185488   0.677  14.649   6.453
27883SOL    HW285489   0.671  14.569   6.581
27884SOL     OW85490  10.629   4.286   1.608
27884SOL    HW185491  10.648   4.273   1.515
27884SOL    HW285492  10.601   4.377   1.614
27885SOL     OW85493   4.379  12.200  12.129
27885SOL    HW185494   4.359  12.166  12.041
27885SOL    HW285495   4.366  12.294  12.121
27886SOL     OW85496  13.268   6.593   0.186
27886SOL    HW185497  13.262   6.580   0.091
27886SOL    HW285498  13.180   6.576   0.219
27887SOL     OW85499   9.172   7.169   6.108
27887SOL    HW185500   9.220   7.205   6.183
27887SOL    HW285501   9.186   7.232   6.037
27888SOL     OW85502   0.292  11.430   8.376
27888SOL    HW185503   0.311  11.357   8.318
27888SOL    HW285504   0.235  11.393   8.444
27889SOL     OW85505   2.091   9.216   0.186
27889SOL    HW185506   2.159   9.214   0.119
27889SOL    HW285507   2.139   9.211   0.269
27890SOL     OW85508  13.177   7.301  11.209
27890SOL    HW185509  13.266   7.302  11.173
27890SOL    HW285510  13.127   7.357  11.150
27891SOL     OW85511   2.865   4.437  10.434
27891SOL    HW185512   2.859   4.354  10.387
27891SOL    HW285513   2.884   4.502  10.367
27892SOL     OW85514   0.431  14.751   9.657
27892SOL    HW185515   0.491  14.776   9.727
27892SOL    HW285516   0.359  14.707   9.701
27893SOL     OW85517  14.163  13.863   8.626
27893SOL    HW185518  14.080  13.853   8.673
27893SOL    HW285519  14.213  13.926   8.677
27894SOL     OW85520  12.815   3.619   9.766
27894SOL    HW185521  12.874   3.594   9.837
27894SOL    HW285522  12.856   3.584   9.687
27895SOL     OW85523  11.296  14.228   7.901
27895SOL    HW185524  11.202  14.221   7.883
27895SOL    HW285525  11.325  14.302   7.847
27896SOL     OW85526   5.873  13.329   9.714
27896SOL    HW185527   5.819  13.305   9.789
27896SOL    HW285528   5.961  13.301   9.737
27897SOL     OW85529   5.735   0.346  13.184
27897SOL    HW185530   5.722   0.383  13.096
27897SOL    HW285531   5.753   0.422  13.239
27898SOL     OW85532  13.627   7.172  13.425
27898SOL    HW185533  13.610   7.095  13.370
27898SOL    HW285534  13.722   7.181  13.423
27899SOL     OW85535   4.298   6.999  12.143
27899SOL    HW185536   4.304   6.972  12.052
27899SOL    HW285537   4.380   6.968  12.183
27900SOL     OW85538   2.613  12.477   5.225
27900SOL    HW185539   2.542  12.536   5.252
27900SOL    HW285540   2.604  12.401   5.283
27901SOL     OW85541   8.249   7.267   6.887
27901SOL    HW185542   8.324   7.315   6.921
27901SOL    HW285543   8.218   7.215   6.961
27902SOL     OW85544   1.201   6.996  12.475
27902SOL    HW185545   1.273   6.938  12.450
27902SOL    HW285546   1.244   7.078  12.498
27903SOL     OW85547   4.362   9.213  12.672
27903SOL    HW185548   4.372   9.308  12.663
27903SOL    HW285549   4.403   9.192  12.756
27904SOL     OW85550   4.755  11.600  11.557
27904SOL    HW185551   4.796  11.555  11.483
27904SOL    HW285552   4.662  11.605  11.534
27905SOL     OW85553   2.492  14.344  14.699
27905SOL    HW185554   2.419  14.339  14.760
27905SOL    HW285555   2.500  14.438  14.679
27906SOL     OW85556   2.567  12.496   0.295
27906SOL    HW185557   2.649  12.449   0.309
27906SOL    HW285558   2.576  12.536   0.209
27907SOL     OW85559   5.311   6.572   3.130
27907SOL    HW185560   5.218   6.550   3.132
27907SOL    HW285561   5.331   6.603   3.218
27908SOL     OW85562   7.690   6.982  12.126
27908SOL    HW185563   7.669   6.969  12.034
27908SOL    HW285564   7.627   7.047  12.157
27909SOL     OW85565   9.369   1.173  11.201
27909SOL    HW185566   9.442   1.118  11.229
27909SOL    HW285567   9.295   1.113  11.195
27910SOL     OW85568  12.900   8.153   5.999
27910SOL    HW185569  12.894   8.226   6.062
27910SOL    HW285570  12.915   8.076   6.054
27911SOL     OW85571  13.183   5.171   4.580
27911SOL    HW185572  13.241   5.115   4.529
27911SOL    HW285573  13.096   5.131   4.572
27912SOL     OW85574  14.257   8.163   6.906
27912SOL    HW185575  14.229   8.237   6.851
27912SOL    HW285576  14.235   8.086   6.854
27913SOL     OW85577   7.061   7.910   0.886
27913SOL    HW185578   7.103   7.977   0.939
27913SOL    HW285579   7.132   7.869   0.837
27914SOL     OW85580   2.790  11.120   4.206
27914SOL    HW185581   2.708  11.078   4.179
27914SOL    HW285582   2.774  11.213   4.191
27915SOL     OW85583  13.936   0.261   2.361
27915SOL    HW185584  14.012   0.204   2.356
27915SOL    HW285585  13.907   0.272   2.271
27916SOL     OW85586   1.466   9.521   5.240
27916SOL    HW185587   1.554   9.484   5.249
27916SOL    HW285588   1.473   9.609   5.276
27917SOL     OW85589  13.018  10.089   6.974
27917SOL    HW185590  12.928  10.097   6.941
27917SOL    HW285591  13.072  10.095   6.895
27918SOL     OW85592   9.089   5.377   5.987
27918SOL    HW185593   9.041   5.435   6.047
27918SOL    HW285594   9.177   5.415   5.983
27919SOL     OW85595   9.927   7.738   8.358
27919SOL    HW185596  10.004   7.708   8.406
27919SOL    HW285597   9.960   7.806   8.299
27920SOL     OW85598   9.843   0.434   2.934
27920SOL    HW185599   9.773   0.476   2.882
27920SOL    HW285600   9.840   0.342   2.907
27921SOL     OW85601  13.886   2.114  13.102
27921SOL    HW185602  13.869   2.081  13.014
27921SOL    HW285603  13.799   2.134  13.137
27922SOL     OW85604   9.242   9.294   3.134
27922SOL    HW185605   9.298   9.229   3.092
27922SOL    HW285606   9.207   9.250   3.211
27923SOL     OW85607   6.774   0.693  11.677
27923SOL    HW185608   6.838   0.700  11.748
27923SOL    HW285609   6.814   0.634  11.614
27924SOL     OW85610  13.527   9.724  11.169
27924SOL    HW185611  13.509   9.768  11.086
27924SOL    HW285612  13.622   9.707  11.167
27925SOL     OW85613   0.623  10.107   0.143
27925SOL    HW185614   0.610  10.024   0.099
27925SOL    HW285615   0.696  10.092   0.202
27926SOL     OW85616   0.182   2.641   9.861
27926SOL    HW185617   0.190   2.729   9.897
27926SOL    HW285618   0.229   2.585   9.922
27927SOL     OW85619   2.074   7.751  13.621
27927SOL    HW185620   2.046   7.829  13.572
27927SOL    HW285621   2.125   7.786  13.694
27928SOL     OW85622  12.758  11.266   5.772
27928SOL    HW185623  12.831  11.229   5.822
27928SOL    HW285624  12.782  11.358   5.758
27929SOL     OW85625   8.424   0.824   4.994
27929SOL    HW185626   8.467   0.909   4.992
27929SOL    HW285627   8.486   0.765   4.950
27930SOL     OW85628  14.510  11.890   8.231
27930SOL    HW185629  14.497  11.871   8.324
27930SOL    HW285630  14.537  11.982   8.229
27931SOL     OW85631  11.361   1.750   8.768
27931SOL    HW185632  11.453   1.723   8.767
27931SOL    HW285633  11.363   1.843   8.746
27932SOL     OW85634   2.279  11.609  13.109
27932SOL    HW185635   2.276  11.516  13.091
27932SOL    HW285636   2.299  11.650  13.025
27933SOL     OW85637   4.157  14.508  12.012
27933SOL    HW185638   4.247  14.509  11.977
27933SOL    HW285639   4.104  14.550  11.944
27934SOL     OW85640   4.626  12.370   8.724
27934SOL    HW185641   4.668  12.411   8.799
27934SOL    HW285642   4.673  12.403   8.648
27935SOL     OW85643   8.916   6.709  10.554
27935SOL    HW185644   8.906   6.683  10.462
27935SOL    HW285645   8.985   6.652  10.587
27936SOL     OW85646  11.128  13.052   1.422
27936SOL    HW185647  11.064  13.042   1.351
27936SOL    HW285648  11.211  13.063   1.376
27937SOL     OW85649  10.204   6.758   7.261
27937SOL    HW185650  10.136   6.743   7.327
27937SOL    HW285651  10.282   6.781   7.311
27938SOL     OW85652   6.319   4.104  11.890
27938SOL    HW185653   6.321   4.191  11.851
27938SOL    HW285654   6.408   4.070  11.881
27939SOL     OW85655  14.712   1.187   6.608
27939SOL    HW185656  14.704   1.113   6.667
27939SOL    HW285657  14.625   1.228   6.608
27940SOL     OW85658   2.164   2.810   3.538
27940SOL    HW185659   2.259   2.820   3.540
27940SOL    HW285660   2.137   2.848   3.455
27941SOL     OW85661   8.225  13.174  13.932
27941SOL    HW185662   8.194  13.089  13.965
27941SOL    HW285663   8.300  13.152  13.877
27942SOL     OW85664   2.809  11.004   0.120
27942SOL    HW185665   2.740  11.000   0.053
27942SOL    HW285666   2.813  10.914   0.155
27943SOL     OW85667  13.501   0.988   0.056
27943SOL    HW185668  13.568   0.965   0.120
27943SOL    HW285669  13.421   0.945   0.088
27944SOL     OW85670   3.318   7.945   7.231
27944SOL    HW185671   3.391   7.979   7.281
27944SOL    HW285672   3.320   7.993   7.148
27945SOL     OW85673  12.021   8.520   4.210
27945SOL    HW185674  12.104   8.532   4.257
27945SOL    HW285675  11.961   8.485   4.276
27946SOL     OW85676   5.036   1.777  11.030
27946SOL    HW185677   5.034   1.765  10.935
27946SOL    HW285678   4.952   1.818  11.051
27947SOL     OW85679   9.417   7.463  10.223
27947SOL    HW185680   9.505   7.457  10.260
27947SOL    HW285681   9.361   7.414  10.283
27948SOL     OW85682   5.924   9.392   1.886
27948SOL    HW185683   5.843   9.423   1.925
27948SOL    HW285684   5.959   9.468   1.840
27949SOL     OW85685  11.740  14.113   6.868
27949SOL    HW185686  11.725  14.019   6.854
27949SOL    HW285687  11.835  14.122   6.870
27950SOL     OW85688   4.617   5.393   9.795
27950SOL    HW185689   4.683   5.376   9.728
27950SOL    HW285690   4.606   5.488   9.794
27951SOL     OW85691   5.214   1.282  13.270
27951SOL    HW185692   5.250   1.239  13.193
27951SOL    HW285693   5.289   1.321  13.314
27952SOL     OW85694   1.157  13.385  14.757
27952SOL    HW185695   1.239  13.344  14.729
27952SOL    HW285696   1.116  13.414  14.676
27953SOL     OW85697   8.232  14.576   0.737
27953SOL    HW185698   8.149  14.620   0.719
27953SOL    HW285699   8.244  14.586   0.832
27954SOL     OW85700  13.511  13.556   4.466
27954SOL    HW185701  13.455  13.560   4.543
27954SOL    HW285702  13.582  13.617   4.485
27955SOL     OW85703   1.079   5.777   2.022
27955SOL    HW185704   1.097   5.686   1.999
27955SOL    HW285705   1.165   5.816   2.037
27956SOL     OW85706  12.267   6.915   6.465
27956SOL    HW185707  12.263   6.999   6.421
27956SOL    HW285708  12.325   6.862   6.409
27957SOL     OW85709   1.619   1.662  13.341
27957SOL    HW185710   1.595   1.616  13.421
27957SOL    HW285711   1.563   1.739  13.339
27958SOL     OW85712   4.586   6.856  11.890
27958SOL    HW185713   4.646   6.916  11.847
27958SOL    HW285714   4.499   6.890  11.871
27959SOL     OW85715  13.150   1.644  10.711
27959SOL    HW185716  13.145   1.733  10.677
27959SOL    HW285717  13.164   1.656  10.805
27960SOL     OW85718  14.219  11.197   7.387
27960SOL    HW185719  14.308  11.190   7.354
27960SOL    HW285720  14.170  11.131   7.339
27961SOL     OW85721   2.775   9.051   1.691
27961SOL    HW185722   2.825   9.058   1.772
27961SOL    HW285723   2.798   8.965   1.656
27962SOL     OW85724  13.216  12.983   3.632
27962SOL    HW185725  13.248  12.942   3.713
27962SOL    HW285726  13.122  12.963   3.631
27963SOL     OW85727   0.867  13.781   4.863
27963SOL    HW185728   0.868  13.817   4.951
27963SOL    HW285729   0.960  13.772   4.840
27964SOL     OW85730   9.643  13.924   2.740
27964SOL    HW185731   9.669  13.872   2.815
27964SOL    HW285732   9.718  13.921   2.681
27965SOL     OW85733  13.411  12.403   4.326
27965SOL    HW185734  13.488  12.453   4.297
27965SOL    HW285735  13.337  12.461   4.305
27966SOL     OW85736  14.132  12.318   0.464
27966SOL    HW185737  14.118  12.388   0.528
27966SOL    HW285738  14.174  12.248   0.513
27967SOL     OW85739   8.128  10.659  14.182
27967SOL    HW185740   8.167  10.626  14.101
27967SOL    HW285741   8.072  10.588  14.213
27968SOL     OW85742   7.199  14.852   6.205
27968SOL    HW185743   7.181  14.788   6.136
27968SOL    HW285744   7.170   0.056   6.169
27969SOL     OW85745   8.632  13.540  11.548
27969SOL    HW185746   8.671  13.581  11.471
27969SOL    HW285747   8.690  13.466  11.567
27970SOL     OW85748   1.086   5.101  13.025
27970SOL    HW185749   1.082   5.049  12.945
27970SOL    HW285750   1.082   5.192  12.995
27971SOL     OW85751  12.543   8.523   0.492
27971SOL    HW185752  12.473   8.546   0.432
27971SOL    HW285753  12.597   8.602   0.498
27972SOL     OW85754   7.326   4.876   4.322
27972SOL    HW185755   7.287   4.809   4.379
27972SOL    HW285756   7.340   4.951   4.380
27973SOL     OW85757   7.208   5.749  11.280
27973SOL    HW185758   7.163   5.665  11.287
27973SOL    HW285759   7.301   5.727  11.281
27974SOL     OW85760   5.670   1.789   0.396
27974SOL    HW185761   5.761   1.814   0.406
27974SOL    HW285762   5.673   1.710   0.341
27975SOL     OW85763   5.143  13.198   5.797
27975SOL    HW185764   5.214  13.224   5.855
27975SOL    HW285765   5.063  13.223   5.843
27976SOL     OW85766  13.680   4.602   7.516
27976SOL    HW185767  13.657   4.694   7.510
27976SOL    HW285768  13.740   4.586   7.443
27977SOL     OW85769   0.094  11.223  14.231
27977SOL    HW185770   0.083  11.170  14.310
27977SOL    HW285771   0.046  11.304  14.249
27978SOL     OW85772   0.716  14.071   9.177
27978SOL    HW185773   0.702  14.068   9.083
27978SOL    HW285774   0.655  14.138   9.208
27979SOL     OW85775   9.452  14.830   8.577
27979SOL    HW185776   9.487  14.741   8.569
27979SOL    HW285777   9.490  14.864   8.657
27980SOL     OW85778  13.319   1.196   6.599
27980SOL    HW185779  13.257   1.240   6.658
27980SOL    HW285780  13.263   1.145   6.540
27981SOL     OW85781   9.127   6.818   6.955
27981SOL    HW185782   9.082   6.735   6.968
27981SOL    HW285783   9.073   6.866   6.892
27982SOL     OW85784   5.742   0.042   4.836
27982SOL    HW185785   5.831   0.011   4.820
27982SOL    HW285786   5.704  14.856   4.895
27983SOL     OW85787  13.360   6.328   5.883
27983SOL    HW185788  13.397   6.311   5.797
27983SOL    HW285789  13.339   6.422   5.882
27984SOL     OW85790  11.861  14.845   0.498
27984SOL    HW185791  11.790  14.781   0.503
27984SOL    HW285792  11.870  14.878   0.588
27985SOL     OW85793   8.868   1.519  11.020
27985SOL    HW185794   8.912   1.489  11.099
27985SOL    HW285795   8.862   1.614  11.030
27986SOL     OW85796   1.663   1.055   8.894
27986SOL    HW185797   1.589   1.064   8.953
27986SOL    HW285798   1.647   1.121   8.826
27987SOL     OW85799   1.496  11.807   0.695
27987SOL    HW185800   1.573  11.846   0.654
27987SOL    HW285801   1.530  11.747   0.761
27988SOL     OW85802  10.113  11.543   4.948
27988SOL    HW185803  10.049  11.472   4.959
27988SOL    HW285804  10.133  11.571   5.037
27989SOL     OW85805  11.299   5.087   5.880
27989SOL    HW185806  11.301   5.177   5.849
27989SOL    HW285807  11.265   5.037   5.806
27990SOL     OW85808   8.792   7.050  13.665
27990SOL    HW185809   8.816   7.017  13.579
27990SOL    HW285810   8.734   7.124  13.648
27991SOL     OW85811  11.012   0.816   8.812
27991SOL    HW185812  11.025   0.724   8.832
27991SOL    HW285813  11.089   0.840   8.759
27992SOL     OW85814   6.577   3.213  10.708
27992SOL    HW185815   6.627   3.270  10.649
27992SOL    HW285816   6.565   3.267  10.787
27993SOL     OW85817   7.444  11.602   3.124
27993SOL    HW185818   7.406  11.514   3.132
27993SOL    HW285819   7.416  11.647   3.203
27994SOL     OW85820   5.896   0.074   1.180
27994SOL    HW185821   5.874  14.866   1.146
27994SOL    HW285822   5.893   0.131   1.103
27995SOL     OW85823   9.445   1.468   2.730
27995SOL    HW185824   9.400   1.546   2.764
27995SOL    HW285825   9.431   1.402   2.798
27996SOL     OW85826  13.556   4.013   1.310
27996SOL    HW185827  13.598   3.994   1.227
27996SOL    HW285828  13.468   3.975   1.302
27997SOL     OW85829   3.133   7.643   3.612
27997SOL    HW185830   3.056   7.678   3.566
27997SOL    HW285831   3.207   7.672   3.559
27998SOL     OW85832   0.433   3.271  11.773
27998SOL    HW185833   0.500   3.226  11.721
27998SOL    HW285834   0.481   3.310  11.846
27999SOL     OW85835   2.216  11.015   1.436
27999SOL    HW185836   2.126  11.012   1.468
27999SOL    HW285837   2.252  10.928   1.457
28000SOL     OW85838   4.094   3.122  11.059
28000SOL    HW185839   4.039   3.078  11.125
28000SOL    HW285840   4.032   3.153  10.993
28001SOL     OW85841   2.676   1.822   7.831
28001SOL    HW185842   2.681   1.825   7.736
28001SOL    HW285843   2.761   1.790   7.859
28002SOL     OW85844  14.551   2.940  13.937
28002SOL    HW185845  14.580   2.869  13.879
28002SOL    HW285846  14.583   3.019  13.895
28003SOL     OW85847   6.459   4.157   3.224
28003SOL    HW185848   6.420   4.070   3.229
28003SOL    HW285849   6.409   4.209   3.287
28004SOL     OW85850   4.003   4.184   3.843
28004SOL    HW185851   3.946   4.171   3.919
28004SOL    HW285852   3.943   4.195   3.770
28005SOL     OW85853   1.851  14.064  11.179
28005SOL    HW185854   1.943  14.092  11.171
28005SOL    HW285855   1.844  13.988  11.123
28006SOL     OW85856   4.364   5.668   8.033
28006SOL    HW185857   4.391   5.667   8.125
28006SOL    HW285858   4.309   5.590   8.023
28007SOL     OW85859  12.734   2.619  11.712
28007SOL    HW185860  12.748   2.713  11.717
28007SOL    HW285861  12.659   2.602  11.769
28008SOL     OW85862  11.564  13.494  13.654
28008SOL    HW185863  11.508  13.529  13.585
28008SOL    HW285864  11.514  13.420  13.690
28009SOL     OW85865  10.839  13.339   7.970
28009SOL    HW185866  10.781  13.368   7.900
28009SOL    HW285867  10.917  13.394   7.961
28010SOL     OW85868   6.978   4.961   3.506
28010SOL    HW185869   6.941   5.039   3.465
28010SOL    HW285870   6.999   4.902   3.433
28011SOL     OW85871   7.139   3.589   0.662
28011SOL    HW185872   7.094   3.525   0.606
28011SOL    HW285873   7.078   3.663   0.667
28012SOL     OW85874  10.592   5.857   0.049
28012SOL    HW185875  10.567   5.905  14.849
28012SOL    HW285876  10.546   5.902   0.120
28013SOL     OW85877   8.833  12.488  10.227
28013SOL    HW185878   8.756  12.535  10.260
28013SOL    HW285879   8.863  12.541  10.154
28014SOL     OW85880   1.709   0.441  12.769
28014SOL    HW185881   1.777   0.430  12.703
28014SOL    HW285882   1.757   0.453  12.851
28015SOL     OW85883   4.496  10.922   6.346
28015SOL    HW185884   4.583  10.942   6.382
28015SOL    HW285885   4.502  10.830   6.320
28016SOL     OW85886  10.537   2.134  13.523
28016SOL    HW185887  10.486   2.196  13.574
28016SOL    HW285888  10.593   2.188  13.468
28017SOL     OW85889   9.452  14.259  13.753
28017SOL    HW185890   9.387  14.329  13.742
28017SOL    HW285891   9.458  14.247  13.848
28018SOL     OW85892   7.932  14.582   7.901
28018SOL    HW185893   7.837  14.591   7.909
28018SOL    HW285894   7.946  14.557   7.810
28019SOL     OW85895   3.301   5.226   9.429
28019SOL    HW185896   3.370   5.205   9.492
28019SOL    HW285897   3.302   5.322   9.424
28020SOL     OW85898  10.413   4.935  12.153
28020SOL    HW185899  10.387   4.916  12.243
28020SOL    HW285900  10.419   5.030  12.149
28021SOL     OW85901   9.399   1.019   8.934
28021SOL    HW185902   9.387   1.101   8.886
28021SOL    HW285903   9.317   1.005   8.980
28022SOL     OW85904   1.471   4.787   1.414
28022SOL    HW185905   1.497   4.798   1.506
28022SOL    HW285906   1.381   4.820   1.411
28023SOL     OW85907  12.052   0.089   6.288
28023SOL    HW185908  12.061   0.077   6.194
28023SOL    HW285909  12.070   0.003   6.326
28024SOL     OW85910   4.646  10.728   6.098
28024SOL    HW185911   4.669  10.680   6.018
28024SOL    HW285912   4.553  10.709   6.111
28025SOL     OW85913   3.031  12.867   8.819
28025SOL    HW185914   2.949  12.845   8.775
28025SOL    HW285915   3.052  12.790   8.871
28026SOL     OW85916   6.870   4.040  14.525
28026SOL    HW185917   6.787   4.079  14.551
28026SOL    HW285918   6.846   3.970  14.464
28027SOL     OW85919  14.151   9.626   3.979
28027SOL    HW185920  14.154   9.610   3.884
28027SOL    HW285921  14.183   9.545   4.018
28028SOL     OW85922  11.891   4.751   4.447
28028SOL    HW185923  11.840   4.774   4.524
28028SOL    HW285924  11.849   4.673   4.412
28029SOL     OW85925  11.029  12.315  14.612
28029SOL    HW185926  11.102  12.267  14.650
28029SOL    HW285927  10.955  12.254  14.616
28030SOL     OW85928  13.653   3.602   2.543
28030SOL    HW185929  13.568   3.645   2.543
28030SOL    HW285930  13.717   3.673   2.552
28031SOL     OW85931  14.423   3.707  11.271
28031SOL    HW185932  14.409   3.648  11.345
28031SOL    HW285933  14.458   3.651  11.202
28032SOL     OW85934   2.529   8.109   3.311
28032SOL    HW185935   2.455   8.118   3.370
28032SOL    HW285936   2.568   8.196   3.308
28033SOL     OW85937   6.578   8.063   8.164
28033SOL    HW185938   6.491   8.034   8.193
28033SOL    HW285939   6.560   8.139   8.109
28034SOL     OW85940   7.204  12.455   3.486
28034SOL    HW185941   7.269  12.404   3.438
28034SOL    HW285942   7.203  12.416   3.574
28035SOL     OW85943   9.775  12.978   9.473
28035SOL    HW185944   9.707  12.917   9.445
28035SOL    HW285945   9.737  13.064   9.461
28036SOL     OW85946   0.314   8.626   0.580
28036SOL    HW185947   0.242   8.579   0.537
28036SOL    HW285948   0.379   8.638   0.511
28037SOL     OW85949   3.209   4.596   4.306
28037SOL    HW185950   3.222   4.604   4.400
28037SOL    HW285951   3.187   4.684   4.277
28038SOL     OW85952   2.722   7.834  10.289
28038SOL    HW185953   2.810   7.827  10.326
28038SOL    HW285954   2.705   7.929  10.285
28039SOL     OW85955  10.873   3.921   7.344
28039SOL    HW185956  10.904   4.011   7.348
28039SOL    HW285957  10.918   3.876   7.415
28040SOL     OW85958   5.862   0.741  11.130
28040SOL    HW185959   5.821   0.670  11.181
28040SOL    HW285960   5.890   0.698  11.049
28041SOL     OW85961   1.420   5.411   2.575
28041SOL    HW185962   1.479   5.341   2.603
28041SOL    HW285963   1.478   5.484   2.554
28042SOL     OW85964   5.573   0.965   0.763
28042SOL    HW185965   5.648   0.935   0.813
28042SOL    HW285966   5.601   1.049   0.725
28043SOL     OW85967   6.656   4.179  11.717
28043SOL    HW185968   6.631   4.088  11.731
28043SOL    HW285969   6.614   4.204  11.634
28044SOL     OW85970   8.835   3.740   6.079
28044SOL    HW185971   8.922   3.732   6.118
28044SOL    HW285972   8.851   3.733   5.985
28045SOL     OW85973   7.265  11.825   6.308
28045SOL    HW185974   7.248  11.786   6.222
28045SOL    HW285975   7.273  11.750   6.367
28046SOL     OW85976  10.373  13.425   7.747
28046SOL    HW185977  10.428  13.474   7.809
28046SOL    HW285978  10.414  13.339   7.742
28047SOL     OW85979  11.589  14.310   1.676
28047SOL    HW185980  11.633  14.284   1.757
28047SOL    HW285981  11.501  14.274   1.684
28048SOL     OW85982   5.210   1.730   9.546
28048SOL    HW185983   5.196   1.691   9.633
28048SOL    HW285984   5.237   1.820   9.565
28049SOL     OW85985  13.324  14.491  10.045
28049SOL    HW185986  13.393  14.546  10.006
28049SOL    HW285987  13.368  14.444  10.116
28050SOL     OW85988   9.461   4.126   0.778
28050SOL    HW185989   9.464   4.147   0.871
28050SOL    HW285990   9.373   4.150   0.751
28051SOL     OW85991   1.916   7.975  11.556
28051SOL    HW185992   1.857   8.033  11.507
28051SOL    HW285993   1.976   8.034  11.601
28052SOL     OW85994   6.966   0.055   6.703
28052SOL    HW185995   7.020  14.860   6.677
28052SOL    HW285996   6.876   0.021   6.701
28053SOL     OW85997   6.158  14.629   7.233
28053SOL    HW185998   6.078  14.594   7.195
28053SOL    HW285999   6.226  14.567   7.206
28054SOL     OW86000  14.776  12.532   7.625
28054SOL    HW186001  14.865  12.514   7.656
28054SOL    HW286002  14.728  12.451   7.641
28055SOL     OW86003  14.727  10.807   5.112
28055SOL    HW186004  14.680  10.847   5.185
28055SOL    HW286005  14.738  10.715   5.139
28056SOL     OW86006   0.980   5.115   4.665
28056SOL    HW186007   0.957   5.205   4.690
28056SOL    HW286008   1.066   5.124   4.623
28057SOL     OW86009  14.234   7.402   4.755
28057SOL    HW186010  14.248   7.470   4.821
28057SOL    HW286011  14.309   7.343   4.765
28058SOL     OW86012   1.873   7.344  14.241
28058SOL    HW186013   1.796   7.321  14.292
28058SOL    HW286014   1.903   7.261  14.203
28059SOL     OW86015   3.776   5.698   0.615
28059SOL    HW186016   3.801   5.789   0.626
28059SOL    HW286017   3.682   5.697   0.634
28060SOL     OW86018   0.272   0.703   0.534
28060SOL    HW186019   0.225   0.768   0.481
28060SOL    HW286020   0.205   0.669   0.594
28061SOL     OW86021   9.546   5.791  13.176
28061SOL    HW186022   9.556   5.884  13.160
28061SOL    HW286023   9.547   5.751  13.088
28062SOL     OW86024  14.772  13.804   7.381
28062SOL    HW186025  14.776  13.722   7.330
28062SOL    HW286026  14.763  13.872   7.315
28063SOL     OW86027   1.365   2.259   1.456
28063SOL    HW186028   1.430   2.237   1.524
28063SOL    HW286029   1.331   2.344   1.483
28064SOL     OW86030   1.909   5.777   2.652
28064SOL    HW186031   1.986   5.734   2.615
28064SOL    HW286032   1.944   5.841   2.714
28065SOL     OW86033  12.598   9.514   5.928
28065SOL    HW186034  12.675   9.496   5.874
28065SOL    HW286035  12.537   9.444   5.906
28066SOL     OW86036   2.600   4.599   8.164
28066SOL    HW186037   2.679   4.565   8.206
28066SOL    HW286038   2.599   4.692   8.186
28067SOL     OW86039   7.159   5.426   7.175
28067SOL    HW186040   7.072   5.393   7.197
28067SOL    HW286041   7.188   5.371   7.102
28068SOL     OW86042   0.127   3.633   0.897
28068SOL    HW186043   0.085   3.712   0.931
28068SOL    HW286044   0.216   3.635   0.932
28069SOL     OW86045   4.371   6.424  12.285
28069SOL    HW186046   4.368   6.488  12.213
28069SOL    HW286047   4.464   6.403  12.294
28070SOL     OW86048   7.915   3.876  11.035
28070SOL    HW186049   7.980   3.939  11.063
28070SOL    HW286050   7.896   3.824  11.114
28071SOL     OW86051   2.099   2.941   9.607
28071SOL    HW186052   2.073   2.919   9.696
28071SOL    HW286053   2.093   3.037   9.603
28072SOL     OW86054   3.661  13.877   0.906
28072SOL    HW186055   3.712  13.829   0.841
28072SOL    HW286056   3.710  13.958   0.920
28073SOL     OW86057   1.623  11.864   8.869
28073SOL    HW186058   1.549  11.888   8.814
28073SOL    HW286059   1.692  11.927   8.846
28074SOL     OW86060   1.670   6.864  12.599
28074SOL    HW186061   1.601   6.880  12.663
28074SOL    HW286062   1.739   6.925  12.623
28075SOL     OW86063  12.432   2.969   0.731
28075SOL    HW186064  12.376   3.024   0.786
28075SOL    HW286065  12.400   2.985   0.642
28076SOL     OW86066   8.439   4.499   6.719
28076SOL    HW186067   8.403   4.411   6.728
28076SOL    HW286068   8.399   4.549   6.790
28077SOL     OW86069   2.158  14.198   0.934
28077SOL    HW186070   2.106  14.118   0.919
28077SOL    HW286071   2.109  14.245   1.001
28078SOL     OW86072  14.365   5.794   7.789
28078SOL    HW186073  14.360   5.775   7.695
28078SOL    HW286074  14.444   5.847   7.799
28079SOL     OW86075  14.489   2.920  12.057
28079SOL    HW186076  14.487   2.888  12.148
28079SOL    HW286077  14.581   2.938  12.040
28080SOL     OW86078   9.561   1.017  14.695
28080SOL    HW186079   9.507   1.083  14.652
28080SOL    HW286080   9.651   1.050  14.685
28081SOL     OW86081   4.546   8.585   4.864
28081SOL    HW186082   4.637   8.614   4.873
28081SOL    HW286083   4.495   8.664   4.883
28082SOL     OW86084   9.264   8.645  13.637
28082SOL    HW186085   9.269   8.714  13.571
28082SOL    HW286086   9.320   8.677  13.709
28083SOL     OW86087   5.253   8.444  11.731
28083SOL    HW186088   5.229   8.536  11.740
28083SOL    HW286089   5.297   8.439  11.646
28084SOL     OW86090   9.553   9.395   0.945
28084SOL    HW186091   9.510   9.449   0.879
28084SOL    HW286092   9.482   9.350   0.990
28085SOL     OW86093   1.650   4.026   1.810
28085SOL    HW186094   1.721   3.967   1.833
28085SOL    HW286095   1.650   4.091   1.880
28086SOL     OW86096   8.607   9.640   3.389
28086SOL    HW186097   8.585   9.547   3.376
28086SOL    HW286098   8.638   9.644   3.480
28087SOL     OW86099   1.040   0.058   3.658
28087SOL    HW186100   1.012   0.012   3.736
28087SOL    HW286101   1.045  14.869   3.590
28088SOL     OW86102   8.826   1.124   8.584
28088SOL    HW186103   8.821   1.161   8.496
28088SOL    HW286104   8.781   1.187   8.640
28089SOL     OW86105   4.238   0.642  13.980
28089SOL    HW186106   4.198   0.638  13.893
28089SOL    HW286107   4.164   0.641  14.041
28090SOL     OW86108  12.421   9.674   8.094
28090SOL    HW186109  12.479   9.628   8.032
28090SOL    HW286110  12.414   9.763   8.059
28091SOL     OW86111   3.135   8.348   9.158
28091SOL    HW186112   3.202   8.352   9.226
28091SOL    HW286113   3.109   8.439   9.145
28092SOL     OW86114  10.937  11.125   4.929
28092SOL    HW186115  10.878  11.200   4.926
28092SOL    HW286116  10.980  11.132   5.014
28093SOL     OW86117  10.322  13.233   5.062
28093SOL    HW186118  10.287  13.319   5.085
28093SOL    HW286119  10.279  13.212   4.979
28094SOL     OW86120   3.528   6.223   3.781
28094SOL    HW186121   3.582   6.293   3.745
28094SOL    HW286122   3.496   6.175   3.705
28095SOL     OW86123   6.570   9.733  13.371
28095SOL    HW186124   6.619   9.704  13.448
28095SOL    HW286125   6.524   9.654  13.341
28096SOL     OW86126   3.297   3.941   3.785
28096SOL    HW186127   3.228   3.995   3.825
28096SOL    HW286128   3.378   3.988   3.804
28097SOL     OW86129   8.415  10.526   0.552
28097SOL    HW186130   8.429  10.432   0.540
28097SOL    HW286131   8.501  10.565   0.533
28098SOL     OW86132   6.356   8.949   5.060
28098SOL    HW186133   6.362   8.859   5.091
28098SOL    HW286134   6.427   8.958   4.997
28099SOL     OW86135  12.701   3.586  14.715
28099SOL    HW186136  12.749   3.528  14.656
28099SOL    HW286137  12.754   3.666  14.719
28100SOL     OW86138   7.861   1.586   0.954
28100SOL    HW186139   7.798   1.597   0.883
28100SOL    HW286140   7.864   1.492   0.969
28101SOL     OW86141   7.092  14.677   6.610
28101SOL    HW186142   7.176  14.723   6.609
28101SOL    HW286143   7.081  14.646   6.520
28102SOL     OW86144   8.600   7.778   7.952
28102SOL    HW186145   8.591   7.753   8.044
28102SOL    HW286146   8.669   7.720   7.918
28103SOL     OW86147   1.650   8.146  10.854
28103SOL    HW186148   1.558   8.118  10.846
28103SOL    HW286149   1.646   8.226  10.905
28104SOL     OW86150   3.148   5.561  13.924
28104SOL    HW186151   3.244   5.564  13.921
28104SOL    HW286152   3.121   5.546  13.834
28105SOL     OW86153  10.008   3.503  10.433
28105SOL    HW186154  10.079   3.547  10.479
28105SOL    HW286155   9.986   3.561  10.360
28106SOL     OW86156   4.005   5.720   8.017
28106SOL    HW186157   4.073   5.787   8.012
28106SOL    HW286158   3.928   5.761   7.979
28107SOL     OW86159  13.260   6.895   5.077
28107SOL    HW186160  13.309   6.971   5.108
28107SOL    HW286161  13.245   6.913   4.984
28108SOL     OW86162  13.067   9.422   2.992
28108SOL    HW186163  13.097   9.335   2.966
28108SOL    HW286164  13.089   9.479   2.919
28109SOL     OW86165   8.373   3.641   4.053
28109SOL    HW186166   8.311   3.569   4.044
28109SOL    HW286167   8.343   3.690   4.129
28110SOL     OW86168   4.151  11.074  10.203
28110SOL    HW186169   4.137  10.991  10.250
28110SOL    HW286170   4.221  11.117  10.253
28111SOL     OW86171   8.196   4.820  14.693
28111SOL    HW186172   8.239   4.905  14.707
28111SOL    HW286173   8.154   4.828  14.608
28112SOL     OW86174  11.193   4.401   9.654
28112SOL    HW186175  11.239   4.485   9.664
28112SOL    HW286176  11.237   4.359   9.580
28113SOL     OW86177   8.080   6.567   0.910
28113SOL    HW186178   8.123   6.618   0.841
28113SOL    HW286179   8.094   6.476   0.885
28114SOL     OW86180  12.974  14.168  11.142
28114SOL    HW186181  12.886  14.146  11.175
28114SOL    HW286182  12.966  14.158  11.047
28115SOL     OW86183   9.344  12.235  11.479
28115SOL    HW186184   9.408  12.243  11.549
28115SOL    HW286185   9.390  12.264  11.400
28116SOL     OW86186   3.783   6.801  13.395
28116SOL    HW186187   3.704   6.748  13.393
28116SOL    HW286188   3.830   6.778  13.314
28117SOL     OW86189   4.027   9.849  11.397
28117SOL    HW186190   3.985   9.934  11.384
28117SOL    HW286191   3.954   9.788  11.410
28118SOL     OW86192   3.844   4.209   7.526
28118SOL    HW186193   3.938   4.210   7.510
28118SOL    HW286194   3.822   4.300   7.543
28119SOL     OW86195  14.696   1.025   6.225
28119SOL    HW186196  14.602   1.011   6.227
28119SOL    HW286197  14.708   1.109   6.181
28120SOL     OW86198   3.579   0.600  10.490
28120SOL    HW186199   3.585   0.518  10.442
28120SOL    HW286200   3.551   0.665  10.425
28121SOL     OW86201  10.773   9.390  11.887
28121SOL    HW186202  10.706   9.454  11.866
28121SOL    HW286203  10.732   9.331  11.950
28122SOL     OW86204  14.507   2.896   9.756
28122SOL    HW186205  14.567   2.844   9.702
28122SOL    HW286206  14.509   2.854   9.842
28123SOL     OW86207   0.549  13.226   3.493
28123SOL    HW186208   0.566  13.132   3.499
28123SOL    HW286209   0.572  13.248   3.403
28124SOL     OW86210  11.426   1.895   0.761
28124SOL    HW186211  11.500   1.834   0.765
28124SOL    HW286212  11.455   1.972   0.810
28125SOL     OW86213   3.401   0.377  10.773
28125SOL    HW186214   3.396   0.413  10.861
28125SOL    HW286215   3.311   0.351  10.752
28126SOL     OW86216   7.942  13.919  10.989
28126SOL    HW186217   7.953  13.981  11.062
28126SOL    HW286218   7.878  13.856  11.021
28127SOL     OW86219   5.595   1.414  10.640
28127SOL    HW186220   5.668   1.371  10.596
28127SOL    HW286221   5.631   1.497  10.672
28128SOL     OW86222  14.611  13.310   7.604
28128SOL    HW186223  14.701  13.345   7.599
28128SOL    HW286224  14.616  13.225   7.561
28129SOL     OW86225  14.739   2.931  13.604
28129SOL    HW186226  14.737   2.851  13.657
28129SOL    HW286227  14.772   2.998  13.664
28130SOL     OW86228   3.441   5.873   0.305
28130SOL    HW186229   3.413   5.863   0.214
28130SOL    HW286230   3.364   5.848   0.357
28131SOL     OW86231   5.652   5.309  11.528
28131SOL    HW186232   5.591   5.235  11.528
28131SOL    HW286233   5.700   5.300  11.610
28132SOL     OW86234   5.970  11.510  11.144
28132SOL    HW186235   5.993  11.446  11.077
28132SOL    HW286236   6.035  11.580  11.134
28133SOL     OW86237   5.354   8.453  10.601
28133SOL    HW186238   5.396   8.372  10.573
28133SOL    HW286239   5.339   8.502  10.521
28134SOL     OW86240  11.543  11.925   3.998
28134SOL    HW186241  11.528  11.894   4.088
28134SOL    HW286242  11.457  11.916   3.956
28135SOL     OW86243   3.182   6.174   5.252
28135SOL    HW186244   3.244   6.230   5.204
28135SOL    HW286245   3.236   6.128   5.316
28136SOL     OW86246  11.334  10.239  10.497
28136SOL    HW186247  11.410  10.293  10.519
28136SOL    HW286248  11.293  10.285  10.424
28137SOL     OW86249  13.915  11.430   0.303
28137SOL    HW186250  13.980  11.362   0.323
28137SOL    HW286251  13.894  11.469   0.388
28138SOL     OW86252   9.490   9.978   7.089
28138SOL    HW186253   9.523  10.068   7.083
28138SOL    HW286254   9.424   9.981   7.158
28139SOL     OW86255  10.012   5.941   8.410
28139SOL    HW186256   9.976   5.899   8.488
28139SOL    HW286257  10.081   5.998   8.444
28140SOL     OW86258   2.200   1.896  11.624
28140SOL    HW186259   2.112   1.933  11.632
28140SOL    HW286260   2.257   1.972  11.611
28141SOL     OW86261  11.791  14.402   0.879
28141SOL    HW186262  11.751  14.342   0.816
28141SOL    HW286263  11.806  14.348   0.957
28142SOL     OW86264   5.050   9.299   0.418
28142SOL    HW186265   5.001   9.217   0.414
28142SOL    HW286266   4.987   9.363   0.451
28143SOL     OW86267   7.704  14.345   5.535
28143SOL    HW186268   7.675  14.282   5.470
28143SOL    HW286269   7.783  14.306   5.573
28144SOL     OW86270   4.049   4.331  11.584
28144SOL    HW186271   4.006   4.393  11.643
28144SOL    HW286272   3.991   4.255  11.582
28145SOL     OW86273   9.361   4.584   0.239
28145SOL    HW186274   9.403   4.667   0.218
28145SOL    HW286275   9.353   4.584   0.334
28146SOL     OW86276   8.235   9.686   1.261
28146SOL    HW186277   8.290   9.624   1.308
28146SOL    HW286278   8.279   9.770   1.271
28147SOL     OW86279   8.666  14.021   2.838
28147SOL    HW186280   8.739  14.053   2.785
28147SOL    HW286281   8.597  14.087   2.827
28148SOL     OW86282  13.330   0.717   5.578
28148SOL    HW186283  13.365   0.692   5.664
28148SOL    HW286284  13.380   0.794   5.553
28149SOL     OW86285   9.502  12.662   5.775
28149SOL    HW186286   9.553  12.609   5.835
28149SOL    HW286287   9.518  12.752   5.803
28150SOL     OW86288  13.948   9.814  14.857
28150SOL    HW186289  14.016   9.754   0.008
28150SOL    HW286290  13.927   9.868   0.055
28151SOL     OW86291   8.543  11.184   6.009
28151SOL    HW186292   8.510  11.097   6.031
28151SOL    HW286293   8.609  11.169   5.941
28152SOL     OW86294  11.580   7.888  12.428
28152SOL    HW186295  11.545   7.963  12.379
28152SOL    HW286296  11.601   7.823  12.361
28153SOL     OW86297   6.043   5.337   5.552
28153SOL    HW186298   6.110   5.290   5.502
28153SOL    HW286299   5.962   5.321   5.504
28154SOL     OW86300   6.110   3.988  11.580
28154SOL    HW186301   6.127   4.081  11.600
28154SOL    HW286302   6.018   3.975  11.605
28155SOL     OW86303   9.979  11.944   9.608
28155SOL    HW186304   9.951  12.034   9.624
28155SOL    HW286305   9.963  11.899   9.691
28156SOL     OW86306  14.838   7.778  10.826
28156SOL    HW186307  14.872   7.863  10.798
28156SOL    HW286308  14.756   7.799  10.872
28157SOL     OW86309   3.606  11.672   5.408
28157SOL    HW186310   3.697  11.674   5.379
28157SOL    HW286311   3.558  11.635   5.335
28158SOL     OW86312   8.549  11.684   4.986
28158SOL    HW186313   8.615  11.739   4.944
28158SOL    HW286314   8.558  11.702   5.080
28159SOL     OW86315  11.239   5.908  11.214
28159SOL    HW186316  11.304   5.876  11.276
28159SOL    HW286317  11.163   5.931  11.267
28160SOL     OW86318  12.858  10.094   3.014
28160SOL    HW186319  12.872  10.185   3.041
28160SOL    HW286320  12.946  10.060   3.000
28161SOL     OW86321  13.420   6.271  12.569
28161SOL    HW186322  13.453   6.206  12.630
28161SOL    HW286323  13.468   6.351  12.591
28162SOL     OW86324  14.790   4.935  11.196
28162SOL    HW186325  14.802   4.986  11.276
28162SOL    HW286326  14.852   4.863  11.204
28163SOL     OW86327  12.676   3.000  11.602
28163SOL    HW186328  12.727   2.937  11.550
28163SOL    HW286329  12.662   3.074  11.543
28164SOL     OW86330  10.758   8.131   8.653
28164SOL    HW186331  10.737   8.046   8.691
28164SOL    HW286332  10.710   8.194   8.707
28165SOL     OW86333   1.862  13.959   6.660
28165SOL    HW186334   1.845  13.919   6.745
28165SOL    HW286335   1.829  14.048   6.669
28166SOL     OW86336   0.567  13.331   0.675
28166SOL    HW186337   0.552  13.414   0.630
28166SOL    HW286338   0.655  13.305   0.648
28167SOL     OW86339  13.751  10.923   4.273
28167SOL    HW186340  13.833  10.938   4.319
28167SOL    HW286341  13.765  10.842   4.225
28168SOL     OW86342  13.051   6.358  14.434
28168SOL    HW186343  13.127   6.416  14.436
28168SOL    HW286344  13.064   6.297  14.506
28169SOL     OW86345   4.217   7.860   6.877
28169SOL    HW186346   4.164   7.800   6.824
28169SOL    HW286347   4.303   7.859   6.835
28170SOL     OW86348   5.202  12.487   6.788
28170SOL    HW186349   5.284  12.460   6.828
28170SOL    HW286350   5.144  12.505   6.862
28171SOL     OW86351   6.183  13.307   0.077
28171SOL    HW186352   6.184  13.214   0.100
28171SOL    HW286353   6.272  13.327   0.050
28172SOL     OW86354   3.427  13.645   2.279
28172SOL    HW186355   3.454  13.737   2.276
28172SOL    HW286356   3.420  13.620   2.187
28173SOL     OW86357  10.403   4.918   3.628
28173SOL    HW186358  10.448   4.899   3.545
28173SOL    HW286359  10.461   4.979   3.673
28174SOL     OW86360   8.112  14.789   8.334
28174SOL    HW186361   8.196  14.777   8.288
28174SOL    HW286362   8.076  14.870   8.297
28175SOL     OW86363  10.500  13.328  11.532
28175SOL    HW186364  10.473  13.253  11.586
28175SOL    HW286365  10.475  13.303  11.443
28176SOL     OW86366   1.985  14.524  11.739
28176SOL    HW186367   2.044  14.451  11.758
28176SOL    HW286368   1.919  14.487  11.680
28177SOL     OW86369   8.822   5.977  12.983
28177SOL    HW186370   8.853   5.994  13.072
28177SOL    HW286371   8.764   6.050  12.964
28178SOL     OW86372   3.366   7.345  10.036
28178SOL    HW186373   3.293   7.361  10.096
28178SOL    HW286374   3.400   7.259  10.062
28179SOL     OW86375   6.886   9.085  12.299
28179SOL    HW186376   6.886   8.993  12.273
28179SOL    HW286377   6.867   9.133  12.218
28180SOL     OW86378   6.690   6.203   7.429
28180SOL    HW186379   6.602   6.235   7.446
28180SOL    HW286380   6.747   6.265   7.475
28181SOL     OW86381   0.338   6.337   4.407
28181SOL    HW186382   0.413   6.279   4.389
28181SOL    HW286383   0.339   6.349   4.502
28182SOL     OW86384   2.954   5.432   5.316
28182SOL    HW186385   2.951   5.428   5.412
28182SOL    HW286386   2.994   5.349   5.290
28183SOL     OW86387   2.853   7.226   5.202
28183SOL    HW186388   2.858   7.231   5.297
28183SOL    HW286389   2.759   7.232   5.183
28184SOL     OW86390  10.644  13.656   8.533
28184SOL    HW186391  10.633  13.748   8.510
28184SOL    HW286392  10.590  13.644   8.611
28185SOL     OW86393   8.914   5.965   1.825
28185SOL    HW186394   8.835   5.973   1.877
28185SOL    HW286395   8.884   5.936   1.739
28186SOL     OW86396   2.691   5.682   0.433
28186SOL    HW186397   2.757   5.739   0.392
28186SOL    HW286398   2.674   5.722   0.518
28187SOL     OW86399  13.387   6.820  14.043
28187SOL    HW186400  13.474   6.789  14.017
28187SOL    HW286401  13.326   6.757  14.005
28188SOL     OW86402  14.216   5.776   1.902
28188SOL    HW186403  14.223   5.709   1.834
28188SOL    HW286404  14.164   5.734   1.971
28189SOL     OW86405   5.695  12.463   3.471
28189SOL    HW186406   5.644  12.455   3.389
28189SOL    HW286407   5.660  12.394   3.527
28190SOL     OW86408   9.715   7.934   2.882
28190SOL    HW186409   9.649   7.914   2.815
28190SOL    HW286410   9.798   7.907   2.843
28191SOL     OW86411  13.912   8.412  12.906
28191SOL    HW186412  13.995   8.373  12.932
28191SOL    HW286413  13.847   8.373  12.964
28192SOL     OW86414  10.674   5.475   6.661
28192SOL    HW186415  10.654   5.520   6.579
28192SOL    HW286416  10.717   5.542   6.714
28193SOL     OW86417   9.485   2.187  11.406
28193SOL    HW186418   9.408   2.227  11.364
28193SOL    HW286419   9.521   2.129  11.339
28194SOL     OW86420  11.608   5.257  14.369
28194SOL    HW186421  11.557   5.201  14.310
28194SOL    HW286422  11.652   5.319  14.311
28195SOL     OW86423  12.159   3.615   3.967
28195SOL    HW186424  12.221   3.576   4.030
28195SOL    HW286425  12.126   3.541   3.917
28196SOL     OW86426   6.392   3.583   8.596
28196SOL    HW186427   6.386   3.489   8.613
28196SOL    HW286428   6.484   3.604   8.606
28197SOL     OW86429   4.047   9.963   0.068
28197SOL    HW186430   4.134   9.933   0.093
28197SOL    HW286431   4.059  10.004  14.861
28198SOL     OW86432   6.574  12.193   4.936
28198SOL    HW186433   6.527  12.154   4.862
28198SOL    HW286434   6.645  12.132   4.955
28199SOL     OW86435   7.680   2.425  11.801
28199SOL    HW186436   7.610   2.443  11.739
28199SOL    HW286437   7.704   2.334  11.786
28200SOL     OW86438  14.724   5.660   9.195
28200SOL    HW186439  14.784   5.676   9.121
28200SOL    HW286440  14.682   5.745   9.210
28201SOL     OW86441   0.604   8.730   7.250
28201SOL    HW186442   0.656   8.808   7.229
28201SOL    HW286443   0.657   8.683   7.314
28202SOL     OW86444   1.431   2.429   1.911
28202SOL    HW186445   1.488   2.505   1.923
28202SOL    HW286446   1.429   2.415   1.816
28203SOL     OW86447   8.126   5.130  13.605
28203SOL    HW186448   8.115   5.206  13.549
28203SOL    HW286449   8.148   5.058  13.546
28204SOL     OW86450  11.395   7.338  12.803
28204SOL    HW186451  11.486   7.367  12.813
28204SOL    HW286452  11.343   7.414  12.830
28205SOL     OW86453   4.528  13.882   2.594
28205SOL    HW186454   4.597  13.841   2.543
28205SOL    HW286455   4.543  13.976   2.585
28206SOL     OW86456   9.039   6.865   4.705
28206SOL    HW186457   8.988   6.800   4.754
28206SOL    HW286458   8.975   6.910   4.650
28207SOL     OW86459   5.872  12.172  11.997
28207SOL    HW186460   5.929  12.210  11.931
28207SOL    HW286461   5.811  12.117  11.948
28208SOL     OW86462   6.051   5.568  10.774
28208SOL    HW186463   6.042   5.491  10.718
28208SOL    HW286464   6.142   5.594  10.765
28209SOL     OW86465   1.567   4.088   5.373
28209SOL    HW186466   1.472   4.088   5.370
28209SOL    HW286467   1.594   4.148   5.303
28210SOL     OW86468  13.908   8.071  13.494
28210SOL    HW186469  13.924   8.126  13.572
28210SOL    HW286470  13.824   8.101  13.461
28211SOL     OW86471   4.872   1.655  11.352
28211SOL    HW186472   4.852   1.632  11.443
28211SOL    HW286473   4.960   1.620  11.338
28212SOL     OW86474   5.541   5.688   1.123
28212SOL    HW186475   5.608   5.701   1.055
28212SOL    HW286476   5.507   5.776   1.139
28213SOL     OW86477   2.660   1.415   3.163
28213SOL    HW186478   2.680   1.464   3.083
28213SOL    HW286479   2.568   1.392   3.154
28214SOL     OW86480   6.343   0.690   4.821
28214SOL    HW186481   6.352   0.595   4.817
28214SOL    HW286482   6.376   0.720   4.736
28215SOL     OW86483   6.850   4.759   8.526
28215SOL    HW186484   6.907   4.786   8.454
28215SOL    HW286485   6.761   4.774   8.494
28216SOL     OW86486  14.787   2.831   6.580
28216SOL    HW186487  14.828   2.784   6.653
28216SOL    HW286488  14.846   2.816   6.506
28217SOL     OW86489   1.554  13.371  11.396
28217SOL    HW186490   1.493  13.445  11.390
28217SOL    HW286491   1.568  13.359  11.489
28218SOL     OW86492  12.905   2.552   3.777
28218SOL    HW186493  12.972   2.539   3.844
28218SOL    HW286494  12.910   2.645   3.756
28219SOL     OW86495  10.821  12.579   0.782
28219SOL    HW186496  10.898  12.544   0.737
28219SOL    HW286497  10.826  12.674   0.766
28220SOL     OW86498   4.648  10.036   3.384
28220SOL    HW186499   4.650  10.092   3.461
28220SOL    HW286500   4.661   9.947   3.419
28221SOL     OW86501   9.438  11.418  10.805
28221SOL    HW186502   9.505  11.354  10.826
28221SOL    HW286503   9.371  11.368  10.757
28222SOL     OW86504  14.548  14.694  12.364
28222SOL    HW186505  14.612  14.674  12.297
28222SOL    HW286506  14.583  14.771  12.409
28223SOL     OW86507   5.085  11.182   5.461
28223SOL    HW186508   5.036  11.224   5.531
28223SOL    HW286509   5.103  11.094   5.495
28224SOL     OW86510  10.953   6.290  12.682
28224SOL    HW186511  10.907   6.366  12.718
28224SOL    HW286512  10.938   6.296  12.587
28225SOL     OW86513   1.837   3.645  14.173
28225SOL    HW186514   1.861   3.722  14.225
28225SOL    HW286515   1.884   3.573  14.216
28226SOL     OW86516  14.711  13.196  13.656
28226SOL    HW186517  14.800  13.192  13.622
28226SOL    HW286518  14.657  13.214  13.579
28227SOL     OW86519   3.497   1.069   1.541
28227SOL    HW186520   3.415   1.066   1.491
28227SOL    HW286521   3.528   0.979   1.541
28228SOL     OW86522   9.479  13.546   3.922
28228SOL    HW186523   9.412  13.486   3.955
28228SOL    HW286524   9.562  13.503   3.942
28229SOL     OW86525   3.926  13.021   2.479
28229SOL    HW186526   3.886  12.942   2.516
28229SOL    HW286527   3.880  13.093   2.522
28230SOL     OW86528   1.693   2.207   2.755
28230SOL    HW186529   1.626   2.140   2.737
28230SOL    HW286530   1.774   2.157   2.762
28231SOL     OW86531   3.316   6.369  11.462
28231SOL    HW186532   3.339   6.391  11.552
28231SOL    HW286533   3.392   6.323  11.428
28232SOL     OW86534  12.960   0.240  11.886
28232SOL    HW186535  12.969   0.235  11.791
28232SOL    HW286536  12.871   0.213  11.904
28233SOL     OW86537  13.049   1.803   4.210
28233SOL    HW186538  13.028   1.887   4.169
28233SOL    HW286539  12.999   1.803   4.292
28234SOL     OW86540   9.789   8.553  13.982
28234SOL    HW186541   9.854   8.515  14.042
28234SOL    HW286542   9.830   8.634  13.952
28235SOL     OW86543   0.165   8.213   0.351
28235SOL    HW186544   0.138   8.164   0.273
28235SOL    HW286545   0.137   8.158   0.425
28236SOL     OW86546   5.925   4.745   7.608
28236SOL    HW186547   5.914   4.740   7.703
28236SOL    HW286548   5.864   4.813   7.580
28237SOL     OW86549   2.686  12.480   2.244
28237SOL    HW186550   2.731  12.562   2.262
28237SOL    HW286551   2.612  12.505   2.188
28238SOL     OW86552   1.892   2.544   3.406
28238SOL    HW186553   1.874   2.629   3.367
28238SOL    HW286554   1.883   2.559   3.501
28239SOL     OW86555   4.333   3.551  12.954
28239SOL    HW186556   4.380   3.472  12.927
28239SOL    HW286557   4.242   3.522  12.964
28240SOL     OW86558   6.222  14.171   0.890
28240SOL    HW186559   6.281  14.150   0.818
28240SOL    HW286560   6.226  14.095   0.948
28241SOL     OW86561  11.794   4.897   4.058
28241SOL    HW186562  11.706   4.931   4.067
28241SOL    HW286563  11.782   4.804   4.037
28242SOL     OW86564   3.931   6.983   6.459
28242SOL    HW186565   3.984   6.904   6.465
28242SOL    HW286566   3.992   7.054   6.479
28243SOL     OW86567  10.445   2.290   7.033
28243SOL    HW186568  10.479   2.341   6.959
28243SOL    HW286569  10.368   2.246   6.998
28244SOL     OW86570   3.818   1.610   4.730
28244SOL    HW186571   3.817   1.624   4.825
28244SOL    HW286572   3.911   1.602   4.709
28245SOL     OW86573   2.819   1.822   5.306
28245SOL    HW186574   2.906   1.840   5.340
28245SOL    HW286575   2.818   1.728   5.292
28246SOL     OW86576   2.657   3.800  12.604
28246SOL    HW186577   2.717   3.872  12.589
28246SOL    HW286578   2.696   3.750  12.676
28247SOL     OW86579   1.071  11.586   8.702
28247SOL    HW186580   1.113  11.541   8.776
28247SOL    HW286581   0.989  11.620   8.738
28248SOL     OW86582   1.335  12.914   7.104
28248SOL    HW186583   1.264  12.955   7.153
28248SOL    HW286584   1.291  12.853   7.045
28249SOL     OW86585   6.468  13.235   2.220
28249SOL    HW186586   6.508  13.150   2.239
28249SOL    HW286587   6.451  13.232   2.125
28250SOL     OW86588   3.532   6.810   2.535
28250SOL    HW186589   3.562   6.898   2.558
28250SOL    HW286590   3.449   6.825   2.490
28251SOL     OW86591   0.886  13.427   2.278
28251SOL    HW186592   0.934  13.359   2.231
28251SOL    HW286593   0.950  13.467   2.336
28252SOL     OW86594   4.129   9.175   2.904
28252SOL    HW186595   4.072   9.219   2.841
28252SOL    HW286596   4.188   9.243   2.935
28253SOL     OW86597   3.835   0.648   8.906
28253SOL    HW186598   3.867   0.681   8.823
28253SOL    HW286599   3.803   0.560   8.886
28254SOL     OW86600   7.720   9.984   5.505
28254SOL    HW186601   7.773  10.044   5.557
28254SOL    HW286602   7.646   9.962   5.561
28255SOL     OW86603   1.869   0.674   4.624
28255SOL    HW186604   1.864   0.762   4.660
28255SOL    HW286605   1.814   0.677   4.546
28256SOL     OW86606   1.555   2.152  11.386
28256SOL    HW186607   1.542   2.098  11.308
28256SOL    HW286608   1.598   2.094  11.449
28257SOL     OW86609   7.390   4.407   6.682
28257SOL    HW186610   7.301   4.372   6.675
28257SOL    HW286611   7.383   4.475   6.750
28258SOL     OW86612   7.733   5.501   1.151
28258SOL    HW186613   7.812   5.448   1.136
28258SOL    HW286614   7.712   5.487   1.243
28259SOL     OW86615   6.919  11.767  14.084
28259SOL    HW186616   6.863  11.689  14.084
28259SOL    HW286617   6.994  11.742  14.139
28260SOL     OW86618  11.711   8.767   8.128
28260SOL    HW186619  11.760   8.696   8.087
28260SOL    HW286620  11.730   8.844   8.073
28261SOL     OW86621  11.466   8.568   0.611
28261SOL    HW186622  11.406   8.502   0.578
28261SOL    HW286623  11.440   8.582   0.702
28262SOL     OW86624   3.798   1.016  13.188
28262SOL    HW186625   3.791   0.932  13.233
28262SOL    HW286626   3.800   0.993  13.095
28263SOL     OW86627   0.744   4.671   4.507
28263SOL    HW186628   0.720   4.610   4.576
28263SOL    HW286629   0.767   4.751   4.553
28264SOL     OW86630  12.717  11.447   2.778
28264SOL    HW186631  12.771  11.386   2.829
28264SOL    HW286632  12.728  11.419   2.688
28265SOL     OW86633  12.170   8.801   2.262
28265SOL    HW186634  12.112   8.740   2.217
28265SOL    HW286635  12.176   8.876   2.203
28266SOL     OW86636  12.982   3.747   1.983
28266SOL    HW186637  12.975   3.695   1.902
28266SOL    HW286638  13.056   3.708   2.029
28267SOL     OW86639   7.552   4.046   6.489
28267SOL    HW186640   7.618   4.084   6.547
28267SOL    HW286641   7.482   4.112   6.486
28268SOL     OW86642   5.784   1.558   0.572
28268SOL    HW186643   5.773   1.465   0.594
28268SOL    HW286644   5.864   1.561   0.519
28269SOL     OW86645  13.330   6.508   6.399
28269SOL    HW186646  13.272   6.446   6.441
28269SOL    HW286647  13.415   6.493   6.440
28270SOL     OW86648   7.592   4.294   6.801
28270SOL    HW186649   7.660   4.254   6.746
28270SOL    HW286650   7.529   4.330   6.740
28271SOL     OW86651  13.516   7.766   2.274
28271SOL    HW186652  13.452   7.741   2.341
28271SOL    HW286653  13.601   7.761   2.319
28272SOL     OW86654   0.626   1.534  13.317
28272SOL    HW186655   0.592   1.586  13.390
28272SOL    HW286656   0.588   1.575  13.239
28273SOL     OW86657   2.457  12.813   3.414
28273SOL    HW186658   2.393  12.766   3.469
28273SOL    HW286659   2.453  12.903   3.445
28274SOL     OW86660   4.926  12.809  14.260
28274SOL    HW186661   5.017  12.795  14.285
28274SOL    HW286662   4.908  12.742  14.194
28275SOL     OW86663   8.296  11.244   8.930
28275SOL    HW186664   8.386  11.221   8.906
28275SOL    HW286665   8.282  11.202   9.014
28276SOL     OW86666  14.646   0.812   1.025
28276SOL    HW186667  14.572   0.873   1.025
28276SOL    HW286668  14.614   0.734   1.071
28277SOL     OW86669   4.924  13.821  10.478
28277SOL    HW186670   4.953  13.849  10.392
28277SOL    HW286671   4.899  13.730  10.467
28278SOL     OW86672   7.147   1.788   1.287
28278SOL    HW186673   7.149   1.747   1.373
28278SOL    HW286674   7.057   1.777   1.257
28279SOL     OW86675  10.865  12.141   3.966
28279SOL    HW186676  10.957  12.166   3.979
28279SOL    HW286677  10.863  12.101   3.879
28280SOL     OW86678   2.829  10.188   8.182
28280SOL    HW186679   2.874  10.111   8.147
28280SOL    HW286680   2.759  10.152   8.237
28281SOL     OW86681  13.154   2.487  10.251
28281SOL    HW186682  13.209   2.555  10.212
28281SOL    HW286683  13.093   2.535  10.307
28282SOL     OW86684   1.168   2.119   2.329
28282SOL    HW186685   1.258   2.103   2.357
28282SOL    HW286686   1.141   2.197   2.376
28283SOL     OW86687  12.999   0.104   6.963
28283SOL    HW186688  12.971   0.035   6.902
28283SOL    HW286689  12.998   0.062   7.049
28284SOL     OW86690   8.192   7.150  14.044
28284SOL    HW186691   8.136   7.110  13.977
28284SOL    HW286692   8.130   7.189  14.106
28285SOL     OW86693   3.065   3.110   8.600
28285SOL    HW186694   3.037   3.196   8.632
28285SOL    HW286695   3.091   3.062   8.679
28286SOL     OW86696   9.642  11.131  11.167
28286SOL    HW186697   9.687  11.211  11.139
28286SOL    HW286698   9.607  11.152  11.253
28287SOL     OW86699   3.610   6.725   2.840
28287SOL    HW186700   3.526   6.753   2.803
28287SOL    HW286701   3.587   6.650   2.896
28288SOL     OW86702   2.783   4.275  12.474
28288SOL    HW186703   2.709   4.335  12.486
28288SOL    HW286704   2.851   4.309  12.532
28289SOL     OW86705  13.481   1.745   2.552
28289SOL    HW186706  13.537   1.776   2.481
28289SOL    HW286707  13.471   1.821   2.610
28290SOL     OW86708   8.164  11.411   5.570
28290SOL    HW186709   8.084  11.395   5.521
28290SOL    HW286710   8.234  11.374   5.516
28291SOL     OW86711  10.536  14.779  12.572
28291SOL    HW186712  10.497  14.857  12.611
28291SOL    HW286713  10.497  14.706  12.620
28292SOL     OW86714   1.091   2.923  11.790
28292SOL    HW186715   1.095   3.004  11.738
28292SOL    HW286716   1.028   2.943  11.859
28293SOL     OW86717  10.785   8.472  14.826
28293SOL    HW186718  10.808   8.562  14.847
28293SOL    HW286719  10.778   8.471  14.731
28294SOL     OW86720   2.116   6.038   2.541
28294SOL    HW186721   2.193   5.984   2.525
28294SOL    HW286722   2.138   6.087   2.621
28295SOL     OW86723   0.898   1.789   6.130
28295SOL    HW186724   0.912   1.870   6.081
28295SOL    HW286725   0.980   1.775   6.178
28296SOL     OW86726  11.865  11.326  10.925
28296SOL    HW186727  11.859  11.315  10.830
28296SOL    HW286728  11.942  11.381  10.937
28297SOL     OW86729   1.595   0.732  14.517
28297SOL    HW186730   1.563   0.672  14.449
28297SOL    HW286731   1.562   0.696  14.599
28298SOL     OW86732   0.902  11.244   6.833
28298SOL    HW186733   0.930  11.173   6.774
28298SOL    HW286734   0.836  11.292   6.783
28299SOL     OW86735  12.644  10.226   3.416
28299SOL    HW186736  12.615  10.239   3.326
28299SOL    HW286737  12.655  10.314   3.451
28300SOL     OW86738   8.294  13.536   2.200
28300SOL    HW186739   8.228  13.561   2.135
28300SOL    HW286740   8.337  13.459   2.163
28301SOL     OW86741   5.191  10.840  10.024
28301SOL    HW186742   5.177  10.857  10.117
28301SOL    HW286743   5.111  10.796   9.995
28302SOL     OW86744   0.533   9.702   4.351
28302SOL    HW186745   0.599   9.749   4.402
28302SOL    HW286746   0.518   9.621   4.399
28303SOL     OW86747   6.177   9.522   7.885
28303SOL    HW186748   6.137   9.546   7.968
28303SOL    HW286749   6.126   9.569   7.819
28304SOL     OW86750  10.179   1.436   8.765
28304SOL    HW186751  10.101   1.491   8.778
28304SOL    HW286752  10.186   1.426   8.671
28305SOL     OW86753   6.398  14.237  10.342
28305SOL    HW186754   6.331  14.194  10.396
28305SOL    HW286755   6.371  14.217  10.252
28306SOL     OW86756  14.264  14.469   8.642
28306SOL    HW186757  14.317  14.391   8.628
28306SOL    HW286758  14.176  14.436   8.658
28307SOL     OW86759  11.877   2.864  10.529
28307SOL    HW186760  11.846   2.779  10.497
28307SOL    HW286761  11.891   2.851  10.623
28308SOL     OW86762   1.761  11.445   2.296
28308SOL    HW186763   1.829  11.392   2.255
28308SOL    HW286764   1.687  11.439   2.235
28309SOL     OW86765  12.522  11.820   9.264
28309SOL    HW186766  12.538  11.891   9.327
28309SOL    HW286767  12.593  11.757   9.281
28310SOL     OW86768   2.536   5.960  10.689
28310SOL    HW186769   2.623   5.979  10.722
28310SOL    HW286770   2.477   5.981  10.761
28311SOL     OW86771  12.593   8.227  11.002
28311SOL    HW186772  12.571   8.319  10.988
28311SOL    HW286773  12.679   8.217  10.961
28312SOL     OW86774   1.216  14.701  11.174
28312SOL    HW186775   1.143  14.761  11.163
28312SOL    HW286776   1.178  14.622  11.212
28313SOL     OW86777   6.575   3.807   9.258
28313SOL    HW186778   6.519   3.743   9.215
28313SOL    HW286779   6.645   3.824   9.194
28314SOL     OW86780   3.430   1.568   1.683
28314SOL    HW186781   3.393   1.521   1.758
28314SOL    HW286782   3.517   1.594   1.711
28315SOL     OW86783   4.747   7.691  12.602
28315SOL    HW186784   4.734   7.708  12.509
28315SOL    HW286785   4.672   7.732  12.644
28316SOL     OW86786  11.324   6.691  10.791
28316SOL    HW186787  11.338   6.758  10.724
28316SOL    HW286788  11.229   6.682  10.796
28317SOL     OW86789   0.422  13.989   1.117
28317SOL    HW186790   0.345  13.998   1.059
28317SOL    HW286791   0.397  14.034   1.197
28318SOL     OW86792   6.432   5.956  10.393
28318SOL    HW186793   6.415   6.050  10.392
28318SOL    HW286794   6.430   5.931  10.300
28319SOL     OW86795  13.890  10.667  12.804
28319SOL    HW186796  13.912  10.618  12.884
28319SOL    HW286797  13.801  10.699  12.819
28320SOL     OW86798  10.551   3.471   2.885
28320SOL    HW186799  10.511   3.474   2.972
28320SOL    HW286800  10.497   3.529   2.831
28321SOL     OW86801   4.986   0.199   2.736
28321SOL    HW186802   5.031   0.201   2.652
28321SOL    HW286803   4.995   0.288   2.770
28322SOL     OW86804   4.697   3.872   1.433
28322SOL    HW186805   4.777   3.861   1.382
28322SOL    HW286806   4.636   3.915   1.373
28323SOL     OW86807   8.108  12.373   3.830
28323SOL    HW186808   8.148  12.406   3.910
28323SOL    HW286809   8.117  12.444   3.767
28324SOL     OW86810   9.453   0.251   0.030
28324SOL    HW186811   9.478   0.339   0.003
28324SOL    HW286812   9.467   0.197  14.831
28325SOL     OW86813  11.872   6.543  14.673
28325SOL    HW186814  11.962   6.555  14.641
28325SOL    HW286815  11.836   6.473  14.618
28326SOL     OW86816   7.950  10.120   1.539
28326SOL    HW186817   8.027  10.088   1.492
28326SOL    HW286818   7.977  10.123   1.630
28327SOL     OW86819  13.910   5.656   8.948
28327SOL    HW186820  13.873   5.577   8.987
28327SOL    HW286821  14.000   5.632   8.926
28328SOL     OW86822   4.535   7.491  13.826
28328SOL    HW186823   4.554   7.554  13.756
28328SOL    HW286824   4.603   7.506  13.891
28329SOL     OW86825   9.341   8.213   8.003
28329SOL    HW186826   9.273   8.279   8.019
28329SOL    HW286827   9.422   8.255   8.032
28330SOL     OW86828  14.335   2.209   0.959
28330SOL    HW186829  14.397   2.136   0.969
28330SOL    HW286830  14.316   2.236   1.048
28331SOL     OW86831   6.285   6.863   5.433
28331SOL    HW186832   6.215   6.844   5.371
28331SOL    HW286833   6.355   6.899   5.378
28332SOL     OW86834   2.214   6.365   9.310
28332SOL    HW186835   2.247   6.327   9.229
28332SOL    HW286836   2.209   6.291   9.371
28333SOL     OW86837   1.424   4.596  10.953
28333SOL    HW186838   1.507   4.582  10.907
28333SOL    HW286839   1.445   4.654  11.025
28334SOL     OW86840   6.902   5.518  14.041
28334SOL    HW186841   6.837   5.547  14.105
28334SOL    HW286842   6.981   5.567  14.063
28335SOL     OW86843  10.781   3.462   9.338
28335SOL    HW186844  10.797   3.556   9.348
28335SOL    HW286845  10.863   3.421   9.364
28336SOL     OW86846   4.474  14.197   5.161
28336SOL    HW186847   4.524  14.278   5.168
28336SOL    HW286848   4.386  14.225   5.138
28337SOL     OW86849  13.995  11.828  11.781
28337SOL    HW186850  13.900  11.833  11.782
28337SOL    HW286851  14.015  11.766  11.710
28338SOL     OW86852   8.960  10.151  10.765
28338SOL    HW186853   8.951  10.238  10.725
28338SOL    HW286854   8.992  10.169  10.853
28339SOL     OW86855   3.282   2.790  13.906
28339SOL    HW186856   3.307   2.698  13.915
28339SOL    HW286857   3.342   2.825  13.841
28340SOL     OW86858   6.316   2.961   5.341
28340SOL    HW186859   6.254   2.895   5.309
28340SOL    HW286860   6.261   3.027   5.384
28341SOL     OW86861  13.893   4.092   9.701
28341SOL    HW186862  13.920   4.030   9.769
28341SOL    HW286863  13.810   4.128   9.733
28342SOL     OW86864   6.417  13.847   5.498
28342SOL    HW186865   6.477  13.784   5.538
28342SOL    HW286866   6.336  13.839   5.548
28343SOL     OW86867  12.981   2.629   7.808
28343SOL    HW186868  12.965   2.713   7.852
28343SOL    HW286869  12.894   2.597   7.785
28344SOL     OW86870   2.100  14.255  11.302
28344SOL    HW186871   2.035  14.240  11.370
28344SOL    HW286872   2.166  14.188  11.318
28345SOL     OW86873   0.815  14.517   3.004
28345SOL    HW186874   0.772  14.460   3.067
28345SOL    HW286875   0.840  14.460   2.931
28346SOL     OW86876  11.695   1.496   6.361
28346SOL    HW186877  11.729   1.419   6.315
28346SOL    HW286878  11.761   1.515   6.427
28347SOL     OW86879   8.499  13.031   3.053
28347SOL    HW186880   8.491  13.094   2.981
28347SOL    HW286881   8.409  13.011   3.077
28348SOL     OW86882  13.977   3.038  11.672
28348SOL    HW186883  13.991   2.983  11.748
28348SOL    HW286884  13.883   3.060  11.675
28349SOL     OW86885  12.906  13.877  14.743
28349SOL    HW186886  12.878  13.862  14.653
28349SOL    HW286887  13.002  13.878  14.738
28350SOL     OW86888   2.803  10.124  10.112
28350SOL    HW186889   2.726  10.076  10.082
28350SOL    HW286890   2.768  10.201  10.157
28351SOL     OW86891  14.381   6.587   1.837
28351SOL    HW186892  14.451   6.524   1.854
28351SOL    HW286893  14.305   6.533   1.816
28352SOL     OW86894   3.232   0.187  14.121
28352SOL    HW186895   3.253   0.117  14.183
28352SOL    HW286896   3.277   0.162  14.041
28353SOL     OW86897   9.776  14.271   6.311
28353SOL    HW186898   9.771  14.181   6.279
28353SOL    HW286899   9.760  14.265   6.405
28354SOL     OW86900  14.409   7.048   0.131
28354SOL    HW186901  14.482   7.094   0.172
28354SOL    HW286902  14.336   7.060   0.191
28355SOL     OW86903   8.608   9.109  13.168
28355SOL    HW186904   8.525   9.105  13.121
28355SOL    HW286905   8.675   9.108  13.099
28356SOL     OW86906   2.603  13.846  12.029
28356SOL    HW186907   2.565  13.799  12.104
28356SOL    HW286908   2.594  13.938  12.052
28357SOL     OW86909   0.120   6.358   2.773
28357SOL    HW186910   0.210   6.332   2.752
28357SOL    HW286911   0.076   6.276   2.797
28358SOL     OW86912  11.475   2.417   0.472
28358SOL    HW186913  11.392   2.377   0.446
28358SOL    HW286914  11.512   2.451   0.391
28359SOL     OW86915   7.296  13.014   4.221
28359SOL    HW186916   7.390  13.006   4.239
28359SOL    HW286917   7.286  13.098   4.176
28360SOL     OW86918   9.075   8.132   0.191
28360SOL    HW186919   9.062   8.205   0.130
28360SOL    HW286920   9.081   8.173   0.277
28361SOL     OW86921   2.748  11.334  14.668
28361SOL    HW186922   2.778  11.342  14.759
28361SOL    HW286923   2.824  11.303  14.620
28362SOL     OW86924   2.685  11.398   1.910
28362SOL    HW186925   2.744  11.461   1.951
28362SOL    HW286926   2.723  11.312   1.929
28363SOL     OW86927   8.065  13.791  11.733
28363SOL    HW186928   8.043  13.737  11.657
28363SOL    HW286929   7.984  13.840  11.751
28364SOL     OW86930  10.043  14.292   3.182
28364SOL    HW186931   9.962  14.303   3.132
28364SOL    HW286932  10.035  14.205   3.221
28365SOL     OW86933   9.390  12.983  10.516
28365SOL    HW186934   9.300  12.957  10.536
28365SOL    HW286935   9.402  13.065  10.564
28366SOL     OW86936   9.232   2.784   9.741
28366SOL    HW186937   9.267   2.696   9.727
28366SOL    HW286938   9.296   2.842   9.698
28367SOL     OW86939  14.125   8.209   9.100
28367SOL    HW186940  14.068   8.280   9.068
28367SOL    HW286941  14.067   8.154   9.153
28368SOL     OW86942   2.701   8.405   3.788
28368SOL    HW186943   2.775   8.394   3.728
28368SOL    HW286944   2.675   8.496   3.777
28369SOL     OW86945   9.182  12.838   2.385
28369SOL    HW186946   9.248  12.796   2.329
28369SOL    HW286947   9.209  12.817   2.474
28370SOL     OW86948   4.025  13.894  13.120
28370SOL    HW186949   3.980  13.885  13.205
28370SOL    HW286950   3.960  13.934  13.063
28371SOL     OW86951   7.971   7.618  10.116
28371SOL    HW186952   7.897   7.566  10.148
28371SOL    HW286953   7.946   7.644  10.028
28372SOL     OW86954  10.999   8.162  10.922
28372SOL    HW186955  11.068   8.122  10.868
28372SOL    HW286956  10.997   8.109  11.001
28373SOL     OW86957   3.285   6.632   0.506
28373SOL    HW186958   3.341   6.706   0.485
28373SOL    HW286959   3.345   6.561   0.531
28374SOL     OW86960  11.302   5.589   9.710
28374SOL    HW186961  11.219   5.591   9.758
28374SOL    HW286962  11.280   5.620   9.622
28375SOL     OW86963   2.661   4.024   6.177
28375SOL    HW186964   2.707   3.945   6.148
28375SOL    HW286965   2.726   4.094   6.168
28376SOL     OW86966   0.061  11.011   8.445
28376SOL    HW186967   0.056  10.926   8.489
28376SOL    HW286968  14.857  11.054   8.466
28377SOL     OW86969  14.754   0.787   8.649
28377SOL    HW186970  14.726   0.700   8.620
28377SOL    HW286971  14.790   0.827   8.570
28378SOL     OW86972   1.378   0.976   8.669
28378SOL    HW186973   1.451   0.958   8.728
28378SOL    HW286974   1.301   0.979   8.726
28379SOL     OW86975   6.422  13.673   8.823
28379SOL    HW186976   6.446  13.744   8.882
28379SOL    HW286977   6.373  13.716   8.752
28380SOL     OW86978   2.860   8.668   0.476
28380SOL    HW186979   2.863   8.577   0.506
28380SOL    HW286980   2.873   8.720   0.555
28381SOL     OW86981   9.716   2.601   1.825
28381SOL    HW186982   9.695   2.511   1.852
28381SOL    HW286983   9.640   2.630   1.775
28382SOL     OW86984   6.099   6.768   7.320
28382SOL    HW186985   6.008   6.745   7.300
28382SOL    HW286986   6.132   6.693   7.371
28383SOL     OW86987   9.544   6.909   2.479
28383SOL    HW186988   9.516   6.998   2.497
28383SOL    HW286989   9.618   6.895   2.537
28384SOL     OW86990  12.576  12.080  13.231
28384SOL    HW186991  12.572  12.022  13.307
28384SOL    HW286992  12.650  12.047  13.180
28385SOL     OW86993  11.315  14.819  10.340
28385SOL    HW186994  11.282  14.796  10.426
28385SOL    HW286995  11.335  14.734  10.299
28386SOL     OW86996  14.148  11.395   6.350
28386SOL    HW186997  14.180  11.479   6.317
28386SOL    HW286998  14.225  11.356   6.393
28387SOL     OW86999  11.103  13.189   6.492
28387SOL    HW187000  11.169  13.164   6.556
28387SOL    HW287001  11.056  13.108   6.472
28388SOL     OW87002   0.326   2.531   0.290
28388SOL    HW187003   0.353   2.545   0.381
28388SOL    HW287004   0.360   2.445   0.269
28389SOL     OW87005   7.041   8.353  12.134
28389SOL    HW187006   7.101   8.364  12.060
28389SOL    HW287007   7.041   8.439  12.177
28390SOL     OW87008   4.829   9.745   2.867
28390SOL    HW187009   4.866   9.826   2.902
28390SOL    HW287010   4.898   9.709   2.811
28391SOL     OW87011  13.253   3.202   4.740
28391SOL    HW187012  13.302   3.217   4.659
28391SOL    HW287013  13.247   3.107   4.747
28392SOL     OW87014   8.594   2.626   5.237
28392SOL    HW187015   8.662   2.562   5.262
28392SOL    HW287016   8.512   2.576   5.241
28393SOL     OW87017   2.882   5.191   6.945
28393SOL    HW187018   2.929   5.110   6.964
28393SOL    HW287019   2.833   5.173   6.865
28394SOL     OW87020   5.684   5.817   1.433
28394SOL    HW187021   5.730   5.846   1.513
28394SOL    HW287022   5.595   5.797   1.462
28395SOL     OW87023   9.858  12.778   5.849
28395SOL    HW187024   9.776  12.815   5.879
28395SOL    HW287025   9.850  12.684   5.866
28396SOL     OW87026   0.611  12.594  14.513
28396SOL    HW187027   0.600  12.625  14.423
28396SOL    HW287028   0.561  12.656  14.566
28397SOL     OW87029  12.802   1.696   2.806
28397SOL    HW187030  12.815   1.709   2.900
28397SOL    HW287031  12.864   1.627   2.782
28398SOL     OW87032  10.855   3.811   6.490
28398SOL    HW187033  10.796   3.736   6.501
28398SOL    HW287034  10.839   3.841   6.400
28399SOL     OW87035   7.563  14.690   6.264
28399SOL    HW187036   7.539  14.764   6.208
28399SOL    HW287037   7.649  14.713   6.298
28400SOL     OW87038   8.813   1.052   0.989
28400SOL    HW187039   8.819   1.084   0.899
28400SOL    HW287040   8.903   1.055   1.022
28401SOL     OW87041   1.091   2.241  11.053
28401SOL    HW187042   1.120   2.280  11.136
28401SOL    HW287043   1.060   2.316  11.002
28402SOL     OW87044   2.301   8.819   6.558
28402SOL    HW187045   2.346   8.857   6.483
28402SOL    HW287046   2.335   8.866   6.634
28403SOL     OW87047   4.090   0.346   7.245
28403SOL    HW187048   4.160   0.405   7.219
28403SOL    HW287049   4.010   0.394   7.224
28404SOL     OW87050   7.301   1.346   2.152
28404SOL    HW187051   7.369   1.413   2.143
28404SOL    HW287052   7.349   1.264   2.166
28405SOL     OW87053   9.811   3.662   7.979
28405SOL    HW187054   9.720   3.635   7.994
28405SOL    HW287055   9.862   3.582   7.996
28406SOL     OW87056   6.691  11.918  13.823
28406SOL    HW187057   6.643  11.837  13.838
28406SOL    HW287058   6.733  11.906  13.738
28407SOL     OW87059  13.617   5.579   4.154
28407SOL    HW187060  13.669   5.514   4.201
28407SOL    HW287061  13.677   5.618   4.091
28408SOL     OW87062  12.149   8.917  12.884
28408SOL    HW187063  12.225   8.974  12.878
28408SOL    HW287064  12.124   8.900  12.793
28409SOL     OW87065   6.055  12.402   3.078
28409SOL    HW187066   6.011  12.389   3.162
28409SOL    HW287067   6.129  12.460   3.098
28410SOL     OW87068   7.453   4.027   1.404
28410SOL    HW187069   7.493   3.939   1.408
28410SOL    HW287070   7.498   4.077   1.472
28411SOL     OW87071   1.540  10.912   4.359
28411SOL    HW187072   1.623  10.934   4.400
28411SOL    HW287073   1.559  10.835   4.305
28412SOL     OW87074  11.935   1.254   7.626
28412SOL    HW187075  12.011   1.281   7.575
28412SOL    HW287076  11.885   1.334   7.640
28413SOL     OW87077  12.128   0.583  13.696
28413SOL    HW187078  12.090   0.616  13.778
28413SOL    HW287079  12.052   0.566  13.640
28414SOL     OW87080  12.119  10.597   9.071
28414SOL    HW187081  12.037  10.557   9.099
28414SOL    HW287082  12.104  10.622   8.980
28415SOL     OW87083  11.921   9.921   6.800
28415SOL    HW187084  11.863   9.870   6.743
28415SOL    HW287085  11.886  10.010   6.795
28416SOL     OW87086   8.873   6.492   0.140
28416SOL    HW187087   8.935   6.441   0.193
28416SOL    HW287088   8.859   6.572   0.191
28417SOL     OW87089   3.764   4.338   4.721
28417SOL    HW187090   3.847   4.349   4.675
28417SOL    HW287091   3.712   4.282   4.663
28418SOL     OW87092   4.175   7.280  11.487
28418SOL    HW187093   4.200   7.372  11.480
28418SOL    HW287094   4.096   7.281  11.542
28419SOL     OW87095   0.201  11.804   2.810
28419SOL    HW187096   0.123  11.749   2.804
28419SOL    HW287097   0.180  11.867   2.878
28420SOL     OW87098   8.248   0.923   1.734
28420SOL    HW187099   8.306   0.909   1.659
28420SOL    HW287100   8.224   1.015   1.729
28421SOL     OW87101   9.859   9.993   9.879
28421SOL    HW187102   9.832  10.069   9.827
28421SOL    HW287103   9.792   9.927   9.862
28422SOL     OW87104  12.709   3.538   3.333
28422SOL    HW187105  12.749   3.490   3.261
28422SOL    HW287106  12.683   3.470   3.396
28423SOL     OW87107  14.412   0.192   3.112
28423SOL    HW187108  14.484   0.243   3.149
28423SOL    HW287109  14.431   0.188   3.018
28424SOL     OW87110  12.922  11.725   4.531
28424SOL    HW187111  12.856  11.784   4.496
28424SOL    HW287112  12.920  11.649   4.472
28425SOL     OW87113  10.616   6.446  10.498
28425SOL    HW187114  10.533   6.446  10.450
28425SOL    HW287115  10.635   6.354  10.514
28426SOL     OW87116   6.058   7.918   2.411
28426SOL    HW187117   5.990   7.896   2.347
28426SOL    HW287118   6.017   7.984   2.467
28427SOL     OW87119   2.924   7.982   2.126
28427SOL    HW187120   2.974   7.903   2.105
28427SOL    HW287121   2.848   7.949   2.176
28428SOL     OW87122   7.448  11.939   8.938
28428SOL    HW187123   7.401  11.939   9.021
28428SOL    HW287124   7.379  11.938   8.871
28429SOL     OW87125   0.476  12.385   8.620
28429SOL    HW187126   0.422  12.343   8.688
28429SOL    HW287127   0.565  12.378   8.652
28430SOL     OW87128   6.181   3.981   8.751
28430SOL    HW187129   6.232   3.977   8.670
28430SOL    HW287130   6.112   4.046   8.732
28431SOL     OW87131   1.415  10.317  10.602
28431SOL    HW187132   1.417  10.323  10.698
28431SOL    HW287133   1.474  10.245  10.581
28432SOL     OW87134   9.832   7.069   5.293
28432SOL    HW187135   9.786   7.009   5.234
28432SOL    HW287136   9.808   7.156   5.261
28433SOL     OW87137  11.166   7.603   8.981
28433SOL    HW187138  11.171   7.554   8.899
28433SOL    HW287139  11.118   7.683   8.958
28434SOL     OW87140   0.773   7.962   0.238
28434SOL    HW187141   0.771   7.977   0.333
28434SOL    HW287142   0.827   8.033   0.203
28435SOL     OW87143   0.977   0.190  13.478
28435SOL    HW187144   0.988   0.165  13.386
28435SOL    HW287145   1.065   0.188  13.514
28436SOL     OW87146  13.104   9.489   2.666
28436SOL    HW187147  13.041   9.558   2.689
28436SOL    HW287148  13.056   9.432   2.606
28437SOL     OW87149  10.370   3.525   1.544
28437SOL    HW187150  10.369   3.508   1.638
28437SOL    HW287151  10.390   3.440   1.504
28438SOL     OW87152   5.837  12.496   1.766
28438SOL    HW187153   5.795  12.520   1.683
28438SOL    HW287154   5.925  12.467   1.740
28439SOL     OW87155  14.808  11.300  12.948
28439SOL    HW187156   0.016  11.337  12.964
28439SOL    HW287157  14.819  11.206  12.960
28440SOL     OW87158  13.861   0.476   8.547
28440SOL    HW187159  13.790   0.519   8.595
28440SOL    HW287160  13.930   0.466   8.611
28441SOL     OW87161   2.119   4.944  13.569
28441SOL    HW187162   2.033   4.962  13.531
28441SOL    HW287163   2.143   5.026  13.613
28442SOL     OW87164  12.442   7.138   7.829
28442SOL    HW187165  12.435   7.043   7.836
28442SOL    HW287166  12.358   7.166   7.793
28443SOL     OW87167   9.422   7.923   8.231
28443SOL    HW187168   9.434   7.903   8.138
28443SOL    HW287169   9.348   7.984   8.233
28444SOL     OW87170   2.762   1.199  12.890
28444SOL    HW187171   2.785   1.139  12.961
28444SOL    HW287172   2.678   1.238  12.917
28445SOL     OW87173   0.300  10.041   7.706
28445SOL    HW187174   0.283  10.128   7.742
28445SOL    HW287175   0.232  10.030   7.639
28446SOL     OW87176   8.983  13.920  14.351
28446SOL    HW187177   8.946  14.008  14.344
28446SOL    HW287178   8.975  13.898  14.444
28447SOL     OW87179   4.548   9.534   7.424
28447SOL    HW187180   4.605   9.582   7.364
28447SOL    HW287181   4.460   9.561   7.401
28448SOL     OW87182   3.135   8.230  12.411
28448SOL    HW187183   3.156   8.220  12.319
28448SOL    HW287184   3.040   8.217  12.416
28449SOL     OW87185  11.452   3.060   9.526
28449SOL    HW187186  11.530   3.037   9.577
28449SOL    HW287187  11.416   2.975   9.500
28450SOL     OW87188   9.087   1.322   4.567
28450SOL    HW187189   9.044   1.408   4.559
28450SOL    HW287190   9.172   1.334   4.526
28451SOL     OW87191   7.090  14.755  12.634
28451SOL    HW187192   7.046  14.823  12.684
28451SOL    HW287193   7.145  14.710  12.699
28452SOL     OW87194  13.872  11.444  14.846
28452SOL    HW187195  13.933  11.405  14.783
28452SOL    HW287196  13.866  11.536  14.819
28453SOL     OW87197   6.157  14.598  13.702
28453SOL    HW187198   6.217  14.636  13.639
28453SOL    HW287199   6.209  14.590  13.782
28454SOL     OW87200   7.326  12.625   9.248
28454SOL    HW187201   7.246  12.656   9.293
28454SOL    HW287202   7.396  12.638   9.312
28455SOL     OW87203  12.164   2.016   2.336
28455SOL    HW187204  12.068   2.016   2.344
28455SOL    HW287205  12.185   1.930   2.300
28456SOL     OW87206   6.381   8.648   9.843
28456SOL    HW187207   6.350   8.632   9.754
28456SOL    HW287208   6.447   8.581   9.859
28457SOL     OW87209  12.455   7.247   6.573
28457SOL    HW187210  12.497   7.230   6.658
28457SOL    HW287211  12.476   7.338   6.554
28458SOL     OW87212   8.245  14.415  13.509
28458SOL    HW187213   8.238  14.468  13.588
28458SOL    HW287214   8.294  14.470  13.447
28459SOL     OW87215   0.849   2.701   6.256
28459SOL    HW187216   0.784   2.758   6.297
28459SOL    HW287217   0.812   2.612   6.265
28460SOL     OW87218  12.325  13.003  10.436
28460SOL    HW187219  12.313  13.058  10.513
28460SOL    HW287220  12.338  12.915  10.472
28461SOL     OW87221  13.421   1.130  14.403
28461SOL    HW187222  13.448   1.222  14.404
28461SOL    HW287223  13.492   1.085  14.356
28462SOL     OW87224   6.057  13.365   2.974
28462SOL    HW187225   6.015  13.374   2.889
28462SOL    HW287226   6.018  13.286   3.012
28463SOL     OW87227  10.689  11.912   3.289
28463SOL    HW187228  10.713  11.820   3.295
28463SOL    HW287229  10.704  11.935   3.198
28464SOL     OW87230   1.407   1.328   0.898
28464SOL    HW187231   1.385   1.336   0.805
28464SOL    HW287232   1.397   1.234   0.916
28465SOL     OW87233   3.077  11.838   6.510
28465SOL    HW187234   3.125  11.822   6.591
28465SOL    HW287235   3.144  11.850   6.443
28466SOL     OW87236  10.599   2.874   5.525
28466SOL    HW187237  10.581   2.875   5.431
28466SOL    HW287238  10.673   2.934   5.536
28467SOL     OW87239   3.522   0.851   0.279
28467SOL    HW187240   3.574   0.776   0.250
28467SOL    HW287241   3.534   0.916   0.210
28468SOL     OW87242   1.843  13.800  11.896
28468SOL    HW187243   1.890  13.766  11.972
28468SOL    HW287244   1.771  13.738  11.883
28469SOL     OW87245   4.909  13.717   9.385
28469SOL    HW187246   4.836  13.778   9.384
28469SOL    HW287247   4.972  13.756   9.446
28470SOL     OW87248   9.577   5.012   9.767
28470SOL    HW187249   9.548   4.971   9.685
28470SOL    HW287250   9.619   4.941   9.816
28471SOL     OW87251  10.750  11.958  12.394
28471SOL    HW187252  10.771  12.042  12.354
28471SOL    HW287253  10.834  11.925  12.425
28472SOL     OW87254  10.095  12.708   1.598
28472SOL    HW187255  10.032  12.755   1.653
28472SOL    HW287256  10.110  12.626   1.644
28473SOL     OW87257   9.444   5.176   1.463
28473SOL    HW187258   9.434   5.116   1.537
28473SOL    HW287259   9.527   5.152   1.423
28474SOL     OW87260   3.876   8.662   0.411
28474SOL    HW187261   3.782   8.670   0.401
28474SOL    HW287262   3.911   8.676   0.323
28475SOL     OW87263   5.930   7.943  12.589
28475SOL    HW187264   5.908   7.855  12.557
28475SOL    HW287265   5.942   7.932  12.684
28476SOL     OW87266  10.289   7.378   9.851
28476SOL    HW187267  10.213   7.412   9.900
28476SOL    HW287268  10.361   7.382   9.914
28477SOL     OW87269   8.203   0.318   1.668
28477SOL    HW187270   8.208   0.393   1.727
28477SOL    HW287271   8.201   0.356   1.580
28478SOL     OW87272  10.606   3.411   6.057
28478SOL    HW187273  10.541   3.344   6.077
28478SOL    HW287274  10.556   3.482   6.018
28479SOL     OW87275   5.718   2.682   2.744
28479SOL    HW187276   5.683   2.751   2.800
28479SOL    HW287277   5.780   2.636   2.799
28480SOL     OW87278  12.690   5.862   0.851
28480SOL    HW187279  12.623   5.921   0.886
28480SOL    HW287280  12.643   5.780   0.836
28481SOL     OW87281   5.626   8.320  10.241
28481SOL    HW187282   5.710   8.278  10.258
28481SOL    HW287283   5.589   8.337  10.328
28482SOL     OW87284   2.617   6.775  11.466
28482SOL    HW187285   2.591   6.722  11.390
28482SOL    HW287286   2.537   6.821  11.491
28483SOL     OW87287   8.117   1.698   0.954
28483SOL    HW187288   8.032   1.655   0.951
28483SOL    HW287289   8.180   1.627   0.967
28484SOL     OW87290  14.207   6.187   0.938
28484SOL    HW187291  14.258   6.199   1.018
28484SOL    HW287292  14.138   6.253   0.942
28485SOL     OW87293   7.544  14.136   4.030
28485SOL    HW187294   7.583  14.061   4.074
28485SOL    HW287295   7.547  14.113   3.937
28486SOL     OW87296  13.427   9.606   9.300
28486SOL    HW187297  13.486   9.532   9.316
28486SOL    HW287298  13.481   9.683   9.314
28487SOL     OW87299   8.671  11.572  12.584
28487SOL    HW187300   8.593  11.592  12.637
28487SOL    HW287301   8.703  11.490  12.620
28488SOL     OW87302  10.069   8.923   6.964
28488SOL    HW187303  10.026   8.961   7.040
28488SOL    HW287304  10.014   8.949   6.890
28489SOL     OW87305  11.526  12.913   7.887
28489SOL    HW187306  11.588  12.972   7.930
28489SOL    HW287307  11.441  12.938   7.923
28490SOL     OW87308   7.027  12.199  13.078
28490SOL    HW187309   6.969  12.194  13.154
28490SOL    HW287310   7.073  12.282  13.088
28491SOL     OW87311   0.510   2.162   1.738
28491SOL    HW187312   0.418   2.170   1.763
28491SOL    HW287313   0.518   2.072   1.705
28492SOL     OW87314  14.548   6.105   0.058
28492SOL    HW187315  14.467   6.156   0.070
28492SOL    HW287316  14.609   6.144   0.120
28493SOL     OW87317   7.456   3.033   9.503
28493SOL    HW187318   7.367   3.017   9.537
28493SOL    HW287319   7.506   2.957   9.534
28494SOL     OW87320  12.985  11.905  13.926
28494SOL    HW187321  12.939  11.940  14.003
28494SOL    HW287322  13.075  11.937  13.935
28495SOL     OW87323  11.208   7.560   2.438
28495SOL    HW187324  11.246   7.588   2.521
28495SOL    HW287325  11.143   7.627   2.418
28496SOL     OW87326  10.283   4.358   7.539
28496SOL    HW187327  10.242   4.401   7.614
28496SOL    HW287328  10.353   4.417   7.512
28497SOL     OW87329   1.772  14.863   4.350
28497SOL    HW187330   1.765   0.079   4.352
28497SOL    HW287331   1.848  14.843   4.405
28498SOL     OW87332  11.523  14.115  14.164
28498SOL    HW187333  11.432  14.146  14.161
28498SOL    HW287334  11.570  14.184  14.210
28499SOL     OW87335  11.079   8.429   6.929
28499SOL    HW187336  11.022   8.396   6.999
28499SOL    HW287337  11.020   8.476   6.870
28500SOL     OW87338   7.287  14.365  10.917
28500SOL    HW187339   7.303  14.324  11.002
28500SOL    HW287340   7.192  14.359  10.905
28501SOL     OW87341   8.912   5.741  12.835
28501SOL    HW187342   8.895   5.804  12.905
28501SOL    HW287343   9.003   5.713  12.849
28502SOL     OW87344   0.798   7.277  13.862
28502SOL    HW187345   0.885   7.309  13.885
28502SOL    HW287346   0.753   7.267  13.945
28503SOL     OW87347   3.824   1.053  13.518
28503SOL    HW187348   3.739   1.037  13.479
28503SOL    HW287349   3.816   1.023  13.608
28504SOL     OW87350  14.711  10.043   7.191
28504SOL    HW187351  14.685  10.012   7.104
28504SOL    HW287352  14.634  10.089   7.224
28505SOL     OW87353   1.043   5.241   7.221
28505SOL    HW187354   0.958   5.257   7.180
28505SOL    HW287355   1.045   5.146   7.236
28506SOL     OW87356   7.351  10.776   6.992
28506SOL    HW187357   7.265  10.815   6.981
28506SOL    HW287358   7.372  10.740   6.905
28507SOL     OW87359  13.487   6.974  10.856
28507SOL    HW187360  13.425   6.969  10.783
28507SOL    HW287361  13.513   7.066  10.859
28508SOL     OW87362  10.734  12.813   7.792
28508SOL    HW187363  10.766  12.790   7.705
28508SOL    HW287364  10.756  12.737   7.846
28509SOL     OW87365   8.497   5.064   8.283
28509SOL    HW187366   8.437   5.091   8.213
28509SOL    HW287367   8.449   5.081   8.363
28510SOL     OW87368   3.714   3.742  13.446
28510SOL    HW187369   3.768   3.760  13.368
28510SOL    HW287370   3.766   3.776  13.519
28511SOL     OW87371  10.724  11.737  11.164
28511SOL    HW187372  10.786  11.706  11.230
28511SOL    HW287373  10.777  11.751  11.086
28512SOL     OW87374   9.649   1.529   5.869
28512SOL    HW187375   9.593   1.602   5.843
28512SOL    HW287376   9.692   1.559   5.950
28513SOL     OW87377   9.990   4.492  11.330
28513SOL    HW187378   9.999   4.426  11.261
28513SOL    HW287379  10.073   4.486  11.379
28514SOL     OW87380  11.294  12.463   0.447
28514SOL    HW187381  11.205  12.468   0.412
28514SOL    HW287382  11.313  12.370   0.453
28515SOL     OW87383   4.522   7.049   0.571
28515SOL    HW187384   4.590   7.094   0.622
28515SOL    HW287385   4.570   6.988   0.515
28516SOL     OW87386  14.432   0.142   8.226
28516SOL    HW187387  14.525   0.135   8.205
28516SOL    HW287388  14.419   0.234   8.249
28517SOL     OW87389   4.747  13.965  13.694
28517SOL    HW187390   4.715  14.042  13.740
28517SOL    HW287391   4.718  13.891  13.748
28518SOL     OW87392   5.161   8.072   2.836
28518SOL    HW187393   5.247   8.036   2.811
28518SOL    HW287394   5.180   8.163   2.860
28519SOL     OW87395   7.681  13.884   9.772
28519SOL    HW187396   7.649  13.866   9.684
28519SOL    HW287397   7.698  13.978   9.772
28520SOL     OW87398   0.916  10.343  12.700
28520SOL    HW187399   0.963  10.334  12.618
28520SOL    HW287400   0.824  10.330  12.677
28521SOL     OW87401   6.484   2.704   4.041
28521SOL    HW187402   6.528   2.768   4.097
28521SOL    HW287403   6.454   2.636   4.103
28522SOL     OW87404   6.745  12.823  12.516
28522SOL    HW187405   6.664  12.794  12.475
28522SOL    HW287406   6.809  12.823  12.445
28523SOL     OW87407   0.286   9.579   3.293
28523SOL    HW187408   0.259   9.670   3.303
28523SOL    HW287409   0.288   9.565   3.198
28524SOL     OW87410   9.117  12.679   9.235
28524SOL    HW187411   9.205  12.705   9.263
28524SOL    HW287412   9.132  12.629   9.154
28525SOL     OW87413  12.039   7.260   8.849
28525SOL    HW187414  11.997   7.174   8.839
28525SOL    HW287415  11.993   7.316   8.787
28526SOL     OW87416   6.998   0.598   7.838
28526SOL    HW187417   6.950   0.572   7.917
28526SOL    HW287418   6.957   0.548   7.767
28527SOL     OW87419   9.135  11.208   4.905
28527SOL    HW187420   9.228  11.192   4.914
28527SOL    HW287421   9.128  11.297   4.871
28528SOL     OW87422   1.328   0.063   5.307
28528SOL    HW187423   1.354   0.075   5.216
28528SOL    HW287424   1.244   0.106   5.314
28529SOL     OW87425  10.830  11.796   7.565
28529SOL    HW187426  10.890  11.870   7.580
28529SOL    HW287427  10.766  11.803   7.636
28530SOL     OW87428   4.382  12.553   5.246
28530SOL    HW187429   4.385  12.457   5.252
28530SOL    HW287430   4.430  12.583   5.323
28531SOL     OW87431   7.517   3.400  12.831
28531SOL    HW187432   7.602   3.431  12.800
28531SOL    HW287433   7.528   3.305  12.840
28532SOL     OW87434   8.914  11.249  12.909
28532SOL    HW187435   8.917  11.248  13.005
28532SOL    HW287436   8.889  11.159  12.886
28533SOL     OW87437   3.111   6.205   2.407
28533SOL    HW187438   3.174   6.184   2.476
28533SOL    HW287439   3.109   6.127   2.352
28534SOL     OW87440   5.787   8.270   4.612
28534SOL    HW187441   5.811   8.339   4.551
28534SOL    HW287442   5.861   8.264   4.673
28535SOL     OW87443   7.444  10.675  11.777
28535SOL    HW187444   7.385  10.600  11.769
28535SOL    HW287445   7.386  10.750  11.790
28536SOL     OW87446   5.005   6.900  11.108
28536SOL    HW187447   4.922   6.928  11.068
28536SOL    HW287448   5.019   6.812  11.074
28537SOL     OW87449   3.652   6.431   4.688
28537SOL    HW187450   3.627   6.450   4.778
28537SOL    HW287451   3.748   6.433   4.688
28538SOL     OW87452   1.971   2.483   6.984
28538SOL    HW187453   1.881   2.511   6.969
28538SOL    HW287454   2.019   2.513   6.907
28539SOL     OW87455   5.103   2.607   8.268
28539SOL    HW187456   5.169   2.630   8.334
28539SOL    HW287457   5.133   2.649   8.188
28540SOL     OW87458   2.032   5.504   4.883
28540SOL    HW187459   2.089   5.449   4.936
28540SOL    HW287460   1.999   5.446   4.815
28541SOL     OW87461  14.691   3.539  12.217
28541SOL    HW187462  14.656   3.556  12.305
28541SOL    HW287463  14.634   3.589  12.159
28542SOL     OW87464   1.685   0.883  11.263
28542SOL    HW187465   1.727   0.963  11.295
28542SOL    HW287466   1.733   0.812  11.307
28543SOL     OW87467  14.730  13.537   9.532
28543SOL    HW187468  14.687  13.517   9.616
28543SOL    HW287469  14.718  13.632   9.522
28544SOL     OW87470   3.275   5.888  12.911
28544SOL    HW187471   3.278   5.810  12.855
28544SOL    HW287472   3.186   5.889  12.946
28545SOL     OW87473  14.133  11.878   3.456
28545SOL    HW187474  14.038  11.881   3.471
28545SOL    HW287475  14.164  11.964   3.485
28546SOL     OW87476   2.988   1.306   8.223
28546SOL    HW187477   2.947   1.256   8.294
28546SOL    HW287478   3.081   1.282   8.227
28547SOL     OW87479   2.077   5.148  11.346
28547SOL    HW187480   2.068   5.211  11.418
28547SOL    HW287481   2.170   5.152  11.322
28548SOL     OW87482  12.750   8.983   2.451
28548SOL    HW187483  12.830   9.036   2.447
28548SOL    HW287484  12.680   9.044   2.427
28549SOL     OW87485  13.292  11.256   9.283
28549SOL    HW187486  13.341  11.335   9.262
28549SOL    HW287487  13.311  11.195   9.212
28550SOL     OW87488   3.315   8.886   0.031
28550SOL    HW187489   3.377   8.917   0.097
28550SOL    HW287490   3.347   8.922  14.828
28551SOL     OW87491  10.084   7.801   5.786
28551SOL    HW187492  10.142   7.847   5.846
28551SOL    HW287493  10.038   7.871   5.739
28552SOL     OW87494   6.382   8.506   1.668
28552SOL    HW187495   6.399   8.529   1.759
28552SOL    HW287496   6.386   8.589   1.621
28553SOL     OW87497  13.016   7.302   4.556
28553SOL    HW187498  13.006   7.338   4.644
28553SOL    HW287499  13.105   7.325   4.530
28554SOL     OW87500   9.534  14.502   4.008
28554SOL    HW187501   9.476  14.575   3.990
28554SOL    HW287502   9.528  14.446   3.931
28555SOL     OW87503   3.897  11.236   1.332
28555SOL    HW187504   3.989  11.209   1.337
28555SOL    HW287505   3.893  11.292   1.254
28556SOL     OW87506   2.478  14.695   4.044
28556SOL    HW187507   2.507  14.744   3.967
28556SOL    HW287508   2.382  14.695   4.037
28557SOL     OW87509  11.682  14.380  14.450
28557SOL    HW187510  11.602  14.416  14.412
28557SOL    HW287511  11.753  14.433  14.413
28558SOL     OW87512   8.877   2.612   4.008
28558SOL    HW187513   8.867   2.667   4.086
28558SOL    HW287514   8.789   2.609   3.969
28559SOL     OW87515   0.666   8.343  11.274
28559SOL    HW187516   0.612   8.272  11.239
28559SOL    HW287517   0.644   8.418  11.219
28560SOL     OW87518   5.991   2.792  10.111
28560SOL    HW187519   5.932   2.719  10.132
28560SOL    HW287520   6.022   2.823  10.197
28561SOL     OW87521   4.513   7.565   3.809
28561SOL    HW187522   4.548   7.498   3.868
28561SOL    HW287523   4.429   7.530   3.780
28562SOL     OW87524  10.251   8.051   3.880
28562SOL    HW187525  10.209   8.109   3.817
28562SOL    HW287526  10.209   8.072   3.964
28563SOL     OW87527   4.274  13.167   3.767
28563SOL    HW187528   4.187  13.150   3.802
28563SOL    HW287529   4.281  13.110   3.690
28564SOL     OW87530   9.112   8.235   3.564
28564SOL    HW187531   9.114   8.163   3.626
28564SOL    HW287532   9.027   8.277   3.579
28565SOL     OW87533   0.619   2.213  13.440
28565SOL    HW187534   0.665   2.130  13.429
28565SOL    HW287535   0.671   2.261  13.504
28566SOL     OW87536   4.993   0.473   9.219
28566SOL    HW187537   5.026   0.544   9.273
28566SOL    HW287538   4.909   0.505   9.186
28567SOL     OW87539   4.714   7.443  14.037
28567SOL    HW187540   4.654   7.378  14.073
28567SOL    HW287541   4.766   7.472  14.112
28568SOL     OW87542   3.008   5.269   4.122
28568SOL    HW187543   3.006   5.175   4.106
28568SOL    HW287544   2.918   5.291   4.146
28569SOL     OW87545   7.450  14.322   7.474
28569SOL    HW187546   7.434  14.306   7.381
28569SOL    HW287547   7.446  14.236   7.515
28570SOL     OW87548   1.630   5.954   7.284
28570SOL    HW187549   1.636   5.918   7.195
28570SOL    HW287550   1.567   6.026   7.276
28571SOL     OW87551  11.214   3.853   3.635
28571SOL    HW187552  11.211   3.936   3.587
28571SOL    HW287553  11.124   3.821   3.633
28572SOL     OW87554   5.109   2.320   6.481
28572SOL    HW187555   5.107   2.345   6.573
28572SOL    HW287556   5.144   2.231   6.482
28573SOL     OW87557   6.747  14.768  11.001
28573SOL    HW187558   6.653  14.774  11.019
28573SOL    HW287559   6.787  14.754  11.086
28574SOL     OW87560   1.468   9.891  10.039
28574SOL    HW187561   1.513   9.929  10.115
28574SOL    HW287562   1.525   9.819  10.011
28575SOL     OW87563  14.435  10.554   1.674
28575SOL    HW187564  14.511  10.570   1.731
28575SOL    HW287565  14.369  10.517   1.731
28576SOL     OW87566  12.570  10.828   7.523
28576SOL    HW187567  12.589  10.790   7.438
28576SOL    HW287568  12.601  10.919   7.517
28577SOL     OW87569   6.899  13.792  10.064
28577SOL    HW187570   6.831  13.799  10.131
28577SOL    HW287571   6.927  13.700  10.068
28578SOL     OW87572   3.473  10.249   7.868
28578SOL    HW187573   3.510  10.295   7.943
28578SOL    HW287574   3.549  10.216   7.820
28579SOL     OW87575   6.292   3.551   8.297
28579SOL    HW187576   6.284   3.550   8.393
28579SOL    HW287577   6.366   3.610   8.280
28580SOL     OW87578  14.045   8.548   7.905
28580SOL    HW187579  14.064   8.548   7.999
28580SOL    HW287580  14.024   8.456   7.885
28581SOL     OW87581   9.136   4.294  14.559
28581SOL    HW187582   9.146   4.256  14.471
28581SOL    HW287583   9.184   4.376  14.555
28582SOL     OW87584   5.427   2.473   2.813
28582SOL    HW187585   5.388   2.494   2.729
28582SOL    HW287586   5.403   2.546   2.870
28583SOL     OW87587   8.605  12.392   6.776
28583SOL    HW187588   8.649  12.466   6.735
28583SOL    HW287589   8.628  12.317   6.720
28584SOL     OW87590  11.771   4.546   2.970
28584SOL    HW187591  11.840   4.491   3.008
28584SOL    HW287592  11.776   4.628   3.019
28585SOL     OW87593  13.526   3.505  10.064
28585SOL    HW187594  13.512   3.489   9.971
28585SOL    HW287595  13.458   3.454  10.108
28586SOL     OW87596   6.637   8.691  14.878
28586SOL    HW187597   6.718   8.673   0.045
28586SOL    HW287598   6.664   8.710  14.788
28587SOL     OW87599   3.658   4.244   3.890
28587SOL    HW187600   3.662   4.322   3.946
28587SOL    HW287601   3.712   4.266   3.815
28588SOL     OW87602   8.898   8.807   5.366
28588SOL    HW187603   8.914   8.891   5.324
28588SOL    HW287604   8.803   8.802   5.377
28589SOL     OW87605  11.547  12.667   7.776
28589SOL    HW187606  11.608  12.615   7.827
28589SOL    HW287607  11.559  12.757   7.809
28590SOL     OW87608   8.521   7.629   6.601
28590SOL    HW187609   8.455   7.560   6.597
28590SOL    HW287610   8.470   7.710   6.601
28591SOL     OW87611   9.011   7.925  11.252
28591SOL    HW187612   9.084   7.985  11.268
28591SOL    HW287613   9.035   7.879  11.171
28592SOL     OW87614   2.182  14.259   1.603
28592SOL    HW187615   2.190  14.218   1.517
28592SOL    HW287616   2.098  14.227   1.637
28593SOL     OW87617   0.184  11.951   2.375
28593SOL    HW187618   0.272  11.929   2.405
28593SOL    HW287619   0.162  11.881   2.313
28594SOL     OW87620  12.173  14.047  14.583
28594SOL    HW187621  12.098  14.082  14.534
28594SOL    HW287622  12.181  13.957  14.552
28595SOL     OW87623   2.565   6.393   8.246
28595SOL    HW187624   2.566   6.401   8.151
28595SOL    HW287625   2.559   6.483   8.278
28596SOL     OW87626   2.814   8.553   2.811
28596SOL    HW187627   2.731   8.570   2.855
28596SOL    HW287628   2.790   8.520   2.725
28597SOL     OW87629  14.034   4.074   7.868
28597SOL    HW187630  14.077   3.990   7.881
28597SOL    HW287631  14.009   4.102   7.957
28598SOL     OW87632   3.556   9.785  10.813
28598SOL    HW187633   3.546   9.708  10.869
28598SOL    HW287634   3.647   9.813  10.825
28599SOL     OW87635   5.701   8.175  12.687
28599SOL    HW187636   5.666   8.101  12.737
28599SOL    HW287637   5.721   8.138  12.601
28600SOL     OW87638   6.030   5.853   9.877
28600SOL    HW187639   6.014   5.845   9.783
28600SOL    HW287640   6.031   5.947   9.893
28601SOL     OW87641  10.176  12.645   3.432
28601SOL    HW187642  10.207  12.577   3.492
28601SOL    HW287643  10.113  12.695   3.484
28602SOL     OW87644   9.764   1.257   7.143
28602SOL    HW187645   9.671   1.238   7.154
28602SOL    HW287646   9.787   1.221   7.058
28603SOL     OW87647   8.873   6.622   3.355
28603SOL    HW187648   8.838   6.560   3.291
28603SOL    HW287649   8.928   6.681   3.303
28604SOL     OW87650  13.891   7.464   0.449
28604SOL    HW187651  13.912   7.374   0.422
28604SOL    HW287652  13.796   7.465   0.456
28605SOL     OW87653  13.248  11.734   6.037
28605SOL    HW187654  13.267  11.644   6.063
28605SOL    HW287655  13.187  11.766   6.103
28606SOL     OW87656   5.998   6.912   6.667
28606SOL    HW187657   6.044   6.920   6.584
28606SOL    HW287658   5.905   6.921   6.644
28607SOL     OW87659   7.072   7.347  11.764
28607SOL    HW187660   7.115   7.391  11.691
28607SOL    HW287661   6.996   7.303  11.724
28608SOL     OW87662  13.747  12.038  14.095
28608SOL    HW187663  13.763  12.132  14.083
28608SOL    HW287664  13.826  12.006  14.138
28609SOL     OW87665  12.362  12.046   2.928
28609SOL    HW187666  12.388  11.971   2.874
28609SOL    HW287667  12.356  12.119   2.866
28610SOL     OW87668   0.901  13.061   9.874
28610SOL    HW187669   0.959  13.045   9.949
28610SOL    HW287670   0.927  13.148   9.842
28611SOL     OW87671   9.217  13.234  10.339
28611SOL    HW187672   9.251  13.179  10.268
28611SOL    HW287673   9.167  13.174  10.394
28612SOL     OW87674   5.257   1.378  10.968
28612SOL    HW187675   5.316   1.453  10.965
28612SOL    HW287676   5.274   1.330  10.887
28613SOL     OW87677  14.099   1.466   3.909
28613SOL    HW187678  14.108   1.370   3.912
28613SOL    HW287679  14.014   1.481   3.868
28614SOL     OW87680   1.464   8.721   4.658
28614SOL    HW187681   1.436   8.737   4.748
28614SOL    HW287682   1.463   8.807   4.616
28615SOL     OW87683  11.413  10.000   4.168
28615SOL    HW187684  11.497  10.020   4.126
28615SOL    HW287685  11.426  10.025   4.260
28616SOL     OW87686   8.321   7.691   8.744
28616SOL    HW187687   8.341   7.632   8.671
28616SOL    HW287688   8.385   7.670   8.811
28617SOL     OW87689   1.417   0.572   9.651
28617SOL    HW187690   1.391   0.510   9.583
28617SOL    HW287691   1.337   0.619   9.673
28618SOL     OW87692   7.931   9.228  13.726
28618SOL    HW187693   8.012   9.182  13.750
28618SOL    HW287694   7.903   9.271  13.807
28619SOL     OW87695   5.969  10.047   9.058
28619SOL    HW187696   5.889  10.091   9.030
28619SOL    HW287697   6.040  10.101   9.022
28620SOL     OW87698   9.932   4.672   1.476
28620SOL    HW187699  10.009   4.627   1.441
28620SOL    HW287700   9.944   4.669   1.571
28621SOL     OW87701   5.792   0.593  10.632
28621SOL    HW187702   5.727   0.617  10.566
28621SOL    HW287703   5.853   0.536  10.585
28622SOL     OW87704   3.018   7.720   4.756
28622SOL    HW187705   3.070   7.668   4.695
28622SOL    HW287706   3.045   7.689   4.843
28623SOL     OW87707   7.524   5.464   4.849
28623SOL    HW187708   7.535   5.558   4.840
28623SOL    HW287709   7.480   5.437   4.768
28624SOL     OW87710  14.628  14.037   4.060
28624SOL    HW187711  14.592  13.957   4.023
28624SOL    HW287712  14.557  14.074   4.112
28625SOL     OW87713   2.593  10.936   4.174
28625SOL    HW187714   2.502  10.937   4.204
28625SOL    HW287715   2.589  10.894   4.088
28626SOL     OW87716   1.973   6.072   9.715
28626SOL    HW187717   2.017   6.005   9.768
28626SOL    HW287718   1.882   6.040   9.708
28627SOL     OW87719   7.374   2.159   7.224
28627SOL    HW187720   7.447   2.187   7.279
28627SOL    HW287721   7.391   2.066   7.207
28628SOL     OW87722  13.806   7.048   8.296
28628SOL    HW187723  13.723   7.092   8.278
28628SOL    HW287724  13.783   6.957   8.313
28629SOL     OW87725   4.104   2.481   9.888
28629SOL    HW187726   4.177   2.541   9.872
28629SOL    HW287727   4.129   2.433   9.967
28630SOL     OW87728  11.078   3.394   6.684
28630SOL    HW187729  11.066   3.301   6.700
28630SOL    HW287730  11.145   3.421   6.746
28631SOL     OW87731  11.078   0.811  11.892
28631SOL    HW187732  11.050   0.795  11.982
28631SOL    HW287733  11.016   0.877  11.859
28632SOL     OW87734   4.580   6.801  11.350
28632SOL    HW187735   4.651   6.742  11.376
28632SOL    HW287736   4.602   6.884  11.394
28633SOL     OW87737  13.665  13.346   4.604
28633SOL    HW187738  13.570  13.353   4.600
28633SOL    HW287739  13.691  13.406   4.674
28634SOL     OW87740  12.826  12.585  10.221
28634SOL    HW187741  12.743  12.542  10.243
28634SOL    HW287742  12.804  12.678  10.214
28635SOL     OW87743   4.311   6.816   1.200
28635SOL    HW187744   4.289   6.849   1.113
28635SOL    HW287745   4.231   6.827   1.251
28636SOL     OW87746   3.204  14.678   8.421
28636SOL    HW187747   3.185  14.765   8.384
28636SOL    HW287748   3.136  14.622   8.383
28637SOL     OW87749  11.574   7.523  14.581
28637SOL    HW187750  11.500   7.525  14.520
28637SOL    HW287751  11.615   7.437  14.567
28638SOL     OW87752   1.382  11.137   1.300
28638SOL    HW187753   1.345  11.218   1.265
28638SOL    HW287754   1.450  11.113   1.238
28639SOL     OW87755  11.896   6.766  13.037
28639SOL    HW187756  11.825   6.725  13.088
28639SOL    HW287757  11.939   6.824  13.099
28640SOL     OW87758  10.853   0.223  11.799
28640SOL    HW187759  10.902   0.240  11.719
28640SOL    HW287760  10.919   0.198  11.864
28641SOL     OW87761  11.127  14.281  14.415
28641SOL    HW187762  11.039  14.291  14.452
28641SOL    HW287763  11.163  14.369  14.415
28642SOL     OW87764   4.847  13.952   5.701
28642SOL    HW187765   4.769  14.001   5.725
28642SOL    HW287766   4.846  13.875   5.757
28643SOL     OW87767  14.552   2.395  10.035
28643SOL    HW187768  14.472   2.387  10.087
28643SOL    HW287769  14.612   2.446  10.089
28644SOL     OW87770   7.497  12.808   1.616
28644SOL    HW187771   7.549  12.879   1.579
28644SOL    HW287772   7.561  12.745   1.649
28645SOL     OW87773  13.215  10.654   0.553
28645SOL    HW187774  13.139  10.625   0.604
28645SOL    HW287775  13.224  10.587   0.485
28646SOL     OW87776  14.617  12.967   1.262
28646SOL    HW187777  14.631  13.025   1.187
28646SOL    HW287778  14.548  12.907   1.233
28647SOL     OW87779   3.097   7.130  14.053
28647SOL    HW187780   3.161   7.065  14.026
28647SOL    HW287781   3.024   7.079  14.089
28648SOL     OW87782   1.620   1.198  13.708
28648SOL    HW187783   1.528   1.192  13.734
28648SOL    HW287784   1.668   1.161  13.781
28649SOL     OW87785  13.617   6.922   8.876
28649SOL    HW187786  13.691   6.982   8.871
28649SOL    HW287787  13.592   6.923   8.969
28650SOL     OW87788   1.023  14.074   0.843
28650SOL    HW187789   1.041  14.017   0.769
28650SOL    HW287790   0.933  14.104   0.830
28651SOL     OW87791   1.072   1.293   4.309
28651SOL    HW187792   1.129   1.222   4.341
28651SOL    HW287793   1.006   1.303   4.377
28652SOL     OW87794  11.136   2.748   4.940
28652SOL    HW187795  11.098   2.661   4.955
28652SOL    HW287796  11.145   2.753   4.845
28653SOL     OW87797  11.082   0.817   8.132
28653SOL    HW187798  11.173   0.812   8.159
28653SOL    HW287799  11.051   0.726   8.139
28654SOL     OW87800   5.575   2.118   4.698
28654SOL    HW187801   5.545   2.164   4.777
28654SOL    HW287802   5.649   2.170   4.667
28655SOL     OW87803   9.527   7.134  14.697
28655SOL    HW187804   9.510   7.115  14.789
28655SOL    HW287805   9.492   7.222  14.683
28656SOL     OW87806   0.874   8.178   0.418
28656SOL    HW187807   0.938   8.235   0.374
28656SOL    HW287808   0.791   8.197   0.374
28657SOL     OW87809   8.203   3.692  10.166
28657SOL    HW187810   8.133   3.704  10.230
28657SOL    HW287811   8.161   3.646  10.093
28658SOL     OW87812  13.918  14.594   1.551
28658SOL    HW187813  13.981  14.541   1.600
28658SOL    HW287814  13.834  14.577   1.592
28659SOL     OW87815   6.374   7.209   1.586
28659SOL    HW187816   6.406   7.199   1.497
28659SOL    HW287817   6.446   7.180   1.641
28660SOL     OW87818  11.828  12.496   2.143
28660SOL    HW187819  11.751  12.467   2.094
28660SOL    HW287820  11.838  12.588   2.119
28661SOL     OW87821  13.964   2.193  11.542
28661SOL    HW187822  13.951   2.265  11.603
28661SOL    HW287823  13.876   2.166  11.516
28662SOL     OW87824   7.583  11.979  14.133
28662SOL    HW187825   7.538  12.063  14.143
28662SOL    HW287826   7.539  11.937  14.059
28663SOL     OW87827   8.414   3.236  12.205
28663SOL    HW187828   8.429   3.259  12.297
28663SOL    HW287829   8.382   3.317  12.164
28664SOL     OW87830   4.024   2.504   4.033
28664SOL    HW187831   3.973   2.507   4.114
28664SOL    HW287832   4.114   2.519   4.062
28665SOL     OW87833   7.847  14.834   1.362
28665SOL    HW187834   7.763  14.830   1.316
28665SOL    HW287835   7.906  14.780   1.310
28666SOL     OW87836  12.756   9.829   0.273
28666SOL    HW187837  12.676   9.876   0.250
28666SOL    HW287838  12.737   9.738   0.254
28667SOL     OW87839   2.079   2.141  11.309
28667SOL    HW187840   2.042   2.053  11.323
28667SOL    HW287841   2.010   2.200  11.339
28668SOL     OW87842   7.382   1.113   9.420
28668SOL    HW187843   7.346   1.067   9.344
28668SOL    HW287844   7.308   1.163   9.454
28669SOL     OW87845   5.518   1.932   0.732
28669SOL    HW187846   5.521   1.841   0.761
28669SOL    HW287847   5.582   1.936   0.661
28670SOL     OW87848   9.991   8.142  10.762
28670SOL    HW187849  10.018   8.123  10.672
28670SOL    HW287850  10.025   8.230  10.780
28671SOL     OW87851  14.158  12.762   4.642
28671SOL    HW187852  14.251  12.775   4.623
28671SOL    HW287853  14.118  12.847   4.626
28672SOL     OW87854   9.599  10.904   2.414
28672SOL    HW187855   9.686  10.944   2.408
28672SOL    HW287856   9.539  10.972   2.384
28673SOL     OW87857   8.910   8.624   0.462
28673SOL    HW187858   8.818   8.647   0.467
28673SOL    HW287859   8.915   8.536   0.499
28674SOL     OW87860   6.761   9.488   8.893
28674SOL    HW187861   6.724   9.414   8.941
28674SOL    HW287862   6.689   9.522   8.841
28675SOL     OW87863   0.117   6.334   1.652
28675SOL    HW187864   0.042   6.275   1.661
28675SOL    HW287865   0.078   6.422   1.649
28676SOL     OW87866   5.981   5.490  10.498
28676SOL    HW187867   6.041   5.549  10.452
28676SOL    HW287868   6.024   5.404  10.494
28677SOL     OW87869   1.157   0.951   3.081
28677SOL    HW187870   1.202   1.036   3.086
28677SOL    HW287871   1.206   0.902   3.015
28678SOL     OW87872  11.536   1.872   1.104
28678SOL    HW187873  11.448   1.868   1.141
28678SOL    HW287874  11.570   1.957   1.131
28679SOL     OW87875   9.294   0.574   4.328
28679SOL    HW187876   9.228   0.631   4.290
28679SOL    HW287877   9.377   0.609   4.297
28680SOL     OW87878  11.273  13.598  10.597
28680SOL    HW187879  11.329  13.528  10.562
28680SOL    HW287880  11.184  13.564  10.584
28681SOL     OW87881   7.765  10.711   3.420
28681SOL    HW187882   7.771  10.689   3.327
28681SOL    HW287883   7.834  10.659   3.462
28682SOL     OW87884  12.902  12.308  10.603
28682SOL    HW187885  12.894  12.250  10.678
28682SOL    HW287886  12.849  12.266  10.534
28683SOL     OW87887   7.204   8.079   0.566
28683SOL    HW187888   7.156   8.044   0.491
28683SOL    HW287889   7.293   8.048   0.554
28684SOL     OW87890  12.052   6.494   9.523
28684SOL    HW187891  12.012   6.436   9.459
28684SOL    HW287892  12.133   6.450   9.548
28685SOL     OW87893   8.813  13.041  10.119
28685SOL    HW187894   8.872  12.968  10.104
28685SOL    HW287895   8.825  13.063  10.211
28686SOL     OW87896   6.999   7.620  10.708
28686SOL    HW187897   6.929   7.555  10.693
28686SOL    HW287898   6.952   7.703  10.716
28687SOL     OW87899  14.799   2.102   8.746
28687SOL    HW187900   0.008   2.069   8.760
28687SOL    HW287901  14.808   2.197   8.753
28688SOL     OW87902   5.973   0.342   8.976
28688SOL    HW187903   5.937   0.411   8.920
28688SOL    HW287904   5.906   0.273   8.974
28689SOL     OW87905   5.358   1.019   7.062
28689SOL    HW187906   5.310   0.978   6.991
28689SOL    HW287907   5.449   0.993   7.048
28690SOL     OW87908   9.462   1.212  14.166
28690SOL    HW187909   9.548   1.209  14.125
28690SOL    HW287910   9.439   1.305  14.167
28691SOL     OW87911   2.624  14.785   3.536
28691SOL    HW187912   2.622  14.863   3.593
28691SOL    HW287913   2.580  14.813   3.456
28692SOL     OW87914   3.050   1.732   5.053
28692SOL    HW187915   3.065   1.641   5.078
28692SOL    HW287916   3.138   1.769   5.044
28693SOL     OW87917  11.123   2.575   6.549
28693SOL    HW187918  11.141   2.576   6.643
28693SOL    HW287919  11.046   2.520   6.540
28694SOL     OW87920  13.610   6.522   9.066
28694SOL    HW187921  13.599   6.460   9.138
28694SOL    HW287922  13.520   6.549   9.044
28695SOL     OW87923   8.001   2.843  14.575
28695SOL    HW187924   7.965   2.755  14.562
28695SOL    HW287925   7.955   2.897  14.510
28696SOL     OW87926  10.967   6.384  11.415
28696SOL    HW187927  10.878   6.382  11.450
28696SOL    HW287928  10.992   6.477  11.419
28697SOL     OW87929  14.027   1.947   0.968
28697SOL    HW187930  14.103   1.903   0.930
28697SOL    HW287931  13.952   1.895   0.940
28698SOL     OW87932   3.749   9.123   2.796
28698SOL    HW187933   3.799   9.068   2.855
28698SOL    HW287934   3.744   9.208   2.840
28699SOL     OW87935   0.940  14.317   7.192
28699SOL    HW187936   0.924  14.385   7.257
28699SOL    HW287937   0.900  14.239   7.229
28700SOL     OW87938   3.357   1.296   3.418
28700SOL    HW187939   3.281   1.345   3.386
28700SOL    HW287940   3.389   1.346   3.493
28701SOL     OW87941   1.043   8.618  12.183
28701SOL    HW187942   1.066   8.554  12.250
28701SOL    HW287943   1.007   8.692  12.232
28702SOL     OW87944  10.758  14.288  12.136
28702SOL    HW187945  10.706  14.216  12.103
28702SOL    HW287946  10.834  14.292  12.078
28703SOL     OW87947  14.269   6.681  11.260
28703SOL    HW187948  14.190   6.689  11.207
28703SOL    HW287949  14.341   6.673  11.197
28704SOL     OW87950   7.507   3.718   1.662
28704SOL    HW187951   7.569   3.783   1.628
28704SOL    HW287952   7.524   3.716   1.756
28705SOL     OW87953  11.792  11.191   0.758
28705SOL    HW187954  11.702  11.192   0.790
28705SOL    HW287955  11.845  11.190   0.837
28706SOL     OW87956  12.360   1.271   5.009
28706SOL    HW187957  12.394   1.300   5.094
28706SOL    HW287958  12.267   1.255   5.024
28707SOL     OW87959   7.141  11.820  10.886
28707SOL    HW187960   7.159  11.912  10.866
28707SOL    HW287961   7.071  11.823  10.951
28708SOL     OW87962   9.679   1.488   5.222
28708SOL    HW187963   9.586   1.496   5.202
28708SOL    HW287964   9.683   1.424   5.293
28709SOL     OW87965   5.432  13.127   7.393
28709SOL    HW187966   5.516  13.153   7.429
28709SOL    HW287967   5.383  13.092   7.467
28710SOL     OW87968   6.274   6.568   6.106
28710SOL    HW187969   6.251   6.624   6.032
28710SOL    HW287970   6.363   6.538   6.088
28711SOL     OW87971   4.583  11.639   4.551
28711SOL    HW187972   4.650  11.612   4.614
28711SOL    HW287973   4.502  11.602   4.585
28712SOL     OW87974   7.292   4.217  10.492
28712SOL    HW187975   7.236   4.151  10.533
28712SOL    HW287976   7.259   4.300  10.525
28713SOL     OW87977  12.413   8.331   8.677
28713SOL    HW187978  12.479   8.311   8.743
28713SOL    HW287979  12.337   8.279   8.704
28714SOL     OW87980   6.042  14.234   8.079
28714SOL    HW187981   5.980  14.255   8.009
28714SOL    HW287982   6.073  14.146   8.057
28715SOL     OW87983   5.918   8.450   6.451
28715SOL    HW187984   6.002   8.474   6.489
28715SOL    HW287985   5.939   8.423   6.362
28716SOL     OW87986   6.854   3.715   5.079
28716SOL    HW187987   6.949   3.719   5.073
28716SOL    HW287988   6.829   3.644   5.020
28717SOL     OW87989  11.644  14.556  11.155
28717SOL    HW187990  11.601  14.626  11.106
28717SOL    HW287991  11.704  14.602  11.215
28718SOL     OW87992   0.594  14.540   2.124
28718SOL    HW187993   0.585  14.536   2.219
28718SOL    HW287994   0.686  14.565   2.110
28719SOL     OW87995   8.521  13.301   8.433
28719SOL    HW187996   8.567  13.220   8.454
28719SOL    HW287997   8.546  13.321   8.343
28720SOL     OW87998   3.758   3.602   0.742
28720SOL    HW187999   3.839   3.557   0.764
28720SOL    HW288000   3.691   3.533   0.744
28721SOL     OW88001   2.643   3.867  10.850
28721SOL    HW188002   2.662   3.798  10.786
28721SOL    HW288003   2.564   3.838  10.894
28722SOL     OW88004   6.363   5.491  13.747
28722SOL    HW188005   6.318   5.408  13.731
28722SOL    HW288006   6.340   5.514  13.837
28723SOL     OW88007   7.837  11.620   4.058
28723SOL    HW188008   7.778  11.559   4.014
28723SOL    HW288009   7.894  11.565   4.111
28724SOL     OW88010   1.092  13.716   8.478
28724SOL    HW188011   1.022  13.654   8.460
28724SOL    HW288012   1.114  13.753   8.392
28725SOL     OW88013   9.558   9.257  10.498
28725SOL    HW188014   9.486   9.321  10.500
28725SOL    HW288015   9.609   9.275  10.577
28726SOL     OW88016  13.885  12.713   4.926
28726SOL    HW188017  13.854  12.622   4.926
28726SOL    HW288018  13.871  12.742   4.836
28727SOL     OW88019   5.651   7.608  12.531
28727SOL    HW188020   5.737   7.641  12.557
28727SOL    HW288021   5.618   7.674  12.470
28728SOL     OW88022  12.883   4.728  13.739
28728SOL    HW188023  12.787   4.725  13.739
28728SOL    HW288024  12.904   4.819  13.762
28729SOL     OW88025   8.619  10.930  12.974
28729SOL    HW188026   8.664  10.936  12.889
28729SOL    HW288027   8.690  10.933  13.038
28730SOL     OW88028  11.667   4.329   0.781
28730SOL    HW188029  11.641   4.293   0.865
28730SOL    HW288030  11.586   4.366   0.744
28731SOL     OW88031   8.690   4.015   9.762
28731SOL    HW188032   8.773   4.056   9.788
28731SOL    HW288033   8.653   3.982   9.844
28732SOL     OW88034  14.621  10.112  11.496
28732SOL    HW188035  14.619  10.192  11.444
28732SOL    HW288036  14.674  10.135  11.573
28733SOL     OW88037   5.071  11.687   9.196
28733SOL    HW188038   5.112  11.692   9.282
28733SOL    HW288039   4.998  11.626   9.208
28734SOL     OW88040   7.263   9.816   4.797
28734SOL    HW188041   7.245   9.737   4.848
28734SOL    HW288042   7.337   9.791   4.741
28735SOL     OW88043  14.830   5.018   7.789
28735SOL    HW188044  14.735   5.035   7.790
28735SOL    HW288045  14.860   5.054   7.705
28736SOL     OW88046   9.846   8.589   3.943
28736SOL    HW188047   9.857   8.624   4.031
28736SOL    HW288048   9.904   8.643   3.889
28737SOL     OW88049   4.128   4.910   5.034
28737SOL    HW188050   4.098   4.953   4.954
28737SOL    HW288051   4.218   4.942   5.046
28738SOL     OW88052   1.925   5.231   6.924
28738SOL    HW188053   2.021   5.225   6.921
28738SOL    HW288054   1.902   5.200   7.011
28739SOL     OW88055   1.462   5.832   3.106
28739SOL    HW188056   1.451   5.856   3.198
28739SOL    HW288057   1.488   5.740   3.109
28740SOL     OW88058   7.433   5.724   1.944
28740SOL    HW188059   7.499   5.656   1.929
28740SOL    HW288060   7.399   5.707   2.031
28741SOL     OW88061   9.484   2.357   3.484
28741SOL    HW188062   9.485   2.314   3.398
28741SOL    HW288063   9.436   2.298   3.540
28742SOL     OW88064  11.988   0.145   9.579
28742SOL    HW188065  12.065   0.135   9.524
28742SOL    HW288066  11.968   0.057   9.610
28743SOL     OW88067  14.691   2.237  14.136
28743SOL    HW188068  14.736   2.162  14.175
28743SOL    HW288069  14.716   2.311  14.191
28744SOL     OW88070   3.208  11.187   5.210
28744SOL    HW188071   3.190  11.243   5.135
28744SOL    HW288072   3.168  11.232   5.284
28745SOL     OW88073   9.067   7.097   5.721
28745SOL    HW188074   9.095   7.188   5.718
28745SOL    HW288075   8.990   7.094   5.664
28746SOL     OW88076  14.307   2.395   9.390
28746SOL    HW188077  14.333   2.328   9.453
28746SOL    HW288078  14.345   2.476   9.423
28747SOL     OW88079  12.869   6.360   5.405
28747SOL    HW188080  12.798   6.400   5.454
28747SOL    HW288081  12.946   6.413   5.426
28748SOL     OW88082  12.933  12.040   8.014
28748SOL    HW188083  12.927  12.022   7.920
28748SOL    HW288084  12.892  12.126   8.025
28749SOL     OW88085  10.005   8.515  11.510
28749SOL    HW188086  10.049   8.517  11.595
28749SOL    HW288087  10.068   8.472  11.452
28750SOL     OW88088   5.711   2.352   9.649
28750SOL    HW188089   5.727   2.258   9.635
28750SOL    HW288090   5.786   2.381   9.700
28751SOL     OW88091   2.457  11.269   7.641
28751SOL    HW188092   2.408  11.211   7.698
28751SOL    HW288093   2.448  11.231   7.553
28752SOL     OW88094  14.637   0.666  12.182
28752SOL    HW188095  14.686   0.670  12.264
28752SOL    HW288096  14.553   0.628  12.205
28753SOL     OW88097  13.286   0.224   1.962
28753SOL    HW188098  13.211   0.222   1.902
28753SOL    HW288099  13.246   0.229   2.049
28754SOL     OW88100   1.358  13.606  14.419
28754SOL    HW188101   1.393  13.614  14.331
28754SOL    HW288102   1.312  13.522  14.419
28755SOL     OW88103  13.521   3.050  14.117
28755SOL    HW188104  13.504   3.143  14.133
28755SOL    HW288105  13.597   3.031  14.172
28756SOL     OW88106  13.184  14.639   5.015
28756SOL    HW188107  13.277  14.646   4.994
28756SOL    HW288108  13.144  14.716   4.975
28757SOL     OW88109  12.701   1.656   4.038
28757SOL    HW188110  12.770   1.603   4.079
28757SOL    HW288111  12.620   1.609   4.058
28758SOL     OW88112   6.953   8.480  10.743
28758SOL    HW188113   7.044   8.504  10.758
28758SOL    HW288114   6.943   8.395  10.786
28759SOL     OW88115   4.663   6.864   9.721
28759SOL    HW188116   4.601   6.905   9.662
28759SOL    HW288117   4.639   6.771   9.721
28760SOL     OW88118  11.428   4.715   8.038
28760SOL    HW188119  11.400   4.624   8.045
28760SOL    HW288120  11.500   4.713   7.975
28761SOL     OW88121   4.419   7.429   1.156
28761SOL    HW188122   4.358   7.405   1.086
28761SOL    HW288123   4.499   7.453   1.110
28762SOL     OW88124   8.722  11.402   5.705
28762SOL    HW188125   8.710  11.378   5.613
28762SOL    HW288126   8.734  11.319   5.751
28763SOL     OW88127   6.816  12.821   6.021
28763SOL    HW188128   6.877  12.825   6.095
28763SOL    HW288129   6.746  12.763   6.051
28764SOL     OW88130   4.190  11.833  12.715
28764SOL    HW188131   4.203  11.926  12.695
28764SOL    HW288132   4.264  11.789  12.673
28765SOL     OW88133  11.218   9.284  14.588
28765SOL    HW188134  11.179   9.311  14.671
28765SOL    HW288135  11.150   9.300  14.523
28766SOL     OW88136   2.209  11.065   9.024
28766SOL    HW188137   2.216  11.092   9.115
28766SOL    HW288138   2.255  11.133   8.975
28767SOL     OW88139   1.493   8.733   1.090
28767SOL    HW188140   1.511   8.795   1.161
28767SOL    HW288141   1.580   8.699   1.067
28768SOL     OW88142   9.167   0.837   4.894
28768SOL    HW188143   9.154   0.809   4.984
28768SOL    HW288144   9.171   0.933   4.899
28769SOL     OW88145   5.033   0.508   5.108
28769SOL    HW188146   4.946   0.471   5.088
28769SOL    HW288147   5.066   0.539   5.024
28770SOL     OW88148   3.713   8.958   3.469
28770SOL    HW188149   3.637   8.978   3.524
28770SOL    HW288150   3.760   8.890   3.517
28771SOL     OW88151   6.688  12.518   3.888
28771SOL    HW188152   6.669  12.450   3.953
28771SOL    HW288153   6.745  12.580   3.934
28772SOL     OW88154   3.089   2.121  14.024
28772SOL    HW188155   3.037   2.046  13.994
28772SOL    HW288156   3.031   2.196  14.015
28773SOL     OW88157   5.592   2.948   0.033
28773SOL    HW188158   5.546   2.934   0.116
28773SOL    HW288159   5.623   3.039   0.038
28774SOL     OW88160  12.214   2.826   8.321
28774SOL    HW188161  12.248   2.859   8.404
28774SOL    HW288162  12.216   2.730   8.331
28775SOL     OW88163   5.111   0.592  13.541
28775SOL    HW188164   5.066   0.653  13.483
28775SOL    HW288165   5.202   0.620  13.542
28776SOL     OW88166   9.990   9.049  13.780
28776SOL    HW188167  10.080   9.037  13.751
28776SOL    HW288168   9.972   9.142  13.763
28777SOL     OW88169  10.312   1.868  14.636
28777SOL    HW188170  10.274   1.933  14.695
28777SOL    HW288171  10.339   1.918  14.559
28778SOL     OW88172  14.144   5.632   0.121
28778SOL    HW188173  14.087   5.645   0.045
28778SOL    HW288174  14.197   5.556   0.099
28779SOL     OW88175   3.666  11.031   4.463
28779SOL    HW188176   3.625  11.104   4.418
28779SOL    HW288177   3.650  11.048   4.556
28780SOL     OW88178   3.630   1.834   9.110
28780SOL    HW188179   3.691   1.761   9.099
28780SOL    HW288180   3.615   1.866   9.021
28781SOL     OW88181   6.815  11.598   6.737
28781SOL    HW188182   6.730  11.561   6.716
28781SOL    HW288183   6.800  11.693   6.739
28782SOL     OW88184   3.840   9.126   5.303
28782SOL    HW188185   3.859   9.197   5.241
28782SOL    HW288186   3.775   9.163   5.363
28783SOL     OW88187  14.822   0.176  14.440
28783SOL    HW188188  14.789   0.087  14.431
28783SOL    HW288189  14.765   0.229  14.385
28784SOL     OW88190   5.766  10.570   9.521
28784SOL    HW188191   5.731  10.490   9.561
28784SOL    HW288192   5.766  10.551   9.427
28785SOL     OW88193   6.542   2.110   7.234
28785SOL    HW188194   6.585   2.033   7.198
28785SOL    HW288195   6.449   2.088   7.234
28786SOL     OW88196  13.972   5.500   5.248
28786SOL    HW188197  13.882   5.469   5.246
28786SOL    HW288198  13.965   5.595   5.243
28787SOL     OW88199  14.236   0.823  12.730
28787SOL    HW188200  14.263   0.882  12.660
28787SOL    HW288201  14.190   0.752  12.685
28788SOL     OW88202   3.173   1.583   2.126
28788SOL    HW188203   3.188   1.529   2.204
28788SOL    HW288204   3.210   1.668   2.148
28789SOL     OW88205   7.935  11.028  11.599
28789SOL    HW188206   8.016  10.983  11.572
28789SOL    HW288207   7.960  11.075  11.678
28790SOL     OW88208  10.434   0.804   9.805
28790SOL    HW188209  10.508   0.836   9.754
28790SOL    HW288210  10.363   0.865   9.785
28791SOL     OW88211  14.836   0.311   4.765
28791SOL    HW188212  14.859   0.360   4.844
28791SOL    HW288213  14.757   0.262   4.789
28792SOL     OW88214   4.013   1.747   0.053
28792SOL    HW188215   3.951   1.774   0.121
28792SOL    HW288216   3.984   1.658   0.030
28793SOL     OW88217   0.571   6.342   0.937
28793SOL    HW188218   0.507   6.274   0.913
28793SOL    HW288219   0.656   6.298   0.934
28794SOL     OW88220   7.344  10.632   0.495
28794SOL    HW188221   7.334  10.553   0.548
28794SOL    HW288222   7.375  10.698   0.556
28795SOL     OW88223  13.489   3.473   5.104
28795SOL    HW188224  13.461   3.521   5.182
28795SOL    HW288225  13.417   3.484   5.042
28796SOL     OW88226   2.974  14.038   5.201
28796SOL    HW188227   3.027  13.997   5.269
28796SOL    HW288228   2.884  14.029   5.232
28797SOL     OW88229   3.606  13.635  14.187
28797SOL    HW188230   3.676  13.577  14.215
28797SOL    HW288231   3.528  13.579  14.188
28798SOL     OW88232   2.684   6.371   8.506
28798SOL    HW188233   2.681   6.349   8.413
28798SOL    HW288234   2.777   6.385   8.524
28799SOL     OW88235  10.407   4.821   2.794
28799SOL    HW188236  10.324   4.776   2.776
28799SOL    HW288237  10.472   4.772   2.744
28800SOL     OW88238   9.515   8.824   5.080
28800SOL    HW188239   9.461   8.867   5.014
28800SOL    HW288240   9.523   8.734   5.050
28801SOL     OW88241  11.719   6.083   6.397
28801SOL    HW188242  11.730   6.124   6.483
28801SOL    HW288243  11.654   6.014   6.411
28802SOL     OW88244   5.541   7.857   9.620
28802SOL    HW188245   5.624   7.902   9.635
28802SOL    HW288246   5.494   7.912   9.558
28803SOL     OW88247  13.032  10.139   9.582
28803SOL    HW188248  12.986  10.116   9.501
28803SOL    HW288249  12.965  10.134   9.650
28804SOL     OW88250  11.763  14.730  10.759
28804SOL    HW188251  11.730  14.713  10.671
28804SOL    HW288252  11.805  14.816  10.752
28805SOL     OW88253   4.150   9.685   7.782
28805SOL    HW188254   4.147   9.747   7.855
28805SOL    HW288255   4.239   9.694   7.747
28806SOL     OW88256   2.042  14.797  11.770
28806SOL    HW188257   2.029  14.799  11.864
28806SOL    HW288258   2.026  14.705  11.746
28807SOL     OW88259   8.415   3.839   5.232
28807SOL    HW188260   8.481   3.830   5.302
28807SOL    HW288261   8.335   3.863   5.278
28808SOL     OW88262   9.345   5.733   0.766
28808SOL    HW188263   9.440   5.721   0.760
28808SOL    HW288264   9.312   5.701   0.682
28809SOL     OW88265   7.774  11.544   5.056
28809SOL    HW188266   7.696  11.540   5.111
28809SOL    HW288267   7.743  11.516   4.970
28810SOL     OW88268   8.644  13.297  13.687
28810SOL    HW188269   8.551  13.318  13.678
28810SOL    HW288270   8.672  13.346  13.764
28811SOL     OW88271  12.153  12.049   8.163
28811SOL    HW188272  12.220  11.981   8.160
28811SOL    HW288273  12.157  12.092   8.077
28812SOL     OW88274   6.115   9.917   2.016
28812SOL    HW188275   6.022   9.914   1.997
28812SOL    HW288276   6.158   9.923   1.931
28813SOL     OW88277   1.484   3.204   3.973
28813SOL    HW188278   1.397   3.204   4.012
28813SOL    HW288279   1.541   3.242   4.040
28814SOL     OW88280   9.262   6.098   5.294
28814SOL    HW188281   9.238   6.083   5.202
28814SOL    HW288282   9.303   6.185   5.294
28815SOL     OW88283  12.338   0.341  11.014
28815SOL    HW188284  12.327   0.370  10.924
28815SOL    HW288285  12.427   0.369  11.038
28816SOL     OW88286   3.469   7.078   9.397
28816SOL    HW188287   3.533   7.100   9.465
28816SOL    HW288288   3.456   7.160   9.349
28817SOL     OW88289   7.337   2.099  14.044
28817SOL    HW188290   7.347   2.025  14.104
28817SOL    HW288291   7.292   2.166  14.096
28818SOL     OW88292  11.231   6.695  13.800
28818SOL    HW188293  11.190   6.659  13.722
28818SOL    HW288294  11.324   6.699  13.779
28819SOL     OW88295  13.996  12.369   4.083
28819SOL    HW188296  14.072  12.332   4.038
28819SOL    HW288297  14.001  12.334   4.172
28820SOL     OW88298   9.664   3.204   5.109
28820SOL    HW188299   9.680   3.138   5.176
28820SOL    HW288300   9.748   3.215   5.064
28821SOL     OW88301   5.096  13.345   8.570
28821SOL    HW188302   5.106  13.403   8.494
28821SOL    HW288303   5.005  13.356   8.597
28822SOL     OW88304  14.340   1.985   3.847
28822SOL    HW188305  14.419   2.006   3.897
28822SOL    HW288306  14.318   1.896   3.873
28823SOL     OW88307   2.951   9.350  12.119
28823SOL    HW188308   3.019   9.348  12.186
28823SOL    HW288309   2.891   9.419  12.148
28824SOL     OW88310  11.338   1.955  11.916
28824SOL    HW188311  11.299   1.923  11.835
28824SOL    HW288312  11.263   1.984  11.969
28825SOL     OW88313  11.420   6.250   6.904
28825SOL    HW188314  11.367   6.214   6.833
28825SOL    HW288315  11.506   6.209   6.893
28826SOL     OW88316   0.443  11.599   7.742
28826SOL    HW188317   0.502  11.665   7.778
28826SOL    HW288318   0.384  11.578   7.814
28827SOL     OW88319   4.389   1.147   2.581
28827SOL    HW188320   4.299   1.144   2.549
28827SOL    HW288321   4.423   1.230   2.548
28828SOL     OW88322   9.572   7.788  10.367
28828SOL    HW188323   9.580   7.707  10.317
28828SOL    HW288324   9.658   7.799  10.409
28829SOL     OW88325  10.383   1.207  13.542
28829SOL    HW188326  10.425   1.154  13.474
28829SOL    HW288327  10.294   1.172  13.547
28830SOL     OW88328   8.979   3.118   3.299
28830SOL    HW188329   9.008   3.209   3.297
28830SOL    HW288330   9.006   3.086   3.384
28831SOL     OW88331   8.942  11.929  11.005
28831SOL    HW188332   8.871  11.865  11.011
28831SOL    HW288333   8.971  11.941  11.095
28832SOL     OW88334   1.798   6.481   7.006
28832SOL    HW188335   1.706   6.463   6.990
28832SOL    HW288336   1.839   6.481   6.920
28833SOL     OW88337   3.213   7.445   1.529
28833SOL    HW188338   3.214   7.350   1.522
28833SOL    HW288339   3.122   7.468   1.547
28834SOL     OW88340  12.273  13.405   4.010
28834SOL    HW188341  12.285  13.385   4.103
28834SOL    HW288342  12.246  13.497   4.009
28835SOL     OW88343  11.454   4.953  13.211
28835SOL    HW188344  11.497   5.005  13.279
28835SOL    HW288345  11.410   5.017  13.156
28836SOL     OW88346   5.127   2.211   7.621
28836SOL    HW188347   5.096   2.286   7.674
28836SOL    HW288348   5.046   2.167   7.595
28837SOL     OW88349  10.622   2.202   3.721
28837SOL    HW188350  10.587   2.152   3.794
28837SOL    HW288351  10.706   2.237   3.753
28838SOL     OW88352   3.020   6.564   4.011
28838SOL    HW188353   2.992   6.615   4.087
28838SOL    HW288354   2.970   6.483   4.016
28839SOL     OW88355   7.463   5.650  10.947
28839SOL    HW188356   7.533   5.715  10.957
28839SOL    HW288357   7.435   5.658  10.855
28840SOL     OW88358  12.834  10.554  13.331
28840SOL    HW188359  12.790  10.532  13.413
28840SOL    HW288360  12.858  10.646  13.341
28841SOL     OW88361   8.074  14.624  12.840
28841SOL    HW188362   8.140  14.563  12.873
28841SOL    HW288363   8.022  14.572  12.779
28842SOL     OW88364  11.194   9.689  11.902
28842SOL    HW188365  11.124   9.639  11.861
28842SOL    HW288366  11.178   9.679  11.996
28843SOL     OW88367   1.624  11.640  11.991
28843SOL    HW188368   1.713  11.609  11.972
28843SOL    HW288369   1.611  11.619  12.083
28844SOL     OW88370  12.690   3.022   6.865
28844SOL    HW188371  12.717   3.088   6.801
28844SOL    HW288372  12.681   3.070   6.947
28845SOL     OW88373   3.176   6.409   2.705
28845SOL    HW188374   3.158   6.386   2.614
28845SOL    HW288375   3.090   6.415   2.746
28846SOL     OW88376  13.696   1.513  11.624
28846SOL    HW188377  13.722   1.435  11.575
28846SOL    HW288378  13.741   1.505  11.708
28847SOL     OW88379   5.674  12.540   9.617
28847SOL    HW188380   5.654  12.619   9.567
28847SOL    HW288381   5.637  12.557   9.704
28848SOL     OW88382  14.551   8.836   9.189
28848SOL    HW188383  14.563   8.770   9.120
28848SOL    HW288384  14.631   8.888   9.187
28849SOL     OW88385  13.996  13.661  10.356
28849SOL    HW188386  13.958  13.724  10.417
28849SOL    HW288387  13.996  13.578  10.404
28850SOL     OW88388  12.459  10.107   6.918
28850SOL    HW188389  12.415  10.072   6.995
28850SOL    HW288390  12.412  10.070   6.844
28851SOL     OW88391   3.421   3.013  10.222
28851SOL    HW188392   3.344   3.058  10.186
28851SOL    HW288393   3.384   2.945  10.279
28852SOL     OW88394   9.611   3.337   5.809
28852SOL    HW188395   9.650   3.268   5.863
28852SOL    HW288396   9.560   3.290   5.743
28853SOL     OW88397   9.147   6.939   1.176
28853SOL    HW188398   9.072   6.998   1.174
28853SOL    HW288399   9.166   6.926   1.269
28854SOL     OW88400  11.795  12.445   9.864
28854SOL    HW188401  11.857  12.453   9.791
28854SOL    HW288402  11.740  12.523   9.858
28855SOL     OW88403   6.101   8.869  13.351
28855SOL    HW188404   6.190   8.884  13.316
28855SOL    HW288405   6.056   8.823  13.281
28856SOL     OW88406   0.941   2.279  10.501
28856SOL    HW188407   0.851   2.308  10.509
28856SOL    HW288408   0.962   2.242  10.587
28857SOL     OW88409   5.075   7.600   3.086
28857SOL    HW188410   5.143   7.654   3.047
28857SOL    HW288411   5.122   7.541   3.145
28858SOL     OW88412   3.921   8.690   1.944
28858SOL    HW188413   3.846   8.697   1.885
28858SOL    HW288414   3.984   8.754   1.911
28859SOL     OW88415  12.430   9.111   9.020
28859SOL    HW188416  12.498   9.118   9.087
28859SOL    HW288417  12.430   9.196   8.976
28860SOL     OW88418   3.136   6.647   8.762
28860SOL    HW188419   3.196   6.711   8.725
28860SOL    HW288420   3.187   6.600   8.828
28861SOL     OW88421   0.832  12.654  11.017
28861SOL    HW188422   0.874  12.735  11.046
28861SOL    HW288423   0.891  12.584  11.048
28862SOL     OW88424   2.154   5.718   7.308
28862SOL    HW188425   2.158   5.714   7.403
28862SOL    HW288426   2.218   5.654   7.278
28863SOL     OW88427  13.793  11.155   5.595
28863SOL    HW188428  13.793  11.186   5.505
28863SOL    HW288429  13.774  11.234   5.647
28864SOL     OW88430   7.959   3.073   4.291
28864SOL    HW188431   7.880   3.022   4.271
28864SOL    HW288432   7.939   3.118   4.373
28865SOL     OW88433  14.669  13.527  12.856
28865SOL    HW188434  14.649  13.475  12.779
28865SOL    HW288435  14.585  13.543  12.898
28866SOL     OW88436   9.517   3.481   4.116
28866SOL    HW188437   9.599   3.528   4.104
28866SOL    HW288438   9.461   3.543   4.163
28867SOL     OW88439   6.344  13.807   3.887
28867SOL    HW188440   6.413  13.839   3.946
28867SOL    HW288441   6.388  13.744   3.831
28868SOL     OW88442  11.943  10.475  12.903
28868SOL    HW188443  11.908  10.405  12.849
28868SOL    HW288444  12.038  10.460  12.902
28869SOL     OW88445   8.348   6.305   2.292
28869SOL    HW188446   8.340   6.387   2.243
28869SOL    HW288447   8.263   6.294   2.334
28870SOL     OW88448   1.940   0.996   3.350
28870SOL    HW188449   2.010   1.041   3.396
28870SOL    HW288450   1.860   1.040   3.379
28871SOL     OW88451   1.891  14.745   1.138
28871SOL    HW188452   1.820  14.759   1.201
28871SOL    HW288453   1.864  14.668   1.088
28872SOL     OW88454  11.980  12.584   5.629
28872SOL    HW188455  12.032  12.637   5.568
28872SOL    HW288456  12.015  12.606   5.716
28873SOL     OW88457   7.950   9.941  14.268
28873SOL    HW188458   8.000   9.859  14.266
28873SOL    HW288459   8.015  10.009  14.251
28874SOL     OW88460  11.275   8.314   5.832
28874SOL    HW188461  11.331   8.378   5.788
28874SOL    HW288462  11.189   8.327   5.792
28875SOL     OW88463   4.626   4.952  13.535
28875SOL    HW188464   4.551   4.900  13.508
28875SOL    HW288465   4.608   5.039  13.499
28876SOL     OW88466   5.894   2.758   6.606
28876SOL    HW188467   5.888   2.836   6.662
28876SOL    HW288468   5.854   2.689   6.658
28877SOL     OW88469   4.358   6.226   2.154
28877SOL    HW188470   4.392   6.224   2.243
28877SOL    HW288471   4.370   6.136   2.122
28878SOL     OW88472   8.733   0.305  13.492
28878SOL    HW188473   8.737   0.400  13.499
28878SOL    HW288474   8.646   0.282  13.527
28879SOL     OW88475   3.797   6.788   0.383
28879SOL    HW188476   3.833   6.854   0.442
28879SOL    HW288477   3.869   6.764   0.326
28880SOL     OW88478  14.452   8.972  13.462
28880SOL    HW188479  14.534   8.922  13.465
28880SOL    HW288480  14.388   8.917  13.507
28881SOL     OW88481  14.131   5.771   0.350
28881SOL    HW188482  14.117   5.708   0.279
28881SOL    HW288483  14.051   5.823   0.351
28882SOL     OW88484   4.434   2.248   8.192
28882SOL    HW188485   4.502   2.280   8.132
28882SOL    HW288486   4.352   2.281   8.156
28883SOL     OW88487  14.104  14.216  11.662
28883SOL    HW188488  14.180  14.185  11.612
28883SOL    HW288489  14.066  14.285  11.608
28884SOL     OW88490  10.110   6.920   6.857
28884SOL    HW188491  10.065   6.873   6.927
28884SOL    HW288492  10.100   7.013   6.880
28885SOL     OW88493   4.721   5.503  14.035
28885SOL    HW188494   4.712   5.498  14.130
28885SOL    HW288495   4.669   5.580  14.011
28886SOL     OW88496  12.880   6.761   4.350
28886SOL    HW188497  12.955   6.820   4.345
28886SOL    HW288498  12.815   6.809   4.402
28887SOL     OW88499   6.745   1.134   7.691
28887SOL    HW188500   6.786   1.102   7.772
28887SOL    HW288501   6.811   1.190   7.651
28888SOL     OW88502   8.017   8.409  12.472
28888SOL    HW188503   7.981   8.320  12.465
28888SOL    HW288504   7.951   8.457  12.523
28889SOL     OW88505  12.228   7.725   6.353
28889SOL    HW188506  12.167   7.744   6.282
28889SOL    HW288507  12.171   7.700   6.426
28890SOL     OW88508   0.143   2.580   9.598
28890SOL    HW188509   0.169   2.665   9.564
28890SOL    HW288510   0.125   2.596   9.691
28891SOL     OW88511   2.580   1.027   8.381
28891SOL    HW188512   2.529   0.973   8.442
28891SOL    HW288513   2.531   1.108   8.373
28892SOL     OW88514   2.063   0.959   1.975
28892SOL    HW188515   2.144   0.919   2.007
28892SOL    HW288516   2.062   1.046   2.016
28893SOL     OW88517   5.457   4.986   2.439
28893SOL    HW188518   5.466   4.904   2.390
28893SOL    HW288519   5.545   5.003   2.474
28894SOL     OW88520  10.470  10.537   6.190
28894SOL    HW188521  10.459  10.451   6.230
28894SOL    HW288522  10.411  10.537   6.115
28895SOL     OW88523  13.907   8.368   9.082
28895SOL    HW188524  13.915   8.433   9.012
28895SOL    HW288525  13.816   8.336   9.075
28896SOL     OW88526   9.617   7.084   9.545
28896SOL    HW188527   9.688   7.024   9.521
28896SOL    HW288528   9.570   7.099   9.463
28897SOL     OW88529  11.660   3.985   4.279
28897SOL    HW188530  11.609   4.062   4.306
28897SOL    HW288531  11.622   3.912   4.327
28898SOL     OW88532   2.588   8.623   0.112
28898SOL    HW188533   2.650   8.553   0.091
28898SOL    HW288534   2.519   8.614   0.046
28899SOL     OW88535   2.874   9.522  12.642
28899SOL    HW188536   2.791   9.570  12.633
28899SOL    HW288537   2.928   9.556  12.571
28900SOL     OW88538   8.082   3.396   7.324
28900SOL    HW188539   8.149   3.348   7.372
28900SOL    HW288540   8.097   3.375   7.232
28901SOL     OW88541  14.717   1.017   0.143
28901SOL    HW188542  14.742   1.027   0.235
28901SOL    HW288543  14.786   0.963   0.105
28902SOL     OW88544   5.397  11.634   8.869
28902SOL    HW188545   5.326  11.662   8.812
28902SOL    HW288546   5.378  11.676   8.953
28903SOL     OW88547  13.218   1.234  14.858
28903SOL    HW188548  13.149   1.288   0.016
28903SOL    HW288549  13.287   1.233   0.045
28904SOL     OW88550   7.132   2.087  12.025
28904SOL    HW188551   7.074   2.160  12.005
28904SOL    HW288552   7.198   2.088  11.955
28905SOL     OW88553   4.982   4.782   2.652
28905SOL    HW188554   4.994   4.708   2.711
28905SOL    HW288555   4.990   4.746   2.565
28906SOL     OW88556   0.697  14.518  13.629
28906SOL    HW188557   0.710  14.577  13.555
28906SOL    HW288558   0.783  14.512  13.670
28907SOL     OW88559  10.864   9.826   7.047
28907SOL    HW188560  10.900   9.746   7.085
28907SOL    HW288561  10.935   9.862   6.995
28908SOL     OW88562   8.229   0.409  14.414
28908SOL    HW188563   8.208   0.364  14.333
28908SOL    HW288564   8.311   0.456  14.395
28909SOL     OW88565   1.078  10.026   7.696
28909SOL    HW188566   1.037   9.953   7.742
28909SOL    HW288567   1.168  10.028   7.727
28910SOL     OW88568   6.569   0.162   5.053
28910SOL    HW188569   6.477   0.184   5.069
28910SOL    HW288570   6.616   0.246   5.061
28911SOL     OW88571  10.363   0.770   0.351
28911SOL    HW188572  10.301   0.717   0.301
28911SOL    HW288573  10.329   0.860   0.342
28912SOL     OW88574   5.502   4.015  12.595
28912SOL    HW188575   5.472   3.932  12.634
28912SOL    HW288576   5.542   4.062  12.669
28913SOL     OW88577   6.048   3.518  13.326
28913SOL    HW188578   6.099   3.453  13.276
28913SOL    HW288579   6.110   3.551  13.392
28914SOL     OW88580   4.368   0.382  10.624
28914SOL    HW188581   4.366   0.384  10.720
28914SOL    HW288582   4.399   0.469  10.599
28915SOL     OW88583  11.029  12.627   8.299
28915SOL    HW188584  11.002  12.684   8.371
28915SOL    HW288585  11.078  12.684   8.240
28916SOL     OW88586  11.180  12.308   1.050
28916SOL    HW188587  11.168  12.252   0.974
28916SOL    HW288588  11.248  12.370   1.024
28917SOL     OW88589  13.517  12.754   5.273
28917SOL    HW188590  13.433  12.770   5.229
28917SOL    HW288591  13.494  12.697   5.347
28918SOL     OW88592   3.971   6.169  13.152
28918SOL    HW188593   4.060   6.148  13.178
28918SOL    HW288594   3.946   6.100  13.091
28919SOL     OW88595   6.846   3.523   3.778
28919SOL    HW188596   6.901   3.545   3.703
28919SOL    HW288597   6.900   3.465   3.832
28920SOL     OW88598  14.285   5.459   2.018
28920SOL    HW188599  14.247   5.372   2.012
28920SOL    HW288600  14.269   5.499   1.933
28921SOL     OW88601  12.926  12.208  13.445
28921SOL    HW188602  12.989  12.146  13.481
28921SOL    HW288603  12.842  12.162  13.448
28922SOL     OW88604   0.021   3.786   9.389
28922SOL    HW188605   0.002   3.794   9.483
28922SOL    HW288606  14.825   3.827   9.346
28923SOL     OW88607  11.589   2.765  13.239
28923SOL    HW188608  11.677   2.747  13.205
28923SOL    HW288609  11.530   2.742  13.166
28924SOL     OW88610   4.642  13.834   7.383
28924SOL    HW188611   4.599  13.876   7.309
28924SOL    HW288612   4.571  13.816   7.445
28925SOL     OW88613  13.000  11.967   9.958
28925SOL    HW188614  12.909  11.999   9.955
28925SOL    HW288615  12.999  11.888   9.904
28926SOL     OW88616   8.971   5.478   9.879
28926SOL    HW188617   9.043   5.435   9.923
28926SOL    HW288618   8.943   5.417   9.811
28927SOL     OW88619   1.078   7.538   4.308
28927SOL    HW188620   1.118   7.620   4.279
28927SOL    HW288621   0.993   7.563   4.343
28928SOL     OW88622   4.126   0.233   8.404
28928SOL    HW188623   4.031   0.242   8.403
28928SOL    HW288624   4.158   0.312   8.360
28929SOL     OW88625   4.189   2.388   8.205
28929SOL    HW188626   4.241   2.462   8.236
28929SOL    HW288627   4.173   2.406   8.113
28930SOL     OW88628  12.364   7.674  10.089
28930SOL    HW188629  12.343   7.707  10.176
28930SOL    HW288630  12.308   7.724  10.030
28931SOL     OW88631  12.967  10.165  10.754
28931SOL    HW188632  13.060  10.160  10.774
28931SOL    HW288633  12.962  10.153  10.659
28932SOL     OW88634   8.485  14.253   3.934
28932SOL    HW188635   8.481  14.242   4.029
28932SOL    HW288636   8.405  14.300   3.911
28933SOL     OW88637   8.000   8.042   0.681
28933SOL    HW188638   7.993   8.050   0.586
28933SOL    HW288639   8.016   7.949   0.697
28934SOL     OW88640   9.452  13.240  12.008
28934SOL    HW188641   9.356  13.239  12.012
28934SOL    HW288642   9.478  13.297  12.081
28935SOL     OW88643   5.308  11.640  14.189
28935SOL    HW188644   5.285  11.570  14.129
28935SOL    HW288645   5.229  11.654  14.242
28936SOL     OW88646  12.824   2.681  13.902
28936SOL    HW188647  12.854   2.603  13.948
28936SOL    HW288648  12.854   2.670  13.812
28937SOL     OW88649   5.928   1.716   2.584
28937SOL    HW188650   5.960   1.633   2.548
28937SOL    HW288651   5.847   1.732   2.535
28938SOL     OW88652   0.251   8.136  11.433
28938SOL    HW188653   0.226   8.183  11.353
28938SOL    HW288654   0.347   8.145  11.436
28939SOL     OW88655   9.376   1.327   2.228
28939SOL    HW188656   9.372   1.383   2.150
28939SOL    HW288657   9.401   1.387   2.299
28940SOL     OW88658  13.529   3.821   3.167
28940SOL    HW188659  13.472   3.802   3.094
28940SOL    HW288660  13.520   3.915   3.182
28941SOL     OW88661  13.058  11.033   7.299
28941SOL    HW188662  13.040  11.126   7.289
28941SOL    HW288663  13.009  11.007   7.377
28942SOL     OW88664   4.269   7.352  10.190
28942SOL    HW188665   4.230   7.439  10.181
28942SOL    HW288666   4.331   7.347  10.117
28943SOL     OW88667   8.763   0.858   2.533
28943SOL    HW188668   8.676   0.882   2.566
28943SOL    HW288669   8.811   0.941   2.530
28944SOL     OW88670   2.680   1.279  10.388
28944SOL    HW188671   2.770   1.271  10.358
28944SOL    HW288672   2.666   1.373  10.400
28945SOL     OW88673   3.280  10.195  14.502
28945SOL    HW188674   3.186  10.206  14.489
28945SOL    HW288675   3.305  10.270  14.558
28946SOL     OW88676  10.546   9.899  11.426
28946SOL    HW188677  10.479   9.948  11.378
28946SOL    HW288678  10.507   9.885  11.513
28947SOL     OW88679   8.878   5.164  12.084
28947SOL    HW188680   8.849   5.109  12.012
28947SOL    HW288681   8.936   5.229  12.044
28948SOL     OW88682  13.167   7.453  12.393
28948SOL    HW188683  13.087   7.416  12.428
28948SOL    HW288684  13.233   7.437  12.461
28949SOL     OW88685   8.180   4.456   7.999
28949SOL    HW188686   8.195   4.506   8.079
28949SOL    HW288687   8.121   4.386   8.025
28950SOL     OW88688   6.925   4.607  10.444
28950SOL    HW188689   6.891   4.521  10.470
28950SOL    HW288690   7.015   4.607  10.476
28951SOL     OW88691   8.086   8.523   3.600
28951SOL    HW188692   7.994   8.546   3.588
28951SOL    HW288693   8.126   8.601   3.639
28952SOL     OW88694   1.066  10.317   9.576
28952SOL    HW188695   1.076  10.410   9.556
28952SOL    HW288696   1.000  10.285   9.515
28953SOL     OW88697   5.183   5.328  12.117
28953SOL    HW188698   5.165   5.416  12.084
28953SOL    HW288699   5.274   5.332  12.147
28954SOL     OW88700  14.283  12.862   4.175
28954SOL    HW188701  14.371  12.872   4.211
28954SOL    HW288702  14.227  12.911   4.235
28955SOL     OW88703   2.965   3.055   2.952
28955SOL    HW188704   3.010   2.975   2.924
28955SOL    HW288705   2.952   3.043   3.046
28956SOL     OW88706  14.451  10.452  10.220
28956SOL    HW188707  14.523  10.435  10.159
28956SOL    HW288708  14.372  10.429  10.171
28957SOL     OW88709   4.118  13.829   7.958
28957SOL    HW188710   4.067  13.748   7.959
28957SOL    HW288711   4.065  13.891   8.010
28958SOL     OW88712   9.953  11.188   8.575
28958SOL    HW188713   9.980  11.099   8.596
28958SOL    HW288714  10.035  11.235   8.559
28959SOL     OW88715   9.380   2.834  13.164
28959SOL    HW188716   9.311   2.892  13.131
28959SOL    HW288717   9.348   2.805  13.249
28960SOL     OW88718   8.017  12.131   0.269
28960SOL    HW188719   8.013  12.047   0.316
28960SOL    HW288720   7.994  12.109   0.179
28961SOL     OW88721   6.660  14.866   7.550
28961SOL    HW188722   6.747  14.832   7.530
28961SOL    HW288723   6.677   0.069   7.596
28962SOL     OW88724  11.992   0.719   7.171
28962SOL    HW188725  12.073   0.752   7.209
28962SOL    HW288726  11.993   0.753   7.081
28963SOL     OW88727   2.987  11.505   4.327
28963SOL    HW188728   2.894  11.488   4.316
28963SOL    HW288729   2.992  11.595   4.359
28964SOL     OW88730   5.390  10.885   3.046
28964SOL    HW188731   5.342  10.824   2.991
28964SOL    HW288732   5.348  10.879   3.132
28965SOL     OW88733   5.601  13.989   9.039
28965SOL    HW188734   5.631  13.916   8.984
28965SOL    HW288735   5.663  13.993   9.111
28966SOL     OW88736  13.746  11.167   9.059
28966SOL    HW188737  13.806  11.093   9.061
28966SOL    HW288738  13.696  11.156   8.978
28967SOL     OW88739   2.662   8.891   3.301
28967SOL    HW188740   2.640   8.982   3.321
28967SOL    HW288741   2.692   8.893   3.210
28968SOL     OW88742   3.980   1.548   7.632
28968SOL    HW188743   3.917   1.615   7.657
28968SOL    HW288744   3.927   1.477   7.598
28969SOL     OW88745  14.371   6.438  12.606
28969SOL    HW188746  14.347   6.525  12.575
28969SOL    HW288747  14.379   6.386  12.526
28970SOL     OW88748   4.602   9.911  14.043
28970SOL    HW188749   4.587   9.914  14.138
28970SOL    HW288750   4.531   9.857  14.009
28971SOL     OW88751   1.000  11.203  10.418
28971SOL    HW188752   0.998  11.113  10.387
28971SOL    HW288753   1.087  11.235  10.396
28972SOL     OW88754   0.555  11.350  12.945
28972SOL    HW188755   0.522  11.399  12.869
28972SOL    HW288756   0.478  11.339  13.001
28973SOL     OW88757  13.395  12.055   1.472
28973SOL    HW188758  13.340  12.036   1.396
28973SOL    HW288759  13.371  12.143   1.498
28974SOL     OW88760   8.968   4.205   9.205
28974SOL    HW188761   9.038   4.270   9.201
28974SOL    HW288762   8.911   4.227   9.132
28975SOL     OW88763   3.788   3.150   7.134
28975SOL    HW188764   3.860   3.174   7.076
28975SOL    HW288765   3.793   3.055   7.140
28976SOL     OW88766  13.447   1.078  10.707
28976SOL    HW188767  13.532   1.042  10.682
28976SOL    HW288768  13.387   1.003  10.702
28977SOL     OW88769  14.854   3.963  10.361
28977SOL    HW188770  14.775   3.922  10.396
28977SOL    HW288771   0.005   3.902  10.293
28978SOL     OW88772   2.860   7.563   9.018
28978SOL    HW188773   2.796   7.635   9.023
28978SOL    HW288774   2.944   7.605   9.036
28979SOL     OW88775   3.061  13.883   0.570
28979SOL    HW188776   3.124  13.810   0.578
28979SOL    HW288777   3.088  13.929   0.491
28980SOL     OW88778   4.502   5.570   7.195
28980SOL    HW188779   4.565   5.631   7.232
28980SOL    HW288780   4.548   5.529   7.122
28981SOL     OW88781  13.482   1.169   8.096
28981SOL    HW188782  13.557   1.216   8.059
28981SOL    HW288783  13.491   1.079   8.063
28982SOL     OW88784  10.394  12.206   5.311
28982SOL    HW188785  10.403  12.121   5.353
28982SOL    HW288786  10.387  12.186   5.218
28983SOL     OW88787   1.957  14.144   3.233
28983SOL    HW188788   1.923  14.089   3.304
28983SOL    HW288789   1.989  14.223   3.278
28984SOL     OW88790  13.932  10.644   3.839
28984SOL    HW188791  14.010  10.695   3.818
28984SOL    HW288792  13.889  10.694   3.908
28985SOL     OW88793   7.631   6.641  10.707
28985SOL    HW188794   7.556   6.639  10.648
28985SOL    HW288795   7.634   6.731  10.740
28986SOL     OW88796   7.718  13.583  12.481
28986SOL    HW188797   7.768  13.503  12.470
28986SOL    HW288798   7.713  13.621  12.393
28987SOL     OW88799   8.555  14.605   8.677
28987SOL    HW188800   8.537  14.551   8.600
28987SOL    HW288801   8.489  14.577   8.741
28988SOL     OW88802  11.500   6.211  12.723
28988SOL    HW188803  11.529   6.235  12.635
28988SOL    HW288804  11.410   6.243  12.728
28989SOL     OW88805   7.330   8.436   0.601
28989SOL    HW188806   7.351   8.529   0.604
28989SOL    HW288807   7.384   8.401   0.531
28990SOL     OW88808  14.787   8.034  14.185
28990SOL    HW188809  14.823   8.101  14.243
28990SOL    HW288810  14.693   8.037  14.200
28991SOL     OW88811  12.964  10.017   6.511
28991SOL    HW188812  12.962  10.000   6.417
28991SOL    HW288813  12.882  10.063   6.529
28992SOL     OW88814  10.638   6.958   9.839
28992SOL    HW188815  10.720   6.985   9.799
28992SOL    HW288816  10.663   6.894   9.905
28993SOL     OW88817   4.299   4.749   8.900
28993SOL    HW188818   4.241   4.790   8.964
28993SOL    HW288819   4.290   4.804   8.822
28994SOL     OW88820  10.358   3.568  11.701
28994SOL    HW188821  10.331   3.628  11.771
28994SOL    HW288822  10.351   3.481  11.739
28995SOL     OW88823   0.001   3.011   7.843
28995SOL    HW188824  14.879   3.105   7.826
28995SOL    HW288825  14.796   2.993   7.884
28996SOL     OW88826   9.135   5.811   7.632
28996SOL    HW188827   9.162   5.834   7.721
28996SOL    HW288828   9.073   5.879   7.608
28997SOL     OW88829   4.741   1.254   6.169
28997SOL    HW188830   4.679   1.209   6.111
28997SOL    HW288831   4.719   1.224   6.257
28998SOL     OW88832   7.260  13.663   0.412
28998SOL    HW188833   7.174  13.705   0.418
28998SOL    HW288834   7.243  13.571   0.435
28999SOL     OW88835  10.997  14.476   3.941
28999SOL    HW188836  10.921  14.422   3.918
28999SOL    HW288837  11.072  14.425   3.912
29000SOL     OW88838   6.892   0.636   1.689
29000SOL    HW188839   6.926   0.576   1.756
29000SOL    HW288840   6.960   0.703   1.679
29001SOL     OW88841  10.298   1.885   7.137
29001SOL    HW188842  10.272   1.796   7.162
29001SOL    HW288843  10.368   1.872   7.073
29002SOL     OW88844  14.506   0.199   8.989
29002SOL    HW188845  14.466   0.112   8.999
29002SOL    HW288846  14.439   0.260   9.018
29003SOL     OW88847   8.274  14.102   8.081
29003SOL    HW188848   8.341  14.071   8.019
29003SOL    HW288849   8.200  14.126   8.026
29004SOL     OW88850   3.094  12.458   3.845
29004SOL    HW188851   3.078  12.415   3.761
29004SOL    HW288852   3.175  12.507   3.832
29005SOL     OW88853   6.700   0.904  10.326
29005SOL    HW188854   6.678   0.991  10.295
29005SOL    HW288855   6.646   0.845  10.274
29006SOL     OW88856  13.403   9.376   2.332
29006SOL    HW188857  13.475   9.417   2.379
29006SOL    HW288858  13.417   9.400   2.240
29007SOL     OW88859   8.992   3.728   9.719
29007SOL    HW188860   8.906   3.688   9.731
29007SOL    HW288861   9.018   3.756   9.807
29008SOL     OW88862  11.544  12.277  14.021
29008SOL    HW188863  11.603  12.308  14.089
29008SOL    HW288864  11.542  12.182  14.032
29009SOL     OW88865  12.722   8.080   2.925
29009SOL    HW188866  12.794   8.061   2.985
29009SOL    HW288867  12.764   8.128   2.853
29010SOL     OW88868   0.916   7.800   9.144
29010SOL    HW188869   0.915   7.885   9.099
29010SOL    HW288870   0.930   7.736   9.075
29011SOL     OW88871   1.115   7.559  12.780
29011SOL    HW188872   1.193   7.534  12.731
29011SOL    HW288873   1.067   7.478  12.793
29012SOL     OW88874   5.602   7.183   5.021
29012SOL    HW188875   5.561   7.097   5.014
29012SOL    HW288876   5.548   7.230   5.084
29013SOL     OW88877  11.991   0.887  14.755
29013SOL    HW188878  11.989   0.828  14.830
29013SOL    HW288879  11.967   0.832  14.680
29014SOL     OW88880  11.958  10.340   7.878
29014SOL    HW188881  12.031  10.323   7.819
29014SOL    HW288882  11.973  10.429   7.910
29015SOL     OW88883   8.443   7.329   9.234
29015SOL    HW188884   8.403   7.322   9.147
29015SOL    HW288885   8.386   7.388   9.283
29016SOL     OW88886   6.921   1.580   6.395
29016SOL    HW188887   6.855   1.581   6.464
29016SOL    HW288888   6.959   1.668   6.397
29017SOL     OW88889   1.940   3.793  11.279
29017SOL    HW188890   1.958   3.883  11.253
29017SOL    HW288891   1.844   3.786  11.276
29018SOL     OW88892   6.117   9.367   5.464
29018SOL    HW188893   6.178   9.400   5.530
29018SOL    HW288894   6.104   9.275   5.487
29019SOL     OW88895   4.541   4.902   5.444
29019SOL    HW188896   4.543   4.997   5.434
29019SOL    HW288897   4.476   4.872   5.380
29020SOL     OW88898   5.952   0.820   7.513
29020SOL    HW188899   5.969   0.867   7.595
29020SOL    HW288900   6.016   0.855   7.451
29021SOL     OW88901   9.873   7.105   2.701
29021SOL    HW188902   9.795   7.147   2.738
29021SOL    HW288903   9.944   7.131   2.760
29022SOL     OW88904   4.070  10.179  10.051
29022SOL    HW188905   4.012  10.104  10.039
29022SOL    HW288906   4.058  10.203  10.143
29023SOL     OW88907   5.127  12.792  14.636
29023SOL    HW188908   5.082  12.730  14.578
29023SOL    HW288909   5.145  12.868  14.581
29024SOL     OW88910  12.692  13.824   1.681
29024SOL    HW188911  12.769  13.879   1.668
29024SOL    HW288912  12.656  13.811   1.594
29025SOL     OW88913   4.679   3.918   4.169
29025SOL    HW188914   4.694   3.915   4.075
29025SOL    HW288915   4.731   3.991   4.200
29026SOL     OW88916   7.153   8.386   3.723
29026SOL    HW188917   7.170   8.325   3.794
29026SOL    HW288918   7.166   8.473   3.761
29027SOL     OW88919   4.786   2.623  14.583
29027SOL    HW188920   4.801   2.561  14.654
29027SOL    HW288921   4.737   2.573  14.518
29028SOL     OW88922   2.155   6.067   8.673
29028SOL    HW188923   2.127   6.063   8.764
29028SOL    HW288924   2.074   6.076   8.623
29029SOL     OW88925   9.134  14.184  11.454
29029SOL    HW188926   9.059  14.208  11.509
29029SOL    HW288927   9.183  14.265  11.445
29030SOL     OW88928  10.051   3.195  12.063
29030SOL    HW188929  10.046   3.127  11.996
29030SOL    HW288930  10.049   3.277  12.013
29031SOL     OW88931  10.218  10.992   9.114
29031SOL    HW188932  10.137  10.972   9.161
29031SOL    HW288933  10.198  10.972   9.022
29032SOL     OW88934  11.745   1.172  14.469
29032SOL    HW188935  11.650   1.186  14.465
29032SOL    HW288936  11.761   1.143  14.559
29033SOL     OW88937   9.107   3.466  12.103
29033SOL    HW188938   9.202   3.460  12.095
29033SOL    HW288939   9.085   3.407  12.175
29034SOL     OW88940   3.159   0.005   7.802
29034SOL    HW188941   3.071   0.042   7.811
29034SOL    HW288942   3.149  14.817   7.735
29035SOL     OW88943  11.595  12.610   1.790
29035SOL    HW188944  11.506  12.584   1.815
29035SOL    HW288945  11.602  12.584   1.698
29036SOL     OW88946   5.833   6.891   0.782
29036SOL    HW188947   5.794   6.821   0.729
29036SOL    HW288948   5.803   6.972   0.741
29037SOL     OW88949   8.622   7.798   3.277
29037SOL    HW188950   8.680   7.852   3.330
29037SOL    HW288951   8.678   7.729   3.242
29038SOL     OW88952   4.702   5.594   1.924
29038SOL    HW188953   4.682   5.673   1.973
29038SOL    HW288954   4.788   5.566   1.957
29039SOL     OW88955  14.126   2.012   5.679
29039SOL    HW188956  14.082   2.035   5.597
29039SOL    HW288957  14.209   1.972   5.651
29040SOL     OW88958   4.401   5.431  12.860
29040SOL    HW188959   4.353   5.485  12.797
29040SOL    HW288960   4.462   5.492  12.902
29041SOL     OW88961   8.274   4.202   9.556
29041SOL    HW188962   8.199   4.150   9.527
29041SOL    HW288963   8.304   4.248   9.478
29042SOL     OW88964   3.135   5.696   6.718
29042SOL    HW188965   3.181   5.618   6.749
29042SOL    HW288966   3.099   5.670   6.633
29043SOL     OW88967   5.256   2.707   3.459
29043SOL    HW188968   5.332   2.718   3.516
29043SOL    HW288969   5.184   2.685   3.518
29044SOL     OW88970   7.059  14.551   3.962
29044SOL    HW188971   7.071  14.645   3.974
29044SOL    HW288972   7.073  14.513   4.049
29045SOL     OW88973   8.199   5.980   6.516
29045SOL    HW188974   8.288   6.007   6.497
29045SOL    HW288975   8.145   6.055   6.490
29046SOL     OW88976   3.286   9.689   6.022
29046SOL    HW188977   3.321   9.762   6.073
29046SOL    HW288978   3.253   9.729   5.942
29047SOL     OW88979  12.426  12.461   1.620
29047SOL    HW188980  12.356  12.467   1.686
29047SOL    HW288981  12.500  12.424   1.668
29048SOL     OW88982   3.480   3.235   1.619
29048SOL    HW188983   3.432   3.260   1.698
29048SOL    HW288984   3.436   3.281   1.548
29049SOL     OW88985   7.998  14.305   5.903
29049SOL    HW188986   8.073  14.302   5.963
29049SOL    HW288987   7.929  14.349   5.952
29050SOL     OW88988  13.919   3.282  12.220
29050SOL    HW188989  13.832   3.273  12.181
29050SOL    HW288990  13.922   3.216  12.289
29051SOL     OW88991   8.031  10.838   0.878
29051SOL    HW188992   8.112  10.848   0.928
29051SOL    HW288993   8.059  10.805   0.793
29052SOL     OW88994   4.249   3.847   5.555
29052SOL    HW188995   4.161   3.881   5.534
29052SOL    HW288996   4.290   3.918   5.604
29053SOL     OW88997  12.640   6.446   4.554
29053SOL    HW188998  12.588   6.369   4.532
29053SOL    HW288999  12.730   6.421   4.534
29054SOL     OW89000  14.845  10.760  10.759
29054SOL    HW189001  14.780  10.738  10.826
29054SOL    HW289002  14.868  10.851  10.777
29055SOL     OW89003  13.327   4.053   9.122
29055SOL    HW189004  13.322   3.978   9.182
29055SOL    HW289005  13.416   4.086   9.132
29056SOL     OW89006   0.257   1.347   4.415
29056SOL    HW189007   0.262   1.365   4.321
29056SOL    HW289008   0.183   1.400   4.445
29057SOL     OW89009  13.962   9.927   5.156
29057SOL    HW189010  14.009   9.860   5.206
29057SOL    HW289011  14.000  10.010   5.186
29058SOL     OW89012   9.743   9.013   5.360
29058SOL    HW189013   9.667   9.059   5.324
29058SOL    HW289014   9.726   8.920   5.344
29059SOL     OW89015   9.981   5.797  12.420
29059SOL    HW189016   9.998   5.708  12.390
29059SOL    HW289017  10.067   5.839  12.421
29060SOL     OW89018   9.428   1.375   1.018
29060SOL    HW189019   9.400   1.422   0.939
29060SOL    HW289020   9.491   1.310   0.986
29061SOL     OW89021   3.654   3.300   1.836
29061SOL    HW189022   3.726   3.347   1.792
29061SOL    HW289023   3.575   3.338   1.799
29062SOL     OW89024  14.844  13.027   9.808
29062SOL    HW189025  14.865  13.067   9.893
29062SOL    HW289026  14.769  13.077   9.776
29063SOL     OW89027   8.876   7.739   7.024
29063SOL    HW189028   8.929   7.741   6.944
29063SOL    HW289029   8.939   7.717   7.093
29064SOL     OW89030   1.731  11.308   7.309
29064SOL    HW189031   1.704  11.349   7.391
29064SOL    HW289032   1.730  11.214   7.327
29065SOL     OW89033   2.946   1.355  10.749
29065SOL    HW189034   2.899   1.290  10.802
29065SOL    HW289035   2.987   1.304  10.679
29066SOL     OW89036   3.821   0.621   2.511
29066SOL    HW189037   3.913   0.643   2.519
29066SOL    HW289038   3.817   0.527   2.530
29067SOL     OW89039   9.605  12.309   0.619
29067SOL    HW189040   9.677  12.348   0.571
29067SOL    HW289041   9.638  12.300   0.708
29068SOL     OW89042  12.090  14.621  13.695
29068SOL    HW189043  12.056  14.557  13.633
29068SOL    HW289044  12.107  14.700  13.643
29069SOL     OW89045   8.087  14.022   5.967
29069SOL    HW189046   8.154  13.978   5.916
29069SOL    HW289047   8.133  14.095   6.010
29070SOL     OW89048   3.547   9.563   0.606
29070SOL    HW189049   3.471   9.620   0.590
29070SOL    HW289050   3.514   9.475   0.591
29071SOL     OW89051  10.239   8.317   2.478
29071SOL    HW189052  10.198   8.232   2.460
29071SOL    HW289053  10.281   8.341   2.395
29072SOL     OW89054   1.897   5.672   5.711
29072SOL    HW189055   1.848   5.694   5.791
29072SOL    HW289056   1.844   5.605   5.668
29073SOL     OW89057   5.200   4.158   7.498
29073SOL    HW189058   5.127   4.219   7.489
29073SOL    HW289059   5.240   4.156   7.411
29074SOL     OW89060  12.006  11.218   7.142
29074SOL    HW189061  12.051  11.149   7.190
29074SOL    HW289062  11.914  11.209   7.169
29075SOL     OW89063  11.120   0.772  10.750
29075SOL    HW189064  11.141   0.802  10.662
29075SOL    HW289065  11.113   0.677  10.742
29076SOL     OW89066   2.513   3.683   9.257
29076SOL    HW189067   2.500   3.622   9.184
29076SOL    HW289068   2.544   3.763   9.215
29077SOL     OW89069   2.367   9.037   0.594
29077SOL    HW189070   2.395   8.958   0.641
29077SOL    HW289071   2.449   9.082   0.575
29078SOL     OW89072   1.944   9.872   9.589
29078SOL    HW189073   2.015   9.935   9.601
29078SOL    HW289074   1.985   9.787   9.604
29079SOL     OW89075  13.733   3.430   7.735
29079SOL    HW189076  13.731   3.493   7.663
29079SOL    HW289077  13.729   3.345   7.692
29080SOL     OW89078   2.574   9.528  13.511
29080SOL    HW189079   2.583   9.434  13.493
29080SOL    HW289080   2.641   9.569  13.456
29081SOL     OW89081   8.446   5.181   6.316
29081SOL    HW189082   8.373   5.121   6.306
29081SOL    HW289083   8.409   5.268   6.301
29082SOL     OW89084  14.699   6.174   0.717
29082SOL    HW189085  14.605   6.190   0.725
29082SOL    HW289086  14.718   6.109   0.785
29083SOL     OW89087   3.554  11.960   7.225
29083SOL    HW189088   3.561  12.014   7.304
29083SOL    HW289089   3.627  11.988   7.170
29084SOL     OW89090   9.527   9.648   7.562
29084SOL    HW189091   9.571   9.573   7.602
29084SOL    HW289092   9.556   9.646   7.470
29085SOL     OW89093   0.152   1.147   9.100
29085SOL    HW189094   0.190   1.185   9.020
29085SOL    HW289095   0.189   1.059   9.103
29086SOL     OW89096  10.237  10.052  11.481
29086SOL    HW189097  10.145  10.043  11.507
29086SOL    HW289098  10.233  10.072  11.387
29087SOL     OW89099  14.494  11.305   3.846
29087SOL    HW189100  14.545  11.386   3.840
29087SOL    HW289101  14.477  11.280   3.756
29088SOL     OW89102   9.405   5.359   8.212
29088SOL    HW189103   9.371   5.295   8.275
29088SOL    HW289104   9.465   5.310   8.157
29089SOL     OW89105   9.086  12.376   6.595
29089SOL    HW189106   9.166  12.324   6.603
29089SOL    HW289107   9.045  12.346   6.514
29090SOL     OW89108   6.968  14.608  13.891
29090SOL    HW189109   7.012  14.688  13.922
29090SOL    HW289110   6.878  14.635  13.875
29091SOL     OW89111   3.612   6.223   0.142
29091SOL    HW189112   3.562   6.242   0.222
29091SOL    HW289113   3.560   6.262   0.072
29092SOL     OW89114  10.302   4.555   6.473
29092SOL    HW189115  10.375   4.555   6.534
29092SOL    HW289116  10.251   4.633   6.496
29093SOL     OW89117   6.452   4.684  13.170
29093SOL    HW189118   6.359   4.685  13.192
29093SOL    HW289119   6.497   4.688  13.254
29094SOL     OW89120  11.457  10.695  10.446
29094SOL    HW189121  11.545  10.729  10.427
29094SOL    HW289122  11.404  10.772  10.465
29095SOL     OW89123   9.019   2.416   8.708
29095SOL    HW189124   9.035   2.491   8.766
29095SOL    HW289125   8.937   2.378   8.739
29096SOL     OW89126  11.639   7.536   7.631
29096SOL    HW189127  11.635   7.440   7.630
29096SOL    HW289128  11.561   7.564   7.583
29097SOL     OW89129   0.492   5.988  14.650
29097SOL    HW189130   0.419   5.936  14.685
29097SOL    HW289131   0.498   6.063  14.710
29098SOL     OW89132   7.882   4.313  10.307
29098SOL    HW189133   7.810   4.355  10.353
29098SOL    HW289134   7.933   4.386  10.271
29099SOL     OW89135   0.947   9.338  14.334
29099SOL    HW189136   0.934   9.418  14.283
29099SOL    HW289137   0.969   9.369  14.422
29100SOL     OW89138  14.219  10.803   9.234
29100SOL    HW189139  14.206  10.708   9.242
29100SOL    HW289140  14.238  10.831   9.324
29101SOL     OW89141   6.665  12.154  13.692
29101SOL    HW189142   6.619  12.135  13.610
29101SOL    HW289143   6.685  12.068  13.729
29102SOL     OW89144  11.803   8.491   5.568
29102SOL    HW189145  11.819   8.550   5.641
29102SOL    HW289146  11.825   8.404   5.601
29103SOL     OW89147  11.310   8.744   7.362
29103SOL    HW189148  11.301   8.839   7.363
29103SOL    HW289149  11.235   8.713   7.310
29104SOL     OW89150  13.420   1.163  14.071
29104SOL    HW189151  13.414   1.232  14.136
29104SOL    HW289152  13.337   1.115  14.079
29105SOL     OW89153  11.869   0.877   6.440
29105SOL    HW189154  11.917   0.827   6.374
29105SOL    HW289155  11.932   0.941   6.474
29106SOL     OW89156   8.130  11.097   5.241
29106SOL    HW189157   8.110  11.017   5.192
29106SOL    HW289158   8.068  11.161   5.208
29107SOL     OW89159   2.295   6.913  14.592
29107SOL    HW189160   2.277   6.859  14.516
29107SOL    HW289161   2.390   6.914  14.600
29108SOL     OW89162   8.554  14.560   4.934
29108SOL    HW189163   8.533  14.602   5.017
29108SOL    HW289164   8.542  14.629   4.869
29109SOL     OW89165  14.070   7.171  10.272
29109SOL    HW189166  14.114   7.235  10.329
29109SOL    HW289167  13.980   7.202  10.264
29110SOL     OW89168  12.383   8.567  13.131
29110SOL    HW189169  12.345   8.652  13.155
29110SOL    HW289170  12.351   8.552  13.042
29111SOL     OW89171  12.615   5.601   6.443
29111SOL    HW189172  12.522   5.619   6.452
29111SOL    HW289173  12.657   5.686   6.461
29112SOL     OW89174   4.117   4.777   0.148
29112SOL    HW189175   4.124   4.872   0.153
29112SOL    HW289176   4.028   4.761   0.116
29113SOL     OW89177   5.144   7.008   7.572
29113SOL    HW189178   5.173   7.018   7.481
29113SOL    HW289179   5.184   7.082   7.618
29114SOL     OW89180   1.297   7.097   7.467
29114SOL    HW189181   1.284   7.181   7.510
29114SOL    HW289182   1.272   7.112   7.376
29115SOL     OW89183   4.294   9.480   2.052
29115SOL    HW189184   4.239   9.402   2.062
29115SOL    HW289185   4.347   9.463   1.974
29116SOL     OW89186   0.657   2.065   6.137
29116SOL    HW189187   0.684   2.015   6.214
29116SOL    HW289188   0.715   2.142   6.137
29117SOL     OW89189  14.714  13.797  10.833
29117SOL    HW189190  14.781  13.801  10.765
29117SOL    HW289191  14.732  13.714  10.879
29118SOL     OW89192  11.103  12.127   8.866
29118SOL    HW189193  11.094  12.206   8.920
29118SOL    HW289194  11.197  12.119   8.852
29119SOL     OW89195   2.027  11.319   7.622
29119SOL    HW189196   2.066  11.300   7.537
29119SOL    HW289197   2.027  11.235   7.668
29120SOL     OW89198   5.867   6.275   4.885
29120SOL    HW189199   5.903   6.225   4.812
29120SOL    HW289200   5.799   6.330   4.845
29121SOL     OW89201   5.444  14.736   4.420
29121SOL    HW189202   5.378  14.746   4.489
29121SOL    HW289203   5.395  14.705   4.344
29122SOL     OW89204  12.227   9.031   4.711
29122SOL    HW189205  12.163   9.030   4.782
29122SOL    HW289206  12.189   8.975   4.643
29123SOL     OW89207   5.613   1.375   2.088
29123SOL    HW189208   5.676   1.303   2.099
29123SOL    HW289209   5.528   1.335   2.105
29124SOL     OW89210   8.082   1.000  10.858
29124SOL    HW189211   8.142   0.977  10.929
29124SOL    HW289212   8.044   1.083  10.885
29125SOL     OW89213   0.219   2.719  10.896
29125SOL    HW189214   0.270   2.644  10.926
29125SOL    HW289215   0.130   2.702  10.927
29126SOL     OW89216  12.694  13.404  12.253
29126SOL    HW189217  12.743  13.357  12.186
29126SOL    HW289218  12.607  13.417  12.213
29127SOL     OW89219  14.334   3.156  11.734
29127SOL    HW189220  14.397   3.085  11.718
29127SOL    HW289221  14.279   3.158  11.656
29128SOL     OW89222   3.426  13.299  12.030
29128SOL    HW189223   3.426  13.208  12.061
29128SOL    HW289224   3.449  13.293  11.938
29129SOL     OW89225   9.224   7.521  14.840
29129SOL    HW189226   9.183   7.566   0.035
29129SOL    HW289227   9.318   7.527  14.857
29130SOL     OW89228  11.612  14.487   4.606
29130SOL    HW189229  11.567  14.457   4.527
29130SOL    HW289230  11.582  14.577   4.617
29131SOL     OW89231  10.350   9.518  11.728
29131SOL    HW189232  10.353   9.548  11.637
29131SOL    HW289233  10.388   9.430  11.725
29132SOL     OW89234  12.489  14.622  11.893
29132SOL    HW189235  12.450  14.703  11.859
29132SOL    HW289236  12.419  14.557  11.887
29133SOL     OW89237   5.351   0.144   6.498
29133SOL    HW189238   5.445   0.132   6.480
29133SOL    HW289239   5.339   0.111   6.587
29134SOL     OW89240  13.162   9.989   0.737
29134SOL    HW189241  13.211   9.936   0.675
29134SOL    HW289242  13.195  10.078   0.725
29135SOL     OW89243   9.481  13.967   4.470
29135SOL    HW189244   9.422  14.021   4.418
29135SOL    HW289245   9.496  13.890   4.415
29136SOL     OW89246  14.516   7.938  13.162
29136SOL    HW189247  14.519   7.848  13.196
29136SOL    HW289248  14.450   7.935  13.093
29137SOL     OW89249   9.666   6.503   8.929
29137SOL    HW189250   9.681   6.557   9.007
29137SOL    HW289251   9.754   6.492   8.891
29138SOL     OW89252  12.326  13.674  11.463
29138SOL    HW189253  12.384  13.746  11.439
29138SOL    HW289254  12.355  13.649  11.551
29139SOL     OW89255   5.875   3.117   5.156
29139SOL    HW189256   5.928   3.053   5.108
29139SOL    HW289257   5.849   3.071   5.236
29140SOL     OW89258   3.686  13.650  13.266
29140SOL    HW189259   3.749  13.692  13.324
29140SOL    HW289260   3.623  13.719  13.245
29141SOL     OW89261  13.316   9.159   6.352
29141SOL    HW189262  13.241   9.210   6.380
29141SOL    HW289263  13.351   9.121   6.432
29142SOL     OW89264   5.948  11.379   1.345
29142SOL    HW189265   5.907  11.373   1.259
29142SOL    HW289266   5.960  11.288   1.372
29143SOL     OW89267   8.681   5.639   3.270
29143SOL    HW189268   8.619   5.660   3.340
29143SOL    HW289269   8.625   5.628   3.192
29144SOL     OW89270  12.265  12.477  11.629
29144SOL    HW189271  12.210  12.461  11.706
29144SOL    HW289272  12.215  12.439  11.556
29145SOL     OW89273  10.480  10.512  12.165
29145SOL    HW189274  10.571  10.502  12.135
29145SOL    HW289275  10.428  10.475  12.093
29146SOL     OW89276   5.135   0.096  12.390
29146SOL    HW189277   5.142   0.102  12.485
29146SOL    HW289278   5.135   0.187  12.360
29147SOL     OW89279   8.180   1.650   6.491
29147SOL    HW189280   8.107   1.682   6.543
29147SOL    HW289281   8.250   1.634   6.555
29148SOL     OW89282   5.542  13.618  11.013
29148SOL    HW189283   5.492  13.652  11.087
29148SOL    HW289284   5.563  13.695  10.960
29149SOL     OW89285   2.725   2.720   3.637
29149SOL    HW189286   2.771   2.683   3.561
29149SOL    HW289287   2.639   2.745   3.602
29150SOL     OW89288   5.868  13.407  13.019
29150SOL    HW189289   5.833  13.435  12.934
29150SOL    HW289290   5.800  13.428  13.082
29151SOL     OW89291   9.719   8.096  11.490
29151SOL    HW189292   9.788   8.095  11.557
29151SOL    HW289293   9.692   8.004  11.483
29152SOL     OW89294   9.349   7.632   0.638
29152SOL    HW189295   9.272   7.648   0.693
29152SOL    HW289296   9.384   7.549   0.670
29153SOL     OW89297  14.783   5.636   5.664
29153SOL    HW189298  14.809   5.653   5.574
29153SOL    HW289299  14.688   5.630   5.661
29154SOL     OW89300   5.497   7.742   5.148
29154SOL    HW189301   5.528   7.668   5.096
29154SOL    HW289302   5.524   7.722   5.238
29155SOL     OW89303   1.951  10.419   8.556
29155SOL    HW189304   2.013  10.370   8.502
29155SOL    HW289305   1.969  10.511   8.536
29156SOL     OW89306   9.806   0.024   4.824
29156SOL    HW189307   9.821   0.107   4.870
29156SOL    HW289308   9.884   0.011   4.771
29157SOL     OW89309   2.559   7.962  11.814
29157SOL    HW189310   2.555   7.932  11.905
29157SOL    HW289311   2.471   7.945  11.780
29158SOL     OW89312   5.509   5.386  10.371
29158SOL    HW189313   5.476   5.418  10.287
29158SOL    HW289314   5.603   5.407  10.369
29159SOL     OW89315   4.503   9.969   0.332
29159SOL    HW189316   4.522   9.989   0.240
29159SOL    HW289317   4.414   9.935   0.331
29160SOL     OW89318  14.770  12.327  13.007
29160SOL    HW189319  14.687  12.376  13.007
29160SOL    HW289320  14.755  12.256  13.069
29161SOL     OW89321  11.943   3.344  14.557
29161SOL    HW189322  11.887   3.343  14.480
29161SOL    HW289323  11.913   3.420  14.607
29162SOL     OW89324  14.103   2.621   1.031
29162SOL    HW189325  14.021   2.663   1.058
29162SOL    HW289326  14.076   2.546   0.978
29163SOL     OW89327   6.582  13.788   2.292
29163SOL    HW189328   6.549  13.769   2.379
29163SOL    HW289329   6.644  13.717   2.274
29164SOL     OW89330   0.956   2.293   2.954
29164SOL    HW189331   0.886   2.343   2.997
29164SOL    HW289332   0.980   2.226   3.017
29165SOL     OW89333   0.889   9.698   5.897
29165SOL    HW189334   0.838   9.777   5.881
29165SOL    HW289335   0.939   9.718   5.976
29166SOL     OW89336   3.833   0.055   9.696
29166SOL    HW189337   3.798  14.845   9.691
29166SOL    HW289338   3.926   0.045   9.673
29167SOL     OW89339   8.471   9.950  12.553
29167SOL    HW189340   8.491   9.924  12.643
29167SOL    HW289341   8.410   9.884  12.522
29168SOL     OW89342   9.855  14.224   9.885
29168SOL    HW189343   9.902  14.228   9.802
29168SOL    HW289344   9.892  14.297   9.936
29169SOL     OW89345  14.050   8.873  11.473
29169SOL    HW189346  13.987   8.863  11.544
29169SOL    HW289347  14.110   8.941  11.504
29170SOL     OW89348  13.418   5.108  11.902
29170SOL    HW189349  13.378   5.046  11.840
29170SOL    HW289350  13.431   5.188  11.851
29171SOL     OW89351   4.726   2.669   7.499
29171SOL    HW189352   4.634   2.645   7.491
29171SOL    HW289353   4.732   2.713   7.584
29172SOL     OW89354   3.835   4.503  10.746
29172SOL    HW189355   3.908   4.513  10.808
29172SOL    HW289356   3.854   4.566  10.676
29173SOL     OW89357  13.745   4.391   0.597
29173SOL    HW189358  13.813   4.444   0.555
29173SOL    HW289359  13.676   4.384   0.531
29174SOL     OW89360   3.461   4.662   9.127
29174SOL    HW189361   3.457   4.621   9.041
29174SOL    HW289362   3.374   4.699   9.141
29175SOL     OW89363   3.167   1.503   6.869
29175SOL    HW189364   3.253   1.544   6.874
29175SOL    HW289365   3.108   1.565   6.913
29176SOL     OW89366  12.990   3.233   2.536
29176SOL    HW189367  13.044   3.312   2.535
29176SOL    HW289368  12.951   3.230   2.448
29177SOL     OW89369   0.360   5.642  13.051
29177SOL    HW189370   0.306   5.609  12.979
29177SOL    HW289371   0.301   5.699  13.101
29178SOL     OW89372  11.699   9.239  11.303
29178SOL    HW189373  11.684   9.232  11.397
29178SOL    HW289374  11.753   9.163  11.281
29179SOL     OW89375   3.580   9.726   6.854
29179SOL    HW189376   3.618   9.646   6.819
29179SOL    HW289377   3.581   9.714   6.949
29180SOL     OW89378   6.542   6.356   9.242
29180SOL    HW189379   6.521   6.429   9.184
29180SOL    HW289380   6.632   6.332   9.219
29181SOL     OW89381  11.457   8.891  12.114
29181SOL    HW189382  11.483   8.858  12.029
29181SOL    HW289383  11.473   8.986  12.109
29182SOL     OW89384   1.686   0.074   8.992
29182SOL    HW189385   1.674   0.082   8.897
29182SOL    HW289386   1.702  14.860   9.006
29183SOL     OW89387   6.137  12.153   7.315
29183SOL    HW189388   6.059  12.102   7.339
29183SOL    HW289389   6.113  12.196   7.234
29184SOL     OW89390   5.258   2.542   0.412
29184SOL    HW189391   5.270   2.447   0.415
29184SOL    HW289392   5.330   2.576   0.465
29185SOL     OW89393   5.664   1.950   8.364
29185SOL    HW189394   5.582   1.974   8.406
29185SOL    HW289395   5.638   1.895   8.290
29186SOL     OW89396   5.804  10.607   5.790
29186SOL    HW189397   5.794  10.527   5.739
29186SOL    HW289398   5.898  10.616   5.802
29187SOL     OW89399   3.996  12.931   8.615
29187SOL    HW189400   4.072  12.981   8.586
29187SOL    HW289401   4.025  12.839   8.609
29188SOL     OW89402   8.162  12.403   6.990
29188SOL    HW189403   8.092  12.456   6.952
29188SOL    HW289404   8.233  12.409   6.927
29189SOL     OW89405  10.942  11.991   7.688
29189SOL    HW189406  11.037  11.985   7.687
29189SOL    HW289407  10.920  12.008   7.779
29190SOL     OW89408   8.170   6.964   2.160
29190SOL    HW189409   8.246   6.922   2.121
29190SOL    HW289410   8.203   7.049   2.190
29191SOL     OW89411  11.283   4.858   4.396
29191SOL    HW189412  11.213   4.815   4.347
29191SOL    HW289413  11.361   4.846   4.342
29192SOL     OW89414   9.227   4.978  10.325
29192SOL    HW189415   9.147   4.928  10.312
29192SOL    HW289416   9.222   5.049  10.261
29193SOL     OW89417   9.302   9.979   5.711
29193SOL    HW189418   9.352   9.989   5.630
29193SOL    HW289419   9.332  10.052   5.766
29194SOL     OW89420   6.069  12.016  10.212
29194SOL    HW189421   6.126  12.060  10.149
29194SOL    HW289422   6.128  11.965  10.267
29195SOL     OW89423   1.210  13.562   7.091
29195SOL    HW189424   1.122  13.592   7.069
29195SOL    HW289425   1.250  13.543   7.006
29196SOL     OW89426   5.367   1.828   2.804
29196SOL    HW189427   5.337   1.755   2.750
29196SOL    HW289428   5.407   1.889   2.742
29197SOL     OW89429   4.666   9.606  13.900
29197SOL    HW189430   4.634   9.675  13.841
29197SOL    HW289431   4.591   9.549  13.913
29198SOL     OW89432  13.505   6.425  13.354
29198SOL    HW189433  13.511   6.406  13.260
29198SOL    HW289434  13.575   6.374  13.394
29199SOL     OW89435  12.807  13.694   7.304
29199SOL    HW189436  12.774  13.766   7.249
29199SOL    HW289437  12.729  13.645   7.329
29200SOL     OW89438   4.556   4.540  12.805
29200SOL    HW189439   4.518   4.507  12.887
29200SOL    HW289440   4.646   4.505  12.805
29201SOL     OW89441  11.392   9.591   9.492
29201SOL    HW189442  11.451   9.667   9.492
29201SOL    HW289443  11.322   9.616   9.431
29202SOL     OW89444   3.988   3.785   0.413
29202SOL    HW189445   4.065   3.783   0.356
29202SOL    HW289446   3.921   3.738   0.364
29203SOL     OW89447   2.084   9.088   5.642
29203SOL    HW189448   2.068   9.048   5.728
29203SOL    HW289449   2.122   9.174   5.662
29204SOL     OW89450   9.578   4.865   3.507
29204SOL    HW189451   9.664   4.901   3.530
29204SOL    HW289452   9.547   4.920   3.435
29205SOL     OW89453   7.041   1.444   5.322
29205SOL    HW189454   6.980   1.518   5.322
29205SOL    HW289455   6.996   1.376   5.372
29206SOL     OW89456   9.179   2.498  11.544
29206SOL    HW189457   9.217   2.585  11.534
29206SOL    HW289458   9.235   2.441  11.492
29207SOL     OW89459   4.957   7.724   4.806
29207SOL    HW189460   5.043   7.703   4.842
29207SOL    HW289461   4.903   7.744   4.882
29208SOL     OW89462  12.753   6.522   2.575
29208SOL    HW189463  12.776   6.589   2.639
29208SOL    HW289464  12.658   6.516   2.581
29209SOL     OW89465  11.499   5.150   1.751
29209SOL    HW189466  11.466   5.222   1.805
29209SOL    HW289467  11.485   5.072   1.805
29210SOL     OW89468  14.779  10.459  13.468
29210SOL    HW189469  14.871  10.434  13.475
29210SOL    HW289470  14.769  10.490  13.378
29211SOL     OW89471   4.753   1.160  14.705
29211SOL    HW189472   4.805   1.107  14.645
29211SOL    HW289473   4.816   1.195  14.767
29212SOL     OW89474  10.247  12.494   5.920
29212SOL    HW189475  10.337  12.493   5.887
29212SOL    HW289476  10.233  12.584   5.949
29213SOL     OW89477  10.510   8.491   4.307
29213SOL    HW189478  10.478   8.499   4.217
29213SOL    HW289479  10.464   8.415   4.342
29214SOL     OW89480   4.249   0.773   6.510
29214SOL    HW189481   4.246   0.815   6.424
29214SOL    HW289482   4.341   0.745   6.519
29215SOL     OW89483  12.400   5.095   1.907
29215SOL    HW189484  12.433   5.107   1.997
29215SOL    HW289485  12.331   5.161   1.898
29216SOL     OW89486  11.271   6.182   9.039
29216SOL    HW189487  11.306   6.093   9.036
29216SOL    HW289488  11.349   6.238   9.035
29217SOL     OW89489   8.985   6.364   1.327
29217SOL    HW189490   8.964   6.430   1.261
29217SOL    HW289491   9.074   6.385   1.355
29218SOL     OW89492   0.782   6.339  13.642
29218SOL    HW189493   0.720   6.292  13.586
29218SOL    HW289494   0.792   6.425  13.599
29219SOL     OW89495  11.407   5.945   9.084
29219SOL    HW189496  11.440   5.871   9.033
29219SOL    HW289497  11.414   5.916   9.175
29220SOL     OW89498  12.054  10.324  10.702
29220SOL    HW189499  11.967  10.286  10.713
29220SOL    HW289500  12.098  10.266  10.640
29221SOL     OW89501  13.698   0.484   5.112
29221SOL    HW189502  13.684   0.524   5.198
29221SOL    HW289503  13.777   0.527   5.079
29222SOL     OW89504   9.918  14.094  12.962
29222SOL    HW189505   9.836  14.142  12.948
29222SOL    HW289506   9.923  14.084  13.057
29223SOL     OW89507  14.592   0.114  14.049
29223SOL    HW189508  14.498   0.127  14.061
29223SOL    HW289509  14.601   0.079  13.960
29224SOL     OW89510   7.755   4.140  10.909
29224SOL    HW189511   7.701   4.129  10.831
29224SOL    HW289512   7.844   4.153  10.876
29225SOL     OW89513   7.697   9.890   2.927
29225SOL    HW189514   7.701   9.812   2.984
29225SOL    HW289515   7.658   9.958   2.982
29226SOL     OW89516  13.123   6.610   2.523
29226SOL    HW189517  13.205   6.568   2.497
29226SOL    HW289518  13.060   6.582   2.457
29227SOL     OW89519   0.353  11.978  11.210
29227SOL    HW189520   0.339  11.883  11.214
29227SOL    HW289521   0.353  11.998  11.116
29228SOL     OW89522   5.729   1.237  11.342
29228SOL    HW189523   5.651   1.200  11.302
29228SOL    HW289524   5.757   1.306  11.282
29229SOL     OW89525  14.670   5.791  11.490
29229SOL    HW189526  14.585   5.798  11.448
29229SOL    HW289527  14.724   5.742  11.429
29230SOL     OW89528   7.539   6.990  14.609
29230SOL    HW189529   7.517   6.942  14.689
29230SOL    HW289530   7.614   6.943  14.573
29231SOL     OW89531  11.084   2.072   0.115
29231SOL    HW189532  11.128   2.059   0.031
29231SOL    HW289533  10.991   2.077   0.092
29232SOL     OW89534  10.998  10.161   7.732
29232SOL    HW189535  10.991  10.068   7.712
29232SOL    HW289536  11.087  10.173   7.764
29233SOL     OW89537   1.985   4.152  12.555
29233SOL    HW189538   2.055   4.216  12.570
29233SOL    HW289539   1.985   4.139  12.460
29234SOL     OW89540  13.786   1.365   4.408
29234SOL    HW189541  13.824   1.394   4.492
29234SOL    HW289542  13.859   1.373   4.346
29235SOL     OW89543  13.005  13.872   8.368
29235SOL    HW189544  13.072  13.832   8.424
29235SOL    HW289545  12.957  13.930   8.426
29236SOL     OW89546   3.784   6.420  10.956
29236SOL    HW189547   3.769   6.482  10.884
29236SOL    HW289548   3.852   6.462  11.010
29237SOL     OW89549  11.575   9.729   8.808
29237SOL    HW189550  11.598   9.818   8.780
29237SOL    HW289551  11.558   9.682   8.726
29238SOL     OW89552   7.279   9.583   1.867
29238SOL    HW189553   7.297   9.568   1.774
29238SOL    HW289554   7.199   9.634   1.868
29239SOL     OW89555  12.970  11.518  13.472
29239SOL    HW189556  12.887  11.480  13.445
29239SOL    HW289557  12.957  11.541  13.564
29240SOL     OW89558   2.072   2.656   2.287
29240SOL    HW189559   2.153   2.684   2.330
29240SOL    HW289560   2.084   2.679   2.195
29241SOL     OW89561  10.546  11.018   6.021
29241SOL    HW189562  10.540  11.083   5.950
29241SOL    HW289563  10.632  10.978   6.009
29242SOL     OW89564   2.384  11.199  12.761
29242SOL    HW189565   2.426  11.285  12.749
29242SOL    HW289566   2.315  11.197  12.696
29243SOL     OW89567   5.874   9.691   4.795
29243SOL    HW189568   5.917   9.763   4.748
29243SOL    HW289569   5.909   9.695   4.883
29244SOL     OW89570  11.046   1.976   4.050
29244SOL    HW189571  11.030   1.949   4.140
29244SOL    HW289572  11.101   1.906   4.013
29245SOL     OW89573   7.433   5.632  12.376
29245SOL    HW189574   7.501   5.564  12.381
29245SOL    HW289575   7.376   5.614  12.451
29246SOL     OW89576   4.043  14.788   1.933
29246SOL    HW189577   3.951  14.796   1.957
29246SOL    HW289578   4.055  14.851   1.861
29247SOL     OW89579   0.774   5.758  10.275
29247SOL    HW189580   0.695   5.704  10.281
29247SOL    HW289581   0.741   5.848  10.271
29248SOL     OW89582   6.928   1.773   5.371
29248SOL    HW189583   6.960   1.747   5.457
29248SOL    HW289584   7.000   1.825   5.334
29249SOL     OW89585   5.746  13.424   4.069
29249SOL    HW189586   5.703  13.352   4.022
29249SOL    HW289587   5.680  13.494   4.071
29250SOL     OW89588  12.712   6.555  12.338
29250SOL    HW189589  12.796   6.555  12.291
29250SOL    HW289590  12.735   6.581  12.427
29251SOL     OW89591   6.344  14.054   3.303
29251SOL    HW189592   6.381  13.990   3.365
29251SOL    HW289593   6.289  14.110   3.356
29252SOL     OW89594  10.543  14.634   8.552
29252SOL    HW189595  10.533  14.561   8.491
29252SOL    HW289596  10.565  14.709   8.497
29253SOL     OW89597  12.646   5.072   8.194
29253SOL    HW189598  12.691   4.995   8.160
29253SOL    HW289599  12.711   5.117   8.248
29254SOL     OW89600   9.098   7.432  11.733
29254SOL    HW189601   9.073   7.520  11.704
29254SOL    HW289602   9.180   7.415  11.688
29255SOL     OW89603  11.258  11.319  11.245
29255SOL    HW189604  11.166  11.307  11.220
29255SOL    HW289605  11.307  11.301  11.165
29256SOL     OW89606  14.776   3.908  12.342
29256SOL    HW189607  14.689   3.943  12.325
29256SOL    HW289608  14.834   3.983  12.334
29257SOL     OW89609   7.195   8.626  11.489
29257SOL    HW189610   7.137   8.683  11.538
29257SOL    HW289611   7.235   8.569  11.555
29258SOL     OW89612   6.016   2.135   6.192
29258SOL    HW189613   5.932   2.093   6.176
29258SOL    HW289614   5.993   2.220   6.231
29259SOL     OW89615   1.666   9.787   6.754
29259SOL    HW189616   1.688   9.787   6.661
29259SOL    HW289617   1.604   9.715   6.764
29260SOL     OW89618   0.200   4.557   0.909
29260SOL    HW189619   0.140   4.547   0.835
29260SOL    HW289620   0.153   4.614   0.970
29261SOL     OW89621   6.444  11.289  12.311
29261SOL    HW189622   6.495  11.207  12.306
29261SOL    HW289623   6.420  11.296  12.404
29262SOL     OW89624   7.890  10.865   9.974
29262SOL    HW189625   7.958  10.916  10.019
29262SOL    HW289626   7.878  10.910   9.890
29263SOL     OW89627  12.427   0.573   6.528
29263SOL    HW189628  12.492   0.559   6.597
29263SOL    HW289629  12.479   0.587   6.449
29264SOL     OW89630   0.882   9.250   6.268
29264SOL    HW189631   0.922   9.337   6.279
29264SOL    HW289632   0.866   9.244   6.174
29265SOL     OW89633   7.305   7.009   2.052
29265SOL    HW189634   7.308   6.988   2.145
29265SOL    HW289635   7.356   7.090   2.044
29266SOL     OW89636   7.730  11.418   0.468
29266SOL    HW189637   7.791  11.425   0.394
29266SOL    HW289638   7.676  11.341   0.448
29267SOL     OW89639  10.724   8.354   5.638
29267SOL    HW189640  10.720   8.437   5.591
29267SOL    HW289641  10.714   8.287   5.569
29268SOL     OW89642   8.721   4.880   8.486
29268SOL    HW189643   8.812   4.908   8.485
29268SOL    HW289644   8.672   4.960   8.464
29269SOL     OW89645   7.324   2.834   2.830
29269SOL    HW189646   7.333   2.763   2.894
29269SOL    HW289647   7.378   2.806   2.756
29270SOL     OW89648   0.942  10.166   8.885
29270SOL    HW189649   0.988  10.139   8.965
29270SOL    HW289650   0.990  10.123   8.814
29271SOL     OW89651   2.745   5.665   7.313
29271SOL    HW189652   2.748   5.569   7.306
29271SOL    HW289653   2.819   5.694   7.260
29272SOL     OW89654   6.167  13.289  10.545
29272SOL    HW189655   6.107  13.215  10.534
29272SOL    HW289656   6.191  13.313  10.455
29273SOL     OW89657   3.879   6.575   9.146
29273SOL    HW189658   3.861   6.624   9.226
29273SOL    HW289659   3.899   6.642   9.081
29274SOL     OW89660   6.718   1.574   6.580
29274SOL    HW189661   6.641   1.626   6.559
29274SOL    HW289662   6.687   1.483   6.576
29275SOL     OW89663   8.767  10.035  11.831
29275SOL    HW189664   8.771  10.021  11.736
29275SOL    HW289665   8.687   9.989  11.859
29276SOL     OW89666  14.156   3.087   4.537
29276SOL    HW189667  14.218   3.033   4.489
29276SOL    HW289668  14.072   3.042   4.527
29277SOL     OW89669   5.810   2.560   6.839
29277SOL    HW189670   5.863   2.639   6.847
29277SOL    HW289671   5.770   2.549   6.925
29278SOL     OW89672  11.675   4.178  11.179
29278SOL    HW189673  11.720   4.247  11.228
29278SOL    HW289674  11.606   4.148  11.238
29279SOL     OW89675   8.402   6.753  12.142
29279SOL    HW189676   8.482   6.761  12.195
29279SOL    HW289677   8.347   6.691  12.190
29280SOL     OW89678  10.763  14.066  11.471
29280SOL    HW189679  10.786  14.107  11.387
29280SOL    HW289680  10.829  14.099  11.532
29281SOL     OW89681   1.458   8.379   3.249
29281SOL    HW189682   1.387   8.338   3.299
29281SOL    HW289683   1.461   8.469   3.281
29282SOL     OW89684   1.938   4.147   0.785
29282SOL    HW189685   1.924   4.233   0.746
29282SOL    HW289686   1.895   4.152   0.871
29283SOL     OW89687  12.374   3.263   5.618
29283SOL    HW189688  12.382   3.356   5.642
29283SOL    HW289689  12.463   3.229   5.624
29284SOL     OW89690  13.691   7.566   5.425
29284SOL    HW189691  13.599   7.575   5.403
29284SOL    HW289692  13.704   7.626   5.499
29285SOL     OW89693  12.572  12.461   7.151
29285SOL    HW189694  12.516  12.450   7.228
29285SOL    HW289695  12.647  12.511   7.182
29286SOL     OW89696   5.731  14.445   1.365
29286SOL    HW189697   5.777  14.526   1.391
29286SOL    HW289698   5.663  14.474   1.305
29287SOL     OW89699   6.943  12.407   3.322
29287SOL    HW189700   7.029  12.392   3.284
29287SOL    HW289701   6.881  12.376   3.255
29288SOL     OW89702   1.960   1.900   6.297
29288SOL    HW189703   1.934   1.828   6.239
29288SOL    HW289704   2.044   1.871   6.334
29289SOL     OW89705   7.699   5.832   1.278
29289SOL    HW189706   7.636   5.803   1.345
29289SOL    HW289707   7.776   5.777   1.293
29290SOL     OW89708   0.648   8.886  11.194
29290SOL    HW189709   0.611   8.898  11.281
29290SOL    HW289710   0.741   8.870  11.210
29291SOL     OW89711   6.931  12.850   1.647
29291SOL    HW189712   6.955  12.820   1.560
29291SOL    HW289713   6.955  12.778   1.705
29292SOL     OW89714   4.946   7.797  11.022
29292SOL    HW189715   5.007   7.774  11.092
29292SOL    HW289716   4.917   7.886  11.044
29293SOL     OW89717   9.310   0.995   8.060
29293SOL    HW189718   9.358   1.063   8.013
29293SOL    HW289719   9.269   1.041   8.133
29294SOL     OW89720   5.960   0.201   5.195
29294SOL    HW189721   5.943   0.110   5.221
29294SOL    HW289722   6.000   0.194   5.108
29295SOL     OW89723   9.894  11.732  14.142
29295SOL    HW189724   9.808  11.775  14.143
29295SOL    HW289725   9.888  11.669  14.069
29296SOL     OW89726  14.129   7.821   5.325
29296SOL    HW189727  14.033   7.823   5.320
29296SOL    HW289728  14.148   7.847   5.415
29297SOL     OW89729   2.084   9.350   9.254
29297SOL    HW189730   2.102   9.444   9.257
29297SOL    HW289731   1.989   9.344   9.259
29298SOL     OW89732  12.248  13.846   6.326
29298SOL    HW189733  12.154  13.838   6.337
29298SOL    HW289734  12.271  13.778   6.263
29299SOL     OW89735   4.661  11.427   8.783
29299SOL    HW189736   4.696  11.466   8.703
29299SOL    HW289737   4.698  11.338   8.785
29300SOL     OW89738   7.511   5.636  14.850
29300SOL    HW189739   7.440   5.618  14.788
29300SOL    HW289740   7.586   5.587  14.815
29301SOL     OW89741  13.493   8.221   5.729
29301SOL    HW189742  13.533   8.303   5.756
29301SOL    HW289743  13.415   8.247   5.679
29302SOL     OW89744   4.550   5.584  12.046
29302SOL    HW189745   4.535   5.678  12.035
29302SOL    HW289746   4.502   5.562  12.126
29303SOL     OW89747   0.947   8.197   6.404
29303SOL    HW189748   0.931   8.289   6.384
29303SOL    HW289749   0.874   8.172   6.461
29304SOL     OW89750  14.105   7.094  12.204
29304SOL    HW189751  14.179   7.078  12.262
29304SOL    HW289752  14.116   7.185  12.175
29305SOL     OW89753   0.840   9.795  12.987
29305SOL    HW189754   0.787   9.716  12.973
29305SOL    HW289755   0.930   9.767  12.967
29306SOL     OW89756   0.903  11.507   3.365
29306SOL    HW189757   0.889  11.504   3.271
29306SOL    HW289758   0.902  11.600   3.387
29307SOL     OW89759   6.478   0.742   0.160
29307SOL    HW189760   6.456   0.830   0.127
29307SOL    HW289761   6.574   0.741   0.163
29308SOL     OW89762  11.357   7.792   6.953
29308SOL    HW189763  11.410   7.743   6.890
29308SOL    HW289764  11.415   7.860   6.986
29309SOL     OW89765   3.324  12.466   3.278
29309SOL    HW189766   3.405  12.463   3.329
29309SOL    HW289767   3.324  12.552   3.237
29310SOL     OW89768   3.845  11.621   6.983
29310SOL    HW189769   3.934  11.587   6.985
29310SOL    HW289770   3.809  11.588   6.900
29311SOL     OW89771   9.951  14.812   4.540
29311SOL    HW189772   9.986   0.021   4.522
29311SOL    HW289773   9.925  14.779   4.454
29312SOL     OW89774   2.492  12.656  11.942
29312SOL    HW189775   2.427  12.697  11.884
29312SOL    HW289776   2.570  12.709  11.930
29313SOL     OW89777   5.697  14.224   7.285
29313SOL    HW189778   5.754  14.188   7.353
29313SOL    HW289779   5.756  14.271   7.226
29314SOL     OW89780  10.750   8.471  11.724
29314SOL    HW189781  10.797   8.408  11.669
29314SOL    HW289782  10.776   8.449  11.813
29315SOL     OW89783  11.875   7.018   8.030
29315SOL    HW189784  11.938   6.978   7.970
29315SOL    HW289785  11.816   6.947   8.054
29316SOL     OW89786  10.918   5.154   1.037
29316SOL    HW189787  10.851   5.092   1.066
29316SOL    HW289788  10.966   5.176   1.116
29317SOL     OW89789  13.142   8.842   6.015
29317SOL    HW189790  13.177   8.877   6.097
29317SOL    HW289791  13.136   8.747   6.030
29318SOL     OW89792   3.137   6.832  12.260
29318SOL    HW189793   3.209   6.772  12.240
29318SOL    HW289794   3.168   6.881  12.337
29319SOL     OW89795   7.746   7.983   3.010
29319SOL    HW189796   7.819   7.952   3.062
29319SOL    HW289797   7.779   7.983   2.920
29320SOL     OW89798   5.221   7.909   6.666
29320SOL    HW189799   5.263   7.823   6.665
29320SOL    HW289800   5.171   7.911   6.747
29321SOL     OW89801  13.314   0.620   6.660
29321SOL    HW189802  13.340   0.651   6.573
29321SOL    HW289803  13.281   0.699   6.704
29322SOL     OW89804  11.770   8.870   6.258
29322SOL    HW189805  11.676   8.853   6.264
29322SOL    HW289806  11.786   8.941   6.321
29323SOL     OW89807   2.013   9.674   2.086
29323SOL    HW189808   1.924   9.701   2.067
29323SOL    HW289809   2.004   9.603   2.149
29324SOL     OW89810   0.931   6.820  10.957
29324SOL    HW189811   0.886   6.776  10.885
29324SOL    HW289812   1.012   6.854  10.917
29325SOL     OW89813  10.717   9.697  14.208
29325SOL    HW189814  10.631   9.669  14.177
29325SOL    HW289815  10.777   9.673  14.138
29326SOL     OW89816   3.553  14.859   9.667
29326SOL    HW189817   3.552   0.059   9.721
29326SOL    HW289818   3.502   0.004   9.589
29327SOL     OW89819   2.622   1.719   3.866
29327SOL    HW189820   2.559   1.651   3.890
29327SOL    HW289821   2.570   1.799   3.864
29328SOL     OW89822   0.020   9.598   5.361
29328SOL    HW189823   0.081   9.567   5.428
29328SOL    HW289824   0.006   9.690   5.383
29329SOL     OW89825   2.894   8.749  11.327
29329SOL    HW189826   2.876   8.704  11.410
29329SOL    HW289827   2.854   8.693  11.260
29330SOL     OW89828  13.189   1.967   8.770
29330SOL    HW189829  13.260   1.903   8.771
29330SOL    HW289830  13.172   1.986   8.862
29331SOL     OW89831  11.143  11.582  14.129
29331SOL    HW189832  11.074  11.589  14.064
29331SOL    HW289833  11.122  11.649  14.194
29332SOL     OW89834   0.401   4.262  13.916
29332SOL    HW189835   0.483   4.232  13.876
29332SOL    HW289836   0.333   4.209  13.875
29333SOL     OW89837  13.999   9.320  10.833
29333SOL    HW189838  13.911   9.283  10.838
29333SOL    HW289839  14.055   9.245  10.815
29334SOL     OW89840   7.290   1.143  13.618
29334SOL    HW189841   7.328   1.195  13.689
29334SOL    HW289842   7.279   1.204  13.546
29335SOL     OW89843   3.851   1.966   5.124
29335SOL    HW189844   3.853   1.941   5.031
29335SOL    HW289845   3.897   2.050   5.128
29336SOL     OW89846   0.338  12.627   3.228
29336SOL    HW189847   0.247  12.601   3.216
29336SOL    HW289848   0.366  12.582   3.307
29337SOL     OW89849   6.789   2.651  11.910
29337SOL    HW189850   6.795   2.590  11.984
29337SOL    HW289851   6.749   2.729  11.946
29338SOL     OW89852   9.636   6.989  11.518
29338SOL    HW189853   9.595   6.954  11.439
29338SOL    HW289854   9.624   6.921  11.584
29339SOL     OW89855  11.698   4.840   0.158
29339SOL    HW189856  11.644   4.917   0.142
29339SOL    HW289857  11.664   4.803   0.240
29340SOL     OW89858  12.805   9.496   2.612
29340SOL    HW189859  12.727   9.551   2.615
29340SOL    HW289860  12.774   9.408   2.631
29341SOL     OW89861  10.744   1.738   8.029
29341SOL    HW189862  10.756   1.748   8.123
29341SOL    HW289863  10.779   1.651   8.009
29342SOL     OW89864  13.311   6.044  11.732
29342SOL    HW189865  13.261   6.001  11.663
29342SOL    HW289866  13.356   6.116  11.688
29343SOL     OW89867  13.962   9.261   6.400
29343SOL    HW189868  14.041   9.210   6.415
29343SOL    HW289869  13.974   9.340   6.452
29344SOL     OW89870   9.769   3.096  14.151
29344SOL    HW189871   9.678   3.116  14.173
29344SOL    HW289872   9.764   3.050  14.067
29345SOL     OW89873   5.307   4.572  12.637
29345SOL    HW189874   5.252   4.500  12.607
29345SOL    HW289875   5.396   4.542  12.622
29346SOL     OW89876   5.734   0.024   3.405
29346SOL    HW189877   5.743   0.120   3.403
29346SOL    HW289878   5.824  14.871   3.400
29347SOL     OW89879  12.219   4.509   9.547
29347SOL    HW189880  12.221   4.559   9.465
29347SOL    HW289881  12.271   4.562   9.608
29348SOL     OW89882  11.683  14.696   3.276
29348SOL    HW189883  11.620  14.703   3.348
29348SOL    HW289884  11.658  14.616   3.231
29349SOL     OW89885  13.481  11.975   8.371
29349SOL    HW189886  13.538  12.049   8.389
29349SOL    HW289887  13.522  11.930   8.296
29350SOL     OW89888   7.301   6.508  13.817
29350SOL    HW189889   7.220   6.515  13.766
29350SOL    HW289890   7.367   6.482  13.753
29351SOL     OW89891   0.133  13.706   4.466
29351SOL    HW189892   0.171  13.728   4.381
29351SOL    HW289893   0.165  13.618   4.485
29352SOL     OW89894   8.081   5.570   7.169
29352SOL    HW189895   8.097   5.633   7.099
29352SOL    HW289896   8.168   5.543   7.197
29353SOL     OW89897  10.550   3.973   9.684
29353SOL    HW189898  10.616   4.042   9.679
29353SOL    HW289899  10.544   3.953   9.777
29354SOL     OW89900   0.188  13.431   4.492
29354SOL    HW189901   0.177  13.399   4.581
29354SOL    HW289902   0.283  13.444   4.483
29355SOL     OW89903   5.637   2.859   1.941
29355SOL    HW189904   5.666   2.769   1.931
29355SOL    HW289905   5.599   2.863   2.028
29356SOL     OW89906   8.932  13.482   2.397
29356SOL    HW189907   8.838  13.476   2.382
29356SOL    HW289908   8.959  13.561   2.351
29357SOL     OW89909   4.086   6.977   4.015
29357SOL    HW189910   4.025   7.045   4.041
29357SOL    HW289911   4.149   6.972   4.086
29358SOL     OW89912  11.409   5.089  11.559
29358SOL    HW189913  11.499   5.121  11.570
29358SOL    HW289914  11.419   4.994  11.548
29359SOL     OW89915  10.986  11.792   6.064
29359SOL    HW189916  10.914  11.775   6.003
29359SOL    HW289917  11.062  11.750   6.024
29360SOL     OW89918  10.880   0.927   3.706
29360SOL    HW189919  10.861   0.853   3.763
29360SOL    HW289920  10.973   0.943   3.717
29361SOL     OW89921   4.636   2.638   6.769
29361SOL    HW189922   4.589   2.670   6.693
29361SOL    HW289923   4.646   2.544   6.754
29362SOL     OW89924   5.494  11.855   8.468
29362SOL    HW189925   5.573  11.804   8.485
29362SOL    HW289926   5.500  11.928   8.529
29363SOL     OW89927   3.034   8.166  10.064
29363SOL    HW189928   2.998   8.253  10.047
29363SOL    HW289929   3.059   8.168  10.156
29364SOL     OW89930   9.047  12.256   5.223
29364SOL    HW189931   9.084  12.299   5.300
29364SOL    HW289932   9.121  12.212   5.182
29365SOL     OW89933   9.310   6.899   3.359
29365SOL    HW189934   9.402   6.872   3.353
29365SOL    HW289935   9.314   6.994   3.372
29366SOL     OW89936   9.639   9.334   5.663
29366SOL    HW189937   9.581   9.278   5.714
29366SOL    HW289938   9.582   9.379   5.602
29367SOL     OW89939   8.469   5.784  13.576
29367SOL    HW189940   8.541   5.722  13.564
29367SOL    HW289941   8.429   5.758  13.659
29368SOL     OW89942   6.786  14.154   4.560
29368SOL    HW189943   6.805  14.104   4.480
29368SOL    HW289944   6.771  14.088   4.627
29369SOL     OW89945   1.628   0.186   4.762
29369SOL    HW189946   1.697   0.127   4.793
29369SOL    HW289947   1.675   0.261   4.726
29370SOL     OW89948  13.309  12.861   1.058
29370SOL    HW189949  13.230  12.837   1.106
29370SOL    HW289950  13.368  12.896   1.126
29371SOL     OW89951   2.783   8.351   1.190
29371SOL    HW189952   2.788   8.342   1.285
29371SOL    HW289953   2.837   8.279   1.157
29372SOL     OW89954  13.213  12.155   5.384
29372SOL    HW189955  13.142  12.201   5.340
29372SOL    HW289956  13.186  12.063   5.383
29373SOL     OW89957   2.286   3.491   4.027
29373SOL    HW189958   2.261   3.430   4.096
29373SOL    HW289959   2.342   3.441   3.969
29374SOL     OW89960   1.041  10.945  13.503
29374SOL    HW189961   1.063  11.001  13.578
29374SOL    HW289962   1.080  10.860  13.523
29375SOL     OW89963   8.950   1.314  14.190
29375SOL    HW189964   8.946   1.407  14.214
29375SOL    HW289965   8.955   1.314  14.095
29376SOL     OW89966   1.687   5.877   3.518
29376SOL    HW189967   1.745   5.889   3.593
29376SOL    HW289968   1.647   5.963   3.505
29377SOL     OW89969   5.574  14.528   4.064
29377SOL    HW189970   5.668  14.512   4.058
29377SOL    HW289971   5.540  14.452   4.113
29378SOL     OW89972   0.308   9.151   1.132
29378SOL    HW189973   0.261   9.069   1.114
29378SOL    HW289974   0.249   9.201   1.188
29379SOL     OW89975   4.817   6.152  10.136
29379SOL    HW189976   4.888   6.089  10.152
29379SOL    HW289977   4.830   6.219  10.203
29380SOL     OW89978   7.336   5.252  12.324
29380SOL    HW189979   7.391   5.284  12.253
29380SOL    HW289980   7.298   5.171  12.291
29381SOL     OW89981  13.957  12.165  13.820
29381SOL    HW189982  13.965  12.178  13.725
29381SOL    HW289983  13.950  12.070  13.831
29382SOL     OW89984  13.601   4.477   8.469
29382SOL    HW189985  13.674   4.533   8.443
29382SOL    HW289986  13.635   4.388   8.457
29383SOL     OW89987  11.089   5.248  13.651
29383SOL    HW189988  11.081   5.343  13.639
29383SOL    HW289989  11.178   5.227  13.624
29384SOL     OW89990  11.728   9.639   2.507
29384SOL    HW189991  11.716   9.549   2.478
29384SOL    HW289992  11.808   9.669   2.462
29385SOL     OW89993   5.050   0.660   3.567
29385SOL    HW189994   5.012   0.672   3.480
29385SOL    HW289995   4.975   0.649   3.625
29386SOL     OW89996   2.916   7.666   9.329
29386SOL    HW189997   2.966   7.635   9.405
29386SOL    HW289998   2.961   7.745   9.301
29387SOL     OW89999   4.557  10.840   0.572
29387SOL    HW190000   4.482  10.803   0.525
29387SOL    HW290001   4.527  10.848   0.662
29388SOL     OW90002  10.757   6.885  13.095
29388SOL    HW190003  10.849   6.907  13.079
29388SOL    HW290004  10.710   6.966  13.078
29389SOL     OW90005   4.241   0.808  10.467
29389SOL    HW190006   4.322   0.832  10.421
29389SOL    HW290007   4.201   0.740  10.413
29390SOL     OW90008   8.778   6.832   9.699
29390SOL    HW190009   8.817   6.827   9.612
29390SOL    HW290010   8.756   6.925   9.710
29391SOL     OW90011   3.593   0.414   8.067
29391SOL    HW190012   3.515   0.428   8.014
29391SOL    HW290013   3.604   0.495   8.116
29392SOL     OW90014   5.841  12.813  14.082
29392SOL    HW190015   5.903  12.759  14.131
29392SOL    HW290016   5.851  12.786  13.991
29393SOL     OW90017   8.942  14.875   7.746
29393SOL    HW190018   8.996   0.053   7.692
29393SOL    HW290019   8.948   0.033   7.834
29394SOL     OW90020   0.954  11.786  13.968
29394SOL    HW190021   0.980  11.872  14.001
29394SOL    HW290022   1.036  11.739  13.956
29395SOL     OW90023   1.502   4.686  13.760
29395SOL    HW190024   1.594   4.677  13.734
29395SOL    HW290025   1.492   4.778  13.783
29396SOL     OW90026   1.227  14.824  13.094
29396SOL    HW190027   1.237   0.034  13.061
29396SOL    HW290028   1.305  14.810  13.148
29397SOL     OW90029   6.618  10.626   8.454
29397SOL    HW190030   6.624  10.577   8.536
29397SOL    HW290031   6.562  10.701   8.475
29398SOL     OW90032   1.771   1.215  14.587
29398SOL    HW190033   1.703   1.149  14.578
29398SOL    HW290034   1.813   1.219  14.501
29399SOL     OW90035  10.517  13.091   8.650
29399SOL    HW190036  10.537  13.079   8.743
29399SOL    HW290037  10.489  13.183   8.644
29400SOL     OW90038   4.822   8.244   0.387
29400SOL    HW190039   4.903   8.218   0.343
29400SOL    HW290040   4.849   8.265   0.476
29401SOL     OW90041   8.012   8.740   9.328
29401SOL    HW190042   7.944   8.752   9.261
29401SOL    HW290043   8.010   8.646   9.348
29402SOL     OW90044   9.377   8.886  13.476
29402SOL    HW190045   9.429   8.821  13.523
29402SOL    HW290046   9.421   8.897  13.392
29403SOL     OW90047   7.924  13.217  10.971
29403SOL    HW190048   7.913  13.295  11.026
29403SOL    HW290049   7.995  13.239  10.912
29404SOL     OW90050   1.245  10.765   0.761
29404SOL    HW190051   1.337  10.746   0.780
29404SOL    HW290052   1.242  10.859   0.745
29405SOL     OW90053   4.458   8.204   4.674
29405SOL    HW190054   4.479   8.138   4.608
29405SOL    HW290055   4.370   8.180   4.705
29406SOL     OW90056   0.835   3.317   5.959
29406SOL    HW190057   0.739   3.311   5.950
29406SOL    HW290058   0.868   3.237   5.920
29407SOL     OW90059  13.794  11.685   0.625
29407SOL    HW190060  13.770  11.594   0.607
29407SOL    HW290061  13.857  11.680   0.697
29408SOL     OW90062   4.079   6.089   3.575
29408SOL    HW190063   4.075   6.121   3.484
29408SOL    HW290064   4.157   6.034   3.577
29409SOL     OW90065   3.830   5.877  14.342
29409SOL    HW190066   3.809   5.913  14.429
29409SOL    HW290067   3.905   5.820  14.358
29410SOL     OW90068   7.869   7.116   0.046
29410SOL    HW190069   7.845   7.030   0.082
29410SOL    HW290070   7.923   7.096  14.850
29411SOL     OW90071   0.115   7.706  11.044
29411SOL    HW190072   0.119   7.614  11.071
29411SOL    HW290073   0.050   7.707  10.973
29412SOL     OW90074   7.728  10.497   4.117
29412SOL    HW190075   7.697  10.418   4.162
29412SOL    HW290076   7.768  10.550   4.186
29413SOL     OW90077  12.267  12.035  10.061
29413SOL    HW190078  12.221  12.084  10.128
29413SOL    HW290079  12.277  11.947  10.097
29414SOL     OW90080  13.985  14.214   0.676
29414SOL    HW190081  13.954  14.236   0.764
29414SOL    HW290082  13.938  14.134   0.654
29415SOL     OW90083  13.863   7.418  10.052
29415SOL    HW190084  13.954   7.425  10.024
29415SOL    HW290085  13.868   7.390  10.144
29416SOL     OW90086  14.140   3.084   2.166
29416SOL    HW190087  14.233   3.106   2.166
29416SOL    HW290088  14.097   3.162   2.201
29417SOL     OW90089   7.020   8.827  11.897
29417SOL    HW190090   7.043   8.846  11.988
29417SOL    HW290091   6.935   8.868  11.884
29418SOL     OW90092   1.960   1.882   1.377
29418SOL    HW190093   1.956   1.953   1.313
29418SOL    HW290094   2.040   1.834   1.354
29419SOL     OW90095  12.437  10.711   8.043
29419SOL    HW190096  12.463  10.755   7.962
29419SOL    HW290097  12.348  10.742   8.060
29420SOL     OW90098   1.789  13.507   0.399
29420SOL    HW190099   1.851  13.438   0.425
29420SOL    HW290100   1.759  13.544   0.482
29421SOL     OW90101   5.459   7.542  14.810
29421SOL    HW190102   5.488   7.466  14.759
29421SOL    HW290103   5.513   7.539   0.010
29422SOL     OW90104   7.817  10.619  11.159
29422SOL    HW190105   7.812  10.621  11.254
29422SOL    HW290106   7.910  10.605  11.140
29423SOL     OW90107   7.373   3.670  12.651
29423SOL    HW190108   7.467   3.656  12.641
29423SOL    HW290109   7.337   3.657  12.563
29424SOL     OW90110   4.165  12.581   2.488
29424SOL    HW190111   4.102  12.641   2.448
29424SOL    HW290112   4.167  12.505   2.430
29425SOL     OW90113  14.214  12.191  13.436
29425SOL    HW190114  14.241  12.257  13.372
29425SOL    HW290115  14.245  12.224  13.520
29426SOL     OW90116   9.225  13.798  11.132
29426SOL    HW190117   9.306  13.750  11.112
29426SOL    HW290118   9.201  13.768  11.219
29427SOL     OW90119  12.313  10.334   5.307
29427SOL    HW190120  12.367  10.285   5.368
29427SOL    HW290121  12.374  10.393   5.262
29428SOL     OW90122   2.540   4.748   9.634
29428SOL    HW190123   2.504   4.739   9.722
29428SOL    HW290124   2.500   4.677   9.584
29429SOL     OW90125  12.169  14.793   0.021
29429SOL    HW190126  12.098  14.729   0.031
29429SOL    HW290127  12.179  14.831   0.108
29430SOL     OW90128   7.433   5.632  11.658
29430SOL    HW190129   7.395   5.611  11.573
29430SOL    HW290130   7.522   5.597  11.653
29431SOL     OW90131  14.684   3.119   8.352
29431SOL    HW190132  14.601   3.082   8.323
29431SOL    HW290133  14.659   3.196   8.404
29432SOL     OW90134   6.098   4.617   8.629
29432SOL    HW190135   6.042   4.675   8.681
29432SOL    HW290136   6.095   4.533   8.675
29433SOL     OW90137   2.577   3.153  13.365
29433SOL    HW190138   2.563   3.090  13.435
29433SOL    HW290139   2.636   3.108  13.304
29434SOL     OW90140  10.466   8.436   3.715
29434SOL    HW190141  10.387   8.410   3.763
29434SOL    HW290142  10.434   8.494   3.646
29435SOL     OW90143   0.580   4.638  10.849
29435SOL    HW190144   0.557   4.668  10.937
29435SOL    HW290145   0.512   4.575  10.827
29436SOL     OW90146   1.965   5.841   4.412
29436SOL    HW190147   1.956   5.752   4.445
29436SOL    HW290148   2.055   5.848   4.382
29437SOL     OW90149   0.503   7.552  12.397
29437SOL    HW190150   0.458   7.501  12.330
29437SOL    HW290151   0.560   7.611  12.348
29438SOL     OW90152   5.615   3.289   1.862
29438SOL    HW190153   5.588   3.370   1.904
29438SOL    HW290154   5.688   3.314   1.806
29439SOL     OW90155   7.746   7.765  13.239
29439SOL    HW190156   7.683   7.708  13.195
29439SOL    HW290157   7.808   7.705  13.280
29440SOL     OW90158   3.899   4.584   4.155
29440SOL    HW190159   3.902   4.576   4.251
29440SOL    HW290160   3.816   4.544   4.130
29441SOL     OW90161  13.148   1.504  12.356
29441SOL    HW190162  13.063   1.537  12.385
29441SOL    HW290163  13.167   1.555  12.277
29442SOL     OW90164   6.275   8.786   8.049
29442SOL    HW190165   6.225   8.861   8.019
29442SOL    HW290166   6.242   8.768   8.137
29443SOL     OW90167   4.587   9.128   7.397
29443SOL    HW190168   4.659   9.093   7.344
29443SOL    HW290169   4.628   9.188   7.458
29444SOL     OW90170  11.560  12.312  11.593
29444SOL    HW190171  11.537  12.320  11.686
29444SOL    HW290172  11.487  12.356  11.548
29445SOL     OW90173  12.941   8.204   8.143
29445SOL    HW190174  12.990   8.164   8.214
29445SOL    HW290175  12.865   8.148   8.130
29446SOL     OW90176   8.347   3.824   8.380
29446SOL    HW190177   8.357   3.737   8.417
29446SOL    HW290178   8.374   3.815   8.289
29447SOL     OW90179   4.197   9.876  13.670
29447SOL    HW190180   4.178   9.968  13.688
29447SOL    HW290181   4.266   9.878  13.603
29448SOL     OW90182   5.499   2.109  11.554
29448SOL    HW190183   5.407   2.132  11.573
29448SOL    HW290184   5.523   2.163  11.480
29449SOL     OW90185   0.145  14.746   1.329
29449SOL    HW190186   0.121  14.732   1.237
29449SOL    HW290187   0.124  14.663   1.372
29450SOL     OW90188  11.895   6.112   2.302
29450SOL    HW190189  11.904   6.175   2.373
29450SOL    HW290190  11.825   6.148   2.247
29451SOL     OW90191   8.781  14.619   6.383
29451SOL    HW190192   8.725  14.546   6.358
29451SOL    HW290193   8.725  14.697   6.372
29452SOL     OW90194   0.096   1.291   6.668
29452SOL    HW190195   0.085   1.225   6.736
29452SOL    HW290196   0.010   1.296   6.626
29453SOL     OW90197  13.340   5.615   0.193
29453SOL    HW190198  13.322   5.534   0.145
29453SOL    HW290199  13.435   5.628   0.183
29454SOL     OW90200  10.448   3.867   8.274
29454SOL    HW190201  10.477   3.956   8.256
29454SOL    HW290202  10.480   3.848   8.362
29455SOL     OW90203  13.141   4.986   2.794
29455SOL    HW190204  13.065   5.020   2.747
29455SOL    HW290205  13.213   4.991   2.730
29456SOL     OW90206   7.572   4.131   0.536
29456SOL    HW190207   7.507   4.184   0.582
29456SOL    HW290208   7.556   4.042   0.566
29457SOL     OW90209   1.010   9.503   6.287
29457SOL    HW190210   1.083   9.466   6.338
29457SOL    HW290211   1.003   9.593   6.317
29458SOL     OW90212   0.759   0.425  13.264
29458SOL    HW190213   0.743   0.512  13.300
29458SOL    HW290214   0.853   0.423  13.245
29459SOL     OW90215   4.441   2.384   5.428
29459SOL    HW190216   4.453   2.437   5.349
29459SOL    HW290217   4.529   2.359   5.454
29460SOL     OW90218   0.757  12.131   6.876
29460SOL    HW190219   0.831  12.144   6.816
29460SOL    HW290220   0.701  12.067   6.830
29461SOL     OW90221   1.816  11.130   2.452
29461SOL    HW190222   1.885  11.114   2.388
29461SOL    HW290223   1.842  11.211   2.495
29462SOL     OW90224   3.144  12.207   6.411
29462SOL    HW190225   3.215  12.146   6.429
29462SOL    HW290226   3.089  12.162   6.348
29463SOL     OW90227  13.980   5.858   5.566
29463SOL    HW190228  14.047   5.841   5.500
29463SOL    HW290229  13.982   5.781   5.623
29464SOL     OW90230   1.674   1.310   1.727
29464SOL    HW190231   1.590   1.312   1.681
29464SOL    HW290232   1.731   1.367   1.676
29465SOL     OW90233   9.342   1.191   4.921
29465SOL    HW190234   9.371   1.136   4.994
29465SOL    HW290235   9.324   1.277   4.961
29466SOL     OW90236   5.170  12.311   1.078
29466SOL    HW190237   5.219  12.242   1.122
29466SOL    HW290238   5.203  12.310   0.988
29467SOL     OW90239   9.378   5.678   3.666
29467SOL    HW190240   9.385   5.735   3.589
29467SOL    HW290241   9.468   5.648   3.681
29468SOL     OW90242   4.808   5.112   2.961
29468SOL    HW190243   4.747   5.041   2.982
29468SOL    HW290244   4.870   5.112   3.034
29469SOL     OW90245  11.326   3.908   0.249
29469SOL    HW190246  11.373   3.825   0.255
29469SOL    HW290247  11.248   3.896   0.304
29470SOL     OW90248  10.972   2.369  11.462
29470SOL    HW190249  11.054   2.416  11.445
29470SOL    HW290250  10.999   2.279  11.478
29471SOL     OW90251   4.939  12.388  14.150
29471SOL    HW190252   4.969  12.437  14.072
29471SOL    HW290253   4.858  12.432  14.176
29472SOL     OW90254  14.150   1.440   4.613
29472SOL    HW190255  14.179   1.394   4.534
29472SOL    HW290256  14.211   1.411   4.681
29473SOL     OW90257  10.596   2.618   3.408
29473SOL    HW190258  10.527   2.594   3.470
29473SOL    HW290259  10.666   2.555   3.424
29474SOL     OW90260   9.425   3.373  10.633
29474SOL    HW190261   9.372   3.452  10.622
29474SOL    HW290262   9.476   3.390  10.713
29475SOL     OW90263   5.181  10.306   4.614
29475SOL    HW190264   5.207  10.260   4.694
29475SOL    HW290265   5.170  10.237   4.549
29476SOL     OW90266   6.429   6.355   2.609
29476SOL    HW190267   6.342   6.319   2.589
29476SOL    HW290268   6.489   6.282   2.592
29477SOL     OW90269   7.160   2.123   0.106
29477SOL    HW190270   7.217   2.185   0.061
29477SOL    HW290271   7.217   2.079   0.169
29478SOL     OW90272  11.042   4.757   4.222
29478SOL    HW190273  11.025   4.678   4.170
29478SOL    HW290274  10.983   4.749   4.297
29479SOL     OW90275   4.388   3.707   1.408
29479SOL    HW190276   4.326   3.759   1.356
29479SOL    HW290277   4.371   3.733   1.499
29480SOL     OW90278   8.729   5.871   4.529
29480SOL    HW190279   8.661   5.890   4.464
29480SOL    HW290280   8.680   5.848   4.608
29481SOL     OW90281  11.689   2.703   6.617
29481SOL    HW190282  11.613   2.756   6.642
29481SOL    HW290283  11.764   2.748   6.658
29482SOL     OW90284  11.053   0.386  12.814
29482SOL    HW190285  11.031   0.294  12.827
29482SOL    HW290286  10.997   0.433  12.876
29483SOL     OW90287  14.613  11.354   8.665
29483SOL    HW190288  14.604  11.438   8.710
29483SOL    HW290289  14.560  11.365   8.585
29484SOL     OW90290   9.823   9.720   0.219
29484SOL    HW190291   9.851   9.811   0.222
29484SOL    HW290292   9.893   9.671   0.263
29485SOL     OW90293  10.367   3.691  14.495
29485SOL    HW190294  10.287   3.725  14.454
29485SOL    HW290295  10.438   3.738  14.452
29486SOL     OW90296   9.997   2.421   1.516
29486SOL    HW190297  10.047   2.465   1.446
29486SOL    HW290298   9.984   2.489   1.582
29487SOL     OW90299   1.447  13.701  11.478
29487SOL    HW190300   1.424  13.740  11.563
29487SOL    HW290301   1.497  13.622  11.500
29488SOL     OW90302   0.486   8.742  10.749
29488SOL    HW190303   0.510   8.824  10.707
29488SOL    HW290304   0.399   8.721  10.714
29489SOL     OW90305   6.348   9.629   4.927
29489SOL    HW190306   6.297   9.590   4.999
29489SOL    HW290307   6.353   9.559   4.862
29490SOL     OW90308   1.402  10.010   1.113
29490SOL    HW190309   1.471  10.040   1.172
29490SOL    HW290310   1.321  10.022   1.163
29491SOL     OW90311   2.182  10.437   4.940
29491SOL    HW190312   2.228  10.511   4.901
29491SOL    HW290313   2.146  10.390   4.864
29492SOL     OW90314  11.702   0.500   3.637
29492SOL    HW190315  11.704   0.405   3.647
29492SOL    HW290316  11.791   0.523   3.610
29493SOL     OW90317   3.879  12.677  12.955
29493SOL    HW190318   3.953  12.714  13.003
29493SOL    HW290319   3.847  12.606  13.011
29494SOL     OW90320   5.243  14.479   5.068
29494SOL    HW190321   5.205  14.414   5.127
29494SOL    HW290322   5.201  14.463   4.983
29495SOL     OW90323   2.893  13.228   6.351
29495SOL    HW190324   2.864  13.305   6.400
29495SOL    HW290325   2.820  13.165   6.359
29496SOL     OW90326   0.514   5.303  11.669
29496SOL    HW190327   0.482   5.217  11.644
29496SOL    HW290328   0.450   5.334  11.733
29497SOL     OW90329  12.556   3.574  11.860
29497SOL    HW190330  12.549   3.568  11.955
29497SOL    HW290331  12.502   3.502  11.827
29498SOL     OW90332   0.292  14.519  13.512
29498SOL    HW190333   0.316  14.436  13.470
29498SOL    HW290334   0.340  14.519  13.594
29499SOL     OW90335   3.085  13.552   1.450
29499SOL    HW190336   3.013  13.591   1.400
29499SOL    HW290337   3.080  13.458   1.430
29500SOL     OW90338   3.278   6.446  12.799
29500SOL    HW190339   3.273   6.530  12.844
29500SOL    HW290340   3.267   6.381  12.868
29501SOL     OW90341   3.188  10.283  10.599
29501SOL    HW190342   3.184  10.327  10.684
29501SOL    HW290343   3.102  10.296  10.561
29502SOL     OW90344   6.214   0.337   0.213
29502SOL    HW190345   6.300   0.379   0.203
29502SOL    HW290346   6.193   0.303   0.126
29503SOL     OW90347   3.115   6.707   1.453
29503SOL    HW190348   3.171   6.688   1.529
29503SOL    HW290349   3.056   6.631   1.449
29504SOL     OW90350  11.062   1.952   6.397
29504SOL    HW190351  11.147   1.955   6.440
29504SOL    HW290352  11.005   1.905   6.458
29505SOL     OW90353  14.365  10.644  12.405
29505SOL    HW190354  14.416  10.628  12.326
29505SOL    HW290355  14.292  10.699  12.376
29506SOL     OW90356   6.237  13.598  11.089
29506SOL    HW190357   6.317  13.547  11.101
29506SOL    HW290358   6.257  13.684  11.124
29507SOL     OW90359   4.686  11.872  14.351
29507SOL    HW190360   4.752  11.840  14.413
29507SOL    HW290361   4.608  11.820  14.371
29508SOL     OW90362  14.608  13.405   4.650
29508SOL    HW190363  14.620  13.467   4.578
29508SOL    HW290364  14.625  13.457   4.729
29509SOL     OW90365   1.389   6.224   3.171
29509SOL    HW190366   1.477   6.252   3.145
29509SOL    HW290367   1.331   6.264   3.106
29510SOL     OW90368   0.378   5.731  12.429
29510SOL    HW190369   0.451   5.677  12.458
29510SOL    HW290370   0.419   5.809  12.392
29511SOL     OW90371  13.616   6.676  12.000
29511SOL    HW190372  13.608   6.636  11.913
29511SOL    HW290373  13.658   6.761  11.983
29512SOL     OW90374  14.028   5.465  10.002
29512SOL    HW190375  14.061   5.476  10.091
29512SOL    HW290376  13.984   5.547   9.982
29513SOL     OW90377   4.351   2.703   6.926
29513SOL    HW190378   4.297   2.778   6.951
29513SOL    HW290379   4.323   2.681   6.838
29514SOL     OW90380  11.661  12.559  13.466
29514SOL    HW190381  11.617  12.541  13.383
29514SOL    HW290382  11.665  12.655  13.470
29515SOL     OW90383   4.459   3.379   6.721
29515SOL    HW190384   4.490   3.407   6.635
29515SOL    HW290385   4.363   3.386   6.716
29516SOL     OW90386   9.896  11.679   9.363
29516SOL    HW190387   9.866  11.748   9.304
29516SOL    HW290388   9.992  11.683   9.358
29517SOL     OW90389   3.063  11.367   0.219
29517SOL    HW190390   3.076  11.453   0.258
29517SOL    HW290391   3.140  11.316   0.246
29518SOL     OW90392   1.818   0.641  11.398
29518SOL    HW190393   1.907   0.662  11.427
29518SOL    HW290394   1.829   0.568  11.337
29519SOL     OW90395   7.682  12.504   8.258
29519SOL    HW190396   7.629  12.484   8.335
29519SOL    HW290397   7.752  12.560   8.290
29520SOL     OW90398  12.367   6.533  10.804
29520SOL    HW190399  12.350   6.445  10.770
29520SOL    HW290400  12.357   6.590  10.728
29521SOL     OW90401  11.414   7.032  10.440
29521SOL    HW190402  11.468   6.980  10.380
29521SOL    HW290403  11.415   7.120  10.403
29522SOL     OW90404   4.896   0.159   3.400
29522SOL    HW190405   4.929   0.248   3.389
29522SOL    HW290406   4.948   0.106   3.339
29523SOL     OW90407   2.229   5.015  14.227
29523SOL    HW190408   2.183   5.098  14.236
29523SOL    HW290409   2.296   5.031  14.161
29524SOL     OW90410   5.309  13.144   9.425
29524SOL    HW190411   5.396  13.104   9.433
29524SOL    HW290412   5.321  13.212   9.358
29525SOL     OW90413  10.460   7.219   9.208
29525SOL    HW190414  10.526   7.218   9.278
29525SOL    HW290415  10.458   7.310   9.179
29526SOL     OW90416   5.793  14.013  11.482
29526SOL    HW190417   5.790  13.933  11.534
29526SOL    HW290418   5.732  13.997  11.410
29527SOL     OW90419   1.104  13.965   9.643
29527SOL    HW190420   1.078  13.975   9.551
29527SOL    HW290421   1.185  13.913   9.639
29528SOL     OW90422   3.817   7.665   4.922
29528SOL    HW190423   3.786   7.584   4.881
29528SOL    HW290424   3.886   7.697   4.864
29529SOL     OW90425   4.542  12.671   0.916
29529SOL    HW190426   4.614  12.608   0.918
29529SOL    HW290427   4.466  12.621   0.948
29530SOL     OW90428  10.986   8.484  13.704
29530SOL    HW190429  10.921   8.467  13.772
29530SOL    HW290430  11.015   8.397  13.676
29531SOL     OW90431   9.840   4.676   0.986
29531SOL    HW190432   9.796   4.753   0.951
29531SOL    HW290433   9.891   4.708   1.060
29532SOL     OW90434   0.779   3.100   7.270
29532SOL    HW190435   0.739   3.183   7.244
29532SOL    HW290436   0.849   3.087   7.205
29533SOL     OW90437   4.724   4.433  10.556
29533SOL    HW190438   4.779   4.358  10.535
29533SOL    HW290439   4.783   4.508  10.552
29534SOL     OW90440  12.314   1.306   0.982
29534SOL    HW190441  12.403   1.315   1.018
29534SOL    HW290442  12.321   1.233   0.920
29535SOL     OW90443   6.759   0.354   0.235
29535SOL    HW190444   6.821   0.427   0.231
29535SOL    HW290445   6.722   0.350   0.146
29536SOL     OW90446  11.786  10.213   1.205
29536SOL    HW190447  11.699  10.215   1.247
29536SOL    HW290448  11.847  10.228   1.277
29537SOL     OW90449   0.030   7.538   2.431
29537SOL    HW190450  14.867   7.622   2.417
29537SOL    HW290451   0.005   7.485   2.354
29538SOL     OW90452  10.045   6.903  13.193
29538SOL    HW190453   9.950   6.918  13.194
29538SOL    HW290454  10.056   6.826  13.138
29539SOL     OW90455   5.462   6.540   8.815
29539SOL    HW190456   5.475   6.446   8.800
29539SOL    HW290457   5.376   6.545   8.857
29540SOL     OW90458  14.231   6.021  10.356
29540SOL    HW190459  14.229   6.116  10.344
29540SOL    HW290460  14.166   6.004  10.424
29541SOL     OW90461   5.377   7.331   6.794
29541SOL    HW190462   5.335   7.280   6.863
29541SOL    HW290463   5.459   7.363   6.833
29542SOL     OW90464   2.458   2.122  14.663
29542SOL    HW190465   2.471   2.027  14.663
29542SOL    HW290466   2.451   2.145  14.570
29543SOL     OW90467   1.935   6.612  12.847
29543SOL    HW190468   1.901   6.576  12.930
29543SOL    HW290469   1.859   6.613  12.789
29544SOL     OW90470  12.494   5.119   9.241
29544SOL    HW190471  12.575   5.117   9.190
29544SOL    HW290472  12.425   5.106   9.176
29545SOL     OW90473   6.125   4.309   9.575
29545SOL    HW190474   6.035   4.279   9.566
29545SOL    HW290475   6.119   4.404   9.565
29546SOL     OW90476  11.401   1.693   6.215
29546SOL    HW190477  11.491   1.701   6.247
29546SOL    HW290478  11.356   1.644   6.283
29547SOL     OW90479   8.871  11.227   6.992
29547SOL    HW190480   8.928  11.195   7.061
29547SOL    HW290481   8.797  11.167   6.992
29548SOL     OW90482   1.689   6.046   0.586
29548SOL    HW190483   1.741   6.084   0.515
29548SOL    HW290484   1.603   6.030   0.547
29549SOL     OW90485   3.130  12.932   9.980
29549SOL    HW190486   3.134  12.882   9.899
29549SOL    HW290487   3.138  13.023   9.953
29550SOL     OW90488   2.252  14.521   0.900
29550SOL    HW190489   2.261  14.609   0.936
29550SOL    HW290490   2.311  14.519   0.825
29551SOL     OW90491   7.592  12.357   0.594
29551SOL    HW190492   7.609  12.269   0.626
29551SOL    HW290493   7.663  12.374   0.532
29552SOL     OW90494   7.887   3.080   8.807
29552SOL    HW190495   7.891   3.137   8.730
29552SOL    HW290496   7.978   3.070   8.834
29553SOL     OW90497  12.586  14.231   2.714
29553SOL    HW190498  12.610  14.285   2.639
29553SOL    HW290499  12.533  14.161   2.677
29554SOL     OW90500   5.796  12.679  10.614
29554SOL    HW190501   5.828  12.647  10.698
29554SOL    HW290502   5.718  12.626  10.596
29555SOL     OW90503   5.931  12.001  12.211
29555SOL    HW190504   6.007  11.949  12.185
29555SOL    HW290505   5.915  12.059  12.137
29556SOL     OW90506   5.965  10.356   9.003
29556SOL    HW190507   5.906  10.416   8.957
29556SOL    HW290508   6.036  10.340   8.942
29557SOL     OW90509   6.542  10.918   5.586
29557SOL    HW190510   6.535  10.861   5.663
29557SOL    HW290511   6.610  10.981   5.609
29558SOL     OW90512   2.027   3.334   4.395
29558SOL    HW190513   2.032   3.406   4.458
29558SOL    HW290514   2.002   3.258   4.447
29559SOL     OW90515   7.436  10.907   2.186
29559SOL    HW190516   7.477  10.882   2.268
29559SOL    HW290517   7.500  10.884   2.119
29560SOL     OW90518  13.277   7.583   1.677
29560SOL    HW190519  13.270   7.634   1.757
29560SOL    HW290520  13.345   7.518   1.695
29561SOL     OW90521  14.103   2.411   6.186
29561SOL    HW190522  14.116   2.358   6.265
29561SOL    HW290523  14.080   2.347   6.118
29562SOL     OW90524   9.225   4.412   4.257
29562SOL    HW190525   9.318   4.436   4.262
29562SOL    HW290526   9.192   4.464   4.184
29563SOL     OW90527   8.271   1.286   8.729
29563SOL    HW190528   8.320   1.235   8.666
29563SOL    HW290529   8.275   1.235   8.810
29564SOL     OW90530   8.563   4.943   4.446
29564SOL    HW190531   8.532   4.960   4.357
29564SOL    HW290532   8.485   4.914   4.494
29565SOL     OW90533   7.799   5.305  12.553
29565SOL    HW190534   7.846   5.343  12.627
29565SOL    HW290535   7.860   5.242  12.516
29566SOL     OW90536   7.428   6.000   7.404
29566SOL    HW190537   7.497   5.942   7.374
29566SOL    HW290538   7.350   5.944   7.409
29567SOL     OW90539   5.090  14.443  11.441
29567SOL    HW190540   5.137  14.433  11.524
29567SOL    HW290541   5.118  14.368  11.388
29568SOL     OW90542   2.974  12.393  13.731
29568SOL    HW190543   2.917  12.324  13.765
29568SOL    HW290544   2.927  12.427  13.655
29569SOL     OW90545   7.848   1.818   9.233
29569SOL    HW190546   7.780   1.757   9.262
29569SOL    HW290547   7.928   1.765   9.230
29570SOL     OW90548   7.005  11.914   0.859
29570SOL    HW190549   6.930  11.873   0.903
29570SOL    HW290550   7.053  11.956   0.930
29571SOL     OW90551   1.321  11.378  14.187
29571SOL    HW190552   1.389  11.310  14.184
29571SOL    HW290553   1.351  11.444  14.124
29572SOL     OW90554   4.051   5.868   4.282
29572SOL    HW190555   4.120   5.847   4.218
29572SOL    HW290556   4.020   5.783   4.313
29573SOL     OW90557   5.313   5.978   4.593
29573SOL    HW190558   5.401   5.946   4.610
29573SOL    HW290559   5.274   5.913   4.534
29574SOL     OW90560   6.653   2.754  10.036
29574SOL    HW190561   6.717   2.811  10.078
29574SOL    HW290562   6.635   2.686  10.100
29575SOL     OW90563   5.953  13.785   1.297
29575SOL    HW190564   5.927  13.839   1.372
29575SOL    HW290565   5.881  13.793   1.235
29576SOL     OW90566  12.262   7.946  14.273
29576SOL    HW190567  12.196   7.965  14.339
29576SOL    HW290568  12.225   7.982  14.192
29577SOL     OW90569   6.425   1.082   5.925
29577SOL    HW190570   6.363   1.013   5.949
29577SOL    HW290571   6.369   1.157   5.903
29578SOL     OW90572   4.628  10.967  10.491
29578SOL    HW190573   4.593  10.932  10.409
29578SOL    HW290574   4.629  11.062  10.479
29579SOL     OW90575  12.246  10.807   1.301
29579SOL    HW190576  12.160  10.848   1.315
29579SOL    HW290577  12.238  10.721   1.342
29580SOL     OW90578  10.922  10.836   0.279
29580SOL    HW190579  10.842  10.880   0.250
29580SOL    HW290580  10.899  10.799   0.364
29581SOL     OW90581  13.789  12.840  14.422
29581SOL    HW190582  13.729  12.908  14.454
29581SOL    HW290583  13.875  12.869  14.450
29582SOL     OW90584  11.344   7.464  10.669
29582SOL    HW190585  11.376   7.487  10.756
29582SOL    HW290586  11.318   7.372  10.676
29583SOL     OW90587   5.095   2.174   8.337
29583SOL    HW190588   5.125   2.257   8.375
29583SOL    HW290589   5.042   2.201   8.262
29584SOL     OW90590   2.657   3.094   9.989
29584SOL    HW190591   2.668   3.143   9.907
29584SOL    HW290592   2.683   3.004   9.967
29585SOL     OW90593   3.893   1.651   2.452
29585SOL    HW190594   3.947   1.721   2.487
29585SOL    HW290595   3.864   1.602   2.529
29586SOL     OW90596   1.676   4.006  11.178
29586SOL    HW190597   1.630   4.090  11.170
29586SOL    HW290598   1.691   3.978  11.088
29587SOL     OW90599  11.518   4.674   4.109
29587SOL    HW190600  11.534   4.733   4.183
29587SOL    HW290601  11.600   4.674   4.060
29588SOL     OW90602  10.856  14.320  14.541
29588SOL    HW190603  10.798  14.345  14.612
29588SOL    HW290604  10.797  14.305  14.466
29589SOL     OW90605   0.618   9.229   2.270
29589SOL    HW190606   0.540   9.281   2.287
29589SOL    HW290607   0.678   9.251   2.341
29590SOL     OW90608  13.540  10.639  11.345
29590SOL    HW190609  13.612  10.590  11.383
29590SOL    HW290610  13.581  10.715  11.304
29591SOL     OW90611  10.599  11.261   6.519
29591SOL    HW190612  10.530  11.202   6.550
29591SOL    HW290613  10.603  11.330   6.585
29592SOL     OW90614  11.892   8.073   1.282
29592SOL    HW190615  11.807   8.033   1.262
29592SOL    HW290616  11.942   8.063   1.201
29593SOL     OW90617   6.582   1.566   4.337
29593SOL    HW190618   6.535   1.642   4.301
29593SOL    HW290619   6.518   1.522   4.393
29594SOL     OW90620  14.396  12.774  14.412
29594SOL    HW190621  14.390  12.686  14.449
29594SOL    HW290622  14.466  12.816  14.461
29595SOL     OW90623   2.553  12.667  10.442
29595SOL    HW190624   2.501  12.608  10.496
29595SOL    HW290625   2.524  12.755  10.469
29596SOL     OW90626   9.408   0.059   4.535
29596SOL    HW190627   9.420  14.852   4.497
29596SOL    HW290628   9.457   0.056   4.618
29597SOL     OW90629  13.724  14.080   2.206
29597SOL    HW190630  13.739  13.991   2.174
29597SOL    HW290631  13.808  14.107   2.243
29598SOL     OW90632   9.856   0.569   9.232
29598SOL    HW190633   9.929   0.571   9.170
29598SOL    HW290634   9.838   0.661   9.252
29599SOL     OW90635   7.017   0.141   4.848
29599SOL    HW190636   7.074   0.113   4.919
29599SOL    HW290637   7.072   0.139   4.770
29600SOL     OW90638   1.143   4.295   7.253
29600SOL    HW190639   1.163   4.256   7.168
29600SOL    HW290640   1.102   4.225   7.303
29601SOL     OW90641   4.749  14.069  12.410
29601SOL    HW190642   4.705  14.016  12.477
29601SOL    HW290643   4.839  14.038  12.410
29602SOL     OW90644   0.467  10.587   2.541
29602SOL    HW190645   0.490  10.678   2.521
29602SOL    HW290646   0.450  10.547   2.455
29603SOL     OW90647   5.298   5.010   1.618
29603SOL    HW190648   5.281   5.077   1.552
29603SOL    HW290649   5.390   4.986   1.604
29604SOL     OW90650  11.360  11.047   7.846
29604SOL    HW190651  11.316  10.963   7.836
29604SOL    HW290652  11.427  11.031   7.913
29605SOL     OW90653   4.169  11.629   5.989
29605SOL    HW190654   4.135  11.550   6.031
29605SOL    HW290655   4.246  11.599   5.941
29606SOL     OW90656   1.302   4.231   4.977
29606SOL    HW190657   1.244   4.165   5.016
29606SOL    HW290658   1.274   4.235   4.885
29607SOL     OW90659  12.552   5.717   5.676
29607SOL    HW190660  12.603   5.787   5.636
29607SOL    HW290661  12.576   5.720   5.769
29608SOL     OW90662   7.384  12.893   7.580
29608SOL    HW190663   7.415  12.831   7.514
29608SOL    HW290664   7.352  12.837   7.652
29609SOL     OW90665   8.025   2.359  14.374
29609SOL    HW190666   8.025   2.453  14.395
29609SOL    HW290667   7.982   2.354  14.289
29610SOL     OW90668  13.314  13.921   3.753
29610SOL    HW190669  13.271  13.909   3.668
29610SOL    HW290670  13.305  13.837   3.797
29611SOL     OW90671   6.063   1.929  14.519
29611SOL    HW190672   6.001   1.880  14.465
29611SOL    HW290673   6.073   2.013  14.473
29612SOL     OW90674  14.532   9.495  12.009
29612SOL    HW190675  14.505   9.414  11.966
29612SOL    HW290676  14.462   9.557  11.988
29613SOL     OW90677  10.164  11.945   1.361
29613SOL    HW190678  10.083  11.942   1.412
29613SOL    HW290679  10.135  11.944   1.269
29614SOL     OW90680   2.238  11.331   4.137
29614SOL    HW190681   2.224  11.390   4.063
29614SOL    HW290682   2.310  11.372   4.186
29615SOL     OW90683   4.096  13.745   1.972
29615SOL    HW190684   4.070  13.729   1.882
29615SOL    HW290685   4.141  13.829   1.969
29616SOL     OW90686   0.317   2.285   4.702
29616SOL    HW190687   0.294   2.340   4.777
29616SOL    HW290688   0.396   2.238   4.729
29617SOL     OW90689  10.000   3.567  12.339
29617SOL    HW190690   9.945   3.511  12.284
29617SOL    HW290691  10.063   3.507  12.378
29618SOL     OW90692   6.655   9.038  14.408
29618SOL    HW190693   6.594   9.010  14.340
29618SOL    HW290694   6.739   8.998  14.383
29619SOL     OW90695  12.688   6.605   4.902
29619SOL    HW190696  12.672   6.679   4.843
29619SOL    HW290697  12.600   6.570   4.921
29620SOL     OW90698   1.546   3.125   3.225
29620SOL    HW190699   1.483   3.096   3.290
29620SOL    HW290700   1.623   3.069   3.238
29621SOL     OW90701   9.549   1.803   5.375
29621SOL    HW190702   9.631   1.833   5.415
29621SOL    HW290703   9.564   1.808   5.281
29622SOL     OW90704   8.385   0.410   6.714
29622SOL    HW190705   8.355   0.331   6.760
29622SOL    HW290706   8.430   0.461   6.782
29623SOL     OW90707   3.704   0.720   0.560
29623SOL    HW190708   3.730   0.669   0.637
29623SOL    HW290709   3.684   0.655   0.493
29624SOL     OW90710   8.628   8.207   9.198
29624SOL    HW190711   8.660   8.169   9.116
29624SOL    HW290712   8.535   8.184   9.199
29625SOL     OW90713  10.204  14.365   1.366
29625SOL    HW190714  10.243  14.301   1.427
29625SOL    HW290715  10.272  14.381   1.301
29626SOL     OW90716  12.964   2.333  12.871
29626SOL    HW190717  12.913   2.329  12.952
29626SOL    HW290718  12.991   2.242  12.855
29627SOL     OW90719   6.445   7.424  10.479
29627SOL    HW190720   6.415   7.443  10.390
29627SOL    HW290721   6.489   7.340  10.472
29628SOL     OW90722   4.774   1.855  11.152
29628SOL    HW190723   4.801   1.774  11.195
29628SOL    HW290724   4.801   1.924  11.213
29629SOL     OW90725   2.660   0.064   7.626
29629SOL    HW190726   2.652  14.849   7.616
29629SOL    HW290727   2.589   0.088   7.686
29630SOL     OW90728  13.518  12.795   7.517
29630SOL    HW190729  13.562  12.854   7.579
29630SOL    HW290730  13.425  12.804   7.536
29631SOL     OW90731  14.296  14.416   3.582
29631SOL    HW190732  14.200  14.406   3.582
29631SOL    HW290733  14.321  14.412   3.490
29632SOL     OW90734   9.009  12.276   6.361
29632SOL    HW190735   9.012  12.243   6.271
29632SOL    HW290736   9.042  12.203   6.413
29633SOL     OW90737   4.087  13.422   9.816
29633SOL    HW190738   4.130  13.432   9.901
29633SOL    HW290739   4.098  13.507   9.774
29634SOL     OW90740   6.331   4.875   8.857
29634SOL    HW190741   6.246   4.912   8.835
29634SOL    HW290742   6.344   4.804   8.793
29635SOL     OW90743   4.152  13.191   6.713
29635SOL    HW190744   4.133  13.249   6.787
29635SOL    HW290745   4.226  13.139   6.742
29636SOL     OW90746   2.182   0.535   6.050
29636SOL    HW190747   2.273   0.565   6.058
29636SOL    HW290748   2.147   0.542   6.139
29637SOL     OW90749   9.479   2.077   5.897
29637SOL    HW190750   9.525   2.073   5.813
29637SOL    HW290751   9.525   2.145   5.946
29638SOL     OW90752  10.591   2.061   7.160
29638SOL    HW190753  10.560   2.149   7.141
29638SOL    HW290754  10.556   2.007   7.089
29639SOL     OW90755   3.707   2.190  14.364
29639SOL    HW190756   3.618   2.208  14.334
29639SOL    HW290757   3.724   2.100  14.336
29640SOL     OW90758   6.676  14.806  14.097
29640SOL    HW190759   6.713  14.815  14.010
29640SOL    HW290760   6.738  14.851  14.155
29641SOL     OW90761  12.449   7.063  12.236
29641SOL    HW190762  12.497   6.987  12.269
29641SOL    HW290763  12.464   7.060  12.141
29642SOL     OW90764  11.908  12.134  14.041
29642SOL    HW190765  11.915  12.212  13.986
29642SOL    HW290766  11.826  12.146  14.089
29643SOL     OW90767   4.940  13.534   0.102
29643SOL    HW190768   4.857  13.540   0.149
29643SOL    HW290769   5.001  13.494   0.164
29644SOL     OW90770   5.887   9.347   3.969
29644SOL    HW190771   5.875   9.408   4.042
29644SOL    HW290772   5.835   9.385   3.898
29645SOL     OW90773   7.281   2.033   6.159
29645SOL    HW190774   7.359   2.006   6.207
29645SOL    HW290775   7.293   2.126   6.142
29646SOL     OW90776   9.233   3.569   7.441
29646SOL    HW190777   9.177   3.576   7.364
29646SOL    HW290778   9.172   3.550   7.513
29647SOL     OW90779   3.992  12.385  11.425
29647SOL    HW190780   4.076  12.374  11.470
29647SOL    HW290781   3.935  12.424  11.491
29648SOL     OW90782   2.278   0.636   3.585
29648SOL    HW190783   2.262   0.663   3.675
29648SOL    HW290784   2.197   0.592   3.560
29649SOL     OW90785   0.033   4.013   1.343
29649SOL    HW190786  14.834   4.032   1.394
29649SOL    HW290787   0.009   4.033   1.253
29650SOL     OW90788  11.586  14.713  11.821
29650SOL    HW190789  11.604  14.620  11.833
29650SOL    HW290790  11.670  14.756  11.839
29651SOL     OW90791   1.366   4.658   3.047
29651SOL    HW190792   1.291   4.600   3.059
29651SOL    HW290793   1.434   4.622   3.104
29652SOL     OW90794   3.096   8.742  14.052
29652SOL    HW190795   3.105   8.711  13.962
29652SOL    HW290796   3.079   8.663  14.103
29653SOL     OW90797   3.994   8.641   6.106
29653SOL    HW190798   4.078   8.615   6.144
29653SOL    HW290799   3.928   8.596   6.159
29654SOL     OW90800   7.478   7.480   7.831
29654SOL    HW190801   7.464   7.574   7.839
29654SOL    HW290802   7.568   7.467   7.863
29655SOL     OW90803   5.085   5.625   9.332
29655SOL    HW190804   5.058   5.541   9.297
29655SOL    HW290805   5.068   5.619   9.426
29656SOL     OW90806   0.971  10.100  13.682
29656SOL    HW190807   0.941  10.145  13.603
29656SOL    HW290808   0.998  10.013  13.652
29657SOL     OW90809   2.575  14.757   7.230
29657SOL    HW190810   2.614  14.670   7.238
29657SOL    HW290811   2.603  14.788   7.144
29658SOL     OW90812   5.408  12.763   5.821
29658SOL    HW190813   5.458  12.821   5.763
29658SOL    HW290814   5.317  12.790   5.810
29659SOL     OW90815   7.714   8.993   7.500
29659SOL    HW190816   7.800   9.029   7.520
29659SOL    HW290817   7.725   8.952   7.414
29660SOL     OW90818  12.528  11.467   6.061
29660SOL    HW190819  12.595  11.403   6.085
29660SOL    HW290820  12.445  11.421   6.071
29661SOL     OW90821   0.813   8.810   8.694
29661SOL    HW190822   0.853   8.772   8.772
29661SOL    HW290823   0.742   8.865   8.728
29662SOL     OW90824   3.536  10.183  10.094
29662SOL    HW190825   3.554  10.208  10.003
29662SOL    HW290826   3.545  10.264  10.144
29663SOL     OW90827   2.349   7.746  12.332
29663SOL    HW190828   2.294   7.788  12.266
29663SOL    HW290829   2.294   7.677  12.369
29664SOL     OW90830   6.462   9.492   3.682
29664SOL    HW190831   6.529   9.434   3.720
29664SOL    HW290832   6.383   9.472   3.732
29665SOL     OW90833   8.941   6.951   2.430
29665SOL    HW190834   8.867   6.997   2.469
29665SOL    HW290835   8.934   6.861   2.463
29666SOL     OW90836   0.557   0.181  12.697
29666SOL    HW190837   0.527   0.148  12.612
29666SOL    HW290838   0.558   0.104  12.754
29667SOL     OW90839   6.007   7.338   7.811
29667SOL    HW190840   6.101   7.328   7.795
29667SOL    HW290841   5.966   7.324   7.726
29668SOL     OW90842   5.394   0.390   1.788
29668SOL    HW190843   5.439   0.355   1.711
29668SOL    HW290844   5.390   0.484   1.773
29669SOL     OW90845   3.846   3.965  11.855
29669SOL    HW190846   3.756   3.940  11.877
29669SOL    HW290847   3.867   4.035  11.916
29670SOL     OW90848   5.432   5.361   4.212
29670SOL    HW190849   5.516   5.402   4.234
29670SOL    HW290850   5.377   5.376   4.289
29671SOL     OW90851   2.917   4.690   9.883
29671SOL    HW190852   2.899   4.600   9.909
29671SOL    HW290853   2.960   4.682   9.798
29672SOL     OW90854   7.163   5.899  14.358
29672SOL    HW190855   7.096   5.967  14.361
29672SOL    HW290856   7.215   5.913  14.438
29673SOL     OW90857  11.745   7.816   0.956
29673SOL    HW190858  11.803   7.741   0.962
29673SOL    HW290859  11.727   7.826   0.862
29674SOL     OW90860  14.127   3.342  12.470
29674SOL    HW190861  14.066   3.414  12.458
29674SOL    HW290862  14.124   3.294  12.388
29675SOL     OW90863  12.918   1.070   0.516
29675SOL    HW190864  13.001   1.106   0.549
29675SOL    HW290865  12.856   1.084   0.587
29676SOL     OW90866  11.658  14.862   7.867
29676SOL    HW190867  11.596   0.049   7.836
29676SOL    HW290868  11.692   0.018   7.949
29677SOL     OW90869  13.646   4.203   8.606
29677SOL    HW190870  13.617   4.142   8.539
29677SOL    HW290871  13.699   4.150   8.665
29678SOL     OW90872   9.636  13.345   4.955
29678SOL    HW190873   9.685  13.310   4.880
29678SOL    HW290874   9.579  13.273   4.981
29679SOL     OW90875   0.035   3.971  13.420
29679SOL    HW190876   0.119   3.925  13.411
29679SOL    HW290877   0.044   4.047  13.363
29680SOL     OW90878   7.259  13.338  13.484
29680SOL    HW190879   7.308  13.284  13.423
29680SOL    HW290880   7.170  13.338  13.450
29681SOL     OW90881  13.247   9.250  10.163
29681SOL    HW190882  13.177   9.231  10.225
29681SOL    HW290883  13.314   9.184  10.181
29682SOL     OW90884  13.385   7.974   7.770
29682SOL    HW190885  13.316   8.034   7.740
29682SOL    HW290886  13.346   7.887   7.761
29683SOL     OW90887  10.239  13.973   5.836
29683SOL    HW190888  10.315  13.953   5.781
29683SOL    HW290889  10.169  13.919   5.800
29684SOL     OW90890   1.521   0.111   5.060
29684SOL    HW190891   1.523   0.204   5.083
29684SOL    HW290892   1.572   0.105   4.979
29685SOL     OW90893  10.054  10.007   6.219
29685SOL    HW190894  10.036  10.043   6.133
29685SOL    HW290895  10.139   9.964   6.210
29686SOL     OW90896  13.814   2.450   6.737
29686SOL    HW190897  13.721   2.433   6.755
29686SOL    HW290898  13.822   2.441   6.642
29687SOL     OW90899   9.988  13.626  10.746
29687SOL    HW190900   9.999  13.546  10.695
29687SOL    HW290901  10.067  13.631  10.800
29688SOL     OW90902   9.134  13.842   8.059
29688SOL    HW190903   9.123  13.928   8.020
29688SOL    HW290904   9.050  13.798   8.045
29689SOL     OW90905   7.172   5.861   6.357
29689SOL    HW190906   7.186   5.811   6.437
29689SOL    HW290907   7.092   5.911   6.374
29690SOL     OW90908   8.665  14.621   6.094
29690SOL    HW190909   8.681  14.700   6.145
29690SOL    HW290910   8.752  14.595   6.063
29691SOL     OW90911  14.117   0.823   8.032
29691SOL    HW190912  14.043   0.862   7.984
29691SOL    HW290913  14.183   0.807   7.965
29692SOL     OW90914   0.744   5.030   0.119
29692SOL    HW190915   0.656   5.016   0.084
29692SOL    HW290916   0.782   4.942   0.126
29693SOL     OW90917   5.743   4.826   4.838
29693SOL    HW190918   5.771   4.916   4.821
29693SOL    HW290919   5.824   4.775   4.832
29694SOL     OW90920   5.051   4.239  12.370
29694SOL    HW190921   5.033   4.245  12.276
29694SOL    HW290922   5.006   4.158  12.398
29695SOL     OW90923   7.954  13.257   5.749
29695SOL    HW190924   7.877  13.314   5.740
29695SOL    HW290925   7.969  13.251   5.843
29696SOL     OW90926   8.153   0.942  14.124
29696SOL    HW190927   8.194   0.855  14.128
29696SOL    HW290928   8.061   0.925  14.143
29697SOL     OW90929  14.570  11.670  12.287
29697SOL    HW190930  14.505  11.686  12.355
29697SOL    HW290931  14.544  11.587  12.247
29698SOL     OW90932  10.678   6.097   8.145
29698SOL    HW190933  10.609   6.140   8.195
29698SOL    HW290934  10.650   6.005   8.139
29699SOL     OW90935   2.020  10.972   2.734
29699SOL    HW190936   2.041  11.038   2.668
29699SOL    HW290937   2.053  10.890   2.698
29700SOL     OW90938   8.210  14.732   5.522
29700SOL    HW190939   8.179  14.668   5.586
29700SOL    HW290940   8.138  14.741   5.460
29701SOL     OW90941  10.880   6.136  11.286
29701SOL    HW190942  10.784   6.129  11.284
29701SOL    HW290943  10.897   6.230  11.277
29702SOL     OW90944  11.275  11.845   0.104
29702SOL    HW190945  11.203  11.803   0.152
29702SOL    HW290946  11.343  11.779   0.099
29703SOL     OW90947   2.469   1.591   5.885
29703SOL    HW190948   2.531   1.586   5.958
29703SOL    HW290949   2.456   1.500   5.858
29704SOL     OW90950  13.788   3.891   0.966
29704SOL    HW190951  13.872   3.931   0.988
29704SOL    HW290952  13.810   3.818   0.908
29705SOL     OW90953   9.417  14.051   2.807
29705SOL    HW190954   9.497  14.013   2.770
29705SOL    HW290955   9.348  14.027   2.745
29706SOL     OW90956   1.588   6.398   8.720
29706SOL    HW190957   1.565   6.327   8.659
29706SOL    HW290958   1.604   6.353   8.803
29707SOL     OW90959  12.124   2.486  11.499
29707SOL    HW190960  12.151   2.549  11.566
29707SOL    HW290961  12.200   2.478  11.441
29708SOL     OW90962   2.792   5.714  12.765
29708SOL    HW190963   2.888   5.716  12.764
29708SOL    HW290964   2.770   5.621  12.771
29709SOL     OW90965   5.610   8.373  14.798
29709SOL    HW190966   5.654   8.289  14.782
29709SOL    HW290967   5.678   8.438  14.781
29710SOL     OW90968  14.043   6.691  12.027
29710SOL    HW190969  14.134   6.663  12.022
29710SOL    HW290970  13.996   6.628  11.973
29711SOL     OW90971   8.275   5.378   0.157
29711SOL    HW190972   8.257   5.422   0.240
29711SOL    HW290973   8.199   5.322   0.143
29712SOL     OW90974   4.577   7.072  11.453
29712SOL    HW190975   4.491   7.075  11.411
29712SOL    HW290976   4.622   7.151  11.423
29713SOL     OW90977   5.235  10.166   4.839
29713SOL    HW190978   5.284  10.100   4.887
29713SOL    HW290979   5.278  10.249   4.863
29714SOL     OW90980   4.701   9.403  12.235
29714SOL    HW190981   4.781   9.412  12.183
29714SOL    HW290982   4.724   9.339  12.302
29715SOL     OW90983   2.038  12.990   5.511
29715SOL    HW190984   2.049  12.938   5.591
29715SOL    HW290985   1.980  13.061   5.537
29716SOL     OW90986   4.361   0.193   6.347
29716SOL    HW190987   4.328   0.168   6.433
29716SOL    HW290988   4.365   0.110   6.298
29717SOL     OW90989  14.189   1.312   0.016
29717SOL    HW190990  14.185   1.307  14.800
29717SOL    HW290991  14.229   1.397   0.035
29718SOL     OW90992   7.287   8.301   8.687
29718SOL    HW190993   7.260   8.296   8.779
29718SOL    HW290994   7.373   8.261   8.685
29719SOL     OW90995  11.977   3.875  14.321
29719SOL    HW190996  11.909   3.890  14.255
29719SOL    HW290997  12.029   3.955  14.320
29720SOL     OW90998  13.185  13.138   0.053
29720SOL    HW190999  13.208  13.052   0.019
29720SOL    HW291000  13.153  13.187  14.857
29721SOL     OW91001  11.392   2.425   2.485
29721SOL    HW191002  11.342   2.458   2.559
29721SOL    HW291003  11.367   2.332   2.479
29722SOL     OW91004   3.332   2.552   7.296
29722SOL    HW191005   3.410   2.503   7.321
29722SOL    HW291006   3.349   2.580   7.206
29723SOL     OW91007   4.875   0.206  13.221
29723SOL    HW191008   4.810   0.204  13.150
29723SOL    HW291009   4.826   0.178  13.298
29724SOL     OW91010  13.359   7.712   6.454
29724SOL    HW191011  13.299   7.658   6.505
29724SOL    HW291012  13.444   7.670   6.463
29725SOL     OW91013   4.332   4.060   4.689
29725SOL    HW191014   4.290   4.005   4.755
29725SOL    HW291015   4.261   4.110   4.650
29726SOL     OW91016  13.632  12.407   8.240
29726SOL    HW191017  13.657  12.449   8.323
29726SOL    HW291018  13.600  12.478   8.185
29727SOL     OW91019   4.171  12.515   9.403
29727SOL    HW191020   4.213  12.601   9.403
29727SOL    HW291021   4.082  12.532   9.372
29728SOL     OW91022   8.482  10.113  11.544
29728SOL    HW191023   8.390  10.142  11.544
29728SOL    HW291024   8.517  10.145  11.460
29729SOL     OW91025  14.140   3.297  14.172
29729SOL    HW191026  14.160   3.232  14.239
29729SOL    HW291027  14.214   3.292  14.111
29730SOL     OW91028   0.785   6.005   9.610
29730SOL    HW191029   0.716   5.995   9.545
29730SOL    HW291030   0.845   5.933   9.592
29731SOL     OW91031   5.970   2.311   0.504
29731SOL    HW191032   5.961   2.321   0.599
29731SOL    HW291033   6.015   2.390   0.475
29732SOL     OW91034   8.077   5.280  10.200
29732SOL    HW191035   8.143   5.211  10.205
29732SOL    HW291036   8.122   5.353  10.157
29733SOL     OW91037  10.305   6.053  12.629
29733SOL    HW191038  10.251   6.028  12.554
29733SOL    HW291039  10.369   6.114  12.594
29734SOL     OW91040   3.418   8.671   6.509
29734SOL    HW191041   3.481   8.607   6.476
29734SOL    HW291042   3.358   8.620   6.564
29735SOL     OW91043  12.022  11.664   1.773
29735SOL    HW191044  11.933  11.676   1.804
29735SOL    HW291045  12.068  11.743   1.801
29736SOL     OW91046  13.129   3.223   0.631
29736SOL    HW191047  13.034   3.231   0.624
29736SOL    HW291048  13.143   3.151   0.693
29737SOL     OW91049   2.506   7.241  13.802
29737SOL    HW191050   2.597   7.262  13.780
29737SOL    HW291051   2.512   7.165  13.859
29738SOL     OW91052   6.088   6.315   2.582
29738SOL    HW191053   6.036   6.314   2.663
29738SOL    HW291054   6.043   6.254   2.524
29739SOL     OW91055  10.075  11.344   2.533
29739SOL    HW191056  10.134  11.280   2.572
29739SOL    HW291057  10.043  11.302   2.453
29740SOL     OW91058   0.643   7.977   0.822
29740SOL    HW191059   0.647   8.000   0.914
29740SOL    HW291060   0.669   8.057   0.776
29741SOL     OW91061   8.820   4.058   7.427
29741SOL    HW191062   8.830   4.151   7.444
29741SOL    HW291063   8.836   4.016   7.512
29742SOL     OW91064   5.345  13.654  14.828
29742SOL    HW191065   5.273  13.659   0.011
29742SOL    HW291066   5.302  13.645  14.742
29743SOL     OW91067   9.956   4.197   4.953
29743SOL    HW191068   9.988   4.185   5.043
29743SOL    HW291069   9.917   4.284   4.953
29744SOL     OW91070   2.422   8.912   5.691
29744SOL    HW191071   2.417   8.818   5.675
29744SOL    HW291072   2.394   8.922   5.782
29745SOL     OW91073   6.959   2.502   0.461
29745SOL    HW191074   6.985   2.553   0.537
29745SOL    HW291075   7.039   2.458   0.432
29746SOL     OW91076  13.746  11.665  14.347
29746SOL    HW191077  13.651  11.669  14.337
29746SOL    HW291078  13.767  11.738  14.405
29747SOL     OW91079   4.485   6.639   6.798
29747SOL    HW191080   4.469   6.708   6.735
29747SOL    HW291081   4.451   6.560   6.757
29748SOL     OW91082   8.168  10.192   2.587
29748SOL    HW191083   8.103  10.246   2.632
29748SOL    HW291084   8.203  10.249   2.519
29749SOL     OW91085   9.811   3.740   4.318
29749SOL    HW191086   9.736   3.800   4.322
29749SOL    HW291087   9.886   3.797   4.306
29750SOL     OW91088  12.137  10.082   5.293
29750SOL    HW191089  12.199  10.155   5.297
29750SOL    HW291090  12.127  10.056   5.385
29751SOL     OW91091   6.173   4.776   0.061
29751SOL    HW191092   6.078   4.768   0.058
29751SOL    HW291093   6.196   4.758   0.153
29752SOL     OW91094   0.788   0.857   9.506
29752SOL    HW191095   0.736   0.934   9.481
29752SOL    HW291096   0.732   0.783   9.485
29753SOL     OW91097  14.594   5.797   0.940
29753SOL    HW191098  14.585   5.702   0.935
29753SOL    HW291099  14.507   5.828   0.965
29754SOL     OW91100   7.000  10.700   5.542
29754SOL    HW191101   7.085  10.667   5.511
29754SOL    HW291102   6.941  10.626   5.531
29755SOL     OW91103   6.754   0.045   7.935
29755SOL    HW191104   6.849   0.032   7.938
29755SOL    HW291105   6.719  14.837   7.918
29756SOL     OW91106  12.372   3.811  14.706
29756SOL    HW191107  12.339   3.826  14.795
29756SOL    HW291108  12.393   3.718  14.704
29757SOL     OW91109  10.904  11.607  11.348
29757SOL    HW191110  10.823  11.565  11.376
29757SOL    HW291111  10.927  11.666  11.421
29758SOL     OW91112   7.063   8.389   4.969
29758SOL    HW191113   7.035   8.330   4.899
29758SOL    HW291114   7.051   8.337   5.049
29759SOL     OW91115   4.756   8.112   9.489
29759SOL    HW191116   4.783   8.143   9.575
29759SOL    HW291117   4.838   8.102   9.440
29760SOL     OW91118   4.042  10.798   4.785
29760SOL    HW191119   3.954  10.803   4.747
29760SOL    HW291120   4.101  10.804   4.710
29761SOL     OW91121   4.406   4.036   7.435
29761SOL    HW191122   4.442   4.045   7.523
29761SOL    HW291123   4.365   3.949   7.434
29762SOL     OW91124   5.755  11.020  14.141
29762SOL    HW191125   5.835  11.024  14.090
29762SOL    HW291126   5.750  11.104  14.186
29763SOL     OW91127  11.877   9.260   9.058
29763SOL    HW191128  11.843   9.171   9.059
29763SOL    HW291129  11.848   9.296   8.974
29764SOL     OW91130  13.073   8.904  12.250
29764SOL    HW191131  13.019   8.902  12.171
29764SOL    HW291132  13.091   8.812  12.270
29765SOL     OW91133   2.383   1.701   6.865
29765SOL    HW191134   2.463   1.717   6.815
29765SOL    HW291135   2.356   1.612   6.840
29766SOL     OW91136  13.768   5.367  14.481
29766SOL    HW191137  13.831   5.382  14.411
29766SOL    HW291138  13.695   5.323  14.439
29767SOL     OW91139   8.556  14.093   0.767
29767SOL    HW191140   8.503  14.172   0.759
29767SOL    HW291141   8.635  14.112   0.718
29768SOL     OW91142   0.369   9.170  13.196
29768SOL    HW191143   0.355   9.110  13.269
29768SOL    HW291144   0.401   9.114  13.125
29769SOL     OW91145   4.629  11.387   1.645
29769SOL    HW191146   4.609  11.325   1.575
29769SOL    HW291147   4.543  11.413   1.678
29770SOL     OW91148   2.411   5.447  14.657
29770SOL    HW191149   2.397   5.378  14.721
29770SOL    HW291150   2.362   5.522  14.691
29771SOL     OW91151   3.177   4.943   1.484
29771SOL    HW191152   3.261   4.918   1.445
29771SOL    HW291153   3.149   4.865   1.533
29772SOL     OW91154  11.881  12.476  14.087
29772SOL    HW191155  11.947  12.488  14.156
29772SOL    HW291156  11.798  12.480  14.134
29773SOL     OW91157   8.258   8.909  14.434
29773SOL    HW191158   8.337   8.908  14.380
29773SOL    HW291159   8.199   8.970  14.389
29774SOL     OW91160   0.959   0.830   4.633
29774SOL    HW191161   0.938   0.923   4.642
29774SOL    HW291162   0.875   0.786   4.645
29775SOL     OW91163  14.360   3.386  12.102
29775SOL    HW191164  14.308   3.393  12.022
29775SOL    HW291165  14.344   3.297  12.134
29776SOL     OW91166   9.004   4.735   7.759
29776SOL    HW191167   9.084   4.783   7.736
29776SOL    HW291168   8.957   4.727   7.677
29777SOL     OW91169  12.521  10.286   0.249
29777SOL    HW191170  12.537  10.381   0.242
29777SOL    HW291171  12.581  10.247   0.186
29778SOL     OW91172   0.660   3.792   8.329
29778SOL    HW191173   0.704   3.771   8.411
29778SOL    HW291174   0.726   3.774   8.262
29779SOL     OW91175  12.587  13.578   4.145
29779SOL    HW191176  12.521  13.518   4.178
29779SOL    HW291177  12.665  13.524   4.132
29780SOL     OW91178   4.101   6.409   3.008
29780SOL    HW191179   4.156   6.453   2.943
29780SOL    HW291180   4.152   6.332   3.034
29781SOL     OW91181  14.040   1.784   9.337
29781SOL    HW191182  13.976   1.718   9.311
29781SOL    HW291183  14.123   1.753   9.300
29782SOL     OW91184  13.754   9.320   7.513
29782SOL    HW191185  13.690   9.344   7.581
29782SOL    HW291186  13.741   9.386   7.445
29783SOL     OW91187   7.293  12.305   9.884
29783SOL    HW191188   7.257  12.231   9.834
29783SOL    HW291189   7.221  12.334   9.939
29784SOL     OW91190   3.163  13.743   0.947
29784SOL    HW191191   3.190  13.736   1.039
29784SOL    HW291192   3.217  13.814   0.913
29785SOL     OW91193   6.242   8.799  13.628
29785SOL    HW191194   6.241   8.821  13.535
29785SOL    HW291195   6.258   8.882  13.673
29786SOL     OW91196   6.264  13.233   2.391
29786SOL    HW191197   6.320  13.229   2.469
29786SOL    HW291198   6.324  13.231   2.317
29787SOL     OW91199  11.796   8.955   0.537
29787SOL    HW191200  11.836   9.012   0.471
29787SOL    HW291201  11.703   8.977   0.535
29788SOL     OW91202   5.923  12.603   4.019
29788SOL    HW191203   5.914  12.599   3.924
29788SOL    HW291204   5.898  12.515   4.050
29789SOL     OW91205  12.327   1.230   4.592
29789SOL    HW191206  12.241   1.201   4.564
29789SOL    HW291207  12.387   1.165   4.555
29790SOL     OW91208   2.060   3.391   5.346
29790SOL    HW191209   2.153   3.401   5.366
29790SOL    HW291210   2.051   3.300   5.318
29791SOL     OW91211   6.033   9.827  12.622
29791SOL    HW191212   5.989   9.746  12.598
29791SOL    HW291213   6.125   9.813  12.596
29792SOL     OW91214   7.463   4.298   8.157
29792SOL    HW191215   7.491   4.307   8.248
29792SOL    HW291216   7.373   4.268   8.163
29793SOL     OW91217   4.221   9.972  10.287
29793SOL    HW191218   4.272   9.897  10.258
29793SOL    HW291219   4.131   9.941  10.290
29794SOL     OW91220  11.932   3.423  11.443
29794SOL    HW191221  12.025   3.416  11.465
29794SOL    HW291222  11.922   3.512  11.408
29795SOL     OW91223  14.104   0.679   4.275
29795SOL    HW191224  14.176   0.630   4.315
29795SOL    HW291225  14.148   0.742   4.217
29796SOL     OW91226   4.137   9.830   6.605
29796SOL    HW191227   4.112   9.913   6.563
29796SOL    HW291228   4.054   9.783   6.617
29797SOL     OW91229   3.579  14.336   1.582
29797SOL    HW191230   3.630  14.343   1.502
29797SOL    HW291231   3.640  14.362   1.651
29798SOL     OW91232  11.982  13.710   9.333
29798SOL    HW191233  11.981  13.770   9.407
29798SOL    HW291234  11.903  13.658   9.343
29799SOL     OW91235   9.172   4.915   0.406
29799SOL    HW191236   9.099   4.859   0.433
29799SOL    HW291237   9.154   4.933   0.313
29800SOL     OW91238  13.110  11.708   2.171
29800SOL    HW191239  13.083  11.777   2.110
29800SOL    HW291240  13.031  11.654   2.182
29801SOL     OW91241  12.142   0.885   6.788
29801SOL    HW191242  12.223   0.835   6.778
29801SOL    HW291243  12.156   0.935   6.869
29802SOL     OW91244   9.693   8.836   7.989
29802SOL    HW191245   9.606   8.821   8.025
29802SOL    HW291246   9.678   8.891   7.912
29803SOL     OW91247  12.029   6.548  14.051
29803SOL    HW191248  12.111   6.582  14.088
29803SOL    HW291249  12.006   6.612  13.983
29804SOL     OW91250   1.098   9.582   3.112
29804SOL    HW191251   1.028   9.534   3.069
29804SOL    HW291252   1.153   9.614   3.039
29805SOL     OW91253   8.544  12.687   9.739
29805SOL    HW191254   8.615  12.745   9.767
29805SOL    HW291255   8.515  12.644   9.819
29806SOL     OW91256   9.046  13.181   1.181
29806SOL    HW191257   8.959  13.148   1.201
29806SOL    HW291258   9.047  13.187   1.085
29807SOL     OW91259  11.036   6.452  10.554
29807SOL    HW191260  10.984   6.528  10.579
29807SOL    HW291261  11.126   6.475  10.576
29808SOL     OW91262   2.739   2.009   9.578
29808SOL    HW191263   2.755   2.103   9.570
29808SOL    HW291264   2.711   1.982   9.491
29809SOL     OW91265  13.506   1.872   6.009
29809SOL    HW191266  13.498   1.850   5.916
29809SOL    HW291267  13.585   1.827   6.038
29810SOL     OW91268   2.199  14.591   2.191
29810SOL    HW191269   2.160  14.616   2.107
29810SOL    HW291270   2.137  14.529   2.229
29811SOL     OW91271   6.830  14.430   6.915
29811SOL    HW191272   6.914  14.415   6.958
29811SOL    HW291273   6.852  14.462   6.828
29812SOL     OW91274   2.737   4.413   0.113
29812SOL    HW191275   2.643   4.427   0.108
29812SOL    HW291276   2.764   4.462   0.191
29813SOL     OW91277  13.863   4.087   6.737
29813SOL    HW191278  13.953   4.098   6.708
29813SOL    HW291279  13.866   4.104   6.831
29814SOL     OW91280   2.400  12.185   7.867
29814SOL    HW191281   2.452  12.126   7.921
29814SOL    HW291282   2.372  12.132   7.792
29815SOL     OW91283   2.090   2.862   3.250
29815SOL    HW191284   2.109   2.768   3.241
29815SOL    HW291285   2.106   2.897   3.162
29816SOL     OW91286   8.405  10.657   2.205
29816SOL    HW191287   8.325  10.685   2.249
29816SOL    HW291288   8.476  10.688   2.262
29817SOL     OW91289   2.530   5.333   0.370
29817SOL    HW191290   2.575   5.326   0.285
29817SOL    HW291291   2.544   5.248   0.411
29818SOL     OW91292  11.048   6.190  14.190
29818SOL    HW191293  11.001   6.175  14.107
29818SOL    HW291294  11.138   6.165  14.171
29819SOL     OW91295  13.951   8.978  10.499
29819SOL    HW191296  14.025   8.958  10.556
29819SOL    HW291297  13.966   8.925  10.421
29820SOL     OW91298   1.611  14.582   3.519
29820SOL    HW191299   1.691  14.626   3.489
29820SOL    HW291300   1.572  14.644   3.581
29821SOL     OW91301   8.387  13.774  10.556
29821SOL    HW191302   8.368  13.783  10.462
29821SOL    HW291303   8.330  13.838  10.598
29822SOL     OW91304   6.966  11.536  13.259
29822SOL    HW191305   7.019  11.456  13.260
29822SOL    HW291306   6.891  11.514  13.204
29823SOL     OW91307   2.186   6.161   9.569
29823SOL    HW191308   2.102   6.167   9.615
29823SOL    HW291309   2.244   6.119   9.632
29824SOL     OW91310   1.018  14.667   5.008
29824SOL    HW191311   1.082  14.685   5.077
29824SOL    HW291312   1.068  14.617   4.943
29825SOL     OW91313  11.700  13.883  11.414
29825SOL    HW191314  11.618  13.915  11.450
29825SOL    HW291315  11.697  13.788  11.428
29826SOL     OW91316   7.991  10.895   5.842
29826SOL    HW191317   7.911  10.872   5.890
29826SOL    HW291318   8.005  10.987   5.863
29827SOL     OW91319   8.591   1.382  14.628
29827SOL    HW191320   8.625   1.319  14.692
29827SOL    HW291321   8.626   1.352  14.544
29828SOL     OW91322   8.618   9.793   5.115
29828SOL    HW191323   8.532   9.820   5.145
29828SOL    HW291324   8.606   9.703   5.086
29829SOL     OW91325   3.925  14.590   4.078
29829SOL    HW191326   3.930  14.660   4.143
29829SOL    HW291327   4.005  14.539   4.091
29830SOL     OW91328  11.837  10.528   1.903
29830SOL    HW191329  11.750  10.505   1.936
29830SOL    HW291330  11.875  10.443   1.878
29831SOL     OW91331   8.316   0.714   4.678
29831SOL    HW191332   8.278   0.663   4.607
29831SOL    HW291333   8.287   0.804   4.661
29832SOL     OW91334   1.209  14.323   3.729
29832SOL    HW191335   1.128  14.291   3.769
29832SOL    HW291336   1.278  14.296   3.788
29833SOL     OW91337   6.358   7.019   8.882
29833SOL    HW191338   6.268   6.988   8.878
29833SOL    HW291339   6.354   7.110   8.854
29834SOL     OW91340   0.066   6.580  14.608
29834SOL    HW191341   0.155   6.608  14.633
29834SOL    HW291342   0.047   6.630  14.529
29835SOL     OW91343  11.210  10.720  13.976
29835SOL    HW191344  11.188  10.703  14.068
29835SOL    HW291345  11.205  10.634  13.935
29836SOL     OW91346  12.349   2.055   2.850
29836SOL    HW191347  12.288   2.011   2.908
29836SOL    HW291348  12.376   1.987   2.787
29837SOL     OW91349   1.590   3.825   1.151
29837SOL    HW191350   1.668   3.772   1.166
29837SOL    HW291351   1.536   3.772   1.093
29838SOL     OW91352  11.428  11.447   3.562
29838SOL    HW191353  11.357  11.392   3.597
29838SOL    HW291354  11.409  11.535   3.596
29839SOL     OW91355  11.034   6.504   5.861
29839SOL    HW191356  11.121   6.539   5.878
29839SOL    HW291357  10.977   6.581   5.858
29840SOL     OW91358  13.480   6.689   1.608
29840SOL    HW191359  13.422   6.697   1.533
29840SOL    HW291360  13.568   6.706   1.573
29841SOL     OW91361  14.863  12.691   3.204
29841SOL    HW191362   0.026  12.606   3.217
29841SOL    HW291363  14.827  12.686   3.115
29842SOL     OW91364   7.610  13.934   3.757
29842SOL    HW191365   7.638  13.890   3.677
29842SOL    HW291366   7.565  13.867   3.807
29843SOL     OW91367   0.973   0.007   3.141
29843SOL    HW191368   1.017  14.802   3.128
29843SOL    HW291369   0.912  14.871   3.212
29844SOL     OW91370   9.562   1.649   4.453
29844SOL    HW191371   9.648   1.611   4.434
29844SOL    HW291372   9.514   1.645   4.370
29845SOL     OW91373  11.202   6.306  14.394
29845SOL    HW191374  11.117   6.290  14.354
29845SOL    HW291375  11.258   6.333  14.321
29846SOL     OW91376  14.375  11.898  12.533
29846SOL    HW191377  14.348  11.955  12.461
29846SOL    HW291378  14.313  11.915  12.603
29847SOL     OW91379   0.875   7.233   3.719
29847SOL    HW191380   0.805   7.232   3.785
29847SOL    HW291381   0.832   7.263   3.639
29848SOL     OW91382   4.417  12.978   8.280
29848SOL    HW191383   4.499  13.025   8.292
29848SOL    HW291384   4.402  12.979   8.185
29849SOL     OW91385   3.481   6.964   1.353
29849SOL    HW191386   3.438   6.884   1.383
29849SOL    HW291387   3.571   6.936   1.334
29850SOL     OW91388  10.928   5.491  11.745
29850SOL    HW191389  10.911   5.508  11.838
29850SOL    HW291390  10.953   5.576  11.709
29851SOL     OW91391  14.035  11.599   9.010
29851SOL    HW191392  13.975  11.526   8.997
29851SOL    HW291393  13.995  11.651   9.079
29852SOL     OW91394  12.072   2.819   5.365
29852SOL    HW191395  11.978   2.807   5.356
29852SOL    HW291396  12.098   2.870   5.289
29853SOL     OW91397   4.016  11.283   9.001
29853SOL    HW191398   3.956  11.296   8.928
29853SOL    HW291399   4.085  11.227   8.966
29854SOL     OW91400  13.192   3.424   6.631
29854SOL    HW191401  13.151   3.380   6.557
29854SOL    HW291402  13.156   3.380   6.708
29855SOL     OW91403  14.802   7.983   8.211
29855SOL    HW191404  14.878   8.040   8.199
29855SOL    HW291405  14.839   7.896   8.223
29856SOL     OW91406   7.216   7.028   9.627
29856SOL    HW191407   7.134   7.004   9.584
29856SOL    HW291408   7.190   7.087   9.698
29857SOL     OW91409   0.084   9.107  12.053
29857SOL    HW191410   0.163   9.105  12.107
29857SOL    HW291411   0.015   9.072  12.110
29858SOL     OW91412  13.105   2.926   8.941
29858SOL    HW191413  13.049   2.877   9.002
29858SOL    HW291414  13.056   3.005   8.920
29859SOL     OW91415  10.467  14.862   6.921
29859SOL    HW191416  10.548  14.812   6.919
29859SOL    HW291417  10.426  14.840   7.005
29860SOL     OW91418   9.871   0.635   0.381
29860SOL    HW191419   9.893   0.545   0.406
29860SOL    HW291420   9.860   0.681   0.464
29861SOL     OW91421   1.436  14.818   8.558
29861SOL    HW191422   1.412  14.726   8.549
29861SOL    HW291423   1.358  14.860   8.594
29862SOL     OW91424   0.360   7.161   5.832
29862SOL    HW191425   0.376   7.091   5.769
29862SOL    HW291426   0.276   7.139   5.871
29863SOL     OW91427   8.183   4.249   2.255
29863SOL    HW191428   8.235   4.206   2.322
29863SOL    HW291429   8.128   4.311   2.303
29864SOL     OW91430  10.842   1.365   3.256
29864SOL    HW191431  10.910   1.336   3.317
29864SOL    HW291432  10.830   1.290   3.197
29865SOL     OW91433  13.360   8.844  12.585
29865SOL    HW191434  13.388   8.861  12.674
29865SOL    HW291435  13.370   8.928  12.540
29866SOL     OW91436   7.352   6.622   1.557
29866SOL    HW191437   7.445   6.606   1.567
29866SOL    HW291438   7.319   6.547   1.507
29867SOL     OW91439  11.890   2.033   2.349
29867SOL    HW191440  11.845   1.964   2.301
29867SOL    HW291441  11.823   2.066   2.410
29868SOL     OW91442   6.323   1.697  12.481
29868SOL    HW191443   6.304   1.614  12.524
29868SOL    HW291444   6.315   1.762  12.550
29869SOL     OW91445   7.602   7.224   4.644
29869SOL    HW191446   7.653   7.305   4.639
29869SOL    HW291447   7.511   7.253   4.632
29870SOL     OW91448   5.528  12.078   1.338
29870SOL    HW191449   5.516  11.989   1.371
29870SOL    HW291450   5.440  12.108   1.318
29871SOL     OW91451  14.754  13.835  13.805
29871SOL    HW191452  14.771  13.903  13.740
29871SOL    HW291453  14.659  13.821  13.802
29872SOL     OW91454   1.673  10.252   7.142
29872SOL    HW191455   1.599  10.202   7.177
29872SOL    HW291456   1.750  10.208   7.177
29873SOL     OW91457  11.791   0.913   1.398
29873SOL    HW191458  11.793   0.954   1.484
29873SOL    HW291459  11.847   0.835   1.407
29874SOL     OW91460   8.779   9.460   0.971
29874SOL    HW191461   8.815   9.482   0.885
29874SOL    HW291462   8.685   9.472   0.962
29875SOL     OW91463  10.002   7.132   6.076
29875SOL    HW191464   9.940   7.203   6.092
29875SOL    HW291465  10.055   7.162   6.002
29876SOL     OW91466   9.308   4.148   9.148
29876SOL    HW191467   9.272   4.092   9.079
29876SOL    HW291468   9.257   4.229   9.141
29877SOL     OW91469  14.329   9.400   5.173
29877SOL    HW191470  14.251   9.345   5.181
29877SOL    HW291471  14.397   9.341   5.141
29878SOL     OW91472   5.655   4.413   5.614
29878SOL    HW191473   5.648   4.333   5.667
29878SOL    HW291474   5.707   4.473   5.668
29879SOL     OW91475   6.333   5.066  14.454
29879SOL    HW191476   6.342   5.138  14.391
29879SOL    HW291477   6.259   5.093  14.509
29880SOL     OW91478   0.102  10.371  11.405
29880SOL    HW191479   0.127  10.279  11.404
29880SOL    HW291480   0.183  10.418  11.389
29881SOL     OW91481   0.329   2.661  12.905
29881SOL    HW191482   0.298   2.570  12.906
29881SOL    HW291483   0.314   2.690  12.815
29882SOL     OW91484   9.530   3.643   7.949
29882SOL    HW191485   9.515   3.730   7.984
29882SOL    HW291486   9.502   3.648   7.858
29883SOL     OW91487   8.898   0.904  14.096
29883SOL    HW191488   8.954   0.874  14.025
29883SOL    HW291489   8.957   0.952  14.154
29884SOL     OW91490   6.663  13.852   9.182
29884SOL    HW191491   6.733  13.903   9.223
29884SOL    HW291492   6.674  13.764   9.217
29885SOL     OW91493   4.918   8.871  11.019
29885SOL    HW191494   4.876   8.947  11.060
29885SOL    HW291495   4.911   8.887  10.925
29886SOL     OW91496   2.323   1.485  14.453
29886SOL    HW191497   2.408   1.507  14.414
29886SOL    HW291498   2.322   1.533  14.536
29887SOL     OW91499   0.243   3.539   9.500
29887SOL    HW191500   0.228   3.579   9.414
29887SOL    HW291501   0.339   3.534   9.506
29888SOL     OW91502   8.232   2.397   2.815
29888SOL    HW191503   8.267   2.342   2.885
29888SOL    HW291504   8.167   2.342   2.771
29889SOL     OW91505   8.623   7.596   1.843
29889SOL    HW191506   8.545   7.649   1.862
29889SOL    HW291507   8.613   7.569   1.752
29890SOL     OW91508  14.193   4.620   1.826
29890SOL    HW191509  14.196   4.579   1.740
29890SOL    HW291510  14.267   4.681   1.827
29891SOL     OW91511   8.694   4.101   8.896
29891SOL    HW191512   8.724   4.061   8.814
29891SOL    HW291513   8.694   4.029   8.959
29892SOL     OW91514   0.910  14.541   1.010
29892SOL    HW191515   0.952  14.511   1.090
29892SOL    HW291516   0.827  14.578   1.039
29893SOL     OW91517  11.528   1.850  13.371
29893SOL    HW191518  11.617   1.874  13.344
29893SOL    HW291519  11.485   1.821  13.290
29894SOL     OW91520  12.947   7.467   0.101
29894SOL    HW191521  13.015   7.436   0.161
29894SOL    HW291522  12.888   7.518   0.156
29895SOL     OW91523   4.292  11.795  13.454
29895SOL    HW191524   4.360  11.731  13.434
29895SOL    HW291525   4.329  11.848  13.524
29896SOL     OW91526   6.043   1.295   8.198
29896SOL    HW191527   6.112   1.290   8.133
29896SOL    HW291528   5.969   1.334   8.152
29897SOL     OW91529  11.253   0.199   1.295
29897SOL    HW191530  11.199   0.277   1.284
29897SOL    HW291531  11.338   0.223   1.258
29898SOL     OW91532  14.562   5.110  11.179
29898SOL    HW191533  14.473   5.121  11.215
29898SOL    HW291534  14.604   5.049  11.240
29899SOL     OW91535  12.759  11.515  13.789
29899SOL    HW191536  12.691  11.564  13.834
29899SOL    HW291537  12.831  11.578  13.779
29900SOL     OW91538   4.854  13.084   6.665
29900SOL    HW191539   4.856  13.071   6.760
29900SOL    HW291540   4.924  13.028   6.632
29901SOL     OW91541  13.334   4.111   0.063
29901SOL    HW191542  13.366   4.048   0.128
29901SOL    HW291543  13.349   4.068  14.858
29902SOL     OW91544  14.500   6.480  14.530
29902SOL    HW191545  14.436   6.551  14.532
29902SOL    HW291546  14.574   6.514  14.581
29903SOL     OW91547   1.943  14.221   7.196
29903SOL    HW191548   1.981  14.192   7.279
29903SOL    HW291549   1.980  14.308   7.181
29904SOL     OW91550   2.416  13.322   8.277
29904SOL    HW191551   2.344  13.362   8.227
29904SOL    HW291552   2.381  13.236   8.303
29905SOL     OW91553   9.932   8.451   6.714
29905SOL    HW191554   9.899   8.537   6.687
29905SOL    HW291555  10.022   8.468   6.741
29906SOL     OW91556   4.859   9.268   5.832
29906SOL    HW191557   4.881   9.331   5.763
29906SOL    HW291558   4.875   9.315   5.914
29907SOL     OW91559   6.929   7.476   1.350
29907SOL    HW191560   6.962   7.430   1.273
29907SOL    HW291561   6.915   7.407   1.415
29908SOL     OW91562  13.953  13.552   5.865
29908SOL    HW191563  14.029  13.523   5.915
29908SOL    HW291564  13.921  13.473   5.822
29909SOL     OW91565   7.029   5.999  14.637
29909SOL    HW191566   7.027   5.905  14.653
29909SOL    HW291567   6.972   6.012  14.562
29910SOL     OW91568  11.968  14.138  14.408
29910SOL    HW191569  11.964  14.080  14.332
29910SOL    HW291570  11.879  14.138  14.443
29911SOL     OW91571   6.438   1.512   6.912
29911SOL    HW191572   6.388   1.465   6.979
29911SOL    HW291573   6.378   1.522   6.838
29912SOL     OW91574  14.116  10.665   5.404
29912SOL    HW191575  14.050  10.674   5.473
29912SOL    HW291576  14.099  10.737   5.345
29913SOL     OW91577   6.755   0.336   6.445
29913SOL    HW191578   6.817   0.407   6.425
29913SOL    HW291579   6.673   0.363   6.404
29914SOL     OW91580   5.393   0.215  12.931
29914SOL    HW191581   5.424   0.178  12.848
29914SOL    HW291582   5.421   0.307  12.928
29915SOL     OW91583  14.368   2.791   9.345
29915SOL    HW191584  14.416   2.720   9.302
29915SOL    HW291585  14.358   2.762   9.436
29916SOL     OW91586   8.277  13.139  11.551
29916SOL    HW191587   8.194  13.119  11.594
29916SOL    HW291588   8.266  13.108  11.461
29917SOL     OW91589   4.504  12.983   8.651
29917SOL    HW191590   4.590  12.959   8.685
29917SOL    HW291591   4.454  13.008   8.728
29918SOL     OW91592   3.273  12.980  13.301
29918SOL    HW191593   3.180  12.962  13.289
29918SOL    HW291594   3.316  12.921  13.239
29919SOL     OW91595   1.205  12.278   6.821
29919SOL    HW191596   1.193  12.296   6.915
29919SOL    HW291597   1.207  12.182   6.816
29920SOL     OW91598   4.863   8.602  14.374
29920SOL    HW191599   4.942   8.589  14.321
29920SOL    HW291600   4.888   8.573  14.462
29921SOL     OW91601  12.897   4.970   7.649
29921SOL    HW191602  12.957   5.007   7.713
29921SOL    HW291603  12.951   4.910   7.597
29922SOL     OW91604   9.984   3.600  13.465
29922SOL    HW191605  10.049   3.604  13.535
29922SOL    HW291606   9.900   3.602  13.510
29923SOL     OW91607   0.179   2.425  12.932
29923SOL    HW191608   0.149   2.334  12.935
29923SOL    HW291609   0.126   2.470  12.998
29924SOL     OW91610  12.641  10.328   5.198
29924SOL    HW191611  12.558  10.374   5.182
29924SOL    HW291612  12.657  10.277   5.119
29925SOL     OW91613   7.176   7.443   2.687
29925SOL    HW191614   7.254   7.389   2.698
29925SOL    HW291615   7.188   7.486   2.602
29926SOL     OW91616   8.188  10.069   8.146
29926SOL    HW191617   8.168   9.989   8.194
29926SOL    HW291618   8.284  10.075   8.146
29927SOL     OW91619   8.498  12.529   7.233
29927SOL    HW191620   8.559  12.509   7.161
29927SOL    HW291621   8.555  12.548   7.308
29928SOL     OW91622  10.327   5.973   8.573
29928SOL    HW191623  10.321   5.957   8.667
29928SOL    HW291624  10.384   5.903   8.540
29929SOL     OW91625  14.407  13.688   0.039
29929SOL    HW191626  14.420  13.778   0.070
29929SOL    HW291627  14.462  13.682  14.840
29930SOL     OW91628   1.642   9.767   9.884
29930SOL    HW191629   1.704   9.695   9.873
29930SOL    HW291630   1.578   9.755   9.813
29931SOL     OW91631  13.054   1.206  10.269
29931SOL    HW191632  13.119   1.156  10.221
29931SOL    HW291633  13.064   1.295  10.238
29932SOL     OW91634   9.736   2.306  10.652
29932SOL    HW191635   9.680   2.349  10.588
29932SOL    HW291636   9.705   2.215  10.654
29933SOL     OW91637   3.247  12.964  10.678
29933SOL    HW191638   3.312  12.934  10.614
29933SOL    HW291639   3.214  13.045  10.641
29934SOL     OW91640  12.391  14.238   7.025
29934SOL    HW191641  12.459  14.295   6.989
29934SOL    HW291642  12.336  14.297   7.077
29935SOL     OW91643   1.198   0.802   1.148
29935SOL    HW191644   1.103   0.805   1.139
29935SOL    HW291645   1.224   0.720   1.105
29936SOL     OW91646   8.337  13.816   2.312
29936SOL    HW191647   8.339  13.725   2.281
29936SOL    HW291648   8.248  13.846   2.292
29937SOL     OW91649  13.846   6.991  13.996
29937SOL    HW191650  13.929   7.033  13.975
29937SOL    HW291651  13.867   6.898  14.005
29938SOL     OW91652   6.991   3.039   5.348
29938SOL    HW191653   7.015   3.128   5.326
29938SOL    HW291654   7.052   2.984   5.299
29939SOL     OW91655   2.434   1.452   9.666
29939SOL    HW191656   2.447   1.369   9.621
29939SOL    HW291657   2.422   1.428   9.758
29940SOL     OW91658  10.840   8.948  12.111
29940SOL    HW191659  10.779   8.883  12.148
29940SOL    HW291660  10.922   8.933  12.159
29941SOL     OW91661   8.916   9.290   4.023
29941SOL    HW191662   8.840   9.301   4.079
29941SOL    HW291663   8.910   9.200   3.991
29942SOL     OW91664  12.852   2.830  14.338
29942SOL    HW191665  12.897   2.914  14.341
29942SOL    HW291666  12.899   2.779  14.272
29943SOL     OW91667  14.317   6.073   7.289
29943SOL    HW191668  14.251   6.007   7.309
29943SOL    HW291669  14.380   6.028   7.232
29944SOL     OW91670   2.763   3.228  14.851
29944SOL    HW191671   2.711   3.256   0.047
29944SOL    HW291672   2.797   3.309  14.814
29945SOL     OW91673   1.592  11.865  10.131
29945SOL    HW191674   1.672  11.822  10.160
29945SOL    HW291675   1.541  11.795  10.090
29946SOL     OW91676   4.013  14.804  14.237
29946SOL    HW191677   4.045  14.866  14.172
29946SOL    HW291678   3.978  14.731  14.186
29947SOL     OW91679  13.121   0.623  11.801
29947SOL    HW191680  13.078   0.655  11.722
29947SOL    HW291681  13.052   0.580  11.851
29948SOL     OW91682   0.675   1.288  14.816
29948SOL    HW191683   0.672   1.277  14.721
29948SOL    HW291684   0.760   1.329  14.833
29949SOL     OW91685  13.519  10.974  11.947
29949SOL    HW191686  13.543  10.947  12.036
29949SOL    HW291687  13.592  10.947  11.892
29950SOL     OW91688   6.244   8.940  10.309
29950SOL    HW191689   6.314   8.975  10.253
29950SOL    HW291690   6.169   8.931  10.250
29951SOL     OW91691   5.939   2.599   0.150
29951SOL    HW191692   5.925   2.517   0.102
29951SOL    HW291693   6.027   2.590   0.188
29952SOL     OW91694  13.726  11.042  13.378
29952SOL    HW191695  13.699  10.977  13.443
29952SOL    HW291696  13.650  11.099  13.369
29953SOL     OW91697   1.502   4.233  11.345
29953SOL    HW191698   1.552   4.302  11.388
29953SOL    HW291699   1.467   4.275  11.266
29954SOL     OW91700   5.274   3.866   3.550
29954SOL    HW191701   5.232   3.792   3.506
29954SOL    HW291702   5.346   3.827   3.599
29955SOL     OW91703  10.676   0.911   0.841
29955SOL    HW191704  10.614   0.976   0.874
29955SOL    HW291705  10.624   0.830   0.834
29956SOL     OW91706   2.766   7.349   1.641
29956SOL    HW191707   2.671   7.346   1.653
29956SOL    HW291708   2.778   7.397   1.559
29957SOL     OW91709   4.219   5.122  10.388
29957SOL    HW191710   4.290   5.165  10.339
29957SOL    HW291711   4.208   5.038  10.345
29958SOL     OW91712   4.649   3.498   5.476
29958SOL    HW191713   4.564   3.497   5.520
29958SOL    HW291714   4.641   3.431   5.407
29959SOL     OW91715  12.413   8.962  11.980
29959SOL    HW191716  12.467   8.883  11.978
29959SOL    HW291717  12.476   9.034  11.992
29960SOL     OW91718   5.693   4.999  14.475
29960SOL    HW191719   5.713   5.090  14.457
29960SOL    HW291720   5.627   4.975  14.409
29961SOL     OW91721   2.965  13.211   7.464
29961SOL    HW191722   2.977  13.126   7.421
29961SOL    HW291723   2.960  13.190   7.557
29962SOL     OW91724  11.364  12.452   9.615
29962SOL    HW191725  11.457  12.474   9.610
29962SOL    HW291726  11.358  12.364   9.579
29963SOL     OW91727   3.878   1.782   6.243
29963SOL    HW191728   3.793   1.740   6.255
29963SOL    HW291729   3.858   1.873   6.224
29964SOL     OW91730  12.711  13.779   4.886
29964SOL    HW191731  12.763  13.859   4.888
29964SOL    HW291732  12.755  13.721   4.949
29965SOL     OW91733   7.213   6.647   0.569
29965SOL    HW191734   7.169   6.728   0.544
29965SOL    HW291735   7.290   6.675   0.619
29966SOL     OW91736   2.600   2.188   9.139
29966SOL    HW191737   2.656   2.259   9.169
29966SOL    HW291738   2.633   2.167   9.051
29967SOL     OW91739   8.974  10.770   9.457
29967SOL    HW191740   8.905  10.809   9.404
29967SOL    HW291741   9.034  10.732   9.394
29968SOL     OW91742   3.190  14.639   3.195
29968SOL    HW191743   3.128  14.575   3.230
29968SOL    HW291744   3.273  14.591   3.190
29969SOL     OW91745   0.107  10.048  11.810
29969SOL    HW191746   0.159   9.972  11.788
29969SOL    HW291747   0.095  10.042  11.905
29970SOL     OW91748  12.451  14.356   5.576
29970SOL    HW191749  12.396  14.405   5.638
29970SOL    HW291750  12.539  14.362   5.612
29971SOL     OW91751   5.512  12.888  10.339
29971SOL    HW191752   5.577  12.943  10.296
29971SOL    HW291753   5.501  12.813  10.280
29972SOL     OW91754   9.829  13.559   3.115
29972SOL    HW191755   9.753  13.568   3.058
29972SOL    HW291756   9.800  13.500   3.185
29973SOL     OW91757   9.179   2.873  10.503
29973SOL    HW191758   9.161   2.792  10.456
29973SOL    HW291759   9.216   2.932  10.437
29974SOL     OW91760  11.989  10.162  13.674
29974SOL    HW191761  11.992  10.085  13.732
29974SOL    HW291762  11.980  10.125  13.586
29975SOL     OW91763   3.497  10.435  11.898
29975SOL    HW191764   3.590  10.442  11.919
29975SOL    HW291765   3.457  10.507  11.946
29976SOL     OW91766  11.250  13.321   3.273
29976SOL    HW191767  11.259  13.353   3.363
29976SOL    HW291768  11.166  13.355   3.243
29977SOL     OW91769  10.564   1.409   6.284
29977SOL    HW191770  10.639   1.380   6.337
29977SOL    HW291771  10.518   1.472   6.339
29978SOL     OW91772   0.118  10.944  12.763
29978SOL    HW191773   0.141  10.851  12.763
29978SOL    HW291774   0.038  10.949  12.815
29979SOL     OW91775  13.711   4.931   1.881
29979SOL    HW191776  13.662   4.950   1.961
29979SOL    HW291777  13.694   5.006   1.824
29980SOL     OW91778  12.669  11.713  14.848
29980SOL    HW191779  12.618  11.631  14.854
29980SOL    HW291780  12.756  11.689  14.878
29981SOL     OW91781   0.742  14.660  12.666
29981SOL    HW191782   0.726  14.571  12.635
29981SOL    HW291783   0.838  14.668  12.667
29982SOL     OW91784   9.541  12.546   7.636
29982SOL    HW191785   9.457  12.588   7.621
29982SOL    HW291786   9.603  12.618   7.645
29983SOL     OW91787   3.000   7.016  12.603
29983SOL    HW191788   3.090   7.001  12.575
29983SOL    HW291789   2.956   6.933  12.587
29984SOL     OW91790  10.978   5.245   4.190
29984SOL    HW191791  10.892   5.286   4.202
29984SOL    HW291792  11.032   5.283   4.259
29985SOL     OW91793  12.917  13.504  13.027
29985SOL    HW191794  12.986  13.569  13.027
29985SOL    HW291795  12.860  13.528  12.954
29986SOL     OW91796   0.626  13.708   2.274
29986SOL    HW191797   0.549  13.709   2.331
29986SOL    HW291798   0.631  13.797   2.239
29987SOL     OW91799   7.323   8.607  12.319
29987SOL    HW191800   7.389   8.675  12.315
29987SOL    HW291801   7.354   8.548  12.388
29988SOL     OW91802  12.936   7.585  13.981
29988SOL    HW191803  12.945   7.510  14.040
29988SOL    HW291804  12.864   7.560  13.923
29989SOL     OW91805   1.460   4.300   9.597
29989SOL    HW191806   1.471   4.251   9.678
29989SOL    HW291807   1.504   4.246   9.531
29990SOL     OW91808  13.725  13.793   0.069
29990SOL    HW191809  13.818  13.775   0.081
29990SOL    HW291810  13.712  13.790  14.853
29991SOL     OW91811  11.485   1.466   3.611
29991SOL    HW191812  11.459   1.555   3.635
29991SOL    HW291813  11.520   1.429   3.693
29992SOL     OW91814   1.052   1.495   4.130
29992SOL    HW191815   1.063   1.435   4.204
29992SOL    HW291816   1.038   1.581   4.170
29993SOL     OW91817   6.776   4.631   1.200
29993SOL    HW191818   6.695   4.664   1.239
29993SOL    HW291819   6.787   4.682   1.120
29994SOL     OW91820  14.241   2.148   9.221
29994SOL    HW191821  14.276   2.164   9.134
29994SOL    HW291822  14.318   2.135   9.277
29995SOL     OW91823   1.641   3.080   8.293
29995SOL    HW191824   1.703   3.011   8.316
29995SOL    HW291825   1.676   3.119   8.213
29996SOL     OW91826   9.097   2.188  11.946
29996SOL    HW191827   9.061   2.124  12.007
29996SOL    HW291828   9.050   2.173  11.864
29997SOL     OW91829   9.464   8.494   3.226
29997SOL    HW191830   9.523   8.477   3.152
29997SOL    HW291831   9.501   8.444   3.298
29998SOL     OW91832   9.355  11.239   3.878
29998SOL    HW191833   9.347  11.297   3.802
29998SOL    HW291834   9.312  11.157   3.851
29999SOL     OW91835   8.520   3.512   7.187
29999SOL    HW191836   8.474   3.528   7.269
29999SOL    HW291837   8.502   3.420   7.168
30000SOL     OW91838   3.332   4.151   1.532
30000SOL    HW191839   3.328   4.075   1.473
30000SOL    HW291840   3.240   4.173   1.549
30001SOL     OW91841  10.808  10.068   3.199
30001SOL    HW191842  10.764  10.112   3.271
30001SOL    HW291843  10.882  10.125   3.177
30002SOL     OW91844   2.476   3.121   8.837
30002SOL    HW191845   2.431   3.045   8.802
30002SOL    HW291846   2.550   3.085   8.886
30003SOL     OW91847  12.758  10.433   1.818
30003SOL    HW191848  12.728  10.343   1.802
30003SOL    HW291849  12.693  10.488   1.773
30004SOL     OW91850  12.133   2.116   6.635
30004SOL    HW191851  12.163   2.064   6.561
30004SOL    HW291852  12.079   2.185   6.596
30005SOL     OW91853   6.500   4.244   2.017
30005SOL    HW191854   6.594   4.229   2.031
30005SOL    HW291855   6.496   4.284   1.930
30006SOL     OW91856  10.268   1.939   4.542
30006SOL    HW191857  10.254   1.856   4.496
30006SOL    HW291858  10.188   1.952   4.593
30007SOL     OW91859   0.806  12.326   0.329
30007SOL    HW191860   0.737  12.307   0.266
30007SOL    HW291861   0.802  12.421   0.342
30008SOL     OW91862   3.713   3.421   1.425
30008SOL    HW191863   3.621   3.405   1.446
30008SOL    HW291864   3.711   3.493   1.362
30009SOL     OW91865   6.342   1.342  11.546
30009SOL    HW191866   6.259   1.373  11.581
30009SOL    HW291867   6.408   1.394  11.592
30010SOL     OW91868   9.366  10.958   6.883
30010SOL    HW191869   9.319  10.886   6.925
30010SOL    HW291870   9.434  10.982   6.945
30011SOL     OW91871  10.476   1.172   6.727
30011SOL    HW191872  10.443   1.174   6.816
30011SOL    HW291873  10.543   1.241   6.725
30012SOL     OW91874  11.848   1.445   3.500
30012SOL    HW191875  11.787   1.507   3.462
30012SOL    HW291876  11.805   1.414   3.580
30013SOL     OW91877   0.260   1.967   8.222
30013SOL    HW191878   0.300   2.049   8.251
30013SOL    HW291879   0.170   1.992   8.198
30014SOL     OW91880  14.011   3.046  11.992
30014SOL    HW191881  14.105   3.033  11.988
30014SOL    HW291882  14.000   3.141  11.998
30015SOL     OW91883   2.512   5.354   4.976
30015SOL    HW191884   2.469   5.423   4.926
30015SOL    HW291885   2.605   5.376   4.974
30016SOL     OW91886   2.955   8.914   4.738
30016SOL    HW191887   3.007   8.990   4.712
30016SOL    HW291888   2.935   8.930   4.831
30017SOL     OW91889   3.426   0.670   1.379
30017SOL    HW191890   3.399   0.745   1.433
30017SOL    HW291891   3.344   0.629   1.351
30018SOL     OW91892   2.975   0.356   3.068
30018SOL    HW191893   3.020   0.418   3.127
30018SOL    HW291894   3.040   0.338   2.999
30019SOL     OW91895   6.595  14.385   6.013
30019SOL    HW191896   6.661  14.454   6.021
30019SOL    HW291897   6.613  14.345   5.927
30020SOL     OW91898  12.838  10.066   9.375
30020SOL    HW191899  12.793  10.096   9.296
30020SOL    HW291900  12.878   9.983   9.350
30021SOL     OW91901   9.577  10.617   1.444
30021SOL    HW191902   9.562  10.523   1.445
30021SOL    HW291903   9.489  10.655   1.449
30022SOL     OW91904   0.289  10.453  11.073
30022SOL    HW191905   0.297  10.360  11.090
30022SOL    HW291906   0.379  10.485  11.071
30023SOL     OW91907   8.921   9.737   0.076
30023SOL    HW191908   8.914   9.662   0.135
30023SOL    HW291909   9.004   9.779   0.099
30024SOL     OW91910   2.072   9.141   8.510
30024SOL    HW191911   2.127   9.143   8.431
30024SOL    HW291912   2.099   9.062   8.556
30025SOL     OW91913   7.471   0.253  10.676
30025SOL    HW191914   7.436   0.184  10.620
30025SOL    HW291915   7.439   0.334  10.638
30026SOL     OW91916   0.993  12.223   4.333
30026SOL    HW191917   1.034  12.302   4.366
30026SOL    HW291918   0.899  12.242   4.336
30027SOL     OW91919  13.354  13.341  14.669
30027SOL    HW191920  13.384  13.315  14.582
30027SOL    HW291921  13.432  13.377  14.712
30028SOL     OW91922   7.157   2.038   2.375
30028SOL    HW191923   7.063   2.029   2.387
30028SOL    HW291924   7.176   2.129   2.400
30029SOL     OW91925  12.324   3.451  14.148
30029SOL    HW191926  12.401   3.442  14.091
30029SOL    HW291927  12.264   3.382  14.118
30030SOL     OW91928  13.180   4.481   7.451
30030SOL    HW191929  13.253   4.501   7.392
30030SOL    HW291930  13.102   4.502   7.400
30031SOL     OW91931   1.852   7.607   6.804
30031SOL    HW191932   1.934   7.631   6.759
30031SOL    HW291933   1.880   7.545   6.872
30032SOL     OW91934  10.814   1.236   0.501
30032SOL    HW191935  10.798   1.256   0.408
30032SOL    HW291936  10.869   1.308   0.531
30033SOL     OW91937  12.825   3.467   0.733
30033SOL    HW191938  12.826   3.384   0.687
30033SOL    HW291939  12.773   3.450   0.812
30034SOL     OW91940   8.868  12.772  10.928
30034SOL    HW191941   8.928  12.698  10.941
30034SOL    HW291942   8.915  12.831  10.870
30035SOL     OW91943  10.194  12.035   3.342
30035SOL    HW191944  10.226  12.003   3.427
30035SOL    HW291945  10.128  11.970   3.316
30036SOL     OW91946   6.096  12.931   6.382
30036SOL    HW191947   6.018  12.968   6.341
30036SOL    HW291948   6.068  12.846   6.415
30037SOL     OW91949  12.635  12.922   7.255
30037SOL    HW191950  12.651  12.926   7.161
30037SOL    HW291951  12.664  12.835   7.281
30038SOL     OW91952   1.191   4.248   0.764
30038SOL    HW191953   1.203   4.193   0.687
30038SOL    HW291954   1.252   4.212   0.828
30039SOL     OW91955   1.804   0.765   5.798
30039SOL    HW191956   1.887   0.725   5.822
30039SOL    HW291957   1.827   0.838   5.740
30040SOL     OW91958   5.096   7.670  14.595
30040SOL    HW191959   5.173   7.725  14.581
30040SOL    HW291960   5.127   7.601  14.655
30041SOL     OW91961   8.032   0.796  10.655
30041SOL    HW191962   8.007   0.726  10.715
30041SOL    HW291963   8.078   0.860  10.710
30042SOL     OW91964  10.725  13.805  11.552
30042SOL    HW191965  10.724  13.896  11.524
30042SOL    HW291966  10.671  13.759  11.488
30043SOL     OW91967   3.618  10.267   9.858
30043SOL    HW191968   3.650  10.177   9.850
30043SOL    HW291969   3.590  10.291   9.770
30044SOL     OW91970   1.358   8.673  10.234
30044SOL    HW191971   1.324   8.759  10.212
30044SOL    HW291972   1.448   8.689  10.261
30045SOL     OW91973   5.589   7.033  10.999
30045SOL    HW191974   5.654   6.968  10.972
30045SOL    HW291975   5.600   7.040  11.094
30046SOL     OW91976  13.456   6.279   7.283
30046SOL    HW191977  13.506   6.297   7.362
30046SOL    HW291978  13.380   6.230   7.313
30047SOL     OW91979   1.521   6.891   5.431
30047SOL    HW191980   1.576   6.813   5.434
30047SOL    HW291981   1.575   6.961   5.469
30048SOL     OW91982  14.652   0.683   1.317
30048SOL    HW191983  14.669   0.749   1.385
30048SOL    HW291984  14.727   0.623   1.323
30049SOL     OW91985   3.029   0.627  13.549
30049SOL    HW191986   3.029   0.722  13.564
30049SOL    HW291987   3.036   0.589  13.636
30050SOL     OW91988  10.271   4.690  14.183
30050SOL    HW191989  10.344   4.671  14.123
30050SOL    HW291990  10.194   4.687  14.127
30051SOL     OW91991  13.570   7.752   8.455
30051SOL    HW191992  13.496   7.800   8.491
30051SOL    HW291993  13.602   7.807   8.383
30052SOL     OW91994   6.557   0.947  13.024
30052SOL    HW191995   6.635   0.954  12.968
30052SOL    HW291996   6.591   0.924  13.110
30053SOL     OW91997  12.445   5.951   7.070
30053SOL    HW191998  12.374   6.009   7.043
30053SOL    HW291999  12.406   5.894   7.136
30054SOL     OW92000   6.578   2.673   7.710
30054SOL    HW192001   6.562   2.624   7.790
30054SOL    HW292002   6.574   2.608   7.640
30055SOL     OW92003   9.263  13.819  14.195
30055SOL    HW192004   9.282  13.743  14.249
30055SOL    HW292005   9.246  13.889  14.257
30056SOL     OW92006  11.846   6.114   9.350
30056SOL    HW192007  11.865   6.207   9.358
30056SOL    HW292008  11.880   6.076   9.431
30057SOL     OW92009  13.049  11.691   9.600
30057SOL    HW192010  13.127  11.638   9.617
30057SOL    HW292011  13.059  11.720   9.510
30058SOL     OW92012   0.600  14.669   8.641
30058SOL    HW192013   0.569  14.659   8.730
30058SOL    HW292014   0.599  14.763   8.625
30059SOL     OW92015  13.257   0.252   3.180
30059SOL    HW192016  13.306   0.204   3.246
30059SOL    HW292017  13.324   0.296   3.127
30060SOL     OW92018   2.416   7.319  14.840
30060SOL    HW192019   2.415   7.403   0.006
30060SOL    HW292020   2.399   7.341  14.748
30061SOL     OW92021  10.333   3.911   3.136
30061SOL    HW192022  10.335   3.816   3.122
30061SOL    HW292023  10.379   3.947   3.060
30062SOL     OW92024   8.629   5.052   3.588
30062SOL    HW192025   8.685   4.974   3.590
30062SOL    HW292026   8.613   5.073   3.680
30063SOL     OW92027   1.552   7.295  12.216
30063SOL    HW192028   1.646   7.312  12.220
30063SOL    HW292029   1.518   7.357  12.152
30064SOL     OW92030   8.144  14.492   8.978
30064SOL    HW192031   8.089  14.533   9.044
30064SOL    HW292032   8.082  14.453   8.916
30065SOL     OW92033  13.686   3.059  10.858
30065SOL    HW192034  13.609   3.015  10.892
30065SOL    HW292035  13.665   3.153  10.862
30066SOL     OW92036   4.974   8.973   6.353
30066SOL    HW192037   4.997   8.894   6.402
30066SOL    HW292038   4.892   8.950   6.308
30067SOL     OW92039   4.822  13.809   6.560
30067SOL    HW192040   4.903  13.830   6.606
30067SOL    HW292041   4.752  13.839   6.618
30068SOL     OW92042  10.675   1.697   9.744
30068SOL    HW192043  10.680   1.774   9.801
30068SOL    HW292044  10.586   1.699   9.710
30069SOL     OW92045  10.802  11.989   4.888
30069SOL    HW192046  10.792  11.949   4.974
30069SOL    HW292047  10.721  11.968   4.842
30070SOL     OW92048   4.833  13.612   1.241
30070SOL    HW192049   4.856  13.620   1.334
30070SOL    HW292050   4.910  13.643   1.194
30071SOL     OW92051   6.714  11.747   4.785
30071SOL    HW192052   6.653  11.819   4.770
30071SOL    HW292053   6.789  11.767   4.728
30072SOL     OW92054   8.374   5.593   5.095
30072SOL    HW192055   8.453   5.644   5.083
30072SOL    HW292056   8.404   5.506   5.122
30073SOL     OW92057  11.025  12.107   6.757
30073SOL    HW192058  11.114  12.074   6.769
30073SOL    HW292059  11.024  12.142   6.668
30074SOL     OW92060   7.186   5.614   1.332
30074SOL    HW192061   7.203   5.695   1.285
30074SOL    HW292062   7.209   5.544   1.270
30075SOL     OW92063  13.402   0.601   3.620
30075SOL    HW192064  13.439   0.539   3.682
30075SOL    HW292065  13.324   0.636   3.663
30076SOL     OW92066   6.812  10.203  12.652
30076SOL    HW192067   6.787  10.137  12.718
30076SOL    HW292068   6.745  10.196  12.585
30077SOL     OW92069   4.003   4.758  13.719
30077SOL    HW192070   3.907   4.763  13.720
30077SOL    HW292071   4.027   4.787  13.632
30078SOL     OW92072   5.744   0.514   6.895
30078SOL    HW192073   5.743   0.486   6.803
30078SOL    HW292074   5.658   0.487   6.928
30079SOL     OW92075   4.943   0.904   2.155
30079SOL    HW192076   4.891   0.893   2.076
30079SOL    HW292077   4.950   0.816   2.191
30080SOL     OW92078  10.179   8.054   5.958
30080SOL    HW192079  10.127   8.130   5.930
30080SOL    HW292080  10.257   8.092   5.997
30081SOL     OW92081   8.130  10.433   0.390
30081SOL    HW192082   8.171  10.376   0.325
30081SOL    HW292083   8.058  10.476   0.343
30082SOL     OW92084  12.258   5.110   0.710
30082SOL    HW192085  12.262   5.020   0.678
30082SOL    HW292086  12.167   5.137   0.698
30083SOL     OW92087   8.821   7.876   0.579
30083SOL    HW192088   8.854   7.909   0.663
30083SOL    HW292089   8.727   7.866   0.592
30084SOL     OW92090  11.696   9.540   3.768
30084SOL    HW192091  11.679   9.449   3.745
30084SOL    HW292092  11.782   9.559   3.729
30085SOL     OW92093   8.795   8.049   1.319
30085SOL    HW192094   8.820   8.069   1.409
30085SOL    HW292095   8.829   7.961   1.304
30086SOL     OW92096  10.071  14.281   9.709
30086SOL    HW192097  10.079  14.292   9.614
30086SOL    HW292098  10.104  14.363   9.745
30087SOL     OW92099   1.977   6.747  10.249
30087SOL    HW192100   1.904   6.719  10.193
30087SOL    HW292101   2.055   6.723  10.200
30088SOL     OW92102   9.346   8.265  13.315
30088SOL    HW192103   9.337   8.326  13.389
30088SOL    HW292104   9.436   8.277  13.286
30089SOL     OW92105   7.036  13.257  10.353
30089SOL    HW192106   6.973  13.224  10.289
30089SOL    HW292107   7.110  13.196  10.347
30090SOL     OW92108   0.412   7.365   6.104
30090SOL    HW192109   0.340   7.330   6.156
30090SOL    HW292110   0.448   7.289   6.059
30091SOL     OW92111   7.920   0.613  14.760
30091SOL    HW192112   7.987   0.624  14.692
30091SOL    HW292113   7.839   0.596  14.712
30092SOL     OW92114  10.811   1.802   4.293
30092SOL    HW192115  10.759   1.882   4.288
30092SOL    HW292116  10.759   1.743   4.349
30093SOL     OW92117  14.311   3.031   3.288
30093SOL    HW192118  14.266   3.080   3.358
30093SOL    HW292119  14.374   2.976   3.334
30094SOL     OW92120   7.628  11.666   0.912
30094SOL    HW192121   7.672  11.594   0.958
30094SOL    HW292122   7.665  11.662   0.823
30095SOL     OW92123   7.998  11.878   9.462
30095SOL    HW192124   7.917  11.900   9.415
30095SOL    HW292125   8.066  11.878   9.394
30096SOL     OW92126  10.793  12.003   6.847
30096SOL    HW192127  10.733  12.025   6.776
30096SOL    HW292128  10.879  12.029   6.815
30097SOL     OW92129  14.179   7.353  12.285
30097SOL    HW192130  14.117   7.402  12.339
30097SOL    HW292131  14.264   7.394  12.305
30098SOL     OW92132   5.643   1.922   3.520
30098SOL    HW192133   5.568   1.910   3.579
30098SOL    HW292134   5.604   1.920   3.432
30099SOL     OW92135   3.476   8.554   4.903
30099SOL    HW192136   3.499   8.498   4.978
30099SOL    HW292137   3.489   8.643   4.936
30100SOL     OW92138  13.787   3.066   7.945
30100SOL    HW192139  13.802   3.064   7.851
30100SOL    HW292140  13.733   2.988   7.963
30101SOL     OW92141   6.734  12.804   3.183
30101SOL    HW192142   6.784  12.821   3.263
30101SOL    HW292143   6.644  12.828   3.206
30102SOL     OW92144  10.434   7.728   6.258
30102SOL    HW192145  10.387   7.646   6.250
30102SOL    HW292146  10.483   7.736   6.177
30103SOL     OW92147   1.476  14.233   9.201
30103SOL    HW192148   1.519  14.253   9.284
30103SOL    HW292149   1.457  14.319   9.163
30104SOL     OW92150   9.911   2.265  13.479
30104SOL    HW192151   9.884   2.339  13.534
30104SOL    HW292152  10.006   2.272  13.476
30105SOL     OW92153  13.887  13.243   7.280
30105SOL    HW192154  13.811  13.185   7.271
30105SOL    HW292155  13.909  13.266   7.190
30106SOL     OW92156   0.129   5.761  14.167
30106SOL    HW192157   0.073   5.711  14.108
30106SOL    HW292158   0.194   5.802  14.109
30107SOL     OW92159   5.498   7.058  11.840
30107SOL    HW192160   5.504   7.023  11.929
30107SOL    HW292161   5.553   7.137  11.842
30108SOL     OW92162  14.046  12.191   1.043
30108SOL    HW192163  13.980  12.142   0.994
30108SOL    HW292164  14.024  12.174   1.135
30109SOL     OW92165   4.335   4.972   1.775
30109SOL    HW192166   4.420   4.974   1.731
30109SOL    HW292167   4.351   5.012   1.860
30110SOL     OW92168   3.840  10.653   8.639
30110SOL    HW192169   3.934  10.639   8.653
30110SOL    HW292170   3.801  10.640   8.725
30111SOL     OW92171   3.779   8.397  13.675
30111SOL    HW192172   3.726   8.468  13.710
30111SOL    HW292173   3.864   8.438  13.656
30112SOL     OW92174  10.637   3.430  11.726
30112SOL    HW192175  10.555   3.405  11.684
30112SOL    HW292176  10.705   3.396  11.668
30113SOL     OW92177   7.086   2.961  11.935
30113SOL    HW192178   7.054   2.915  12.013
30113SOL    HW292179   7.006   2.984  11.888
30114SOL     OW92180  14.867   6.103  12.248
30114SOL    HW192181  14.777   6.082  12.226
30114SOL    HW292182  14.873   6.198  12.238
30115SOL     OW92183   2.770   2.481  11.223
30115SOL    HW192184   2.804   2.513  11.140
30115SOL    HW292185   2.714   2.407  11.199
30116SOL     OW92186  12.234   6.225   4.517
30116SOL    HW192187  12.195   6.151   4.471
30116SOL    HW292188  12.324   6.230   4.483
30117SOL     OW92189   4.984   6.478   4.941
30117SOL    HW192190   4.979   6.555   4.885
30117SOL    HW292191   5.042   6.418   4.894
30118SOL     OW92192   0.818   5.372  12.563
30118SOL    HW192193   0.814   5.467  12.553
30118SOL    HW292194   0.766   5.337  12.490
30119SOL     OW92195  11.026   3.181   5.675
30119SOL    HW192196  11.109   3.220   5.646
30119SOL    HW292197  11.024   3.095   5.633
30120SOL     OW92198   1.824   6.509   3.209
30120SOL    HW192199   1.760   6.579   3.196
30120SOL    HW292200   1.905   6.542   3.169
30121SOL     OW92201   5.928  14.764  12.732
30121SOL    HW192202   5.891  14.833  12.787
30121SOL    HW292203   5.890  14.781  12.645
30122SOL     OW92204  11.790   6.136   4.701
30122SOL    HW192205  11.752   6.173   4.622
30122SOL    HW292206  11.877   6.177   4.707
30123SOL     OW92207   2.612   9.917   4.256
30123SOL    HW192208   2.657   9.965   4.325
30123SOL    HW292209   2.666   9.839   4.241
30124SOL     OW92210   9.182   8.597   5.761
30124SOL    HW192211   9.190   8.516   5.711
30124SOL    HW292212   9.163   8.664   5.695
30125SOL     OW92213   4.112   0.518  11.695
30125SOL    HW192214   4.157   0.437  11.671
30125SOL    HW292215   4.025   0.490  11.722
30126SOL     OW92216   9.362  13.849   3.469
30126SOL    HW192217   9.290  13.908   3.495
30126SOL    HW292218   9.392  13.811   3.551
30127SOL     OW92219   0.404   1.909  12.184
30127SOL    HW192220   0.323   1.916  12.233
30127SOL    HW292221   0.473   1.908  12.250
30128SOL     OW92222  10.443   6.358   4.583
30128SOL    HW192223  10.386   6.343   4.508
30128SOL    HW292224  10.514   6.295   4.572
30129SOL     OW92225   2.660   3.389  10.709
30129SOL    HW192226   2.694   3.357  10.625
30129SOL    HW292227   2.589   3.448  10.686
30130SOL     OW92228   6.689   7.919   5.169
30130SOL    HW192229   6.767   7.921   5.224
30130SOL    HW292230   6.723   7.926   5.080
30131SOL     OW92231  10.987  10.800   5.692
30131SOL    HW192232  11.070  10.814   5.647
30131SOL    HW292233  11.000  10.721   5.744
30132SOL     OW92234   8.408   6.900   7.000
30132SOL    HW192235   8.441   6.855   7.077
30132SOL    HW292236   8.358   6.834   6.953
30133SOL     OW92237  10.695   9.741   9.798
30133SOL    HW192238  10.767   9.788   9.756
30133SOL    HW292239  10.690   9.657   9.751
30134SOL     OW92240   2.029  13.214   7.515
30134SOL    HW192241   2.104  13.164   7.484
30134SOL    HW292242   2.030  13.202   7.610
30135SOL     OW92243   0.844   7.641   1.503
30135SOL    HW192244   0.842   7.734   1.524
30135SOL    HW292245   0.867   7.638   1.411
30136SOL     OW92246  10.083  10.727   7.622
30136SOL    HW192247  10.138  10.653   7.649
30136SOL    HW292248  10.103  10.739   7.529
30137SOL     OW92249  13.269   3.834   9.336
30137SOL    HW192250  13.302   3.828   9.426
30137SOL    HW292251  13.234   3.747   9.318
30138SOL     OW92252  13.898  10.436   5.696
30138SOL    HW192253  13.944  10.364   5.651
30138SOL    HW292254  13.946  10.447   5.778
30139SOL     OW92255   7.980  12.098   0.808
30139SOL    HW192256   7.982  12.058   0.721
30139SOL    HW292257   8.072  12.107   0.832
30140SOL     OW92258   4.446  14.377  14.848
30140SOL    HW192259   4.429  14.325  14.769
30140SOL    HW292260   4.541  14.389  14.849
30141SOL     OW92261   0.296   7.371   7.411
30141SOL    HW192262   0.349   7.438   7.368
30141SOL    HW292263   0.206   7.392   7.385
30142SOL     OW92264  11.497   6.612   5.337
30142SOL    HW192265  11.504   6.552   5.412
30142SOL    HW292266  11.517   6.698   5.373
30143SOL     OW92267   8.555   4.187   8.118
30143SOL    HW192268   8.533   4.127   8.047
30143SOL    HW292269   8.471   4.209   8.158
30144SOL     OW92270   8.766   6.874   4.990
30144SOL    HW192271   8.834   6.941   4.991
30144SOL    HW292272   8.740   6.865   5.082
30145SOL     OW92273  14.697   4.061   5.839
30145SOL    HW192274  14.711   4.041   5.932
30145SOL    HW292275  14.739   4.146   5.826
30146SOL     OW92276   6.560  14.861   4.754
30146SOL    HW192277   6.525   0.066   4.726
30146SOL    HW292278   6.632   0.004   4.814
30147SOL     OW92279   7.825  11.107   8.072
30147SOL    HW192280   7.751  11.111   8.133
30147SOL    HW292281   7.786  11.087   7.988
30148SOL     OW92282   9.475  12.293  10.485
30148SOL    HW192283   9.392  12.261  10.519
30148SOL    HW292284   9.525  12.317  10.563
30149SOL     OW92285   3.456  12.948   2.253
30149SOL    HW192286   3.435  13.000   2.330
30149SOL    HW292287   3.550  12.931   2.261
30150SOL     OW92288   4.006  11.842  10.463
30150SOL    HW192289   3.928  11.787  10.470
30150SOL    HW292290   4.026  11.867  10.553
30151SOL     OW92291  14.385  12.081   0.059
30151SOL    HW192292  14.470  12.051   0.090
30151SOL    HW292293  14.366  12.158   0.113
30152SOL     OW92294   8.024   3.285  12.030
30152SOL    HW192295   7.973   3.347  11.979
30152SOL    HW292296   8.096   3.260  11.973
30153SOL     OW92297   4.981  11.820   4.362
30153SOL    HW192298   4.948  11.802   4.450
30153SOL    HW292299   4.903  11.819   4.307
30154SOL     OW92300  11.467  11.133  12.262
30154SOL    HW192301  11.514  11.128  12.179
30154SOL    HW292302  11.526  11.092  12.325
30155SOL     OW92303   6.061   5.437   8.926
30155SOL    HW192304   6.049   5.343   8.941
30155SOL    HW292305   6.087   5.444   8.834
30156SOL     OW92306   1.802   2.247   6.142
30156SOL    HW192307   1.888   2.238   6.183
30156SOL    HW292308   1.761   2.161   6.153
30157SOL     OW92309  11.026   0.152  10.801
30157SOL    HW192310  11.054   0.200  10.723
30157SOL    HW292311  10.936   0.124  10.780
30158SOL     OW92312   3.313   7.473   9.745
30158SOL    HW192313   3.331   7.433   9.830
30158SOL    HW292314   3.359   7.557   9.748
30159SOL     OW92315   4.946  11.012   2.660
30159SOL    HW192316   4.864  11.022   2.708
30159SOL    HW292317   4.941  10.925   2.621
30160SOL     OW92318   6.264   9.986   1.801
30160SOL    HW192319   6.262   9.942   1.716
30160SOL    HW292320   6.354  10.016   1.810
30161SOL     OW92321   5.595  14.129  12.397
30161SOL    HW192322   5.627  14.061  12.456
30161SOL    HW292323   5.628  14.104  12.311
30162SOL     OW92324   5.112  13.479   8.067
30162SOL    HW192325   5.098  13.384   8.066
30162SOL    HW292326   5.023  13.516   8.066
30163SOL     OW92327   4.344  11.547  10.901
30163SOL    HW192328   4.276  11.585  10.845
30163SOL    HW292329   4.424  11.593  10.876
30164SOL     OW92330   5.020   1.849   6.947
30164SOL    HW192331   5.048   1.823   6.859
30164SOL    HW292332   5.017   1.944   6.945
30165SOL     OW92333   2.994   3.690  11.677
30165SOL    HW192334   2.906   3.726  11.683
30165SOL    HW292335   2.986   3.616  11.617
30166SOL     OW92336   4.514  10.703   6.936
30166SOL    HW192337   4.491  10.610   6.942
30166SOL    HW292338   4.584  10.706   6.872
30167SOL     OW92339   4.815   2.007  11.660
30167SOL    HW192340   4.765   1.940  11.613
30167SOL    HW292341   4.833   1.968  11.745
30168SOL     OW92342  14.865   0.861  14.247
30168SOL    HW192343  14.780   0.893  14.276
30168SOL    HW292344   0.048   0.926  14.279
30169SOL     OW92345   8.416  11.726   1.788
30169SOL    HW192346   8.479  11.762   1.851
30169SOL    HW292347   8.438  11.768   1.705
30170SOL     OW92348   1.895  13.561   9.979
30170SOL    HW192349   1.913  13.641   9.930
30170SOL    HW292350   1.814  13.527   9.941
30171SOL     OW92351   4.089   7.897   8.441
30171SOL    HW192352   4.149   7.919   8.512
30171SOL    HW292353   4.124   7.943   8.365
30172SOL     OW92354  13.111  13.634   0.068
30172SOL    HW192355  13.173  13.579   0.115
30172SOL    HW292356  13.078  13.695   0.134
30173SOL     OW92357  10.869   4.874   1.556
30173SOL    HW192358  10.817   4.891   1.478
30173SOL    HW292359  10.860   4.953   1.609
30174SOL     OW92360   9.472  13.262   3.207
30174SOL    HW192361   9.482  13.351   3.174
30174SOL    HW292362   9.446  13.211   3.131
30175SOL     OW92363   1.332   0.051  10.520
30175SOL    HW192364   1.319   0.071  10.613
30175SOL    HW292365   1.336  14.834  10.517
30176SOL     OW92366   7.136  13.304   3.089
30176SOL    HW192367   7.043  13.281   3.079
30176SOL    HW292368   7.168  13.243   3.155
30177SOL     OW92369   1.587   3.296   6.776
30177SOL    HW192370   1.543   3.234   6.719
30177SOL    HW292371   1.529   3.372   6.778
30178SOL     OW92372   5.471   3.323  11.208
30178SOL    HW192373   5.395   3.265  11.207
30178SOL    HW292374   5.434   3.411  11.217
30179SOL     OW92375  14.768   7.241   4.909
30179SOL    HW192376  14.675   7.248   4.930
30179SOL    HW292377  14.775   7.268   4.818
30180SOL     OW92378   6.132  13.925   1.051
30180SOL    HW192379   6.091  13.931   1.137
30180SOL    HW292380   6.093  13.847   1.011
30181SOL     OW92381   6.578   5.113   9.780
30181SOL    HW192382   6.601   5.088   9.870
30181SOL    HW292383   6.486   5.091   9.772
30182SOL     OW92384  12.112   3.889   9.792
30182SOL    HW192385  12.136   3.804   9.829
30182SOL    HW292386  12.142   3.952   9.857
30183SOL     OW92387   5.967   5.259   3.202
30183SOL    HW192388   6.061   5.272   3.216
30183SOL    HW292389   5.926   5.295   3.281
30184SOL     OW92390   0.855   3.007   7.668
30184SOL    HW192391   0.862   3.097   7.636
30184SOL    HW292392   0.845   2.955   7.588
30185SOL     OW92393  11.051   9.176   4.712
30185SOL    HW192394  11.052   9.135   4.799
30185SOL    HW292395  10.975   9.233   4.713
30186SOL     OW92396  14.414   9.560   9.121
30186SOL    HW192397  14.333   9.571   9.170
30186SOL    HW292398  14.404   9.476   9.076
30187SOL     OW92399  13.495   4.144   0.741
30187SOL    HW192400  13.473   4.104   0.826
30187SOL    HW292401  13.514   4.235   0.762
30188SOL     OW92402  14.205   8.530  10.160
30188SOL    HW192403  14.141   8.552  10.227
30188SOL    HW292404  14.234   8.614  10.126
30189SOL     OW92405   0.417   6.318   0.082
30189SOL    HW192406   0.365   6.334   0.004
30189SOL    HW292407   0.359   6.269   0.140
30190SOL     OW92408  12.967   7.150   5.621
30190SOL    HW192409  12.973   7.236   5.579
30190SOL    HW292410  12.943   7.091   5.549
30191SOL     OW92411   5.722   3.480   0.982
30191SOL    HW192412   5.722   3.408   1.045
30191SOL    HW292413   5.802   3.529   1.001
30192SOL     OW92414   9.652  12.842   3.743
30192SOL    HW192415   9.632  12.773   3.680
30192SOL    HW292416   9.585  12.833   3.811
30193SOL     OW92417  12.353  13.751   4.293
30193SOL    HW192418  12.332  13.663   4.324
30193SOL    HW292419  12.340  13.746   4.198
30194SOL     OW92420   8.242   2.748   2.295
30194SOL    HW192421   8.268   2.768   2.385
30194SOL    HW292422   8.303   2.799   2.241
30195SOL     OW92423   8.730   3.977  14.202
30195SOL    HW192424   8.673   3.992  14.277
30195SOL    HW292425   8.817   4.005  14.232
30196SOL     OW92426   1.328   7.075  13.212
30196SOL    HW192427   1.291   7.145  13.158
30196SOL    HW292428   1.401   7.041  13.160
30197SOL     OW92429   1.549   4.706   1.984
30197SOL    HW192430   1.503   4.692   1.901
30197SOL    HW292431   1.504   4.650   2.046
30198SOL     OW92432   7.170   8.930   2.650
30198SOL    HW192433   7.114   8.958   2.578
30198SOL    HW292434   7.247   8.987   2.643
30199SOL     OW92435   6.487   8.246   7.208
30199SOL    HW192436   6.434   8.326   7.207
30199SOL    HW292437   6.569   8.272   7.250
30200SOL     OW92438   1.703  14.177   1.895
30200SOL    HW192439   1.639  14.150   1.960
30200SOL    HW292440   1.690  14.272   1.886
30201SOL     OW92441   9.102   6.101   1.045
30201SOL    HW192442   9.175   6.127   1.102
30201SOL    HW292443   9.075   6.183   1.003
30202SOL     OW92444   5.680  11.671   8.533
30202SOL    HW192445   5.693  11.708   8.621
30202SOL    HW292446   5.637  11.587   8.549
30203SOL     OW92447   8.268   7.404  11.295
30203SOL    HW192448   8.290   7.424  11.204
30203SOL    HW292449   8.349   7.372  11.334
30204SOL     OW92450  14.621  12.137   8.226
30204SOL    HW192451  14.651  12.190   8.300
30204SOL    HW292452  14.618  12.197   8.152
30205SOL     OW92453  12.749  11.020  12.438
30205SOL    HW192454  12.837  10.985  12.449
30205SOL    HW292455  12.744  11.091  12.502
30206SOL     OW92456   0.205   5.069  14.271
30206SOL    HW192457   0.197   5.024  14.356
30206SOL    HW292458   0.114   5.086  14.245
30207SOL     OW92459   3.345   9.599   9.494
30207SOL    HW192460   3.299   9.548   9.561
30207SOL    HW292461   3.354   9.539   9.420
30208SOL     OW92462  12.731  11.543   9.559
30208SOL    HW192463  12.670  11.476   9.589
30208SOL    HW292464  12.718  11.616   9.620
30209SOL     OW92465   8.855   3.764   7.716
30209SOL    HW192466   8.906   3.771   7.635
30209SOL    HW292467   8.812   3.679   7.710
30210SOL     OW92468   4.325  10.530  11.851
30210SOL    HW192469   4.353  10.616  11.882
30210SOL    HW292470   4.357  10.469  11.918
30211SOL     OW92471  14.327   5.762   2.874
30211SOL    HW192472  14.243   5.765   2.828
30211SOL    HW292473  14.393   5.765   2.804
30212SOL     OW92474   9.947   1.508   1.180
30212SOL    HW192475   9.965   1.582   1.122
30212SOL    HW292476  10.013   1.443   1.156
30213SOL     OW92477  11.540   9.351   1.282
30213SOL    HW192478  11.494   9.306   1.211
30213SOL    HW292479  11.627   9.312   1.283
30214SOL     OW92480   7.215   3.930   3.859
30214SOL    HW192481   7.256   3.993   3.801
30214SOL    HW292482   7.152   3.883   3.803
30215SOL     OW92483   6.335   0.103  14.382
30215SOL    HW192484   6.308   0.104  14.473
30215SOL    HW292485   6.388   0.023  14.373
30216SOL     OW92486   3.292   9.663   1.287
30216SOL    HW192487   3.291   9.668   1.192
30216SOL    HW292488   3.384   9.670   1.311
30217SOL     OW92489  12.167  14.862  13.509
30217SOL    HW192490  12.169   0.012  13.600
30217SOL    HW292491  12.249  14.814  13.497
30218SOL     OW92492   4.301  13.073   7.751
30218SOL    HW192493   4.217  13.028   7.764
30218SOL    HW292494   4.288  13.128   7.674
30219SOL     OW92495   3.535  11.009   6.237
30219SOL    HW192496   3.464  10.948   6.260
30219SOL    HW292497   3.498  11.063   6.167
30220SOL     OW92498   9.289   8.977   0.463
30220SOL    HW192499   9.361   8.914   0.469
30220SOL    HW292500   9.216   8.927   0.425
30221SOL     OW92501   2.130   9.154  13.329
30221SOL    HW192502   2.211   9.204  13.339
30221SOL    HW292503   2.083   9.168  13.412
30222SOL     OW92504   8.557  13.143  11.522
30222SOL    HW192505   8.471  13.102  11.528
30222SOL    HW292506   8.548  13.206  11.450
30223SOL     OW92507  12.043   3.509  10.510
30223SOL    HW192508  12.086   3.577  10.457
30223SOL    HW292509  12.107   3.489  10.578
30224SOL     OW92510   9.326   8.189   1.274
30224SOL    HW192511   9.404   8.244   1.283
30224SOL    HW292512   9.295   8.177   1.364
30225SOL     OW92513   3.277   2.010   2.398
30225SOL    HW192514   3.290   2.013   2.493
30225SOL    HW292515   3.234   1.926   2.382
30226SOL     OW92516  14.085   8.495   7.326
30226SOL    HW192517  14.145   8.556   7.369
30226SOL    HW292518  14.027   8.466   7.396
30227SOL     OW92519  10.792   3.052   5.535
30227SOL    HW192520  10.847   3.108   5.480
30227SOL    HW292521  10.830   3.059   5.623
30228SOL     OW92522   5.907   4.762   0.129
30228SOL    HW192523   5.851   4.716   0.067
30228SOL    HW292524   5.886   4.725   0.214
30229SOL     OW92525   6.333  13.579  10.665
30229SOL    HW192526   6.343  13.562  10.571
30229SOL    HW292527   6.420  13.606  10.694
30230SOL     OW92528   3.860  14.400   9.021
30230SOL    HW192529   3.799  14.333   8.991
30230SOL    HW292530   3.805  14.464   9.067
30231SOL     OW92531   6.353  14.438   8.094
30231SOL    HW192532   6.325  14.513   8.041
30231SOL    HW292533   6.386  14.477   8.175
30232SOL     OW92534   0.905  14.581   2.107
30232SOL    HW192535   0.853  14.589   2.187
30232SOL    HW292536   0.990  14.620   2.128
30233SOL     OW92537   4.228  11.673   4.177
30233SOL    HW192538   4.218  11.703   4.087
30233SOL    HW292539   4.164  11.603   4.187
30234SOL     OW92540   1.685   8.581  11.082
30234SOL    HW192541   1.774   8.584  11.047
30234SOL    HW292542   1.669   8.669  11.116
30235SOL     OW92543  10.126   7.375  10.763
30235SOL    HW192544  10.212   7.364  10.722
30235SOL    HW292545  10.108   7.290  10.804
30236SOL     OW92546  11.496  12.354  10.577
30236SOL    HW192547  11.465  12.346  10.487
30236SOL    HW292548  11.432  12.411  10.619
30237SOL     OW92549  12.994   2.711   5.320
30237SOL    HW192550  12.966   2.624   5.291
30237SOL    HW292551  12.915   2.750   5.357
30238SOL     OW92552   8.406   7.568   1.308
30238SOL    HW192553   8.483   7.581   1.252
30238SOL    HW292554   8.332   7.590   1.251
30239SOL     OW92555   9.280   0.087   5.522
30239SOL    HW192556   9.242  14.879   5.534
30239SOL    HW292557   9.374   0.072   5.512
30240SOL     OW92558  13.901   1.916   8.744
30240SOL    HW192559  13.960   1.983   8.778
30240SOL    HW292560  13.876   1.864   8.821
30241SOL     OW92561  12.272  14.811   4.966
30241SOL    HW192562  12.210  14.759   4.914
30241SOL    HW292563  12.291  14.757   5.042
30242SOL     OW92564   6.903   0.749   9.144
30242SOL    HW192565   6.848   0.689   9.095
30242SOL    HW292566   6.990   0.709   9.142
30243SOL     OW92567   4.151  11.417  14.854
30243SOL    HW192568   4.121  11.432  14.764
30243SOL    HW292569   4.071  11.419   0.027
30244SOL     OW92570  14.256   1.487  11.816
30244SOL    HW192571  14.319   1.450  11.877
30244SOL    HW292572  14.200   1.414  11.791
30245SOL     OW92573   4.242  13.686  13.653
30245SOL    HW192574   4.252  13.632  13.731
30245SOL    HW292575   4.248  13.776  13.685
30246SOL     OW92576   3.543   0.282  12.002
30246SOL    HW192577   3.520   0.220  11.933
30246SOL    HW292578   3.460   0.303  12.045
30247SOL     OW92579   9.819   3.965  12.700
30247SOL    HW192580   9.736   4.007  12.676
30247SOL    HW292581   9.845   3.917  12.621
30248SOL     OW92582  13.137   5.863  13.143
30248SOL    HW192583  13.132   5.949  13.102
30248SOL    HW292584  13.106   5.803  13.075
30249SOL     OW92585  14.702  10.021   3.871
30249SOL    HW192586  14.773  10.021   3.806
30249SOL    HW292587  14.645   9.948   3.844
30250SOL     OW92588  11.104   1.007   0.830
30250SOL    HW192589  11.171   0.960   0.780
30250SOL    HW292590  11.025   0.997   0.778
30251SOL     OW92591   2.677   4.805   8.481
30251SOL    HW192592   2.671   4.872   8.549
30251SOL    HW292593   2.668   4.853   8.399
30252SOL     OW92594   6.447   3.712   5.946
30252SOL    HW192595   6.375   3.715   6.009
30252SOL    HW292596   6.526   3.711   5.999
30253SOL     OW92597   8.354   5.363   9.542
30253SOL    HW192598   8.283   5.355   9.479
30253SOL    HW292599   8.317   5.417   9.612
30254SOL     OW92600  12.448   2.007   0.347
30254SOL    HW192601  12.449   1.967   0.260
30254SOL    HW292602  12.362   2.048   0.353
30255SOL     OW92603   4.065   2.083  14.324
30255SOL    HW192604   4.001   2.126  14.267
30255SOL    HW292605   4.147   2.089  14.275
30256SOL     OW92606   2.159  14.298  10.553
30256SOL    HW192607   2.171  14.204  10.545
30256SOL    HW292608   2.244  14.336  10.529
30257SOL     OW92609   6.390  14.392   2.265
30257SOL    HW192610   6.428  14.448   2.197
30257SOL    HW292611   6.416  14.432   2.347
30258SOL     OW92612  10.565  13.705   1.037
30258SOL    HW192613  10.514  13.677   1.113
30258SOL    HW292614  10.544  13.642   0.969
30259SOL     OW92615  11.456   2.088   3.189
30259SOL    HW192616  11.530   2.089   3.128
30259SOL    HW292617  11.442   2.181   3.210
30260SOL     OW92618   5.194   7.525  12.154
30260SOL    HW192619   5.144   7.527  12.072
30260SOL    HW292620   5.274   7.574  12.134
30261SOL     OW92621   4.684   8.317   9.146
30261SOL    HW192622   4.708   8.248   9.084
30261SOL    HW292623   4.658   8.270   9.225
30262SOL     OW92624   2.747  10.497  13.428
30262SOL    HW192625   2.699  10.526  13.351
30262SOL    HW292626   2.710  10.411  13.449
30263SOL     OW92627   9.650   3.782   5.583
30263SOL    HW192628   9.724   3.730   5.614
30263SOL    HW292629   9.579   3.718   5.573
30264SOL     OW92630   7.088  10.461   3.550
30264SOL    HW192631   7.164  10.464   3.608
30264SOL    HW292632   7.116  10.407   3.476
30265SOL     OW92633   7.183   0.495   0.425
30265SOL    HW192634   7.127   0.443   0.483
30265SOL    HW292635   7.258   0.519   0.480
30266SOL     OW92636  12.275   4.447   7.545
30266SOL    HW192637  12.260   4.402   7.462
30266SOL    HW292638  12.250   4.538   7.527
30267SOL     OW92639   1.762   4.354   6.420
30267SOL    HW192640   1.719   4.276   6.386
30267SOL    HW292641   1.704   4.427   6.396
30268SOL     OW92642   2.824   0.966   7.665
30268SOL    HW192643   2.744   0.975   7.614
30268SOL    HW292644   2.831   0.872   7.683
30269SOL     OW92645   4.344   4.971  13.896
30269SOL    HW192646   4.329   4.940  13.985
30269SOL    HW292647   4.400   4.905  13.855
30270SOL     OW92648  14.436   2.388   4.464
30270SOL    HW192649  14.531   2.379   4.452
30270SOL    HW292650  14.412   2.463   4.410
30271SOL     OW92651  13.033   9.632  14.148
30271SOL    HW192652  13.049   9.679  14.066
30271SOL    HW292653  13.121   9.614  14.182
30272SOL     OW92654   3.398   6.754   8.797
30272SOL    HW192655   3.462   6.793   8.737
30272SOL    HW292656   3.394   6.816   8.870
30273SOL     OW92657   2.779  11.548   6.037
30273SOL    HW192658   2.811  11.475   6.089
30273SOL    HW292659   2.851  11.612   6.038
30274SOL     OW92660   9.135  10.353   9.020
30274SOL    HW192661   9.164  10.263   9.008
30274SOL    HW292662   9.169  10.400   8.944
30275SOL     OW92663   9.229  11.515  13.906
30275SOL    HW192664   9.254  11.522  13.814
30275SOL    HW292665   9.272  11.436  13.937
30276SOL     OW92666   3.389   5.961  10.449
30276SOL    HW192667   3.299   5.985  10.469
30276SOL    HW292668   3.420   6.031  10.390
30277SOL     OW92669  12.377   6.091   0.656
30277SOL    HW192670  12.333   6.163   0.611
30277SOL    HW292671  12.412   6.037   0.585
30278SOL     OW92672   5.661   9.306  14.829
30278SOL    HW192673   5.672   9.396  14.797
30278SOL    HW292674   5.567   9.290  14.825
30279SOL     OW92675  14.610   8.047   3.524
30279SOL    HW192676  14.621   8.028   3.618
30279SOL    HW292677  14.521   8.083   3.518
30280SOL     OW92678   2.647   8.031   9.900
30280SOL    HW192679   2.590   8.054   9.973
30280SOL    HW292680   2.668   8.115   9.858
30281SOL     OW92681   7.930   1.484   9.807
30281SOL    HW192682   7.902   1.524   9.889
30281SOL    HW292683   7.921   1.554   9.742
30282SOL     OW92684   1.109   7.895   0.665
30282SOL    HW192685   1.130   7.985   0.688
30282SOL    HW292686   1.015   7.895   0.646
30283SOL     OW92687   8.987   7.385   8.976
30283SOL    HW192688   9.063   7.399   9.031
30283SOL    HW292689   9.006   7.305   8.928
30284SOL     OW92690   3.028   0.197  14.682
30284SOL    HW192691   3.114   0.171  14.648
30284SOL    HW292692   3.045   0.274  14.736
30285SOL     OW92693  13.392  14.430   9.465
30285SOL    HW192694  13.327  14.493   9.497
30285SOL    HW292695  13.433  14.474   9.390
30286SOL     OW92696  10.630  12.590   9.406
30286SOL    HW192697  10.627  12.527   9.333
30286SOL    HW292698  10.678  12.543   9.475
30287SOL     OW92699   4.574   5.962  11.647
30287SOL    HW192700   4.659   5.996  11.620
30287SOL    HW292701   4.582   5.951  11.742
30288SOL     OW92702   9.556   2.742  10.367
30288SOL    HW192703   9.472   2.745  10.321
30288SOL    HW292704   9.621   2.762  10.300
30289SOL     OW92705   9.413  13.115   2.981
30289SOL    HW192706   9.463  13.035   2.965
30289SOL    HW292707   9.463  13.184   2.938
30290SOL     OW92708  14.456  11.448   8.466
30290SOL    HW192709  14.447  11.383   8.396
30290SOL    HW292710  14.479  11.529   8.421
30291SOL     OW92711  14.457  10.971   2.414
30291SOL    HW192712  14.400  10.938   2.345
30291SOL    HW292713  14.545  10.941   2.390
30292SOL     OW92714   4.371  12.286   6.278
30292SOL    HW192715   4.409  12.199   6.261
30292SOL    HW292716   4.424  12.321   6.350
30293SOL     OW92717   4.915   1.105   4.503
30293SOL    HW192718   4.962   1.092   4.585
30293SOL    HW292719   4.823   1.099   4.527
30294SOL     OW92720   0.464   9.964   2.328
30294SOL    HW192721   0.532   9.942   2.265
30294SOL    HW292722   0.504  10.032   2.383
30295SOL     OW92723  14.091   6.605   0.286
30295SOL    HW192724  14.022   6.538   0.292
30295SOL    HW292725  14.081   6.642   0.199
30296SOL     OW92726   8.506   9.304   2.262
30296SOL    HW192727   8.416   9.336   2.263
30296SOL    HW292728   8.514   9.253   2.343
30297SOL     OW92729   1.185  10.959  10.641
30297SOL    HW192730   1.233  11.022  10.588
30297SOL    HW292731   1.180  10.881  10.586
30298SOL     OW92732   0.136   3.171   4.778
30298SOL    HW192733   0.065   3.235   4.787
30298SOL    HW292734   0.181   3.172   4.862
30299SOL     OW92735   6.288   4.101   9.512
30299SOL    HW192736   6.235   4.179   9.531
30299SOL    HW292737   6.300   4.059   9.597
30300SOL     OW92738   3.724  11.399   0.532
30300SOL    HW192739   3.680  11.431   0.611
30300SOL    HW292740   3.661  11.340   0.492
30301SOL     OW92741  13.560   4.405   0.810
30301SOL    HW192742  13.632   4.418   0.749
30301SOL    HW292743  13.512   4.488   0.808
30302SOL     OW92744   1.906  12.951   8.549
30302SOL    HW192745   1.984  12.901   8.526
30302SOL    HW292746   1.840  12.885   8.569
30303SOL     OW92747  11.605   4.933   3.765
30303SOL    HW192748  11.530   4.936   3.825
30303SOL    HW292749  11.586   4.860   3.706
30304SOL     OW92750   0.109  12.862   1.749
30304SOL    HW192751   0.031  12.807   1.755
30304SOL    HW292752   0.174  12.817   1.803
30305SOL     OW92753   4.946   8.352   3.055
30305SOL    HW192754   4.936   8.277   3.113
30305SOL    HW292755   4.873   8.409   3.076
30306SOL     OW92756   7.577   0.690  10.130
30306SOL    HW192757   7.665   0.681  10.168
30306SOL    HW292758   7.527   0.739  10.196
30307SOL     OW92759  13.947   6.860  11.188
30307SOL    HW192760  13.931   6.773  11.150
30307SOL    HW292761  13.930   6.848  11.282
30308SOL     OW92762   6.266  11.110   1.500
30308SOL    HW192763   6.232  11.145   1.582
30308SOL    HW292764   6.308  11.027   1.525
30309SOL     OW92765   9.967   5.104   9.621
30309SOL    HW192766   9.935   5.016   9.640
30309SOL    HW292767   9.894   5.148   9.577
30310SOL     OW92768  10.875  10.427  13.551
30310SOL    HW192769  10.930  10.495  13.512
30310SOL    HW292770  10.816  10.474  13.609
30311SOL     OW92771  10.301   8.742   8.570
30311SOL    HW192772  10.360   8.671   8.543
30311SOL    HW292773  10.357   8.802   8.620
30312SOL     OW92774   7.252   6.646   7.926
30312SOL    HW192775   7.239   6.626   8.019
30312SOL    HW292776   7.322   6.711   7.925
30313SOL     OW92777   1.270   3.900   5.016
30313SOL    HW192778   1.224   3.825   5.051
30313SOL    HW292779   1.254   3.897   4.921
30314SOL     OW92780   3.883   4.908  14.070
30314SOL    HW192781   3.860   4.915  13.978
30314SOL    HW292782   3.915   4.995  14.094
30315SOL     OW92783   2.040  11.578  13.773
30315SOL    HW192784   2.032  11.518  13.848
30315SOL    HW292785   2.124  11.555  13.734
30316SOL     OW92786   1.194   7.139   2.769
30316SOL    HW192787   1.100   7.154   2.765
30316SOL    HW292788   1.227   7.170   2.685
30317SOL     OW92789   1.146   7.804  14.136
30317SOL    HW192790   1.056   7.771  14.137
30317SOL    HW292791   1.184   7.767  14.056
30318SOL     OW92792   7.454  10.378   1.112
30318SOL    HW192793   7.520  10.382   1.181
30318SOL    HW292794   7.371  10.373   1.158
30319SOL     OW92795  14.498   5.082   9.251
30319SOL    HW192796  14.488   5.024   9.176
30319SOL    HW292797  14.590   5.076   9.275
30320SOL     OW92798  13.475   4.735  12.265
30320SOL    HW192799  13.481   4.640  12.274
30320SOL    HW292800  13.493   4.752  12.173
30321SOL     OW92801  12.775  11.528   5.767
30321SOL    HW192802  12.812  11.616   5.756
30321SOL    HW292803  12.680  11.541   5.758
30322SOL     OW92804   4.789   4.267   3.574
30322SOL    HW192805   4.702   4.277   3.536
30322SOL    HW292806   4.848   4.262   3.499
30323SOL     OW92807   1.024   7.141   5.714
30323SOL    HW192808   1.059   7.227   5.693
30323SOL    HW292809   0.994   7.148   5.805
30324SOL     OW92810  14.536   9.379  14.026
30324SOL    HW192811  14.494   9.459  14.058
30324SOL    HW292812  14.628   9.389  14.049
30325SOL     OW92813  10.930   7.728  13.282
30325SOL    HW192814  10.940   7.745  13.376
30325SOL    HW292815  10.876   7.800  13.250
30326SOL     OW92816  13.754  13.004  13.745
30326SOL    HW192817  13.818  13.044  13.804
30326SOL    HW292818  13.746  13.066  13.673
30327SOL     OW92819   6.877  13.593  13.547
30327SOL    HW192820   6.924  13.521  13.504
30327SOL    HW292821   6.794  13.555  13.574
30328SOL     OW92822   3.358   9.100   3.414
30328SOL    HW192823   3.301   9.034   3.375
30328SOL    HW292824   3.441   9.092   3.367
30329SOL     OW92825   2.619  14.360   5.802
30329SOL    HW192826   2.694  14.401   5.845
30329SOL    HW292827   2.559  14.432   5.783
30330SOL     OW92828   5.921   9.919   4.429
30330SOL    HW192829   5.914   9.939   4.336
30330SOL    HW292830   5.835   9.941   4.465
30331SOL     OW92831  14.621   2.743  11.293
30331SOL    HW192832  14.715   2.754  11.307
30331SOL    HW292833  14.580   2.811  11.346
30332SOL     OW92834   0.282   7.219  12.413
30332SOL    HW192835   0.365   7.253  12.379
30332SOL    HW292836   0.300   7.127  12.430
30333SOL     OW92837   6.288   6.541   6.743
30333SOL    HW192838   6.344   6.576   6.674
30333SOL    HW292839   6.267   6.617   6.798
30334SOL     OW92840  10.230   1.754   6.398
30334SOL    HW192841  10.196   1.733   6.311
30334SOL    HW292842  10.239   1.849   6.399
30335SOL     OW92843   5.673   5.045   6.642
30335SOL    HW192844   5.608   5.033   6.711
30335SOL    HW292845   5.661   5.135   6.613
30336SOL     OW92846   4.816   5.576  10.866
30336SOL    HW192847   4.810   5.655  10.812
30336SOL    HW292848   4.800   5.607  10.955
30337SOL     OW92849  14.716  12.266   7.658
30337SOL    HW192850  14.654  12.209   7.612
30337SOL    HW292851  14.779  12.207   7.698
30338SOL     OW92852  14.338   8.458   8.158
30338SOL    HW192853  14.381   8.489   8.238
30338SOL    HW292854  14.339   8.363   8.166
30339SOL     OW92855  13.826   7.332   4.848
30339SOL    HW192856  13.908   7.295   4.882
30339SOL    HW292857  13.824   7.306   4.756
30340SOL     OW92858   9.121  11.522   6.222
30340SOL    HW192859   9.037  11.552   6.260
30340SOL    HW292860   9.155  11.599   6.176
30341SOL     OW92861   9.375   1.280   7.300
30341SOL    HW192862   9.399   1.199   7.345
30341SOL    HW292863   9.414   1.272   7.213
30342SOL     OW92864   7.599   2.167  13.981
30342SOL    HW192865   7.667   2.103  14.001
30342SOL    HW292866   7.533   2.153  14.049
30343SOL     OW92867   6.727   4.258   4.335
30343SOL    HW192868   6.801   4.199   4.346
30343SOL    HW292869   6.750   4.335   4.388
30344SOL     OW92870   6.970  13.325  12.636
30344SOL    HW192871   7.044  13.268  12.616
30344SOL    HW292872   6.968  13.388  12.563
30345SOL     OW92873   7.801   1.107   6.750
30345SOL    HW192874   7.763   1.023   6.772
30345SOL    HW292875   7.769   1.167   6.818
30346SOL     OW92876   3.861   2.421   8.062
30346SOL    HW192877   3.860   2.335   8.105
30346SOL    HW292878   3.776   2.425   8.017
30347SOL     OW92879   6.200  13.124   0.999
30347SOL    HW192880   6.194  13.031   0.977
30347SOL    HW292881   6.159  13.130   1.086
30348SOL     OW92882  14.332   9.450   6.404
30348SOL    HW192883  14.255   9.441   6.459
30348SOL    HW292884  14.305   9.510   6.334
30349SOL     OW92885  11.730  13.110   7.966
30349SOL    HW192886  11.804  13.085   7.910
30349SOL    HW292887  11.722  13.205   7.955
30350SOL     OW92888  12.581   4.785  10.794
30350SOL    HW192889  12.607   4.816  10.881
30350SOL    HW292890  12.491   4.756  10.805
30351SOL     OW92891   8.952   5.441   1.605
30351SOL    HW192892   8.995   5.492   1.673
30351SOL    HW292893   9.002   5.360   1.600
30352SOL     OW92894   5.029   6.185   4.043
30352SOL    HW192895   5.086   6.215   3.973
30352SOL    HW292896   5.084   6.130   4.098
30353SOL     OW92897   9.099   2.088   4.159
30353SOL    HW192898   9.038   2.159   4.180
30353SOL    HW292899   9.142   2.118   4.079
30354SOL     OW92900   2.627  12.653   4.335
30354SOL    HW192901   2.647  12.733   4.287
30354SOL    HW292902   2.704  12.640   4.391
30355SOL     OW92903   7.502  12.295   5.071
30355SOL    HW192904   7.499  12.244   5.152
30355SOL    HW292905   7.560  12.368   5.092
30356SOL     OW92906   5.209   3.217  12.035
30356SOL    HW192907   5.273   3.278  12.000
30356SOL    HW292908   5.154   3.193  11.960
30357SOL     OW92909  11.492  10.263   6.627
30357SOL    HW192910  11.505  10.211   6.706
30357SOL    HW292911  11.446  10.342   6.658
30358SOL     OW92912  12.899  11.926   1.089
30358SOL    HW192913  12.865  11.945   1.001
30358SOL    HW292914  12.933  11.837   1.083
30359SOL     OW92915   0.561  13.010   2.571
30359SOL    HW192916   0.650  13.044   2.581
30359SOL    HW292917   0.512  13.049   2.643
30360SOL     OW92918  14.100   9.797   9.762
30360SOL    HW192919  14.046   9.833   9.692
30360SOL    HW292920  14.066   9.709   9.776
30361SOL     OW92921   4.811  11.751   1.276
30361SOL    HW192922   4.759  11.688   1.326
30361SOL    HW292923   4.746  11.807   1.234
30362SOL     OW92924   1.604   4.777   6.493
30362SOL    HW192925   1.666   4.815   6.555
30362SOL    HW292926   1.525   4.831   6.502
30363SOL     OW92927  13.971   8.647  10.988
30363SOL    HW192928  13.989   8.697  11.067
30363SOL    HW292929  14.043   8.585  10.980
30364SOL     OW92930  13.972   1.586   0.203
30364SOL    HW192931  13.974   1.524   0.276
30364SOL    HW292932  14.053   1.636   0.211
30365SOL     OW92933   8.833   9.535   5.241
30365SOL    HW192934   8.828   9.475   5.166
30365SOL    HW292935   8.750   9.522   5.287
30366SOL     OW92936  11.511  11.427  14.721
30366SOL    HW192937  11.505  11.522  14.727
30366SOL    HW292938  11.560  11.410  14.641
30367SOL     OW92939   8.158   6.334   5.430
30367SOL    HW192940   8.066   6.358   5.419
30367SOL    HW292941   8.203   6.417   5.443
30368SOL     OW92942   2.744   7.895  13.604
30368SOL    HW192943   2.669   7.939  13.563
30368SOL    HW292944   2.755   7.941  13.687
30369SOL     OW92945  14.079  11.363  14.673
30369SOL    HW192946  14.097  11.435  14.613
30369SOL    HW292947  14.138  11.294  14.645
30370SOL     OW92948   4.544  14.707   8.595
30370SOL    HW192949   4.588  14.697   8.679
30370SOL    HW292950   4.517  14.619   8.571
30371SOL     OW92951   7.427  12.797  13.410
30371SOL    HW192952   7.343  12.825  13.446
30371SOL    HW292953   7.468  12.746  13.479
30372SOL     OW92954   9.896   0.910  14.601
30372SOL    HW192955   9.924   0.834  14.550
30372SOL    HW292956   9.912   0.885  14.692
30373SOL     OW92957  14.500   6.771  14.192
30373SOL    HW192958  14.544   6.766  14.277
30373SOL    HW292959  14.492   6.865  14.175
30374SOL     OW92960   4.549   6.751   7.324
30374SOL    HW192961   4.602   6.791   7.393
30374SOL    HW292962   4.550   6.657   7.344
30375SOL     OW92963   3.332  10.876   6.316
30375SOL    HW192964   3.282  10.921   6.248
30375SOL    HW292965   3.327  10.934   6.392
30376SOL     OW92966   4.129  11.741   3.088
30376SOL    HW192967   4.034  11.739   3.083
30376SOL    HW292968   4.159  11.737   2.997
30377SOL     OW92969   5.380   8.103  14.422
30377SOL    HW192970   5.307   8.147  14.380
30377SOL    HW292971   5.450   8.104  14.357
30378SOL     OW92972   5.270  13.578   3.900
30378SOL    HW192973   5.344  13.585   3.960
30378SOL    HW292974   5.243  13.668   3.884
30379SOL     OW92975   5.718   5.945  13.536
30379SOL    HW192976   5.800   5.968  13.578
30379SOL    HW292977   5.729   5.974  13.445
30380SOL     OW92978   3.164  11.531   1.251
30380SOL    HW192979   3.214  11.518   1.171
30380SOL    HW292980   3.177  11.450   1.301
30381SOL     OW92981   0.300  12.386   6.398
30381SOL    HW192982   0.386  12.363   6.364
30381SOL    HW292983   0.240  12.371   6.324
30382SOL     OW92984   9.460   6.581   0.589
30382SOL    HW192985   9.500   6.621   0.666
30382SOL    HW292986   9.437   6.655   0.533
30383SOL     OW92987   3.454  10.409  12.581
30383SOL    HW192988   3.484  10.345  12.517
30383SOL    HW292989   3.428  10.357  12.657
30384SOL     OW92990   1.768   9.534   9.843
30384SOL    HW192991   1.845   9.563   9.893
30384SOL    HW292992   1.799   9.457   9.795
30385SOL     OW92993  10.649   1.114   9.088
30385SOL    HW192994  10.730   1.129   9.137
30385SOL    HW292995  10.676   1.114   8.997
30386SOL     OW92996  11.894   4.473  10.466
30386SOL    HW192997  11.919   4.389  10.506
30386SOL    HW292998  11.815   4.452  10.415
30387SOL     OW92999   3.347   4.847  12.102
30387SOL    HW193000   3.265   4.892  12.120
30387SOL    HW293001   3.324   4.776  12.042
30388SOL     OW93002  10.716   1.608   4.800
30388SOL    HW193003  10.790   1.555   4.829
30388SOL    HW293004  10.643   1.546   4.796
30389SOL     OW93005   6.433  12.923   5.734
30389SOL    HW193006   6.366  12.880   5.787
30389SOL    HW293007   6.444  12.866   5.658
30390SOL     OW93008  10.422  13.120  11.661
30390SOL    HW193009  10.435  13.051  11.596
30390SOL    HW293010  10.340  13.096  11.705
30391SOL     OW93011   1.397   1.894   3.444
30391SOL    HW193012   1.417   1.830   3.512
30391SOL    HW293013   1.451   1.866   3.370
30392SOL     OW93014  10.578  12.557   5.679
30392SOL    HW193015  10.669  12.580   5.661
30392SOL    HW293016  10.583  12.490   5.747
30393SOL     OW93017   4.184  12.010  13.328
30393SOL    HW193018   4.205  11.919  13.352
30393SOL    HW293019   4.192  12.058  13.410
30394SOL     OW93020   9.234  11.604   8.203
30394SOL    HW193021   9.211  11.693   8.229
30394SOL    HW293022   9.296  11.574   8.270
30395SOL     OW93023   4.501   7.208  13.156
30395SOL    HW193024   4.569   7.212  13.089
30395SOL    HW293025   4.522   7.130  13.207
30396SOL     OW93026   5.679  11.434   2.286
30396SOL    HW193027   5.617  11.374   2.247
30396SOL    HW293028   5.733  11.380   2.344
30397SOL     OW93029  10.449   6.513   9.397
30397SOL    HW193030  10.436   6.606   9.419
30397SOL    HW293031  10.369   6.470   9.426
30398SOL     OW93032   2.351   0.813   7.703
30398SOL    HW193033   2.312   0.856   7.627
30398SOL    HW293034   2.276   0.783   7.754
30399SOL     OW93035   0.116   6.202   0.012
30399SOL    HW193036   0.157   6.267  14.834
30399SOL    HW293037   0.034   6.180  14.846
30400SOL     OW93038   9.078  14.251   1.669
30400SOL    HW193039   9.050  14.325   1.614
30400SOL    HW293040   9.173  14.249   1.659
30401SOL     OW93041  10.597   2.288   6.184
30401SOL    HW193042  10.636   2.364   6.227
30401SOL    HW293043  10.564   2.234   6.256
30402SOL     OW93044   3.583   5.133   7.938
30402SOL    HW193045   3.620   5.111   7.852
30402SOL    HW293046   3.624   5.217   7.960
30403SOL     OW93047   1.999  14.615   2.523
30403SOL    HW193048   2.021  14.562   2.600
30403SOL    HW293049   2.035  14.702   2.542
30404SOL     OW93050   6.682   7.518  13.019
30404SOL    HW193051   6.701   7.512  13.112
30404SOL    HW293052   6.767   7.529  12.977
30405SOL     OW93053  11.572   2.139  11.109
30405SOL    HW193054  11.580   2.089  11.190
30405SOL    HW293055  11.480   2.168  11.108
30406SOL     OW93056   1.828   1.161  13.184
30406SOL    HW193057   1.891   1.208  13.239
30406SOL    HW293058   1.809   1.222  13.112
30407SOL     OW93059   8.658   0.334  11.862
30407SOL    HW193060   8.610   0.290  11.932
30407SOL    HW293061   8.721   0.390  11.907
30408SOL     OW93062  11.866   7.669   5.003
30408SOL    HW193063  11.789   7.683   5.058
30408SOL    HW293064  11.915   7.751   5.009
30409SOL     OW93065   3.329   6.350   6.445
30409SOL    HW193066   3.378   6.348   6.363
30409SOL    HW293067   3.395   6.338   6.513
30410SOL     OW93068  12.356   6.823   4.764
30410SOL    HW193069  12.300   6.749   4.742
30410SOL    HW293070  12.441   6.802   4.725
30411SOL     OW93071  12.600   4.686   3.593
30411SOL    HW193072  12.563   4.774   3.592
30411SOL    HW293073  12.651   4.683   3.674
30412SOL     OW93074  13.436   8.767  10.014
30412SOL    HW193075  13.446   8.737  10.105
30412SOL    HW293076  13.417   8.687   9.964
30413SOL     OW93077   0.337   7.611   7.274
30413SOL    HW193078   0.375   7.657   7.199
30413SOL    HW293079   0.249   7.647   7.283
30414SOL     OW93080   1.673   3.557  10.082
30414SOL    HW193081   1.658   3.583   9.992
30414SOL    HW293082   1.590   3.518  10.110
30415SOL     OW93083   5.524   8.089  13.984
30415SOL    HW193084   5.526   8.071  13.890
30415SOL    HW293085   5.433   8.115  14.001
30416SOL     OW93086  14.593   7.389  11.557
30416SOL    HW193087  14.500   7.372  11.573
30416SOL    HW293088  14.593   7.472  11.510
30417SOL     OW93089   8.921   3.691   5.817
30417SOL    HW193090   8.894   3.775   5.781
30417SOL    HW293091   9.013   3.683   5.793
30418SOL     OW93092  13.942   1.343   3.485
30418SOL    HW193093  13.876   1.403   3.449
30418SOL    HW293094  13.896   1.259   3.493
30419SOL     OW93095  14.504   7.138   9.011
30419SOL    HW193096  14.549   7.186   9.080
30419SOL    HW293097  14.425   7.189   8.993
30420SOL     OW93098   3.874   7.990  12.946
30420SOL    HW193099   3.891   7.987  12.852
30420SOL    HW293100   3.951   7.949  12.986
30421SOL     OW93101   8.256   8.858   7.999
30421SOL    HW193102   8.302   8.936   7.970
30421SOL    HW293103   8.197   8.889   8.067
30422SOL     OW93104   4.706  11.818   5.025
30422SOL    HW193105   4.730  11.872   4.950
30422SOL    HW293106   4.611  11.812   5.021
30423SOL     OW93107   8.963   2.606  13.087
30423SOL    HW193108   8.920   2.586  13.004
30423SOL    HW293109   9.020   2.530  13.103
30424SOL     OW93110   4.103   3.302   7.479
30424SOL    HW193111   4.174   3.253   7.437
30424SOL    HW293112   4.031   3.298   7.417
30425SOL     OW93113   2.686   6.667   7.651
30425SOL    HW193114   2.651   6.650   7.563
30425SOL    HW293115   2.746   6.740   7.639
30426SOL     OW93116  10.362   3.034   4.887
30426SOL    HW193117  10.277   3.074   4.869
30426SOL    HW293118  10.346   2.976   4.962
30427SOL     OW93119   4.697  11.790   5.305
30427SOL    HW193120   4.784  11.751   5.302
30427SOL    HW293121   4.668  11.789   5.213
30428SOL     OW93122  12.057   8.352  13.224
30428SOL    HW193123  12.059   8.403  13.144
30428SOL    HW293124  12.057   8.261  13.194
30429SOL     OW93125  13.787   3.950  13.061
30429SOL    HW193126  13.799   3.949  12.966
30429SOL    HW293127  13.816   3.864  13.090
30430SOL     OW93128   9.774   6.301   3.491
30430SOL    HW193129   9.776   6.273   3.400
30430SOL    HW293130   9.681   6.300   3.515
30431SOL     OW93131   5.510   4.095  12.023
30431SOL    HW193132   5.590   4.147  12.023
30431SOL    HW293133   5.485   4.089  12.115
30432SOL     OW93134   6.829   2.269   9.890
30432SOL    HW193135   6.823   2.223   9.806
30432SOL    HW293136   6.904   2.230   9.934
30433SOL     OW93137   2.238   6.539   2.347
30433SOL    HW193138   2.189   6.459   2.328
30433SOL    HW293139   2.330   6.511   2.351
30434SOL     OW93140   7.148   3.653  11.264
30434SOL    HW193141   7.166   3.612  11.349
30434SOL    HW293142   7.080   3.598  11.224
30435SOL     OW93143   0.084   6.259   3.783
30435SOL    HW193144   0.063   6.323   3.715
30435SOL    HW293145   0.137   6.193   3.738
30436SOL     OW93146   3.241  12.703  12.087
30436SOL    HW193147   3.233  12.720  11.993
30436SOL    HW293148   3.329  12.666  12.098
30437SOL     OW93149   8.362   4.804   0.936
30437SOL    HW193150   8.387   4.747   0.863
30437SOL    HW293151   8.349   4.890   0.895
30438SOL     OW93152  14.002  11.954  14.139
30438SOL    HW193153  13.957  11.873  14.164
30438SOL    HW293154  14.095  11.936  14.153
30439SOL     OW93155   9.974   8.833  12.755
30439SOL    HW193156   9.935   8.897  12.815
30439SOL    HW293157   9.911   8.827  12.683
30440SOL     OW93158  10.778   9.903  12.587
30440SOL    HW193159  10.817   9.819  12.609
30440SOL    HW293160  10.793   9.958  12.664
30441SOL     OW93161   5.756   1.710   4.001
30441SOL    HW193162   5.832   1.713   4.059
30441SOL    HW293163   5.681   1.711   4.060
30442SOL     OW93164   4.952   9.918   3.203
30442SOL    HW193165   4.938   9.830   3.167
30442SOL    HW293166   4.926   9.977   3.132
30443SOL     OW93167   4.913   1.881   2.923
30443SOL    HW193168   4.841   1.931   2.884
30443SOL    HW293169   4.957   1.840   2.849
30444SOL     OW93170   7.486   3.881   8.626
30444SOL    HW193171   7.461   3.886   8.534
30444SOL    HW293172   7.546   3.807   8.631
30445SOL     OW93173  14.132   3.823  12.661
30445SOL    HW193174  14.147   3.733  12.631
30445SOL    HW293175  14.085   3.814  12.743
30446SOL     OW93176   4.016   0.372   9.944
30446SOL    HW193177   4.040   0.372   9.851
30446SOL    HW293178   4.023   0.280   9.970
30447SOL     OW93179   5.624   1.187   2.451
30447SOL    HW193180   5.531   1.203   2.439
30447SOL    HW293181   5.634   1.092   2.441
30448SOL     OW93182  12.534  11.910   2.587
30448SOL    HW193183  12.567  11.995   2.618
30448SOL    HW293184  12.587  11.845   2.633
30449SOL     OW93185   2.239   2.327   0.376
30449SOL    HW193186   2.278   2.398   0.325
30449SOL    HW293187   2.276   2.337   0.464
30450SOL     OW93188   5.688   2.402   2.669
30450SOL    HW193189   5.629   2.345   2.619
30450SOL    HW293190   5.638   2.483   2.681
30451SOL     OW93191   8.721   9.491   2.559
30451SOL    HW193192   8.631   9.465   2.539
30451SOL    HW293193   8.734   9.574   2.512
30452SOL     OW93194   3.453  11.276   1.196
30452SOL    HW193195   3.521  11.330   1.156
30452SOL    HW293196   3.397  11.250   1.122
30453SOL     OW93197  13.693   6.659   9.298
30453SOL    HW193198  13.708   6.743   9.341
30453SOL    HW293199  13.640   6.681   9.221
30454SOL     OW93200   0.318   4.224  12.012
30454SOL    HW193201   0.273   4.274  12.080
30454SOL    HW293202   0.313   4.133  12.042
30455SOL     OW93203  13.346  13.020  11.995
30455SOL    HW193204  13.371  12.938  12.037
30455SOL    HW293205  13.339  12.998  11.902
30456SOL     OW93206   4.752   4.013   7.192
30456SOL    HW193207   4.657   4.030   7.191
30456SOL    HW293208   4.774   4.010   7.285
30457SOL     OW93209  14.602   5.185   2.166
30457SOL    HW193210  14.643   5.122   2.106
30457SOL    HW293211  14.542   5.133   2.219
30458SOL     OW93212  14.790   7.065   1.898
30458SOL    HW193213   0.001   7.089   1.875
30458SOL    HW293214  14.799   7.014   1.978
30459SOL     OW93215   7.864  14.004   6.112
30459SOL    HW193216   7.930  14.024   6.045
30459SOL    HW293217   7.912  14.007   6.195
30460SOL     OW93218   5.736   5.547  14.691
30460SOL    HW193219   5.666   5.496  14.731
30460SOL    HW293220   5.705   5.638  14.697
30461SOL     OW93221   5.176  13.886   7.363
30461SOL    HW193222   5.225  13.829   7.304
30461SOL    HW293223   5.202  13.858   7.451
30462SOL     OW93224  14.296   2.204   1.233
30462SOL    HW193225  14.308   2.158   1.316
30462SOL    HW293226  14.384   2.229   1.207
30463SOL     OW93227   6.407  11.178   0.624
30463SOL    HW193228   6.421  11.203   0.715
30463SOL    HW293229   6.495  11.183   0.585
30464SOL     OW93230   8.656   3.646   7.490
30464SOL    HW193231   8.572   3.606   7.466
30464SOL    HW293232   8.692   3.678   7.407
30465SOL     OW93233   6.561  11.804   2.733
30465SOL    HW193234   6.599  11.798   2.645
30465SOL    HW293235   6.564  11.898   2.753
30466SOL     OW93236   0.481   8.162   8.634
30466SOL    HW193237   0.520   8.206   8.559
30466SOL    HW293238   0.554   8.147   8.694
30467SOL     OW93239  11.351   8.376   8.525
30467SOL    HW193240  11.287   8.446   8.511
30467SOL    HW293241  11.319   8.304   8.471
30468SOL     OW93242   6.624  10.821  13.154
30468SOL    HW193243   6.564  10.749  13.172
30468SOL    HW293244   6.650  10.807  13.062
30469SOL     OW93245   9.180   7.373  11.333
30469SOL    HW193246   9.210   7.331  11.253
30469SOL    HW293247   9.085   7.359  11.334
30470SOL     OW93248   4.298   2.805  10.117
30470SOL    HW193249   4.215   2.778  10.157
30470SOL    HW293250   4.277   2.816  10.024
30471SOL     OW93251   4.170   1.945  14.814
30471SOL    HW193252   4.121   1.879  14.863
30471SOL    HW293253   4.257   1.906  14.803
30472SOL     OW93254   5.544   7.822  11.902
30472SOL    HW193255   5.519   7.803  11.812
30472SOL    HW293256   5.639   7.813  11.903
30473SOL     OW93257   4.971   0.944   3.560
30473SOL    HW193258   5.001   0.885   3.629
30473SOL    HW293259   5.050   0.965   3.510
30474SOL     OW93260  14.588  13.162   4.514
30474SOL    HW193261  14.630  13.238   4.554
30474SOL    HW293262  14.661  13.108   4.483
30475SOL     OW93263   5.254   3.331  11.650
30475SOL    HW193264   5.178   3.324  11.592
30475SOL    HW293265   5.263   3.243  11.688
30476SOL     OW93266   1.305   0.253  13.076
30476SOL    HW193267   1.288   0.335  13.121
30476SOL    HW293268   1.399   0.240  13.083
30477SOL     OW93269   8.289   4.738   2.593
30477SOL    HW193270   8.344   4.787   2.532
30477SOL    HW293271   8.317   4.647   2.582
30478SOL     OW93272   4.106   1.545  11.427
30478SOL    HW193273   4.147   1.499  11.500
30478SOL    HW293274   4.047   1.480  11.388
30479SOL     OW93275   4.095   1.645   7.922
30479SOL    HW193276   4.173   1.698   7.908
30479SOL    HW293277   4.085   1.594   7.843
30480SOL     OW93278   3.065  11.347  10.767
30480SOL    HW193279   3.099  11.284  10.831
30480SOL    HW293280   2.991  11.388  10.811
30481SOL     OW93281   0.405   3.697   4.676
30481SOL    HW193282   0.331   3.637   4.673
30481SOL    HW293283   0.463   3.667   4.606
30482SOL     OW93284   0.557  10.007   2.745
30482SOL    HW193285   0.652  10.022   2.738
30482SOL    HW293286   0.517  10.087   2.712
30483SOL     OW93287   3.243   2.171   1.030
30483SOL    HW193288   3.330   2.143   1.059
30483SOL    HW293289   3.189   2.092   1.037
30484SOL     OW93290   0.120   6.913   9.360
30484SOL    HW193291   0.100   6.883   9.449
30484SOL    HW293292   0.216   6.908   9.355
30485SOL     OW93293   7.014   5.246  12.569
30485SOL    HW193294   7.082   5.216  12.509
30485SOL    HW293295   7.023   5.341  12.571
30486SOL     OW93296  10.506   8.705   0.290
30486SOL    HW193297  10.542   8.788   0.321
30486SOL    HW293298  10.582   8.647   0.284
30487SOL     OW93299   0.215   1.364  11.883
30487SOL    HW193300   0.180   1.444  11.923
30487SOL    HW293301   0.243   1.391  11.796
30488SOL     OW93302  10.728  13.663  14.334
30488SOL    HW193303  10.784  13.675  14.411
30488SOL    HW293304  10.649  13.620  14.368
30489SOL     OW93305  11.282   4.493   2.662
30489SOL    HW193306  11.210   4.552   2.682
30489SOL    HW293307  11.256   4.409   2.701
30490SOL     OW93308   7.000  14.391  10.871
30490SOL    HW193309   6.988  14.352  10.957
30490SOL    HW293310   6.928  14.453  10.861
30491SOL     OW93311   1.070   5.839  11.405
30491SOL    HW193312   1.004   5.771  11.414
30491SOL    HW293313   1.121   5.834  11.486
30492SOL     OW93314  13.147   8.355   1.636
30492SOL    HW193315  13.201   8.294   1.586
30492SOL    HW293316  13.069   8.305   1.661
30493SOL     OW93317   7.058   5.469   0.309
30493SOL    HW193318   7.129   5.526   0.339
30493SOL    HW293319   6.979   5.510   0.343
30494SOL     OW93320   1.442   5.058  14.723
30494SOL    HW193321   1.400   5.141  14.747
30494SOL    HW293322   1.511   5.046  14.789
30495SOL     OW93323   6.739   6.720   1.068
30495SOL    HW193324   6.748   6.800   1.120
30495SOL    HW293325   6.693   6.748   0.989
30496SOL     OW93326   1.453   8.062   0.654
30496SOL    HW193327   1.545   8.087   0.665
30496SOL    HW293328   1.454   7.966   0.659
30497SOL     OW93329   2.588  13.293   8.830
30497SOL    HW193330   2.538  13.293   8.911
30497SOL    HW293331   2.664  13.237   8.847
30498SOL     OW93332   9.255   3.734   7.809
30498SOL    HW193333   9.186   3.780   7.857
30498SOL    HW293334   9.299   3.802   7.758
30499SOL     OW93335   4.323  12.382   8.787
30499SOL    HW193336   4.326  12.457   8.728
30499SOL    HW293337   4.410  12.342   8.778
30500SOL     OW93338   0.560  10.384   3.161
30500SOL    HW193339   0.465  10.378   3.169
30500SOL    HW293340   0.591  10.392   3.251
30501SOL     OW93341  11.703   9.367   4.378
30501SOL    HW193342  11.632   9.303   4.389
30501SOL    HW293343  11.719   9.399   4.467
30502SOL     OW93344  14.414   1.443   7.021
30502SOL    HW193345  14.480   1.374   7.016
30502SOL    HW293346  14.443   1.500   7.092
30503SOL     OW93347   8.964   6.718   2.207
30503SOL    HW193348   8.961   6.635   2.159
30503SOL    HW293349   9.052   6.722   2.243
30504SOL     OW93350   8.381   2.588   2.100
30504SOL    HW193351   8.341   2.636   2.172
30504SOL    HW293352   8.449   2.535   2.141
30505SOL     OW93353   7.577  11.554   1.523
30505SOL    HW193354   7.622  11.626   1.478
30505SOL    HW293355   7.593  11.569   1.616
30506SOL     OW93356   5.616   7.037  11.365
30506SOL    HW193357   5.524   7.013  11.355
30506SOL    HW293358   5.661   6.954  11.385
30507SOL     OW93359  12.150   6.569  14.824
30507SOL    HW193360  12.124   6.635   0.008
30507SOL    HW293361  12.221   6.522  14.866
30508SOL     OW93362   3.562   4.524  12.222
30508SOL    HW193363   3.557   4.597  12.160
30508SOL    HW293364   3.656   4.507  12.230
30509SOL     OW93365   7.814   4.497   7.860
30509SOL    HW193366   7.847   4.459   7.941
30509SOL    HW293367   7.785   4.422   7.809
30510SOL     OW93368  13.217  11.265  14.372
30510SOL    HW193369  13.214  11.291  14.464
30510SOL    HW293370  13.302  11.221  14.363
30511SOL     OW93371   8.618   2.267   7.796
30511SOL    HW193372   8.703   2.246   7.835
30511SOL    HW293373   8.579   2.330   7.857
30512SOL     OW93374   7.798   5.428  13.419
30512SOL    HW193375   7.735   5.363  13.451
30512SOL    HW293376   7.746   5.506  13.403
30513SOL     OW93377   4.234  12.486   4.210
30513SOL    HW193378   4.235  12.581   4.213
30513SOL    HW293379   4.246  12.458   4.301
30514SOL     OW93380   8.373  12.326  13.567
30514SOL    HW193381   8.315  12.345  13.640
30514SOL    HW293382   8.355  12.395  13.503
30515SOL     OW93383   9.016   9.866   7.598
30515SOL    HW193384   9.013   9.901   7.687
30515SOL    HW293385   8.965   9.928   7.546
30516SOL     OW93386   4.039   1.710  12.657
30516SOL    HW193387   4.001   1.786  12.702
30516SOL    HW293388   4.029   1.638  12.720
30517SOL     OW93389   6.755   2.691  11.624
30517SOL    HW193390   6.762   2.786  11.612
30517SOL    HW293391   6.781   2.677  11.715
30518SOL     OW93392  12.094  13.264  12.056
30518SOL    HW193393  12.117  13.187  12.108
30518SOL    HW293394  12.081  13.333  12.121
30519SOL     OW93395  12.192   1.508  13.926
30519SOL    HW193396  12.259   1.552  13.979
30519SOL    HW293397  12.238   1.437  13.882
30520SOL     OW93398  14.743  10.055  10.449
30520SOL    HW193399  14.694   9.974  10.432
30520SOL    HW293400  14.699  10.121  10.396
30521SOL     OW93401   4.886   0.336   1.321
30521SOL    HW193402   4.848   0.347   1.408
30521SOL    HW293403   4.923   0.422   1.300
30522SOL     OW93404  12.943   1.022  14.387
30522SOL    HW193405  13.039   1.016  14.387
30522SOL    HW293406  12.923   1.076  14.311
30523SOL     OW93407   6.977   1.398  12.601
30523SOL    HW193408   7.057   1.345  12.601
30523SOL    HW293409   6.969   1.429  12.691
30524SOL     OW93410   3.646  11.487  11.860
30524SOL    HW193411   3.704  11.445  11.797
30524SOL    HW293412   3.569  11.431  11.863
30525SOL     OW93413   5.087   4.017  12.121
30525SOL    HW193414   4.996   4.003  12.094
30525SOL    HW293415   5.134   4.030  12.039
30526SOL     OW93416   3.183   9.247  14.740
30526SOL    HW193417   3.230   9.275  14.819
30526SOL    HW293418   3.229   9.168  14.712
30527SOL     OW93419  11.839   4.796   9.558
30527SOL    HW193420  11.831   4.805   9.464
30527SOL    HW293421  11.775   4.729   9.582
30528SOL     OW93422   6.403   5.077   4.986
30528SOL    HW193423   6.488   5.106   4.953
30528SOL    HW293424   6.415   4.985   5.007
30529SOL     OW93425  13.909  11.306   0.989
30529SOL    HW193426  13.955  11.237   1.037
30529SOL    HW293427  13.833  11.264   0.951
30530SOL     OW93428  12.766   8.993  10.842
30530SOL    HW193429  12.843   9.032  10.885
30530SOL    HW293430  12.702   8.983  10.912
30531SOL     OW93431   9.386  10.548   7.288
30531SOL    HW193432   9.468  10.593   7.307
30531SOL    HW293433   9.318  10.613   7.305
30532SOL     OW93434   2.127   0.823   9.622
30532SOL    HW193435   2.191   0.890   9.642
30532SOL    HW293436   2.167   0.771   9.553
30533SOL     OW93437   2.529   2.494   2.366
30533SOL    HW193438   2.507   2.439   2.441
30533SOL    HW293439   2.618   2.466   2.342
30534SOL     OW93440   5.490   8.805   0.170
30534SOL    HW193441   5.441   8.886   0.154
30534SOL    HW293442   5.582   8.830   0.159
30535SOL     OW93443   6.358   4.783   5.117
30535SOL    HW193444   6.353   4.690   5.135
30535SOL    HW293445   6.351   4.825   5.202
30536SOL     OW93446  12.002   4.414   3.096
30536SOL    HW193447  11.986   4.378   3.183
30536SOL    HW293448  12.015   4.507   3.110
30537SOL     OW93449  11.551   5.802   2.087
30537SOL    HW193450  11.538   5.799   2.182
30537SOL    HW293451  11.497   5.731   2.053
30538SOL     OW93452   6.097   6.915   6.393
30538SOL    HW193453   6.021   6.872   6.355
30538SOL    HW293454   6.172   6.864   6.362
30539SOL     OW93455   9.279  10.886   6.433
30539SOL    HW193456   9.273  10.797   6.399
30539SOL    HW293457   9.221  10.938   6.377
30540SOL     OW93458   2.854  13.950   0.233
30540SOL    HW193459   2.826  13.997   0.154
30540SOL    HW293460   2.893  14.018   0.289
30541SOL     OW93461  12.631   4.222   1.783
30541SOL    HW193462  12.724   4.200   1.773
30541SOL    HW293463  12.623   4.252   1.873
30542SOL     OW93464   6.207   0.190  11.632
30542SOL    HW193465   6.203   0.274  11.678
30542SOL    HW293466   6.272   0.139  11.681
30543SOL     OW93467   1.395  11.305   6.111
30543SOL    HW193468   1.362  11.227   6.067
30543SOL    HW293469   1.325  11.333   6.169
30544SOL     OW93470   5.718   1.631   2.167
30544SOL    HW193471   5.701   1.643   2.074
30544SOL    HW293472   5.693   1.540   2.185
30545SOL     OW93473   8.365   4.414   8.754
30545SOL    HW193474   8.304   4.445   8.820
30545SOL    HW293475   8.441   4.384   8.804
30546SOL     OW93476   6.253   5.273  10.916
30546SOL    HW193477   6.332   5.231  10.880
30546SOL    HW293478   6.182   5.212  10.895
30547SOL     OW93479   5.722   1.447   6.054
30547SOL    HW193480   5.664   1.509   6.010
30547SOL    HW293481   5.671   1.366   6.060
30548SOL     OW93482   5.515   8.455  10.849
30548SOL    HW193483   5.463   8.443  10.769
30548SOL    HW293484   5.600   8.417  10.828
30549SOL     OW93485   6.396   3.868  14.412
30549SOL    HW193486   6.338   3.801  14.448
30549SOL    HW293487   6.354   3.951  14.434
30550SOL     OW93488   9.366   4.125   7.982
30550SOL    HW193489   9.401   4.174   7.907
30550SOL    HW293490   9.272   4.141   7.978
30551SOL     OW93491  11.817   5.255  10.089
30551SOL    HW193492  11.871   5.301  10.024
30551SOL    HW293493  11.826   5.308  10.168
30552SOL     OW93494  10.834   8.605   8.202
30552SOL    HW193495  10.872   8.553   8.131
30552SOL    HW293496  10.760   8.553   8.233
30553SOL     OW93497   0.998   6.259  13.806
30553SOL    HW193498   0.916   6.269  13.757
30553SOL    HW293499   1.057   6.214  13.746
30554SOL     OW93500  11.072   3.498   8.030
30554SOL    HW193501  11.094   3.414   8.071
30554SOL    HW293502  11.147   3.518   7.975
30555SOL     OW93503  14.397   6.878   7.576
30555SOL    HW193504  14.336   6.816   7.535
30555SOL    HW293505  14.447   6.825   7.638
30556SOL     OW93506  12.321   7.323  13.252
30556SOL    HW193507  12.377   7.381  13.200
30556SOL    HW293508  12.282   7.262  13.189
30557SOL     OW93509  14.589  12.398   2.893
30557SOL    HW193510  14.636  12.319   2.920
30557SOL    HW293511  14.654  12.467   2.896
30558SOL     OW93512   7.207   7.734   8.958
30558SOL    HW193513   7.190   7.828   8.968
30558SOL    HW293514   7.127   7.699   8.917
30559SOL     OW93515   2.435  13.776   7.959
30559SOL    HW193516   2.458  13.812   7.873
30559SOL    HW293517   2.504  13.712   7.977
30560SOL     OW93518   5.171  13.511   5.097
30560SOL    HW193519   5.201  13.529   5.008
30560SOL    HW293520   5.244  13.463   5.138
30561SOL     OW93521  12.858   9.228  13.440
30561SOL    HW193522  12.937   9.280  13.448
30561SOL    HW293523  12.806   9.273  13.374
30562SOL     OW93524  12.972   2.920  11.409
30562SOL    HW193525  13.050   2.907  11.355
30562SOL    HW293526  12.900   2.923  11.346
30563SOL     OW93527   0.766  11.188  12.951
30563SOL    HW193528   0.711  11.110  12.955
30563SOL    HW293529   0.704  11.260  12.937
30564SOL     OW93530   2.009   6.237   4.380
30564SOL    HW193531   1.977   6.200   4.298
30564SOL    HW293532   2.079   6.297   4.354
30565SOL     OW93533   6.443   6.829   9.808
30565SOL    HW193534   6.362   6.780   9.823
30565SOL    HW293535   6.493   6.820   9.889
30566SOL     OW93536   6.255   7.019  12.284
30566SOL    HW193537   6.346   7.046  12.302
30566SOL    HW293538   6.206   7.052  12.359
30567SOL     OW93539  11.204   8.933   3.981
30567SOL    HW193540  11.155   8.852   3.965
30567SOL    HW293541  11.258   8.944   3.903
30568SOL     OW93542   5.130   2.520   0.142
30568SOL    HW193543   5.109   2.537   0.234
30568SOL    HW293544   5.214   2.563   0.128
30569SOL     OW93545   9.025   4.721  12.454
30569SOL    HW193546   8.937   4.740  12.422
30569SOL    HW293547   9.083   4.760  12.388
30570SOL     OW93548  11.906   0.659   6.008
30570SOL    HW193549  11.882   0.647   5.916
30570SOL    HW293550  11.823   0.677   6.052
30571SOL     OW93551   7.697   2.674  13.328
30571SOL    HW193552   7.688   2.584  13.298
30571SOL    HW293553   7.785   2.678  13.367
30572SOL     OW93554   5.820   1.274  11.709
30572SOL    HW193555   5.900   1.241  11.667
30572SOL    HW293556   5.789   1.343  11.650
30573SOL     OW93557   0.579   4.108  14.217
30573SOL    HW193558   0.599   4.191  14.172
30573SOL    HW293559   0.636   4.044  14.174
30574SOL     OW93560   8.674   1.258  10.010
30574SOL    HW193561   8.711   1.229   9.926
30574SOL    HW293562   8.715   1.344  10.025
30575SOL     OW93563   2.816   6.986   0.467
30575SOL    HW193564   2.900   6.947   0.491
30575SOL    HW293565   2.839   7.055   0.404
30576SOL     OW93566   8.298  11.178   0.417
30576SOL    HW193567   8.213  11.196   0.378
30576SOL    HW293568   8.300  11.083   0.429
30577SOL     OW93569  12.063   4.009   2.865
30577SOL    HW193570  12.123   3.977   2.797
30577SOL    HW293571  12.014   3.931   2.892
30578SOL     OW93572   0.543  14.128  14.615
30578SOL    HW193573   0.544  14.156  14.523
30578SOL    HW293574   0.635  14.116  14.637
30579SOL     OW93575   1.695   1.151  10.521
30579SOL    HW193576   1.784   1.186  10.519
30579SOL    HW293577   1.678   1.123  10.431
30580SOL     OW93578   2.559   8.060  10.215
30580SOL    HW193579   2.586   8.151  10.202
30580SOL    HW293580   2.472   8.066  10.254
30581SOL     OW93581   2.322   0.896   2.393
30581SOL    HW193582   2.417   0.887   2.387
30581SOL    HW293583   2.288   0.816   2.352
30582SOL     OW93584   8.800  10.814   0.621
30582SOL    HW193585   8.758  10.898   0.606
30582SOL    HW293586   8.894  10.831   0.611
30583SOL     OW93587  11.799   5.133   6.309
30583SOL    HW193588  11.713   5.127   6.352
30583SOL    HW293589  11.806   5.053   6.258
30584SOL     OW93590   0.251   4.341   1.666
30584SOL    HW193591   0.232   4.254   1.631
30584SOL    HW293592   0.336   4.332   1.710
30585SOL     OW93593  14.195   5.515   3.233
30585SOL    HW193594  14.211   5.429   3.194
30585SOL    HW293595  14.226   5.507   3.323
30586SOL     OW93596   6.657  11.057  12.981
30586SOL    HW193597   6.617  11.007  13.053
30586SOL    HW293598   6.730  11.002  12.953
30587SOL     OW93599  14.201   0.839   2.622
30587SOL    HW193600  14.175   0.916   2.672
30587SOL    HW293601  14.216   0.771   2.687
30588SOL     OW93602   0.791   3.582  11.500
30588SOL    HW193603   0.793   3.510  11.564
30588SOL    HW293604   0.876   3.625  11.510
30589SOL     OW93605   0.769   2.143   3.345
30589SOL    HW193606   0.801   2.233   3.334
30589SOL    HW293607   0.678   2.153   3.370
30590SOL     OW93608   4.010   8.737   9.273
30590SOL    HW193609   3.986   8.794   9.347
30590SOL    HW293610   3.975   8.782   9.196
30591SOL     OW93611   4.054   6.192  12.806
30591SOL    HW193612   4.036   6.281  12.836
30591SOL    HW293613   4.025   6.135  12.877
30592SOL     OW93614   4.491   1.719   4.419
30592SOL    HW193615   4.402   1.709   4.385
30592SOL    HW293616   4.543   1.656   4.369
30593SOL     OW93617  10.508   5.321   7.629
30593SOL    HW193618  10.515   5.400   7.576
30593SOL    HW293619  10.419   5.289   7.613
30594SOL     OW93620   1.937   5.718  11.101
30594SOL    HW193621   1.988   5.683  11.175
30594SOL    HW293622   1.962   5.663  11.027
30595SOL     OW93623   9.596   1.225   6.730
30595SOL    HW193624   9.527   1.175   6.774
30595SOL    HW293625   9.548   1.277   6.664
30596SOL     OW93626   3.720   0.985   5.664
30596SOL    HW193627   3.671   1.042   5.604
30596SOL    HW293628   3.809   1.020   5.660
30597SOL     OW93629   0.458   0.174  11.179
30597SOL    HW193630   0.381   0.186  11.123
30597SOL    HW293631   0.517   0.246  11.153
30598SOL     OW93632   3.525   2.608  11.191
30598SOL    HW193633   3.492   2.518  11.197
30598SOL    HW293634   3.567   2.624  11.275
30599SOL     OW93635   0.825   7.377   6.744
30599SOL    HW193636   0.798   7.288   6.722
30599SOL    HW293637   0.871   7.408   6.666
30600SOL     OW93638  12.717   8.287  12.599
30600SOL    HW193639  12.732   8.207  12.648
30600SOL    HW293640  12.622   8.302  12.606
30601SOL     OW93641  13.250   6.553   4.940
30601SOL    HW193642  13.217   6.471   4.977
30601SOL    HW293643  13.171   6.605   4.924
30602SOL     OW93644  10.110   8.317   8.280
30602SOL    HW193645  10.064   8.272   8.210
30602SOL    HW293646  10.054   8.304   8.357
30603SOL     OW93647  12.115   6.066   9.093
30603SOL    HW193648  12.092   5.980   9.128
30603SOL    HW293649  12.114   6.124   9.170
30604SOL     OW93650  11.448  11.344   5.717
30604SOL    HW193651  11.494  11.262   5.700
30604SOL    HW293652  11.495  11.384   5.790
30605SOL     OW93653   9.257  10.161   1.353
30605SOL    HW193654   9.230  10.229   1.290
30605SOL    HW293655   9.174  10.126   1.387
30606SOL     OW93656   7.929   3.923  10.090
30606SOL    HW193657   7.870   3.971  10.148
30606SOL    HW293658   7.965   3.854  10.145
30607SOL     OW93659   4.157  14.779  14.462
30607SOL    HW193660   4.124  14.799  14.375
30607SOL    HW293661   4.118  14.695  14.484
30608SOL     OW93662   7.742   0.791   0.900
30608SOL    HW193663   7.683   0.843   0.846
30608SOL    HW293664   7.791   0.737   0.839
30609SOL     OW93665  11.972  12.658   7.070
30609SOL    HW193666  11.973  12.720   6.997
30609SOL    HW293667  11.879  12.645   7.088
30610SOL     OW93668  12.983   8.384   6.683
30610SOL    HW193669  12.895   8.358   6.712
30610SOL    HW293670  12.988   8.478   6.701
30611SOL     OW93671   0.009   2.017   9.014
30611SOL    HW193672  14.839   1.937   9.031
30611SOL    HW293673  14.870   2.073   9.090
30612SOL     OW93674   1.771  12.022   4.790
30612SOL    HW193675   1.720  12.012   4.710
30612SOL    HW293676   1.863  12.019   4.761
30613SOL     OW93677  11.990   1.241  12.131
30613SOL    HW193678  11.958   1.210  12.216
30613SOL    HW293679  12.058   1.304  12.153
30614SOL     OW93680  12.342  13.333  12.746
30614SOL    HW193681  12.258  13.377  12.754
30614SOL    HW293682  12.328  13.265  12.680
30615SOL     OW93683   1.889   2.395   0.768
30615SOL    HW193684   1.935   2.453   0.706
30615SOL    HW293685   1.814   2.446   0.797
30616SOL     OW93686   6.112  11.151   3.879
30616SOL    HW193687   6.190  11.110   3.917
30616SOL    HW293688   6.040  11.094   3.906
30617SOL     OW93689   4.196  14.443   2.165
30617SOL    HW193690   4.163  14.504   2.231
30617SOL    HW293691   4.229  14.369   2.216
30618SOL     OW93692   2.888  10.359   3.779
30618SOL    HW193693   2.938  10.326   3.705
30618SOL    HW293694   2.951  10.409   3.831
30619SOL     OW93695   9.422   9.582  13.341
30619SOL    HW193696   9.364   9.650  13.376
30619SOL    HW293697   9.365   9.505  13.330
30620SOL     OW93698   6.814   1.489   5.949
30620SOL    HW193699   6.770   1.566   5.985
30620SOL    HW293700   6.799   1.495   5.855
30621SOL     OW93701   1.217  13.736   8.726
30621SOL    HW193702   1.133  13.744   8.770
30621SOL    HW293703   1.196  13.718   8.634
30622SOL     OW93704   3.079   2.809   3.474
30622SOL    HW193705   3.068   2.899   3.442
30622SOL    HW293706   3.008   2.760   3.432
30623SOL     OW93707   5.198  11.243  12.033
30623SOL    HW193708   5.161  11.177  12.091
30623SOL    HW293709   5.287  11.257  12.066
30624SOL     OW93710   5.801  13.089   3.425
30624SOL    HW193711   5.754  13.172   3.431
30624SOL    HW293712   5.733  13.023   3.415
30625SOL     OW93713   6.814  14.570  10.839
30625SOL    HW193714   6.733  14.524  10.820
30625SOL    HW293715   6.792  14.628  10.913
30626SOL     OW93716   3.198   0.727   3.518
30626SOL    HW193717   3.186   0.822   3.521
30626SOL    HW293718   3.190   0.704   3.426
30627SOL     OW93719   0.645   2.152   1.076
30627SOL    HW193720   0.633   2.159   0.981
30627SOL    HW293721   0.629   2.060   1.095
30628SOL     OW93722   4.615   2.541   8.996
30628SOL    HW193723   4.613   2.475   9.066
30628SOL    HW293724   4.692   2.518   8.944
30629SOL     OW93725  12.766   5.573  14.617
30629SOL    HW193726  12.677   5.609  14.611
30629SOL    HW293727  12.756   5.482  14.588
30630SOL     OW93728   3.122  10.125   8.490
30630SOL    HW193729   3.033  10.142   8.521
30630SOL    HW293730   3.114  10.049   8.433
30631SOL     OW93731   5.055   6.320   5.462
30631SOL    HW193732   5.001   6.298   5.539
30631SOL    HW293733   5.036   6.250   5.399
30632SOL     OW93734   5.854  13.709   5.712
30632SOL    HW193735   5.866  13.617   5.689
30632SOL    HW293736   5.891  13.718   5.800
30633SOL     OW93737  14.757  11.686  10.943
30633SOL    HW193738  14.697  11.760  10.950
30633SOL    HW293739  14.743  11.651  10.855
30634SOL     OW93740   1.896  12.471   7.946
30634SOL    HW193741   1.816  12.445   7.992
30634SOL    HW293742   1.907  12.405   7.877
30635SOL     OW93743  12.861   8.475   3.369
30635SOL    HW193744  12.884   8.389   3.405
30635SOL    HW293745  12.869   8.465   3.275
30636SOL     OW93746  12.252   8.510   7.104
30636SOL    HW193747  12.307   8.452   7.157
30636SOL    HW293748  12.190   8.452   7.061
30637SOL     OW93749   3.806   0.157   1.418
30637SOL    HW193750   3.849   0.231   1.376
30637SOL    HW293751   3.877   0.095   1.437
30638SOL     OW93752   6.519  11.180   8.545
30638SOL    HW193753   6.556  11.100   8.583
30638SOL    HW293754   6.492  11.154   8.457
30639SOL     OW93755   0.467   6.591  10.216
30639SOL    HW193756   0.455   6.633  10.131
30639SOL    HW293757   0.550   6.543  10.208
30640SOL     OW93758   2.880   1.551   5.293
30640SOL    HW193759   2.861   1.488   5.362
30640SOL    HW293760   2.966   1.525   5.260
30641SOL     OW93761  11.300   0.768   3.663
30641SOL    HW193762  11.281   0.700   3.599
30641SOL    HW293763  11.215   0.811   3.679
30642SOL     OW93764   5.369   8.065  11.902
30642SOL    HW193765   5.350   8.081  11.810
30642SOL    HW293766   5.322   7.984  11.922
30643SOL     OW93767   0.711   6.307   3.788
30643SOL    HW193768   0.728   6.308   3.882
30643SOL    HW293769   0.643   6.240   3.776
30644SOL     OW93770  10.032   5.717   2.849
30644SOL    HW193771  10.040   5.758   2.935
30644SOL    HW293772  10.104   5.755   2.798
30645SOL     OW93773   4.209   4.650   7.945
30645SOL    HW193774   4.301   4.639   7.968
30645SOL    HW293775   4.168   4.682   8.025
30646SOL     OW93776   7.631   7.996  13.291
30646SOL    HW193777   7.658   7.905  13.278
30646SOL    HW293778   7.616   8.029  13.202
30647SOL     OW93779   3.191  13.193   5.051
30647SOL    HW193780   3.105  13.228   5.074
30647SOL    HW293781   3.240  13.194   5.133
30648SOL     OW93782   0.390   3.689   2.586
30648SOL    HW193783   0.311   3.714   2.634
30648SOL    HW293784   0.406   3.598   2.612
30649SOL     OW93785  10.405  12.838   0.932
30649SOL    HW193786  10.479  12.791   0.971
30649SOL    HW293787  10.443  12.888   0.860
30650SOL     OW93788  14.165  11.866   9.535
30650SOL    HW193789  14.162  11.955   9.499
30650SOL    HW293790  14.219  11.817   9.473
30651SOL     OW93791   1.617   0.620   8.056
30651SOL    HW193792   1.559   0.690   8.027
30651SOL    HW293793   1.693   0.664   8.093
30652SOL     OW93794   2.234   9.016   7.121
30652SOL    HW193795   2.226   9.081   7.052
30652SOL    HW293796   2.162   8.955   7.105
30653SOL     OW93797   3.697   5.039   7.415
30653SOL    HW193798   3.601   5.046   7.409
30653SOL    HW293799   3.714   4.945   7.411
30654SOL     OW93800   9.582  10.777   9.423
30654SOL    HW193801   9.494  10.810   9.443
30654SOL    HW293802   9.634  10.856   9.408
30655SOL     OW93803   4.873   2.239  13.860
30655SOL    HW193804   4.855   2.322  13.903
30655SOL    HW293805   4.793   2.187  13.873
30656SOL     OW93806   5.645  14.418   1.656
30656SOL    HW193807   5.675  14.422   1.565
30656SOL    HW293808   5.585  14.343   1.659
30657SOL     OW93809  10.983  13.871  12.422
30657SOL    HW193810  10.946  13.783  12.412
30657SOL    HW293811  10.989  13.883  12.517
30658SOL     OW93812  13.609   5.914   0.301
30658SOL    HW193813  13.680   5.900   0.365
30658SOL    HW293814  13.615   5.839   0.242
30659SOL     OW93815   4.130   3.260  11.363
30659SOL    HW193816   4.048   3.226  11.327
30659SOL    HW293817   4.136   3.350  11.330
30660SOL     OW93818   2.403   0.009   3.390
30660SOL    HW193819   2.320  14.849   3.361
30660SOL    HW293820   2.399   0.099   3.359
30661SOL     OW93821   0.678  13.656   1.491
30661SOL    HW193822   0.674  13.677   1.584
30661SOL    HW293823   0.616  13.584   1.480
30662SOL     OW93824   8.595  14.600   0.843
30662SOL    HW193825   8.499  14.603   0.836
30662SOL    HW293826   8.613  14.630   0.932
30663SOL     OW93827   1.854  12.734   9.107
30663SOL    HW193828   1.947  12.722   9.125
30663SOL    HW293829   1.814  12.747   9.193
30664SOL     OW93830   6.978   5.520   9.818
30664SOL    HW193831   6.952   5.598   9.770
30664SOL    HW293832   7.042   5.477   9.761
30665SOL     OW93833  10.675   6.484   9.009
30665SOL    HW193834  10.639   6.560   9.054
30665SOL    HW293835  10.770   6.492   9.019
30666SOL     OW93836   5.113   6.413  11.837
30666SOL    HW193837   5.143   6.333  11.792
30666SOL    HW293838   5.193   6.453  11.870
30667SOL     OW93839   5.028   3.512  13.143
30667SOL    HW193840   5.072   3.576  13.088
30667SOL    HW293841   5.000   3.443  13.083
30668SOL     OW93842   7.090  13.652   1.162
30668SOL    HW193843   7.178  13.625   1.186
30668SOL    HW293844   7.098  13.681   1.071
30669SOL     OW93845   5.052   5.544  12.744
30669SOL    HW193846   5.094   5.463  12.769
30669SOL    HW293847   5.114   5.586  12.684
30670SOL     OW93848  14.294   8.101   5.819
30670SOL    HW193849  14.212   8.064   5.785
30670SOL    HW293850  14.267   8.168   5.881
30671SOL     OW93851   7.136   3.118   3.977
30671SOL    HW193852   7.203   3.165   4.026
30671SOL    HW293853   7.103   3.053   4.039
30672SOL     OW93854  13.573  11.498   3.915
30672SOL    HW193855  13.612  11.459   3.993
30672SOL    HW293856  13.482  11.517   3.941
30673SOL     OW93857   4.881   0.074  10.373
30673SOL    HW193858   4.822   0.138  10.413
30673SOL    HW293859   4.908   0.017  10.446
30674SOL     OW93860   8.465   6.042   6.493
30674SOL    HW193861   8.487   5.958   6.454
30674SOL    HW293862   8.504   6.107   6.434
30675SOL     OW93863   7.940  14.557   7.604
30675SOL    HW193864   8.026  14.549   7.564
30675SOL    HW293865   7.926  14.474   7.649
30676SOL     OW93866  14.510  14.553  14.582
30676SOL    HW193867  14.580  14.518  14.636
30676SOL    HW293868  14.533  14.645  14.570
30677SOL     OW93869  10.811   3.748  13.878
30677SOL    HW193870  10.889   3.730  13.931
30677SOL    HW293871  10.842   3.743  13.788
30678SOL     OW93872   3.675   2.999   7.616
30678SOL    HW193873   3.629   2.919   7.588
30678SOL    HW293874   3.609   3.068   7.611
30679SOL     OW93875   2.223   5.573  11.111
30679SOL    HW193876   2.275   5.623  11.049
30679SOL    HW293877   2.261   5.485  11.109
30680SOL     OW93878   5.394   9.090  12.615
30680SOL    HW193879   5.458   9.128  12.555
30680SOL    HW293880   5.425   9.001  12.631
30681SOL     OW93881  11.526   5.269  10.122
30681SOL    HW193882  11.548   5.204  10.189
30681SOL    HW293883  11.489   5.342  10.172
30682SOL     OW93884  14.695   4.732  14.237
30682SOL    HW193885  14.737   4.668  14.179
30682SOL    HW293886  14.706   4.696  14.325
30683SOL     OW93887  12.207   9.034  14.102
30683SOL    HW193888  12.240   8.980  14.030
30683SOL    HW293889  12.283   9.049  14.158
30684SOL     OW93890   6.708   7.904   2.611
30684SOL    HW193891   6.661   7.887   2.529
30684SOL    HW293892   6.639   7.904   2.678
30685SOL     OW93893   9.338  10.741  11.799
30685SOL    HW193894   9.354  10.656  11.840
30685SOL    HW293895   9.424  10.778  11.783
30686SOL     OW93896   2.610  14.538   8.186
30686SOL    HW193897   2.667  14.588   8.244
30686SOL    HW293898   2.526  14.584   8.190
30687SOL     OW93899  14.655   4.938   6.904
30687SOL    HW193900  14.571   4.979   6.884
30687SOL    HW293901  14.666   4.871   6.836
30688SOL     OW93902  12.592   9.465  14.234
30688SOL    HW193903  12.637   9.495  14.155
30688SOL    HW293904  12.500   9.483  14.217
30689SOL     OW93905  14.035   8.035   1.878
30689SOL    HW193906  14.045   7.950   1.835
30689SOL    HW293907  13.997   8.014   1.964
30690SOL     OW93908  10.722  13.283  13.327
30690SOL    HW193909  10.674  13.230  13.264
30690SOL    HW293910  10.665  13.288  13.404
30691SOL     OW93911   3.851   6.918   2.408
30691SOL    HW193912   3.772   6.957   2.370
30691SOL    HW293913   3.891   6.869   2.336
30692SOL     OW93914  13.427   8.314   5.352
30692SOL    HW193915  13.440   8.312   5.257
30692SOL    HW293916  13.335   8.292   5.364
30693SOL     OW93917   7.383  10.171  12.508
30693SOL    HW193918   7.447  10.155  12.577
30693SOL    HW293919   7.385  10.266  12.495
30694SOL     OW93920  10.153   7.534   3.356
30694SOL    HW193921  10.072   7.507   3.400
30694SOL    HW293922  10.193   7.451   3.329
30695SOL     OW93923   0.829   2.281   5.229
30695SOL    HW193924   0.856   2.281   5.137
30695SOL    HW293925   0.898   2.232   5.274
30696SOL     OW93926  14.554  12.283  10.890
30696SOL    HW193927  14.518  12.223  10.954
30696SOL    HW293928  14.601  12.348  10.942
30697SOL     OW93929  13.541   1.000  13.572
30697SOL    HW193930  13.568   1.000  13.480
30697SOL    HW293931  13.543   1.092  13.597
30698SOL     OW93932   0.678   2.825  12.862
30698SOL    HW193933   0.756   2.878  12.843
30698SOL    HW293934   0.665   2.772  12.784
30699SOL     OW93935  11.645   2.665  14.598
30699SOL    HW193936  11.720   2.645  14.655
30699SOL    HW293937  11.653   2.759  14.581
30700SOL     OW93938  11.557  11.789   7.099
30700SOL    HW193939  11.579  11.739   7.178
30700SOL    HW293940  11.609  11.869   7.105
30701SOL     OW93941   1.224  13.160   0.705
30701SOL    HW193942   1.138  13.117   0.707
30701SOL    HW293943   1.242  13.181   0.797
30702SOL     OW93944   2.434   3.568   6.362
30702SOL    HW193945   2.379   3.544   6.436
30702SOL    HW293946   2.497   3.631   6.399
30703SOL     OW93947  12.359  11.516   9.700
30703SOL    HW193948  12.368  11.582   9.769
30703SOL    HW293949  12.321  11.564   9.626
30704SOL     OW93950  10.942  14.592   4.482
30704SOL    HW193951  10.929  14.604   4.576
30704SOL    HW293952  10.856  14.610   4.444
30705SOL     OW93953   5.711   0.137   5.856
30705SOL    HW193954   5.624   0.098   5.842
30705SOL    HW293955   5.692   0.222   5.896
30706SOL     OW93956  14.679  11.737  11.897
30706SOL    HW193957  14.608  11.768  11.953
30706SOL    HW293958  14.711  11.816  11.854
30707SOL     OW93959   3.878   1.383  13.685
30707SOL    HW193960   3.932   1.460  13.671
30707SOL    HW293961   3.909   1.346  13.768
30708SOL     OW93962   5.342   5.273   9.793
30708SOL    HW193963   5.369   5.286   9.702
30708SOL    HW293964   5.274   5.206   9.788
30709SOL     OW93965  10.873   7.623   8.078
30709SOL    HW193966  10.854   7.645   7.987
30709SOL    HW293967  10.786   7.608   8.117
30710SOL     OW93968  13.988  13.873   8.239
30710SOL    HW193969  14.001  13.860   8.145
30710SOL    HW293970  13.971  13.785   8.273
30711SOL     OW93971   4.841   7.792  13.978
30711SOL    HW193972   4.830   7.734  14.053
30711SOL    HW293973   4.833   7.880  14.014
30712SOL     OW93974   1.983   0.073   1.898
30712SOL    HW193975   1.989   0.057   1.804
30712SOL    HW293976   2.035   0.153   1.912
30713SOL     OW93977   8.876   2.108   8.978
30713SOL    HW193978   8.870   2.013   8.987
30713SOL    HW293979   8.968   2.128   8.998
30714SOL     OW93980   6.445   2.879  13.477
30714SOL    HW193981   6.366   2.834  13.506
30714SOL    HW293982   6.511   2.809  13.468
30715SOL     OW93983  12.107  11.794   4.317
30715SOL    HW193984  12.090  11.810   4.410
30715SOL    HW293985  12.135  11.879   4.283
30716SOL     OW93986   5.126  10.946   5.105
30716SOL    HW193987   5.216  10.922   5.127
30716SOL    HW293988   5.129  10.964   5.011
30717SOL     OW93989   3.083   8.296  14.493
30717SOL    HW193990   3.122   8.209  14.488
30717SOL    HW293991   3.139   8.350  14.438
30718SOL     OW93992   6.429   8.876  11.704
30718SOL    HW193993   6.447   8.970  11.702
30718SOL    HW293994   6.444   8.851  11.795
30719SOL     OW93995   5.675   8.778   9.309
30719SOL    HW193996   5.627   8.733   9.240
30719SOL    HW293997   5.668   8.871   9.288
30720SOL     OW93998   5.511   1.483   5.716
30720SOL    HW193999   5.524   1.539   5.640
30720SOL    HW294000   5.536   1.538   5.791
30721SOL     OW94001  11.445  13.233   4.592
30721SOL    HW194002  11.457  13.325   4.616
30721SOL    HW294003  11.351  13.224   4.576
30722SOL     OW94004   9.438   3.921   7.738
30722SOL    HW194005   9.476   4.003   7.770
30722SOL    HW294006   9.506   3.884   7.682
30723SOL     OW94007   6.260   0.820  13.427
30723SOL    HW194008   6.217   0.802  13.511
30723SOL    HW294009   6.191   0.856  13.372
30724SOL     OW94010   0.928   1.538  14.262
30724SOL    HW194011   0.838   1.516  14.284
30724SOL    HW294012   0.945   1.492  14.179
30725SOL     OW94013   4.527  13.687  11.736
30725SOL    HW194014   4.500  13.634  11.811
30725SOL    HW294015   4.522  13.777  11.767
30726SOL     OW94016   3.086   8.534   2.457
30726SOL    HW194017   3.118   8.470   2.521
30726SOL    HW294018   3.147   8.526   2.383
30727SOL     OW94019   7.839  12.928   2.542
30727SOL    HW194020   7.834  12.998   2.476
30727SOL    HW294021   7.931  12.926   2.568
30728SOL     OW94022  10.233  10.863   8.288
30728SOL    HW194023  10.168  10.811   8.335
30728SOL    HW294024  10.314  10.851   8.338
30729SOL     OW94025  10.515   5.588   3.486
30729SOL    HW194026  10.508   5.493   3.474
30729SOL    HW294027  10.603   5.601   3.522
30730SOL     OW94028   5.437   7.323   1.130
30730SOL    HW194029   5.344   7.313   1.151
30730SOL    HW294030   5.482   7.285   1.205
30731SOL     OW94031   9.982   9.572   9.361
30731SOL    HW194032   9.917   9.554   9.293
30731SOL    HW294033   9.966   9.663   9.386
30732SOL     OW94034   1.586  11.840   2.503
30732SOL    HW194035   1.605  11.932   2.485
30732SOL    HW294036   1.655  11.811   2.561
30733SOL     OW94037   4.816  10.908   4.842
30733SOL    HW194038   4.893  10.852   4.853
30733SOL    HW294039   4.779  10.916   4.931
30734SOL     OW94040  10.693   9.189  13.629
30734SOL    HW194041  10.639   9.268  13.632
30734SOL    HW294042  10.720   9.175  13.720
30735SOL     OW94043  14.571  14.798   5.000
30735SOL    HW194044  14.662  14.785   4.974
30735SOL    HW294045  14.576  14.824   5.092
30736SOL     OW94046   0.067   0.008  12.864
30736SOL    HW194047   0.039   0.084  12.914
30736SOL    HW294048  14.866  14.835  12.855
30737SOL     OW94049  14.736   6.937   7.608
30737SOL    HW194050  14.787   7.011   7.641
30737SOL    HW294051  14.693   6.972   7.529
30738SOL     OW94052   9.723   4.423  14.821
30738SOL    HW194053   9.762   4.479   0.009
30738SOL    HW294054   9.663   4.480  14.774
30739SOL     OW94055   6.095  14.150   6.352
30739SOL    HW194056   6.169  14.188   6.398
30739SOL    HW294057   6.135  14.089   6.289
30740SOL     OW94058   7.438  12.883   8.145
30740SOL    HW194059   7.519  12.874   8.193
30740SOL    HW294060   7.430  12.802   8.095
30741SOL     OW94061   9.369  14.807   6.133
30741SOL    HW194062   9.401  14.717   6.126
30741SOL    HW294063   9.446  14.857   6.159
30742SOL     OW94064   4.461  10.930   3.404
30742SOL    HW194065   4.497  11.012   3.370
30742SOL    HW294066   4.534  10.889   3.450
30743SOL     OW94067   4.645  14.064   4.560
30743SOL    HW194068   4.602  14.141   4.597
30743SOL    HW294069   4.632  14.071   4.465
30744SOL     OW94070   8.272   4.473   1.954
30744SOL    HW194071   8.200   4.445   1.897
30744SOL    HW294072   8.266   4.568   1.954
30745SOL     OW94073   5.082   7.466   8.314
30745SOL    HW194074   5.098   7.526   8.387
30745SOL    HW294075   5.153   7.485   8.252
30746SOL     OW94076   2.113   7.617  13.861
30746SOL    HW194077   2.071   7.620  13.774
30746SOL    HW294078   2.205   7.638  13.843
30747SOL     OW94079   9.963   9.593   7.000
30747SOL    HW194080   9.930   9.576   7.088
30747SOL    HW294081   9.893   9.643   6.958
30748SOL     OW94082  12.700   4.404   4.276
30748SOL    HW194083  12.669   4.315   4.262
30748SOL    HW294084  12.787   4.393   4.315
30749SOL     OW94085  13.416   6.717   2.936
30749SOL    HW194086  13.348   6.768   2.980
30749SOL    HW294087  13.367   6.661   2.875
30750SOL     OW94088   8.783   2.586  10.859
30750SOL    HW194089   8.762   2.616  10.771
30750SOL    HW294090   8.860   2.636  10.885
30751SOL     OW94091   2.246   5.584   3.967
30751SOL    HW194092   2.173   5.613   4.021
30751SOL    HW294093   2.205   5.533   3.897
30752SOL     OW94094   1.611  11.574   6.984
30752SOL    HW194095   1.612  11.575   6.889
30752SOL    HW294096   1.562  11.496   7.008
30753SOL     OW94097   8.746   3.733  12.074
30753SOL    HW194098   8.690   3.802  12.108
30753SOL    HW294099   8.816   3.779  12.028
30754SOL     OW94100   2.274  14.719  10.393
30754SOL    HW194101   2.349  14.767  10.426
30754SOL    HW294102   2.218  14.786  10.354
30755SOL     OW94103  13.918   6.889  10.324
30755SOL    HW194104  13.941   6.969  10.276
30755SOL    HW294105  13.911   6.821  10.256
30756SOL     OW94106   6.481  13.629   3.700
30756SOL    HW194107   6.463  13.536   3.685
30756SOL    HW294108   6.568  13.643   3.663
30757SOL     OW94109   9.643   0.551  10.437
30757SOL    HW194110   9.580   0.546  10.365
30757SOL    HW294111   9.728   0.537  10.395
30758SOL     OW94112  13.087   1.702  11.190
30758SOL    HW194113  13.051   1.743  11.112
30758SOL    HW294114  13.020   1.641  11.219
30759SOL     OW94115   9.659   1.452   6.285
30759SOL    HW194116   9.608   1.530   6.263
30759SOL    HW294117   9.660   1.401   6.204
30760SOL     OW94118   4.903   3.034  13.128
30760SOL    HW194119   4.995   3.012  13.134
30760SOL    HW294120   4.891   3.062  13.037
30761SOL     OW94121  12.185  14.409   2.456
30761SOL    HW194122  12.246  14.373   2.521
30761SOL    HW294123  12.156  14.492   2.494
30762SOL     OW94124   2.685  14.643  13.639
30762SOL    HW194125   2.726  14.556  13.647
30762SOL    HW294126   2.597  14.630  13.674
30763SOL     OW94127  10.932   3.243   2.354
30763SOL    HW194128  10.855   3.295   2.331
30763SOL    HW294129  10.899   3.177   2.415
30764SOL     OW94130   9.218   5.650  10.701
30764SOL    HW194131   9.178   5.705  10.768
30764SOL    HW294132   9.146   5.596  10.668
30765SOL     OW94133   5.821   4.173   1.352
30765SOL    HW194134   5.869   4.090   1.356
30765SOL    HW294135   5.867   4.224   1.285
30766SOL     OW94136  11.728   8.857  13.215
30766SOL    HW194137  11.635   8.863  13.233
30766SOL    HW294138  11.747   8.933  13.160
30767SOL     OW94139  10.279   0.644   8.964
30767SOL    HW194140  10.367   0.653   9.002
30767SOL    HW294141  10.279   0.557   8.925
30768SOL     OW94142   0.617   5.404   3.729
30768SOL    HW194143   0.681   5.339   3.758
30768SOL    HW294144   0.553   5.408   3.800
30769SOL     OW94145  13.756  11.314   9.447
30769SOL    HW194146  13.823  11.261   9.402
30769SOL    HW294147  13.678  11.259   9.446
30770SOL     OW94148   4.295  11.416   2.495
30770SOL    HW194149   4.201  11.425   2.480
30770SOL    HW294150   4.303  11.401   2.590
30771SOL     OW94151  13.292   8.214   1.956
30771SOL    HW194152  13.338   8.298   1.969
30771SOL    HW294153  13.291   8.174   2.043
30772SOL     OW94154   3.027   1.485  11.791
30772SOL    HW194155   3.019   1.544  11.715
30772SOL    HW294156   3.072   1.408  11.756
30773SOL     OW94157  10.376   0.105   4.246
30773SOL    HW194158  10.399   0.071   4.160
30773SOL    HW294159  10.307   0.046   4.277
30774SOL     OW94160   3.728   4.766   1.532
30774SOL    HW194161   3.753   4.805   1.616
30774SOL    HW294162   3.637   4.742   1.543
30775SOL     OW94163   6.020   0.415   8.025
30775SOL    HW194164   5.989   0.325   8.009
30775SOL    HW294165   5.966   0.469   7.967
30776SOL     OW94166   3.207   8.470   2.229
30776SOL    HW194167   3.156   8.478   2.149
30776SOL    HW294168   3.296   8.495   2.204
30777SOL     OW94169   2.739  13.854   9.998
30777SOL    HW194170   2.683  13.922   9.959
30777SOL    HW294171   2.795  13.902  10.059
30778SOL     OW94172   0.192   0.345  11.133
30778SOL    HW194173   0.119   0.302  11.087
30778SOL    HW294174   0.226   0.408  11.070
30779SOL     OW94175   1.334  10.550   2.502
30779SOL    HW194176   1.409  10.492   2.488
30779SOL    HW294177   1.336  10.569   2.596
30780SOL     OW94178   1.740   1.148  10.199
30780SOL    HW194179   1.751   1.232  10.154
30780SOL    HW294180   1.663   1.108  10.159
30781SOL     OW94181   0.451   3.019   4.978
30781SOL    HW194182   0.507   3.093   4.954
30781SOL    HW294183   0.510   2.944   4.979
30782SOL     OW94184   7.624   7.748   2.896
30782SOL    HW194185   7.581   7.818   2.847
30782SOL    HW294186   7.694   7.791   2.944
30783SOL     OW94187   4.195   5.800   4.056
30783SOL    HW194188   4.267   5.850   4.019
30783SOL    HW294189   4.138   5.779   3.982
30784SOL     OW94190  11.268   1.193  10.117
30784SOL    HW194191  11.278   1.113  10.169
30784SOL    HW294192  11.263   1.263  10.182
30785SOL     OW94193   6.919   6.836  14.856
30785SOL    HW194194   6.856   6.769   0.003
30785SOL    HW294195   6.865   6.908  14.824
30786SOL     OW94196   9.487   5.896   4.158
30786SOL    HW194197   9.446   5.923   4.076
30786SOL    HW294198   9.566   5.848   4.130
30787SOL     OW94199  14.552   6.152   1.151
30787SOL    HW194200  14.644   6.132   1.132
30787SOL    HW294201  14.518   6.188   1.070
30788SOL     OW94202   3.025   7.961   9.298
30788SOL    HW194203   3.105   8.006   9.327
30788SOL    HW294204   3.036   7.954   9.203
30789SOL     OW94205   2.280  14.503   7.201
30789SOL    HW194206   2.241  14.434   7.256
30789SOL    HW294207   2.330  14.556   7.263
30790SOL     OW94208   3.325   7.917   1.964
30790SOL    HW194209   3.356   7.837   2.007
30790SOL    HW294210   3.301   7.975   2.036
30791SOL     OW94211  12.995   1.236   4.342
30791SOL    HW194212  12.982   1.258   4.250
30791SOL    HW294213  13.036   1.150   4.341
30792SOL     OW94214   1.053  13.821   6.134
30792SOL    HW194215   0.988  13.834   6.065
30792SOL    HW294216   1.022  13.875   6.207
30793SOL     OW94217  13.665   4.268   4.968
30793SOL    HW194218  13.744   4.288   4.918
30793SOL    HW294219  13.692   4.199   5.028
30794SOL     OW94220   2.869   9.847  12.689
30794SOL    HW194221   2.950   9.885  12.655
30794SOL    HW294222   2.807   9.854  12.617
30795SOL     OW94223   8.478  11.919   2.781
30795SOL    HW194224   8.571  11.921   2.806
30795SOL    HW294225   8.435  11.972   2.848
30796SOL     OW94226   6.371   6.592   2.101
30796SOL    HW194227   6.412   6.667   2.058
30796SOL    HW294228   6.341   6.627   2.185
30797SOL     OW94229  10.809   5.034   1.871
30797SOL    HW194230  10.716   5.040   1.892
30797SOL    HW294231  10.845   4.976   1.938
30798SOL     OW94232   4.475   2.109   2.229
30798SOL    HW194233   4.410   2.040   2.237
30798SOL    HW294234   4.515   2.096   2.143
30799SOL     OW94235  12.588   6.683   7.286
30799SOL    HW194236  12.498   6.655   7.271
30799SOL    HW294237  12.632   6.605   7.320
30800SOL     OW94238   5.507   0.553  13.472
30800SOL    HW194239   5.466   0.636  13.497
30800SOL    HW294240   5.459   0.487  13.522
30801SOL     OW94241  11.828  12.575   8.546
30801SOL    HW194242  11.834  12.488   8.506
30801SOL    HW294243  11.877  12.632   8.487
30802SOL     OW94244   3.292  11.260   1.481
30802SOL    HW194245   3.197  11.270   1.475
30802SOL    HW294246   3.325  11.287   1.395
30803SOL     OW94247   6.347   4.033   0.920
30803SOL    HW194248   6.362   4.117   0.964
30803SOL    HW294249   6.408   3.973   0.963
30804SOL     OW94250   8.294   5.041   1.191
30804SOL    HW194251   8.266   5.058   1.101
30804SOL    HW294252   8.251   4.958   1.214
30805SOL     OW94253   1.297   6.252  14.563
30805SOL    HW194254   1.334   6.184  14.508
30805SOL    HW294255   1.214   6.275  14.522
30806SOL     OW94256   8.158  10.612   4.207
30806SOL    HW194257   8.225  10.664   4.163
30806SOL    HW294258   8.159  10.641   4.297
30807SOL     OW94259   1.061  10.208   0.624
30807SOL    HW194260   1.006  10.153   0.567
30807SOL    HW294261   1.034  10.184   0.713
30808SOL     OW94262  12.661   7.798  10.588
30808SOL    HW194263  12.706   7.743  10.652
30808SOL    HW294264  12.692   7.887  10.606
30809SOL     OW94265   6.809   8.647   9.158
30809SOL    HW194266   6.771   8.568   9.197
30809SOL    HW294267   6.781   8.645   9.067
30810SOL     OW94268   6.202   5.149  14.083
30810SOL    HW194269   6.151   5.198  14.019
30810SOL    HW294270   6.196   5.199  14.164
30811SOL     OW94271  13.508   8.590   1.495
30811SOL    HW194272  13.593   8.630   1.476
30811SOL    HW294273  13.497   8.601   1.590
30812SOL     OW94274   9.731   9.376  13.988
30812SOL    HW194275   9.822   9.361  14.015
30812SOL    HW294276   9.737   9.395  13.894
30813SOL     OW94277   2.190   5.156   5.990
30813SOL    HW194278   2.141   5.148   5.908
30813SOL    HW294279   2.167   5.244   6.022
30814SOL     OW94280  10.421   9.906  10.324
30814SOL    HW194281  10.368   9.857  10.261
30814SOL    HW294282  10.400   9.998  10.306
30815SOL     OW94283  10.631   0.291  11.081
30815SOL    HW194284  10.684   0.250  11.013
30815SOL    HW294285  10.609   0.378  11.046
30816SOL     OW94286   9.707   3.058   6.966
30816SOL    HW194287   9.674   3.115   7.036
30816SOL    HW294288   9.801   3.053   6.982
30817SOL     OW94289   4.293  13.597  10.354
30817SOL    HW194290   4.324  13.680  10.319
30817SOL    HW294291   4.373  13.545  10.367
30818SOL     OW94292  12.664   2.522   5.753
30818SOL    HW194293  12.616   2.551   5.830
30818SOL    HW294294  12.596   2.493   5.693
30819SOL     OW94295   9.581  10.495  14.227
30819SOL    HW194296   9.532  10.433  14.173
30819SOL    HW294297   9.640  10.538  14.166
30820SOL     OW94298   0.587   9.792   0.869
30820SOL    HW194299   0.670   9.833   0.893
30820SOL    HW294300   0.563   9.832   0.786
30821SOL     OW94301   2.510   8.508  14.151
30821SOL    HW194302   2.583   8.453  14.124
30821SOL    HW294303   2.536   8.540  14.238
30822SOL     OW94304  13.402   0.288   8.536
30822SOL    HW194305  13.374   0.234   8.610
30822SOL    HW294306  13.465   0.233   8.490
30823SOL     OW94307  12.593   9.245   3.849
30823SOL    HW194308  12.505   9.219   3.875
30823SOL    HW294309  12.580   9.319   3.789
30824SOL     OW94310   3.143   9.067  13.545
30824SOL    HW194311   3.058   9.072  13.502
30824SOL    HW294312   3.166   9.158  13.564
30825SOL     OW94313   7.455   5.531   1.367
30825SOL    HW194314   7.498   5.591   1.429
30825SOL    HW294315   7.364   5.560   1.365
30826SOL     OW94316   9.709   7.364   6.791
30826SOL    HW194317   9.795   7.364   6.832
30826SOL    HW294318   9.711   7.439   6.731
30827SOL     OW94319   2.296  12.184   6.801
30827SOL    HW194320   2.244  12.166   6.879
30827SOL    HW294321   2.298  12.280   6.795
30828SOL     OW94322   2.064   6.557  11.172
30828SOL    HW194323   2.046   6.463  11.176
30828SOL    HW294324   2.153   6.563  11.137
30829SOL     OW94325   3.411   8.377   6.919
30829SOL    HW194326   3.373   8.320   6.853
30829SOL    HW294327   3.460   8.443   6.870
30830SOL     OW94328   4.743   3.117   6.733
30830SOL    HW194329   4.792   3.055   6.679
30830SOL    HW294330   4.652   3.094   6.719
30831SOL     OW94331   8.510   6.384   1.744
30831SOL    HW194332   8.490   6.361   1.834
30831SOL    HW294333   8.603   6.364   1.734
30832SOL     OW94334  11.854   1.161  14.215
30832SOL    HW194335  11.804   1.153  14.296
30832SOL    HW294336  11.934   1.207  14.241
30833SOL     OW94337   4.653   8.627   3.672
30833SOL    HW194338   4.577   8.673   3.708
30833SOL    HW294339   4.617   8.547   3.634
30834SOL     OW94340   9.245  12.097  11.836
30834SOL    HW194341   9.251  12.023  11.775
30834SOL    HW294342   9.246  12.056  11.923
30835SOL     OW94343   2.989   5.186  11.900
30835SOL    HW194344   2.904   5.142  11.897
30835SOL    HW294345   2.978   5.262  11.843
30836SOL     OW94346  14.110  13.984   5.219
30836SOL    HW194347  14.068  13.951   5.140
30836SOL    HW294348  14.050  14.052   5.252
30837SOL     OW94349  11.940   4.541  13.816
30837SOL    HW194350  12.033   4.520  13.823
30837SOL    HW294351  11.931   4.628  13.856
30838SOL     OW94352   9.730  10.634   6.167
30838SOL    HW194353   9.748  10.581   6.089
30838SOL    HW294354   9.636  10.623   6.183
30839SOL     OW94355   3.859   1.694  14.619
30839SOL    HW194356   3.767   1.714  14.637
30839SOL    HW294357   3.901   1.780  14.610
30840SOL     OW94358   0.215   9.101  14.059
30840SOL    HW194359   0.227   9.026  14.001
30840SOL    HW294360   0.289   9.095  14.120
30841SOL     OW94361  13.002  13.099   6.276
30841SOL    HW194362  12.939  13.105   6.204
30841SOL    HW294363  13.032  13.189   6.289
30842SOL     OW94364   3.782  10.767   9.833
30842SOL    HW194365   3.740  10.796   9.752
30842SOL    HW294366   3.717  10.711   9.876
30843SOL     OW94367   6.753   4.563   4.849
30843SOL    HW194368   6.795   4.616   4.781
30843SOL    HW294369   6.666   4.602   4.859
30844SOL     OW94370  10.617   6.038   1.305
30844SOL    HW194371  10.691   6.097   1.290
30844SOL    HW294372  10.626   6.010   1.396
30845SOL     OW94373   4.233   7.639   3.577
30845SOL    HW194374   4.232   7.582   3.500
30845SOL    HW294375   4.254   7.726   3.542
30846SOL     OW94376   1.285   4.492   9.455
30846SOL    HW194377   1.343   4.479   9.380
30846SOL    HW294378   1.340   4.477   9.531
30847SOL     OW94379   0.082   1.204  11.461
30847SOL    HW194380   0.067   1.141  11.531
30847SOL    HW294381   0.062   1.289  11.500
30848SOL     OW94382   2.831   0.363   5.158
30848SOL    HW194383   2.888   0.290   5.134
30848SOL    HW294384   2.884   0.442   5.142
30849SOL     OW94385   4.478   6.903   7.707
30849SOL    HW194386   4.555   6.911   7.652
30849SOL    HW294387   4.503   6.944   7.790
30850SOL     OW94388   2.378   5.813   9.675
30850SOL    HW194389   2.356   5.906   9.679
30850SOL    HW294390   2.391   5.795   9.582
30851SOL     OW94391   4.271   1.441   1.823
30851SOL    HW194392   4.308   1.361   1.786
30851SOL    HW294393   4.201   1.466   1.762
30852SOL     OW94394   1.335  10.161  14.764
30852SOL    HW194395   1.360  10.156  14.856
30852SOL    HW294396   1.241  10.174  14.765
30853SOL     OW94397  13.749   8.977   5.166
30853SOL    HW194398  13.831   8.990   5.213
30853SOL    HW294399  13.734   8.883   5.169
30854SOL     OW94400  12.746   9.358  14.698
30854SOL    HW194401  12.780   9.277  14.659
30854SOL    HW294402  12.689   9.329  14.770
30855SOL     OW94403  12.895   2.652   5.768
30855SOL    HW194404  12.805   2.621   5.767
30855SOL    HW294405  12.894   2.730   5.712
30856SOL     OW94406   6.114   6.585   9.621
30856SOL    HW194407   6.094   6.673   9.589
30856SOL    HW294408   6.111   6.530   9.543
30857SOL     OW94409   2.419  11.496   1.986
30857SOL    HW194410   2.491  11.457   1.936
30857SOL    HW294411   2.432  11.465   2.075
30858SOL     OW94412   5.333   8.629  10.384
30858SOL    HW194413   5.263   8.694  10.388
30858SOL    HW294414   5.359   8.628  10.292
30859SOL     OW94415   1.982  13.360  14.796
30859SOL    HW194416   2.059  13.373  14.740
30859SOL    HW294417   1.917  13.421  14.761
30860SOL     OW94418   1.659   7.892  10.968
30860SOL    HW194419   1.683   7.830  10.899
30860SOL    HW294420   1.680   7.978  10.931
30861SOL     OW94421   2.607   4.877   3.318
30861SOL    HW194422   2.561   4.942   3.372
30861SOL    HW294423   2.635   4.811   3.381
30862SOL     OW94424  13.746   1.985  12.848
30862SOL    HW194425  13.694   1.933  12.910
30862SOL    HW294426  13.683   2.039  12.802
30863SOL     OW94427  11.209   4.989   5.654
30863SOL    HW194428  11.150   4.943   5.594
30863SOL    HW294429  11.265   5.042   5.596
30864SOL     OW94430   5.053   8.380   6.148
30864SOL    HW194431   5.063   8.466   6.108
30864SOL    HW294432   5.140   8.340   6.143
30865SOL     OW94433   5.590  12.678   4.012
30865SOL    HW194434   5.644  12.753   4.036
30865SOL    HW294435   5.640  12.633   3.943
30866SOL     OW94436   8.147   2.330  10.434
30866SOL    HW194437   8.119   2.246  10.397
30866SOL    HW294438   8.119   2.395  10.370
30867SOL     OW94439   9.481   7.826   7.990
30867SOL    HW194440   9.470   7.736   7.960
30867SOL    HW294441   9.568   7.851   7.960
30868SOL     OW94442  12.397   2.704   3.299
30868SOL    HW194443  12.479   2.670   3.335
30868SOL    HW294444  12.385   2.788   3.342
30869SOL     OW94445   3.332   6.009   4.959
30869SOL    HW194446   3.283   5.931   4.986
30869SOL    HW294447   3.414   5.974   4.925
30870SOL     OW94448  11.351   8.321   2.923
30870SOL    HW194449  11.309   8.396   2.965
30870SOL    HW294450  11.437   8.353   2.896
30871SOL     OW94451  11.163  10.616   1.114
30871SOL    HW194452  11.087  10.558   1.122
30871SOL    HW294453  11.225  10.582   1.179
30872SOL     OW94454  12.219  12.165  10.352
30872SOL    HW194455  12.139  12.120  10.378
30872SOL    HW294456  12.269  12.174  10.433
30873SOL     OW94457  11.783   5.334   3.934
30873SOL    HW194458  11.852   5.270   3.921
30873SOL    HW294459  11.708   5.299   3.887
30874SOL     OW94460  12.204  10.236   7.426
30874SOL    HW194461  12.276  10.199   7.375
30874SOL    HW294462  12.131  10.241   7.365
30875SOL     OW94463   4.757   5.294   0.628
30875SOL    HW194464   4.776   5.387   0.619
30875SOL    HW294465   4.720   5.285   0.716
30876SOL     OW94466   6.721  10.203   1.736
30876SOL    HW194467   6.687  10.283   1.696
30876SOL    HW294468   6.803  10.186   1.689
30877SOL     OW94469   6.609   1.813   2.304
30877SOL    HW194470   6.529   1.861   2.322
30877SOL    HW294471   6.626   1.765   2.385
30878SOL     OW94472   6.489   5.131  10.871
30878SOL    HW194473   6.547   5.189  10.920
30878SOL    HW294474   6.503   5.045  10.911
30879SOL     OW94475   7.159   9.817   8.851
30879SOL    HW194476   7.168   9.752   8.782
30879SOL    HW294477   7.066   9.840   8.851
30880SOL     OW94478   1.160   2.643   8.735
30880SOL    HW194479   1.223   2.712   8.718
30880SOL    HW294480   1.080   2.690   8.761
30881SOL     OW94481   2.920   8.256   4.329
30881SOL    HW194482   2.903   8.311   4.405
30881SOL    HW294483   2.845   8.270   4.271
30882SOL     OW94484   6.743  12.064   9.269
30882SOL    HW194485   6.799  12.130   9.228
30882SOL    HW294486   6.668  12.114   9.301
30883SOL     OW94487   4.718   8.291  14.363
30883SOL    HW194488   4.801   8.291  14.315
30883SOL    HW294489   4.744   8.298  14.455
30884SOL     OW94490  12.066   8.192   0.731
30884SOL    HW194491  12.036   8.231   0.813
30884SOL    HW294492  12.121   8.260   0.690
30885SOL     OW94493   5.988   5.071   8.010
30885SOL    HW194494   5.961   5.161   7.991
30885SOL    HW294495   5.984   5.027   7.926
30886SOL     OW94496   4.812   5.386  10.048
30886SOL    HW194497   4.737   5.387   9.988
30886SOL    HW294498   4.774   5.393  10.135
30887SOL     OW94499   9.100  10.257  10.106
30887SOL    HW194500   9.129  10.345  10.131
30887SOL    HW294501   9.112  10.204  10.185
30888SOL     OW94502  11.527   6.910   0.995
30888SOL    HW194503  11.583   6.833   0.996
30888SOL    HW294504  11.440   6.875   0.975
30889SOL     OW94505   0.215   2.563  14.520
30889SOL    HW194506   0.200   2.548  14.614
30889SOL    HW294507   0.204   2.477  14.480
30890SOL     OW94508  12.018  13.509   8.878
30890SOL    HW194509  12.078  13.478   8.945
30890SOL    HW294510  11.973  13.583   8.919
30891SOL     OW94511  11.554   0.437   6.628
30891SOL    HW194512  11.583   0.438   6.719
30891SOL    HW294513  11.484   0.372   6.626
30892SOL     OW94514   3.882   1.231   4.835
30892SOL    HW194515   3.831   1.263   4.909
30892SOL    HW294516   3.903   1.140   4.856
30893SOL     OW94517   1.898   7.625   2.722
30893SOL    HW194518   1.977   7.648   2.772
30893SOL    HW294519   1.846   7.705   2.721
30894SOL     OW94520   1.061   7.752   7.968
30894SOL    HW194521   1.151   7.783   7.979
30894SOL    HW294522   1.037   7.718   8.055
30895SOL     OW94523   4.007   5.416   1.761
30895SOL    HW194524   4.041   5.351   1.823
30895SOL    HW294525   3.916   5.391   1.747
30896SOL     OW94526   6.795   7.059   6.331
30896SOL    HW194527   6.763   7.149   6.337
30896SOL    HW294528   6.882   7.067   6.292
30897SOL     OW94529  10.012   8.975  12.388
30897SOL    HW194530   9.945   8.916  12.421
30897SOL    HW294531  10.017   9.045  12.454
30898SOL     OW94532   3.380   9.761  10.532
30898SOL    HW194533   3.390   9.741  10.625
30898SOL    HW294534   3.387   9.856  10.526
30899SOL     OW94535  11.471   8.063  11.473
30899SOL    HW194536  11.449   7.974  11.500
30899SOL    HW294537  11.525   8.052  11.395
30900SOL     OW94538   7.220   7.325   3.785
30900SOL    HW194539   7.194   7.234   3.803
30900SOL    HW294540   7.266   7.353   3.864
30901SOL     OW94541   0.766   2.197   2.108
30901SOL    HW194542   0.755   2.107   2.140
30901SOL    HW294543   0.861   2.209   2.104
30902SOL     OW94544  10.803  13.898   2.007
30902SOL    HW194545  10.795  13.951   1.927
30902SOL    HW294546  10.784  13.959   2.078
30903SOL     OW94547   8.313  11.917   2.374
30903SOL    HW194548   8.322  11.957   2.288
30903SOL    HW294549   8.225  11.879   2.373
30904SOL     OW94550   5.490  12.667  14.213
30904SOL    HW194551   5.426  12.679  14.142
30904SOL    HW294552   5.518  12.576  14.204
30905SOL     OW94553  10.717  12.640  10.680
30905SOL    HW194554  10.768  12.562  10.701
30905SOL    HW294555  10.677  12.665  10.764
30906SOL     OW94556   4.051  12.232   5.258
30906SOL    HW194557   3.996  12.180   5.200
30906SOL    HW294558   4.140  12.211   5.233
30907SOL     OW94559  11.029   2.042   1.103
30907SOL    HW194560  11.115   2.000   1.104
30907SOL    HW294561  10.986   2.006   1.025
30908SOL     OW94562   8.990   6.769   9.253
30908SOL    HW194563   8.934   6.832   9.207
30908SOL    HW294564   9.070   6.766   9.200
30909SOL     OW94565   3.796  14.846  14.413
30909SOL    HW194566   3.864  14.830  14.348
30909SOL    HW294567   3.745   0.040  14.377
30910SOL     OW94568   0.895  14.435   6.358
30910SOL    HW194569   0.817  14.468   6.403
30910SOL    HW294570   0.868  14.425   6.267
30911SOL     OW94571   8.962   7.715   5.887
30911SOL    HW194572   9.023   7.770   5.936
30911SOL    HW294573   8.972   7.628   5.925
30912SOL     OW94574   0.995   1.972  11.201
30912SOL    HW194575   0.998   2.003  11.110
30912SOL    HW294576   1.068   2.016  11.244
30913SOL     OW94577  14.732   3.618   2.473
30913SOL    HW194578  14.781   3.699   2.487
30913SOL    HW294579  14.717   3.615   2.378
30914SOL     OW94580   7.488   2.042   1.958
30914SOL    HW194581   7.434   2.028   1.881
30914SOL    HW294582   7.545   1.965   1.961
30915SOL     OW94583  10.112   3.537   4.733
30915SOL    HW194584  10.075   3.449   4.725
30915SOL    HW294585  10.037   3.593   4.753
30916SOL     OW94586  14.433   2.866   3.486
30916SOL    HW194587  14.439   2.859   3.581
30916SOL    HW294588  14.455   2.779   3.454
30917SOL     OW94589  11.067  11.674  14.383
30917SOL    HW194590  11.055  11.623  14.463
30917SOL    HW294591  11.011  11.751  14.395
30918SOL     OW94592   3.128  14.377   2.884
30918SOL    HW194593   3.108  14.334   2.967
30918SOL    HW294594   3.051  14.431   2.865
30919SOL     OW94595   0.472   6.829   2.500
30919SOL    HW194596   0.429   6.874   2.428
30919SOL    HW294597   0.452   6.882   2.577
30920SOL     OW94598  13.416  14.653   4.872
30920SOL    HW194599  13.453  14.587   4.930
30920SOL    HW294600  13.467  14.732   4.891
30921SOL     OW94601  10.789  10.023   9.716
30921SOL    HW194602  10.883  10.025   9.700
30921SOL    HW294603  10.777  10.074   9.796
30922SOL     OW94604  14.871  14.246  10.775
30922SOL    HW194605   0.001  14.192  10.697
30922SOL    HW294606  14.779  14.271  10.776
30923SOL     OW94607  14.214  12.955   5.871
30923SOL    HW194608  14.194  12.908   5.790
30923SOL    HW294609  14.172  13.041   5.859
30924SOL     OW94610   3.832   5.654   5.085
30924SOL    HW194611   3.882   5.573   5.096
30924SOL    HW294612   3.888   5.722   5.122
30925SOL     OW94613   5.036  12.611   5.953
30925SOL    HW194614   4.989  12.687   5.987
30925SOL    HW294615   5.012  12.540   6.013
30926SOL     OW94616   7.015   7.157   8.835
30926SOL    HW194617   7.100   7.188   8.866
30926SOL    HW294618   7.029   7.064   8.815
30927SOL     OW94619   7.752  11.406  13.478
30927SOL    HW194620   7.733  11.456  13.556
30927SOL    HW294621   7.736  11.466  13.405
30928SOL     OW94622   4.433   4.094  13.582
30928SOL    HW194623   4.474   4.062  13.501
30928SOL    HW294624   4.381   4.021  13.613
30929SOL     OW94625   4.978   8.624   3.498
30929SOL    HW194626   5.065   8.658   3.477
30929SOL    HW294627   4.922   8.654   3.427
30930SOL     OW94628   7.484  10.553   5.305
30930SOL    HW194629   7.551  10.511   5.359
30930SOL    HW294630   7.517  10.641   5.288
30931SOL     OW94631  10.722  11.022   0.192
30931SOL    HW194632  10.736  11.114   0.168
30931SOL    HW294633  10.627  11.012   0.193
30932SOL     OW94634   9.026   9.571  14.753
30932SOL    HW194635   8.943   9.591  14.794
30932SOL    HW294636   9.032   9.630  14.678
30933SOL     OW94637   2.081  13.468   7.425
30933SOL    HW194638   2.091  13.486   7.332
30933SOL    HW294639   2.055  13.376   7.430
30934SOL     OW94640   8.305   0.641   9.767
30934SOL    HW194641   8.346   0.702   9.829
30934SOL    HW294642   8.377   0.607   9.715
30935SOL     OW94643   3.734  10.140  13.089
30935SOL    HW194644   3.723  10.138  12.994
30935SOL    HW294645   3.644  10.138  13.123
30936SOL     OW94646   1.261   2.486  12.643
30936SOL    HW194647   1.334   2.427  12.627
30936SOL    HW294648   1.282   2.529  12.726
30937SOL     OW94649   5.590  12.747   5.035
30937SOL    HW194650   5.584  12.824   5.092
30937SOL    HW294651   5.521  12.689   5.067
30938SOL     OW94652  13.589  13.036  10.680
30938SOL    HW194653  13.649  12.961  10.673
30938SOL    HW294654  13.504  12.997  10.701
30939SOL     OW94655   3.746  14.760   6.649
30939SOL    HW194656   3.817  14.733   6.706
30939SOL    HW294657   3.666  14.737   6.697
30940SOL     OW94658  13.191   8.303   3.403
30940SOL    HW194659  13.280   8.307   3.436
30940SOL    HW294660  13.165   8.394   3.391
30941SOL     OW94661   6.560  13.210  14.529
30941SOL    HW194662   6.474  13.223  14.568
30941SOL    HW294663   6.549  13.237  14.437
30942SOL     OW94664  10.509  12.908   1.808
30942SOL    HW194665  10.422  12.892   1.846
30942SOL    HW294666  10.500  12.885   1.716
30943SOL     OW94667   7.533   8.993  13.477
30943SOL    HW194668   7.484   9.038  13.408
30943SOL    HW294669   7.602   9.054  13.502
30944SOL     OW94670   4.598  13.054  11.410
30944SOL    HW194671   4.560  13.005  11.336
30944SOL    HW294672   4.656  13.118  11.369
30945SOL     OW94673   0.016   0.243  12.992
30945SOL    HW194674  14.827   0.309  12.988
30945SOL    HW294675   0.065   0.263  13.071
30946SOL     OW94676   3.102   9.382   1.175
30946SOL    HW194677   3.087   9.476   1.179
30946SOL    HW294678   3.032   9.344   1.228
30947SOL     OW94679  10.733   1.643   9.003
30947SOL    HW194680  10.640   1.629   8.986
30947SOL    HW294681  10.755   1.579   9.071
30948SOL     OW94682  14.577   8.682   4.836
30948SOL    HW194683  14.497   8.732   4.854
30948SOL    HW294684  14.568   8.653   4.745
30949SOL     OW94685  12.662  14.367   6.985
30949SOL    HW194686  12.680  14.280   6.949
30949SOL    HW294687  12.731  14.380   7.051
30950SOL     OW94688  14.111  14.008  14.679
30950SOL    HW194689  14.185  13.966  14.634
30950SOL    HW294690  14.144  14.025  14.768
30951SOL     OW94691   4.751   3.955   7.482
30951SOL    HW194692   4.715   4.011   7.550
30951SOL    HW294693   4.806   3.892   7.529
30952SOL     OW94694  13.444  11.109  12.607
30952SOL    HW194695  13.504  11.179  12.580
30952SOL    HW294696  13.372  11.114  12.545
30953SOL     OW94697   7.163   4.643   5.314
30953SOL    HW194698   7.111   4.615   5.239
30953SOL    HW294699   7.100   4.689   5.371
30954SOL     OW94700  12.577   8.399   6.889
30954SOL    HW194701  12.633   8.418   6.814
30954SOL    HW294702  12.604   8.463   6.956
30955SOL     OW94703   7.674  11.202   3.477
30955SOL    HW194704   7.741  11.269   3.486
30955SOL    HW294705   7.708  11.126   3.525
30956SOL     OW94706  14.084   8.282  11.120
30956SOL    HW194707  14.117   8.208  11.170
30956SOL    HW294708  14.016   8.320  11.174
30957SOL     OW94709   9.317   6.766  11.453
30957SOL    HW194710   9.357   6.680  11.442
30957SOL    HW294711   9.262   6.778  11.376
30958SOL     OW94712   6.356   9.853   2.144
30958SOL    HW194713   6.390   9.780   2.091
30958SOL    HW294714   6.271   9.872   2.105
30959SOL     OW94715  11.451  10.543   2.290
30959SOL    HW194716  11.470  10.521   2.381
30959SOL    HW294717  11.397  10.622   2.295
30960SOL     OW94718   4.140   0.146   7.078
30960SOL    HW194719   4.197   0.090   7.130
30960SOL    HW294720   4.102   0.207   7.141
30961SOL     OW94721  10.701   3.996   8.033
30961SOL    HW194722  10.716   3.914   8.080
30961SOL    HW294723  10.789   4.029   8.014
30962SOL     OW94724   7.112  13.108   2.724
30962SOL    HW194725   7.040  13.140   2.671
30962SOL    HW294726   7.183  13.171   2.710
30963SOL     OW94727   6.169   1.540   3.038
30963SOL    HW194728   6.226   1.536   2.961
30963SOL    HW294729   6.139   1.450   3.050
30964SOL     OW94730   3.344   2.768   6.535
30964SOL    HW194731   3.281   2.828   6.575
30964SOL    HW294732   3.315   2.681   6.564
30965SOL     OW94733   6.350  10.836   0.627
30965SOL    HW194734   6.390  10.895   0.564
30965SOL    HW294735   6.369  10.876   0.712
30966SOL     OW94736   8.839   0.901  11.869
30966SOL    HW194737   8.884   0.958  11.932
30966SOL    HW294738   8.748   0.933  11.868
30967SOL     OW94739   5.767   6.469   9.691
30967SOL    HW194740   5.707   6.411   9.644
30967SOL    HW294741   5.851   6.456   9.647
30968SOL     OW94742   9.968  11.136   4.434
30968SOL    HW194743   9.937  11.116   4.522
30968SOL    HW294744   9.895  11.184   4.394
30969SOL     OW94745  13.232   0.753   0.724
30969SOL    HW194746  13.246   0.846   0.741
30969SOL    HW294747  13.309   0.727   0.673
30970SOL     OW94748  12.943  13.068   2.243
30970SOL    HW194749  12.950  13.030   2.331
30970SOL    HW294750  12.944  13.162   2.257
30971SOL     OW94751   5.746   6.285   2.810
30971SOL    HW194752   5.741   6.371   2.770
30971SOL    HW294753   5.656   6.251   2.807
30972SOL     OW94754   3.729   5.370   2.273
30972SOL    HW194755   3.816   5.353   2.237
30972SOL    HW294756   3.683   5.287   2.264
30973SOL     OW94757   0.988   4.187   4.535
30973SOL    HW194758   0.996   4.158   4.444
30973SOL    HW294759   0.945   4.272   4.529
30974SOL     OW94760   5.728   6.972   1.174
30974SOL    HW194761   5.808   6.955   1.123
30974SOL    HW294762   5.661   6.919   1.130
30975SOL     OW94763   6.822  10.369  13.360
30975SOL    HW194764   6.733  10.403  13.355
30975SOL    HW294765   6.842  10.337  13.272
30976SOL     OW94766   2.094  10.747   2.474
30976SOL    HW194767   2.167  10.686   2.473
30976SOL    HW294768   2.123  10.821   2.421
30977SOL     OW94769   0.506   4.798  10.446
30977SOL    HW194770   0.487   4.719  10.396
30977SOL    HW294771   0.441   4.862  10.415
30978SOL     OW94772  14.116   1.980  13.484
30978SOL    HW194773  14.179   1.972  13.413
30978SOL    HW294774  14.036   1.940  13.450
30979SOL     OW94775   7.758   9.825   8.337
30979SOL    HW194776   7.775   9.807   8.429
30979SOL    HW294777   7.813   9.764   8.289
30980SOL     OW94778   9.517  14.340   7.860
30980SOL    HW194779   9.613  14.331   7.862
30980SOL    HW294780   9.486  14.274   7.922
30981SOL     OW94781  14.399  11.658   1.192
30981SOL    HW194782  14.322  11.617   1.153
30981SOL    HW294783  14.438  11.588   1.245
30982SOL     OW94784   7.220   9.593   4.224
30982SOL    HW194785   7.152   9.589   4.290
30982SOL    HW294786   7.173   9.608   4.142
30983SOL     OW94787   6.241   1.390  13.732
30983SOL    HW194788   6.197   1.457  13.784
30983SOL    HW294789   6.334   1.403  13.748
30984SOL     OW94790   5.173  12.677   4.945
30984SOL    HW194791   5.187  12.617   4.872
30984SOL    HW294792   5.185  12.764   4.908
30985SOL     OW94793  11.754   1.877   5.272
30985SOL    HW194794  11.722   1.856   5.359
30985SOL    HW294795  11.844   1.845   5.271
30986SOL     OW94796  14.751   7.662  13.980
30986SOL    HW194797  14.769   7.698  14.067
30986SOL    HW294798  14.656   7.667  13.971
30987SOL     OW94799   3.838   0.424  12.281
30987SOL    HW194800   3.824   0.374  12.202
30987SOL    HW294801   3.919   0.389  12.318
30988SOL     OW94802  11.750   5.100  12.803
30988SOL    HW194803  11.787   5.109  12.716
30988SOL    HW294804  11.814   5.047  12.851
30989SOL     OW94805   8.651   7.755  10.536
30989SOL    HW194806   8.558   7.733  10.537
30989SOL    HW294807   8.662   7.806  10.456
30990SOL     OW94808   6.087   8.646   3.317
30990SOL    HW194809   6.011   8.704   3.320
30990SOL    HW294810   6.095   8.623   3.224
30991SOL     OW94811  12.581   2.196   1.160
30991SOL    HW194812  12.534   2.207   1.078
30991SOL    HW294813  12.671   2.223   1.141
30992SOL     OW94814   1.205   4.747   3.327
30992SOL    HW194815   1.204   4.658   3.364
30992SOL    HW294816   1.117   4.758   3.291
30993SOL     OW94817   0.733   3.109   1.058
30993SOL    HW194818   0.682   3.184   1.090
30993SOL    HW294819   0.667   3.042   1.040
30994SOL     OW94820  13.385  12.429  10.949
30994SOL    HW194821  13.472  12.391  10.941
30994SOL    HW294822  13.352  12.432  10.859
30995SOL     OW94823   3.088   3.480   1.898
30995SOL    HW194824   3.044   3.407   1.942
30995SOL    HW294825   3.016   3.534   1.864
30996SOL     OW94826   0.746   1.493   9.268
30996SOL    HW194827   0.656   1.500   9.297
30996SOL    HW294828   0.762   1.400   9.258
30997SOL     OW94829   9.597  12.035   2.874
30997SOL    HW194830   9.665  11.985   2.919
30997SOL    HW294831   9.535  11.970   2.843
30998SOL     OW94832   1.314  11.240  12.407
30998SOL    HW194833   1.392  11.238  12.352
30998SOL    HW294834   1.347  11.225  12.496
30999SOL     OW94835   2.221   1.925  14.712
30999SOL    HW194836   2.231   2.012  14.750
30999SOL    HW294837   2.310   1.896  14.692
31000SOL     OW94838   3.988  10.609  13.129
31000SOL    HW194839   3.930  10.549  13.176
31000SOL    HW294840   4.064  10.618  13.186
31001SOL     OW94841   0.020  12.886   7.689
31001SOL    HW194842   0.066  12.834   7.756
31001SOL    HW294843  14.809  12.857   7.694
31002SOL     OW94844   5.290   0.084  11.170
31002SOL    HW194845   5.221   0.024  11.197
31002SOL    HW294846   5.243   0.163  11.141
31003SOL     OW94847   1.089  11.024   1.990
31003SOL    HW194848   1.084  11.063   2.078
31003SOL    HW294849   1.117  10.934   2.005
31004SOL     OW94850  12.477  12.973   3.017
31004SOL    HW194851  12.463  13.063   3.045
31004SOL    HW294852  12.458  12.920   3.094
31005SOL     OW94853  12.240  13.499   9.905
31005SOL    HW194854  12.176  13.545   9.960
31005SOL    HW294855  12.218  13.525   9.816
31006SOL     OW94856  11.668   4.795   0.846
31006SOL    HW194857  11.590   4.841   0.816
31006SOL    HW294858  11.652   4.778   0.939
31007SOL     OW94859   2.074   8.611   1.953
31007SOL    HW194860   1.982   8.599   1.933
31007SOL    HW294861   2.105   8.524   1.978
31008SOL     OW94862   3.604   4.077   2.809
31008SOL    HW194863   3.543   4.049   2.741
31008SOL    HW294864   3.577   4.166   2.831
31009SOL     OW94865   3.010   9.381   3.032
31009SOL    HW194866   2.986   9.473   3.042
31009SOL    HW294867   2.999   9.344   3.120
31010SOL     OW94868  11.784   7.841   3.666
31010SOL    HW194869  11.701   7.830   3.712
31010SOL    HW294870  11.822   7.753   3.663
31011SOL     OW94871   3.520  12.088   4.282
31011SOL    HW194872   3.427  12.091   4.306
31011SOL    HW294873   3.555  12.015   4.332
31012SOL     OW94874   7.945   7.566   6.602
31012SOL    HW194875   7.958   7.581   6.696
31012SOL    HW294876   7.994   7.486   6.583
31013SOL     OW94877   8.336   6.289  13.408
31013SOL    HW194878   8.399   6.281  13.336
31013SOL    HW294879   8.362   6.220  13.470
31014SOL     OW94880   6.810  14.519   3.845
31014SOL    HW194881   6.880  14.478   3.895
31014SOL    HW294882   6.831  14.613   3.848
31015SOL     OW94883  13.695   8.425  13.905
31015SOL    HW194884  13.681   8.451  13.996
31015SOL    HW294885  13.789   8.404  13.900
31016SOL     OW94886  12.667   9.852   6.619
31016SOL    HW194887  12.709   9.934   6.646
31016SOL    HW294888  12.617   9.825   6.697
31017SOL     OW94889   9.192  13.662  10.712
31017SOL    HW194890   9.280  13.626  10.721
31017SOL    HW294891   9.136  13.602  10.761
31018SOL     OW94892   2.449   0.522   4.290
31018SOL    HW194893   2.386   0.463   4.331
31018SOL    HW294894   2.531   0.507   4.338
31019SOL     OW94895  12.216   9.445   7.301
31019SOL    HW194896  12.286   9.450   7.365
31019SOL    HW294897  12.184   9.535   7.292
31020SOL     OW94898   7.934   3.575   1.754
31020SOL    HW194899   7.960   3.614   1.671
31020SOL    HW294900   7.908   3.486   1.732
31021SOL     OW94901   9.624  12.639   6.852
31021SOL    HW194902   9.612  12.558   6.901
31021SOL    HW294903   9.583  12.706   6.906
31022SOL     OW94904   7.001  14.267  10.632
31022SOL    HW194905   7.000  14.302  10.721
31022SOL    HW294906   7.063  14.194  10.637
31023SOL     OW94907   5.984  13.866   3.379
31023SOL    HW194908   5.978  13.778   3.341
31023SOL    HW294909   5.915  13.915   3.335
31024SOL     OW94910   0.800   2.983   4.244
31024SOL    HW194911   0.842   2.958   4.326
31024SOL    HW294912   0.806   3.078   4.242
31025SOL     OW94913   1.479   9.278   4.524
31025SOL    HW194914   1.497   9.336   4.598
31025SOL    HW294915   1.557   9.224   4.515
31026SOL     OW94916   6.024   7.772  10.659
31026SOL    HW194917   6.035   7.850  10.713
31026SOL    HW294918   6.112   7.735  10.652
31027SOL     OW94919   3.614   3.166   4.047
31027SOL    HW194920   3.554   3.230   4.085
31027SOL    HW294921   3.688   3.165   4.108
31028SOL     OW94922  13.361   6.515   5.407
31028SOL    HW194923  13.433   6.517   5.470
31028SOL    HW294924  13.390   6.573   5.336
31029SOL     OW94925   9.528   4.102   1.066
31029SOL    HW194926   9.531   4.195   1.088
31029SOL    HW294927   9.447   4.069   1.105
31030SOL     OW94928   3.433   6.679   1.964
31030SOL    HW194929   3.493   6.631   1.906
31030SOL    HW294930   3.419   6.762   1.919
31031SOL     OW94931  11.217  14.763  14.872
31031SOL    HW194932  11.205  14.825   0.066
31031SOL    HW294933  11.203  14.677   0.032
31032SOL     OW94934   4.380  12.735   8.445
31032SOL    HW194935   4.374  12.819   8.399
31032SOL    HW294936   4.420  12.676   8.382
31033SOL     OW94937   4.841   2.625   0.558
31033SOL    HW194938   4.854   2.655   0.468
31033SOL    HW294939   4.750   2.597   0.561
31034SOL     OW94940   7.784   0.421  10.510
31034SOL    HW194941   7.802   0.473  10.431
31034SOL    HW294942   7.857   0.359  10.515
31035SOL     OW94943   4.879  14.581  14.225
31035SOL    HW194944   4.888  14.538  14.310
31035SOL    HW294945   4.812  14.530  14.179
31036SOL     OW94946  10.727   1.774   3.420
31036SOL    HW194947  10.706   1.702   3.361
31036SOL    HW294948  10.737   1.850   3.362
31037SOL     OW94949  10.737   2.969  14.330
31037SOL    HW194950  10.657   2.970  14.382
31037SOL    HW294951  10.808   2.972  14.395
31038SOL     OW94952   9.213  14.317   6.342
31038SOL    HW194953   9.260  14.281   6.266
31038SOL    HW294954   9.134  14.356   6.305
31039SOL     OW94955   4.856   2.659  12.126
31039SOL    HW194956   4.873   2.588  12.064
31039SOL    HW294957   4.879   2.622  12.211
31040SOL     OW94958   7.100  14.236  14.300
31040SOL    HW194959   7.015  14.265  14.332
31040SOL    HW294960   7.161  14.260  14.370
31041SOL     OW94961  12.521   1.797   0.725
31041SOL    HW194962  12.614   1.805   0.747
31041SOL    HW294963  12.519   1.798   0.629
31042SOL     OW94964   2.690   8.671   8.680
31042SOL    HW194965   2.735   8.591   8.707
31042SOL    HW294966   2.756   8.721   8.634
31043SOL     OW94967  12.953  13.038   7.844
31043SOL    HW194968  12.983  13.118   7.888
31043SOL    HW294969  12.959  12.970   7.910
31044SOL     OW94970   2.188   7.866  12.141
31044SOL    HW194971   2.156   7.948  12.180
31044SOL    HW294972   2.109   7.823  12.108
31045SOL     OW94973  10.481   4.560   7.510
31045SOL    HW194974  10.565   4.550   7.556
31045SOL    HW294975  10.493   4.637   7.455
31046SOL     OW94976   2.589   9.759   3.799
31046SOL    HW194977   2.582   9.686   3.861
31046SOL    HW294978   2.504   9.761   3.755
31047SOL     OW94979   7.398  12.634   2.466
31047SOL    HW194980   7.484  12.666   2.438
31047SOL    HW294981   7.385  12.671   2.552
31048SOL     OW94982  11.988   3.468  10.119
31048SOL    HW194983  11.923   3.530  10.153
31048SOL    HW294984  12.009   3.412  10.194
31049SOL     OW94985   5.608   6.711   7.579
31049SOL    HW194986   5.698   6.684   7.596
31049SOL    HW294987   5.615   6.783   7.517
31050SOL     OW94988   2.566   9.780  13.714
31050SOL    HW194989   2.561   9.701  13.660
31050SOL    HW294990   2.586   9.747  13.802
31051SOL     OW94991   4.753   2.631   9.343
31051SOL    HW194992   4.798   2.547   9.345
31051SOL    HW294993   4.823   2.696   9.336
31052SOL     OW94994   3.409   1.087  12.946
31052SOL    HW194995   3.397   1.163  13.004
31052SOL    HW294996   3.498   1.058  12.963
31053SOL     OW94997  13.764   8.037  13.001
31053SOL    HW194998  13.775   8.119  13.049
31053SOL    HW294999  13.669   8.027  12.992
31054SOL     OW95000   8.790   4.291   8.536
31054SOL    HW195001   8.881   4.321   8.537
31054SOL    HW295002   8.785   4.223   8.603
31055SOL     OW95003   2.748   2.111   8.915
31055SOL    HW195004   2.773   2.201   8.892
31055SOL    HW295005   2.829   2.061   8.907
31056SOL     OW95006   3.660   0.116   2.483
31056SOL    HW195007   3.646   0.022   2.495
31056SOL    HW295008   3.575   0.156   2.502
31057SOL     OW95009  12.203   4.798  12.741
31057SOL    HW195010  12.228   4.805  12.648
31057SOL    HW295011  12.154   4.716  12.746
31058SOL     OW95012   4.021   8.123   1.627
31058SOL    HW195013   4.087   8.105   1.693
31058SOL    HW295014   3.948   8.164   1.674
31059SOL     OW95015  11.096   8.996  14.233
31059SOL    HW195016  11.124   9.082  14.202
31059SOL    HW295017  11.004   9.009  14.259
31060SOL     OW95018   0.961   7.072   1.318
31060SOL    HW195019   0.873   7.105   1.299
31060SOL    HW295020   0.985   7.021   1.240
31061SOL     OW95021  11.072   4.956  13.662
31061SOL    HW195022  11.164   4.930  13.662
31061SOL    HW295023  11.075   5.052  13.659
31062SOL     OW95024   5.412   4.363   7.924
31062SOL    HW195025   5.495   4.402   7.895
31062SOL    HW295026   5.376   4.427   7.986
31063SOL     OW95027   3.298  12.721   1.710
31063SOL    HW195028   3.324  12.799   1.661
31063SOL    HW295029   3.204  12.731   1.724
31064SOL     OW95030   1.410   3.190   6.598
31064SOL    HW195031   1.349   3.124   6.630
31064SOL    HW295032   1.403   3.184   6.502
31065SOL     OW95033   2.016   6.933   8.433
31065SOL    HW195034   1.937   6.881   8.414
31065SOL    HW295035   2.083   6.896   8.377
31066SOL     OW95036   1.036  11.546  14.813
31066SOL    HW195037   1.084  11.488  14.753
31066SOL    HW295038   1.096  11.619  14.829
31067SOL     OW95039   2.175   3.794   5.512
31067SOL    HW195040   2.158   3.770   5.604
31067SOL    HW295041   2.168   3.889   5.510
31068SOL     OW95042   9.958   2.403   2.234
31068SOL    HW195043  10.027   2.424   2.298
31068SOL    HW295044   9.998   2.421   2.149
31069SOL     OW95045   0.028  13.172  14.144
31069SOL    HW195046   0.078  13.254  14.144
31069SOL    HW295047   0.001  13.162  14.052
31070SOL     OW95048   7.493   2.744   6.217
31070SOL    HW195049   7.519   2.761   6.307
31070SOL    HW295050   7.508   2.827   6.172
31071SOL     OW95051   7.612   3.240   1.004
31071SOL    HW195052   7.692   3.207   0.964
31071SOL    HW295053   7.603   3.191   1.086
31072SOL     OW95054   8.634   4.831   8.234
31072SOL    HW195055   8.575   4.904   8.255
31072SOL    HW295056   8.691   4.824   8.311
31073SOL     OW95057  13.633   9.416   1.393
31073SOL    HW195058  13.551   9.463   1.377
31073SOL    HW295059  13.701   9.479   1.372
31074SOL     OW95060  14.095   4.888  12.195
31074SOL    HW195061  14.105   4.858  12.105
31074SOL    HW295062  14.144   4.825  12.247
31075SOL     OW95063   6.453   0.751   3.805
31075SOL    HW195064   6.413   0.804   3.736
31075SOL    HW295065   6.515   0.811   3.847
31076SOL     OW95066   1.004   4.211   9.118
31076SOL    HW195067   1.085   4.229   9.166
31076SOL    HW295068   0.953   4.291   9.125
31077SOL     OW95069   7.441   6.233   2.317
31077SOL    HW195070   7.469   6.321   2.291
31077SOL    HW295071   7.481   6.175   2.252
31078SOL     OW95072   2.106   5.252   2.842
31078SOL    HW195073   2.079   5.232   2.932
31078SOL    HW295074   2.122   5.346   2.843
31079SOL     OW95075  14.160   5.894   4.176
31079SOL    HW195076  14.144   5.867   4.266
31079SOL    HW295077  14.254   5.881   4.162
31080SOL     OW95078   3.736   5.143  10.539
31080SOL    HW195079   3.732   5.206  10.611
31080SOL    HW295080   3.824   5.155  10.502
31081SOL     OW95081   3.838   8.673  10.024
31081SOL    HW195082   3.821   8.710   9.937
31081SOL    HW295083   3.891   8.740  10.068
31082SOL     OW95084   6.729   6.130   6.318
31082SOL    HW195085   6.656   6.171   6.271
31082SOL    HW295086   6.689   6.093   6.397
31083SOL     OW95087   1.731   7.138   3.471
31083SOL    HW195088   1.684   7.191   3.534
31083SOL    HW295089   1.821   7.136   3.503
31084SOL     OW95090   9.667   5.411   4.567
31084SOL    HW195091   9.577   5.381   4.554
31084SOL    HW295092   9.693   5.375   4.651
31085SOL     OW95093  12.042   8.048   3.921
31085SOL    HW195094  12.035   7.991   3.997
31085SOL    HW295095  11.987   8.123   3.942
31086SOL     OW95096  12.446  10.597   6.162
31086SOL    HW195097  12.493  10.618   6.080
31086SOL    HW295098  12.412  10.681   6.192
31087SOL     OW95099  14.382   4.254  11.343
31087SOL    HW195100  14.389   4.331  11.400
31087SOL    HW295101  14.289   4.232  11.344
31088SOL     OW95102  12.492   6.498   2.582
31088SOL    HW195103  12.465   6.590   2.585
31088SOL    HW295104  12.418   6.453   2.542
31089SOL     OW95105  12.884  13.955  13.906
31089SOL    HW195106  12.931  13.992  13.980
31089SOL    HW295107  12.931  13.987  13.829
31090SOL     OW95108   2.726   3.960   6.594
31090SOL    HW195109   2.794   3.993   6.535
31090SOL    HW295110   2.666   4.034   6.605
31091SOL     OW95111  12.919  12.437  11.916
31091SOL    HW195112  12.918  12.519  11.965
31091SOL    HW295113  13.005  12.435  11.874
31092SOL     OW95114   0.945   5.478   9.905
31092SOL    HW195115   0.991   5.536   9.966
31092SOL    HW295116   0.963   5.390   9.938
31093SOL     OW95117   8.367  14.838   9.979
31093SOL    HW195118   8.438  14.810  10.036
31093SOL    HW295119   8.367  14.773   9.908
31094SOL     OW95120   0.890   4.751   4.257
31094SOL    HW195121   0.844   4.749   4.342
31094SOL    HW295122   0.893   4.660   4.230
31095SOL     OW95123   4.375  12.318  13.738
31095SOL    HW195124   4.449  12.292  13.684
31095SOL    HW295125   4.299  12.275  13.698
31096SOL     OW95126   2.111  12.146   2.348
31096SOL    HW195127   2.039  12.187   2.301
31096SOL    HW295128   2.180  12.213   2.349
31097SOL     OW95129  13.829  12.648  13.720
31097SOL    HW195130  13.784  12.689  13.794
31097SOL    HW295131  13.849  12.720  13.661
31098SOL     OW95132   5.272   4.267   9.717
31098SOL    HW195133   5.264   4.180   9.677
31098SOL    HW295134   5.359   4.297   9.693
31099SOL     OW95135   8.635   1.769   3.737
31099SOL    HW195136   8.584   1.740   3.813
31099SOL    HW295137   8.665   1.688   3.696
31100SOL     OW95138   4.625   8.448  11.955
31100SOL    HW195139   4.700   8.452  11.895
31100SOL    HW295140   4.558   8.501  11.911
31101SOL     OW95141   6.232   8.677   6.824
31101SOL    HW195142   6.254   8.613   6.892
31101SOL    HW295143   6.193   8.750   6.872
31102SOL     OW95144   2.177   7.641   2.746
31102SOL    HW195145   2.272   7.642   2.746
31102SOL    HW295146   2.153   7.596   2.665
31103SOL     OW95147   6.703   9.290   5.250
31103SOL    HW195148   6.657   9.373   5.244
31103SOL    HW295149   6.684   9.246   5.167
31104SOL     OW95150   9.250   9.503   6.477
31104SOL    HW195151   9.293   9.509   6.391
31104SOL    HW295152   9.202   9.420   6.474
31105SOL     OW95153   2.063   6.326   2.324
31105SOL    HW195154   2.085   6.233   2.321
31105SOL    HW295155   2.000   6.334   2.395
31106SOL     OW95156  11.150   5.019   1.868
31106SOL    HW195157  11.086   5.078   1.828
31106SOL    HW295158  11.188   5.070   1.940
31107SOL     OW95159   4.522  14.399   2.999
31107SOL    HW195160   4.536  14.416   3.092
31107SOL    HW295161   4.487  14.310   2.996
31108SOL     OW95162   4.081   1.649   5.308
31108SOL    HW195163   4.159   1.610   5.347
31108SOL    HW295164   4.114   1.700   5.234
31109SOL     OW95165   2.655   7.780   2.861
31109SOL    HW195166   2.736   7.737   2.890
31109SOL    HW295167   2.665   7.871   2.888
31110SOL     OW95168  14.505  10.238   3.913
31110SOL    HW195169  14.479  10.273   3.828
31110SOL    HW295170  14.584  10.187   3.894
31111SOL     OW95171   8.144   1.582   3.499
31111SOL    HW195172   8.192   1.514   3.546
31111SOL    HW295173   8.116   1.643   3.567
31112SOL     OW95174  14.269   8.394   6.775
31112SOL    HW195175  14.246   8.372   6.684
31112SOL    HW295176  14.346   8.450   6.767
31113SOL     OW95177   7.862  11.897  14.060
31113SOL    HW195178   7.854  11.872  13.968
31113SOL    HW295179   7.772  11.903  14.092
31114SOL     OW95180   7.480   8.262   3.037
31114SOL    HW195181   7.573   8.253   3.059
31114SOL    HW295182   7.452   8.173   3.017
31115SOL     OW95183  12.115  11.454   0.106
31115SOL    HW195184  12.192  11.507   0.126
31115SOL    HW295185  12.149  11.366   0.096
31116SOL     OW95186  13.920  11.410   7.233
31116SOL    HW195187  14.000  11.461   7.244
31116SOL    HW295188  13.943  11.342   7.169
31117SOL     OW95189  10.928   0.732   9.869
31117SOL    HW195190  10.874   0.663   9.908
31117SOL    HW295191  10.940   0.796   9.939
31118SOL     OW95192   2.247   8.446   6.142
31118SOL    HW195193   2.169   8.440   6.197
31118SOL    HW295194   2.300   8.516   6.183
31119SOL     OW95195   5.084   0.104   9.617
31119SOL    HW195196   5.078   0.018   9.575
31119SOL    HW295197   5.158   0.097   9.677
31120SOL     OW95198  10.766  14.550   0.888
31120SOL    HW195199  10.730  14.486   0.950
31120SOL    HW295200  10.852  14.514   0.865
31121SOL     OW95201   5.309  10.618   6.378
31121SOL    HW195202   5.400  10.648   6.384
31121SOL    HW295203   5.301  10.553   6.449
31122SOL     OW95204   6.760   1.889   6.501
31122SOL    HW195205   6.714   1.809   6.526
31122SOL    HW295206   6.853   1.868   6.514
31123SOL     OW95207   0.378   4.557   4.738
31123SOL    HW195208   0.365   4.554   4.643
31123SOL    HW295209   0.378   4.465   4.765
31124SOL     OW95210   3.106   2.094  13.214
31124SOL    HW195211   3.101   2.003  13.242
31124SOL    HW295212   3.019   2.130  13.234
31125SOL     OW95213   9.573   4.592  12.283
31125SOL    HW195214   9.486   4.552  12.272
31125SOL    HW295215   9.627   4.550  12.216
31126SOL     OW95216  11.623   9.607   8.056
31126SOL    HW195217  11.666   9.631   7.975
31126SOL    HW295218  11.620   9.511   8.055
31127SOL     OW95219  13.565   9.602   4.956
31127SOL    HW195220  13.654   9.638   4.956
31127SOL    HW295221  13.540   9.600   5.049
31128SOL     OW95222   9.691  13.327   6.343
31128SOL    HW195223   9.674  13.285   6.258
31128SOL    HW295224   9.658  13.264   6.407
31129SOL     OW95225  12.017  14.879   6.746
31129SOL    HW195226  11.975   0.035   6.667
31129SOL    HW295227  12.111   0.006   6.727
31130SOL     OW95228   9.001   3.106   2.940
31130SOL    HW195229   9.001   3.018   2.978
31130SOL    HW295230   8.920   3.146   2.972
31131SOL     OW95231  11.055   3.618   4.023
31131SOL    HW195232  11.131   3.673   4.006
31131SOL    HW295233  11.050   3.612   4.118
31132SOL     OW95234   6.439   5.957   4.095
31132SOL    HW195235   6.516   6.011   4.113
31132SOL    HW295236   6.396   6.001   4.022
31133SOL     OW95237   3.219  12.363  10.557
31133SOL    HW195238   3.304  12.341  10.519
31133SOL    HW295239   3.241  12.398  10.644
31134SOL     OW95240  12.663   4.472   6.168
31134SOL    HW195241  12.673   4.518   6.084
31134SOL    HW295242  12.568   4.471   6.183
31135SOL     OW95243   9.861  13.354   3.933
31135SOL    HW195244   9.843  13.441   3.969
31135SOL    HW295245   9.775  13.320   3.909
31136SOL     OW95246   7.381   7.742   9.551
31136SOL    HW195247   7.352   7.790   9.474
31136SOL    HW295248   7.436   7.672   9.517
31137SOL     OW95249  10.246   6.424   9.940
31137SOL    HW195250  10.235   6.500   9.996
31137SOL    HW295251  10.186   6.439   9.867
31138SOL     OW95252   3.057   3.720   0.916
31138SOL    HW195253   2.993   3.790   0.909
31138SOL    HW295254   3.142   3.765   0.916
31139SOL     OW95255  10.455   7.619  11.245
31139SOL    HW195256  10.427   7.576  11.164
31139SOL    HW295257  10.386   7.598  11.308
31140SOL     OW95258   0.609   1.028  11.892
31140SOL    HW195259   0.699   1.059  11.878
31140SOL    HW295260   0.575   1.015  11.803
31141SOL     OW95261   1.486   4.605   8.193
31141SOL    HW195262   1.568   4.654   8.189
31141SOL    HW295263   1.483   4.571   8.283
31142SOL     OW95264   2.734  14.832  11.491
31142SOL    HW195265   2.640  14.813  11.491
31142SOL    HW295266   2.760  14.826  11.399
31143SOL     OW95267   4.751   9.544   4.664
31143SOL    HW195268   4.815   9.606   4.629
31143SOL    HW295269   4.728   9.580   4.749
31144SOL     OW95270  13.492   5.429   6.115
31144SOL    HW195271  13.452   5.425   6.202
31144SOL    HW295272  13.439   5.494   6.067
31145SOL     OW95273   7.519   0.289   2.849
31145SOL    HW195274   7.566   0.280   2.931
31145SOL    HW295275   7.428   0.268   2.871
31146SOL     OW95276   2.836   4.194  10.788
31146SOL    HW195277   2.742   4.182  10.792
31146SOL    HW295278   2.871   4.105  10.782
31147SOL     OW95279  12.781  10.644   3.083
31147SOL    HW195280  12.846  10.658   3.015
31147SOL    HW295281  12.790  10.719   3.142
31148SOL     OW95282   1.408   0.637  10.886
31148SOL    HW195283   1.467   0.696  10.933
31148SOL    HW295284   1.388   0.684  10.805
31149SOL     OW95285  13.598  10.736  10.548
31149SOL    HW195286  13.677  10.770  10.505
31149SOL    HW295287  13.525  10.769  10.496
31150SOL     OW95288   6.926   3.242   6.230
31150SOL    HW195289   6.893   3.206   6.148
31150SOL    HW295290   6.963   3.327   6.206
31151SOL     OW95291  14.378  11.374   0.848
31151SOL    HW195292  14.283  11.372   0.856
31151SOL    HW295293  14.398  11.464   0.823
31152SOL     OW95294   1.335   3.219   2.686
31152SOL    HW195295   1.367   3.274   2.757
31152SOL    HW295296   1.355   3.130   2.713
31153SOL     OW95297   4.059  13.097  12.639
31153SOL    HW195298   3.990  13.143  12.592
31153SOL    HW295299   4.118  13.166  12.669
31154SOL     OW95300  14.612   4.341  11.590
31154SOL    HW195301  14.539   4.336  11.652
31154SOL    HW295302  14.626   4.435  11.578
31155SOL     OW95303   7.443   4.827   0.045
31155SOL    HW195304   7.473   4.833   0.136
31155SOL    HW295305   7.419   4.916   0.022
31156SOL     OW95306   9.585   3.427   1.577
31156SOL    HW195307   9.647   3.354   1.573
31156SOL    HW295308   9.640   3.503   1.597
31157SOL     OW95309   1.945   9.904  14.031
31157SOL    HW195310   1.932   9.819  14.074
31157SOL    HW295311   1.857   9.932  14.007
31158SOL     OW95312   9.735   0.181  10.459
31158SOL    HW195313   9.696   0.204  10.543
31158SOL    HW295314   9.720   0.087  10.451
31159SOL     OW95315  13.039   2.267   2.754
31159SOL    HW195316  12.981   2.211   2.806
31159SOL    HW295317  13.026   2.355   2.790
31160SOL     OW95318   4.780   4.161   4.344
31160SOL    HW195319   4.859   4.202   4.378
31160SOL    HW295320   4.726   4.144   4.421
31161SOL     OW95321   3.629   2.446   6.703
31161SOL    HW195322   3.570   2.404   6.765
31161SOL    HW295323   3.571   2.491   6.641
31162SOL     OW95324  12.361  13.616  13.170
31162SOL    HW195325  12.409  13.552  13.117
31162SOL    HW295326  12.377  13.700  13.126
31163SOL     OW95327   3.759  10.610   2.103
31163SOL    HW195328   3.828  10.548   2.126
31163SOL    HW295329   3.729  10.582   2.016
31164SOL     OW95330   5.303  14.272   6.222
31164SOL    HW195331   5.397  14.276   6.240
31164SOL    HW295332   5.283  14.356   6.181
31165SOL     OW95333  10.343   7.446   6.179
31165SOL    HW195334  10.340   7.485   6.091
31165SOL    HW295335  10.274   7.380   6.178
31166SOL     OW95336   6.656   9.609  10.540
31166SOL    HW195337   6.578   9.665  10.536
31166SOL    HW295338   6.626   9.524  10.505
31167SOL     OW95339   7.611  11.772   5.860
31167SOL    HW195340   7.641  11.853   5.900
31167SOL    HW295341   7.691  11.731   5.826
31168SOL     OW95342   4.281  10.904   7.314
31168SOL    HW195343   4.355  10.862   7.270
31168SOL    HW295344   4.243  10.961   7.247
31169SOL     OW95345   9.363   8.338   1.892
31169SOL    HW195346   9.296   8.290   1.939
31169SOL    HW295347   9.327   8.426   1.882
31170SOL     OW95348   4.218   7.558   7.317
31170SOL    HW195349   4.267   7.636   7.291
31170SOL    HW295350   4.231   7.553   7.412
31171SOL     OW95351   1.372  12.740   3.512
31171SOL    HW195352   1.423  12.709   3.586
31171SOL    HW295353   1.370  12.835   3.522
31172SOL     OW95354   6.664   9.955   2.813
31172SOL    HW195355   6.624   9.897   2.878
31172SOL    HW295356   6.616   9.937   2.733
31173SOL     OW95357  10.160   4.860   3.720
31173SOL    HW195358  10.143   4.951   3.746
31173SOL    HW295359  10.242   4.865   3.671
31174SOL     OW95360   6.881   7.614  13.553
31174SOL    HW195361   6.955   7.662  13.592
31174SOL    HW295362   6.806   7.638  13.607
31175SOL     OW95363  13.490  13.422  13.458
31175SOL    HW195364  13.395  13.428  13.462
31175SOL    HW295365  13.514  13.464  13.376
31176SOL     OW95366   9.880   5.733   8.166
31176SOL    HW195367   9.949   5.689   8.117
31176SOL    HW295368   9.877   5.688   8.250
31177SOL     OW95369   0.043   0.777   6.193
31177SOL    HW195370  14.878   0.695   6.175
31177SOL    HW295371   0.009   0.838   6.128
31178SOL     OW95372  11.139   9.628   7.504
31178SOL    HW195373  11.169   9.653   7.591
31178SOL    HW295374  11.043   9.637   7.508
31179SOL     OW95375  13.905   3.821   3.333
31179SOL    HW195376  13.836   3.807   3.397
31179SOL    HW295377  13.956   3.894   3.368
31180SOL     OW95378   5.183   2.128   1.481
31180SOL    HW195379   5.147   2.125   1.392
31180SOL    HW295380   5.138   2.057   1.527
31181SOL     OW95381   9.497  11.025   2.940
31181SOL    HW195382   9.430  10.962   2.968
31181SOL    HW295383   9.576  10.972   2.929
31182SOL     OW95384   4.981   8.867   9.372
31182SOL    HW195385   5.015   8.823   9.450
31182SOL    HW295386   4.930   8.941   9.406
31183SOL     OW95387  13.783  10.729   2.515
31183SOL    HW195388  13.800  10.812   2.470
31183SOL    HW295389  13.695  10.740   2.552
31184SOL     OW95390   5.853   3.411   9.053
31184SOL    HW195391   5.852   3.455   9.138
31184SOL    HW295392   5.819   3.323   9.072
31185SOL     OW95393   3.291   5.326   0.168
31185SOL    HW195394   3.385   5.342   0.172
31185SOL    HW295395   3.251   5.408   0.196
31186SOL     OW95396   5.182   2.252  11.351
31186SOL    HW195397   5.096   2.280  11.318
31186SOL    HW295398   5.194   2.165  11.313
31187SOL     OW95399  11.762  14.633   7.295
31187SOL    HW195400  11.779  14.723   7.324
31187SOL    HW295401  11.734  14.587   7.374
31188SOL     OW95402   5.598   8.248  13.234
31188SOL    HW195403   5.578   8.158  13.259
31188SOL    HW295404   5.513   8.290  13.222
31189SOL     OW95405   0.059  13.504  11.179
31189SOL    HW195406   0.115  13.437  11.140
31189SOL    HW295407   0.119  13.555  11.234
31190SOL     OW95408   6.470   7.013   8.157
31190SOL    HW195409   6.476   6.918   8.164
31190SOL    HW295410   6.433   7.028   8.070
31191SOL     OW95411  14.406   9.633   8.778
31191SOL    HW195412  14.393   9.645   8.684
31191SOL    HW295413  14.356   9.554   8.799
31192SOL     OW95414  12.998   4.757  13.009
31192SOL    HW195415  13.008   4.681  12.951
31192SOL    HW295416  12.928   4.808  12.969
31193SOL     OW95417   8.483  12.175   1.546
31193SOL    HW195418   8.450  12.219   1.467
31193SOL    HW295419   8.408  12.173   1.605
31194SOL     OW95420   7.000   6.221   4.837
31194SOL    HW195421   6.928   6.163   4.812
31194SOL    HW295422   7.075   6.188   4.787
31195SOL     OW95423  13.381  13.449   6.667
31195SOL    HW195424  13.469  13.423   6.639
31195SOL    HW295425  13.388  13.461   6.761
31196SOL     OW95426   2.433   3.764  12.795
31196SOL    HW195427   2.352   3.715  12.808
31196SOL    HW295428   2.418   3.813  12.714
31197SOL     OW95429  13.581   7.534  10.889
31197SOL    HW195430  13.493   7.571  10.883
31197SOL    HW295431  13.629   7.595  10.946
31198SOL     OW95432   5.544   8.109   8.243
31198SOL    HW195433   5.591   8.188   8.271
31198SOL    HW295434   5.543   8.053   8.320
31199SOL     OW95435   7.989  11.904   2.758
31199SOL    HW195436   7.958  11.820   2.725
31199SOL    HW295437   8.070  11.920   2.710
31200SOL     OW95438  13.706   6.038   6.068
31200SOL    HW195439  13.764   6.042   5.992
31200SOL    HW295440  13.622   6.071   6.036
31201SOL     OW95441   0.320   8.872   2.497
31201SOL    HW195442   0.303   8.895   2.406
31201SOL    HW295443   0.267   8.793   2.511
31202SOL     OW95444  12.275   6.620  10.554
31202SOL    HW195445  12.186   6.627  10.521
31202SOL    HW295446  12.327   6.673  10.494
31203SOL     OW95447  10.503   6.107   1.641
31203SOL    HW195448  10.567   6.178   1.644
31203SOL    HW295449  10.470   6.100   1.730
31204SOL     OW95450  10.795   3.691  13.105
31204SOL    HW195451  10.875   3.689  13.053
31204SOL    HW295452  10.793   3.605  13.149
31205SOL     OW95453   7.998  12.677   8.830
31205SOL    HW195454   7.959  12.721   8.754
31205SOL    HW295455   7.924  12.644   8.880
31206SOL     OW95456  11.172   8.397  10.893
31206SOL    HW195457  11.220   8.414  10.974
31206SOL    HW295458  11.090   8.356  10.921
31207SOL     OW95459   2.810   8.147   7.057
31207SOL    HW195460   2.864   8.152   6.978
31207SOL    HW295461   2.781   8.237   7.072
31208SOL     OW95462   0.425   9.284   5.047
31208SOL    HW195463   0.378   9.354   5.092
31208SOL    HW295464   0.393   9.287   4.957
31209SOL     OW95465   7.330  11.793   3.845
31209SOL    HW195466   7.306  11.885   3.835
31209SOL    HW295467   7.281  11.747   3.776
31210SOL     OW95468  14.639   6.659   2.946
31210SOL    HW195469  14.714   6.627   2.896
31210SOL    HW295470  14.676   6.721   3.009
31211SOL     OW95471   1.934  12.926  14.530
31211SOL    HW195472   1.998  12.985  14.490
31211SOL    HW295473   1.967  12.912  14.619
31212SOL     OW95474   1.635  14.744  14.038
31212SOL    HW195475   1.559  14.689  14.022
31212SOL    HW295476   1.626  14.771  14.130
31213SOL     OW95477   8.473   5.049   4.204
31213SOL    HW195478   8.434   5.046   4.117
31213SOL    HW295479   8.555   5.001   4.195
31214SOL     OW95480   1.187   9.354   0.267
31214SOL    HW195481   1.231   9.295   0.206
31214SOL    HW295482   1.209   9.320   0.353
31215SOL     OW95483   6.936   1.695   7.138
31215SOL    HW195484   6.902   1.783   7.123
31215SOL    HW295485   6.870   1.636   7.100
31216SOL     OW95486  13.932   5.580   1.780
31216SOL    HW195487  13.894   5.610   1.863
31216SOL    HW295488  13.860   5.535   1.736
31217SOL     OW95489   4.759   0.474  10.471
31217SOL    HW195490   4.818   0.491  10.545
31217SOL    HW295491   4.813   0.489  10.393
31218SOL     OW95492   1.207   6.682  14.083
31218SOL    HW195493   1.267   6.665  14.156
31218SOL    HW295494   1.122   6.651  14.114
31219SOL     OW95495   7.741   9.406   3.818
31219SOL    HW195496   7.700   9.402   3.905
31219SOL    HW295497   7.760   9.499   3.804
31220SOL     OW95498   0.343  13.497   4.181
31220SOL    HW195499   0.295  13.580   4.189
31220SOL    HW295500   0.286  13.442   4.127
31221SOL     OW95501   5.454   2.037  12.847
31221SOL    HW195502   5.480   1.949  12.819
31221SOL    HW295503   5.522   2.095  12.811
31222SOL     OW95504  13.586   4.317   3.330
31222SOL    HW195505  13.495   4.344   3.322
31222SOL    HW295506  13.581   4.224   3.353
31223SOL     OW95507  12.087  13.726  14.207
31223SOL    HW195508  12.009  13.719  14.261
31223SOL    HW295509  12.063  13.683  14.124
31224SOL     OW95510   8.239   3.981   1.240
31224SOL    HW195511   8.250   3.903   1.294
31224SOL    HW295512   8.244   4.054   1.301
31225SOL     OW95513   4.481  13.721  14.252
31225SOL    HW195514   4.473  13.634  14.213
31225SOL    HW295515   4.567  13.722  14.293
31226SOL     OW95516   3.735   5.509   1.970
31226SOL    HW195517   3.828   5.496   1.986
31226SOL    HW295518   3.693   5.432   2.009
31227SOL     OW95519  13.513   9.040   1.220
31227SOL    HW195520  13.564   9.114   1.252
31227SOL    HW295521  13.558   8.963   1.255
31228SOL     OW95522   6.291  13.199  14.574
31228SOL    HW195523   6.319  13.193  14.665
31228SOL    HW295524   6.212  13.254  14.577
31229SOL     OW95525   4.396  11.141  12.719
31229SOL    HW195526   4.327  11.201  12.691
31229SOL    HW295527   4.470  11.197  12.741
31230SOL     OW95528  12.883   7.217   6.426
31230SOL    HW195529  12.795   7.204   6.460
31230SOL    HW295530  12.936   7.151   6.471
31231SOL     OW95531  11.358   7.582   4.761
31231SOL    HW195532  11.355   7.674   4.738
31231SOL    HW295533  11.419   7.543   4.698
31232SOL     OW95534  10.862  10.164   1.162
31232SOL    HW195535  10.899  10.171   1.250
31232SOL    HW295536  10.938  10.160   1.104
31233SOL     OW95537   5.804   6.702  13.952
31233SOL    HW195538   5.828   6.769  13.888
31233SOL    HW295539   5.765   6.632  13.900
31234SOL     OW95540   4.053  13.560   5.665
31234SOL    HW195541   3.999  13.623   5.713
31234SOL    HW295542   4.008  13.550   5.581
31235SOL     OW95543   1.062  13.443  12.217
31235SOL    HW195544   0.988  13.413  12.270
31235SOL    HW295545   1.026  13.453  12.129
31236SOL     OW95546   3.157   4.525  10.501
31236SOL    HW195547   3.162   4.504  10.408
31236SOL    HW295548   3.104   4.454  10.539
31237SOL     OW95549  12.490  11.437  12.587
31237SOL    HW195550  12.543  11.496  12.642
31237SOL    HW295551  12.412  11.488  12.566
31238SOL     OW95552   1.540  13.706   3.335
31238SOL    HW195553   1.537  13.611   3.349
31238SOL    HW295554   1.599  13.718   3.261
31239SOL     OW95555   8.246   1.181   1.060
31239SOL    HW195556   8.313   1.113   1.053
31239SOL    HW295557   8.291   1.255   1.101
31240SOL     OW95558   3.348   9.542  13.529
31240SOL    HW195559   3.353   9.511  13.439
31240SOL    HW295560   3.326   9.465  13.581
31241SOL     OW95561  14.098   3.569   4.842
31241SOL    HW195562  14.116   3.585   4.750
31241SOL    HW295563  14.107   3.474   4.852
31242SOL     OW95564  12.311   2.036   6.069
31242SOL    HW195565  12.225   2.022   6.110
31242SOL    HW295566  12.333   2.126   6.091
31243SOL     OW95567   9.544  12.964   4.757
31243SOL    HW195568   9.536  13.033   4.823
31243SOL    HW295569   9.638  12.944   4.755
31244SOL     OW95570   4.878   6.854  10.186
31244SOL    HW195571   4.800   6.909  10.188
31244SOL    HW295572   4.951   6.915  10.182
31245SOL     OW95573  10.628   0.406  12.999
31245SOL    HW195574  10.637   0.310  12.998
31245SOL    HW295575  10.542   0.422  12.961
31246SOL     OW95576  14.371   2.110   9.802
31246SOL    HW195577  14.411   2.108   9.889
31246SOL    HW295578  14.387   2.023   9.766
31247SOL     OW95579   9.712   4.549  12.036
31247SOL    HW195580   9.654   4.500  11.978
31247SOL    HW295581   9.776   4.484  12.067
31248SOL     OW95582   8.035   0.810   7.879
31248SOL    HW195583   8.113   0.806   7.823
31248SOL    HW295584   7.964   0.830   7.819
31249SOL     OW95585   5.169   3.227   9.010
31249SOL    HW195586   5.117   3.167   9.064
31249SOL    HW295587   5.186   3.302   9.066
31250SOL     OW95588   8.388   7.535   9.845
31250SOL    HW195589   8.323   7.507   9.910
31250SOL    HW295590   8.461   7.569   9.898
31251SOL     OW95591   9.455  13.686   7.037
31251SOL    HW195592   9.429  13.760   6.983
31251SOL    HW295593   9.381  13.672   7.097
31252SOL     OW95594   6.509  13.310  10.563
31252SOL    HW195595   6.446  13.323  10.634
31252SOL    HW295596   6.475  13.234  10.515
31253SOL     OW95597   5.239   0.966   6.367
31253SOL    HW195598   5.180   1.015   6.424
31253SOL    HW295599   5.239   1.015   6.285
31254SOL     OW95600   9.901  11.444  14.827
31254SOL    HW195601   9.900  11.481  14.739
31254SOL    HW295602   9.938  11.513   0.003
31255SOL     OW95603   3.843  14.437  11.421
31255SOL    HW195604   3.871  14.518  11.378
31255SOL    HW295605   3.847  14.458  11.514
31256SOL     OW95606   6.689   9.532  14.796
31256SOL    HW195607   6.668   9.526   0.010
31256SOL    HW295608   6.712   9.442  14.771
31257SOL     OW95609   3.282   8.841   2.613
31257SOL    HW195610   3.352   8.887   2.659
31257SOL    HW295611   3.300   8.857   2.521
31258SOL     OW95612  11.213   6.550  14.018
31258SOL    HW195613  11.229   6.597  13.936
31258SOL    HW295614  11.125   6.576  14.044
31259SOL     OW95615   7.536   4.217   1.610
31259SOL    HW195616   7.545   4.183   1.699
31259SOL    HW295617   7.580   4.302   1.613
31260SOL     OW95618   7.065   8.445   8.536
31260SOL    HW195619   6.981   8.400   8.547
31260SOL    HW295620   7.130   8.382   8.567
31261SOL     OW95621  13.510   9.255  14.684
31261SOL    HW195622  13.507   9.233  14.591
31261SOL    HW295623  13.530   9.348  14.687
31262SOL     OW95624   3.010  13.279  14.609
31262SOL    HW195625   2.923  13.294  14.572
31262SOL    HW295626   3.021  13.184  14.609
31263SOL     OW95627   0.929  11.858   6.377
31263SOL    HW195628   0.946  11.817   6.462
31263SOL    HW295629   1.003  11.917   6.364
31264SOL     OW95630   2.762   6.393   4.421
31264SOL    HW195631   2.851   6.365   4.401
31264SOL    HW295632   2.710   6.313   4.419
31265SOL     OW95633   0.575   6.787   4.845
31265SOL    HW195634   0.605   6.811   4.757
31265SOL    HW295635   0.525   6.862   4.875
31266SOL     OW95636   6.117   8.619   7.568
31266SOL    HW195637   6.105   8.714   7.571
31266SOL    HW295638   6.211   8.606   7.582
31267SOL     OW95639  11.108   2.217   1.780
31267SOL    HW195640  11.172   2.225   1.851
31267SOL    HW295641  11.117   2.126   1.751
31268SOL     OW95642  10.123   8.411   1.991
31268SOL    HW195643  10.174   8.392   1.912
31268SOL    HW295644  10.042   8.449   1.959
31269SOL     OW95645   3.021  14.830  11.507
31269SOL    HW195646   3.071  14.757  11.542
31269SOL    HW295647   2.937  14.826  11.552
31270SOL     OW95648   3.161   8.121   4.333
31270SOL    HW195649   3.186   8.091   4.421
31270SOL    HW295650   3.078   8.167   4.347
31271SOL     OW95651   8.467   1.703  13.711
31271SOL    HW195652   8.499   1.777  13.659
31271SOL    HW295653   8.535   1.689  13.777
31272SOL     OW95654   8.224   8.979  12.804
31272SOL    HW195655   8.224   9.074  12.813
31272SOL    HW295656   8.282   8.962  12.729
31273SOL     OW95657  14.467   2.231   9.535
31273SOL    HW195658  14.502   2.305   9.584
31273SOL    HW295659  14.467   2.158   9.597
31274SOL     OW95660   7.099  11.934   4.427
31274SOL    HW195661   7.089  11.872   4.499
31274SOL    HW295662   7.192  11.928   4.403
31275SOL     OW95663   9.877  12.510   8.524
31275SOL    HW195664   9.868  12.460   8.443
31275SOL    HW295665   9.971  12.517   8.538
31276SOL     OW95666   6.823   0.871  14.725
31276SOL    HW195667   6.917   0.858  14.739
31276SOL    HW295668   6.805   0.958  14.762
31277SOL     OW95669   3.933   4.916   9.712
31277SOL    HW195670   3.934   4.827   9.677
31277SOL    HW295671   3.870   4.912   9.785
31278SOL     OW95672  11.695  12.353   5.125
31278SOL    HW195673  11.697  12.276   5.182
31278SOL    HW295674  11.695  12.317   5.037
31279SOL     OW95675   9.753  14.764   6.792
31279SOL    HW195676   9.705  14.799   6.717
31279SOL    HW295677   9.843  14.794   6.779
31280SOL     OW95678   9.939   9.497   4.933
31280SOL    HW195679   9.940   9.470   4.841
31280SOL    HW295680   9.937   9.592   4.931
31281SOL     OW95681   8.923   5.421   6.234
31281SOL    HW195682   8.996   5.379   6.279
31281SOL    HW295683   8.856   5.354   6.228
31282SOL     OW95684   4.247   6.545   1.107
31282SOL    HW195685   4.229   6.475   1.170
31282SOL    HW295686   4.209   6.623   1.147
31283SOL     OW95687  12.959  10.940   9.161
31283SOL    HW195688  12.888  10.878   9.149
31283SOL    HW295689  12.922  11.009   9.217
31284SOL     OW95690  14.713   4.504   0.263
31284SOL    HW195691  14.740   4.412   0.260
31284SOL    HW295692  14.778   4.549   0.209
31285SOL     OW95693   3.921   9.034   4.060
31285SOL    HW195694   3.953   9.000   4.144
31285SOL    HW295695   3.994   9.084   4.025
31286SOL     OW95696   8.074   7.775   0.760
31286SOL    HW195697   8.056   7.681   0.765
31286SOL    HW295698   8.169   7.783   0.767
31287SOL     OW95699   8.162   6.564   1.466
31287SOL    HW195700   8.104   6.513   1.409
31287SOL    HW295701   8.215   6.499   1.511
31288SOL     OW95702  12.801   2.272   3.866
31288SOL    HW195703  12.872   2.213   3.891
31288SOL    HW295704  12.841   2.358   3.860
31289SOL     OW95705   3.750   1.592   9.934
31289SOL    HW195706   3.805   1.607  10.010
31289SOL    HW295707   3.678   1.654   9.944
31290SOL     OW95708   4.831  14.679   7.079
31290SOL    HW195709   4.798  14.589   7.074
31290SOL    HW295710   4.830  14.710   6.989
31291SOL     OW95711   3.809   4.338   3.677
31291SOL    HW195712   3.767   4.319   3.593
31291SOL    HW295713   3.853   4.422   3.663
31292SOL     OW95714  14.134  11.201   5.457
31292SOL    HW195715  14.075  11.130   5.434
31292SOL    HW295716  14.157  11.242   5.373
31293SOL     OW95717   7.986   8.058   4.700
31293SOL    HW195718   8.048   8.079   4.630
31293SOL    HW295719   7.936   8.139   4.713
31294SOL     OW95720  10.612   4.890   3.432
31294SOL    HW195721  10.700   4.853   3.426
31294SOL    HW295722  10.576   4.880   3.344
31295SOL     OW95723   6.178  11.898   8.270
31295SOL    HW195724   6.248  11.930   8.328
31295SOL    HW295725   6.170  11.805   8.292
31296SOL     OW95726  12.795   2.091   2.472
31296SOL    HW195727  12.812   2.051   2.558
31296SOL    HW295728  12.822   2.025   2.409
31297SOL     OW95729   9.082   3.635  13.218
31297SOL    HW195730   9.037   3.652  13.135
31297SOL    HW295731   9.173   3.658  13.201
31298SOL     OW95732  12.626   1.549   2.239
31298SOL    HW195733  12.574   1.537   2.159
31298SOL    HW295734  12.633   1.461   2.276
31299SOL     OW95735  14.475  10.078   6.504
31299SOL    HW195736  14.561  10.078   6.546
31299SOL    HW295737  14.467   9.992   6.464
31300SOL     OW95738   7.239   0.501   1.396
31300SOL    HW195739   7.323   0.539   1.420
31300SOL    HW295740   7.224   0.433   1.462
31301SOL     OW95741   1.206   7.032   6.759
31301SOL    HW195742   1.291   7.072   6.770
31301SOL    HW295743   1.191   6.983   6.840
31302SOL     OW95744   6.556   7.310  13.676
31302SOL    HW195745   6.574   7.376  13.744
31302SOL    HW295746   6.599   7.231  13.708
31303SOL     OW95747   0.520   5.304  13.886
31303SOL    HW195748   0.539   5.215  13.913
31303SOL    HW295749   0.478   5.295  13.800
31304SOL     OW95750   5.602  12.491  12.557
31304SOL    HW195751   5.617  12.427  12.488
31304SOL    HW295752   5.659  12.564  12.535
31305SOL     OW95753   1.038   8.731   7.184
31305SOL    HW195754   1.076   8.817   7.202
31305SOL    HW295755   0.976   8.717   7.255
31306SOL     OW95756  14.777  14.102   2.899
31306SOL    HW195757  14.702  14.158   2.882
31306SOL    HW295758  14.750  14.015   2.869
31307SOL     OW95759   9.867   7.622   6.889
31307SOL    HW195760   9.905   7.710   6.878
31307SOL    HW295761   9.804   7.614   6.818
31308SOL     OW95762  14.231   4.280   6.821
31308SOL    HW195763  14.234   4.252   6.912
31308SOL    HW295764  14.170   4.354   6.820
31309SOL     OW95765   9.889  13.902   6.928
31309SOL    HW195766   9.974  13.930   6.963
31309SOL    HW295767   9.848  13.853   6.999
31310SOL     OW95768   0.790  12.592   3.038
31310SOL    HW195769   0.710  12.609   3.088
31310SOL    HW295770   0.760  12.575   2.949
31311SOL     OW95771   7.576   1.692   8.432
31311SOL    HW195772   7.668   1.673   8.449
31311SOL    HW295773   7.544   1.732   8.512
31312SOL     OW95774  12.646   0.384   4.321
31312SOL    HW195775  12.567   0.434   4.341
31312SOL    HW295776  12.677   0.421   4.238
31313SOL     OW95777   6.192  14.218  11.876
31313SOL    HW195778   6.259  14.278  11.843
31313SOL    HW295779   6.134  14.203  11.801
31314SOL     OW95780   3.330   2.002   1.384
31314SOL    HW195781   3.372   1.964   1.461
31314SOL    HW295782   3.399   2.055   1.343
31315SOL     OW95783  14.811   8.193  14.422
31315SOL    HW195784  14.800   8.288  14.432
31315SOL    HW295785   0.016   8.173  14.463
31316SOL     OW95786   9.131   3.763   0.268
31316SOL    HW195787   9.041   3.733   0.254
31316SOL    HW295788   9.162   3.787   0.180
31317SOL     OW95789   6.415   6.367  10.063
31317SOL    HW195790   6.378   6.444  10.104
31317SOL    HW295791   6.396   6.378   9.970
31318SOL     OW95792  14.616   0.511   5.862
31318SOL    HW195793  14.643   0.529   5.772
31318SOL    HW295794  14.625   0.416   5.871
31319SOL     OW95795   8.811  13.232   8.163
31319SOL    HW195796   8.894  13.262   8.125
31319SOL    HW295797   8.773  13.176   8.095
31320SOL     OW95798  13.678   4.329  13.124
31320SOL    HW195799  13.642   4.389  13.189
31320SOL    HW295800  13.686   4.382  13.044
31321SOL     OW95801   7.331  12.787  13.145
31321SOL    HW195802   7.400  12.844  13.110
31321SOL    HW295803   7.350  12.783  13.239
31322SOL     OW95804  13.709   0.928   0.227
31322SOL    HW195805  13.662   0.957   0.304
31322SOL    HW295806  13.797   0.907   0.259
31323SOL     OW95807   2.400   9.528   9.009
31323SOL    HW195808   2.479   9.523   9.062
31323SOL    HW295809   2.379   9.437   8.987
31324SOL     OW95810   8.383   8.653   7.000
31324SOL    HW195811   8.338   8.737   6.998
31324SOL    HW295812   8.345   8.603   6.928
31325SOL     OW95813   8.521   4.170  12.374
31325SOL    HW195814   8.427   4.153  12.370
31325SOL    HW295815   8.537   4.238  12.308
31326SOL     OW95816   6.406   9.946   6.279
31326SOL    HW195817   6.477   9.944   6.344
31326SOL    HW295818   6.335   9.993   6.324
31327SOL     OW95819   4.388   5.741  10.703
31327SOL    HW195820   4.398   5.767  10.795
31327SOL    HW295821   4.311   5.685  10.702
31328SOL     OW95822   3.745   3.591   6.539
31328SOL    HW195823   3.725   3.561   6.628
31328SOL    HW295824   3.724   3.515   6.484
31329SOL     OW95825   0.762   3.482   1.856
31329SOL    HW195826   0.774   3.538   1.932
31329SOL    HW295827   0.768   3.540   1.780
31330SOL     OW95828   9.263   5.124   3.944
31330SOL    HW195829   9.280   5.217   3.959
31330SOL    HW295830   9.168   5.118   3.940
31331SOL     OW95831   1.884   5.875  12.384
31331SOL    HW195832   1.975   5.853  12.366
31331SOL    HW295833   1.869   5.847  12.474
31332SOL     OW95834   3.624  11.489   9.656
31332SOL    HW195835   3.576  11.433   9.717
31332SOL    HW295836   3.673  11.549   9.712
31333SOL     OW95837   9.903   4.425   0.583
31333SOL    HW195838   9.944   4.433   0.669
31333SOL    HW295839   9.811   4.446   0.599
31334SOL     OW95840  11.200   1.260   9.376
31334SOL    HW195841  11.116   1.300   9.397
31334SOL    HW295842  11.236   1.315   9.307
31335SOL     OW95843   8.685   4.792   2.172
31335SOL    HW195844   8.684   4.752   2.259
31335SOL    HW295845   8.599   4.834   2.164
31336SOL     OW95846  14.056   5.947  14.150
31336SOL    HW195847  14.045   5.921  14.242
31336SOL    HW295848  14.021   5.872  14.101
31337SOL     OW95849   3.181   0.407  13.725
31337SOL    HW195850   3.203   0.388  13.816
31337SOL    HW295851   3.181   0.321  13.682
31338SOL     OW95852   2.003  14.841   0.854
31338SOL    HW195853   1.927   0.019   0.869
31338SOL    HW295854   2.047  14.879   0.778
31339SOL     OW95855   9.661  14.721  14.767
31339SOL    HW195856   9.683  14.627  14.764
31339SOL    HW295857   9.614  14.732  14.849
31340SOL     OW95858  11.151   7.263   1.246
31340SOL    HW195859  11.134   7.218   1.329
31340SOL    HW295860  11.150   7.194   1.180
31341SOL     OW95861   0.276  12.784  12.073
31341SOL    HW195862   0.244  12.863  12.030
31341SOL    HW295863   0.310  12.814  12.156
31342SOL     OW95864   0.510   1.035  13.166
31342SOL    HW195865   0.567   0.973  13.212
31342SOL    HW295866   0.494   1.105  13.229
31343SOL     OW95867  12.923   9.271   5.573
31343SOL    HW195868  12.900   9.293   5.482
31343SOL    HW295869  13.009   9.309   5.586
31344SOL     OW95870   1.528   4.108  12.503
31344SOL    HW195871   1.444   4.152  12.517
31344SOL    HW295872   1.568   4.105  12.590
31345SOL     OW95873   1.848   4.659   6.950
31345SOL    HW195874   1.870   4.591   6.887
31345SOL    HW295875   1.907   4.731   6.930
31346SOL     OW95876  14.206  10.162   9.928
31346SOL    HW195877  14.202  10.179   9.834
31346SOL    HW295878  14.135  10.100   9.945
31347SOL     OW95879   0.339   9.022   8.386
31347SOL    HW195880   0.429   9.004   8.414
31347SOL    HW295881   0.285   8.983   8.455
31348SOL     OW95882  14.672  13.004   1.733
31348SOL    HW195883  14.625  12.957   1.801
31348SOL    HW295884  14.606  13.024   1.667
31349SOL     OW95885   1.486  14.390   7.358
31349SOL    HW195886   1.529  14.358   7.279
31349SOL    HW295887   1.519  14.333   7.428
31350SOL     OW95888   9.284  13.362   4.754
31350SOL    HW195889   9.341  13.285   4.754
31350SOL    HW295890   9.269  13.380   4.847
31351SOL     OW95891  13.282   4.020  12.772
31351SOL    HW195892  13.299   3.996  12.863
31351SOL    HW295893  13.261   4.114  12.776
31352SOL     OW95894  13.140   1.169   0.630
31352SOL    HW195895  13.186   1.135   0.706
31352SOL    HW295896  13.207   1.177   0.562
31353SOL     OW95897   9.268   2.140   7.128
31353SOL    HW195898   9.299   2.170   7.213
31353SOL    HW295899   9.308   2.053   7.117
31354SOL     OW95900   4.782   5.555  13.727
31354SOL    HW195901   4.793   5.523  13.816
31354SOL    HW295902   4.834   5.495  13.673
31355SOL     OW95903   5.796   4.943   4.144
31355SOL    HW195904   5.705   4.941   4.173
31355SOL    HW295905   5.847   4.925   4.223
31356SOL     OW95906   2.429   1.664   8.737
31356SOL    HW195907   2.408   1.728   8.669
31356SOL    HW295908   2.481   1.597   8.692
31357SOL     OW95909  10.993   2.983   8.785
31357SOL    HW195910  11.001   3.070   8.745
31357SOL    HW295911  11.052   2.984   8.860
31358SOL     OW95912   5.569   6.735   8.570
31358SOL    HW195913   5.664   6.735   8.583
31358SOL    HW295914   5.539   6.657   8.616
31359SOL     OW95915   7.933  12.229   2.452
31359SOL    HW195916   7.966  12.167   2.387
31359SOL    HW295917   8.012  12.264   2.494
31360SOL     OW95918   2.851  14.000   6.308
31360SOL    HW195919   2.852  13.904   6.313
31360SOL    HW295920   2.912  14.021   6.238
31361SOL     OW95921   6.035   4.965   4.270
31361SOL    HW195922   6.046   4.998   4.181
31361SOL    HW295923   6.096   4.891   4.275
31362SOL     OW95924   4.052   3.821  10.838
31362SOL    HW195925   4.122   3.831  10.903
31362SOL    HW295926   3.987   3.887  10.863
31363SOL     OW95927  14.439  13.951   6.979
31363SOL    HW195928  14.495  13.881   7.012
31363SOL    HW295929  14.475  13.971   6.892
31364SOL     OW95930  12.043   9.437  11.543
31364SOL    HW195931  12.103   9.512  11.541
31364SOL    HW295932  11.957   9.475  11.557
31365SOL     OW95933   5.924   3.579  12.167
31365SOL    HW195934   5.906   3.579  12.261
31365SOL    HW295935   6.019   3.576  12.161
31366SOL     OW95936   4.633   0.234   3.424
31366SOL    HW195937   4.720   0.206   3.397
31366SOL    HW295938   4.642   0.328   3.439
31367SOL     OW95939  10.526   4.772   7.735
31367SOL    HW195940  10.559   4.784   7.824
31367SOL    HW295941  10.456   4.707   7.744
31368SOL     OW95942   3.444   0.856   9.171
31368SOL    HW195943   3.524   0.814   9.139
31368SOL    HW295944   3.383   0.850   9.097
31369SOL     OW95945   8.007   6.561   3.966
31369SOL    HW195946   8.018   6.470   3.994
31369SOL    HW295947   7.939   6.596   4.024
31370SOL     OW95948   6.234   1.910  10.188
31370SOL    HW195949   6.289   1.854  10.133
31370SOL    HW295950   6.212   1.984  10.132
31371SOL     OW95951   2.454   3.051  13.086
31371SOL    HW195952   2.443   3.113  13.014
31371SOL    HW295953   2.548   3.038  13.094
31372SOL     OW95954   8.816  12.825   2.013
31372SOL    HW195955   8.906  12.832   1.982
31372SOL    HW295956   8.819  12.855   2.104
31373SOL     OW95957  11.298  10.983   5.890
31373SOL    HW195958  11.333  10.897   5.914
31373SOL    HW295959  11.375  11.037   5.873
31374SOL     OW95960   4.357   0.247   2.499
31374SOL    HW195961   4.432   0.198   2.464
31374SOL    HW295962   4.300   0.260   2.424
31375SOL     OW95963  12.133   0.007   5.536
31375SOL    HW195964  12.201   0.063   5.498
31375SOL    HW295965  12.162  14.797   5.518
31376SOL     OW95966   3.618   8.288  11.700
31376SOL    HW195967   3.675   8.315  11.772
31376SOL    HW295968   3.673   8.294  11.622
31377SOL     OW95969   6.590   3.361   0.255
31377SOL    HW195970   6.604   3.391   0.165
31377SOL    HW295971   6.526   3.290   0.247
31378SOL     OW95972   2.765   7.692  10.054
31378SOL    HW195973   2.861   7.696  10.060
31378SOL    HW295974   2.734   7.749  10.124
31379SOL     OW95975   3.827   8.930   5.510
31379SOL    HW195976   3.834   9.007   5.453
31379SOL    HW295977   3.771   8.958   5.582
31380SOL     OW95978   0.032   7.189   3.586
31380SOL    HW195979  14.865   7.201   3.669
31380SOL    HW295980   0.124   7.196   3.609
31381SOL     OW95981   4.146  14.168   3.457
31381SOL    HW195982   4.058  14.133   3.466
31381SOL    HW295983   4.152  14.194   3.365
31382SOL     OW95984  13.693   5.457   8.516
31382SOL    HW195985  13.765   5.464   8.454
31382SOL    HW295986  13.616   5.488   8.467
31383SOL     OW95987   9.922   4.737  10.768
31383SOL    HW195988  10.014   4.739  10.742
31383SOL    HW295989   9.882   4.811  10.721
31384SOL     OW95990   5.076   6.396  10.032
31384SOL    HW195991   4.988   6.417  10.064
31384SOL    HW295992   5.087   6.451   9.955
31385SOL     OW95993  10.915   1.035   3.985
31385SOL    HW195994  10.900   1.109   4.045
31385SOL    HW295995  10.857   1.052   3.911
31386SOL     OW95996   3.955   9.198  12.823
31386SOL    HW195997   4.045   9.167  12.840
31386SOL    HW295998   3.948   9.203  12.728
31387SOL     OW95999  14.639  13.817   1.528
31387SOL    HW196000  14.675  13.749   1.471
31387SOL    HW296001  14.714  13.846   1.580
31388SOL     OW96002   8.517   3.095  14.698
31388SOL    HW196003   8.537   3.151  14.622
31388SOL    HW296004   8.438   3.048  14.672
31389SOL     OW96005   3.390   5.602   9.456
31389SOL    HW196006   3.460   5.566   9.402
31389SOL    HW296007   3.425   5.602   9.545
31390SOL     OW96008   2.985   3.270   0.650
31390SOL    HW196009   3.058   3.296   0.707
31390SOL    HW296010   3.024   3.205   0.590
31391SOL     OW96011   3.336  13.101   0.947
31391SOL    HW196012   3.330  13.134   1.037
31391SOL    HW296013   3.424  13.065   0.941
31392SOL     OW96014   9.387   2.588   8.687
31392SOL    HW196015   9.407   2.520   8.622
31392SOL    HW296016   9.331   2.543   8.751
31393SOL     OW96017   6.100   6.728  11.333
31393SOL    HW196018   6.031   6.788  11.302
31393SOL    HW296019   6.139   6.772  11.408
31394SOL     OW96020   9.213   1.087   3.101
31394SOL    HW196021   9.235   1.008   3.150
31394SOL    HW296022   9.131   1.065   3.056
31395SOL     OW96023   3.788  11.775  11.179
31395SOL    HW196024   3.878  11.788  11.146
31395SOL    HW296025   3.777  11.680  11.182
31396SOL     OW96026   7.965  14.632   9.142
31396SOL    HW196027   7.947  14.649   9.234
31396SOL    HW296028   7.879  14.628   9.101
31397SOL     OW96029  10.955   9.557  14.523
31397SOL    HW196030  10.950   9.600  14.608
31397SOL    HW296031  10.864   9.540  14.499
31398SOL     OW96032   9.102   9.820   0.663
31398SOL    HW196033   9.093   9.743   0.606
31398SOL    HW296034   9.187   9.808   0.706
31399SOL     OW96035   1.914   1.573   9.018
31399SOL    HW196036   1.933   1.543   9.106
31399SOL    HW296037   1.911   1.669   9.025
31400SOL     OW96038   6.917  13.493  10.492
31400SOL    HW196039   6.985  13.498  10.560
31400SOL    HW296040   6.962  13.458  10.415
31401SOL     OW96041   3.110   8.825   1.753
31401SOL    HW196042   3.144   8.739   1.780
31401SOL    HW296043   3.181   8.864   1.701
31402SOL     OW96044   3.946   5.402  12.625
31402SOL    HW196045   3.927   5.476  12.682
31402SOL    HW296046   3.975   5.442  12.543
31403SOL     OW96047  14.607   4.478  12.902
31403SOL    HW196048  14.610   4.403  12.843
31403SOL    HW296049  14.587   4.440  12.988
31404SOL     OW96050   0.865  13.934   0.107
31404SOL    HW196051   0.900  14.012   0.064
31404SOL    HW296052   0.928  13.916   0.177
31405SOL     OW96053  13.289   2.819   2.069
31405SOL    HW196054  13.307   2.784   2.156
31405SOL    HW296055  13.267   2.742   2.016
31406SOL     OW96056   8.831   7.572  11.420
31406SOL    HW196057   8.794   7.637  11.480
31406SOL    HW296058   8.818   7.609  11.333
31407SOL     OW96059   3.547  14.290   1.006
31407SOL    HW196060   3.513  14.340   0.932
31407SOL    HW296061   3.496  14.210   1.007
31408SOL     OW96062   2.851   2.872   5.112
31408SOL    HW196063   2.829   2.787   5.149
31408SOL    HW296064   2.828   2.865   5.020
31409SOL     OW96065   6.089   6.146  13.205
31409SOL    HW196066   6.123   6.079  13.145
31409SOL    HW296067   6.054   6.214  13.147
31410SOL     OW96068   6.404   1.321   5.191
31410SOL    HW196069   6.400   1.315   5.286
31410SOL    HW296070   6.323   1.364   5.166
31411SOL     OW96071  10.833   0.658  14.283
31411SOL    HW196072  10.804   0.601  14.353
31411SOL    HW296073  10.928   0.661  14.292
31412SOL     OW96074   6.722   5.864   8.299
31412SOL    HW196075   6.806   5.897   8.265
31412SOL    HW296076   6.707   5.783   8.249
31413SOL     OW96077   4.668  12.473  10.438
31413SOL    HW196078   4.614  12.416  10.492
31413SOL    HW296079   4.757  12.458  10.470
31414SOL     OW96080   7.708  13.152  12.139
31414SOL    HW196081   7.707  13.116  12.228
31414SOL    HW296082   7.671  13.239  12.148
31415SOL     OW96083  12.719  10.943   1.166
31415SOL    HW196084  12.663  10.915   1.238
31415SOL    HW296085  12.672  10.916   1.087
31416SOL     OW96086   8.629  13.534   5.851
31416SOL    HW196087   8.571  13.470   5.893
31416SOL    HW296088   8.570  13.596   5.809
31417SOL     OW96089   8.023  13.402   4.574
31417SOL    HW196090   7.942  13.361   4.542
31417SOL    HW296091   8.016  13.397   4.669
31418SOL     OW96092   4.952   3.977   3.968
31418SOL    HW196093   5.043   3.990   3.939
31418SOL    HW296094   4.901   4.036   3.912
31419SOL     OW96095   1.427  13.508   4.870
31419SOL    HW196096   1.412  13.523   4.963
31419SOL    HW296097   1.503  13.563   4.848
31420SOL     OW96098   6.668   1.589   8.408
31420SOL    HW196099   6.743   1.583   8.467
31420SOL    HW296100   6.670   1.507   8.359
31421SOL     OW96101   3.732   4.179  11.110
31421SOL    HW196102   3.737   4.273  11.124
31421SOL    HW296103   3.639   4.160  11.105
31422SOL     OW96104   0.086   0.436  12.043
31422SOL    HW196105   0.101   0.522  12.084
31422SOL    HW296106   0.074   0.376  12.117
31423SOL     OW96107  12.909   0.258  11.214
31423SOL    HW196108  12.985   0.276  11.159
31423SOL    HW296109  12.890   0.342  11.257
31424SOL     OW96110  13.150   9.838   1.440
31424SOL    HW196111  13.145   9.796   1.354
31424SOL    HW296112  13.118   9.772   1.501
31425SOL     OW96113   6.416   6.400   0.210
31425SOL    HW196114   6.370   6.483   0.194
31425SOL    HW296115   6.409   6.388   0.305
31426SOL     OW96116  13.690  10.159   5.832
31426SOL    HW196117  13.777  10.145   5.868
31426SOL    HW296118  13.673  10.252   5.845
31427SOL     OW96119   4.186   4.256   4.997
31427SOL    HW196120   4.134   4.325   4.956
31427SOL    HW296121   4.236   4.302   5.065
31428SOL     OW96122   1.436   7.413   4.083
31428SOL    HW196123   1.367   7.471   4.052
31428SOL    HW296124   1.435   7.422   4.178
31429SOL     OW96125  13.443   3.603  12.246
31429SOL    HW196126  13.366   3.553  12.219
31429SOL    HW296127  13.408   3.673  12.301
31430SOL     OW96128   4.824   5.778  12.275
31430SOL    HW196129   4.850   5.813  12.189
31430SOL    HW296130   4.731   5.798  12.282
31431SOL     OW96131  10.460   8.453   5.328
31431SOL    HW196132  10.460   8.359   5.344
31431SOL    HW296133  10.418   8.463   5.242
31432SOL     OW96134  11.318  13.043   3.365
31432SOL    HW196135  11.291  13.130   3.335
31432SOL    HW296136  11.412  13.050   3.380
31433SOL     OW96137   4.644  10.692   8.597
31433SOL    HW196138   4.655  10.637   8.519
31433SOL    HW296139   4.579  10.646   8.650
31434SOL     OW96140  10.866   9.489   3.859
31434SOL    HW196141  10.951   9.453   3.832
31434SOL    HW296142  10.802   9.428   3.822
31435SOL     OW96143  11.195  13.920  13.539
31435SOL    HW196144  11.187  13.990  13.474
31435SOL    HW296145  11.143  13.848  13.503
31436SOL     OW96146   8.182   1.961   0.121
31436SOL    HW196147   8.223   2.008   0.048
31436SOL    HW296148   8.088   1.976   0.110
31437SOL     OW96149  13.973   8.313   9.706
31437SOL    HW196150  13.989   8.221   9.728
31437SOL    HW296151  14.052   8.359   9.734
31438SOL     OW96152  14.521  10.377   6.484
31438SOL    HW196153  14.525  10.285   6.509
31438SOL    HW296154  14.570  10.423   6.552
31439SOL     OW96155   2.081   1.920  12.450
31439SOL    HW196156   2.041   2.007  12.444
31439SOL    HW296157   2.163   1.934  12.498
31440SOL     OW96158   8.773   2.230   4.741
31440SOL    HW196159   8.867   2.220   4.729
31440SOL    HW296160   8.745   2.287   4.670
31441SOL     OW96161  13.131   8.572  14.862
31441SOL    HW196162  13.067   8.589  14.793
31441SOL    HW296163  13.186   8.502  14.826
31442SOL     OW96164   6.065   2.038   4.665
31442SOL    HW196165   6.047   2.010   4.575
31442SOL    HW296166   5.982   2.027   4.711
31443SOL     OW96167  12.694   6.113   1.288
31443SOL    HW196168  12.734   6.153   1.211
31443SOL    HW296169  12.743   6.149   1.362
31444SOL     OW96170  12.181   1.383   9.559
31444SOL    HW196171  12.232   1.441   9.502
31444SOL    HW296172  12.214   1.403   9.647
31445SOL     OW96173  12.775   0.541   9.294
31445SOL    HW196174  12.864   0.529   9.326
31445SOL    HW296175  12.728   0.463   9.323
31446SOL     OW96176  11.988   6.445   7.098
31446SOL    HW196177  12.067   6.491   7.070
31446SOL    HW296178  12.019   6.377   7.158
31447SOL     OW96179   3.430   7.593   3.229
31447SOL    HW196180   3.460   7.566   3.142
31447SOL    HW296181   3.337   7.615   3.216
31448SOL     OW96182   3.148  12.317   3.141
31448SOL    HW196183   3.211  12.369   3.191
31448SOL    HW296184   3.125  12.372   3.066
31449SOL     OW96185   8.901  11.242  13.195
31449SOL    HW196186   8.933  11.283  13.275
31449SOL    HW296187   8.839  11.175  13.226
31450SOL     OW96188   7.070   4.191  13.970
31450SOL    HW196189   7.115   4.114  13.936
31450SOL    HW296190   7.027   4.230  13.894
31451SOL     OW96191   2.927  14.394   9.974
31451SOL    HW196192   2.996  14.329   9.959
31451SOL    HW296193   2.882  14.364  10.053
31452SOL     OW96194   3.360  12.433  13.855
31452SOL    HW196195   3.441  12.483  13.867
31452SOL    HW296196   3.292  12.490  13.889
31453SOL     OW96197   7.862   2.369   6.655
31453SOL    HW196198   7.933   2.309   6.676
31453SOL    HW296199   7.905   2.454   6.645
31454SOL     OW96200   6.397  14.698  14.333
31454SOL    HW196201   6.452  14.690  14.410
31454SOL    HW296202   6.446  14.654  14.264
31455SOL     OW96203   2.400   5.957   8.949
31455SOL    HW196204   2.326   6.017   8.955
31455SOL    HW296205   2.475   6.014   8.931
31456SOL     OW96206  13.594  10.284   6.451
31456SOL    HW196207  13.633  10.198   6.468
31456SOL    HW296208  13.584  10.288   6.356
31457SOL     OW96209   1.950   4.413  14.534
31457SOL    HW196210   1.984   4.326  14.515
31457SOL    HW296211   1.868   4.418  14.485
31458SOL     OW96212  13.109   6.852   1.656
31458SOL    HW196213  13.165   6.929   1.665
31458SOL    HW296214  13.019   6.887   1.657
31459SOL     OW96215  10.891  11.618  14.873
31459SOL    HW196216  10.898  11.713  14.862
31459SOL    HW296217  10.798  11.600  14.860
31460SOL     OW96218   1.561   5.830  13.542
31460SOL    HW196219   1.488   5.864  13.593
31460SOL    HW296220   1.541   5.855  13.452
31461SOL     OW96221   8.345   9.935   0.488
31461SOL    HW196222   8.279   9.896   0.545
31461SOL    HW296223   8.428   9.910   0.527
31462SOL     OW96224  13.050   4.593   8.393
31462SOL    HW196225  13.018   4.614   8.306
31462SOL    HW296226  13.106   4.516   8.380
31463SOL     OW96227  13.603  10.750   0.333
31463SOL    HW196228  13.622  10.660   0.306
31463SOL    HW296229  13.672  10.771   0.396
31464SOL     OW96230   8.203   1.197   2.785
31464SOL    HW196231   8.298   1.199   2.787
31464SOL    HW296232   8.180   1.217   2.694
31465SOL     OW96233  10.018  10.868   4.359
31465SOL    HW196234  10.054  10.816   4.430
31465SOL    HW296235   9.993  10.951   4.400
31466SOL     OW96236  12.177   2.449   2.311
31466SOL    HW196237  12.226   2.463   2.230
31466SOL    HW296238  12.100   2.399   2.284
31467SOL     OW96239   0.088  14.814   3.180
31467SOL    HW196240   0.075  14.795   3.088
31467SOL    HW296241   0.183  14.811   3.192
31468SOL     OW96242   6.073   8.866   7.089
31468SOL    HW196243   6.069   8.809   7.167
31468SOL    HW296244   6.166   8.884   7.077
31469SOL     OW96245   7.054   1.425   1.445
31469SOL    HW196246   6.987   1.492   1.461
31469SOL    HW296247   7.107   1.425   1.525
31470SOL     OW96248   9.737   9.235   6.909
31470SOL    HW196249   9.733   9.289   6.830
31470SOL    HW296250   9.813   9.179   6.896
31471SOL     OW96251   3.995   5.512   8.924
31471SOL    HW196252   4.087   5.507   8.896
31471SOL    HW296253   3.949   5.450   8.868
31472SOL     OW96254   9.469   5.698  12.909
31472SOL    HW196255   9.522   5.733  12.838
31472SOL    HW296256   9.470   5.603  12.895
31473SOL     OW96257  14.269   5.352  11.769
31473SOL    HW196258  14.227   5.268  11.787
31473SOL    HW296259  14.330   5.365  11.842
31474SOL     OW96260   7.802  14.492  13.970
31474SOL    HW196261   7.722  14.501  13.918
31474SOL    HW296262   7.858  14.563  13.940
31475SOL     OW96263  10.906   7.358   5.888
31475SOL    HW196264  10.930   7.266   5.874
31475SOL    HW296265  10.810   7.358   5.886
31476SOL     OW96266  12.337  11.622   2.068
31476SOL    HW196267  12.303  11.564   2.000
31476SOL    HW296268  12.260  11.649   2.118
31477SOL     OW96269   8.427  14.385   7.392
31477SOL    HW196270   8.332  14.377   7.380
31477SOL    HW296271   8.460  14.296   7.388
31478SOL     OW96272   0.078   1.754  11.645
31478SOL    HW196273   0.054   1.703  11.722
31478SOL    HW296274   0.148   1.811  11.675
31479SOL     OW96275  10.328   5.061   5.571
31479SOL    HW196276  10.279   4.990   5.614
31479SOL    HW296277  10.357   5.023   5.488
31480SOL     OW96278   7.489  11.501   2.100
31480SOL    HW196279   7.473  11.415   2.063
31480SOL    HW296280   7.402  11.533   2.126
31481SOL     OW96281   4.177   9.649   3.656
31481SOL    HW196282   4.235   9.708   3.608
31481SOL    HW296283   4.235   9.587   3.699
31482SOL     OW96284  10.189   7.033  13.879
31482SOL    HW196285  10.108   7.085  13.876
31482SOL    HW296286  10.239   7.072  13.951
31483SOL     OW96287  13.836  14.336   9.648
31483SOL    HW196288  13.927  14.342   9.678
31483SOL    HW296289  13.837  14.265   9.584
31484SOL     OW96290   5.709   4.138   8.396
31484SOL    HW196291   5.777   4.086   8.439
31484SOL    HW296292   5.640   4.146   8.462
31485SOL     OW96293   8.506   8.467   3.705
31485SOL    HW196294   8.431   8.422   3.744
31485SOL    HW296295   8.582   8.414   3.730
31486SOL     OW96296  11.033   8.413  11.205
31486SOL    HW196297  10.989   8.470  11.141
31486SOL    HW296298  10.961   8.375  11.255
31487SOL     OW96299   0.349   1.070   2.919
31487SOL    HW196300   0.255   1.087   2.910
31487SOL    HW296301   0.375   1.117   2.998
31488SOL     OW96302   7.065   6.619  11.267
31488SOL    HW196303   6.973   6.640  11.251
31488SOL    HW296304   7.105   6.703  11.292
31489SOL     OW96305   8.719   2.373  10.175
31489SOL    HW196306   8.647   2.326  10.216
31489SOL    HW296307   8.684   2.402  10.091
31490SOL     OW96308   1.712   5.696  14.774
31490SOL    HW196309   1.630   5.745  14.774
31490SOL    HW296310   1.686   5.607  14.798
31491SOL     OW96311   9.194  11.239   8.137
31491SOL    HW196312   9.155  11.275   8.216
31491SOL    HW296313   9.248  11.310   8.102
31492SOL     OW96314  13.537   6.843  12.827
31492SOL    HW196315  13.587   6.762  12.832
31492SOL    HW296316  13.572   6.898  12.897
31493SOL     OW96317   2.414   4.525   7.492
31493SOL    HW196318   2.413   4.546   7.585
31493SOL    HW296319   2.470   4.448   7.485
31494SOL     OW96320   8.094  10.613   5.071
31494SOL    HW196321   8.022  10.554   5.094
31494SOL    HW296322   8.051  10.697   5.055
31495SOL     OW96323  14.197  14.504   6.282
31495SOL    HW196324  14.264  14.551   6.332
31495SOL    HW296325  14.140  14.573   6.248
31496SOL     OW96326   4.373   2.949  13.109
31496SOL    HW196327   4.371   2.894  13.031
31496SOL    HW296328   4.440   2.909  13.165
31497SOL     OW96329   9.457   0.605   7.369
31497SOL    HW196330   9.486   0.693   7.392
31497SOL    HW296331   9.362   0.607   7.383
31498SOL     OW96332   1.906  14.196  13.440
31498SOL    HW196333   1.893  14.178  13.347
31498SOL    HW296334   1.950  14.119  13.474
31499SOL     OW96335   0.939  11.232   1.287
31499SOL    HW196336   0.888  11.310   1.263
31499SOL    HW296337   1.026  11.266   1.308
31500SOL     OW96338   5.722   8.154   0.271
31500SOL    HW196339   5.629   8.167   0.288
31500SOL    HW296340   5.766   8.213   0.332
31501SOL     OW96341   7.430   1.601   7.876
31501SOL    HW196342   7.378   1.561   7.806
31501SOL    HW296343   7.365   1.646   7.930
31502SOL     OW96344  13.678  10.424   4.399
31502SOL    HW196345  13.764  10.393   4.427
31502SOL    HW296346  13.658  10.496   4.459
31503SOL     OW96347   3.718   7.181   2.375
31503SOL    HW196348   3.754   7.270   2.378
31503SOL    HW296349   3.671   7.177   2.292
31504SOL     OW96350  11.371   1.731  11.331
31504SOL    HW196351  11.385   1.646  11.289
31504SOL    HW296352  11.276   1.746  11.325
31505SOL     OW96353   9.603   0.725   1.157
31505SOL    HW196354   9.644   0.795   1.207
31505SOL    HW296355   9.619   0.748   1.065
31506SOL     OW96356  12.846  12.203   0.364
31506SOL    HW196357  12.833  12.286   0.410
31506SOL    HW296358  12.794  12.211   0.284
31507SOL     OW96359   7.974   1.917   6.831
31507SOL    HW196360   7.949   1.979   6.899
31507SOL    HW296361   8.064   1.941   6.808
31508SOL     OW96362   7.257   8.917   3.348
31508SOL    HW196363   7.341   8.879   3.323
31508SOL    HW296364   7.241   8.986   3.283
31509SOL     OW96365  14.351   1.569   0.641
31509SOL    HW196366  14.410   1.601   0.573
31509SOL    HW296367  14.265   1.567   0.599
31510SOL     OW96368   0.072   6.483   5.346
31510SOL    HW196369   0.118   6.460   5.426
31510SOL    HW296370   0.031   6.401   5.318
31511SOL     OW96371   9.719   7.995   9.465
31511SOL    HW196372   9.734   8.069   9.406
31511SOL    HW296373   9.715   7.919   9.408
31512SOL     OW96374   6.474   0.399   3.984
31512SOL    HW196375   6.391   0.445   3.974
31512SOL    HW296376   6.468   0.325   3.924
31513SOL     OW96377   0.264  13.190   7.220
31513SOL    HW196378   0.302  13.245   7.151
31513SOL    HW296379   0.198  13.246   7.261
31514SOL     OW96380   1.140  10.410   6.673
31514SOL    HW196381   1.064  10.447   6.627
31514SOL    HW296382   1.116  10.413   6.765
31515SOL     OW96383   8.230   1.691  11.446
31515SOL    HW196384   8.215   1.696  11.351
31515SOL    HW296385   8.291   1.763  11.464
31516SOL     OW96386  10.304   5.397  11.695
31516SOL    HW196387  10.308   5.302  11.696
31516SOL    HW296388  10.393   5.426  11.713
31517SOL     OW96389   3.174  12.071   9.312
31517SOL    HW196390   3.110  12.039   9.248
31517SOL    HW296391   3.254  12.021   9.293
31518SOL     OW96392   4.019   0.929   1.913
31518SOL    HW196393   3.989   0.839   1.900
31518SOL    HW296394   4.115   0.922   1.916
31519SOL     OW96395  13.846   0.263   5.337
31519SOL    HW196396  13.883   0.176   5.349
31519SOL    HW296397  13.909   0.309   5.281
31520SOL     OW96398  11.801   9.466  11.976
31520SOL    HW196399  11.719   9.457  11.928
31520SOL    HW296400  11.792   9.548  12.024
31521SOL     OW96401   4.843   6.740   3.488
31521SOL    HW196402   4.778   6.672   3.476
31521SOL    HW296403   4.854   6.747   3.583
31522SOL     OW96404  10.844  11.619   0.595
31522SOL    HW196405  10.848  11.523   0.599
31522SOL    HW296406  10.813  11.637   0.506
31523SOL     OW96407   5.123  12.460   8.894
31523SOL    HW196408   5.168  12.382   8.926
31523SOL    HW296409   5.114  12.517   8.970
31524SOL     OW96410   2.769   5.727   6.244
31524SOL    HW196411   2.729   5.762   6.323
31524SOL    HW296412   2.703   5.668   6.208
31525SOL     OW96413   7.516   3.488   7.797
31525SOL    HW196414   7.592   3.505   7.741
31525SOL    HW296415   7.548   3.427   7.863
31526SOL     OW96416   4.436   7.739  13.155
31526SOL    HW196417   4.449   7.742  13.060
31526SOL    HW296418   4.346   7.709  13.165
31527SOL     OW96419   1.985   8.580   8.280
31527SOL    HW196420   1.902   8.533   8.281
31527SOL    HW296421   2.052   8.512   8.290
31528SOL     OW96422  14.473   8.586   6.822
31528SOL    HW196423  14.479   8.546   6.909
31528SOL    HW296424  14.557   8.630   6.810
31529SOL     OW96425   7.755   3.520  10.027
31529SOL    HW196426   7.715   3.598  10.065
31529SOL    HW296427   7.847   3.524  10.055
31530SOL     OW96428  13.482   7.321  13.246
31530SOL    HW196429  13.537   7.302  13.322
31530SOL    HW296430  13.392   7.321  13.280
31531SOL     OW96431   3.660   4.027   0.353
31531SOL    HW196432   3.737   4.059   0.307
31531SOL    HW296433   3.675   4.050   0.445
31532SOL     OW96434  13.134   5.475   6.527
31532SOL    HW196435  13.172   5.475   6.439
31532SOL    HW296436  13.181   5.545   6.573
31533SOL     OW96437   6.202   0.290  14.178
31533SOL    HW196438   6.249   0.226  14.231
31533SOL    HW296439   6.252   0.371  14.189
31534SOL     OW96440   0.847  12.813   2.620
31534SOL    HW196441   0.905  12.816   2.696
31534SOL    HW296442   0.764  12.781   2.655
31535SOL     OW96443   3.399  11.034   9.626
31535SOL    HW196444   3.340  11.054   9.554
31535SOL    HW296445   3.394  11.110   9.683
31536SOL     OW96446   6.663   7.182   8.252
31536SOL    HW196447   6.590   7.121   8.247
31536SOL    HW296448   6.661   7.228   8.168
31537SOL     OW96449  10.867  13.868   4.292
31537SOL    HW196450  10.919  13.811   4.236
31537SOL    HW296451  10.896  13.956   4.271
31538SOL     OW96452  11.737   4.734   4.919
31538SOL    HW196453  11.758   4.795   4.990
31538SOL    HW296454  11.749   4.786   4.839
31539SOL     OW96455   7.935  11.760  11.732
31539SOL    HW196456   7.901  11.807  11.656
31539SOL    HW296457   7.901  11.808  11.807
31540SOL     OW96458   6.744   4.419   7.084
31540SOL    HW196459   6.758   4.338   7.133
31540SOL    HW296460   6.672   4.400   7.024
31541SOL     OW96461   2.245   8.488  14.096
31541SOL    HW196462   2.186   8.470  14.170
31541SOL    HW296463   2.333   8.485  14.135
31542SOL     OW96464   9.418  13.486   3.609
31542SOL    HW196465   9.459  13.537   3.539
31542SOL    HW296466   9.442  13.531   3.690
31543SOL     OW96467   9.765  13.478   7.642
31543SOL    HW196468   9.693  13.540   7.652
31543SOL    HW296469   9.843  13.533   7.630
31544SOL     OW96470   8.014   7.912   3.830
31544SOL    HW196471   8.046   7.958   3.908
31544SOL    HW296472   7.928   7.880   3.854
31545SOL     OW96473   0.486  14.856  14.766
31545SOL    HW196474   0.461  14.766  14.786
31545SOL    HW296475   0.419   0.030  14.807
31546SOL     OW96476  13.073  14.498  13.039
31546SOL    HW196477  12.982  14.527  13.028
31546SOL    HW296478  13.094  14.517  13.130
31547SOL     OW96479   8.874  13.267   3.906
31547SOL    HW196480   8.781  13.289   3.916
31547SOL    HW296481   8.920  13.333   3.956
31548SOL     OW96482   4.329   8.931   7.843
31548SOL    HW196483   4.297   8.941   7.753
31548SOL    HW296484   4.407   8.876   7.835
31549SOL     OW96485   3.531  10.759  13.477
31549SOL    HW196486   3.597  10.704  13.434
31549SOL    HW296487   3.557  10.849  13.456
31550SOL     OW96488   2.605   2.097   6.201
31550SOL    HW196489   2.553   2.097   6.120
31550SOL    HW296490   2.599   2.188   6.233
31551SOL     OW96491   7.748  11.648   7.699
31551SOL    HW196492   7.732  11.555   7.716
31551SOL    HW296493   7.772  11.684   7.785
31552SOL     OW96494   4.526   7.998  13.800
31552SOL    HW196495   4.482   8.075  13.837
31552SOL    HW296496   4.610   8.032  13.767
31553SOL     OW96497  13.391   8.668   0.708
31553SOL    HW196498  13.430   8.665   0.795
31553SOL    HW296499  13.466   8.672   0.648
31554SOL     OW96500  10.231  13.826  12.620
31554SOL    HW196501  10.250  13.817  12.527
31554SOL    HW296502  10.187  13.745  12.644
31555SOL     OW96503   1.714   2.762   0.942
31555SOL    HW196504   1.740   2.842   0.895
31555SOL    HW296505   1.642   2.790   0.999
31556SOL     OW96506  11.996   0.106   4.799
31556SOL    HW196507  11.946   0.170   4.748
31556SOL    HW296508  12.080   0.100   4.753
31557SOL     OW96509   8.208   1.649   4.484
31557SOL    HW196510   8.203   1.603   4.401
31557SOL    HW296511   8.163   1.592   4.546
31558SOL     OW96512  11.475   5.463  12.391
31558SOL    HW196513  11.527   5.540  12.414
31558SOL    HW296514  11.514   5.430  12.310
31559SOL     OW96515  14.684   9.407  13.523
31559SOL    HW196516  14.700   9.317  13.492
31559SOL    HW296517  14.767   9.436  13.559
31560SOL     OW96518  14.815   7.734   0.178
31560SOL    HW196519  14.790   7.807   0.121
31560SOL    HW296520   0.012   7.695   0.135
31561SOL     OW96521   6.460   2.183  12.138
31561SOL    HW196522   6.478   2.263  12.188
31561SOL    HW296523   6.365   2.182  12.128
31562SOL     OW96524   6.974   2.943   2.583
31562SOL    HW196525   6.983   2.936   2.488
31562SOL    HW296526   6.921   3.021   2.596
31563SOL     OW96527   3.825   8.809   7.901
31563SOL    HW196528   3.775   8.888   7.918
31563SOL    HW296529   3.850   8.777   7.987
31564SOL     OW96530  12.451  13.597  12.696
31564SOL    HW196531  12.460  13.502  12.708
31564SOL    HW296532  12.359  13.615  12.716
31565SOL     OW96533   6.605  11.131  10.597
31565SOL    HW196534   6.666  11.158  10.528
31565SOL    HW296535   6.518  11.144  10.559
31566SOL     OW96536  11.606   6.490   3.075
31566SOL    HW196537  11.617   6.523   2.986
31566SOL    HW296538  11.527   6.535   3.107
31567SOL     OW96539   7.048   7.688   5.979
31567SOL    HW196540   7.098   7.666   5.901
31567SOL    HW296541   6.958   7.667   5.956
31568SOL     OW96542   2.361   1.300   6.156
31568SOL    HW196543   2.447   1.341   6.150
31568SOL    HW296544   2.339   1.301   6.249
31569SOL     OW96545   8.339  11.519   3.932
31569SOL    HW196546   8.305  11.609   3.940
31569SOL    HW296547   8.291  11.471   4.000
31570SOL     OW96548   4.588  13.181   3.530
31570SOL    HW196549   4.630  13.163   3.615
31570SOL    HW296550   4.652  13.153   3.465
31571SOL     OW96551  11.685  13.870   3.012
31571SOL    HW196552  11.704  13.884   3.104
31571SOL    HW296553  11.640  13.786   3.008
31572SOL     OW96554   8.563  11.712   3.811
31572SOL    HW196555   8.528  11.667   3.734
31572SOL    HW296556   8.558  11.805   3.788
31573SOL     OW96557   7.592   6.846   1.432
31573SOL    HW196558   7.545   6.763   1.421
31573SOL    HW296559   7.684   6.821   1.442
31574SOL     OW96560   9.296  11.363   8.962
31574SOL    HW196561   9.335  11.276   8.960
31574SOL    HW296562   9.219  11.354   9.018
31575SOL     OW96563   5.475  13.378   0.295
31575SOL    HW196564   5.540  13.320   0.335
31575SOL    HW296565   5.442  13.329   0.220
31576SOL     OW96566  10.595   2.915   0.484
31576SOL    HW196567  10.527   2.933   0.549
31576SOL    HW296568  10.677   2.927   0.532
31577SOL     OW96569  11.609   2.601   0.296
31577SOL    HW196570  11.560   2.677   0.327
31577SOL    HW296571  11.594   2.600   0.202
31578SOL     OW96572   9.888   2.910  11.814
31578SOL    HW196573   9.961   2.966  11.787
31578SOL    HW296574   9.873   2.932  11.906
31579SOL     OW96575   9.817   4.536   5.437
31579SOL    HW196576   9.733   4.558   5.476
31579SOL    HW296577   9.880   4.542   5.509
31580SOL     OW96578   3.947  12.147   7.308
31580SOL    HW196579   3.852  12.142   7.305
31580SOL    HW296580   3.972  12.085   7.376
31581SOL     OW96581   3.357   3.905  11.679
31581SOL    HW196582   3.328   3.982  11.728
31581SOL    HW296583   3.355   3.834  11.743
31582SOL     OW96584   6.759  13.612  14.234
31582SOL    HW196585   6.704  13.630  14.158
31582SOL    HW296586   6.697  13.597  14.306
31583SOL     OW96587  10.858  11.264   0.070
31583SOL    HW196588  10.953  11.280   0.074
31583SOL    HW296589  10.835  11.283  14.858
31584SOL     OW96590  10.152   0.469   9.860
31584SOL    HW196591  10.153   0.426   9.774
31584SOL    HW296592  10.242   0.501   9.872
31585SOL     OW96593   3.191  12.827   7.217
31585SOL    HW196594   3.254  12.755   7.224
31585SOL    HW296595   3.175  12.835   7.123
31586SOL     OW96596   7.201   9.783   5.562
31586SOL    HW196597   7.158   9.756   5.643
31586SOL    HW296598   7.136   9.838   5.518
31587SOL     OW96599  10.808  13.204   9.956
31587SOL    HW196600  10.755  13.129   9.985
31587SOL    HW296601  10.787  13.213   9.863
31588SOL     OW96602   6.888  11.715  14.636
31588SOL    HW196603   6.911  11.659  14.562
31588SOL    HW296604   6.883  11.655  14.711
31589SOL     OW96605   8.109   9.588   5.981
31589SOL    HW196606   8.113   9.671   6.028
31589SOL    HW296607   8.133   9.522   6.046
31590SOL     OW96608  13.760   7.634  14.052
31590SOL    HW196609  13.667   7.654  14.063
31590SOL    HW296610  13.761   7.549  14.009
31591SOL     OW96611   5.664  13.051  12.932
31591SOL    HW196612   5.730  13.077  12.869
31591SOL    HW296613   5.663  12.955  12.929
31592SOL     OW96614   7.978  11.612   2.823
31592SOL    HW196615   7.897  11.643   2.865
31592SOL    HW296616   8.047  11.634   2.886
31593SOL     OW96617  11.449   2.829   0.375
31593SOL    HW196618  11.364   2.803   0.339
31593SOL    HW296619  11.441   2.810   0.469
31594SOL     OW96620   0.172   2.558   3.479
31594SOL    HW196621   0.182   2.462   3.483
31594SOL    HW296622   0.096   2.577   3.534
31595SOL     OW96623  11.219   3.299   3.634
31595SOL    HW196624  11.259   3.361   3.573
31595SOL    HW296625  11.165   3.353   3.691
31596SOL     OW96626   9.619  14.082  11.443
31596SOL    HW196627   9.649  14.050  11.528
31596SOL    HW296628   9.530  14.048  11.435
31597SOL     OW96629   4.324   9.642   0.741
31597SOL    HW196630   4.372   9.592   0.675
31597SOL    HW296631   4.232   9.631   0.717
31598SOL     OW96632   2.473   5.444   7.450
31598SOL    HW196633   2.396   5.438   7.508
31598SOL    HW296634   2.539   5.390   7.493
31599SOL     OW96635  11.943   6.278   3.172
31599SOL    HW196636  11.970   6.191   3.202
31599SOL    HW296637  11.849   6.270   3.155
31600SOL     OW96638  11.276  12.615  14.162
31600SOL    HW196639  11.314  12.604  14.250
31600SOL    HW296640  11.289  12.708  14.142
31601SOL     OW96641  12.938   8.664   4.309
31601SOL    HW196642  12.971   8.577   4.289
31601SOL    HW296643  12.878   8.685   4.237
31602SOL     OW96644  11.135  10.908   1.986
31602SOL    HW196645  11.157  11.001   1.985
31602SOL    HW296646  11.056  10.901   1.932
31603SOL     OW96647   4.393   6.114   6.171
31603SOL    HW196648   4.432   6.190   6.214
31603SOL    HW296649   4.414   6.126   6.078
31604SOL     OW96650   8.485   2.127   8.110
31604SOL    HW196651   8.472   2.222   8.105
31604SOL    HW296652   8.568   2.117   8.157
31605SOL     OW96653  11.930   6.254   5.917
31605SOL    HW196654  11.870   6.302   5.973
31605SOL    HW296655  11.968   6.187   5.974
31606SOL     OW96656  10.001   7.983   7.780
31606SOL    HW196657  10.067   8.010   7.716
31606SOL    HW296658   9.934   8.051   7.775
31607SOL     OW96659  10.156   1.843  13.812
31607SOL    HW196660  10.236   1.798  13.783
31607SOL    HW296661  10.103   1.850  13.733
31608SOL     OW96662   4.620   5.378  11.662
31608SOL    HW196663   4.543   5.338  11.704
31608SOL    HW296664   4.651   5.311  11.601
31609SOL     OW96665   1.094  12.222  12.660
31609SOL    HW196666   1.013  12.259  12.624
31609SOL    HW296667   1.065  12.167  12.733
31610SOL     OW96668   7.073  13.412   2.484
31610SOL    HW196669   7.141  13.357   2.524
31610SOL    HW296670   7.090  13.407   2.390
31611SOL     OW96671   4.989   0.772   2.746
31611SOL    HW196672   5.049   0.838   2.782
31611SOL    HW296673   4.906   0.818   2.737
31612SOL     OW96674   8.663  14.168  11.432
31612SOL    HW196675   8.598  14.209  11.489
31612SOL    HW296676   8.745  14.177  11.481
31613SOL     OW96677   7.352  13.986   1.793
31613SOL    HW196678   7.275  13.969   1.739
31613SOL    HW296679   7.415  14.025   1.732
31614SOL     OW96680  12.436   0.285   5.880
31614SOL    HW196681  12.373   0.350   5.910
31614SOL    HW296682  12.449   0.227   5.955
31615SOL     OW96683   5.077  13.338   6.787
31615SOL    HW196684   5.064  13.306   6.876
31615SOL    HW296685   4.989  13.344   6.751
31616SOL     OW96686   8.925  13.040   8.893
31616SOL    HW196687   8.876  13.035   8.975
31616SOL    HW296688   8.864  13.078   8.830
31617SOL     OW96689   4.737   5.471   6.269
31617SOL    HW196690   4.692   5.435   6.193
31617SOL    HW296691   4.733   5.566   6.257
31618SOL     OW96692   6.528  12.282   5.383
31618SOL    HW196693   6.435  12.297   5.400
31618SOL    HW296694   6.557  12.228   5.457
31619SOL     OW96695  10.046   4.316   1.191
31619SOL    HW196696  10.053   4.224   1.216
31619SOL    HW296697   9.957   4.324   1.156
31620SOL     OW96698   8.861  11.512   6.319
31620SOL    HW196699   8.837  11.420   6.325
31620SOL    HW296700   8.782  11.559   6.345
31621SOL     OW96701   3.487   2.391   4.759
31621SOL    HW196702   3.481   2.343   4.841
31621SOL    HW296703   3.488   2.324   4.691
31622SOL     OW96704  14.094   6.874  11.666
31622SOL    HW196705  14.053   6.828  11.593
31622SOL    HW296706  14.178   6.830  11.678
31623SOL     OW96707  13.192   2.795  11.322
31623SOL    HW196708  13.279   2.756  11.317
31623SOL    HW296709  13.141   2.752  11.253
31624SOL     OW96710   1.297   6.653  11.009
31624SOL    HW196711   1.229   6.618  10.951
31624SOL    HW296712   1.299   6.592  11.083
31625SOL     OW96713   8.544  13.709   4.749
31625SOL    HW196714   8.571  13.754   4.829
31625SOL    HW296715   8.498  13.775   4.698
31626SOL     OW96716  11.304  12.344   5.366
31626SOL    HW196717  11.278  12.279   5.301
31626SOL    HW296718  11.299  12.299   5.450
31627SOL     OW96719   4.522   0.503   5.623
31627SOL    HW196720   4.474   0.579   5.655
31627SOL    HW296721   4.611   0.515   5.656
31628SOL     OW96722   2.156   5.310  11.624
31628SOL    HW196723   2.092   5.370  11.662
31628SOL    HW296724   2.240   5.340  11.658
31629SOL     OW96725  13.626   9.821   9.282
31629SOL    HW196726  13.647   9.773   9.203
31629SOL    HW296727  13.579   9.899   9.251
31630SOL     OW96728   6.162  12.182  10.522
31630SOL    HW196729   6.137  12.092  10.499
31630SOL    HW296730   6.147  12.188  10.616
31631SOL     OW96731  11.865   9.178   7.744
31631SOL    HW196732  11.812   9.255   7.765
31631SOL    HW296733  11.948   9.192   7.789
31632SOL     OW96734   2.441   8.655   2.577
31632SOL    HW196735   2.398   8.645   2.662
31632SOL    HW296736   2.369   8.671   2.515
31633SOL     OW96737   5.213  10.466   4.891
31633SOL    HW196738   5.201  10.528   4.819
31633SOL    HW296739   5.289  10.499   4.938
31634SOL     OW96740   4.267  10.255   0.280
31634SOL    HW196741   4.293  10.283   0.192
31634SOL    HW296742   4.350  10.244   0.327
31635SOL     OW96743   0.309  11.413  14.164
31635SOL    HW196744   0.259  11.342  14.204
31635SOL    HW296745   0.243  11.466  14.118
31636SOL     OW96746   8.434   1.566   1.877
31636SOL    HW196747   8.518   1.528   1.852
31636SOL    HW296748   8.408   1.621   1.803
31637SOL     OW96749  13.782  10.256  13.163
31637SOL    HW196750  13.715  10.197  13.196
31637SOL    HW296751  13.801  10.224  13.075
31638SOL     OW96752   4.869   2.284  13.577
31638SOL    HW196753   4.884   2.252  13.666
31638SOL    HW296754   4.840   2.374  13.588
31639SOL     OW96755  12.341   4.891   7.360
31639SOL    HW196756  12.305   4.897   7.272
31639SOL    HW296757  12.354   4.982   7.387
31640SOL     OW96758   7.432  10.216  14.307
31640SOL    HW196759   7.437  10.124  14.282
31640SOL    HW296760   7.413  10.262  14.226
31641SOL     OW96761  14.866  14.645   7.390
31641SOL    HW196762   0.015  14.605   7.472
31641SOL    HW296763  14.838  14.571   7.336
31642SOL     OW96764  11.888   9.486   3.257
31642SOL    HW196765  11.945   9.495   3.332
31642SOL    HW296766  11.947   9.488   3.181
31643SOL     OW96767   5.590  12.060   1.841
31643SOL    HW196768   5.522  12.020   1.896
31643SOL    HW296769   5.575  12.154   1.849
31644SOL     OW96770   8.923   7.751  12.397
31644SOL    HW196771   8.836   7.749  12.436
31644SOL    HW296772   8.983   7.745  12.471
31645SOL     OW96773   0.452  11.183   1.139
31645SOL    HW196774   0.430  11.272   1.164
31645SOL    HW296775   0.373  11.132   1.157
31646SOL     OW96776   7.207   5.018   0.212
31646SOL    HW196777   7.292   4.973   0.210
31646SOL    HW296778   7.226   5.106   0.181
31647SOL     OW96779   0.618   9.006   0.331
31647SOL    HW196780   0.589   8.989   0.242
31647SOL    HW296781   0.711   8.983   0.331
31648SOL     OW96782   9.035   4.472  14.772
31648SOL    HW196783   9.064   4.409  14.705
31648SOL    HW296784   9.087   4.449  14.849
31649SOL     OW96785  12.648   1.742   1.731
31649SOL    HW196786  12.738   1.714   1.746
31649SOL    HW296787  12.633   1.813   1.793
31650SOL     OW96788   8.950   8.596   2.717
31650SOL    HW196789   8.905   8.609   2.801
31650SOL    HW296790   8.988   8.509   2.724
31651SOL     OW96791   6.034   9.332   3.572
31651SOL    HW196792   6.090   9.405   3.599
31651SOL    HW296793   6.086   9.254   3.593
31652SOL     OW96794   7.990   6.979   2.787
31652SOL    HW196795   8.028   7.043   2.847
31652SOL    HW296796   8.060   6.961   2.724
31653SOL     OW96797   6.275  10.205   0.191
31653SOL    HW196798   6.273  10.300   0.204
31653SOL    HW296799   6.270  10.169   0.280
31654SOL     OW96800   3.154   1.450   5.183
31654SOL    HW196801   3.244   1.423   5.162
31654SOL    HW296802   3.100   1.381   5.144
31655SOL     OW96803   9.344  14.774   8.320
31655SOL    HW196804   9.406  14.774   8.393
31655SOL    HW296805   9.271  14.828   8.350
31656SOL     OW96806   9.466   4.512  10.557
31656SOL    HW196807   9.532   4.528  10.625
31656SOL    HW296808   9.401   4.581  10.572
31657SOL     OW96809   8.992   4.400  10.273
31657SOL    HW196810   8.898   4.414  10.284
31657SOL    HW296811   9.029   4.420  10.359
31658SOL     OW96812   8.093   0.456  12.583
31658SOL    HW196813   8.051   0.538  12.611
31658SOL    HW296814   8.158   0.484  12.518
31659SOL     OW96815  12.121   1.375  13.229
31659SOL    HW196816  12.042   1.377  13.175
31659SOL    HW296817  12.174   1.449  13.198
31660SOL     OW96818   0.024  13.444  12.530
31660SOL    HW196819   0.095  13.385  12.504
31660SOL    HW296820   0.067  13.516  12.575
31661SOL     OW96821   1.413   0.944  12.684
31661SOL    HW196822   1.332   0.948  12.632
31661SOL    HW296823   1.483   0.957  12.620
31662SOL     OW96824   5.165   8.024   0.404
31662SOL    HW196825   5.119   8.101   0.436
31662SOL    HW296826   5.173   7.967   0.480
31663SOL     OW96827   2.727  11.060   2.253
31663SOL    HW196828   2.806  11.066   2.306
31663SOL    HW296829   2.677  10.988   2.293
31664SOL     OW96830   5.978   6.737  14.165
31664SOL    HW196831   5.915   6.713  14.097
31664SOL    HW296832   5.951   6.824  14.194
31665SOL     OW96833   0.223  11.995  14.665
31665SOL    HW196834   0.202  11.902  14.655
31665SOL    HW296835   0.306  11.996  14.712
31666SOL     OW96836   2.440   5.040   5.958
31666SOL    HW196837   2.506   5.096   5.999
31666SOL    HW296838   2.356   5.080   5.982
31667SOL     OW96839  14.512  13.830   3.930
31667SOL    HW196840  14.492  13.888   3.857
31667SOL    HW296841  14.470  13.747   3.907
31668SOL     OW96842  12.091   8.203  11.894
31668SOL    HW196843  12.045   8.214  11.811
31668SOL    HW296844  12.073   8.284  11.942
31669SOL     OW96845   3.364   9.391   1.251
31669SOL    HW196846   3.361   9.480   1.286
31669SOL    HW296847   3.274   9.371   1.226
31670SOL     OW96848   9.503  14.432  10.910
31670SOL    HW196849   9.519  14.351  10.958
31670SOL    HW296850   9.552  14.499  10.958
31671SOL     OW96851  13.062   7.782   5.618
31671SOL    HW196852  13.072   7.877   5.626
31671SOL    HW296853  13.151   7.749   5.623
31672SOL     OW96854  12.316  14.621   5.180
31672SOL    HW196855  12.390  14.585   5.132
31672SOL    HW296856  12.330  14.592   5.270
31673SOL     OW96857   4.577  13.240   8.816
31673SOL    HW196858   4.569  13.236   8.720
31673SOL    HW296859   4.497  13.283   8.845
31674SOL     OW96860   0.005   1.645   4.813
31674SOL    HW196861  14.873   1.550   4.817
31674SOL    HW296862   0.067   1.659   4.741
31675SOL     OW96863   5.106  11.564  10.412
31675SOL    HW196864   5.107  11.616  10.492
31675SOL    HW296865   5.161  11.614  10.351
31676SOL     OW96866   1.366   8.141   2.061
31676SOL    HW196867   1.348   8.211   1.999
31676SOL    HW296868   1.447   8.168   2.105
31677SOL     OW96869   3.387  13.024   8.999
31677SOL    HW196870   3.294  13.015   9.019
31677SOL    HW296871   3.391  13.035   8.904
31678SOL     OW96872   9.256  10.776  10.498
31678SOL    HW196873   9.328  10.759  10.438
31678SOL    HW296874   9.278  10.858  10.542
31679SOL     OW96875  10.806   6.505  12.812
31679SOL    HW196876  10.895   6.531  12.834
31679SOL    HW296877  10.778   6.450  12.885
31680SOL     OW96878   2.846   5.861  12.354
31680SOL    HW196879   2.880   5.912  12.427
31680SOL    HW296880   2.835   5.924  12.283
31681SOL     OW96881   4.101  13.918  13.789
31681SOL    HW196882   4.052  13.977  13.732
31681SOL    HW296883   4.068  13.830  13.767
31682SOL     OW96884   2.456   0.621   0.562
31682SOL    HW196885   2.435   0.571   0.641
31682SOL    HW296886   2.395   0.695   0.564
31683SOL     OW96887   2.808  14.655   1.160
31683SOL    HW196888   2.898  14.682   1.178
31683SOL    HW296889   2.815  14.561   1.142
31684SOL     OW96890   8.093  13.106   7.054
31684SOL    HW196891   8.151  13.031   7.067
31684SOL    HW296892   8.153  13.180   7.039
31685SOL     OW96893   2.495   9.095   3.409
31685SOL    HW196894   2.448   9.094   3.492
31685SOL    HW296895   2.434   9.058   3.345
31686SOL     OW96896   8.819  10.379   6.436
31686SOL    HW196897   8.789  10.320   6.505
31686SOL    HW296898   8.913  10.391   6.454
31687SOL     OW96899   0.407   1.788  11.051
31687SOL    HW196900   0.350   1.727  11.005
31687SOL    HW296901   0.423   1.859  10.988
31688SOL     OW96902   1.617   8.501  13.089
31688SOL    HW196903   1.699   8.467  13.053
31688SOL    HW296904   1.576   8.548  13.017
31689SOL     OW96905   4.758   8.820  10.064
31689SOL    HW196906   4.681   8.864  10.102
31689SOL    HW296907   4.762   8.736  10.110
31690SOL     OW96908   1.020   3.555   0.046
31690SOL    HW196909   0.968   3.484   0.008
31690SOL    HW296910   1.108   3.540   0.013
31691SOL     OW96911   9.444   6.528  10.868
31691SOL    HW196912   9.377   6.489  10.924
31691SOL    HW296913   9.432   6.485  10.783
31692SOL     OW96914   2.159  12.849   9.551
31692SOL    HW196915   2.166  12.786   9.622
31692SOL    HW296916   2.246  12.851   9.512
31693SOL     OW96917  10.208  10.630   3.468
31693SOL    HW196918  10.168  10.662   3.386
31693SOL    HW296919  10.179  10.538   3.473
31694SOL     OW96920  13.866   9.064  10.024
31694SOL    HW196921  13.877   9.066  10.120
31694SOL    HW296922  13.794   9.003  10.010
31695SOL     OW96923  11.204   6.591   2.694
31695SOL    HW196924  11.287   6.552   2.719
31695SOL    HW296925  11.138   6.542   2.743
31696SOL     OW96926   8.858   7.985   7.983
31696SOL    HW196927   8.772   7.977   7.942
31696SOL    HW296928   8.891   8.070   7.952
31697SOL     OW96929   2.618   4.037  10.634
31697SOL    HW196930   2.628   3.947  10.662
31697SOL    HW296931   2.626   4.033  10.538
31698SOL     OW96932   1.158   4.255  13.962
31698SOL    HW196933   1.153   4.279  13.869
31698SOL    HW296934   1.250   4.231  13.975
31699SOL     OW96935   1.410   3.665  12.335
31699SOL    HW196936   1.425   3.574  12.313
31699SOL    HW296937   1.480   3.687  12.398
31700SOL     OW96938   8.143  14.767   7.943
31700SOL    HW196939   8.069  14.707   7.930
31700SOL    HW296940   8.105  14.845   7.983
31701SOL     OW96941  11.518   0.416  11.007
31701SOL    HW196942  11.536   0.508  10.986
31701SOL    HW296943  11.547   0.407  11.098
31702SOL     OW96944   8.462  13.299  11.318
31702SOL    HW196945   8.460  13.282  11.224
31702SOL    HW296946   8.376  13.334  11.339
31703SOL     OW96947   4.876   8.816   5.182
31703SOL    HW196948   4.949   8.873   5.158
31703SOL    HW296949   4.917   8.744   5.231
31704SOL     OW96950   0.915   1.433   1.639
31704SOL    HW196951   0.846   1.377   1.675
31704SOL    HW296952   0.970   1.454   1.714
31705SOL     OW96953   5.973   3.189  12.762
31705SOL    HW196954   5.935   3.124  12.703
31705SOL    HW296955   5.950   3.273  12.722
31706SOL     OW96956  11.252   1.121   4.840
31706SOL    HW196957  11.210   1.185   4.783
31706SOL    HW296958  11.179   1.072   4.878
31707SOL     OW96959   1.030   7.074   3.039
31707SOL    HW196960   1.104   7.048   3.093
31707SOL    HW296961   1.056   7.050   2.950
31708SOL     OW96962  14.072   0.457  12.768
31708SOL    HW196963  14.080   0.535  12.712
31708SOL    HW296964  13.996   0.410  12.734
31709SOL     OW96965   9.043   0.009  10.479
31709SOL    HW196966   8.997  14.821  10.528
31709SOL    HW296967   9.131   0.011  10.518
31710SOL     OW96968   0.760   6.083   8.532
31710SOL    HW196969   0.670   6.100   8.505
31710SOL    HW296970   0.752   6.044   8.620
31711SOL     OW96971   2.917   9.283   6.080
31711SOL    HW196972   2.873   9.367   6.082
31711SOL    HW296973   2.864   9.227   6.136
31712SOL     OW96974   1.543   7.626  13.707
31712SOL    HW196975   1.462   7.660  13.668
31712SOL    HW296976   1.603   7.701  13.704
31713SOL     OW96977  10.325   3.117  12.520
31713SOL    HW196978  10.414   3.084  12.515
31713SOL    HW296979  10.335   3.211  12.530
31714SOL     OW96980  13.004   4.126   2.442
31714SOL    HW196981  13.023   4.074   2.364
31714SOL    HW296982  12.920   4.092   2.474
31715SOL     OW96983   6.476  10.604   3.590
31715SOL    HW196984   6.557  10.560   3.565
31715SOL    HW296985   6.443  10.553   3.665
31716SOL     OW96986   6.022   8.745  10.383
31716SOL    HW196987   5.992   8.726  10.294
31716SOL    HW296988   6.082   8.819  10.373
31717SOL     OW96989   4.685   9.465  14.676
31717SOL    HW196990   4.633   9.530  14.723
31717SOL    HW296991   4.740   9.425  14.743
31718SOL     OW96992  13.082  14.738   4.044
31718SOL    HW196993  13.104  14.815   4.097
31718SOL    HW296994  12.993  14.755   4.013
31719SOL     OW96995   0.604   3.664   0.510
31719SOL    HW196996   0.579   3.697   0.596
31719SOL    HW296997   0.543   3.707   0.450
31720SOL     OW96998  14.316  14.847  14.190
31720SOL    HW196999  14.302  14.821  14.099
31720SOL    HW297000  14.228  14.846  14.228
31721SOL     OW97001   0.373   0.194   9.077
31721SOL    HW197002   0.447   0.133   9.069
31721SOL    HW297003   0.309   0.147   9.130
31722SOL     OW97004   6.883   3.796   3.178
31722SOL    HW197005   6.835   3.855   3.235
31722SOL    HW297006   6.822   3.725   3.158
31723SOL     OW97007   9.019  11.489   1.631
31723SOL    HW197008   8.972  11.558   1.584
31723SOL    HW297009   9.109  11.495   1.598
31724SOL     OW97010  13.528   5.522  12.230
31724SOL    HW197011  13.503   5.451  12.170
31724SOL    HW297012  13.544   5.597  12.172
31725SOL     OW97013   1.205   1.234   4.645
31725SOL    HW197014   1.133   1.188   4.602
31725SOL    HW297015   1.260   1.264   4.573
31726SOL     OW97016   4.052   2.436  10.454
31726SOL    HW197017   3.974   2.491  10.452
31726SOL    HW297018   4.124   2.497  10.467
31727SOL     OW97019   9.364   9.516   4.499
31727SOL    HW197020   9.299   9.549   4.438
31727SOL    HW297021   9.322   9.442   4.542
31728SOL     OW97022  14.235   9.041  11.592
31728SOL    HW197023  14.232   9.056  11.687
31728SOL    HW297024  14.215   9.126  11.553
31729SOL     OW97025   7.546   4.466  11.132
31729SOL    HW197026   7.559   4.379  11.094
31729SOL    HW297027   7.460   4.462  11.174
31730SOL     OW97028  11.190   1.742   4.513
31730SOL    HW197029  11.190   1.651   4.481
31730SOL    HW297030  11.282   1.765   4.518
31731SOL     OW97031  14.160   6.823   5.109
31731SOL    HW197032  14.078   6.779   5.132
31731SOL    HW297033  14.229   6.763   5.136
31732SOL     OW97034   1.023   3.851  12.556
31732SOL    HW197035   1.020   3.946  12.560
31732SOL    HW297036   0.943   3.822  12.601
31733SOL     OW97037   3.202   6.441   5.382
31733SOL    HW197038   3.223   6.519   5.331
31733SOL    HW297039   3.110   6.423   5.361
31734SOL     OW97040   5.357  14.701  12.787
31734SOL    HW197041   5.285  14.647  12.819
31734SOL    HW297042   5.383  14.754  12.862
31735SOL     OW97043   4.845   1.728   0.633
31735SOL    HW197044   4.905   1.796   0.664
31735SOL    HW297045   4.772   1.776   0.594
31736SOL     OW97046   5.543   6.272   4.186
31736SOL    HW197047   5.583   6.354   4.213
31736SOL    HW297048   5.610   6.228   4.134
31737SOL     OW97049   5.603   3.895   5.084
31737SOL    HW197050   5.615   3.990   5.094
31737SOL    HW297051   5.659   3.857   5.151
31738SOL     OW97052  14.591   9.247   9.927
31738SOL    HW197053  14.527   9.317   9.938
31738SOL    HW297054  14.676   9.292   9.924
31739SOL     OW97055   0.721   9.215   7.855
31739SOL    HW197056   0.640   9.258   7.829
31739SOL    HW297057   0.738   9.245   7.944
31740SOL     OW97058  12.773   1.722   3.789
31740SOL    HW197059  12.753   1.700   3.880
31740SOL    HW297060  12.697   1.774   3.760
31741SOL     OW97061   8.741  10.797  13.731
31741SOL    HW197062   8.669  10.826  13.675
31741SOL    HW297063   8.818  10.802  13.675
31742SOL     OW97064  14.513   0.843   3.808
31742SOL    HW197065  14.425   0.807   3.793
31742SOL    HW297066  14.512   0.928   3.763
31743SOL     OW97067  14.463  12.135  11.104
31743SOL    HW197068  14.477  12.167  11.193
31743SOL    HW297069  14.412  12.055  11.115
31744SOL     OW97070   2.630  12.980  12.560
31744SOL    HW197071   2.705  12.946  12.511
31744SOL    HW297072   2.641  13.075  12.558
31745SOL     OW97073   0.796   3.291  11.235
31745SOL    HW197074   0.815   3.382  11.254
31745SOL    HW297075   0.770   3.290  11.143
31746SOL     OW97076   0.542  14.212  14.350
31746SOL    HW197077   0.460  14.229  14.303
31746SOL    HW297078   0.597  14.288  14.329
31747SOL     OW97079  14.812   1.012   2.294
31747SOL    HW197080  14.784   0.931   2.338
31747SOL    HW297081  14.732   1.046   2.255
31748SOL     OW97082   3.138   1.798   9.361
31748SOL    HW197083   3.233   1.810   9.366
31748SOL    HW297084   3.124   1.707   9.389
31749SOL     OW97085   2.955   5.642  13.070
31749SOL    HW197086   2.960   5.722  13.017
31749SOL    HW297087   2.890   5.587  13.026
31750SOL     OW97088  12.660   4.944  13.166
31750SOL    HW197089  12.612   4.876  13.212
31750SOL    HW297090  12.689   4.903  13.085
31751SOL     OW97091   0.876  10.263   8.491
31751SOL    HW197092   0.856  10.187   8.546
31751SOL    HW297093   0.874  10.337   8.551
31752SOL     OW97094   8.565  12.834   7.782
31752SOL    HW197095   8.498  12.897   7.807
31752SOL    HW297096   8.648  12.876   7.804
31753SOL     OW97097  13.277   2.733  10.879
31753SOL    HW197098  13.266   2.746  10.974
31753SOL    HW297099  13.361   2.688  10.871
31754SOL     OW97100   5.868  14.106  10.392
31754SOL    HW197101   5.823  14.084  10.474
31754SOL    HW297102   5.897  14.197  10.405
31755SOL     OW97103  10.746   5.944  12.948
31755SOL    HW197104  10.681   6.014  12.960
31755SOL    HW297105  10.701   5.864  12.974
31756SOL     OW97106  13.612   9.156  13.069
31756SOL    HW197107  13.681   9.117  13.123
31756SOL    HW297108  13.616   9.108  12.987
31757SOL     OW97109  11.592   2.828   6.969
31757SOL    HW197110  11.660   2.831   7.037
31757SOL    HW297111  11.531   2.898   6.994
31758SOL     OW97112  14.413   7.804  11.248
31758SOL    HW197113  14.339   7.836  11.196
31758SOL    HW297114  14.409   7.855  11.329
31759SOL     OW97115  10.143   2.546   1.330
31759SOL    HW197116  10.227   2.575   1.368
31759SOL    HW297117  10.103   2.626   1.296
31760SOL     OW97118   6.411   1.260   2.087
31760SOL    HW197119   6.330   1.253   2.138
31760SOL    HW297120   6.480   1.232   2.148
31761SOL     OW97121  11.627   6.031   7.910
31761SOL    HW197122  11.643   6.089   7.836
31761SOL    HW297123  11.693   6.055   7.975
31762SOL     OW97124  13.755  12.453   0.779
31762SOL    HW197125  13.660  12.460   0.785
31762SOL    HW297126  13.787  12.469   0.868
31763SOL     OW97127  13.161  12.965   1.816
31763SOL    HW197128  13.177  12.994   1.906
31763SOL    HW297129  13.076  13.004   1.793
31764SOL     OW97130   5.357   7.021  11.242
31764SOL    HW197131   5.290   7.018  11.173
31764SOL    HW297132   5.345   7.106  11.283
31765SOL     OW97133   4.878   9.998   5.341
31765SOL    HW197134   4.868  10.055   5.265
31765SOL    HW297135   4.790   9.992   5.379
31766SOL     OW97136  12.433   9.350   6.765
31766SOL    HW197137  12.397   9.266   6.792
31766SOL    HW297138  12.417   9.353   6.670
31767SOL     OW97139   8.062   1.743   8.871
31767SOL    HW197140   8.031   1.774   8.786
31767SOL    HW297141   8.154   1.769   8.874
31768SOL     OW97142   1.913   8.064   2.557
31768SOL    HW197143   1.949   8.078   2.645
31768SOL    HW297144   1.981   8.014   2.511
31769SOL     OW97145  10.085  10.515   7.983
31769SOL    HW197146  10.134  10.595   7.968
31769SOL    HW297147   9.994  10.538   7.965
31770SOL     OW97148   8.647  11.670   0.800
31770SOL    HW197149   8.592  11.707   0.730
31770SOL    HW297150   8.688  11.594   0.760
31771SOL     OW97151   7.751   5.901  14.116
31771SOL    HW197152   7.694   5.867  14.185
31771SOL    HW297153   7.796   5.823  14.082
31772SOL     OW97154   7.295   6.165   8.999
31772SOL    HW197155   7.290   6.226   8.926
31772SOL    HW297156   7.292   6.079   8.959
31773SOL     OW97157   5.613  11.261   8.874
31773SOL    HW197158   5.604  11.192   8.940
31773SOL    HW297159   5.707  11.276   8.868
31774SOL     OW97160  14.226   7.305   8.966
31774SOL    HW197161  14.133   7.283   8.970
31774SOL    HW297162  14.232   7.369   8.894
31775SOL     OW97163  14.374   1.731  12.031
31775SOL    HW197164  14.278   1.730  12.037
31775SOL    HW297165  14.400   1.807  12.082
31776SOL     OW97166   3.178  13.540  12.162
31776SOL    HW197167   3.192  13.445  12.164
31776SOL    HW297168   3.243  13.575  12.222
31777SOL     OW97169  13.313   5.548   3.572
31777SOL    HW197170  13.320   5.460   3.536
31777SOL    HW297171  13.268   5.598   3.504
31778SOL     OW97172   0.849  10.646   2.529
31778SOL    HW197173   0.853  10.590   2.451
31778SOL    HW297174   0.935  10.687   2.535
31779SOL     OW97175   8.001   4.227   7.382
31779SOL    HW197176   7.999   4.303   7.325
31779SOL    HW297177   8.093   4.221   7.410
31780SOL     OW97178   1.929   9.337  14.050
31780SOL    HW197179   1.967   9.301  14.130
31780SOL    HW297180   1.919   9.262  13.992
31781SOL     OW97181   4.841   1.660  13.249
31781SOL    HW197182   4.845   1.755  13.240
31781SOL    HW297183   4.758   1.635  13.207
31782SOL     OW97184   3.804  13.424   9.565
31782SOL    HW197185   3.819  13.347   9.620
31782SOL    HW297186   3.714  13.450   9.584
31783SOL     OW97187   4.386   0.513   8.045
31783SOL    HW197188   4.430   0.579   8.098
31783SOL    HW297189   4.379   0.553   7.958
31784SOL     OW97190  11.872   7.016   4.118
31784SOL    HW197191  11.850   6.997   4.026
31784SOL    HW297192  11.836   6.942   4.167
31785SOL     OW97193   5.750   2.094   9.952
31785SOL    HW197194   5.773   2.183   9.977
31785SOL    HW297195   5.831   2.044   9.961
31786SOL     OW97196   8.118   5.849   8.357
31786SOL    HW197197   8.047   5.787   8.340
31786SOL    HW297198   8.188   5.796   8.394
31787SOL     OW97199  10.322  12.102  11.751
31787SOL    HW197200  10.302  12.089  11.843
31787SOL    HW297201  10.238  12.123  11.710
31788SOL     OW97202  11.886  11.695   0.519
31788SOL    HW197203  11.850  11.777   0.553
31788SOL    HW297204  11.964  11.679   0.572
31789SOL     OW97205  12.236   0.628   1.248
31789SOL    HW197206  12.195   0.578   1.319
31789SOL    HW297207  12.183   0.708   1.243
31790SOL     OW97208   0.523  12.074  14.388
31790SOL    HW197209   0.517  12.169  14.375
31790SOL    HW297210   0.433  12.045  14.397
31791SOL     OW97211   2.061   8.481   5.602
31791SOL    HW197212   2.017   8.396   5.608
31791SOL    HW297213   2.009   8.530   5.538
31792SOL     OW97214  10.813   9.801   2.636
31792SOL    HW197215  10.905   9.825   2.636
31792SOL    HW297216  10.810   9.717   2.681
31793SOL     OW97217   6.829  12.206  11.134
31793SOL    HW197218   6.762  12.204  11.203
31793SOL    HW297219   6.799  12.274  11.074
31794SOL     OW97220   0.657   8.606   1.995
31794SOL    HW197221   0.599   8.600   2.071
31794SOL    HW297222   0.662   8.516   1.962
31795SOL     OW97223   7.473  10.704   0.721
31795SOL    HW197224   7.517  10.619   0.727
31795SOL    HW297225   7.462  10.731   0.812
31796SOL     OW97226   2.131   2.661   9.122
31796SOL    HW197227   2.120   2.701   9.208
31796SOL    HW297228   2.209   2.605   9.131
31797SOL     OW97229   6.277   3.204   2.763
31797SOL    HW197230   6.369   3.200   2.789
31797SOL    HW297231   6.236   3.132   2.812
31798SOL     OW97232   9.098  11.535  11.126
31798SOL    HW197233   9.143  11.607  11.083
31798SOL    HW297234   9.091  11.467  11.059
31799SOL     OW97235   4.034  12.119  13.138
31799SOL    HW197236   4.053  12.045  13.080
31799SOL    HW297237   4.094  12.108  13.212
31800SOL     OW97238   4.192   3.707   1.034
31800SOL    HW197239   4.174   3.709   1.128
31800SOL    HW297240   4.195   3.799   1.009
31801SOL     OW97241  12.498   6.707   0.013
31801SOL    HW197242  12.481   6.682  14.802
31801SOL    HW297243  12.444   6.648   0.065
31802SOL     OW97244  12.694   7.012  10.369
31802SOL    HW197245  12.607   7.052  10.380
31802SOL    HW297246  12.755   7.084  10.380
31803SOL     OW97247   6.047   9.704   6.034
31803SOL    HW197248   6.080   9.748   6.112
31803SOL    HW297249   5.985   9.766   5.995
31804SOL     OW97250  12.160   8.610   2.762
31804SOL    HW197251  12.120   8.654   2.687
31804SOL    HW297252  12.250   8.593   2.734
31805SOL     OW97253   3.406   6.364  12.017
31805SOL    HW197254   3.368   6.432  12.072
31805SOL    HW297255   3.499   6.367  12.036
31806SOL     OW97256  11.401   2.291   7.546
31806SOL    HW197257  11.464   2.222   7.566
31806SOL    HW297258  11.454   2.365   7.516
31807SOL     OW97259   0.492  10.871   4.702
31807SOL    HW197260   0.540  10.954   4.699
31807SOL    HW297261   0.520  10.829   4.783
31808SOL     OW97262   4.051   8.308   9.848
31808SOL    HW197263   3.998   8.266   9.915
31808SOL    HW297264   4.057   8.400   9.876
31809SOL     OW97265   8.275   5.317  12.994
31809SOL    HW197266   8.257   5.350  13.082
31809SOL    HW297267   8.327   5.238  13.008
31810SOL     OW97268  10.131   0.395   0.848
31810SOL    HW197269  10.146   0.390   0.942
31810SOL    HW297270  10.201   0.342   0.810
31811SOL     OW97271  10.173   6.594   4.517
31811SOL    HW197272  10.155   6.540   4.594
31811SOL    HW297273  10.232   6.542   4.464
31812SOL     OW97274   8.467   9.899  13.332
31812SOL    HW197275   8.384   9.877  13.374
31812SOL    HW297276   8.528   9.910  13.405
31813SOL     OW97277  13.292   7.853  13.712
31813SOL    HW197278  13.211   7.803  13.704
31813SOL    HW297279  13.266   7.944  13.698
31814SOL     OW97280   8.845   1.887   8.336
31814SOL    HW197281   8.867   1.885   8.429
31814SOL    HW297282   8.768   1.830   8.329
31815SOL     OW97283   6.927  12.180  11.582
31815SOL    HW197284   7.017  12.148  11.571
31815SOL    HW297285   6.886  12.116  11.639
31816SOL     OW97286   3.076  10.088   6.145
31816SOL    HW197287   3.020  10.066   6.070
31816SOL    HW297288   3.014  10.110   6.215
31817SOL     OW97289   9.423  10.880  12.862
31817SOL    HW197290   9.436  10.844  12.774
31817SOL    HW297291   9.333  10.857  12.884
31818SOL     OW97292   6.922   0.692   4.333
31818SOL    HW197293   6.834   0.673   4.366
31818SOL    HW297294   6.909   0.762   4.270
31819SOL     OW97295   9.852   3.677  13.083
31819SOL    HW197296   9.790   3.727  13.030
31819SOL    HW297297   9.867   3.731  13.160
31820SOL     OW97298   2.174   0.992  13.979
31820SOL    HW197299   2.233   0.981  13.905
31820SOL    HW297300   2.086   0.987  13.941
31821SOL     OW97301   7.658   1.839   1.903
31821SOL    HW197302   7.637   1.801   1.817
31821SOL    HW297303   7.741   1.885   1.889
31822SOL     OW97304   7.459   8.102   2.276
31822SOL    HW197305   7.508   8.047   2.214
31822SOL    HW297306   7.521   8.119   2.347
31823SOL     OW97307  14.104   4.500   1.108
31823SOL    HW197308  14.012   4.514   1.089
31823SOL    HW297309  14.148   4.510   1.024
31824SOL     OW97310   8.466  11.492  13.083
31824SOL    HW197311   8.478  11.491  13.178
31824SOL    HW297312   8.380  11.453  13.069
31825SOL     OW97313   3.467  13.569  10.053
31825SOL    HW197314   3.530  13.584   9.983
31825SOL    HW297315   3.385  13.551  10.008
31826SOL     OW97316   9.647   6.980   5.078
31826SOL    HW197317   9.578   6.916   5.060
31826SOL    HW297318   9.615   7.062   5.040
31827SOL     OW97319   4.268   7.066   4.657
31827SOL    HW197320   4.260   6.990   4.715
31827SOL    HW297321   4.219   7.041   4.578
31828SOL     OW97322  13.401   3.045   7.894
31828SOL    HW197323  13.490   3.052   7.859
31828SOL    HW297324  13.361   2.975   7.842
31829SOL     OW97325  10.208  12.995  10.308
31829SOL    HW197326  10.113  13.010  10.312
31829SOL    HW297327  10.239  13.015  10.396
31830SOL     OW97328   0.288   2.523   2.307
31830SOL    HW197329   0.229   2.586   2.267
31830SOL    HW297330   0.286   2.543   2.400
31831SOL     OW97331  10.637   5.879   3.482
31831SOL    HW197332  10.680   5.805   3.525
31831SOL    HW297333  10.570   5.838   3.428
31832SOL     OW97334   2.323   6.140   0.645
31832SOL    HW197335   2.324   6.046   0.631
31832SOL    HW297336   2.270   6.152   0.724
31833SOL     OW97337   1.630   7.974   4.307
31833SOL    HW197338   1.566   7.975   4.378
31833SOL    HW297339   1.710   8.007   4.347
31834SOL     OW97340   4.937   2.306   5.544
31834SOL    HW197341   4.854   2.289   5.499
31834SOL    HW297342   4.986   2.363   5.485
31835SOL     OW97343   5.003   3.792   6.076
31835SOL    HW197344   4.958   3.731   6.018
31835SOL    HW297345   4.968   3.878   6.052
31836SOL     OW97346   8.089   8.002  14.573
31836SOL    HW197347   8.112   7.973  14.661
31836SOL    HW297348   8.075   7.921  14.524
31837SOL     OW97349   9.971  12.761   0.172
31837SOL    HW197350   9.884  12.793   0.149
31837SOL    HW297351  10.030  12.834   0.150
31838SOL     OW97352  14.131   3.035  12.793
31838SOL    HW197353  14.225   3.018  12.787
31838SOL    HW297354  14.091   2.959  12.751
31839SOL     OW97355  12.264   7.524   8.299
31839SOL    HW197356  12.347   7.514   8.345
31839SOL    HW297357  12.232   7.610   8.325
31840SOL     OW97358   8.064  13.502   7.669
31840SOL    HW197359   8.013  13.461   7.599
31840SOL    HW297360   8.007  13.572   7.702
31841SOL     OW97361  14.445   0.401  10.670
31841SOL    HW197362  14.535   0.431  10.684
31841SOL    HW297363  14.394   0.482  10.670
31842SOL     OW97364  10.810  13.993   9.039
31842SOL    HW197365  10.845  14.024   9.123
31842SOL    HW297366  10.720  13.966   9.059
31843SOL     OW97367   1.705  12.579  11.343
31843SOL    HW197368   1.758  12.628  11.406
31843SOL    HW297369   1.768  12.529  11.291
31844SOL     OW97370  13.560  11.998  13.179
31844SOL    HW197371  13.506  11.974  13.254
31844SOL    HW297372  13.507  12.061  13.130
31845SOL     OW97373   6.866   4.303   2.442
31845SOL    HW197374   6.897   4.343   2.524
31845SOL    HW297375   6.773   4.327   2.438
31846SOL     OW97376  10.836   5.293   1.448
31846SOL    HW197377  10.750   5.270   1.413
31846SOL    HW297378  10.870   5.359   1.388
31847SOL     OW97379   9.507   8.757  13.713
31847SOL    HW197380   9.584   8.808  13.738
31847SOL    HW297381   9.511   8.679  13.767
31848SOL     OW97382  12.818   3.021   0.211
31848SOL    HW197383  12.749   3.074   0.172
31848SOL    HW297384  12.894   3.079   0.215
31849SOL     OW97385   4.663   1.795   2.607
31849SOL    HW197386   4.639   1.871   2.554
31849SOL    HW297387   4.703   1.734   2.545
31850SOL     OW97388   5.589  12.325   8.623
31850SOL    HW197389   5.602  12.371   8.706
31850SOL    HW297390   5.660  12.357   8.567
31851SOL     OW97391  13.994   6.090  12.883
31851SOL    HW197392  14.034   6.162  12.834
31851SOL    HW297393  13.909   6.076  12.841
31852SOL     OW97394   3.224   1.782   7.203
31852SOL    HW197395   3.186   1.729   7.133
31852SOL    HW297396   3.150   1.831   7.239
31853SOL     OW97397   7.603   7.769   7.946
31853SOL    HW197398   7.542   7.836   7.976
31853SOL    HW297399   7.609   7.708   8.020
31854SOL     OW97400   2.849   2.223  10.328
31854SOL    HW197401   2.793   2.148  10.311
31854SOL    HW297402   2.789   2.296  10.341
31855SOL     OW97403  14.092  13.678   2.041
31855SOL    HW197404  14.077  13.747   2.105
31855SOL    HW297405  14.185  13.685   2.019
31856SOL     OW97406   3.889   6.164  12.190
31856SOL    HW197407   3.944   6.239  12.212
31856SOL    HW297408   3.865   6.126  12.275
31857SOL     OW97409   1.910   8.675   1.551
31857SOL    HW197410   1.916   8.717   1.637
31857SOL    HW297411   1.876   8.587   1.570
31858SOL     OW97412  13.947   5.173   9.981
31858SOL    HW197413  13.861   5.162   9.939
31858SOL    HW297414  13.957   5.268   9.990
31859SOL     OW97415   2.398   9.634   0.998
31859SOL    HW197416   2.408   9.719   0.956
31859SOL    HW297417   2.308   9.607   0.978
31860SOL     OW97418   8.468   8.566   8.185
31860SOL    HW197419   8.391   8.598   8.232
31860SOL    HW297420   8.473   8.473   8.208
31861SOL     OW97421   0.599   7.028  10.113
31861SOL    HW197422   0.602   7.100  10.177
31861SOL    HW297423   0.580   6.950  10.166
31862SOL     OW97424  13.236   1.267   6.187
31862SOL    HW197425  13.145   1.285   6.163
31862SOL    HW297426  13.245   1.172   6.179
31863SOL     OW97427  11.746  12.850   1.371
31863SOL    HW197428  11.682  12.905   1.417
31863SOL    HW297429  11.811  12.828   1.438
31864SOL     OW97430  14.223  11.059   1.713
31864SOL    HW197431  14.276  11.000   1.659
31864SOL    HW297432  14.287  11.108   1.765
31865SOL     OW97433   7.343   1.992  13.795
31865SOL    HW197434   7.251   1.999  13.767
31865SOL    HW297435   7.341   2.010  13.889
31866SOL     OW97436   9.914  11.539   7.953
31866SOL    HW197437   9.965  11.483   7.894
31866SOL    HW297438   9.854  11.479   7.997
31867SOL     OW97439  11.541   3.550   6.604
31867SOL    HW197440  11.475   3.619   6.618
31867SOL    HW297441  11.624   3.592   6.628
31868SOL     OW97442  13.794   0.766   9.040
31868SOL    HW197443  13.875   0.716   9.048
31868SOL    HW297444  13.821   0.851   9.006
31869SOL     OW97445  10.011   8.736   0.644
31869SOL    HW197446   9.934   8.686   0.618
31869SOL    HW297447  10.080   8.704   0.585
31870SOL     OW97448   1.086  11.361  11.636
31870SOL    HW197449   1.163  11.311  11.610
31870SOL    HW297450   1.043  11.307  11.703
31871SOL     OW97451   6.479   8.759   9.111
31871SOL    HW197452   6.528   8.742   9.031
31871SOL    HW297453   6.542   8.799   9.171
31872SOL     OW97454   3.337  14.216   4.504
31872SOL    HW197455   3.294  14.294   4.539
31872SOL    HW297456   3.303  14.209   4.415
31873SOL     OW97457   5.342  11.397   6.313
31873SOL    HW197458   5.340  11.489   6.286
31873SOL    HW297459   5.435  11.375   6.317
31874SOL     OW97460   2.447  12.534  12.614
31874SOL    HW197461   2.481  12.593  12.681
31874SOL    HW297462   2.489  12.450  12.633
31875SOL     OW97463  12.839   3.201  10.939
31875SOL    HW197464  12.869   3.195  10.848
31875SOL    HW297465  12.787   3.121  10.952
31876SOL     OW97466   4.656  14.115   6.149
31876SOL    HW197467   4.749  14.098   6.163
31876SOL    HW297468   4.612  14.069   6.220
31877SOL     OW97469   4.010  12.888   2.894
31877SOL    HW197470   4.001  12.981   2.916
31877SOL    HW297471   4.049  12.888   2.807
31878SOL     OW97472  10.926  10.568   9.909
31878SOL    HW197473  11.010  10.524   9.895
31878SOL    HW297474  10.926  10.641   9.847
31879SOL     OW97475   3.745  12.081   1.755
31879SOL    HW197476   3.788  12.160   1.787
31879SOL    HW297477   3.787  12.062   1.671
31880SOL     OW97478  14.252   8.737   7.455
31880SOL    HW197479  14.219   8.707   7.539
31880SOL    HW297480  14.255   8.832   7.462
31881SOL     OW97481   0.076  13.012   3.625
31881SOL    HW197482  14.867  13.001   3.660
31881SOL    HW297483   0.079  13.103   3.594
31882SOL     OW97484   7.812  10.212   7.909
31882SOL    HW197485   7.790  10.229   7.817
31882SOL    HW297486   7.752  10.142   7.935
31883SOL     OW97487   7.296   5.497   3.685
31883SOL    HW197488   7.367   5.546   3.725
31883SOL    HW297489   7.249   5.561   3.631
31884SOL     OW97490   7.013   6.855  12.138
31884SOL    HW197491   7.088   6.847  12.196
31884SOL    HW297492   6.944   6.892  12.193
31885SOL     OW97493   1.194  11.141  12.732
31885SOL    HW197494   1.127  11.106  12.673
31885SOL    HW297495   1.266  11.078  12.725
31886SOL     OW97496   2.718  11.863  13.509
31886SOL    HW197497   2.708  11.900  13.597
31886SOL    HW297498   2.687  11.932  13.451
31887SOL     OW97499   2.982   9.763   9.018
31887SOL    HW197500   3.044   9.824   8.979
31887SOL    HW297501   2.970   9.795   9.107
31888SOL     OW97502   8.570  11.624   4.542
31888SOL    HW197503   8.544  11.547   4.490
31888SOL    HW297504   8.521  11.696   4.503
31889SOL     OW97505  11.586   0.561   2.027
31889SOL    HW197506  11.568   0.493   1.963
31889SOL    HW297507  11.501   0.579   2.068
31890SOL     OW97508   1.774   5.495   2.810
31890SOL    HW197509   1.754   5.409   2.848
31890SOL    HW297510   1.815   5.544   2.881
31891SOL     OW97511   3.103   6.623  11.118
31891SOL    HW197512   3.175   6.627  11.181
31891SOL    HW297513   3.104   6.709  11.075
31892SOL     OW97514   9.514   4.106   2.507
31892SOL    HW197515   9.425   4.121   2.539
31892SOL    HW297516   9.565   4.087   2.586
31893SOL     OW97517  14.333   5.564   8.708
31893SOL    HW197518  14.307   5.489   8.762
31893SOL    HW297519  14.281   5.637   8.741
31894SOL     OW97520   2.962   2.917   5.733
31894SOL    HW197521   2.933   2.986   5.673
31894SOL    HW297522   2.911   2.840   5.708
31895SOL     OW97523  12.631   1.461  13.109
31895SOL    HW197524  12.722   1.487  13.094
31895SOL    HW297525  12.591   1.539  13.147
31896SOL     OW97526   2.951   8.481   3.685
31896SOL    HW197527   3.005   8.560   3.692
31896SOL    HW297528   3.002   8.414   3.730
31897SOL     OW97529   8.496   7.769  12.738
31897SOL    HW197530   8.454   7.694  12.780
31897SOL    HW297531   8.512   7.831  12.809
31898SOL     OW97532   8.013   4.702  10.674
31898SOL    HW197533   7.946   4.765  10.700
31898SOL    HW297534   7.963   4.627  10.641
31899SOL     OW97535   3.598   1.501  14.488
31899SOL    HW197536   3.625   1.463  14.572
31899SOL    HW297537   3.588   1.595  14.506
31900SOL     OW97538  14.075  12.939   8.016
31900SOL    HW197539  14.157  12.926   8.063
31900SOL    HW297540  14.101  12.984   7.935
31901SOL     OW97541  13.500   0.233  11.658
31901SOL    HW197542  13.472   0.293  11.727
31901SOL    HW297543  13.425   0.174  11.646
31902SOL     OW97544   6.853   5.547  14.781
31902SOL    HW197545   6.773   5.507  14.748
31902SOL    HW297546   6.898   5.476  14.827
31903SOL     OW97547  13.333  12.686   2.749
31903SOL    HW197548  13.328  12.595   2.779
31903SOL    HW297549  13.247  12.702   2.709
31904SOL     OW97550   0.793   4.870  11.811
31904SOL    HW197551   0.860   4.818  11.767
31904SOL    HW297552   0.711   4.822  11.794
31905SOL     OW97553   6.907   2.492   8.527
31905SOL    HW197554   6.901   2.433   8.452
31905SOL    HW297555   6.822   2.485   8.571
31906SOL     OW97556   5.341   0.801   6.850
31906SOL    HW197557   5.425   0.766   6.879
31906SOL    HW297558   5.292   0.725   6.820
31907SOL     OW97559   0.535   3.195   8.905
31907SOL    HW197560   0.463   3.236   8.857
31907SOL    HW297561   0.515   3.213   8.997
31908SOL     OW97562  13.002   3.125  14.797
31908SOL    HW197563  13.083   3.092  14.757
31908SOL    HW297564  13.024   3.134   0.011
31909SOL     OW97565  14.702   0.223   9.242
31909SOL    HW197566  14.624   0.216   9.187
31909SOL    HW297567  14.669   0.215   9.332
31910SOL     OW97568   1.108   4.274   4.802
31910SOL    HW197569   1.109   4.271   4.707
31910SOL    HW297570   1.024   4.315   4.824
31911SOL     OW97571  12.808   9.272  13.827
31911SOL    HW197572  12.787   9.203  13.890
31911SOL    HW297573  12.898   9.253  13.800
31912SOL     OW97574  14.235   2.304   6.915
31912SOL    HW197575  14.220   2.225   6.863
31912SOL    HW297576  14.323   2.294   6.950
31913SOL     OW97577   6.770  12.339   3.108
31913SOL    HW197578   6.692  12.388   3.134
31913SOL    HW297579   6.751  12.248   3.132
31914SOL     OW97580   7.073   9.643  12.907
31914SOL    HW197581   7.107   9.587  12.976
31914SOL    HW297582   7.067   9.585  12.830
31915SOL     OW97583   0.199   7.802   8.320
31915SOL    HW197584   0.279   7.853   8.326
31915SOL    HW297585   0.142   7.838   8.388
31916SOL     OW97586  11.457   9.890  13.511
31916SOL    HW197587  11.528   9.831  13.489
31916SOL    HW297588  11.458   9.956  13.441
31917SOL     OW97589   3.365   4.459   6.972
31917SOL    HW197590   3.356   4.368   7.000
31917SOL    HW297591   3.457   4.468   6.948
31918SOL     OW97592  12.650   1.202   2.605
31918SOL    HW197593  12.700   1.279   2.633
31918SOL    HW297594  12.676   1.133   2.665
31919SOL     OW97595   0.783   3.860  14.471
31919SOL    HW197596   0.840   3.860  14.394
31919SOL    HW297597   0.707   3.808  14.445
31920SOL     OW97598  11.669  14.016  10.903
31920SOL    HW197599  11.576  14.039  10.907
31920SOL    HW297600  11.704  14.072  10.834
31921SOL     OW97601  12.522   9.954   6.416
31921SOL    HW197602  12.555   9.943   6.327
31921SOL    HW297603  12.600   9.960   6.471
31922SOL     OW97604  13.052   1.595   1.141
31922SOL    HW197605  13.075   1.516   1.189
31922SOL    HW297606  13.042   1.662   1.208
31923SOL     OW97607   7.874   2.241  10.511
31923SOL    HW197608   7.946   2.277  10.563
31923SOL    HW297609   7.815   2.315  10.497
31924SOL     OW97610  14.405  10.826   2.909
31924SOL    HW197611  14.407  10.731   2.913
31924SOL    HW297612  14.496  10.853   2.924
31925SOL     OW97613  10.979   6.794   8.049
31925SOL    HW197614  11.018   6.846   7.979
31925SOL    HW297615  10.975   6.853   8.124
31926SOL     OW97616   4.574   7.158  12.443
31926SOL    HW197617   4.599   7.072  12.476
31926SOL    HW297618   4.478   7.156  12.443
31927SOL     OW97619   7.274   7.371   9.614
31927SOL    HW197620   7.288   7.352   9.521
31927SOL    HW297621   7.179   7.369   9.625
31928SOL     OW97622   2.989   6.499   7.602
31928SOL    HW197623   3.043   6.421   7.593
31928SOL    HW297624   2.899   6.467   7.596
31929SOL     OW97625  10.845  11.613   1.788
31929SOL    HW197626  10.872  11.681   1.727
31929SOL    HW297627  10.757  11.638   1.815
31930SOL     OW97628  14.512   1.030   1.472
31930SOL    HW197629  14.555   1.109   1.505
31930SOL    HW297630  14.576   0.989   1.415
31931SOL     OW97631  11.309   1.914   9.135
31931SOL    HW197632  11.241   1.948   9.076
31931SOL    HW297633  11.380   1.886   9.077
31932SOL     OW97634  12.076  13.962   5.638
31932SOL    HW197635  11.983  13.941   5.639
31932SOL    HW297636  12.115  13.897   5.697
31933SOL     OW97637   0.149   1.088  14.306
31933SOL    HW197638   0.233   1.049  14.282
31933SOL    HW297639   0.170   1.154  14.372
31934SOL     OW97640   4.833  12.219   2.808
31934SOL    HW197641   4.858  12.126   2.809
31934SOL    HW297642   4.792  12.232   2.722
31935SOL     OW97643   5.417  10.196  13.168
31935SOL    HW197644   5.329  10.179  13.202
31935SOL    HW297645   5.402  10.227  13.079
31936SOL     OW97646  14.585  10.239  13.543
31936SOL    HW197647  14.615  10.166  13.488
31936SOL    HW297648  14.649  10.309  13.528
31937SOL     OW97649   5.577   0.777  11.429
31937SOL    HW197650   5.593   0.777  11.523
31937SOL    HW297651   5.634   0.846  11.395
31938SOL     OW97652  14.045   0.349  11.821
31938SOL    HW197653  14.033   0.320  11.912
31938SOL    HW297654  13.990   0.290  11.770
31939SOL     OW97655   7.576   0.751   2.252
31939SOL    HW197656   7.551   0.816   2.186
31939SOL    HW297657   7.568   0.667   2.207
31940SOL     OW97658   9.999  13.441  14.707
31940SOL    HW197659   9.966  13.519  14.664
31940SOL    HW297660  10.053  13.473  14.779
31941SOL     OW97661  13.486  11.012   3.969
31941SOL    HW197662  13.492  10.933   4.024
31941SOL    HW297663  13.459  10.979   3.883
31942SOL     OW97664   7.789   1.150   8.354
31942SOL    HW197665   7.761   1.110   8.271
31942SOL    HW297666   7.824   1.235   8.329
31943SOL     OW97667   1.219  11.588   3.794
31943SOL    HW197668   1.247  11.570   3.705
31943SOL    HW297669   1.143  11.644   3.785
31944SOL     OW97670  12.216  13.999   2.986
31944SOL    HW197671  12.221  14.038   3.074
31944SOL    HW297672  12.124  13.974   2.977
31945SOL     OW97673  12.547   1.856  14.070
31945SOL    HW197674  12.508   1.937  14.040
31945SOL    HW297675  12.473   1.797  14.083
31946SOL     OW97676  14.540   9.454  10.188
31946SOL    HW197677  14.514   9.543  10.212
31946SOL    HW297678  14.522   9.449  10.094
31947SOL     OW97679   9.216   1.878   3.323
31947SOL    HW197680   9.271   1.843   3.252
31947SOL    HW297681   9.278   1.920   3.382
31948SOL     OW97682   0.624   5.266  12.377
31948SOL    HW197683   0.582   5.302  12.300
31948SOL    HW297684   0.595   5.174  12.379
31949SOL     OW97685   8.555   3.476  11.623
31949SOL    HW197686   8.554   3.540  11.552
31949SOL    HW297687   8.569   3.392  11.580
31950SOL     OW97688   3.812   5.836   0.965
31950SOL    HW197689   3.886   5.790   0.925
31950SOL    HW297690   3.812   5.806   1.056
31951SOL     OW97691   8.918   0.696  12.824
31951SOL    HW197692   8.858   0.647  12.769
31951SOL    HW297693   8.958   0.629  12.881
31952SOL     OW97694   8.890  13.377  14.713
31952SOL    HW197695   8.863  13.297  14.667
31952SOL    HW297696   8.898  13.442  14.643
31953SOL     OW97697  13.736   4.626  11.513
31953SOL    HW197698  13.691   4.704  11.480
31953SOL    HW297699  13.746   4.642  11.607
31954SOL     OW97700   4.482  14.505   8.178
31954SOL    HW197701   4.424  14.474   8.108
31954SOL    HW297702   4.526  14.581   8.139
31955SOL     OW97703  11.661  14.704   3.920
31955SOL    HW197704  11.610  14.748   3.988
31955SOL    HW297705  11.607  14.629   3.894
31956SOL     OW97706   8.711  12.864   3.118
31956SOL    HW197707   8.641  12.927   3.100
31956SOL    HW297708   8.672  12.800   3.177
31957SOL     OW97709  11.329   9.536   0.063
31957SOL    HW197710  11.305   9.629   0.064
31957SOL    HW297711  11.254   9.493   0.023
31958SOL     OW97712  12.216   7.108  10.033
31958SOL    HW197713  12.162   7.174  10.077
31958SOL    HW297714  12.157   7.034  10.020
31959SOL     OW97715   9.179   8.523  10.754
31959SOL    HW197716   9.252   8.464  10.735
31959SOL    HW297717   9.104   8.464  10.769
31960SOL     OW97718  13.576   7.751   0.123
31960SOL    HW197719  13.536   7.667   0.144
31960SOL    HW297720  13.586   7.750   0.027
31961SOL     OW97721  12.603   1.081  10.090
31961SOL    HW197722  12.544   1.146  10.052
31961SOL    HW297723  12.689   1.123  10.089
31962SOL     OW97724   6.168   0.018   4.549
31962SOL    HW197725   6.234  14.831   4.568
31962SOL    HW297726   6.156   0.014   4.454
31963SOL     OW97727   6.939  14.787  13.583
31963SOL    HW197728   6.888  14.838  13.520
31963SOL    HW297729   6.906  14.698  13.574
31964SOL     OW97730   8.113  13.652   5.816
31964SOL    HW197731   8.127  13.702   5.897
31964SOL    HW297732   8.148  13.565   5.836
31965SOL     OW97733  12.207   8.918  13.561
31965SOL    HW197734  12.287   8.937  13.512
31965SOL    HW297735  12.236   8.873  13.640
31966SOL     OW97736  13.362   5.978   7.612
31966SOL    HW197737  13.419   6.051   7.634
31966SOL    HW297738  13.343   5.988   7.519
31967SOL     OW97739   2.690   1.508  14.241
31967SOL    HW197740   2.762   1.523  14.180
31967SOL    HW297741   2.611   1.516  14.187
31968SOL     OW97742   0.577  11.576  11.972
31968SOL    HW197743   0.659  11.609  11.934
31968SOL    HW297744   0.508  11.618  11.921
31969SOL     OW97745   5.476   1.057  11.329
31969SOL    HW197746   5.453   0.998  11.401
31969SOL    HW297747   5.489   1.000  11.254
31970SOL     OW97748   3.182   5.913  12.232
31970SOL    HW197749   3.199   5.998  12.273
31970SOL    HW297750   3.154   5.935  12.143
31971SOL     OW97751  12.089   2.377   1.587
31971SOL    HW197752  12.044   2.450   1.630
31971SOL    HW297753  12.063   2.300   1.638
31972SOL     OW97754  14.825  12.242  11.857
31972SOL    HW197755  14.865  12.295  11.789
31972SOL    HW297756   0.019  12.199  11.901
31973SOL     OW97757   0.476   2.556   3.245
31973SOL    HW197758   0.384   2.554   3.217
31973SOL    HW297759   0.524   2.586   3.168
31974SOL     OW97760   1.436   1.351   5.760
31974SOL    HW197761   1.514   1.303   5.788
31974SOL    HW297762   1.442   1.354   5.665
31975SOL     OW97763   8.780   1.333   6.635
31975SOL    HW197764   8.807   1.343   6.726
31975SOL    HW297765   8.704   1.275   6.639
31976SOL     OW97766  14.056  14.451   2.966
31976SOL    HW197767  14.042  14.474   2.874
31976SOL    HW297768  14.089  14.531   3.006
31977SOL     OW97769  13.921  13.106   0.581
31977SOL    HW197770  13.860  13.158   0.633
31977SOL    HW297771  13.870  13.028   0.556
31978SOL     OW97772  12.487   5.018   3.949
31978SOL    HW197773  12.500   5.010   4.043
31978SOL    HW297774  12.574   5.010   3.912
31979SOL     OW97775   0.590  11.526   8.528
31979SOL    HW197776   0.552  11.577   8.457
31979SOL    HW297777   0.671  11.490   8.492
31980SOL     OW97778   4.515  11.358  10.518
31980SOL    HW197779   4.468  11.334  10.598
31980SOL    HW297780   4.458  11.423  10.476
31981SOL     OW97781   0.175  11.195  13.491
31981SOL    HW197782   0.221  11.146  13.559
31981SOL    HW297783   0.227  11.275  13.480
31982SOL     OW97784  14.345  14.199  13.583
31982SOL    HW197785  14.330  14.172  13.492
31982SOL    HW297786  14.259  14.231  13.613
31983SOL     OW97787   1.202   3.721  13.594
31983SOL    HW197788   1.160   3.644  13.631
31983SOL    HW297789   1.289   3.690  13.567
31984SOL     OW97790   1.539   9.868   0.915
31984SOL    HW197791   1.554   9.790   0.969
31984SOL    HW297792   1.474   9.919   0.965
31985SOL     OW97793  12.376   9.938  11.009
31985SOL    HW197794  12.353   9.995  11.082
31985SOL    HW297795  12.321   9.861  11.020
31986SOL     OW97796   8.433  12.972  12.820
31986SOL    HW197797   8.511  12.924  12.792
31986SOL    HW297798   8.369  12.904  12.843
31987SOL     OW97799   5.720   7.169   9.719
31987SOL    HW197800   5.626   7.153   9.717
31987SOL    HW297801   5.728   7.259   9.749
31988SOL     OW97802   9.440   2.972   5.251
31988SOL    HW197803   9.357   2.984   5.296
31988SOL    HW297804   9.417   2.937   5.165
31989SOL     OW97805   4.450  11.684   1.215
31989SOL    HW197806   4.512  11.705   1.144
31989SOL    HW297807   4.412  11.769   1.239
31990SOL     OW97808  13.488   5.591   0.563
31990SOL    HW197809  13.546   5.554   0.496
31990SOL    HW297810  13.404   5.549   0.548
31991SOL     OW97811   5.367   9.497   8.783
31991SOL    HW197812   5.358   9.423   8.722
31991SOL    HW297813   5.292   9.554   8.763
31992SOL     OW97814  12.704   9.654   6.224
31992SOL    HW197815  12.718   9.747   6.205
31992SOL    HW297816  12.754   9.638   6.304
31993SOL     OW97817   3.707   4.801   0.279
31993SOL    HW197818   3.734   4.720   0.322
31993SOL    HW297819   3.642   4.839   0.338
31994SOL     OW97820   4.426   2.608  10.741
31994SOL    HW197821   4.383   2.563  10.814
31994SOL    HW297822   4.476   2.678  10.782
31995SOL     OW97823  13.486  12.800   4.899
31995SOL    HW197824  13.493  12.892   4.924
31995SOL    HW297825  13.409  12.768   4.946
31996SOL     OW97826   2.405   2.100  13.297
31996SOL    HW197827   2.369   2.061  13.377
31996SOL    HW297828   2.376   2.192  13.300
31997SOL     OW97829   5.397   9.736   9.814
31997SOL    HW197830   5.332   9.799   9.845
31997SOL    HW297831   5.408   9.756   9.721
31998SOL     OW97832   5.125  10.919   5.517
31998SOL    HW197833   5.098  10.827   5.510
31998SOL    HW297834   5.200  10.926   5.458
31999SOL     OW97835   8.724   7.613   2.113
31999SOL    HW197836   8.724   7.598   2.018
31999SOL    HW297837   8.660   7.551   2.147
32000SOL     OW97838   8.552   7.141   7.042
32000SOL    HW197839   8.634   7.107   7.077
32000SOL    HW297840   8.502   7.063   7.015
32001SOL     OW97841   6.219   1.515   9.129
32001SOL    HW197842   6.193   1.605   9.150
32001SOL    HW297843   6.165   1.460   9.185
32002SOL     OW97844  11.713   3.125   1.550
32002SOL    HW197845  11.800   3.093   1.573
32002SOL    HW297846  11.710   3.122   1.454
32003SOL     OW97847   7.251   7.917  10.434
32003SOL    HW197848   7.245   7.877  10.347
32003SOL    HW297849   7.310   7.992  10.422
32004SOL     OW97850   9.863  11.104   4.718
32004SOL    HW197851   9.822  11.022   4.691
32004SOL    HW297852   9.816  11.172   4.669
32005SOL     OW97853   0.817   6.678   9.388
32005SOL    HW197854   0.754   6.746   9.413
32005SOL    HW297855   0.794   6.657   9.298
32006SOL     OW97856  10.507   5.947  13.188
32006SOL    HW197857  10.549   5.974  13.270
32006SOL    HW297858  10.481   5.856  13.204
32007SOL     OW97859  14.489   4.344   4.349
32007SOL    HW197860  14.437   4.408   4.301
32007SOL    HW297861  14.424   4.290   4.395
32008SOL     OW97862   1.016   2.481   5.080
32008SOL    HW197863   1.007   2.478   5.175
32008SOL    HW297864   1.093   2.428   5.061
32009SOL     OW97865   9.876   2.282   8.636
32009SOL    HW197866   9.918   2.198   8.655
32009SOL    HW297867   9.949   2.341   8.619
32010SOL     OW97868   5.950   6.084   2.399
32010SOL    HW197869   6.001   6.119   2.326
32010SOL    HW297870   5.874   6.141   2.404
32011SOL     OW97871   8.035   9.601   0.128
32011SOL    HW197872   8.112   9.570   0.175
32011SOL    HW297873   8.036   9.696   0.141
32012SOL     OW97874   4.259   0.828   7.802
32012SOL    HW197875   4.214   0.744   7.793
32012SOL    HW297876   4.254   0.848   7.895
32013SOL     OW97877  12.167   8.062   8.475
32013SOL    HW197878  12.170   8.133   8.411
32013SOL    HW297879  12.153   8.106   8.558
32014SOL     OW97880  12.255   3.740  12.266
32014SOL    HW197881  12.277   3.833  12.275
32014SOL    HW297882  12.339   3.696  12.253
32015SOL     OW97883  13.416   1.097   9.232
32015SOL    HW197884  13.434   1.142   9.150
32015SOL    HW297885  13.431   1.164   9.299
32016SOL     OW97886   7.355   9.389  14.488
32016SOL    HW197887   7.316   9.470  14.521
32016SOL    HW297888   7.414   9.361  14.559
32017SOL     OW97889   9.645  12.105   6.186
32017SOL    HW197890   9.615  12.193   6.162
32017SOL    HW297891   9.705  12.080   6.116
32018SOL     OW97892   5.540  11.910  14.421
32018SOL    HW197893   5.486  11.962  14.362
32018SOL    HW297894   5.521  11.944  14.508
32019SOL     OW97895   1.278  14.024  14.811
32019SOL    HW197896   1.363  14.034  14.855
32019SOL    HW297897   1.238  13.947  14.852
32020SOL     OW97898  10.682   0.888  13.875
32020SOL    HW197899  10.697   0.802  13.914
32020SOL    HW297900  10.759   0.940  13.901
32021SOL     OW97901  13.777   1.061   1.622
32021SOL    HW197902  13.687   1.087   1.642
32021SOL    HW297903  13.827   1.143   1.629
32022SOL     OW97904  12.504  10.927   1.333
32022SOL    HW197905  12.481  10.979   1.411
32022SOL    HW297906  12.423  10.882   1.310
32023SOL     OW97907   0.378   8.747   8.482
32023SOL    HW197908   0.303   8.782   8.434
32023SOL    HW297909   0.451   8.754   8.420
32024SOL     OW97910   9.566   5.015   3.268
32024SOL    HW197911   9.524   4.974   3.192
32024SOL    HW297912   9.620   5.084   3.230
32025SOL     OW97913   3.448   7.527  13.451
32025SOL    HW197914   3.409   7.562  13.371
32025SOL    HW297915   3.416   7.437  13.457
32026SOL     OW97916  11.565   4.092   3.604
32026SOL    HW197917  11.482   4.137   3.591
32026SOL    HW297918  11.544   3.999   3.590
32027SOL     OW97919   0.765  10.951  11.811
32027SOL    HW197920   0.757  10.981  11.902
32027SOL    HW297921   0.774  10.856  11.818
32028SOL     OW97922  13.588   9.511   2.511
32028SOL    HW197923  13.635   9.584   2.551
32028SOL    HW297924  13.553   9.462   2.585
32029SOL     OW97925   0.953   5.725   7.045
32029SOL    HW197926   0.976   5.657   7.108
32029SOL    HW297927   0.928   5.800   7.098
32030SOL     OW97928   4.494   9.142  11.732
32030SOL    HW197929   4.496   9.047  11.727
32030SOL    HW297930   4.479   9.160  11.825
32031SOL     OW97931   9.962  14.726   0.012
32031SOL    HW197932   9.994  14.751  14.805
32031SOL    HW297933   9.870  14.707  14.878
32032SOL     OW97934  14.132   6.892   0.386
32032SOL    HW197935  14.165   6.816   0.338
32032SOL    HW297936  14.079   6.855   0.457
32033SOL     OW97937  11.335   1.194  13.184
32033SOL    HW197938  11.400   1.181  13.114
32033SOL    HW297939  11.288   1.111  13.188
32034SOL     OW97940   1.056   2.499  11.628
32034SOL    HW197941   1.114   2.573  11.646
32034SOL    HW297942   1.051   2.496  11.532
32035SOL     OW97943   1.618   1.212   8.683
32035SOL    HW197944   1.700   1.222   8.635
32035SOL    HW297945   1.568   1.292   8.663
32036SOL     OW97946  10.196  13.438   1.806
32036SOL    HW197947  10.196  13.392   1.722
32036SOL    HW297948  10.274  13.493   1.803
32037SOL     OW97949  12.355   1.686   7.541
32037SOL    HW197950  12.282   1.747   7.534
32037SOL    HW297951  12.394   1.685   7.454
32038SOL     OW97952   1.523   6.454  11.610
32038SOL    HW197953   1.445   6.424  11.658
32038SOL    HW297954   1.563   6.373  11.577
32039SOL     OW97955   8.919  11.059  11.819
32039SOL    HW197956   8.963  11.024  11.741
32039SOL    HW297957   8.905  10.983  11.875
32040SOL     OW97958   8.357  14.855  13.483
32040SOL    HW197959   8.440  14.821  13.516
32040SOL    HW297960   8.334   0.047  13.543
32041SOL     OW97961   1.513  14.088   0.778
32041SOL    HW197962   1.528  14.015   0.838
32041SOL    HW297963   1.425  14.119   0.800
32042SOL     OW97964   7.180   8.002  13.484
32042SOL    HW197965   7.152   8.064  13.417
32042SOL    HW297966   7.169   8.049  13.567
32043SOL     OW97967   0.334  13.310  11.528
32043SOL    HW197968   0.265  13.324  11.593
32043SOL    HW297969   0.376  13.395  11.519
32044SOL     OW97970   1.982   1.147   8.520
32044SOL    HW197971   1.919   1.080   8.493
32044SOL    HW297972   1.954   1.226   8.473
32045SOL     OW97973  12.383   7.054   4.905
32045SOL    HW197974  12.363   6.970   4.864
32045SOL    HW297975  12.377   7.117   4.833
32046SOL     OW97976   8.338   8.251   7.184
32046SOL    HW197977   8.411   8.313   7.193
32046SOL    HW297978   8.379   8.166   7.170
32047SOL     OW97979   9.095   3.261   4.758
32047SOL    HW197980   9.079   3.344   4.803
32047SOL    HW297981   9.159   3.282   4.690
32048SOL     OW97982   9.018   6.382  14.449
32048SOL    HW197983   9.009   6.477  14.435
32048SOL    HW297984   8.928   6.352  14.464
32049SOL     OW97985  10.615   1.385  11.079
32049SOL    HW197986  10.578   1.297  11.089
32049SOL    HW297987  10.567   1.438  11.143
32050SOL     OW97988   7.511  12.223   7.388
32050SOL    HW197989   7.539  12.220   7.296
32050SOL    HW297990   7.560  12.152   7.430
32051SOL     OW97991  10.837  10.777   8.635
32051SOL    HW197992  10.824  10.854   8.579
32051SOL    HW297993  10.933  10.767   8.640
32052SOL     OW97994  14.394  10.100   1.376
32052SOL    HW197995  14.348  10.131   1.454
32052SOL    HW297996  14.480  10.073   1.408
32053SOL     OW97997   7.209  12.985   9.954
32053SOL    HW197998   7.181  13.074   9.972
32053SOL    HW297999   7.276  12.993   9.886
32054SOL     OW98000  14.516  12.259   2.411
32054SOL    HW198001  14.535  12.173   2.375
32054SOL    HW298002  14.421  12.270   2.401
32055SOL     OW98003   9.082   0.047  11.293
32055SOL    HW198004   9.165   0.093  11.301
32055SOL    HW298005   9.072   0.029  11.200
32056SOL     OW98006  12.259   6.320   0.548
32056SOL    HW198007  12.192   6.372   0.502
32056SOL    HW298008  12.250   6.345   0.640
32057SOL     OW98009   9.917   0.527   4.342
32057SOL    HW198010   9.822   0.524   4.330
32057SOL    HW298011   9.928   0.556   4.433
32058SOL     OW98012   0.363  12.847   2.047
32058SOL    HW198013   0.394  12.933   2.018
32058SOL    HW298014   0.373  12.791   1.970
32059SOL     OW98015   7.666  11.161   9.552
32059SOL    HW198016   7.571  11.150   9.551
32059SOL    HW298017   7.680  11.251   9.525
32060SOL     OW98018  10.883   8.226  14.293
32060SOL    HW198019  10.836   8.263  14.219
32060SOL    HW298020  10.973   8.257  14.282
32061SOL     OW98021   6.965   0.155   3.918
32061SOL    HW198022   7.060   0.142   3.910
32061SOL    HW298023   6.953   0.180   4.010
32062SOL     OW98024  10.231   4.828   0.355
32062SOL    HW198025  10.252   4.906   0.304
32062SOL    HW298026  10.314   4.783   0.366
32063SOL     OW98027  11.481  13.221  14.544
32063SOL    HW198028  11.392  13.245  14.518
32063SOL    HW298029  11.505  13.287  14.609
32064SOL     OW98030   3.178  13.657   8.591
32064SOL    HW198031   3.162  13.664   8.685
32064SOL    HW298032   3.211  13.743   8.566
32065SOL     OW98033   4.334   6.534  13.849
32065SOL    HW198034   4.359   6.519  13.758
32065SOL    HW298035   4.257   6.591  13.844
32066SOL     OW98036  13.525   6.200   3.946
32066SOL    HW198037  13.478   6.143   3.885
32066SOL    HW298038  13.457   6.232   4.005
32067SOL     OW98039  14.556  14.182   0.712
32067SOL    HW198040  14.569  14.160   0.620
32067SOL    HW298041  14.485  14.246   0.711
32068SOL     OW98042   2.058  12.849   5.734
32068SOL    HW198043   2.041  12.776   5.793
32068SOL    HW298044   2.016  12.924   5.775
32069SOL     OW98045   8.751  11.055   7.778
32069SOL    HW198046   8.832  11.056   7.828
32069SOL    HW298047   8.779  11.059   7.686
32070SOL     OW98048   2.808   6.975   2.456
32070SOL    HW198049   2.846   7.018   2.379
32070SOL    HW298050   2.775   6.892   2.423
32071SOL     OW98051  12.383  10.912  14.106
32071SOL    HW198052  12.341  10.859  14.173
32071SOL    HW298053  12.317  10.976  14.081
32072SOL     OW98054  11.862   7.524  13.715
32072SOL    HW198055  11.904   7.608  13.729
32072SOL    HW298056  11.846   7.521  13.620
32073SOL     OW98057   8.139  13.384   1.253
32073SOL    HW198058   8.134  13.303   1.304
32073SOL    HW298059   8.167  13.450   1.316
32074SOL     OW98060   2.709   1.445  11.123
32074SOL    HW198061   2.636   1.478  11.069
32074SOL    HW298062   2.686   1.471  11.212
32075SOL     OW98063   2.510  13.468   2.288
32075SOL    HW198064   2.519  13.381   2.326
32075SOL    HW298065   2.493  13.452   2.195
32076SOL     OW98066   9.640   4.504  13.667
32076SOL    HW198067   9.553   4.538  13.648
32076SOL    HW298068   9.684   4.504  13.582
32077SOL     OW98069  12.349   2.405  13.531
32077SOL    HW198070  12.335   2.458  13.610
32077SOL    HW298071  12.261   2.389  13.497
32078SOL     OW98072  13.297   3.324   2.790
32078SOL    HW198073  13.376   3.321   2.842
32078SOL    HW298074  13.247   3.247   2.816
32079SOL     OW98075  13.053   5.054  11.312
32079SOL    HW198076  13.062   5.127  11.251
32079SOL    HW298077  13.127   4.996  11.292
32080SOL     OW98078  13.136   5.767   0.344
32080SOL    HW198079  13.183   5.840   0.385
32080SOL    HW298080  13.203   5.722   0.293
32081SOL     OW98081  14.022   0.184   3.825
32081SOL    HW198082  13.970   0.143   3.756
32081SOL    HW298083  14.111   0.150   3.811
32082SOL     OW98084   3.548   1.755   2.853
32082SOL    HW198085   3.599   1.807   2.792
32082SOL    HW298086   3.605   1.743   2.929
32083SOL     OW98087  11.795   1.169  11.695
32083SOL    HW198088  11.820   1.087  11.653
32083SOL    HW298089  11.747   1.141  11.774
32084SOL     OW98090   5.847   7.326  10.410
32084SOL    HW198091   5.901   7.294  10.337
32084SOL    HW298092   5.867   7.266  10.482
32085SOL     OW98093  10.112   5.111   5.212
32085SOL    HW198094  10.088   5.037   5.155
32085SOL    HW298095  10.201   5.134   5.185
32086SOL     OW98096   7.433   9.825  13.407
32086SOL    HW198097   7.342   9.799  13.397
32086SOL    HW298098   7.445   9.893  13.341
32087SOL     OW98099  11.093   3.957   6.236
32087SOL    HW198100  11.031   4.027   6.256
32087SOL    HW298101  11.058   3.881   6.282
32088SOL     OW98102  13.562  13.095   2.633
32088SOL    HW198103  13.630  13.143   2.682
32088SOL    HW298104  13.577  13.003   2.655
32089SOL     OW98105   7.718   8.537  13.978
32089SOL    HW198106   7.700   8.588  13.898
32089SOL    HW298107   7.682   8.590  14.049
32090SOL     OW98108   4.435  11.415   9.296
32090SOL    HW198109   4.476  11.387   9.377
32090SOL    HW298110   4.476  11.499   9.276
32091SOL     OW98111   0.581   4.404   7.166
32091SOL    HW198112   0.578   4.326   7.221
32091SOL    HW298113   0.513   4.389   7.101
32092SOL     OW98114  11.776   8.184   1.515
32092SOL    HW198115  11.734   8.269   1.505
32092SOL    HW298116  11.843   8.182   1.446
32093SOL     OW98117   9.047  11.806  14.385
32093SOL    HW198118   9.054  11.721  14.343
32093SOL    HW298119   9.000  11.789  14.467
32094SOL     OW98120  14.192  12.938  11.982
32094SOL    HW198121  14.236  13.023  11.985
32094SOL    HW298122  14.100  12.958  11.995
32095SOL     OW98123   8.380   6.125   3.944
32095SOL    HW198124   8.368   6.044   3.992
32095SOL    HW298125   8.433   6.180   4.002
32096SOL     OW98126  13.792   3.272  13.895
32096SOL    HW198127  13.851   3.198  13.879
32096SOL    HW298128  13.838   3.326  13.959
32097SOL     OW98129  14.651   7.186   8.271
32097SOL    HW198130  14.627   7.206   8.181
32097SOL    HW298131  14.723   7.246   8.291
32098SOL     OW98132   6.799   8.367   0.126
32098SOL    HW198133   6.711   8.405   0.118
32098SOL    HW298134   6.787   8.294   0.187
32099SOL     OW98135   9.197   8.043   8.229
32099SOL    HW198136   9.115   8.087   8.251
32099SOL    HW298137   9.174   7.986   8.155
32100SOL     OW98138   6.841   2.603   9.026
32100SOL    HW198139   6.866   2.666   8.960
32100SOL    HW298140   6.793   2.654   9.092
32101SOL     OW98141   6.509   8.640   7.061
32101SOL    HW198142   6.540   8.663   6.974
32101SOL    HW298143   6.459   8.717   7.089
32102SOL     OW98144   7.610   4.394  11.528
32102SOL    HW198145   7.680   4.425  11.585
32102SOL    HW298146   7.637   4.306  11.503
32103SOL     OW98147   3.629   1.545  11.442
32103SOL    HW198148   3.580   1.620  11.409
32103SOL    HW298149   3.565   1.493  11.491
32104SOL     OW98150   1.425  10.060   1.577
32104SOL    HW198151   1.387   9.988   1.628
32104SOL    HW298152   1.358  10.128   1.579
32105SOL     OW98153   2.681  13.961   7.672
32105SOL    HW198154   2.673  14.054   7.694
32105SOL    HW298155   2.592  13.927   7.678
32106SOL     OW98156   0.101   3.525   4.537
32106SOL    HW198157   0.043   3.449   4.534
32106SOL    HW298158   0.138   3.525   4.625
32107SOL     OW98159  14.534  13.797  12.952
32107SOL    HW198160  14.507  13.725  12.896
32107SOL    HW298161  14.589  13.757  13.019
32108SOL     OW98162   3.197  10.420   2.976
32108SOL    HW198163   3.158  10.500   3.012
32108SOL    HW298164   3.160  10.350   3.028
32109SOL     OW98165  13.228   7.161   4.279
32109SOL    HW198166  13.320   7.140   4.293
32109SOL    HW298167  13.228   7.251   4.247
32110SOL     OW98168   8.598  14.268   6.758
32110SOL    HW198169   8.570  14.179   6.740
32110SOL    HW298170   8.671  14.283   6.699
32111SOL     OW98171   7.303   2.509   1.984
32111SOL    HW198172   7.353   2.573   1.932
32111SOL    HW298173   7.327   2.424   1.947
32112SOL     OW98174  11.217   8.747   1.333
32112SOL    HW198175  11.143   8.688   1.346
32112SOL    HW298176  11.193   8.828   1.378
32113SOL     OW98177  14.315   0.135   3.729
32113SOL    HW198178  14.329   0.120   3.636
32113SOL    HW298179  14.374   0.208   3.750
32114SOL     OW98180   3.375  13.998  14.090
32114SOL    HW198181   3.344  14.063  14.153
32114SOL    HW298182   3.469  13.990  14.107
32115SOL     OW98183  11.039  12.352   1.289
32115SOL    HW198184  11.069  12.315   1.206
32115SOL    HW298185  11.077  12.439   1.293
32116SOL     OW98186   5.290  12.912  14.203
32116SOL    HW198187   5.253  12.909  14.114
32116SOL    HW298188   5.308  12.821  14.225
32117SOL     OW98189  11.454  10.422   2.542
32117SOL    HW198190  11.456  10.327   2.528
32117SOL    HW298191  11.546  10.447   2.549
32118SOL     OW98192  13.040   8.626   1.800
32118SOL    HW198193  13.067   8.544   1.842
32118SOL    HW298194  13.101   8.636   1.727
32119SOL     OW98195  14.200  10.517  14.558
32119SOL    HW198196  14.248  10.471  14.489
32119SOL    HW298197  14.127  10.459  14.579
32120SOL     OW98198   4.903   8.656   4.596
32120SOL    HW198199   4.831   8.605   4.558
32120SOL    HW298200   4.888   8.745   4.563
32121SOL     OW98201   3.808  11.546   5.123
32121SOL    HW198202   3.789  11.486   5.195
32121SOL    HW298203   3.785  11.632   5.158
32122SOL     OW98204   1.517   9.990   3.213
32122SOL    HW198205   1.498  10.030   3.297
32122SOL    HW298206   1.518   9.896   3.231
32123SOL     OW98207  12.656  11.020  13.923
32123SOL    HW198208  12.586  11.030  13.859
32123SOL    HW298209  12.735  11.049  13.877
32124SOL     OW98210   3.840  12.419   3.040
32124SOL    HW198211   3.758  12.398   2.995
32124SOL    HW298212   3.889  12.337   3.040
32125SOL     OW98213   1.635  13.629  11.895
32125SOL    HW198214   1.543  13.653  11.882
32125SOL    HW298215   1.633  13.537  11.919
32126SOL     OW98216   4.138   0.603   2.566
32126SOL    HW198217   4.206   0.560   2.619
32126SOL    HW298218   4.166   0.588   2.476
32127SOL     OW98219   1.614   0.233   2.820
32127SOL    HW198220   1.568   0.238   2.736
32127SOL    HW298221   1.695   0.282   2.806
32128SOL     OW98222   1.311   6.903   2.617
32128SOL    HW198223   1.286   6.911   2.525
32128SOL    HW298224   1.274   6.981   2.659
32129SOL     OW98225   2.539  10.835  10.681
32129SOL    HW198226   2.527  10.795  10.595
32129SOL    HW298227   2.476  10.907  10.683
32130SOL     OW98228   7.768   8.232  13.208
32130SOL    HW198229   7.696   8.195  13.156
32130SOL    HW298230   7.752   8.200  13.297
32131SOL     OW98231   0.590   5.731   8.802
32131SOL    HW198232   0.571   5.737   8.896
32131SOL    HW298233   0.605   5.822   8.776
32132SOL     OW98234  11.278   1.671   1.122
32132SOL    HW198235  11.298   1.592   1.072
32132SOL    HW298236  11.264   1.739   1.056
32133SOL     OW98237   0.006  12.961   7.435
32133SOL    HW198238   0.013  12.950   7.530
32133SOL    HW298239   0.092  12.936   7.402
32134SOL     OW98240   0.229   8.951   9.460
32134SOL    HW198241   0.235   8.879   9.398
32134SOL    HW298242   0.244   8.910   9.546
32135SOL     OW98243  11.405   9.673  11.704
32135SOL    HW198244  11.353   9.718  11.636
32135SOL    HW298245  11.363   9.698  11.786
32136SOL     OW98246  11.485   5.482   5.877
32136SOL    HW198247  11.499   5.392   5.908
32136SOL    HW298248  11.511   5.480   5.785
32137SOL     OW98249  13.660   8.770  11.615
32137SOL    HW198250  13.590   8.705  11.607
32137SOL    HW298251  13.616   8.855  11.611
32138SOL     OW98252   2.720  14.269  10.977
32138SOL    HW198253   2.636  14.278  10.932
32138SOL    HW298254   2.704  14.202  11.044
32139SOL     OW98255   1.686   1.518   2.556
32139SOL    HW198256   1.674   1.443   2.498
32139SOL    HW298257   1.744   1.577   2.508
32140SOL     OW98258   4.636  13.367  12.636
32140SOL    HW198259   4.647  13.305  12.708
32140SOL    HW298260   4.555  13.414  12.655
32141SOL     OW98261  10.670   3.474  14.398
32141SOL    HW198262  10.580   3.493  14.371
32141SOL    HW298263  10.683   3.382  14.378
32142SOL     OW98264  13.003   8.886  13.936
32142SOL    HW198265  12.972   8.839  13.858
32142SOL    HW298266  13.082   8.839  13.962
32143SOL     OW98267   4.587   9.561  13.554
32143SOL    HW198268   4.615   9.469  13.554
32143SOL    HW298269   4.516   9.564  13.491
32144SOL     OW98270   7.879  10.306   9.970
32144SOL    HW198271   7.914  10.257  10.045
32144SOL    HW298272   7.791  10.271   9.957
32145SOL     OW98273  11.899   5.465  14.378
32145SOL    HW198274  11.814   5.507  14.365
32145SOL    HW298275  11.938   5.461  14.291
32146SOL     OW98276   7.084   6.473  12.135
32146SOL    HW198277   7.140   6.409  12.093
32146SOL    HW298278   7.124   6.558  12.114
32147SOL     OW98279  11.056   3.213   5.926
32147SOL    HW198280  11.035   3.191   5.835
32147SOL    HW298281  11.147   3.187   5.937
32148SOL     OW98282   8.303  10.328   9.422
32148SOL    HW198283   8.238  10.387   9.460
32148SOL    HW298284   8.320  10.363   9.335
32149SOL     OW98285   8.825   9.109  12.965
32149SOL    HW198286   8.897   9.103  12.902
32149SOL    HW298287   8.809   9.203  12.974
32150SOL     OW98288  13.753   7.220  12.002
32150SOL    HW198289  13.698   7.261  12.070
32150SOL    HW298290  13.756   7.128  12.026
32151SOL     OW98291  11.515   6.123   2.784
32151SOL    HW198292  11.474   6.072   2.713
32151SOL    HW298293  11.605   6.092   2.786
32152SOL     OW98294  13.948   0.206  12.047
32152SOL    HW198295  13.957   0.176  12.138
32152SOL    HW298296  13.967   0.129  11.994
32153SOL     OW98297   1.559  12.471  12.483
32153SOL    HW198298   1.600  12.504  12.563
32153SOL    HW298299   1.626  12.482  12.416
32154SOL     OW98300   3.805   0.327  12.857
32154SOL    HW198301   3.885   0.279  12.835
32154SOL    HW298302   3.836   0.404  12.904
32155SOL     OW98303   3.235  13.051   6.756
32155SOL    HW198304   3.246  12.980   6.692
32155SOL    HW298305   3.152  13.092   6.732
32156SOL     OW98306   0.712  13.234  11.686
32156SOL    HW198307   0.735  13.323  11.712
32156SOL    HW298308   0.794  13.185  11.693
32157SOL     OW98309  10.807   7.129  11.896
32157SOL    HW198310  10.830   7.211  11.940
32157SOL    HW298311  10.860   7.063  11.941
32158SOL     OW98312   4.874   4.396   1.362
32158SOL    HW198313   4.856   4.330   1.429
32158SOL    HW298314   4.932   4.351   1.300
32159SOL     OW98315   1.128   7.012  13.972
32159SOL    HW198316   1.180   7.090  13.950
32159SOL    HW298317   1.058   7.011  13.906
32160SOL     OW98318  10.153  12.791  13.346
32160SOL    HW198319  10.203  12.814  13.424
32160SOL    HW298320  10.157  12.869  13.291
32161SOL     OW98321   2.584  13.045   3.091
32161SOL    HW198322   2.560  13.102   3.019
32161SOL    HW298323   2.571  12.957   3.058
32162SOL     OW98324  12.196  14.547   1.014
32162SOL    HW198325  12.105  14.569   1.029
32162SOL    HW298326  12.245  14.602   1.076
32163SOL     OW98327   6.156   8.522   2.929
32163SOL    HW198328   6.209   8.481   2.998
32163SOL    HW298329   6.089   8.571   2.977
32164SOL     OW98330   7.807   9.227  13.306
32164SOL    HW198331   7.784   9.185  13.389
32164SOL    HW298332   7.887   9.275  13.324
32165SOL     OW98333   9.830   6.194   3.731
32165SOL    HW198334   9.901   6.230   3.783
32165SOL    HW298335   9.835   6.238   3.647
32166SOL     OW98336   7.430  12.601  13.680
32166SOL    HW198337   7.432  12.527  13.740
32166SOL    HW298338   7.350  12.649  13.702
32167SOL     OW98339   5.994   1.586   2.260
32167SOL    HW198340   5.974   1.548   2.346
32167SOL    HW298341   5.909   1.599   2.219
32168SOL     OW98342   0.685   4.519   2.611
32168SOL    HW198343   0.635   4.474   2.679
32168SOL    HW298344   0.774   4.485   2.620
32169SOL     OW98345   3.340   8.345   9.345
32169SOL    HW198346   3.337   8.308   9.434
32169SOL    HW298347   3.347   8.439   9.358
32170SOL     OW98348  10.980   6.385  13.392
32170SOL    HW198349  11.041   6.362  13.323
32170SOL    HW298350  10.932   6.461  13.358
32171SOL     OW98351   2.772  11.447   4.796
32171SOL    HW198352   2.812  11.433   4.882
32171SOL    HW298353   2.815  11.526   4.762
32172SOL     OW98354  11.851   9.767   6.155
32172SOL    HW198355  11.912   9.782   6.228
32172SOL    HW298356  11.774   9.819   6.177
32173SOL     OW98357  14.006   4.510   3.873
32173SOL    HW198358  14.095   4.489   3.847
32173SOL    HW298359  13.969   4.556   3.798
32174SOL     OW98360   7.662   6.286  10.474
32174SOL    HW198361   7.652   6.248  10.562
32174SOL    HW298362   7.573   6.315  10.451
32175SOL     OW98363   2.023   5.414  14.545
32175SOL    HW198364   1.974   5.403  14.464
32175SOL    HW298365   2.071   5.332  14.556
32176SOL     OW98366   6.038   8.423   3.807
32176SOL    HW198367   6.041   8.513   3.841
32176SOL    HW298368   6.048   8.433   3.712
32177SOL     OW98369   1.849  12.213   1.166
32177SOL    HW198370   1.873  12.301   1.137
32177SOL    HW298371   1.779  12.227   1.230
32178SOL     OW98372  10.842  14.187   2.400
32178SOL    HW198373  10.922  14.136   2.386
32178SOL    HW298374  10.861  14.272   2.361
32179SOL     OW98375  14.037   5.473  13.241
32179SOL    HW198376  14.082   5.467  13.325
32179SOL    HW298377  13.953   5.430  13.256
32180SOL     OW98378   4.289  12.261   3.114
32180SOL    HW198379   4.380  12.269   3.142
32180SOL    HW298380   4.262  12.175   3.146
32181SOL     OW98381   7.176   6.827   1.515
32181SOL    HW198382   7.162   6.856   1.605
32181SOL    HW298383   7.232   6.750   1.523
32182SOL     OW98384  10.090  13.347   2.785
32182SOL    HW198385  10.097  13.319   2.694
32182SOL    HW298386  10.066  13.440   2.780
32183SOL     OW98387  14.382  12.093  11.703
32183SOL    HW198388  14.391  12.089  11.798
32183SOL    HW298389  14.467  12.064  11.670
32184SOL     OW98390   3.096   1.875   1.674
32184SOL    HW198391   3.099   1.799   1.616
32184SOL    HW298392   3.137   1.845   1.755
32185SOL     OW98393   5.232  10.787  12.964
32185SOL    HW198394   5.191  10.700  12.959
32185SOL    HW298395   5.248  10.800  13.057
32186SOL     OW98396  12.317   2.524  10.750
32186SOL    HW198397  12.243   2.469  10.724
32186SOL    HW298398  12.378   2.519  10.677
32187SOL     OW98399   9.233   0.841   9.426
32187SOL    HW198400   9.216   0.929   9.391
32187SOL    HW298401   9.204   0.846   9.517
32188SOL     OW98402   7.366   6.487   7.262
32188SOL    HW198403   7.402   6.419   7.205
32188SOL    HW298404   7.404   6.468   7.348
32189SOL     OW98405  10.500   7.245  13.840
32189SOL    HW198406  10.572   7.269  13.782
32189SOL    HW298407  10.424   7.240  13.783
32190SOL     OW98408   3.976  10.314  10.276
32190SOL    HW198409   4.021  10.396  10.256
32190SOL    HW298410   3.907  10.340  10.337
32191SOL     OW98411  14.216  11.669   3.007
32191SOL    HW198412  14.310  11.682   2.994
32191SOL    HW298413  14.174  11.724   2.941
32192SOL     OW98414   5.225   3.842  14.407
32192SOL    HW198415   5.156   3.869  14.468
32192SOL    HW298416   5.206   3.750  14.387
32193SOL     OW98417  14.239   7.064  14.277
32193SOL    HW198418  14.208   7.154  14.268
32193SOL    HW298419  14.325   7.063  14.234
32194SOL     OW98420  11.577  10.860   9.210
32194SOL    HW198421  11.568  10.765   9.223
32194SOL    HW298422  11.530  10.898   9.284
32195SOL     OW98423   2.344  13.781  11.721
32195SOL    HW198424   2.267  13.779  11.664
32195SOL    HW298425   2.309  13.768  11.809
32196SOL     OW98426   6.158  10.230   2.565
32196SOL    HW198427   6.162  10.139   2.593
32196SOL    HW298428   6.079  10.265   2.608
32197SOL     OW98429   8.422  12.115   7.182
32197SOL    HW198430   8.484  12.165   7.128
32197SOL    HW298431   8.450  12.131   7.272
32198SOL     OW98432  10.057   8.592   1.572
32198SOL    HW198433   9.973   8.636   1.588
32198SOL    HW298434  10.121   8.646   1.618
32199SOL     OW98435   4.476   4.013  11.129
32199SOL    HW198436   4.551   4.061  11.094
32199SOL    HW298437   4.491   4.013  11.224
32200SOL     OW98438   7.912   6.768  11.884
32200SOL    HW198439   7.852   6.748  11.813
32200SOL    HW298440   7.974   6.831  11.846
32201SOL     OW98441   7.723   4.149  13.228
32201SOL    HW198442   7.702   4.076  13.169
32201SOL    HW298443   7.812   4.132  13.257
32202SOL     OW98444  12.709   9.616  14.048
32202SOL    HW198445  12.734   9.698  14.091
32202SOL    HW298446  12.788   9.586  14.005
32203SOL     OW98447   1.504   1.604   1.477
32203SOL    HW198448   1.545   1.653   1.549
32203SOL    HW298449   1.417   1.582   1.509
32204SOL     OW98450   7.861  10.994  12.482
32204SOL    HW198451   7.805  11.054  12.433
32204SOL    HW298452   7.800  10.926  12.513
32205SOL     OW98453   8.390   3.894   6.667
32205SOL    HW198454   8.310   3.865   6.710
32205SOL    HW298455   8.436   3.812   6.645
32206SOL     OW98456  14.604   0.774   4.201
32206SOL    HW198457  14.676   0.714   4.222
32206SOL    HW298458  14.646   0.844   4.151
32207SOL     OW98459   3.962   3.530   4.301
32207SOL    HW198460   3.958   3.446   4.255
32207SOL    HW298461   3.976   3.595   4.232
32208SOL     OW98462   8.701   3.272   1.561
32208SOL    HW198463   8.773   3.323   1.525
32208SOL    HW298464   8.631   3.281   1.496
32209SOL     OW98465   6.670  14.058  10.079
32209SOL    HW198466   6.649  14.056  10.172
32209SOL    HW298467   6.593  14.023  10.035
32210SOL     OW98468   4.157   1.409   6.506
32210SOL    HW198469   4.230   1.452   6.461
32210SOL    HW298470   4.192   1.323   6.530
32211SOL     OW98471  11.279  12.624  14.476
32211SOL    HW198472  11.325  12.705  14.454
32211SOL    HW298473  11.279  12.621  14.572
32212SOL     OW98474   7.450   9.540   8.770
32212SOL    HW198475   7.490   9.533   8.683
32212SOL    HW298476   7.359   9.566   8.753
32213SOL     OW98477  12.144   1.904   4.543
32213SOL    HW198478  12.126   1.982   4.491
32213SOL    HW298479  12.068   1.897   4.602
32214SOL     OW98480   4.393   4.510   2.075
32214SOL    HW198481   4.373   4.603   2.086
32214SOL    HW298482   4.444   4.506   1.994
32215SOL     OW98483  11.523   4.387   3.111
32215SOL    HW198484  11.558   4.457   3.056
32215SOL    HW298485  11.442   4.360   3.067
32216SOL     OW98486  10.453   8.088   8.051
32216SOL    HW198487  10.412   8.097   7.965
32216SOL    HW298488  10.547   8.085   8.032
32217SOL     OW98489  13.585  14.723   0.263
32217SOL    HW198490  13.575  14.768   0.180
32217SOL    HW298491  13.537  14.777   0.326
32218SOL     OW98492   3.771   1.696  12.104
32218SOL    HW198493   3.732   1.691  12.016
32218SOL    HW298494   3.702   1.665  12.162
32219SOL     OW98495  10.741   4.061  12.571
32219SOL    HW198496  10.684   4.094  12.502
32219SOL    HW298497  10.703   3.976  12.594
32220SOL     OW98498   6.468  11.974   4.785
32220SOL    HW198499   6.497  11.931   4.866
32220SOL    HW298500   6.376  11.949   4.776
32221SOL     OW98501  13.074   0.668  10.590
32221SOL    HW198502  13.032   0.749  10.562
32221SOL    HW298503  13.007   0.621  10.638
32222SOL     OW98504  12.750   8.178   1.031
32222SOL    HW198505  12.710   8.265   1.035
32222SOL    HW298506  12.840   8.191   1.063
32223SOL     OW98507  13.653   8.841   8.033
32223SOL    HW198508  13.716   8.853   7.962
32223SOL    HW298509  13.707   8.842   8.113
32224SOL     OW98510   8.659   4.116   0.548
32224SOL    HW198511   8.587   4.105   0.611
32224SOL    HW298512   8.682   4.027   0.523
32225SOL     OW98513   9.324   2.309   4.357
32225SOL    HW198514   9.302   2.393   4.396
32225SOL    HW298515   9.410   2.288   4.394
32226SOL     OW98516   2.127   3.388   0.935
32226SOL    HW198517   2.115   3.460   0.997
32226SOL    HW298518   2.096   3.423   0.851
32227SOL     OW98519   2.306   6.292  12.034
32227SOL    HW198520   2.398   6.282  12.011
32227SOL    HW298521   2.270   6.347  11.964
32228SOL     OW98522   7.829  11.637   1.284
32228SOL    HW198523   7.744  11.681   1.284
32228SOL    HW298524   7.874  11.673   1.208
32229SOL     OW98525  11.237  11.071   4.432
32229SOL    HW198526  11.309  11.031   4.383
32229SOL    HW298527  11.281  11.134   4.490
32230SOL     OW98528   6.672  11.012   1.824
32230SOL    HW198529   6.757  10.985   1.791
32230SOL    HW298530   6.636  10.934   1.866
32231SOL     OW98531   4.153  14.682   9.903
32231SOL    HW198532   4.175  14.775   9.889
32231SOL    HW298533   4.180  14.665   9.993
32232SOL     OW98534   5.866   4.327   1.725
32232SOL    HW198535   5.872   4.387   1.800
32232SOL    HW298536   5.926   4.364   1.660
32233SOL     OW98537  11.306   7.984   7.361
32233SOL    HW198538  11.225   8.015   7.401
32233SOL    HW298539  11.367   7.976   7.433
32234SOL     OW98540   4.776   8.109   8.324
32234SOL    HW198541   4.814   8.112   8.237
32234SOL    HW298542   4.815   8.184   8.370
32235SOL     OW98543  12.277   9.137   3.554
32235SOL    HW198544  12.197   9.189   3.560
32235SOL    HW298545  12.323   9.154   3.636
32236SOL     OW98546  14.098  13.992   1.323
32236SOL    HW198547  14.085  14.024   1.234
32236SOL    HW298548  14.181  13.944   1.320
32237SOL     OW98549   6.674   6.966   5.703
32237SOL    HW198550   6.653   7.056   5.677
32237SOL    HW298551   6.704   6.973   5.793
32238SOL     OW98552   3.396   8.591   3.955
32238SOL    HW198553   3.328   8.523   3.964
32238SOL    HW298554   3.446   8.585   4.036
32239SOL     OW98555  13.930  12.911   5.279
32239SOL    HW198556  13.855  12.919   5.337
32239SOL    HW298557  14.005  12.901   5.338
32240SOL     OW98558   2.645  12.316  12.486
32240SOL    HW198559   2.597  12.248  12.438
32240SOL    HW298560   2.737  12.291  12.478
32241SOL     OW98561   7.884   3.625  11.486
32241SOL    HW198562   7.790   3.607  11.479
32241SOL    HW298563   7.895   3.664  11.573
32242SOL     OW98564   8.559   3.829   7.710
32242SOL    HW198565   8.581   3.836   7.617
32242SOL    HW298566   8.533   3.738   7.722
32243SOL     OW98567  13.053  10.944   1.446
32243SOL    HW198568  13.147  10.938   1.462
32243SOL    HW298569  13.012  10.914   1.527
32244SOL     OW98570  13.536  14.577   8.306
32244SOL    HW198571  13.540  14.637   8.231
32244SOL    HW298572  13.466  14.612   8.361
32245SOL     OW98573   8.757  10.789   1.528
32245SOL    HW198574   8.845  10.790   1.492
32245SOL    HW298575   8.726  10.880   1.519
32246SOL     OW98576  11.709   6.811   2.132
32246SOL    HW198577  11.632   6.756   2.116
32246SOL    HW298578  11.674   6.899   2.140
32247SOL     OW98579   4.409   8.479   1.387
32247SOL    HW198580   4.474   8.409   1.394
32247SOL    HW298581   4.326   8.433   1.371
32248SOL     OW98582   9.112   3.210  12.502
32248SOL    HW198583   9.088   3.259  12.580
32248SOL    HW298584   9.056   3.133  12.503
32249SOL     OW98585   9.917   1.199   1.779
32249SOL    HW198586   9.831   1.177   1.813
32249SOL    HW298587   9.948   1.270   1.836
32250SOL     OW98588  12.244   3.080   8.246
32250SOL    HW198589  12.237   3.141   8.320
32250SOL    HW298590  12.225   2.994   8.284
32251SOL     OW98591  14.425   4.341   6.254
32251SOL    HW198592  14.353   4.327   6.316
32251SOL    HW298593  14.400   4.419   6.205
32252SOL     OW98594   6.507  13.308   6.737
32252SOL    HW198595   6.435  13.246   6.725
32252SOL    HW298596   6.544  13.285   6.822
32253SOL     OW98597   2.224   4.654   9.385
32253SOL    HW198598   2.309   4.697   9.374
32253SOL    HW298599   2.161   4.711   9.341
32254SOL     OW98600  14.762   5.534   2.851
32254SOL    HW198601  14.827   5.480   2.895
32254SOL    HW298602  14.686   5.476   2.840
32255SOL     OW98603   5.539   6.485  10.887
32255SOL    HW198604   5.564   6.437  10.966
32255SOL    HW298605   5.598   6.561  10.886
32256SOL     OW98606  10.437  11.069  12.802
32256SOL    HW198607  10.465  11.038  12.888
32256SOL    HW298608  10.461  11.162  12.801
32257SOL     OW98609   0.414   0.508   4.012
32257SOL    HW198610   0.358   0.457   4.071
32257SOL    HW298611   0.503   0.494   4.044
32258SOL     OW98612   0.339  10.190   5.472
32258SOL    HW198613   0.343  10.284   5.453
32258SOL    HW298614   0.428  10.159   5.456
32259SOL     OW98615   5.400  14.611  11.125
32259SOL    HW198616   5.468  14.659  11.079
32259SOL    HW298617   5.399  14.648  11.214
32260SOL     OW98618   0.334   5.512   3.363
32260SOL    HW198619   0.301   5.549   3.445
32260SOL    HW298620   0.429   5.514   3.373
32261SOL     OW98621  11.469  10.199  10.025
32261SOL    HW198622  11.420  10.150   9.959
32261SOL    HW298623  11.560  10.174  10.011
32262SOL     OW98624   7.606  12.130   8.785
32262SOL    HW198625   7.563  12.205   8.825
32262SOL    HW298626   7.559  12.054   8.819
32263SOL     OW98627   7.368   4.864  12.665
32263SOL    HW198628   7.380   4.769  12.670
32263SOL    HW298629   7.410   4.897  12.745
32264SOL     OW98630   8.225   2.976   4.671
32264SOL    HW198631   8.319   2.972   4.658
32264SOL    HW298632   8.199   3.063   4.643
32265SOL     OW98633   4.197  14.511   4.847
32265SOL    HW198634   4.285  14.473   4.844
32265SOL    HW298635   4.171  14.517   4.755
32266SOL     OW98636   6.677   1.757   3.676
32266SOL    HW198637   6.616   1.791   3.741
32266SOL    HW298638   6.691   1.666   3.702
32267SOL     OW98639   1.845   5.898   5.029
32267SOL    HW198640   1.793   5.818   5.033
32267SOL    HW298641   1.805   5.949   4.958
32268SOL     OW98642   9.569   6.018   8.251
32268SOL    HW198643   9.661   6.014   8.226
32268SOL    HW298644   9.538   6.101   8.214
32269SOL     OW98645  13.096  14.852   0.927
32269SOL    HW198646  13.030   0.042   0.915
32269SOL    HW298647  13.125  14.863   1.017
32270SOL     OW98648   6.014   9.226  11.671
32270SOL    HW198649   6.097   9.250  11.714
32270SOL    HW298650   6.034   9.145  11.624
32271SOL     OW98651   6.350  13.117  12.511
32271SOL    HW198652   6.441  13.125  12.539
32271SOL    HW298653   6.351  13.137  12.418
32272SOL     OW98654   4.605  12.258   1.123
32272SOL    HW198655   4.513  12.254   1.098
32272SOL    HW298656   4.639  12.334   1.077
32273SOL     OW98657   3.266   7.037   0.734
32273SOL    HW198658   3.340   7.042   0.795
32273SOL    HW298659   3.200   6.985   0.780
32274SOL     OW98660  14.075   3.139   1.746
32274SOL    HW198661  14.079   3.231   1.719
32274SOL    HW298662  14.008   3.100   1.690
32275SOL     OW98663  12.969   6.748  10.204
32275SOL    HW198664  12.890   6.767  10.153
32275SOL    HW298665  13.029   6.709  10.141
32276SOL     OW98666   2.174   2.865   3.823
32276SOL    HW198667   2.148   2.877   3.732
32276SOL    HW298668   2.096   2.885   3.874
32277SOL     OW98669   7.985   2.902   5.096
32277SOL    HW198670   7.947   2.922   5.182
32277SOL    HW298671   8.058   2.964   5.088
32278SOL     OW98672   4.266   1.073   3.804
32278SOL    HW198673   4.218   1.100   3.882
32278SOL    HW298674   4.202   1.076   3.733
32279SOL     OW98675   6.462  12.958   0.698
32279SOL    HW198676   6.515  12.879   0.703
32279SOL    HW298677   6.385  12.932   0.647
32280SOL     OW98678   3.449   2.806  14.308
32280SOL    HW198679   3.416   2.893  14.328
32280SOL    HW298680   3.518   2.791  14.372
32281SOL     OW98681   0.701  10.583  11.535
32281SOL    HW198682   0.713  10.670  11.497
32281SOL    HW298683   0.701  10.524  11.459
32282SOL     OW98684  12.565  12.071   6.128
32282SOL    HW198685  12.557  12.122   6.209
32282SOL    HW298686  12.598  11.985   6.157
32283SOL     OW98687   9.215  10.262   3.382
32283SOL    HW198688   9.237  10.311   3.461
32283SOL    HW298689   9.178  10.180   3.414
32284SOL     OW98690   6.319   8.471   7.318
32284SOL    HW198691   6.371   8.536   7.365
32284SOL    HW298692   6.228   8.495   7.337
32285SOL     OW98693  14.466   3.298   6.830
32285SOL    HW198694  14.503   3.260   6.751
32285SOL    HW298695  14.528   3.366   6.856
32286SOL     OW98696  11.231   8.091  10.677
32286SOL    HW198697  11.265   8.101  10.767
32286SOL    HW298698  11.310   8.094  10.622
32287SOL     OW98699  13.733   0.809   7.721
32287SOL    HW198700  13.644   0.800   7.756
32287SOL    HW298701  13.723   0.852   7.637
32288SOL     OW98702   8.914  11.830   1.166
32288SOL    HW198703   8.824  11.807   1.191
32288SOL    HW298704   8.925  11.792   1.079
32289SOL     OW98705  14.486   4.579   2.996
32289SOL    HW198706  14.552   4.634   3.037
32289SOL    HW298707  14.529   4.542   2.919
32290SOL     OW98708   5.548   2.525   1.488
32290SOL    HW198709   5.606   2.478   1.428
32290SOL    HW298710   5.462   2.521   1.446
32291SOL     OW98711   6.934   4.708   7.316
32291SOL    HW198712   7.026   4.719   7.292
32291SOL    HW298713   6.936   4.642   7.385
32292SOL     OW98714  11.917   1.512   6.850
32292SOL    HW198715  11.915   1.416   6.846
32292SOL    HW298716  11.924   1.531   6.944
32293SOL     OW98717   2.407   5.843  10.472
32293SOL    HW198718   2.390   5.914  10.410
32293SOL    HW298719   2.440   5.886  10.550
32294SOL     OW98720   0.966  14.564  11.580
32294SOL    HW198721   0.927  14.638  11.535
32294SOL    HW298722   0.909  14.490  11.559
32295SOL     OW98723  13.336   5.646   5.994
32295SOL    HW198724  13.261   5.675   5.942
32295SOL    HW298725  13.338   5.707   6.068
32296SOL     OW98726  10.372  13.377  14.665
32296SOL    HW198727  10.463  13.350  14.680
32296SOL    HW298728  10.359  13.452  14.723
32297SOL     OW98729   5.723  11.788  12.252
32297SOL    HW198730   5.792  11.849  12.226
32297SOL    HW298731   5.730  11.715  12.190
32298SOL     OW98732  13.182   5.619  11.977
32298SOL    HW198733  13.103   5.640  11.927
32298SOL    HW298734  13.253   5.666  11.933
32299SOL     OW98735  10.442   8.154   3.114
32299SOL    HW198736  10.388   8.099   3.172
32299SOL    HW298737  10.519   8.101   3.095
32300SOL     OW98738   9.924   2.593   6.128
32300SOL    HW198739   9.890   2.519   6.078
32300SOL    HW298740   9.952   2.554   6.212
32301SOL     OW98741   8.480   4.089   2.703
32301SOL    HW198742   8.549   4.104   2.638
32301SOL    HW298743   8.517   4.121   2.786
32302SOL     OW98744   3.557  12.591  13.121
32302SOL    HW198745   3.610  12.659  13.164
32302SOL    HW298746   3.583  12.510  13.163
32303SOL     OW98747   3.409   1.975   2.655
32303SOL    HW198748   3.376   2.024   2.731
32303SOL    HW298749   3.501   2.002   2.648
32304SOL     OW98750   3.727  10.889  13.839
32304SOL    HW198751   3.636  10.873  13.812
32304SOL    HW298752   3.730  10.983  13.857
32305SOL     OW98753  14.735   9.018   9.230
32305SOL    HW198754  14.790   9.029   9.307
32305SOL    HW298755  14.796   8.997   9.159
32306SOL     OW98756   9.031   0.243   2.728
32306SOL    HW198757   9.011   0.313   2.666
32306SOL    HW298758   9.126   0.243   2.735
32307SOL     OW98759   6.650   3.636   8.710
32307SOL    HW198760   6.627   3.713   8.761
32307SOL    HW298761   6.734   3.657   8.670
32308SOL     OW98762   9.864   8.169  12.298
32308SOL    HW198763   9.813   8.211  12.228
32308SOL    HW298764   9.937   8.229  12.314
32309SOL     OW98765   0.599   5.708  12.139
32309SOL    HW198766   0.593   5.769  12.213
32309SOL    HW298767   0.534   5.640  12.158
32310SOL     OW98768   3.934   9.420   1.646
32310SOL    HW198769   3.964   9.450   1.732
32310SOL    HW298770   3.925   9.325   1.657
32311SOL     OW98771   0.521  12.142   6.589
32311SOL    HW198772   0.444  12.152   6.644
32311SOL    HW298773   0.506  12.200   6.515
32312SOL     OW98774   1.227   0.092   1.050
32312SOL    HW198775   1.261   0.003   1.034
32312SOL    HW298776   1.266   0.118   1.133
32313SOL     OW98777   4.410   1.373  14.211
32313SOL    HW198778   4.436   1.322  14.135
32313SOL    HW298779   4.488   1.376  14.266
32314SOL     OW98780  11.257  13.854   2.289
32314SOL    HW198781  11.299  13.909   2.223
32314SOL    HW298782  11.234  13.774   2.242
32315SOL     OW98783   1.435   9.299  13.573
32315SOL    HW198784   1.480   9.218  13.597
32315SOL    HW298785   1.494   9.341  13.509
32316SOL     OW98786  14.245  12.856   6.389
32316SOL    HW198787  14.218  12.788   6.450
32316SOL    HW298788  14.269  12.809   6.309
32317SOL     OW98789   0.673   9.460   0.293
32317SOL    HW198790   0.711   9.395   0.352
32317SOL    HW298791   0.739   9.472   0.224
32318SOL     OW98792  12.231   0.232   8.727
32318SOL    HW198793  12.217   0.208   8.636
32318SOL    HW298794  12.271   0.319   8.723
32319SOL     OW98795   5.012   2.870  14.225
32319SOL    HW198796   5.084   2.854  14.163
32319SOL    HW298797   4.935   2.883  14.170
32320SOL     OW98798   7.699   2.232   1.912
32320SOL    HW198799   7.722   2.286   1.987
32320SOL    HW298800   7.633   2.172   1.946
32321SOL     OW98801   5.064   2.947   2.492
32321SOL    HW198802   5.032   2.857   2.507
32321SOL    HW298803   5.032   2.969   2.405
32322SOL     OW98804   0.496   4.111   2.300
32322SOL    HW198805   0.483   4.027   2.345
32322SOL    HW298806   0.591   4.119   2.291
32323SOL     OW98807  10.878  14.725  10.077
32323SOL    HW198808  10.858  14.781  10.151
32323SOL    HW298809  10.950  14.769  10.032
32324SOL     OW98810   3.245   6.561  12.536
32324SOL    HW198811   3.258   6.530  12.626
32324SOL    HW298812   3.279   6.651  12.536
32325SOL     OW98813   0.219   2.252   2.779
32325SOL    HW198814   0.306   2.262   2.740
32325SOL    HW298815   0.222   2.304   2.859
32326SOL     OW98816  12.006   0.738  12.151
32326SOL    HW198817  11.972   0.816  12.107
32326SOL    HW298818  12.101   0.749  12.149
32327SOL     OW98819   9.170  13.624  13.466
32327SOL    HW198820   9.240  13.649  13.405
32327SOL    HW298821   9.181  13.529  13.477
32328SOL     OW98822  12.403  11.769  11.628
32328SOL    HW198823  12.396  11.674  11.644
32328SOL    HW298824  12.430  11.775  11.536
32329SOL     OW98825  11.051  10.444   0.287
32329SOL    HW198826  11.122  10.396   0.246
32329SOL    HW298827  11.009  10.491   0.215
32330SOL     OW98828   0.021  12.476  13.332
32330SOL    HW198829  14.871  12.398  13.379
32330SOL    HW298830   0.053  12.534  13.400
32331SOL     OW98831   7.536   9.313  14.277
32331SOL    HW198832   7.507   9.222  14.270
32331SOL    HW298833   7.463   9.358  14.320
32332SOL     OW98834   8.957   8.796  11.740
32332SOL    HW198835   8.889   8.731  11.722
32332SOL    HW298836   9.030   8.772  11.683
32333SOL     OW98837   3.816   3.338   0.887
32333SOL    HW198838   3.740   3.365   0.834
32333SOL    HW298839   3.865   3.279   0.831
32334SOL     OW98840   4.737   9.687  10.996
32334SOL    HW198841   4.831   9.698  10.985
32334SOL    HW298842   4.728   9.641  11.080
32335SOL     OW98843  14.791   7.342   6.741
32335SOL    HW198844  14.794   7.403   6.667
32335SOL    HW298845  14.859   7.373   6.801
32336SOL     OW98846  12.953   9.323  14.437
32336SOL    HW198847  12.985   9.411  14.455
32336SOL    HW298848  12.942   9.320  14.342
32337SOL     OW98849  11.112  13.463   1.981
32337SOL    HW198850  11.031  13.438   1.938
32337SOL    HW298851  11.091  13.543   2.029
32338SOL     OW98852   6.606   0.047   4.356
32338SOL    HW198853   6.553   0.127   4.365
32338SOL    HW298854   6.543  14.859   4.331
32339SOL     OW98855  14.436   8.302   2.490
32339SOL    HW198856  14.455   8.368   2.557
32339SOL    HW298857  14.420   8.353   2.411
32340SOL     OW98858   4.737   6.593   1.235
32340SOL    HW198859   4.760   6.578   1.326
32340SOL    HW298860   4.642   6.600   1.234
32341SOL     OW98861  10.227  13.967   9.012
32341SOL    HW198862  10.160  13.990   8.948
32341SOL    HW298863  10.283  14.045   9.017
32342SOL     OW98864  11.911   4.404   6.251
32342SOL    HW198865  11.824   4.366   6.264
32342SOL    HW298866  11.928   4.451   6.333
32343SOL     OW98867   3.188  13.389   2.911
32343SOL    HW198868   3.258  13.441   2.950
32343SOL    HW298869   3.115  13.395   2.973
32344SOL     OW98870   5.777  10.723   6.720
32344SOL    HW198871   5.856  10.677   6.747
32344SOL    HW298872   5.808  10.807   6.685
32345SOL     OW98873  13.379   1.634  13.114
32345SOL    HW198874  13.356   1.678  13.033
32345SOL    HW298875  13.383   1.704  13.179
32346SOL     OW98876   8.367   8.844  11.301
32346SOL    HW198877   8.378   8.895  11.381
32346SOL    HW298878   8.274   8.818  11.302
32347SOL     OW98879   7.148  10.560   0.171
32347SOL    HW198880   7.064  10.518   0.152
32347SOL    HW298881   7.127  10.630   0.233
32348SOL     OW98882   4.851  10.651   9.168
32348SOL    HW198883   4.806  10.568   9.155
32348SOL    HW298884   4.796  10.715   9.124
32349SOL     OW98885  13.841   1.978   0.292
32349SOL    HW198886  13.866   1.897   0.337
32349SOL    HW298887  13.807   2.035   0.361
32350SOL     OW98888   0.232   1.799   8.441
32350SOL    HW198889   0.201   1.714   8.410
32350SOL    HW298890   0.261   1.845   8.362
32351SOL     OW98891   5.919  10.265   9.831
32351SOL    HW198892   5.926  10.243   9.738
32351SOL    HW298893   5.833  10.233   9.857
32352SOL     OW98894   2.712  10.290  11.153
32352SOL    HW198895   2.717  10.273  11.059
32352SOL    HW298896   2.667  10.374  11.160
32353SOL     OW98897   3.196  10.002   9.007
32353SOL    HW198898   3.111  10.046   9.013
32353SOL    HW298899   3.253  10.067   8.966
32354SOL     OW98900   4.022   5.868   9.408
32354SOL    HW198901   3.948   5.807   9.403
32354SOL    HW298902   3.997   5.931   9.476
32355SOL     OW98903  12.332   3.614   9.633
32355SOL    HW198904  12.328   3.705   9.605
32355SOL    HW298905  12.417   3.606   9.677
32356SOL     OW98906   0.211   4.402   5.177
32356SOL    HW198907   0.218   4.363   5.089
32356SOL    HW298908   0.177   4.490   5.160
32357SOL     OW98909   2.282  10.839  12.455
32357SOL    HW198910   2.213  10.899  12.429
32357SOL    HW298911   2.333  10.824  12.375
32358SOL     OW98912   1.219  14.313   8.129
32358SOL    HW198913   1.133  14.275   8.144
32358SOL    HW298914   1.216  14.344   8.039
32359SOL     OW98915  10.818   6.686   8.454
32359SOL    HW198916  10.880   6.628   8.498
32359SOL    HW298917  10.766   6.723   8.525
32360SOL     OW98918  12.120  10.912   0.993
32360SOL    HW198919  12.151  10.879   0.909
32360SOL    HW298920  12.155  10.850   1.058
32361SOL     OW98921  12.405   1.042  11.118
32361SOL    HW198922  12.439   1.093  11.045
32361SOL    HW298923  12.331   0.993  11.080
32362SOL     OW98924  11.099   3.865   4.275
32362SOL    HW198925  11.071   3.938   4.219
32362SOL    HW298926  11.020   3.842   4.325
32363SOL     OW98927   9.188   0.128   7.677
32363SOL    HW198928   9.268   0.180   7.671
32363SOL    HW298929   9.123   0.177   7.626
32364SOL     OW98930  13.001  10.691  12.007
32364SOL    HW198931  13.056  10.729  11.939
32364SOL    HW298932  12.940  10.635  11.961
32365SOL     OW98933   5.168   4.934   8.174
32365SOL    HW198934   5.125   4.978   8.101
32365SOL    HW298935   5.217   5.004   8.218
32366SOL     OW98936  11.310   2.909   0.914
32366SOL    HW198937  11.308   2.987   0.970
32366SOL    HW298938  11.258   2.844   0.962
32367SOL     OW98939   4.471  12.706   0.081
32367SOL    HW198940   4.448  12.739  14.874
32367SOL    HW298941   4.547  12.758   0.107
32368SOL     OW98942   3.293   0.637  13.811
32368SOL    HW198943   3.344   0.690  13.750
32368SOL    HW298944   3.257   0.566  13.757
32369SOL     OW98945  12.272   2.429   8.338
32369SOL    HW198946  12.320   2.348   8.319
32369SOL    HW298947  12.339   2.490   8.368
32370SOL     OW98948   1.414   6.605   8.483
32370SOL    HW198949   1.323   6.577   8.488
32370SOL    HW298950   1.465   6.524   8.486
32371SOL     OW98951   6.841   2.400   1.603
32371SOL    HW198952   6.918   2.432   1.649
32371SOL    HW298953   6.784   2.367   1.672
32372SOL     OW98954   2.452   6.497   7.758
32372SOL    HW198955   2.500   6.576   7.730
32372SOL    HW298956   2.500   6.425   7.717
32373SOL     OW98957   6.271   0.258  12.525
32373SOL    HW198958   6.310   0.333  12.480
32373SOL    HW298959   6.343   0.195  12.532
32374SOL     OW98960   4.147   9.428   1.455
32374SOL    HW198961   4.112   9.376   1.527
32374SOL    HW298962   4.074   9.437   1.394
32375SOL     OW98963  11.109  13.694  12.233
32375SOL    HW198964  11.091  13.744  12.312
32375SOL    HW298965  11.123  13.760  12.165
32376SOL     OW98966   6.123   0.230   3.085
32376SOL    HW198967   6.175   0.186   3.018
32376SOL    HW298968   6.078   0.300   3.038
32377SOL     OW98969   1.632   4.056  14.504
32377SOL    HW198970   1.700   3.990  14.489
32377SOL    HW298971   1.587   4.027  14.583
32378SOL     OW98972  10.522   9.221   3.362
32378SOL    HW198973  10.450   9.279   3.386
32378SOL    HW298974  10.537   9.168   3.441
32379SOL     OW98975   5.288   5.046  12.314
32379SOL    HW198976   5.277   5.140  12.303
32379SOL    HW298977   5.253   5.027  12.401
32380SOL     OW98978   0.515  10.600  11.083
32380SOL    HW198979   0.607  10.583  11.062
32380SOL    HW298980   0.488  10.667  11.021
32381SOL     OW98981  12.492   3.728  11.403
32381SOL    HW198982  12.529   3.662  11.461
32381SOL    HW298983  12.404   3.743  11.438
32382SOL     OW98984   2.841  11.564  14.369
32382SOL    HW198985   2.870  11.595  14.283
32382SOL    HW298986   2.773  11.499  14.350
32383SOL     OW98987   0.957   2.570  11.063
32383SOL    HW198988   1.048   2.598  11.074
32383SOL    HW298989   0.935   2.595  10.973
32384SOL     OW98990   5.022   9.714  13.070
32384SOL    HW198991   5.109   9.754  13.068
32384SOL    HW298992   4.964   9.785  13.096
32385SOL     OW98993   7.425   9.530   2.768
32385SOL    HW198994   7.497   9.561   2.714
32385SOL    HW298995   7.368   9.606   2.777
32386SOL     OW98996   4.458   0.710   3.104
32386SOL    HW198997   4.438   0.632   3.156
32386SOL    HW298998   4.426   0.689   3.016
32387SOL     OW98999   6.158  10.965   4.805
32387SOL    HW199000   6.087  10.905   4.783
32387SOL    HW299001   6.130  11.050   4.771
32388SOL     OW99002  11.697   4.272   8.121
32388SOL    HW199003  11.706   4.233   8.209
32388SOL    HW299004  11.787   4.293   8.096
32389SOL     OW99005   0.596  11.106   6.505
32389SOL    HW199006   0.525  11.134   6.563
32389SOL    HW299007   0.589  11.165   6.429
32390SOL     OW99008   0.086  13.539   8.592
32390SOL    HW199009   0.168  13.583   8.571
32390SOL    HW299010   0.027  13.562   8.520
32391SOL     OW99011   1.001   9.645  14.096
32391SOL    HW199012   0.946   9.676  14.024
32391SOL    HW299013   1.090   9.661  14.066
32392SOL     OW99014   0.872   3.557   8.323
32392SOL    HW199015   0.801   3.495   8.303
32392SOL    HW299016   0.918   3.517   8.397
32393SOL     OW99017   0.696   4.896   5.724
32393SOL    HW199018   0.715   4.927   5.813
32393SOL    HW299019   0.773   4.844   5.700
32394SOL     OW99020   9.928  11.791   5.377
32394SOL    HW199021   9.850  11.836   5.410
32394SOL    HW299022   9.894  11.726   5.315
32395SOL     OW99023   4.225   0.052   9.811
32395SOL    HW199024   4.314   0.086   9.818
32395SOL    HW299025   4.185   0.104   9.741
32396SOL     OW99026   0.890   7.541   3.651
32396SOL    HW199027   0.960   7.524   3.713
32396SOL    HW299028   0.919   7.617   3.602
32397SOL     OW99029   7.607   6.729   7.221
32397SOL    HW199030   7.532   6.775   7.182
32397SOL    HW299031   7.586   6.725   7.315
32398SOL     OW99032  11.524   8.978   4.356
32398SOL    HW199033  11.502   8.895   4.399
32398SOL    HW299034  11.610   8.963   4.316
32399SOL     OW99035   7.032   9.877   2.088
32399SOL    HW199036   7.073   9.949   2.038
32399SOL    HW299037   6.940   9.903   2.095
32400SOL     OW99038   5.044  10.967   4.617
32400SOL    HW199039   5.066  10.883   4.658
32400SOL    HW299040   5.128  11.001   4.585
32401SOL     OW99041  11.023  13.288   1.176
32401SOL    HW199042  11.055  13.255   1.092
32401SOL    HW299043  10.972  13.216   1.212
32402SOL     OW99044  14.099  14.464   6.743
32402SOL    HW199045  14.117  14.372   6.764
32402SOL    HW299046  14.119  14.511   6.824
32403SOL     OW99047  11.108  10.751   9.251
32403SOL    HW199048  11.118  10.766   9.157
32403SOL    HW299049  11.020  10.715   9.261
32404SOL     OW99050  11.563   3.875  14.691
32404SOL    HW199051  11.641   3.899  14.643
32404SOL    HW299052  11.595   3.834  14.771
32405SOL     OW99053   6.487   6.352   1.784
32405SOL    HW199054   6.561   6.407   1.809
32405SOL    HW299055   6.524   6.286   1.726
32406SOL     OW99056   6.657   0.809  11.003
32406SOL    HW199057   6.578   0.861  11.018
32406SOL    HW299058   6.673   0.765  11.087
32407SOL     OW99059   2.068   4.747  14.075
32407SOL    HW199060   2.143   4.710  14.122
32407SOL    HW299061   1.992   4.722  14.127
32408SOL     OW99062  11.628   1.384   5.699
32408SOL    HW199063  11.592   1.448   5.760
32408SOL    HW299064  11.620   1.300   5.744
32409SOL     OW99065   2.191   1.746  10.731
32409SOL    HW199066   2.269   1.780  10.686
32409SOL    HW299067   2.121   1.805  10.706
32410SOL     OW99068   8.902  14.807   4.956
32410SOL    HW199069   8.868  14.773   4.873
32410SOL    HW299070   8.882   0.021   4.954
32411SOL     OW99071   5.052  13.237  12.279
32411SOL    HW199072   4.966  13.195  12.269
32411SOL    HW299073   5.111  13.185  12.224
32412SOL     OW99074  10.482   6.555   4.032
32412SOL    HW199075  10.570   6.564   4.066
32412SOL    HW299076  10.481   6.611   3.954
32413SOL     OW99077  13.850   5.765   3.540
32413SOL    HW199078  13.777   5.781   3.599
32413SOL    HW299079  13.911   5.838   3.555
32414SOL     OW99080  12.577  10.632   2.917
32414SOL    HW199081  12.507  10.616   2.981
32414SOL    HW299082  12.655  10.648   2.971
32415SOL     OW99083  13.104   8.215   4.485
32415SOL    HW199084  13.087   8.122   4.471
32415SOL    HW299085  13.111   8.224   4.580
32416SOL     OW99086  11.568  14.314   2.085
32416SOL    HW199087  11.616  14.383   2.130
32416SOL    HW299088  11.628  14.283   2.017
32417SOL     OW99089   0.995  13.637   1.083
32417SOL    HW199090   0.905  13.643   1.115
32417SOL    HW299091   1.025  13.728   1.077
32418SOL     OW99092   1.416   6.390   2.652
32418SOL    HW199093   1.331   6.358   2.619
32418SOL    HW299094   1.471   6.312   2.656
32419SOL     OW99095   2.509   8.798  12.929
32419SOL    HW199096   2.596   8.829  12.955
32419SOL    HW299097   2.479   8.747  13.005
32420SOL     OW99098   9.680  12.493   3.959
32420SOL    HW199099   9.585  12.488   3.956
32420SOL    HW299100   9.708  12.474   3.869
32421SOL     OW99101  11.321   8.660  13.351
32421SOL    HW199102  11.374   8.596  13.399
32421SOL    HW299103  11.239   8.665  13.400
32422SOL     OW99104  10.808  11.112   6.697
32422SOL    HW199105  10.775  11.179   6.637
32422SOL    HW299106  10.788  11.029   6.653
32423SOL     OW99107   0.262   1.258   1.656
32423SOL    HW199108   0.168   1.257   1.675
32423SOL    HW299109   0.302   1.224   1.736
32424SOL     OW99110  10.400  11.536   8.578
32424SOL    HW199111  10.311  11.562   8.557
32424SOL    HW299112  10.450  11.618   8.577
32425SOL     OW99113   0.094   0.258  11.619
32425SOL    HW199114   0.143   0.258  11.537
32425SOL    HW299115   0.158   0.232  11.686
32426SOL     OW99116   0.536   1.332   8.202
32426SOL    HW199117   0.480   1.263   8.166
32426SOL    HW299118   0.581   1.291   8.276
32427SOL     OW99119  12.918   0.511   1.001
32427SOL    HW199120  12.963   0.593   0.981
32427SOL    HW299121  12.858   0.534   1.072
32428SOL     OW99122   8.282   0.116   4.198
32428SOL    HW199123   8.319   0.175   4.264
32428SOL    HW299124   8.267   0.034   4.246
32429SOL     OW99125  12.904   0.521  11.923
32429SOL    HW199126  12.847   0.536  11.848
32429SOL    HW299127  12.915   0.426  11.926
32430SOL     OW99128   2.633   0.384  12.506
32430SOL    HW199129   2.676   0.305  12.473
32430SOL    HW299130   2.615   0.364  12.598
32431SOL     OW99131   4.520   3.155   7.962
32431SOL    HW199132   4.585   3.183   8.027
32431SOL    HW299133   4.511   3.231   7.904
32432SOL     OW99134   3.798   7.858   4.491
32432SOL    HW199135   3.718   7.830   4.446
32432SOL    HW299136   3.807   7.950   4.469
32433SOL     OW99137   3.248   7.718   7.088
32433SOL    HW199138   3.303   7.643   7.067
32433SOL    HW299139   3.307   7.793   7.087
32434SOL     OW99140   1.137  14.290   5.478
32434SOL    HW199141   1.144  14.237   5.557
32434SOL    HW299142   1.095  14.232   5.414
32435SOL     OW99143   6.195   7.152   0.977
32435SOL    HW199144   6.204   7.234   0.929
32435SOL    HW299145   6.205   7.084   0.910
32436SOL     OW99146   2.938  14.653   4.688
32436SOL    HW199147   2.957  14.618   4.775
32436SOL    HW299148   2.842  14.651   4.683
32437SOL     OW99149   9.468  10.243   6.202
32437SOL    HW199150   9.511  10.190   6.135
32437SOL    HW299151   9.533  10.253   6.271
32438SOL     OW99152  13.922   4.946   4.934
32438SOL    HW199153  13.943   5.008   4.865
32438SOL    HW299154  13.902   5.000   5.010
32439SOL     OW99155   2.296   1.986   2.579
32439SOL    HW199156   2.310   1.951   2.491
32439SOL    HW299157   2.341   2.071   2.578
32440SOL     OW99158  12.550   0.962  11.573
32440SOL    HW199159  12.480   0.933  11.514
32440SOL    HW299160  12.525   0.927  11.659
32441SOL     OW99161  13.625  12.489  12.221
32441SOL    HW199162  13.644  12.483  12.315
32441SOL    HW299163  13.685  12.556  12.189
32442SOL     OW99164  10.284  12.978   8.430
32442SOL    HW199165  10.242  13.025   8.358
32442SOL    HW299166  10.295  13.044   8.498
32443SOL     OW99167   6.009   6.997  10.078
32443SOL    HW199168   5.929   6.948  10.059
32443SOL    HW299169   6.066   6.977  10.003
32444SOL     OW99170  14.700   7.669  11.808
32444SOL    HW199171  14.728   7.756  11.780
32444SOL    HW299172  14.768   7.610  11.775
32445SOL     OW99173  10.111   9.695  14.369
32445SOL    HW199174  10.114   9.612  14.418
32445SOL    HW299175  10.022   9.727  14.382
32446SOL     OW99176  11.759  13.622  13.376
32446SOL    HW199177  11.682  13.666  13.411
32446SOL    HW299178  11.826  13.633  13.443
32447SOL     OW99179   2.720   3.203   6.708
32447SOL    HW199180   2.726   3.231   6.617
32447SOL    HW299181   2.724   3.107   6.705
32448SOL     OW99182   9.559   9.051   3.649
32448SOL    HW199183   9.538   8.980   3.710
32448SOL    HW299184   9.525   9.021   3.565
32449SOL     OW99185   4.706   4.022   3.402
32449SOL    HW199186   4.763   4.099   3.399
32449SOL    HW299187   4.721   3.978   3.318
32450SOL     OW99188   3.972  13.279   7.977
32450SOL    HW199189   3.975  13.234   8.061
32450SOL    HW299190   4.046  13.243   7.928
32451SOL     OW99191   4.486   7.096   9.972
32451SOL    HW199192   4.510   7.059   9.887
32451SOL    HW299193   4.398   7.131   9.960
32452SOL     OW99194  12.200   5.821   8.617
32452SOL    HW199195  12.183   5.885   8.686
32452SOL    HW299196  12.160   5.860   8.538
32453SOL     OW99197   3.028  13.453   9.918
32453SOL    HW199198   3.078  13.533   9.899
32453SOL    HW299199   2.940  13.473   9.887
32454SOL     OW99200   5.646   6.490  12.854
32454SOL    HW199201   5.676   6.467  12.942
32454SOL    HW299202   5.724   6.526  12.811
32455SOL     OW99203  13.259   5.076   4.952
32455SOL    HW199204  13.227   5.160   4.919
32455SOL    HW299205  13.319   5.045   4.885
32456SOL     OW99206  12.605   5.794   7.484
32456SOL    HW199207  12.602   5.750   7.400
32456SOL    HW299208  12.518   5.782   7.521
32457SOL     OW99209   4.188  14.246   9.803
32457SOL    HW199210   4.137  14.323   9.777
32457SOL    HW299211   4.259  14.282   9.857
32458SOL     OW99212   2.608   6.475  10.462
32458SOL    HW199213   2.560   6.543  10.415
32458SOL    HW299214   2.689   6.464  10.413
32459SOL     OW99215   1.105   8.243  12.032
32459SOL    HW199216   1.188   8.264  11.989
32459SOL    HW299217   1.043   8.305  11.996
32460SOL     OW99218  13.079   8.591   2.231
32460SOL    HW199219  13.087   8.621   2.141
32460SOL    HW299220  13.077   8.672   2.283
32461SOL     OW99221   5.173  12.685  11.046
32461SOL    HW199222   5.183  12.780  11.036
32461SOL    HW299223   5.211  12.648  10.967
32462SOL     OW99224   6.154   6.434   5.024
32462SOL    HW199225   6.179   6.378   4.950
32462SOL    HW299226   6.107   6.507   4.984
32463SOL     OW99227   5.522  10.621  12.707
32463SOL    HW199228   5.520  10.627  12.803
32463SOL    HW299229   5.613  10.602  12.686
32464SOL     OW99230   3.250   2.314  11.772
32464SOL    HW199231   3.239   2.367  11.693
32464SOL    HW299232   3.238   2.375  11.844
32465SOL     OW99233   8.793   0.817   3.280
32465SOL    HW199234   8.698   0.824   3.272
32465SOL    HW299235   8.825   0.823   3.190
32466SOL     OW99236  14.624   5.876   7.432
32466SOL    HW199237  14.623   5.788   7.471
32466SOL    HW299238  14.568   5.869   7.355
32467SOL     OW99239   6.119  10.970  11.245
32467SOL    HW199240   6.211  10.989  11.229
32467SOL    HW299241   6.110  10.876  11.229
32468SOL     OW99242  12.714  13.170   6.182
32468SOL    HW199243  12.682  13.206   6.099
32468SOL    HW299244  12.648  13.106   6.208
32469SOL     OW99245   7.728   0.344   9.840
32469SOL    HW199246   7.820   0.361   9.861
32469SOL    HW299247   7.728   0.321   9.747
32470SOL     OW99248   6.488   1.484  12.094
32470SOL    HW199249   6.425   1.412  12.108
32470SOL    HW299250   6.563   1.460  12.148
32471SOL     OW99251   6.792  12.563  11.043
32471SOL    HW199252   6.813  12.500  10.975
32471SOL    HW299253   6.877  12.598  11.070
32472SOL     OW99254   5.986   3.286   7.126
32472SOL    HW199255   6.003   3.222   7.057
32472SOL    HW299256   5.932   3.353   7.084
32473SOL     OW99257   5.259   1.206   1.466
32473SOL    HW199258   5.217   1.166   1.542
32473SOL    HW299259   5.295   1.289   1.498
32474SOL     OW99260   2.443  13.545   7.750
32474SOL    HW199261   2.352  13.559   7.778
32474SOL    HW299262   2.436  13.518   7.659
32475SOL     OW99263   7.768   6.040   9.052
32475SOL    HW199264   7.753   6.131   9.028
32475SOL    HW299265   7.690   5.994   9.021
32476SOL     OW99266   4.286  12.238  14.377
32476SOL    HW199267   4.324  12.295  14.444
32476SOL    HW299268   4.228  12.295  14.328
32477SOL     OW99269   2.128   0.550  11.251
32477SOL    HW199270   2.098   0.638  11.273
32477SOL    HW299271   2.213   0.564  11.210
32478SOL     OW99272   6.903   5.368   7.242
32478SOL    HW199273   6.882   5.332   7.156
32478SOL    HW299274   6.850   5.448   7.248
32479SOL     OW99275   2.131   2.602   3.199
32479SOL    HW199276   2.072   2.562   3.135
32479SOL    HW299277   2.137   2.538   3.270
32480SOL     OW99278   7.241   0.048   4.998
32480SOL    HW199279   7.326   0.093   4.994
32480SOL    HW299280   7.250  14.866   5.071
32481SOL     OW99281   8.869  11.463  14.648
32481SOL    HW199282   8.816  11.393  14.609
32481SOL    HW299283   8.959  11.432  14.639
32482SOL     OW99284  13.818   6.131   6.296
32482SOL    HW199285  13.741   6.141   6.352
32482SOL    HW299286  13.785   6.085   6.218
32483SOL     OW99287  11.760   3.589   0.369
32483SOL    HW199288  11.726   3.542   0.445
32483SOL    HW299289  11.724   3.543   0.294
32484SOL     OW99290   7.103   9.752   5.818
32484SOL    HW199291   7.016   9.784   5.839
32484SOL    HW299292   7.093   9.657   5.809
32485SOL     OW99293  11.673   0.706   3.096
32485SOL    HW199294  11.595   0.731   3.145
32485SOL    HW299295  11.734   0.779   3.108
32486SOL     OW99296   0.669   4.963   2.168
32486SOL    HW199297   0.652   4.956   2.074
32486SOL    HW299298   0.734   4.896   2.186
32487SOL     OW99299   3.818  10.898   6.920
32487SOL    HW199300   3.866  10.887   6.838
32487SOL    HW299301   3.769  10.816   6.930
32488SOL     OW99302  13.791   9.215   9.342
32488SOL    HW199303  13.791   9.298   9.295
32488SOL    HW299304  13.842   9.232   9.421
32489SOL     OW99305   9.173   9.915  11.159
32489SOL    HW199306   9.151   9.970  11.085
32489SOL    HW299307   9.105   9.934  11.224
32490SOL     OW99308   1.126   8.682   9.109
32490SOL    HW199309   1.102   8.668   9.017
32490SOL    HW299310   1.220   8.663   9.112
32491SOL     OW99311  13.992   4.292  14.816
32491SOL    HW199312  14.019   4.200  14.816
32491SOL    HW299313  13.954   4.305   0.024
32492SOL     OW99314   2.887  12.537   1.640
32492SOL    HW199315   2.804  12.497   1.615
32492SOL    HW299316   2.936  12.466   1.682
32493SOL     OW99317   3.589   8.079   7.887
32493SOL    HW199318   3.510   8.025   7.881
32493SOL    HW299319   3.602   8.112   7.798
32494SOL     OW99320  14.532   1.963   6.701
32494SOL    HW199321  14.507   1.873   6.723
32494SOL    HW299322  14.618   1.955   6.660
32495SOL     OW99323  11.074  11.682  11.961
32495SOL    HW199324  11.092  11.751  12.024
32495SOL    HW299325  11.071  11.602  12.013
32496SOL     OW99326   7.979   6.137  13.249
32496SOL    HW199327   7.959   6.055  13.204
32496SOL    HW299328   7.988   6.111  13.341
32497SOL     OW99329   4.689  12.330   8.098
32497SOL    HW199330   4.687  12.235   8.103
32497SOL    HW299331   4.635  12.351   8.022
32498SOL     OW99332   8.360   3.940   7.425
32498SOL    HW199333   8.342   4.029   7.454
32498SOL    HW299334   8.439   3.947   7.371
32499SOL     OW99335  11.214  11.461   7.592
32499SOL    HW199336  11.226  11.413   7.509
32499SOL    HW299337  11.198  11.392   7.657
32500SOL     OW99338   2.525   5.688   4.650
32500SOL    HW199339   2.483   5.772   4.636
32500SOL    HW299340   2.619   5.708   4.646
32501SOL     OW99341   9.282   8.515   1.158
32501SOL    HW199342   9.336   8.469   1.094
32501SOL    HW299343   9.340   8.527   1.233
32502SOL     OW99344  14.607   1.037   8.323
32502SOL    HW199345  14.701   1.041   8.344
32502SOL    HW299346  14.603   1.056   8.230
32503SOL     OW99347   1.643   8.807  11.213
32503SOL    HW199348   1.650   8.894  11.175
32503SOL    HW299349   1.587   8.819  11.290
32504SOL     OW99350  13.429  12.129  10.085
32504SOL    HW199351  13.412  12.217  10.121
32504SOL    HW299352  13.345  12.085  10.090
32505SOL     OW99353  14.735  10.229   0.050
32505SOL    HW199354  14.648  10.197   0.028
32505SOL    HW299355  14.744  10.311   0.000
32506SOL     OW99356   7.712   7.423   3.999
32506SOL    HW199357   7.806   7.433   4.014
32506SOL    HW299358   7.703   7.419   3.904
32507SOL     OW99359   6.345   4.640   2.671
32507SOL    HW199360   6.435   4.611   2.658
32507SOL    HW299361   6.293   4.561   2.656
32508SOL     OW99362   1.423  12.832  13.855
32508SOL    HW199363   1.330  12.811  13.848
32508SOL    HW299364   1.457  12.824  13.766
32509SOL     OW99365   6.902  12.297  13.572
32509SOL    HW199366   6.822  12.262  13.613
32509SOL    HW299367   6.964  12.224  13.575
32510SOL     OW99368   4.114   7.218  14.314
32510SOL    HW199369   4.049   7.224  14.383
32510SOL    HW299370   4.194   7.254  14.352
32511SOL     OW99371   6.172   6.541   9.330
32511SOL    HW199372   6.202   6.520   9.241
32511SOL    HW299373   6.227   6.614   9.357
32512SOL     OW99374   3.756   5.847  11.372
32512SOL    HW199375   3.834   5.805  11.336
32512SOL    HW299376   3.731   5.911  11.307
32513SOL     OW99377   8.641   2.170   5.999
32513SOL    HW199378   8.669   2.088   5.958
32513SOL    HW299379   8.701   2.235   5.963
32514SOL     OW99380   7.400   2.664  13.880
32514SOL    HW199381   7.417   2.682  13.973
32514SOL    HW299382   7.362   2.576  13.880
32515SOL     OW99383  11.509  12.264   8.038
32515SOL    HW199384  11.550  12.322   8.103
32515SOL    HW299385  11.534  12.176   8.066
32516SOL     OW99386  14.625   3.297   3.677
32516SOL    HW199387  14.700   3.274   3.623
32516SOL    HW299388  14.566   3.343   3.617
32517SOL     OW99389  13.276  11.225  10.193
32517SOL    HW199390  13.361  11.191  10.163
32517SOL    HW299391  13.245  11.279  10.120
32518SOL     OW99392   1.756  12.286  14.079
32518SOL    HW199393   1.695  12.265  14.008
32518SOL    HW299394   1.728  12.230  14.151
32519SOL     OW99395  11.162   3.571  12.498
32519SOL    HW199396  11.250   3.607  12.485
32519SOL    HW299397  11.177   3.491  12.548
32520SOL     OW99398  11.603   6.735  12.544
32520SOL    HW199399  11.663   6.730  12.618
32520SOL    HW299400  11.642   6.800  12.486
32521SOL     OW99401  13.293   2.585   2.277
32521SOL    HW199402  13.241   2.625   2.346
32521SOL    HW299403  13.229   2.537   2.224
32522SOL     OW99404   2.839   0.521   8.601
32522SOL    HW199405   2.772   0.508   8.668
32522SOL    HW299406   2.891   0.441   8.604
32523SOL     OW99407   5.573   1.803   9.092
32523SOL    HW199408   5.491   1.787   9.044
32523SOL    HW299409   5.637   1.748   9.047
32524SOL     OW99410  14.309   4.944   2.075
32524SOL    HW199411  14.403   4.924   2.079
32524SOL    HW299412  14.274   4.914   2.158
32525SOL     OW99413  11.728   9.939   2.575
32525SOL    HW199414  11.700   9.961   2.486
32525SOL    HW299415  11.731   9.843   2.576
32526SOL     OW99416   3.078   0.938   9.211
32526SOL    HW199417   2.995   0.899   9.182
32526SOL    HW299418   3.138   0.926   9.138
32527SOL     OW99419   9.265   3.238   3.253
32527SOL    HW199420   9.253   3.231   3.158
32527SOL    HW299421   9.252   3.331   3.272
32528SOL     OW99422   0.301  13.503   6.772
32528SOL    HW199423   0.328  13.413   6.753
32528SOL    HW299424   0.205  13.499   6.775
32529SOL     OW99425   6.624   6.816  10.306
32529SOL    HW199426   6.537   6.831  10.342
32529SOL    HW299427   6.652   6.733  10.345
32530SOL     OW99428   3.356   5.071   8.834
32530SOL    HW199429   3.287   5.133   8.812
32530SOL    HW299430   3.317   5.013   8.900
32531SOL     OW99431   3.502   2.134  13.961
32531SOL    HW199432   3.518   2.041  13.974
32531SOL    HW299433   3.472   2.165  14.047
32532SOL     OW99434   3.783  12.615   3.991
32532SOL    HW199435   3.861  12.658   3.957
32532SOL    HW299436   3.783  12.635   4.085
32533SOL     OW99437   1.570   8.134  12.238
32533SOL    HW199438   1.563   8.208  12.298
32533SOL    HW299439   1.573   8.174  12.151
32534SOL     OW99440   3.871   6.767   3.169
32534SOL    HW199441   3.930   6.746   3.096
32534SOL    HW299442   3.896   6.856   3.195
32535SOL     OW99443  12.298  12.545   8.324
32535SOL    HW199444  12.314  12.462   8.371
32535SOL    HW299445  12.351  12.609   8.372
32536SOL     OW99446   5.924   3.135   8.907
32536SOL    HW199447   5.958   3.148   8.996
32536SOL    HW299448   5.956   3.211   8.858
32537SOL     OW99449   7.619   9.709  10.746
32537SOL    HW199450   7.530   9.738  10.764
32537SOL    HW299451   7.641   9.747  10.661
32538SOL     OW99452  14.314  13.271   9.079
32538SOL    HW199453  14.264  13.292   9.000
32538SOL    HW299454  14.359  13.352   9.101
32539SOL     OW99455   7.848   2.354   5.232
32539SOL    HW199456   7.871   2.262   5.244
32539SOL    HW299457   7.853   2.368   5.137
32540SOL     OW99458  10.345   4.954  13.170
32540SOL    HW199459  10.437   4.973  13.155
32540SOL    HW299460  10.309   5.036  13.205
32541SOL     OW99461   8.428   6.197   1.329
32541SOL    HW199462   8.501   6.258   1.320
32541SOL    HW299463   8.380   6.228   1.406
32542SOL     OW99464   1.689   3.112  14.399
32542SOL    HW199465   1.651   3.025  14.395
32542SOL    HW299466   1.635   3.160  14.461
32543SOL     OW99467   8.101   5.670   2.816
32543SOL    HW199468   8.130   5.637   2.901
32543SOL    HW299469   8.155   5.748   2.801
32544SOL     OW99470   5.913  10.280   4.933
32544SOL    HW199471   5.989  10.261   4.989
32544SOL    HW299472   5.914  10.210   4.867
32545SOL     OW99473  11.604  14.294  12.347
32545SOL    HW199474  11.628  14.351  12.274
32545SOL    HW299475  11.686  14.249  12.370
32546SOL     OW99476   9.872   8.786   1.481
32546SOL    HW199477   9.861   8.859   1.542
32546SOL    HW299478   9.888   8.827   1.396
32547SOL     OW99479  10.995   4.013   8.024
32547SOL    HW199480  11.006   4.054   8.110
32547SOL    HW299481  11.062   3.944   8.023
32548SOL     OW99482   7.309   7.174   6.287
32548SOL    HW199483   7.274   7.109   6.225
32548SOL    HW299484   7.404   7.167   6.277
32549SOL     OW99485   7.193  13.545   4.224
32549SOL    HW199486   7.223  13.506   4.306
32549SOL    HW299487   7.267  13.597   4.194
32550SOL     OW99488  11.622   5.336  12.871
32550SOL    HW199489  11.558   5.318  12.803
32550SOL    HW299490  11.677   5.258  12.874
32551SOL     OW99491  14.646  11.858   3.632
32551SOL    HW199492  14.631  11.871   3.726
32551SOL    HW299493  14.737  11.829   3.626
32552SOL     OW99494  13.080   4.431   4.043
32552SOL    HW199495  13.098   4.381   3.963
32552SOL    HW299496  13.165   4.435   4.088
32553SOL     OW99497  11.360  10.332  12.894
32553SOL    HW199498  11.333  10.417  12.860
32553SOL    HW299499  11.410  10.292  12.823
32554SOL     OW99500   1.742   0.485  10.283
32554SOL    HW199501   1.765   0.559  10.339
32554SOL    HW299502   1.825   0.458  10.244
32555SOL     OW99503  12.597  13.947  11.925
32555SOL    HW199504  12.552  14.028  11.945
32555SOL    HW299505  12.608  13.947  11.830
32556SOL     OW99506   3.577  12.115   0.591
32556SOL    HW199507   3.583  12.078   0.503
32556SOL    HW299508   3.487  12.099   0.617
32557SOL     OW99509   3.620   8.382   9.896
32557SOL    HW199510   3.705   8.404   9.934
32557SOL    HW299511   3.572   8.339   9.967
32558SOL     OW99512  14.486  14.206   8.303
32558SOL    HW199513  14.468  14.300   8.307
32558SOL    HW299514  14.437  14.176   8.227
32559SOL     OW99515   2.436   2.431   1.058
32559SOL    HW199516   2.413   2.485   1.134
32559SOL    HW299517   2.364   2.444   0.997
32560SOL     OW99518   1.662   0.753   0.325
32560SOL    HW199519   1.636   0.699   0.250
32560SOL    HW299520   1.750   0.785   0.302
32561SOL     OW99521   2.642   5.692  11.001
32561SOL    HW199522   2.609   5.779  11.027
32561SOL    HW299523   2.714   5.711  10.940
32562SOL     OW99524  11.083   8.353   0.215
32562SOL    HW199525  11.066   8.288   0.146
32562SOL    HW299526  11.038   8.319   0.292
32563SOL     OW99527  12.736  11.979  13.023
32563SOL    HW199528  12.804  11.916  13.001
32563SOL    HW299529  12.659  11.949  12.974
32564SOL     OW99530   3.289  14.058   5.333
32564SOL    HW199531   3.259  13.977   5.374
32564SOL    HW299532   3.364  14.031   5.279
32565SOL     OW99533   7.347   4.312   2.846
32565SOL    HW199534   7.318   4.385   2.789
32565SOL    HW299535   7.336   4.234   2.791
32566SOL     OW99536   1.696   0.810   2.720
32566SOL    HW199537   1.774   0.864   2.707
32566SOL    HW299538   1.646   0.855   2.788
32567SOL     OW99539  11.538   9.422  12.253
32567SOL    HW199540  11.609   9.387  12.307
32567SOL    HW299541  11.485   9.474  12.314
32568SOL     OW99542   6.304   7.827  13.262
32568SOL    HW199543   6.370   7.795  13.323
32568SOL    HW299544   6.325   7.784  13.179
32569SOL     OW99545   1.668   9.804   7.795
32569SOL    HW199546   1.756   9.776   7.770
32569SOL    HW299547   1.638   9.737   7.856
32570SOL     OW99548   9.732   8.284  13.765
32570SOL    HW199549   9.658   8.260  13.821
32570SOL    HW299550   9.695   8.343  13.700
32571SOL     OW99551  14.142   5.876   7.961
32571SOL    HW199552  14.226   5.887   7.916
32571SOL    HW299553  14.129   5.958   8.008
32572SOL     OW99554   0.469   7.935  14.635
32572SOL    HW199555   0.500   7.977  14.715
32572SOL    HW299556   0.384   7.897  14.658
32573SOL     OW99557   6.271   1.345   7.078
32573SOL    HW199558   6.330   1.305   7.142
32573SOL    HW299559   6.247   1.429   7.118
32574SOL     OW99560  13.983   0.102   7.885
32574SOL    HW199561  14.015   0.012   7.882
32574SOL    HW299562  14.026   0.139   7.962
32575SOL     OW99563   3.600   8.821  13.933
32575SOL    HW199564   3.578   8.873  14.010
32575SOL    HW299565   3.605   8.885  13.862
32576SOL     OW99566  14.823   6.230   1.278
32576SOL    HW199567  14.755   6.237   1.345
32576SOL    HW299568  14.839   6.320   1.251
32577SOL     OW99569  14.568  12.532  13.324
32577SOL    HW199570  14.610  12.594  13.385
32577SOL    HW299571  14.567  12.449  13.371
32578SOL     OW99572   9.069   4.529   1.967
32578SOL    HW199573   9.158   4.498   1.956
32578SOL    HW299574   9.071   4.580   2.048
32579SOL     OW99575   4.036   2.708  13.745
32579SOL    HW199576   4.098   2.691  13.816
32579SOL    HW299577   3.988   2.625  13.734
32580SOL     OW99578  11.241   7.281  12.465
32580SOL    HW199579  11.180   7.283  12.539
32580SOL    HW299580  11.302   7.353  12.482
32581SOL     OW99581   3.566   0.489  13.640
32581SOL    HW199582   3.489   0.496  13.583
32581SOL    HW299583   3.530   0.482  13.728
32582SOL     OW99584  10.703  12.635   6.631
32582SOL    HW199585  10.614  12.640   6.666
32582SOL    HW299586  10.720  12.541   6.622
32583SOL     OW99587   7.842   5.385   8.839
32583SOL    HW199588   7.869   5.438   8.914
32583SOL    HW299589   7.839   5.446   8.766
32584SOL     OW99590  14.800  11.669  11.210
32584SOL    HW199591  14.782  11.688  11.118
32584SOL    HW299592  14.718  11.633  11.243
32585SOL     OW99593  14.435  12.820   1.873
32585SOL    HW199594  14.349  12.858   1.854
32585SOL    HW299595  14.421  12.725   1.867
32586SOL     OW99596  10.889  13.971   5.050
32586SOL    HW199597  10.812  14.021   5.079
32586SOL    HW299598  10.902  13.996   4.959
32587SOL     OW99599   2.437  13.385  12.222
32587SOL    HW199600   2.433  13.455  12.288
32587SOL    HW299601   2.435  13.304  12.274
32588SOL     OW99602   0.912   7.149   9.225
32588SOL    HW199603   0.960   7.068   9.243
32588SOL    HW299604   0.917   7.199   9.306
32589SOL     OW99605   6.098   7.372   9.360
32589SOL    HW199606   6.160   7.437   9.393
32589SOL    HW299607   6.096   7.387   9.265
32590SOL     OW99608   2.442   6.623  11.317
32590SOL    HW199609   2.424   6.659  11.229
32590SOL    HW299610   2.372   6.659  11.372
32591SOL     OW99611   1.802   8.000   3.070
32591SOL    HW199612   1.839   7.913   3.056
32591SOL    HW299613   1.852   8.057   3.012
32592SOL     OW99614   0.417   5.712  10.323
32592SOL    HW199615   0.331   5.675  10.340
32592SOL    HW299616   0.478   5.640  10.338
32593SOL     OW99617  14.812   0.901  10.517
32593SOL    HW199618  14.768   0.837  10.461
32593SOL    HW299619  14.820   0.857  10.601
32594SOL     OW99620   0.922   6.536  14.197
32594SOL    HW199621   0.873   6.491  14.266
32594SOL    HW299622   0.917   6.477  14.121
32595SOL     OW99623  13.434   8.243   9.592
32595SOL    HW199624  13.479   8.324   9.618
32595SOL    HW299625  13.384   8.218   9.670
32596SOL     OW99626   7.149  13.520   6.594
32596SOL    HW199627   7.131  13.583   6.525
32596SOL    HW299628   7.213  13.564   6.651
32597SOL     OW99629  11.255  14.137  14.185
32597SOL    HW199630  11.189  14.152  14.252
32597SOL    HW299631  11.205  14.122  14.105
32598SOL     OW99632  10.943   7.919   6.605
32598SOL    HW199633  10.921   7.998   6.555
32598SOL    HW299634  10.983   7.861   6.541
32599SOL     OW99635   5.882   9.034   7.108
32599SOL    HW199636   5.845   9.021   7.195
32599SOL    HW299637   5.950   8.967   7.101
32600SOL     OW99638  10.340   0.462   4.312
32600SOL    HW199639  10.358   0.513   4.233
32600SOL    HW299640  10.422   0.416   4.330
32601SOL     OW99641  11.233   3.377   5.666
32601SOL    HW199642  11.206   3.469   5.676
32601SOL    HW299643  11.255   3.349   5.755
32602SOL     OW99644   1.058   4.779  10.801
32602SOL    HW199645   1.118   4.796  10.873
32602SOL    HW299646   0.971   4.794  10.837
32603SOL     OW99647  12.630   2.319   1.419
32603SOL    HW199648  12.620   2.274   1.335
32603SOL    HW299649  12.540   2.338   1.447
32604SOL     OW99650   3.766   8.662   3.447
32604SOL    HW199651   3.813   8.651   3.364
32604SOL    HW299652   3.829   8.636   3.514
32605SOL     OW99653   5.833   9.578  14.304
32605SOL    HW199654   5.836   9.657  14.251
32605SOL    HW299655   5.765   9.594  14.369
32606SOL     OW99656   4.406  13.371   0.043
32606SOL    HW199657   4.484  13.316   0.042
32606SOL    HW299658   4.392  13.394  14.830
32607SOL     OW99659   3.992   4.094   9.914
32607SOL    HW199660   4.054   4.136   9.974
32607SOL    HW299661   3.938   4.165   9.880
32608SOL     OW99662   3.611   7.860   4.859
32608SOL    HW199663   3.686   7.811   4.894
32608SOL    HW299664   3.541   7.796   4.854
32609SOL     OW99665   3.878   1.199   2.762
32609SOL    HW199666   3.966   1.162   2.759
32609SOL    HW299667   3.845   1.186   2.673
32610SOL     OW99668   6.730  10.970  10.926
32610SOL    HW199669   6.656  10.937  10.875
32610SOL    HW299670   6.803  10.971  10.864
32611SOL     OW99671   1.043  11.407   1.764
32611SOL    HW199672   1.119  11.417   1.708
32611SOL    HW299673   1.022  11.314   1.760
32612SOL     OW99674   3.121   2.859   9.266
32612SOL    HW199675   3.100   2.938   9.315
32612SOL    HW299676   3.036   2.818   9.249
32613SOL     OW99677   4.540   5.843  13.703
32613SOL    HW199678   4.585   5.927  13.712
32613SOL    HW299679   4.540   5.825  13.609
32614SOL     OW99680   1.866   4.394   9.313
32614SOL    HW199681   1.817   4.476   9.310
32614SOL    HW299682   1.908   4.388   9.227
32615SOL     OW99683   7.668   0.950   4.395
32615SOL    HW199684   7.724   0.899   4.337
32615SOL    HW299685   7.681   1.041   4.366
32616SOL     OW99686   3.307   4.767  13.755
32616SOL    HW199687   3.243   4.708  13.796
32616SOL    HW299688   3.318   4.838  13.818
32617SOL     OW99689  14.167  10.427   8.459
32617SOL    HW199690  14.081  10.469   8.463
32617SOL    HW299691  14.220  10.476   8.522
32618SOL     OW99692   4.826  12.855  10.907
32618SOL    HW199693   4.835  12.893  10.819
32618SOL    HW299694   4.913  12.821  10.927
32619SOL     OW99695   1.839   0.395   7.396
32619SOL    HW199696   1.811   0.441   7.317
32619SOL    HW299697   1.757   0.366   7.437
32620SOL     OW99698   4.049   0.878   6.295
32620SOL    HW199699   3.989   0.808   6.324
32620SOL    HW299700   3.993   0.937   6.244
32621SOL     OW99701   0.779   3.892   4.000
32621SOL    HW199702   0.750   3.801   4.004
32621SOL    HW299703   0.873   3.888   4.019
32622SOL     OW99704   6.111   3.019   8.091
32622SOL    HW199705   6.139   3.063   8.171
32622SOL    HW299706   6.115   3.087   8.024
32623SOL     OW99707  12.473   5.425  11.362
32623SOL    HW199708  12.550   5.464  11.402
32623SOL    HW299709  12.412   5.410  11.434
32624SOL     OW99710   2.300   2.110   5.727
32624SOL    HW199711   2.372   2.172   5.740
32624SOL    HW299712   2.224   2.154   5.764
32625SOL     OW99713   7.579   0.437   5.027
32625SOL    HW199714   7.543   0.463   4.943
32625SOL    HW299715   7.554   0.507   5.087
32626SOL     OW99716   0.906   1.756   4.433
32626SOL    HW199717   0.995   1.725   4.414
32626SOL    HW299718   0.898   1.838   4.383
32627SOL     OW99719  10.532  13.042   7.111
32627SOL    HW199720  10.483  12.986   7.050
32627SOL    HW299721  10.548  13.122   7.062
32628SOL     OW99722   4.846   4.661  10.727
32628SOL    HW199723   4.842   4.749  10.764
32628SOL    HW299724   4.864   4.675  10.634
32629SOL     OW99725   4.461   1.370   2.163
32629SOL    HW199726   4.404   1.431   2.116
32629SOL    HW299727   4.418   1.285   2.155
32630SOL     OW99728  12.339   9.629   3.089
32630SOL    HW199729  12.408   9.593   3.033
32630SOL    HW299730  12.326   9.718   3.058
32631SOL     OW99731  11.496   2.831  11.448
32631SOL    HW199732  11.540   2.849  11.531
32631SOL    HW299733  11.503   2.913  11.400
32632SOL     OW99734   0.610   8.297  12.738
32632SOL    HW199735   0.635   8.219  12.687
32632SOL    HW299736   0.691   8.347  12.745
32633SOL     OW99737  10.698   9.116   1.049
32633SOL    HW199738  10.752   9.161   1.115
32633SOL    HW299739  10.608   9.125   1.081
32634SOL     OW99740   2.719  10.343  13.756
32634SOL    HW199741   2.674  10.427  13.761
32634SOL    HW299742   2.791  10.351  13.819
32635SOL     OW99743  13.907  12.546   8.040
32635SOL    HW199744  13.829  12.583   8.081
32635SOL    HW299745  13.971  12.540   8.111
32636SOL     OW99746  10.712   4.676  10.311
32636SOL    HW199747  10.746   4.624  10.384
32636SOL    HW299748  10.781   4.739  10.293
32637SOL     OW99749   6.097  13.165   9.163
32637SOL    HW199750   6.182  13.207   9.164
32637SOL    HW299751   6.096  13.113   9.083
32638SOL     OW99752   0.514   1.096   4.994
32638SOL    HW199753   0.597   1.059   5.023
32638SOL    HW299754   0.506   1.070   4.902
32639SOL     OW99755   8.111   7.200  11.360
32639SOL    HW199756   8.167   7.275  11.338
32639SOL    HW299757   8.130   7.136  11.291
32640SOL     OW99758  11.251   2.777   1.551
32640SOL    HW199759  11.159   2.788   1.574
32640SOL    HW299760  11.276   2.861   1.513
32641SOL     OW99761   2.674   4.434   8.897
32641SOL    HW199762   2.647   4.453   8.807
32641SOL    HW299763   2.748   4.375   8.888
32642SOL     OW99764  11.899   9.251  12.848
32642SOL    HW199765  11.809   9.280  12.857
32642SOL    HW299766  11.896   9.183  12.781
32643SOL     OW99767  12.030   7.142   1.499
32643SOL    HW199768  11.956   7.083   1.508
32643SOL    HW299769  12.034   7.162   1.405
32644SOL     OW99770   4.214   9.094  13.761
32644SOL    HW199771   4.158   9.023  13.730
32644SOL    HW299772   4.222   9.079  13.856
32645SOL     OW99773   6.535  12.185   9.377
32645SOL    HW199774   6.556  12.267   9.423
32645SOL    HW299775   6.455  12.154   9.419
32646SOL     OW99776   8.820   2.802  11.251
32646SOL    HW199777   8.813   2.793  11.156
32646SOL    HW299778   8.914   2.794  11.269
32647SOL     OW99779  10.517  10.452  14.307
32647SOL    HW199780  10.597  10.430  14.259
32647SOL    HW299781  10.511  10.385  14.375
32648SOL     OW99782   4.649  13.213   2.011
32648SOL    HW199783   4.668  13.169   1.929
32648SOL    HW299784   4.670  13.305   1.995
32649SOL     OW99785   3.910  11.780  12.668
32649SOL    HW199786   3.996  11.822  12.678
32649SOL    HW299787   3.929  11.695  12.629
32650SOL     OW99788   5.872  10.672  12.270
32650SOL    HW199789   5.844  10.601  12.327
32650SOL    HW299790   5.836  10.650  12.184
32651SOL     OW99791   6.158  10.524  12.762
32651SOL    HW199792   6.236  10.483  12.799
32651SOL    HW299793   6.086  10.490  12.816
32652SOL     OW99794   5.796  12.145  11.160
32652SOL    HW199795   5.727  12.175  11.220
32652SOL    HW299796   5.878  12.173  11.202
32653SOL     OW99797  13.655   8.044   5.869
32653SOL    HW199798  13.652   8.088   5.954
32653SOL    HW299799  13.603   8.099   5.811
32654SOL     OW99800   5.652   9.724   5.108
32654SOL    HW199801   5.665   9.819   5.112
32654SOL    HW299802   5.740   9.688   5.116
32655SOL     OW99803   4.959  10.695   9.887
32655SOL    HW199804   4.996  10.609   9.907
32655SOL    HW299805   4.890  10.707   9.952
32656SOL     OW99806   8.875   7.250   1.503
32656SOL    HW199807   8.898   7.236   1.595
32656SOL    HW299808   8.785   7.283   1.505
32657SOL     OW99809   9.467   2.393   8.944
32657SOL    HW199810   9.492   2.478   8.980
32657SOL    HW299811   9.517   2.386   8.863
32658SOL     OW99812   6.211   9.773  13.869
32658SOL    HW199813   6.239   9.759  13.778
32658SOL    HW299814   6.291   9.794  13.916
32659SOL     OW99815   9.188   3.827   4.649
32659SOL    HW199816   9.162   3.900   4.592
32659SOL    HW299817   9.227   3.869   4.726
32660SOL     OW99818   2.206   7.623   7.430
32660SOL    HW199819   2.244   7.644   7.345
32660SOL    HW299820   2.170   7.706   7.461
32661SOL     OW99821   3.231   5.545   7.098
32661SOL    HW199822   3.199   5.602   7.168
32661SOL    HW299823   3.151   5.511   7.057
32662SOL     OW99824   6.310   6.597   8.428
32662SOL    HW199825   6.370   6.554   8.488
32662SOL    HW299826   6.255   6.526   8.394
32663SOL     OW99827   2.726   9.593   9.312
32663SOL    HW199828   2.652   9.654   9.306
32663SOL    HW299829   2.768   9.596   9.226
32664SOL     OW99830  10.389   5.028   6.491
32664SOL    HW199831  10.341   5.111   6.488
32664SOL    HW299832  10.477   5.052   6.519
32665SOL     OW99833  13.637   8.831  13.345
32665SOL    HW199834  13.720   8.879  13.341
32665SOL    HW299835  13.610   8.837  13.437
32666SOL     OW99836  13.929   5.169   7.469
32666SOL    HW199837  14.008   5.224   7.469
32666SOL    HW299838  13.959   5.085   7.505
32667SOL     OW99839  14.126  13.071  13.178
32667SOL    HW199840  14.207  13.096  13.223
32667SOL    HW299841  14.153  13.056  13.087
32668SOL     OW99842  14.292   4.859  14.223
32668SOL    HW199843  14.238   4.785  14.252
32668SOL    HW299844  14.267   4.873  14.131
32669SOL     OW99845   7.391   1.258   1.513
32669SOL    HW199846   7.332   1.218   1.449
32669SOL    HW299847   7.441   1.184   1.549
32670SOL     OW99848  12.370   8.884   8.766
32670SOL    HW199849  12.354   8.949   8.835
32670SOL    HW299850  12.350   8.930   8.684
32671SOL     OW99851  14.329   8.897  10.402
32671SOL    HW199852  14.381   8.975  10.422
32671SOL    HW299853  14.260   8.896  10.468
32672SOL     OW99854  11.388   2.863   3.768
32672SOL    HW199855  11.350   2.800   3.708
32672SOL    HW299856  11.395   2.816   3.852
32673SOL     OW99857   3.371   7.408   4.403
32673SOL    HW199858   3.355   7.453   4.320
32673SOL    HW299859   3.354   7.316   4.383
32674SOL     OW99860   3.325  14.174   4.874
32674SOL    HW199861   3.409  14.191   4.917
32674SOL    HW299862   3.318  14.242   4.807
32675SOL     OW99863  10.682   7.736   0.131
32675SOL    HW199864  10.634   7.791   0.193
32675SOL    HW299865  10.717   7.798   0.067
32676SOL     OW99866  13.599  12.647   6.962
32676SOL    HW199867  13.561  12.570   6.920
32676SOL    HW299868  13.687  12.654   6.926
32677SOL     OW99869   4.889   9.544   2.444
32677SOL    HW199870   4.836   9.473   2.479
32677SOL    HW299871   4.827   9.616   2.431
32678SOL     OW99872   2.355   4.662   6.406
32678SOL    HW199873   2.282   4.663   6.469
32678SOL    HW299874   2.382   4.754   6.402
32679SOL     OW99875  11.511   1.030   7.321
32679SOL    HW199876  11.472   1.089   7.256
32679SOL    HW299877  11.547   1.089   7.388
32680SOL     OW99878   0.688  11.189  14.205
32680SOL    HW199879   0.735  11.153  14.280
32680SOL    HW299880   0.596  11.184  14.229
32681SOL     OW99881  12.337  10.873   6.204
32681SOL    HW199882  12.254  10.872   6.156
32681SOL    HW299883  12.312  10.895   6.294
32682SOL     OW99884  11.961  14.772   9.716
32682SOL    HW199885  11.918  14.696   9.756
32682SOL    HW299886  12.047  14.775   9.757
32683SOL     OW99887   2.846  14.474   6.536
32683SOL    HW199888   2.871  14.397   6.586
32683SOL    HW299889   2.818  14.440   6.451
32684SOL     OW99890   3.618   7.183   1.187
32684SOL    HW199891   3.690   7.132   1.151
32684SOL    HW299892   3.656   7.268   1.206
32685SOL     OW99893  12.577  10.270   0.990
32685SOL    HW199894  12.547  10.348   0.943
32685SOL    HW299895  12.666  10.254   0.957
32686SOL     OW99896   4.133  10.283  11.210
32686SOL    HW199897   4.210  10.239  11.246
32686SOL    HW299898   4.168  10.343  11.144
32687SOL     OW99899  14.334   6.025  12.292
32687SOL    HW199900  14.285   6.041  12.211
32687SOL    HW299901  14.270   6.039  12.362
32688SOL     OW99902  10.236   4.628  11.925
32688SOL    HW199903  10.313   4.628  11.868
32688SOL    HW299904  10.268   4.596  12.009
32689SOL     OW99905  11.106   0.653   0.327
32689SOL    HW199906  11.106   0.563   0.358
32689SOL    HW299907  11.016   0.683   0.337
32690SOL     OW99908   5.181  12.381  13.700
32690SOL    HW199909   5.225  12.427  13.628
32690SOL    HW299910   5.250  12.331  13.743
32691SOL     OW99911   4.386  14.580   7.508
32691SOL    HW199912   4.398  14.519   7.436
32691SOL    HW299913   4.475  14.605   7.533
32692SOL     OW99914   6.074   5.292   2.030
32692SOL    HW199915   6.096   5.336   2.112
32692SOL    HW299916   6.156   5.289   1.981
32693SOL     OW99917   9.190   3.098   4.979
32693SOL    HW199918   9.231   3.011   4.971
32693SOL    HW299919   9.163   3.120   4.889
32694SOL     OW99920   1.657  14.402   6.901
32694SOL    HW199921   1.569  14.411   6.865
32694SOL    HW299922   1.704  14.350   6.836
32695SOL     OW99923  11.782  10.523  11.496
32695SOL    HW199924  11.779  10.431  11.520
32695SOL    HW299925  11.736  10.568  11.567
32696SOL     OW99926   4.563   7.164  14.526
32696SOL    HW199927   4.582   7.147  14.618
32696SOL    HW299928   4.513   7.087  14.497
32697SOL     OW99929   7.299  14.022  14.233
32697SOL    HW199930   7.302  13.945  14.291
32697SOL    HW299931   7.216  14.065  14.255
32698SOL     OW99932  10.810   3.326   9.623
32698SOL    HW199933  10.814   3.413   9.662
32698SOL    HW299934  10.821   3.340   9.529
32699SOL     OW99935  11.362  14.458  14.025
32699SOL    HW199936  11.285  14.420  13.982
32699SOL    HW299937  11.436  14.412  13.985
32700SOL     OW99938   0.449   3.840   2.853
32700SOL    HW199939   0.429   3.876   2.940
32700SOL    HW299940   0.379   3.777   2.837
32701SOL     OW99941  11.640   3.921  11.680
32701SOL    HW199942  11.571   3.863  11.713
32701SOL    HW299943  11.604   4.009  11.689
32702SOL     OW99944  10.795  14.169   1.424
32702SOL    HW199945  10.703  14.162   1.447
32702SOL    HW299946  10.829  14.080   1.435
32703SOL     OW99947   8.114   7.122  12.293
32703SOL    HW199948   8.081   7.060  12.229
32703SOL    HW299949   8.171   7.071  12.350
32704SOL     OW99950   7.711   1.135   1.888
32704SOL    HW199951   7.761   1.108   1.811
32704SOL    HW299952   7.709   1.057   1.944
32705SOL     OW99953  11.400   4.436  11.599
32705SOL    HW199954  11.470   4.501  11.609
32705SOL    HW299955  11.424   4.385  11.523
32706SOL     OW99956   4.845   4.730   6.176
32706SOL    HW199957   4.782   4.800   6.194
32706SOL    HW299958   4.825   4.702   6.087
32707SOL     OW99959  10.194   7.223  11.369
32707SOL    HW199960  10.104   7.245  11.397
32707SOL    HW299961  10.182   7.154  11.304
32708SOL     OW99962   9.155   9.372  11.694
32708SOL    HW199963   9.061   9.389  11.698
32708SOL    HW299964   9.195   9.458  11.706
32709SOL     OW99965   9.393   1.724   9.522
32709SOL    HW199966   9.370   1.797   9.579
32709SOL    HW299967   9.414   1.652   9.581
32710SOL     OW99968   0.239   9.161  14.364
32710SOL    HW199969   0.167   9.097  14.372
32710SOL    HW299970   0.304   9.116  14.310
32711SOL     OW99971   4.394   0.482   3.245
32711SOL    HW199972   4.340   0.457   3.320
32711SOL    HW299973   4.382   0.411   3.182
32712SOL     OW99974   9.712   4.762  11.041
32712SOL    HW199975   9.700   4.762  11.136
32712SOL    HW299976   9.806   4.748  11.029
32713SOL     OW99977  11.783   0.466   4.093
32713SOL    HW199978  11.846   0.475   4.022
32713SOL    HW299979  11.833   0.432   4.167
32714SOL     OW99980  12.022   9.414   1.204
32714SOL    HW199981  11.987   9.333   1.169
32714SOL    HW299982  11.948   9.454   1.251
32715SOL     OW99983   9.866   3.397   1.072
32715SOL    HW199984   9.845   3.483   1.035
32715SOL    HW299985   9.783   3.364   1.105
32716SOL     OW99986   5.432  10.470   4.034
32716SOL    HW199987   5.417  10.390   3.983
32716SOL    HW299988   5.517  10.501   4.005
32717SOL     OW99989   6.116   4.272  10.599
32717SOL    HW199990   6.123   4.240  10.689
32717SOL    HW299991   6.141   4.364  10.605
32718SOL     OW99992   1.952  12.553  13.042
32718SOL    HW199993   1.913  12.639  13.025
32718SOL    HW299994   1.973  12.518  12.955
32719SOL     OW99995   2.884   0.042   7.838
32719SOL    HW199996   2.838  14.841   7.863
32719SOL    HW299997   2.818   0.093   7.790
32720SOL     OW99998   7.496   7.131   3.667
32720SOL    HW199999   7.430   7.074   3.628
32720SOL    HW2    0   7.475   7.219   3.635
32721SOL     OW    1   9.249   0.996  12.682
32721SOL    HW1    2   9.294   1.079  12.701
32721SOL    HW2    3   9.273   0.938  12.754
32722SOL     OW    4   0.884  12.993   6.918
32722SOL    HW1    5   0.898  12.991   6.823
32722SOL    HW2    6   0.795  13.027   6.929
32723SOL     OW    7   2.077   9.557   3.598
32723SOL    HW1    8   2.166   9.530   3.576
32723SOL    HW2    9   2.051   9.614   3.526
32724SOL     OW   10   6.802  14.674   9.923
32724SOL    HW1   11   6.731  14.668   9.987
32724SOL    HW2   12   6.845  14.757   9.943
32725SOL     OW   13  14.017   4.225  12.038
32725SOL    HW1   14  14.048   4.135  12.030
32725SOL    HW2   15  14.006   4.255  11.948
32726SOL     OW   16   5.696  11.888   9.009
32726SOL    HW1   17   5.680  11.815   9.069
32726SOL    HW2   18   5.683  11.967   9.062
32727SOL     OW   19   6.228  12.159   5.937
32727SOL    HW1   20   6.288  12.128   5.869
32727SOL    HW2   21   6.275  12.146   6.019
32728SOL     OW   22   4.187  13.652  10.758
32728SOL    HW1   23   4.149  13.730  10.799
32728SOL    HW2   24   4.246  13.687  10.692
32729SOL     OW   25   0.507  11.591   9.337
32729SOL    HW1   26   0.515  11.643   9.417
32729SOL    HW2   27   0.565  11.635   9.274
32730SOL     OW   28   8.592   2.996   0.745
32730SOL    HW1   29   8.670   3.051   0.746
32730SOL    HW2   30   8.570   2.987   0.652
32731SOL     OW   31  10.560  13.021   4.544
32731SOL    HW1   32  10.543  12.980   4.459
32731SOL    HW2   33  10.504  12.972   4.605
32732SOL     OW   34   3.339  10.082   6.746
32732SOL    HW1   35   3.428  10.076   6.782
32732SOL    HW2   36   3.334  10.171   6.711
32733SOL     OW   37   3.926  12.073  10.057
32733SOL    HW1   38   3.939  12.148  10.114
32733SOL    HW2   39   3.967  12.000  10.102
32734SOL     OW   40  13.184   5.032  14.769
32734SOL    HW1   41  13.253   4.970  14.793
32734SOL    HW2   42  13.163   5.077  14.851
32735SOL     OW   43   4.677  11.529   3.464
32735SOL    HW1   44   4.616  11.472   3.417
32735SOL    HW2   45   4.690  11.486   3.548
32736SOL     OW   46   8.422   0.589   8.529
32736SOL    HW1   47   8.392   0.643   8.456
32736SOL    HW2   48   8.508   0.556   8.501
32737SOL     OW   49  13.825  10.389   7.379
32737SOL    HW1   50  13.910  10.365   7.417
32737SOL    HW2   51  13.800  10.469   7.424
32738SOL     OW   52  12.613   2.475  10.966
32738SOL    HW1   53  12.700   2.455  11.001
32738SOL    HW2   54  12.604   2.419  10.889
32739SOL     OW   55   8.111  12.512   4.311
32739SOL    HW1   56   8.072  12.491   4.396
32739SOL    HW2   57   8.132  12.605   4.317
32740SOL     OW   58   3.410  12.472  10.732
32740SOL    HW1   59   3.458  12.466  10.815
32740SOL    HW2   60   3.477  12.496  10.668
32741SOL     OW   61   7.902   9.684   7.322
32741SOL    HW1   62   7.808   9.674   7.308
32741SOL    HW2   63   7.941   9.664   7.237
32742SOL     OW   64   5.055  12.535  13.921
32742SOL    HW1   65   4.982  12.579  13.877
32742SOL    HW2   66   5.115  12.511  13.850
32743SOL     OW   67  13.312   1.033  14.670
32743SOL    HW1   68  13.367   1.072  14.602
32743SOL    HW2   69  13.299   1.104  14.733
32744SOL     OW   70   5.443   0.868   5.377
32744SOL    HW1   71   5.360   0.828   5.350
32744SOL    HW2   72   5.433   0.882   5.471
32745SOL     OW   73  11.761  10.867   8.753
32745SOL    HW1   74  11.697  10.822   8.699
32745SOL    HW2   75  11.757  10.958   8.724
32746SOL     OW   76   0.199   8.286   5.441
32746SOL    HW1   77   0.181   8.312   5.350
32746SOL    HW2   78   0.236   8.364   5.481
32747SOL     OW   79   0.523   8.465   0.296
32747SOL    HW1   80   0.433   8.466   0.328
32747SOL    HW2   81   0.576   8.482   0.375
32748SOL     OW   82   5.566   9.430  12.274
32748SOL    HW1   83   5.531   9.426  12.185
32748SOL    HW2   84   5.659   9.410  12.264
32749SOL     OW   85   6.097  12.236   2.464
32749SOL    HW1   86   6.014  12.195   2.440
32749SOL    HW2   87   6.164  12.182   2.421
32750SOL     OW   88   1.213   0.515   9.168
32750SOL    HW1   89   1.262   0.589   9.205
32750SOL    HW2   90   1.182   0.548   9.083
32751SOL     OW   91  11.311   9.643   2.352
32751SOL    HW1   92  11.225   9.623   2.389
32751SOL    HW2   93  11.299   9.727   2.307
32752SOL     OW   94   0.603   9.575   8.517
32752SOL    HW1   95   0.649   9.492   8.507
32752SOL    HW2   96   0.572   9.575   8.607
32753SOL     OW   97   0.049   8.093   4.904
32753SOL    HW1   98  14.877   8.103   4.985
32753SOL    HW2   99   0.018   8.011   4.867
32754SOL     OW  100   2.293   5.737   9.097
32754SOL    HW1  101   2.336   5.818   9.071
32754SOL    HW2  102   2.272   5.693   9.015
32755SOL     OW  103  13.193  13.735  11.674
32755SOL    HW1  104  13.238  13.713  11.756
32755SOL    HW2  105  13.102  13.710  11.689
32756SOL     OW  106   3.852  13.389   8.748
32756SOL    HW1  107   3.937  13.379   8.791
32756SOL    HW2  108   3.868  13.452   8.678
32757SOL     OW  109   1.829   1.299   2.961
32757SOL    HW1  110   1.759   1.235   2.955
32757SOL    HW2  111   1.909   1.249   2.941
32758SOL     OW  112   2.432   0.465   0.029
32758SOL    HW1  113   2.380   0.504   0.100
32758SOL    HW2  114   2.452   0.377   0.060
32759SOL     OW  115   3.747   3.174   7.848
32759SOL    HW1  116   3.730   3.119   7.772
32759SOL    HW2  117   3.739   3.115   7.923
32760SOL     OW  118  14.825  12.636  10.221
32760SOL    HW1  119  14.736  12.661  10.197
32760SOL    HW2  120   0.001  12.674  10.152
32761SOL     OW  121   8.394   7.622  11.434
32761SOL    HW1  122   8.455   7.668  11.376
32761SOL    HW2  123   8.333   7.577  11.374
32762SOL     OW  124   6.954  12.841   7.271
32762SOL    HW1  125   6.927  12.750   7.275
32762SOL    HW2  126   6.994  12.851   7.184
32763SOL     OW  127  11.376  14.603  10.924
32763SOL    HW1  128  11.401  14.646  10.842
32763SOL    HW2  129  11.340  14.673  10.978
32764SOL     OW  130  14.340  10.140   7.227
32764SOL    HW1  131  14.386  10.160   7.146
32764SOL    HW2  132  14.254  10.108   7.199
32765SOL     OW  133   3.471   8.080  10.173
32765SOL    HW1  134   3.528   8.155  10.189
32765SOL    HW2  135   3.427   8.101  10.091
32766SOL     OW  136   7.646   2.788  13.779
32766SOL    HW1  137   7.599   2.722  13.830
32766SOL    HW2  138   7.591   2.801  13.701
32767SOL     OW  139  12.203   2.362   5.733
32767SOL    HW1  140  12.121   2.341   5.688
32767SOL    HW2  141  12.231   2.279   5.772
32768SOL     OW  142   1.352  14.620  10.496
32768SOL    HW1  143   1.438  14.647  10.527
32768SOL    HW2  144   1.367  14.535  10.455
32769SOL     OW  145   6.649   6.709   5.355
32769SOL    HW1  146   6.601   6.662   5.423
32769SOL    HW2  147   6.658   6.645   5.284
32770SOL     OW  148  13.599   5.589   8.733
32770SOL    HW1  149  13.504   5.583   8.719
32770SOL    HW2  150  13.635   5.522   8.675
32771SOL     OW  151  12.648   4.463   7.565
32771SOL    HW1  152  12.682   4.552   7.569
32771SOL    HW2  153  12.560   4.473   7.531
32772SOL     OW  154   5.844  10.420  11.741
32772SOL    HW1  155   5.843  10.508  11.704
32772SOL    HW2  156   5.936  10.402  11.759
32773SOL     OW  157  10.456   6.834  11.209
32773SOL    HW1  158  10.394   6.777  11.255
32773SOL    HW2  159  10.522   6.775  11.173
32774SOL     OW  160   1.649  12.883  10.125
32774SOL    HW1  161   1.633  12.976  10.110
32774SOL    HW2  162   1.585  12.838  10.070
32775SOL     OW  163   0.464   2.138  10.974
32775SOL    HW1  164   0.507   2.064  10.933
32775SOL    HW2  165   0.375   2.107  10.994
32776SOL     OW  166   4.818   4.511   6.475
32776SOL    HW1  167   4.883   4.491   6.407
32776SOL    HW2  168   4.864   4.497   6.557
32777SOL     OW  169   4.332  13.135   0.634
32777SOL    HW1  170   4.332  13.047   0.671
32777SOL    HW2  171   4.422  13.165   0.643
32778SOL     OW  172  13.812   6.878  14.873
32778SOL    HW1  173  13.804   6.785   0.019
32778SOL    HW2  174  13.822   6.876  14.778
32779SOL     OW  175  10.766   5.542   0.347
32779SOL    HW1  176  10.785   5.607   0.414
32779SOL    HW2  177  10.671   5.537   0.345
32780SOL     OW  178  12.488   9.795   5.371
32780SOL    HW1  179  12.515   9.800   5.279
32780SOL    HW2  180  12.547   9.855   5.417
32781SOL     OW  181  12.563  13.817  11.393
32781SOL    HW1  182  12.631  13.851  11.451
32781SOL    HW2  183  12.607  13.752  11.339
32782SOL     OW  184   5.209   8.963   5.887
32782SOL    HW1  185   5.153   8.886   5.880
32782SOL    HW2  186   5.287   8.941   5.836
32783SOL     OW  187   9.649   2.768  10.877
32783SOL    HW1  188   9.569   2.725  10.909
32783SOL    HW2  189   9.709   2.696  10.859
32784SOL     OW  190  13.060  12.096   4.123
32784SOL    HW1  191  13.156  12.092   4.120
32784SOL    HW2  192  13.035  12.023   4.180
32785SOL     OW  193   7.044   0.215  11.306
32785SOL    HW1  194   6.984   0.196  11.378
32785SOL    HW2  195   6.987   0.244  11.235
32786SOL     OW  196   7.967   1.197   6.565
32786SOL    HW1  197   7.936   1.270   6.512
32786SOL    HW2  198   7.908   1.196   6.641
32787SOL     OW  199   9.054  14.010  13.255
32787SOL    HW1  200   8.982  14.070  13.236
32787SOL    HW2  201   9.013  13.937  13.300
32788SOL     OW  202  13.806   6.118   5.849
32788SOL    HW1  203  13.853   6.096   5.769
32788SOL    HW2  204  13.770   6.205   5.833
32789SOL     OW  205   2.205  10.639   3.476
32789SOL    HW1  206   2.296  10.617   3.455
32789SOL    HW2  207   2.171  10.679   3.396
32790SOL     OW  208   6.959  10.830  13.508
32790SOL    HW1  209   6.916  10.899  13.458
32790SOL    HW2  210   6.942  10.750  13.459
32791SOL     OW  211   6.770  14.316   3.102
32791SOL    HW1  212   6.782  14.238   3.048
32791SOL    HW2  213   6.859  14.343   3.125
32792SOL     OW  214   7.699   2.070   7.209
32792SOL    HW1  215   7.700   1.995   7.268
32792SOL    HW2  216   7.658   2.140   7.260
32793SOL     OW  217   3.835   1.981  10.388
32793SOL    HW1  218   3.910   1.928  10.416
32793SOL    HW2  219   3.787   1.998  10.469
32794SOL     OW  220   6.288   9.797   9.292
32794SOL    HW1  221   6.343   9.862   9.334
32794SOL    HW2  222   6.210   9.845   9.265
32795SOL     OW  223   0.960   0.214   5.894
32795SOL    HW1  224   0.960   0.149   5.824
32795SOL    HW2  225   1.038   0.195   5.946
32796SOL     OW  226   4.229   8.196   8.573
32796SOL    HW1  227   4.151   8.222   8.622
32796SOL    HW2  228   4.301   8.240   8.617
32797SOL     OW  229   0.665   2.157  12.351
32797SOL    HW1  230   0.696   2.247  12.347
32797SOL    HW2  231   0.682   2.122  12.263
32798SOL     OW  232   0.595  11.437   7.041
32798SOL    HW1  233   0.670  11.392   7.002
32798SOL    HW2  234   0.625  11.464   7.128
32799SOL     OW  235  10.487   8.762  10.361
32799SOL    HW1  236  10.463   8.714  10.281
32799SOL    HW2  237  10.554   8.707  10.402
32800SOL     OW  238   2.817   2.815  12.055
32800SOL    HW1  239   2.760   2.792  12.128
32800SOL    HW2  240   2.843   2.905  12.073
32801SOL     OW  241  14.651  13.205  13.356
32801SOL    HW1  242  14.715  13.268  13.324
32801SOL    HW2  243  14.695  13.120  13.347
32802SOL     OW  244   5.056   9.764   1.290
32802SOL    HW1  245   5.065   9.785   1.198
32802SOL    HW2  246   5.013   9.678   1.291
32803SOL     OW  247   0.731  14.422  14.274
32803SOL    HW1  248   0.788  14.497  14.295
32803SOL    HW2  249   0.663  14.459  14.218
32804SOL     OW  250  10.072  10.451   2.611
32804SOL    HW1  251  10.043  10.373   2.657
32804SOL    HW2  252  10.163  10.463   2.637
32805SOL     OW  253  11.625  11.837   3.123
32805SOL    HW1  254  11.717  11.809   3.122
32805SOL    HW2  255  11.580  11.770   3.176
32806SOL     OW  256  11.078   5.266   9.056
32806SOL    HW1  257  11.127   5.245   8.976
32806SOL    HW2  258  11.008   5.324   9.027
32807SOL     OW  259   1.032  10.092   6.115
32807SOL    HW1  260   1.031  10.123   6.205
32807SOL    HW2  261   1.086  10.156   6.068
32808SOL     OW  262  14.036   7.225   7.193
32808SOL    HW1  263  14.076   7.265   7.116
32808SOL    HW2  264  13.953   7.271   7.204
32809SOL     OW  265   5.914  12.298  11.454
32809SOL    HW1  266   5.828  12.312  11.494
32809SOL    HW2  267   5.920  12.363  11.384
32810SOL     OW  268   9.926  14.870   2.853
32810SOL    HW1  269  10.015  14.841   2.875
32810SOL    HW2  270   9.895  14.806   2.790
32811SOL     OW  271   7.610  11.142   7.047
32811SOL    HW1  272   7.657  11.222   7.024
32811SOL    HW2  273   7.539  11.172   7.104
32812SOL     OW  274   6.149   9.620   6.802
32812SOL    HW1  275   6.169   9.712   6.816
32812SOL    HW2  276   6.231   9.574   6.820
32813SOL     OW  277   7.049  14.468   0.264
32813SOL    HW1  278   6.985  14.423   0.209
32813SOL    HW2  279   7.103  14.518   0.203
32814SOL     OW  280   4.023   3.295  11.868
32814SOL    HW1  281   4.079   3.278  11.944
32814SOL    HW2  282   4.077   3.350  11.811
32815SOL     OW  283   8.297  12.865   2.860
32815SOL    HW1  284   8.222  12.859   2.802
32815SOL    HW2  285   8.345  12.942   2.831
32816SOL     OW  286   1.381  10.371   7.602
32816SOL    HW1  287   1.353  10.400   7.689
32816SOL    HW2  288   1.430  10.290   7.619
32817SOL     OW  289   9.099   1.489   8.437
32817SOL    HW1  290   9.108   1.567   8.383
32817SOL    HW2  291   9.096   1.522   8.527
32818SOL     OW  292  11.128   5.719   0.415
32818SOL    HW1  293  11.104   5.632   0.447
32818SOL    HW2  294  11.054   5.775   0.439
32819SOL     OW  295   9.429   1.577   5.258
32819SOL    HW1  296   9.352   1.559   5.311
32819SOL    HW2  297   9.494   1.611   5.320
32820SOL     OW  298   8.856   8.605  14.262
32820SOL    HW1  299   8.897   8.598  14.348
32820SOL    HW2  300   8.924   8.642  14.205
32821SOL     OW  301   2.894   0.724   3.106
32821SOL    HW1  302   2.957   0.660   3.138
32821SOL    HW2  303   2.944   0.777   3.043
32822SOL     OW  304   0.812  11.593  10.952
32822SOL    HW1  305   0.815  11.677  10.998
32822SOL    HW2  306   0.721  11.564  10.961
32823SOL     OW  307   8.462   4.699  11.594
32823SOL    HW1  308   8.511   4.739  11.523
32823SOL    HW2  309   8.376   4.741  11.590
32824SOL     OW  310  11.563  10.958   1.627
32824SOL    HW1  311  11.594  10.978   1.716
32824SOL    HW2  312  11.639  10.919   1.584
32825SOL     OW  313   9.541   1.769  13.554
32825SOL    HW1  314   9.580   1.779  13.467
32825SOL    HW2  315   9.506   1.679  13.554
32826SOL     OW  316   8.283  12.984   4.528
32826SOL    HW1  317   8.359  12.925   4.527
32826SOL    HW2  318   8.294  13.036   4.607
32827SOL     OW  319  11.960   8.462   1.202
32827SOL    HW1  320  11.895   8.515   1.248
32827SOL    HW2  321  11.911   8.386   1.171
32828SOL     OW  322   4.225  12.909  12.480
32828SOL    HW1  323   4.308  12.889  12.522
32828SOL    HW2  324   4.171  12.945  12.550
32829SOL     OW  325   7.599   7.403   3.620
32829SOL    HW1  326   7.564   7.464   3.684
32829SOL    HW2  327   7.685   7.438   3.597
32830SOL     OW  328  14.099  12.229   7.621
32830SOL    HW1  329  14.058  12.292   7.680
32830SOL    HW2  330  14.180  12.273   7.593
32831SOL     OW  331   6.723  13.875  13.760
32831SOL    HW1  332   6.803  13.850  13.712
32831SOL    HW2  333   6.748  13.870  13.852
32832SOL     OW  334   0.304   6.879   3.526
32832SOL    HW1  335   0.332   6.788   3.532
32832SOL    HW2  336   0.363   6.926   3.585
32833SOL     OW  337   0.031  14.396  10.379
32833SOL    HW1  338  14.850  14.321  10.376
32833SOL    HW2  339  14.854  14.471  10.399
32834SOL     OW  340  13.803   9.408   3.754
32834SOL    HW1  341  13.757   9.375   3.832
32834SOL    HW2  342  13.890   9.368   3.759
32835SOL     OW  343  13.560   9.688   8.034
32835SOL    HW1  344  13.565   9.754   8.103
32835SOL    HW2  345  13.564   9.605   8.081
32836SOL     OW  346  10.796   7.013   1.197
32836SOL    HW1  347  10.723   7.074   1.207
32836SOL    HW2  348  10.792   6.986   1.105
32837SOL     OW  349   2.187  13.347  10.387
32837SOL    HW1  350   2.164  13.429  10.430
32837SOL    HW2  351   2.158  13.358  10.297
32838SOL     OW  352   1.275  11.241   4.175
32838SOL    HW1  353   1.314  11.328   4.181
32838SOL    HW2  354   1.265  11.226   4.080
32839SOL     OW  355   5.963   0.421   3.297
32839SOL    HW1  356   6.027   0.369   3.250
32839SOL    HW2  357   6.007   0.505   3.313
32840SOL     OW  358   7.151   4.831   2.772
32840SOL    HW1  359   7.211   4.887   2.822
32840SOL    HW2  360   7.124   4.886   2.698
32841SOL     OW  361   9.749   8.783   8.476
32841SOL    HW1  362   9.708   8.702   8.506
32841SOL    HW2  363   9.843   8.767   8.487
32842SOL     OW  364  10.156  10.123   0.340
32842SOL    HW1  365  10.226  10.104   0.403
32842SOL    HW2  366  10.104  10.191   0.382
32843SOL     OW  367   3.816  10.805   5.942
32843SOL    HW1  368   3.761  10.738   5.902
32843SOL    HW2  369   3.808  10.790   6.036
32844SOL     OW  370   7.417   8.453   9.169
32844SOL    HW1  371   7.480   8.399   9.121
32844SOL    HW2  372   7.358   8.487   9.102
32845SOL     OW  373  14.359   5.056  11.347
32845SOL    HW1  374  14.294   5.115  11.385
32845SOL    HW2  375  14.311   4.974  11.333
32846SOL     OW  376  11.548   1.184  10.015
32846SOL    HW1  377  11.467   1.191  10.065
32846SOL    HW2  378  11.600   1.260  10.040
32847SOL     OW  379  14.392  14.647  10.660
32847SOL    HW1  380  14.319  14.607  10.613
32847SOL    HW2  381  14.354  14.724  10.702
32848SOL     OW  382   8.369  12.600   5.689
32848SOL    HW1  383   8.408  12.652   5.759
32848SOL    HW2  384   8.403  12.512   5.703
32849SOL     OW  385   7.479   1.091  10.642
32849SOL    HW1  386   7.443   1.116  10.727
32849SOL    HW2  387   7.557   1.041  10.662
32850SOL     OW  388  10.376  12.580   0.253
32850SOL    HW1  389  10.281  12.575   0.254
32850SOL    HW2  390  10.396  12.653   0.195
32851SOL     OW  391   6.362   3.352   1.672
32851SOL    HW1  392   6.322   3.365   1.586
32851SOL    HW2  393   6.435   3.292   1.656
32852SOL     OW  394   6.889   7.050   5.903
32852SOL    HW1  395   6.886   7.110   5.978
32852SOL    HW2  396   6.922   7.103   5.831
32853SOL     OW  397  12.055  10.658   1.979
32853SOL    HW1  398  12.104  10.630   1.902
32853SOL    HW2  399  11.965  10.630   1.963
32854SOL     OW  400   4.337   7.086  10.245
32854SOL    HW1  401   4.306   7.042  10.166
32854SOL    HW2  402   4.299   7.174  10.241
32855SOL     OW  403   6.629   7.106   7.603
32855SOL    HW1  404   6.707   7.158   7.583
32855SOL    HW2  405   6.606   7.130   7.693
32856SOL     OW  406   0.470   7.362  11.618
32856SOL    HW1  407   0.557   7.330  11.594
32856SOL    HW2  408   0.482   7.456  11.633
32857SOL     OW  409  11.733   6.509  12.249
32857SOL    HW1  410  11.821   6.545  12.237
32857SOL    HW2  411  11.706   6.484  12.161
32858SOL     OW  412  13.533   6.358   2.664
32858SOL    HW1  413  13.571   6.287   2.613
32858SOL    HW2  414  13.609   6.405   2.700
32859SOL     OW  415  13.335   7.373   1.317
32859SOL    HW1  416  13.422   7.407   1.298
32859SOL    HW2  417  13.347   7.278   1.323
32860SOL     OW  418   1.012   0.626  12.615
32860SOL    HW1  419   0.972   0.571  12.682
32860SOL    HW2  420   1.106   0.606  12.621
32861SOL     OW  421   3.849   2.754  12.949
32861SOL    HW1  422   3.814   2.694  13.015
32861SOL    HW2  423   3.933   2.782  12.985
32862SOL     OW  424   4.536   4.942   9.225
32862SOL    HW1  425   4.528   5.030   9.189
32862SOL    HW2  426   4.540   4.956   9.320
32863SOL     OW  427  11.089   3.583   6.972
32863SOL    HW1  428  11.157   3.523   6.943
32863SOL    HW2  429  11.110   3.666   6.929
32864SOL     OW  430  13.943   6.664   2.371
32864SOL    HW1  431  14.031   6.626   2.373
32864SOL    HW2  432  13.895   6.609   2.309
32865SOL     OW  433   8.757   1.813   9.649
32865SOL    HW1  434   8.687   1.771   9.600
32865SOL    HW2  435   8.814   1.851   9.582
32866SOL     OW  436   9.262   0.726   3.029
32866SOL    HW1  437   9.285   0.756   2.941
32866SOL    HW2  438   9.296   0.794   3.087
32867SOL     OW  439   5.965   1.322  14.019
32867SOL    HW1  440   5.887   1.375  14.035
32867SOL    HW2  441   6.034   1.365  14.069
32868SOL     OW  442   1.265  12.938   1.008
32868SOL    HW1  443   1.266  13.015   0.951
32868SOL    HW2  444   1.222  12.968   1.088
32869SOL     OW  445   0.085   3.040   0.154
32869SOL    HW1  446   0.165   3.088   0.173
32869SOL    HW2  447   0.104   2.992   0.073
32870SOL     OW  448   6.689   0.229   1.471
32870SOL    HW1  449   6.653   0.141   1.458
32870SOL    HW2  450   6.784   0.217   1.461
32871SOL     OW  451  13.833   8.937   5.926
32871SOL    HW1  452  13.800   8.926   5.837
32871SOL    HW2  453  13.876   9.022   5.925
32872SOL     OW  454   4.865   1.169   7.274
32872SOL    HW1  455   4.818   1.112   7.335
32872SOL    HW2  456   4.958   1.157   7.296
32873SOL     OW  457   2.092   2.974  10.833
32873SOL    HW1  458   2.157   2.907  10.854
32873SOL    HW2  459   2.063   3.006  10.918
32874SOL     OW  460   5.392  14.748  14.250
32874SOL    HW1  461   5.319  14.768  14.308
32874SOL    HW2  462   5.462  14.720  14.309
32875SOL     OW  463   4.556   6.073  14.874
32875SOL    HW1  464   4.575   6.103  14.785
32875SOL    HW2  465   4.479   6.123   0.021
32876SOL     OW  466  11.359  10.534   3.915
32876SOL    HW1  467  11.407  10.605   3.873
32876SOL    HW2  468  11.421  10.496   3.977
32877SOL     OW  469   7.572   4.000   4.562
32877SOL    HW1  470   7.639   4.062   4.532
32877SOL    HW2  471   7.543   3.957   4.482
32878SOL     OW  472  12.198   1.190   0.343
32878SOL    HW1  473  12.116   1.149   0.314
32878SOL    HW2  474  12.171   1.258   0.405
32879SOL     OW  475   2.471   7.420  10.892
32879SOL    HW1  476   2.391   7.451  10.849
32879SOL    HW2  477   2.441   7.351  10.951
32880SOL     OW  478  10.588   2.058   0.658
32880SOL    HW1  479  10.513   2.090   0.608
32880SOL    HW2  480  10.549   2.015   0.735
32881SOL     OW  481   0.811  12.907   7.609
32881SOL    HW1  482   0.803  12.927   7.516
32881SOL    HW2  483   0.755  12.972   7.653
32882SOL     OW  484   1.007   0.142   7.913
32882SOL    HW1  485   1.003   0.058   7.868
32882SOL    HW2  486   0.919   0.155   7.948
32883SOL     OW  487   1.473  14.134  13.200
32883SOL    HW1  488   1.466  14.225  13.171
32883SOL    HW2  489   1.518  14.140  13.285
32884SOL     OW  490  14.138   8.388   1.065
32884SOL    HW1  491  14.193   8.353   1.136
32884SOL    HW2  492  14.191   8.378   0.986
32885SOL     OW  493  14.553  12.881   4.263
32885SOL    HW1  494  14.636  12.902   4.220
32885SOL    HW2  495  14.509  12.965   4.274
32886SOL     OW  496   9.088   8.508   2.491
32886SOL    HW1  497   9.029   8.562   2.543
32886SOL    HW2  498   9.098   8.427   2.542
32887SOL     OW  499  13.104   6.571   1.038
32887SOL    HW1  500  13.108   6.561   0.943
32887SOL    HW2  501  13.153   6.651   1.057
32888SOL     OW  502   6.031  10.849  12.878
32888SOL    HW1  503   6.006  10.760  12.901
32888SOL    HW2  504   6.084  10.880  12.951
32889SOL     OW  505   6.321   6.235   1.304
32889SOL    HW1  506   6.306   6.323   1.270
32889SOL    HW2  507   6.398   6.244   1.360
32890SOL     OW  508  10.484  14.502   9.345
32890SOL    HW1  509  10.493  14.491   9.251
32890SOL    HW2  510  10.533  14.581   9.366
32891SOL     OW  511  12.915   2.429  11.659
32891SOL    HW1  512  12.827   2.451  11.689
32891SOL    HW2  513  12.956   2.514  11.642
32892SOL     OW  514   7.631   3.598  12.563
32892SOL    HW1  515   7.613   3.549  12.482
32892SOL    HW2  516   7.725   3.613  12.562
32893SOL     OW  517   3.482  11.812   9.253
32893SOL    HW1  518   3.516  11.738   9.304
32893SOL    HW2  519   3.447  11.772   9.173
32894SOL     OW  520  10.427   5.244  12.857
32894SOL    HW1  521  10.366   5.303  12.812
32894SOL    HW2  522  10.511   5.290  12.855
32895SOL     OW  523   6.458  14.561  10.688
32895SOL    HW1  524   6.380  14.532  10.734
32895SOL    HW2  525   6.436  14.648  10.654
32896SOL     OW  526   4.476  14.416   4.838
32896SOL    HW1  527   4.497  14.504   4.806
32896SOL    HW2  528   4.550  14.394   4.894
32897SOL     OW  529  13.494  11.262   6.398
32897SOL    HW1  530  13.530  11.333   6.451
32897SOL    HW2  531  13.560  11.193   6.401
32898SOL     OW  532  11.859  13.131   2.043
32898SOL    HW1  533  11.852  13.142   2.138
32898SOL    HW2  534  11.949  13.156   2.023
32899SOL     OW  535   9.697   5.201   3.124
32899SOL    HW1  536   9.712   5.166   3.037
32899SOL    HW2  537   9.666   5.290   3.109
32900SOL     OW  538   1.158   0.709   7.475
32900SOL    HW1  539   1.183   0.722   7.567
32900SOL    HW2  540   1.096   0.637   7.477
32901SOL     OW  541   5.547   4.211  13.641
32901SOL    HW1  542   5.521   4.222  13.732
32901SOL    HW2  543   5.612   4.140  13.642
32902SOL     OW  544  13.268   8.190  12.337
32902SOL    HW1  545  13.246   8.143  12.418
32902SOL    HW2  546  13.291   8.278  12.366
32903SOL     OW  547   2.148  11.169   6.864
32903SOL    HW1  548   2.073  11.109   6.866
32903SOL    HW2  549   2.108  11.256   6.860
32904SOL     OW  550  11.079  11.066  11.948
32904SOL    HW1  551  11.171  11.081  11.926
32904SOL    HW2  552  11.064  10.973  11.929
32905SOL     OW  553   2.776  14.350   1.953
32905SOL    HW1  554   2.714  14.421   1.934
32905SOL    HW2  555   2.728  14.292   2.011
32906SOL     OW  556   7.512  11.118   2.923
32906SOL    HW1  557   7.523  11.058   2.997
32906SOL    HW2  558   7.555  11.073   2.850
32907SOL     OW  559   8.459   9.228   4.332
32907SOL    HW1  560   8.473   9.272   4.416
32907SOL    HW2  561   8.525   9.158   4.330
32908SOL     OW  562   5.185   1.802   3.119
32908SOL    HW1  563   5.164   1.709   3.111
32908SOL    HW2  564   5.229   1.824   3.038
32909SOL     OW  565   3.952   2.854   0.998
32909SOL    HW1  566   3.971   2.845   0.905
32909SOL    HW2  567   4.036   2.836   1.041
32910SOL     OW  568   3.412   4.523  12.552
32910SOL    HW1  569   3.474   4.593  12.534
32910SOL    HW2  570   3.330   4.553  12.512
32911SOL     OW  571  14.039  14.407   1.683
32911SOL    HW1  572  14.072  14.339   1.624
32911SOL    HW2  573  13.970  14.365   1.733
32912SOL     OW  574   1.094  11.103   1.063
32912SOL    HW1  575   1.125  11.025   1.110
32912SOL    HW2  576   1.023  11.137   1.116
32913SOL     OW  577   2.363   0.382  13.407
32913SOL    HW1  578   2.291   0.370  13.469
32913SOL    HW2  579   2.352   0.310  13.345
32914SOL     OW  580   1.878   0.360   2.147
32914SOL    HW1  581   1.972   0.363   2.133
32914SOL    HW2  582   1.841   0.363   2.058
32915SOL     OW  583   6.172  10.421  12.490
32915SOL    HW1  584   6.159  10.455  12.578
32915SOL    HW2  585   6.192  10.499  12.438
32916SOL     OW  586   9.500   4.991   1.675
32916SOL    HW1  587   9.437   4.978   1.746
32916SOL    HW2  588   9.584   4.964   1.713
32917SOL     OW  589  14.858   2.869   5.513
32917SOL    HW1  590  14.765   2.851   5.494
32917SOL    HW2  591   0.019   2.878   5.427
32918SOL     OW  592   7.099  11.096  13.748
32918SOL    HW1  593   7.030  11.094  13.682
32918SOL    HW2  594   7.119  11.004  13.765
32919SOL     OW  595   5.545   1.624   5.964
32919SOL    HW1  596   5.464   1.673   5.977
32919SOL    HW2  597   5.611   1.692   5.946
32920SOL     OW  598   6.685   3.603   3.155
32920SOL    HW1  599   6.638   3.685   3.141
32920SOL    HW2  600   6.636   3.538   3.105
32921SOL     OW  601   3.195   0.848   9.646
32921SOL    HW1  602   3.176   0.931   9.602
32921SOL    HW2  603   3.233   0.793   9.578
32922SOL     OW  604   0.796   3.268   5.388
32922SOL    HW1  605   0.712   3.309   5.367
32922SOL    HW2  606   0.779   3.217   5.468
32923SOL     OW  607   2.879   6.085  10.361
32923SOL    HW1  608   2.875   5.990  10.374
32923SOL    HW2  609   2.818   6.102  10.289
32924SOL     OW  610   0.608   5.213  10.010
32924SOL    HW1  611   0.647   5.181  10.091
32924SOL    HW2  612   0.679   5.211   9.946
32925SOL     OW  613   2.245  13.200   7.299
32925SOL    HW1  614   2.295  13.120   7.286
32925SOL    HW2  615   2.287  13.264   7.242
32926SOL     OW  616  14.758   6.412   8.266
32926SOL    HW1  617  14.746   6.499   8.227
32926SOL    HW2  618  14.823   6.369   8.211
32927SOL     OW  619   3.173   3.433   3.802
32927SOL    HW1  620   3.098   3.466   3.754
32927SOL    HW2  621   3.222   3.381   3.739
32928SOL     OW  622  13.885   0.333  13.486
32928SOL    HW1  623  13.975   0.334  13.517
32928SOL    HW2  624  13.853   0.245  13.507
32929SOL     OW  625   8.752  11.816  12.929
32929SOL    HW1  626   8.663  11.822  12.893
32929SOL    HW2  627   8.744  11.757  13.003
32930SOL     OW  628   1.463   5.421   1.341
32930SOL    HW1  629   1.548   5.424   1.386
32930SOL    HW2  630   1.409   5.486   1.386
32931SOL     OW  631   7.126   3.453   9.021
32931SOL    HW1  632   7.041   3.497   9.024
32931SOL    HW2  633   7.189   3.525   9.019
32932SOL     OW  634  10.534   5.278   2.463
32932SOL    HW1  635  10.486   5.196   2.460
32932SOL    HW2  636  10.503   5.327   2.388
32933SOL     OW  637  10.716  10.565  10.447
32933SOL    HW1  638  10.710  10.510  10.526
32933SOL    HW2  639  10.636  10.546  10.399
32934SOL     OW  640   3.960   2.152  12.420
32934SOL    HW1  641   3.943   2.238  12.457
32934SOL    HW2  642   3.876   2.123  12.384
32935SOL     OW  643  13.555   2.338   6.718
32935SOL    HW1  644  13.499   2.353   6.794
32935SOL    HW2  645  13.519   2.259   6.677
32936SOL     OW  646   6.643   1.576   1.934
32936SOL    HW1  647   6.588   1.552   2.008
32936SOL    HW2  648   6.582   1.598   1.864
32937SOL     OW  649   5.696   8.366   5.528
32937SOL    HW1  650   5.734   8.291   5.481
32937SOL    HW2  651   5.658   8.327   5.607
32938SOL     OW  652  14.630   4.157  13.611
32938SOL    HW1  653  14.579   4.090  13.566
32938SOL    HW2  654  14.570   4.231  13.619
32939SOL     OW  655  11.752   0.509  10.487
32939SOL    HW1  656  11.798   0.433  10.450
32939SOL    HW2  657  11.716   0.477  10.570
32940SOL     OW  658   7.928   3.838   4.192
32940SOL    HW1  659   7.971   3.755   4.217
32940SOL    HW2  660   7.966   3.902   4.252
32941SOL     OW  661   3.094   6.068  11.557
32941SOL    HW1  662   3.172   6.020  11.528
32941SOL    HW2  663   3.021   6.012  11.533
32942SOL     OW  664   6.370  13.860   5.937
32942SOL    HW1  665   6.366  13.771   5.904
32942SOL    HW2  666   6.359  13.852   6.032
32943SOL     OW  667  13.711   8.627  12.318
32943SOL    HW1  668  13.775   8.612  12.248
32943SOL    HW2  669  13.761   8.620  12.399
32944SOL     OW  670   7.169   1.726   1.545
32944SOL    HW1  671   7.085   1.759   1.577
32944SOL    HW2  672   7.173   1.636   1.579
32945SOL     OW  673   3.387   8.188   3.741
32945SOL    HW1  674   3.370   8.100   3.710
32945SOL    HW2  675   3.445   8.176   3.816
32946SOL     OW  676   7.612   0.333   7.846
32946SOL    HW1  677   7.570   0.410   7.806
32946SOL    HW2  678   7.702   0.361   7.861
32947SOL     OW  679  13.700   5.841   2.517
32947SOL    HW1  680  13.630   5.836   2.582
32947SOL    HW2  681  13.663   5.891   2.445
32948SOL     OW  682  10.215   2.185  12.432
32948SOL    HW1  683  10.188   2.145  12.515
32948SOL    HW2  684  10.268   2.118  12.389
32949SOL     OW  685   9.956  11.556   8.741
32949SOL    HW1  686  10.033  11.525   8.789
32949SOL    HW2  687   9.993  11.601   8.664
32950SOL     OW  688  14.088   5.770  12.359
32950SOL    HW1  689  14.110   5.699  12.419
32950SOL    HW2  690  14.051   5.726  12.282
32951SOL     OW  691   1.611  14.143   7.442
32951SOL    HW1  692   1.554  14.085   7.492
32951SOL    HW2  693   1.590  14.124   7.350
32952SOL     OW  694  14.433   3.174   4.922
32952SOL    HW1  695  14.432   3.225   4.841
32952SOL    HW2  696  14.509   3.116   4.913
32953SOL     OW  697  12.190  12.234   8.377
32953SOL    HW1  698  12.143  12.310   8.341
32953SOL    HW2  699  12.183  12.167   8.309
32954SOL     OW  700   5.346  11.409   1.791
32954SOL    HW1  701   5.367  11.318   1.808
32954SOL    HW2  702   5.273  11.406   1.729
32955SOL     OW  703  10.441  14.178   9.015
32955SOL    HW1  704  10.454  14.115   9.086
32955SOL    HW2  705  10.485  14.258   9.046
32956SOL     OW  706   1.456   8.041  12.872
32956SOL    HW1  707   1.475   8.098  12.946
32956SOL    HW2  708   1.441   8.101  12.799
32957SOL     OW  709   3.210   7.394   7.616
32957SOL    HW1  710   3.251   7.317   7.654
32957SOL    HW2  711   3.127   7.363   7.581
32958SOL     OW  712   3.979   2.570  12.396
32958SOL    HW1  713   4.070   2.579  12.367
32958SOL    HW2  714   3.931   2.544  12.317
32959SOL     OW  715   6.607  14.172  13.699
32959SOL    HW1  716   6.550  14.095  13.695
32959SOL    HW2  717   6.686  14.141  13.743
32960SOL     OW  718  12.218  11.271  13.197
32960SOL    HW1  719  12.176  11.224  13.269
32960SOL    HW2  720  12.288  11.213  13.167
32961SOL     OW  721  12.076  12.725   8.286
32961SOL    HW1  722  12.124  12.808   8.283
32961SOL    HW2  723  12.144  12.659   8.299
32962SOL     OW  724   7.000  12.143   3.526
32962SOL    HW1  725   7.060  12.207   3.489
32962SOL    HW2  726   7.050  12.097   3.593
32963SOL     OW  727   4.138   0.303  14.849
32963SOL    HW1  728   4.189   0.326   0.048
32963SOL    HW2  729   4.057   0.266   0.004
32964SOL     OW  730   7.000   6.832   5.772
32964SOL    HW1  731   7.022   6.863   5.684
32964SOL    HW2  732   6.978   6.911   5.820
32965SOL     OW  733   8.359   9.832  14.308
32965SOL    HW1  734   8.422   9.882  14.360
32965SOL    HW2  735   8.284   9.819  14.366
32966SOL     OW  736   3.028   2.956   4.806
32966SOL    HW1  737   3.086   3.029   4.784
32966SOL    HW2  738   3.071   2.913   4.880
32967SOL     OW  739   3.754  11.152  13.883
32967SOL    HW1  740   3.837  11.169  13.839
32967SOL    HW2  741   3.689  11.202  13.834
32968SOL     OW  742  11.629  10.336  14.751
32968SOL    HW1  743  11.618  10.245  14.779
32968SOL    HW2  744  11.683  10.375  14.820
32969SOL     OW  745  14.218  14.252   4.019
32969SOL    HW1  746  14.159  14.324   4.038
32969SOL    HW2  747  14.273  14.285   3.948
32970SOL     OW  748  10.268   4.264   3.449
32970SOL    HW1  749  10.264   4.175   3.415
32970SOL    HW2  750  10.200   4.266   3.517
32971SOL     OW  751   3.162   5.270  11.533
32971SOL    HW1  752   3.170   5.176  11.548
32971SOL    HW2  753   3.114   5.303  11.609
32972SOL     OW  754   6.493   1.847   9.224
32972SOL    HW1  755   6.479   1.914   9.158
32972SOL    HW2  756   6.513   1.767   9.175
32973SOL     OW  757  10.848   1.900  13.788
32973SOL    HW1  758  10.925   1.875  13.737
32973SOL    HW2  759  10.778   1.911  13.724
32974SOL     OW  760  14.119  12.126   7.281
32974SOL    HW1  761  14.127  12.059   7.348
32974SOL    HW2  762  14.204  12.126   7.237
32975SOL     OW  763  14.129   6.474   4.983
32975SOL    HW1  764  14.129   6.557   5.032
32975SOL    HW2  765  14.157   6.499   4.895
32976SOL     OW  766   6.203  12.582  10.215
32976SOL    HW1  767   6.134  12.626  10.266
32976SOL    HW2  768   6.165  12.574  10.127
32977SOL     OW  769   3.882   6.155   2.994
32977SOL    HW1  770   3.871   6.244   2.960
32977SOL    HW2  771   3.971   6.130   2.967
32978SOL     OW  772   6.644   5.424  12.439
32978SOL    HW1  773   6.604   5.473  12.511
32978SOL    HW2  774   6.701   5.487  12.396
32979SOL     OW  775   6.899  10.148  12.313
32979SOL    HW1  776   6.893  10.234  12.270
32979SOL    HW2  777   6.814  10.138  12.358
32980SOL     OW  778   0.627   0.603   9.525
32980SOL    HW1  779   0.571   0.566   9.593
32980SOL    HW2  780   0.573   0.601   9.446
32981SOL     OW  781  10.347   6.551   4.927
32981SOL    HW1  782  10.423   6.497   4.908
32981SOL    HW2  783  10.350   6.620   4.860
32982SOL     OW  784   6.919   3.736   4.747
32982SOL    HW1  785   6.880   3.649   4.757
32982SOL    HW2  786   6.864   3.793   4.801
32983SOL     OW  787   4.068   1.983   4.067
32983SOL    HW1  788   3.986   1.935   4.055
32983SOL    HW2  789   4.060   2.024   4.153
32984SOL     OW  790  13.216  10.805   6.319
32984SOL    HW1  791  13.294  10.752   6.305
32984SOL    HW2  792  13.247  10.882   6.367
32985SOL     OW  793   1.238  13.317   3.285
32985SOL    HW1  794   1.218  13.236   3.333
32985SOL    HW2  795   1.159  13.371   3.295
32986SOL     OW  796  14.715   5.284  10.236
32986SOL    HW1  797  14.654   5.211  10.234
32986SOL    HW2  798  14.701   5.329  10.152
32987SOL     OW  799  10.359   1.089  12.688
32987SOL    HW1  800  10.326   1.158  12.745
32987SOL    HW2  801  10.351   1.125  12.599
32988SOL     OW  802   0.720   7.985   5.924
32988SOL    HW1  803   0.655   7.919   5.947
32988SOL    HW2  804   0.752   8.017   6.008
32989SOL     OW  805  11.330  11.217   8.266
32989SOL    HW1  806  11.309  11.301   8.305
32989SOL    HW2  807  11.276  11.212   8.187
32990SOL     OW  808  10.726   2.275  12.509
32990SOL    HW1  809  10.803   2.220  12.499
32990SOL    HW2  810  10.737   2.317  12.595
32991SOL     OW  811   2.219   5.435   9.233
32991SOL    HW1  812   2.250   5.508   9.178
32991SOL    HW2  813   2.298   5.402   9.275
32992SOL     OW  814  13.080  13.035   2.609
32992SOL    HW1  815  13.086  12.994   2.695
32992SOL    HW2  816  13.025  13.112   2.621
32993SOL     OW  817   4.878   8.565  11.896
32993SOL    HW1  818   4.958   8.575  11.845
32993SOL    HW2  819   4.902   8.504  11.966
32994SOL     OW  820   6.829   6.576  14.766
32994SOL    HW1  821   6.783   6.597  14.847
32994SOL    HW2  822   6.765   6.592  14.697
32995SOL     OW  823   1.442   8.551   7.749
32995SOL    HW1  824   1.370   8.562   7.812
32995SOL    HW2  825   1.420   8.471   7.702
32996SOL     OW  826   0.376   1.472   8.597
32996SOL    HW1  827   0.379   1.514   8.683
32996SOL    HW2  828   0.454   1.505   8.552
32997SOL     OW  829   2.048   7.233  11.589
32997SOL    HW1  830   1.979   7.243  11.524
32997SOL    HW2  831   2.123   7.280  11.553
32998SOL     OW  832  11.587   3.471  11.899
32998SOL    HW1  833  11.547   3.497  11.982
32998SOL    HW2  834  11.675   3.443  11.922
32999SOL     OW  835   7.757   0.324   7.372
32999SOL    HW1  836   7.792   0.250   7.322
32999SOL    HW2  837   7.666   0.332   7.341
33000SOL     OW  838   4.342   0.055   0.181
33000SOL    HW1  839   4.302   0.142   0.184
33000SOL    HW2  840   4.401   0.058   0.106
33001SOL     OW  841   2.445   9.864   5.567
33001SOL    HW1  842   2.465   9.770   5.568
33001SOL    HW2  843   2.449   9.890   5.659
33002SOL     OW  844   9.266   2.714  10.283
33002SOL    HW1  845   9.245   2.771  10.209
33002SOL    HW2  846   9.295   2.632  10.243
33003SOL     OW  847   5.675   1.833   5.117
33003SOL    HW1  848   5.622   1.888   5.175
33003SOL    HW2  849   5.753   1.886   5.099
33004SOL     OW  850   9.197   7.127   6.708
33004SOL    HW1  851   9.275   7.093   6.664
33004SOL    HW2  852   9.137   7.053   6.711
33005SOL     OW  853   8.530   4.641   3.226
33005SOL    HW1  854   8.471   4.637   3.150
33005SOL    HW2  855   8.479   4.685   3.294
33006SOL     OW  856   0.393   7.621  14.857
33006SOL    HW1  857   0.440   7.641   0.059
33006SOL    HW2  858   0.459   7.586  14.798
33007SOL     OW  859   8.042  11.601  10.694
33007SOL    HW1  860   8.074  11.512  10.681
33007SOL    HW2  861   8.022  11.606  10.787
33008SOL     OW  862   9.056  13.005  11.366
33008SOL    HW1  863   8.979  13.049  11.331
33008SOL    HW2  864   9.033  12.986  11.458
33009SOL     OW  865   0.313   0.069   6.634
33009SOL    HW1  866   0.366   0.022   6.698
33009SOL    HW2  867   0.269  14.879   6.584
33010SOL     OW  868  12.006   5.023   0.038
33010SOL    HW1  869  11.988   5.030  14.824
33010SOL    HW2  870  11.955   5.094   0.078
33011SOL     OW  871  10.061   3.459   8.233
33011SOL    HW1  872  10.057   3.377   8.183
33011SOL    HW2  873   9.969   3.477   8.256
33012SOL     OW  874   2.234  11.606   5.334
33012SOL    HW1  875   2.152  11.631   5.291
33012SOL    HW2  876   2.287  11.686   5.332
33013SOL     OW  877   6.614   6.135   1.207
33013SOL    HW1  878   6.654   6.175   1.130
33013SOL    HW2  879   6.536   6.091   1.173
33014SOL     OW  880   1.503   6.357   5.588
33014SOL    HW1  881   1.500   6.288   5.523
33014SOL    HW2  882   1.594   6.387   5.587
33015SOL     OW  883   9.551  12.601   2.045
33015SOL    HW1  884   9.532  12.509   2.025
33015SOL    HW2  885   9.560  12.643   1.960
33016SOL     OW  886  11.641   1.585   4.820
33016SOL    HW1  887  11.625   1.634   4.900
33016SOL    HW2  888  11.584   1.508   4.827
33017SOL     OW  889  13.526  11.045   1.046
33017SOL    HW1  890  13.466  11.110   1.082
33017SOL    HW2  891  13.506  10.964   1.094
33018SOL     OW  892   0.508   8.087   8.955
33018SOL    HW1  893   0.461   8.007   8.932
33018SOL    HW2  894   0.521   8.081   9.050
33019SOL     OW  895   3.559   1.319  12.708
33019SOL    HW1  896   3.643   1.357  12.682
33019SOL    HW2  897   3.551   1.340  12.801
33020SOL     OW  898  10.005   6.804   7.074
33020SOL    HW1  899  10.063   6.771   7.142
33020SOL    HW2  900   9.936   6.739   7.068
33021SOL     OW  901   2.523  13.786   2.633
33021SOL    HW1  902   2.500  13.694   2.619
33021SOL    HW2  903   2.520  13.825   2.546
33022SOL     OW  904   3.000   2.056  11.975
33022SOL    HW1  905   2.992   2.039  11.881
33022SOL    HW2  906   2.949   1.986  12.016
33023SOL     OW  907  14.284   9.188   0.217
33023SOL    HW1  908  14.342   9.259   0.246
33023SOL    HW2  909  14.337   9.109   0.226
33024SOL     OW  910  10.007  12.397   4.243
33024SOL    HW1  911  10.053  12.378   4.324
33024SOL    HW2  912  10.035  12.485   4.218
33025SOL     OW  913   0.516   7.868   8.037
33025SOL    HW1  914   0.566   7.912   7.968
33025SOL    HW2  915   0.581   7.851   8.106
33026SOL     OW  916   0.057  14.180  14.422
33026SOL    HW1  917   0.077  14.088  14.404
33026SOL    HW2  918  14.872  14.177  14.493
33027SOL     OW  919  11.791  10.944   5.015
33027SOL    HW1  920  11.828  11.009   5.074
33027SOL    HW2  921  11.846  10.866   5.029
33028SOL     OW  922   0.553   1.342   9.488
33028SOL    HW1  923   0.531   1.322   9.396
33028SOL    HW2  924   0.469   1.343   9.533
33029SOL     OW  925   5.507  12.308   0.891
33029SOL    HW1  926   5.412  12.312   0.874
33029SOL    HW2  927   5.547  12.343   0.812
33030SOL     OW  928  13.216   9.261   4.195
33030SOL    HW1  929  13.148   9.195   4.207
33030SOL    HW2  930  13.294   9.211   4.170
33031SOL     OW  931  12.793   7.640   4.959
33031SOL    HW1  932  12.837   7.712   5.004
33031SOL    HW2  933  12.717   7.680   4.919
33032SOL     OW  934  14.757   8.351   8.657
33032SOL    HW1  935  14.816   8.377   8.728
33032SOL    HW2  936  14.815   8.313   8.591
33033SOL     OW  937  13.983  13.432   2.459
33033SOL    HW1  938  14.009  13.435   2.367
33033SOL    HW2  939  13.899  13.479   2.462
33034SOL     OW  940  13.406   3.735  10.348
33034SOL    HW1  941  13.493   3.708  10.319
33034SOL    HW2  942  13.347   3.696  10.283
33035SOL     OW  943   2.973  11.008   8.290
33035SOL    HW1  944   2.999  11.001   8.198
33035SOL    HW2  945   2.878  10.998   8.289
33036SOL     OW  946   3.077   4.952   1.057
33036SOL    HW1  947   3.158   4.908   1.031
33036SOL    HW2  948   3.104   5.042   1.075
33037SOL     OW  949   8.398   7.690   7.796
33037SOL    HW1  950   8.437   7.741   7.725
33037SOL    HW2  951   8.465   7.687   7.863
33038SOL     OW  952  11.052  12.384   6.492
33038SOL    HW1  953  11.086  12.395   6.581
33038SOL    HW2  954  11.044  12.289   6.481
33039SOL     OW  955  11.113   7.801   7.668
33039SOL    HW1  956  11.161   7.834   7.744
33039SOL    HW2  957  11.128   7.707   7.669
33040SOL     OW  958   7.571  14.148   0.518
33040SOL    HW1  959   7.479  14.123   0.510
33040SOL    HW2  960   7.570  14.243   0.526
33041SOL     OW  961  12.481   2.279  11.216
33041SOL    HW1  962  12.556   2.243  11.264
33041SOL    HW2  963  12.481   2.372  11.239
33042SOL     OW  964  14.525  13.483   6.894
33042SOL    HW1  965  14.611  13.477   6.853
33042SOL    HW2  966  14.472  13.531   6.831
33043SOL     OW  967   1.963  13.334  10.096
33043SOL    HW1  968   1.908  13.337  10.175
33043SOL    HW2  969   1.952  13.419  10.055
33044SOL     OW  970   9.062   4.087  14.769
33044SOL    HW1  971   9.066   4.155  14.702
33044SOL    HW2  972   8.976   4.046  14.757
33045SOL     OW  973   7.884   4.986   4.991
33045SOL    HW1  974   7.848   5.031   4.914
33045SOL    HW2  975   7.951   4.929   4.956
33046SOL     OW  976  11.188  13.053  11.303
33046SOL    HW1  977  11.181  13.116  11.375
33046SOL    HW2  978  11.157  13.100  11.226
33047SOL     OW  979   8.473  10.142   0.841
33047SOL    HW1  980   8.515  10.094   0.770
33047SOL    HW2  981   8.543  10.157   0.904
33048SOL     OW  982  12.868   2.462   8.764
33048SOL    HW1  983  12.934   2.412   8.716
33048SOL    HW2  984  12.907   2.549   8.775
33049SOL     OW  985  10.573  11.884   9.777
33049SOL    HW1  986  10.532  11.967   9.801
33049SOL    HW2  987  10.625  11.860   9.853
33050SOL     OW  988   7.162  14.116  14.553
33050SOL    HW1  989   7.183  14.129  14.645
33050SOL    HW2  990   7.242  14.139  14.506
33051SOL     OW  991   3.438  12.265   0.982
33051SOL    HW1  992   3.390  12.257   1.065
33051SOL    HW2  993   3.369  12.261   0.915
33052SOL     OW  994   3.118   5.999   8.139
33052SOL    HW1  995   3.085   6.059   8.072
33052SOL    HW2  996   3.064   5.921   8.130
33053SOL     OW  997   0.243   3.010   1.710
33053SOL    HW1  998   0.220   2.945   1.644
33053SOL    HW2  999   0.168   3.070   1.711
33054SOL     OW 1000   3.551   2.437   8.261
33054SOL    HW1 1001   3.511   2.368   8.314
33054SOL    HW2 1002   3.613   2.480   8.320
33055SOL     OW 1003   3.415  13.320   2.140
33055SOL    HW1 1004   3.504  13.354   2.124
33055SOL    HW2 1005   3.357  13.391   2.114
33056SOL     OW 1006   6.825   8.141   3.638
33056SOL    HW1 1007   6.906   8.189   3.620
33056SOL    HW2 1008   6.854   8.062   3.686
33057SOL     OW 1009  13.588   5.684   3.091
33057SOL    HW1 1010  13.650   5.627   3.044
33057SOL    HW2 1011  13.527   5.623   3.132
33058SOL     OW 1012  12.928   7.435  10.243
33058SOL    HW1 1013  12.949   7.404  10.155
33058SOL    HW2 1014  12.850   7.385  10.267
33059SOL     OW 1015  14.354   2.740   0.869
33059SOL    HW1 1016  14.367   2.662   0.814
33059SOL    HW2 1017  14.292   2.711   0.936
33060SOL     OW 1018   0.593   3.544  12.171
33060SOL    HW1 1019   0.523   3.597  12.132
33060SOL    HW2 1020   0.549   3.494  12.240
33061SOL     OW 1021   8.839   7.116   5.955
33061SOL    HW1 1022   8.776   7.109   6.026
33061SOL    HW2 1023   8.816   7.198   5.911
33062SOL     OW 1024   0.412   6.121  12.121
33062SOL    HW1 1025   0.393   6.146  12.031
33062SOL    HW2 1026   0.328   6.088  12.154
33063SOL     OW 1027   7.748   8.454   7.722
33063SOL    HW1 1028   7.791   8.516   7.663
33063SOL    HW2 1029   7.782   8.368   7.696
33064SOL     OW 1030  11.577   6.995  11.510
33064SOL    HW1 1031  11.525   6.988  11.430
33064SOL    HW2 1032  11.521   7.043  11.571
33065SOL     OW 1033   2.753   1.815  11.286
33065SOL    HW1 1034   2.745   1.751  11.356
33065SOL    HW2 1035   2.821   1.779  11.228
33066SOL     OW 1036   7.779   5.491   8.447
33066SOL    HW1 1037   7.811   5.577   8.471
33066SOL    HW2 1038   7.845   5.456   8.387
33067SOL     OW 1039  13.432   4.522   3.916
33067SOL    HW1 1040  13.358   4.462   3.920
33067SOL    HW2 1041  13.412   4.590   3.980
33068SOL     OW 1042  12.915   4.564   9.982
33068SOL    HW1 1043  12.958   4.630  10.036
33068SOL    HW2 1044  12.959   4.569   9.897
33069SOL     OW 1045  12.582   3.369   9.745
33069SOL    HW1 1046  12.536   3.291   9.777
33069SOL    HW2 1047  12.558   3.438   9.807
33070SOL     OW 1048   7.934  12.004   8.395
33070SOL    HW1 1049   7.883  11.932   8.357
33070SOL    HW2 1050   8.008  11.962   8.439
33071SOL     OW 1051  12.202   8.153  12.545
33071SOL    HW1 1052  12.134   8.099  12.505
33071SOL    HW2 1053  12.283   8.123  12.504
33072SOL     OW 1054  12.046   9.005  13.848
33072SOL    HW1 1055  12.075   9.074  13.789
33072SOL    HW2 1056  12.046   9.046  13.935
33073SOL     OW 1057   1.757   7.521   0.402
33073SOL    HW1 1058   1.760   7.614   0.425
33073SOL    HW2 1059   1.848   7.497   0.386
33074SOL     OW 1060   0.091  12.225  10.562
33074SOL    HW1 1061   0.086  12.281  10.485
33074SOL    HW2 1062   0.184  12.205  10.571
33075SOL     OW 1063   9.095   1.043   2.642
33075SOL    HW1 1064   9.147   1.075   2.567
33075SOL    HW2 1065   9.005   1.061   2.617
33076SOL     OW 1066   0.665   5.876  14.439
33076SOL    HW1 1067   0.606   5.918  14.502
33076SOL    HW2 1068   0.606   5.839  14.373
33077SOL     OW 1069   1.627   8.697   7.615
33077SOL    HW1 1070   1.557   8.759   7.597
33077SOL    HW2 1071   1.582   8.622   7.655
33078SOL     OW 1072   9.786  10.776   5.824
33078SOL    HW1 1073   9.721  10.745   5.887
33078SOL    HW2 1074   9.735  10.789   5.743
33079SOL     OW 1075  13.182   1.449   4.075
33079SOL    HW1 1076  13.146   1.479   3.992
33079SOL    HW2 1077  13.235   1.522   4.106
33080SOL     OW 1078  14.531  13.303   8.803
33080SOL    HW1 1079  14.575  13.302   8.717
33080SOL    HW2 1080  14.488  13.218   8.808
33081SOL     OW 1081  12.307   8.409  13.911
33081SOL    HW1 1082  12.315   8.482  13.849
33081SOL    HW2 1083  12.285   8.333  13.856
33082SOL     OW 1084   2.567   1.805   0.957
33082SOL    HW1 1085   2.475   1.811   0.985
33082SOL    HW2 1086   2.580   1.712   0.939
33083SOL     OW 1087   9.925   3.616  10.005
33083SOL    HW1 1088   9.900   3.524  10.007
33083SOL    HW2 1089   9.909   3.643   9.915
33084SOL     OW 1090   7.587  12.811   1.076
33084SOL    HW1 1091   7.552  12.900   1.084
33084SOL    HW2 1092   7.673  12.814   1.118
33085SOL     OW 1093   7.027   6.045   0.688
33085SOL    HW1 1094   6.965   6.010   0.751
33085SOL    HW2 1095   7.051   6.131   0.722
33086SOL     OW 1096  14.760   0.260  10.585
33086SOL    HW1 1097  14.839   0.212  10.558
33086SOL    HW2 1098  14.688   0.204  10.558
33087SOL     OW 1099   2.195   5.882   0.010
33087SOL    HW1 1100   2.114   5.895  14.840
33087SOL    HW2 1101   2.196   5.789   0.032
33088SOL     OW 1102   9.779   1.531   4.238
33088SOL    HW1 1103   9.782   1.436   4.248
33088SOL    HW2 1104   9.711   1.547   4.173
33089SOL     OW 1105   9.138  12.788   4.862
33089SOL    HW1 1106   9.089  12.871   4.858
33089SOL    HW2 1107   9.202  12.800   4.932
33090SOL     OW 1108   0.101   8.740   4.620
33090SOL    HW1 1109   0.037   8.708   4.683
33090SOL    HW2 1110   0.184   8.699   4.647
33091SOL     OW 1111   7.588  12.067  10.402
33091SOL    HW1 1112   7.551  12.079  10.489
33091SOL    HW2 1113   7.513  12.065  10.344
33092SOL     OW 1114  12.545   0.612  11.511
33092SOL    HW1 1115  12.491   0.537  11.488
33092SOL    HW2 1116  12.579   0.644  11.427
33093SOL     OW 1117   8.653   8.230   6.788
33093SOL    HW1 1118   8.671   8.221   6.882
33093SOL    HW2 1119   8.713   8.168   6.747
33094SOL     OW 1120   7.660   6.898  10.984
33094SOL    HW1 1121   7.640   6.991  10.974
33094SOL    HW2 1122   7.691   6.889  11.074
33095SOL     OW 1123   9.006   2.665   0.292
33095SOL    HW1 1124   8.969   2.745   0.255
33095SOL    HW2 1125   9.025   2.688   0.384
33096SOL     OW 1126   7.144   1.996   5.438
33096SOL    HW1 1127   7.137   1.986   5.343
33096SOL    HW2 1128   7.225   2.046   5.451
33097SOL     OW 1129   0.895   6.919  14.642
33097SOL    HW1 1130   0.867   6.830  14.621
33097SOL    HW2 1131   0.817   6.973  14.630
33098SOL     OW 1132   0.103   6.542  12.921
33098SOL    HW1 1133   0.183   6.590  12.899
33098SOL    HW2 1134   0.130   6.451  12.925
33099SOL     OW 1135  12.478   4.294   1.225
33099SOL    HW1 1136  12.557   4.324   1.179
33099SOL    HW2 1137  12.474   4.351   1.303
33100SOL     OW 1138   5.473   0.884   8.047
33100SOL    HW1 1139   5.406   0.935   8.002
33100SOL    HW2 1140   5.555   0.913   8.008
33101SOL     OW 1141  13.990   5.446   1.020
33101SOL    HW1 1142  13.921   5.474   1.079
33101SOL    HW2 1143  13.978   5.351   1.013
33102SOL     OW 1144  14.189  13.104   4.794
33102SOL    HW1 1145  14.150  13.160   4.861
33102SOL    HW2 1146  14.269  13.149   4.769
33103SOL     OW 1147   1.068   3.782   3.426
33103SOL    HW1 1148   1.083   3.793   3.520
33103SOL    HW2 1149   0.982   3.823   3.411
33104SOL     OW 1150  10.026   9.573   0.335
33104SOL    HW1 1151  10.065   9.610   0.414
33104SOL    HW2 1152   9.984   9.492   0.364
33105SOL     OW 1153   3.306   3.268   1.815
33105SOL    HW1 1154   3.226   3.305   1.850
33105SOL    HW2 1155   3.295   3.173   1.825
33106SOL     OW 1156   2.577   2.018  12.353
33106SOL    HW1 1157   2.550   2.024  12.445
33106SOL    HW2 1158   2.576   2.109  12.321
33107SOL     OW 1159   0.698  11.914   4.210
33107SOL    HW1 1160   0.652  11.837   4.176
33107SOL    HW2 1161   0.702  11.900   4.305
33108SOL     OW 1162   2.536   6.148   6.410
33108SOL    HW1 1163   2.486   6.213   6.361
33108SOL    HW2 1164   2.619   6.142   6.363
33109SOL     OW 1165   2.336  13.914   1.630
33109SOL    HW1 1166   2.319  13.869   1.713
33109SOL    HW2 1167   2.255  13.902   1.580
33110SOL     OW 1168   0.279  10.506   3.684
33110SOL    HW1 1169   0.350  10.528   3.744
33110SOL    HW2 1170   0.205  10.487   3.741
33111SOL     OW 1171   7.866   6.305  14.539
33111SOL    HW1 1172   7.859   6.227  14.484
33111SOL    HW2 1173   7.785   6.306  14.590
33112SOL     OW 1174  13.898   4.703  11.146
33112SOL    HW1 1175  13.879   4.769  11.213
33112SOL    HW2 1176  13.981   4.731  11.107
33113SOL     OW 1177  10.199   5.226   0.517
33113SOL    HW1 1178  10.281   5.263   0.483
33113SOL    HW2 1179  10.206   5.132   0.499
33114SOL     OW 1180  13.839  14.806   6.571
33114SOL    HW1 1181  13.803  14.814   6.483
33114SOL    HW2 1182  13.777  14.749   6.617
33115SOL     OW 1183  12.474   3.509   2.944
33115SOL    HW1 1184  12.451   3.544   2.858
33115SOL    HW2 1185  12.548   3.562   2.972
33116SOL     OW 1186  12.714   4.075   7.185
33116SOL    HW1 1187  12.752   4.131   7.254
33116SOL    HW2 1188  12.662   4.011   7.232
33117SOL     OW 1189  14.361   9.478  14.879
33117SOL    HW1 1190  14.408   9.433  14.808
33117SOL    HW2 1191  14.365   9.570  14.854
33118SOL     OW 1192   4.266   0.363   0.191
33118SOL    HW1 1193   4.343   0.420   0.200
33118SOL    HW2 1194   4.223   0.368   0.276
33119SOL     OW 1195   6.184   1.604   4.831
33119SOL    HW1 1196   6.178   1.674   4.895
33119SOL    HW2 1197   6.094   1.588   4.803
33120SOL     OW 1198   5.866   3.605   0.497
33120SOL    HW1 1199   5.895   3.514   0.506
33120SOL    HW2 1200   5.771   3.602   0.509
33121SOL     OW 1201   6.897  14.286  13.830
33121SOL    HW1 1202   6.943  14.224  13.887
33121SOL    HW2 1203   6.888  14.365  13.882
33122SOL     OW 1204  13.497   2.195   3.938
33122SOL    HW1 1205  13.420   2.238   3.975
33122SOL    HW2 1206  13.558   2.267   3.920
33123SOL     OW 1207   1.014  14.631  13.122
33123SOL    HW1 1208   1.053  14.718  13.120
33123SOL    HW2 1209   1.089  14.571  13.117
33124SOL     OW 1210  10.889   7.788   4.705
33124SOL    HW1 1211  10.944   7.857   4.669
33124SOL    HW2 1212  10.806   7.831   4.724
33125SOL     OW 1213   9.346   3.720   4.461
33125SOL    HW1 1214   9.292   3.647   4.431
33125SOL    HW2 1215   9.291   3.767   4.524
33126SOL     OW 1216   6.919   5.569  12.721
33126SOL    HW1 1217   6.828   5.542  12.733
33126SOL    HW2 1218   6.915   5.632  12.649
33127SOL     OW 1219   5.618   5.484   8.108
33127SOL    HW1 1220   5.579   5.399   8.130
33127SOL    HW2 1221   5.666   5.468   8.026
33128SOL     OW 1222   1.984  10.967   7.142
33128SOL    HW1 1223   2.070  10.926   7.135
33128SOL    HW2 1224   1.951  10.938   7.227
33129SOL     OW 1225  11.351  11.144  14.036
33129SOL    HW1 1226  11.257  11.133  14.018
33129SOL    HW2 1227  11.355  11.214  14.100
33130SOL     OW 1228   3.519  14.564   0.927
33130SOL    HW1 1229   3.541  14.649   0.965
33130SOL    HW2 1230   3.595  14.543   0.872
33131SOL     OW 1231   4.386  11.774  11.487
33131SOL    HW1 1232   4.451  11.842  11.475
33131SOL    HW2 1233   4.420  11.699  11.438
33132SOL     OW 1234  10.885   9.184   6.645
33132SOL    HW1 1235  10.804   9.233   6.656
33132SOL    HW2 1236  10.914   9.204   6.556
33133SOL     OW 1237   8.705   9.107  13.842
33133SOL    HW1 1238   8.702   9.060  13.758
33133SOL    HW2 1239   8.688   9.039  13.908
33134SOL     OW 1240   4.498  12.196   9.085
33134SOL    HW1 1241   4.516  12.152   9.002
33134SOL    HW2 1242   4.538  12.282   9.076
33135SOL     OW 1243   2.280   2.425  14.131
33135SOL    HW1 1244   2.325   2.510  14.124
33135SOL    HW2 1245   2.210   2.441  14.195
33136SOL     OW 1246   6.864   8.089   0.813
33136SOL    HW1 1247   6.915   8.008   0.822
33136SOL    HW2 1248   6.912   8.153   0.865
33137SOL     OW 1249   4.966  10.370   4.920
33137SOL    HW1 1250   4.934  10.423   4.848
33137SOL    HW2 1251   5.061  10.380   4.917
33138SOL     OW 1252   1.261   4.458   9.740
33138SOL    HW1 1253   1.261   4.375   9.694
33138SOL    HW2 1254   1.311   4.441   9.820
33139SOL     OW 1255   2.095  12.253  10.433
33139SOL    HW1 1256   2.032  12.265  10.362
33139SOL    HW2 1257   2.160  12.322  10.419
33140SOL     OW 1258   4.339   4.306  11.857
33140SOL    HW1 1259   4.269   4.310  11.922
33140SOL    HW2 1260   4.314   4.370  11.791
33141SOL     OW 1261   3.538  14.162   9.331
33141SOL    HW1 1262   3.570  14.153   9.420
33141SOL    HW2 1263   3.607  14.125   9.276
33142SOL     OW 1264  11.312  10.340   0.259
33142SOL    HW1 1265  11.345  10.409   0.200
33142SOL    HW2 1266  11.391  10.300   0.295
33143SOL     OW 1267  13.211   5.965   3.439
33143SOL    HW1 1268  13.201   5.936   3.348
33143SOL    HW2 1269  13.305   5.953   3.457
33144SOL     OW 1270   3.755  14.613   0.753
33144SOL    HW1 1271   3.818  14.570   0.695
33144SOL    HW2 1272   3.754  14.704   0.724
33145SOL     OW 1273   0.116  12.438   3.229
33145SOL    HW1 1274   0.131  12.439   3.324
33145SOL    HW2 1275   0.149  12.354   3.200
33146SOL     OW 1276   3.709  10.709   1.611
33146SOL    HW1 1277   3.643  10.766   1.650
33146SOL    HW2 1278   3.676  10.692   1.523
33147SOL     OW 1279  12.879   8.041   2.671
33147SOL    HW1 1280  12.931   8.093   2.733
33147SOL    HW2 1281  12.931   7.961   2.659
33148SOL     OW 1282   5.031   0.876  10.583
33148SOL    HW1 1283   4.998   0.791  10.615
33148SOL    HW2 1284   4.965   0.939  10.612
33149SOL     OW 1285  10.903   1.875   5.403
33149SOL    HW1 1286  10.935   1.880   5.313
33149SOL    HW2 1287  10.842   1.801   5.403
33150SOL     OW 1288   5.800  13.781  11.639
33150SOL    HW1 1289   5.716  13.752  11.606
33150SOL    HW2 1290   5.863  13.718  11.604
33151SOL     OW 1291  12.849   3.767   8.025
33151SOL    HW1 1292  12.767   3.751   7.978
33151SOL    HW2 1293  12.917   3.755   7.959
33152SOL     OW 1294   6.894   3.909   4.296
33152SOL    HW1 1295   6.804   3.913   4.263
33152SOL    HW2 1296   6.937   3.984   4.254
33153SOL     OW 1297   8.272   4.694   7.807
33153SOL    HW1 1298   8.272   4.638   7.885
33153SOL    HW2 1299   8.273   4.783   7.842
33154SOL     OW 1300   8.170   4.902   2.282
33154SOL    HW1 1301   8.159   4.950   2.199
33154SOL    HW2 1302   8.146   4.812   2.260
33155SOL     OW 1303   0.871   2.111   2.781
33155SOL    HW1 1304   0.908   2.194   2.811
33155SOL    HW2 1305   0.805   2.089   2.847
33156SOL     OW 1306   5.778   4.319   2.914
33156SOL    HW1 1307   5.801   4.227   2.911
33156SOL    HW2 1308   5.812   4.350   2.998
33157SOL     OW 1309   7.119   3.063   7.940
33157SOL    HW1 1310   7.120   3.155   7.967
33157SOL    HW2 1311   7.095   3.065   7.847
33158SOL     OW 1312   0.499   2.970   0.998
33158SOL    HW1 1313   0.471   2.933   0.914
33158SOL    HW2 1314   0.454   3.054   1.003
33159SOL     OW 1315   1.440  14.111   5.294
33159SOL    HW1 1316   1.452  14.032   5.348
33159SOL    HW2 1317   1.507  14.171   5.326
33160SOL     OW 1318  10.132   4.537   1.333
33160SOL    HW1 1319  10.155   4.480   1.406
33160SOL    HW2 1320  10.100   4.477   1.266
33161SOL     OW 1321   2.041   2.923   4.341
33161SOL    HW1 1322   2.030   2.834   4.375
33161SOL    HW2 1323   2.086   2.970   4.411
33162SOL     OW 1324   9.610   8.967   0.448
33162SOL    HW1 1325   9.676   8.941   0.385
33162SOL    HW2 1326   9.659   8.990   0.527
33163SOL     OW 1327  11.404  11.951  14.376
33163SOL    HW1 1328  11.444  12.027  14.420
33163SOL    HW2 1329  11.435  11.957  14.285
33164SOL     OW 1330   8.662   6.563   5.182
33164SOL    HW1 1331   8.754   6.543   5.165
33164SOL    HW2 1332   8.618   6.478   5.180
33165SOL     OW 1333  12.106   0.533  10.739
33165SOL    HW1 1334  12.073   0.444  10.752
33165SOL    HW2 1335  12.201   0.524  10.743
33166SOL     OW 1336  11.829   1.647   2.925
33166SOL    HW1 1337  11.829   1.730   2.973
33166SOL    HW2 1338  11.752   1.601   2.958
33167SOL     OW 1339  14.488   7.843   8.645
33167SOL    HW1 1340  14.557   7.795   8.691
33167SOL    HW2 1341  14.527   7.866   8.560
33168SOL     OW 1342   0.690   7.090   1.780
33168SOL    HW1 1343   0.633   7.060   1.851
33168SOL    HW2 1344   0.750   7.151   1.822
33169SOL     OW 1345   1.791   9.989   9.033
33169SOL    HW1 1346   1.696   9.992   9.048
33169SOL    HW2 1347   1.825  10.064   9.081
33170SOL     OW 1348   9.887   6.058  13.252
33170SOL    HW1 1349   9.945   6.101  13.189
33170SOL    HW2 1350   9.841   6.129  13.296
33171SOL     OW 1351   9.893   4.352  14.084
33171SOL    HW1 1352   9.985   4.338  14.063
33171SOL    HW2 1353   9.894   4.387  14.173
33172SOL     OW 1354  12.541   0.431  14.117
33172SOL    HW1 1355  12.611   0.474  14.068
33172SOL    HW2 1356  12.477   0.406  14.050
33173SOL     OW 1357   8.565   6.954   4.838
33173SOL    HW1 1358   8.644   6.918   4.879
33173SOL    HW2 1359   8.578   7.049   4.842
33174SOL     OW 1360   4.032   8.024   3.713
33174SOL    HW1 1361   3.941   8.053   3.706
33174SOL    HW2 1362   4.035   7.975   3.795
33175SOL     OW 1363  13.404  12.186   5.726
33175SOL    HW1 1364  13.477  12.127   5.746
33175SOL    HW2 1365  13.330  12.150   5.775
33176SOL     OW 1366  12.273   5.185   5.313
33176SOL    HW1 1367  12.284   5.202   5.220
33176SOL    HW2 1368  12.191   5.228   5.336
33177SOL     OW 1369  10.461   9.988   0.978
33177SOL    HW1 1370  10.401  10.022   1.045
33177SOL    HW2 1371  10.544   9.980   1.024
33178SOL     OW 1372  13.501   6.470   8.349
33178SOL    HW1 1373  13.461   6.387   8.321
33178SOL    HW2 1374  13.581   6.477   8.297
33179SOL     OW 1375   3.036  13.014  14.529
33179SOL    HW1 1376   3.102  12.954  14.563
33179SOL    HW2 1377   3.053  13.018  14.435
33180SOL     OW 1378   8.250   6.795   9.093
33180SOL    HW1 1379   8.336   6.753   9.094
33180SOL    HW2 1380   8.242   6.834   9.180
33181SOL     OW 1381   5.850   1.133   9.316
33181SOL    HW1 1382   5.901   1.056   9.341
33181SOL    HW2 1383   5.791   1.102   9.247
33182SOL     OW 1384   6.702   3.999   0.218
33182SOL    HW1 1385   6.708   3.935   0.147
33182SOL    HW2 1386   6.691   3.947   0.297
33183SOL     OW 1387   5.427  13.978   2.603
33183SOL    HW1 1388   5.463  13.977   2.692
33183SOL    HW2 1389   5.457  14.061   2.567
33184SOL     OW 1390   9.218   5.548   0.057
33184SOL    HW1 1391   9.214   5.457   0.085
33184SOL    HW2 1392   9.268   5.591   0.127
33185SOL     OW 1393  12.246   5.516  11.238
33185SOL    HW1 1394  12.322   5.483  11.286
33185SOL    HW2 1395  12.173   5.505  11.298
33186SOL     OW 1396   4.743  14.060   8.507
33186SOL    HW1 1397   4.648  14.056   8.517
33186SOL    HW2 1398   4.764  13.994   8.442
33187SOL     OW 1399   6.159   3.167   4.582
33187SOL    HW1 1400   6.135   3.156   4.674
33187SOL    HW2 1401   6.076   3.167   4.535
33188SOL     OW 1402   6.197   6.345   5.760
33188SOL    HW1 1403   6.119   6.367   5.710
33188SOL    HW2 1404   6.233   6.267   5.718
33189SOL     OW 1405  13.269   2.330   8.348
33189SOL    HW1 1406  13.327   2.288   8.285
33189SOL    HW2 1407  13.297   2.296   8.433
33190SOL     OW 1408   8.735   0.259   2.157
33190SOL    HW1 1409   8.670   0.192   2.138
33190SOL    HW2 1410   8.708   0.295   2.241
33191SOL     OW 1411  11.644  10.000   6.516
33191SOL    HW1 1412  11.576   9.952   6.563
33191SOL    HW2 1413  11.669  10.071   6.575
33192SOL     OW 1414   3.186   3.307  13.733
33192SOL    HW1 1415   3.245   3.232  13.722
33192SOL    HW2 1416   3.231   3.364  13.794
33193SOL     OW 1417   0.776   5.495  12.930
33193SOL    HW1 1418   0.753   5.518  12.840
33193SOL    HW2 1419   0.694   5.468  12.970
33194SOL     OW 1420   1.318   8.427  13.739
33194SOL    HW1 1421   1.388   8.409  13.802
33194SOL    HW2 1422   1.273   8.503  13.775
33195SOL     OW 1423   2.927  11.124   4.957
33195SOL    HW1 1424   2.935  11.036   4.994
33195SOL    HW2 1425   2.833  11.134   4.939
33196SOL     OW 1426   6.890   7.974   5.605
33196SOL    HW1 1427   6.867   8.012   5.690
33196SOL    HW2 1428   6.866   7.882   5.612
33197SOL     OW 1429   7.325   8.626  14.112
33197SOL    HW1 1430   7.393   8.635  14.179
33197SOL    HW2 1431   7.296   8.535  14.120
33198SOL     OW 1432   0.378   3.808   9.697
33198SOL    HW1 1433   0.357   3.743   9.764
33198SOL    HW2 1434   0.397   3.756   9.619
33199SOL     OW 1435  13.772  14.120   5.733
33199SOL    HW1 1436  13.688  14.146   5.694
33199SOL    HW2 1437  13.778  14.026   5.717
33200SOL     OW 1438   8.758  10.860   9.270
33200SOL    HW1 1439   8.665  10.868   9.293
33200SOL    HW2 1440   8.759  10.801   9.194
33201SOL     OW 1441   1.648   4.800  10.156
33201SOL    HW1 1442   1.731   4.826  10.114
33201SOL    HW2 1443   1.597   4.881  10.158
33202SOL     OW 1444  12.234   1.889   2.642
33202SOL    HW1 1445  12.248   1.933   2.558
33202SOL    HW2 1446  12.161   1.936   2.682
33203SOL     OW 1447  12.171   8.447   7.683
33203SOL    HW1 1448  12.207   8.366   7.649
33203SOL    HW2 1449  12.240   8.481   7.741
33204SOL     OW 1450  10.667   7.767  14.035
33204SOL    HW1 1451  10.638   7.849  13.993
33204SOL    HW2 1452  10.691   7.710  13.963
33205SOL     OW 1453   5.002  10.395   3.960
33205SOL    HW1 1454   4.907  10.394   3.971
33205SOL    HW2 1455   5.032  10.462   4.021
33206SOL     OW 1456   5.411  14.655   6.658
33206SOL    HW1 1457   5.479  14.692   6.601
33206SOL    HW2 1458   5.352  14.610   6.598
33207SOL     OW 1459   7.591  13.421   7.014
33207SOL    HW1 1460   7.581  13.485   6.944
33207SOL    HW2 1461   7.502  13.398   7.039
33208SOL     OW 1462   3.627   6.627   0.652
33208SOL    HW1 1463   3.671   6.683   0.587
33208SOL    HW2 1464   3.602   6.687   0.722
33209SOL     OW 1465   3.072  12.021   9.867
33209SOL    HW1 1466   3.164  12.037   9.847
33209SOL    HW2 1467   3.058  12.062   9.952
33210SOL     OW 1468   7.273   6.811  12.234
33210SOL    HW1 1469   7.306   6.729  12.269
33210SOL    HW2 1470   7.302   6.813  12.143
33211SOL     OW 1471   4.118   7.600   0.298
33211SOL    HW1 1472   4.091   7.621   0.387
33211SOL    HW2 1473   4.064   7.656   0.242
33212SOL     OW 1474  13.750   6.371   5.789
33212SOL    HW1 1475  13.683   6.429   5.825
33212SOL    HW2 1476  13.810   6.430   5.742
33213SOL     OW 1477  11.824   5.810  13.420
33213SOL    HW1 1478  11.889   5.790  13.353
33213SOL    HW2 1479  11.821   5.732  13.474
33214SOL     OW 1480   8.194   7.502   4.444
33214SOL    HW1 1481   8.224   7.498   4.353
33214SOL    HW2 1482   8.164   7.592   4.455
33215SOL     OW 1483   0.576   8.081   1.752
33215SOL    HW1 1484   0.598   8.043   1.667
33215SOL    HW2 1485   0.613   8.020   1.816
33216SOL     OW 1486   2.863   1.213   6.838
33216SOL    HW1 1487   2.951   1.206   6.802
33216SOL    HW2 1488   2.854   1.305   6.863
33217SOL     OW 1489   5.008   6.958  14.362
33217SOL    HW1 1490   5.037   6.932  14.449
33217SOL    HW2 1491   5.029   7.051  14.356
33218SOL     OW 1492   2.371   5.547   4.834
33218SOL    HW1 1493   2.295   5.605   4.835
33218SOL    HW2 1494   2.435   5.593   4.780
33219SOL     OW 1495   4.679   0.425   1.066
33219SOL    HW1 1496   4.687   0.376   0.985
33219SOL    HW2 1497   4.678   0.358   1.135
33220SOL     OW 1498   6.892   5.644   9.053
33220SOL    HW1 1499   6.836   5.666   8.979
33220SOL    HW2 1500   6.874   5.711   9.118
33221SOL     OW 1501   1.059   7.146  14.483
33221SOL    HW1 1502   1.131   7.084  14.477
33221SOL    HW2 1503   0.989   7.098  14.525
33222SOL     OW 1504   6.242  12.190   2.743
33222SOL    HW1 1505   6.248  12.155   2.654
33222SOL    HW2 1506   6.157  12.234   2.745
33223SOL     OW 1507  12.085   8.730   6.767
33223SOL    HW1 1508  11.997   8.765   6.752
33223SOL    HW2 1509  12.143   8.800   6.737
33224SOL     OW 1510   9.561  11.923  12.770
33224SOL    HW1 1511   9.579  11.883  12.855
33224SOL    HW2 1512   9.639  11.904  12.718
33225SOL     OW 1513   8.280   4.467   4.791
33225SOL    HW1 1514   8.281   4.474   4.886
33225SOL    HW2 1515   8.189   4.482   4.767
33226SOL     OW 1516  11.468   3.827   3.546
33226SOL    HW1 1517  11.382   3.830   3.588
33226SOL    HW2 1518  11.451   3.845   3.454
33227SOL     OW 1519   2.268   7.434   3.060
33227SOL    HW1 1520   2.286   7.528   3.058
33227SOL    HW2 1521   2.237   7.417   3.149
33228SOL     OW 1522   0.919  10.626   1.998
33228SOL    HW1 1523   0.923  10.639   1.903
33228SOL    HW2 1524   0.856  10.556   2.011
33229SOL     OW 1525  10.375   4.692   9.554
33229SOL    HW1 1526  10.396   4.759   9.619
33229SOL    HW2 1527  10.324   4.738   9.487
33230SOL     OW 1528   1.247   3.111  11.253
33230SOL    HW1 1529   1.271   3.161  11.175
33230SOL    HW2 1530   1.236   3.177  11.321
33231SOL     OW 1531   3.483   9.269  12.897
33231SOL    HW1 1532   3.435   9.351  12.886
33231SOL    HW2 1533   3.516   9.248  12.810
33232SOL     OW 1534   9.188   5.459  12.182
33232SOL    HW1 1535   9.266   5.490  12.227
33232SOL    HW2 1536   9.115   5.503  12.226
33233SOL     OW 1537   8.180   8.954   6.676
33233SOL    HW1 1538   8.212   8.918   6.594
33233SOL    HW2 1539   8.094   8.990   6.654
33234SOL     OW 1540  12.004   4.732   1.578
33234SOL    HW1 1541  11.971   4.817   1.550
33234SOL    HW2 1542  12.064   4.752   1.651
33235SOL     OW 1543   3.009  10.457  10.234
33235SOL    HW1 1544   2.974  10.546  10.229
33235SOL    HW2 1545   3.000  10.422  10.145
33236SOL     OW 1546   1.282   7.311   1.903
33236SOL    HW1 1547   1.249   7.250   1.969
33236SOL    HW2 1548   1.369   7.335   1.934
33237SOL     OW 1549   4.868   6.759  10.809
33237SOL    HW1 1550   4.834   6.719  10.729
33237SOL    HW2 1551   4.951   6.799  10.783
33238SOL     OW 1552   1.058  10.289   2.987
33238SOL    HW1 1553   1.023  10.356   2.928
33238SOL    HW2 1554   0.980  10.239   3.014
33239SOL     OW 1555   1.957   9.784  11.388
33239SOL    HW1 1556   2.031   9.844  11.394
33239SOL    HW2 1557   1.903   9.820  11.318
33240SOL     OW 1558  14.508   3.535   2.694
33240SOL    HW1 1559  14.583   3.569   2.646
33240SOL    HW2 1560  14.458   3.613   2.719
33241SOL     OW 1561  13.188   9.500  14.626
33241SOL    HW1 1562  13.213   9.582  14.669
33241SOL    HW2 1563  13.145   9.528  14.545
33242SOL     OW 1564  12.581  12.704   4.500
33242SOL    HW1 1565  12.606  12.792   4.528
33242SOL    HW2 1566  12.633  12.646   4.555
33243SOL     OW 1567   5.212  10.438   9.331
33243SOL    HW1 1568   5.239  10.529   9.322
33243SOL    HW2 1569   5.241  10.396   9.249
33244SOL     OW 1570   9.553   9.991  13.532
33244SOL    HW1 1571   9.501  10.071  13.530
33244SOL    HW2 1572   9.642  10.019  13.512
33245SOL     OW 1573   5.916  14.580  12.946
33245SOL    HW1 1574   5.992  14.609  12.997
33245SOL    HW2 1575   5.897  14.652  12.886
33246SOL     OW 1576   4.213  10.598   9.237
33246SOL    HW1 1577   4.261  10.668   9.190
33246SOL    HW2 1578   4.246  10.603   9.326
33247SOL     OW 1579   4.714  13.237  13.788
33247SOL    HW1 1580   4.726  13.332  13.776
33247SOL    HW2 1581   4.620  13.227  13.801
33248SOL     OW 1582   5.378  11.035  10.570
33248SOL    HW1 1583   5.420  11.012  10.653
33248SOL    HW2 1584   5.315  10.965  10.554
33249SOL     OW 1585   5.321   7.623   0.785
33249SOL    HW1 1586   5.257   7.647   0.718
33249SOL    HW2 1587   5.316   7.695   0.849
33250SOL     OW 1588   6.675  10.753   8.887
33250SOL    HW1 1589   6.600  10.811   8.870
33250SOL    HW2 1590   6.661  10.679   8.829
33251SOL     OW 1591   6.426   0.421   4.846
33251SOL    HW1 1592   6.377   0.417   4.928
33251SOL    HW2 1593   6.394   0.347   4.795
33252SOL     OW 1594   6.776  14.548   5.663
33252SOL    HW1 1595   6.807  14.531   5.575
33252SOL    HW2 1596   6.726  14.471   5.687
33253SOL     OW 1597   5.820   3.242   6.580
33253SOL    HW1 1598   5.731   3.215   6.603
33253SOL    HW2 1599   5.869   3.160   6.574
33254SOL     OW 1600   7.807   0.745   4.304
33254SOL    HW1 1601   7.745   0.672   4.298
33254SOL    HW2 1602   7.869   0.717   4.371
33255SOL     OW 1603   2.719  14.490   4.931
33255SOL    HW1 1604   2.732  14.436   4.854
33255SOL    HW2 1605   2.625  14.490   4.946
33256SOL     OW 1606   0.786  13.781   5.701
33256SOL    HW1 1607   0.840  13.824   5.635
33256SOL    HW2 1608   0.696  13.796   5.671
33257SOL     OW 1609   2.367   7.824   5.576
33257SOL    HW1 1610   2.409   7.873   5.646
33257SOL    HW2 1611   2.426   7.833   5.501
33258SOL     OW 1612   2.969   9.073   8.224
33258SOL    HW1 1613   2.943   9.063   8.133
33258SOL    HW2 1614   2.888   9.097   8.270
33259SOL     OW 1615   7.272  14.159   0.554
33259SOL    HW1 1616   7.193  14.136   0.505
33259SOL    HW2 1617   7.272  14.254   0.558
33260SOL     OW 1618  12.007  11.086  10.800
33260SOL    HW1 1619  11.946  11.050  10.863
33260SOL    HW2 1620  11.952  11.124  10.732
33261SOL     OW 1621   8.698   5.431  10.454
33261SOL    HW1 1622   8.697   5.402  10.362
33261SOL    HW2 1623   8.700   5.527  10.448
33262SOL     OW 1624   9.614   7.497  11.558
33262SOL    HW1 1625   9.626   7.475  11.465
33262SOL    HW2 1626   9.521   7.519  11.566
33263SOL     OW 1627  13.715   4.965  14.319
33263SOL    HW1 1628  13.803   4.970  14.281
33263SOL    HW2 1629  13.662   4.921  14.252
33264SOL     OW 1630  11.662   6.998  12.955
33264SOL    HW1 1631  11.625   6.965  13.036
33264SOL    HW2 1632  11.757   6.999  12.970
33265SOL     OW 1633   0.811  13.150   4.194
33265SOL    HW1 1634   0.767  13.217   4.245
33265SOL    HW2 1635   0.821  13.076   4.254
33266SOL     OW 1636  12.723  14.120   5.658
33266SOL    HW1 1637  12.771  14.156   5.584
33266SOL    HW2 1638  12.648  14.075   5.618
33267SOL     OW 1639  13.254   6.601  14.400
33267SOL    HW1 1640  13.305   6.584  14.479
33267SOL    HW2 1641  13.309   6.659  14.348
33268SOL     OW 1642   1.208   0.375  10.213
33268SOL    HW1 1643   1.186   0.377  10.120
33268SOL    HW2 1644   1.304   0.374  10.215
33269SOL     OW 1645  13.954  10.205   0.580
33269SOL    HW1 1646  13.969  10.180   0.671
33269SOL    HW2 1647  14.034  10.249   0.553
33270SOL     OW 1648   1.367   8.883   4.955
33270SOL    HW1 1649   1.293   8.930   4.917
33270SOL    HW2 1650   1.422   8.950   4.994
33271SOL     OW 1651   9.605   5.212   8.044
33271SOL    HW1 1652   9.661   5.253   7.979
33271SOL    HW2 1653   9.584   5.127   8.007
33272SOL     OW 1654   5.557   3.321  12.641
33272SOL    HW1 1655   5.502   3.251  12.676
33272SOL    HW2 1656   5.595   3.362  12.719
33273SOL     OW 1657   1.970  13.072   5.847
33273SOL    HW1 1658   1.974  13.155   5.801
33273SOL    HW2 1659   1.965  13.096   5.940
33274SOL     OW 1660   2.394   3.031  14.730
33274SOL    HW1 1661   2.405   3.052  14.823
33274SOL    HW2 1662   2.483   3.020  14.697
33275SOL     OW 1663   3.156   3.412  12.465
33275SOL    HW1 1664   3.070   3.402  12.424
33275SOL    HW2 1665   3.183   3.323  12.487
33276SOL     OW 1666   3.443   5.750   4.824
33276SOL    HW1 1667   3.504   5.769   4.895
33276SOL    HW2 1668   3.369   5.708   4.867
33277SOL     OW 1669   5.735   2.984  13.489
33277SOL    HW1 1670   5.765   2.894  13.472
33277SOL    HW2 1671   5.813   3.038  13.477
33278SOL     OW 1672   8.318  10.946   3.018
33278SOL    HW1 1673   8.386  10.908   2.961
33278SOL    HW2 1674   8.367  10.984   3.091
33279SOL     OW 1675   3.174   7.366  10.211
33279SOL    HW1 1676   3.125   7.284  10.211
33279SOL    HW2 1677   3.107   7.434  10.208
33280SOL     OW 1678  11.521   1.143   5.845
33280SOL    HW1 1679  11.454   1.081   5.818
33280SOL    HW2 1680  11.594   1.088   5.874
33281SOL     OW 1681   8.017   6.000  13.979
33281SOL    HW1 1682   8.060   6.002  14.065
33281SOL    HW2 1683   7.929   6.035  13.997
33282SOL     OW 1684   5.393  12.986   1.983
33282SOL    HW1 1685   5.416  12.902   1.944
33282SOL    HW2 1686   5.473  13.038   1.978
33283SOL     OW 1687   4.981   5.204   4.548
33283SOL    HW1 1688   4.955   5.117   4.518
33283SOL    HW2 1689   5.037   5.188   4.625
33284SOL     OW 1690   6.102   9.069  14.717
33284SOL    HW1 1691   6.061   9.005  14.659
33284SOL    HW2 1692   6.185   9.091  14.675
33285SOL     OW 1693   4.571  11.855   2.551
33285SOL    HW1 1694   4.563  11.892   2.463
33285SOL    HW2 1695   4.485  11.867   2.590
33286SOL     OW 1696  11.685   6.214   3.101
33286SOL    HW1 1697  11.660   6.301   3.070
33286SOL    HW2 1698  11.608   6.159   3.084
33287SOL     OW 1699  13.477  14.845   1.373
33287SOL    HW1 1700  13.571  14.843   1.355
33287SOL    HW2 1701  13.471  14.869   1.466
33288SOL     OW 1702  14.420   0.498   3.853
33288SOL    HW1 1703  14.512   0.482   3.876
33288SOL    HW2 1704  14.372   0.479   3.933
33289SOL     OW 1705  13.138   4.020   0.842
33289SOL    HW1 1706  13.216   3.981   0.882
33289SOL    HW2 1707  13.081   3.946   0.822
33290SOL     OW 1708   0.822  12.800   4.002
33290SOL    HW1 1709   0.883  12.781   4.074
33290SOL    HW2 1710   0.752  12.851   4.043
33291SOL     OW 1711   6.979   2.163  14.390
33291SOL    HW1 1712   6.906   2.216  14.423
33291SOL    HW2 1713   6.939   2.108  14.322
33292SOL     OW 1714  11.559  11.113   8.374
33292SOL    HW1 1715  11.629  11.149   8.319
33292SOL    HW2 1716  11.478  11.146   8.335
33293SOL     OW 1717  14.272   4.195   4.950
33293SOL    HW1 1718  14.307   4.120   4.999
33293SOL    HW2 1719  14.294   4.176   4.859
33294SOL     OW 1720  13.245  14.530   4.117
33294SOL    HW1 1721  13.188  14.596   4.078
33294SOL    HW2 1722  13.188  14.481   4.176
33295SOL     OW 1723   2.393   8.273  11.220
33295SOL    HW1 1724   2.429   8.250  11.305
33295SOL    HW2 1725   2.464   8.319  11.175
33296SOL     OW 1726   0.170   5.430   5.467
33296SOL    HW1 1727   0.086   5.475   5.456
33296SOL    HW2 1728   0.228   5.496   5.504
33297SOL     OW 1729   8.887   0.772  13.597
33297SOL    HW1 1730   8.922   0.683  13.592
33297SOL    HW2 1731   8.953   0.826  13.554
33298SOL     OW 1732   6.462   0.272   9.076
33298SOL    HW1 1733   6.389   0.238   9.025
33298SOL    HW2 1734   6.447   0.367   9.080
33299SOL     OW 1735  10.205   8.865   5.222
33299SOL    HW1 1736  10.184   8.957   5.204
33299SOL    HW2 1737  10.212   8.824   5.136
33300SOL     OW 1738   5.054   5.916   2.656
33300SOL    HW1 1739   5.007   5.834   2.638
33300SOL    HW2 1740   5.045   5.928   2.751
33301SOL     OW 1741   1.976   0.087   3.536
33301SOL    HW1 1742   2.046   0.131   3.488
33301SOL    HW2 1743   1.897   0.109   3.487
33302SOL     OW 1744   4.022   6.115   5.431
33302SOL    HW1 1745   4.000   6.102   5.339
33302SOL    HW2 1746   3.959   6.061   5.479
33303SOL     OW 1747  12.910   1.514  12.465
33303SOL    HW1 1748  12.944   1.517  12.554
33303SOL    HW2 1749  12.814   1.512  12.476
33304SOL     OW 1750   5.387  10.910   0.585
33304SOL    HW1 1751   5.469  10.958   0.573
33304SOL    HW2 1752   5.322  10.978   0.604
33305SOL     OW 1753   4.804   3.300  11.175
33305SOL    HW1 1754   4.885   3.250  11.178
33305SOL    HW2 1755   4.761   3.281  11.259
33306SOL     OW 1756  13.243   5.968   5.216
33306SOL    HW1 1757  13.254   6.033   5.285
33306SOL    HW2 1758  13.331   5.952   5.183
33307SOL     OW 1759   8.988  14.156  10.138
33307SOL    HW1 1760   9.035  14.180  10.058
33307SOL    HW2 1761   8.896  14.163  10.115
33308SOL     OW 1762   1.335   2.749   1.709
33308SOL    HW1 1763   1.312   2.840   1.727
33308SOL    HW2 1764   1.273   2.698   1.761
33309SOL     OW 1765   2.734   1.337   1.792
33309SOL    HW1 1766   2.678   1.267   1.760
33309SOL    HW2 1767   2.777   1.372   1.714
33310SOL     OW 1768   2.635   0.417  10.666
33310SOL    HW1 1769   2.729   0.410  10.682
33310SOL    HW2 1770   2.606   0.486  10.726
33311SOL     OW 1771   9.551  12.800   9.339
33311SOL    HW1 1772   9.580  12.760   9.258
33311SOL    HW2 1773   9.514  12.728   9.390
33312SOL     OW 1774  14.526  11.528   3.431
33312SOL    HW1 1775  14.622  11.527   3.425
33312SOL    HW2 1776  14.497  11.504   3.343
33313SOL     OW 1777  14.867   1.737   7.919
33313SOL    HW1 1778   0.075   1.769   7.944
33313SOL    HW2 1779   0.005   1.673   7.851
33314SOL     OW 1780  12.649   1.264   2.338
33314SOL    HW1 1781  12.662   1.171   2.323
33314SOL    HW2 1782  12.633   1.272   2.432
33315SOL     OW 1783   5.842  13.990   8.368
33315SOL    HW1 1784   5.833  14.012   8.461
33315SOL    HW2 1785   5.754  14.003   8.332
33316SOL     OW 1786   5.001   2.830   2.227
33316SOL    HW1 1787   4.966   2.803   2.142
33316SOL    HW2 1788   5.034   2.750   2.266
33317SOL     OW 1789  13.770   9.214   2.630
33317SOL    HW1 1790  13.760   9.287   2.691
33317SOL    HW2 1791  13.681   9.196   2.599
33318SOL     OW 1792   2.627   7.422   7.246
33318SOL    HW1 1793   2.658   7.341   7.205
33318SOL    HW2 1794   2.562   7.393   7.310
33319SOL     OW 1795  12.185  11.277  10.733
33319SOL    HW1 1796  12.141  11.198  10.766
33319SOL    HW2 1797  12.261  11.243  10.686
33320SOL     OW 1798  14.534   5.500   2.136
33320SOL    HW1 1799  14.550   5.410   2.165
33320SOL    HW2 1800  14.452   5.495   2.088
33321SOL     OW 1801   1.462  10.124   7.261
33321SOL    HW1 1802   1.376  10.128   7.303
33321SOL    HW2 1803   1.460  10.042   7.211
33322SOL     OW 1804   4.074   8.861   0.634
33322SOL    HW1 1805   4.079   8.957   0.630
33322SOL    HW2 1806   4.001   8.844   0.693
33323SOL     OW 1807  12.622  13.555   7.501
33323SOL    HW1 1808  12.687  13.529   7.566
33323SOL    HW2 1809  12.566  13.619   7.546
33324SOL     OW 1810  13.792  13.790   5.236
33324SOL    HW1 1811  13.846  13.796   5.157
33324SOL    HW2 1812  13.829  13.855   5.296
33325SOL     OW 1813  12.755   1.413  14.404
33325SOL    HW1 1814  12.677   1.362  14.383
33325SOL    HW2 1815  12.773   1.391  14.496
33326SOL     OW 1816   9.437   9.944   0.163
33326SOL    HW1 1817   9.501   9.982   0.222
33326SOL    HW2 1818   9.487   9.880   0.111
33327SOL     OW 1819   6.168   5.886   9.627
33327SOL    HW1 1820   6.140   5.907   9.538
33327SOL    HW2 1821   6.159   5.791   9.633
33328SOL     OW 1822  14.010  13.297  13.277
33328SOL    HW1 1823  14.042  13.309  13.366
33328SOL    HW2 1824  14.036  13.207  13.254
33329SOL     OW 1825   4.250  11.257   3.025
33329SOL    HW1 1826   4.166  11.286   3.061
33329SOL    HW2 1827   4.281  11.190   3.086
33330SOL     OW 1828   2.150  12.834   6.984
33330SOL    HW1 1829   2.205  12.782   7.042
33330SOL    HW2 1830   2.104  12.894   7.042
33331SOL     OW 1831   3.775  11.597   2.509
33331SOL    HW1 1832   3.702  11.656   2.529
33331SOL    HW2 1833   3.733  11.517   2.477
33332SOL     OW 1834  11.319  11.056  10.343
33332SOL    HW1 1835  11.353  10.994  10.278
33332SOL    HW2 1836  11.225  11.057  10.328
33333SOL     OW 1837  13.090  12.972   4.482
33333SOL    HW1 1838  13.146  12.977   4.404
33333SOL    HW2 1839  13.009  13.016   4.456
33334SOL     OW 1840   7.130   7.566  14.774
33334SOL    HW1 1841   7.113   7.660  14.785
33334SOL    HW2 1842   7.127   7.551  14.680
33335SOL     OW 1843  11.781   7.719   4.477
33335SOL    HW1 1844  11.868   7.683   4.459
33335SOL    HW2 1845  11.769   7.706   4.571
33336SOL     OW 1846  12.280   4.521  11.861
33336SOL    HW1 1847  12.221   4.459  11.903
33336SOL    HW2 1848  12.354   4.528  11.921
33337SOL     OW 1849   6.343   4.916   5.631
33337SOL    HW1 1850   6.338   4.851   5.702
33337SOL    HW2 1851   6.356   4.999   5.676
33338SOL     OW 1852   1.592  14.848   6.911
33338SOL    HW1 1853   1.652   0.040   6.932
33338SOL    HW2 1854   1.604  14.784   6.982
33339SOL     OW 1855   7.184  12.025   1.095
33339SOL    HW1 1856   7.276  12.049   1.110
33339SOL    HW2 1857   7.160  11.974   1.172
33340SOL     OW 1858  13.826   2.125   3.594
33340SOL    HW1 1859  13.902   2.168   3.634
33340SOL    HW2 1860  13.766   2.109   3.667
33341SOL     OW 1861   2.463   7.938   0.636
33341SOL    HW1 1862   2.542   7.975   0.596
33341SOL    HW2 1863   2.394   8.001   0.614
33342SOL     OW 1864   1.385  14.678   2.778
33342SOL    HW1 1865   1.373  14.760   2.825
33342SOL    HW2 1866   1.472  14.686   2.737
33343SOL     OW 1867  12.378   1.657  12.557
33343SOL    HW1 1868  12.410   1.657  12.648
33343SOL    HW2 1869  12.457   1.654  12.504
33344SOL     OW 1870   7.536  14.865   1.426
33344SOL    HW1 1871   7.457   0.033   1.453
33344SOL    HW2 1872   7.545  14.795   1.490
33345SOL     OW 1873   3.918  13.546  11.400
33345SOL    HW1 1874   4.001  13.511  11.432
33345SOL    HW2 1875   3.884  13.598  11.473
33346SOL     OW 1876  13.762   1.187  13.245
33346SOL    HW1 1877  13.846   1.195  13.291
33346SOL    HW2 1878  13.713   1.265  13.273
33347SOL     OW 1879   1.658  13.706   6.177
33347SOL    HW1 1880   1.697  13.773   6.121
33347SOL    HW2 1881   1.658  13.626   6.124
33348SOL     OW 1882  14.057   9.755  11.270
33348SOL    HW1 1883  14.067   9.749  11.175
33348SOL    HW2 1884  14.137   9.799  11.300
33349SOL     OW 1885   6.557   1.506   2.907
33349SOL    HW1 1886   6.525   1.532   2.821
33349SOL    HW2 1887   6.542   1.411   2.910
33350SOL     OW 1888   2.572  14.142   9.446
33350SOL    HW1 1889   2.614  14.146   9.360
33350SOL    HW2 1890   2.567  14.233   9.475
33351SOL     OW 1891   3.719  14.045   7.679
33351SOL    HW1 1892   3.706  13.962   7.634
33351SOL    HW2 1893   3.739  14.021   7.770
33352SOL     OW 1894   7.782   2.012   3.320
33352SOL    HW1 1895   7.810   2.026   3.411
33352SOL    HW2 1896   7.860   1.981   3.274
33353SOL     OW 1897   6.546   8.834   3.942
33353SOL    HW1 1898   6.475   8.771   3.933
33353SOL    HW2 1899   6.624   8.787   3.912
33354SOL     OW 1900  13.416   9.882  10.565
33354SOL    HW1 1901  13.499   9.890  10.611
33354SOL    HW2 1902  13.399   9.969  10.529
33355SOL     OW 1903  14.844  10.796   3.213
33355SOL    HW1 1904  14.833  10.701   3.212
33355SOL    HW2 1905  14.790  10.826   3.287
33356SOL     OW 1906   7.841   0.360   0.433
33356SOL    HW1 1907   7.898   0.338   0.359
33356SOL    HW2 1908   7.876   0.309   0.506
33357SOL     OW 1909   0.933   3.840   6.716
33357SOL    HW1 1910   0.910   3.892   6.639
33357SOL    HW2 1911   0.927   3.902   6.789
33358SOL     OW 1912   5.992   5.276   2.918
33358SOL    HW1 1913   5.965   5.251   3.006
33358SOL    HW2 1914   5.967   5.368   2.910
33359SOL     OW 1915   8.889  10.936  11.398
33359SOL    HW1 1916   8.961  10.919  11.336
33359SOL    HW2 1917   8.827  10.988  11.347
33360SOL     OW 1918   9.066   9.216   9.371
33360SOL    HW1 1919   9.019   9.166   9.304
33360SOL    HW2 1920   9.094   9.150   9.434
33361SOL     OW 1921   5.161  10.194   3.093
33361SOL    HW1 1922   5.149  10.154   3.179
33361SOL    HW2 1923   5.195  10.123   3.038
33362SOL     OW 1924   9.573  11.840  13.513
33362SOL    HW1 1925   9.533  11.781  13.449
33362SOL    HW2 1926   9.502  11.899  13.538
33363SOL     OW 1927  10.687  10.200  12.687
33363SOL    HW1 1928  10.679  10.248  12.770
33363SOL    HW2 1929  10.597  10.186  12.658
33364SOL     OW 1930   6.937   0.643  13.660
33364SOL    HW1 1931   6.946   0.737  13.679
33364SOL    HW2 1932   6.943   0.601  13.746
33365SOL     OW 1933   2.699   4.074  11.434
33365SOL    HW1 1934   2.668   4.029  11.356
33365SOL    HW2 1935   2.794   4.067  11.430
33366SOL     OW 1936   5.607   9.474  11.035
33366SOL    HW1 1937   5.642   9.444  11.119
33366SOL    HW2 1938   5.682   9.471  10.976
33367SOL     OW 1939  10.010   5.834   4.185
33367SOL    HW1 1940   9.977   5.916   4.147
33367SOL    HW2 1941   9.989   5.768   4.119
33368SOL     OW 1942  14.173   5.892   6.934
33368SOL    HW1 1943  14.133   5.845   6.861
33368SOL    HW2 1944  14.101   5.912   6.993
33369SOL     OW 1945   9.671   9.287   8.590
33369SOL    HW1 1946   9.687   9.205   8.543
33369SOL    HW2 1947   9.664   9.353   8.521
33370SOL     OW 1948   1.402   8.075  10.810
33370SOL    HW1 1949   1.402   8.048  10.902
33370SOL    HW2 1950   1.365   8.001  10.763
33371SOL     OW 1951  10.409   3.076   4.118
33371SOL    HW1 1952  10.475   3.045   4.180
33371SOL    HW2 1953  10.448   3.062   4.032
33372SOL     OW 1954   8.055   8.416  11.479
33372SOL    HW1 1955   8.046   8.341  11.539
33372SOL    HW2 1956   7.992   8.480  11.511
33373SOL     OW 1957   6.110  11.105   6.569
33373SOL    HW1 1958   6.164  11.057   6.632
33373SOL    HW2 1959   6.172  11.156   6.517
33374SOL     OW 1960   8.327   5.702   0.177
33374SOL    HW1 1961   8.405   5.665   0.218
33374SOL    HW2 1962   8.359   5.776   0.126
33375SOL     OW 1963   0.236   6.090   4.141
33375SOL    HW1 1964   0.168   6.044   4.191
33375SOL    HW2 1965   0.209   6.182   4.145
33376SOL     OW 1966   5.169   0.151  10.815
33376SOL    HW1 1967   5.185   0.059  10.835
33376SOL    HW2 1968   5.161   0.194  10.900
33377SOL     OW 1969  13.471   5.375  13.798
33377SOL    HW1 1970  13.393   5.431  13.798
33377SOL    HW2 1971  13.462   5.323  13.878
33378SOL     OW 1972   6.972   7.704   8.811
33378SOL    HW1 1973   6.964   7.787   8.764
33378SOL    HW2 1974   6.958   7.637   8.743
33379SOL     OW 1975   9.448   6.710   5.272
33379SOL    HW1 1976   9.482   6.778   5.330
33379SOL    HW2 1977   9.376   6.752   5.225
33380SOL     OW 1978   1.255   1.929   2.148
33380SOL    HW1 1979   1.243   1.947   2.241
33380SOL    HW2 1980   1.312   2.000   2.118
33381SOL     OW 1981   3.099  13.537   5.720
33381SOL    HW1 1982   3.176  13.560   5.773
33381SOL    HW2 1983   3.083  13.445   5.741
33382SOL     OW 1984   3.844   1.169  13.972
33382SOL    HW1 1985   3.863   1.115  14.048
33382SOL    HW2 1986   3.929   1.196  13.938
33383SOL     OW 1987  11.965  12.190   7.429
33383SOL    HW1 1988  12.050  12.147   7.431
33383SOL    HW2 1989  11.970  12.250   7.355
33384SOL     OW 1990  10.433   2.310   7.687
33384SOL    HW1 1991  10.415   2.235   7.631
33384SOL    HW2 1992  10.491   2.276   7.755
33385SOL     OW 1993   9.386   8.075  14.356
33385SOL    HW1 1994   9.375   8.170  14.361
33385SOL    HW2 1995   9.478   8.060  14.375
33386SOL     OW 1996  10.513  13.445   3.265
33386SOL    HW1 1997  10.484  13.427   3.176
33386SOL    HW2 1998  10.573  13.374   3.286
33387SOL     OW 1999   1.256   4.567   4.173
33387SOL    HW1 2000   1.228   4.589   4.262
33387SOL    HW2 2001   1.300   4.482   4.182
33388SOL     OW 2002  11.941   4.049   6.966
33388SOL    HW1 2003  11.976   4.113   7.028
33388SOL    HW2 2004  11.944   3.966   7.014
33389SOL     OW 2005   4.895   6.978   6.811
33389SOL    HW1 2006   4.852   6.903   6.770
33389SOL    HW2 2007   4.847   6.992   6.892
33390SOL     OW 2008   7.192   0.076  10.997
33390SOL    HW1 2009   7.139   0.003  10.966
33390SOL    HW2 2010   7.181   0.143  10.930
33391SOL     OW 2011   2.408  10.270   3.051
33391SOL    HW1 2012   2.329  10.289   3.001
33391SOL    HW2 2013   2.479  10.281   2.988
33392SOL     OW 2014  14.542  10.203   7.410
33392SOL    HW1 2015  14.463  10.179   7.362
33392SOL    HW2 2016  14.581  10.274   7.358
33393SOL     OW 2017   0.970  10.523   8.852
33393SOL    HW1 2018   0.910  10.474   8.796
33393SOL    HW2 2019   0.917  10.595   8.886
33394SOL     OW 2020   4.102   4.006   8.488
33394SOL    HW1 2021   4.021   4.014   8.437
33394SOL    HW2 2022   4.079   4.041   8.574
33395SOL     OW 2023   0.400  13.021   8.385
33395SOL    HW1 2024   0.488  13.004   8.353
33395SOL    HW2 2025   0.347  13.029   8.306
33396SOL     OW 2026   0.531   6.340   1.459
33396SOL    HW1 2027   0.608   6.350   1.403
33396SOL    HW2 2028   0.459   6.324   1.399
33397SOL     OW 2029   6.832   5.461   2.984
33397SOL    HW1 2030   6.884   5.502   3.053
33397SOL    HW2 2031   6.782   5.393   3.029
33398SOL     OW 2032   4.465   8.384   3.678
33398SOL    HW1 2033   4.453   8.290   3.667
33398SOL    HW2 2034   4.509   8.393   3.763
33399SOL     OW 2035  10.306   9.580   3.385
33399SOL    HW1 2036  10.339   9.533   3.309
33399SOL    HW2 2037  10.256   9.653   3.349
33400SOL     OW 2038   2.514   2.262  12.360
33400SOL    HW1 2039   2.546   2.327  12.298
33400SOL    HW2 2040   2.483   2.313  12.434
33401SOL     OW 2041   9.276  12.594  12.296
33401SOL    HW1 2042   9.328  12.672  12.280
33401SOL    HW2 2043   9.293  12.571  12.387
33402SOL     OW 2044  11.497   2.242  12.208
33402SOL    HW1 2045  11.403   2.221  12.201
33402SOL    HW2 2046  11.499   2.330  12.247
33403SOL     OW 2047   9.589   3.483  14.018
33403SOL    HW1 2048   9.518   3.548  14.015
33403SOL    HW2 2049   9.669   3.535  14.025
33404SOL     OW 2050   9.440  10.595   4.416
33404SOL    HW1 2051   9.388  10.515   4.429
33404SOL    HW2 2052   9.420  10.650   4.491
33405SOL     OW 2053   5.496   9.766   1.596
33405SOL    HW1 2054   5.495   9.789   1.503
33405SOL    HW2 2055   5.589   9.760   1.617
33406SOL     OW 2056  11.134  11.483   1.742
33406SOL    HW1 2057  11.097  11.481   1.654
33406SOL    HW2 2058  11.066  11.521   1.797
33407SOL     OW 2059  14.629  13.499   2.350
33407SOL    HW1 2060  14.723  13.520   2.358
33407SOL    HW2 2061  14.621  13.411   2.387
33408SOL     OW 2062   0.164   9.223   2.094
33408SOL    HW1 2063   0.221   9.224   2.016
33408SOL    HW2 2064   0.101   9.153   2.077
33409SOL     OW 2065   4.559  10.278   8.644
33409SOL    HW1 2066   4.624  10.288   8.575
33409SOL    HW2 2067   4.482  10.241   8.601
33410SOL     OW 2068  11.853   1.868   4.156
33410SOL    HW1 2069  11.863   1.815   4.235
33410SOL    HW2 2070  11.939   1.865   4.115
33411SOL     OW 2071   8.659   0.571   3.478
33411SOL    HW1 2072   8.741   0.564   3.429
33411SOL    HW2 2073   8.651   0.664   3.499
33412SOL     OW 2074   2.139   2.221  11.872
33412SOL    HW1 2075   2.164   2.214  11.964
33412SOL    HW2 2076   2.094   2.305  11.865
33413SOL     OW 2077  13.313  14.402   0.298
33413SOL    HW1 2078  13.221  14.426   0.296
33413SOL    HW2 2079  13.331  14.385   0.391
33414SOL     OW 2080  13.344  14.627   1.808
33414SOL    HW1 2081  13.412  14.673   1.857
33414SOL    HW2 2082  13.378  14.538   1.797
33415SOL     OW 2083   2.590   4.994  11.105
33415SOL    HW1 2084   2.546   4.997  11.191
33415SOL    HW2 2085   2.636   4.910  11.105
33416SOL     OW 2086   1.034   8.671   8.616
33416SOL    HW1 2087   1.104   8.735   8.629
33416SOL    HW2 2088   0.954   8.715   8.644
33417SOL     OW 2089  13.610  13.959  14.303
33417SOL    HW1 2090  13.562  14.021  14.358
33417SOL    HW2 2091  13.701  13.968  14.331
33418SOL     OW 2092  10.069   2.318  14.457
33418SOL    HW1 2093   9.994   2.318  14.398
33418SOL    HW2 2094  10.066   2.232  14.499
33419SOL     OW 2095   1.740  13.630  10.924
33419SOL    HW1 2096   1.720  13.578  11.002
33419SOL    HW2 2097   1.678  13.598  10.858
33420SOL     OW 2098   2.854  14.305   3.768
33420SOL    HW1 2099   2.821  14.369   3.831
33420SOL    HW2 2100   2.900  14.240   3.823
33421SOL     OW 2101   2.190   5.532   2.939
33421SOL    HW1 2102   2.102   5.570   2.937
33421SOL    HW2 2103   2.220   5.547   3.029
33422SOL     OW 2104   3.626   6.148   4.785
33422SOL    HW1 2105   3.670   6.198   4.717
33422SOL    HW2 2106   3.536   6.182   4.785
33423SOL     OW 2107   5.813   6.290  10.622
33423SOL    HW1 2108   5.839   6.363  10.567
33423SOL    HW2 2109   5.894   6.239  10.634
33424SOL     OW 2110   0.870   5.514   3.351
33424SOL    HW1 2111   0.784   5.506   3.310
33424SOL    HW2 2112   0.932   5.516   3.278
33425SOL     OW 2113   2.896   2.099   2.261
33425SOL    HW1 2114   2.876   2.098   2.167
33425SOL    HW2 2115   2.848   2.023   2.296
33426SOL     OW 2116  12.563   0.081   8.641
33426SOL    HW1 2117  12.542   0.169   8.672
33426SOL    HW2 2118  12.481   0.048   8.605
33427SOL     OW 2119  11.361   5.502   7.318
33427SOL    HW1 2120  11.419   5.558   7.370
33427SOL    HW2 2121  11.340   5.555   7.241
33428SOL     OW 2122   4.030   1.748  12.091
33428SOL    HW1 2123   3.934   1.746  12.089
33428SOL    HW2 2124   4.051   1.831  12.133
33429SOL     OW 2125  13.976   2.207   0.962
33429SOL    HW1 2126  13.991   2.227   1.054
33429SOL    HW2 2127  13.994   2.114   0.954
33430SOL     OW 2128   2.606   3.773   4.929
33430SOL    HW1 2129   2.524   3.758   4.882
33430SOL    HW2 2130   2.605   3.866   4.951
33431SOL     OW 2131  11.505   6.488   9.733
33431SOL    HW1 2132  11.582   6.493   9.676
33431SOL    HW2 2133  11.490   6.394   9.745
33432SOL     OW 2134  13.197   5.770   2.737
33432SOL    HW1 2135  13.151   5.827   2.676
33432SOL    HW2 2136  13.258   5.827   2.783
33433SOL     OW 2137  12.943   5.023   1.472
33433SOL    HW1 2138  13.001   5.039   1.398
33433SOL    HW2 2139  12.954   4.929   1.491
33434SOL     OW 2140  12.064  11.274   1.688
33434SOL    HW1 2141  11.977  11.260   1.649
33434SOL    HW2 2142  12.047  11.276   1.782
33435SOL     OW 2143  12.123   1.551  11.858
33435SOL    HW1 2144  12.087   1.599  11.933
33435SOL    HW2 2145  12.062   1.479  11.845
33436SOL     OW 2146   6.433  12.156   4.036
33436SOL    HW1 2147   6.434  12.251   4.049
33436SOL    HW2 2148   6.463  12.143   3.946
33437SOL     OW 2149  10.799  13.684   6.478
33437SOL    HW1 2150  10.747  13.627   6.421
33437SOL    HW2 2151  10.856  13.624   6.526
33438SOL     OW 2152   3.213   8.806   0.632
33438SOL    HW1 2153   3.159   8.880   0.660
33438SOL    HW2 2154   3.185   8.733   0.687
33439SOL     OW 2155   6.555   9.693   4.578
33439SOL    HW1 2156   6.479   9.721   4.526
33439SOL    HW2 2157   6.569   9.602   4.553
33440SOL     OW 2158  12.899   7.755  12.677
33440SOL    HW1 2159  12.941   7.669  12.675
33440SOL    HW2 2160  12.820   7.744  12.624
33441SOL     OW 2161   2.541  13.960  11.612
33441SOL    HW1 2162   2.471  13.897  11.629
33441SOL    HW2 2163   2.552  14.007  11.695
33442SOL     OW 2164  14.755   9.155   0.585
33442SOL    HW1 2165  14.847   9.177   0.597
33442SOL    HW2 2166  14.733   9.104   0.663
33443SOL     OW 2167  13.158  10.816   4.173
33443SOL    HW1 2168  13.226  10.823   4.240
33443SOL    HW2 2169  13.128  10.906   4.160
33444SOL     OW 2170  11.713   2.293   5.588
33444SOL    HW1 2171  11.688   2.272   5.498
33444SOL    HW2 2172  11.643   2.350   5.620
33445SOL     OW 2173   7.772   9.069   2.570
33445SOL    HW1 2174   7.789   8.983   2.609
33445SOL    HW2 2175   7.766   9.051   2.476
33446SOL     OW 2176  13.687   6.426   8.638
33446SOL    HW1 2177  13.749   6.430   8.565
33446SOL    HW2 2178  13.647   6.514   8.640
33447SOL     OW 2179   4.697   0.135   4.255
33447SOL    HW1 2180   4.771   0.195   4.251
33447SOL    HW2 2181   4.662   0.134   4.165
33448SOL     OW 2182  11.197   2.549   5.216
33448SOL    HW1 2183  11.271   2.502   5.254
33448SOL    HW2 2184  11.233   2.599   5.144
33449SOL     OW 2185   1.449  13.020   0.291
33449SOL    HW1 2186   1.457  13.016   0.196
33449SOL    HW2 2187   1.536  13.042   0.322
33450SOL     OW 2188   6.470   9.817   2.951
33450SOL    HW1 2189   6.548   9.783   2.995
33450SOL    HW2 2190   6.429   9.741   2.911
33451SOL     OW 2191  10.117   5.988   2.263
33451SOL    HW1 2192  10.069   5.965   2.343
33451SOL    HW2 2193  10.203   5.947   2.273
33452SOL     OW 2194   1.434   1.988   8.636
33452SOL    HW1 2195   1.444   1.960   8.727
33452SOL    HW2 2196   1.392   1.915   8.593
33453SOL     OW 2197  10.280  10.149   5.565
33453SOL    HW1 2198  10.224  10.081   5.601
33453SOL    HW2 2199  10.293  10.124   5.473
33454SOL     OW 2200   9.551   2.611   6.477
33454SOL    HW1 2201   9.620   2.592   6.540
33454SOL    HW2 2202   9.476   2.559   6.506
33455SOL     OW 2203  14.125   4.348  13.304
33455SOL    HW1 2204  14.164   4.304  13.228
33455SOL    HW2 2205  14.042   4.303  13.318
33456SOL     OW 2206  11.275   2.775   6.086
33456SOL    HW1 2207  11.180   2.777   6.080
33456SOL    HW2 2208  11.300   2.699   6.033
33457SOL     OW 2209   7.770  10.854   2.518
33457SOL    HW1 2210   7.797  10.864   2.427
33457SOL    HW2 2211   7.686  10.808   2.513
33458SOL     OW 2212   1.514   2.916   5.333
33458SOL    HW1 2213   1.504   2.919   5.238
33458SOL    HW2 2214   1.510   3.008   5.361
33459SOL     OW 2215   7.051   6.647   8.834
33459SOL    HW1 2216   7.047   6.732   8.788
33459SOL    HW2 2217   7.002   6.587   8.778
33460SOL     OW 2218  13.474   0.749   7.792
33460SOL    HW1 2219  13.404   0.785   7.738
33460SOL    HW2 2220  13.494   0.664   7.752
33461SOL     OW 2221   4.690   9.292  13.458
33461SOL    HW1 2222   4.644   9.266  13.538
33461SOL    HW2 2223   4.757   9.225  13.447
33462SOL     OW 2224   0.756   2.454  14.481
33462SOL    HW1 2225   0.851   2.445  14.489
33462SOL    HW2 2226   0.721   2.389  14.542
33463SOL     OW 2227  14.687  11.926   2.634
33463SOL    HW1 2228  14.599  11.963   2.628
33463SOL    HW2 2229  14.673  11.838   2.670
33464SOL     OW 2230  14.184   7.333  10.451
33464SOL    HW1 2231  14.177   7.417  10.497
33464SOL    HW2 2232  14.267   7.295  10.482
33465SOL     OW 2233   1.284  13.961   2.512
33465SOL    HW1 2234   1.263  14.000   2.597
33465SOL    HW2 2235   1.199  13.945   2.471
33466SOL     OW 2236   8.065   1.336   4.113
33466SOL    HW1 2237   7.998   1.269   4.101
33466SOL    HW2 2238   8.136   1.309   4.055
33467SOL     OW 2239  14.458   3.947   5.011
33467SOL    HW1 2240  14.513   3.871   4.992
33467SOL    HW2 2241  14.384   3.911   5.059
33468SOL     OW 2242   1.334   3.515   8.429
33468SOL    HW1 2243   1.420   3.526   8.471
33468SOL    HW2 2244   1.304   3.429   8.460
33469SOL     OW 2245   6.601   9.614   8.670
33469SOL    HW1 2246   6.537   9.658   8.726
33469SOL    HW2 2247   6.561   9.530   8.648
33470SOL     OW 2248  10.618  14.018   7.129
33470SOL    HW1 2249  10.708  14.016   7.096
33470SOL    HW2 2250  10.613  13.944   7.190
33471SOL     OW 2251   6.646  10.038   5.405
33471SOL    HW1 2252   6.658   9.988   5.324
33471SOL    HW2 2253   6.552  10.055   5.408
33472SOL     OW 2254   1.681  11.016  10.540
33472SOL    HW1 2255   1.768  11.013  10.502
33472SOL    HW2 2256   1.692  11.061  10.623
33473SOL     OW 2257   0.541  12.180   3.599
33473SOL    HW1 2258   0.505  12.127   3.669
33473SOL    HW2 2259   0.577  12.257   3.643
33474SOL     OW 2260   0.982  10.021  11.312
33474SOL    HW1 2261   1.075  10.024  11.291
33474SOL    HW2 2262   0.975   9.957  11.382
33475SOL     OW 2263   3.477   9.499  13.236
33475SOL    HW1 2264   3.499   9.515  13.144
33475SOL    HW2 2265   3.534   9.558  13.285
33476SOL     OW 2266  12.100  10.781   7.098
33476SOL    HW1 2267  12.152  10.726   7.157
33476SOL    HW2 2268  12.109  10.869   7.134
33477SOL     OW 2269   8.827   6.931  14.549
33477SOL    HW1 2270   8.844   7.003  14.488
33477SOL    HW2 2271   8.770   6.969  14.616
33478SOL     OW 2272   8.510  13.350   0.447
33478SOL    HW1 2273   8.513  13.389   0.535
33478SOL    HW2 2274   8.539  13.420   0.389
33479SOL     OW 2275   5.946   1.677   9.785
33479SOL    HW1 2276   5.889   1.703   9.858
33479SOL    HW2 2277   5.981   1.591   9.811
33480SOL     OW 2278   1.581  13.402   9.398
33480SOL    HW1 2279   1.581  13.387   9.492
33480SOL    HW2 2280   1.587  13.497   9.389
33481SOL     OW 2281  12.665   5.481   5.591
33481SOL    HW1 2282  12.612   5.548   5.635
33481SOL    HW2 2283  12.608   5.447   5.522
33482SOL     OW 2284   1.960  12.726  11.085
33482SOL    HW1 2285   1.955  12.792  11.154
33482SOL    HW2 2286   2.054  12.715  11.068
33483SOL     OW 2287  11.680   2.304   7.562
33483SOL    HW1 2288  11.733   2.248   7.504
33483SOL    HW2 2289  11.723   2.298   7.647
33484SOL     OW 2290   8.572   2.478   2.281
33484SOL    HW1 2291   8.550   2.402   2.336
33484SOL    HW2 2292   8.618   2.538   2.339
33485SOL     OW 2293   2.516  12.602   8.413
33485SOL    HW1 2294   2.529  12.684   8.462
33485SOL    HW2 2295   2.507  12.631   8.322
33486SOL     OW 2296   6.269  11.879   7.194
33486SOL    HW1 2297   6.302  11.915   7.276
33486SOL    HW2 2298   6.328  11.806   7.174
33487SOL     OW 2299   2.501  14.440   8.671
33487SOL    HW1 2300   2.476  14.508   8.733
33487SOL    HW2 2301   2.452  14.363   8.700
33488SOL     OW 2302  12.003   0.113  12.250
33488SOL    HW1 2303  12.014   0.091  12.157
33488SOL    HW2 2304  11.912   0.092  12.269
33489SOL     OW 2305   5.708   2.551   0.288
33489SOL    HW1 2306   5.696   2.461   0.258
33489SOL    HW2 2307   5.789   2.579   0.245
33490SOL     OW 2308   0.791   8.722  14.002
33490SOL    HW1 2309   0.863   8.734  14.064
33490SOL    HW2 2310   0.819   8.768  13.923
33491SOL     OW 2311   1.531   8.064   3.022
33491SOL    HW1 2312   1.617   8.033   3.053
33491SOL    HW2 2313   1.473   8.051   3.097
33492SOL     OW 2314  10.197   9.385   2.575
33492SOL    HW1 2315  10.247   9.407   2.654
33492SOL    HW2 2316  10.132   9.454   2.568
33493SOL     OW 2317  11.597  12.993   7.621
33493SOL    HW1 2318  11.564  12.967   7.707
33493SOL    HW2 2319  11.534  12.956   7.559
33494SOL     OW 2320   0.146  10.278   7.812
33494SOL    HW1 2321   0.160  10.336   7.737
33494SOL    HW2 2322   0.053  10.255   7.809
33495SOL     OW 2323   7.564   5.716   5.087
33495SOL    HW1 2324   7.526   5.752   5.008
33495SOL    HW2 2325   7.521   5.631   5.098
33496SOL     OW 2326   9.033   2.012   6.581
33496SOL    HW1 2327   9.080   2.061   6.648
33496SOL    HW2 2328   8.964   1.966   6.629
33497SOL     OW 2329   9.772   8.568  11.742
33497SOL    HW1 2330   9.839   8.581  11.809
33497SOL    HW2 2331   9.767   8.473  11.730
33498SOL     OW 2332   3.312  10.614   5.500
33498SOL    HW1 2333   3.384  10.677   5.499
33498SOL    HW2 2334   3.246  10.651   5.441
33499SOL     OW 2335   4.544   9.426   4.467
33499SOL    HW1 2336   4.521   9.468   4.550
33499SOL    HW2 2337   4.461   9.413   4.423
33500SOL     OW 2338  11.806   6.950   3.874
33500SOL    HW1 2339  11.734   6.898   3.837
33500SOL    HW2 2340  11.863   6.969   3.799
33501SOL     OW 2341   2.585   7.277   5.142
33501SOL    HW1 2342   2.562   7.370   5.150
33501SOL    HW2 2343   2.522   7.231   5.197
33502SOL     OW 2344  12.895  12.464   2.469
33502SOL    HW1 2345  12.853  12.386   2.505
33502SOL    HW2 2346  12.827  12.532   2.472
33503SOL     OW 2347  11.771  12.129  11.160
33503SOL    HW1 2348  11.837  12.110  11.227
33503SOL    HW2 2349  11.705  12.060  11.171
33504SOL     OW 2350   1.127   5.735   3.601
33504SOL    HW1 2351   1.162   5.824   3.592
33504SOL    HW2 2352   1.200   5.684   3.634
33505SOL     OW 2353   5.372   8.978   4.493
33505SOL    HW1 2354   5.458   8.937   4.485
33505SOL    HW2 2355   5.385   9.067   4.460
33506SOL     OW 2356   1.559  12.287   7.448
33506SOL    HW1 2357   1.565  12.356   7.382
33506SOL    HW2 2358   1.613  12.215   7.413
33507SOL     OW 2359   3.790  14.748   1.197
33507SOL    HW1 2360   3.852  14.812   1.231
33507SOL    HW2 2361   3.832  14.663   1.210
33508SOL     OW 2362   0.929   9.506   6.684
33508SOL    HW1 2363   0.842   9.475   6.709
33508SOL    HW2 2364   0.914   9.572   6.617
33509SOL     OW 2365  11.124   7.527   7.690
33509SOL    HW1 2366  11.132   7.457   7.755
33509SOL    HW2 2367  11.129   7.483   7.605
33510SOL     OW 2368   8.091   9.073   8.448
33510SOL    HW1 2369   8.130   9.132   8.383
33510SOL    HW2 2370   8.003   9.057   8.416
33511SOL     OW 2371  12.770  11.007   6.566
33511SOL    HW1 2372  12.727  10.923   6.580
33511SOL    HW2 2373  12.789  11.009   6.472
33512SOL     OW 2374   0.566  11.967  10.559
33512SOL    HW1 2375   0.573  11.897  10.623
33512SOL    HW2 2376   0.652  11.967  10.515
33513SOL     OW 2377   2.401   6.715   1.492
33513SOL    HW1 2378   2.325   6.709   1.550
33513SOL    HW2 2379   2.376   6.780   1.426
33514SOL     OW 2380   5.758   7.150   4.658
33514SOL    HW1 2381   5.810   7.112   4.728
33514SOL    HW2 2382   5.823   7.182   4.595
33515SOL     OW 2383   0.901   6.294   1.610
33515SOL    HW1 2384   0.898   6.304   1.515
33515SOL    HW2 2385   0.883   6.201   1.625
33516SOL     OW 2386   4.175   3.450   3.647
33516SOL    HW1 2387   4.183   3.504   3.568
33516SOL    HW2 2388   4.202   3.362   3.618
33517SOL     OW 2389   4.766   4.152  10.231
33517SOL    HW1 2390   4.788   4.132  10.322
33517SOL    HW2 2391   4.841   4.203  10.199
33518SOL     OW 2392   5.386   6.668  10.388
33518SOL    HW1 2393   5.452   6.624  10.443
33518SOL    HW2 2394   5.380   6.613  10.310
33519SOL     OW 2395  14.480   3.561   8.328
33519SOL    HW1 2396  14.573   3.562   8.350
33519SOL    HW2 2397  14.441   3.500   8.391
33520SOL     OW 2398   4.220   0.917  12.892
33520SOL    HW1 2399   4.244   0.936  12.801
33520SOL    HW2 2400   4.139   0.868  12.885
33521SOL     OW 2401   6.586   2.087  10.482
33521SOL    HW1 2402   6.595   1.993  10.468
33521SOL    HW2 2403   6.496   2.107  10.455
33522SOL     OW 2404  11.070   1.167   1.040
33522SOL    HW1 2405  11.106   1.121   1.116
33522SOL    HW2 2406  11.089   1.110   0.966
33523SOL     OW 2407  13.035  10.914   3.603
33523SOL    HW1 2408  12.939  10.917   3.610
33523SOL    HW2 2409  13.051  10.854   3.530
33524SOL     OW 2410   1.506   2.466   0.466
33524SOL    HW1 2411   1.513   2.414   0.546
33524SOL    HW2 2412   1.412   2.474   0.451
33525SOL     OW 2413  14.767  10.900   1.371
33525SOL    HW1 2414  14.778  10.848   1.291
33525SOL    HW2 2415  14.696  10.961   1.350
33526SOL     OW 2416   2.064   3.458   6.954
33526SOL    HW1 2417   2.052   3.533   7.012
33526SOL    HW2 2418   1.983   3.452   6.904
33527SOL     OW 2419  10.297   4.159  13.189
33527SOL    HW1 2420  10.290   4.247  13.227
33527SOL    HW2 2421  10.341   4.172  13.105
33528SOL     OW 2422  13.075   7.543  11.962
33528SOL    HW1 2423  13.090   7.568  11.871
33528SOL    HW2 2424  13.002   7.598  11.990
33529SOL     OW 2425   5.194   3.685   1.051
33529SOL    HW1 2426   5.273   3.726   1.089
33529SOL    HW2 2427   5.126   3.698   1.117
33530SOL     OW 2428   9.563  13.118  13.043
33530SOL    HW1 2429   9.554  13.213  13.031
33530SOL    HW2 2430   9.489  13.082  12.994
33531SOL     OW 2431   3.918  13.860   4.480
33531SOL    HW1 2432   4.010  13.852   4.457
33531SOL    HW2 2433   3.903  13.955   4.485
33532SOL     OW 2434   3.970   0.307  14.431
33532SOL    HW1 2435   4.012   0.276  14.352
33532SOL    HW2 2436   4.037   0.359  14.476
33533SOL     OW 2437   8.708   8.299  11.805
33533SOL    HW1 2438   8.681   8.306  11.896
33533SOL    HW2 2439   8.626   8.287  11.757
33534SOL     OW 2440  13.995   1.107   1.359
33534SOL    HW1 2441  14.056   1.073   1.424
33534SOL    HW2 2442  13.965   1.029   1.312
33535SOL     OW 2443   0.453   0.242   9.819
33535SOL    HW1 2444   0.380   0.181   9.811
33535SOL    HW2 2445   0.468   0.249   9.913
33536SOL     OW 2446   4.056  14.470   1.882
33536SOL    HW1 2447   4.095  14.557   1.871
33536SOL    HW2 2448   4.087  14.441   1.968
33537SOL     OW 2449   8.113   2.200   5.791
33537SOL    HW1 2450   8.063   2.163   5.718
33537SOL    HW2 2451   8.204   2.178   5.771
33538SOL     OW 2452   6.715   7.477  10.208
33538SOL    HW1 2453   6.801   7.436  10.206
33538SOL    HW2 2454   6.707   7.522  10.124
33539SOL     OW 2455  11.339  14.607   2.186
33539SOL    HW1 2456  11.383  14.591   2.270
33539SOL    HW2 2457  11.297  14.523   2.164
33540SOL     OW 2458   7.387  13.819  13.613
33540SOL    HW1 2459   7.361  13.740  13.660
33540SOL    HW2 2460   7.361  13.803  13.523
33541SOL     OW 2461   9.736  13.675  14.283
33541SOL    HW1 2462   9.653  13.716  14.259
33541SOL    HW2 2463   9.739  13.595  14.230
33542SOL     OW 2464   4.653   8.932   6.789
33542SOL    HW1 2465   4.617   8.992   6.854
33542SOL    HW2 2466   4.624   8.845   6.818
33543SOL     OW 2467   8.807  11.146   1.836
33543SOL    HW1 2468   8.715  11.165   1.816
33543SOL    HW2 2469   8.856  11.208   1.782
33544SOL     OW 2470   5.195   5.291   9.368
33544SOL    HW1 2471   5.182   5.199   9.387
33544SOL    HW2 2472   5.108   5.324   9.345
33545SOL     OW 2473  11.856   3.572   5.706
33545SOL    HW1 2474  11.781   3.555   5.762
33545SOL    HW2 2475  11.895   3.652   5.741
33546SOL     OW 2476   1.805   8.331   9.338
33546SOL    HW1 2477   1.724   8.280   9.344
33546SOL    HW2 2478   1.873   8.267   9.319
33547SOL     OW 2479  13.653   2.237  13.168
33547SOL    HW1 2480  13.596   2.160  13.162
33547SOL    HW2 2481  13.593   2.311  13.166
33548SOL     OW 2482  13.570   4.267   2.131
33548SOL    HW1 2483  13.558   4.362   2.137
33548SOL    HW2 2484  13.481   4.233   2.127
33549SOL     OW 2485  10.818  14.481  10.727
33549SOL    HW1 2486  10.885  14.422  10.760
33549SOL    HW2 2487  10.834  14.486  10.633
33550SOL     OW 2488   1.081   7.390   8.542
33550SOL    HW1 2489   1.049   7.326   8.604
33550SOL    HW2 2490   1.013   7.458   8.539
33551SOL     OW 2491   0.226   8.181   9.135
33551SOL    HW1 2492   0.311   8.136   9.128
33551SOL    HW2 2493   0.162   8.115   9.108
33552SOL     OW 2494  11.460  13.515   4.187
33552SOL    HW1 2495  11.501  13.601   4.180
33552SOL    HW2 2496  11.529  13.457   4.220
33553SOL     OW 2497   3.992  11.482   6.327
33553SOL    HW1 2498   4.058  11.426   6.370
33553SOL    HW2 2499   3.908  11.444   6.355
33554SOL     OW 2500   6.529   2.138   6.155
33554SOL    HW1 2501   6.504   2.167   6.067
33554SOL    HW2 2502   6.609   2.188   6.175
33555SOL     OW 2503   3.630   3.159   3.108
33555SOL    HW1 2504   3.723   3.175   3.088
33555SOL    HW2 2505   3.618   3.193   3.196
33556SOL     OW 2506   3.197   7.021   9.506
33556SOL    HW1 2507   3.182   7.114   9.519
33556SOL    HW2 2508   3.284   7.015   9.467
33557SOL     OW 2509   8.713   8.195  14.299
33557SOL    HW1 2510   8.806   8.175  14.290
33557SOL    HW2 2511   8.710   8.268  14.361
33558SOL     OW 2512   3.828   9.056   6.018
33558SOL    HW1 2513   3.762   8.995   6.051
33558SOL    HW2 2514   3.904   9.002   5.999
33559SOL     OW 2515  11.189   6.176   8.033
33559SOL    HW1 2516  11.281   6.157   8.049
33559SOL    HW2 2517  11.146   6.091   8.032
33560SOL     OW 2518   9.676  11.547  14.012
33560SOL    HW1 2519   9.765  11.532  13.978
33560SOL    HW2 2520   9.624  11.562  13.933
33561SOL     OW 2521   4.429   5.343   9.614
33561SOL    HW1 2522   4.353   5.323   9.668
33561SOL    HW2 2523   4.501   5.355   9.676
33562SOL     OW 2524   8.331   1.489   7.764
33562SOL    HW1 2525   8.240   1.519   7.760
33562SOL    HW2 2526   8.330   1.401   7.728
33563SOL     OW 2527  13.443   1.857   5.535
33563SOL    HW1 2528  13.508   1.861   5.465
33563SOL    HW2 2529  13.448   1.768   5.568
33564SOL     OW 2530   3.076  13.517   3.430
33564SOL    HW1 2531   3.050  13.427   3.450
33564SOL    HW2 2532   3.103  13.554   3.514
33565SOL     OW 2533  13.512   9.025   5.354
33565SOL    HW1 2534  13.550   8.937   5.347
33565SOL    HW2 2535  13.587   9.082   5.367
33566SOL     OW 2536   4.171  11.637   9.150
33566SOL    HW1 2537   4.134  11.572   9.210
33566SOL    HW2 2538   4.194  11.711   9.206
33567SOL     OW 2539  13.973   5.633  12.141
33567SOL    HW1 2540  13.980   5.550  12.189
33567SOL    HW2 2541  13.959   5.607  12.050
33568SOL     OW 2542   4.690  11.623  11.227
33568SOL    HW1 2543   4.764  11.605  11.285
33568SOL    HW2 2544   4.647  11.538  11.216
33569SOL     OW 2545   4.582   3.107   1.908
33569SOL    HW1 2546   4.623   3.026   1.938
33569SOL    HW2 2547   4.518   3.128   1.976
33570SOL     OW 2548   3.171  12.755   8.315
33570SOL    HW1 2549   3.193  12.840   8.277
33570SOL    HW2 2550   3.129  12.707   8.244
33571SOL     OW 2551   8.238   8.583  10.547
33571SOL    HW1 2552   8.174   8.535  10.496
33571SOL    HW2 2553   8.214   8.675  10.537
33572SOL     OW 2554   8.083   6.065   0.816
33572SOL    HW1 2555   8.036   6.008   0.875
33572SOL    HW2 2556   8.079   6.021   0.731
33573SOL     OW 2557   7.109   6.312  10.578
33573SOL    HW1 2558   7.015   6.303  10.565
33573SOL    HW2 2559   7.128   6.402  10.550
33574SOL     OW 2560   3.988  12.294   7.004
33574SOL    HW1 2561   4.042  12.275   7.082
33574SOL    HW2 2562   3.922  12.225   7.004
33575SOL     OW 2563   0.189   0.585   9.496
33575SOL    HW1 2564   0.176   0.641   9.419
33575SOL    HW2 2565   0.106   0.589   9.543
33576SOL     OW 2566   5.390   0.618   9.963
33576SOL    HW1 2567   5.347   0.567   9.894
33576SOL    HW2 2568   5.456   0.670   9.917
33577SOL     OW 2569   3.430   1.350   1.208
33577SOL    HW1 2570   3.460   1.268   1.170
33577SOL    HW2 2571   3.418   1.409   1.133
33578SOL     OW 2572   2.275   7.554  10.672
33578SOL    HW1 2573   2.182   7.548  10.650
33578SOL    HW2 2574   2.302   7.639  10.639
33579SOL     OW 2575   1.359   0.942   5.418
33579SOL    HW1 2576   1.435   0.884   5.422
33579SOL    HW2 2577   1.297   0.905   5.481
33580SOL     OW 2578   8.815   9.150   7.101
33580SOL    HW1 2579   8.732   9.131   7.057
33580SOL    HW2 2580   8.872   9.077   7.077
33581SOL     OW 2581  13.399  12.746  12.116
33581SOL    HW1 2582  13.455  12.693  12.060
33581SOL    HW2 2583  13.312  12.709  12.105
33582SOL     OW 2584   9.653   3.069   6.596
33582SOL    HW1 2585   9.614   3.013   6.664
33582SOL    HW2 2586   9.647   3.017   6.516
33583SOL     OW 2587  11.733   0.814   8.826
33583SOL    HW1 2588  11.785   0.891   8.849
33583SOL    HW2 2589  11.777   0.778   8.749
33584SOL     OW 2590  11.891   3.844   5.207
33584SOL    HW1 2591  11.981   3.867   5.232
33584SOL    HW2 2592  11.881   3.753   5.235
33585SOL     OW 2593   0.955   6.302   5.506
33585SOL    HW1 2594   1.021   6.371   5.496
33585SOL    HW2 2595   0.978   6.238   5.438
33586SOL     OW 2596  11.905   6.337   8.749
33586SOL    HW1 2597  11.875   6.264   8.695
33586SOL    HW2 2598  11.932   6.296   8.831
33587SOL     OW 2599   7.887   6.083  11.197
33587SOL    HW1 2600   7.874   6.164  11.148
33587SOL    HW2 2601   7.917   6.020  11.132
33588SOL     OW 2602  11.451   9.580   4.403
33588SOL    HW1 2603  11.416   9.580   4.492
33588SOL    HW2 2604  11.376   9.560   4.348
33589SOL     OW 2605  12.094   0.192  10.979
33589SOL    HW1 2606  12.173   0.238  11.007
33589SOL    HW2 2607  12.124   0.104  10.959
33590SOL     OW 2608   7.408  14.777   4.081
33590SOL    HW1 2609   7.477  14.796   4.145
33590SOL    HW2 2610   7.454  14.745   4.004
33591SOL     OW 2611  11.140  13.545   0.140
33591SOL    HW1 2612  11.140  13.630   0.095
33591SOL    HW2 2613  11.060  13.545   0.192
33592SOL     OW 2614   7.500   3.651   6.889
33592SOL    HW1 2615   7.505   3.746   6.883
33592SOL    HW2 2616   7.491   3.633   6.983
33593SOL     OW 2617   2.227  13.068   6.218
33593SOL    HW1 2618   2.163  12.997   6.221
33593SOL    HW2 2619   2.186  13.139   6.268
33594SOL     OW 2620   1.321   5.088   9.059
33594SOL    HW1 2621   1.253   5.042   9.109
33594SOL    HW2 2622   1.361   5.020   9.005
33595SOL     OW 2623   7.422   9.954   2.972
33595SOL    HW1 2624   7.335   9.927   2.942
33595SOL    HW2 2625   7.464   9.992   2.894
33596SOL     OW 2626  11.014  10.166   8.436
33596SOL    HW1 2627  10.936  10.126   8.399
33596SOL    HW2 2628  11.054  10.097   8.489
33597SOL     OW 2629   7.827   1.030   7.678
33597SOL    HW1 2630   7.797   1.118   7.703
33597SOL    HW2 2631   7.918   1.042   7.652
33598SOL     OW 2632   4.509   1.761   0.387
33598SOL    HW1 2633   4.416   1.753   0.364
33598SOL    HW2 2634   4.510   1.761   0.483
33599SOL     OW 2635   4.427   9.621   4.735
33599SOL    HW1 2636   4.501   9.652   4.788
33599SOL    HW2 2637   4.419   9.528   4.758
33600SOL     OW 2638   1.701  12.733   8.018
33600SOL    HW1 2639   1.672  12.756   8.106
33600SOL    HW2 2640   1.791  12.767   8.013
33601SOL     OW 2641   0.835  10.893   4.156
33601SOL    HW1 2642   0.853  10.968   4.100
33601SOL    HW2 2643   0.918  10.845   4.160
33602SOL     OW 2644  10.270  10.848   1.408
33602SOL    HW1 2645  10.324  10.785   1.455
33602SOL    HW2 2646  10.185  10.805   1.397
33603SOL     OW 2647   6.772  14.525  12.938
33603SOL    HW1 2648   6.677  14.514  12.936
33603SOL    HW2 2649   6.795  14.513  13.031
33604SOL     OW 2650   0.944   8.440  11.303
33604SOL    HW1 2651   0.859   8.399  11.287
33604SOL    HW2 2652   0.945   8.516  11.244
33605SOL     OW 2653   2.986  12.290   9.280
33605SOL    HW1 2654   2.948  12.295   9.367
33605SOL    HW2 2655   3.056  12.225   9.288
33606SOL     OW 2656   6.078  10.607   2.615
33606SOL    HW1 2657   6.093  10.559   2.533
33606SOL    HW2 2658   5.984  10.603   2.628
33607SOL     OW 2659   4.678  12.026  14.616
33607SOL    HW1 2660   4.760  12.073  14.630
33607SOL    HW2 2661   4.648  12.057  14.530
33608SOL     OW 2662   4.223   0.657  12.418
33608SOL    HW1 2663   4.296   0.597  12.400
33608SOL    HW2 2664   4.188   0.627  12.502
33609SOL     OW 2665  14.438   2.458  14.716
33609SOL    HW1 2666  14.453   2.366  14.740
33609SOL    HW2 2667  14.379   2.454  14.642
33610SOL     OW 2668  13.891   0.028   6.101
33610SOL    HW1 2669  13.876   0.056   6.011
33610SOL    HW2 2670  13.960   0.086   6.134
33611SOL     OW 2671  10.751  11.014   1.698
33611SOL    HW1 2672  10.683  11.025   1.631
33611SOL    HW2 2673  10.768  11.103   1.729
33612SOL     OW 2674   8.583  13.913   1.554
33612SOL    HW1 2675   8.589  13.834   1.501
33612SOL    HW2 2676   8.668  13.918   1.598
33613SOL     OW 2677   8.331   4.848  10.351
33613SOL    HW1 2678   8.365   4.883  10.434
33613SOL    HW2 2679   8.406   4.849  10.292
33614SOL     OW 2680   3.213  14.558  14.151
33614SOL    HW1 2681   3.201  14.624  14.219
33614SOL    HW2 2682   3.196  14.604  14.069
33615SOL     OW 2683   9.755  13.062   8.344
33615SOL    HW1 2684   9.739  12.974   8.378
33615SOL    HW2 2685   9.839  13.087   8.382
33616SOL     OW 2686  13.888   4.568  10.773
33616SOL    HW1 2687  13.873   4.474  10.770
33616SOL    HW2 2688  13.809   4.603  10.815
33617SOL     OW 2689   8.815   7.394   5.816
33617SOL    HW1 2690   8.802   7.447   5.737
33617SOL    HW2 2691   8.898   7.425   5.852
33618SOL     OW 2692   7.847   8.319  12.741
33618SOL    HW1 2693   7.872   8.277  12.823
33618SOL    HW2 2694   7.756   8.348  12.756
33619SOL     OW 2695   3.649  13.293   0.997
33619SOL    HW1 2696   3.624  13.204   1.024
33619SOL    HW2 2697   3.572  13.346   1.019
33620SOL     OW 2698   5.473  10.746  10.049
33620SOL    HW1 2699   5.387  10.778  10.023
33620SOL    HW2 2700   5.534  10.791   9.990
33621SOL     OW 2701  10.451  11.626   9.195
33621SOL    HW1 2702  10.470  11.715   9.225
33621SOL    HW2 2703  10.356  11.623   9.187
33622SOL     OW 2704  12.351   5.770   5.154
33622SOL    HW1 2705  12.302   5.775   5.072
33622SOL    HW2 2706  12.336   5.855   5.196
33623SOL     OW 2707  12.351   7.551   9.240
33623SOL    HW1 2708  12.318   7.501   9.314
33623SOL    HW2 2709  12.443   7.566   9.261
33624SOL     OW 2710  12.922  13.889   3.199
33624SOL    HW1 2711  12.875  13.908   3.280
33624SOL    HW2 2712  13.006  13.853   3.228
33625SOL     OW 2713   9.899   0.377   8.902
33625SOL    HW1 2714   9.832   0.353   8.838
33625SOL    HW2 2715   9.871   0.462   8.936
33626SOL     OW 2716   0.944   1.483  12.570
33626SOL    HW1 2717   0.950   1.511  12.661
33626SOL    HW2 2718   0.922   1.390  12.575
33627SOL     OW 2719   5.552  10.320   5.249
33627SOL    HW1 2720   5.541  10.295   5.341
33627SOL    HW2 2721   5.646  10.313   5.233
33628SOL     OW 2722   5.645   4.590   9.610
33628SOL    HW1 2723   5.650   4.511   9.663
33628SOL    HW2 2724   5.559   4.628   9.630
33629SOL     OW 2725   8.222   2.884   6.509
33629SOL    HW1 2726   8.143   2.900   6.561
33629SOL    HW2 2727   8.277   2.961   6.526
33630SOL     OW 2728  13.870   3.651   2.299
33630SOL    HW1 2729  13.884   3.591   2.372
33630SOL    HW2 2730  13.794   3.616   2.254
33631SOL     OW 2731   5.970   5.224   9.772
33631SOL    HW1 2732   5.953   5.223   9.678
33631SOL    HW2 2733   5.891   5.260   9.811
33632SOL     OW 2734   1.771  10.035   9.457
33632SOL    HW1 2735   1.841   9.970   9.466
33632SOL    HW2 2736   1.705   9.990   9.403
33633SOL     OW 2737   9.916  12.145  11.560
33633SOL    HW1 2738   9.825  12.169  11.542
33633SOL    HW2 2739   9.916  12.121  11.652
33634SOL     OW 2740  12.552  14.243   8.990
33634SOL    HW1 2741  12.592  14.315   9.039
33634SOL    HW2 2742  12.491  14.286   8.930
33635SOL     OW 2743   6.055  12.838   3.492
33635SOL    HW1 2744   6.067  12.897   3.418
33635SOL    HW2 2745   6.000  12.768   3.458
33636SOL     OW 2746   2.982   8.074  10.706
33636SOL    HW1 2747   3.062   8.022  10.691
33636SOL    HW2 2748   2.932   8.064  10.625
33637SOL     OW 2749   9.515   4.869  11.806
33637SOL    HW1 2750   9.590   4.865  11.865
33637SOL    HW2 2751   9.475   4.954  11.825
33638SOL     OW 2752  12.415   4.707   8.911
33638SOL    HW1 2753  12.429   4.706   9.006
33638SOL    HW2 2754  12.338   4.652   8.897
33639SOL     OW 2755  13.568   6.399   0.551
33639SOL    HW1 2756  13.641   6.454   0.523
33639SOL    HW2 2757  13.601   6.352   0.627
33640SOL     OW 2758   8.819  11.421   2.865
33640SOL    HW1 2759   8.744  11.430   2.924
33640SOL    HW2 2760   8.783  11.376   2.788
33641SOL     OW 2761  11.511  13.612   5.699
33641SOL    HW1 2762  11.530  13.645   5.611
33641SOL    HW2 2763  11.571  13.539   5.711
33642SOL     OW 2764  11.571   6.700   7.688
33642SOL    HW1 2765  11.572   6.668   7.598
33642SOL    HW2 2766  11.480   6.694   7.715
33643SOL     OW 2767   9.110   0.492   5.641
33643SOL    HW1 2768   9.048   0.477   5.570
33643SOL    HW2 2769   9.196   0.489   5.599
33644SOL     OW 2770   1.089  10.160  13.915
33644SOL    HW1 2771   1.059  10.150  13.825
33644SOL    HW2 2772   1.021  10.120  13.968
33645SOL     OW 2773   5.796   9.352   9.902
33645SOL    HW1 2774   5.819   9.301   9.824
33645SOL    HW2 2775   5.700   9.358   9.900
33646SOL     OW 2776  11.608  10.366   5.123
33646SOL    HW1 2777  11.612  10.462   5.127
33646SOL    HW2 2778  11.516  10.345   5.142
33647SOL     OW 2779   4.629   1.054  14.404
33647SOL    HW1 2780   4.714   1.029  14.438
33647SOL    HW2 2781   4.632   1.031  14.311
33648SOL     OW 2782   9.150  14.720   2.737
33648SOL    HW1 2783   9.235  14.748   2.703
33648SOL    HW2 2784   9.158  14.727   2.832
33649SOL     OW 2785   9.399  12.048   8.546
33649SOL    HW1 2786   9.397  11.970   8.490
33649SOL    HW2 2787   9.317  12.044   8.595
33650SOL     OW 2788   8.581   1.709   9.473
33650SOL    HW1 2789   8.559   1.627   9.517
33650SOL    HW2 2790   8.499   1.740   9.436
33651SOL     OW 2791   6.568  13.632   6.515
33651SOL    HW1 2792   6.515  13.561   6.479
33651SOL    HW2 2793   6.649  13.629   6.464
33652SOL     OW 2794   1.972   2.674   0.903
33652SOL    HW1 2795   1.877   2.682   0.895
33652SOL    HW2 2796   2.002   2.761   0.927
33653SOL     OW 2797   0.495   5.420   8.930
33653SOL    HW1 2798   0.518   5.498   8.979
33653SOL    HW2 2799   0.579   5.386   8.899
33654SOL     OW 2800  13.974  14.192   5.289
33654SOL    HW1 2801  13.888  14.220   5.320
33654SOL    HW2 2802  14.029  14.269   5.299
33655SOL     OW 2803   7.682  10.825  10.802
33655SOL    HW1 2804   7.762  10.773  10.809
33655SOL    HW2 2805   7.618  10.778  10.855
33656SOL     OW 2806   5.078   5.173   6.637
33656SOL    HW1 2807   5.118   5.217   6.562
33656SOL    HW2 2808   5.088   5.236   6.709
33657SOL     OW 2809  12.199  13.161  10.260
33657SOL    HW1 2810  12.137  13.210  10.315
33657SOL    HW2 2811  12.238  13.097  10.319
33658SOL     OW 2812   4.102   8.602   5.687
33658SOL    HW1 2813   4.064   8.573   5.770
33658SOL    HW2 2814   4.075   8.536   5.624
33659SOL     OW 2815  11.382   4.062   5.687
33659SOL    HW1 2816  11.421   4.063   5.599
33659SOL    HW2 2817  11.457   4.063   5.746
33660SOL     OW 2818  10.680  12.072   4.146
33660SOL    HW1 2819  10.605  12.114   4.103
33660SOL    HW2 2820  10.753  12.087   4.086
33661SOL     OW 2821   6.509   0.283   9.439
33661SOL    HW1 2822   6.494   0.273   9.533
33661SOL    HW2 2823   6.600   0.258   9.426
33662SOL     OW 2824   9.355  14.090   4.258
33662SOL    HW1 2825   9.304  14.168   4.279
33662SOL    HW2 2826   9.301  14.043   4.194
33663SOL     OW 2827   9.234  10.304  13.209
33663SOL    HW1 2828   9.213  10.242  13.140
33663SOL    HW2 2829   9.150  10.334  13.243
33664SOL     OW 2830   9.322  14.015   1.846
33664SOL    HW1 2831   9.234  13.979   1.850
33664SOL    HW2 2832   9.318  14.095   1.899
33665SOL     OW 2833   4.583  10.339  12.983
33665SOL    HW1 2834   4.501  10.389  12.984
33665SOL    HW2 2835   4.647  10.397  13.023
33666SOL     OW 2836  13.828   8.529   6.557
33666SOL    HW1 2837  13.773   8.489   6.490
33666SOL    HW2 2838  13.822   8.623   6.541
33667SOL     OW 2839   7.816   2.354   8.442
33667SOL    HW1 2840   7.825   2.446   8.467
33667SOL    HW2 2841   7.724   2.342   8.422
33668SOL     OW 2842   5.883   8.661   2.011
33668SOL    HW1 2843   5.871   8.756   2.008
33668SOL    HW2 2844   5.810   8.629   2.064
33669SOL     OW 2845   5.703   5.342   8.512
33669SOL    HW1 2846   5.685   5.363   8.604
33669SOL    HW2 2847   5.661   5.413   8.463
33670SOL     OW 2848  14.233  14.732   1.312
33670SOL    HW1 2849  14.145  14.766   1.323
33670SOL    HW2 2850  14.278  14.755   1.394
33671SOL     OW 2851   8.022   6.587   2.154
33671SOL    HW1 2852   8.011   6.626   2.240
33671SOL    HW2 2853   7.987   6.653   2.093
33672SOL     OW 2854   5.584  11.004  12.061
33672SOL    HW1 2855   5.587  11.068  11.990
33672SOL    HW2 2856   5.623  11.050  12.136
33673SOL     OW 2857  12.312   6.281  10.695
33673SOL    HW1 2858  12.274   6.244  10.615
33673SOL    HW2 2859  12.262   6.239  10.766
33674SOL     OW 2860   9.637  14.618   4.596
33674SOL    HW1 2861   9.727  14.646   4.577
33674SOL    HW2 2862   9.588  14.640   4.517
33675SOL     OW 2863  13.108   5.542  10.164
33675SOL    HW1 2864  13.189   5.512  10.123
33675SOL    HW2 2865  13.130   5.551  10.257
33676SOL     OW 2866  12.889   8.070  13.949
33676SOL    HW1 2867  12.933   7.985  13.953
33676SOL    HW2 2868  12.931   8.121  14.018
33677SOL     OW 2869   4.223   0.537   7.815
33677SOL    HW1 2870   4.157   0.511   7.879
33677SOL    HW2 2871   4.217   0.471   7.745
33678SOL     OW 2872  12.938   7.968   6.208
33678SOL    HW1 2873  12.926   8.027   6.282
33678SOL    HW2 2874  13.023   7.927   6.223
33679SOL     OW 2875   4.914   0.442  11.019
33679SOL    HW1 2876   4.932   0.518  11.074
33679SOL    HW2 2877   4.840   0.399  11.061
33680SOL     OW 2878   2.686   2.614   2.071
33680SOL    HW1 2879   2.718   2.569   1.993
33680SOL    HW2 2880   2.687   2.547   2.139
33681SOL     OW 2881  14.709   8.028   0.111
33681SOL    HW1 2882  14.746   8.108   0.150
33681SOL    HW2 2883  14.620   8.024   0.145
33682SOL     OW 2884   3.111  11.945   1.573
33682SOL    HW1 2885   3.133  11.866   1.623
33682SOL    HW2 2886   3.173  11.945   1.500
33683SOL     OW 2887  11.973   3.439   1.223
33683SOL    HW1 2888  11.880   3.459   1.239
33683SOL    HW2 2889  12.020   3.512   1.265
33684SOL     OW 2890  11.540  11.350  13.111
33684SOL    HW1 2891  11.607  11.304  13.060
33684SOL    HW2 2892  11.589  11.395  13.180
33685SOL     OW 2893   5.617   1.892  11.650
33685SOL    HW1 2894   5.581   1.976  11.621
33685SOL    HW2 2895   5.541   1.840  11.676
33686SOL     OW 2896   8.726  10.344   2.722
33686SOL    HW1 2897   8.820  10.332   2.708
33686SOL    HW2 2898   8.691  10.356   2.634
33687SOL     OW 2899   8.427   8.243   6.070
33687SOL    HW1 2900   8.520   8.247   6.089
33687SOL    HW2 2901   8.396   8.166   6.116
33688SOL     OW 2902   3.439  11.910   1.191
33688SOL    HW1 2903   3.441  11.993   1.240
33688SOL    HW2 2904   3.531  11.893   1.170
33689SOL     OW 2905   3.909  11.091   3.031
33689SOL    HW1 2906   3.949  11.141   2.960
33689SOL    HW2 2907   3.851  11.154   3.074
33690SOL     OW 2908   4.449   3.749   4.530
33690SOL    HW1 2909   4.405   3.751   4.616
33690SOL    HW2 2910   4.429   3.834   4.491
33691SOL     OW 2911   0.194   1.568  14.715
33691SOL    HW1 2912   0.271   1.520  14.685
33691SOL    HW2 2913   0.125   1.502  14.721
33692SOL     OW 2914  13.007   9.602   1.491
33692SOL    HW1 2915  13.002   9.539   1.420
33692SOL    HW2 2916  13.002   9.549   1.571
33693SOL     OW 2917  13.150  12.228   1.946
33693SOL    HW1 2918  13.172  12.295   2.010
33693SOL    HW2 2919  13.215  12.159   1.960
33694SOL     OW 2920  10.263   1.326   3.765
33694SOL    HW1 2921  10.292   1.348   3.854
33694SOL    HW2 2922  10.325   1.370   3.708
33695SOL     OW 2923   4.666   6.138   5.455
33695SOL    HW1 2924   4.661   6.201   5.383
33695SOL    HW2 2925   4.591   6.160   5.511
33696SOL     OW 2926   7.817   4.626   9.721
33696SOL    HW1 2927   7.835   4.587   9.806
33696SOL    HW2 2928   7.888   4.595   9.665
33697SOL     OW 2929  11.761   1.212  13.971
33697SOL    HW1 2930  11.849   1.219  13.935
33697SOL    HW2 2931  11.774   1.169  14.056
33698SOL     OW 2932   5.289   6.597  13.413
33698SOL    HW1 2933   5.217   6.615  13.352
33698SOL    HW2 2934   5.304   6.503  13.404
33699SOL     OW 2935  10.497   7.565  13.005
33699SOL    HW1 2936  10.575   7.536  12.958
33699SOL    HW2 2937  10.424   7.542  12.947
33700SOL     OW 2938   2.992   2.813   0.063
33700SOL    HW1 2939   2.905   2.855   0.062
33700SOL    HW2 2940   3.007   2.788  14.851
33701SOL     OW 2941   9.504   2.600   5.223
33701SOL    HW1 2942   9.479   2.525   5.278
33701SOL    HW2 2943   9.450   2.672   5.256
33702SOL     OW 2944   3.170  12.283   2.672
33702SOL    HW1 2945   3.239  12.288   2.738
33702SOL    HW2 2946   3.162  12.373   2.639
33703SOL     OW 2947   4.092   3.046  13.957
33703SOL    HW1 2948   3.999   3.066  13.949
33703SOL    HW2 2949   4.133   3.091  13.883
33704SOL     OW 2950  10.096  14.632   5.956
33704SOL    HW1 2951  10.186  14.642   5.924
33704SOL    HW2 2952  10.043  14.624   5.877
33705SOL     OW 2953   4.586   1.456   7.773
33705SOL    HW1 2954   4.647   1.389   7.742
33705SOL    HW2 2955   4.621   1.483   7.857
33706SOL     OW 2956   6.202  11.573  10.832
33706SOL    HW1 2957   6.235  11.550  10.744
33706SOL    HW2 2958   6.228  11.499  10.887
33707SOL     OW 2959   3.356  12.035  12.428
33707SOL    HW1 2960   3.328  11.994  12.346
33707SOL    HW2 2961   3.388  11.962  12.481
33708SOL     OW 2962  12.858   9.142   9.530
33708SOL    HW1 2963  12.849   9.066   9.472
33708SOL    HW2 2964  12.952   9.148   9.547
33709SOL     OW 2965   0.084   1.688   2.784
33709SOL    HW1 2966   0.120   1.661   2.699
33709SOL    HW2 2967   0.153   1.742   2.823
33710SOL     OW 2968   0.396   0.772  13.444
33710SOL    HW1 2969   0.388   0.832  13.518
33710SOL    HW2 2970   0.321   0.792  13.388
33711SOL     OW 2971   4.234  13.420   7.205
33711SOL    HW1 2972   4.245  13.496   7.262
33711SOL    HW2 2973   4.299  13.357   7.236
33712SOL     OW 2974   9.869  13.127   5.126
33712SOL    HW1 2975   9.901  13.039   5.143
33712SOL    HW2 2976   9.887  13.142   5.033
33713SOL     OW 2977  14.292  13.066  10.098
33713SOL    HW1 2978  14.286  13.121  10.019
33713SOL    HW2 2979  14.262  12.980  10.069
33714SOL     OW 2980   2.270   4.689   4.433
33714SOL    HW1 2981   2.263   4.714   4.526
33714SOL    HW2 2982   2.249   4.769   4.385
33715SOL     OW 2983   2.674   9.284   8.139
33715SOL    HW1 2984   2.602   9.221   8.140
33715SOL    HW2 2985   2.632   9.369   8.149
33716SOL     OW 2986   9.041  12.428  13.394
33716SOL    HW1 2987   8.970  12.477  13.352
33716SOL    HW2 2988   9.075  12.488  13.460
33717SOL     OW 2989   5.833  10.295  14.413
33717SOL    HW1 2990   5.836  10.246  14.496
33717SOL    HW2 2991   5.809  10.384  14.439
33718SOL     OW 2992   6.875   5.921   3.086
33718SOL    HW1 2993   6.820   5.972   3.027
33718SOL    HW2 2994   6.838   5.938   3.173
33719SOL     OW 2995  13.422  13.666  10.912
33719SOL    HW1 2996  13.421  13.728  10.985
33719SOL    HW2 2997  13.476  13.707  10.845
33720SOL     OW 2998  13.174   5.179   8.750
33720SOL    HW1 2999  13.258   5.187   8.704
33720SOL    HW2 3000  13.162   5.085   8.761
33721SOL     OW 3001   4.747  14.024   2.042
33721SOL    HW1 3002   4.688  13.955   2.072
33721SOL    HW2 3003   4.771  14.071   2.122
33722SOL     OW 3004   2.035   8.309   1.799
33722SOL    HW1 3005   1.940   8.298   1.804
33722SOL    HW2 3006   2.065   8.300   1.890
33723SOL     OW 3007  11.399   9.007   0.241
33723SOL    HW1 3008  11.314   8.970   0.216
33723SOL    HW2 3009  11.431   8.949   0.310
33724SOL     OW 3010  13.751   7.948   6.200
33724SOL    HW1 3011  13.717   7.870   6.156
33724SOL    HW2 3012  13.815   7.915   6.263
33725SOL     OW 3013   4.489  13.859   0.004
33725SOL    HW1 3014   4.544  13.868  14.806
33725SOL    HW2 3015   4.405  13.827  14.851
33726SOL     OW 3016  11.900  12.357   8.411
33726SOL    HW1 3017  11.959  12.348   8.486
33726SOL    HW2 3018  11.856  12.272   8.405
33727SOL     OW 3019   0.587   8.459   2.631
33727SOL    HW1 3020   0.535   8.380   2.622
33727SOL    HW2 3021   0.574   8.485   2.722
33728SOL     OW 3022   2.775   4.027   0.233
33728SOL    HW1 3023   2.772   4.102   0.292
33728SOL    HW2 3024   2.866   4.022   0.204
33729SOL     OW 3025  12.430   1.002   6.165
33729SOL    HW1 3026  12.355   1.041   6.210
33729SOL    HW2 3027  12.478   0.956   6.234
33730SOL     OW 3028   7.990  13.707  12.069
33730SOL    HW1 3029   8.072  13.658  12.070
33730SOL    HW2 3030   8.008  13.785  12.122
33731SOL     OW 3031   9.059   6.850   5.467
33731SOL    HW1 3032   8.985   6.872   5.524
33731SOL    HW2 3033   9.061   6.920   5.402
33732SOL     OW 3034   9.531  13.765   4.300
33732SOL    HW1 3035   9.490  13.679   4.292
33732SOL    HW2 3036   9.537  13.797   4.210
33733SOL     OW 3037  14.531  10.762   0.957
33733SOL    HW1 3038  14.521  10.674   0.992
33733SOL    HW2 3039  14.614  10.761   0.910
33734SOL     OW 3040   7.397  14.729   7.356
33734SOL    HW1 3041   7.460  14.712   7.426
33734SOL    HW2 3042   7.418  14.818   7.326
33735SOL     OW 3043   8.387   3.386  14.833
33735SOL    HW1 3044   8.304   3.345  14.854
33735SOL    HW2 3045   8.453   3.323  14.862
33736SOL     OW 3046   4.562   4.706   5.000
33736SOL    HW1 3047   4.567   4.613   5.021
33736SOL    HW2 3048   4.573   4.709   4.905
33737SOL     OW 3049  11.135   8.965   3.026
33737SOL    HW1 3050  11.167   9.053   3.005
33737SOL    HW2 3051  11.145   8.916   2.944
33738SOL     OW 3052  12.929   4.426   8.724
33738SOL    HW1 3053  13.023   4.443   8.731
33738SOL    HW2 3054  12.922   4.362   8.652
33739SOL     OW 3055  13.636  13.212  13.538
33739SOL    HW1 3056  13.600  13.133  13.497
33739SOL    HW2 3057  13.594  13.284  13.491
33740SOL     OW 3058  11.593   9.932   2.313
33740SOL    HW1 3059  11.526   9.968   2.255
33740SOL    HW2 3060  11.652   9.884   2.254
33741SOL     OW 3061  13.284  13.681   3.914
33741SOL    HW1 3062  13.275  13.645   4.002
33741SOL    HW2 3063  13.346  13.622   3.871
33742SOL     OW 3064  14.755  10.155   6.568
33742SOL    HW1 3065  14.840  10.113   6.583
33742SOL    HW2 3066  14.776  10.246   6.545
33743SOL     OW 3067   1.962  13.955   8.728
33743SOL    HW1 3068   1.942  13.863   8.742
33743SOL    HW2 3069   2.053  13.956   8.697
33744SOL     OW 3070   1.883  12.694   1.217
33744SOL    HW1 3071   1.832  12.774   1.221
33744SOL    HW2 3072   1.839  12.634   1.277
33745SOL     OW 3073  14.263   4.844   5.401
33745SOL    HW1 3074  14.299   4.759   5.375
33745SOL    HW2 3075  14.238   4.833   5.492
33746SOL     OW 3076   6.736  10.442  14.075
33746SOL    HW1 3077   6.686  10.430  13.994
33746SOL    HW2 3078   6.688  10.392  14.141
33747SOL     OW 3079  12.485   2.620   9.003
33747SOL    HW1 3080  12.561   2.569   9.033
33747SOL    HW2 3081  12.430   2.557   8.957
33748SOL     OW 3082  12.997   6.623   0.051
33748SOL    HW1 3083  12.917   6.611  14.877
33748SOL    HW2 3084  12.976   6.697   0.108
33749SOL     OW 3085   5.968  11.835   0.067
33749SOL    HW1 3086   6.023  11.822  14.869
33749SOL    HW2 3087   5.933  11.748   0.087
33750SOL     OW 3088   9.883   1.656  11.611
33750SOL    HW1 3089   9.846   1.725  11.556
33750SOL    HW2 3090   9.978   1.664  11.598
33751SOL     OW 3091   1.238   3.093   9.349
33751SOL    HW1 3092   1.196   3.157   9.291
33751SOL    HW2 3093   1.170   3.029   9.368
33752SOL     OW 3094  12.223   6.619  11.412
33752SOL    HW1 3095  12.142   6.601  11.363
33752SOL    HW2 3096  12.292   6.616  11.346
33753SOL     OW 3097  11.911   6.827   1.005
33753SOL    HW1 3098  11.983   6.884   1.032
33753SOL    HW2 3099  11.889   6.777   1.083
33754SOL     OW 3100  10.888  13.743  14.533
33754SOL    HW1 3101  10.960  13.683  14.512
33754SOL    HW2 3102  10.910  13.823  14.486
33755SOL     OW 3103  11.458  10.250  13.507
33755SOL    HW1 3104  11.547  10.235  13.474
33755SOL    HW2 3105  11.471  10.300  13.588
33756SOL     OW 3106  12.747   3.093  10.547
33756SOL    HW1 3107  12.686   3.164  10.526
33756SOL    HW2 3108  12.694   3.028  10.592
33757SOL     OW 3109  12.874   7.307   0.952
33757SOL    HW1 3110  12.932   7.278   0.881
33757SOL    HW2 3111  12.931   7.309   1.030
33758SOL     OW 3112   6.661   0.666   4.495
33758SOL    HW1 3113   6.677   0.576   4.523
33758SOL    HW2 3114   6.609   0.704   4.565
33759SOL     OW 3115  12.589   5.855  11.633
33759SOL    HW1 3116  12.548   5.937  11.606
33759SOL    HW2 3117  12.683   5.874  11.631
33760SOL     OW 3118  13.892   1.748   5.207
33760SOL    HW1 3119  13.846   1.756   5.291
33760SOL    HW2 3120  13.952   1.675   5.220
33761SOL     OW 3121   1.389   4.278  11.636
33761SOL    HW1 3122   1.351   4.192  11.618
33761SOL    HW2 3123   1.328   4.340  11.596
33762SOL     OW 3124   0.559   1.521   3.127
33762SOL    HW1 3125   0.512   1.464   3.066
33762SOL    HW2 3126   0.597   1.462   3.191
33763SOL     OW 3127  14.506  12.613   5.352
33763SOL    HW1 3128  14.460  12.540   5.394
33763SOL    HW2 3129  14.445  12.645   5.286
33764SOL     OW 3130  10.173   9.347   5.936
33764SOL    HW1 3131  10.129   9.406   5.998
33764SOL    HW2 3132  10.161   9.260   5.974
33765SOL     OW 3133   7.361   9.151   9.201
33765SOL    HW1 3134   7.309   9.230   9.187
33765SOL    HW2 3135   7.361   9.107   9.116
33766SOL     OW 3136   5.458   7.361   5.169
33766SOL    HW1 3137   5.520   7.417   5.216
33766SOL    HW2 3138   5.373   7.400   5.188
33767SOL     OW 3139   3.711  14.232   4.768
33767SOL    HW1 3140   3.750  14.167   4.827
33767SOL    HW2 3141   3.775  14.304   4.766
33768SOL     OW 3142   0.546   2.929   8.764
33768SOL    HW1 3143   0.557   3.009   8.815
33768SOL    HW2 3144   0.495   2.956   8.687
33769SOL     OW 3145   5.732  12.171   2.066
33769SOL    HW1 3146   5.678  12.246   2.040
33769SOL    HW2 3147   5.719  12.107   1.996
33770SOL     OW 3148   3.173   4.616  14.686
33770SOL    HW1 3149   3.146   4.629  14.777
33770SOL    HW2 3150   3.233   4.541  14.690
33771SOL     OW 3151   9.948  14.091   2.161
33771SOL    HW1 3152   9.983  14.008   2.194
33771SOL    HW2 3153   9.872  14.109   2.217
33772SOL     OW 3154   2.022   7.560  14.537
33772SOL    HW1 3155   2.011   7.619  14.463
33772SOL    HW2 3156   2.023   7.618  14.613
33773SOL     OW 3157   7.419  12.546  13.073
33773SOL    HW1 3158   7.342  12.488  13.070
33773SOL    HW2 3159   7.384  12.631  13.097
33774SOL     OW 3160   2.970  10.577   0.786
33774SOL    HW1 3161   2.913  10.607   0.857
33774SOL    HW2 3162   3.019  10.504   0.824
33775SOL     OW 3163  14.599   3.311   3.293
33775SOL    HW1 3164  14.546   3.337   3.218
33775SOL    HW2 3165  14.558   3.355   3.368
33776SOL     OW 3166   5.688   4.144   4.219
33776SOL    HW1 3167   5.728   4.057   4.216
33776SOL    HW2 3168   5.636   4.149   4.139
33777SOL     OW 3169  12.668   2.769   2.700
33777SOL    HW1 3170  12.714   2.853   2.707
33777SOL    HW2 3171  12.634   2.753   2.787
33778SOL     OW 3172   9.308   6.899  12.453
33778SOL    HW1 3173   9.292   6.960  12.381
33778SOL    HW2 3174   9.341   6.955  12.524
33779SOL     OW 3175  11.557   2.310   7.165
33779SOL    HW1 3176  11.557   2.294   7.071
33779SOL    HW2 3177  11.643   2.348   7.183
33780SOL     OW 3178  10.528  13.365   0.416
33780SOL    HW1 3179  10.557  13.347   0.505
33780SOL    HW2 3180  10.541  13.283   0.369
33781SOL     OW 3181   7.916   2.940   6.572
33781SOL    HW1 3182   7.889   2.868   6.515
33781SOL    HW2 3183   7.887   3.019   6.527
33782SOL     OW 3184   8.783   6.382  11.538
33782SOL    HW1 3185   8.811   6.474  11.546
33782SOL    HW2 3186   8.798   6.345  11.625
33783SOL     OW 3187   3.937   2.617   2.281
33783SOL    HW1 3188   3.940   2.703   2.239
33783SOL    HW2 3189   4.022   2.578   2.261
33784SOL     OW 3190   3.839   4.667   6.914
33784SOL    HW1 3191   3.774   4.735   6.895
33784SOL    HW2 3192   3.920   4.700   6.876
33785SOL     OW 3193  11.654  11.069  12.503
33785SOL    HW1 3194  11.627  11.156  12.531
33785SOL    HW2 3195  11.726  11.045  12.562
33786SOL     OW 3196   4.304   0.833   7.248
33786SOL    HW1 3197   4.306   0.928   7.258
33786SOL    HW2 3198   4.217   0.807   7.279
33787SOL     OW 3199   3.828   7.723   2.351
33787SOL    HW1 3200   3.894   7.654   2.362
33787SOL    HW2 3201   3.870   7.802   2.385
33788SOL     OW 3202   1.691  12.967   1.798
33788SOL    HW1 3203   1.765  12.946   1.855
33788SOL    HW2 3204   1.638  13.027   1.850
33789SOL     OW 3205  12.337   6.020   0.374
33789SOL    HW1 3206  12.259   6.071   0.395
33789SOL    HW2 3207  12.302   5.934   0.347
33790SOL     OW 3208  13.388   1.099  11.430
33790SOL    HW1 3209  13.313   1.087  11.488
33790SOL    HW2 3210  13.397   1.194  11.422
33791SOL     OW 3211   5.841   7.438   8.408
33791SOL    HW1 3212   5.893   7.518   8.400
33791SOL    HW2 3213   5.827   7.409   8.318
33792SOL     OW 3214   3.338   1.507  11.675
33792SOL    HW1 3215   3.320   1.591  11.634
33792SOL    HW2 3216   3.294   1.511  11.759
33793SOL     OW 3217   6.045   7.642   8.373
33793SOL    HW1 3218   6.129   7.600   8.392
33793SOL    HW2 3219   6.068   7.729   8.340
33794SOL     OW 3220   3.909  10.216  14.479
33794SOL    HW1 3221   3.989  10.244  14.523
33794SOL    HW2 3222   3.856  10.296  14.471
33795SOL     OW 3223   5.617   2.260   1.184
33795SOL    HW1 3224   5.606   2.201   1.110
33795SOL    HW2 3225   5.669   2.333   1.150
33796SOL     OW 3226   1.138   2.216  12.678
33796SOL    HW1 3227   1.092   2.300  12.682
33796SOL    HW2 3228   1.099   2.164  12.749
33797SOL     OW 3229  10.983   5.079  11.819
33797SOL    HW1 3230  11.032   5.106  11.742
33797SOL    HW2 3231  10.931   5.004  11.789
33798SOL     OW 3232  14.178  12.207   8.826
33798SOL    HW1 3233  14.180  12.302   8.841
33798SOL    HW2 3234  14.209  12.169   8.908
33799SOL     OW 3235   4.956   9.265   6.652
33799SOL    HW1 3236   4.899   9.307   6.588
33799SOL    HW2 3237   5.003   9.199   6.602
33800SOL     OW 3238   5.189  12.741   2.430
33800SOL    HW1 3239   5.201  12.708   2.519
33800SOL    HW2 3240   5.125  12.812   2.439
33801SOL     OW 3241   6.554  13.466   4.117
33801SOL    HW1 3242   6.596  13.530   4.174
33801SOL    HW2 3243   6.464  13.497   4.108
33802SOL     OW 3244   0.730   6.910   5.538
33802SOL    HW1 3245   0.638   6.884   5.541
33802SOL    HW2 3246   0.772   6.844   5.483
33803SOL     OW 3247  14.099   4.895   8.441
33803SOL    HW1 3248  14.115   4.811   8.399
33803SOL    HW2 3249  14.136   4.886   8.529
33804SOL     OW 3250   9.408   5.649  14.095
33804SOL    HW1 3251   9.441   5.564  14.121
33804SOL    HW2 3252   9.331   5.630  14.042
33805SOL     OW 3253   0.609   6.669  13.786
33805SOL    HW1 3254   0.571   6.743  13.834
33805SOL    HW2 3255   0.582   6.592  13.836
33806SOL     OW 3256   8.663  13.418  13.947
33806SOL    HW1 3257   8.667  13.507  13.912
33806SOL    HW2 3258   8.752  13.400  13.976
33807SOL     OW 3259   0.429  13.676   7.592
33807SOL    HW1 3260   0.520  13.705   7.601
33807SOL    HW2 3261   0.384  13.720   7.664
33808SOL     OW 3262   4.270  12.787  13.563
33808SOL    HW1 3263   4.183  12.754  13.588
33808SOL    HW2 3264   4.292  12.739  13.483
33809SOL     OW 3265   1.183  13.424  12.822
33809SOL    HW1 3266   1.116  13.444  12.756
33809SOL    HW2 3267   1.219  13.509  12.847
33810SOL     OW 3268   4.812   3.569  10.609
33810SOL    HW1 3269   4.726   3.528  10.598
33810SOL    HW2 3270   4.807   3.614  10.693
33811SOL     OW 3271  11.193   4.301   7.146
33811SOL    HW1 3272  11.147   4.360   7.086
33811SOL    HW2 3273  11.262   4.263   7.093
33812SOL     OW 3274  10.846   9.985  11.143
33812SOL    HW1 3275  10.829   9.990  11.049
33812SOL    HW2 3276  10.940   9.970  11.150
33813SOL     OW 3277   0.852   3.183  10.100
33813SOL    HW1 3278   0.923   3.130  10.064
33813SOL    HW2 3279   0.887   3.218  10.181
33814SOL     OW 3280   9.820   0.698  13.718
33814SOL    HW1 3281   9.894   0.655  13.676
33814SOL    HW2 3282   9.838   0.792  13.708
33815SOL     OW 3283  12.512   0.019  14.828
33815SOL    HW1 3284  12.428   0.027  14.873
33815SOL    HW2 3285  12.502  14.822  14.771
33816SOL     OW 3286   7.953  10.583  13.793
33816SOL    HW1 3287   7.974  10.586  13.700
33816SOL    HW2 3288   8.033  10.551  13.835
33817SOL     OW 3289   9.871   0.119   9.508
33817SOL    HW1 3290   9.888   0.186   9.442
33817SOL    HW2 3291   9.819   0.053   9.462
33818SOL     OW 3292   2.290   6.605  11.051
33818SOL    HW1 3293   2.288   6.692  11.012
33818SOL    HW2 3294   2.326   6.548  10.982
33819SOL     OW 3295   5.459   7.394  11.888
33819SOL    HW1 3296   5.438   7.349  11.970
33819SOL    HW2 3297   5.539   7.352  11.857
33820SOL     OW 3298  14.124   4.113   0.812
33820SOL    HW1 3299  14.052   4.176   0.818
33820SOL    HW2 3300  14.104   4.060   0.736
33821SOL     OW 3301  13.751  11.962   5.077
33821SOL    HW1 3302  13.769  11.892   5.140
33821SOL    HW2 3303  13.673  12.005   5.112
33822SOL     OW 3304   4.782   1.214   2.071
33822SOL    HW1 3305   4.705   1.179   2.115
33822SOL    HW2 3306   4.750   1.243   1.986
33823SOL     OW 3307   9.790   8.880  12.200
33823SOL    HW1 3308   9.737   8.878  12.121
33823SOL    HW2 3309   9.865   8.824  12.180
33824SOL     OW 3310  11.909   8.953   5.553
33824SOL    HW1 3311  11.909   8.903   5.634
33824SOL    HW2 3312  11.912   8.886   5.484
33825SOL     OW 3313   5.233   3.801   5.613
33825SOL    HW1 3314   5.156   3.744   5.618
33825SOL    HW2 3315   5.301   3.747   5.572
33826SOL     OW 3316   6.667   1.071  11.882
33826SOL    HW1 3317   6.735   1.030  11.936
33826SOL    HW2 3318   6.586   1.060  11.932
33827SOL     OW 3319   6.174  13.343  12.376
33827SOL    HW1 3320   6.097  13.374  12.425
33827SOL    HW2 3321   6.145  13.262  12.334
33828SOL     OW 3322  11.020   8.589  11.455
33828SOL    HW1 3323  10.963   8.540  11.395
33828SOL    HW2 3324  11.046   8.525  11.521
33829SOL     OW 3325  13.113   7.013  10.950
33829SOL    HW1 3326  13.063   7.060  10.884
33829SOL    HW2 3327  13.063   7.024  11.031
33830SOL     OW 3328   1.303   5.027  13.238
33830SOL    HW1 3329   1.292   5.114  13.275
33830SOL    HW2 3330   1.239   5.023  13.167
33831SOL     OW 3331   9.589   8.885   7.701
33831SOL    HW1 3332   9.549   8.944   7.637
33831SOL    HW2 3333   9.536   8.806   7.698
33832SOL     OW 3334  14.738  10.265   4.606
33832SOL    HW1 3335  14.736  10.291   4.514
33832SOL    HW2 3336  14.771  10.175   4.605
33833SOL     OW 3337   1.378   7.110   6.013
33833SOL    HW1 3338   1.299   7.129   6.064
33833SOL    HW2 3339   1.382   7.014   6.010
33834SOL     OW 3340   3.378   2.859   3.077
33834SOL    HW1 3341   3.425   2.776   3.081
33834SOL    HW2 3342   3.375   2.890   3.168
33835SOL     OW 3343   3.169  14.494  11.045
33835SOL    HW1 3344   3.088  14.472  11.000
33835SOL    HW2 3345   3.143  14.557  11.112
33836SOL     OW 3346  11.167   3.309  13.680
33836SOL    HW1 3347  11.231   3.284  13.614
33836SOL    HW2 3348  11.130   3.391  13.647
33837SOL     OW 3349  14.351  14.577  14.357
33837SOL    HW1 3350  14.422  14.639  14.339
33837SOL    HW2 3351  14.389  14.514  14.418
33838SOL     OW 3352   9.368   7.211   1.283
33838SOL    HW1 3353   9.315   7.255   1.217
33838SOL    HW2 3354   9.325   7.232   1.366
33839SOL     OW 3355  11.954  14.618   5.865
33839SOL    HW1 3356  11.970  14.712   5.854
33839SOL    HW2 3357  11.958  14.604   5.959
33840SOL     OW 3358   8.565   8.317   2.136
33840SOL    HW1 3359   8.555   8.361   2.220
33840SOL    HW2 3360   8.646   8.266   2.145
33841SOL     OW 3361   2.285   1.148   0.712
33841SOL    HW1 3362   2.364   1.201   0.700
33841SOL    HW2 3363   2.252   1.134   0.623
33842SOL     OW 3364   4.669   4.978   6.145
33842SOL    HW1 3365   4.738   5.042   6.128
33842SOL    HW2 3366   4.594   5.009   6.094
33843SOL     OW 3367   3.556   8.049   6.521
33843SOL    HW1 3368   3.616   8.072   6.451
33843SOL    HW2 3369   3.543   7.955   6.512
33844SOL     OW 3370  14.745   1.520   0.210
33844SOL    HW1 3371  14.750   1.609   0.245
33844SOL    HW2 3372  14.836   1.494   0.197
33845SOL     OW 3373   3.663   8.543   4.119
33845SOL    HW1 3374   3.689   8.561   4.028
33845SOL    HW2 3375   3.693   8.454   4.135
33846SOL     OW 3376   9.936   8.333   6.352
33846SOL    HW1 3377   9.956   8.250   6.309
33846SOL    HW2 3378   9.995   8.337   6.426
33847SOL     OW 3379   7.901   5.765  13.396
33847SOL    HW1 3380   7.927   5.749  13.306
33847SOL    HW2 3381   7.813   5.727  13.402
33848SOL     OW 3382  13.860  12.069  12.308
33848SOL    HW1 3383  13.943  12.078  12.356
33848SOL    HW2 3384  13.884  12.024  12.227
33849SOL     OW 3385   0.497   6.560   1.096
33849SOL    HW1 3386   0.401   6.558   1.098
33849SOL    HW2 3387   0.522   6.482   1.047
33850SOL     OW 3388   4.740   3.969   2.569
33850SOL    HW1 3389   4.812   4.022   2.534
33850SOL    HW2 3390   4.783   3.894   2.610
33851SOL     OW 3391  13.762   0.722  13.031
33851SOL    HW1 3392  13.761   0.626  13.037
33851SOL    HW2 3393  13.671   0.746  13.016
33852SOL     OW 3394   4.192   6.585   9.726
33852SOL    HW1 3395   4.242   6.552   9.800
33852SOL    HW2 3396   4.196   6.515   9.660
33853SOL     OW 3397  12.430   5.185  11.780
33853SOL    HW1 3398  12.406   5.215  11.692
33853SOL    HW2 3399  12.371   5.230  11.839
33854SOL     OW 3400   7.411  14.006   1.502
33854SOL    HW1 3401   7.399  13.956   1.422
33854SOL    HW2 3402   7.373  14.092   1.483
33855SOL     OW 3403  10.192   2.108   4.855
33855SOL    HW1 3404  10.258   2.159   4.808
33855SOL    HW2 3405  10.242   2.047   4.908
33856SOL     OW 3406   7.762   3.845   2.649
33856SOL    HW1 3407   7.683   3.800   2.679
33856SOL    HW2 3408   7.824   3.836   2.721
33857SOL     OW 3409   7.995  11.775   0.411
33857SOL    HW1 3410   8.058  11.706   0.388
33857SOL    HW2 3411   7.952  11.797   0.329
33858SOL     OW 3412  12.265  14.789   2.705
33858SOL    HW1 3413  12.203  14.756   2.770
33858SOL    HW2 3414  12.216  14.789   2.623
33859SOL     OW 3415   6.914  11.419  12.416
33859SOL    HW1 3416   6.832  11.407  12.464
33859SOL    HW2 3417   6.969  11.468  12.477
33860SOL     OW 3418  11.261   6.617   8.960
33860SOL    HW1 3419  11.218   6.648   8.880
33860SOL    HW2 3420  11.225   6.672   9.029
33861SOL     OW 3421   1.683  12.225  11.664
33861SOL    HW1 3422   1.762  12.274  11.639
33861SOL    HW2 3423   1.714  12.137  11.683
33862SOL     OW 3424  10.634  13.204   2.512
33862SOL    HW1 3425  10.692  13.141   2.468
33862SOL    HW2 3426  10.662  13.289   2.480
33863SOL     OW 3427   8.630   3.413   8.890
33863SOL    HW1 3428   8.552   3.360   8.873
33863SOL    HW2 3429   8.616   3.448   8.978
33864SOL     OW 3430   5.597   3.455   7.977
33864SOL    HW1 3431   5.608   3.360   7.977
33864SOL    HW2 3432   5.502   3.468   7.987
33865SOL     OW 3433   9.421   5.645  13.395
33865SOL    HW1 3434   9.424   5.705  13.320
33865SOL    HW2 3435   9.412   5.558  13.356
33866SOL     OW 3436  10.906   2.985  13.061
33866SOL    HW1 3437  10.864   2.943  12.986
33866SOL    HW2 3438  10.984   2.932  13.078
33867SOL     OW 3439   7.067  11.188   8.365
33867SOL    HW1 3440   7.030  11.203   8.278
33867SOL    HW2 3441   6.991  11.187   8.423
33868SOL     OW 3442   7.498   0.559   4.299
33868SOL    HW1 3443   7.427   0.580   4.239
33868SOL    HW2 3444   7.482   0.614   4.376
33869SOL     OW 3445   8.637   3.569   1.271
33869SOL    HW1 3446   8.573   3.582   1.341
33869SOL    HW2 3447   8.721   3.560   1.318
33870SOL     OW 3448   3.752   6.967   2.859
33870SOL    HW1 3449   3.697   6.893   2.881
33870SOL    HW2 3450   3.726   6.991   2.770
33871SOL     OW 3451   3.073   9.649   8.219
33871SOL    HW1 3452   3.042   9.576   8.166
33871SOL    HW2 3453   3.151   9.681   8.174
33872SOL     OW 3454   3.368   7.915   2.383
33872SOL    HW1 3455   3.315   7.843   2.418
33872SOL    HW2 3456   3.378   7.894   2.290
33873SOL     OW 3457  13.277   7.514   8.990
33873SOL    HW1 3458  13.364   7.475   8.979
33873SOL    HW2 3459  13.234   7.459   9.055
33874SOL     OW 3460   7.236  12.327   1.825
33874SOL    HW1 3461   7.327  12.358   1.821
33874SOL    HW2 3462   7.203  12.362   1.908
33875SOL     OW 3463   6.180   1.850   9.450
33875SOL    HW1 3464   6.259   1.896   9.421
33875SOL    HW2 3465   6.194   1.839   9.545
33876SOL     OW 3466   6.920  13.223   4.236
33876SOL    HW1 3467   6.944  13.314   4.220
33876SOL    HW2 3468   6.832  13.214   4.199
33877SOL     OW 3469   1.052   0.974  14.377
33877SOL    HW1 3470   1.043   1.061  14.418
33877SOL    HW2 3471   1.074   0.993  14.286
33878SOL     OW 3472  10.827   2.175   4.833
33878SOL    HW1 3473  10.918   2.174   4.803
33878SOL    HW2 3474  10.834   2.179   4.929
33879SOL     OW 3475   3.402   9.815   0.295
33879SOL    HW1 3476   3.330   9.771   0.342
33879SOL    HW2 3477   3.390   9.907   0.315
33880SOL     OW 3478   3.189  12.416   7.298
33880SOL    HW1 3479   3.185  12.470   7.378
33880SOL    HW2 3480   3.100  12.382   7.289
33881SOL     OW 3481  11.855   9.537  14.650
33881SOL    HW1 3482  11.829   9.609  14.593
33881SOL    HW2 3483  11.945   9.558  14.677
33882SOL     OW 3484  13.726   1.914   5.032
33882SOL    HW1 3485  13.793   1.851   5.059
33882SOL    HW2 3486  13.650   1.892   5.086
33883SOL     OW 3487   8.891  13.332   4.694
33883SOL    HW1 3488   8.821  13.344   4.759
33883SOL    HW2 3489   8.952  13.404   4.711
33884SOL     OW 3490   1.153  14.600   5.816
33884SOL    HW1 3491   1.133  14.609   5.723
33884SOL    HW2 3492   1.192  14.513   5.824
33885SOL     OW 3493   5.554   2.636  10.190
33885SOL    HW1 3494   5.485   2.600  10.245
33885SOL    HW2 3495   5.554   2.582  10.111
33886SOL     OW 3496  11.968   1.956   2.753
33886SOL    HW1 3497  11.900   1.924   2.812
33886SOL    HW2 3498  11.949   2.050   2.744
33887SOL     OW 3499  12.127  13.320  13.174
33887SOL    HW1 3500  12.162  13.233  13.156
33887SOL    HW2 3501  12.070  13.308  13.250
33888SOL     OW 3502   2.241  12.883   0.141
33888SOL    HW1 3503   2.207  12.862   0.228
33888SOL    HW2 3504   2.304  12.952   0.157
33889SOL     OW 3505  10.264   5.507  14.024
33889SOL    HW1 3506  10.285   5.533  14.114
33889SOL    HW2 3507  10.316   5.566  13.969
33890SOL     OW 3508   3.812   7.875   9.302
33890SOL    HW1 3509   3.885   7.912   9.252
33890SOL    HW2 3510   3.738   7.875   9.241
33891SOL     OW 3511  10.116   0.039   3.532
33891SOL    HW1 3512  10.190   0.054   3.473
33891SOL    HW2 3513  10.122  14.826   3.554
33892SOL     OW 3514  10.471  12.987  14.305
33892SOL    HW1 3515  10.540  12.957  14.364
33892SOL    HW2 3516  10.398  12.927  14.322
33893SOL     OW 3517  14.359   2.534   8.493
33893SOL    HW1 3518  14.424   2.600   8.517
33893SOL    HW2 3519  14.297   2.579   8.436
33894SOL     OW 3520  10.622   4.290  13.805
33894SOL    HW1 3521  10.697   4.349  13.792
33894SOL    HW2 3522  10.661   4.207  13.832
33895SOL     OW 3523  14.667   3.419  10.502
33895SOL    HW1 3524  14.603   3.475  10.545
33895SOL    HW2 3525  14.688   3.464  10.420
33896SOL     OW 3526   0.374   3.065  11.246
33896SOL    HW1 3527   0.395   2.982  11.204
33896SOL    HW2 3528   0.289   3.051  11.287
33897SOL     OW 3529  12.984   0.209   5.832
33897SOL    HW1 3530  12.977   0.114   5.843
33897SOL    HW2 3531  13.041   0.220   5.756
33898SOL     OW 3532   9.056   2.562   6.121
33898SOL    HW1 3533   8.962   2.574   6.115
33898SOL    HW2 3534   9.084   2.539   6.032
33899SOL     OW 3535   2.421  10.303  14.761
33899SOL    HW1 3536   2.467  10.321  14.843
33899SOL    HW2 3537   2.358  10.234  14.784
33900SOL     OW 3538   4.909   9.491  13.542
33900SOL    HW1 3539   4.881   9.457  13.457
33900SOL    HW2 3540   4.888   9.421  13.604
33901SOL     OW 3541  14.387   3.868   8.261
33901SOL    HW1 3542  14.469   3.866   8.310
33901SOL    HW2 3543  14.340   3.789   8.290
33902SOL     OW 3544   3.675   5.598   8.588
33902SOL    HW1 3545   3.723   5.681   8.588
33902SOL    HW2 3546   3.585   5.623   8.570
33903SOL     OW 3547   5.195   4.610   9.371
33903SOL    HW1 3548   5.254   4.677   9.337
33903SOL    HW2 3549   5.187   4.628   9.464
33904SOL     OW 3550   6.715   6.155   4.430
33904SOL    HW1 3551   6.717   6.251   4.433
33904SOL    HW2 3552   6.628   6.132   4.461
33905SOL     OW 3553  11.328  13.783   3.003
33905SOL    HW1 3554  11.274  13.760   3.079
33905SOL    HW2 3555  11.265  13.795   2.932
33906SOL     OW 3556   2.681   7.103   7.956
33906SOL    HW1 3557   2.702   7.081   8.047
33906SOL    HW2 3558   2.741   7.175   7.935
33907SOL     OW 3559   7.135   8.114   6.202
33907SOL    HW1 3560   7.070   8.063   6.250
33907SOL    HW2 3561   7.168   8.055   6.135
33908SOL     OW 3562  14.427   0.249   0.341
33908SOL    HW1 3563  14.369   0.212   0.274
33908SOL    HW2 3564  14.421   0.188   0.414
33909SOL     OW 3565   3.420  12.925  10.466
33909SOL    HW1 3566   3.394  12.917  10.374
33909SOL    HW2 3567   3.466  13.008  10.471
33910SOL     OW 3568   5.071  13.927   6.997
33910SOL    HW1 3569   5.105  14.013   7.022
33910SOL    HW2 3570   5.009  13.904   7.066
33911SOL     OW 3571   1.978   4.441   9.807
33911SOL    HW1 3572   1.938   4.431   9.721
33911SOL    HW2 3573   2.058   4.491   9.791
33912SOL     OW 3574   1.293   5.707   9.732
33912SOL    HW1 3575   1.214   5.663   9.701
33912SOL    HW2 3576   1.273   5.731   9.823
33913SOL     OW 3577  10.986   8.821   2.771
33913SOL    HW1 3578  10.952   8.795   2.685
33913SOL    HW2 3579  10.924   8.782   2.833
33914SOL     OW 3580  10.809   5.283  14.837
33914SOL    HW1 3581  10.746   5.355  14.841
33914SOL    HW2 3582  10.770   5.221  14.775
33915SOL     OW 3583  14.662   8.873   5.670
33915SOL    HW1 3584  14.621   8.948   5.713
33915SOL    HW2 3585  14.594   8.839   5.612
33916SOL     OW 3586  13.153   4.345   4.381
33916SOL    HW1 3587  13.086   4.283   4.353
33916SOL    HW2 3588  13.220   4.291   4.423
33917SOL     OW 3589   6.593  12.913   6.873
33917SOL    HW1 3590   6.682  12.879   6.864
33917SOL    HW2 3591   6.546  12.876   6.799
33918SOL     OW 3592   6.934  10.649   1.369
33918SOL    HW1 3593   6.998  10.679   1.433
33918SOL    HW2 3594   6.952  10.555   1.360
33919SOL     OW 3595   5.132   4.349   9.243
33919SOL    HW1 3596   5.171   4.364   9.157
33919SOL    HW2 3597   5.142   4.432   9.289
33920SOL     OW 3598   9.548  13.896   3.234
33920SOL    HW1 3599   9.568  13.989   3.248
33920SOL    HW2 3600   9.454  13.895   3.217
33921SOL     OW 3601   4.742   0.669   9.313
33921SOL    HW1 3602   4.763   0.651   9.404
33921SOL    HW2 3603   4.790   0.750   9.294
33922SOL     OW 3604   8.031   9.640   7.839
33922SOL    HW1 3605   8.098   9.622   7.905
33922SOL    HW2 3606   8.001   9.729   7.860
33923SOL     OW 3607   4.289   9.257   3.581
33923SOL    HW1 3608   4.365   9.207   3.552
33923SOL    HW2 3609   4.324   9.344   3.601
33924SOL     OW 3610  14.799   6.973  11.570
33924SOL    HW1 3611  14.821   7.049  11.517
33924SOL    HW2 3612   0.003   6.948  11.611
33925SOL     OW 3613   5.119   7.909  12.997
33925SOL    HW1 3614   5.104   7.850  13.071
33925SOL    HW2 3615   5.034   7.914  12.953
33926SOL     OW 3616  14.341   1.071   4.942
33926SOL    HW1 3617  14.303   1.036   4.861
33926SOL    HW2 3618  14.322   1.164   4.939
33927SOL     OW 3619   1.235   1.977  11.362
33927SOL    HW1 3620   1.234   2.045  11.430
33927SOL    HW2 3621   1.320   1.987  11.320
33928SOL     OW 3622  11.598  13.236   0.795
33928SOL    HW1 3623  11.658  13.279   0.734
33928SOL    HW2 3624  11.512  13.244   0.753
33929SOL     OW 3625   8.798  14.435   4.872
33929SOL    HW1 3626   8.725  14.481   4.913
33929SOL    HW2 3627   8.843  14.502   4.820
33930SOL     OW 3628  14.387   5.036   7.505
33930SOL    HW1 3629  14.340   4.954   7.523
33930SOL    HW2 3630  14.329   5.085   7.447
33931SOL     OW 3631   9.403   3.270   6.941
33931SOL    HW1 3632   9.404   3.325   6.862
33931SOL    HW2 3633   9.313   3.238   6.946
33932SOL     OW 3634   4.160   4.916  13.056
33932SOL    HW1 3635   4.088   4.905  13.118
33932SOL    HW2 3636   4.155   5.007  13.029
33933SOL     OW 3637   3.561   7.994  11.248
33933SOL    HW1 3638   3.540   7.976  11.340
33933SOL    HW2 3639   3.621   7.924  11.222
33934SOL     OW 3640   0.026  10.741   2.470
33934SOL    HW1 3641   0.090  10.771   2.535
33934SOL    HW2 3642   0.061  10.657   2.440
33935SOL     OW 3643   2.663   5.194   9.621
33935SOL    HW1 3644   2.691   5.222   9.709
33935SOL    HW2 3645   2.735   5.219   9.564
33936SOL     OW 3646   4.092  11.189   1.555
33936SOL    HW1 3647   4.071  11.281   1.568
33936SOL    HW2 3648   4.156  11.169   1.624
33937SOL     OW 3649   2.296   6.748   3.702
33937SOL    HW1 3650   2.337   6.793   3.775
33937SOL    HW2 3651   2.270   6.818   3.642
33938SOL     OW 3652   8.266  13.930  12.389
33938SOL    HW1 3653   8.302  14.010  12.426
33938SOL    HW2 3654   8.313  13.918  12.306
33939SOL     OW 3655   8.632  12.830   3.600
33939SOL    HW1 3656   8.701  12.892   3.578
33939SOL    HW2 3657   8.609  12.852   3.691
33940SOL     OW 3658   8.457   0.185   2.921
33940SOL    HW1 3659   8.526   0.244   2.951
33940SOL    HW2 3660   8.376   0.220   2.959
33941SOL     OW 3661  12.432   8.283  10.585
33941SOL    HW1 3662  12.525   8.281  10.563
33941SOL    HW2 3663  12.426   8.239  10.670
33942SOL     OW 3664   2.489   5.472  13.302
33942SOL    HW1 3665   2.421   5.516  13.353
33942SOL    HW2 3666   2.562   5.462  13.362
33943SOL     OW 3667   3.497   1.816   3.251
33943SOL    HW1 3668   3.589   1.815   3.225
33943SOL    HW2 3669   3.463   1.896   3.211
33944SOL     OW 3670   6.971  10.702   4.110
33944SOL    HW1 3671   7.005  10.772   4.055
33944SOL    HW2 3672   7.041  10.637   4.113
33945SOL     OW 3673  10.839   2.918   4.028
33945SOL    HW1 3674  10.765   2.904   4.086
33945SOL    HW2 3675  10.900   2.847   4.048
33946SOL     OW 3676  13.941  13.533  14.213
33946SOL    HW1 3677  13.848  13.525  14.192
33946SOL    HW2 3678  13.947  13.610  14.268
33947SOL     OW 3679  12.280   9.267   1.242
33947SOL    HW1 3680  12.353   9.314   1.282
33947SOL    HW2 3681  12.212   9.333   1.229
33948SOL     OW 3682   3.128   6.014  10.565
33948SOL    HW1 3683   3.074   6.019  10.486
33948SOL    HW2 3684   3.078   6.060  10.632
33949SOL     OW 3685   8.206   1.267  10.886
33949SOL    HW1 3686   8.294   1.241  10.912
33949SOL    HW2 3687   8.216   1.298  10.796
33950SOL     OW 3688   9.211   7.890  11.514
33950SOL    HW1 3689   9.225   7.943  11.593
33950SOL    HW2 3690   9.179   7.952  11.449
33951SOL     OW 3691   5.524   2.628   0.483
33951SOL    HW1 3692   5.593   2.614   0.417
33951SOL    HW2 3693   5.541   2.561   0.549
33952SOL     OW 3694  13.315   2.080   4.644
33952SOL    HW1 3695  13.272   2.164   4.629
33952SOL    HW2 3696  13.303   2.032   4.562
33953SOL     OW 3697   4.636   7.226   3.661
33953SOL    HW1 3698   4.626   7.146   3.712
33953SOL    HW2 3699   4.563   7.282   3.689
33954SOL     OW 3700   5.074   1.472   0.090
33954SOL    HW1 3701   5.059   1.534   0.161
33954SOL    HW2 3702   5.163   1.440   0.104
33955SOL     OW 3703   9.475   2.020  10.062
33955SOL    HW1 3704   9.526   2.005   9.982
33955SOL    HW2 3705   9.406   2.081  10.035
33956SOL     OW 3706  11.707   6.749   9.014
33956SOL    HW1 3707  11.722   6.681   8.949
33956SOL    HW2 3708  11.616   6.776   9.002
33957SOL     OW 3709   0.934  10.647   6.761
33957SOL    HW1 3710   0.890  10.725   6.796
33957SOL    HW2 3711   0.972  10.605   6.838
33958SOL     OW 3712   2.110   1.392  13.815
33958SOL    HW1 3713   2.055   1.418  13.741
33958SOL    HW2 3714   2.179   1.338  13.776
33959SOL     OW 3715   3.958   5.058   7.772
33959SOL    HW1 3716   4.042   5.067   7.817
33959SOL    HW2 3717   3.932   4.967   7.786
33960SOL     OW 3718   3.526  10.779   3.707
33960SOL    HW1 3719   3.599  10.837   3.686
33960SOL    HW2 3720   3.453  10.839   3.726
33961SOL     OW 3721   7.870   0.232  11.851
33961SOL    HW1 3722   7.907   0.318  11.830
33961SOL    HW2 3723   7.921   0.170  11.800
33962SOL     OW 3724   7.437   0.589  14.470
33962SOL    HW1 3725   7.414   0.553  14.555
33962SOL    HW2 3726   7.402   0.678  14.471
33963SOL     OW 3727  11.389   7.373   0.007
33963SOL    HW1 3728  11.475   7.389  14.847
33963SOL    HW2 3729  11.395   7.285   0.044
33964SOL     OW 3730   9.558   1.823   0.187
33964SOL    HW1 3731   9.623   1.882   0.227
33964SOL    HW2 3732   9.554   1.849   0.096
33965SOL     OW 3733   5.044  12.959   7.338
33965SOL    HW1 3734   4.983  12.959   7.411
33965SOL    HW2 3735   5.103  13.032   7.355
33966SOL     OW 3736   2.231   0.453  10.949
33966SOL    HW1 3737   2.151   0.432  10.997
33966SOL    HW2 3738   2.280   0.370  10.948
33967SOL     OW 3739   7.184   8.432  11.222
33967SOL    HW1 3740   7.241   8.451  11.297
33967SOL    HW2 3741   7.204   8.501  11.159
33968SOL     OW 3742   1.455   1.307   4.076
33968SOL    HW1 3743   1.494   1.220   4.089
33968SOL    HW2 3744   1.530   1.365   4.065
33969SOL     OW 3745   3.317  11.930  10.218
33969SOL    HW1 3746   3.255  11.989  10.263
33969SOL    HW2 3747   3.319  11.852  10.273
33970SOL     OW 3748  14.400  14.433   1.306
33970SOL    HW1 3749  14.335  14.390   1.362
33970SOL    HW2 3750  14.354  14.448   1.223
33971SOL     OW 3751   3.749   3.727  11.100
33971SOL    HW1 3752   3.797   3.807  11.122
33971SOL    HW2 3753   3.672   3.729  11.157
33972SOL     OW 3754  13.315   8.888  13.761
33972SOL    HW1 3755  13.286   8.830  13.832
33972SOL    HW2 3756  13.322   8.974  13.802
33973SOL     OW 3757   4.173   7.838   8.763
33973SOL    HW1 3758   4.215   7.915   8.800
33973SOL    HW2 3759   4.084   7.839   8.799
33974SOL     OW 3760  10.685   1.768   8.343
33974SOL    HW1 3761  10.643   1.753   8.428
33974SOL    HW2 3762  10.725   1.684   8.321
33975SOL     OW 3763   9.260   7.354  14.200
33975SOL    HW1 3764   9.179   7.384  14.160
33975SOL    HW2 3765   9.316   7.331  14.126
33976SOL     OW 3766  10.927   4.812  10.388
33976SOL    HW1 3767  10.993   4.751  10.421
33976SOL    HW2 3768  10.927   4.884  10.451
33977SOL     OW 3769  13.627   5.527   3.659
33977SOL    HW1 3770  13.544   5.482   3.671
33977SOL    HW2 3771  13.616   5.577   3.578
33978SOL     OW 3772   6.120   9.260   6.182
33978SOL    HW1 3773   6.162   9.337   6.220
33978SOL    HW2 3774   6.192   9.206   6.151
33979SOL     OW 3775  10.755   3.330   3.588
33979SOL    HW1 3776  10.717   3.242   3.582
33979SOL    HW2 3777  10.818   3.325   3.660
33980SOL     OW 3778   7.345   0.756   0.100
33980SOL    HW1 3779   7.331   0.740   0.194
33980SOL    HW2 3780   7.434   0.792   0.095
33981SOL     OW 3781  12.331  13.877   0.283
33981SOL    HW1 3782  12.284  13.926   0.350
33981SOL    HW2 3783  12.266  13.815   0.249
33982SOL     OW 3784  10.407   0.166  12.619
33982SOL    HW1 3785  10.357   0.187  12.698
33982SOL    HW2 3786  10.409   0.248  12.569
33983SOL     OW 3787   6.645  11.529   0.672
33983SOL    HW1 3788   6.726  11.477   0.665
33983SOL    HW2 3789   6.612  11.510   0.759
33984SOL     OW 3790   8.754   0.174  11.655
33984SOL    HW1 3791   8.717   0.230  11.724
33984SOL    HW2 3792   8.702   0.094  11.658
33985SOL     OW 3793   4.281   9.951   5.523
33985SOL    HW1 3794   4.201   9.951   5.471
33985SOL    HW2 3795   4.325   9.869   5.501
33986SOL     OW 3796   9.912   9.326   1.096
33986SOL    HW1 3797   9.923   9.236   1.067
33986SOL    HW2 3798   9.893   9.375   1.016
33987SOL     OW 3799   5.831   1.673   1.446
33987SOL    HW1 3800   5.769   1.600   1.435
33987SOL    HW2 3801   5.781   1.751   1.422
33988SOL     OW 3802   8.113   8.876   1.943
33988SOL    HW1 3803   8.143   8.890   1.853
33988SOL    HW2 3804   8.091   8.783   1.947
33989SOL     OW 3805  12.023   2.390  14.602
33989SOL    HW1 3806  11.993   2.327  14.537
33989SOL    HW2 3807  11.982   2.362  14.684
33990SOL     OW 3808   7.411   7.992   9.314
33990SOL    HW1 3809   7.395   7.906   9.274
33990SOL    HW2 3810   7.324   8.021   9.342
33991SOL     OW 3811   2.043   7.019   7.745
33991SOL    HW1 3812   1.961   7.065   7.765
33991SOL    HW2 3813   2.097   7.085   7.701
33992SOL     OW 3814   8.774   8.804   4.493
33992SOL    HW1 3815   8.735   8.792   4.579
33992SOL    HW2 3816   8.743   8.729   4.442
33993SOL     OW 3817   8.113   1.595   4.920
33993SOL    HW1 3818   8.085   1.686   4.905
33993SOL    HW2 3819   8.133   1.562   4.832
33994SOL     OW 3820   4.955   5.159   1.615
33994SOL    HW1 3821   4.926   5.068   1.604
33994SOL    HW2 3822   5.037   5.152   1.663
33995SOL     OW 3823   3.469   8.607  14.199
33995SOL    HW1 3824   3.562   8.627  14.193
33995SOL    HW2 3825   3.448   8.561  14.118
33996SOL     OW 3826   2.747   1.100   9.589
33996SOL    HW1 3827   2.756   1.032   9.522
33996SOL    HW2 3828   2.797   1.174   9.555
33997SOL     OW 3829  12.864   3.743  11.878
33997SOL    HW1 3830  12.834   3.711  11.963
33997SOL    HW2 3831  12.797   3.807  11.851
33998SOL     OW 3832   4.728   5.746   5.207
33998SOL    HW1 3833   4.684   5.736   5.291
33998SOL    HW2 3834   4.712   5.838   5.182
33999SOL     OW 3835   6.058  11.555   5.387
33999SOL    HW1 3836   6.016  11.490   5.443
33999SOL    HW2 3837   6.151  11.545   5.405
34000SOL     OW 3838   8.970   4.603   9.420
34000SOL    HW1 3839   8.880   4.599   9.388
34000SOL    HW2 3840   9.022   4.630   9.344
34001SOL     OW 3841   0.845  13.568   3.795
34001SOL    HW1 3842   0.920  13.593   3.850
34001SOL    HW2 3843   0.811  13.489   3.836
34002SOL     OW 3844  12.120  13.092   5.564
34002SOL    HW1 3845  12.175  13.085   5.486
34002SOL    HW2 3846  12.173  13.054   5.634
34003SOL     OW 3847   0.498   2.271   3.337
34003SOL    HW1 3848   0.428   2.280   3.401
34003SOL    HW2 3849   0.525   2.361   3.318
34004SOL     OW 3850  12.012   9.432   0.547
34004SOL    HW1 3851  11.963   9.478   0.615
34004SOL    HW2 3852  12.103   9.435   0.577
34005SOL     OW 3853   9.101  13.556   5.365
34005SOL    HW1 3854   9.187  13.518   5.385
34005SOL    HW2 3855   9.091  13.627   5.427
34006SOL     OW 3856  12.511   4.246   2.546
34006SOL    HW1 3857  12.445   4.281   2.606
34006SOL    HW2 3858  12.497   4.295   2.465
34007SOL     OW 3859   5.260  12.359   3.416
34007SOL    HW1 3860   5.277  12.295   3.347
34007SOL    HW2 3861   5.203  12.423   3.376
34008SOL     OW 3862   4.397   2.773   8.736
34008SOL    HW1 3863   4.452   2.751   8.811
34008SOL    HW2 3864   4.456   2.768   8.661
34009SOL     OW 3865  14.440   5.314   3.700
34009SOL    HW1 3866  14.404   5.389   3.747
34009SOL    HW2 3867  14.519   5.347   3.658
34010SOL     OW 3868   2.811  14.185  13.511
34010SOL    HW1 3869   2.794  14.094  13.537
34010SOL    HW2 3870   2.730  14.231  13.533
34011SOL     OW 3871   7.079  14.736   9.618
34011SOL    HW1 3872   7.024  14.668   9.656
34011SOL    HW2 3873   7.154  14.742   9.678
34012SOL     OW 3874  14.210  12.133   4.539
34012SOL    HW1 3875  14.272  12.066   4.568
34012SOL    HW2 3876  14.124  12.094   4.553
34013SOL     OW 3877   0.130   5.011   4.390
34013SOL    HW1 3878   0.184   5.090   4.403
34013SOL    HW2 3879   0.042   5.044   4.376
34014SOL     OW 3880   3.463   5.610   3.708
34014SOL    HW1 3881   3.466   5.657   3.792
34014SOL    HW2 3882   3.440   5.676   3.644
34015SOL     OW 3883   9.456   0.369  13.198
34015SOL    HW1 3884   9.455   0.360  13.103
34015SOL    HW2 3885   9.369   0.342  13.226
34016SOL     OW 3886   2.545   4.477   4.101
34016SOL    HW1 3887   2.456   4.505   4.079
34016SOL    HW2 3888   2.601   4.540   4.057
34017SOL     OW 3889   0.736   5.124   9.569
34017SOL    HW1 3890   0.776   5.112   9.656
34017SOL    HW2 3891   0.648   5.088   9.578
34018SOL     OW 3892  10.943   8.394  12.204
34018SOL    HW1 3893  11.007   8.362  12.267
34018SOL    HW2 3894  10.992   8.404  12.123
34019SOL     OW 3895   3.800   2.366  10.611
34019SOL    HW1 3896   3.783   2.298  10.676
34019SOL    HW2 3897   3.844   2.436  10.660
34020SOL     OW 3898   5.878   5.176   9.534
34020SOL    HW1 3899   5.900   5.182   9.441
34020SOL    HW2 3900   5.817   5.103   9.540
34021SOL     OW 3901  12.870   6.969   1.340
34021SOL    HW1 3902  12.919   7.051   1.341
34021SOL    HW2 3903  12.936   6.902   1.357
34022SOL     OW 3904  12.575  10.263   6.300
34022SOL    HW1 3905  12.512  10.230   6.236
34022SOL    HW2 3906  12.645  10.302   6.247
34023SOL     OW 3907  11.814   5.165   3.545
34023SOL    HW1 3908  11.823   5.260   3.531
34023SOL    HW2 3909  11.760   5.157   3.624
34024SOL     OW 3910  14.526   5.005   9.627
34024SOL    HW1 3911  14.486   5.063   9.691
34024SOL    HW2 3912  14.604   5.051   9.597
34025SOL     OW 3913   8.689   6.958   1.520
34025SOL    HW1 3914   8.780   6.930   1.534
34025SOL    HW2 3915   8.683   7.042   1.567
34026SOL     OW 3916  13.273   1.566   2.251
34026SOL    HW1 3917  13.264   1.640   2.310
34026SOL    HW2 3918  13.186   1.526   2.248
34027SOL     OW 3919  14.856   8.038  13.063
34027SOL    HW1 3920  14.787   8.066  13.002
34027SOL    HW2 3921   0.003   8.118  13.108
34028SOL     OW 3922   9.228  10.807   2.314
34028SOL    HW1 3923   9.210  10.900   2.303
34028SOL    HW2 3924   9.239  10.795   2.408
34029SOL     OW 3925  13.181   5.851  12.397
34029SOL    HW1 3926  13.091   5.838  12.368
34029SOL    HW2 3927  13.227   5.771  12.370
34030SOL     OW 3928   9.434  13.527   4.242
34030SOL    HW1 3929   9.493  13.472   4.190
34030SOL    HW2 3930   9.363  13.468   4.267
34031SOL     OW 3931  10.759  11.202   5.592
34031SOL    HW1 3932  10.847  11.234   5.612
34031SOL    HW2 3933  10.746  11.224   5.499
34032SOL     OW 3934   3.269   7.848   6.678
34032SOL    HW1 3935   3.309   7.865   6.762
34032SOL    HW2 3936   3.340   7.855   6.615
34033SOL     OW 3937   4.308   9.810  14.869
34033SOL    HW1 3938   4.393   9.836   0.027
34033SOL    HW2 3939   4.327   9.729  14.822
34034SOL     OW 3940   2.429  10.917   1.889
34034SOL    HW1 3941   2.386  10.965   1.819
34034SOL    HW2 3942   2.456  10.984   1.952
34035SOL     OW 3943   4.160  12.986  13.177
34035SOL    HW1 3944   4.139  13.077  13.154
34035SOL    HW2 3945   4.176  12.989  13.271
34036SOL     OW 3946   2.779   1.024   4.413
34036SOL    HW1 3947   2.798   0.943   4.365
34036SOL    HW2 3948   2.855   1.080   4.396
34037SOL     OW 3949   6.365  12.362  10.470
34037SOL    HW1 3950   6.350  12.379  10.377
34037SOL    HW2 3951   6.295  12.302  10.495
34038SOL     OW 3952   4.618   5.235   6.828
34038SOL    HW1 3953   4.559   5.192   6.765
34038SOL    HW2 3954   4.693   5.177   6.834
34039SOL     OW 3955   1.544  12.670   4.509
34039SOL    HW1 3956   1.556  12.762   4.529
34039SOL    HW2 3957   1.602  12.654   4.434
34040SOL     OW 3958  12.469  13.307   3.373
34040SOL    HW1 3959  12.458  13.401   3.385
34040SOL    HW2 3960  12.397  13.268   3.422
34041SOL     OW 3961   7.266   5.784   9.304
34041SOL    HW1 3962   7.184   5.798   9.351
34041SOL    HW2 3963   7.296   5.873   9.284
34042SOL     OW 3964  13.224   0.566   6.109
34042SOL    HW1 3965  13.224   0.559   6.014
34042SOL    HW2 3966  13.272   0.489   6.139
34043SOL     OW 3967   8.401   0.929   7.379
34043SOL    HW1 3968   8.402   0.863   7.310
34043SOL    HW2 3969   8.489   0.925   7.418
34044SOL     OW 3970  14.699   8.160   1.241
34044SOL    HW1 3971  14.790   8.139   1.217
34044SOL    HW2 3972  14.705   8.191   1.331
34045SOL     OW 3973  10.195  10.927   4.725
34045SOL    HW1 3974  10.165  10.858   4.666
34045SOL    HW2 3975  10.205  10.884   4.810
34046SOL     OW 3976  10.769   2.426  12.183
34046SOL    HW1 3977  10.733   2.385  12.262
34046SOL    HW2 3978  10.700   2.486  12.154
34047SOL     OW 3979  14.081  13.172   5.904
34047SOL    HW1 3980  14.008  13.223   5.869
34047SOL    HW2 3981  14.113  13.222   5.979
34048SOL     OW 3982   8.074   6.916  11.717
34048SOL    HW1 3983   8.098   6.937  11.627
34048SOL    HW2 3984   8.157   6.894  11.759
34049SOL     OW 3985   9.483   0.416  11.129
34049SOL    HW1 3986   9.408   0.473  11.150
34049SOL    HW2 3987   9.463   0.382  11.042
34050SOL     OW 3988   5.549   5.943  12.506
34050SOL    HW1 3989   5.578   5.991  12.429
34050SOL    HW2 3990   5.592   5.858  12.499
34051SOL     OW 3991  14.793  10.138   6.104
34051SOL    HW1 3992  14.853  10.192   6.157
34051SOL    HW2 3993  14.776  10.191   6.026
34052SOL     OW 3994   6.796   4.520   8.730
34052SOL    HW1 3995   6.835   4.607   8.743
34052SOL    HW2 3996   6.803   4.505   8.636
34053SOL     OW 3997   1.023  11.460  13.671
34053SOL    HW1 3998   1.084  11.528  13.700
34053SOL    HW2 3999   1.010  11.477  13.578
34054SOL     OW 4000  12.408   4.439   9.322
34054SOL    HW1 4001  12.323   4.482   9.314
34054SOL    HW2 4002  12.403   4.390   9.404
34055SOL     OW 4003  11.615   6.427   7.961
34055SOL    HW1 4004  11.528   6.437   7.924
34055SOL    HW2 4005  11.661   6.370   7.899
34056SOL     OW 4006  11.759  11.085   9.092
34056SOL    HW1 4007  11.755  11.161   9.151
34056SOL    HW2 4008  11.675  11.041   9.105
34057SOL     OW 4009   5.840  12.696   5.754
34057SOL    HW1 4010   5.790  12.685   5.835
34057SOL    HW2 4011   5.821  12.787   5.727
34058SOL     OW 4012  14.503   3.838  10.733
34058SOL    HW1 4013  14.530   3.928  10.714
34058SOL    HW2 4014  14.409   3.836  10.712
34059SOL     OW 4015  11.764   8.230   9.803
34059SOL    HW1 4016  11.674   8.202   9.785
34059SOL    HW2 4017  11.761   8.263   9.893
34060SOL     OW 4018   1.330   1.106  12.921
34060SOL    HW1 4019   1.356   1.053  12.845
34060SOL    HW2 4020   1.236   1.118  12.910
34061SOL     OW 4021   0.625   1.591  10.263
34061SOL    HW1 4022   0.567   1.542  10.322
34061SOL    HW2 4023   0.590   1.572  10.175
34062SOL     OW 4024  13.081   5.112  12.110
34062SOL    HW1 4025  13.154   5.170  12.086
34062SOL    HW2 4026  13.065   5.060  12.032
34063SOL     OW 4027   0.548   4.068   8.540
34063SOL    HW1 4028   0.515   4.089   8.453
34063SOL    HW2 4029   0.643   4.073   8.532
34064SOL     OW 4030  11.917   5.633   1.801
34064SOL    HW1 4031  11.947   5.568   1.865
34064SOL    HW2 4032  11.935   5.717   1.843
34065SOL     OW 4033   9.380  10.636   0.162
34065SOL    HW1 4034   9.468  10.628   0.124
34065SOL    HW2 4035   9.337  10.703   0.109
34066SOL     OW 4036  12.567  10.199   3.810
34066SOL    HW1 4037  12.484  10.233   3.776
34066SOL    HW2 4038  12.634  10.248   3.762
34067SOL     OW 4039  10.391   1.459   4.320
34067SOL    HW1 4040  10.403   1.365   4.333
34067SOL    HW2 4041  10.478   1.492   4.300
34068SOL     OW 4042  13.150   1.654  14.726
34068SOL    HW1 4043  13.130   1.632  14.817
34068SOL    HW2 4044  13.069   1.637  14.678
34069SOL     OW 4045   8.718   2.830   6.457
34069SOL    HW1 4046   8.701   2.842   6.550
34069SOL    HW2 4047   8.639   2.788   6.423
34070SOL     OW 4048   4.178   2.311  14.830
34070SOL    HW1 4049   4.271   2.331  14.819
34070SOL    HW2 4050   4.153   2.268  14.748
34071SOL     OW 4051   6.163   8.276   1.749
34071SOL    HW1 4052   6.257   8.288   1.762
34071SOL    HW2 4053   6.151   8.181   1.744
34072SOL     OW 4054   2.876   1.891  13.091
34072SOL    HW1 4055   2.930   1.869  13.167
34072SOL    HW2 4056   2.788   1.902  13.127
34073SOL     OW 4057   1.616  11.178   9.138
34073SOL    HW1 4058   1.553  11.147   9.074
34073SOL    HW2 4059   1.659  11.252   9.095
34074SOL     OW 4060   7.090  13.631  13.279
34074SOL    HW1 4061   7.044  13.558  13.321
34074SOL    HW2 4062   7.024  13.671  13.222
34075SOL     OW 4063   0.516  13.460   8.390
34075SOL    HW1 4064   0.470  13.415   8.460
34075SOL    HW2 4065   0.604  13.422   8.391
34076SOL     OW 4066   8.491   8.789   8.587
34076SOL    HW1 4067   8.562   8.743   8.542
34076SOL    HW2 4068   8.447   8.721   8.637
34077SOL     OW 4069   0.229  12.969   0.056
34077SOL    HW1 4070   0.156  12.907   0.061
34077SOL    HW2 4071   0.271  12.950  14.852
34078SOL     OW 4072   9.375  14.247   3.608
34078SOL    HW1 4073   9.446  14.296   3.650
34078SOL    HW2 4074   9.299  14.262   3.664
34079SOL     OW 4075  11.018   9.318  14.390
34079SOL    HW1 4076  10.993   9.348  14.303
34079SOL    HW2 4077  10.994   9.389  14.449
34080SOL     OW 4078   2.182   7.957  11.888
34080SOL    HW1 4079   2.208   7.924  11.974
34080SOL    HW2 4080   2.191   7.881  11.830
34081SOL     OW 4081  12.646  10.033   8.247
34081SOL    HW1 4082  12.707   9.960   8.250
34081SOL    HW2 4083  12.624  10.043   8.154
34082SOL     OW 4084   7.466   5.245   6.544
34082SOL    HW1 4085   7.527   5.293   6.489
34082SOL    HW2 4086   7.502   5.253   6.633
34083SOL     OW 4087  12.005   1.592   0.956
34083SOL    HW1 4088  11.953   1.513   0.967
34083SOL    HW2 4089  11.968   1.654   1.020
34084SOL     OW 4090  14.822   2.817   8.894
34084SOL    HW1 4091  14.767   2.742   8.916
34084SOL    HW2 4092  14.762   2.881   8.856
34085SOL     OW 4093   7.416   3.108   0.693
34085SOL    HW1 4094   7.509   3.084   0.703
34085SOL    HW2 4095   7.414   3.166   0.617
34086SOL     OW 4096   1.910   6.500  14.651
34086SOL    HW1 4097   1.832   6.519  14.703
34086SOL    HW2 4098   1.951   6.425  14.695
34087SOL     OW 4099   0.792   4.755   1.241
34087SOL    HW1 4100   0.790   4.688   1.173
34087SOL    HW2 4101   0.738   4.720   1.312
34088SOL     OW 4102   3.981   4.344  10.366
34088SOL    HW1 4103   4.042   4.303  10.426
34088SOL    HW2 4104   3.906   4.284  10.363
34089SOL     OW 4105  13.795   8.276   7.401
34089SOL    HW1 4106  13.845   8.245   7.326
34089SOL    HW2 4107  13.838   8.237   7.477
34090SOL     OW 4108   6.836   1.215   5.914
34090SOL    HW1 4109   6.794   1.301   5.921
34090SOL    HW2 4110   6.890   1.222   5.835
34091SOL     OW 4111   1.782   8.935  11.855
34091SOL    HW1 4112   1.786   8.983  11.773
34091SOL    HW2 4113   1.844   8.863  11.845
34092SOL     OW 4114  14.300   5.148  14.128
34092SOL    HW1 4115  14.212   5.171  14.097
34092SOL    HW2 4116  14.323   5.070  14.077
34093SOL     OW 4117   4.304  14.764   0.839
34093SOL    HW1 4118   4.234  14.698   0.828
34093SOL    HW2 4119   4.265  14.845   0.806
34094SOL     OW 4120   0.751  12.866  12.030
34094SOL    HW1 4121   0.661  12.849  12.057
34094SOL    HW2 4122   0.774  12.791  11.975
34095SOL     OW 4123   8.726   4.028   4.810
34095SOL    HW1 4124   8.812   4.070   4.806
34095SOL    HW2 4125   8.667   4.096   4.842
34096SOL     OW 4126  11.882  10.584  14.004
34096SOL    HW1 4127  11.949  10.651  13.991
34096SOL    HW2 4128  11.820  10.597  13.933
34097SOL     OW 4129  10.875   1.494  12.865
34097SOL    HW1 4130  10.836   1.436  12.930
34097SOL    HW2 4131  10.916   1.436  12.801
34098SOL     OW 4132   5.893   6.484  13.760
34098SOL    HW1 4133   5.946   6.478  13.681
34098SOL    HW2 4134   5.942   6.433  13.825
34099SOL     OW 4135  11.276  10.463  12.639
34099SOL    HW1 4136  11.238  10.524  12.576
34099SOL    HW2 4137  11.239  10.378  12.616
34100SOL     OW 4138  12.402   9.078   7.305
34100SOL    HW1 4139  12.386   8.985   7.322
34100SOL    HW2 4140  12.489   9.094   7.343
34101SOL     OW 4141   8.825   4.035   7.719
34101SOL    HW1 4142   8.820   3.942   7.743
34101SOL    HW2 4143   8.741   4.071   7.748
34102SOL     OW 4144   8.098   4.996   5.937
34102SOL    HW1 4145   8.167   4.974   5.999
34102SOL    HW2 4146   8.020   4.953   5.971
34103SOL     OW 4147  11.696  12.501  12.340
34103SOL    HW1 4148  11.653  12.584  12.319
34103SOL    HW2 4149  11.771  12.497  12.281
34104SOL     OW 4150  14.368   1.453   9.031
34104SOL    HW1 4151  14.321   1.421   8.955
34104SOL    HW2 4152  14.457   1.470   8.999
34105SOL     OW 4153   5.343   1.681   8.025
34105SOL    HW1 4154   5.372   1.669   7.935
34105SOL    HW2 4155   5.281   1.754   8.021
34106SOL     OW 4156   6.772  11.493  13.079
34106SOL    HW1 4157   6.707  11.438  13.036
34106SOL    HW2 4158   6.809  11.545  13.008
34107SOL     OW 4159   5.854   4.773  11.275
34107SOL    HW1 4160   5.786   4.798  11.213
34107SOL    HW2 4161   5.811   4.709  11.333
34108SOL     OW 4162   2.880  13.674  13.849
34108SOL    HW1 4163   2.957  13.695  13.901
34108SOL    HW2 4164   2.867  13.750  13.793
34109SOL     OW 4165   5.653  10.867   9.271
34109SOL    HW1 4166   5.595  10.794   9.250
34109SOL    HW2 4167   5.741  10.834   9.254
34110SOL     OW 4168   9.154   6.817   7.878
34110SOL    HW1 4169   9.136   6.903   7.916
34110SOL    HW2 4170   9.083   6.761   7.911
34111SOL     OW 4171   0.899   8.370   0.011
34111SOL    HW1 4172   0.806   8.390   0.018
34111SOL    HW2 4173   0.943   8.449   0.043
34112SOL     OW 4174   2.868   8.606   1.421
34112SOL    HW1 4175   2.831   8.520   1.440
34112SOL    HW2 4176   2.960   8.589   1.401
34113SOL     OW 4177  10.913  14.126  13.636
34113SOL    HW1 4178  10.969  14.126  13.558
34113SOL    HW2 4179  10.870  14.211  13.634
34114SOL     OW 4180   3.432   8.622  10.687
34114SOL    HW1 4181   3.469   8.567  10.756
34114SOL    HW2 4182   3.446   8.712  10.718
34115SOL     OW 4183  12.130   4.866  14.170
34115SOL    HW1 4184  12.108   4.845  14.261
34115SOL    HW2 4185  12.083   4.948  14.152
34116SOL     OW 4186  13.143   7.859  10.492
34116SOL    HW1 4187  13.228   7.903  10.486
34116SOL    HW2 4188  13.143   7.797  10.419
34117SOL     OW 4189  14.016  10.945   5.461
34117SOL    HW1 4190  13.945  10.945   5.396
34117SOL    HW2 4191  13.981  10.895   5.534
34118SOL     OW 4192   1.124   6.676   3.117
34118SOL    HW1 4193   1.160   6.759   3.150
34118SOL    HW2 4194   1.161   6.667   3.030
34119SOL     OW 4195  12.761   0.430   3.385
34119SOL    HW1 4196  12.837   0.410   3.440
34119SOL    HW2 4197  12.799   0.449   3.299
34120SOL     OW 4198   9.819  13.209  13.893
34120SOL    HW1 4199   9.754  13.148  13.857
34120SOL    HW2 4200   9.779  13.296  13.881
34121SOL     OW 4201  11.781   6.530   6.918
34121SOL    HW1 4202  11.736   6.605   6.958
34121SOL    HW2 4203  11.832   6.491   6.989
34122SOL     OW 4204   8.262   4.187   2.546
34122SOL    HW1 4205   8.335   4.214   2.489
34122SOL    HW2 4206   8.305   4.143   2.620
34123SOL     OW 4207   8.768   9.690   7.220
34123SOL    HW1 4208   8.797   9.770   7.175
34123SOL    HW2 4209   8.849   9.653   7.257
34124SOL     OW 4210   7.510   5.550   7.396
34124SOL    HW1 4211   7.463   5.620   7.351
34124SOL    HW2 4212   7.581   5.526   7.337
34125SOL     OW 4213   6.633   4.674   0.893
34125SOL    HW1 4214   6.562   4.619   0.925
34125SOL    HW2 4215   6.604   4.702   0.806
34126SOL     OW 4216   7.501   9.140   8.227
34126SOL    HW1 4217   7.557   9.090   8.167
34126SOL    HW2 4218   7.477   9.219   8.177
34127SOL     OW 4219   7.476   0.961   2.731
34127SOL    HW1 4220   7.445   0.908   2.804
34127SOL    HW2 4221   7.558   0.920   2.704
34128SOL     OW 4222   9.722   1.890   7.248
34128SOL    HW1 4223   9.763   1.939   7.319
34128SOL    HW2 4224   9.708   1.802   7.284
34129SOL     OW 4225   1.327   7.162   8.078
34129SOL    HW1 4226   1.392   7.098   8.107
34129SOL    HW2 4227   1.264   7.167   8.151
34130SOL     OW 4228   9.805  13.588   4.053
34130SOL    HW1 4229   9.812  13.683   4.067
34130SOL    HW2 4230   9.867  13.550   4.115
34131SOL     OW 4231   4.937   2.424   9.073
34131SOL    HW1 4232   4.898   2.438   8.987
34131SOL    HW2 4233   5.011   2.485   9.076
34132SOL     OW 4234   4.957  12.809  13.620
34132SOL    HW1 4235   4.976  12.872  13.550
34132SOL    HW2 4236   4.877  12.843  13.661
34133SOL     OW 4237  13.299   6.639   1.357
34133SOL    HW1 4238  13.275   6.704   1.290
34133SOL    HW2 4239  13.328   6.563   1.307
34134SOL     OW 4240   6.405   5.415   8.217
34134SOL    HW1 4241   6.330   5.363   8.189
34134SOL    HW2 4242   6.455   5.430   8.137
34135SOL     OW 4243   7.040   6.545   6.000
34135SOL    HW1 4244   7.125   6.509   5.974
34135SOL    HW2 4245   6.977   6.477   5.974
34136SOL     OW 4246  14.814   0.750   4.675
34136SOL    HW1 4247  14.811   0.810   4.750
34136SOL    HW2 4248   0.004   0.687   4.698
34137SOL     OW 4249   1.237   6.731   1.297
34137SOL    HW1 4250   1.257   6.679   1.218
34137SOL    HW2 4251   1.309   6.711   1.357
34138SOL     OW 4252  14.244   4.679   8.316
34138SOL    HW1 4253  14.234   4.610   8.251
34138SOL    HW2 4254  14.258   4.633   8.398
34139SOL     OW 4255  11.046   9.112   7.118
34139SOL    HW1 4256  11.041   9.033   7.173
34139SOL    HW2 4257  11.004   9.085   7.036
34140SOL     OW 4258   2.841  13.713   6.370
34140SOL    HW1 4259   2.847  13.633   6.317
34140SOL    HW2 4260   2.821  13.682   6.458
34141SOL     OW 4261   5.037   9.691   9.959
34141SOL    HW1 4262   4.961   9.736   9.995
34141SOL    HW2 4263   5.112   9.726  10.008
34142SOL     OW 4264   5.867   6.782   6.314
34142SOL    HW1 4265   5.775   6.763   6.297
34142SOL    HW2 4266   5.905   6.796   6.227
34143SOL     OW 4267   3.583  13.989   9.580
34143SOL    HW1 4268   3.579  13.919   9.515
34143SOL    HW2 4269   3.652  13.962   9.640
34144SOL     OW 4270   1.273   3.669   8.203
34144SOL    HW1 4271   1.188   3.646   8.167
34144SOL    HW2 4272   1.287   3.606   8.274
34145SOL     OW 4273   0.827   4.581   9.774
34145SOL    HW1 4274   0.738   4.611   9.792
34145SOL    HW2 4275   0.835   4.500   9.824
34146SOL     OW 4276  12.518   7.552   8.399
34146SOL    HW1 4277  12.513   7.621   8.465
34146SOL    HW2 4278  12.560   7.478   8.445
34147SOL     OW 4279  11.833  12.723   7.781
34147SOL    HW1 4280  11.922  12.719   7.813
34147SOL    HW2 4281  11.781  12.676   7.846
34148SOL     OW 4282   5.229   3.378  12.519
34148SOL    HW1 4283   5.150   3.331  12.546
34148SOL    HW2 4284   5.216   3.394  12.425
34149SOL     OW 4285   8.123  10.277   5.357
34149SOL    HW1 4286   8.189  10.324   5.407
34149SOL    HW2 4287   8.090  10.210   5.417
34150SOL     OW 4288   6.708   4.419  11.392
34150SOL    HW1 4289   6.693   4.490  11.330
34150SOL    HW2 4290   6.702   4.461  11.478
34151SOL     OW 4291   1.754   2.486   1.628
34151SOL    HW1 4292   1.740   2.565   1.681
34151SOL    HW2 4293   1.775   2.418   1.691
34152SOL     OW 4294  10.112   6.440   6.389
34152SOL    HW1 4295  10.104   6.463   6.296
34152SOL    HW2 4296  10.202   6.462   6.411
34153SOL     OW 4297   7.755  12.863   5.852
34153SOL    HW1 4298   7.828  12.805   5.874
34153SOL    HW2 4299   7.702  12.865   5.931
34154SOL     OW 4300   3.605  11.781  13.936
34154SOL    HW1 4301   3.562  11.699  13.913
34154SOL    HW2 4302   3.622  11.824  13.852
34155SOL     OW 4303  10.128  10.468  12.887
34155SOL    HW1 4304  10.067  10.397  12.908
34155SOL    HW2 4305  10.071  10.540  12.858
34156SOL     OW 4306   4.187  14.247   7.677
34156SOL    HW1 4307   4.208  14.268   7.586
34156SOL    HW2 4308   4.102  14.204   7.673
34157SOL     OW 4309   1.723   9.807   2.772
34157SOL    HW1 4310   1.748   9.757   2.694
34157SOL    HW2 4311   1.741   9.898   2.750
34158SOL     OW 4312  11.509   0.491   4.086
34158SOL    HW1 4313  11.496   0.468   3.994
34158SOL    HW2 4314  11.604   0.498   4.096
34159SOL     OW 4315   6.440   5.890   9.576
34159SOL    HW1 4316   6.458   5.815   9.633
34159SOL    HW2 4317   6.346   5.904   9.585
34160SOL     OW 4318   0.990  10.983   2.554
34160SOL    HW1 4319   0.998  10.899   2.600
34160SOL    HW2 4320   0.951  11.042   2.618
34161SOL     OW 4321   4.005  11.171   2.766
34161SOL    HW1 4322   4.007  11.267   2.762
34161SOL    HW2 4323   3.999  11.143   2.675
34162SOL     OW 4324   5.727   6.717  14.415
34162SOL    HW1 4325   5.699   6.725  14.324
34162SOL    HW2 4326   5.770   6.801  14.434
34163SOL     OW 4327   5.392  10.240  12.658
34163SOL    HW1 4328   5.446  10.285  12.593
34163SOL    HW2 4329   5.387  10.149  12.627
34164SOL     OW 4330   8.141   4.658  13.979
34164SOL    HW1 4331   8.063   4.679  13.928
34164SOL    HW2 4332   8.191   4.740  13.981
34165SOL     OW 4333   7.925  14.780  10.264
34165SOL    HW1 4334   7.936  14.807  10.173
34165SOL    HW2 4335   7.981  14.703  10.273
34166SOL     OW 4336   6.161   3.816   5.660
34166SOL    HW1 4337   6.144   3.894   5.713
34166SOL    HW2 4338   6.253   3.822   5.638
34167SOL     OW 4339   6.156   3.279  13.067
34167SOL    HW1 4340   6.229   3.240  13.113
34167SOL    HW2 4341   6.150   3.231  12.985
34168SOL     OW 4342   5.098   1.128   1.644
34168SOL    HW1 4343   5.011   1.124   1.605
34168SOL    HW2 4344   5.082   1.141   1.738
34169SOL     OW 4345   3.766  11.181   8.808
34169SOL    HW1 4346   3.703  11.243   8.772
34169SOL    HW2 4347   3.793  11.128   8.733
34170SOL     OW 4348   4.298  10.328  14.867
34170SOL    HW1 4349   4.256  10.414  14.877
34170SOL    HW2 4350   4.381  10.348  14.825
34171SOL     OW 4351  14.756   0.314   0.979
34171SOL    HW1 4352  14.743   0.401   0.942
34171SOL    HW2 4353  14.667   0.282   0.996
34172SOL     OW 4354  11.194  10.013  10.466
34172SOL    HW1 4355  11.246  10.091  10.484
34172SOL    HW2 4356  11.142  10.000  10.545
34173SOL     OW 4357   4.604  13.012   4.359
34173SOL    HW1 4358   4.646  12.975   4.436
34173SOL    HW2 4359   4.525  12.960   4.347
34174SOL     OW 4360  14.281   1.626  12.763
34174SOL    HW1 4361  14.194   1.598  12.734
34174SOL    HW2 4362  14.264   1.679  12.840
34175SOL     OW 4363   1.379   1.961  12.167
34175SOL    HW1 4364   1.434   2.038  12.183
34175SOL    HW2 4365   1.313   1.991  12.105
34176SOL     OW 4366   8.744   2.996   8.747
34176SOL    HW1 4367   8.735   3.010   8.841
34176SOL    HW2 4368   8.761   2.902   8.739
34177SOL     OW 4369   0.763  10.257   5.612
34177SOL    HW1 4370   0.813  10.285   5.536
34177SOL    HW2 4371   0.813  10.183   5.649
34178SOL     OW 4372  10.014   9.026   4.692
34178SOL    HW1 4373  10.036   8.934   4.708
34178SOL    HW2 4374   9.963   9.052   4.769
34179SOL     OW 4375   3.787   0.211   5.814
34179SOL    HW1 4376   3.761   0.123   5.785
34179SOL    HW2 4377   3.814   0.256   5.734
34180SOL     OW 4378   1.669   2.964  12.823
34180SOL    HW1 4379   1.706   2.921  12.746
34180SOL    HW2 4380   1.737   2.957  12.890
34181SOL     OW 4381   6.556   4.383  13.285
34181SOL    HW1 4382   6.492   4.397  13.215
34181SOL    HW2 4383   6.580   4.470  13.314
34182SOL     OW 4384  12.358   5.922  13.249
34182SOL    HW1 4385  12.401   5.875  13.177
34182SOL    HW2 4386  12.291   5.976  13.207
34183SOL     OW 4387  12.604   7.442   3.364
34183SOL    HW1 4388  12.615   7.537   3.366
34183SOL    HW2 4389  12.510   7.429   3.380
34184SOL     OW 4390   7.407  12.910   8.721
34184SOL    HW1 4391   7.403  12.914   8.625
34184SOL    HW2 4392   7.350  12.980   8.750
34185SOL     OW 4393   6.251   5.355   5.248
34185SOL    HW1 4394   6.288   5.338   5.161
34185SOL    HW2 4395   6.158   5.334   5.238
34186SOL     OW 4396  11.064  10.165   9.375
34186SOL    HW1 4397  10.993  10.221   9.404
34186SOL    HW2 4398  11.021  10.084   9.347
34187SOL     OW 4399   2.784   0.168  12.058
34187SOL    HW1 4400   2.695   0.200  12.076
34187SOL    HW2 4401   2.840   0.221  12.115
34188SOL     OW 4402  10.181  11.890   5.762
34188SOL    HW1 4403  10.277  11.888   5.764
34188SOL    HW2 4404  10.160  11.908   5.670
34189SOL     OW 4405  13.908   0.921   9.542
34189SOL    HW1 4406  13.839   0.978   9.575
34189SOL    HW2 4407  13.867   0.834   9.538
34190SOL     OW 4408  14.825  14.224  13.468
34190SOL    HW1 4409  14.870  14.162  13.525
34190SOL    HW2 4410  14.833  14.308  13.512
34191SOL     OW 4411  12.643   6.629   3.203
34191SOL    HW1 4412  12.677   6.711   3.168
34191SOL    HW2 4413  12.600   6.586   3.129
34192SOL     OW 4414   1.062  13.893   1.050
34192SOL    HW1 4415   1.021  13.919   1.133
34192SOL    HW2 4416   1.019  13.947   0.984
34193SOL     OW 4417  13.005  11.048  14.661
34193SOL    HW1 4418  13.031  11.057  14.569
34193SOL    HW2 4419  12.918  11.009  14.658
34194SOL     OW 4420   4.992   1.419   8.462
34194SOL    HW1 4421   4.897   1.424   8.454
34194SOL    HW2 4422   5.008   1.330   8.495
34195SOL     OW 4423   9.323  13.678   9.825
34195SOL    HW1 4424   9.247  13.619   9.819
34195SOL    HW2 4425   9.300  13.738   9.897
34196SOL     OW 4426   6.318   1.268   0.765
34196SOL    HW1 4427   6.348   1.178   0.753
34196SOL    HW2 4428   6.256   1.263   0.837
34197SOL     OW 4429   1.688   8.174  11.870
34197SOL    HW1 4430   1.738   8.226  11.932
34197SOL    HW2 4431   1.726   8.195  11.785
34198SOL     OW 4432   4.660  11.866   0.272
34198SOL    HW1 4433   4.672  11.836   0.362
34198SOL    HW2 4434   4.583  11.819   0.240
34199SOL     OW 4435  12.979   7.935  11.929
34199SOL    HW1 4436  13.045   7.987  11.883
34199SOL    HW2 4437  12.909   7.996  11.948
34200SOL     OW 4438   0.659   1.333  10.658
34200SOL    HW1 4439   0.745   1.352  10.622
34200SOL    HW2 4440   0.673   1.329  10.753
34201SOL     OW 4441  10.306   6.753   8.772
34201SOL    HW1 4442  10.232   6.768   8.831
34201SOL    HW2 4443  10.271   6.771   8.685
34202SOL     OW 4444  13.533   1.385   9.694
34202SOL    HW1 4445  13.494   1.467   9.724
34202SOL    HW2 4446  13.491   1.318   9.747
34203SOL     OW 4447   3.193  14.867   2.750
34203SOL    HW1 4448   3.191   0.077   2.714
34203SOL    HW2 4449   3.271  14.865   2.805
34204SOL     OW 4450   8.060   2.695   8.954
34204SOL    HW1 4451   8.079   2.702   9.048
34204SOL    HW2 4452   7.967   2.714   8.947
34205SOL     OW 4453   7.166   0.443   4.621
34205SOL    HW1 4454   7.191   0.519   4.569
34205SOL    HW2 4455   7.082   0.467   4.660
34206SOL     OW 4456   4.700   3.926   6.172
34206SOL    HW1 4457   4.746   3.976   6.239
34206SOL    HW2 4458   4.765   3.862   6.141
34207SOL     OW 4459   7.639   3.923   4.253
34207SOL    HW1 4460   7.683   3.992   4.303
34207SOL    HW2 4461   7.697   3.905   4.180
34208SOL     OW 4462   8.224   0.112   9.749
34208SOL    HW1 4463   8.288   0.167   9.795
34208SOL    HW2 4464   8.216   0.034   9.804
34209SOL     OW 4465  10.103   9.361   3.950
34209SOL    HW1 4466  10.179   9.416   3.970
34209SOL    HW2 4467  10.109   9.289   4.012
34210SOL     OW 4468   2.957  11.732   7.733
34210SOL    HW1 4469   3.017  11.684   7.677
34210SOL    HW2 4470   2.943  11.674   7.808
34211SOL     OW 4471   0.670   4.567  10.575
34211SOL    HW1 4472   0.627   4.483  10.591
34211SOL    HW2 4473   0.636   4.625  10.643
34212SOL     OW 4474   0.427   1.916  11.462
34212SOL    HW1 4475   0.522   1.902  11.455
34212SOL    HW2 4476   0.388   1.833  11.436
34213SOL     OW 4477  13.597   1.220   1.026
34213SOL    HW1 4478  13.685   1.219   1.063
34213SOL    HW2 4479  13.611   1.236   0.933
34214SOL     OW 4480   9.481   6.429  12.874
34214SOL    HW1 4481   9.426   6.504  12.849
34214SOL    HW2 4482   9.430   6.383  12.941
34215SOL     OW 4483  12.765   6.745   5.148
34215SOL    HW1 4484  12.746   6.683   5.078
34215SOL    HW2 4485  12.686   6.799   5.154
34216SOL     OW 4486   5.983  11.752  14.654
34216SOL    HW1 4487   5.985  11.794  14.569
34216SOL    HW2 4488   5.938  11.668  14.639
34217SOL     OW 4489   5.089  10.660   5.396
34217SOL    HW1 4490   5.062  10.569   5.405
34217SOL    HW2 4491   5.099  10.673   5.302
34218SOL     OW 4492  13.859   1.077  14.802
34218SOL    HW1 4493  13.817   0.995  14.776
34218SOL    HW2 4494  13.896   1.111  14.721
34219SOL     OW 4495  12.387   4.417  14.818
34219SOL    HW1 4496  12.327   4.433   0.012
34219SOL    HW2 4497  12.474   4.424  14.857
34220SOL     OW 4498   4.312  12.563   3.935
34220SOL    HW1 4499   4.331  12.486   3.881
34220SOL    HW2 4500   4.318  12.532   4.025
34221SOL     OW 4501   7.249   0.997   8.464
34221SOL    HW1 4502   7.160   0.962   8.461
34221SOL    HW2 4503   7.238   1.088   8.491
34222SOL     OW 4504   7.071   4.764   3.064
34222SOL    HW1 4505   7.014   4.837   3.088
34222SOL    HW2 4506   7.011   4.695   3.036
34223SOL     OW 4507  10.612  10.916   0.552
34223SOL    HW1 4508  10.629  11.001   0.592
34223SOL    HW2 4509  10.598  10.936   0.460
34224SOL     OW 4510   1.076  12.228   6.231
34224SOL    HW1 4511   1.005  12.248   6.171
34224SOL    HW2 4512   1.137  12.175   6.180
34225SOL     OW 4513   9.368   4.960   2.712
34225SOL    HW1 4514   9.360   4.882   2.658
34225SOL    HW2 4515   9.411   5.024   2.655
34226SOL     OW 4516  12.787   9.872  12.544
34226SOL    HW1 4517  12.765   9.804  12.608
34226SOL    HW2 4518  12.809   9.824  12.464
34227SOL     OW 4519  12.375   1.767   6.024
34227SOL    HW1 4520  12.397   1.754   6.116
34227SOL    HW2 4521  12.330   1.852   6.022
34228SOL     OW 4522   8.910   9.986   7.842
34228SOL    HW1 4523   8.854   9.982   7.920
34228SOL    HW2 4524   8.967  10.061   7.856
34229SOL     OW 4525   6.949   4.989   0.284
34229SOL    HW1 4526   6.932   4.914   0.228
34229SOL    HW2 4527   7.044   5.003   0.277
34230SOL     OW 4528   4.471   9.718  10.946
34230SOL    HW1 4529   4.442   9.772  11.020
34230SOL    HW2 4530   4.561   9.695  10.968
34231SOL     OW 4531   3.984  10.142   7.350
34231SOL    HW1 4532   3.915  10.134   7.416
34231SOL    HW2 4533   4.064  10.154   7.400
34232SOL     OW 4534   9.685   1.322   8.095
34232SOL    HW1 4535   9.617   1.345   8.158
34232SOL    HW2 4536   9.752   1.276   8.147
34233SOL     OW 4537   3.724   1.241   6.061
34233SOL    HW1 4538   3.641   1.280   6.088
34233SOL    HW2 4539   3.736   1.272   5.971
34234SOL     OW 4540   5.159  10.678  14.698
34234SOL    HW1 4541   5.225  10.646  14.637
34234SOL    HW2 4542   5.209  10.723  14.766
34235SOL     OW 4543   9.832   6.011   8.207
34235SOL    HW1 4544   9.850   5.920   8.181
34235SOL    HW2 4545   9.857   6.015   8.299
34236SOL     OW 4546   2.634  10.515   5.376
34236SOL    HW1 4547   2.675  10.503   5.290
34236SOL    HW2 4548   2.571  10.586   5.362
34237SOL     OW 4549   1.163   3.863   2.721
34237SOL    HW1 4550   1.085   3.823   2.682
34237SOL    HW2 4551   1.131   3.904   2.802
34238SOL     OW 4552  11.711   9.706  13.514
34238SOL    HW1 4553  11.721   9.614  13.490
34238SOL    HW2 4554  11.689   9.704  13.607
34239SOL     OW 4555  11.890   9.986   0.595
34239SOL    HW1 4556  11.900  10.033   0.512
34239SOL    HW2 4557  11.943  10.035   0.657
34240SOL     OW 4558  14.280   6.551  10.153
34240SOL    HW1 4559  14.290   6.566  10.247
34240SOL    HW2 4560  14.335   6.618  10.113
34241SOL     OW 4561  14.494   5.123   1.752
34241SOL    HW1 4562  14.547   5.124   1.673
34241SOL    HW2 4563  14.558   5.135   1.823
34242SOL     OW 4564   1.253   9.983  11.760
34242SOL    HW1 4565   1.338   9.958  11.723
34242SOL    HW2 4566   1.251  10.078  11.756
34243SOL     OW 4567  10.750   2.957   5.836
34243SOL    HW1 4568  10.707   2.927   5.916
34243SOL    HW2 4569  10.740   3.052   5.838
34244SOL     OW 4570   8.825   0.761  10.131
34244SOL    HW1 4571   8.763   0.813  10.182
34244SOL    HW2 4572   8.785   0.674  10.126
34245SOL     OW 4573   6.835   7.135   3.370
34245SOL    HW1 4574   6.916   7.169   3.331
34245SOL    HW2 4575   6.766   7.192   3.335
34246SOL     OW 4576  13.606  13.801  10.754
34246SOL    HW1 4577  13.641  13.878  10.798
34246SOL    HW2 4578  13.606  13.823  10.661
34247SOL     OW 4579   9.180   5.195  10.148
34247SOL    HW1 4580   9.096   5.224  10.184
34247SOL    HW2 4581   9.236   5.272  10.152
34248SOL     OW 4582   2.896   5.602   2.956
34248SOL    HW1 4583   2.825   5.541   2.934
34248SOL    HW2 4584   2.967   5.545   2.986
34249SOL     OW 4585   3.836  14.278  11.956
34249SOL    HW1 4586   3.850  14.183  11.953
34249SOL    HW2 4587   3.741  14.288  11.961
34250SOL     OW 4588  14.023  13.933   0.264
34250SOL    HW1 4589  13.936  13.962   0.295
34250SOL    HW2 4590  14.065  13.897   0.342
34251SOL     OW 4591   3.001  10.292   9.049
34251SOL    HW1 4592   3.080  10.313   9.000
34251SOL    HW2 4593   2.934  10.278   8.982
34252SOL     OW 4594   7.973   2.029   7.492
34252SOL    HW1 4595   7.937   2.106   7.536
34252SOL    HW2 4596   8.005   2.061   7.408
34253SOL     OW 4597  13.453   9.647   8.411
34253SOL    HW1 4598  13.427   9.563   8.450
34253SOL    HW2 4599  13.490   9.625   8.326
34254SOL     OW 4600   6.587   4.088   4.516
34254SOL    HW1 4601   6.616   4.121   4.601
34254SOL    HW2 4602   6.613   4.157   4.454
34255SOL     OW 4603   9.214   6.730   2.302
34255SOL    HW1 4604   9.227   6.790   2.375
34255SOL    HW2 4605   9.285   6.666   2.311
34256SOL     OW 4606   2.979   7.498   3.787
34256SOL    HW1 4607   2.895   7.543   3.781
34256SOL    HW2 4608   3.030   7.532   3.714
34257SOL     OW 4609   6.994   8.389   0.564
34257SOL    HW1 4610   6.938   8.327   0.516
34257SOL    HW2 4611   7.074   8.339   0.582
34258SOL     OW 4612   0.477   2.501  10.722
34258SOL    HW1 4613   0.425   2.427  10.689
34258SOL    HW2 4614   0.511   2.470  10.807
34259SOL     OW 4615   8.508   9.464   0.588
34259SOL    HW1 4616   8.532   9.531   0.651
34259SOL    HW2 4617   8.412   9.470   0.582
34260SOL     OW 4618  11.329   6.451   5.210
34260SOL    HW1 4619  11.318   6.492   5.124
34260SOL    HW2 4620  11.387   6.509   5.258
34261SOL     OW 4621   3.279  10.453  12.156
34261SOL    HW1 4622   3.245  10.424  12.241
34261SOL    HW2 4623   3.362  10.494  12.176
34262SOL     OW 4624   5.282   5.915   1.489
34262SOL    HW1 4625   5.358   5.974   1.483
34262SOL    HW2 4626   5.316   5.838   1.535
34263SOL     OW 4627  11.792   8.065   4.274
34263SOL    HW1 4628  11.736   8.093   4.202
34263SOL    HW2 4629  11.850   8.000   4.235
34264SOL     OW 4630   5.295   3.619  10.823
34264SOL    HW1 4631   5.312   3.551  10.759
34264SOL    HW2 4632   5.203   3.607  10.846
34265SOL     OW 4633   0.701   3.919   1.258
34265SOL    HW1 4634   0.710   3.969   1.177
34265SOL    HW2 4635   0.779   3.941   1.308
34266SOL     OW 4636  12.435   9.414   7.470
34266SOL    HW1 4637  12.494   9.339   7.477
34266SOL    HW2 4638  12.494   9.489   7.455
34267SOL     OW 4639  11.691  14.467   4.139
34267SOL    HW1 4640  11.675  14.540   4.079
34267SOL    HW2 4641  11.712  14.509   4.222
34268SOL     OW 4642  11.098  13.781  14.017
34268SOL    HW1 4643  11.105  13.845  13.946
34268SOL    HW2 4644  11.073  13.699  13.974
34269SOL     OW 4645  13.615   9.106   4.731
34269SOL    HW1 4646  13.546   9.089   4.795
34269SOL    HW2 4647  13.671   9.172   4.773
34270SOL     OW 4648   9.325  11.102  13.667
34270SOL    HW1 4649   9.415  11.082  13.694
34270SOL    HW2 4650   9.323  11.082  13.574
34271SOL     OW 4651  14.315  10.972   6.287
34271SOL    HW1 4652  14.312  11.063   6.318
34271SOL    HW2 4653  14.323  10.980   6.192
34272SOL     OW 4654   1.727   5.159   9.861
34272SOL    HW1 4655   1.770   5.245   9.852
34272SOL    HW2 4656   1.637   5.174   9.832
34273SOL     OW 4657   7.662   7.323  11.653
34273SOL    HW1 4658   7.585   7.274  11.681
34273SOL    HW2 4659   7.718   7.257  11.611
34274SOL     OW 4660   7.305   3.221   2.146
34274SOL    HW1 4661   7.214   3.243   2.167
34274SOL    HW2 4662   7.355   3.255   2.220
34275SOL     OW 4663  13.022  13.880   9.430
34275SOL    HW1 4664  12.940  13.835   9.451
34275SOL    HW2 4665  13.036  13.862   9.337
34276SOL     OW 4666   9.372   7.103   4.905
34276SOL    HW1 4667   9.292   7.079   4.952
34276SOL    HW2 4668   9.377   7.198   4.914
34277SOL     OW 4669   3.829  10.960   5.393
34277SOL    HW1 4670   3.861  11.049   5.406
34277SOL    HW2 4671   3.790  10.937   5.477
34278SOL     OW 4672  13.906   3.437  14.123
34278SOL    HW1 4673  13.930   3.530  14.115
34278SOL    HW2 4674  13.989   3.391  14.134
34279SOL     OW 4675   8.090   6.310   2.410
34279SOL    HW1 4676   8.058   6.399   2.424
34279SOL    HW2 4677   8.010   6.257   2.403
34280SOL     OW 4678   9.741   4.947   8.690
34280SOL    HW1 4679   9.757   5.027   8.640
34280SOL    HW2 4680   9.829   4.918   8.716
34281SOL     OW 4681   4.927  11.457   8.958
34281SOL    HW1 4682   4.837  11.469   8.926
34281SOL    HW2 4683   4.923  11.484   9.050
34282SOL     OW 4684   2.481  10.640   1.926
34282SOL    HW1 4685   2.474  10.735   1.926
34282SOL    HW2 4686   2.572  10.623   1.951
34283SOL     OW 4687   4.539   9.104  12.309
34283SOL    HW1 4688   4.621   9.107  12.260
34283SOL    HW2 4689   4.564   9.128  12.399
34284SOL     OW 4690  14.590  12.044  13.798
34284SOL    HW1 4691  14.538  11.972  13.762
34284SOL    HW2 4692  14.554  12.123  13.758
34285SOL     OW 4693  11.101  10.238   1.623
34285SOL    HW1 4694  11.113  10.214   1.715
34285SOL    HW2 4695  11.057  10.323   1.626
34286SOL     OW 4696   3.113  11.767  11.889
34286SOL    HW1 4697   3.056  11.771  11.965
34286SOL    HW2 4698   3.056  11.738  11.817
34287SOL     OW 4699  12.064   6.692   3.830
34287SOL    HW1 4700  12.058   6.677   3.736
34287SOL    HW2 4701  11.974   6.688   3.862
34288SOL     OW 4702   5.353   2.263   0.432
34288SOL    HW1 4703   5.384   2.225   0.350
34288SOL    HW2 4704   5.417   2.236   0.497
34289SOL     OW 4705   1.606   0.195   7.181
34289SOL    HW1 4706   1.618   0.167   7.272
34289SOL    HW2 4707   1.690   0.175   7.139
34290SOL     OW 4708   9.983   1.868  11.077
34290SOL    HW1 4709   9.919   1.893  11.144
34290SOL    HW2 4710  10.068   1.893  11.115
34291SOL     OW 4711   5.933   8.731   2.452
34291SOL    HW1 4712   5.990   8.780   2.393
34291SOL    HW2 4713   5.878   8.678   2.395
34292SOL     OW 4714   3.143   2.669   8.045
34292SOL    HW1 4715   3.085   2.724   7.993
34292SOL    HW2 4716   3.225   2.718   8.050
34293SOL     OW 4717   6.818  11.863   6.752
34293SOL    HW1 4718   6.880  11.899   6.816
34293SOL    HW2 4719   6.838  11.909   6.671
34294SOL     OW 4720   2.973   0.716  13.125
34294SOL    HW1 4721   2.892   0.694  13.081
34294SOL    HW2 4722   3.041   0.700  13.059
34295SOL     OW 4723   5.443   3.526   4.370
34295SOL    HW1 4724   5.397   3.498   4.449
34295SOL    HW2 4725   5.445   3.448   4.314
34296SOL     OW 4726   0.242  10.055  10.897
34296SOL    HW1 4727   0.188  10.118  10.849
34296SOL    HW2 4728   0.255  10.095  10.983
34297SOL     OW 4729  13.192  14.585   4.720
34297SOL    HW1 4730  13.269  14.637   4.742
34297SOL    HW2 4731  13.158  14.556   4.805
34298SOL     OW 4732   8.633   1.933  13.604
34298SOL    HW1 4733   8.580   1.911  13.527
34298SOL    HW2 4734   8.655   2.026  13.591
34299SOL     OW 4735  12.413   2.444   6.309
34299SOL    HW1 4736  12.456   2.383   6.369
34299SOL    HW2 4737  12.383   2.515   6.366
34300SOL     OW 4738   0.413   3.710  14.557
34300SOL    HW1 4739   0.425   3.805  14.545
34300SOL    HW2 4740   0.426   3.696  14.651
34301SOL     OW 4741   4.225   7.565   7.578
34301SOL    HW1 4742   4.211   7.522   7.663
34301SOL    HW2 4743   4.263   7.650   7.601
34302SOL     OW 4744  14.139  12.633   7.925
34302SOL    HW1 4745  14.177  12.667   8.006
34302SOL    HW2 4746  14.044  12.632   7.942
34303SOL     OW 4747   3.683   7.152   9.577
34303SOL    HW1 4748   3.760   7.096   9.585
34303SOL    HW2 4749   3.686   7.208   9.655
34304SOL     OW 4750  12.810   1.815  14.094
34304SOL    HW1 4751  12.811   1.761  14.173
34304SOL    HW2 4752  12.717   1.824  14.072
34305SOL     OW 4753   9.554   5.999   6.088
34305SOL    HW1 4754   9.505   5.935   6.141
34305SOL    HW2 4755   9.601   6.051   6.153
34306SOL     OW 4756  13.195  12.025   4.453
34306SOL    HW1 4757  13.137  11.975   4.396
34306SOL    HW2 4758  13.261  11.962   4.482
34307SOL     OW 4759   1.985   2.246   3.260
34307SOL    HW1 4760   2.048   2.277   3.325
34307SOL    HW2 4761   2.037   2.236   3.180
34308SOL     OW 4762   4.631  10.871  10.954
34308SOL    HW1 4763   4.706  10.817  10.933
34308SOL    HW2 4764   4.640  10.948  10.898
34309SOL     OW 4765  14.350   1.788   8.823
34309SOL    HW1 4766  14.258   1.813   8.810
34309SOL    HW2 4767  14.390   1.864   8.865
34310SOL     OW 4768  14.768   2.578   0.441
34310SOL    HW1 4769  14.747   2.644   0.376
34310SOL    HW2 4770  14.702   2.590   0.510
34311SOL     OW 4771   5.956  10.074   6.128
34311SOL    HW1 4772   5.909  10.156   6.114
34311SOL    HW2 4773   5.946  10.026   6.045
34312SOL     OW 4774   6.378   9.346   6.620
34312SOL    HW1 4775   6.395   9.265   6.571
34312SOL    HW2 4776   6.386   9.320   6.712
34313SOL     OW 4777  11.329   4.734  11.835
34313SOL    HW1 4778  11.320   4.812  11.889
34313SOL    HW2 4779  11.271   4.670  11.876
34314SOL     OW 4780   3.745   4.193   5.256
34314SOL    HW1 4781   3.810   4.149   5.201
34314SOL    HW2 4782   3.785   4.196   5.343
34315SOL     OW 4783   5.315   8.720   0.410
34315SOL    HW1 4784   5.357   8.636   0.392
34315SOL    HW2 4785   5.388   8.779   0.430
34316SOL     OW 4786   4.017   0.897   9.832
34316SOL    HW1 4787   4.026   0.841   9.754
34316SOL    HW2 4788   3.924   0.919   9.835
34317SOL     OW 4789   4.343   5.626   9.456
34317SOL    HW1 4790   4.365   5.547   9.506
34317SOL    HW2 4791   4.428   5.662   9.431
34318SOL     OW 4792   9.331   6.118   7.250
34318SOL    HW1 4793   9.356   6.026   7.247
34318SOL    HW2 4794   9.249   6.119   7.299
34319SOL     OW 4795   7.603  14.867   2.937
34319SOL    HW1 4796   7.657  14.791   2.958
34319SOL    HW2 4797   7.656   0.063   2.963
34320SOL     OW 4798  14.027  13.958  11.668
34320SOL    HW1 4799  14.055  14.048  11.682
34320SOL    HW2 4800  13.994  13.930  11.753
34321SOL     OW 4801   6.347   4.898   7.498
34321SOL    HW1 4802   6.290   4.942   7.435
34321SOL    HW2 4803   6.424   4.955   7.505
34322SOL     OW 4804   5.805   0.452   4.607
34322SOL    HW1 4805   5.777   0.360   4.602
34322SOL    HW2 4806   5.831   0.464   4.698
34323SOL     OW 4807   8.507  12.711   6.387
34323SOL    HW1 4808   8.462  12.784   6.344
34323SOL    HW2 4809   8.457  12.633   6.362
34324SOL     OW 4810  13.863   1.033  12.341
34324SOL    HW1 4811  13.843   1.126  12.330
34324SOL    HW2 4812  13.822   1.010  12.424
34325SOL     OW 4813   3.952  13.622   7.957
34325SOL    HW1 4814   3.884  13.646   7.894
34325SOL    HW2 4815   3.979  13.534   7.931
34326SOL     OW 4816   8.862   3.431   4.673
34326SOL    HW1 4817   8.921   3.505   4.685
34326SOL    HW2 4818   8.775   3.467   4.690
34327SOL     OW 4819   8.504   0.285   8.090
34327SOL    HW1 4820   8.573   0.219   8.100
34327SOL    HW2 4821   8.445   0.270   8.164
34328SOL     OW 4822   7.677   6.833  13.287
34328SOL    HW1 4823   7.691   6.823  13.193
34328SOL    HW2 4824   7.582   6.845  13.296
34329SOL     OW 4825   7.219   5.910   4.801
34329SOL    HW1 4826   7.209   5.922   4.895
34329SOL    HW2 4827   7.146   5.853   4.776
34330SOL     OW 4828   0.926  13.117  11.400
34330SOL    HW1 4829   0.894  13.038  11.355
34330SOL    HW2 4830   0.931  13.092  11.492
34331SOL     OW 4831   6.017   0.481   8.311
34331SOL    HW1 4832   6.017   0.575   8.290
34331SOL    HW2 4833   6.040   0.439   8.229
34332SOL     OW 4834   2.104  10.809   0.875
34332SOL    HW1 4835   2.121  10.904   0.876
34332SOL    HW2 4836   2.086  10.788   0.967
34333SOL     OW 4837  11.594   8.517   6.586
34333SOL    HW1 4838  11.520   8.577   6.577
34333SOL    HW2 4839  11.568   8.439   6.537
34334SOL     OW 4840   0.572   2.606   8.132
34334SOL    HW1 4841   0.503   2.545   8.156
34334SOL    HW2 4842   0.569   2.611   8.037
34335SOL     OW 4843   4.255   0.254  11.758
34335SOL    HW1 4844   4.346   0.281  11.744
34335SOL    HW2 4845   4.242   0.262  11.852
34336SOL     OW 4846  10.036  10.792   5.884
34336SOL    HW1 4847  10.054  10.721   5.946
34336SOL    HW2 4848   9.949  10.773   5.850
34337SOL     OW 4849   5.671  11.537  14.487
34337SOL    HW1 4850   5.663  11.597  14.413
34337SOL    HW2 4851   5.624  11.458  14.460
34338SOL     OW 4852   7.057  10.982   3.331
34338SOL    HW1 4853   7.146  10.998   3.362
34338SOL    HW2 4854   7.001  11.015   3.402
34339SOL     OW 4855  12.625   4.004   2.902
34339SOL    HW1 4856  12.618   4.050   2.818
34339SOL    HW2 4857  12.534   3.983   2.925
34340SOL     OW 4858   9.024   5.763   4.058
34340SOL    HW1 4859   9.026   5.671   4.034
34340SOL    HW2 4860   9.084   5.770   4.132
34341SOL     OW 4861  12.873  14.515  10.754
34341SOL    HW1 4862  12.888  14.542  10.844
34341SOL    HW2 4863  12.956  14.476  10.726
34342SOL     OW 4864  13.527   8.215   2.449
34342SOL    HW1 4865  13.622   8.203   2.440
34342SOL    HW2 4866  13.501   8.150   2.515
34343SOL     OW 4867   4.710   1.085   3.003
34343SOL    HW1 4868   4.631   1.069   3.054
34343SOL    HW2 4869   4.684   1.068   2.912
34344SOL     OW 4870   3.365  11.368  10.326
34344SOL    HW1 4871   3.325  11.393  10.409
34344SOL    HW2 4872   3.384  11.452  10.282
34345SOL     OW 4873   2.692   3.674   4.389
34345SOL    HW1 4874   2.612   3.708   4.350
34345SOL    HW2 4875   2.677   3.680   4.483
34346SOL     OW 4876  13.930   1.831   4.293
34346SOL    HW1 4877  13.947   1.748   4.336
34346SOL    HW2 4878  13.931   1.896   4.364
34347SOL     OW 4879   2.985   0.469  11.617
34347SOL    HW1 4880   2.895   0.480  11.588
34347SOL    HW2 4881   2.982   0.399  11.681
34348SOL     OW 4882  10.257  12.546  14.382
34348SOL    HW1 4883  10.255  12.476  14.446
34348SOL    HW2 4884  10.348  12.549  14.352
34349SOL     OW 4885   7.661   8.022  12.249
34349SOL    HW1 4886   7.610   8.011  12.329
34349SOL    HW2 4887   7.608   7.980  12.181
34350SOL     OW 4888  13.373   4.952   1.958
34350SOL    HW1 4889  13.329   5.009   1.895
34350SOL    HW2 4890  13.373   4.866   1.917
34351SOL     OW 4891   2.355   3.798   5.128
34351SOL    HW1 4892   2.340   3.722   5.183
34351SOL    HW2 4893   2.361   3.872   5.189
34352SOL     OW 4894   5.815  11.725   6.584
34352SOL    HW1 4895   5.864  11.717   6.502
34352SOL    HW2 4896   5.860  11.666   6.645
34353SOL     OW 4897  10.680   6.371  11.213
34353SOL    HW1 4898  10.678   6.456  11.171
34353SOL    HW2 4899  10.681   6.391  11.307
34354SOL     OW 4900   9.999  14.839   6.715
34354SOL    HW1 4901  10.067  14.780   6.746
34354SOL    HW2 4902  10.018  14.851   6.622
34355SOL     OW 4903  12.371   9.813   4.277
34355SOL    HW1 4904  12.389   9.863   4.197
34355SOL    HW2 4905  12.276   9.805   4.279
34356SOL     OW 4906   2.490  10.559   0.941
34356SOL    HW1 4907   2.447  10.516   0.867
34356SOL    HW2 4908   2.419  10.574   1.004
34357SOL     OW 4909  14.272   5.131   1.159
34357SOL    HW1 4910  14.359   5.166   1.139
34357SOL    HW2 4911  14.288   5.039   1.180
34358SOL     OW 4912   7.592   6.581   0.186
34358SOL    HW1 4913   7.590   6.576   0.282
34358SOL    HW2 4914   7.518   6.527   0.158
34359SOL     OW 4915   6.698   7.311   1.827
34359SOL    HW1 4916   6.669   7.219   1.822
34359SOL    HW2 4917   6.667   7.351   1.746
34360SOL     OW 4918   4.226   1.690  10.627
34360SOL    HW1 4919   4.255   1.720  10.541
34360SOL    HW2 4920   4.260   1.755  10.689
34361SOL     OW 4921   5.598   8.914   2.240
34361SOL    HW1 4922   5.627   9.004   2.224
34361SOL    HW2 4923   5.574   8.913   2.333
34362SOL     OW 4924  14.754   4.542   1.239
34362SOL    HW1 4925  14.779   4.510   1.326
34362SOL    HW2 4926  14.834   4.582   1.205
34363SOL     OW 4927  14.181   8.143  12.544
34363SOL    HW1 4928  14.233   8.072  12.581
34363SOL    HW2 4929  14.188   8.214  12.608
34364SOL     OW 4930   3.983   8.922   9.491
34364SOL    HW1 4931   3.975   9.009   9.451
34364SOL    HW2 4932   3.901   8.909   9.537
34365SOL     OW 4933   2.505  12.929   1.308
34365SOL    HW1 4934   2.566  12.961   1.241
34365SOL    HW2 4935   2.457  12.859   1.265
34366SOL     OW 4936   3.128  14.456   9.145
34366SOL    HW1 4937   3.048  14.474   9.194
34366SOL    HW2 4938   3.140  14.361   9.151
34367SOL     OW 4939  12.163  14.123   9.712
34367SOL    HW1 4940  12.127  14.211   9.721
34367SOL    HW2 4941  12.158  14.086   9.800
34368SOL     OW 4942  12.193   7.083   3.635
34368SOL    HW1 4943  12.213   7.084   3.542
34368SOL    HW2 4944  12.167   7.173   3.655
34369SOL     OW 4945  11.416   5.693   8.948
34369SOL    HW1 4946  11.338   5.639   8.930
34369SOL    HW2 4947  11.445   5.665   9.035
34370SOL     OW 4948   7.974   4.656   3.657
34370SOL    HW1 4949   8.025   4.606   3.720
34370SOL    HW2 4950   8.006   4.746   3.665
34371SOL     OW 4951   2.512   6.051   4.179
34371SOL    HW1 4952   2.484   5.960   4.185
34371SOL    HW2 4953   2.433   6.098   4.152
34372SOL     OW 4954   4.725   0.900   8.590
34372SOL    HW1 4955   4.667   0.965   8.629
34372SOL    HW2 4956   4.666   0.829   8.563
34373SOL     OW 4957  12.682   7.795   6.487
34373SOL    HW1 4958  12.713   7.765   6.402
34373SOL    HW2 4959  12.602   7.845   6.467
34374SOL     OW 4960   8.816  13.657   3.885
34374SOL    HW1 4961   8.805  13.634   3.977
34374SOL    HW2 4962   8.727  13.676   3.854
34375SOL     OW 4963   2.568  13.356  11.968
34375SOL    HW1 4964   2.512  13.413  11.915
34375SOL    HW2 4965   2.541  13.374  12.058
34376SOL     OW 4966   6.035  12.215   6.297
34376SOL    HW1 4967   6.026  12.194   6.204
34376SOL    HW2 4968   6.112  12.166   6.325
34377SOL     OW 4969   5.544   9.285   8.883
34377SOL    HW1 4970   5.601   9.214   8.853
34377SOL    HW2 4971   5.604   9.359   8.897
34378SOL     OW 4972   4.427   9.051  11.372
34378SOL    HW1 4973   4.368   8.984  11.407
34378SOL    HW2 4974   4.514   9.015  11.384
34379SOL     OW 4975   9.568   4.777  12.622
34379SOL    HW1 4976   9.592   4.740  12.707
34379SOL    HW2 4977   9.597   4.713  12.558
34380SOL     OW 4978   0.046   4.654   0.086
34380SOL    HW1 4979  14.860   4.699   0.032
34380SOL    HW2 4980   0.080   4.585   0.029
34381SOL     OW 4981  13.932   5.470  12.409
34381SOL    HW1 4982  13.892   5.393  12.449
34381SOL    HW2 4983  13.947   5.530  12.482
34382SOL     OW 4984   1.017   0.206   8.198
34382SOL    HW1 4985   1.096   0.185   8.247
34382SOL    HW2 4986   1.032   0.168   8.111
34383SOL     OW 4987   7.769   9.972  12.401
34383SOL    HW1 4988   7.848  10.018  12.430
34383SOL    HW2 4989   7.800   9.908  12.338
34384SOL     OW 4990  10.399   7.397  14.042
34384SOL    HW1 4991  10.397   7.393  14.138
34384SOL    HW2 4992  10.438   7.314  14.016
34385SOL     OW 4993   7.121   6.618   0.183
34385SOL    HW1 4994   7.048   6.568   0.148
34385SOL    HW2 4995   7.154   6.669   0.109
34386SOL     OW 4996   5.119   3.483  10.200
34386SOL    HW1 4997   5.168   3.415  10.153
34386SOL    HW2 4998   5.038   3.440  10.226
34387SOL     OW 4999  10.179   9.051   2.746
34387SOL    HW1 5000  10.219   9.065   2.660
34387SOL    HW2 5001  10.116   8.981   2.732
34388SOL     OW 5002   4.298   8.205   7.281
34388SOL    HW1 5003   4.233   8.271   7.303
34388SOL    HW2 5004   4.284   8.135   7.345
34389SOL     OW 5005   9.079   2.992  11.605
34389SOL    HW1 5006   9.140   3.065  11.618
34389SOL    HW2 5007   9.000   3.020  11.650
34390SOL     OW 5008   8.810   2.073  13.003
34390SOL    HW1 5009   8.745   2.117  13.058
34390SOL    HW2 5010   8.853   2.143  12.954
34391SOL     OW 5011  13.592   1.834   0.882
34391SOL    HW1 5012  13.516   1.888   0.906
34391SOL    HW2 5013  13.615   1.789   0.963
34392SOL     OW 5014   9.041   4.163  12.543
34392SOL    HW1 5015   8.970   4.196  12.598
34392SOL    HW2 5016   9.017   4.192  12.454
34393SOL     OW 5017  14.060  14.701   7.860
34393SOL    HW1 5018  14.062  14.652   7.778
34393SOL    HW2 5019  14.150  14.698   7.892
34394SOL     OW 5020   1.383   4.143   7.412
34394SOL    HW1 5021   1.462   4.089   7.412
34394SOL    HW2 5022   1.406   4.218   7.357
34395SOL     OW 5023   5.714   0.343   7.402
34395SOL    HW1 5024   5.808   0.337   7.421
34395SOL    HW2 5025   5.686   0.423   7.447
34396SOL     OW 5026   1.941  12.686   5.479
34396SOL    HW1 5027   1.986  12.770   5.473
34396SOL    HW2 5028   1.857  12.706   5.518
34397SOL     OW 5029  10.503   8.564   8.530
34397SOL    HW1 5030  10.547   8.592   8.450
34397SOL    HW2 5031  10.570   8.516   8.579
34398SOL     OW 5032  10.587   3.900   7.503
34398SOL    HW1 5033  10.657   3.871   7.443
34398SOL    HW2 5034  10.557   3.983   7.465
34399SOL     OW 5035   6.459   8.780   3.003
34399SOL    HW1 5036   6.521   8.739   2.943
34399SOL    HW2 5037   6.494   8.760   3.090
34400SOL     OW 5038   7.704   3.194  12.325
34400SOL    HW1 5039   7.749   3.176  12.242
34400SOL    HW2 5040   7.631   3.132  12.326
34401SOL     OW 5041   7.436  10.539   1.521
34401SOL    HW1 5042   7.404  10.501   1.603
34401SOL    HW2 5043   7.521  10.497   1.507
34402SOL     OW 5044   3.427  12.116   3.273
34402SOL    HW1 5045   3.448  12.149   3.361
34402SOL    HW2 5046   3.458  12.184   3.214
34403SOL     OW 5047   3.220  10.630   0.156
34403SOL    HW1 5048   3.189  10.622   0.247
34403SOL    HW2 5049   3.255  10.543   0.136
34404SOL     OW 5050   8.730   8.470  11.319
34404SOL    HW1 5051   8.808   8.525  11.320
34404SOL    HW2 5052   8.761   8.384  11.348
34405SOL     OW 5053   5.820   6.873  11.958
34405SOL    HW1 5054   5.729   6.842  11.952
34405SOL    HW2 5055   5.872   6.793  11.951
34406SOL     OW 5056   0.939   7.029  13.782
34406SOL    HW1 5057   0.952   7.030  13.687
34406SOL    HW2 5058   0.873   7.097  13.798
34407SOL     OW 5059  11.930   5.319   0.060
34407SOL    HW1 5060  11.873   5.342  14.866
34407SOL    HW2 5061  11.989   5.394   0.069
34408SOL     OW 5062   7.629  11.641  14.058
34408SOL    HW1 5063   7.552  11.641  14.115
34408SOL    HW2 5064   7.700  11.610  14.113
34409SOL     OW 5065   7.405   5.559   2.832
34409SOL    HW1 5066   7.450   5.480   2.861
34409SOL    HW2 5067   7.364   5.594   2.911
34410SOL     OW 5068  13.634   2.145  12.661
34410SOL    HW1 5069  13.615   2.238  12.672
34410SOL    HW2 5070  13.631   2.130  12.567
34411SOL     OW 5071   3.814   4.154   1.944
34411SOL    HW1 5072   3.777   4.232   1.986
34411SOL    HW2 5073   3.789   4.162   1.852
34412SOL     OW 5074   9.096   2.305   9.348
34412SOL    HW1 5075   9.161   2.323   9.280
34412SOL    HW2 5076   9.012   2.314   9.305
34413SOL     OW 5077  12.867   3.458  12.135
34413SOL    HW1 5078  12.878   3.547  12.168
34413SOL    HW2 5079  12.906   3.402  12.202
34414SOL     OW 5080   7.957  11.315   1.244
34414SOL    HW1 5081   7.899  11.359   1.306
34414SOL    HW2 5082   8.005  11.387   1.202
34415SOL     OW 5083  12.593   1.715   1.315
34415SOL    HW1 5084  12.646   1.759   1.381
34415SOL    HW2 5085  12.575   1.783   1.250
34416SOL     OW 5086   5.635   9.711  12.271
34416SOL    HW1 5087   5.608   9.620  12.265
34416SOL    HW2 5088   5.714   9.716  12.218
34417SOL     OW 5089  13.528  10.839   8.724
34417SOL    HW1 5090  13.575  10.780   8.783
34417SOL    HW2 5091  13.528  10.794   8.640
34418SOL     OW 5092  11.531   1.363   5.138
34418SOL    HW1 5093  11.595   1.304   5.178
34418SOL    HW2 5094  11.517   1.431   5.203
34419SOL     OW 5095   2.875  14.201   4.134
34419SOL    HW1 5096   2.949  14.250   4.098
34419SOL    HW2 5097   2.798  14.252   4.108
34420SOL     OW 5098   6.809   3.022   2.033
34420SOL    HW1 5099   6.762   2.963   2.091
34420SOL    HW2 5100   6.743   3.056   1.973
34421SOL     OW 5101   9.914   0.784  12.615
34421SOL    HW1 5102   9.900   0.719  12.546
34421SOL    HW2 5103   9.852   0.854  12.595
34422SOL     OW 5104   5.358   4.066   1.394
34422SOL    HW1 5105   5.351   4.159   1.371
34422SOL    HW2 5106   5.438   4.060   1.446
34423SOL     OW 5107   5.510  14.637   9.835
34423SOL    HW1 5108   5.442  14.698   9.863
34423SOL    HW2 5109   5.573  14.691   9.787
34424SOL     OW 5110   1.375  10.333   2.769
34424SOL    HW1 5111   1.382  10.254   2.716
34424SOL    HW2 5112   1.446  10.327   2.832
34425SOL     OW 5113   8.346   7.892  13.943
34425SOL    HW1 5114   8.370   7.975  13.983
34425SOL    HW2 5115   8.294   7.916  13.867
34426SOL     OW 5116  11.297   4.988   8.596
34426SOL    HW1 5117  11.292   4.913   8.655
34426SOL    HW2 5118  11.207   5.021   8.591
34427SOL     OW 5119   3.331  13.913  10.149
34427SOL    HW1 5120   3.418  13.909  10.189
34427SOL    HW2 5121   3.347  13.910  10.055
34428SOL     OW 5122  11.170  14.665   1.632
34428SOL    HW1 5123  11.094  14.655   1.575
34428SOL    HW2 5124  11.215  14.581   1.628
34429SOL     OW 5125   8.801  10.023   0.435
34429SOL    HW1 5126   8.761  10.098   0.390
34429SOL    HW2 5127   8.895  10.030   0.415
34430SOL     OW 5128   7.332   5.672   5.776
34430SOL    HW1 5129   7.392   5.610   5.735
34430SOL    HW2 5130   7.256   5.619   5.801
34431SOL     OW 5131   9.219  11.215   2.487
34431SOL    HW1 5132   9.248  11.164   2.563
34431SOL    HW2 5133   9.165  11.153   2.437
34432SOL     OW 5134   3.001   1.219   4.359
34432SOL    HW1 5135   3.077   1.192   4.307
34432SOL    HW2 5136   3.038   1.276   4.426
34433SOL     OW 5137  13.308   5.172   2.244
34433SOL    HW1 5138  13.267   5.229   2.309
34433SOL    HW2 5139  13.243   5.162   2.175
34434SOL     OW 5140   1.939   3.686   4.428
34434SOL    HW1 5141   1.969   3.629   4.498
34434SOL    HW2 5142   1.883   3.750   4.471
34435SOL     OW 5143   4.291   6.948   6.936
34435SOL    HW1 5144   4.355   6.925   7.004
34435SOL    HW2 5145   4.343   6.993   6.869
34436SOL     OW 5146  13.642   4.631  13.573
34436SOL    HW1 5147  13.556   4.591  13.589
34436SOL    HW2 5148  13.672   4.658  13.660
34437SOL     OW 5149   6.486  10.013   8.575
34437SOL    HW1 5150   6.427  10.034   8.648
34437SOL    HW2 5151   6.467  10.080   8.509
34438SOL     OW 5152   6.430  10.952   4.278
34438SOL    HW1 5153   6.478  10.893   4.219
34438SOL    HW2 5154   6.489  10.965   4.352
34439SOL     OW 5155   3.450   8.133  14.145
34439SOL    HW1 5156   3.484   8.050  14.112
34439SOL    HW2 5157   3.378   8.109  14.203
34440SOL     OW 5158  12.658   3.023  12.865
34440SOL    HW1 5159  12.689   2.939  12.833
34440SOL    HW2 5160  12.563   3.020  12.856
34441SOL     OW 5161   0.310   0.856   6.298
34441SOL    HW1 5162   0.219   0.842   6.271
34441SOL    HW2 5163   0.352   0.770   6.285
34442SOL     OW 5164   1.666   4.113  12.263
34442SOL    HW1 5165   1.597   4.048  12.247
34442SOL    HW2 5166   1.674   4.116  12.359
34443SOL     OW 5167   6.166  14.659  10.341
34443SOL    HW1 5168   6.179  14.692  10.430
34443SOL    HW2 5169   6.077  14.685  10.318
34444SOL     OW 5170   0.169   2.966   2.704
34444SOL    HW1 5171   0.144   3.037   2.644
34444SOL    HW2 5172   0.225   2.909   2.652
34445SOL     OW 5173  12.982  14.662  12.127
34445SOL    HW1 5174  12.941  14.576  12.122
34445SOL    HW2 5175  12.915  14.723  12.096
34446SOL     OW 5176  10.761   8.082   1.744
34446SOL    HW1 5177  10.713   8.039   1.673
34446SOL    HW2 5178  10.755   8.175   1.723
34447SOL     OW 5179   9.612  11.887   4.536
34447SOL    HW1 5180   9.595  11.881   4.630
34447SOL    HW2 5181   9.689  11.832   4.522
34448SOL     OW 5182   7.316   7.755   2.311
34448SOL    HW1 5183   7.388   7.772   2.250
34448SOL    HW2 5184   7.350   7.782   2.396
34449SOL     OW 5185   9.576   3.719  12.105
34449SOL    HW1 5186   9.553   3.786  12.041
34449SOL    HW2 5187   9.502   3.659  12.105
34450SOL     OW 5188   6.402  11.720   9.001
34450SOL    HW1 5189   6.457  11.657   9.047
34450SOL    HW2 5190   6.348  11.760   9.069
34451SOL     OW 5191   4.428   0.669  12.735
34451SOL    HW1 5192   4.347   0.720  12.729
34451SOL    HW2 5193   4.430   0.638  12.825
34452SOL     OW 5194   2.624   4.988  10.575
34452SOL    HW1 5195   2.573   4.907  10.562
34452SOL    HW2 5196   2.645   4.988  10.668
34453SOL     OW 5197   3.250   1.397   4.040
34453SOL    HW1 5198   3.222   1.427   4.127
34453SOL    HW2 5199   3.195   1.445   3.979
34454SOL     OW 5200  11.456   9.296  14.440
34454SOL    HW1 5201  11.519   9.225  14.449
34454SOL    HW2 5202  11.379   9.266  14.490
34455SOL     OW 5203   2.435   6.734  10.405
34455SOL    HW1 5204   2.348   6.771  10.419
34455SOL    HW2 5205   2.494   6.799  10.444
34456SOL     OW 5206   2.755   5.204   9.895
34456SOL    HW1 5207   2.838   5.196   9.847
34456SOL    HW2 5208   2.772   5.157   9.977
34457SOL     OW 5209  11.278   0.376  13.664
34457SOL    HW1 5210  11.253   0.464  13.692
34457SOL    HW2 5211  11.239   0.367  13.577
34458SOL     OW 5212   0.144   4.610   4.115
34458SOL    HW1 5213   0.108   4.542   4.171
34458SOL    HW2 5214   0.206   4.565   4.058
34459SOL     OW 5215  14.224   4.138   1.842
34459SOL    HW1 5216  14.203   4.209   1.903
34459SOL    HW2 5217  14.259   4.183   1.765
34460SOL     OW 5218   9.000  11.669   2.763
34460SOL    HW1 5219   9.069  11.603   2.755
34460SOL    HW2 5220   8.926  11.633   2.715
34461SOL     OW 5221  12.439   4.316  13.836
34461SOL    HW1 5222  12.484   4.358  13.763
34461SOL    HW2 5223  12.488   4.344  13.914
34462SOL     OW 5224  10.762   7.152   0.056
34462SOL    HW1 5225  10.722   7.066   0.070
34462SOL    HW2 5226  10.749   7.198   0.139
34463SOL     OW 5227   8.886   0.500  10.608
34463SOL    HW1 5228   8.910   0.555  10.683
34463SOL    HW2 5229   8.808   0.543  10.572
34464SOL     OW 5230   2.155  14.595  14.054
34464SOL    HW1 5231   2.183  14.631  13.970
34464SOL    HW2 5232   2.207  14.642  14.119
34465SOL     OW 5233   7.208   5.427  10.268
34465SOL    HW1 5234   7.169   5.345  10.237
34465SOL    HW2 5235   7.134   5.477  10.302
34466SOL     OW 5236   5.832   6.172  10.225
34466SOL    HW1 5237   5.849   6.221  10.145
34466SOL    HW2 5238   5.914   6.126  10.243
34467SOL     OW 5239   5.204   0.746   7.740
34467SOL    HW1 5240   5.291   0.727   7.704
34467SOL    HW2 5241   5.152   0.667   7.722
34468SOL     OW 5242   7.648  12.008  12.919
34468SOL    HW1 5243   7.667  12.096  12.887
34468SOL    HW2 5244   7.560  12.014  12.956
34469SOL     OW 5245   0.216  11.838  10.511
34469SOL    HW1 5246   0.133  11.831  10.464
34469SOL    HW2 5247   0.241  11.930  10.502
34470SOL     OW 5248   5.555   9.452   2.237
34470SOL    HW1 5249   5.485   9.390   2.254
34470SOL    HW2 5250   5.517   9.514   2.174
34471SOL     OW 5251  13.701   9.651   9.092
34471SOL    HW1 5252  13.750   9.579   9.132
34471SOL    HW2 5253  13.768   9.715   9.068
34472SOL     OW 5254  11.688  11.997   4.939
34472SOL    HW1 5255  11.692  11.905   4.912
34472SOL    HW2 5256  11.595  12.018   4.941
34473SOL     OW 5257   6.209  12.673   3.668
34473SOL    HW1 5258   6.188  12.737   3.600
34473SOL    HW2 5259   6.174  12.711   3.748
34474SOL     OW 5260  12.645   3.380   7.022
34474SOL    HW1 5261  12.740   3.368   7.024
34474SOL    HW2 5262  12.619   3.355   6.933
34475SOL     OW 5263   2.146   0.628   4.600
34475SOL    HW1 5264   2.053   0.649   4.596
34475SOL    HW2 5265   2.150   0.535   4.577
34476SOL     OW 5266   6.954  11.433   3.844
34476SOL    HW1 5267   6.918  11.426   3.932
34476SOL    HW2 5268   6.880  11.413   3.786
34477SOL     OW 5269   0.847   5.046   5.420
34477SOL    HW1 5270   0.854   4.986   5.345
34477SOL    HW2 5271   0.930   5.093   5.420
34478SOL     OW 5272   5.874   3.902   7.478
34478SOL    HW1 5273   5.854   3.854   7.398
34478SOL    HW2 5274   5.968   3.889   7.492
34479SOL     OW 5275   0.009  13.822   1.723
34479SOL    HW1 5276  14.814  13.792   1.774
34479SOL    HW2 5277   0.079  13.834   1.787
34480SOL     OW 5278   6.790   5.358  10.784
34480SOL    HW1 5279   6.798   5.446  10.818
34480SOL    HW2 5280   6.863   5.310  10.823
34481SOL     OW 5281  14.766  10.359   9.578
34481SOL    HW1 5282  14.793  10.428   9.519
34481SOL    HW2 5283  14.769  10.279   9.525
34482SOL     OW 5284  11.169   5.475   8.013
34482SOL    HW1 5285  11.080   5.445   7.998
34482SOL    HW2 5286  11.214   5.459   7.930
34483SOL     OW 5287   7.192   2.499  11.604
34483SOL    HW1 5288   7.210   2.548  11.524
34483SOL    HW2 5289   7.135   2.557  11.655
34484SOL     OW 5290   2.183  11.671  14.484
34484SOL    HW1 5291   2.147  11.759  14.478
34484SOL    HW2 5292   2.178  11.637  14.394
34485SOL     OW 5293   6.124  14.280  12.811
34485SOL    HW1 5294   6.063  14.250  12.878
34485SOL    HW2 5295   6.207  14.291  12.858
34486SOL     OW 5296   9.906   4.551   3.065
34486SOL    HW1 5297   9.883   4.594   3.147
34486SOL    HW2 5298   9.914   4.459   3.088
34487SOL     OW 5299   2.885  10.587   7.157
34487SOL    HW1 5300   2.957  10.558   7.213
34487SOL    HW2 5301   2.851  10.665   7.199
34488SOL     OW 5302   6.596  12.647   5.299
34488SOL    HW1 5303   6.534  12.679   5.366
34488SOL    HW2 5304   6.541  12.598   5.238
34489SOL     OW 5305   2.980   5.872  10.034
34489SOL    HW1 5306   3.029   5.951  10.056
34489SOL    HW2 5307   3.041   5.819   9.983
34490SOL     OW 5308   3.832   6.974   5.668
34490SOL    HW1 5309   3.861   7.013   5.586
34490SOL    HW2 5310   3.743   6.942   5.650
34491SOL     OW 5311   8.343   3.125   0.742
34491SOL    HW1 5312   8.285   3.096   0.813
34491SOL    HW2 5313   8.421   3.071   0.752
34492SOL     OW 5314  11.721   2.677   6.160
34492SOL    HW1 5315  11.756   2.766   6.162
34492SOL    HW2 5316  11.626   2.689   6.169
34493SOL     OW 5317   7.919   7.720   3.110
34493SOL    HW1 5318   7.998   7.673   3.084
34493SOL    HW2 5319   7.950   7.800   3.150
34494SOL     OW 5320   3.067   4.675  12.910
34494SOL    HW1 5321   3.022   4.711  12.834
34494SOL    HW2 5322   3.118   4.602  12.875
34495SOL     OW 5323  12.604  11.158   8.988
34495SOL    HW1 5324  12.587  11.149   9.082
34495SOL    HW2 5325  12.536  11.105   8.946
34496SOL     OW 5326  13.552   0.202   2.103
34496SOL    HW1 5327  13.460   0.209   2.080
34496SOL    HW2 5328  13.593   0.280   2.063
34497SOL     OW 5329  10.586   6.809  12.083
34497SOL    HW1 5330  10.680   6.824  12.090
34497SOL    HW2 5331  10.548   6.864  12.151
34498SOL     OW 5332   4.255   6.173   8.763
34498SOL    HW1 5333   4.203   6.195   8.841
34498SOL    HW2 5334   4.292   6.087   8.782
34499SOL     OW 5335   6.194  10.549   5.513
34499SOL    HW1 5336   6.224  10.537   5.424
34499SOL    HW2 5337   6.129  10.619   5.507
34500SOL     OW 5338  11.211   1.303  11.244
34500SOL    HW1 5339  11.180   1.234  11.187
34500SOL    HW2 5340  11.131   1.344  11.279
34501SOL     OW 5341   9.567   2.268   4.450
34501SOL    HW1 5342   9.624   2.223   4.387
34501SOL    HW2 5343   9.604   2.247   4.536
34502SOL     OW 5344   3.899  11.999   9.243
34502SOL    HW1 5345   3.847  12.019   9.165
34502SOL    HW2 5346   3.871  11.911   9.268
34503SOL     OW 5347  10.918   9.019   4.011
34503SOL    HW1 5348  10.913   8.928   4.040
34503SOL    HW2 5349  11.005   9.027   3.974
34504SOL     OW 5350  13.680   7.415   9.219
34504SOL    HW1 5351  13.632   7.388   9.298
34504SOL    HW2 5352  13.648   7.357   9.150
34505SOL     OW 5353   6.473   3.495   5.063
34505SOL    HW1 5354   6.422   3.467   5.139
34505SOL    HW2 5355   6.562   3.465   5.081
34506SOL     OW 5356   2.895   5.026   5.309
34506SOL    HW1 5357   2.801   5.045   5.309
34506SOL    HW2 5358   2.935   5.101   5.264
34507SOL     OW 5359  14.312   7.444   0.739
34507SOL    HW1 5360  14.312   7.351   0.760
34507SOL    HW2 5361  14.256   7.483   0.807
34508SOL     OW 5362   4.366  10.393   7.096
34508SOL    HW1 5363   4.435  10.395   7.029
34508SOL    HW2 5364   4.324  10.308   7.085
34509SOL     OW 5365   4.845   6.969   9.126
34509SOL    HW1 5366   4.849   6.876   9.102
34509SOL    HW2 5367   4.753   6.985   9.148
34510SOL     OW 5368   4.309  11.917   0.460
34510SOL    HW1 5369   4.223  11.898   0.422
34510SOL    HW2 5370   4.371  11.894   0.391
34511SOL     OW 5371   8.336   1.577   0.211
34511SOL    HW1 5372   8.286   1.551   0.134
34511SOL    HW2 5373   8.352   1.671   0.198
34512SOL     OW 5374  12.649   1.181   5.048
34512SOL    HW1 5375  12.602   1.237   5.109
34512SOL    HW2 5376  12.615   1.204   4.962
34513SOL     OW 5377   9.894   3.356  11.007
34513SOL    HW1 5378   9.949   3.387  10.935
34513SOL    HW2 5379   9.934   3.395  11.085
34514SOL     OW 5380   3.278   0.992  10.515
34514SOL    HW1 5381   3.188   0.959  10.516
34514SOL    HW2 5382   3.316   0.955  10.435
34515SOL     OW 5383   0.533  12.909   0.332
34515SOL    HW1 5384   0.475  12.983   0.349
34515SOL    HW2 5385   0.573  12.929   0.247
34516SOL     OW 5386  12.543   9.982   0.292
34516SOL    HW1 5387  12.447   9.975   0.296
34516SOL    HW2 5388  12.565  10.049   0.357
34517SOL     OW 5389   9.600   4.174   9.984
34517SOL    HW1 5390   9.643   4.102   9.938
34517SOL    HW2 5391   9.585   4.240   9.916
34518SOL     OW 5392   1.595  12.451   4.675
34518SOL    HW1 5393   1.612  12.532   4.626
34518SOL    HW2 5394   1.557  12.481   4.757
34519SOL     OW 5395   4.699  12.967  13.366
34519SOL    HW1 5396   4.713  13.060  13.380
34519SOL    HW2 5397   4.633  12.963  13.296
34520SOL     OW 5398   0.927  10.137   6.992
34520SOL    HW1 5399   0.982  10.148   6.915
34520SOL    HW2 5400   0.847  10.097   6.958
34521SOL     OW 5401   4.619   2.275   7.990
34521SOL    HW1 5402   4.605   2.270   7.895
34521SOL    HW2 5403   4.654   2.363   8.005
34522SOL     OW 5404   4.304  11.114   0.729
34522SOL    HW1 5405   4.388  11.122   0.684
34522SOL    HW2 5406   4.264  11.035   0.693
34523SOL     OW 5407  14.645  12.785   7.619
34523SOL    HW1 5408  14.631  12.691   7.622
34523SOL    HW2 5409  14.624  12.810   7.529
34524SOL     OW 5410   0.315   7.212   7.120
34524SOL    HW1 5411   0.301   7.250   7.206
34524SOL    HW2 5412   0.410   7.206   7.112
34525SOL     OW 5413   1.151  14.098   6.802
34525SOL    HW1 5414   1.128  14.103   6.895
34525SOL    HW2 5415   1.116  14.179   6.764
34526SOL     OW 5416   6.028  11.730   2.465
34526SOL    HW1 5417   6.087  11.777   2.525
34526SOL    HW2 5418   5.940  11.758   2.492
34527SOL     OW 5419  10.955   6.892   6.521
34527SOL    HW1 5420  10.977   6.966   6.577
34527SOL    HW2 5421  10.881   6.922   6.469
34528SOL     OW 5422   4.567  12.107   2.314
34528SOL    HW1 5423   4.539  12.074   2.228
34528SOL    HW2 5424   4.651  12.148   2.298
34529SOL     OW 5425   9.628   7.579  13.920
34529SOL    HW1 5426   9.534   7.565  13.911
34529SOL    HW2 5427   9.642   7.585  14.015
34530SOL     OW 5428   1.953   5.327   9.229
34530SOL    HW1 5429   2.045   5.354   9.222
34530SOL    HW2 5430   1.926   5.309   9.139
34531SOL     OW 5431   2.267  11.254   8.780
34531SOL    HW1 5432   2.194  11.278   8.723
34531SOL    HW2 5433   2.343  11.249   8.722
34532SOL     OW 5434  13.648   7.892   7.422
34532SOL    HW1 5435  13.735   7.918   7.393
34532SOL    HW2 5436  13.620   7.960   7.483
34533SOL     OW 5437   6.063   7.441   4.881
34533SOL    HW1 5438   6.142   7.473   4.927
34533SOL    HW2 5439   6.026   7.377   4.941
34534SOL     OW 5440   9.623  11.067   9.916
34534SOL    HW1 5441   9.573  10.987   9.932
34534SOL    HW2 5442   9.567  11.119   9.858
34535SOL     OW 5443   7.407   4.573  10.881
34535SOL    HW1 5444   7.440   4.583  10.970
34535SOL    HW2 5445   7.384   4.662  10.853
34536SOL     OW 5446   8.571  13.318   7.294
34536SOL    HW1 5447   8.486  13.278   7.276
34536SOL    HW2 5448   8.633  13.269   7.241
34537SOL     OW 5449   6.962  11.049   0.288
34537SOL    HW1 5450   7.012  11.131   0.288
34537SOL    HW2 5451   6.968  11.017   0.378
34538SOL     OW 5452  10.471   3.774   0.285
34538SOL    HW1 5453  10.400   3.808   0.340
34538SOL    HW2 5454  10.427   3.727   0.215
34539SOL     OW 5455  10.468   5.402  14.236
34539SOL    HW1 5456  10.482   5.358  14.152
34539SOL    HW2 5457  10.490   5.335  14.301
34540SOL     OW 5458   4.465  14.154   8.526
34540SOL    HW1 5459   4.393  14.095   8.502
34540SOL    HW2 5460   4.495  14.190   8.442
34541SOL     OW 5461   4.514   4.359   2.256
34541SOL    HW1 5462   4.577   4.425   2.284
34541SOL    HW2 5463   4.446   4.409   2.210
34542SOL     OW 5464  12.892   8.986   6.335
34542SOL    HW1 5465  12.843   8.905   6.322
34542SOL    HW2 5466  12.901   8.994   6.430
34543SOL     OW 5467  14.636   1.018   8.036
34543SOL    HW1 5468  14.718   1.062   8.014
34543SOL    HW2 5469  14.569   1.066   7.988
34544SOL     OW 5470   3.186  11.288  13.358
34544SOL    HW1 5471   3.121  11.280  13.428
34544SOL    HW2 5472   3.173  11.210  13.305
34545SOL     OW 5473   3.015   8.481   4.068
34545SOL    HW1 5474   2.971   8.445   3.990
34545SOL    HW2 5475   3.078   8.414   4.093
34546SOL     OW 5476  14.655   0.709   3.542
34546SOL    HW1 5477  14.711   0.757   3.602
34546SOL    HW2 5478  14.576   0.763   3.534
34547SOL     OW 5479  13.811   3.427   6.187
34547SOL    HW1 5480  13.906   3.432   6.197
34547SOL    HW2 5481  13.791   3.334   6.201
34548SOL     OW 5482   6.372   1.101  13.136
34548SOL    HW1 5483   6.424   1.051  13.073
34548SOL    HW2 5484   6.411   1.082  13.221
34549SOL     OW 5485   7.499   5.644  13.638
34549SOL    HW1 5486   7.588   5.646  13.673
34549SOL    HW2 5487   7.444   5.668  13.713
34550SOL     OW 5488  13.238   0.888  10.771
34550SOL    HW1 5489  13.182   0.877  10.694
34550SOL    HW2 5490  13.265   0.799  10.794
34551SOL     OW 5491   7.867   6.355   4.127
34551SOL    HW1 5492   7.783   6.319   4.156
34551SOL    HW2 5493   7.887   6.307   4.047
34552SOL     OW 5494   3.054   7.317   2.632
34552SOL    HW1 5495   3.115   7.298   2.703
34552SOL    HW2 5496   2.972   7.277   2.659
34553SOL     OW 5497   7.692   1.151   1.397
34553SOL    HW1 5498   7.669   1.242   1.379
34553SOL    HW2 5499   7.719   1.116   1.312
34554SOL     OW 5500  13.221   3.595   1.293
34554SOL    HW1 5501  13.270   3.590   1.375
34554SOL    HW2 5502  13.166   3.673   1.303
34555SOL     OW 5503   5.112  11.865   7.029
34555SOL    HW1 5504   5.167  11.927   7.077
34555SOL    HW2 5505   5.116  11.894   6.938
34556SOL     OW 5506   9.114   4.138  13.823
34556SOL    HW1 5507   9.090   4.222  13.784
34556SOL    HW2 5508   9.037   4.111  13.872
34557SOL     OW 5509  10.731   6.581   5.968
34557SOL    HW1 5510  10.708   6.492   5.940
34557SOL    HW2 5511  10.690   6.591   6.054
34558SOL     OW 5512   9.709  10.395   9.220
34558SOL    HW1 5513   9.709  10.347   9.138
34558SOL    HW2 5514   9.800  10.391   9.251
34559SOL     OW 5515  13.571  10.077   7.776
34559SOL    HW1 5516  13.612  10.160   7.801
34559SOL    HW2 5517  13.642  10.013   7.781
34560SOL     OW 5518  14.754  12.223  14.420
34560SOL    HW1 5519  14.664  12.235  14.390
34560SOL    HW2 5520  14.758  12.133  14.450
34561SOL     OW 5521  14.460   0.532  12.331
34561SOL    HW1 5522  14.412   0.501  12.254
34561SOL    HW2 5523  14.416   0.491  12.405
34562SOL     OW 5524   7.405   6.741  10.515
34562SOL    HW1 5525   7.435   6.666  10.464
34562SOL    HW2 5526   7.445   6.817  10.472
34563SOL     OW 5527  14.725   5.048   6.548
34563SOL    HW1 5528  14.657   5.094   6.598
34563SOL    HW2 5529  14.683   4.966   6.522
34564SOL     OW 5530   4.151   3.942   3.534
34564SOL    HW1 5531   4.141   4.021   3.480
34564SOL    HW2 5532   4.222   3.893   3.493
34565SOL     OW 5533   1.733  12.710   9.882
34565SOL    HW1 5534   1.799  12.749   9.938
34565SOL    HW2 5535   1.652  12.757   9.904
34566SOL     OW 5536   9.942  11.150   6.541
34566SOL    HW1 5537   9.944  11.114   6.453
34566SOL    HW2 5538   9.849  11.157   6.563
34567SOL     OW 5539   2.075   3.590  10.000
34567SOL    HW1 5540   2.107   3.515   9.950
34567SOL    HW2 5541   2.011   3.632   9.943
34568SOL     OW 5542   9.519  13.783   7.334
34568SOL    HW1 5543   9.585  13.806   7.268
34568SOL    HW2 5544   9.443  13.835   7.312
34569SOL     OW 5545   9.116  13.499  10.365
34569SOL    HW1 5546   9.033  13.471  10.403
34569SOL    HW2 5547   9.147  13.422  10.317
34570SOL     OW 5548  14.631  10.009   1.509
34570SOL    HW1 5549  14.687   9.944   1.552
34570SOL    HW2 5550  14.640  10.087   1.564
34571SOL     OW 5551   6.503  14.566   2.049
34571SOL    HW1 5552   6.590  14.594   2.075
34571SOL    HW2 5553   6.466  14.642   2.004
34572SOL     OW 5554  12.211   4.720  13.939
34572SOL    HW1 5555  12.169   4.748  14.020
34572SOL    HW2 5556  12.162   4.765  13.870
34573SOL     OW 5557  14.495  13.831  13.796
34573SOL    HW1 5558  14.469  13.805  13.885
34573SOL    HW2 5559  14.418  13.875  13.761
34574SOL     OW 5560  10.379   5.552   5.373
34574SOL    HW1 5561  10.364   5.579   5.282
34574SOL    HW2 5562  10.474   5.545   5.380
34575SOL     OW 5563  13.443  12.268   2.177
34575SOL    HW1 5564  13.504  12.291   2.248
34575SOL    HW2 5565  13.369  12.327   2.191
34576SOL     OW 5566  14.534   6.574  11.455
34576SOL    HW1 5567  14.520   6.513  11.528
34576SOL    HW2 5568  14.529   6.519  11.377
34577SOL     OW 5569   8.303   4.742   3.059
34577SOL    HW1 5570   8.323   4.814   3.119
34577SOL    HW2 5571   8.282   4.784   2.976
34578SOL     OW 5572  14.716   8.412  14.176
34578SOL    HW1 5573  14.721   8.505  14.153
34578SOL    HW2 5574  14.802   8.393  14.214
34579SOL     OW 5575  13.752   0.392  12.344
34579SOL    HW1 5576  13.727   0.312  12.299
34579SOL    HW2 5577  13.680   0.411  12.403
34580SOL     OW 5578   1.593   7.244   7.937
34580SOL    HW1 5579   1.506   7.230   7.899
34580SOL    HW2 5580   1.600   7.178   8.007
34581SOL     OW 5581   6.258  13.890   6.718
34581SOL    HW1 5582   6.333  13.846   6.758
34581SOL    HW2 5583   6.296  13.964   6.670
34582SOL     OW 5584  14.316   4.730  13.081
34582SOL    HW1 5585  14.317   4.643  13.042
34582SOL    HW2 5586  14.329   4.715  13.175
34583SOL     OW 5587  14.234   8.325   5.977
34583SOL    HW1 5588  14.149   8.343   5.937
34583SOL    HW2 5589  14.220   8.342   6.070
34584SOL     OW 5590   0.404   8.835  11.869
34584SOL    HW1 5591   0.494   8.866  11.876
34584SOL    HW2 5592   0.407   8.765  11.804
34585SOL     OW 5593  14.290   4.812  11.271
34585SOL    HW1 5594  14.252   4.797  11.185
34585SOL    HW2 5595  14.377   4.773  11.267
34586SOL     OW 5596   4.839   2.992  11.890
34586SOL    HW1 5597   4.879   2.959  11.809
34586SOL    HW2 5598   4.745   2.997  11.870
34587SOL     OW 5599   2.193   7.683  11.017
34587SOL    HW1 5600   2.146   7.666  11.099
34587SOL    HW2 5601   2.186   7.600  10.968
34588SOL     OW 5602  13.891  10.937   7.629
34588SOL    HW1 5603  13.966  10.962   7.682
34588SOL    HW2 5604  13.901  10.988   7.549
34589SOL     OW 5605  13.797  11.124   6.514
34589SOL    HW1 5606  13.803  11.172   6.596
34589SOL    HW2 5607  13.826  11.186   6.447
34590SOL     OW 5608  12.912   7.515   3.035
34590SOL    HW1 5609  12.891   7.548   3.123
34590SOL    HW2 5610  12.914   7.593   2.980
34591SOL     OW 5611   4.592   5.337  13.213
34591SOL    HW1 5612   4.542   5.417  13.231
34591SOL    HW2 5613   4.576   5.320  13.120
34592SOL     OW 5614   3.894   4.067   2.886
34592SOL    HW1 5615   3.798   4.069   2.880
34592SOL    HW2 5616   3.923   4.065   2.795
34593SOL     OW 5617   8.641   9.201  14.397
34593SOL    HW1 5618   8.563   9.173  14.349
34593SOL    HW2 5619   8.627   9.169  14.486
34594SOL     OW 5620   5.198   7.967   4.690
34594SOL    HW1 5621   5.291   7.988   4.677
34594SOL    HW2 5622   5.152   8.048   4.670
34595SOL     OW 5623   3.683  12.643   6.560
34595SOL    HW1 5624   3.689  12.736   6.581
34595SOL    HW2 5625   3.591  12.622   6.571
34596SOL     OW 5626   6.209  14.471  10.139
34596SOL    HW1 5627   6.304  14.474  10.125
34596SOL    HW2 5628   6.194  14.527  10.215
34597SOL     OW 5629  10.239   7.570  11.983
34597SOL    HW1 5630  10.249   7.609  11.896
34597SOL    HW2 5631  10.296   7.493  11.982
34598SOL     OW 5632  14.242  13.569   7.766
34598SOL    HW1 5633  14.309  13.513   7.805
34598SOL    HW2 5634  14.274  13.658   7.780
34599SOL     OW 5635  12.877  13.379   4.411
34599SOL    HW1 5636  12.861  13.386   4.317
34599SOL    HW2 5637  12.825  13.303   4.438
34600SOL     OW 5638   3.664  12.662   3.274
34600SOL    HW1 5639   3.756  12.684   3.290
34600SOL    HW2 5640   3.616  12.716   3.337
34601SOL     OW 5641  13.400  13.282  13.720
34601SOL    HW1 5642  13.417  13.215  13.786
34601SOL    HW2 5643  13.483  13.291  13.674
34602SOL     OW 5644   3.694   0.279   7.210
34602SOL    HW1 5645   3.623   0.217   7.225
34602SOL    HW2 5646   3.686   0.304   7.118
34603SOL     OW 5647   4.229   7.417  14.765
34603SOL    HW1 5648   4.222   7.384  14.855
34603SOL    HW2 5649   4.319   7.450  14.759
34604SOL     OW 5650   7.906   0.668   2.287
34604SOL    HW1 5651   7.910   0.585   2.333
34604SOL    HW2 5652   7.911   0.645   2.194
34605SOL     OW 5653   1.123   0.729  10.396
34605SOL    HW1 5654   1.154   0.787  10.465
34605SOL    HW2 5655   1.147   0.641  10.425
34606SOL     OW 5656   2.925  10.275  13.926
34606SOL    HW1 5657   2.957  10.310  14.009
34606SOL    HW2 5658   2.948  10.182  13.929
34607SOL     OW 5659   2.064   0.644   9.877
34607SOL    HW1 5660   2.075   0.700   9.800
34607SOL    HW2 5661   2.093   0.557   9.848
34608SOL     OW 5662  13.196  10.918   7.072
34608SOL    HW1 5663  13.154  10.836   7.045
34608SOL    HW2 5664  13.129  10.962   7.125
34609SOL     OW 5665  13.883   3.682  13.130
34609SOL    HW1 5666  13.829   3.613  13.093
34609SOL    HW2 5667  13.883   3.665  13.224
34610SOL     OW 5668   1.938   1.260   5.038
34610SOL    HW1 5669   1.965   1.346   5.071
34610SOL    HW2 5670   1.846   1.253   5.061
34611SOL     OW 5671  11.778  11.578   4.605
34611SOL    HW1 5672  11.742  11.503   4.558
34611SOL    HW2 5673  11.845  11.541   4.662
34612SOL     OW 5674   2.964   6.216  12.184
34612SOL    HW1 5675   3.054   6.229  12.152
34612SOL    HW2 5676   2.941   6.300  12.224
34613SOL     OW 5677  11.367  12.976   8.948
34613SOL    HW1 5678  11.444  12.930   8.980
34613SOL    HW2 5679  11.400  13.035   8.881
34614SOL     OW 5680   5.015   4.384   3.979
34614SOL    HW1 5681   5.080   4.410   3.913
34614SOL    HW2 5682   4.932   4.380   3.930
34615SOL     OW 5683   3.056   7.865   2.705
34615SOL    HW1 5684   3.027   7.780   2.740
34615SOL    HW2 5685   2.977   7.901   2.664
34616SOL     OW 5686  10.110   2.861   6.580
34616SOL    HW1 5687  10.019   2.889   6.572
34616SOL    HW2 5688  10.108   2.793   6.648
34617SOL     OW 5689   9.583  14.183  11.032
34617SOL    HW1 5690   9.517  14.118  11.054
34617SOL    HW2 5691   9.641  14.186  11.108
34618SOL     OW 5692   1.485   1.790   3.191
34618SOL    HW1 5693   1.547   1.829   3.130
34618SOL    HW2 5694   1.408   1.771   3.137
34619SOL     OW 5695  14.172  11.329  10.064
34619SOL    HW1 5696  14.096  11.281  10.032
34619SOL    HW2 5697  14.165  11.415  10.023
34620SOL     OW 5698  11.937   5.068  10.847
34620SOL    HW1 5699  11.859   5.030  10.808
34620SOL    HW2 5700  11.913   5.086  10.938
34621SOL     OW 5701   1.263  11.849   9.728
34621SOL    HW1 5702   1.238  11.760   9.701
34621SOL    HW2 5703   1.217  11.906   9.667
34622SOL     OW 5704  12.228   8.803   9.759
34622SOL    HW1 5705  12.155   8.742   9.766
34622SOL    HW2 5706  12.203   8.864   9.690
34623SOL     OW 5707   1.436  12.598   3.823
34623SOL    HW1 5708   1.528  12.580   3.800
34623SOL    HW2 5709   1.387  12.529   3.780
34624SOL     OW 5710   3.667   7.191  14.730
34624SOL    HW1 5711   3.629   7.119  14.680
34624SOL    HW2 5712   3.669   7.265  14.669
34625SOL     OW 5713  13.711   0.469   4.515
34625SOL    HW1 5714  13.663   0.546   4.545
34625SOL    HW2 5715  13.751   0.495   4.432
34626SOL     OW 5716  12.829   8.168   0.200
34626SOL    HW1 5717  12.778   8.191   0.278
34626SOL    HW2 5718  12.894   8.238   0.192
34627SOL     OW 5719   2.911   1.234   8.699
34627SOL    HW1 5720   2.915   1.185   8.781
34627SOL    HW2 5721   2.819   1.257   8.689
34628SOL     OW 5722   5.120   8.199  13.182
34628SOL    HW1 5723   5.191   8.138  13.165
34628SOL    HW2 5724   5.119   8.257  13.105
34629SOL     OW 5725  10.705   5.391  10.415
34629SOL    HW1 5726  10.674   5.416  10.503
34629SOL    HW2 5727  10.671   5.302  10.403
34630SOL     OW 5728   6.702   5.466   7.472
34630SOL    HW1 5729   6.684   5.495   7.382
34630SOL    HW2 5730   6.699   5.370   7.466
34631SOL     OW 5731  11.247   9.850   9.351
34631SOL    HW1 5732  11.320   9.876   9.295
34631SOL    HW2 5733  11.187   9.805   9.293
34632SOL     OW 5734  10.746   0.530   0.384
34632SOL    HW1 5735  10.811   0.600   0.391
34632SOL    HW2 5736  10.745   0.490   0.471
34633SOL     OW 5737   3.482   9.847   3.977
34633SOL    HW1 5738   3.531   9.784   4.030
34633SOL    HW2 5739   3.391   9.832   4.001
34634SOL     OW 5740   0.476  10.753  10.535
34634SOL    HW1 5741   0.531  10.694  10.588
34634SOL    HW2 5742   0.408  10.783  10.596
34635SOL     OW 5743   2.775   5.365  12.259
34635SOL    HW1 5744   2.870   5.349  12.256
34635SOL    HW2 5745   2.766   5.460  12.251
34636SOL     OW 5746  11.650  12.606   0.242
34636SOL    HW1 5747  11.564  12.571   0.216
34636SOL    HW2 5748  11.639  12.629   0.335
34637SOL     OW 5749  11.193   6.250  11.210
34637SOL    HW1 5750  11.167   6.314  11.144
34637SOL    HW2 5751  11.113   6.236  11.262
34638SOL     OW 5752  10.097  14.206   0.493
34638SOL    HW1 5753  10.070  14.283   0.543
34638SOL    HW2 5754  10.146  14.241   0.419
34639SOL     OW 5755  14.338  11.296  13.868
34639SOL    HW1 5756  14.318  11.208  13.900
34639SOL    HW2 5757  14.273  11.311  13.799
34640SOL     OW 5758   4.854   7.919   0.110
34640SOL    HW1 5759   4.780   7.980   0.117
34640SOL    HW2 5760   4.911   7.959   0.044
34641SOL     OW 5761   3.731   0.515   3.013
34641SOL    HW1 5762   3.657   0.459   2.993
34641SOL    HW2 5763   3.776   0.527   2.929
34642SOL     OW 5764  11.747   7.675   2.828
34642SOL    HW1 5765  11.757   7.685   2.733
34642SOL    HW2 5766  11.730   7.763   2.860
34643SOL     OW 5767   7.749   4.578   8.780
34643SOL    HW1 5768   7.713   4.589   8.692
34643SOL    HW2 5769   7.672   4.579   8.837
34644SOL     OW 5770   6.927  11.306  10.411
34644SOL    HW1 5771   6.980  11.366  10.464
34644SOL    HW2 5772   6.979  11.226  10.409
34645SOL     OW 5773  12.177   6.964   0.159
34645SOL    HW1 5774  12.181   6.949   0.253
34645SOL    HW2 5775  12.142   6.882   0.123
34646SOL     OW 5776   1.955   5.506   4.100
34646SOL    HW1 5777   1.992   5.432   4.147
34646SOL    HW2 5778   1.873   5.525   4.145
34647SOL     OW 5779   5.714   3.028  14.476
34647SOL    HW1 5780   5.754   3.079  14.405
34647SOL    HW2 5781   5.761   3.055  14.554
34648SOL     OW 5782   6.897  10.022   0.945
34648SOL    HW1 5783   6.885   9.992   0.855
34648SOL    HW2 5784   6.813  10.005   0.988
34649SOL     OW 5785   5.233  14.057  14.708
34649SOL    HW1 5786   5.250  14.016  14.793
34649SOL    HW2 5787   5.320  14.076  14.673
34650SOL     OW 5788   6.250  13.635   1.379
34650SOL    HW1 5789   6.262  13.682   1.462
34650SOL    HW2 5790   6.291  13.691   1.314
34651SOL     OW 5791  11.786   2.610   0.961
34651SOL    HW1 5792  11.739   2.567   1.033
34651SOL    HW2 5793  11.734   2.688   0.941
34652SOL     OW 5794   6.692   9.120   9.280
34652SOL    HW1 5795   6.637   9.152   9.352
34652SOL    HW2 5796   6.685   9.025   9.285
34653SOL     OW 5797   4.164   7.868   5.135
34653SOL    HW1 5798   4.097   7.920   5.179
34653SOL    HW2 5799   4.237   7.929   5.122
34654SOL     OW 5800  12.087   0.573  14.409
34654SOL    HW1 5801  12.152   0.560  14.340
34654SOL    HW2 5802  12.130   0.543  14.489
34655SOL     OW 5803   7.939   6.987   1.409
34655SOL    HW1 5804   8.033   6.973   1.397
34655SOL    HW2 5805   7.903   6.899   1.421
34656SOL     OW 5806   2.484   5.718  14.829
34656SOL    HW1 5807   2.548   5.673   0.005
34656SOL    HW2 5808   2.400   5.679  14.853
34657SOL     OW 5809   3.579   4.841   0.875
34657SOL    HW1 5810   3.558   4.748   0.883
34657SOL    HW2 5811   3.566   4.861   0.782
34658SOL     OW 5812   6.760   5.929  14.528
34658SOL    HW1 5813   6.791   5.932  14.437
34658SOL    HW2 5814   6.698   6.002  14.534
34659SOL     OW 5815  12.509  10.451  12.663
34659SOL    HW1 5816  12.447  10.433  12.593
34659SOL    HW2 5817  12.578  10.503  12.622
34660SOL     OW 5818   6.357   5.397   7.566
34660SOL    HW1 5819   6.300   5.359   7.633
34660SOL    HW2 5820   6.424   5.445   7.616
34661SOL     OW 5821   7.123  11.743  14.303
34661SOL    HW1 5822   7.043  11.786  14.335
34661SOL    HW2 5823   7.142  11.676  14.368
34662SOL     OW 5824   9.933   8.585   7.384
34662SOL    HW1 5825   9.915   8.670   7.426
34662SOL    HW2 5826   9.929   8.522   7.456
34663SOL     OW 5827   9.743   7.597   2.071
34663SOL    HW1 5828   9.761   7.569   1.981
34663SOL    HW2 5829   9.695   7.679   2.062
34664SOL     OW 5830  13.949   9.106   9.019
34664SOL    HW1 5831  13.981   9.133   9.105
34664SOL    HW2 5832  14.027   9.102   8.964
34665SOL     OW 5833   9.306   0.802  13.783
34665SOL    HW1 5834   9.343   0.878  13.739
34665SOL    HW2 5835   9.356   0.727  13.750
34666SOL     OW 5836   8.536   7.770  11.238
34666SOL    HW1 5837   8.591   7.845  11.260
34666SOL    HW2 5838   8.452   7.808  11.211
34667SOL     OW 5839  10.000   8.654   4.475
34667SOL    HW1 5840   9.927   8.716   4.470
34667SOL    HW2 5841   9.959   8.569   4.488
34668SOL     OW 5842   8.804   9.502   9.920
34668SOL    HW1 5843   8.881   9.473   9.871
34668SOL    HW2 5844   8.790   9.592   9.891
34669SOL     OW 5845  13.388   9.087  13.947
34669SOL    HW1 5846  13.336   9.093  14.027
34669SOL    HW2 5847  13.465   9.141  13.965
34670SOL     OW 5848   5.419  14.325  12.593
34670SOL    HW1 5849   5.494  14.349  12.648
34670SOL    HW2 5850   5.432  14.232  12.574
34671SOL     OW 5851   7.275   9.316   2.680
34671SOL    HW1 5852   7.261   9.272   2.764
34671SOL    HW2 5853   7.333   9.389   2.700
34672SOL     OW 5854  12.604   0.769   3.519
34672SOL    HW1 5855  12.591   0.711   3.594
34672SOL    HW2 5856  12.606   0.709   3.444
34673SOL     OW 5857   9.304  12.514   3.139
34673SOL    HW1 5858   9.245  12.439   3.131
34673SOL    HW2 5859   9.247  12.590   3.129
34674SOL     OW 5860   5.671   0.505   4.359
34674SOL    HW1 5861   5.736   0.474   4.422
34674SOL    HW2 5862   5.657   0.430   4.301
34675SOL     OW 5863   5.804  13.985   7.614
34675SOL    HW1 5864   5.845  13.994   7.700
34675SOL    HW2 5865   5.843  13.906   7.577
34676SOL     OW 5866   7.476   8.250   1.468
34676SOL    HW1 5867   7.560   8.291   1.452
34676SOL    HW2 5868   7.450   8.281   1.555
34677SOL     OW 5869   3.293  10.183   6.407
34677SOL    HW1 5870   3.376  10.144   6.379
34677SOL    HW2 5871   3.317  10.244   6.476
34678SOL     OW 5872  11.021  10.883   6.098
34678SOL    HW1 5873  11.051  10.911   6.011
34678SOL    HW2 5874  10.925  10.890   6.093
34679SOL     OW 5875  14.266   9.375   8.008
34679SOL    HW1 5876  14.290   9.339   8.093
34679SOL    HW2 5877  14.249   9.298   7.953
34680SOL     OW 5878   1.937  12.896   7.660
34680SOL    HW1 5879   1.936  12.963   7.728
34680SOL    HW2 5880   1.844  12.884   7.637
34681SOL     OW 5881   0.312  13.052   3.303
34681SOL    HW1 5882   0.251  13.010   3.363
34681SOL    HW2 5883   0.395  13.009   3.319
34682SOL     OW 5884   4.571   6.408   4.857
34682SOL    HW1 5885   4.568   6.493   4.814
34682SOL    HW2 5886   4.546   6.346   4.788
34683SOL     OW 5887   7.401   1.380   8.809
34683SOL    HW1 5888   7.329   1.366   8.748
34683SOL    HW2 5889   7.474   1.408   8.754
34684SOL     OW 5890   9.353  12.354   5.251
34684SOL    HW1 5891   9.305  12.360   5.334
34684SOL    HW2 5892   9.430  12.301   5.271
34685SOL     OW 5893   3.944   7.175   9.991
34685SOL    HW1 5894   3.892   7.099  10.014
34685SOL    HW2 5895   4.027   7.139   9.960
34686SOL     OW 5896   3.267   9.041   8.109
34686SOL    HW1 5897   3.186   9.087   8.089
34686SOL    HW2 5898   3.292   8.998   8.027
34687SOL     OW 5899   7.014   9.321  12.461
34687SOL    HW1 5900   6.967   9.238  12.460
34687SOL    HW2 5901   7.009   9.352  12.371
34688SOL     OW 5902   4.506   8.373  12.397
34688SOL    HW1 5903   4.487   8.292  12.445
34688SOL    HW2 5904   4.515   8.345  12.306
34689SOL     OW 5905  10.895  13.880  14.803
34689SOL    HW1 5906  10.972  13.845  14.758
34689SOL    HW2 5907  10.857  13.942  14.740
34690SOL     OW 5908  14.321   3.733   9.517
34690SOL    HW1 5909  14.280   3.785   9.586
34690SOL    HW2 5910  14.278   3.648   9.523
34691SOL     OW 5911  11.906   1.201   4.424
34691SOL    HW1 5912  11.859   1.175   4.345
34691SOL    HW2 5913  11.898   1.296   4.426
34692SOL     OW 5914   6.795  11.873   8.305
34692SOL    HW1 5915   6.843  11.800   8.343
34692SOL    HW2 5916   6.728  11.894   8.370
34693SOL     OW 5917  12.550  10.039  13.155
34693SOL    HW1 5918  12.533   9.987  13.076
34693SOL    HW2 5919  12.640  10.069  13.145
34694SOL     OW 5920   4.115   4.524   1.815
34694SOL    HW1 5921   4.089   4.439   1.778
34694SOL    HW2 5922   4.199   4.543   1.772
34695SOL     OW 5923   9.759   5.352   1.959
34695SOL    HW1 5924   9.838   5.374   1.909
34695SOL    HW2 5925   9.721   5.436   1.983
34696SOL     OW 5926   0.811   1.194   7.022
34696SOL    HW1 5927   0.759   1.116   7.045
34696SOL    HW2 5928   0.830   1.184   6.929
34697SOL     OW 5929  10.695   9.083   4.711
34697SOL    HW1 5930  10.632   9.058   4.643
34697SOL    HW2 5931  10.641   9.102   4.788
34698SOL     OW 5932   5.385   4.276  14.548
34698SOL    HW1 5933   5.461   4.334  14.542
34698SOL    HW2 5934   5.406   4.218  14.622
34699SOL     OW 5935  12.126  10.548   1.049
34699SOL    HW1 5936  12.203  10.573   1.100
34699SOL    HW2 5937  12.051  10.570   1.104
34700SOL     OW 5938   6.422   8.216   2.249
34700SOL    HW1 5939   6.373   8.220   2.331
34700SOL    HW2 5940   6.450   8.306   2.234
34701SOL     OW 5941   9.807   1.858  10.098
34701SOL    HW1 5942   9.809   1.903  10.014
34701SOL    HW2 5943   9.724   1.811  10.099
34702SOL     OW 5944   8.916   4.564   6.302
34702SOL    HW1 5945   8.834   4.516   6.317
34702SOL    HW2 5946   8.904   4.604   6.216
34703SOL     OW 5947   0.392   1.371  11.458
34703SOL    HW1 5948   0.396   1.279  11.430
34703SOL    HW2 5949   0.476   1.386  11.502
34704SOL     OW 5950  14.706   2.999   8.598
34704SOL    HW1 5951  14.618   2.975   8.627
34704SOL    HW2 5952  14.692   3.051   8.519
34705SOL     OW 5953   6.915   8.121   8.505
34705SOL    HW1 5954   6.882   8.057   8.442
34705SOL    HW2 5955   7.010   8.119   8.492
34706SOL     OW 5956  10.102   5.850   4.455
34706SOL    HW1 5957  10.120   5.870   4.363
34706SOL    HW2 5958  10.015   5.887   4.471
34707SOL     OW 5959  13.605  11.382   6.796
34707SOL    HW1 5960  13.617  11.473   6.826
34707SOL    HW2 5961  13.516  11.360   6.825
34708SOL     OW 5962  13.921   3.508   8.725
34708SOL    HW1 5963  13.883   3.590   8.756
34708SOL    HW2 5964  13.989   3.535   8.663
34709SOL     OW 5965   8.049   8.327   0.464
34709SOL    HW1 5966   8.113   8.353   0.530
34709SOL    HW2 5967   8.023   8.409   0.421
34710SOL     OW 5968  13.013  14.428   0.139
34710SOL    HW1 5969  13.084  14.364   0.145
34710SOL    HW2 5970  12.991  14.431   0.046
34711SOL     OW 5971   7.580   7.887   1.845
34711SOL    HW1 5972   7.672   7.859   1.850
34711SOL    HW2 5973   7.541   7.830   1.780
34712SOL     OW 5974   2.013   3.312  10.895
34712SOL    HW1 5975   2.039   3.276  10.810
34712SOL    HW2 5976   2.025   3.239  10.956
34713SOL     OW 5977   3.626   9.065   4.654
34713SOL    HW1 5978   3.667   8.979   4.658
34713SOL    HW2 5979   3.652   9.099   4.568
34714SOL     OW 5980  11.485  14.645   5.630
34714SOL    HW1 5981  11.547  14.576   5.651
34714SOL    HW2 5982  11.402  14.616   5.668
34715SOL     OW 5983   6.013   5.703   8.726
34715SOL    HW1 5984   6.008   5.615   8.687
34715SOL    HW2 5985   5.932   5.746   8.699
34716SOL     OW 5986   8.327  10.829   8.158
34716SOL    HW1 5987   8.285  10.747   8.132
34716SOL    HW2 5988   8.272  10.898   8.121
34717SOL     OW 5989   5.381   0.299  13.214
34717SOL    HW1 5990   5.378   0.289  13.119
34717SOL    HW2 5991   5.474   0.311  13.234
34718SOL     OW 5992   5.851  11.847   8.230
34718SOL    HW1 5993   5.893  11.913   8.285
34718SOL    HW2 5994   5.919  11.820   8.168
34719SOL     OW 5995  11.005  10.483   8.419
34719SOL    HW1 5996  10.991  10.389   8.427
34719SOL    HW2 5997  11.084  10.500   8.470
34720SOL     OW 5998  12.256   9.946   3.580
34720SOL    HW1 5999  12.333   9.976   3.533
34720SOL    HW2 6000  12.208  10.026   3.601
34721SOL     OW 6001   5.210   3.132   9.763
34721SOL    HW1 6002   5.278   3.098   9.821
34721SOL    HW2 6003   5.190   3.060   9.703
34722SOL     OW 6004   1.981   7.766  14.071
34722SOL    HW1 6005   1.892   7.766  14.035
34722SOL    HW2 6006   2.023   7.689  14.032
34723SOL     OW 6007  14.842  13.883  11.269
34723SOL    HW1 6008  14.848  13.855  11.360
34723SOL    HW2 6009   0.036  13.840  11.225
34724SOL     OW 6010   2.568   7.814   6.013
34724SOL    HW1 6011   2.606   7.899   6.031
34724SOL    HW2 6012   2.619   7.779   5.940
34725SOL     OW 6013   3.030   1.114   2.805
34725SOL    HW1 6014   2.997   1.197   2.772
34725SOL    HW2 6015   3.124   1.118   2.789
34726SOL     OW 6016   8.014   9.625   5.494
34726SOL    HW1 6017   8.000   9.669   5.410
34726SOL    HW2 6018   8.101   9.586   5.486
34727SOL     OW 6019  14.581   5.536   5.396
34727SOL    HW1 6020  14.672   5.564   5.385
34727SOL    HW2 6021  14.559   5.562   5.486
34728SOL     OW 6022   1.238   2.412  12.101
34728SOL    HW1 6023   1.214   2.435  12.191
34728SOL    HW2 6024   1.315   2.356  12.109
34729SOL     OW 6025   4.879   5.108   0.865
34729SOL    HW1 6026   4.959   5.134   0.818
34729SOL    HW2 6027   4.900   5.023   0.902
34730SOL     OW 6028  13.901   0.049  14.797
34730SOL    HW1 6029  13.889   0.139  14.828
34730SOL    HW2 6030  13.914   0.058  14.702
34731SOL     OW 6031   4.275   2.208   9.699
34731SOL    HW1 6032   4.207   2.267   9.665
34731SOL    HW2 6033   4.353   2.263   9.705
34732SOL     OW 6034   8.930  13.103   9.659
34732SOL    HW1 6035   9.013  13.062   9.680
34732SOL    HW2 6036   8.951  13.168   9.591
34733SOL     OW 6037   7.276   4.542   2.726
34733SOL    HW1 6038   7.215   4.610   2.754
34733SOL    HW2 6039   7.358   4.588   2.708
34734SOL     OW 6040   2.425  14.460   9.968
34734SOL    HW1 6041   2.434  14.509  10.049
34734SOL    HW2 6042   2.370  14.385   9.990
34735SOL     OW 6043   1.475   9.042   9.181
34735SOL    HW1 6044   1.544   9.050   9.247
34735SOL    HW2 6045   1.416   9.115   9.201
34736SOL     OW 6046   5.641   0.054   5.366
34736SOL    HW1 6047   5.708   0.018   5.423
34736SOL    HW2 6048   5.649   0.149   5.375
34737SOL     OW 6049   2.986  10.450   0.250
34737SOL    HW1 6050   3.018  10.504   0.322
34737SOL    HW2 6051   3.051  10.380   0.242
34738SOL     OW 6052   2.540   9.795   2.454
34738SOL    HW1 6053   2.535   9.794   2.550
34738SOL    HW2 6054   2.527   9.704   2.429
34739SOL     OW 6055   7.207   0.650   3.207
34739SOL    HW1 6056   7.210   0.745   3.195
34739SOL    HW2 6057   7.297   0.625   3.229
34740SOL     OW 6058   2.292   5.669   3.189
34740SOL    HW1 6059   2.310   5.625   3.272
34740SOL    HW2 6060   2.229   5.737   3.210
34741SOL     OW 6061  11.219  13.048  14.447
34741SOL    HW1 6062  11.123  13.047  14.437
34741SOL    HW2 6063  11.233  13.078  14.537
34742SOL     OW 6064   6.995  13.026   1.377
34742SOL    HW1 6065   7.084  13.007   1.407
34742SOL    HW2 6066   6.941  13.015   1.455
34743SOL     OW 6067   0.326   0.314   7.691
34743SOL    HW1 6068   0.247   0.293   7.641
34743SOL    HW2 6069   0.393   0.256   7.655
34744SOL     OW 6070   4.619  10.149   8.114
34744SOL    HW1 6071   4.665  10.067   8.098
34744SOL    HW2 6072   4.671  10.193   8.182
34745SOL     OW 6073   3.418  14.265   3.112
34745SOL    HW1 6074   3.436  14.190   3.169
34745SOL    HW2 6075   3.440  14.234   3.024
34746SOL     OW 6076   8.170   9.621   8.050
34746SOL    HW1 6077   8.202   9.683   8.115
34746SOL    HW2 6078   8.204   9.536   8.079
34747SOL     OW 6079   0.244   5.525   9.595
34747SOL    HW1 6080   0.290   5.569   9.667
34747SOL    HW2 6081   0.237   5.592   9.527
34748SOL     OW 6082   1.134  13.007   6.371
34748SOL    HW1 6083   1.168  12.994   6.283
34748SOL    HW2 6084   1.193  12.957   6.427
34749SOL     OW 6085   5.177   2.002  10.189
34749SOL    HW1 6086   5.218   1.979  10.273
34749SOL    HW2 6087   5.083   1.994  10.206
34750SOL     OW 6088   6.782   0.183  10.017
34750SOL    HW1 6089   6.813   0.149   9.933
34750SOL    HW2 6090   6.824   0.127  10.083
34751SOL     OW 6091   1.535   2.771   7.213
34751SOL    HW1 6092   1.562   2.860   7.191
34751SOL    HW2 6093   1.525   2.771   7.308
34752SOL     OW 6094   5.584  10.441  11.101
34752SOL    HW1 6095   5.547  10.365  11.057
34752SOL    HW2 6096   5.551  10.436  11.190
34753SOL     OW 6097  12.823  10.726   3.481
34753SOL    HW1 6098  12.752  10.758   3.536
34753SOL    HW2 6099  12.848  10.800   3.426
34754SOL     OW 6100   5.309   2.316   1.164
34754SOL    HW1 6101   5.289   2.402   1.200
34754SOL    HW2 6102   5.339   2.333   1.075
34755SOL     OW 6103   7.779   2.452   0.818
34755SOL    HW1 6104   7.741   2.422   0.736
34755SOL    HW2 6105   7.778   2.548   0.812
34756SOL     OW 6106   2.497  10.689   0.292
34756SOL    HW1 6107   2.516  10.701   0.199
34756SOL    HW2 6108   2.427  10.624   0.294
34757SOL     OW 6109  10.678   1.266   5.620
34757SOL    HW1 6110  10.652   1.222   5.539
34757SOL    HW2 6111  10.633   1.351   5.617
34758SOL     OW 6112   2.225  10.336   9.291
34758SOL    HW1 6113   2.306  10.288   9.270
34758SOL    HW2 6114   2.255  10.420   9.324
34759SOL     OW 6115   6.028  13.364   7.110
34759SOL    HW1 6116   6.090  13.300   7.075
34759SOL    HW2 6117   6.066  13.449   7.086
34760SOL     OW 6118   5.693   5.778  10.430
34760SOL    HW1 6119   5.656   5.839  10.367
34760SOL    HW2 6120   5.712   5.699  10.379
34761SOL     OW 6121   3.517   1.245   4.835
34761SOL    HW1 6122   3.495   1.273   4.746
34761SOL    HW2 6123   3.611   1.259   4.843
34762SOL     OW 6124   8.002   2.116   0.402
34762SOL    HW1 6125   8.010   2.022   0.417
34762SOL    HW2 6126   7.931   2.144   0.461
34763SOL     OW 6127   0.987   6.528   0.496
34763SOL    HW1 6128   1.062   6.482   0.534
34763SOL    HW2 6129   1.021   6.565   0.415
34764SOL     OW 6130   2.362   1.208   0.059
34764SOL    HW1 6131   2.288   1.255   0.096
34764SOL    HW2 6132   2.382   1.254  14.857
34765SOL     OW 6133   2.423   3.160  11.755
34765SOL    HW1 6134   2.416   3.152  11.660
34765SOL    HW2 6135   2.508   3.201  11.770
34766SOL     OW 6136   6.632   7.311   3.945
34766SOL    HW1 6137   6.717   7.312   3.902
34766SOL    HW2 6138   6.643   7.365   4.023
34767SOL     OW 6139   7.923   2.907   3.297
34767SOL    HW1 6140   7.986   2.977   3.279
34767SOL    HW2 6141   7.928   2.894   3.391
34768SOL     OW 6142   8.009   6.085  13.533
34768SOL    HW1 6143   8.077   6.024  13.561
34768SOL    HW2 6144   7.936   6.068  13.593
34769SOL     OW 6145  10.554   0.389   9.095
34769SOL    HW1 6146  10.479   0.335   9.123
34769SOL    HW2 6147  10.544   0.396   9.001
34770SOL     OW 6148   6.310  14.356   7.414
34770SOL    HW1 6149   6.284  14.364   7.506
34770SOL    HW2 6150   6.229  14.338   7.367
34771SOL     OW 6151   9.085  13.088   3.283
34771SOL    HW1 6152   8.991  13.072   3.296
34771SOL    HW2 6153   9.088  13.156   3.217
34772SOL     OW 6154   7.235   3.832   4.824
34772SOL    HW1 6155   7.320   3.843   4.866
34772SOL    HW2 6156   7.256   3.815   4.732
34773SOL     OW 6157   9.465   1.721   1.856
34773SOL    HW1 6158   9.477   1.758   1.943
34773SOL    HW2 6159   9.524   1.646   1.853
34774SOL     OW 6160   6.918  10.356   2.026
34774SOL    HW1 6161   6.894  10.263   2.026
34774SOL    HW2 6162   6.835  10.402   2.014
34775SOL     OW 6163  12.944   5.161  10.633
34775SOL    HW1 6164  12.869   5.149  10.575
34775SOL    HW2 6165  13.016   5.187  10.576
34776SOL     OW 6166   5.323   1.151  12.326
34776SOL    HW1 6167   5.310   1.215  12.255
34776SOL    HW2 6168   5.338   1.068  12.281
34777SOL     OW 6169   4.639   5.684   5.440
34777SOL    HW1 6170   4.579   5.751   5.474
34777SOL    HW2 6171   4.635   5.613   5.505
34778SOL     OW 6172   0.628   8.511  11.856
34778SOL    HW1 6173   0.595   8.427  11.889
34778SOL    HW2 6174   0.560   8.543  11.798
34779SOL     OW 6175  10.648   8.026   3.422
34779SOL    HW1 6176  10.681   8.110   3.455
34779SOL    HW2 6177  10.717   7.963   3.446
34780SOL     OW 6178   7.788   4.361   4.762
34780SOL    HW1 6179   7.844   4.437   4.777
34780SOL    HW2 6180   7.715   4.372   4.823
34781SOL     OW 6181   1.588   1.756  13.702
34781SOL    HW1 6182   1.676   1.793  13.700
34781SOL    HW2 6183   1.597   1.669  13.662
34782SOL     OW 6184   0.516   9.690  11.730
34782SOL    HW1 6185   0.449   9.677  11.663
34782SOL    HW2 6186   0.576   9.616  11.719
34783SOL     OW 6187   9.107   8.421   2.078
34783SOL    HW1 6188   9.025   8.426   2.127
34783SOL    HW2 6189   9.108   8.332   2.042
34784SOL     OW 6190   7.418   2.926   5.225
34784SOL    HW1 6191   7.330   2.895   5.203
34784SOL    HW2 6192   7.450   2.862   5.289
34785SOL     OW 6193  14.879   9.785   7.649
34785SOL    HW1 6194  14.825   9.706   7.649
34785SOL    HW2 6195   0.063   9.771   7.579
34786SOL     OW 6196  11.108  12.275  10.485
34786SOL    HW1 6197  11.076  12.304  10.571
34786SOL    HW2 6198  11.061  12.330  10.422
34787SOL     OW 6199   8.490   6.434  12.193
34787SOL    HW1 6200   8.445   6.462  12.113
34787SOL    HW2 6201   8.422   6.435  12.260
34788SOL     OW 6202   6.582   4.675   0.151
34788SOL    HW1 6203   6.620   4.748   0.200
34788SOL    HW2 6204   6.490   4.674   0.177
34789SOL     OW 6205   1.196  13.151   6.856
34789SOL    HW1 6206   1.147  13.106   6.925
34789SOL    HW2 6207   1.265  13.090   6.832
34790SOL     OW 6208  10.801   1.783   0.698
34790SOL    HW1 6209  10.736   1.761   0.630
34790SOL    HW2 6210  10.831   1.698   0.730
34791SOL     OW 6211   3.432  13.545   7.687
34791SOL    HW1 6212   3.512  13.596   7.697
34791SOL    HW2 6213   3.365  13.595   7.733
34792SOL     OW 6214   9.616  14.410  11.876
34792SOL    HW1 6215   9.680  14.340  11.863
34792SOL    HW2 6216   9.557  14.377  11.943
34793SOL     OW 6217  14.051   1.196  10.974
34793SOL    HW1 6218  13.981   1.224  10.915
34793SOL    HW2 6219  14.005   1.148  11.043
34794SOL     OW 6220   5.432  14.524  13.601
34794SOL    HW1 6221   5.420  14.431  13.618
34794SOL    HW2 6222   5.399  14.567  13.680
34795SOL     OW 6223   9.145  10.550  14.029
34795SOL    HW1 6224   9.217  10.513  13.976
34795SOL    HW2 6225   9.102  10.473  14.066
34796SOL     OW 6226   0.078   3.213   3.309
34796SOL    HW1 6227   0.157   3.160   3.321
34796SOL    HW2 6228   0.055   3.201   3.217
34797SOL     OW 6229   5.205   4.977   7.185
34797SOL    HW1 6230   5.152   5.049   7.219
34797SOL    HW2 6231   5.170   4.960   7.097
34798SOL     OW 6232   8.525  10.225   8.607
34798SOL    HW1 6233   8.621  10.219   8.609
34798SOL    HW2 6234   8.509  10.316   8.580
34799SOL     OW 6235   9.603   4.709   8.668
34799SOL    HW1 6236   9.558   4.700   8.584
34799SOL    HW2 6237   9.650   4.793   8.662
34800SOL     OW 6238  11.559   4.194  11.489
34800SOL    HW1 6239  11.546   4.185  11.584
34800SOL    HW2 6240  11.561   4.104  11.456
34801SOL     OW 6241   6.124   9.551  10.022
34801SOL    HW1 6242   6.129   9.643   9.995
34801SOL    HW2 6243   6.196   9.539  10.083
34802SOL     OW 6244   7.092   6.377  12.847
34802SOL    HW1 6245   7.169   6.329  12.877
34802SOL    HW2 6246   7.074   6.440  12.918
34803SOL     OW 6247  13.662  12.219  12.535
34803SOL    HW1 6248  13.626  12.155  12.475
34803SOL    HW2 6249  13.754  12.193  12.546
34804SOL     OW 6250   8.727   6.414  10.484
34804SOL    HW1 6251   8.704   6.495  10.529
34804SOL    HW2 6252   8.657   6.353  10.507
34805SOL     OW 6253  13.090   2.636  11.082
34805SOL    HW1 6254  12.999   2.634  11.052
34805SOL    HW2 6255  13.116   2.544  11.085
34806SOL     OW 6256   3.584   7.898  14.079
34806SOL    HW1 6257   3.664   7.905  14.028
34806SOL    HW2 6258   3.614   7.870  14.166
34807SOL     OW 6259  14.425   2.258  13.624
34807SOL    HW1 6260  14.371   2.227  13.551
34807SOL    HW2 6261  14.389   2.215  13.701
34808SOL     OW 6262  14.428  14.684  11.017
34808SOL    HW1 6263  14.450  14.649  10.930
34808SOL    HW2 6264  14.480  14.763  11.025
34809SOL     OW 6265  11.797  10.346  11.062
34809SOL    HW1 6266  11.874  10.314  11.108
34809SOL    HW2 6267  11.831  10.407  10.997
34810SOL     OW 6268  10.552  12.588  11.353
34810SOL    HW1 6269  10.553  12.572  11.448
34810SOL    HW2 6270  10.537  12.501  11.315
34811SOL     OW 6271  14.394   7.442  11.067
34811SOL    HW1 6272  14.375   7.429  11.160
34811SOL    HW2 6273  14.307   7.448  11.027
34812SOL     OW 6274  12.273   9.786   4.640
34812SOL    HW1 6275  12.215   9.808   4.568
34812SOL    HW2 6276  12.316   9.705   4.612
34813SOL     OW 6277  10.807   1.462   4.480
34813SOL    HW1 6278  10.772   1.547   4.453
34813SOL    HW2 6279  10.732   1.403   4.474
34814SOL     OW 6280  10.169   8.718   7.823
34814SOL    HW1 6281  10.085   8.677   7.842
34814SOL    HW2 6282  10.158   8.809   7.849
34815SOL     OW 6283   5.919   3.495   3.682
34815SOL    HW1 6284   5.944   3.407   3.653
34815SOL    HW2 6285   6.000   3.545   3.682
34816SOL     OW 6286   6.574   3.642  10.565
34816SOL    HW1 6287   6.502   3.587  10.594
34816SOL    HW2 6288   6.652   3.586  10.571
34817SOL     OW 6289   0.689   5.812   3.307
34817SOL    HW1 6290   0.763   5.754   3.324
34817SOL    HW2 6291   0.723   5.875   3.243
34818SOL     OW 6292   2.202  11.874   6.019
34818SOL    HW1 6293   2.196  11.791   6.067
34818SOL    HW2 6294   2.295  11.881   5.996
34819SOL     OW 6295   7.778   0.636   4.801
34819SOL    HW1 6296   7.691   0.617   4.764
34819SOL    HW2 6297   7.772   0.728   4.829
34820SOL     OW 6298   5.452   6.465  12.265
34820SOL    HW1 6299   5.520   6.420  12.213
34820SOL    HW2 6300   5.378   6.404  12.265
34821SOL     OW 6301  13.889   9.784   9.341
34821SOL    HW1 6302  13.821   9.849   9.324
34821SOL    HW2 6303  13.955   9.800   9.273
34822SOL     OW 6304   6.354  12.367  10.196
34822SOL    HW1 6305   6.293  12.439  10.207
34822SOL    HW2 6306   6.305  12.300  10.149
34823SOL     OW 6307   4.421   1.611   5.054
34823SOL    HW1 6308   4.473   1.555   5.113
34823SOL    HW2 6309   4.483   1.640   4.987
34824SOL     OW 6310  12.401   1.506   4.638
34824SOL    HW1 6311  12.369   1.416   4.638
34824SOL    HW2 6312  12.329   1.557   4.676
34825SOL     OW 6313   9.522   8.253  11.387
34825SOL    HW1 6314   9.577   8.319  11.345
34825SOL    HW2 6315   9.582   8.181  11.407
34826SOL     OW 6316  14.741   4.681  10.160
34826SOL    HW1 6317  14.802   4.608  10.162
34826SOL    HW2 6318  14.675   4.659  10.226
34827SOL     OW 6319   2.055   2.035   8.606
34827SOL    HW1 6320   2.053   2.031   8.702
34827SOL    HW2 6321   2.139   1.997   8.582
34828SOL     OW 6322   5.036  10.973  12.548
34828SOL    HW1 6323   4.977  10.928  12.488
34828SOL    HW2 6324   5.121  10.971  12.504
34829SOL     OW 6325   6.429   5.684   2.513
34829SOL    HW1 6326   6.504   5.734   2.481
34829SOL    HW2 6327   6.413   5.619   2.445
34830SOL     OW 6328   2.233   1.926   7.436
34830SOL    HW1 6329   2.152   1.909   7.484
34830SOL    HW2 6330   2.224   2.015   7.403
34831SOL     OW 6331   3.259   7.793  13.330
34831SOL    HW1 6332   3.343   7.820  13.367
34831SOL    HW2 6333   3.194   7.823  13.393
34832SOL     OW 6334   2.486  11.439   9.256
34832SOL    HW1 6335   2.515  11.355   9.290
34832SOL    HW2 6336   2.400  11.422   9.218
34833SOL     OW 6337   8.655  12.919   7.156
34833SOL    HW1 6338   8.584  12.875   7.109
34833SOL    HW2 6339   8.634  12.906   7.249
34834SOL     OW 6340   8.331  11.279   5.387
34834SOL    HW1 6341   8.272  11.318   5.323
34834SOL    HW2 6342   8.399  11.237   5.335
34835SOL     OW 6343  12.876   3.074   1.099
34835SOL    HW1 6344  12.852   2.994   1.146
34835SOL    HW2 6345  12.971   3.071   1.092
34836SOL     OW 6346   1.997   6.744   5.017
34836SOL    HW1 6347   1.967   6.706   4.935
34836SOL    HW2 6348   2.089   6.766   5.001
34837SOL     OW 6349   0.758   1.274  14.545
34837SOL    HW1 6350   0.771   1.204  14.481
34837SOL    HW2 6351   0.698   1.335  14.503
34838SOL     OW 6352   6.827   9.072   1.437
34838SOL    HW1 6353   6.876   9.155   1.439
34838SOL    HW2 6354   6.888   9.008   1.476
34839SOL     OW 6355  12.952   1.018   6.285
34839SOL    HW1 6356  12.919   1.103   6.255
34839SOL    HW2 6357  12.894   0.954   6.243
34840SOL     OW 6358   0.647  13.050  11.258
34840SOL    HW1 6359   0.624  13.127  11.311
34840SOL    HW2 6360   0.571  12.993  11.265
34841SOL     OW 6361   6.704   3.660   6.049
34841SOL    HW1 6362   6.742   3.652   5.961
34841SOL    HW2 6363   6.779   3.678   6.105
34842SOL     OW 6364   0.618  10.406   0.641
34842SOL    HW1 6365   0.608  10.459   0.720
34842SOL    HW2 6366   0.693  10.444   0.596
34843SOL     OW 6367   7.527   2.093  13.188
34843SOL    HW1 6368   7.563   2.165  13.239
34843SOL    HW2 6369   7.531   2.124  13.097
34844SOL     OW 6370   8.384   3.694  13.157
34844SOL    HW1 6371   8.431   3.672  13.238
34844SOL    HW2 6372   8.444   3.672  13.087
34845SOL     OW 6373   3.193   9.066   5.757
34845SOL    HW1 6374   3.172   9.142   5.811
34845SOL    HW2 6375   3.236   9.005   5.816
34846SOL     OW 6376   7.112  10.299   3.031
34846SOL    HW1 6377   7.050  10.234   3.062
34846SOL    HW2 6378   7.058  10.374   3.007
34847SOL     OW 6379  14.184   1.186  12.508
34847SOL    HW1 6380  14.185   1.266  12.455
34847SOL    HW2 6381  14.092   1.171  12.528
34848SOL     OW 6382   5.777   3.165   3.531
34848SOL    HW1 6383   5.870   3.171   3.552
34848SOL    HW2 6384   5.733   3.164   3.616
34849SOL     OW 6385   4.224  10.954  10.838
34849SOL    HW1 6386   4.135  10.966  10.805
34849SOL    HW2 6387   4.273  10.920  10.764
34850SOL     OW 6388   6.422   0.584   7.077
34850SOL    HW1 6389   6.432   0.679   7.087
34850SOL    HW2 6390   6.510   0.549   7.086
34851SOL     OW 6391   1.399  10.537  12.261
34851SOL    HW1 6392   1.388  10.631  12.277
34851SOL    HW2 6393   1.333  10.516  12.196
34852SOL     OW 6394  12.466   4.386   8.881
34852SOL    HW1 6395  12.468   4.329   8.959
34852SOL    HW2 6396  12.554   4.424   8.878
34853SOL     OW 6397   8.400   4.414   0.430
34853SOL    HW1 6398   8.355   4.338   0.465
34853SOL    HW2 6399   8.476   4.426   0.488
34854SOL     OW 6400  13.257   4.435  14.671
34854SOL    HW1 6401  13.251   4.363  14.608
34854SOL    HW2 6402  13.167   4.466  14.680
34855SOL     OW 6403  10.943   9.410   0.463
34855SOL    HW1 6404  10.865   9.392   0.411
34855SOL    HW2 6405  10.966   9.325   0.501
34856SOL     OW 6406   7.786   8.205   7.691
34856SOL    HW1 6407   7.840   8.149   7.637
34856SOL    HW2 6408   7.775   8.157   7.773
34857SOL     OW 6409  11.382   2.839   8.013
34857SOL    HW1 6410  11.306   2.842   8.072
34857SOL    HW2 6411  11.380   2.751   7.976
34858SOL     OW 6412  11.024   8.877   4.657
34858SOL    HW1 6413  11.049   8.969   4.654
34858SOL    HW2 6414  10.978   8.862   4.574
34859SOL     OW 6415   4.676   7.001   5.377
34859SOL    HW1 6416   4.583   7.016   5.397
34859SOL    HW2 6417   4.703   7.079   5.328
34860SOL     OW 6418   9.798   3.348   6.928
34860SOL    HW1 6419   9.765   3.353   7.018
34860SOL    HW2 6420   9.885   3.309   6.936
34861SOL     OW 6421  10.016   1.639   3.595
34861SOL    HW1 6422  10.063   1.670   3.672
34861SOL    HW2 6423   9.981   1.553   3.620
34862SOL     OW 6424   0.302  11.465   1.197
34862SOL    HW1 6425   0.244  11.395   1.168
34862SOL    HW2 6426   0.260  11.545   1.166
34863SOL     OW 6427  11.590   8.807  13.672
34863SOL    HW1 6428  11.601   8.902  13.678
34863SOL    HW2 6429  11.496   8.793  13.681
34864SOL     OW 6430  11.590   9.051  14.409
34864SOL    HW1 6431  11.677   9.018  14.434
34864SOL    HW2 6432  11.529   8.985  14.441
34865SOL     OW 6433  12.916   1.698   5.064
34865SOL    HW1 6434  12.890   1.789   5.053
34865SOL    HW2 6435  12.880   1.653   4.987
34866SOL     OW 6436   8.630  13.777   4.362
34866SOL    HW1 6437   8.548  13.728   4.359
34866SOL    HW2 6438   8.695  13.715   4.396
34867SOL     OW 6439  10.363   3.354  13.627
34867SOL    HW1 6440  10.372   3.274  13.575
34867SOL    HW2 6441  10.327   3.418  13.567
34868SOL     OW 6442  13.051  14.330   2.049
34868SOL    HW1 6443  13.055  14.407   2.106
34868SOL    HW2 6444  12.961  14.298   2.060
34869SOL     OW 6445   5.618   0.490   9.811
34869SOL    HW1 6446   5.698   0.495   9.758
34869SOL    HW2 6447   5.568   0.568   9.787
34870SOL     OW 6448   2.200   1.587  12.190
34870SOL    HW1 6449   2.222   1.598  12.282
34870SOL    HW2 6450   2.126   1.645  12.176
34871SOL     OW 6451   1.045  10.905   8.850
34871SOL    HW1 6452   0.976  10.964   8.821
34871SOL    HW2 6453   1.016  10.876   8.937
34872SOL     OW 6454  11.955   1.985  13.089
34872SOL    HW1 6455  11.960   1.919  13.020
34872SOL    HW2 6456  12.046   2.001  13.115
34873SOL     OW 6457  14.661   8.574   8.551
34873SOL    HW1 6458  14.569   8.556   8.528
34873SOL    HW2 6459  14.692   8.492   8.590
34874SOL     OW 6460   9.886   1.842   2.062
34874SOL    HW1 6461   9.979   1.817   2.063
34874SOL    HW2 6462   9.861   1.847   2.154
34875SOL     OW 6463   6.325   1.627   3.553
34875SOL    HW1 6464   6.317   1.630   3.458
34875SOL    HW2 6465   6.331   1.533   3.573
34876SOL     OW 6466   8.812   6.939  10.587
34876SOL    HW1 6467   8.829   6.975  10.500
34876SOL    HW2 6468   8.860   6.856  10.588
34877SOL     OW 6469   4.098   6.969   3.209
34877SOL    HW1 6470   4.092   7.001   3.119
34877SOL    HW2 6471   4.015   6.994   3.249
34878SOL     OW 6472  10.311   8.076   1.366
34878SOL    HW1 6473  10.325   8.013   1.436
34878SOL    HW2 6474  10.289   8.022   1.290
34879SOL     OW 6475   2.724   2.509  10.323
34879SOL    HW1 6476   2.639   2.491  10.282
34879SOL    HW2 6477   2.735   2.604  10.314
34880SOL     OW 6478   9.806   6.477  13.593
34880SOL    HW1 6479   9.754   6.542  13.545
34880SOL    HW2 6480   9.894   6.515  13.595
34881SOL     OW 6481   8.571   3.035   4.822
34881SOL    HW1 6482   8.653   3.084   4.827
34881SOL    HW2 6483   8.558   3.001   4.910
34882SOL     OW 6484  10.958   5.940   7.901
34882SOL    HW1 6485  10.919   5.888   7.971
34882SOL    HW2 6486  10.900   6.016   7.892
34883SOL     OW 6487   6.058   7.406  10.110
34883SOL    HW1 6488   6.042   7.422  10.017
34883SOL    HW2 6489   6.021   7.319  10.126
34884SOL     OW 6490   3.100  11.628   7.554
34884SOL    HW1 6491   3.196  11.629   7.546
34884SOL    HW2 6492   3.070  11.577   7.479
34885SOL     OW 6493   9.683   4.097   2.735
34885SOL    HW1 6494   9.778   4.092   2.723
34885SOL    HW2 6495   9.659   4.012   2.773
34886SOL     OW 6496   9.187   7.207   9.932
34886SOL    HW1 6497   9.162   7.297   9.956
34886SOL    HW2 6498   9.197   7.210   9.837
34887SOL     OW 6499   8.473   0.518  13.792
34887SOL    HW1 6500   8.487   0.568  13.872
34887SOL    HW2 6501   8.523   0.566  13.725
34888SOL     OW 6502   1.349   2.720   4.842
34888SOL    HW1 6503   1.397   2.802   4.828
34888SOL    HW2 6504   1.361   2.700   4.934
34889SOL     OW 6505   7.577   3.185   9.213
34889SOL    HW1 6506   7.537   3.245   9.275
34889SOL    HW2 6507   7.526   3.105   9.219
34890SOL     OW 6508  10.722   9.867   5.781
34890SOL    HW1 6509  10.674   9.888   5.860
34890SOL    HW2 6510  10.655   9.858   5.713
34891SOL     OW 6511   2.987  14.341   1.808
34891SOL    HW1 6512   3.031  14.262   1.841
34891SOL    HW2 6513   2.901  14.340   1.851
34892SOL     OW 6514   6.198   2.604   7.059
34892SOL    HW1 6515   6.288   2.628   7.081
34892SOL    HW2 6516   6.151   2.687   7.056
34893SOL     OW 6517   0.363  11.613  10.481
34893SOL    HW1 6518   0.290  11.668  10.454
34893SOL    HW2 6519   0.425  11.616  10.407
34894SOL     OW 6520  13.456   0.199   9.554
34894SOL    HW1 6521  13.543   0.159   9.563
34894SOL    HW2 6522  13.400   0.128   9.522
34895SOL     OW 6523   3.363   3.751   4.655
34895SOL    HW1 6524   3.278   3.743   4.612
34895SOL    HW2 6525   3.424   3.772   4.584
34896SOL     OW 6526   7.747  11.698  10.022
34896SOL    HW1 6527   7.740  11.695  10.117
34896SOL    HW2 6528   7.735  11.607   9.994
34897SOL     OW 6529  11.322  11.819  10.099
34897SOL    HW1 6530  11.270  11.856  10.028
34897SOL    HW2 6531  11.411  11.816  10.064
34898SOL     OW 6532   3.634   0.944  12.628
34898SOL    HW1 6533   3.639   0.852  12.653
34898SOL    HW2 6534   3.560   0.948  12.567
34899SOL     OW 6535  13.064  12.373   4.946
34899SOL    HW1 6536  13.009  12.451   4.951
34899SOL    HW2 6537  13.152  12.405   4.968
34900SOL     OW 6538   1.675   6.069   1.909
34900SOL    HW1 6539   1.713   6.062   1.996
34900SOL    HW2 6540   1.732   6.131   1.863
34901SOL     OW 6541   7.790   6.793  12.289
34901SOL    HW1 6542   7.768   6.875  12.246
34901SOL    HW2 6543   7.762   6.805  12.380
34902SOL     OW 6544   7.591  14.164  11.106
34902SOL    HW1 6545   7.603  14.256  11.127
34902SOL    HW2 6546   7.661  14.144  11.044
34903SOL     OW 6547   0.467   0.003   2.556
34903SOL    HW1 6548   0.545  14.845   2.596
34903SOL    HW2 6549   0.480  14.871   2.462
34904SOL     OW 6550  13.502   1.828   2.091
34904SOL    HW1 6551  13.476   1.762   2.026
34904SOL    HW2 6552  13.527   1.777   2.168
34905SOL     OW 6553   2.875   9.291   0.118
34905SOL    HW1 6554   2.909   9.204   0.098
34905SOL    HW2 6555   2.818   9.278   0.193
34906SOL     OW 6556  12.307  10.394   0.894
34906SOL    HW1 6557  12.240  10.448   0.936
34906SOL    HW2 6558  12.299  10.308   0.936
34907SOL     OW 6559   1.824  10.901  11.166
34907SOL    HW1 6560   1.757  10.880  11.101
34907SOL    HW2 6561   1.899  10.845  11.143
34908SOL     OW 6562   6.147  14.167   0.095
34908SOL    HW1 6563   6.232  14.207   0.075
34908SOL    HW2 6564   6.164  14.073   0.100
34909SOL     OW 6565   1.406   8.615   8.597
34909SOL    HW1 6566   1.365   8.687   8.647
34909SOL    HW2 6567   1.367   8.621   8.510
34910SOL     OW 6568  10.440   3.743   5.247
34910SOL    HW1 6569  10.483   3.727   5.332
34910SOL    HW2 6570  10.426   3.838   5.245
34911SOL     OW 6571   9.537   9.908   8.378
34911SOL    HW1 6572   9.574   9.896   8.291
34911SOL    HW2 6573   9.579   9.986   8.413
34912SOL     OW 6574   6.012   3.633   7.597
34912SOL    HW1 6575   5.949   3.646   7.668
34912SOL    HW2 6576   6.062   3.715   7.593
34913SOL     OW 6577  14.380   1.285  12.001
34913SOL    HW1 6578  14.299   1.243  12.030
34913SOL    HW2 6579  14.448   1.221  12.021
34914SOL     OW 6580   0.381  13.394   7.080
34914SOL    HW1 6581   0.454  13.404   7.141
34914SOL    HW2 6582   0.422  13.394   6.994
34915SOL     OW 6583  11.224   0.284   9.554
34915SOL    HW1 6584  11.227   0.333   9.472
34915SOL    HW2 6585  11.316   0.277   9.581
34916SOL     OW 6586  11.012   9.815   1.612
34916SOL    HW1 6587  11.088   9.809   1.670
34916SOL    HW2 6588  10.952   9.874   1.658
34917SOL     OW 6589  12.608  13.186   9.505
34917SOL    HW1 6590  12.685  13.223   9.462
34917SOL    HW2 6591  12.579  13.253   9.567
34918SOL     OW 6592  11.058   9.675  14.289
34918SOL    HW1 6593  11.037   9.768  14.300
34918SOL    HW2 6594  11.029   9.634  14.371
34919SOL     OW 6595   8.634   1.355   4.777
34919SOL    HW1 6596   8.713   1.409   4.786
34919SOL    HW2 6597   8.664   1.266   4.796
34920SOL     OW 6598  10.002   7.280  10.531
34920SOL    HW1 6599   9.953   7.331  10.596
34920SOL    HW2 6600   9.999   7.333  10.451
34921SOL     OW 6601   8.459   7.251   0.995
34921SOL    HW1 6602   8.470   7.157   0.983
34921SOL    HW2 6603   8.543   7.280   1.032
34922SOL     OW 6604   8.381   4.853   7.266
34922SOL    HW1 6605   8.376   4.854   7.361
34922SOL    HW2 6606   8.328   4.777   7.240
34923SOL     OW 6607   6.039   8.926  10.148
34923SOL    HW1 6608   6.020   8.911  10.056
34923SOL    HW2 6609   6.005   9.014  10.165
34924SOL     OW 6610   3.632   4.512   0.120
34924SOL    HW1 6611   3.569   4.564   0.070
34924SOL    HW2 6612   3.606   4.523   0.212
34925SOL     OW 6613  11.529   9.400   0.218
34925SOL    HW1 6614  11.489   9.331   0.164
34925SOL    HW2 6615  11.480   9.479   0.196
34926SOL     OW 6616   0.114   7.595  11.388
34926SOL    HW1 6617   0.121   7.689  11.374
34926SOL    HW2 6618   0.190   7.559  11.344
34927SOL     OW 6619   6.660  14.280   5.278
34927SOL    HW1 6620   6.710  14.224   5.220
34927SOL    HW2 6621   6.640  14.358   5.226
34928SOL     OW 6622  13.918   6.788   9.790
34928SOL    HW1 6623  13.853   6.729   9.751
34928SOL    HW2 6624  14.002   6.746   9.774
34929SOL     OW 6625   0.755   6.272   2.757
34929SOL    HW1 6626   0.734   6.189   2.714
34929SOL    HW2 6627   0.751   6.337   2.687
34930SOL     OW 6628   9.966   0.663  10.850
34930SOL    HW1 6629   9.898   0.596  10.841
34930SOL    HW2 6630  10.003   0.672  10.762
34931SOL     OW 6631  11.869   6.288   7.486
34931SOL    HW1 6632  11.789   6.282   7.434
34931SOL    HW2 6633  11.902   6.198   7.490
34932SOL     OW 6634   9.613  10.743   1.149
34932SOL    HW1 6635   9.631  10.782   1.064
34932SOL    HW2 6636   9.579  10.815   1.203
34933SOL     OW 6637   3.362   2.800   8.863
34933SOL    HW1 6638   3.457   2.805   8.849
34933SOL    HW2 6639   3.335   2.724   8.812
34934SOL     OW 6640  14.249  14.688   8.835
34934SOL    HW1 6641  14.309  14.626   8.793
34934SOL    HW2 6642  14.174  14.693   8.776
34935SOL     OW 6643  11.967   7.032   2.781
34935SOL    HW1 6644  11.928   7.100   2.836
34935SOL    HW2 6645  11.939   7.055   2.692
34936SOL     OW 6646   1.356  12.507  10.884
34936SOL    HW1 6647   1.432  12.543  10.930
34936SOL    HW2 6648   1.388  12.489  10.795
34937SOL     OW 6649   7.896   5.950   2.261
34937SOL    HW1 6650   7.836   5.878   2.282
34937SOL    HW2 6651   7.881   6.014   2.330
34938SOL     OW 6652  10.518   2.483   1.773
34938SOL    HW1 6653  10.596   2.428   1.771
34938SOL    HW2 6654  10.452   2.433   1.725
34939SOL     OW 6655   4.335   6.082  13.070
34939SOL    HW1 6656   4.395   6.018  13.032
34939SOL    HW2 6657   4.344   6.160  13.016
34940SOL     OW 6658  10.653   5.626  11.681
34940SOL    HW1 6659  10.634   5.536  11.710
34940SOL    HW2 6660  10.639   5.624  11.586
34941SOL     OW 6661   6.981  14.071   8.770
34941SOL    HW1 6662   7.007  14.129   8.841
34941SOL    HW2 6663   6.935  13.999   8.813
34942SOL     OW 6664   6.364  13.234  13.000
34942SOL    HW1 6665   6.398  13.173  12.935
34942SOL    HW2 6666   6.269  13.235  12.986
34943SOL     OW 6667   1.799  14.437   1.343
34943SOL    HW1 6668   1.775  14.529   1.356
34943SOL    HW2 6669   1.805  14.402   1.431
34944SOL     OW 6670   3.877  10.853   8.444
34944SOL    HW1 6671   3.806  10.916   8.429
34944SOL    HW2 6672   3.843  10.794   8.511
34945SOL     OW 6673  10.017  11.528   2.773
34945SOL    HW1 6674  10.061  11.509   2.690
34945SOL    HW2 6675   9.976  11.446   2.798
34946SOL     OW 6676   6.659  11.349  10.353
34946SOL    HW1 6677   6.748  11.361  10.386
34946SOL    HW2 6678   6.657  11.258  10.323
34947SOL     OW 6679   1.155   9.458  10.555
34947SOL    HW1 6680   1.144   9.398  10.628
34947SOL    HW2 6681   1.180   9.541  10.596
34948SOL     OW 6682  10.667   6.454  13.770
34948SOL    HW1 6683  10.624   6.379  13.811
34948SOL    HW2 6684  10.751   6.461  13.815
34949SOL     OW 6685   4.524   0.016   7.476
34949SOL    HW1 6686   4.544  14.805   7.501
34949SOL    HW2 6687   4.556   0.024   7.386
34950SOL     OW 6688   7.798   4.342   0.284
34950SOL    HW1 6689   7.855   4.309   0.354
34950SOL    HW2 6690   7.741   4.268   0.262
34951SOL     OW 6691  12.105   6.517   5.326
34951SOL    HW1 6692  12.153   6.478   5.399
34951SOL    HW2 6693  12.113   6.453   5.256
34952SOL     OW 6694   9.905   8.320   3.878
34952SOL    HW1 6695   9.885   8.410   3.903
34952SOL    HW2 6696   9.874   8.267   3.951
34953SOL     OW 6697   4.934   3.823   0.761
34953SOL    HW1 6698   5.005   3.860   0.812
34953SOL    HW2 6699   4.908   3.745   0.809
34954SOL     OW 6700  12.381  11.763  14.084
34954SOL    HW1 6701  12.356  11.854  14.099
34954SOL    HW2 6702  12.312  11.728  14.028
34955SOL     OW 6703  14.662   9.869  13.879
34955SOL    HW1 6704  14.701   9.790  13.917
34955SOL    HW2 6705  14.662   9.853  13.784
34956SOL     OW 6706  10.588   7.955  14.581
34956SOL    HW1 6707  10.652   7.994  14.522
34956SOL    HW2 6708  10.508   7.947  14.530
34957SOL     OW 6709   8.375   5.666  13.820
34957SOL    HW1 6710   8.329   5.744  13.850
34957SOL    HW2 6711   8.308   5.597  13.819
34958SOL     OW 6712   5.177   5.091   7.541
34958SOL    HW1 6713   5.137   5.005   7.530
34958SOL    HW2 6714   5.261   5.085   7.495
34959SOL     OW 6715   7.065  12.476  10.622
34959SOL    HW1 6716   7.072  12.387  10.586
34959SOL    HW2 6717   7.142  12.521  10.588
34960SOL     OW 6718   9.085  12.786   1.346
34960SOL    HW1 6719   9.068  12.793   1.439
34960SOL    HW2 6720   9.009  12.825   1.304
34961SOL     OW 6721   7.780   4.637   1.203
34961SOL    HW1 6722   7.773   4.542   1.189
34961SOL    HW2 6723   7.690   4.667   1.214
34962SOL     OW 6724   8.901   6.642  11.496
34962SOL    HW1 6725   8.948   6.642  11.579
34962SOL    HW2 6726   8.968   6.625  11.430
34963SOL     OW 6727   8.816   4.200   1.299
34963SOL    HW1 6728   8.753   4.215   1.369
34963SOL    HW2 6729   8.877   4.135   1.335
34964SOL     OW 6730  12.911   2.882   5.576
34964SOL    HW1 6731  12.864   2.927   5.646
34964SOL    HW2 6732  12.988   2.936   5.559
34965SOL     OW 6733   1.052   8.570   3.296
34965SOL    HW1 6734   0.966   8.585   3.257
34965SOL    HW2 6735   1.063   8.642   3.359
34966SOL     OW 6736   4.374  12.911   1.551
34966SOL    HW1 6737   4.416  12.891   1.467
34966SOL    HW2 6738   4.379  13.006   1.557
34967SOL     OW 6739  13.285   2.404   4.003
34967SOL    HW1 6740  13.250   2.322   4.038
34967SOL    HW2 6741  13.327   2.446   4.078
34968SOL     OW 6742   9.910  12.069   3.009
34968SOL    HW1 6743   9.922  12.107   2.922
34968SOL    HW2 6744   9.899  12.145   3.066
34969SOL     OW 6745   8.713   1.175   6.316
34969SOL    HW1 6746   8.770   1.157   6.241
34969SOL    HW2 6747   8.741   1.262   6.347
34970SOL     OW 6748   4.397  10.802  11.861
34970SOL    HW1 6749   4.334  10.859  11.816
34970SOL    HW2 6750   4.482  10.833  11.832
34971SOL     OW 6751   9.379  11.302   0.408
34971SOL    HW1 6752   9.304  11.311   0.349
34971SOL    HW2 6753   9.406  11.210   0.399
34972SOL     OW 6754   0.784   8.724  10.794
34972SOL    HW1 6755   0.845   8.666  10.749
34972SOL    HW2 6756   0.714   8.666  10.824
34973SOL     OW 6757   2.239  11.551  10.345
34973SOL    HW1 6758   2.319  11.602  10.337
34973SOL    HW2 6759   2.268  11.460  10.349
34974SOL     OW 6760   3.882  10.555   4.007
34974SOL    HW1 6761   3.921  10.532   3.923
34974SOL    HW2 6762   3.881  10.650   4.008
34975SOL     OW 6763  14.164   1.926  10.903
34975SOL    HW1 6764  14.169   1.946  10.996
34975SOL    HW2 6765  14.130   1.837  10.899
34976SOL     OW 6766   7.102   9.399  12.725
34976SOL    HW1 6767   7.097   9.330  12.792
34976SOL    HW2 6768   7.104   9.351  12.642
34977SOL     OW 6769  14.385  11.049   4.834
34977SOL    HW1 6770  14.461  11.041   4.891
34977SOL    HW2 6771  14.408  10.998   4.756
34978SOL     OW 6772   8.202  12.564   9.992
34978SOL    HW1 6773   8.288  12.541  10.028
34978SOL    HW2 6774   8.205  12.533   9.901
34979SOL     OW 6775   4.500   9.815   2.799
34979SOL    HW1 6776   4.538   9.813   2.886
34979SOL    HW2 6777   4.453   9.732   2.790
34980SOL     OW 6778  10.134  14.281   2.234
34980SOL    HW1 6779  10.090  14.201   2.208
34980SOL    HW2 6780  10.119  14.288   2.329
34981SOL     OW 6781   4.669  14.746   1.155
34981SOL    HW1 6782   4.702  14.790   1.233
34981SOL    HW2 6783   4.736  14.681   1.134
34982SOL     OW 6784   5.556  10.855   0.292
34982SOL    HW1 6785   5.574  10.762   0.301
34982SOL    HW2 6786   5.560  10.889   0.381
34983SOL     OW 6787   6.958  12.566  14.515
34983SOL    HW1 6788   6.994  12.610  14.592
34983SOL    HW2 6789   7.030  12.516  14.479
34984SOL     OW 6790   9.436   3.800  10.566
34984SOL    HW1 6791   9.484   3.873  10.527
34984SOL    HW2 6792   9.482   3.782  10.648
34985SOL     OW 6793  12.761   2.273   7.788
34985SOL    HW1 6794  12.828   2.274   7.857
34985SOL    HW2 6795  12.773   2.356   7.742
34986SOL     OW 6796   1.772  11.502   5.987
34986SOL    HW1 6797   1.815  11.555   5.920
34986SOL    HW2 6798   1.766  11.559   6.063
34987SOL     OW 6799   0.277   0.459   9.038
34987SOL    HW1 6800   0.331   0.382   9.055
34987SOL    HW2 6801   0.200   0.447   9.095
34988SOL     OW 6802   2.722   8.865  14.011
34988SOL    HW1 6803   2.804   8.911  14.028
34988SOL    HW2 6804   2.696   8.829  14.095
34989SOL     OW 6805  12.040   9.424   2.083
34989SOL    HW1 6806  12.064   9.332   2.070
34989SOL    HW2 6807  12.086   9.450   2.162
34990SOL     OW 6808   0.967  11.869   8.415
34990SOL    HW1 6809   0.991  11.892   8.504
34990SOL    HW2 6810   0.873  11.886   8.410
34991SOL     OW 6811   6.929  14.078   3.586
34991SOL    HW1 6812   6.960  14.000   3.632
34991SOL    HW2 6813   6.923  14.145   3.653
34992SOL     OW 6814   6.117   7.995   2.851
34992SOL    HW1 6815   6.193   8.024   2.800
34992SOL    HW2 6816   6.045   7.992   2.788
34993SOL     OW 6817  14.413   5.013   8.583
34993SOL    HW1 6818  14.492   5.050   8.622
34993SOL    HW2 6819  14.435   5.002   8.490
34994SOL     OW 6820   3.657  12.625   7.279
34994SOL    HW1 6821   3.657  12.560   7.208
34994SOL    HW2 6822   3.737  12.606   7.328
34995SOL     OW 6823   0.941   5.790  12.492
34995SOL    HW1 6824   1.027   5.758  12.465
34995SOL    HW2 6825   0.891   5.793  12.410
34996SOL     OW 6826   6.160  13.873   5.619
34996SOL    HW1 6827   6.104  13.828   5.682
34996SOL    HW2 6828   6.137  13.836   5.534
34997SOL     OW 6829   8.187   5.042   4.547
34997SOL    HW1 6830   8.111   5.076   4.595
34997SOL    HW2 6831   8.193   5.098   4.470
34998SOL     OW 6832   3.158  10.236   0.311
34998SOL    HW1 6833   3.235  10.194   0.350
34998SOL    HW2 6834   3.084  10.202   0.362
34999SOL     OW 6835   7.452  14.592   7.104
34999SOL    HW1 6836   7.437  14.507   7.145
34999SOL    HW2 6837   7.439  14.655   7.174
35000SOL     OW 6838   5.070   4.418   9.809
35000SOL    HW1 6839   5.045   4.361   9.882
35000SOL    HW2 6840   5.151   4.380   9.776
35001SOL     OW 6841   1.315   9.866   3.777
35001SOL    HW1 6842   1.351   9.778   3.768
35001SOL    HW2 6843   1.315   9.902   3.688
35002SOL     OW 6844   3.818  10.341   0.201
35002SOL    HW1 6845   3.757  10.363   0.271
35002SOL    HW2 6846   3.814  10.246   0.195
35003SOL     OW 6847  13.026   3.729  11.620
35003SOL    HW1 6848  12.956   3.769  11.670
35003SOL    HW2 6849  12.996   3.731  11.529
35004SOL     OW 6850  13.570   3.983   1.583
35004SOL    HW1 6851  13.561   4.017   1.494
35004SOL    HW2 6852  13.660   4.004   1.608
35005SOL     OW 6853   2.224  14.492   5.780
35005SOL    HW1 6854   2.186  14.444   5.854
35005SOL    HW2 6855   2.173  14.573   5.775
35006SOL     OW 6856  13.364  12.098  13.587
35006SOL    HW1 6857  13.454  12.081  13.558
35006SOL    HW2 6858  13.309  12.069  13.514
35007SOL     OW 6859   7.081   9.388   0.579
35007SOL    HW1 6860   7.164   9.341   0.580
35007SOL    HW2 6861   7.033   9.353   0.653
35008SOL     OW 6862   5.246   9.332   0.984
35008SOL    HW1 6863   5.164   9.341   0.935
35008SOL    HW2 6864   5.223   9.276   1.058
35009SOL     OW 6865  10.873  10.805   7.235
35009SOL    HW1 6866  10.914  10.892   7.241
35009SOL    HW2 6867  10.936  10.746   7.276
35010SOL     OW 6868  11.311   4.293   5.254
35010SOL    HW1 6869  11.378   4.320   5.316
35010SOL    HW2 6870  11.245   4.361   5.259
35011SOL     OW 6871  12.808  14.304  11.413
35011SOL    HW1 6872  12.753  14.330  11.487
35011SOL    HW2 6873  12.757  14.236  11.369
35012SOL     OW 6874   5.956   1.328   1.642
35012SOL    HW1 6875   5.911   1.274   1.707
35012SOL    HW2 6876   6.047   1.333   1.673
35013SOL     OW 6877  12.756   0.743  10.269
35013SOL    HW1 6878  12.772   0.819  10.325
35013SOL    HW2 6879  12.840   0.696  10.268
35014SOL     OW 6880  14.102   6.401  13.764
35014SOL    HW1 6881  14.169   6.346  13.805
35014SOL    HW2 6882  14.143   6.433  13.684
35015SOL     OW 6883   8.364   7.952  11.829
35015SOL    HW1 6884   8.396   8.014  11.895
35015SOL    HW2 6885   8.312   8.005  11.770
35016SOL     OW 6886   0.152   4.825   7.460
35016SOL    HW1 6887   0.059   4.847   7.454
35016SOL    HW2 6888   0.157   4.761   7.531
35017SOL     OW 6889  14.158   1.857  11.333
35017SOL    HW1 6890  14.078   1.889  11.291
35017SOL    HW2 6891  14.217   1.837  11.260
35018SOL     OW 6892   3.711   1.981  10.150
35018SOL    HW1 6893   3.730   1.985  10.244
35018SOL    HW2 6894   3.662   2.062  10.132
35019SOL     OW 6895  11.419   1.546   7.052
35019SOL    HW1 6896  11.486   1.614   7.042
35019SOL    HW2 6897  11.395   1.551   7.144
35020SOL     OW 6898  11.262   0.844  13.441
35020SOL    HW1 6899  11.222   0.780  13.500
35020SOL    HW2 6900  11.352   0.852  13.472
35021SOL     OW 6901   0.486  12.484   5.076
35021SOL    HW1 6902   0.552  12.520   5.017
35021SOL    HW2 6903   0.405  12.485   5.025
35022SOL     OW 6904   8.138   6.675   4.247
35022SOL    HW1 6905   8.190   6.601   4.216
35022SOL    HW2 6906   8.059   6.673   4.194
35023SOL     OW 6907  11.360  11.625   5.870
35023SOL    HW1 6908  11.396  11.714   5.871
35023SOL    HW2 6909  11.437  11.568   5.867
35024SOL     OW 6910   5.593  12.036   5.850
35024SOL    HW1 6911   5.640  12.112   5.885
35024SOL    HW2 6912   5.653  11.963   5.861
35025SOL     OW 6913   3.821   4.972  12.127
35025SOL    HW1 6914   3.908   4.985  12.165
35025SOL    HW2 6915   3.821   5.026  12.048
35026SOL     OW 6916   0.530   4.121   0.639
35026SOL    HW1 6917   0.604   4.060   0.643
35026SOL    HW2 6918   0.552   4.190   0.702
35027SOL     OW 6919   9.790  10.535   5.406
35027SOL    HW1 6920   9.800  10.527   5.311
35027SOL    HW2 6921   9.698  10.516   5.423
35028SOL     OW 6922   1.967   6.392   2.905
35028SOL    HW1 6923   1.902   6.418   2.840
35028SOL    HW2 6924   2.005   6.475   2.936
35029SOL     OW 6925  10.984   2.204   5.889
35029SOL    HW1 6926  10.891   2.222   5.897
35029SOL    HW2 6927  10.989   2.125   5.835
35030SOL     OW 6928  14.558  13.970   8.396
35030SOL    HW1 6929  14.539  14.061   8.375
35030SOL    HW2 6930  14.473  13.930   8.413
35031SOL     OW 6931  10.762  11.010   8.906
35031SOL    HW1 6932  10.782  11.041   8.818
35031SOL    HW2 6933  10.730  11.088   8.952
35032SOL     OW 6934  14.485   2.829   6.072
35032SOL    HW1 6935  14.486   2.924   6.073
35032SOL    HW2 6936  14.416   2.807   6.009
35033SOL     OW 6937   5.200   1.905  11.223
35033SOL    HW1 6938   5.188   1.856  11.142
35033SOL    HW2 6939   5.287   1.881  11.254
35034SOL     OW 6940   9.050  11.338  10.944
35034SOL    HW1 6941   9.032  11.246  10.958
35034SOL    HW2 6942   9.010  11.358  10.859
35035SOL     OW 6943   1.694   6.449  14.868
35035SOL    HW1 6944   1.618   6.414  14.820
35035SOL    HW2 6945   1.670   6.540   0.008
35036SOL     OW 6946   5.411   3.640  10.556
35036SOL    HW1 6947   5.339   3.703  10.556
35036SOL    HW2 6948   5.457   3.656  10.638
35037SOL     OW 6949  12.093  11.740  13.017
35037SOL    HW1 6950  12.078  11.671  13.081
35037SOL    HW2 6951  12.184  11.726  12.988
35038SOL     OW 6952   5.415   9.989  12.574
35038SOL    HW1 6953   5.439   9.923  12.638
35038SOL    HW2 6954   5.481   9.980  12.505
35039SOL     OW 6955  13.029   2.973   8.167
35039SOL    HW1 6956  13.080   2.973   8.247
35039SOL    HW2 6957  13.016   3.066   8.147
35040SOL     OW 6958  14.403   1.819  13.520
35040SOL    HW1 6959  14.465   1.752  13.491
35040SOL    HW2 6960  14.404   1.884  13.450
35041SOL     OW 6961  13.376   8.180   8.264
35041SOL    HW1 6962  13.352   8.177   8.171
35041SOL    HW2 6963  13.384   8.089   8.290
35042SOL     OW 6964   1.457   1.040   2.567
35042SOL    HW1 6965   1.378   1.018   2.518
35042SOL    HW2 6966   1.439   1.127   2.603
35043SOL     OW 6967   0.044   2.895   3.692
35043SOL    HW1 6968   0.039   2.801   3.712
35043SOL    HW2 6969   0.015   2.902   3.601
35044SOL     OW 6970   1.826   7.432  14.846
35044SOL    HW1 6971   1.898   7.381  14.809
35044SOL    HW2 6972   1.865   7.516  14.870
35045SOL     OW 6973   2.678   4.252   7.055
35045SOL    HW1 6974   2.714   4.321   7.111
35045SOL    HW2 6975   2.741   4.245   6.983
35046SOL     OW 6976   4.341  12.190  11.857
35046SOL    HW1 6977   4.305  12.104  11.836
35046SOL    HW2 6978   4.267  12.238  11.895
35047SOL     OW 6979   1.444  11.733   3.570
35047SOL    HW1 6980   1.466  11.653   3.522
35047SOL    HW2 6981   1.452  11.708   3.662
35048SOL     OW 6982   5.291   5.600   9.109
35048SOL    HW1 6983   5.349   5.667   9.145
35048SOL    HW2 6984   5.217   5.597   9.170
35049SOL     OW 6985   2.066   3.072  12.527
35049SOL    HW1 6986   2.150   3.105  12.560
35049SOL    HW2 6987   2.058   3.109  12.439
35050SOL     OW 6988   3.153   1.290  13.053
35050SOL    HW1 6989   3.218   1.332  13.109
35050SOL    HW2 6990   3.181   1.310  12.964
35051SOL     OW 6991   3.292   1.273  13.753
35051SOL    HW1 6992   3.219   1.217  13.777
35051SOL    HW2 6993   3.337   1.291  13.835
35052SOL     OW 6994  11.833   8.098  13.728
35052SOL    HW1 6995  11.766   8.049  13.681
35052SOL    HW2 6996  11.848   8.176  13.675
35053SOL     OW 6997   4.150   3.011   2.887
35053SOL    HW1 6998   4.077   2.967   2.844
35053SOL    HW2 6999   4.179   2.949   2.954
35054SOL     OW 7000  14.109   6.653   3.909
35054SOL    HW1 7001  14.066   6.697   3.982
35054SOL    HW2 7002  14.051   6.581   3.886
35055SOL     OW 7003  10.317   9.912   6.117
35055SOL    HW1 7004  10.337   9.984   6.057
35055SOL    HW2 7005  10.364   9.934   6.197
35056SOL     OW 7006  14.531  10.627  12.668
35056SOL    HW1 7007  14.542  10.699  12.606
35056SOL    HW2 7008  14.483  10.560  12.620
35057SOL     OW 7009   5.820   0.495   9.664
35057SOL    HW1 7010   5.819   0.449   9.580
35057SOL    HW2 7011   5.912   0.517   9.678
35058SOL     OW 7012  13.799   0.217   4.598
35058SOL    HW1 7013  13.753   0.284   4.547
35058SOL    HW2 7014  13.880   0.260   4.626
35059SOL     OW 7015   4.189  11.765   3.892
35059SOL    HW1 7016   4.245  11.817   3.834
35059SOL    HW2 7017   4.100  11.779   3.858
35060SOL     OW 7018   0.878  13.200  12.860
35060SOL    HW1 7019   0.936  13.242  12.796
35060SOL    HW2 7020   0.791  13.209  12.822
35061SOL     OW 7021  11.658   8.012   7.134
35061SOL    HW1 7022  11.683   8.049   7.049
35061SOL    HW2 7023  11.563   8.020   7.137
35062SOL     OW 7024  14.847   1.397   3.602
35062SOL    HW1 7025  14.868   1.336   3.531
35062SOL    HW2 7026   0.043   1.392   3.661
35063SOL     OW 7027   3.193   7.807  12.802
35063SOL    HW1 7028   3.241   7.744  12.749
35063SOL    HW2 7029   3.243   7.889  12.794
35064SOL     OW 7030   8.609  14.145   1.758
35064SOL    HW1 7031   8.592  14.148   1.852
35064SOL    HW2 7032   8.523  14.139   1.718
35065SOL     OW 7033   8.375   9.709  10.444
35065SOL    HW1 7034   8.318   9.704  10.367
35065SOL    HW2 7035   8.368   9.622  10.484
35066SOL     OW 7036   7.334   2.160  11.362
35066SOL    HW1 7037   7.247   2.198  11.373
35066SOL    HW2 7038   7.333   2.081  11.416
35067SOL     OW 7039   1.739   4.096  14.097
35067SOL    HW1 7040   1.673   4.158  14.065
35067SOL    HW2 7041   1.740   4.026  14.032
35068SOL     OW 7042  11.146   1.967   5.489
35068SOL    HW1 7043  11.193   1.885   5.505
35068SOL    HW2 7044  11.066   1.940   5.443
35069SOL     OW 7045  12.742  12.504   1.948
35069SOL    HW1 7046  12.654  12.533   1.972
35069SOL    HW2 7047  12.800  12.560   1.998
35070SOL     OW 7048   6.535  10.049   3.151
35070SOL    HW1 7049   6.479  10.099   3.090
35070SOL    HW2 7050   6.543   9.963   3.110
35071SOL     OW 7051   0.955   7.154   5.199
35071SOL    HW1 7052   0.942   7.144   5.293
35071SOL    HW2 7053   0.984   7.245   5.188
35072SOL     OW 7054   2.797   4.972   7.525
35072SOL    HW1 7055   2.865   4.945   7.463
35072SOL    HW2 7056   2.751   4.891   7.548
35073SOL     OW 7057  10.827   0.407   8.476
35073SOL    HW1 7058  10.775   0.480   8.509
35073SOL    HW2 7059  10.845   0.353   8.553
35074SOL     OW 7060   9.892  11.270  14.366
35074SOL    HW1 7061   9.932  11.201  14.420
35074SOL    HW2 7062   9.890  11.232  14.278
35075SOL     OW 7063   1.443  10.525   1.381
35075SOL    HW1 7064   1.524  10.574   1.368
35075SOL    HW2 7065   1.445  10.458   1.311
35076SOL     OW 7066   5.999   7.546  13.257
35076SOL    HW1 7067   6.019   7.550  13.163
35076SOL    HW2 7068   5.910   7.511  13.261
35077SOL     OW 7069   4.515   6.107   7.436
35077SOL    HW1 7070   4.476   6.135   7.518
35077SOL    HW2 7071   4.470   6.157   7.369
35078SOL     OW 7072   5.850   5.963   9.288
35078SOL    HW1 7073   5.836   5.972   9.193
35078SOL    HW2 7074   5.769   5.997   9.327
35079SOL     OW 7075  11.764   5.013   2.333
35079SOL    HW1 7076  11.785   4.948   2.400
35079SOL    HW2 7077  11.828   5.082   2.346
35080SOL     OW 7078   2.672   5.658   6.882
35080SOL    HW1 7079   2.600   5.677   6.822
35080SOL    HW2 7080   2.655   5.713   6.958
35081SOL     OW 7081   8.180  12.235  14.430
35081SOL    HW1 7082   8.212  12.165  14.487
35081SOL    HW2 7083   8.201  12.205  14.341
35082SOL     OW 7084  14.504   2.252   6.693
35082SOL    HW1 7085  14.538   2.167   6.664
35082SOL    HW2 7086  14.486   2.240   6.786
35083SOL     OW 7087   7.313  12.677   8.340
35083SOL    HW1 7088   7.275  12.628   8.267
35083SOL    HW2 7089   7.240  12.690   8.400
35084SOL     OW 7090  10.479  11.562  14.530
35084SOL    HW1 7091  10.391  11.554  14.566
35084SOL    HW2 7092  10.464  11.585  14.438
35085SOL     OW 7093   0.654   2.815  10.084
35085SOL    HW1 7094   0.635   2.730  10.044
35085SOL    HW2 7095   0.593   2.821  10.157
35086SOL     OW 7096   9.772   6.613   0.681
35086SOL    HW1 7097   9.775   6.527   0.640
35086SOL    HW2 7098   9.855   6.622   0.726
35087SOL     OW 7099   9.795   7.907   0.984
35087SOL    HW1 7100   9.820   7.816   1.003
35087SOL    HW2 7101   9.779   7.908   0.890
35088SOL     OW 7102   6.880   7.247  14.304
35088SOL    HW1 7103   6.861   7.248  14.210
35088SOL    HW2 7104   6.975   7.260  14.310
35089SOL     OW 7105   3.402   2.362  10.501
35089SOL    HW1 7106   3.407   2.386  10.594
35089SOL    HW2 7107   3.312   2.385  10.476
35090SOL     OW 7108  14.452   9.260  12.447
35090SOL    HW1 7109  14.520   9.295  12.389
35090SOL    HW2 7110  14.494   9.186  12.491
35091SOL     OW 7111   9.818  12.880  14.424
35091SOL    HW1 7112   9.880  12.813  14.396
35091SOL    HW2 7113   9.739  12.833  14.448
35092SOL     OW 7114   4.425   6.033   2.627
35092SOL    HW1 7115   4.514   6.056   2.603
35092SOL    HW2 7116   4.370   6.087   2.571
35093SOL     OW 7117  14.812   5.530  13.430
35093SOL    HW1 7118   0.027   5.542  13.419
35093SOL    HW2 7119  14.791   5.573  13.512
35094SOL     OW 7120   5.859  14.698  11.882
35094SOL    HW1 7121   5.822  14.728  11.799
35094SOL    HW2 7122   5.786  14.699  11.943
35095SOL     OW 7123   7.266  13.099   7.764
35095SOL    HW1 7124   7.301  13.018   7.726
35095SOL    HW2 7125   7.299  13.169   7.707
35096SOL     OW 7126   1.073   6.976   0.475
35096SOL    HW1 7127   0.999   7.027   0.442
35096SOL    HW2 7128   1.130   6.964   0.398
35097SOL     OW 7129   3.936   9.155   9.379
35097SOL    HW1 7130   3.931   9.241   9.420
35097SOL    HW2 7131   3.870   9.157   9.310
35098SOL     OW 7132  12.080   5.610   0.013
35098SOL    HW1 7133  12.089   5.542  14.826
35098SOL    HW2 7134  12.059   5.690  14.844
35099SOL     OW 7135   3.358   4.581  11.252
35099SOL    HW1 7136   3.451   4.570  11.269
35099SOL    HW2 7137   3.350   4.578  11.157
35100SOL     OW 7138  14.612   6.492   3.189
35100SOL    HW1 7139  14.649   6.531   3.110
35100SOL    HW2 7140  14.564   6.563   3.231
35101SOL     OW 7141   2.343  10.541  13.663
35101SOL    HW1 7142   2.434  10.546  13.694
35101SOL    HW2 7143   2.297  10.608  13.713
35102SOL     OW 7144  10.502   6.743  12.995
35102SOL    HW1 7145  10.504   6.665  13.050
35102SOL    HW2 7146  10.590   6.781  13.003
35103SOL     OW 7147  13.480  11.303  11.467
35103SOL    HW1 7148  13.389  11.275  11.460
35103SOL    HW2 7149  13.531  11.222  11.466
35104SOL     OW 7150   9.907   1.086  12.873
35104SOL    HW1 7151   9.864   1.138  12.940
35104SOL    HW2 7152   9.871   1.119  12.790
35105SOL     OW 7153   1.906   0.853   9.288
35105SOL    HW1 7154   1.992   0.883   9.257
35105SOL    HW2 7155   1.843   0.910   9.245
35106SOL     OW 7156   2.199   3.315   2.281
35106SOL    HW1 7157   2.143   3.308   2.359
35106SOL    HW2 7158   2.147   3.277   2.211
35107SOL     OW 7159  13.146  11.538   3.749
35107SOL    HW1 7160  13.056  11.561   3.770
35107SOL    HW2 7161  13.199  11.598   3.802
35108SOL     OW 7162   0.021   1.921   0.765
35108SOL    HW1 7163   0.030   1.874   0.848
35108SOL    HW2 7164   0.074   1.871   0.703
35109SOL     OW 7165  14.207   0.833   9.171
35109SOL    HW1 7166  14.282   0.775   9.159
35109SOL    HW2 7167  14.205   0.849   9.266
35110SOL     OW 7168   8.769  12.571   3.346
35110SOL    HW1 7169   8.854  12.532   3.328
35110SOL    HW2 7170   8.706  12.505   3.320
35111SOL     OW 7171   9.784  12.443   2.274
35111SOL    HW1 7172   9.741  12.397   2.202
35111SOL    HW2 7173   9.766  12.390   2.352
35112SOL     OW 7174   0.630  11.184   8.568
35112SOL    HW1 7175   0.646  11.253   8.503
35112SOL    HW2 7176   0.538  11.162   8.556
35113SOL     OW 7177  11.937   1.831   7.546
35113SOL    HW1 7178  12.019   1.873   7.520
35113SOL    HW2 7179  11.868   1.888   7.509
35114SOL     OW 7180   4.285   2.693   1.756
35114SOL    HW1 7181   4.364   2.735   1.791
35114SOL    HW2 7182   4.262   2.626   1.820
35115SOL     OW 7183   5.816   6.404   0.246
35115SOL    HW1 7184   5.784   6.407   0.156
35115SOL    HW2 7185   5.911   6.401   0.238
35116SOL     OW 7186   4.173   8.138  12.738
35116SOL    HW1 7187   4.099   8.190  12.705
35116SOL    HW2 7188   4.193   8.177  12.823
35117SOL     OW 7189   7.056   5.359   5.833
35117SOL    HW1 7190   7.030   5.451   5.836
35117SOL    HW2 7191   6.986   5.316   5.785
35118SOL     OW 7192  10.935  11.961   1.232
35118SOL    HW1 7193  10.948  11.952   1.137
35118SOL    HW2 7194  11.023  11.957   1.269
35119SOL     OW 7195  13.400   8.701   7.135
35119SOL    HW1 7196  13.338   8.736   7.071
35119SOL    HW2 7197  13.445   8.631   7.087
35120SOL     OW 7198   4.473   6.854   4.524
35120SOL    HW1 7199   4.436   6.931   4.568
35120SOL    HW2 7200   4.551   6.887   4.480
35121SOL     OW 7201  10.957   3.015  13.569
35121SOL    HW1 7202  10.929   3.058  13.649
35121SOL    HW2 7203  10.921   3.068  13.498
35122SOL     OW 7204   5.705  10.810  13.163
35122SOL    HW1 7205   5.679  10.722  13.137
35122SOL    HW2 7206   5.776  10.797  13.225
35123SOL     OW 7207   2.908   4.749  10.973
35123SOL    HW1 7208   2.941   4.662  10.996
35123SOL    HW2 7209   2.834   4.762  11.033
35124SOL     OW 7210   8.643   1.650   3.323
35124SOL    HW1 7211   8.569   1.707   3.344
35124SOL    HW2 7212   8.649   1.590   3.398
35125SOL     OW 7213   7.075   4.781   4.213
35125SOL    HW1 7214   7.141   4.844   4.185
35125SOL    HW2 7215   7.023   4.829   4.278
35126SOL     OW 7216  13.008   3.379   0.345
35126SOL    HW1 7217  12.915   3.355   0.337
35126SOL    HW2 7218  13.037   3.391   0.255
35127SOL     OW 7219   1.121  10.839   3.163
35127SOL    HW1 7220   1.067  10.917   3.150
35127SOL    HW2 7221   1.071  10.785   3.223
35128SOL     OW 7222   9.366   2.687  12.380
35128SOL    HW1 7223   9.454   2.708  12.349
35128SOL    HW2 7224   9.318   2.769  12.373
35129SOL     OW 7225   3.354   9.110  10.353
35129SOL    HW1 7226   3.346   9.069  10.266
35129SOL    HW2 7227   3.448   9.123  10.364
35130SOL     OW 7228   4.951  14.395   6.784
35130SOL    HW1 7229   4.913  14.436   6.861
35130SOL    HW2 7230   4.934  14.302   6.795
35131SOL     OW 7231   4.962  10.191   8.213
35131SOL    HW1 7232   4.926  10.279   8.224
35131SOL    HW2 7233   5.030  10.185   8.280
35132SOL     OW 7234   9.536  11.440   6.666
35132SOL    HW1 7235   9.448  11.408   6.648
35132SOL    HW2 7236   9.582  11.431   6.582
35133SOL     OW 7237   8.576  10.772   6.107
35133SOL    HW1 7238   8.620  10.710   6.166
35133SOL    HW2 7239   8.566  10.723   6.025
35134SOL     OW 7240  10.806   4.403   7.340
35134SOL    HW1 7241  10.754   4.418   7.261
35134SOL    HW2 7242  10.766   4.458   7.407
35135SOL     OW 7243   0.497  12.756   7.434
35135SOL    HW1 7244   0.543  12.678   7.463
35135SOL    HW2 7245   0.521  12.764   7.341
35136SOL     OW 7246   1.812   0.937   7.537
35136SOL    HW1 7247   1.800   1.019   7.586
35136SOL    HW2 7248   1.777   0.870   7.595
35137SOL     OW 7249  11.202   8.414  14.819
35137SOL    HW1 7250  11.133   8.384  14.879
35137SOL    HW2 7251  11.269   8.346  14.823
35138SOL     OW 7252  14.471  14.155  14.349
35138SOL    HW1 7253  14.517  14.238  14.336
35138SOL    HW2 7254  14.501  14.100  14.276
35139SOL     OW 7255   2.318   8.895   4.766
35139SOL    HW1 7256   2.394   8.876   4.821
35139SOL    HW2 7257   2.243   8.863   4.816
35140SOL     OW 7258  10.400   7.564   4.145
35140SOL    HW1 7259  10.479   7.616   4.131
35140SOL    HW2 7260  10.363   7.553   4.058
35141SOL     OW 7261   9.290   6.444   7.495
35141SOL    HW1 7262   9.269   6.521   7.547
35141SOL    HW2 7263   9.330   6.480   7.416
35142SOL     OW 7264  14.080  11.692   2.108
35142SOL    HW1 7265  14.112  11.780   2.091
35142SOL    HW2 7266  14.048  11.661   2.023
35143SOL     OW 7267  13.576  11.912   8.099
35143SOL    HW1 7268  13.613  11.859   8.028
35143SOL    HW2 7269  13.627  11.993   8.098
35144SOL     OW 7270  14.590   8.161  14.655
35144SOL    HW1 7271  14.612   8.227  14.721
35144SOL    HW2 7272  14.653   8.176  14.585
35145SOL     OW 7273  12.099  11.373   7.619
35145SOL    HW1 7274  12.009  11.397   7.643
35145SOL    HW2 7275  12.105  11.395   7.526
35146SOL     OW 7276   4.290   3.265   4.204
35146SOL    HW1 7277   4.343   3.296   4.131
35146SOL    HW2 7278   4.329   3.181   4.228
35147SOL     OW 7279   3.238  13.882   1.453
35147SOL    HW1 7280   3.282  13.815   1.504
35147SOL    HW2 7281   3.161  13.904   1.505
35148SOL     OW 7282   5.012   1.630  14.088
35148SOL    HW1 7283   5.022   1.534  14.090
35148SOL    HW2 7284   4.917   1.643  14.089
35149SOL     OW 7285   7.076   7.993   0.304
35149SOL    HW1 7286   6.987   7.962   0.322
35149SOL    HW2 7287   7.067   8.088   0.295
35150SOL     OW 7288  11.157   9.359   6.139
35150SOL    HW1 7289  11.074   9.388   6.101
35150SOL    HW2 7290  11.183   9.285   6.084
35151SOL     OW 7291   2.178   8.882   8.526
35151SOL    HW1 7292   2.240   8.903   8.455
35151SOL    HW2 7293   2.232   8.836   8.591
35152SOL     OW 7294   2.943   4.649   8.690
35152SOL    HW1 7295   2.997   4.722   8.658
35152SOL    HW2 7296   2.919   4.675   8.779
35153SOL     OW 7297  10.946   9.660  13.264
35153SOL    HW1 7298  10.976   9.749  13.283
35153SOL    HW2 7299  11.003   9.604  13.316
35154SOL     OW 7300   1.912   3.823   3.306
35154SOL    HW1 7301   1.900   3.914   3.332
35154SOL    HW2 7302   1.823   3.790   3.292
35155SOL     OW 7303   1.361  11.104   5.359
35155SOL    HW1 7304   1.357  11.181   5.417
35155SOL    HW2 7305   1.432  11.124   5.298
35156SOL     OW 7306  14.210   9.133   6.396
35156SOL    HW1 7307  14.234   9.106   6.485
35156SOL    HW2 7308  14.292   9.127   6.346
35157SOL     OW 7309  10.190  14.705   6.856
35157SOL    HW1 7310  10.271  14.696   6.805
35157SOL    HW2 7311  10.219  14.710   6.947
35158SOL     OW 7312   5.696  13.850  14.762
35158SOL    HW1 7313   5.626  13.905  14.799
35158SOL    HW2 7314   5.777  13.897  14.782
35159SOL     OW 7315  12.392  11.056   7.785
35159SOL    HW1 7316  12.306  11.027   7.815
35159SOL    HW2 7317  12.452  10.986   7.813
35160SOL     OW 7318   4.272   4.715  10.710
35160SOL    HW1 7319   4.325   4.642  10.678
35160SOL    HW2 7320   4.314   4.793  10.672
35161SOL     OW 7321   2.230  11.039  14.042
35161SOL    HW1 7322   2.238  11.130  14.068
35161SOL    HW2 7323   2.288  11.030  13.966
35162SOL     OW 7324   6.158   8.702  14.736
35162SOL    HW1 7325   6.164   8.754  14.655
35162SOL    HW2 7326   6.085   8.742  14.784
35163SOL     OW 7327   9.430  12.773  14.586
35163SOL    HW1 7328   9.337  12.793  14.577
35163SOL    HW2 7329   9.468  12.854  14.620
35164SOL     OW 7330   7.207   3.253  13.647
35164SOL    HW1 7331   7.296   3.228  13.623
35164SOL    HW2 7332   7.210   3.267  13.741
35165SOL     OW 7333   6.284   5.018   3.713
35165SOL    HW1 7334   6.191   5.041   3.710
35165SOL    HW2 7335   6.287   4.940   3.768
35166SOL     OW 7336  12.065   2.635   5.968
35166SOL    HW1 7337  11.988   2.604   5.920
35166SOL    HW2 7338  12.054   2.600   6.056
35167SOL     OW 7339   9.058  13.516   7.242
35167SOL    HW1 7340   9.046  13.479   7.330
35167SOL    HW2 7341   9.139  13.475   7.211
35168SOL     OW 7342   5.307   3.350   7.403
35168SOL    HW1 7343   5.283   3.258   7.394
35168SOL    HW2 7344   5.370   3.365   7.333
35169SOL     OW 7345   8.452   4.938   2.091
35169SOL    HW1 7346   8.500   4.977   2.017
35169SOL    HW2 7347   8.444   5.010   2.154
35170SOL     OW 7348  12.904   8.414  13.349
35170SOL    HW1 7349  12.872   8.470  13.278
35170SOL    HW2 7350  12.840   8.344  13.355
35171SOL     OW 7351   8.763   0.500   6.988
35171SOL    HW1 7352   8.815   0.533   6.915
35171SOL    HW2 7353   8.718   0.577   7.023
35172SOL     OW 7354   3.860   0.084  12.608
35172SOL    HW1 7355   3.915   0.115  12.680
35172SOL    HW2 7356   3.770   0.096  12.639
35173SOL     OW 7357  10.730  11.690  13.163
35173SOL    HW1 7358  10.712  11.781  13.138
35173SOL    HW2 7359  10.815  11.693  13.206
35174SOL     OW 7360   9.781  13.856   4.635
35174SOL    HW1 7361   9.768  13.801   4.558
35174SOL    HW2 7362   9.697  13.853   4.681
35175SOL     OW 7363   7.409   6.067   2.996
35175SOL    HW1 7364   7.374   6.100   3.078
35175SOL    HW2 7365   7.331   6.040   2.946
35176SOL     OW 7366   5.643   3.778  11.931
35176SOL    HW1 7367   5.625   3.725  11.853
35176SOL    HW2 7368   5.575   3.845  11.930
35177SOL     OW 7369   0.737  13.445   5.855
35177SOL    HW1 7370   0.676  13.447   5.781
35177SOL    HW2 7371   0.681  13.460   5.931
35178SOL     OW 7372   3.720   9.717   9.085
35178SOL    HW1 7373   3.757   9.657   9.149
35178SOL    HW2 7374   3.785   9.787   9.076
35179SOL     OW 7375   4.730   6.994   4.073
35179SOL    HW1 7376   4.662   6.974   4.008
35179SOL    HW2 7377   4.685   6.989   4.157
35180SOL     OW 7378   8.542   4.477  14.213
35180SOL    HW1 7379   8.502   4.551  14.168
35180SOL    HW2 7380   8.487   4.402  14.190
35181SOL     OW 7381  14.505   9.727  10.980
35181SOL    HW1 7382  14.480   9.668  11.051
35181SOL    HW2 7383  14.455   9.696  10.905
35182SOL     OW 7384  11.758   3.242   4.050
35182SOL    HW1 7385  11.773   3.320   4.104
35182SOL    HW2 7386  11.731   3.175   4.113
35183SOL     OW 7387   8.832  13.464   4.410
35183SOL    HW1 7388   8.847  13.539   4.468
35183SOL    HW2 7389   8.910  13.409   4.421
35184SOL     OW 7390  13.658   5.674  11.291
35184SOL    HW1 7391  13.738   5.644  11.334
35184SOL    HW2 7392  13.639   5.759  11.331
35185SOL     OW 7393  12.188   1.403  12.228
35185SOL    HW1 7394  12.242   1.371  12.300
35185SOL    HW2 7395  12.123   1.459  12.270
35186SOL     OW 7396  12.098  12.613  13.388
35186SOL    HW1 7397  12.162  12.543  13.375
35186SOL    HW2 7398  12.039  12.579  13.454
35187SOL     OW 7399  11.372  14.236   2.568
35187SOL    HW1 7400  11.428  14.221   2.492
35187SOL    HW2 7401  11.284  14.244   2.532
35188SOL     OW 7402   3.850   7.292   7.788
35188SOL    HW1 7403   3.909   7.345   7.842
35188SOL    HW2 7404   3.907   7.244   7.729
35189SOL     OW 7405   0.258   2.964   3.481
35189SOL    HW1 7406   0.166   2.939   3.477
35189SOL    HW2 7407   0.287   2.963   3.389
35190SOL     OW 7408  12.402   7.773  10.686
35190SOL    HW1 7409  12.385   7.680  10.671
35190SOL    HW2 7410  12.495   7.783  10.668
35191SOL     OW 7411   0.553   8.523   2.942
35191SOL    HW1 7412   0.495   8.597   2.929
35191SOL    HW2 7413   0.545   8.501   3.035
35192SOL     OW 7414   7.418   5.669   3.140
35192SOL    HW1 7415   7.373   5.682   3.224
35192SOL    HW2 7416   7.468   5.588   3.152
35193SOL     OW 7417   4.612  11.718   3.024
35193SOL    HW1 7418   4.681  11.693   2.963
35193SOL    HW2 7419   4.532  11.678   2.988
35194SOL     OW 7420   7.828  14.683  14.536
35194SOL    HW1 7421   7.861  14.637  14.459
35194SOL    HW2 7422   7.799  14.614  14.595
35195SOL     OW 7423   6.744   0.822   3.508
35195SOL    HW1 7424   6.759   0.858   3.420
35195SOL    HW2 7425   6.692   0.889   3.552
35196SOL     OW 7426   5.624   7.372  12.882
35196SOL    HW1 7427   5.711   7.336  12.863
35196SOL    HW2 7428   5.569   7.342  12.809
35197SOL     OW 7429   0.175  10.536  12.106
35197SOL    HW1 7430   0.179  10.631  12.119
35197SOL    HW2 7431   0.140  10.525  12.017
35198SOL     OW 7432   7.620   4.268  13.668
35198SOL    HW1 7433   7.542   4.254  13.615
35198SOL    HW2 7434   7.640   4.361  13.657
35199SOL     OW 7435   5.688  12.543   2.887
35199SOL    HW1 7436   5.681  12.526   2.793
35199SOL    HW2 7437   5.636  12.474   2.928
35200SOL     OW 7438  13.101  11.187  13.310
35200SOL    HW1 7439  13.160  11.113  13.303
35200SOL    HW2 7440  13.155  11.263  13.287
35201SOL     OW 7441   5.894   5.096   7.266
35201SOL    HW1 7442   5.836   5.020   7.268
35201SOL    HW2 7443   5.850   5.160   7.211
35202SOL     OW 7444   2.886   0.045   0.930
35202SOL    HW1 7445   2.944  14.859   0.968
35202SOL    HW2 7446   2.866   0.104   1.003
35203SOL     OW 7447   8.104   9.409  11.992
35203SOL    HW1 7448   8.028   9.395  11.936
35203SOL    HW2 7449   8.099   9.501  12.017
35204SOL     OW 7450   2.766   6.558   9.554
35204SOL    HW1 7451   2.708   6.582   9.482
35204SOL    HW2 7452   2.833   6.626   9.555
35205SOL     OW 7453   6.787  13.251  10.647
35205SOL    HW1 7454   6.834  13.298  10.578
35205SOL    HW2 7455   6.694  13.266  10.628
35206SOL     OW 7456   8.015   4.130   3.093
35206SOL    HW1 7457   8.000   4.223   3.107
35206SOL    HW2 7458   8.104   4.125   3.058
35207SOL     OW 7459   0.837  12.622  10.287
35207SOL    HW1 7460   0.847  12.707  10.329
35207SOL    HW2 7461   0.855  12.638  10.194
35208SOL     OW 7462  13.199  13.039   2.085
35208SOL    HW1 7463  13.121  13.012   2.133
35208SOL    HW2 7464  13.266  12.976   2.110
35209SOL     OW 7465   9.302   6.148   3.930
35209SOL    HW1 7466   9.294   6.053   3.919
35209SOL    HW2 7467   9.396   6.165   3.917
35210SOL     OW 7468   8.081   3.150   6.117
35210SOL    HW1 7469   8.128   3.163   6.199
35210SOL    HW2 7470   8.133   3.086   6.069
35211SOL     OW 7471   9.990   6.203   6.365
35211SOL    HW1 7472  10.019   6.294   6.369
35211SOL    HW2 7473  10.037   6.165   6.290
35212SOL     OW 7474   1.769  13.832  14.099
35212SOL    HW1 7475   1.803  13.788  14.022
35212SOL    HW2 7476   1.738  13.761  14.156
35213SOL     OW 7477  10.623   1.697   2.548
35213SOL    HW1 7478  10.612   1.603   2.559
35213SOL    HW2 7479  10.712   1.707   2.515
35214SOL     OW 7480   2.373  12.290   6.253
35214SOL    HW1 7481   2.335  12.305   6.339
35214SOL    HW2 7482   2.462  12.259   6.270
35215SOL     OW 7483  10.657   4.099   5.757
35215SOL    HW1 7484  10.589   4.104   5.824
35215SOL    HW2 7485  10.627   4.160   5.689
35216SOL     OW 7486   0.762   8.547   8.396
35216SOL    HW1 7487   0.858   8.541   8.399
35216SOL    HW2 7488   0.733   8.457   8.412
35217SOL     OW 7489  11.527  14.078  11.786
35217SOL    HW1 7490  11.610  14.038  11.758
35217SOL    HW2 7491  11.518  14.052  11.878
35218SOL     OW 7492  12.669   2.649   0.485
35218SOL    HW1 7493  12.715   2.708   0.427
35218SOL    HW2 7494  12.577   2.675   0.479
35219SOL     OW 7495   5.248   8.160  14.064
35219SOL    HW1 7496   5.228   8.070  14.091
35219SOL    HW2 7497   5.183   8.180  13.997
35220SOL     OW 7498  14.273   8.387   3.261
35220SOL    HW1 7499  14.230   8.460   3.305
35220SOL    HW2 7500  14.241   8.391   3.171
35221SOL     OW 7501  11.051  14.449  11.520
35221SOL    HW1 7502  11.112  14.454  11.593
35221SOL    HW2 7503  11.070  14.528  11.468
35222SOL     OW 7504   9.006  12.406  13.778
35222SOL    HW1 7505   8.912  12.422  13.780
35222SOL    HW2 7506   9.041  12.455  13.852
35223SOL     OW 7507   0.530   1.786   4.393
35223SOL    HW1 7508   0.491   1.765   4.478
35223SOL    HW2 7509   0.623   1.797   4.412
35224SOL     OW 7510   3.142   0.916   8.932
35224SOL    HW1 7511   3.074   0.892   8.869
35224SOL    HW2 7512   3.150   1.011   8.924
35225SOL     OW 7513   3.280  14.519   6.154
35225SOL    HW1 7514   3.312  14.588   6.096
35225SOL    HW2 7515   3.299  14.438   6.107
35226SOL     OW 7516   4.239   4.369  13.247
35226SOL    HW1 7517   4.269   4.369  13.338
35226SOL    HW2 7518   4.152   4.410  13.251
35227SOL     OW 7519   9.435   3.039   9.949
35227SOL    HW1 7520   9.404   3.017   9.861
35227SOL    HW2 7521   9.413   3.132   9.959
35228SOL     OW 7522   5.597   7.562  11.227
35228SOL    HW1 7523   5.556   7.523  11.305
35228SOL    HW2 7524   5.570   7.654  11.230
35229SOL     OW 7525   2.480  14.606   0.019
35229SOL    HW1 7526   2.446  14.517   0.027
35229SOL    HW2 7527   2.459  14.632  14.809
35230SOL     OW 7528   3.217  13.063   7.820
35230SOL    HW1 7529   3.242  13.094   7.733
35230SOL    HW2 7530   3.269  13.116   7.880
35231SOL     OW 7531   9.305   0.577  12.343
35231SOL    HW1 7532   9.304   0.661  12.389
35231SOL    HW2 7533   9.350   0.518  12.403
35232SOL     OW 7534  11.571  10.221   0.331
35232SOL    HW1 7535  11.539  10.154   0.392
35232SOL    HW2 7536  11.641  10.265   0.380
35233SOL     OW 7537  12.541   7.879  11.935
35233SOL    HW1 7538  12.479   7.951  11.924
35233SOL    HW2 7539  12.501   7.823  12.002
35234SOL     OW 7540  11.312  11.304  13.601
35234SOL    HW1 7541  11.343  11.243  13.534
35234SOL    HW2 7542  11.391  11.334  13.645
35235SOL     OW 7543  11.039   0.155   4.977
35235SOL    HW1 7544  11.053   0.248   4.994
35235SOL    HW2 7545  10.987   0.124   5.051
35236SOL     OW 7546   0.888   4.561  11.278
35236SOL    HW1 7547   0.819   4.520  11.330
35236SOL    HW2 7548   0.952   4.491  11.264
35237SOL     OW 7549  14.018   2.391   8.081
35237SOL    HW1 7550  14.005   2.429   8.168
35237SOL    HW2 7551  14.049   2.302   8.097
35238SOL     OW 7552   5.875  13.415   4.502
35238SOL    HW1 7553   5.901  13.432   4.593
35238SOL    HW2 7554   5.918  13.484   4.451
35239SOL     OW 7555   1.430   3.433  10.215
35239SOL    HW1 7556   1.410   3.489  10.290
35239SOL    HW2 7557   1.354   3.376  10.206
35240SOL     OW 7558   7.623   0.891   7.114
35240SOL    HW1 7559   7.592   0.966   7.164
35240SOL    HW2 7560   7.554   0.874   7.050
35241SOL     OW 7561   4.614   1.629   7.075
35241SOL    HW1 7562   4.619   1.546   7.027
35241SOL    HW2 7563   4.624   1.696   7.007
35242SOL     OW 7564   2.658  12.183   5.363
35242SOL    HW1 7565   2.703  12.106   5.329
35242SOL    HW2 7566   2.701  12.202   5.447
35243SOL     OW 7567   3.693  13.306   7.095
35243SOL    HW1 7568   3.683  13.349   7.010
35243SOL    HW2 7569   3.694  13.378   7.158
35244SOL     OW 7570   8.306  14.779   0.322
35244SOL    HW1 7571   8.388  14.806   0.280
35244SOL    HW2 7572   8.330  14.701   0.373
35245SOL     OW 7573  14.055  11.790   3.201
35245SOL    HW1 7574  14.096  11.810   3.285
35245SOL    HW2 7575  14.083  11.701   3.181
35246SOL     OW 7576   9.529   2.181  14.798
35246SOL    HW1 7577   9.485   2.246  14.743
35246SOL    HW2 7578   9.571   2.232  14.867
35247SOL     OW 7579  11.169  11.243   9.106
35247SOL    HW1 7580  11.133  11.171   9.158
35247SOL    HW2 7581  11.147  11.220   9.016
35248SOL     OW 7582   4.720   9.907   8.179
35248SOL    HW1 7583   4.721   9.862   8.264
35248SOL    HW2 7584   4.809   9.898   8.146
35249SOL     OW 7585  14.134   2.263   8.549
35249SOL    HW1 7586  14.179   2.186   8.515
35249SOL    HW2 7587  14.044   2.234   8.564
35250SOL     OW 7588   7.218   1.246   5.942
35250SOL    HW1 7589   7.154   1.314   5.964
35250SOL    HW2 7590   7.247   1.269   5.853
35251SOL     OW 7591  13.907  14.450  13.575
35251SOL    HW1 7592  13.821  14.456  13.618
35251SOL    HW2 7593  13.919  14.535  13.533
35252SOL     OW 7594  13.437  10.781   9.819
35252SOL    HW1 7595  13.496  10.732   9.761
35252SOL    HW2 7596  13.395  10.845   9.762
35253SOL     OW 7597   8.413   8.699   2.353
35253SOL    HW1 7598   8.431   8.639   2.426
35253SOL    HW2 7599   8.439   8.649   2.275
35254SOL     OW 7600  11.496   1.512   8.973
35254SOL    HW1 7601  11.584   1.496   8.940
35254SOL    HW2 7602  11.506   1.583   9.036
35255SOL     OW 7603  11.417   3.904   1.371
35255SOL    HW1 7604  11.498   3.953   1.384
35255SOL    HW2 7605  11.443   3.825   1.323
35256SOL     OW 7606  12.119   3.543   7.263
35256SOL    HW1 7607  12.151   3.520   7.175
35256SOL    HW2 7608  12.150   3.472   7.319
35257SOL     OW 7609  10.890   7.877   9.048
35257SOL    HW1 7610  10.921   7.917   8.967
35257SOL    HW2 7611  10.905   7.944   9.115
35258SOL     OW 7612   1.355   5.724   0.430
35258SOL    HW1 7613   1.269   5.729   0.387
35258SOL    HW2 7614   1.347   5.653   0.492
35259SOL     OW 7615  13.515  11.894   2.614
35259SOL    HW1 7616  13.493  11.902   2.521
35259SOL    HW2 7617  13.431  11.874   2.656
35260SOL     OW 7618  13.563   8.208   1.531
35260SOL    HW1 7619  13.539   8.230   1.621
35260SOL    HW2 7620  13.658   8.217   1.528
35261SOL     OW 7621   0.155  13.130   6.833
35261SOL    HW1 7622   0.164  13.141   6.738
35261SOL    HW2 7623   0.240  13.098   6.862
35262SOL     OW 7624   5.538  14.828   7.922
35262SOL    HW1 7625   5.543  14.782   8.006
35262SOL    HW2 7626   5.629  14.851   7.902
35263SOL     OW 7627   4.788  13.037   6.188
35263SOL    HW1 7628   4.748  13.084   6.260
35263SOL    HW2 7629   4.868  12.999   6.225
35264SOL     OW 7630   7.173   7.664   9.701
35264SOL    HW1 7631   7.253   7.667   9.649
35264SOL    HW2 7632   7.128   7.746   9.683
35265SOL     OW 7633   1.657   2.623  10.503
35265SOL    HW1 7634   1.637   2.713  10.478
35265SOL    HW2 7635   1.706   2.631  10.585
35266SOL     OW 7636   1.810   3.860  14.486
35266SOL    HW1 7637   1.767   3.795  14.541
35266SOL    HW2 7638   1.877   3.899  14.542
35267SOL     OW 7639  13.613  10.385  14.560
35267SOL    HW1 7640  13.533  10.436  14.573
35267SOL    HW2 7641  13.583  10.298  14.536
35268SOL     OW 7642   3.304   3.192   9.723
35268SOL    HW1 7643   3.286   3.276   9.764
35268SOL    HW2 7644   3.390   3.167   9.756
35269SOL     OW 7645   8.251  11.895  11.510
35269SOL    HW1 7646   8.299  11.956  11.565
35269SOL    HW2 7647   8.302  11.890  11.429
35270SOL     OW 7648   1.598  13.348   3.065
35270SOL    HW1 7649   1.533  13.393   3.119
35270SOL    HW2 7650   1.640  13.417   3.014
35271SOL     OW 7651   3.529   0.744  10.724
35271SOL    HW1 7652   3.613   0.740  10.678
35271SOL    HW2 7653   3.476   0.675  10.684
35272SOL     OW 7654   2.874   5.114   3.464
35272SOL    HW1 7655   2.900   5.122   3.372
35272SOL    HW2 7656   2.835   5.199   3.485
35273SOL     OW 7657   7.859   6.000   9.294
35273SOL    HW1 7658   7.835   6.017   9.203
35273SOL    HW2 7659   7.900   5.913   9.292
35274SOL     OW 7660  12.603   7.567   0.757
35274SOL    HW1 7661  12.573   7.644   0.805
35274SOL    HW2 7662  12.696   7.560   0.778
35275SOL     OW 7663   3.681   8.324  12.427
35275SOL    HW1 7664   3.628   8.357  12.355
35275SOL    HW2 7665   3.661   8.383  12.500
35276SOL     OW 7666   3.008   5.331   1.336
35276SOL    HW1 7667   2.958   5.405   1.301
35276SOL    HW2 7668   3.083   5.372   1.380
35277SOL     OW 7669  10.360   1.778   3.699
35277SOL    HW1 7670  10.298   1.770   3.772
35277SOL    HW2 7671  10.444   1.750   3.736
35278SOL     OW 7672   5.385   2.279   4.583
35278SOL    HW1 7673   5.455   2.225   4.621
35278SOL    HW2 7674   5.353   2.332   4.657
35279SOL     OW 7675   4.324   4.521   5.517
35279SOL    HW1 7676   4.397   4.573   5.550
35279SOL    HW2 7677   4.363   4.461   5.454
35280SOL     OW 7678  10.838   1.826   2.298
35280SOL    HW1 7679  10.876   1.780   2.372
35280SOL    HW2 7680  10.763   1.873   2.335
35281SOL     OW 7681   4.529   1.265  12.072
35281SOL    HW1 7682   4.587   1.203  12.115
35281SOL    HW2 7683   4.502   1.222  11.991
35282SOL     OW 7684   1.252  10.426   8.354
35282SOL    HW1 7685   1.277  10.373   8.429
35282SOL    HW2 7686   1.183  10.376   8.311
35283SOL     OW 7687   2.257  12.135   4.978
35283SOL    HW1 7688   2.199  12.190   5.030
35283SOL    HW2 7689   2.341  12.180   4.978
35284SOL     OW 7690  14.871  13.303   2.878
35284SOL    HW1 7691  14.858  13.225   2.932
35284SOL    HW2 7692  14.850  13.376   2.935
35285SOL     OW 7693  13.893   2.861  14.040
35285SOL    HW1 7694  13.844   2.902  14.111
35285SOL    HW2 7695  13.857   2.901  13.960
35286SOL     OW 7696   1.190   7.533   9.141
35286SOL    HW1 7697   1.266   7.575   9.181
35286SOL    HW2 7698   1.120   7.599   9.148
35287SOL     OW 7699  14.083   1.610   8.645
35287SOL    HW1 7700  14.050   1.657   8.569
35287SOL    HW2 7701  14.005   1.597   8.701
35288SOL     OW 7702   9.370  12.253   8.963
35288SOL    HW1 7703   9.423  12.292   9.033
35288SOL    HW2 7704   9.428  12.191   8.920
35289SOL     OW 7705  13.039   3.599  13.523
35289SOL    HW1 7706  13.052   3.506  13.544
35289SOL    HW2 7707  13.128   3.633  13.514
35290SOL     OW 7708   3.747  12.478   1.608
35290SOL    HW1 7709   3.690  12.552   1.585
35290SOL    HW2 7710   3.763  12.488   1.702
35291SOL     OW 7711  13.690  10.426   5.920
35291SOL    HW1 7712  13.780  10.448   5.896
35291SOL    HW2 7713  13.642  10.508   5.913
35292SOL     OW 7714  10.327   6.548   0.589
35292SOL    HW1 7715  10.344   6.579   0.678
35292SOL    HW2 7716  10.404   6.494   0.567
35293SOL     OW 7717  12.698   1.445   1.280
35293SOL    HW1 7718  12.649   1.527   1.288
35293SOL    HW2 7719  12.654   1.385   1.340
35294SOL     OW 7720  11.225  11.929  11.983
35294SOL    HW1 7721  11.295  11.965  12.036
35294SOL    HW2 7722  11.269  11.872  11.920
35295SOL     OW 7723   7.691  14.247  13.377
35295SOL    HW1 7724   7.724  14.284  13.458
35295SOL    HW2 7725   7.639  14.171  13.404
35296SOL     OW 7726   5.555   0.796  13.215
35296SOL    HW1 7727   5.545   0.886  13.248
35296SOL    HW2 7728   5.466   0.763  13.208
35297SOL     OW 7729   5.773  14.013   3.267
35297SOL    HW1 7730   5.691  13.977   3.232
35297SOL    HW2 7731   5.769  14.106   3.245
35298SOL     OW 7732   6.485   1.163   5.604
35298SOL    HW1 7733   6.434   1.115   5.539
35298SOL    HW2 7734   6.425   1.174   5.678
35299SOL     OW 7735   6.633   3.354   2.662
35299SOL    HW1 7736   6.627   3.436   2.612
35299SOL    HW2 7737   6.588   3.290   2.607
35300SOL     OW 7738   9.236   5.402   9.017
35300SOL    HW1 7739   9.226   5.398   9.112
35300SOL    HW2 7740   9.173   5.339   8.983
35301SOL     OW 7741   6.026   0.960  13.962
35301SOL    HW1 7742   5.974   0.954  13.882
35301SOL    HW2 7743   6.103   1.012  13.937
35302SOL     OW 7744   2.083  12.093  13.604
35302SOL    HW1 7745   2.079  11.998  13.609
35302SOL    HW2 7746   2.075  12.122  13.695
35303SOL     OW 7747  11.045   1.420   0.476
35303SOL    HW1 7748  11.132   1.405   0.439
35303SOL    HW2 7749  11.009   1.492   0.424
35304SOL     OW 7750  10.661  10.695   2.587
35304SOL    HW1 7751  10.731  10.756   2.606
35304SOL    HW2 7752  10.674  10.623   2.648
35305SOL     OW 7753   5.571   1.249   1.283
35305SOL    HW1 7754   5.510   1.240   1.210
35305SOL    HW2 7755   5.556   1.171   1.337
35306SOL     OW 7756  10.642   8.979  10.481
35306SOL    HW1 7757  10.578   8.923  10.437
35306SOL    HW2 7758  10.630   9.065  10.442
35307SOL     OW 7759   5.075  14.016   7.845
35307SOL    HW1 7760   5.122  14.063   7.914
35307SOL    HW2 7761   5.104  14.057   7.764
35308SOL     OW 7762   7.592   7.793   4.965
35308SOL    HW1 7763   7.641   7.711   4.970
35308SOL    HW2 7764   7.631   7.849   5.032
35309SOL     OW 7765   5.407   8.981  10.720
35309SOL    HW1 7766   5.479   8.917  10.713
35309SOL    HW2 7767   5.443   9.050  10.776
35310SOL     OW 7768   5.569   7.849   2.869
35310SOL    HW1 7769   5.535   7.766   2.902
35310SOL    HW2 7770   5.658   7.829   2.840
35311SOL     OW 7771  14.554   0.260   5.097
35311SOL    HW1 7772  14.608   0.243   5.174
35311SOL    HW2 7773  14.610   0.238   5.023
35312SOL     OW 7774  14.858   2.740  10.361
35312SOL    HW1 7775  14.805   2.796  10.418
35312SOL    HW2 7776   0.045   2.703  10.419
35313SOL     OW 7777  10.566  14.070   6.075
35313SOL    HW1 7778  10.543  14.125   6.000
35313SOL    HW2 7779  10.513  14.104   6.147
35314SOL     OW 7780  13.457   9.264   6.753
35314SOL    HW1 7781  13.417   9.351   6.755
35314SOL    HW2 7782  13.470   9.241   6.845
35315SOL     OW 7783  14.513   8.011   4.502
35315SOL    HW1 7784  14.451   7.955   4.455
35315SOL    HW2 7785  14.473   8.024   4.587
35316SOL     OW 7786  11.722  13.092   4.222
35316SOL    HW1 7787  11.758  13.058   4.304
35316SOL    HW2 7788  11.760  13.037   4.154
35317SOL     OW 7789   8.170   0.420   3.412
35317SOL    HW1 7790   8.115   0.391   3.485
35317SOL    HW2 7791   8.244   0.465   3.455
35318SOL     OW 7792   7.750   4.609   0.519
35318SOL    HW1 7793   7.677   4.564   0.476
35318SOL    HW2 7794   7.709   4.654   0.593
35319SOL     OW 7795   0.400   9.944   3.462
35319SOL    HW1 7796   0.487   9.919   3.495
35319SOL    HW2 7797   0.341   9.928   3.536
35320SOL     OW 7798   0.544  10.010  14.659
35320SOL    HW1 7799   0.561   9.917  14.673
35320SOL    HW2 7800   0.459  10.012  14.614
35321SOL     OW 7801   8.863   8.068   6.539
35321SOL    HW1 7802   8.870   7.991   6.484
35321SOL    HW2 7803   8.923   8.132   6.501
35322SOL     OW 7804  11.633  10.876  11.356
35322SOL    HW1 7805  11.593  10.955  11.318
35322SOL    HW2 7806  11.614  10.884  11.450
35323SOL     OW 7807   0.156   7.416   5.477
35323SOL    HW1 7808   0.104   7.382   5.550
35323SOL    HW2 7809   0.134   7.360   5.403
35324SOL     OW 7810   2.226   1.628   1.467
35324SOL    HW1 7811   2.281   1.555   1.497
35324SOL    HW2 7812   2.146   1.620   1.518
35325SOL     OW 7813  12.718  12.790   3.663
35325SOL    HW1 7814  12.789  12.725   3.667
35325SOL    HW2 7815  12.638  12.739   3.671
35326SOL     OW 7816   1.444   8.810   7.265
35326SOL    HW1 7817   1.510   8.864   7.309
35326SOL    HW2 7818   1.393   8.773   7.337
35327SOL     OW 7819  11.650   6.523   3.688
35327SOL    HW1 7820  11.576   6.567   3.648
35327SOL    HW2 7821  11.725   6.546   3.634
35328SOL     OW 7822  11.523  10.396  14.028
35328SOL    HW1 7823  11.480  10.468  14.076
35328SOL    HW2 7824  11.529  10.325  14.092
35329SOL     OW 7825  13.656   9.415  10.070
35329SOL    HW1 7826  13.720   9.429  10.140
35329SOL    HW2 7827  13.646   9.320  10.065
35330SOL     OW 7828   8.698   9.727  12.698
35330SOL    HW1 7829   8.694   9.631  12.699
35330SOL    HW2 7830   8.713   9.749  12.606
35331SOL     OW 7831   4.140   3.222   4.421
35331SOL    HW1 7832   4.184   3.271   4.351
35331SOL    HW2 7833   4.208   3.164   4.456
35332SOL     OW 7834   6.963   2.078  12.741
35332SOL    HW1 7835   6.908   2.129  12.799
35332SOL    HW2 7836   6.902   2.022  12.693
35333SOL     OW 7837  11.406  12.555   3.842
35333SOL    HW1 7838  11.339  12.623   3.834
35333SOL    HW2 7839  11.356  12.475   3.859
35334SOL     OW 7840   0.456   2.609   1.331
35334SOL    HW1 7841   0.539   2.656   1.325
35334SOL    HW2 7842   0.469   2.530   1.279
35335SOL     OW 7843  10.045   1.830   7.493
35335SOL    HW1 7844  10.024   1.898   7.429
35335SOL    HW2 7845   9.985   1.845   7.565
35336SOL     OW 7846   5.902   5.034   0.190
35336SOL    HW1 7847   5.970   5.085   0.145
35336SOL    HW2 7848   5.909   4.946   0.152
35337SOL     OW 7849  13.846  13.529   9.667
35337SOL    HW1 7850  13.865  13.451   9.616
35337SOL    HW2 7851  13.806  13.496   9.748
35338SOL     OW 7852  10.536   2.187   8.078
35338SOL    HW1 7853  10.518   2.118   8.142
35338SOL    HW2 7854  10.565   2.140   8.000
35339SOL     OW 7855   2.395   4.500   6.913
35339SOL    HW1 7856   2.390   4.596   6.909
35339SOL    HW2 7857   2.339   4.471   6.842
35340SOL     OW 7858   9.175   8.935   1.616
35340SOL    HW1 7859   9.221   8.932   1.700
35340SOL    HW2 7860   9.110   9.005   1.626
35341SOL     OW 7861   7.935   6.952   6.899
35341SOL    HW1 7862   7.886   6.997   6.831
35341SOL    HW2 7863   8.019   6.930   6.857
35342SOL     OW 7864   9.723   6.172   6.369
35342SOL    HW1 7865   9.818   6.166   6.385
35342SOL    HW2 7866   9.714   6.238   6.301
35343SOL     OW 7867   4.767   2.098   4.674
35343SOL    HW1 7868   4.777   2.124   4.766
35343SOL    HW2 7869   4.682   2.054   4.672
35344SOL     OW 7870   4.785   9.413  11.709
35344SOL    HW1 7871   4.726   9.379  11.641
35344SOL    HW2 7872   4.783   9.347  11.778
35345SOL     OW 7873  11.134   8.057   4.348
35345SOL    HW1 7874  11.196   8.059   4.275
35345SOL    HW2 7875  11.062   8.113   4.320
35346SOL     OW 7876  14.123   4.077  12.387
35346SOL    HW1 7877  14.052   4.067  12.451
35346SOL    HW2 7878  14.115   4.000  12.331
35347SOL     OW 7879   0.852   5.052  13.725
35347SOL    HW1 7880   0.769   5.100  13.729
35347SOL    HW2 7881   0.830   4.968  13.686
35348SOL     OW 7882   3.445   3.601  14.144
35348SOL    HW1 7883   3.394   3.682  14.147
35348SOL    HW2 7884   3.451   3.574  14.236
35349SOL     OW 7885   1.342   9.729  10.265
35349SOL    HW1 7886   1.262   9.696  10.225
35349SOL    HW2 7887   1.323   9.822  10.282
35350SOL     OW 7888   6.914  11.638   3.457
35350SOL    HW1 7889   6.837  11.586   3.433
35350SOL    HW2 7890   6.953  11.665   3.374
35351SOL     OW 7891  11.479  11.663   0.113
35351SOL    HW1 7892  11.573  11.683   0.108
35351SOL    HW2 7893  11.476  11.571   0.142
35352SOL     OW 7894  12.101   8.740  13.893
35352SOL    HW1 7895  12.188   8.756  13.928
35352SOL    HW2 7896  12.063   8.827  13.884
35353SOL     OW 7897   7.509   0.781   1.409
35353SOL    HW1 7898   7.576   0.821   1.353
35353SOL    HW2 7899   7.481   0.851   1.467
35354SOL     OW 7900  12.972   5.780   6.560
35354SOL    HW1 7901  12.947   5.787   6.467
35354SOL    HW2 7902  13.039   5.711   6.561
35355SOL     OW 7903  14.494   5.837   5.921
35355SOL    HW1 7904  14.485   5.932   5.916
35355SOL    HW2 7905  14.511   5.819   6.013
35356SOL     OW 7906   7.059   2.115   3.281
35356SOL    HW1 7907   7.048   2.176   3.354
35356SOL    HW2 7908   6.971   2.082   3.264
35357SOL     OW 7909   1.197  11.970   9.219
35357SOL    HW1 7910   1.268  12.027   9.189
35357SOL    HW2 7911   1.216  11.885   9.179
35358SOL     OW 7912   2.834  12.698   5.793
35358SOL    HW1 7913   2.764  12.649   5.749
35358SOL    HW2 7914   2.911  12.642   5.783
35359SOL     OW 7915  13.495   0.074  11.023
35359SOL    HW1 7916  13.490   0.166  11.047
35359SOL    HW2 7917  13.424   0.032  11.073
35360SOL     OW 7918   3.765  13.155   5.262
35360SOL    HW1 7919   3.740  13.139   5.353
35360SOL    HW2 7920   3.824  13.083   5.241
35361SOL     OW 7921  12.020  14.169   1.929
35361SOL    HW1 7922  12.024  14.088   1.979
35361SOL    HW2 7923  12.107  14.209   1.939
35362SOL     OW 7924   9.486  14.191   8.714
35362SOL    HW1 7925   9.412  14.201   8.655
35362SOL    HW2 7926   9.446  14.178   8.800
35363SOL     OW 7927   6.994   8.878   6.068
35363SOL    HW1 7928   6.947   8.824   6.004
35363SOL    HW2 7929   6.982   8.968   6.037
35364SOL     OW 7930  11.475   2.463  10.699
35364SOL    HW1 7931  11.560   2.450  10.742
35364SOL    HW2 7932  11.411   2.442  10.766
35365SOL     OW 7933   5.559   9.569   3.568
35365SOL    HW1 7934   5.585   9.661   3.577
35365SOL    HW2 7935   5.506   9.566   3.489
35366SOL     OW 7936  10.173  14.792   5.475
35366SOL    HW1 7937  10.137  14.774   5.388
35366SOL    HW2 7938  10.097  14.823   5.526
35367SOL     OW 7939  12.694   9.431   7.093
35367SOL    HW1 7940  12.602   9.406   7.090
35367SOL    HW2 7941  12.715   9.459   7.003
35368SOL     OW 7942   2.581  13.484   8.624
35368SOL    HW1 7943   2.602  13.431   8.701
35368SOL    HW2 7944   2.634  13.563   8.635
35369SOL     OW 7945   0.655   4.216   8.092
35369SOL    HW1 7946   0.724   4.212   8.026
35369SOL    HW2 7947   0.663   4.303   8.131
35370SOL     OW 7948   1.951   1.542  10.319
35370SOL    HW1 7949   1.965   1.472  10.383
35370SOL    HW2 7950   2.000   1.514  10.242
35371SOL     OW 7951   7.774  11.586   9.114
35371SOL    HW1 7952   7.775  11.511   9.173
35371SOL    HW2 7953   7.688  11.584   9.074
35372SOL     OW 7954   9.449  14.068   3.808
35372SOL    HW1 7955   9.404  14.111   3.736
35372SOL    HW2 7956   9.422  13.976   3.803
35373SOL     OW 7957  10.883   8.199   5.400
35373SOL    HW1 7958  10.792   8.168   5.402
35373SOL    HW2 7959  10.929   8.133   5.348
35374SOL     OW 7960   2.849  10.649  10.639
35374SOL    HW1 7961   2.824  10.674  10.728
35374SOL    HW2 7962   2.923  10.706  10.618
35375SOL     OW 7963   6.600   6.741   0.341
35375SOL    HW1 7964   6.524   6.793   0.314
35375SOL    HW2 7965   6.595   6.739   0.437
35376SOL     OW 7966   3.914  10.874  11.889
35376SOL    HW1 7967   3.968  10.877  11.810
35376SOL    HW2 7968   3.891  10.781  11.900
35377SOL     OW 7969  10.366  12.446   0.631
35377SOL    HW1 7970  10.382  12.537   0.607
35377SOL    HW2 7971  10.446  12.418   0.675
35378SOL     OW 7972   8.378   9.568   1.898
35378SOL    HW1 7973   8.354   9.516   1.974
35378SOL    HW2 7974   8.294   9.590   1.857
35379SOL     OW 7975  11.846   9.785  12.419
35379SOL    HW1 7976  11.878   9.865  12.460
35379SOL    HW2 7977  11.803   9.737  12.490
35380SOL     OW 7978  10.425   5.118  11.700
35380SOL    HW1 7979  10.417   5.073  11.616
35380SOL    HW2 7980  10.356   5.082  11.754
35381SOL     OW 7981   7.363   3.989   1.734
35381SOL    HW1 7982   7.382   4.062   1.792
35381SOL    HW2 7983   7.381   3.911   1.786
35382SOL     OW 7984   6.082   0.977   4.078
35382SOL    HW1 7985   6.027   1.001   4.152
35382SOL    HW2 7986   6.058   0.887   4.057
35383SOL     OW 7987  10.725   1.683   5.475
35383SOL    HW1 7988  10.671   1.604   5.487
35383SOL    HW2 7989  10.677   1.752   5.521
35384SOL     OW 7990  13.362   2.550   0.101
35384SOL    HW1 7991  13.331   2.611   0.035
35384SOL    HW2 7992  13.288   2.540   0.161
35385SOL     OW 7993  11.502   3.713   0.077
35385SOL    HW1 7994  11.411   3.688   0.059
35385SOL    HW2 7995  11.533   3.649   0.141
35386SOL     OW 7996  14.522   6.167   4.134
35386SOL    HW1 7997  14.544   6.183   4.042
35386SOL    HW2 7998  14.592   6.209   4.184
35387SOL     OW 7999  12.720   4.422   1.142
35387SOL    HW1 8000  12.775   4.447   1.216
35387SOL    HW2 8001  12.693   4.506   1.103
35388SOL     OW 8002  11.676   9.888   4.760
35388SOL    HW1 8003  11.691   9.816   4.698
35388SOL    HW2 8004  11.591   9.924   4.735
35389SOL     OW 8005  11.034   4.932   6.092
35389SOL    HW1 8006  10.964   4.933   6.158
35389SOL    HW2 8007  11.036   5.022   6.059
35390SOL     OW 8008  11.585  11.921   1.812
35390SOL    HW1 8009  11.603  11.866   1.735
35390SOL    HW2 8010  11.667  11.966   1.829
35391SOL     OW 8011   1.732   6.372   2.213
35391SOL    HW1 8012   1.665   6.408   2.155
35391SOL    HW2 8013   1.684   6.339   2.288
35392SOL     OW 8014  11.141  11.676   9.169
35392SOL    HW1 8015  11.088  11.754   9.155
35392SOL    HW2 8016  11.222  11.709   9.209
35393SOL     OW 8017   7.640  12.363   9.411
35393SOL    HW1 8018   7.635  12.332   9.320
35393SOL    HW2 8019   7.553  12.346   9.447
35394SOL     OW 8020   4.778   2.813   8.034
35394SOL    HW1 8021   4.732   2.863   8.101
35394SOL    HW2 8022   4.813   2.737   8.080
35395SOL     OW 8023   3.875  12.424   7.423
35395SOL    HW1 8024   3.817  12.349   7.407
35395SOL    HW2 8025   3.961  12.393   7.396
35396SOL     OW 8026   0.376   3.306   8.692
35396SOL    HW1 8027   0.388   3.400   8.701
35396SOL    HW2 8028   0.285   3.295   8.667
35397SOL     OW 8029   2.236  12.094  12.841
35397SOL    HW1 8030   2.185  12.151  12.783
35397SOL    HW2 8031   2.177  12.023  12.864
35398SOL     OW 8032  13.342   0.236   3.651
35398SOL    HW1 8033  13.318   0.166   3.591
35398SOL    HW2 8034  13.387   0.300   3.596
35399SOL     OW 8035   3.141   5.975   8.751
35399SOL    HW1 8036   3.124   6.067   8.774
35399SOL    HW2 8037   3.081   5.958   8.678
35400SOL     OW 8038  12.243   6.823   3.373
35400SOL    HW1 8039  12.336   6.818   3.349
35400SOL    HW2 8040  12.202   6.752   3.325
35401SOL     OW 8041  11.151  10.886   1.237
35401SOL    HW1 8042  11.180  10.864   1.148
35401SOL    HW2 8043  11.195  10.822   1.293
35402SOL     OW 8044  10.830   8.397  11.360
35402SOL    HW1 8045  10.738   8.418  11.344
35402SOL    HW2 8046  10.827   8.330  11.428
35403SOL     OW 8047   9.977   0.804  12.875
35403SOL    HW1 8048   9.968   0.898  12.892
35403SOL    HW2 8049   9.958   0.795  12.781
35404SOL     OW 8050   8.238  12.204  11.656
35404SOL    HW1 8051   8.182  12.190  11.579
35404SOL    HW2 8052   8.192  12.159  11.727
35405SOL     OW 8053  11.005  12.485   5.492
35405SOL    HW1 8054  11.001  12.397   5.531
35405SOL    HW2 8055  10.947  12.538   5.546
35406SOL     OW 8056   4.097  13.431   3.753
35406SOL    HW1 8057   4.038  13.356   3.747
35406SOL    HW2 8058   4.174  13.398   3.799
35407SOL     OW 8059   6.668  13.359   3.840
35407SOL    HW1 8060   6.636  13.386   3.926
35407SOL    HW2 8061   6.588  13.350   3.787
35408SOL     OW 8062   5.906  13.808   9.038
35408SOL    HW1 8063   5.951  13.783   9.119
35408SOL    HW2 8064   5.922  13.735   8.978
35409SOL     OW 8065   4.982  12.258   7.487
35409SOL    HW1 8066   4.934  12.310   7.552
35409SOL    HW2 8067   4.922  12.252   7.413
35410SOL     OW 8068  12.213   9.404   6.289
35410SOL    HW1 8069  12.143   9.413   6.224
35410SOL    HW2 8070  12.292   9.431   6.242
35411SOL     OW 8071  13.655   3.112  11.334
35411SOL    HW1 8072  13.683   3.027  11.301
35411SOL    HW2 8073  13.561   3.102  11.348
35412SOL     OW 8074  14.858   5.597  12.493
35412SOL    HW1 8075  14.796   5.592  12.566
35412SOL    HW2 8076  14.818   5.660  12.432
35413SOL     OW 8077  11.048  10.959  12.560
35413SOL    HW1 8078  10.999  10.989  12.484
35413SOL    HW2 8079  11.019  10.868  12.572
35414SOL     OW 8080   3.743  10.805  13.192
35414SOL    HW1 8081   3.711  10.867  13.258
35414SOL    HW2 8082   3.799  10.745  13.241
35415SOL     OW 8083  11.177   5.436   0.477
35415SOL    HW1 8084  11.114   5.398   0.538
35415SOL    HW2 8085  11.252   5.461   0.531
35416SOL     OW 8086   6.575   5.635   3.034
35416SOL    HW1 8087   6.555   5.678   2.951
35416SOL    HW2 8088   6.644   5.572   3.012
35417SOL     OW 8089   3.866  11.731   5.305
35417SOL    HW1 8090   3.874  11.780   5.386
35417SOL    HW2 8091   3.950  11.687   5.294
35418SOL     OW 8092  12.147  11.012  12.279
35418SOL    HW1 8093  12.145  11.074  12.351
35418SOL    HW2 8094  12.189  10.934  12.315
35419SOL     OW 8095   6.729   7.140  11.103
35419SOL    HW1 8096   6.708   7.233  11.106
35419SOL    HW2 8097   6.699   7.111  11.017
35420SOL     OW 8098   3.420   1.010  11.273
35420SOL    HW1 8099   3.330   1.016  11.241
35420SOL    HW2 8100   3.411   0.978  11.363
35421SOL     OW 8101   5.600   8.274   8.568
35421SOL    HW1 8102   5.572   8.355   8.610
35421SOL    HW2 8103   5.570   8.205   8.627
35422SOL     OW 8104   3.358  10.312  10.382
35422SOL    HW1 8105   3.313  10.284  10.462
35422SOL    HW2 8106   3.362  10.232  10.328
35423SOL     OW 8107   8.780  14.395   5.286
35423SOL    HW1 8108   8.841  14.434   5.223
35423SOL    HW2 8109   8.710  14.359   5.233
35424SOL     OW 8110   9.669  10.418  10.983
35424SOL    HW1 8111   9.749  10.391  11.028
35424SOL    HW2 8112   9.610  10.444  11.054
35425SOL     OW 8113   7.322   7.991   3.415
35425SOL    HW1 8114   7.346   7.899   3.424
35425SOL    HW2 8115   7.387   8.039   3.467
35426SOL     OW 8116   4.216   9.040   3.180
35426SOL    HW1 8117   4.203   9.076   3.093
35426SOL    HW2 8118   4.305   9.005   3.178
35427SOL     OW 8119   5.178   9.360   8.066
35427SOL    HW1 8120   5.197   9.269   8.087
35427SOL    HW2 8121   5.258   9.407   8.087
35428SOL     OW 8122   3.336   6.311  13.996
35428SOL    HW1 8123   3.377   6.241  13.945
35428SOL    HW2 8124   3.338   6.280  14.087
35429SOL     OW 8125  14.505  12.215  14.371
35429SOL    HW1 8126  14.436  12.268  14.411
35429SOL    HW2 8127  14.496  12.231  14.277
35430SOL     OW 8128   0.512  12.639  12.335
35430SOL    HW1 8129   0.476  12.597  12.257
35430SOL    HW2 8130   0.531  12.566  12.394
35431SOL     OW 8131  12.095   7.986  10.620
35431SOL    HW1 8132  12.103   8.057  10.556
35431SOL    HW2 8133  12.153   8.013  10.692
35432SOL     OW 8134   6.942  13.182   2.287
35432SOL    HW1 8135   6.941  13.153   2.379
35432SOL    HW2 8136   7.011  13.249   2.284
35433SOL     OW 8137   7.126   3.878   7.247
35433SOL    HW1 8138   7.050   3.821   7.233
35433SOL    HW2 8139   7.176   3.871   7.165
35434SOL     OW 8140   9.787   0.879   0.981
35434SOL    HW1 8141   9.774   0.971   1.002
35434SOL    HW2 8142   9.741   0.866   0.898
35435SOL     OW 8143  12.867   3.344   5.338
35435SOL    HW1 8144  12.786   3.392   5.321
35435SOL    HW2 8145  12.852   3.258   5.298
35436SOL     OW 8146   5.094  11.479   1.556
35436SOL    HW1 8147   5.046  11.482   1.473
35436SOL    HW2 8148   5.112  11.386   1.569
35437SOL     OW 8149   2.254   9.869  12.725
35437SOL    HW1 8150   2.244   9.958  12.690
35437SOL    HW2 8151   2.279   9.882  12.816
35438SOL     OW 8152  14.198   2.272   2.368
35438SOL    HW1 8153  14.208   2.295   2.461
35438SOL    HW2 8154  14.142   2.194   2.369
35439SOL     OW 8155   2.532   0.463  13.674
35439SOL    HW1 8156   2.524   0.458  13.578
35439SOL    HW2 8157   2.449   0.428  13.706
35440SOL     OW 8158   8.974   4.399  13.725
35440SOL    HW1 8159   9.024   4.479  13.740
35440SOL    HW2 8160   8.976   4.387  13.630
35441SOL     OW 8161   3.891   2.982   5.621
35441SOL    HW1 8162   3.892   3.077   5.633
35441SOL    HW2 8163   3.949   2.949   5.690
35442SOL     OW 8164  13.236  11.163   8.425
35442SOL    HW1 8165  13.286  11.122   8.495
35442SOL    HW2 8166  13.296  11.168   8.351
35443SOL     OW 8167   3.172  10.575   3.622
35443SOL    HW1 8168   3.156  10.526   3.703
35443SOL    HW2 8169   3.266  10.593   3.622
35444SOL     OW 8170   0.662   3.069  13.719
35444SOL    HW1 8171   0.659   2.975  13.738
35444SOL    HW2 8172   0.607   3.109  13.786
35445SOL     OW 8173   3.252   0.050  10.851
35445SOL    HW1 8174   3.216   0.139  10.847
35445SOL    HW2 8175   3.267   0.027  10.759
35446SOL     OW 8176   4.925   9.087  10.439
35446SOL    HW1 8177   5.016   9.101  10.467
35446SOL    HW2 8178   4.907   8.995  10.459
35447SOL     OW 8179   0.604   3.363  11.956
35447SOL    HW1 8180   0.601   3.438  12.014
35447SOL    HW2 8181   0.692   3.327  11.966
35448SOL     OW 8182   2.965   9.209   2.527
35448SOL    HW1 8183   3.042   9.170   2.568
35448SOL    HW2 8184   2.943   9.283   2.584
35449SOL     OW 8185  13.239  14.341  11.167
35449SOL    HW1 8186  13.320  14.292  11.153
35449SOL    HW2 8187  13.170  14.282  11.137
35450SOL     OW 8188   1.927  12.544   2.284
35450SOL    HW1 8189   1.930  12.489   2.363
35450SOL    HW2 8190   1.838  12.580   2.283
35451SOL     OW 8191  12.548   6.788   2.069
35451SOL    HW1 8192  12.515   6.726   2.004
35451SOL    HW2 8193  12.552   6.739   2.151
35452SOL     OW 8194  10.602   8.128   5.450
35452SOL    HW1 8195  10.551   8.048   5.457
35452SOL    HW2 8196  10.538   8.199   5.455
35453SOL     OW 8197   7.966  11.182   9.341
35453SOL    HW1 8198   7.961  11.277   9.353
35453SOL    HW2 8199   7.902  11.163   9.272
35454SOL     OW 8200  12.358  11.903  11.886
35454SOL    HW1 8201  12.289  11.856  11.933
35454SOL    HW2 8202  12.360  11.864  11.799
35455SOL     OW 8203   1.647   0.797  11.970
35455SOL    HW1 8204   1.717   0.753  11.922
35455SOL    HW2 8205   1.604   0.853  11.905
35456SOL     OW 8206   9.485  11.439   5.723
35456SOL    HW1 8207   9.559  11.415   5.668
35456SOL    HW2 8208   9.472  11.363   5.780
35457SOL     OW 8209   0.707  14.439  11.881
35457SOL    HW1 8210   0.702  14.521  11.832
35457SOL    HW2 8211   0.686  14.463  11.971
35458SOL     OW 8212   7.439   7.090   9.875
35458SOL    HW1 8213   7.476   7.143   9.804
35458SOL    HW2 8214   7.345   7.108   9.873
35459SOL     OW 8215  10.116  11.335   6.886
35459SOL    HW1 8216  10.066  11.417   6.888
35459SOL    HW2 8217  10.121  11.308   6.978
35460SOL     OW 8218   6.426  11.404   1.931
35460SOL    HW1 8219   6.483  11.334   1.962
35460SOL    HW2 8220   6.469  11.435   1.851
35461SOL     OW 8221   1.045  12.053   5.322
35461SOL    HW1 8222   0.962  12.009   5.310
35461SOL    HW2 8223   1.045  12.123   5.256
35462SOL     OW 8224  14.553   7.660   9.787
35462SOL    HW1 8225  14.459   7.676   9.779
35462SOL    HW2 8226  14.582   7.643   9.697
35463SOL     OW 8227   4.931  14.475   5.220
35463SOL    HW1 8228   4.970  14.395   5.255
35463SOL    HW2 8229   4.946  14.469   5.125
35464SOL     OW 8230   4.917   5.572   5.182
35464SOL    HW1 8231   4.888   5.521   5.106
35464SOL    HW2 8232   4.852   5.642   5.190
35465SOL     OW 8233   2.615   8.629  11.752
35465SOL    HW1 8234   2.563   8.671  11.820
35465SOL    HW2 8235   2.560   8.556  11.721
35466SOL     OW 8236  10.819   1.523  10.521
35466SOL    HW1 8237  10.749   1.521  10.587
35466SOL    HW2 8238  10.888   1.469  10.557
35467SOL     OW 8239   6.855  10.123   7.647
35467SOL    HW1 8240   6.764  10.145   7.669
35467SOL    HW2 8241   6.891  10.204   7.611
35468SOL     OW 8242   3.817  11.566   8.757
35468SOL    HW1 8243   3.912  11.554   8.761
35468SOL    HW2 8244   3.783  11.510   8.827
35469SOL     OW 8245   2.146   9.182  11.666
35469SOL    HW1 8246   2.060   9.140  11.675
35469SOL    HW2 8247   2.188   9.167  11.751
35470SOL     OW 8248  14.580  14.579  13.041
35470SOL    HW1 8249  14.578  14.497  12.991
35470SOL    HW2 8250  14.489  14.595  13.065
35471SOL     OW 8251  11.742  11.383   1.196
35471SOL    HW1 8252  11.679  11.313   1.178
35471SOL    HW2 8253  11.688  11.461   1.209
35472SOL     OW 8254   1.000   1.859  11.954
35472SOL    HW1 8255   1.045   1.904  11.882
35472SOL    HW2 8256   0.908   1.861  11.930
35473SOL     OW 8257   3.442   4.476  13.426
35473SOL    HW1 8258   3.363   4.524  13.401
35473SOL    HW2 8259   3.428   4.455  13.519
35474SOL     OW 8260   7.768   8.814   9.653
35474SOL    HW1 8261   7.761   8.876   9.580
35474SOL    HW2 8262   7.863   8.803   9.666
35475SOL     OW 8263   9.744   8.683   5.577
35475SOL    HW1 8264   9.649   8.682   5.583
35475SOL    HW2 8265   9.774   8.645   5.659
35476SOL     OW 8266  14.803  14.613  11.610
35476SOL    HW1 8267  14.782  14.704  11.589
35476SOL    HW2 8268   0.018  14.606  11.596
35477SOL     OW 8269  13.901   8.363  11.300
35477SOL    HW1 8270  13.917   8.441  11.353
35477SOL    HW2 8271  13.850   8.305  11.356
35478SOL     OW 8272   5.192   8.897  11.682
35478SOL    HW1 8273   5.286   8.878  11.692
35478SOL    HW2 8274   5.186   8.992  11.696
35479SOL     OW 8275  13.527  11.600  12.953
35479SOL    HW1 8276  13.618  11.611  12.982
35479SOL    HW2 8277  13.523  11.646  12.869
35480SOL     OW 8278  12.402  11.269   2.672
35480SOL    HW1 8279  12.425  11.320   2.594
35480SOL    HW2 8280  12.319  11.228   2.650
35481SOL     OW 8281   4.861  11.165   0.063
35481SOL    HW1 8282   4.810  11.189   0.140
35481SOL    HW2 8283   4.952  11.176   0.091
35482SOL     OW 8284   6.282   7.187   9.739
35482SOL    HW1 8285   6.310   7.264   9.789
35482SOL    HW2 8286   6.322   7.199   9.653
35483SOL     OW 8287   7.006   9.866  14.775
35483SOL    HW1 8288   6.948   9.882  14.849
35483SOL    HW2 8289   7.082   9.922  14.791
35484SOL     OW 8290  14.567   7.712   0.755
35484SOL    HW1 8291  14.597   7.683   0.841
35484SOL    HW2 8292  14.592   7.804   0.749
35485SOL     OW 8293  10.273   6.083   4.262
35485SOL    HW1 8294  10.221   6.105   4.185
35485SOL    HW2 8295  10.251   6.151   4.326
35486SOL     OW 8296  14.763   3.035  11.928
35486SOL    HW1 8297  14.785   3.024  12.021
35486SOL    HW2 8298  14.841   3.002  11.882
35487SOL     OW 8299   3.161   3.720   9.915
35487SOL    HW1 8300   3.074   3.755   9.929
35487SOL    HW2 8301   3.189   3.688  10.001
35488SOL     OW 8302   0.784   8.827  10.531
35488SOL    HW1 8303   0.773   8.795  10.620
35488SOL    HW2 8304   0.699   8.866  10.508
35489SOL     OW 8305   0.421   9.699   9.888
35489SOL    HW1 8306   0.491   9.764   9.899
35489SOL    HW2 8307   0.390   9.712   9.798
35490SOL     OW 8308  10.841   8.221   3.346
35490SOL    HW1 8309  10.928   8.203   3.380
35490SOL    HW2 8310  10.854   8.240   3.254
35491SOL     OW 8311   8.415  11.799  14.813
35491SOL    HW1 8312   8.333  11.826  14.772
35491SOL    HW2 8313   8.456  11.881  14.841
35492SOL     OW 8314   2.831  12.652   5.182
35492SOL    HW1 8315   2.876  12.631   5.264
35492SOL    HW2 8316   2.748  12.605   5.188
35493SOL     OW 8317   8.600   1.043   7.060
35493SOL    HW1 8318   8.601   1.126   7.013
35493SOL    HW2 8319   8.510   1.013   7.054
35494SOL     OW 8320  13.027   1.613   9.795
35494SOL    HW1 8321  13.047   1.520   9.799
35494SOL    HW2 8322  13.091   1.650   9.734
35495SOL     OW 8323   1.305   1.845   7.288
35495SOL    HW1 8324   1.389   1.824   7.248
35495SOL    HW2 8325   1.252   1.878   7.216
35496SOL     OW 8326   3.848  14.310   3.232
35496SOL    HW1 8327   3.893  14.351   3.306
35496SOL    HW2 8328   3.914  14.309   3.162
35497SOL     OW 8329   7.841   6.214  12.628
35497SOL    HW1 8330   7.762   6.170  12.598
35497SOL    HW2 8331   7.903   6.204  12.556
35498SOL     OW 8332  11.884   2.684   9.056
35498SOL    HW1 8333  11.909   2.680   8.964
35498SOL    HW2 8334  11.898   2.595   9.089
35499SOL     OW 8335  10.163   3.364   7.407
35499SOL    HW1 8336  10.071   3.348   7.425
35499SOL    HW2 8337  10.198   3.398   7.490
35500SOL     OW 8338   2.638   3.261   7.645
35500SOL    HW1 8339   2.724   3.304   7.634
35500SOL    HW2 8340   2.659   3.177   7.685
35501SOL     OW 8341   3.821  14.474   1.202
35501SOL    HW1 8342   3.848  14.463   1.111
35501SOL    HW2 8343   3.882  14.419   1.252
35502SOL     OW 8344   5.519   1.618  13.995
35502SOL    HW1 8345   5.462   1.598  13.921
35502SOL    HW2 8346   5.578   1.686  13.963
35503SOL     OW 8347   2.430   3.746  14.535
35503SOL    HW1 8348   2.455   3.689  14.608
35503SOL    HW2 8349   2.357   3.796  14.568
35504SOL     OW 8350   3.606  11.289   7.254
35504SOL    HW1 8351   3.670  11.231   7.211
35504SOL    HW2 8352   3.656  11.334   7.322
35505SOL     OW 8353   0.696  10.257   8.947
35505SOL    HW1 8354   0.784  10.233   8.917
35505SOL    HW2 8355   0.667  10.323   8.884
35506SOL     OW 8356   1.135  11.960   9.932
35506SOL    HW1 8357   1.197  11.915   9.874
35506SOL    HW2 8358   1.127  11.903  10.008
35507SOL     OW 8359   3.656   2.114   2.051
35507SOL    HW1 8360   3.589   2.136   2.115
35507SOL    HW2 8361   3.696   2.198   2.029
35508SOL     OW 8362   3.897   5.199   3.387
35508SOL    HW1 8363   3.905   5.245   3.471
35508SOL    HW2 8364   3.814   5.151   3.394
35509SOL     OW 8365   5.057   6.735   6.734
35509SOL    HW1 8366   5.058   6.699   6.645
35509SOL    HW2 8367   4.964   6.740   6.757
35510SOL     OW 8368  12.322   3.524  13.118
35510SOL    HW1 8369  12.330   3.448  13.175
35510SOL    HW2 8370  12.288   3.593  13.176
35511SOL     OW 8371   5.587   0.399   2.893
35511SOL    HW1 8372   5.659   0.400   2.830
35511SOL    HW2 8373   5.529   0.330   2.861
35512SOL     OW 8374   6.012  12.673  11.959
35512SOL    HW1 8375   6.068  12.746  11.934
35512SOL    HW2 8376   5.951  12.710  12.023
35513SOL     OW 8377   5.137   3.396   7.945
35513SOL    HW1 8378   5.135   3.378   8.039
35513SOL    HW2 8379   5.144   3.310   7.904
35514SOL     OW 8380  12.946   0.340  11.614
35514SOL    HW1 8381  12.926   0.420  11.567
35514SOL    HW2 8382  12.948   0.272  11.547
35515SOL     OW 8383  14.425  13.970   9.113
35515SOL    HW1 8384  14.431  13.899   9.049
35515SOL    HW2 8385  14.331  13.985   9.124
35516SOL     OW 8386   4.746   5.039   5.844
35516SOL    HW1 8387   4.765   4.958   5.798
35516SOL    HW2 8388   4.825   5.092   5.833
35517SOL     OW 8389   7.774   9.373  10.318
35517SOL    HW1 8390   7.786   9.338  10.407
35517SOL    HW2 8391   7.826   9.454  10.317
35518SOL     OW 8392  11.799   7.163   3.358
35518SOL    HW1 8393  11.837   7.196   3.439
35518SOL    HW2 8394  11.723   7.219   3.342
35519SOL     OW 8395   3.423   6.622   1.136
35519SOL    HW1 8396   3.497   6.677   1.163
35519SOL    HW2 8397   3.365   6.682   1.089
35520SOL     OW 8398  12.973   0.740  11.597
35520SOL    HW1 8399  13.007   0.804  11.534
35520SOL    HW2 8400  12.891   0.710  11.558
35521SOL     OW 8401   8.498  12.827   4.590
35521SOL    HW1 8402   8.505  12.752   4.648
35521SOL    HW2 8403   8.563  12.890   4.623
35522SOL     OW 8404  10.956  13.209  13.053
35522SOL    HW1 8405  11.034  13.162  13.021
35522SOL    HW2 8406  10.928  13.261  12.977
35523SOL     OW 8407   0.083   6.033   2.224
35523SOL    HW1 8408   0.151   5.966   2.214
35523SOL    HW2 8409   0.063   6.059   2.134
35524SOL     OW 8410  14.077  14.226  12.185
35524SOL    HW1 8411  14.071  14.244  12.092
35524SOL    HW2 8412  14.134  14.294  12.220
35525SOL     OW 8413  10.598  14.326   0.760
35525SOL    HW1 8414  10.673  14.366   0.716
35525SOL    HW2 8415  10.625  14.318   0.852
35526SOL     OW 8416   7.029  12.693   1.440
35526SOL    HW1 8417   7.108  12.748   1.443
35526SOL    HW2 8418   7.057  12.610   1.478
35527SOL     OW 8419   8.458  13.340   8.156
35527SOL    HW1 8420   8.402  13.272   8.118
35527SOL    HW2 8421   8.454  13.412   8.093
35528SOL     OW 8422   3.810   7.258   1.439
35528SOL    HW1 8423   3.737   7.199   1.457
35528SOL    HW2 8424   3.774   7.323   1.379
35529SOL     OW 8425   0.335   6.373   7.374
35529SOL    HW1 8426   0.332   6.425   7.294
35529SOL    HW2 8427   0.411   6.316   7.362
35530SOL     OW 8428   5.364   3.589  11.176
35530SOL    HW1 8429   5.336   3.586  11.084
35530SOL    HW2 8430   5.402   3.676  11.186
35531SOL     OW 8431  13.982   6.039  13.204
35531SOL    HW1 8432  14.013   6.072  13.120
35531SOL    HW2 8433  13.901   5.993  13.183
35532SOL     OW 8434   9.468   3.752  14.787
35532SOL    HW1 8435   9.490   3.708  14.705
35532SOL    HW2 8436   9.513   3.837  14.781
35533SOL     OW 8437   9.158   3.275  10.939
35533SOL    HW1 8438   9.067   3.260  10.962
35533SOL    HW2 8439   9.165   3.253  10.847
35534SOL     OW 8440   7.342   7.704   8.690
35534SOL    HW1 8441   7.286   7.755   8.632
35534SOL    HW2 8442   7.372   7.767   8.756
35535SOL     OW 8443   6.002   4.368   3.654
35535SOL    HW1 8444   6.096   4.382   3.647
35535SOL    HW2 8445   5.992   4.273   3.663
35536SOL     OW 8446   0.007   6.565  10.591
35536SOL    HW1 8447  14.817   6.622  10.560
35536SOL    HW2 8448  14.841   6.486  10.620
35537SOL     OW 8449   9.953  10.879   6.442
35537SOL    HW1 8450  10.011  10.861   6.368
35537SOL    HW2 8451   9.866  10.855   6.410
35538SOL     OW 8452   0.738   8.781   5.924
35538SOL    HW1 8453   0.758   8.783   6.018
35538SOL    HW2 8454   0.756   8.691   5.897
35539SOL     OW 8455  13.495  13.127   3.569
35539SOL    HW1 8456  13.483  13.187   3.495
35539SOL    HW2 8457  13.462  13.042   3.537
35540SOL     OW 8458   6.161   6.306   6.031
35540SOL    HW1 8459   6.140   6.389   6.075
35540SOL    HW2 8460   6.144   6.323   5.939
35541SOL     OW 8461   7.712   1.397   1.274
35541SOL    HW1 8462   7.620   1.379   1.252
35541SOL    HW2 8463   7.724   1.489   1.252
35542SOL     OW 8464   1.469   5.058  14.458
35542SOL    HW1 8465   1.487   5.057  14.552
35542SOL    HW2 8466   1.440   5.148  14.440
35543SOL     OW 8467  10.472   7.885   2.334
35543SOL    HW1 8468  10.516   7.817   2.384
35543SOL    HW2 8469  10.402   7.840   2.288
35544SOL     OW 8470   7.795   7.141  13.519
35544SOL    HW1 8471   7.768   7.217  13.467
35544SOL    HW2 8472   7.838   7.083  13.457
35545SOL     OW 8473  14.103   5.851  12.006
35545SOL    HW1 8474  14.059   5.866  11.923
35545SOL    HW2 8475  14.045   5.794  12.055
35546SOL     OW 8476   5.732   2.979   9.056
35546SOL    HW1 8477   5.794   3.005   8.988
35546SOL    HW2 8478   5.757   3.032   9.132
35547SOL     OW 8479   4.987  11.647   7.166
35547SOL    HW1 8480   5.013  11.718   7.108
35547SOL    HW2 8481   5.067  11.597   7.180
35548SOL     OW 8482  14.461  10.634   8.500
35548SOL    HW1 8483  14.465  10.717   8.547
35548SOL    HW2 8484  14.462  10.568   8.569
35549SOL     OW 8485   9.562  12.886  12.512
35549SOL    HW1 8486   9.477  12.921  12.537
35549SOL    HW2 8487   9.574  12.809  12.568
35550SOL     OW 8488  11.448   2.174   5.188
35550SOL    HW1 8489  11.384   2.159   5.258
35550SOL    HW2 8490  11.457   2.269   5.184
35551SOL     OW 8491   9.287   9.526   2.485
35551SOL    HW1 8492   9.319   9.615   2.467
35551SOL    HW2 8493   9.359   9.469   2.460
35552SOL     OW 8494   5.883   4.596  13.484
35552SOL    HW1 8495   5.838   4.649  13.418
35552SOL    HW2 8496   5.813   4.560  13.538
35553SOL     OW 8497   8.138   8.611   8.131
35553SOL    HW1 8498   8.207   8.656   8.083
35553SOL    HW2 8499   8.083   8.682   8.165
35554SOL     OW 8500   8.660   0.087  10.281
35554SOL    HW1 8501   8.624   0.022  10.341
35554SOL    HW2 8502   8.683   0.037  10.202
35555SOL     OW 8503  10.232   8.456   4.684
35555SOL    HW1 8504  10.298   8.514   4.648
35555SOL    HW2 8505  10.202   8.500   4.764
35556SOL     OW 8506   3.174   9.694  14.630
35556SOL    HW1 8507   3.268   9.706  14.618
35556SOL    HW2 8508   3.137   9.782  14.619
35557SOL     OW 8509  13.251   2.583   1.467
35557SOL    HW1 8510  13.222   2.515   1.406
35557SOL    HW2 8511  13.180   2.646   1.469
35558SOL     OW 8512  12.040   0.688   3.222
35558SOL    HW1 8513  11.953   0.706   3.185
35558SOL    HW2 8514  12.042   0.740   3.302
35559SOL     OW 8515   1.391   4.878   8.926
35559SOL    HW1 8516   1.326   4.810   8.943
35559SOL    HW2 8517   1.425   4.857   8.839
35560SOL     OW 8518  13.984  13.547  13.877
35560SOL    HW1 8519  13.903  13.502  13.900
35560SOL    HW2 8520  14.038  13.480  13.835
35561SOL     OW 8521   2.331   3.004   2.111
35561SOL    HW1 8522   2.398   3.052   2.159
35561SOL    HW2 8523   2.258   3.066   2.104
35562SOL     OW 8524  11.385   7.655  11.230
35562SOL    HW1 8525  11.366   7.563  11.210
35562SOL    HW2 8526  11.480   7.660  11.228
35563SOL     OW 8527  12.888   6.437   0.835
35563SOL    HW1 8528  12.819   6.382   0.797
35563SOL    HW2 8529  12.958   6.376   0.858
35564SOL     OW 8530  13.007   0.908   4.396
35564SOL    HW1 8531  12.990   0.937   4.306
35564SOL    HW2 8532  12.926   0.928   4.443
35565SOL     OW 8533  14.187   7.047  14.845
35565SOL    HW1 8534  14.142   7.129  14.824
35565SOL    HW2 8535  14.275   7.074  14.870
35566SOL     OW 8536   1.578  14.010   6.872
35566SOL    HW1 8537   1.494  13.965   6.877
35566SOL    HW2 8538   1.641  13.942   6.849
35567SOL     OW 8539   4.373   0.897  13.590
35567SOL    HW1 8540   4.456   0.851  13.600
35567SOL    HW2 8541   4.393   0.972  13.535
35568SOL     OW 8542   9.863  12.481   1.854
35568SOL    HW1 8543   9.797  12.550   1.849
35568SOL    HW2 8544   9.872  12.450   1.764
35569SOL     OW 8545  12.925   8.443  14.746
35569SOL    HW1 8546  12.908   8.350  14.735
35569SOL    HW2 8547  12.844   8.478  14.784
35570SOL     OW 8548   3.590   9.882   4.874
35570SOL    HW1 8549   3.621   9.896   4.963
35570SOL    HW2 8550   3.632   9.800   4.846
35571SOL     OW 8551  10.648  11.719   8.398
35571SOL    HW1 8552  10.586  11.687   8.333
35571SOL    HW2 8553  10.713  11.768   8.348
35572SOL     OW 8554   1.340  14.773   5.950
35572SOL    HW1 8555   1.416  14.759   5.894
35572SOL    HW2 8556   1.269  14.726   5.907
35573SOL     OW 8557   0.291   4.200  12.576
35573SOL    HW1 8558   0.288   4.281  12.627
35573SOL    HW2 8559   0.309   4.131  12.640
35574SOL     OW 8560  10.399   9.383  13.063
35574SOL    HW1 8561  10.418   9.457  13.121
35574SOL    HW2 8562  10.333   9.416  13.002
35575SOL     OW 8563   6.014   0.847  11.394
35575SOL    HW1 8564   5.953   0.900  11.342
35575SOL    HW2 8565   6.015   0.762  11.350
35576SOL     OW 8566  10.428  12.865   5.924
35576SOL    HW1 8567  10.428  12.939   5.863
35576SOL    HW2 8568  10.370  12.801   5.883
35577SOL     OW 8569   3.652   2.700   1.226
35577SOL    HW1 8570   3.585   2.766   1.209
35577SOL    HW2 8571   3.722   2.748   1.270
35578SOL     OW 8572  11.738  12.080  13.096
35578SOL    HW1 8573  11.759  12.116  13.010
35578SOL    HW2 8574  11.747  12.154  13.156
35579SOL     OW 8575   0.830   7.972  14.373
35579SOL    HW1 8576   0.817   7.980  14.278
35579SOL    HW2 8577   0.759   8.021  14.412
35580SOL     OW 8578   0.514   2.387   6.434
35580SOL    HW1 8579   0.454   2.412   6.364
35580SOL    HW2 8580   0.504   2.292   6.442
35581SOL     OW 8581  14.776  10.883  14.149
35581SOL    HW1 8582  14.739  10.911  14.232
35581SOL    HW2 8583  14.786  10.963  14.098
35582SOL     OW 8584  13.409   7.202   7.878
35582SOL    HW1 8585  13.433   7.293   7.897
35582SOL    HW2 8586  13.435   7.153   7.956
35583SOL     OW 8587   8.451   7.461  12.143
35583SOL    HW1 8588   8.486   7.390  12.196
35583SOL    HW2 8589   8.430   7.420  12.059
35584SOL     OW 8590  14.545   6.062   4.537
35584SOL    HW1 8591  14.455   6.084   4.515
35584SOL    HW2 8592  14.591   6.146   4.535
35585SOL     OW 8593   3.226   7.847  11.918
35585SOL    HW1 8594   3.203   7.934  11.885
35585SOL    HW2 8595   3.150   7.793  11.896
35586SOL     OW 8596   2.394   5.108  12.662
35586SOL    HW1 8597   2.420   5.081  12.575
35586SOL    HW2 8598   2.302   5.082  12.671
35587SOL     OW 8599  12.932  11.026   9.869
35587SOL    HW1 8600  12.920  10.989   9.957
35587SOL    HW2 8601  13.027  11.031   9.858
35588SOL     OW 8602   2.950   7.069  14.665
35588SOL    HW1 8603   2.987   6.997  14.615
35588SOL    HW2 8604   2.973   7.049  14.756
35589SOL     OW 8605   1.587   3.618  14.041
35589SOL    HW1 8606   1.667   3.655  14.080
35589SOL    HW2 8607   1.606   3.616  13.947
35590SOL     OW 8608   9.949  14.468   7.459
35590SOL    HW1 8609   9.977  14.424   7.379
35590SOL    HW2 8610   9.865  14.428   7.481
35591SOL     OW 8611   6.319  10.865   1.213
35591SOL    HW1 8612   6.373  10.828   1.283
35591SOL    HW2 8613   6.240  10.894   1.257
35592SOL     OW 8614  13.560   0.165   4.420
35592SOL    HW1 8615  13.639   0.153   4.368
35592SOL    HW2 8616  13.507   0.227   4.369
35593SOL     OW 8617   3.633   0.354   4.223
35593SOL    HW1 8618   3.540   0.335   4.238
35593SOL    HW2 8619   3.676   0.327   4.304
35594SOL     OW 8620   1.479  11.739   9.337
35594SOL    HW1 8621   1.421  11.677   9.291
35594SOL    HW2 8622   1.529  11.781   9.267
35595SOL     OW 8623   4.671   0.271  13.053
35595SOL    HW1 8624   4.577   0.283  13.070
35595SOL    HW2 8625   4.710   0.356  13.069
35596SOL     OW 8626   2.999  11.968   4.711
35596SOL    HW1 8627   3.078  12.000   4.755
35596SOL    HW2 8628   2.946  12.047   4.698
35597SOL     OW 8629   1.240   5.043   4.531
35597SOL    HW1 8630   1.322   5.011   4.568
35597SOL    HW2 8631   1.225   4.987   4.454
35598SOL     OW 8632  11.293  10.430  14.166
35598SOL    HW1 8633  11.266  10.345  14.132
35598SOL    HW2 8634  11.213  10.471  14.197
35599SOL     OW 8635   6.101   2.193   0.147
35599SOL    HW1 8636   6.080   2.233   0.064
35599SOL    HW2 8637   6.190   2.223   0.167
35600SOL     OW 8638   5.836   0.321   8.480
35600SOL    HW1 8639   5.894   0.351   8.409
35600SOL    HW2 8640   5.751   0.309   8.439
35601SOL     OW 8641  13.037  11.325   7.292
35601SOL    HW1 8642  13.027  11.390   7.362
35601SOL    HW2 8643  12.952  11.324   7.248
35602SOL     OW 8644   1.421  14.365   4.193
35602SOL    HW1 8645   1.482  14.305   4.151
35602SOL    HW2 8646   1.334  14.327   4.177
35603SOL     OW 8647  13.293   7.072   7.273
35603SOL    HW1 8648  13.359   7.122   7.320
35603SOL    HW2 8649  13.340   7.030   7.201
35604SOL     OW 8650  12.712   4.516   3.259
35604SOL    HW1 8651  12.620   4.490   3.260
35604SOL    HW2 8652  12.741   4.502   3.169
35605SOL     OW 8653  12.564   0.721   9.345
35605SOL    HW1 8654  12.624   0.703   9.273
35605SOL    HW2 8655  12.583   0.812   9.369
35606SOL     OW 8656   8.431  10.883   1.360
35606SOL    HW1 8657   8.352  10.845   1.321
35606SOL    HW2 8658   8.399  10.952   1.418
35607SOL     OW 8659   9.328   0.669   2.761
35607SOL    HW1 8660   9.416   0.690   2.729
35607SOL    HW2 8661   9.294   0.605   2.698
35608SOL     OW 8662   0.306   9.327   3.885
35608SOL    HW1 8663   0.398   9.337   3.864
35608SOL    HW2 8664   0.266   9.295   3.804
35609SOL     OW 8665  13.541   3.200  13.071
35609SOL    HW1 8666  13.570   3.276  13.121
35609SOL    HW2 8667  13.500   3.236  12.993
35610SOL     OW 8668   2.758   4.912  13.523
35610SOL    HW1 8669   2.680   4.857  13.518
35610SOL    HW2 8670   2.754   4.952  13.610
35611SOL     OW 8671   0.226   8.776  14.354
35611SOL    HW1 8672   0.177   8.743  14.279
35611SOL    HW2 8673   0.183   8.859  14.376
35612SOL     OW 8674   8.710   2.123  10.491
35612SOL    HW1 8675   8.662   2.169  10.423
35612SOL    HW2 8676   8.801   2.126  10.463
35613SOL     OW 8677   8.505  11.548   7.256
35613SOL    HW1 8678   8.483  11.470   7.204
35613SOL    HW2 8679   8.502  11.519   7.347
35614SOL     OW 8680  10.060   8.104   8.698
35614SOL    HW1 8681  10.037   8.148   8.780
35614SOL    HW2 8682  10.020   8.017   8.706
35615SOL     OW 8683   8.470   1.821  11.636
35615SOL    HW1 8684   8.435   1.895  11.586
35615SOL    HW2 8685   8.501   1.861  11.718
35616SOL     OW 8686  12.134   2.813   4.713
35616SOL    HW1 8687  12.108   2.862   4.635
35616SOL    HW2 8688  12.057   2.815   4.769
35617SOL     OW 8689   2.456  10.201   3.454
35617SOL    HW1 8690   2.510  10.145   3.511
35617SOL    HW2 8691   2.519  10.259   3.411
35618SOL     OW 8692   8.700  12.155   6.690
35618SOL    HW1 8693   8.732  12.102   6.617
35618SOL    HW2 8694   8.760  12.135   6.763
35619SOL     OW 8695  10.856  11.121   3.173
35619SOL    HW1 8696  10.808  11.103   3.093
35619SOL    HW2 8697  10.820  11.203   3.206
35620SOL     OW 8698   7.755   1.394  14.218
35620SOL    HW1 8699   7.770   1.303  14.241
35620SOL    HW2 8700   7.835   1.439  14.243
35621SOL     OW 8701   4.429   5.351   4.594
35621SOL    HW1 8702   4.505   5.404   4.572
35621SOL    HW2 8703   4.464   5.280   4.648
35622SOL     OW 8704   1.739   8.441   2.181
35622SOL    HW1 8705   1.776   8.411   2.264
35622SOL    HW2 8706   1.700   8.363   2.142
35623SOL     OW 8707   3.583   0.857   7.877
35623SOL    HW1 8708   3.674   0.844   7.903
35623SOL    HW2 8709   3.572   0.952   7.873
35624SOL     OW 8710  14.507  10.777   2.192
35624SOL    HW1 8711  14.414  10.801   2.200
35624SOL    HW2 8712  14.507  10.686   2.164
35625SOL     OW 8713   4.828   5.736   6.581
35625SOL    HW1 8714   4.754   5.678   6.562
35625SOL    HW2 8715   4.893   5.712   6.516
35626SOL     OW 8716   0.782   3.102  12.557
35626SOL    HW1 8717   0.860   3.101  12.502
35626SOL    HW2 8718   0.712   3.130  12.498
35627SOL     OW 8719   4.132   8.753   7.393
35627SOL    HW1 8720   4.223   8.728   7.373
35627SOL    HW2 8721   4.085   8.669   7.397
35628SOL     OW 8722  13.941   0.012   5.448
35628SOL    HW1 8723  14.025  14.875   5.404
35628SOL    HW2 8724  13.938  14.826   5.519
35629SOL     OW 8725   8.767   3.557  14.376
35629SOL    HW1 8726   8.790   3.586  14.288
35629SOL    HW2 8727   8.673   3.538  14.371
35630SOL     OW 8728   9.325   4.253  10.597
35630SOL    HW1 8729   9.345   4.216  10.683
35630SOL    HW2 8730   9.396   4.315  10.580
35631SOL     OW 8731   2.397  14.084   0.448
35631SOL    HW1 8732   2.476  14.031   0.463
35631SOL    HW2 8733   2.375  14.070   0.356
35632SOL     OW 8734   1.047  10.849  12.357
35632SOL    HW1 8735   1.126  10.819  12.313
35632SOL    HW2 8736   1.002  10.769  12.384
35633SOL     OW 8737  13.019   3.455  12.604
35633SOL    HW1 8738  12.938   3.487  12.565
35633SOL    HW2 8739  12.995   3.433  12.694
35634SOL     OW 8740   8.604  11.141   9.493
35634SOL    HW1 8741   8.566  11.172   9.411
35634SOL    HW2 8742   8.583  11.048   9.495
35635SOL     OW 8743   4.938  14.393  12.185
35635SOL    HW1 8744   4.981  14.310  12.162
35635SOL    HW2 8745   4.937  14.443  12.103
35636SOL     OW 8746   5.906   1.977   2.849
35636SOL    HW1 8747   5.913   1.914   2.920
35636SOL    HW2 8748   5.975   2.040   2.865
35637SOL     OW 8749  10.671   4.955  12.309
35637SOL    HW1 8750  10.607   4.946  12.239
35637SOL    HW2 8751  10.706   5.043  12.298
35638SOL     OW 8752  13.361   2.914   2.397
35638SOL    HW1 8753  13.425   2.981   2.372
35638SOL    HW2 8754  13.279   2.962   2.406
35639SOL     OW 8755   7.298   2.284   4.367
35639SOL    HW1 8756   7.239   2.359   4.364
35639SOL    HW2 8757   7.363   2.307   4.433
35640SOL     OW 8758   3.827   8.122   4.412
35640SOL    HW1 8759   3.781   8.121   4.328
35640SOL    HW2 8760   3.859   8.211   4.421
35641SOL     OW 8761   0.647   2.969   0.184
35641SOL    HW1 8762   0.737   2.968   0.150
35641SOL    HW2 8763   0.625   2.877   0.197
35642SOL     OW 8764  13.231   9.594   6.505
35642SOL    HW1 8765  13.304   9.628   6.453
35642SOL    HW2 8766  13.180   9.672   6.527
35643SOL     OW 8767   1.333   5.421   5.362
35643SOL    HW1 8768   1.403   5.442   5.300
35643SOL    HW2 8769   1.378   5.386   5.439
35644SOL     OW 8770   4.308   1.788   7.847
35644SOL    HW1 8771   4.263   1.807   7.765
35644SOL    HW2 8772   4.400   1.781   7.823
35645SOL     OW 8773   2.950   2.382   0.592
35645SOL    HW1 8774   2.969   2.433   0.671
35645SOL    HW2 8775   2.910   2.302   0.624
35646SOL     OW 8776   8.907   5.881  13.472
35646SOL    HW1 8777   8.949   5.807  13.516
35646SOL    HW2 8778   8.911   5.952  13.536
35647SOL     OW 8779   2.442   3.444   2.299
35647SOL    HW1 8780   2.360   3.393   2.301
35647SOL    HW2 8781   2.455   3.472   2.389
35648SOL     OW 8782  11.708  14.839   9.877
35648SOL    HW1 8783  11.759  14.763   9.848
35648SOL    HW2 8784  11.761   0.035   9.850
35649SOL     OW 8785   5.273  10.273   1.682
35649SOL    HW1 8786   5.190  10.240   1.717
35649SOL    HW2 8787   5.331  10.274   1.758
35650SOL     OW 8788  10.121  13.264  12.971
35650SOL    HW1 8789  10.110  13.316  12.891
35650SOL    HW2 8790  10.036  13.223  12.985
35651SOL     OW 8791  13.353   3.343   3.551
35651SOL    HW1 8792  13.352   3.275   3.619
35651SOL    HW2 8793  13.373   3.424   3.599
35652SOL     OW 8794   0.114  12.318  11.429
35652SOL    HW1 8795   0.029  12.346  11.464
35652SOL    HW2 8796   0.133  12.380  11.359
35653SOL     OW 8797   7.346  13.844   1.292
35653SOL    HW1 8798   7.377  13.760   1.325
35653SOL    HW2 8799   7.355  13.837   1.197
35654SOL     OW 8800   5.625   2.694   4.774
35654SOL    HW1 8801   5.554   2.757   4.764
35654SOL    HW2 8802   5.653   2.675   4.685
35655SOL     OW 8803   3.402   3.443   6.009
35655SOL    HW1 8804   3.498   3.438   6.017
35655SOL    HW2 8805   3.369   3.373   6.065
35656SOL     OW 8806   8.244  10.317   4.430
35656SOL    HW1 8807   8.279  10.266   4.357
35656SOL    HW2 8808   8.322  10.348   4.477
35657SOL     OW 8809  13.812   2.931   3.952
35657SOL    HW1 8810  13.776   2.946   4.039
35657SOL    HW2 8811  13.739   2.897   3.900
35658SOL     OW 8812  14.780  11.569  13.413
35658SOL    HW1 8813  14.696  11.600  13.446
35658SOL    HW2 8814  14.771  11.474  13.409
35659SOL     OW 8815  11.126   3.854   5.533
35659SOL    HW1 8816  11.146   3.924   5.471
35659SOL    HW2 8817  11.051   3.886   5.581
35660SOL     OW 8818   4.051  11.438   4.106
35660SOL    HW1 8819   4.051  11.414   4.013
35660SOL    HW2 8820   3.958  11.450   4.128
35661SOL     OW 8821  12.307   7.248   7.596
35661SOL    HW1 8822  12.285   7.222   7.507
35661SOL    HW2 8823  12.354   7.332   7.585
35662SOL     OW 8824  11.209   6.613   6.772
35662SOL    HW1 8825  11.249   6.526   6.764
35662SOL    HW2 8826  11.167   6.628   6.687
35663SOL     OW 8827  12.002  11.691   2.568
35663SOL    HW1 8828  11.966  11.605   2.546
35663SOL    HW2 8829  11.980  11.747   2.493
35664SOL     OW 8830  11.257  11.625   6.154
35664SOL    HW1 8831  11.333  11.679   6.131
35664SOL    HW2 8832  11.285  11.536   6.134
35665SOL     OW 8833   5.907  11.350   4.069
35665SOL    HW1 8834   5.992  11.340   4.111
35665SOL    HW2 8835   5.878  11.261   4.053
35666SOL     OW 8836   4.536   7.153  14.820
35666SOL    HW1 8837   4.487   7.106   0.007
35666SOL    HW2 8838   4.586   7.219  14.869
35667SOL     OW 8839   6.471  11.073   2.199
35667SOL    HW1 8840   6.432  10.986   2.191
35667SOL    HW2 8841   6.483  11.102   2.108
35668SOL     OW 8842   1.123   4.712   9.410
35668SOL    HW1 8843   1.204   4.661   9.417
35668SOL    HW2 8844   1.092   4.721   9.500
35669SOL     OW 8845  12.673  11.937   5.391
35669SOL    HW1 8846  12.673  11.908   5.300
35669SOL    HW2 8847  12.600  11.998   5.397
35670SOL     OW 8848   2.810  13.758   4.720
35670SOL    HW1 8849   2.717  13.745   4.739
35670SOL    HW2 8850   2.824  13.851   4.735
35671SOL     OW 8851  13.666   8.277  12.275
35671SOL    HW1 8852  13.739   8.230  12.235
35671SOL    HW2 8853  13.705   8.356  12.311
35672SOL     OW 8854   2.619  12.024   9.189
35672SOL    HW1 8855   2.658  11.939   9.173
35672SOL    HW2 8856   2.672  12.085   9.138
35673SOL     OW 8857   5.500   0.425   3.517
35673SOL    HW1 8858   5.553   0.348   3.497
35673SOL    HW2 8859   5.550   0.498   3.481
35674SOL     OW 8860  12.980  13.724   9.811
35674SOL    HW1 8861  12.997  13.633   9.785
35674SOL    HW2 8862  12.889  13.723   9.843
35675SOL     OW 8863  11.977  11.112   5.522
35675SOL    HW1 8864  12.016  11.036   5.565
35675SOL    HW2 8865  12.045  11.179   5.528
35676SOL     OW 8866   5.812   1.841   6.452
35676SOL    HW1 8867   5.729   1.880   6.425
35676SOL    HW2 8868   5.806   1.749   6.425
35677SOL     OW 8869   5.856  14.783  12.479
35677SOL    HW1 8870   5.769  14.802  12.444
35677SOL    HW2 8871   5.916  14.814  12.411
35678SOL     OW 8872  13.328  14.350   0.554
35678SOL    HW1 8873  13.332  14.260   0.585
35678SOL    HW2 8874  13.250  14.387   0.595
35679SOL     OW 8875  11.674  12.363   8.787
35679SOL    HW1 8876  11.654  12.273   8.759
35679SOL    HW2 8877  11.762  12.357   8.823
35680SOL     OW 8878  12.436   5.861   9.925
35680SOL    HW1 8879  12.502   5.885   9.990
35680SOL    HW2 8880  12.369   5.814   9.975
35681SOL     OW 8881   8.111   0.609   5.409
35681SOL    HW1 8882   8.124   0.673   5.339
35681SOL    HW2 8883   8.107   0.661   5.489
35682SOL     OW 8884  12.628   8.689   9.078
35682SOL    HW1 8885  12.622   8.667   9.171
35682SOL    HW2 8886  12.719   8.671   9.054
35683SOL     OW 8887   4.476  13.719   6.238
35683SOL    HW1 8888   4.493  13.718   6.144
35683SOL    HW2 8889   4.414  13.648   6.252
35684SOL     OW 8890  13.493  11.747   1.283
35684SOL    HW1 8891  13.414  11.793   1.255
35684SOL    HW2 8892  13.529  11.802   1.352
35685SOL     OW 8893   0.749   7.790   7.815
35685SOL    HW1 8894   0.819   7.798   7.880
35685SOL    HW2 8895   0.686   7.859   7.839
35686SOL     OW 8896   0.398  13.288   6.123
35686SOL    HW1 8897   0.438  13.201   6.117
35686SOL    HW2 8898   0.458  13.345   6.074
35687SOL     OW 8899   8.680   9.951   1.329
35687SOL    HW1 8900   8.681   9.912   1.241
35687SOL    HW2 8901   8.666  10.044   1.313
35688SOL     OW 8902  11.272   1.901   3.082
35688SOL    HW1 8903  11.264   1.833   3.150
35688SOL    HW2 8904  11.344   1.956   3.111
35689SOL     OW 8905   0.969  13.781  10.855
35689SOL    HW1 8906   0.964  13.688  10.880
35689SOL    HW2 8907   0.909  13.825  10.915
35690SOL     OW 8908   1.846   3.381   6.752
35690SOL    HW1 8909   1.896   3.337   6.683
35690SOL    HW2 8910   1.768   3.326   6.763
35691SOL     OW 8911   8.903   6.699  14.841
35691SOL    HW1 8912   8.845   6.721   0.035
35691SOL    HW2 8913   8.928   6.608  14.856
35692SOL     OW 8914   0.280   3.033   8.197
35692SOL    HW1 8915   0.190   3.035   8.229
35692SOL    HW2 8916   0.317   2.952   8.232
35693SOL     OW 8917   9.119   4.779  12.847
35693SOL    HW1 8918   9.059   4.720  12.802
35693SOL    HW2 8919   9.163   4.828  12.777
35694SOL     OW 8920   2.858  11.090   7.290
35694SOL    HW1 8921   2.939  11.120   7.249
35694SOL    HW2 8922   2.872  10.998   7.308
35695SOL     OW 8923   8.828   6.471   5.599
35695SOL    HW1 8924   8.900   6.433   5.548
35695SOL    HW2 8925   8.837   6.432   5.686
35696SOL     OW 8926   7.954  11.311  14.217
35696SOL    HW1 8927   7.959  11.228  14.168
35696SOL    HW2 8928   7.866  11.344  14.199
35697SOL     OW 8929   8.509   9.075   3.170
35697SOL    HW1 8930   8.550   9.136   3.108
35697SOL    HW2 8931   8.574   9.065   3.240
35698SOL     OW 8932   4.088   0.068  13.048
35698SOL    HW1 8933   4.126  14.871  13.004
35698SOL    HW2 8934   4.139   0.077  13.129
35699SOL     OW 8935   9.776   2.028  13.436
35699SOL    HW1 8936   9.691   2.061  13.408
35699SOL    HW2 8937   9.823   2.105  13.468
35700SOL     OW 8938   3.099  13.820   8.014
35700SOL    HW1 8939   3.143  13.737   7.993
35700SOL    HW2 8940   3.009  13.808   7.982
35701SOL     OW 8941   2.190  11.090   4.486
35701SOL    HW1 8942   2.197  11.064   4.394
35701SOL    HW2 8943   2.280  11.091   4.517
35702SOL     OW 8944  10.791   7.619   4.518
35702SOL    HW1 8945  10.849   7.671   4.574
35702SOL    HW2 8946  10.741   7.684   4.469
35703SOL     OW 8947   0.810   7.092   0.048
35703SOL    HW1 8948   0.833   7.073  14.836
35703SOL    HW2 8949   0.731   7.146   0.043
35704SOL     OW 8950   5.354   0.029   3.986
35704SOL    HW1 8951   5.446   0.009   3.968
35704SOL    HW2 8952   5.325   0.078   3.909
35705SOL     OW 8953   5.925   6.836  10.461
35705SOL    HW1 8954   5.945   6.912  10.407
35705SOL    HW2 8955   5.890   6.772  10.399
35706SOL     OW 8956   9.834  10.264  13.942
35706SOL    HW1 8957   9.831  10.169  13.951
35706SOL    HW2 8958   9.921  10.289  13.974
35707SOL     OW 8959  12.220   7.673   2.024
35707SOL    HW1 8960  12.150   7.700   1.964
35707SOL    HW2 8961  12.278   7.749   2.029
35708SOL     OW 8962   6.594   6.133   1.653
35708SOL    HW1 8963   6.688   6.129   1.633
35708SOL    HW2 8964   6.554   6.071   1.592
35709SOL     OW 8965   8.163   6.152   3.078
35709SOL    HW1 8966   8.110   6.151   2.998
35709SOL    HW2 8967   8.251   6.176   3.049
35710SOL     OW 8968   5.050   9.993  12.618
35710SOL    HW1 8969   5.006  10.077  12.624
35710SOL    HW2 8970   5.142  10.014  12.606
35711SOL     OW 8971  13.188   6.002  10.407
35711SOL    HW1 8972  13.170   6.082  10.457
35711SOL    HW2 8973  13.253   6.028  10.342
35712SOL     OW 8974   9.768  10.403  14.472
35712SOL    HW1 8975   9.798  10.314  14.460
35712SOL    HW2 8976   9.808  10.452  14.400
35713SOL     OW 8977  12.222   5.725   6.725
35713SOL    HW1 8978  12.309   5.691   6.747
35713SOL    HW2 8979  12.168   5.702   6.800
35714SOL     OW 8980   1.923  13.633   5.432
35714SOL    HW1 8981   1.973  13.644   5.512
35714SOL    HW2 8982   1.835  13.608   5.461
35715SOL     OW 8983   3.291   4.770   6.808
35715SOL    HW1 8984   3.350   4.845   6.798
35715SOL    HW2 8985   3.296   4.748   6.901
35716SOL     OW 8986   5.710   4.316  10.097
35716SOL    HW1 8987   5.680   4.362  10.175
35716SOL    HW2 8988   5.722   4.225  10.126
35717SOL     OW 8989   0.904   0.374  11.466
35717SOL    HW1 8990   0.816   0.346  11.491
35717SOL    HW2 8991   0.891   0.438  11.396
35718SOL     OW 8992  13.957   4.755   0.588
35718SOL    HW1 8993  13.909   4.796   0.517
35718SOL    HW2 8994  14.046   4.789   0.580
35719SOL     OW 8995   4.876   8.077   8.072
35719SOL    HW1 8996   4.957   8.046   8.032
35719SOL    HW2 8997   4.860   8.163   8.032
35720SOL     OW 8998   7.043  14.153  11.726
35720SOL    HW1 8999   7.088  14.069  11.724
35720SOL    HW2 9000   7.081  14.200  11.801
35721SOL     OW 9001   0.755   3.150  10.555
35721SOL    HW1 9002   0.820   3.095  10.599
35721SOL    HW2 9003   0.695   3.176  10.626
35722SOL     OW 9004   5.316  10.453   5.990
35722SOL    HW1 9005   5.353  10.479   5.906
35722SOL    HW2 9006   5.271  10.531   6.021
35723SOL     OW 9007   9.996   3.745   6.684
35723SOL    HW1 9008   9.907   3.772   6.662
35723SOL    HW2 9009  10.048   3.825   6.674
35724SOL     OW 9010   7.830   6.791  13.794
35724SOL    HW1 9011   7.883   6.779  13.873
35724SOL    HW2 9012   7.817   6.703  13.760
35725SOL     OW 9013  11.462  14.411   7.781
35725SOL    HW1 9014  11.529  14.368   7.728
35725SOL    HW2 9015  11.512  14.467   7.840
35726SOL     OW 9016  14.230   5.186   1.923
35726SOL    HW1 9017  14.298   5.189   1.856
35726SOL    HW2 9018  14.261   5.121   1.987
35727SOL     OW 9019   8.433   3.366   5.749
35727SOL    HW1 9020   8.427   3.315   5.829
35727SOL    HW2 9021   8.411   3.455   5.775
35728SOL     OW 9022   4.121   8.966   0.234
35728SOL    HW1 9023   4.058   9.022   0.279
35728SOL    HW2 9024   4.152   8.906   0.302
35729SOL     OW 9025   5.456  12.948  10.841
35729SOL    HW1 9026   5.478  13.023  10.786
35729SOL    HW2 9027   5.504  12.875  10.802
35730SOL     OW 9028  14.235   7.772   2.013
35730SOL    HW1 9029  14.273   7.695   2.057
35730SOL    HW2 9030  14.144   7.747   1.996
35731SOL     OW 9031   5.180  14.407  14.187
35731SOL    HW1 9032   5.267  14.445  14.176
35731SOL    HW2 9033   5.156  14.429  14.277
35732SOL     OW 9034   2.067   4.870  11.376
35732SOL    HW1 9035   2.084   4.964  11.373
35732SOL    HW2 9036   1.987   4.861  11.428
35733SOL     OW 9037   0.033   7.256  13.383
35733SOL    HW1 9038   0.062   7.344  13.359
35733SOL    HW2 9039   0.106   7.219  13.431
35734SOL     OW 9040  12.555   8.078   5.489
35734SOL    HW1 9041  12.511   8.058   5.572
35734SOL    HW2 9042  12.648   8.072   5.509
35735SOL     OW 9043   6.438   5.857   4.966
35735SOL    HW1 9044   6.467   5.948   4.976
35735SOL    HW2 9045   6.367   5.862   4.903
35736SOL     OW 9046  13.659   2.732  13.238
35736SOL    HW1 9047  13.690   2.694  13.156
35736SOL    HW2 9048  13.631   2.821  13.216
35737SOL     OW 9049   7.368   5.101  10.244
35737SOL    HW1 9050   7.322   5.025  10.281
35737SOL    HW2 9051   7.361   5.090  10.150
35738SOL     OW 9052   9.852   0.209   5.023
35738SOL    HW1 9053   9.875   0.266   5.096
35738SOL    HW2 9054   9.936   0.192   4.978
35739SOL     OW 9055  10.756  10.111  10.604
35739SOL    HW1 9056  10.746  10.019  10.580
35739SOL    HW2 9057  10.769  10.156  10.520
35740SOL     OW 9058   6.283   4.953   2.404
35740SOL    HW1 9059   6.226   5.031   2.408
35740SOL    HW2 9060   6.282   4.918   2.493
35741SOL     OW 9061   7.735  13.992   1.836
35741SOL    HW1 9062   7.816  14.023   1.878
35741SOL    HW2 9063   7.684  13.955   1.908
35742SOL     OW 9064   6.287   8.073   8.013
35742SOL    HW1 9065   6.340   8.031   7.946
35742SOL    HW2 9066   6.223   8.124   7.964
35743SOL     OW 9067   1.913   6.811   0.168
35743SOL    HW1 9068   1.953   6.743   0.223
35743SOL    HW2 9069   1.916   6.774   0.079
35744SOL     OW 9070   8.690   4.220   9.388
35744SOL    HW1 9071   8.776   4.216   9.345
35744SOL    HW2 9072   8.664   4.312   9.381
35745SOL     OW 9073   7.678  11.563  12.319
35745SOL    HW1 9074   7.728  11.629  12.270
35745SOL    HW2 9075   7.618  11.525  12.255
35746SOL     OW 9076  12.701  12.414   4.575
35746SOL    HW1 9077  12.774  12.457   4.620
35746SOL    HW2 9078  12.625  12.433   4.629
35747SOL     OW 9079   3.506   5.023  11.026
35747SOL    HW1 9080   3.559   5.093  11.064
35747SOL    HW2 9081   3.492   5.050  10.935
35748SOL     OW 9082  13.754   1.705  12.950
35748SOL    HW1 9083  13.818   1.734  12.885
35748SOL    HW2 9084  13.678   1.678  12.898
35749SOL     OW 9085  13.221   1.139   4.009
35749SOL    HW1 9086  13.248   1.224   3.976
35749SOL    HW2 9087  13.211   1.152   4.104
35750SOL     OW 9088  14.796   8.505   6.918
35750SOL    HW1 9089  14.738   8.458   6.978
35750SOL    HW2 9090  14.751   8.588   6.902
35751SOL     OW 9091   7.086   9.147  13.430
35751SOL    HW1 9092   7.047   9.192  13.504
35751SOL    HW2 9093   7.123   9.067  13.467
35752SOL     OW 9094   9.308  14.818   1.374
35752SOL    HW1 9095   9.281  14.728   1.391
35752SOL    HW2 9096   9.399  14.822   1.402
35753SOL     OW 9097   9.891   0.220   2.711
35753SOL    HW1 9098   9.901   0.136   2.755
35753SOL    HW2 9099   9.803   0.218   2.674
35754SOL     OW 9100   5.970  13.730  14.779
35754SOL    HW1 9101   5.917  13.726  14.700
35754SOL    HW2 9102   5.906  13.741  14.850
35755SOL     OW 9103  10.095   8.139  10.505
35755SOL    HW1 9104  10.129   8.203  10.443
35755SOL    HW2 9105  10.104   8.055  10.461
35756SOL     OW 9106  10.735   6.042   9.437
35756SOL    HW1 9107  10.816   6.091   9.450
35756SOL    HW2 9108  10.671   6.107   9.408
35757SOL     OW 9109   1.688   5.881   8.283
35757SOL    HW1 9110   1.748   5.850   8.215
35757SOL    HW2 9111   1.736   5.869   8.365
35758SOL     OW 9112   1.800   8.973  10.504
35758SOL    HW1 9113   1.820   9.041  10.440
35758SOL    HW2 9114   1.821   9.013  10.589
35759SOL     OW 9115  13.944  12.524   5.448
35759SOL    HW1 9116  13.947  12.433   5.478
35759SOL    HW2 9117  13.947  12.517   5.353
35760SOL     OW 9118   1.505   7.132   9.815
35760SOL    HW1 9119   1.533   7.190   9.745
35760SOL    HW2 9120   1.410   7.132   9.810
35761SOL     OW 9121   3.444   2.763   5.756
35761SOL    HW1 9122   3.373   2.825   5.764
35761SOL    HW2 9123   3.456   2.751   5.662
35762SOL     OW 9124  14.816   7.928   3.376
35762SOL    HW1 9125  14.740   7.967   3.421
35762SOL    HW2 9126  14.841   7.855   3.433
35763SOL     OW 9127  12.184   3.001   6.737
35763SOL    HW1 9128  12.133   3.073   6.773
35763SOL    HW2 9129  12.220   2.956   6.813
35764SOL     OW 9130   8.373   5.866  14.075
35764SOL    HW1 9131   8.433   5.791  14.068
35764SOL    HW2 9132   8.411   5.921  14.143
35765SOL     OW 9133   1.531   3.662  11.865
35765SOL    HW1 9134   1.582   3.692  11.790
35765SOL    HW2 9135   1.456   3.615  11.826
35766SOL     OW 9136  14.690  10.649   7.411
35766SOL    HW1 9137  14.606  10.687   7.389
35766SOL    HW2 9138  14.688  10.640   7.507
35767SOL     OW 9139  10.596   4.116   6.541
35767SOL    HW1 9140  10.567   4.158   6.460
35767SOL    HW2 9141  10.594   4.022   6.522
35768SOL     OW 9142   1.347   4.024   3.920
35768SOL    HW1 9143   1.413   3.982   3.863
35768SOL    HW2 9144   1.392   4.035   4.004
35769SOL     OW 9145   6.620   0.970   7.439
35769SOL    HW1 9146   6.606   1.043   7.499
35769SOL    HW2 9147   6.578   0.895   7.482
35770SOL     OW 9148  11.513   2.176  11.917
35770SOL    HW1 9149  11.455   2.101  11.904
35770SOL    HW2 9150  11.538   2.171  12.010
35771SOL     OW 9151  13.589  10.241  11.830
35771SOL    HW1 9152  13.681  10.237  11.804
35771SOL    HW2 9153  13.580  10.171  11.895
35772SOL     OW 9154  14.175   2.977  11.118
35772SOL    HW1 9155  14.226   2.953  11.041
35772SOL    HW2 9156  14.092   3.009  11.082
35773SOL     OW 9157  13.206   7.637   1.138
35773SOL    HW1 9158  13.236   7.646   1.228
35773SOL    HW2 9159  13.266   7.692   1.087
35774SOL     OW 9160   1.915   1.836  11.957
35774SOL    HW1 9161   1.922   1.779  12.034
35774SOL    HW2 9162   1.973   1.910  11.977
35775SOL     OW 9163   6.733   1.947   4.261
35775SOL    HW1 9164   6.780   1.879   4.212
35775SOL    HW2 9165   6.786   1.960   4.340
35776SOL     OW 9166   6.400  13.956   9.520
35776SOL    HW1 9167   6.341  13.883   9.503
35776SOL    HW2 9168   6.350  14.014   9.578
35777SOL     OW 9169   6.896   8.281   6.035
35777SOL    HW1 9170   6.928   8.369   6.018
35777SOL    HW2 9171   6.911   8.268   6.129
35778SOL     OW 9172  12.794   4.696   3.810
35778SOL    HW1 9173  12.852   4.644   3.754
35778SOL    HW2 9174  12.786   4.646   3.891
35779SOL     OW 9175   5.294   0.677  14.800
35779SOL    HW1 9176   5.257   0.590  14.785
35779SOL    HW2 9177   5.367   0.663  14.859
35780SOL     OW 9178   7.221  11.443   5.373
35780SOL    HW1 9179   7.287  11.513   5.377
35780SOL    HW2 9180   7.273  11.363   5.365
35781SOL     OW 9181   0.874   1.922   0.639
35781SOL    HW1 9182   0.881   2.012   0.672
35781SOL    HW2 9183   0.962   1.902   0.606
35782SOL     OW 9184   6.223  12.095   4.668
35782SOL    HW1 9185   6.189  12.006   4.675
35782SOL    HW2 9186   6.202  12.135   4.753
35783SOL     OW 9187  13.665   0.684   8.503
35783SOL    HW1 9188  13.740   0.635   8.468
35783SOL    HW2 9189  13.605   0.693   8.428
35784SOL     OW 9190   3.630  11.295   6.711
35784SOL    HW1 9191   3.665  11.224   6.765
35784SOL    HW2 9192   3.640  11.264   6.621
35785SOL     OW 9193  13.852  10.981  14.509
35785SOL    HW1 9194  13.887  10.928  14.580
35785SOL    HW2 9195  13.901  10.953  14.432
35786SOL     OW 9196   5.852   9.727  12.161
35786SOL    HW1 9197   5.945   9.734  12.185
35786SOL    HW2 9198   5.852   9.676  12.081
35787SOL     OW 9199   2.034  12.823  12.739
35787SOL    HW1 9200   1.945  12.792  12.726
35787SOL    HW2 9201   2.089  12.745  12.724
35788SOL     OW 9202   8.523  12.899   1.340
35788SOL    HW1 9203   8.614  12.882   1.316
35788SOL    HW2 9204   8.518  12.876   1.433
35789SOL     OW 9205   0.695  13.301   2.603
35789SOL    HW1 9206   0.763  13.254   2.554
35789SOL    HW2 9207   0.710  13.393   2.584
35790SOL     OW 9208   8.594   2.252   3.852
35790SOL    HW1 9209   8.683   2.269   3.820
35790SOL    HW2 9210   8.537   2.272   3.778
35791SOL     OW 9211  12.757  11.738   4.233
35791SOL    HW1 9212  12.719  11.710   4.150
35791SOL    HW2 9213  12.682  11.751   4.291
35792SOL     OW 9214   7.215   7.808   7.550
35792SOL    HW1 9215   7.275   7.737   7.525
35792SOL    HW2 9216   7.177   7.838   7.467
35793SOL     OW 9217  10.125  13.431   5.561
35793SOL    HW1 9218  10.040  13.445   5.520
35793SOL    HW2 9219  10.135  13.504   5.621
35794SOL     OW 9220   2.755   3.130   1.818
35794SOL    HW1 9221   2.692   3.163   1.754
35794SOL    HW2 9222   2.715   3.050   1.853
35795SOL     OW 9223   6.639   3.537  14.108
35795SOL    HW1 9224   6.620   3.625  14.139
35795SOL    HW2 9225   6.644   3.546  14.012
35796SOL     OW 9226   1.750  12.923   6.672
35796SOL    HW1 9227   1.732  12.954   6.761
35796SOL    HW2 9228   1.789  12.837   6.684
35797SOL     OW 9229   0.042   4.644   3.505
35797SOL    HW1 9230   0.042   4.606   3.417
35797SOL    HW2 9231   0.014   4.572   3.562
35798SOL     OW 9232  13.356   6.432   4.268
35798SOL    HW1 9233  13.368   6.427   4.173
35798SOL    HW2 9234  13.359   6.341   4.298
35799SOL     OW 9235  14.778   6.950  13.843
35799SOL    HW1 9236  14.766   6.924  13.752
35799SOL    HW2 9237  14.695   6.990  13.868
35800SOL     OW 9238   4.723   5.309   7.856
35800SOL    HW1 9239   4.658   5.338   7.793
35800SOL    HW2 9240   4.682   5.235   7.902
35801SOL     OW 9241   9.144  14.030   3.542
35801SOL    HW1 9242   9.059  14.048   3.500
35801SOL    HW2 9243   9.205  14.088   3.497
35802SOL     OW 9244   8.886  12.068   6.962
35802SOL    HW1 9245   8.807  12.052   6.910
35802SOL    HW2 9246   8.865  12.146   7.014
35803SOL     OW 9247  13.807   2.478   9.215
35803SOL    HW1 9248  13.755   2.547   9.175
35803SOL    HW2 9249  13.773   2.397   9.176
35804SOL     OW 9250   3.675   2.983  14.396
35804SOL    HW1 9251   3.680   2.887  14.400
35804SOL    HW2 9252   3.714   3.012  14.478
35805SOL     OW 9253  13.300   5.053   6.131
35805SOL    HW1 9254  13.334   5.103   6.056
35805SOL    HW2 9255  13.223   5.008   6.096
35806SOL     OW 9256   3.980   8.526   0.794
35806SOL    HW1 9257   3.946   8.461   0.856
35806SOL    HW2 9258   4.068   8.494   0.772
35807SOL     OW 9259  10.680  11.936  13.032
35807SOL    HW1 9260  10.604  11.970  12.984
35807SOL    HW2 9261  10.744  12.007  13.027
35808SOL     OW 9262  12.828   1.649  12.830
35808SOL    HW1 9263  12.878   1.626  12.908
35808SOL    HW2 9264  12.891   1.694  12.774
35809SOL     OW 9265  14.185   8.231   5.086
35809SOL    HW1 9266  14.127   8.268   5.153
35809SOL    HW2 9267  14.166   8.282   5.007
35810SOL     OW 9268   7.518   8.763  11.613
35810SOL    HW1 9269   7.440   8.773  11.666
35810SOL    HW2 9270   7.584   8.818  11.656
35811SOL     OW 9271   8.776   6.568  13.324
35811SOL    HW1 9272   8.725   6.516  13.386
35811SOL    HW2 9273   8.861   6.579  13.366
35812SOL     OW 9274   9.301   9.089   2.558
35812SOL    HW1 9275   9.217   9.134   2.547
35812SOL    HW2 9276   9.318   9.094   2.652
35813SOL     OW 9277   4.415   5.667   1.819
35813SOL    HW1 9278   4.508   5.646   1.825
35813SOL    HW2 9279   4.409   5.760   1.841
35814SOL     OW 9280  13.789   3.014   2.424
35814SOL    HW1 9281  13.808   3.042   2.514
35814SOL    HW2 9282  13.870   2.973   2.394
35815SOL     OW 9283   2.368   8.699  14.423
35815SOL    HW1 9284   2.380   8.608  14.452
35815SOL    HW2 9285   2.433   8.749  14.473
35816SOL     OW 9286  14.635   5.325   8.471
35816SOL    HW1 9287  14.560   5.384   8.479
35816SOL    HW2 9288  14.648   5.314   8.377
35817SOL     OW 9289   0.701  14.147   2.824
35817SOL    HW1 9290   0.727  14.054   2.822
35817SOL    HW2 9291   0.628  14.153   2.763
35818SOL     OW 9292  13.713   2.778   8.534
35818SOL    HW1 9293  13.684   2.835   8.462
35818SOL    HW2 9294  13.806   2.763   8.515
35819SOL     OW 9295  11.619  12.868  14.586
35819SOL    HW1 9296  11.552  12.867  14.518
35819SOL    HW2 9297  11.572  12.844  14.666
35820SOL     OW 9298  14.433  11.359   9.988
35820SOL    HW1 9299  14.500  11.368  10.055
35820SOL    HW2 9300  14.351  11.378  10.033
35821SOL     OW 9301   7.558  13.245   1.914
35821SOL    HW1 9302   7.564  13.198   1.831
35821SOL    HW2 9303   7.552  13.177   1.980
35822SOL     OW 9304   5.966   7.028   4.409
35822SOL    HW1 9305   5.904   6.982   4.353
35822SOL    HW2 9306   5.951   6.992   4.497
35823SOL     OW 9307   8.168   5.099  11.731
35823SOL    HW1 9308   8.207   5.111  11.817
35823SOL    HW2 9309   8.129   5.011  11.735
35824SOL     OW 9310   0.176   4.488   8.578
35824SOL    HW1 9311   0.095   4.533   8.557
35824SOL    HW2 9312   0.151   4.421   8.642
35825SOL     OW 9313   9.859   4.414  10.713
35825SOL    HW1 9314   9.899   4.465  10.642
35825SOL    HW2 9315   9.919   4.423  10.786
35826SOL     OW 9316  13.834  13.632   1.613
35826SOL    HW1 9317  13.863  13.583   1.690
35826SOL    HW2 9318  13.880  13.715   1.619
35827SOL     OW 9319  12.807   1.101   2.018
35827SOL    HW1 9320  12.841   1.101   2.107
35827SOL    HW2 9321  12.729   1.157   2.023
35828SOL     OW 9322  10.495  12.848  12.177
35828SOL    HW1 9323  10.538  12.763  12.173
35828SOL    HW2 9324  10.412  12.836  12.130
35829SOL     OW 9325  12.763   5.971  14.769
35829SOL    HW1 9326  12.841   5.980  14.714
35829SOL    HW2 9327  12.789   5.910  14.838
35830SOL     OW 9328   3.414   5.385   3.157
35830SOL    HW1 9329   3.472   5.457   3.181
35830SOL    HW2 9330   3.412   5.328   3.234
35831SOL     OW 9331  10.047   1.754  13.002
35831SOL    HW1 9332  10.073   1.711  13.084
35831SOL    HW2 9333  10.127   1.796  12.971
35832SOL     OW 9334  14.102   1.878   3.437
35832SOL    HW1 9335  14.071   1.798   3.395
35832SOL    HW2 9336  14.068   1.949   3.382
35833SOL     OW 9337  13.675   7.896   8.283
35833SOL    HW1 9338  13.709   7.967   8.229
35833SOL    HW2 9339  13.692   7.817   8.231
35834SOL     OW 9340   5.862  14.397   2.016
35834SOL    HW1 9341   5.767  14.387   2.020
35834SOL    HW2 9342   5.884  14.390   1.923
35835SOL     OW 9343   3.048   4.484  12.584
35835SOL    HW1 9344   2.989   4.467  12.658
35835SOL    HW2 9345   3.060   4.579  12.584
35836SOL     OW 9346   3.989   6.873   0.164
35836SOL    HW1 9347   3.941   6.945   0.123
35836SOL    HW2 9348   4.061   6.916   0.210
35837SOL     OW 9349   8.280   4.646   8.882
35837SOL    HW1 9350   8.210   4.633   8.818
35837SOL    HW2 9351   8.300   4.739   8.877
35838SOL     OW 9352  12.918   7.678   5.816
35838SOL    HW1 9353  12.954   7.707   5.732
35838SOL    HW2 9354  12.960   7.734   5.881
35839SOL     OW 9355  11.036   0.276   5.720
35839SOL    HW1 9356  11.015   0.225   5.799
35839SOL    HW2 9357  11.040   0.211   5.650
35840SOL     OW 9358  11.939   8.708  11.988
35840SOL    HW1 9359  11.993   8.670  11.919
35840SOL    HW2 9360  11.858   8.734  11.944
35841SOL     OW 9361   1.988   6.341   9.839
35841SOL    HW1 9362   1.909   6.362   9.888
35841SOL    HW2 9363   1.987   6.245   9.832
35842SOL     OW 9364   6.365   8.887  11.414
35842SOL    HW1 9365   6.394   8.886  11.505
35842SOL    HW2 9366   6.442   8.914  11.365
35843SOL     OW 9367  12.544   2.781   2.958
35843SOL    HW1 9368  12.534   2.692   2.994
35843SOL    HW2 9369  12.479   2.833   3.005
35844SOL     OW 9370   3.643   4.817  10.897
35844SOL    HW1 9371   3.589   4.826  10.976
35844SOL    HW2 9372   3.619   4.892  10.843
35845SOL     OW 9373   0.884   9.217   1.268
35845SOL    HW1 9374   0.895   9.128   1.234
35845SOL    HW2 9375   0.834   9.263   1.200
35846SOL     OW 9376  13.965  13.542   3.052
35846SOL    HW1 9377  13.998  13.621   3.009
35846SOL    HW2 9378  14.034  13.477   3.038
35847SOL     OW 9379  10.428  12.189   6.985
35847SOL    HW1 9380  10.342  12.207   7.024
35847SOL    HW2 9381  10.461  12.114   7.034
35848SOL     OW 9382  13.010   4.941  13.953
35848SOL    HW1 9383  12.991   4.858  13.997
35848SOL    HW2 9384  12.961   5.006  14.004
35849SOL     OW 9385   6.894   7.202  13.484
35849SOL    HW1 9386   6.847   7.142  13.427
35849SOL    HW2 9387   6.942   7.145  13.545
35850SOL     OW 9388  12.731   1.886  13.013
35850SOL    HW1 9389  12.655   1.908  12.960
35850SOL    HW2 9390  12.701   1.815  13.071
35851SOL     OW 9391   6.215   4.547   1.901
35851SOL    HW1 9392   6.121   4.555   1.881
35851SOL    HW2 9393   6.255   4.519   1.819
35852SOL     OW 9394   3.493   3.308   2.333
35852SOL    HW1 9395   3.497   3.404   2.325
35852SOL    HW2 9396   3.559   3.276   2.272
35853SOL     OW 9397  13.334   6.687  13.598
35853SOL    HW1 9398  13.337   6.778  13.629
35853SOL    HW2 9399  13.365   6.635  13.672
35854SOL     OW 9400  14.059   2.960  13.537
35854SOL    HW1 9401  14.037   2.918  13.620
35854SOL    HW2 9402  13.987   3.020  13.521
35855SOL     OW 9403   4.133  14.599   7.644
35855SOL    HW1 9404   4.122  14.560   7.558
35855SOL    HW2 9405   4.220  14.638   7.641
35856SOL     OW 9406  12.157   8.475   3.853
35856SOL    HW1 9407  12.132   8.565   3.874
35856SOL    HW2 9408  12.188   8.439   3.936
35857SOL     OW 9409   4.286   0.918  11.092
35857SOL    HW1 9410   4.355   0.972  11.053
35857SOL    HW2 9411   4.294   0.833  11.047
35858SOL     OW 9412   2.037   9.795  12.503
35858SOL    HW1 9413   1.973   9.734  12.465
35858SOL    HW2 9414   2.117   9.743  12.511
35859SOL     OW 9415   4.923   9.205  11.917
35859SOL    HW1 9416   5.016   9.180  11.913
35859SOL    HW2 9417   4.878   9.138  11.866
35860SOL     OW 9418   5.435   9.266  11.813
35860SOL    HW1 9419   5.375   9.276  11.739
35860SOL    HW2 9420   5.443   9.172  11.825
35861SOL     OW 9421  10.799   9.995   8.091
35861SOL    HW1 9422  10.784  10.014   8.184
35861SOL    HW2 9423  10.754  10.065   8.045
35862SOL     OW 9424  14.505  14.032   3.173
35862SOL    HW1 9425  14.477  14.045   3.264
35862SOL    HW2 9426  14.432  13.985   3.133
35863SOL     OW 9427   0.908   6.970   6.226
35863SOL    HW1 9428   0.981   6.914   6.201
35863SOL    HW2 9429   0.932   7.002   6.313
35864SOL     OW 9430  11.923   4.922   3.467
35864SOL    HW1 9431  11.985   4.911   3.539
35864SOL    HW2 9432  11.879   5.004   3.486
35865SOL     OW 9433   8.300  13.888   1.608
35865SOL    HW1 9434   8.273  13.828   1.538
35865SOL    HW2 9435   8.392  13.907   1.590
35866SOL     OW 9436   0.294  10.798   2.589
35866SOL    HW1 9437   0.274  10.869   2.650
35866SOL    HW2 9438   0.350  10.738   2.639
35867SOL     OW 9439   4.045   5.796  12.357
35867SOL    HW1 9440   4.087   5.841  12.283
35867SOL    HW2 9441   4.007   5.867  12.409
35868SOL     OW 9442   9.978   9.709   5.192
35868SOL    HW1 9443  10.039   9.647   5.152
35868SOL    HW2 9444   9.923   9.739   5.119
35869SOL     OW 9445   8.464  11.062   8.198
35869SOL    HW1 9446   8.385  11.078   8.147
35869SOL    HW2 9447   8.483  10.970   8.185
35870SOL     OW 9448  12.703   3.542   1.581
35870SOL    HW1 9449  12.705   3.486   1.503
35870SOL    HW2 9450  12.641   3.500   1.640
35871SOL     OW 9451   6.656  12.658   6.151
35871SOL    HW1 9452   6.611  12.600   6.090
35871SOL    HW2 9453   6.651  12.613   6.236
35872SOL     OW 9454  11.003   5.591   8.469
35872SOL    HW1 9455  10.975   5.548   8.388
35872SOL    HW2 9456  10.995   5.685   8.450
35873SOL     OW 9457   5.078   9.217   4.925
35873SOL    HW1 9458   5.143   9.280   4.956
35873SOL    HW2 9459   5.123   9.167   4.858
35874SOL     OW 9460   0.854   9.990   2.446
35874SOL    HW1 9461   0.800   9.930   2.498
35874SOL    HW2 9462   0.928   9.936   2.417
35875SOL     OW 9463   2.629   4.600  13.692
35875SOL    HW1 9464   2.596   4.668  13.750
35875SOL    HW2 9465   2.552   4.569  13.644
35876SOL     OW 9466   2.831  10.383  12.908
35876SOL    HW1 9467   2.757  10.432  12.871
35876SOL    HW2 9468   2.861  10.327  12.837
35877SOL     OW 9469   3.090   3.985  10.251
35877SOL    HW1 9470   3.036   4.006  10.327
35877SOL    HW2 9471   3.180   4.002  10.280
35878SOL     OW 9472  14.861   8.333   5.620
35878SOL    HW1 9473  14.874   8.285   5.702
35878SOL    HW2 9474   0.064   8.321   5.572
35879SOL     OW 9475   6.099   1.672   1.371
35879SOL    HW1 9476   6.014   1.630   1.366
35879SOL    HW2 9477   6.081   1.765   1.362
35880SOL     OW 9478   3.775   7.669   1.307
35880SOL    HW1 9479   3.753   7.756   1.275
35880SOL    HW2 9480   3.870   7.671   1.318
35881SOL     OW 9481   6.014   2.747  14.782
35881SOL    HW1 9482   5.982   2.689  14.851
35881SOL    HW2 9483   5.935   2.779  14.738
35882SOL     OW 9484   4.111   6.657   3.396
35882SOL    HW1 9485   4.075   6.618   3.316
35882SOL    HW2 9486   4.203   6.673   3.375
35883SOL     OW 9487  13.521   3.488   0.109
35883SOL    HW1 9488  13.466   3.421   0.149
35883SOL    HW2 9489  13.592   3.502   0.173
35884SOL     OW 9490   6.648   1.783  12.785
35884SOL    HW1 9491   6.586   1.833  12.733
35884SOL    HW2 9492   6.660   1.701  12.736
35885SOL     OW 9493  12.276  13.593  10.261
35885SOL    HW1 9494  12.295  13.501  10.279
35885SOL    HW2 9495  12.255  13.631  10.346
35886SOL     OW 9496   1.782  10.577   6.456
35886SOL    HW1 9497   1.747  10.567   6.545
35886SOL    HW2 9498   1.714  10.540   6.399
35887SOL     OW 9499  12.028   5.105   0.388
35887SOL    HW1 9500  12.015   5.166   0.461
35887SOL    HW2 9501  11.944   5.106   0.341
35888SOL     OW 9502   1.327   8.861   1.592
35888SOL    HW1 9503   1.385   8.936   1.599
35888SOL    HW2 9504   1.266   8.870   1.666
35889SOL     OW 9505   2.450   6.844  13.424
35889SOL    HW1 9506   2.392   6.810  13.492
35889SOL    HW2 9507   2.452   6.939  13.439
35890SOL     OW 9508   5.305   0.922  12.154
35890SOL    HW1 9509   5.277   0.834  12.129
35890SOL    HW2 9510   5.290   0.975  12.075
35891SOL     OW 9511   8.867   1.857   7.272
35891SOL    HW1 9512   8.931   1.885   7.207
35891SOL    HW2 9513   8.861   1.762   7.261
35892SOL     OW 9514  10.354   0.843   9.454
35892SOL    HW1 9515  10.327   0.918   9.508
35892SOL    HW2 9516  10.426   0.878   9.401
35893SOL     OW 9517   6.664   5.250   0.493
35893SOL    HW1 9518   6.702   5.314   0.553
35893SOL    HW2 9519   6.706   5.167   0.516
35894SOL     OW 9520  10.182   6.896   2.127
35894SOL    HW1 9521  10.115   6.962   2.108
35894SOL    HW2 9522  10.182   6.840   2.049
35895SOL     OW 9523   4.751   2.804   0.963
35895SOL    HW1 9524   4.682   2.799   1.030
35895SOL    HW2 9525   4.822   2.751   0.999
35896SOL     OW 9526   4.992   8.659   2.455
35896SOL    HW1 9527   5.027   8.697   2.374
35896SOL    HW2 9528   4.897   8.659   2.441
35897SOL     OW 9529   6.722   3.049  10.481
35897SOL    HW1 9530   6.674   2.998  10.415
35897SOL    HW2 9531   6.693   3.013  10.565
35898SOL     OW 9532   5.629  12.600  11.333
35898SOL    HW1 9533   5.623  12.628  11.242
35898SOL    HW2 9534   5.555  12.541  11.346
35899SOL     OW 9535  14.842   0.356   8.842
35899SOL    HW1 9536   0.034   0.306   8.880
35899SOL    HW2 9537  14.775   0.291   8.820
35900SOL     OW 9538   0.770   6.189   1.046
35900SOL    HW1 9539   0.831   6.158   1.112
35900SOL    HW2 9540   0.734   6.109   1.007
35901SOL     OW 9541   1.162   6.621  11.706
35901SOL    HW1 9542   1.198   6.548  11.755
35901SOL    HW2 9543   1.149   6.587  11.617
35902SOL     OW 9544   0.981   1.610   7.679
35902SOL    HW1 9545   0.957   1.526   7.639
35902SOL    HW2 9546   0.922   1.673   7.638
35903SOL     OW 9547   8.956   2.469   3.158
35903SOL    HW1 9548   8.934   2.465   3.251
35903SOL    HW2 9549   8.879   2.434   3.114
35904SOL     OW 9550  13.017  12.341   9.661
35904SOL    HW1 9551  13.087  12.359   9.724
35904SOL    HW2 9552  12.990  12.251   9.680
35905SOL     OW 9553   7.507   4.223   7.444
35905SOL    HW1 9554   7.479   4.193   7.531
35905SOL    HW2 9555   7.440   4.190   7.384
35906SOL     OW 9556   3.965   0.970   8.705
35906SOL    HW1 9557   3.966   0.896   8.644
35906SOL    HW2 9558   3.957   1.047   8.649
35907SOL     OW 9559   9.241   9.737   1.177
35907SOL    HW1 9560   9.275   9.667   1.233
35907SOL    HW2 9561   9.275   9.818   1.217
35908SOL     OW 9562   3.296   3.583  13.479
35908SOL    HW1 9563   3.212   3.541  13.461
35908SOL    HW2 9564   3.276   3.650  13.545
35909SOL     OW 9565   2.926   0.958   0.972
35909SOL    HW1 9566   3.012   0.925   0.997
35909SOL    HW2 9567   2.894   0.895   0.907
35910SOL     OW 9568   4.409  10.779   1.426
35910SOL    HW1 9569   4.355  10.841   1.475
35910SOL    HW2 9570   4.399  10.696   1.472
35911SOL     OW 9571  13.438   5.004   8.913
35911SOL    HW1 9572  13.383   4.941   8.866
35911SOL    HW2 9573  13.379   5.046   8.975
35912SOL     OW 9574  10.683  10.037   9.451
35912SOL    HW1 9575  10.669  10.023   9.545
35912SOL    HW2 9576  10.600  10.012   9.410
35913SOL     OW 9577   9.151  10.917  13.752
35913SOL    HW1 9578   9.167  10.858  13.679
35913SOL    HW2 9579   9.198  10.997  13.729
35914SOL     OW 9580   9.082   1.795  14.797
35914SOL    HW1 9581   8.988   1.781  14.807
35914SOL    HW2 9582   9.122   1.745  14.868
35915SOL     OW 9583   8.719  14.229   3.056
35915SOL    HW1 9584   8.737  14.320   3.032
35915SOL    HW2 9585   8.645  14.204   3.001
35916SOL     OW 9586  13.661   0.138  10.148
35916SOL    HW1 9587  13.581   0.131  10.096
35916SOL    HW2 9588  13.730   0.103  10.092
35917SOL     OW 9589   2.585   8.270   9.448
35917SOL    HW1 9590   2.657   8.275   9.511
35917SOL    HW2 9591   2.517   8.219   9.492
35918SOL     OW 9592   3.554  14.299   6.827
35918SOL    HW1 9593   3.493  14.288   6.900
35918SOL    HW2 9594   3.588  14.210   6.810
35919SOL     OW 9595   6.949   1.754   4.356
35919SOL    HW1 9596   6.878   1.739   4.418
35919SOL    HW2 9597   6.982   1.667   4.336
35920SOL     OW 9598   0.956   0.716   8.556
35920SOL    HW1 9599   1.026   0.655   8.578
35920SOL    HW2 9600   0.975   0.743   8.466
35921SOL     OW 9601   2.678   8.285   9.811
35921SOL    HW1 9602   2.722   8.327   9.885
35921SOL    HW2 9603   2.737   8.298   9.737
35922SOL     OW 9604  13.408   9.260   7.885
35922SOL    HW1 9605  13.437   9.240   7.796
35922SOL    HW2 9606  13.423   9.180   7.935
35923SOL     OW 9607   6.584   1.425   6.297
35923SOL    HW1 9608   6.654   1.394   6.355
35923SOL    HW2 9609   6.603   1.384   6.213
35924SOL     OW 9610   1.197  14.437   7.062
35924SOL    HW1 9611   1.118  14.425   7.114
35924SOL    HW2 9612   1.248  14.503   7.111
35925SOL     OW 9613   7.893  10.243   8.654
35925SOL    HW1 9614   7.839  10.179   8.702
35925SOL    HW2 9615   7.830  10.299   8.610
35926SOL     OW 9616   6.631   5.166   5.858
35926SOL    HW1 9617   6.546   5.160   5.814
35926SOL    HW2 9618   6.619   5.233   5.925
35927SOL     OW 9619   2.586  13.445   1.359
35927SOL    HW1 9620   2.520  13.435   1.290
35927SOL    HW2 9621   2.606  13.355   1.386
35928SOL     OW 9622   0.549   9.650   1.254
35928SOL    HW1 9623   0.533   9.678   1.344
35928SOL    HW2 9624   0.536   9.555   1.255
35929SOL     OW 9625   7.892   9.314   2.074
35929SOL    HW1 9626   7.865   9.276   1.990
35929SOL    HW2 9627   7.813   9.352   2.110
35930SOL     OW 9628  10.731   7.984  14.327
35930SOL    HW1 9629  10.787   8.062  14.325
35930SOL    HW2 9630  10.713   7.965  14.235
35931SOL     OW 9631   8.529   7.899   5.593
35931SOL    HW1 9632   8.494   7.960   5.528
35931SOL    HW2 9633   8.577   7.834   5.541
35932SOL     OW 9634   2.177   5.402   8.280
35932SOL    HW1 9635   2.195   5.486   8.323
35932SOL    HW2 9636   2.135   5.426   8.198
35933SOL     OW 9637   7.015   8.396  14.304
35933SOL    HW1 9638   6.959   8.458  14.350
35933SOL    HW2 9639   6.967   8.314  14.306
35934SOL     OW 9640   8.684   3.468  11.986
35934SOL    HW1 9641   8.589   3.472  11.971
35934SOL    HW2 9642   8.694   3.484  12.079
35935SOL     OW 9643   6.781   4.441   0.068
35935SOL    HW1 9644   6.797   4.468  14.857
35935SOL    HW2 9645   6.717   4.503   0.101
35936SOL     OW 9646   9.291   0.153   9.945
35936SOL    HW1 9647   9.245   0.227   9.985
35936SOL    HW2 9648   9.256   0.148   9.856
35937SOL     OW 9649  14.057   0.967   6.939
35937SOL    HW1 9650  13.983   1.002   6.889
35937SOL    HW2 9651  14.054   0.873   6.923
35938SOL     OW 9652   7.197   2.485   3.599
35938SOL    HW1 9653   7.153   2.512   3.680
35938SOL    HW2 9654   7.250   2.560   3.574
35939SOL     OW 9655   3.670   6.187   1.968
35939SOL    HW1 9656   3.758   6.155   1.985
35939SOL    HW2 9657   3.672   6.279   1.994
35940SOL     OW 9658  11.070   0.201   2.771
35940SOL    HW1 9659  11.162   0.178   2.754
35940SOL    HW2 9660  11.074   0.287   2.812
35941SOL     OW 9661   8.794   9.030   8.554
35941SOL    HW1 9662   8.702   9.016   8.531
35941SOL    HW2 9663   8.842   8.981   8.487
35942SOL     OW 9664  14.083   9.580  10.719
35942SOL    HW1 9665  14.056   9.489  10.715
35942SOL    HW2 9666  14.019   9.621  10.777
35943SOL     OW 9667   0.213  14.565   4.130
35943SOL    HW1 9668   0.227  14.634   4.065
35943SOL    HW2 9669   0.121  14.539   4.117
35944SOL     OW 9670   5.920  14.067   3.754
35944SOL    HW1 9671   6.006  14.061   3.794
35944SOL    HW2 9672   5.916  14.155   3.717
35945SOL     OW 9673   9.366  11.121   8.640
35945SOL    HW1 9674   9.401  11.179   8.708
35945SOL    HW2 9675   9.272  11.141   8.638
35946SOL     OW 9676   8.491  14.839  13.928
35946SOL    HW1 9677   8.552  14.802  13.992
35946SOL    HW2 9678   8.452   0.035  13.973
35947SOL     OW 9679   2.572  10.693   1.326
35947SOL    HW1 9680   2.620  10.610   1.318
35947SOL    HW2 9681   2.634  10.759   1.295
35948SOL     OW 9682   7.597  10.227   7.027
35948SOL    HW1 9683   7.546  10.156   6.988
35948SOL    HW2 9684   7.567  10.306   6.982
35949SOL     OW 9685   5.735   8.315   4.986
35949SOL    HW1 9686   5.640   8.306   4.974
35949SOL    HW2 9687   5.743   8.379   5.058
35950SOL     OW 9688  13.658   2.617  12.729
35950SOL    HW1 9689  13.601   2.553  12.772
35950SOL    HW2 9690  13.622   2.626  12.640
35951SOL     OW 9691   6.956  12.564  13.610
35951SOL    HW1 9692   6.886  12.623  13.636
35951SOL    HW2 9693   6.911  12.484  13.581
35952SOL     OW 9694   0.797   5.244   7.387
35952SOL    HW1 9695   0.774   5.337   7.389
35952SOL    HW2 9696   0.777   5.213   7.475
35953SOL     OW 9697   8.981   4.012   1.437
35953SOL    HW1 9698   8.914   3.944   1.429
35953SOL    HW2 9699   9.060   3.966   1.463
35954SOL     OW 9700  12.789   5.636  13.785
35954SOL    HW1 9701  12.823   5.651  13.697
35954SOL    HW2 9702  12.843   5.690  13.842
35955SOL     OW 9703   6.061   6.376  13.973
35955SOL    HW1 9704   6.144   6.342  14.006
35955SOL    HW2 9705   5.995   6.319  14.013
35956SOL     OW 9706  13.643   8.190   6.238
35956SOL    HW1 9707  13.680   8.102   6.234
35956SOL    HW2 9708  13.691   8.240   6.172
35957SOL     OW 9709   8.912   7.080   9.112
35957SOL    HW1 9710   8.848   7.012   9.131
35957SOL    HW2 9711   8.895   7.104   9.021
35958SOL     OW 9712   9.385  12.293   4.312
35958SOL    HW1 9713   9.467  12.328   4.277
35958SOL    HW2 9714   9.330  12.371   4.325
35959SOL     OW 9715  12.144   0.362  11.552
35959SOL    HW1 9716  12.171   0.368  11.643
35959SOL    HW2 9717  12.091   0.441  11.538
35960SOL     OW 9718   7.559   0.695  12.851
35960SOL    HW1 9719   7.645   0.680  12.813
35960SOL    HW2 9720   7.498   0.659  12.786
35961SOL     OW 9721  14.572  14.768   4.622
35961SOL    HW1 9722  14.636  14.824   4.580
35961SOL    HW2 9723  14.498  14.826   4.640
35962SOL     OW 9724   1.082   7.947  14.458
35962SOL    HW1 9725   0.987   7.955  14.447
35962SOL    HW2 9726   1.096   7.857  14.488
35963SOL     OW 9727   4.352   4.856  13.311
35963SOL    HW1 9728   4.273   4.802  13.303
35963SOL    HW2 9729   4.388   4.859  13.223
35964SOL     OW 9730  12.171   6.483   3.970
35964SOL    HW1 9731  12.197   6.546   4.037
35964SOL    HW2 9732  12.115   6.534   3.911
35965SOL     OW 9733   0.309   5.047  10.345
35965SOL    HW1 9734   0.354   5.045  10.261
35965SOL    HW2 9735   0.216   5.043  10.322
35966SOL     OW 9736   0.014   0.960   9.863
35966SOL    HW1 9737  14.824   0.939   9.925
35966SOL    HW2 9738   0.074   1.017   9.912
35967SOL     OW 9739   0.503   9.021   4.961
35967SOL    HW1 9740   0.461   9.087   5.017
35967SOL    HW2 9741   0.580   8.993   5.011
35968SOL     OW 9742   5.490  12.047   0.752
35968SOL    HW1 9743   5.409  12.035   0.802
35968SOL    HW2 9744   5.557  12.065   0.817
35969SOL     OW 9745  12.939   4.136   5.961
35969SOL    HW1 9746  12.976   4.224   5.957
35969SOL    HW2 9747  12.882   4.136   6.037
35970SOL     OW 9748   9.913   2.725   9.806
35970SOL    HW1 9749   9.861   2.662   9.755
35970SOL    HW2 9750   9.848   2.782   9.848
35971SOL     OW 9751   6.276   6.012   7.492
35971SOL    HW1 9752   6.265   6.097   7.536
35971SOL    HW2 9753   6.332   5.962   7.551
35972SOL     OW 9754   3.605   5.197   6.755
35972SOL    HW1 9755   3.676   5.261   6.761
35972SOL    HW2 9756   3.632   5.137   6.686
35973SOL     OW 9757   6.102   2.664   8.825
35973SOL    HW1 9758   6.127   2.678   8.733
35973SOL    HW2 9759   6.096   2.751   8.862
35974SOL     OW 9760  12.134   0.289   5.325
35974SOL    HW1 9761  12.184   0.353   5.275
35974SOL    HW2 9762  12.102   0.227   5.259
35975SOL     OW 9763  10.054   2.453  10.759
35975SOL    HW1 9764  10.141   2.443  10.720
35975SOL    HW2 9765  10.002   2.383  10.719
35976SOL     OW 9766   1.098  12.148   0.876
35976SOL    HW1 9767   1.115  12.187   0.790
35976SOL    HW2 9768   1.173  12.090   0.891
35977SOL     OW 9769  10.279  11.649  12.610
35977SOL    HW1 9770  10.355  11.706  12.625
35977SOL    HW2 9771  10.255  11.664  12.519
35978SOL     OW 9772   2.929   7.954   1.773
35978SOL    HW1 9773   2.935   8.006   1.853
35978SOL    HW2 9774   3.019   7.927   1.755
35979SOL     OW 9775   9.319   2.576   4.434
35979SOL    HW1 9776   9.396   2.582   4.377
35979SOL    HW2 9777   9.246   2.602   4.378
35980SOL     OW 9778   5.350   1.988  13.358
35980SOL    HW1 9779   5.385   2.018  13.275
35980SOL    HW2 9780   5.344   2.067  13.411
35981SOL     OW 9781   9.202  14.453   4.683
35981SOL    HW1 9782   9.196  14.548   4.690
35981SOL    HW2 9783   9.190  14.422   4.773
35982SOL     OW 9784  12.669   5.427   9.638
35982SOL    HW1 9785  12.623   5.479   9.703
35982SOL    HW2 9786  12.600   5.394   9.580
35983SOL     OW 9787   0.718   4.158   4.092
35983SOL    HW1 9788   0.630   4.175   4.059
35983SOL    HW2 9789   0.730   4.063   4.081
35984SOL     OW 9790   0.154   8.555  13.519
35984SOL    HW1 9791   0.098   8.588  13.449
35984SOL    HW2 9792   0.243   8.562  13.484
35985SOL     OW 9793   9.704   9.543   4.329
35985SOL    HW1 9794   9.771   9.569   4.265
35985SOL    HW2 9795   9.621   9.568   4.288
35986SOL     OW 9796   6.988   5.789  10.291
35986SOL    HW1 9797   6.992   5.785  10.387
35986SOL    HW2 9798   6.986   5.698  10.263
35987SOL     OW 9799   9.639  11.501  12.917
35987SOL    HW1 9800   9.568  11.551  12.957
35987SOL    HW2 9801   9.649  11.539  12.830
35988SOL     OW 9802   6.911  12.419   6.644
35988SOL    HW1 9803   6.947  12.360   6.710
35988SOL    HW2 9804   6.943  12.385   6.561
35989SOL     OW 9805   5.062  14.155   5.678
35989SOL    HW1 9806   4.996  14.087   5.675
35989SOL    HW2 9807   5.093  14.155   5.769
35990SOL     OW 9808   9.381  11.222   3.545
35990SOL    HW1 9809   9.456  11.215   3.604
35990SOL    HW2 9810   9.338  11.303   3.570
35991SOL     OW 9811   6.114   8.727  14.029
35991SOL    HW1 9812   6.071   8.644  14.051
35991SOL    HW2 9813   6.206   8.704  14.016
35992SOL     OW 9814   9.141   6.094  11.889
35992SOL    HW1 9815   9.235   6.101  11.907
35992SOL    HW2 9816   9.116   6.008  11.922
35993SOL     OW 9817   3.509   0.992   5.832
35993SOL    HW1 9818   3.598   0.988   5.798
35993SOL    HW2 9819   3.479   0.901   5.834
35994SOL     OW 9820   1.505  10.018   6.818
35994SOL    HW1 9821   1.559   9.952   6.774
35994SOL    HW2 9822   1.448  10.052   6.749
35995SOL     OW 9823   5.024   9.532  14.192
35995SOL    HW1 9824   5.047   9.522  14.284
35995SOL    HW2 9825   5.033   9.626  14.175
35996SOL     OW 9826   6.855   7.312   7.116
35996SOL    HW1 9827   6.784   7.254   7.090
35996SOL    HW2 9828   6.922   7.300   7.049
35997SOL     OW 9829  14.663   9.838  13.600
35997SOL    HW1 9830  14.621   9.767  13.553
35997SOL    HW2 9831  14.658   9.913  13.541
35998SOL     OW 9832   8.876   5.987  12.253
35998SOL    HW1 9833   8.885   6.081  12.233
35998SOL    HW2 9834   8.955   5.966  12.303
35999SOL     OW 9835   8.945   1.359  10.723
35999SOL    HW1 9836   9.013   1.302  10.758
35999SOL    HW2 9837   8.920   1.415  10.796
36000SOL     OW 9838  13.212  10.361   8.635
36000SOL    HW1 9839  13.191  10.268   8.625
36000SOL    HW2 9840  13.127  10.406   8.631
36001SOL     OW 9841   8.288  14.104   6.781
36001SOL    HW1 9842   8.197  14.076   6.773
36001SOL    HW2 9843   8.287  14.164   6.856
36002SOL     OW 9844   5.127   3.144  14.428
36002SOL    HW1 9845   5.124   3.097  14.345
36002SOL    HW2 9846   5.036   3.147  14.457
36003SOL     OW 9847  12.709   3.096  12.382
36003SOL    HW1 9848  12.676   3.132  12.300
36003SOL    HW2 9849  12.729   3.005  12.362
36004SOL     OW 9850   2.729   1.990   3.609
36004SOL    HW1 9851   2.669   1.946   3.669
36004SOL    HW2 9852   2.692   1.977   3.522
36005SOL     OW 9853   9.556   3.854  11.834
36005SOL    HW1 9854   9.585   3.822  11.749
36005SOL    HW2 9855   9.475   3.901  11.815
36006SOL     OW 9856  12.957   8.420  10.846
36006SOL    HW1 9857  12.996   8.437  10.932
36006SOL    HW2 9858  13.017   8.463  10.784
36007SOL     OW 9859   0.105  12.093  13.297
36007SOL    HW1 9860   0.192  12.080  13.335
36007SOL    HW2 9861   0.065  12.007  13.297
36008SOL     OW 9862   2.638   0.178   9.681
36008SOL    HW1 9863   2.612   0.088   9.699
36008SOL    HW2 9864   2.637   0.221   9.767
36009SOL     OW 9865   4.927   9.672   7.928
36009SOL    HW1 9866   4.899   9.762   7.944
36009SOL    HW2 9867   5.022   9.677   7.918
36010SOL     OW 9868   6.027   9.775   2.264
36010SOL    HW1 9869   6.057   9.831   2.192
36010SOL    HW2 9870   6.092   9.790   2.334
36011SOL     OW 9871  10.228  13.361   3.970
36011SOL    HW1 9872  10.268  13.324   4.048
36011SOL    HW2 9873  10.155  13.302   3.950
36012SOL     OW 9874   8.002   2.642   9.638
36012SOL    HW1 9875   8.079   2.586   9.647
36012SOL    HW2 9876   7.988   2.649   9.543
36013SOL     OW 9877   7.137   4.900  13.015
36013SOL    HW1 9878   7.191   4.979  13.017
36013SOL    HW2 9879   7.166   4.848  13.089
36014SOL     OW 9880  13.788   5.302   5.411
36014SOL    HW1 9881  13.829   5.255   5.339
36014SOL    HW2 9882  13.695   5.302   5.390
36015SOL     OW 9883   4.858  12.067   7.071
36015SOL    HW1 9884   4.942  12.108   7.050
36015SOL    HW2 9885   4.844  12.005   6.999
36016SOL     OW 9886  13.418   8.876  12.854
36016SOL    HW1 9887  13.382   8.963  12.874
36016SOL    HW2 9888  13.394   8.822  12.930
36017SOL     OW 9889  13.024   5.080   4.828
36017SOL    HW1 9890  12.958   5.045   4.768
36017SOL    HW2 9891  13.102   5.026   4.812
36018SOL     OW 9892   1.583  12.339   3.186
36018SOL    HW1 9893   1.561  12.370   3.273
36018SOL    HW2 9894   1.568  12.414   3.128
36019SOL     OW 9895   4.732  13.883  14.251
36019SOL    HW1 9896   4.826  13.896  14.241
36019SOL    HW2 9897   4.695  13.972  14.248
36020SOL     OW 9898   7.965  11.280   9.872
36020SOL    HW1 9899   8.015  11.241   9.943
36020SOL    HW2 9900   8.032  11.316   9.813
36021SOL     OW 9901   5.284   5.938  11.463
36021SOL    HW1 9902   5.255   5.895  11.382
36021SOL    HW2 9903   5.250   6.027  11.456
36022SOL     OW 9904  10.630   9.210   1.586
36022SOL    HW1 9905  10.683   9.267   1.642
36022SOL    HW2 9906  10.540   9.243   1.597
36023SOL     OW 9907   0.216   7.410  14.708
36023SOL    HW1 9908   0.302   7.450  14.693
36023SOL    HW2 9909   0.171   7.419  14.625
36024SOL     OW 9910   9.315   8.957   4.951
36024SOL    HW1 9911   9.222   8.933   4.946
36024SOL    HW2 9912   9.349   8.938   4.863
36025SOL     OW 9913   9.849   2.446   8.966
36025SOL    HW1 9914   9.840   2.373   8.905
36025SOL    HW2 9915   9.921   2.419   9.024
36026SOL     OW 9916  14.384   6.699   9.364
36026SOL    HW1 9917  14.442   6.678   9.437
36026SOL    HW2 9918  14.428   6.662   9.288
36027SOL     OW 9919  11.141   5.190   6.283
36027SOL    HW1 9920  11.093   5.193   6.365
36027SOL    HW2 9921  11.168   5.099   6.274
36028SOL     OW 9922   2.716  11.390   7.190
36028SOL    HW1 9923   2.722  11.321   7.124
36028SOL    HW2 9924   2.643  11.445   7.161
36029SOL     OW 9925  11.495  13.902   2.488
36029SOL    HW1 9926  11.466  13.904   2.396
36029SOL    HW2 9927  11.513  13.994   2.509
36030SOL     OW 9928  12.573  10.557  14.570
36030SOL    HW1 9929  12.613  10.483  14.524
36030SOL    HW2 9930  12.590  10.633  14.513
36031SOL     OW 9931   0.823   3.616   5.485
36031SOL    HW1 9932   0.782   3.533   5.506
36031SOL    HW2 9933   0.756   3.682   5.504
36032SOL     OW 9934   5.306   9.493   3.978
36032SOL    HW1 9935   5.217   9.519   4.002
36032SOL    HW2 9936   5.301   9.469   3.885
36033SOL     OW 9937   8.611   2.211  13.761
36033SOL    HW1 9938   8.577   2.249  13.680
36033SOL    HW2 9939   8.540   2.222  13.824
36034SOL     OW 9940   9.680   9.053   5.078
36034SOL    HW1 9941   9.752   9.078   5.021
36034SOL    HW2 9942   9.656   8.965   5.049
36035SOL     OW 9943   6.694  13.395  11.754
36035SOL    HW1 9944   6.636  13.471  11.749
36035SOL    HW2 9945   6.635  13.320  11.750
36036SOL     OW 9946   9.831  13.585   3.707
36036SOL    HW1 9947   9.924  13.588   3.730
36036SOL    HW2 9948   9.811  13.492   3.699
36037SOL     OW 9949  14.657   5.710   3.223
36037SOL    HW1 9950  14.621   5.641   3.279
36037SOL    HW2 9951  14.741   5.731   3.264
36038SOL     OW 9952  10.130  14.037   0.125
36038SOL    HW1 9953  10.036  14.022   0.115
36038SOL    HW2 9954  10.136  14.117   0.176
36039SOL     OW 9955   5.502   5.227   8.166
36039SOL    HW1 9956   5.587   5.208   8.127
36039SOL    HW2 9957   5.441   5.169   8.121
36040SOL     OW 9958  10.276   3.335  10.597
36040SOL    HW1 9959  10.268   3.429  10.582
36040SOL    HW2 9960  10.252   3.323  10.689
36041SOL     OW 9961   1.406  11.540  13.565
36041SOL    HW1 9962   1.412  11.445  13.567
36041SOL    HW2 9963   1.495  11.570  13.587
36042SOL     OW 9964   3.519  10.962   4.906
36042SOL    HW1 9965   3.432  10.923   4.915
36042SOL    HW2 9966   3.553  10.964   4.996
36043SOL     OW 9967   4.103   4.212   2.321
36043SOL    HW1 9968   4.148   4.235   2.240
36043SOL    HW2 9969   4.010   4.223   2.302
36044SOL     OW 9970  10.679  14.657   6.967
36044SOL    HW1 9971  10.669  14.614   6.882
36044SOL    HW2 9972  10.652  14.590   7.030
36045SOL     OW 9973  12.282   0.764  12.112
36045SOL    HW1 9974  12.259   0.856  12.123
36045SOL    HW2 9975  12.376   0.761  12.131
36046SOL     OW 9976   5.968  13.295   2.316
36046SOL    HW1 9977   6.049  13.258   2.349
36046SOL    HW2 9978   5.994  13.348   2.241
36047SOL     OW 9979   2.274  13.256   3.567
36047SOL    HW1 9980   2.242  13.199   3.497
36047SOL    HW2 9981   2.237  13.342   3.548
36048SOL     OW 9982   0.793   5.274   5.914
36048SOL    HW1 9983   0.711   5.224   5.909
36048SOL    HW2 9984   0.837   5.254   5.831
36049SOL     OW 9985  13.869   4.964   5.859
36049SOL    HW1 9986  13.863   5.015   5.940
36049SOL    HW2 9987  13.778   4.947   5.835
36050SOL     OW 9988   8.361   3.112  12.774
36050SOL    HW1 9989   8.413   3.048  12.823
36050SOL    HW2 9990   8.335   3.176  12.840
36051SOL     OW 9991   1.895   7.396   8.478
36051SOL    HW1 9992   1.864   7.406   8.568
36051SOL    HW2 9993   1.989   7.380   8.486
36052SOL     OW 9994  10.415   9.363  10.039
36052SOL    HW1 9995  10.441   9.274  10.064
36052SOL    HW2 9996  10.489   9.396   9.988
36053SOL     OW 9997   6.044   3.780   0.053
36053SOL    HW1 9998   6.041   3.686   0.035
36053SOL    HW2 9999   6.009   3.789   0.141
36054SOL     OW10000   2.616  14.647   4.341
36054SOL    HW110001   2.564  14.646   4.261
36054SOL    HW210002   2.661  14.563   4.341
36055SOL     OW10003   2.311   7.566   6.452
36055SOL    HW110004   2.348   7.564   6.364
36055SOL    HW210005   2.225   7.525   6.443
36056SOL     OW10006  14.301  11.171  14.557
36056SOL    HW110007  14.308  11.123  14.640
36056SOL    HW210008  14.372  11.235  14.561
36057SOL     OW10009   5.959  11.556  13.763
36057SOL    HW110010   5.953  11.615  13.688
36057SOL    HW210011   5.871  11.520  13.773
36058SOL     OW10012  13.595  13.898   1.968
36058SOL    HW110013  13.623  13.826   2.025
36058SOL    HW210014  13.499  13.895   1.972
36059SOL     OW10015   1.224   0.925   4.304
36059SOL    HW110016   1.232   0.900   4.396
36059SOL    HW210017   1.250   1.017   4.301
36060SOL     OW10018   5.790   7.407   8.119
36060SOL    HW110019   5.744   7.486   8.092
36060SOL    HW210020   5.880   7.420   8.088
36061SOL     OW10021  10.953  13.494  13.663
36061SOL    HW110022  10.928  13.402  13.666
36061SOL    HW210023  10.949  13.523  13.754
36062SOL     OW10024  11.934   5.313   9.534
36062SOL    HW110025  11.909   5.237   9.587
36062SOL    HW210026  11.969   5.376   9.597
36063SOL     OW10027  10.536  11.853  14.630
36063SOL    HW110028  10.545  11.874  14.723
36063SOL    HW210029  10.498  11.765  14.629
36064SOL     OW10030  10.403   4.613   0.901
36064SOL    HW110031  10.405   4.616   0.997
36064SOL    HW210032  10.453   4.535   0.878
36065SOL     OW10033   1.647   2.588   1.992
36065SOL    HW110034   1.676   2.671   2.030
36065SOL    HW210035   1.705   2.522   2.031
36066SOL     OW10036   9.274   1.460   0.538
36066SOL    HW110037   9.352   1.515   0.534
36066SOL    HW210038   9.294   1.385   0.483
36067SOL     OW10039  12.911  12.476   1.719
36067SOL    HW110040  12.853  12.498   1.792
36067SOL    HW210041  12.946  12.390   1.741
36068SOL     OW10042   6.193   5.457  12.002
36068SOL    HW110043   6.260   5.399  11.968
36068SOL    HW210044   6.225   5.484  12.089
36069SOL     OW10045   0.705   8.463   7.812
36069SOL    HW110046   0.614   8.493   7.819
36069SOL    HW210047   0.756   8.536   7.846
36070SOL     OW10048   3.181   5.103  14.645
36070SOL    HW110049   3.165   5.181  14.700
36070SOL    HW210050   3.188   5.031  14.708
36071SOL     OW10051   6.048   9.468  10.946
36071SOL    HW110052   5.987   9.395  10.934
36071SOL    HW210053   6.121   9.447  10.887
36072SOL     OW10054   8.834   9.713  11.990
36072SOL    HW110055   8.848   9.808  11.991
36072SOL    HW210056   8.742   9.703  11.965
36073SOL     OW10057   3.560   1.555   0.182
36073SOL    HW110058   3.464   1.551   0.189
36073SOL    HW210059   3.587   1.463   0.185
36074SOL     OW10060   8.274  12.083  10.346
36074SOL    HW110061   8.356  12.045  10.378
36074SOL    HW210062   8.233  12.120  10.424
36075SOL     OW10063  13.794   7.096   1.447
36075SOL    HW110064  13.785   7.180   1.403
36075SOL    HW210065  13.884   7.069   1.429
36076SOL     OW10066   3.863   5.325   6.820
36076SOL    HW110067   3.954   5.304   6.800
36076SOL    HW210068   3.834   5.380   6.748
36077SOL     OW10069   6.393   5.741   6.696
36077SOL    HW110070   6.438   5.748   6.780
36077SOL    HW210071   6.301   5.733   6.719
36078SOL     OW10072  14.302   1.222   5.979
36078SOL    HW110073  14.290   1.169   5.900
36078SOL    HW210074  14.369   1.286   5.954
36079SOL     OW10075   6.722  12.883   9.563
36079SOL    HW110076   6.764  12.805   9.526
36079SOL    HW210077   6.772  12.901   9.643
36080SOL     OW10078  12.899   5.420   2.141
36080SOL    HW110079  12.875   5.328   2.133
36080SOL    HW210080  12.840   5.466   2.082
36081SOL     OW10081   2.438  14.475  13.919
36081SOL    HW110082   2.434  14.445  13.828
36081SOL    HW210083   2.390  14.557  13.919
36082SOL     OW10084   2.084   3.375  14.065
36082SOL    HW110085   2.006   3.325  14.039
36082SOL    HW210086   2.126   3.398  13.983
36083SOL     OW10087  11.543  11.360  11.012
36083SOL    HW110088  11.573  11.381  11.101
36083SOL    HW210089  11.454  11.326  11.024
36084SOL     OW10090  13.075   0.653   4.389
36084SOL    HW110091  13.017   0.609   4.452
36084SOL    HW210092  13.059   0.747   4.404
36085SOL     OW10093   9.573  13.527  13.439
36085SOL    HW110094   9.556  13.605  13.491
36085SOL    HW210095   9.523  13.539  13.359
36086SOL     OW10096   2.122   5.522   6.879
36086SOL    HW110097   2.134   5.606   6.834
36086SOL    HW210098   2.051   5.479   6.830
36087SOL     OW10099  10.629  14.093   8.210
36087SOL    HW110100  10.588  14.129   8.289
36087SOL    HW210101  10.683  14.164   8.177
36088SOL     OW10102   7.145   9.798   5.153
36088SOL    HW110103   7.209   9.820   5.220
36088SOL    HW210104   7.197   9.757   5.083
36089SOL     OW10105   1.809   7.372   6.138
36089SOL    HW110106   1.715   7.359   6.150
36089SOL    HW210107   1.842   7.389   6.226
36090SOL     OW10108   8.983   9.551  12.855
36090SOL    HW110109   9.032   9.493  12.797
36090SOL    HW210110   9.010   9.639  12.830
36091SOL     OW10111  14.493   1.526   5.680
36091SOL    HW110112  14.443   1.586   5.735
36091SOL    HW210113  14.440   1.517   5.600
36092SOL     OW10114   0.037   2.744  14.377
36092SOL    HW110115   0.119   2.751  14.426
36092SOL    HW210116   0.031   2.827  14.329
36093SOL     OW10117  13.103  13.370   6.356
36093SOL    HW110118  13.156  13.448   6.342
36093SOL    HW210119  13.141  13.328   6.434
36094SOL     OW10120   2.285   2.164   2.333
36094SOL    HW110121   2.305   2.187   2.242
36094SOL    HW210122   2.336   2.227   2.384
36095SOL     OW10123   8.315  12.907  10.612
36095SOL    HW110124   8.333  13.000  10.620
36095SOL    HW210125   8.242  12.892  10.673
36096SOL     OW10126  11.111  12.494  12.931
36096SOL    HW110127  11.018  12.478  12.945
36096SOL    HW210128  11.156  12.427  12.983
36097SOL     OW10129  12.129   4.276   2.403
36097SOL    HW110130  12.140   4.195   2.353
36097SOL    HW210131  12.128   4.248   2.494
36098SOL     OW10132   5.555   4.189   8.632
36098SOL    HW110133   5.530   4.255   8.698
36098SOL    HW210134   5.474   4.172   8.584
36099SOL     OW10135   9.867   4.346   2.529
36099SOL    HW110136   9.923   4.409   2.484
36099SOL    HW210137   9.868   4.374   2.621
36100SOL     OW10138   2.504   1.835  10.143
36100SOL    HW110139   2.588   1.862  10.181
36100SOL    HW210140   2.478   1.908  10.088
36101SOL     OW10141   5.880   0.280   0.688
36101SOL    HW110142   5.795   0.264   0.649
36101SOL    HW210143   5.943   0.251   0.622
36102SOL     OW10144   2.936   3.251   1.969
36102SOL    HW110145   2.896   3.195   1.902
36102SOL    HW210146   2.921   3.204   2.051
36103SOL     OW10147  10.478   8.835  10.020
36103SOL    HW110148  10.496   8.837   9.926
36103SOL    HW210149  10.387   8.807  10.026
36104SOL     OW10150  12.195   8.147   2.451
36104SOL    HW110151  12.268   8.098   2.414
36104SOL    HW210152  12.214   8.238   2.429
36105SOL     OW10153  14.510  12.023   7.061
36105SOL    HW110154  14.468  12.088   7.117
36105SOL    HW210155  14.582  12.069   7.020
36106SOL     OW10156   4.663  10.612   5.840
36106SOL    HW110157   4.581  10.601   5.791
36106SOL    HW210158   4.664  10.538   5.900
36107SOL     OW10159   9.015  11.521   5.406
36107SOL    HW110160   9.035  11.599   5.354
36107SOL    HW210161   9.010  11.450   5.342
36108SOL     OW10162  12.848   0.908   5.582
36108SOL    HW110163  12.796   0.839   5.624
36108SOL    HW210164  12.832   0.896   5.488
36109SOL     OW10165   6.774   8.925  11.886
36109SOL    HW110166   6.745   8.869  11.815
36109SOL    HW210167   6.743   9.013  11.863
36110SOL     OW10168   8.842   7.646  10.313
36110SOL    HW110169   8.875   7.615  10.398
36110SOL    HW210170   8.747   7.652  10.325
36111SOL     OW10171   4.506   5.271   3.763
36111SOL    HW110172   4.420   5.262   3.805
36111SOL    HW210173   4.546   5.185   3.773
36112SOL     OW10174  12.574   6.462   5.981
36112SOL    HW110175  12.657   6.417   5.998
36112SOL    HW210176  12.516   6.431   6.050
36113SOL     OW10177   2.608   5.338   3.339
36113SOL    HW110178   2.574   5.345   3.428
36113SOL    HW210179   2.587   5.422   3.298
36114SOL     OW10180  11.104  10.400   7.317
36114SOL    HW110181  11.135  10.490   7.320
36114SOL    HW210182  11.041  10.399   7.245
36115SOL     OW10183   2.523   9.502   9.693
36115SOL    HW110184   2.536   9.490   9.787
36115SOL    HW210185   2.611   9.509   9.657
36116SOL     OW10186  11.383   7.858   6.628
36116SOL    HW110187  11.419   7.773   6.651
36116SOL    HW210188  11.398   7.912   6.706
36117SOL     OW10189  11.031  10.145   1.362
36117SOL    HW110190  11.117  10.140   1.321
36117SOL    HW210191  11.046  10.183   1.448
36118SOL     OW10192  10.618  12.661   1.310
36118SOL    HW110193  10.672  12.583   1.327
36118SOL    HW210194  10.531  12.636   1.340
36119SOL     OW10195   0.621   3.455   9.185
36119SOL    HW110196   0.662   3.373   9.211
36119SOL    HW210197   0.533   3.451   9.222
36120SOL     OW10198   7.567   1.959   4.470
36120SOL    HW110199   7.478   1.950   4.503
36120SOL    HW210200   7.618   1.988   4.546
36121SOL     OW10201  14.201   7.124   3.847
36121SOL    HW110202  14.173   7.098   3.759
36121SOL    HW210203  14.230   7.043   3.888
36122SOL     OW10204   2.804   6.004  12.614
36122SOL    HW110205   2.819   5.971  12.703
36122SOL    HW210206   2.735   5.948  12.579
36123SOL     OW10207   2.493   7.375   3.213
36123SOL    HW110208   2.580   7.407   3.192
36123SOL    HW210209   2.449   7.368   3.129
36124SOL     OW10210   9.228   0.628   8.169
36124SOL    HW110211   9.262   0.547   8.209
36124SOL    HW210212   9.203   0.603   8.081
36125SOL     OW10213   2.914   6.982  12.181
36125SOL    HW110214   2.842   6.939  12.228
36125SOL    HW210215   2.988   6.923  12.193
36126SOL     OW10216   5.307   9.060  13.304
36126SOL    HW110217   5.298   9.013  13.221
36126SOL    HW210218   5.398   9.047  13.329
36127SOL     OW10219   4.025   9.638  11.894
36127SOL    HW110220   4.088   9.577  11.933
36127SOL    HW210221   4.080   9.701  11.847
36128SOL     OW10222   9.059   1.280   4.833
36128SOL    HW110223   9.148   1.301   4.862
36128SOL    HW210224   9.062   1.284   4.738
36129SOL     OW10225   5.274   1.420   2.106
36129SOL    HW110226   5.278   1.325   2.110
36129SOL    HW210227   5.282   1.441   2.013
36130SOL     OW10228   7.834  12.215  12.733
36130SOL    HW110229   7.843  12.290  12.792
36130SOL    HW210230   7.742  12.215  12.708
36131SOL     OW10231   8.969   6.204  11.438
36131SOL    HW110232   8.934   6.290  11.414
36131SOL    HW210233   8.964   6.202  11.534
36132SOL     OW10234   5.358   4.864   9.517
36132SOL    HW110235   5.264   4.877   9.532
36132SOL    HW210236   5.391   4.829   9.600
36133SOL     OW10237   6.177   5.325   5.987
36133SOL    HW110238   6.151   5.414   5.966
36133SOL    HW210239   6.249   5.334   6.050
36134SOL     OW10240  10.146   5.512   6.597
36134SOL    HW110241  10.181   5.577   6.536
36134SOL    HW210242  10.135   5.560   6.679
36135SOL     OW10243  14.743   1.711   7.162
36135SOL    HW110244  14.648   1.715   7.174
36135SOL    HW210245  14.759   1.763   7.084
36136SOL     OW10246   4.390   2.098  10.708
36136SOL    HW110247   4.398   2.102  10.613
36136SOL    HW210248   4.316   2.155  10.729
36137SOL     OW10249   2.410  12.030   6.595
36137SOL    HW110250   2.373  12.078   6.669
36137SOL    HW210251   2.337  12.020   6.534
36138SOL     OW10252   3.761  10.622  11.209
36138SOL    HW110253   3.714  10.564  11.149
36138SOL    HW210254   3.825  10.566  11.252
36139SOL     OW10255   7.058   1.657   6.734
36139SOL    HW110256   7.143   1.612   6.725
36139SOL    HW210257   6.996   1.586   6.751
36140SOL     OW10258  10.270   5.795   4.102
36140SOL    HW110259  10.201   5.833   4.157
36140SOL    HW210260  10.241   5.810   4.012
36141SOL     OW10261   4.519   0.647   5.218
36141SOL    HW110262   4.570   0.673   5.142
36141SOL    HW210263   4.573   0.580   5.261
36142SOL     OW10264  11.334   2.148   5.434
36142SOL    HW110265  11.260   2.088   5.445
36142SOL    HW210266  11.402   2.113   5.492
36143SOL     OW10267   8.179   1.024   5.612
36143SOL    HW110268   8.115   1.072   5.664
36143SOL    HW210269   8.262   1.066   5.631
36144SOL     OW10270   2.260   6.609  14.105
36144SOL    HW110271   2.244   6.521  14.072
36144SOL    HW210272   2.172   6.646  14.119
36145SOL     OW10273   1.937   1.270   4.304
36145SOL    HW110274   1.918   1.359   4.273
36145SOL    HW210275   1.999   1.282   4.375
36146SOL     OW10276   5.032   7.219  10.881
36146SOL    HW110277   4.980   7.238  10.959
36146SOL    HW210278   5.064   7.305  10.851
36147SOL     OW10279  11.073   4.059  12.491
36147SOL    HW110280  11.020   3.980  12.485
36147SOL    HW210281  11.017   4.128  12.455
36148SOL     OW10282   9.306  11.758   1.498
36148SOL    HW110283   9.271  11.830   1.445
36148SOL    HW210284   9.338  11.800   1.578
36149SOL     OW10285   0.649  10.793  12.199
36149SOL    HW110286   0.661  10.877  12.154
36149SOL    HW210287   0.559  10.768  12.180
36150SOL     OW10288   4.583   6.156  10.801
36150SOL    HW110289   4.669   6.120  10.824
36150SOL    HW210290   4.562   6.116  10.717
36151SOL     OW10291   4.969   2.979   1.825
36151SOL    HW110292   4.927   2.932   1.753
36151SOL    HW210293   4.924   3.064   1.827
36152SOL     OW10294   8.379   6.005   9.643
36152SOL    HW110295   8.429   6.046   9.573
36152SOL    HW210296   8.445   5.966   9.700
36153SOL     OW10297  14.110   3.736  13.770
36153SOL    HW110298  14.050   3.666  13.748
36153SOL    HW210299  14.196   3.695  13.772
36154SOL     OW10300  14.239   9.677   4.953
36154SOL    HW110301  14.258   9.714   5.039
36154SOL    HW210302  14.171   9.733   4.917
36155SOL     OW10303  12.184  13.586   5.366
36155SOL    HW110304  12.174  13.527   5.441
36155SOL    HW210305  12.267  13.630   5.381
36156SOL     OW10306   4.491  14.405  12.005
36156SOL    HW110307   4.582  14.384  11.983
36156SOL    HW210308   4.481  14.377  12.096
36157SOL     OW10309   1.005   9.841  11.530
36157SOL    HW110310   0.983   9.765  11.584
36157SOL    HW210311   0.995   9.916  11.589
36158SOL     OW10312  12.970   9.834   9.274
36158SOL    HW110313  13.025   9.779   9.330
36158SOL    HW210314  12.927   9.773   9.215
36159SOL     OW10315   3.738   6.009  11.003
36159SOL    HW110316   3.765   6.049  10.921
36159SOL    HW210317   3.683   5.935  10.977
36160SOL     OW10318   4.870   4.637   3.547
36160SOL    HW110319   4.952   4.685   3.553
36160SOL    HW210320   4.884   4.573   3.477
36161SOL     OW10321  11.045   6.072   4.160
36161SOL    HW110322  10.967   6.018   4.150
36161SOL    HW210323  11.027   6.150   4.108
36162SOL     OW10324   6.440   4.744  12.385
36162SOL    HW110325   6.431   4.680  12.315
36162SOL    HW210326   6.466   4.825  12.341
36163SOL     OW10327  10.438   4.027   2.469
36163SOL    HW110328  10.451   4.033   2.375
36163SOL    HW210329  10.440   3.933   2.488
36164SOL     OW10330  12.852   5.662  13.521
36164SOL    HW110331  12.932   5.704  13.487
36164SOL    HW210332  12.782   5.694  13.464
36165SOL     OW10333   1.843  14.110   6.083
36165SOL    HW110334   1.921  14.097   6.136
36165SOL    HW210335   1.818  14.201   6.099
36166SOL     OW10336   8.386  11.376   0.576
36166SOL    HW110337   8.440  11.437   0.527
36166SOL    HW210338   8.355  11.313   0.511
36167SOL     OW10339   2.956   1.269   1.930
36167SOL    HW110340   2.871   1.293   1.893
36167SOL    HW210341   2.939   1.189   1.980
36168SOL     OW10342   8.876   8.870  10.898
36168SOL    HW110343   8.829   8.840  10.819
36168SOL    HW210344   8.963   8.832  10.890
36169SOL     OW10345   9.532  12.301   7.687
36169SOL    HW110346   9.591  12.267   7.620
36169SOL    HW210347   9.529  12.396   7.670
36170SOL     OW10348   4.317   0.899   4.599
36170SOL    HW110349   4.347   0.927   4.686
36170SOL    HW210350   4.351   0.810   4.590
36171SOL     OW10351   0.209   9.586   4.707
36171SOL    HW110352   0.165   9.596   4.622
36171SOL    HW210353   0.192   9.495   4.732
36172SOL     OW10354  13.893  14.840   3.715
36172SOL    HW110355  13.833  14.821   3.643
36172SOL    HW210356  13.909  14.754   3.755
36173SOL     OW10357  14.258  14.593  10.021
36173SOL    HW110358  14.206  14.670  10.043
36173SOL    HW210359  14.258  14.541  10.102
36174SOL     OW10360   5.053  10.264  12.913
36174SOL    HW110361   5.010  10.305  12.837
36174SOL    HW210362   4.999  10.188  12.933
36175SOL     OW10363   3.956  11.257  12.830
36175SOL    HW110364   3.910  11.306  12.898
36175SOL    HW210365   3.886  11.214  12.780
36176SOL     OW10366   4.405  14.729   6.728
36176SOL    HW110367   4.391  14.820   6.756
36176SOL    HW210368   4.367  14.725   6.640
36177SOL     OW10369   9.837  11.347   2.854
36177SOL    HW110370   9.832  11.262   2.810
36177SOL    HW210371   9.756  11.352   2.905
36178SOL     OW10372   8.323   0.653   4.328
36178SOL    HW110373   8.267   0.687   4.258
36178SOL    HW210374   8.369   0.580   4.286
36179SOL     OW10375  13.720   9.113   7.687
36179SOL    HW110376  13.745   9.135   7.777
36179SOL    HW210377  13.750   9.188   7.635
36180SOL     OW10378  10.938   2.200   6.380
36180SOL    HW110379  11.029   2.227   6.389
36180SOL    HW210380  10.943   2.107   6.359
36181SOL     OW10381   6.126   7.093   6.038
36181SOL    HW110382   6.207   7.045   6.054
36181SOL    HW210383   6.057   7.029   6.052
36182SOL     OW10384   3.716  11.906  13.741
36182SOL    HW110385   3.727  12.001  13.731
36182SOL    HW210386   3.674  11.878  13.659
36183SOL     OW10387   8.461   0.683   6.933
36183SOL    HW110388   8.503   0.646   7.011
36183SOL    HW210389   8.440   0.773   6.958
36184SOL     OW10390   8.750   5.811   5.457
36184SOL    HW110391   8.678   5.756   5.425
36184SOL    HW210392   8.717   5.847   5.540
36185SOL     OW10393   7.267   7.787   2.627
36185SOL    HW110394   7.289   7.748   2.712
36185SOL    HW210395   7.176   7.816   2.638
36186SOL     OW10396   3.430  11.510   6.751
36186SOL    HW110397   3.514  11.554   6.764
36186SOL    HW210398   3.451  11.417   6.749
36187SOL     OW10399   1.128   5.552  14.142
36187SOL    HW110400   1.075   5.543  14.221
36187SOL    HW210401   1.168   5.466  14.130
36188SOL     OW10402   3.981   8.410  10.871
36188SOL    HW110403   3.994   8.321  10.905
36188SOL    HW210404   4.039   8.464  10.924
36189SOL     OW10405   0.241   8.465  11.411
36189SOL    HW110406   0.210   8.428  11.494
36189SOL    HW210407   0.193   8.417  11.343
36190SOL     OW10408   3.181   3.124   2.350
36190SOL    HW110409   3.238   3.164   2.285
36190SOL    HW210410   3.192   3.177   2.429
36191SOL     OW10411  12.896   9.825  13.280
36191SOL    HW110412  12.839   9.800  13.353
36191SOL    HW210413  12.889   9.752  13.218
36192SOL     OW10414   7.971   4.014  14.566
36192SOL    HW110415   8.033   4.024  14.494
36192SOL    HW210416   8.024   3.984  14.640
36193SOL     OW10417   4.082   0.587   6.275
36193SOL    HW110418   4.079   0.595   6.179
36193SOL    HW210419   4.084   0.493   6.291
36194SOL     OW10420   4.920   0.988   7.527
36194SOL    HW110421   4.971   1.036   7.593
36194SOL    HW210422   4.921   0.897   7.558
36195SOL     OW10423  11.819   1.753   8.893
36195SOL    HW110424  11.770   1.797   8.824
36195SOL    HW210425  11.884   1.817   8.921
36196SOL     OW10426  11.693  14.687  13.300
36196SOL    HW110427  11.720  14.772  13.266
36196SOL    HW210428  11.724  14.624  13.235
36197SOL     OW10429  11.134  11.421   5.871
36197SOL    HW110430  11.173  11.354   5.928
36197SOL    HW210431  11.205  11.484   5.856
36198SOL     OW10432   4.403   9.467  13.313
36198SOL    HW110433   4.347   9.456  13.389
36198SOL    HW210434   4.343   9.468  13.238
36199SOL     OW10435  10.605   0.978   3.993
36199SOL    HW110436  10.591   0.931   3.911
36199SOL    HW210437  10.688   0.945   4.025
36200SOL     OW10438  12.870   4.176  12.870
36200SOL    HW110439  12.856   4.256  12.922
36200SOL    HW210440  12.915   4.207  12.791
36201SOL     OW10441   4.760   4.602  11.564
36201SOL    HW110442   4.664   4.604  11.555
36201SOL    HW210443   4.774   4.558  11.648
36202SOL     OW10444   2.241   5.809   4.382
36202SOL    HW110445   2.270   5.727   4.342
36202SOL    HW210446   2.265   5.799   4.475
36203SOL     OW10447   7.721   3.315  11.788
36203SOL    HW110448   7.807   3.346  11.815
36203SOL    HW210449   7.661   3.384  11.818
36204SOL     OW10450  13.182   0.989   1.807
36204SOL    HW110451  13.102   1.033   1.778
36204SOL    HW210452  13.152   0.909   1.850
36205SOL     OW10453   4.734   5.697  13.162
36205SOL    HW110454   4.818   5.742  13.155
36205SOL    HW210455   4.752   5.624  13.221
36206SOL     OW10456  11.223  13.132   9.107
36206SOL    HW110457  11.243  13.212   9.058
36206SOL    HW210458  11.255  13.061   9.051
36207SOL     OW10459  11.772   4.385   5.668
36207SOL    HW110460  11.689   4.426   5.691
36207SOL    HW210461  11.808   4.442   5.600
36208SOL     OW10462   7.501   0.074   1.816
36208SOL    HW110463   7.551   0.154   1.798
36208SOL    HW210464   7.568   0.006   1.829
36209SOL     OW10465   7.959  12.620   2.824
36209SOL    HW110466   8.038  12.628   2.878
36209SOL    HW210467   7.888  12.609   2.886
36210SOL     OW10468   4.648  10.490   3.146
36210SOL    HW110469   4.720  10.521   3.091
36210SOL    HW210470   4.644  10.553   3.218
36211SOL     OW10471   7.107   4.613  14.029
36211SOL    HW110472   7.050   4.686  14.056
36211SOL    HW210473   7.107   4.617  13.934
36212SOL     OW10474  11.607  12.271   6.615
36212SOL    HW110475  11.554  12.256   6.537
36212SOL    HW210476  11.688  12.310   6.583
36213SOL     OW10477   1.645   5.301   2.016
36213SOL    HW110478   1.628   5.279   2.107
36213SOL    HW210479   1.568   5.271   1.969
36214SOL     OW10480   2.263   2.277   3.677
36214SOL    HW110481   2.339   2.308   3.726
36214SOL    HW210482   2.255   2.184   3.701
36215SOL     OW10483   0.360   8.382  10.678
36215SOL    HW110484   0.307   8.453  10.714
36215SOL    HW210485   0.431   8.370  10.742
36216SOL     OW10486  11.138  11.999  10.774
36216SOL    HW110487  11.130  11.941  10.698
36216SOL    HW210488  11.074  12.069  10.758
36217SOL     OW10489   4.938  13.681   4.834
36217SOL    HW110490   4.971  13.640   4.754
36217SOL    HW210491   4.872  13.743   4.804
36218SOL     OW10492   1.704   4.389   8.280
36218SOL    HW110493   1.767   4.436   8.334
36218SOL    HW210494   1.704   4.435   8.196
36219SOL     OW10495   9.844  10.847  11.829
36219SOL    HW110496   9.847  10.753  11.844
36219SOL    HW210497   9.894  10.885  11.901
36220SOL     OW10498   3.470  13.565   9.095
36220SOL    HW110499   3.517  13.514   9.029
36220SOL    HW210500   3.445  13.646   9.049
36221SOL     OW10501   0.686   9.259  13.963
36221SOL    HW110502   0.691   9.175  14.009
36221SOL    HW210503   0.722   9.241  13.877
36222SOL     OW10504   0.962   9.516  11.446
36222SOL    HW110505   0.952   9.430  11.487
36222SOL    HW210506   0.888   9.521  11.385
36223SOL     OW10507  11.521   9.239   4.014
36223SOL    HW110508  11.606   9.198   4.032
36223SOL    HW210509  11.457   9.173   4.041
36224SOL     OW10510  10.902   4.154   6.709
36224SOL    HW110511  10.884   4.066   6.675
36224SOL    HW210512  10.898   4.144   6.804
36225SOL     OW10513   2.087   0.403  14.556
36225SOL    HW110514   2.025   0.431  14.488
36225SOL    HW210515   2.158   0.361  14.507
36226SOL     OW10516   5.357   5.584  14.099
36226SOL    HW110517   5.443   5.578  14.140
36226SOL    HW210518   5.356   5.514  14.034
36227SOL     OW10519   6.208   3.979  10.240
36227SOL    HW110520   6.160   3.897  10.225
36227SOL    HW210521   6.291   3.951  10.280
36228SOL     OW10522  14.390   4.907   3.309
36228SOL    HW110523  14.333   4.939   3.380
36228SOL    HW210524  14.343   4.832   3.273
36229SOL     OW10525   3.615  14.429   5.486
36229SOL    HW110526   3.623  14.390   5.573
36229SOL    HW210527   3.652  14.364   5.426
36230SOL     OW10528  12.370  12.861   0.480
36230SOL    HW110529  12.402  12.806   0.552
36230SOL    HW210530  12.350  12.945   0.522
36231SOL     OW10531   2.633   3.298   7.980
36231SOL    HW110532   2.625   3.221   8.036
36231SOL    HW210533   2.543   3.328   7.969
36232SOL     OW10534   5.350   3.294   9.533
36232SOL    HW110535   5.443   3.283   9.554
36232SOL    HW210536   5.327   3.215   9.484
36233SOL     OW10537   6.654  13.425   6.089
36233SOL    HW110538   6.732  13.426   6.033
36233SOL    HW210539   6.596  13.361   6.048
36234SOL     OW10540   4.377  13.501  14.627
36234SOL    HW110541   4.470  13.510  14.606
36234SOL    HW210542   4.336  13.474  14.544
36235SOL     OW10543   2.692   3.843  13.869
36235SOL    HW110544   2.717   3.854  13.961
36235SOL    HW210545   2.766   3.878  13.819
36236SOL     OW10546   5.195   8.874  10.411
36236SOL    HW110547   5.102   8.863  10.434
36236SOL    HW210548   5.241   8.870  10.495
36237SOL     OW10549   2.442  12.514   1.351
36237SOL    HW110550   2.444  12.537   1.258
36237SOL    HW210551   2.534  12.500   1.374
36238SOL     OW10552   7.841  13.454  10.672
36238SOL    HW110553   7.771  13.477  10.734
36238SOL    HW210554   7.797  13.453  10.587
36239SOL     OW10555   5.648   5.305   6.522
36239SOL    HW110556   5.687   5.320   6.436
36239SOL    HW210557   5.559   5.340   6.514
36240SOL     OW10558  12.261   8.224   7.571
36240SOL    HW110559  12.349   8.197   7.545
36240SOL    HW210560  12.214   8.142   7.585
36241SOL     OW10561   9.963   4.605   8.478
36241SOL    HW110562   9.918   4.570   8.401
36241SOL    HW210563  10.007   4.529   8.516
36242SOL     OW10564   3.018   2.264   0.063
36242SOL    HW110565   3.071   2.196   0.021
36242SOL    HW210566   3.069   2.290   0.140
36243SOL     OW10567   5.566   7.296  10.388
36243SOL    HW110568   5.660   7.285  10.374
36243SOL    HW210569   5.551   7.269  10.478
36244SOL     OW10570   5.591   3.744   4.275
36244SOL    HW110571   5.555   3.660   4.303
36244SOL    HW210572   5.564   3.806   4.342
36245SOL     OW10573   9.050  13.570   9.427
36245SOL    HW110574   9.143  13.593   9.419
36245SOL    HW210575   9.017  13.630   9.494
36246SOL     OW10576   3.521   8.517  11.463
36246SOL    HW110577   3.524   8.520  11.558
36246SOL    HW210578   3.486   8.430  11.442
36247SOL     OW10579   4.336   4.122  13.980
36247SOL    HW110580   4.290   4.090  14.058
36247SOL    HW210581   4.350   4.044  13.926
36248SOL     OW10582   6.657   5.305   3.155
36248SOL    HW110583   6.646   5.217   3.190
36248SOL    HW210584   6.680   5.359   3.231
36249SOL     OW10585  10.963   6.833   0.333
36249SOL    HW110586  10.980   6.828   0.240
36249SOL    HW210587  10.908   6.757   0.352
36250SOL     OW10588   9.134   2.756  14.403
36250SOL    HW110589   9.167   2.800  14.482
36250SOL    HW210590   9.149   2.819  14.332
36251SOL     OW10591  11.941   0.440  14.207
36251SOL    HW110592  11.961   0.512  14.267
36251SOL    HW210593  12.000   0.369  14.233
36252SOL     OW10594   7.380   1.207   6.385
36252SOL    HW110595   7.314   1.225   6.318
36252SOL    HW210596   7.351   1.126   6.427
36253SOL     OW10597   6.866   6.426   7.470
36253SOL    HW110598   6.955   6.421   7.504
36253SOL    HW210599   6.876   6.450   7.378
36254SOL     OW10600   0.843   6.711   8.825
36254SOL    HW110601   0.755   6.736   8.798
36254SOL    HW210602   0.895   6.791   8.820
36255SOL     OW10603   3.519   2.988   6.037
36255SOL    HW110604   3.440   2.935   6.028
36255SOL    HW210605   3.585   2.927   6.069
36256SOL     OW10606   0.207   1.171   1.311
36256SOL    HW110607   0.288   1.212   1.341
36256SOL    HW210608   0.186   1.106   1.379
36257SOL     OW10609   7.991   4.109   2.568
36257SOL    HW110610   8.075   4.154   2.563
36257SOL    HW210611   7.954   4.136   2.652
36258SOL     OW10612  11.047   2.040   2.579
36258SOL    HW110613  11.010   2.121   2.617
36258SOL    HW210614  11.066   1.985   2.655
36259SOL     OW10615  13.272  13.645   9.987
36259SOL    HW110616  13.309  13.560   9.966
36259SOL    HW210617  13.236  13.677   9.905
36260SOL     OW10618   7.874   1.544  12.844
36260SOL    HW110619   7.866   1.561  12.938
36260SOL    HW210620   7.883   1.449  12.837
36261SOL     OW10621   6.998   0.534  11.260
36261SOL    HW110622   7.069   0.475  11.235
36261SOL    HW210623   6.921   0.499  11.216
36262SOL     OW10624   0.157   6.303  10.559
36262SOL    HW110625   0.128   6.394  10.552
36262SOL    HW210626   0.178   6.292  10.652
36263SOL     OW10627   8.649  14.386   0.635
36263SOL    HW110628   8.621  14.456   0.694
36263SOL    HW210629   8.649  14.427   0.548
36264SOL     OW10630  12.397   0.226   3.465
36264SOL    HW110631  12.354   0.224   3.550
36264SOL    HW210632  12.348   0.164   3.411
36265SOL     OW10633   2.230  12.178  13.207
36265SOL    HW110634   2.312  12.169  13.158
36265SOL    HW210635   2.206  12.270  13.198
36266SOL     OW10636  13.747  12.213  10.575
36266SOL    HW110637  13.813  12.158  10.532
36266SOL    HW210638  13.798  12.285  10.613
36267SOL     OW10639   2.049  14.413   2.334
36267SOL    HW110640   2.079  14.332   2.373
36267SOL    HW210641   1.992  14.453   2.400
36268SOL     OW10642  11.828   1.752  14.076
36268SOL    HW110643  11.794   1.841  14.075
36268SOL    HW210644  11.796   1.715  14.159
36269SOL     OW10645   7.921  11.176   2.913
36269SOL    HW110646   7.882  11.089   2.917
36269SOL    HW210647   8.006  11.166   2.956
36270SOL     OW10648   3.901   7.989  11.448
36270SOL    HW110649   3.915   7.896  11.467
36270SOL    HW210650   3.986   8.030  11.464
36271SOL     OW10651  10.705  11.571   5.670
36271SOL    HW110652  10.709  11.527   5.586
36271SOL    HW210653  10.630  11.532   5.715
36272SOL     OW10654   7.546  12.894   3.102
36272SOL    HW110655   7.626  12.878   3.052
36272SOL    HW210656   7.507  12.807   3.115
36273SOL     OW10657   2.599   6.945   6.520
36273SOL    HW110658   2.680   6.903   6.550
36273SOL    HW210659   2.621   6.981   6.435
36274SOL     OW10660   3.031   1.885   6.446
36274SOL    HW110661   2.967   1.874   6.376
36274SOL    HW210662   3.082   1.962   6.421
36275SOL     OW10663  14.376   1.125   2.282
36275SOL    HW110664  14.423   1.173   2.350
36275SOL    HW210665  14.286   1.159   2.286
36276SOL     OW10666   3.074   4.946   3.613
36276SOL    HW110667   3.138   4.914   3.549
36276SOL    HW210668   3.035   5.022   3.572
36277SOL     OW10669  10.347   7.955  10.867
36277SOL    HW110670  10.389   7.990  10.789
36277SOL    HW210671  10.302   8.030  10.906
36278SOL     OW10672  13.079   0.852   4.777
36278SOL    HW110673  13.169   0.824   4.765
36278SOL    HW210674  13.081   0.904   4.858
36279SOL     OW10675  11.570   2.008  14.596
36279SOL    HW110676  11.534   2.097  14.595
36279SOL    HW210677  11.543   1.970  14.513
36280SOL     OW10678   9.943   7.079  12.213
36280SOL    HW110679   9.940   7.127  12.130
36280SOL    HW210680  10.016   7.118  12.261
36281SOL     OW10681   6.275  13.027   4.167
36281SOL    HW110682   6.340  12.962   4.140
36281SOL    HW210683   6.199  13.010   4.111
36282SOL     OW10684  13.284  10.823   5.356
36282SOL    HW110685  13.280  10.742   5.407
36282SOL    HW210686  13.376  10.828   5.328
36283SOL     OW10687   1.866  14.158   9.421
36283SOL    HW110688   1.946  14.208   9.434
36283SOL    HW210689   1.831  14.190   9.338
36284SOL     OW10690  14.737   3.218   2.336
36284SOL    HW110691  14.826   3.213   2.301
36284SOL    HW210692  14.708   3.127   2.338
36285SOL     OW10693  12.088   4.561   3.391
36285SOL    HW110694  12.149   4.514   3.334
36285SOL    HW210695  12.003   4.521   3.373
36286SOL     OW10696   9.353   7.148  10.202
36286SOL    HW110697   9.287   7.217  10.200
36286SOL    HW210698   9.312   7.072  10.161
36287SOL     OW10699  14.711   7.944   9.260
36287SOL    HW110700  14.793   7.972   9.301
36287SOL    HW210701  14.681   8.021   9.212
36288SOL     OW10702  14.349   5.450  12.080
36288SOL    HW110703  14.351   5.544  12.101
36288SOL    HW210704  14.394   5.408  12.153
36289SOL     OW10705   7.255   7.550   2.009
36289SOL    HW110706   7.319   7.533   1.939
36289SOL    HW210707   7.276   7.639   2.038
36290SOL     OW10708   9.906  12.252   1.982
36290SOL    HW110709   9.999  12.245   2.001
36290SOL    HW210710   9.895  12.338   1.943
36291SOL     OW10711  14.531   6.212  11.713
36291SOL    HW110712  14.515   6.218  11.619
36291SOL    HW210713  14.468   6.147  11.744
36292SOL     OW10714   3.292   2.309   6.413
36292SOL    HW110715   3.222   2.369   6.386
36292SOL    HW210716   3.370   2.364   6.418
36293SOL     OW10717  13.760  13.569   2.052
36293SOL    HW110718  13.801  13.574   1.966
36293SOL    HW210719  13.805  13.498   2.097
36294SOL     OW10720   4.192   7.958   3.262
36294SOL    HW110721   4.198   7.915   3.347
36294SOL    HW210722   4.143   8.038   3.279
36295SOL     OW10723   8.697  11.452   9.210
36295SOL    HW110724   8.759  11.451   9.137
36295SOL    HW210725   8.683  11.545   9.228
36296SOL     OW10726  13.826   5.374   9.389
36296SOL    HW110727  13.880   5.424   9.328
36296SOL    HW210728  13.841   5.416   9.474
36297SOL     OW10729  14.059   0.089   3.529
36297SOL    HW110730  14.081   0.028   3.459
36297SOL    HW210731  14.081   0.043   3.609
36298SOL     OW10732  12.745   9.389  13.253
36298SOL    HW110733  12.803   9.462  13.228
36298SOL    HW210734  12.685   9.428  13.316
36299SOL     OW10735  13.584   5.649   6.784
36299SOL    HW110736  13.648   5.582   6.760
36299SOL    HW210737  13.587   5.713   6.713
36300SOL     OW10738   0.392  10.323   1.881
36300SOL    HW110739   0.387  10.241   1.833
36300SOL    HW210740   0.438  10.301   1.962
36301SOL     OW10741  10.943   1.360   5.640
36301SOL    HW110742  10.852   1.329   5.639
36301SOL    HW210743  10.995   1.281   5.652
36302SOL     OW10744   5.809  12.157  13.204
36302SOL    HW110745   5.725  12.149  13.250
36302SOL    HW210746   5.845  12.068  13.206
36303SOL     OW10747  11.338   8.372   7.649
36303SOL    HW110748  11.305   8.371   7.559
36303SOL    HW210749  11.326   8.462   7.678
36304SOL     OW10750   0.842   2.628   8.280
36304SOL    HW110751   0.877   2.620   8.368
36304SOL    HW210752   0.769   2.566   8.277
36305SOL     OW10753   0.427   0.645   9.333
36305SOL    HW110754   0.351   0.603   9.373
36305SOL    HW210755   0.404   0.738   9.331
36306SOL     OW10756   4.880   0.345   5.782
36306SOL    HW110757   4.958   0.335   5.728
36306SOL    HW210758   4.840   0.426   5.752
36307SOL     OW10759   0.707   7.571  10.122
36307SOL    HW110760   0.623   7.616  10.130
36307SOL    HW210761   0.694   7.509  10.050
36308SOL     OW10762   2.845   3.025   8.245
36308SOL    HW110763   2.852   3.113   8.283
36308SOL    HW210764   2.762   3.026   8.196
36309SOL     OW10765  10.503   8.678  14.790
36309SOL    HW110766  10.556   8.729  14.850
36309SOL    HW210767  10.546   8.688  14.705
36310SOL     OW10768   7.788  10.454  13.261
36310SOL    HW110769   7.697  10.425  13.251
36310SOL    HW210770   7.800  10.465  13.355
36311SOL     OW10771  10.160  12.904  11.109
36311SOL    HW110772  10.183  12.971  11.173
36311SOL    HW210773  10.206  12.825  11.139
36312SOL     OW10774   5.916   2.730   8.394
36312SOL    HW110775   5.885   2.809   8.438
36312SOL    HW210776   6.010   2.745   8.381
36313SOL     OW10777  10.393  14.443   3.669
36313SOL    HW110778  10.445  14.385   3.614
36313SOL    HW210779  10.317  14.391   3.695
36314SOL     OW10780  14.455  10.218   0.056
36314SOL    HW110781  14.488  10.302   0.090
36314SOL    HW210782  14.372  10.240   0.015
36315SOL     OW10783   5.901   8.194   7.099
36315SOL    HW110784   5.956   8.273   7.094
36315SOL    HW210785   5.873   8.179   7.009
36316SOL     OW10786   5.216   5.198   1.439
36316SOL    HW110787   5.200   5.291   1.451
36316SOL    HW210788   5.212   5.185   1.345
36317SOL     OW10789  12.781   0.519   6.443
36317SOL    HW110790  12.859   0.536   6.390
36317SOL    HW210791  12.708   0.543   6.387
36318SOL     OW10792   1.626   6.122   5.709
36318SOL    HW110793   1.591   6.094   5.793
36318SOL    HW210794   1.577   6.202   5.688
36319SOL     OW10795   7.621   5.825  11.849
36319SOL    HW110796   7.706   5.794  11.819
36319SOL    HW210797   7.600   5.771  11.925
36320SOL     OW10798  14.590  10.900   3.913
36320SOL    HW110799  14.590  10.995   3.920
36320SOL    HW210800  14.544  10.870   3.992
36321SOL     OW10801   1.817  14.784   0.579
36321SOL    HW110802   1.810  14.724   0.654
36321SOL    HW210803   1.752  14.852   0.597
36322SOL     OW10804   5.868  10.967  11.761
36322SOL    HW110805   5.874  11.056  11.727
36322SOL    HW210806   5.775  10.947  11.761
36323SOL     OW10807   7.400  13.107   0.404
36323SOL    HW110808   7.457  13.078   0.334
36323SOL    HW210809   7.400  13.035   0.467
36324SOL     OW10810   9.846   0.844   6.396
36324SOL    HW110811   9.891   0.898   6.330
36324SOL    HW210812   9.753   0.855   6.376
36325SOL     OW10813  11.163  13.592  11.447
36325SOL    HW110814  11.227  13.664  11.447
36325SOL    HW210815  11.078  13.636  11.453
36326SOL     OW10816  10.386   4.849   1.725
36326SOL    HW110817  10.445   4.783   1.762
36326SOL    HW210818  10.411   4.856   1.633
36327SOL     OW10819  13.292   0.672  12.828
36327SOL    HW110820  13.204   0.709  12.826
36327SOL    HW210821  13.279   0.578  12.821
36328SOL     OW10822  12.154   5.471  11.709
36328SOL    HW110823  12.079   5.455  11.766
36328SOL    HW210824  12.129   5.548  11.658
36329SOL     OW10825  11.399   9.968   9.872
36329SOL    HW110826  11.363   9.927   9.794
36329SOL    HW210827  11.373   9.911   9.944
36330SOL     OW10828   4.346  13.530   3.939
36330SOL    HW110829   4.304  13.456   3.983
36330SOL    HW210830   4.273  13.585   3.910
36331SOL     OW10831   5.928   2.289  11.677
36331SOL    HW110832   5.869   2.230  11.725
36331SOL    HW210833   5.897   2.285  11.587
36332SOL     OW10834   2.345  14.160   7.505
36332SOL    HW110835   2.293  14.081   7.520
36332SOL    HW210836   2.421  14.130   7.455
36333SOL     OW10837   6.333  13.313   1.874
36333SOL    HW110838   6.314  13.351   1.788
36333SOL    HW210839   6.378  13.231   1.854
36334SOL     OW10840   3.509   3.094  11.945
36334SOL    HW110841   3.569   3.055  12.008
36334SOL    HW210842   3.526   3.046  11.864
36335SOL     OW10843   2.781   7.551  14.752
36335SOL    HW110844   2.759   7.459  14.740
36335SOL    HW210845   2.867   7.560  14.710
36336SOL     OW10846   7.250   4.874   7.152
36336SOL    HW110847   7.185   4.943   7.141
36336SOL    HW210848   7.268   4.872   7.246
36337SOL     OW10849   3.742   6.886   1.327
36337SOL    HW110850   3.783   6.915   1.409
36337SOL    HW210851   3.800   6.920   1.259
36338SOL     OW10852   4.012  14.721  14.760
36338SOL    HW110853   4.018  14.810  14.726
36338SOL    HW210854   4.094  14.707  14.807
36339SOL     OW10855   6.483   4.656   7.437
36339SOL    HW110856   6.430   4.731   7.464
36339SOL    HW210857   6.422   4.583   7.437
36340SOL     OW10858   8.390  11.374   2.159
36340SOL    HW110859   8.459  11.416   2.107
36340SOL    HW210860   8.436  11.334   2.233
36341SOL     OW10861   7.819   9.846   4.395
36341SOL    HW110862   7.757   9.797   4.341
36341SOL    HW210863   7.849   9.783   4.461
36342SOL     OW10864  10.652  10.461  12.456
36342SOL    HW110865  10.632  10.548  12.421
36342SOL    HW210866  10.676  10.477  12.547
36343SOL     OW10867   7.985  12.821   7.890
36343SOL    HW110868   8.011  12.801   7.800
36343SOL    HW210869   7.891  12.804   7.893
36344SOL     OW10870  12.268   6.623   1.672
36344SOL    HW110871  12.228   6.691   1.617
36344SOL    HW210872  12.202   6.605   1.740
36345SOL     OW10873   1.721  14.215   0.091
36345SOL    HW110874   1.729  14.236   0.184
36345SOL    HW210875   1.783  14.143   0.077
36346SOL     OW10876  12.337   9.590  11.437
36346SOL    HW110877  12.345   9.668  11.382
36346SOL    HW210878  12.378   9.614  11.519
36347SOL     OW10879   5.889   3.753  13.102
36347SOL    HW110880   5.851   3.828  13.057
36347SOL    HW210881   5.976   3.743  13.064
36348SOL     OW10882   5.339  11.418   3.786
36348SOL    HW110883   5.285  11.470   3.728
36348SOL    HW210884   5.356  11.475   3.861
36349SOL     OW10885   7.425   1.925   7.839
36349SOL    HW110886   7.509   1.937   7.882
36349SOL    HW210887   7.436   1.846   7.786
36350SOL     OW10888   3.958  14.052  13.605
36350SOL    HW110889   4.011  14.065  13.526
36350SOL    HW210890   3.928  14.140  13.628
36351SOL     OW10891   3.609   1.942   1.827
36351SOL    HW110892   3.558   1.871   1.866
36351SOL    HW210893   3.648   1.987   1.902
36352SOL     OW10894   9.805   1.327   0.259
36352SOL    HW110895   9.891   1.285   0.249
36352SOL    HW210896   9.777   1.344   0.169
36353SOL     OW10897   6.116   0.995  12.149
36353SOL    HW110898   6.121   0.966  12.058
36353SOL    HW210899   6.031   1.036  12.157
36354SOL     OW10900  14.867   4.915  14.482
36354SOL    HW110901  14.777   4.903  14.452
36354SOL    HW210902  14.858   4.956  14.568
36355SOL     OW10903  13.238  10.491   1.642
36355SOL    HW110904  13.182  10.418   1.671
36355SOL    HW210905  13.265  10.532   1.724
36356SOL     OW10906  14.716   9.846   3.103
36356SOL    HW110907  14.633   9.894   3.105
36356SOL    HW210908  14.753   9.858   3.190
36357SOL     OW10909  12.671   5.314   7.218
36357SOL    HW110910  12.581   5.332   7.189
36357SOL    HW210911  12.659   5.267   7.301
36358SOL     OW10912   4.770  10.408   9.091
36358SOL    HW110913   4.715  10.395   9.014
36358SOL    HW210914   4.858  10.381   9.062
36359SOL     OW10915  10.881  14.388   0.148
36359SOL    HW110916  10.910  14.313   0.199
36359SOL    HW210917  10.924  14.463   0.189
36360SOL     OW10918   6.789  11.895  10.941
36360SOL    HW110919   6.801  11.802  10.961
36360SOL    HW210920   6.783  11.938  11.026
36361SOL     OW10921  12.873   5.200  14.850
36361SOL    HW110922  12.825   5.144   0.033
36361SOL    HW210923  12.856   5.161  14.765
36362SOL     OW10924   8.580   6.053   2.728
36362SOL    HW110925   8.589   6.148   2.738
36362SOL    HW210926   8.556   6.041   2.636
36363SOL     OW10927   5.588  12.648   4.781
36363SOL    HW110928   5.614  12.676   4.869
36363SOL    HW210929   5.562  12.556   4.792
36364SOL     OW10930   8.069   0.720   2.603
36364SOL    HW110931   8.070   0.779   2.528
36364SOL    HW210932   8.086   0.776   2.678
36365SOL     OW10933   1.229  13.221  12.250
36365SOL    HW110934   1.186  13.175  12.178
36365SOL    HW210935   1.183  13.304  12.257
36366SOL     OW10936  10.918   2.318   1.348
36366SOL    HW110937  10.942   2.324   1.255
36366SOL    HW210938  10.945   2.401   1.386
36367SOL     OW10939   7.161  13.693   4.670
36367SOL    HW110940   7.229  13.718   4.732
36367SOL    HW210941   7.180  13.602   4.649
36368SOL     OW10942   6.876   4.043   1.415
36368SOL    HW110943   6.917   4.125   1.442
36368SOL    HW210944   6.940   3.975   1.438
36369SOL     OW10945   4.861  11.526   9.225
36369SOL    HW110946   4.776  11.558   9.256
36369SOL    HW210947   4.887  11.460   9.289
36370SOL     OW10948   1.746  10.954  13.525
36370SOL    HW110949   1.702  11.007  13.459
36370SOL    HW210950   1.704  10.868  13.520
36371SOL     OW10951  11.638   5.446   2.503
36371SOL    HW110952  11.570   5.433   2.569
36371SOL    HW210953  11.715   5.403   2.540
36372SOL     OW10954  13.987  11.459  12.939
36372SOL    HW110955  14.079  11.452  12.966
36372SOL    HW210956  13.982  11.410  12.858
36373SOL     OW10957  11.879   8.797  10.273
36373SOL    HW110958  11.940   8.727  10.293
36373SOL    HW210959  11.869   8.795  10.178
36374SOL     OW10960   5.043   4.949  10.425
36374SOL    HW110961   5.015   5.011  10.357
36374SOL    HW210962   4.985   4.966  10.499
36375SOL     OW10963   0.036  13.979   0.450
36375SOL    HW110964   0.069  13.890   0.461
36375SOL    HW210965   0.105  14.035   0.486
36376SOL     OW10966  10.584   4.424   6.008
36376SOL    HW110967  10.503   4.475   6.012
36376SOL    HW210968  10.557   4.335   6.029
36377SOL     OW10969   8.139   5.676  12.021
36377SOL    HW110970   8.110   5.616  12.091
36377SOL    HW210971   8.206   5.627  11.974
36378SOL     OW10972   8.864   5.878   3.230
36378SOL    HW110973   8.950   5.852   3.264
36378SOL    HW210974   8.811   5.799   3.237
36379SOL     OW10975  12.143   9.557   6.925
36379SOL    HW110976  12.217   9.598   6.880
36379SOL    HW210977  12.133   9.608   7.005
36380SOL     OW10978   8.737  10.406   6.004
36380SOL    HW110979   8.684  10.429   6.081
36380SOL    HW210980   8.816  10.366   6.041
36381SOL     OW10981  10.684  12.634   8.580
36381SOL    HW110982  10.628  12.710   8.566
36381SOL    HW210983  10.629  12.559   8.557
36382SOL     OW10984  11.818   8.131   4.614
36382SOL    HW110985  11.742   8.188   4.606
36382SOL    HW210986  11.834   8.099   4.525
36383SOL     OW10987   8.240   9.157  11.962
36383SOL    HW110988   8.211   9.248  11.960
36383SOL    HW210989   8.331   9.160  11.931
36384SOL     OW10990  10.078  10.433   0.389
36384SOL    HW110991  10.096  10.432   0.483
36384SOL    HW210992  10.157  10.469   0.349
36385SOL     OW10993   1.762   2.310   3.430
36385SOL    HW110994   1.816   2.231   3.435
36385SOL    HW210995   1.826   2.381   3.425
36386SOL     OW10996   4.363   3.742  14.128
36386SOL    HW110997   4.396   3.681  14.193
36386SOL    HW210998   4.277   3.707  14.103
36387SOL     OW10999   0.543   8.506   9.588
36387SOL    HW111000   0.479   8.556   9.639
36387SOL    HW211001   0.611   8.482   9.651
36388SOL     OW11002   1.237   6.036   1.349
36388SOL    HW111003   1.323   6.032   1.306
36388SOL    HW211004   1.208   5.945   1.352
36389SOL     OW11005   0.792  11.058   5.422
36389SOL    HW111006   0.756  11.059   5.510
36389SOL    HW211007   0.884  11.085   5.432
36390SOL     OW11008  14.655  13.351  10.191
36390SOL    HW111009  14.615  13.266  10.209
36390SOL    HW211010  14.689  13.380  10.276
36391SOL     OW11011   5.627  12.461   9.275
36391SOL    HW111012   5.704  12.412   9.248
36391SOL    HW211013   5.588  12.408   9.344
36392SOL     OW11014   0.307  12.854  12.336
36392SOL    HW111015   0.354  12.775  12.363
36392SOL    HW211016   0.372  12.924  12.340
36393SOL     OW11017   9.521  12.193   4.933
36393SOL    HW111018   9.443  12.225   4.977
36393SOL    HW211019   9.566  12.272   4.903
36394SOL     OW11020   7.788   0.014  10.461
36394SOL    HW111021   7.740  14.825  10.507
36394SOL    HW211022   7.825  14.849  10.385
36395SOL     OW11023   3.870   2.066   2.480
36395SOL    HW111024   3.939   2.132   2.471
36395SOL    HW211025   3.916   1.984   2.496
36396SOL     OW11026   4.427   8.078   3.648
36396SOL    HW111027   4.465   7.990   3.649
36396SOL    HW211028   4.409   8.096   3.556
36397SOL     OW11029   5.945   3.978   4.580
36397SOL    HW111030   5.882   3.931   4.634
36397SOL    HW211031   5.945   4.067   4.616
36398SOL     OW11032   7.817   8.872  11.693
36398SOL    HW111033   7.882   8.911  11.753
36398SOL    HW211034   7.743   8.933  11.695
36399SOL     OW11035   8.170   3.328   9.245
36399SOL    HW111036   8.145   3.306   9.335
36399SOL    HW211037   8.145   3.420   9.235
36400SOL     OW11038  10.735   3.030  11.426
36400SOL    HW111039  10.675   3.096  11.459
36400SOL    HW211040  10.704   3.010  11.338
36401SOL     OW11041   9.622   4.970   6.872
36401SOL    HW111042   9.614   5.033   6.801
36401SOL    HW211043   9.716   4.967   6.890
36402SOL     OW11044  12.762   8.918   3.297
36402SOL    HW111045  12.723   8.933   3.383
36402SOL    HW211046  12.789   9.004   3.267
36403SOL     OW11047   4.453   3.227  11.294
36403SOL    HW111048   4.387   3.266  11.351
36403SOL    HW211049   4.442   3.273  11.210
36404SOL     OW11050   9.688   6.550  14.583
36404SOL    HW111051   9.749   6.618  14.613
36404SOL    HW211052   9.717   6.470  14.626
36405SOL     OW11053   3.087  11.167  10.985
36405SOL    HW111054   3.160  11.107  10.996
36405SOL    HW211055   3.095  11.227  11.060
36406SOL     OW11056   0.824   5.227  11.256
36406SOL    HW111057   0.865   5.144  11.232
36406SOL    HW211058   0.747   5.201  11.307
36407SOL     OW11059   0.167   3.443  12.655
36407SOL    HW111060   0.150   3.450  12.561
36407SOL    HW211061   0.211   3.359  12.665
36408SOL     OW11062   2.718  10.792  11.272
36408SOL    HW111063   2.661  10.860  11.236
36408SOL    HW211064   2.762  10.834  11.346
36409SOL     OW11065   0.388  11.388  13.199
36409SOL    HW111066   0.359  11.317  13.142
36409SOL    HW211067   0.333  11.382  13.277
36410SOL     OW11068   0.625  10.914   3.136
36410SOL    HW111069   0.536  10.926   3.106
36410SOL    HW211070   0.627  10.825   3.171
36411SOL     OW11071  11.386   7.018   6.808
36411SOL    HW111072  11.321   7.010   6.877
36411SOL    HW211073  11.354   7.088   6.752
36412SOL     OW11074   9.393   4.010   5.167
36412SOL    HW111075   9.454   3.970   5.229
36412SOL    HW211076   9.440   4.011   5.084
36413SOL     OW11077   5.680  12.263   7.850
36413SOL    HW111078   5.705  12.354   7.867
36413SOL    HW211079   5.751  12.211   7.887
36414SOL     OW11080   0.772   2.293   9.433
36414SOL    HW111081   0.684   2.271   9.405
36414SOL    HW211082   0.770   2.285   9.528
36415SOL     OW11083  12.534   4.310   0.503
36415SOL    HW111084  12.482   4.338   0.428
36415SOL    HW211085  12.559   4.392   0.546
36416SOL     OW11086   7.661   6.770   4.341
36416SOL    HW111087   7.579   6.743   4.300
36416SOL    HW211088   7.654   6.865   4.349
36417SOL     OW11089  14.391   2.307   8.363
36417SOL    HW111090  14.385   2.398   8.392
36417SOL    HW211091  14.411   2.257   8.443
36418SOL     OW11092  10.576   7.346   9.964
36418SOL    HW111093  10.644   7.414   9.969
36418SOL    HW211094  10.615   7.270  10.007
36419SOL     OW11095   9.240   3.270   1.936
36419SOL    HW111096   9.235   3.362   1.961
36419SOL    HW211097   9.295   3.269   1.858
36420SOL     OW11098   2.172   8.469  12.215
36420SOL    HW111099   2.221   8.437  12.290
36420SOL    HW211100   2.135   8.552  12.244
36421SOL     OW11101  14.837   0.291   9.609
36421SOL    HW111102  14.760   0.320   9.560
36421SOL    HW211103   0.024   0.358   9.590
36422SOL     OW11104   8.156   4.844   9.795
36422SOL    HW111105   8.070   4.868   9.829
36422SOL    HW211106   8.177   4.762   9.840
36423SOL     OW11107   1.462   0.593   7.371
36423SOL    HW111108   1.375   0.633   7.371
36423SOL    HW211109   1.494   0.607   7.282
36424SOL     OW11110   3.797   1.762   7.778
36424SOL    HW111111   3.759   1.675   7.792
36424SOL    HW211112   3.721   1.819   7.765
36425SOL     OW11113  14.589  11.681   2.715
36425SOL    HW111114  14.536  11.624   2.771
36425SOL    HW211115  14.609  11.627   2.638
36426SOL     OW11116   7.900  11.424   5.431
36426SOL    HW111117   7.859  11.363   5.493
36426SOL    HW211118   7.866  11.510   5.457
36427SOL     OW11119   0.326   6.049   1.516
36427SOL    HW111120   0.398   5.992   1.489
36427SOL    HW211121   0.287   6.078   1.434
36428SOL     OW11122   2.791   1.105   5.911
36428SOL    HW111123   2.774   1.198   5.902
36428SOL    HW211124   2.886   1.098   5.908
36429SOL     OW11125   1.870   5.028  10.896
36429SOL    HW111126   1.914   5.084  10.960
36429SOL    HW211127   1.928   4.953  10.886
36430SOL     OW11128   4.074   0.733   7.358
36430SOL    HW111129   3.992   0.780   7.344
36430SOL    HW211130   4.054   0.673   7.430
36431SOL     OW11131   4.101   3.323   3.356
36431SOL    HW111132   4.016   3.342   3.316
36431SOL    HW211133   4.153   3.402   3.341
36432SOL     OW11134   3.558   7.118  13.324
36432SOL    HW111135   3.544   7.192  13.384
36432SOL    HW211136   3.653   7.118  13.309
36433SOL     OW11137   9.082   1.155   1.027
36433SOL    HW111138   9.120   1.070   1.052
36433SOL    HW211139   9.118   1.217   1.090
36434SOL     OW11140   8.174   8.291   7.415
36434SOL    HW111141   8.207   8.223   7.473
36434SOL    HW211142   8.224   8.280   7.334
36435SOL     OW11143   3.175   5.440   4.840
36435SOL    HW111144   3.261   5.427   4.800
36435SOL    HW211145   3.190   5.426   4.934
36436SOL     OW11146  14.615  13.544   3.231
36436SOL    HW111147  14.527  13.520   3.200
36436SOL    HW211148  14.625  13.495   3.312
36437SOL     OW11149   7.652   8.183  11.672
36437SOL    HW111150   7.573   8.232  11.697
36437SOL    HW211151   7.722   8.222  11.723
36438SOL     OW11152   6.715  12.166   7.009
36438SOL    HW111153   6.654  12.224   7.054
36438SOL    HW211154   6.718  12.088   7.064
36439SOL     OW11155  14.872  10.595  12.489
36439SOL    HW111156   0.068  10.549  12.452
36439SOL    HW211157  14.835  10.643  12.415
36440SOL     OW11158   9.954   3.078   9.561
36440SOL    HW111159   9.991   3.085   9.473
36440SOL    HW211160  10.028   3.055   9.617
36441SOL     OW11161  11.156   4.090   5.851
36441SOL    HW111162  11.123   4.000   5.852
36441SOL    HW211163  11.242   4.084   5.811
36442SOL     OW11164  14.710   5.384  10.953
36442SOL    HW111165  14.744   5.438  10.881
36442SOL    HW211166  14.679   5.304  10.910
36443SOL     OW11167  14.448   1.251   6.490
36443SOL    HW111168  14.507   1.297   6.431
36443SOL    HW211169  14.392   1.199   6.432
36444SOL     OW11170  10.886   7.472  11.095
36444SOL    HW111171  10.906   7.436  11.009
36444SOL    HW211172  10.970   7.476  11.140
36445SOL     OW11173  14.692   5.985   7.011
36445SOL    HW111174  14.735   5.909   6.972
36445SOL    HW211175  14.667   6.039   6.936
36446SOL     OW11176   2.539  12.640  10.885
36446SOL    HW111177   2.443  12.633  10.888
36446SOL    HW211178   2.556  12.733  10.902
36447SOL     OW11179   3.361   7.529   5.365
36447SOL    HW111180   3.369   7.467   5.437
36447SOL    HW211181   3.415   7.604   5.391
36448SOL     OW11182   2.746  13.480  11.673
36448SOL    HW111183   2.782  13.394  11.695
36448SOL    HW211184   2.725  13.520  11.758
36449SOL     OW11185   5.229   4.365   6.500
36449SOL    HW111186   5.149   4.393   6.454
36449SOL    HW211187   5.260   4.290   6.451
36450SOL     OW11188   5.066   7.126   8.044
36450SOL    HW111189   5.075   7.032   8.032
36450SOL    HW211190   5.077   7.140   8.138
36451SOL     OW11191  10.866   0.406   1.539
36451SOL    HW111192  10.920   0.433   1.613
36451SOL    HW211193  10.878   0.475   1.473
36452SOL     OW11194   0.201   5.072   6.621
36452SOL    HW111195   0.116   5.097   6.586
36452SOL    HW211196   0.184   4.992   6.670
36453SOL     OW11197   1.935  10.743   4.496
36453SOL    HW111198   1.900  10.820   4.451
36453SOL    HW211199   1.882  10.736   4.575
36454SOL     OW11200  13.668   4.455   5.372
36454SOL    HW111201  13.685   4.458   5.278
36454SOL    HW211202  13.754   4.464   5.412
36455SOL     OW11203   9.321  11.920   7.201
36455SOL    HW111204   9.252  11.949   7.142
36455SOL    HW211205   9.400  11.963   7.168
36456SOL     OW11206   0.035  13.482  10.736
36456SOL    HW111207   0.044  13.507  10.645
36456SOL    HW211208   0.060  13.389  10.739
36457SOL     OW11209   4.290   5.680   3.693
36457SOL    HW111210   4.362   5.641   3.743
36457SOL    HW211211   4.255   5.608   3.641
36458SOL     OW11212   6.398   0.837  13.837
36458SOL    HW111213   6.334   0.890  13.790
36458SOL    HW211214   6.346   0.772  13.883
36459SOL     OW11215   3.335  12.955   6.055
36459SOL    HW111216   3.345  12.983   6.145
36459SOL    HW211217   3.242  12.970   6.035
36460SOL     OW11218  12.479   0.987   5.170
36460SOL    HW111219  12.529   1.047   5.116
36460SOL    HW211220  12.449   0.919   5.110
36461SOL     OW11221   4.789   4.766  14.486
36461SOL    HW111222   4.718   4.754  14.423
36461SOL    HW211223   4.803   4.860  14.489
36462SOL     OW11224  12.321  11.982   0.682
36462SOL    HW111225  12.271  11.971   0.763
36462SOL    HW211226  12.378  12.057   0.699
36463SOL     OW11227   8.342   1.602  10.083
36463SOL    HW111228   8.267   1.661  10.086
36463SOL    HW211229   8.338   1.561   9.996
36464SOL     OW11230  13.516   6.952   6.802
36464SOL    HW111231  13.603   6.992   6.794
36464SOL    HW211232  13.462   7.000   6.740
36465SOL     OW11233  14.703   2.212  13.513
36465SOL    HW111234  14.614   2.239  13.537
36465SOL    HW211235  14.754   2.226  13.592
36466SOL     OW11236   8.185  10.453  10.643
36466SOL    HW111237   8.199  10.370  10.597
36466SOL    HW211238   8.101  10.486  10.609
36467SOL     OW11239   2.842   2.809   1.208
36467SOL    HW111240   2.821   2.823   1.115
36467SOL    HW211241   2.833   2.714   1.219
36468SOL     OW11242   0.077   9.665  11.325
36468SOL    HW111243   0.149   9.684  11.265
36468SOL    HW211244   0.049   9.576  11.303
36469SOL     OW11245  10.759   3.328   6.946
36469SOL    HW111246  10.762   3.244   6.901
36469SOL    HW211247  10.841   3.332   6.995
36470SOL     OW11248   1.263  13.508   0.810
36470SOL    HW111249   1.230  13.596   0.792
36470SOL    HW211250   1.255  13.499   0.905
36471SOL     OW11251  14.127   6.340   7.534
36471SOL    HW111252  14.151   6.432   7.539
36471SOL    HW211253  14.130   6.319   7.440
36472SOL     OW11254   2.098   4.814   9.120
36472SOL    HW111255   2.035   4.809   9.048
36472SOL    HW211256   2.179   4.781   9.082
36473SOL     OW11257   0.097   7.398   1.473
36473SOL    HW111258   0.071   7.437   1.557
36473SOL    HW211259   0.070   7.461   1.407
36474SOL     OW11260   0.662   1.614   2.491
36474SOL    HW111261   0.729   1.625   2.423
36474SOL    HW211262   0.643   1.521   2.491
36475SOL     OW11263  13.425   3.619   1.881
36475SOL    HW111264  13.480   3.541   1.885
36475SOL    HW211265  13.478   3.683   1.833
36476SOL     OW11266   1.246  13.899   7.147
36476SOL    HW111267   1.318  13.876   7.088
36476SOL    HW211268   1.220  13.988   7.121
36477SOL     OW11269  13.894   2.894  10.430
36477SOL    HW111270  13.987   2.917  10.441
36477SOL    HW211271  13.873   2.923  10.341
36478SOL     OW11272  10.122  14.215  14.208
36478SOL    HW111273  10.145  14.305  14.231
36478SOL    HW211274  10.141  14.164  14.287
36479SOL     OW11275   4.422   9.817  10.667
36479SOL    HW111276   4.365   9.893  10.654
36479SOL    HW211277   4.423   9.803  10.761
36480SOL     OW11278  10.542   0.728  14.451
36480SOL    HW111279  10.523   0.818  14.475
36480SOL    HW211280  10.637   0.721  14.453
36481SOL     OW11281   1.067   0.970   8.382
36481SOL    HW111282   1.077   1.053   8.336
36481SOL    HW211283   0.985   0.933   8.349
36482SOL     OW11284  10.068  11.825   1.091
36482SOL    HW111285  10.002  11.887   1.059
36482SOL    HW211286  10.042  11.741   1.053
36483SOL     OW11287   8.983   6.419   3.515
36483SOL    HW111288   8.945   6.489   3.461
36483SOL    HW211289   9.070   6.405   3.479
36484SOL     OW11290   0.277   2.201   1.417
36484SOL    HW111291   0.295   2.266   1.486
36484SOL    HW211292   0.363   2.165   1.395
36485SOL     OW11293   1.775  12.334   7.193
36485SOL    HW111294   1.755  12.312   7.102
36485SOL    HW211295   1.859  12.292   7.210
36486SOL     OW11296   2.589   1.582   2.932
36486SOL    HW111297   2.569   1.653   2.871
36486SOL    HW211298   2.548   1.505   2.893
36487SOL     OW11299  12.539  11.121   9.801
36487SOL    HW111300  12.606  11.053   9.807
36487SOL    HW211301  12.495  11.119   9.886
36488SOL     OW11302   6.641   8.828  13.976
36488SOL    HW111303   6.703   8.790  14.038
36488SOL    HW211304   6.645   8.770  13.899
36489SOL     OW11305  12.217   8.791  12.087
36489SOL    HW111306  12.255   8.857  12.030
36489SOL    HW211307  12.125   8.787  12.062
36490SOL     OW11308   5.877  12.816  11.314
36490SOL    HW111309   5.910  12.793  11.226
36490SOL    HW211310   5.788  12.846  11.298
36491SOL     OW11311  10.905  14.445   2.204
36491SOL    HW111312  10.813  14.426   2.186
36491SOL    HW211313  10.950  14.421   2.123
36492SOL     OW11314   2.889  10.611   6.581
36492SOL    HW111315   2.976  10.645   6.558
36492SOL    HW211316   2.878  10.634   6.673
36493SOL     OW11317   7.288   7.782  10.653
36493SOL    HW111318   7.209   7.729  10.661
36493SOL    HW211319   7.269   7.844  10.582
36494SOL     OW11320   0.511   7.227   9.667
36494SOL    HW111321   0.486   7.176   9.745
36494SOL    HW211322   0.595   7.190   9.641
36495SOL     OW11323  12.622   7.882   4.291
36495SOL    HW111324  12.532   7.849   4.293
36495SOL    HW211325  12.676   7.805   4.310
36496SOL     OW11326   2.428   9.738   4.733
36496SOL    HW111327   2.335   9.759   4.744
36496SOL    HW211328   2.435   9.647   4.761
36497SOL     OW11329  14.733   8.535   9.252
36497SOL    HW111330  14.743   8.610   9.194
36497SOL    HW211331  14.822   8.503   9.266
36498SOL     OW11332   6.029   2.874  11.833
36498SOL    HW111333   6.069   2.787  11.838
36498SOL    HW211334   6.091   2.925  11.781
36499SOL     OW11335   4.590   3.824  10.113
36499SOL    HW111336   4.642   3.788  10.041
36499SOL    HW211337   4.652   3.831  10.186
36500SOL     OW11338   0.310   1.825  10.784
36500SOL    HW111339   0.224   1.789  10.805
36500SOL    HW211340   0.335   1.782  10.702
36501SOL     OW11341   1.819  11.611   1.074
36501SOL    HW111342   1.741  11.613   1.018
36501SOL    HW211343   1.866  11.691   1.052
36502SOL     OW11344  14.248   4.167   0.173
36502SOL    HW111345  14.213   4.087   0.132
36502SOL    HW211346  14.257   4.145   0.266
36503SOL     OW11347  12.428   2.878  13.228
36503SOL    HW111348  12.505   2.821  13.235
36503SOL    HW211349  12.387   2.853  13.146
36504SOL     OW11350   4.204   2.215   8.424
36504SOL    HW111351   4.234   2.260   8.345
36504SOL    HW211352   4.109   2.219   8.420
36505SOL     OW11353  13.590   9.737  14.271
36505SOL    HW111354  13.677   9.708  14.298
36505SOL    HW211355  13.533   9.713  14.345
36506SOL     OW11356   3.010  12.915   0.517
36506SOL    HW111357   3.057  12.998   0.508
36506SOL    HW211358   2.918  12.940   0.527
36507SOL     OW11359   0.320   8.421   1.956
36507SOL    HW111360   0.225   8.436   1.948
36507SOL    HW211361   0.336   8.419   2.050
36508SOL     OW11362  12.681  13.818   0.004
36508SOL    HW111363  12.757  13.850  14.836
36508SOL    HW211364  12.606  13.856  14.838
36509SOL     OW11365   5.493  10.631   9.158
36509SOL    HW111366   5.419  10.625   9.218
36509SOL    HW211367   5.460  10.596   9.075
36510SOL     OW11368  12.572   2.789   5.883
36510SOL    HW111369  12.562   2.853   5.954
36510SOL    HW211370  12.484   2.753   5.871
36511SOL     OW11371   7.813   2.022   3.893
36511SOL    HW111372   7.774   1.948   3.940
36511SOL    HW211373   7.738   2.076   3.867
36512SOL     OW11374   6.436   4.452   0.344
36512SOL    HW111375   6.374   4.409   0.402
36512SOL    HW211376   6.414   4.420   0.257
36513SOL     OW11377   7.271   1.679   8.105
36513SOL    HW111378   7.267   1.593   8.146
36513SOL    HW211379   7.237   1.739   8.172
36514SOL     OW11380   2.060   0.403   6.736
36514SOL    HW111381   2.109   0.346   6.677
36514SOL    HW211382   1.979   0.423   6.688
36515SOL     OW11383   6.065   1.781   6.566
36515SOL    HW111384   6.050   1.690   6.542
36515SOL    HW211385   5.986   1.826   6.538
36516SOL     OW11386  11.322  14.107  10.463
36516SOL    HW111387  11.403  14.111  10.514
36516SOL    HW211388  11.295  14.199  10.454
36517SOL     OW11389   1.753   3.457   2.023
36517SOL    HW111390   1.752   3.546   1.988
36517SOL    HW211391   1.665   3.424   2.009
36518SOL     OW11392   0.254   3.203   0.524
36518SOL    HW111393   0.320   3.246   0.578
36518SOL    HW211394   0.177   3.196   0.580
36519SOL     OW11395   0.856   1.298   4.488
36519SOL    HW111396   0.846   1.294   4.583
36519SOL    HW211397   0.810   1.379   4.463
36520SOL     OW11398   2.628   5.157  14.815
36520SOL    HW111399   2.610   5.183  14.725
36520SOL    HW211400   2.577   5.219  14.868
36521SOL     OW11401   8.557   5.808   1.384
36521SOL    HW111402   8.550   5.867   1.460
36521SOL    HW211403   8.585   5.865   1.313
36522SOL     OW11404  12.685  10.705  10.733
36522SOL    HW111405  12.702  10.610  10.730
36522SOL    HW211406  12.720  10.732  10.818
36523SOL     OW11407   6.943   3.995  12.697
36523SOL    HW111408   6.956   4.074  12.644
36523SOL    HW211409   7.030   3.975  12.732
36524SOL     OW11410   1.063   2.481   9.650
36524SOL    HW111411   1.085   2.388   9.647
36524SOL    HW211412   1.063   2.508   9.558
36525SOL     OW11413   0.070  11.791   1.761
36525SOL    HW111414   0.087  11.884   1.781
36525SOL    HW211415   0.128  11.771   1.688
36526SOL     OW11416   6.851  13.521   1.216
36526SOL    HW111417   6.925  13.582   1.212
36526SOL    HW211418   6.892  13.435   1.222
36527SOL     OW11419  13.953   0.226   0.382
36527SOL    HW111420  13.928   0.139   0.413
36527SOL    HW211421  13.882   0.283   0.412
36528SOL     OW11422   4.384   0.052   9.139
36528SOL    HW111423   4.322  14.878   9.189
36528SOL    HW211424   4.442   0.089   9.205
36529SOL     OW11425  11.267   2.238  14.745
36529SOL    HW111426  11.188   2.285  14.717
36529SOL    HW211427  11.238   2.148  14.757
36530SOL     OW11428  12.733   8.674  11.189
36530SOL    HW111429  12.773   8.693  11.104
36530SOL    HW211430  12.722   8.760  11.230
36531SOL     OW11431  12.306  10.459  11.723
36531SOL    HW111432  12.325  10.408  11.645
36531SOL    HW211433  12.279  10.545  11.691
36532SOL     OW11434  14.363   0.698  10.096
36532SOL    HW111435  14.390   0.607  10.113
36532SOL    HW211436  14.429   0.731  10.035
36533SOL     OW11437   0.505  14.396  11.499
36533SOL    HW111438   0.530  14.366  11.586
36533SOL    HW211439   0.554  14.340  11.439
36534SOL     OW11440  14.527  11.386  12.912
36534SOL    HW111441  14.566  11.326  12.975
36534SOL    HW211442  14.561  11.358  12.827
36535SOL     OW11443   0.505   2.141  14.452
36535SOL    HW111444   0.577   2.139  14.389
36535SOL    HW211445   0.541   2.188  14.528
36536SOL     OW11446   0.129  14.050  14.811
36536SOL    HW111447   0.189  14.019  14.742
36536SOL    HW211448   0.052  14.080  14.764
36537SOL     OW11449   1.538   2.176   8.878
36537SOL    HW111450   1.528   2.218   8.963
36537SOL    HW211451   1.504   2.240   8.815
36538SOL     OW11452   8.206   3.489  11.152
36538SOL    HW111453   8.301   3.493  11.163
36538SOL    HW211454   8.173   3.563  11.203
36539SOL     OW11455   0.537  13.159  10.545
36539SOL    HW111456   0.481  13.105  10.601
36539SOL    HW211457   0.608  13.188  10.602
36540SOL     OW11458   3.509  10.061   3.760
36540SOL    HW111459   3.511  10.016   3.845
36540SOL    HW211460   3.533  10.151   3.781
36541SOL     OW11461   9.034   1.281  14.484
36541SOL    HW111462   9.080   1.209  14.443
36541SOL    HW211463   9.086   1.359  14.463
36542SOL     OW11464  11.451   1.914  12.891
36542SOL    HW111465  11.511   1.867  12.833
36542SOL    HW211466  11.383   1.947  12.834
36543SOL     OW11467   4.305  13.330  11.568
36543SOL    HW111468   4.343  13.311  11.654
36543SOL    HW211469   4.379  13.355  11.513
36544SOL     OW11470   6.832   6.598   8.287
36544SOL    HW111471   6.807   6.536   8.219
36544SOL    HW211472   6.847   6.680   8.240
36545SOL     OW11473   6.738   2.707   9.291
36545SOL    HW111474   6.729   2.802   9.287
36545SOL    HW211475   6.685   2.682   9.367
36546SOL     OW11476   8.535  11.080   8.579
36546SOL    HW111477   8.449  11.107   8.547
36546SOL    HW211478   8.546  11.128   8.661
36547SOL     OW11479   4.615   7.437  14.487
36547SOL    HW111480   4.640   7.351  14.519
36547SOL    HW211481   4.697   7.486  14.483
36548SOL     OW11482   8.815   2.368   9.287
36548SOL    HW111483   8.794   2.452   9.327
36548SOL    HW211484   8.791   2.303   9.353
36549SOL     OW11485   1.163   5.313   4.007
36549SOL    HW111486   1.111   5.237   4.031
36549SOL    HW211487   1.254   5.281   4.006
36550SOL     OW11488  14.564   6.112   8.415
36550SOL    HW111489  14.533   6.174   8.349
36550SOL    HW211490  14.658   6.126   8.419
36551SOL     OW11491   3.009   6.252   6.288
36551SOL    HW111492   3.064   6.300   6.227
36551SOL    HW211493   2.953   6.319   6.328
36552SOL     OW11494   3.994   5.608  14.238
36552SOL    HW111495   4.055   5.677  14.264
36552SOL    HW211496   4.049   5.546  14.189
36553SOL     OW11497   3.715  14.656   9.005
36553SOL    HW111498   3.692  14.624   8.918
36553SOL    HW211499   3.649  14.723   9.025
36554SOL     OW11500   4.934  10.011   0.884
36554SOL    HW111501   4.984   9.971   0.955
36554SOL    HW211502   4.849   9.965   0.886
36555SOL     OW11503   2.043   8.313   0.164
36555SOL    HW111504   2.023   8.235   0.113
36555SOL    HW211505   2.017   8.386   0.108
36556SOL     OW11506   8.303  11.918   2.027
36556SOL    HW111507   8.389  11.882   2.046
36556SOL    HW211508   8.259  11.851   1.976
36557SOL     OW11509  10.146   8.136   3.190
36557SOL    HW111510  10.174   8.193   3.118
36557SOL    HW211511  10.055   8.116   3.170
36558SOL     OW11512   3.309  10.668   7.119
36558SOL    HW111513   3.240  10.734   7.124
36558SOL    HW211514   3.352  10.672   7.205
36559SOL     OW11515   9.240  14.364  10.880
36559SOL    HW111516   9.325  14.396  10.910
36559SOL    HW211517   9.248  14.269  10.883
36560SOL     OW11518   3.591   5.753   2.067
36560SOL    HW111519   3.643   5.683   2.027
36560SOL    HW211520   3.614   5.749   2.160
36561SOL     OW11521   8.636   1.774  12.486
36561SOL    HW111522   8.690   1.730  12.552
36561SOL    HW211523   8.546   1.754  12.511
36562SOL     OW11524   5.400  13.284   6.603
36562SOL    HW111525   5.461  13.214   6.577
36562SOL    HW211526   5.371  13.259   6.691
36563SOL     OW11527   4.950   4.693   4.277
36563SOL    HW111528   4.951   4.621   4.340
36563SOL    HW211529   5.036   4.689   4.235
36564SOL     OW11530   0.780  12.669   7.955
36564SOL    HW111531   0.771  12.605   8.026
36564SOL    HW211532   0.720  12.638   7.887
36565SOL     OW11533   0.933   0.164  14.214
36565SOL    HW111534   0.852   0.117  14.193
36565SOL    HW211535   1.001   0.117  14.166
36566SOL     OW11536   8.267   3.753   0.040
36566SOL    HW111537   8.356   3.739   0.009
36566SOL    HW211538   8.254   3.687   0.108
36567SOL     OW11539   8.074  12.531  12.178
36567SOL    HW111540   7.989  12.573  12.168
36567SOL    HW211541   8.134  12.584  12.126
36568SOL     OW11542   0.041   5.146   2.413
36568SOL    HW111543   0.100   5.162   2.339
36568SOL    HW211544   0.012   5.233   2.439
36569SOL     OW11545  12.131  11.273   3.847
36569SOL    HW111546  12.049  11.321   3.855
36569SOL    HW211547  12.146  11.267   3.752
36570SOL     OW11548  10.635   3.698  10.192
36570SOL    HW111549  10.632   3.753  10.270
36570SOL    HW211550  10.606   3.612  10.222
36571SOL     OW11551   6.941   6.385   1.810
36571SOL    HW111552   7.018   6.418   1.857
36571SOL    HW211553   6.976   6.318   1.752
36572SOL     OW11554   5.061  12.554  11.973
36572SOL    HW111555   5.153  12.562  11.947
36572SOL    HW211556   5.018  12.515  11.897
36573SOL     OW11557   4.880  12.300   6.274
36573SOL    HW111558   4.937  12.345   6.337
36573SOL    HW211559   4.876  12.210   6.306
36574SOL     OW11560  14.483   8.803   6.526
36574SOL    HW111561  14.532   8.729   6.563
36574SOL    HW211562  14.404   8.810   6.579
36575SOL     OW11563  14.608  13.018  14.487
36575SOL    HW111564  14.572  13.044  14.572
36575SOL    HW211565  14.699  13.048  14.489
36576SOL     OW11566  11.716   0.419   5.181
36576SOL    HW111567  11.723   0.507   5.218
36576SOL    HW211568  11.721   0.360   5.256
36577SOL     OW11569   6.861   3.642   2.079
36577SOL    HW111570   6.782   3.690   2.054
36577SOL    HW211571   6.837   3.550   2.071
36578SOL     OW11572   7.283   2.708   9.108
36578SOL    HW111573   7.347   2.636   9.111
36578SOL    HW211574   7.245   2.709   9.196
36579SOL     OW11575   5.970   2.374   6.322
36579SOL    HW111576   5.944   2.447   6.379
36579SOL    HW211577   6.053   2.403   6.284
36580SOL     OW11578   3.675  13.112  10.892
36580SOL    HW111579   3.756  13.085  10.850
36580SOL    HW211580   3.661  13.202  10.862
36581SOL     OW11581   7.376   4.926  10.653
36581SOL    HW111582   7.281   4.930  10.663
36581SOL    HW211583   7.402   5.015  10.633
36582SOL     OW11584   3.779  10.354   3.541
36582SOL    HW111585   3.720  10.422   3.509
36582SOL    HW211586   3.757  10.276   3.490
36583SOL     OW11587   4.433   6.251   8.577
36583SOL    HW111588   4.353   6.222   8.620
36583SOL    HW211589   4.466   6.322   8.633
36584SOL     OW11590   9.714   0.777  10.687
36584SOL    HW111591   9.690   0.836  10.758
36584SOL    HW211592   9.668   0.695  10.708
36585SOL     OW11593  11.146   3.190  14.818
36585SOL    HW111594  11.069   3.247  14.816
36585SOL    HW211595  11.211   3.234  14.764
36586SOL     OW11596   3.384  14.749   9.876
36586SOL    HW111597   3.344  14.803   9.944
36586SOL    HW211598   3.463  14.795   9.851
36587SOL     OW11599   6.619   0.657   4.061
36587SOL    HW111600   6.677   0.655   3.985
36587SOL    HW211601   6.554   0.589   4.044
36588SOL     OW11602   0.959   8.546   0.360
36588SOL    HW111603   1.015   8.474   0.331
36588SOL    HW211604   1.018   8.604   0.409
36589SOL     OW11605  10.719  14.668  10.361
36589SOL    HW111606  10.678  14.582  10.350
36589SOL    HW211607  10.658  14.729  10.318
36590SOL     OW11608   4.845   6.547  12.516
36590SOL    HW111609   4.893   6.553  12.433
36590SOL    HW211610   4.911   6.566  12.583
36591SOL     OW11611  12.750   2.191   6.108
36591SOL    HW111612  12.781   2.222   6.193
36591SOL    HW211613  12.821   2.214   6.048
36592SOL     OW11614   9.498   2.791   2.401
36592SOL    HW111615   9.564   2.810   2.333
36592SOL    HW211616   9.414   2.804   2.357
36593SOL     OW11617   6.682   0.504   7.054
36593SOL    HW111618   6.726   0.510   6.969
36593SOL    HW211619   6.657   0.412   7.061
36594SOL     OW11620   0.726   4.171   7.595
36594SOL    HW111621   0.752   4.150   7.684
36594SOL    HW211622   0.703   4.087   7.556
36595SOL     OW11623  12.564   9.860  12.878
36595SOL    HW111624  12.599   9.820  12.798
36595SOL    HW211625  12.478   9.892  12.853
36596SOL     OW11626   3.946   1.578  13.026
36596SOL    HW111627   3.936   1.663  12.983
36596SOL    HW211628   3.992   1.598  13.108
36597SOL     OW11629   5.497  11.854  12.133
36597SOL    HW111630   5.565  11.817  12.189
36597SOL    HW211631   5.441  11.779  12.111
36598SOL     OW11632   1.833  10.274   1.658
36598SOL    HW111633   1.764  10.210   1.673
36598SOL    HW211634   1.790  10.346   1.611
36599SOL     OW11635  10.905  14.125   4.195
36599SOL    HW111636  10.963  14.197   4.221
36599SOL    HW211637  10.822  14.144   4.238
36600SOL     OW11638  12.722   4.506   8.899
36600SOL    HW111639  12.779   4.485   8.824
36600SOL    HW211640  12.690   4.594   8.880
36601SOL     OW11641  10.913   5.092   9.485
36601SOL    HW111642  10.998   5.077   9.526
36601SOL    HW211643  10.850   5.073   9.554
36602SOL     OW11644  14.560   3.312   8.523
36602SOL    HW111645  14.481   3.290   8.474
36602SOL    HW211646  14.547   3.273   8.609
36603SOL     OW11647   2.631   0.728  12.857
36603SOL    HW111648   2.595   0.800  12.910
36603SOL    HW211649   2.557   0.668  12.846
36604SOL     OW11650   9.392   0.201   7.268
36604SOL    HW111651   9.406   0.267   7.336
36604SOL    HW211652   9.476   0.157   7.259
36605SOL     OW11653   5.137   1.896  11.912
36605SOL    HW111654   5.115   1.916  11.821
36605SOL    HW211655   5.164   1.980  11.949
36606SOL     OW11656   3.083  12.622   5.783
36606SOL    HW111657   3.155  12.591   5.728
36606SOL    HW211658   3.124  12.643   5.866
36607SOL     OW11659  14.050   6.181  14.452
36607SOL    HW111660  14.002   6.205  14.373
36607SOL    HW211661  14.135   6.223  14.442
36608SOL     OW11662   6.457  14.436   2.517
36608SOL    HW111663   6.450  14.408   2.608
36608SOL    HW211664   6.549  14.464   2.507
36609SOL     OW11665   8.813   0.827   1.924
36609SOL    HW111666   8.808   0.763   1.853
36609SOL    HW211667   8.724   0.831   1.960
36610SOL     OW11668   3.269   4.592   4.589
36610SOL    HW111669   3.332   4.664   4.579
36610SOL    HW211670   3.198   4.630   4.641
36611SOL     OW11671   1.049  11.239  12.344
36611SOL    HW111672   1.030  11.180  12.271
36611SOL    HW211673   1.143  11.234  12.356
36612SOL     OW11674   9.482   8.426   6.571
36612SOL    HW111675   9.558   8.433   6.514
36612SOL    HW211676   9.444   8.341   6.550
36613SOL     OW11677  10.934   9.691   3.556
36613SOL    HW111678  10.931   9.647   3.471
36613SOL    HW211679  10.843   9.701   3.581
36614SOL     OW11680  13.714   6.782  10.882
36614SOL    HW111681  13.632   6.831  10.883
36614SOL    HW211682  13.732   6.768  10.789
36615SOL     OW11683   9.663  10.113   1.612
36615SOL    HW111684   9.572  10.106   1.642
36615SOL    HW211685   9.662  10.079   1.523
36616SOL     OW11686   8.725   4.848  12.119
36616SOL    HW111687   8.755   4.878  12.033
36616SOL    HW211688   8.794   4.875  12.179
36617SOL     OW11689  13.617   6.479   1.400
36617SOL    HW111690  13.650   6.390   1.392
36617SOL    HW211691  13.534   6.478   1.352
36618SOL     OW11692   8.823   4.038   2.137
36618SOL    HW111693   8.754   4.102   2.154
36618SOL    HW211694   8.895   4.090   2.102
36619SOL     OW11695  12.250  12.962   9.565
36619SOL    HW111696  12.248  12.968   9.660
36619SOL    HW211697  12.178  12.903   9.543
36620SOL     OW11698   6.887   2.453   6.629
36620SOL    HW111699   6.800   2.437   6.665
36620SOL    HW211700   6.945   2.396   6.680
36621SOL     OW11701   6.831  13.437  10.149
36621SOL    HW111702   6.925  13.428  10.164
36621SOL    HW211703   6.797  13.475  10.230
36622SOL     OW11704   3.545   8.963   8.707
36622SOL    HW111705   3.484   8.923   8.644
36622SOL    HW211706   3.505   9.047   8.729
36623SOL     OW11707  11.530   4.125   7.236
36623SOL    HW111708  11.555   4.032   7.231
36623SOL    HW211709  11.526   4.144   7.329
36624SOL     OW11710  10.814   1.019   8.864
36624SOL    HW111711  10.835   1.087   8.800
36624SOL    HW211712  10.893   0.965   8.869
36625SOL     OW11713   5.788  11.375   0.270
36625SOL    HW111714   5.720  11.341   0.212
36625SOL    HW211715   5.818  11.299   0.319
36626SOL     OW11716  13.504   9.038   0.657
36626SOL    HW111717  13.429   9.038   0.716
36626SOL    HW211718  13.473   8.992   0.579
36627SOL     OW11719   1.633  13.607  13.685
36627SOL    HW111720   1.623  13.585  13.593
36627SOL    HW211721   1.559  13.663  13.705
36628SOL     OW11722   4.561  10.150   2.296
36628SOL    HW111723   4.517  10.093   2.358
36628SOL    HW211724   4.655  10.134   2.311
36629SOL     OW11725   7.727   8.365   1.477
36629SOL    HW111726   7.778   8.392   1.400
36629SOL    HW211727   7.747   8.272   1.488
36630SOL     OW11728   3.769   1.679  12.502
36630SOL    HW111729   3.766   1.593  12.545
36630SOL    HW211730   3.742   1.740  12.571
36631SOL     OW11731   7.677   2.403   2.141
36631SOL    HW111732   7.609   2.374   2.201
36631SOL    HW211733   7.663   2.497   2.132
36632SOL     OW11734  13.620   9.233  13.974
36632SOL    HW111735  13.676   9.157  13.989
36632SOL    HW211736  13.634   9.288  14.052
36633SOL     OW11737  10.856  11.362   7.398
36633SOL    HW111738  10.899  11.302   7.458
36633SOL    HW211739  10.925  11.388   7.336
36634SOL     OW11740  14.368  11.073   9.727
36634SOL    HW111741  14.289  11.090   9.778
36634SOL    HW211742  14.399  11.159   9.701
36635SOL     OW11743   3.872  12.491   6.670
36635SOL    HW111744   3.793  12.539   6.646
36635SOL    HW211745   3.887  12.513   6.762
36636SOL     OW11746   9.816   8.233   7.880
36636SOL    HW111747   9.767   8.178   7.818
36636SOL    HW211748   9.830   8.315   7.832
36637SOL     OW11749   7.597   5.353   9.221
36637SOL    HW111750   7.535   5.416   9.259
36637SOL    HW211751   7.590   5.366   9.126
36638SOL     OW11752   7.174   1.852   7.567
36638SOL    HW111753   7.164   1.946   7.557
36638SOL    HW211754   7.268   1.836   7.563
36639SOL     OW11755  12.573   5.886   1.910
36639SOL    HW111756  12.630   5.821   1.951
36639SOL    HW211757  12.575   5.961   1.969
36640SOL     OW11758  13.144  12.339   1.114
36640SOL    HW111759  13.067  12.394   1.130
36640SOL    HW211760  13.198  12.390   1.054
36641SOL     OW11761   9.920   1.463   7.790
36641SOL    HW111762   9.920   1.442   7.697
36641SOL    HW211763   9.897   1.380   7.833
36642SOL     OW11764  12.751   7.865   5.625
36642SOL    HW111765  12.775   7.847   5.716
36642SOL    HW211766  12.669   7.818   5.612
36643SOL     OW11767   7.551   3.459  14.355
36643SOL    HW111768   7.530   3.371  14.386
36643SOL    HW211769   7.467   3.493  14.323
36644SOL     OW11770   0.130   5.383   0.127
36644SOL    HW111771   0.218   5.364   0.159
36644SOL    HW211772   0.073   5.365   0.202
36645SOL     OW11773   7.467   2.839   7.680
36645SOL    HW111774   7.477   2.885   7.764
36645SOL    HW211775   7.398   2.775   7.696
36646SOL     OW11776   2.947   2.108  12.931
36646SOL    HW111777   2.923   2.022  12.966
36646SOL    HW211778   3.038   2.120  12.958
36647SOL     OW11779   4.022   1.831   2.874
36647SOL    HW111780   4.085   1.763   2.897
36647SOL    HW211781   4.032   1.898   2.942
36648SOL     OW11782   8.627   5.100  11.465
36648SOL    HW111783   8.559   5.106  11.532
36648SOL    HW211784   8.621   5.184  11.418
36649SOL     OW11785   0.330   1.156   6.057
36649SOL    HW111786   0.333   1.196   5.970
36649SOL    HW211787   0.293   1.224   6.114
36650SOL     OW11788   5.278   2.948  12.066
36650SOL    HW111789   5.273   3.043  12.054
36650SOL    HW211790   5.203   2.927  12.121
36651SOL     OW11791   1.697   9.169   7.389
36651SOL    HW111792   1.682   9.261   7.407
36651SOL    HW211793   1.610   9.130   7.390
36652SOL     OW11794   2.230   1.775  12.842
36652SOL    HW111795   2.258   1.820  12.922
36652SOL    HW211796   2.242   1.682  12.861
36653SOL     OW11797   2.991   1.049  11.159
36653SOL    HW111798   3.036   1.016  11.082
36653SOL    HW211799   2.985   1.143  11.145
36654SOL     OW11800  10.789   1.733  14.690
36654SOL    HW111801  10.694   1.722  14.687
36654SOL    HW211802  10.812   1.714  14.781
36655SOL     OW11803   7.615   6.989  11.429
36655SOL    HW111804   7.668   6.992  11.509
36655SOL    HW211805   7.528   7.014  11.458
36656SOL     OW11806  13.543   3.321  14.172
36656SOL    HW111807  13.506   3.404  14.140
36656SOL    HW211808  13.630   3.345  14.202
36657SOL     OW11809   7.753  11.198   7.546
36657SOL    HW111810   7.723  11.112   7.515
36657SOL    HW211811   7.834  11.178   7.593
36658SOL     OW11812   5.137   0.344  12.288
36658SOL    HW111813   5.162   0.424  12.335
36658SOL    HW211814   5.115   0.374  12.200
36659SOL     OW11815   7.978   4.249  12.074
36659SOL    HW111816   7.965   4.161  12.110
36659SOL    HW211817   7.890   4.283  12.062
36660SOL     OW11818   5.158   6.481   6.894
36660SOL    HW111819   5.085   6.424   6.919
36660SOL    HW211820   5.118   6.546   6.836
36661SOL     OW11821   7.612  13.387   9.752
36661SOL    HW111822   7.686  13.449   9.753
36661SOL    HW211823   7.587  13.382   9.660
36662SOL     OW11824   2.206   4.931   4.339
36662SOL    HW111825   2.270   5.002   4.333
36662SOL    HW211826   2.123   4.971   4.313
36663SOL     OW11827  12.572   6.059   6.046
36663SOL    HW111828  12.575   6.081   6.139
36663SOL    HW211829  12.591   6.141   6.002
36664SOL     OW11830  14.738  14.774   4.201
36664SOL    HW111831  14.647  14.800   4.206
36664SOL    HW211832  14.776  14.830   4.133
36665SOL     OW11833   4.535   1.007   1.331
36665SOL    HW111834   4.563   0.961   1.252
36665SOL    HW211835   4.500   1.090   1.300
36666SOL     OW11836  11.470   6.012  11.521
36666SOL    HW111837  11.444   6.089  11.470
36666SOL    HW211838  11.471   5.941  11.458
36667SOL     OW11839   3.815  12.369  12.417
36667SOL    HW111840   3.779  12.281  12.406
36667SOL    HW211841   3.771  12.403  12.496
36668SOL     OW11842   8.280   6.557   2.059
36668SOL    HW111843   8.192   6.559   2.096
36668SOL    HW211844   8.296   6.647   2.032
36669SOL     OW11845   9.435   2.207   7.372
36669SOL    HW111846   9.530   2.208   7.382
36669SOL    HW211847   9.401   2.226   7.459
36670SOL     OW11848   5.854  14.042  13.307
36670SOL    HW111849   5.774  14.089  13.283
36670SOL    HW211850   5.824  13.957  13.338
36671SOL     OW11851   3.827   6.068  10.400
36671SOL    HW111852   3.768   6.002  10.364
36671SOL    HW211853   3.859   6.030  10.481
36672SOL     OW11854  12.403  11.574  10.297
36672SOL    HW111855  12.365  11.492  10.328
36672SOL    HW211856  12.490  11.575  10.336
36673SOL     OW11857   1.307   4.367   8.997
36673SOL    HW111858   1.394   4.331   9.014
36673SOL    HW211859   1.254   4.339   9.072
36674SOL     OW11860   9.079   9.917  11.875
36674SOL    HW111861   9.151   9.949  11.820
36674SOL    HW211862   9.000   9.947  11.830
36675SOL     OW11863   4.846   7.644   0.196
36675SOL    HW111864   4.874   7.735   0.186
36675SOL    HW211865   4.903   7.594   0.138
36676SOL     OW11866   9.921   8.791   7.576
36676SOL    HW111867   9.951   8.873   7.616
36676SOL    HW211868   9.834   8.777   7.613
36677SOL     OW11869   1.761   6.197  13.265
36677SOL    HW111870   1.669   6.224  13.265
36677SOL    HW211871   1.782   6.186  13.358
36678SOL     OW11872   7.701   5.189   0.952
36678SOL    HW111873   7.719   5.280   0.929
36678SOL    HW211874   7.637   5.194   1.023
36679SOL     OW11875  13.087   9.774   0.152
36679SOL    HW111876  13.037   9.696   0.128
36679SOL    HW211877  13.080   9.780   0.247
36680SOL     OW11878   1.008   4.852  14.662
36680SOL    HW111879   1.089   4.892  14.693
36680SOL    HW211880   0.940   4.913  14.689
36681SOL     OW11881  14.823   5.590  14.026
36681SOL    HW111882  14.858   5.573  13.939
36681SOL    HW211883  14.828   5.505  14.070
36682SOL     OW11884  14.610  14.399  14.266
36682SOL    HW111885  14.611  14.477  14.211
36682SOL    HW211886  14.662  14.423  14.343
36683SOL     OW11887  13.401   3.916   9.991
36683SOL    HW111888  13.458   3.984   9.956
36683SOL    HW211889  13.419   3.916  10.085
36684SOL     OW11890   2.772   0.705   3.347
36684SOL    HW111891   2.804   0.700   3.257
36684SOL    HW211892   2.706   0.774   3.346
36685SOL     OW11893   8.034   4.706   8.300
36685SOL    HW111894   8.103   4.649   8.265
36685SOL    HW211895   7.969   4.711   8.230
36686SOL     OW11896   8.177   3.793   6.408
36686SOL    HW111897   8.156   3.849   6.482
36686SOL    HW211898   8.226   3.850   6.348
36687SOL     OW11899  11.272  11.464   6.642
36687SOL    HW111900  11.244  11.374   6.625
36687SOL    HW211901  11.337  11.481   6.574
36688SOL     OW11902   7.428   5.840  10.180
36688SOL    HW111903   7.472   5.923  10.196
36688SOL    HW211904   7.338   5.865  10.155
36689SOL     OW11905   5.315   2.270   9.597
36689SOL    HW111906   5.343   2.358   9.569
36689SOL    HW211907   5.278   2.284   9.684
36690SOL     OW11908   0.972   9.845  14.517
36690SOL    HW111909   0.965   9.784  14.443
36690SOL    HW211910   0.900   9.820  14.575
36691SOL     OW11911   7.115  14.110   3.039
36691SOL    HW111912   7.112  14.025   2.993
36691SOL    HW211913   7.192  14.105   3.095
36692SOL     OW11914   3.474  12.500   4.504
36692SOL    HW111915   3.479  12.494   4.409
36692SOL    HW211916   3.541  12.439   4.536
36693SOL     OW11917   0.785  13.963   5.366
36693SOL    HW111918   0.696  13.930   5.363
36693SOL    HW211919   0.776  14.058   5.354
36694SOL     OW11920   3.261   6.325   6.818
36694SOL    HW111921   3.282   6.304   6.909
36694SOL    HW211922   3.332   6.381   6.790
36695SOL     OW11923   7.648  13.633   0.067
36695SOL    HW111924   7.670  13.542   0.086
36695SOL    HW211925   7.721  13.666   0.015
36696SOL     OW11926  11.890  10.479  13.493
36696SOL    HW111927  11.852  10.394  13.473
36696SOL    HW211928  11.824  10.522  13.548
36697SOL     OW11929   4.051   7.289   9.730
36697SOL    HW111930   4.061   7.335   9.646
36697SOL    HW211931   4.038   7.198   9.704
36698SOL     OW11932  10.154   5.382  14.486
36698SOL    HW111933  10.189   5.348  14.569
36698SOL    HW211934  10.220   5.445  14.457
36699SOL     OW11935   2.402   4.404  14.240
36699SOL    HW111936   2.483   4.382  14.286
36699SOL    HW211937   2.397   4.339  14.169
36700SOL     OW11938   4.434   9.583   4.047
36700SOL    HW111939   4.451   9.501   4.092
36700SOL    HW211940   4.491   9.647   4.089
36701SOL     OW11941   2.701  12.881   1.505
36701SOL    HW111942   2.734  12.792   1.517
36701SOL    HW211943   2.648  12.876   1.425
36702SOL     OW11944   1.219   5.100  12.103
36702SOL    HW111945   1.250   5.111  12.014
36702SOL    HW211946   1.293   5.064  12.151
36703SOL     OW11947   4.546   1.687   7.660
36703SOL    HW111948   4.580   1.673   7.572
36703SOL    HW211949   4.535   1.599   7.696
36704SOL     OW11950   9.885   1.447  13.997
36704SOL    HW111951   9.879   1.403  14.082
36704SOL    HW211952   9.862   1.538  14.015
36705SOL     OW11953  12.822  13.781   1.197
36705SOL    HW111954  12.907  13.766   1.156
36705SOL    HW211955  12.788  13.860   1.155
36706SOL     OW11956   4.213   6.879   9.700
36706SOL    HW111957   4.163   6.910   9.625
36706SOL    HW211958   4.267   6.807   9.666
36707SOL     OW11959  11.050   4.920   8.956
36707SOL    HW111960  11.103   4.960   9.024
36707SOL    HW211961  10.961   4.952   8.973
36708SOL     OW11962  13.906  11.863  13.699
36708SOL    HW111963  13.816  11.879  13.672
36708SOL    HW211964  13.899  11.803  13.773
36709SOL     OW11965   3.991  14.838   1.482
36709SOL    HW111966   4.042   0.005   1.549
36709SOL    HW211967   4.051  14.771   1.449
36710SOL     OW11968  12.163   1.940   3.011
36710SOL    HW111969  12.091   1.954   2.950
36710SOL    HW211970  12.145   1.855   3.050
36711SOL     OW11971   6.750   3.821  14.867
36711SOL    HW111972   6.839   3.799  14.838
36711SOL    HW211973   6.709   3.859  14.789
36712SOL     OW11974   3.602   6.073   6.321
36712SOL    HW111975   3.582   6.142   6.384
36712SOL    HW211976   3.532   6.009   6.332
36713SOL     OW11977  12.553  11.403   7.880
36713SOL    HW111978  12.522  11.482   7.925
36713SOL    HW211979  12.474  11.360   7.849
36714SOL     OW11980   9.776   5.401  12.925
36714SOL    HW111981   9.701   5.431  12.873
36714SOL    HW211982   9.836   5.476  12.924
36715SOL     OW11983  14.702   7.528   3.994
36715SOL    HW111984  14.702   7.453   3.933
36715SOL    HW211985  14.658   7.495   4.072
36716SOL     OW11986   9.733   7.079   4.700
36716SOL    HW111987   9.793   7.062   4.628
36716SOL    HW211988   9.740   7.002   4.757
36717SOL     OW11989   8.907   1.731   0.561
36717SOL    HW111990   8.821   1.722   0.519
36717SOL    HW211991   8.889   1.721   0.654
36718SOL     OW11992   5.897   7.024   2.532
36718SOL    HW111993   5.897   7.079   2.610
36718SOL    HW211994   5.990   7.013   2.510
36719SOL     OW11995  13.331  13.526   7.691
36719SOL    HW111996  13.374  13.506   7.608
36719SOL    HW211997  13.284  13.608   7.675
36720SOL     OW11998   5.619   6.538   4.188
36720SOL    HW111999   5.669   6.597   4.244
36720SOL    HW212000   5.602   6.589   4.109
36721SOL     OW12001  12.198   9.402   9.641
36721SOL    HW112002  12.131   9.335   9.626
36721SOL    HW212003  12.206   9.448   9.558
36722SOL     OW12004   8.009   5.427   4.390
36722SOL    HW112005   8.068   5.468   4.453
36722SOL    HW212006   7.949   5.497   4.364
36723SOL     OW12007   5.770  11.499   4.261
36723SOL    HW112008   5.719  11.425   4.293
36723SOL    HW212009   5.808  11.468   4.179
36724SOL     OW12010   5.110   1.931  11.650
36724SOL    HW112011   5.197   1.949  11.615
36724SOL    HW212012   5.050   1.963  11.583
36725SOL     OW12013   5.749  10.286   3.918
36725SOL    HW112014   5.754  10.381   3.917
36725SOL    HW212015   5.839  10.256   3.929
36726SOL     OW12016  11.793   4.420   1.892
36726SOL    HW112017  11.715   4.366   1.896
36726SOL    HW212018  11.818   4.421   1.799
36727SOL     OW12019   4.160  14.252   5.289
36727SOL    HW112020   4.112  14.237   5.371
36727SOL    HW212021   4.095  14.238   5.220
36728SOL     OW12022  11.395  12.204  13.179
36728SOL    HW112023  11.437  12.288  13.199
36728SOL    HW212024  11.465  12.150  13.142
36729SOL     OW12025  12.087  12.279   3.442
36729SOL    HW112026  12.123  12.306   3.526
36729SOL    HW212027  12.160  12.236   3.397
36730SOL     OW12028  13.269   4.888  11.234
36730SOL    HW112029  13.269   4.839  11.316
36730SOL    HW212030  13.362   4.908  11.219
36731SOL     OW12031   8.904   9.063  13.280
36731SOL    HW112032   8.904   9.045  13.186
36731SOL    HW212033   8.980   9.014  13.314
36732SOL     OW12034   7.027   9.103   2.489
36732SOL    HW112035   7.039   9.091   2.395
36732SOL    HW212036   7.069   9.187   2.508
36733SOL     OW12037  10.627  14.598   4.136
36733SOL    HW112038  10.713  14.557   4.133
36733SOL    HW212039  10.645  14.692   4.143
36734SOL     OW12040   4.067   1.965   1.560
36734SOL    HW112041   3.996   1.933   1.616
36734SOL    HW212042   4.023   2.012   1.489
36735SOL     OW12043   8.022  10.113   2.983
36735SOL    HW112044   8.014  10.161   2.900
36735SOL    HW212045   7.985  10.027   2.965
36736SOL     OW12046   3.483  13.378   3.751
36736SOL    HW112047   3.468  13.418   3.665
36736SOL    HW212048   3.508  13.288   3.732
36737SOL     OW12049  11.135   0.708   1.201
36737SOL    HW112050  11.163   0.794   1.234
36737SOL    HW212051  11.119   0.723   1.107
36738SOL     OW12052   7.979  11.840   4.014
36738SOL    HW112053   7.968  11.879   4.101
36738SOL    HW212054   7.910  11.774   4.009
36739SOL     OW12055  13.203   4.187  14.520
36739SOL    HW112056  13.136   4.119  14.527
36739SOL    HW212057  13.208   4.206  14.426
36740SOL     OW12058  12.699  12.646  12.219
36740SOL    HW112059  12.630  12.641  12.286
36740SOL    HW212060  12.732  12.736  12.225
36741SOL     OW12061   6.101   2.264   7.465
36741SOL    HW112062   6.129   2.339   7.413
36741SOL    HW212063   6.177   2.242   7.519
36742SOL     OW12064   0.476   7.690  12.628
36742SOL    HW112065   0.481   7.631  12.553
36742SOL    HW212066   0.556   7.672  12.677
36743SOL     OW12067  14.640   2.747  13.776
36743SOL    HW112068  14.696   2.683  13.822
36743SOL    HW212069  14.567   2.695  13.742
36744SOL     OW12070   9.119  14.775   3.441
36744SOL    HW112071   9.119  14.703   3.379
36744SOL    HW212072   9.036  14.820   3.426
36745SOL     OW12073   2.905  11.744   0.308
36745SOL    HW112074   2.887  11.683   0.237
36745SOL    HW212075   2.966  11.808   0.271
36746SOL     OW12076  14.545   3.720   3.540
36746SOL    HW112077  14.553   3.723   3.636
36746SOL    HW212078  14.544   3.812   3.513
36747SOL     OW12079   2.013   3.321   9.084
36747SOL    HW112080   2.026   3.258   9.013
36747SOL    HW212081   2.079   3.298   9.149
36748SOL     OW12082  10.586   3.315   7.290
36748SOL    HW112083  10.531   3.246   7.251
36748SOL    HW212084  10.534   3.395   7.280
36749SOL     OW12085  13.175  10.201   1.030
36749SOL    HW112086  13.250  10.149   1.003
36749SOL    HW212087  13.159  10.175   1.121
36750SOL     OW12088   3.477  11.617   5.186
36750SOL    HW112089   3.434  11.702   5.183
36750SOL    HW212090   3.498  11.598   5.095
36751SOL     OW12091   6.516   9.065   3.660
36751SOL    HW112092   6.546   8.979   3.634
36751SOL    HW212093   6.482   9.104   3.579
36752SOL     OW12094   6.910  12.558  13.988
36752SOL    HW112095   6.952  12.560  14.074
36752SOL    HW212096   6.906  12.465  13.965
36753SOL     OW12097   8.649   9.777   1.014
36753SOL    HW112098   8.652   9.854   0.959
36753SOL    HW212099   8.580   9.722   0.976
36754SOL     OW12100  10.374   3.450   3.108
36754SOL    HW112101  10.366   3.368   3.157
36754SOL    HW212102  10.357   3.518   3.173
36755SOL     OW12103  10.221   7.077  13.299
36755SOL    HW112104  10.187   7.060  13.387
36755SOL    HW212105  10.155   7.040  13.240
36756SOL     OW12106  11.955  11.147   1.026
36756SOL    HW112107  11.944  11.153   1.121
36756SOL    HW212108  12.011  11.070   1.013
36757SOL     OW12109   9.544   2.344   0.141
36757SOL    HW112110   9.524   2.309   0.228
36757SOL    HW212111   9.458   2.357   0.099
36758SOL     OW12112  14.324  11.545   5.695
36758SOL    HW112113  14.361  11.497   5.621
36758SOL    HW212114  14.281  11.621   5.655
36759SOL     OW12115   9.730   9.880   3.137
36759SOL    HW112116   9.776   9.808   3.179
36759SOL    HW212117   9.637   9.858   3.145
36760SOL     OW12118   0.042   8.876   7.038
36760SOL    HW112119   0.043   8.919   6.953
36760SOL    HW212120   0.134   8.866   7.062
36761SOL     OW12121   2.548   5.749   2.728
36761SOL    HW112122   2.499   5.827   2.755
36761SOL    HW212123   2.499   5.676   2.765
36762SOL     OW12124   5.827   7.715   0.364
36762SOL    HW112125   5.812   7.694   0.456
36762SOL    HW212126   5.744   7.750   0.333
36763SOL     OW12127   0.227   8.285  14.014
36763SOL    HW112128   0.304   8.265  14.067
36763SOL    HW212129   0.243   8.241  13.931
36764SOL     OW12130   5.457   4.091   4.782
36764SOL    HW112131   5.444   4.013   4.836
36764SOL    HW212132   5.377   4.097   4.730
36765SOL     OW12133   8.723  14.732   7.367
36765SOL    HW112134   8.714  14.650   7.319
36765SOL    HW212135   8.640  14.741   7.415
36766SOL     OW12136  10.829   0.198   9.638
36766SOL    HW112137  10.865   0.180   9.552
36766SOL    HW212138  10.740   0.229   9.622
36767SOL     OW12139   3.870  11.781   8.084
36767SOL    HW112140   3.933  11.836   8.037
36767SOL    HW212141   3.910  11.767   8.170
36768SOL     OW12142   5.148   4.451  14.813
36768SOL    HW112143   5.116   4.494   0.014
36768SOL    HW212144   5.240   4.477  14.808
36769SOL     OW12145   2.749   3.412  11.244
36769SOL    HW112146   2.769   3.480  11.180
36769SOL    HW212147   2.691   3.352  11.197
36770SOL     OW12148   5.598  14.324   6.180
36770SOL    HW112149   5.611  14.360   6.092
36770SOL    HW212150   5.682  14.283   6.200
36771SOL     OW12151  11.671   6.940   8.349
36771SOL    HW112152  11.624   7.017   8.381
36771SOL    HW212153  11.759   6.949   8.386
36772SOL     OW12154   0.460  11.044  13.386
36772SOL    HW112155   0.458  11.134  13.417
36772SOL    HW212156   0.446  10.991  13.464
36773SOL     OW12157  11.933   5.893   1.906
36773SOL    HW112158  11.917   5.931   1.819
36773SOL    HW212159  11.880   5.946   1.965
36774SOL     OW12160  12.855   1.132  14.141
36774SOL    HW112161  12.778   1.156  14.194
36774SOL    HW212162  12.820   1.122  14.052
36775SOL     OW12163   8.595   4.209   6.835
36775SOL    HW112164   8.566   4.285   6.886
36775SOL    HW212165   8.532   4.203   6.764
36776SOL     OW12166   3.241  13.683   0.553
36776SOL    HW112167   3.324  13.697   0.508
36776SOL    HW212168   3.191  13.627   0.494
36777SOL     OW12169   4.271  13.382  10.032
36777SOL    HW112170   4.219  13.437  10.091
36777SOL    HW212171   4.306  13.313  10.089
36778SOL     OW12172   6.030   4.233   7.819
36778SOL    HW112173   6.120   4.253   7.796
36778SOL    HW212174   6.036   4.178   7.898
36779SOL     OW12175   3.848   6.789   7.328
36779SOL    HW112176   3.846   6.847   7.404
36779SOL    HW212177   3.922   6.820   7.276
36780SOL     OW12178   5.773   2.907   3.371
36780SOL    HW112179   5.804   2.847   3.439
36780SOL    HW212180   5.777   2.994   3.411
36781SOL     OW12181   5.370   4.763  11.351
36781SOL    HW112182   5.289   4.764  11.299
36781SOL    HW212183   5.340   4.756  11.441
36782SOL     OW12184  11.375  12.280   2.642
36782SOL    HW112185  11.359  12.332   2.564
36782SOL    HW212186  11.415  12.341   2.704
36783SOL     OW12187   0.747  10.543   3.964
36783SOL    HW112188   0.815  10.489   3.924
36783SOL    HW212189   0.753  10.523   4.057
36784SOL     OW12190   7.266   1.277  14.298
36784SOL    HW112191   7.309   1.357  14.266
36784SOL    HW212192   7.238   1.231  14.219
36785SOL     OW12193   9.845   3.607  12.047
36785SOL    HW112194   9.752   3.629  12.053
36785SOL    HW212195   9.852   3.522  12.091
36786SOL     OW12196   8.611  12.531   5.295
36786SOL    HW112197   8.665  12.477   5.237
36786SOL    HW212198   8.522  12.497   5.283
36787SOL     OW12199  10.733   7.919  13.225
36787SOL    HW112200  10.685   7.989  13.271
36787SOL    HW212201  10.692   7.916  13.138
36788SOL     OW12202   7.409  11.904   1.599
36788SOL    HW112203   7.365  11.819   1.599
36788SOL    HW212204   7.350  11.962   1.647
36789SOL     OW12205   0.290  13.751   1.650
36789SOL    HW112206   0.240  13.687   1.601
36789SOL    HW212207   0.283  13.723   1.741
36790SOL     OW12208   7.208   8.057  12.867
36790SOL    HW112209   7.278   7.994  12.884
36790SOL    HW212210   7.232   8.134  12.919
36791SOL     OW12211  11.683  14.396  12.730
36791SOL    HW112212  11.683  14.375  12.636
36791SOL    HW212213  11.612  14.342  12.766
36792SOL     OW12214  11.167  13.491  10.047
36792SOL    HW112215  11.073  13.501  10.032
36792SOL    HW212216  11.179  13.516  10.138
36793SOL     OW12217   3.673   0.933   9.922
36793SOL    HW112218   3.608   0.980   9.869
36793SOL    HW212219   3.698   0.995   9.990
36794SOL     OW12220  10.124   8.461  11.795
36794SOL    HW112221  10.051   8.433  11.850
36794SOL    HW212222  10.186   8.388  11.799
36795SOL     OW12223   6.247   9.810   6.959
36795SOL    HW112224   6.340   9.819   6.935
36795SOL    HW212225   6.228   9.888   7.011
36796SOL     OW12226   8.043  13.230  12.595
36796SOL    HW112227   8.093  13.294  12.646
36796SOL    HW212228   8.109  13.181  12.547
36797SOL     OW12229   0.783   2.578  11.908
36797SOL    HW112230   0.806   2.671  11.907
36797SOL    HW212231   0.866   2.533  11.921
36798SOL     OW12232   9.303  10.844   2.984
36798SOL    HW112233   9.343  10.778   3.042
36798SOL    HW212234   9.270  10.793   2.910
36799SOL     OW12235   5.028   5.323   8.068
36799SOL    HW112236   5.046   5.411   8.035
36799SOL    HW212237   4.962   5.287   8.007
36800SOL     OW12238   2.455   3.370   0.708
36800SOL    HW112239   2.490   3.342   0.793
36800SOL    HW212240   2.383   3.309   0.690
36801SOL     OW12241   8.395   2.792  14.784
36801SOL    HW112242   8.416   2.759  14.871
36801SOL    HW212243   8.475   2.834  14.754
36802SOL     OW12244  13.051   7.811   8.079
36802SOL    HW112245  13.047   7.716   8.072
36802SOL    HW212246  13.100   7.827   8.160
36803SOL     OW12247   8.860   6.740   2.643
36803SOL    HW112248   8.868   6.814   2.704
36803SOL    HW212249   8.921   6.674   2.676
36804SOL     OW12250   4.300   1.645  13.071
36804SOL    HW112251   4.339   1.660  12.985
36804SOL    HW212252   4.252   1.726  13.090
36805SOL     OW12253   3.829  11.860   0.162
36805SOL    HW112254   3.777  11.780   0.165
36805SOL    HW212255   3.822  11.897   0.250
36806SOL     OW12256   4.361   9.200   1.356
36806SOL    HW112257   4.285   9.259   1.358
36806SOL    HW212258   4.436   9.255   1.377
36807SOL     OW12259   6.699   0.662  14.844
36807SOL    HW112260   6.728   0.743  14.803
36807SOL    HW212261   6.642   0.621  14.780
36808SOL     OW12262  10.455  11.707   6.043
36808SOL    HW112263  10.401  11.700   6.121
36808SOL    HW212264  10.545  11.706   6.076
36809SOL     OW12265  12.015  12.729   9.827
36809SOL    HW112266  11.930  12.726   9.782
36809SOL    HW212267  11.993  12.756   9.916
36810SOL     OW12268   4.386   2.805   2.001
36810SOL    HW112269   4.298   2.784   2.033
36810SOL    HW212270   4.375   2.890   1.958
36811SOL     OW12271   7.833   2.050   5.970
36811SOL    HW112272   7.788   2.135   5.974
36811SOL    HW212273   7.918   2.066   6.012
36812SOL     OW12274   6.533   1.289  12.312
36812SOL    HW112275   6.621   1.288  12.275
36812SOL    HW212276   6.505   1.197  12.309
36813SOL     OW12277   2.463   6.843   8.106
36813SOL    HW112278   2.471   6.858   8.012
36813SOL    HW212279   2.413   6.918   8.138
36814SOL     OW12280  10.765  11.141  13.911
36814SOL    HW112281  10.737  11.149  14.002
36814SOL    HW212282  10.730  11.056  13.883
36815SOL     OW12283   4.847   4.063  12.512
36815SOL    HW112284   4.811   4.102  12.433
36815SOL    HW212285   4.829   3.969  12.503
36816SOL     OW12286   4.356  13.878   7.798
36816SOL    HW112287   4.374  13.972   7.794
36816SOL    HW212288   4.283  13.870   7.859
36817SOL     OW12289  14.103   3.320   8.712
36817SOL    HW112290  14.193   3.343   8.737
36817SOL    HW212291  14.050   3.393   8.742
36818SOL     OW12292   0.948   3.501  12.240
36818SOL    HW112293   0.871   3.489  12.296
36818SOL    HW212294   1.016   3.533  12.298
36819SOL     OW12295  11.579  13.026   1.492
36819SOL    HW112296  11.627  13.100   1.528
36819SOL    HW212297  11.504  13.016   1.551
36820SOL     OW12298   4.795   5.819   1.154
36820SOL    HW112299   4.842   5.899   1.180
36820SOL    HW212300   4.842   5.787   1.077
36821SOL     OW12301   2.268   4.489   2.238
36821SOL    HW112302   2.312   4.418   2.191
36821SOL    HW212303   2.294   4.478   2.329
36822SOL     OW12304   3.186   0.256  13.499
36822SOL    HW112305   3.215   0.285  13.412
36822SOL    HW212306   3.191   0.161  13.495
36823SOL     OW12307  13.115   4.204   5.733
36823SOL    HW112308  13.058   4.170   5.803
36823SOL    HW212309  13.186   4.140   5.727
36824SOL     OW12310   1.869  14.472   4.104
36824SOL    HW112311   1.900  14.535   4.169
36824SOL    HW212312   1.816  14.524   4.043
36825SOL     OW12313   0.213   9.388  10.552
36825SOL    HW112314   0.299   9.370  10.590
36825SOL    HW212315   0.171   9.447  10.615
36826SOL     OW12316   4.617  12.375  11.297
36826SOL    HW112317   4.677  12.304  11.278
36826SOL    HW212318   4.673  12.452  11.311
36827SOL     OW12319  13.469   8.749   7.477
36827SOL    HW112320  13.538   8.711   7.531
36827SOL    HW212321  13.483   8.713   7.390
36828SOL     OW12322  10.842   2.671   7.774
36828SOL    HW112323  10.880   2.588   7.747
36828SOL    HW212324  10.789   2.649   7.851
36829SOL     OW12325   7.150  11.124  11.234
36829SOL    HW112326   7.203  11.193  11.273
36829SOL    HW212327   7.062  11.140  11.266
36830SOL     OW12328   6.606   4.839   8.772
36830SOL    HW112329   6.568   4.762   8.728
36830SOL    HW212330   6.532   4.883   8.812
36831SOL     OW12331   4.607   9.592   3.258
36831SOL    HW112332   4.681   9.579   3.318
36831SOL    HW212333   4.536   9.623   3.314
36832SOL     OW12334   0.643   4.227   8.819
36832SOL    HW112335   0.675   4.313   8.793
36832SOL    HW212336   0.547   4.236   8.819
36833SOL     OW12337  10.694  13.090   1.378
36833SOL    HW112338  10.746  13.020   1.417
36833SOL    HW212339  10.711  13.166   1.433
36834SOL     OW12340   6.702   6.639   4.259
36834SOL    HW112341   6.779   6.691   4.285
36834SOL    HW212342   6.636   6.704   4.236
36835SOL     OW12343  12.755   1.744  10.132
36835SOL    HW112344  12.669   1.744  10.089
36835SOL    HW212345  12.818   1.744  10.060
36836SOL     OW12346   0.485   3.803   9.266
36836SOL    HW112347   0.555   3.796   9.200
36836SOL    HW212348   0.504   3.885   9.311
36837SOL     OW12349  10.215   7.144   1.904
36837SOL    HW112350  10.157   7.086   1.854
36837SOL    HW212351  10.303   7.109   1.887
36838SOL     OW12352   4.591   6.464   5.647
36838SOL    HW112353   4.583   6.514   5.728
36838SOL    HW212354   4.535   6.511   5.585
36839SOL     OW12355  13.622   9.533  14.699
36839SOL    HW112356  13.583   9.599  14.641
36839SOL    HW212357  13.715   9.554  14.701
36840SOL     OW12358   5.550  12.422  11.988
36840SOL    HW112359   5.522  12.384  12.071
36840SOL    HW212360   5.643  12.441  12.000
36841SOL     OW12361   7.950   7.150  10.521
36841SOL    HW112362   7.912   7.104  10.446
36841SOL    HW212363   7.891   7.130  10.593
36842SOL     OW12364  13.931   8.120   9.251
36842SOL    HW112365  13.870   8.192   9.262
36842SOL    HW212366  13.881   8.042   9.273
36843SOL     OW12367   6.448   5.386   7.289
36843SOL    HW112368   6.402   5.393   7.372
36843SOL    HW212369   6.414   5.305   7.250
36844SOL     OW12370   8.437  10.179   7.367
36844SOL    HW112371   8.512  10.163   7.309
36844SOL    HW212372   8.398  10.092   7.379
36845SOL     OW12373   2.395  14.163   1.198
36845SOL    HW112374   2.439  14.079   1.212
36845SOL    HW212375   2.411  14.183   1.105
36846SOL     OW12376  14.294  14.863   9.823
36846SOL    HW112377  14.370   0.040   9.836
36846SOL    HW212378  14.277  14.824   9.909
36847SOL     OW12379   1.934   4.377   4.493
36847SOL    HW112380   1.965   4.289   4.472
36847SOL    HW212381   1.973   4.433   4.425
36848SOL     OW12382  13.031   3.774   7.074
36848SOL    HW112383  13.100   3.840   7.070
36848SOL    HW212384  12.952   3.819   7.044
36849SOL     OW12385   9.736   9.187  10.298
36849SOL    HW112386   9.694   9.204  10.382
36849SOL    HW212387   9.663   9.167  10.238
36850SOL     OW12388   9.216   6.102   4.487
36850SOL    HW112389   9.253   6.068   4.567
36850SOL    HW212390   9.217   6.029   4.426
36851SOL     OW12391   9.519   3.572   7.671
36851SOL    HW112392   9.445   3.524   7.633
36851SOL    HW212393   9.596   3.524   7.641
36852SOL     OW12394   8.301   9.265  12.754
36852SOL    HW112395   8.272   9.333  12.692
36852SOL    HW212396   8.354   9.312  12.818
36853SOL     OW12397  14.625  13.059  14.224
36853SOL    HW112398  14.608  13.026  14.312
36853SOL    HW212399  14.720  13.048  14.212
36854SOL     OW12400   5.351   6.688   7.488
36854SOL    HW112401   5.443   6.697   7.515
36854SOL    HW212402   5.301   6.695   7.569
36855SOL     OW12403  12.557   0.317   8.779
36855SOL    HW112404  12.573   0.346   8.869
36855SOL    HW212405  12.510   0.390   8.739
36856SOL     OW12406   7.241   2.040   1.676
36856SOL    HW112407   7.213   2.050   1.586
36856SOL    HW212408   7.323   1.990   1.671
36857SOL     OW12409  11.241  12.597   5.385
36857SOL    HW112410  11.161  12.559   5.420
36857SOL    HW212411  11.305  12.526   5.388
36858SOL     OW12412   1.260  13.972   5.493
36858SOL    HW112413   1.281  13.888   5.534
36858SOL    HW212414   1.280  14.038   5.560
36859SOL     OW12415   6.998  12.037   1.408
36859SOL    HW112416   7.090  12.013   1.398
36859SOL    HW212417   6.952  11.953   1.412
36860SOL     OW12418   5.737   7.518   6.456
36860SOL    HW112419   5.706   7.555   6.538
36860SOL    HW212420   5.828   7.492   6.473
36861SOL     OW12421  12.724   4.083  10.081
36861SOL    HW112422  12.660   4.141  10.040
36861SOL    HW212423  12.739   4.122  10.168
36862SOL     OW12424   4.408   5.039  10.064
36862SOL    HW112425   4.456   4.996  10.135
36862SOL    HW212426   4.476   5.069  10.004
36863SOL     OW12427   0.791  12.977  13.233
36863SOL    HW112428   0.817  12.885  13.224
36863SOL    HW212429   0.857  13.026  13.184
36864SOL     OW12430  13.838   1.666  12.527
36864SOL    HW112431  13.842   1.750  12.573
36864SOL    HW212432  13.856   1.687  12.435
36865SOL     OW12433   5.004   5.040   7.941
36865SOL    HW112434   4.998   5.062   7.848
36865SOL    HW212435   4.914   5.020   7.967
36866SOL     OW12436   9.576   8.606   2.979
36866SOL    HW112437   9.615   8.693   2.977
36866SOL    HW212438   9.498   8.612   2.923
36867SOL     OW12439   3.609  13.191   1.279
36867SOL    HW112440   3.694  13.215   1.315
36867SOL    HW212441   3.595  13.101   1.307
36868SOL     OW12442   8.858   6.384  10.260
36868SOL    HW112443   8.810   6.423  10.186
36868SOL    HW212444   8.792   6.377  10.330
36869SOL     OW12445  13.800   8.481   8.254
36869SOL    HW112446  13.883   8.489   8.206
36869SOL    HW212447  13.768   8.571   8.262
36870SOL     OW12448   0.088  12.314  14.607
36870SOL    HW112449   0.041  12.343  14.686
36870SOL    HW212450   0.019  12.280  14.550
36871SOL     OW12451   2.053   8.189   4.937
36871SOL    HW112452   1.960   8.202   4.956
36871SOL    HW212453   2.059   8.099   4.906
36872SOL     OW12454   9.614  13.650  14.587
36872SOL    HW112455   9.657  13.714  14.643
36872SOL    HW212456   9.662  13.656  14.504
36873SOL     OW12457  13.684   4.190  10.577
36873SOL    HW112458  13.703   4.153  10.491
36873SOL    HW212459  13.765   4.235  10.603
36874SOL     OW12460   6.578   6.101   1.993
36874SOL    HW112461   6.523   6.081   1.918
36874SOL    HW212462   6.663   6.124   1.956
36875SOL     OW12463   2.565  12.371   0.645
36875SOL    HW112464   2.485  12.340   0.601
36875SOL    HW212465   2.632  12.309   0.619
36876SOL     OW12466  14.354   8.177   3.566
36876SOL    HW112467  14.334   8.208   3.477
36876SOL    HW212468  14.383   8.255   3.613
36877SOL     OW12469   7.696  14.791  13.208
36877SOL    HW112470   7.678  14.703  13.241
36877SOL    HW212471   7.783  14.812  13.243
36878SOL     OW12472  10.268   7.819  12.172
36878SOL    HW112473  10.341   7.761  12.154
36878SOL    HW212474  10.194   7.761  12.192
36879SOL     OW12475  13.608  11.809   4.861
36879SOL    HW112476  13.661  11.863   4.919
36879SOL    HW212477  13.531  11.786   4.912
36880SOL     OW12478   6.193  12.323   8.016
36880SOL    HW112479   6.230  12.400   8.060
36880SOL    HW212480   6.245  12.313   7.937
36881SOL     OW12481  13.540   1.634   9.075
36881SOL    HW112482  13.567   1.726   9.067
36881SOL    HW212483  13.588   1.590   9.006
36882SOL     OW12484   0.495   4.153   1.529
36882SOL    HW112485   0.519   4.188   1.443
36882SOL    HW212486   0.403   4.178   1.540
36883SOL     OW12487   9.931   6.041   9.717
36883SOL    HW112488   9.850   6.081   9.685
36883SOL    HW212489   9.921   6.040   9.812
36884SOL     OW12490   2.312   5.942   4.900
36884SOL    HW112491   2.311   6.032   4.932
36884SOL    HW212492   2.239   5.900   4.945
36885SOL     OW12493   5.767  12.840   4.187
36885SOL    HW112494   5.726  12.787   4.256
36885SOL    HW212495   5.812  12.776   4.132
36886SOL     OW12496  10.208   4.875   9.746
36886SOL    HW112497  10.114   4.889   9.752
36886SOL    HW212498  10.230   4.899   9.656
36887SOL     OW12499   6.184   9.608   1.226
36887SOL    HW112500   6.188   9.685   1.169
36887SOL    HW212501   6.265   9.611   1.276
36888SOL     OW12502   2.633   9.266   0.587
36888SOL    HW112503   2.696   9.335   0.568
36888SOL    HW212504   2.657   9.234   0.673
36889SOL     OW12505   4.713   1.964   5.206
36889SOL    HW112506   4.754   1.884   5.174
36889SOL    HW212507   4.621   1.941   5.219
36890SOL     OW12508  10.952  12.411   8.479
36890SOL    HW112509  11.002  12.433   8.557
36890SOL    HW212510  10.972  12.482   8.417
36891SOL     OW12511   7.144  12.188   3.972
36891SOL    HW112512   7.224  12.176   4.023
36891SOL    HW212513   7.074  12.158   4.030
36892SOL     OW12514   6.695  13.542   8.929
36892SOL    HW112515   6.729  13.553   9.019
36892SOL    HW212516   6.637  13.616   8.916
36893SOL     OW12517   6.553   8.435   8.598
36893SOL    HW112518   6.520   8.365   8.542
36893SOL    HW212519   6.643   8.409   8.618
36894SOL     OW12520   6.577  14.146   3.590
36894SOL    HW112521   6.584  14.063   3.637
36894SOL    HW212522   6.623  14.131   3.508
36895SOL     OW12523   3.265  14.751  13.912
36895SOL    HW112524   3.322  14.827  13.912
36895SOL    HW212525   3.237  14.742  13.821
36896SOL     OW12526  13.503   4.738   1.750
36896SOL    HW112527  13.542   4.652   1.730
36896SOL    HW212528  13.563   4.776   1.815
36897SOL     OW12529  11.832   8.413  13.695
36897SOL    HW112530  11.908   8.418  13.638
36897SOL    HW212531  11.866   8.429  13.783
36898SOL     OW12532   1.958   3.262   3.209
36898SOL    HW112533   2.039   3.223   3.243
36898SOL    HW212534   1.937   3.332   3.270
36899SOL     OW12535   1.220  11.712  13.929
36899SOL    HW112536   1.244  11.791  13.978
36899SOL    HW212537   1.288  11.649  13.951
36900SOL     OW12538   9.806  13.501   7.237
36900SOL    HW112539   9.765  13.421   7.202
36900SOL    HW212540   9.778  13.503   7.329
36901SOL     OW12541  14.580   1.526  14.407
36901SOL    HW112542  14.653   1.585  14.389
36901SOL    HW212543  14.520   1.540  14.333
36902SOL     OW12544   1.817   5.370   2.383
36902SOL    HW112545   1.880   5.375   2.311
36902SOL    HW212546   1.870   5.360   2.462
36903SOL     OW12547   1.599   1.559   0.463
36903SOL    HW112548   1.515   1.600   0.442
36903SOL    HW212549   1.578   1.466   0.476
36904SOL     OW12550   4.729   1.285   2.498
36904SOL    HW112551   4.801   1.329   2.455
36904SOL    HW212552   4.698   1.220   2.435
36905SOL     OW12553  13.108   7.446   7.311
36905SOL    HW112554  13.090   7.395   7.390
36905SOL    HW212555  13.021   7.471   7.278
36906SOL     OW12556  13.032   7.589  10.601
36906SOL    HW112557  13.063   7.566  10.689
36906SOL    HW212558  13.003   7.680  10.609
36907SOL     OW12559   3.993  11.508  11.985
36907SOL    HW112560   3.944  11.541  12.060
36907SOL    HW212561   3.958  11.420  11.971
36908SOL     OW12562   4.152  12.678   5.154
36908SOL    HW112563   4.247  12.683   5.167
36908SOL    HW212564   4.115  12.715   5.234
36909SOL     OW12565  10.698   2.006   5.758
36909SOL    HW112566  10.792   2.010   5.739
36909SOL    HW212567  10.666   2.095   5.741
36910SOL     OW12568   4.784   2.661   2.119
36910SOL    HW112569   4.741   2.662   2.205
36910SOL    HW212570   4.828   2.576   2.115
36911SOL     OW12571   3.735   6.712  11.207
36911SOL    HW112572   3.664   6.661  11.245
36911SOL    HW212573   3.809   6.651  11.201
36912SOL     OW12574   4.438   4.997   8.426
36912SOL    HW112575   4.368   5.063   8.425
36912SOL    HW212576   4.515   5.045   8.396
36913SOL     OW12577   2.786   9.075   9.031
36913SOL    HW112578   2.720   9.114   8.973
36913SOL    HW212579   2.770   9.115   9.116
36914SOL     OW12580  13.537  13.113   2.059
36914SOL    HW112581  13.628  13.142   2.053
36914SOL    HW212582  13.489  13.190   2.090
36915SOL     OW12583  14.500   0.335  10.390
36915SOL    HW112584  14.433   0.390  10.352
36915SOL    HW212585  14.513   0.371  10.478
36916SOL     OW12586  10.018   6.044   0.073
36916SOL    HW112587  10.058   6.016   0.155
36916SOL    HW212588   9.927   6.064   0.096
36917SOL     OW12589  12.523   3.229   8.297
36917SOL    HW112590  12.491   3.290   8.230
36917SOL    HW212591  12.463   3.155   8.293
36918SOL     OW12592   5.028   7.249  11.374
36918SOL    HW112593   5.123   7.243  11.381
36918SOL    HW212594   5.010   7.340  11.354
36919SOL     OW12595   5.297  12.079  12.151
36919SOL    HW112596   5.363  12.018  12.117
36919SOL    HW212597   5.302  12.068  12.246
36920SOL     OW12598   7.199   1.935  10.516
36920SOL    HW112599   7.154   2.012  10.483
36920SOL    HW212600   7.216   1.954  10.608
36921SOL     OW12601  14.763   4.262   0.146
36921SOL    HW112602  14.721   4.292   0.065
36921SOL    HW212603  14.707   4.192   0.178
36922SOL     OW12604  11.537   7.790  11.522
36922SOL    HW112605  11.522   7.720  11.459
36922SOL    HW212606  11.628   7.814  11.510
36923SOL     OW12607  12.341   3.671  14.318
36923SOL    HW112608  12.335   3.611  14.244
36923SOL    HW212609  12.256   3.662  14.363
36924SOL     OW12610  13.980  10.750  11.895
36924SOL    HW112611  14.012  10.753  11.985
36924SOL    HW212612  14.047  10.797  11.844
36925SOL     OW12613   2.042  11.102  11.957
36925SOL    HW112614   1.990  11.074  11.882
36925SOL    HW212615   1.986  11.085  12.033
36926SOL     OW12616   6.822  12.731   1.982
36926SOL    HW112617   6.915  12.724   1.961
36926SOL    HW212618   6.811  12.821   2.014
36927SOL     OW12619   8.461   2.301  11.565
36927SOL    HW112620   8.426   2.238  11.628
36927SOL    HW212621   8.479   2.249  11.487
36928SOL     OW12622   0.271   8.042  10.233
36928SOL    HW112623   0.281   7.946  10.233
36928SOL    HW212624   0.181   8.056  10.205
36929SOL     OW12625  10.051   5.982   5.057
36929SOL    HW112626  10.072   5.961   5.148
36929SOL    HW212627   9.971   5.932   5.039
36930SOL     OW12628   2.597  10.371   5.625
36930SOL    HW112629   2.604  10.431   5.700
36930SOL    HW212630   2.646  10.415   5.555
36931SOL     OW12631   4.761   3.921   1.155
36931SOL    HW112632   4.757   3.998   1.099
36931SOL    HW212633   4.746   3.847   1.096
36932SOL     OW12634  14.238   9.805  11.925
36932SOL    HW112635  14.329   9.831  11.937
36932SOL    HW212636  14.232   9.717  11.962
36933SOL     OW12637   7.985   0.724  12.625
36933SOL    HW112638   7.951   0.728  12.714
36933SOL    HW212639   7.951   0.803  12.582
36934SOL     OW12640  14.728   6.036   9.219
36934SOL    HW112641  14.766   6.080   9.143
36934SOL    HW212642  14.652   5.990   9.185
36935SOL     OW12643  10.291  14.827   8.422
36935SOL    HW112644  10.251  14.772   8.489
36935SOL    HW212645  10.217  14.862   8.372
36936SOL     OW12646   4.046   9.749   4.511
36936SOL    HW112647   4.120   9.776   4.457
36936SOL    HW212648   3.969   9.760   4.455
36937SOL     OW12649   8.857   3.505   5.389
36937SOL    HW112650   8.944   3.505   5.350
36937SOL    HW212651   8.807   3.444   5.336
36938SOL     OW12652   6.558  10.227   2.779
36938SOL    HW112653   6.518  10.228   2.866
36938SOL    HW212654   6.605  10.144   2.775
36939SOL     OW12655   6.381  14.055   2.799
36939SOL    HW112656   6.287  14.062   2.781
36939SOL    HW212657   6.422  14.051   2.713
36940SOL     OW12658  14.455  10.064   5.805
36940SOL    HW112659  14.444  10.070   5.900
36940SOL    HW212660  14.492   9.978   5.790
36941SOL     OW12661  12.292  11.709   3.220
36941SOL    HW112662  12.334  11.714   3.134
36941SOL    HW212663  12.235  11.632   3.214
36942SOL     OW12664   2.164  11.414   5.758
36942SOL    HW112665   2.222  11.490   5.761
36942SOL    HW212666   2.222  11.339   5.750
36943SOL     OW12667  11.460   6.619   0.318
36943SOL    HW112668  11.468   6.703   0.363
36943SOL    HW212669  11.436   6.558   0.388
36944SOL     OW12670   3.043   3.754   3.739
36944SOL    HW112671   3.121   3.807   3.722
36944SOL    HW212672   3.009   3.786   3.822
36945SOL     OW12673   3.135  12.812  14.769
36945SOL    HW112674   3.131  12.879  14.837
36945SOL    HW212675   3.214  12.833  14.719
36946SOL     OW12676   9.041  12.529   5.104
36946SOL    HW112677   9.017  12.448   5.150
36946SOL    HW212678   9.135  12.539   5.122
36947SOL     OW12679   2.480  12.167   3.305
36947SOL    HW112680   2.534  12.188   3.381
36947SOL    HW212681   2.537  12.182   3.230
36948SOL     OW12682  13.446   0.392   6.792
36948SOL    HW112683  13.408   0.451   6.726
36948SOL    HW212684  13.468   0.450   6.865
36949SOL     OW12685  10.069   7.658   4.266
36949SOL    HW112686  10.134   7.588   4.270
36949SOL    HW212687  10.072   7.699   4.352
36950SOL     OW12688  13.053  11.824   6.769
36950SOL    HW112689  12.990  11.756   6.744
36950SOL    HW212690  13.136  11.795   6.732
36951SOL     OW12691   2.718   1.375   3.576
36951SOL    HW112692   2.687   1.441   3.514
36951SOL    HW212693   2.767   1.423   3.642
36952SOL     OW12694   3.599  10.782  12.133
36952SOL    HW112695   3.648  10.864  12.139
36952SOL    HW212696   3.578  10.773  12.040
36953SOL     OW12697   3.765   9.259  13.003
36953SOL    HW112698   3.681   9.266  12.957
36953SOL    HW212699   3.826   9.226  12.938
36954SOL     OW12700   3.063  11.975  10.379
36954SOL    HW112701   3.042  12.061  10.417
36954SOL    HW212702   2.988  11.954  10.323
36955SOL     OW12703   6.541  10.720   3.184
36955SOL    HW112704   6.551  10.681   3.097
36955SOL    HW212705   6.459  10.770   3.179
36956SOL     OW12706   3.760   7.056   6.258
36956SOL    HW112707   3.802   7.015   6.183
36956SOL    HW212708   3.808   7.024   6.334
36957SOL     OW12709   8.111   5.020  11.445
36957SOL    HW112710   8.032   5.047  11.492
36957SOL    HW212711   8.081   5.001  11.356
36958SOL     OW12712   8.141   8.850  10.403
36958SOL    HW112713   8.188   8.804  10.333
36958SOL    HW212714   8.184   8.935  10.408
36959SOL     OW12715  13.038  11.386   9.939
36959SOL    HW112716  13.117  11.416   9.894
36959SOL    HW212717  13.025  11.297   9.909
36960SOL     OW12718  10.094   9.873  13.422
36960SOL    HW112719  10.179   9.840  13.393
36960SOL    HW212720  10.044   9.795  13.444
36961SOL     OW12721  10.387   4.726   3.883
36961SOL    HW112722  10.472   4.683   3.881
36961SOL    HW212723  10.365   4.742   3.791
36962SOL     OW12724   6.363   2.612   5.755
36962SOL    HW112725   6.385   2.705   5.754
36962SOL    HW212726   6.445   2.568   5.776
36963SOL     OW12727   6.536   7.502  10.925
36963SOL    HW112728   6.483   7.431  10.889
36963SOL    HW212729   6.480   7.579  10.920
36964SOL     OW12730   5.198  12.450  14.548
36964SOL    HW112731   5.274  12.504  14.528
36964SOL    HW212732   5.123  12.503  14.520
36965SOL     OW12733  10.190   9.324   7.842
36965SOL    HW112734  10.226   9.269   7.911
36965SOL    HW212735  10.203   9.414   7.874
36966SOL     OW12736   4.830  11.162  12.667
36966SOL    HW112737   4.886  11.090  12.638
36966SOL    HW212738   4.877  11.241  12.643
36967SOL     OW12739   8.220   6.532  10.955
36967SOL    HW112740   8.129   6.550  10.980
36967SOL    HW212741   8.244   6.606  10.899
36968SOL     OW12742   8.560  10.546  12.185
36968SOL    HW112743   8.638  10.564  12.238
36968SOL    HW212744   8.544  10.452  12.196
36969SOL     OW12745  11.734  11.090   6.279
36969SOL    HW112746  11.806  11.064   6.222
36969SOL    HW212747  11.715  11.012   6.331
36970SOL     OW12748   8.719  14.418  14.037
36970SOL    HW112749   8.730  14.491  14.098
36970SOL    HW212750   8.689  14.345  14.092
36971SOL     OW12751  14.524  13.955  12.630
36971SOL    HW112752  14.561  13.904  12.558
36971SOL    HW212753  14.590  13.949  12.699
36972SOL     OW12754  13.206   3.121  10.100
36972SOL    HW112755  13.151   3.050  10.132
36972SOL    HW212756  13.294   3.084  10.095
36973SOL     OW12757   4.144   4.432   6.006
36973SOL    HW112758   4.125   4.341   6.030
36973SOL    HW212759   4.170   4.427   5.914
36974SOL     OW12760   9.544   2.198   0.391
36974SOL    HW112761   9.544   2.155   0.477
36974SOL    HW212762   9.612   2.153   0.341
36975SOL     OW12763  12.001   9.461  13.295
36975SOL    HW112764  11.918   9.477  13.342
36975SOL    HW212765  12.047   9.397  13.348
36976SOL     OW12766  13.475   7.632   4.837
36976SOL    HW112767  13.485   7.597   4.925
36976SOL    HW212768  13.457   7.556   4.782
36977SOL     OW12769   4.134  10.652   0.362
36977SOL    HW112770   4.059  10.708   0.384
36977SOL    HW212771   4.100  10.563   0.371
36978SOL     OW12772  10.153   8.719  14.529
36978SOL    HW112773  10.067   8.756  14.548
36978SOL    HW212774  10.214   8.789  14.550
36979SOL     OW12775   2.572   7.521   7.671
36979SOL    HW112776   2.657   7.486   7.695
36979SOL    HW212777   2.576   7.614   7.695
36980SOL     OW12778   5.998   0.783   4.651
36980SOL    HW112779   5.943   0.752   4.579
36980SOL    HW212780   6.082   0.740   4.638
36981SOL     OW12781   4.758   3.952  14.685
36981SOL    HW112782   4.853   3.943  14.675
36981SOL    HW212783   4.722   3.907  14.609
36982SOL     OW12784   1.987   1.741   5.661
36982SOL    HW112785   2.016   1.704   5.745
36982SOL    HW212786   1.925   1.676   5.627
36983SOL     OW12787  12.429  13.333  10.366
36983SOL    HW112788  12.370  13.268  10.328
36983SOL    HW212789  12.442  13.305  10.456
36984SOL     OW12790   4.500  13.642   9.208
36984SOL    HW112791   4.581  13.653   9.158
36984SOL    HW212792   4.494  13.547   9.222
36985SOL     OW12793  14.147   9.809  12.341
36985SOL    HW112794  14.113   9.778  12.425
36985SOL    HW212795  14.093   9.764  12.276
36986SOL     OW12796  11.458  11.430   9.740
36986SOL    HW112797  11.364  11.419   9.726
36986SOL    HW212798  11.474  11.521   9.715
36987SOL     OW12799  10.050   5.761  13.933
36987SOL    HW112800  10.054   5.705  13.855
36987SOL    HW212801  10.138   5.759  13.969
36988SOL     OW12802   5.240   0.811   5.036
36988SOL    HW112803   5.246   0.826   4.941
36988SOL    HW212804   5.289   0.730   5.050
36989SOL     OW12805  12.410  13.908   9.358
36989SOL    HW112806  12.381  13.962   9.432
36989SOL    HW212807  12.455  13.969   9.300
36990SOL     OW12808  13.701   3.588   5.702
36990SOL    HW112809  13.687   3.536   5.781
36990SOL    HW212810  13.796   3.589   5.690
36991SOL     OW12811  10.986   1.533  13.660
36991SOL    HW112812  10.942   1.458  13.700
36991SOL    HW212813  11.072   1.500  13.635
36992SOL     OW12814  12.073   2.303   0.679
36992SOL    HW112815  12.126   2.224   0.687
36992SOL    HW212816  12.011   2.283   0.608
36993SOL     OW12817   3.844   1.034   3.961
36993SOL    HW112818   3.865   0.993   3.877
36993SOL    HW212819   3.904   1.108   3.967
36994SOL     OW12820   8.957  11.134   3.348
36994SOL    HW112821   9.041  11.108   3.310
36994SOL    HW212822   8.920  11.196   3.285
36995SOL     OW12823   6.923  12.280  10.386
36995SOL    HW112824   6.857  12.226  10.343
36995SOL    HW212825   6.987  12.299  10.318
36996SOL     OW12826   6.770  10.784  14.414
36996SOL    HW112827   6.769  10.806  14.321
36996SOL    HW212828   6.746  10.691  14.417
36997SOL     OW12829   1.921   0.210   6.269
36997SOL    HW112830   1.897   0.117   6.277
36997SOL    HW212831   1.838   0.256   6.264
36998SOL     OW12832   7.480  12.864  14.006
36998SOL    HW112833   7.549  12.813  14.048
36998SOL    HW212834   7.523  12.907  13.932
36999SOL     OW12835   7.980   3.367   3.225
36999SOL    HW112836   7.929   3.377   3.305
36999SOL    HW212837   8.002   3.274   3.222
37000SOL     OW12838   2.768  12.584   8.310
37000SOL    HW112839   2.758  12.491   8.291
37000SOL    HW212840   2.687  12.608   8.356
37001SOL     OW12841  10.463  10.911  13.517
37001SOL    HW112842  10.498  10.826  13.491
37001SOL    HW212843  10.467  10.964  13.438
37002SOL     OW12844  11.437  13.345   3.077
37002SOL    HW112845  11.499  13.280   3.112
37002SOL    HW212846  11.357  13.332   3.127
37003SOL     OW12847  10.306   3.124   7.308
37003SOL    HW112848  10.252   3.193   7.346
37003SOL    HW212849  10.306   3.144   7.214
37004SOL     OW12850   2.440   4.118   7.699
37004SOL    HW112851   2.469   4.170   7.774
37004SOL    HW212852   2.346   4.105   7.714
37005SOL     OW12853  14.733   1.457   9.103
37005SOL    HW112854  14.758   1.365   9.097
37005SOL    HW212855  14.694   1.476   9.017
37006SOL     OW12856  11.552   2.244   1.954
37006SOL    HW112857  11.528   2.336   1.968
37006SOL    HW212858  11.579   2.240   1.863
37007SOL     OW12859  10.849   9.226  11.072
37007SOL    HW112860  10.883   9.261  11.154
37007SOL    HW212861  10.764   9.188  11.095
37008SOL     OW12862   1.684  14.617   9.916
37008SOL    HW112863   1.678  14.554   9.987
37008SOL    HW212864   1.641  14.696   9.950
37009SOL     OW12865   9.317   9.035  12.540
37009SOL    HW112866   9.314   9.001  12.630
37009SOL    HW212867   9.302   8.958  12.485
37010SOL     OW12868  14.458  12.646   0.742
37010SOL    HW112869  14.387  12.683   0.689
37010SOL    HW212870  14.425  12.561   0.770
37011SOL     OW12871   5.219   8.275   3.377
37011SOL    HW112872   5.186   8.186   3.364
37011SOL    HW212873   5.191   8.299   3.465
37012SOL     OW12874   9.537   1.090   3.246
37012SOL    HW112875   9.493   1.057   3.324
37012SOL    HW212876   9.468   1.099   3.181
37013SOL     OW12877   4.367  14.873   8.214
37013SOL    HW112878   4.378   0.071   8.159
37013SOL    HW212879   4.378  14.799   8.154
37014SOL     OW12880   5.105   9.227   9.205
37014SOL    HW112881   5.120   9.278   9.125
37014SOL    HW212882   5.014   9.247   9.229
37015SOL     OW12883  13.118  11.891  11.742
37015SOL    HW112884  13.102  11.880  11.649
37015SOL    HW212885  13.207  11.927  11.747
37016SOL     OW12886   5.744  11.306   1.970
37016SOL    HW112887   5.791  11.389   1.958
37016SOL    HW212888   5.656  11.332   1.996
37017SOL     OW12889   1.659   2.395  12.872
37017SOL    HW112890   1.625   2.343  12.945
37017SOL    HW212891   1.604   2.370  12.798
37018SOL     OW12892  14.143   0.638   1.716
37018SOL    HW112893  14.198   0.703   1.671
37018SOL    HW212894  14.172   0.642   1.807
37019SOL     OW12895  10.947   1.206  10.139
37019SOL    HW112896  10.870   1.253  10.109
37019SOL    HW212897  10.989   1.175  10.059
37020SOL     OW12898   6.592   7.852  14.773
37020SOL    HW112899   6.680   7.888  14.778
37020SOL    HW212900   6.535   7.919  14.811
37021SOL     OW12901   3.074   6.539   0.703
37021SOL    HW112902   3.146   6.556   0.642
37021SOL    HW212903   3.042   6.626   0.728
37022SOL     OW12904  12.803   8.154   4.757
37022SOL    HW112905  12.807   8.226   4.694
37022SOL    HW212906  12.859   8.181   4.829
37023SOL     OW12907   0.675   6.499  11.509
37023SOL    HW112908   0.692   6.590  11.531
37023SOL    HW212909   0.657   6.499  11.415
37024SOL     OW12910   7.898  11.976   7.501
37024SOL    HW112911   7.806  11.949   7.505
37024SOL    HW212912   7.906  12.022   7.418
37025SOL     OW12913   4.551   8.312   7.274
37025SOL    HW112914   4.473   8.256   7.279
37025SOL    HW212915   4.601   8.290   7.353
37026SOL     OW12916   0.910   9.180   2.949
37026SOL    HW112917   0.905   9.276   2.950
37026SOL    HW212918   0.837   9.153   2.893
37027SOL     OW12919   2.466  12.715   7.164
37027SOL    HW112920   2.450  12.668   7.082
37027SOL    HW212921   2.508  12.651   7.221
37028SOL     OW12922  12.646   4.037   8.850
37028SOL    HW112923  12.594   3.957   8.853
37028SOL    HW212924  12.696   4.037   8.931
37029SOL     OW12925   0.054   7.675   7.796
37029SOL    HW112926   0.113   7.714   7.861
37029SOL    HW212927  14.862   7.738   7.788
37030SOL     OW12928  12.125   8.382  14.123
37030SOL    HW112929  12.197   8.396  14.061
37030SOL    HW212930  12.050   8.426  14.083
37031SOL     OW12931   0.390   0.538  11.919
37031SOL    HW112932   0.390   0.538  12.015
37031SOL    HW212933   0.475   0.501  11.895
37032SOL     OW12934   0.654   5.210   6.991
37032SOL    HW112935   0.631   5.293   7.034
37032SOL    HW212936   0.637   5.143   7.057
37033SOL     OW12937  10.550  11.539   0.660
37033SOL    HW112938  10.599  11.601   0.714
37033SOL    HW212939  10.617  11.484   0.619
37034SOL     OW12940  10.982  12.972   0.474
37034SOL    HW112941  11.031  13.054   0.477
37034SOL    HW212942  11.047  12.904   0.492
37035SOL     OW12943   4.038   0.425   4.846
37035SOL    HW112944   3.985   0.352   4.878
37035SOL    HW212945   4.129   0.399   4.865
37036SOL     OW12946  10.678   5.606   4.568
37036SOL    HW112947  10.678   5.701   4.567
37036SOL    HW212948  10.602   5.581   4.514
37037SOL     OW12949  10.722   2.658   6.966
37037SOL    HW112950  10.746   2.671   6.874
37037SOL    HW212951  10.729   2.745   7.005
37038SOL     OW12952   8.308   6.171  11.055
37038SOL    HW112953   8.299   6.077  11.069
37038SOL    HW212954   8.259   6.188  10.974
37039SOL     OW12955  12.901   6.443  11.897
37039SOL    HW112956  12.916   6.537  11.907
37039SOL    HW212957  12.988   6.406  11.880
37040SOL     OW12958   6.210  13.797   9.821
37040SOL    HW112959   6.276  13.789   9.889
37040SOL    HW212960   6.171  13.710   9.815
37041SOL     OW12961   5.766   1.015   2.761
37041SOL    HW112962   5.793   1.100   2.726
37041SOL    HW212963   5.744   0.963   2.683
37042SOL     OW12964  10.443   4.885  10.454
37042SOL    HW112965  10.385   4.897  10.379
37042SOL    HW212966  10.530   4.911  10.421
37043SOL     OW12967  12.493   7.384  13.042
37043SOL    HW112968  12.462   7.435  12.967
37043SOL    HW212969  12.561   7.438  13.082
37044SOL     OW12970  11.371  12.389   4.997
37044SOL    HW112971  11.363  12.467   5.052
37044SOL    HW212972  11.462  12.390   4.967
37045SOL     OW12973   1.718   1.350   9.582
37045SOL    HW112974   1.789   1.326   9.522
37045SOL    HW212975   1.680   1.267   9.609
37046SOL     OW12976  11.669   8.658   0.438
37046SOL    HW112977  11.613   8.629   0.510
37046SOL    HW212978  11.643   8.749   0.423
37047SOL     OW12979   1.179   0.227  12.120
37047SOL    HW112980   1.206   0.217  12.029
37047SOL    HW212981   1.245   0.285  12.158
37048SOL     OW12982   9.856  10.021   2.938
37048SOL    HW112983   9.941  10.003   2.976
37048SOL    HW212984   9.793   9.980   2.998
37049SOL     OW12985  13.428  12.605   2.490
37049SOL    HW112986  13.482  12.550   2.547
37049SOL    HW212987  13.397  12.675   2.547
37050SOL     OW12988   0.194   3.211   9.569
37050SOL    HW112989   0.205   3.305   9.556
37050SOL    HW212990   0.266   3.171   9.521
37051SOL     OW12991  12.288   6.443  14.361
37051SOL    HW112992  12.247   6.395  14.432
37051SOL    HW212993  12.303   6.378  14.293
37052SOL     OW12994  14.197  10.144   5.054
37052SOL    HW112995  14.278  10.117   5.097
37052SOL    HW212996  14.199  10.098   4.970
37053SOL     OW12997  13.168   8.452  13.169
37053SOL    HW112998  13.101   8.449  13.238
37053SOL    HW212999  13.246   8.484  13.214
37054SOL     OW13000   2.728   1.744  12.495
37054SOL    HW113001   2.660   1.736  12.428
37054SOL    HW213002   2.808   1.712  12.453
37055SOL     OW13003   3.160  10.578   7.579
37055SOL    HW113004   3.201  10.500   7.618
37055SOL    HW213005   3.150  10.556   7.487
37056SOL     OW13006   3.816   4.148   9.290
37056SOL    HW113007   3.908   4.147   9.264
37056SOL    HW213008   3.808   4.079   9.356
37057SOL     OW13009  10.316  12.788   1.970
37057SOL    HW113010  10.290  12.813   2.058
37057SOL    HW213011  10.295  12.694   1.964
37058SOL     OW13012   9.478   1.644   0.503
37058SOL    HW113013   9.407   1.701   0.473
37058SOL    HW213014   9.525   1.696   0.568
37059SOL     OW13015   2.553   0.979   7.610
37059SOL    HW113016   2.484   0.924   7.647
37059SOL    HW213017   2.530   1.068   7.637
37060SOL     OW13018  13.678   7.140  14.630
37060SOL    HW113019  13.638   7.214  14.584
37060SOL    HW213020  13.699   7.175  14.717
37061SOL     OW13021   8.512   5.662   4.209
37061SOL    HW113022   8.539   5.580   4.167
37061SOL    HW213023   8.591   5.716   4.207
37062SOL     OW13024   7.257   9.518   7.977
37062SOL    HW113025   7.210   9.560   7.905
37062SOL    HW213026   7.328   9.580   7.998
37063SOL     OW13027   0.640   1.232   0.694
37063SOL    HW113028   0.654   1.316   0.738
37063SOL    HW213029   0.547   1.231   0.672
37064SOL     OW13030   8.935   0.767  11.264
37064SOL    HW113031   9.013   0.796  11.311
37064SOL    HW213032   8.969   0.717  11.190
37065SOL     OW13033   6.763  13.394   7.073
37065SOL    HW113034   6.707  13.320   7.048
37065SOL    HW213035   6.843  13.354   7.105
37066SOL     OW13036   4.890   2.586  10.038
37066SOL    HW113037   4.968   2.534  10.059
37066SOL    HW213038   4.905   2.670  10.081
37067SOL     OW13039   0.869  10.540   1.480
37067SOL    HW113040   0.946  10.510   1.431
37067SOL    HW213041   0.825  10.460   1.507
37068SOL     OW13042  11.988  11.071   2.764
37068SOL    HW113043  11.980  10.977   2.751
37068SOL    HW213044  11.936  11.110   2.694
37069SOL     OW13045   3.055  14.558   4.901
37069SOL    HW113046   3.133  14.544   4.953
37069SOL    HW213047   2.983  14.525   4.955
37070SOL     OW13048  14.398   0.085   9.446
37070SOL    HW113049  14.393   0.043   9.531
37070SOL    HW213050  14.407   0.012   9.384
37071SOL     OW13051   4.304   4.801   5.851
37071SOL    HW113052   4.328   4.858   5.778
37071SOL    HW213053   4.355   4.834   5.925
37072SOL     OW13054  12.913  10.483   4.800
37072SOL    HW113055  12.983  10.534   4.759
37072SOL    HW213056  12.889  10.534   4.877
37073SOL     OW13057   0.760   7.398  11.839
37073SOL    HW113058   0.838   7.402  11.784
37073SOL    HW213059   0.716   7.317  11.813
37074SOL     OW13060   8.240  13.012   0.672
37074SOL    HW113061   8.210  12.995   0.761
37074SOL    HW213062   8.298  12.938   0.653
37075SOL     OW13063  10.857  13.951   8.758
37075SOL    HW113064  10.836  13.956   8.851
37075SOL    HW213065  10.773  13.950   8.714
37076SOL     OW13066   8.222   8.806   6.462
37076SOL    HW113067   8.155   8.864   6.427
37076SOL    HW213068   8.176   8.724   6.481
37077SOL     OW13069   8.072  12.061  11.853
37077SOL    HW113070   8.114  12.025  11.931
37077SOL    HW213071   8.063  12.155  11.871
37078SOL     OW13072   7.952   7.715  10.749
37078SOL    HW113073   7.881   7.739  10.691
37078SOL    HW213074   7.917   7.729  10.837
37079SOL     OW13075   2.097   3.220  11.688
37079SOL    HW113076   2.169   3.282  11.696
37079SOL    HW213077   2.138   3.140  11.655
37080SOL     OW13078   4.539  10.234  10.585
37080SOL    HW113079   4.615  10.184  10.614
37080SOL    HW213080   4.510  10.189  10.506
37081SOL     OW13081   5.458   5.679   4.242
37081SOL    HW113082   5.459   5.773   4.260
37081SOL    HW213083   5.390   5.644   4.299
37082SOL     OW13084   1.369   9.818   9.720
37082SOL    HW113085   1.370   9.873   9.642
37082SOL    HW213086   1.385   9.879   9.792
37083SOL     OW13087  14.453   9.058  14.193
37083SOL    HW113088  14.424   8.983  14.246
37083SOL    HW213089  14.446   9.133  14.252
37084SOL     OW13090   5.724   7.072  13.190
37084SOL    HW113091   5.686   7.156  13.219
37084SOL    HW213092   5.694   7.063  13.100
37085SOL     OW13093  10.805   8.693   8.490
37085SOL    HW113094  10.791   8.720   8.399
37085SOL    HW213095  10.851   8.609   8.483
37086SOL     OW13096  11.126   6.213   5.877
37086SOL    HW113097  11.124   6.157   5.799
37086SOL    HW213098  11.082   6.294   5.849
37087SOL     OW13099   2.070   8.789  13.617
37087SOL    HW113100   2.166   8.783  13.622
37087SOL    HW213101   2.040   8.702  13.642
37088SOL     OW13102   4.862  10.518  11.141
37088SOL    HW113103   4.813  10.449  11.186
37088SOL    HW213104   4.828  10.599  11.178
37089SOL     OW13105   7.592   4.473   2.502
37089SOL    HW113106   7.605   4.517   2.418
37089SOL    HW213107   7.620   4.382   2.487
37090SOL     OW13108   3.874  13.664   9.449
37090SOL    HW113109   3.835  13.609   9.517
37090SOL    HW213110   3.842  13.626   9.367
37091SOL     OW13111   2.682   9.521  10.160
37091SOL    HW113112   2.640   9.531  10.075
37091SOL    HW213113   2.712   9.431  10.162
37092SOL     OW13114   3.504   8.676   3.435
37092SOL    HW113115   3.598   8.683   3.450
37092SOL    HW213116   3.490   8.584   3.413
37093SOL     OW13117  14.364   0.960   5.833
37093SOL    HW113118  14.406   0.913   5.905
37093SOL    HW213119  14.325   0.890   5.779
37094SOL     OW13120   7.455   8.789   4.392
37094SOL    HW113121   7.534   8.800   4.445
37094SOL    HW213122   7.469   8.709   4.342
37095SOL     OW13123  14.096   3.580   8.997
37095SOL    HW113124  14.161   3.638   9.035
37095SOL    HW213125  14.146   3.506   8.963
37096SOL     OW13126  12.149   1.250   6.703
37096SOL    HW113127  12.081   1.247   6.770
37096SOL    HW213128  12.227   1.218   6.748
37097SOL     OW13129   0.693  13.314  14.575
37097SOL    HW113130   0.760  13.274  14.520
37097SOL    HW213131   0.715  13.407  14.577
37098SOL     OW13132  10.578   9.228  10.331
37098SOL    HW113133  10.533   9.177  10.263
37098SOL    HW213134  10.508   9.275  10.376
37099SOL     OW13135  12.739   9.824   5.166
37099SOL    HW113136  12.770   9.869   5.087
37099SOL    HW213137  12.659   9.780   5.138
37100SOL     OW13138   6.454   3.108   1.865
37100SOL    HW113139   6.444   3.019   1.898
37100SOL    HW213140   6.425   3.104   1.774
37101SOL     OW13141   6.822   6.973  10.174
37101SOL    HW113142   6.762   6.938  10.240
37101SOL    HW213143   6.863   7.048  10.217
37102SOL     OW13144   8.932  12.492   1.513
37102SOL    HW113145   8.880  12.411   1.514
37102SOL    HW213146   8.912  12.534   1.597
37103SOL     OW13147  14.762  11.854   4.964
37103SOL    HW113148  14.692  11.809   5.011
37103SOL    HW213149  14.837  11.794   4.970
37104SOL     OW13150   5.277   1.480   1.201
37104SOL    HW113151   5.370   1.499   1.185
37104SOL    HW213152   5.272   1.464   1.296
37105SOL     OW13153   6.607   1.122   9.874
37105SOL    HW113154   6.703   1.124   9.882
37105SOL    HW213155   6.590   1.060   9.803
37106SOL     OW13156   8.778   3.136   7.050
37106SOL    HW113157   8.832   3.060   7.071
37106SOL    HW213158   8.838   3.211   7.056
37107SOL     OW13159   6.641  13.464   3.159
37107SOL    HW113160   6.609  13.444   3.071
37107SOL    HW213161   6.582  13.416   3.217
37108SOL     OW13162  13.334   0.988   4.744
37108SOL    HW113163  13.259   0.970   4.687
37108SOL    HW213164  13.335   1.083   4.753
37109SOL     OW13165   3.956   4.367   1.259
37109SOL    HW113166   3.910   4.438   1.305
37109SOL    HW213167   4.004   4.411   1.189
37110SOL     OW13168   3.113  11.047   5.593
37110SOL    HW113169   3.156  11.130   5.573
37110SOL    HW213170   3.060  11.065   5.670
37111SOL     OW13171  10.242   2.115   7.269
37111SOL    HW113172  10.294   2.179   7.221
37111SOL    HW213173  10.262   2.031   7.228
37112SOL     OW13174  11.737   7.874   2.228
37112SOL    HW113175  11.748   7.906   2.318
37112SOL    HW213176  11.658   7.820   2.232
37113SOL     OW13177  13.922   8.374   3.980
37113SOL    HW113178  14.017   8.366   3.968
37113SOL    HW213179  13.910   8.370   4.075
37114SOL     OW13180   0.979   4.478  11.554
37114SOL    HW113181   1.013   4.390  11.536
37114SOL    HW213182   0.884   4.469  11.547
37115SOL     OW13183  10.270   2.472   8.833
37115SOL    HW113184  10.263   2.408   8.904
37115SOL    HW213185  10.204   2.538   8.853
37116SOL     OW13186  10.969   6.639  14.115
37116SOL    HW113187  10.972   6.724  14.072
37116SOL    HW213188  10.946   6.658  14.205
37117SOL     OW13189  12.323   5.647   4.725
37117SOL    HW113190  12.270   5.686   4.655
37117SOL    HW213191  12.414   5.664   4.698
37118SOL     OW13192   2.709  10.973   6.016
37118SOL    HW113193   2.700  10.883   5.983
37118SOL    HW213194   2.694  11.028   5.939
37119SOL     OW13195  10.035   2.409   8.245
37119SOL    HW113196  10.093   2.341   8.280
37119SOL    HW213197   9.994   2.448   8.323
37120SOL     OW13198  10.227  12.672  12.066
37120SOL    HW113199  10.284  12.595  12.063
37120SOL    HW213200  10.167  12.655  12.139
37121SOL     OW13201   2.345   7.911  13.489
37121SOL    HW113202   2.338   7.871  13.576
37121SOL    HW213203   2.304   7.848  13.430
37122SOL     OW13204   8.189   1.353  13.426
37122SOL    HW113205   8.173   1.383  13.515
37122SOL    HW213206   8.175   1.431  13.372
37123SOL     OW13207   4.826   7.868   4.597
37123SOL    HW113208   4.890   7.819   4.650
37123SOL    HW213209   4.795   7.938   4.654
37124SOL     OW13210  14.745   1.812   7.670
37124SOL    HW113211  14.786   1.777   7.749
37124SOL    HW213212  14.819   1.834   7.613
37125SOL     OW13213   5.272   7.394  10.435
37125SOL    HW113214   5.282   7.304  10.466
37125SOL    HW213215   5.359   7.420  10.405
37126SOL     OW13216   4.923   2.382   6.934
37126SOL    HW113217   4.901   2.301   6.889
37126SOL    HW213218   4.853   2.394   6.998
37127SOL     OW13219   3.912   0.220   9.433
37127SOL    HW113220   3.899   0.300   9.383
37127SOL    HW213221   3.831   0.210   9.484
37128SOL     OW13222   1.217  10.056   4.147
37128SOL    HW113223   1.174   9.972   4.162
37128SOL    HW213224   1.186  10.112   4.218
37129SOL     OW13225  13.102  14.429   7.156
37129SOL    HW113226  13.128  14.371   7.085
37129SOL    HW213227  13.157  14.507   7.145
37130SOL     OW13228   1.106   8.402  13.534
37130SOL    HW113229   1.180   8.399  13.594
37130SOL    HW213230   1.045   8.337  13.568
37131SOL     OW13231   8.236  14.004   5.164
37131SOL    HW113232   8.307  13.954   5.124
37131SOL    HW213233   8.259  14.008   5.257
37132SOL     OW13234   0.389   1.373   2.979
37132SOL    HW113235   0.368   1.464   2.955
37132SOL    HW213236   0.355   1.321   2.906
37133SOL     OW13237   1.063   1.017   7.727
37133SOL    HW113238   0.984   1.041   7.776
37133SOL    HW213239   1.078   0.925   7.748
37134SOL     OW13240   0.335   0.334   9.476
37134SOL    HW113241   0.395   0.356   9.547
37134SOL    HW213242   0.280   0.411   9.465
37135SOL     OW13243   9.326   7.480  11.583
37135SOL    HW113244   9.292   7.446  11.500
37135SOL    HW213245   9.328   7.575  11.570
37136SOL     OW13246   5.493   2.407   7.268
37136SOL    HW113247   5.529   2.328   7.309
37136SOL    HW213248   5.398   2.394   7.270
37137SOL     OW13249  13.434   2.811   1.187
37137SOL    HW113250  13.453   2.737   1.245
37137SOL    HW213251  13.386   2.873   1.242
37138SOL     OW13252   9.123  12.262   7.470
37138SOL    HW113253   9.133  12.304   7.384
37138SOL    HW213254   9.036  12.223   7.467
37139SOL     OW13255   6.832   7.459  12.639
37139SOL    HW113256   6.882   7.390  12.596
37139SOL    HW213257   6.898   7.513  12.683
37140SOL     OW13258   1.753   7.032   6.137
37140SOL    HW113259   1.794   7.046   6.222
37140SOL    HW213260   1.767   7.115   6.090
37141SOL     OW13261   5.846  10.268   3.512
37141SOL    HW113262   5.817  10.299   3.426
37141SOL    HW213263   5.917  10.328   3.536
37142SOL     OW13264   0.442  12.185  10.848
37142SOL    HW113265   0.361  12.233  10.865
37142SOL    HW213266   0.430  12.102  10.895
37143SOL     OW13267  13.825   4.351   9.448
37143SOL    HW113268  13.864   4.341   9.361
37143SOL    HW213269  13.739   4.310   9.440
37144SOL     OW13270   0.352   5.942  14.367
37144SOL    HW113271   0.272   5.959  14.417
37144SOL    HW213272   0.343   5.852  14.337
37145SOL     OW13273  14.257   5.084   8.300
37145SOL    HW113274  14.335   5.031   8.287
37145SOL    HW213275  14.194   5.025   8.342
37146SOL     OW13276  12.041  11.551  11.657
37146SOL    HW113277  12.126  11.539  11.615
37146SOL    HW213278  12.003  11.627  11.613
37147SOL     OW13279   0.897   9.008   4.485
37147SOL    HW113280   0.989   8.997   4.461
37147SOL    HW213281   0.892   9.098   4.517
37148SOL     OW13282  12.476  13.923   5.311
37148SOL    HW113283  12.440  13.858   5.251
37148SOL    HW213284  12.560  13.948   5.272
37149SOL     OW13285   9.950   7.945  10.963
37149SOL    HW113286   9.964   7.873  10.901
37149SOL    HW213287   9.944   8.023  10.908
37150SOL     OW13288  12.797  11.682   5.453
37150SOL    HW113289  12.848  11.728   5.520
37150SOL    HW213290  12.736  11.748   5.421
37151SOL     OW13291   5.886  12.820  11.038
37151SOL    HW113292   5.903  12.740  10.989
37151SOL    HW213293   5.830  12.872  10.980
37152SOL     OW13294   8.704  12.685   5.497
37152SOL    HW113295   8.674  12.630   5.425
37152SOL    HW213296   8.717  12.625   5.570
37153SOL     OW13297   6.196   1.858   1.793
37153SOL    HW113298   6.151   1.942   1.788
37153SOL    HW213299   6.133   1.795   1.757
37154SOL     OW13300  12.574   5.593   4.396
37154SOL    HW113301  12.564   5.673   4.448
37154SOL    HW213302  12.598   5.624   4.309
37155SOL     OW13303   7.731   6.231  11.736
37155SOL    HW113304   7.777   6.199  11.658
37155SOL    HW213305   7.798   6.275  11.787
37156SOL     OW13306   9.468   8.605   9.980
37156SOL    HW113307   9.379   8.640   9.986
37156SOL    HW213308   9.482   8.591   9.886
37157SOL     OW13309  13.321   8.125   3.685
37157SOL    HW113310  13.334   8.030   3.684
37157SOL    HW213311  13.371   8.157   3.610
37158SOL     OW13312  12.499   3.757   0.415
37158SOL    HW113313  12.483   3.720   0.328
37158SOL    HW213314  12.412   3.778   0.448
37159SOL     OW13315  13.976  13.265   8.367
37159SOL    HW113316  13.934  13.294   8.287
37159SOL    HW213317  13.927  13.187   8.393
37160SOL     OW13318   4.756  13.796   2.462
37160SOL    HW113319   4.808  13.717   2.447
37160SOL    HW213320   4.820  13.860   2.493
37161SOL     OW13321   1.286   4.651   5.408
37161SOL    HW113322   1.380   4.634   5.409
37161SOL    HW213323   1.276   4.732   5.459
37162SOL     OW13324  12.896   8.982   2.838
37162SOL    HW113325  12.886   9.002   2.744
37162SOL    HW213326  12.823   8.924   2.858
37163SOL     OW13327  14.646   1.680  13.179
37163SOL    HW113328  14.649   1.672  13.274
37163SOL    HW213329  14.733   1.651  13.150
37164SOL     OW13330   0.405  13.128  12.239
37164SOL    HW113331   0.435  13.177  12.162
37164SOL    HW213332   0.478  13.071  12.262
37165SOL     OW13333   1.450   1.884  13.401
37165SOL    HW113334   1.470   1.938  13.478
37165SOL    HW213335   1.357   1.897  13.385
37166SOL     OW13336  12.792   2.476   9.576
37166SOL    HW113337  12.841   2.436   9.505
37166SOL    HW213338  12.700   2.454   9.559
37167SOL     OW13339   3.736  11.395   2.795
37167SOL    HW113340   3.831  11.394   2.786
37167SOL    HW213341   3.720  11.435   2.881
37168SOL     OW13342   4.839   2.718   0.295
37168SOL    HW113343   4.934   2.724   0.291
37168SOL    HW213344   4.809   2.808   0.287
37169SOL     OW13345   8.388  10.259  11.153
37169SOL    HW113346   8.331  10.279  11.228
37169SOL    HW213347   8.457  10.204  11.190
37170SOL     OW13348   6.628  13.279   9.823
37170SOL    HW113349   6.707  13.256   9.872
37170SOL    HW213350   6.557  13.270   9.886
37171SOL     OW13351  13.977   9.870   8.792
37171SOL    HW113352  14.042   9.938   8.773
37171SOL    HW213353  13.968   9.821   8.710
37172SOL     OW13354  12.578   8.656   5.118
37172SOL    HW113355  12.607   8.702   5.040
37172SOL    HW213356  12.521   8.718   5.163
37173SOL     OW13357   5.409  10.501   1.105
37173SOL    HW113358   5.504  10.503   1.114
37173SOL    HW213359   5.393  10.438   1.035
37174SOL     OW13360   8.861   2.040   1.545
37174SOL    HW113361   8.950   2.042   1.511
37174SOL    HW213362   8.829   2.130   1.533
37175SOL     OW13363  12.562   9.790   3.261
37175SOL    HW113364  12.637   9.850   3.257
37175SOL    HW213365  12.506   9.817   3.188
37176SOL     OW13366   0.648   4.319   2.787
37176SOL    HW113367   0.707   4.380   2.830
37176SOL    HW213368   0.669   4.234   2.825
37177SOL     OW13369   7.316   1.093  11.535
37177SOL    HW113370   7.341   1.149  11.462
37177SOL    HW213371   7.226   1.120  11.555
37178SOL     OW13372   7.002  10.980   4.238
37178SOL    HW113373   7.039  11.048   4.181
37178SOL    HW213374   6.972  10.912   4.177
37179SOL     OW13375  10.091   9.716   6.769
37179SOL    HW113376  10.069   9.700   6.861
37179SOL    HW213377  10.174   9.763   6.771
37180SOL     OW13378   4.933   1.614   7.528
37180SOL    HW113379   5.019   1.602   7.488
37180SOL    HW213380   4.885   1.534   7.507
37181SOL     OW13381  13.347   4.258  12.380
37181SOL    HW113382  13.263   4.270  12.425
37181SOL    HW213383  13.392   4.190  12.430
37182SOL     OW13384   8.827   1.117  13.248
37182SOL    HW113385   8.892   1.096  13.181
37182SOL    HW213386   8.860   1.197  13.290
37183SOL     OW13387   0.006   9.388   6.786
37183SOL    HW113388   0.021   9.300   6.820
37183SOL    HW213389  14.830   9.375   6.709
37184SOL     OW13390   1.020  11.395   2.755
37184SOL    HW113391   0.993  11.303   2.762
37184SOL    HW213392   0.938  11.443   2.745
37185SOL     OW13393   5.854  13.034   7.589
37185SOL    HW113394   5.894  13.110   7.631
37185SOL    HW213395   5.860  13.052   7.495
37186SOL     OW13396   5.539   6.918  12.703
37186SOL    HW113397   5.609   6.867  12.744
37186SOL    HW213398   5.476   6.852  12.674
37187SOL     OW13399   0.393   0.111   9.333
37187SOL    HW113400   0.362   0.189   9.380
37187SOL    HW213401   0.488   0.121   9.333
37188SOL     OW13402  10.775  12.890   4.201
37188SOL    HW113403  10.826  12.939   4.266
37188SOL    HW213404  10.717  12.834   4.253
37189SOL     OW13405   0.961  11.293   9.960
37189SOL    HW113406   1.007  11.351  10.021
37189SOL    HW213407   1.031  11.247   9.913
37190SOL     OW13408   8.388  14.755   3.248
37190SOL    HW113409   8.434  14.788   3.325
37190SOL    HW213410   8.456  14.719   3.192
37191SOL     OW13411  12.377   0.918  11.372
37191SOL    HW113412  12.378   0.965  11.288
37191SOL    HW213413  12.321   0.843  11.357
37192SOL     OW13414   6.398   3.213   9.453
37192SOL    HW113415   6.306   3.237   9.459
37192SOL    HW213416   6.405   3.128   9.497
37193SOL     OW13417   6.667   3.313   3.271
37193SOL    HW113418   6.660   3.407   3.253
37193SOL    HW213419   6.715   3.308   3.354
37194SOL     OW13420  11.800  11.453   7.633
37194SOL    HW113421  11.715  11.440   7.591
37194SOL    HW213422  11.779  11.483   7.721
37195SOL     OW13423  14.262   4.014  14.622
37195SOL    HW113424  14.226   3.955  14.556
37195SOL    HW213425  14.187   4.037  14.677
37196SOL     OW13426   2.249   5.839  12.537
37196SOL    HW113427   2.255   5.856  12.443
37196SOL    HW213428   2.325   5.885  12.574
37197SOL     OW13429   8.623  13.556   2.866
37197SOL    HW113430   8.647  13.641   2.902
37197SOL    HW213431   8.561  13.577   2.796
37198SOL     OW13432  10.929   3.259  10.214
37198SOL    HW113433  10.864   3.210  10.263
37198SOL    HW213434  10.931   3.345  10.256
37199SOL     OW13435  14.535   4.111   0.214
37199SOL    HW113436  14.472   4.087   0.282
37199SOL    HW213437  14.493   4.083   0.132
37200SOL     OW13438   7.266   7.844  14.601
37200SOL    HW113439   7.258   7.870  14.692
37200SOL    HW213440   7.235   7.920  14.551
37201SOL     OW13441   8.590   8.406   9.376
37201SOL    HW113442   8.609   8.314   9.357
37201SOL    HW213443   8.579   8.409   9.471
37202SOL     OW13444   1.163   1.920   7.071
37202SOL    HW113445   1.139   1.960   6.988
37202SOL    HW213446   1.126   1.832   7.066
37203SOL     OW13447   7.131   0.572   9.068
37203SOL    HW113448   7.115   0.478   9.053
37203SOL    HW213449   7.220   0.576   9.102
37204SOL     OW13450   2.343   9.717   6.585
37204SOL    HW113451   2.337   9.801   6.539
37204SOL    HW213452   2.252   9.688   6.594
37205SOL     OW13453  14.598   0.634  12.549
37205SOL    HW113454  14.553   0.611  12.468
37205SOL    HW213455  14.566   0.569  12.613
37206SOL     OW13456   9.965  14.481   8.205
37206SOL    HW113457   9.959  14.561   8.152
37206SOL    HW213458   9.877  14.443   8.201
37207SOL     OW13459   5.442  11.734   1.218
37207SOL    HW113460   5.479  11.756   1.304
37207SOL    HW213461   5.469  11.644   1.202
37208SOL     OW13462   7.952   0.508   8.680
37208SOL    HW113463   7.878   0.549   8.725
37208SOL    HW213464   7.967   0.426   8.727
37209SOL     OW13465   5.774   2.886   1.551
37209SOL    HW113466   5.744   2.951   1.616
37209SOL    HW213467   5.698   2.872   1.495
37210SOL     OW13468   7.152   8.698   9.194
37210SOL    HW113469   7.246   8.687   9.206
37210SOL    HW213470   7.144   8.761   9.122
37211SOL     OW13471   6.145  11.648   3.001
37211SOL    HW113472   6.079  11.605   2.947
37211SOL    HW213473   6.226  11.600   2.983
37212SOL     OW13474   2.523  11.311   9.510
37212SOL    HW113475   2.455  11.368   9.472
37212SOL    HW213476   2.588  11.371   9.546
37213SOL     OW13477  10.040   9.778   9.721
37213SOL    HW113478  10.081   9.693   9.741
37213SOL    HW213479  10.027   9.819   9.807
37214SOL     OW13480   0.953   3.738   2.564
37214SOL    HW113481   0.879   3.774   2.614
37214SOL    HW213482   0.979   3.660   2.613
37215SOL     OW13483   3.012   3.092  10.773
37215SOL    HW113484   3.086   3.043  10.736
37215SOL    HW213485   3.050   3.175  10.801
37216SOL     OW13486   0.389   5.610   2.239
37216SOL    HW113487   0.455   5.678   2.226
37216SOL    HW213488   0.418   5.565   2.319
37217SOL     OW13489  12.592  11.662  11.023
37217SOL    HW113490  12.531  11.734  11.036
37217SOL    HW213491  12.582  11.607  11.100
37218SOL     OW13492   0.015   8.532   5.445
37218SOL    HW113493  14.853   8.498   5.365
37218SOL    HW213494  14.864   8.473   5.514
37219SOL     OW13495  11.124  13.044   3.610
37219SOL    HW113496  11.183  13.065   3.538
37219SOL    HW213497  11.182  13.010   3.679
37220SOL     OW13498   7.239  13.648   8.250
37220SOL    HW113499   7.217  13.562   8.214
37220SOL    HW213500   7.176  13.707   8.210
37221SOL     OW13501   8.220  13.969  10.625
37221SOL    HW113502   8.244  14.054  10.587
37221SOL    HW213503   8.217  13.985  10.719
37222SOL     OW13504   6.246   1.155   1.549
37222SOL    HW113505   6.332   1.115   1.551
37222SOL    HW213506   6.186   1.086   1.579
37223SOL     OW13507   9.499   2.932   4.221
37223SOL    HW113508   9.576   2.907   4.170
37223SOL    HW213509   9.503   3.028   4.224
37224SOL     OW13510   1.320   9.774  13.688
37224SOL    HW113511   1.391   9.737  13.635
37224SOL    HW213512   1.309   9.712  13.759
37225SOL     OW13513   1.788  14.849   0.125
37225SOL    HW113514   1.805  14.798   0.047
37225SOL    HW213515   1.870   0.016   0.142
37226SOL     OW13516  12.345   0.190   9.782
37226SOL    HW113517  12.296   0.136   9.843
37226SOL    HW213518  12.301   0.275   9.785
37227SOL     OW13519  14.029   6.026   8.771
37227SOL    HW113520  13.934   6.038   8.768
37227SOL    HW213521  14.064   6.114   8.786
37228SOL     OW13522  11.048   6.708   8.810
37228SOL    HW113523  11.070   6.644   8.741
37228SOL    HW213524  11.055   6.793   8.766
37229SOL     OW13525   2.909  13.718  13.060
37229SOL    HW113526   2.958  13.758  12.988
37229SOL    HW213527   2.821  13.704  13.024
37230SOL     OW13528   7.945   1.357  13.672
37230SOL    HW113529   7.850   1.364  13.671
37230SOL    HW213530   7.966   1.309  13.592
37231SOL     OW13531   1.028  10.961  14.611
37231SOL    HW113532   1.076  10.945  14.692
37231SOL    HW213533   1.080  11.027  14.565
37232SOL     OW13534   6.840   6.997   1.564
37232SOL    HW113535   6.771   7.006   1.498
37232SOL    HW213536   6.921   7.016   1.516
37233SOL     OW13537  12.659  11.882   1.553
37233SOL    HW113538  12.686  11.973   1.559
37233SOL    HW213539  12.660  11.863   1.459
37234SOL     OW13540  14.164   2.400   2.991
37234SOL    HW113541  14.239   2.348   2.961
37234SOL    HW213542  14.089   2.341   2.985
37235SOL     OW13543   5.308  11.815   2.849
37235SOL    HW113544   5.302  11.737   2.905
37235SOL    HW213545   5.398  11.814   2.816
37236SOL     OW13546   9.497  14.741  11.726
37236SOL    HW113547   9.535  14.658  11.698
37236SOL    HW213548   9.403  14.731  11.712
37237SOL     OW13549   5.175  13.586   6.468
37237SOL    HW113550   5.250  13.541   6.431
37237SOL    HW213551   5.181  13.675   6.434
37238SOL     OW13552   5.294  14.124  10.729
37238SOL    HW113553   5.246  14.201  10.760
37238SOL    HW213554   5.352  14.157  10.660
37239SOL     OW13555  14.515   3.574  10.714
37239SOL    HW113556  14.596   3.538  10.748
37239SOL    HW213557  14.516   3.666  10.739
37240SOL     OW13558  14.186   6.262  11.585
37240SOL    HW113559  14.229   6.335  11.629
37240SOL    HW213560  14.093   6.283  11.590
37241SOL     OW13561   3.067   3.197   6.019
37241SOL    HW113562   3.149   3.213   5.971
37241SOL    HW213563   3.010   3.270   5.994
37242SOL     OW13564   0.713   8.519   3.602
37242SOL    HW113565   0.630   8.478   3.579
37242SOL    HW213566   0.778   8.472   3.550
37243SOL     OW13567  14.683  11.057   0.656
37243SOL    HW113568  14.588  11.045   0.660
37243SOL    HW213569  14.704  11.049   0.563
37244SOL     OW13570   3.741   7.374  13.512
37244SOL    HW113571   3.745   7.436  13.440
37244SOL    HW213572   3.674   7.410  13.570
37245SOL     OW13573  10.923   1.032  12.245
37245SOL    HW113574  10.977   1.050  12.322
37245SOL    HW213575  10.900   1.119  12.212
37246SOL     OW13576   8.744  12.852   8.098
37246SOL    HW113577   8.774  12.783   8.157
37246SOL    HW213578   8.653  12.830   8.079
37247SOL     OW13579   1.528   7.410   1.995
37247SOL    HW113580   1.515   7.501   2.024
37247SOL    HW213581   1.585   7.417   1.918
37248SOL     OW13582   4.451   0.487  12.032
37248SOL    HW113583   4.411   0.402  12.053
37248SOL    HW213584   4.377   0.547  12.025
37249SOL     OW13585   5.795  12.116   1.261
37249SOL    HW113586   5.829  12.028   1.247
37249SOL    HW213587   5.701  12.104   1.272
37250SOL     OW13588   5.261   3.812   0.743
37250SOL    HW113589   5.268   3.730   0.791
37250SOL    HW213590   5.346   3.855   0.756
37251SOL     OW13591   4.179   0.325   4.470
37251SOL    HW113592   4.209   0.415   4.482
37251SOL    HW213593   4.246   0.271   4.512
37252SOL     OW13594  12.359   5.461   0.050
37252SOL    HW113595  12.293   5.446   0.117
37252SOL    HW213596  12.341   5.549   0.017
37253SOL     OW13597  10.175   2.981  14.234
37253SOL    HW113598  10.082   2.985  14.255
37253SOL    HW213599  10.183   3.028  14.150
37254SOL     OW13600   7.269  12.798   3.179
37254SOL    HW113601   7.180  12.773   3.202
37254SOL    HW213602   7.259  12.855   3.103
37255SOL     OW13603   3.880   3.365   3.162
37255SOL    HW113604   3.903   3.457   3.146
37255SOL    HW213605   3.900   3.321   3.079
37256SOL     OW13606   1.756  13.061  11.105
37256SOL    HW113607   1.747  13.099  11.192
37256SOL    HW213608   1.736  12.968  11.117
37257SOL     OW13609   1.876   0.877   0.183
37257SOL    HW113610   1.871   0.856   0.090
37257SOL    HW213611   1.958   0.836   0.212
37258SOL     OW13612  14.877  14.415   2.912
37258SOL    HW113613   0.050  14.438   2.989
37258SOL    HW213614   0.058  14.368   2.854
37259SOL     OW13615   5.727   9.052   3.224
37259SOL    HW113616   5.686   9.132   3.258
37259SOL    HW213617   5.654   8.994   3.205
37260SOL     OW13618  14.457   8.874   4.123
37260SOL    HW113619  14.367   8.883   4.092
37260SOL    HW213620  14.502   8.828   4.052
37261SOL     OW13621   6.950  13.402   4.522
37261SOL    HW113622   7.044  13.386   4.523
37261SOL    HW213623   6.929  13.416   4.430
37262SOL     OW13624   2.830   6.828   8.412
37262SOL    HW113625   2.740   6.810   8.439
37262SOL    HW213626   2.884   6.771   8.467
37263SOL     OW13627   8.224  14.308   7.007
37263SOL    HW113628   8.219  14.393   6.964
37263SOL    HW213629   8.137  14.295   7.046
37264SOL     OW13630   2.557  12.236   7.004
37264SOL    HW113631   2.487  12.282   6.957
37264SOL    HW213632   2.612  12.199   6.934
37265SOL     OW13633   2.863   2.657   5.926
37265SOL    HW113634   2.782   2.691   5.887
37265SOL    HW213635   2.901   2.732   5.971
37266SOL     OW13636   8.104   3.422   1.485
37266SOL    HW113637   8.052   3.382   1.415
37266SOL    HW213638   8.088   3.367   1.561
37267SOL     OW13639   7.378   5.301  13.152
37267SOL    HW113640   7.334   5.375  13.193
37267SOL    HW213641   7.318   5.272  13.083
37268SOL     OW13642   4.568   1.398   3.948
37268SOL    HW113643   4.578   1.332   4.016
37268SOL    HW213644   4.655   1.438   3.940
37269SOL     OW13645   8.085   3.099   2.918
37269SOL    HW113646   8.038   3.016   2.906
37269SOL    HW213647   8.016   3.161   2.944
37270SOL     OW13648   8.762   6.322   3.643
37270SOL    HW113649   8.846   6.330   3.598
37270SOL    HW213650   8.738   6.412   3.667
37271SOL     OW13651   7.247  10.484  12.911
37271SOL    HW113652   7.215  10.534  12.836
37271SOL    HW213653   7.309  10.421  12.874
37272SOL     OW13654   3.050   0.895   0.265
37272SOL    HW113655   3.123   0.858   0.315
37272SOL    HW213656   3.075   0.882   0.173
37273SOL     OW13657   6.352   1.452  10.032
37273SOL    HW113658   6.287   1.467   9.963
37273SOL    HW213659   6.329   1.367  10.070
37274SOL     OW13660   2.145   7.942   3.607
37274SOL    HW113661   2.215   7.925   3.671
37274SOL    HW213662   2.131   8.037   3.612
37275SOL     OW13663  11.462   7.619   7.469
37275SOL    HW113664  11.368   7.611   7.450
37275SOL    HW213665  11.500   7.656   7.390
37276SOL     OW13666   1.125  12.904   8.414
37276SOL    HW113667   1.066  12.919   8.340
37276SOL    HW213668   1.163  12.818   8.397
37277SOL     OW13669  13.163  14.556   5.676
37277SOL    HW113670  13.082  14.508   5.695
37277SOL    HW213671  13.231  14.508   5.722
37278SOL     OW13672   2.716   5.040  11.893
37278SOL    HW113673   2.688   5.131  11.880
37278SOL    HW213674   2.700   4.998  11.809
37279SOL     OW13675  14.590   2.377   0.346
37279SOL    HW113676  14.640   2.453   0.376
37279SOL    HW213677  14.559   2.402   0.259
37280SOL     OW13678  13.468   4.081  12.552
37280SOL    HW113679  13.471   3.989  12.578
37280SOL    HW213680  13.414   4.123  12.619
37281SOL     OW13681   1.295   7.584   8.630
37281SOL    HW113682   1.297   7.580   8.534
37281SOL    HW213683   1.374   7.537   8.657
37282SOL     OW13684   4.090   6.662  10.888
37282SOL    HW113685   4.165   6.722  10.888
37282SOL    HW213686   4.046   6.680  10.971
37283SOL     OW13687   2.898   3.422   5.990
37283SOL    HW113688   2.957   3.493   6.012
37283SOL    HW213689   2.882   3.432   5.896
37284SOL     OW13690  14.601   8.002  13.605
37284SOL    HW113691  14.633   8.091  13.586
37284SOL    HW213692  14.531   8.015  13.669
37285SOL     OW13693   7.899   8.063  10.010
37285SOL    HW113694   7.928   8.002  10.078
37285SOL    HW213695   7.822   8.105  10.046
37286SOL     OW13696   5.920  13.705   5.181
37286SOL    HW113697   5.856  13.673   5.244
37286SOL    HW213698   5.902  13.656   5.100
37287SOL     OW13699   8.394   9.844   3.393
37287SOL    HW113700   8.316   9.789   3.407
37287SOL    HW213701   8.463   9.781   3.373
37288SOL     OW13702   4.121   3.422  11.622
37288SOL    HW113703   4.205   3.461  11.600
37288SOL    HW213704   4.113   3.346  11.563
37289SOL     OW13705   4.613  12.531  11.851
37289SOL    HW113706   4.589  12.546  11.760
37289SOL    HW213707   4.618  12.435  11.859
37290SOL     OW13708  11.923  10.987   9.271
37290SOL    HW113709  11.900  11.018   9.183
37290SOL    HW213710  11.842  10.996   9.322
37291SOL     OW13711   2.061   9.559   8.045
37291SOL    HW113712   1.983   9.611   8.062
37291SOL    HW213713   2.033   9.495   7.980
37292SOL     OW13714   7.422   5.445  13.469
37292SOL    HW113715   7.490   5.378  13.484
37292SOL    HW213716   7.444   5.515  13.530
37293SOL     OW13717   1.028   1.278   4.920
37293SOL    HW113718   0.995   1.305   4.834
37293SOL    HW213719   1.029   1.359   4.971
37294SOL     OW13720  10.269  13.678   2.068
37294SOL    HW113721  10.347  13.624   2.050
37294SOL    HW213722  10.201  13.614   2.087
37295SOL     OW13723  11.008   3.577  12.224
37295SOL    HW113724  10.996   3.619  12.310
37295SOL    HW213725  10.931   3.521  12.214
37296SOL     OW13726   4.813   7.629   3.416
37296SOL    HW113727   4.781   7.539   3.424
37296SOL    HW213728   4.893   7.631   3.468
37297SOL     OW13729   1.973  13.849   3.013
37297SOL    HW113730   2.038  13.916   3.034
37297SOL    HW213731   2.019  13.789   2.954
37298SOL     OW13732   1.114   1.238   0.501
37298SOL    HW113733   1.022   1.231   0.475
37298SOL    HW213734   1.157   1.165   0.457
37299SOL     OW13735   8.190  14.137  12.741
37299SOL    HW113736   8.251  14.168  12.674
37299SOL    HW213737   8.216  14.046  12.757
37300SOL     OW13738   1.753   4.649   6.304
37300SOL    HW113739   1.703   4.701   6.367
37300SOL    HW213740   1.721   4.676   6.218
37301SOL     OW13741  14.759   4.656   2.058
37301SOL    HW113742  14.792   4.583   2.005
37301SOL    HW213743  14.664   4.646   2.055
37302SOL     OW13744  14.612   4.166   0.679
37302SOL    HW113745  14.689   4.112   0.657
37302SOL    HW213746  14.584   4.203   0.596
37303SOL     OW13747   0.820  12.644   2.394
37303SOL    HW113748   0.828  12.705   2.468
37303SOL    HW213749   0.859  12.690   2.320
37304SOL     OW13750  14.722   9.368   2.071
37304SOL    HW113751  14.657   9.359   2.140
37304SOL    HW213752  14.708   9.291   2.016
37305SOL     OW13753   5.142   4.465   4.664
37305SOL    HW113754   5.235   4.478   4.686
37305SOL    HW213755   5.106   4.420   4.740
37306SOL     OW13756   1.107  14.762   7.262
37306SOL    HW113757   1.154  14.842   7.241
37306SOL    HW213758   1.167  14.692   7.237
37307SOL     OW13759  13.988   4.823   1.251
37307SOL    HW113760  13.916   4.879   1.224
37307SOL    HW213761  14.055   4.883   1.283
37308SOL     OW13762  11.460  12.198   6.384
37308SOL    HW113763  11.497  12.266   6.329
37308SOL    HW213764  11.370  12.188   6.353
37309SOL     OW13765   6.215   9.782   8.063
37309SOL    HW113766   6.305   9.801   8.086
37309SOL    HW213767   6.169   9.778   8.146
37310SOL     OW13768   3.103  11.481  12.331
37310SOL    HW113769   3.054  11.399  12.335
37310SOL    HW213770   3.057  11.540  12.390
37311SOL     OW13771   5.903   6.786   6.942
37311SOL    HW113772   5.891   6.881   6.943
37311SOL    HW213773   5.998   6.774   6.943
37312SOL     OW13774  11.761  11.728   0.113
37312SOL    HW113775  11.854  11.742   0.130
37312SOL    HW213776  11.718  11.804   0.151
37313SOL     OW13777   7.427   9.924   9.566
37313SOL    HW113778   7.499   9.968   9.520
37313SOL    HW213779   7.350   9.977   9.545
37314SOL     OW13780   2.602   9.358  10.948
37314SOL    HW113781   2.559   9.425  11.001
37314SOL    HW213782   2.670   9.323  11.005
37315SOL     OW13783   6.901   3.028  11.104
37315SOL    HW113784   6.992   3.049  11.084
37315SOL    HW213785   6.892   2.936  11.082
37316SOL     OW13786  12.294   2.549  13.745
37316SOL    HW113787  12.357   2.600  13.797
37316SOL    HW213788  12.223   2.530  13.807
37317SOL     OW13789   5.339   3.174   0.097
37317SOL    HW113790   5.370   3.116   0.167
37317SOL    HW213791   5.306   3.251   0.143
37318SOL     OW13792  14.755   1.017   1.827
37318SOL    HW113793  14.790   1.003   1.915
37318SOL    HW213794  14.670   1.059   1.842
37319SOL     OW13795   7.755   0.724   1.165
37319SOL    HW113796   7.743   0.630   1.153
37319SOL    HW213797   7.751   0.760   1.077
37320SOL     OW13798   6.678   7.169   2.806
37320SOL    HW113799   6.756   7.215   2.777
37320SOL    HW213800   6.655   7.112   2.732
37321SOL     OW13801   6.778   4.104   0.933
37321SOL    HW113802   6.711   4.054   0.979
37321SOL    HW213803   6.768   4.078   0.841
37322SOL     OW13804   7.499   4.615   8.936
37322SOL    HW113805   7.450   4.620   9.018
37322SOL    HW213806   7.532   4.704   8.922
37323SOL     OW13807   2.011   8.535  13.761
37323SOL    HW113808   2.099   8.518  13.728
37323SOL    HW213809   1.957   8.465  13.723
37324SOL     OW13810   5.798   4.167  10.433
37324SOL    HW113811   5.842   4.173  10.518
37324SOL    HW213812   5.751   4.083  10.437
37325SOL     OW13813   2.927   3.803   4.307
37325SOL    HW113814   2.862   3.733   4.315
37325SOL    HW213815   2.889   3.875   4.357
37326SOL     OW13816   9.227   0.899   1.069
37326SOL    HW113817   9.271   0.911   0.985
37326SOL    HW213818   9.183   0.814   1.061
37327SOL     OW13819   0.994   1.564   7.943
37327SOL    HW113820   0.930   1.614   7.994
37327SOL    HW213821   0.975   1.587   7.852
37328SOL     OW13822   6.085   9.451  14.163
37328SOL    HW113823   6.065   9.376  14.106
37328SOL    HW213824   6.002   9.498  14.171
37329SOL     OW13825  12.403   8.421  14.379
37329SOL    HW113826  12.376   8.333  14.406
37329SOL    HW213827  12.477   8.442  14.437
37330SOL     OW13828  13.615  13.136   6.424
37330SOL    HW113829  13.626  13.093   6.509
37330SOL    HW213830  13.691  13.106   6.373
37331SOL     OW13831   5.435   7.938   0.140
37331SOL    HW113832   5.424   8.009   0.203
37331SOL    HW213833   5.349   7.897   0.134
37332SOL     OW13834  12.873   9.713   2.372
37332SOL    HW113835  12.938   9.713   2.442
37332SOL    HW213836  12.820   9.792   2.388
37333SOL     OW13837   4.353   0.309  11.092
37333SOL    HW113838   4.387   0.285  11.179
37333SOL    HW213839   4.260   0.286  11.096
37334SOL     OW13840   2.125  11.257  12.617
37334SOL    HW113841   2.037  11.223  12.634
37334SOL    HW213842   2.112  11.352  12.608
37335SOL     OW13843  12.607   6.383  13.713
37335SOL    HW113844  12.702   6.368  13.720
37335SOL    HW213845  12.569   6.314  13.768
37336SOL     OW13846   0.083   7.865  14.407
37336SOL    HW113847   0.122   7.781  14.385
37336SOL    HW213848  14.869   7.847  14.420
37337SOL     OW13849   1.870   1.001   7.190
37337SOL    HW113850   1.883   1.096   7.188
37337SOL    HW213851   1.796   0.989   7.250
37338SOL     OW13852   6.158   3.493   7.207
37338SOL    HW113853   6.133   3.537   7.125
37338SOL    HW213854   6.120   3.405   7.199
37339SOL     OW13855  10.121   6.918   1.764
37339SOL    HW113856  10.028   6.916   1.783
37339SOL    HW213857  10.148   6.826   1.767
37340SOL     OW13858   5.517   5.098   9.533
37340SOL    HW113859   5.460   5.022   9.522
37340SOL    HW213860   5.597   5.063   9.573
37341SOL     OW13861  14.741   4.324  14.541
37341SOL    HW113862  14.680   4.316  14.468
37341SOL    HW213863  14.827   4.322  14.501
37342SOL     OW13864  14.577  13.762   7.113
37342SOL    HW113865  14.528  13.725   7.186
37342SOL    HW213866  14.634  13.691   7.084
37343SOL     OW13867  12.254   5.274   6.971
37343SOL    HW113868  12.231   5.218   6.897
37343SOL    HW213869  12.170   5.296   7.011
37344SOL     OW13870   8.934   5.727  10.008
37344SOL    HW113871   8.867   5.695  10.068
37344SOL    HW213872   8.959   5.649   9.957
37345SOL     OW13873   6.044   1.641  11.290
37345SOL    HW113874   5.967   1.671  11.340
37345SOL    HW213875   6.078   1.720  11.249
37346SOL     OW13876   5.469  10.081  14.523
37346SOL    HW113877   5.553  10.060  14.484
37346SOL    HW213878   5.409  10.088  14.449
37347SOL     OW13879  10.928   6.803   1.334
37347SOL    HW113880  10.958   6.740   1.268
37347SOL    HW213881  10.920   6.886   1.286
37348SOL     OW13882  14.796  12.231  11.207
37348SOL    HW113883  14.714  12.231  11.257
37348SOL    HW213884  14.865  12.224  11.273
37349SOL     OW13885   0.834  13.254   5.187
37349SOL    HW113886   0.900  13.211   5.132
37349SOL    HW213887   0.823  13.340   5.147
37350SOL     OW13888   6.932  12.179   5.958
37350SOL    HW113889   7.008  12.125   5.980
37350SOL    HW213890   6.966  12.268   5.957
37351SOL     OW13891  11.300  13.857   1.826
37351SOL    HW113892  11.252  13.838   1.746
37351SOL    HW213893  11.278  13.948   1.846
37352SOL     OW13894   9.902   3.255   4.802
37352SOL    HW113895   9.985   3.233   4.761
37352SOL    HW213896   9.838   3.200   4.758
37353SOL     OW13897   5.923  12.276  10.945
37353SOL    HW113898   5.944  12.310  11.032
37353SOL    HW213899   5.879  12.193  10.962
37354SOL     OW13900   6.361   1.598   1.425
37354SOL    HW113901   6.270   1.625   1.409
37354SOL    HW213902   6.360   1.503   1.415
37355SOL     OW13903   7.590   4.677   7.831
37355SOL    HW113904   7.638   4.754   7.862
37355SOL    HW213905   7.656   4.608   7.826
37356SOL     OW13906  10.581   1.353  11.782
37356SOL    HW113907  10.660   1.300  11.791
37356SOL    HW213908  10.548   1.332  11.695
37357SOL     OW13909   4.350  10.411   1.407
37357SOL    HW113910   4.349  10.316   1.415
37357SOL    HW213911   4.380  10.428   1.318
37358SOL     OW13912   1.293  14.392   9.490
37358SOL    HW113913   1.225  14.446   9.532
37358SOL    HW213914   1.358  14.456   9.459
37359SOL     OW13915  11.451   8.198   3.716
37359SOL    HW113916  11.540   8.167   3.733
37359SOL    HW213917  11.455   8.234   3.627
37360SOL     OW13918  12.267   4.117   7.764
37360SOL    HW113919  12.228   4.030   7.762
37360SOL    HW213920  12.358   4.103   7.740
37361SOL     OW13921   7.752   2.395  13.936
37361SOL    HW113922   7.773   2.400  14.029
37361SOL    HW213923   7.682   2.330  13.931
37362SOL     OW13924   0.056   5.087   0.607
37362SOL    HW113925   0.089   5.022   0.669
37362SOL    HW213926   0.009   5.036   0.542
37363SOL     OW13927  11.743   9.644   2.070
37363SOL    HW113928  11.792   9.685   1.999
37363SOL    HW213929  11.657   9.686   2.067
37364SOL     OW13930   0.070   0.694   6.703
37364SOL    HW113931   0.003   0.696   6.635
37364SOL    HW213932   0.043   0.759   6.767
37365SOL     OW13933   2.930   0.581   6.710
37365SOL    HW113934   2.913   0.627   6.628
37365SOL    HW213935   2.860   0.611   6.769
37366SOL     OW13936   8.243   8.485  12.808
37366SOL    HW113937   8.272   8.401  12.845
37366SOL    HW213938   8.288   8.551  12.859
37367SOL     OW13939   0.690   7.485   7.395
37367SOL    HW113940   0.658   7.569   7.426
37367SOL    HW213941   0.715   7.500   7.304
37368SOL     OW13942   7.571   6.136   3.786
37368SOL    HW113943   7.626   6.167   3.714
37368SOL    HW213944   7.577   6.204   3.852
37369SOL     OW13945   1.376   2.428  10.878
37369SOL    HW113946   1.466   2.413  10.907
37369SOL    HW213947   1.340   2.490  10.942
37370SOL     OW13948   3.420   0.824   7.094
37370SOL    HW113949   3.365   0.894   7.127
37370SOL    HW213950   3.461   0.786   7.172
37371SOL     OW13951   1.779   7.468  12.634
37371SOL    HW113952   1.700   7.474  12.581
37371SOL    HW213953   1.844   7.427  12.576
37372SOL     OW13954   0.033  14.582   0.699
37372SOL    HW113955  14.830  14.551   0.738
37372SOL    HW213956   0.008  14.660   0.649
37373SOL     OW13957   2.196   3.301  14.443
37373SOL    HW113958   2.201   3.268  14.532
37373SOL    HW213959   2.231   3.230  14.389
37374SOL     OW13960   8.054   9.307  14.227
37374SOL    HW113961   8.010   9.341  14.305
37374SOL    HW213962   8.146   9.297  14.253
37375SOL     OW13963   3.345   1.828  14.857
37375SOL    HW113964   3.431   1.795   0.003
37375SOL    HW213965   3.359   1.867  14.770
37376SOL     OW13966   7.307   2.060   3.458
37376SOL    HW113967   7.312   2.127   3.527
37376SOL    HW213968   7.241   2.093   3.397
37377SOL     OW13969   3.225   1.907  12.420
37377SOL    HW113970   3.188   1.936  12.504
37377SOL    HW213971   3.193   1.971  12.357
37378SOL     OW13972   5.275   9.875   6.175
37378SOL    HW113973   5.318   9.955   6.204
37378SOL    HW213974   5.331   9.805   6.208
37379SOL     OW13975   6.764  13.089   1.570
37379SOL    HW113976   6.818  13.067   1.645
37379SOL    HW213977   6.695  13.022   1.568
37380SOL     OW13978  13.845  12.443   8.686
37380SOL    HW113979  13.767  12.407   8.728
37380SOL    HW213980  13.859  12.527   8.730
37381SOL     OW13981  13.832   6.599  14.834
37381SOL    HW113982  13.834   6.535   0.025
37381SOL    HW213983  13.911   6.583  14.783
37382SOL     OW13984  14.862   5.400   2.451
37382SOL    HW113985   0.010   5.467   2.514
37382SOL    HW213986  14.865   5.444   2.367
37383SOL     OW13987   3.099   1.628  13.995
37383SOL    HW113988   3.068   1.673  13.916
37383SOL    HW213989   3.098   1.695  14.063
37384SOL     OW13990   5.634  13.299   5.610
37384SOL    HW113991   5.668  13.230   5.668
37384SOL    HW213992   5.669  13.277   5.523
37385SOL     OW13993  10.072   2.029   9.972
37385SOL    HW113994  10.035   2.016  10.059
37385SOL    HW213995  10.061   1.945   9.929
37386SOL     OW13996   6.217   2.534  10.266
37386SOL    HW113997   6.262   2.574  10.340
37386SOL    HW213998   6.195   2.445  10.296
37387SOL     OW13999   9.834  13.965   8.296
37387SOL    HW114000   9.776  13.916   8.239
37387SOL    HW214001   9.818  13.930   8.384
37388SOL     OW14002   6.455   3.135   5.582
37388SOL    HW114003   6.548   3.157   5.587
37388SOL    HW214004   6.444   3.063   5.645
37389SOL     OW14005   4.592   2.052  12.612
37389SOL    HW114006   4.594   2.015  12.524
37389SOL    HW214007   4.683   2.049  12.642
37390SOL     OW14008   6.110   7.179  14.697
37390SOL    HW114009   6.087   7.180  14.604
37390SOL    HW214010   6.150   7.264  14.713
37391SOL     OW14011   7.992  14.028   1.919
37391SOL    HW114012   8.062  14.091   1.934
37391SOL    HW214013   8.036  13.953   1.878
37392SOL     OW14014   9.193   6.458   2.492
37392SOL    HW114015   9.198   6.517   2.568
37392SOL    HW214016   9.266   6.484   2.437
37393SOL     OW14017   6.804   3.068  13.376
37393SOL    HW114018   6.719   3.026  13.394
37393SOL    HW214019   6.843   3.080  13.462
37394SOL     OW14020   5.577   8.306   3.798
37394SOL    HW114021   5.651   8.342   3.751
37394SOL    HW214022   5.558   8.223   3.754
37395SOL     OW14023   6.297   5.866   3.665
37395SOL    HW114024   6.257   5.918   3.595
37395SOL    HW214025   6.347   5.799   3.620
37396SOL     OW14026   5.379   4.987   4.580
37396SOL    HW114027   5.326   5.012   4.504
37396SOL    HW214028   5.430   5.066   4.600
37397SOL     OW14029   5.671   7.911  10.872
37397SOL    HW114030   5.692   7.841  10.810
37397SOL    HW214031   5.752   7.922  10.923
37398SOL     OW14032   5.878   2.066   0.999
37398SOL    HW114033   5.910   1.995   0.944
37398SOL    HW214034   5.782   2.060   0.991
37399SOL     OW14035   0.681   6.149  12.417
37399SOL    HW114036   0.763   6.165  12.371
37399SOL    HW214037   0.621   6.215  12.383
37400SOL     OW14038  12.115  14.384  10.854
37400SOL    HW114039  12.071  14.399  10.938
37400SOL    HW214040  12.165  14.303  10.868
37401SOL     OW14041  12.466  11.714   5.304
37401SOL    HW114042  12.488  11.668   5.386
37401SOL    HW214043  12.449  11.804   5.331
37402SOL     OW14044  13.876   5.784  11.400
37402SOL    HW114045  13.922   5.868  11.408
37402SOL    HW214046  13.913   5.744  11.321
37403SOL     OW14047  13.732   1.264  11.496
37403SOL    HW114048  13.698   1.174  11.487
37403SOL    HW214049  13.739   1.296  11.406
37404SOL     OW14050   5.970   8.778   9.901
37404SOL    HW114051   6.029   8.704   9.914
37404SOL    HW214052   5.889   8.752   9.947
37405SOL     OW14053  10.746  10.397   9.651
37405SOL    HW114054  10.756  10.358   9.738
37405SOL    HW214055  10.662  10.443   9.655
37406SOL     OW14056   7.446   1.701   1.375
37406SOL    HW114057   7.424   1.649   1.452
37406SOL    HW214058   7.361   1.732   1.343
37407SOL     OW14059   6.232  12.976   8.591
37407SOL    HW114060   6.291  12.902   8.606
37407SOL    HW214061   6.270  13.048   8.641
37408SOL     OW14062   0.556  14.574   6.222
37408SOL    HW114063   0.504  14.654   6.220
37408SOL    HW214064   0.573  14.559   6.315
37409SOL     OW14065  11.775   8.736   2.099
37409SOL    HW114066  11.700   8.710   2.046
37409SOL    HW214067  11.804   8.819   2.061
37410SOL     OW14068   1.661   1.463   4.232
37410SOL    HW114069   1.637   1.414   4.310
37410SOL    HW214070   1.744   1.505   4.255
37411SOL     OW14071  12.461  11.454  14.079
37411SOL    HW114072  12.391  11.389  14.067
37411SOL    HW214073  12.441  11.522  14.016
37412SOL     OW14074   0.738   4.525   3.509
37412SOL    HW114075   0.797   4.554   3.578
37412SOL    HW214076   0.653   4.515   3.552
37413SOL     OW14077   1.896   2.210   8.438
37413SOL    HW114078   1.930   2.132   8.481
37413SOL    HW214079   1.804   2.189   8.418
37414SOL     OW14080   3.954   2.828   0.668
37414SOL    HW114081   3.931   2.802   0.579
37414SOL    HW214082   3.897   2.903   0.686
37415SOL     OW14083   3.605  14.181   5.693
37415SOL    HW114084   3.657  14.125   5.635
37415SOL    HW214085   3.516  14.174   5.659
37416SOL     OW14086   0.479   0.829  12.843
37416SOL    HW114087   0.436   0.770  12.904
37416SOL    HW214088   0.527   0.772  12.784
37417SOL     OW14089  10.879  13.237  14.879
37417SOL    HW114090  10.866  13.146   0.024
37417SOL    HW214091  10.971  13.254   0.017
37418SOL     OW14092  14.439   8.990  13.162
37418SOL    HW114093  14.532   9.011  13.154
37418SOL    HW214094  14.419   9.002  13.255
37419SOL     OW14095   9.871   9.387   5.517
37419SOL    HW114096   9.793   9.390   5.571
37419SOL    HW214097   9.879   9.295   5.491
37420SOL     OW14098   2.568  12.506   6.006
37420SOL    HW114099   2.643  12.466   6.050
37420SOL    HW214100   2.525  12.433   5.961
37421SOL     OW14101  11.862   3.612   7.279
37421SOL    HW114102  11.955   3.590   7.286
37421SOL    HW214103  11.832   3.617   7.370
37422SOL     OW14104   0.970   5.214   0.308
37422SOL    HW114105   1.000   5.197   0.218
37422SOL    HW214106   0.878   5.189   0.308
37423SOL     OW14107  14.739  12.233   5.056
37423SOL    HW114108  14.733  12.185   4.973
37423SOL    HW214109  14.762  12.322   5.030
37424SOL     OW14110  13.221   7.518  10.798
37424SOL    HW114111  13.287   7.524  10.729
37424SOL    HW214112  13.250   7.445  10.852
37425SOL     OW14113  14.459  11.004   1.538
37425SOL    HW114114  14.509  11.084   1.527
37425SOL    HW214115  14.482  10.950   1.462
37426SOL     OW14116   0.651   8.873  11.487
37426SOL    HW114117   0.735   8.919  11.475
37426SOL    HW214118   0.663   8.821  11.566
37427SOL     OW14119  11.383   2.617   2.280
37427SOL    HW114120  11.395   2.543   2.340
37427SOL    HW214121  11.399   2.694   2.335
37428SOL     OW14122  11.340   6.661  13.186
37428SOL    HW114123  11.388   6.612  13.253
37428SOL    HW214124  11.323   6.597  13.117
37429SOL     OW14125   8.213   5.596   1.235
37429SOL    HW114126   8.250   5.637   1.157
37429SOL    HW214127   8.289   5.566   1.285
37430SOL     OW14128  12.714   5.721  11.977
37430SOL    HW114129  12.638   5.663  11.973
37430SOL    HW214130  12.678   5.808  11.960
37431SOL     OW14131   9.183   9.501   9.944
37431SOL    HW114132   9.259   9.455   9.980
37431SOL    HW214133   9.135   9.532  10.021
37432SOL     OW14134   3.690  10.430   9.303
37432SOL    HW114135   3.666  10.522   9.296
37432SOL    HW214136   3.610  10.386   9.332
37433SOL     OW14137   9.770   5.595   6.079
37433SOL    HW114138   9.676   5.612   6.071
37433SOL    HW214139   9.788   5.529   6.012
37434SOL     OW14140  13.595   0.392   4.174
37434SOL    HW114141  13.500   0.378   4.181
37434SOL    HW214142  13.603   0.477   4.131
37435SOL     OW14143   2.408   9.336   5.652
37435SOL    HW114144   2.479   9.280   5.685
37435SOL    HW214145   2.330   9.303   5.696
37436SOL     OW14146   2.971  12.384   7.716
37436SOL    HW114147   3.013  12.458   7.673
37436SOL    HW214148   2.948  12.416   7.804
37437SOL     OW14149   2.640   2.012   4.008
37437SOL    HW114150   2.597   2.019   4.093
37437SOL    HW214151   2.714   1.955   4.023
37438SOL     OW14152  12.948  10.800   6.442
37438SOL    HW114153  12.881  10.742   6.477
37438SOL    HW214154  12.991  10.748   6.374
37439SOL     OW14155  11.467   6.825   0.012
37439SOL    HW114156  11.478   6.817   0.107
37439SOL    HW214157  11.544   6.783  14.854
37440SOL     OW14158   4.528  12.744   3.380
37440SOL    HW114159   4.505  12.692   3.457
37440SOL    HW214160   4.446  12.786   3.354
37441SOL     OW14161  12.249   4.600   8.369
37441SOL    HW114162  12.192   4.658   8.419
37441SOL    HW214163  12.244   4.633   8.279
37442SOL     OW14164   9.356   4.575   7.100
37442SOL    HW114165   9.398   4.500   7.142
37442SOL    HW214166   9.414   4.649   7.121
37443SOL     OW14167  14.728   2.744   6.156
37443SOL    HW114168  14.639   2.771   6.137
37443SOL    HW214169  14.723   2.704   6.243
37444SOL     OW14170  10.487   4.377  13.419
37444SOL    HW114171  10.418   4.374  13.485
37444SOL    HW214172  10.441   4.405  13.339
37445SOL     OW14173   7.899   3.313   2.535
37445SOL    HW114174   7.941   3.256   2.471
37445SOL    HW214175   7.966   3.379   2.556
37446SOL     OW14176   8.439  10.644   9.740
37446SOL    HW114177   8.397  10.608   9.662
37446SOL    HW214178   8.403  10.594   9.813
37447SOL     OW14179   2.985   1.316   2.401
37447SOL    HW114180   2.975   1.387   2.337
37447SOL    HW214181   3.052   1.259   2.363
37448SOL     OW14182  12.040   8.514  14.361
37448SOL    HW114183  12.016   8.464  14.439
37448SOL    HW214184  12.068   8.448  14.298
37449SOL     OW14185  10.050  13.131   7.419
37449SOL    HW114186  10.144  13.143   7.404
37449SOL    HW214187  10.033  13.176   7.502
37450SOL     OW14188   3.249  13.729   2.582
37450SOL    HW114189   3.282  13.734   2.672
37450SOL    HW214190   3.171  13.783   2.581
37451SOL     OW14191   3.174  10.861  13.765
37451SOL    HW114192   3.171  10.782  13.819
37451SOL    HW214193   3.085  10.896  13.769
37452SOL     OW14194   4.588  11.579   0.703
37452SOL    HW114195   4.535  11.510   0.664
37452SOL    HW214196   4.566  11.577   0.796
37453SOL     OW14197   2.851   0.203   3.282
37453SOL    HW114198   2.861   0.266   3.211
37453SOL    HW214199   2.872   0.119   3.242
37454SOL     OW14200   7.136   2.933  12.561
37454SOL    HW114201   7.223   2.968  12.545
37454SOL    HW214202   7.131   2.855  12.506
37455SOL     OW14203   4.237   8.836   5.294
37455SOL    HW114204   4.180   8.848   5.370
37455SOL    HW214205   4.324   8.858   5.325
37456SOL     OW14206  12.158  10.566  10.555
37456SOL    HW114207  12.206  10.596  10.632
37456SOL    HW214208  12.104  10.494  10.586
37457SOL     OW14209   9.301  13.537   1.123
37457SOL    HW114210   9.326  13.577   1.207
37457SOL    HW214211   9.355  13.458   1.117
37458SOL     OW14212   1.282   6.752   5.071
37458SOL    HW114213   1.219   6.792   5.131
37458SOL    HW214214   1.340   6.700   5.127
37459SOL     OW14215   2.630   2.762   8.591
37459SOL    HW114216   2.555   2.820   8.578
37459SOL    HW214217   2.704   2.810   8.553
37460SOL     OW14218  14.472   2.824  12.303
37460SOL    HW114219  14.406   2.786  12.361
37460SOL    HW214220  14.549   2.835  12.359
37461SOL     OW14221  12.355   2.939   3.066
37461SOL    HW114222  12.344   3.005   2.997
37461SOL    HW214223  12.330   2.985   3.146
37462SOL     OW14224  10.156   2.896   7.377
37462SOL    HW114225  10.210   2.972   7.357
37462SOL    HW214226  10.099   2.925   7.448
37463SOL     OW14227   5.073   4.214   2.798
37463SOL    HW114228   5.050   4.163   2.720
37463SOL    HW214229   5.162   4.184   2.820
37464SOL     OW14230   0.823   9.868  10.010
37464SOL    HW114231   0.759   9.803  10.040
37464SOL    HW214232   0.883   9.818   9.955
37465SOL     OW14233   3.245  12.038   4.848
37465SOL    HW114234   3.245  12.119   4.797
37465SOL    HW214235   3.199  12.061   4.930
37466SOL     OW14236  12.504   3.293   1.828
37466SOL    HW114237  12.533   3.206   1.801
37466SOL    HW214238  12.578   3.330   1.875
37467SOL     OW14239   7.528   3.685  13.244
37467SOL    HW114240   7.453   3.684  13.304
37467SOL    HW214241   7.495   3.642  13.165
37468SOL     OW14242   8.358  10.244   8.834
37468SOL    HW114243   8.275  10.197   8.839
37468SOL    HW214244   8.372  10.258   8.740
37469SOL     OW14245   8.412   3.189  11.302
37469SOL    HW114246   8.379   3.101  11.283
37469SOL    HW214247   8.336   3.238  11.333
37470SOL     OW14248   0.029   6.895   3.958
37470SOL    HW114249  14.848   6.855   4.021
37470SOL    HW214250  14.854   6.915   3.882
37471SOL     OW14251   5.202   7.257   0.758
37471SOL    HW114252   5.108   7.252   0.742
37471SOL    HW214253   5.215   7.343   0.799
37472SOL     OW14254   8.790   6.343   7.702
37472SOL    HW114255   8.875   6.313   7.732
37472SOL    HW214256   8.779   6.429   7.742
37473SOL     OW14257   9.504   9.163  13.819
37473SOL    HW114258   9.555   9.240  13.792
37473SOL    HW214259   9.456   9.137  13.741
37474SOL     OW14260   9.226   3.567   0.425
37474SOL    HW114261   9.190   3.509   0.358
37474SOL    HW214262   9.182   3.651   0.410
37475SOL     OW14263  14.690   7.310   5.319
37475SOL    HW114264  14.635   7.239   5.285
37475SOL    HW214265  14.724   7.276   5.401
37476SOL     OW14266   7.512   5.052   9.572
37476SOL    HW114267   7.492   4.959   9.561
37476SOL    HW214268   7.517   5.086   9.482
37477SOL     OW14269  10.721   3.193   1.721
37477SOL    HW114270  10.774   3.228   1.793
37477SOL    HW214271  10.695   3.106   1.751
37478SOL     OW14272   0.133   0.739   7.702
37478SOL    HW114273   0.165   0.658   7.662
37478SOL    HW214274   0.212   0.792   7.714
37479SOL     OW14275  13.221  11.701   0.533
37479SOL    HW114276  13.170  11.772   0.495
37479SOL    HW214277  13.300  11.744   0.566
37480SOL     OW14278  11.334   6.809   8.718
37480SOL    HW114279  11.366   6.849   8.799
37480SOL    HW214280  11.248   6.848   8.704
37481SOL     OW14281  14.223  12.488   9.003
37481SOL    HW114282  14.226  12.413   9.062
37481SOL    HW214283  14.146  12.537   9.030
37482SOL     OW14284   4.600   7.403   7.962
37482SOL    HW114285   4.508   7.395   7.985
37482SOL    HW214286   4.646   7.350   8.027
37483SOL     OW14287  11.149   8.928   6.193
37483SOL    HW114288  11.154   8.848   6.142
37483SOL    HW214289  11.136   8.997   6.128
37484SOL     OW14290  13.016  11.759  11.125
37484SOL    HW114291  12.982  11.670  11.136
37484SOL    HW214292  13.094  11.762  11.180
37485SOL     OW14293  11.112   5.829   8.990
37485SOL    HW114294  11.134   5.736   8.997
37485SOL    HW214295  11.186   5.868   8.945
37486SOL     OW14296  11.211  13.582   8.182
37486SOL    HW114297  11.176  13.499   8.216
37486SOL    HW214298  11.247  13.626   8.258
37487SOL     OW14299   9.508   5.187  11.022
37487SOL    HW114300   9.502   5.174  10.928
37487SOL    HW214301   9.589   5.236  11.035
37488SOL     OW14302   4.282  10.549   2.030
37488SOL    HW114303   4.225  10.489   1.983
37488SOL    HW214304   4.293  10.510   2.116
37489SOL     OW14305  11.218  14.027   8.676
37489SOL    HW114306  11.218  13.936   8.706
37489SOL    HW214307  11.164  14.027   8.598
37490SOL     OW14308   8.827   4.461   9.902
37490SOL    HW114309   8.819   4.526   9.973
37490SOL    HW214310   8.860   4.511   9.828
37491SOL     OW14311   7.124   0.135   0.250
37491SOL    HW114312   7.124   0.227   0.227
37491SOL    HW214313   7.212   0.118   0.283
37492SOL     OW14314   1.435   4.848   7.849
37492SOL    HW114315   1.358   4.792   7.842
37492SOL    HW214316   1.455   4.872   7.759
37493SOL     OW14317   8.518   5.613   6.019
37493SOL    HW114318   8.574   5.588   6.092
37493SOL    HW214319   8.529   5.544   5.954
37494SOL     OW14320   1.958   7.772  14.347
37494SOL    HW114321   1.867   7.774  14.376
37494SOL    HW214322   1.954   7.784  14.252
37495SOL     OW14323   7.752   3.795  13.293
37495SOL    HW114324   7.749   3.808  13.388
37495SOL    HW214325   7.667   3.755  13.272
37496SOL     OW14326   7.332   3.975  13.077
37496SOL    HW114327   7.350   3.891  13.035
37496SOL    HW214328   7.237   3.983  13.075
37497SOL     OW14329   8.270   2.457   9.887
37497SOL    HW114330   8.292   2.529   9.828
37497SOL    HW214331   8.206   2.494   9.948
37498SOL     OW14332   2.174  12.779   8.202
37498SOL    HW114333   2.179  12.846   8.134
37498SOL    HW214334   2.256  12.730   8.194
37499SOL     OW14335   8.716   8.483  14.008
37499SOL    HW114336   8.691   8.547  13.942
37499SOL    HW214337   8.707   8.529  14.091
37500SOL     OW14338   6.842   6.327   7.200
37500SOL    HW114339   6.796   6.279   7.270
37500SOL    HW214340   6.893   6.260   7.156
37501SOL     OW14341   4.823   7.938   0.411
37501SOL    HW114342   4.832   7.912   0.319
37501SOL    HW214343   4.769   8.017   0.408
37502SOL     OW14344   1.205   3.273  10.896
37502SOL    HW114345   1.228   3.211  10.827
37502SOL    HW214346   1.265   3.254  10.968
37503SOL     OW14347   6.561  13.790   7.016
37503SOL    HW114348   6.531  13.753   6.933
37503SOL    HW214349   6.480  13.819   7.059
37504SOL     OW14350   6.791  10.158   1.344
37504SOL    HW114351   6.751  10.128   1.263
37504SOL    HW214352   6.885  10.143   1.332
37505SOL     OW14353   6.889   9.895  10.699
37505SOL    HW114354   6.801   9.861  10.714
37505SOL    HW214355   6.875   9.983  10.666
37506SOL     OW14356   5.937   6.197  12.231
37506SOL    HW114357   6.011   6.252  12.203
37506SOL    HW214358   5.904   6.159  12.150
37507SOL     OW14359   2.247   0.846   1.538
37507SOL    HW114360   2.271   0.762   1.577
37507SOL    HW214361   2.152   0.853   1.552
37508SOL     OW14362   0.174   1.144   2.238
37508SOL    HW114363   0.105   1.113   2.297
37508SOL    HW214364   0.165   1.239   2.237
37509SOL     OW14365  11.355  10.080   1.832
37509SOL    HW114366  11.380  10.076   1.924
37509SOL    HW214367  11.297  10.156   1.826
37510SOL     OW14368   4.776   2.129   4.950
37510SOL    HW114369   4.818   2.214   4.962
37510SOL    HW214370   4.730   2.113   5.032
37511SOL     OW14371   8.936   6.036   9.978
37511SOL    HW114372   8.919   5.943   9.995
37511SOL    HW214373   8.974   6.069  10.059
37512SOL     OW14374  13.868  13.415  11.988
37512SOL    HW114375  13.945  13.454  12.030
37512SOL    HW214376  13.903  13.368  11.913
37513SOL     OW14377   6.656   7.657  12.544
37513SOL    HW114378   6.707   7.654  12.463
37513SOL    HW214379   6.707   7.603  12.606
37514SOL     OW14380   2.422  12.305   3.801
37514SOL    HW114381   2.453  12.392   3.775
37514SOL    HW214382   2.502  12.259   3.828
37515SOL     OW14383   9.825   2.154   8.182
37515SOL    HW114384   9.890   2.221   8.205
37515SOL    HW214385   9.868   2.071   8.202
37516SOL     OW14386   2.912   0.548   5.498
37516SOL    HW114387   2.932   0.546   5.405
37516SOL    HW214388   2.952   0.629   5.530
37517SOL     OW14389   5.831   3.991   1.908
37517SOL    HW114390   5.909   3.986   1.852
37517SOL    HW214391   5.780   4.063   1.870
37518SOL     OW14392   0.742  10.628  13.331
37518SOL    HW114393   0.700  10.714  13.324
37518SOL    HW214394   0.757  10.617  13.425
37519SOL     OW14395   3.928   8.427  14.715
37519SOL    HW114396   3.848   8.396  14.673
37519SOL    HW214397   3.967   8.486  14.651
37520SOL     OW14398   1.865  12.839   3.145
37520SOL    HW114399   1.896  12.749   3.152
37520SOL    HW214400   1.934  12.892   3.183
37521SOL     OW14401   8.972   4.854   4.333
37521SOL    HW114402   9.038   4.922   4.335
37521SOL    HW214403   8.930   4.858   4.418
37522SOL     OW14404   6.342   9.107   3.461
37522SOL    HW114405   6.289   9.069   3.391
37522SOL    HW214406   6.319   9.200   3.462
37523SOL     OW14407   3.056   8.741  12.568
37523SOL    HW114408   3.071   8.667  12.509
37523SOL    HW214409   2.974   8.779  12.537
37524SOL     OW14410   0.243  14.500  12.466
37524SOL    HW114411   0.258  14.406  12.457
37524SOL    HW214412   0.279  14.538  12.386
37525SOL     OW14413   5.839  14.343   7.097
37525SOL    HW114414   5.836  14.437   7.078
37525SOL    HW214415   5.789  14.303   7.026
37526SOL     OW14416  11.764   3.857   5.853
37526SOL    HW114417  11.733   3.932   5.903
37526SOL    HW214418  11.703   3.787   5.876
37527SOL     OW14419   8.352  10.534   2.617
37527SOL    HW114420   8.351  10.486   2.699
37527SOL    HW214421   8.438  10.517   2.579
37528SOL     OW14422   0.940   5.504   3.615
37528SOL    HW114423   0.972   5.592   3.634
37528SOL    HW214424   0.902   5.510   3.527
37529SOL     OW14425   5.883   3.077   0.503
37529SOL    HW114426   5.935   3.047   0.578
37529SOL    HW214427   5.891   3.006   0.439
37530SOL     OW14428  12.414   3.420   8.131
37530SOL    HW114429  12.336   3.467   8.160
37530SOL    HW214430  12.479   3.489   8.118
37531SOL     OW14431  11.641   5.735  12.039
37531SOL    HW114432  11.670   5.644  12.046
37531SOL    HW214433  11.624   5.748  11.946
37532SOL     OW14434   9.462  14.491   2.799
37532SOL    HW114435   9.434  14.573   2.758
37532SOL    HW214436   9.555  14.484   2.779
37533SOL     OW14437  12.926  14.508  13.984
37533SOL    HW114438  12.986  14.438  13.958
37533SOL    HW214439  12.949  14.582  13.927
37534SOL     OW14440   6.693  11.632   9.413
37534SOL    HW114441   6.778  11.668   9.390
37534SOL    HW214442   6.695  11.621   9.508
37535SOL     OW14443  10.654   2.871  14.759
37535SOL    HW114444  10.694   2.814  14.693
37535SOL    HW214445  10.711   2.861  14.835
37536SOL     OW14446   6.366  12.056   5.144
37536SOL    HW114447   6.423  12.132   5.137
37536SOL    HW214448   6.370  12.030   5.236
37537SOL     OW14449  10.828   9.261  14.863
37537SOL    HW114450  10.773   9.188   0.012
37537SOL    HW214451  10.872   9.290   0.064
37538SOL     OW14452   9.393  14.535   1.080
37538SOL    HW114453   9.390  14.631   1.080
37538SOL    HW214454   9.415  14.513   1.171
37539SOL     OW14455   2.074   4.108  12.284
37539SOL    HW114456   2.018   4.148  12.218
37539SOL    HW214457   2.163   4.118  12.251
37540SOL     OW14458   3.292   4.341   9.478
37540SOL    HW114459   3.325   4.281   9.411
37540SOL    HW214460   3.349   4.417   9.472
37541SOL     OW14461   9.416   5.712  13.681
37541SOL    HW114462   9.406   5.693  13.588
37541SOL    HW214463   9.510   5.703  13.697
37542SOL     OW14464   1.559   7.045   0.699
37542SOL    HW114465   1.642   7.093   0.697
37542SOL    HW214466   1.566   6.983   0.627
37543SOL     OW14467  11.925   3.822  10.051
37543SOL    HW114468  11.922   3.731  10.022
37543SOL    HW214469  11.864   3.868   9.993
37544SOL     OW14470  11.381  12.204   0.484
37544SOL    HW114471  11.337  12.121   0.465
37544SOL    HW214472  11.470  12.179   0.507
37545SOL     OW14473   8.593   8.429  13.040
37545SOL    HW114474   8.608   8.387  12.956
37545SOL    HW214475   8.599   8.357  13.104
37546SOL     OW14476   3.998  12.814   0.455
37546SOL    HW114477   3.954  12.788   0.535
37546SOL    HW214478   4.019  12.906   0.468
37547SOL     OW14479  13.804  12.524   1.016
37547SOL    HW114480  13.740  12.580   1.061
37547SOL    HW214481  13.860  12.491   1.086
37548SOL     OW14482  12.321  12.898   3.899
37548SOL    HW114483  12.330  12.883   3.805
37548SOL    HW214484  12.246  12.957   3.908
37549SOL     OW14485  10.454   9.187   3.677
37549SOL    HW114486  10.398   9.244   3.625
37549SOL    HW214487  10.413   9.184   3.763
37550SOL     OW14488   6.998   9.672   3.195
37550SOL    HW114489   6.923   9.717   3.233
37550SOL    HW214490   7.023   9.727   3.121
37551SOL     OW14491  13.897  11.367  13.365
37551SOL    HW114492  13.987  11.364  13.398
37551SOL    HW214493  13.844  11.332  13.436
37552SOL     OW14494  12.571   7.635   1.642
37552SOL    HW114495  12.569   7.727   1.615
37552SOL    HW214496  12.622   7.591   1.575
37553SOL     OW14497   0.736   4.206   2.528
37553SOL    HW114498   0.685   4.284   2.548
37553SOL    HW214499   0.695   4.136   2.580
37554SOL     OW14500  14.419   6.069   0.796
37554SOL    HW114501  14.409   5.996   0.857
37554SOL    HW214502  14.379   6.143   0.841
37555SOL     OW14503   1.600  13.872   5.379
37555SOL    HW114504   1.660  13.926   5.430
37555SOL    HW214505   1.599  13.788   5.425
37556SOL     OW14506  11.584   8.833   4.671
37556SOL    HW114507  11.491   8.853   4.682
37556SOL    HW214508  11.592   8.809   4.578
37557SOL     OW14509   9.727   6.208   0.807
37557SOL    HW114510   9.702   6.290   0.765
37557SOL    HW214511   9.700   6.218   0.898
37558SOL     OW14512   1.660   1.715   1.828
37558SOL    HW114513   1.748   1.680   1.842
37558SOL    HW214514   1.602   1.651   1.869
37559SOL     OW14515   1.812   3.342   0.941
37559SOL    HW114516   1.733   3.392   0.919
37559SOL    HW214517   1.851   3.389   1.015
37560SOL     OW14518   0.720  13.627   1.987
37560SOL    HW114519   0.750  13.536   1.983
37560SOL    HW214520   0.636  13.624   2.032
37561SOL     OW14521  10.811   3.393  12.012
37561SOL    HW114522  10.800   3.459  11.943
37561SOL    HW214523  10.829   3.312  11.964
37562SOL     OW14524  13.767   3.672  12.718
37562SOL    HW114525  13.814   3.650  12.638
37562SOL    HW214526  13.735   3.587  12.751
37563SOL     OW14527  10.275   6.793   3.542
37563SOL    HW114528  10.287   6.888   3.553
37563SOL    HW214529  10.362   6.761   3.516
37564SOL     OW14530   8.898  14.047  14.861
37564SOL    HW114531   8.943  13.981   0.035
37564SOL    HW214532   8.946  14.046  14.778
37565SOL     OW14533   9.057   2.143  11.411
37565SOL    HW114534   9.015   2.121  11.328
37565SOL    HW214535   9.006   2.216  11.445
37566SOL     OW14536   3.838   3.302   7.362
37566SOL    HW114537   3.807   3.240   7.296
37566SOL    HW214538   3.765   3.363   7.374
37567SOL     OW14539   6.441   0.925  14.805
37567SOL    HW114540   6.391   1.001  14.776
37567SOL    HW214541   6.442   0.865  14.730
37568SOL     OW14542   2.576   4.172   6.563
37568SOL    HW114543   2.501   4.183   6.505
37568SOL    HW214544   2.576   4.250   6.618
37569SOL     OW14545  14.642   2.767   0.798
37569SOL    HW114546  14.561   2.722   0.775
37569SOL    HW214547  14.613   2.843   0.848
37570SOL     OW14548   2.629   6.183   1.434
37570SOL    HW114549   2.670   6.244   1.494
37570SOL    HW214550   2.561   6.234   1.390
37571SOL     OW14551  14.481   0.229   1.032
37571SOL    HW114552  14.429   0.306   1.009
37571SOL    HW214553  14.416   0.163   1.058
37572SOL     OW14554   5.670   0.255   9.178
37572SOL    HW114555   5.606   0.322   9.153
37572SOL    HW214556   5.664   0.190   9.109
37573SOL     OW14557   8.480   8.371  11.410
37573SOL    HW114558   8.426   8.294  11.399
37573SOL    HW214559   8.557   8.355  11.355
37574SOL     OW14560  14.625   7.179   9.759
37574SOL    HW114561  14.577   7.259   9.740
37574SOL    HW214562  14.636   7.136   9.674
37575SOL     OW14563   0.876   3.682  11.241
37575SOL    HW114564   0.966   3.682  11.274
37575SOL    HW214565   0.827   3.632  11.306
37576SOL     OW14566  11.692   1.067  11.279
37576SOL    HW114567  11.783   1.097  11.277
37576SOL    HW214568  11.673   1.057  11.372
37577SOL     OW14569   0.047  14.096   1.243
37577SOL    HW114570  14.860  14.098   1.312
37577SOL    HW214571   0.065  14.003   1.230
37578SOL     OW14572   2.620   1.275  12.365
37578SOL    HW114573   2.660   1.338  12.424
37578SOL    HW214574   2.621   1.318  12.279
37579SOL     OW14575  13.194  12.983  11.054
37579SOL    HW114576  13.269  12.937  11.090
37579SOL    HW214577  13.125  12.917  11.050
37580SOL     OW14578   2.784   6.547  10.258
37580SOL    HW114579   2.737   6.483  10.205
37580SOL    HW214580   2.751   6.632  10.227
37581SOL     OW14581   5.238   6.230  12.963
37581SOL    HW114582   5.188   6.295  12.913
37581SOL    HW214583   5.193   6.147  12.946
37582SOL     OW14584  10.560   4.418   2.493
37582SOL    HW114585  10.597   4.363   2.563
37582SOL    HW214586  10.524   4.356   2.431
37583SOL     OW14587  14.020  12.548   4.658
37583SOL    HW114588  14.072  12.470   4.676
37583SOL    HW214589  14.084  12.619   4.651
37584SOL     OW14590   7.253   1.629  13.674
37584SOL    HW114591   7.248   1.576  13.754
37584SOL    HW214592   7.345   1.656  13.670
37585SOL     OW14593   5.985   9.101  13.449
37585SOL    HW114594   6.007   9.012  13.419
37585SOL    HW214595   6.043   9.116  13.524
37586SOL     OW14596  11.195  11.748   7.843
37586SOL    HW114597  11.261  11.679   7.843
37586SOL    HW214598  11.114  11.703   7.820
37587SOL     OW14599   6.926  10.242   5.268
37587SOL    HW114600   6.873  10.164   5.252
37587SOL    HW214601   6.980  10.251   5.190
37588SOL     OW14602  11.973   7.563  10.718
37588SOL    HW114603  12.046   7.509  10.687
37588SOL    HW214604  12.008   7.607  10.796
37589SOL     OW14605   2.742   9.882  11.390
37589SOL    HW114606   2.837   9.882  11.391
37589SOL    HW214607   2.717   9.972  11.412
37590SOL     OW14608   5.053  12.112  11.681
37590SOL    HW114609   5.081  12.157  11.761
37590SOL    HW214610   5.081  12.022  11.693
37591SOL     OW14611   7.496   0.145  11.428
37591SOL    HW114612   7.445   0.178  11.354
37591SOL    HW214613   7.500   0.051  11.414
37592SOL     OW14614   6.687   8.500   2.583
37592SOL    HW114615   6.622   8.447   2.629
37592SOL    HW214616   6.713   8.446   2.508
37593SOL     OW14617   2.686  13.931   0.908
37593SOL    HW114618   2.607  13.915   0.855
37593SOL    HW214619   2.749  13.966   0.846
37594SOL     OW14620   5.171   3.820  12.757
37594SOL    HW114621   5.254   3.807  12.712
37594SOL    HW214622   5.147   3.911  12.737
37595SOL     OW14623   1.212  11.529   2.566
37595SOL    HW114624   1.295  11.557   2.605
37595SOL    HW214625   1.193  11.445   2.607
37596SOL     OW14626   2.076  10.857   5.684
37596SOL    HW114627   2.005  10.845   5.620
37596SOL    HW214628   2.079  10.951   5.698
37597SOL     OW14629   2.538   6.004  13.502
37597SOL    HW114630   2.594   6.076  13.531
37597SOL    HW214631   2.539   6.010  13.406
37598SOL     OW14632   2.113  14.488  12.539
37598SOL    HW114633   2.052  14.479  12.466
37598SOL    HW214634   2.195  14.514  12.497
37599SOL     OW14635   2.703  11.733   4.581
37599SOL    HW114636   2.632  11.780   4.540
37599SOL    HW214637   2.736  11.792   4.649
37600SOL     OW14638   7.038   5.566   3.135
37600SOL    HW114639   7.083   5.546   3.053
37600SOL    HW214640   7.084   5.514   3.201
37601SOL     OW14641   8.414   9.091   1.205
37601SOL    HW114642   8.484   9.052   1.258
37601SOL    HW214643   8.334   9.076   1.257
37602SOL     OW14644  12.105  12.286   5.906
37602SOL    HW114645  12.105  12.227   5.981
37602SOL    HW214646  12.014  12.312   5.895
37603SOL     OW14647  13.308  13.483   3.049
37603SOL    HW114648  13.281  13.435   2.971
37603SOL    HW214649  13.229  13.486   3.103
37604SOL     OW14650   0.179   8.251  11.194
37604SOL    HW114651   0.194   8.162  11.162
37604SOL    HW214652   0.103   8.281  11.146
37605SOL     OW14653   4.252   4.448  14.810
37605SOL    HW114654   4.281   4.410  14.727
37605SOL    HW214655   4.188   4.514  14.784
37606SOL     OW14656   1.712  14.447  11.239
37606SOL    HW114657   1.775  14.390  11.195
37606SOL    HW214658   1.663  14.489  11.168
37607SOL     OW14659   2.591   4.853   6.512
37607SOL    HW114660   2.641   4.792   6.458
37607SOL    HW214661   2.530   4.895   6.452
37608SOL     OW14662   0.376   6.346  12.627
37608SOL    HW114663   0.464   6.308  12.626
37608SOL    HW214664   0.389   6.438  12.604
37609SOL     OW14665   7.010  13.899  10.507
37609SOL    HW114666   7.029  13.911  10.415
37609SOL    HW214667   7.089  13.859  10.543
37610SOL     OW14668   6.543   3.504   7.984
37610SOL    HW114669   6.459   3.479   8.023
37610SOL    HW214670   6.597   3.425   7.989
37611SOL     OW14671   8.798   0.199  13.774
37611SOL    HW114672   8.802   0.225  13.682
37611SOL    HW214673   8.875   0.144  13.787
37612SOL     OW14674  11.128  14.793  13.617
37612SOL    HW114675  11.120  14.739  13.695
37612SOL    HW214676  11.130   0.004  13.649
37613SOL     OW14677   3.629  12.421   6.113
37613SOL    HW114678   3.673  12.467   6.184
37613SOL    HW214679   3.550  12.386   6.153
37614SOL     OW14680  12.873   7.418   5.475
37614SOL    HW114681  12.836   7.388   5.392
37614SOL    HW214682  12.799   7.415   5.537
37615SOL     OW14683   5.499   3.829  11.189
37615SOL    HW114684   5.537   3.847  11.103
37615SOL    HW214685   5.494   3.914  11.232
37616SOL     OW14686   6.636   4.819   5.046
37616SOL    HW114687   6.626   4.890   5.109
37616SOL    HW214688   6.567   4.757   5.069
37617SOL     OW14689   4.804   9.072  11.489
37617SOL    HW114690   4.744   9.145  11.503
37617SOL    HW214691   4.829   9.045  11.578
37618SOL     OW14692   5.351   4.700   0.791
37618SOL    HW114693   5.325   4.745   0.711
37618SOL    HW214694   5.280   4.719   0.853
37619SOL     OW14695   6.530   6.722   9.233
37619SOL    HW114696   6.521   6.668   9.154
37619SOL    HW214697   6.624   6.723   9.250
37620SOL     OW14698   1.888   8.383   4.255
37620SOL    HW114699   1.825   8.446   4.289
37620SOL    HW214700   1.968   8.400   4.305
37621SOL     OW14701   8.295  10.376   2.383
37621SOL    HW114702   8.379  10.355   2.341
37621SOL    HW214703   8.320  10.430   2.458
37622SOL     OW14704  14.579   0.490  14.523
37622SOL    HW114705  14.590   0.582  14.500
37622SOL    HW214706  14.509   0.490  14.589
37623SOL     OW14707  13.012  10.021  11.060
37623SOL    HW114708  12.998   9.973  10.979
37623SOL    HW214709  12.934  10.004  11.113
37624SOL     OW14710   4.584   5.176   4.735
37624SOL    HW114711   4.611   5.228   4.811
37624SOL    HW214712   4.645   5.102   4.733
37625SOL     OW14713   3.319   0.805  10.272
37625SOL    HW114714   3.402   0.788  10.228
37625SOL    HW214715   3.301   0.724  10.321
37626SOL     OW14716   3.314   9.066   5.511
37626SOL    HW114717   3.406   9.087   5.527
37626SOL    HW214718   3.280   9.041   5.597
37627SOL     OW14719   5.351  11.524   2.956
37627SOL    HW114720   5.369  11.562   3.043
37627SOL    HW214721   5.358  11.429   2.970
37628SOL     OW14722   6.142   3.955  12.242
37628SOL    HW114723   6.175   3.872  12.276
37628SOL    HW214724   6.147   4.015  12.317
37629SOL     OW14725   5.994   6.556  11.137
37629SOL    HW114726   6.010   6.619  11.207
37629SOL    HW214727   6.079   6.541  11.097
37630SOL     OW14728   9.533   1.872   2.780
37630SOL    HW114729   9.547   1.932   2.707
37630SOL    HW214730   9.441   1.845   2.771
37631SOL     OW14731  12.294   8.279  13.582
37631SOL    HW114732  12.209   8.309  13.551
37631SOL    HW214733  12.357   8.338  13.541
37632SOL     OW14734   3.871  13.268   4.891
37632SOL    HW114735   3.890  13.361   4.900
37632SOL    HW214736   3.834  13.259   4.804
37633SOL     OW14737   9.173  12.258   9.526
37633SOL    HW114738   9.188  12.327   9.591
37633SOL    HW214739   9.097  12.210   9.560
37634SOL     OW14740   5.822  10.887   1.170
37634SOL    HW114741   5.887  10.956   1.176
37634SOL    HW214742   5.868  10.813   1.131
37635SOL     OW14743   4.184   0.077   0.728
37635SOL    HW114744   4.132   0.156   0.745
37635SOL    HW214745   4.208   0.084   0.636
37636SOL     OW14746   7.457   1.787   7.593
37636SOL    HW114747   7.543   1.766   7.631
37636SOL    HW214748   7.441   1.716   7.530
37637SOL     OW14749   6.557   1.307  11.840
37637SOL    HW114750   6.471   1.305  11.883
37637SOL    HW214751   6.605   1.234  11.880
37638SOL     OW14752   0.604   1.901   7.965
37638SOL    HW114753   0.644   1.988   7.960
37638SOL    HW214754   0.566   1.887   7.878
37639SOL     OW14755  12.636   7.918   8.384
37639SOL    HW114756  12.576   7.930   8.458
37639SOL    HW214757  12.655   8.006   8.353
37640SOL     OW14758  13.625   4.181   9.782
37640SOL    HW114759  13.554   4.239   9.808
37640SOL    HW214760  13.581   4.104   9.744
37641SOL     OW14761   7.052  12.337  12.158
37641SOL    HW114762   7.046  12.302  12.069
37641SOL    HW214763   6.974  12.302  12.202
37642SOL     OW14764   2.152   7.942  13.988
37642SOL    HW114765   2.191   7.993  14.058
37642SOL    HW214766   2.100   7.876  14.032
37643SOL     OW14767   0.394  14.722   8.180
37643SOL    HW114768   0.377  14.807   8.139
37643SOL    HW214769   0.481  14.730   8.218
37644SOL     OW14770   9.815  13.862  11.613
37644SOL    HW114771   9.866  13.826  11.685
37644SOL    HW214772   9.724  13.842  11.636
37645SOL     OW14773   0.109  11.412  10.453
37645SOL    HW114774   0.149  11.453  10.531
37645SOL    HW214775   0.093  11.486  10.394
37646SOL     OW14776  11.077   9.610   0.374
37646SOL    HW114777  11.163   9.602   0.416
37646SOL    HW214778  11.022   9.545   0.419
37647SOL     OW14779   7.221   0.131  13.524
37647SOL    HW114780   7.260   0.206  13.481
37647SOL    HW214781   7.271   0.056  13.493
37648SOL     OW14782  12.833   7.803   3.572
37648SOL    HW114783  12.853   7.752   3.650
37648SOL    HW214784  12.913   7.800   3.520
37649SOL     OW14785  11.479   9.175  12.129
37649SOL    HW114786  11.432   9.184  12.046
37649SOL    HW214787  11.487   9.264  12.161
37650SOL     OW14788   3.851   3.230   8.998
37650SOL    HW114789   3.780   3.265   8.944
37650SOL    HW214790   3.821   3.246   9.088
37651SOL     OW14791   4.696  11.074   2.810
37651SOL    HW114792   4.607  11.050   2.785
37651SOL    HW214793   4.685  11.150   2.868
37652SOL     OW14794   9.988   7.210  13.033
37652SOL    HW114795   9.916   7.263  12.998
37652SOL    HW214796   9.945   7.136  13.076
37653SOL     OW14797   3.146   9.477   5.709
37653SOL    HW114798   3.214   9.423   5.748
37653SOL    HW214799   3.194   9.550   5.669
37654SOL     OW14800   7.138  12.087   0.536
37654SOL    HW114801   7.188  12.165   0.561
37654SOL    HW214802   7.051  12.101   0.573
37655SOL     OW14803   7.086  10.844   8.345
37655SOL    HW114804   7.121  10.864   8.431
37655SOL    HW214805   7.089  10.748   8.339
37656SOL     OW14806   2.903   9.022   5.761
37656SOL    HW114807   2.998   9.013   5.764
37656SOL    HW214808   2.889   9.117   5.756
37657SOL     OW14809   3.752   0.916  10.579
37657SOL    HW114810   3.784   1.006  10.573
37657SOL    HW214811   3.808   0.874  10.645
37658SOL     OW14812   9.093   2.716  12.486
37658SOL    HW114813   9.156   2.778  12.522
37658SOL    HW214814   9.100   2.639  12.542
37659SOL     OW14815   0.841   2.790   7.081
37659SOL    HW114816   0.823   2.767   7.172
37659SOL    HW214817   0.869   2.881   7.084
37660SOL     OW14818  12.406   0.070   0.434
37660SOL    HW114819  12.439   0.014   0.504
37660SOL    HW214820  12.398   0.156   0.474
37661SOL     OW14821   9.932   5.353   5.628
37661SOL    HW114822   9.920   5.285   5.562
37661SOL    HW214823  10.018   5.391   5.607
37662SOL     OW14824   2.610   3.260  11.085
37662SOL    HW114825   2.518   3.285  11.097
37662SOL    HW214826   2.612   3.216  11.000
37663SOL     OW14827   2.848   4.640  14.860
37663SOL    HW114828   2.844   4.627  14.765
37663SOL    HW214829   2.845   4.551   0.017
37664SOL     OW14830   8.915   7.310  11.383
37664SOL    HW114831   8.850   7.304  11.313
37664SOL    HW214832   8.903   7.397  11.420
37665SOL     OW14833   8.318   1.789   6.305
37665SOL    HW114834   8.268   1.741   6.372
37665SOL    HW214835   8.287   1.752   6.222
37666SOL     OW14836   5.332   7.224  13.321
37666SOL    HW114837   5.350   7.227  13.414
37666SOL    HW214838   5.369   7.306  13.286
37667SOL     OW14839  10.811   5.677   6.760
37667SOL    HW114840  10.766   5.737   6.701
37667SOL    HW214841  10.794   5.712   6.848
37668SOL     OW14842   2.252   2.194   5.429
37668SOL    HW114843   2.291   2.117   5.470
37668SOL    HW214844   2.171   2.210   5.478
37669SOL     OW14845   3.610   5.362   9.041
37669SOL    HW114846   3.699   5.393   9.057
37669SOL    HW214847   3.574   5.424   8.978
37670SOL     OW14848   2.382   3.844   9.442
37670SOL    HW114849   2.326   3.890   9.380
37670SOL    HW214850   2.421   3.773   9.390
37671SOL     OW14851   3.402   2.005   7.153
37671SOL    HW114852   3.351   1.926   7.169
37671SOL    HW214853   3.426   2.000   7.061
37672SOL     OW14854   5.063  11.455   9.541
37672SOL    HW114855   5.004  11.382   9.526
37672SOL    HW214856   5.007  11.523   9.579
37673SOL     OW14857   7.323   2.424   5.582
37673SOL    HW114858   7.300   2.512   5.551
37673SOL    HW214859   7.359   2.438   5.669
37674SOL     OW14860  12.033  13.176   0.309
37674SOL    HW114861  12.098  13.146   0.373
37674SOL    HW214862  12.022  13.101   0.250
37675SOL     OW14863   2.204  11.891   7.875
37675SOL    HW114864   2.127  11.835   7.888
37675SOL    HW214865   2.224  11.925   7.962
37676SOL     OW14866   8.462   0.427   6.457
37676SOL    HW114867   8.429   0.431   6.547
37676SOL    HW214868   8.395   0.474   6.406
37677SOL     OW14869   2.800   3.215   2.632
37677SOL    HW114870   2.791   3.251   2.720
37677SOL    HW214871   2.868   3.268   2.591
37678SOL     OW14872   3.345   2.426   7.888
37678SOL    HW114873   3.308   2.358   7.944
37678SOL    HW214874   3.338   2.506   7.940
37679SOL     OW14875   2.605   6.396   5.186
37679SOL    HW114876   2.591   6.455   5.261
37679SOL    HW214877   2.569   6.312   5.215
37680SOL     OW14878   4.422   6.648   7.630
37680SOL    HW114879   4.509   6.608   7.631
37680SOL    HW214880   4.435   6.735   7.667
37681SOL     OW14881  10.276   9.279   8.718
37681SOL    HW114882  10.288   9.371   8.696
37681SOL    HW214883  10.264   9.235   8.634
37682SOL     OW14884  13.539  13.686  13.809
37682SOL    HW114885  13.583  13.602  13.813
37682SOL    HW214886  13.551  13.715  13.718
37683SOL     OW14887  14.263  11.671  12.958
37683SOL    HW114888  14.203  11.677  13.033
37683SOL    HW214889  14.303  11.585  12.966
37684SOL     OW14890   2.388  12.676   0.390
37684SOL    HW114891   2.469  12.689   0.341
37684SOL    HW214892   2.341  12.759   0.381
37685SOL     OW14893   6.008  14.224  14.137
37685SOL    HW114894   5.974  14.193  14.053
37685SOL    HW214895   5.955  14.178  14.202
37686SOL     OW14896  11.946  12.481   6.821
37686SOL    HW114897  11.935  12.386   6.817
37686SOL    HW214898  11.856  12.515   6.825
37687SOL     OW14899   9.488  12.264  12.376
37687SOL    HW114900   9.498  12.301  12.288
37687SOL    HW214901   9.395  12.272  12.396
37688SOL     OW14902  12.043   5.712   0.561
37688SOL    HW114903  12.080   5.799   0.549
37688SOL    HW214904  12.039   5.675   0.473
37689SOL     OW14905  10.039  14.132   7.741
37689SOL    HW114906   9.967  14.179   7.783
37689SOL    HW214907  10.012  14.123   7.650
37690SOL     OW14908  10.176   0.846  13.397
37690SOL    HW114909  10.160   0.829  13.490
37690SOL    HW214910  10.250   0.789  13.375
37691SOL     OW14911   4.230  12.747   5.669
37691SOL    HW114912   4.138  12.772   5.667
37691SOL    HW214913   4.273  12.810   5.611
37692SOL     OW14914  10.771   0.256   5.280
37692SOL    HW114915  10.801   0.333   5.328
37692SOL    HW214916  10.694   0.226   5.329
37693SOL     OW14917   1.750   6.570   2.801
37693SOL    HW114918   1.665   6.614   2.795
37693SOL    HW214919   1.741   6.512   2.877
37694SOL     OW14920   2.407   4.459  11.120
37694SOL    HW114921   2.386   4.368  11.100
37694SOL    HW214922   2.463   4.455  11.197
37695SOL     OW14923   9.946   9.556  14.859
37695SOL    HW114924  10.033   9.567   0.018
37695SOL    HW214925   9.888   9.606   0.038
37696SOL     OW14926   9.593  11.311  11.376
37696SOL    HW114927   9.541  11.299  11.455
37696SOL    HW214928   9.569  11.398  11.344
37697SOL     OW14929   1.369   0.729  13.780
37697SOL    HW114930   1.403   0.640  13.794
37697SOL    HW214931   1.282   0.727  13.820
37698SOL     OW14932   1.865   5.031   1.126
37698SOL    HW114933   1.833   4.958   1.178
37698SOL    HW214934   1.918   5.083   1.187
37699SOL     OW14935  11.713   3.085   0.979
37699SOL    HW114936  11.646   3.094   0.911
37699SOL    HW214937  11.698   2.999   1.017
37700SOL     OW14938   6.320  11.851   8.039
37700SOL    HW114939   6.269  11.863   8.119
37700SOL    HW214940   6.403  11.813   8.068
37701SOL     OW14941  13.584   2.155  10.652
37701SOL    HW114942  13.502   2.137  10.606
37701SOL    HW214943  13.601   2.247  10.635
37702SOL     OW14944   3.778   3.410   6.124
37702SOL    HW114945   3.746   3.348   6.189
37702SOL    HW214946   3.749   3.495   6.156
37703SOL     OW14947  11.848   3.219   7.236
37703SOL    HW114948  11.798   3.237   7.315
37703SOL    HW214949  11.895   3.138   7.256
37704SOL     OW14950   0.420   8.815  12.541
37704SOL    HW114951   0.349   8.843  12.599
37704SOL    HW214952   0.500   8.838  12.587
37705SOL     OW14953  12.721  13.602  12.851
37705SOL    HW114954  12.653  13.603  12.783
37705SOL    HW214955  12.682  13.554  12.923
37706SOL     OW14956   4.735   9.324   9.788
37706SOL    HW114957   4.814   9.379   9.789
37706SOL    HW214958   4.682   9.361   9.717
37707SOL     OW14959   8.187   0.366  14.116
37707SOL    HW114960   8.207   0.379  14.023
37707SOL    HW214961   8.118   0.430  14.135
37708SOL     OW14962   7.220   3.377  10.089
37708SOL    HW114963   7.181   3.326  10.160
37708SOL    HW214964   7.298   3.327  10.064
37709SOL     OW14965   8.251  14.614   0.086
37709SOL    HW114966   8.338  14.578   0.070
37709SOL    HW214967   8.268  14.691   0.142
37710SOL     OW14968  12.283   4.638   2.608
37710SOL    HW114969  12.272   4.652   2.514
37710SOL    HW214970  12.370   4.674   2.628
37711SOL     OW14971  10.014   0.698   8.282
37711SOL    HW114972  10.094   0.681   8.330
37711SOL    HW214973   9.948   0.644   8.325
37712SOL     OW14974   1.430   6.460   6.262
37712SOL    HW114975   1.440   6.390   6.327
37712SOL    HW214976   1.425   6.540   6.314
37713SOL     OW14977   6.469   7.593  14.794
37713SOL    HW114978   6.416   7.584  14.873
37713SOL    HW214979   6.502   7.683  14.797
37714SOL     OW14980   5.756   1.954   3.831
37714SOL    HW114981   5.775   1.893   3.903
37714SOL    HW214982   5.665   1.938   3.809
37715SOL     OW14983   6.637   8.037   1.692
37715SOL    HW114984   6.730   8.014   1.699
37715SOL    HW214985   6.636   8.132   1.689
37716SOL     OW14986   5.019   6.482   2.837
37716SOL    HW114987   5.091   6.533   2.801
37716SOL    HW214988   5.039   6.477   2.931
37717SOL     OW14989  12.222   4.417  10.642
37717SOL    HW114990  12.300   4.388  10.595
37717SOL    HW214991  12.161   4.445  10.573
37718SOL     OW14992  14.389   6.991   5.957
37718SOL    HW114993  14.365   7.029   5.873
37718SOL    HW214994  14.306   6.975   6.002
37719SOL     OW14995   8.021   1.883   5.249
37719SOL    HW114996   8.065   1.945   5.191
37719SOL    HW214997   8.076   1.879   5.327
37720SOL     OW14998  13.623   4.508   1.486
37720SOL    HW114999  13.668   4.525   1.569
37720SOL    HW215000  13.570   4.430   1.502
37721SOL     OW15001   5.972   5.524   9.195
37721SOL    HW115002   5.938   5.436   9.209
37721SOL    HW215003   6.041   5.513   9.130
37722SOL     OW15004   0.238   4.868  12.943
37722SOL    HW115005   0.193   4.949  12.922
37722SOL    HW215006   0.314   4.867  12.885
37723SOL     OW15007  10.564   9.575  11.975
37723SOL    HW115008  10.584   9.649  11.918
37723SOL    HW215009  10.476   9.548  11.950
37724SOL     OW15010   2.771   5.815  13.291
37724SOL    HW115011   2.688   5.862  13.283
37724SOL    HW215012   2.795   5.792  13.201
37725SOL     OW15013  14.210   0.200   8.606
37725SOL    HW115014  14.177   0.288   8.622
37725SOL    HW215015  14.132   0.144   8.611
37726SOL     OW15016  11.821  14.789   6.065
37726SOL    HW115017  11.875  14.860   6.101
37726SOL    HW215018  11.804  14.731   6.139
37727SOL     OW15019   2.163  13.575   9.760
37727SOL    HW115020   2.170  13.580   9.665
37727SOL    HW215021   2.157  13.481   9.778
37728SOL     OW15022   0.848  10.112   3.025
37728SOL    HW115023   0.831  10.051   2.954
37728SOL    HW215024   0.793  10.081   3.097
37729SOL     OW15025  13.267  13.545  13.713
37729SOL    HW115026  13.297  13.454  13.715
37729SOL    HW215027  13.315  13.585  13.640
37730SOL     OW15028  14.027   6.827  13.736
37730SOL    HW115029  14.086   6.850  13.665
37730SOL    HW215030  13.940   6.849  13.703
37731SOL     OW15031   4.938  12.717   2.097
37731SOL    HW115032   4.866  12.697   2.037
37731SOL    HW215033   4.957  12.810   2.083
37732SOL     OW15034  13.778  11.154   2.662
37732SOL    HW115035  13.773  11.246   2.687
37732SOL    HW215036  13.819  11.111   2.737
37733SOL     OW15037  14.259   8.828   7.126
37733SOL    HW115038  14.203   8.818   7.203
37733SOL    HW215039  14.208   8.882   7.066
37734SOL     OW15040  10.925   9.403   4.114
37734SOL    HW115041  10.909   9.450   4.032
37734SOL    HW215042  11.013   9.367   4.103
37735SOL     OW15043   6.339  13.419   8.740
37735SOL    HW115044   6.374  13.503   8.771
37735SOL    HW215045   6.381  13.406   8.655
37736SOL     OW15046  11.558   9.243  13.597
37736SOL    HW115047  11.541   9.322  13.650
37736SOL    HW215048  11.545   9.272  13.507
37737SOL     OW15049   3.398  12.433  10.035
37737SOL    HW115050   3.368  12.389  10.115
37737SOL    HW215051   3.475  12.383  10.008
37738SOL     OW15052   2.217   1.288   7.561
37738SOL    HW115053   2.186   1.226   7.495
37738SOL    HW215054   2.197   1.374   7.524
37739SOL     OW15055   0.203   6.403   6.179
37739SOL    HW115056   0.271   6.385   6.115
37739SOL    HW215057   0.244   6.382   6.263
37740SOL     OW15058  14.501   4.072   4.534
37740SOL    HW115059  14.516   4.036   4.447
37740SOL    HW215060  14.563   4.145   4.541
37741SOL     OW15061  10.441  10.674   9.709
37741SOL    HW115062  10.522  10.652   9.754
37741SOL    HW215063  10.372  10.661   9.775
37742SOL     OW15064   5.514  13.858   7.705
37742SOL    HW115065   5.590  13.882   7.651
37742SOL    HW215066   5.499  13.936   7.759
37743SOL     OW15067   0.422  14.383   6.840
37743SOL    HW115068   0.440  14.327   6.915
37743SOL    HW215069   0.328  14.375   6.827
37744SOL     OW15070  12.265   0.570   3.586
37744SOL    HW115071  12.323   0.494   3.596
37744SOL    HW215072  12.283   0.601   3.497
37745SOL     OW15073   5.435   3.840   4.883
37745SOL    HW115074   5.350   3.813   4.920
37745SOL    HW215075   5.494   3.839   4.958
37746SOL     OW15076   9.198   6.534   6.620
37746SOL    HW115077   9.119   6.486   6.646
37746SOL    HW215078   9.168   6.598   6.555
37747SOL     OW15079   4.017   8.210  14.171
37747SOL    HW115080   4.027   8.255  14.087
37747SOL    HW215081   4.001   8.118  14.148
37748SOL     OW15082   1.183  11.610   4.493
37748SOL    HW115083   1.215  11.565   4.571
37748SOL    HW215084   1.114  11.668   4.524
37749SOL     OW15085   7.746   8.209   3.470
37749SOL    HW115086   7.811   8.237   3.405
37749SOL    HW215087   7.789   8.219   3.554
37750SOL     OW15088  10.864   8.782   9.859
37750SOL    HW115089  10.853   8.801   9.952
37750SOL    HW215090  10.775   8.779   9.824
37751SOL     OW15091   6.502  12.085   6.399
37751SOL    HW115092   6.565  12.102   6.469
37751SOL    HW215093   6.539  12.009   6.352
37752SOL     OW15094   2.339   9.111  13.632
37752SOL    HW115095   2.244   9.126  13.631
37752SOL    HW215096   2.349   9.022  13.666
37753SOL     OW15097   4.483   3.195  13.179
37753SOL    HW115098   4.569   3.211  13.141
37753SOL    HW215099   4.444   3.128  13.122
37754SOL     OW15100   9.210   7.916   7.990
37754SOL    HW115101   9.302   7.929   7.964
37754SOL    HW215102   9.183   7.838   7.943
37755SOL     OW15103   4.401   8.435   0.044
37755SOL    HW115104   4.311   8.403   0.042
37755SOL    HW215105   4.406   8.489   0.123
37756SOL     OW15106  12.578   8.664   7.699
37756SOL    HW115107  12.565   8.570   7.695
37756SOL    HW215108  12.636   8.677   7.774
37757SOL     OW15109  12.315   1.305  12.444
37757SOL    HW115110  12.302   1.332  12.535
37757SOL    HW215111  12.298   1.211  12.444
37758SOL     OW15112   6.211  12.616   7.552
37758SOL    HW115113   6.126  12.589   7.587
37758SOL    HW215114   6.267  12.626   7.629
37759SOL     OW15115  11.749  10.773  10.820
37759SOL    HW115116  11.763  10.865  10.843
37759SOL    HW215117  11.715  10.733  10.900
37760SOL     OW15118   7.202   6.812  13.143
37760SOL    HW115119   7.180   6.893  13.096
37760SOL    HW215120   7.124   6.793  13.195
37761SOL     OW15121   5.336   7.250   2.893
37761SOL    HW115122   5.262   7.306   2.871
37761SOL    HW215123   5.299   7.162   2.899
37762SOL     OW15124  14.632   6.659   4.343
37762SOL    HW115125  14.590   6.574   4.330
37762SOL    HW215126  14.574   6.705   4.403
37763SOL     OW15127   1.348   8.682   7.034
37763SOL    HW115128   1.364   8.741   7.108
37763SOL    HW215129   1.253   8.685   7.020
37764SOL     OW15130   2.081  13.406   0.180
37764SOL    HW115131   2.046  13.493   0.200
37764SOL    HW215132   2.020  13.371   0.114
37765SOL     OW15133   9.163   3.225  12.241
37765SOL    HW115134   9.128   3.213  12.329
37765SOL    HW215135   9.213   3.146  12.224
37766SOL     OW15136   6.589  10.313   8.930
37766SOL    HW115137   6.518  10.269   8.883
37766SOL    HW215138   6.546  10.363   8.999
37767SOL     OW15139  12.477   3.806   6.449
37767SOL    HW115140  12.409   3.853   6.401
37767SOL    HW215141  12.428   3.746   6.506
37768SOL     OW15142   6.800   0.715   8.780
37768SOL    HW115143   6.761   0.660   8.848
37768SOL    HW215144   6.883   0.672   8.758
37769SOL     OW15145   9.987  14.106   7.459
37769SOL    HW115146   9.926  14.135   7.391
37769SOL    HW215147  10.033  14.032   7.419
37770SOL     OW15148  13.491   0.105   0.160
37770SOL    HW115149  13.463   0.190   0.125
37770SOL    HW215150  13.519   0.124   0.249
37771SOL     OW15151  14.376  14.612   4.894
37771SOL    HW115152  14.451  14.553   4.886
37771SOL    HW215153  14.414  14.694   4.925
37772SOL     OW15154  14.448   4.822   8.393
37772SOL    HW115155  14.504   4.831   8.316
37772SOL    HW215156  14.383   4.756   8.369
37773SOL     OW15157   9.230   6.825   5.151
37773SOL    HW115158   9.172   6.867   5.087
37773SOL    HW215159   9.172   6.769   5.203
37774SOL     OW15160   7.459   1.104   2.218
37774SOL    HW115161   7.529   1.169   2.213
37774SOL    HW215162   7.426   1.111   2.308
37775SOL     OW15163  12.523   8.545  11.056
37775SOL    HW115164  12.601   8.589  11.090
37775SOL    HW215165  12.522   8.568  10.963
37776SOL     OW15166   4.039   0.954  12.085
37776SOL    HW115167   4.026   0.866  12.051
37776SOL    HW215168   4.134   0.966  12.088
37777SOL     OW15169   4.720  10.996   6.127
37777SOL    HW115170   4.691  10.906   6.108
37777SOL    HW215171   4.718  11.002   6.222
37778SOL     OW15172   9.019   3.193  13.580
37778SOL    HW115173   9.059   3.272  13.542
37778SOL    HW215174   9.069   3.121  13.541
37779SOL     OW15175   7.174   2.084   6.740
37779SOL    HW115176   7.259   2.104   6.781
37779SOL    HW215177   7.195   2.019   6.673
37780SOL     OW15178   1.276   4.277  12.565
37780SOL    HW115179   1.226   4.336  12.508
37780SOL    HW215180   1.307   4.333  12.636
37781SOL     OW15181  12.517   2.962  10.730
37781SOL    HW115182  12.490   2.900  10.798
37781SOL    HW215183  12.470   2.934  10.652
37782SOL     OW15184   6.844  10.667   0.489
37782SOL    HW115185   6.855  10.639   0.580
37782SOL    HW215186   6.825  10.587   0.441
37783SOL     OW15187   6.241  10.627   4.215
37783SOL    HW115188   6.312  10.571   4.248
37783SOL    HW215189   6.195  10.656   4.294
37784SOL     OW15190  10.999  10.997   0.742
37784SOL    HW115191  10.994  10.907   0.772
37784SOL    HW215192  11.080  11.001   0.692
37785SOL     OW15193   6.384   0.806  12.675
37785SOL    HW115194   6.478   0.786  12.673
37785SOL    HW215195   6.347   0.755  12.602
37786SOL     OW15196  11.968   2.332   3.881
37786SOL    HW115197  11.872   2.332   3.886
37786SOL    HW215198  11.996   2.377   3.960
37787SOL     OW15199   1.818   7.125  11.706
37787SOL    HW115200   1.761   7.202  11.700
37787SOL    HW215201   1.903   7.155  11.675
37788SOL     OW15202   6.612   8.174   6.013
37788SOL    HW115203   6.582   8.251   5.964
37788SOL    HW215204   6.706   8.169   5.996
37789SOL     OW15205   9.082   9.509  13.526
37789SOL    HW115206   9.067   9.547  13.439
37789SOL    HW215207   9.053   9.577  13.587
37790SOL     OW15208   6.533  11.551  10.232
37790SOL    HW115209   6.590  11.478  10.259
37790SOL    HW215210   6.474  11.564  10.306
37791SOL     OW15211   2.320   0.006  14.678
37791SOL    HW115212   2.406   0.047  14.692
37791SOL    HW215213   2.293  14.856  14.765
37792SOL     OW15214   6.456   6.858  14.119
37792SOL    HW115215   6.370   6.848  14.080
37792SOL    HW215216   6.441   6.911  14.197
37793SOL     OW15217   2.945   4.700  13.766
37793SOL    HW115218   2.994   4.669  13.690
37793SOL    HW215219   2.854   4.676  13.748
37794SOL     OW15220  10.120  13.878   7.389
37794SOL    HW115221  10.180  13.881   7.464
37794SOL    HW215222  10.163  13.823   7.325
37795SOL     OW15223   4.794   2.079  11.308
37795SOL    HW115224   4.856   2.043  11.372
37795SOL    HW215225   4.816   2.172  11.304
37796SOL     OW15226   6.657   3.563   7.244
37796SOL    HW115227   6.590   3.574   7.176
37796SOL    HW215228   6.666   3.469   7.255
37797SOL     OW15229  10.850  11.974   7.973
37797SOL    HW115230  10.849  11.881   7.998
37797SOL    HW215231  10.912  12.014   8.034
37798SOL     OW15232   4.174   8.954   1.243
37798SOL    HW115233   4.249   8.928   1.297
37798SOL    HW215234   4.186   8.906   1.161
37799SOL     OW15235   6.062   1.125   5.951
37799SOL    HW115236   6.129   1.057   5.955
37799SOL    HW215237   6.091   1.191   6.014
37800SOL     OW15238   8.290   5.051   8.072
37800SOL    HW115239   8.353   5.028   8.005
37800SOL    HW215240   8.206   5.052   8.027
37801SOL     OW15241   8.493   6.912  11.293
37801SOL    HW115242   8.512   6.958  11.212
37801SOL    HW215243   8.575   6.869  11.317
37802SOL     OW15244  11.679   8.647  13.874
37802SOL    HW115245  11.596   8.624  13.917
37802SOL    HW215246  11.653   8.697  13.797
37803SOL     OW15247   1.557   1.469  10.387
37803SOL    HW115248   1.596   1.463  10.474
37803SOL    HW215249   1.628   1.502  10.332
37804SOL     OW15250  13.198   1.715   1.629
37804SOL    HW115251  13.225   1.702   1.538
37804SOL    HW215252  13.102   1.713   1.627
37805SOL     OW15253   9.046   6.859   4.427
37805SOL    HW115254   9.047   6.770   4.390
37805SOL    HW215255   9.067   6.916   4.353
37806SOL     OW15256  10.611   3.227   8.667
37806SOL    HW115257  10.639   3.311   8.630
37806SOL    HW215258  10.547   3.251   8.734
37807SOL     OW15259   2.974   5.751  14.098
37807SOL    HW115260   3.031   5.729  14.172
37807SOL    HW215261   3.015   5.708  14.023
37808SOL     OW15262  12.316  13.208   4.788
37808SOL    HW115263  12.308  13.184   4.880
37808SOL    HW215264  12.266  13.290   4.779
37809SOL     OW15265   9.647   3.982   4.356
37809SOL    HW115266   9.670   4.057   4.410
37809SOL    HW215267   9.556   3.998   4.331
37810SOL     OW15268   5.490   2.542   9.640
37810SOL    HW115269   5.553   2.470   9.635
37810SOL    HW215270   5.540   2.615   9.677
37811SOL     OW15271   7.555  11.888   2.799
37811SOL    HW115272   7.549  11.933   2.883
37811SOL    HW215273   7.606  11.946   2.743
37812SOL     OW15274   7.310  10.682  13.472
37812SOL    HW115275   7.322  10.639  13.556
37812SOL    HW215276   7.357  10.626  13.410
37813SOL     OW15277  14.660   0.766  11.837
37813SOL    HW115278  14.737   0.712  11.818
37813SOL    HW215279  14.674   0.797  11.926
37814SOL     OW15280   6.521   1.206  10.493
37814SOL    HW115281   6.587   1.264  10.454
37814SOL    HW215282   6.492   1.151  10.420
37815SOL     OW15283   1.974   9.660   3.370
37815SOL    HW115284   2.033   9.613   3.311
37815SOL    HW215285   1.967   9.747   3.332
37816SOL     OW15286  11.454   7.506   8.614
37816SOL    HW115287  11.499   7.512   8.529
37816SOL    HW215288  11.459   7.413   8.636
37817SOL     OW15289   6.597   8.091   3.491
37817SOL    HW115290   6.690   8.088   3.515
37817SOL    HW215291   6.550   8.084   3.574
37818SOL     OW15292   3.985   0.907   2.356
37818SOL    HW115293   3.891   0.897   2.372
37818SOL    HW215294   3.991   0.965   2.281
37819SOL     OW15295  10.181  10.104   9.205
37819SOL    HW115296  10.161  10.158   9.281
37819SOL    HW215297  10.138  10.150   9.132
37820SOL     OW15298   4.412   1.487  10.618
37820SOL    HW115299   4.476   1.518  10.554
37820SOL    HW215300   4.351   1.560  10.628
37821SOL     OW15301   8.938  10.139   1.083
37821SOL    HW115302   8.969  10.064   1.134
37821SOL    HW215303   9.013  10.162   1.027
37822SOL     OW15304   7.735  11.159   0.247
37822SOL    HW115305   7.653  11.110   0.258
37822SOL    HW215306   7.802  11.104   0.288
37823SOL     OW15307   8.963   0.590   6.800
37823SOL    HW115308   9.047   0.573   6.842
37823SOL    HW215309   8.968   0.682   6.775
37824SOL     OW15310   9.022  11.780  13.664
37824SOL    HW115311   9.065  11.704  13.623
37824SOL    HW215312   8.957  11.807  13.600
37825SOL     OW15313  11.158   7.561   0.163
37825SOL    HW115314  11.246   7.572   0.127
37825SOL    HW215315  11.159   7.475   0.204
37826SOL     OW15316  10.327   7.817   5.929
37826SOL    HW115317  10.286   7.872   5.995
37826SOL    HW215318  10.405   7.865   5.902
37827SOL     OW15319   6.891   9.962   9.784
37827SOL    HW115320   6.955   9.925   9.723
37827SOL    HW215321   6.814   9.981   9.731
37828SOL     OW15322   1.236   1.677   7.729
37828SOL    HW115323   1.217   1.729   7.650
37828SOL    HW215324   1.157   1.626   7.744
37829SOL     OW15325   6.235   9.802   3.141
37829SOL    HW115326   6.262   9.736   3.206
37829SOL    HW215327   6.317   9.830   3.100
37830SOL     OW15328   3.302  10.609   2.283
37830SOL    HW115329   3.342  10.695   2.267
37830SOL    HW215330   3.376  10.552   2.305
37831SOL     OW15331  14.261   8.909   8.231
37831SOL    HW115332  14.340   8.857   8.220
37831SOL    HW215333  14.291   8.991   8.271
37832SOL     OW15334   5.308   9.066  10.199
37832SOL    HW115335   5.282   9.016  10.277
37832SOL    HW215336   5.240   9.046  10.135
37833SOL     OW15337   4.463   4.148   3.633
37833SOL    HW115338   4.450   4.214   3.701
37833SOL    HW215339   4.412   4.180   3.559
37834SOL     OW15340   9.545   2.442  10.434
37834SOL    HW115341   9.545   2.537  10.445
37834SOL    HW215342   9.606   2.426  10.362
37835SOL     OW15343   5.440   4.646   2.808
37835SOL    HW115344   5.364   4.703   2.816
37835SOL    HW215345   5.513   4.699   2.841
37836SOL     OW15346  11.335  10.164   3.938
37836SOL    HW115347  11.350  10.111   4.017
37836SOL    HW215348  11.265  10.224   3.962
37837SOL     OW15349   6.611   0.991   7.983
37837SOL    HW115350   6.694   0.983   8.031
37837SOL    HW215351   6.567   1.065   8.025
37838SOL     OW15352   6.761  11.887   0.998
37838SOL    HW115353   6.742  11.892   1.091
37838SOL    HW215354   6.698  11.823   0.964
37839SOL     OW15355  11.072   0.278   6.593
37839SOL    HW115356  10.995   0.298   6.646
37839SOL    HW215357  11.067   0.340   6.520
37840SOL     OW15358  13.584  14.805   6.050
37840SOL    HW115359  13.658  14.786   5.993
37840SOL    HW215360  13.601  14.754   6.130
37841SOL     OW15361   6.306   1.442   6.319
37841SOL    HW115362   6.283   1.410   6.406
37841SOL    HW215363   6.399   1.461   6.324
37842SOL     OW15364   9.743   4.106  14.064
37842SOL    HW115365   9.759   4.194  14.096
37842SOL    HW215366   9.787   4.102  13.979
37843SOL     OW15367  13.721   8.680  14.454
37843SOL    HW115368  13.799   8.700  14.506
37843SOL    HW215369  13.707   8.587  14.468
37844SOL     OW15370   9.804  10.736  13.775
37844SOL    HW115371   9.749  10.723  13.698
37844SOL    HW215372   9.845  10.651  13.790
37845SOL     OW15373  10.558   7.722  12.084
37845SOL    HW115374  10.595   7.634  12.075
37845SOL    HW215375  10.571   7.744  12.176
37846SOL     OW15376   0.394  11.044   9.579
37846SOL    HW115377   0.477  11.090   9.570
37846SOL    HW215378   0.408  10.983   9.651
37847SOL     OW15379   7.210   7.470   3.561
37847SOL    HW115380   7.197   7.420   3.642
37847SOL    HW215381   7.299   7.448   3.535
37848SOL     OW15382   7.035   7.759   2.401
37848SOL    HW115383   7.128   7.758   2.378
37848SOL    HW215384   7.010   7.667   2.404
37849SOL     OW15385   8.462  12.830  11.494
37849SOL    HW115386   8.380  12.865  11.531
37849SOL    HW215387   8.522  12.827  11.568
37850SOL     OW15388   4.221  12.710   6.186
37850SOL    HW115389   4.138  12.732   6.229
37850SOL    HW215390   4.219  12.615   6.178
37851SOL     OW15391   5.979   4.904  10.974
37851SOL    HW115392   5.909   4.906  11.039
37851SOL    HW215393   6.048   4.851  11.014
37852SOL     OW15394  12.756   4.281   1.476
37852SOL    HW115395  12.695   4.208   1.492
37852SOL    HW215396  12.700   4.355   1.456
37853SOL     OW15397  13.911   1.822  11.965
37853SOL    HW115398  13.936   1.755  11.902
37853SOL    HW215399  13.993   1.868  11.986
37854SOL     OW15400   6.543  13.683   9.866
37854SOL    HW115401   6.637  13.688   9.881
37854SOL    HW215402   6.506  13.752   9.922
37855SOL     OW15403   7.029   7.002  10.994
37855SOL    HW115404   6.975   6.987  11.072
37855SOL    HW215405   6.987   6.952  10.925
37856SOL     OW15406   1.115   6.051  10.548
37856SOL    HW115407   1.083   6.001  10.473
37856SOL    HW215408   1.173   5.990  10.594
37857SOL     OW15409   2.610  11.166   5.730
37857SOL    HW115410   2.636  11.254   5.757
37857SOL    HW215411   2.515  11.169   5.728
37858SOL     OW15412   6.331   9.467   8.662
37858SOL    HW115413   6.246   9.486   8.702
37858SOL    HW215414   6.332   9.519   8.582
37859SOL     OW15415   4.627   3.075  13.446
37859SOL    HW115416   4.628   3.005  13.380
37859SOL    HW215417   4.665   3.151  13.402
37860SOL     OW15418   4.198   7.854   4.679
37860SOL    HW115419   4.104   7.854   4.696
37860SOL    HW215420   4.232   7.924   4.734
37861SOL     OW15421   4.950   1.925   9.516
37861SOL    HW115422   4.880   1.977   9.556
37861SOL    HW215423   5.027   1.982   9.520
37862SOL     OW15424   0.491  10.846   8.124
37862SOL    HW115425   0.576  10.820   8.088
37862SOL    HW215426   0.437  10.864   8.047
37863SOL     OW15427   1.274  10.365   1.579
37863SOL    HW115428   1.272  10.451   1.539
37863SOL    HW215429   1.238  10.306   1.512
37864SOL     OW15430   2.014  11.785   5.656
37864SOL    HW115431   2.090  11.727   5.656
37864SOL    HW215432   2.008  11.817   5.566
37865SOL     OW15433   3.160  12.682   9.855
37865SOL    HW115434   3.100  12.678   9.781
37865SOL    HW215435   3.172  12.590   9.881
37866SOL     OW15436   0.010   1.273   5.749
37866SOL    HW115437  14.814   1.323   5.718
37866SOL    HW215438  14.857   1.183   5.754
37867SOL     OW15439   8.027   9.930   2.110
37867SOL    HW115440   8.106   9.880   2.130
37867SOL    HW215441   8.000   9.967   2.194
37868SOL     OW15442  11.738   2.260  14.673
37868SOL    HW115443  11.744   2.165  14.684
37868SOL    HW215444  11.647   2.276  14.648
37869SOL     OW15445   6.839   0.545   6.147
37869SOL    HW115446   6.927   0.507   6.147
37869SOL    HW215447   6.849   0.629   6.191
37870SOL     OW15448   9.843   5.912   4.446
37870SOL    HW115449   9.799   5.947   4.368
37870SOL    HW215450   9.772   5.895   4.508
37871SOL     OW15451   9.829   7.199   7.167
37871SOL    HW115452   9.888   7.274   7.158
37871SOL    HW215453   9.745   7.230   7.132
37872SOL     OW15454   5.256  10.093  11.878
37872SOL    HW115455   5.288  10.145  11.952
37872SOL    HW215456   5.181  10.045  11.912
37873SOL     OW15457  12.220  14.022   7.037
37873SOL    HW115458  12.268  14.103   7.023
37873SOL    HW215459  12.288  13.954   7.036
37874SOL     OW15460  14.796   0.624  10.180
37874SOL    HW115461  14.822   0.545  10.228
37874SOL    HW215462  14.766   0.684  10.248
37875SOL     OW15463   6.085   2.355   1.361
37875SOL    HW115464   6.086   2.381   1.269
37875SOL    HW215465   6.121   2.266   1.361
37876SOL     OW15466   8.689  10.937   6.740
37876SOL    HW115467   8.740  10.896   6.671
37876SOL    HW215468   8.724  10.900   6.821
37877SOL     OW15469   3.338   8.343  13.021
37877SOL    HW115470   3.297   8.365  13.105
37877SOL    HW215471   3.432   8.340  13.041
37878SOL     OW15472   1.004   4.027   6.300
37878SOL    HW115473   1.018   4.082   6.223
37878SOL    HW215474   0.989   3.939   6.264
37879SOL     OW15475  14.610   8.816   6.015
37879SOL    HW115476  14.606   8.907   6.046
37879SOL    HW215477  14.617   8.764   6.094
37880SOL     OW15478   2.911   9.631  14.324
37880SOL    HW115479   2.982   9.576  14.357
37880SOL    HW215480   2.869   9.667  14.402
37881SOL     OW15481   0.287  10.029   1.988
37881SOL    HW115482   0.298  10.096   2.056
37881SOL    HW215483   0.201  10.046   1.951
37882SOL     OW15484   2.880   3.916  10.471
37882SOL    HW115485   2.791   3.936  10.443
37882SOL    HW215486   2.885   3.821  10.471
37883SOL     OW15487   2.802   3.421  12.227
37883SOL    HW115488   2.810   3.515  12.239
37883SOL    HW215489   2.725   3.410  12.172
37884SOL     OW15490   9.956  13.420   8.184
37884SOL    HW115491  10.020  13.471   8.133
37884SOL    HW215492   9.987  13.330   8.177
37885SOL     OW15493   3.071   5.441  13.215
37885SOL    HW115494   3.062   5.379  13.143
37885SOL    HW215495   3.066   5.527  13.173
37886SOL     OW15496   4.675  12.677   1.602
37886SOL    HW115497   4.580  12.688   1.606
37886SOL    HW215498   4.704  12.748   1.544
37887SOL     OW15499   1.654   9.019   3.391
37887SOL    HW115500   1.670   8.956   3.462
37887SOL    HW215501   1.696   9.099   3.421
37888SOL     OW15502   2.437  10.821   8.856
37888SOL    HW115503   2.483  10.773   8.787
37888SOL    HW215504   2.492  10.898   8.872
37889SOL     OW15505  12.116  13.475  12.309
37889SOL    HW115506  12.151  13.561  12.291
37889SOL    HW215507  12.061  13.487  12.387
37890SOL     OW15508   5.745   0.949   6.560
37890SOL    HW115509   5.712   0.942   6.649
37890SOL    HW215510   5.667   0.965   6.506
37891SOL     OW15511   3.977   8.794   1.362
37891SOL    HW115512   4.051   8.837   1.319
37891SOL    HW215513   3.980   8.824   1.452
37892SOL     OW15514  12.593   9.797   5.947
37892SOL    HW115515  12.529   9.835   6.007
37892SOL    HW215516  12.578   9.702   5.954
37893SOL     OW15517   3.159  12.030  13.702
37893SOL    HW115518   3.165  11.937  13.724
37893SOL    HW215519   3.071  12.040  13.664
37894SOL     OW15520   0.256   3.656  13.720
37894SOL    HW115521   0.272   3.747  13.696
37894SOL    HW215522   0.199   3.622  13.651
37895SOL     OW15523  13.805   3.223   2.232
37895SOL    HW115524  13.771   3.146   2.278
37895SOL    HW215525  13.886   3.244   2.278
37896SOL     OW15526   0.327   8.068   3.716
37896SOL    HW115527   0.359   8.003   3.653
37896SOL    HW215528   0.368   8.045   3.799
37897SOL     OW15529   0.924   4.459   4.541
37897SOL    HW115530   0.946   4.478   4.450
37897SOL    HW215531   0.961   4.532   4.591
37898SOL     OW15532   9.102   2.428   0.146
37898SOL    HW115533   9.097   2.468   0.233
37898SOL    HW215534   9.079   2.336   0.160
37899SOL     OW15535   6.538   6.945   4.463
37899SOL    HW115536   6.597   6.918   4.392
37899SOL    HW215537   6.458   6.895   4.449
37900SOL     OW15538   1.959   8.634   9.057
37900SOL    HW115539   2.026   8.581   9.014
37900SOL    HW215540   1.997   8.654   9.143
37901SOL     OW15541   7.369   5.316  10.835
37901SOL    HW115542   7.463   5.323  10.822
37901SOL    HW215543   7.332   5.372  10.766
37902SOL     OW15544  10.605  11.351   8.582
37902SOL    HW115545  10.524  11.400   8.569
37902SOL    HW215546  10.608  11.335   8.676
37903SOL     OW15547   7.353  12.870   9.597
37903SOL    HW115548   7.331  12.787   9.640
37903SOL    HW215549   7.438  12.855   9.556
37904SOL     OW15550   4.892  10.889   5.262
37904SOL    HW115551   4.907  10.795   5.270
37904SOL    HW215552   4.949  10.916   5.189
37905SOL     OW15553  13.283  12.514   7.101
37905SOL    HW115554  13.240  12.462   7.168
37905SOL    HW215555  13.231  12.501   7.022
37906SOL     OW15556   2.255   5.053   3.955
37906SOL    HW115557   2.345   5.035   3.926
37906SOL    HW215558   2.216   4.967   3.966
37907SOL     OW15559   8.316   1.131  12.948
37907SOL    HW115560   8.275   1.174  13.023
37907SOL    HW215561   8.409   1.130  12.970
37908SOL     OW15562  14.010   7.811   4.273
37908SOL    HW115563  14.008   7.904   4.297
37908SOL    HW215564  14.077   7.806   4.205
37909SOL     OW15565  14.505   1.711  14.605
37909SOL    HW115566  14.508   1.651  14.530
37909SOL    HW215567  14.498   1.798  14.566
37910SOL     OW15568   1.985   7.176   3.572
37910SOL    HW115569   2.062   7.159   3.625
37910SOL    HW215570   1.946   7.254   3.611
37911SOL     OW15571   8.263   6.049   4.207
37911SOL    HW115572   8.292   6.095   4.286
37911SOL    HW215573   8.183   6.095   4.181
37912SOL     OW15574  11.173   1.033   6.281
37912SOL    HW115575  11.125   1.098   6.332
37912SOL    HW215576  11.260   1.032   6.319
37913SOL     OW15577   8.255  10.022   9.085
37913SOL    HW115578   8.168  10.011   9.047
37913SOL    HW215579   8.240  10.026   9.179
37914SOL     OW15580  10.720  13.462   4.303
37914SOL    HW115581  10.703  13.535   4.362
37914SOL    HW215582  10.736  13.387   4.361
37915SOL     OW15583   3.508   6.864  13.814
37915SOL    HW115584   3.591   6.872  13.766
37915SOL    HW215585   3.494   6.950  13.853
37916SOL     OW15586   8.820   8.222  12.083
37916SOL    HW115587   8.840   8.135  12.049
37916SOL    HW215588   8.905   8.259  12.106
37917SOL     OW15589   1.187   7.867   5.481
37917SOL    HW115590   1.155   7.955   5.463
37917SOL    HW215591   1.263   7.881   5.538
37918SOL     OW15592   8.752   8.561  13.548
37918SOL    HW115593   8.799   8.636  13.585
37918SOL    HW215594   8.703   8.598  13.475
37919SOL     OW15595   3.479  13.131   6.698
37919SOL    HW115596   3.533  13.055   6.719
37919SOL    HW215597   3.390  13.106   6.724
37920SOL     OW15598  14.555   4.038   4.082
37920SOL    HW115599  14.570   3.981   4.157
37920SOL    HW215600  14.579   4.126   4.112
37921SOL     OW15601   8.915   2.592   2.442
37921SOL    HW115602   8.956   2.505   2.445
37921SOL    HW215603   8.821   2.574   2.446
37922SOL     OW15604  13.271  12.413  10.696
37922SOL    HW115605  13.296  12.453  10.613
37922SOL    HW215606  13.226  12.332  10.671
37923SOL     OW15607   1.209   0.229  12.564
37923SOL    HW115608   1.177   0.189  12.645
37923SOL    HW215609   1.229   0.320  12.588
37924SOL     OW15610  12.227  12.515  10.408
37924SOL    HW115611  12.220  12.553  10.320
37924SOL    HW215612  12.284  12.439  10.397
37925SOL     OW15613   0.728   1.546   4.433
37925SOL    HW115614   0.793   1.614   4.448
37925SOL    HW215615   0.706   1.554   4.340
37926SOL     OW15616  12.275   7.271   4.246
37926SOL    HW115617  12.347   7.296   4.189
37926SOL    HW215618  12.219   7.349   4.249
37927SOL     OW15619  14.650   9.145   5.815
37927SOL    HW115620  14.639   9.195   5.896
37927SOL    HW215621  14.744   9.131   5.809
37928SOL     OW15622   4.313  13.701   4.724
37928SOL    HW115623   4.352  13.730   4.807
37928SOL    HW215624   4.219  13.697   4.742
37929SOL     OW15625  12.756   4.917   5.687
37929SOL    HW115626  12.777   4.978   5.617
37929SOL    HW215627  12.673   4.877   5.660
37930SOL     OW15628   9.484   8.451   4.805
37930SOL    HW115629   9.553   8.398   4.766
37930SOL    HW215630   9.402   8.413   4.773
37931SOL     OW15631   7.219  12.120  13.749
37931SOL    HW115632   7.248  12.029  13.760
37931SOL    HW215633   7.293  12.164  13.706
37932SOL     OW15634   4.637  13.748   5.239
37932SOL    HW115635   4.576  13.739   5.313
37932SOL    HW215636   4.713  13.696   5.265
37933SOL     OW15637  10.556   2.845  12.711
37933SOL    HW115638  10.537   2.754  12.692
37933SOL    HW215639  10.479   2.877  12.758
37934SOL     OW15640   5.641   5.773   1.833
37934SOL    HW115641   5.601   5.828   1.900
37934SOL    HW215642   5.713   5.728   1.878
37935SOL     OW15643   7.147  13.094   3.279
37935SOL    HW115644   7.089  13.036   3.229
37935SOL    HW215645   7.101  13.109   3.361
37936SOL     OW15646  13.736   1.036  11.739
37936SOL    HW115647  13.750   0.942  11.735
37936SOL    HW215648  13.692   1.057  11.657
37937SOL     OW15649   2.730   4.592  13.017
37937SOL    HW115650   2.780   4.551  13.087
37937SOL    HW215651   2.671   4.653  13.062
37938SOL     OW15652  11.337   4.447  13.411
37938SOL    HW115653  11.345   4.373  13.470
37938SOL    HW215654  11.421   4.450  13.365
37939SOL     OW15655  14.298   1.327   4.270
37939SOL    HW115656  14.366   1.326   4.202
37939SOL    HW215657  14.324   1.397   4.329
37940SOL     OW15658   1.089  12.517  12.067
37940SOL    HW115659   1.184  12.527  12.066
37940SOL    HW215660   1.072  12.456  12.139
37941SOL     OW15661   9.469   8.548   6.827
37941SOL    HW115662   9.475   8.498   6.745
37941SOL    HW215663   9.378   8.541   6.853
37942SOL     OW15664   4.579  10.518   0.445
37942SOL    HW115665   4.522  10.589   0.416
37942SOL    HW215666   4.548  10.497   0.533
37943SOL     OW15667   1.643  14.492  14.400
37943SOL    HW115668   1.598  14.432  14.460
37943SOL    HW215669   1.734  14.492  14.429
37944SOL     OW15670   7.564   7.816   0.228
37944SOL    HW115671   7.488   7.775   0.185
37944SOL    HW215672   7.639   7.784   0.178
37945SOL     OW15673   8.285   4.867  11.118
37945SOL    HW115674   8.204   4.841  11.075
37945SOL    HW215675   8.339   4.788  11.119
37946SOL     OW15676  11.079   7.955   4.598
37946SOL    HW115677  11.046   8.041   4.574
37946SOL    HW215678  11.104   7.914   4.515
37947SOL     OW15679   0.891   9.729   3.314
37947SOL    HW115680   0.959   9.680   3.267
37947SOL    HW215681   0.814   9.722   3.258
37948SOL     OW15682   0.011   6.968   1.157
37948SOL    HW115683   0.008   6.894   1.096
37948SOL    HW215684  14.826   7.030   1.121
37949SOL     OW15685   2.767  12.193   0.604
37949SOL    HW115686   2.744  12.140   0.528
37949SOL    HW215687   2.768  12.132   0.677
37950SOL     OW15688   9.280   9.758   6.578
37950SOL    HW115689   9.266   9.766   6.672
37950SOL    HW215690   9.283   9.664   6.562
37951SOL     OW15691   3.024  11.674   6.022
37951SOL    HW115692   3.115  11.688   5.997
37951SOL    HW215693   3.025  11.676   6.117
37952SOL     OW15694  12.369   8.223   3.765
37952SOL    HW115695  12.385   8.140   3.810
37952SOL    HW215696  12.282   8.250   3.796
37953SOL     OW15697  13.169   0.113  13.026
37953SOL    HW115698  13.140   0.199  13.055
37953SOL    HW215699  13.229   0.083  13.095
37954SOL     OW15700   4.838  13.123   8.405
37954SOL    HW115701   4.907  13.057   8.404
37954SOL    HW215702   4.873  13.194   8.459
37955SOL     OW15703   1.781  13.363  12.269
37955SOL    HW115704   1.757  13.325  12.353
37955SOL    HW215705   1.832  13.295  12.225
37956SOL     OW15706   9.163  14.127  12.472
37956SOL    HW115707   9.078  14.166  12.495
37956SOL    HW215708   9.144  14.034  12.461
37957SOL     OW15709   7.341   9.585   2.417
37957SOL    HW115710   7.355   9.634   2.498
37957SOL    HW215711   7.289   9.644   2.362
37958SOL     OW15712   2.656  14.677   7.563
37958SOL    HW115713   2.636  14.638   7.649
37958SOL    HW215714   2.575  14.669   7.514
37959SOL     OW15715  13.676   9.410  11.801
37959SOL    HW115716  13.588   9.372  11.804
37959SOL    HW215717  13.693   9.424  11.707
37960SOL     OW15718  13.340  11.705   3.847
37960SOL    HW115719  13.358  11.787   3.892
37960SOL    HW215720  13.386  11.711   3.764
37961SOL     OW15721   1.034   9.998  10.835
37961SOL    HW115722   1.005   9.916  10.795
37961SOL    HW215723   1.027   9.984  10.929
37962SOL     OW15724  12.150  13.917   3.968
37962SOL    HW115725  12.184  13.996   4.010
37962SOL    HW215726  12.055  13.927   3.971
37963SOL     OW15727  13.807  10.392  13.780
37963SOL    HW115728  13.732  10.451  13.775
37963SOL    HW215729  13.792  10.327  13.712
37964SOL     OW15730  11.852   1.811   0.002
37964SOL    HW115731  11.787   1.858   0.055
37964SOL    HW215732  11.917   1.781   0.064
37965SOL     OW15733   1.578  13.882  12.155
37965SOL    HW115734   1.645  13.841  12.101
37965SOL    HW215735   1.597  13.852  12.244
37966SOL     OW15736   9.912   8.355  11.944
37966SOL    HW115737   9.863   8.355  11.862
37966SOL    HW215738   9.854   8.311  12.006
37967SOL     OW15739   8.675   3.561   5.043
37967SOL    HW115740   8.763   3.585   5.073
37967SOL    HW215741   8.659   3.618   4.968
37968SOL     OW15742   3.400  13.862  12.065
37968SOL    HW115743   3.345  13.786  12.043
37968SOL    HW215744   3.489  13.829  12.061
37969SOL     OW15745  11.741   8.274  11.888
37969SOL    HW115746  11.657   8.231  11.872
37969SOL    HW215747  11.735   8.304  11.979
37970SOL     OW15748  13.803  13.983   5.430
37970SOL    HW115749  13.885  14.021   5.461
37970SOL    HW215750  13.776  13.923   5.499
37971SOL     OW15751   2.139  13.076   9.681
37971SOL    HW115752   2.135  12.995   9.632
37971SOL    HW215753   2.077  13.135   9.637
37972SOL     OW15754   4.523   9.063   5.792
37972SOL    HW115755   4.496   9.147   5.755
37972SOL    HW215756   4.479   9.060   5.878
37973SOL     OW15757   2.704   0.867   1.894
37973SOL    HW115758   2.666   0.826   1.816
37973SOL    HW215759   2.674   0.957   1.891
37974SOL     OW15760  14.752  11.205   8.449
37974SOL    HW115761  14.674  11.204   8.393
37974SOL    HW215762  14.721  11.237   8.533
37975SOL     OW15763  11.241   1.933  13.923
37975SOL    HW115764  11.298   1.871  13.969
37975SOL    HW215765  11.205   1.882  13.850
37976SOL     OW15766  14.598   1.139   6.944
37976SOL    HW115767  14.520   1.131   6.999
37976SOL    HW215768  14.661   1.186   6.999
37977SOL     OW15769   6.114   5.890   8.063
37977SOL    HW115770   6.161   5.907   7.981
37977SOL    HW215771   6.042   5.833   8.037
37978SOL     OW15772   1.826  10.404   6.925
37978SOL    HW115773   1.885  10.347   6.876
37978SOL    HW215774   1.786  10.346   6.990
37979SOL     OW15775  13.450   8.354  12.504
37979SOL    HW115776  13.425   8.444  12.523
37979SOL    HW215777  13.539   8.361  12.469
37980SOL     OW15778   0.799   8.125  13.941
37980SOL    HW115779   0.861   8.189  13.975
37980SOL    HW215780   0.827   8.041  13.976
37981SOL     OW15781   4.600   2.454  14.456
37981SOL    HW115782   4.516   2.492  14.484
37981SOL    HW215783   4.595   2.452  14.361
37982SOL     OW15784  10.879   2.126   3.869
37982SOL    HW115785  10.943   2.084   3.927
37982SOL    HW215786  10.932   2.176   3.807
37983SOL     OW15787   8.145   7.106   5.145
37983SOL    HW115788   8.117   7.062   5.225
37983SOL    HW215789   8.230   7.144   5.166
37984SOL     OW15790  10.977   3.969   8.375
37984SOL    HW115791  11.024   3.926   8.303
37984SOL    HW215792  10.918   3.902   8.408
37985SOL     OW15793   9.447   9.508  13.631
37985SOL    HW115794   9.451   9.495  13.536
37985SOL    HW215795   9.391   9.584  13.643
37986SOL     OW15796   1.213  14.513  12.583
37986SOL    HW115797   1.266  14.568  12.640
37986SOL    HW215798   1.275  14.446  12.552
37987SOL     OW15799   9.397  14.172   9.383
37987SOL    HW115800   9.352  14.234   9.441
37987SOL    HW215801   9.363  14.086   9.409
37988SOL     OW15802   6.423   9.463  11.264
37988SOL    HW115803   6.394   9.479  11.174
37988SOL    HW215804   6.509   9.505  11.269
37989SOL     OW15805  14.813   6.014  13.279
37989SOL    HW115806  14.745   6.073  13.245
37989SOL    HW215807  14.818   5.944  13.213
37990SOL     OW15808   1.046  13.672   3.955
37990SOL    HW115809   1.125  13.636   3.995
37990SOL    HW215810   1.079  13.727   3.884
37991SOL     OW15811  11.792   5.068   8.806
37991SOL    HW115812  11.706   5.046   8.771
37991SOL    HW215813  11.780   5.153   8.848
37992SOL     OW15814   8.044   8.059   8.866
37992SOL    HW115815   7.950   8.062   8.885
37992SOL    HW215816   8.067   7.966   8.876
37993SOL     OW15817  10.302   1.592   1.467
37993SOL    HW115818  10.309   1.677   1.423
37993SOL    HW215819  10.376   1.590   1.528
37994SOL     OW15820   8.543   7.977  12.915
37994SOL    HW115821   8.516   8.013  13.000
37994SOL    HW215822   8.633   7.950  12.929
37995SOL     OW15823   4.826   7.050   0.498
37995SOL    HW115824   4.880   6.972   0.493
37995SOL    HW215825   4.826   7.086   0.409
37996SOL     OW15826  11.857  13.813  10.122
37996SOL    HW115827  11.777  13.764  10.140
37996SOL    HW215828  11.919  13.747  10.090
37997SOL     OW15829   4.899   8.065  11.071
37997SOL    HW115830   4.931   8.090  10.984
37997SOL    HW215831   4.834   8.132  11.093
37998SOL     OW15832   3.953  14.668   3.181
37998SOL    HW115833   3.986  14.586   3.218
37998SOL    HW215834   3.860  14.651   3.166
37999SOL     OW15835  12.996  10.849   6.145
37999SOL    HW115836  13.027  10.919   6.088
37999SOL    HW215837  13.061  10.844   6.215
38000SOL     OW15838   9.556  14.477   2.494
38000SOL    HW115839   9.616  14.496   2.566
38000SOL    HW215840   9.530  14.386   2.508
38001SOL     OW15841   0.782  10.602   0.773
38001SOL    HW115842   0.777  10.692   0.805
38001SOL    HW215843   0.804  10.611   0.680
38002SOL     OW15844   6.844   1.543   0.405
38002SOL    HW115845   6.879   1.558   0.493
38002SOL    HW215846   6.763   1.594   0.402
38003SOL     OW15847   5.674   2.128   2.536
38003SOL    HW115848   5.666   2.047   2.587
38003SOL    HW215849   5.764   2.126   2.503
38004SOL     OW15850   1.875  13.515   4.644
38004SOL    HW115851   1.829  13.528   4.727
38004SOL    HW215852   1.869  13.421   4.628
38005SOL     OW15853   8.736   4.168   3.980
38005SOL    HW115854   8.792   4.237   4.017
38005SOL    HW215855   8.792   4.122   3.918
38006SOL     OW15856   8.063   1.356   5.510
38006SOL    HW115857   8.147   1.320   5.482
38006SOL    HW215858   8.050   1.319   5.598
38007SOL     OW15859   2.755   3.928   7.887
38007SOL    HW115860   2.815   3.969   7.950
38007SOL    HW215861   2.676   3.912   7.938
38008SOL     OW15862  11.778   8.103  12.190
38008SOL    HW115863  11.850   8.138  12.242
38008SOL    HW215864  11.818   8.033  12.138
38009SOL     OW15865   1.224   2.072   8.008
38009SOL    HW115866   1.211   1.982   8.039
38009SOL    HW215867   1.149   2.121   8.044
38010SOL     OW15868  11.718   1.270   9.121
38010SOL    HW115869  11.737   1.358   9.155
38010SOL    HW215870  11.641   1.242   9.169
38011SOL     OW15871  11.678  13.892   1.743
38011SOL    HW115872  11.762  13.907   1.699
38011SOL    HW215873  11.612  13.908   1.675
38012SOL     OW15874   8.768   4.301  10.884
38012SOL    HW115875   8.724   4.276  10.802
38012SOL    HW215876   8.759   4.225  10.940
38013SOL     OW15877   0.445   3.580   8.655
38013SOL    HW115878   0.492   3.633   8.720
38013SOL    HW215879   0.377   3.638   8.622
38014SOL     OW15880   6.656   3.519  11.221
38014SOL    HW115881   6.632   3.612  11.224
38014SOL    HW215882   6.752   3.519  11.226
38015SOL     OW15883   4.354  11.388   5.974
38015SOL    HW115884   4.263  11.363   5.987
38015SOL    HW215885   4.401  11.347   6.048
38016SOL     OW15886   0.529   2.114   1.397
38016SOL    HW115887   0.580   2.195   1.391
38016SOL    HW215888   0.589   2.050   1.434
38017SOL     OW15889   4.345   5.762   2.705
38017SOL    HW115890   4.354   5.849   2.667
38017SOL    HW215891   4.265   5.727   2.666
38018SOL     OW15892   2.621   3.472   8.269
38018SOL    HW115893   2.657   3.554   8.234
38018SOL    HW215894   2.538   3.462   8.222
38019SOL     OW15895   1.293   7.607   4.856
38019SOL    HW115896   1.265   7.698   4.852
38019SOL    HW215897   1.287   7.584   4.949
38020SOL     OW15898   6.834  12.888   0.219
38020SOL    HW115899   6.924  12.859   0.235
38020SOL    HW215900   6.830  12.899   0.124
38021SOL     OW15901   8.233  11.100   0.865
38021SOL    HW115902   8.311  11.156   0.856
38021SOL    HW215903   8.259  11.034   0.930
38022SOL     OW15904   7.764  14.796   0.388
38022SOL    HW115905   7.761  14.712   0.343
38022SOL    HW215906   7.849  14.833   0.363
38023SOL     OW15907   7.596   1.789   9.463
38023SOL    HW115908   7.602   1.729   9.388
38023SOL    HW215909   7.623   1.736   9.538
38024SOL     OW15910   2.520  14.118  14.480
38024SOL    HW115911   2.481  14.163  14.555
38024SOL    HW215912   2.551  14.188  14.423
38025SOL     OW15913   0.223  10.891   9.385
38025SOL    HW115914   0.219  10.982   9.417
38025SOL    HW215915   0.250  10.840   9.461
38026SOL     OW15916   4.133   6.849   2.523
38026SOL    HW115917   4.101   6.935   2.549
38026SOL    HW215918   4.054   6.797   2.509
38027SOL     OW15919  14.125   1.005   7.784
38027SOL    HW115920  14.157   1.066   7.718
38027SOL    HW215921  14.198   0.945   7.800
38028SOL     OW15922  14.865   8.815  10.020
38028SOL    HW115923  14.788   8.777  10.062
38028SOL    HW215924  14.874   8.901  10.060
38029SOL     OW15925  12.331  14.311   1.698
38029SOL    HW115926  12.296  14.330   1.785
38029SOL    HW215927  12.297  14.381   1.642
38030SOL     OW15928   7.743   3.840  10.477
38030SOL    HW115929   7.739   3.912  10.413
38030SOL    HW215930   7.751   3.884  10.562
38031SOL     OW15931   7.539   7.079  10.715
38031SOL    HW115932   7.511   7.169  10.704
38031SOL    HW215933   7.476   7.041  10.776
38032SOL     OW15934   1.951  10.803   8.786
38032SOL    HW115935   2.036  10.799   8.830
38032SOL    HW215936   1.970  10.780   8.695
38033SOL     OW15937  12.819   4.893   8.837
38033SOL    HW115938  12.829   4.818   8.780
38033SOL    HW215939  12.853   4.864   8.922
38034SOL     OW15940   6.273   3.999   0.371
38034SOL    HW115941   6.186   4.004   0.411
38034SOL    HW215942   6.325   3.948   0.434
38035SOL     OW15943   1.563  11.895   0.045
38035SOL    HW115944   1.532  11.815   0.001
38035SOL    HW215945   1.495  11.960   0.028
38036SOL     OW15946   7.369   2.987   3.245
38036SOL    HW115947   7.334   2.897   3.244
38036SOL    HW215948   7.348   3.022   3.159
38037SOL     OW15949   7.980  11.537  11.261
38037SOL    HW115950   8.070  11.537  11.294
38037SOL    HW215951   7.943  11.617  11.297
38038SOL     OW15952   7.357   1.650   3.986
38038SOL    HW115953   7.389   1.568   4.023
38038SOL    HW215954   7.407   1.718   4.032
38039SOL     OW15955  11.470   9.211   8.041
38039SOL    HW115956  11.379   9.234   8.057
38039SOL    HW215957  11.497   9.268   7.969
38040SOL     OW15958  11.841   2.576   0.606
38040SOL    HW115959  11.854   2.527   0.525
38040SOL    HW215960  11.889   2.526   0.672
38041SOL     OW15961  10.962   5.042   3.627
38041SOL    HW115962  10.907   5.119   3.617
38041SOL    HW215963  11.015   5.040   3.547
38042SOL     OW15964   4.215   3.170   0.786
38042SOL    HW115965   4.202   3.202   0.875
38042SOL    HW215966   4.127   3.160   0.750
38043SOL     OW15967  14.505  13.512  11.049
38043SOL    HW115968  14.586  13.543  11.010
38043SOL    HW215969  14.446  13.587  11.044
38044SOL     OW15970   5.708  11.221   3.127
38044SOL    HW115971   5.695  11.129   3.104
38044SOL    HW215972   5.653  11.269   3.065
38045SOL     OW15973   4.247   9.827   4.348
38045SOL    HW115974   4.293   9.823   4.265
38045SOL    HW215975   4.204   9.912   4.348
38046SOL     OW15976  12.565  14.584   6.861
38046SOL    HW115977  12.602  14.509   6.906
38046SOL    HW215978  12.628  14.655   6.877
38047SOL     OW15979   0.639   3.512   0.909
38047SOL    HW115980   0.545   3.495   0.915
38047SOL    HW215981   0.668   3.523   0.999
38048SOL     OW15982  10.603   5.897   1.538
38048SOL    HW115983  10.649   5.839   1.598
38048SOL    HW215984  10.566   5.966   1.593
38049SOL     OW15985   6.704   4.142   4.748
38049SOL    HW115986   6.747   4.146   4.834
38049SOL    HW215987   6.615   4.174   4.764
38050SOL     OW15988   6.990   4.071   5.901
38050SOL    HW115989   6.997   4.014   5.824
38050SOL    HW215990   7.060   4.043   5.959
38051SOL     OW15991   2.764  10.994  12.897
38051SOL    HW115992   2.800  10.924  12.844
38051SOL    HW215993   2.740  10.952  12.980
38052SOL     OW15994  14.264  13.728   5.906
38052SOL    HW115995  14.267  13.633   5.901
38052SOL    HW215996  14.172  13.750   5.915
38053SOL     OW15997   8.722  13.178   1.517
38053SOL    HW115998   8.761  13.175   1.604
38053SOL    HW215999   8.642  13.229   1.528
38054SOL     OW16000   4.602   7.841   2.449
38054SOL    HW116001   4.577   7.768   2.392
38054SOL    HW216002   4.671   7.806   2.505
38055SOL     OW16003  14.463   5.518  13.637
38055SOL    HW116004  14.540   5.461  13.633
38055SOL    HW216005  14.445   5.527  13.731
38056SOL     OW16006  11.954   6.640   6.738
38056SOL    HW116007  11.966   6.725   6.780
38056SOL    HW216008  11.889   6.596   6.793
38057SOL     OW16009   2.476  12.766   2.561
38057SOL    HW116010   2.388  12.734   2.580
38057SOL    HW216011   2.464  12.828   2.489
38058SOL     OW16012   1.975  10.364  14.090
38058SOL    HW116013   1.891  10.351  14.045
38058SOL    HW216014   2.040  10.368  14.020
38059SOL     OW16015   0.001   5.221   3.107
38059SOL    HW116016  14.799   5.267   3.126
38059SOL    HW216017   0.028   5.254   3.021
38060SOL     OW16018  11.671  10.785   0.926
38060SOL    HW116019  11.712  10.844   0.862
38060SOL    HW216020  11.678  10.699   0.885
38061SOL     OW16021   7.023   1.483   5.061
38061SOL    HW116022   7.022   1.487   5.157
38061SOL    HW216023   7.061   1.398   5.040
38062SOL     OW16024   3.425   2.226  12.954
38062SOL    HW116025   3.478   2.187  12.885
38062SOL    HW216026   3.460   2.314  12.965
38063SOL     OW16027   1.211   5.026   1.701
38063SOL    HW116028   1.293   5.001   1.744
38063SOL    HW216029   1.207   5.121   1.712
38064SOL     OW16030   1.450  11.865   7.633
38064SOL    HW116031   1.439  11.814   7.713
38064SOL    HW216032   1.452  11.799   7.563
38065SOL     OW16033   7.604   1.830  12.722
38065SOL    HW116034   7.522   1.838  12.674
38065SOL    HW216035   7.630   1.920  12.740
38066SOL     OW16036   4.531  13.552   8.110
38066SOL    HW116037   4.601  13.488   8.099
38066SOL    HW216038   4.565  13.632   8.069
38067SOL     OW16039   1.015   7.378  11.232
38067SOL    HW116040   0.983   7.454  11.281
38067SOL    HW216041   0.969   7.303  11.271
38068SOL     OW16042   9.800   8.729  14.781
38068SOL    HW116043   9.790   8.780  14.861
38068SOL    HW216044   9.785   8.638  14.809
38069SOL     OW16045  13.651  10.252  12.492
38069SOL    HW116046  13.687  10.339  12.510
38069SOL    HW216047  13.641  10.250  12.397
38070SOL     OW16048   8.271   0.425  13.407
38070SOL    HW116049   8.245   0.510  13.442
38070SOL    HW216050   8.188   0.383  13.382
38071SOL     OW16051   3.883   0.132  11.075
38071SOL    HW116052   3.814   0.194  11.049
38071SOL    HW216053   3.946   0.186  11.123
38072SOL     OW16054   3.608   1.971   6.626
38072SOL    HW116055   3.649   1.980   6.540
38072SOL    HW216056   3.604   1.877   6.642
38073SOL     OW16057   5.924   0.434   0.173
38073SOL    HW116058   5.938   0.371   0.102
38073SOL    HW216059   6.004   0.429   0.226
38074SOL     OW16060   0.510   9.914   0.401
38074SOL    HW116061   0.451   9.961   0.342
38074SOL    HW216062   0.595   9.915   0.357
38075SOL     OW16063   6.658   6.442   4.023
38075SOL    HW116064   6.674   6.506   3.955
38075SOL    HW216065   6.693   6.482   4.103
38076SOL     OW16066   2.735   4.670  13.291
38076SOL    HW116067   2.692   4.585  13.301
38076SOL    HW216068   2.674   4.733  13.330
38077SOL     OW16069   4.855  12.674   3.840
38077SOL    HW116070   4.824  12.705   3.754
38077SOL    HW216071   4.845  12.579   3.836
38078SOL     OW16072   9.962  10.528   6.294
38078SOL    HW116073   9.927  10.547   6.207
38078SOL    HW216074   9.981  10.434   6.292
38079SOL     OW16075  13.664   3.673  11.686
38079SOL    HW116076  13.758   3.656  11.687
38079SOL    HW216077  13.644   3.705  11.774
38080SOL     OW16078  14.146  14.353   0.957
38080SOL    HW116079  14.121  14.441   0.986
38080SOL    HW216080  14.200  14.369   0.879
38081SOL     OW16081   6.131   4.978   9.631
38081SOL    HW116082   6.169   4.964   9.544
38081SOL    HW216083   6.037   4.986   9.615
38082SOL     OW16084   3.077   4.241   7.544
38082SOL    HW116085   3.035   4.264   7.462
38082SOL    HW216086   3.099   4.148   7.535
38083SOL     OW16087   9.023   8.036   3.742
38083SOL    HW116088   9.046   7.946   3.718
38083SOL    HW216089   9.049   8.044   3.833
38084SOL     OW16090  12.592  11.844   2.950
38084SOL    HW116091  12.515  11.789   2.963
38084SOL    HW216092  12.645  11.797   2.886
38085SOL     OW16093   8.041   7.212   4.117
38085SOL    HW116094   7.983   7.226   4.192
38085SOL    HW216095   8.028   7.120   4.093
38086SOL     OW16096   8.550  11.653   9.854
38086SOL    HW116097   8.475  11.641   9.795
38086SOL    HW216098   8.626  11.632   9.799
38087SOL     OW16099  10.030   0.772   9.876
38087SOL    HW116100  10.092   0.808   9.940
38087SOL    HW216101   9.997   0.692   9.917
38088SOL     OW16102  11.271   4.023  11.265
38088SOL    HW116103  11.256   4.030  11.171
38088SOL    HW216104  11.223   4.096  11.303
38089SOL     OW16105   3.008   5.035   8.215
38089SOL    HW116106   3.049   4.954   8.187
38089SOL    HW216107   2.927   5.040   8.163
38090SOL     OW16108  12.951   6.827   6.869
38090SOL    HW116109  13.026   6.867   6.826
38090SOL    HW216110  12.970   6.833   6.962
38091SOL     OW16111  11.499   6.239  11.314
38091SOL    HW116112  11.444   6.313  11.288
38091SOL    HW216113  11.508   6.187  11.234
38092SOL     OW16114  12.050   3.519  13.406
38092SOL    HW116115  11.989   3.549  13.339
38092SOL    HW216116  12.039   3.424  13.408
38093SOL     OW16117  10.514   6.436  14.779
38093SOL    HW116118  10.475   6.380  14.712
38093SOL    HW216119  10.443   6.456  14.839
38094SOL     OW16120   1.885   1.751   4.451
38094SOL    HW116121   1.860   1.841   4.433
38094SOL    HW216122   1.823   1.722   4.518
38095SOL     OW16123  13.160   5.095   1.798
38095SOL    HW116124  13.181   5.084   1.705
38095SOL    HW216125  13.152   5.190   1.809
38096SOL     OW16126   2.507  11.152   6.491
38096SOL    HW116127   2.464  11.185   6.570
38096SOL    HW216128   2.600  11.166   6.506
38097SOL     OW16129  13.988  14.598  13.057
38097SOL    HW116130  14.025  14.558  13.136
38097SOL    HW216131  14.061  14.649  13.020
38098SOL     OW16132  14.452   5.204   2.790
38098SOL    HW116133  14.460   5.300   2.792
38098SOL    HW216134  14.369   5.188   2.745
38099SOL     OW16135   4.287   0.503   5.193
38099SOL    HW116136   4.209   0.555   5.211
38099SOL    HW216137   4.359   0.566   5.197
38100SOL     OW16138   9.496   4.585  14.301
38100SOL    HW116139   9.561   4.517  14.318
38100SOL    HW216140   9.548   4.663  14.283
38101SOL     OW16141  13.378  14.559   8.974
38101SOL    HW116142  13.310  14.590   8.914
38101SOL    HW216143  13.456  14.551   8.920
38102SOL     OW16144   0.422   5.477   7.366
38102SOL    HW116145   0.508   5.505   7.334
38102SOL    HW216146   0.360   5.531   7.318
38103SOL     OW16147   6.964   9.767   8.152
38103SOL    HW116148   6.939   9.730   8.236
38103SOL    HW216149   6.887   9.753   8.096
38104SOL     OW16150  11.120   6.125   1.880
38104SOL    HW116151  11.121   6.191   1.810
38104SOL    HW216152  11.212   6.105   1.896
38105SOL     OW16153   1.928  12.197   7.826
38105SOL    HW116154   1.972  12.165   7.747
38105SOL    HW216155   1.846  12.236   7.794
38106SOL     OW16156   1.848   7.393   2.565
38106SOL    HW116157   1.829   7.311   2.611
38106SOL    HW216158   1.849   7.460   2.634
38107SOL     OW16159   5.642   9.333   4.913
38107SOL    HW116160   5.717   9.355   4.859
38107SOL    HW216161   5.672   9.349   5.003
38108SOL     OW16162   0.131  13.225   6.250
38108SOL    HW116163   0.209  13.262   6.208
38108SOL    HW216164   0.104  13.153   6.192
38109SOL     OW16165   6.677   5.348  14.715
38109SOL    HW116166   6.642   5.370  14.628
38109SOL    HW216167   6.635   5.265  14.737
38110SOL     OW16168   4.055   4.453   8.454
38110SOL    HW116169   4.079   4.475   8.544
38110SOL    HW216170   4.008   4.531   8.423
38111SOL     OW16171   4.503   3.345   9.210
38111SOL    HW116172   4.431   3.405   9.187
38111SOL    HW216173   4.523   3.301   9.128
38112SOL     OW16174   3.335   9.717   0.659
38112SOL    HW116175   3.242   9.718   0.636
38112SOL    HW216176   3.344   9.784   0.727
38113SOL     OW16177   4.207  13.483   5.219
38113SOL    HW116178   4.177  13.564   5.261
38113SOL    HW216179   4.289  13.462   5.263
38114SOL     OW16180   1.662   6.848   0.270
38114SOL    HW116181   1.637   6.889   0.187
38114SOL    HW216182   1.748   6.809   0.252
38115SOL     OW16183   6.382  11.183  13.448
38115SOL    HW116184   6.312  11.149  13.392
38115SOL    HW216185   6.407  11.109  13.503
38116SOL     OW16186   7.354   5.597  12.679
38116SOL    HW116187   7.276   5.609  12.734
38116SOL    HW216188   7.428   5.602  12.740
38117SOL     OW16189  14.397  13.662   7.269
38117SOL    HW116190  14.343  13.630   7.196
38117SOL    HW216191  14.346  13.639   7.347
38118SOL     OW16192   6.501  12.202   6.803
38118SOL    HW116193   6.533  12.112   6.816
38118SOL    HW216194   6.579  12.257   6.816
38119SOL     OW16195   5.673  11.899  13.096
38119SOL    HW116196   5.722  11.930  13.019
38119SOL    HW216197   5.741  11.868  13.156
38120SOL     OW16198   9.549   6.276  12.282
38120SOL    HW116199   9.616   6.283  12.214
38120SOL    HW216200   9.482   6.220  12.243
38121SOL     OW16201   5.986   2.742   1.633
38121SOL    HW116202   5.934   2.662   1.634
38121SOL    HW216203   5.925   2.810   1.606
38122SOL     OW16204  11.278   5.741   3.097
38122SOL    HW116205  11.254   5.799   3.169
38122SOL    HW216206  11.194   5.706   3.065
38123SOL     OW16207   8.848   0.704   4.419
38123SOL    HW116208   8.799   0.689   4.338
38123SOL    HW216209   8.781   0.714   4.487
38124SOL     OW16210  13.518   2.878   3.398
38124SOL    HW116211  13.469   2.959   3.385
38124SOL    HW216212  13.606   2.896   3.365
38125SOL     OW16213   4.239  10.772  12.569
38125SOL    HW116214   4.198  10.702  12.621
38125SOL    HW216215   4.198  10.853  12.601
38126SOL     OW16216   4.503   0.969   0.812
38126SOL    HW116217   4.576   0.932   0.763
38126SOL    HW216218   4.444   0.895   0.827
38127SOL     OW16219  10.249   0.190   5.253
38127SOL    HW116220  10.224   0.173   5.343
38127SOL    HW216221  10.226   0.111   5.205
38128SOL     OW16222  14.431   9.877  14.051
38128SOL    HW116223  14.362   9.943  14.051
38128SOL    HW216224  14.484   9.898  13.974
38129SOL     OW16225   4.741   4.575   7.228
38129SOL    HW116226   4.687   4.635   7.279
38129SOL    HW216227   4.823   4.621   7.214
38130SOL     OW16228   7.378   8.275   6.901
38130SOL    HW116229   7.393   8.353   6.849
38130SOL    HW216230   7.286   8.253   6.886
38131SOL     OW16231   9.066   6.435   1.831
38131SOL    HW116232   9.021   6.479   1.903
38131SOL    HW216233   9.156   6.465   1.838
38132SOL     OW16234   8.895   1.232   7.409
38132SOL    HW116235   8.907   1.322   7.441
38132SOL    HW216236   8.950   1.179   7.467
38133SOL     OW16237   6.589  10.316   1.438
38133SOL    HW116238   6.644  10.248   1.398
38133SOL    HW216239   6.553  10.364   1.363
38134SOL     OW16240   0.245   5.189   8.468
38134SOL    HW116241   0.200   5.261   8.424
38134SOL    HW216242   0.266   5.225   8.555
38135SOL     OW16243   8.167  14.739   6.723
38135SOL    HW116244   8.232  14.806   6.702
38135SOL    HW216245   8.083  14.781   6.704
38136SOL     OW16246   0.902   3.243   3.772
38136SOL    HW116247   0.965   3.247   3.844
38136SOL    HW216248   0.821   3.214   3.813
38137SOL     OW16249   9.977   2.765  12.269
38137SOL    HW116250   9.954   2.700  12.203
38137SOL    HW216251  10.038   2.824  12.224
38138SOL     OW16252  14.838   4.196   7.241
38138SOL    HW116253  14.764   4.255   7.227
38138SOL    HW216254   0.013   4.206   7.163
38139SOL     OW16255  12.583   1.424  14.015
38139SOL    HW116256  12.563   1.511  13.981
38139SOL    HW216257  12.676   1.428  14.039
38140SOL     OW16258   7.914   3.131   0.247
38140SOL    HW116259   7.868   3.181   0.315
38140SOL    HW216260   7.852   3.063   0.222
38141SOL     OW16261   0.529   4.777  13.553
38141SOL    HW116262   0.582   4.772  13.632
38141SOL    HW216263   0.443   4.744  13.579
38142SOL     OW16264   6.561  10.768   1.928
38142SOL    HW116265   6.617  10.795   2.001
38142SOL    HW216266   6.569  10.673   1.925
38143SOL     OW16267   2.703   3.216  11.822
38143SOL    HW116268   2.798   3.214  11.826
38143SOL    HW216269   2.682   3.246  11.734
38144SOL     OW16270   9.908   2.696   4.508
38144SOL    HW116271   9.946   2.736   4.430
38144SOL    HW216272   9.843   2.635   4.475
38145SOL     OW16273  10.211   4.141   6.149
38145SOL    HW116274  10.228   4.188   6.067
38145SOL    HW216275  10.168   4.207   6.204
38146SOL     OW16276   4.475   5.705   8.274
38146SOL    HW116277   4.530   5.769   8.318
38146SOL    HW216278   4.498   5.622   8.313
38147SOL     OW16279   1.302  12.587   4.608
38147SOL    HW116280   1.383  12.622   4.572
38147SOL    HW216281   1.306  12.607   4.702
38148SOL     OW16282   0.799   1.509  11.308
38148SOL    HW116283   0.824   1.591  11.264
38148SOL    HW216284   0.870   1.449  11.288
38149SOL     OW16285  10.139   6.199   7.802
38149SOL    HW116286  10.136   6.188   7.707
38149SOL    HW216287  10.060   6.155   7.834
38150SOL     OW16288  12.031  10.465   4.957
38150SOL    HW116289  11.996  10.435   4.872
38150SOL    HW216290  12.098  10.401   4.979
38151SOL     OW16291   7.334   3.105  12.966
38151SOL    HW116292   7.328   3.189  13.011
38151SOL    HW216293   7.243   3.078  12.955
38152SOL     OW16294  12.629   9.367   0.088
38152SOL    HW116295  12.603   9.332   0.173
38152SOL    HW216296  12.549   9.361   0.034
38153SOL     OW16297   1.216   8.026   5.139
38153SOL    HW116298   1.173   8.061   5.217
38153SOL    HW216299   1.149   7.974   5.095
38154SOL     OW16300  12.936  14.185   6.837
38154SOL    HW116301  12.962  14.139   6.757
38154SOL    HW216302  12.846  14.156   6.854
38155SOL     OW16303   2.944   8.976  14.116
38155SOL    HW116304   2.986   8.890  14.110
38155SOL    HW216305   2.949   8.999  14.209
38156SOL     OW16306  12.688   2.236   5.728
38156SOL    HW116307  12.725   2.312   5.772
38156SOL    HW216308  12.596   2.259   5.714
38157SOL     OW16309   5.238   2.784  11.647
38157SOL    HW116310   5.253   2.794  11.553
38157SOL    HW216311   5.252   2.691  11.664
38158SOL     OW16312   7.541  13.923   9.192
38158SOL    HW116313   7.544  13.982   9.267
38158SOL    HW216314   7.624  13.937   9.147
38159SOL     OW16315   8.593   1.050   4.984
38159SOL    HW116316   8.668   1.058   4.924
38159SOL    HW216317   8.630   1.067   5.071
38160SOL     OW16318   5.945   7.511   0.917
38160SOL    HW116319   5.948   7.416   0.925
38160SOL    HW216320   5.890   7.528   0.841
38161SOL     OW16321   9.921   9.987  13.980
38161SOL    HW116322   9.964   9.938  13.909
38161SOL    HW216323   9.989  10.043  14.016
38162SOL     OW16324   2.226   6.371  14.017
38162SOL    HW116325   2.136   6.399  14.037
38162SOL    HW216326   2.222   6.275  14.023
38163SOL     OW16327  11.936   7.677  11.353
38163SOL    HW116328  12.020   7.682  11.307
38163SOL    HW216329  11.954   7.624  11.431
38164SOL     OW16330  13.583   4.285  12.738
38164SOL    HW116331  13.594   4.358  12.677
38164SOL    HW216332  13.544   4.324  12.816
38165SOL     OW16333   0.968  11.063  12.159
38165SOL    HW116334   1.044  11.088  12.106
38165SOL    HW216335   1.001  10.995  12.218
38166SOL     OW16336   3.996   9.511   8.990
38166SOL    HW116337   3.934   9.556   8.932
38166SOL    HW216338   4.030   9.438   8.938
38167SOL     OW16339   9.014  13.782   5.796
38167SOL    HW116340   8.931  13.778   5.844
38167SOL    HW216341   9.078  13.747   5.858
38168SOL     OW16342   3.453   3.575   6.974
38168SOL    HW116343   3.464   3.562   7.068
38168SOL    HW216344   3.470   3.490   6.936
38169SOL     OW16345   1.794   2.043   2.060
38169SOL    HW116346   1.773   2.018   1.970
38169SOL    HW216347   1.794   1.960   2.109
38170SOL     OW16348   9.527   7.946   5.324
38170SOL    HW116349   9.451   7.998   5.351
38170SOL    HW216350   9.584   7.945   5.401
38171SOL     OW16351   3.193  14.678   5.205
38171SOL    HW116352   3.199  14.675   5.300
38171SOL    HW216353   3.221  14.591   5.176
38172SOL     OW16354  10.909   7.125   7.420
38172SOL    HW116355  10.995   7.158   7.447
38172SOL    HW216356  10.867   7.199   7.377
38173SOL     OW16357   0.628  13.109   9.812
38173SOL    HW116358   0.716  13.077   9.833
38173SOL    HW216359   0.586  13.120   9.898
38174SOL     OW16360   9.477   6.062  10.301
38174SOL    HW116361   9.385   6.062  10.274
38174SOL    HW216362   9.526   6.048  10.220
38175SOL     OW16363   7.895  11.653   1.913
38175SOL    HW116364   7.869  11.573   1.868
38175SOL    HW216365   7.969  11.686   1.861
38176SOL     OW16366   8.637   9.918   4.432
38176SOL    HW116367   8.580   9.990   4.459
38176SOL    HW216368   8.625   9.851   4.500
38177SOL     OW16369  13.075   2.648   6.316
38177SOL    HW116370  13.034   2.678   6.398
38177SOL    HW216371  13.005   2.602   6.270
38178SOL     OW16372  13.366  12.350   0.501
38178SOL    HW116373  13.386  12.377   0.591
38178SOL    HW216374  13.271  12.342   0.498
38179SOL     OW16375   7.911  12.380   0.789
38179SOL    HW116376   7.950  12.303   0.833
38179SOL    HW216377   7.885  12.347   0.703
38180SOL     OW16378  11.942   0.418   7.810
38180SOL    HW116379  11.920   0.484   7.875
38180SOL    HW216380  12.036   0.405   7.819
38181SOL     OW16381   9.174  11.958   1.360
38181SOL    HW116382   9.133  11.972   1.274
38181SOL    HW216383   9.113  11.997   1.422
38182SOL     OW16384   5.215  14.485   6.100
38182SOL    HW116385   5.143  14.535   6.140
38182SOL    HW216386   5.245  14.541   6.028
38183SOL     OW16387   0.098   0.926   0.075
38183SOL    HW116388   0.112   0.833   0.053
38183SOL    HW216389   0.187   0.962   0.083
38184SOL     OW16390   6.801   5.821   0.319
38184SOL    HW116391   6.785   5.803   0.227
38184SOL    HW216392   6.824   5.736   0.357
38185SOL     OW16393  14.781  12.333   6.280
38185SOL    HW116394  14.779  12.238   6.291
38185SOL    HW216395  14.699  12.363   6.319
38186SOL     OW16396   1.197   4.767   7.530
38186SOL    HW116397   1.194   4.672   7.541
38186SOL    HW216398   1.118   4.788   7.481
38187SOL     OW16399   9.980  12.429   6.952
38187SOL    HW116400   9.997  12.520   6.977
38187SOL    HW216401   9.913  12.435   6.885
38188SOL     OW16402   0.970   4.416   1.434
38188SOL    HW116403   0.903   4.407   1.502
38188SOL    HW216404   0.931   4.374   1.357
38189SOL     OW16405   6.260   9.858  11.691
38189SOL    HW116406   6.307   9.784  11.653
38189SOL    HW216407   6.327   9.909  11.735
38190SOL     OW16408   6.055  14.099   0.656
38190SOL    HW116409   5.982  14.045   0.689
38190SOL    HW216410   6.070  14.163   0.726
38191SOL     OW16411   1.111   4.955   3.080
38191SOL    HW116412   1.053   4.886   3.110
38191SOL    HW216413   1.061   5.036   3.089
38192SOL     OW16414   6.354   5.056   0.327
38192SOL    HW116415   6.437   5.054   0.281
38192SOL    HW216416   6.361   5.131   0.387
38193SOL     OW16417   2.776   8.273  13.061
38193SOL    HW116418   2.806   8.182  13.053
38193SOL    HW216419   2.696   8.267  13.114
38194SOL     OW16420  11.632  13.464  13.176
38194SOL    HW116421  11.645  13.370  13.185
38194SOL    HW216422  11.699  13.503  13.232
38195SOL     OW16423   1.132  11.733   6.061
38195SOL    HW116424   1.164  11.822   6.076
38195SOL    HW216425   1.211  11.679   6.054
38196SOL     OW16426   4.715  11.667   9.841
38196SOL    HW116427   4.672  11.637   9.922
38196SOL    HW216428   4.699  11.762   9.840
38197SOL     OW16429   3.118   8.502  14.159
38197SOL    HW116430   3.199   8.475  14.203
38197SOL    HW216431   3.084   8.422  14.119
38198SOL     OW16432   2.513  11.879   8.853
38198SOL    HW116433   2.477  11.941   8.789
38198SOL    HW216434   2.604  11.906   8.863
38199SOL     OW16435  11.729   0.550   0.335
38199SOL    HW116436  11.713   0.604   0.257
38199SOL    HW216437  11.646   0.506   0.351
38200SOL     OW16438   8.565   5.347   0.145
38200SOL    HW116439   8.471   5.356   0.156
38200SOL    HW216440   8.595   5.301   0.223
38201SOL     OW16441  13.870   9.607  14.651
38201SOL    HW116442  13.899   9.668  14.719
38201SOL    HW216443  13.940   9.541  14.648
38202SOL     OW16444   4.075   5.046  11.860
38202SOL    HW116445   4.123   5.119  11.819
38202SOL    HW216446   3.985   5.076  11.864
38203SOL     OW16447  10.331   8.102  10.370
38203SOL    HW116448  10.380   8.020  10.358
38203SOL    HW216449  10.387   8.155  10.428
38204SOL     OW16450   4.268   0.526   2.324
38204SOL    HW116451   4.363   0.538   2.327
38204SOL    HW216452   4.256   0.444   2.276
38205SOL     OW16453   3.090   5.726  10.635
38205SOL    HW116454   3.128   5.810  10.661
38205SOL    HW216455   3.027   5.748  10.567
38206SOL     OW16456   9.004  12.719  13.400
38206SOL    HW116457   8.998  12.746  13.491
38206SOL    HW216458   9.063  12.782  13.359
38207SOL     OW16459  13.934   0.776  13.929
38207SOL    HW116460  14.019   0.737  13.950
38207SOL    HW216461  13.927   0.767  13.834
38208SOL     OW16462  13.071   2.419   8.209
38208SOL    HW116463  13.135   2.373   8.263
38208SOL    HW216464  13.097   2.511   8.214
38209SOL     OW16465  11.902   8.164  11.685
38209SOL    HW116466  11.850   8.200  11.756
38209SOL    HW216467  11.851   8.089  11.654
38210SOL     OW16468   5.939   2.187  13.774
38210SOL    HW116469   5.920   2.231  13.857
38210SOL    HW216470   5.854   2.163  13.739
38211SOL     OW16471  12.713  14.798   5.706
38211SOL    HW116472  12.734  14.841   5.789
38211SOL    HW216473  12.742  14.860   5.639
38212SOL     OW16474   7.771   1.926   0.230
38212SOL    HW116475   7.844   1.864   0.234
38212SOL    HW216476   7.785   1.973   0.148
38213SOL     OW16477   8.864  10.231  14.360
38213SOL    HW116478   8.774  10.233  14.393
38213SOL    HW216479   8.912  10.293  14.414
38214SOL     OW16480   2.319   9.836  10.308
38214SOL    HW116481   2.387   9.778  10.273
38214SOL    HW216482   2.248   9.776  10.335
38215SOL     OW16483   6.235   1.113   2.273
38215SOL    HW116484   6.234   1.195   2.323
38215SOL    HW216485   6.144   1.086   2.267
38216SOL     OW16486  10.356  13.588   5.399
38216SOL    HW116487  10.263  13.607   5.410
38216SOL    HW216488  10.395  13.670   5.371
38217SOL     OW16489   6.765  12.039   5.793
38217SOL    HW116490   6.742  11.956   5.834
38217SOL    HW216491   6.814  12.087   5.860
38218SOL     OW16492   7.703   9.854   3.481
38218SOL    HW116493   7.718   9.948   3.478
38218SOL    HW216494   7.732   9.823   3.395
38219SOL     OW16495  11.176  11.968   7.025
38219SOL    HW116496  11.253  12.017   6.994
38219SOL    HW216497  11.195  11.877   7.002
38220SOL     OW16498  14.586   5.442   9.100
38220SOL    HW116499  14.642   5.514   9.129
38220SOL    HW216500  14.552   5.470   9.015
38221SOL     OW16501   9.907   7.366   1.522
38221SOL    HW116502   9.961   7.328   1.453
38221SOL    HW216503   9.848   7.295   1.548
38222SOL     OW16504   9.682   5.253   9.872
38222SOL    HW116505   9.678   5.166   9.832
38222SOL    HW216506   9.686   5.235   9.966
38223SOL     OW16507   6.002  13.688  13.379
38223SOL    HW116508   6.023  13.720  13.292
38223SOL    HW216509   5.917  13.727  13.399
38224SOL     OW16510   2.237  11.241  13.349
38224SOL    HW116511   2.319  11.274  13.386
38224SOL    HW216512   2.173  11.251  13.419
38225SOL     OW16513   2.198   3.936   1.955
38225SOL    HW116514   2.222   3.940   2.048
38225SOL    HW216515   2.277   3.961   1.908
38226SOL     OW16516  10.216   3.813   2.463
38226SOL    HW116517  10.280   3.742   2.455
38226SOL    HW216518  10.133   3.773   2.436
38227SOL     OW16519   4.509   1.211   3.743
38227SOL    HW116520   4.433   1.154   3.756
38227SOL    HW216521   4.512   1.265   3.822
38228SOL     OW16522  14.713   5.553  12.793
38228SOL    HW116523  14.752   5.599  12.868
38228SOL    HW216524  14.667   5.478  12.832
38229SOL     OW16525  12.966   6.552   8.538
38229SOL    HW116526  13.025   6.481   8.512
38229SOL    HW216527  12.984   6.564   8.631
38230SOL     OW16528  12.451   4.450   5.386
38230SOL    HW116529  12.545   4.437   5.377
38230SOL    HW216530  12.412   4.379   5.336
38231SOL     OW16531   8.232   2.346   7.424
38231SOL    HW116532   8.306   2.394   7.386
38231SOL    HW216533   8.270   2.302   7.501
38232SOL     OW16534  12.915  10.118   4.477
38232SOL    HW116535  12.884  10.040   4.430
38232SOL    HW216536  12.964  10.083   4.551
38233SOL     OW16537   3.647  10.712   7.740
38233SOL    HW116538   3.575  10.731   7.799
38233SOL    HW216539   3.703  10.789   7.744
38234SOL     OW16540  14.868   8.245   6.457
38234SOL    HW116541  14.849   8.163   6.501
38234SOL    HW216542  14.839   8.313   6.518
38235SOL     OW16543  14.417   7.243   1.974
38235SOL    HW116544  14.351   7.213   2.036
38235SOL    HW216545  14.408   7.183   1.899
38236SOL     OW16546   9.197   0.350   8.319
38236SOL    HW116547   9.231   0.302   8.243
38236SOL    HW216548   9.240   0.309   8.394
38237SOL     OW16549   8.431  11.202   1.399
38237SOL    HW116550   8.336  11.195   1.409
38237SOL    HW216551   8.444  11.213   1.305
38238SOL     OW16552   2.976   3.384   2.484
38238SOL    HW116553   2.959   3.393   2.391
38238SOL    HW216554   3.071   3.376   2.490
38239SOL     OW16555   2.214   5.264   5.401
38239SOL    HW116556   2.227   5.203   5.474
38239SOL    HW216557   2.283   5.241   5.339
38240SOL     OW16558   8.863   2.515   7.696
38240SOL    HW116559   8.811   2.458   7.639
38240SOL    HW216560   8.798   2.559   7.752
38241SOL     OW16561  10.071   4.743  13.809
38241SOL    HW116562   9.993   4.764  13.757
38241SOL    HW216563  10.127   4.693  13.749
38242SOL     OW16564  14.351   9.802   0.753
38242SOL    HW116565  14.263   9.809   0.716
38242SOL    HW216566  14.404   9.764   0.683
38243SOL     OW16567   0.385   5.038  10.018
38243SOL    HW116568   0.365   5.015   9.927
38243SOL    HW216569   0.463   5.093  10.012
38244SOL     OW16570   9.355   5.903   2.584
38244SOL    HW116571   9.327   5.850   2.509
38244SOL    HW216572   9.381   5.986   2.545
38245SOL     OW16573  12.832  14.489   4.727
38245SOL    HW116574  12.781  14.428   4.673
38245SOL    HW216575  12.897  14.434   4.771
38246SOL     OW16576  11.600   1.448   0.169
38246SOL    HW116577  11.657   1.387   0.217
38246SOL    HW216578  11.528   1.393   0.138
38247SOL     OW16579   3.137   0.301  10.894
38247SOL    HW116580   3.049   0.337  10.888
38247SOL    HW216581   3.168   0.327  10.980
38248SOL     OW16582   0.472  13.955  13.005
38248SOL    HW116583   0.492  13.931  13.095
38248SOL    HW216584   0.383  13.990  13.008
38249SOL     OW16585  11.894   1.948   7.811
38249SOL    HW116586  11.893   1.909   7.898
38249SOL    HW216587  11.898   1.874   7.751
38250SOL     OW16588   2.574   5.985   0.836
38250SOL    HW116589   2.494   5.940   0.810
38250SOL    HW216590   2.601   5.941   0.917
38251SOL     OW16591   0.476  13.464   1.453
38251SOL    HW116592   0.448  13.382   1.492
38251SOL    HW216593   0.397  13.519   1.453
38252SOL     OW16594  12.234   9.947  13.971
38252SOL    HW116595  12.249   9.853  13.956
38252SOL    HW216596  12.319   9.988  13.955
38253SOL     OW16597   4.789   4.890   4.205
38253SOL    HW116598   4.710   4.856   4.248
38253SOL    HW216599   4.846   4.814   4.195
38254SOL     OW16600   4.244   6.160  11.192
38254SOL    HW116601   4.190   6.182  11.116
38254SOL    HW216602   4.229   6.233  11.253
38255SOL     OW16603   4.121   0.910  14.489
38255SOL    HW116604   4.095   1.001  14.473
38255SOL    HW216605   4.217   0.913  14.492
38256SOL     OW16606   5.237   8.736   0.137
38256SOL    HW116607   5.217   8.732   0.231
38256SOL    HW216608   5.333   8.746   0.133
38257SOL     OW16609  11.076   6.925  11.387
38257SOL    HW116610  11.036   7.002  11.428
38257SOL    HW216611  11.013   6.897  11.322
38258SOL     OW16612   7.399   2.408   7.065
38258SOL    HW116613   7.318   2.429   7.019
38258SOL    HW216614   7.376   2.334   7.122
38259SOL     OW16615   2.288   6.104   4.408
38259SOL    HW116616   2.197   6.125   4.389
38259SOL    HW216617   2.288   6.009   4.424
38260SOL     OW16618   3.928  13.582  10.927
38260SOL    HW116619   4.006  13.631  10.899
38260SOL    HW216620   3.939  13.570  11.021
38261SOL     OW16621  10.400   9.805  14.037
38261SOL    HW116622  10.330   9.857  14.076
38261SOL    HW216623  10.393   9.821  13.943
38262SOL     OW16624  10.652  11.704  14.221
38262SOL    HW116625  10.563  11.667  14.216
38262SOL    HW216626  10.695  11.653  14.289
38263SOL     OW16627  14.238   3.949   4.252
38263SOL    HW116628  14.291   3.890   4.306
38263SOL    HW216629  14.246   3.914   4.163
38264SOL     OW16630   5.181  14.808   0.174
38264SOL    HW116631   5.192  14.715   0.157
38264SOL    HW216632   5.112  14.813   0.240
38265SOL     OW16633   4.486   4.654   0.022
38265SOL    HW116634   4.418   4.660  14.833
38265SOL    HW216635   4.525   4.568   0.008
38266SOL     OW16636   9.045   1.722  10.804
38266SOL    HW116637   9.119   1.661  10.801
38266SOL    HW216638   8.971   1.668  10.832
38267SOL     OW16639   6.425   8.280   0.345
38267SOL    HW116640   6.344   8.326   0.367
38267SOL    HW216641   6.468   8.337   0.281
38268SOL     OW16642   6.579   5.499  11.108
38268SOL    HW116643   6.484   5.486  11.106
38268SOL    HW216644   6.598   5.522  11.199
38269SOL     OW16645  13.784  11.391   2.780
38269SOL    HW116646  13.850  11.452   2.747
38269SOL    HW216647  13.777  11.412   2.873
38270SOL     OW16648  11.957   3.829   4.575
38270SOL    HW116649  11.943   3.897   4.510
38270SOL    HW216650  12.039   3.853   4.618
38271SOL     OW16651   0.768   4.524   7.965
38271SOL    HW116652   0.814   4.606   7.983
38271SOL    HW216653   0.768   4.478   8.049
38272SOL     OW16654   4.783   7.333  13.261
38272SOL    HW116655   4.751   7.282  13.186
38272SOL    HW216656   4.741   7.293  13.337
38273SOL     OW16657  10.228   2.798   0.279
38273SOL    HW116658  10.162   2.856   0.318
38273SOL    HW216659  10.267   2.850   0.209
38274SOL     OW16660  10.798  12.567   8.185
38274SOL    HW116661  10.813  12.503   8.115
38274SOL    HW216662  10.873  12.558   8.243
38275SOL     OW16663   4.993   1.319  11.032
38275SOL    HW116664   5.087   1.335  11.033
38275SOL    HW216665   4.976   1.268  11.111
38276SOL     OW16666   7.468  13.357  13.823
38276SOL    HW116667   7.432  13.435  13.780
38276SOL    HW216668   7.496  13.300  13.751
38277SOL     OW16669   4.746   9.174   1.461
38277SOL    HW116670   4.696   9.255   1.470
38277SOL    HW216671   4.762   9.145   1.550
38278SOL     OW16672   1.200   1.218   2.535
38278SOL    HW116673   1.138   1.238   2.466
38278SOL    HW216674   1.202   1.296   2.590
38279SOL     OW16675   5.530   9.748   1.005
38279SOL    HW116676   5.455   9.690   0.992
38279SOL    HW216677   5.602   9.689   1.026
38280SOL     OW16678  10.854   8.861   5.788
38280SOL    HW116679  10.819   8.887   5.703
38280SOL    HW216680  10.846   8.939   5.842
38281SOL     OW16681   4.266   6.561  14.640
38281SOL    HW116682   4.249   6.614  14.562
38281SOL    HW216683   4.245   6.472  14.613
38282SOL     OW16684  10.572   2.740   9.946
38282SOL    HW116685  10.489   2.788   9.940
38282SOL    HW216686  10.620   2.783  10.017
38283SOL     OW16687   0.426   8.804   1.603
38283SOL    HW116688   0.413   8.710   1.595
38283SOL    HW216689   0.355   8.833   1.660
38284SOL     OW16690   8.473   5.614   3.076
38284SOL    HW116691   8.384   5.583   3.090
38284SOL    HW216692   8.463   5.706   3.053
38285SOL     OW16693  11.340   4.718   1.448
38285SOL    HW116694  11.377   4.783   1.389
38285SOL    HW216695  11.310   4.767   1.524
38286SOL     OW16696   4.923   4.883   2.066
38286SOL    HW116697   4.956   4.973   2.057
38286SOL    HW216698   4.939   4.861   2.158
38287SOL     OW16699   0.556   0.720   5.028
38287SOL    HW116700   0.627   0.662   5.054
38287SOL    HW216701   0.597   0.787   4.974
38288SOL     OW16702   2.244   3.096   2.543
38288SOL    HW116703   2.276   3.156   2.610
38288SOL    HW216704   2.315   3.034   2.530
38289SOL     OW16705   6.246   6.704   1.267
38289SOL    HW116706   6.283   6.777   1.318
38289SOL    HW216707   6.321   6.668   1.220
38290SOL     OW16708   1.211   4.091   3.158
38290SOL    HW116709   1.164   4.071   3.240
38290SOL    HW216710   1.231   4.185   3.165
38291SOL     OW16711   0.993   2.456   9.372
38291SOL    HW116712   0.979   2.539   9.327
38291SOL    HW216713   0.904   2.422   9.387
38292SOL     OW16714   4.085   4.088   1.124
38292SOL    HW116715   4.115   4.162   1.073
38292SOL    HW216716   4.005   4.119   1.168
38293SOL     OW16717  10.830   2.890   0.618
38293SOL    HW116718  10.847   2.799   0.594
38293SOL    HW216719  10.875   2.901   0.702
38294SOL     OW16720   7.893  13.104   0.114
38294SOL    HW116721   7.969  13.087   0.169
38294SOL    HW216722   7.821  13.057   0.157
38295SOL     OW16723   3.393  11.350   3.579
38295SOL    HW116724   3.314  11.359   3.632
38295SOL    HW216725   3.375  11.399   3.499
38296SOL     OW16726   1.350   6.525   9.403
38296SOL    HW116727   1.418   6.550   9.465
38296SOL    HW216728   1.395   6.521   9.319
38297SOL     OW16729  10.690   0.833  12.488
38297SOL    HW116730  10.694   0.749  12.442
38297SOL    HW216731  10.782   0.853  12.508
38298SOL     OW16732   6.855   6.868   3.313
38298SOL    HW116733   6.832   6.956   3.341
38298SOL    HW216734   6.889   6.879   3.224
38299SOL     OW16735   7.220  11.100   6.865
38299SOL    HW116736   7.191  11.111   6.774
38299SOL    HW216737   7.168  11.027   6.898
38300SOL     OW16738   1.006   5.181   0.027
38300SOL    HW116739   0.933   5.163  14.847
38300SOL    HW216740   1.075   5.120  14.879
38301SOL     OW16741   2.400   4.808   4.113
38301SOL    HW116742   2.314   4.784   4.079
38301SOL    HW216743   2.382   4.856   4.194
38302SOL     OW16744   9.882   8.553  13.313
38302SOL    HW116745   9.864   8.489  13.382
38302SOL    HW216746   9.968   8.528  13.279
38303SOL     OW16747   0.220   9.382   7.827
38303SOL    HW116748   0.208   9.393   7.732
38303SOL    HW216749   0.142   9.336   7.856
38304SOL     OW16750   0.768   0.021   3.796
38304SOL    HW116751   0.820   0.070   3.859
38304SOL    HW216752   0.726   0.088   3.742
38305SOL     OW16753   4.722   5.331   5.300
38305SOL    HW116754   4.792   5.389   5.270
38305SOL    HW216755   4.743   5.313   5.392
38306SOL     OW16756   9.350   4.129   7.483
38306SOL    HW116757   9.444   4.111   7.482
38306SOL    HW216758   9.308   4.045   7.467
38307SOL     OW16759   8.006   9.868   0.154
38307SOL    HW116760   8.075   9.899   0.096
38307SOL    HW216761   8.032   9.900   0.241
38308SOL     OW16762   9.478   3.591   3.333
38308SOL    HW116763   9.394   3.553   3.309
38308SOL    HW216764   9.542   3.523   3.310
38309SOL     OW16765   5.558   1.562   5.440
38309SOL    HW116766   5.476   1.570   5.391
38309SOL    HW216767   5.626   1.560   5.372
38310SOL     OW16768   4.739   6.853  13.916
38310SOL    HW116769   4.746   6.775  13.971
38310SOL    HW216770   4.807   6.843  13.850
38311SOL     OW16771   4.322  14.683  13.238
38311SOL    HW116772   4.281  14.683  13.324
38311SOL    HW216773   4.367  14.599  13.232
38312SOL     OW16774   3.810   7.146   5.088
38312SOL    HW116775   3.894   7.191   5.083
38312SOL    HW216776   3.769   7.161   5.003
38313SOL     OW16777   3.643   1.841  14.879
38313SOL    HW116778   3.649   1.936  14.874
38313SOL    HW216779   3.695   1.817   0.076
38314SOL     OW16780  10.126  12.997   0.118
38314SOL    HW116781  10.148  13.077   0.165
38314SOL    HW216782  10.118  13.024   0.026
38315SOL     OW16783   0.464   2.420  13.636
38315SOL    HW116784   0.535   2.356  13.636
38315SOL    HW216785   0.497   2.493  13.583
38316SOL     OW16786  10.628   6.247  13.214
38316SOL    HW116787  10.631   6.285  13.302
38316SOL    HW216788  10.575   6.168  13.224
38317SOL     OW16789  14.796  12.985   6.906
38317SOL    HW116790  14.865  13.048   6.885
38317SOL    HW216791  14.796  12.979   7.001
38318SOL     OW16792  12.842   1.234  12.701
38318SOL    HW116793  12.799   1.203  12.621
38318SOL    HW216794  12.871   1.322  12.680
38319SOL     OW16795   7.936   3.268   5.295
38319SOL    HW116796   8.005   3.327   5.264
38319SOL    HW216797   7.907   3.221   5.217
38320SOL     OW16798   4.955  10.746   0.851
38320SOL    HW116799   4.956  10.710   0.762
38320SOL    HW216800   5.045  10.734   0.882
38321SOL     OW16801   6.555   3.659   0.119
38321SOL    HW116802   6.610   3.724   0.076
38321SOL    HW216803   6.478   3.708   0.149
38322SOL     OW16804   4.906  11.729  10.229
38322SOL    HW116805   4.936  11.815  10.257
38322SOL    HW216806   4.955  11.712  10.148
38323SOL     OW16807   6.028   0.512   1.609
38323SOL    HW116808   6.031   0.430   1.560
38323SOL    HW216809   5.949   0.506   1.663
38324SOL     OW16810   9.505  10.235   2.399
38324SOL    HW116811   9.595  10.262   2.381
38324SOL    HW216812   9.496  10.244   2.494
38325SOL     OW16813   7.973   8.977  14.736
38325SOL    HW116814   7.916   8.942  14.667
38325SOL    HW216815   7.991   8.902  14.793
38326SOL     OW16816  12.818   6.459   6.503
38326SOL    HW116817  12.813   6.517   6.578
38326SOL    HW216818  12.888   6.496   6.448
38327SOL     OW16819   7.109   5.096   5.488
38327SOL    HW116820   7.156   5.113   5.570
38327SOL    HW216821   7.053   5.172   5.476
38328SOL     OW16822  10.259   7.839   5.558
38328SOL    HW116823  10.228   7.779   5.626
38328SOL    HW216824  10.233   7.798   5.476
38329SOL     OW16825  10.872   2.661   0.289
38329SOL    HW116826  10.927   2.597   0.245
38329SOL    HW216827  10.869   2.632   0.380
38330SOL     OW16828   2.662  14.162  10.632
38330SOL    HW116829   2.678  14.153  10.726
38330SOL    HW216830   2.747  14.186  10.596
38331SOL     OW16831   8.283   7.242   3.888
38331SOL    HW116832   8.319   7.299   3.820
38331SOL    HW216833   8.305   7.154   3.859
38332SOL     OW16834   9.709  14.381   3.609
38332SOL    HW116835   9.798  14.414   3.611
38332SOL    HW216836   9.676  14.407   3.523
38333SOL     OW16837   7.305  12.011   7.631
38333SOL    HW116838   7.258  11.936   7.669
38333SOL    HW216839   7.392  11.977   7.611
38334SOL     OW16840  11.677  13.945  12.344
38334SOL    HW116841  11.750  13.977  12.396
38334SOL    HW216842  11.718  13.899  12.271
38335SOL     OW16843   1.552  12.120   2.589
38335SOL    HW116844   1.598  12.111   2.673
38335SOL    HW216845   1.621  12.120   2.523
38336SOL     OW16846   3.327   6.011   9.482
38336SOL    HW116847   3.347   5.968   9.399
38336SOL    HW216848   3.316   6.104   9.459
38337SOL     OW16849   4.891   9.902   6.698
38337SOL    HW116850   4.974   9.928   6.656
38337SOL    HW216851   4.840   9.983   6.701
38338SOL     OW16852  10.955   7.094   5.544
38338SOL    HW116853  10.948   7.151   5.621
38338SOL    HW216854  10.881   7.120   5.488
38339SOL     OW16855  10.420   7.287   0.865
38339SOL    HW116856  10.512   7.299   0.885
38339SOL    HW216857  10.396   7.206   0.910
38340SOL     OW16858  12.255   7.288   8.648
38340SOL    HW116859  12.184   7.269   8.710
38340SOL    HW216860  12.210   7.313   8.567
38341SOL     OW16861  12.539   8.720   2.243
38341SOL    HW116862  12.460   8.717   2.188
38341SOL    HW216863  12.507   8.752   2.328
38342SOL     OW16864   7.508   4.685  13.775
38342SOL    HW116865   7.446   4.614  13.760
38342SOL    HW216866   7.524   4.683  13.869
38343SOL     OW16867   3.179  10.644   2.759
38343SOL    HW116868   3.179  10.677   2.849
38343SOL    HW216869   3.264  10.670   2.723
38344SOL     OW16870  12.764   2.379   2.393
38344SOL    HW116871  12.788   2.286   2.394
38344SOL    HW216872  12.831   2.422   2.447
38345SOL     OW16873   4.611   6.030   9.913
38345SOL    HW116874   4.706   6.037   9.915
38345SOL    HW216875   4.582   6.073   9.994
38346SOL     OW16876  11.706  11.078   9.429
38346SOL    HW116877  11.625  11.027   9.434
38346SOL    HW216878  11.677  11.169   9.426
38347SOL     OW16879   5.239   3.387   0.204
38347SOL    HW116880   5.242   3.473   0.163
38347SOL    HW216881   5.206   3.403   0.292
38348SOL     OW16882   5.089   5.766   0.162
38348SOL    HW116883   5.031   5.832   0.124
38348SOL    HW216884   5.032   5.689   0.173
38349SOL     OW16885   3.306   8.417  12.052
38349SOL    HW116886   3.268   8.334  12.083
38349SOL    HW216887   3.294   8.415  11.957
38350SOL     OW16888   0.534  11.861   5.589
38350SOL    HW116889   0.567  11.924   5.524
38350SOL    HW216890   0.500  11.914   5.660
38351SOL     OW16891  13.103   9.368   5.342
38351SOL    HW116892  13.155   9.288   5.336
38351SOL    HW216893  13.121   9.402   5.430
38352SOL     OW16894   8.149   8.096   2.076
38352SOL    HW116895   8.227   8.101   2.021
38352SOL    HW216896   8.173   8.146   2.155
38353SOL     OW16897   7.419   7.487   6.072
38353SOL    HW116898   7.436   7.581   6.070
38353SOL    HW216899   7.340   7.478   6.126
38354SOL     OW16900   3.162   5.785   1.739
38354SOL    HW116901   3.133   5.828   1.819
38354SOL    HW216902   3.209   5.707   1.770
38355SOL     OW16903   5.462   2.218   3.372
38355SOL    HW116904   5.418   2.294   3.333
38355SOL    HW216905   5.432   2.143   3.321
38356SOL     OW16906  12.299   0.583   2.661
38356SOL    HW116907  12.233   0.593   2.593
38356SOL    HW216908  12.303   0.489   2.678
38357SOL     OW16909  13.473   7.096   8.717
38357SOL    HW116910  13.512   7.046   8.645
38357SOL    HW216911  13.469   7.034   8.790
38358SOL     OW16912   9.087  11.482   2.213
38358SOL    HW116913   8.995  11.458   2.213
38358SOL    HW216914   9.120  11.454   2.128
38359SOL     OW16915   0.352   2.810   0.219
38359SOL    HW116916   0.301   2.825   0.140
38359SOL    HW216917   0.333   2.719   0.243
38360SOL     OW16918  14.863   0.491  11.781
38360SOL    HW116919  14.852   0.417  11.722
38360SOL    HW216920   0.003   0.452  11.866
38361SOL     OW16921   0.163   6.789   9.932
38361SOL    HW116922   0.099   6.723   9.905
38361SOL    HW216923   0.243   6.739   9.950
38362SOL     OW16924   6.088   5.695  13.740
38362SOL    HW116925   6.120   5.779  13.773
38362SOL    HW216926   6.094   5.636  13.815
38363SOL     OW16927  11.989   4.981  12.280
38363SOL    HW116928  11.957   4.914  12.340
38363SOL    HW216929  11.918   5.046  12.276
38364SOL     OW16930   0.694   2.060   8.327
38364SOL    HW116931   0.637   2.070   8.251
38364SOL    HW216932   0.635   2.034   8.398
38365SOL     OW16933  10.464   1.688  13.399
38365SOL    HW116934  10.547   1.664  13.440
38365SOL    HW216935  10.477   1.777  13.368
38366SOL     OW16936   3.081   5.782   0.669
38366SOL    HW116937   3.162   5.782   0.720
38366SOL    HW216938   3.094   5.849   0.603
38367SOL     OW16939   8.865  12.675  10.001
38367SOL    HW116940   8.780  12.714  10.021
38367SOL    HW216941   8.927  12.724  10.057
38368SOL     OW16942   2.651  12.909  14.364
38368SOL    HW116943   2.647  12.852  14.287
38368SOL    HW216944   2.664  12.996  14.328
38369SOL     OW16945   8.376  13.472   9.841
38369SOL    HW116946   8.292  13.427   9.840
38369SOL    HW216947   8.432  13.419   9.898
38370SOL     OW16948  11.681   9.566   6.243
38370SOL    HW116949  11.739   9.624   6.194
38370SOL    HW216950  11.595   9.576   6.202
38371SOL     OW16951   8.178   5.178   3.229
38371SOL    HW116952   8.128   5.100   3.254
38371SOL    HW216953   8.150   5.197   3.140
38372SOL     OW16954   7.988   2.878  11.885
38372SOL    HW116955   8.046   2.824  11.832
38372SOL    HW216956   7.905   2.879  11.838
38373SOL     OW16957   3.703  12.452  12.645
38373SOL    HW116958   3.738  12.404  12.720
38373SOL    HW216959   3.612  12.469  12.668
38374SOL     OW16960  10.309  10.355   6.778
38374SOL    HW116961  10.286  10.271   6.817
38374SOL    HW216962  10.366  10.333   6.704
38375SOL     OW16963   2.082  10.060   5.931
38375SOL    HW116964   2.083  10.156   5.936
38375SOL    HW216965   2.089  10.040   5.838
38376SOL     OW16966  14.117  13.155  10.863
38376SOL    HW116967  14.133  13.250  10.862
38376SOL    HW216968  14.091  13.136  10.953
38377SOL     OW16969   9.249  11.238  14.376
38377SOL    HW116970   9.317  11.255  14.310
38377SOL    HW216971   9.193  11.171  14.336
38378SOL     OW16972   5.135   8.673  11.835
38378SOL    HW116973   5.119   8.761  11.800
38378SOL    HW216974   5.187   8.688  11.914
38379SOL     OW16975  13.004  10.825   0.174
38379SOL    HW116976  13.056  10.758   0.219
38379SOL    HW216977  13.068  10.892   0.149
38380SOL     OW16978  14.067  13.643   8.003
38380SOL    HW116979  14.123  13.629   8.079
38380SOL    HW216980  14.075  13.562   7.952
38381SOL     OW16981  10.609   0.836   0.502
38381SOL    HW116982  10.573   0.921   0.524
38381SOL    HW216983  10.548   0.773   0.539
38382SOL     OW16984   2.104   2.815   5.663
38382SOL    HW116985   2.031   2.786   5.717
38382SOL    HW216986   2.156   2.736   5.649
38383SOL     OW16987   4.489   8.120   8.394
38383SOL    HW116988   4.518   8.123   8.485
38383SOL    HW216989   4.563   8.157   8.344
38384SOL     OW16990   9.995   8.479   9.143
38384SOL    HW116991   9.927   8.481   9.074
38384SOL    HW216992  10.027   8.569   9.146
38385SOL     OW16993   7.532   5.304  14.692
38385SOL    HW116994   7.593   5.377  14.697
38385SOL    HW216995   7.459   5.330  14.747
38386SOL     OW16996   0.221  12.481   4.158
38386SOL    HW116997   0.206  12.569   4.124
38386SOL    HW216998   0.278  12.494   4.234
38387SOL     OW16999  10.221   5.901   8.151
38387SOL    HW117000  10.169   5.895   8.231
38387SOL    HW217001  10.273   5.820   8.150
38388SOL     OW17002   6.934   2.889   3.781
38388SOL    HW117003   7.008   2.889   3.841
38388SOL    HW217004   6.859   2.863   3.835
38389SOL     OW17005   7.684   3.316   5.389
38389SOL    HW117006   7.779   3.316   5.375
38389SOL    HW217007   7.657   3.405   5.366
38390SOL     OW17008   7.473  11.873  11.356
38390SOL    HW117009   7.407  11.836  11.297
38390SOL    HW217010   7.506  11.798  11.405
38391SOL     OW17011  10.439   2.743   2.467
38391SOL    HW117012  10.402   2.662   2.502
38391SOL    HW217013  10.366   2.785   2.421
38392SOL     OW17014  14.840   3.066   9.549
38392SOL    HW117015   0.045   3.103   9.574
38392SOL    HW217016  14.821   3.001   9.616
38393SOL     OW17017   7.425   0.034   5.415
38393SOL    HW117018   7.414  14.846   5.483
38393SOL    HW217019   7.359   0.012   5.349
38394SOL     OW17020   5.373  12.623   5.139
38394SOL    HW117021   5.313  12.623   5.065
38394SOL    HW217022   5.329  12.677   5.205
38395SOL     OW17023   1.179   6.796   7.919
38395SOL    HW117024   1.173   6.872   7.977
38395SOL    HW217025   1.193   6.722   7.979
38396SOL     OW17026   4.039   6.960  14.203
38396SOL    HW117027   4.066   6.951  14.112
38396SOL    HW217028   4.049   7.053  14.222
38397SOL     OW17029   1.176   4.410   8.413
38397SOL    HW117030   1.223   4.364   8.344
38397SOL    HW217031   1.112   4.346   8.445
38398SOL     OW17032  12.340  13.774   2.797
38398SOL    HW117033  12.274  13.713   2.831
38398SOL    HW217034  12.380  13.812   2.875
38399SOL     OW17035  11.732   8.463  14.485
38399SOL    HW117036  11.745   8.486  14.577
38399SOL    HW217037  11.791   8.522  14.437
38400SOL     OW17038   2.057  12.629   1.963
38400SOL    HW117039   2.076  12.550   2.015
38400SOL    HW217040   2.143  12.667   1.944
38401SOL     OW17041  13.186  14.468  14.538
38401SOL    HW117042  13.252  14.519  14.585
38401SOL    HW217043  13.203  14.378  14.564
38402SOL     OW17044   2.425   3.458   2.575
38402SOL    HW117045   2.380   3.414   2.647
38402SOL    HW217046   2.443   3.546   2.608
38403SOL     OW17047   7.722   5.643   7.216
38403SOL    HW117048   7.692   5.655   7.126
38403SOL    HW217049   7.783   5.570   7.211
38404SOL     OW17050   5.340  10.366   9.954
38404SOL    HW117051   5.385  10.412   9.883
38404SOL    HW217052   5.263  10.420   9.973
38405SOL     OW17053  10.031   7.390  12.447
38405SOL    HW117054   9.992   7.380  12.360
38405SOL    HW217055  10.003   7.477  12.475
38406SOL     OW17056   4.587  12.933  11.085
38406SOL    HW117057   4.521  12.870  11.057
38406SOL    HW217058   4.660  12.921  11.025
38407SOL     OW17059   2.545   1.204  13.122
38407SOL    HW117060   2.595   1.155  13.188
38407SOL    HW217061   2.575   1.294  13.132
38408SOL     OW17062  13.617   3.565   4.809
38408SOL    HW117063  13.634   3.490   4.866
38408SOL    HW217064  13.525   3.555   4.784
38409SOL     OW17065  12.709   3.190   1.542
38409SOL    HW117066  12.696   3.136   1.620
38409SOL    HW217067  12.632   3.173   1.488
38410SOL     OW17068   0.039   9.458  13.648
38410SOL    HW117069   0.037   9.400  13.724
38410SOL    HW217070   0.109   9.520  13.666
38411SOL     OW17071   4.965   7.040  13.103
38411SOL    HW117072   5.007   7.049  13.189
38411SOL    HW217073   4.988   6.951  13.076
38412SOL     OW17074  11.509   9.403  14.769
38412SOL    HW117075  11.460   9.321  14.783
38412SOL    HW217076  11.478   9.461  14.839
38413SOL     OW17077   1.582  10.579   4.759
38413SOL    HW117078   1.516  10.643   4.731
38413SOL    HW217079   1.534  10.517   4.813
38414SOL     OW17080  10.907  12.826   8.089
38414SOL    HW117081  10.974  12.844   8.024
38414SOL    HW217082  10.893  12.732   8.085
38415SOL     OW17083   9.548  13.621  10.781
38415SOL    HW117084   9.619  13.593  10.838
38415SOL    HW217085   9.468  13.594  10.826
38416SOL     OW17086   5.458   2.760   5.397
38416SOL    HW117087   5.541   2.723   5.365
38416SOL    HW217088   5.483   2.812   5.473
38417SOL     OW17089  12.901   0.262   7.360
38417SOL    HW117090  12.876   0.323   7.429
38417SOL    HW217091  12.993   0.242   7.379
38418SOL     OW17092   8.453   4.333   5.781
38418SOL    HW117093   8.529   4.333   5.723
38418SOL    HW217094   8.413   4.419   5.769
38419SOL     OW17095   5.169  11.659   4.159
38419SOL    HW117096   5.118  11.578   4.156
38419SOL    HW217097   5.122  11.716   4.220
38420SOL     OW17098  14.023   2.088   1.763
38420SOL    HW117099  14.061   2.075   1.676
38420SOL    HW217100  14.049   2.177   1.787
38421SOL     OW17101   0.723   9.894   1.540
38421SOL    HW117102   0.645   9.946   1.517
38421SOL    HW217103   0.714   9.878   1.634
38422SOL     OW17104   2.371   0.212  10.950
38422SOL    HW117105   2.406   0.133  10.910
38422SOL    HW217106   2.429   0.228  11.025
38423SOL     OW17107  12.509  12.806   9.740
38423SOL    HW117108  12.491  12.888   9.786
38423SOL    HW217109  12.540  12.834   9.654
38424SOL     OW17110  13.038   4.733   8.618
38424SOL    HW117111  13.017   4.711   8.527
38424SOL    HW217112  13.020   4.653   8.667
38425SOL     OW17113   3.133   3.389  10.810
38425SOL    HW117114   3.192   3.387  10.885
38425SOL    HW217115   3.045   3.396  10.848
38426SOL     OW17116  12.312   3.067   9.202
38426SOL    HW117117  12.267   2.983   9.205
38426SOL    HW217118  12.254   3.128   9.248
38427SOL     OW17119   0.150   3.664   6.652
38427SOL    HW117120   0.234   3.701   6.676
38427SOL    HW217121   0.171   3.592   6.592
38428SOL     OW17122  13.206   7.347   6.563
38428SOL    HW117123  13.172   7.321   6.478
38428SOL    HW217124  13.178   7.438   6.573
38429SOL     OW17125  11.102   0.709  14.289
38429SOL    HW117126  11.177   0.766  14.270
38429SOL    HW217127  11.047   0.761  14.348
38430SOL     OW17128   9.422  11.260   1.937
38430SOL    HW117129   9.483  11.187   1.945
38430SOL    HW217130   9.424  11.284   1.845
38431SOL     OW17131  13.971  12.615   9.086
38431SOL    HW117132  13.944  12.566   9.164
38431SOL    HW217133  13.906  12.591   9.019
38432SOL     OW17134   3.984  10.744   1.892
38432SOL    HW117135   4.029  10.783   1.817
38432SOL    HW217136   3.891  10.754   1.872
38433SOL     OW17137   6.673  11.429  12.646
38433SOL    HW117138   6.633  11.374  12.713
38433SOL    HW217139   6.741  11.478  12.692
38434SOL     OW17140   9.174  11.523   0.927
38434SOL    HW117141   9.169  11.604   0.977
38434SOL    HW217142   9.093  11.521   0.875
38435SOL     OW17143   0.213  10.499   9.237
38435SOL    HW117144   0.235  10.533   9.324
38435SOL    HW217145   0.297  10.492   9.192
38436SOL     OW17146  11.865   1.511  11.006
38436SOL    HW117147  11.845   1.592  11.052
38436SOL    HW217148  11.915   1.538  10.929
38437SOL     OW17149   3.846  11.432  13.020
38437SOL    HW117150   3.763  11.477  13.007
38437SOL    HW217151   3.902  11.497  13.062
38438SOL     OW17152  12.392  13.036  14.096
38438SOL    HW117153  12.339  12.982  14.038
38438SOL    HW217154  12.329  13.096  14.136
38439SOL     OW17155   0.310   0.687   9.796
38439SOL    HW117156   0.264   0.698   9.880
38439SOL    HW217157   0.268   0.751   9.738
38440SOL     OW17158   5.235   4.531   2.473
38440SOL    HW117159   5.149   4.566   2.450
38440SOL    HW217160   5.221   4.489   2.558
38441SOL     OW17161   0.971   4.759   7.380
38441SOL    HW117162   0.977   4.681   7.436
38441SOL    HW217163   0.877   4.779   7.377
38442SOL     OW17164   3.088  12.526   4.468
38442SOL    HW117165   3.077  12.431   4.476
38442SOL    HW217166   3.129  12.538   4.382
38443SOL     OW17167   6.760   7.522   2.271
38443SOL    HW117168   6.822   7.517   2.198
38443SOL    HW217169   6.674   7.517   2.229
38444SOL     OW17170   8.921  14.472   9.636
38444SOL    HW117171   8.864  14.497   9.563
38444SOL    HW217172   8.897  14.381   9.655
38445SOL     OW17173  11.532   3.578   4.020
38445SOL    HW117174  11.556   3.500   3.971
38445SOL    HW217175  11.479   3.629   3.959
38446SOL     OW17176   6.822   0.319  11.720
38446SOL    HW117177   6.788   0.376  11.789
38446SOL    HW217178   6.870   0.378  11.662
38447SOL     OW17179   0.988   4.451  10.587
38447SOL    HW117180   1.013   4.379  10.645
38447SOL    HW217181   0.918   4.496  10.634
38448SOL     OW17182  12.994   1.350   5.568
38448SOL    HW117183  13.021   1.442   5.564
38448SOL    HW217184  13.020   1.314   5.484
38449SOL     OW17185  10.397  11.084   2.913
38449SOL    HW117186  10.312  11.125   2.897
38449SOL    HW217187  10.409  11.024   2.840
38450SOL     OW17188  13.144   1.600   0.113
38450SOL    HW117189  13.138   1.642   0.198
38450SOL    HW217190  13.112   1.511   0.127
38451SOL     OW17191  14.078   8.980  12.520
38451SOL    HW117192  14.105   9.050  12.580
38451SOL    HW217193  14.153   8.971  12.460
38452SOL     OW17194  11.612   0.141   4.818
38452SOL    HW117195  11.670   0.065   4.825
38452SOL    HW217196  11.555   0.135   4.894
38453SOL     OW17197  14.792   7.832   1.366
38453SOL    HW117198  14.741   7.752   1.377
38453SOL    HW217199  14.810   7.836   1.272
38454SOL     OW17200   3.563  11.250   9.338
38454SOL    HW117201   3.479  11.262   9.382
38454SOL    HW217202   3.628  11.269   9.406
38455SOL     OW17203  14.605  12.222  14.801
38455SOL    HW117204  14.666  12.288  14.770
38455SOL    HW217205  14.552  12.267  14.866
38456SOL     OW17206   6.275  14.167   1.823
38456SOL    HW117207   6.353  14.222   1.813
38456SOL    HW217208   6.307  14.089   1.869
38457SOL     OW17209   4.244  13.751   3.478
38457SOL    HW117210   4.311  13.815   3.455
38457SOL    HW217211   4.293  13.676   3.512
38458SOL     OW17212   2.725   5.106   8.442
38458SOL    HW117213   2.798   5.153   8.403
38458SOL    HW217214   2.763   5.062   8.518
38459SOL     OW17215   0.002   7.708   7.443
38459SOL    HW117216  14.816   7.666   7.387
38459SOL    HW217217  14.831   7.770   7.496
38460SOL     OW17218   7.731   6.995  11.697
38460SOL    HW117219   7.679   7.011  11.776
38460SOL    HW217220   7.816   7.037  11.715
38461SOL     OW17221   1.761   4.753  11.155
38461SOL    HW117222   1.789   4.836  11.192
38461SOL    HW217223   1.816   4.687  11.198
38462SOL     OW17224   5.853   0.102   9.605
38462SOL    HW117225   5.800   0.180   9.595
38462SOL    HW217226   5.942   0.130   9.584
38463SOL     OW17227  12.134   8.917   5.000
38463SOL    HW117228  12.200   8.971   5.043
38463SOL    HW217229  12.055   8.927   5.053
38464SOL     OW17230  11.936  10.693   9.634
38464SOL    HW117231  12.012  10.689   9.576
38464SOL    HW217232  11.896  10.778   9.616
38465SOL     OW17233   8.555   4.724  14.811
38465SOL    HW117234   8.584   4.670  14.738
38465SOL    HW217235   8.474   4.682  14.842
38466SOL     OW17236  11.610   9.250  11.573
38466SOL    HW117237  11.523   9.229  11.539
38466SOL    HW217238  11.595   9.321  11.636
38467SOL     OW17239   6.506   7.487   6.715
38467SOL    HW117240   6.538   7.562   6.764
38467SOL    HW217241   6.486   7.421   6.781
38468SOL     OW17242  11.555   7.522   6.534
38468SOL    HW117243  11.496   7.447   6.527
38468SOL    HW217244  11.620   7.507   6.465
38469SOL     OW17245  12.939   6.583   7.752
38469SOL    HW117246  12.955   6.514   7.688
38469SOL    HW217247  12.847   6.607   7.739
38470SOL     OW17248   5.754  14.553   8.386
38470SOL    HW117249   5.810  14.528   8.313
38470SOL    HW217250   5.675  14.501   8.375
38471SOL     OW17251  10.546  14.389   4.709
38471SOL    HW117252  10.609  14.334   4.663
38471SOL    HW217253  10.462  14.373   4.665
38472SOL     OW17254   2.401  10.637   7.585
38472SOL    HW117255   2.484  10.596   7.607
38472SOL    HW217256   2.394  10.628   7.489
38473SOL     OW17257  12.130   5.311  13.900
38473SOL    HW117258  12.222   5.335  13.910
38473SOL    HW217259  12.130   5.243  13.833
38474SOL     OW17260   7.846  12.628   7.701
38474SOL    HW117261   7.863  12.606   7.610
38474SOL    HW217262   7.761  12.587   7.720
38475SOL     OW17263   7.308   0.085   7.088
38475SOL    HW117264   7.266   0.071   7.004
38475SOL    HW217265   7.249   0.045   7.152
38476SOL     OW17266   7.851  13.556   5.902
38476SOL    HW117267   7.912  13.569   5.829
38476SOL    HW217268   7.785  13.495   5.868
38477SOL     OW17269   8.721  11.949   7.372
38477SOL    HW117270   8.782  11.876   7.366
38477SOL    HW217271   8.659  11.935   7.299
38478SOL     OW17272   0.596   6.301   4.765
38478SOL    HW117273   0.651   6.229   4.796
38478SOL    HW217274   0.642   6.380   4.791
38479SOL     OW17275   0.833   4.896   9.710
38479SOL    HW117276   0.804   4.808   9.687
38479SOL    HW217277   0.847   4.892   9.805
38480SOL     OW17278  14.553  14.083   9.376
38480SOL    HW117279  14.542  14.004   9.428
38480SOL    HW217280  14.530  14.057   9.287
38481SOL     OW17281  14.724   9.158  13.458
38481SOL    HW117282  14.661   9.087  13.453
38481SOL    HW217283  14.776   9.150  13.379
38482SOL     OW17284  12.149   6.228  10.942
38482SOL    HW117285  12.194   6.234  11.027
38482SOL    HW217286  12.093   6.152  10.949
38483SOL     OW17287   4.069  13.888  14.707
38483SOL    HW117288   4.140  13.828  14.684
38483SOL    HW217289   4.004  13.877  14.638
38484SOL     OW17290  12.470  12.554  12.039
38484SOL    HW117291  12.548  12.555  12.095
38484SOL    HW217292  12.481  12.630  11.982
38485SOL     OW17293   6.750  11.954   2.388
38485SOL    HW117294   6.682  11.899   2.426
38485SOL    HW217295   6.751  12.033   2.442
38486SOL     OW17296  10.272   4.932   4.049
38486SOL    HW117297  10.303   4.872   3.981
38486SOL    HW217298  10.286   4.884   4.131
38487SOL     OW17299   5.218   3.030   1.703
38487SOL    HW117300   5.127   3.024   1.732
38487SOL    HW217301   5.268   2.983   1.769
38488SOL     OW17302   3.308   6.050  14.493
38488SOL    HW117303   3.281   6.111  14.423
38488SOL    HW217304   3.286   6.096  14.574
38489SOL     OW17305   2.289   6.139  11.696
38489SOL    HW117306   2.382   6.122  11.680
38489SOL    HW217307   2.288   6.218  11.749
38490SOL     OW17308  14.561   9.019   1.172
38490SOL    HW117309  14.617   9.084   1.131
38490SOL    HW217310  14.475   9.060   1.177
38491SOL     OW17311   1.172   3.450   7.046
38491SOL    HW117312   1.227   3.521   7.013
38491SOL    HW217313   1.147   3.401   6.968
38492SOL     OW17314   3.804  11.206   5.562
38492SOL    HW117315   3.800  11.292   5.520
38492SOL    HW217316   3.852  11.222   5.643
38493SOL     OW17317  14.865   6.532   9.419
38493SOL    HW117318  14.853   6.607   9.477
38493SOL    HW217319   0.052   6.478   9.463
38494SOL     OW17320   1.077   4.221  11.572
38494SOL    HW117321   1.010   4.172  11.524
38494SOL    HW217322   1.153   4.162  11.575
38495SOL     OW17323  12.227  14.850   6.043
38495SOL    HW117324  12.313  14.830   6.006
38495SOL    HW217325  12.165  14.818   5.978
38496SOL     OW17326  11.783   7.886  11.730
38496SOL    HW117327  11.753   7.812  11.783
38496SOL    HW217328  11.770   7.858  11.640
38497SOL     OW17329   5.356   1.599  12.453
38497SOL    HW117330   5.448   1.627  12.448
38497SOL    HW217331   5.329   1.590  12.362
38498SOL     OW17332   4.564  14.021  12.086
38498SOL    HW117333   4.482  14.017  12.134
38498SOL    HW217334   4.624  14.069  12.144
38499SOL     OW17335  13.384   3.805   6.406
38499SOL    HW117336  13.319   3.868   6.375
38499SOL    HW217337  13.461   3.822   6.352
38500SOL     OW17338   7.648  12.997  13.827
38500SOL    HW117339   7.676  13.069  13.884
38500SOL    HW217340   7.631  13.039  13.743
38501SOL     OW17341   8.155  13.455   4.322
38501SOL    HW117342   8.174  13.361   4.318
38501SOL    HW217343   8.115  13.468   4.408
38502SOL     OW17344   5.524   5.992  10.985
38502SOL    HW117345   5.472   6.061  11.026
38502SOL    HW217346   5.519   5.918  11.045
38503SOL     OW17347  12.773   3.268  11.197
38503SOL    HW117348  12.797   3.238  11.109
38503SOL    HW217349  12.765   3.363  11.188
38504SOL     OW17350   6.564   8.958  10.384
38504SOL    HW117351   6.564   8.923  10.295
38504SOL    HW217352   6.657   8.975  10.402
38505SOL     OW17353   9.001   5.993   8.521
38505SOL    HW117354   9.062   6.019   8.451
38505SOL    HW217355   8.920   5.972   8.475
38506SOL     OW17356  10.825   2.659   6.120
38506SOL    HW117357  10.879   2.587   6.087
38506SOL    HW217358  10.871   2.738   6.091
38507SOL     OW17359   0.460   7.027   6.076
38507SOL    HW117360   0.497   7.018   5.988
38507SOL    HW217361   0.536   7.044   6.132
38508SOL     OW17362   3.216  12.084   6.984
38508SOL    HW117363   3.129  12.047   6.970
38508SOL    HW217364   3.271  12.009   7.006
38509SOL     OW17365   6.601   4.658  10.782
38509SOL    HW117366   6.599   4.574  10.736
38509SOL    HW217367   6.548   4.716  10.728
38510SOL     OW17368   0.545   0.723   0.515
38510SOL    HW117369   0.561   0.765   0.431
38510SOL    HW217370   0.451   0.705   0.516
38511SOL     OW17371   7.061  13.355   7.255
38511SOL    HW117372   7.122  13.335   7.184
38511SOL    HW217373   7.010  13.275   7.266
38512SOL     OW17374   1.783   2.633  12.812
38512SOL    HW117375   1.798   2.602  12.723
38512SOL    HW217376   1.742   2.558  12.856
38513SOL     OW17377  11.789   9.392  11.066
38513SOL    HW117378  11.866   9.426  11.111
38513SOL    HW217379  11.741   9.343  11.133
38514SOL     OW17380   1.305   5.911  10.134
38514SOL    HW117381   1.225   5.926  10.184
38514SOL    HW217382   1.336   5.999  10.112
38515SOL     OW17383   1.501   5.717  14.428
38515SOL    HW117384   1.440   5.749  14.362
38515SOL    HW217385   1.559   5.791  14.445
38516SOL     OW17386   3.419   9.548   5.310
38516SOL    HW117387   3.413   9.598   5.392
38516SOL    HW217388   3.423   9.615   5.242
38517SOL     OW17389   9.734   5.311   9.568
38517SOL    HW117390   9.667   5.366   9.527
38517SOL    HW217391   9.718   5.320   9.662
38518SOL     OW17392  12.116   7.680   0.595
38518SOL    HW117393  12.203   7.706   0.564
38518SOL    HW217394  12.120   7.584   0.598
38519SOL     OW17395  14.504   9.385   3.531
38519SOL    HW117396  14.501   9.427   3.445
38519SOL    HW217397  14.589   9.409   3.567
38520SOL     OW17398   5.140   8.858  10.742
38520SOL    HW117399   5.074   8.928  10.739
38520SOL    HW217400   5.223   8.904  10.754
38521SOL     OW17401  13.093  12.982   2.893
38521SOL    HW117402  13.023  13.016   2.949
38521SOL    HW217403  13.117  12.899   2.934
38522SOL     OW17404   0.609   8.993   6.225
38522SOL    HW117405   0.529   8.972   6.177
38522SOL    HW217406   0.666   9.033   6.160
38523SOL     OW17407  11.111  14.185   7.107
38523SOL    HW117408  11.200  14.208   7.080
38523SOL    HW217409  11.079  14.263   7.152
38524SOL     OW17410   0.739   1.867   7.125
38524SOL    HW117411   0.772   1.956   7.138
38524SOL    HW217412   0.817   1.812   7.128
38525SOL     OW17413   6.440   2.608   9.265
38525SOL    HW117414   6.401   2.695   9.260
38525SOL    HW217415   6.500   2.604   9.191
38526SOL     OW17416   7.274  11.368   9.621
38526SOL    HW117417   7.215  11.378   9.696
38526SOL    HW217418   7.240  11.293   9.573
38527SOL     OW17419   2.376   7.705   6.670
38527SOL    HW117420   2.458   7.753   6.683
38527SOL    HW217421   2.384   7.668   6.582
38528SOL     OW17422  10.815   4.268  10.658
38528SOL    HW117423  10.724   4.283  10.633
38528SOL    HW217424  10.859   4.246  10.576
38529SOL     OW17425  11.126  13.363  12.499
38529SOL    HW117426  11.032  13.352  12.510
38529SOL    HW217427  11.143  13.454  12.523
38530SOL     OW17428  10.403  11.287   4.753
38530SOL    HW117429  10.433  11.213   4.805
38530SOL    HW217430  10.309  11.270   4.740
38531SOL     OW17431  12.277   6.327   8.931
38531SOL    HW117432  12.366   6.355   8.951
38531SOL    HW217433  12.221   6.378   8.990
38532SOL     OW17434  14.254   6.372   2.310
38532SOL    HW117435  14.299   6.288   2.313
38532SOL    HW217436  14.227   6.382   2.219
38533SOL     OW17437  13.326   9.455   1.589
38533SOL    HW117438  13.284   9.523   1.642
38533SOL    HW217439  13.340   9.497   1.504
38534SOL     OW17440   4.323  11.485  13.197
38534SOL    HW117441   4.403  11.476  13.250
38534SOL    HW217442   4.341  11.559  13.139
38535SOL     OW17443  12.530  13.785  12.521
38535SOL    HW117444  12.504  13.710  12.575
38535SOL    HW217445  12.607  13.754  12.473
38536SOL     OW17446   3.857   5.332   9.934
38536SOL    HW117447   3.866   5.251   9.885
38536SOL    HW217448   3.819   5.394   9.871
38537SOL     OW17449   9.292   9.674  12.022
38537SOL    HW117450   9.339   9.649  11.942
38537SOL    HW217451   9.231   9.742  11.994
38538SOL     OW17452  14.052  11.675   5.355
38538SOL    HW117453  13.960  11.697   5.367
38538SOL    HW217454  14.094  11.705   5.436
38539SOL     OW17455   8.971   8.218  11.725
38539SOL    HW117456   9.048   8.161  11.732
38539SOL    HW217457   8.922   8.201  11.805
38540SOL     OW17458  12.749   3.727  12.807
38540SOL    HW117459  12.734   3.697  12.718
38540SOL    HW217460  12.666   3.766  12.834
38541SOL     OW17461   2.796   1.520   8.785
38541SOL    HW117462   2.834   1.592   8.735
38541SOL    HW217463   2.710   1.505   8.745
38542SOL     OW17464   6.907   8.546  11.380
38542SOL    HW117465   6.976   8.598  11.419
38542SOL    HW217466   6.953   8.477  11.331
38543SOL     OW17467   7.567   2.176   3.333
38543SOL    HW117468   7.647   2.123   3.326
38543SOL    HW217469   7.557   2.191   3.427
38544SOL     OW17470   0.879   0.070   6.463
38544SOL    HW117471   0.902   0.109   6.379
38544SOL    HW217472   0.883   0.142   6.526
38545SOL     OW17473   8.374   1.357   4.933
38545SOL    HW117474   8.371   1.452   4.944
38545SOL    HW217475   8.421   1.344   4.851
38546SOL     OW17476  10.528   0.444   7.614
38546SOL    HW117477  10.579   0.418   7.691
38546SOL    HW217478  10.452   0.386   7.616
38547SOL     OW17479   4.501  11.541  11.447
38547SOL    HW117480   4.498  11.463  11.391
38547SOL    HW217481   4.490  11.507  11.535
38548SOL     OW17482   4.552  11.193   4.441
38548SOL    HW117483   4.542  11.107   4.400
38548SOL    HW217484   4.553  11.254   4.367
38549SOL     OW17485   1.383  10.451  14.165
38549SOL    HW117486   1.367  10.379  14.225
38549SOL    HW217487   1.378  10.530  14.219
38550SOL     OW17488   6.003  10.084  14.338
38550SOL    HW117489   5.955  10.154  14.382
38550SOL    HW217490   6.092  10.092  14.370
38551SOL     OW17491   8.663   9.585   1.263
38551SOL    HW117492   8.747   9.606   1.222
38551SOL    HW217493   8.609   9.552   1.191
38552SOL     OW17494  13.372   7.725  10.973
38552SOL    HW117495  13.364   7.698  11.064
38552SOL    HW217496  13.283   7.717  10.938
38553SOL     OW17497   2.461   7.311  12.134
38553SOL    HW117498   2.508   7.267  12.204
38553SOL    HW217499   2.376   7.335  12.172
38554SOL     OW17500   4.974   5.767   1.718
38554SOL    HW117501   4.935   5.836   1.663
38554SOL    HW217502   4.977   5.690   1.661
38555SOL     OW17503   9.285   4.708   4.836
38555SOL    HW117504   9.236   4.744   4.761
38555SOL    HW217505   9.244   4.624   4.853
38556SOL     OW17506   7.656   3.748   3.865
38556SOL    HW117507   7.721   3.771   3.799
38556SOL    HW217508   7.629   3.832   3.903
38557SOL     OW17509  13.742   7.040  12.996
38557SOL    HW117510  13.787   7.001  12.922
38557SOL    HW217511  13.755   6.978  13.068
38558SOL     OW17512   7.395   1.121  10.386
38558SOL    HW117513   7.436   1.093  10.468
38558SOL    HW217514   7.330   1.185  10.412
38559SOL     OW17515   8.341   0.391   3.120
38559SOL    HW117516   8.285   0.417   3.193
38559SOL    HW217517   8.426   0.430   3.140
38560SOL     OW17518   4.176  10.893   7.580
38560SOL    HW117519   4.092  10.849   7.572
38560SOL    HW217520   4.212  10.892   7.492
38561SOL     OW17521   9.636  11.957   7.653
38561SOL    HW117522   9.578  12.001   7.590
38561SOL    HW217523   9.610  11.992   7.738
38562SOL     OW17524  14.182   2.260   0.765
38562SOL    HW117525  14.104   2.307   0.795
38562SOL    HW217526  14.229   2.238   0.845
38563SOL     OW17527  10.093   2.083   0.727
38563SOL    HW117528  10.132   2.134   0.656
38563SOL    HW217529  10.001   2.111   0.728
38564SOL     OW17530  14.786  13.669   6.494
38564SOL    HW117531  14.764  13.711   6.577
38564SOL    HW217532  14.703  13.629   6.465
38565SOL     OW17533  11.188  12.849   6.794
38565SOL    HW117534  11.104  12.806   6.809
38565SOL    HW217535  11.218  12.814   6.710
38566SOL     OW17536   8.261   4.886   2.828
38566SOL    HW117537   8.242   4.823   2.758
38566SOL    HW217538   8.348   4.920   2.808
38567SOL     OW17539   6.639   5.744   7.540
38567SOL    HW117540   6.652   5.659   7.498
38567SOL    HW217541   6.668   5.808   7.475
38568SOL     OW17542  13.980   0.336  10.526
38568SOL    HW117543  13.931   0.254  10.528
38568SOL    HW217544  13.921   0.398  10.483
38569SOL     OW17545   7.818   6.695   9.888
38569SOL    HW117546   7.803   6.781   9.849
38569SOL    HW217547   7.912   6.680   9.879
38570SOL     OW17548   2.087   5.391   7.370
38570SOL    HW117549   2.012   5.360   7.318
38570SOL    HW217550   2.133   5.451   7.312
38571SOL     OW17551  12.094  13.349   2.255
38571SOL    HW117552  12.118  13.280   2.193
38571SOL    HW217553  12.004  13.327   2.281
38572SOL     OW17554  10.728   7.563   7.612
38572SOL    HW117555  10.708   7.496   7.547
38572SOL    HW217556  10.765   7.635   7.560
38573SOL     OW17557   0.201   8.426   3.290
38573SOL    HW117558   0.205   8.333   3.312
38573SOL    HW217559   0.186   8.427   3.195
38574SOL     OW17560  12.410  14.455   8.874
38574SOL    HW117561  12.376  14.509   8.803
38574SOL    HW217562  12.477  14.508   8.916
38575SOL     OW17563  14.644   1.128   5.879
38575SOL    HW117564  14.714   1.140   5.943
38575SOL    HW217565  14.593   1.209   5.884
38576SOL     OW17566   7.226   0.744  10.504
38576SOL    HW117567   7.223   0.789  10.588
38576SOL    HW217568   7.135   0.740  10.476
38577SOL     OW17569   8.019   9.701   2.898
38577SOL    HW117570   8.016   9.619   2.849
38577SOL    HW217571   8.036   9.768   2.831
38578SOL     OW17572  12.603  11.135   4.165
38578SOL    HW117573  12.596  11.048   4.204
38578SOL    HW217574  12.515  11.172   4.172
38579SOL     OW17575   8.312   2.482   6.690
38579SOL    HW117576   8.303   2.439   6.775
38579SOL    HW217577   8.233   2.536   6.681
38580SOL     OW17578   1.036   8.810   3.002
38580SOL    HW117579   1.015   8.812   2.909
38580SOL    HW217580   1.101   8.740   3.011
38581SOL     OW17581   5.132   8.095   4.239
38581SOL    HW117582   5.099   8.112   4.151
38581SOL    HW217583   5.060   8.052   4.285
38582SOL     OW17584   5.896   1.126   3.506
38582SOL    HW117585   5.836   1.054   3.488
38582SOL    HW217586   5.854   1.177   3.575
38583SOL     OW17587   3.389   7.066   3.602
38583SOL    HW117588   3.317   7.121   3.570
38583SOL    HW217589   3.466   7.121   3.594
38584SOL     OW17590  13.321   7.979   4.526
38584SOL    HW117591  13.315   8.075   4.529
38584SOL    HW217592  13.232   7.950   4.507
38585SOL     OW17593   3.790  12.399  12.951
38585SOL    HW117594   3.836  12.335  12.896
38585SOL    HW217595   3.801  12.366  13.040
38586SOL     OW17596   8.376  10.188  10.609
38586SOL    HW117597   8.383  10.220  10.699
38586SOL    HW217598   8.354  10.095  10.618
38587SOL     OW17599   6.958   5.929   7.556
38587SOL    HW117600   6.900   5.923   7.480
38587SOL    HW217601   6.966   5.838   7.587
38588SOL     OW17602   3.244   7.409   6.912
38588SOL    HW117603   3.172   7.425   6.973
38588SOL    HW217604   3.253   7.314   6.910
38589SOL     OW17605   7.014   1.478   2.139
38589SOL    HW117606   7.103   1.445   2.154
38589SOL    HW217607   7.025   1.549   2.076
38590SOL     OW17608   9.673   8.592  12.609
38590SOL    HW117609   9.688   8.498  12.617
38590SOL    HW217610   9.616   8.614  12.682
38591SOL     OW17611  10.393   0.881  13.938
38591SOL    HW117612  10.474   0.906  13.893
38591SOL    HW217613  10.421   0.859  14.027
38592SOL     OW17614   5.119  13.243   8.302
38592SOL    HW117615   5.152  13.294   8.376
38592SOL    HW217616   5.198  13.220   8.252
38593SOL     OW17617   4.942   7.805   5.108
38593SOL    HW117618   4.852   7.806   5.074
38593SOL    HW217619   4.991   7.857   5.044
38594SOL     OW17620  14.136   7.199   2.016
38594SOL    HW117621  14.111   7.140   1.944
38594SOL    HW217622  14.078   7.174   2.088
38595SOL     OW17623   8.642   0.564  10.051
38595SOL    HW117624   8.623   0.473  10.074
38595SOL    HW217625   8.560   0.597  10.014
38596SOL     OW17626   5.286   4.752   7.762
38596SOL    HW117627   5.363   4.704   7.792
38596SOL    HW217628   5.316   4.796   7.682
38597SOL     OW17629   6.055   8.455   4.165
38597SOL    HW117630   6.146   8.434   4.189
38597SOL    HW217631   6.062   8.496   4.079
38598SOL     OW17632   2.278   3.016   5.397
38598SOL    HW117633   2.210   3.039   5.459
38598SOL    HW217634   2.238   3.028   5.311
38599SOL     OW17635  10.698   1.266   8.663
38599SOL    HW117636  10.763   1.293   8.729
38599SOL    HW217637  10.615   1.298   8.697
38600SOL     OW17638   2.795   2.371  13.614
38600SOL    HW117639   2.760   2.408  13.695
38600SOL    HW217640   2.773   2.435  13.546
38601SOL     OW17641   8.956   6.520   4.025
38601SOL    HW117642   8.958   6.509   4.120
38601SOL    HW217643   8.914   6.440   3.992
38602SOL     OW17644   3.058  13.100  10.503
38602SOL    HW117645   3.036  13.086  10.411
38602SOL    HW217646   2.974  13.107  10.548
38603SOL     OW17647   9.515  10.151  13.074
38603SOL    HW117648   9.469  10.204  13.010
38603SOL    HW217649   9.481  10.062  13.061
38604SOL     OW17650   7.806  10.234   3.138
38604SOL    HW117651   7.732  10.180   3.163
38604SOL    HW217652   7.867  10.173   3.096
38605SOL     OW17653   4.164  14.036  10.086
38605SOL    HW117654   4.108  14.114  10.092
38605SOL    HW217655   4.251  14.070  10.068
38606SOL     OW17656   4.657   3.799   5.650
38606SOL    HW117657   4.667   3.721   5.596
38606SOL    HW217658   4.743   3.841   5.649
38607SOL     OW17659   8.304  11.746  10.622
38607SOL    HW117660   8.358  11.772  10.697
38607SOL    HW217661   8.220  11.721  10.660
38608SOL     OW17662   4.167   2.662   9.548
38608SOL    HW117663   4.145   2.711   9.469
38608SOL    HW217664   4.098   2.685   9.611
38609SOL     OW17665  11.387   8.619  12.204
38609SOL    HW117666  11.406   8.712  12.219
38609SOL    HW217667  11.319   8.598  12.268
38610SOL     OW17668   5.158  14.089   7.609
38610SOL    HW117669   5.144  14.041   7.528
38610SOL    HW217670   5.238  14.139   7.594
38611SOL     OW17671  13.303   2.474   6.108
38611SOL    HW117672  13.387   2.502   6.071
38611SOL    HW217673  13.311   2.493   6.202
38612SOL     OW17674   9.211  13.333   5.971
38612SOL    HW117675   9.127  13.346   5.928
38612SOL    HW217676   9.256  13.418   5.963
38613SOL     OW17677   6.401  11.287   6.529
38613SOL    HW117678   6.367  11.286   6.439
38613SOL    HW217679   6.430  11.197   6.544
38614SOL     OW17680   6.149  11.410   1.871
38614SOL    HW117681   6.089  11.400   1.945
38614SOL    HW217682   6.236  11.397   1.909
38615SOL     OW17683  12.073  10.333   9.432
38615SOL    HW117684  12.145  10.360   9.375
38615SOL    HW217685  12.013  10.286   9.374
38616SOL     OW17686   2.775   9.141   0.813
38616SOL    HW117687   2.832   9.206   0.854
38616SOL    HW217688   2.783   9.064   0.868
38617SOL     OW17689   1.299  12.239   9.705
38617SOL    HW117690   1.333  12.228   9.616
38617SOL    HW217691   1.204  12.235   9.695
38618SOL     OW17692   9.690   9.719   9.252
38618SOL    HW117693   9.661   9.646   9.307
38618SOL    HW217694   9.623   9.786   9.264
38619SOL     OW17695   5.607  12.316  14.636
38619SOL    HW117696   5.643  12.332  14.723
38619SOL    HW217697   5.677  12.271  14.589
38620SOL     OW17698  13.131   7.338  10.537
38620SOL    HW117699  13.225   7.340  10.557
38620SOL    HW217700  13.100   7.426  10.561
38621SOL     OW17701   4.444   1.065   5.674
38621SOL    HW117702   4.465   0.986   5.625
38621SOL    HW217703   4.447   1.135   5.610
38622SOL     OW17704   3.437   6.241   7.028
38622SOL    HW117705   3.515   6.296   7.033
38622SOL    HW217706   3.447   6.193   6.946
38623SOL     OW17707   6.235   9.854   4.138
38623SOL    HW117708   6.237   9.948   4.119
38623SOL    HW217709   6.323   9.823   4.115
38624SOL     OW17710  12.688  10.233   9.585
38624SOL    HW117711  12.756  10.264   9.525
38624SOL    HW217712  12.606  10.260   9.545
38625SOL     OW17713   0.893   6.000   7.135
38625SOL    HW117714   0.826   6.034   7.075
38625SOL    HW217715   0.975   6.038   7.104
38626SOL     OW17716   0.836   8.846   8.184
38626SOL    HW117717   0.861   8.875   8.272
38626SOL    HW217718   0.878   8.760   8.174
38627SOL     OW17719   7.317   2.722   0.936
38627SOL    HW117720   7.252   2.718   0.866
38627SOL    HW217721   7.268   2.705   1.016
38628SOL     OW17722   0.605   7.864   0.569
38628SOL    HW117723   0.598   7.856   0.664
38628SOL    HW217724   0.606   7.774   0.537
38629SOL     OW17725  12.336  10.349  11.013
38629SOL    HW117726  12.293  10.268  11.038
38629SOL    HW217727  12.400  10.323  10.947
38630SOL     OW17728   0.791  13.972   8.408
38630SOL    HW117729   0.800  14.051   8.355
38630SOL    HW217730   0.837  13.904   8.359
38631SOL     OW17731   6.155   2.449  14.660
38631SOL    HW117732   6.108   2.367  14.672
38631SOL    HW217733   6.154   2.463  14.565
38632SOL     OW17734   7.005   6.177  13.595
38632SOL    HW117735   6.983   6.260  13.552
38632SOL    HW217736   6.931   6.120  13.575
38633SOL     OW17737  12.078  10.008   9.057
38633SOL    HW117738  12.073   9.982   8.965
38633SOL    HW217739  12.086   9.925   9.104
38634SOL     OW17740   6.309   3.378   3.395
38634SOL    HW117741   6.328   3.400   3.487
38634SOL    HW217742   6.365   3.437   3.345
38635SOL     OW17743   5.135   4.099   9.415
38635SOL    HW117744   5.128   4.183   9.371
38635SOL    HW217745   5.183   4.043   9.353
38636SOL     OW17746   8.844   0.170  11.379
38636SOL    HW117747   8.931   0.134  11.362
38636SOL    HW217748   8.847   0.197  11.470
38637SOL     OW17749   2.004   6.791   1.055
38637SOL    HW117750   2.092   6.828   1.042
38637SOL    HW217751   1.995   6.785   1.150
38638SOL     OW17752   8.390  10.041  13.075
38638SOL    HW117753   8.476  10.080  13.058
38638SOL    HW217754   8.403   9.990  13.155
38639SOL     OW17755   0.458   6.167   9.716
38639SOL    HW117756   0.368   6.136   9.723
38639SOL    HW217757   0.467   6.194   9.625
38640SOL     OW17758  11.510  12.318  11.866
38640SOL    HW117759  11.579  12.259  11.897
38640SOL    HW217760  11.443  12.315  11.935
38641SOL     OW17761   5.459   5.298   5.635
38641SOL    HW117762   5.530   5.236   5.620
38641SOL    HW217763   5.409   5.298   5.553
38642SOL     OW17764   6.349  12.235  13.612
38642SOL    HW117765   6.394  12.210  13.532
38642SOL    HW217766   6.314  12.153  13.647
38643SOL     OW17767  13.039   9.048  14.427
38643SOL    HW117768  12.973   9.000  14.377
38643SOL    HW217769  13.001   9.134  14.441
38644SOL     OW17770  12.106   5.087   5.022
38644SOL    HW117771  12.128   4.994   5.029
38644SOL    HW217772  12.024   5.096   5.071
38645SOL     OW17773   7.079   2.867   1.555
38645SOL    HW117774   7.001   2.906   1.515
38645SOL    HW217775   7.152   2.916   1.518
38646SOL     OW17776  13.313   8.526   3.111
38646SOL    HW117777  13.262   8.593   3.064
38646SOL    HW217778  13.279   8.530   3.201
38647SOL     OW17779   5.085   9.598   2.977
38647SOL    HW117780   4.997   9.575   3.007
38647SOL    HW217781   5.075   9.616   2.884
38648SOL     OW17782   2.316   9.806   1.824
38648SOL    HW117783   2.255   9.855   1.769
38648SOL    HW217784   2.391   9.789   1.768
38649SOL     OW17785  10.620   2.531   6.586
38649SOL    HW117786  10.700   2.584   6.586
38649SOL    HW217787  10.605   2.512   6.493
38650SOL     OW17788   1.308   8.360   6.727
38650SOL    HW117789   1.283   8.387   6.816
38650SOL    HW217790   1.401   8.380   6.721
38651SOL     OW17791   9.155   9.741   1.551
38651SOL    HW117792   9.227   9.795   1.584
38651SOL    HW217793   9.104   9.718   1.629
38652SOL     OW17794   8.872  12.475   3.842
38652SOL    HW117795   8.804  12.489   3.776
38652SOL    HW217796   8.931  12.549   3.832
38653SOL     OW17797  14.287   4.649   3.526
38653SOL    HW117798  14.252   4.635   3.438
38653SOL    HW217799  14.353   4.580   3.536
38654SOL     OW17800   6.043   7.893  12.857
38654SOL    HW117801   6.046   7.800  12.878
38654SOL    HW217802   6.018   7.935  12.940
38655SOL     OW17803   6.277   1.467   2.784
38655SOL    HW117804   6.319   1.537   2.732
38655SOL    HW217805   6.350   1.416   2.818
38656SOL     OW17806   1.216   9.613   4.700
38656SOL    HW117807   1.261   9.530   4.682
38656SOL    HW217808   1.174   9.635   4.617
38657SOL     OW17809  11.232  12.132   3.089
38657SOL    HW117810  11.222  12.194   3.017
38657SOL    HW217811  11.191  12.051   3.058
38658SOL     OW17812   2.339  13.728   2.349
38658SOL    HW117813   2.388  13.647   2.332
38658SOL    HW217814   2.255  13.699   2.385
38659SOL     OW17815  13.835   0.165   2.111
38659SOL    HW117816  13.742   0.186   2.124
38659SOL    HW217817  13.834   0.084   2.059
38660SOL     OW17818  12.975  11.446  14.143
38660SOL    HW117819  12.916  11.522  14.139
38660SOL    HW217820  12.928  11.382  14.195
38661SOL     OW17821   3.115   1.848   3.933
38661SOL    HW117822   3.206   1.831   3.960
38661SOL    HW217823   3.097   1.782   3.867
38662SOL     OW17824   2.834   0.648   5.802
38662SOL    HW117825   2.885   0.575   5.767
38662SOL    HW217826   2.768   0.665   5.734
38663SOL     OW17827   5.850  12.410  10.379
38663SOL    HW117828   5.861  12.366  10.462
38663SOL    HW217829   5.926  12.468  10.372
38664SOL     OW17830   8.651  14.165  14.130
38664SOL    HW117831   8.696  14.089  14.093
38664SOL    HW217832   8.559  14.138  14.136
38665SOL     OW17833   8.524  14.852   1.254
38665SOL    HW117834   8.572   0.053   1.274
38665SOL    HW217835   8.505  14.813   1.340
38666SOL     OW17836   0.540   6.400   5.052
38666SOL    HW117837   0.574   6.365   4.970
38666SOL    HW217838   0.477   6.334   5.082
38667SOL     OW17839  12.700   2.338  12.621
38667SOL    HW117840  12.760   2.412  12.630
38667SOL    HW217841  12.747   2.264  12.660
38668SOL     OW17842   2.245   5.418  10.270
38668SOL    HW117843   2.332   5.411  10.310
38668SOL    HW217844   2.205   5.494  10.313
38669SOL     OW17845   9.035   2.607   8.879
38669SOL    HW117846   8.970   2.667   8.841
38669SOL    HW217847   9.084   2.661   8.941
38670SOL     OW17848  12.753   5.061   3.321
38670SOL    HW117849  12.759   4.969   3.295
38670SOL    HW217850  12.670   5.068   3.368
38671SOL     OW17851   0.722   2.727  12.626
38671SOL    HW117852   0.744   2.751  12.536
38671SOL    HW217853   0.786   2.660  12.649
38672SOL     OW17854   8.070   2.749   5.933
38672SOL    HW117855   7.997   2.690   5.918
38672SOL    HW217856   8.057   2.782   6.022
38673SOL     OW17857   5.466   8.126   0.362
38673SOL    HW117858   5.385   8.075   0.371
38673SOL    HW217859   5.462   8.189   0.434
38674SOL     OW17860   0.899   9.514   5.440
38674SOL    HW117861   0.993   9.511   5.425
38674SOL    HW217862   0.878   9.429   5.478
38675SOL     OW17863   1.056   5.445   3.130
38675SOL    HW117864   1.055   5.463   3.036
38675SOL    HW217865   1.147   5.424   3.150
38676SOL     OW17866   8.075  11.202   6.656
38676SOL    HW117867   8.038  11.114   6.658
38676SOL    HW217868   8.140  11.200   6.585
38677SOL     OW17869  12.899  13.650  13.526
38677SOL    HW117870  12.905  13.557  13.504
38677SOL    HW217871  12.840  13.687  13.460
38678SOL     OW17872   3.939   8.163   1.981
38678SOL    HW117873   3.861   8.214   2.006
38678SOL    HW217874   3.939   8.089   2.041
38679SOL     OW17875  11.165   3.290   8.159
38679SOL    HW117876  11.223   3.318   8.230
38679SOL    HW217877  11.120   3.213   8.194
38680SOL     OW17878   3.226   6.411   1.466
38680SOL    HW117879   3.319   6.430   1.457
38680SOL    HW217880   3.219   6.364   1.549
38681SOL     OW17881   3.701   0.703   3.234
38681SOL    HW117882   3.669   0.647   3.305
38681SOL    HW217883   3.744   0.642   3.174
38682SOL     OW17884   1.431   0.521  14.353
38682SOL    HW117885   1.487   0.487  14.283
38682SOL    HW217886   1.446   0.461  14.426
38683SOL     OW17887  11.884   7.929  14.734
38683SOL    HW117888  11.817   7.860  14.742
38683SOL    HW217889  11.967   7.881  14.732
38684SOL     OW17890  12.336  14.727  12.993
38684SOL    HW117891  12.272  14.798  13.001
38684SOL    HW217892  12.324  14.676  13.073
38685SOL     OW17893   9.258   6.527   6.996
38685SOL    HW117894   9.291   6.467   7.063
38685SOL    HW217895   9.276   6.614   7.032
38686SOL     OW17896  12.763   6.923   8.385
38686SOL    HW117897  12.743   6.851   8.324
38686SOL    HW217898  12.678   6.950   8.419
38687SOL     OW17899   3.686   0.836  14.286
38687SOL    HW117900   3.669   0.843  14.380
38687SOL    HW217901   3.618   0.891  14.246
38688SOL     OW17902   8.162  10.943   7.507
38688SOL    HW117903   8.158  11.035   7.480
38688SOL    HW217904   8.193  10.897   7.429
38689SOL     OW17905   9.732  10.453  10.312
38689SOL    HW117906   9.793  10.379  10.304
38689SOL    HW217907   9.646  10.415  10.295
38690SOL     OW17908   9.389   1.355   4.505
38690SOL    HW117909   9.449   1.418   4.545
38690SOL    HW217910   9.416   1.350   4.414
38691SOL     OW17911   7.378   6.863  13.584
38691SOL    HW117912   7.409   6.951  13.606
38691SOL    HW217913   7.454   6.818  13.550
38692SOL     OW17914   5.782  10.610   3.396
38692SOL    HW117915   5.832  10.614   3.478
38692SOL    HW217916   5.839  10.651   3.331
38693SOL     OW17917   8.937   7.854  14.482
38693SOL    HW117918   9.008   7.793  14.502
38693SOL    HW217919   8.857   7.806  14.505
38694SOL     OW17920   5.665   5.695   9.431
38694SOL    HW117921   5.735   5.632   9.445
38694SOL    HW217922   5.696   5.775   9.474
38695SOL     OW17923   4.254   5.691   6.370
38695SOL    HW117924   4.320   5.742   6.417
38695SOL    HW217925   4.304   5.625   6.322
38696SOL     OW17926   7.918   7.963   9.176
38696SOL    HW117927   7.907   7.979   9.270
38696SOL    HW217928   7.996   8.013   9.152
38697SOL     OW17929   8.452  10.371   2.914
38697SOL    HW117930   8.439  10.302   2.980
38697SOL    HW217931   8.473  10.449   2.965
38698SOL     OW17932   3.735   5.995   3.152
38698SOL    HW117933   3.651   6.042   3.154
38698SOL    HW217934   3.795   6.055   3.110
38699SOL     OW17935   9.069   9.400  13.966
38699SOL    HW117936   9.129   9.366  14.032
38699SOL    HW217937   8.991   9.344  13.975
38700SOL     OW17938  12.792   2.507  12.054
38700SOL    HW117939  12.843   2.428  12.037
38700SOL    HW217940  12.715   2.499  11.997
38701SOL     OW17941   2.339   9.140   9.895
38701SOL    HW117942   2.342   9.208   9.828
38701SOL    HW217943   2.261   9.088   9.872
38702SOL     OW17944  13.548   2.288   1.290
38702SOL    HW117945  13.608   2.221   1.323
38702SOL    HW217946  13.493   2.311   1.365
38703SOL     OW17947   2.780   8.819  12.421
38703SOL    HW117948   2.772   8.886  12.353
38703SOL    HW217949   2.744   8.740  12.382
38704SOL     OW17950   8.275   8.430  13.128
38704SOL    HW117951   8.279   8.380  13.209
38704SOL    HW217952   8.253   8.366  13.061
38705SOL     OW17953   2.519   1.752   1.798
38705SOL    HW117954   2.473   1.829   1.831
38705SOL    HW217955   2.611   1.768   1.817
38706SOL     OW17956  10.465   6.736   3.830
38706SOL    HW117957  10.513   6.757   3.750
38706SOL    HW217958  10.406   6.811   3.843
38707SOL     OW17959   5.669   0.656   2.963
38707SOL    HW117960   5.600   0.717   2.934
38707SOL    HW217961   5.635   0.570   2.939
38708SOL     OW17962   7.348  13.200   2.271
38708SOL    HW117963   7.363  13.249   2.191
38708SOL    HW217964   7.435  13.179   2.304
38709SOL     OW17965   3.052  13.759  13.588
38709SOL    HW117966   3.006  13.830  13.632
38709SOL    HW217967   2.986  13.689  13.581
38710SOL     OW17968   4.312  14.548   1.436
38710SOL    HW117969   4.403  14.523   1.417
38710SOL    HW217970   4.288  14.493   1.511
38711SOL     OW17971   0.565  10.800   5.234
38711SOL    HW117972   0.643  10.761   5.274
38711SOL    HW217973   0.546  10.876   5.289
38712SOL     OW17974   1.591  13.220   4.496
38712SOL    HW117975   1.566  13.284   4.562
38712SOL    HW217976   1.681  13.243   4.473
38713SOL     OW17977  13.477  11.876   4.368
38713SOL    HW117978  13.455  11.871   4.461
38713SOL    HW217979  13.495  11.969   4.353
38714SOL     OW17980   7.498  12.296  12.424
38714SOL    HW117981   7.410  12.310  12.390
38714SOL    HW217982   7.530  12.384  12.446
38715SOL     OW17983   6.920   2.789   6.876
38715SOL    HW117984   6.988   2.736   6.835
38715SOL    HW217985   6.874   2.729   6.935
38716SOL     OW17986  13.359   9.619  10.834
38716SOL    HW117987  13.320   9.682  10.773
38716SOL    HW217988  13.288   9.598  10.895
38717SOL     OW17989   5.710  13.364  12.592
38717SOL    HW117990   5.659  13.411  12.657
38717SOL    HW217991   5.669  13.278  12.586
38718SOL     OW17992  12.906   9.512   0.432
38718SOL    HW117993  12.842   9.487   0.499
38718SOL    HW217994  12.853   9.538   0.357
38719SOL     OW17995   2.972   2.962  12.405
38719SOL    HW117996   2.960   3.023  12.332
38719SOL    HW217997   3.005   3.016  12.476
38720SOL     OW17998   3.319   1.211   5.850
38720SOL    HW117999   3.247   1.156   5.880
38720SOL    HW218000   3.392   1.150   5.837
38721SOL     OW18001   3.369   4.892  12.970
38721SOL    HW118002   3.436   4.960  12.962
38721SOL    HW218003   3.288   4.939  12.985
38722SOL     OW18004   2.624   2.833   4.918
38722SOL    HW118005   2.554   2.873   4.971
38722SOL    HW218006   2.598   2.741   4.911
38723SOL     OW18007   0.699   8.034   1.488
38723SOL    HW118008   0.724   8.058   1.399
38723SOL    HW218009   0.775   7.989   1.524
38724SOL     OW18010  13.199   9.298   9.014
38724SOL    HW118011  13.266   9.355   9.051
38724SOL    HW218012  13.156   9.352   8.948
38725SOL     OW18013  11.967   4.572  12.349
38725SOL    HW118014  12.036   4.630  12.380
38725SOL    HW218015  12.009   4.486  12.341
38726SOL     OW18016   2.951   7.130  10.988
38726SOL    HW118017   3.026   7.177  10.953
38726SOL    HW218018   2.938   7.166  11.076
38727SOL     OW18019  14.665   9.529   1.840
38727SOL    HW118020  14.655   9.472   1.916
38727SOL    HW218021  14.576   9.562   1.823
38728SOL     OW18022  13.384   0.502   1.824
38728SOL    HW118023  13.356   0.425   1.872
38728SOL    HW218024  13.437   0.552   1.887
38729SOL     OW18025   8.120   9.242  12.200
38729SOL    HW118026   8.172   9.179  12.149
38729SOL    HW218027   8.103   9.314  12.140
38730SOL     OW18028   2.209   5.443   6.493
38730SOL    HW118029   2.196   5.514   6.556
38730SOL    HW218030   2.266   5.481   6.426
38731SOL     OW18031   8.629  10.364   1.905
38731SOL    HW118032   8.573  10.433   1.942
38731SOL    HW218033   8.598  10.354   1.815
38732SOL     OW18034  11.054  10.267  10.163
38732SOL    HW118035  11.032  10.178  10.189
38732SOL    HW218036  10.993  10.322  10.214
38733SOL     OW18037   6.174   4.762   4.626
38733SOL    HW118038   6.235   4.796   4.561
38733SOL    HW218039   6.230   4.723   4.693
38734SOL     OW18040  10.332   0.709   4.825
38734SOL    HW118041  10.248   0.673   4.853
38734SOL    HW218042  10.398   0.661   4.877
38735SOL     OW18043  12.666   4.613   2.326
38735SOL    HW118044  12.587   4.567   2.298
38735SOL    HW218045  12.736   4.578   2.269
38736SOL     OW18046   5.256   2.076   6.537
38736SOL    HW118047   5.278   2.098   6.446
38736SOL    HW218048   5.335   2.035   6.572
38737SOL     OW18049  11.344   0.248   3.768
38737SOL    HW118050  11.313   0.249   3.858
38737SOL    HW218051  11.276   0.293   3.718
38738SOL     OW18052  12.493  10.127  11.380
38738SOL    HW118053  12.465  10.099  11.467
38738SOL    HW218054  12.584  10.156  11.392
38739SOL     OW18055   0.214  12.875   9.449
38739SOL    HW118056   0.277  12.810   9.416
38739SOL    HW218057   0.267  12.941   9.492
38740SOL     OW18058   9.601  13.158   3.874
38740SOL    HW118059   9.529  13.194   3.822
38740SOL    HW218060   9.611  13.069   3.840
38741SOL     OW18061  10.353   6.393  14.110
38741SOL    HW118062  10.405   6.436  14.043
38741SOL    HW218063  10.305   6.325  14.063
38742SOL     OW18064   3.185   3.740  14.623
38742SOL    HW118065   3.188   3.790  14.542
38742SOL    HW218066   3.216   3.652  14.598
38743SOL     OW18067   2.132  12.109   9.735
38743SOL    HW118068   2.046  12.144   9.756
38743SOL    HW218069   2.115  12.044   9.667
38744SOL     OW18070   6.361   8.121   1.480
38744SOL    HW118071   6.336   8.082   1.396
38744SOL    HW218072   6.293   8.093   1.541
38745SOL     OW18073  12.617   6.946   9.250
38745SOL    HW118074  12.587   6.950   9.341
38745SOL    HW218075  12.600   7.033   9.215
38746SOL     OW18076  10.925  10.491   0.524
38746SOL    HW118077  10.923  10.586   0.531
38746SOL    HW218078  10.997  10.472   0.463
38747SOL     OW18079  14.613  11.608  12.737
38747SOL    HW118080  14.576  11.663  12.668
38747SOL    HW218081  14.673  11.667  12.784
38748SOL     OW18082   2.146   8.014   5.563
38748SOL    HW118083   2.210   7.946   5.540
38748SOL    HW218084   2.076   8.004   5.499
38749SOL     OW18085  10.389  11.725  11.925
38749SOL    HW118086  10.386  11.806  11.874
38749SOL    HW218087  10.391  11.655  11.860
38750SOL     OW18088  14.638   8.635  11.086
38750SOL    HW118089  14.642   8.610  11.178
38750SOL    HW218090  14.551   8.673  11.075
38751SOL     OW18091   0.803   9.294   3.587
38751SOL    HW118092   0.896   9.269   3.586
38751SOL    HW218093   0.799   9.367   3.649
38752SOL     OW18094   7.815   2.448   6.925
38752SOL    HW118095   7.872   2.454   7.002
38752SOL    HW218096   7.863   2.391   6.865
38753SOL     OW18097   8.730   6.038   6.858
38753SOL    HW118098   8.730   6.069   6.949
38753SOL    HW218099   8.721   6.117   6.805
38754SOL     OW18100   3.384  13.313  12.489
38754SOL    HW118101   3.326  13.275  12.555
38754SOL    HW218102   3.398  13.403  12.518
38755SOL     OW18103  13.041   6.195   0.844
38755SOL    HW118104  13.112   6.207   0.782
38755SOL    HW218105  13.033   6.100   0.854
38756SOL     OW18106  13.897  11.374   8.816
38756SOL    HW118107  13.820  11.327   8.785
38756SOL    HW218108  13.941  11.313   8.875
38757SOL     OW18109   2.619   3.140  14.613
38757SOL    HW118110   2.676   3.138  14.536
38757SOL    HW218111   2.670   3.183  14.681
38758SOL     OW18112   0.076   2.328   6.716
38758SOL    HW118113   0.071   2.261   6.647
38758SOL    HW218114   0.042   2.407   6.675
38759SOL     OW18115   4.438   9.709   5.908
38759SOL    HW118116   4.472   9.654   5.838
38759SOL    HW218117   4.396   9.783   5.864
38760SOL     OW18118   3.905   3.305   3.768
38760SOL    HW118119   3.933   3.291   3.677
38760SOL    HW218120   3.922   3.398   3.784
38761SOL     OW18121   8.989  13.463   4.050
38761SOL    HW118122   8.902  13.495   4.072
38761SOL    HW218123   9.032  13.450   4.135
38762SOL     OW18124   2.008   1.881  11.251
38762SOL    HW118125   1.953   1.905  11.176
38762SOL    HW218126   1.977   1.794  11.277
38763SOL     OW18127  14.390   9.110   8.660
38763SOL    HW118128  14.419   9.081   8.574
38763SOL    HW218129  14.470   9.113   8.713
38764SOL     OW18130  12.114   2.352   6.956
38764SOL    HW118131  12.070   2.293   7.018
38764SOL    HW218132  12.053   2.360   6.882
38765SOL     OW18133   1.900  14.692  10.197
38765SOL    HW118134   1.952  14.638  10.257
38765SOL    HW218135   1.896  14.640  10.116
38766SOL     OW18136  14.336   3.733  13.324
38766SOL    HW118137  14.283   3.653  13.319
38766SOL    HW218138  14.416   3.706  13.368
38767SOL     OW18139   5.221   3.353   4.975
38767SOL    HW118140   5.272   3.272   4.974
38767SOL    HW218141   5.179   3.356   4.889
38768SOL     OW18142   9.131  11.750  12.781
38768SOL    HW118143   9.200  11.763  12.847
38768SOL    HW218144   9.060  11.708  12.829
38769SOL     OW18145  10.460   5.620   9.800
38769SOL    HW118146  10.369   5.645   9.819
38769SOL    HW218147  10.506   5.633   9.883
38770SOL     OW18148  14.001   7.260   3.322
38770SOL    HW118149  13.959   7.344   3.342
38770SOL    HW218150  13.932   7.208   3.282
38771SOL     OW18151   4.205  11.149   5.736
38771SOL    HW118152   4.288  11.196   5.728
38771SOL    HW218153   4.228  11.057   5.728
38772SOL     OW18154   0.453   8.436   5.159
38772SOL    HW118155   0.492   8.446   5.072
38772SOL    HW218156   0.513   8.481   5.218
38773SOL     OW18157   7.523  13.047   7.941
38773SOL    HW118158   7.446  13.098   7.915
38773SOL    HW218159   7.506  13.022   8.032
38774SOL     OW18160  11.384   2.457  14.410
38774SOL    HW118161  11.464   2.447  14.358
38774SOL    HW218162  11.362   2.549  14.402
38775SOL     OW18163   7.218  13.918  11.750
38775SOL    HW118164   7.297  13.969  11.731
38775SOL    HW218165   7.239  13.869  11.829
38776SOL     OW18166  12.334   4.034  11.447
38776SOL    HW118167  12.255   4.026  11.394
38776SOL    HW218168  12.359   3.944  11.468
38777SOL     OW18169  14.476   0.928  11.711
38777SOL    HW118170  14.529   0.857  11.747
38777SOL    HW218171  14.526   0.961  11.637
38778SOL     OW18172   0.057  12.619   0.684
38778SOL    HW118173   0.128  12.593   0.742
38778SOL    HW218174  14.862  12.565   0.710
38779SOL     OW18175  13.762   9.787  13.704
38779SOL    HW118176  13.772   9.697  13.673
38779SOL    HW218177  13.851   9.823  13.704
38780SOL     OW18178   8.760  13.938   9.671
38780SOL    HW118179   8.829  13.932   9.737
38780SOL    HW218180   8.684  13.899   9.712
38781SOL     OW18181   0.811   1.775  11.206
38781SOL    HW118182   0.739   1.828  11.171
38781SOL    HW218183   0.888   1.833  11.200
38782SOL     OW18184   2.238   1.087   8.439
38782SOL    HW118185   2.155   1.119   8.474
38782SOL    HW218186   2.293   1.072   8.516
38783SOL     OW18187   4.762   3.461   3.858
38783SOL    HW118188   4.728   3.543   3.822
38783SOL    HW218189   4.775   3.480   3.951
38784SOL     OW18190   5.956  11.587   8.025
38784SOL    HW118191   6.023  11.582   7.957
38784SOL    HW218192   5.873  11.572   7.979
38785SOL     OW18193  11.970   9.199   9.667
38785SOL    HW118194  12.016   9.228   9.746
38785SOL    HW218195  11.890   9.251   9.666
38786SOL     OW18196   5.919   4.314   5.904
38786SOL    HW118197   5.835   4.345   5.939
38786SOL    HW218198   5.965   4.277   5.980
38787SOL     OW18199   4.693   1.632  14.476
38787SOL    HW118200   4.703   1.586  14.392
38787SOL    HW218201   4.599   1.628  14.494
38788SOL     OW18202   6.208   4.932  13.852
38788SOL    HW118203   6.293   4.970  13.830
38788SOL    HW218204   6.167   4.997  13.910
38789SOL     OW18205   9.708  11.108   0.004
38789SOL    HW118206   9.756  11.146   0.078
38789SOL    HW218207   9.690  11.182  14.826
38790SOL     OW18208   2.049   6.915  13.868
38790SOL    HW118209   2.013   6.892  13.953
38790SOL    HW218210   2.059   6.831  13.823
38791SOL     OW18211   0.105  14.831  11.280
38791SOL    HW118212   0.051  14.761  11.243
38791SOL    HW218213   0.176  14.784  11.325
38792SOL     OW18214   3.328   5.803   0.072
38792SOL    HW118215   3.338   5.751  14.872
38792SOL    HW218216   3.271   5.876   0.046
38793SOL     OW18217   0.521   4.312   3.064
38793SOL    HW118218   0.489   4.335   3.151
38793SOL    HW218219   0.475   4.371   3.005
38794SOL     OW18220  12.640  12.116   2.734
38794SOL    HW118221  12.670  12.135   2.645
38794SOL    HW218222  12.720  12.111   2.786
38795SOL     OW18223  14.566   5.823   3.566
38795SOL    HW118224  14.656   5.799   3.547
38795SOL    HW218225  14.546   5.894   3.505
38796SOL     OW18226   0.179   8.746   8.987
38796SOL    HW118227   0.243   8.792   8.932
38796SOL    HW218228   0.230   8.682   9.035
38797SOL     OW18229   0.760   2.649   7.335
38797SOL    HW118230   0.776   2.582   7.269
38797SOL    HW218231   0.785   2.608   7.418
38798SOL     OW18232   5.651   1.415   8.286
38798SOL    HW118233   5.714   1.447   8.221
38798SOL    HW218234   5.698   1.344   8.331
38799SOL     OW18235   5.345  13.804  12.615
38799SOL    HW118236   5.340  13.866  12.542
38799SOL    HW218237   5.288  13.731  12.589
38800SOL     OW18238  10.335   1.514   5.713
38800SOL    HW118239  10.262   1.576   5.716
38800SOL    HW218240  10.395   1.544   5.781
38801SOL     OW18241  10.839   3.846  11.284
38801SOL    HW118242  10.795   3.834  11.199
38801SOL    HW218243  10.923   3.801  11.274
38802SOL     OW18244  11.319   6.421   8.142
38802SOL    HW118245  11.259   6.346   8.144
38802SOL    HW218246  11.338   6.433   8.049
38803SOL     OW18247   1.419   2.081  10.262
38803SOL    HW118248   1.436   2.091  10.356
38803SOL    HW218249   1.498   2.040  10.227
38804SOL     OW18250  12.718  12.097   5.806
38804SOL    HW118251  12.673  12.166   5.756
38804SOL    HW218252  12.682  12.105   5.894
38805SOL     OW18253   1.185   5.175   2.004
38805SOL    HW118254   1.203   5.167   2.098
38805SOL    HW218255   1.106   5.122   1.991
38806SOL     OW18256   6.602  10.683  12.322
38806SOL    HW118257   6.548  10.725  12.254
38806SOL    HW218258   6.584  10.733  12.401
38807SOL     OW18259  14.456  14.844   8.673
38807SOL    HW118260  14.434  14.826   8.581
38807SOL    HW218261  14.387   0.024   8.702
38808SOL     OW18262   4.466   3.918   3.480
38808SOL    HW118263   4.536   3.965   3.434
38808SOL    HW218264   4.435   3.980   3.546
38809SOL     OW18265   1.750   2.220   6.452
38809SOL    HW118266   1.753   2.148   6.389
38809SOL    HW218267   1.669   2.266   6.433
38810SOL     OW18268   2.640   6.873   3.238
38810SOL    HW118269   2.558   6.886   3.190
38810SOL    HW218270   2.665   6.960   3.268
38811SOL     OW18271  12.347   0.702   0.582
38811SOL    HW118272  12.409   0.760   0.539
38811SOL    HW218273  12.396   0.665   0.656
38812SOL     OW18274   2.274  10.926  14.365
38812SOL    HW118275   2.367  10.945  14.354
38812SOL    HW218276   2.231  11.011  14.359
38813SOL     OW18277  11.246   0.396  11.025
38813SOL    HW118278  11.336   0.428  11.022
38813SOL    HW218279  11.255   0.301  11.033
38814SOL     OW18280   0.459  12.877   9.740
38814SOL    HW118281   0.477  12.811   9.806
38814SOL    HW218282   0.502  12.845   9.661
38815SOL     OW18283  11.777   1.802  11.930
38815SOL    HW118284  11.793   1.709  11.919
38815SOL    HW218285  11.689   1.816  11.897
38816SOL     OW18286   0.644  14.285   0.581
38816SOL    HW118287   0.708  14.288   0.652
38816SOL    HW218288   0.595  14.367   0.589
38817SOL     OW18289   2.518  10.209   6.524
38817SOL    HW118290   2.605  10.237   6.495
38817SOL    HW218291   2.458  10.270   6.481
38818SOL     OW18292   2.705  13.292   0.125
38818SOL    HW118293   2.669  13.236   0.057
38818SOL    HW218294   2.797  13.303   0.100
38819SOL     OW18295   4.808   1.591  12.019
38819SOL    HW118296   4.777   1.534  11.948
38819SOL    HW218297   4.747   1.576  12.090
38820SOL     OW18298   2.756   1.589   0.318
38820SOL    HW118299   2.763   1.499   0.286
38820SOL    HW218300   2.845   1.613   0.344
38821SOL     OW18301   1.985  10.901   9.636
38821SOL    HW118302   1.986  10.822   9.583
38821SOL    HW218303   1.918  10.886   9.702
38822SOL     OW18304   6.320   6.726  11.763
38822SOL    HW118305   6.255   6.661  11.790
38822SOL    HW218306   6.280   6.769  11.687
38823SOL     OW18307   0.738  11.246   9.497
38823SOL    HW118308   0.826  11.231   9.534
38823SOL    HW218309   0.708  11.327   9.539
38824SOL     OW18310   2.248   7.842   5.887
38824SOL    HW118311   2.342   7.843   5.905
38824SOL    HW218312   2.210   7.900   5.952
38825SOL     OW18313   6.398  13.172   6.350
38825SOL    HW118314   6.491  13.172   6.328
38825SOL    HW218315   6.372  13.080   6.348
38826SOL     OW18316  14.850   4.589   1.524
38826SOL    HW118317  14.826   4.572   1.615
38826SOL    HW218318  14.773   4.633   1.487
38827SOL     OW18319   5.693   5.738   2.478
38827SOL    HW118320   5.615   5.700   2.436
38827SOL    HW218321   5.762   5.730   2.412
38828SOL     OW18322   2.155  13.496   3.523
38828SOL    HW118323   2.141  13.569   3.584
38828SOL    HW218324   2.197  13.536   3.447
38829SOL     OW18325   6.893   1.884   1.516
38829SOL    HW118326   6.807   1.876   1.559
38829SOL    HW218327   6.899   1.976   1.492
38830SOL     OW18328   5.590  12.376   1.921
38830SOL    HW118329   5.663  12.414   1.871
38830SOL    HW218330   5.553  12.450   1.968
38831SOL     OW18331   7.265   0.005  10.445
38831SOL    HW118332   7.279  14.825  10.371
38831SOL    HW218333   7.263   0.092  10.405
38832SOL     OW18334   2.320  12.099  11.165
38832SOL    HW118335   2.317  12.185  11.206
38832SOL    HW218336   2.315  12.117  11.071
38833SOL     OW18337   8.594   7.558  11.632
38833SOL    HW118338   8.565   7.595  11.716
38833SOL    HW218339   8.529   7.590  11.569
38834SOL     OW18340   2.982  12.513  13.012
38834SOL    HW118341   3.027  12.595  12.992
38834SOL    HW218342   3.051  12.453  13.041
38835SOL     OW18343   2.168  12.444   6.716
38835SOL    HW118344   2.144  12.436   6.809
38835SOL    HW218345   2.137  12.531   6.691
38836SOL     OW18346  13.664   2.187   6.136
38836SOL    HW118347  13.628   2.192   6.224
38836SOL    HW218348  13.752   2.152   6.147
38837SOL     OW18349   7.201   1.691   6.974
38837SOL    HW118350   7.154   1.700   7.057
38837SOL    HW218351   7.133   1.686   6.908
38838SOL     OW18352   9.244   4.071   1.867
38838SOL    HW118353   9.334   4.037   1.861
38838SOL    HW218354   9.234   4.127   1.790
38839SOL     OW18355   8.502  10.747   9.296
38839SOL    HW118356   8.411  10.768   9.316
38839SOL    HW218357   8.519  10.667   9.345
38840SOL     OW18358   2.745  12.160   7.913
38840SOL    HW118359   2.662  12.121   7.941
38840SOL    HW218360   2.745  12.149   7.818
38841SOL     OW18361   0.142   2.935   0.879
38841SOL    HW118362   0.180   2.930   0.966
38841SOL    HW218363   0.098   2.851   0.867
38842SOL     OW18364  11.266   8.191   9.258
38842SOL    HW118365  11.360   8.195   9.274
38842SOL    HW218366  11.253   8.246   9.180
38843SOL     OW18367   0.425  11.681  13.002
38843SOL    HW118368   0.406  11.693  13.095
38843SOL    HW218369   0.519  11.696  12.995
38844SOL     OW18370   7.227   4.399   7.232
38844SOL    HW118371   7.284   4.414   7.157
38844SOL    HW218372   7.217   4.304   7.235
38845SOL     OW18373   6.106  12.384   1.684
38845SOL    HW118374   6.086  12.460   1.629
38845SOL    HW218375   6.152  12.324   1.626
38846SOL     OW18376   9.592   5.423   5.667
38846SOL    HW118377   9.595   5.493   5.602
38846SOL    HW218378   9.630   5.347   5.623
38847SOL     OW18379   0.502   9.385   1.313
38847SOL    HW118380   0.492   9.351   1.402
38847SOL    HW218381   0.417   9.371   1.272
38848SOL     OW18382   1.452   9.928   7.060
38848SOL    HW118383   1.478   9.958   6.973
38848SOL    HW218384   1.499   9.845   7.072
38849SOL     OW18385   8.566   2.463  10.895
38849SOL    HW118386   8.655   2.497  10.889
38849SOL    HW218387   8.546   2.433  10.806
38850SOL     OW18388  12.407   4.783  13.576
38850SOL    HW118389  12.320   4.823  13.585
38850SOL    HW218390  12.456   4.846  13.522
38851SOL     OW18391   2.368  14.759  12.844
38851SOL    HW118392   2.285  14.738  12.801
38851SOL    HW218393   2.347  14.830  12.904
38852SOL     OW18394   3.370   4.338   4.648
38852SOL    HW118395   3.316   4.416   4.636
38852SOL    HW218396   3.330   4.272   4.593
38853SOL     OW18397   4.082   6.195   4.321
38853SOL    HW118398   3.990   6.196   4.350
38853SOL    HW218399   4.078   6.159   4.232
38854SOL     OW18400  10.190   8.409  10.459
38854SOL    HW118401  10.234   8.353  10.524
38854SOL    HW218402  10.218   8.498  10.483
38855SOL     OW18403   5.782   4.743   0.741
38855SOL    HW118404   5.760   4.763   0.650
38855SOL    HW218405   5.712   4.784   0.792
38856SOL     OW18406   9.276   9.889   3.653
38856SOL    HW118407   9.219   9.828   3.699
38856SOL    HW218408   9.251   9.881   3.561
38857SOL     OW18409   5.651   5.378   8.776
38857SOL    HW118410   5.659   5.471   8.797
38857SOL    HW218411   5.566   5.353   8.813
38858SOL     OW18412   3.746   1.274   9.853
38858SOL    HW118413   3.819   1.232   9.898
38858SOL    HW218414   3.755   1.367   9.876
38859SOL     OW18415   7.451  11.573  10.272
38859SOL    HW118416   7.441  11.658  10.229
38859SOL    HW218417   7.540  11.546  10.252
38860SOL     OW18418  13.098   3.941   3.095
38860SOL    HW118419  13.061   3.942   3.184
38860SOL    HW218420  13.190   3.968   3.107
38861SOL     OW18421  10.968  14.521   7.697
38861SOL    HW118422  10.990  14.607   7.660
38861SOL    HW218423  11.035  14.505   7.763
38862SOL     OW18424  10.766   8.489   3.474
38862SOL    HW118425  10.680   8.462   3.505
38862SOL    HW218426  10.798   8.415   3.423
38863SOL     OW18427   7.489   2.833   7.267
38863SOL    HW118428   7.481   2.873   7.181
38863SOL    HW218429   7.546   2.892   7.316
38864SOL     OW18430   9.505   8.538  14.870
38864SOL    HW118431   9.439   8.485   0.035
38864SOL    HW218432   9.580   8.536   0.049
38865SOL     OW18433  11.150  11.363   0.627
38865SOL    HW118434  11.081  11.346   0.690
38865SOL    HW218435  11.104  11.374   0.543
38866SOL     OW18436   7.688  13.389  13.253
38866SOL    HW118437   7.713  13.383  13.160
38866SOL    HW218438   7.665  13.481  13.265
38867SOL     OW18439   6.527  11.443   9.323
38867SOL    HW118440   6.488  11.434   9.409
38867SOL    HW218441   6.581  11.522   9.329
38868SOL     OW18442   8.256  10.333   1.578
38868SOL    HW118443   8.191  10.332   1.648
38868SOL    HW218444   8.216  10.385   1.509
38869SOL     OW18445   6.442   3.261   0.491
38869SOL    HW118446   6.428   3.351   0.460
38869SOL    HW218447   6.465   3.271   0.583
38870SOL     OW18448  10.762   4.066   2.089
38870SOL    HW118449  10.845   4.077   2.042
38870SOL    HW218450  10.696   4.106   2.032
38871SOL     OW18451   5.764   4.792   9.813
38871SOL    HW118452   5.700   4.812   9.881
38871SOL    HW218453   5.731   4.711   9.773
38872SOL     OW18454  10.439   1.721   9.064
38872SOL    HW118455  10.418   1.754   9.152
38872SOL    HW218456  10.369   1.658   9.045
38873SOL     OW18457  10.524   1.216   4.303
38873SOL    HW118458  10.584   1.145   4.326
38873SOL    HW218459  10.468   1.179   4.235
38874SOL     OW18460   2.324  10.474   5.536
38874SOL    HW118461   2.406  10.517   5.509
38874SOL    HW218462   2.297  10.523   5.614
38875SOL     OW18463  14.425   9.747   6.564
38875SOL    HW118464  14.363   9.710   6.501
38875SOL    HW218465  14.483   9.673   6.586
38876SOL     OW18466   7.834  12.877   2.999
38876SOL    HW118467   7.921  12.842   3.021
38876SOL    HW218468   7.808  12.827   2.922
38877SOL     OW18469   4.778  12.167   7.315
38877SOL    HW118470   4.785  12.105   7.243
38877SOL    HW218471   4.759  12.113   7.392
38878SOL     OW18472   7.925  14.554  13.131
38878SOL    HW118473   7.910  14.647  13.147
38878SOL    HW218474   8.013  14.550  13.095
38879SOL     OW18475   8.437  11.013  12.520
38879SOL    HW118476   8.377  10.945  12.550
38879SOL    HW218477   8.445  11.073  12.593
38880SOL     OW18478  11.311   4.187   7.719
38880SOL    HW118479  11.345   4.207   7.806
38880SOL    HW218480  11.254   4.262   7.698
38881SOL     OW18481   4.132   8.075  14.424
38881SOL    HW118482   4.212   8.121  14.450
38881SOL    HW218483   4.130   8.083  14.329
38882SOL     OW18484  13.565   5.209  12.719
38882SOL    HW118485  13.496   5.149  12.749
38882SOL    HW218486  13.623   5.219  12.794
38883SOL     OW18487  12.684  11.218   3.599
38883SOL    HW118488  12.714  11.173   3.678
38883SOL    HW218489  12.589  11.206   3.599
38884SOL     OW18490   0.433   4.272   2.614
38884SOL    HW118491   0.372   4.206   2.647
38884SOL    HW218492   0.504   4.273   2.678
38885SOL     OW18493   8.986  14.691  13.002
38885SOL    HW118494   8.910  14.636  12.982
38885SOL    HW218495   8.957  14.780  12.984
38886SOL     OW18496   3.423  12.727  12.476
38886SOL    HW118497   3.350  12.784  12.499
38886SOL    HW218498   3.381  12.644  12.451
38887SOL     OW18499  12.275   1.589   0.956
38887SOL    HW118500  12.294   1.497   0.936
38887SOL    HW218501  12.180   1.594   0.959
38888SOL     OW18502   9.520   8.684  14.180
38888SOL    HW118503   9.595   8.743  14.174
38888SOL    HW218504   9.444   8.741  14.177
38889SOL     OW18505   9.112   0.827   3.915
38889SOL    HW118506   9.178   0.859   3.976
38889SOL    HW218507   9.030   0.870   3.941
38890SOL     OW18508   5.987   5.873   3.028
38890SOL    HW118509   6.071   5.875   2.982
38890SOL    HW218510   5.938   5.802   2.985
38891SOL     OW18511   9.155   1.253  13.337
38891SOL    HW118512   9.221   1.307  13.295
38891SOL    HW218513   9.205   1.182  13.378
38892SOL     OW18514   4.160   7.735  11.674
38892SOL    HW118515   4.201   7.727  11.761
38892SOL    HW218516   4.066   7.724  11.691
38893SOL     OW18517   6.962   4.523  13.035
38893SOL    HW118518   6.998   4.590  12.977
38893SOL    HW218519   6.927   4.456  12.976
38894SOL     OW18520   7.279   4.966   9.167
38894SOL    HW118521   7.309   4.890   9.216
38894SOL    HW218522   7.358   5.002   9.127
38895SOL     OW18523  12.751   3.334   2.286
38895SOL    HW118524  12.756   3.243   2.314
38895SOL    HW218525  12.842   3.364   2.284
38896SOL     OW18526   6.487   3.669   1.328
38896SOL    HW118527   6.513   3.661   1.420
38896SOL    HW218528   6.547   3.612   1.281
38897SOL     OW18529  13.182   9.065   8.217
38897SOL    HW118530  13.168   9.141   8.273
38897SOL    HW218531  13.174   9.098   8.127
38898SOL     OW18532   0.897  13.878   7.024
38898SOL    HW118533   0.905  13.785   7.046
38898SOL    HW218534   0.987  13.911   7.026
38899SOL     OW18535   6.355   6.158   5.654
38899SOL    HW118536   6.294   6.094   5.691
38899SOL    HW218537   6.440   6.133   5.690
38900SOL     OW18538   1.821  12.329  13.188
38900SOL    HW118539   1.869  12.299  13.266
38900SOL    HW218540   1.871  12.403  13.156
38901SOL     OW18541   0.793  13.882   2.847
38901SOL    HW118542   0.853  13.902   2.919
38901SOL    HW218543   0.782  13.787   2.851
38902SOL     OW18544  12.961  14.522  11.664
38902SOL    HW118545  12.905  14.575  11.722
38902SOL    HW218546  13.023  14.480  11.723
38903SOL     OW18547   9.580   7.396   7.786
38903SOL    HW118548   9.521   7.393   7.862
38903SOL    HW218549   9.662   7.357   7.817
38904SOL     OW18550   3.174   6.534  13.920
38904SOL    HW118551   3.195   6.552  13.828
38904SOL    HW218552   3.222   6.454  13.941
38905SOL     OW18553   8.519   5.327   1.168
38905SOL    HW118554   8.498   5.421   1.173
38905SOL    HW218555   8.460   5.293   1.101
38906SOL     OW18556   8.912   0.902   7.543
38906SOL    HW118557   8.999   0.898   7.503
38906SOL    HW218558   8.921   0.852   7.624
38907SOL     OW18559   3.465   6.120   6.764
38907SOL    HW118560   3.547   6.091   6.723
38907SOL    HW218561   3.455   6.211   6.737
38908SOL     OW18562   5.557   3.571   4.742
38908SOL    HW118563   5.530   3.662   4.747
38908SOL    HW218564   5.486   3.527   4.695
38909SOL     OW18565  11.846  13.097  12.144
38909SOL    HW118566  11.874  13.130  12.229
38909SOL    HW218567  11.877  13.162  12.081
38910SOL     OW18568   9.023   1.297   8.256
38910SOL    HW118569   9.045   1.211   8.291
38910SOL    HW218570   9.059   1.359   8.320
38911SOL     OW18571   7.411   8.992  12.049
38911SOL    HW118572   7.334   8.985  12.105
38911SOL    HW218573   7.393   9.068  11.993
38912SOL     OW18574   1.943   9.357   7.876
38912SOL    HW118575   2.006   9.291   7.847
38912SOL    HW218576   1.889   9.374   7.799
38913SOL     OW18577   6.495   3.821   4.852
38913SOL    HW118578   6.513   3.847   4.761
38913SOL    HW218579   6.554   3.875   4.904
38914SOL     OW18580   5.772   1.541   9.428
38914SOL    HW118581   5.810   1.623   9.460
38914SOL    HW218582   5.721   1.567   9.351
38915SOL     OW18583   1.496  14.073   0.074
38915SOL    HW118584   1.560  14.141   0.094
38915SOL    HW218585   1.517  14.001   0.133
38916SOL     OW18586   8.030  10.558  13.555
38916SOL    HW118587   7.948  10.526  13.517
38916SOL    HW218588   8.051  10.636  13.503
38917SOL     OW18589   9.289   4.791  13.097
38917SOL    HW118590   9.262   4.701  13.118
38917SOL    HW218591   9.230   4.817  13.026
38918SOL     OW18592   5.406   8.995   4.886
38918SOL    HW118593   5.455   8.991   4.968
38918SOL    HW218594   5.454   9.058   4.833
38919SOL     OW18595  10.752   5.999  11.024
38919SOL    HW118596  10.714   5.946  11.095
38919SOL    HW218597  10.844   6.007  11.047
38920SOL     OW18598   6.433  14.592   3.718
38920SOL    HW118599   6.486  14.667   3.745
38920SOL    HW218600   6.412  14.610   3.626
38921SOL     OW18601  10.985   9.138   1.829
38921SOL    HW118602  10.970   9.183   1.912
38921SOL    HW218603  10.910   9.162   1.775
38922SOL     OW18604  13.200  10.350  13.996
38922SOL    HW118605  13.199  10.335  14.090
38922SOL    HW218606  13.238  10.438  13.986
38923SOL     OW18607  10.433  11.008   6.944
38923SOL    HW118608  10.459  11.092   6.982
38923SOL    HW218609  10.363  11.030   6.882
38924SOL     OW18610   6.409   3.906   0.579
38924SOL    HW118611   6.453   3.984   0.611
38924SOL    HW218612   6.391   3.854   0.657
38925SOL     OW18613   0.773   7.119   9.671
38925SOL    HW118614   0.808   7.107   9.759
38925SOL    HW218615   0.826   7.061   9.616
38926SOL     OW18616   0.823   5.541  14.761
38926SOL    HW118617   0.791   5.560  14.672
38926SOL    HW218618   0.772   5.466  14.789
38927SOL     OW18619   1.954   2.514   6.700
38927SOL    HW118620   1.961   2.419   6.691
38927SOL    HW218621   1.865   2.529   6.731
38928SOL     OW18622   1.470  10.330  12.465
38928SOL    HW118623   1.514  10.247  12.448
38928SOL    HW218624   1.439  10.359  12.379
38929SOL     OW18625   0.855   0.874  13.073
38929SOL    HW118626   0.794   0.894  13.144
38929SOL    HW218627   0.847   0.948  13.013
38930SOL     OW18628   9.374   9.791   2.445
38930SOL    HW118629   9.367   9.817   2.353
38930SOL    HW218630   9.412   9.867   2.489
38931SOL     OW18631   3.054   2.168   1.624
38931SOL    HW118632   3.022   2.080   1.643
38931SOL    HW218633   3.068   2.170   1.530
38932SOL     OW18634   4.329   1.286   7.822
38932SOL    HW118635   4.317   1.232   7.743
38932SOL    HW218636   4.359   1.370   7.789
38933SOL     OW18637   7.609   0.753   9.384
38933SOL    HW118638   7.613   0.842   9.347
38933SOL    HW218639   7.677   0.705   9.337
38934SOL     OW18640  10.511   6.857   7.476
38934SOL    HW118641  10.443   6.887   7.536
38934SOL    HW218642  10.493   6.764   7.464
38935SOL     OW18643   9.399   3.467  12.121
38935SOL    HW118644   9.447   3.463  12.038
38935SOL    HW218645   9.468   3.471  12.187
38936SOL     OW18646  14.110  11.386   0.831
38936SOL    HW118647  14.083  11.346   0.749
38936SOL    HW218648  14.032  11.381   0.887
38937SOL     OW18649   8.475   8.608   7.267
38937SOL    HW118650   8.447   8.640   7.182
38937SOL    HW218651   8.530   8.678   7.303
38938SOL     OW18652   0.852   9.925   1.301
38938SOL    HW118653   0.781   9.909   1.364
38938SOL    HW218654   0.853  10.021   1.291
38939SOL     OW18655   9.586   3.173   7.779
38939SOL    HW118656   9.658   3.221   7.821
38939SOL    HW218657   9.509   3.229   7.790
38940SOL     OW18658   4.432   8.382   5.056
38940SOL    HW118659   4.471   8.408   5.139
38940SOL    HW218660   4.453   8.454   4.996
38941SOL     OW18661   1.407  13.907   8.834
38941SOL    HW118662   1.490  13.861   8.847
38941SOL    HW218663   1.343  13.838   8.818
38942SOL     OW18664   4.176   7.517   5.683
38942SOL    HW118665   4.265   7.491   5.709
38942SOL    HW218666   4.118   7.462   5.737
38943SOL     OW18667   1.401   2.006   4.927
38943SOL    HW118668   1.491   1.978   4.909
38943SOL    HW218669   1.410   2.078   4.989
38944SOL     OW18670   6.372   2.816  10.739
38944SOL    HW118671   6.340   2.753  10.674
38944SOL    HW218672   6.296   2.870  10.760
38945SOL     OW18673  14.350   4.530   2.328
38945SOL    HW118674  14.357   4.478   2.248
38945SOL    HW218675  14.295   4.478   2.386
38946SOL     OW18676   8.244   9.699   7.109
38946SOL    HW118677   8.224   9.649   7.188
38946SOL    HW218678   8.337   9.684   7.093
38947SOL     OW18679   2.369   8.717   1.206
38947SOL    HW118680   2.308   8.691   1.274
38947SOL    HW218681   2.316   8.724   1.127
38948SOL     OW18682  13.220   0.308   0.472
38948SOL    HW118683  13.214   0.336   0.381
38948SOL    HW218684  13.213   0.212   0.468
38949SOL     OW18685   9.702   4.988  10.872
38949SOL    HW118686   9.683   4.936  10.950
38949SOL    HW218687   9.666   4.937  10.800
38950SOL     OW18688   6.942   9.458  14.587
38950SOL    HW118689   6.964   9.451  14.680
38950SOL    HW218690   6.985   9.538  14.558
38951SOL     OW18691  11.094   8.977   0.031
38951SOL    HW118692  11.031   8.914  14.875
38951SOL    HW218693  11.174   8.962  14.859
38952SOL     OW18694   6.582   2.717   1.735
38952SOL    HW118695   6.667   2.762   1.739
38952SOL    HW218696   6.569   2.699   1.643
38953SOL     OW18697  11.281   8.019   5.364
38953SOL    HW118698  11.290   8.110   5.393
38953SOL    HW218699  11.297   7.967   5.443
38954SOL     OW18700   2.062   1.789  13.210
38954SOL    HW118701   1.987   1.767  13.154
38954SOL    HW218702   2.120   1.841  13.154
38955SOL     OW18703   0.450  12.423   8.101
38955SOL    HW118704   0.397  12.493   8.139
38955SOL    HW218705   0.450  12.440   8.007
38956SOL     OW18706   0.587  11.351   8.811
38956SOL    HW118707   0.544  11.271   8.782
38956SOL    HW218708   0.552  11.420   8.754
38957SOL     OW18709   2.718  10.428   1.318
38957SOL    HW118710   2.785  10.476   1.366
38957SOL    HW218711   2.730  10.337   1.345
38958SOL     OW18712   7.926   8.412   7.462
38958SOL    HW118713   8.008   8.364   7.452
38958SOL    HW218714   7.948   8.484   7.521
38959SOL     OW18715   1.644  11.095   8.760
38959SOL    HW118716   1.628  11.005   8.732
38959SOL    HW218717   1.572  11.115   8.820
38960SOL     OW18718   2.768   4.038   0.702
38960SOL    HW118719   2.679   4.062   0.676
38960SOL    HW218720   2.756   3.980   0.777
38961SOL     OW18721   9.245  13.368  13.471
38961SOL    HW118722   9.284  13.363  13.384
38961SOL    HW218723   9.179  13.299  13.473
38962SOL     OW18724   3.246  13.179   7.579
38962SOL    HW118725   3.178  13.244   7.562
38962SOL    HW218726   3.312  13.195   7.511
38963SOL     OW18727   3.419   0.301   9.538
38963SOL    HW118728   3.353   0.296   9.607
38963SOL    HW218729   3.436   0.210   9.514
38964SOL     OW18730   0.167  11.736   8.292
38964SOL    HW118731   0.152  11.658   8.345
38964SOL    HW218732   0.193  11.804   8.354
38965SOL     OW18733  10.381  11.731   3.796
38965SOL    HW118734  10.340  11.782   3.726
38965SOL    HW218735  10.317  11.733   3.867
38966SOL     OW18736  11.643   2.241  13.734
38966SOL    HW118737  11.551   2.221  13.745
38966SOL    HW218738  11.667   2.201  13.650
38967SOL     OW18739   3.257   7.012   7.032
38967SOL    HW118740   3.174   6.992   7.075
38967SOL    HW218741   3.231   7.052   6.949
38968SOL     OW18742  12.378   4.727   9.989
38968SOL    HW118743  12.467   4.761   9.984
38968SOL    HW218744  12.325   4.803  10.014
38969SOL     OW18745   2.423   8.850  13.683
38969SOL    HW118746   2.443   8.757  13.684
38969SOL    HW218747   2.500   8.892  13.721
38970SOL     OW18748   5.305  13.107   5.584
38970SOL    HW118749   5.271  13.160   5.657
38970SOL    HW218750   5.243  13.124   5.512
38971SOL     OW18751  11.529  10.732   3.820
38971SOL    HW118752  11.452  10.789   3.829
38971SOL    HW218753  11.538  10.719   3.726
38972SOL     OW18754   6.555  10.090  14.414
38972SOL    HW118755   6.539  10.144  14.491
38972SOL    HW218756   6.478  10.034  14.406
38973SOL     OW18757  10.362  12.467   4.979
38973SOL    HW118758  10.422  12.454   5.053
38973SOL    HW218759  10.344  12.561   4.978
38974SOL     OW18760  12.341   5.257   5.065
38974SOL    HW118761  12.267   5.212   5.025
38974SOL    HW218762  12.418   5.220   5.022
38975SOL     OW18763   0.513  14.618   1.351
38975SOL    HW118764   0.559  14.608   1.268
38975SOL    HW218765   0.430  14.659   1.327
38976SOL     OW18766   2.089  14.222   8.671
38976SOL    HW118767   2.089  14.253   8.762
38976SOL    HW218768   2.154  14.151   8.670
38977SOL     OW18769  13.151  14.245   4.237
38977SOL    HW118770  13.117  14.334   4.228
38977SOL    HW218771  13.243  14.252   4.208
38978SOL     OW18772   3.563  10.024   8.480
38978SOL    HW118773   3.511  10.099   8.452
38978SOL    HW218774   3.538  10.011   8.572
38979SOL     OW18775   3.939  10.100   5.134
38979SOL    HW118776   4.013  10.040   5.131
38979SOL    HW218777   3.929  10.122   5.226
38980SOL     OW18778  11.640  12.784   0.477
38980SOL    HW118779  11.587  12.862   0.460
38980SOL    HW218780  11.717  12.794   0.421
38981SOL     OW18781   2.388   7.632  13.833
38981SOL    HW118782   2.382   7.726  13.819
38981SOL    HW218783   2.455   7.603  13.771
38982SOL     OW18784  10.242   9.420   0.857
38982SOL    HW118785  10.296   9.495   0.884
38982SOL    HW218786  10.175   9.459   0.800
38983SOL     OW18787   5.683   7.666   9.797
38983SOL    HW118788   5.660   7.704   9.712
38983SOL    HW218789   5.622   7.705   9.859
38984SOL     OW18790   1.628  10.550  12.526
38984SOL    HW118791   1.648  10.510  12.611
38984SOL    HW218792   1.560  10.494  12.489
38985SOL     OW18793  11.395   0.373   0.163
38985SOL    HW118794  11.413   0.386   0.070
38985SOL    HW218795  11.352   0.454   0.190
38986SOL     OW18796   4.371   0.870   2.599
38986SOL    HW118797   4.301   0.843   2.540
38986SOL    HW218798   4.375   0.966   2.590
38987SOL     OW18799   1.472  14.359   4.486
38987SOL    HW118800   1.458  14.339   4.393
38987SOL    HW218801   1.563  14.389   4.491
38988SOL     OW18802   1.303  11.813   6.720
38988SOL    HW118803   1.282  11.721   6.711
38988SOL    HW218804   1.399  11.815   6.726
38989SOL     OW18805   7.867  14.377   0.472
38989SOL    HW118806   7.923  14.332   0.536
38989SOL    HW218807   7.904  14.465   0.466
38990SOL     OW18808   9.319   5.290   8.688
38990SOL    HW118809   9.358   5.363   8.639
38990SOL    HW218810   9.394   5.238   8.717
38991SOL     OW18811   5.495  11.651  13.779
38991SOL    HW118812   5.565  11.586  13.773
38991SOL    HW218813   5.469  11.667  13.688
38992SOL     OW18814  10.126  12.895   5.799
38992SOL    HW118815  10.203  12.907   5.743
38992SOL    HW218816  10.071  12.834   5.751
38993SOL     OW18817  13.150   0.297   1.473
38993SOL    HW118818  13.174   0.241   1.400
38993SOL    HW218819  13.090   0.361   1.435
38994SOL     OW18820  14.143   5.501   9.592
38994SOL    HW118821  14.183   5.440   9.655
38994SOL    HW218822  14.203   5.501   9.518
38995SOL     OW18823   2.908   8.408   0.541
38995SOL    HW118824   2.870   8.327   0.574
38995SOL    HW218825   2.961   8.380   0.466
38996SOL     OW18826   4.845   8.475  12.650
38996SOL    HW118827   4.917   8.421  12.683
38996SOL    HW218828   4.770   8.416  12.648
38997SOL     OW18829  10.369  12.014   0.433
38997SOL    HW118830  10.336  11.995   0.521
38997SOL    HW218831  10.372  12.110   0.428
38998SOL     OW18832   3.113   0.744  13.999
38998SOL    HW118833   3.046   0.790  13.949
38998SOL    HW218834   3.166   0.700  13.932
38999SOL     OW18835  13.159   1.744   5.250
38999SOL    HW118836  13.091   1.727   5.185
38999SOL    HW218837  13.213   1.812   5.212
39000SOL     OW18838  14.860  13.644   2.377
39000SOL    HW118839  14.865  13.721   2.434
39000SOL    HW218840   0.067  13.603   2.384
39001SOL     OW18841  13.520   2.858   1.655
39001SOL    HW118842  13.574   2.924   1.697
39001SOL    HW218843  13.442   2.905   1.625
39002SOL     OW18844   1.150   9.410   3.797
39002SOL    HW118845   1.115   9.399   3.709
39002SOL    HW218846   1.209   9.335   3.809
39003SOL     OW18847  12.185  14.558  10.639
39003SOL    HW118848  12.177  14.485  10.578
39003SOL    HW218849  12.190  14.517  10.726
39004SOL     OW18850   5.873  12.222  10.155
39004SOL    HW118851   5.909  12.148  10.204
39004SOL    HW218852   5.864  12.292  10.221
39005SOL     OW18853   0.479  10.408  13.555
39005SOL    HW118854   0.415  10.337  13.549
39005SOL    HW218855   0.429  10.488  13.540
39006SOL     OW18856   9.103   2.155   6.006
39006SOL    HW118857   9.108   2.131   6.098
39006SOL    HW218858   9.139   2.079   5.960
39007SOL     OW18859  10.704   0.868   0.067
39007SOL    HW118860  10.630   0.814   0.094
39007SOL    HW218861  10.740   0.822  14.870
39008SOL     OW18862  14.743   0.756   2.380
39008SOL    HW118863  14.663   0.731   2.333
39008SOL    HW218864  14.814   0.726   2.324
39009SOL     OW18865   7.257  13.499  11.554
39009SOL    HW118866   7.242  13.581  11.508
39009SOL    HW218867   7.352  13.491  11.561
39010SOL     OW18868  12.445   8.607   3.437
39010SOL    HW118869  12.479   8.592   3.349
39010SOL    HW218870  12.350   8.603   3.428
39011SOL     OW18871   6.878   3.484   1.784
39011SOL    HW118872   6.954   3.505   1.730
39011SOL    HW218873   6.826   3.564   1.785
39012SOL     OW18874   4.329   0.749  13.093
39012SOL    HW118875   4.317   0.809  13.019
39012SOL    HW218876   4.246   0.752  13.140
39013SOL     OW18877   1.954  12.769   5.067
39013SOL    HW118878   1.927  12.680   5.090
39013SOL    HW218879   1.928  12.779   4.975
39014SOL     OW18880   5.786   3.124  11.556
39014SOL    HW118881   5.736   3.204  11.573
39014SOL    HW218882   5.762   3.065  11.627
39015SOL     OW18883   8.189   5.324   4.111
39015SOL    HW118884   8.146   5.408   4.128
39015SOL    HW218885   8.264   5.347   4.056
39016SOL     OW18886  11.210   1.991   0.644
39016SOL    HW118887  11.294   1.956   0.673
39016SOL    HW218888  11.144   1.934   0.684
39017SOL     OW18889   8.746   6.186   8.432
39017SOL    HW118890   8.833   6.223   8.421
39017SOL    HW218891   8.739   6.119   8.364
39018SOL     OW18892   8.789   0.032  12.977
39018SOL    HW118893   8.729   0.069  13.042
39018SOL    HW218894   8.874   0.072  12.998
39019SOL     OW18895   6.950  13.282   0.188
39019SOL    HW118896   7.035  13.318   0.162
39019SOL    HW218897   6.972  13.217   0.256
39020SOL     OW18898   1.082   0.668   5.381
39020SOL    HW118899   1.172   0.671   5.347
39020SOL    HW218900   1.086   0.607   5.455
39021SOL     OW18901   5.507   3.915   9.479
39021SOL    HW118902   5.500   4.007   9.451
39021SOL    HW218903   5.417   3.882   9.477
39022SOL     OW18904   0.883   1.751   4.004
39022SOL    HW118905   0.904   1.721   3.916
39022SOL    HW218906   0.967   1.772   4.043
39023SOL     OW18907   6.027   1.268   6.931
39023SOL    HW118908   5.952   1.241   6.985
39023SOL    HW218909   6.083   1.317   6.992
39024SOL     OW18910  10.823   0.737   9.289
39024SOL    HW118911  10.888   0.795   9.250
39024SOL    HW218912  10.803   0.776   9.375
39025SOL     OW18913   9.368   6.687   8.577
39025SOL    HW118914   9.274   6.685   8.562
39025SOL    HW218915   9.382   6.766   8.629
39026SOL     OW18916  10.171   0.732  13.646
39026SOL    HW118917  10.186   0.738  13.741
39026SOL    HW218918  10.182   0.639  13.627
39027SOL     OW18919  10.650  14.856   4.200
39027SOL    HW118920  10.623   0.002   4.289
39027SOL    HW218921  10.573  14.873   4.146
39028SOL     OW18922   4.048   8.665  13.365
39028SOL    HW118923   4.060   8.760  13.363
39028SOL    HW218924   4.014   8.643  13.278
39029SOL     OW18925  11.770   2.877   5.648
39029SOL    HW118926  11.853   2.926   5.644
39029SOL    HW218927  11.720   2.908   5.573
39030SOL     OW18928   6.045   3.370  14.615
39030SOL    HW118929   6.107   3.440  14.637
39030SOL    HW218930   5.960   3.403  14.642
39031SOL     OW18931   1.983   1.451  14.156
39031SOL    HW118932   1.914   1.499  14.110
39031SOL    HW218933   2.003   1.504  14.233
39032SOL     OW18934   2.234   7.882   1.971
39032SOL    HW118935   2.175   7.931   1.913
39032SOL    HW218936   2.299   7.947   1.999
39033SOL     OW18937  10.435   8.938  10.921
39033SOL    HW118938  10.443   8.853  10.877
39033SOL    HW218939  10.350   8.935  10.963
39034SOL     OW18940   3.419   4.057   7.429
39034SOL    HW118941   3.437   4.016   7.514
39034SOL    HW218942   3.324   4.061   7.424
39035SOL     OW18943   5.930   7.034   4.839
39035SOL    HW118944   5.901   7.007   4.926
39035SOL    HW218945   6.026   7.029   4.843
39036SOL     OW18946  14.764   1.766   9.029
39036SOL    HW118947  14.700   1.744   9.097
39036SOL    HW218948  14.820   1.688   9.024
39037SOL     OW18949   6.055   1.217   9.023
39037SOL    HW118950   6.011   1.265   9.093
39037SOL    HW218951   6.135   1.267   9.006
39038SOL     OW18952   0.168   9.572   6.668
39038SOL    HW118953   0.250   9.524   6.655
39038SOL    HW218954   0.104   9.506   6.693
39039SOL     OW18955   7.607   3.308   5.816
39039SOL    HW118956   7.558   3.324   5.896
39039SOL    HW218957   7.667   3.237   5.838
39040SOL     OW18958  11.176  14.586  10.457
39040SOL    HW118959  11.228  14.547  10.386
39040SOL    HW218960  11.118  14.515  10.486
39041SOL     OW18961   7.130  14.386   9.992
39041SOL    HW118962   7.070  14.363  10.063
39041SOL    HW218963   7.171  14.303   9.969
39042SOL     OW18964   9.816   9.821  13.554
39042SOL    HW118965   9.859   9.759  13.496
39042SOL    HW218966   9.808   9.901  13.502
39043SOL     OW18967  11.055  13.630  11.117
39043SOL    HW118968  11.140  13.671  11.105
39043SOL    HW218969  11.001  13.663  11.045
39044SOL     OW18970   7.313  14.211   1.972
39044SOL    HW118971   7.391  14.212   2.027
39044SOL    HW218972   7.327  14.138   1.912
39045SOL     OW18973  12.247   3.974   6.359
39045SOL    HW118974  12.213   3.928   6.282
39045SOL    HW218975  12.193   4.052   6.367
39046SOL     OW18976   4.349   8.815  13.647
39046SOL    HW118977   4.375   8.726  13.625
39046SOL    HW218978   4.270   8.831  13.596
39047SOL     OW18979   1.162   1.781  14.287
39047SOL    HW118980   1.080   1.791  14.240
39047SOL    HW218981   1.155   1.841  14.361
39048SOL     OW18982   1.910   0.498  12.068
39048SOL    HW118983   1.950   0.531  11.987
39048SOL    HW218984   1.825   0.464  12.041
39049SOL     OW18985   9.438   7.092  12.637
39049SOL    HW118986   9.490   7.122  12.712
39049SOL    HW218987   9.503   7.069  12.570
39050SOL     OW18988   1.335  13.458   3.066
39050SOL    HW118989   1.281  13.535   3.051
39050SOL    HW218990   1.304  13.423   3.149
39051SOL     OW18991  13.693  13.645   1.054
39051SOL    HW118992  13.608  13.627   1.094
39051SOL    HW218993  13.693  13.739   1.038
39052SOL     OW18994   4.729  10.781   4.386
39052SOL    HW118995   4.735  10.747   4.476
39052SOL    HW218996   4.820  10.781   4.355
39053SOL     OW18997  10.584  10.590   9.025
39053SOL    HW118998  10.593  10.533   9.102
39053SOL    HW218999  10.672  10.592   8.987
39054SOL     OW19000  12.339   5.624   8.073
39054SOL    HW119001  12.396   5.577   8.134
39054SOL    HW219002  12.390   5.629   7.992
39055SOL     OW19003   7.211   0.552  13.038
39055SOL    HW119004   7.153   0.605  13.092
39055SOL    HW219005   7.153   0.487  12.997
39056SOL     OW19006   0.301  11.149   4.337
39056SOL    HW119007   0.223  11.136   4.391
39056SOL    HW219008   0.281  11.104   4.255
39057SOL     OW19009   9.766   6.689   9.602
39057SOL    HW119010   9.798   6.756   9.542
39057SOL    HW219011   9.702   6.734   9.657
39058SOL     OW19012   0.922   7.409   8.201
39058SOL    HW119013   0.891   7.370   8.283
39058SOL    HW219014   0.961   7.336   8.154
39059SOL     OW19015  14.453  11.431   5.917
39059SOL    HW119016  14.436  11.339   5.895
39059SOL    HW219017  14.406  11.480   5.850
39060SOL     OW19018  10.003   1.040   2.533
39060SOL    HW119019  10.073   1.045   2.598
39060SOL    HW219020   9.947   1.116   2.552
39061SOL     OW19021   6.233   9.619   3.365
39061SOL    HW119022   6.235   9.633   3.460
39061SOL    HW219023   6.157   9.669   3.336
39062SOL     OW19024   2.154   8.453   2.400
39062SOL    HW119025   2.068   8.477   2.367
39062SOL    HW219026   2.211   8.526   2.374
39063SOL     OW19027   1.211   4.941   2.791
39063SOL    HW119028   1.270   5.014   2.772
39063SOL    HW219029   1.171   4.964   2.875
39064SOL     OW19030   9.553   3.017   3.239
39064SOL    HW119031   9.577   2.924   3.241
39064SOL    HW219032   9.463   3.019   3.269
39065SOL     OW19033   7.020   6.103   0.413
39065SOL    HW119034   7.103   6.083   0.371
39065SOL    HW219035   7.020   6.050   0.493
39066SOL     OW19036   6.168   1.986   8.403
39066SOL    HW119037   6.077   2.004   8.377
39066SOL    HW219038   6.204   2.072   8.424
39067SOL     OW19039   1.622  12.201   8.046
39067SOL    HW119040   1.607  12.186   7.952
39067SOL    HW219041   1.602  12.293   8.059
39068SOL     OW19042   7.719  12.392   3.787
39068SOL    HW119043   7.782  12.336   3.833
39068SOL    HW219044   7.748  12.392   3.696
39069SOL     OW19045   3.444   4.025  13.370
39069SOL    HW119046   3.375   4.010  13.306
39069SOL    HW219047   3.502   3.949  13.362
39070SOL     OW19048  13.273  11.107   3.281
39070SOL    HW119049  13.283  11.014   3.302
39070SOL    HW219050  13.341  11.151   3.332
39071SOL     OW19051   2.386  13.784  14.126
39071SOL    HW119052   2.396  13.787  14.030
39071SOL    HW219053   2.315  13.846  14.144
39072SOL     OW19054  13.090  13.317  11.700
39072SOL    HW119055  13.151  13.287  11.767
39072SOL    HW219056  13.132  13.292  11.617
39073SOL     OW19057   7.281   8.080   9.668
39073SOL    HW119058   7.359   8.029   9.692
39073SOL    HW219059   7.304   8.170   9.692
39074SOL     OW19060   7.319  13.299   7.596
39074SOL    HW119061   7.415  13.289   7.595
39074SOL    HW219062   7.288  13.236   7.532
39075SOL     OW19063   5.859  11.415  10.166
39075SOL    HW119064   5.804  11.365  10.106
39075SOL    HW219065   5.871  11.500  10.123
39076SOL     OW19066  12.758   6.326   3.975
39076SOL    HW119067  12.811   6.335   3.896
39076SOL    HW219068  12.751   6.232   3.989
39077SOL     OW19069   9.165   4.058  10.460
39077SOL    HW119070   9.091   4.053  10.521
39077SOL    HW219071   9.219   4.129  10.495
39078SOL     OW19072   4.949  12.076   5.080
39078SOL    HW119073   4.883  12.128   5.033
39078SOL    HW219074   4.934  12.098   5.172
39079SOL     OW19075  10.306  10.308  14.682
39079SOL    HW119076  10.335  10.284  14.594
39079SOL    HW219077  10.315  10.227  14.733
39080SOL     OW19078   8.685  13.063   4.091
39080SOL    HW119079   8.730  12.980   4.103
39080SOL    HW219080   8.721  13.120   4.159
39081SOL     OW19081  13.325  10.007  13.836
39081SOL    HW119082  13.378   9.978  13.761
39081SOL    HW219083  13.283  10.088  13.806
39082SOL     OW19084   2.973   3.811   3.995
39082SOL    HW119085   3.035   3.807   4.068
39082SOL    HW219086   2.984   3.900   3.959
39083SOL     OW19087   7.970   3.492   8.983
39083SOL    HW119088   8.026   3.540   9.044
39083SOL    HW219089   7.890   3.473   9.033
39084SOL     OW19090   6.647   7.632  13.730
39084SOL    HW119091   6.622   7.711  13.777
39084SOL    HW219092   6.610   7.560  13.782
39085SOL     OW19093   3.731   8.755   2.236
39085SOL    HW119094   3.638   8.752   2.261
39085SOL    HW219095   3.778   8.760   2.320
39086SOL     OW19096  10.348  12.577   3.792
39086SOL    HW119097  10.375  12.558   3.882
39086SOL    HW219098  10.378  12.502   3.741
39087SOL     OW19099  14.388   8.190  14.848
39087SOL    HW119100  14.384   8.284  14.830
39087SOL    HW219101  14.457   8.157  14.791
39088SOL     OW19102   7.478   8.758   2.512
39088SOL    HW119103   7.480   8.845   2.473
39088SOL    HW219104   7.387   8.743   2.535
39089SOL     OW19105   4.024   1.398   2.353
39089SOL    HW119106   3.987   1.484   2.375
39089SOL    HW219107   4.102   1.391   2.408
39090SOL     OW19108   6.748   5.497   6.244
39090SOL    HW119109   6.704   5.582   6.235
39090SOL    HW219110   6.840   5.519   6.258
39091SOL     OW19111   0.302   2.472   6.259
39091SOL    HW119112   0.250   2.553   6.260
39091SOL    HW219113   0.263   2.419   6.190
39092SOL     OW19114   1.690   0.400  13.630
39092SOL    HW119115   1.769   0.366  13.672
39092SOL    HW219116   1.695   0.495  13.642
39093SOL     OW19117   5.774   9.844   1.546
39093SOL    HW119118   5.857   9.876   1.510
39093SOL    HW219119   5.718   9.921   1.549
39094SOL     OW19120   5.480   6.012  12.962
39094SOL    HW119121   5.452   6.103  12.964
39094SOL    HW219122   5.438   5.975  12.885
39095SOL     OW19123   3.865   5.027   0.328
39095SOL    HW119124   3.851   4.946   0.279
39095SOL    HW219125   3.955   5.021   0.360
39096SOL     OW19126   5.223   6.810   4.592
39096SOL    HW119127   5.192   6.807   4.501
39096SOL    HW219128   5.295   6.872   4.590
39097SOL     OW19129  12.234   0.236  13.335
39097SOL    HW119130  12.207   0.149  13.366
39097SOL    HW219131  12.253   0.286  13.414
39098SOL     OW19132   6.657  11.853  10.396
39098SOL    HW119133   6.684  11.895  10.315
39098SOL    HW219134   6.613  11.923  10.445
39099SOL     OW19135  12.986  12.617   5.022
39099SOL    HW119136  12.932  12.589   5.096
39099SOL    HW219137  13.063  12.656   5.063
39100SOL     OW19138   0.054   2.857  10.121
39100SOL    HW119139  14.865   2.924  10.121
39100SOL    HW219140   0.055   2.824  10.211
39101SOL     OW19141  10.776   0.580  10.039
39101SOL    HW119142  10.723   0.503  10.057
39101SOL    HW219143  10.828   0.593  10.118
39102SOL     OW19144   7.161   1.263   8.607
39102SOL    HW119145   7.193   1.338   8.557
39102SOL    HW219146   7.066   1.277   8.613
39103SOL     OW19147   5.376  13.509   6.128
39103SOL    HW119148   5.396  13.511   6.222
39103SOL    HW219149   5.398  13.597   6.097
39104SOL     OW19150   8.679   1.539  12.119
39104SOL    HW119151   8.624   1.481  12.171
39104SOL    HW219152   8.635   1.625  12.124
39105SOL     OW19153  10.866   7.359   9.442
39105SOL    HW119154  10.934   7.425   9.454
39105SOL    HW219155  10.857   7.318   9.528
39106SOL     OW19156   5.720   1.166   0.981
39106SOL    HW119157   5.719   1.073   1.006
39106SOL    HW219158   5.628   1.187   0.966
39107SOL     OW19159   2.300   2.035  12.281
39107SOL    HW119160   2.395   2.033  12.293
39107SOL    HW219161   2.268   1.960  12.331
39108SOL     OW19162  11.309   8.250  12.791
39108SOL    HW119163  11.325   8.232  12.884
39108SOL    HW219164  11.396   8.271  12.756
39109SOL     OW19165   5.873   6.802   5.304
39109SOL    HW119166   5.899   6.720   5.347
39109SOL    HW219167   5.779   6.808   5.317
39110SOL     OW19168  10.250   7.586   9.484
39110SOL    HW119169  10.239   7.556   9.393
39110SOL    HW219170  10.161   7.603   9.514
39111SOL     OW19171   7.498   7.952   2.771
39111SOL    HW119172   7.423   7.946   2.712
39111SOL    HW219173   7.533   8.040   2.756
39112SOL     OW19174   7.054   2.662   1.937
39112SOL    HW119175   7.065   2.757   1.929
39112SOL    HW219176   7.135   2.631   1.976
39113SOL     OW19177  11.631   2.580  10.065
39113SOL    HW119178  11.698   2.613  10.126
39113SOL    HW219179  11.551   2.626  10.090
39114SOL     OW19180   3.519  14.694   1.994
39114SOL    HW119181   3.509  14.707   2.088
39114SOL    HW219182   3.437  14.651   1.967
39115SOL     OW19183  11.489   1.612  12.568
39115SOL    HW119184  11.482   1.687  12.510
39115SOL    HW219185  11.569   1.627  12.618
39116SOL     OW19186   8.313  12.637  12.386
39116SOL    HW119187   8.392  12.585  12.367
39116SOL    HW219188   8.292  12.680  12.303
39117SOL     OW19189   1.338  13.712   1.314
39117SOL    HW119190   1.289  13.700   1.396
39117SOL    HW219191   1.411  13.650   1.320
39118SOL     OW19192   5.961   4.319  12.188
39118SOL    HW119193   6.019   4.319  12.264
39118SOL    HW219194   6.016   4.286  12.116
39119SOL     OW19195   0.825   6.005   4.066
39119SOL    HW119196   0.834   5.931   4.006
39119SOL    HW219197   0.731   6.014   4.079
39120SOL     OW19198   6.324   8.455   5.292
39120SOL    HW119199   6.367   8.475   5.375
39120SOL    HW219200   6.289   8.366   5.304
39121SOL     OW19201   9.495   1.811  11.027
39121SOL    HW119202   9.580   1.775  11.051
39121SOL    HW219203   9.487   1.792  10.933
39122SOL     OW19204   5.849   0.525   8.791
39122SOL    HW119205   5.774   0.548   8.737
39122SOL    HW219206   5.925   0.534   8.734
39123SOL     OW19207  13.729   7.616   8.839
39123SOL    HW119208  13.638   7.605   8.810
39123SOL    HW219209  13.778   7.624   8.757
39124SOL     OW19210  13.765  12.571   9.394
39124SOL    HW119211  13.753  12.489   9.443
39124SOL    HW219212  13.684  12.620   9.410
39125SOL     OW19213   3.316  13.049   7.229
39125SOL    HW119214   3.397  13.033   7.279
39125SOL    HW219215   3.266  12.968   7.239
39126SOL     OW19216   0.084   9.283  10.885
39126SOL    HW119217   0.132   9.358  10.851
39126SOL    HW219218   0.101   9.285  10.979
39127SOL     OW19219   0.113   4.167   9.092
39127SOL    HW119220   0.130   4.132   9.179
39127SOL    HW219221   0.126   4.093   9.033
39128SOL     OW19222   6.096  12.608   1.522
39128SOL    HW119223   6.060  12.580   1.438
39128SOL    HW219224   6.122  12.699   1.508
39129SOL     OW19225   3.128   3.542   9.182
39129SOL    HW119226   3.062   3.579   9.124
39129SOL    HW219227   3.192   3.613   9.193
39130SOL     OW19228   4.313   5.669   1.555
39130SOL    HW119229   4.368   5.680   1.632
39130SOL    HW219230   4.224   5.664   1.590
39131SOL     OW19231   2.819  10.014  12.910
39131SOL    HW119232   2.839   9.967  12.829
39131SOL    HW219233   2.905  10.042  12.942
39132SOL     OW19234   4.332   2.487   6.166
39132SOL    HW119235   4.358   2.539   6.090
39132SOL    HW219236   4.243   2.459   6.147
39133SOL     OW19237  12.254   2.646  11.688
39133SOL    HW119238  12.210   2.689  11.762
39133SOL    HW219239  12.296   2.718  11.641
39134SOL     OW19240  12.581  10.672   4.888
39134SOL    HW119241  12.496  10.636   4.911
39134SOL    HW219242  12.561  10.750   4.836
39135SOL     OW19243   4.685   0.735  11.068
39135SOL    HW119244   4.746   0.713  11.138
39135SOL    HW219245   4.728   0.704  10.988
39136SOL     OW19246   7.407  13.870   7.754
39136SOL    HW119247   7.408  13.790   7.703
39136SOL    HW219248   7.469  13.929   7.710
39137SOL     OW19249   2.458   4.170   5.702
39137SOL    HW119250   2.425   4.087   5.736
39137SOL    HW219251   2.388   4.202   5.645
39138SOL     OW19252   4.325   0.127  14.645
39138SOL    HW119253   4.261   0.169  14.702
39138SOL    HW219254   4.272   0.078  14.582
39139SOL     OW19255   0.739   1.487   4.143
39139SOL    HW119256   0.800   1.413   4.143
39139SOL    HW219257   0.782   1.554   4.091
39140SOL     OW19258  14.192   4.622   7.455
39140SOL    HW119259  14.208   4.574   7.536
39140SOL    HW219260  14.274   4.612   7.405
39141SOL     OW19261  13.081   0.701  11.224
39141SOL    HW119262  13.149   0.658  11.173
39141SOL    HW219263  13.059   0.779  11.173
39142SOL     OW19264   8.207   1.465  14.853
39142SOL    HW119265   8.127   1.482  14.802
39142SOL    HW219266   8.277   1.505  14.801
39143SOL     OW19267  14.332  10.105   9.432
39143SOL    HW119268  14.416  10.142   9.460
39143SOL    HW219269  14.350  10.012   9.418
39144SOL     OW19270  11.560   4.157  13.070
39144SOL    HW119271  11.476   4.111  13.060
39144SOL    HW219272  11.617   4.094  13.114
39145SOL     OW19273   1.366   0.662   5.716
39145SOL    HW119274   1.313   0.736   5.689
39145SOL    HW219275   1.401   0.687   5.801
39146SOL     OW19276  13.770   1.280  12.242
39146SOL    HW119277  13.720   1.246  12.167
39146SOL    HW219278  13.735   1.368  12.256
39147SOL     OW19279   8.747  10.184   9.407
39147SOL    HW119280   8.783  10.270   9.384
39147SOL    HW219281   8.670  10.204   9.460
39148SOL     OW19282  14.818   2.083  11.435
39148SOL    HW119283  14.740   2.114  11.482
39148SOL    HW219284  14.860   2.162  11.402
39149SOL     OW19285   3.604  13.802   1.897
39149SOL    HW119286   3.659  13.726   1.915
39149SOL    HW219287   3.519  13.765   1.872
39150SOL     OW19288   6.242   4.479   7.437
39150SOL    HW119289   6.223   4.387   7.451
39150SOL    HW219290   6.167   4.512   7.387
39151SOL     OW19291  11.646  10.758   1.191
39151SOL    HW119292  11.551  10.763   1.197
39151SOL    HW219293  11.664  10.769   1.097
39152SOL     OW19294  10.352   1.943   5.002
39152SOL    HW119295  10.395   1.891   4.934
39152SOL    HW219296  10.352   1.886   5.079
39153SOL     OW19297   8.209   5.461  13.238
39153SOL    HW119298   8.224   5.494  13.327
39153SOL    HW219299   8.190   5.540  13.187
39154SOL     OW19300   2.158  10.295  11.019
39154SOL    HW119301   2.167  10.220  10.960
39154SOL    HW219302   2.196  10.368  10.970
39155SOL     OW19303   8.051  14.335   5.487
39155SOL    HW119304   8.008  14.259   5.524
39155SOL    HW219305   8.077  14.387   5.563
39156SOL     OW19306   7.599   2.992   7.477
39156SOL    HW119307   7.564   2.943   7.551
39156SOL    HW219308   7.611   3.081   7.511
39157SOL     OW19309  14.563   2.133  10.677
39157SOL    HW119310  14.604   2.067  10.733
39157SOL    HW219311  14.510   2.083  10.616
39158SOL     OW19312  14.772  10.731   3.719
39158SOL    HW119313  14.702  10.701   3.778
39158SOL    HW219314  14.803  10.651   3.677
39159SOL     OW19315  14.201  11.660   8.818
39159SOL    HW119316  14.205  11.573   8.778
39159SOL    HW219317  14.147  11.648   8.896
39160SOL     OW19318   8.104   4.199  12.956
39160SOL    HW119319   8.043   4.261  12.994
39160SOL    HW219320   8.103   4.124  13.015
39161SOL     OW19321   0.177  13.754  13.078
39161SOL    HW119322   0.185  13.812  13.002
39161SOL    HW219323   0.141  13.673  13.043
39162SOL     OW19324   7.982   7.001   1.947
39162SOL    HW119325   8.022   6.973   1.864
39162SOL    HW219326   8.044   6.973   2.014
39163SOL     OW19327   5.521  13.323  11.262
39163SOL    HW119328   5.471  13.287  11.335
39163SOL    HW219329   5.500  13.266  11.188
39164SOL     OW19330   0.134   5.943   2.627
39164SOL    HW119331   0.229   5.948   2.628
39164SOL    HW219332   0.109   5.934   2.718
39165SOL     OW19333   5.812   7.967  11.118
39165SOL    HW119334   5.855   8.015  11.188
39165SOL    HW219335   5.719   7.982  11.132
39166SOL     OW19336   7.141  10.226  11.404
39166SOL    HW119337   7.061  10.214  11.354
39166SOL    HW219338   7.160  10.320  11.397
39167SOL     OW19339   6.084  10.419  14.280
39167SOL    HW119340   6.086  10.491  14.343
39167SOL    HW219341   5.991  10.400  14.268
39168SOL     OW19342   5.442   2.981   3.418
39168SOL    HW119343   5.392   2.950   3.343
39168SOL    HW219344   5.519   2.925   3.420
39169SOL     OW19345   1.715   9.939  12.093
39169SOL    HW119346   1.784   9.880  12.061
39169SOL    HW219347   1.634   9.890  12.078
39170SOL     OW19348   8.955   9.257   7.351
39170SOL    HW119349   8.864   9.279   7.369
39170SOL    HW219350   8.952   9.200   7.274
39171SOL     OW19351  11.811   5.226   1.840
39171SOL    HW119352  11.825   5.267   1.926
39171SOL    HW219353  11.718   5.204   1.839
39172SOL     OW19354   5.728   8.104   5.354
39172SOL    HW119355   5.787   8.059   5.415
39172SOL    HW219356   5.776   8.107   5.272
39173SOL     OW19357   4.067   8.690   7.945
39173SOL    HW119358   4.019   8.747   7.884
39173SOL    HW219359   4.119   8.750   7.998
39174SOL     OW19360   0.892   8.951  11.732
39174SOL    HW119361   0.877   8.876  11.674
39174SOL    HW219362   0.987   8.950  11.746
39175SOL     OW19363  13.752   2.572   7.248
39175SOL    HW119364  13.773   2.497   7.193
39175SOL    HW219365  13.736   2.643   7.186
39176SOL     OW19366   6.976   4.401   2.674
39176SOL    HW119367   7.070   4.384   2.663
39176SOL    HW219368   6.971   4.495   2.689
39177SOL     OW19369   9.696  10.469  13.469
39177SOL    HW119370   9.701  10.443  13.561
39177SOL    HW219371   9.659  10.393  13.424
39178SOL     OW19372   8.537   9.233  11.492
39178SOL    HW119373   8.607   9.241  11.557
39178SOL    HW219374   8.583   9.226  11.408
39179SOL     OW19375   0.302   9.366  14.716
39179SOL    HW119376   0.271   9.433  14.655
39179SOL    HW219377   0.396   9.383  14.724
39180SOL     OW19378   0.370   7.247   4.293
39180SOL    HW119379   0.456   7.224   4.258
39180SOL    HW219380   0.368   7.209   4.381
39181SOL     OW19381   8.022   3.606  12.436
39181SOL    HW119382   7.977   3.549  12.499
39181SOL    HW219383   8.111   3.614  12.472
39182SOL     OW19384   4.365   1.691  13.502
39182SOL    HW119385   4.391   1.606  13.464
39182SOL    HW219386   4.392   1.755  13.436
39183SOL     OW19387   3.070  14.133   4.747
39183SOL    HW119388   3.133  14.162   4.812
39183SOL    HW219389   3.098  14.044   4.724
39184SOL     OW19390   2.317   6.933   1.325
39184SOL    HW119391   2.236   6.985   1.329
39184SOL    HW219392   2.303   6.874   1.251
39185SOL     OW19393   9.771   4.044   0.883
39185SOL    HW119394   9.692   4.049   0.937
39185SOL    HW219395   9.739   4.025   0.795
39186SOL     OW19396   8.878   9.275   1.186
39186SOL    HW119397   8.790   9.237   1.190
39186SOL    HW219398   8.868   9.353   1.132
39187SOL     OW19399   5.943   8.357   1.112
39187SOL    HW119400   5.916   8.267   1.092
39187SOL    HW219401   5.913   8.408   1.037
39188SOL     OW19402   2.403  10.582   3.141
39188SOL    HW119403   2.475  10.554   3.085
39188SOL    HW219404   2.424  10.548   3.228
39189SOL     OW19405   4.363   7.682  14.253
39189SOL    HW119406   4.409   7.729  14.323
39189SOL    HW219407   4.377   7.736  14.175
39190SOL     OW19408   4.620  10.050   1.945
39190SOL    HW119409   4.657  10.108   1.879
39190SOL    HW219410   4.676  10.063   2.022
39191SOL     OW19411   5.071   5.471  10.927
39191SOL    HW119412   5.056   5.442  11.017
39191SOL    HW219413   4.986   5.505  10.899
39192SOL     OW19414   9.118  11.790   6.460
39192SOL    HW119415   9.030  11.792   6.421
39192SOL    HW219416   9.138  11.697   6.471
39193SOL     OW19417  10.156   4.739  11.476
39193SOL    HW119418  10.066   4.731  11.505
39193SOL    HW219419  10.198   4.657  11.503
39194SOL     OW19420   5.865  13.956   1.868
39194SOL    HW119421   5.927  14.013   1.914
39194SOL    HW219422   5.882  13.973   1.775
39195SOL     OW19423   8.474   3.196   7.644
39195SOL    HW119424   8.499   3.162   7.730
39195SOL    HW219425   8.555   3.193   7.593
39196SOL     OW19426   0.715   0.072  14.064
39196SOL    HW119427   0.673   0.024  14.136
39196SOL    HW219428   0.727   0.006  13.995
39197SOL     OW19429   0.902   7.737   1.251
39197SOL    HW119430   0.914   7.716   1.158
39197SOL    HW219431   0.990   7.746   1.285
39198SOL     OW19432   3.305  14.032   5.975
39198SOL    HW119433   3.290  14.068   5.888
39198SOL    HW219434   3.337  14.106   6.027
39199SOL     OW19435  11.735   8.700   5.422
39199SOL    HW119436  11.828   8.719   5.406
39199SOL    HW219437  11.735   8.627   5.484
39200SOL     OW19438  12.911  14.722   8.827
39200SOL    HW119439  12.921  14.646   8.771
39200SOL    HW219440  12.962  14.701   8.906
39201SOL     OW19441   5.968   9.559  13.043
39201SOL    HW119442   6.058   9.556  13.076
39201SOL    HW219443   5.913   9.557  13.122
39202SOL     OW19444   1.903  10.156   8.641
39202SOL    HW119445   1.926  10.219   8.709
39202SOL    HW219446   1.869  10.081   8.688
39203SOL     OW19447  13.054   1.728  10.257
39203SOL    HW119448  12.996   1.763  10.190
39203SOL    HW219449  12.996   1.682  10.317
39204SOL     OW19450   2.001  13.474  12.553
39204SOL    HW119451   2.087  13.439  12.528
39204SOL    HW219452   1.955  13.398  12.590
39205SOL     OW19453   9.186   2.251  13.316
39205SOL    HW119454   9.143   2.166  13.312
39205SOL    HW219455   9.235   2.248  13.399
39206SOL     OW19456  13.160  13.200   8.558
39206SOL    HW119457  13.156  13.158   8.644
39206SOL    HW219458  13.254  13.203   8.538
39207SOL     OW19459  13.268  13.830   9.568
39207SOL    HW119460  13.174  13.824   9.548
39207SOL    HW219461  13.307  13.757   9.520
39208SOL     OW19462  14.556  12.482  13.054
39208SOL    HW119463  14.475  12.530  13.037
39208SOL    HW219464  14.577  12.502  13.145
39209SOL     OW19465  11.767   1.935  11.497
39209SOL    HW119466  11.834   1.917  11.431
39209SOL    HW219467  11.749   1.850  11.536
39210SOL     OW19468   0.470   0.987  10.958
39210SOL    HW119469   0.436   1.065  11.003
39210SOL    HW219470   0.466   1.009  10.865
39211SOL     OW19471   4.660   3.183   1.151
39211SOL    HW119472   4.675   3.156   1.060
39211SOL    HW219473   4.692   3.110   1.203
39212SOL     OW19474   8.150   6.526  13.999
39212SOL    HW119475   8.153   6.541  14.093
39212SOL    HW219476   8.239   6.542  13.969
39213SOL     OW19477   0.874   2.509   8.751
39213SOL    HW119478   0.819   2.576   8.711
39213SOL    HW219479   0.869   2.527   8.845
39214SOL     OW19480   2.505  11.019  11.649
39214SOL    HW119481   2.415  11.036  11.676
39214SOL    HW219482   2.517  10.925  11.664
39215SOL     OW19483  14.613   1.499   9.335
39215SOL    HW119484  14.673   1.453   9.276
39215SOL    HW219485  14.641   1.474   9.423
39216SOL     OW19486   4.330  12.141   1.938
39216SOL    HW119487   4.289  12.125   1.853
39216SOL    HW219488   4.265  12.191   1.987
39217SOL     OW19489  10.250   8.431   7.718
39217SOL    HW119490  10.248   8.517   7.760
39217SOL    HW219491  10.341   8.418   7.694
39218SOL     OW19492  14.610  11.400  11.711
39218SOL    HW119493  14.639  11.482  11.672
39218SOL    HW219494  14.593  11.422  11.803
39219SOL     OW19495  13.786   3.577  13.446
39219SOL    HW119496  13.880   3.593  13.451
39219SOL    HW219497  13.769   3.510  13.512
39220SOL     OW19498   3.452   6.294   9.553
39220SOL    HW119499   3.407   6.362   9.503
39220SOL    HW219500   3.536   6.284   9.508
39221SOL     OW19501  14.307   6.588  12.026
39221SOL    HW119502  14.401   6.567  12.021
39221SOL    HW219503  14.279   6.551  12.110
39222SOL     OW19504  12.363   2.365   1.529
39222SOL    HW119505  12.406   2.304   1.589
39222SOL    HW219506  12.270   2.343   1.535
39223SOL     OW19507   9.368  10.107  13.797
39223SOL    HW119508   9.431  10.035  13.797
39223SOL    HW219509   9.358  10.131  13.889
39224SOL     OW19510   0.410  13.511   8.919
39224SOL    HW119511   0.445  13.424   8.904
39224SOL    HW219512   0.319  13.496   8.946
39225SOL     OW19513   2.104   1.083   1.309
39225SOL    HW119514   2.148   1.017   1.256
39225SOL    HW219515   2.124   1.166   1.267
39226SOL     OW19516   9.714  14.317   0.456
39226SOL    HW119517   9.750  14.298   0.543
39226SOL    HW219518   9.724  14.234   0.408
39227SOL     OW19519   8.841   8.021  13.552
39227SOL    HW119520   8.830   8.083  13.624
39227SOL    HW219521   8.935   8.025  13.532
39228SOL     OW19522   9.863  12.327   8.318
39228SOL    HW119523   9.815  12.268   8.376
39228SOL    HW219524   9.817  12.321   8.234
39229SOL     OW19525  13.613   5.138  10.849
39229SOL    HW119526  13.587   5.047  10.833
39229SOL    HW219527  13.708   5.133  10.866
39230SOL     OW19528   8.547   3.607   6.909
39230SOL    HW119529   8.587   3.692   6.927
39230SOL    HW219530   8.510   3.581   6.993
39231SOL     OW19531   4.757   3.263   2.370
39231SOL    HW119532   4.706   3.290   2.294
39231SOL    HW219533   4.837   3.315   2.365
39232SOL     OW19534   9.374   9.115   2.239
39232SOL    HW119535   9.317   9.192   2.238
39232SOL    HW219536   9.345   9.065   2.315
39233SOL     OW19537   5.736   9.232  10.333
39233SOL    HW119538   5.726   9.147  10.290
39233SOL    HW219539   5.685   9.293  10.279
39234SOL     OW19540  11.605   4.689  11.943
39234SOL    HW119541  11.520   4.709  11.905
39234SOL    HW219542  11.644   4.775  11.960
39235SOL     OW19543   6.893  10.358   0.417
39235SOL    HW119544   6.896  10.278   0.365
39235SOL    HW219545   6.874  10.329   0.506
39236SOL     OW19546  12.498   3.460  12.393
39236SOL    HW119547  12.574   3.471  12.451
39236SOL    HW219548  12.427   3.436  12.452
39237SOL     OW19549   9.678   9.139   0.863
39237SOL    HW119550   9.595   9.099   0.840
39237SOL    HW219551   9.654   9.222   0.905
39238SOL     OW19552   2.330   1.759   4.418
39238SOL    HW119553   2.305   1.775   4.327
39238SOL    HW219554   2.343   1.846   4.455
39239SOL     OW19555  13.049   7.216  11.735
39239SOL    HW119556  13.026   7.156  11.806
39239SOL    HW219557  13.145   7.220  11.738
39240SOL     OW19558   8.950   9.062   9.909
39240SOL    HW119559   9.022   9.099   9.961
39240SOL    HW219560   8.961   8.968   9.918
39241SOL     OW19561   0.873   7.026   9.936
39241SOL    HW119562   0.836   7.060  10.017
39241SOL    HW219563   0.841   6.936   9.931
39242SOL     OW19564   2.194  14.610   4.354
39242SOL    HW119565   2.123  14.665   4.322
39242SOL    HW219566   2.170  14.521   4.329
39243SOL     OW19567  12.490   4.228   3.161
39243SOL    HW119568  12.534   4.265   3.085
39243SOL    HW219569  12.450   4.147   3.130
39244SOL     OW19570   8.109   0.728   3.508
39244SOL    HW119571   8.134   0.689   3.425
39244SOL    HW219572   8.187   0.721   3.563
39245SOL     OW19573   8.493  11.688   2.384
39245SOL    HW119574   8.495  11.698   2.289
39245SOL    HW219575   8.416  11.737   2.412
39246SOL     OW19576  13.625  13.106  11.389
39246SOL    HW119577  13.709  13.061  11.390
39246SOL    HW219578  13.590  13.093  11.477
39247SOL     OW19579  14.163   9.703  12.894
39247SOL    HW119580  14.207   9.618  12.894
39247SOL    HW219581  14.070   9.683  12.884
39248SOL     OW19582   0.223   1.921   1.744
39248SOL    HW119583   0.221   2.005   1.790
39248SOL    HW219584   0.307   1.921   1.698
39249SOL     OW19585   7.756   9.925   6.936
39249SOL    HW119586   7.826   9.964   6.988
39249SOL    HW219587   7.678   9.976   6.958
39250SOL     OW19588   8.460   5.952   0.128
39250SOL    HW119589   8.525   5.979   0.063
39250SOL    HW219590   8.402   6.027   0.137
39251SOL     OW19591   3.926   1.300   8.125
39251SOL    HW119592   3.937   1.277   8.033
39251SOL    HW219593   3.907   1.394   8.124
39252SOL     OW19594   4.905   4.554  10.186
39252SOL    HW119595   4.976   4.491  10.175
39252SOL    HW219596   4.826   4.505  10.164
39253SOL     OW19597   2.987   0.418   5.756
39253SOL    HW119598   3.035   0.365   5.821
39253SOL    HW219599   2.978   0.360   5.680
39254SOL     OW19600  11.067   3.949   2.160
39254SOL    HW119601  11.082   3.855   2.148
39254SOL    HW219602  11.022   3.977   2.080
39255SOL     OW19603   0.230   2.376   5.570
39255SOL    HW119604   0.309   2.323   5.568
39255SOL    HW219605   0.178   2.346   5.495
39256SOL     OW19606   8.725   7.544   3.165
39256SOL    HW119607   8.758   7.483   3.098
39256SOL    HW219608   8.654   7.496   3.208
39257SOL     OW19609   9.869   3.798  13.310
39257SOL    HW119610   9.884   3.886  13.342
39257SOL    HW219611   9.909   3.740  13.375
39258SOL     OW19612   5.708  11.177  11.155
39258SOL    HW119613   5.698  11.120  11.231
39258SOL    HW219614   5.762  11.127  11.094
39259SOL     OW19615  13.933   6.363  10.352
39259SOL    HW119616  13.934   6.439  10.411
39259SOL    HW219617  13.841   6.342  10.340
39260SOL     OW19618   7.786   0.897   4.859
39260SOL    HW119619   7.807   0.928   4.771
39260SOL    HW219620   7.833   0.956   4.918
39261SOL     OW19621  13.087   1.840   2.853
39261SOL    HW119622  13.172   1.825   2.893
39261SOL    HW219623  13.076   1.767   2.792
39262SOL     OW19624  13.594   1.373  10.855
39262SOL    HW119625  13.645   1.297  10.881
39262SOL    HW219626  13.505   1.354  10.888
39263SOL     OW19627  14.851  12.889  11.243
39263SOL    HW119628  14.878  12.960  11.184
39263SOL    HW219629  14.795  12.932  11.308
39264SOL     OW19630   3.068   0.685   3.792
39264SOL    HW119631   3.115   0.606   3.818
39264SOL    HW219632   3.101   0.706   3.704
39265SOL     OW19633   7.001   0.909   3.317
39265SOL    HW119634   7.080   0.876   3.360
39265SOL    HW219635   6.991   0.854   3.239
39266SOL     OW19636   1.077   8.301   6.984
39266SOL    HW119637   1.052   8.242   6.913
39266SOL    HW219638   1.078   8.388   6.944
39267SOL     OW19639  13.833  11.712   1.664
39267SOL    HW119640  13.755  11.656   1.665
39267SOL    HW219641  13.901  11.659   1.705
39268SOL     OW19642   7.777   4.762   6.719
39268SOL    HW119643   7.728   4.752   6.637
39268SOL    HW219644   7.838   4.688   6.719
39269SOL     OW19645   9.914   0.999  14.032
39269SOL    HW119646   9.854   0.929  14.008
39269SOL    HW219647   9.983   0.996  13.966
39270SOL     OW19648  12.164   8.360   8.128
39270SOL    HW119649  12.199   8.443   8.161
39270SOL    HW219650  12.094   8.337   8.190
39271SOL     OW19651  10.055  10.102  11.829
39271SOL    HW119652  10.026  10.029  11.884
39271SOL    HW219653  10.138  10.129  11.868
39272SOL     OW19654   9.130   8.231   6.705
39272SOL    HW119655   9.101   8.314   6.742
39272SOL    HW219656   9.102   8.233   6.614
39273SOL     OW19657   7.856   7.238   0.286
39273SOL    HW119658   7.837   7.194   0.203
39273SOL    HW219659   7.772   7.237   0.333
39274SOL     OW19660   2.366   1.511  13.586
39274SOL    HW119661   2.341   1.596  13.547
39274SOL    HW219662   2.423   1.472  13.520
39275SOL     OW19663  12.613  13.595   9.205
39275SOL    HW119664  12.568  13.518   9.239
39275SOL    HW219665  12.554  13.629   9.137
39276SOL     OW19666   4.008   6.693   1.107
39276SOL    HW119667   3.996   6.598   1.101
39276SOL    HW219668   3.989   6.726   1.020
39277SOL     OW19669   6.650   2.490   8.584
39277SOL    HW119670   6.562   2.488   8.547
39277SOL    HW219671   6.641   2.537   8.667
39278SOL     OW19672   1.546   3.748   4.000
39278SOL    HW119673   1.575   3.710   3.917
39278SOL    HW219674   1.511   3.674   4.050
39279SOL     OW19675   8.240  13.343  11.955
39279SOL    HW119676   8.213  13.256  11.926
39279SOL    HW219677   8.189  13.404  11.900
39280SOL     OW19678   2.256  13.776  11.976
39280SOL    HW119679   2.181  13.836  11.982
39280SOL    HW219680   2.236  13.706  12.039
39281SOL     OW19681   2.073   7.343  14.706
39281SOL    HW119682   2.044   7.408  14.642
39281SOL    HW219683   2.159   7.316  14.675
39282SOL     OW19684  12.039   9.827   9.754
39282SOL    HW119685  11.997   9.861   9.833
39282SOL    HW219686  12.069   9.905   9.707
39283SOL     OW19687   5.884  11.219  11.579
39283SOL    HW119688   5.831  11.294  11.608
39283SOL    HW219689   5.968  11.231  11.623
39284SOL     OW19690   7.444  12.860  12.392
39284SOL    HW119691   7.439  12.941  12.442
39284SOL    HW219692   7.372  12.866  12.329
39285SOL     OW19693  12.959   4.398   0.784
39285SOL    HW119694  12.989   4.337   0.717
39285SOL    HW219695  12.888   4.351   0.829
39286SOL     OW19696   7.508   9.162   0.802
39286SOL    HW119697   7.545   9.217   0.732
39286SOL    HW219698   7.542   9.075   0.784
39287SOL     OW19699  13.187   5.482   9.365
39287SOL    HW119700  13.129   5.498   9.439
39287SOL    HW219701  13.128   5.456   9.294
39288SOL     OW19702   2.846   6.776  12.389
39288SOL    HW119703   2.869   6.742  12.475
39288SOL    HW219704   2.908   6.734  12.329
39289SOL     OW19705  11.826   5.586  11.202
39289SOL    HW119706  11.793   5.498  11.186
39289SOL    HW219707  11.752   5.644  11.185
39290SOL     OW19708   5.020   4.290  14.068
39290SOL    HW119709   4.990   4.212  14.022
39290SOL    HW219710   5.106   4.266  14.102
39291SOL     OW19711   4.720  12.840  11.866
39291SOL    HW119712   4.691  12.749  11.854
39291SOL    HW219713   4.802  12.833  11.915
39292SOL     OW19714  13.440   5.945   6.624
39292SOL    HW119715  13.472   5.964   6.712
39292SOL    HW219716  13.350   5.978   6.624
39293SOL     OW19717  13.043   9.298  11.814
39293SOL    HW119718  13.077   9.320  11.727
39293SOL    HW219719  12.948   9.301  11.803
39294SOL     OW19720   4.817   6.924  12.140
39294SOL    HW119721   4.900   6.888  12.172
39294SOL    HW219722   4.811   6.893  12.050
39295SOL     OW19723  14.644  11.740   8.551
39295SOL    HW119724  14.570  11.801   8.547
39295SOL    HW219725  14.611  11.667   8.603
39296SOL     OW19726   8.351   8.566   0.648
39296SOL    HW119727   8.267   8.603   0.674
39296SOL    HW219728   8.408   8.579   0.724
39297SOL     OW19729  13.236   9.452   2.092
39297SOL    HW119730  13.163   9.475   2.035
39297SOL    HW219731  13.206   9.476   2.180
39298SOL     OW19732  13.081   2.353   9.996
39298SOL    HW119733  13.045   2.434  10.031
39298SOL    HW219734  13.112   2.305  10.073
39299SOL     OW19735   2.489  12.827  14.061
39299SOL    HW119736   2.552  12.771  14.106
39299SOL    HW219737   2.466  12.778  13.982
39300SOL     OW19738   2.562   9.130   4.744
39300SOL    HW119739   2.658   9.127   4.751
39300SOL    HW219740   2.546   9.139   4.650
39301SOL     OW19741   4.752  14.726   4.299
39301SOL    HW119742   4.726  14.704   4.388
39301SOL    HW219743   4.745  14.821   4.294
39302SOL     OW19744  10.720   2.025   3.271
39302SOL    HW119745  10.659   2.073   3.328
39302SOL    HW219746  10.718   2.073   3.188
39303SOL     OW19747  13.275  13.221   0.647
39303SOL    HW119748  13.315  13.246   0.564
39303SOL    HW219749  13.321  13.142   0.674
39304SOL     OW19750   3.265   8.066  14.345
39304SOL    HW119751   3.308   8.122  14.409
39304SOL    HW219752   3.301   7.979  14.362
39305SOL     OW19753  11.027   4.968   8.685
39305SOL    HW119754  11.034   4.966   8.780
39305SOL    HW219755  10.975   5.046   8.666
39306SOL     OW19756  10.367   7.155   8.897
39306SOL    HW119757  10.415   7.103   8.832
39306SOL    HW219758  10.418   7.145   8.977
39307SOL     OW19759   5.719   6.939   6.551
39307SOL    HW119760   5.640   6.943   6.605
39307SOL    HW219761   5.686   6.928   6.461
39308SOL     OW19762   8.917   4.958   8.838
39308SOL    HW119763   8.870   4.883   8.801
39308SOL    HW219764   9.009   4.942   8.815
39309SOL     OW19765  10.635   3.765   3.108
39309SOL    HW119766  10.715   3.814   3.124
39309SOL    HW219767  10.618   3.777   3.014
39310SOL     OW19768   2.151   5.650  14.472
39310SOL    HW119769   2.080   5.701  14.433
39310SOL    HW219770   2.106   5.589  14.531
39311SOL     OW19771   1.990  14.230   4.756
39311SOL    HW119772   1.947  14.166   4.813
39311SOL    HW219773   1.922  14.294   4.736
39312SOL     OW19774  11.201   1.817   6.833
39312SOL    HW119775  11.170   1.777   6.914
39312SOL    HW219776  11.286   1.854   6.856
39313SOL     OW19777   8.277  13.539   3.777
39313SOL    HW119778   8.282  13.629   3.745
39313SOL    HW219779   8.327  13.539   3.858
39314SOL     OW19780   4.949   8.914  12.281
39314SOL    HW119781   5.026   8.858  12.266
39314SOL    HW219782   4.878   8.853  12.297
39315SOL     OW19783  11.204   0.219  14.432
39315SOL    HW119784  11.223   0.182  14.518
39315SOL    HW219785  11.262   0.171  14.372
39316SOL     OW19786   0.681  13.859   7.566
39316SOL    HW119787   0.682  13.921   7.493
39316SOL    HW219788   0.708  13.776   7.527
39317SOL     OW19789  12.851  12.101   0.089
39317SOL    HW119790  12.879  12.064   0.173
39317SOL    HW219791  12.772  12.052   0.067
39318SOL     OW19792   9.409  13.800   8.049
39318SOL    HW119793   9.316  13.822   8.057
39318SOL    HW219794   9.411  13.719   7.998
39319SOL     OW19795   3.136   4.036   6.769
39319SOL    HW119796   3.110   4.071   6.855
39319SOL    HW219797   3.125   4.110   6.709
39320SOL     OW19798   5.127   8.417   8.199
39320SOL    HW119799   5.046   8.398   8.151
39320SOL    HW219800   5.163   8.331   8.221
39321SOL     OW19801   3.218   2.987  14.350
39321SOL    HW119802   3.198   3.003  14.258
39321SOL    HW219803   3.201   2.893  14.361
39322SOL     OW19804   1.892   4.146   5.403
39322SOL    HW119805   1.878   4.239   5.385
39322SOL    HW219806   1.843   4.130   5.484
39323SOL     OW19807   2.135   7.674   5.668
39323SOL    HW119808   2.165   7.729   5.740
39323SOL    HW219809   2.180   7.708   5.591
39324SOL     OW19810   5.484  12.460   3.301
39324SOL    HW119811   5.422  12.440   3.371
39324SOL    HW219812   5.465  12.394   3.233
39325SOL     OW19813  11.224  13.525   6.992
39325SOL    HW119814  11.197  13.576   6.916
39325SOL    HW219815  11.312  13.557   7.012
39326SOL     OW19816   3.167   0.527   0.229
39326SOL    HW119817   3.210   0.452   0.267
39326SOL    HW219818   3.092   0.544   0.286
39327SOL     OW19819   2.653  10.131  11.499
39327SOL    HW119820   2.579  10.192  11.496
39327SOL    HW219821   2.727  10.184  11.527
39328SOL     OW19822   9.816  13.227   5.729
39328SOL    HW119823   9.847  13.171   5.658
39328SOL    HW219824   9.831  13.176   5.809
39329SOL     OW19825  12.127   6.566   9.792
39329SOL    HW119826  12.124   6.545   9.699
39329SOL    HW219827  12.050   6.523   9.829
39330SOL     OW19828   0.372  13.435   9.918
39330SOL    HW119829   0.412  13.375   9.980
39330SOL    HW219830   0.346  13.379   9.844
39331SOL     OW19831  13.874   1.508   2.247
39331SOL    HW119832  13.812   1.541   2.181
39331SOL    HW219833  13.831   1.432   2.284
39332SOL     OW19834   3.941   6.039   7.600
39332SOL    HW119835   3.954   6.071   7.689
39332SOL    HW219836   3.918   6.117   7.550
39333SOL     OW19837   3.380   0.409   2.741
39333SOL    HW119838   3.311   0.456   2.789
39333SOL    HW219839   3.424   0.357   2.808
39334SOL     OW19840  12.174  13.196   1.389
39334SOL    HW119841  12.103  13.134   1.371
39334SOL    HW219842  12.216  13.209   1.304
39335SOL     OW19843   2.810   1.013  10.356
39335SOL    HW119844   2.724   0.973  10.342
39335SOL    HW219845   2.824   1.067  10.278
39336SOL     OW19846   4.048   4.458   4.608
39336SOL    HW119847   4.034   4.364   4.620
39336SOL    HW219848   4.109   4.482   4.678
39337SOL     OW19849  10.384  12.423  12.069
39337SOL    HW119850  10.411  12.343  12.023
39337SOL    HW219851  10.360  12.393  12.157
39338SOL     OW19852  12.391   4.761  14.791
39338SOL    HW119853  12.366   4.669  14.788
39338SOL    HW219854  12.337   4.802  14.723
39339SOL     OW19855   5.306   7.136   7.052
39339SOL    HW119856   5.222   7.157   7.094
39339SOL    HW219857   5.315   7.042   7.062
39340SOL     OW19858  11.280  14.690   3.586
39340SOL    HW119859  11.274  14.626   3.515
39340SOL    HW219860  11.353  14.747   3.561
39341SOL     OW19861   7.384  11.793   0.748
39341SOL    HW119862   7.457  11.763   0.802
39341SOL    HW219863   7.320  11.722   0.752
39342SOL     OW19864   1.645  14.426   5.654
39342SOL    HW119865   1.633  14.510   5.608
39342SOL    HW219866   1.738  14.422   5.672
39343SOL     OW19867  13.934  13.042  11.993
39343SOL    HW119868  13.915  12.952  11.967
39343SOL    HW219869  13.860  13.068  12.047
39344SOL     OW19870   5.691   3.539   5.795
39344SOL    HW119871   5.769   3.551   5.848
39344SOL    HW219872   5.719   3.557   5.706
39345SOL     OW19873  14.539   2.260  10.389
39345SOL    HW119874  14.631   2.262  10.361
39345SOL    HW219875  14.506   2.175  10.360
39346SOL     OW19876   5.506   1.982   4.089
39346SOL    HW119877   5.577   1.974   4.153
39346SOL    HW219878   5.426   1.965   4.139
39347SOL     OW19879   8.370   7.080   1.679
39347SOL    HW119880   8.350   6.988   1.665
39347SOL    HW219881   8.463   7.088   1.659
39348SOL     OW19882   7.636   3.602  10.459
39348SOL    HW119883   7.660   3.689  10.429
39348SOL    HW219884   7.591   3.563  10.384
39349SOL     OW19885  14.026   7.278  13.451
39349SOL    HW119886  14.051   7.364  13.419
39349SOL    HW219887  14.014   7.225  13.372
39350SOL     OW19888   3.209   9.395  13.946
39350SOL    HW119889   3.123   9.416  13.911
39350SOL    HW219890   3.201   9.410  14.040
39351SOL     OW19891  13.289   2.221   4.908
39351SOL    HW119892  13.366   2.222   4.965
39351SOL    HW219893  13.321   2.185   4.825
39352SOL     OW19894  11.364   4.710  12.908
39352SOL    HW119895  11.360   4.616  12.920
39352SOL    HW219896  11.293   4.745  12.962
39353SOL     OW19897  11.520   7.818   3.753
39353SOL    HW119898  11.477   7.739   3.786
39353SOL    HW219899  11.450   7.882   3.744
39354SOL     OW19900  14.657  13.539  11.643
39354SOL    HW119901  14.729  13.501  11.594
39354SOL    HW219902  14.601  13.465  11.666
39355SOL     OW19903   3.568  12.931  12.331
39355SOL    HW119904   3.557  12.899  12.242
39355SOL    HW219905   3.485  12.910  12.375
39356SOL     OW19906  13.444   6.111   0.220
39356SOL    HW119907  13.353   6.089   0.243
39356SOL    HW219908  13.497   6.045   0.265
39357SOL     OW19909  14.797  13.698   8.997
39357SOL    HW119910  14.788  13.793   8.994
39357SOL    HW219911  14.728  13.666   8.939
39358SOL     OW19912   5.088  13.082   2.884
39358SOL    HW119913   5.092  12.997   2.929
39358SOL    HW219914   5.126  13.143   2.947
39359SOL     OW19915  11.694   1.500   9.414
39359SOL    HW119916  11.652   1.509   9.328
39359SOL    HW219917  11.631   1.450   9.465
39360SOL     OW19918  13.763   2.184   5.103
39360SOL    HW119919  13.685   2.240   5.099
39360SOL    HW219920  13.734   2.100   5.068
39361SOL     OW19921  10.156   7.835  11.508
39361SOL    HW119922  10.104   7.775  11.455
39361SOL    HW219923  10.093   7.899  11.541
39362SOL     OW19924   0.708   0.476   7.171
39362SOL    HW119925   0.784   0.466   7.113
39362SOL    HW219926   0.737   0.441   7.255
39363SOL     OW19927   7.049  13.687   6.369
39363SOL    HW119928   6.966  13.694   6.416
39363SOL    HW219929   7.058  13.771   6.324
39364SOL     OW19930  13.176   2.387  13.149
39364SOL    HW119931  13.161   2.468  13.101
39364SOL    HW219932  13.157   2.409  13.241
39365SOL     OW19933  14.744   2.092  12.530
39365SOL    HW119934  14.759   2.008  12.488
39365SOL    HW219935  14.747   2.074  12.624
39366SOL     OW19936  11.933   2.714  12.978
39366SOL    HW119937  11.844   2.681  12.963
39366SOL    HW219938  11.965   2.738  12.891
39367SOL     OW19939   0.235  12.343  10.919
39367SOL    HW119940   0.162  12.369  10.864
39367SOL    HW219941   0.234  12.405  10.991
39368SOL     OW19942  13.772   4.311   7.068
39368SOL    HW119943  13.681   4.284   7.081
39368SOL    HW219944  13.773   4.403   7.095
39369SOL     OW19945   7.007   3.380   3.947
39369SOL    HW119946   7.047   3.296   3.969
39369SOL    HW219947   6.992   3.422   4.032
39370SOL     OW19948   0.485   9.314   7.744
39370SOL    HW119949   0.463   9.292   7.653
39370SOL    HW219950   0.401   9.326   7.787
39371SOL     OW19951   5.510   2.277   8.572
39371SOL    HW119952   5.600   2.298   8.546
39371SOL    HW219953   5.468   2.362   8.581
39372SOL     OW19954   3.150   4.159   2.180
39372SOL    HW119955   3.154   4.069   2.146
39372SOL    HW219956   3.072   4.161   2.234
39373SOL     OW19957   3.189   3.259  14.379
39373SOL    HW119958   3.267   3.207  14.399
39373SOL    HW219959   3.117   3.196  14.380
39374SOL     OW19960   2.097   0.691   0.254
39374SOL    HW119961   2.066   0.608   0.219
39374SOL    HW219962   2.184   0.702   0.215
39375SOL     OW19963   6.022  11.141   0.544
39375SOL    HW119964   6.035  11.128   0.450
39375SOL    HW219965   6.073  11.219   0.565
39376SOL     OW19966   0.507   4.088  11.267
39376SOL    HW119967   0.480   4.099  11.358
39376SOL    HW219968   0.476   4.000  11.243
39377SOL     OW19969  13.827   4.524   3.655
39377SOL    HW119970  13.762   4.563   3.596
39377SOL    HW219971  13.778   4.502   3.734
39378SOL     OW19972  10.005   4.184   9.836
39378SOL    HW119973   9.948   4.231   9.896
39378SOL    HW219974  10.093   4.219   9.854
39379SOL     OW19975   4.582   5.415   5.571
39379SOL    HW119976   4.648   5.345   5.577
39379SOL    HW219977   4.536   5.397   5.489
39380SOL     OW19978   1.437  11.460   5.166
39380SOL    HW119979   1.510  11.521   5.155
39380SOL    HW219980   1.479  11.377   5.188
39381SOL     OW19981   0.064  13.750   5.282
39381SOL    HW119982   0.073  13.827   5.339
39381SOL    HW219983  14.873  13.773   5.221
39382SOL     OW19984  12.934  12.941  13.954
39382SOL    HW119985  12.948  12.847  13.949
39382SOL    HW219986  12.891  12.964  13.871
39383SOL     OW19987  14.180   0.414  14.456
39383SOL    HW119988  14.233   0.416  14.535
39383SOL    HW219989  14.234   0.369  14.391
39384SOL     OW19990   4.595   8.607  14.292
39384SOL    HW119991   4.689   8.619  14.300
39384SOL    HW219992   4.563   8.606  14.383
39385SOL     OW19993  10.336   5.611   3.085
39385SOL    HW119994  10.289   5.680   3.038
39385SOL    HW219995  10.271   5.572   3.143
39386SOL     OW19996  10.188   2.586   4.234
39386SOL    HW119997  10.208   2.623   4.148
39386SOL    HW219998  10.252   2.626   4.292
39387SOL     OW19999  12.769  10.152  13.571
39387SOL    HW120000  12.678  10.156  13.541
39387SOL    HW220001  12.819  10.192  13.500
39388SOL     OW20002   4.365   6.175   6.583
39388SOL    HW120003   4.297   6.110   6.603
39388SOL    HW220004   4.440   6.123   6.553
39389SOL     OW20005  11.885   5.065   9.650
39389SOL    HW120006  11.881   4.978   9.611
39389SOL    HW220007  11.921   5.050   9.738
39390SOL     OW20008  14.080   1.646  13.909
39390SOL    HW120009  13.989   1.674  13.902
39390SOL    HW220010  14.117   1.662  13.822
39391SOL     OW20011  12.565   1.018   9.409
39391SOL    HW120012  12.628   1.033   9.480
39391SOL    HW220013  12.479   1.025   9.452
39392SOL     OW20014  10.286  11.774  11.540
39392SOL    HW120015  10.263  11.713  11.610
39392SOL    HW220016  10.290  11.719  11.461
39393SOL     OW20017  13.472  11.868   5.351
39393SOL    HW120018  13.445  11.788   5.395
39393SOL    HW220019  13.407  11.882   5.283
39394SOL     OW20020   0.278  12.428   6.662
39394SOL    HW120021   0.302  12.408   6.572
39394SOL    HW220022   0.212  12.363   6.684
39395SOL     OW20023   9.972  11.414  12.606
39395SOL    HW120024   9.996  11.359  12.532
39395SOL    HW220025  10.003  11.367  12.683
39396SOL     OW20026  10.771  10.037   8.356
39396SOL    HW120027  10.707  10.094   8.398
39396SOL    HW220028  10.758   9.952   8.397
39397SOL     OW20029  11.956   7.301   9.116
39397SOL    HW120030  11.981   7.299   9.024
39397SOL    HW220031  12.032   7.269   9.163
39398SOL     OW20032   2.037   1.979   8.096
39398SOL    HW120033   1.976   1.948   8.163
39398SOL    HW220034   2.087   2.048   8.139
39399SOL     OW20035  11.993   1.410  10.528
39399SOL    HW120036  11.904   1.423  10.494
39399SOL    HW220037  12.015   1.320  10.503
39400SOL     OW20038   8.433   3.074   3.049
39400SOL    HW120039   8.391   3.116   2.974
39400SOL    HW220040   8.447   3.146   3.111
39401SOL     OW20041  13.922  11.866   7.279
39401SOL    HW120042  13.930  11.945   7.333
39401SOL    HW220043  13.854  11.814   7.322
39402SOL     OW20044  10.285  11.503   0.594
39402SOL    HW120045  10.278  11.597   0.610
39402SOL    HW220046  10.359  11.475   0.648
39403SOL     OW20047   1.538  10.434   4.996
39403SOL    HW120048   1.599  10.372   4.956
39403SOL    HW220049   1.572  10.447   5.084
39404SOL     OW20050  14.566   2.003   8.624
39404SOL    HW120051  14.656   2.019   8.597
39404SOL    HW220052  14.568   2.009   8.720
39405SOL     OW20053   8.008   3.363  14.473
39405SOL    HW120054   8.020   3.302  14.546
39405SOL    HW220055   8.085   3.348  14.417
39406SOL     OW20056  14.314   0.816   7.803
39406SOL    HW120057  14.275   0.745   7.751
39406SOL    HW220058  14.390   0.776   7.845
39407SOL     OW20059   0.724   3.775   6.250
39407SOL    HW120060   0.814   3.748   6.231
39407SOL    HW220061   0.672   3.735   6.181
39408SOL     OW20062   6.499   8.347   1.506
39408SOL    HW120063   6.457   8.261   1.502
39408SOL    HW220064   6.464   8.388   1.585
39409SOL     OW20065  13.854  11.053   6.060
39409SOL    HW120066  13.889  11.050   5.971
39409SOL    HW220067  13.925  11.018   6.115
39410SOL     OW20068  14.740  13.050   7.994
39410SOL    HW120069  14.834  13.034   8.002
39410SOL    HW220070  14.733  13.133   7.948
39411SOL     OW20071  10.540   7.266   4.904
39411SOL    HW120072  10.579   7.233   4.823
39411SOL    HW220073  10.492   7.192   4.940
39412SOL     OW20074   4.377  13.809  12.719
39412SOL    HW120075   4.295  13.830  12.674
39412SOL    HW220076   4.366  13.844  12.807
39413SOL     OW20077  12.287   1.073   0.843
39413SOL    HW120078  12.208   1.024   0.820
39413SOL    HW220079  12.342   1.067   0.765
39414SOL     OW20080   7.673   0.156  12.781
39414SOL    HW120081   7.678   0.070  12.822
39414SOL    HW220082   7.760   0.194  12.794
39415SOL     OW20083  10.751  11.872   2.785
39415SOL    HW120084  10.721  11.802   2.844
39415SOL    HW220085  10.702  11.858   2.704
39416SOL     OW20086   9.256   8.101   6.241
39416SOL    HW120087   9.233   8.025   6.295
39416SOL    HW220088   9.343   8.128   6.273
39417SOL     OW20089  14.159   3.189  12.268
39417SOL    HW120090  14.082   3.224  12.224
39417SOL    HW220091  14.201   3.132  12.203
39418SOL     OW20092   4.164  10.574   7.103
39418SOL    HW120093   4.229  10.504   7.104
39418SOL    HW220094   4.086  10.534   7.141
39419SOL     OW20095   0.398   3.020   8.556
39419SOL    HW120096   0.389   3.022   8.461
39419SOL    HW220097   0.361   3.103   8.585
39420SOL     OW20098   9.915  14.081  10.616
39420SOL    HW120099   9.837  14.123  10.653
39420SOL    HW220100   9.930  14.005  10.673
39421SOL     OW20101  11.672   1.963  10.929
39421SOL    HW120102  11.623   1.894  10.973
39421SOL    HW220103  11.690   2.027  10.998
39422SOL     OW20104   2.683   8.919   5.315
39422SOL    HW120105   2.589   8.916   5.332
39422SOL    HW220106   2.690   8.940   5.222
39423SOL     OW20107  13.667   8.788   2.907
39423SOL    HW120108  13.711   8.764   2.825
39423SOL    HW220109  13.599   8.722   2.917
39424SOL     OW20110  14.216   1.758   0.282
39424SOL    HW120111  14.189   1.817   0.212
39424SOL    HW220112  14.249   1.815   0.351
39425SOL     OW20113  12.510   5.446   1.830
39425SOL    HW120114  12.505   5.389   1.754
39425SOL    HW220115  12.431   5.500   1.825
39426SOL     OW20116   9.781   4.434   9.469
39426SOL    HW120117   9.730   4.432   9.550
39426SOL    HW220118   9.806   4.343   9.453
39427SOL     OW20119  13.783   8.628  10.623
39427SOL    HW120120  13.698   8.669  10.604
39427SOL    HW220121  13.773   8.538  10.592
39428SOL     OW20122   7.364   0.496   3.515
39428SOL    HW120123   7.389   0.535   3.599
39428SOL    HW220124   7.272   0.518   3.504
39429SOL     OW20125   0.539   0.191  13.279
39429SOL    HW120126   0.631   0.218  13.277
39429SOL    HW220127   0.520   0.163  13.190
39430SOL     OW20128   9.466  13.528   3.107
39430SOL    HW120129   9.470  13.602   3.046
39430SOL    HW220130   9.476  13.567   3.193
39431SOL     OW20131   4.618  10.480   3.775
39431SOL    HW120132   4.637  10.459   3.866
39431SOL    HW220133   4.693  10.531   3.745
39432SOL     OW20134   8.073  14.159   0.210
39432SOL    HW120135   8.116  14.117   0.284
39432SOL    HW220136   8.118  14.124   0.133
39433SOL     OW20137  13.240  11.985   3.819
39433SOL    HW120138  13.195  11.933   3.753
39433SOL    HW220139  13.215  11.946   3.902
39434SOL     OW20140   3.944   6.765   8.214
39434SOL    HW120141   3.865   6.715   8.194
39434SOL    HW220142   3.914   6.856   8.218
39435SOL     OW20143   6.433  12.999   1.274
39435SOL    HW120144   6.479  13.067   1.224
39435SOL    HW220145   6.489  12.922   1.266
39436SOL     OW20146  12.085   0.084   7.416
39436SOL    HW120147  12.095   0.132   7.498
39436SOL    HW220148  12.144   0.009   7.424
39437SOL     OW20149  13.544  14.113   0.940
39437SOL    HW120150  13.553  14.124   0.846
39437SOL    HW220151  13.466  14.165   0.962
39438SOL     OW20152   5.766   3.544  14.367
39438SOL    HW120153   5.828   3.567  14.298
39438SOL    HW220154   5.720   3.467  14.334
39439SOL     OW20155   0.238  10.124  14.842
39439SOL    HW120156   0.147  10.147  14.822
39439SOL    HW220157   0.274  10.202   0.003
39440SOL     OW20158  14.441   1.124   7.879
39440SOL    HW120159  14.466   1.204   7.834
39440SOL    HW220160  14.407   1.067   7.811
39441SOL     OW20161   6.606   3.415   6.110
39441SOL    HW120162   6.647   3.501   6.105
39441SOL    HW220163   6.592   3.400   6.204
39442SOL     OW20164   3.171  12.010   2.498
39442SOL    HW120165   3.181  12.086   2.556
39442SOL    HW220166   3.076  11.997   2.493
39443SOL     OW20167   5.118  14.499   8.760
39443SOL    HW120168   5.094  14.592   8.766
39443SOL    HW220169   5.084  14.460   8.840
39444SOL     OW20170   6.380   8.442  12.326
39444SOL    HW120171   6.433   8.390  12.266
39444SOL    HW220172   6.392   8.532  12.297
39445SOL     OW20173  14.675   3.045   3.277
39445SOL    HW120174  14.633   3.130   3.284
39445SOL    HW220175  14.672   3.025   3.183
39446SOL     OW20176  13.506  12.214  11.652
39446SOL    HW120177  13.441  12.178  11.591
39446SOL    HW220178  13.527  12.300  11.617
39447SOL     OW20179   4.629  12.721   2.961
39447SOL    HW120180   4.622  12.684   2.872
39447SOL    HW220181   4.722  12.717   2.981
39448SOL     OW20182  12.803   1.643  13.831
39448SOL    HW120183  12.794   1.714  13.894
39448SOL    HW220184  12.713   1.616  13.811
39449SOL     OW20185   1.203   5.893   6.100
39449SOL    HW120186   1.149   5.850   6.166
39449SOL    HW220187   1.292   5.890   6.136
39450SOL     OW20188   3.632  12.332  11.144
39450SOL    HW120189   3.723  12.343  11.116
39450SOL    HW220190   3.622  12.392  11.218
39451SOL     OW20191  14.825   1.556   3.109
39451SOL    HW120192   0.027   1.554   3.160
39451SOL    HW220193  14.757   1.535   3.172
39452SOL     OW20194   0.384   2.246  10.638
39452SOL    HW120195   0.457   2.219  10.694
39452SOL    HW220196   0.309   2.196  10.671
39453SOL     OW20197   1.559  10.383   3.309
39453SOL    HW120198   1.566  10.463   3.258
39453SOL    HW220199   1.502  10.326   3.258
39454SOL     OW20200   9.467   5.394   0.266
39454SOL    HW120201   9.425   5.389   0.352
39454SOL    HW220202   9.461   5.305   0.231
39455SOL     OW20203   4.250   6.815  12.788
39455SOL    HW120204   4.330   6.861  12.759
39455SOL    HW220205   4.260   6.726  12.754
39456SOL     OW20206  10.387   6.473   6.430
39456SOL    HW120207  10.441   6.549   6.452
39456SOL    HW220208  10.418   6.446   6.343
39457SOL     OW20209   8.432   9.229   9.156
39457SOL    HW120210   8.401   9.148   9.115
39457SOL    HW220211   8.528   9.225   9.147
39458SOL     OW20212  11.239   7.391   3.613
39458SOL    HW120213  11.324   7.422   3.644
39458SOL    HW220214  11.238   7.298   3.638
39459SOL     OW20215   6.168   2.861   7.680
39459SOL    HW120216   6.116   2.934   7.647
39459SOL    HW220217   6.127   2.838   7.763
39460SOL     OW20218   0.254  13.025   5.889
39460SOL    HW120219   0.174  13.078   5.893
39460SOL    HW220220   0.289  13.027   5.978
39461SOL     OW20221   9.819   0.667   4.582
39461SOL    HW120222   9.789   0.732   4.645
39461SOL    HW220223   9.912   0.655   4.602
39462SOL     OW20224   1.515  12.293  12.075
39462SOL    HW120225   1.484  12.253  12.156
39462SOL    HW220226   1.501  12.226  12.008
39463SOL     OW20227  11.503   7.501   1.813
39463SOL    HW120228  11.535   7.580   1.856
39463SOL    HW220229  11.519   7.516   1.720
39464SOL     OW20230  11.648  13.674  10.373
39464SOL    HW120231  11.617  13.613  10.439
39464SOL    HW220232  11.721  13.720  10.416
39465SOL     OW20233   4.992  12.364   4.907
39465SOL    HW120234   4.923  12.299   4.894
39465SOL    HW220235   4.946  12.443   4.935
39466SOL     OW20236  13.986  11.709   0.829
39466SOL    HW120237  14.052  11.644   0.804
39466SOL    HW220238  13.938  11.669   0.902
39467SOL     OW20239   1.642   4.597   0.621
39467SOL    HW120240   1.614   4.673   0.570
39467SOL    HW220241   1.562   4.549   0.639
39468SOL     OW20242  14.766  12.903  11.796
39468SOL    HW120243  14.781  12.997  11.782
39468SOL    HW220244  14.734  12.897  11.886
39469SOL     OW20245   0.171  12.465   9.065
39469SOL    HW120246   0.236  12.523   9.024
39469SOL    HW220247   0.098  12.464   9.002
39470SOL     OW20248   4.121  11.108   7.738
39470SOL    HW120249   4.163  11.078   7.818
39470SOL    HW220250   4.141  11.040   7.674
39471SOL     OW20251   3.920   8.377   4.498
39471SOL    HW120252   3.864   8.451   4.521
39471SOL    HW220253   3.958   8.402   4.413
39472SOL     OW20254   1.984   7.346  10.742
39472SOL    HW120255   1.967   7.434  10.709
39472SOL    HW220256   1.952   7.288  10.673
39473SOL     OW20257  11.006   4.892  14.871
39473SOL    HW120258  11.042   4.806  14.851
39473SOL    HW220259  10.925   4.897  14.820
39474SOL     OW20260  13.653   7.896   1.698
39474SOL    HW120261  13.710   7.837   1.747
39474SOL    HW220262  13.637   7.969   1.758
39475SOL     OW20263   2.234  11.457   9.473
39475SOL    HW120264   2.236  11.481   9.565
39475SOL    HW220265   2.154  11.405   9.463
39476SOL     OW20266  14.786   8.661   7.785
39476SOL    HW120267  14.753   8.736   7.735
39476SOL    HW220268  14.719   8.593   7.774
39477SOL     OW20269  14.610   0.095  12.452
39477SOL    HW120270  14.637   0.110  12.543
39477SOL    HW220271  14.692   0.092  12.403
39478SOL     OW20272   5.294   9.754   2.915
39478SOL    HW120273   5.361   9.686   2.921
39478SOL    HW220274   5.219   9.717   2.963
39479SOL     OW20275  13.837   7.832   3.644
39479SOL    HW120276  13.903   7.774   3.606
39479SOL    HW220277  13.826   7.800   3.733
39480SOL     OW20278  14.731   8.262   4.101
39480SOL    HW120279  14.785   8.254   4.180
39480SOL    HW220280  14.642   8.245   4.132
39481SOL     OW20281   6.528   8.588   6.632
39481SOL    HW120282   6.448   8.622   6.593
39481SOL    HW220283   6.535   8.631   6.717
39482SOL     OW20284  12.711   4.669   8.640
39482SOL    HW120285  12.637   4.613   8.617
39482SOL    HW220286  12.686   4.757   8.612
39483SOL     OW20287   4.355   8.969   1.521
39483SOL    HW120288   4.335   9.042   1.462
39483SOL    HW220289   4.415   8.914   1.470
39484SOL     OW20290  11.125  10.392   3.870
39484SOL    HW120291  11.098  10.472   3.823
39484SOL    HW220292  11.204  10.417   3.916
39485SOL     OW20293  12.830   6.565  10.686
39485SOL    HW120294  12.760   6.530  10.741
39485SOL    HW220295  12.815   6.528  10.599
39486SOL     OW20296   2.439   5.187  13.018
39486SOL    HW120297   2.473   5.099  13.025
39486SOL    HW220298   2.452   5.226  13.105
39487SOL     OW20299   2.261   4.942   3.600
39487SOL    HW120300   2.310   4.944   3.682
39487SOL    HW220301   2.251   4.849   3.580
39488SOL     OW20302  13.209   2.574   9.768
39488SOL    HW120303  13.144   2.561   9.698
39488SOL    HW220304  13.276   2.508   9.751
39489SOL     OW20305   1.674   3.630   2.250
39489SOL    HW120306   1.748   3.582   2.214
39489SOL    HW220307   1.664   3.595   2.339
39490SOL     OW20308   3.158   1.174   8.938
39490SOL    HW120309   3.179   1.219   9.020
39490SOL    HW220310   3.065   1.188   8.926
39491SOL     OW20311   2.149   0.272   4.993
39491SOL    HW120312   2.116   0.202   5.049
39491SOL    HW220313   2.226   0.236   4.951
39492SOL     OW20314   0.741   8.294   8.578
39492SOL    HW120315   0.775   8.205   8.570
39492SOL    HW220316   0.733   8.308   8.673
39493SOL     OW20317  12.835   7.835  14.482
39493SOL    HW120318  12.908   7.793  14.437
39493SOL    HW220319  12.757   7.795  14.445
39494SOL     OW20320  13.699   8.761   3.698
39494SOL    HW120321  13.629   8.700   3.720
39494SOL    HW220322  13.720   8.742   3.606
39495SOL     OW20323  11.556   5.879   8.558
39495SOL    HW120324  11.625   5.926   8.513
39495SOL    HW220325  11.509   5.833   8.489
39496SOL     OW20326  13.598   5.217  14.311
39496SOL    HW120327  13.541   5.202  14.235
39496SOL    HW220328  13.636   5.132  14.329
39497SOL     OW20329  10.749  10.373   2.132
39497SOL    HW120330  10.770  10.460   2.100
39497SOL    HW220331  10.666  10.351   2.091
39498SOL     OW20332   1.466   5.323   4.556
39498SOL    HW120333   1.404   5.318   4.483
39498SOL    HW220334   1.493   5.415   4.558
39499SOL     OW20335   9.454   7.997   4.852
39499SOL    HW120336   9.499   7.913   4.845
39499SOL    HW220337   9.386   7.993   4.784
39500SOL     OW20338  11.968  13.792   5.286
39500SOL    HW120339  12.026  13.865   5.311
39500SOL    HW220340  12.028  13.724   5.255
39501SOL     OW20341  10.441   7.693  13.522
39501SOL    HW120342  10.349   7.677  13.542
39501SOL    HW220343  10.448   7.676  13.428
39502SOL     OW20344   2.505  12.579   6.576
39502SOL    HW120345   2.589  12.535   6.590
39502SOL    HW220346   2.508  12.609   6.486
39503SOL     OW20347  12.418   6.850   2.920
39503SOL    HW120348  12.419   6.916   2.989
39503SOL    HW220349  12.480   6.883   2.855
39504SOL     OW20350   2.967  13.663   5.248
39504SOL    HW120351   2.893  13.723   5.253
39504SOL    HW220352   2.993  13.648   5.339
39505SOL     OW20353   2.649   9.720  11.631
39505SOL    HW120354   2.668   9.793  11.572
39505SOL    HW220355   2.699   9.740  11.710
39506SOL     OW20356   3.280   2.383  13.421
39506SOL    HW120357   3.268   2.352  13.331
39506SOL    HW220358   3.255   2.475  13.417
39507SOL     OW20359  12.728   4.469  10.168
39507SOL    HW120360  12.724   4.405  10.238
39507SOL    HW220361  12.821   4.485  10.154
39508SOL     OW20362  13.752  13.505   7.032
39508SOL    HW120363  13.704  13.584   7.010
39508SOL    HW220364  13.685  13.442   7.058
39509SOL     OW20365   8.483   1.930  11.882
39509SOL    HW120366   8.555   1.963  11.936
39509SOL    HW220367   8.437   1.868  11.939
39510SOL     OW20368   2.768   3.091   0.952
39510SOL    HW120369   2.853   3.116   0.989
39510SOL    HW220370   2.754   3.002   0.984
39511SOL     OW20371   2.082   5.318   9.808
39511SOL    HW120372   2.169   5.292   9.777
39511SOL    HW220373   2.083   5.297   9.902
39512SOL     OW20374   6.409   6.064   0.926
39512SOL    HW120375   6.343   6.027   0.867
39512SOL    HW220376   6.492   6.049   0.882
39513SOL     OW20377   2.365   8.020   0.277
39513SOL    HW120378   2.339   8.075   0.351
39513SOL    HW220379   2.446   8.060   0.246
39514SOL     OW20380   2.178   4.672   7.855
39514SOL    HW120381   2.166   4.649   7.947
39514SOL    HW220382   2.089   4.670   7.819
39515SOL     OW20383  12.984   2.486   3.197
39515SOL    HW120384  12.903   2.480   3.248
39515SOL    HW220385  13.053   2.494   3.262
39516SOL     OW20386  11.967   2.132  11.289
39516SOL    HW120387  11.976   2.038  11.306
39516SOL    HW220388  12.057   2.165  11.284
39517SOL     OW20389   6.940   4.880   5.746
39517SOL    HW120390   6.847   4.880   5.724
39517SOL    HW220391   6.948   4.938   5.821
39518SOL     OW20392   3.860  12.894  11.080
39518SOL    HW120393   3.828  12.944  11.005
39518SOL    HW220394   3.906  12.958  11.134
39519SOL     OW20395  13.353  11.850  10.312
39519SOL    HW120396  13.291  11.807  10.371
39519SOL    HW220397  13.387  11.923  10.363
39520SOL     OW20398  10.987  10.386   1.822
39520SOL    HW120399  10.893  10.368   1.826
39520SOL    HW220400  10.995  10.478   1.844
39521SOL     OW20401   8.311   6.853   4.786
39521SOL    HW120402   8.285   6.940   4.757
39521SOL    HW220403   8.398   6.865   4.824
39522SOL     OW20404   8.122  11.427   7.582
39522SOL    HW120405   8.143  11.500   7.641
39522SOL    HW220406   8.036  11.449   7.546
39523SOL     OW20407  12.355   3.755   5.304
39523SOL    HW120408  12.297   3.693   5.259
39523SOL    HW220409  12.326   3.755   5.395
39524SOL     OW20410   2.002   6.981   4.444
39524SOL    HW120411   1.999   7.022   4.530
39524SOL    HW220412   2.033   7.050   4.385
39525SOL     OW20413   6.508   2.117  12.888
39525SOL    HW120414   6.432   2.071  12.923
39525SOL    HW220415   6.584   2.066  12.919
39526SOL     OW20416   0.065   6.209  10.024
39526SOL    HW120417   0.071   6.181   9.933
39526SOL    HW220418   0.018   6.138  10.068
39527SOL     OW20419  13.691   5.670   5.229
39527SOL    HW120420  13.669   5.680   5.322
39527SOL    HW220421  13.774   5.717   5.219
39528SOL     OW20422  13.544   2.863   2.637
39528SOL    HW120423  13.533   2.878   2.543
39528SOL    HW220424  13.469   2.907   2.676
39529SOL     OW20425   8.340  12.531   0.748
39529SOL    HW120426   8.422  12.484   0.730
39529SOL    HW220427   8.349  12.560   0.839
39530SOL     OW20428   3.168   7.313   7.330
39530SOL    HW120429   3.250   7.282   7.292
39530SOL    HW220430   3.181   7.407   7.341
39531SOL     OW20431  12.919  11.298   1.242
39531SOL    HW120432  12.858  11.295   1.316
39531SOL    HW220433  12.945  11.207   1.228
39532SOL     OW20434   4.724  13.943   9.418
39532SOL    HW120435   4.682  13.925   9.502
39532SOL    HW220436   4.801  13.997   9.441
39533SOL     OW20437   1.777  13.347   1.971
39533SOL    HW120438   1.681  13.350   1.975
39533SOL    HW220439   1.805  13.432   2.005
39534SOL     OW20440  14.622   7.553   5.394
39534SOL    HW120441  14.590   7.543   5.483
39534SOL    HW220442  14.641   7.464   5.364
39535SOL     OW20443   2.505   0.936   6.977
39535SOL    HW120444   2.574   0.934   7.044
39535SOL    HW220445   2.552   0.956   6.896
39536SOL     OW20446  14.114  11.945  14.485
39536SOL    HW120447  14.114  11.927  14.391
39536SOL    HW220448  14.205  11.964  14.507
39537SOL     OW20449   1.507   0.477   8.289
39537SOL    HW120450   1.537   0.505   8.202
39537SOL    HW220451   1.412   0.483   8.284
39538SOL     OW20452  13.508   3.427   5.572
39538SOL    HW120453  13.521   3.332   5.579
39538SOL    HW220454  13.575   3.464   5.629
39539SOL     OW20455  13.834   5.428  14.055
39539SOL    HW120456  13.808   5.432  13.963
39539SOL    HW220457  13.780   5.494  14.098
39540SOL     OW20458  13.935   8.384  10.375
39540SOL    HW120459  13.967   8.473  10.354
39540SOL    HW220460  13.972   8.365  10.461
39541SOL     OW20461   8.633   0.671  11.625
39541SOL    HW120462   8.609   0.760  11.651
39541SOL    HW220463   8.646   0.676  11.530
39542SOL     OW20464  11.213  13.797   7.751
39542SOL    HW120465  11.243  13.831   7.666
39542SOL    HW220466  11.282  13.735   7.777
39543SOL     OW20467   9.739   4.187   4.513
39543SOL    HW120468   9.822   4.234   4.505
39543SOL    HW220469   9.688   4.238   4.577
39544SOL     OW20470   6.542   8.866   1.262
39544SOL    HW120471   6.606   8.842   1.328
39544SOL    HW220472   6.522   8.784   1.217
39545SOL     OW20473  13.041  10.616  14.803
39545SOL    HW120474  13.011  10.706  14.817
39545SOL    HW220475  13.078  10.589   0.008
39546SOL     OW20476   8.607   1.054  11.592
39546SOL    HW120477   8.678   1.089  11.538
39546SOL    HW220478   8.532   1.050  11.533
39547SOL     OW20479   8.818   8.516   6.254
39547SOL    HW120480   8.814   8.586   6.189
39547SOL    HW220481   8.911   8.502   6.268
39548SOL     OW20482   8.073  12.792   9.281
39548SOL    HW120483   8.148  12.739   9.308
39548SOL    HW220484   8.063  12.856   9.352
39549SOL     OW20485   8.114   9.615   3.700
39549SOL    HW120486   8.102   9.545   3.764
39549SOL    HW220487   8.028   9.626   3.660
39550SOL     OW20488  12.712   7.442  11.969
39550SOL    HW120489  12.725   7.535  11.991
39550SOL    HW220490  12.741   7.435  11.878
39551SOL     OW20491   9.506  14.542   6.614
39551SOL    HW120492   9.439  14.587   6.666
39551SOL    HW220493   9.561  14.498   6.678
39552SOL     OW20494   2.273   0.795   6.884
39552SOL    HW120495   2.232   0.822   6.966
39552SOL    HW220496   2.366   0.815   6.896
39553SOL     OW20497   5.085   7.220  12.724
39553SOL    HW120498   5.146   7.164  12.772
39553SOL    HW220499   5.054   7.283  12.789
39554SOL     OW20500   1.508   6.434   5.090
39554SOL    HW120501   1.517   6.416   4.996
39554SOL    HW220502   1.594   6.465   5.116
39555SOL     OW20503   4.285  13.436   2.736
39555SOL    HW120504   4.335  13.479   2.805
39555SOL    HW220505   4.194  13.453   2.758
39556SOL     OW20506  12.888  10.208   7.309
39556SOL    HW120507  12.883  10.255   7.393
39556SOL    HW220508  12.971  10.159   7.314
39557SOL     OW20509   2.188   1.131   9.959
39557SOL    HW120510   2.270   1.180   9.964
39557SOL    HW220511   2.194   1.084   9.876
39558SOL     OW20512   5.278   1.641   2.596
39558SOL    HW120513   5.254   1.636   2.504
39558SOL    HW220514   5.341   1.570   2.609
39559SOL     OW20515   2.544  14.631   2.336
39559SOL    HW120516   2.612  14.571   2.365
39559SOL    HW220517   2.585  14.682   2.266
39560SOL     OW20518  12.429   2.461   9.928
39560SOL    HW120519  12.427   2.424  10.016
39560SOL    HW220520  12.349   2.513   9.921
39561SOL     OW20521  13.747  13.517   4.807
39561SOL    HW120522  13.713  13.564   4.884
39561SOL    HW220523  13.790  13.440   4.844
39562SOL     OW20524  12.089   5.444  13.032
39562SOL    HW120525  12.183   5.451  13.014
39562SOL    HW220526  12.068   5.524  13.080
39563SOL     OW20527   2.829   3.951  12.978
39563SOL    HW120528   2.882   4.019  12.937
39563SOL    HW220529   2.789   3.994  13.054
39564SOL     OW20530   6.041   0.741   0.576
39564SOL    HW120531   6.013   0.694   0.655
39564SOL    HW220532   6.103   0.682   0.534
39565SOL     OW20533   6.724   8.020   0.592
39565SOL    HW120534   6.668   8.098   0.596
39565SOL    HW220535   6.779   8.027   0.670
39566SOL     OW20536   3.025   7.862  13.503
39566SOL    HW120537   2.934   7.854  13.531
39566SOL    HW220538   3.076   7.827  13.576
39567SOL     OW20539   4.086   3.945   9.533
39567SOL    HW120540   4.180   3.961   9.521
39567SOL    HW220541   4.047   4.033   9.535
39568SOL     OW20542   9.475   5.848   7.013
39568SOL    HW120543   9.526   5.863   7.093
39568SOL    HW220544   9.537   5.865   6.942
39569SOL     OW20545  14.334   4.214   5.672
39569SOL    HW120546  14.255   4.199   5.620
39569SOL    HW220547  14.367   4.126   5.692
39570SOL     OW20548   9.116   5.914   0.047
39570SOL    HW120549   9.115   5.905   0.142
39570SOL    HW220550   9.058   5.845   0.016
39571SOL     OW20551  13.056  11.013   6.658
39571SOL    HW120552  13.014  11.071   6.722
39571SOL    HW220553  12.990  11.002   6.589
39572SOL     OW20554   0.798   1.275   6.467
39572SOL    HW120555   0.792   1.248   6.376
39572SOL    HW220556   0.711   1.311   6.487
39573SOL     OW20557   7.276  13.140  11.251
39573SOL    HW120558   7.213  13.106  11.187
39573SOL    HW220559   7.360  13.104  11.223
39574SOL     OW20560   5.033   8.057   9.617
39574SOL    HW120561   5.088   8.030   9.691
39574SOL    HW220562   4.961   8.106   9.657
39575SOL     OW20563   2.335   3.431   7.884
39575SOL    HW120564   2.370   3.448   7.796
39575SOL    HW220565   2.244   3.407   7.870
39576SOL     OW20566  12.396  10.073   7.619
39576SOL    HW120567  12.349  10.083   7.536
39576SOL    HW220568  12.360   9.994   7.658
39577SOL     OW20569   4.350   0.761   5.719
39577SOL    HW120570   4.444   0.771   5.707
39577SOL    HW220571   4.312   0.784   5.635
39578SOL     OW20572   3.842  12.909   5.183
39578SOL    HW120573   3.889  12.911   5.100
39578SOL    HW220574   3.765  12.855   5.166
39579SOL     OW20575   6.130   2.923   3.515
39579SOL    HW120576   6.219   2.889   3.518
39579SOL    HW220577   6.138   3.010   3.475
39580SOL     OW20578   9.768  11.355   7.633
39580SOL    HW120579   9.815  11.402   7.564
39580SOL    HW220580   9.676  11.367   7.612
39581SOL     OW20581  13.888   3.001   0.518
39581SOL    HW120582  13.852   3.005   0.429
39581SOL    HW220583  13.835   3.062   0.568
39582SOL     OW20584  10.620   6.648   8.152
39582SOL    HW120585  10.582   6.599   8.226
39582SOL    HW220586  10.714   6.639   8.164
39583SOL     OW20587   1.931   9.213   8.815
39583SOL    HW120588   1.911   9.123   8.789
39583SOL    HW220589   1.970   9.204   8.902
39584SOL     OW20590  12.352   2.946   1.143
39584SOL    HW120591  12.427   2.965   1.086
39584SOL    HW220592  12.322   2.860   1.116
39585SOL     OW20593   9.198  11.428   9.744
39585SOL    HW120594   9.189  11.463   9.833
39585SOL    HW220595   9.288  11.451   9.718
39586SOL     OW20596   6.958   8.896   9.532
39586SOL    HW120597   7.009   8.815   9.533
39586SOL    HW220598   7.010   8.956   9.478
39587SOL     OW20599   8.975  11.843  14.013
39587SOL    HW120600   9.012  11.808  13.932
39587SOL    HW220601   8.885  11.810  14.014
39588SOL     OW20602   4.000   7.152  11.285
39588SOL    HW120603   4.025   7.191  11.369
39588SOL    HW220604   3.975   7.063  11.308
39589SOL     OW20605   1.481   0.014   8.274
39589SOL    HW120606   1.573   0.009   8.250
39589SOL    HW220607   1.480  14.876   8.368
39590SOL     OW20608   9.538   1.693   3.882
39590SOL    HW120609   9.533   1.646   3.799
39590SOL    HW220610   9.631   1.702   3.900
39591SOL     OW20611   6.453   3.194   1.448
39591SOL    HW120612   6.369   3.221   1.411
39591SOL    HW220613   6.433   3.115   1.499
39592SOL     OW20614  11.979   9.634   4.824
39592SOL    HW120615  12.045   9.593   4.880
39592SOL    HW220616  11.989   9.728   4.840
39593SOL     OW20617  12.912   9.738   8.666
39593SOL    HW120618  12.908   9.799   8.740
39593SOL    HW220619  12.891   9.653   8.703
39594SOL     OW20620   2.994  11.926   6.905
39594SOL    HW120621   3.061  11.884   6.851
39594SOL    HW220622   2.968  11.858   6.967
39595SOL     OW20623  12.334   6.709   9.875
39595SOL    HW120624  12.254   6.684   9.829
39595SOL    HW220625  12.373   6.627   9.903
39596SOL     OW20626   6.907  12.739   4.358
39596SOL    HW120627   6.963  12.816   4.347
39596SOL    HW220628   6.952  12.670   4.310
39597SOL     OW20629  10.947  13.207   7.304
39597SOL    HW120630  11.015  13.250   7.252
39597SOL    HW220631  10.911  13.277   7.358
39598SOL     OW20632   5.188   7.048  11.034
39598SOL    HW120633   5.122   6.987  11.067
39598SOL    HW220634   5.138   7.123  11.002
39599SOL     OW20635   2.508  12.631   0.722
39599SOL    HW120636   2.598  12.653   0.698
39599SOL    HW220637   2.500  12.537   0.703
39600SOL     OW20638   7.578   8.286  10.740
39600SOL    HW120639   7.668   8.319  10.750
39600SOL    HW220640   7.537   8.304  10.824
39601SOL     OW20641   3.905   1.087   6.244
39601SOL    HW120642   3.859   1.094   6.328
39601SOL    HW220643   3.847   1.130   6.181
39602SOL     OW20644   6.994  14.538   9.810
39602SOL    HW120645   6.927  14.599   9.840
39602SOL    HW220646   7.035  14.505   9.890
39603SOL     OW20647   1.306  10.785   8.437
39603SOL    HW120648   1.238  10.727   8.470
39603SOL    HW220649   1.313  10.855   8.502
39604SOL     OW20650  14.701   0.861   5.762
39604SOL    HW120651  14.794   0.858   5.782
39604SOL    HW220652  14.675   0.951   5.784
39605SOL     OW20653   1.451  14.313   2.521
39605SOL    HW120654   1.361  14.306   2.553
39605SOL    HW220655   1.469  14.228   2.482
39606SOL     OW20656  12.670  11.176   5.146
39606SOL    HW120657  12.701  11.265   5.163
39606SOL    HW220658  12.643  11.177   5.055
39607SOL     OW20659  10.280   8.683   2.191
39607SOL    HW120660  10.333   8.728   2.258
39607SOL    HW220661  10.313   8.717   2.108
39608SOL     OW20662   3.221   7.965   7.487
39608SOL    HW120663   3.179   7.881   7.503
39608SOL    HW220664   3.213   7.979   7.393
39609SOL     OW20665  10.168  12.526  10.694
39609SOL    HW120666  10.223  12.564  10.762
39609SOL    HW220667  10.230  12.493  10.628
39610SOL     OW20668   8.918   1.035   8.044
39610SOL    HW120669   8.876   0.952   8.022
39610SOL    HW220670   8.994   1.010   8.096
39611SOL     OW20671   9.993  11.112   7.449
39611SOL    HW120672  10.022  11.201   7.469
39611SOL    HW220673   9.952  11.118   7.363
39612SOL     OW20674  10.440  11.249  12.401
39612SOL    HW120675  10.409  11.250  12.492
39612SOL    HW220676  10.455  11.342  12.381
39613SOL     OW20677  14.061   9.527   6.516
39613SOL    HW120678  13.984   9.572   6.549
39613SOL    HW220679  14.107   9.592   6.463
39614SOL     OW20680   0.290   9.967   8.928
39614SOL    HW120681   0.230  10.032   8.963
39614SOL    HW220682   0.377   9.996   8.957
39615SOL     OW20683  10.150   8.348  13.606
39615SOL    HW120684  10.181   8.321  13.519
39615SOL    HW220685  10.094   8.425  13.588
39616SOL     OW20686  10.135   3.829  10.397
39616SOL    HW120687  10.101   3.842  10.308
39616SOL    HW220688  10.060   3.849  10.454
39617SOL     OW20689   5.204   2.967  10.061
39617SOL    HW120690   5.205   3.017  10.142
39617SOL    HW220691   5.135   2.902  10.073
39618SOL     OW20692   6.701   1.378   3.571
39618SOL    HW120693   6.678   1.449   3.511
39618SOL    HW220694   6.618   1.335   3.591
39619SOL     OW20695   5.978  12.840   8.882
39619SOL    HW120696   6.048  12.871   8.939
39619SOL    HW220697   6.021  12.776   8.825
39620SOL     OW20698   5.589  11.230  10.547
39620SOL    HW120699   5.501  11.193  10.549
39620SOL    HW220700   5.640  11.168  10.495
39621SOL     OW20701   6.213   5.942   0.178
39621SOL    HW120702   6.214   5.847   0.181
39621SOL    HW220703   6.265   5.964   0.101
39622SOL     OW20704   7.227   4.003  12.754
39622SOL    HW120705   7.185   4.074  12.803
39622SOL    HW220706   7.299   3.974  12.811
39623SOL     OW20707  12.693   5.300   2.677
39623SOL    HW120708  12.764   5.269   2.733
39623SOL    HW220709  12.645   5.221   2.653
39624SOL     OW20710  11.407  11.446   6.401
39624SOL    HW120711  11.323  11.419   6.364
39624SOL    HW220712  11.450  11.364   6.427
39625SOL     OW20713   5.968   1.891  10.513
39625SOL    HW120714   5.894   1.952  10.509
39625SOL    HW220715   5.999   1.898  10.604
39626SOL     OW20716   0.351  14.340  14.601
39626SOL    HW120717   0.410  14.264  14.601
39626SOL    HW220718   0.304  14.333  14.684
39627SOL     OW20719   3.930   0.015   6.924
39627SOL    HW120720   3.991   0.074   6.967
39627SOL    HW220721   3.882  14.853   6.995
39628SOL     OW20722   2.591  14.879   5.396
39628SOL    HW120723   2.670   0.041   5.430
39628SOL    HW220724   2.551   0.066   5.340
39629SOL     OW20725   7.736   1.968  10.052
39629SOL    HW120726   7.681   1.939   9.979
39629SOL    HW220727   7.762   1.887  10.096
39630SOL     OW20728   2.362  12.859   4.642
39630SOL    HW120729   2.401  12.851   4.729
39630SOL    HW220730   2.346  12.953   4.631
39631SOL     OW20731   6.094   9.481   9.260
39631SOL    HW120732   6.154   9.500   9.332
39631SOL    HW220733   6.144   9.503   9.181
39632SOL     OW20734   1.382   3.796   7.626
39632SOL    HW120735   1.476   3.789   7.642
39632SOL    HW220736   1.346   3.832   7.707
39633SOL     OW20737   1.234   2.710   9.317
39633SOL    HW120738   1.162   2.773   9.316
39633SOL    HW220739   1.257   2.699   9.225
39634SOL     OW20740   5.468   2.771   2.523
39634SOL    HW120741   5.470   2.821   2.441
39634SOL    HW220742   5.559   2.769   2.552
39635SOL     OW20743   8.087   9.332   1.814
39635SOL    HW120744   7.996   9.304   1.826
39635SOL    HW220745   8.129   9.312   1.897
39636SOL     OW20746   9.467   5.292   7.694
39636SOL    HW120747   9.419   5.330   7.621
39636SOL    HW220748   9.409   5.225   7.730
39637SOL     OW20749   6.392  11.350   8.692
39637SOL    HW120750   6.472  11.392   8.724
39637SOL    HW220751   6.421  11.291   8.623
39638SOL     OW20752   2.351   4.221   5.375
39638SOL    HW120753   2.374   4.290   5.313
39638SOL    HW220754   2.303   4.266   5.445
39639SOL     OW20755  11.479  14.106  11.501
39639SOL    HW120756  11.492  14.127  11.593
39639SOL    HW220757  11.439  14.020  11.502
39640SOL     OW20758   0.791  14.078   3.329
39640SOL    HW120759   0.807  13.986   3.309
39640SOL    HW220760   0.702  14.080   3.363
39641SOL     OW20761   6.286   4.786   6.309
39641SOL    HW120762   6.338   4.823   6.237
39641SOL    HW220763   6.282   4.857   6.374
39642SOL     OW20764  12.005   8.843   4.482
39642SOL    HW120765  11.991   8.782   4.554
39642SOL    HW220766  11.969   8.926   4.515
39643SOL     OW20767   9.312   2.070   3.969
39643SOL    HW120768   9.407   2.083   3.965
39643SOL    HW220769   9.299   1.980   3.939
39644SOL     OW20770   6.155  12.316  13.279
39644SOL    HW120771   6.247  12.332  13.299
39644SOL    HW220772   6.152  12.314  13.183
39645SOL     OW20773   4.209   2.388  14.359
39645SOL    HW120774   4.242   2.317  14.304
39645SOL    HW220775   4.189   2.458  14.298
39646SOL     OW20776  10.667  10.372  12.028
39646SOL    HW120777  10.724  10.331  12.093
39646SOL    HW220778  10.621  10.298  11.987
39647SOL     OW20779   5.428  10.021   9.655
39647SOL    HW120780   5.453   9.994   9.567
39647SOL    HW220781   5.352  10.078   9.641
39648SOL     OW20782  13.527   8.742  10.568
39648SOL    HW120783  13.548   8.738  10.475
39648SOL    HW220784  13.476   8.823  10.577
39649SOL     OW20785   7.169   6.297   1.042
39649SOL    HW120786   7.233   6.229   1.025
39649SOL    HW220787   7.130   6.315   0.957
39650SOL     OW20788  13.079   2.569  12.303
39650SOL    HW120789  13.039   2.630  12.365
39650SOL    HW220790  13.018   2.495  12.300
39651SOL     OW20791  12.899   8.827   8.856
39651SOL    HW120792  12.901   8.851   8.764
39651SOL    HW220793  12.833   8.885   8.894
39652SOL     OW20794  12.176  14.374   5.107
39652SOL    HW120795  12.100  14.378   5.048
39652SOL    HW220796  12.191  14.465   5.132
39653SOL     OW20797  14.071   7.802   8.848
39653SOL    HW120798  14.060   7.755   8.931
39653SOL    HW220799  14.161   7.835   8.851
39654SOL     OW20800   0.778   7.533  13.332
39654SOL    HW120801   0.724   7.607  13.305
39654SOL    HW220802   0.778   7.537  13.427
39655SOL     OW20803  12.562   6.640  14.424
39655SOL    HW120804  12.509   6.587  14.364
39655SOL    HW220805  12.641   6.588  14.438
39656SOL     OW20806  14.148   9.945   4.129
39656SOL    HW120807  14.220  10.005   4.147
39656SOL    HW220808  14.069   9.999   4.140
39657SOL     OW20809   2.243   6.167  12.500
39657SOL    HW120810   2.228   6.261  12.503
39657SOL    HW220811   2.229   6.143  12.409
39658SOL     OW20812  13.454   8.291   3.513
39658SOL    HW120813  13.519   8.358   3.494
39658SOL    HW220814  13.484   8.214   3.465
39659SOL     OW20815   4.492   7.188   8.505
39659SOL    HW120816   4.554   7.187   8.578
39659SOL    HW220817   4.418   7.239   8.539
39660SOL     OW20818   8.116   6.756  13.053
39660SOL    HW120819   8.191   6.815  13.042
39660SOL    HW220820   8.153   6.669  13.041
39661SOL     OW20821  11.449   2.796   6.663
39661SOL    HW120822  11.367   2.775   6.708
39661SOL    HW220823  11.436   2.883   6.627
39662SOL     OW20824   5.608   3.862   7.565
39662SOL    HW120825   5.700   3.867   7.540
39662SOL    HW220826   5.574   3.950   7.550
39663SOL     OW20827   9.014  14.341  10.689
39663SOL    HW120828   9.076  14.366  10.757
39663SOL    HW220829   9.056  14.365  10.607
39664SOL     OW20830   8.117  14.199  12.289
39664SOL    HW120831   8.092  14.206  12.197
39664SOL    HW220832   8.079  14.116  12.318
39665SOL     OW20833  12.208   9.687  12.680
39665SOL    HW120834  12.181   9.772  12.645
39665SOL    HW220835  12.303   9.683  12.665
39666SOL     OW20836  11.096  10.266   4.992
39666SOL    HW120837  11.113  10.215   4.913
39666SOL    HW220838  11.019  10.320   4.970
39667SOL     OW20839   2.245  12.524   3.145
39667SOL    HW120840   2.226  12.546   3.054
39667SOL    HW220841   2.250  12.429   3.146
39668SOL     OW20842   6.846  11.101  13.622
39668SOL    HW120843   6.819  11.052  13.700
39668SOL    HW220844   6.781  11.080  13.556
39669SOL     OW20845   9.785   1.996   3.884
39669SOL    HW120846   9.789   1.906   3.918
39669SOL    HW220847   9.727   2.042   3.944
39670SOL     OW20848  14.269   6.115  14.243
39670SOL    HW120849  14.202   6.057  14.207
39670SOL    HW220850  14.328   6.133  14.170
39671SOL     OW20851   9.360   9.635  13.987
39671SOL    HW120852   9.440   9.659  14.035
39671SOL    HW220853   9.339   9.547  14.018
39672SOL     OW20854   5.435   9.234   9.146
39672SOL    HW120855   5.340   9.230   9.156
39672SOL    HW220856   5.449   9.226   9.051
39673SOL     OW20857   9.446   1.226   4.263
39673SOL    HW120858   9.400   1.261   4.187
39673SOL    HW220859   9.470   1.137   4.238
39674SOL     OW20860  14.033   4.739   5.932
39674SOL    HW120861  14.019   4.827   5.896
39674SOL    HW220862  14.013   4.680   5.859
39675SOL     OW20863  14.089  14.318  10.800
39675SOL    HW120864  14.177  14.313  10.838
39675SOL    HW220865  14.057  14.405  10.824
39676SOL     OW20866   7.418  11.616   7.809
39676SOL    HW120867   7.334  11.572   7.817
39676SOL    HW220868   7.443  11.604   7.717
39677SOL     OW20869   6.870   1.488   6.799
39677SOL    HW120870   6.838   1.512   6.886
39677SOL    HW220871   6.815   1.539   6.738
39678SOL     OW20872   2.520   8.362  14.730
39678SOL    HW120873   2.491   8.330  14.815
39678SOL    HW220874   2.593   8.420  14.751
39679SOL     OW20875  12.235   8.801   7.889
39679SOL    HW120876  12.314   8.777   7.938
39679SOL    HW220877  12.243   8.895   7.874
39680SOL     OW20878   3.556  12.651   1.747
39680SOL    HW120879   3.463  12.668   1.734
39680SOL    HW220880   3.575  12.689   1.833
39681SOL     OW20881   4.991   7.928   0.852
39681SOL    HW120882   5.036   7.990   0.911
39681SOL    HW220883   4.941   7.871   0.911
39682SOL     OW20884  11.699   1.738  13.101
39682SOL    HW120885  11.638   1.672  13.135
39682SOL    HW220886  11.644   1.812  13.078
39683SOL     OW20887   8.102   2.637   5.043
39683SOL    HW120888   8.039   2.702   5.076
39683SOL    HW220889   8.174   2.640   5.106
39684SOL     OW20890   7.264   5.797   7.740
39684SOL    HW120891   7.349   5.789   7.782
39684SOL    HW220892   7.243   5.890   7.744
39685SOL     OW20893   2.375   9.154   1.234
39685SOL    HW120894   2.429   9.134   1.158
39685SOL    HW220895   2.305   9.209   1.200
39686SOL     OW20896   8.711   2.960  13.773
39686SOL    HW120897   8.709   2.972  13.678
39686SOL    HW220898   8.653   3.028  13.806
39687SOL     OW20899   5.806   3.647  13.382
39687SOL    HW120900   5.880   3.591  13.357
39687SOL    HW220901   5.806   3.718  13.317
39688SOL     OW20902   1.281  13.746  14.074
39688SOL    HW120903   1.331  13.669  14.101
39688SOL    HW220904   1.288  13.806  14.147
39689SOL     OW20905   1.822   5.682   1.020
39689SOL    HW120906   1.833   5.640   1.105
39689SOL    HW220907   1.728   5.682   1.005
39690SOL     OW20908  13.669   5.472   2.266
39690SOL    HW120909  13.645   5.536   2.200
39690SOL    HW220910  13.596   5.473   2.329
39691SOL     OW20911   9.993   1.404   7.233
39691SOL    HW120912  10.055   1.340   7.199
39691SOL    HW220913   9.907   1.363   7.221
39692SOL     OW20914   2.989   3.793   8.107
39692SOL    HW120915   2.928   3.720   8.091
39692SOL    HW220916   3.056   3.782   8.039
39693SOL     OW20917   3.296   8.574   2.730
39693SOL    HW120918   3.212   8.530   2.743
39693SOL    HW220919   3.272   8.663   2.706
39694SOL     OW20920   3.404   9.065   0.733
39694SOL    HW120921   3.397   9.053   0.828
39694SOL    HW220922   3.441   8.982   0.702
39695SOL     OW20923  13.564   8.016   9.786
39695SOL    HW120924  13.657   7.991   9.791
39695SOL    HW220925  13.554   8.055   9.700
39696SOL     OW20926   7.097  12.693  12.123
39696SOL    HW120927   7.009  12.667  12.152
39696SOL    HW220928   7.081  12.754  12.051
39697SOL     OW20929   0.086   7.097   2.719
39697SOL    HW120930  14.876   7.064   2.710
39697SOL    HW220931   0.137   7.045   2.657
39698SOL     OW20932  14.339  12.903   9.559
39698SOL    HW120933  14.319  12.837   9.493
39698SOL    HW220934  14.427  12.933   9.537
39699SOL     OW20935  11.742   8.370   3.238
39699SOL    HW120936  11.675   8.302   3.230
39699SOL    HW220937  11.824   8.322   3.247
39700SOL     OW20938   6.632   4.492  14.535
39700SOL    HW120939   6.577   4.526  14.605
39700SOL    HW220940   6.649   4.401  14.560
39701SOL     OW20941   8.083   2.560   4.051
39701SOL    HW120942   8.030   2.527   4.124
39701SOL    HW220943   8.064   2.500   3.978
39702SOL     OW20944   5.509   6.913  12.079
39702SOL    HW120945   5.458   6.884  12.155
39702SOL    HW220946   5.589   6.950  12.117
39703SOL     OW20947  14.824  11.971   0.374
39703SOL    HW120948  14.752  12.025   0.344
39703SOL    HW220949  14.783  11.889   0.403
39704SOL     OW20950   4.893  10.585   2.265
39704SOL    HW120951   4.955  10.656   2.281
39704SOL    HW220952   4.812  10.614   2.308
39705SOL     OW20953   3.861   4.155   1.609
39705SOL    HW120954   3.914   4.234   1.616
39705SOL    HW220955   3.775   4.186   1.582
39706SOL     OW20956   3.669   0.122  11.542
39706SOL    HW120957   3.744   0.179  11.527
39706SOL    HW220958   3.600   0.182  11.572
39707SOL     OW20959   4.463   0.910   5.259
39707SOL    HW120960   4.448   0.949   5.173
39707SOL    HW220961   4.502   0.824   5.240
39708SOL     OW20962   7.238  10.119  14.618
39708SOL    HW120963   7.156  10.092  14.576
39708SOL    HW220964   7.263  10.200  14.573
39709SOL     OW20965  10.531   6.848   6.582
39709SOL    HW120966  10.460   6.818   6.638
39709SOL    HW220967  10.587   6.771   6.571
39710SOL     OW20968   9.155  12.474   0.287
39710SOL    HW120969   9.134  12.385   0.316
39710SOL    HW220970   9.185  12.519   0.366
39711SOL     OW20971  10.606   9.910   1.776
39711SOL    HW120972  10.606   9.823   1.816
39711SOL    HW220973  10.572   9.896   1.688
39712SOL     OW20974  13.727  12.544  12.471
39712SOL    HW120975  13.815  12.579  12.454
39712SOL    HW220976  13.714  12.556  12.565
39713SOL     OW20977   6.319  12.455   9.000
39713SOL    HW120978   6.282  12.389   9.058
39713SOL    HW220979   6.412  12.456   9.019
39714SOL     OW20980   9.311   6.332  11.014
39714SOL    HW120981   9.286   6.343  11.106
39714SOL    HW220982   9.306   6.238  10.999
39715SOL     OW20983   2.972   8.215   6.853
39715SOL    HW120984   2.980   8.308   6.874
39715SOL    HW220985   2.987   8.212   6.758
39716SOL     OW20986   2.566   6.369   0.325
39716SOL    HW120987   2.514   6.449   0.337
39716SOL    HW220988   2.579   6.364   0.230
39717SOL     OW20989   3.796   2.430   3.895
39717SOL    HW120990   3.753   2.502   3.849
39717SOL    HW220991   3.854   2.473   3.958
39718SOL     OW20992   6.231  12.017  13.731
39718SOL    HW120993   6.139  12.036  13.747
39718SOL    HW220994   6.261  11.974  13.811
39719SOL     OW20995   5.524   8.033   7.617
39719SOL    HW120996   5.528   8.090   7.694
39719SOL    HW220997   5.440   8.054   7.576
39720SOL     OW20998  12.978   8.396   3.107
39720SOL    HW120999  12.917   8.336   3.063
39720SOL    HW221000  13.046   8.339   3.142
39721SOL     OW21001  14.213  12.368  14.391
39721SOL    HW121002  14.200  12.353  14.298
39721SOL    HW221003  14.145  12.316  14.434
39722SOL     OW21004   2.793   2.406   1.596
39722SOL    HW121005   2.717   2.363   1.556
39722SOL    HW221006   2.854   2.335   1.613
39723SOL     OW21007   3.352   8.013  13.078
39723SOL    HW121008   3.333   8.054  12.994
39723SOL    HW221009   3.442   7.982  13.070
39724SOL     OW21010   0.483   6.809   1.764
39724SOL    HW121011   0.541   6.857   1.705
39724SOL    HW221012   0.541   6.778   1.834
39725SOL     OW21013   2.265   8.639  12.840
39725SOL    HW121014   2.337   8.644  12.777
39725SOL    HW221015   2.271   8.721  12.889
39726SOL     OW21016   0.406   7.641   0.247
39726SOL    HW121017   0.347   7.567   0.254
39726SOL    HW221018   0.447   7.647   0.334
39727SOL     OW21019   8.132   4.768  12.502
39727SOL    HW121020   8.061   4.824  12.533
39727SOL    HW221021   8.161   4.720  12.580
39728SOL     OW21022   7.453   5.423   5.735
39728SOL    HW121023   7.445   5.344   5.789
39728SOL    HW221024   7.546   5.425   5.710
39729SOL     OW21025   2.626   3.847   2.305
39729SOL    HW121026   2.632   3.839   2.400
39729SOL    HW221027   2.617   3.757   2.274
39730SOL     OW21028  13.414   6.910  13.739
39730SOL    HW121029  13.458   6.995  13.746
39730SOL    HW221030  13.373   6.897  13.824
39731SOL     OW21031   5.402   4.992  12.069
39731SOL    HW121032   5.432   4.905  12.093
39731SOL    HW221033   5.349   5.021  12.143
39732SOL     OW21034   1.256   7.483   1.448
39732SOL    HW121035   1.210   7.399   1.456
39732SOL    HW221036   1.342   7.467   1.485
39733SOL     OW21037  11.565  14.235   3.134
39733SOL    HW121038  11.489  14.289   3.114
39733SOL    HW221039  11.535  14.145   3.121
39734SOL     OW21040   5.213  11.366   0.809
39734SOL    HW121041   5.295  11.402   0.777
39734SOL    HW221042   5.166  11.442   0.844
39735SOL     OW21043   0.194   4.103  13.849
39735SOL    HW121044   0.140   4.164  13.899
39735SOL    HW221045   0.144   4.086  13.769
39736SOL     OW21046   5.972   0.549  14.628
39736SOL    HW121047   5.976   0.493  14.550
39736SOL    HW221048   6.057   0.593  14.630
39737SOL     OW21049  12.288  11.146   2.136
39737SOL    HW121050  12.294  11.226   2.189
39737SOL    HW221051  12.369  11.145   2.085
39738SOL     OW21052  11.962  12.620   1.757
39738SOL    HW121053  11.918  12.537   1.735
39738SOL    HW221054  11.912  12.686   1.710
39739SOL     OW21055   3.921   4.537   7.748
39739SOL    HW121056   3.834   4.514   7.780
39739SOL    HW221057   3.923   4.633   7.753
39740SOL     OW21058   7.249   6.076  13.449
39740SOL    HW121059   7.235   6.162  13.489
39740SOL    HW221060   7.198   6.080  13.368
39741SOL     OW21061   0.056   1.800   3.756
39741SOL    HW121062   0.117   1.742   3.710
39741SOL    HW221063  14.857   1.803   3.701
39742SOL     OW21064  11.174   2.511  13.012
39742SOL    HW121065  11.209   2.427  12.982
39742SOL    HW221066  11.101   2.488  13.070
39743SOL     OW21067  12.061   7.691   1.362
39743SOL    HW121068  12.067   7.729   1.275
39743SOL    HW221069  11.973   7.714   1.393
39744SOL     OW21070  14.354  12.828   3.716
39744SOL    HW121071  14.442  12.812   3.751
39744SOL    HW221072  14.296  12.782   3.777
39745SOL     OW21073   4.088   5.047  13.791
39745SOL    HW121074   4.043   4.963  13.784
39745SOL    HW221075   4.173   5.025  13.829
39746SOL     OW21076   1.131   8.835   1.388
39746SOL    HW121077   1.199   8.888   1.429
39746SOL    HW221078   1.114   8.765   1.452
39747SOL     OW21079   6.497  14.102   6.059
39747SOL    HW121080   6.521  14.195   6.061
39747SOL    HW221081   6.560  14.063   5.998
39748SOL     OW21082  14.320  11.886  11.121
39748SOL    HW121083  14.226  11.880  11.106
39748SOL    HW221084  14.356  11.807  11.080
39749SOL     OW21085   7.365   5.652  10.690
39749SOL    HW121086   7.316   5.572  10.673
39749SOL    HW221087   7.336   5.713  10.622
39750SOL     OW21088   0.183   6.982  10.693
39750SOL    HW121089   0.155   6.913  10.633
39750SOL    HW221090   0.107   6.997  10.750
39751SOL     OW21091   0.216   2.145   9.711
39751SOL    HW121092   0.180   2.082   9.774
39751SOL    HW221093   0.302   2.109   9.688
39752SOL     OW21094   0.373   9.903   4.258
39752SOL    HW121095   0.417   9.828   4.296
39752SOL    HW221096   0.444   9.962   4.231
39753SOL     OW21097   6.561   9.265   2.464
39753SOL    HW121098   6.590   9.201   2.529
39753SOL    HW221099   6.570   9.219   2.380
39754SOL     OW21100   0.315  11.268   2.692
39754SOL    HW121101   0.323  11.361   2.668
39754SOL    HW221102   0.327  11.221   2.609
39755SOL     OW21103  12.890   4.022   8.085
39755SOL    HW121104  12.877   3.928   8.071
39755SOL    HW221105  12.801   4.056   8.101
39756SOL     OW21106  11.845   4.262  11.862
39756SOL    HW121107  11.762   4.299  11.833
39756SOL    HW221108  11.906   4.282  11.791
39757SOL     OW21109   0.726  11.648  13.417
39757SOL    HW121110   0.682  11.720  13.372
39757SOL    HW221111   0.682  11.569  13.385
39758SOL     OW21112   0.906  14.351   2.794
39758SOL    HW121113   0.859  14.268   2.795
39758SOL    HW221114   0.985  14.335   2.845
39759SOL     OW21115  14.472   8.982   7.586
39759SOL    HW121116  14.499   9.052   7.645
39759SOL    HW221117  14.397   9.019   7.538
39760SOL     OW21118   9.879   8.196   9.789
39760SOL    HW121119   9.823   8.184   9.865
39760SOL    HW221120   9.838   8.266   9.739
39761SOL     OW21121   4.004   8.344  13.157
39761SOL    HW121122   3.972   8.346  13.067
39761SOL    HW221123   3.980   8.429  13.193
39762SOL     OW21124  12.395  12.754   8.433
39762SOL    HW121125  12.369  12.802   8.512
39762SOL    HW221126  12.484  12.784   8.415
39763SOL     OW21127   4.573  10.315   9.258
39763SOL    HW121128   4.547  10.398   9.299
39763SOL    HW221129   4.625  10.342   9.182
39764SOL     OW21130   9.255   9.072   0.180
39764SOL    HW121131   9.175   9.043   0.136
39764SOL    HW221132   9.240   9.053   0.272
39765SOL     OW21133   2.511   4.233  13.529
39765SOL    HW121134   2.418   4.253  13.519
39765SOL    HW221135   2.515   4.137  13.521
39766SOL     OW21136   7.883   6.193   4.966
39766SOL    HW121137   7.888   6.277   4.921
39766SOL    HW221138   7.806   6.201   5.022
39767SOL     OW21139   7.727   8.430   0.597
39767SOL    HW121140   7.781   8.398   0.670
39767SOL    HW221141   7.751   8.374   0.523
39768SOL     OW21142   5.993   6.761   2.232
39768SOL    HW121143   5.988   6.667   2.216
39768SOL    HW221144   5.919   6.780   2.290
39769SOL     OW21145  10.337   9.074  12.032
39769SOL    HW121146  10.313   9.053  11.942
39769SOL    HW221147  10.254   9.097  12.074
39770SOL     OW21148  12.298   9.260   1.726
39770SOL    HW121149  12.390   9.284   1.714
39770SOL    HW221150  12.300   9.175   1.769
39771SOL     OW21151   9.372  12.086   4.105
39771SOL    HW121152   9.432  12.027   4.150
39771SOL    HW221153   9.348  12.151   4.171
39772SOL     OW21154  13.688  12.554   8.473
39772SOL    HW121155  13.610  12.540   8.525
39772SOL    HW221156  13.759  12.519   8.527
39773SOL     OW21157   3.323   3.881  13.803
39773SOL    HW121158   3.340   3.974  13.788
39773SOL    HW221159   3.324   3.871  13.898
39774SOL     OW21160   2.746   4.476   7.847
39774SOL    HW121161   2.827   4.425   7.849
39774SOL    HW221162   2.713   4.470   7.937
39775SOL     OW21163  11.323   9.211   8.477
39775SOL    HW121164  11.296   9.190   8.387
39775SOL    HW221165  11.243   9.241   8.519
39776SOL     OW21166  10.237   9.534  10.151
39776SOL    HW121167  10.243   9.507  10.242
39776SOL    HW221168  10.311   9.490  10.108
39777SOL     OW21169   8.223   4.189   4.156
39777SOL    HW121170   8.137   4.229   4.143
39777SOL    HW221171   8.284   4.252   4.118
39778SOL     OW21172   2.742   4.214   9.717
39778SOL    HW121173   2.661   4.164   9.707
39778SOL    HW221174   2.800   4.180   9.649
39779SOL     OW21175   0.259   7.778   9.189
39779SOL    HW121176   0.231   7.767   9.280
39779SOL    HW221177   0.195   7.837   9.151
39780SOL     OW21178  13.410  11.933   3.110
39780SOL    HW121179  13.388  11.849   3.151
39780SOL    HW221180  13.433  11.990   3.183
39781SOL     OW21181  14.538   6.772   6.025
39781SOL    HW121182  14.485   6.837   5.980
39781SOL    HW221183  14.628   6.796   6.003
39782SOL     OW21184  12.220   5.249   9.947
39782SOL    HW121185  12.220   5.170  10.000
39782SOL    HW221186  12.251   5.220   9.861
39783SOL     OW21187  13.885   0.728   1.674
39783SOL    HW121188  13.953   0.661   1.673
39783SOL    HW221189  13.833   0.707   1.752
39784SOL     OW21190  13.421  11.090   8.207
39784SOL    HW121191  13.463  11.111   8.124
39784SOL    HW221192  13.382  11.004   8.193
39785SOL     OW21193   9.502   2.064   1.449
39785SOL    HW121194   9.544   2.147   1.472
39785SOL    HW221195   9.532   2.002   1.517
39786SOL     OW21196   3.143   3.298   4.234
39786SOL    HW121197   3.213   3.276   4.172
39786SOL    HW221198   3.083   3.353   4.184
39787SOL     OW21199   2.601  14.224   2.150
39787SOL    HW121200   2.545  14.155   2.186
39787SOL    HW221201   2.596  14.295   2.214
39788SOL     OW21202  12.018   7.732   0.148
39788SOL    HW121203  12.102   7.686   0.143
39788SOL    HW221204  12.023   7.798   0.079
39789SOL     OW21205  12.256   3.371   1.025
39789SOL    HW121206  12.196   3.311   1.068
39789SOL    HW221207  12.292   3.425   1.096
39790SOL     OW21208   1.642   7.297  14.351
39790SOL    HW121209   1.617   7.205  14.346
39790SOL    HW221210   1.559   7.344  14.351
39791SOL     OW21211   2.931   6.988   3.494
39791SOL    HW121212   2.902   6.961   3.407
39791SOL    HW221213   2.983   6.914   3.526
39792SOL     OW21214   8.868  12.922   6.659
39792SOL    HW121215   8.937  12.856   6.669
39792SOL    HW221216   8.912  12.996   6.618
39793SOL     OW21217   9.720  10.552   3.656
39793SOL    HW121218   9.655  10.607   3.612
39793SOL    HW221219   9.788  10.614   3.684
39794SOL     OW21220   4.076   7.566  13.385
39794SOL    HW121221   4.159   7.527  13.410
39794SOL    HW221222   4.077   7.653  13.425
39795SOL     OW21223   4.337  11.453  13.542
39795SOL    HW121224   4.272  11.516  13.570
39795SOL    HW221225   4.410  11.506  13.510
39796SOL     OW21226  10.704   5.424   5.460
39796SOL    HW121227  10.776   5.466   5.507
39796SOL    HW221228  10.630   5.427   5.521
39797SOL     OW21229  11.680   9.681   4.282
39797SOL    HW121230  11.678   9.668   4.187
39797SOL    HW221231  11.615   9.618   4.315
39798SOL     OW21232   1.539   9.238   8.461
39798SOL    HW121233   1.490   9.310   8.422
39798SOL    HW221234   1.630   9.265   8.454
39799SOL     OW21235   4.571   8.558   8.154
39799SOL    HW121236   4.560   8.644   8.195
39799SOL    HW221237   4.665   8.540   8.163
39800SOL     OW21238  12.576   4.954  10.049
39800SOL    HW121239  12.502   4.984   9.995
39800SOL    HW221240  12.650   4.953   9.989
39801SOL     OW21241   7.055   7.406  13.567
39801SOL    HW121242   6.992   7.477  13.566
39801SOL    HW221243   7.016   7.338  13.513
39802SOL     OW21244   1.610  11.930   0.427
39802SOL    HW121245   1.575  11.869   0.362
39802SOL    HW221246   1.699  11.947   0.399
39803SOL     OW21247   0.259   6.170  14.135
39803SOL    HW121248   0.210   6.230  14.191
39803SOL    HW221249   0.338   6.148  14.185
39804SOL     OW21250   5.325   8.606   6.873
39804SOL    HW121251   5.326   8.511   6.859
39804SOL    HW221252   5.287   8.616   6.961
39805SOL     OW21253   3.643   2.111  13.692
39805SOL    HW121254   3.599   2.117  13.776
39805SOL    HW221255   3.671   2.020  13.685
39806SOL     OW21256   6.802   0.387  12.043
39806SOL    HW121257   6.895   0.367  12.053
39806SOL    HW221258   6.797   0.481  12.060
39807SOL     OW21259   5.325  13.923  11.252
39807SOL    HW121260   5.328  13.931  11.157
39807SOL    HW221261   5.232  13.929  11.273
39808SOL     OW21262   3.962   3.226   0.652
39808SOL    HW121263   3.982   3.299   0.594
39808SOL    HW221264   3.893   3.177   0.606
39809SOL     OW21265   9.279  13.689  12.661
39809SOL    HW121266   9.333  13.709  12.738
39809SOL    HW221267   9.264  13.595  12.666
39810SOL     OW21268   0.210   1.536   8.122
39810SOL    HW121269   0.226   1.502   8.210
39810SOL    HW221270   0.259   1.618   8.119
39811SOL     OW21271   2.840   5.929   4.834
39811SOL    HW121272   2.773   5.988   4.802
39811SOL    HW221273   2.906   5.986   4.873
39812SOL     OW21274  11.697   5.255   6.683
39812SOL    HW121275  11.651   5.180   6.645
39812SOL    HW221276  11.634   5.327   6.675
39813SOL     OW21277   6.101  11.429  14.268
39813SOL    HW121278   6.047  11.465  14.198
39813SOL    HW221279   6.186  11.470  14.256
39814SOL     OW21280   9.954   1.400   3.697
39814SOL    HW121281  10.028   1.341   3.714
39814SOL    HW221282   9.891   1.346   3.649
39815SOL     OW21283  14.273  10.103   0.683
39815SOL    HW121284  14.243  10.012   0.686
39815SOL    HW221285  14.367  10.097   0.670
39816SOL     OW21286   6.690   8.119   9.549
39816SOL    HW121287   6.701   8.114   9.644
39816SOL    HW221288   6.633   8.194   9.535
39817SOL     OW21289   1.302   0.845  14.722
39817SOL    HW121290   1.320   0.863  14.630
39817SOL    HW221291   1.254   0.762  14.721
39818SOL     OW21292  13.896   3.741  14.857
39818SOL    HW121293  13.983   3.765  14.823
39818SOL    HW221294  13.912   3.661   0.029
39819SOL     OW21295   7.964   3.524  10.558
39819SOL    HW121296   7.935   3.571  10.636
39819SOL    HW221297   7.916   3.441  10.560
39820SOL     OW21298   8.769   6.520  12.216
39820SOL    HW121299   8.682   6.500  12.182
39820SOL    HW221300   8.827   6.456  12.174
39821SOL     OW21301   7.636   1.227  13.121
39821SOL    HW121302   7.723   1.191  13.136
39821SOL    HW221303   7.652   1.315  13.087
39822SOL     OW21304   3.952   3.202   2.961
39822SOL    HW121305   4.018   3.132   2.958
39822SOL    HW221306   3.880   3.170   2.907
39823SOL     OW21307  13.358   1.490   3.678
39823SOL    HW121308  13.429   1.541   3.718
39823SOL    HW221309  13.394   1.461   3.594
39824SOL     OW21310   9.392  12.989   5.422
39824SOL    HW121311   9.325  12.979   5.354
39824SOL    HW221312   9.403  12.900   5.456
39825SOL     OW21313   2.211  13.192  12.723
39825SOL    HW121314   2.225  13.287  12.734
39825SOL    HW221315   2.161  13.185  12.642
39826SOL     OW21316  11.750   1.919   5.545
39826SOL    HW121317  11.701   1.975   5.605
39826SOL    HW221318  11.828   1.895   5.595
39827SOL     OW21319  10.556  12.163  13.796
39827SOL    HW121320  10.527  12.181  13.886
39827SOL    HW221321  10.499  12.092  13.766
39828SOL     OW21322  11.182   4.900   6.429
39828SOL    HW121323  11.156   4.926   6.517
39828SOL    HW221324  11.113   4.840   6.400
39829SOL     OW21325   5.314   3.276   1.223
39829SOL    HW121326   5.375   3.347   1.202
39829SOL    HW221327   5.316   3.270   1.319
39830SOL     OW21328  13.806  14.700   5.883
39830SOL    HW121329  13.879  14.761   5.896
39830SOL    HW221330  13.827  14.625   5.938
39831SOL     OW21331   3.574   1.714  12.841
39831SOL    HW121332   3.498   1.750  12.887
39831SOL    HW221333   3.639   1.698  12.910
39832SOL     OW21334  13.060   1.886   9.290
39832SOL    HW121335  12.991   1.891   9.224
39832SOL    HW221336  13.140   1.907   9.243
39833SOL     OW21337  10.401   2.159   2.957
39833SOL    HW121338  10.378   2.111   3.037
39833SOL    HW221339  10.415   2.092   2.891
39834SOL     OW21340  12.564   3.643   5.069
39834SOL    HW121341  12.531   3.732   5.077
39834SOL    HW221342  12.487   3.589   5.054
39835SOL     OW21343   9.181   2.801   4.842
39835SOL    HW121344   9.207   2.717   4.806
39835SOL    HW221345   9.153   2.852   4.766
39836SOL     OW21346   6.758  10.074   5.069
39836SOL    HW121347   6.767   9.979   5.082
39836SOL    HW221348   6.780  10.088   4.977
39837SOL     OW21349  13.905   0.475  14.496
39837SOL    HW121350  13.904   0.552  14.553
39837SOL    HW221351  13.997   0.465  14.471
39838SOL     OW21352  12.612   9.848   4.430
39838SOL    HW121353  12.673   9.778   4.408
39838SOL    HW221354  12.559   9.860   4.351
39839SOL     OW21355   8.990   0.908   4.528
39839SOL    HW121356   8.929   0.835   4.515
39839SOL    HW221357   8.937   0.987   4.516
39840SOL     OW21358   6.963  14.107   8.176
39840SOL    HW121359   6.959  14.175   8.244
39840SOL    HW221360   6.874  14.105   8.140
39841SOL     OW21361   3.187   6.181  14.704
39841SOL    HW121362   3.117   6.241  14.677
39841SOL    HW221363   3.151   6.136  14.780
39842SOL     OW21364   3.356   5.830   9.275
39842SOL    HW121365   3.262   5.813   9.276
39842SOL    HW221366   3.393   5.756   9.324
39843SOL     OW21367  11.299   8.385  13.064
39843SOL    HW121368  11.236   8.402  13.133
39843SOL    HW221369  11.377   8.353  13.109
39844SOL     OW21370   8.102  10.007  11.991
39844SOL    HW121371   8.007   9.994  11.983
39844SOL    HW221372   8.111  10.075  12.058
39845SOL     OW21373   9.063   5.181   9.793
39845SOL    HW121374   9.155   5.206   9.779
39845SOL    HW221375   9.020   5.205   9.711
39846SOL     OW21376  12.907  13.556  14.193
39846SOL    HW121377  12.975  13.586  14.132
39846SOL    HW221378  12.951  13.491  14.247
39847SOL     OW21379  14.211   8.423   2.050
39847SOL    HW121380  14.197   8.329   2.068
39847SOL    HW221381  14.192   8.432   1.957
39848SOL     OW21382   3.096   8.233  10.325
39848SOL    HW121383   3.179   8.205  10.362
39848SOL    HW221384   3.092   8.327  10.341
39849SOL     OW21385  12.769  13.948   0.276
39849SOL    HW121386  12.707  13.881   0.305
39849SOL    HW221387  12.752  13.957   0.182
39850SOL     OW21388  10.598   8.267   9.826
39850SOL    HW121389  10.606   8.239   9.735
39850SOL    HW221390  10.516   8.316   9.829
39851SOL     OW21391  13.497  14.401  12.221
39851SOL    HW121392  13.584  14.376  12.191
39851SOL    HW221393  13.475  14.337  12.289
39852SOL     OW21394   1.155   4.467   8.057
39852SOL    HW121395   1.150   4.398   7.991
39852SOL    HW221396   1.101   4.435   8.129
39853SOL     OW21397  13.013  13.913  11.896
39853SOL    HW121398  12.956  13.843  11.929
39853SOL    HW221399  12.968  13.994  11.920
39854SOL     OW21400   7.633  13.134   4.893
39854SOL    HW121401   7.581  13.095   4.963
39854SOL    HW221402   7.716  13.086   4.894
39855SOL     OW21403   3.732  10.670   3.283
39855SOL    HW121404   3.716  10.614   3.359
39855SOL    HW221405   3.803  10.626   3.236
39856SOL     OW21406   7.275   5.839  10.491
39856SOL    HW121407   7.259   5.847  10.397
39856SOL    HW221408   7.279   5.929  10.522
39857SOL     OW21409   2.780   7.275  14.654
39857SOL    HW121410   2.700   7.227  14.677
39857SOL    HW221411   2.847   7.207  14.649
39858SOL     OW21412   3.725   5.790   3.321
39858SOL    HW121413   3.694   5.834   3.400
39858SOL    HW221414   3.731   5.860   3.256
39859SOL     OW21415  11.482   8.111   2.174
39859SOL    HW121416  11.539   8.035   2.169
39859SOL    HW221417  11.399   8.077   2.206
39860SOL     OW21418   2.999   8.043   5.054
39860SOL    HW121419   2.948   8.106   5.107
39860SOL    HW221420   3.025   8.093   4.977
39861SOL     OW21421  10.070  11.879   3.830
39861SOL    HW121422  10.099  11.960   3.873
39861SOL    HW221423   9.977  11.874   3.849
39862SOL     OW21424   2.695   5.535   5.515
39862SOL    HW121425   2.613   5.533   5.466
39862SOL    HW221426   2.674   5.582   5.596
39863SOL     OW21427   1.712   6.579   3.604
39863SOL    HW121428   1.702   6.664   3.561
39863SOL    HW221429   1.795   6.586   3.651
39864SOL     OW21430  13.705   3.867   6.741
39864SOL    HW121431  13.641   3.937   6.744
39864SOL    HW221432  13.790   3.912   6.733
39865SOL     OW21433   5.015  13.391   3.916
39865SOL    HW121434   4.921  13.387   3.931
39865SOL    HW221435   5.036  13.484   3.921
39866SOL     OW21436   1.126   5.631  10.847
39866SOL    HW121437   1.076   5.711  10.861
39866SOL    HW221438   1.080   5.587  10.775
39867SOL     OW21439  14.660   8.907  11.646
39867SOL    HW121440  14.696   8.818  11.646
39867SOL    HW221441  14.617   8.915  11.732
39868SOL     OW21442  14.031   2.560  13.068
39868SOL    HW121443  13.969   2.572  12.996
39868SOL    HW221444  13.980   2.516  13.136
39869SOL     OW21445   2.231   7.723  13.310
39869SOL    HW121446   2.185   7.657  13.258
39869SOL    HW221447   2.169   7.796  13.316
39870SOL     OW21448   6.674   4.964   6.673
39870SOL    HW121449   6.641   5.008   6.752
39870SOL    HW221450   6.711   4.882   6.706
39871SOL     OW21451   8.293   8.128   0.138
39871SOL    HW121452   8.354   8.163   0.074
39871SOL    HW221453   8.263   8.205   0.188
39872SOL     OW21454  12.186   5.704  10.096
39872SOL    HW121455  12.236   5.627  10.068
39872SOL    HW221456  12.219   5.722  10.185
39873SOL     OW21457  14.561   3.655   4.534
39873SOL    HW121458  14.540   3.567   4.505
39873SOL    HW221459  14.570   3.648   4.629
39874SOL     OW21460  13.044  12.521   6.939
39874SOL    HW121461  13.068  12.611   6.917
39874SOL    HW221462  12.960  12.507   6.896
39875SOL     OW21463  11.587  10.859  11.857
39875SOL    HW121464  11.568  10.766  11.843
39875SOL    HW221465  11.519  10.889  11.917
39876SOL     OW21466   1.328   2.181  14.454
39876SOL    HW121467   1.387   2.119  14.497
39876SOL    HW221468   1.242   2.140  14.458
39877SOL     OW21469   8.868   2.745   9.082
39877SOL    HW121470   8.804   2.679   9.058
39877SOL    HW221471   8.949   2.695   9.096
39878SOL     OW21472   7.862   5.051   1.869
39878SOL    HW121473   7.773   5.029   1.843
39878SOL    HW221474   7.883   5.130   1.820
39879SOL     OW21475  10.242   4.807  14.842
39879SOL    HW121476  10.225   4.824  14.749
39879SOL    HW221477  10.163   4.838   0.007
39880SOL     OW21478  11.307   4.645   9.551
39880SOL    HW121479  11.378   4.636   9.487
39880SOL    HW221480  11.351   4.668   9.633
39881SOL     OW21481   8.858   6.248   3.927
39881SOL    HW121482   8.784   6.231   3.869
39881SOL    HW221483   8.935   6.240   3.870
39882SOL     OW21484   4.670  13.464   2.668
39882SOL    HW121485   4.602  13.430   2.609
39882SOL    HW221486   4.666  13.406   2.744
39883SOL     OW21487   5.356   0.371   8.461
39883SOL    HW121488   5.380   0.402   8.548
39883SOL    HW221489   5.432   0.389   8.407
39884SOL     OW21490  11.221   0.056   4.717
39884SOL    HW121491  11.237   0.007   4.798
39884SOL    HW221492  11.126   0.069   4.716
39885SOL     OW21493  12.377   7.873   8.813
39885SOL    HW121494  12.374   7.784   8.847
39885SOL    HW221495  12.321   7.923   8.872
39886SOL     OW21496  13.196  10.088   8.643
39886SOL    HW121497  13.262  10.027   8.611
39886SOL    HW221498  13.191  10.071   8.737
39887SOL     OW21499   0.597   2.692   6.935
39887SOL    HW121500   0.552   2.640   7.001
39887SOL    HW221501   0.690   2.681   6.956
39888SOL     OW21502   6.845   5.539   4.223
39888SOL    HW121503   6.797   5.557   4.142
39888SOL    HW221504   6.828   5.616   4.278
39889SOL     OW21505   8.055  10.657   5.724
39889SOL    HW121506   8.108  10.693   5.653
39889SOL    HW221507   8.004  10.731   5.756
39890SOL     OW21508  12.930   2.866   3.347
39890SOL    HW121509  13.018   2.887   3.315
39890SOL    HW221510  12.875   2.865   3.268
39891SOL     OW21511  14.512   6.227  11.459
39891SOL    HW121512  14.440   6.260  11.404
39891SOL    HW221513  14.583   6.211  11.398
39892SOL     OW21514   1.388   1.166   4.826
39892SOL    HW121515   1.308   1.195   4.781
39892SOL    HW221516   1.411   1.240   4.882
39893SOL     OW21517   7.205  11.983   8.762
39893SOL    HW121518   7.217  12.005   8.669
39893SOL    HW221519   7.129  12.034   8.790
39894SOL     OW21520  10.357   9.331  12.745
39894SOL    HW121521  10.314   9.374  12.819
39894SOL    HW221522  10.287   9.286  12.698
39895SOL     OW21523   3.537  11.979   4.658
39895SOL    HW121524   3.481  12.055   4.643
39895SOL    HW221525   3.531  11.962   4.752
39896SOL     OW21526   3.201  11.783  13.833
39896SOL    HW121527   3.248  11.752  13.755
39896SOL    HW221528   3.228  11.724  13.903
39897SOL     OW21529   7.945   7.596   9.830
39897SOL    HW121530   7.995   7.514   9.820
39897SOL    HW221531   7.869   7.584   9.772
39898SOL     OW21532   3.442   5.176  11.287
39898SOL    HW121533   3.410   5.229  11.360
39898SOL    HW221534   3.367   5.122  11.262
39899SOL     OW21535   5.844   5.734  10.869
39899SOL    HW121536   5.917   5.681  10.838
39899SOL    HW221537   5.805   5.769  10.789
39900SOL     OW21538  14.310  10.216  12.038
39900SOL    HW121539  14.258  10.190  11.962
39900SOL    HW221540  14.247  10.259  12.096
39901SOL     OW21541   6.728   5.458   7.736
39901SOL    HW121542   6.702   5.470   7.644
39901SOL    HW221543   6.815   5.419   7.731
39902SOL     OW21544  11.813   7.812  10.832
39902SOL    HW121545  11.882   7.847  10.889
39902SOL    HW221546  11.801   7.722  10.861
39903SOL     OW21547   1.417  14.483  11.840
39903SOL    HW121548   1.373  14.563  11.812
39903SOL    HW221549   1.407  14.423  11.766
39904SOL     OW21550   8.108   1.760   7.352
39904SOL    HW121551   8.029   1.777   7.299
39904SOL    HW221552   8.075   1.721   7.433
39905SOL     OW21553   3.718   2.504   8.465
39905SOL    HW121554   3.761   2.504   8.551
39905SOL    HW221555   3.788   2.525   8.403
39906SOL     OW21556   3.567  12.242  14.548
39906SOL    HW121557   3.548  12.332  14.574
39906SOL    HW221558   3.525  12.188  14.615
39907SOL     OW21559   4.421   9.468  11.325
39907SOL    HW121560   4.339   9.491  11.367
39907SOL    HW221561   4.396   9.407  11.255
39908SOL     OW21562  11.184   1.282  11.627
39908SOL    HW121563  11.275   1.312  11.634
39908SOL    HW221564  11.190   1.187  11.624
39909SOL     OW21565  11.327   3.442   3.434
39909SOL    HW121566  11.273   3.499   3.379
39909SOL    HW221567  11.416   3.453   3.401
39910SOL     OW21568   0.510   1.364  14.439
39910SOL    HW121569   0.442   1.398  14.381
39910SOL    HW221570   0.462   1.313  14.504
39911SOL     OW21571   8.758   5.151   1.599
39911SOL    HW121572   8.704   5.205   1.658
39911SOL    HW221573   8.755   5.198   1.515
39912SOL     OW21574   8.441   9.600  13.827
39912SOL    HW121575   8.435   9.604  13.923
39912SOL    HW221576   8.440   9.507  13.807
39913SOL     OW21577   3.577   6.613  13.398
39913SOL    HW121578   3.605   6.589  13.487
39913SOL    HW221579   3.559   6.529  13.356
39914SOL     OW21580   8.224   7.302   1.511
39914SOL    HW121581   8.260   7.231   1.564
39914SOL    HW221582   8.299   7.337   1.464
39915SOL     OW21583   7.570  11.432  10.575
39915SOL    HW121584   7.648  11.376  10.572
39915SOL    HW221585   7.513  11.397  10.507
39916SOL     OW21586  11.438   7.044  12.041
39916SOL    HW121587  11.411   7.084  12.123
39916SOL    HW221588  11.512   6.988  12.064
39917SOL     OW21589   3.669   9.173   4.905
39917SOL    HW121590   3.596   9.177   4.967
39917SOL    HW221591   3.634   9.125   4.830
39918SOL     OW21592   6.847  14.334  12.730
39918SOL    HW121593   6.757  14.308  12.713
39918SOL    HW221594   6.840  14.407  12.792
39919SOL     OW21595   8.565  10.398  13.134
39919SOL    HW121596   8.588  10.485  13.167
39919SOL    HW221597   8.492  10.414  13.074
39920SOL     OW21598   4.434   2.641   0.005
39920SOL    HW121599   4.490   2.603   0.073
39920SOL    HW221600   4.482   2.717  14.852
39921SOL     OW21601  12.319   9.162   4.164
39921SOL    HW121602  12.313   9.172   4.069
39921SOL    HW221603  12.394   9.217   4.188
39922SOL     OW21604   9.436  11.531  10.171
39922SOL    HW121605   9.493  11.506  10.099
39922SOL    HW221606   9.469  11.617  10.199
39923SOL     OW21607  14.349  13.686   1.944
39923SOL    HW121608  14.408  13.703   1.871
39923SOL    HW221609  14.380  13.603   1.981
39924SOL     OW21610  14.740   9.096   6.341
39924SOL    HW121611  14.805   9.026   6.353
39924SOL    HW221612  14.687   9.093   6.421
39925SOL     OW21613   2.439   0.027   0.755
39925SOL    HW121614   2.435  14.811   0.756
39925SOL    HW221615   2.451   0.051   0.847
39926SOL     OW21616  11.467  13.702   2.682
39926SOL    HW121617  11.470  13.779   2.625
39926SOL    HW221618  11.514  13.730   2.762
39927SOL     OW21619   9.767  12.460  14.023
39927SOL    HW121620   9.747  12.551  14.044
39927SOL    HW221621   9.826  12.431  14.093
39928SOL     OW21622   8.563   5.181   9.127
39928SOL    HW121623   8.503   5.107   9.119
39928SOL    HW221624   8.650   5.142   9.118
39929SOL     OW21625   2.082   5.971   6.827
39929SOL    HW121626   1.999   5.987   6.872
39929SOL    HW221627   2.068   6.004   6.739
39930SOL     OW21628   7.290  12.773  10.720
39930SOL    HW121629   7.347  12.698  10.703
39930SOL    HW221630   7.302  12.830  10.644
39931SOL     OW21631   8.941  10.836   3.498
39931SOL    HW121632   8.863  10.866   3.451
39931SOL    HW221633   8.911  10.760   3.548
39932SOL     OW21634  11.893  11.102   2.317
39932SOL    HW121635  11.965  11.039   2.321
39932SOL    HW221636  11.877  11.125   2.409
39933SOL     OW21637  14.402   8.583  13.431
39933SOL    HW121638  14.485   8.595  13.477
39933SOL    HW221639  14.373   8.671  13.409
39934SOL     OW21640  12.447   4.736   3.157
39934SOL    HW121641  12.356   4.709   3.167
39934SOL    HW221642  12.458   4.808   3.218
39935SOL     OW21643   8.287   8.158  11.508
39935SOL    HW121644   8.239   8.079  11.530
39935SOL    HW221645   8.262   8.177  11.417
39936SOL     OW21646   5.898   8.568   1.315
39936SOL    HW121647   5.961   8.577   1.386
39936SOL    HW221648   5.924   8.489   1.268
39937SOL     OW21649  12.356   0.193   1.708
39937SOL    HW121650  12.355   0.121   1.772
39937SOL    HW221651  12.438   0.240   1.727
39938SOL     OW21652   9.766   1.158   7.472
39938SOL    HW121653   9.698   1.092   7.461
39938SOL    HW221654   9.795   1.178   7.383
39939SOL     OW21655   8.569   2.015   1.372
39939SOL    HW121656   8.616   2.083   1.324
39939SOL    HW221657   8.575   1.938   1.316
39940SOL     OW21658   5.474  12.334   0.096
39940SOL    HW121659   5.568  12.323   0.078
39940SOL    HW221660   5.431  12.274   0.036
39941SOL     OW21661   1.677   3.169   2.958
39941SOL    HW121662   1.630   3.151   3.039
39941SOL    HW221663   1.632   3.116   2.892
39942SOL     OW21664   5.515   3.169   2.656
39942SOL    HW121665   5.445   3.124   2.702
39942SOL    HW221666   5.472   3.213   2.583
39943SOL     OW21667   5.790   5.528  13.356
39943SOL    HW121668   5.835   5.610  13.376
39943SOL    HW221669   5.799   5.476  13.436
39944SOL     OW21670   5.458   2.119   1.345
39944SOL    HW121671   5.373   2.163   1.345
39944SOL    HW221672   5.509   2.167   1.280
39945SOL     OW21673   1.025   8.865   6.385
39945SOL    HW121674   0.963   8.937   6.393
39945SOL    HW221675   1.055   8.849   6.474
39946SOL     OW21676   2.844   0.065  14.827
39946SOL    HW121677   2.923   0.101  14.787
39946SOL    HW221678   2.839   0.106   0.034
39947SOL     OW21679  13.025  13.687   1.590
39947SOL    HW121680  13.073  13.635   1.653
39947SOL    HW221681  13.086  13.700   1.517
39948SOL     OW21682   6.960  10.133   1.623
39948SOL    HW121683   7.040  10.177   1.593
39948SOL    HW221684   6.975  10.040   1.607
39949SOL     OW21685  11.501   1.349   1.693
39949SOL    HW121686  11.569   1.307   1.746
39949SOL    HW221687  11.498   1.439   1.726
39950SOL     OW21688   8.254   0.048   0.788
39950SOL    HW121689   8.227   0.137   0.809
39950SOL    HW221690   8.328   0.031   0.846
39951SOL     OW21691  12.248  12.941   2.891
39951SOL    HW121692  12.186  12.928   2.963
39951SOL    HW221693  12.333  12.944   2.934
39952SOL     OW21694   8.422  12.869   9.036
39952SOL    HW121695   8.327  12.855   9.035
39952SOL    HW221696   8.452  12.827   9.117
39953SOL     OW21697   7.402  12.940   2.811
39953SOL    HW121698   7.340  12.938   2.884
39953SOL    HW221699   7.381  12.861   2.759
39954SOL     OW21700   2.033   1.254   2.107
39954SOL    HW121701   2.104   1.248   2.171
39954SOL    HW221702   1.955   1.271   2.159
39955SOL     OW21703  14.023  10.942   9.141
39955SOL    HW121704  14.034  10.886   9.064
39955SOL    HW221705  14.088  10.910   9.203
39956SOL     OW21706   7.275  13.114   9.494
39956SOL    HW121707   7.299  13.168   9.570
39956SOL    HW221708   7.295  13.024   9.522
39957SOL     OW21709   5.393  13.730   8.935
39957SOL    HW121710   5.479  13.692   8.951
39957SOL    HW221711   5.342  13.658   8.897
39958SOL     OW21712  14.120   3.372   5.454
39958SOL    HW121713  14.113   3.467   5.449
39958SOL    HW221714  14.058   3.340   5.387
39959SOL     OW21715   1.986   4.479   9.067
39959SOL    HW121716   1.964   4.406   9.010
39959SOL    HW221717   2.082   4.483   9.066
39960SOL     OW21718   3.640  14.715   2.606
39960SOL    HW121719   3.694  14.664   2.546
39960SOL    HW221720   3.686  14.710   2.690
39961SOL     OW21721  13.001  11.066   8.332
39961SOL    HW121722  12.958  11.044   8.415
39961SOL    HW221723  13.090  11.090   8.358
39962SOL     OW21724   6.621   4.592   2.633
39962SOL    HW121725   6.669   4.564   2.710
39962SOL    HW221726   6.623   4.516   2.575
39963SOL     OW21727  10.926   1.961   8.355
39963SOL    HW121728  10.900   2.016   8.429
39963SOL    HW221729  10.865   1.888   8.356
39964SOL     OW21730   6.062   8.810   6.016
39964SOL    HW121731   6.150   8.808   6.054
39964SOL    HW221732   6.004   8.827   6.090
39965SOL     OW21733   6.798   4.450   8.427
39965SOL    HW121734   6.757   4.516   8.371
39965SOL    HW221735   6.886   4.483   8.443
39966SOL     OW21736   0.412   9.725  12.279
39966SOL    HW121737   0.340   9.680  12.324
39966SOL    HW221738   0.440   9.664  12.211
39967SOL     OW21739   7.912   1.675   6.921
39967SOL    HW121740   7.898   1.691   7.015
39967SOL    HW221741   7.940   1.759   6.886
39968SOL     OW21742  10.720  13.013  10.318
39968SOL    HW121743  10.709  13.089  10.261
39968SOL    HW221744  10.810  13.020  10.351
39969SOL     OW21745  11.375   2.594   1.766
39969SOL    HW121746  11.408   2.558   1.848
39969SOL    HW221747  11.317   2.527   1.732
39970SOL     OW21748   3.848   9.940   3.657
39970SOL    HW121749   3.830   9.907   3.745
39970SOL    HW221750   3.776   9.906   3.604
39971SOL     OW21751   6.526   7.205   9.538
39971SOL    HW121752   6.559   7.295   9.543
39971SOL    HW221753   6.466   7.206   9.464
39972SOL     OW21754   4.886   2.605   1.109
39972SOL    HW121755   4.957   2.575   1.053
39972SOL    HW221756   4.839   2.525   1.134
39973SOL     OW21757   8.961  11.930   5.493
39973SOL    HW121758   8.909  11.850   5.506
39973SOL    HW221759   9.008  11.914   5.411
39974SOL     OW21760   2.393   5.869   8.691
39974SOL    HW121761   2.338   5.927   8.639
39974SOL    HW221762   2.376   5.895   8.782
39975SOL     OW21763   7.974   8.267   8.323
39975SOL    HW121764   7.993   8.173   8.334
39975SOL    HW221765   7.960   8.278   8.229
39976SOL     OW21766   7.939  14.327   8.419
39976SOL    HW121767   7.870  14.342   8.356
39976SOL    HW221768   8.010  14.288   8.368
39977SOL     OW21769   0.672   1.329  10.964
39977SOL    HW121770   0.686   1.370  11.049
39977SOL    HW221771   0.596   1.375  10.928
39978SOL     OW21772   7.368   3.627  14.239
39978SOL    HW121773   7.282   3.667  14.251
39978SOL    HW221774   7.419   3.692  14.191
39979SOL     OW21775  14.068  10.197  12.789
39979SOL    HW121776  13.980  10.220  12.819
39979SOL    HW221777  14.067  10.101  12.785
39980SOL     OW21778   8.352   7.740   3.245
39980SOL    HW121779   8.315   7.815   3.201
39980SOL    HW221780   8.447   7.755   3.244
39981SOL     OW21781   4.692   3.421  14.254
39981SOL    HW121782   4.736   3.355  14.308
39981SOL    HW221783   4.735   3.503  14.276
39982SOL     OW21784   3.319   0.986  10.008
39982SOL    HW121785   3.324   0.940  10.092
39982SOL    HW221786   3.227   0.979   9.982
39983SOL     OW21787  10.019  12.401  14.601
39983SOL    HW121788  10.008  12.346  14.524
39983SOL    HW221789  10.109  12.384  14.630
39984SOL     OW21790   4.878   5.567  14.656
39984SOL    HW121791   4.873   5.661  14.676
39984SOL    HW221792   4.886   5.564  14.561
39985SOL     OW21793   6.126   7.531   2.819
39985SOL    HW121794   6.132   7.436   2.827
39985SOL    HW221795   6.208   7.557   2.777
39986SOL     OW21796   4.648   2.833  12.101
39986SOL    HW121797   4.725   2.781  12.125
39986SOL    HW221798   4.610   2.787  12.026
39987SOL     OW21799   5.212   1.925   8.402
39987SOL    HW121800   5.159   1.998   8.370
39987SOL    HW221801   5.168   1.847   8.368
39988SOL     OW21802  13.872   1.283   1.093
39988SOL    HW121803  13.898   1.230   1.169
39988SOL    HW221804  13.953   1.295   1.043
39989SOL     OW21805   7.156  13.462   0.111
39989SOL    HW121806   7.231  13.476   0.053
39989SOL    HW221807   7.104  13.542   0.102
39990SOL     OW21808   7.676   6.550   9.573
39990SOL    HW121809   7.671   6.646   9.579
39990SOL    HW221810   7.745   6.534   9.508
39991SOL     OW21811  10.556   2.163   3.442
39991SOL    HW121812  10.593   2.176   3.529
39991SOL    HW221813  10.471   2.124   3.457
39992SOL     OW21814   8.055   9.930   8.460
39992SOL    HW121815   7.971   9.896   8.490
39992SOL    HW221816   8.120   9.868   8.494
39993SOL     OW21817   2.224   7.674   1.270
39993SOL    HW121818   2.169   7.601   1.244
39993SOL    HW221819   2.186   7.705   1.352
39994SOL     OW21820   9.658  10.697   0.716
39994SOL    HW121821   9.670  10.773   0.659
39994SOL    HW221822   9.564  10.692   0.729
39995SOL     OW21823   0.441  14.214  12.034
39995SOL    HW121824   0.425  14.222  11.940
39995SOL    HW221825   0.489  14.293  12.057
39996SOL     OW21826  10.683   4.145  12.997
39996SOL    HW121827  10.758   4.115  12.945
39996SOL    HW221828  10.711   4.136  13.088
39997SOL     OW21829   7.231   6.900  13.829
39997SOL    HW121830   7.266   6.890  13.918
39997SOL    HW221831   7.291   6.852  13.773
39998SOL     OW21832   3.130  14.561   7.006
39998SOL    HW121833   3.132  14.582   7.099
39998SOL    HW221834   3.039  14.540   6.987
39999SOL     OW21835   7.653   6.482   7.021
39999SOL    HW121836   7.638   6.572   7.049
39999SOL    HW221837   7.734   6.486   6.970
40000SOL     OW21838  10.989   2.218   3.629
40000SOL    HW121839  10.970   2.164   3.553
40000SOL    HW221840  11.084   2.219   3.635
40001SOL     OW21841  13.282  14.062   0.531
40001SOL    HW121842  13.189  14.040   0.531
40001SOL    HW221843  13.311  14.045   0.442
40002SOL     OW21844  13.380  11.363  12.142
40002SOL    HW121845  13.406  11.315  12.064
40002SOL    HW221846  13.290  11.390  12.125
40003SOL     OW21847   1.280  12.920   2.561
40003SOL    HW121848   1.325  13.004   2.548
40003SOL    HW221849   1.239  12.928   2.647
40004SOL     OW21850   8.326  12.998   7.169
40004SOL    HW121851   8.328  12.903   7.156
40004SOL    HW221852   8.395  13.014   7.233
40005SOL     OW21853   7.033   7.916   9.703
40005SOL    HW121854   7.099   7.985   9.700
40005SOL    HW221855   6.990   7.927   9.788
40006SOL     OW21856  12.353   5.125  13.232
40006SOL    HW121857  12.376   5.115  13.139
40006SOL    HW221858  12.359   5.220  13.247
40007SOL     OW21859   5.076   3.014   4.524
40007SOL    HW121860   5.019   2.966   4.584
40007SOL    HW221861   5.043   3.104   4.527
40008SOL     OW21862   3.391  11.059  13.919
40008SOL    HW121863   3.426  11.134  13.872
40008SOL    HW221864   3.299  11.080  13.935
40009SOL     OW21865  11.306   1.292   3.153
40009SOL    HW121866  11.256   1.356   3.102
40009SOL    HW221867  11.379   1.343   3.189
40010SOL     OW21868  10.996  11.313   6.961
40010SOL    HW121869  10.939  11.365   6.903
40010SOL    HW221870  11.005  11.367   7.039
40011SOL     OW21871   1.704   1.940   4.407
40011SOL    HW121872   1.660   1.901   4.331
40011SOL    HW221873   1.642   1.929   4.479
40012SOL     OW21874   0.359  13.717  12.052
40012SOL    HW121875   0.321  13.700  12.138
40012SOL    HW221876   0.352  13.812  12.041
40013SOL     OW21877  10.488   0.112   4.933
40013SOL    HW121878  10.577   0.146   4.937
40013SOL    HW221879  10.472   0.076   5.020
40014SOL     OW21880   7.412   8.796  12.948
40014SOL    HW121881   7.497   8.818  12.987
40014SOL    HW221882   7.427   8.796  12.854
40015SOL     OW21883   9.894  10.683   0.409
40015SOL    HW121884   9.886  10.631   0.329
40015SOL    HW221885   9.961  10.638   0.460
40016SOL     OW21886   3.552  10.002  12.705
40016SOL    HW121887   3.534   9.963  12.619
40016SOL    HW221888   3.619   9.945  12.743
40017SOL     OW21889  12.809   8.839   5.034
40017SOL    HW121890  12.880   8.785   5.070
40017SOL    HW221891  12.834   8.854   4.943
40018SOL     OW21892   8.133   7.414  12.261
40018SOL    HW121893   8.226   7.436  12.268
40018SOL    HW221894   8.129   7.321  12.285
40019SOL     OW21895   6.093  11.390   0.593
40019SOL    HW121896   6.187  11.380   0.605
40019SOL    HW221897   6.084  11.440   0.512
40020SOL     OW21898   8.333  14.303   0.806
40020SOL    HW121899   8.315  14.397   0.807
40020SOL    HW221900   8.309  14.275   0.718
40021SOL     OW21901   2.640   4.747   6.999
40021SOL    HW121902   2.606   4.745   6.910
40021SOL    HW221903   2.733   4.726   6.990
40022SOL     OW21904  13.790   1.269   7.961
40022SOL    HW121905  13.823   1.333   8.024
40022SOL    HW221906  13.867   1.220   7.934
40023SOL     OW21907   4.159  11.680   7.815
40023SOL    HW121908   4.241  11.647   7.778
40023SOL    HW221909   4.172  11.674   7.910
40024SOL     OW21910   6.145   7.664  11.012
40024SOL    HW121911   6.176   7.601  11.076
40024SOL    HW221912   6.078   7.617  10.962
40025SOL     OW21913   6.945   2.748   8.597
40025SOL    HW121914   7.040   2.739   8.590
40025SOL    HW221915   6.911   2.671   8.552
40026SOL     OW21916   9.908  11.292  10.616
40026SOL    HW121917   9.872  11.272  10.530
40026SOL    HW221918   9.864  11.372  10.644
40027SOL     OW21919  14.246   8.961   3.212
40027SOL    HW121920  14.262   9.055   3.219
40027SOL    HW221921  14.299   8.922   3.281
40028SOL     OW21922  11.048   1.894   5.162
40028SOL    HW121923  11.049   1.804   5.194
40028SOL    HW221924  11.072   1.887   5.069
40029SOL     OW21925   7.127  12.001   3.778
40029SOL    HW121926   7.113  12.084   3.824
40029SOL    HW221927   7.070  11.939   3.822
40030SOL     OW21928   0.113   3.347  13.986
40030SOL    HW121929   0.158   3.357  14.069
40030SOL    HW221930   0.159   3.406  13.926
40031SOL     OW21931   4.806  10.138  13.037
40031SOL    HW121932   4.728  10.187  13.013
40031SOL    HW221933   4.773  10.065  13.089
40032SOL     OW21934  10.227   9.059   1.966
40032SOL    HW121935  10.296   8.993   1.967
40032SOL    HW221936  10.163   9.026   1.902
40033SOL     OW21937   7.364   4.369   3.623
40033SOL    HW121938   7.362   4.454   3.667
40033SOL    HW221939   7.336   4.388   3.533
40034SOL     OW21940   3.605  13.218   5.485
40034SOL    HW121941   3.611  13.241   5.577
40034SOL    HW221942   3.638  13.296   5.439
40035SOL     OW21943  10.498  14.473  13.293
40035SOL    HW121944  10.426  14.443  13.349
40035SOL    HW221945  10.464  14.552  13.251
40036SOL     OW21946  14.047  13.817  12.375
40036SOL    HW121947  14.040  13.723  12.358
40036SOL    HW221948  13.957  13.849  12.372
40037SOL     OW21949   2.829   0.188   0.211
40037SOL    HW121950   2.886   0.246   0.261
40037SOL    HW221951   2.813   0.113   0.269
40038SOL     OW21952  10.412  12.327   4.541
40038SOL    HW121953  10.375  12.336   4.629
40038SOL    HW221954  10.346  12.279   4.491
40039SOL     OW21955   5.404  14.832   5.247
40039SOL    HW121956   5.374  14.855   5.159
40039SOL    HW221957   5.486   0.003   5.257
40040SOL     OW21958   8.604   1.467   9.641
40040SOL    HW121959   8.566   1.381   9.662
40040SOL    HW221960   8.698   1.452   9.640
40041SOL     OW21961   2.520  10.791  11.851
40041SOL    HW121962   2.464  10.716  11.872
40041SOL    HW221963   2.605  10.767  11.887
40042SOL     OW21964   0.279   8.762  10.046
40042SOL    HW121965   0.191   8.796  10.028
40042SOL    HW221966   0.313   8.820  10.114
40043SOL     OW21967   6.225   2.382   4.870
40043SOL    HW121968   6.202   2.305   4.818
40043SOL    HW221969   6.289   2.429   4.816
40044SOL     OW21970   5.233  13.191   1.905
40044SOL    HW121971   5.198  13.227   1.986
40044SOL    HW221972   5.293  13.122   1.934
40045SOL     OW21973   5.921  13.087  10.070
40045SOL    HW121974   5.929  13.085   9.975
40045SOL    HW221975   5.902  13.178  10.091
40046SOL     OW21976  12.189  12.609  10.151
40046SOL    HW121977  12.098  12.631  10.130
40046SOL    HW221978  12.214  12.544  10.085
40047SOL     OW21979  13.097  14.648  10.151
40047SOL    HW121980  13.168  14.641  10.088
40047SOL    HW221981  13.123  14.720  10.209
40048SOL     OW21982   5.884   8.516   6.890
40048SOL    HW121983   5.816   8.495   6.954
40048SOL    HW221984   5.961   8.467   6.919
40049SOL     OW21985  11.823  13.274   7.333
40049SOL    HW121986  11.873  13.225   7.398
40049SOL    HW221987  11.733  13.272   7.366
40050SOL     OW21988  12.559  12.772   0.039
40050SOL    HW121989  12.578  12.855   0.082
40050SOL    HW221990  12.464  12.764   0.043
40051SOL     OW21991   4.190   8.995  10.013
40051SOL    HW121992   4.153   9.079   9.983
40051SOL    HW221993   4.200   8.944   9.933
40052SOL     OW21994   2.839   2.363   8.398
40052SOL    HW121995   2.902   2.304   8.439
40052SOL    HW221996   2.880   2.387   8.314
40053SOL     OW21997  11.564   1.352   8.625
40053SOL    HW121998  11.481   1.303   8.615
40053SOL    HW221999  11.543   1.440   8.596
40054SOL     OW22000   0.549   4.421   7.810
40054SOL    HW122001   0.628   4.462   7.846
40054SOL    HW222002   0.477   4.460   7.859
40055SOL     OW22003   8.445  10.544  11.117
40055SOL    HW122004   8.463  10.452  11.136
40055SOL    HW222005   8.371  10.542  11.057
40056SOL     OW22006   5.672   8.645  11.715
40056SOL    HW122007   5.756   8.668  11.675
40056SOL    HW222008   5.681   8.671  11.807
40057SOL     OW22009   2.081   2.699   4.040
40057SOL    HW122010   2.140   2.665   3.973
40057SOL    HW222011   2.134   2.700   4.120
40058SOL     OW22012   5.041   4.427   2.994
40058SOL    HW122013   5.124   4.398   3.031
40058SOL    HW222014   5.030   4.375   2.914
40059SOL     OW22015   5.079   7.363   7.912
40059SOL    HW122016   4.998   7.411   7.932
40059SOL    HW222017   5.072   7.282   7.961
40060SOL     OW22018  14.372   0.763   8.828
40060SOL    HW122019  14.413   0.762   8.915
40060SOL    HW222020  14.435   0.717   8.772
40061SOL     OW22021   3.685  13.953   8.215
40061SOL    HW122022   3.663  13.865   8.247
40061SOL    HW222023   3.731  13.994   8.288
40062SOL     OW22024  12.846  13.882   5.780
40062SOL    HW122025  12.825  13.959   5.727
40062SOL    HW222026  12.834  13.808   5.722
40063SOL     OW22027  12.473   5.465   4.889
40063SOL    HW122028  12.459   5.394   4.826
40063SOL    HW222029  12.409   5.532   4.863
40064SOL     OW22030   2.943  11.706   5.017
40064SOL    HW122031   2.848  11.709   5.033
40064SOL    HW222032   2.951  11.703   4.922
40065SOL     OW22033   3.821   8.721   0.683
40065SOL    HW122034   3.858   8.650   0.736
40065SOL    HW222035   3.845   8.700   0.593
40066SOL     OW22036   4.956   5.996   6.991
40066SOL    HW122037   4.929   5.930   7.055
40066SOL    HW222038   4.883   6.001   6.929
40067SOL     OW22039   2.585  14.302   1.681
40067SOL    HW122040   2.575  14.293   1.586
40067SOL    HW222041   2.507  14.261   1.718
40068SOL     OW22042   9.223   5.746  10.174
40068SOL    HW122043   9.285   5.796  10.121
40068SOL    HW222044   9.144   5.741  10.120
40069SOL     OW22045   0.533   3.428   7.142
40069SOL    HW122046   0.502   3.340   7.159
40069SOL    HW222047   0.618   3.432   7.186
40070SOL     OW22048   9.511  13.983  13.049
40070SOL    HW122049   9.460  14.030  13.114
40070SOL    HW222050   9.592  14.034  13.041
40071SOL     OW22051  12.228   9.934  13.602
40071SOL    HW122052  12.172   9.921  13.678
40071SOL    HW222053  12.307   9.883  13.620
40072SOL     OW22054  11.300  14.008   5.126
40072SOL    HW122055  11.231  13.944   5.143
40072SOL    HW222056  11.256  14.080   5.081
40073SOL     OW22057   7.464   3.907   6.867
40073SOL    HW122058   7.557   3.916   6.887
40073SOL    HW222059   7.427   3.993   6.887
40074SOL     OW22060   7.000   6.534   0.424
40074SOL    HW122061   7.063   6.553   0.494
40074SOL    HW222062   7.051   6.546   0.343
40075SOL     OW22063   8.915   5.297  13.556
40075SOL    HW122064   8.836   5.313  13.504
40075SOL    HW222065   8.913   5.204  13.575
40076SOL     OW22066  10.193   7.298   6.422
40076SOL    HW122067  10.161   7.208   6.418
40076SOL    HW222068  10.286   7.290   6.445
40077SOL     OW22069   7.448  13.838  10.325
40077SOL    HW122070   7.492  13.771  10.272
40077SOL    HW222071   7.461  13.919  10.276
40078SOL     OW22072  13.313   7.403  12.614
40078SOL    HW122073  13.291   7.384  12.705
40078SOL    HW222074  13.350   7.321  12.581
40079SOL     OW22075   4.297   1.324  12.745
40079SOL    HW122076   4.256   1.283  12.669
40079SOL    HW222077   4.383   1.351  12.715
40080SOL     OW22078   3.910   0.614  11.081
40080SOL    HW122079   3.915   0.574  11.168
40080SOL    HW222080   3.852   0.690  11.093
40081SOL     OW22081   6.035  13.484  10.949
40081SOL    HW122082   6.039  13.517  10.859
40081SOL    HW222083   6.102  13.534  10.996
40082SOL     OW22084   8.396   2.037   8.953
40082SOL    HW122085   8.372   2.129   8.948
40082SOL    HW222086   8.342   1.994   8.887
40083SOL     OW22087  12.923  14.434  14.772
40083SOL    HW122088  12.857  14.496  14.804
40083SOL    HW222089  12.925  14.447  14.678
40084SOL     OW22090   4.938   8.146   8.790
40084SOL    HW122091   4.944   8.090   8.712
40084SOL    HW222092   4.888   8.094   8.853
40085SOL     OW22093  10.824   1.332  13.111
40085SOL    HW122094  10.800   1.240  13.100
40085SOL    HW222095  10.910   1.330  13.153
40086SOL     OW22096   9.755  10.660   6.724
40086SOL    HW122097   9.756  10.660   6.628
40086SOL    HW222098   9.834  10.709   6.748
40087SOL     OW22099   6.037   5.433  14.159
40087SOL    HW122100   6.013   5.358  14.213
40087SOL    HW222101   6.034   5.508  14.219
40088SOL     OW22102   2.765  14.605   9.878
40088SOL    HW122103   2.838  14.660   9.907
40088SOL    HW222104   2.792  14.516   9.903
40089SOL     OW22105   3.707   8.465   7.101
40089SOL    HW122106   3.707   8.511   7.185
40089SOL    HW222107   3.650   8.389   7.115
40090SOL     OW22108   6.476   0.927  14.403
40090SOL    HW122109   6.532   0.856  14.433
40090SOL    HW222110   6.461   0.908  14.310
40091SOL     OW22111   6.466   3.196   4.925
40091SOL    HW122112   6.407   3.271   4.937
40091SOL    HW222113   6.529   3.203   4.996
40092SOL     OW22114   9.608  12.934   5.894
40092SOL    HW122115   9.561  12.998   5.842
40092SOL    HW222116   9.619  12.976   5.980
40093SOL     OW22117   8.379   4.991  11.878
40093SOL    HW122118   8.347   4.904  11.900
40093SOL    HW222119   8.417   5.024  11.959
40094SOL     OW22120   8.990   4.728   0.512
40094SOL    HW122121   8.978   4.648   0.461
40094SOL    HW222122   9.044   4.701   0.586
40095SOL     OW22123   6.325   7.904  12.864
40095SOL    HW122124   6.230   7.906  12.849
40095SOL    HW222125   6.361   7.879  12.779
40096SOL     OW22126  14.257  12.575   8.742
40096SOL    HW122127  14.234  12.532   8.825
40096SOL    HW222128  14.316  12.645   8.768
40097SOL     OW22129  12.441  12.311   2.826
40097SOL    HW122130  12.499  12.379   2.861
40097SOL    HW222131  12.501  12.248   2.785
40098SOL     OW22132  10.142  14.034  12.774
40098SOL    HW122133  10.051  14.026  12.803
40098SOL    HW222134  10.163  13.947  12.739
40099SOL     OW22135   0.894   7.483   0.345
40099SOL    HW122136   0.861   7.562   0.302
40099SOL    HW222137   0.977   7.465   0.302
40100SOL     OW22138   2.277  10.249   7.833
40100SOL    HW122139   2.271  10.324   7.774
40100SOL    HW222140   2.192  10.246   7.877
40101SOL     OW22141  10.563   1.090   1.673
40101SOL    HW122142  10.487   1.132   1.633
40101SOL    HW222143  10.635   1.151   1.658
40102SOL     OW22144   0.566   0.352  10.823
40102SOL    HW122145   0.609   0.280  10.777
40102SOL    HW222146   0.473   0.341  10.803
40103SOL     OW22147   1.542   3.830   8.405
40103SOL    HW122148   1.494   3.873   8.476
40103SOL    HW222149   1.575   3.749   8.444
40104SOL     OW22150   8.288  10.630   7.482
40104SOL    HW122151   8.324  10.562   7.425
40104SOL    HW222152   8.354  10.698   7.484
40105SOL     OW22153   9.407  12.461  13.620
40105SOL    HW122154   9.441  12.399  13.555
40105SOL    HW222155   9.347  12.410  13.674
40106SOL     OW22156   6.380  12.789   5.491
40106SOL    HW122157   6.331  12.731   5.433
40106SOL    HW222158   6.373  12.876   5.450
40107SOL     OW22159   9.862   8.479   8.814
40107SOL    HW122160   9.936   8.523   8.773
40107SOL    HW222161   9.883   8.386   8.809
40108SOL     OW22162   0.448   0.670  14.166
40108SOL    HW122163   0.416   0.632  14.084
40108SOL    HW222164   0.380   0.650  14.230
40109SOL     OW22165   9.959  13.232  10.345
40109SOL    HW122166   9.937  13.264  10.432
40109SOL    HW222167  10.039  13.279  10.322
40110SOL     OW22168   4.716   2.051   0.650
40110SOL    HW122169   4.809   2.029   0.656
40110SOL    HW222170   4.709   2.137   0.691
40111SOL     OW22171   9.370   9.700  11.207
40111SOL    HW122172   9.427   9.777  11.209
40111SOL    HW222173   9.284   9.733  11.185
40112SOL     OW22174   2.626  13.437   8.367
40112SOL    HW122175   2.555  13.383   8.333
40112SOL    HW222176   2.622  13.424   8.462
40113SOL     OW22177   4.114   3.471  11.017
40113SOL    HW122178   4.081   3.413  11.085
40113SOL    HW222179   4.036   3.511  10.980
40114SOL     OW22180  14.066   1.317   5.745
40114SOL    HW122181  14.048   1.311   5.651
40114SOL    HW222182  14.045   1.230   5.778
40115SOL     OW22183   3.667   3.778   9.861
40115SOL    HW122184   3.735   3.779   9.929
40115SOL    HW222185   3.716   3.784   9.779
40116SOL     OW22186  13.807   8.176   0.696
40116SOL    HW122187  13.765   8.093   0.721
40116SOL    HW222188  13.761   8.203   0.616
40117SOL     OW22189  14.151  12.850   1.197
40117SOL    HW122190  14.139  12.773   1.142
40117SOL    HW222191  14.193  12.914   1.140
40118SOL     OW22192   8.453   0.159   4.993
40118SOL    HW122193   8.451   0.228   5.059
40118SOL    HW222194   8.504   0.088   5.034
40119SOL     OW22195  10.481  13.366   5.313
40119SOL    HW122196  10.487  13.357   5.218
40119SOL    HW222197  10.425  13.443   5.326
40120SOL     OW22198   1.366   4.332   4.144
40120SOL    HW122199   1.308   4.273   4.191
40120SOL    HW222200   1.449   4.284   4.138
40121SOL     OW22201   9.483  10.639   6.685
40121SOL    HW122202   9.465  10.712   6.744
40121SOL    HW222203   9.572  10.610   6.708
40122SOL     OW22204   1.772   5.898  13.181
40122SOL    HW122205   1.786   5.987  13.148
40122SOL    HW222206   1.860   5.860  13.184
40123SOL     OW22207  11.922  11.213  11.399
40123SOL    HW122208  11.837  11.223  11.442
40123SOL    HW222209  11.981  11.186  11.470
40124SOL     OW22210   0.500  11.730  11.370
40124SOL    HW122211   0.523  11.639  11.389
40124SOL    HW222212   0.414  11.743  11.411
40125SOL     OW22213   5.076   7.748  10.246
40125SOL    HW122214   5.079   7.655  10.223
40125SOL    HW222215   5.162   7.781  10.220
40126SOL     OW22216   7.264   6.245   8.749
40126SOL    HW122217   7.214   6.267   8.671
40126SOL    HW222218   7.283   6.329   8.791
40127SOL     OW22219  13.956   8.066   3.978
40127SOL    HW122220  13.992   8.001   3.919
40127SOL    HW222221  13.968   8.150   3.932
40128SOL     OW22222  13.257  14.141  14.098
40128SOL    HW122223  13.289  14.219  14.142
40128SOL    HW222224  13.335  14.091  14.076
40129SOL     OW22225   9.375   0.587   0.611
40129SOL    HW122226   9.434   0.524   0.571
40129SOL    HW222227   9.351   0.647   0.541
40130SOL     OW22228  12.370   3.343  13.325
40130SOL    HW122229  12.451   3.293  13.322
40130SOL    HW222230  12.360   3.367  13.417
40131SOL     OW22231  10.727   7.239  10.797
40131SOL    HW122232  10.794   7.262  10.733
40131SOL    HW222233  10.738   7.146  10.812
40132SOL     OW22234   7.144   2.337   2.924
40132SOL    HW122235   7.176   2.257   2.966
40132SOL    HW222236   7.066   2.361   2.974
40133SOL     OW22237   9.330   7.632   1.468
40133SOL    HW122238   9.397   7.567   1.446
40133SOL    HW222239   9.274   7.588   1.532
40134SOL     OW22240   9.200   3.508   4.387
40134SOL    HW122241   9.119   3.462   4.410
40134SOL    HW222242   9.219   3.481   4.298
40135SOL     OW22243   1.533   9.052   2.906
40135SOL    HW122244   1.544   9.016   2.994
40135SOL    HW222245   1.539   8.976   2.848
40136SOL     OW22246   6.613   4.161   7.224
40136SOL    HW122247   6.658   4.173   7.308
40136SOL    HW222248   6.520   4.168   7.246
40137SOL     OW22249  12.710   8.209   3.185
40137SOL    HW122250  12.644   8.230   3.118
40137SOL    HW222251  12.661   8.203   3.266
40138SOL     OW22252   0.082  12.117   7.058
40138SOL    HW122253   0.115  12.205   7.039
40138SOL    HW222254   0.124  12.092   7.140
40139SOL     OW22255   8.619   9.045   5.224
40139SOL    HW122256   8.713   9.033   5.209
40139SOL    HW222257   8.602   9.004   5.309
40140SOL     OW22258  10.766  13.586   4.986
40140SOL    HW122259  10.820  13.576   5.064
40140SOL    HW222260  10.704  13.513   4.990
40141SOL     OW22261   6.605   7.757  10.050
40141SOL    HW122262   6.578   7.849  10.053
40141SOL    HW222263   6.666   7.752   9.977
40142SOL     OW22264   8.235  12.571   6.364
40142SOL    HW122265   8.192  12.614   6.439
40142SOL    HW222266   8.253  12.643   6.303
40143SOL     OW22267   1.127   3.665   0.566
40143SOL    HW122268   1.035   3.677   0.542
40143SOL    HW222269   1.176   3.699   0.491
40144SOL     OW22270  13.906   5.100   0.275
40144SOL    HW122271  13.859   5.076   0.196
40144SOL    HW222272  13.941   5.187   0.257
40145SOL     OW22273   1.025   9.895  10.210
40145SOL    HW122274   0.947   9.889  10.154
40145SOL    HW222275   1.014   9.825  10.274
40146SOL     OW22276   4.137   2.233   6.762
40146SOL    HW122277   4.128   2.155   6.706
40146SOL    HW222278   4.183   2.200   6.840
40147SOL     OW22279   6.060   0.759   1.717
40147SOL    HW122280   6.145   0.803   1.721
40147SOL    HW222281   6.078   0.677   1.669
40148SOL     OW22282   6.449   0.765   7.533
40148SOL    HW122283   6.448   0.781   7.628
40148SOL    HW222284   6.463   0.670   7.525
40149SOL     OW22285  10.981  10.862  13.128
40149SOL    HW122286  11.047  10.913  13.176
40149SOL    HW222287  10.920  10.928  13.095
40150SOL     OW22288   1.349   5.907   9.051
40150SOL    HW122289   1.288   5.886   9.120
40150SOL    HW222290   1.386   5.992   9.076
40151SOL     OW22291  10.112   0.417   8.278
40151SOL    HW122292  10.114   0.333   8.231
40151SOL    HW222293  10.153   0.479   8.217
40152SOL     OW22294   1.623   5.555   4.621
40152SOL    HW122295   1.668   5.636   4.599
40152SOL    HW222296   1.619   5.555   4.716
40153SOL     OW22297  11.283   7.191   6.629
40153SOL    HW122298  11.311   7.224   6.544
40153SOL    HW222299  11.251   7.269   6.676
40154SOL     OW22300   0.239   6.151   5.388
40154SOL    HW122301   0.252   6.220   5.452
40154SOL    HW222302   0.327   6.131   5.357
40155SOL     OW22303  14.349  12.292  10.718
40155SOL    HW122304  14.410  12.322  10.785
40155SOL    HW222305  14.405  12.263  10.646
40156SOL     OW22306  14.414   2.304   3.489
40156SOL    HW122307  14.372   2.221   3.515
40156SOL    HW222308  14.404   2.360   3.566
40157SOL     OW22309   2.448   8.906   0.203
40157SOL    HW122310   2.526   8.910   0.259
40157SOL    HW222311   2.395   8.836   0.242
40158SOL     OW22312   7.266   4.320   0.511
40158SOL    HW122313   7.345   4.344   0.463
40158SOL    HW222314   7.292   4.320   0.603
40159SOL     OW22315   9.508   7.066  13.848
40159SOL    HW122316   9.573   7.099  13.910
40159SOL    HW222317   9.467   6.992  13.893
40160SOL     OW22318   6.804   1.920  10.704
40160SOL    HW122319   6.809   1.884  10.615
40160SOL    HW222320   6.889   1.962  10.718
40161SOL     OW22321  14.734   6.911   9.327
40161SOL    HW122322  14.724   6.838   9.266
40161SOL    HW222323  14.828   6.929   9.327
40162SOL     OW22324  12.930  12.120   6.827
40162SOL    HW122325  12.967  12.038   6.794
40162SOL    HW222326  13.004  12.166   6.867
40163SOL     OW22327  12.285   1.795   2.216
40163SOL    HW122328  12.223   1.727   2.240
40163SOL    HW222329  12.272   1.808   2.122
40164SOL     OW22330   4.967   7.442   5.439
40164SOL    HW122331   4.900   7.493   5.393
40164SOL    HW222332   5.032   7.507   5.466
40165SOL     OW22333  11.866  13.787  14.803
40165SOL    HW122334  11.809  13.795  14.726
40165SOL    HW222335  11.814  13.820  14.875
40166SOL     OW22336  11.424  13.343   3.639
40166SOL    HW122337  11.346  13.383   3.601
40166SOL    HW222338  11.406  13.340   3.733
40167SOL     OW22339  14.194  14.655   8.456
40167SOL    HW122340  14.200  14.605   8.538
40167SOL    HW222341  14.284  14.674   8.433
40168SOL     OW22342   2.624  13.851   3.147
40168SOL    HW122343   2.595  13.792   3.077
40168SOL    HW222344   2.639  13.934   3.102
40169SOL     OW22345  13.361   1.176   1.867
40169SOL    HW122346  13.285   1.123   1.845
40169SOL    HW222347  13.329   1.266   1.871
40170SOL     OW22348   6.908  11.382  10.080
40170SOL    HW122349   6.976  11.316  10.096
40170SOL    HW222350   6.904  11.433  10.160
40171SOL     OW22351  14.812   5.131   7.328
40171SOL    HW122352  14.839   5.048   7.288
40171SOL    HW222353  14.800   5.111   7.421
40172SOL     OW22354  10.038  10.789   9.291
40172SOL    HW122355  10.108  10.766   9.352
40172SOL    HW222356  10.019  10.707   9.245
40173SOL     OW22357   8.947   9.597   8.142
40173SOL    HW122358   8.858   9.610   8.110
40173SOL    HW222359   8.990   9.682   8.130
40174SOL     OW22360   8.504   0.849   3.234
40174SOL    HW122361   8.452   0.896   3.300
40174SOL    HW222362   8.489   0.898   3.153
40175SOL     OW22363  10.955  12.190  10.155
40175SOL    HW122364  10.977  12.280  10.134
40175SOL    HW222365  10.863  12.180  10.129
40176SOL     OW22366  11.905   7.036   8.799
40176SOL    HW122367  11.811   7.022   8.807
40176SOL    HW222368  11.935   6.967   8.739
40177SOL     OW22369   4.889   6.551   5.202
40177SOL    HW122370   4.944   6.514   5.133
40177SOL    HW222371   4.816   6.491   5.211
40178SOL     OW22372   1.505  14.819   9.934
40178SOL    HW122373   1.453  14.805   9.856
40178SOL    HW222374   1.524   0.034   9.934
40179SOL     OW22375   0.067  10.958  13.376
40179SOL    HW122376   0.095  11.049  13.384
40179SOL    HW222377   0.045  10.931  13.465
40180SOL     OW22378  14.200  13.195   0.665
40180SOL    HW122379  14.147  13.262   0.621
40180SOL    HW222380  14.143  13.118   0.669
40181SOL     OW22381   7.259  12.065  14.766
40181SOL    HW122382   7.275  12.158  14.754
40181SOL    HW222383   7.183  12.046  14.711
40182SOL     OW22384  11.477  11.481   9.028
40182SOL    HW122385  11.459  11.400   9.075
40182SOL    HW222386  11.391  11.519   9.011
40183SOL     OW22387   1.699  10.525  14.698
40183SOL    HW122388   1.759  10.542  14.625
40183SOL    HW222389   1.702  10.431  14.711
40184SOL     OW22390   7.404  12.711   7.342
40184SOL    HW122391   7.385  12.660   7.264
40184SOL    HW222392   7.462  12.656   7.394
40185SOL     OW22393  13.392  11.310   0.844
40185SOL    HW122394  13.362  11.372   0.777
40185SOL    HW222395  13.317  11.252   0.859
40186SOL     OW22396  13.560   9.846  11.589
40186SOL    HW122397  13.582   9.864  11.680
40186SOL    HW222398  13.515   9.925  11.559
40187SOL     OW22399   3.769  11.384  10.205
40187SOL    HW122400   3.816  11.392  10.122
40187SOL    HW222401   3.732  11.295  10.203
40188SOL     OW22402  10.714  10.856   5.352
40188SOL    HW122403  10.756  10.939   5.332
40188SOL    HW222404  10.713  10.852   5.448
40189SOL     OW22405  13.181  10.383   6.681
40189SOL    HW122406  13.165  10.453   6.744
40189SOL    HW222407  13.274  10.363   6.690
40190SOL     OW22408   4.316  14.554  12.543
40190SOL    HW122409   4.220  14.550  12.547
40190SOL    HW222410   4.335  14.583  12.454
40191SOL     OW22411   1.195   9.827   2.013
40191SOL    HW122412   1.137   9.765   2.058
40191SOL    HW222413   1.144   9.856   1.937
40192SOL     OW22414  12.451   5.092   6.980
40192SOL    HW122415  12.387   5.163   6.987
40192SOL    HW222416  12.407   5.017   7.020
40193SOL     OW22417  13.430   7.102   9.025
40193SOL    HW122418  13.506   7.156   9.008
40193SOL    HW222419  13.358   7.145   8.978
40194SOL     OW22420  12.549   2.385   0.559
40194SOL    HW122421  12.572   2.458   0.502
40194SOL    HW222422  12.475   2.417   0.611
40195SOL     OW22423   2.455  11.825   4.475
40195SOL    HW122424   2.426  11.910   4.508
40195SOL    HW222425   2.382  11.766   4.492
40196SOL     OW22426   3.520   3.227   7.575
40196SOL    HW122427   3.489   3.304   7.623
40196SOL    HW222428   3.560   3.263   7.495
40197SOL     OW22429  14.646   7.946   1.077
40197SOL    HW122430  14.567   7.957   1.024
40197SOL    HW222431  14.648   8.022   1.134
40198SOL     OW22432   1.745  13.375   4.925
40198SOL    HW122433   1.764  13.452   4.978
40198SOL    HW222434   1.768  13.301   4.983
40199SOL     OW22435   1.830   7.241   4.585
40199SOL    HW122436   1.793   7.255   4.673
40199SOL    HW222437   1.870   7.325   4.562
40200SOL     OW22438   2.613   1.697  14.471
40200SOL    HW122439   2.594   1.706  14.378
40200SOL    HW222440   2.707   1.684  14.476
40201SOL     OW22441   2.878   4.573   7.384
40201SOL    HW122442   2.856   4.549   7.473
40201SOL    HW222443   2.796   4.605   7.346
40202SOL     OW22444   6.621   6.739   4.996
40202SOL    HW122445   6.608   6.660   5.049
40202SOL    HW222446   6.575   6.720   4.914
40203SOL     OW22447   4.960   2.869   6.903
40203SOL    HW122448   4.963   2.949   6.956
40203SOL    HW222449   4.970   2.798   6.967
40204SOL     OW22450   8.876   5.335   2.843
40204SOL    HW122451   8.891   5.429   2.836
40204SOL    HW222452   8.785   5.327   2.869
40205SOL     OW22453  14.365  11.015  13.240
40205SOL    HW122454  14.385  10.935  13.192
40205SOL    HW222455  14.384  10.994  13.331
40206SOL     OW22456  13.934   2.047   9.649
40206SOL    HW122457  13.848   2.071   9.613
40206SOL    HW222458  13.915   2.013   9.736
40207SOL     OW22459   4.525  11.841   3.318
40207SOL    HW122460   4.465  11.912   3.295
40207SOL    HW222461   4.475  11.761   3.301
40208SOL     OW22462   1.771  14.330   7.551
40208SOL    HW122463   1.724  14.255   7.514
40208SOL    HW222464   1.856  14.295   7.577
40209SOL     OW22465   6.994   3.328   2.073
40209SOL    HW122466   6.994   3.357   1.981
40209SOL    HW222467   6.914   3.365   2.110
40210SOL     OW22468  13.373  10.484  14.608
40210SOL    HW122469  13.375  10.548  14.679
40210SOL    HW222470  13.292  10.503  14.561
40211SOL     OW22471   4.806   9.972   7.164
40211SOL    HW122472   4.729   9.984   7.108
40211SOL    HW222473   4.816   9.877   7.171
40212SOL     OW22474   5.204   1.681   3.590
40212SOL    HW122475   5.181   1.625   3.664
40212SOL    HW222476   5.270   1.631   3.543
40213SOL     OW22477   9.268   7.438   9.676
40213SOL    HW122478   9.289   7.420   9.584
40213SOL    HW222479   9.342   7.488   9.708
40214SOL     OW22480   4.211  10.756   4.513
40214SOL    HW122481   4.207  10.660   4.515
40214SOL    HW222482   4.154  10.781   4.441
40215SOL     OW22483   5.363   0.568   7.478
40215SOL    HW122484   5.362   0.614   7.394
40215SOL    HW222485   5.272   0.541   7.492
40216SOL     OW22486  10.365  13.532  13.265
40216SOL    HW122487  10.454  13.552  13.295
40216SOL    HW222488  10.317  13.614  13.279
40217SOL     OW22489   5.414   0.552   0.389
40217SOL    HW122490   5.464   0.470   0.393
40217SOL    HW222491   5.457   0.610   0.453
40218SOL     OW22492  14.851  11.031  10.091
40218SOL    HW122493  14.876  11.054  10.180
40218SOL    HW222494  14.879  11.106  10.038
40219SOL     OW22495  10.330   9.350   5.714
40219SOL    HW122496  10.326   9.255   5.705
40219SOL    HW222497  10.256   9.372   5.770
40220SOL     OW22498   9.311   7.411  13.741
40220SOL    HW122499   9.279   7.496  13.711
40220SOL    HW222500   9.360   7.376  13.666
40221SOL     OW22501  12.089   3.056  12.901
40221SOL    HW122502  12.020   3.114  12.936
40221SOL    HW222503  12.070   3.050  12.808
40222SOL     OW22504   0.340   4.680   0.181
40222SOL    HW122505   0.266   4.714   0.132
40222SOL    HW222506   0.303   4.610   0.235
40223SOL     OW22507   7.738   1.667   5.967
40223SOL    HW122508   7.731   1.745   6.022
40223SOL    HW222509   7.647   1.643   5.948
40224SOL     OW22510   0.627   2.458   5.804
40224SOL    HW122511   0.646   2.539   5.852
40224SOL    HW222512   0.536   2.470   5.774
40225SOL     OW22513  11.550   6.197  12.175
40225SOL    HW122514  11.641   6.170  12.166
40225SOL    HW222515  11.546   6.283  12.133
40226SOL     OW22516  14.614   8.167  13.280
40226SOL    HW122517  14.566   8.235  13.232
40226SOL    HW222518  14.577   8.085  13.249
40227SOL     OW22519  14.524  11.518   1.714
40227SOL    HW122520  14.527  11.511   1.618
40227SOL    HW222521  14.436  11.552   1.732
40228SOL     OW22522   9.831  13.108   7.224
40228SOL    HW122523   9.890  13.150   7.288
40228SOL    HW222524   9.769  13.059   7.277
40229SOL     OW22525  11.937   5.478   6.780
40229SOL    HW122526  11.844   5.482   6.760
40229SOL    HW222527  11.977   5.439   6.701
40230SOL     OW22528  13.711  13.472   8.641
40230SOL    HW122529  13.704  13.534   8.714
40230SOL    HW222530  13.623  13.470   8.603
40231SOL     OW22531  13.045  13.993  14.165
40231SOL    HW122532  13.055  13.999  14.260
40231SOL    HW222533  13.120  14.040  14.130
40232SOL     OW22534   9.951  11.230   0.792
40232SOL    HW122535   9.922  11.268   0.875
40232SOL    HW222536   9.948  11.303   0.730
40233SOL     OW22537   9.308   2.811  11.542
40233SOL    HW122538   9.333   2.891  11.497
40233SOL    HW222539   9.212   2.815  11.546
40234SOL     OW22540  10.480  13.603   0.313
40234SOL    HW122541  10.493  13.519   0.356
40234SOL    HW222542  10.388  13.602   0.286
40235SOL     OW22543   2.397   9.916   0.549
40235SOL    HW122544   2.448   9.918   0.468
40235SOL    HW222545   2.364  10.005   0.559
40236SOL     OW22546   8.250   9.461   0.247
40236SOL    HW122547   8.307   9.488   0.175
40236SOL    HW222548   8.264   9.367   0.255
40237SOL     OW22549   9.564   0.198   1.867
40237SOL    HW122550   9.476   0.174   1.837
40237SOL    HW222551   9.622   0.134   1.826
40238SOL     OW22552   1.351   4.357   5.611
40238SOL    HW122553   1.290   4.347   5.538
40238SOL    HW222554   1.437   4.340   5.573
40239SOL     OW22555  12.119   6.801   5.511
40239SOL    HW122556  12.153   6.885   5.542
40239SOL    HW222557  12.155   6.736   5.572
40240SOL     OW22558  11.127   7.976   0.787
40240SOL    HW122559  11.218   7.949   0.782
40240SOL    HW222560  11.089   7.951   0.703
40241SOL     OW22561  12.639   2.157   9.330
40241SOL    HW122562  12.709   2.122   9.385
40241SOL    HW222563  12.564   2.100   9.347
40242SOL     OW22564   5.914   5.193   8.774
40242SOL    HW122565   5.880   5.282   8.770
40242SOL    HW222566   5.840   5.140   8.803
40243SOL     OW22567  14.726   3.408   2.064
40243SOL    HW122568  14.660   3.404   1.994
40243SOL    HW222569  14.706   3.334   2.120
40244SOL     OW22570  10.649   5.152   4.977
40244SOL    HW122571  10.701   5.182   4.903
40244SOL    HW222572  10.694   5.074   5.008
40245SOL     OW22573   8.646   2.682   4.448
40245SOL    HW122574   8.624   2.676   4.355
40245SOL    HW222575   8.643   2.776   4.467
40246SOL     OW22576   6.672   0.558   4.827
40246SOL    HW122577   6.578   0.541   4.835
40246SOL    HW222578   6.713   0.486   4.875
40247SOL     OW22579   0.006   9.066   6.710
40247SOL    HW122580  14.794   9.041   6.726
40247SOL    HW222581   0.036   9.004   6.643
40248SOL     OW22582   4.954   0.941   8.453
40248SOL    HW122583   4.872   0.930   8.501
40248SOL    HW222584   4.970   0.856   8.414
40249SOL     OW22585  13.468  10.440   8.139
40249SOL    HW122586  13.466  10.423   8.233
40249SOL    HW222587  13.533  10.379   8.105
40250SOL     OW22588  12.169   8.886   6.446
40250SOL    HW122589  12.145   8.967   6.400
40250SOL    HW222590  12.203   8.917   6.530
40251SOL     OW22591   8.522   3.053   6.926
40251SOL    HW122592   8.608   3.077   6.960
40251SOL    HW222593   8.495   2.978   6.979
40252SOL     OW22594   0.719  12.597   0.465
40252SOL    HW122595   0.743  12.600   0.557
40252SOL    HW222596   0.726  12.688   0.435
40253SOL     OW22597   4.957   6.199  10.550
40253SOL    HW122598   5.014   6.132  10.587
40253SOL    HW222599   4.931   6.164  10.465
40254SOL     OW22600   9.526   4.391  11.912
40254SOL    HW122601   9.503   4.374  11.820
40254SOL    HW222602   9.487   4.318  11.960
40255SOL     OW22603   6.888   4.348   7.706
40255SOL    HW122604   6.834   4.419   7.671
40255SOL    HW222605   6.974   4.387   7.719
40256SOL     OW22606  14.597   9.080  14.610
40256SOL    HW122607  14.656   9.007  14.630
40256SOL    HW222608  14.648   9.158  14.633
40257SOL     OW22609  10.274   6.314   1.631
40257SOL    HW122610  10.251   6.373   1.702
40257SOL    HW222611  10.255   6.227   1.665
40258SOL     OW22612  13.603   1.659   4.577
40258SOL    HW122613  13.582   1.718   4.650
40258SOL    HW222614  13.679   1.609   4.607
40259SOL     OW22615  10.315   7.215  13.652
40259SOL    HW122616  10.266   7.137  13.625
40259SOL    HW222617  10.254   7.287  13.641
40260SOL     OW22618  13.576   5.976   8.204
40260SOL    HW122619  13.573   5.932   8.119
40260SOL    HW222620  13.665   5.963   8.235
40261SOL     OW22621  12.698   9.034   8.912
40261SOL    HW122622  12.713   9.090   8.988
40261SOL    HW222623  12.603   9.022   8.910
40262SOL     OW22624  13.696   7.429   0.784
40262SOL    HW122625  13.623   7.437   0.722
40262SOL    HW222626  13.655   7.428   0.870
40263SOL     OW22627   7.551  13.940   8.587
40263SOL    HW122628   7.631  13.925   8.538
40263SOL    HW222629   7.482  13.938   8.521
40264SOL     OW22630   8.133   8.652   6.781
40264SOL    HW122631   8.168   8.736   6.810
40264SOL    HW222632   8.038   8.663   6.781
40265SOL     OW22633   4.933   5.080   2.698
40265SOL    HW122634   4.935   4.985   2.688
40265SOL    HW222635   4.895   5.094   2.785
40266SOL     OW22636   5.625   1.022  10.187
40266SOL    HW122637   5.600   1.048  10.275
40266SOL    HW222638   5.719   1.010  10.191
40267SOL     OW22639   5.326   9.803  14.425
40267SOL    HW122640   5.329   9.872  14.359
40267SOL    HW222641   5.253   9.746  14.398
40268SOL     OW22642   3.249   2.666   9.448
40268SOL    HW122643   3.255   2.586   9.395
40268SOL    HW222644   3.195   2.725   9.396
40269SOL     OW22645  14.371   8.358   9.229
40269SOL    HW122646  14.289   8.341   9.183
40269SOL    HW222647  14.397   8.446   9.200
40270SOL     OW22648   2.360   3.507   6.917
40270SOL    HW122649   2.406   3.451   6.855
40270SOL    HW222650   2.267   3.489   6.901
40271SOL     OW22651  11.049   9.251   5.542
40271SOL    HW122652  11.103   9.196   5.599
40271SOL    HW222653  10.970   9.200   5.527
40272SOL     OW22654  11.795   0.339   7.389
40272SOL    HW122655  11.853   0.321   7.315
40272SOL    HW222656  11.779   0.433   7.384
40273SOL     OW22657   8.794  12.978   5.819
40273SOL    HW122658   8.804  13.032   5.897
40273SOL    HW222659   8.771  12.891   5.853
40274SOL     OW22660   6.680   8.587  12.266
40274SOL    HW122661   6.588   8.613  12.263
40274SOL    HW222662   6.714   8.609  12.179
40275SOL     OW22663  12.190   8.283   6.961
40275SOL    HW122664  12.254   8.248   7.024
40275SOL    HW222665  12.196   8.225   6.885
40276SOL     OW22666   8.552   5.952   3.323
40276SOL    HW122667   8.586   6.039   3.304
40276SOL    HW222668   8.516   5.922   3.239
40277SOL     OW22669  12.574  13.223   0.371
40277SOL    HW122670  12.604  13.269   0.292
40277SOL    HW222671  12.648  13.228   0.431
40278SOL     OW22672   4.814  11.433   7.400
40278SOL    HW122673   4.789  11.344   7.378
40278SOL    HW222674   4.744  11.488   7.365
40279SOL     OW22675  12.037  13.488   7.218
40279SOL    HW122676  11.979  13.415   7.194
40279SOL    HW222677  12.119  13.446   7.244
40280SOL     OW22678   7.825   6.606  12.103
40280SOL    HW122679   7.832   6.667  12.029
40280SOL    HW222680   7.808   6.662  12.179
40281SOL     OW22681   6.425   8.748   0.566
40281SOL    HW122682   6.405   8.781   0.654
40281SOL    HW222683   6.361   8.791   0.509
40282SOL     OW22684   4.955  12.295   6.005
40282SOL    HW122685   4.936  12.267   6.094
40282SOL    HW222686   5.049  12.280   5.995
40283SOL     OW22687  11.954   9.668   3.836
40283SOL    HW122688  12.024   9.636   3.779
40283SOL    HW222689  11.988   9.750   3.872
40284SOL     OW22690   7.542   8.935   1.051
40284SOL    HW122691   7.577   9.024   1.041
40284SOL    HW222692   7.474   8.943   1.117
40285SOL     OW22693  14.533   9.887   9.927
40285SOL    HW122694  14.533   9.980   9.950
40285SOL    HW222695  14.571   9.843  10.003
40286SOL     OW22696  14.661   5.381   3.182
40286SOL    HW122697  14.604   5.307   3.201
40286SOL    HW222698  14.622   5.454   3.230
40287SOL     OW22699   3.868   5.506   3.171
40287SOL    HW122700   3.833   5.488   3.259
40287SOL    HW222701   3.918   5.427   3.149
40288SOL     OW22702  10.777   2.529  14.557
40288SOL    HW122703  10.685   2.528  14.583
40288SOL    HW222704  10.825   2.501  14.635
40289SOL     OW22705   3.667   6.159   2.462
40289SOL    HW122706   3.730   6.109   2.409
40289SOL    HW222707   3.675   6.122   2.550
40290SOL     OW22708  11.587  10.204   4.788
40290SOL    HW122709  11.575  10.180   4.880
40290SOL    HW222710  11.669  10.161   4.763
40291SOL     OW22711   0.887   9.026  11.418
40291SOL    HW122712   0.979   9.005  11.403
40291SOL    HW222713   0.868   9.097  11.357
40292SOL     OW22714   8.784  13.091   2.462
40292SOL    HW122715   8.876  13.077   2.443
40292SOL    HW222716   8.761  13.023   2.525
40293SOL     OW22717   8.564   9.911   7.042
40293SOL    HW122718   8.577  10.005   7.039
40293SOL    HW222719   8.526   9.894   7.128
40294SOL     OW22720   3.069   8.866  12.161
40294SOL    HW122721   3.049   8.772  12.162
40294SOL    HW222722   2.988   8.908  12.190
40295SOL     OW22723  10.176   7.632  13.228
40295SOL    HW122724  10.152   7.659  13.317
40295SOL    HW222725  10.152   7.539  13.225
40296SOL     OW22726   1.654   5.356  11.378
40296SOL    HW122727   1.644   5.380  11.286
40296SOL    HW222728   1.566   5.330  11.405
40297SOL     OW22729  11.880   3.311   0.602
40297SOL    HW122730  11.797   3.280   0.564
40297SOL    HW222731  11.905   3.241   0.663
40298SOL     OW22732   4.008  12.560   6.441
40298SOL    HW122733   4.080  12.500   6.463
40298SOL    HW222734   3.948  12.553   6.516
40299SOL     OW22735  14.443   8.665   7.948
40299SOL    HW122736  14.411   8.619   8.025
40299SOL    HW222737  14.475   8.596   7.890
40300SOL     OW22738   6.253   1.265   5.749
40300SOL    HW122739   6.212   1.345   5.717
40300SOL    HW222740   6.213   1.195   5.698
40301SOL     OW22741   7.351   6.454   0.164
40301SOL    HW122742   7.319   6.455   0.074
40301SOL    HW222743   7.296   6.517   0.211
40302SOL     OW22744   6.392   2.065   3.805
40302SOL    HW122745   6.380   2.004   3.732
40302SOL    HW222746   6.447   2.017   3.868
40303SOL     OW22747   0.484  11.944   7.645
40303SOL    HW122748   0.540  12.019   7.664
40303SOL    HW222749   0.434  11.931   7.726
40304SOL     OW22750   1.102   3.179   2.986
40304SOL    HW122751   1.153   3.199   3.064
40304SOL    HW222752   1.166   3.179   2.915
40305SOL     OW22753   7.470   1.286   7.629
40305SOL    HW122754   7.527   1.326   7.695
40305SOL    HW222755   7.382   1.314   7.652
40306SOL     OW22756  11.339   0.450   8.340
40306SOL    HW122757  11.361   0.479   8.429
40306SOL    HW222758  11.421   0.459   8.291
40307SOL     OW22759  12.223   5.620   5.870
40307SOL    HW122760  12.197   5.674   5.795
40307SOL    HW222761  12.206   5.676   5.946
40308SOL     OW22762   8.750  11.882   2.748
40308SOL    HW122763   8.771  11.832   2.827
40308SOL    HW222764   8.742  11.816   2.679
40309SOL     OW22765   1.775  11.505   5.431
40309SOL    HW122766   1.864  11.512   5.464
40309SOL    HW222767   1.722  11.557   5.492
40310SOL     OW22768   8.068   8.639  10.794
40310SOL    HW122769   8.009   8.634  10.719
40310SOL    HW222770   8.126   8.564  10.784
40311SOL     OW22771   4.603   7.775  10.758
40311SOL    HW122772   4.649   7.858  10.741
40311SOL    HW222773   4.661   7.708  10.722
40312SOL     OW22774   0.282   7.996  12.937
40312SOL    HW122775   0.306   7.905  12.917
40312SOL    HW222776   0.197   7.989  12.980
40313SOL     OW22777  12.123   8.657   8.147
40313SOL    HW122778  12.208   8.666   8.191
40313SOL    HW222779  12.105   8.744   8.111
40314SOL     OW22780   0.197   2.746   6.259
40314SOL    HW122781   0.126   2.763   6.197
40314SOL    HW222782   0.254   2.822   6.251
40315SOL     OW22783   7.919   9.139   0.167
40315SOL    HW122784   7.984   9.144   0.237
40315SOL    HW222785   7.898   9.046   0.160
40316SOL     OW22786   0.698   6.663   6.004
40316SOL    HW122787   0.696   6.608   5.925
40316SOL    HW222788   0.607   6.685   6.020
40317SOL     OW22789   4.245   2.275   2.243
40317SOL    HW122790   4.182   2.210   2.212
40317SOL    HW222791   4.329   2.247   2.208
40318SOL     OW22792  11.412   7.775   7.729
40318SOL    HW122793  11.432   7.686   7.703
40318SOL    HW222794  11.432   7.828   7.652
40319SOL     OW22795  12.579   9.748  10.447
40319SOL    HW122796  12.655   9.756  10.389
40319SOL    HW222797  12.505   9.737  10.388
40320SOL     OW22798   0.660  13.981   2.086
40320SOL    HW122799   0.665  14.013   1.996
40320SOL    HW222800   0.567  13.960   2.099
40321SOL     OW22801   6.330   3.939   5.362
40321SOL    HW122802   6.382   3.870   5.320
40321SOL    HW222803   6.288   3.985   5.290
40322SOL     OW22804   3.972  14.685  11.397
40322SOL    HW122805   4.066  14.670  11.396
40322SOL    HW222806   3.957  14.746  11.325
40323SOL     OW22807   3.904   1.862  11.194
40323SOL    HW122808   3.953   1.820  11.123
40323SOL    HW222809   3.964   1.864  11.268
40324SOL     OW22810   5.074   4.342   4.226
40324SOL    HW122811   5.046   4.346   4.135
40324SOL    HW222812   5.131   4.265   4.230
40325SOL     OW22813   1.490  14.144   9.921
40325SOL    HW122814   1.543  14.217   9.890
40325SOL    HW222815   1.528  14.121  10.006
40326SOL     OW22816   4.190  12.643  11.265
40326SOL    HW122817   4.176  12.575  11.200
40326SOL    HW222818   4.221  12.596  11.343
40327SOL     OW22819   0.221  10.709   1.728
40327SOL    HW122820   0.295  10.720   1.668
40327SOL    HW222821   0.147  10.751   1.683
40328SOL     OW22822   0.158   1.805   0.958
40328SOL    HW122823   0.126   1.841   1.041
40328SOL    HW222824   0.241   1.763   0.980
40329SOL     OW22825  10.649   8.989   3.956
40329SOL    HW122826  10.622   9.051   4.024
40329SOL    HW222827  10.741   9.011   3.939
40330SOL     OW22828   6.375   7.307   2.492
40330SOL    HW122829   6.321   7.242   2.536
40330SOL    HW222830   6.322   7.387   2.494
40331SOL     OW22831   2.313   7.288   8.334
40331SOL    HW122832   2.403   7.317   8.321
40331SOL    HW222833   2.260   7.353   8.288
40332SOL     OW22834  11.100   8.917   7.284
40332SOL    HW122835  11.060   8.927   7.370
40332SOL    HW222836  11.091   8.824   7.263
40333SOL     OW22837   9.015   9.058  10.715
40333SOL    HW122838   9.019   9.120  10.788
40333SOL    HW222839   9.100   9.014  10.716
40334SOL     OW22840   9.200  12.466   1.420
40334SOL    HW122841   9.107  12.463   1.398
40334SOL    HW222842   9.203  12.449   1.515
40335SOL     OW22843   7.058   2.439   8.915
40335SOL    HW122844   7.086   2.440   9.006
40335SOL    HW222845   6.978   2.490   8.913
40336SOL     OW22846   4.219   1.640   2.892
40336SOL    HW122847   4.213   1.551   2.857
40336SOL    HW222848   4.290   1.680   2.841
40337SOL     OW22849  11.945  11.072  12.557
40337SOL    HW122850  12.017  11.016  12.528
40337SOL    HW222851  11.980  11.161  12.551
40338SOL     OW22852  10.689   4.909  10.016
40338SOL    HW122853  10.761   4.955  10.060
40338SOL    HW222854  10.662   4.970   9.946
40339SOL     OW22855   8.198   6.304   0.350
40339SOL    HW122856   8.277   6.357   0.364
40339SOL    HW222857   8.218   6.253   0.271
40340SOL     OW22858  13.411   7.668   5.295
40340SOL    HW122859  13.461   7.659   5.214
40340SOL    HW222860  13.358   7.588   5.300
40341SOL     OW22861   5.839   1.538  10.722
40341SOL    HW122862   5.888   1.605  10.673
40341SOL    HW222863   5.844   1.460  10.666
40342SOL     OW22864  10.211  13.175   0.317
40342SOL    HW122865  10.264  13.142   0.389
40342SOL    HW222866  10.155  13.242   0.357
40343SOL     OW22867   4.583   0.137   8.853
40343SOL    HW122868   4.528   0.201   8.806
40343SOL    HW222869   4.640   0.191   8.908
40344SOL     OW22870  10.045   8.718   5.476
40344SOL    HW122871  10.116   8.659   5.454
40344SOL    HW222872  10.088   8.795   5.513
40345SOL     OW22873   3.981  10.487  11.300
40345SOL    HW122874   4.014  10.403  11.269
40345SOL    HW222875   3.973  10.476  11.395
40346SOL     OW22876  11.599   7.297   2.659
40346SOL    HW122877  11.566   7.329   2.743
40346SOL    HW222878  11.607   7.203   2.671
40347SOL     OW22879   0.914  12.806   0.436
40347SOL    HW122880   1.002  12.785   0.403
40347SOL    HW222881   0.916  12.899   0.455
40348SOL     OW22882  11.302   9.138   6.813
40348SOL    HW122883  11.347   9.189   6.745
40348SOL    HW222884  11.237   9.087   6.765
40349SOL     OW22885   9.559   5.385   4.258
40349SOL    HW122886   9.651   5.362   4.271
40349SOL    HW222887   9.557   5.480   4.262
40350SOL     OW22888  12.811  11.747   3.320
40350SOL    HW122889  12.773  11.659   3.321
40350SOL    HW222890  12.864  11.751   3.399
40351SOL     OW22891   8.654   8.996  12.019
40351SOL    HW122892   8.636   8.926  11.956
40351SOL    HW222893   8.739   9.032  11.992
40352SOL     OW22894   8.442  12.761   5.882
40352SOL    HW122895   8.431  12.716   5.965
40352SOL    HW222896   8.389  12.840   5.889
40353SOL     OW22897   4.050  13.160   8.201
40353SOL    HW122898   4.008  13.075   8.183
40353SOL    HW222899   3.993  13.201   8.266
40354SOL     OW22900  11.771   7.932   0.476
40354SOL    HW122901  11.806   7.967   0.558
40354SOL    HW222902  11.689   7.979   0.464
40355SOL     OW22903  14.649   4.513   9.865
40355SOL    HW122904  14.718   4.555   9.916
40355SOL    HW222905  14.592   4.472   9.931
40356SOL     OW22906   7.406   1.568   9.088
40356SOL    HW122907   7.406   1.476   9.112
40356SOL    HW222908   7.411   1.567   8.992
40357SOL     OW22909  14.130   9.119  10.204
40357SOL    HW122910  14.081   9.081  10.277
40357SOL    HW222911  14.139   9.211  10.227
40358SOL     OW22912   5.058  13.928  11.215
40358SOL    HW122913   5.007  13.946  11.295
40358SOL    HW222914   4.996  13.882  11.158
40359SOL     OW22915  13.259   8.385   7.486
40359SOL    HW122916  13.265   8.470   7.531
40359SOL    HW222917  13.346   8.371   7.449
40360SOL     OW22918  10.182  13.508  12.299
40360SOL    HW122919  10.158  13.600  12.307
40360SOL    HW222920  10.266  13.502  12.345
40361SOL     OW22921   4.859   7.540  11.036
40361SOL    HW122922   4.923   7.611  11.039
40361SOL    HW222923   4.777   7.583  11.010
40362SOL     OW22924  13.002  12.235  13.159
40362SOL    HW122925  12.958  12.234  13.244
40362SOL    HW222926  13.043  12.322  13.155
40363SOL     OW22927   4.392   4.658   9.407
40363SOL    HW122928   4.363   4.718   9.338
40363SOL    HW222929   4.467   4.613   9.369
40364SOL     OW22930   2.468  10.601   3.428
40364SOL    HW122931   2.506  10.518   3.455
40364SOL    HW222932   2.536  10.643   3.376
40365SOL     OW22933   1.187   1.754   8.941
40365SOL    HW122934   1.093   1.771   8.933
40365SOL    HW222935   1.226   1.811   8.875
40366SOL     OW22936   8.275   4.091   9.904
40366SOL    HW122937   8.317   4.139   9.832
40366SOL    HW222938   8.208   4.038   9.861
40367SOL     OW22939  14.733  14.514   5.362
40367SOL    HW122940  14.725  14.420   5.350
40367SOL    HW222941  14.805  14.540   5.304
40368SOL     OW22942  10.713  10.955  11.365
40368SOL    HW122943  10.668  11.039  11.374
40368SOL    HW222944  10.805  10.977  11.351
40369SOL     OW22945   7.294  13.855   5.545
40369SOL    HW122946   7.326  13.766   5.529
40369SOL    HW222947   7.257  13.882   5.461
40370SOL     OW22948  10.496   2.134  11.964
40370SOL    HW122949  10.459   2.206  12.015
40370SOL    HW222950  10.574   2.108  12.012
40371SOL     OW22951   9.573   1.206   1.587
40371SOL    HW122952   9.521   1.127   1.590
40371SOL    HW222953   9.519   1.269   1.538
40372SOL     OW22954  14.367   4.058   9.491
40372SOL    HW122955  14.315   4.121   9.541
40372SOL    HW222956  14.457   4.080   9.512
40373SOL     OW22957   1.722  10.081  11.683
40373SOL    HW122958   1.723   9.995  11.641
40373SOL    HW222959   1.814  10.099  11.704
40374SOL     OW22960   8.953   1.297   1.475
40374SOL    HW122961   8.954   1.359   1.402
40374SOL    HW222962   8.924   1.348   1.550
40375SOL     OW22963  12.557   3.242   3.019
40375SOL    HW122964  12.511   3.319   2.984
40375SOL    HW222965  12.496   3.206   3.084
40376SOL     OW22966   2.343   3.234  13.688
40376SOL    HW122967   2.410   3.166  13.689
40376SOL    HW222968   2.301   3.224  13.602
40377SOL     OW22969  12.523   6.684  13.064
40377SOL    HW122970  12.612   6.680  13.098
40377SOL    HW222971  12.520   6.768  13.017
40378SOL     OW22972   6.335   8.238  14.684
40378SOL    HW122973   6.251   8.242  14.729
40378SOL    HW222974   6.316   8.193  14.602
40379SOL     OW22975  14.742   8.661  11.712
40379SOL    HW122976  14.675   8.606  11.754
40379SOL    HW222977  14.805   8.598  11.677
40380SOL     OW22978  13.388  11.425   2.602
40380SOL    HW122979  13.480  11.431   2.574
40380SOL    HW222980  13.342  11.487   2.545
40381SOL     OW22981  11.583   8.050   6.525
40381SOL    HW122982  11.675   8.061   6.502
40381SOL    HW222983  11.577   7.962   6.560
40382SOL     OW22984   7.930   1.866   8.612
40382SOL    HW122985   7.944   1.961   8.603
40382SOL    HW222986   7.981   1.828   8.541
40383SOL     OW22987   3.864   4.808  11.182
40383SOL    HW122988   3.902   4.742  11.123
40383SOL    HW222989   3.847   4.883  11.126
40384SOL     OW22990  12.952  10.414   1.473
40384SOL    HW122991  12.995  10.432   1.390
40384SOL    HW222992  13.013  10.445   1.540
40385SOL     OW22993  14.812  12.073   9.996
40385SOL    HW122994  14.798  11.983   9.965
40385SOL    HW222995  14.724  12.111   9.996
40386SOL     OW22996  11.371   4.486   2.105
40386SOL    HW122997  11.308   4.423   2.141
40386SOL    HW222998  11.450   4.435   2.091
40387SOL     OW22999   1.123   8.068  13.825
40387SOL    HW123000   1.169   8.075  13.909
40387SOL    HW223001   1.069   7.989  13.834
40388SOL     OW23002   5.011   0.232   7.474
40388SOL    HW123003   5.031   0.296   7.406
40388SOL    HW223004   4.918   0.245   7.492
40389SOL     OW23005  12.135  14.278  12.528
40389SOL    HW123006  12.224  14.254  12.503
40389SOL    HW223007  12.137  14.285  12.623
40390SOL     OW23008  14.019   4.687  11.740
40390SOL    HW123009  13.924   4.675  11.746
40390SOL    HW223010  14.030   4.755  11.673
40391SOL     OW23011   0.136  12.020  11.344
40391SOL    HW123012   0.142  12.097  11.400
40391SOL    HW223013   0.214  12.024  11.289
40392SOL     OW23014   2.867   5.087  14.832
40392SOL    HW123015   2.880   5.172  14.874
40392SOL    HW223016   2.777   5.091  14.799
40393SOL     OW23017  10.665   8.035  14.842
40393SOL    HW123018  10.618   8.022  14.759
40393SOL    HW223019  10.751   7.997  14.827
40394SOL     OW23020   4.065   6.753  11.941
40394SOL    HW123021   4.068   6.843  11.908
40394SOL    HW223022   4.063   6.762  12.036
40395SOL     OW23023  11.814   4.921  11.458
40395SOL    HW123024  11.802   5.013  11.481
40395SOL    HW223025  11.743   4.902  11.397
40396SOL     OW23026   8.177   2.749   6.235
40396SOL    HW123027   8.142   2.660   6.237
40396SOL    HW223028   8.127   2.796   6.302
40397SOL     OW23029   2.367   9.771  11.585
40397SOL    HW123030   2.324   9.835  11.642
40397SOL    HW223031   2.461   9.782  11.605
40398SOL     OW23032  14.341  13.505  13.932
40398SOL    HW123033  14.389  13.428  13.900
40398SOL    HW223034  14.296  13.539  13.854
40399SOL     OW23035   0.989  12.266  10.901
40399SOL    HW123036   0.941  12.208  10.843
40399SOL    HW223037   1.011  12.342  10.846
40400SOL     OW23038  13.770  12.744   2.472
40400SOL    HW123039  13.717  12.772   2.547
40400SOL    HW223040  13.809  12.661   2.500
40401SOL     OW23041  10.096  11.733   7.105
40401SOL    HW123042  10.039  11.750   7.180
40401SOL    HW223043  10.124  11.820   7.076
40402SOL     OW23044  13.850   9.660  11.737
40402SOL    HW123045  13.772   9.712  11.757
40402SOL    HW223046  13.871   9.616  11.819
40403SOL     OW23047  10.443   9.425  14.518
40403SOL    HW123048  10.462   9.381  14.601
40403SOL    HW223049  10.348   9.436  14.519
40404SOL     OW23050  12.283  13.910   7.454
40404SOL    HW123051  12.252  13.849   7.387
40404SOL    HW223052  12.312  13.987   7.405
40405SOL     OW23053   5.465   4.953  14.324
40405SOL    HW123054   5.369   4.951  14.326
40405SOL    HW223055   5.488   4.925  14.236
40406SOL     OW23056   5.476   3.583   9.868
40406SOL    HW123057   5.526   3.655   9.830
40406SOL    HW223058   5.400   3.574   9.811
40407SOL     OW23059   6.782   6.499  11.456
40407SOL    HW123060   6.825   6.439  11.395
40407SOL    HW223061   6.780   6.583  11.410
40408SOL     OW23062   9.379   2.262  13.017
40408SOL    HW123063   9.347   2.247  12.927
40408SOL    HW223064   9.437   2.188  13.034
40409SOL     OW23065  14.566   5.427   6.011
40409SOL    HW123066  14.531   5.370   6.079
40409SOL    HW223067  14.585   5.369   5.938
40410SOL     OW23068   5.175   0.666   2.159
40410SOL    HW123069   5.235   0.603   2.120
40410SOL    HW223070   5.099   0.614   2.184
40411SOL     OW23071  11.217   8.859   8.975
40411SOL    HW123072  11.191   8.836   8.886
40411SOL    HW223073  11.270   8.939   8.965
40412SOL     OW23074   4.396  11.320   7.197
40412SOL    HW123075   4.359  11.239   7.162
40412SOL    HW223076   4.490  11.301   7.206
40413SOL     OW23077  11.081   7.495   8.480
40413SOL    HW123078  11.132   7.550   8.420
40413SOL    HW223079  11.113   7.406   8.464
40414SOL     OW23080   2.994   6.399  14.805
40414SOL    HW123081   2.910   6.353  14.799
40414SOL    HW223082   3.015   6.398   0.019
40415SOL     OW23083  13.966   6.519  12.857
40415SOL    HW123084  14.033   6.576  12.897
40415SOL    HW223085  13.890   6.528  12.913
40416SOL     OW23086  13.076  10.548  14.186
40416SOL    HW123087  13.086  10.504  14.270
40416SOL    HW223088  13.010  10.496  14.139
40417SOL     OW23089  10.445  10.677   1.562
40417SOL    HW123090  10.530  10.683   1.604
40417SOL    HW223091  10.391  10.628   1.625
40418SOL     OW23092   6.497   1.073   1.618
40418SOL    HW123093   6.527   0.990   1.656
40418SOL    HW223094   6.491   1.133   1.693
40419SOL     OW23095  10.213   4.272  10.600
40419SOL    HW123096  10.253   4.212  10.537
40419SOL    HW223097  10.127   4.234  10.617
40420SOL     OW23098   1.740  10.779   3.957
40420SOL    HW123099   1.711  10.763   4.046
40420SOL    HW223100   1.803  10.710   3.939
40421SOL     OW23101  13.144  13.695   2.496
40421SOL    HW123102  13.120  13.641   2.421
40421SOL    HW223103  13.066  13.748   2.513
40422SOL     OW23104  13.007   2.737  12.548
40422SOL    HW123105  13.044   2.815  12.590
40422SOL    HW223106  12.995   2.675  12.620
40423SOL     OW23107   0.126   6.952   8.125
40423SOL    HW123108   0.185   6.970   8.052
40423SOL    HW223109   0.131   7.032   8.179
40424SOL     OW23110   6.452  13.091   3.339
40424SOL    HW123111   6.372  13.138   3.314
40424SOL    HW223112   6.459  13.020   3.275
40425SOL     OW23113   5.649   2.222   7.785
40425SOL    HW123114   5.555   2.236   7.775
40425SOL    HW223115   5.680   2.302   7.829
40426SOL     OW23116   3.876   6.120   8.141
40426SOL    HW123117   3.804   6.176   8.172
40426SOL    HW223118   3.944   6.130   8.208
40427SOL     OW23119   1.353   6.724   8.234
40427SOL    HW123120   1.391   6.689   8.314
40427SOL    HW223121   1.347   6.649   8.175
40428SOL     OW23122   3.880   9.569   8.340
40428SOL    HW123123   3.926   9.651   8.359
40428SOL    HW223124   3.845   9.582   8.251
40429SOL     OW23125  13.622   3.781  13.832
40429SOL    HW123126  13.694   3.721  13.850
40429SOL    HW223127  13.559   3.728  13.781
40430SOL     OW23128   5.387   8.520   5.660
40430SOL    HW123129   5.399   8.430   5.629
40430SOL    HW223130   5.449   8.528   5.732
40431SOL     OW23131   0.807   1.099   2.353
40431SOL    HW123132   0.781   1.191   2.348
40431SOL    HW223133   0.767   1.068   2.434
40432SOL     OW23134   1.544   1.453  11.695
40432SOL    HW123135   1.512   1.509  11.623
40432SOL    HW223136   1.639   1.449  11.682
40433SOL     OW23137   7.121   1.555  10.139
40433SOL    HW123138   7.124   1.581  10.230
40433SOL    HW223139   7.070   1.474  10.138
40434SOL     OW23140   7.031  12.120  10.621
40434SOL    HW123141   7.005  12.105  10.712
40434SOL    HW223142   6.949  12.130  10.573
40435SOL     OW23143   7.446   7.755   6.118
40435SOL    HW123144   7.441   7.802   6.035
40435SOL    HW223145   7.387   7.802   6.177
40436SOL     OW23146   6.580  12.618  13.792
40436SOL    HW123147   6.661  12.649  13.833
40436SOL    HW223148   6.572  12.527  13.819
40437SOL     OW23149   3.001  13.378   5.440
40437SOL    HW123150   3.096  13.382   5.449
40437SOL    HW223151   2.971  13.467   5.459
40438SOL     OW23152   4.884   9.667   7.228
40438SOL    HW123153   4.963   9.646   7.179
40438SOL    HW223154   4.909   9.651   7.320
40439SOL     OW23155   6.703   3.325   1.495
40439SOL    HW123156   6.744   3.286   1.572
40439SOL    HW223157   6.625   3.271   1.480
40440SOL     OW23158   5.535  10.669   2.761
40440SOL    HW123159   5.484  10.710   2.831
40440SOL    HW223160   5.525  10.575   2.776
40441SOL     OW23161   9.309  11.998  12.676
40441SOL    HW123162   9.401  11.995  12.701
40441SOL    HW223163   9.263  11.955  12.748
40442SOL     OW23164  13.641   2.625  10.019
40442SOL    HW123165  13.562   2.678  10.019
40442SOL    HW223166  13.711   2.685  10.044
40443SOL     OW23167  10.898   2.646  10.359
40443SOL    HW123168  10.988   2.621  10.380
40443SOL    HW223169  10.907   2.730  10.315
40444SOL     OW23170   4.624  10.475   4.255
40444SOL    HW123171   4.605  10.566   4.231
40444SOL    HW223172   4.658  10.481   4.344
40445SOL     OW23173   2.634   7.981   9.327
40445SOL    HW123174   2.567   7.929   9.371
40445SOL    HW223175   2.588   8.023   9.254
40446SOL     OW23176  12.088   2.590   6.241
40446SOL    HW123177  12.155   2.545   6.293
40446SOL    HW223178  12.022   2.617   6.305
40447SOL     OW23179  11.502   2.022  11.517
40447SOL    HW123180  11.590   1.983  11.518
40447SOL    HW223181  11.518   2.116  11.525
40448SOL     OW23182  13.162   7.996   7.083
40448SOL    HW123183  13.193   8.043   7.006
40448SOL    HW223184  13.069   7.979   7.066
40449SOL     OW23185   5.002   3.879   9.910
40449SOL    HW123186   4.963   3.849   9.828
40449SOL    HW223187   4.981   3.810   9.973
40450SOL     OW23188  10.018   6.197  13.009
40450SOL    HW123189  10.023   6.252  12.930
40450SOL    HW223190  10.002   6.109  12.975
40451SOL     OW23191   3.859  13.260   1.638
40451SOL    HW123192   3.928  13.245   1.703
40451SOL    HW223193   3.842  13.354   1.642
40452SOL     OW23194   0.844   3.130   1.969
40452SOL    HW123195   0.788   3.157   1.896
40452SOL    HW223196   0.931   3.163   1.945
40453SOL     OW23197  13.269  13.296  11.893
40453SOL    HW123198  13.285  13.360  11.962
40453SOL    HW223199  13.316  13.217  11.922
40454SOL     OW23200   2.943   6.985   2.060
40454SOL    HW123201   2.871   7.004   2.000
40454SOL    HW223202   2.987   6.910   2.020
40455SOL     OW23203   9.392   7.424   5.385
40455SOL    HW123204   9.302   7.430   5.353
40455SOL    HW223205   9.443   7.477   5.324
40456SOL     OW23206  10.719   0.671  14.027
40456SOL    HW123207  10.785   0.625  13.975
40456SOL    HW223208  10.752   0.667  14.116
40457SOL     OW23209   3.972   6.482   0.573
40457SOL    HW123210   3.896   6.425   0.582
40457SOL    HW223211   4.018   6.476   0.656
40458SOL     OW23212  10.095   7.094   5.735
40458SOL    HW123213  10.157   7.166   5.743
40458SOL    HW223214  10.010   7.136   5.727
40459SOL     OW23215   8.576   0.951   6.028
40459SOL    HW123216   8.593   0.860   6.052
40459SOL    HW223217   8.541   0.991   6.108
40460SOL     OW23218   5.464   4.626  13.475
40460SOL    HW123219   5.463   4.719  13.451
40460SOL    HW223220   5.555   4.610  13.502
40461SOL     OW23221   0.785  13.336   8.710
40461SOL    HW123222   0.696  13.366   8.692
40461SOL    HW223223   0.810  13.381   8.791
40462SOL     OW23224   7.427  11.722  10.040
40462SOL    HW123225   7.385  11.686   9.961
40462SOL    HW223226   7.472  11.800  10.009
40463SOL     OW23227   3.979   6.752   4.217
40463SOL    HW123228   3.934   6.817   4.269
40463SOL    HW223229   3.955   6.772   4.126
40464SOL     OW23230   5.682   5.358  12.511
40464SOL    HW123231   5.643   5.276  12.542
40464SOL    HW223232   5.771   5.356  12.544
40465SOL     OW23233   2.231  11.245   2.948
40465SOL    HW123234   2.242  11.265   3.041
40465SOL    HW223235   2.141  11.214   2.940
40466SOL     OW23236  14.390  11.963   1.103
40466SOL    HW123237  14.435  11.883   1.076
40466SOL    HW223238  14.363  11.946   1.193
40467SOL     OW23239   3.528  11.290  11.450
40467SOL    HW123240   3.543  11.201  11.481
40467SOL    HW223241   3.524  11.281  11.355
40468SOL     OW23242   6.809  13.659   7.047
40468SOL    HW123243   6.723  13.693   7.023
40468SOL    HW223244   6.800  13.564   7.043
40469SOL     OW23245   0.737  12.277   4.399
40469SOL    HW123246   0.696  12.358   4.369
40469SOL    HW223247   0.690  12.254   4.479
40470SOL     OW23248  13.855   6.894   0.830
40470SOL    HW123249  13.771   6.899   0.876
40470SOL    HW223250  13.919   6.870   0.897
40471SOL     OW23251   8.320   4.367  10.091
40471SOL    HW123252   8.339   4.303  10.160
40471SOL    HW223253   8.405   4.393  10.058
40472SOL     OW23254   9.681  11.614   7.802
40472SOL    HW123255   9.767  11.573   7.792
40472SOL    HW223256   9.673  11.671   7.725
40473SOL     OW23257   1.392   0.540   6.618
40473SOL    HW123258   1.314   0.553   6.565
40473SOL    HW223259   1.427   0.628   6.630
40474SOL     OW23260   8.767   9.733  13.501
40474SOL    HW123261   8.771   9.691  13.415
40474SOL    HW223262   8.673   9.737  13.520
40475SOL     OW23263  13.913  10.678  10.814
40475SOL    HW123264  13.897  10.766  10.783
40475SOL    HW223265  13.853  10.623  10.765
40476SOL     OW23266  11.004   4.502  13.623
40476SOL    HW123267  11.079   4.561  13.621
40476SOL    HW223268  10.975   4.497  13.532
40477SOL     OW23269   6.839   2.666   2.118
40477SOL    HW123270   6.909   2.665   2.052
40477SOL    HW223271   6.763   2.629   2.073
40478SOL     OW23272   4.336   8.708   1.200
40478SOL    HW123273   4.332   8.708   1.104
40478SOL    HW223274   4.295   8.625   1.225
40479SOL     OW23275  11.199   7.158   6.053
40479SOL    HW123276  11.154   7.078   6.079
40479SOL    HW223277  11.207   7.208   6.134
40480SOL     OW23278  10.025   3.233   8.110
40480SOL    HW123279   9.971   3.161   8.080
40480SOL    HW223280  10.102   3.192   8.150
40481SOL     OW23281   1.435  11.139  14.647
40481SOL    HW123282   1.490  11.126  14.570
40481SOL    HW223283   1.380  11.215  14.625
40482SOL     OW23284   5.610   9.196   6.382
40482SOL    HW123285   5.573   9.229   6.464
40482SOL    HW223286   5.643   9.109   6.403
40483SOL     OW23287   0.244   5.374  10.168
40483SOL    HW123288   0.314   5.415  10.118
40483SOL    HW223289   0.179   5.347  10.102
40484SOL     OW23290   8.518   4.550  11.068
40484SOL    HW123291   8.605   4.529  11.101
40484SOL    HW223292   8.468   4.576  11.146
40485SOL     OW23293   5.434   5.049   6.870
40485SOL    HW123294   5.450   4.965   6.912
40485SOL    HW223295   5.351   5.038   6.823
40486SOL     OW23296  11.097   8.770  13.126
40486SOL    HW123297  11.078   8.859  13.154
40486SOL    HW223298  11.136   8.728  13.203
40487SOL     OW23299  11.355   7.899   1.513
40487SOL    HW123300  11.424   7.832   1.519
40487SOL    HW223301  11.401   7.981   1.529
40488SOL     OW23302   3.457  14.133  11.532
40488SOL    HW123303   3.429  14.064  11.473
40488SOL    HW223304   3.421  14.109  11.617
40489SOL     OW23305   3.045  13.946   9.371
40489SOL    HW123306   3.006  13.960   9.457
40489SOL    HW223307   3.132  13.986   9.377
40490SOL     OW23308   9.537   9.560  12.429
40490SOL    HW123309   9.476   9.499  12.470
40490SOL    HW223310   9.610   9.506  12.400
40491SOL     OW23311  11.881   2.418   9.210
40491SOL    HW123312  11.912   2.334   9.178
40491SOL    HW223313  11.907   2.420   9.302
40492SOL     OW23314   3.933   2.689   0.299
40492SOL    HW123315   3.917   2.779   0.270
40492SOL    HW223316   3.927   2.637   0.220
40493SOL     OW23317   8.576   8.751  13.907
40493SOL    HW123318   8.590   8.801  13.826
40493SOL    HW223319   8.575   8.817  13.976
40494SOL     OW23320  14.461   9.461   3.824
40494SOL    HW123321  14.525   9.427   3.886
40494SOL    HW223322  14.494   9.436   3.738
40495SOL     OW23323   3.837  10.613  13.390
40495SOL    HW123324   3.929  10.634  13.407
40495SOL    HW223325   3.792  10.632  13.472
40496SOL     OW23326   8.858   0.723   5.171
40496SOL    HW123327   8.764   0.743   5.178
40496SOL    HW223328   8.890   0.732   5.261
40497SOL     OW23329   4.320   1.114   7.226
40497SOL    HW123330   4.323   1.164   7.145
40497SOL    HW223331   4.369   1.167   7.289
40498SOL     OW23332   0.686  11.702  13.987
40498SOL    HW123333   0.773  11.739  13.973
40498SOL    HW223334   0.655  11.679  13.900
40499SOL     OW23335   5.045   5.867   6.152
40499SOL    HW123336   5.033   5.908   6.067
40499SOL    HW223337   5.131   5.898   6.181
40500SOL     OW23338   2.630   1.558   5.097
40500SOL    HW123339   2.721   1.560   5.127
40500SOL    HW223340   2.607   1.465   5.097
40501SOL     OW23341   3.299   3.642  12.562
40501SOL    HW123342   3.250   3.560  12.552
40501SOL    HW223343   3.316   3.671  12.473
40502SOL     OW23344   2.255   1.970   6.827
40502SOL    HW123345   2.292   1.883   6.842
40502SOL    HW223346   2.316   2.030   6.870
40503SOL     OW23347  13.651   3.651  10.248
40503SOL    HW123348  13.598   3.613  10.178
40503SOL    HW223349  13.721   3.588  10.263
40504SOL     OW23350   7.204  11.354  11.759
40504SOL    HW123351   7.146  11.429  11.763
40504SOL    HW223352   7.291  11.389  11.780
40505SOL     OW23353   5.030  13.932   2.126
40505SOL    HW123354   4.954  13.990   2.126
40505SOL    HW223355   5.101  13.986   2.163
40506SOL     OW23356   1.338  12.188   4.918
40506SOL    HW123357   1.418  12.137   4.924
40506SOL    HW223358   1.327  12.205   4.825
40507SOL     OW23359   1.567   1.241   8.326
40507SOL    HW123360   1.630   1.188   8.277
40507SOL    HW223361   1.584   1.331   8.296
40508SOL     OW23362   5.113   3.117   7.584
40508SOL    HW123363   5.039   3.173   7.559
40508SOL    HW223364   5.172   3.119   7.509
40509SOL     OW23365   3.250  11.293   5.978
40509SOL    HW123366   3.342  11.269   5.989
40509SOL    HW223367   3.213  11.290   6.066
40510SOL     OW23368   7.276   9.131   1.038
40510SOL    HW123369   7.315   9.174   0.962
40510SOL    HW223370   7.300   9.186   1.112
40511SOL     OW23371   0.312   9.737   3.050
40511SOL    HW123372   0.345   9.651   3.024
40511SOL    HW223373   0.284   9.777   2.968
40512SOL     OW23374  10.529  12.247   8.094
40512SOL    HW123375  10.567  12.311   8.154
40512SOL    HW223376  10.462  12.295   8.046
40513SOL     OW23377   5.136   9.387   6.824
40513SOL    HW123378   5.091   9.341   6.753
40513SOL    HW223379   5.214   9.335   6.841
40514SOL     OW23380  10.905   9.683   2.229
40514SOL    HW123381  10.973   9.649   2.288
40514SOL    HW223382  10.882   9.768   2.266
40515SOL     OW23383   4.226   7.402  12.915
40515SOL    HW123384   4.251   7.375  13.003
40515SOL    HW223385   4.281   7.478  12.896
40516SOL     OW23386   3.494   1.876  14.063
40516SOL    HW123387   3.402   1.888  14.040
40516SOL    HW223388   3.503   1.781  14.076
40517SOL     OW23389   0.222   6.349  14.680
40517SOL    HW123390   0.217   6.442  14.656
40517SOL    HW223391   0.253   6.306  14.601
40518SOL     OW23392   8.540  11.730   9.481
40518SOL    HW123393   8.475  11.678   9.528
40518SOL    HW223394   8.591  11.773   9.550
40519SOL     OW23395  12.847   1.857   0.827
40519SOL    HW123396  12.839   1.868   0.922
40519SOL    HW223397  12.892   1.773   0.817
40520SOL     OW23398  11.129   9.033  14.500
40520SOL    HW123399  11.173   9.039  14.415
40520SOL    HW223400  11.097   9.121  14.516
40521SOL     OW23401   8.186   2.485   5.323
40521SOL    HW123402   8.243   2.428   5.272
40521SOL    HW223403   8.211   2.574   5.297
40522SOL     OW23404  13.256   0.065   9.446
40522SOL    HW123405  13.240  14.851   9.431
40522SOL    HW223406  13.277   0.100   9.359
40523SOL     OW23407   7.156   1.245   6.207
40523SOL    HW123408   7.085   1.309   6.208
40523SOL    HW223409   7.184   1.240   6.115
40524SOL     OW23410   8.994   7.591  10.554
40524SOL    HW123411   9.074   7.636  10.526
40524SOL    HW223412   8.986   7.613  10.647
40525SOL     OW23413  12.673   5.190   4.617
40525SOL    HW123414  12.589   5.236   4.615
40525SOL    HW223415  12.670   5.137   4.697
40526SOL     OW23416  12.513   8.960   4.779
40526SOL    HW123417  12.573   9.030   4.806
40526SOL    HW223418  12.426   9.002   4.779
40527SOL     OW23419   5.305   9.568   1.046
40527SOL    HW123420   5.287   9.480   1.013
40527SOL    HW223421   5.338   9.555   1.134
40528SOL     OW23422   8.557   7.270   8.065
40528SOL    HW123423   8.512   7.355   8.062
40528SOL    HW223424   8.574   7.256   8.158
40529SOL     OW23425   1.105   7.924   2.631
40529SOL    HW123426   1.191   7.882   2.631
40529SOL    HW223427   1.120   8.012   2.596
40530SOL     OW23428  11.703  14.124  14.561
40530SOL    HW123429  11.720  14.138  14.654
40530SOL    HW223430  11.685  14.211  14.526
40531SOL     OW23431   5.791   3.167  14.252
40531SOL    HW123432   5.751   3.104  14.193
40531SOL    HW223433   5.774   3.252  14.211
40532SOL     OW23434  14.146  11.051   8.777
40532SOL    HW123435  14.204  11.112   8.731
40532SOL    HW223436  14.127  11.095   8.860
40533SOL     OW23437   8.390   7.301   4.559
40533SOL    HW123438   8.422   7.240   4.493
40533SOL    HW223439   8.350   7.372   4.509
40534SOL     OW23440   3.450  14.800   5.328
40534SOL    HW123441   3.543  14.776   5.329
40534SOL    HW223442   3.428  14.805   5.235
40535SOL     OW23443   5.484   4.487  13.829
40535SOL    HW123444   5.448   4.534  13.904
40535SOL    HW223445   5.434   4.519  13.754
40536SOL     OW23446   6.204   9.555   9.010
40536SOL    HW123447   6.196   9.650   9.016
40536SOL    HW223448   6.163   9.532   8.926
40537SOL     OW23449   5.529   3.939   4.459
40537SOL    HW123450   5.532   3.923   4.554
40537SOL    HW223451   5.507   4.031   4.451
40538SOL     OW23452   8.560   4.484  11.705
40538SOL    HW123453   8.621   4.474  11.631
40538SOL    HW223454   8.514   4.566  11.687
40539SOL     OW23455   3.494   2.802   1.829
40539SOL    HW123456   3.445   2.762   1.900
40539SOL    HW223457   3.550   2.867   1.872
40540SOL     OW23458   0.803   0.613  13.656
40540SOL    HW123459   0.786   0.555  13.730
40540SOL    HW223460   0.858   0.562  13.597
40541SOL     OW23461  11.069  10.912   3.766
40541SOL    HW123462  11.119  10.918   3.847
40541SOL    HW223463  10.989  10.962   3.783
40542SOL     OW23464   7.598  11.249   2.570
40542SOL    HW123465   7.557  11.310   2.631
40542SOL    HW223466   7.641  11.184   2.626
40543SOL     OW23467   2.970   7.774   7.467
40543SOL    HW123468   2.960   7.857   7.420
40543SOL    HW223469   2.883   7.734   7.462
40544SOL     OW23470   5.815   2.998   6.425
40544SOL    HW123471   5.855   2.964   6.345
40544SOL    HW223472   5.728   3.027   6.399
40545SOL     OW23473  14.278   3.518   6.458
40545SOL    HW123474  14.359   3.558   6.488
40545SOL    HW223475  14.305   3.450   6.396
40546SOL     OW23476   8.540   5.757   9.287
40546SOL    HW123477   8.631   5.773   9.263
40546SOL    HW223478   8.541   5.673   9.333
40547SOL     OW23479   4.719   2.034   5.773
40547SOL    HW123480   4.751   1.997   5.855
40547SOL    HW223481   4.655   2.101   5.800
40548SOL     OW23482   9.182  14.874   7.908
40548SOL    HW123483   9.178   0.050   7.830
40548SOL    HW223484   9.188  14.785   7.873
40549SOL     OW23485   3.706   8.826   6.132
40549SOL    HW123486   3.723   8.882   6.208
40549SOL    HW223487   3.732   8.738   6.161
40550SOL     OW23488   3.484   7.928   0.761
40550SOL    HW123489   3.558   7.934   0.701
40550SOL    HW223490   3.407   7.930   0.705
40551SOL     OW23491   6.038   4.303   8.274
40551SOL    HW123492   6.003   4.241   8.211
40551SOL    HW223493   6.132   4.285   8.277
40552SOL     OW23494  14.022   6.668   5.285
40552SOL    HW123495  14.049   6.580   5.308
40552SOL    HW223496  14.050   6.722   5.359
40553SOL     OW23497   6.199   0.665   8.953
40553SOL    HW123498   6.146   0.745   8.955
40553SOL    HW223499   6.262   0.680   8.883
40554SOL     OW23500   0.596  10.279   1.180
40554SOL    HW123501   0.565  10.316   1.098
40554SOL    HW223502   0.575  10.185   1.174
40555SOL     OW23503   3.169  13.244   6.390
40555SOL    HW123504   3.165  13.314   6.455
40555SOL    HW223505   3.077  13.227   6.367
40556SOL     OW23506  11.087  10.640   5.102
40556SOL    HW123507  11.073  10.636   5.008
40556SOL    HW223508  11.009  10.683   5.137
40557SOL     OW23509   3.757   3.080  10.573
40557SOL    HW123510   3.765   3.164  10.529
40557SOL    HW223511   3.733   3.018  10.503
40558SOL     OW23512   2.922   7.353   7.525
40558SOL    HW123513   2.933   7.421   7.459
40558SOL    HW223514   2.859   7.292   7.487
40559SOL     OW23515   5.293   5.239  14.664
40559SOL    HW123516   5.362   5.173  14.662
40559SOL    HW223517   5.335   5.320  14.637
40560SOL     OW23518   6.562  11.910   5.615
40560SOL    HW123519   6.621  11.925   5.689
40560SOL    HW223520   6.582  11.821   5.586
40561SOL     OW23521   9.232  14.275  13.539
40561SOL    HW123522   9.217  14.369  13.531
40561SOL    HW223523   9.164  14.244  13.598
40562SOL     OW23524   0.527  12.478  12.620
40562SOL    HW123525   0.489  12.451  12.703
40562SOL    HW223526   0.456  12.467  12.557
40563SOL     OW23527  12.303   7.853   3.999
40563SOL    HW123528  12.343   7.935   4.027
40563SOL    HW223529  12.323   7.847   3.905
40564SOL     OW23530   2.339  11.061   0.734
40564SOL    HW123531   2.426  11.099   0.723
40564SOL    HW223532   2.301  11.109   0.807
40565SOL     OW23533   5.396  12.957   4.508
40565SOL    HW123534   5.469  13.011   4.538
40565SOL    HW223535   5.408  12.951   4.413
40566SOL     OW23536   5.732   7.423   7.763
40566SOL    HW123537   5.800   7.368   7.803
40566SOL    HW223538   5.728   7.501   7.818
40567SOL     OW23539   1.143   3.700   5.116
40567SOL    HW123540   1.141   3.655   5.200
40567SOL    HW223541   1.079   3.654   5.061
40568SOL     OW23542  12.057   7.312  14.087
40568SOL    HW123543  12.121   7.243  14.106
40568SOL    HW223544  12.028   7.342  14.173
40569SOL     OW23545   0.742   0.543   0.584
40569SOL    HW123546   0.666   0.569   0.532
40569SOL    HW223547   0.709   0.543   0.674
40570SOL     OW23548   8.065   5.189   0.037
40570SOL    HW123549   8.035   5.243  14.843
40570SOL    HW223550   7.985   5.167   0.085
40571SOL     OW23551  11.662   7.081  13.629
40571SOL    HW123552  11.625   7.168  13.640
40571SOL    HW223553  11.697   7.059  13.715
40572SOL     OW23554  10.539   7.779   8.268
40572SOL    HW123555  10.458   7.815   8.232
40572SOL    HW223556  10.564   7.710   8.207
40573SOL     OW23557  12.758   7.299   2.865
40573SOL    HW123558  12.795   7.379   2.901
40573SOL    HW223559  12.833   7.250   2.832
40574SOL     OW23560   4.894  10.128   5.813
40574SOL    HW123561   4.847  10.139   5.896
40574SOL    HW223562   4.981  10.098   5.838
40575SOL     OW23563  11.349   8.484   6.815
40575SOL    HW123564  11.257   8.488   6.841
40575SOL    HW223565  11.358   8.401   6.768
40576SOL     OW23566   0.887   9.443  11.951
40576SOL    HW123567   0.812   9.472  11.899
40576SOL    HW223568   0.888   9.348  11.940
40577SOL     OW23569   2.465   7.286   9.874
40577SOL    HW123570   2.531   7.353   9.893
40577SOL    HW223571   2.385   7.335   9.856
40578SOL     OW23572   1.052   6.016  10.272
40578SOL    HW123573   1.059   6.108  10.296
40578SOL    HW223574   0.962   5.992  10.294
40579SOL     OW23575   6.633  11.465   1.264
40579SOL    HW123576   6.569  11.429   1.325
40579SOL    HW223577   6.714  11.471   1.316
40580SOL     OW23578   8.877  14.360   3.529
40580SOL    HW123579   8.958  14.386   3.575
40580SOL    HW223580   8.886  14.266   3.518
40581SOL     OW23581   0.142   8.795  11.133
40581SOL    HW123582   0.233   8.771  11.117
40581SOL    HW223583   0.100   8.790  11.047
40582SOL     OW23584   2.872   8.367   1.996
40582SOL    HW123585   2.777   8.358   1.997
40582SOL    HW223586   2.894   8.406   2.080
40583SOL     OW23587   6.264   8.107  14.473
40583SOL    HW123588   6.180   8.096  14.429
40583SOL    HW223589   6.327   8.118  14.401
40584SOL     OW23590   4.398  13.092   5.257
40584SOL    HW123591   4.396  13.093   5.161
40584SOL    HW223592   4.337  13.161   5.282
40585SOL     OW23593   0.900   4.409   6.044
40585SOL    HW123594   0.903   4.313   6.051
40585SOL    HW223595   0.822   4.434   6.095
40586SOL     OW23596   0.277   8.615  14.570
40586SOL    HW123597   0.222   8.677  14.522
40586SOL    HW223598   0.215   8.564  14.622
40587SOL     OW23599  14.069   2.029   0.671
40587SOL    HW123600  14.006   2.088   0.630
40587SOL    HW223601  14.114   2.083   0.736
40588SOL     OW23602   0.410  12.771  12.882
40588SOL    HW123603   0.484  12.831  12.870
40588SOL    HW223604   0.353  12.787  12.807
40589SOL     OW23605  13.237   2.100   8.542
40589SOL    HW123606  13.206   2.043   8.471
40589SOL    HW223607  13.212   2.053   8.622
40590SOL     OW23608   7.795  11.992   9.280
40590SOL    HW123609   7.879  12.014   9.241
40590SOL    HW223610   7.733  11.999   9.208
40591SOL     OW23611   3.007  12.863   8.005
40591SOL    HW123612   3.094  12.888   8.038
40591SOL    HW223613   2.983  12.786   8.057
40592SOL     OW23614  13.196   3.408  14.764
40592SOL    HW123615  13.153   3.336  14.718
40592SOL    HW223616  13.250   3.451  14.697
40593SOL     OW23617   8.495   9.284   5.216
40593SOL    HW123618   8.572   9.339   5.226
40593SOL    HW223619   8.529   9.195   5.208
40594SOL     OW23620   1.161   2.104   5.818
40594SOL    HW123621   1.163   2.174   5.753
40594SOL    HW223622   1.129   2.027   5.770
40595SOL     OW23623   3.068   6.085   0.556
40595SOL    HW123624   3.100   6.149   0.620
40595SOL    HW223625   2.978   6.067   0.581
40596SOL     OW23626   0.138  11.755   2.180
40596SOL    HW123627   0.062  11.718   2.136
40596SOL    HW223628   0.191  11.679   2.204
40597SOL     OW23629  12.398  14.764  14.284
40597SOL    HW123630  12.348  14.709  14.345
40597SOL    HW223631  12.464  14.705  14.247
40598SOL     OW23632   7.426  11.548   6.803
40598SOL    HW123633   7.375  11.597   6.739
40598SOL    HW223634   7.362  11.495   6.850
40599SOL     OW23635   8.845   6.359   6.321
40599SOL    HW123636   8.811   6.386   6.236
40599SOL    HW223637   8.844   6.263   6.318
40600SOL     OW23638   3.028   9.950   3.697
40600SOL    HW123639   3.101  10.011   3.702
40600SOL    HW223640   3.069   9.863   3.698
40601SOL     OW23641  13.478   0.483   7.672
40601SOL    HW123642  13.422   0.475   7.595
40601SOL    HW223643  13.537   0.408   7.666
40602SOL     OW23644   6.093   8.312  14.844
40602SOL    HW123645   6.014   8.295  14.794
40602SOL    HW223646   6.071   8.286   0.054
40603SOL     OW23647   6.168   8.242   7.813
40603SOL    HW123648   6.115   8.285   7.745
40603SOL    HW223649   6.258   8.265   7.792
40604SOL     OW23650   9.977  13.423  11.746
40604SOL    HW123651   9.995  13.441  11.838
40604SOL    HW223652  10.061  13.433  11.702
40605SOL     OW23653   1.499  10.941   2.311
40605SOL    HW123654   1.448  10.861   2.297
40605SOL    HW223655   1.510  10.947   2.406
40606SOL     OW23656   5.211  14.105   8.073
40606SOL    HW123657   5.145  14.103   8.142
40606SOL    HW223658   5.264  14.027   8.088
40607SOL     OW23659   7.455   6.955   4.214
40607SOL    HW123660   7.468   6.997   4.299
40607SOL    HW223661   7.447   7.028   4.153
40608SOL     OW23662   0.824   2.391   3.239
40608SOL    HW123663   0.760   2.366   3.172
40608SOL    HW223664   0.823   2.487   3.240
40609SOL     OW23665  14.803   7.225   1.046
40609SOL    HW123666  14.709   7.242   1.032
40609SOL    HW223667  14.846   7.304   1.015
40610SOL     OW23668   5.774   1.724  10.009
40610SOL    HW123669   5.833   1.761  10.074
40610SOL    HW223670   5.758   1.634  10.039
40611SOL     OW23671   8.309   7.495   4.186
40611SOL    HW123672   8.360   7.417   4.210
40611SOL    HW223673   8.375   7.562   4.168
40612SOL     OW23674  13.925   9.065   3.432
40612SOL    HW123675  13.892   9.140   3.382
40612SOL    HW223676  13.855   9.043   3.493
40613SOL     OW23677   0.634   5.978  10.159
40613SOL    HW123678   0.543   5.964  10.186
40613SOL    HW223679   0.630   5.976  10.063
40614SOL     OW23680   1.328   6.840   7.416
40614SOL    HW123681   1.286   6.782   7.479
40614SOL    HW223682   1.288   6.926   7.432
40615SOL     OW23683   4.410   8.607   0.844
40615SOL    HW123684   4.494   8.574   0.813
40615SOL    HW223685   4.386   8.547   0.915
40616SOL     OW23686   0.169   9.222   9.587
40616SOL    HW123687   0.202   9.289   9.647
40616SOL    HW223688   0.242   9.160   9.578
40617SOL     OW23689   2.486  10.870  14.171
40617SOL    HW123690   2.397  10.869  14.136
40617SOL    HW223691   2.528  10.945  14.128
40618SOL     OW23692   6.290   2.541  13.018
40618SOL    HW123693   6.235   2.465  13.037
40618SOL    HW223694   6.366   2.531  13.075
40619SOL     OW23695   1.763  12.522   0.793
40619SOL    HW123696   1.818  12.444   0.801
40619SOL    HW223697   1.734  12.540   0.883
40620SOL     OW23698   6.292   7.903   9.527
40620SOL    HW123699   6.202   7.891   9.497
40620SOL    HW223700   6.285   7.969   9.596
40621SOL     OW23701  10.267  12.365   8.381
40621SOL    HW123702  10.353  12.403   8.361
40621SOL    HW223703  10.205  12.419   8.333
40622SOL     OW23704  13.686   1.221  14.015
40622SOL    HW123705  13.721   1.204  14.102
40622SOL    HW223706  13.594   1.192  14.020
40623SOL     OW23707   2.847   9.166   6.861
40623SOL    HW123708   2.869   9.238   6.802
40623SOL    HW223709   2.752   9.157   6.853
40624SOL     OW23710   0.534  11.518   1.344
40624SOL    HW123711   0.449  11.488   1.313
40624SOL    HW223712   0.540  11.486   1.434
40625SOL     OW23713   2.481  14.626   0.700
40625SOL    HW123714   2.563  14.623   0.750
40625SOL    HW223715   2.509  14.640   0.610
40626SOL     OW23716   4.194   1.480   0.958
40626SOL    HW123717   4.257   1.428   1.007
40626SOL    HW223718   4.111   1.433   0.968
40627SOL     OW23719  13.372   9.638   3.004
40627SOL    HW123720  13.350   9.622   3.096
40627SOL    HW223721  13.288   9.650   2.961
40628SOL     OW23722   1.414   7.600   2.757
40628SOL    HW123723   1.330   7.557   2.738
40628SOL    HW223724   1.428   7.584   2.850
40629SOL     OW23725   4.629   2.586   0.207
40629SOL    HW123726   4.591   2.567   0.293
40629SOL    HW223727   4.710   2.632   0.227
40630SOL     OW23728   0.721   7.878   4.784
40630SOL    HW123729   0.649   7.821   4.755
40630SOL    HW223730   0.746   7.844   4.870
40631SOL     OW23731  12.701   8.051   9.923
40631SOL    HW123732  12.626   8.010   9.879
40631SOL    HW223733  12.673   8.060  10.014
40632SOL     OW23734  12.827  10.284   3.701
40632SOL    HW123735  12.840  10.190   3.687
40632SOL    HW223736  12.915  10.321   3.697
40633SOL     OW23737   4.947   0.394   3.293
40633SOL    HW123738   4.938   0.377   3.199
40633SOL    HW223739   4.923   0.485   3.304
40634SOL     OW23740   4.223  10.027   1.835
40634SOL    HW123741   4.169  10.071   1.901
40634SOL    HW223742   4.178  10.043   1.752
40635SOL     OW23743   1.589   4.604   9.585
40635SOL    HW123744   1.520   4.540   9.600
40635SOL    HW223745   1.589   4.658   9.664
40636SOL     OW23746  11.055   4.475   2.280
40636SOL    HW123747  10.995   4.466   2.354
40636SOL    HW223748  11.140   4.448   2.314
40637SOL     OW23749  13.372   5.485  13.463
40637SOL    HW123750  13.309   5.508  13.395
40637SOL    HW223751  13.354   5.546  13.534
40638SOL     OW23752   2.125  12.706  11.572
40638SOL    HW123753   2.138  12.777  11.510
40638SOL    HW223754   2.046  12.661  11.542
40639SOL     OW23755   3.566  11.239   4.334
40639SOL    HW123756   3.586  11.326   4.369
40639SOL    HW223757   3.577  11.249   4.239
40640SOL     OW23758   2.898   1.196  12.188
40640SOL    HW123759   2.889   1.151  12.272
40640SOL    HW223760   2.949   1.275  12.209
40641SOL     OW23761   5.473  13.609   2.117
40641SOL    HW123762   5.450  13.700   2.135
40641SOL    HW223763   5.474  13.603   2.021
40642SOL     OW23764  13.505   2.456  10.958
40642SOL    HW123765  13.483   2.505  11.037
40642SOL    HW223766  13.548   2.520  10.902
40643SOL     OW23767   6.402   4.765   1.666
40643SOL    HW123768   6.397   4.791   1.758
40643SOL    HW223769   6.392   4.847   1.618
40644SOL     OW23770   9.965   4.523   6.336
40644SOL    HW123771  10.017   4.601   6.316
40644SOL    HW223772   9.877   4.543   6.305
40645SOL     OW23773  13.777   5.837   7.229
40645SOL    HW123774  13.717   5.787   7.173
40645SOL    HW223775  13.738   5.830   7.316
40646SOL     OW23776   6.357   5.213  11.319
40646SOL    HW123777   6.341   5.145  11.254
40646SOL    HW223778   6.355   5.295  11.269
40647SOL     OW23779   8.564   4.071   5.679
40647SOL    HW123780   8.497   4.135   5.704
40647SOL    HW223781   8.527   3.986   5.704
40648SOL     OW23782   3.400   0.289   8.305
40648SOL    HW123783   3.379   0.265   8.214
40648SOL    HW223784   3.349   0.228   8.358
40649SOL     OW23785   8.817   1.921  11.813
40649SOL    HW123786   8.808   1.951  11.722
40649SOL    HW223787   8.796   1.827  11.808
40650SOL     OW23788   7.839   8.075   6.961
40650SOL    HW123789   7.907   8.071   7.029
40650SOL    HW223790   7.758   8.094   7.009
40651SOL     OW23791   1.883   8.310  13.674
40651SOL    HW123792   1.884   8.242  13.607
40651SOL    HW223793   1.952   8.285  13.735
40652SOL     OW23794  11.468   4.832   8.919
40652SOL    HW123795  11.484   4.899   8.853
40652SOL    HW223796  11.548   4.831   8.972
40653SOL     OW23797   0.283  13.239  14.797
40653SOL    HW123798   0.219  13.199  14.856
40653SOL    HW223799   0.264  13.333  14.802
40654SOL     OW23800   3.650   8.640  13.500
40654SOL    HW123801   3.741   8.667  13.502
40654SOL    HW223802   3.640   8.596  13.415
40655SOL     OW23803  13.499  14.449   4.342
40655SOL    HW123804  13.420  14.433   4.290
40655SOL    HW223805  13.469  14.440   4.433
40656SOL     OW23806   2.125  14.517  13.332
40656SOL    HW123807   2.100  14.527  13.240
40656SOL    HW223808   2.140  14.606  13.363
40657SOL     OW23809   2.729   2.401   2.219
40657SOL    HW123810   2.726   2.368   2.129
40657SOL    HW223811   2.810   2.365   2.256
40658SOL     OW23812  14.167   7.302  14.607
40658SOL    HW123813  14.096   7.239  14.594
40658SOL    HW223814  14.151   7.339  14.694
40659SOL     OW23815   1.955  10.510   9.318
40659SOL    HW123816   1.936  10.582   9.259
40659SOL    HW223817   2.022  10.459   9.271
40660SOL     OW23818  11.483  14.423   2.721
40660SOL    HW123819  11.441  14.342   2.692
40660SOL    HW223820  11.515  14.464   2.640
40661SOL     OW23821   5.424   9.745   9.246
40661SOL    HW123822   5.359   9.685   9.282
40661SOL    HW223823   5.485   9.688   9.199
40662SOL     OW23824   4.803   4.475  11.336
40662SOL    HW123825   4.789   4.510  11.424
40662SOL    HW223826   4.739   4.522  11.281
40663SOL     OW23827   5.749   1.791  14.098
40663SOL    HW123828   5.814   1.839  14.048
40663SOL    HW223829   5.673   1.848  14.101
40664SOL     OW23830   1.046  10.246   2.693
40664SOL    HW123831   1.094  10.220   2.772
40664SOL    HW223832   1.005  10.329   2.716
40665SOL     OW23833  11.994   5.715  14.033
40665SOL    HW123834  12.017   5.747  13.946
40665SOL    HW223835  11.898   5.712  14.032
40666SOL     OW23836  12.672  10.871   2.079
40666SOL    HW123837  12.605  10.835   2.136
40666SOL    HW223838  12.637  10.954   2.048
40667SOL     OW23839   0.281  12.962  14.133
40667SOL    HW123840   0.293  13.055  14.116
40667SOL    HW223841   0.231  12.930  14.057
40668SOL     OW23842   3.313  13.437   5.254
40668SOL    HW123843   3.341  13.485   5.332
40668SOL    HW223844   3.325  13.345   5.277
40669SOL     OW23845   8.957  14.688   1.148
40669SOL    HW123846   8.983  14.709   1.058
40669SOL    HW223847   8.981  14.596   1.159
40670SOL     OW23848   6.958   3.906   5.355
40670SOL    HW123849   7.015   3.850   5.302
40670SOL    HW223850   6.872   3.863   5.352
40671SOL     OW23851   2.543   2.759  13.840
40671SOL    HW123852   2.588   2.834  13.878
40671SOL    HW223853   2.456   2.791  13.817
40672SOL     OW23854   5.013   5.394  14.826
40672SOL    HW123855   4.997   5.444   0.027
40672SOL    HW223856   4.956   5.435  14.760
40673SOL     OW23857   5.713   3.619   1.354
40673SOL    HW123858   5.798   3.656   1.378
40673SOL    HW223859   5.649   3.677   1.394
40674SOL     OW23860   7.556   6.963   8.817
40674SOL    HW123861   7.601   6.948   8.900
40674SOL    HW223862   7.625   6.959   8.751
40675SOL     OW23863   3.422   7.474   2.964
40675SOL    HW123864   3.483   7.409   2.928
40675SOL    HW223865   3.335   7.441   2.940
40676SOL     OW23866   0.405  14.611  14.578
40676SOL    HW123867   0.440  14.530  14.615
40676SOL    HW223868   0.314  14.590  14.557
40677SOL     OW23869  14.620   7.897  11.497
40677SOL    HW123870  14.671   7.897  11.578
40677SOL    HW223871  14.683   7.920  11.429
40678SOL     OW23872   6.439   7.922   3.319
40678SOL    HW123873   6.517   7.967   3.350
40678SOL    HW223874   6.410   7.871   3.394
40679SOL     OW23875   9.771   8.763   0.287
40679SOL    HW123876   9.859   8.800   0.282
40679SOL    HW223877   9.722   8.806   0.217
40680SOL     OW23878  13.981   6.488   1.283
40680SOL    HW123879  13.979   6.419   1.351
40680SOL    HW223880  13.901   6.473   1.233
40681SOL     OW23881  14.636   0.318   7.166
40681SOL    HW123882  14.662   0.226   7.158
40681SOL    HW223883  14.719   0.366   7.172
40682SOL     OW23884   5.022   5.977  14.027
40682SOL    HW123885   4.991   6.068  14.030
40682SOL    HW223886   4.969   5.935  13.960
40683SOL     OW23887   4.452  13.390   4.378
40683SOL    HW123888   4.363  13.379   4.344
40683SOL    HW223889   4.466  13.484   4.381
40684SOL     OW23890   1.819   6.175   1.331
40684SOL    HW123891   1.783   6.139   1.250
40684SOL    HW223892   1.754   6.154   1.398
40685SOL     OW23893   3.044  12.365   1.473
40685SOL    HW123894   3.109  12.416   1.425
40685SOL    HW223895   3.054  12.393   1.564
40686SOL     OW23896   1.035   2.339   1.446
40686SOL    HW123897   1.075   2.317   1.531
40686SOL    HW223898   1.086   2.289   1.382
40687SOL     OW23899   2.253  11.370   5.141
40687SOL    HW123900   2.277  11.395   5.230
40687SOL    HW223901   2.287  11.440   5.086
40688SOL     OW23902   5.724   4.733  13.299
40688SOL    HW123903   5.800   4.790  13.291
40688SOL    HW223904   5.661   4.768  13.236
40689SOL     OW23905  14.250  10.642   7.653
40689SOL    HW123906  14.317  10.707   7.631
40689SOL    HW223907  14.169  10.679   7.620
40690SOL     OW23908   9.224   1.397   3.669
40690SOL    HW123909   9.242   1.333   3.600
40690SOL    HW223910   9.310   1.416   3.706
40691SOL     OW23911   2.592   0.775   6.689
40691SOL    HW123912   2.617   0.864   6.716
40691SOL    HW223913   2.660   0.719   6.727
40692SOL     OW23914   2.569   8.612   2.910
40692SOL    HW123915   2.556   8.706   2.916
40692SOL    HW223916   2.485   8.578   2.878
40693SOL     OW23917   8.993   1.503   0.456
40693SOL    HW123918   9.076   1.488   0.502
40693SOL    HW223919   8.968   1.592   0.481
40694SOL     OW23920  14.567   4.194   3.258
40694SOL    HW123921  14.490   4.200   3.201
40694SOL    HW223922  14.593   4.285   3.272
40695SOL     OW23923  14.236  12.060   0.888
40695SOL    HW123924  14.290  12.011   0.951
40695SOL    HW223925  14.166  12.098   0.940
40696SOL     OW23926   9.509  12.219  11.887
40696SOL    HW123927   9.450  12.147  11.907
40696SOL    HW223928   9.461  12.274  11.826
40697SOL     OW23929   8.131   8.655  14.548
40697SOL    HW123930   8.170   8.733  14.509
40697SOL    HW223931   8.195   8.585  14.530
40698SOL     OW23932   6.390   6.493   8.061
40698SOL    HW123933   6.433   6.507   7.977
40698SOL    HW223934   6.425   6.409   8.092
40699SOL     OW23935   1.456  12.998   8.300
40699SOL    HW123936   1.418  12.946   8.371
40699SOL    HW223937   1.546  13.016   8.330
40700SOL     OW23938  13.199  13.288   9.782
40700SOL    HW123939  13.276  13.317   9.831
40700SOL    HW223940  13.124  13.315   9.835
40701SOL     OW23941   7.820   6.674   5.079
40701SOL    HW123942   7.888   6.682   5.146
40701SOL    HW223943   7.788   6.763   5.066
40702SOL     OW23944   3.344  10.642   3.357
40702SOL    HW123945   3.369  10.706   3.290
40702SOL    HW223946   3.289  10.692   3.418
40703SOL     OW23947   1.967   7.090   0.100
40703SOL    HW123948   1.947   7.132   0.184
40703SOL    HW223949   1.949   6.998   0.115
40704SOL     OW23950  13.677  10.965  14.111
40704SOL    HW123951  13.673  10.916  14.193
40704SOL    HW223952  13.588  10.958  14.075
40705SOL     OW23953  11.331   8.395  10.679
40705SOL    HW123954  11.276   8.383  10.756
40705SOL    HW223955  11.272   8.383  10.605
40706SOL     OW23956   7.327   1.271  13.014
40706SOL    HW123957   7.311   1.190  12.966
40706SOL    HW223958   7.421   1.269  13.033
40707SOL     OW23959  10.759  12.865  12.375
40707SOL    HW123960  10.678  12.913  12.357
40707SOL    HW223961  10.828  12.926  12.351
40708SOL     OW23962   6.840   9.637  11.700
40708SOL    HW123963   6.928   9.624  11.666
40708SOL    HW223964   6.794   9.687  11.633
40709SOL     OW23965   8.008   2.520   7.760
40709SOL    HW123966   7.936   2.511   7.823
40709SOL    HW223967   8.086   2.493   7.809
40710SOL     OW23968   0.560   1.646   5.042
40710SOL    HW123969   0.583   1.564   4.997
40710SOL    HW223970   0.564   1.624   5.135
40711SOL     OW23971   9.269  11.939  13.916
40711SOL    HW123972   9.275  12.019  13.968
40711SOL    HW223973   9.233  11.967  13.832
40712SOL     OW23974  14.462  11.596   7.182
40712SOL    HW123975  14.522  11.671   7.188
40712SOL    HW223976  14.500  11.530   7.241
40713SOL     OW23977   4.546   9.427   1.034
40713SOL    HW123978   4.537   9.338   1.003
40713SOL    HW223979   4.635   9.453   1.008
40714SOL     OW23980  13.967  10.241  10.178
40714SOL    HW123981  13.952  10.167  10.236
40714SOL    HW223982  13.881  10.283  10.170
40715SOL     OW23983  12.483   9.282  13.987
40715SOL    HW123984  12.481   9.209  13.925
40715SOL    HW223985  12.480   9.239  14.073
40716SOL     OW23986   9.551   2.638   9.000
40716SOL    HW123987   9.479   2.684   8.958
40716SOL    HW223988   9.630   2.682   8.967
40717SOL     OW23989  11.285   1.587   3.014
40717SOL    HW123990  11.295   1.620   2.925
40717SOL    HW223991  11.202   1.625   3.044
40718SOL     OW23992   8.711   4.480   0.099
40718SOL    HW123993   8.620   4.508   0.093
40718SOL    HW223994   8.727   4.433   0.017
40719SOL     OW23995  14.399   0.039   4.211
40719SOL    HW123996  14.394  14.823   4.209
40719SOL    HW223997  14.341   0.068   4.141
40720SOL     OW23998   7.666  14.192   9.757
40720SOL    HW123999   7.593  14.197   9.695
40720SOL    HW224000   7.637  14.246   9.832
40721SOL     OW24001  12.019   3.622   6.827
40721SOL    HW124002  11.972   3.583   6.901
40721SOL    HW224003  11.955   3.682   6.788
40722SOL     OW24004   4.317   2.359  10.320
40722SOL    HW124005   4.302   2.427  10.385
40722SOL    HW224006   4.412   2.351  10.315
40723SOL     OW24007   9.457   8.477  11.535
40723SOL    HW124008   9.460   8.573  11.533
40723SOL    HW224009   9.539   8.450  11.494
40724SOL     OW24010   3.428   5.430   4.697
40724SOL    HW124011   3.462   5.396   4.615
40724SOL    HW224012   3.493   5.404   4.763
40725SOL     OW24013   4.919   6.447   6.346
40725SOL    HW124014   4.895   6.389   6.418
40725SOL    HW224015   4.930   6.533   6.388
40726SOL     OW24016  14.334   6.423   3.591
40726SOL    HW124017  14.315   6.349   3.648
40726SOL    HW224018  14.379   6.384   3.516
40727SOL     OW24019   5.042  12.679   7.290
40727SOL    HW124020   4.958  12.634   7.294
40727SOL    HW224021   5.029  12.759   7.340
40728SOL     OW24022   8.708  10.195   7.226
40728SOL    HW124023   8.788  10.180   7.175
40728SOL    HW224024   8.707  10.290   7.241
40729SOL     OW24025   9.805   3.831   6.476
40729SOL    HW124026   9.844   3.746   6.457
40729SOL    HW224027   9.877   3.893   6.464
40730SOL     OW24028   7.998   8.379   8.076
40730SOL    HW124029   8.054   8.454   8.098
40730SOL    HW224030   7.922   8.417   8.033
40731SOL     OW24031   1.634   8.006  12.653
40731SOL    HW124032   1.689   7.929  12.664
40731SOL    HW224033   1.578   8.007  12.731
40732SOL     OW24034  12.227  13.172   3.899
40732SOL    HW124035  12.244  13.257   3.940
40732SOL    HW224036  12.136  13.152   3.922
40733SOL     OW24037   8.309   2.228   7.150
40733SOL    HW124038   8.403   2.243   7.140
40733SOL    HW224039   8.269   2.279   7.079
40734SOL     OW24040  14.120   9.840   7.902
40734SOL    HW124041  14.206   9.824   7.863
40734SOL    HW224042  14.086   9.752   7.920
40735SOL     OW24043   2.384   5.049   0.094
40735SOL    HW124044   2.336   4.983   0.044
40735SOL    HW224045   2.476   5.030   0.075
40736SOL     OW24046   2.322  12.076   0.825
40736SOL    HW124047   2.314  12.137   0.752
40736SOL    HW224048   2.269  12.114   0.895
40737SOL     OW24049   0.076   4.322   8.754
40737SOL    HW124050   0.130   4.305   8.831
40737SOL    HW224051   0.040   4.237   8.730
40738SOL     OW24052   4.077   5.157   7.493
40738SOL    HW124053   4.023   5.171   7.416
40738SOL    HW224054   4.016   5.127   7.560
40739SOL     OW24055   6.389   1.961   2.373
40739SOL    HW124056   6.307   1.911   2.365
40739SOL    HW224057   6.362   2.046   2.406
40740SOL     OW24058   1.111   2.307   5.628
40740SOL    HW124059   1.036   2.258   5.592
40740SOL    HW224060   1.073   2.389   5.658
40741SOL     OW24061  11.295   0.258   6.184
40741SOL    HW124062  11.314   0.348   6.156
40741SOL    HW224063  11.360   0.240   6.253
40742SOL     OW24064   3.140  10.837  10.441
40742SOL    HW124065   3.179  10.750  10.434
40742SOL    HW224066   3.179  10.874  10.520
40743SOL     OW24067   8.926  14.511   9.923
40743SOL    HW124068   8.963  14.475   9.843
40743SOL    HW224069   8.965  14.598   9.931
40744SOL     OW24070   9.089  11.642   7.579
40744SOL    HW124071   9.094  11.597   7.494
40744SOL    HW224072   9.132  11.726   7.563
40745SOL     OW24073  12.483  13.476  10.709
40745SOL    HW124074  12.423  13.404  10.691
40745SOL    HW224075  12.558  13.460  10.651
40746SOL     OW24076   3.527   2.838  12.264
40746SOL    HW124077   3.473   2.797  12.197
40746SOL    HW224078   3.464   2.881  12.322
40747SOL     OW24079   6.533   8.300   1.948
40747SOL    HW124080   6.625   8.294   1.921
40747SOL    HW224081   6.537   8.328   2.039
40748SOL     OW24082  10.807  14.599   6.140
40748SOL    HW124083  10.794  14.578   6.048
40748SOL    HW224084  10.872  14.669   6.140
40749SOL     OW24085   7.036   7.682   5.098
40749SOL    HW124086   7.069   7.771   5.113
40749SOL    HW224087   7.050   7.637   5.182
40750SOL     OW24088   5.278   2.753   9.236
40750SOL    HW124089   5.276   2.841   9.199
40750SOL    HW224090   5.354   2.711   9.196
40751SOL     OW24091   3.081   5.152   4.890
40751SOL    HW124092   3.046   5.212   4.825
40751SOL    HW224093   3.175   5.148   4.871
40752SOL     OW24094   9.067  12.727   8.552
40752SOL    HW124095   9.088  12.765   8.638
40752SOL    HW224096   9.093  12.635   8.560
40753SOL     OW24097   2.027   0.195   7.460
40753SOL    HW124098   2.001   0.145   7.538
40753SOL    HW224099   1.953   0.253   7.443
40754SOL     OW24100   4.038  14.525  12.493
40754SOL    HW124101   4.077  14.565  12.416
40754SOL    HW224102   3.961  14.478  12.460
40755SOL     OW24103   9.225   4.362   8.240
40755SOL    HW124104   9.302   4.348   8.294
40755SOL    HW224105   9.209   4.456   8.244
40756SOL     OW24106   9.011   4.649   7.207
40756SOL    HW124107   8.916   4.648   7.195
40756SOL    HW224108   9.040   4.725   7.156
40757SOL     OW24109   3.998   1.094   4.289
40757SOL    HW124110   4.039   1.008   4.278
40757SOL    HW224111   4.004   1.135   4.203
40758SOL     OW24112   4.031   6.574   7.512
40758SOL    HW124113   3.959   6.594   7.452
40758SOL    HW224114   4.082   6.655   7.516
40759SOL     OW24115  12.128   2.880   6.498
40759SOL    HW124116  12.040   2.914   6.478
40759SOL    HW224117  12.164   2.941   6.562
40760SOL     OW24118   0.636   4.508   8.751
40760SOL    HW124119   0.586   4.509   8.669
40760SOL    HW224120   0.586   4.565   8.809
40761SOL     OW24121   9.499  12.453   9.684
40761SOL    HW124122   9.434  12.491   9.744
40761SOL    HW224123   9.562  12.524   9.669
40762SOL     OW24124   3.988   8.159   3.312
40762SOL    HW124125   3.915   8.132   3.368
40762SOL    HW224126   3.952   8.231   3.259
40763SOL     OW24127   7.203  11.151   9.210
40763SOL    HW124128   7.298  11.161   9.204
40763SOL    HW224129   7.168  11.212   9.146
40764SOL     OW24130   4.905  14.526   9.173
40764SOL    HW124131   4.870  14.609   9.141
40764SOL    HW224132   4.980  14.507   9.116
40765SOL     OW24133  11.599   4.609  11.185
40765SOL    HW124134  11.516   4.636  11.224
40765SOL    HW224135  11.632   4.541  11.244
40766SOL     OW24136  12.408   4.399   2.343
40766SOL    HW124137  12.325   4.411   2.389
40766SOL    HW224138  12.383   4.375   2.254
40767SOL     OW24139  13.341   8.840   1.659
40767SOL    HW124140  13.406   8.885   1.713
40767SOL    HW224141  13.296   8.910   1.612
40768SOL     OW24142  10.234   7.720   9.879
40768SOL    HW124143  10.233   7.786   9.810
40768SOL    HW224144  10.317   7.675   9.869
40769SOL     OW24145  14.505   8.163   7.833
40769SOL    HW124146  14.555   8.117   7.901
40769SOL    HW224147  14.464   8.236   7.880
40770SOL     OW24148   7.151  11.320   9.867
40770SOL    HW124149   7.155  11.276   9.952
40770SOL    HW224150   7.073  11.283   9.825
40771SOL     OW24151  13.988   1.247   5.480
40771SOL    HW124152  13.982   1.153   5.498
40771SOL    HW224153  13.906   1.268   5.436
40772SOL     OW24154   2.620   8.179  14.264
40772SOL    HW124155   2.559   8.243  14.301
40772SOL    HW224156   2.706   8.207  14.295
40773SOL     OW24157   5.717   3.538  10.562
40773SOL    HW124158   5.703   3.581  10.646
40773SOL    HW224159   5.682   3.600  10.498
40774SOL     OW24160   0.874   8.939  10.947
40774SOL    HW124161   0.961   8.967  10.975
40774SOL    HW224162   0.889   8.858  10.898
40775SOL     OW24163   7.738  14.767   7.716
40775SOL    HW124164   7.725  14.725   7.801
40775SOL    HW224165   7.756  14.694   7.657
40776SOL     OW24166   4.409  11.143  14.791
40776SOL    HW124167   4.424  11.236  14.771
40776SOL    HW224168   4.496  11.103  14.789
40777SOL     OW24169   1.215   2.277  14.200
40777SOL    HW124170   1.234   2.205  14.140
40777SOL    HW224171   1.268   2.258  14.278
40778SOL     OW24172   3.081  13.456   9.537
40778SOL    HW124173   3.053  13.386   9.596
40778SOL    HW224174   3.093  13.532   9.594
40779SOL     OW24175   4.497   7.801  12.578
40779SOL    HW124176   4.499   7.851  12.496
40779SOL    HW224177   4.405   7.805  12.605
40780SOL     OW24178  13.004   3.904  12.483
40780SOL    HW124179  13.045   3.923  12.567
40780SOL    HW224180  12.926   3.959  12.482
40781SOL     OW24181   1.817   6.771   7.780
40781SOL    HW124182   1.747   6.834   7.798
40781SOL    HW224183   1.843   6.788   7.690
40782SOL     OW24184  10.111   9.028   5.891
40782SOL    HW124185  10.181   9.025   5.826
40782SOL    HW224186  10.046   8.966   5.859
40783SOL     OW24187   7.106  11.172   2.498
40783SOL    HW124188   7.093  11.222   2.579
40783SOL    HW224189   7.189  11.203   2.463
40784SOL     OW24190   6.771   4.010   3.299
40784SOL    HW124191   6.688   4.018   3.347
40784SOL    HW224192   6.759   4.066   3.222
40785SOL     OW24193   3.091  10.057  12.983
40785SOL    HW124194   3.098   9.966  13.012
40785SOL    HW224195   3.180  10.080  12.956
40786SOL     OW24196   7.601   7.391   7.272
40786SOL    HW124197   7.569   7.426   7.189
40786SOL    HW224198   7.691   7.424   7.279
40787SOL     OW24199   8.778   1.897   9.896
40787SOL    HW124200   8.764   1.863   9.808
40787SOL    HW224201   8.693   1.936   9.920
40788SOL     OW24202   3.196  10.245   8.162
40788SOL    HW124203   3.200  10.325   8.109
40788SOL    HW224204   3.114  10.252   8.210
40789SOL     OW24205  12.851   1.708   4.432
40789SOL    HW124206  12.811   1.669   4.510
40789SOL    HW224207  12.786   1.772   4.402
40790SOL     OW24208  11.552  12.580  10.838
40790SOL    HW124209  11.600  12.585  10.755
40790SOL    HW224210  11.493  12.505  10.827
40791SOL     OW24211   2.092  12.408  12.295
40791SOL    HW124212   2.166  12.466  12.313
40791SOL    HW224213   2.129  12.320  12.295
40792SOL     OW24214   5.595  12.810   0.594
40792SOL    HW124215   5.532  12.807   0.522
40792SOL    HW224216   5.680  12.809   0.551
40793SOL     OW24217  10.618   7.114   6.689
40793SOL    HW124218  10.527   7.138   6.707
40793SOL    HW224219  10.612   7.033   6.638
40794SOL     OW24220  13.095   9.130   7.131
40794SOL    HW124221  13.129   9.157   7.045
40794SOL    HW224222  13.052   9.209   7.165
40795SOL     OW24223   1.042   1.640  13.711
40795SOL    HW124224   1.137   1.635  13.719
40795SOL    HW224225   1.017   1.559  13.668
40796SOL     OW24226   8.619   1.298   0.312
40796SOL    HW124227   8.638   1.373   0.256
40796SOL    HW224228   8.527   1.308   0.336
40797SOL     OW24229  11.182   9.238   5.853
40797SOL    HW124230  11.103   9.260   5.901
40797SOL    HW224231  11.175   9.145   5.836
40798SOL     OW24232   7.190   9.323   8.645
40798SOL    HW124233   7.103   9.317   8.606
40798SOL    HW224234   7.247   9.349   8.573
40799SOL     OW24235   9.616  10.056   6.067
40799SOL    HW124236   9.645  10.069   5.977
40799SOL    HW224237   9.598   9.962   6.072
40800SOL     OW24238   3.984  14.466   5.681
40800SOL    HW124239   4.035  14.525   5.736
40800SOL    HW224240   3.939  14.409   5.743
40801SOL     OW24241  10.185   7.054   6.271
40801SOL    HW124242  10.134   7.020   6.345
40801SOL    HW224243  10.120   7.090   6.211
40802SOL     OW24244   2.542  12.019  13.211
40802SOL    HW124245   2.493  12.018  13.129
40802SOL    HW224246   2.629  12.052  13.187
40803SOL     OW24247   8.867   0.062  14.190
40803SOL    HW124248   8.786   0.112  14.201
40803SOL    HW224249   8.908   0.063  14.276
40804SOL     OW24250   8.259   1.997   5.409
40804SOL    HW124251   8.330   2.030   5.354
40804SOL    HW224252   8.209   2.076   5.432
40805SOL     OW24253  10.012   9.984  12.345
40805SOL    HW124254  10.100  10.016  12.324
40805SOL    HW224255  10.018   9.889  12.335
40806SOL     OW24256   7.790   9.609   0.299
40806SOL    HW124257   7.819   9.669   0.230
40806SOL    HW224258   7.700   9.636   0.318
40807SOL     OW24259  10.415   7.933  12.374
40807SOL    HW124260  10.362   7.902  12.301
40807SOL    HW224261  10.351   7.967  12.437
40808SOL     OW24262   7.553   5.882  12.579
40808SOL    HW124263   7.507   5.799  12.566
40808SOL    HW224264   7.492   5.935  12.630
40809SOL     OW24265   5.761   8.977   6.465
40809SOL    HW124266   5.786   8.894   6.505
40809SOL    HW224267   5.843   9.014   6.433
40810SOL     OW24268   2.951   3.808   4.779
40810SOL    HW124269   2.962   3.726   4.827
40810SOL    HW224270   2.865   3.840   4.806
40811SOL     OW24271   9.475   9.641  11.814
40811SOL    HW124272   9.467   9.598  11.729
40811SOL    HW224273   9.520   9.723  11.795
40812SOL     OW24274   3.290  12.665   5.971
40812SOL    HW124275   3.378  12.640   5.943
40812SOL    HW224276   3.303  12.747   6.020
40813SOL     OW24277  10.261   2.712   3.262
40813SOL    HW124278  10.336   2.761   3.231
40813SOL    HW224279  10.295   2.624   3.279
40814SOL     OW24280  13.724  11.608   7.262
40814SOL    HW124281  13.752  11.575   7.347
40814SOL    HW224282  13.771  11.554   7.198
40815SOL     OW24283   8.162  13.287   6.385
40815SOL    HW124284   8.086  13.329   6.426
40815SOL    HW224285   8.225  13.358   6.375
40816SOL     OW24286   5.853   5.007   6.305
40816SOL    HW124287   5.778   5.003   6.244
40816SOL    HW224288   5.904   5.082   6.275
40817SOL     OW24289   5.736   9.000  11.150
40817SOL    HW124290   5.765   8.983  11.060
40817SOL    HW224291   5.644   8.973  11.150
40818SOL     OW24292   0.435   9.355  13.914
40818SOL    HW124293   0.389   9.277  13.885
40818SOL    HW224294   0.516   9.323  13.954
40819SOL     OW24295   3.151   1.792  14.686
40819SOL    HW124296   3.216   1.789  14.755
40819SOL    HW224297   3.146   1.702  14.652
40820SOL     OW24298   3.531  12.456   3.607
40820SOL    HW124299   3.581  12.459   3.688
40820SOL    HW224300   3.502  12.546   3.592
40821SOL     OW24301  12.879  10.437   8.515
40821SOL    HW124302  12.825  10.414   8.591
40821SOL    HW224303  12.834  10.511   8.476
40822SOL     OW24304  14.449   7.406  10.276
40822SOL    HW124305  14.355   7.396  10.290
40822SOL    HW224306  14.472   7.334  10.217
40823SOL     OW24307   9.018   4.883   2.808
40823SOL    HW124308   9.076   4.952   2.777
40823SOL    HW224309   9.035   4.879   2.902
40824SOL     OW24310  10.785   9.267   8.092
40824SOL    HW124311  10.825   9.182   8.111
40824SOL    HW224312  10.713   9.246   8.032
40825SOL     OW24313  14.536   1.332   7.713
40825SOL    HW124314  14.525   1.427   7.711
40825SOL    HW224315  14.631   1.320   7.702
40826SOL     OW24316   0.741   7.105   6.716
40826SOL    HW124317   0.659   7.108   6.667
40826SOL    HW224318   0.757   7.012   6.733
40827SOL     OW24319   1.857   2.576   6.427
40827SOL    HW124320   1.859   2.614   6.515
40827SOL    HW224321   1.931   2.515   6.425
40828SOL     OW24322   8.104   3.361   5.902
40828SOL    HW124323   8.077   3.396   5.987
40828SOL    HW224324   8.174   3.299   5.923
40829SOL     OW24325   9.525   2.614  11.965
40829SOL    HW124326   9.469   2.671  12.017
40829SOL    HW224327   9.477   2.599  11.884
40830SOL     OW24328   2.592  12.227   9.936
40830SOL    HW124329   2.595  12.301   9.875
40830SOL    HW224330   2.553  12.263  10.016
40831SOL     OW24331   0.858   1.232  12.572
40831SOL    HW124332   0.902   1.156  12.533
40831SOL    HW224333   0.766   1.208  12.573
40832SOL     OW24334  14.111   3.070   0.700
40832SOL    HW124335  14.035   3.051   0.646
40832SOL    HW224336  14.083   3.142   0.758
40833SOL     OW24337   6.854   7.817   9.085
40833SOL    HW124338   6.801   7.793   9.162
40833SOL    HW224339   6.919   7.747   9.079
40834SOL     OW24340   2.866   4.245   8.927
40834SOL    HW124341   2.892   4.222   9.016
40834SOL    HW224342   2.801   4.179   8.903
40835SOL     OW24343   6.552   1.422   4.632
40835SOL    HW124344   6.526   1.411   4.723
40835SOL    HW224345   6.478   1.469   4.592
40836SOL     OW24346   0.995  13.494  11.907
40836SOL    HW124347   0.937  13.553  11.860
40836SOL    HW224348   1.068  13.478  11.847
40837SOL     OW24349   4.737   2.606  11.312
40837SOL    HW124350   4.766   2.599  11.221
40837SOL    HW224351   4.698   2.693  11.319
40838SOL     OW24352   9.044   0.999   5.815
40838SOL    HW124353   9.069   0.972   5.903
40838SOL    HW224354   9.128   1.019   5.772
40839SOL     OW24355  12.416   5.194   8.124
40839SOL    HW124356  12.440   5.284   8.143
40839SOL    HW224357  12.495   5.143   8.143
40840SOL     OW24358  13.271   1.200   7.071
40840SOL    HW124359  13.219   1.278   7.051
40840SOL    HW224360  13.344   1.203   7.009
40841SOL     OW24361   0.852   0.829  13.507
40841SOL    HW124362   0.920   0.877  13.556
40841SOL    HW224363   0.831   0.754  13.563
40842SOL     OW24364   0.883  12.341   7.590
40842SOL    HW124365   0.841  12.351   7.505
40842SOL    HW224366   0.909  12.249   7.593
40843SOL     OW24367  11.941   5.806  13.183
40843SOL    HW124368  11.927   5.901  13.185
40843SOL    HW224369  11.903   5.778  13.099
40844SOL     OW24370  12.952   3.610   2.993
40844SOL    HW124371  12.967   3.644   3.081
40844SOL    HW224372  13.039   3.609   2.952
40845SOL     OW24373   5.479   7.740  12.304
40845SOL    HW124374   5.431   7.753  12.222
40845SOL    HW224375   5.410   7.742  12.371
40846SOL     OW24376  11.632  11.724  10.399
40846SOL    HW124377  11.709  11.710  10.343
40846SOL    HW224378  11.604  11.813  10.380
40847SOL     OW24379   9.744  14.232  11.270
40847SOL    HW124380   9.698  14.165  11.321
40847SOL    HW224381   9.825  14.189  11.241
40848SOL     OW24382   4.403   7.680  11.228
40848SOL    HW124383   4.385   7.589  11.207
40848SOL    HW224384   4.319   7.716  11.255
40849SOL     OW24385   9.575   4.092  12.622
40849SOL    HW124386   9.507   4.138  12.571
40849SOL    HW224387   9.586   4.146  12.700
40850SOL     OW24388  12.558  10.233   3.136
40850SOL    HW124389  12.531  10.172   3.067
40850SOL    HW224390  12.480  10.284   3.154
40851SOL     OW24391   6.652  12.884   7.749
40851SOL    HW124392   6.726  12.940   7.774
40851SOL    HW224393   6.691  12.815   7.697
40852SOL     OW24394   5.868   2.202   0.260
40852SOL    HW124395   5.957   2.182   0.231
40852SOL    HW224396   5.878   2.236   0.349
40853SOL     OW24397   4.664   7.879   8.336
40853SOL    HW124398   4.728   7.946   8.356
40853SOL    HW224399   4.580   7.915   8.366
40854SOL     OW24400  11.392   1.768  13.117
40854SOL    HW124401  11.404   1.831  13.046
40854SOL    HW224402  11.334   1.701  13.080
40855SOL     OW24403  12.939   2.229   4.487
40855SOL    HW124404  12.863   2.285   4.505
40855SOL    HW224405  12.994   2.239   4.565
40856SOL     OW24406   5.103  13.320   1.109
40856SOL    HW124407   5.128  13.301   1.199
40856SOL    HW224408   5.021  13.272   1.096
40857SOL     OW24409   0.722  13.277   6.800
40857SOL    HW124410   0.817  13.291   6.791
40857SOL    HW224411   0.689  13.282   6.710
40858SOL     OW24412   5.661   6.251   1.399
40858SOL    HW124413   5.702   6.219   1.480
40858SOL    HW224414   5.728   6.306   1.359
40859SOL     OW24415  10.770  10.799   2.850
40859SOL    HW124416  10.758  10.893   2.849
40859SOL    HW224417  10.852  10.784   2.803
40860SOL     OW24418   5.108   1.917  12.926
40860SOL    HW124419   5.164   1.964  12.864
40860SOL    HW224420   5.093   1.979  12.997
40861SOL     OW24421   9.772  11.877   2.328
40861SOL    HW124422   9.863  11.858   2.351
40861SOL    HW224423   9.738  11.927   2.403
40862SOL     OW24424   0.934  10.283   2.438
40862SOL    HW124425   0.983  10.268   2.519
40862SOL    HW224426   0.905  10.196   2.410
40863SOL     OW24427   4.706   7.403   5.882
40863SOL    HW124428   4.760   7.439   5.811
40863SOL    HW224429   4.686   7.314   5.855
40864SOL     OW24430  11.746   6.516   9.599
40864SOL    HW124431  11.776   6.603   9.627
40864SOL    HW224432  11.822   6.459   9.614
40865SOL     OW24433   1.862  11.509   7.112
40865SOL    HW124434   1.844  11.475   7.199
40865SOL    HW224435   1.777  11.510   7.068
40866SOL     OW24436   9.643  12.837  12.068
40866SOL    HW124437   9.737  12.828  12.050
40866SOL    HW224438   9.601  12.817  11.985
40867SOL     OW24439   0.678  10.859  14.387
40867SOL    HW124440   0.731  10.792  14.430
40867SOL    HW224441   0.726  10.941  14.400
40868SOL     OW24442   4.022   5.452  13.007
40868SOL    HW124443   4.025   5.543  12.976
40868SOL    HW224444   4.068   5.454  13.091
40869SOL     OW24445   2.422   3.433  10.362
40869SOL    HW124446   2.384   3.345  10.358
40869SOL    HW224447   2.483   3.430  10.435
40870SOL     OW24448  12.029  14.159   0.673
40870SOL    HW124449  12.000  14.239   0.630
40870SOL    HW224450  11.952  14.128   0.721
40871SOL     OW24451   8.426  13.302   2.113
40871SOL    HW124452   8.477  13.255   2.047
40871SOL    HW224453   8.474  13.289   2.195
40872SOL     OW24454   1.049   9.949   3.706
40872SOL    HW124455   1.112   9.907   3.764
40872SOL    HW224456   1.098   9.969   3.627
40873SOL     OW24457   7.481   4.004   6.148
40873SOL    HW124458   7.506   3.944   6.219
40873SOL    HW224459   7.539   4.080   6.161
40874SOL     OW24460  12.147   5.818  14.713
40874SOL    HW124461  12.085   5.889  14.697
40874SOL    HW224462  12.149   5.769  14.630
40875SOL     OW24463   7.601  10.064   3.152
40875SOL    HW124464   7.578  10.060   3.245
40875SOL    HW224465   7.524  10.031   3.106
40876SOL     OW24466  12.874   9.422   6.453
40876SOL    HW124467  12.874   9.516   6.468
40876SOL    HW224468  12.810   9.409   6.383
40877SOL     OW24469   8.519  13.852  12.615
40877SOL    HW124470   8.507  13.781  12.677
40877SOL    HW224471   8.546  13.809  12.533
40878SOL     OW24472   2.984  14.726   2.050
40878SOL    HW124473   2.973  14.791   2.119
40878SOL    HW224474   3.041  14.660   2.089
40879SOL     OW24475   3.211  11.464   1.986
40879SOL    HW124476   3.159  11.383   1.983
40879SOL    HW224477   3.188  11.505   2.069
40880SOL     OW24478  13.468   7.413  12.151
40880SOL    HW124479  13.556   7.438  12.180
40880SOL    HW224480  13.460   7.321  12.175
40881SOL     OW24481   9.179   6.532  12.073
40881SOL    HW124482   9.169   6.618  12.114
40881SOL    HW224483   9.176   6.470  12.145
40882SOL     OW24484   7.632   5.337  11.789
40882SOL    HW124485   7.727   5.341  11.801
40882SOL    HW224486   7.618   5.362  11.698
40883SOL     OW24487   0.584  11.015  12.395
40883SOL    HW124488   0.601  10.974  12.310
40883SOL    HW224489   0.642  11.091  12.398
40884SOL     OW24490   4.596   2.406   3.989
40884SOL    HW124491   4.608   2.452   4.073
40884SOL    HW224492   4.521   2.450   3.949
40885SOL     OW24493   1.012   0.473  14.246
40885SOL    HW124494   0.932   0.470  14.194
40885SOL    HW224495   0.981   0.486  14.336
40886SOL     OW24496   9.051   6.798   3.219
40886SOL    HW124497   9.134   6.819   3.262
40886SOL    HW224498   9.074   6.787   3.127
40887SOL     OW24499   8.276   5.217   2.320
40887SOL    HW124500   8.371   5.215   2.318
40887SOL    HW224501   8.250   5.224   2.227
40888SOL     OW24502   5.806   4.103   2.383
40888SOL    HW124503   5.845   4.035   2.329
40888SOL    HW224504   5.712   4.095   2.367
40889SOL     OW24505  13.407   1.701   4.809
40889SOL    HW124506  13.339   1.768   4.804
40889SOL    HW224507  13.375   1.630   4.753
40890SOL     OW24508   6.895   4.438   6.695
40890SOL    HW124509   6.863   4.351   6.720
40890SOL    HW224510   6.839   4.499   6.744
40891SOL     OW24511  14.017   9.363   0.443
40891SOL    HW124512  13.980   9.276   0.462
40891SOL    HW224513  14.088   9.373   0.505
40892SOL     OW24514   2.527   8.972  11.053
40892SOL    HW124515   2.544   8.880  11.071
40892SOL    HW224516   2.608   9.005  11.015
40893SOL     OW24517   4.374  13.095   0.040
40893SOL    HW124518   4.327  13.163  14.871
40893SOL    HW224519   4.305  13.042   0.080
40894SOL     OW24520   8.745   3.446   2.009
40894SOL    HW124521   8.687   3.463   1.935
40894SOL    HW224522   8.827   3.490   1.986
40895SOL     OW24523   4.485  13.951   3.532
40895SOL    HW124524   4.520  13.916   3.614
40895SOL    HW224525   4.396  13.978   3.554
40896SOL     OW24526   4.617   1.005   8.176
40896SOL    HW124527   4.598   1.023   8.268
40896SOL    HW224528   4.579   1.079   8.128
40897SOL     OW24529  10.817   1.736   8.751
40897SOL    HW124530  10.804   1.695   8.836
40897SOL    HW224531  10.911   1.727   8.734
40898SOL     OW24532   1.319   0.112   0.034
40898SOL    HW124533   1.277   0.030   0.008
40898SOL    HW224534   1.345   0.098   0.125
40899SOL     OW24535  11.814   6.716   7.819
40899SOL    HW124536  11.843   6.657   7.889
40899SOL    HW224537  11.721   6.699   7.810
40900SOL     OW24538   5.325  10.305  13.718
40900SOL    HW124539   5.282  10.263  13.792
40900SOL    HW224540   5.302  10.251  13.643
40901SOL     OW24541  12.884   1.656  11.827
40901SOL    HW124542  12.824   1.729  11.815
40901SOL    HW224543  12.827   1.578  11.824
40902SOL     OW24544   3.697  12.641  14.611
40902SOL    HW124545   3.788  12.623  14.636
40902SOL    HW224546   3.696  12.631  14.516
40903SOL     OW24547   4.866  10.946  13.079
40903SOL    HW124548   4.810  11.010  13.125
40903SOL    HW224549   4.829  10.942  12.991
40904SOL     OW24550  13.322   0.994   3.585
40904SOL    HW124551  13.304   0.905   3.555
40904SOL    HW224552  13.251   1.013   3.647
40905SOL     OW24553   0.677  14.424   4.580
40905SOL    HW124554   0.734  14.377   4.641
40905SOL    HW224555   0.656  14.505   4.625
40906SOL     OW24556  13.667   8.731   5.170
40906SOL    HW124557  13.707   8.698   5.089
40906SOL    HW224558  13.574   8.741   5.148
40907SOL     OW24559   3.921   2.504  14.520
40907SOL    HW124560   3.930   2.471  14.431
40907SOL    HW224561   3.879   2.432  14.568
40908SOL     OW24562  13.310   1.532   8.813
40908SOL    HW124563  13.276   1.454   8.770
40908SOL    HW224564  13.405   1.529   8.798
40909SOL     OW24565   2.038  14.259  14.772
40909SOL    HW124566   2.073  14.291  14.689
40909SOL    HW224567   1.999  14.335  14.813
40910SOL     OW24568   9.792  10.494  14.736
40910SOL    HW124569   9.847  10.571  14.725
40910SOL    HW224570   9.815  10.438  14.661
40911SOL     OW24571   9.732  10.264   8.091
40911SOL    HW124572   9.804  10.219   8.046
40911SOL    HW224573   9.746  10.246   8.184
40912SOL     OW24574   9.684   3.531   6.134
40912SOL    HW124575   9.602   3.503   6.095
40912SOL    HW224576   9.712   3.606   6.080
40913SOL     OW24577   6.126   6.145   1.513
40913SOL    HW124578   6.175   6.208   1.566
40913SOL    HW224579   6.121   6.186   1.427
40914SOL     OW24580  13.419  12.562   1.032
40914SOL    HW124581  13.359  12.592   1.100
40914SOL    HW224582  13.485  12.632   1.026
40915SOL     OW24583   6.108  11.568  12.328
40915SOL    HW124584   6.099  11.473  12.316
40915SOL    HW224585   6.092  11.605  12.241
40916SOL     OW24586   2.654  14.270   5.300
40916SOL    HW124587   2.710  14.338   5.263
40916SOL    HW224588   2.593  14.317   5.356
40917SOL     OW24589   2.728   1.930   6.982
40917SOL    HW124590   2.654   1.877   7.011
40917SOL    HW224591   2.739   1.995   7.052
40918SOL     OW24592   5.618   8.082   6.971
40918SOL    HW124593   5.692   8.084   6.909
40918SOL    HW224594   5.569   8.004   6.946
40919SOL     OW24595  10.697   3.935   1.234
40919SOL    HW124596  10.743   4.005   1.188
40919SOL    HW224597  10.763   3.867   1.246
40920SOL     OW24598   1.908   7.401   9.734
40920SOL    HW124599   1.881   7.443   9.815
40920SOL    HW224600   1.935   7.313   9.760
40921SOL     OW24601  12.359   8.852   0.369
40921SOL    HW124602  12.370   8.757   0.371
40921SOL    HW224603  12.277   8.865   0.320
40922SOL     OW24604  11.345  12.624  13.160
40922SOL    HW124605  11.299  12.708  13.162
40922SOL    HW224606  11.282  12.562  13.198
40923SOL     OW24607  14.409   5.065   3.691
40923SOL    HW124608  14.430   5.156   3.709
40923SOL    HW224609  14.329   5.068   3.639
40924SOL     OW24610  11.384  13.412   8.563
40924SOL    HW124611  11.331  13.468   8.621
40924SOL    HW224612  11.451  13.470   8.528
40925SOL     OW24613   0.045   4.675  12.908
40925SOL    HW124614   0.123   4.724  12.934
40925SOL    HW224615   0.037   4.606  12.974
40926SOL     OW24616   2.227   4.234  14.535
40926SOL    HW124617   2.319   4.206  14.541
40926SOL    HW224618   2.230   4.328  14.554
40927SOL     OW24619  10.806  10.162   5.823
40927SOL    HW124620  10.752  10.189   5.748
40927SOL    HW224621  10.812  10.067   5.815
40928SOL     OW24622  12.884   1.539   3.067
40928SOL    HW124623  12.959   1.572   3.116
40928SOL    HW224624  12.920   1.475   3.006
40929SOL     OW24625   6.401   8.626  13.106
40929SOL    HW124626   6.360   8.578  13.178
40929SOL    HW224627   6.482   8.578  13.089
40930SOL     OW24628   8.300  13.859   0.167
40930SOL    HW124629   8.205  13.865   0.170
40930SOL    HW224630   8.324  13.823   0.253
40931SOL     OW24631  13.839  11.881   2.824
40931SOL    HW124632  13.777  11.933   2.772
40931SOL    HW224633  13.901  11.846   2.759
40932SOL     OW24634   5.303  13.966   9.620
40932SOL    HW124635   5.302  13.952   9.525
40932SOL    HW224636   5.298  14.060   9.631
40933SOL     OW24637   8.109   8.574   9.811
40933SOL    HW124638   8.082   8.483   9.798
40933SOL    HW224639   8.052   8.606   9.881
40934SOL     OW24640   6.634   2.370  10.055
40934SOL    HW124641   6.680   2.325   9.984
40934SOL    HW224642   6.704   2.411  10.106
40935SOL     OW24643   7.643   2.735  11.389
40935SOL    HW124644   7.669   2.686  11.311
40935SOL    HW224645   7.592   2.809  11.355
40936SOL     OW24646  14.502  14.284   9.555
40936SOL    HW124647  14.528  14.207   9.504
40936SOL    HW224648  14.503  14.356   9.492
40937SOL     OW24649   0.485   3.565  11.745
40937SOL    HW124650   0.574   3.545  11.716
40937SOL    HW224651   0.444   3.479  11.756
40938SOL     OW24652   2.968   5.405  11.727
40938SOL    HW124653   2.999   5.465  11.796
40938SOL    HW224654   2.949   5.462  11.653
40939SOL     OW24655  13.711   1.400   5.588
40939SOL    HW124656  13.716   1.409   5.683
40939SOL    HW224657  13.758   1.477   5.555
40940SOL     OW24658   4.507  12.198   4.451
40940SOL    HW124659   4.508  12.103   4.456
40940SOL    HW224660   4.562  12.218   4.375
40941SOL     OW24661   9.019   7.605  12.975
40941SOL    HW124662   9.086   7.539  12.995
40941SOL    HW224663   8.937   7.557  12.971
40942SOL     OW24664   9.652   1.660   2.637
40942SOL    HW124665   9.620   1.584   2.686
40942SOL    HW224666   9.600   1.733   2.671
40943SOL     OW24667   9.566   4.164   7.793
40943SOL    HW124668   9.648   4.167   7.842
40943SOL    HW224669   9.569   4.239   7.735
40944SOL     OW24670   7.460   6.124   5.627
40944SOL    HW124671   7.456   6.181   5.550
40944SOL    HW224672   7.522   6.167   5.686
40945SOL     OW24673   8.846   2.063  13.798
40945SOL    HW124674   8.859   2.031  13.709
40945SOL    HW224675   8.775   2.126  13.790
40946SOL     OW24676   8.662  12.242   0.245
40946SOL    HW124677   8.736  12.295   0.276
40946SOL    HW224678   8.640  12.185   0.319
40947SOL     OW24679   9.203  13.371   5.010
40947SOL    HW124680   9.117  13.402   5.040
40947SOL    HW224681   9.207  13.280   5.039
40948SOL     OW24682  14.096   9.941  10.558
40948SOL    HW124683  14.155   9.867  10.573
40948SOL    HW224684  14.027   9.930  10.623
40949SOL     OW24685   7.611  11.795   9.600
40949SOL    HW124686   7.527  11.826   9.633
40949SOL    HW224687   7.596  11.704   9.577
40950SOL     OW24688   9.369   3.613  13.473
40950SOL    HW124689   9.382   3.578  13.384
40950SOL    HW224690   9.439   3.677  13.484
40951SOL     OW24691   3.535  12.421   2.565
40951SOL    HW124692   3.564  12.512   2.567
40951SOL    HW224693   3.480  12.412   2.643
40952SOL     OW24694   6.206   9.075   8.313
40952SOL    HW124695   6.140   9.111   8.373
40952SOL    HW224696   6.276   9.045   8.371
40953SOL     OW24697   4.115   9.409   4.191
40953SOL    HW124698   4.082   9.489   4.149
40953SOL    HW224699   4.039   9.372   4.236
40954SOL     OW24700  11.765   3.436   4.239
40954SOL    HW124701  11.840   3.494   4.232
40954SOL    HW224702  11.692   3.493   4.262
40955SOL     OW24703   6.504   0.422   5.436
40955SOL    HW124704   6.507   0.335   5.476
40955SOL    HW224705   6.507   0.483   5.510
40956SOL     OW24706   5.054   9.994   9.314
40956SOL    HW124707   5.013  10.027   9.394
40956SOL    HW224708   4.987  10.006   9.247
40957SOL     OW24709   1.619  14.650   6.182
40957SOL    HW124710   1.558  14.581   6.209
40957SOL    HW224711   1.569  14.731   6.189
40958SOL     OW24712  12.167   4.863  11.225
40958SOL    HW124713  12.173   4.858  11.320
40958SOL    HW224714  12.162   4.957  11.207
40959SOL     OW24715   1.250  11.312   3.540
40959SOL    HW124716   1.171  11.346   3.582
40959SOL    HW224717   1.220  11.275   3.457
40960SOL     OW24718   7.750   5.647   3.151
40960SOL    HW124719   7.774   5.588   3.080
40960SOL    HW224720   7.683   5.600   3.200
40961SOL     OW24721   7.058  13.501  11.793
40961SOL    HW124722   6.988  13.438  11.810
40961SOL    HW224723   7.076  13.492  11.700
40962SOL     OW24724   1.619  11.483   8.652
40962SOL    HW124725   1.559  11.464   8.724
40962SOL    HW224726   1.564  11.513   8.581
40963SOL     OW24727  10.339   3.554  11.274
40963SOL    HW124728  10.370   3.463  11.274
40963SOL    HW224729  10.388   3.596  11.344
40964SOL     OW24730   5.270  12.601   3.066
40964SOL    HW124731   5.260  12.538   2.995
40964SOL    HW224732   5.250  12.686   3.025
40965SOL     OW24733   0.210   3.449  10.213
40965SOL    HW124734   0.202   3.476  10.305
40965SOL    HW224735   0.301   3.471  10.191
40966SOL     OW24736   6.547   0.549   2.103
40966SOL    HW124737   6.505   0.539   2.018
40966SOL    HW224738   6.568   0.459   2.130
40967SOL     OW24739   9.792   6.983   8.879
40967SOL    HW124740   9.714   7.011   8.927
40967SOL    HW224741   9.837   7.065   8.858
40968SOL     OW24742   8.227   9.539   7.340
40968SOL    HW124743   8.227   9.583   7.425
40968SOL    HW224744   8.155   9.476   7.346
40969SOL     OW24745  13.496   2.412  12.815
40969SOL    HW124746  13.405   2.430  12.793
40969SOL    HW224747  13.492   2.360  12.895
40970SOL     OW24748   5.906  13.516  14.536
40970SOL    HW124749   5.813  13.494  14.538
40970SOL    HW224750   5.944  13.469  14.611
40971SOL     OW24751  13.740   1.319   2.360
40971SOL    HW124752  13.766   1.229   2.343
40971SOL    HW224753  13.645   1.314   2.374
40972SOL     OW24754   7.420   3.004   8.841
40972SOL    HW124755   7.343   2.946   8.845
40972SOL    HW224756   7.490   2.952   8.880
40973SOL     OW24757   8.924   9.109   5.723
40973SOL    HW124758   8.909   9.110   5.629
40973SOL    HW224759   8.949   9.018   5.742
40974SOL     OW24760   2.540  13.693   2.930
40974SOL    HW124761   2.483  13.616   2.922
40974SOL    HW224762   2.525  13.742   2.849
40975SOL     OW24763   5.210   2.591   5.957
40975SOL    HW124764   5.242   2.637   6.035
40975SOL    HW224765   5.154   2.522   5.992
40976SOL     OW24766  10.519  14.202   9.310
40976SOL    HW124767  10.605  14.232   9.337
40976SOL    HW224768  10.461  14.276   9.327
40977SOL     OW24769  13.758   1.739  14.117
40977SOL    HW124770  13.768   1.790  14.036
40977SOL    HW224771  13.712   1.659  14.089
40978SOL     OW24772   5.866   9.263   8.958
40978SOL    HW124773   5.855   9.212   8.878
40978SOL    HW224774   5.959   9.253   8.981
40979SOL     OW24775   1.334  10.710   6.874
40979SOL    HW124776   1.423  10.719   6.908
40979SOL    HW224777   1.278  10.728   6.949
40980SOL     OW24778   9.910   4.452   2.781
40980SOL    HW124779   9.910   4.514   2.853
40980SOL    HW224780   9.991   4.401   2.793
40981SOL     OW24781   8.508   6.976   2.308
40981SOL    HW124782   8.484   7.015   2.392
40981SOL    HW224783   8.545   6.891   2.331
40982SOL     OW24784   5.130   9.922   1.046
40982SOL    HW124785   5.180   9.925   0.964
40982SOL    HW224786   5.178   9.979   1.106
40983SOL     OW24787  10.958   3.711   5.347
40983SOL    HW124788  11.029   3.765   5.380
40983SOL    HW224789  10.878   3.757   5.374
40984SOL     OW24790  13.601   5.636   0.189
40984SOL    HW124791  13.623   5.557   0.239
40984SOL    HW224792  13.682   5.660   0.145
40985SOL     OW24793   9.733   6.354   6.142
40985SOL    HW124794   9.699   6.313   6.062
40985SOL    HW224795   9.826   6.365   6.126
40986SOL     OW24796   6.069  14.682  11.112
40986SOL    HW124797   6.010  14.755  11.131
40986SOL    HW224798   6.011  14.606  11.103
40987SOL     OW24799  13.224  14.832   5.794
40987SOL    HW124800  13.132  14.835   5.818
40987SOL    HW224801  13.227  14.777   5.715
40988SOL     OW24802   9.960   8.416   9.397
40988SOL    HW124803   9.969   8.446   9.306
40988SOL    HW224804  10.049   8.393   9.424
40989SOL     OW24805   7.313   6.471  10.796
40989SOL    HW124806   7.302   6.552  10.846
40989SOL    HW224807   7.226   6.454  10.759
40990SOL     OW24808   9.223   3.220   0.481
40990SOL    HW124809   9.253   3.307   0.508
40990SOL    HW224810   9.224   3.168   0.561
40991SOL     OW24811   6.698   1.962   1.300
40991SOL    HW124812   6.607   1.981   1.278
40991SOL    HW224813   6.697   1.945   1.394
40992SOL     OW24814   4.530  13.366   4.658
40992SOL    HW124815   4.623  13.389   4.662
40992SOL    HW224816   4.522  13.313   4.578
40993SOL     OW24817  12.236   1.955   6.417
40993SOL    HW124818  12.219   1.861   6.409
40993SOL    HW224819  12.227   1.989   6.328
40994SOL     OW24820  13.996   9.354  14.214
40994SOL    HW124821  14.088   9.378  14.201
40994SOL    HW224822  13.999   9.259  14.228
40995SOL     OW24823   9.926   3.343   3.133
40995SOL    HW124824   9.914   3.327   3.227
40995SOL    HW224825  10.017   3.319   3.116
40996SOL     OW24826  10.413   2.969   5.698
40996SOL    HW124827  10.470   2.912   5.647
40996SOL    HW224828  10.346   2.911   5.734
40997SOL     OW24829   2.433  10.537  11.877
40997SOL    HW124830   2.343  10.557  11.905
40997SOL    HW224831   2.454  10.456  11.925
40998SOL     OW24832   0.097  13.044   5.556
40998SOL    HW124833   0.045  13.005   5.626
40998SOL    HW224834   0.036  13.056   5.484
40999SOL     OW24835  11.396  12.870   4.620
40999SOL    HW124836  11.386  12.946   4.563
40999SOL    HW224837  11.491  12.863   4.635
41000SOL     OW24838  10.370   2.463   7.397
41000SOL    HW124839  10.307   2.501   7.459
41000SOL    HW224840  10.323   2.463   7.314
41001SOL     OW24841  11.565   1.436  12.910
41001SOL    HW124842  11.473   1.424  12.932
41001SOL    HW224843  11.603   1.477  12.987
41002SOL     OW24844   8.480  10.825   7.548
41002SOL    HW124845   8.542  10.824   7.621
41002SOL    HW224846   8.448  10.916   7.545
41003SOL     OW24847  11.871   6.118  10.526
41003SOL    HW124848  11.941   6.062  10.492
41003SOL    HW224849  11.817   6.139  10.450
41004SOL     OW24850   9.964   2.377   3.885
41004SOL    HW124851   9.922   2.456   3.851
41004SOL    HW224852  10.036   2.409   3.940
41005SOL     OW24853   4.586   6.736   6.358
41005SOL    HW124854   4.677   6.742   6.329
41005SOL    HW224855   4.540   6.804   6.308
41006SOL     OW24856   5.482  12.344   2.350
41006SOL    HW124857   5.422  12.408   2.312
41006SOL    HW224858   5.496  12.280   2.281
41007SOL     OW24859   2.814   5.623   9.937
41007SOL    HW124860   2.865   5.702   9.915
41007SOL    HW224861   2.768   5.602   9.856
41008SOL     OW24862   8.751   6.271  13.451
41008SOL    HW124863   8.659   6.298  13.457
41008SOL    HW224864   8.798   6.333  13.506
41009SOL     OW24865   5.322  10.171   5.985
41009SOL    HW124866   5.366  10.161   6.070
41009SOL    HW224867   5.306  10.265   5.977
41010SOL     OW24868   4.705  10.875   9.394
41010SOL    HW124869   4.744  10.946   9.446
41010SOL    HW224870   4.749  10.796   9.425
41011SOL     OW24871   9.698  14.752  13.247
41011SOL    HW124872   9.758  14.679  13.258
41011SOL    HW224873   9.617  14.712  13.216
41012SOL     OW24874   4.905   5.531   0.175
41012SOL    HW124875   4.956   5.515   0.255
41012SOL    HW224876   4.829   5.580   0.205
41013SOL     OW24877  14.201   6.670   4.362
41013SOL    HW124878  14.205   6.614   4.285
41013SOL    HW224879  14.233   6.755   4.331
41014SOL     OW24880   6.476  10.895   4.977
41014SOL    HW124881   6.458  10.822   4.918
41014SOL    HW224882   6.520  10.855   5.052
41015SOL     OW24883  12.297  14.696   2.308
41015SOL    HW124884  12.363  14.652   2.363
41015SOL    HW224885  12.276  14.632   2.240
41016SOL     OW24886   3.309   9.810   9.173
41016SOL    HW124887   3.288   9.884   9.116
41016SOL    HW224888   3.305   9.846   9.262
41017SOL     OW24889  12.502   1.282  14.330
41017SOL    HW124890  12.467   1.367  14.305
41017SOL    HW224891  12.437   1.246  14.390
41018SOL     OW24892  13.528   8.237   8.746
41018SOL    HW124893  13.545   8.181   8.671
41018SOL    HW224894  13.447   8.284   8.723
41019SOL     OW24895  13.373   8.087   0.480
41019SOL    HW124896  13.427   8.007   0.482
41019SOL    HW224897  13.433   8.156   0.508
41020SOL     OW24898   5.610  10.606   0.579
41020SOL    HW124899   5.608  10.688   0.628
41020SOL    HW224900   5.541  10.553   0.618
41021SOL     OW24901   8.717  13.839   9.344
41021SOL    HW124902   8.753  13.864   9.430
41021SOL    HW224903   8.793  13.810   9.294
41022SOL     OW24904   2.403  13.128  10.897
41022SOL    HW124905   2.371  13.208  10.856
41022SOL    HW224906   2.385  13.140  10.991
41023SOL     OW24907   0.080   3.061   6.400
41023SOL    HW124908   0.035   3.095   6.477
41023SOL    HW224909   0.009   3.037   6.340
41024SOL     OW24910  12.785  12.576   0.104
41024SOL    HW124911  12.699  12.613   0.122
41024SOL    HW224912  12.781  12.487   0.139
41025SOL     OW24913   9.935  13.133  11.751
41025SOL    HW124914   9.952  13.227  11.744
41025SOL    HW224915   9.866  13.125  11.816
41026SOL     OW24916   6.492   4.452   7.738
41026SOL    HW124917   6.547   4.512   7.687
41026SOL    HW224918   6.503   4.480   7.829
41027SOL     OW24919   7.226  12.693   8.993
41027SOL    HW124920   7.266  12.656   8.914
41027SOL    HW224921   7.275  12.653   9.065
41028SOL     OW24922   1.421  12.057   9.142
41028SOL    HW124923   1.491  11.994   9.160
41028SOL    HW224924   1.463  12.128   9.094
41029SOL     OW24925  11.684  11.518   0.607
41029SOL    HW124926  11.712  11.564   0.527
41029SOL    HW224927  11.694  11.425   0.585
41030SOL     OW24928   1.904   0.409  11.247
41030SOL    HW124929   1.991   0.442  11.228
41030SOL    HW224930   1.917   0.344  11.316
41031SOL     OW24931   6.062   2.205  14.731
41031SOL    HW124932   6.136   2.168  14.684
41031SOL    HW224933   5.988   2.148  14.709
41032SOL     OW24934   7.541  14.871   0.531
41032SOL    HW124935   7.632  14.842   0.522
41032SOL    HW224936   7.498  14.801   0.581
41033SOL     OW24937   2.595  13.960   1.528
41033SOL    HW124938   2.568  14.025   1.463
41033SOL    HW224939   2.513  13.933   1.570
41034SOL     OW24940   0.327   1.484   0.555
41034SOL    HW124941   0.338   1.526   0.470
41034SOL    HW224942   0.415   1.455   0.579
41035SOL     OW24943  11.866   5.480   4.278
41035SOL    HW124944  11.895   5.556   4.227
41035SOL    HW224945  11.916   5.407   4.241
41036SOL     OW24946  13.318  14.408   4.544
41036SOL    HW124947  13.270  14.459   4.609
41036SOL    HW224948  13.259  14.336   4.522
41037SOL     OW24949   6.450   4.796   7.179
41037SOL    HW124950   6.502   4.872   7.205
41037SOL    HW224951   6.489   4.722   7.226
41038SOL     OW24952   5.792   8.205   9.009
41038SOL    HW124953   5.883   8.177   9.007
41038SOL    HW224954   5.784   8.259   9.087
41039SOL     OW24955   6.815   0.179  13.638
41039SOL    HW124956   6.804   0.250  13.574
41039SOL    HW224957   6.893   0.132  13.608
41040SOL     OW24958   7.913  14.199  10.383
41040SOL    HW124959   7.982  14.248  10.428
41040SOL    HW224960   7.939  14.107  10.391
41041SOL     OW24961   5.189   6.948   2.267
41041SOL    HW124962   5.144   6.938   2.351
41041SOL    HW224963   5.148   7.024   2.227
41042SOL     OW24964   4.303   7.303  14.513
41042SOL    HW124965   4.288   7.351  14.594
41042SOL    HW224966   4.397   7.284  14.513
41043SOL     OW24967  12.224  13.999   0.522
41043SOL    HW124968  12.313  14.034   0.520
41043SOL    HW224969  12.170  14.070   0.554
41044SOL     OW24970  11.906   1.326  13.030
41044SOL    HW124971  11.913   1.421  13.033
41044SOL    HW224972  11.909   1.305  12.936
41045SOL     OW24973  11.012  11.305  11.161
41045SOL    HW124974  10.930  11.291  11.208
41045SOL    HW224975  10.989  11.361  11.087
41046SOL     OW24976   0.663  11.971  10.955
41046SOL    HW124977   0.742  12.021  10.934
41046SOL    HW224978   0.678  11.938  11.044
41047SOL     OW24979  10.992   5.532   5.247
41047SOL    HW124980  11.044   5.482   5.184
41047SOL    HW224981  11.054   5.594   5.285
41048SOL     OW24982   3.181   7.840   5.698
41048SOL    HW124983   3.230   7.919   5.720
41048SOL    HW224984   3.239   7.768   5.723
41049SOL     OW24985   9.464   0.475   4.799
41049SOL    HW124986   9.490   0.566   4.786
41049SOL    HW224987   9.401   0.458   4.729
41050SOL     OW24988   7.356  12.137   4.680
41050SOL    HW124989   7.326  12.051   4.652
41050SOL    HW224990   7.431  12.119   4.737
41051SOL     OW24991   7.226   8.057   3.165
41051SOL    HW124992   7.293   8.029   3.102
41051SOL    HW224993   7.253   8.019   3.248
41052SOL     OW24994  12.140   2.127   4.387
41052SOL    HW124995  12.211   2.186   4.363
41052SOL    HW224996  12.064   2.158   4.338
41053SOL     OW24997   8.419   4.968   9.108
41053SOL    HW124998   8.462   4.883   9.118
41053SOL    HW224999   8.359   4.974   9.182
41054SOL     OW25000   4.720   2.084   2.726
41054SOL    HW125001   4.679   2.170   2.731
41054SOL    HW225002   4.731   2.068   2.633
41055SOL     OW25003   1.737  14.745  12.395
41055SOL    HW125004   1.657  14.787  12.363
41055SOL    HW225005   1.804  14.812  12.385
41056SOL     OW25006   4.728   9.938   5.718
41056SOL    HW125007   4.781  10.012   5.747
41056SOL    HW225008   4.702   9.894   5.799
41057SOL     OW25009   0.994   0.496  12.185
41057SOL    HW125010   0.911   0.454  12.161
41057SOL    HW225011   1.060   0.450  12.133
41058SOL     OW25012   0.197  14.795   7.279
41058SOL    HW125013   0.154  14.859   7.222
41058SOL    HW225014   0.129  14.731   7.300
41059SOL     OW25015   3.243   5.569   0.247
41059SOL    HW125016   3.278   5.649   0.209
41059SOL    HW225017   3.191   5.598   0.322
41060SOL     OW25018  12.839  13.431   4.130
41060SOL    HW125019  12.778  13.366   4.094
41060SOL    HW225020  12.911  13.433   4.068
41061SOL     OW25021   4.895   3.496   8.215
41061SOL    HW125022   4.883   3.543   8.132
41061SOL    HW225023   4.986   3.512   8.238
41062SOL     OW25024  10.641   1.605   7.443
41062SOL    HW125025  10.615   1.513   7.453
41062SOL    HW225026  10.613   1.646   7.525
41063SOL     OW25027   7.859  14.026   1.213
41063SOL    HW125028   7.874  14.003   1.305
41063SOL    HW225029   7.791  14.093   1.216
41064SOL     OW25030   5.474  11.844  12.858
41064SOL    HW125031   5.562  11.870  12.833
41064SOL    HW225032   5.477  11.838  12.954
41065SOL     OW25033   6.241  14.633   7.899
41065SOL    HW125034   6.286  14.711   7.865
41065SOL    HW225035   6.214  14.659   7.987
41066SOL     OW25036   8.078   1.103   4.768
41066SOL    HW125037   8.050   1.046   4.697
41066SOL    HW225038   8.170   1.080   4.782
41067SOL     OW25039   2.314   2.500   7.672
41067SOL    HW125040   2.362   2.452   7.740
41067SOL    HW225041   2.272   2.431   7.620
41068SOL     OW25042  10.679   1.954  11.042
41068SOL    HW125043  10.677   1.937  11.136
41068SOL    HW225044  10.714   1.874  11.003
41069SOL     OW25045   7.676  14.629   7.964
41069SOL    HW125046   7.647  14.647   8.054
41069SOL    HW225047   7.598  14.596   7.920
41070SOL     OW25048   1.349  10.122  13.525
41070SOL    HW125049   1.306  10.070  13.594
41070SOL    HW225050   1.279  10.143  13.464
41071SOL     OW25051   9.682  14.485   7.144
41071SOL    HW125052   9.663  14.577   7.125
41071SOL    HW225053   9.743  14.458   7.075
41072SOL     OW25054   0.913   4.990  11.030
41072SOL    HW125055   0.925   4.936  11.108
41072SOL    HW225056   0.870   4.933  10.966
41073SOL     OW25057   2.802   4.915   2.154
41073SOL    HW125058   2.728   4.856   2.141
41073SOL    HW225059   2.878   4.866   2.121
41074SOL     OW25060   9.875  10.142   5.262
41074SOL    HW125061   9.881  10.182   5.349
41074SOL    HW225062   9.834  10.057   5.278
41075SOL     OW25063   4.327   4.383   1.530
41075SOL    HW125064   4.330   4.389   1.625
41075SOL    HW225065   4.416   4.361   1.504
41076SOL     OW25066  12.667  11.043  14.203
41076SOL    HW125067  12.684  10.949  14.208
41076SOL    HW225068  12.664  11.061  14.109
41077SOL     OW25069   3.952   0.429  13.332
41077SOL    HW125070   3.996   0.473  13.404
41077SOL    HW225071   3.883   0.377  13.373
41078SOL     OW25072   5.250   5.364   4.656
41078SOL    HW125073   5.332   5.316   4.658
41078SOL    HW225074   5.186   5.304   4.696
41079SOL     OW25075   8.924  10.670   6.079
41079SOL    HW125076   9.017  10.678   6.098
41079SOL    HW225077   8.900  10.583   6.111
41080SOL     OW25078   0.661   3.119   3.701
41080SOL    HW125079   0.586   3.070   3.666
41080SOL    HW225080   0.680   3.077   3.784
41081SOL     OW25081   2.399  12.811   9.406
41081SOL    HW125082   2.358  12.734   9.367
41081SOL    HW225083   2.493  12.794   9.398
41082SOL     OW25084   5.779  13.040   6.401
41082SOL    HW125085   5.716  12.976   6.435
41082SOL    HW225086   5.824  13.073   6.479
41083SOL     OW25087  10.177   3.704   0.894
41083SOL    HW125088  10.093   3.749   0.886
41083SOL    HW225089  10.223   3.725   0.812
41084SOL     OW25090  13.742   6.718  12.943
41084SOL    HW125091  13.801   6.772  12.891
41084SOL    HW225092  13.744   6.758  13.030
41085SOL     OW25093   8.488   0.719   1.366
41085SOL    HW125094   8.574   0.729   1.407
41085SOL    HW225095   8.507   0.698   1.275
41086SOL     OW25096   3.750   5.763  13.028
41086SOL    HW125097   3.661   5.729  13.033
41086SOL    HW225098   3.791   5.738  13.111
41087SOL     OW25099   7.004   4.726  10.198
41087SOL    HW125100   6.976   4.685  10.280
41087SOL    HW225101   6.961   4.811  10.197
41088SOL     OW25102  14.766   8.145   1.765
41088SOL    HW125103  14.809   8.221   1.725
41088SOL    HW225104  14.785   8.073   1.705
41089SOL     OW25105   3.885   4.757  12.541
41089SOL    HW125106   3.914   4.810  12.615
41089SOL    HW225107   3.950   4.774  12.473
41090SOL     OW25108   7.327  10.960   1.366
41090SOL    HW125109   7.309  10.894   1.433
41090SOL    HW225110   7.422  10.957   1.355
41091SOL     OW25111   3.675   1.480   6.788
41091SOL    HW125112   3.667   1.407   6.727
41091SOL    HW225113   3.755   1.461   6.838
41092SOL     OW25114   3.672   5.847  12.216
41092SOL    HW125115   3.694   5.896  12.295
41092SOL    HW225116   3.613   5.904  12.167
41093SOL     OW25117  13.358   8.031  11.481
41093SOL    HW125118  13.331   8.102  11.539
41093SOL    HW225119  13.417   7.977  11.534
41094SOL     OW25120   1.528   6.101  10.308
41094SOL    HW125121   1.553   6.025  10.256
41094SOL    HW225122   1.515   6.170  10.242
41095SOL     OW25123   6.713  10.256   3.438
41095SOL    HW125124   6.729  10.209   3.356
41095SOL    HW225125   6.726  10.190   3.506
41096SOL     OW25126   3.715  11.902   9.646
41096SOL    HW125127   3.771  11.923   9.720
41096SOL    HW225128   3.774  11.906   9.570
41097SOL     OW25129   6.379  14.861   4.013
41097SOL    HW125130   6.315   0.038   4.057
41097SOL    HW225131   6.350  14.859   3.922
41098SOL     OW25132   6.112   1.600  14.747
41098SOL    HW125133   6.157   1.681  14.769
41098SOL    HW225134   6.123   1.591  14.652
41099SOL     OW25135   6.053  11.682   3.270
41099SOL    HW125136   6.086  11.691   3.181
41099SOL    HW225137   6.021  11.770   3.293
41100SOL     OW25138  13.970   1.268  10.573
41100SOL    HW125139  13.906   1.245  10.640
41100SOL    HW225140  14.051   1.281  10.622
41101SOL     OW25141   8.714   9.283   7.457
41101SOL    HW125142   8.707   9.359   7.515
41101SOL    HW225143   8.669   9.309   7.377
41102SOL     OW25144   7.025   8.241   1.275
41102SOL    HW125145   6.938   8.226   1.237
41102SOL    HW225146   7.074   8.287   1.206
41103SOL     OW25147   0.775   5.995   1.814
41103SOL    HW125148   0.827   5.940   1.754
41103SOL    HW225149   0.704   5.938   1.843
41104SOL     OW25150  12.458   0.709   0.207
41104SOL    HW125151  12.456   0.629   0.260
41104SOL    HW225152  12.401   0.770   0.254
41105SOL     OW25153  13.184   1.749   3.531
41105SOL    HW125154  13.239   1.671   3.540
41105SOL    HW225155  13.155   1.768   3.620
41106SOL     OW25156  10.398  12.497   8.643
41106SOL    HW125157  10.334  12.428   8.657
41106SOL    HW225158  10.423  12.526   8.731
41107SOL     OW25159  12.621   7.320  14.136
41107SOL    HW125160  12.625   7.397  14.078
41107SOL    HW225161  12.547   7.338  14.194
41108SOL     OW25162   7.439  13.436   9.973
41108SOL    HW125163   7.384  13.500   9.928
41108SOL    HW225164   7.512  13.420   9.912
41109SOL     OW25165   8.390   9.432   3.806
41109SOL    HW125166   8.317   9.373   3.823
41109SOL    HW225167   8.382   9.499   3.874
41110SOL     OW25168   0.414   3.866   8.260
41110SOL    HW125169   0.504   3.854   8.289
41110SOL    HW225170   0.411   3.956   8.227
41111SOL     OW25171   3.433   0.490   9.086
41111SOL    HW125172   3.490   0.567   9.079
41111SOL    HW225173   3.355   0.514   9.036
41112SOL     OW25174  11.924   2.307   8.799
41112SOL    HW125175  12.001   2.250   8.797
41112SOL    HW225176  11.867   2.269   8.865
41113SOL     OW25177  11.743   0.168   9.206
41113SOL    HW125178  11.729   0.074   9.211
41113SOL    HW225179  11.838   0.179   9.217
41114SOL     OW25180  14.340   2.350   8.799
41114SOL    HW125181  14.341   2.399   8.717
41114SOL    HW225182  14.426   2.365   8.837
41115SOL     OW25183  13.543   6.556   4.449
41115SOL    HW125184  13.484   6.499   4.401
41115SOL    HW225185  13.552   6.515   4.535
41116SOL     OW25186   9.871   0.886   3.098
41116SOL    HW125187   9.877   0.981   3.104
41116SOL    HW225188   9.961   0.855   3.105
41117SOL     OW25189   3.420   1.353   8.420
41117SOL    HW125190   3.483   1.355   8.349
41117SOL    HW225191   3.426   1.440   8.460
41118SOL     OW25192   8.715  10.769   8.806
41118SOL    HW125193   8.809  10.754   8.810
41118SOL    HW225194   8.683  10.752   8.895
41119SOL     OW25195   5.197   3.448   9.741
41119SOL    HW125196   5.257   3.378   9.712
41119SOL    HW225197   5.117   3.433   9.691
41120SOL     OW25198   4.098   4.496   7.394
41120SOL    HW125199   4.086   4.494   7.299
41120SOL    HW225200   4.181   4.450   7.409
41121SOL     OW25201   1.755   5.449   7.071
41121SOL    HW125202   1.836   5.468   7.022
41121SOL    HW225203   1.720   5.371   7.029
41122SOL     OW25204   1.121   1.888   0.822
41122SOL    HW125205   1.160   1.960   0.871
41122SOL    HW225206   1.035   1.921   0.797
41123SOL     OW25207  11.932  13.003   9.891
41123SOL    HW125208  11.902  13.077   9.839
41123SOL    HW225209  11.970  12.943   9.827
41124SOL     OW25210   3.638  13.203   5.772
41124SOL    HW125211   3.594  13.135   5.823
41124SOL    HW225212   3.646  13.277   5.832
41125SOL     OW25213   6.258   5.865   4.257
41125SOL    HW125214   6.194   5.931   4.285
41125SOL    HW225215   6.312   5.910   4.192
41126SOL     OW25216  11.320   5.139   5.430
41126SOL    HW125217  11.229   5.167   5.426
41126SOL    HW225218  11.341   5.111   5.340
41127SOL     OW25219   2.907  11.008  13.806
41127SOL    HW125220   2.923  11.035  13.897
41127SOL    HW225221   2.817  11.034  13.789
41128SOL     OW25222   1.106  11.503  13.111
41128SOL    HW125223   1.192  11.496  13.152
41128SOL    HW225224   1.123  11.489  13.018
41129SOL     OW25225   0.181  14.155   0.626
41129SOL    HW125226   0.273  14.136   0.611
41129SOL    HW225227   0.178  14.188   0.716
41130SOL     OW25228   9.095   1.076   1.588
41130SOL    HW125229   9.076   1.164   1.555
41130SOL    HW225230   9.190   1.068   1.582
41131SOL     OW25231  10.929  10.464   5.482
41131SOL    HW125232  10.844  10.420   5.480
41131SOL    HW225233  10.918  10.533   5.548
41132SOL     OW25234   9.582   5.800   2.990
41132SOL    HW125235   9.550   5.744   2.919
41132SOL    HW225236   9.526   5.777   3.065
41133SOL     OW25237   5.559   7.163  13.519
41133SOL    HW125238   5.558   7.080  13.566
41133SOL    HW225239   5.599   7.142  13.434
41134SOL     OW25240  13.842   4.158   2.079
41134SOL    HW125241  13.845   4.063   2.085
41134SOL    HW225242  13.753   4.181   2.107
41135SOL     OW25243   2.912  11.698  11.705
41135SOL    HW125244   2.878  11.609  11.697
41135SOL    HW225245   2.836  11.754  11.690
41136SOL     OW25246   9.575   6.362  13.295
41136SOL    HW125247   9.521   6.312  13.234
41136SOL    HW225248   9.527   6.443  13.310
41137SOL     OW25249   0.006   7.724  13.089
41137SOL    HW125250  14.804   7.677  13.104
41137SOL    HW225251  14.859   7.816  13.078
41138SOL     OW25252  10.211   9.849   1.413
41138SOL    HW125253  10.125   9.890   1.418
41138SOL    HW225254  10.197   9.770   1.360
41139SOL     OW25255   2.214   8.211   6.743
41139SOL    HW125256   2.238   8.125   6.709
41139SOL    HW225257   2.279   8.228   6.812
41140SOL     OW25258   4.903   8.112   4.789
41140SOL    HW125259   4.946   8.092   4.873
41140SOL    HW225260   4.975   8.139   4.732
41141SOL     OW25261   2.263   7.902  12.977
41141SOL    HW125262   2.210   7.823  12.970
41141SOL    HW225263   2.229   7.959  12.908
41142SOL     OW25264   0.873   6.505   7.600
41142SOL    HW125265   0.886   6.410   7.594
41142SOL    HW225266   0.958   6.540   7.627
41143SOL     OW25267   7.569   5.592  10.234
41143SOL    HW125268   7.497   5.652  10.215
41143SOL    HW225269   7.556   5.519  10.173
41144SOL     OW25270   3.403   1.543   3.157
41144SOL    HW125271   3.408   1.611   3.225
41144SOL    HW225272   3.387   1.592   3.076
41145SOL     OW25273   7.005  12.152   8.838
41145SOL    HW125274   6.980  12.242   8.818
41145SOL    HW225275   6.949  12.098   8.781
41146SOL     OW25276   4.105   0.208  11.429
41146SOL    HW125277   4.013   0.222  11.453
41146SOL    HW225278   4.134   0.135  11.484
41147SOL     OW25279   5.562   0.838   8.305
41147SOL    HW125280   5.547   0.843   8.210
41147SOL    HW225281   5.509   0.909   8.341
41148SOL     OW25282   6.436   6.139   8.382
41148SOL    HW125283   6.466   6.050   8.402
41148SOL    HW225284   6.517   6.188   8.365
41149SOL     OW25285  14.278   4.270   7.134
41149SOL    HW125286  14.228   4.231   7.206
41149SOL    HW225287  14.369   4.244   7.151
41150SOL     OW25288   6.874   0.826  11.336
41150SOL    HW125289   6.882   0.910  11.381
41150SOL    HW225290   6.964   0.798  11.320
41151SOL     OW25291   0.054  12.094   8.236
41151SOL    HW125292   0.035  12.023   8.298
41151SOL    HW225293  14.869  12.162   8.258
41152SOL     OW25294   6.327   6.715   4.086
41152SOL    HW125295   6.335   6.694   3.993
41152SOL    HW225296   6.323   6.810   4.090
41153SOL     OW25297   7.518   6.744  14.252
41153SOL    HW125298   7.560   6.698  14.180
41153SOL    HW225299   7.576   6.729  14.327
41154SOL     OW25300   2.101  14.237   6.846
41154SOL    HW125301   2.103  14.184   6.926
41154SOL    HW225302   2.032  14.302   6.862
41155SOL     OW25303  11.900  13.516  10.441
41155SOL    HW125304  11.897  13.611  10.444
41155SOL    HW225305  11.812  13.488  10.465
41156SOL     OW25306   2.711  11.081  14.479
41156SOL    HW125307   2.741  11.012  14.538
41156SOL    HW225308   2.663  11.142  14.535
41157SOL     OW25309   6.986   6.113  10.048
41157SOL    HW125310   7.011   6.185   9.989
41157SOL    HW225311   6.938   6.052   9.992
41158SOL     OW25312  12.203   8.529   5.183
41158SOL    HW125313  12.139   8.566   5.122
41158SOL    HW225314  12.283   8.579   5.168
41159SOL     OW25315  12.012   9.897   4.952
41159SOL    HW125316  12.067   9.859   5.021
41159SOL    HW225317  11.960   9.963   4.997
41160SOL     OW25318   3.133   5.178   5.550
41160SOL    HW125319   3.140   5.218   5.464
41160SOL    HW225320   3.204   5.219   5.601
41161SOL     OW25321   9.980   4.626  13.122
41161SOL    HW125322  10.040   4.662  13.187
41161SOL    HW225323   9.991   4.531  13.130
41162SOL     OW25324   9.627  10.717   7.293
41162SOL    HW125325   9.643  10.767   7.213
41162SOL    HW225326   9.633  10.781   7.364
41163SOL     OW25327  13.488   4.517  11.554
41163SOL    HW125328  13.457   4.436  11.514
41163SOL    HW225329  13.577   4.528  11.519
41164SOL     OW25330   6.303   1.595   3.960
41164SOL    HW125331   6.388   1.592   4.004
41164SOL    HW225332   6.261   1.672   3.997
41165SOL     OW25333   9.260   0.911   1.920
41165SOL    HW125334   9.191   0.977   1.911
41165SOL    HW225335   9.220   0.842   1.973
41166SOL     OW25336   8.432   0.300  11.031
41166SOL    HW125337   8.386   0.356  11.093
41166SOL    HW225338   8.416   0.340  10.946
41167SOL     OW25339  14.838  11.852  13.315
41167SOL    HW125340  14.788  11.845  13.234
41167SOL    HW225341  14.857  11.761  13.339
41168SOL     OW25342  12.004   7.840   2.120
41168SOL    HW125343  11.988   7.860   2.028
41168SOL    HW225344  11.936   7.888   2.167
41169SOL     OW25345  13.556   6.005  11.058
41169SOL    HW125346  13.583   5.928  11.008
41169SOL    HW225347  13.633   6.062  11.060
41170SOL     OW25348  14.033   0.573  13.676
41170SOL    HW125349  14.094   0.646  13.666
41170SOL    HW225350  13.950   0.613  13.700
41171SOL     OW25351  13.809   9.033   6.426
41171SOL    HW125352  13.750   9.029   6.351
41171SOL    HW225353  13.854   9.117   6.417
41172SOL     OW25354   2.116  11.488  10.049
41172SOL    HW125355   2.185  11.515  10.110
41172SOL    HW225356   2.099  11.396  10.071
41173SOL     OW25357  13.872  11.072   3.650
41173SOL    HW125358  13.799  11.014   3.631
41173SOL    HW225359  13.891  11.116   3.567
41174SOL     OW25360   2.033   9.122   2.005
41174SOL    HW125361   2.062   9.071   2.080
41174SOL    HW225362   2.111   9.130   1.950
41175SOL     OW25363   6.692   6.586   3.043
41175SOL    HW125364   6.669   6.648   2.973
41175SOL    HW225365   6.779   6.615   3.072
41176SOL     OW25366   8.209   8.385   3.394
41176SOL    HW125367   8.159   8.435   3.458
41176SOL    HW225368   8.290   8.435   3.382
41177SOL     OW25369   4.028   6.636   0.026
41177SOL    HW125370   4.013   6.707   0.088
41177SOL    HW225371   4.033   6.679  14.820
41178SOL     OW25372   2.056  14.596   7.083
41178SOL    HW125373   2.021  14.664   7.141
41178SOL    HW225374   2.111  14.542   7.140
41179SOL     OW25375  11.233   0.263   3.479
41179SOL    HW125376  11.204   0.207   3.551
41179SOL    HW225377  11.168   0.249   3.410
41180SOL     OW25378  11.928  13.475  12.846
41180SOL    HW125379  11.985  13.498  12.919
41180SOL    HW225380  11.964  13.392  12.813
41181SOL     OW25381   5.411   7.230   0.231
41181SOL    HW125382   5.422   7.177   0.310
41181SOL    HW225383   5.500   7.258   0.208
41182SOL     OW25384  10.892   8.591   7.465
41182SOL    HW125385  10.915   8.499   7.453
41182SOL    HW225386  10.936   8.617   7.546
41183SOL     OW25387  13.819   8.913  12.313
41183SOL    HW125388  13.767   8.833  12.315
41183SOL    HW225389  13.896   8.893  12.367
41184SOL     OW25390  10.420   1.578   6.135
41184SOL    HW125391  10.475   1.507   6.168
41184SOL    HW225392  10.336   1.536   6.114
41185SOL     OW25393   7.386   2.312   1.369
41185SOL    HW125394   7.438   2.370   1.424
41185SOL    HW225395   7.307   2.293   1.420
41186SOL     OW25396   0.700  14.392  12.591
41186SOL    HW125397   0.679  14.328  12.523
41186SOL    HW225398   0.711  14.341  12.671
41187SOL     OW25399  13.451  14.604   9.816
41187SOL    HW125400  13.456  14.526   9.761
41187SOL    HW225401  13.364  14.640   9.797
41188SOL     OW25402   3.726   4.447   6.050
41188SOL    HW125403   3.774   4.519   6.091
41188SOL    HW225404   3.743   4.457   5.957
41189SOL     OW25405   5.625  12.135  10.380
41189SOL    HW125406   5.619  12.096  10.293
41189SOL    HW225407   5.558  12.203  10.381
41190SOL     OW25408   9.912   7.181   5.533
41190SOL    HW125409   9.830   7.228   5.541
41190SOL    HW225410   9.893   7.107   5.475
41191SOL     OW25411  12.599  12.149   6.426
41191SOL    HW125412  12.560  12.061   6.428
41191SOL    HW225413  12.681  12.140   6.474
41192SOL     OW25414   3.276   1.414  11.914
41192SOL    HW125415   3.250   1.346  11.852
41192SOL    HW225416   3.194   1.452  11.944
41193SOL     OW25417   5.251  11.338   5.660
41193SOL    HW125418   5.302  11.392   5.599
41193SOL    HW225419   5.226  11.261   5.609
41194SOL     OW25420   9.926   2.921  10.555
41194SOL    HW125421   9.846   2.945  10.509
41194SOL    HW225422   9.951   3.000  10.603
41195SOL     OW25423   7.082   1.167  10.844
41195SOL    HW125424   7.041   1.253  10.846
41195SOL    HW225425   7.010   1.105  10.836
41196SOL     OW25426  10.225   6.654  12.225
41196SOL    HW125427  10.157   6.699  12.275
41196SOL    HW225428  10.297   6.643  12.287
41197SOL     OW25429  10.319   4.629   2.318
41197SOL    HW125430  10.266   4.654   2.394
41197SOL    HW225431  10.273   4.554   2.280
41198SOL     OW25432   6.152  14.269  12.273
41198SOL    HW125433   6.136  14.242  12.364
41198SOL    HW225434   6.247  14.271  12.265
41199SOL     OW25435  11.151   0.548   5.877
41199SOL    HW125436  11.085   0.481   5.898
41199SOL    HW225437  11.215   0.501   5.823
41200SOL     OW25438  12.399  14.436   3.791
41200SOL    HW125439  12.457  14.479   3.855
41200SOL    HW225440  12.311  14.457   3.821
41201SOL     OW25441  14.243   5.605  10.956
41201SOL    HW125442  14.152   5.634  10.946
41201SOL    HW225443  14.283   5.623  10.871
41202SOL     OW25444   7.562   9.287   7.285
41202SOL    HW125445   7.600   9.340   7.215
41202SOL    HW225446   7.539   9.204   7.242
41203SOL     OW25447   3.484   7.615   4.825
41203SOL    HW125448   3.554   7.551   4.831
41203SOL    HW225449   3.416   7.582   4.883
41204SOL     OW25450   2.552   3.085   2.241
41204SOL    HW125451   2.584   3.005   2.281
41204SOL    HW225452   2.562   3.152   2.309
41205SOL     OW25453   3.627   9.210   9.254
41205SOL    HW125454   3.557   9.261   9.294
41205SOL    HW225455   3.609   9.120   9.281
41206SOL     OW25456   5.371   3.466  12.963
41206SOL    HW125457   5.460   3.468  12.927
41206SOL    HW225458   5.335   3.552  12.942
41207SOL     OW25459  11.086   0.315   5.213
41207SOL    HW125460  11.069   0.222   5.228
41207SOL    HW225461  11.182   0.322   5.213
41208SOL     OW25462   5.690  13.403   3.696
41208SOL    HW125463   5.761  13.464   3.712
41208SOL    HW225464   5.688  13.394   3.600
41209SOL     OW25465  10.441   4.163   1.292
41209SOL    HW125466  10.456   4.162   1.197
41209SOL    HW225467  10.521   4.201   1.328
41210SOL     OW25468   9.997   3.079   7.542
41210SOL    HW125469   9.969   3.042   7.626
41210SOL    HW225470   9.960   3.168   7.541
41211SOL     OW25471   1.307   8.087   4.237
41211SOL    HW125472   1.235   8.146   4.215
41211SOL    HW225473   1.382   8.146   4.248
41212SOL     OW25474   2.742   1.346  14.690
41212SOL    HW125475   2.827   1.346  14.646
41212SOL    HW225476   2.678   1.352  14.620
41213SOL     OW25477   6.720   1.554   7.014
41213SOL    HW125478   6.717   1.461   7.037
41213SOL    HW225479   6.629   1.577   6.996
41214SOL     OW25480   4.837   5.500   4.933
41214SOL    HW125481   4.770   5.567   4.919
41214SOL    HW225482   4.881   5.492   4.848
41215SOL     OW25483   1.695  14.768  13.641
41215SOL    HW125484   1.719  14.750  13.550
41215SOL    HW225485   1.643  14.848  13.637
41216SOL     OW25486  13.808   2.697   0.800
41216SOL    HW125487  13.736   2.693   0.864
41216SOL    HW225488  13.863   2.769   0.831
41217SOL     OW25489   0.190  10.513   4.624
41217SOL    HW125490   0.189  10.418   4.614
41217SOL    HW225491   0.203  10.528   4.717
41218SOL     OW25492   9.931  13.574   7.868
41218SOL    HW125493  10.025  13.558   7.876
41218SOL    HW225494   9.925  13.653   7.813
41219SOL     OW25495   3.185   3.378   0.807
41219SOL    HW125496   3.232   3.341   0.881
41219SOL    HW225497   3.249   3.438   0.766
41220SOL     OW25498  13.139   0.650   6.984
41220SOL    HW125499  13.049   0.679   6.996
41220SOL    HW225500  13.132   0.558   6.960
41221SOL     OW25501   9.663   4.799   9.892
41221SOL    HW125502   9.611   4.722   9.871
41221SOL    HW225503   9.699   4.781   9.979
41222SOL     OW25504  11.794  10.392   4.093
41222SOL    HW125505  11.783  10.297   4.093
41222SOL    HW225506  11.855  10.409   4.165
41223SOL     OW25507   2.935  12.710   8.549
41223SOL    HW125508   2.975  12.793   8.525
41223SOL    HW225509   2.950  12.653   8.473
41224SOL     OW25510   1.070  10.461   0.570
41224SOL    HW125511   1.153  10.490   0.608
41224SOL    HW225512   1.069  10.366   0.582
41225SOL     OW25513   3.569   7.881  11.499
41225SOL    HW125514   3.498   7.917  11.553
41225SOL    HW225515   3.639   7.946  11.506
41226SOL     OW25516  12.537   1.125   3.636
41226SOL    HW125517  12.551   1.177   3.714
41226SOL    HW225518  12.586   1.044   3.651
41227SOL     OW25519   3.018   2.947  10.147
41227SOL    HW125520   2.964   2.973  10.222
41227SOL    HW225521   3.063   2.867  10.176
41228SOL     OW25522   1.082  11.540  12.265
41228SOL    HW125523   1.059  11.461  12.313
41228SOL    HW225524   0.999  11.572  12.230
41229SOL     OW25525   7.630   6.442   6.287
41229SOL    HW125526   7.595   6.373   6.230
41229SOL    HW225527   7.567   6.513   6.278
41230SOL     OW25528  10.138  12.189  10.268
41230SOL    HW125529  10.076  12.124  10.234
41230SOL    HW225530  10.162  12.157  10.355
41231SOL     OW25531  14.156   1.607   1.442
41231SOL    HW125532  14.120   1.535   1.391
41231SOL    HW225533  14.129   1.588   1.532
41232SOL     OW25534   4.958   3.192   8.272
41232SOL    HW125535   4.955   3.240   8.354
41232SOL    HW225536   5.019   3.242   8.217
41233SOL     OW25537   8.304   6.931  11.525
41233SOL    HW125538   8.360   6.913  11.450
41233SOL    HW225539   8.267   6.846  11.548
41234SOL     OW25540   4.909   2.451  14.309
41234SOL    HW125541   4.903   2.359  14.284
41234SOL    HW225542   4.924   2.497  14.226
41235SOL     OW25543   4.307   2.379  12.603
41235SOL    HW125544   4.237   2.315  12.613
41235SOL    HW225545   4.289   2.421  12.519
41236SOL     OW25546  13.489   6.682   6.191
41236SOL    HW125547  13.447   6.599   6.212
41236SOL    HW225548  13.419   6.737   6.155
41237SOL     OW25549   3.968  10.711   7.554
41237SOL    HW125550   4.053  10.673   7.579
41237SOL    HW225551   3.903  10.647   7.585
41238SOL     OW25552   1.227   4.448  14.184
41238SOL    HW125553   1.184   4.533  14.172
41238SOL    HW225554   1.204   4.398  14.106
41239SOL     OW25555  11.366   4.284   9.011
41239SOL    HW125556  11.381   4.351   9.078
41239SOL    HW225557  11.279   4.249   9.031
41240SOL     OW25558   1.115  11.521   4.260
41240SOL    HW125559   1.147  11.528   4.351
41240SOL    HW225560   1.093  11.428   4.250
41241SOL     OW25561   4.468   6.797   1.735
41241SOL    HW125562   4.473   6.815   1.829
41241SOL    HW225563   4.384   6.836   1.708
41242SOL     OW25564   5.411   7.517  11.443
41242SOL    HW125565   5.369   7.601  11.423
41242SOL    HW225566   5.474   7.537  11.513
41243SOL     OW25567   4.587  14.183   7.289
41243SOL    HW125568   4.661  14.163   7.347
41243SOL    HW225569   4.527  14.110   7.301
41244SOL     OW25570   9.813   4.830   5.787
41244SOL    HW125571   9.749   4.889   5.827
41244SOL    HW225572   9.888   4.886   5.766
41245SOL     OW25573   3.730  10.944  12.819
41245SOL    HW125574   3.811  10.927  12.867
41245SOL    HW225575   3.683  10.860  12.821
41246SOL     OW25576  14.112  12.549   8.237
41246SOL    HW125577  14.089  12.568   8.329
41246SOL    HW225578  14.207  12.549   8.235
41247SOL     OW25579   1.061   6.481  11.995
41247SOL    HW125580   1.127   6.549  11.982
41247SOL    HW225581   1.075   6.450  12.084
41248SOL     OW25582   2.638   6.175  12.307
41248SOL    HW125583   2.731   6.197  12.311
41248SOL    HW225584   2.608   6.211  12.224
41249SOL     OW25585   9.678   4.582  10.371
41249SOL    HW125586   9.601   4.550  10.419
41249SOL    HW225587   9.656   4.569  10.279
41250SOL     OW25588   6.398  11.030  14.091
41250SOL    HW125589   6.325  11.063  14.143
41250SOL    HW225590   6.389  10.934  14.096
41251SOL     OW25591   3.348   9.324  10.495
41251SOL    HW125592   3.341   9.253  10.431
41251SOL    HW225593   3.433   9.365  10.478
41252SOL     OW25594   8.204  12.708   8.036
41252SOL    HW125595   8.149  12.645   8.083
41252SOL    HW225596   8.147  12.743   7.968
41253SOL     OW25597   7.093  14.148  14.009
41253SOL    HW125598   7.110  14.060  14.043
41253SOL    HW225599   7.064  14.198  14.086
41254SOL     OW25600  10.933   7.340   2.212
41254SOL    HW125601  10.881   7.407   2.256
41254SOL    HW225602  10.979   7.388   2.143
41255SOL     OW25603   2.192   4.782   1.493
41255SOL    HW125604   2.242   4.850   1.539
41255SOL    HW225605   2.223   4.787   1.403
41256SOL     OW25606   8.091  12.953  13.706
41256SOL    HW125607   8.040  12.882  13.667
41256SOL    HW225608   8.134  12.912  13.781
41257SOL     OW25609   5.086   6.633  10.997
41257SOL    HW125610   5.136   6.574  11.053
41257SOL    HW225611   5.033   6.575  10.942
41258SOL     OW25612   9.081   2.374   7.662
41258SOL    HW125613   9.015   2.427   7.708
41258SOL    HW225614   9.030   2.308   7.615
41259SOL     OW25615   4.601   1.804   8.383
41259SOL    HW125616   4.613   1.766   8.295
41259SOL    HW225617   4.601   1.898   8.368
41260SOL     OW25618   8.870  11.118   9.643
41260SOL    HW125619   8.834  11.188   9.696
41260SOL    HW225620   8.794  11.080   9.598
41261SOL     OW25621   3.290  13.706   6.478
41261SOL    HW125622   3.270  13.704   6.572
41261SOL    HW225623   3.381  13.678   6.472
41262SOL     OW25624   1.993   5.557   4.454
41262SOL    HW125625   2.034   5.472   4.466
41262SOL    HW225626   1.931   5.544   4.382
41263SOL     OW25627   1.481   3.941   7.875
41263SOL    HW125628   1.486   4.034   7.900
41263SOL    HW225629   1.431   3.900   7.946
41264SOL     OW25630   5.808   6.424  14.848
41264SOL    HW125631   5.884   6.478  14.827
41264SOL    HW225632   5.802   6.362  14.776
41265SOL     OW25633   2.822   7.721   1.047
41265SOL    HW125634   2.902   7.669   1.039
41265SOL    HW225635   2.770   7.698   0.970
41266SOL     OW25636  13.164   1.129  11.623
41266SOL    HW125637  13.132   1.219  11.628
41266SOL    HW225638  13.123   1.085  11.698
41267SOL     OW25639   2.033   6.353   5.530
41267SOL    HW125640   1.979   6.282   5.565
41267SOL    HW225641   2.064   6.400   5.607
41268SOL     OW25642   5.514   6.394  12.652
41268SOL    HW125643   5.558   6.436  12.726
41268SOL    HW225644   5.576   6.328  12.622
41269SOL     OW25645   3.475   4.248  10.752
41269SOL    HW125646   3.390   4.205  10.749
41269SOL    HW225647   3.454   4.342  10.753
41270SOL     OW25648   0.632   8.157   5.263
41270SOL    HW125649   0.569   8.209   5.313
41270SOL    HW225650   0.678   8.106   5.329
41271SOL     OW25651   1.637   2.366   1.366
41271SOL    HW125652   1.674   2.426   1.430
41271SOL    HW225653   1.557   2.333   1.407
41272SOL     OW25654   9.237   4.312   0.761
41272SOL    HW125655   9.151   4.271   0.771
41272SOL    HW225656   9.249   4.364   0.841
41273SOL     OW25657  14.771   1.934   1.169
41273SOL    HW125658  14.835   1.989   1.214
41273SOL    HW225659  14.707   1.912   1.236
41274SOL     OW25660  13.408  11.704   4.980
41274SOL    HW125661  13.360  11.764   5.038
41274SOL    HW225662  13.378  11.617   5.005
41275SOL     OW25663  10.631  11.644   2.634
41275SOL    HW125664  10.694  11.603   2.694
41275SOL    HW225665  10.546  11.633   2.676
41276SOL     OW25666  11.203  10.092   0.817
41276SOL    HW125667  11.289  10.070   0.852
41276SOL    HW225668  11.210  10.183   0.791
41277SOL     OW25669   4.348   5.979   2.072
41277SOL    HW125670   4.353   5.908   2.135
41277SOL    HW225671   4.372   5.939   1.988
41278SOL     OW25672   1.134   6.511   8.563
41278SOL    HW125673   1.074   6.496   8.489
41278SOL    HW225674   1.078   6.509   8.640
41279SOL     OW25675  11.992   9.710   2.608
41279SOL    HW125676  11.955   9.642   2.664
41279SOL    HW225677  12.034   9.771   2.668
41280SOL     OW25678   7.276   0.564   6.987
41280SOL    HW125679   7.199   0.603   7.028
41280SOL    HW225680   7.243   0.485   6.945
41281SOL     OW25681  11.791   7.541   5.842
41281SOL    HW125682  11.848   7.554   5.766
41281SOL    HW225683  11.752   7.455   5.828
41282SOL     OW25684   3.592   3.020   1.962
41282SOL    HW125685   3.612   3.104   1.921
41282SOL    HW225686   3.643   3.020   2.043
41283SOL     OW25687   7.615   4.408  10.815
41283SOL    HW125688   7.542   4.466  10.836
41283SOL    HW225689   7.576   4.321  10.809
41284SOL     OW25690   4.799   1.848   4.857
41284SOL    HW125691   4.890   1.854   4.886
41284SOL    HW225692   4.771   1.939   4.848
41285SOL     OW25693   1.135   5.226   5.608
41285SOL    HW125694   1.158   5.282   5.682
41285SOL    HW225695   1.218   5.184   5.584
41286SOL     OW25696   8.633   9.016   4.384
41286SOL    HW125697   8.548   8.975   4.402
41286SOL    HW225698   8.696   8.945   4.386
41287SOL     OW25699   1.565   7.541  11.556
41287SOL    HW125700   1.553   7.454  11.594
41287SOL    HW225701   1.618   7.527  11.478
41288SOL     OW25702   5.485   8.862  11.072
41288SOL    HW125703   5.533   8.818  11.002
41288SOL    HW225704   5.399   8.880  11.034
41289SOL     OW25705   5.074   2.304   1.680
41289SOL    HW125706   5.130   2.247   1.627
41289SOL    HW225707   4.995   2.253   1.694
41290SOL     OW25708   9.581   4.602   7.474
41290SOL    HW125709   9.612   4.689   7.501
41290SOL    HW225710   9.661   4.555   7.450
41291SOL     OW25711   1.683   6.674   8.252
41291SOL    HW125712   1.746   6.744   8.237
41291SOL    HW225713   1.720   6.624   8.325
41292SOL     OW25714  12.269   4.150  13.656
41292SOL    HW125715  12.347   4.131  13.708
41292SOL    HW225716  12.208   4.189  13.718
41293SOL     OW25717   7.591   5.520   6.882
41293SOL    HW125718   7.664   5.461   6.900
41293SOL    HW225719   7.623   5.577   6.813
41294SOL     OW25720  13.250  13.210   4.027
41294SOL    HW125721  13.309  13.215   3.952
41294SOL    HW225722  13.307  13.210   4.103
41295SOL     OW25723   3.007  13.484   6.295
41295SOL    HW125724   2.977  13.398   6.266
41295SOL    HW225725   3.047  13.524   6.218
41296SOL     OW25726  13.616   9.209   0.043
41296SOL    HW125727  13.540   9.171   0.088
41296SOL    HW225728  13.587   9.221  14.832
41297SOL     OW25729   0.139  13.392   7.359
41297SOL    HW125730   0.088  13.345   7.425
41297SOL    HW225731   0.169  13.471   7.404
41298SOL     OW25732   4.725  14.646   8.864
41298SOL    HW125733   4.754  14.726   8.820
41298SOL    HW225734   4.700  14.675   8.952
41299SOL     OW25735   2.091   6.728   9.879
41299SOL    HW125736   2.103   6.773   9.795
41299SOL    HW225737   2.159   6.765   9.935
41300SOL     OW25738   5.977   9.689  11.344
41300SOL    HW125739   5.994   9.601  11.377
41300SOL    HW225740   6.059   9.737  11.360
41301SOL     OW25741   8.199   3.892   5.378
41301SOL    HW125742   8.106   3.914   5.384
41301SOL    HW225743   8.209   3.812   5.429
41302SOL     OW25744  12.515   6.035  14.426
41302SOL    HW125745  12.450   6.012  14.359
41302SOL    HW225746  12.528   6.129  14.415
41303SOL     OW25747   2.592  10.258  13.418
41303SOL    HW125748   2.601  10.196  13.491
41303SOL    HW225749   2.595  10.203  13.340
41304SOL     OW25750  13.904   0.038   4.236
41304SOL    HW125751  13.851   0.093   4.179
41304SOL    HW225752  13.921  14.839   4.184
41305SOL     OW25753  13.907   9.545   1.643
41305SOL    HW125754  13.998   9.555   1.614
41305SOL    HW225755  13.861   9.513   1.565
41306SOL     OW25756   8.450  12.130   9.373
41306SOL    HW125757   8.414  12.211   9.338
41306SOL    HW225758   8.435  12.134   9.467
41307SOL     OW25759   8.297  13.625   7.581
41307SOL    HW125760   8.377  13.573   7.582
41307SOL    HW225761   8.228  13.564   7.607
41308SOL     OW25762   4.850  10.433  10.547
41308SOL    HW125763   4.823  10.348  10.583
41308SOL    HW225764   4.778  10.492  10.571
41309SOL     OW25765   5.402  14.826   5.534
41309SOL    HW125766   5.405  14.804   5.441
41309SOL    HW225767   5.333  14.771   5.570
41310SOL     OW25768  12.419   1.147  10.839
41310SOL    HW125769  12.362   1.222  10.821
41310SOL    HW225770  12.443   1.113  10.753
41311SOL     OW25771   1.133  12.617  13.593
41311SOL    HW125772   1.039  12.630  13.606
41311SOL    HW225773   1.166  12.705  13.572
41312SOL     OW25774   1.051   0.488  13.610
41312SOL    HW125775   1.092   0.438  13.539
41312SOL    HW225776   1.104   0.467  13.687
41313SOL     OW25777  13.762   9.328   2.100
41313SOL    HW125778  13.765   9.355   2.008
41313SOL    HW225779  13.777   9.408   2.149
41314SOL     OW25780  10.355   3.574   2.429
41314SOL    HW125781  10.316   3.489   2.413
41314SOL    HW225782  10.429   3.579   2.369
41315SOL     OW25783   3.329   9.819  11.095
41315SOL    HW125784   3.412   9.793  11.134
41315SOL    HW225785   3.352   9.858  11.011
41316SOL     OW25786   8.291  12.794   9.734
41316SOL    HW125787   8.261  12.704   9.743
41316SOL    HW225788   8.379  12.786   9.698
41317SOL     OW25789   9.419   6.271   4.829
41317SOL    HW125790   9.457   6.190   4.796
41317SOL    HW225791   9.471   6.291   4.907
41318SOL     OW25792   2.596   6.928  10.492
41318SOL    HW125793   2.593   7.023  10.493
41318SOL    HW225794   2.686   6.907  10.467
41319SOL     OW25795  10.155   2.531   5.056
41319SOL    HW125796  10.220   2.529   4.985
41319SOL    HW225797  10.179   2.458   5.113
41320SOL     OW25798   3.131   2.127  11.059
41320SOL    HW125799   3.179   2.044  11.061
41320SOL    HW225800   3.180   2.185  11.116
41321SOL     OW25801   3.541   7.626  14.684
41321SOL    HW125802   3.506   7.629  14.595
41321SOL    HW225803   3.465   7.643  14.740
41322SOL     OW25804  12.279  14.409  13.806
41322SOL    HW125805  12.226  14.478  13.767
41322SOL    HW225806  12.353  14.398  13.746
41323SOL     OW25807   7.794   5.033   7.072
41323SOL    HW125808   7.768   4.955   7.120
41323SOL    HW225809   7.841   5.001   6.995
41324SOL     OW25810   3.209  14.823  10.305
41324SOL    HW125811   3.297  14.799  10.332
41324SOL    HW225812   3.156  14.813  10.384
41325SOL     OW25813  11.524  11.709   7.637
41325SOL    HW125814  11.619  11.722   7.634
41325SOL    HW225815  11.489  11.796   7.654
41326SOL     OW25816   6.778   1.022   1.794
41326SOL    HW125817   6.763   0.953   1.729
41326SOL    HW225818   6.827   1.090   1.747
41327SOL     OW25819  12.930   8.806   7.765
41327SOL    HW125820  12.985   8.884   7.764
41327SOL    HW225821  12.925   8.779   7.673
41328SOL     OW25822  10.084   6.810  11.041
41328SOL    HW125823  10.131   6.730  11.065
41328SOL    HW225824  10.119   6.834  10.955
41329SOL     OW25825   7.758   8.480   7.991
41329SOL    HW125826   7.746   8.482   7.896
41329SOL    HW225827   7.710   8.556   8.022
41330SOL     OW25828  13.148   8.570  10.718
41330SOL    HW125829  13.196   8.528  10.646
41330SOL    HW225830  13.215   8.604  10.776
41331SOL     OW25831   7.971   0.037  14.863
41331SOL    HW125832   7.920   0.056   0.063
41331SOL    HW225833   7.974  14.821  14.858
41332SOL     OW25834   1.116   3.106   7.913
41332SOL    HW125835   1.156   3.024   7.940
41332SOL    HW225836   1.081   3.089   7.826
41333SOL     OW25837   4.173  10.619  13.374
41333SOL    HW125838   4.254  10.620  13.323
41333SOL    HW225839   4.163  10.709  13.406
41334SOL     OW25840  11.688  13.998   8.897
41334SOL    HW125841  11.601  14.035   8.915
41334SOL    HW225842  11.728  13.989   8.984
41335SOL     OW25843   4.388   6.244   7.242
41335SOL    HW125844   4.324   6.267   7.309
41335SOL    HW225845   4.342   6.257   7.159
41336SOL     OW25846   1.920  10.676   5.310
41336SOL    HW125847   2.004  10.652   5.271
41336SOL    HW225848   1.859  10.679   5.237
41337SOL     OW25849  13.277   8.815   8.282
41337SOL    HW125850  13.347   8.773   8.231
41337SOL    HW225851  13.226   8.864   8.217
41338SOL     OW25852   8.946  12.151  11.665
41338SOL    HW125853   8.997  12.225  11.697
41338SOL    HW225854   8.981  12.075  11.712
41339SOL     OW25855  12.574   6.548  13.494
41339SOL    HW125856  12.586   6.639  13.520
41339SOL    HW225857  12.575   6.500  13.577
41340SOL     OW25858   0.487  14.643  10.243
41340SOL    HW125859   0.577  14.629  10.273
41340SOL    HW225860   0.485  14.733  10.211
41341SOL     OW25861   8.624   6.090   8.705
41341SOL    HW125862   8.610   5.996   8.701
41341SOL    HW225863   8.675   6.111   8.627
41342SOL     OW25864   7.156  11.643  10.171
41342SOL    HW125865   7.180  11.564  10.219
41342SOL    HW225866   7.207  11.638  10.090
41343SOL     OW25867  10.542   3.297   5.627
41343SOL    HW125868  10.582   3.285   5.713
41343SOL    HW225869  10.528   3.208   5.595
41344SOL     OW25870   8.980   0.882  12.598
41344SOL    HW125871   9.072   0.904  12.611
41344SOL    HW225872   8.957   0.828  12.673
41345SOL     OW25873  12.077   2.906   6.049
41345SOL    HW125874  12.154   2.913   6.106
41345SOL    HW225875  12.072   2.813   6.027
41346SOL     OW25876   2.606   0.520  14.698
41346SOL    HW125877   2.542   0.490  14.763
41346SOL    HW225878   2.672   0.450  14.696
41347SOL     OW25879   9.841  10.485  13.227
41347SOL    HW125880   9.781  10.549  13.190
41347SOL    HW225881   9.825  10.489  13.322
41348SOL     OW25882   8.949   0.688   4.767
41348SOL    HW125883   8.975   0.675   4.858
41348SOL    HW225884   8.952   0.783   4.754
41349SOL     OW25885  13.409  11.850   3.418
41349SOL    HW125886  13.406  11.761   3.383
41349SOL    HW225887  13.491  11.853   3.468
41350SOL     OW25888  11.046   7.771   3.335
41350SOL    HW125889  11.015   7.791   3.247
41350SOL    HW225890  11.075   7.680   3.330
41351SOL     OW25891   7.433  12.184  14.269
41351SOL    HW125892   7.363  12.120  14.267
41351SOL    HW225893   7.454  12.195  14.362
41352SOL     OW25894  10.681   2.337  11.278
41352SOL    HW125895  10.725   2.320  11.195
41352SOL    HW225896  10.710   2.265  11.335
41353SOL     OW25897  14.811  14.201   6.249
41353SOL    HW125898  14.844  14.190   6.339
41353SOL    HW225899  14.791  14.112   6.221
41354SOL     OW25900   6.019   8.203   0.220
41354SOL    HW125901   5.924   8.206   0.223
41354SOL    HW225902   6.044   8.131   0.278
41355SOL     OW25903   3.127   9.432  12.325
41355SOL    HW125904   3.215   9.458  12.299
41355SOL    HW225905   3.104   9.494  12.395
41356SOL     OW25906   7.604   2.685   2.185
41356SOL    HW125907   7.644   2.733   2.258
41356SOL    HW225908   7.527   2.737   2.162
41357SOL     OW25909   3.622   7.818   8.651
41357SOL    HW125910   3.693   7.881   8.664
41357SOL    HW225911   3.573   7.852   8.576
41358SOL     OW25912   8.110   6.398   1.705
41358SOL    HW125913   8.043   6.339   1.669
41358SOL    HW225914   8.122   6.368   1.795
41359SOL     OW25915   9.160  13.386   5.654
41359SOL    HW125916   9.247  13.413   5.625
41359SOL    HW225917   9.141  13.308   5.602
41360SOL     OW25918  11.315   0.654  14.608
41360SOL    HW125919  11.407   0.678  14.601
41360SOL    HW225920  11.293   0.619  14.521
41361SOL     OW25921  11.548  11.148   0.865
41361SOL    HW125922  11.552  11.141   0.960
41361SOL    HW225923  11.455  11.160   0.845
41362SOL     OW25924   1.954  13.818   6.890
41362SOL    HW125925   1.943  13.727   6.864
41362SOL    HW225926   2.048  13.834   6.883
41363SOL     OW25927   7.394  10.184  11.729
41363SOL    HW125928   7.359  10.168  11.817
41363SOL    HW225929   7.363  10.110  11.677
41364SOL     OW25930  12.534   2.085   4.577
41364SOL    HW125931  12.499   2.171   4.553
41364SOL    HW225932  12.628   2.091   4.559
41365SOL     OW25933   2.936   6.643   4.279
41365SOL    HW125934   2.941   6.626   4.373
41365SOL    HW225935   2.863   6.590   4.248
41366SOL     OW25936   9.628   6.462  11.910
41366SOL    HW125937   9.641   6.399  11.981
41366SOL    HW225938   9.709   6.460  11.860
41367SOL     OW25939  11.400   3.205   2.955
41367SOL    HW125940  11.335   3.230   3.021
41367SOL    HW225941  11.387   3.268   2.884
41368SOL     OW25942   9.788  13.102  12.697
41368SOL    HW125943   9.713  13.161  12.708
41368SOL    HW225944   9.764  13.024  12.747
41369SOL     OW25945   6.350  10.395   9.639
41369SOL    HW125946   6.326  10.313   9.596
41369SOL    HW225947   6.436  10.417   9.603
41370SOL     OW25948   7.665   3.048   5.403
41370SOL    HW125949   7.668   3.143   5.396
41370SOL    HW225950   7.574   3.028   5.424
41371SOL     OW25951   2.451   3.464   7.655
41371SOL    HW125952   2.385   3.424   7.599
41371SOL    HW225953   2.523   3.401   7.656
41372SOL     OW25954  10.139   4.719   8.300
41372SOL    HW125955  10.066   4.694   8.356
41372SOL    HW225956  10.158   4.641   8.249
41373SOL     OW25957   7.671   1.389   0.612
41373SOL    HW125958   7.592   1.341   0.589
41373SOL    HW225959   7.721   1.395   0.531
41374SOL     OW25960   6.189   0.849  10.371
41374SOL    HW125961   6.254   0.882  10.309
41374SOL    HW225962   6.202   0.754  10.371
41375SOL     OW25963   7.894   4.162  13.615
41375SOL    HW125964   7.824   4.227  13.604
41375SOL    HW225965   7.917   4.168  13.708
41376SOL     OW25966  14.389   0.395   2.744
41376SOL    HW125967  14.295   0.396   2.725
41376SOL    HW225968  14.401   0.317   2.799
41377SOL     OW25969  13.070   5.432   2.691
41377SOL    HW125970  13.161   5.408   2.705
41377SOL    HW225971  13.041   5.469   2.775
41378SOL     OW25972  11.662   8.041  13.054
41378SOL    HW125973  11.644   8.029  12.960
41378SOL    HW225974  11.622   8.125  13.076
41379SOL     OW25975  13.265   4.515   6.843
41379SOL    HW125976  13.248   4.609   6.853
41379SOL    HW225977  13.280   4.484   6.932
41380SOL     OW25978   3.640   5.361  12.036
41380SOL    HW125979   3.618   5.453  12.052
41380SOL    HW225980   3.557   5.321  12.009
41381SOL     OW25981   4.504   6.467   3.586
41381SOL    HW125982   4.410   6.451   3.587
41381SOL    HW225983   4.522   6.495   3.496
41382SOL     OW25984   2.410   0.349   3.842
41382SOL    HW125985   2.342   0.335   3.776
41382SOL    HW225986   2.407   0.443   3.859
41383SOL     OW25987   0.454   6.943   9.333
41383SOL    HW125988   0.536   6.957   9.379
41383SOL    HW225989   0.474   6.878   9.265
41384SOL     OW25990   6.396   6.629  10.194
41384SOL    HW125991   6.425   6.694  10.130
41384SOL    HW225992   6.470   6.619  10.254
41385SOL     OW25993   0.844   0.187   3.016
41385SOL    HW125994   0.868   0.110   3.069
41385SOL    HW225995   0.904   0.256   3.046
41386SOL     OW25996   8.724  11.756  10.891
41386SOL    HW125997   8.700  11.715  10.974
41386SOL    HW225998   8.729  11.683  10.829
41387SOL     OW25999  11.357  11.294  11.549
41387SOL    HW126000  11.323  11.311  11.461
41387SOL    HW226001  11.290  11.330  11.608
41388SOL     OW26002   4.915   2.979   5.085
41388SOL    HW126003   4.895   3.072   5.096
41388SOL    HW226004   5.010   2.973   5.092
41389SOL     OW26005   0.195   1.344   2.459
41389SOL    HW126006   0.229   1.416   2.511
41389SOL    HW226007   0.177   1.382   2.373
41390SOL     OW26008   6.205  12.320   1.928
41390SOL    HW126009   6.122  12.303   1.973
41390SOL    HW226010   6.180  12.334   1.837
41391SOL     OW26011   3.482  10.551  13.893
41391SOL    HW126012   3.470  10.644  13.874
41391SOL    HW226013   3.403  10.526  13.941
41392SOL     OW26014  14.015   5.620   8.596
41392SOL    HW126015  14.066   5.630   8.515
41392SOL    HW226016  14.025   5.528   8.620
41393SOL     OW26017   7.881   2.666   0.403
41393SOL    HW126018   7.787   2.683   0.404
41393SOL    HW226019   7.895   2.607   0.330
41394SOL     OW26020  10.203   4.571   0.709
41394SOL    HW126021  10.148   4.511   0.761
41394SOL    HW226022  10.275   4.593   0.768
41395SOL     OW26023   2.161  14.762   4.652
41395SOL    HW126024   2.095  14.804   4.596
41395SOL    HW226025   2.111  14.703   4.708
41396SOL     OW26026  13.634   8.826   6.646
41396SOL    HW126027  13.662   8.900   6.592
41396SOL    HW226028  13.704   8.817   6.711
41397SOL     OW26029   5.985   1.774  10.211
41397SOL    HW126030   6.063   1.821  10.181
41397SOL    HW226031   5.976   1.798  10.303
41398SOL     OW26032  12.940  12.098   9.694
41398SOL    HW126033  12.847  12.105   9.672
41398SOL    HW226034  12.953  12.006   9.714
41399SOL     OW26035   8.354   2.439  13.642
41399SOL    HW126036   8.259   2.452  13.651
41399SOL    HW226037   8.384   2.515  13.592
41400SOL     OW26038   5.393   3.703   0.186
41400SOL    HW126039   5.414   3.783   0.234
41400SOL    HW226040   5.463   3.642   0.209
41401SOL     OW26041   7.137  11.724   9.662
41401SOL    HW126042   7.058  11.775   9.676
41401SOL    HW226043   7.167  11.750   9.575
41402SOL     OW26044   0.026   2.713   0.794
41402SOL    HW126045  14.811   2.717   0.810
41402SOL    HW226046   0.047   2.620   0.798
41403SOL     OW26047  13.481   4.624  11.145
41403SOL    HW126048  13.427   4.546  11.130
41403SOL    HW226049  13.561   4.590  11.184
41404SOL     OW26050   6.459   8.132   5.505
41404SOL    HW126051   6.476   8.136   5.410
41404SOL    HW226052   6.479   8.221   5.536
41405SOL     OW26053   3.048   1.602   4.701
41405SOL    HW126054   2.995   1.665   4.652
41405SOL    HW226055   2.998   1.584   4.780
41406SOL     OW26056   1.892   2.080   9.706
41406SOL    HW126057   1.828   2.149   9.726
41406SOL    HW226058   1.868   2.008   9.764
41407SOL     OW26059  11.805   7.048  13.886
41407SOL    HW126060  11.837   7.138  13.884
41407SOL    HW226061  11.720   7.053  13.928
41408SOL     OW26062  14.687  10.958  14.420
41408SOL    HW126063  14.677  10.919  14.506
41408SOL    HW226064  14.600  10.993  14.399
41409SOL     OW26065   5.561   2.322  12.174
41409SOL    HW126066   5.589   2.333  12.265
41409SOL    HW226067   5.641   2.332  12.123
41410SOL     OW26068  12.617   8.192   8.863
41410SOL    HW126069  12.632   8.103   8.896
41410SOL    HW226070  12.690   8.243   8.899
41411SOL     OW26071   0.718  10.649   3.119
41411SOL    HW126072   0.704  10.555   3.126
41411SOL    HW226073   0.746  10.676   3.207
41412SOL     OW26074   6.048   4.557   6.057
41412SOL    HW126075   6.018   4.646   6.038
41412SOL    HW226076   6.083   4.562   6.146
41413SOL     OW26077   1.400  13.226   0.507
41413SOL    HW126078   1.335  13.188   0.567
41413SOL    HW226079   1.418  13.157   0.444
41414SOL     OW26080   3.650  11.769   8.680
41414SOL    HW126081   3.573  11.719   8.652
41414SOL    HW226082   3.717  11.702   8.696
41415SOL     OW26083   2.053   5.538  13.370
41415SOL    HW126084   2.037   5.542  13.276
41415SOL    HW226085   2.021   5.452  13.397
41416SOL     OW26086   6.110   6.877   8.898
41416SOL    HW126087   6.020   6.906   8.914
41416SOL    HW226088   6.107   6.782   8.908
41417SOL     OW26089   8.797   5.325  13.079
41417SOL    HW126090   8.878   5.351  13.035
41417SOL    HW226091   8.736   5.396  13.061
41418SOL     OW26092  14.400   1.826  12.531
41418SOL    HW126093  14.345   1.801  12.606
41418SOL    HW226094  14.341   1.877  12.475
41419SOL     OW26095   1.635   7.187  13.820
41419SOL    HW126096   1.602   7.174  13.732
41419SOL    HW226097   1.719   7.141  13.822
41420SOL     OW26098   5.597   8.118  14.273
41420SOL    HW126099   5.593   8.087  14.183
41420SOL    HW226100   5.678   8.170  14.277
41421SOL     OW26101  14.724   8.724   8.105
41421SOL    HW126102  14.632   8.707   8.122
41421SOL    HW226103  14.741   8.685   8.020
41422SOL     OW26104  11.244  14.727   3.913
41422SOL    HW126105  11.202  14.730   3.999
41422SOL    HW226106  11.187  14.669   3.861
41423SOL     OW26107  11.686   3.235   9.239
41423SOL    HW126108  11.715   3.229   9.148
41423SOL    HW226109  11.726   3.159   9.282
41424SOL     OW26110  12.666   5.846   1.421
41424SOL    HW126111  12.712   5.883   1.346
41424SOL    HW226112  12.640   5.922   1.473
41425SOL     OW26113   4.327   4.690   1.735
41425SOL    HW126114   4.393   4.665   1.671
41425SOL    HW226115   4.329   4.786   1.736
41426SOL     OW26116  14.592   3.536   6.862
41426SOL    HW126117  14.679   3.575   6.870
41426SOL    HW226118  14.534   3.599   6.903
41427SOL     OW26119   8.873  10.155   7.028
41427SOL    HW126120   8.857  10.210   6.951
41427SOL    HW226121   8.963  10.174   7.053
41428SOL     OW26122   9.726  13.781   8.478
41428SOL    HW126123   9.648  13.763   8.424
41428SOL    HW226124   9.737  13.702   8.531
41429SOL     OW26125  10.162   5.066   2.225
41429SOL    HW126126  10.238   5.010   2.207
41429SOL    HW226127  10.089   5.019   2.186
41430SOL     OW26128   9.211   0.640   5.872
41430SOL    HW126129   9.288   0.582   5.866
41430SOL    HW226130   9.155   0.612   5.800
41431SOL     OW26131   3.523   6.390   6.752
41431SOL    HW126132   3.487   6.474   6.725
41431SOL    HW226133   3.598   6.412   6.808
41432SOL     OW26134  12.549   4.689   7.378
41432SOL    HW126135  12.488   4.760   7.399
41432SOL    HW226136  12.496   4.624   7.334
41433SOL     OW26137  12.686  13.552  14.558
41433SOL    HW126138  12.609  13.511  14.598
41433SOL    HW226139  12.760  13.516  14.607
41434SOL     OW26140   1.827   1.590   9.657
41434SOL    HW126141   1.778   1.655   9.706
41434SOL    HW226142   1.762   1.522   9.637
41435SOL     OW26143  14.379   0.626   8.105
41435SOL    HW126144  14.403   0.549   8.155
41435SOL    HW226145  14.374   0.697   8.170
41436SOL     OW26146  13.180   4.339  11.483
41436SOL    HW126147  13.181   4.290  11.565
41436SOL    HW226148  13.271   4.337  11.452
41437SOL     OW26149   5.530   2.820  13.089
41437SOL    HW126150   5.461   2.763  13.124
41437SOL    HW226151   5.483   2.885  13.038
41438SOL     OW26152   6.724  12.544   9.189
41438SOL    HW126153   6.791  12.520   9.125
41438SOL    HW226154   6.660  12.473   9.186
41439SOL     OW26155   8.756   1.010   9.260
41439SOL    HW126156   8.732   0.922   9.231
41439SOL    HW226157   8.770   1.001   9.355
41440SOL     OW26158   7.597   6.949   4.852
41440SOL    HW126159   7.525   7.013   4.857
41440SOL    HW226160   7.601   6.910   4.940
41441SOL     OW26161   1.647  13.182   3.745
41441SOL    HW126162   1.592  13.260   3.754
41441SOL    HW226163   1.694  13.195   3.662
41442SOL     OW26164  10.889  13.904   2.702
41442SOL    HW126165  10.808  13.855   2.688
41442SOL    HW226166  10.861  13.982   2.750
41443SOL     OW26167   7.015   5.302  13.536
41443SOL    HW126168   7.054   5.265  13.457
41443SOL    HW226169   7.053   5.390  13.542
41444SOL     OW26170   0.587   5.793   2.172
41444SOL    HW126171   0.572   5.879   2.134
41444SOL    HW226172   0.683   5.785   2.175
41445SOL     OW26173   1.114   4.242   7.877
41445SOL    HW126174   1.173   4.264   7.804
41445SOL    HW226175   1.107   4.147   7.873
41446SOL     OW26176   4.093   3.546   7.321
41446SOL    HW126177   4.008   3.578   7.348
41446SOL    HW226178   4.122   3.489   7.392
41447SOL     OW26179   1.961   1.084  14.395
41447SOL    HW126180   2.033   1.057  14.337
41447SOL    HW226181   1.997   1.075  14.483
41448SOL     OW26182   0.625   6.275  10.990
41448SOL    HW126183   0.540   6.278  10.947
41448SOL    HW226184   0.647   6.182  10.994
41449SOL     OW26185   6.927   2.886   1.089
41449SOL    HW126186   7.008   2.905   1.136
41449SOL    HW226187   6.867   2.956   1.114
41450SOL     OW26188   7.340   0.337  13.172
41450SOL    HW126189   7.421   0.307  13.131
41450SOL    HW226190   7.312   0.412  13.120
41451SOL     OW26191   3.990   2.282   0.751
41451SOL    HW126192   3.966   2.229   0.826
41451SOL    HW226193   3.983   2.372   0.782
41452SOL     OW26194  10.018   0.063   7.548
41452SOL    HW126195   9.957  14.870   7.535
41452SOL    HW226196   9.997   0.125   7.478
41453SOL     OW26197  10.024   2.023   8.669
41453SOL    HW126198  10.020   1.983   8.582
41453SOL    HW226199  10.098   1.980   8.712
41454SOL     OW26200   2.763   9.541   1.735
41454SOL    HW126201   2.760   9.459   1.685
41454SOL    HW226202   2.856   9.565   1.737
41455SOL     OW26203   7.889   1.245  12.787
41455SOL    HW126204   7.908   1.209  12.874
41455SOL    HW226205   7.794   1.256  12.786
41456SOL     OW26206   5.334  13.016   7.147
41456SOL    HW126207   5.371  13.079   7.208
41456SOL    HW226208   5.344  12.931   7.191
41457SOL     OW26209   7.889   6.515   6.206
41457SOL    HW126210   7.798   6.510   6.234
41457SOL    HW226211   7.939   6.488   6.282
41458SOL     OW26212  13.228   0.398   8.365
41458SOL    HW126213  13.291   0.353   8.421
41458SOL    HW226214  13.261   0.387   8.277
41459SOL     OW26215   6.939  12.860   6.513
41459SOL    HW126216   6.843  12.863   6.515
41459SOL    HW226217   6.965  12.952   6.516
41460SOL     OW26218  11.531   4.712   0.358
41460SOL    HW126219  11.503   4.718   0.449
41460SOL    HW226220  11.576   4.628   0.353
41461SOL     OW26221  14.009   4.480   8.835
41461SOL    HW126222  13.973   4.401   8.794
41461SOL    HW226223  13.943   4.547   8.820
41462SOL     OW26224   9.616   2.879   1.358
41462SOL    HW126225   9.666   2.821   1.415
41462SOL    HW226226   9.656   2.965   1.371
41463SOL     OW26227   4.293   8.388   5.339
41463SOL    HW126228   4.301   8.449   5.266
41463SOL    HW226229   4.381   8.352   5.350
41464SOL     OW26230  11.389   6.716  11.363
41464SOL    HW126231  11.367   6.623  11.369
41464SOL    HW226232  11.345   6.756  11.438
41465SOL     OW26233   5.013  14.553   0.130
41465SOL    HW126234   4.939  14.611   0.146
41465SOL    HW226235   5.037  14.570   0.039
41466SOL     OW26236   4.982   9.761   5.082
41466SOL    HW126237   5.046   9.803   5.139
41466SOL    HW226238   5.034   9.720   5.013
41467SOL     OW26239   3.504   1.870  12.383
41467SOL    HW126240   3.516   1.892  12.290
41467SOL    HW226241   3.409   1.872  12.395
41468SOL     OW26242  11.110   1.129  11.055
41468SOL    HW126243  11.187   1.078  11.081
41468SOL    HW226244  11.094   1.103  10.964
41469SOL     OW26245   1.774  11.662   8.964
41469SOL    HW126246   1.698  11.708   8.929
41469SOL    HW226247   1.843  11.729   8.967
41470SOL     OW26248   9.572  11.310  14.743
41470SOL    HW126249   9.488  11.277  14.712
41470SOL    HW226250   9.623  11.323  14.663
41471SOL     OW26251   0.515   6.467   9.473
41471SOL    HW126252   0.459   6.512   9.536
41471SOL    HW226253   0.482   6.378   9.469
41472SOL     OW26254   1.662  13.754  12.379
41472SOL    HW126255   1.596  13.713  12.435
41472SOL    HW226256   1.740  13.761  12.434
41473SOL     OW26257   7.870  10.213   0.185
41473SOL    HW126258   7.823  10.133   0.162
41473SOL    HW226259   7.847  10.229   0.277
41474SOL     OW26260  13.486  14.494   5.061
41474SOL    HW126261  13.500  14.550   5.137
41474SOL    HW226262  13.559  14.431   5.063
41475SOL     OW26263   8.803  12.785   8.469
41475SOL    HW126264   8.773  12.772   8.559
41475SOL    HW226265   8.899  12.783   8.476
41476SOL     OW26266   6.572   5.489   1.467
41476SOL    HW126267   6.651   5.436   1.483
41476SOL    HW226268   6.514   5.468   1.540
41477SOL     OW26269  10.328  10.593   3.718
41477SOL    HW126270  10.302  10.614   3.629
41477SOL    HW226271  10.272  10.520   3.743
41478SOL     OW26272   0.091   2.340  11.398
41478SOL    HW126273   0.154   2.274  11.427
41478SOL    HW226274   0.145   2.406  11.355
41479SOL     OW26275   1.688   2.152  12.410
41479SOL    HW126276   1.651   2.077  12.363
41479SOL    HW226277   1.782   2.133  12.415
41480SOL     OW26278  10.465   9.111  12.856
41480SOL    HW126279  10.462   9.187  12.798
41480SOL    HW226280  10.382   9.113  12.903
41481SOL     OW26281  14.164   2.680   6.128
41481SOL    HW126282  14.118   2.601   6.157
41481SOL    HW226283  14.249   2.648   6.098
41482SOL     OW26284   7.330   8.143  11.534
41482SOL    HW126285   7.410   8.107  11.572
41482SOL    HW226286   7.348   8.147  11.440
41483SOL     OW26287   5.264  13.181   3.095
41483SOL    HW126288   5.276  13.244   3.166
41483SOL    HW226289   5.340  13.123   3.101
41484SOL     OW26290   4.196   4.591  13.854
41484SOL    HW126291   4.121   4.627  13.806
41484SOL    HW226292   4.160   4.514  13.899
41485SOL     OW26293   5.894  13.448   8.151
41485SOL    HW126294   5.850  13.466   8.234
41485SOL    HW226295   5.927  13.532   8.121
41486SOL     OW26296   3.093   4.307  13.130
41486SOL    HW126297   3.179   4.349  13.138
41486SOL    HW226298   3.030   4.378  13.141
41487SOL     OW26299   7.115  14.108   1.189
41487SOL    HW126300   7.204  14.105   1.154
41487SOL    HW226301   7.073  14.180   1.142
41488SOL     OW26302   6.612   6.075   5.067
41488SOL    HW126303   6.686   6.095   5.124
41488SOL    HW226304   6.546   6.141   5.090
41489SOL     OW26305  11.964   4.127   1.805
41489SOL    HW126306  11.991   4.065   1.737
41489SOL    HW226307  12.032   4.120   1.872
41490SOL     OW26308   2.075   8.413  12.891
41490SOL    HW126309   2.122   8.496  12.893
41490SOL    HW226310   2.130   8.353  12.942
41491SOL     OW26311   4.654  13.347   7.878
41491SOL    HW126312   4.565  13.360   7.911
41491SOL    HW226313   4.650  13.263   7.832
41492SOL     OW26314   7.927   7.782   4.626
41492SOL    HW126315   7.835   7.773   4.651
41492SOL    HW226316   7.967   7.831   4.698
41493SOL     OW26317  10.440  13.512  12.997
41493SOL    HW126318  10.497  13.448  13.040
41493SOL    HW226319  10.379  13.539  13.065
41494SOL     OW26320   6.447  12.662  14.183
41494SOL    HW126321   6.538  12.673  14.155
41494SOL    HW226322   6.409  12.603  14.118
41495SOL     OW26323   8.816  14.711   4.157
41495SOL    HW126324   8.774  14.630   4.130
41495SOL    HW226325   8.776  14.732   4.241
41496SOL     OW26326   5.525  10.196   5.505
41496SOL    HW126327   5.536  10.117   5.558
41496SOL    HW226328   5.562  10.266   5.558
41497SOL     OW26329   5.308  13.191  12.736
41497SOL    HW126330   5.262  13.229  12.811
41497SOL    HW226331   5.255  13.115  12.711
41498SOL     OW26332  14.700   0.356   3.995
41498SOL    HW126333  14.714   0.363   4.089
41498SOL    HW226334  14.724   0.441   3.960
41499SOL     OW26335   6.737   2.222  12.215
41499SOL    HW126336   6.789   2.247  12.139
41499SOL    HW226337   6.669   2.165  12.181
41500SOL     OW26338  14.487   2.214  12.971
41500SOL    HW126339  14.443   2.189  12.890
41500SOL    HW226340  14.435   2.286  13.006
41501SOL     OW26341  13.484   0.864   6.411
41501SOL    HW126342  13.455   0.869   6.502
41501SOL    HW226343  13.498   0.955   6.384
41502SOL     OW26344   2.933   9.287   5.691
41502SOL    HW126345   2.996   9.349   5.729
41502SOL    HW226346   2.872   9.343   5.642
41503SOL     OW26347   1.109   4.540   5.905
41503SOL    HW126348   1.028   4.497   5.933
41503SOL    HW226349   1.114   4.618   5.959
41504SOL     OW26350   9.534  12.397  12.106
41504SOL    HW126351   9.627  12.414  12.120
41504SOL    HW226352   9.531  12.337  12.031
41505SOL     OW26353   5.543   7.728   5.923
41505SOL    HW126354   5.630   7.711   5.958
41505SOL    HW226355   5.554   7.803   5.865
41506SOL     OW26356   5.916   2.045   4.156
41506SOL    HW126357   5.826   2.038   4.188
41506SOL    HW226358   5.943   2.134   4.180
41507SOL     OW26359   5.014   9.600   2.705
41507SOL    HW126360   4.958   9.523   2.690
41507SOL    HW226361   5.057   9.614   2.621
41508SOL     OW26362   0.629  12.180   0.867
41508SOL    HW126363   0.611  12.273   0.883
41508SOL    HW226364   0.647  12.176   0.773
41509SOL     OW26365   3.434   0.389   1.033
41509SOL    HW126366   3.510   0.382   1.090
41509SOL    HW226367   3.386   0.307   1.047
41510SOL     OW26368  14.760  11.621   9.749
41510SOL    HW126369  14.686  11.580   9.794
41510SOL    HW226370  14.800  11.549   9.700
41511SOL     OW26371   3.583   3.100  12.490
41511SOL    HW126372   3.607   3.090  12.398
41511SOL    HW226373   3.578   3.010  12.523
41512SOL     OW26374  13.012   3.698   4.900
41512SOL    HW126375  12.923   3.714   4.871
41512SOL    HW226376  13.008   3.617   4.950
41513SOL     OW26377   6.641   0.215  12.825
41513SOL    HW126378   6.612   0.295  12.869
41513SOL    HW226379   6.571   0.152  12.844
41514SOL     OW26380  11.952   3.933   6.231
41514SOL    HW126381  11.861   3.928   6.258
41514SOL    HW226382  11.960   3.869   6.161
41515SOL     OW26383   3.854   3.340   9.966
41515SOL    HW126384   3.897   3.384  10.039
41515SOL    HW226385   3.774   3.303  10.004
41516SOL     OW26386   9.736   9.989  12.203
41516SOL    HW126387   9.724  10.005  12.297
41516SOL    HW226388   9.690   9.907  12.186
41517SOL     OW26389   1.436   5.944   2.493
41517SOL    HW126390   1.436   5.968   2.400
41517SOL    HW226391   1.529   5.946   2.517
41518SOL     OW26392   2.719  14.333   4.718
41518SOL    HW126393   2.637  14.343   4.671
41518SOL    HW226394   2.786  14.332   4.649
41519SOL     OW26395   4.552   7.693   9.380
41519SOL    HW126396   4.627   7.716   9.326
41519SOL    HW226397   4.525   7.775   9.421
41520SOL     OW26398   1.357  10.474   0.598
41520SOL    HW126399   1.348  10.380   0.586
41520SOL    HW226400   1.361  10.486   0.692
41521SOL     OW26401  13.056   0.187   5.093
41521SOL    HW126402  13.015   0.249   5.153
41521SOL    HW226403  13.093   0.119   5.149
41522SOL     OW26404  14.492   8.710   7.323
41522SOL    HW126405  14.403   8.689   7.349
41522SOL    HW226406  14.520   8.778   7.384
41523SOL     OW26407   8.714   3.989   3.611
41523SOL    HW126408   8.788   4.022   3.660
41523SOL    HW226409   8.644   3.979   3.675
41524SOL     OW26410  12.537   0.810   3.890
41524SOL    HW126411  12.584   0.777   3.813
41524SOL    HW226412  12.445   0.796   3.870
41525SOL     OW26413   8.164   9.162  12.447
41525SOL    HW126414   8.103   9.088  12.444
41525SOL    HW226415   8.152   9.207  12.363
41526SOL     OW26416   2.432   9.680   4.421
41526SOL    HW126417   2.372   9.754   4.415
41526SOL    HW226418   2.452   9.672   4.514
41527SOL     OW26419   2.128   0.908   5.464
41527SOL    HW126420   2.212   0.921   5.419
41527SOL    HW226421   2.149   0.853   5.539
41528SOL     OW26422   3.205  14.458  12.006
41528SOL    HW126423   3.277  14.484  11.949
41528SOL    HW226424   3.215  14.513  12.084
41529SOL     OW26425   7.981  12.383  12.395
41529SOL    HW126426   7.900  12.346  12.360
41529SOL    HW226427   8.024  12.422  12.319
41530SOL     OW26428   0.461   1.827   7.752
41530SOL    HW126429   0.481   1.746   7.704
41530SOL    HW226430   0.433   1.888   7.685
41531SOL     OW26431  12.563   3.797  10.330
41531SOL    HW126432  12.656   3.805  10.352
41531SOL    HW226433  12.542   3.706  10.352
41532SOL     OW26434   0.436  10.036  11.508
41532SOL    HW126435   0.463   9.996  11.592
41532SOL    HW226436   0.518  10.064  11.468
41533SOL     OW26437   2.009   8.827  10.611
41533SOL    HW126438   1.940   8.853  10.549
41533SOL    HW226439   2.021   8.733  10.596
41534SOL     OW26440   8.478   1.201   4.013
41534SOL    HW126441   8.568   1.178   4.038
41534SOL    HW226442   8.461   1.150   3.935
41535SOL     OW26443  14.791   3.621  13.430
41535SOL    HW126444  14.745   3.690  13.382
41535SOL    HW226445  14.728   3.593  13.497
41536SOL     OW26446   2.418  13.687   6.041
41536SOL    HW126447   2.457  13.731   6.116
41536SOL    HW226448   2.361  13.620   6.080
41537SOL     OW26449   7.179  14.327  11.535
41537SOL    HW126450   7.114  14.256  11.529
41537SOL    HW226451   7.223  14.311  11.619
41538SOL     OW26452  14.280   5.417   3.477
41538SOL    HW126453  14.280   5.341   3.534
41538SOL    HW226454  14.288   5.492   3.536
41539SOL     OW26455   2.018   2.974   7.351
41539SOL    HW126456   2.069   2.902   7.389
41539SOL    HW226457   2.058   3.053   7.387
41540SOL     OW26458  10.322   6.386  13.464
41540SOL    HW126459  10.327   6.481  13.452
41540SOL    HW226460  10.413   6.356  13.456
41541SOL     OW26461   8.191   3.216   1.213
41541SOL    HW126462   8.269   3.270   1.219
41541SOL    HW226463   8.190   3.166   1.294
41542SOL     OW26464  14.053  12.069  12.995
41542SOL    HW126465  13.963  12.042  13.012
41542SOL    HW226466  14.057  12.159  13.029
41543SOL     OW26467   1.818   1.785   6.522
41543SOL    HW126468   1.853   1.798   6.434
41543SOL    HW226469   1.874   1.718   6.561
41544SOL     OW26470   4.612   1.325   1.547
41544SOL    HW126471   4.551   1.346   1.476
41544SOL    HW226472   4.561   1.270   1.606
41545SOL     OW26473   5.845  10.569   2.228
41545SOL    HW126474   5.794  10.493   2.199
41545SOL    HW226475   5.823  10.578   2.320
41546SOL     OW26476  14.849   1.415   0.513
41546SOL    HW126477  14.839   1.510   0.517
41546SOL    HW226478  14.760   1.380   0.516
41547SOL     OW26479  10.110   1.543  13.889
41547SOL    HW126480  10.142   1.574  13.974
41547SOL    HW226481  10.025   1.504  13.908
41548SOL     OW26482  14.004   8.126   1.114
41548SOL    HW126483  14.093   8.117   1.149
41548SOL    HW226484  13.997   8.218   1.089
41549SOL     OW26485   8.397   9.314   2.904
41549SOL    HW126486   8.472   9.270   2.945
41549SOL    HW226487   8.390   9.273   2.818
41550SOL     OW26488   4.882   0.045  13.503
41550SOL    HW126489   4.977   0.053  13.490
41550SOL    HW226490   4.847   0.130  13.478
41551SOL     OW26491   3.522   5.571   3.310
41551SOL    HW126492   3.473   5.625   3.372
41551SOL    HW226493   3.604   5.619   3.297
41552SOL     OW26494  13.789   4.695   4.702
41552SOL    HW126495  13.770   4.788   4.688
41552SOL    HW226496  13.743   4.650   4.630
41553SOL     OW26497  10.391   3.997   5.180
41553SOL    HW126498  10.373   4.059   5.251
41553SOL    HW226499  10.316   4.004   5.122
41554SOL     OW26500   2.167   8.117   6.283
41554SOL    HW126501   2.151   8.099   6.190
41554SOL    HW226502   2.149   8.210   6.293
41555SOL     OW26503  12.342  13.997  11.749
41555SOL    HW126504  12.380  13.913  11.775
41555SOL    HW226505  12.412  14.041  11.700
41556SOL     OW26506   4.977   1.354  13.417
41556SOL    HW126507   5.060   1.336  13.374
41556SOL    HW226508   4.963   1.278  13.474
41557SOL     OW26509   4.651  12.135  11.642
41557SOL    HW126510   4.600  12.077  11.586
41557SOL    HW226511   4.730  12.155  11.592
41558SOL     OW26512   3.494  14.386   6.347
41558SOL    HW126513   3.554  14.428   6.285
41558SOL    HW226514   3.407  14.406   6.313
41559SOL     OW26515   0.118   2.438   1.779
41559SOL    HW126516   0.102   2.471   1.867
41559SOL    HW226517   0.195   2.486   1.748
41560SOL     OW26518  11.543  12.015   7.698
41560SOL    HW126519  11.621  12.009   7.753
41560SOL    HW226520  11.483  12.072   7.747
41561SOL     OW26521   2.618  13.717   9.154
41561SOL    HW126522   2.659  13.785   9.207
41561SOL    HW226523   2.534  13.753   9.128
41562SOL     OW26524  10.966   9.571  11.810
41562SOL    HW126525  10.903   9.508  11.846
41562SOL    HW226526  10.917   9.619  11.744
41563SOL     OW26527  11.768   2.565   6.400
41563SOL    HW126528  11.738   2.629   6.335
41563SOL    HW226529  11.755   2.610   6.484
41564SOL     OW26530   1.905  11.461  14.402
41564SOL    HW126531   1.876  11.372  14.421
41564SOL    HW226532   1.970  11.481  14.470
41565SOL     OW26533   9.852   7.935   9.707
41565SOL    HW126534   9.813   7.941   9.621
41565SOL    HW226535   9.854   8.025   9.739
41566SOL     OW26536   2.110   7.598  12.418
41566SOL    HW126537   2.044   7.666  12.413
41566SOL    HW226538   2.122   7.582  12.512
41567SOL     OW26539   1.587   7.889   8.181
41567SOL    HW126540   1.556   7.957   8.121
41567SOL    HW226541   1.657   7.845   8.132
41568SOL     OW26542  13.546  14.290   8.144
41568SOL    HW126543  13.580  14.380   8.148
41568SOL    HW226544  13.610  14.238   8.193
41569SOL     OW26545  13.678   2.574   4.402
41569SOL    HW126546  13.751   2.513   4.393
41569SOL    HW226547  13.674   2.593   4.495
41570SOL     OW26548   6.006   4.661  14.284
41570SOL    HW126549   6.010   4.748  14.323
41570SOL    HW226550   6.093   4.624  14.301
41571SOL     OW26551   0.194   5.610   3.627
41571SOL    HW126552   0.128   5.639   3.689
41571SOL    HW226553   0.193   5.514   3.634
41572SOL     OW26554   7.557  10.225   2.046
41572SOL    HW126555   7.646  10.208   2.077
41572SOL    HW226556   7.563  10.225   1.951
41573SOL     OW26557   9.826  10.016  12.532
41573SOL    HW126558   9.767  10.088  12.512
41573SOL    HW226559   9.889  10.016  12.461
41574SOL     OW26560   4.049   4.572  14.711
41574SOL    HW126561   3.967   4.620  14.714
41574SOL    HW226562   4.048   4.527  14.626
41575SOL     OW26563   0.433  14.414   4.778
41575SOL    HW126564   0.361  14.404   4.840
41575SOL    HW226565   0.395  14.464   4.706
41576SOL     OW26566   8.621   5.871   7.274
41576SOL    HW126567   8.709   5.856   7.309
41576SOL    HW226568   8.615   5.813   7.198
41577SOL     OW26569   5.540   8.504   2.695
41577SOL    HW126570   5.568   8.588   2.731
41577SOL    HW226571   5.616   8.447   2.705
41578SOL     OW26572   1.539   7.921  12.408
41578SOL    HW126573   1.558   7.988  12.342
41578SOL    HW226574   1.579   7.954  12.488
41579SOL     OW26575   0.338  12.043   2.929
41579SOL    HW126576   0.381  11.978   2.874
41579SOL    HW226577   0.246  12.018   2.928
41580SOL     OW26578   4.451   7.540   1.629
41580SOL    HW126579   4.425   7.533   1.537
41580SOL    HW226580   4.506   7.463   1.643
41581SOL     OW26581   8.564   8.463   1.922
41581SOL    HW126582   8.565   8.400   1.994
41581SOL    HW226583   8.656   8.480   1.903
41582SOL     OW26584   0.820   7.358   3.460
41582SOL    HW126585   0.739   7.407   3.454
41582SOL    HW226586   0.879   7.414   3.511
41583SOL     OW26587  12.850   8.542  14.048
41583SOL    HW126588  12.901   8.543  13.966
41583SOL    HW226589  12.804   8.459  14.046
41584SOL     OW26590   5.342  11.662  13.168
41584SOL    HW126591   5.399  11.651  13.092
41584SOL    HW226592   5.374  11.598  13.232
41585SOL     OW26593  14.343   2.767   5.865
41585SOL    HW126594  14.252   2.743   5.880
41585SOL    HW226595  14.341   2.821   5.785
41586SOL     OW26596  14.058   0.381  14.147
41586SOL    HW126597  14.076   0.358  14.238
41586SOL    HW226598  13.970   0.348  14.131
41587SOL     OW26599   5.942   8.756  11.327
41587SOL    HW126600   5.973   8.721  11.410
41587SOL    HW226601   5.957   8.850  11.333
41588SOL     OW26602   6.883  10.336   2.384
41588SOL    HW126603   6.791  10.349   2.405
41588SOL    HW226604   6.883  10.306   2.293
41589SOL     OW26605   2.023   9.649   9.900
41589SOL    HW126606   2.029   9.636   9.805
41589SOL    HW226607   2.008   9.743   9.910
41590SOL     OW26608   1.538   9.609   1.664
41590SOL    HW126609   1.510   9.526   1.625
41590SOL    HW226610   1.616   9.586   1.714
41591SOL     OW26611   3.970   1.302   5.219
41591SOL    HW126612   4.059   1.300   5.186
41591SOL    HW226613   3.979   1.321   5.313
41592SOL     OW26614   0.190   1.522   3.248
41592SOL    HW126615   0.137   1.568   3.312
41592SOL    HW226616   0.277   1.563   3.255
41593SOL     OW26617   0.195   5.268   8.167
41593SOL    HW126618   0.177   5.183   8.126
41593SOL    HW226619   0.285   5.287   8.142
41594SOL     OW26620   7.283   7.654  12.765
41594SOL    HW126621   7.190   7.632  12.765
41594SOL    HW226622   7.327   7.578  12.727
41595SOL     OW26623   3.029  11.994   0.298
41595SOL    HW126624   3.048  12.080   0.260
41595SOL    HW226625   3.043  12.005   0.392
41596SOL     OW26626  14.050   8.329   8.368
41596SOL    HW126627  14.084   8.259   8.425
41596SOL    HW226628  13.959   8.339   8.397
41597SOL     OW26629   4.878  13.256   7.468
41597SOL    HW126630   4.923  13.280   7.549
41597SOL    HW226631   4.898  13.163   7.456
41598SOL     OW26632  10.821   7.938  11.120
41598SOL    HW126633  10.789   7.857  11.079
41598SOL    HW226634  10.745   7.996  11.120
41599SOL     OW26635   3.601   9.077   6.241
41599SOL    HW126636   3.584   9.028   6.160
41599SOL    HW226637   3.531   9.142   6.244
41600SOL     OW26638  13.311   2.773  13.232
41600SOL    HW126639  13.374   2.833  13.193
41600SOL    HW226640  13.357   2.736  13.308
41601SOL     OW26641  14.001  10.647   3.447
41601SOL    HW126642  13.997  10.733   3.406
41601SOL    HW226643  14.083  10.609   3.416
41602SOL     OW26644   2.122  10.830   6.408
41602SOL    HW126645   2.034  10.816   6.372
41602SOL    HW226646   2.137  10.924   6.399
41603SOL     OW26647   9.282   2.829   6.898
41603SOL    HW126648   9.251   2.777   6.824
41603SOL    HW226649   9.339   2.770   6.948
41604SOL     OW26650   3.116  12.519   1.035
41604SOL    HW126651   3.105  12.424   1.023
41604SOL    HW226652   3.075  12.537   1.120
41605SOL     OW26653  14.008   5.210   6.980
41605SOL    HW126654  13.999   5.121   7.015
41605SOL    HW226655  14.094   5.211   6.939
41606SOL     OW26656   2.396   1.650   8.211
41606SOL    HW126657   2.332   1.721   8.199
41606SOL    HW226658   2.352   1.589   8.270
41607SOL     OW26659  10.406   0.319   5.710
41607SOL    HW126660  10.419   0.259   5.783
41607SOL    HW226661  10.400   0.263   5.633
41608SOL     OW26662   3.504   2.931  11.597
41608SOL    HW126663   3.461   3.016  11.598
41608SOL    HW226664   3.581   2.941  11.653
41609SOL     OW26665  12.253   2.022   0.085
41609SOL    HW126666  12.342   1.988   0.077
41609SOL    HW226667  12.234   2.018   0.178
41610SOL     OW26668   4.231   7.830   2.177
41610SOL    HW126669   4.200   7.811   2.089
41610SOL    HW226670   4.291   7.758   2.198
41611SOL     OW26671  10.624   6.968   6.065
41611SOL    HW126672  10.710   7.003   6.087
41611SOL    HW226673  10.610   6.897   6.127
41612SOL     OW26674   7.410   4.545   5.285
41612SOL    HW126675   7.318   4.546   5.312
41612SOL    HW226676   7.457   4.583   5.360
41613SOL     OW26677  12.784   9.933   3.229
41613SOL    HW126678  12.783   9.995   3.157
41613SOL    HW226679  12.858   9.960   3.283
41614SOL     OW26680  14.696  10.093   2.807
41614SOL    HW126681  14.769  10.077   2.868
41614SOL    HW226682  14.734  10.147   2.738
41615SOL     OW26683  14.847  10.089   4.297
41615SOL    HW126684  14.872  10.024   4.363
41615SOL    HW226685  14.863  10.173   4.338
41616SOL     OW26686   9.138  10.531  10.139
41616SOL    HW126687   9.101  10.544  10.226
41616SOL    HW226688   9.184  10.613  10.120
41617SOL     OW26689   0.499   0.589   0.065
41617SOL    HW126690   0.510   0.526  14.873
41617SOL    HW226691   0.511   0.537   0.145
41618SOL     OW26692  14.580   9.949   6.085
41618SOL    HW126693  14.645  10.016   6.105
41618SOL    HW226694  14.626   9.866   6.100
41619SOL     OW26695   0.739   1.128   8.700
41619SOL    HW126696   0.711   1.213   8.735
41619SOL    HW226697   0.668   1.068   8.722
41620SOL     OW26698  10.695  13.927  13.989
41620SOL    HW126699  10.781  13.936  14.029
41620SOL    HW226700  10.634  13.948  14.060
41621SOL     OW26701   3.221  14.611  13.694
41621SOL    HW126702   3.225  14.520  13.726
41621SOL    HW226703   3.269  14.609  13.611
41622SOL     OW26704  13.181   9.519  11.002
41622SOL    HW126705  13.087   9.511  10.991
41622SOL    HW226706  13.192   9.561  11.088
41623SOL     OW26707  10.278  13.703   9.317
41623SOL    HW126708  10.196  13.719   9.270
41623SOL    HW226709  10.344  13.691   9.249
41624SOL     OW26710   7.400  12.238   4.063
41624SOL    HW126711   7.336  12.222   4.132
41624SOL    HW226712   7.473  12.283   4.106
41625SOL     OW26713   7.844   9.191   5.856
41625SOL    HW126714   7.782   9.169   5.925
41625SOL    HW226715   7.842   9.115   5.797
41626SOL     OW26716  10.859   0.849   5.982
41626SOL    HW126717  10.927   0.808   6.036
41626SOL    HW226718  10.814   0.909   6.042
41627SOL     OW26719   0.063   2.067   1.330
41627SOL    HW126720   0.133   2.119   1.371
41627SOL    HW226721  14.862   2.095   1.374
41628SOL     OW26722   4.504   8.019   4.470
41628SOL    HW126723   4.565   7.945   4.476
41628SOL    HW226724   4.446   7.996   4.398
41629SOL     OW26725  10.514  10.466  11.000
41629SOL    HW126726  10.589  10.411  11.019
41629SOL    HW226727  10.497  10.453  10.906
41630SOL     OW26728   2.754   0.660   2.212
41630SOL    HW126729   2.682   0.599   2.198
41630SOL    HW226730   2.713   0.734   2.259
41631SOL     OW26731   0.966   5.748  13.081
41631SOL    HW126732   0.940   5.702  13.001
41631SOL    HW226733   0.888   5.746  13.136
41632SOL     OW26734   8.817   1.004   5.314
41632SOL    HW126735   8.832   1.040   5.401
41632SOL    HW226736   8.750   0.937   5.328
41633SOL     OW26737  14.732   1.395  13.149
41633SOL    HW126738  14.786   1.321  13.177
41633SOL    HW226739  14.660   1.355  13.100
41634SOL     OW26740   3.565   7.635   0.736
41634SOL    HW126741   3.474   7.608   0.726
41634SOL    HW226742   3.562   7.730   0.738
41635SOL     OW26743  11.737   3.150   3.217
41635SOL    HW126744  11.648   3.179   3.238
41635SOL    HW226745  11.750   3.072   3.270
41636SOL     OW26746   2.759   6.392   7.811
41636SOL    HW126747   2.768   6.388   7.716
41636SOL    HW226748   2.741   6.485   7.830
41637SOL     OW26749  11.935  14.855  13.356
41637SOL    HW126750  11.880   0.027  13.415
41637SOL    HW226751  12.008  14.825  13.410
41638SOL     OW26752   9.647  10.501   0.343
41638SOL    HW126753   9.722  10.504   0.403
41638SOL    HW226754   9.591  10.574   0.370
41639SOL     OW26755   6.607  11.205  11.779
41639SOL    HW126756   6.659  11.125  11.787
41639SOL    HW226757   6.526  11.185  11.826
41640SOL     OW26758  10.487   1.784   0.128
41640SOL    HW126759  10.512   1.699   0.164
41640SOL    HW226760  10.526   1.848   0.188
41641SOL     OW26761   2.184   7.395  10.980
41641SOL    HW126762   2.130   7.352  10.913
41641SOL    HW226763   2.188   7.333  11.052
41642SOL     OW26764   1.484   0.904  13.277
41642SOL    HW126765   1.390   0.887  13.277
41642SOL    HW226766   1.504   0.931  13.366
41643SOL     OW26767   9.762   4.849   5.230
41643SOL    HW126768   9.692   4.897   5.186
41643SOL    HW226769   9.758   4.761   5.193
41644SOL     OW26770   5.423  13.486   0.699
41644SOL    HW126771   5.476  13.510   0.775
41644SOL    HW226772   5.352  13.433   0.736
41645SOL     OW26773  11.795  13.987  11.758
41645SOL    HW126774  11.877  14.032  11.772
41645SOL    HW226775  11.820  13.897  11.735
41646SOL     OW26776   5.991  12.310   3.352
41646SOL    HW126777   6.042  12.364   3.413
41646SOL    HW226778   6.056  12.254   3.309
41647SOL     OW26779   0.835   1.865  13.643
41647SOL    HW126780   0.892   1.789  13.651
41647SOL    HW226781   0.861   1.922  13.716
41648SOL     OW26782   9.453   3.800  14.219
41648SOL    HW126783   9.474   3.855  14.143
41648SOL    HW226784   9.406   3.858  14.279
41649SOL     OW26785   7.019  13.793   8.496
41649SOL    HW126786   6.989  13.882   8.517
41649SOL    HW226787   7.048  13.798   8.405
41650SOL     OW26788  11.281  14.751   7.232
41650SOL    HW126789  11.317  14.676   7.185
41650SOL    HW226790  11.357  14.792   7.274
41651SOL     OW26791  13.772   3.802   7.334
41651SOL    HW126792  13.739   3.744   7.266
41651SOL    HW226793  13.738   3.889   7.310
41652SOL     OW26794   3.292  11.081  13.214
41652SOL    HW126795   3.249  10.997  13.198
41652SOL    HW226796   3.269  11.135  13.138
41653SOL     OW26797  14.356  12.789   2.558
41653SOL    HW126798  14.425  12.727   2.535
41653SOL    HW226799  14.341  12.775   2.652
41654SOL     OW26800  14.262   4.745  12.362
41654SOL    HW126801  14.278   4.745  12.457
41654SOL    HW226802  14.326   4.683  12.327
41655SOL     OW26803  13.733   7.783   6.759
41655SOL    HW126804  13.784   7.713   6.718
41655SOL    HW226805  13.695   7.831   6.685
41656SOL     OW26806   8.081   2.509   6.249
41656SOL    HW126807   8.118   2.431   6.208
41656SOL    HW226808   7.987   2.494   6.249
41657SOL     OW26809   4.311   4.726   1.105
41657SOL    HW126810   4.227   4.685   1.125
41657SOL    HW226811   4.344   4.757   1.190
41658SOL     OW26812   3.149   0.782   2.563
41658SOL    HW126813   3.129   0.807   2.653
41658SOL    HW226814   3.241   0.757   2.564
41659SOL     OW26815   8.301   3.941   8.805
41659SOL    HW126816   8.247   3.865   8.823
41659SOL    HW226817   8.379   3.906   8.762
41660SOL     OW26818   2.352   4.703   4.713
41660SOL    HW126819   2.347   4.780   4.770
41660SOL    HW226820   2.322   4.630   4.768
41661SOL     OW26821   7.694   5.599  11.584
41661SOL    HW126822   7.686   5.523  11.526
41661SOL    HW226823   7.778   5.638  11.561
41662SOL     OW26824  11.488   7.627  10.390
41662SOL    HW126825  11.438   7.672  10.458
41662SOL    HW226826  11.567   7.680  10.379
41663SOL     OW26827   9.663   3.434   2.924
41663SOL    HW126828   9.571   3.447   2.944
41663SOL    HW226829   9.687   3.355   2.973
41664SOL     OW26830  12.762   5.385   6.522
41664SOL    HW126831  12.849   5.423   6.509
41664SOL    HW226832  12.703   5.442   6.473
41665SOL     OW26833  11.563   4.559  12.502
41665SOL    HW126834  11.582   4.640  12.550
41665SOL    HW226835  11.616   4.565  12.423
41666SOL     OW26836   5.896   5.215  14.795
41666SOL    HW126837   5.856   5.178  14.874
41666SOL    HW226838   5.905   5.308  14.814
41667SOL     OW26839  10.944   4.854  13.136
41667SOL    HW126840  10.849   4.856  13.127
41667SOL    HW226841  10.975   4.810  13.057
41668SOL     OW26842  10.517   2.058   3.929
41668SOL    HW126843  10.503   2.107   4.010
41668SOL    HW226844  10.450   1.990   3.930
41669SOL     OW26845   4.461   5.832   7.417
41669SOL    HW126846   4.472   5.922   7.450
41669SOL    HW226847   4.545   5.812   7.376
41670SOL     OW26848  11.265  13.043  12.180
41670SOL    HW126849  11.288  12.999  12.262
41670SOL    HW226850  11.192  13.101  12.205
41671SOL     OW26851   8.827   2.629  10.185
41671SOL    HW126852   8.904   2.625  10.242
41671SOL    HW226853   8.771   2.557  10.215
41672SOL     OW26854   1.722   5.013   8.996
41672SOL    HW126855   1.708   4.919   8.988
41672SOL    HW226856   1.725   5.029   9.090
41673SOL     OW26857   2.173   0.239   3.369
41673SOL    HW126858   2.119   0.249   3.291
41673SOL    HW226859   2.261   0.262   3.340
41674SOL     OW26860   8.696   2.950   9.026
41674SOL    HW126861   8.773   2.902   9.056
41674SOL    HW226862   8.684   3.018   9.092
41675SOL     OW26863   9.487   7.140  12.240
41675SOL    HW126864   9.474   7.111  12.150
41675SOL    HW226865   9.398   7.142  12.277
41676SOL     OW26866  14.417   3.494   0.296
41676SOL    HW126867  14.504   3.470   0.330
41676SOL    HW226868  14.399   3.429   0.228
41677SOL     OW26869  13.974   7.503   6.032
41677SOL    HW126870  13.989   7.409   6.035
41677SOL    HW226871  13.924   7.523   6.111
41678SOL     OW26872   6.587  10.616   6.790
41678SOL    HW126873   6.680  10.606   6.809
41678SOL    HW226874   6.543  10.565   6.858
41679SOL     OW26875   7.987  10.016   9.389
41679SOL    HW126876   8.079  10.040   9.397
41679SOL    HW226877   7.939  10.089   9.428
41680SOL     OW26878   6.941   8.793  14.565
41680SOL    HW126879   7.024   8.802  14.612
41680SOL    HW226880   6.940   8.868  14.505
41681SOL     OW26881   3.830   3.627   4.526
41681SOL    HW126882   3.917   3.667   4.529
41681SOL    HW226883   3.846   3.538   4.495
41682SOL     OW26884   2.808  11.124   0.846
41682SOL    HW126885   2.798  11.046   0.900
41682SOL    HW226886   2.788  11.095   0.757
41683SOL     OW26887  13.889  10.366   0.875
41683SOL    HW126888  13.799  10.341   0.898
41683SOL    HW226889  13.928  10.286   0.840
41684SOL     OW26890  11.458  10.966   9.413
41684SOL    HW126891  11.364  10.945   9.410
41684SOL    HW226892  11.480  10.965   9.506
41685SOL     OW26893   5.595  10.905   9.853
41685SOL    HW126894   5.567  10.969   9.788
41685SOL    HW226895   5.673  10.865   9.814
41686SOL     OW26896  10.762   5.020  10.664
41686SOL    HW126897  10.741   5.033  10.571
41686SOL    HW226898  10.824   5.090  10.684
41687SOL     OW26899  12.591   6.798  13.343
41687SOL    HW126900  12.622   6.715  13.307
41687SOL    HW226901  12.503   6.808  13.307
41688SOL     OW26902   1.626   4.456  11.441
41688SOL    HW126903   1.562   4.507  11.491
41688SOL    HW226904   1.672   4.521  11.388
41689SOL     OW26905   4.836  11.888  13.145
41689SOL    HW126906   4.880  11.972  13.134
41689SOL    HW226907   4.904  11.823  13.130
41690SOL     OW26908   7.945   9.039  11.181
41690SOL    HW126909   7.850   9.033  11.170
41690SOL    HW226910   7.963   9.133  11.177
41691SOL     OW26911   6.937   7.513   8.605
41691SOL    HW126912   6.890   7.483   8.527
41691SOL    HW226913   6.900   7.461   8.676
41692SOL     OW26914  11.750  13.591   9.429
41692SOL    HW126915  11.720  13.507   9.463
41692SOL    HW226916  11.680  13.620   9.371
41693SOL     OW26917   1.404   3.954   1.339
41693SOL    HW126918   1.465   4.020   1.372
41693SOL    HW226919   1.458   3.897   1.284
41694SOL     OW26920   2.986   9.918  10.013
41694SOL    HW126921   2.988   9.846  10.076
41694SOL    HW226922   2.918   9.976  10.046
41695SOL     OW26923   6.842   3.562   9.673
41695SOL    HW126924   6.906   3.619   9.630
41695SOL    HW226925   6.815   3.612   9.751
41696SOL     OW26926   2.554   6.878   7.836
41696SOL    HW126927   2.500   6.922   7.770
41696SOL    HW226928   2.597   6.949   7.883
41697SOL     OW26929   2.572  10.040   5.047
41697SOL    HW126930   2.588  10.054   4.953
41697SOL    HW226931   2.572  10.129   5.084
41698SOL     OW26932  13.198  10.372  11.163
41698SOL    HW126933  13.226  10.378  11.071
41698SOL    HW226934  13.246  10.442  11.207
41699SOL     OW26935   9.021  11.024   4.003
41699SOL    HW126936   9.004  11.110   4.041
41699SOL    HW226937   8.998  11.033   3.910
41700SOL     OW26938   6.537   0.375   2.636
41700SOL    HW126939   6.482   0.453   2.628
41700SOL    HW226940   6.512   0.336   2.720
41701SOL     OW26941  11.821   0.680  13.347
41701SOL    HW126942  11.823   0.673  13.443
41701SOL    HW226943  11.762   0.754  13.331
41702SOL     OW26944  10.741   7.890   1.330
41702SOL    HW126945  10.760   7.810   1.280
41702SOL    HW226946  10.828   7.926   1.350
41703SOL     OW26947   6.533   9.999   3.413
41703SOL    HW126948   6.567  10.009   3.324
41703SOL    HW226949   6.438   9.999   3.402
41704SOL     OW26950  11.810   5.715   2.179
41704SOL    HW126951  11.769   5.629   2.170
41704SOL    HW226952  11.742   5.777   2.152
41705SOL     OW26953   7.533   2.431   0.102
41705SOL    HW126954   7.594   2.411   0.173
41705SOL    HW226955   7.589   2.460   0.030
41706SOL     OW26956  11.753   0.714   5.243
41706SOL    HW126957  11.729   0.782   5.180
41706SOL    HW226958  11.842   0.737   5.271
41707SOL     OW26959  11.278   5.505   1.281
41707SOL    HW126960  11.269   5.539   1.370
41707SOL    HW226961  11.324   5.422   1.292
41708SOL     OW26962  14.513  10.867  13.075
41708SOL    HW126963  14.597  10.885  13.116
41708SOL    HW226964  14.532  10.864  12.982
41709SOL     OW26965   9.646   7.915  14.112
41709SOL    HW126966   9.610   7.834  14.146
41709SOL    HW226967   9.584   7.943  14.044
41710SOL     OW26968   8.383   4.977  10.853
41710SOL    HW126969   8.328   5.027  10.913
41710SOL    HW226970   8.461   4.956  10.904
41711SOL     OW26971  10.138   1.841   1.726
41711SOL    HW126972  10.224   1.859   1.765
41711SOL    HW226973  10.088   1.922   1.739
41712SOL     OW26974   6.145   3.876   7.513
41712SOL    HW126975   6.164   3.826   7.434
41712SOL    HW226976   6.228   3.880   7.561
41713SOL     OW26977   8.615   1.871   1.874
41713SOL    HW126978   8.633   1.873   1.780
41713SOL    HW226979   8.618   1.962   1.901
41714SOL     OW26980   6.519   7.562   0.304
41714SOL    HW126981   6.600   7.533   0.261
41714SOL    HW226982   6.449   7.525   0.250
41715SOL     OW26983  12.842   9.666   1.245
41715SOL    HW126984  12.857   9.581   1.204
41715SOL    HW226985  12.888   9.728   1.189
41716SOL     OW26986  11.323  11.178   0.356
41716SOL    HW126987  11.275  11.111   0.403
41716SOL    HW226988  11.402  11.192   0.408
41717SOL     OW26989  13.773   6.929  12.037
41717SOL    HW126990  13.802   6.925  12.128
41717SOL    HW226991  13.853   6.937  11.986
41718SOL     OW26992   6.055   6.184   9.485
41718SOL    HW126993   5.965   6.188   9.453
41718SOL    HW226994   6.094   6.109   9.440
41719SOL     OW26995  13.278   9.782  14.686
41719SOL    HW126996  13.329   9.775  14.767
41719SOL    HW226997  13.223   9.859  14.699
41720SOL     OW26998   4.721   8.220   1.167
41720SOL    HW126999   4.680   8.146   1.123
41720SOL    HW227000   4.687   8.216   1.257
41721SOL     OW27001   5.527   3.596   6.182
41721SOL    HW127002   5.573   3.668   6.140
41721SOL    HW227003   5.444   3.633   6.210
41722SOL     OW27004   4.814   7.789  11.586
41722SOL    HW127005   4.812   7.733  11.664
41722SOL    HW227006   4.766   7.867  11.612
41723SOL     OW27007   0.139   1.913  11.297
41723SOL    HW127008   0.188   1.842  11.337
41723SOL    HW227009   0.100   1.960  11.371
41724SOL     OW27010   1.428   2.680  11.425
41724SOL    HW127011   1.397   2.655  11.512
41724SOL    HW227012   1.470   2.601  11.391
41725SOL     OW27013   1.519   4.898  11.018
41725SOL    HW127014   1.589   4.855  10.968
41725SOL    HW227015   1.555   4.985  11.039
41726SOL     OW27016  12.533   5.546   9.842
41726SOL    HW127017  12.468   5.512   9.904
41726SOL    HW227018  12.596   5.592   9.897
41727SOL     OW27019   2.909   6.666  14.385
41727SOL    HW127020   2.864   6.583  14.372
41727SOL    HW227021   2.932   6.695  14.297
41728SOL     OW27022   6.984   1.622  10.712
41728SOL    HW127023   6.941   1.640  10.796
41728SOL    HW227024   7.077   1.634  10.730
41729SOL     OW27025   7.908   1.965   3.581
41729SOL    HW127026   7.957   1.896   3.626
41729SOL    HW227027   7.817   1.948   3.603
41730SOL     OW27028  11.926   9.686  13.011
41730SOL    HW127029  12.009   9.686  13.060
41730SOL    HW227030  11.929   9.607  12.958
41731SOL     OW27031  13.342   2.043   4.247
41731SOL    HW127032  13.300   1.998   4.320
41731SOL    HW227033  13.427   2.072   4.281
41732SOL     OW27034   7.743   3.508   3.906
41732SOL    HW127035   7.686   3.582   3.885
41732SOL    HW227036   7.714   3.438   3.846
41733SOL     OW27037   6.705   0.708  14.388
41733SOL    HW127038   6.730   0.798  14.408
41733SOL    HW227039   6.703   0.705  14.292
41734SOL     OW27040  12.416  12.747  10.277
41734SOL    HW127041  12.359  12.716  10.207
41734SOL    HW227042  12.383  12.834  10.299
41735SOL     OW27043  12.162   7.619   3.978
41735SOL    HW127044  12.189   7.710   3.988
41735SOL    HW227045  12.153   7.586   4.067
41736SOL     OW27046  14.744   4.965  11.652
41736SOL    HW127047  14.768   5.049  11.613
41736SOL    HW227048  14.815   4.906  11.625
41737SOL     OW27049   0.176  11.947  12.609
41737SOL    HW127050   0.137  11.869  12.569
41737SOL    HW227051   0.230  11.913  12.680
41738SOL     OW27052   2.358   7.306   6.681
41738SOL    HW127053   2.432   7.366   6.683
41738SOL    HW227054   2.353   7.272   6.771
41739SOL     OW27055   9.106  10.287   0.491
41739SOL    HW127056   9.134  10.376   0.514
41739SOL    HW227057   9.124  10.280   0.397
41740SOL     OW27058   3.519   4.785  14.448
41740SOL    HW127059   3.580   4.797  14.376
41740SOL    HW227060   3.531   4.693  14.475
41741SOL     OW27061   7.165   4.231  12.913
41741SOL    HW127062   7.080   4.266  12.887
41741SOL    HW227063   7.223   4.252  12.840
41742SOL     OW27064   6.811   4.214   6.771
41742SOL    HW127065   6.733   4.186   6.819
41742SOL    HW227066   6.787   4.205   6.679
41743SOL     OW27067  10.955  10.438  10.358
41743SOL    HW127068  10.885  10.493  10.392
41743SOL    HW227069  11.032  10.462  10.411
41744SOL     OW27070  13.848   4.217   0.182
41744SOL    HW127071  13.901   4.149   0.224
41744SOL    HW227072  13.775   4.170   0.142
41745SOL     OW27073  11.057   5.793   0.699
41745SOL    HW127074  11.022   5.799   0.610
41745SOL    HW227075  11.147   5.763   0.688
41746SOL     OW27076   1.167  14.416   6.178
41746SOL    HW127077   1.261  14.406   6.188
41746SOL    HW227078   1.132  14.400   6.266
41747SOL     OW27079   4.806   3.107   3.786
41747SOL    HW127080   4.796   3.160   3.707
41747SOL    HW227081   4.897   3.078   3.784
41748SOL     OW27082   3.633   8.220  10.664
41748SOL    HW127083   3.547   8.207  10.704
41748SOL    HW227084   3.694   8.179  10.725
41749SOL     OW27085   3.095  12.736   3.843
41749SOL    HW127086   3.043  12.657   3.832
41749SOL    HW227087   3.182  12.704   3.867
41750SOL     OW27088   6.226   8.070   9.828
41750SOL    HW127089   6.280   8.144   9.799
41750SOL    HW227090   6.233   8.071   9.924
41751SOL     OW27091   7.780   2.607   1.868
41751SOL    HW127092   7.691   2.630   1.841
41751SOL    HW227093   7.790   2.515   1.844
41752SOL     OW27094  14.109   5.346   4.912
41752SOL    HW127095  14.176   5.312   4.973
41752SOL    HW227096  14.065   5.267   4.880
41753SOL     OW27097  11.544  12.883  10.458
41753SOL    HW127098  11.596  12.833  10.521
41753SOL    HW227099  11.464  12.832  10.448
41754SOL     OW27100   7.749  12.809   9.095
41754SOL    HW127101   7.792  12.770   9.171
41754SOL    HW227102   7.776  12.900   9.096
41755SOL     OW27103  13.798  14.569   8.916
41755SOL    HW127104  13.822  14.533   9.001
41755SOL    HW227105  13.755  14.497   8.870
41756SOL     OW27106  14.382  13.771   1.111
41756SOL    HW127107  14.462  13.797   1.065
41756SOL    HW227108  14.391  13.808   1.198
41757SOL     OW27109  11.976   9.682   7.564
41757SOL    HW127110  12.046   9.620   7.543
41757SOL    HW227111  12.017   9.768   7.558
41758SOL     OW27112   4.075  12.732   8.220
41758SOL    HW127113   4.165  12.753   8.243
41758SOL    HW227114   4.080  12.649   8.172
41759SOL     OW27115   1.550  14.436   8.703
41759SOL    HW127116   1.484  14.415   8.636
41759SOL    HW227117   1.631  14.396   8.671
41760SOL     OW27118  14.627   0.653   1.673
41760SOL    HW127119  14.648   0.578   1.617
41760SOL    HW227120  14.648   0.622   1.762
41761SOL     OW27121   4.584   5.698  10.531
41761SOL    HW127122   4.508   5.722  10.584
41761SOL    HW227123   4.547   5.677  10.445
41762SOL     OW27124  10.244  11.400  10.077
41762SOL    HW127125  10.230  11.326  10.136
41762SOL    HW227126  10.331  11.433  10.100
41763SOL     OW27127   3.756  10.602  12.363
41763SOL    HW127128   3.781  10.577  12.452
41763SOL    HW227129   3.662  10.620  12.369
41764SOL     OW27130  14.641   1.685   4.196
41764SOL    HW127131  14.706   1.743   4.158
41764SOL    HW227132  14.590   1.653   4.122
41765SOL     OW27133   9.150  10.969  12.798
41765SOL    HW127134   9.210  11.044  12.799
41765SOL    HW227135   9.117  10.966  12.708
41766SOL     OW27136   3.677  13.994  13.280
41766SOL    HW127137   3.610  13.930  13.256
41766SOL    HW227138   3.741  13.943  13.331
41767SOL     OW27139  13.275  12.160   2.973
41767SOL    HW127140  13.328  12.101   3.026
41767SOL    HW227141  13.193  12.170   3.023
41768SOL     OW27142   7.578   0.546  13.734
41768SOL    HW127143   7.531   0.489  13.673
41768SOL    HW227144   7.591   0.491  13.812
41769SOL     OW27145   8.980   7.512   0.496
41769SOL    HW127146   8.945   7.514   0.407
41769SOL    HW227147   8.917   7.459   0.546
41770SOL     OW27148   3.404   9.997  10.850
41770SOL    HW127149   3.465   9.929  10.819
41770SOL    HW227150   3.336   9.999  10.782
41771SOL     OW27151  11.734   6.466  11.990
41771SOL    HW127152  11.718   6.546  11.939
41771SOL    HW227153  11.797   6.417  11.938
41772SOL     OW27154   4.787  13.488  13.742
41772SOL    HW127155   4.839  13.568  13.738
41772SOL    HW227156   4.760  13.472  13.651
41773SOL     OW27157   7.415   1.092   6.981
41773SOL    HW127158   7.335   1.109   6.931
41773SOL    HW227159   7.386   1.077   7.070
41774SOL     OW27160  14.459  11.773   9.922
41774SOL    HW127161  14.466  11.694   9.868
41774SOL    HW227162  14.544  11.816   9.912
41775SOL     OW27163  11.151  10.320   4.505
41775SOL    HW127164  11.143  10.415   4.495
41775SOL    HW227165  11.063  10.290   4.525
41776SOL     OW27166  11.749  12.749  10.308
41776SOL    HW127167  11.840  12.770  10.329
41776SOL    HW227168  11.698  12.820  10.347
41777SOL     OW27169   3.977   0.511   7.491
41777SOL    HW127170   3.939   0.508   7.403
41777SOL    HW227171   4.019   0.426   7.501
41778SOL     OW27172   4.207   5.750   0.205
41778SOL    HW127173   4.113   5.752   0.222
41778SOL    HW227174   4.238   5.837   0.230
41779SOL     OW27175   4.839   6.689   9.968
41779SOL    HW127176   4.862   6.749  10.039
41779SOL    HW227177   4.803   6.612  10.012
41780SOL     OW27178  12.652   8.353  13.998
41780SOL    HW127179  12.631   8.333  14.090
41780SOL    HW227180  12.594   8.295  13.948
41781SOL     OW27181   0.755   8.691  11.665
41781SOL    HW127182   0.829   8.640  11.698
41781SOL    HW227183   0.707   8.631  11.608
41782SOL     OW27184   3.626   9.946   1.391
41782SOL    HW127185   3.583  10.017   1.439
41782SOL    HW227186   3.689   9.991   1.334
41783SOL     OW27187   5.663   6.298   4.655
41783SOL    HW127188   5.569   6.283   4.663
41783SOL    HW227189   5.689   6.250   4.576
41784SOL     OW27190   4.172   5.362  13.976
41784SOL    HW127191   4.165   5.440  13.921
41784SOL    HW227192   4.259   5.326  13.956
41785SOL     OW27193  11.569   3.819  12.072
41785SOL    HW127194  11.606   3.904  12.047
41785SOL    HW227195  11.641   3.757  12.060
41786SOL     OW27196  10.349   3.275   0.385
41786SOL    HW127197  10.395   3.309   0.462
41786SOL    HW227198  10.257   3.293   0.402
41787SOL     OW27199   6.329   1.969   5.507
41787SOL    HW127200   6.302   2.041   5.450
41787SOL    HW227201   6.247   1.933   5.541
41788SOL     OW27202  13.723  14.248   1.197
41788SOL    HW127203  13.644  14.209   1.234
41788SOL    HW227204  13.772  14.280   1.272
41789SOL     OW27205   9.686   9.573  12.685
41789SOL    HW127206   9.653   9.605  12.600
41789SOL    HW227207   9.781   9.572  12.675
41790SOL     OW27208   0.744   9.022   3.754
41790SOL    HW127209   0.839   9.011   3.750
41790SOL    HW227210   0.711   8.977   3.676
41791SOL     OW27211   2.926   9.674   0.393
41791SOL    HW127212   2.848   9.637   0.352
41791SOL    HW227213   2.924   9.640   0.483
41792SOL     OW27214   9.192   6.728   7.590
41792SOL    HW127215   9.244   6.804   7.565
41792SOL    HW227216   9.170   6.743   7.682
41793SOL     OW27217  12.536   9.723   9.687
41793SOL    HW127218  12.443   9.706   9.705
41793SOL    HW227219  12.537   9.812   9.652
41794SOL     OW27220   3.891   9.431   0.035
41794SOL    HW127221   3.955   9.502   0.046
41794SOL    HW227222   3.903   9.401  14.824
41795SOL     OW27223   5.131  13.521   8.372
41795SOL    HW127224   5.128  13.498   8.279
41795SOL    HW227225   5.137  13.616   8.374
41796SOL     OW27226   1.336  14.239   2.085
41796SOL    HW127227   1.303  14.157   2.122
41796SOL    HW227228   1.261  14.298   2.086
41797SOL     OW27229   6.612   1.148   2.251
41797SOL    HW127230   6.693   1.106   2.221
41797SOL    HW227231   6.593   1.104   2.334
41798SOL     OW27232   9.646   4.168   0.482
41798SOL    HW127233   9.673   4.223   0.408
41798SOL    HW227234   9.555   4.194   0.499
41799SOL     OW27235  13.788  13.847   1.313
41799SOL    HW127236  13.839  13.826   1.236
41799SOL    HW227237  13.832  13.923   1.351
41800SOL     OW27238  13.801   4.822   7.596
41800SOL    HW127239  13.733   4.783   7.649
41800SOL    HW227240  13.832   4.897   7.647
41801SOL     OW27241   6.800  13.579   8.502
41801SOL    HW127242   6.853  13.656   8.481
41801SOL    HW227243   6.723  13.614   8.547
41802SOL     OW27244  11.796   6.617   3.892
41802SOL    HW127245  11.785   6.563   3.970
41802SOL    HW227246  11.748   6.570   3.823
41803SOL     OW27247   9.712   5.104  14.232
41803SOL    HW127248   9.799   5.067  14.248
41803SOL    HW227249   9.727   5.198  14.226
41804SOL     OW27250  11.810   2.024  12.655
41804SOL    HW127251  11.878   2.012  12.589
41804SOL    HW227252  11.827   2.111  12.691
41805SOL     OW27253   2.460  13.430   7.334
41805SOL    HW127254   2.551  13.400   7.337
41805SOL    HW227255   2.456  13.503   7.396
41806SOL     OW27256   3.546   9.939  13.867
41806SOL    HW127257   3.470   9.979  13.826
41806SOL    HW227258   3.539   9.962  13.959
41807SOL     OW27259  13.370   2.264   2.173
41807SOL    HW127260  13.436   2.299   2.114
41807SOL    HW227261  13.418   2.204   2.231
41808SOL     OW27262   5.224   9.755   0.520
41808SOL    HW127263   5.310   9.736   0.482
41808SOL    HW227264   5.198   9.673   0.562
41809SOL     OW27265  13.788  10.711   9.747
41809SOL    HW127266  13.782  10.629   9.796
41809SOL    HW227267  13.721  10.702   9.679
41810SOL     OW27268   9.537   0.230   9.357
41810SOL    HW127269   9.587   0.309   9.379
41810SOL    HW227270   9.591   0.158   9.391
41811SOL     OW27271   3.479  12.848   4.383
41811SOL    HW127272   3.459  12.775   4.442
41811SOL    HW227273   3.449  12.817   4.297
41812SOL     OW27274   2.105   7.584   6.689
41812SOL    HW127275   2.184   7.634   6.670
41812SOL    HW227276   2.121   7.498   6.651
41813SOL     OW27277   6.628   8.817   4.558
41813SOL    HW127278   6.712   8.805   4.603
41813SOL    HW227279   6.652   8.842   4.469
41814SOL     OW27280   7.006   5.426   2.119
41814SOL    HW127281   6.921   5.457   2.088
41814SOL    HW227282   7.047   5.387   2.041
41815SOL     OW27283   1.448   3.735   0.083
41815SOL    HW127284   1.427   3.813   0.134
41815SOL    HW227285   1.518   3.763   0.024
41816SOL     OW27286   6.604   5.032   0.227
41816SOL    HW127287   6.658   4.974   0.174
41816SOL    HW227288   6.639   5.120   0.209
41817SOL     OW27289   5.618   8.254   1.119
41817SOL    HW127290   5.593   8.227   1.207
41817SOL    HW227291   5.544   8.307   1.089
41818SOL     OW27292   4.334  14.646   4.494
41818SOL    HW127293   4.268  14.702   4.534
41818SOL    HW227294   4.286  14.595   4.429
41819SOL     OW27295   9.954   4.032   2.762
41819SOL    HW127296   9.996   3.973   2.700
41819SOL    HW227297   9.995   4.010   2.846
41820SOL     OW27298   7.557   2.057   6.624
41820SOL    HW127299   7.636   2.014   6.658
41820SOL    HW227300   7.514   2.092   6.703
41821SOL     OW27301   6.965   0.443   0.834
41821SOL    HW127302   6.877   0.481   0.826
41821SOL    HW227303   6.951   0.362   0.883
41822SOL     OW27304   4.703  10.760  11.208
41822SOL    HW127305   4.668  10.825  11.269
41822SOL    HW227306   4.690  10.799  11.122
41823SOL     OW27307  14.093  11.499   3.766
41823SOL    HW127308  14.044  11.418   3.752
41823SOL    HW227309  14.028  11.568   3.758
41824SOL     OW27310  14.014   5.283  14.358
41824SOL    HW127311  14.066   5.219  14.406
41824SOL    HW227312  14.070   5.361  14.354
41825SOL     OW27313   9.670   9.209   9.619
41825SOL    HW127314   9.734   9.218   9.549
41825SOL    HW227315   9.694   9.278   9.681
41826SOL     OW27316  10.295   2.222   8.960
41826SOL    HW127317  10.374   2.224   9.013
41826SOL    HW227318  10.307   2.147   8.902
41827SOL     OW27319  13.926   2.387   9.794
41827SOL    HW127320  13.861   2.453   9.770
41827SOL    HW227321  13.988   2.387   9.721
41828SOL     OW27322   3.734   2.953   9.319
41828SOL    HW127323   3.823   2.986   9.331
41828SOL    HW227324   3.678   3.022   9.355
41829SOL     OW27325   3.236  13.066   1.761
41829SOL    HW127326   3.306  13.112   1.808
41829SOL    HW227327   3.163  13.067   1.823
41830SOL     OW27328   9.476   4.973   7.118
41830SOL    HW127329   9.554   4.973   7.063
41830SOL    HW227330   9.408   5.012   7.063
41831SOL     OW27331   7.521   3.694   2.413
41831SOL    HW127332   7.501   3.632   2.484
41831SOL    HW227333   7.610   3.672   2.386
41832SOL     OW27334   2.201   8.665  11.356
41832SOL    HW127335   2.294   8.689  11.357
41832SOL    HW227336   2.183   8.645  11.264
41833SOL     OW27337  14.537   1.219   7.199
41833SOL    HW127338  14.515   1.127   7.207
41833SOL    HW227339  14.533   1.253   7.288
41834SOL     OW27340   5.622   0.994   0.405
41834SOL    HW127341   5.623   1.087   0.386
41834SOL    HW227342   5.713   0.966   0.394
41835SOL     OW27343   6.380   7.033   2.207
41835SOL    HW127344   6.368   7.064   2.118
41835SOL    HW227345   6.448   7.090   2.244
41836SOL     OW27346  12.941  14.136   0.361
41836SOL    HW127347  12.873  14.072   0.338
41836SOL    HW227348  12.949  14.130   0.456
41837SOL     OW27349  11.213   2.676   4.689
41837SOL    HW127350  11.131   2.640   4.653
41837SOL    HW227351  11.281   2.642   4.631
41838SOL     OW27352   4.043   6.599   3.956
41838SOL    HW127353   4.070   6.630   4.043
41838SOL    HW227354   4.049   6.677   3.900
41839SOL     OW27355   6.814  14.419   1.665
41839SOL    HW127356   6.815  14.350   1.731
41839SOL    HW227357   6.784  14.377   1.585
41840SOL     OW27358  14.877   7.420  10.105
41840SOL    HW127359  14.806   7.462  10.153
41840SOL    HW227360  14.865   7.450  10.014
41841SOL     OW27361   9.461  11.663  13.326
41841SOL    HW127362   9.381  11.651  13.276
41841SOL    HW227363   9.497  11.574  13.334
41842SOL     OW27364   0.971   0.453   5.145
41842SOL    HW127365   1.037   0.505   5.100
41842SOL    HW227366   0.902   0.515   5.168
41843SOL     OW27367   8.617   0.901   2.187
41843SOL    HW127368   8.535   0.900   2.137
41843SOL    HW227369   8.631   0.993   2.208
41844SOL     OW27370  10.806  11.825   1.422
41844SOL    HW127371  10.892  11.784   1.413
41844SOL    HW227372  10.817  11.912   1.383
41845SOL     OW27373  10.898   5.683  12.702
41845SOL    HW127374  10.905   5.617  12.634
41845SOL    HW227375  10.849   5.755  12.662
41846SOL     OW27376   1.430   9.120  10.402
41846SOL    HW127377   1.509   9.152  10.446
41846SOL    HW227378   1.406   9.041  10.450
41847SOL     OW27379   5.098   4.219  14.674
41847SOL    HW127380   5.089   4.315  14.676
41847SOL    HW227381   5.189   4.203  14.699
41848SOL     OW27382   7.070   4.594   2.333
41848SOL    HW127383   7.053   4.509   2.375
41848SOL    HW227384   6.998   4.650   2.362
41849SOL     OW27385   3.945   7.930   2.115
41849SOL    HW127386   4.011   7.900   2.177
41849SOL    HW227387   3.926   7.854   2.061
41850SOL     OW27388   8.100   2.152   3.605
41850SOL    HW127389   8.155   2.181   3.532
41850SOL    HW227390   8.059   2.071   3.574
41851SOL     OW27391   9.915   6.754   4.594
41851SOL    HW127392   9.882   6.689   4.532
41851SOL    HW227393   9.928   6.833   4.541
41852SOL     OW27394   3.770   8.296   4.158
41852SOL    HW127395   3.858   8.321   4.185
41852SOL    HW227396   3.780   8.210   4.118
41853SOL     OW27397   2.278  13.394   9.089
41853SOL    HW127398   2.262  13.486   9.071
41853SOL    HW227399   2.201  13.349   9.054
41854SOL     OW27400  10.279   1.398   0.126
41854SOL    HW127401  10.276   1.442   0.211
41854SOL    HW227402  10.264   1.468   0.062
41855SOL     OW27403   1.589   3.207   7.561
41855SOL    HW127404   1.504   3.236   7.527
41855SOL    HW227405   1.653   3.239   7.497
41856SOL     OW27406  13.618   2.706   9.399
41856SOL    HW127407  13.543   2.742   9.352
41856SOL    HW227408  13.693   2.725   9.343
41857SOL     OW27409   8.312   9.039  10.700
41857SOL    HW127410   8.305   9.127  10.736
41857SOL    HW227411   8.323   9.053  10.606
41858SOL     OW27412  12.551   8.817   8.475
41858SOL    HW127413  12.489   8.814   8.402
41858SOL    HW227414  12.522   8.748   8.534
41859SOL     OW27415  13.728   7.774   4.185
41859SOL    HW127416  13.681   7.822   4.253
41859SOL    HW227417  13.817   7.766   4.218
41860SOL     OW27418  14.089  13.604   8.619
41860SOL    HW127419  14.149  13.678   8.631
41860SOL    HW227420  14.038  13.602   8.700
41861SOL     OW27421   2.775  14.590  14.334
41861SOL    HW127422   2.811  14.640  14.407
41861SOL    HW227423   2.704  14.645  14.300
41862SOL     OW27424   4.738   6.881   4.775
41862SOL    HW127425   4.817   6.827   4.773
41862SOL    HW227426   4.769   6.968   4.803
41863SOL     OW27427  14.218  14.003   2.846
41863SOL    HW127428  14.233  14.093   2.876
41863SOL    HW227429  14.155  14.013   2.774
41864SOL     OW27430   7.001  14.837   9.107
41864SOL    HW127431   6.920  14.878   9.137
41864SOL    HW227432   6.981  14.743   9.103
41865SOL     OW27433   0.232   5.011   9.406
41865SOL    HW127434   0.325   5.016   9.387
41865SOL    HW227435   0.205   5.101   9.423
41866SOL     OW27436   8.235  11.382   3.677
41866SOL    HW127437   8.319  11.390   3.721
41866SOL    HW227438   8.176  11.438   3.728
41867SOL     OW27439   4.564   3.324   4.804
41867SOL    HW127440   4.588   3.338   4.895
41867SOL    HW227441   4.612   3.391   4.756
41868SOL     OW27442   8.806   6.058   6.512
41868SOL    HW127443   8.770   6.063   6.423
41868SOL    HW227444   8.755   6.121   6.562
41869SOL     OW27445   5.167   1.805   2.047
41869SOL    HW127446   5.229   1.733   2.044
41869SOL    HW227447   5.156   1.823   2.141
41870SOL     OW27448  14.563  13.135   2.776
41870SOL    HW127449  14.538  13.083   2.699
41870SOL    HW227450  14.610  13.210   2.740
41871SOL     OW27451  11.322   5.079  10.865
41871SOL    HW127452  11.295   5.167  10.839
41871SOL    HW227453  11.403   5.064  10.816
41872SOL     OW27454   2.124   7.228   0.917
41872SOL    HW127455   2.118   7.237   0.822
41872SOL    HW227456   2.043   7.182   0.941
41873SOL     OW27457   5.486   6.920  10.484
41873SOL    HW127458   5.437   6.839  10.467
41873SOL    HW227459   5.529   6.940  10.401
41874SOL     OW27460  10.107   8.790  13.438
41874SOL    HW127461  10.152   8.842  13.504
41874SOL    HW227462  10.131   8.830  13.355
41875SOL     OW27463   8.366   7.090   3.285
41875SOL    HW127464   8.403   7.116   3.201
41875SOL    HW227465   8.415   7.141   3.350
41876SOL     OW27466   6.147   2.997  11.256
41876SOL    HW127467   6.240   3.017  11.261
41876SOL    HW227468   6.115   3.007  11.346
41877SOL     OW27469  10.783  12.258  10.535
41877SOL    HW127470  10.831  12.308  10.600
41877SOL    HW227471  10.775  12.317  10.460
41878SOL     OW27472   0.286   7.487   7.791
41878SOL    HW127473   0.302   7.476   7.885
41878SOL    HW227474   0.205   7.538   7.787
41879SOL     OW27475   6.823   0.498   8.020
41879SOL    HW127476   6.757   0.568   8.016
41879SOL    HW227477   6.842   0.489   8.113
41880SOL     OW27478  10.759  11.218   3.705
41880SOL    HW127479  10.808  11.178   3.633
41880SOL    HW227480  10.669  11.188   3.692
41881SOL     OW27481   9.098  12.860   8.790
41881SOL    HW127482   9.028  12.899   8.842
41881SOL    HW227483   9.107  12.771   8.826
41882SOL     OW27484   5.179  12.078   1.971
41882SOL    HW127485   5.169  11.994   2.015
41882SOL    HW227486   5.140  12.064   1.885
41883SOL     OW27487   0.213   5.970  12.225
41883SOL    HW127488   0.134   6.020  12.206
41883SOL    HW227489   0.235   5.992  12.316
41884SOL     OW27490  12.158   0.996   7.858
41884SOL    HW127491  12.159   1.047   7.939
41884SOL    HW227492  12.141   0.906   7.888
41885SOL     OW27493  12.849   3.771  10.363
41885SOL    HW127494  12.864   3.679  10.340
41885SOL    HW227495  12.903   3.785  10.441
41886SOL     OW27496   3.994  14.762   9.050
41886SOL    HW127497   3.906  14.742   9.021
41886SOL    HW227498   4.045  14.683   9.030
41887SOL     OW27499  12.213   9.804   5.160
41887SOL    HW127500  12.308   9.793   5.165
41887SOL    HW227501  12.196   9.888   5.202
41888SOL     OW27502   0.708   3.022   3.149
41888SOL    HW127503   0.723   2.930   3.172
41888SOL    HW227504   0.717   3.069   3.232
41889SOL     OW27505  13.568   1.030   0.429
41889SOL    HW127506  13.529   1.109   0.467
41889SOL    HW227507  13.531   0.958   0.480
41890SOL     OW27508  13.268   3.722   1.030
41890SOL    HW127509  13.333   3.664   0.990
41890SOL    HW227510  13.224   3.667   1.096
41891SOL     OW27511   0.930   3.828   4.415
41891SOL    HW127512   0.912   3.734   4.416
41891SOL    HW227513   0.856   3.866   4.368
41892SOL     OW27514   2.946   8.466   1.756
41892SOL    HW127515   2.930   8.448   1.848
41892SOL    HW227516   2.883   8.534   1.733
41893SOL     OW27517   7.395   6.251   7.121
41893SOL    HW127518   7.432   6.170   7.086
41893SOL    HW227519   7.303   6.248   7.097
41894SOL     OW27520   6.172   8.911  10.658
41894SOL    HW127521   6.236   8.886  10.725
41894SOL    HW227522   6.146   9.000  10.682
41895SOL     OW27523   7.706  10.264   7.661
41895SOL    HW127524   7.739  10.354   7.668
41895SOL    HW227525   7.622  10.272   7.616
41896SOL     OW27526   7.067  14.849   7.796
41896SOL    HW127527   7.104  14.795   7.727
41896SOL    HW227528   7.045   0.052   7.752
41897SOL     OW27529  13.454  13.859   5.921
41897SOL    HW127530  13.442  13.901   5.836
41897SOL    HW227531  13.388  13.790   5.923
41898SOL     OW27532   8.669   2.187   8.468
41898SOL    HW127533   8.722   2.243   8.526
41898SOL    HW227534   8.705   2.203   8.381
41899SOL     OW27535   8.878  12.272   4.724
41899SOL    HW127536   8.789  12.306   4.711
41899SOL    HW227537   8.873  12.181   4.697
41900SOL     OW27538  13.160   0.990   3.807
41900SOL    HW127539  13.188   1.039   3.885
41900SOL    HW227540  13.067   1.012   3.797
41901SOL     OW27541  11.055  11.863   8.624
41901SOL    HW127542  11.048  11.949   8.581
41901SOL    HW227543  10.976  11.856   8.677
41902SOL     OW27544   6.570  12.430   9.484
41902SOL    HW127545   6.518  12.507   9.509
41902SOL    HW227546   6.657  12.447   9.518
41903SOL     OW27547   0.296   8.308   6.494
41903SOL    HW127548   0.213   8.285   6.453
41903SOL    HW227549   0.279   8.300   6.588
41904SOL     OW27550   8.460   1.128   1.660
41904SOL    HW127551   8.433   1.087   1.578
41904SOL    HW227552   8.554   1.112   1.665
41905SOL     OW27553  14.075   7.599   2.391
41905SOL    HW127554  14.112   7.512   2.384
41905SOL    HW227555  14.112   7.635   2.472
41906SOL     OW27556   0.905  12.757   7.045
41906SOL    HW127557   0.910  12.850   7.023
41906SOL    HW227558   0.845  12.720   6.980
41907SOL     OW27559   1.986   9.207   6.791
41907SOL    HW127560   1.951   9.295   6.808
41907SOL    HW227561   1.924   9.147   6.832
41908SOL     OW27562  10.677   3.308  11.160
41908SOL    HW127563  10.765   3.271  11.151
41908SOL    HW227564  10.690   3.403  11.156
41909SOL     OW27565   2.121   6.205  12.268
41909SOL    HW127566   2.106   6.114  12.243
41909SOL    HW227567   2.166   6.244  12.192
41910SOL     OW27568   8.212  13.893   3.372
41910SOL    HW127569   8.121  13.879   3.401
41910SOL    HW227570   8.213  13.983   3.340
41911SOL     OW27571   8.562  12.834   9.336
41911SOL    HW127572   8.620  12.759   9.340
41911SOL    HW227573   8.577  12.881   9.418
41912SOL     OW27574  12.750   8.954   0.257
41912SOL    HW127575  12.682   8.890   0.278
41912SOL    HW227576  12.719   8.997   0.177
41913SOL     OW27577   9.472   6.292  13.692
41913SOL    HW127578   9.483   6.363  13.754
41913SOL    HW227579   9.544   6.231  13.711
41914SOL     OW27580   7.201   2.266  14.213
41914SOL    HW127581   7.167   2.355  14.206
41914SOL    HW227582   7.141   2.222  14.274
41915SOL     OW27583   3.484  11.175   6.023
41915SOL    HW127584   3.516  11.101   5.972
41915SOL    HW227585   3.558  11.235   6.029
41916SOL     OW27586  11.195   9.659  10.717
41916SOL    HW127587  11.182   9.638  10.624
41916SOL    HW227588  11.262   9.597  10.747
41917SOL     OW27589   7.646   8.433   8.623
41917SOL    HW127590   7.612   8.519   8.647
41917SOL    HW227591   7.599   8.410   8.543
41918SOL     OW27592   5.817  10.136  11.324
41918SOL    HW127593   5.724  10.156  11.331
41918SOL    HW227594   5.847  10.128  11.414
41919SOL     OW27595   7.057   9.228  12.921
41919SOL    HW127596   7.054   9.267  13.009
41919SOL    HW227597   7.123   9.159  12.927
41920SOL     OW27598  12.413   3.542   5.659
41920SOL    HW127599  12.388   3.635   5.657
41920SOL    HW227600  12.509   3.543   5.656
41921SOL     OW27601  11.819   5.484  13.097
41921SOL    HW127602  11.842   5.392  13.086
41921SOL    HW227603  11.791   5.491  13.189
41922SOL     OW27604  12.949   1.821   9.938
41922SOL    HW127605  12.977   1.740   9.897
41922SOL    HW227606  12.986   1.890   9.882
41923SOL     OW27607  13.255   1.668   9.609
41923SOL    HW127608  13.254   1.616   9.528
41923SOL    HW227609  13.345   1.661   9.641
41924SOL     OW27610  13.100  10.959  11.543
41924SOL    HW127611  13.053  10.935  11.463
41924SOL    HW227612  13.050  10.917  11.614
41925SOL     OW27613   6.293   7.494   0.167
41925SOL    HW127614   6.232   7.565   0.187
41925SOL    HW227615   6.240   7.430   0.119
41926SOL     OW27616   2.427   2.642   9.221
41926SOL    HW127617   2.353   2.588   9.248
41926SOL    HW227618   2.396   2.732   9.226
41927SOL     OW27619   1.325   7.211   0.049
41927SOL    HW127620   1.297   7.138  14.872
41927SOL    HW227621   1.420   7.212   0.042
41928SOL     OW27622  12.796   3.858   8.493
41928SOL    HW127623  12.741   3.929   8.525
41928SOL    HW227624  12.832   3.818   8.572
41929SOL     OW27625   1.371  13.654   6.151
41929SOL    HW127626   1.446  13.714   6.146
41929SOL    HW227627   1.303  13.696   6.099
41930SOL     OW27628   7.268   2.778   8.819
41930SOL    HW127629   7.278   2.753   8.911
41930SOL    HW227630   7.247   2.697   8.774
41931SOL     OW27631  10.071   8.036  12.789
41931SOL    HW127632  10.154   8.022  12.743
41931SOL    HW227633  10.087   8.112  12.845
41932SOL     OW27634   7.463   6.978  12.960
41932SOL    HW127635   7.528   6.918  12.996
41932SOL    HW227636   7.509   7.062  12.954
41933SOL     OW27637  12.570   8.037   3.893
41933SOL    HW127638  12.576   7.942   3.886
41933SOL    HW227639  12.637   8.070   3.833
41934SOL     OW27640   9.085   3.360   2.294
41934SOL    HW127641   9.030   3.346   2.371
41934SOL    HW227642   9.034   3.324   2.221
41935SOL     OW27643   0.539  11.421   9.686
41935SOL    HW127644   0.450  11.450   9.667
41935SOL    HW227645   0.528  11.354   9.753
41936SOL     OW27646  13.315   9.811  12.693
41936SOL    HW127647  13.369   9.887  12.714
41936SOL    HW227648  13.325   9.799  12.599
41937SOL     OW27649   4.340  13.790  10.574
41937SOL    HW127650   4.326  13.816  10.483
41937SOL    HW227651   4.383  13.866  10.614
41938SOL     OW27652   5.254  12.207   3.166
41938SOL    HW127653   5.287  12.165   3.087
41938SOL    HW227654   5.159  12.194   3.163
41939SOL     OW27655   2.193   6.474   1.239
41939SOL    HW127656   2.099   6.477   1.221
41939SOL    HW227657   2.200   6.423   1.320
41940SOL     OW27658   3.894   0.489   6.970
41940SOL    HW127659   3.985   0.517   6.963
41940SOL    HW227660   3.847   0.568   6.996
41941SOL     OW27661   6.167   5.748   2.309
41941SOL    HW127662   6.250   5.727   2.353
41941SOL    HW227663   6.193   5.787   2.226
41942SOL     OW27664   8.686  12.202  11.192
41942SOL    HW127665   8.764  12.180  11.243
41942SOL    HW227666   8.622  12.230  11.258
41943SOL     OW27667  14.396   2.771   1.203
41943SOL    HW127668  14.361   2.682   1.216
41943SOL    HW227669  14.491   2.760   1.212
41944SOL     OW27670   5.876   6.620   8.288
41944SOL    HW127671   5.966   6.652   8.282
41944SOL    HW227672   5.823   6.693   8.257
41945SOL     OW27673   5.494   8.689  13.137
41945SOL    HW127674   5.573   8.659  13.090
41945SOL    HW227675   5.484   8.780  13.110
41946SOL     OW27676  10.428   6.397   6.124
41946SOL    HW127677  10.428   6.311   6.082
41946SOL    HW227678  10.398   6.457   6.056
41947SOL     OW27679   5.331   8.384   5.259
41947SOL    HW127680   5.376   8.304   5.232
41947SOL    HW227681   5.328   8.378   5.355
41948SOL     OW27682   8.936   2.972  13.915
41948SOL    HW127683   8.987   2.894  13.936
41948SOL    HW227684   8.865   2.940  13.859
41949SOL     OW27685   6.179   8.868  12.535
41949SOL    HW127686   6.243   8.866  12.607
41949SOL    HW227687   6.134   8.784  12.540
41950SOL     OW27688  12.888   1.592  13.126
41950SOL    HW127689  12.937   1.674  13.115
41950SOL    HW227690  12.890   1.576  13.220
41951SOL     OW27691   2.308   6.514   5.506
41951SOL    HW127692   2.260   6.433   5.488
41951SOL    HW227693   2.394   6.484   5.535
41952SOL     OW27694  12.042   9.559   5.081
41952SOL    HW127695  12.109   9.626   5.099
41952SOL    HW227696  11.959   9.603   5.099
41953SOL     OW27697   0.641   7.509  12.042
41953SOL    HW127698   0.703   7.469  11.980
41953SOL    HW227699   0.682   7.592  12.065
41954SOL     OW27700   0.697   3.909   4.350
41954SOL    HW127701   0.643   3.974   4.395
41954SOL    HW227702   0.640   3.871   4.284
41955SOL     OW27703   3.362   1.794   2.172
41955SOL    HW127704   3.297   1.864   2.167
41955SOL    HW227705   3.398   1.801   2.261
41956SOL     OW27706  14.548   8.987   9.952
41956SOL    HW127707  14.453   8.979   9.943
41956SOL    HW227708  14.565   9.081   9.940
41957SOL     OW27709  13.678   6.121   3.311
41957SOL    HW127710  13.649   6.039   3.351
41957SOL    HW227711  13.763   6.099   3.271
41958SOL     OW27712  13.328   9.457   5.145
41958SOL    HW127713  13.267   9.489   5.211
41958SOL    HW227714  13.287   9.479   5.062
41959SOL     OW27715   7.218  14.832   5.263
41959SOL    HW127716   7.241  14.740   5.253
41959SOL    HW227717   7.132  14.831   5.305
41960SOL     OW27718   2.072   4.137   4.430
41960SOL    HW127719   2.033   4.054   4.402
41960SOL    HW227720   2.150   4.146   4.376
41961SOL     OW27721   9.512   4.147   5.918
41961SOL    HW127722   9.576   4.165   5.986
41961SOL    HW227723   9.560   4.097   5.853
41962SOL     OW27724  12.909   5.115   4.529
41962SOL    HW127725  12.820   5.150   4.538
41962SOL    HW227726  12.899   5.021   4.539
41963SOL     OW27727   9.731  14.442  14.808
41963SOL    HW127728   9.649  14.401  14.835
41963SOL    HW227729   9.799  14.385  14.844
41964SOL     OW27730   7.744   2.718  11.031
41964SOL    HW127731   7.802   2.689  10.961
41964SOL    HW227732   7.739   2.643  11.091
41965SOL     OW27733  11.607   5.713   6.407
41965SOL    HW127734  11.559   5.790   6.376
41965SOL    HW227735  11.552   5.639   6.383
41966SOL     OW27736  13.167   4.737  11.861
41966SOL    HW127737  13.217   4.684  11.924
41966SOL    HW227738  13.084   4.691  11.853
41967SOL     OW27739   8.902  11.731   0.913
41967SOL    HW127740   8.959  11.720   0.837
41967SOL    HW227741   8.815  11.747   0.874
41968SOL     OW27742   4.469   6.537   9.942
41968SOL    HW127743   4.498   6.614   9.990
41968SOL    HW227744   4.495   6.463   9.996
41969SOL     OW27745  11.853   0.979  12.524
41969SOL    HW127746  11.782   1.021  12.573
41969SOL    HW227747  11.891   1.049  12.472
41970SOL     OW27748   6.638  14.563   8.544
41970SOL    HW127749   6.631  14.650   8.583
41970SOL    HW227750   6.697  14.516   8.602
41971SOL     OW27751   2.799  12.616   8.936
41971SOL    HW127752   2.879  12.658   8.967
41971SOL    HW227753   2.764  12.572   9.014
41972SOL     OW27754  13.891   9.633   7.729
41972SOL    HW127755  13.798   9.629   7.753
41972SOL    HW227756  13.926   9.548   7.757
41973SOL     OW27757   4.495   6.426  13.628
41973SOL    HW127758   4.550   6.472  13.565
41973SOL    HW227759   4.502   6.334  13.603
41974SOL     OW27760   3.472   4.095  11.119
41974SOL    HW127761   3.474   4.093  11.215
41974SOL    HW227762   3.383   4.123  11.098
41975SOL     OW27763  12.808   9.208   3.489
41975SOL    HW127764  12.715   9.189   3.480
41975SOL    HW227765  12.841   9.140   3.548
41976SOL     OW27766   0.437   2.970   4.200
41976SOL    HW127767   0.510   2.908   4.193
41976SOL    HW227768   0.393   2.963   4.115
41977SOL     OW27769  12.211  11.368   8.097
41977SOL    HW127770  12.272  11.443   8.102
41977SOL    HW227771  12.193  11.347   8.189
41978SOL     OW27772  11.776   1.307   2.058
41978SOL    HW127773  11.698   1.284   2.109
41978SOL    HW227774  11.848   1.264   2.105
41979SOL     OW27775  13.135   4.395   3.184
41979SOL    HW127776  13.210   4.448   3.157
41979SOL    HW227777  13.120   4.336   3.109
41980SOL     OW27778   4.552   9.675   2.299
41980SOL    HW127779   4.591   9.703   2.382
41980SOL    HW227780   4.486   9.611   2.324
41981SOL     OW27781   2.227   6.770   5.433
41981SOL    HW127782   2.151   6.748   5.378
41981SOL    HW227783   2.256   6.686   5.467
41982SOL     OW27784   7.765   0.020   6.453
41982SOL    HW127785   7.840   0.071   6.484
41982SOL    HW227786   7.689   0.073   6.477
41983SOL     OW27787  10.551   0.445  14.764
41983SOL    HW127788  10.537   0.504  14.837
41983SOL    HW227789  10.480   0.465  14.702
41984SOL     OW27790   7.398   0.189   2.274
41984SOL    HW127791   7.337   0.261   2.289
41984SOL    HW227792   7.373   0.153   2.189
41985SOL     OW27793  11.250   0.951   1.168
41985SOL    HW127794  11.308   1.005   1.114
41985SOL    HW227795  11.278   0.969   1.258
41986SOL     OW27796  11.998   0.622   2.758
41986SOL    HW127797  12.049   0.663   2.828
41986SOL    HW227798  12.023   0.670   2.679
41987SOL     OW27799   4.873   2.324  13.282
41987SOL    HW127800   4.865   2.417  13.306
41987SOL    HW227801   4.947   2.293  13.334
41988SOL     OW27802  10.908   5.532   0.115
41988SOL    HW127803  10.884   5.440   0.100
41988SOL    HW227804  10.859   5.557   0.194
41989SOL     OW27805   4.380   8.137  12.085
41989SOL    HW127806   4.378   8.141  11.990
41989SOL    HW227807   4.350   8.048  12.106
41990SOL     OW27808  11.956  11.275  11.751
41990SOL    HW127809  11.987  11.348  11.697
41990SOL    HW227810  11.985  11.197  11.705
41991SOL     OW27811  13.344  12.093  11.477
41991SOL    HW127812  13.262  12.057  11.444
41991SOL    HW227813  13.406  12.020  11.473
41992SOL     OW27814  14.455   7.582   6.538
41992SOL    HW127815  14.433   7.498   6.498
41992SOL    HW227816  14.402   7.646   6.491
41993SOL     OW27817   7.083   5.995   4.189
41993SOL    HW127818   7.045   5.946   4.262
41993SOL    HW227819   7.039   5.962   4.111
41994SOL     OW27820   5.329   5.704   9.537
41994SOL    HW127821   5.236   5.692   9.553
41994SOL    HW227822   5.363   5.740   9.619
41995SOL     OW27823  14.825   5.125   4.773
41995SOL    HW127824  14.756   5.191   4.766
41995SOL    HW227825  14.835   5.110   4.867
41996SOL     OW27826  11.545   1.564  10.706
41996SOL    HW127827  11.536   1.471  10.727
41996SOL    HW227828  11.473   1.607  10.754
41997SOL     OW27829  11.842  12.749  14.427
41997SOL    HW127830  11.861  12.841  14.409
41997SOL    HW227831  11.775  12.751  14.495
41998SOL     OW27832  10.778   3.583   0.842
41998SOL    HW127833  10.790   3.593   0.747
41998SOL    HW227834  10.831   3.653   0.880
41999SOL     OW27835   2.388  14.236   6.298
41999SOL    HW127836   2.356  14.326   6.300
41999SOL    HW227837   2.377  14.205   6.388
42000SOL     OW27838  11.906  12.487  12.146
42000SOL    HW127839  11.992  12.525  12.164
42000SOL    HW227840  11.923  12.395  12.125
42001SOL     OW27841   0.796   0.327  14.020
42001SOL    HW127842   0.723   0.266  14.026
42001SOL    HW227843   0.869   0.280  14.060
42002SOL     OW27844   7.494  10.259   8.038
42002SOL    HW127845   7.577  10.219   8.062
42002SOL    HW227846   7.462  10.207   7.964
42003SOL     OW27847   4.426   9.827  14.565
42003SOL    HW127848   4.519   9.850  14.562
42003SOL    HW227849   4.384   9.900  14.608
42004SOL     OW27850  10.367   7.345   4.264
42004SOL    HW127851  10.388   7.429   4.224
42004SOL    HW227852  10.321   7.367   4.345
42005SOL     OW27853  10.977  13.031  12.359
42005SOL    HW127854  11.059  12.999  12.395
42005SOL    HW227855  10.994  13.122  12.337
42006SOL     OW27856   4.019   1.392   5.876
42006SOL    HW127857   4.011   1.360   5.966
42006SOL    HW227858   4.044   1.484   5.885
42007SOL     OW27859   0.011   8.655  13.871
42007SOL    HW127860  14.799   8.648  13.842
42007SOL    HW227861   0.033   8.566  13.899
42008SOL     OW27862   6.319   4.866   1.377
42008SOL    HW127863   6.223   4.865   1.370
42008SOL    HW227864   6.339   4.952   1.413
42009SOL     OW27865   6.541   9.577  13.917
42009SOL    HW127866   6.518   9.663  13.950
42009SOL    HW227867   6.612   9.594  13.854
42010SOL     OW27868   5.264   9.966   1.670
42010SOL    HW127869   5.262   9.870   1.673
42010SOL    HW227870   5.271   9.987   1.577
42011SOL     OW27871   9.731   6.542   6.771
42011SOL    HW127872   9.724   6.448   6.754
42011SOL    HW227873   9.797   6.572   6.709
42012SOL     OW27874   7.562   9.296  12.201
42012SOL    HW127875   7.475   9.304  12.241
42012SOL    HW227876   7.602   9.221  12.246
42013SOL     OW27877   1.197   0.083  12.343
42013SOL    HW127878   1.191   0.134  12.262
42013SOL    HW227879   1.161   0.141  12.410
42014SOL     OW27880  11.134   8.977  10.463
42014SOL    HW127881  11.143   9.057  10.412
42014SOL    HW227882  11.051   8.939  10.434
42015SOL     OW27883  12.043  13.219   6.317
42015SOL    HW127884  11.947  13.225   6.309
42015SOL    HW227885  12.065  13.135   6.277
42016SOL     OW27886   1.787  11.230   5.400
42016SOL    HW127887   1.769  11.324   5.393
42016SOL    HW227888   1.819  11.205   5.314
42017SOL     OW27889   3.624   6.014   0.453
42017SOL    HW127890   3.574   5.999   0.533
42017SOL    HW227891   3.569   5.978   0.383
42018SOL     OW27892   9.091  11.166   8.622
42018SOL    HW127893   9.093  11.187   8.528
42018SOL    HW227894   9.026  11.096   8.630
42019SOL     OW27895   9.736  11.529  12.464
42019SOL    HW127896   9.746  11.504  12.372
42019SOL    HW227897   9.816  11.497  12.506
42020SOL     OW27898   9.541   6.310   5.600
42020SOL    HW127899   9.483   6.386   5.603
42020SOL    HW227900   9.509   6.253   5.670
42021SOL     OW27901   9.371  14.424  12.134
42021SOL    HW127902   9.386  14.513  12.168
42021SOL    HW227903   9.321  14.380  12.203
42022SOL     OW27904  12.249   3.535   6.445
42022SOL    HW127905  12.222   3.447   6.470
42022SOL    HW227906  12.216   3.591   6.516
42023SOL     OW27907   9.818   6.904   9.459
42023SOL    HW127908   9.803   6.919   9.366
42023SOL    HW227909   9.901   6.949   9.478
42024SOL     OW27910   2.922   9.965   2.653
42024SOL    HW127911   2.904  10.036   2.591
42024SOL    HW227912   2.836   9.941   2.687
42025SOL     OW27913   5.842   0.756  12.875
42025SOL    HW127914   5.926   0.738  12.916
42025SOL    HW227915   5.828   0.850  12.891
42026SOL     OW27916  12.098   7.987   3.670
42026SOL    HW127917  12.145   7.904   3.674
42026SOL    HW227918  12.090   8.014   3.762
42027SOL     OW27919  14.806   6.228   9.660
42027SOL    HW127920  14.750   6.158   9.694
42027SOL    HW227921  14.770   6.248   9.574
42028SOL     OW27922  14.694   0.009   6.561
42028SOL    HW127923  14.752   0.020   6.637
42028SOL    HW227924  14.727   0.073   6.498
42029SOL     OW27925  14.371   8.662   8.764
42029SOL    HW127926  14.306   8.710   8.712
42029SOL    HW227927  14.384   8.580   8.717
42030SOL     OW27928   6.911   5.684  10.564
42030SOL    HW127929   6.930   5.778  10.565
42030SOL    HW227930   6.821   5.677  10.597
42031SOL     OW27931   8.433   3.194   9.740
42031SOL    HW127932   8.482   3.202   9.658
42031SOL    HW227933   8.367   3.127   9.722
42032SOL     OW27934   7.156   4.767   1.681
42032SOL    HW127935   7.132   4.778   1.590
42032SOL    HW227936   7.165   4.673   1.693
42033SOL     OW27937  11.818   5.980   3.671
42033SOL    HW127938  11.865   5.897   3.670
42033SOL    HW227939  11.742   5.964   3.727
42034SOL     OW27940   0.346   5.127   1.497
42034SOL    HW127941   0.415   5.102   1.559
42034SOL    HW227942   0.308   5.206   1.534
42035SOL     OW27943  12.903   9.690   3.524
42035SOL    HW127944  12.962   9.630   3.478
42035SOL    HW227945  12.956   9.768   3.539
42036SOL     OW27946   6.541  11.245   2.383
42036SOL    HW127947   6.459  11.289   2.407
42036SOL    HW227948   6.516  11.182   2.316
42037SOL     OW27949   5.215   0.643   3.930
42037SOL    HW127950   5.302   0.636   3.890
42037SOL    HW227951   5.181   0.727   3.898
42038SOL     OW27952  11.778  13.626   7.827
42038SOL    HW127953  11.755  13.609   7.918
42038SOL    HW227954  11.732  13.707   7.805
42039SOL     OW27955   2.180   8.436  13.255
42039SOL    HW127956   2.146   8.517  13.294
42039SOL    HW227957   2.269   8.458  13.228
42040SOL     OW27958   2.590   3.503   3.256
42040SOL    HW127959   2.638   3.581   3.282
42040SOL    HW227960   2.655   3.432   3.259
42041SOL     OW27961  13.564   0.654   7.299
42041SOL    HW127962  13.520   0.620   7.377
42041SOL    HW227963  13.521   0.739   7.283
42042SOL     OW27964   7.739   9.506   1.759
42042SOL    HW127965   7.723   9.586   1.810
42042SOL    HW227966   7.752   9.537   1.670
42043SOL     OW27967  13.947   9.495   5.961
42043SOL    HW127968  14.042   9.492   5.973
42043SOL    HW227969  13.935   9.548   5.882
42044SOL     OW27970   3.010   5.840   2.569
42044SOL    HW127971   2.926   5.830   2.613
42044SOL    HW227972   3.075   5.831   2.638
42045SOL     OW27973  12.619  14.767   1.811
42045SOL    HW127974  12.703  14.801   1.781
42045SOL    HW227975  12.628  14.672   1.807
42046SOL     OW27976   5.345  12.962  14.802
42046SOL    HW127977   5.378  12.880  14.838
42046SOL    HW227978   5.382  12.966  14.714
42047SOL     OW27979   6.106   7.884   8.235
42047SOL    HW127980   6.026   7.925   8.270
42047SOL    HW227981   6.109   7.912   8.144
42048SOL     OW27982  14.032   7.111   4.865
42048SOL    HW127983  14.060   7.113   4.773
42048SOL    HW227984  14.114   7.113   4.915
42049SOL     OW27985  13.616   7.062   7.951
42049SOL    HW127986  13.668   7.140   7.970
42049SOL    HW227987  13.644   7.036   7.863
42050SOL     OW27988   6.558   4.758   3.551
42050SOL    HW127989   6.506   4.689   3.510
42050SOL    HW227990   6.574   4.727   3.640
42051SOL     OW27991   1.494   5.156   6.399
42051SOL    HW127992   1.467   5.161   6.491
42051SOL    HW227993   1.565   5.220   6.392
42052SOL     OW27994   9.244   2.219  14.165
42052SOL    HW127995   9.211   2.133  14.138
42052SOL    HW227996   9.315   2.200  14.226
42053SOL     OW27997   4.186  13.326   2.030
42053SOL    HW127998   4.152  13.409   2.065
42053SOL    HW227999   4.265  13.310   2.082
42054SOL     OW28000   6.912   7.211   4.481
42054SOL    HW128001   7.006   7.195   4.477
42054SOL    HW228002   6.882   7.205   4.390
42055SOL     OW28003   1.637  11.121  11.221
42055SOL    HW128004   1.619  11.144  11.130
42055SOL    HW228005   1.714  11.064  11.217
42056SOL     OW28006   3.090   3.445   7.073
42056SOL    HW128007   3.034   3.387   7.023
42056SOL    HW228008   3.121   3.510   7.010
42057SOL     OW28009  10.011   1.977   4.407
42057SOL    HW128010  10.001   1.961   4.500
42057SOL    HW228011   9.952   1.914   4.365
42058SOL     OW28012   7.514   5.030   2.089
42058SOL    HW128013   7.482   5.016   2.178
42058SOL    HW228014   7.435   5.028   2.035
42059SOL     OW28015  13.765   9.024  11.423
42059SOL    HW128016  13.685   8.987  11.387
42059SOL    HW228017  13.794   8.961  11.489
42060SOL     OW28018  13.852   4.592   1.079
42060SOL    HW128019  13.757   4.580   1.088
42060SOL    HW228020  13.873   4.662   1.141
42061SOL     OW28021   9.415   3.998   2.267
42061SOL    HW128022   9.454   4.040   2.345
42061SOL    HW228023   9.333   4.045   2.253
42062SOL     OW28024  11.931   9.630   7.850
42062SOL    HW128025  11.953   9.691   7.921
42062SOL    HW228026  11.967   9.670   7.772
42063SOL     OW28027   4.638  12.074  12.133
42063SOL    HW128028   4.669  12.082  12.043
42063SOL    HW228029   4.567  12.138  12.140
42064SOL     OW28030   2.385  10.411   8.656
42064SOL    HW128031   2.325  10.352   8.610
42064SOL    HW228032   2.352  10.413   8.746
42065SOL     OW28033   5.977   8.605   5.266
42065SOL    HW128034   6.006   8.669   5.331
42065SOL    HW228035   6.015   8.635   5.183
42066SOL     OW28036   5.286   9.435  11.300
42066SOL    HW128037   5.296   9.475  11.214
42066SOL    HW228038   5.198   9.397  11.298
42067SOL     OW28039   1.433   4.414   3.839
42067SOL    HW128040   1.447   4.412   3.934
42067SOL    HW228041   1.360   4.475   3.827
42068SOL     OW28042   7.588  13.241   2.583
42068SOL    HW128043   7.624  13.194   2.507
42068SOL    HW228044   7.589  13.177   2.653
42069SOL     OW28045  11.885  11.688  11.954
42069SOL    HW128046  11.811  11.703  11.896
42069SOL    HW228047  11.935  11.617  11.912
42070SOL     OW28048  10.901   4.586   0.585
42070SOL    HW128049  10.980   4.587   0.532
42070SOL    HW228050  10.830   4.609   0.524
42071SOL     OW28051   7.519   5.633   3.754
42071SOL    HW128052   7.559   5.702   3.700
42071SOL    HW228053   7.593   5.579   3.781
42072SOL     OW28054   2.536  14.499  12.265
42072SOL    HW128055   2.627  14.528  12.268
42072SOL    HW228056   2.533  14.439  12.190
42073SOL     OW28057   6.453  12.341  11.980
42073SOL    HW128058   6.389  12.400  11.941
42073SOL    HW228059   6.434  12.256  11.941
42074SOL     OW28060   2.798  13.753   2.705
42074SOL    HW128061   2.714  13.789   2.674
42074SOL    HW228062   2.864  13.801   2.655
42075SOL     OW28063   0.189  10.735  11.364
42075SOL    HW128064   0.202  10.738  11.459
42075SOL    HW228065   0.277  10.746  11.327
42076SOL     OW28066   5.889   6.458   5.607
42076SOL    HW128067   5.876   6.404   5.685
42076SOL    HW228068   5.816   6.435   5.550
42077SOL     OW28069   1.778   1.201   3.853
42077SOL    HW128070   1.870   1.215   3.876
42077SOL    HW228071   1.737   1.167   3.933
42078SOL     OW28072   3.549  13.529   5.028
42078SOL    HW128073   3.487  13.486   4.969
42078SOL    HW228074   3.494  13.575   5.091
42079SOL     OW28075  11.360   8.541   9.654
42079SOL    HW128076  11.371   8.591   9.734
42079SOL    HW228077  11.395   8.597   9.585
42080SOL     OW28078   9.382  14.180   4.897
42080SOL    HW128079   9.353  14.271   4.900
42080SOL    HW228080   9.382  14.152   4.988
42081SOL     OW28081   7.187   2.931   2.231
42081SOL    HW128082   7.140   3.010   2.257
42081SOL    HW228083   7.153   2.911   2.144
42082SOL     OW28084   8.828  14.391   8.290
42082SOL    HW128085   8.854  14.328   8.222
42082SOL    HW228086   8.907  14.442   8.306
42083SOL     OW28087   6.392   5.341  12.663
42083SOL    HW128088   6.429   5.427  12.641
42083SOL    HW228089   6.345   5.356  12.745
42084SOL     OW28090   3.842   7.045   6.737
42084SOL    HW128091   3.869   6.998   6.658
42084SOL    HW228092   3.746   7.047   6.733
42085SOL     OW28093   4.513   4.177   2.805
42085SOL    HW128094   4.504   4.084   2.787
42085SOL    HW228095   4.546   4.182   2.894
42086SOL     OW28096   2.155   9.569   0.915
42086SOL    HW128097   2.078   9.615   0.882
42086SOL    HW228098   2.156   9.485   0.868
42087SOL     OW28099   7.561  11.925  11.782
42087SOL    HW128100   7.544  11.894  11.871
42087SOL    HW228101   7.657  11.930  11.777
42088SOL     OW28102   2.203  11.257  10.425
42088SOL    HW128103   2.219  11.233  10.516
42088SOL    HW228104   2.290  11.253  10.384
42089SOL     OW28105  11.169   9.788  12.550
42089SOL    HW128106  11.081   9.754  12.535
42089SOL    HW228107  11.226   9.729  12.500
42090SOL     OW28108   3.396   8.768   7.423
42090SOL    HW128109   3.481   8.803   7.451
42090SOL    HW228110   3.333   8.807   7.483
42091SOL     OW28111  13.825  11.043   2.894
42091SOL    HW128112  13.908  11.071   2.932
42091SOL    HW228113  13.817  10.951   2.917
42092SOL     OW28114  14.879   3.539   5.237
42092SOL    HW128115   0.001   3.505   5.148
42092SOL    HW228116  14.799   3.504   5.276
42093SOL     OW28117   6.713  13.230   7.793
42093SOL    HW128118   6.671  13.228   7.707
42093SOL    HW228119   6.777  13.158   7.791
42094SOL     OW28120   7.411  13.907  13.054
42094SOL    HW128121   7.339  13.856  13.017
42094SOL    HW228122   7.417  13.984  12.998
42095SOL     OW28123   8.910   8.314  13.919
42095SOL    HW128124   8.847   8.366  13.968
42095SOL    HW228125   8.881   8.322  13.828
42096SOL     OW28126  10.101   7.391   2.314
42096SOL    HW128127  10.103   7.339   2.394
42096SOL    HW228128  10.009   7.388   2.286
42097SOL     OW28129   1.654   1.983   6.652
42097SOL    HW128130   1.715   1.952   6.585
42097SOL    HW228131   1.661   1.919   6.722
42098SOL     OW28132   1.335  12.986   8.574
42098SOL    HW128133   1.333  13.075   8.610
42098SOL    HW228134   1.264  12.985   8.509
42099SOL     OW28135  11.216   3.028   8.352
42099SOL    HW128136  11.236   2.937   8.375
42099SOL    HW228137  11.269   3.080   8.412
42100SOL     OW28138   5.176   7.194   5.494
42100SOL    HW128139   5.102   7.255   5.493
42100SOL    HW228140   5.140   7.112   5.528
42101SOL     OW28141   2.521  13.260   9.116
42101SOL    HW128142   2.433  13.298   9.111
42101SOL    HW228143   2.506  13.171   9.147
42102SOL     OW28144  10.405   6.017  13.984
42102SOL    HW128145  10.340   6.015  14.054
42102SOL    HW228146  10.357   5.992  13.905
42103SOL     OW28147  10.089   1.314  11.931
42103SOL    HW128148  10.137   1.286  11.853
42103SOL    HW228149   9.997   1.298  11.909
42104SOL     OW28150  12.419  10.866   9.029
42104SOL    HW128151  12.326  10.846   9.036
42104SOL    HW228152  12.427  10.915   8.948
42105SOL     OW28153   7.887  10.449   5.094
42105SOL    HW128154   7.918  10.400   5.018
42105SOL    HW228155   7.806  10.491   5.064
42106SOL     OW28156  10.015  10.525  13.532
42106SOL    HW128157   9.955  10.457  13.564
42106SOL    HW228158  10.079  10.535  13.603
42107SOL     OW28159  12.031   0.660   4.627
42107SOL    HW128160  12.100   0.705   4.577
42107SOL    HW228161  12.069   0.576   4.650
42108SOL     OW28162  12.217  10.197   1.618
42108SOL    HW128163  12.206  10.123   1.677
42108SOL    HW228164  12.176  10.271   1.663
42109SOL     OW28165   0.562  13.038  13.083
42109SOL    HW128166   0.565  13.009  12.992
42109SOL    HW228167   0.637  12.995  13.124
42110SOL     OW28168   9.415   1.895   7.087
42110SOL    HW128169   9.493   1.928   7.042
42110SOL    HW228170   9.419   1.800   7.074
42111SOL     OW28171  14.440  13.134   6.660
42111SOL    HW128172  14.453  13.109   6.569
42111SOL    HW228173  14.347  13.121   6.676
42112SOL     OW28174   7.521   4.026   0.040
42112SOL    HW128175   7.595   4.004  14.862
42112SOL    HW228176   7.492   4.112   0.009
42113SOL     OW28177   7.631   2.470   1.598
42113SOL    HW128178   7.557   2.529   1.612
42113SOL    HW228179   7.681   2.510   1.527
42114SOL     OW28180   6.016   4.988  11.887
42114SOL    HW128181   6.051   5.039  11.960
42114SOL    HW228182   6.086   4.990  11.822
42115SOL     OW28183   8.440   5.541  10.149
42115SOL    HW128184   8.420   5.612  10.210
42115SOL    HW228185   8.359   5.527  10.100
42116SOL     OW28186   3.839   9.126  10.437
42116SOL    HW128187   3.901   9.111  10.365
42116SOL    HW228188   3.891   9.115  10.516
42117SOL     OW28189  11.148   2.405   8.184
42117SOL    HW128190  11.191   2.373   8.105
42117SOL    HW228191  11.215   2.454   8.230
42118SOL     OW28192   6.777   1.296   8.854
42118SOL    HW128193   6.826   1.255   8.925
42118SOL    HW228194   6.814   1.384   8.847
42119SOL     OW28195   6.230   6.963  13.505
42119SOL    HW128196   6.249   7.051  13.474
42119SOL    HW228197   6.136   6.952  13.492
42120SOL     OW28198   0.305   6.653  11.740
42120SOL    HW128199   0.373   6.709  11.702
42120SOL    HW228200   0.292   6.584  11.674
42121SOL     OW28201   2.344   3.954  10.090
42121SOL    HW128202   2.351   3.889  10.020
42121SOL    HW228203   2.407   4.022  10.065
42122SOL     OW28204   6.180   4.220   7.493
42122SOL    HW128205   6.156   4.129   7.511
42122SOL    HW228206   6.186   4.260   7.579
42123SOL     OW28207   6.362  14.272  12.941
42123SOL    HW128208   6.426  14.203  12.925
42123SOL    HW228209   6.337  14.261  13.032
42124SOL     OW28210  10.797   4.294  14.680
42124SOL    HW128211  10.741   4.371  14.680
42124SOL    HW228212  10.859   4.309  14.751
42125SOL     OW28213   3.025  12.152  10.097
42125SOL    HW128214   2.962  12.200  10.150
42125SOL    HW228215   3.107  12.199  10.108
42126SOL     OW28216   2.083  13.790   4.678
42126SOL    HW128217   2.100  13.738   4.599
42126SOL    HW228218   2.070  13.726   4.747
42127SOL     OW28219   4.689   3.628   6.142
42127SOL    HW128220   4.610   3.653   6.189
42127SOL    HW228221   4.758   3.628   6.208
42128SOL     OW28222   5.345   0.086   8.438
42128SOL    HW128223   5.387   0.169   8.418
42128SOL    HW228224   5.265   0.086   8.384
42129SOL     OW28225  13.461  11.693   0.998
42129SOL    HW128226  13.462  11.786   0.974
42129SOL    HW228227  13.510  11.689   1.080
42130SOL     OW28228   8.343   4.551   5.697
42130SOL    HW128229   8.250   4.545   5.679
42130SOL    HW228230   8.371   4.632   5.655
42131SOL     OW28231   0.096  10.202   9.419
42131SOL    HW128232   0.148  10.129   9.383
42131SOL    HW228233   0.074  10.255   9.342
42132SOL     OW28234   3.678  14.532  12.149
42132SOL    HW128235   3.655  14.618  12.184
42132SOL    HW228236   3.724  14.551  12.067
42133SOL     OW28237  11.699   5.085   5.607
42133SOL    HW128238  11.666   5.159   5.657
42133SOL    HW228239  11.792   5.106   5.593
42134SOL     OW28240   6.708   6.223   8.329
42134SOL    HW128241   6.769   6.284   8.288
42134SOL    HW228242   6.757   6.185   8.401
42135SOL     OW28243   8.613   0.060  14.460
42135SOL    HW128244   8.530   0.017  14.482
42135SOL    HW228245   8.606   0.147  14.498
42136SOL     OW28246  10.956   0.257  14.193
42136SOL    HW128247  10.951   0.287  14.284
42136SOL    HW228248  10.883   0.196  14.184
42137SOL     OW28249   3.678   2.515   3.361
42137SOL    HW128250   3.635   2.600   3.374
42137SOL    HW228251   3.746   2.512   3.428
42138SOL     OW28252  10.914  12.519  11.228
42138SOL    HW128253  10.843  12.466  11.265
42138SOL    HW228254  10.981  12.455  11.204
42139SOL     OW28255   2.567   3.005   7.783
42139SOL    HW128256   2.477   3.009   7.753
42139SOL    HW228257   2.586   2.912   7.791
42140SOL     OW28258  14.279   7.976  13.720
42140SOL    HW128259  14.248   7.907  13.778
42140SOL    HW228260  14.218   7.974  13.646
42141SOL     OW28261  14.023  12.449   1.204
42141SOL    HW128262  14.031  12.354   1.205
42141SOL    HW228263  14.030  12.474   1.297
42142SOL     OW28264   1.197  14.320   2.590
42142SOL    HW128265   1.153  14.251   2.640
42142SOL    HW228266   1.166  14.307   2.500
42143SOL     OW28267   1.612  12.723   5.213
42143SOL    HW128268   1.648  12.792   5.156
42143SOL    HW228269   1.689  12.677   5.245
42144SOL     OW28270   0.174   7.830   3.767
42144SOL    HW128271   0.164   7.925   3.774
42144SOL    HW228272   0.260   7.812   3.806
42145SOL     OW28273   6.952   7.630   8.194
42145SOL    HW128274   6.957   7.547   8.146
42145SOL    HW228275   7.015   7.621   8.265
42146SOL     OW28276   8.921   6.476   2.115
42146SOL    HW128277   8.847   6.427   2.077
42146SOL    HW228278   8.926   6.445   2.205
42147SOL     OW28279   7.590   7.155  11.064
42147SOL    HW128280   7.618   7.197  11.145
42147SOL    HW228281   7.616   7.217  10.995
42148SOL     OW28282   8.083   5.896   5.537
42148SOL    HW128283   8.061   5.816   5.488
42148SOL    HW228284   8.172   5.881   5.570
42149SOL     OW28285   7.741   5.299  11.171
42149SOL    HW128286   7.703   5.253  11.246
42149SOL    HW228287   7.822   5.336  11.204
42150SOL     OW28288  12.732   5.736   7.885
42150SOL    HW128289  12.695   5.812   7.930
42150SOL    HW228290  12.765   5.680   7.956
42151SOL     OW28291   4.555  13.054   9.911
42151SOL    HW128292   4.583  13.004   9.834
42151SOL    HW228293   4.618  13.126   9.917
42152SOL     OW28294   6.783  10.960  11.221
42152SOL    HW128295   6.785  10.961  11.125
42152SOL    HW228296   6.845  11.027  11.247
42153SOL     OW28297  12.720  13.069   2.568
42153SOL    HW128298  12.669  13.065   2.487
42153SOL    HW228299  12.736  12.977   2.590
42154SOL     OW28300   2.150  14.068   7.085
42154SOL    HW128301   2.075  14.110   7.127
42154SOL    HW228302   2.131  13.974   7.092
42155SOL     OW28303  11.769   9.738   8.516
42155SOL    HW128304  11.779   9.833   8.520
42155SOL    HW228305  11.776   9.717   8.422
42156SOL     OW28306   3.819   8.961   2.041
42156SOL    HW128307   3.803   8.867   2.046
42156SOL    HW228308   3.757   8.999   2.103
42157SOL     OW28309  10.714   2.153   3.021
42157SOL    HW128310  10.636   2.208   3.025
42157SOL    HW228311  10.709   2.111   2.935
42158SOL     OW28312  12.748   1.016   6.523
42158SOL    HW128313  12.773   1.089   6.579
42158SOL    HW228314  12.808   1.022   6.448
42159SOL     OW28315  14.840   0.294   1.488
42159SOL    HW128316   0.018   0.264   1.559
42159SOL    HW228317  14.840   0.222   1.425
42160SOL     OW28318   4.041  13.544   0.939
42160SOL    HW128319   4.007  13.506   0.858
42160SOL    HW228320   4.072  13.470   0.990
42161SOL     OW28321  12.571   2.464   1.780
42161SOL    HW128322  12.524   2.389   1.817
42161SOL    HW228323  12.560   2.534   1.844
42162SOL     OW28324   9.378   7.073   8.005
42162SOL    HW128325   9.345   7.017   8.075
42162SOL    HW228326   9.300   7.102   7.959
42163SOL     OW28327  12.208  13.652   8.275
42163SOL    HW128328  12.160  13.732   8.296
42163SOL    HW228329  12.149  13.581   8.301
42164SOL     OW28330  11.140  13.807   5.693
42164SOL    HW128331  11.221  13.850   5.719
42164SOL    HW228332  11.092  13.793   5.775
42165SOL     OW28333   9.371   7.559  10.963
42165SOL    HW128334   9.303   7.501  10.930
42165SOL    HW228335   9.427   7.576  10.887
42166SOL     OW28336   1.018  14.264  13.036
42166SOL    HW128337   0.935  14.276  12.991
42166SOL    HW228338   1.002  14.295  13.125
42167SOL     OW28339   2.681  10.952   1.241
42167SOL    HW128340   2.619  10.967   1.169
42167SOL    HW228341   2.716  11.039   1.260
42168SOL     OW28342   6.779  10.737   3.306
42168SOL    HW128343   6.756  10.780   3.389
42168SOL    HW228344   6.697  10.738   3.256
42169SOL     OW28345   4.889  14.061   4.353
42169SOL    HW128346   4.815  14.006   4.325
42169SOL    HW228347   4.961  13.999   4.367
42170SOL     OW28348   1.861  14.218  10.227
42170SOL    HW128349   1.936  14.177  10.271
42170SOL    HW228350   1.885  14.217  10.135
42171SOL     OW28351   4.564   4.263   1.471
42171SOL    HW128352   4.596   4.321   1.401
42171SOL    HW228353   4.643   4.221   1.505
42172SOL     OW28354   1.319   5.998   7.072
42172SOL    HW128355   1.284   5.936   7.009
42172SOL    HW228356   1.298   5.960   7.157
42173SOL     OW28357  11.403   2.039   0.082
42173SOL    HW128358  11.465   2.066   0.150
42173SOL    HW228359  11.317   2.066   0.115
42174SOL     OW28360   0.292  10.709  14.018
42174SOL    HW128361   0.248  10.784  14.060
42174SOL    HW228362   0.261  10.633  14.068
42175SOL     OW28363   6.518  12.461   1.519
42175SOL    HW128364   6.596  12.509   1.547
42175SOL    HW228365   6.505  12.394   1.585
42176SOL     OW28366   5.788   6.348   8.718
42176SOL    HW128367   5.795   6.380   8.628
42176SOL    HW228368   5.801   6.426   8.772
42177SOL     OW28369  13.234   5.666  11.143
42177SOL    HW128370  13.170   5.737  11.149
42177SOL    HW228371  13.271   5.673  11.055
42178SOL     OW28372  13.324   0.603  11.115
42178SOL    HW128373  13.352   0.683  11.159
42178SOL    HW228374  13.393   0.585  11.052
42179SOL     OW28375   6.299   1.112   9.834
42179SOL    HW128376   6.286   1.144   9.923
42179SOL    HW228377   6.296   1.017   9.842
42180SOL     OW28378   4.219  14.639  10.778
42180SOL    HW128379   4.238  14.719  10.728
42180SOL    HW228380   4.181  14.579  10.715
42181SOL     OW28381   4.183   3.335  13.127
42181SOL    HW128382   4.272   3.358  13.151
42181SOL    HW228383   4.190   3.247  13.090
42182SOL     OW28384  13.732   7.470  12.693
42182SOL    HW128385  13.708   7.397  12.750
42182SOL    HW228386  13.716   7.548  12.747
42183SOL     OW28387   7.530   8.291  14.014
42183SOL    HW128388   7.445   8.334  14.024
42183SOL    HW228389   7.587   8.360  13.981
42184SOL     OW28390  14.731  12.209   3.832
42184SOL    HW128391  14.676  12.167   3.897
42184SOL    HW228392  14.675  12.219   3.755
42185SOL     OW28393   2.216  10.479   7.683
42185SOL    HW128394   2.150  10.511   7.621
42185SOL    HW228395   2.300  10.510   7.647
42186SOL     OW28396   9.622   8.047   3.491
42186SOL    HW128397   9.599   8.069   3.581
42186SOL    HW228398   9.577   7.965   3.473
42187SOL     OW28399   0.497   2.478   2.918
42187SOL    HW128400   0.541   2.447   2.840
42187SOL    HW228401   0.508   2.574   2.915
42188SOL     OW28402   9.301  11.519   7.780
42188SOL    HW128403   9.386  11.503   7.739
42188SOL    HW228404   9.238  11.501   7.710
42189SOL     OW28405   8.310   5.715   1.035
42189SOL    HW128406   8.333   5.798   0.992
42189SOL    HW228407   8.280   5.659   0.964
42190SOL     OW28408   9.860   4.650  12.406
42190SOL    HW128409   9.884   4.614  12.492
42190SOL    HW228410   9.774   4.611  12.388
42191SOL     OW28411   5.587  12.708  11.098
42191SOL    HW128412   5.617  12.784  11.148
42191SOL    HW228413   5.524  12.743  11.036
42192SOL     OW28414   4.329  10.835   9.112
42192SOL    HW128415   4.411  10.875   9.141
42192SOL    HW228416   4.262  10.900   9.132
42193SOL     OW28417  14.417   3.680  11.804
42193SOL    HW128418  14.333   3.712  11.772
42193SOL    HW228419  14.481   3.718  11.744
42194SOL     OW28420  10.935  11.625   7.794
42194SOL    HW128421  10.897  11.537   7.805
42194SOL    HW228422  10.932  11.641   7.699
42195SOL     OW28423   6.780   7.544  10.449
42195SOL    HW128424   6.718   7.513  10.382
42195SOL    HW228425   6.735   7.526  10.532
42196SOL     OW28426  13.966   6.723  11.442
42196SOL    HW128427  13.987   6.633  11.416
42196SOL    HW228428  13.881   6.717  11.485
42197SOL     OW28429  12.819   8.454  11.342
42197SOL    HW128430  12.877   8.492  11.408
42197SOL    HW228431  12.787   8.530  11.293
42198SOL     OW28432   5.590   2.378  12.438
42198SOL    HW128433   5.502   2.405  12.464
42198SOL    HW228434   5.637   2.370  12.521
42199SOL     OW28435   9.539  10.384  12.197
42199SOL    HW128436   9.451  10.362  12.229
42199SOL    HW228437   9.524  10.439  12.120
42200SOL     OW28438   4.692  10.850   3.533
42200SOL    HW128439   4.783  10.821   3.526
42200SOL    HW228440   4.688  10.895   3.617
42201SOL     OW28441  14.150  14.465   9.370
42201SOL    HW128442  14.116  14.508   9.292
42201SOL    HW228443  14.152  14.534   9.436
42202SOL     OW28444   2.525   2.065  12.623
42202SOL    HW128445   2.455   2.125  12.650
42202SOL    HW228446   2.605   2.103  12.661
42203SOL     OW28447  10.757  13.528   0.666
42203SOL    HW128448  10.737  13.434   0.674
42203SOL    HW228449  10.673  13.571   0.676
42204SOL     OW28450   7.400   9.066   2.624
42204SOL    HW128451   7.495   9.073   2.627
42204SOL    HW228452   7.369   9.154   2.647
42205SOL     OW28453   8.284  13.937   2.780
42205SOL    HW128454   8.250  14.002   2.841
42205SOL    HW228455   8.377  13.930   2.801
42206SOL     OW28456  14.647   1.667  13.477
42206SOL    HW128457  14.667   1.577  13.499
42206SOL    HW228458  14.692   1.719  13.544
42207SOL     OW28459  11.892   0.155   3.131
42207SOL    HW128460  11.859   0.243   3.149
42207SOL    HW228461  11.984   0.168   3.111
42208SOL     OW28462   1.671   0.599   4.867
42208SOL    HW128463   1.658   0.694   4.862
42208SOL    HW228464   1.607   0.563   4.805
42209SOL     OW28465   1.665   7.050  14.059
42209SOL    HW128466   1.617   7.109  14.001
42209SOL    HW228467   1.751   7.091  14.067
42210SOL     OW28468   9.846  11.010   2.227
42210SOL    HW128469   9.801  11.026   2.144
42210SOL    HW228470   9.873  10.918   2.222
42211SOL     OW28471  10.920   7.217  12.874
42211SOL    HW128472  10.884   7.129  12.873
42211SOL    HW228473  10.881   7.258  12.951
42212SOL     OW28474   4.174  12.472   8.430
42212SOL    HW128475   4.214  12.527   8.362
42212SOL    HW228476   4.225  12.391   8.429
42213SOL     OW28477  13.934   2.430  14.373
42213SOL    HW128478  14.012   2.486  14.376
42213SOL    HW228479  13.861   2.489  14.395
42214SOL     OW28480   0.816   1.995  13.411
42214SOL    HW128481   0.758   1.944  13.355
42214SOL    HW228482   0.832   1.939  13.487
42215SOL     OW28483  14.047   0.817   8.291
42215SOL    HW128484  13.960   0.815   8.251
42215SOL    HW228485  14.106   0.838   8.219
42216SOL     OW28486   4.004  12.776  11.397
42216SOL    HW128487   4.088  12.736  11.374
42216SOL    HW228488   3.954  12.774  11.315
42217SOL     OW28489   9.160   7.860   8.690
42217SOL    HW128490   9.175   7.864   8.596
42217SOL    HW228491   9.113   7.940   8.711
42218SOL     OW28492  13.677   3.445  13.188
42218SOL    HW128493  13.615   3.501  13.142
42218SOL    HW228494  13.644   3.440  13.278
42219SOL     OW28495  12.450   8.972  11.201
42219SOL    HW128496  12.481   8.969  11.111
42219SOL    HW228497  12.469   9.061  11.231
42220SOL     OW28498  10.377   5.151   3.958
42220SOL    HW128499  10.459   5.118   3.922
42220SOL    HW228500  10.330   5.073   3.986
42221SOL     OW28501  12.383  14.190  10.652
42221SOL    HW128502  12.470  14.224  10.630
42221SOL    HW228503  12.376  14.202  10.747
42222SOL     OW28504   6.989  12.988   9.433
42222SOL    HW128505   7.034  13.070   9.457
42222SOL    HW228506   6.904  13.016   9.400
42223SOL     OW28507  13.823   3.367   4.896
42223SOL    HW128508  13.816   3.456   4.861
42223SOL    HW228509  13.824   3.379   4.991
42224SOL     OW28510  12.763   4.997   6.172
42224SOL    HW128511  12.836   5.051   6.202
42224SOL    HW228512  12.739   5.034   6.087
42225SOL     OW28513   6.485   6.766   7.309
42225SOL    HW128514   6.578   6.744   7.312
42225SOL    HW228515   6.478   6.849   7.356
42226SOL     OW28516  12.986   1.889   5.978
42226SOL    HW128517  12.948   1.977   5.977
42226SOL    HW228518  12.966   1.854   5.891
42227SOL     OW28519  10.407  14.852  12.891
42227SOL    HW128520  10.365  14.801  12.822
42227SOL    HW228521  10.345   0.044  12.910
42228SOL     OW28522   2.971   2.348  13.889
42228SOL    HW128523   2.882   2.382  13.878
42228SOL    HW228524   2.998   2.379  13.975
42229SOL     OW28525   8.336   9.532  11.817
42229SOL    HW128526   8.281   9.606  11.791
42229SOL    HW228527   8.277   9.474  11.865
42230SOL     OW28528  12.436  10.540  13.560
42230SOL    HW128529  12.433  10.633  13.537
42230SOL    HW228530  12.353  10.524  13.605
42231SOL     OW28531   3.387   8.071  12.420
42231SOL    HW128532   3.463   8.041  12.471
42231SOL    HW228533   3.333   8.117  12.484
42232SOL     OW28534   5.050  13.737  13.352
42232SOL    HW128535   5.023  13.763  13.264
42232SOL    HW228536   5.098  13.813  13.385
42233SOL     OW28537   1.581   2.639   9.121
42233SOL    HW128538   1.492   2.619   9.147
42233SOL    HW228539   1.635   2.611   9.195
42234SOL     OW28540   1.792  14.444   5.082
42234SOL    HW128541   1.763  14.459   4.992
42234SOL    HW228542   1.713  14.456   5.135
42235SOL     OW28543   4.040  10.844   3.028
42235SOL    HW128544   3.967  10.782   3.032
42235SOL    HW228545   3.998  10.930   3.028
42236SOL     OW28546  12.798   7.723   8.299
42236SOL    HW128547  12.756   7.790   8.354
42236SOL    HW228548  12.726   7.685   8.249
42237SOL     OW28549   6.950  13.790  11.098
42237SOL    HW128550   6.988  13.878  11.092
42237SOL    HW228551   6.993  13.751  11.174
42238SOL     OW28552   4.157  12.630   4.617
42238SOL    HW128553   4.195  12.716   4.600
42238SOL    HW228554   4.217  12.568   4.577
42239SOL     OW28555  14.522   6.616   3.946
42239SOL    HW128556  14.463   6.691   3.937
42239SOL    HW228557  14.502   6.561   3.871
42240SOL     OW28558  11.526  11.515  11.554
42240SOL    HW128559  11.526  11.520  11.649
42240SOL    HW228560  11.470  11.441  11.533
42241SOL     OW28561   9.169   1.005   6.870
42241SOL    HW128562   9.083   0.972   6.896
42241SOL    HW228563   9.179   1.086   6.920
42242SOL     OW28564   8.235   0.258  11.884
42242SOL    HW128565   8.321   0.298  11.898
42242SOL    HW228566   8.196   0.309  11.813
42243SOL     OW28567   4.039  12.818   6.687
42243SOL    HW128568   4.085  12.802   6.770
42243SOL    HW228569   4.103  12.863   6.632
42244SOL     OW28570  10.762   0.539   2.644
42244SOL    HW128571  10.716   0.463   2.680
42244SOL    HW228572  10.706   0.613   2.663
42245SOL     OW28573   4.642   9.956   5.452
42245SOL    HW128574   4.682   9.935   5.537
42245SOL    HW228575   4.608  10.044   5.463
42246SOL     OW28576   0.283   6.934  10.360
42246SOL    HW128577   0.258   6.842  10.358
42246SOL    HW228578   0.335   6.944  10.439
42247SOL     OW28579  10.261   0.588   5.318
42247SOL    HW128580  10.290   0.561   5.230
42247SOL    HW228581  10.336   0.568   5.374
42248SOL     OW28582  13.612  14.442   5.496
42248SOL    HW128583  13.671  14.424   5.423
42248SOL    HW228584  13.666  14.488   5.561
42249SOL     OW28585   5.772   1.452  10.101
42249SOL    HW128586   5.685   1.422  10.125
42249SOL    HW228587   5.811   1.378  10.054
42250SOL     OW28588   3.630   4.232   6.798
42250SOL    HW128589   3.625   4.200   6.888
42250SOL    HW228590   3.631   4.328   6.807
42251SOL     OW28591   3.491   3.861   0.863
42251SOL    HW128592   3.403   3.882   0.895
42251SOL    HW228593   3.489   3.887   0.771
42252SOL     OW28594  11.505   7.678   2.181
42252SOL    HW128595  11.500   7.726   2.264
42252SOL    HW228596  11.426   7.625   2.180
42253SOL     OW28597   4.064   2.036   9.094
42253SOL    HW128598   4.081   2.100   9.163
42253SOL    HW228599   4.072   1.952   9.137
42254SOL     OW28600   1.417  12.419   6.018
42254SOL    HW128601   1.457  12.433   5.932
42254SOL    HW228602   1.362  12.342   6.006
42255SOL     OW28603  14.274  14.311   3.104
42255SOL    HW128604  14.222  14.248   3.152
42255SOL    HW228605  14.215  14.344   3.036
42256SOL     OW28606   9.615   7.667   1.247
42256SOL    HW128607   9.646   7.584   1.209
42256SOL    HW228608   9.696   7.716   1.265
42257SOL     OW28609   6.805  11.109   2.648
42257SOL    HW128610   6.853  11.125   2.567
42257SOL    HW228611   6.872  11.082   2.711
42258SOL     OW28612   3.421  13.956   6.522
42258SOL    HW128613   3.403  13.890   6.455
42258SOL    HW228614   3.512  13.940   6.548
42259SOL     OW28615  12.639  10.168   9.195
42259SOL    HW128616  12.622  10.107   9.123
42259SOL    HW228617  12.647  10.253   9.153
42260SOL     OW28618  10.894   8.340  10.730
42260SOL    HW128619  10.931   8.267  10.779
42260SOL    HW228620  10.966   8.374  10.678
42261SOL     OW28621   2.104  14.085   2.177
42261SOL    HW128622   2.140  14.009   2.131
42261SOL    HW228623   2.085  14.147   2.107
42262SOL     OW28624   9.607   8.052  11.852
42262SOL    HW128625   9.587   7.961  11.877
42262SOL    HW228626   9.699   8.063  11.875
42263SOL     OW28627   5.549   1.013   4.985
42263SOL    HW128628   5.611   0.941   4.998
42263SOL    HW228629   5.495   0.983   4.912
42264SOL     OW28630   3.287   8.600   6.168
42264SOL    HW128631   3.359   8.610   6.105
42264SOL    HW228632   3.306   8.665   6.236
42265SOL     OW28633   3.419   6.951   4.033
42265SOL    HW128634   3.482   6.880   4.045
42265SOL    HW228635   3.471   7.024   4.001
42266SOL     OW28636   5.255   7.177   3.190
42266SOL    HW128637   5.190   7.156   3.123
42266SOL    HW228638   5.254   7.102   3.249
42267SOL     OW28639   5.847  14.682   9.572
42267SOL    HW128640   5.855  14.770   9.609
42267SOL    HW228641   5.929  14.638   9.598
42268SOL     OW28642   1.148  13.811   4.452
42268SOL    HW128643   1.223  13.785   4.506
42268SOL    HW228644   1.124  13.897   4.486
42269SOL     OW28645   1.085   2.013   9.115
42269SOL    HW128646   1.077   2.067   9.037
42269SOL    HW228647   1.159   2.049   9.163
42270SOL     OW28648   8.468   6.105   7.770
42270SOL    HW128649   8.372   6.102   7.768
42270SOL    HW228650   8.495   6.091   7.680
42271SOL     OW28651   6.016  14.373  11.725
42271SOL    HW128652   6.018  14.319  11.646
42271SOL    HW228653   5.989  14.460  11.694
42272SOL     OW28654   8.257   3.242   3.482
42272SOL    HW128655   8.188   3.297   3.519
42272SOL    HW228656   8.339   3.281   3.514
42273SOL     OW28657   8.509  13.166  12.280
42273SOL    HW128658   8.510  13.248  12.232
42273SOL    HW228659   8.508  13.098  12.212
42274SOL     OW28660  13.075   7.895  13.291
42274SOL    HW128661  13.020   7.936  13.357
42274SOL    HW228662  13.091   7.964  13.227
42275SOL     OW28663  10.862  12.247   7.553
42275SOL    HW128664  10.910  12.168   7.577
42275SOL    HW228665  10.831  12.230   7.464
42276SOL     OW28666   3.167  11.228  12.737
42276SOL    HW128667   3.176  11.228  12.642
42276SOL    HW228668   3.072  11.225  12.752
42277SOL     OW28669   1.042   4.926   8.765
42277SOL    HW128670   0.990   4.846   8.754
42277SOL    HW228671   1.112   4.919   8.701
42278SOL     OW28672  12.549   0.055  12.196
42278SOL    HW128673  12.495   0.078  12.271
42278SOL    HW228674  12.613   0.126  12.190
42279SOL     OW28675  12.421   7.590  14.780
42279SOL    HW128676  12.376   7.662  14.735
42279SOL    HW228677  12.440   7.527  14.710
42280SOL     OW28678   5.913   0.732   5.964
42280SOL    HW128679   5.822   0.717   5.941
42280SOL    HW228680   5.952   0.771   5.885
42281SOL     OW28681  13.666   1.280   3.790
42281SOL    HW128682  13.630   1.248   3.873
42281SOL    HW228683  13.626   1.224   3.724
42282SOL     OW28684  11.266   8.234   6.632
42282SOL    HW128685  11.281   8.193   6.547
42282SOL    HW228686  11.194   8.296   6.617
42283SOL     OW28687   5.536  14.489   7.817
42283SOL    HW128688   5.528  14.428   7.890
42283SOL    HW228689   5.478  14.562   7.841
42284SOL     OW28690  10.561   9.816   7.660
42284SOL    HW128691  10.553   9.842   7.568
42284SOL    HW228692  10.622   9.878   7.698
42285SOL     OW28693   8.855  12.445   0.728
42285SOL    HW128694   8.950  12.453   0.727
42285SOL    HW228695   8.838  12.359   0.766
42286SOL     OW28696  14.597   0.308   9.488
42286SOL    HW128697  14.527   0.244   9.486
42286SOL    HW228698  14.555   0.388   9.519
42287SOL     OW28699  11.876   8.218  10.116
42287SOL    HW128700  11.886   8.310  10.090
42287SOL    HW228701  11.785   8.210  10.143
42288SOL     OW28702   7.407  10.049   2.717
42288SOL    HW128703   7.336  10.094   2.762
42288SOL    HW228704   7.372  10.029   2.630
42289SOL     OW28705  11.670  13.747   3.944
42289SOL    HW128706  11.636  13.741   4.033
42289SOL    HW228707  11.713  13.663   3.929
42290SOL     OW28708   2.099  14.494  10.062
42290SOL    HW128709   2.120  14.409  10.025
42290SOL    HW228710   2.163  14.506  10.132
42291SOL     OW28711   2.937   2.611   8.847
42291SOL    HW128712   2.975   2.653   8.770
42291SOL    HW228713   2.856   2.661   8.864
42292SOL     OW28714  13.007   6.968   5.924
42292SOL    HW128715  12.990   6.969   6.018
42292SOL    HW228716  13.069   7.040   5.910
42293SOL     OW28717  12.977   5.842   8.943
42293SOL    HW128718  12.995   5.838   8.849
42293SOL    HW228719  13.057   5.811   8.985
42294SOL     OW28720  13.660   3.183   7.563
42294SOL    HW128721  13.702   3.107   7.602
42294SOL    HW228722  13.732   3.239   7.534
42295SOL     OW28723   3.315   3.882  12.689
42295SOL    HW128724   3.241   3.865  12.746
42295SOL    HW228725   3.328   3.800  12.641
42296SOL     OW28726   8.578   6.432   2.975
42296SOL    HW128727   8.603   6.524   2.985
42296SOL    HW228728   8.549   6.425   2.884
42297SOL     OW28729   5.414   0.970   3.659
42297SOL    HW128730   5.443   1.051   3.618
42297SOL    HW228731   5.452   0.901   3.604
42298SOL     OW28732   8.508   7.600   1.576
42298SOL    HW128733   8.440   7.643   1.628
42298SOL    HW228734   8.464   7.574   1.495
42299SOL     OW28735   0.353   9.686   0.428
42299SOL    HW128736   0.424   9.751   0.428
42299SOL    HW228737   0.363   9.639   0.345
42300SOL     OW28738   1.299  11.237  11.535
42300SOL    HW128739   1.343  11.177  11.474
42300SOL    HW228740   1.322  11.324  11.503
42301SOL     OW28741  11.484   2.973   4.405
42301SOL    HW128742  11.458   2.940   4.491
42301SOL    HW228743  11.451   3.063   4.404
42302SOL     OW28744   5.631  13.522   2.729
42302SOL    HW128745   5.611  13.446   2.674
42302SOL    HW228746   5.567  13.517   2.801
42303SOL     OW28747   7.864   6.718   1.942
42303SOL    HW128748   7.773   6.696   1.961
42303SOL    HW228749   7.859   6.785   1.874
42304SOL     OW28750   9.890  12.722   6.777
42304SOL    HW128751   9.805  12.714   6.821
42304SOL    HW228752   9.926  12.805   6.808
42305SOL     OW28753   3.151   5.049   9.306
42305SOL    HW128754   3.080   5.108   9.280
42305SOL    HW228755   3.211   5.104   9.356
42306SOL     OW28756   0.466   2.895   3.665
42306SOL    HW128757   0.394   2.898   3.602
42306SOL    HW228758   0.458   2.810   3.708
42307SOL     OW28759   2.688  11.810   3.035
42307SOL    HW128760   2.682  11.864   2.956
42307SOL    HW228761   2.698  11.873   3.106
42308SOL     OW28762   5.768  12.099   6.514
42308SOL    HW128763   5.784  12.050   6.594
42308SOL    HW228764   5.832  12.170   6.515
42309SOL     OW28765   3.208   6.010   8.397
42309SOL    HW128766   3.142   6.069   8.434
42309SOL    HW228767   3.187   6.007   8.303
42310SOL     OW28768   9.332   1.894  13.325
42310SOL    HW128769   9.363   1.924  13.240
42310SOL    HW228770   9.405   1.844  13.361
42311SOL     OW28771   0.896   5.888  12.227
42311SOL    HW128772   0.940   5.969  12.251
42311SOL    HW228773   0.835   5.913  12.158
42312SOL     OW28774   5.215   2.046  12.709
42312SOL    HW128775   5.309   2.042  12.727
42312SOL    HW228776   5.192   2.138  12.719
42313SOL     OW28777  12.394  12.613  12.616
42313SOL    HW128778  12.473  12.564  12.641
42313SOL    HW228779  12.322  12.555  12.641
42314SOL     OW28780   3.242  11.994   8.854
42314SOL    HW128781   3.204  12.081   8.865
42314SOL    HW228782   3.328  12.010   8.816
42315SOL     OW28783   4.779  12.514   5.011
42315SOL    HW128784   4.691  12.476   5.013
42315SOL    HW228785   4.789  12.555   5.096
42316SOL     OW28786   0.262   0.313  11.844
42316SOL    HW128787   0.189   0.316  11.906
42316SOL    HW228788   0.299   0.401  11.847
42317SOL     OW28789  14.252  14.283  12.553
42317SOL    HW128790  14.266  14.310  12.462
42317SOL    HW228791  14.198  14.204  12.547
42318SOL     OW28792   4.394   6.603   4.265
42318SOL    HW128793   4.439   6.543   4.324
42318SOL    HW228794   4.313   6.626   4.310
42319SOL     OW28795  10.687  10.243  11.053
42319SOL    HW128796  10.761  10.283  11.007
42319SOL    HW228797  10.727  10.174  11.106
42320SOL     OW28798   8.242   5.441  14.239
42320SOL    HW128799   8.334   5.419  14.227
42320SOL    HW228800   8.200   5.357  14.256
42321SOL     OW28801   1.141   9.475  11.676
42321SOL    HW128802   1.077   9.537  11.640
42321SOL    HW228803   1.127   9.395  11.626
42322SOL     OW28804   4.695   3.878  10.404
42322SOL    HW128805   4.713   3.963  10.443
42322SOL    HW228806   4.623   3.842  10.456
42323SOL     OW28807  14.078   6.190   9.252
42323SOL    HW128808  14.064   6.099   9.226
42323SOL    HW228809  13.990   6.227   9.255
42324SOL     OW28810   0.669   3.849   1.808
42324SOL    HW128811   0.676   3.900   1.888
42324SOL    HW228812   0.754   3.805   1.799
42325SOL     OW28813  12.677  13.095  13.484
42325SOL    HW128814  12.717  13.067  13.402
42325SOL    HW228815  12.589  13.058  13.483
42326SOL     OW28816   1.552   7.280   8.934
42326SOL    HW128817   1.533   7.187   8.936
42326SOL    HW228818   1.638   7.289   8.976
42327SOL     OW28819  13.556   4.837   7.269
42327SOL    HW128820  13.479   4.779   7.273
42327SOL    HW228821  13.519   4.925   7.276
42328SOL     OW28822  12.041   9.020   7.966
42328SOL    HW128823  12.105   9.089   7.955
42328SOL    HW228824  12.035   8.978   7.880
42329SOL     OW28825   8.935  13.008   9.271
42329SOL    HW128826   8.866  12.992   9.207
42329SOL    HW228827   8.951  12.923   9.311
42330SOL     OW28828   8.526  13.937   4.550
42330SOL    HW128829   8.486  13.991   4.481
42330SOL    HW228830   8.577  13.871   4.502
42331SOL     OW28831   1.905  12.121   3.812
42331SOL    HW128832   1.823  12.133   3.860
42331SOL    HW228833   1.886  12.052   3.748
42332SOL     OW28834   5.346   0.359  11.721
42332SOL    HW128835   5.317   0.368  11.812
42332SOL    HW228836   5.434   0.322  11.727
42333SOL     OW28837  14.200   3.904  11.060
42333SOL    HW128838  14.166   3.964  10.994
42333SOL    HW228839  14.192   3.817  11.019
42334SOL     OW28840   5.685   3.582   3.758
42334SOL    HW128841   5.762   3.539   3.719
42334SOL    HW228842   5.705   3.675   3.753
42335SOL     OW28843   5.610  14.133   0.781
42335SOL    HW128844   5.572  14.181   0.854
42335SOL    HW228845   5.578  14.179   0.703
42336SOL     OW28846   2.856   0.849   0.675
42336SOL    HW128847   2.936   0.900   0.680
42336SOL    HW228848   2.822   0.866   0.587
42337SOL     OW28849   9.441  11.856   9.721
42337SOL    HW128850   9.373  11.873   9.786
42337SOL    HW228851   9.447  11.938   9.671
42338SOL     OW28852   8.814   9.211   9.658
42338SOL    HW128853   8.830   9.176   9.571
42338SOL    HW228854   8.881   9.170   9.713
42339SOL     OW28855   4.277  12.031   6.734
42339SOL    HW128856   4.270  12.030   6.639
42339SOL    HW228857   4.321  11.949   6.756
42340SOL     OW28858  13.982   1.949   7.575
42340SOL    HW128859  13.905   1.900   7.604
42340SOL    HW228860  14.043   1.945   7.648
42341SOL     OW28861   8.855  12.533   7.917
42341SOL    HW128862   8.840  12.439   7.911
42341SOL    HW228863   8.944  12.541   7.951
42342SOL     OW28864   6.115   2.846   3.981
42342SOL    HW128865   6.049   2.838   3.912
42342SOL    HW228866   6.197   2.817   3.940
42343SOL     OW28867  10.685  13.200   5.367
42343SOL    HW128868  10.708  13.165   5.281
42343SOL    HW228869  10.601  13.244   5.353
42344SOL     OW28870   2.720   2.807   9.362
42344SOL    HW128871   2.741   2.753   9.286
42344SOL    HW228872   2.728   2.897   9.330
42345SOL     OW28873  13.352  12.708  10.996
42345SOL    HW128874  13.346  12.612  10.997
42345SOL    HW228875  13.443  12.727  11.018
42346SOL     OW28876  11.894   2.292  11.478
42346SOL    HW128877  11.955   2.364  11.463
42346SOL    HW228878  11.922   2.223  11.418
42347SOL     OW28879   4.636  12.927   9.685
42347SOL    HW128880   4.616  12.937   9.592
42347SOL    HW228881   4.706  12.862   9.688
42348SOL     OW28882   4.193  12.017   9.168
42348SOL    HW128883   4.147  12.093   9.132
42348SOL    HW228884   4.229  11.973   9.091
42349SOL     OW28885   9.367   3.675  10.077
42349SOL    HW128886   9.374   3.623  10.157
42349SOL    HW228887   9.338   3.761  10.107
42350SOL     OW28888   0.214   6.067  10.433
42350SOL    HW128889   0.249   6.011  10.503
42350SOL    HW228890   0.197   6.151  10.476
42351SOL     OW28891   6.526   3.236   3.566
42351SOL    HW128892   6.572   3.319   3.551
42351SOL    HW228893   6.453   3.259   3.624
42352SOL     OW28894   0.383   4.622   7.901
42352SOL    HW128895   0.444   4.687   7.866
42352SOL    HW228896   0.347   4.664   7.980
42353SOL     OW28897   3.160  14.493  14.746
42353SOL    HW128898   3.157  14.454  14.833
42353SOL    HW228899   3.104  14.571  14.753
42354SOL     OW28900  13.169   0.071   2.972
42354SOL    HW128901  13.107   0.127   2.926
42354SOL    HW228902  13.199   0.126   3.045
42355SOL     OW28903  12.233   2.175   3.949
42355SOL    HW128904  12.218   2.238   3.878
42355SOL    HW228905  12.221   2.089   3.908
42356SOL     OW28906  12.385  13.872  13.089
42356SOL    HW128907  12.319  13.892  13.023
42356SOL    HW228908  12.468  13.873  13.042
42357SOL     OW28909   9.785   5.755  10.468
42357SOL    HW128910   9.836   5.831  10.495
42357SOL    HW228911   9.845   5.703  10.414
42358SOL     OW28912   2.208  13.628   8.959
42358SOL    HW128913   2.277  13.670   8.908
42358SOL    HW228914   2.154  13.701   8.991
42359SOL     OW28915  14.810   9.842   4.772
42359SOL    HW128916  14.832   9.776   4.707
42359SOL    HW228917  14.805   9.793   4.855
42360SOL     OW28918  13.785   8.183   8.220
42360SOL    HW128919  13.782   8.279   8.225
42360SOL    HW228920  13.854   8.165   8.155
42361SOL     OW28921   2.501   6.852  12.993
42361SOL    HW128922   2.461   6.782  13.044
42361SOL    HW228923   2.548   6.808  12.923
42362SOL     OW28924   8.819   7.857  10.976
42362SOL    HW128925   8.734   7.875  10.936
42362SOL    HW228926   8.857   7.944  10.989
42363SOL     OW28927   0.508   4.790   9.354
42363SOL    HW128928   0.540   4.880   9.366
42363SOL    HW228929   0.462   4.793   9.270
42364SOL     OW28930  10.920   9.929   9.297
42364SOL    HW128931  10.995   9.879   9.329
42364SOL    HW228932  10.852   9.916   9.362
42365SOL     OW28933  12.657   3.117   9.382
42365SOL    HW128934  12.655   3.205   9.420
42365SOL    HW228935  12.681   3.130   9.291
42366SOL     OW28936  12.059   4.631   4.077
42366SOL    HW128937  12.143   4.664   4.046
42366SOL    HW228938  12.061   4.537   4.056
42367SOL     OW28939   1.048   1.074   9.363
42367SOL    HW128940   1.022   1.067   9.455
42367SOL    HW228941   1.040   0.985   9.328
42368SOL     OW28942   8.917  13.728   6.932
42368SOL    HW128943   8.874  13.718   7.017
42368SOL    HW228944   8.855  13.777   6.879
42369SOL     OW28945   7.091  14.660   0.916
42369SOL    HW128946   7.104  14.733   0.976
42369SOL    HW228947   7.097  14.698   0.829
42370SOL     OW28948   0.696   1.605   0.045
42370SOL    HW128949   0.779   1.559   0.031
42370SOL    HW228950   0.644   1.546   0.100
42371SOL     OW28951   1.963   6.852  14.123
42371SOL    HW128952   1.937   6.861  14.215
42371SOL    HW228953   1.949   6.759  14.104
42372SOL     OW28954   2.336   7.106   6.487
42372SOL    HW128955   2.370   7.018   6.502
42372SOL    HW228956   2.353   7.153   6.569
42373SOL     OW28957   1.393  11.623   0.498
42373SOL    HW128958   1.428  11.704   0.537
42373SOL    HW228959   1.439  11.615   0.415
42374SOL     OW28960  13.649  14.375  13.111
42374SOL    HW128961  13.724  14.379  13.171
42374SOL    HW228962  13.641  14.465  13.078
42375SOL     OW28963  11.298   3.419   4.966
42375SOL    HW128964  11.340   3.390   4.885
42375SOL    HW228965  11.222   3.360   4.976
42376SOL     OW28966   8.541   3.928   3.407
42376SOL    HW128967   8.605   3.931   3.478
42376SOL    HW228968   8.458   3.953   3.449
42377SOL     OW28969   9.066   0.916  13.435
42377SOL    HW128970   9.059   0.894  13.342
42377SOL    HW228971   9.155   0.950  13.444
42378SOL     OW28972   7.929   6.066  10.187
42378SOL    HW128973   7.857   6.008  10.211
42378SOL    HW228974   7.902   6.152  10.218
42379SOL     OW28975   1.438  10.161   0.158
42379SOL    HW128976   1.500  10.122   0.220
42379SOL    HW228977   1.353  10.154   0.202
42380SOL     OW28978   3.037   4.469   8.054
42380SOL    HW128979   3.113   4.420   8.088
42380SOL    HW228980   3.038   4.452   7.960
42381SOL     OW28981  12.638   6.468   4.251
42381SOL    HW128982  12.651   6.506   4.338
42381SOL    HW228983  12.609   6.378   4.268
42382SOL     OW28984   9.733  14.233  13.729
42382SOL    HW128985   9.753  14.141  13.742
42382SOL    HW228986   9.638  14.235  13.713
42383SOL     OW28987   6.031   4.927  14.360
42383SOL    HW128988   6.029   4.897  14.451
42383SOL    HW228989   6.010   5.021  14.365
42384SOL     OW28990  14.367   4.224  10.994
42384SOL    HW128991  14.415   4.256  11.070
42384SOL    HW228992  14.283   4.194  11.029
42385SOL     OW28993   1.807   5.910  12.078
42385SOL    HW128994   1.848   5.905  12.165
42385SOL    HW228995   1.739   5.842  12.079
42386SOL     OW28996   7.177  12.528   0.447
42386SOL    HW128997   7.268  12.530   0.477
42386SOL    HW228998   7.131  12.478   0.514
42387SOL     OW28999   0.757   6.787  11.461
42387SOL    HW129000   0.819   6.791  11.534
42387SOL    HW229001   0.813   6.781  11.383
42388SOL     OW29002  12.403   4.627   6.365
42388SOL    HW129003  12.374   4.539   6.388
42388SOL    HW229004  12.341   4.656   6.298
42389SOL     OW29005  12.347   9.273  10.048
42389SOL    HW129006  12.414   9.256   9.982
42389SOL    HW229007  12.369   9.214  10.120
42390SOL     OW29008   1.556   1.050  13.064
42390SOL    HW129009   1.484   1.092  13.017
42390SOL    HW229010   1.514   1.003  13.135
42391SOL     OW29011   3.147   0.094   2.220
42391SOL    HW129012   3.106   0.021   2.266
42391SOL    HW229013   3.077   0.157   2.207
42392SOL     OW29014   4.466   0.560  12.325
42392SOL    HW129015   4.521   0.496  12.370
42392SOL    HW229016   4.448   0.521  12.239
42393SOL     OW29017  12.790  12.256   3.177
42393SOL    HW129018  12.857  12.188   3.171
42393SOL    HW229019  12.708  12.207   3.183
42394SOL     OW29020   9.926   7.820  13.990
42394SOL    HW129021   9.974   7.900  13.969
42394SOL    HW229022   9.841   7.851  14.022
42395SOL     OW29023   2.024   4.162   1.621
42395SOL    HW129024   2.057   4.190   1.535
42395SOL    HW229025   1.928   4.169   1.613
42396SOL     OW29026   7.726  11.080  12.234
42396SOL    HW129027   7.777  11.077  12.153
42396SOL    HW229028   7.665  11.153  12.222
42397SOL     OW29029  10.857  14.704  14.676
42397SOL    HW129030  10.831  14.719  14.767
42397SOL    HW229031  10.919  14.631  14.680
42398SOL     OW29032   8.760   9.714   2.424
42398SOL    HW129033   8.712   9.748   2.349
42398SOL    HW229034   8.839   9.768   2.429
42399SOL     OW29035  10.631  11.731   9.560
42399SOL    HW129036  10.607  11.796   9.625
42399SOL    HW229037  10.726  11.729   9.561
42400SOL     OW29038   5.560  14.542   9.471
42400SOL    HW129039   5.542  14.621   9.419
42400SOL    HW229040   5.633  14.567   9.528
42401SOL     OW29041  11.985  10.926   1.350
42401SOL    HW129042  11.963  11.007   1.306
42401SOL    HW229043  11.960  10.857   1.289
42402SOL     OW29044  11.234  12.746   7.700
42402SOL    HW129045  11.243  12.691   7.622
42402SOL    HW229046  11.302  12.715   7.759
42403SOL     OW29047  11.058   8.552   4.708
42403SOL    HW129048  10.995   8.503   4.761
42403SOL    HW229049  11.022   8.548   4.619
42404SOL     OW29050   4.196  10.630   1.035
42404SOL    HW129051   4.163  10.701   0.980
42404SOL    HW229052   4.280  10.606   0.996
42405SOL     OW29053  11.580   3.268   7.128
42405SOL    HW129054  11.646   3.334   7.107
42405SOL    HW229055  11.624   3.208   7.189
42406SOL     OW29056   4.842   8.800  12.989
42406SOL    HW129057   4.902   8.726  12.998
42406SOL    HW229058   4.782   8.774  12.919
42407SOL     OW29059  11.067   4.189  13.111
42407SOL    HW129060  10.972   4.197  13.116
42407SOL    HW229061  11.095   4.169  13.200
42408SOL     OW29062   2.450   2.474   2.830
42408SOL    HW129063   2.385   2.424   2.879
42408SOL    HW229064   2.529   2.472   2.885
42409SOL     OW29065   7.103  14.677  10.294
42409SOL    HW129066   7.183  14.638  10.328
42409SOL    HW229067   7.042  14.676  10.367
42410SOL     OW29068  10.104   9.798   8.244
42410SOL    HW129069  10.019   9.831   8.273
42410SOL    HW229070  10.124   9.849   8.165
42411SOL     OW29071   0.647   5.342   6.614
42411SOL    HW129072   0.583   5.296   6.668
42411SOL    HW229073   0.730   5.299   6.634
42412SOL     OW29074   0.270  13.992   4.301
42412SOL    HW129075   0.198  14.055   4.308
42412SOL    HW229076   0.309  13.991   4.388
42413SOL     OW29077   6.891   4.734   6.961
42413SOL    HW129078   6.908   4.643   6.985
42413SOL    HW229079   6.799   4.734   6.933
42414SOL     OW29080  10.630   2.691   5.704
42414SOL    HW129081  10.627   2.753   5.776
42414SOL    HW229082  10.616   2.744   5.626
42415SOL     OW29083   9.829   2.152   0.783
42415SOL    HW129084   9.765   2.095   0.824
42415SOL    HW229085   9.804   2.240   0.811
42416SOL     OW29086   1.129   6.248   1.781
42416SOL    HW129087   1.125   6.163   1.825
42416SOL    HW229088   1.050   6.251   1.727
42417SOL     OW29089  12.815   2.407   0.152
42417SOL    HW129090  12.721   2.397   0.167
42417SOL    HW229091  12.847   2.317   0.140
42418SOL     OW29092  11.069   3.820  12.086
42418SOL    HW129093  10.974   3.812  12.096
42418SOL    HW229094  11.098   3.730  12.069
42419SOL     OW29095  11.748   9.726   6.621
42419SOL    HW129096  11.683   9.718   6.551
42419SOL    HW229097  11.710   9.679   6.695
42420SOL     OW29098   9.206   2.880  14.628
42420SOL    HW129099   9.236   2.880  14.719
42420SOL    HW229100   9.172   2.969  14.614
42421SOL     OW29101   8.944  11.429   6.011
42421SOL    HW129102   8.984  11.471   6.087
42421SOL    HW229103   8.861  11.395   6.043
42422SOL     OW29104  12.779  11.606  11.377
42422SOL    HW129105  12.851  11.545  11.392
42422SOL    HW229106  12.737  11.574  11.298
42423SOL     OW29107   7.705  12.792   2.732
42423SOL    HW129108   7.622  12.835   2.710
42423SOL    HW229109   7.770  12.837   2.678
42424SOL     OW29110  12.853   4.451  13.862
42424SOL    HW129111  12.904   4.523  13.825
42424SOL    HW229112  12.846   4.387  13.791
42425SOL     OW29113  10.302   5.261   1.407
42425SOL    HW129114  10.355   5.336   1.433
42425SOL    HW229115  10.324   5.247   1.315
42426SOL     OW29116   2.633   4.244   5.902
42426SOL    HW129117   2.710   4.206   5.861
42426SOL    HW229118   2.567   4.248   5.832
42427SOL     OW29119   5.290  14.132  10.336
42427SOL    HW129120   5.247  14.055  10.373
42427SOL    HW229121   5.218  14.189  10.309
42428SOL     OW29122  14.665  14.422   0.765
42428SOL    HW129123  14.638  14.335   0.737
42428SOL    HW229124  14.584  14.473   0.766
42429SOL     OW29125   8.677   9.107   0.412
42429SOL    HW129126   8.696   9.017   0.383
42429SOL    HW229127   8.752   9.131   0.466
42430SOL     OW29128  11.229  12.679  11.716
42430SOL    HW129129  11.268  12.727  11.789
42430SOL    HW229130  11.184  12.746  11.664
42431SOL     OW29131   2.047  11.854  10.194
42431SOL    HW129132   1.973  11.795  10.179
42431SOL    HW229133   2.117  11.796  10.224
42432SOL     OW29134  11.793  11.243   5.668
42432SOL    HW129135  11.847  11.177   5.625
42432SOL    HW229136  11.834  11.326   5.645
42433SOL     OW29137   5.313   1.142  14.141
42433SOL    HW129138   5.254   1.123  14.068
42433SOL    HW229139   5.387   1.188  14.101
42434SOL     OW29140   9.341   4.420  10.300
42434SOL    HW129141   9.313   4.431  10.390
42434SOL    HW229142   9.415   4.480  10.289
42435SOL     OW29143  12.268   8.044   6.791
42435SOL    HW129144  12.188   8.019   6.744
42435SOL    HW229145  12.298   7.963   6.832
42436SOL     OW29146   6.472  14.180   8.473
42436SOL    HW129147   6.521  14.206   8.394
42436SOL    HW229148   6.531  14.121   8.519
42437SOL     OW29149   2.951   3.649  14.701
42437SOL    HW129150   3.034   3.691  14.677
42437SOL    HW229151   2.884   3.700  14.655
42438SOL     OW29152   4.636  10.321  12.711
42438SOL    HW129153   4.592  10.319  12.796
42438SOL    HW229154   4.631  10.412  12.683
42439SOL     OW29155  14.791   4.586   5.635
42439SOL    HW129156  14.876   4.572   5.593
42439SOL    HW229157  14.728   4.545   5.575
42440SOL     OW29158   3.005   0.866  10.486
42440SOL    HW129159   2.959   0.839  10.566
42440SOL    HW229160   2.936   0.898  10.428
42441SOL     OW29161  14.279  10.718  14.319
42441SOL    HW129162  14.299  10.693  14.409
42441SOL    HW229163  14.306  10.643  14.267
42442SOL     OW29164   3.118  12.350   5.150
42442SOL    HW129165   3.204  12.388   5.164
42442SOL    HW229166   3.084  12.336   5.239
42443SOL     OW29167  13.480  13.937   5.658
42443SOL    HW129168  13.502  14.025   5.627
42443SOL    HW229169  13.518  13.878   5.592
42444SOL     OW29170   8.659   0.020   2.588
42444SOL    HW129171   8.744  14.874   2.623
42444SOL    HW229172   8.598   0.005   2.661
42445SOL     OW29173   8.983   7.740   8.081
42445SOL    HW129174   8.987   7.830   8.051
42445SOL    HW229175   8.914   7.700   8.029
42446SOL     OW29176   5.579  13.070   5.970
42446SOL    HW129177   5.500  13.123   5.972
42446SOL    HW229178   5.564  13.000   6.034
42447SOL     OW29179   1.271   9.756  13.382
42447SOL    HW129180   1.209   9.765  13.309
42447SOL    HW229181   1.308   9.843  13.393
42448SOL     OW29182  11.714  14.581   4.999
42448SOL    HW129183  11.623  14.551   5.005
42448SOL    HW229184  11.708  14.677   5.006
42449SOL     OW29185  14.149   6.500   6.947
42449SOL    HW129186  14.073   6.538   6.991
42449SOL    HW229187  14.126   6.408   6.934
42450SOL     OW29188   6.603   1.578   7.974
42450SOL    HW129189   6.634   1.664   7.946
42450SOL    HW229190   6.524   1.596   8.025
42451SOL     OW29191   6.049  13.978   6.830
42451SOL    HW129192   5.974  13.926   6.800
42451SOL    HW229193   6.123  13.945   6.778
42452SOL     OW29194  11.184   8.907  10.128
42452SOL    HW129195  11.163   8.991  10.170
42452SOL    HW229196  11.195   8.929  10.035
42453SOL     OW29197  14.434   3.990   5.812
42453SOL    HW129198  14.422   3.929   5.885
42453SOL    HW229199  14.521   4.027   5.825
42454SOL     OW29200   8.409  14.015   4.785
42454SOL    HW129201   8.412  14.109   4.767
42454SOL    HW229202   8.455  13.974   4.712
42455SOL     OW29203   2.277   0.939   7.981
42455SOL    HW129204   2.365   0.940   7.945
42455SOL    HW229205   2.284   0.983   8.066
42456SOL     OW29206  10.115   5.939  10.374
42456SOL    HW129207  10.150   5.914  10.459
42456SOL    HW229208  10.036   5.989  10.393
42457SOL     OW29209   0.333   0.784   0.829
42457SOL    HW129210   0.263   0.849   0.836
42457SOL    HW229211   0.355   0.782   0.736
42458SOL     OW29212   7.177  14.460   6.789
42458SOL    HW129213   7.108  14.493   6.732
42458SOL    HW229214   7.232  14.536   6.808
42459SOL     OW29215   1.995   3.641   1.049
42459SOL    HW129216   1.983   3.733   1.074
42459SOL    HW229217   1.938   3.592   1.108
42460SOL     OW29218  10.027  11.341  12.008
42460SOL    HW129219   9.944  11.299  11.988
42460SOL    HW229220  10.014  11.432  11.982
42461SOL     OW29221   7.351   6.043  14.145
42461SOL    HW129222   7.313   6.051  14.233
42461SOL    HW229223   7.351   6.132  14.110
42462SOL     OW29224   3.911   2.875   6.786
42462SOL    HW129225   3.923   2.883   6.880
42462SOL    HW229226   3.864   2.793   6.774
42463SOL     OW29227  12.444   5.677  14.177
42463SOL    HW129228  12.370   5.619  14.198
42463SOL    HW229229  12.432   5.697  14.084
42464SOL     OW29230   5.608  12.296   7.143
42464SOL    HW129231   5.671  12.331   7.206
42464SOL    HW229232   5.637  12.207   7.127
42465SOL     OW29233  14.105   5.220  10.512
42465SOL    HW129234  14.105   5.278  10.436
42465SOL    HW229235  14.196   5.189  10.518
42466SOL     OW29236   5.093   9.905  10.864
42466SOL    HW129237   5.152   9.911  10.789
42466SOL    HW229238   5.005   9.902  10.825
42467SOL     OW29239   3.201   6.041   2.848
42467SOL    HW129240   3.239   6.090   2.921
42467SOL    HW229241   3.225   5.950   2.865
42468SOL     OW29242   7.570   4.073   1.944
42468SOL    HW129243   7.655   4.082   1.899
42468SOL    HW229244   7.590   4.023   2.023
42469SOL     OW29245   9.810  13.003  14.073
42469SOL    HW129246   9.897  12.965  14.085
42469SOL    HW229247   9.827  13.086  14.028
42470SOL     OW29248  13.369  11.663   3.193
42470SOL    HW129249  13.439  11.599   3.181
42470SOL    HW229250  13.291  11.620   3.158
42471SOL     OW29251  11.991  10.285  11.246
42471SOL    HW129252  11.983  10.219  11.315
42471SOL    HW229253  12.044  10.354  11.286
42472SOL     OW29254   8.938   8.893  12.538
42472SOL    HW129255   8.892   8.953  12.479
42472SOL    HW229256   8.884   8.891  12.618
42473SOL     OW29257  11.195  10.064   2.467
42473SOL    HW129258  11.155  10.089   2.384
42473SOL    HW229259  11.226  10.147   2.505
42474SOL     OW29260   5.817   7.987   9.557
42474SOL    HW129261   5.859   8.072   9.566
42474SOL    HW229262   5.871   7.927   9.608
42475SOL     OW29263   0.824   9.572   7.413
42475SOL    HW129264   0.860   9.591   7.326
42475SOL    HW229265   0.827   9.656   7.458
42476SOL     OW29266  13.454  11.759   9.919
42476SOL    HW129267  13.443  11.687   9.857
42476SOL    HW229268  13.375  11.756   9.973
42477SOL     OW29269   6.113  12.663  14.280
42477SOL    HW129270   6.145  12.587  14.329
42477SOL    HW229271   6.154  12.656  14.195
42478SOL     OW29272   1.640  11.761   4.761
42478SOL    HW129273   1.615  11.669   4.759
42478SOL    HW229274   1.598  11.800   4.685
42479SOL     OW29275  13.730   0.204   8.259
42479SOL    HW129276  13.787   0.277   8.284
42479SOL    HW229277  13.705   0.222   8.169
42480SOL     OW29278   3.701  10.181   4.024
42480SOL    HW129279   3.611  10.215   4.025
42480SOL    HW229280   3.754  10.253   4.058
42481SOL     OW29281  10.184  14.667   3.660
42481SOL    HW129282  10.151  14.619   3.736
42481SOL    HW229283  10.242  14.605   3.616
42482SOL     OW29284   9.880  11.283  12.333
42482SOL    HW129285   9.951  11.341  12.306
42482SOL    HW229286   9.804  11.312  12.283
42483SOL     OW29287   8.024   5.527   6.754
42483SOL    HW129288   8.069   5.567   6.680
42483SOL    HW229289   8.061   5.570   6.831
42484SOL     OW29290   0.001   5.699   8.553
42484SOL    HW129291  14.795   5.730   8.523
42484SOL    HW229292  14.869   5.605   8.567
42485SOL     OW29293   4.472   8.531   0.293
42485SOL    HW129294   4.439   8.575   0.371
42485SOL    HW229295   4.499   8.444   0.325
42486SOL     OW29296   3.992   7.302   2.834
42486SOL    HW129297   3.939   7.367   2.788
42486SOL    HW229298   4.061   7.352   2.877
42487SOL     OW29299   7.015   3.456   7.052
42487SOL    HW129300   7.045   3.448   6.961
42487SOL    HW229301   6.939   3.398   7.058
42488SOL     OW29302   0.447   5.128   3.015
42488SOL    HW129303   0.366   5.163   2.979
42488SOL    HW229304   0.458   5.173   3.099
42489SOL     OW29305   2.122   3.534   4.559
42489SOL    HW129306   2.189   3.601   4.545
42489SOL    HW229307   2.157   3.479   4.629
42490SOL     OW29308  13.638  13.886   7.824
42490SOL    HW129309  13.603  13.892   7.735
42490SOL    HW229310  13.659  13.793   7.836
42491SOL     OW29311  11.206   0.263  11.409
42491SOL    HW129312  11.215   0.359  11.404
42491SOL    HW229313  11.112   0.248  11.395
42492SOL     OW29314   2.088  14.811   6.910
42492SOL    HW129315   2.077  14.732   6.962
42492SOL    HW229316   2.172  14.800   6.866
42493SOL     OW29317   2.915   8.699   5.119
42493SOL    HW129318   2.918   8.790   5.148
42493SOL    HW229319   3.006   8.670   5.121
42494SOL     OW29320  11.397  12.847  10.763
42494SOL    HW129321  11.478  12.826  10.716
42494SOL    HW229322  11.397  12.942  10.770
42495SOL     OW29323   7.966   5.411  11.271
42495SOL    HW129324   8.001   5.499  11.259
42495SOL    HW229325   8.043   5.357  11.289
42496SOL     OW29326   2.592   2.421   5.555
42496SOL    HW129327   2.571   2.416   5.648
42496SOL    HW229328   2.625   2.511   5.543
42497SOL     OW29329   5.281   3.666   6.256
42497SOL    HW129330   5.206   3.659   6.315
42497SOL    HW229331   5.265   3.746   6.205
42498SOL     OW29332   4.495  12.865   1.889
42498SOL    HW129333   4.525  12.823   1.969
42498SOL    HW229334   4.575  12.897   1.847
42499SOL     OW29335  11.028  13.806   6.331
42499SOL    HW129336  10.935  13.820   6.349
42499SOL    HW229337  11.067  13.793   6.417
42500SOL     OW29338   3.221   9.635   2.004
42500SOL    HW129339   3.290   9.619   2.069
42500SOL    HW229340   3.175   9.551   1.997
42501SOL     OW29341  11.613  10.641   5.210
42501SOL    HW129342  11.601  10.736   5.202
42501SOL    HW229343  11.664  10.630   5.291
42502SOL     OW29344   3.096  11.590   5.241
42502SOL    HW129345   3.048  11.638   5.173
42502SOL    HW229346   3.173  11.643   5.258
42503SOL     OW29347   3.908   8.864   6.539
42503SOL    HW129348   3.821   8.896   6.513
42503SOL    HW229349   3.958   8.944   6.556
42504SOL     OW29350   3.702  10.748   5.027
42504SOL    HW129351   3.785  10.776   5.066
42504SOL    HW229352   3.651  10.715   5.102
42505SOL     OW29353  14.346   5.599   5.291
42505SOL    HW129354  14.308   5.526   5.242
42505SOL    HW229355  14.426   5.563   5.329
42506SOL     OW29356   7.553   9.348   3.434
42506SOL    HW129357   7.578   9.259   3.406
42506SOL    HW229358   7.613   9.368   3.506
42507SOL     OW29359  10.707   2.822   9.444
42507SOL    HW129360  10.628   2.837   9.496
42507SOL    HW229361  10.731   2.909   9.411
42508SOL     OW29362   5.262  10.306   6.355
42508SOL    HW129363   5.328  10.346   6.299
42508SOL    HW229364   5.287  10.331   6.444
42509SOL     OW29365   1.964  13.638   1.588
42509SOL    HW129366   1.880  13.662   1.549
42509SOL    HW229367   2.026  13.703   1.553
42510SOL     OW29368   8.411   2.929   2.129
42510SOL    HW129369   8.432   2.985   2.054
42510SOL    HW229370   8.459   2.969   2.202
42511SOL     OW29371   9.872  10.165   7.607
42511SOL    HW129372   9.907  10.251   7.634
42511SOL    HW229373   9.777  10.176   7.612
42512SOL     OW29374   2.952   1.949   9.256
42512SOL    HW129375   3.022   1.893   9.289
42512SOL    HW229376   2.883   1.889   9.229
42513SOL     OW29377   4.033   7.289   5.013
42513SOL    HW129378   4.112   7.310   5.063
42513SOL    HW229379   4.038   7.344   4.935
42514SOL     OW29380   7.961   6.632   3.091
42514SOL    HW129381   7.901   6.685   3.144
42514SOL    HW229382   8.020   6.593   3.155
42515SOL     OW29383   5.354   1.573  10.085
42515SOL    HW129384   5.359   1.589   9.991
42515SOL    HW229385   5.418   1.504  10.102
42516SOL     OW29386   7.746  10.420   1.629
42516SOL    HW129387   7.755  10.511   1.600
42516SOL    HW229388   7.791  10.370   1.561
42517SOL     OW29389   6.352  11.738   4.124
42517SOL    HW129390   6.282  11.673   4.121
42517SOL    HW229391   6.313  11.814   4.166
42518SOL     OW29392  10.464   9.671   7.253
42518SOL    HW129393  10.378   9.638   7.280
42518SOL    HW229394  10.477   9.750   7.305
42519SOL     OW29395   1.550  11.049   9.655
42519SOL    HW129396   1.601  11.069   9.576
42519SOL    HW229397   1.540  10.954   9.653
42520SOL     OW29398   1.720   8.703   2.489
42520SOL    HW129399   1.811   8.718   2.464
42520SOL    HW229400   1.724   8.631   2.552
42521SOL     OW29401  13.798  10.816  10.400
42521SOL    HW129402  13.802  10.876  10.326
42521SOL    HW229403  13.879  10.765  10.394
42522SOL     OW29404   8.416   4.958   4.930
42522SOL    HW129405   8.425   4.891   4.863
42522SOL    HW229406   8.372   5.031   4.885
42523SOL     OW29407  14.532   5.479  11.836
42523SOL    HW129408  14.578   5.552  11.795
42523SOL    HW229409  14.471   5.519  11.897
42524SOL     OW29410   5.504   9.271   2.734
42524SOL    HW129411   5.569   9.239   2.672
42524SOL    HW229412   5.484   9.360   2.704
42525SOL     OW29413   3.672  11.366  13.735
42525SOL    HW129414   3.756  11.393  13.771
42525SOL    HW229415   3.686  11.365  13.640
42526SOL     OW29416  12.117  10.569   8.379
42526SOL    HW129417  12.160  10.596   8.298
42526SOL    HW229418  12.070  10.647   8.409
42527SOL     OW29419   2.861   8.279   7.410
42527SOL    HW129420   2.940   8.274   7.355
42527SOL    HW229421   2.809   8.349   7.371
42528SOL     OW29422   8.773   9.353   5.047
42528SOL    HW129423   8.810   9.372   4.961
42528SOL    HW229424   8.788   9.259   5.059
42529SOL     OW29425  10.357   1.127   7.331
42529SOL    HW129426  10.418   1.053   7.338
42529SOL    HW229427  10.388   1.190   7.396
42530SOL     OW29428  10.721   9.413   6.604
42530SOL    HW129429  10.736   9.476   6.534
42530SOL    HW229430  10.656   9.352   6.568
42531SOL     OW29431   3.563   2.143   3.446
42531SOL    HW129432   3.633   2.125   3.383
42531SOL    HW229433   3.526   2.226   3.418
42532SOL     OW29434   2.078   1.002   5.086
42532SOL    HW129435   1.985   0.984   5.072
42532SOL    HW229436   2.082   1.096   5.101
42533SOL     OW29437   1.300  12.816   3.889
42533SOL    HW129438   1.330  12.726   3.877
42533SOL    HW229439   1.371  12.870   3.855
42534SOL     OW29440  14.669   4.405   7.226
42534SOL    HW129441  14.631   4.461   7.159
42534SOL    HW229442  14.722   4.465   7.280
42535SOL     OW29443  11.752  10.101  10.357
42535SOL    HW129444  11.803  10.075  10.280
42535SOL    HW229445  11.706  10.180  10.329
42536SOL     OW29446   1.104   4.182  12.169
42536SOL    HW129447   1.101   4.163  12.263
42536SOL    HW229448   1.193   4.212  12.153
42537SOL     OW29449  14.017  14.870  12.947
42537SOL    HW129450  13.946   0.053  12.933
42537SOL    HW229451  14.046  14.846  12.860
42538SOL     OW29452   6.313   2.194   2.484
42538SOL    HW129453   6.376   2.175   2.554
42538SOL    HW229454   6.228   2.200   2.529
42539SOL     OW29455   5.520   8.245   9.538
42539SOL    HW129456   5.508   8.250   9.632
42539SOL    HW229457   5.528   8.336   9.510
42540SOL     OW29458  13.829  12.095  10.290
42540SOL    HW129459  13.922  12.109  10.303
42540SOL    HW229460  13.803  12.161  10.225
42541SOL     OW29461   9.748   0.381   8.634
42541SOL    HW129462   9.763   0.471   8.664
42541SOL    HW229463   9.768   0.383   8.541
42542SOL     OW29464  13.502   2.289   0.739
42542SOL    HW129465  13.502   2.373   0.693
42542SOL    HW229466  13.502   2.223   0.670
42543SOL     OW29467   8.830   0.673   1.664
42543SOL    HW129468   8.910   0.657   1.714
42543SOL    HW229469   8.859   0.724   1.588
42544SOL     OW29470   8.058   3.268   5.539
42544SOL    HW129471   8.022   3.347   5.579
42544SOL    HW229472   8.012   3.260   5.455
42545SOL     OW29473  12.225   5.719   2.123
42545SOL    HW129474  12.168   5.781   2.168
42545SOL    HW229475  12.244   5.761   2.039
42546SOL     OW29476   9.227   5.897   7.886
42546SOL    HW129477   9.321   5.893   7.900
42546SOL    HW229478   9.189   5.861   7.965
42547SOL     OW29479  12.480   5.125   2.263
42547SOL    HW129480  12.574   5.120   2.284
42547SOL    HW229481  12.457   5.038   2.233
42548SOL     OW29482   9.183   1.263   8.844
42548SOL    HW129483   9.111   1.202   8.862
42548SOL    HW229484   9.143   1.350   8.853
42549SOL     OW29485  11.752   9.722  14.479
42549SOL    HW129486  11.809   9.679  14.416
42549SOL    HW229487  11.747   9.813  14.450
42550SOL     OW29488   5.794  14.748  11.333
42550SOL    HW129489   5.811  14.842  11.338
42550SOL    HW229490   5.704  14.738  11.363
42551SOL     OW29491   6.082   2.792   7.927
42551SOL    HW129492   6.112   2.713   7.972
42551SOL    HW229493   6.091   2.861   7.993
42552SOL     OW29494  12.919  13.979   5.019
42552SOL    HW129495  12.976  14.045   5.056
42552SOL    HW229496  12.976  13.926   4.963
42553SOL     OW29497  12.818  13.873  10.176
42553SOL    HW129498  12.870  13.794  10.162
42553SOL    HW229499  12.729  13.841  10.192
42554SOL     OW29500   1.945   2.526  10.575
42554SOL    HW129501   2.033   2.495  10.556
42554SOL    HW229502   1.888   2.456  10.545
42555SOL     OW29503  14.830   1.997  14.507
42555SOL    HW129504   0.003   2.020  14.430
42555SOL    HW229505   0.008   1.941  14.559
42556SOL     OW29506   5.435  14.168   7.541
42556SOL    HW129507   5.452  14.126   7.457
42556SOL    HW229508   5.492  14.122   7.603
42557SOL     OW29509   4.117  14.114  14.845
42557SOL    HW129510   4.109  14.025  14.811
42557SOL    HW229511   4.050  14.120   0.033
42558SOL     OW29512  11.285   0.736   7.505
42558SOL    HW129513  11.285   0.643   7.528
42558SOL    HW229514  11.196   0.766   7.523
42559SOL     OW29515   4.289   0.771   9.003
42559SOL    HW129516   4.361   0.772   9.067
42559SOL    HW229517   4.232   0.701   9.033
42560SOL     OW29518   8.892   3.552  13.816
42560SOL    HW129519   8.798   3.566  13.821
42560SOL    HW229520   8.901   3.458  13.799
42561SOL     OW29521  11.339   8.500   2.591
42561SOL    HW129522  11.332   8.564   2.663
42561SOL    HW229523  11.422   8.455   2.607
42562SOL     OW29524   0.447  13.547  11.543
42562SOL    HW129525   0.431  13.641  11.551
42562SOL    HW229526   0.507  13.539  11.469
42563SOL     OW29527  12.643   4.571  11.476
42563SOL    HW129528  12.584   4.576  11.551
42563SOL    HW229529  12.723   4.616  11.504
42564SOL     OW29530   2.179   9.135   6.357
42564SOL    HW129531   2.261   9.087   6.346
42564SOL    HW229532   2.130   9.083   6.421
42565SOL     OW29533  10.274   7.533  12.837
42565SOL    HW129534  10.187   7.572  12.838
42565SOL    HW229535  10.283   7.496  12.749
42566SOL     OW29536   4.855   1.329   3.459
42566SOL    HW129537   4.809   1.411   3.439
42566SOL    HW229538   4.788   1.262   3.455
42567SOL     OW29539  11.716   0.978  11.004
42567SOL    HW129540  11.692   1.023  11.085
42567SOL    HW229541  11.812   0.977  11.005
42568SOL     OW29542   9.428   8.595  12.083
42568SOL    HW129543   9.458   8.628  11.999
42568SOL    HW229544   9.495   8.532  12.110
42569SOL     OW29545   6.737  10.038   8.080
42569SOL    HW129546   6.784   9.986   8.016
42569SOL    HW229547   6.760   9.998   8.164
42570SOL     OW29548   6.443   2.523   8.138
42570SOL    HW129549   6.353   2.493   8.148
42570SOL    HW229550   6.469   2.494   8.051
42571SOL     OW29551   7.392  13.542  14.850
42571SOL    HW129552   7.473  13.585  14.876
42571SOL    HW229553   7.352  13.603  14.788
42572SOL     OW29554   6.853   0.431   8.301
42572SOL    HW129555   6.901   0.412   8.382
42572SOL    HW229556   6.767   0.391   8.315
42573SOL     OW29557   0.509   2.169   2.005
42573SOL    HW129558   0.585   2.169   2.064
42573SOL    HW229559   0.546   2.189   1.919
42574SOL     OW29560   1.010   4.051   0.962
42574SOL    HW129561   1.067   4.075   1.035
42574SOL    HW229562   1.064   4.066   0.884
42575SOL     OW29563  10.164   9.525   2.028
42575SOL    HW129564  10.137   9.434   2.017
42575SOL    HW229565  10.184   9.533   2.121
42576SOL     OW29566  11.630   3.386  10.113
42576SOL    HW129567  11.567   3.408  10.045
42576SOL    HW229568  11.664   3.470  10.143
42577SOL     OW29569   1.232   6.645   8.905
42577SOL    HW129570   1.322   6.633   8.875
42577SOL    HW229571   1.214   6.568   8.959
42578SOL     OW29572   8.909  12.092  10.136
42578SOL    HW129573   8.953  12.008  10.123
42578SOL    HW229574   8.875  12.115  10.050
42579SOL     OW29575   8.623  13.008  10.574
42579SOL    HW129576   8.561  12.937  10.556
42579SOL    HW229577   8.640  13.001  10.668
42580SOL     OW29578  13.085   1.893   9.545
42580SOL    HW129579  13.086   1.914   9.452
42580SOL    HW229580  13.141   1.816   9.554
42581SOL     OW29581   9.739  12.037   1.178
42581SOL    HW129582   9.658  12.021   1.129
42581SOL    HW229583   9.713  12.098   1.247
42582SOL     OW29584   2.491   8.254   8.596
42582SOL    HW129585   2.455   8.167   8.612
42582SOL    HW229586   2.581   8.238   8.569
42583SOL     OW29587   2.903  14.865   3.682
42583SOL    HW129588   2.955  14.807   3.627
42583SOL    HW229589   2.845   0.032   3.621
42584SOL     OW29590   4.440   9.877   1.473
42584SOL    HW129591   4.515   9.865   1.530
42584SOL    HW229592   4.387   9.798   1.485
42585SOL     OW29593  14.167  10.522  12.538
42585SOL    HW129594  14.189  10.431  12.560
42585SOL    HW229595  14.249  10.561  12.510
42586SOL     OW29596  10.756   7.261  13.107
42586SOL    HW129597  10.801   7.244  13.189
42586SOL    HW229598  10.700   7.337  13.125
42587SOL     OW29599  10.334  14.867  12.378
42587SOL    HW129600  10.319   0.056  12.312
42587SOL    HW229601  10.406   0.022  12.432
42588SOL     OW29602   6.411   8.049  10.799
42588SOL    HW129603   6.427   8.143  10.804
42588SOL    HW229604   6.489   8.013  10.755
42589SOL     OW29605   9.135  12.097   1.113
42589SOL    HW129606   9.163  12.148   1.037
42589SOL    HW229607   9.045  12.070   1.092
42590SOL     OW29608   6.040   0.329   5.526
42590SOL    HW129609   6.085   0.304   5.445
42590SOL    HW229610   5.959   0.370   5.497
42591SOL     OW29611   9.146  12.494   3.484
42591SOL    HW129612   9.193  12.577   3.478
42591SOL    HW229613   9.156  12.467   3.575
42592SOL     OW29614   5.700  11.348   6.805
42592SOL    HW129615   5.719  11.411   6.874
42592SOL    HW229616   5.784  11.305   6.788
42593SOL     OW29617  10.179   3.615   9.643
42593SOL    HW129618  10.198   3.652   9.729
42593SOL    HW229619  10.243   3.544   9.633
42594SOL     OW29620   4.154   7.007   9.437
42594SOL    HW129621   4.227   7.010   9.375
42594SOL    HW229622   4.094   7.075   9.406
42595SOL     OW29623  12.778  13.810   3.912
42595SOL    HW129624  12.862  13.845   3.939
42595SOL    HW229625  12.719  13.828   3.986
42596SOL     OW29626   7.650   9.604   2.606
42596SOL    HW129627   7.660   9.699   2.613
42596SOL    HW229628   7.632   9.588   2.513
42597SOL     OW29629   5.197   0.878  14.000
42597SOL    HW129630   5.168   0.793  13.966
42597SOL    HW229631   5.251   0.856  14.076
42598SOL     OW29632  10.329   9.876  13.779
42598SOL    HW129633  10.372   9.872  13.694
42598SOL    HW229634  10.257   9.938  13.767
42599SOL     OW29635   1.525  13.626   7.015
42599SOL    HW129636   1.542  13.708   7.062
42599SOL    HW229637   1.517  13.560   7.083
42600SOL     OW29638   4.435   0.644   6.869
42600SOL    HW129639   4.517   0.633   6.916
42600SOL    HW229640   4.451   0.719   6.811
42601SOL     OW29641   9.294   8.261   6.019
42601SOL    HW129642   9.277   8.212   6.099
42601SOL    HW229643   9.319   8.194   5.955
42602SOL     OW29644   0.436   7.046   5.248
42602SOL    HW129645   0.459   7.052   5.155
42602SOL    HW229646   0.445   7.136   5.280
42603SOL     OW29647   2.244   1.314   8.829
42603SOL    HW129648   2.210   1.399   8.857
42603SOL    HW229649   2.165   1.261   8.815
42604SOL     OW29650   9.684  13.343   0.388
42604SOL    HW129651   9.748  13.297   0.444
42604SOL    HW229652   9.710  13.321   0.299
42605SOL     OW29653   8.660   6.624   9.810
42605SOL    HW129654   8.698   6.699   9.764
42605SOL    HW229655   8.589   6.661   9.862
42606SOL     OW29656  12.651  13.076   5.057
42606SOL    HW129657  12.583  13.121   5.108
42606SOL    HW229658  12.705  13.033   5.123
42607SOL     OW29659   3.246   7.667   3.863
42607SOL    HW129660   3.243   7.575   3.890
42607SOL    HW229661   3.202   7.668   3.778
42608SOL     OW29662   9.108   3.637   1.359
42608SOL    HW129663   9.195   3.652   1.322
42608SOL    HW229664   9.078   3.556   1.317
42609SOL     OW29665   7.434   0.918   5.269
42609SOL    HW129666   7.363   0.982   5.273
42609SOL    HW229667   7.499   0.951   5.331
42610SOL     OW29668  10.952  10.108   0.214
42610SOL    HW129669  10.905  10.026   0.231
42610SOL    HW229670  10.969  10.145   0.300
42611SOL     OW29671   1.405   4.506   0.768
42611SOL    HW129672   1.418   4.590   0.810
42611SOL    HW229673   1.426   4.441   0.835
42612SOL     OW29674   4.818  10.133   2.148
42612SOL    HW129675   4.817  10.226   2.124
42612SOL    HW229676   4.902  10.121   2.193
42613SOL     OW29677   8.372  13.108   0.432
42613SOL    HW129678   8.396  13.200   0.446
42613SOL    HW229679   8.314  13.088   0.505
42614SOL     OW29680   1.595   6.762   3.975
42614SOL    HW129681   1.533   6.802   3.914
42614SOL    HW229682   1.615   6.831   4.038
42615SOL     OW29683  13.258   6.360  10.208
42615SOL    HW129684  13.284   6.409  10.286
42615SOL    HW229685  13.254   6.426  10.139
42616SOL     OW29686   5.680   1.870   4.289
42616SOL    HW129687   5.752   1.807   4.295
42616SOL    HW229688   5.642   1.872   4.376
42617SOL     OW29689   5.877   9.883  10.109
42617SOL    HW129690   5.925   9.859  10.030
42617SOL    HW229691   5.942   9.875  10.179
42618SOL     OW29692  14.405   1.563  14.189
42618SOL    HW129693  14.352   1.613  14.127
42618SOL    HW229694  14.464   1.511  14.135
42619SOL     OW29695   5.553   1.709   7.127
42619SOL    HW129696   5.462   1.701   7.155
42619SOL    HW229697   5.554   1.785   7.069
42620SOL     OW29698   2.806   4.436   9.240
42620SOL    HW129699   2.751   4.456   9.164
42620SOL    HW229700   2.866   4.368   9.208
42621SOL     OW29701   1.461   7.956  14.466
42621SOL    HW129702   1.396   8.027  14.462
42621SOL    HW229703   1.484   7.950  14.559
42622SOL     OW29704   9.500   1.352   7.682
42622SOL    HW129705   9.559   1.304   7.740
42622SOL    HW229706   9.428   1.291   7.664
42623SOL     OW29707   3.385  12.118   2.866
42623SOL    HW129708   3.441  12.126   2.789
42623SOL    HW229709   3.389  12.204   2.907
42624SOL     OW29710   2.168  13.558   1.327
42624SOL    HW129711   2.225  13.516   1.263
42624SOL    HW229712   2.189  13.516   1.410
42625SOL     OW29713  11.226  14.506   9.097
42625SOL    HW129714  11.190  14.537   9.013
42625SOL    HW229715  11.166  14.542   9.163
42626SOL     OW29716  12.959  10.390  11.938
42626SOL    HW129717  13.023  10.429  11.998
42626SOL    HW229718  12.941  10.459  11.875
42627SOL     OW29719  13.448  10.962   7.232
42627SOL    HW129720  13.374  10.955   7.173
42627SOL    HW229721  13.502  11.033   7.196
42628SOL     OW29722   6.952   0.054   2.955
42628SOL    HW129723   6.961  14.863   3.020
42628SOL    HW229724   7.026   0.042   2.895
42629SOL     OW29725   3.700   1.024  11.258
42629SOL    HW129726   3.701   1.117  11.233
42629SOL    HW229727   3.609   1.006  11.278
42630SOL     OW29728  11.942   4.110   0.605
42630SOL    HW129729  11.848   4.129   0.603
42630SOL    HW229730  11.974   4.135   0.518
42631SOL     OW29731   9.159   2.114   9.022
42631SOL    HW129732   9.182   2.192   9.072
42631SOL    HW229733   9.198   2.041   9.070
42632SOL     OW29734   7.684  11.655   7.233
42632SOL    HW129735   7.590  11.671   7.236
42632SOL    HW229736   7.696  11.571   7.277
42633SOL     OW29737  11.591   1.671   0.339
42633SOL    HW129738  11.512   1.694   0.290
42633SOL    HW229739  11.630   1.599   0.290
42634SOL     OW29740  12.128   7.544   5.336
42634SOL    HW129741  12.033   7.544   5.341
42634SOL    HW229742  12.148   7.560   5.244
42635SOL     OW29743  11.045   5.130  10.071
42635SOL    HW129744  10.987   5.203  10.092
42635SOL    HW229745  10.999   5.080  10.004
42636SOL     OW29746   1.812   0.197   8.577
42636SOL    HW129747   1.826   0.251   8.500
42636SOL    HW229748   1.893   0.203   8.627
42637SOL     OW29749   8.601   9.963  13.583
42637SOL    HW129750   8.545  10.026  13.628
42637SOL    HW229751   8.660  10.016  13.530
42638SOL     OW29752  11.042  12.244  10.924
42638SOL    HW129753  10.979  12.184  10.964
42638SOL    HW229754  11.110  12.255  10.990
42639SOL     OW29755   3.519   8.115   2.211
42639SOL    HW129756   3.430   8.146   2.227
42639SOL    HW229757   3.548   8.080   2.296
42640SOL     OW29758   9.724   6.194   9.048
42640SOL    HW129759   9.732   6.107   9.087
42640SOL    HW229760   9.693   6.178   8.959
42641SOL     OW29761   7.797  12.706  12.835
42641SOL    HW129762   7.704  12.682  12.836
42641SOL    HW229763   7.798  12.797  12.865
42642SOL     OW29764  12.688   6.253  12.997
42642SOL    HW129765  12.748   6.281  12.928
42642SOL    HW229766  12.669   6.161  12.976
42643SOL     OW29767   7.781   9.567   9.842
42643SOL    HW129768   7.691   9.580   9.811
42643SOL    HW229769   7.778   9.488   9.894
42644SOL     OW29770   5.468   0.646   6.240
42644SOL    HW129771   5.413   0.671   6.315
42644SOL    HW229772   5.482   0.728   6.192
42645SOL     OW29773   3.954   3.568   2.262
42645SOL    HW129774   3.934   3.652   2.222
42645SOL    HW229775   4.047   3.553   2.242
42646SOL     OW29776   0.859   3.149  11.455
42646SOL    HW129777   0.899   3.084  11.396
42646SOL    HW229778   0.839   3.223  11.398
42647SOL     OW29779   7.619   4.214   9.508
42647SOL    HW129780   7.714   4.204   9.502
42647SOL    HW229781   7.585   4.124   9.505
42648SOL     OW29782   5.447  14.433   7.552
42648SOL    HW129783   5.455  14.454   7.645
42648SOL    HW229784   5.445  14.337   7.549
42649SOL     OW29785  12.891   4.196   1.826
42649SOL    HW129786  12.947   4.151   1.889
42649SOL    HW229787  12.943   4.272   1.799
42650SOL     OW29788   9.726   5.581  12.010
42650SOL    HW129789   9.807   5.587  12.061
42650SOL    HW229790   9.715   5.488  11.993
42651SOL     OW29791   6.105   2.276  12.348
42651SOL    HW129792   6.191   2.303  12.380
42651SOL    HW229793   6.090   2.190  12.388
42652SOL     OW29794   5.649   5.729   3.817
42652SOL    HW129795   5.738   5.711   3.785
42652SOL    HW229796   5.594   5.668   3.769
42653SOL     OW29797  11.225   3.006  10.749
42653SOL    HW129798  11.274   3.080  10.713
42653SOL    HW229799  11.161   3.047  10.808
42654SOL     OW29800  10.515   9.947   7.427
42654SOL    HW129801  10.445  10.011   7.439
42654SOL    HW229802  10.589   9.998   7.395
42655SOL     OW29803  10.074   0.604   4.620
42655SOL    HW129804  10.083   0.600   4.715
42655SOL    HW229805  10.109   0.521   4.588
42656SOL     OW29806   5.723   4.540   7.672
42656SOL    HW129807   5.704   4.580   7.587
42656SOL    HW229808   5.812   4.505   7.662
42657SOL     OW29809  14.288  13.124  12.583
42657SOL    HW129810  14.349  13.080  12.524
42657SOL    HW229811  14.218  13.060  12.596
42658SOL     OW29812   2.378  13.662   7.487
42658SOL    HW129813   2.285  13.663   7.466
42658SOL    HW229814   2.417  13.724   7.425
42659SOL     OW29815   6.496   1.072   9.590
42659SOL    HW129816   6.433   1.098   9.657
42659SOL    HW229817   6.486   1.137   9.521
42660SOL     OW29818  11.418   9.394   0.631
42660SOL    HW129819  11.368   9.453   0.575
42660SOL    HW229820  11.507   9.398   0.596
42661SOL     OW29821  14.772   6.707  12.938
42661SOL    HW129822  14.720   6.632  12.967
42661SOL    HW229823  14.854   6.669  12.905
42662SOL     OW29824  12.038  11.110   8.277
42662SOL    HW129825  11.951  11.128   8.313
42662SOL    HW229826  12.094  11.175   8.318
42663SOL     OW29827   5.794   1.898   7.951
42663SOL    HW129828   5.873   1.883   7.901
42663SOL    HW229829   5.740   1.955   7.895
42664SOL     OW29830   4.793   0.403   4.105
42664SOL    HW129831   4.768   0.341   4.037
42664SOL    HW229832   4.795   0.488   4.060
42665SOL     OW29833   9.512  10.678   3.504
42665SOL    HW129834   9.421  10.653   3.486
42665SOL    HW229835   9.551  10.689   3.417
42666SOL     OW29836   4.551   4.507   0.729
42666SOL    HW129837   4.502   4.570   0.676
42666SOL    HW229838   4.535   4.422   0.687
42667SOL     OW29839   3.027   1.258  14.863
42667SOL    HW129840   3.011   1.350   0.004
42667SOL    HW229841   2.940   1.221  14.851
42668SOL     OW29842   7.666   8.957   0.750
42668SOL    HW129843   7.735   8.989   0.692
42668SOL    HW229844   7.669   8.862   0.739
42669SOL     OW29845   1.098  14.357   2.026
42669SOL    HW129846   1.126  14.442   1.992
42669SOL    HW229847   1.007  14.349   1.997
42670SOL     OW29848   7.973   7.240   7.991
42670SOL    HW129849   7.940   7.162   8.037
42670SOL    HW229850   8.060   7.215   7.960
42671SOL     OW29851   1.842   4.574   3.109
42671SOL    HW129852   1.826   4.556   3.016
42671SOL    HW229853   1.793   4.654   3.127
42672SOL     OW29854   5.327  14.098   5.591
42672SOL    HW129855   5.362  14.183   5.619
42672SOL    HW229856   5.234  14.114   5.577
42673SOL     OW29857   5.818   5.517   3.141
42673SOL    HW129858   5.854   5.561   3.065
42673SOL    HW229859   5.859   5.430   3.141
42674SOL     OW29860   1.720   1.681   5.013
42674SOL    HW129861   1.741   1.667   5.105
42674SOL    HW229862   1.650   1.619   4.994
42675SOL     OW29863   3.036   8.045   8.411
42675SOL    HW129864   2.970   7.994   8.364
42675SOL    HW229865   3.104   8.063   8.346
42676SOL     OW29866   5.422  14.240   4.993
42676SOL    HW129867   5.494  14.273   5.047
42676SOL    HW229868   5.346  14.291   5.021
42677SOL     OW29869   8.955   6.222  11.705
42677SOL    HW129870   8.970   6.168  11.782
42677SOL    HW229871   9.011   6.299  11.719
42678SOL     OW29872   3.733   5.379  13.480
42678SOL    HW129873   3.690   5.325  13.546
42678SOL    HW229874   3.820   5.395  13.515
42679SOL     OW29875   7.080   0.360  10.605
42679SOL    HW129876   7.062   0.313  10.524
42679SOL    HW229877   7.170   0.389  10.597
42680SOL     OW29878   8.437   3.588   3.356
42680SOL    HW129879   8.459   3.503   3.318
42680SOL    HW229880   8.521   3.631   3.370
42681SOL     OW29881  14.216  12.986   5.129
42681SOL    HW129882  14.143  13.038   5.097
42681SOL    HW229883  14.209  12.990   5.224
42682SOL     OW29884   6.029   4.942  10.538
42682SOL    HW129885   6.123   4.941  10.518
42682SOL    HW229886   6.017   4.867  10.596
42683SOL     OW29887  10.691   0.240  10.606
42683SOL    HW129888  10.708   0.179  10.534
42683SOL    HW229889  10.718   0.192  10.684
42684SOL     OW29890  10.191   5.324   2.137
42684SOL    HW129891  10.160   5.235   2.151
42684SOL    HW229892  10.276   5.313   2.093
42685SOL     OW29893   7.640  13.743   4.796
42685SOL    HW129894   7.724  13.787   4.794
42685SOL    HW229895   7.657  13.659   4.840
42686SOL     OW29896   3.718  14.790   5.624
42686SOL    HW129897   3.711   0.001   5.594
42686SOL    HW229898   3.680  14.738   5.554
42687SOL     OW29899   6.825   5.612   1.969
42687SOL    HW129900   6.919   5.630   1.980
42687SOL    HW229901   6.783   5.698   1.977
42688SOL     OW29902  13.714   2.857  14.495
42688SOL    HW129903  13.719   2.762  14.499
42688SOL    HW229904  13.789   2.888  14.546
42689SOL     OW29905   4.101   4.215   7.542
42689SOL    HW129906   4.101   4.234   7.636
42689SOL    HW229907   4.188   4.242   7.512
42690SOL     OW29908  10.458  11.877  10.525
42690SOL    HW129909  10.492  11.891  10.614
42690SOL    HW229910  10.441  11.783  10.521
42691SOL     OW29911   0.138   1.579   7.094
42691SOL    HW129912   0.176   1.666   7.106
42691SOL    HW229913   0.047   1.589   7.123
42692SOL     OW29914  14.201  11.482   0.115
42692SOL    HW129915  14.171  11.487   0.024
42692SOL    HW229916  14.290  11.518   0.113
42693SOL     OW29917  10.785   2.477   1.100
42693SOL    HW129918  10.761   2.387   1.122
42693SOL    HW229919  10.734   2.497   1.022
42694SOL     OW29920  12.619   0.036   2.316
42694SOL    HW129921  12.593  14.824   2.305
42694SOL    HW229922  12.586   0.060   2.403
42695SOL     OW29923   9.751   8.933   0.073
42695SOL    HW129924   9.663   8.972   0.080
42695SOL    HW229925   9.807   9.006   0.046
42696SOL     OW29926   7.138   6.322  12.424
42696SOL    HW129927   7.090   6.261  12.481
42696SOL    HW229928   7.188   6.265  12.365
42697SOL     OW29929   9.529  12.444  13.253
42697SOL    HW129930   9.622  12.459  13.268
42697SOL    HW229931   9.502  12.384  13.323
42698SOL     OW29932   1.294   5.088   4.167
42698SOL    HW129933   1.227   5.025   4.195
42698SOL    HW229934   1.322   5.056   4.081
42699SOL     OW29935   4.194   2.565   7.187
42699SOL    HW129936   4.156   2.489   7.232
42699SOL    HW229937   4.188   2.543   7.094
42700SOL     OW29938   0.078   7.426  11.098
42700SOL    HW129939  14.862   7.422  11.092
42700SOL    HW229940   0.101   7.363  11.166
42701SOL     OW29941  11.199   5.143   4.516
42701SOL    HW129942  11.120   5.143   4.461
42701SOL    HW229943  11.249   5.067   4.485
42702SOL     OW29944   2.395   3.340   5.060
42702SOL    HW129945   2.359   3.284   5.129
42702SOL    HW229946   2.467   3.290   5.022
42703SOL     OW29947   7.756   4.307   2.156
42703SOL    HW129948   7.803   4.359   2.221
42703SOL    HW229949   7.815   4.304   2.081
42704SOL     OW29950   8.167   7.071   5.464
42704SOL    HW129951   8.168   6.984   5.426
42704SOL    HW229952   8.233   7.068   5.534
42705SOL     OW29953   1.780  11.155   6.559
42705SOL    HW129954   1.739  11.104   6.490
42705SOL    HW229955   1.855  11.102   6.587
42706SOL     OW29956  12.129  11.375   7.350
42706SOL    HW129957  12.085  11.313   7.292
42706SOL    HW229958  12.200  11.412   7.298
42707SOL     OW29959   3.609   6.535   6.494
42707SOL    HW129960   3.682   6.554   6.435
42707SOL    HW229961   3.580   6.622   6.524
42708SOL     OW29962   9.816   5.258  10.983
42708SOL    HW129963   9.817   5.164  10.963
42708SOL    HW229964   9.772   5.298  10.908
42709SOL     OW29965   6.939   0.263  10.363
42709SOL    HW129966   6.919   0.198  10.296
42709SOL    HW229967   6.854   0.292  10.395
42710SOL     OW29968   2.193   6.237  10.888
42710SOL    HW129969   2.149   6.215  10.806
42710SOL    HW229970   2.272   6.183  10.888
42711SOL     OW29971   4.400   0.592   6.349
42711SOL    HW129972   4.430   0.524   6.290
42711SOL    HW229973   4.310   0.567   6.371
42712SOL     OW29974  11.616  12.654   9.873
42712SOL    HW129975  11.618  12.721   9.805
42712SOL    HW229976  11.524  12.629   9.880
42713SOL     OW29977  14.151   4.874   0.909
42713SOL    HW129978  14.120   4.823   0.834
42713SOL    HW229979  14.244   4.855   0.914
42714SOL     OW29980   1.103   8.402   1.886
42714SOL    HW129981   1.048   8.479   1.873
42714SOL    HW229982   1.085   8.375   1.976
42715SOL     OW29983   6.119   5.754   6.746
42715SOL    HW129984   6.072   5.676   6.775
42715SOL    HW229985   6.098   5.820   6.812
42716SOL     OW29986  11.834  12.430  10.877
42716SOL    HW129987  11.893  12.381  10.934
42716SOL    HW229988  11.779  12.363  10.836
42717SOL     OW29989  10.103   8.245   3.477
42717SOL    HW129990  10.088   8.254   3.571
42717SOL    HW229991  10.015   8.242   3.438
42718SOL     OW29992   6.019  10.671   3.255
42718SOL    HW129993   6.066  10.588   3.256
42718SOL    HW229994   6.070  10.728   3.312
42719SOL     OW29995  13.638   9.781  13.223
42719SOL    HW129996  13.732   9.765  13.224
42719SOL    HW229997  13.618   9.811  13.312
42720SOL     OW29998   2.719   9.327   7.867
42720SOL    HW129999   2.718   9.299   7.958
42720SOL    HW230000   2.676   9.256   7.819
42721SOL     OW30001  14.412  12.200   5.359
42721SOL    HW130002  14.325  12.161   5.354
42721SOL    HW230003  14.442  12.205   5.269
42722SOL     OW30004   8.060   4.756  13.613
42722SOL    HW130005   8.086   4.841  13.648
42722SOL    HW230006   7.984   4.775  13.558
42723SOL     OW30007  12.303   2.274  12.471
42723SOL    HW130008  12.354   2.313  12.542
42723SOL    HW230009  12.337   2.316  12.392
42724SOL     OW30010   1.290   4.617   2.438
42724SOL    HW130011   1.371   4.598   2.485
42724SOL    HW230012   1.262   4.702   2.473
42725SOL     OW30013   3.624   2.736   0.523
42725SOL    HW130014   3.679   2.661   0.500
42725SOL    HW230015   3.543   2.697   0.557
42726SOL     OW30016   0.084  12.045   5.571
42726SOL    HW130017   0.146  12.117   5.582
42726SOL    HW230018   0.070  12.039   5.476
42727SOL     OW30019  12.187   8.401   1.431
42727SOL    HW130020  12.258   8.366   1.378
42727SOL    HW230021  12.154   8.325   1.480
42728SOL     OW30022   0.348   9.344   6.878
42728SOL    HW130023   0.333   9.317   6.787
42728SOL    HW230024   0.314   9.271   6.930
42729SOL     OW30025   2.894   5.847   0.864
42729SOL    HW130026   2.957   5.787   0.903
42729SOL    HW230027   2.925   5.859   0.774
42730SOL     OW30028   7.491  12.043   6.368
42730SOL    HW130029   7.539  12.061   6.287
42730SOL    HW230030   7.453  11.956   6.354
42731SOL     OW30031   3.211   6.910  11.667
42731SOL    HW130032   3.151   6.864  11.609
42731SOL    HW230033   3.155   6.949  11.734
42732SOL     OW30034  12.322  11.415  12.311
42732SOL    HW130035  12.411  11.449  12.325
42732SOL    HW230036  12.267  11.471  12.366
42733SOL     OW30037   6.281  13.377  12.692
42733SOL    HW130038   6.330  13.314  12.640
42733SOL    HW230039   6.190  13.350  12.683
42734SOL     OW30040  12.751  11.588   1.797
42734SOL    HW130041  12.661  11.576   1.828
42734SOL    HW230042  12.779  11.501   1.768
42735SOL     OW30043   3.562  14.600  12.734
42735SOL    HW130044   3.494  14.539  12.706
42735SOL    HW230045   3.516  14.683  12.747
42736SOL     OW30046   5.373   5.752  14.324
42736SOL    HW130047   5.366   5.846  14.311
42736SOL    HW230048   5.337   5.713  14.244
42737SOL     OW30049  14.438   6.113  13.669
42737SOL    HW130050  14.469   6.041  13.723
42737SOL    HW230051  14.511   6.133  13.611
42738SOL     OW30052  12.521   7.543  12.779
42738SOL    HW130053  12.483   7.515  12.696
42738SOL    HW230054  12.540   7.636  12.767
42739SOL     OW30055  12.912   3.018   8.572
42739SOL    HW130056  12.953   2.932   8.586
42739SOL    HW230057  12.888   3.017   8.479
42740SOL     OW30058  14.554   1.691   0.473
42740SOL    HW130059  14.641   1.716   0.507
42740SOL    HW230060  14.559   1.708   0.379
42741SOL     OW30061   8.524  10.673  12.885
42741SOL    HW130062   8.434  10.641  12.886
42741SOL    HW230063   8.525  10.743  12.950
42742SOL     OW30064   5.580   2.682   3.348
42742SOL    HW130065   5.506   2.644   3.302
42742SOL    HW230066   5.656   2.636   3.313
42743SOL     OW30067   9.731   0.173   8.156
42743SOL    HW130068   9.724   0.114   8.231
42743SOL    HW230069   9.722   0.116   8.079
42744SOL     OW30070   0.530   0.254  10.147
42744SOL    HW130071   0.503   0.327  10.203
42744SOL    HW230072   0.625   0.257  10.149
42745SOL     OW30073   4.400  10.213  11.269
42745SOL    HW130074   4.470  10.155  11.299
42745SOL    HW230075   4.444  10.277  11.213
42746SOL     OW30076   6.949   8.487  13.543
42746SOL    HW130077   7.022   8.489  13.482
42746SOL    HW230078   6.931   8.579  13.564
42747SOL     OW30079  11.940   3.842   5.684
42747SOL    HW130080  11.879   3.850   5.757
42747SOL    HW230081  11.998   3.918   5.692
42748SOL     OW30082  11.707   6.436   6.594
42748SOL    HW130083  11.615   6.445   6.619
42748SOL    HW230084  11.730   6.521   6.556
42749SOL     OW30085   7.601   2.210   4.097
42749SOL    HW130086   7.645   2.236   4.178
42749SOL    HW230087   7.608   2.114   4.096
42750SOL     OW30088   0.734  14.390  13.170
42750SOL    HW130089   0.681  14.457  13.126
42750SOL    HW230090   0.670  14.324  13.198
42751SOL     OW30091  12.899  12.867   4.946
42751SOL    HW130092  12.970  12.907   4.897
42751SOL    HW230093  12.923  12.775   4.953
42752SOL     OW30094   8.083   1.043   6.163
42752SOL    HW130095   8.129   1.124   6.184
42752SOL    HW230096   7.995   1.072   6.137
42753SOL     OW30097   2.545  12.410   9.738
42753SOL    HW130098   2.560  12.503   9.718
42753SOL    HW230099   2.495  12.377   9.664
42754SOL     OW30100  11.891   0.914  13.664
42754SOL    HW130101  11.974   0.959  13.646
42754SOL    HW230102  11.836   0.981  13.705
42755SOL     OW30103   0.494   7.892  11.382
42755SOL    HW130104   0.427   7.824  11.376
42755SOL    HW230105   0.507   7.904  11.476
42756SOL     OW30106   8.254  11.904   2.638
42756SOL    HW130107   8.277  11.931   2.549
42756SOL    HW230108   8.325  11.940   2.693
42757SOL     OW30109  13.181   2.913   4.442
42757SOL    HW130110  13.114   2.972   4.409
42757SOL    HW230111  13.166   2.910   4.537
42758SOL     OW30112  14.847   0.838  10.835
42758SOL    HW130113  14.863   0.744  10.844
42758SOL    HW230114  14.759   0.844  10.798
42759SOL     OW30115   5.476  13.273  14.465
42759SOL    HW130116   5.492  13.366  14.454
42759SOL    HW230117   5.451  13.243  14.377
42760SOL     OW30118  11.766   4.535  10.065
42760SOL    HW130119  11.735   4.621  10.038
42760SOL    HW230120  11.713   4.512  10.141
42761SOL     OW30121   5.431   3.344  10.826
42761SOL    HW130122   5.342   3.368  10.803
42761SOL    HW230123   5.424   3.254  10.857
42762SOL     OW30124  13.494  11.919   9.012
42762SOL    HW130125  13.498  11.974   8.934
42762SOL    HW230126  13.499  11.829   8.979
42763SOL     OW30127   3.267   1.815  12.760
42763SOL    HW130128   3.198   1.861  12.712
42763SOL    HW230129   3.320   1.885  12.798
42764SOL     OW30130  11.572   4.162  12.278
42764SOL    HW130131  11.488   4.134  12.314
42764SOL    HW230132  11.556   4.252  12.249
42765SOL     OW30133  11.820   5.881   8.820
42765SOL    HW130134  11.794   5.954   8.764
42765SOL    HW230135  11.813   5.916   8.909
42766SOL     OW30136   2.203   1.503   2.111
42766SOL    HW130137   2.230   1.520   2.021
42766SOL    HW230138   2.123   1.450   2.102
42767SOL     OW30139   5.415   7.148   8.205
42767SOL    HW130140   5.344   7.108   8.254
42767SOL    HW230141   5.376   7.225   8.164
42768SOL     OW30142  13.272   2.941   4.157
42768SOL    HW130143  13.267   2.865   4.215
42768SOL    HW230144  13.184   2.950   4.122
42769SOL     OW30145   2.696  11.785  10.625
42769SOL    HW130146   2.601  11.785  10.637
42769SOL    HW230147   2.711  11.848  10.555
42770SOL     OW30148   7.063   1.031   8.792
42770SOL    HW130149   6.992   1.015   8.854
42770SOL    HW230150   7.139   1.049   8.847
42771SOL     OW30151   0.755  11.329   1.625
42771SOL    HW130152   0.817  11.274   1.577
42771SOL    HW230153   0.804  11.407   1.648
42772SOL     OW30154  11.365   4.437  12.807
42772SOL    HW130155  11.337   4.504  12.745
42772SOL    HW230156  11.321   4.357  12.779
42773SOL     OW30157   5.196   9.382  12.089
42773SOL    HW130158   5.197   9.286  12.085
42773SOL    HW230159   5.288   9.407  12.079
42774SOL     OW30160   2.670  10.662  10.422
42774SOL    HW130161   2.704  10.717  10.352
42774SOL    HW230162   2.745  10.647  10.480
42775SOL     OW30163  10.769   1.942   6.040
42775SOL    HW130164  10.740   1.996   5.966
42775SOL    HW230165  10.859   1.968   6.056
42776SOL     OW30166   3.452   0.594   2.553
42776SOL    HW130167   3.461   0.530   2.623
42776SOL    HW230168   3.461   0.544   2.472
42777SOL     OW30169   1.733  11.670   4.251
42777SOL    HW130170   1.772  11.756   4.238
42777SOL    HW230171   1.805  11.609   4.240
42778SOL     OW30172  12.115   2.640   8.595
42778SOL    HW130173  12.208   2.644   8.571
42778SOL    HW230174  12.099   2.547   8.611
42779SOL     OW30175   3.141   4.776  10.315
42779SOL    HW130176   3.155   4.847  10.379
42779SOL    HW230177   3.228   4.760  10.279
42780SOL     OW30178   8.581   4.900   8.824
42780SOL    HW130179   8.618   4.955   8.893
42780SOL    HW230180   8.486   4.905   8.838
42781SOL     OW30181   3.617   1.112   1.282
42781SOL    HW130182   3.568   1.135   1.360
42781SOL    HW230183   3.582   1.027   1.256
42782SOL     OW30184  11.318  12.077   2.329
42782SOL    HW130185  11.406  12.060   2.362
42782SOL    HW230186  11.292  11.997   2.284
42783SOL     OW30187  13.955   0.873   3.194
42783SOL    HW130188  13.863   0.854   3.212
42783SOL    HW230189  13.960   0.969   3.194
42784SOL     OW30190   8.389  10.478   0.008
42784SOL    HW130191   8.311  10.424   0.023
42784SOL    HW230192   8.355  10.563  14.861
42785SOL     OW30193  12.624   1.196   5.444
42785SOL    HW130194  12.696   1.144   5.408
42785SOL    HW230195  12.661   1.236   5.523
42786SOL     OW30196   0.123   4.916   5.271
42786SOL    HW130197   0.044   4.932   5.324
42786SOL    HW230198   0.191   4.967   5.315
42787SOL     OW30199  13.739   3.575   1.529
42787SOL    HW130200  13.659   3.598   1.577
42787SOL    HW230201  13.779   3.505   1.580
42788SOL     OW30202  12.544   5.552   2.640
42788SOL    HW130203  12.601   5.486   2.680
42788SOL    HW230204  12.457   5.532   2.673
42789SOL     OW30205   4.881  14.556   1.144
42789SOL    HW130206   4.888  14.525   1.235
42789SOL    HW230207   4.845  14.481   1.097
42790SOL     OW30208   2.290   0.523   6.816
42790SOL    HW130209   2.200   0.493   6.803
42790SOL    HW230210   2.282   0.616   6.837
42791SOL     OW30211   3.678  12.543   9.085
42791SOL    HW130212   3.692  12.582   8.998
42791SOL    HW230213   3.708  12.610   9.146
42792SOL     OW30214  14.045   6.864  10.652
42792SOL    HW130215  14.075   6.902  10.735
42792SOL    HW230216  14.083   6.776  10.652
42793SOL     OW30217   6.521   6.308   3.820
42793SOL    HW130218   6.517   6.394   3.777
42793SOL    HW230219   6.574   6.323   3.899
42794SOL     OW30220   8.356  14.026   3.827
42794SOL    HW130221   8.299  14.002   3.901
42794SOL    HW230222   8.388  14.113   3.848
42795SOL     OW30223  14.095   3.930   2.719
42795SOL    HW130224  14.138   4.012   2.696
42795SOL    HW230225  14.082   3.935   2.814
42796SOL     OW30226   5.370   9.231   7.467
42796SOL    HW130227   5.358   9.257   7.376
42796SOL    HW230228   5.424   9.301   7.505
42797SOL     OW30229   5.678   5.256   2.707
42797SOL    HW130230   5.722   5.341   2.708
42797SOL    HW230231   5.588   5.276   2.732
42798SOL     OW30232  10.669   8.892   2.058
42798SOL    HW130233  10.746   8.850   2.096
42798SOL    HW230234  10.684   8.986   2.073
42799SOL     OW30235  14.870   6.373  13.156
42799SOL    HW130236   0.022   6.464  13.150
42799SOL    HW230237  14.782   6.376  13.119
42800SOL     OW30238  13.463  12.762   1.409
42800SOL    HW130239  13.419  12.682   1.378
42800SOL    HW230240  13.416  12.786   1.488
42801SOL     OW30241   8.308   6.328   6.134
42801SOL    HW130242   8.314   6.235   6.113
42801SOL    HW230243   8.312   6.373   6.050
42802SOL     OW30244   0.365   1.239  11.077
42802SOL    HW130245   0.305   1.244  11.003
42802SOL    HW230246   0.419   1.317  11.070
42803SOL     OW30247   2.381   0.573   5.388
42803SOL    HW130248   2.322   0.545   5.458
42803SOL    HW230249   2.464   0.528   5.407
42804SOL     OW30250   6.361  12.153  11.563
42804SOL    HW130251   6.280  12.121  11.604
42804SOL    HW230252   6.347  12.139  11.469
42805SOL     OW30253   8.514   2.645  10.019
42805SOL    HW130254   8.557   2.643   9.933
42805SOL    HW230255   8.553   2.720  10.063
42806SOL     OW30256   1.667   5.875   5.572
42806SOL    HW130257   1.731   5.855   5.641
42806SOL    HW230258   1.623   5.955   5.603
42807SOL     OW30259   6.205   3.197   5.458
42807SOL    HW130260   6.296   3.214   5.483
42807SOL    HW230261   6.154   3.260   5.509
42808SOL     OW30262  11.043   3.006   7.008
42808SOL    HW130263  11.015   3.067   7.076
42808SOL    HW230264  11.132   2.981   7.033
42809SOL     OW30265   0.753   0.199  11.977
42809SOL    HW130266   0.768   0.129  12.040
42809SOL    HW230267   0.762   0.280  12.029
42810SOL     OW30268   5.995   7.590  13.573
42810SOL    HW130269   6.087   7.613  13.588
42810SOL    HW230270   5.988   7.581  13.478
42811SOL     OW30271  11.262   3.433  10.187
42811SOL    HW130272  11.292   3.519  10.215
42811SOL    HW230273  11.271   3.434  10.092
42812SOL     OW30274  11.953  13.727   0.455
42812SOL    HW130275  12.019  13.660   0.436
42812SOL    HW230276  12.005  13.807   0.469
42813SOL     OW30277   3.268   0.267   4.765
42813SOL    HW130278   3.222   0.234   4.688
42813SOL    HW230279   3.236   0.357   4.774
42814SOL     OW30280   5.079   9.580   0.649
42814SOL    HW130281   5.081   9.612   0.739
42814SOL    HW230282   5.011   9.513   0.649
42815SOL     OW30283   0.909  12.886   8.753
42815SOL    HW130284   0.917  12.946   8.828
42815SOL    HW230285   0.981  12.824   8.764
42816SOL     OW30286   5.305   2.738   1.181
42816SOL    HW130287   5.243   2.746   1.108
42816SOL    HW230288   5.311   2.827   1.217
42817SOL     OW30289   4.688   2.293   4.237
42817SOL    HW130290   4.748   2.271   4.165
42817SOL    HW230291   4.636   2.214   4.250
42818SOL     OW30292   6.915   6.740   4.641
42818SOL    HW130293   6.890   6.671   4.703
42818SOL    HW230294   6.883   6.820   4.681
42819SOL     OW30295   8.280  14.632   7.740
42819SOL    HW130296   8.248  14.688   7.810
42819SOL    HW230297   8.289  14.546   7.780
42820SOL     OW30298   6.886  12.949  12.278
42820SOL    HW130299   6.793  12.960  12.258
42820SOL    HW230300   6.927  12.931  12.193
42821SOL     OW30301   1.887   3.291   0.357
42821SOL    HW130302   1.882   3.298   0.452
42821SOL    HW230303   1.796   3.283   0.328
42822SOL     OW30304   3.634   7.891   0.064
42822SOL    HW130305   3.695   7.922   0.131
42822SOL    HW230306   3.690   7.862  14.871
42823SOL     OW30307  12.450   3.944   9.845
42823SOL    HW130308  12.378   3.971   9.903
42823SOL    HW230309  12.516   3.909   9.903
42824SOL     OW30310   2.858   4.652  10.686
42824SOL    HW130311   2.866   4.746  10.667
42824SOL    HW230312   2.766   4.641  10.709
42825SOL     OW30313   9.404  11.392   5.057
42825SOL    HW130314   9.492  11.399   5.095
42825SOL    HW230315   9.408  11.315   5.001
42826SOL     OW30316  14.375  14.201  10.630
42826SOL    HW130317  14.344  14.288  10.608
42826SOL    HW230318  14.297  14.145  10.625
42827SOL     OW30319   2.643   4.939   5.557
42827SOL    HW130320   2.704   4.890   5.613
42827SOL    HW230321   2.681   5.026   5.551
42828SOL     OW30322  14.374   1.132  13.744
42828SOL    HW130323  14.399   1.052  13.698
42828SOL    HW230324  14.313   1.176  13.685
42829SOL     OW30325   2.998   3.975   8.976
42829SOL    HW130326   3.066   3.982   9.042
42829SOL    HW230327   3.041   4.001   8.894
42830SOL     OW30328  10.915   3.799   0.361
42830SOL    HW130329  10.969   3.879   0.359
42830SOL    HW230330  10.827   3.831   0.381
42831SOL     OW30331   0.174   0.988  11.979
42831SOL    HW130332   0.234   1.062  11.992
42831SOL    HW230333   0.191   0.930  12.053
42832SOL     OW30334  11.179   4.510  13.183
42832SOL    HW130335  11.236   4.469  13.248
42832SOL    HW230336  11.214   4.599  13.174
42833SOL     OW30337   9.022   9.121  12.760
42833SOL    HW130338   9.025   9.182  12.686
42833SOL    HW230339   9.112   9.117  12.792
42834SOL     OW30340  11.592   4.830   4.314
42834SOL    HW130341  11.552   4.785   4.388
42834SOL    HW230342  11.685   4.835   4.335
42835SOL     OW30343  11.551  13.120  10.753
42835SOL    HW130344  11.593  13.166  10.826
42835SOL    HW230345  11.618  13.061  10.720
42836SOL     OW30346   5.065   9.548  12.331
42836SOL    HW130347   4.994   9.550  12.267
42836SOL    HW230348   5.050   9.624  12.387
42837SOL     OW30349   9.483   0.851   0.029
42837SOL    HW130350   9.469   0.912   0.102
42837SOL    HW230351   9.485   0.906  14.831
42838SOL     OW30352   4.060   2.833   9.336
42838SOL    HW130353   4.003   2.860   9.264
42838SOL    HW230354   4.066   2.910   9.392
42839SOL     OW30355   1.024   2.602  12.606
42839SOL    HW130356   0.966   2.536  12.568
42839SOL    HW230357   1.112   2.566  12.593
42840SOL     OW30358   1.515   8.274  10.159
42840SOL    HW130359   1.446   8.210  10.179
42840SOL    HW230360   1.590   8.220  10.133
42841SOL     OW30361   2.336   5.234   6.622
42841SOL    HW130362   2.282   5.299   6.576
42841SOL    HW230363   2.370   5.280   6.698
42842SOL     OW30364   8.106  12.470  10.618
42842SOL    HW130365   8.126  12.502  10.530
42842SOL    HW230366   8.160  12.524  10.676
42843SOL     OW30367   4.771   4.505   4.825
42843SOL    HW130368   4.757   4.585   4.773
42843SOL    HW230369   4.727   4.436   4.776
42844SOL     OW30370  11.056   3.069   9.050
42844SOL    HW130371  10.966   3.036   9.055
42844SOL    HW230372  11.102   3.022   9.119
42845SOL     OW30373   9.465   3.750   9.837
42845SOL    HW130374   9.388   3.797   9.802
42845SOL    HW230375   9.439   3.725   9.926
42846SOL     OW30376   0.048  11.750  14.444
42846SOL    HW130377   0.002  11.670  14.469
42846SOL    HW230378   0.139  11.723  14.432
42847SOL     OW30379   9.756   3.487   5.228
42847SOL    HW130380   9.668   3.450   5.232
42847SOL    HW230381   9.810   3.423   5.274
42848SOL     OW30382   1.169   3.714  12.096
42848SOL    HW130383   1.139   3.694  12.185
42848SOL    HW230384   1.196   3.629  12.061
42849SOL     OW30385   0.100  13.850   6.003
42849SOL    HW130386   0.184  13.811   5.981
42849SOL    HW230387   0.035  13.796   5.957
42850SOL     OW30388  12.669   7.567   4.075
42850SOL    HW130389  12.668   7.642   4.016
42850SOL    HW230390  12.734   7.590   4.142
42851SOL     OW30391   9.840   4.907   2.689
42851SOL    HW130392   9.910   4.874   2.745
42851SOL    HW230393   9.779   4.833   2.680
42852SOL     OW30394   5.080   0.886  13.065
42852SOL    HW130395   5.134   0.947  13.015
42852SOL    HW230396   5.111   0.799  13.039
42853SOL     OW30397   5.211  13.737  14.319
42853SOL    HW130398   5.136  13.795  14.306
42853SOL    HW230399   5.287  13.794  14.319
42854SOL     OW30400  11.932   7.816   7.749
42854SOL    HW130401  11.852   7.768   7.770
42854SOL    HW230402  11.948   7.870   7.827
42855SOL     OW30403   4.250   2.615   8.431
42855SOL    HW130404   4.250   2.707   8.456
42855SOL    HW230405   4.329   2.604   8.379
42856SOL     OW30406   2.617  10.393  13.115
42856SOL    HW130407   2.616  10.311  13.165
42856SOL    HW230408   2.683  10.379  13.047
42857SOL     OW30409   4.222   2.668   2.481
42857SOL    HW130410   4.207   2.639   2.390
42857SOL    HW230411   4.180   2.601   2.534
42858SOL     OW30412   5.738   6.449  14.300
42858SOL    HW130413   5.756   6.515  14.368
42858SOL    HW230414   5.694   6.498  14.231
42859SOL     OW30415  14.727   3.372   6.550
42859SOL    HW130416  14.802   3.346   6.496
42859SOL    HW230417  14.738   3.325   6.632
42860SOL     OW30418   8.590   2.934   3.984
42860SOL    HW130419   8.677   2.953   3.950
42860SOL    HW230420   8.564   3.013   4.030
42861SOL     OW30421   5.416   9.935   8.860
42861SOL    HW130422   5.404  10.012   8.916
42861SOL    HW230423   5.355   9.870   8.894
42862SOL     OW30424   1.311  14.030   4.997
42862SOL    HW130425   1.372  13.982   5.054
42862SOL    HW230426   1.335  14.004   4.908
42863SOL     OW30427   7.436   4.817   9.456
42863SOL    HW130428   7.440   4.816   9.360
42863SOL    HW230429   7.368   4.754   9.478
42864SOL     OW30430  13.259   9.554  13.778
42864SOL    HW130431  13.292   9.609  13.708
42864SOL    HW230432  13.171   9.529  13.750
42865SOL     OW30433   3.847   5.407   8.726
42865SOL    HW130434   3.858   5.351   8.649
42865SOL    HW230435   3.789   5.478   8.696
42866SOL     OW30436  12.980   7.895  11.586
42866SOL    HW130437  12.942   7.861  11.667
42866SOL    HW230438  12.927   7.855  11.517
42867SOL     OW30439   3.634   8.299  10.223
42867SOL    HW130440   3.692   8.309  10.298
42867SOL    HW230441   3.584   8.380  10.220
42868SOL     OW30442   2.660   5.194   1.041
42868SOL    HW130443   2.735   5.230   0.994
42868SOL    HW230444   2.693   5.115   1.083
42869SOL     OW30445   1.495   9.152   4.830
42869SOL    HW130446   1.430   9.215   4.799
42869SOL    HW230447   1.488   9.155   4.925
42870SOL     OW30448   5.670   0.279  13.499
42870SOL    HW130449   5.724   0.326  13.436
42870SOL    HW230450   5.646   0.198  13.453
42871SOL     OW30451   6.311  13.816  12.673
42871SOL    HW130452   6.237  13.817  12.734
42871SOL    HW230453   6.300  13.734  12.624
42872SOL     OW30454  10.315   3.774   4.816
42872SOL    HW130455  10.383   3.732   4.762
42872SOL    HW230456  10.236   3.725   4.797
42873SOL     OW30457   0.398   4.718   1.222
42873SOL    HW130458   0.462   4.652   1.248
42873SOL    HW230459   0.437   4.802   1.249
42874SOL     OW30460   1.247   0.371   1.292
42874SOL    HW130461   1.214   0.295   1.245
42874SOL    HW230462   1.176   0.397   1.351
42875SOL     OW30463  13.209   1.111  10.942
42875SOL    HW130464  13.187   1.050  10.871
42875SOL    HW230465  13.300   1.090  10.964
42876SOL     OW30466   4.136   3.410   6.712
42876SOL    HW130467   4.135   3.495   6.757
42876SOL    HW230468   4.108   3.430   6.623
42877SOL     OW30469   7.177   7.549   0.966
42877SOL    HW130470   7.135   7.617   0.913
42877SOL    HW230471   7.252   7.593   1.006
42878SOL     OW30472  13.665   5.420  10.729
42878SOL    HW130473  13.750   5.411  10.772
42878SOL    HW230474  13.608   5.357  10.773
42879SOL     OW30475  14.302   5.484   3.891
42879SOL    HW130476  14.235   5.532   3.843
42879SOL    HW230477  14.300   5.521   3.980
42880SOL     OW30478   5.509  10.624   0.062
42880SOL    HW130479   5.522  10.700   0.006
42880SOL    HW230480   5.565  10.639   0.138
42881SOL     OW30481  14.349  11.616   2.183
42881SOL    HW130482  14.365  11.700   2.141
42881SOL    HW230483  14.265  11.587   2.148
42882SOL     OW30484   8.981   2.141   7.008
42882SOL    HW130485   8.962   2.200   7.081
42882SOL    HW230486   9.061   2.096   7.034
42883SOL     OW30487   2.266  10.446   1.842
42883SOL    HW130488   2.323  10.521   1.858
42883SOL    HW230489   2.266  10.398   1.924
42884SOL     OW30490   3.124   2.094  14.622
42884SOL    HW130491   3.179   2.023  14.587
42884SOL    HW230492   3.049   2.049  14.661
42885SOL     OW30493  14.136   7.438  10.885
42885SOL    HW130494  14.050   7.417  10.922
42885SOL    HW230495  14.163   7.357  10.842
42886SOL     OW30496   9.560   5.766   8.703
42886SOL    HW130497   9.496   5.837   8.707
42886SOL    HW230498   9.516   5.696   8.656
42887SOL     OW30499   4.228   6.294  10.580
42887SOL    HW130500   4.132   6.293  10.583
42887SOL    HW230501   4.255   6.321  10.668
42888SOL     OW30502   0.544  13.473   9.340
42888SOL    HW130503   0.506  13.409   9.280
42888SOL    HW230504   0.631  13.490   9.304
42889SOL     OW30505  12.111  13.338  10.936
42889SOL    HW130506  12.121  13.406  10.869
42889SOL    HW230507  12.111  13.256  10.887
42890SOL     OW30508   7.963  10.530   8.849
42890SOL    HW130509   7.907  10.531   8.771
42890SOL    HW230510   8.028  10.598   8.832
42891SOL     OW30511   4.815  11.747  13.367
42891SOL    HW130512   4.816  11.793  13.283
42891SOL    HW230513   4.853  11.662  13.348
42892SOL     OW30514   5.268   7.382   2.082
42892SOL    HW130515   5.325   7.454   2.109
42892SOL    HW230516   5.253   7.398   1.988
42893SOL     OW30517   1.413   5.186  12.494
42893SOL    HW130518   1.347   5.225  12.436
42893SOL    HW230519   1.489   5.242  12.485
42894SOL     OW30520   1.622  11.062   1.172
42894SOL    HW130521   1.655  11.008   1.100
42894SOL    HW230522   1.686  11.052   1.242
42895SOL     OW30523   8.674   7.119   0.200
42895SOL    HW130524   8.716   7.181   0.260
42895SOL    HW230525   8.746   7.083   0.148
42896SOL     OW30526   5.683   7.744   0.836
42896SOL    HW130527   5.653   7.700   0.916
42896SOL    HW230528   5.694   7.835   0.863
42897SOL     OW30529  13.993   6.029  11.497
42897SOL    HW130530  13.938   6.107  11.488
42897SOL    HW230531  14.082   6.060  11.480
42898SOL     OW30532   9.026   2.904   9.247
42898SOL    HW130533   9.113   2.909   9.288
42898SOL    HW230534   9.024   2.817   9.206
42899SOL     OW30535   6.966   7.141  13.191
42899SOL    HW130536   7.042   7.104  13.147
42899SOL    HW230537   7.002   7.210  13.247
42900SOL     OW30538   0.218  14.795   4.343
42900SOL    HW130539   0.264  14.877   4.360
42900SOL    HW230540   0.252  14.764   4.260
42901SOL     OW30541   5.380   7.988   2.706
42901SOL    HW130542   5.447   7.970   2.771
42901SOL    HW230543   5.418   8.055   2.650
42902SOL     OW30544  12.600  10.374   8.980
42902SOL    HW130545  12.567  10.462   8.960
42902SOL    HW230546  12.538  10.315   8.938
42903SOL     OW30547   9.022   1.871   5.259
42903SOL    HW130548   9.008   1.808   5.188
42903SOL    HW230549   9.026   1.817   5.338
42904SOL     OW30550  12.838   5.931   8.148
42904SOL    HW130551  12.861   5.997   8.214
42904SOL    HW230552  12.782   5.978   8.086
42905SOL     OW30553   7.561   7.526   1.701
42905SOL    HW130554   7.526   7.456   1.645
42905SOL    HW230555   7.487   7.586   1.712
42906SOL     OW30556   2.991   2.370  11.296
42906SOL    HW130557   2.970   2.277  11.285
42906SOL    HW230558   2.906   2.414  11.288
42907SOL     OW30559   2.039   5.495  13.109
42907SOL    HW130560   2.084   5.420  13.070
42907SOL    HW230561   2.026   5.556  13.036
42908SOL     OW30562  14.675   7.669   2.499
42908SOL    HW130563  14.581   7.685   2.487
42908SOL    HW230564  14.711   7.755   2.522
42909SOL     OW30565  13.240  10.298   7.572
42909SOL    HW130566  13.250  10.307   7.666
42909SOL    HW230567  13.244  10.203   7.556
42910SOL     OW30568   2.926   1.592  13.421
42910SOL    HW130569   2.833   1.600  13.444
42910SOL    HW230570   2.926   1.546  13.337
42911SOL     OW30571  10.747   1.151   2.801
42911SOL    HW130572  10.795   1.214   2.747
42911SOL    HW230573  10.783   1.065   2.776
42912SOL     OW30574   3.354  11.696   4.750
42912SOL    HW130575   3.282  11.634   4.766
42912SOL    HW230576   3.372  11.734   4.836
42913SOL     OW30577  10.065  13.842   2.192
42913SOL    HW130578  10.050  13.781   2.264
42913SOL    HW230579  10.146  13.812   2.151
42914SOL     OW30580   9.337   9.847   0.786
42914SOL    HW130581   9.295   9.922   0.743
42914SOL    HW230582   9.373   9.884   0.868
42915SOL     OW30583   1.386  11.524  11.011
42915SOL    HW130584   1.317  11.539  10.947
42915SOL    HW230585   1.340  11.522  11.095
42916SOL     OW30586  14.229   6.282   4.033
42916SOL    HW130587  14.248   6.209   3.974
42916SOL    HW230588  14.204   6.240   4.115
42917SOL     OW30589   1.067  14.165  11.771
42917SOL    HW130590   0.978  14.148  11.799
42917SOL    HW230591   1.072  14.261  11.766
42918SOL     OW30592  13.056  14.696   2.910
42918SOL    HW130593  13.073  14.785   2.940
42918SOL    HW230594  13.062  14.642   2.989
42919SOL     OW30595  14.841   9.163   9.738
42919SOL    HW130596   0.053   9.167   9.711
42919SOL    HW230597  14.819   9.070   9.739
42920SOL     OW30598   7.316  12.187  13.292
42920SOL    HW130599   7.273  12.272  13.306
42920SOL    HW230600   7.316  12.146  13.378
42921SOL     OW30601   2.970  11.100   2.386
42921SOL    HW130602   2.997  11.185   2.419
42921SOL    HW230603   3.027  11.084   2.311
42922SOL     OW30604  14.557  13.675   2.829
42922SOL    HW130605  14.521  13.633   2.751
42922SOL    HW230606  14.630  13.618   2.855
42923SOL     OW30607  10.244   5.543   4.207
42923SOL    HW130608  10.256   5.631   4.172
42923SOL    HW230609  10.242   5.486   4.130
42924SOL     OW30610   1.249   5.338  10.510
42924SOL    HW130611   1.341   5.316  10.526
42924SOL    HW230612   1.204   5.312  10.590
42925SOL     OW30613   7.372  14.147   5.276
42925SOL    HW130614   7.363  14.186   5.189
42925SOL    HW230615   7.335  14.059   5.268
42926SOL     OW30616   9.315   8.723  11.208
42926SOL    HW130617   9.220   8.718  11.200
42926SOL    HW230618   9.332   8.814  11.234
42927SOL     OW30619   2.826   7.075   7.477
42927SOL    HW130620   2.892   7.113   7.420
42927SOL    HW230621   2.876   7.020   7.538
42928SOL     OW30622  10.764  13.292  11.198
42928SOL    HW130623  10.734  13.203  11.219
42928SOL    HW230624  10.707  13.319  11.126
42929SOL     OW30625  14.634   0.629  13.961
42929SOL    HW130626  14.560   0.645  14.019
42929SOL    HW230627  14.693   0.573  14.013
42930SOL     OW30628  12.588  14.485   9.163
42930SOL    HW130629  12.671  14.530   9.146
42930SOL    HW230630  12.613  14.407   9.212
42931SOL     OW30631   1.413  11.707  14.778
42931SOL    HW130632   1.425  11.616  14.807
42931SOL    HW230633   1.371  11.699  14.693
42932SOL     OW30634  14.218   6.918  10.389
42932SOL    HW130635  14.147   6.898  10.450
42932SOL    HW230636  14.204   7.009  10.364
42933SOL     OW30637  10.007   3.761   7.380
42933SOL    HW130638   9.974   3.774   7.292
42933SOL    HW230639   9.945   3.700   7.420
42934SOL     OW30640   5.255  12.105   3.995
42934SOL    HW130641   5.217  12.019   3.976
42934SOL    HW230642   5.341  12.085   4.033
42935SOL     OW30643   4.616   0.449   9.376
42935SOL    HW130644   4.662   0.367   9.355
42935SOL    HW230645   4.656   0.515   9.320
42936SOL     OW30646   0.083   4.397   6.326
42936SOL    HW130647  14.877   4.363   6.353
42936SOL    HW230648   0.145   4.333   6.360
42937SOL     OW30649   4.792  12.467   0.181
42937SOL    HW130650   4.833  12.553   0.185
42937SOL    HW230651   4.732  12.465   0.255
42938SOL     OW30652   7.154  12.357  14.462
42938SOL    HW130653   7.222  12.372  14.528
42938SOL    HW230654   7.123  12.268  14.479
42939SOL     OW30655   0.700  12.704   5.137
42939SOL    HW130656   0.671  12.683   5.226
42939SOL    HW230657   0.718  12.798   5.140
42940SOL     OW30658  10.118   0.620  13.007
42940SOL    HW130659  10.058   0.682  12.966
42940SOL    HW230660  10.177   0.674  13.059
42941SOL     OW30661   8.066   2.924  14.825
42941SOL    HW130662   8.024   2.878  14.752
42941SOL    HW230663   8.088   2.855   0.009
42942SOL     OW30664   1.688  12.715   9.316
42942SOL    HW130665   1.738  12.753   9.388
42942SOL    HW230666   1.602  12.758   9.321
42943SOL     OW30667  11.706   3.326   8.292
42943SOL    HW130668  11.798   3.300   8.302
42943SOL    HW230669  11.659   3.274   8.358
42944SOL     OW30670  10.942  10.696  10.193
42944SOL    HW130671  10.859  10.681  10.238
42944SOL    HW230672  10.934  10.646  10.112
42945SOL     OW30673  14.536   4.652   8.003
42945SOL    HW130674  14.596   4.592   8.047
42945SOL    HW230675  14.559   4.738   8.037
42946SOL     OW30676  12.353  12.318  12.090
42946SOL    HW130677  12.388  12.403  12.063
42946SOL    HW230678  12.417  12.285  12.153
42947SOL     OW30679  10.574   4.691   2.623
42947SOL    HW130680  10.534   4.628   2.564
42947SOL    HW230681  10.648   4.726   2.573
42948SOL     OW30682   6.639  13.141   0.861
42948SOL    HW130683   6.734  13.140   0.859
42948SOL    HW230684   6.613  13.129   0.770
42949SOL     OW30685   0.503   7.321   8.106
42949SOL    HW130686   0.519   7.272   8.025
42949SOL    HW230687   0.581   7.307   8.159
42950SOL     OW30688   1.185   8.058   3.371
42950SOL    HW130689   1.095   8.033   3.349
42950SOL    HW230690   1.182   8.153   3.378
42951SOL     OW30691   7.316   0.616   1.889
42951SOL    HW130692   7.391   0.557   1.894
42951SOL    HW230693   7.353   0.701   1.867
42952SOL     OW30694  12.145  11.883   5.963
42952SOL    HW130695  12.240  11.892   5.969
42952SOL    HW230696  12.123  11.822   6.034
42953SOL     OW30697   6.352  13.673  13.650
42953SOL    HW130698   6.361  13.578  13.651
42953SOL    HW230699   6.258  13.688  13.661
42954SOL     OW30700  14.292   2.919   1.444
42954SOL    HW130701  14.228   2.885   1.507
42954SOL    HW230702  14.244   2.923   1.361
42955SOL     OW30703  14.576   0.476   4.856
42955SOL    HW130704  14.623   0.406   4.901
42955SOL    HW230705  14.487   0.442   4.845
42956SOL     OW30706   3.465  13.600   9.590
42956SOL    HW130707   3.484  13.530   9.653
42956SOL    HW230708   3.408  13.558   9.525
42957SOL     OW30709   6.256   6.559   5.425
42957SOL    HW130710   6.336   6.520   5.461
42957SOL    HW230711   6.283   6.647   5.399
42958SOL     OW30712   5.015   7.514  10.085
42958SOL    HW130713   5.051   7.554  10.006
42958SOL    HW230714   4.967   7.438  10.053
42959SOL     OW30715   5.983   5.857   6.299
42959SOL    HW130716   6.014   5.825   6.383
42959SOL    HW230717   6.049   5.921   6.271
42960SOL     OW30718   5.677   7.577   0.145
42960SOL    HW130719   5.707   7.621   0.224
42960SOL    HW230720   5.697   7.485   0.159
42961SOL     OW30721   4.376  12.021  12.339
42961SOL    HW130722   4.429  11.968  12.279
42961SOL    HW230723   4.346  12.094  12.285
42962SOL     OW30724   4.882  11.036  14.573
42962SOL    HW130725   4.859  11.108  14.633
42962SOL    HW230726   4.808  10.976  14.580
42963SOL     OW30727   6.888  13.083   6.832
42963SOL    HW130728   6.925  13.162   6.792
42963SOL    HW230729   6.942  13.070   6.911
42964SOL     OW30730   5.361  13.802   3.241
42964SOL    HW130731   5.313  13.728   3.280
42964SOL    HW230732   5.453  13.785   3.261
42965SOL     OW30733  14.103  13.530   2.692
42965SOL    HW130734  14.095  13.481   2.609
42965SOL    HW230735  14.014  13.531   2.727
42966SOL     OW30736  12.156   9.595   8.475
42966SOL    HW130737  12.125   9.531   8.411
42966SOL    HW230738  12.212   9.654   8.424
42967SOL     OW30739  12.025   6.646   3.561
42967SOL    HW130740  12.109   6.691   3.550
42967SOL    HW230741  11.964   6.696   3.507
42968SOL     OW30742   2.474  10.501   9.063
42968SOL    HW130743   2.486  10.552   8.983
42968SOL    HW230744   2.383  10.471   9.058
42969SOL     OW30745  12.943   6.050  14.083
42969SOL    HW130746  12.887   6.030  14.158
42969SOL    HW230747  12.958   6.144  14.088
42970SOL     OW30748   2.907  14.137  12.848
42970SOL    HW130749   2.834  14.118  12.790
42970SOL    HW230750   2.950  14.052  12.861
42971SOL     OW30751   6.379  11.898   9.629
42971SOL    HW130752   6.468  11.864   9.642
42971SOL    HW230753   6.344  11.910   9.717
42972SOL     OW30754  11.894   5.113   8.309
42972SOL    HW130755  11.924   5.148   8.392
42972SOL    HW230756  11.959   5.046   8.286
42973SOL     OW30757   4.964   4.196  11.297
42973SOL    HW130758   5.060   4.200  11.294
42973SOL    HW230759   4.935   4.277  11.256
42974SOL     OW30760   0.179  13.623   3.207
42974SOL    HW130761   0.255  13.571   3.232
42974SOL    HW230762   0.176  13.694   3.272
42975SOL     OW30763   4.770  14.371   6.395
42975SOL    HW130764   4.798  14.280   6.403
42975SOL    HW230765   4.777  14.406   6.484
42976SOL     OW30766  10.626   4.108   3.012
42976SOL    HW130767  10.567   4.042   2.975
42976SOL    HW230768  10.700   4.111   2.951
42977SOL     OW30769   2.594   2.198  13.797
42977SOL    HW130770   2.626   2.227  13.882
42977SOL    HW230771   2.672   2.165  13.752
42978SOL     OW30772   7.494  12.208   8.406
42978SOL    HW130773   7.585  12.200   8.436
42978SOL    HW230774   7.468  12.296   8.433
42979SOL     OW30775   7.561  13.363   5.549
42979SOL    HW130776   7.486  13.311   5.521
42979SOL    HW230777   7.628  13.345   5.483
42980SOL     OW30778   3.330   4.812   1.276
42980SOL    HW130779   3.390   4.856   1.216
42980SOL    HW230780   3.306   4.730   1.232
42981SOL     OW30781   3.480  13.523  13.497
42981SOL    HW130782   3.409  13.583  13.517
42981SOL    HW230783   3.560  13.571  13.521
42982SOL     OW30784   0.186   1.713   0.668
42982SOL    HW130785   0.231   1.639   0.627
42982SOL    HW230786   0.245   1.742   0.738
42983SOL     OW30787   6.537  11.659   6.690
42983SOL    HW130788   6.458  11.629   6.645
42983SOL    HW230789   6.531  11.618   6.777
42984SOL     OW30790   6.878   8.534  14.512
42984SOL    HW130791   6.791   8.553  14.476
42984SOL    HW230792   6.898   8.610  14.566
42985SOL     OW30793   0.755   6.119  12.985
42985SOL    HW130794   0.668   6.159  12.975
42985SOL    HW230795   0.803   6.146  12.906
42986SOL     OW30796  10.873   7.638  14.203
42986SOL    HW130797  10.814   7.670  14.135
42986SOL    HW230798  10.821   7.574  14.253
42987SOL     OW30799   8.641  10.160  13.019
42987SOL    HW130800   8.698  10.201  12.954
42987SOL    HW230801   8.626  10.229  13.084
42988SOL     OW30802   8.401   0.759   3.613
42988SOL    HW130803   8.483   0.760   3.664
42988SOL    HW230804   8.413   0.827   3.547
42989SOL     OW30805  13.869   7.852   2.064
42989SOL    HW130806  13.809   7.857   1.990
42989SOL    HW230807  13.907   7.765   2.059
42990SOL     OW30808   0.187   7.675   5.100
42990SOL    HW130809   0.228   7.636   5.177
42990SOL    HW230810   0.094   7.681   5.123
42991SOL     OW30811  11.411  10.458   6.284
42991SOL    HW130812  11.357  10.537   6.285
42991SOL    HW230813  11.481  10.477   6.221
42992SOL     OW30814   0.822   9.902   1.000
42992SOL    HW130815   0.829   9.885   1.094
42992SOL    HW230816   0.887   9.845   0.960
42993SOL     OW30817   8.522   6.164   0.636
42993SOL    HW130818   8.454   6.222   0.670
42993SOL    HW230819   8.552   6.206   0.555
42994SOL     OW30820   1.937   1.760   6.068
42994SOL    HW130821   1.849   1.768   6.031
42994SOL    HW230822   1.988   1.826   6.021
42995SOL     OW30823   7.535   6.449  12.455
42995SOL    HW130824   7.610   6.493  12.494
42995SOL    HW230825   7.498   6.395  12.525
42996SOL     OW30826   2.407  10.373   8.263
42996SOL    HW130827   2.423  10.354   8.170
42996SOL    HW230828   2.463  10.311   8.310
42997SOL     OW30829   0.047   5.604   2.639
42997SOL    HW130830   0.121   5.656   2.670
42997SOL    HW230831  14.869   5.596   2.715
42998SOL     OW30832  14.768   3.765   8.167
42998SOL    HW130833  14.744   3.798   8.254
42998SOL    HW230834  14.761   3.842   8.110
42999SOL     OW30835  14.051   4.707   0.068
42999SOL    HW130836  13.969   4.668   0.036
42999SOL    HW230837  14.117   4.681   0.004
43000SOL     OW30838   9.033   9.787   7.081
43000SOL    HW130839   9.046   9.706   7.130
43000SOL    HW230840   8.955   9.770   7.027
43001SOL     OW30841   5.830   7.413   9.324
43001SOL    HW130842   5.831   7.383   9.233
43001SOL    HW230843   5.915   7.387   9.359
43002SOL     OW30844   1.515   7.016  11.623
43002SOL    HW130845   1.461   6.939  11.604
43002SOL    HW230846   1.601   6.994  11.586
43003SOL     OW30847   3.715   7.773  11.202
43003SOL    HW130848   3.656   7.775  11.127
43003SOL    HW230849   3.752   7.685  11.200
43004SOL     OW30850   7.741   3.824   5.991
43004SOL    HW130851   7.814   3.832   6.053
43004SOL    HW230852   7.776   3.859   5.909
43005SOL     OW30853  11.930   5.538   6.208
43005SOL    HW130854  11.897   5.616   6.252
43005SOL    HW230855  12.025   5.543   6.219
43006SOL     OW30856  12.837   7.240  10.432
43006SOL    HW130857  12.800   7.323  10.462
43006SOL    HW230858  12.928   7.243  10.460
43007SOL     OW30859  12.512   6.836   3.892
43007SOL    HW130860  12.496   6.896   3.964
43007SOL    HW230861  12.431   6.836   3.841
43008SOL     OW30862   6.547   0.279  11.953
43008SOL    HW130863   6.623   0.337  11.956
43008SOL    HW230864   6.506   0.289  12.039
43009SOL     OW30865   1.248   5.728  12.435
43009SOL    HW130866   1.328   5.676  12.444
43009SOL    HW230867   1.253   5.791  12.507
43010SOL     OW30868   8.279  11.161  14.376
43010SOL    HW130869   8.242  11.143  14.462
43010SOL    HW230870   8.239  11.096  14.318
43011SOL     OW30871  14.619   3.295   7.690
43011SOL    HW130872  14.528   3.323   7.683
43011SOL    HW230873  14.642   3.311   7.781
43012SOL     OW30874   9.790   5.250   6.463
43012SOL    HW130875   9.758   5.271   6.375
43012SOL    HW230876   9.841   5.170   6.452
43013SOL     OW30877   7.792  14.012   0.594
43013SOL    HW130878   7.728  14.076   0.564
43013SOL    HW230879   7.784  13.940   0.532
43014SOL     OW30880   1.491  12.785   1.049
43014SOL    HW130881   1.566  12.815   0.999
43014SOL    HW230882   1.418  12.839   1.019
43015SOL     OW30883   8.164   8.232   3.166
43015SOL    HW130884   8.145   8.292   3.093
43015SOL    HW230885   8.220   8.283   3.225
43016SOL     OW30886   7.963   6.896   6.477
43016SOL    HW130887   8.016   6.910   6.555
43016SOL    HW230888   7.931   6.807   6.485
43017SOL     OW30889   1.727   9.194   5.903
43017SOL    HW130890   1.794   9.143   5.948
43017SOL    HW230891   1.708   9.143   5.824
43018SOL     OW30892   2.410   5.261  13.526
43018SOL    HW130893   2.412   5.323  13.454
43018SOL    HW230894   2.316   5.246  13.543
43019SOL     OW30895   1.244   0.141   5.989
43019SOL    HW130896   1.288   0.056   5.996
43019SOL    HW230897   1.283   0.182   5.911
43020SOL     OW30898   6.539  14.487  12.567
43020SOL    HW130899   6.541  14.574  12.607
43020SOL    HW230900   6.488  14.499  12.487
43021SOL     OW30901  14.634  12.123   9.661
43021SOL    HW130902  14.662  12.035   9.635
43021SOL    HW230903  14.612  12.115   9.754
43022SOL     OW30904   2.797   5.830   7.810
43022SOL    HW130905   2.758   5.917   7.802
43022SOL    HW230906   2.796   5.794   7.722
43023SOL     OW30907  12.398  12.418   5.099
43023SOL    HW130908  12.329  12.480   5.076
43023SOL    HW230909  12.369  12.378   5.181
43024SOL     OW30910   6.697   3.287   8.061
43024SOL    HW130911   6.723   3.219   8.123
43024SOL    HW230912   6.773   3.298   8.004
43025SOL     OW30913   4.713   1.214   6.808
43025SOL    HW130914   4.754   1.301   6.807
43025SOL    HW230915   4.621   1.231   6.788
43026SOL     OW30916   6.244  12.481   1.092
43026SOL    HW130917   6.255  12.576   1.082
43026SOL    HW230918   6.313  12.454   1.152
43027SOL     OW30919   9.047   4.088   5.751
43027SOL    HW130920   8.966   4.059   5.793
43027SOL    HW230921   9.115   4.073   5.817
43028SOL     OW30922   5.440  11.511  11.859
43028SOL    HW130923   5.512  11.484  11.916
43028SOL    HW230924   5.383  11.563  11.916
43029SOL     OW30925   8.337   7.731   2.816
43029SOL    HW130926   8.425   7.740   2.853
43029SOL    HW230927   8.279   7.734   2.892
43030SOL     OW30928   2.590  10.200   8.366
43030SOL    HW130929   2.615  10.110   8.390
43030SOL    HW230930   2.627  10.254   8.436
43031SOL     OW30931  13.527   9.312  10.603
43031SOL    HW130932  13.509   9.347  10.691
43031SOL    HW230933  13.453   9.255  10.584
43032SOL     OW30934   1.757   6.218  10.100
43032SOL    HW130935   1.740   6.309  10.078
43032SOL    HW230936   1.744   6.214  10.195
43033SOL     OW30937   8.280  10.482  13.101
43033SOL    HW130938   8.324  10.529  13.172
43033SOL    HW230939   8.190  10.471  13.133
43034SOL     OW30940   9.594   2.265   1.647
43034SOL    HW130941   9.522   2.312   1.605
43034SOL    HW230942   9.583   2.283   1.740
43035SOL     OW30943  12.192  10.998   8.611
43035SOL    HW130944  12.279  10.961   8.598
43035SOL    HW230945  12.173  10.985   8.704
43036SOL     OW30946   6.853   8.946   8.029
43036SOL    HW130947   6.850   9.040   8.013
43036SOL    HW230948   6.802   8.907   7.958
43037SOL     OW30949   7.119   7.950   5.973
43037SOL    HW130950   7.209   7.935   5.945
43037SOL    HW230951   7.090   7.865   6.006
43038SOL     OW30952   5.387   9.302   4.854
43038SOL    HW130953   5.442   9.269   4.925
43038SOL    HW230954   5.449   9.328   4.786
43039SOL     OW30955   9.874  11.731   2.871
43039SOL    HW130956   9.922  11.658   2.834
43039SOL    HW230957   9.918  11.750   2.954
43040SOL     OW30958   1.387   0.160  11.334
43040SOL    HW130959   1.379   0.252  11.308
43040SOL    HW230960   1.297   0.132  11.352
43041SOL     OW30961   2.276  13.482  11.919
43041SOL    HW130962   2.255  13.422  11.991
43041SOL    HW230963   2.255  13.569  11.953
43042SOL     OW30964   6.846   0.410   5.516
43042SOL    HW130965   6.772   0.464   5.542
43042SOL    HW230966   6.838   0.330   5.568
43043SOL     OW30967   8.678   0.817   3.634
43043SOL    HW130968   8.687   0.911   3.621
43043SOL    HW230969   8.708   0.802   3.723
43044SOL     OW30970  11.494   8.859   6.482
43044SOL    HW130971  11.443   8.808   6.545
43044SOL    HW230972  11.437   8.933   6.459
43045SOL     OW30973  14.005   8.775  11.213
43045SOL    HW130974  14.051   8.801  11.293
43045SOL    HW230975  13.913   8.771  11.238
43046SOL     OW30976  11.234  13.730   2.538
43046SOL    HW130977  11.318  13.701   2.573
43046SOL    HW230978  11.256  13.776   2.457
43047SOL     OW30979   7.281  14.770   9.805
43047SOL    HW130980   7.219  14.758   9.877
43047SOL    HW230981   7.348  14.704   9.820
43048SOL     OW30982   4.611   5.873   1.587
43048SOL    HW130983   4.643   5.809   1.524
43048SOL    HW230984   4.689   5.901   1.635
43049SOL     OW30985  10.085   4.554   7.474
43049SOL    HW130986  10.140   4.477   7.482
43049SOL    HW230987  10.053   4.552   7.384
43050SOL     OW30988  14.609   4.148  11.265
43050SOL    HW130989  14.540   4.211  11.284
43050SOL    HW230990  14.570   4.087  11.203
43051SOL     OW30991   5.370   4.831   4.846
43051SOL    HW130992   5.369   4.886   4.767
43051SOL    HW230993   5.331   4.748   4.818
43052SOL     OW30994  14.807  10.089   8.915
43052SOL    HW130995   0.009  10.110   8.961
43052SOL    HW230996  14.835  10.067   8.826
43053SOL     OW30997  13.383  10.852  10.321
43053SOL    HW130998  13.291  10.877  10.313
43053SOL    HW230999  13.422  10.877  10.237
43054SOL     OW31000   5.643  10.447   1.308
43054SOL    HW131001   5.624  10.540   1.324
43054SOL    HW231002   5.684  10.446   1.222
43055SOL     OW31003  11.465   5.090  13.454
43055SOL    HW131004  11.405   5.065  13.524
43055SOL    HW231005  11.511   5.167  13.489
43056SOL     OW31006   4.770  11.335   9.727
43056SOL    HW131007   4.806  11.413   9.684
43056SOL    HW231008   4.785  11.264   9.665
43057SOL     OW31009  14.717   5.718   5.064
43057SOL    HW131010  14.764   5.751   5.141
43057SOL    HW231011  14.784   5.674   5.012
43058SOL     OW31012  14.097  14.427   4.290
43058SOL    HW131013  14.087  14.478   4.210
43058SOL    HW231014  14.186  14.444   4.320
43059SOL     OW31015  13.010  11.533   1.387
43059SOL    HW131016  12.981  11.504   1.300
43059SOL    HW231017  13.099  11.499   1.394
43060SOL     OW31018  13.353  13.424  12.169
43060SOL    HW131019  13.306  13.493  12.216
43060SOL    HW231020  13.445  13.451  12.175
43061SOL     OW31021   9.995   0.130  12.565
43061SOL    HW131022   9.920   0.185  12.542
43061SOL    HW231023   9.982   0.049  12.515
43062SOL     OW31024  13.205  14.620   6.423
43062SOL    HW131025  13.169  14.547   6.472
43062SOL    HW231026  13.289  14.639   6.466
43063SOL     OW31027  11.022   7.867   6.020
43063SOL    HW131028  10.974   7.905   5.947
43063SOL    HW231029  11.039   7.941   6.079
43064SOL     OW31030   7.729   3.105   3.067
43064SOL    HW131031   7.678   3.079   2.990
43064SOL    HW231032   7.800   3.158   3.031
43065SOL     OW31033  11.170   4.298  14.683
43065SOL    HW131034  11.133   4.253  14.759
43065SOL    HW231035  11.123   4.260  14.608
43066SOL     OW31036  11.218  12.748   1.951
43066SOL    HW131037  11.224  12.843   1.937
43066SOL    HW231038  11.124  12.730   1.950
43067SOL     OW31039   8.773   3.907   6.649
43067SOL    HW131040   8.855   3.860   6.657
43067SOL    HW231041   8.793   3.981   6.591
43068SOL     OW31042   6.683   1.670  12.458
43068SOL    HW131043   6.613   1.670  12.392
43068SOL    HW231044   6.721   1.758  12.452
43069SOL     OW31045   6.586  13.308   8.202
43069SOL    HW131046   6.550  13.289   8.115
43069SOL    HW231047   6.588  13.403   8.207
43070SOL     OW31048   4.448   3.753   7.234
43070SOL    HW131049   4.441   3.664   7.201
43070SOL    HW231050   4.533   3.756   7.277
43071SOL     OW31051   1.551   1.955   5.852
43071SOL    HW131052   1.631   2.004   5.832
43071SOL    HW231053   1.498   1.963   5.773
43072SOL     OW31054   7.291   0.960  12.378
43072SOL    HW131055   7.318   0.962  12.286
43072SOL    HW231056   7.216   1.019  12.382
43073SOL     OW31057   0.922   4.289  14.434
43073SOL    HW131058   0.849   4.230  14.454
43073SOL    HW231059   0.954   4.260  14.349
43074SOL     OW31060  12.732  11.136   1.832
43074SOL    HW131061  12.763  11.192   1.761
43074SOL    HW231062  12.705  11.196   1.900
43075SOL     OW31063   9.272   3.406   5.063
43075SOL    HW131064   9.347   3.400   5.122
43075SOL    HW231065   9.286   3.337   4.998
43076SOL     OW31066   0.298   8.878   0.719
43076SOL    HW131067   0.209   8.855   0.746
43076SOL    HW231068   0.316   8.820   0.646
43077SOL     OW31069  11.657   0.813   7.291
43077SOL    HW131070  11.594   0.882   7.314
43077SOL    HW231071  11.676   0.828   7.199
43078SOL     OW31072   2.298   1.897   1.281
43078SOL    HW131073   2.351   1.846   1.343
43078SOL    HW231074   2.282   1.980   1.326
43079SOL     OW31075   1.792   2.035   7.912
43079SOL    HW131076   1.882   2.022   7.941
43079SOL    HW231077   1.744   2.059   7.991
43080SOL     OW31078  11.634  11.512  11.802
43080SOL    HW131079  11.585  11.532  11.882
43080SOL    HW231080  11.677  11.595  11.780
43081SOL     OW31081  11.605   8.501   8.975
43081SOL    HW131082  11.530   8.511   8.916
43081SOL    HW231083  11.659   8.434   8.934
43082SOL     OW31084   7.171   1.306   9.671
43082SOL    HW131085   7.261   1.333   9.686
43082SOL    HW231086   7.177   1.231   9.612
43083SOL     OW31087  13.697   2.389   3.205
43083SOL    HW131088  13.678   2.427   3.291
43083SOL    HW231089  13.685   2.461   3.144
43084SOL     OW31090   2.143  10.367  11.746
43084SOL    HW131091   2.207  10.362  11.816
43084SOL    HW231092   2.195  10.389  11.668
43085SOL     OW31093   2.965   3.095   2.194
43085SOL    HW131094   2.931   3.006   2.199
43085SOL    HW231095   3.049   3.090   2.241
43086SOL     OW31096   5.430   7.224   0.592
43086SOL    HW131097   5.352   7.239   0.647
43086SOL    HW231098   5.441   7.129   0.591
43087SOL     OW31099  11.898   0.066  11.199
43087SOL    HW131100  11.928   0.120  11.126
43087SOL    HW231101  11.884   0.127  11.271
43088SOL     OW31102  13.479  14.277   3.513
43088SOL    HW131103  13.451  14.317   3.431
43088SOL    HW231104  13.436  14.192   3.516
43089SOL     OW31105  14.416  13.103   0.556
43089SOL    HW131106  14.480  13.130   0.622
43089SOL    HW231107  14.331  13.111   0.599
43090SOL     OW31108   5.276   1.217  11.428
43090SOL    HW131109   5.208   1.161  11.392
43090SOL    HW231110   5.356   1.192  11.381
43091SOL     OW31111   7.374   6.622   8.440
43091SOL    HW131112   7.467   6.623   8.417
43091SOL    HW231113   7.364   6.546   8.496
43092SOL     OW31114   2.766   1.017  12.677
43092SOL    HW131115   2.798   0.952  12.739
43092SOL    HW231116   2.769   1.100  12.726
43093SOL     OW31117   8.332   1.126   4.487
43093SOL    HW131118   8.313   1.123   4.393
43093SOL    HW231119   8.378   1.044   4.505
43094SOL     OW31120   9.429  14.423  14.601
43094SOL    HW131121   9.511  14.444  14.556
43094SOL    HW231122   9.365  14.410  14.530
43095SOL     OW31123   4.991  12.737   2.707
43095SOL    HW131124   4.931  12.679   2.661
43095SOL    HW231125   4.984  12.820   2.660
43096SOL     OW31126  14.680   8.049  10.652
43096SOL    HW131127  14.656   8.141  10.638
43096SOL    HW231128  14.600   8.000  10.633
43097SOL     OW31129   5.262  10.138  13.519
43097SOL    HW131130   5.293  10.067  13.462
43097SOL    HW231131   5.188  10.176  13.472
43098SOL     OW31132   2.326  13.436   4.940
43098SOL    HW131133   2.309  13.411   5.031
43098SOL    HW231134   2.400  13.498   4.946
43099SOL     OW31135   1.204   1.575   9.847
43099SOL    HW131136   1.227   1.533   9.765
43099SOL    HW231137   1.248   1.524   9.914
43100SOL     OW31138  12.517   5.109   0.269
43100SOL    HW131139  12.429   5.079   0.292
43100SOL    HW231140  12.549   5.152   0.348
43101SOL     OW31141  11.530   5.602   1.566
43101SOL    HW131142  11.497   5.673   1.621
43101SOL    HW231143  11.464   5.533   1.574
43102SOL     OW31144   4.399   1.054   4.391
43102SOL    HW131145   4.385   1.003   4.471
43102SOL    HW231146   4.360   1.139   4.409
43103SOL     OW31147   5.355   9.969   3.265
43103SOL    HW131148   5.436   9.942   3.308
43103SOL    HW231149   5.299   9.999   3.337
43104SOL     OW31150   6.841   7.805  10.325
43104SOL    HW131151   6.820   7.721  10.366
43104SOL    HW231152   6.911   7.785  10.263
43105SOL     OW31153  13.049   1.329   9.754
43105SOL    HW131154  13.088   1.337   9.667
43105SOL    HW231155  12.999   1.247   9.751
43106SOL     OW31156  11.255  12.266  12.687
43106SOL    HW131157  11.163  12.263  12.661
43106SOL    HW231158  11.285  12.353  12.658
43107SOL     OW31159   1.899   4.662  14.270
43107SOL    HW131160   1.946   4.670  14.353
43107SOL    HW231161   1.825   4.723  14.279
43108SOL     OW31162   1.851   7.921   5.981
43108SOL    HW131163   1.827   7.966   6.062
43108SOL    HW231164   1.835   7.829   5.999
43109SOL     OW31165   5.568  12.217  11.387
43109SOL    HW131166   5.496  12.280  11.388
43109SOL    HW231167   5.607  12.223  11.474
43110SOL     OW31168  14.085  13.520  12.102
43110SOL    HW131169  14.152  13.588  12.113
43110SOL    HW231170  14.039  13.518  12.186
43111SOL     OW31171   1.533  10.060  14.607
43111SOL    HW131172   1.469  10.116  14.650
43111SOL    HW231173   1.494  10.039  14.522
43112SOL     OW31174   4.085   2.454   6.050
43112SOL    HW131175   4.136   2.478   5.973
43112SOL    HW231176   4.043   2.535   6.078
43113SOL     OW31177   0.539   2.726   5.590
43113SOL    HW131178   0.632   2.739   5.571
43113SOL    HW231179   0.510   2.810   5.626
43114SOL     OW31180   0.315   8.675  13.719
43114SOL    HW131181   0.244   8.622  13.682
43114SOL    HW231182   0.356   8.619  13.785
43115SOL     OW31183   4.691  13.937   9.127
43115SOL    HW131184   4.728  13.850   9.142
43115SOL    HW231185   4.670  13.969   9.215
43116SOL     OW31186   8.198   3.953  14.110
43116SOL    HW131187   8.280   3.973  14.064
43116SOL    HW231188   8.140   4.026  14.089
43117SOL     OW31189  14.416   9.373  13.581
43117SOL    HW131190  14.439   9.318  13.656
43117SOL    HW231191  14.500   9.398  13.542
43118SOL     OW31192  10.531   1.626   4.128
43118SOL    HW131193  10.614   1.644   4.083
43118SOL    HW231194  10.472   1.695   4.098
43119SOL     OW31195   3.440   4.800   2.689
43119SOL    HW131196   3.433   4.722   2.634
43119SOL    HW231197   3.366   4.795   2.748
43120SOL     OW31198   3.926   7.715  11.498
43120SOL    HW131199   3.866   7.662  11.446
43120SOL    HW231200   3.912   7.684  11.588
43121SOL     OW31201   7.605   6.448   1.353
43121SOL    HW131202   7.572   6.512   1.290
43121SOL    HW231203   7.681   6.409   1.309
43122SOL     OW31204  10.003   7.814  14.816
43122SOL    HW131205  10.005   7.721  14.797
43122SOL    HW231206  10.016   7.857  14.731
43123SOL     OW31207   3.924  14.861   7.599
43123SOL    HW131208   3.898  14.808   7.674
43123SOL    HW231209   3.931  14.798   7.527
43124SOL     OW31210   0.456   3.209   9.188
43124SOL    HW131211   0.374   3.204   9.140
43124SOL    HW231212   0.484   3.118   9.198
43125SOL     OW31213   6.554  13.128   1.911
43125SOL    HW131214   6.646  13.153   1.910
43125SOL    HW231215   6.554  13.034   1.890
43126SOL     OW31216  11.784   9.434  13.452
43126SOL    HW131217  11.771   9.347  13.413
43126SOL    HW231218  11.799   9.416  13.545
43127SOL     OW31219  11.659  13.393   6.654
43127SOL    HW131220  11.621  13.478   6.630
43127SOL    HW231221  11.749  13.414   6.679
43128SOL     OW31222   7.447   6.422   4.600
43128SOL    HW131223   7.520   6.457   4.652
43128SOL    HW231224   7.383   6.394   4.665
43129SOL     OW31225   1.431   8.550   4.430
43129SOL    HW131226   1.439   8.609   4.505
43129SOL    HW231227   1.521   8.536   4.402
43130SOL     OW31228   1.630   7.591   3.007
43130SOL    HW131229   1.718   7.559   2.987
43130SOL    HW231230   1.605   7.545   3.087
43131SOL     OW31231   6.006   9.917   9.299
43131SOL    HW131232   6.010   9.984   9.231
43131SOL    HW231233   5.965   9.842   9.256
43132SOL     OW31234  14.068   7.302   1.444
43132SOL    HW131235  14.104   7.339   1.363
43132SOL    HW231236  14.085   7.208   1.438
43133SOL     OW31237   6.829   7.377   3.050
43133SOL    HW131238   6.771   7.446   3.018
43133SOL    HW231239   6.778   7.331   3.116
43134SOL     OW31240   0.678   6.250   1.889
43134SOL    HW131241   0.601   6.276   1.838
43134SOL    HW231242   0.698   6.161   1.860
43135SOL     OW31243   6.804  10.526   3.828
43135SOL    HW131244   6.885  10.477   3.838
43135SOL    HW231245   6.784  10.522   3.735
43136SOL     OW31246  10.781  14.401  11.586
43136SOL    HW131247  10.811  14.317  11.621
43136SOL    HW231248  10.861  14.446  11.560
43137SOL     OW31249   0.809   1.347   4.761
43137SOL    HW131250   0.717   1.333   4.786
43137SOL    HW231251   0.826   1.438   4.784
43138SOL     OW31252  12.227  12.012   2.668
43138SOL    HW131253  12.311  11.973   2.646
43138SOL    HW231254  12.175  12.007   2.588
43139SOL     OW31255   7.296   2.950   1.421
43139SOL    HW131256   7.309   2.856   1.405
43139SOL    HW231257   7.384   2.984   1.436
43140SOL     OW31258   6.738  12.246   7.642
43140SOL    HW131259   6.741  12.258   7.547
43140SOL    HW231260   6.823  12.279   7.673
43141SOL     OW31261   4.604   0.114  11.187
43141SOL    HW131262   4.607   0.209  11.179
43141SOL    HW231263   4.665   0.083  11.120
43142SOL     OW31264   3.283   1.042   3.438
43142SOL    HW131265   3.291   1.137   3.448
43142SOL    HW231266   3.370   1.013   3.410
43143SOL     OW31267   2.599   3.479   5.237
43143SOL    HW131268   2.682   3.480   5.189
43143SOL    HW231269   2.532   3.471   5.170
43144SOL     OW31270   5.215   1.821   9.953
43144SOL    HW131271   5.181   1.744   9.999
43144SOL    HW231272   5.224   1.887  10.022
43145SOL     OW31273   3.567  11.691   7.304
43145SOL    HW131274   3.545  11.774   7.260
43145SOL    HW231275   3.592  11.632   7.234
43146SOL     OW31276   3.431   4.102   1.144
43146SOL    HW131277   3.486   4.174   1.174
43146SOL    HW231278   3.467   4.078   1.059
43147SOL     OW31279  13.985   8.325  11.604
43147SOL    HW131280  14.049   8.393  11.582
43147SOL    HW231281  13.905   8.374  11.622
43148SOL     OW31282  10.860  12.773  12.881
43148SOL    HW131283  10.834  12.850  12.933
43148SOL    HW231284  10.951  12.758  12.904
43149SOL     OW31285  10.321  14.454  14.051
43149SOL    HW131286  10.398  14.398  14.052
43149SOL    HW231287  10.278  14.438  14.135
43150SOL     OW31288   8.854   5.313   2.505
43150SOL    HW131289   8.905   5.359   2.571
43150SOL    HW231290   8.775   5.367   2.493
43151SOL     OW31291   5.139  14.239  12.874
43151SOL    HW131292   5.229  14.207  12.863
43151SOL    HW231293   5.087  14.186  12.814
43152SOL     OW31294  14.253  13.621  12.510
43152SOL    HW131295  14.258  13.628  12.415
43152SOL    HW231296  14.161  13.602  12.528
43153SOL     OW31297  14.119  13.059   7.773
43153SOL    HW131298  14.086  13.076   7.685
43153SOL    HW231299  14.203  13.015   7.759
43154SOL     OW31300   9.033   3.074   1.679
43154SOL    HW131301   9.077   3.036   1.754
43154SOL    HW231302   8.940   3.077   1.703
43155SOL     OW31303   3.803  14.170   9.884
43155SOL    HW131304   3.883  14.190   9.836
43155SOL    HW231305   3.739  14.233   9.851
43156SOL     OW31306   1.062  14.828   2.164
43156SOL    HW131307   1.149  14.817   2.202
43156SOL    HW231308   1.017   0.009   2.223
43157SOL     OW31309   6.460   0.961  14.110
43157SOL    HW131310   6.446   0.933  14.020
43157SOL    HW231311   6.372   0.980  14.143
43158SOL     OW31312   5.193   3.475  13.379
43158SOL    HW131313   5.230   3.388  13.388
43158SOL    HW231314   5.153   3.475  13.291
43159SOL     OW31315   6.394   5.575  12.157
43159SOL    HW131316   6.449   5.588  12.079
43159SOL    HW231317   6.456   5.575  12.230
43160SOL     OW31318   2.470   9.294   2.718
43160SOL    HW131319   2.497   9.224   2.659
43160SOL    HW231320   2.467   9.253   2.804
43161SOL     OW31321   0.577  10.225   7.963
43161SOL    HW131322   0.575  10.156   8.030
43161SOL    HW231323   0.581  10.307   8.012
43162SOL     OW31324  14.307  10.183   1.634
43162SOL    HW131325  14.331  10.250   1.699
43162SOL    HW231326  14.312  10.101   1.683
43163SOL     OW31327   5.084   1.263   4.329
43163SOL    HW131328   5.019   1.221   4.385
43163SOL    HW231329   5.154   1.289   4.389
43164SOL     OW31330  12.432   6.044   1.199
43164SOL    HW131331  12.488   6.061   1.123
43164SOL    HW231332  12.493   6.043   1.273
43165SOL     OW31333   2.304   8.792   7.877
43165SOL    HW131334   2.287   8.764   7.967
43165SOL    HW231335   2.307   8.887   7.882
43166SOL     OW31336   4.058   8.526  13.582
43166SOL    HW131337   4.060   8.564  13.494
43166SOL    HW231338   4.045   8.600  13.640
43167SOL     OW31339  11.743   7.652   8.688
43167SOL    HW131340  11.714   7.741   8.707
43167SOL    HW231341  11.692   7.626   8.612
43168SOL     OW31342  10.745   1.815   5.144
43168SOL    HW131343  10.770   1.858   5.063
43168SOL    HW231344  10.817   1.754   5.161
43169SOL     OW31345   3.569  12.786   2.006
43169SOL    HW131346   3.648  12.839   1.996
43169SOL    HW231347   3.503  12.847   2.041
43170SOL     OW31348  12.865  12.566   5.264
43170SOL    HW131349  12.771  12.559   5.248
43170SOL    HW231350  12.873  12.638   5.326
43171SOL     OW31351   3.681   4.894   3.745
43171SOL    HW131352   3.739   4.865   3.815
43171SOL    HW231353   3.728   4.873   3.664
43172SOL     OW31354   8.113  14.165   9.819
43172SOL    HW131355   8.039  14.105   9.827
43172SOL    HW231356   8.178  14.134   9.882
43173SOL     OW31357   1.974  13.466   0.705
43173SOL    HW131358   1.993  13.423   0.622
43173SOL    HW231359   1.935  13.550   0.680
43174SOL     OW31360   3.050  11.447   7.789
43174SOL    HW131361   3.088  11.373   7.742
43174SOL    HW231362   2.966  11.463   7.745
43175SOL     OW31363   4.138   1.983  12.185
43175SOL    HW131364   4.108   2.003  12.273
43175SOL    HW231365   4.144   2.068  12.141
43176SOL     OW31366   2.252  14.399   4.883
43176SOL    HW131367   2.197  14.330   4.845
43176SOL    HW231368   2.190  14.460   4.923
43177SOL     OW31369   3.886   3.020   0.023
43177SOL    HW131370   3.968   2.986  14.866
43177SOL    HW231371   3.861   2.956   0.090
43178SOL     OW31372   0.657  11.217   4.724
43178SOL    HW131373   0.672  11.134   4.771
43178SOL    HW231374   0.714  11.280   4.769
43179SOL     OW31375   3.199   1.246   1.809
43179SOL    HW131376   3.129   1.252   1.873
43179SOL    HW231377   3.266   1.307   1.840
43180SOL     OW31378   1.993   7.511  13.492
43180SOL    HW131379   1.909   7.549  13.468
43180SOL    HW231380   2.040   7.581  13.538
43181SOL     OW31381   1.231  12.506   5.598
43181SOL    HW131382   1.165  12.544   5.539
43181SOL    HW231383   1.218  12.412   5.591
43182SOL     OW31384   9.600  12.175  11.011
43182SOL    HW131385   9.691  12.149  10.993
43182SOL    HW231386   9.551  12.143  10.935
43183SOL     OW31387   2.940   8.291   5.192
43183SOL    HW131388   2.982   8.374   5.166
43183SOL    HW231389   2.986   8.265   5.272
43184SOL     OW31390   5.177   9.919  13.955
43184SOL    HW131391   5.236   9.900  13.882
43184SOL    HW231392   5.091   9.929  13.914
43185SOL     OW31393   6.988   5.270   8.218
43185SOL    HW131394   7.004   5.215   8.142
43185SOL    HW231395   6.919   5.225   8.266
43186SOL     OW31396   3.494   7.830   6.830
43186SOL    HW131397   3.489   7.751   6.884
43186SOL    HW231398   3.574   7.818   6.777
43187SOL     OW31399  12.575   8.377   4.628
43187SOL    HW131400  12.664   8.345   4.647
43187SOL    HW231401  12.583   8.472   4.628
43188SOL     OW31402   0.948   7.089  11.613
43188SOL    HW131403   0.968   7.182  11.623
43188SOL    HW231404   0.943   7.076  11.518
43189SOL     OW31405  11.011   0.709   5.591
43189SOL    HW131406  10.976   0.761   5.663
43189SOL    HW231407  11.105   0.721   5.595
43190SOL     OW31408   1.003   1.327   6.156
43190SOL    HW131409   1.047   1.261   6.103
43190SOL    HW231410   0.911   1.319   6.134
43191SOL     OW31411   8.480  11.112   4.288
43191SOL    HW131412   8.396  11.077   4.317
43191SOL    HW231413   8.542  11.040   4.303
43192SOL     OW31414   1.827   7.593   3.931
43192SOL    HW131415   1.757   7.585   3.996
43192SOL    HW231416   1.841   7.688   3.923
43193SOL     OW31417   3.026   7.387   0.045
43193SOL    HW131418   3.034   7.343   0.130
43193SOL    HW231419   3.037   7.317  14.860
43194SOL     OW31420   4.229   2.301   4.279
43194SOL    HW131421   4.170   2.232   4.310
43194SOL    HW231422   4.210   2.376   4.336
43195SOL     OW31423   4.041   5.279   3.185
43195SOL    HW131424   3.999   5.221   3.122
43195SOL    HW231425   4.008   5.251   3.270
43196SOL     OW31426   9.786   6.654   9.131
43196SOL    HW131427   9.879   6.642   9.148
43196SOL    HW231428   9.768   6.745   9.154
43197SOL     OW31429   0.103   8.296   3.057
43197SOL    HW131430   0.109   8.235   3.130
43197SOL    HW231431   0.065   8.244   2.986
43198SOL     OW31432  14.156  11.024  11.029
43198SOL    HW131433  14.106  11.055  11.104
43198SOL    HW231434  14.117  11.068  10.954
43199SOL     OW31435   1.785   7.826   0.462
43199SOL    HW131436   1.753   7.905   0.506
43199SOL    HW231437   1.860   7.856   0.410
43200SOL     OW31438   8.470   3.426   4.334
43200SOL    HW131439   8.503   3.454   4.249
43200SOL    HW231440   8.385   3.386   4.315
43201SOL     OW31441  11.093  10.259  10.724
43201SOL    HW131442  11.176  10.303  10.709
43201SOL    HW231443  11.053  10.253  10.637
43202SOL     OW31444   6.368   5.125   7.150
43202SOL    HW131445   6.419   5.185   7.096
43202SOL    HW231446   6.340   5.056   7.089
43203SOL     OW31447  10.337  11.883   6.507
43203SOL    HW131448  10.403  11.828   6.550
43203SOL    HW231449  10.331  11.961   6.563
43204SOL     OW31450   9.030  14.668  12.630
43204SOL    HW131451   9.099  14.607  12.605
43204SOL    HW231452   9.075  14.736  12.680
43205SOL     OW31453   0.221  13.147   2.625
43205SOL    HW131454   0.229  13.052   2.626
43205SOL    HW231455   0.197  13.169   2.716
43206SOL     OW31456  11.429   3.326   7.639
43206SOL    HW131457  11.410   3.319   7.546
43206SOL    HW231458  11.483   3.405   7.647
43207SOL     OW31459  12.365  13.239   5.865
43207SOL    HW131460  12.374  13.193   5.781
43207SOL    HW231461  12.356  13.169   5.930
43208SOL     OW31462  14.508   1.634   7.782
43208SOL    HW131463  14.464   1.621   7.866
43208SOL    HW231464  14.570   1.705   7.799
43209SOL     OW31465  10.018  11.855  11.861
43209SOL    HW131466   9.984  11.832  11.774
43209SOL    HW231467  10.074  11.932  11.845
43210SOL     OW31468   5.354   2.214   7.786
43210SOL    HW131469   5.315   2.180   7.706
43210SOL    HW231470   5.327   2.153   7.854
43211SOL     OW31471  12.101   6.947   4.529
43211SOL    HW131472  12.044   6.883   4.485
43211SOL    HW231473  12.075   6.943   4.621
43212SOL     OW31474  12.991   0.515   1.885
43212SOL    HW131475  12.900   0.534   1.860
43212SOL    HW231476  12.983   0.447   1.952
43213SOL     OW31477   1.912   4.082   0.528
43213SOL    HW131478   1.832   4.133   0.517
43213SOL    HW231479   1.912   4.057   0.621
43214SOL     OW31480   0.965  13.461   0.353
43214SOL    HW131481   0.884  13.411   0.338
43214SOL    HW231482   1.007  13.415   0.426
43215SOL     OW31483  11.956   9.410   9.280
43215SOL    HW131484  11.879   9.404   9.336
43215SOL    HW231485  11.930   9.368   9.198
43216SOL     OW31486   5.939   5.812   1.960
43216SOL    HW131487   5.901   5.884   2.010
43216SOL    HW231488   6.031   5.810   1.987
43217SOL     OW31489   0.298  12.218   5.503
43217SOL    HW131490   0.322  12.245   5.414
43217SOL    HW231491   0.380  12.220   5.551
43218SOL     OW31492   9.023   4.089  10.699
43218SOL    HW131493   9.054   4.170  10.741
43218SOL    HW231494   8.928   4.100  10.694
43219SOL     OW31495  13.932   4.032   5.065
43219SOL    HW131496  13.989   4.054   5.138
43219SOL    HW231497  13.950   3.940   5.047
43220SOL     OW31498   6.795   6.152  12.267
43220SOL    HW131499   6.819   6.231  12.315
43220SOL    HW231500   6.705   6.168  12.238
43221SOL     OW31501   8.766   5.746  13.224
43221SOL    HW131502   8.799   5.792  13.301
43221SOL    HW231503   8.804   5.658  13.231
43222SOL     OW31504   2.916   9.286  14.097
43222SOL    HW131505   2.993   9.321  14.141
43222SOL    HW231506   2.929   9.191  14.100
43223SOL     OW31507  14.366   8.187   3.875
43223SOL    HW131508  14.436   8.128   3.904
43223SOL    HW231509  14.376   8.193   3.781
43224SOL     OW31510   9.788  11.185   2.498
43224SOL    HW131511   9.763  11.277   2.491
43224SOL    HW231512   9.880  11.183   2.472
43225SOL     OW31513   8.569  10.604   5.903
43225SOL    HW131514   8.636  10.538   5.890
43225SOL    HW231515   8.574  10.659   5.825
43226SOL     OW31516   3.519   6.812   7.992
43226SOL    HW131517   3.588   6.761   7.950
43226SOL    HW231518   3.561   6.854   8.066
43227SOL     OW31519   2.461  13.055   5.201
43227SOL    HW131520   2.492  12.965   5.213
43227SOL    HW231521   2.420  13.077   5.284
43228SOL     OW31522  11.756  14.763   2.242
43228SOL    HW131523  11.705  14.799   2.315
43228SOL    HW231524  11.776  14.839   2.187
43229SOL     OW31525  12.383  13.288  13.292
43229SOL    HW131526  12.323  13.355  13.260
43229SOL    HW231527  12.462  13.337  13.315
43230SOL     OW31528  13.837   4.707   1.923
43230SOL    HW131529  13.814   4.795   1.892
43230SOL    HW231530  13.884   4.723   2.005
43231SOL     OW31531   1.887  14.401   5.779
43231SOL    HW131532   1.922  14.408   5.868
43231SOL    HW231533   1.859  14.310   5.771
43232SOL     OW31534  12.889  11.816   3.564
43232SOL    HW131535  12.979  11.782   3.561
43232SOL    HW231536  12.898  11.902   3.605
43233SOL     OW31537   9.010  14.100   6.447
43233SOL    HW131538   9.088  14.145   6.413
43233SOL    HW231539   9.045  14.031   6.503
43234SOL     OW31540   0.948   2.334  14.167
43234SOL    HW131541   1.043   2.325  14.171
43234SOL    HW231542   0.916   2.286  14.244
43235SOL     OW31543   0.561   9.601   8.782
43235SOL    HW131544   0.491   9.541   8.757
43235SOL    HW231545   0.537   9.632   8.870
43236SOL     OW31546   0.765  10.432   4.713
43236SOL    HW131547   0.687  10.487   4.717
43236SOL    HW231548   0.731  10.342   4.721
43237SOL     OW31549   7.633   4.875   1.892
43237SOL    HW131550   7.577   4.945   1.927
43237SOL    HW231551   7.694   4.856   1.963
43238SOL     OW31552   3.193   8.558   1.229
43238SOL    HW131553   3.201   8.541   1.323
43238SOL    HW231554   3.270   8.516   1.190
43239SOL     OW31555   7.415   8.316  12.749
43239SOL    HW131556   7.485   8.254  12.726
43239SOL    HW231557   7.416   8.380  12.678
43240SOL     OW31558   8.698   9.168  13.468
43240SOL    HW131559   8.758   9.117  13.415
43240SOL    HW231560   8.616   9.117  13.467
43241SOL     OW31561   8.022   6.279   8.501
43241SOL    HW131562   7.986   6.235   8.578
43241SOL    HW231563   8.062   6.359   8.536
43242SOL     OW31564   0.067   3.293  10.010
43242SOL    HW131565   0.042   3.220  10.068
43242SOL    HW231566   0.138   3.337  10.057
43243SOL     OW31567   3.269   9.755  12.401
43243SOL    HW131568   3.348   9.702  12.414
43243SOL    HW231569   3.285   9.835  12.449
43244SOL     OW31570   8.044  10.554  11.930
43244SOL    HW131571   8.034  10.630  11.873
43244SOL    HW231572   8.117  10.578  11.988
43245SOL     OW31573  13.227   8.870   5.728
43245SOL    HW131574  13.164   8.882   5.799
43245SOL    HW231575  13.221   8.777   5.706
43246SOL     OW31576   5.815   6.402   7.230
43246SOL    HW131577   5.865   6.334   7.274
43246SOL    HW231578   5.724   6.372   7.235
43247SOL     OW31579   1.959  11.977   9.409
43247SOL    HW131580   1.864  11.977   9.425
43247SOL    HW231581   1.991  11.899   9.456
43248SOL     OW31582   6.673   9.823   5.171
43248SOL    HW131583   6.738   9.754   5.162
43248SOL    HW231584   6.591   9.776   5.188
43249SOL     OW31585   9.317   9.737   2.093
43249SOL    HW131586   9.355   9.657   2.057
43249SOL    HW231587   9.248   9.706   2.152
43250SOL     OW31588  14.198   4.228   1.237
43250SOL    HW131589  14.199   4.314   1.193
43250SOL    HW231590  14.238   4.169   1.173
43251SOL     OW31591  10.822   9.316   8.762
43251SOL    HW131592  10.911   9.281   8.769
43251SOL    HW231593  10.807   9.359   8.846
43252SOL     OW31594   8.050   8.156   0.933
43252SOL    HW131595   8.136   8.147   0.974
43252SOL    HW231596   8.051   8.094   0.860
43253SOL     OW31597   2.332   7.765   9.365
43253SOL    HW131598   2.236   7.773   9.364
43253SOL    HW231599   2.356   7.777   9.457
43254SOL     OW31600   0.126   5.830  10.998
43254SOL    HW131601   0.193   5.762  10.984
43254SOL    HW231602   0.052   5.802  10.944
43255SOL     OW31603  13.420  14.078  11.411
43255SOL    HW131604  13.418  13.994  11.457
43255SOL    HW231605  13.346  14.074  11.350
43256SOL     OW31606   0.428  10.081   1.697
43256SOL    HW131607   0.365  10.010   1.705
43256SOL    HW231608   0.471  10.086   1.783
43257SOL     OW31609   3.148   3.970   8.751
43257SOL    HW131610   3.091   4.005   8.682
43257SOL    HW231611   3.212   3.916   8.704
43258SOL     OW31612  13.033   1.274   8.942
43258SOL    HW131613  13.083   1.342   8.899
43258SOL    HW231614  13.027   1.204   8.877
43259SOL     OW31615  11.252  10.659  11.743
43259SOL    HW131616  11.296  10.595  11.688
43259SOL    HW231617  11.252  10.620  11.830
43260SOL     OW31618   7.394   1.189  10.017
43260SOL    HW131619   7.372   1.179  10.110
43260SOL    HW231620   7.487   1.211  10.015
43261SOL     OW31621   8.619  13.964   7.314
43261SOL    HW131622   8.583  13.876   7.309
43261SOL    HW231623   8.545  14.019   7.339
43262SOL     OW31624   9.723  12.339   4.704
43262SOL    HW131625   9.680  12.419   4.673
43262SOL    HW231626   9.735  12.286   4.626
43263SOL     OW31627  10.299   8.879   3.850
43263SOL    HW131628  10.308   8.890   3.755
43263SOL    HW231629  10.205   8.892   3.866
43264SOL     OW31630   0.516  12.869   8.075
43264SOL    HW131631   0.582  12.861   8.006
43264SOL    HW231632   0.437  12.898   8.029
43265SOL     OW31633  10.059   0.822   1.005
43265SOL    HW131634   9.988   0.876   0.970
43265SOL    HW231635  10.052   0.739   0.957
43266SOL     OW31636   2.973  14.792   9.918
43266SOL    HW131637   3.037  14.849   9.875
43266SOL    HW231638   3.026  14.727   9.963
43267SOL     OW31639  11.382   6.167   1.625
43267SOL    HW131640  11.372   6.191   1.717
43267SOL    HW231641  11.359   6.246   1.577
43268SOL     OW31642   7.329   8.571  14.727
43268SOL    HW131643   7.264   8.624  14.772
43268SOL    HW231644   7.278   8.505  14.680
43269SOL     OW31645   5.948   3.110   3.012
43269SOL    HW131646   5.938   3.069   2.926
43269SOL    HW231647   6.040   3.135   3.017
43270SOL     OW31648   5.119   8.732  12.165
43270SOL    HW131649   5.214   8.744  12.164
43270SOL    HW231650   5.106   8.641  12.136
43271SOL     OW31651   6.960  11.586  12.163
43271SOL    HW131652   6.884  11.603  12.108
43271SOL    HW231653   6.931  11.519  12.225
43272SOL     OW31654   7.833   5.696   9.234
43272SOL    HW131655   7.814   5.709   9.327
43272SOL    HW231656   7.747   5.704   9.192
43273SOL     OW31657   2.547  14.035   6.853
43273SOL    HW131658   2.558  13.994   6.767
43273SOL    HW231659   2.457  14.069   6.852
43274SOL     OW31660   9.385   4.197   3.915
43274SOL    HW131661   9.434   4.234   3.988
43274SOL    HW231662   9.408   4.104   3.916
43275SOL     OW31663   9.022  14.311   3.182
43275SOL    HW131664   8.942  14.317   3.233
43275SOL    HW231665   8.994  14.281   3.096
43276SOL     OW31666   1.214  11.765   9.043
43276SOL    HW131667   1.229  11.833   8.977
43276SOL    HW231668   1.288  11.705   9.031
43277SOL     OW31669   3.036   9.457  10.215
43277SOL    HW131670   3.004   9.376  10.254
43277SOL    HW231671   3.084   9.501  10.285
43278SOL     OW31672  10.079  13.703  11.476
43278SOL    HW131673  10.055  13.610  11.479
43278SOL    HW231674  10.010  13.747  11.526
43279SOL     OW31675   4.569   7.290   0.738
43279SOL    HW131676   4.627   7.222   0.771
43279SOL    HW231677   4.623   7.341   0.677
43280SOL     OW31678   6.211  13.606  14.849
43280SOL    HW131679   6.121  13.632  14.829
43280SOL    HW231680   6.223  13.631   0.061
43281SOL     OW31681   1.712  13.372  14.390
43281SOL    HW131682   1.684  13.301  14.333
43281SOL    HW231683   1.775  13.332  14.450
43282SOL     OW31684  13.591  10.818   2.696
43282SOL    HW131685  13.516  10.783   2.744
43282SOL    HW231686  13.666  10.802   2.752
43283SOL     OW31687   9.320   2.474   0.332
43283SOL    HW131688   9.310   2.489   0.426
43283SOL    HW231689   9.398   2.525   0.308
43284SOL     OW31690  10.706  13.629   5.311
43284SOL    HW131691  10.757  13.556   5.279
43284SOL    HW231692  10.642  13.646   5.242
43285SOL     OW31693   7.967   1.951   9.895
43285SOL    HW131694   8.016   2.033   9.897
43285SOL    HW231695   7.888   1.969   9.947
43286SOL     OW31696   9.040  14.048   4.291
43286SOL    HW131697   8.984  13.970   4.284
43286SOL    HW231698   9.013  14.090   4.372
43287SOL     OW31699   9.174  12.792   1.087
43287SOL    HW131700   9.158  12.777   1.181
43287SOL    HW231701   9.177  12.887   1.079
43288SOL     OW31702   0.162  13.376   8.326
43288SOL    HW131703   0.240  13.365   8.271
43288SOL    HW231704   0.141  13.470   8.319
43289SOL     OW31705  13.860   7.069   4.300
43289SOL    HW131706  13.876   7.012   4.375
43289SOL    HW231707  13.939   7.060   4.246
43290SOL     OW31708   9.601   5.452   1.618
43290SOL    HW131709   9.611   5.385   1.685
43290SOL    HW231710   9.532   5.419   1.561
43291SOL     OW31711   1.911   1.589   8.068
43291SOL    HW131712   1.998   1.555   8.049
43291SOL    HW231713   1.872   1.605   7.982
43292SOL     OW31714   6.503   8.667   2.358
43292SOL    HW131715   6.469   8.741   2.408
43292SOL    HW231716   6.585   8.699   2.321
43293SOL     OW31717   5.091   0.802   0.349
43293SOL    HW131718   5.178   0.808   0.387
43293SOL    HW231719   5.098   0.846   0.264
43294SOL     OW31720   3.138   5.131   4.470
43294SOL    HW131721   3.171   5.111   4.558
43294SOL    HW231722   3.051   5.168   4.486
43295SOL     OW31723   5.254   5.324   9.097
43295SOL    HW131724   5.286   5.413   9.082
43295SOL    HW231725   5.247   5.317   9.192
43296SOL     OW31726   9.893   4.102  13.811
43296SOL    HW131727   9.934   4.176  13.765
43296SOL    HW231728   9.962   4.068  13.868
43297SOL     OW31729  12.067   6.051   9.906
43297SOL    HW131730  12.074   6.002   9.824
43297SOL    HW231731  11.986   6.021   9.946
43298SOL     OW31732   5.484   3.870  14.602
43298SOL    HW131733   5.415   3.850  14.665
43298SOL    HW231734   5.454   3.832  14.520
43299SOL     OW31735  12.582  11.721   8.314
43299SOL    HW131736  12.622  11.742   8.398
43299SOL    HW231737  12.627  11.641   8.285
43300SOL     OW31738   1.477  14.206   3.294
43300SOL    HW131739   1.550  14.189   3.234
43300SOL    HW231740   1.424  14.126   3.288
43301SOL     OW31741   9.889   0.717   1.340
43301SOL    HW131742   9.853   0.685   1.423
43301SOL    HW231743   9.854   0.805   1.331
43302SOL     OW31744   7.764   9.974  14.500
43302SOL    HW131745   7.743  10.005  14.413
43302SOL    HW231746   7.853   9.939  14.493
43303SOL     OW31747   0.352  12.203  11.954
43303SOL    HW131748   0.433  12.156  11.975
43303SOL    HW231749   0.345  12.198  11.859
43304SOL     OW31750   9.229  10.001   5.202
43304SOL    HW131751   9.188   9.935   5.145
43304SOL    HW231752   9.211  10.084   5.158
43305SOL     OW31753   2.458  10.566   7.337
43305SOL    HW131754   2.442  10.573   7.243
43305SOL    HW231755   2.524  10.497   7.345
43306SOL     OW31756   3.205   4.772   9.325
43306SOL    HW131757   3.179   4.857   9.360
43306SOL    HW231758   3.132   4.746   9.268
43307SOL     OW31759   7.027   1.121   4.684
43307SOL    HW131760   6.939   1.154   4.665
43307SOL    HW231761   7.022   1.028   4.662
43308SOL     OW31762   7.695   3.431   7.140
43308SOL    HW131763   7.637   3.499   7.172
43308SOL    HW231764   7.640   3.376   7.085
43309SOL     OW31765   7.262   5.978   8.761
43309SOL    HW131766   7.174   5.969   8.725
43309SOL    HW231767   7.288   6.067   8.737
43310SOL     OW31768  10.968  12.584   9.355
43310SOL    HW131769  11.060  12.598   9.332
43310SOL    HW231770  10.929  12.550   9.275
43311SOL     OW31771  14.631   2.251   1.458
43311SOL    HW131772  14.593   2.282   1.376
43311SOL    HW231773  14.722   2.279   1.454
43312SOL     OW31774   8.653   2.553   2.552
43312SOL    HW131775   8.633   2.478   2.608
43312SOL    HW231776   8.703   2.612   2.607
43313SOL     OW31777   3.764   4.950   1.080
43313SOL    HW131778   3.709   4.939   1.003
43313SOL    HW231779   3.728   5.027   1.124
43314SOL     OW31780  14.547  10.049   0.528
43314SOL    HW131781  14.628  10.095   0.547
43314SOL    HW231782  14.569   9.956   0.536
43315SOL     OW31783   6.856  12.325   8.116
43315SOL    HW131784   6.787  12.310   8.052
43315SOL    HW231785   6.880  12.238   8.147
43316SOL     OW31786   3.980   1.898   7.987
43316SOL    HW131787   3.919   1.878   7.916
43316SOL    HW231788   3.993   1.813   8.031
43317SOL     OW31789   7.427   8.150  11.280
43317SOL    HW131790   7.474   8.232  11.294
43317SOL    HW231791   7.491   8.093  11.238
43318SOL     OW31792   3.665   0.224  14.029
43318SOL    HW131793   3.662   0.212  14.124
43318SOL    HW231794   3.721   0.301  14.016
43319SOL     OW31795  12.207   0.903  11.007
43319SOL    HW131796  12.217   0.828  11.066
43319SOL    HW231797  12.202   0.865  10.919
43320SOL     OW31798  10.445   7.760   4.637
43320SOL    HW131799  10.513   7.755   4.571
43320SOL    HW231800  10.376   7.701   4.606
43321SOL     OW31801   8.222   6.672   7.965
43321SOL    HW131802   8.264   6.592   7.935
43321SOL    HW231803   8.145   6.682   7.908
43322SOL     OW31804   7.716   2.364  14.674
43322SOL    HW131805   7.665   2.442  14.651
43322SOL    HW231806   7.789   2.398  14.726
43323SOL     OW31807  11.743  10.438  10.790
43323SOL    HW131808  11.788  10.521  10.773
43323SOL    HW231809  11.664  10.462  10.837
43324SOL     OW31810  11.542   0.703   2.362
43324SOL    HW131811  11.540   0.667   2.451
43324SOL    HW231812  11.479   0.651   2.313
43325SOL     OW31813   8.691   7.729   6.398
43325SOL    HW131814   8.649   7.787   6.334
43325SOL    HW231815   8.623   7.712   6.463
43326SOL     OW31816  11.632  13.837   2.010
43326SOL    HW131817  11.653  13.863   1.920
43326SOL    HW231818  11.567  13.768   2.001
43327SOL     OW31819   4.951   4.253   4.654
43327SOL    HW131820   4.951   4.341   4.618
43327SOL    HW231821   4.984   4.263   4.743
43328SOL     OW31822   4.270  13.543  11.221
43328SOL    HW131823   4.198  13.483  11.202
43328SOL    HW231824   4.230  13.614  11.271
43329SOL     OW31825  13.100  14.386  10.432
43329SOL    HW131826  13.173  14.447  10.418
43329SOL    HW231827  13.051  14.389  10.350
43330SOL     OW31828  12.428  14.333   0.378
43330SOL    HW131829  12.390  14.410   0.420
43330SOL    HW231830  12.384  14.328   0.293
43331SOL     OW31831  12.092   6.640   5.942
43331SOL    HW131832  12.044   6.721   5.962
43331SOL    HW231833  12.029   6.586   5.894
43332SOL     OW31834   5.261   6.177   7.134
43332SOL    HW131835   5.354   6.195   7.150
43332SOL    HW231836   5.225   6.262   7.108
43333SOL     OW31837  13.843   1.088   1.973
43333SOL    HW131838  13.901   1.164   1.977
43333SOL    HW231839  13.758   1.123   1.948
43334SOL     OW31840   1.526   1.860  12.411
43334SOL    HW131841   1.587   1.805  12.362
43334SOL    HW231842   1.455   1.878  12.349
43335SOL     OW31843   8.649   7.015  11.892
43335SOL    HW131844   8.597   7.051  11.820
43335SOL    HW231845   8.700   6.945  11.852
43336SOL     OW31846   2.158  12.870   7.874
43336SOL    HW131847   2.240  12.920   7.880
43336SOL    HW231848   2.092  12.934   7.849
43337SOL     OW31849  11.188  13.547   1.453
43337SOL    HW131850  11.230  13.481   1.398
43337SOL    HW231851  11.131  13.496   1.511
43338SOL     OW31852   3.357  10.087  12.890
43338SOL    HW131853   3.413  10.066  12.815
43338SOL    HW231854   3.389  10.171  12.922
43339SOL     OW31855  10.569   2.340   0.073
43339SOL    HW131856  10.478   2.311   0.064
43339SOL    HW231857  10.563   2.433   0.091
43340SOL     OW31858   8.404   0.936  13.976
43340SOL    HW131859   8.375   0.958  13.887
43340SOL    HW231860   8.334   0.968  14.033
43341SOL     OW31861   1.528   2.749   0.364
43341SOL    HW131862   1.549   2.656   0.354
43341SOL    HW231863   1.452   2.763   0.308
43342SOL     OW31864  14.323  14.199  10.065
43342SOL    HW131865  14.251  14.176  10.005
43342SOL    HW231866  14.393  14.230  10.007
43343SOL     OW31867   0.634   8.364  12.338
43343SOL    HW131868   0.556   8.318  12.370
43343SOL    HW231869   0.611   8.457  12.344
43344SOL     OW31870   5.821   2.490  14.587
43344SOL    HW131871   5.886   2.560  14.582
43344SOL    HW231872   5.807   2.476  14.681
43345SOL     OW31873   4.194   0.818  13.331
43345SOL    HW131874   4.204   0.775  13.416
43345SOL    HW231875   4.193   0.911  13.351
43346SOL     OW31876  14.333  12.807   3.270
43346SOL    HW131877  14.429  12.806   3.275
43346SOL    HW231878  14.304  12.772   3.355
43347SOL     OW31879  14.290   1.063   5.220
43347SOL    HW131880  14.315   1.040   5.131
43347SOL    HW231881  14.371   1.095   5.260
43348SOL     OW31882   0.366  12.383  12.820
43348SOL    HW131883   0.385  12.404  12.911
43348SOL    HW231884   0.274  12.407  12.809
43349SOL     OW31885   1.250  10.143   1.805
43349SOL    HW131886   1.246  10.216   1.743
43349SOL    HW231887   1.333  10.157   1.851
43350SOL     OW31888   8.586   4.432   0.650
43350SOL    HW131889   8.605   4.510   0.598
43350SOL    HW231890   8.654   4.369   0.623
43351SOL     OW31891   4.362   8.969   4.412
43351SOL    HW131892   4.291   8.968   4.477
43351SOL    HW231893   4.423   8.902   4.442
43352SOL     OW31894   4.183  11.887   6.096
43352SOL    HW131895   4.236  11.950   6.046
43352SOL    HW231896   4.220  11.802   6.074
43353SOL     OW31897  11.837   0.410   2.269
43353SOL    HW131898  11.777   0.420   2.194
43353SOL    HW231899  11.831   0.317   2.291
43354SOL     OW31900  11.980   9.769   4.543
43354SOL    HW131901  12.035   9.714   4.599
43354SOL    HW231902  11.891   9.737   4.559
43355SOL     OW31903  10.518   4.698  13.332
43355SOL    HW131904  10.563   4.625  13.375
43355SOL    HW231905  10.576   4.773  13.347
43356SOL     OW31906   5.792   5.288   7.088
43356SOL    HW131907   5.809   5.367   7.138
43356SOL    HW231908   5.770   5.320   7.000
43357SOL     OW31909  11.886   6.617   9.178
43357SOL    HW131910  11.816   6.648   9.121
43357SOL    HW231911  11.950   6.688   9.180
43358SOL     OW31912   7.040  10.683   1.055
43358SOL    HW131913   7.020  10.695   1.148
43358SOL    HW231914   7.124  10.727   1.043
43359SOL     OW31915  10.529   6.172  12.520
43359SOL    HW131916  10.550   6.156  12.428
43359SOL    HW231917  10.551   6.264  12.534
43360SOL     OW31918   3.020   9.570   6.029
43360SOL    HW131919   2.975   9.547   5.948
43360SOL    HW231920   3.105   9.603   6.000
43361SOL     OW31921  12.449   9.923   4.051
43361SOL    HW131922  12.511   9.994   4.036
43361SOL    HW231923  12.456   9.868   3.974
43362SOL     OW31924   4.749   7.498   8.575
43362SOL    HW131925   4.734   7.403   8.566
43362SOL    HW231926   4.812   7.506   8.646
43363SOL     OW31927  11.227  13.734   7.302
43363SOL    HW131928  11.140  13.697   7.294
43363SOL    HW231929  11.243  13.779   7.219
43364SOL     OW31930   4.693   5.995   8.382
43364SOL    HW131931   4.607   5.997   8.423
43364SOL    HW231932   4.729   5.909   8.406
43365SOL     OW31933   0.287  14.398   0.002
43365SOL    HW131934   0.338  14.476   0.022
43365SOL    HW231935   0.259  14.364   0.087
43366SOL     OW31936  12.124   0.429   9.143
43366SOL    HW131937  12.075   0.503   9.108
43366SOL    HW231938  12.098   0.424   9.235
43367SOL     OW31939  13.740   6.310  12.078
43367SOL    HW131940  13.703   6.234  12.125
43367SOL    HW231941  13.729   6.383  12.139
43368SOL     OW31942   2.578  10.880   3.531
43368SOL    HW131943   2.602  10.815   3.597
43368SOL    HW231944   2.623  10.851   3.451
43369SOL     OW31945   3.493   5.978   0.723
43369SOL    HW131946   3.434   5.907   0.749
43369SOL    HW231947   3.442   6.058   0.733
43370SOL     OW31948  12.974   3.785  13.314
43370SOL    HW131949  12.982   3.703  13.363
43370SOL    HW231950  12.886   3.782  13.277
43371SOL     OW31951   2.419   8.946   6.346
43371SOL    HW131952   2.502   8.982   6.317
43371SOL    HW231953   2.405   8.870   6.289
43372SOL     OW31954   7.870   9.173   1.553
43372SOL    HW131955   7.930   9.116   1.601
43372SOL    HW231956   7.817   9.113   1.501
43373SOL     OW31957   9.332  12.146  13.025
43373SOL    HW131958   9.351  12.239  13.010
43373SOL    HW231959   9.271  12.122  12.955
43374SOL     OW31960   4.543   2.392   0.857
43374SOL    HW131961   4.627   2.362   0.822
43374SOL    HW231962   4.568   2.456   0.924
43375SOL     OW31963   3.229   0.466   2.457
43375SOL    HW131964   3.175   0.528   2.407
43375SOL    HW231965   3.284   0.521   2.512
43376SOL     OW31966  11.287  10.950   2.686
43376SOL    HW131967  11.270  10.905   2.768
43376SOL    HW231968  11.326  11.034   2.712
43377SOL     OW31969   7.653   5.466  12.379
43377SOL    HW131970   7.724   5.460  12.315
43377SOL    HW231971   7.694   5.444  12.463
43378SOL     OW31972   6.597   2.664  13.486
43378SOL    HW131973   6.682   2.628  13.511
43378SOL    HW231974   6.534   2.621  13.545
43379SOL     OW31975   5.287   4.533   3.315
43379SOL    HW131976   5.205   4.563   3.275
43379SOL    HW231977   5.336   4.613   3.332
43380SOL     OW31978   1.425   2.329  14.055
43380SOL    HW131979   1.392   2.304  14.141
43380SOL    HW231980   1.372   2.404  14.030
43381SOL     OW31981   9.855  10.661   0.924
43381SOL    HW131982   9.790  10.630   0.861
43381SOL    HW231983   9.880  10.748   0.893
43382SOL     OW31984   7.491   2.097   6.344
43382SOL    HW131985   7.514   2.084   6.436
43382SOL    HW231986   7.570   2.133   6.304
43383SOL     OW31987   3.789   0.345  10.719
43383SOL    HW131988   3.780   0.270  10.660
43383SOL    HW231989   3.707   0.348  10.767
43384SOL     OW31990   2.643   4.120   3.122
43384SOL    HW131991   2.548   4.122   3.131
43384SOL    HW231992   2.674   4.199   3.166
43385SOL     OW31993   5.776  11.224  12.931
43385SOL    HW131994   5.756  11.249  13.021
43385SOL    HW231995   5.737  11.137  12.920
43386SOL     OW31996  11.368  12.347   3.523
43386SOL    HW131997  11.456  12.370   3.492
43386SOL    HW231998  11.314  12.421   3.495
43387SOL     OW31999  14.655   7.732   3.015
43387SOL    HW132000  14.746   7.759   3.005
43387SOL    HW232001  14.660   7.647   3.060
43388SOL     OW32002   6.030   9.510   8.141
43388SOL    HW132003   6.062   9.461   8.216
43388SOL    HW232004   6.031   9.601   8.169
43389SOL     OW32005   1.024  12.017   7.071
43389SOL    HW132006   1.117  12.016   7.094
43389SOL    HW232007   1.009  11.934   7.025
43390SOL     OW32008   7.180   0.741  12.141
43390SOL    HW132009   7.234   0.819  12.149
43390SOL    HW232010   7.238   0.669  12.166
43391SOL     OW32011   2.805   3.733   6.742
43391SOL    HW132012   2.788   3.794   6.671
43391SOL    HW232013   2.900   3.734   6.753
43392SOL     OW32014   4.221   3.940   0.891
43392SOL    HW132015   4.189   4.012   0.837
43392SOL    HW232016   4.300   3.909   0.845
43393SOL     OW32017   8.876  11.085  14.696
43393SOL    HW132018   8.791  11.058  14.661
43393SOL    HW232019   8.927  11.004  14.700
43394SOL     OW32020   5.656   0.257   8.215
43394SOL    HW132021   5.629   0.346   8.239
43394SOL    HW232022   5.602   0.236   8.139
43395SOL     OW32023  13.851   5.534   6.400
43395SOL    HW132024  13.806   5.465   6.352
43395SOL    HW232025  13.918   5.565   6.340
43396SOL     OW32026  13.518   4.399   7.355
43396SOL    HW132027  13.502   4.480   7.307
43396SOL    HW232028  13.605   4.411   7.393
43397SOL     OW32029   1.428   6.377   1.178
43397SOL    HW132030   1.341   6.344   1.155
43397SOL    HW232031   1.432   6.464   1.138
43398SOL     OW32032  13.739   6.557   5.315
43398SOL    HW132033  13.835   6.559   5.309
43398SOL    HW232034  13.721   6.494   5.385
43399SOL     OW32035   0.579   0.893   4.435
43399SOL    HW132036   0.610   0.868   4.348
43399SOL    HW232037   0.545   0.811   4.473
43400SOL     OW32038   9.923  13.760   7.645
43400SOL    HW132039  10.001  13.719   7.608
43400SOL    HW232040   9.890  13.817   7.576
43401SOL     OW32041   6.775   2.329  14.446
43401SOL    HW132042   6.804   2.415  14.414
43401SOL    HW232043   6.736   2.347  14.531
43402SOL     OW32044  11.800   6.021  13.835
43402SOL    HW132045  11.886   6.051  13.865
43402SOL    HW232046  11.810   6.008  13.741
43403SOL     OW32047   7.549  13.635   8.085
43403SOL    HW132048   7.521  13.555   8.040
43403SOL    HW232049   7.645  13.634   8.079
43404SOL     OW32050   3.620   1.197   4.154
43404SOL    HW132051   3.624   1.102   4.166
43404SOL    HW232052   3.684   1.232   4.217
43405SOL     OW32053   1.207  14.530   3.543
43405SOL    HW132054   1.278  14.495   3.489
43405SOL    HW232055   1.192  14.463   3.610
43406SOL     OW32056   8.552  11.946   4.794
43406SOL    HW132057   8.489  12.000   4.842
43406SOL    HW232058   8.630  11.947   4.848
43407SOL     OW32059   1.898  10.776   6.278
43407SOL    HW132060   1.843  10.854   6.272
43407SOL    HW232061   1.856  10.724   6.347
43408SOL     OW32062   4.667   1.185   6.424
43408SOL    HW132063   4.689   1.266   6.469
43408SOL    HW232064   4.573   1.173   6.441
43409SOL     OW32065  12.771  14.621   4.202
43409SOL    HW132066  12.714  14.553   4.165
43409SOL    HW232067  12.733  14.639   4.288
43410SOL     OW32068   8.774  13.720   3.208
43410SOL    HW132069   8.835  13.781   3.249
43410SOL    HW232070   8.776  13.743   3.115
43411SOL     OW32071   8.622   1.848  10.612
43411SOL    HW132072   8.663   1.931  10.588
43411SOL    HW232073   8.630   1.844  10.708
43412SOL     OW32074   5.159  12.587  14.192
43412SOL    HW132075   5.108  12.518  14.234
43412SOL    HW232076   5.169  12.557  14.101
43413SOL     OW32077   7.360   1.069   0.120
43413SOL    HW132078   7.301   1.054   0.194
43413SOL    HW232079   7.436   1.014   0.140
43414SOL     OW32080  10.712   8.130   7.921
43414SOL    HW132081  10.804   8.142   7.944
43414SOL    HW232082  10.689   8.210   7.873
43415SOL     OW32083   7.105  11.228   5.100
43415SOL    HW132084   7.053  11.165   5.050
43415SOL    HW232085   7.109  11.191   5.188
43416SOL     OW32086   6.965   5.900   8.700
43416SOL    HW132087   6.922   5.967   8.647
43416SOL    HW232088   6.903   5.883   8.771
43417SOL     OW32089   8.770  13.663  12.230
43417SOL    HW132090   8.803  13.596  12.290
43417SOL    HW232091   8.757  13.616  12.147
43418SOL     OW32092   9.161  13.509  11.161
43418SOL    HW132093   9.175  13.439  11.225
43418SOL    HW232094   9.102  13.571  11.205
43419SOL     OW32095   8.207   7.556   4.794
43419SOL    HW132096   8.161   7.561   4.711
43419SOL    HW232097   8.156   7.612   4.853
43420SOL     OW32098   5.511  12.587   9.842
43420SOL    HW132099   5.426  12.603   9.801
43420SOL    HW232100   5.492  12.526   9.913
43421SOL     OW32101  10.052   4.646   0.222
43421SOL    HW132102  10.117   4.711   0.249
43421SOL    HW232103  10.070   4.570   0.278
43422SOL     OW32104   4.088   8.409   7.848
43422SOL    HW132105   4.070   8.500   7.872
43422SOL    HW232106   4.114   8.367   7.930
43423SOL     OW32107  14.727   6.452   7.814
43423SOL    HW132108  14.636   6.459   7.784
43423SOL    HW232109  14.773   6.523   7.769
43424SOL     OW32110   4.606   5.039   2.229
43424SOL    HW132111   4.644   5.112   2.181
43424SOL    HW232112   4.642   5.049   2.318
43425SOL     OW32113   9.068   3.597   4.742
43425SOL    HW132114   9.093   3.621   4.831
43425SOL    HW232115   9.099   3.670   4.688
43426SOL     OW32116   5.667  12.422   5.011
43426SOL    HW132117   5.595  12.399   4.953
43426SOL    HW232118   5.631  12.491   5.067
43427SOL     OW32119  11.428   6.193  14.575
43427SOL    HW132120  11.484   6.247  14.519
43427SOL    HW232121  11.341   6.203  14.538
43428SOL     OW32122  12.501  10.431  13.956
43428SOL    HW132123  12.573  10.490  13.933
43428SOL    HW232124  12.533  10.344  13.931
43429SOL     OW32125   8.600   5.076   5.079
43429SOL    HW132126   8.529   5.029   5.036
43429SOL    HW232127   8.630   5.016   5.149
43430SOL     OW32128   8.149  12.353   9.456
43430SOL    HW132129   8.175  12.263   9.472
43430SOL    HW232130   8.057  12.357   9.483
43431SOL     OW32131   5.936  12.437   5.097
43431SOL    HW132132   5.852  12.424   5.052
43431SOL    HW232133   6.000  12.447   5.027
43432SOL     OW32134   0.959   4.211   4.224
43432SOL    HW132135   0.883   4.193   4.169
43432SOL    HW232136   1.025   4.148   4.196
43433SOL     OW32137   3.644   7.291   5.440
43433SOL    HW132138   3.715   7.355   5.433
43433SOL    HW232139   3.584   7.329   5.504
43434SOL     OW32140  14.707  14.157   6.718
43434SOL    HW132141  14.735  14.085   6.774
43434SOL    HW232142  14.634  14.198   6.766
43435SOL     OW32143   5.673  13.740   4.871
43435SOL    HW132144   5.638  13.702   4.790
43435SOL    HW232145   5.717  13.666   4.914
43436SOL     OW32146   3.568   0.689  12.723
43436SOL    HW132147   3.496   0.736  12.766
43436SOL    HW232148   3.525   0.633  12.659
43437SOL     OW32149   9.675   4.370   0.281
43437SOL    HW132150   9.590   4.346   0.244
43437SOL    HW232151   9.690   4.459   0.249
43438SOL     OW32152   0.317   0.008   1.734
43438SOL    HW132153   0.269   0.079   1.690
43438SOL    HW232154   0.336   0.042   1.822
43439SOL     OW32155  14.869   6.838   5.700
43439SOL    HW132156   0.070   6.871   5.659
43439SOL    HW232157   0.017   6.757   5.743
43440SOL     OW32158  11.117   6.351   1.725
43440SOL    HW132159  11.174   6.357   1.649
43440SOL    HW232160  11.048   6.416   1.709
43441SOL     OW32161   4.204  13.485  13.885
43441SOL    HW132162   4.148  13.532  13.946
43441SOL    HW232163   4.215  13.399  13.925
43442SOL     OW32164   4.756   7.754   9.111
43442SOL    HW132165   4.667   7.737   9.079
43442SOL    HW232166   4.789   7.668   9.136
43443SOL     OW32167   6.218   7.313  12.014
43443SOL    HW132168   6.201   7.334  12.105
43443SOL    HW232169   6.238   7.219  12.014
43444SOL     OW32170   9.086   9.546  10.281
43444SOL    HW132171   9.001   9.516  10.250
43444SOL    HW232172   9.069   9.634  10.315
43445SOL     OW32173  11.971  10.044  12.448
43445SOL    HW132174  11.882  10.056  12.481
43445SOL    HW232175  11.992  10.127  12.406
43446SOL     OW32176   4.877   3.237  12.025
43446SOL    HW132177   4.922   3.156  12.002
43446SOL    HW232178   4.796   3.209  12.067
43447SOL     OW32179  14.657   9.144  12.147
43447SOL    HW132180  14.574   9.163  12.102
43447SOL    HW232181  14.665   9.214  12.211
43448SOL     OW32182   4.897   4.323   5.866
43448SOL    HW132183   4.841   4.352   5.794
43448SOL    HW232184   4.841   4.329   5.944
43449SOL     OW32185   5.836   5.523  12.103
43449SOL    HW132186   5.823   5.446  12.047
43449SOL    HW232187   5.887   5.583  12.049
43450SOL     OW32188   4.527   0.331  11.733
43450SOL    HW132189   4.560   0.299  11.649
43450SOL    HW232190   4.596   0.388  11.767
43451SOL     OW32191  13.096   7.623  10.321
43451SOL    HW132192  13.078   7.622  10.415
43451SOL    HW232193  13.055   7.544  10.287
43452SOL     OW32194   9.425   6.095  11.953
43452SOL    HW132195   9.507   6.133  11.922
43452SOL    HW232196   9.427   6.005  11.921
43453SOL     OW32197   1.504   2.326  12.622
43453SOL    HW132198   1.500   2.243  12.670
43453SOL    HW232199   1.500   2.300  12.530
43454SOL     OW32200  10.527   4.665   4.724
43454SOL    HW132201  10.440   4.635   4.750
43454SOL    HW232202  10.511   4.733   4.658
43455SOL     OW32203  11.564  13.968   8.176
43455SOL    HW132204  11.520  13.975   8.091
43455SOL    HW232205  11.570  13.874   8.192
43456SOL     OW32206   7.450   3.677  10.812
43456SOL    HW132207   7.388   3.625  10.862
43456SOL    HW232208   7.515   3.705  10.875
43457SOL     OW32209   8.559   1.971   3.111
43457SOL    HW132210   8.499   1.923   3.054
43457SOL    HW232211   8.523   2.059   3.114
43458SOL     OW32212  14.353   5.676   7.547
43458SOL    HW132213  14.294   5.606   7.576
43458SOL    HW232214  14.394   5.642   7.467
43459SOL     OW32215   2.583   2.601  11.421
43459SOL    HW132216   2.653   2.554  11.375
43459SOL    HW232217   2.605   2.592  11.514
43460SOL     OW32218   2.155   3.822   6.876
43460SOL    HW132219   2.182   3.798   6.788
43460SOL    HW232220   2.142   3.917   6.872
43461SOL     OW32221   7.549   3.846   4.774
43461SOL    HW132222   7.546   3.896   4.692
43461SOL    HW232223   7.505   3.764   4.753
43462SOL     OW32224   0.952   1.832   1.974
43462SOL    HW132225   1.027   1.865   2.024
43462SOL    HW232226   0.988   1.811   1.888
43463SOL     OW32227   6.565  13.616  13.836
43463SOL    HW132228   6.654  13.653  13.837
43463SOL    HW232229   6.522  13.660  13.764
43464SOL     OW32230   2.030   7.589   1.959
43464SOL    HW132231   2.087   7.513   1.968
43464SOL    HW232232   1.949   7.565   2.003
43465SOL     OW32233   4.230   1.797   5.137
43465SOL    HW132234   4.188   1.841   5.064
43465SOL    HW232235   4.275   1.722   5.097
43466SOL     OW32236   1.277   8.731  13.523
43466SOL    HW132237   1.211   8.699  13.461
43466SOL    HW232238   1.247   8.699  13.608
43467SOL     OW32239  13.512  14.131   1.304
43467SOL    HW132240  13.440  14.194   1.301
43467SOL    HW232241  13.483  14.059   1.249
43468SOL     OW32242  13.184   4.745   3.396
43468SOL    HW132243  13.273   4.760   3.365
43468SOL    HW232244  13.134   4.821   3.364
43469SOL     OW32245   5.785  11.225   0.648
43469SOL    HW132246   5.860  11.185   0.604
43469SOL    HW232247   5.802  11.212   0.741
43470SOL     OW32248  12.025   3.537   4.274
43470SOL    HW132249  11.991   3.549   4.362
43470SOL    HW232250  12.087   3.609   4.262
43471SOL     OW32251  12.132  12.760   4.076
43471SOL    HW132252  12.065  12.693   4.071
43471SOL    HW232253  12.172  12.760   3.989
43472SOL     OW32254  13.802   7.110   5.034
43472SOL    HW132255  13.733   7.091   4.970
43472SOL    HW232256  13.877   7.138   4.981
43473SOL     OW32257  10.127   4.075   2.317
43473SOL    HW132258  10.122   3.996   2.371
43473SOL    HW232259  10.191   4.053   2.249
43474SOL     OW32260   7.570   0.820   6.715
43474SOL    HW132261   7.525   0.842   6.797
43474SOL    HW232262   7.548   0.728   6.700
43475SOL     OW32263   2.814   5.679   3.895
43475SOL    HW132264   2.722   5.695   3.874
43475SOL    HW232265   2.861   5.700   3.814
43476SOL     OW32266   3.788  10.010   6.123
43476SOL    HW132267   3.793   9.932   6.067
43476SOL    HW232268   3.694  10.031   6.125
43477SOL     OW32269  13.230  10.492   7.329
43477SOL    HW132270  13.313  10.539   7.326
43477SOL    HW232271  13.243  10.424   7.395
43478SOL     OW32272  14.877   6.552   5.752
43478SOL    HW132273   0.037   6.565   5.838
43478SOL    HW232274  14.800   6.497   5.768
43479SOL     OW32275  11.180  10.915   4.000
43479SOL    HW132276  11.219  10.976   4.063
43479SOL    HW232277  11.187  10.829   4.043
43480SOL     OW32278   4.046  10.205   8.815
43480SOL    HW132279   4.024  10.140   8.748
43480SOL    HW232280   4.116  10.165   8.866
43481SOL     OW32281   3.892   2.753  12.562
43481SOL    HW132282   3.933   2.684  12.510
43481SOL    HW232283   3.964   2.789  12.615
43482SOL     OW32284   2.454   4.550  10.691
43482SOL    HW132285   2.498   4.605  10.626
43482SOL    HW232286   2.499   4.466  10.686
43483SOL     OW32287   9.299   2.638   3.864
43483SOL    HW132288   9.217   2.596   3.838
43483SOL    HW232289   9.278   2.683   3.945
43484SOL     OW32290   9.276   2.301  11.270
43484SOL    HW132291   9.191   2.266  11.244
43484SOL    HW232292   9.318   2.326  11.187
43485SOL     OW32293   1.308   0.253   3.795
43485SOL    HW132294   1.312   0.187   3.864
43485SOL    HW232295   1.352   0.212   3.720
43486SOL     OW32296  13.399   9.701  13.586
43486SOL    HW132297  13.493   9.704  13.604
43486SOL    HW232298  13.391   9.736  13.497
43487SOL     OW32299   1.373  12.194   8.618
43487SOL    HW132300   1.314  12.183   8.692
43487SOL    HW232301   1.433  12.120   8.624
43488SOL     OW32302   4.015   9.027   7.577
43488SOL    HW132303   3.965   9.109   7.575
43488SOL    HW232304   4.077   9.034   7.505
43489SOL     OW32305   8.356   8.217  14.298
43489SOL    HW132306   8.273   8.232  14.254
43489SOL    HW232307   8.395   8.143  14.252
43490SOL     OW32308   3.113  13.456   6.550
43490SOL    HW132309   3.073  13.491   6.470
43490SOL    HW232310   3.060  13.493   6.621
43491SOL     OW32311  14.037  10.764   5.821
43491SOL    HW132312  13.995  10.731   5.742
43491SOL    HW232313  14.027  10.859   5.817
43492SOL     OW32314   6.279   3.714   6.545
43492SOL    HW132315   6.264   3.671   6.460
43492SOL    HW232316   6.359   3.765   6.533
43493SOL     OW32317   8.945   3.515   6.640
43493SOL    HW132318   9.033   3.486   6.619
43493SOL    HW232319   8.950   3.610   6.641
43494SOL     OW32320  12.269   3.204   1.951
43494SOL    HW132321  12.350   3.254   1.940
43494SOL    HW232322  12.288   3.120   1.910
43495SOL     OW32323   9.451   3.462   5.986
43495SOL    HW132324   9.419   3.542   5.945
43495SOL    HW232325   9.507   3.421   5.920
43496SOL     OW32326  13.803  12.344  14.189
43496SOL    HW132327  13.722  12.394  14.182
43496SOL    HW232328  13.858  12.377  14.118
43497SOL     OW32329   8.209   7.717   1.163
43497SOL    HW132330   8.219   7.810   1.140
43497SOL    HW232331   8.119   7.695   1.138
43498SOL     OW32332   2.307   7.814   4.574
43498SOL    HW132333   2.326   7.734   4.624
43498SOL    HW232334   2.389   7.863   4.576
43499SOL     OW32335  11.653   7.983   5.744
43499SOL    HW132336  11.564   7.948   5.739
43499SOL    HW232337  11.693   7.938   5.818
43500SOL     OW32338   8.226  11.409  13.037
43500SOL    HW132339   8.139  11.437  13.009
43500SOL    HW232340   8.227  11.314  13.020
43501SOL     OW32341   1.902  11.100   3.681
43501SOL    HW132342   1.880  11.169   3.744
43501SOL    HW232343   1.818  11.063   3.655
43502SOL     OW32344  10.124   1.103   7.948
43502SOL    HW132345  10.118   1.019   7.902
43502SOL    HW232346  10.126   1.079   8.041
43503SOL     OW32347   2.692   8.061   5.978
43503SOL    HW132348   2.698   8.119   6.054
43503SOL    HW232349   2.782   8.030   5.965
43504SOL     OW32350  13.972  14.752   1.834
43504SOL    HW132351  14.049  14.786   1.788
43504SOL    HW232352  13.998  14.664   1.862
43505SOL     OW32353   6.715   3.885   7.311
43505SOL    HW132354   6.729   3.975   7.342
43505SOL    HW232355   6.663   3.845   7.380
43506SOL     OW32356   6.808  14.663   1.141
43506SOL    HW132357   6.851  14.595   1.090
43506SOL    HW232358   6.832  14.745   1.097
43507SOL     OW32359   3.480   1.471  10.140
43507SOL    HW132360   3.492   1.382  10.106
43507SOL    HW232361   3.546   1.480  10.208
43508SOL     OW32362   5.663   1.937   1.375
43508SOL    HW132363   5.597   1.990   1.330
43508SOL    HW232364   5.744   1.954   1.327
43509SOL     OW32365   9.007   3.404   3.302
43509SOL    HW132366   9.058   3.474   3.343
43509SOL    HW232367   9.048   3.392   3.216
43510SOL     OW32368   3.489   8.547  10.172
43510SOL    HW132369   3.515   8.639  10.162
43510SOL    HW232370   3.466   8.538  10.265
43511SOL     OW32371  12.849   2.550   6.522
43511SOL    HW132372  12.910   2.621   6.544
43511SOL    HW232373  12.906   2.477   6.499
43512SOL     OW32374   0.087   6.793   9.633
43512SOL    HW132375   0.021   6.772   9.698
43512SOL    HW232376   0.120   6.879   9.658
43513SOL     OW32377  10.894   4.241  12.399
43513SOL    HW132378  10.870   4.245  12.306
43513SOL    HW232379  10.819   4.280  12.444
43514SOL     OW32380   9.385   2.369   8.509
43514SOL    HW132381   9.300   2.328   8.497
43514SOL    HW232382   9.397   2.421   8.429
43515SOL     OW32383   1.324   7.715  14.341
43515SOL    HW132384   1.249   7.730  14.284
43515SOL    HW232385   1.368   7.800  14.345
43516SOL     OW32386   1.002   2.435   6.692
43516SOL    HW132387   1.067   2.486   6.644
43516SOL    HW232388   0.919   2.477   6.671
43517SOL     OW32389   1.956  12.195   1.824
43517SOL    HW132390   1.948  12.281   1.783
43517SOL    HW232391   1.868  12.157   1.816
43518SOL     OW32392   9.794   4.475   7.820
43518SOL    HW132393   9.831   4.547   7.771
43518SOL    HW232394   9.858   4.404   7.812
43519SOL     OW32395   2.050   4.704   6.403
43519SOL    HW132396   2.017   4.639   6.466
43519SOL    HW232397   2.008   4.679   6.321
43520SOL     OW32398  11.550   7.587   3.003
43520SOL    HW132399  11.623   7.604   2.944
43520SOL    HW232400  11.537   7.669   3.050
43521SOL     OW32401   4.197  11.194  12.188
43521SOL    HW132402   4.149  11.218  12.267
43521SOL    HW232403   4.289  11.208  12.211
43522SOL     OW32404   9.384  14.432   2.142
43522SOL    HW132405   9.472  14.435   2.105
43522SOL    HW232406   9.373  14.517   2.184
43523SOL     OW32407   3.953   6.112   7.870
43523SOL    HW132408   3.923   6.116   7.961
43523SOL    HW232409   3.976   6.203   7.849
43524SOL     OW32410  10.418   7.094  11.903
43524SOL    HW132411  10.376   7.056  11.980
43524SOL    HW232412  10.346   7.113  11.843
43525SOL     OW32413  11.850   1.994  14.639
43525SOL    HW132414  11.755   1.981  14.632
43525SOL    HW232415  11.877   1.935  14.709
43526SOL     OW32416   0.436   1.251   3.764
43526SOL    HW132417   0.488   1.175   3.739
43526SOL    HW232418   0.480   1.287   3.841
43527SOL     OW32419  11.902   3.813   0.406
43527SOL    HW132420  11.864   3.729   0.380
43527SOL    HW232421  11.877   3.824   0.497
43528SOL     OW32422  13.723   6.977   3.683
43528SOL    HW132423  13.799   6.926   3.712
43528SOL    HW232424  13.708   6.950   3.593
43529SOL     OW32425  12.289  14.625  13.963
43529SOL    HW132426  12.356  14.640  13.896
43529SOL    HW232427  12.259  14.536  13.946
43530SOL     OW32428   9.186  14.702   3.867
43530SOL    HW132429   9.268  14.742   3.897
43530SOL    HW232430   9.163  14.640   3.937
43531SOL     OW32431   8.858   1.146   4.534
43531SOL    HW132432   8.934   1.199   4.508
43531SOL    HW232433   8.789   1.172   4.473
43532SOL     OW32434   9.674  11.259  13.838
43532SOL    HW132435   9.697  11.262  13.931
43532SOL    HW232436   9.656  11.350  13.815
43533SOL     OW32437   1.406   6.312  10.150
43533SOL    HW132438   1.341   6.364  10.104
43533SOL    HW232439   1.421   6.359  10.232
43534SOL     OW32440  14.450   8.261  11.219
43534SOL    HW132441  14.459   8.319  11.294
43534SOL    HW232442  14.368   8.214  11.233
43535SOL     OW32443  12.377  11.168   3.219
43535SOL    HW132444  12.305  11.172   3.155
43535SOL    HW232445  12.382  11.076   3.244
43536SOL     OW32446   6.809  13.250   8.572
43536SOL    HW132447   6.726  13.236   8.526
43536SOL    HW232448   6.871  13.271   8.502
43537SOL     OW32449   1.360   6.818  10.117
43537SOL    HW132450   1.277   6.842  10.158
43537SOL    HW232451   1.343   6.733  10.076
43538SOL     OW32452   9.364  10.235  11.350
43538SOL    HW132453   9.403  10.156  11.386
43538SOL    HW232454   9.367  10.299  11.421
43539SOL     OW32455  11.036   8.639   7.725
43539SOL    HW132456  11.005   8.653   7.815
43539SOL    HW232457  11.131   8.651   7.731
43540SOL     OW32458   3.335   9.796  13.269
43540SOL    HW132459   3.412   9.759  13.227
43540SOL    HW232460   3.271   9.804  13.198
43541SOL     OW32461   8.468   0.546   0.464
43541SOL    HW132462   8.398   0.494   0.425
43541SOL    HW232463   8.426   0.590   0.538
43542SOL     OW32464  12.516  10.782   4.131
43542SOL    HW132465  12.561  10.831   4.200
43542SOL    HW232466  12.564  10.699   4.127
43543SOL     OW32467   8.262  13.473   6.744
43543SOL    HW132468   8.231  13.523   6.820
43543SOL    HW232469   8.356  13.465   6.758
43544SOL     OW32470  11.648   5.035   1.038
43544SOL    HW132471  11.588   5.109   1.044
43544SOL    HW232472  11.723   5.060   1.093
43545SOL     OW32473   3.690  10.018  12.374
43545SOL    HW132474   3.664  10.000  12.284
43545SOL    HW232475   3.658   9.943  12.424
43546SOL     OW32476   5.752   3.787   8.368
43546SOL    HW132477   5.715   3.794   8.457
43546SOL    HW232478   5.811   3.861   8.361
43547SOL     OW32479   0.245  10.560   2.279
43547SOL    HW132480   0.179  10.528   2.218
43547SOL    HW232481   0.232  10.508   2.358
43548SOL     OW32482  10.663   5.416   8.818
43548SOL    HW132483  10.584   5.374   8.782
43548SOL    HW232484  10.630   5.469   8.890
43549SOL     OW32485   0.990   4.094   6.871
43549SOL    HW132486   1.002   4.161   6.804
43549SOL    HW232487   1.064   4.106   6.931
43550SOL     OW32488   2.060   7.719  11.514
43550SOL    HW132489   2.022   7.801  11.545
43550SOL    HW232490   2.135   7.704  11.572
43551SOL     OW32491  14.875  13.823   1.258
43551SOL    HW132492  14.856  13.750   1.318
43551SOL    HW232493   0.036  13.781   1.182
43552SOL     OW32494   7.197   7.429  11.522
43552SOL    HW132495   7.200   7.525  11.518
43552SOL    HW232496   7.217   7.401  11.433
43553SOL     OW32497   1.164   7.894  11.912
43553SOL    HW132498   1.150   7.975  11.863
43553SOL    HW232499   1.202   7.923  11.995
43554SOL     OW32500  13.146   4.454  10.518
43554SOL    HW132501  13.209   4.445  10.590
43554SOL    HW232502  13.142   4.548  10.501
43555SOL     OW32503   2.290   4.038   8.333
43555SOL    HW132504   2.277   4.052   8.239
43555SOL    HW232505   2.363   3.976   8.338
43556SOL     OW32506   8.494   5.956   4.437
43556SOL    HW132507   8.484   6.051   4.435
43556SOL    HW232508   8.405   5.922   4.446
43557SOL     OW32509   8.758   9.713   8.732
43557SOL    HW132510   8.770   9.796   8.778
43557SOL    HW232511   8.664   9.696   8.736
43558SOL     OW32512  11.613   8.374   1.680
43558SOL    HW132513  11.532   8.403   1.722
43558SOL    HW232514  11.677   8.442   1.702
43559SOL     OW32515   6.385   2.573   4.752
43559SOL    HW132516   6.454   2.616   4.803
43559SOL    HW232517   6.432   2.513   4.694
43560SOL     OW32518   5.462   1.645   9.858
43560SOL    HW132519   5.457   1.739   9.844
43560SOL    HW232520   5.541   1.618   9.810
43561SOL     OW32521  12.688   9.000  12.192
43561SOL    HW132522  12.707   9.013  12.099
43561SOL    HW232523  12.616   9.061  12.210
43562SOL     OW32524   0.875  11.708   1.960
43562SOL    HW132525   0.793  11.719   2.008
43562SOL    HW232526   0.847  11.685   1.871
43563SOL     OW32527   7.503  10.461  12.383
43563SOL    HW132528   7.541  10.546  12.405
43563SOL    HW232529   7.557  10.429  12.310
43564SOL     OW32530   1.230  12.056  10.457
43564SOL    HW132531   1.291  12.044  10.530
43564SOL    HW232532   1.264  11.997  10.389
43565SOL     OW32533   7.461   4.718   2.193
43565SOL    HW132534   7.409   4.734   2.114
43565SOL    HW232535   7.433   4.631   2.223
43566SOL     OW32536   3.442  10.774   1.114
43566SOL    HW132537   3.462  10.680   1.107
43566SOL    HW232538   3.380  10.780   1.186
43567SOL     OW32539   1.644   5.225   8.828
43567SOL    HW132540   1.667   5.164   8.898
43567SOL    HW232541   1.594   5.172   8.766
43568SOL     OW32542  10.732   1.639  14.219
43568SOL    HW132543  10.669   1.638  14.146
43568SOL    HW232544  10.705   1.714  14.272
43569SOL     OW32545  12.293  11.120   5.775
43569SOL    HW132546  12.258  11.180   5.841
43569SOL    HW232547  12.273  11.163   5.692
43570SOL     OW32548  12.187   7.267  14.527
43570SOL    HW132549  12.142   7.212  14.591
43570SOL    HW232550  12.215   7.205  14.459
43571SOL     OW32551   1.113   7.444   9.709
43571SOL    HW132552   1.135   7.371   9.767
43571SOL    HW232553   1.037   7.485   9.750
43572SOL     OW32554   1.944   9.563  12.207
43572SOL    HW132555   1.915   9.472  12.214
43572SOL    HW232556   1.891   9.611  12.271
43573SOL     OW32557   1.489  14.705   0.440
43573SOL    HW132558   1.569  14.683   0.488
43573SOL    HW232559   1.418  14.681   0.500
43574SOL     OW32560   9.406   0.973   6.460
43574SOL    HW132561   9.380   0.983   6.551
43574SOL    HW232562   9.436   1.060   6.434
43575SOL     OW32563  10.459  10.897   9.178
43575SOL    HW132564  10.520  10.970   9.165
43575SOL    HW232565  10.376  10.929   9.143
43576SOL     OW32566   3.611  11.718   4.175
43576SOL    HW132567   3.649  11.734   4.262
43576SOL    HW232568   3.523  11.755   4.181
43577SOL     OW32569   6.229   5.081  12.725
43577SOL    HW132570   6.307   5.095  12.778
43577SOL    HW232571   6.258   5.026  12.653
43578SOL     OW32572   9.774   5.164   8.456
43578SOL    HW132573   9.739   5.229   8.518
43578SOL    HW232574   9.868   5.161   8.476
43579SOL     OW32575  10.781   7.241   0.324
43579SOL    HW132576  10.771   7.336   0.322
43579SOL    HW232577  10.699   7.209   0.360
43580SOL     OW32578   0.451   9.272   1.671
43580SOL    HW132579   0.453   9.193   1.616
43580SOL    HW232580   0.539   9.277   1.708
43581SOL     OW32581   7.645   1.257   6.903
43581SOL    HW132582   7.652   1.327   6.968
43581SOL    HW232583   7.570   1.205   6.931
43582SOL     OW32584  11.661   9.635   3.307
43582SOL    HW132585  11.593   9.569   3.325
43582SOL    HW232586  11.740   9.584   3.292
43583SOL     OW32587   3.864   2.666   7.320
43583SOL    HW132588   3.893   2.584   7.359
43583SOL    HW232589   3.914   2.733   7.367
43584SOL     OW32590   5.149   1.393   0.394
43584SOL    HW132591   5.070   1.448   0.395
43584SOL    HW232592   5.120   1.311   0.354
43585SOL     OW32593   3.893   1.948   8.871
43585SOL    HW132594   3.929   1.862   8.851
43585SOL    HW232595   3.954   1.985   8.935
43586SOL     OW32596   2.767  11.185  13.495
43586SOL    HW132597   2.846  11.206  13.544
43586SOL    HW232598   2.701  11.165  13.562
43587SOL     OW32599   2.863  11.138   9.222
43587SOL    HW132600   2.874  11.058   9.274
43587SOL    HW232601   2.813  11.110   9.145
43588SOL     OW32602  12.950   4.064  13.164
43588SOL    HW132603  13.010   3.989  13.168
43588SOL    HW232604  13.005   4.138  13.140
43589SOL     OW32605   5.614   8.076   9.346
43589SOL    HW132606   5.579   8.160   9.377
43589SOL    HW232607   5.674   8.048   9.415
43590SOL     OW32608   1.971   5.070   5.084
43590SOL    HW132609   1.876   5.082   5.092
43590SOL    HW232610   2.008   5.139   5.140
43591SOL     OW32611   8.744   4.629   9.010
43591SOL    HW132612   8.780   4.679   8.937
43591SOL    HW232613   8.778   4.540   8.998
43592SOL     OW32614   1.570  10.034   1.330
43592SOL    HW132615   1.538  10.043   1.420
43592SOL    HW232616   1.651   9.983   1.338
43593SOL     OW32617   5.330   0.087   3.532
43593SOL    HW132618   5.354   0.129   3.450
43593SOL    HW232619   5.386   0.128   3.598
43594SOL     OW32620   9.839   8.159   3.155
43594SOL    HW132621   9.859   8.102   3.080
43594SOL    HW232622   9.785   8.229   3.118
43595SOL     OW32623   1.434  14.483   5.932
43595SOL    HW132624   1.451  14.477   6.026
43595SOL    HW232625   1.474  14.567   5.906
43596SOL     OW32626   8.520  13.408   1.360
43596SOL    HW132627   8.488  13.318   1.359
43596SOL    HW232628   8.614  13.401   1.346
43597SOL     OW32629   6.615   7.452   4.994
43597SOL    HW132630   6.647   7.485   4.910
43597SOL    HW232631   6.540   7.507   5.015
43598SOL     OW32632   9.752  12.702  11.511
43598SOL    HW132633   9.774  12.737  11.425
43598SOL    HW232634   9.693  12.767  11.549
43599SOL     OW32635  14.818   2.130  11.810
43599SOL    HW132636  14.866   2.133  11.727
43599SOL    HW232637  14.865   2.190  11.868
43600SOL     OW32638  14.761  10.361  14.335
43600SOL    HW132639  14.755  10.452  14.305
43600SOL    HW232640  14.682  10.319  14.302
43601SOL     OW32641  12.544   1.012   2.874
43601SOL    HW132642  12.523   1.092   2.825
43601SOL    HW232643  12.639   1.017   2.887
43602SOL     OW32644   7.898  10.687   9.323
43602SOL    HW132645   7.813  10.712   9.287
43602SOL    HW232646   7.939  10.769   9.347
43603SOL     OW32647   4.484   5.875   9.483
43603SOL    HW132648   4.566   5.900   9.441
43603SOL    HW232649   4.416   5.892   9.417
43604SOL     OW32650  11.756   1.219  10.591
43604SOL    HW132651  11.728   1.147  10.534
43604SOL    HW232652  11.809   1.177  10.659
43605SOL     OW32653   0.473   4.238  11.786
43605SOL    HW132654   0.412   4.219  11.858
43605SOL    HW232655   0.546   4.284  11.828
43606SOL     OW32656   5.655   7.661   7.210
43606SOL    HW132657   5.567   7.665   7.171
43606SOL    HW232658   5.661   7.740   7.264
43607SOL     OW32659   7.868   9.995   2.740
43607SOL    HW132660   7.823   9.944   2.809
43607SOL    HW232661   7.804  10.062   2.715
43608SOL     OW32662   2.217   8.893   8.924
43608SOL    HW132663   2.232   8.831   8.853
43608SOL    HW232664   2.145   8.855   8.974
43609SOL     OW32665  10.986   5.480   1.292
43609SOL    HW132666  10.941   5.519   1.217
43609SOL    HW232667  11.078   5.483   1.268
43610SOL     OW32668  14.413   3.274   9.216
43610SOL    HW132669  14.412   3.189   9.261
43610SOL    HW232670  14.392   3.337   9.285
43611SOL     OW32671  14.046  11.547   1.739
43611SOL    HW132672  14.031  11.462   1.781
43611SOL    HW232673  14.099  11.527   1.662
43612SOL     OW32674  12.837   7.013   3.547
43612SOL    HW132675  12.810   7.104   3.553
43612SOL    HW232676  12.812   6.974   3.631
43613SOL     OW32677  14.101  14.601  10.790
43613SOL    HW132678  14.152  14.634  10.864
43613SOL    HW232679  14.100  14.675  10.728
43614SOL     OW32680   3.748   2.863   5.901
43614SOL    HW132681   3.699   2.821   5.832
43614SOL    HW232682   3.728   2.812   5.980
43615SOL     OW32683   0.809   3.970  11.681
43615SOL    HW132684   0.828   3.973  11.775
43615SOL    HW232685   0.746   3.898  11.672
43616SOL     OW32686   8.881   4.376  12.683
43616SOL    HW132687   8.789   4.369  12.706
43616SOL    HW232688   8.909   4.459  12.722
43617SOL     OW32689   0.889   3.111   8.315
43617SOL    HW132690   0.922   3.088   8.401
43617SOL    HW232691   0.861   3.028   8.276
43618SOL     OW32692   6.541   5.023   2.294
43618SOL    HW132693   6.570   4.932   2.284
43618SOL    HW232694   6.481   5.020   2.369
43619SOL     OW32695   8.116   0.938  12.995
43619SOL    HW132696   8.166   0.871  13.042
43619SOL    HW232697   8.182   0.984  12.943
43620SOL     OW32698   6.935   4.720   4.675
43620SOL    HW132699   7.002   4.788   4.687
43620SOL    HW232700   6.985   4.640   4.657
43621SOL     OW32701   5.266  11.686   1.494
43621SOL    HW132702   5.227  11.615   1.546
43621SOL    HW232703   5.195  11.749   1.482
43622SOL     OW32704  11.830   0.779  11.239
43622SOL    HW132705  11.864   0.761  11.152
43622SOL    HW232706  11.742   0.811  11.224
43623SOL     OW32707   2.243   6.338   0.987
43623SOL    HW132708   2.219   6.353   1.078
43623SOL    HW232709   2.162   6.307   0.946
43624SOL     OW32710   1.312  13.187   4.447
43624SOL    HW132711   1.286  13.096   4.462
43624SOL    HW232712   1.406  13.188   4.462
43625SOL     OW32713  12.200   8.954   3.357
43625SOL    HW132714  12.271   8.908   3.313
43625SOL    HW232715  12.244   9.022   3.409
43626SOL     OW32716  12.405   5.375   7.168
43626SOL    HW132717  12.364   5.359   7.083
43626SOL    HW232718  12.347   5.439   7.210
43627SOL     OW32719   9.239   5.969   6.981
43627SOL    HW132720   9.322   5.929   7.007
43627SOL    HW232721   9.262   6.057   6.952
43628SOL     OW32722  11.297  11.207   9.939
43628SOL    HW132723  11.270  11.143   9.873
43628SOL    HW232724  11.303  11.290   9.892
43629SOL     OW32725  12.045   9.553   5.442
43629SOL    HW132726  12.115   9.523   5.384
43629SOL    HW232727  12.030   9.644   5.416
43630SOL     OW32728  14.806   8.922  14.718
43630SOL    HW132729  14.816   9.016  14.702
43630SOL    HW232730  14.873   8.901  14.782
43631SOL     OW32731  11.857   2.290   4.620
43631SOL    HW132732  11.820   2.237   4.690
43631SOL    HW232733  11.846   2.238   4.541
43632SOL     OW32734   8.943  13.546   9.987
43632SOL    HW132735   8.979  13.474   9.934
43632SOL    HW232736   8.951  13.515  10.077
43633SOL     OW32737  10.361   2.812  12.156
43633SOL    HW132738  10.433   2.867  12.126
43633SOL    HW232739  10.329   2.855  12.235
43634SOL     OW32740   3.400   8.506   7.349
43634SOL    HW132741   3.334   8.489   7.281
43634SOL    HW232742   3.386   8.597   7.373
43635SOL     OW32743  14.344   3.663   7.808
43635SOL    HW132744  14.348   3.594   7.873
43635SOL    HW232745  14.432   3.700   7.806
43636SOL     OW32746  11.721   9.119  12.418
43636SOL    HW132747  11.746   9.155  12.333
43636SOL    HW232748  11.748   9.027  12.415
43637SOL     OW32749   8.830  12.247   4.389
43637SOL    HW132750   8.785  12.184   4.332
43637SOL    HW232751   8.798  12.227   4.477
43638SOL     OW32752   1.297   9.587   9.601
43638SOL    HW132753   1.354   9.577   9.524
43638SOL    HW232754   1.328   9.668   9.642
43639SOL     OW32755  10.012   2.700   3.404
43639SOL    HW132756   9.939   2.673   3.348
43639SOL    HW232757  10.082   2.723   3.344
43640SOL     OW32758   3.169   3.486  11.223
43640SOL    HW132759   3.107   3.543  11.268
43640SOL    HW232760   3.207   3.540  11.154
43641SOL     OW32761   5.526   9.553   4.104
43641SOL    HW132762   5.441   9.545   4.061
43641SOL    HW232763   5.581   9.488   4.060
43642SOL     OW32764   9.814   8.209   8.797
43642SOL    HW132765   9.747   8.143   8.815
43642SOL    HW232766   9.791   8.244   8.712
43643SOL     OW32767   7.574   4.171   8.637
43643SOL    HW132768   7.537   4.218   8.712
43643SOL    HW232769   7.536   4.084   8.642
43644SOL     OW32770   2.433   2.379   5.793
43644SOL    HW132771   2.391   2.399   5.877
43644SOL    HW232772   2.375   2.418   5.728
43645SOL     OW32773  13.835   6.212  10.749
43645SOL    HW132774  13.766   6.148  10.729
43645SOL    HW232775  13.917   6.165  10.733
43646SOL     OW32776   5.957   0.419  12.168
43646SOL    HW132777   6.011   0.468  12.231
43646SOL    HW232778   6.021   0.374  12.112
43647SOL     OW32779   7.717  12.254  14.830
43647SOL    HW132780   7.649  12.275   0.014
43647SOL    HW232781   7.706  12.161  14.812
43648SOL     OW32782  11.170   1.710   6.568
43648SOL    HW132783  11.085   1.741   6.600
43648SOL    HW232784  11.234   1.760   6.617
43649SOL     OW32785   8.009   8.302   9.775
43649SOL    HW132786   7.915   8.321   9.774
43649SOL    HW232787   8.020   8.234   9.709
43650SOL     OW32788   5.339   7.334   6.522
43650SOL    HW132789   5.245   7.340   6.538
43650SOL    HW232790   5.379   7.350   6.607
43651SOL     OW32791   3.535  14.326  10.809
43651SOL    HW132792   3.442  14.335  10.791
43651SOL    HW232793   3.542  14.241  10.853
43652SOL     OW32794   4.406  13.977   5.340
43652SOL    HW132795   4.445  14.035   5.274
43652SOL    HW232796   4.319  14.015   5.356
43653SOL     OW32797   7.845  14.260   0.855
43653SOL    HW132798   7.885  14.182   0.816
43653SOL    HW232799   7.771  14.226   0.905
43654SOL     OW32800  13.590   1.682   2.882
43654SOL    HW132801  13.612   1.598   2.842
43654SOL    HW232802  13.618   1.674   2.973
43655SOL     OW32803   7.064   4.915   8.110
43655SOL    HW132804   7.101   4.891   8.025
43655SOL    HW232805   7.000   4.984   8.089
43656SOL     OW32806   3.770   7.582  10.940
43656SOL    HW132807   3.773   7.669  10.900
43656SOL    HW232808   3.687   7.545  10.911
43657SOL     OW32809   3.706   4.197  13.683
43657SOL    HW132810   3.669   4.200  13.595
43657SOL    HW232811   3.682   4.111  13.717
43658SOL     OW32812   6.688   8.424   6.453
43658SOL    HW132813   6.759   8.481   6.422
43658SOL    HW232814   6.633   8.482   6.507
43659SOL     OW32815  11.553   3.976   6.754
43659SOL    HW132816  11.618   3.930   6.701
43659SOL    HW232817  11.495   4.018   6.691
43660SOL     OW32818  12.867  11.707   7.897
43660SOL    HW132819  12.911  11.728   7.978
43660SOL    HW232820  12.875  11.786   7.843
43661SOL     OW32821  12.398   0.738  12.464
43661SOL    HW132822  12.470   0.802  12.472
43661SOL    HW232823  12.438   0.662  12.421
43662SOL     OW32824   7.884   2.618   8.538
43662SOL    HW132825   7.864   2.595   8.629
43662SOL    HW232826   7.883   2.713   8.536
43663SOL     OW32827  10.714   2.840   1.599
43663SOL    HW132828  10.622   2.814   1.594
43663SOL    HW232829  10.752   2.779   1.662
43664SOL     OW32830   7.736   4.688   4.091
43664SOL    HW132831   7.766   4.718   4.177
43664SOL    HW232832   7.738   4.592   4.098
43665SOL     OW32833  13.081  11.413   9.268
43665SOL    HW132834  13.148  11.344   9.271
43665SOL    HW232835  13.024  11.394   9.343
43666SOL     OW32836   9.905  14.598   2.242
43666SOL    HW132837   9.930  14.544   2.318
43666SOL    HW232838   9.946  14.683   2.259
43667SOL     OW32839  13.409   5.923  13.741
43667SOL    HW132840  13.399   6.000  13.797
43667SOL    HW232841  13.325   5.878  13.745
43668SOL     OW32842   9.188   3.845   0.006
43668SOL    HW132843   9.173   3.935  14.857
43668SOL    HW232844   9.281   3.829  14.866
43669SOL     OW32845   6.300   4.248   7.752
43669SOL    HW132846   6.358   4.173   7.744
43669SOL    HW232847   6.358   4.322   7.768
43670SOL     OW32848  10.162   3.319   8.741
43670SOL    HW132849  10.147   3.365   8.658
43670SOL    HW232850  10.107   3.241   8.735
43671SOL     OW32851   1.381  14.702   7.542
43671SOL    HW132852   1.356  14.776   7.597
43671SOL    HW232853   1.470  14.721   7.513
43672SOL     OW32854   4.119  14.417  10.625
43672SOL    HW132855   4.120  14.342  10.565
43672SOL    HW232856   4.085  14.382  10.707
43673SOL     OW32857   4.619  14.013   4.839
43673SOL    HW132858   4.605  14.027   4.746
43673SOL    HW232859   4.707  14.048   4.855
43674SOL     OW32860   6.089   5.082   2.721
43674SOL    HW132861   6.180   5.052   2.724
43674SOL    HW232862   6.088   5.161   2.774
43675SOL     OW32863   0.911   4.448  10.322
43675SOL    HW132864   0.937   4.357  10.338
43675SOL    HW232865   0.929   4.493  10.405
43676SOL     OW32866   6.149   4.320   8.785
43676SOL    HW132867   6.129   4.246   8.841
43676SOL    HW232868   6.195   4.282   8.710
43677SOL     OW32869   6.835  11.428   5.646
43677SOL    HW132870   6.926  11.456   5.644
43677SOL    HW232871   6.794  11.473   5.572
43678SOL     OW32872   1.228  14.826   1.554
43678SOL    HW132873   1.147  14.848   1.508
43678SOL    HW232874   1.223  14.731   1.566
43679SOL     OW32875   7.258   0.366   3.130
43679SOL    HW132876   7.198   0.433   3.164
43679SOL    HW232877   7.338   0.378   3.182
43680SOL     OW32878  12.391   0.422   4.483
43680SOL    HW132879  12.426   0.333   4.487
43680SOL    HW232880  12.303   0.415   4.520
43681SOL     OW32881  14.865   5.362  14.489
43681SOL    HW132882   0.038   5.281  14.494
43681SOL    HW232883   0.020   5.408  14.413
43682SOL     OW32884   1.002   3.950   4.652
43682SOL    HW132885   1.005   4.035   4.608
43682SOL    HW232886   0.969   3.890   4.587
43683SOL     OW32887  13.864  10.882   8.008
43683SOL    HW132888  13.959  10.869   8.013
43683SOL    HW232889  13.839  10.911   8.096
43684SOL     OW32890   8.194   0.205  12.779
43684SOL    HW132891   8.151   0.273  12.727
43684SOL    HW232892   8.122   0.162  12.825
43685SOL     OW32893   5.508  12.704   5.434
43685SOL    HW132894   5.577  12.647   5.400
43685SOL    HW232895   5.429  12.650   5.433
43686SOL     OW32896  14.252   5.499  11.191
43686SOL    HW132897  14.237   5.507  11.097
43686SOL    HW232898  14.283   5.585  11.218
43687SOL     OW32899   4.348   1.376  11.370
43687SOL    HW132900   4.299   1.294  11.366
43687SOL    HW232901   4.302   1.435  11.310
43688SOL     OW32902   3.952  10.361   3.155
43688SOL    HW132903   3.993  10.417   3.221
43688SOL    HW232904   3.973  10.272   3.183
43689SOL     OW32905   7.516  13.441   1.592
43689SOL    HW132906   7.510  13.474   1.681
43689SOL    HW232907   7.605  13.462   1.564
43690SOL     OW32908   4.303   9.361   4.360
43690SOL    HW132909   4.232   9.390   4.302
43690SOL    HW232910   4.355   9.302   4.306
43691SOL     OW32911   0.548   9.179   3.847
43691SOL    HW132912   0.600   9.126   3.786
43691SOL    HW232913   0.568   9.269   3.824
43692SOL     OW32914   6.837  14.099   7.220
43692SOL    HW132915   6.824  14.134   7.308
43692SOL    HW232916   6.749  14.101   7.181
43693SOL     OW32917  13.089   5.119   5.407
43693SOL    HW132918  13.119   5.152   5.491
43693SOL    HW232919  13.075   5.197   5.353
43694SOL     OW32920  14.442   0.226  12.099
43694SOL    HW132921  14.409   0.228  12.189
43694SOL    HW232922  14.393   0.156  12.057
43695SOL     OW32923  12.268   7.063  14.801
43695SOL    HW132924  12.267   7.153  14.770
43695SOL    HW232925  12.218   7.065   0.004
43696SOL     OW32926   9.870   0.239  13.665
43696SOL    HW132927   9.901   0.185  13.738
43696SOL    HW232928   9.943   0.240  13.603
43697SOL     OW32929  13.707   3.417   7.003
43697SOL    HW132930  13.685   3.324   7.010
43697SOL    HW232931  13.633   3.456   6.957
43698SOL     OW32932  12.748   1.726   6.705
43698SOL    HW132933  12.755   1.682   6.790
43698SOL    HW232934  12.723   1.815   6.727
43699SOL     OW32935   4.128   9.109   5.284
43699SOL    HW132936   4.163   9.047   5.348
43699SOL    HW232937   4.096   9.055   5.212
43700SOL     OW32938   2.453   8.155   9.666
43700SOL    HW132939   2.522   8.203   9.712
43700SOL    HW232940   2.374   8.207   9.680
43701SOL     OW32941   4.046   3.730   9.363
43701SOL    HW132942   4.121   3.671   9.371
43701SOL    HW232943   4.067   3.803   9.421
43702SOL     OW32944   3.797  14.650   2.833
43702SOL    HW132945   3.860  14.580   2.816
43702SOL    HW232946   3.795  14.658   2.928
43703SOL     OW32947   0.839   7.411  11.021
43703SOL    HW132948   0.821   7.317  11.019
43703SOL    HW232949   0.918   7.419  11.074
43704SOL     OW32950   7.234  11.990  12.752
43704SOL    HW132951   7.250  11.912  12.806
43704SOL    HW232952   7.154  12.028  12.788
43705SOL     OW32953   4.844  13.026   3.615
43705SOL    HW132954   4.822  12.934   3.628
43705SOL    HW232955   4.859  13.060   3.704
43706SOL     OW32956   7.089  14.859  14.005
43706SOL    HW132957   7.022   0.033  14.049
43706SOL    HW232958   7.157  14.847  14.070
43707SOL     OW32959  14.301   5.060   9.472
43707SOL    HW132960  14.391   5.065   9.505
43707SOL    HW232961  14.247   5.054   9.551
43708SOL     OW32962  10.219   7.271   5.931
43708SOL    HW132963  10.299   7.221   5.950
43708SOL    HW232964  10.250   7.357   5.905
43709SOL     OW32965  10.817   3.034   5.159
43709SOL    HW132966  10.724   3.022   5.143
43709SOL    HW232967  10.827   3.129   5.171
43710SOL     OW32968  10.100   6.332  13.222
43710SOL    HW132969  10.056   6.284  13.151
43710SOL    HW232970  10.175   6.374  13.179
43711SOL     OW32971   2.997  13.995   3.558
43711SOL    HW132972   2.919  13.953   3.522
43711SOL    HW232973   3.048  13.923   3.596
43712SOL     OW32974   2.250   9.211   6.892
43712SOL    HW132975   2.290   9.298   6.903
43712SOL    HW232976   2.165   9.229   6.852
43713SOL     OW32977   5.016  12.646   3.568
43713SOL    HW132978   5.021  12.638   3.473
43713SOL    HW232979   5.091  12.700   3.593
43714SOL     OW32980  14.157  13.343   6.172
43714SOL    HW132981  14.062  13.337   6.160
43714SOL    HW232982  14.169  13.353   6.267
43715SOL     OW32983   2.089  11.367   4.444
43715SOL    HW132984   2.085  11.272   4.440
43715SOL    HW232985   2.178  11.387   4.472
43716SOL     OW32986   1.128   6.424   9.017
43716SOL    HW132987   1.071   6.394   9.088
43716SOL    HW232988   1.173   6.344   8.987
43717SOL     OW32989   9.291   3.662   4.950
43717SOL    HW132990   9.386   3.657   4.953
43717SOL    HW232991   9.261   3.584   4.999
43718SOL     OW32992   0.599   8.945  10.176
43718SOL    HW132993   0.505   8.957  10.189
43718SOL    HW232994   0.640   8.988  10.252
43719SOL     OW32995  13.596   4.619   5.719
43719SOL    HW132996  13.597   4.694   5.660
43719SOL    HW232997  13.512   4.576   5.702
43720SOL     OW32998  10.111   7.842   7.235
43720SOL    HW132999  10.075   7.827   7.148
43720SOL    HW233000  10.075   7.927   7.262
43721SOL     OW33001  14.105  11.708  13.193
43721SOL    HW133002  14.034  11.753  13.239
43721SOL    HW233003  14.142  11.648  13.257
43722SOL     OW33004   8.429   5.137  11.137
43722SOL    HW133005   8.386   5.052  11.136
43722SOL    HW233006   8.501   5.127  11.199
43723SOL     OW33007  11.290   9.846   0.116
43723SOL    HW133008  11.294   9.938   0.144
43723SOL    HW233009  11.334   9.846   0.030
43724SOL     OW33010  12.157   1.942   1.314
43724SOL    HW133011  12.192   1.867   1.363
43724SOL    HW233012  12.111   1.994   1.379
43725SOL     OW33013   7.795   8.532   1.684
43725SOL    HW133014   7.835   8.485   1.757
43725SOL    HW233015   7.775   8.464   1.619
43726SOL     OW33016  10.911   8.204   4.519
43726SOL    HW133017  10.843   8.183   4.455
43726SOL    HW233018  10.876   8.279   4.568
43727SOL     OW33019   3.928   2.752  10.513
43727SOL    HW133020   3.854   2.759  10.453
43727SOL    HW233021   4.005   2.753  10.455
43728SOL     OW33022   0.012  13.040  14.379
43728SOL    HW133023   0.028  13.088  14.298
43728SOL    HW233024   0.071  13.080  14.443
43729SOL     OW33025  13.463   1.026   2.418
43729SOL    HW133026  13.520   0.951   2.429
43729SOL    HW233027  13.450   1.033   2.323
43730SOL     OW33028  13.773   0.472   0.431
43730SOL    HW133029  13.791   0.555   0.475
43730SOL    HW233030  13.708   0.429   0.487
43731SOL     OW33031   6.130   9.127   0.565
43731SOL    HW133032   6.169   9.214   0.554
43731SOL    HW233033   6.071   9.136   0.640
43732SOL     OW33034   5.939   0.727   7.890
43732SOL    HW133035   6.008   0.781   7.853
43732SOL    HW233036   5.950   0.642   7.847
43733SOL     OW33037   9.469  11.841  11.837
43733SOL    HW133038   9.484  11.851  11.931
43733SOL    HW233039   9.544  11.884  11.796
43734SOL     OW33040   9.853  13.647  12.451
43734SOL    HW133041   9.900  13.610  12.376
43734SOL    HW233042   9.767  13.670  12.417
43735SOL     OW33043   1.054   8.342   2.176
43735SOL    HW133044   0.972   8.334   2.224
43735SOL    HW233045   1.101   8.260   2.195
43736SOL     OW33046   3.431  14.281  10.422
43736SOL    HW133047   3.521  14.260  10.400
43736SOL    HW233048   3.393  14.197  10.448
43737SOL     OW33049   4.036   4.719  10.982
43737SOL    HW133050   4.083   4.636  10.986
43737SOL    HW233051   4.105   4.785  10.979
43738SOL     OW33052   1.961   6.936   2.401
43738SOL    HW133053   2.045   6.906   2.435
43738SOL    HW233054   1.901   6.863   2.419
43739SOL     OW33055   7.329  10.499  10.881
43739SOL    HW133056   7.307  10.590  10.900
43739SOL    HW233057   7.398  10.503  10.815
43740SOL     OW33058  13.630  12.383   5.096
43740SOL    HW133059  13.716  12.423   5.081
43740SOL    HW233060  13.627  12.367   5.190
43741SOL     OW33061   0.104   5.056   1.398
43741SOL    HW133062   0.072   5.127   1.343
43741SOL    HW233063   0.198   5.072   1.405
43742SOL     OW33064   0.894   5.168   5.688
43742SOL    HW133065   0.985   5.195   5.678
43742SOL    HW233066   0.877   5.111   5.613
43743SOL     OW33067   7.847  14.311   7.725
43743SOL    HW133068   7.934  14.272   7.725
43743SOL    HW233069   7.827  14.325   7.818
43744SOL     OW33070  12.775   9.334   7.689
43744SOL    HW133071  12.802   9.419   7.654
43744SOL    HW233072  12.857   9.292   7.714
43745SOL     OW33073   7.402  10.084  10.863
43745SOL    HW133074   7.318  10.127  10.845
43745SOL    HW233075   7.437  10.131  10.939
43746SOL     OW33076   3.308  12.401   6.043
43746SOL    HW133077   3.319  12.489   6.007
43746SOL    HW233078   3.227  12.406   6.094
43747SOL     OW33079  14.848   3.462   3.322
43747SOL    HW133080   0.016   3.379   3.313
43747SOL    HW233081  14.759   3.437   3.346
43748SOL     OW33082  12.567   8.906   3.936
43748SOL    HW133083  12.607   8.978   3.887
43748SOL    HW233084  12.533   8.848   3.868
43749SOL     OW33085   5.974   3.715  11.285
43749SOL    HW133086   5.954   3.672  11.202
43749SOL    HW233087   5.894   3.709  11.336
43750SOL     OW33088  13.331  13.232  11.513
43750SOL    HW133089  13.344  13.141  11.485
43750SOL    HW233090  13.414  13.257  11.554
43751SOL     OW33091  11.748   3.215   6.200
43751SOL    HW133092  11.677   3.251   6.147
43751SOL    HW233093  11.704   3.167   6.270
43752SOL     OW33094   4.144  11.831   9.373
43752SOL    HW133095   4.130  11.892   9.301
43752SOL    HW233096   4.058  11.822   9.414
43753SOL     OW33097   0.960   0.020   0.149
43753SOL    HW133098   0.869   0.015   0.117
43753SOL    HW233099   0.983   0.112   0.140
43754SOL     OW33100  10.868   9.026   8.145
43754SOL    HW133101  10.940   8.975   8.107
43754SOL    HW233102  10.804   8.960   8.173
43755SOL     OW33103  13.044   7.331   4.112
43755SOL    HW133104  13.009   7.310   4.198
43755SOL    HW233105  13.034   7.425   4.103
43756SOL     OW33106   5.567  11.126   1.276
43756SOL    HW133107   5.643  11.181   1.259
43756SOL    HW233108   5.513  11.177   1.336
43757SOL     OW33109  14.718   2.570   7.225
43757SOL    HW133110  14.626   2.574   7.252
43757SOL    HW233111  14.743   2.661   7.210
43758SOL     OW33112   0.359   3.416  13.836
43758SOL    HW133113   0.353   3.496  13.784
43758SOL    HW233114   0.418   3.439  13.908
43759SOL     OW33115  10.594  13.466   7.224
43759SOL    HW133116  10.655  13.452   7.152
43759SOL    HW233117  10.605  13.390   7.281
43760SOL     OW33118  13.368   8.332  11.922
43760SOL    HW133119  13.284   8.372  11.942
43760SOL    HW233120  13.385   8.273  11.995
43761SOL     OW33121   3.221   6.997   3.328
43761SOL    HW133122   3.230   6.918   3.381
43761SOL    HW233123   3.194   7.065   3.389
43762SOL     OW33124  13.992  12.508   1.477
43762SOL    HW133125  13.951  12.593   1.459
43762SOL    HW233126  13.922  12.455   1.514
43763SOL     OW33127  14.347  11.632   0.685
43763SOL    HW133128  14.330  11.726   0.694
43763SOL    HW233129  14.269  11.597   0.642
43764SOL     OW33130   1.015   2.194  12.339
43764SOL    HW133131   1.103   2.229  12.352
43764SOL    HW233132   1.021   2.103  12.370
43765SOL     OW33133   8.641  11.983   0.002
43765SOL    HW133134   8.623  12.075  14.863
43765SOL    HW233135   8.690  11.984   0.084
43766SOL     OW33136   5.941   8.792  13.618
43766SOL    HW133137   6.032   8.777  13.596
43766SOL    HW233138   5.892   8.764  13.540
43767SOL     OW33139  14.823  13.454   0.697
43767SOL    HW133140  14.818  13.464   0.602
43767SOL    HW233141   0.037  13.465   0.717
43768SOL     OW33142   9.924   7.034  14.499
43768SOL    HW133143   9.953   7.113  14.544
43768SOL    HW233144   9.829   7.044  14.492
43769SOL     OW33145   9.787  13.630   3.433
43769SOL    HW133146   9.805  13.632   3.527
43769SOL    HW233147   9.771  13.537   3.414
43770SOL     OW33148  12.162  12.601  12.822
43770SOL    HW133149  12.187  12.667  12.887
43770SOL    HW233150  12.214  12.524  12.844
43771SOL     OW33151   0.636   5.479   7.044
43771SOL    HW133152   0.565   5.497   6.983
43771SOL    HW233153   0.628   5.546   7.112
43772SOL     OW33154   4.355   6.757  14.835
43772SOL    HW133155   4.273   6.778   0.001
43772SOL    HW233156   4.336   6.676  14.788
43773SOL     OW33157   2.408   4.072   8.586
43773SOL    HW133158   2.374   4.100   8.502
43773SOL    HW233159   2.370   3.985   8.600
43774SOL     OW33160   3.927   2.427   0.121
43774SOL    HW133161   4.006   2.383   0.149
43774SOL    HW233162   3.856   2.382   0.166
43775SOL     OW33163   3.141  12.622   1.349
43775SOL    HW133164   3.125  12.704   1.394
43775SOL    HW233165   3.228  12.595   1.379
43776SOL     OW33166   3.162   4.567  13.899
43776SOL    HW133167   3.162   4.570  13.995
43776SOL    HW233168   3.077   4.602  13.873
43777SOL     OW33169   5.043   8.389  13.465
43777SOL    HW133170   4.979   8.320  13.480
43777SOL    HW233171   5.127   8.350  13.488
43778SOL     OW33172   7.106   6.890   3.637
43778SOL    HW133173   7.116   6.859   3.727
43778SOL    HW233174   7.034   6.953   3.642
43779SOL     OW33175   8.722   2.057   4.052
43779SOL    HW133176   8.779   1.997   4.003
43779SOL    HW233177   8.651   2.077   3.991
43780SOL     OW33178   0.072   9.749  13.513
43780SOL    HW133179  14.857   9.748  13.531
43780SOL    HW233180   0.112   9.715  13.592
43781SOL     OW33181   5.295  13.482   0.464
43781SOL    HW133182   5.365  13.449   0.408
43781SOL    HW233183   5.322  13.460   0.553
43782SOL     OW33184   7.004  14.691  11.666
43782SOL    HW133185   7.082  14.748  11.664
43782SOL    HW233186   6.930  14.752  11.673
43783SOL     OW33187   2.463   8.854   1.599
43783SOL    HW133188   2.485   8.929   1.654
43783SOL    HW233189   2.451   8.890   1.511
43784SOL     OW33190  11.145  11.261   3.509
43784SOL    HW133191  11.076  11.195   3.516
43784SOL    HW233192  11.171  11.279   3.599
43785SOL     OW33193   5.758  13.509   6.003
43785SOL    HW133194   5.842  13.509   6.051
43785SOL    HW233195   5.783  13.502   5.911
43786SOL     OW33196  11.732  10.371   6.890
43786SOL    HW133197  11.711  10.304   6.955
43786SOL    HW233198  11.647  10.409   6.867
43787SOL     OW33199   1.514   7.133   5.777
43787SOL    HW133200   1.455   7.121   5.851
43787SOL    HW233201   1.528   7.227   5.773
43788SOL     OW33202  11.006   7.141   3.321
43788SOL    HW133203  11.012   7.213   3.258
43788SOL    HW233204  11.080   7.084   3.299
43789SOL     OW33205   0.430   3.890   3.146
43789SOL    HW133206   0.346   3.857   3.176
43789SOL    HW233207   0.463   3.942   3.219
43790SOL     OW33208  11.645   9.667   5.579
43790SOL    HW133209  11.600   9.748   5.603
43790SOL    HW233210  11.591   9.598   5.616
43791SOL     OW33211   9.978   9.972  11.570
43791SOL    HW133212   9.888  10.004  11.560
43791SOL    HW233213  10.004  10.004  11.657
43792SOL     OW33214  12.159  11.851  13.513
43792SOL    HW133215  12.103  11.896  13.577
43792SOL    HW233216  12.099  11.826  13.442
43793SOL     OW33217   1.775   3.653  10.768
43793SOL    HW133218   1.785   3.595  10.693
43793SOL    HW233219   1.734   3.598  10.835
43794SOL     OW33220   8.161   9.872   3.971
43794SOL    HW133221   8.168   9.875   3.875
43794SOL    HW233222   8.233   9.927   4.002
43795SOL     OW33223   7.123   9.028   9.357
43795SOL    HW133224   7.205   9.064   9.324
43795SOL    HW233225   7.083   8.985   9.281
43796SOL     OW33226   4.443   1.775   2.758
43796SOL    HW133227   4.465   1.815   2.843
43796SOL    HW233228   4.520   1.792   2.704
43797SOL     OW33229   3.159   1.863  10.204
43797SOL    HW133230   3.162   1.866  10.109
43797SOL    HW233231   3.142   1.771  10.225
43798SOL     OW33232   6.300   0.965   3.642
43798SOL    HW133233   6.385   0.971   3.599
43798SOL    HW233234   6.301   1.033   3.709
43799SOL     OW33235   4.989  14.558  10.812
43799SOL    HW133236   4.898  14.580  10.829
43799SOL    HW233237   5.034  14.570  10.895
43800SOL     OW33238   6.708   2.999   5.154
43800SOL    HW133239   6.699   3.094   5.157
43800SOL    HW233240   6.677   2.969   5.239
43801SOL     OW33241   1.509   6.219   5.331
43801SOL    HW133242   1.508   6.128   5.300
43801SOL    HW233243   1.490   6.271   5.254
43802SOL     OW33244   8.481  13.858   9.008
43802SOL    HW133245   8.543  13.915   9.053
43802SOL    HW233246   8.415  13.917   8.972
43803SOL     OW33247   9.853  14.150   0.686
43803SOL    HW133248   9.901  14.103   0.755
43803SOL    HW233249   9.907  14.226   0.666
43804SOL     OW33250   8.845   5.500  13.714
43804SOL    HW133251   8.793   5.453  13.779
43804SOL    HW233252   8.888   5.431  13.663
43805SOL     OW33253  14.617   7.285   8.016
43805SOL    HW133254  14.530   7.265   7.980
43805SOL    HW233255  14.651   7.355   7.960
43806SOL     OW33256   6.935   5.546  10.974
43806SOL    HW133257   7.028   5.529  10.991
43806SOL    HW233258   6.930   5.641  10.962
43807SOL     OW33259   1.818   9.229   0.775
43807SOL    HW133260   1.844   9.140   0.798
43807SOL    HW233261   1.832   9.235   0.680
43808SOL     OW33262   9.509   3.318   3.285
43808SOL    HW133263   9.523   3.302   3.192
43808SOL    HW233264   9.417   3.296   3.300
43809SOL     OW33265   0.975   0.683   1.944
43809SOL    HW133266   1.067   0.674   1.919
43809SOL    HW233267   0.957   0.777   1.936
43810SOL     OW33268   6.034   8.319   9.896
43810SOL    HW133269   5.945   8.340   9.868
43810SOL    HW233270   6.051   8.232   9.861
43811SOL     OW33271   3.575   2.135  10.430
43811SOL    HW133272   3.631   2.175  10.364
43811SOL    HW233273   3.505   2.199  10.445
43812SOL     OW33274  13.185   1.878   4.841
43812SOL    HW133275  13.121   1.809   4.822
43812SOL    HW233276  13.151   1.956   4.796
43813SOL     OW33277   3.535   0.869   3.734
43813SOL    HW133278   3.569   0.901   3.651
43813SOL    HW233279   3.515   0.948   3.785
43814SOL     OW33280  12.243   6.099  12.134
43814SOL    HW133281  12.272   6.190  12.128
43814SOL    HW233282  12.155   6.099  12.097
43815SOL     OW33283   9.012   2.278   3.622
43815SOL    HW133284   9.107   2.274   3.633
43815SOL    HW233285   8.979   2.292   3.711
43816SOL     OW33286  10.706  10.976   8.440
43816SOL    HW133287  10.639  10.922   8.397
43816SOL    HW233288  10.777  10.982   8.377
43817SOL     OW33289   5.475  11.173  13.272
43817SOL    HW133290   5.492  11.118  13.349
43817SOL    HW233291   5.422  11.118  13.215
43818SOL     OW33292   7.827   1.407   7.119
43818SOL    HW133293   7.740   1.426   7.154
43818SOL    HW233294   7.822   1.316   7.090
43819SOL     OW33295  14.476   2.400   2.997
43819SOL    HW133296  14.506   2.461   3.065
43819SOL    HW233297  14.451   2.321   3.045
43820SOL     OW33298  10.590   7.799   0.764
43820SOL    HW133299  10.613   7.796   0.857
43820SOL    HW233300  10.671   7.776   0.719
43821SOL     OW33301   8.879   5.619   8.732
43821SOL    HW133302   8.801   5.565   8.718
43821SOL    HW233303   8.949   5.555   8.751
43822SOL     OW33304   4.744   0.328   7.341
43822SOL    HW133305   4.725   0.279   7.421
43822SOL    HW233306   4.764   0.260   7.276
43823SOL     OW33307  14.625   9.340   7.497
43823SOL    HW133308  14.665   9.257   7.471
43823SOL    HW233309  14.557   9.315   7.559
43824SOL     OW33310   0.378  12.678  11.074
43824SOL    HW133311   0.322  12.720  11.009
43824SOL    HW233312   0.447  12.635  11.023
43825SOL     OW33313  13.690   2.848   2.067
43825SOL    HW133314  13.682   2.835   2.161
43825SOL    HW233315  13.615   2.800   2.030
43826SOL     OW33316  14.843   6.659   6.492
43826SOL    HW133317  14.855   6.588   6.429
43826SOL    HW233318  14.809   6.616   6.570
43827SOL     OW33319   5.123  13.240   6.516
43827SOL    HW133320   5.096  13.214   6.604
43827SOL    HW233321   5.216  13.261   6.524
43828SOL     OW33322  10.182   7.528   7.672
43828SOL    HW133323  10.098   7.572   7.681
43828SOL    HW233324  10.244   7.599   7.651
43829SOL     OW33325   5.818   4.405   8.396
43829SOL    HW133326   5.900   4.384   8.351
43829SOL    HW233327   5.770   4.323   8.397
43830SOL     OW33328  13.271  11.544   9.509
43830SOL    HW133329  13.331  11.590   9.451
43830SOL    HW233330  13.223  11.484   9.452
43831SOL     OW33331  11.984   5.589   3.132
43831SOL    HW133332  11.922   5.524   3.166
43831SOL    HW233333  11.933   5.670   3.125
43832SOL     OW33334  12.840  13.230  10.473
43832SOL    HW133335  12.814  13.154  10.422
43832SOL    HW233336  12.924  13.257  10.435
43833SOL     OW33337  12.502   1.662   3.532
43833SOL    HW133338  12.571   1.729   3.537
43833SOL    HW233339  12.423   1.708   3.560
43834SOL     OW33340   1.635   3.003   6.309
43834SOL    HW133341   1.667   3.012   6.399
43834SOL    HW233342   1.567   3.070   6.301
43835SOL     OW33343  13.039   1.017  12.680
43835SOL    HW133344  12.985   1.096  12.677
43835SOL    HW233345  13.128   1.047  12.663
43836SOL     OW33346   0.277   6.842   0.989
43836SOL    HW133347   0.370   6.820   0.982
43836SOL    HW233348   0.276   6.933   1.019
43837SOL     OW33349  10.677   4.547   4.084
43837SOL    HW133350  10.629   4.515   4.007
43837SOL    HW233351  10.686   4.641   4.069
43838SOL     OW33352  12.201  13.722   1.845
43838SOL    HW133353  12.232  13.677   1.924
43838SOL    HW233354  12.111  13.749   1.867
43839SOL     OW33355   7.579   1.271  11.621
43839SOL    HW133356   7.621   1.185  11.618
43839SOL    HW233357   7.500   1.257  11.672
43840SOL     OW33358   7.226   3.529   3.374
43840SOL    HW133359   7.305   3.501   3.328
43840SOL    HW233360   7.154   3.492   3.324
43841SOL     OW33361  13.267  13.326   9.507
43841SOL    HW133362  13.281  13.241   9.466
43841SOL    HW233363  13.230  13.306   9.593
43842SOL     OW33364   7.876   9.861   1.679
43842SOL    HW133365   7.938   9.906   1.621
43842SOL    HW233366   7.875   9.771   1.648
43843SOL     OW33367   2.958   2.075   0.472
43843SOL    HW133368   3.047   2.084   0.439
43843SOL    HW233369   2.968   2.033   0.558
43844SOL     OW33370   1.309  14.793  14.295
43844SOL    HW133371   1.387  14.796  14.351
43844SOL    HW233372   1.235  14.802  14.356
43845SOL     OW33373   6.960  12.033   9.928
43845SOL    HW133374   6.934  11.942   9.921
43845SOL    HW233375   6.883  12.082   9.899
43846SOL     OW33376   2.003   9.500   2.284
43846SOL    HW133377   1.927   9.442   2.295
43846SOL    HW233378   2.079   9.444   2.296
43847SOL     OW33379  11.425  12.863  14.790
43847SOL    HW133380  11.337  12.845  14.823
43847SOL    HW233381  11.449  12.946  14.832
43848SOL     OW33382   6.855  13.851  12.034
43848SOL    HW133383   6.867  13.944  12.055
43848SOL    HW233384   6.817  13.813  12.114
43849SOL     OW33385   3.127   3.684   3.381
43849SOL    HW133386   3.192   3.753   3.367
43849SOL    HW233387   3.146   3.620   3.313
43850SOL     OW33388  10.913   4.689   4.462
43850SOL    HW133389  10.903   4.737   4.545
43850SOL    HW233390  10.992   4.637   4.474
43851SOL     OW33391   5.077  10.233  11.265
43851SOL    HW133392   5.114  10.184  11.192
43851SOL    HW233393   5.105  10.323  11.250
43852SOL     OW33394  14.081   0.222   5.775
43852SOL    HW133395  14.100   0.262   5.860
43852SOL    HW233396  14.167   0.195   5.741
43853SOL     OW33397  13.078   1.012   2.870
43853SOL    HW133398  13.118   0.950   2.931
43853SOL    HW233399  13.142   1.021   2.800
43854SOL     OW33400   9.948   5.725   2.243
43854SOL    HW133401   9.891   5.801   2.255
43854SOL    HW233402  10.010   5.729   2.316
43855SOL     OW33403   5.396   0.239  10.160
43855SOL    HW133404   5.315   0.189  10.166
43855SOL    HW233405   5.368   0.327  10.135
43856SOL     OW33406  13.517   2.164  10.915
43856SOL    HW133407  13.548   2.154  10.825
43856SOL    HW233408  13.469   2.247  10.916
43857SOL     OW33409   7.927   0.787   7.020
43857SOL    HW133410   7.837   0.805   7.045
43857SOL    HW233411   7.920   0.738   6.937
43858SOL     OW33412  13.419   5.309   4.646
43858SOL    HW133413  13.338   5.260   4.631
43858SOL    HW233414  13.437   5.351   4.562
43859SOL     OW33415  12.549  13.011   6.945
43859SOL    HW133416  12.586  13.006   6.857
43859SOL    HW233417  12.501  12.928   6.956
43860SOL     OW33418   0.823   3.692  10.969
43860SOL    HW133419   0.845   3.671  11.060
43860SOL    HW233420   0.847   3.614  10.920
43861SOL     OW33421   0.930   2.268  13.139
43861SOL    HW133422   0.837   2.252  13.153
43861SOL    HW233423   0.939   2.266  13.043
43862SOL     OW33424  13.354   6.286   3.153
43862SOL    HW133425  13.289   6.356   3.147
43862SOL    HW233426  13.435   6.331   3.177
43863SOL     OW33427   0.767  12.205   0.581
43863SOL    HW133428   0.747  12.254   0.500
43863SOL    HW233429   0.787  12.117   0.551
43864SOL     OW33430   5.311   3.210  12.733
43864SOL    HW133431   5.279   3.266  12.662
43864SOL    HW233432   5.261   3.238  12.810
43865SOL     OW33433   2.318   3.992   6.579
43865SOL    HW133434   2.410   3.969   6.596
43865SOL    HW233435   2.289   4.034   6.660
43866SOL     OW33436   2.540  14.389   3.643
43866SOL    HW133437   2.498  14.337   3.712
43866SOL    HW233438   2.477  14.386   3.571
43867SOL     OW33439  12.726   9.656   0.807
43867SOL    HW133440  12.767   9.571   0.824
43867SOL    HW233441  12.688   9.647   0.720
43868SOL     OW33442   8.197  10.978  14.211
43868SOL    HW133443   8.198  10.944  14.122
43868SOL    HW233444   8.151  10.910  14.261
43869SOL     OW33445   4.958  13.506  13.014
43869SOL    HW133446   4.947  13.492  12.920
43869SOL    HW233447   5.040  13.554  13.022
43870SOL     OW33448  13.942   1.560   5.539
43870SOL    HW133449  13.994   1.487   5.507
43870SOL    HW233450  13.996   1.600   5.607
43871SOL     OW33451   0.431  10.164   6.989
43871SOL    HW133452   0.509  10.208   7.023
43871SOL    HW233453   0.450  10.070   7.000
43872SOL     OW33454  10.359  14.392   2.102
43872SOL    HW133455  10.292  14.384   2.170
43872SOL    HW233456  10.315  14.366   2.021
43873SOL     OW33457  11.979   3.970  11.074
43873SOL    HW133458  11.926   4.008  11.004
43873SOL    HW233459  11.940   3.885  11.090
43874SOL     OW33460   3.947  10.557   9.887
43874SOL    HW133461   3.928  10.649   9.870
43874SOL    HW233462   3.991  10.526   9.808
43875SOL     OW33463   3.611  13.030   9.515
43875SOL    HW133464   3.658  12.988   9.443
43875SOL    HW233465   3.606  13.122   9.490
43876SOL     OW33466   2.469  12.321   9.276
43876SOL    HW133467   2.449  12.332   9.183
43876SOL    HW233468   2.425  12.240   9.301
43877SOL     OW33469  12.400  12.094   1.794
43877SOL    HW133470  12.482  12.141   1.809
43877SOL    HW233471  12.365  12.079   1.882
43878SOL     OW33472  12.542   2.690  13.870
43878SOL    HW133473  12.634   2.695  13.894
43878SOL    HW233474  12.496   2.674  13.953
43879SOL     OW33475  14.744  10.246   2.594
43879SOL    HW133476  14.751  10.243   2.499
43879SOL    HW233477  14.760  10.338   2.617
43880SOL     OW33478   7.990   0.834   1.838
43880SOL    HW133479   7.975   0.849   1.932
43880SOL    HW233480   8.072   0.878   1.819
43881SOL     OW33481   5.479  14.709   1.591
43881SOL    HW133482   5.516  14.680   1.674
43881SOL    HW233483   5.459  14.802   1.605
43882SOL     OW33484  11.490   4.669  14.545
43882SOL    HW133485  11.500   4.655  14.451
43882SOL    HW233486  11.459   4.584  14.578
43883SOL     OW33487  12.753  11.131  10.337
43883SOL    HW133488  12.740  11.186  10.415
43883SOL    HW233489  12.762  11.042  10.372
43884SOL     OW33490   8.887   9.210   6.626
43884SOL    HW133491   8.840   9.293   6.636
43884SOL    HW233492   8.818   9.146   6.607
43885SOL     OW33493   3.090   3.002   4.022
43885SOL    HW133494   3.168   3.050   4.049
43885SOL    HW233495   3.112   2.910   4.036
43886SOL     OW33496  11.913   7.481   2.930
43886SOL    HW133497  11.924   7.447   2.841
43886SOL    HW233498  11.835   7.537   2.924
43887SOL     OW33499  13.043  13.326   0.803
43887SOL    HW133500  13.116  13.274   0.769
43887SOL    HW233501  13.078  13.414   0.814
43888SOL     OW33502   4.330   4.388   4.217
43888SOL    HW133503   4.262   4.336   4.173
43888SOL    HW233504   4.307   4.479   4.197
43889SOL     OW33505  10.331   1.040  13.277
43889SOL    HW133506  10.271   0.969  13.300
43889SOL    HW233507  10.291   1.082  13.201
43890SOL     OW33508   1.184   0.616  11.041
43890SOL    HW133509   1.128   0.584  10.971
43890SOL    HW233510   1.273   0.606  11.007
43891SOL     OW33511   2.831   3.284   4.759
43891SOL    HW133512   2.816   3.193   4.731
43891SOL    HW233513   2.895   3.318   4.697
43892SOL     OW33514   8.373  10.874   2.475
43892SOL    HW133515   8.282  10.870   2.444
43892SOL    HW233516   8.383  10.964   2.506
43893SOL     OW33517  10.785   1.530   7.853
43893SOL    HW133518  10.720   1.559   7.789
43893SOL    HW233519  10.775   1.435   7.855
43894SOL     OW33520   1.758   2.805   5.101
43894SOL    HW133521   1.692   2.770   5.162
43894SOL    HW233522   1.839   2.762   5.128
43895SOL     OW33523  10.006   0.204   4.500
43895SOL    HW133524  10.049   0.289   4.493
43895SOL    HW233525   9.957   0.195   4.418
43896SOL     OW33526   4.418   7.973   4.034
43896SOL    HW133527   4.332   7.972   3.993
43896SOL    HW233528   4.457   7.888   4.011
43897SOL     OW33529  14.216   5.570   4.375
43897SOL    HW133530  14.234   5.523   4.456
43897SOL    HW233531  14.217   5.662   4.400
43898SOL     OW33532   5.688  13.501   1.169
43898SOL    HW133533   5.618  13.447   1.205
43898SOL    HW233534   5.756  13.500   1.236
43899SOL     OW33535   4.509   5.095   0.578
43899SOL    HW133536   4.499   5.142   0.660
43899SOL    HW233537   4.419   5.079   0.548
43900SOL     OW33538   4.771   3.107   2.586
43900SOL    HW133539   4.703   3.142   2.644
43900SOL    HW233540   4.779   3.172   2.516
43901SOL     OW33541  12.321  11.373   9.190
43901SOL    HW133542  12.395  11.352   9.246
43901SOL    HW233543  12.288  11.288   9.160
43902SOL     OW33544   2.946   3.220   5.761
43902SOL    HW133545   2.978   3.142   5.807
43902SOL    HW233546   3.011   3.236   5.692
43903SOL     OW33547   8.367  11.499   1.671
43903SOL    HW133548   8.403  11.580   1.706
43903SOL    HW233549   8.397  11.431   1.731
43904SOL     OW33550  10.829   1.564   8.236
43904SOL    HW133551  10.925   1.565   8.243
43904SOL    HW233552  10.807   1.474   8.215
43905SOL     OW33553  13.487  14.370   5.873
43905SOL    HW133554  13.412  14.332   5.919
43905SOL    HW233555  13.558  14.368   5.937
43906SOL     OW33556   2.750   7.667  11.702
43906SOL    HW133557   2.838   7.696  11.726
43906SOL    HW233558   2.735   7.706  11.615
43907SOL     OW33559   7.486   5.083   0.749
43907SOL    HW133560   7.416   5.149   0.753
43907SOL    HW233561   7.557   5.121   0.801
43908SOL     OW33562  10.606   7.175   5.629
43908SOL    HW133563  10.662   7.143   5.558
43908SOL    HW233564  10.534   7.219   5.585
43909SOL     OW33565   9.283  13.911   7.288
43909SOL    HW133566   9.230  13.887   7.212
43909SOL    HW233567   9.221  13.913   7.361
43910SOL     OW33568  13.392   0.087  10.740
43910SOL    HW133569  13.343   0.159  10.778
43910SOL    HW233570  13.325   0.025  10.711
43911SOL     OW33571   2.373  13.486   3.014
43911SOL    HW133572   2.373  13.400   2.971
43911SOL    HW233573   2.411  13.469   3.100
43912SOL     OW33574   0.815   8.408   9.200
43912SOL    HW133575   0.855   8.342   9.144
43912SOL    HW233576   0.726   8.418   9.165
43913SOL     OW33577   2.747   0.534   7.557
43913SOL    HW133578   2.671   0.591   7.564
43913SOL    HW233579   2.728   0.477   7.482
43914SOL     OW33580   7.688   6.110   3.036
43914SOL    HW133581   7.595   6.117   3.012
43914SOL    HW233582   7.693   6.031   3.089
43915SOL     OW33583   0.263  13.553   5.191
43915SOL    HW133584   0.208  13.631   5.201
43915SOL    HW233585   0.207  13.481   5.220
43916SOL     OW33586  10.615   2.801   7.884
43916SOL    HW133587  10.528   2.838   7.868
43916SOL    HW233588  10.665   2.822   7.806
43917SOL     OW33589  13.510  11.179   7.597
43917SOL    HW133590  13.437  11.142   7.646
43917SOL    HW233591  13.479  11.185   7.507
43918SOL     OW33592  14.181   8.482  10.973
43918SOL    HW133593  14.164   8.412  11.036
43918SOL    HW233594  14.255   8.450  10.921
43919SOL     OW33595   1.118   7.999   8.324
43919SOL    HW133596   1.115   7.916   8.372
43919SOL    HW233597   1.136   8.065   8.390
43920SOL     OW33598   6.783  10.839   3.867
43920SOL    HW133599   6.776  10.744   3.859
43920SOL    HW233600   6.876  10.856   3.876
43921SOL     OW33601  13.334   1.604   3.179
43921SOL    HW133602  13.244   1.597   3.209
43921SOL    HW233603  13.328   1.645   3.093
43922SOL     OW33604  14.237  12.419   5.162
43922SOL    HW133605  14.242  12.514   5.155
43922SOL    HW233606  14.249  12.387   5.073
43923SOL     OW33607   5.364   2.673  10.676
43923SOL    HW133608   5.345   2.584  10.646
43923SOL    HW233609   5.288   2.699  10.726
43924SOL     OW33610   8.176   7.761   4.479
43924SOL    HW133611   8.222   7.842   4.500
43924SOL    HW233612   8.112   7.751   4.549
43925SOL     OW33613   6.314   0.148   9.294
43925SOL    HW133614   6.369   0.146   9.215
43925SOL    HW233615   6.369   0.190   9.360
43926SOL     OW33616   6.167  10.084   5.338
43926SOL    HW133617   6.102  10.087   5.408
43926SOL    HW233618   6.251  10.082   5.385
43927SOL     OW33619   4.665   0.055   9.530
43927SOL    HW133620   4.651  14.847   9.493
43927SOL    HW233621   4.578   0.085   9.556
43928SOL     OW33622   4.938   6.921   8.381
43928SOL    HW133623   4.991   6.853   8.339
43928SOL    HW233624   4.975   6.929   8.469
43929SOL     OW33625   3.359   4.960   5.588
43929SOL    HW133626   3.360   4.986   5.496
43929SOL    HW233627   3.446   4.984   5.621
43930SOL     OW33628   2.900   3.052   9.334
43930SOL    HW133629   2.891   3.131   9.387
43930SOL    HW233630   2.893   3.083   9.243
43931SOL     OW33631   3.477   6.139  12.476
43931SOL    HW133632   3.383   6.122  12.485
43931SOL    HW233633   3.492   6.219  12.525
43932SOL     OW33634  14.273   0.833   5.375
43932SOL    HW133635  14.363   0.801   5.379
43932SOL    HW233636  14.280   0.921   5.338
43933SOL     OW33637   7.251  11.949   1.936
43933SOL    HW133638   7.256  11.991   1.850
43933SOL    HW233639   7.158  11.932   1.949
43934SOL     OW33640  13.077  13.518   6.885
43934SOL    HW133641  13.068  13.433   6.842
43934SOL    HW233642  13.160  13.512   6.934
43935SOL     OW33643  14.730   6.388   0.552
43935SOL    HW133644  14.818   6.425   0.543
43935SOL    HW233645  14.744   6.303   0.595
43936SOL     OW33646  12.251   0.897   9.280
43936SOL    HW133647  12.292   0.811   9.295
43936SOL    HW233648  12.233   0.930   9.368
43937SOL     OW33649   6.107   9.008  11.546
43937SOL    HW133650   6.177   8.944  11.560
43937SOL    HW233651   6.101   9.019  11.451
43938SOL     OW33652  11.107  11.729   1.443
43938SOL    HW133653  11.113  11.752   1.350
43938SOL    HW233654  11.190  11.686   1.462
43939SOL     OW33655   6.346  14.724  10.146
43939SOL    HW133656   6.284  14.690  10.211
43939SOL    HW233657   6.362  14.814  10.172
43940SOL     OW33658   8.892  13.017  12.300
43940SOL    HW133659   8.921  13.107  12.316
43940SOL    HW233660   8.969  12.963  12.315
43941SOL     OW33661  13.370   0.592   0.438
43941SOL    HW133662  13.308   0.599   0.365
43941SOL    HW233663  13.334   0.523   0.493
43942SOL     OW33664  13.034   1.636   8.347
43942SOL    HW133665  13.058   1.544   8.354
43942SOL    HW233666  12.965   1.648   8.413
43943SOL     OW33667   2.253   1.988   4.499
43943SOL    HW133668   2.198   2.006   4.424
43943SOL    HW233669   2.195   1.943   4.561
43944SOL     OW33670   6.349   8.119  13.225
43944SOL    HW133671   6.303   8.036  13.238
43944SOL    HW233672   6.322   8.173  13.299
43945SOL     OW33673   9.148  11.749   9.535
43945SOL    HW133674   9.082  11.682   9.552
43945SOL    HW233675   9.219  11.702   9.492
43946SOL     OW33676  13.564   0.523  10.012
43946SOL    HW133677  13.506   0.472   9.956
43946SOL    HW233678  13.508   0.590  10.051
43947SOL     OW33679  14.082   3.424   7.934
43947SOL    HW133680  14.038   3.348   7.973
43947SOL    HW233681  14.175   3.407   7.948
43948SOL     OW33682  13.573   6.506  12.658
43948SOL    HW133683  13.603   6.533  12.571
43948SOL    HW233684  13.647   6.525  12.716
43949SOL     OW33685   0.343   1.923   2.945
43949SOL    HW133686   0.268   1.944   2.890
43949SOL    HW233687   0.336   1.983   3.019
43950SOL     OW33688   4.584   5.969  10.307
43950SOL    HW133689   4.617   5.889  10.266
43950SOL    HW233690   4.620   6.040  10.255
43951SOL     OW33691   3.170  12.308   6.876
43951SOL    HW133692   3.249  12.354   6.903
43951SOL    HW233693   3.182  12.219   6.909
43952SOL     OW33694   3.986  11.438   2.931
43952SOL    HW133695   4.003  11.444   3.025
43952SOL    HW233696   4.006  11.525   2.897
43953SOL     OW33697  11.414   9.317   7.585
43953SOL    HW133698  11.328   9.297   7.548
43953SOL    HW233699  11.459   9.232   7.587
43954SOL     OW33700   2.295  13.025   5.442
43954SOL    HW133701   2.321  12.977   5.521
43954SOL    HW233702   2.199  13.023   5.443
43955SOL     OW33703   2.030   5.394   5.631
43955SOL    HW133704   2.098   5.440   5.681
43955SOL    HW233705   2.031   5.435   5.545
43956SOL     OW33706  11.512   5.118   4.307
43956SOL    HW133707  11.442   5.161   4.357
43956SOL    HW233708  11.566   5.075   4.374
43957SOL     OW33709   4.062   4.374   6.914
43957SOL    HW133710   4.128   4.336   6.855
43957SOL    HW233711   3.983   4.380   6.860
43958SOL     OW33712  10.497   7.630   9.823
43958SOL    HW133713  10.548   7.629   9.904
43958SOL    HW233714  10.535   7.561   9.770
43959SOL     OW33715   9.114   4.024   6.810
43959SOL    HW133716   9.054   4.078   6.862
43959SOL    HW233717   9.154   4.086   6.749
43960SOL     OW33718   3.042   9.291   7.061
43960SOL    HW133719   3.085   9.214   7.096
43960SOL    HW233720   2.965   9.256   7.015
43961SOL     OW33721   0.270   7.591   6.712
43961SOL    HW133722   0.294   7.563   6.800
43961SOL    HW233723   0.337   7.552   6.655
43962SOL     OW33724   9.542   1.698   1.081
43962SOL    HW133725   9.530   1.769   1.145
43962SOL    HW233726   9.465   1.703   1.024
43963SOL     OW33727   4.541   7.743   0.670
43963SOL    HW133728   4.635   7.730   0.674
43963SOL    HW233729   4.507   7.662   0.632
43964SOL     OW33730   3.616  14.471  13.283
43964SOL    HW133731   3.540  14.504  13.235
43964SOL    HW233732   3.642  14.392  13.235
43965SOL     OW33733   4.341  12.259  10.061
43965SOL    HW133734   4.326  12.223   9.973
43965SOL    HW233735   4.257  12.301  10.083
43966SOL     OW33736   7.201  10.729  11.287
43966SOL    HW133737   7.219  10.797  11.221
43966SOL    HW233738   7.157  10.776  11.358
43967SOL     OW33739   4.460  13.233   6.902
43967SOL    HW133740   4.513  13.165   6.862
43967SOL    HW233741   4.421  13.192   6.979
43968SOL     OW33742   0.490   2.742  10.281
43968SOL    HW133743   0.408   2.750  10.231
43968SOL    HW233744   0.471   2.785  10.365
43969SOL     OW33745  14.715  14.402   4.899
43969SOL    HW133746  14.746  14.418   4.810
43969SOL    HW233747  14.620  14.389   4.889
43970SOL     OW33748   9.403   0.262   8.508
43970SOL    HW133749   9.415   0.168   8.502
43970SOL    HW233750   9.395   0.279   8.602
43971SOL     OW33751   9.841  11.713   4.700
43971SOL    HW133752   9.894  11.786   4.733
43971SOL    HW233753   9.867  11.705   4.608
43972SOL     OW33754   8.858   3.061  12.809
43972SOL    HW133755   8.881   3.153  12.822
43972SOL    HW233756   8.933   3.025  12.762
43973SOL     OW33757   7.086   1.075  10.551
43973SOL    HW133758   7.125   1.028  10.624
43973SOL    HW233759   7.158   1.121  10.510
43974SOL     OW33760   1.984   7.527   1.224
43974SOL    HW133761   1.944   7.599   1.175
43974SOL    HW233762   1.911   7.476   1.256
43975SOL     OW33763   9.453  13.033   7.565
43975SOL    HW133764   9.486  13.120   7.589
43975SOL    HW233765   9.359  13.044   7.557
43976SOL     OW33766   7.450  10.248   7.518
43976SOL    HW133767   7.424  10.288   7.601
43976SOL    HW233768   7.406  10.301   7.451
43977SOL     OW33769   3.528   6.463  14.341
43977SOL    HW133770   3.573   6.499  14.418
43977SOL    HW233771   3.595   6.466  14.272
43978SOL     OW33772   0.941   6.401   5.092
43978SOL    HW133773   1.028   6.417   5.130
43978SOL    HW233774   0.904   6.489   5.080
43979SOL     OW33775  13.208   6.868  11.923
43979SOL    HW133776  13.296   6.901  11.942
43979SOL    HW233777  13.149   6.928  11.968
43980SOL     OW33778   0.525   6.809  11.651
43980SOL    HW133779   0.576   6.838  11.575
43980SOL    HW233780   0.488   6.889  11.687
43981SOL     OW33781  11.883   4.744  13.508
43981SOL    HW133782  11.829   4.726  13.585
43981SOL    HW233783  11.846   4.825  13.472
43982SOL     OW33784   5.020  10.707   4.860
43982SOL    HW133785   4.970  10.631   4.830
43982SOL    HW233786   5.097  10.709   4.802
43983SOL     OW33787   0.530   7.461   3.171
43983SOL    HW133788   0.494   7.521   3.106
43983SOL    HW233789   0.532   7.376   3.126
43984SOL     OW33790   6.554   8.939   1.823
43984SOL    HW133791   6.542   8.895   1.738
43984SOL    HW233792   6.554   8.868   1.887
43985SOL     OW33793  14.544  12.836   3.462
43985SOL    HW133794  14.581  12.898   3.399
43985SOL    HW233795  14.586  12.858   3.545
43986SOL     OW33796  10.978   7.066   5.806
43986SOL    HW133797  10.952   7.005   5.737
43986SOL    HW233798  11.023   7.011   5.871
43987SOL     OW33799  13.370   6.866   7.544
43987SOL    HW133800  13.355   6.865   7.639
43987SOL    HW233801  13.293   6.821   7.508
43988SOL     OW33802   4.927  13.556   6.599
43988SOL    HW133803   5.013  13.554   6.556
43988SOL    HW233804   4.899  13.647   6.592
43989SOL     OW33805  12.985   7.022   4.603
43989SOL    HW133806  12.980   7.117   4.601
43989SOL    HW233807  13.031   6.999   4.522
43990SOL     OW33808   2.817   9.528  11.901
43990SOL    HW133809   2.838   9.616  11.869
43990SOL    HW233810   2.771   9.542  11.983
43991SOL     OW33811   3.903   6.916   6.078
43991SOL    HW133812   3.912   6.827   6.043
43991SOL    HW233813   3.910   6.973   6.002
43992SOL     OW33814  11.857   6.286  13.444
43992SOL    HW133815  11.893   6.292  13.532
43992SOL    HW233816  11.764   6.302  13.455
43993SOL     OW33817  10.270   0.648  11.232
43993SOL    HW133818  10.201   0.586  11.255
43993SOL    HW233819  10.337   0.635  11.299
43994SOL     OW33820   2.043  13.259  13.941
43994SOL    HW133821   2.118  13.265  14.000
43994SOL    HW233822   2.052  13.173  13.900
43995SOL     OW33823  13.582   6.302   7.513
43995SOL    HW133824  13.676   6.314   7.496
43995SOL    HW233825  13.579   6.255   7.597
43996SOL     OW33826  12.258   3.809   9.016
43996SOL    HW133827  12.258   3.725   8.969
43996SOL    HW233828  12.347   3.816   9.051
43997SOL     OW33829  12.486  12.694   4.001
43997SOL    HW133830  12.521  12.673   4.088
43997SOL    HW233831  12.434  12.772   4.014
43998SOL     OW33832   1.383  11.108   3.692
43998SOL    HW133833   1.370  11.171   3.620
43998SOL    HW233834   1.415  11.029   3.649
43999SOL     OW33835   0.182   9.197   2.388
43999SOL    HW133836   0.212   9.167   2.302
43999SOL    HW233837   0.226   9.281   2.401
44000SOL     OW33838  10.866   7.627   6.091
44000SOL    HW133839  10.928   7.694   6.062
44000SOL    HW233840  10.803   7.620   6.020
44001SOL     OW33841  10.596  12.811   8.208
44001SOL    HW133842  10.568  12.824   8.298
44001SOL    HW233843  10.675  12.758   8.215
44002SOL     OW33844  11.482   4.013  12.585
44002SOL    HW133845  11.421   3.943  12.610
44002SOL    HW233846  11.552   4.008  12.651
44003SOL     OW33847   5.946   0.135   9.949
44003SOL    HW133848   5.931   0.052   9.903
44003SOL    HW233849   6.010   0.181   9.894
44004SOL     OW33850   6.619   5.220  12.607
44004SOL    HW133851   6.637   5.266  12.525
44004SOL    HW233852   6.529   5.246  12.629
44005SOL     OW33853   4.177  10.316   2.296
44005SOL    HW133854   4.257  10.308   2.244
44005SOL    HW233855   4.206  10.344   2.382
44006SOL     OW33856   6.794  13.649  14.554
44006SOL    HW133857   6.735  13.687  14.489
44006SOL    HW233858   6.737  13.602  14.614
44007SOL     OW33859   9.363   6.978   4.347
44007SOL    HW133860   9.362   7.064   4.305
44007SOL    HW233861   9.449   6.942   4.325
44008SOL     OW33862   4.558   7.535   6.777
44008SOL    HW133863   4.581   7.617   6.821
44008SOL    HW233864   4.638   7.483   6.779
44009SOL     OW33865   5.503  14.703   0.063
44009SOL    HW133866   5.425  14.757   0.048
44009SOL    HW233867   5.567  14.735  14.878
44010SOL     OW33868   8.839  10.986   5.369
44010SOL    HW133869   8.850  10.895   5.397
44010SOL    HW233870   8.746  11.005   5.385
44011SOL     OW33871   2.865   5.302   0.895
44011SOL    HW133872   2.852   5.346   0.811
44011SOL    HW233873   2.927   5.231   0.876
44012SOL     OW33874   3.101  14.518   5.493
44012SOL    HW133875   3.102  14.430   5.457
44012SOL    HW233876   3.193  14.538   5.511
44013SOL     OW33877   8.209  12.010  12.094
44013SOL    HW133878   8.286  12.068  12.089
44013SOL    HW233879   8.190  12.004  12.188
44014SOL     OW33880  11.356   0.181  12.854
44014SOL    HW133881  11.370   0.220  12.767
44014SOL    HW233882  11.417   0.107  12.856
44015SOL     OW33883   6.050  10.593   6.683
44015SOL    HW133884   6.029  10.518   6.738
44015SOL    HW233885   6.085  10.555   6.603
44016SOL     OW33886   7.285  12.281   8.207
44016SOL    HW133887   7.207  12.302   8.258
44016SOL    HW233888   7.333  12.217   8.260
44017SOL     OW33889   9.915  13.130   5.454
44017SOL    HW133890   9.950  13.218   5.437
44017SOL    HW233891   9.929  13.083   5.372
44018SOL     OW33892   6.409  10.776  14.612
44018SOL    HW133893   6.446  10.849  14.663
44018SOL    HW233894   6.484  10.720  14.594
44019SOL     OW33895   5.052   0.598  12.419
44019SOL    HW133896   4.999   0.674  12.393
44019SOL    HW233897   4.988   0.536  12.455
44020SOL     OW33898   3.549   1.239  13.630
44020SOL    HW133899   3.595   1.179  13.690
44020SOL    HW233900   3.463   1.252  13.671
44021SOL     OW33901  14.187   4.503  11.829
44021SOL    HW133902  14.119   4.561  11.794
44021SOL    HW233903  14.232   4.554  11.896
44022SOL     OW33904  12.243  14.305  12.109
44022SOL    HW133905  12.167  14.362  12.109
44022SOL    HW233906  12.209  14.218  12.085
44023SOL     OW33907  10.562  11.409   8.002
44023SOL    HW133908  10.489  11.426   7.943
44023SOL    HW233909  10.523  11.362   8.076
44024SOL     OW33910   4.718   8.814   8.296
44024SOL    HW133911   4.710   8.889   8.355
44024SOL    HW233912   4.812   8.799   8.288
44025SOL     OW33913   3.390  10.060   1.226
44025SOL    HW133914   3.470  10.008   1.234
44025SOL    HW233915   3.385  10.081   1.133
44026SOL     OW33916   4.785   1.682   5.419
44026SOL    HW133917   4.726   1.741   5.467
44026SOL    HW233918   4.764   1.698   5.327
44027SOL     OW33919   4.039  11.446   1.558
44027SOL    HW133920   4.091  11.523   1.584
44027SOL    HW233921   4.009  11.466   1.470
44028SOL     OW33922   0.769  11.017   7.510
44028SOL    HW133923   0.725  11.072   7.574
44028SOL    HW233924   0.752  11.060   7.426
44029SOL     OW33925  13.167   6.419   3.715
44029SOL    HW133926  13.255   6.398   3.684
44029SOL    HW233927  13.172   6.511   3.741
44030SOL     OW33928  10.142   2.204   1.909
44030SOL    HW133929  10.162   2.285   1.862
44030SOL    HW233930  10.098   2.149   1.845
44031SOL     OW33931   2.100   0.551  14.789
44031SOL    HW133932   2.054   0.495  14.727
44031SOL    HW233933   2.191   0.552  14.757
44032SOL     OW33934   9.576   7.123   1.995
44032SOL    HW133935   9.652   7.088   1.948
44032SOL    HW233936   9.577   7.079   2.080
44033SOL     OW33937   3.416   4.437   1.490
44033SOL    HW133938   3.389   4.348   1.508
44033SOL    HW233939   3.485   4.428   1.424
44034SOL     OW33940   1.459  12.768   9.922
44034SOL    HW133941   1.364  12.777   9.909
44034SOL    HW233942   1.479  12.680   9.892
44035SOL     OW33943  13.560   7.281   2.699
44035SOL    HW133944  13.575   7.262   2.792
44035SOL    HW233945  13.522   7.369   2.699
44036SOL     OW33946   3.275   5.103  12.608
44036SOL    HW133947   3.360   5.061  12.597
44036SOL    HW233948   3.275   5.135  12.698
44037SOL     OW33949   0.573   7.671   8.555
44037SOL    HW133950   0.501   7.719   8.595
44037SOL    HW233951   0.531   7.618   8.487
44038SOL     OW33952   2.186   6.830  12.122
44038SOL    HW133953   2.092   6.840  12.104
44038SOL    HW233954   2.220   6.920  12.118
44039SOL     OW33955   7.773   7.653  14.545
44039SOL    HW133956   7.739   7.569  14.578
44039SOL    HW233957   7.719   7.672  14.468
44040SOL     OW33958  14.317   0.763   5.024
44040SOL    HW133959  14.382   0.771   4.955
44040SOL    HW233960  14.267   0.844   5.021
44041SOL     OW33961  14.414   1.341   1.430
44041SOL    HW133962  14.365   1.278   1.378
44041SOL    HW233963  14.351   1.374   1.494
44042SOL     OW33964  10.728   7.044   0.732
44042SOL    HW133965  10.698   6.982   0.666
44042SOL    HW233966  10.823   7.049   0.720
44043SOL     OW33967   7.202   6.161   6.532
44043SOL    HW133968   7.245   6.077   6.547
44043SOL    HW233969   7.193   6.200   6.619
44044SOL     OW33970   0.644  12.089   7.349
44044SOL    HW133971   0.692  12.065   7.428
44044SOL    HW233972   0.712  12.100   7.283
44045SOL     OW33973  12.551   4.740   5.084
44045SOL    HW133974  12.500   4.773   5.011
44045SOL    HW233975  12.640   4.773   5.069
44046SOL     OW33976   9.271  12.699   0.533
44046SOL    HW133977   9.256  12.737   0.619
44046SOL    HW233978   9.197  12.729   0.479
44047SOL     OW33979   1.354   2.145   0.744
44047SOL    HW133980   1.403   2.073   0.783
44047SOL    HW233981   1.421   2.199   0.701
44048SOL     OW33982   5.113   6.153   6.345
44048SOL    HW133983   5.161   6.072   6.330
44048SOL    HW233984   5.139   6.181   6.433
44049SOL     OW33985   2.763   0.113   6.178
44049SOL    HW133986   2.707   0.136   6.104
44049SOL    HW233987   2.847   0.090   6.138
44050SOL     OW33988  11.741   3.157   7.857
44050SOL    HW133989  11.748   3.244   7.818
44050SOL    HW233990  11.804   3.103   7.810
44051SOL     OW33991   1.815   0.087  13.050
44051SOL    HW133992   1.866   0.142  13.109
44051SOL    HW233993   1.846  14.877  13.067
44052SOL     OW33994  14.206   6.332   5.774
44052SOL    HW133995  14.222   6.422   5.799
44052SOL    HW233996  14.192   6.285   5.856
44053SOL     OW33997  14.258  14.259   6.145
44053SOL    HW133998  14.352  14.273   6.155
44053SOL    HW233999  14.219  14.344   6.167
44054SOL     OW34000   4.479   1.658   5.825
44054SOL    HW134001   4.541   1.595   5.788
44054SOL    HW234002   4.470   1.631   5.917
44055SOL     OW34003   5.804   2.670   3.570
44055SOL    HW134004   5.858   2.605   3.526
44055SOL    HW234005   5.717   2.630   3.574
44056SOL     OW34006  11.806   9.410   9.834
44056SOL    HW134007  11.880   9.387   9.891
44056SOL    HW234008  11.732   9.363   9.872
44057SOL     OW34009   5.188  13.595  10.546
44057SOL    HW134010   5.193  13.603  10.641
44057SOL    HW234011   5.257  13.652  10.513
44058SOL     OW34012  13.679   7.851  13.472
44058SOL    HW134013  13.716   7.885  13.553
44058SOL    HW234014  13.622   7.922  13.441
44059SOL     OW34015   2.005   1.514  12.753
44059SOL    HW134016   1.955   1.547  12.827
44059SOL    HW234017   1.938   1.479  12.693
44060SOL     OW34018  11.651  14.460   0.424
44060SOL    HW134019  11.590  14.510   0.370
44060SOL    HW234020  11.732  14.456   0.373
44061SOL     OW34021   4.269   9.515   9.124
44061SOL    HW134022   4.257   9.424   9.096
44061SOL    HW234023   4.182   9.544   9.151
44062SOL     OW34024   9.243   5.099   8.024
44062SOL    HW134025   9.216   5.124   7.935
44062SOL    HW234026   9.330   5.060   8.012
44063SOL     OW34027   7.657   2.274   3.607
44063SOL    HW134028   7.675   2.304   3.696
44063SOL    HW234029   7.717   2.324   3.552
44064SOL     OW34030   2.566   0.290   9.945
44064SOL    HW134031   2.491   0.275  10.002
44064SOL    HW234032   2.623   0.214   9.960
44065SOL     OW34033   7.638   7.619   8.166
44065SOL    HW134034   7.624   7.686   8.233
44065SOL    HW234035   7.715   7.570   8.197
44066SOL     OW34036   9.176   1.928   7.425
44066SOL    HW134037   9.142   1.910   7.337
44066SOL    HW234038   9.259   1.881   7.429
44067SOL     OW34039  14.134   1.121   9.083
44067SOL    HW134040  14.172   1.035   9.099
44067SOL    HW234041  14.174   1.177   9.149
44068SOL     OW34042   6.118  10.037   3.782
44068SOL    HW134043   6.175   9.980   3.834
44068SOL    HW234044   6.169  10.116   3.768
44069SOL     OW34045   3.191  10.255   1.861
44069SOL    HW134046   3.187  10.279   1.954
44069SOL    HW234047   3.283  10.231   1.847
44070SOL     OW34048   8.221  12.504   9.741
44070SOL    HW134049   8.156  12.503   9.670
44070SOL    HW234050   8.253  12.414   9.745
44071SOL     OW34051   9.541  10.710   5.424
44071SOL    HW134052   9.468  10.756   5.467
44071SOL    HW234053   9.500  10.653   5.360
44072SOL     OW34054   2.653   5.202   6.742
44072SOL    HW134055   2.577   5.172   6.792
44072SOL    HW234056   2.699   5.122   6.718
44073SOL     OW34057   6.421   7.936   9.285
44073SOL    HW134058   6.368   7.912   9.361
44073SOL    HW234059   6.425   8.031   9.288
44074SOL     OW34060  10.701   7.461  12.850
44074SOL    HW134061  10.766   7.436  12.785
44074SOL    HW234062  10.650   7.381  12.866
44075SOL     OW34063  12.537   3.857   6.922
44075SOL    HW134064  12.579   3.918   6.983
44075SOL    HW234065  12.469   3.909   6.879
44076SOL     OW34066   9.565   9.095  12.673
44076SOL    HW134067   9.533   9.052  12.594
44076SOL    HW234068   9.503   9.166  12.689
44077SOL     OW34069   4.178   3.984   3.908
44077SOL    HW134070   4.135   4.063   3.876
44077SOL    HW234071   4.177   3.994   4.003
44078SOL     OW34072   6.557   2.245  11.399
44078SOL    HW134073   6.493   2.315  11.386
44078SOL    HW234074   6.640   2.281  11.368
44079SOL     OW34075   6.607   7.118   7.051
44079SOL    HW134076   6.530   7.158   7.091
44079SOL    HW234077   6.582   7.104   6.960
44080SOL     OW34078   2.661   4.060  14.334
44080SOL    HW134079   2.719   4.133  14.359
44080SOL    HW234080   2.573   4.098  14.336
44081SOL     OW34081   7.065   5.453  11.348
44081SOL    HW134082   7.004   5.381  11.369
44081SOL    HW234083   7.138   5.410  11.304
44082SOL     OW34084  11.836   9.762   9.383
44082SOL    HW134085  11.931   9.750   9.378
44082SOL    HW234086  11.800   9.674   9.378
44083SOL     OW34087   3.331   8.156  14.605
44083SOL    HW134088   3.343   8.219  14.675
44083SOL    HW234089   3.277   8.087  14.644
44084SOL     OW34090   6.487   2.420  12.823
44084SOL    HW134091   6.478   2.325  12.820
44084SOL    HW234092   6.404   2.451  12.860
44085SOL     OW34093  14.419   7.359   7.281
44085SOL    HW134094  14.360   7.294   7.319
44085SOL    HW234095  14.471   7.310   7.218
44086SOL     OW34096   0.094   4.813  14.143
44086SOL    HW134097   0.179   4.816  14.185
44086SOL    HW234098   0.033   4.790  14.213
44087SOL     OW34099  10.473   5.573  13.543
44087SOL    HW134100  10.385   5.558  13.508
44087SOL    HW234101  10.515   5.486  13.541
44088SOL     OW34102   9.871   9.094   2.620
44088SOL    HW134103   9.792   9.041   2.636
44088SOL    HW234104   9.884   9.089   2.525
44089SOL     OW34105  10.037   4.670   9.101
44089SOL    HW134106   9.974   4.716   9.045
44089SOL    HW234107  10.102   4.636   9.039
44090SOL     OW34108   7.009   5.580   5.015
44090SOL    HW134109   7.009   5.673   5.038
44090SOL    HW234110   7.006   5.579   4.919
44091SOL     OW34111   0.748   0.176   5.634
44091SOL    HW134112   0.743   0.109   5.566
44091SOL    HW234113   0.831   0.159   5.679
44092SOL     OW34114  11.753  13.752  10.629
44092SOL    HW134115  11.682  13.762  10.693
44092SOL    HW234116  11.816  13.695  10.673
44093SOL     OW34117  13.853   7.609  11.545
44093SOL    HW134118  13.822   7.698  11.563
44093SOL    HW234119  13.775   7.555  11.548
44094SOL     OW34120   2.915  12.273   4.795
44094SOL    HW134121   2.857  12.223   4.852
44094SOL    HW234122   2.911  12.363   4.828
44095SOL     OW34123  10.994  11.715   2.396
44095SOL    HW134124  11.021  11.740   2.484
44095SOL    HW234125  11.017  11.790   2.341
44096SOL     OW34126   4.407   2.977   1.143
44096SOL    HW134127   4.436   3.068   1.149
44096SOL    HW234128   4.387   2.964   1.051
44097SOL     OW34129   3.491   1.034   6.106
44097SOL    HW134130   3.493   1.026   6.011
44097SOL    HW234131   3.535   0.955   6.138
44098SOL     OW34132   7.580   3.612   7.494
44098SOL    HW134133   7.665   3.619   7.538
44098SOL    HW234134   7.535   3.543   7.542
44099SOL     OW34135  10.421   0.687  12.467
44099SOL    HW134136  10.353   0.725  12.523
44099SOL    HW234137  10.503   0.723  12.500
44100SOL     OW34138   4.760   1.135  11.785
44100SOL    HW134139   4.683   1.123  11.840
44100SOL    HW234140   4.728   1.128  11.695
44101SOL     OW34141   6.433   6.707   4.780
44101SOL    HW134142   6.365   6.668   4.726
44101SOL    HW234143   6.449   6.792   4.740
44102SOL     OW34144   7.316   9.525   1.591
44102SOL    HW134145   7.289   9.615   1.571
44102SOL    HW234146   7.235   9.474   1.587
44103SOL     OW34147  10.708   6.760  13.507
44103SOL    HW134148  10.722   6.752  13.601
44103SOL    HW234149  10.692   6.854  13.493
44104SOL     OW34150   4.265  12.495   3.389
44104SOL    HW134151   4.298  12.562   3.329
44104SOL    HW234152   4.187  12.461   3.344
44105SOL     OW34153   7.903  11.313   3.846
44105SOL    HW134154   7.934  11.400   3.818
44105SOL    HW234155   7.911  11.258   3.768
44106SOL     OW34156   8.442   6.476   1.015
44106SOL    HW134157   8.527   6.433   1.026
44106SOL    HW234158   8.462   6.569   1.028
44107SOL     OW34159   4.539  13.768  13.566
44107SOL    HW134160   4.550  13.759  13.661
44107SOL    HW234161   4.489  13.691  13.540
44108SOL     OW34162   9.696  11.874   6.742
44108SOL    HW134163   9.709  11.793   6.693
44108SOL    HW234164   9.706  11.943   6.677
44109SOL     OW34165   5.192   4.515  12.124
44109SOL    HW134166   5.253   4.451  12.162
44109SOL    HW234167   5.180   4.580  12.193
44110SOL     OW34168   8.200   4.335   3.349
44110SOL    HW134169   8.110   4.347   3.318
44110SOL    HW234170   8.222   4.246   3.325
44111SOL     OW34171   2.140   9.983   5.360
44111SOL    HW134172   2.108   9.895   5.339
44111SOL    HW234173   2.235   9.976   5.353
44112SOL     OW34174  10.730  13.621   3.686
44112SOL    HW134175  10.747  13.609   3.592
44112SOL    HW234176  10.696  13.536   3.715
44113SOL     OW34177  10.291   7.698  11.726
44113SOL    HW134178  10.355   7.649  11.674
44113SOL    HW234179  10.220   7.717  11.664
44114SOL     OW34180   0.700   5.314  11.935
44114SOL    HW134181   0.641   5.281  11.868
44114SOL    HW234182   0.711   5.240  11.995
44115SOL     OW34183  13.463   4.765  12.986
44115SOL    HW134184  13.472   4.854  12.951
44115SOL    HW234185  13.406   4.775  13.062
44116SOL     OW34186  12.606   5.263  11.155
44116SOL    HW134187  12.580   5.177  11.188
44116SOL    HW234188  12.577   5.324  11.223
44117SOL     OW34189   3.794   7.472   7.573
44117SOL    HW134190   3.804   7.549   7.630
44117SOL    HW234191   3.808   7.398   7.632
44118SOL     OW34192   7.662  12.048   5.348
44118SOL    HW134193   7.748  12.018   5.379
44118SOL    HW234194   7.645  11.996   5.269
44119SOL     OW34195  12.030   5.727   7.583
44119SOL    HW134196  11.973   5.670   7.532
44119SOL    HW234197  11.979   5.749   7.661
44120SOL     OW34198   5.971   2.018   5.553
44120SOL    HW134199   5.915   2.085   5.515
44120SOL    HW234200   5.960   2.028   5.648
44121SOL     OW34201  11.853  14.521  14.307
44121SOL    HW134202  11.842  14.487  14.219
44121SOL    HW234203  11.923  14.586  14.300
44122SOL     OW34204   2.058   0.730  11.479
44122SOL    HW134205   2.100   0.650  11.510
44122SOL    HW234206   2.082   0.797  11.543
44123SOL     OW34207   4.793  13.969   7.867
44123SOL    HW134208   4.883  13.997   7.888
44123SOL    HW234209   4.804  13.907   7.795
44124SOL     OW34210  14.614   5.780  14.393
44124SOL    HW134211  14.549   5.724  14.350
44124SOL    HW234212  14.618   5.748  14.483
44125SOL     OW34213   0.801   9.230  10.973
44125SOL    HW134214   0.807   9.259  10.882
44125SOL    HW234215   0.827   9.138  10.971
44126SOL     OW34216  14.849   7.154   9.563
44126SOL    HW134217  14.843   7.080   9.502
44126SOL    HW234218   0.004   7.117   9.644
44127SOL     OW34219  12.421   5.390  13.235
44127SOL    HW134220  12.418   5.478  13.274
44127SOL    HW234221  12.500   5.391  13.180
44128SOL     OW34222   7.330   2.193   9.193
44128SOL    HW134223   7.306   2.102   9.174
44128SOL    HW234224   7.360   2.191   9.284
44129SOL     OW34225   1.372   6.411   3.815
44129SOL    HW134226   1.404   6.356   3.743
44129SOL    HW234227   1.435   6.397   3.886
44130SOL     OW34228   2.398   8.080   1.991
44130SOL    HW134229   2.390   8.144   1.921
44130SOL    HW234230   2.477   8.031   1.970
44131SOL     OW34231  12.551   1.302  14.797
44131SOL    HW134232  12.596   1.219  14.782
44131SOL    HW234233  12.491   1.283  14.869
44132SOL     OW34234   2.930   6.769   6.846
44132SOL    HW134235   2.915   6.679   6.874
44132SOL    HW234236   2.904   6.771   6.754
44133SOL     OW34237   8.842   1.004  12.379
44133SOL    HW134238   8.818   0.922  12.336
44133SOL    HW234239   8.897   0.977  12.453
44134SOL     OW34240   1.163  10.058  12.686
44134SOL    HW134241   1.219   9.984  12.663
44134SOL    HW234242   1.074  10.023  12.685
44135SOL     OW34243   1.037   0.069   8.857
44135SOL    HW134244   1.052  14.870   8.911
44135SOL    HW234245   0.943   0.085   8.863
44136SOL     OW34246   9.316  14.019  10.437
44136SOL    HW134247   9.343  13.932  10.468
44136SOL    HW234248   9.225  14.008  10.412
44137SOL     OW34249  12.094  11.061   9.724
44137SOL    HW134250  12.001  11.043   9.710
44137SOL    HW234251  12.110  11.141   9.673
44138SOL     OW34252  14.540   3.600  13.527
44138SOL    HW134253  14.495   3.522  13.559
44138SOL    HW234254  14.546   3.657  13.603
44139SOL     OW34255   7.702   4.537   3.807
44139SOL    HW134256   7.724   4.630   3.798
44139SOL    HW234257   7.768   4.503   3.868
44140SOL     OW34258   6.059   3.797   8.029
44140SOL    HW134259   6.043   3.728   8.093
44140SOL    HW234260   5.974   3.811   7.987
44141SOL     OW34261  12.344   9.177   3.858
44141SOL    HW134262  12.316   9.085   3.856
44141SOL    HW234263  12.266   9.225   3.886
44142SOL     OW34264   9.321   5.476   6.276
44142SOL    HW134265   9.267   5.398   6.268
44142SOL    HW234266   9.263   5.543   6.313
44143SOL     OW34267   4.351  11.856   2.362
44143SOL    HW134268   4.398  11.776   2.386
44143SOL    HW234269   4.383  11.877   2.274
44144SOL     OW34270  13.302   9.182  10.505
44144SOL    HW134271  13.229   9.214  10.452
44144SOL    HW234272  13.302   9.087  10.490
44145SOL     OW34273   6.861   2.150  13.480
44145SOL    HW134274   6.841   2.206  13.405
44145SOL    HW234275   6.780   2.101  13.496
44146SOL     OW34276  11.203   1.591   8.497
44146SOL    HW134277  11.299   1.597   8.494
44146SOL    HW234278  11.178   1.652   8.567
44147SOL     OW34279   1.892   8.152   7.154
44147SOL    HW134280   1.939   8.077   7.115
44147SOL    HW234281   1.954   8.189   7.216
44148SOL     OW34282  10.518   5.660   6.468
44148SOL    HW134283  10.483   5.739   6.509
44148SOL    HW234284  10.557   5.690   6.386
44149SOL     OW34285   8.775  11.467  11.513
44149SOL    HW134286   8.839  11.522  11.558
44149SOL    HW234287   8.755  11.397  11.576
44150SOL     OW34288   1.549  12.248   4.509
44150SOL    HW134289   1.562  12.316   4.576
44150SOL    HW234290   1.613  12.181   4.531
44151SOL     OW34291   4.160   1.168   0.717
44151SOL    HW134292   4.228   1.170   0.784
44151SOL    HW234293   4.098   1.102   0.748
44152SOL     OW34294  12.205  14.245   4.038
44152SOL    HW134295  12.252  14.186   4.098
44152SOL    HW234296  12.218  14.207   3.952
44153SOL     OW34297   0.632   3.604   7.413
44153SOL    HW134298   0.716   3.612   7.369
44153SOL    HW234299   0.569   3.643   7.352
44154SOL     OW34300   3.128  12.694   4.982
44154SOL    HW134301   3.077  12.618   4.953
44154SOL    HW234302   3.100  12.766   4.926
44155SOL     OW34303  13.442  13.587   7.980
44155SOL    HW134304  13.483  13.608   7.896
44155SOL    HW234305  13.446  13.492   7.986
44156SOL     OW34306   0.882   5.747   7.983
44156SOL    HW134307   0.886   5.827   7.931
44156SOL    HW234308   0.791   5.719   7.976
44157SOL     OW34309   1.160   2.915   4.159
44157SOL    HW134310   1.143   2.877   4.246
44157SOL    HW234311   1.239   2.968   4.171
44158SOL     OW34312   2.361  11.221  10.142
44158SOL    HW134313   2.406  11.241  10.061
44158SOL    HW234314   2.426  11.238  10.211
44159SOL     OW34315   5.423  11.652   9.673
44159SOL    HW134316   5.366  11.694   9.607
44159SOL    HW234317   5.498  11.711   9.680
44160SOL     OW34318   5.159  12.727  12.394
44160SOL    HW134319   5.080  12.685  12.360
44160SOL    HW234320   5.223  12.656  12.399
44161SOL     OW34321   4.165   8.683   8.867
44161SOL    HW134322   4.210   8.702   8.949
44161SOL    HW234323   4.221   8.618   8.824
44162SOL     OW34324   3.258   6.725   1.692
44162SOL    HW134325   3.240   6.656   1.756
44162SOL    HW234326   3.276   6.803   1.745
44163SOL     OW34327   0.949  13.611   3.559
44163SOL    HW134328   0.917  13.679   3.500
44163SOL    HW234329   0.889  13.615   3.634
44164SOL     OW34330   8.932  10.218  11.973
44164SOL    HW134331   8.888  10.139  11.942
44164SOL    HW234332   9.013  10.221  11.922
44165SOL     OW34333   9.430   2.667   2.642
44165SOL    HW134334   9.521   2.674   2.670
44165SOL    HW234335   9.429   2.707   2.555
44166SOL     OW34336  10.772   5.883  12.537
44166SOL    HW134337  10.681   5.865  12.513
44166SOL    HW234338  10.769   5.966  12.584
44167SOL     OW34339  13.270   4.082   8.317
44167SOL    HW134340  13.216   4.037   8.382
44167SOL    HW234341  13.351   4.032   8.314
44168SOL     OW34342   4.312  13.514   8.681
44168SOL    HW134343   4.355  13.591   8.644
44168SOL    HW234344   4.296  13.457   8.606
44169SOL     OW34345  10.086   0.343  11.926
44169SOL    HW134346   9.998   0.324  11.958
44169SOL    HW234347  10.075   0.358  11.832
44170SOL     OW34348  14.086   7.618   8.298
44170SOL    HW134349  14.018   7.676   8.333
44170SOL    HW234350  14.159   7.627   8.359
44171SOL     OW34351   8.420   5.692  11.430
44171SOL    HW134352   8.382   5.605  11.419
44171SOL    HW234353   8.454   5.692  11.520
44172SOL     OW34354   3.537   2.528   9.956
44172SOL    HW134355   3.529   2.491  10.044
44172SOL    HW234356   3.584   2.460   9.906
44173SOL     OW34357   3.534   5.544  14.334
44173SOL    HW134358   3.486   5.626  14.320
44173SOL    HW234359   3.574   5.554  14.420
44174SOL     OW34360   1.449  10.566   9.909
44174SOL    HW134361   1.430  10.538   9.998
44174SOL    HW234362   1.441  10.661   9.911
44175SOL     OW34363  13.193   4.857   3.851
44175SOL    HW134364  13.107   4.815   3.841
44175SOL    HW234365  13.196   4.922   3.782
44176SOL     OW34366   6.580   7.871   1.169
44176SOL    HW134367   6.581   7.967   1.176
44176SOL    HW234368   6.556   7.841   1.257
44177SOL     OW34369  11.899   3.111   0.795
44177SOL    HW134370  11.846   3.094   0.872
44177SOL    HW234371  11.869   3.048   0.730
44178SOL     OW34372   8.893  14.120   5.671
44178SOL    HW134373   8.860  14.201   5.634
44178SOL    HW234374   8.817  14.062   5.676
44179SOL     OW34375   8.374  10.337   6.206
44179SOL    HW134376   8.375  10.399   6.279
44179SOL    HW234377   8.339  10.387   6.132
44180SOL     OW34378   6.275   1.692  12.908
44180SOL    HW134379   6.330   1.696  12.986
44180SOL    HW234380   6.294   1.606  12.869
44181SOL     OW34381  11.568  11.393  13.625
44181SOL    HW134382  11.601  11.428  13.707
44181SOL    HW234383  11.605  11.305  13.619
44182SOL     OW34384  12.580   3.858   8.319
44182SOL    HW134385  12.532   3.940   8.334
44182SOL    HW234386  12.669   3.877   8.348
44183SOL     OW34387  14.277   6.798   9.616
44183SOL    HW134388  14.368   6.799   9.645
44183SOL    HW234389  14.276   6.854   9.538
44184SOL     OW34390   5.143   2.345   0.862
44184SOL    HW134391   5.063   2.320   0.909
44184SOL    HW234392   5.113   2.365   0.773
44185SOL     OW34393  12.847   5.841   6.827
44185SOL    HW134394  12.870   5.804   6.742
44185SOL    HW234395  12.759   5.877   6.815
44186SOL     OW34396  10.492  14.107  11.537
44186SOL    HW134397  10.582  14.087  11.509
44186SOL    HW234398  10.451  14.148  11.461
44187SOL     OW34399   6.705   9.455  12.343
44187SOL    HW134400   6.635   9.496  12.291
44187SOL    HW234401   6.674   9.460  12.433
44188SOL     OW34402  12.085   5.392  14.713
44188SOL    HW134403  11.998   5.377  14.674
44188SOL    HW234404  12.118   5.304  14.731
44189SOL     OW34405  10.767   0.041  10.764
44189SOL    HW134406  10.672   0.029  10.757
44189SOL    HW234407  10.796  14.847  10.818
44190SOL     OW34408   9.235   3.028   4.447
44190SOL    HW134409   9.208   3.044   4.356
44190SOL    HW234410   9.272   3.111   4.476
44191SOL     OW34411   1.561   6.662  10.955
44191SOL    HW134412   1.466   6.663  10.971
44191SOL    HW234413   1.572   6.605  10.879
44192SOL     OW34414   5.010   6.475  14.520
44192SOL    HW134415   4.954   6.468  14.596
44192SOL    HW234416   5.099   6.478  14.555
44193SOL     OW34417   6.393   0.430  13.922
44193SOL    HW134418   6.421   0.411  14.012
44193SOL    HW234419   6.425   0.356  13.871
44194SOL     OW34420   7.148  11.102  14.738
44194SOL    HW134421   7.105  11.032  14.787
44194SOL    HW234422   7.240  11.075  14.734
44195SOL     OW34423  14.769   8.355   3.566
44195SOL    HW134424  14.784   8.368   3.660
44195SOL    HW234425  14.769   8.260   3.555
44196SOL     OW34426  14.778  12.766   6.517
44196SOL    HW134427  14.810  12.727   6.435
44196SOL    HW234428  14.684  12.750   6.515
44197SOL     OW34429   4.171  10.629   5.009
44197SOL    HW134430   4.248  10.602   4.959
44197SOL    HW234431   4.118  10.678   4.947
44198SOL     OW34432   4.630  12.993   4.071
44198SOL    HW134433   4.604  12.905   4.045
44198SOL    HW234434   4.628  12.991   4.167
44199SOL     OW34435  14.455   3.812   8.592
44199SOL    HW134436  14.360   3.805   8.591
44199SOL    HW234437  14.483   3.746   8.657
44200SOL     OW34438   5.673   9.022   7.527
44200SOL    HW134439   5.755   8.975   7.516
44200SOL    HW234440   5.697   9.104   7.570
44201SOL     OW34441  11.391   1.679  13.895
44201SOL    HW134442  11.417   1.650  13.807
44201SOL    HW234443  11.296   1.681  13.892
44202SOL     OW34444   6.292  11.859  11.737
44202SOL    HW134445   6.306  11.797  11.808
44202SOL    HW234446   6.356  11.833  11.670
44203SOL     OW34447   6.224  13.572   0.339
44203SOL    HW134448   6.309  13.610   0.316
44203SOL    HW234449   6.245  13.500   0.398
44204SOL     OW34450   4.937  10.250  12.647
44204SOL    HW134451   4.935  10.322  12.585
44204SOL    HW234452   4.850  10.251  12.688
44205SOL     OW34453  10.765   2.265   2.520
44205SOL    HW134454  10.835   2.330   2.520
44205SOL    HW234455  10.723   2.275   2.605
44206SOL     OW34456   1.950   4.689   4.538
44206SOL    HW134457   1.964   4.595   4.545
44206SOL    HW234458   1.855   4.698   4.525
44207SOL     OW34459   1.444  12.490   8.344
44207SOL    HW134460   1.413  12.399   8.346
44207SOL    HW234461   1.501  12.494   8.268
44208SOL     OW34462   8.311   7.008  14.738
44208SOL    HW134463   8.278   7.097  14.723
44208SOL    HW234464   8.378   7.019  14.806
44209SOL     OW34465   4.686   4.540   3.984
44209SOL    HW134466   4.729   4.499   3.909
44209SOL    HW234467   4.688   4.474   4.053
44210SOL     OW34468  11.784   8.201   2.223
44210SOL    HW134469  11.869   8.241   2.207
44210SOL    HW234470  11.793   8.112   2.188
44211SOL     OW34471   4.461   4.955  10.492
44211SOL    HW134472   4.516   5.011  10.436
44211SOL    HW234473   4.463   4.869  10.449
44212SOL     OW34474   6.021  13.535   0.177
44212SOL    HW134475   6.063  13.549   0.262
44212SOL    HW234476   6.085  13.483   0.127
44213SOL     OW34477  13.854   3.706   9.997
44213SOL    HW134478  13.803   3.659  10.063
44213SOL    HW234479  13.865   3.642   9.926
44214SOL     OW34480   1.934   5.134   7.193
44214SOL    HW134481   2.028   5.116   7.190
44214SOL    HW234482   1.907   5.107   7.281
44215SOL     OW34483   0.366   0.893   7.161
44215SOL    HW134484   0.362   0.933   7.248
44215SOL    HW234485   0.460   0.885   7.143
44216SOL     OW34486   6.330  10.638  11.054
44216SOL    HW134487   6.378  10.611  11.132
44216SOL    HW234488   6.256  10.577  11.049
44217SOL     OW34489  11.853  11.511   7.378
44217SOL    HW134490  11.875  11.488   7.468
44217SOL    HW234491  11.866  11.430   7.329
44218SOL     OW34492   3.729  14.817   5.313
44218SOL    HW134493   3.772   0.023   5.325
44218SOL    HW234494   3.790  14.754   5.351
44219SOL     OW34495   1.071   3.042   6.259
44219SOL    HW134496   1.147   2.997   6.223
44219SOL    HW234497   0.998   2.982   6.244
44220SOL     OW34498  13.740   3.632   7.549
44220SOL    HW134499  13.779   3.704   7.499
44220SOL    HW234500  13.702   3.574   7.484
44221SOL     OW34501   8.910   3.853  11.598
44221SOL    HW134502   8.918   3.759  11.612
44221SOL    HW234503   8.868   3.862  11.513
44222SOL     OW34504  12.248   6.536   6.156
44222SOL    HW134505  12.200   6.579   6.086
44222SOL    HW234506  12.180   6.495   6.210
44223SOL     OW34507  10.798   3.255   4.107
44223SOL    HW134508  10.735   3.183   4.121
44223SOL    HW234509  10.743   3.330   4.086
44224SOL     OW34510   7.355   7.723   0.087
44224SOL    HW134511   7.269   7.757   0.064
44224SOL    HW234512   7.338   7.642   0.133
44225SOL     OW34513   1.053  11.167   0.432
44225SOL    HW134514   0.987  11.102   0.406
44225SOL    HW234515   1.003  11.236   0.475
44226SOL     OW34516   7.405   7.961   6.466
44226SOL    HW134517   7.357   7.892   6.420
44226SOL    HW234518   7.359   8.042   6.441
44227SOL     OW34519  10.366   1.376   3.995
44227SOL    HW134520  10.461   1.391   3.990
44227SOL    HW234521  10.334   1.448   4.049
44228SOL     OW34522   1.760   6.517   5.134
44228SOL    HW134523   1.806   6.446   5.178
44228SOL    HW234524   1.820   6.546   5.065
44229SOL     OW34525   9.597   1.522  13.794
44229SOL    HW134526   9.620   1.582  13.865
44229SOL    HW234527   9.504   1.535  13.780
44230SOL     OW34528   9.248   2.740   1.863
44230SOL    HW134529   9.211   2.738   1.775
44230SOL    HW234530   9.201   2.811   1.907
44231SOL     OW34531   5.728  12.952  10.576
44231SOL    HW134532   5.765  12.866  10.594
44231SOL    HW234533   5.705  12.950  10.483
44232SOL     OW34534   0.863   7.673   7.584
44232SOL    HW134535   0.821   7.686   7.669
44232SOL    HW234536   0.894   7.760   7.559
44233SOL     OW34537  13.231   8.788  11.468
44233SOL    HW134538  13.269   8.718  11.520
44233SOL    HW234539  13.227   8.863  11.527
44234SOL     OW34540   2.146  11.074   7.962
44234SOL    HW134541   2.099  11.157   7.962
44234SOL    HW234542   2.158  11.054   8.055
44235SOL     OW34543   4.681   1.186   9.569
44235SOL    HW134544   4.593   1.202   9.604
44235SOL    HW234545   4.665   1.149   9.482
44236SOL     OW34546  12.678   3.899   4.499
44236SOL    HW134547  12.630   3.925   4.578
44236SOL    HW234548  12.666   3.805   4.494
44237SOL     OW34549   7.011   4.180   4.433
44237SOL    HW134550   7.015   4.102   4.488
44237SOL    HW234551   7.059   4.246   4.483
44238SOL     OW34552  10.671   9.035  11.457
44238SOL    HW134553  10.590   9.015  11.505
44238SOL    HW234554  10.729   8.962  11.475
44239SOL     OW34555   7.389  13.722   3.900
44239SOL    HW134556   7.361  13.662   3.831
44239SOL    HW234557   7.359  13.808   3.870
44240SOL     OW34558   1.420   8.613  11.564
44240SOL    HW134559   1.455   8.559  11.635
44240SOL    HW234560   1.407   8.552  11.491
44241SOL     OW34561   4.375   0.183   8.025
44241SOL    HW134562   4.374   0.140   7.939
44241SOL    HW234563   4.389   0.276   8.005
44242SOL     OW34564   6.260   0.147  10.586
44242SOL    HW134565   6.192   0.173  10.524
44242SOL    HW234566   6.213   0.126  10.666
44243SOL     OW34567   5.011  10.705   5.747
44243SOL    HW134568   5.091  10.755   5.763
44243SOL    HW234569   5.034  10.615   5.769
44244SOL     OW34570   6.480   8.353   0.924
44244SOL    HW134571   6.490   8.415   0.996
44244SOL    HW234572   6.524   8.274   0.954
44245SOL     OW34573  14.707  12.657  11.668
44245SOL    HW134574  14.673  12.692  11.585
44245SOL    HW234575  14.731  12.735  11.718
44246SOL     OW34576  13.057  12.109   3.145
44246SOL    HW134577  13.010  12.028   3.126
44246SOL    HW234578  13.111  12.088   3.221
44247SOL     OW34579  11.283  10.851  12.534
44247SOL    HW134580  11.205  10.906  12.527
44247SOL    HW234581  11.278  10.814  12.622
44248SOL     OW34582  14.140   2.349   0.503
44248SOL    HW134583  14.045   2.349   0.508
44248SOL    HW234584  14.168   2.301   0.581
44249SOL     OW34585  11.291   7.988   6.401
44249SOL    HW134586  11.318   7.947   6.483
44249SOL    HW234587  11.282   7.914   6.340
44250SOL     OW34588   4.849   1.174   1.546
44250SOL    HW134589   4.810   1.095   1.510
44250SOL    HW234590   4.775   1.226   1.578
44251SOL     OW34591   2.615   0.177  11.148
44251SOL    HW134592   2.679   0.109  11.168
44251SOL    HW234593   2.564   0.187  11.229
44252SOL     OW34594   6.475   3.819   5.675
44252SOL    HW134595   6.477   3.740   5.622
44252SOL    HW234596   6.472   3.787   5.765
44253SOL     OW34597  13.671  10.592  13.041
44253SOL    HW134598  13.663  10.671  13.095
44253SOL    HW234599  13.765  10.573  13.040
44254SOL     OW34600   2.880  10.099   3.869
44254SOL    HW134601   2.885  10.193   3.854
44254SOL    HW234602   2.903  10.060   3.785
44255SOL     OW34603   9.353   4.127   6.524
44255SOL    HW134604   9.325   4.036   6.518
44255SOL    HW234605   9.272   4.178   6.520
44256SOL     OW34606   7.056   2.495  12.831
44256SOL    HW134607   7.121   2.433  12.801
44256SOL    HW234608   7.042   2.473  12.924
44257SOL     OW34609   5.964  12.729   0.043
44257SOL    HW134610   6.013  12.802   0.082
44257SOL    HW234611   5.873  12.746   0.066
44258SOL     OW34612   1.659   7.858  10.428
44258SOL    HW134613   1.749   7.881  10.453
44258SOL    HW234614   1.639   7.780  10.480
44259SOL     OW34615   5.529   2.904   0.546
44259SOL    HW134616   5.529   2.816   0.510
44259SOL    HW234617   5.580   2.898   0.626
44260SOL     OW34618   4.220   2.614   9.251
44260SOL    HW134619   4.307   2.631   9.287
44260SOL    HW234620   4.162   2.672   9.299
44261SOL     OW34621  11.230   7.848   1.279
44261SOL    HW134622  11.199   7.939   1.277
44261SOL    HW234623  11.261   7.835   1.368
44262SOL     OW34624  11.347   5.215   9.252
44262SOL    HW134625  11.280   5.158   9.214
44262SOL    HW234626  11.424   5.199   9.198
44263SOL     OW34627  14.691   0.665  10.441
44263SOL    HW134628  14.603   0.682  10.475
44263SOL    HW234629  14.709   0.574  10.465
44264SOL     OW34630   9.074   5.808   3.431
44264SOL    HW134631   9.112   5.880   3.482
44264SOL    HW234632   9.144   5.780   3.373
44265SOL     OW34633   9.564   9.421   4.700
44265SOL    HW134634   9.509   9.402   4.624
44265SOL    HW234635   9.520   9.377   4.773
44266SOL     OW34636   9.852  13.253   9.980
44266SOL    HW134637   9.818  13.270   9.893
44266SOL    HW234638   9.933  13.303   9.985
44267SOL     OW34639   9.454   7.720  11.452
44267SOL    HW134640   9.465   7.681  11.365
44267SOL    HW234641   9.378   7.777  11.443
44268SOL     OW34642   6.418   2.533  13.668
44268SOL    HW134643   6.356   2.606  13.659
44268SOL    HW234644   6.364   2.455  13.659
44269SOL     OW34645  12.657   4.915   4.384
44269SOL    HW134646  12.566   4.900   4.357
44269SOL    HW234647  12.682   4.995   4.339
44270SOL     OW34648   4.444   3.528   9.861
44270SOL    HW134649   4.508   3.523   9.790
44270SOL    HW234650   4.391   3.605   9.840
44271SOL     OW34651  14.024   9.627   8.278
44271SOL    HW134652  13.990   9.665   8.360
44271SOL    HW234653  14.077   9.553   8.306
44272SOL     OW34654  12.027  14.101   3.406
44272SOL    HW134655  12.045  14.182   3.455
44272SOL    HW234656  11.956  14.124   3.347
44273SOL     OW34657   9.739   8.958  13.779
44273SOL    HW134658   9.832   8.978  13.766
44273SOL    HW234659   9.701   9.039  13.813
44274SOL     OW34660  13.459  10.736   4.895
44274SOL    HW134661  13.516  10.743   4.818
44274SOL    HW234662  13.413  10.819   4.899
44275SOL     OW34663   0.509   7.830  14.212
44275SOL    HW134664   0.418   7.860  14.211
44275SOL    HW234665   0.561   7.910  14.204
44276SOL     OW34666   4.389   2.348  13.104
44276SOL    HW134667   4.419   2.367  13.015
44276SOL    HW234668   4.465   2.308  13.147
44277SOL     OW34669   2.975   6.762  14.151
44277SOL    HW134670   3.028   6.746  14.073
44277SOL    HW234671   2.996   6.852  14.176
44278SOL     OW34672   6.330  13.387   1.270
44278SOL    HW134673   6.295  13.470   1.301
44278SOL    HW234674   6.425  13.397   1.278
44279SOL     OW34675  14.755  11.883   9.619
44279SOL    HW134676  14.739  11.815   9.684
44279SOL    HW234677  14.842  11.917   9.640
44280SOL     OW34678   5.224   9.005   7.457
44280SOL    HW134679   5.252   9.096   7.465
44280SOL    HW234680   5.156   8.996   7.524
44281SOL     OW34681   1.794  11.681   5.770
44281SOL    HW134682   1.730  11.684   5.699
44281SOL    HW234683   1.879  11.686   5.726
44282SOL     OW34684   3.883   8.388   5.175
44282SOL    HW134685   3.930   8.306   5.158
44282SOL    HW234686   3.862   8.385   5.268
44283SOL     OW34687   3.867   8.065   4.051
44283SOL    HW134688   3.952   8.026   4.072
44283SOL    HW234689   3.810   7.991   4.030
44284SOL     OW34690  10.315   7.813   3.765
44284SOL    HW134691  10.328   7.819   3.670
44284SOL    HW234692  10.274   7.896   3.789
44285SOL     OW34693   6.665   1.036   6.604
44285SOL    HW134694   6.605   0.962   6.597
44285SOL    HW234695   6.669   1.053   6.698
44286SOL     OW34696  11.942   1.576   9.515
44286SOL    HW134697  11.863   1.536   9.478
44286SOL    HW234698  12.009   1.509   9.508
44287SOL     OW34699  13.443   7.305   6.911
44287SOL    HW134700  13.405   7.331   6.995
44287SOL    HW234701  13.538   7.308   6.926
44288SOL     OW34702   3.630   6.218  12.882
44288SOL    HW134703   3.644   6.293  12.939
44288SOL    HW234704   3.538   6.195  12.894
44289SOL     OW34705   2.112   3.706  13.982
44289SOL    HW134706   2.188   3.675  14.031
44289SOL    HW234707   2.055   3.744  14.049
44290SOL     OW34708   6.027   1.779  11.870
44290SOL    HW134709   6.027   1.770  11.966
44290SOL    HW234710   5.953   1.724  11.841
44291SOL     OW34711   2.105   6.466  13.433
44291SOL    HW134712   2.145   6.484  13.518
44291SOL    HW234713   2.019   6.506  13.438
44292SOL     OW34714  11.766   2.454   7.031
44292SOL    HW134715  11.814   2.424   6.954
44292SOL    HW234716  11.703   2.518   6.998
44293SOL     OW34717   4.316  14.256   3.940
44293SOL    HW134718   4.391  14.294   3.893
44293SOL    HW234719   4.247  14.322   3.933
44294SOL     OW34720   5.592   7.573   6.790
44294SOL    HW134721   5.674   7.615   6.766
44294SOL    HW234722   5.617   7.503   6.851
44295SOL     OW34723   7.745  13.163   3.388
44295SOL    HW134724   7.793  13.172   3.306
44295SOL    HW234725   7.681  13.093   3.370
44296SOL     OW34726   4.490   0.947   6.737
44296SOL    HW134727   4.499   1.042   6.734
44296SOL    HW234728   4.479   0.927   6.830
44297SOL     OW34729   4.649  14.651   7.559
44297SOL    HW134730   4.711  14.653   7.632
44297SOL    HW234731   4.705  14.648   7.481
44298SOL     OW34732   9.217  12.942   2.849
44298SOL    HW134733   9.281  13.007   2.876
44298SOL    HW234734   9.142  12.993   2.818
44299SOL     OW34735   5.605   8.403  12.527
44299SOL    HW134736   5.650   8.329  12.568
44299SOL    HW234737   5.518   8.403  12.567
44300SOL     OW34738   9.436  12.942  13.229
44300SOL    HW134739   9.469  12.854  13.211
44300SOL    HW234740   9.453  12.991  13.148
44301SOL     OW34741   2.700  13.810   5.237
44301SOL    HW134742   2.716  13.889   5.288
44301SOL    HW234743   2.612  13.821   5.202
44302SOL     OW34744   6.716   0.581   9.015
44302SOL    HW134745   6.747   0.492   9.000
44302SOL    HW234746   6.623   0.572   9.034
44303SOL     OW34747  11.226   1.022  10.536
44303SOL    HW134748  11.298   0.974  10.496
44303SOL    HW234749  11.174   1.054  10.462
44304SOL     OW34750   6.812   5.897   1.200
44304SOL    HW134751   6.802   5.875   1.292
44304SOL    HW234752   6.833   5.991   1.200
44305SOL     OW34753   7.793  13.827  14.794
44305SOL    HW134754   7.766  13.889  14.861
44305SOL    HW234755   7.729  13.837  14.724
44306SOL     OW34756  13.629   1.706  14.529
44306SOL    HW134757  13.684   1.634  14.559
44306SOL    HW234758  13.542   1.685  14.561
44307SOL     OW34759   8.601   1.231  13.066
44307SOL    HW134760   8.670   1.172  13.036
44307SOL    HW234761   8.620   1.246  13.158
44308SOL     OW34762  14.349   7.434  13.597
44308SOL    HW134763  14.320   7.518  13.561
44308SOL    HW234764  14.318   7.435  13.687
44309SOL     OW34765   0.994   6.906   9.249
44309SOL    HW134766   0.957   6.820   9.229
44309SOL    HW234767   1.072   6.887   9.301
44310SOL     OW34768   2.494   4.507  12.676
44310SOL    HW134769   2.517   4.485  12.586
44310SOL    HW234770   2.509   4.426  12.725
44311SOL     OW34771   6.339   8.165   4.243
44311SOL    HW134772   6.294   8.243   4.210
44311SOL    HW234773   6.295   8.092   4.200
44312SOL     OW34774   1.165   5.508   4.801
44312SOL    HW134775   1.199   5.419   4.796
44312SOL    HW234776   1.240   5.561   4.829
44313SOL     OW34777  11.179   5.220  14.460
44313SOL    HW134778  11.172   5.192  14.552
44313SOL    HW234779  11.091   5.251  14.438
44314SOL     OW34780   0.980  14.096   1.481
44314SOL    HW134781   1.019  14.156   1.545
44314SOL    HW234782   0.886  14.107   1.492
44315SOL     OW34783   9.545   9.432   2.244
44315SOL    HW134784   9.496   9.471   2.316
44315SOL    HW234785   9.614   9.496   2.224
44316SOL     OW34786   6.693   6.474   0.296
44316SOL    HW134787   6.659   6.559   0.325
44316SOL    HW234788   6.621   6.413   0.309
44317SOL     OW34789   9.400   5.017   6.375
44317SOL    HW134790   9.468   4.984   6.434
44317SOL    HW234791   9.317   4.996   6.419
44318SOL     OW34792  12.310   1.332   2.820
44318SOL    HW134793  12.405   1.342   2.812
44318SOL    HW234794  12.290   1.370   2.905
44319SOL     OW34795  10.418   4.610  12.129
44319SOL    HW134796  10.434   4.605  12.223
44319SOL    HW234797  10.420   4.703  12.109
44320SOL     OW34798  13.940   7.537  12.112
44320SOL    HW134799  13.982   7.469  12.059
44320SOL    HW234800  14.005   7.558  12.179
44321SOL     OW34801   3.556   7.335   1.832
44321SOL    HW134802   3.629   7.386   1.798
44321SOL    HW234803   3.597   7.256   1.868
44322SOL     OW34804   7.003  10.838  11.990
44322SOL    HW134805   7.084  10.827  12.039
44322SOL    HW234806   7.031  10.845  11.898
44323SOL     OW34807  10.597   5.084  13.175
44323SOL    HW134808  10.621   5.155  13.116
44323SOL    HW234809  10.603   5.122  13.262
44324SOL     OW34810  13.985   5.558  12.965
44324SOL    HW134811  13.998   5.483  13.022
44324SOL    HW234812  14.074   5.593  12.952
44325SOL     OW34813   4.923   7.607  12.978
44325SOL    HW134814   4.973   7.676  13.024
44325SOL    HW234815   4.848   7.591  13.035
44326SOL     OW34816   8.972  11.012   3.740
44326SOL    HW134817   8.906  10.943   3.728
44326SOL    HW234818   9.024  11.009   3.660
44327SOL     OW34819   0.376   2.843  11.834
44327SOL    HW134820   0.290   2.828  11.874
44327SOL    HW234821   0.357   2.860  11.741
44328SOL     OW34822   1.118   1.824   0.032
44328SOL    HW134823   1.111   1.795  14.821
44328SOL    HW234824   1.041   1.877   0.047
44329SOL     OW34825   4.098  11.309   3.847
44329SOL    HW134826   4.187  11.285   3.823
44329SOL    HW234827   4.058  11.226   3.876
44330SOL     OW34828   7.636   6.508   5.296
44330SOL    HW134829   7.562   6.565   5.314
44330SOL    HW234830   7.692   6.560   5.237
44331SOL     OW34831  13.918   1.669   7.025
44331SOL    HW134832  13.968   1.682   6.945
44331SOL    HW234833  13.977   1.621   7.083
44332SOL     OW34834   9.744   2.668   0.828
44332SOL    HW134835   9.737   2.653   0.734
44332SOL    HW234836   9.763   2.762   0.836
44333SOL     OW34837   1.736   7.571   6.508
44333SOL    HW134838   1.746   7.587   6.602
44333SOL    HW234839   1.738   7.475   6.501
44334SOL     OW34840   3.235   9.253   2.913
44334SOL    HW134841   3.299   9.273   2.982
44334SOL    HW234842   3.152   9.287   2.946
44335SOL     OW34843   7.593   7.761   7.004
44335SOL    HW134844   7.556   7.800   7.084
44335SOL    HW234845   7.672   7.716   7.034
44336SOL     OW34846   3.248   3.272   0.243
44336SOL    HW134847   3.218   3.364   0.243
44336SOL    HW234848   3.213   3.236   0.162
44337SOL     OW34849  14.025   4.764  12.792
44337SOL    HW134850  13.945   4.817  12.788
44337SOL    HW234851  14.068   4.791  12.873
44338SOL     OW34852  10.403   8.503   5.067
44338SOL    HW134853  10.445   8.497   4.981
44338SOL    HW234854  10.321   8.549   5.049
44339SOL     OW34855  12.189   8.522   8.883
44339SOL    HW134856  12.170   8.536   8.975
44339SOL    HW234857  12.284   8.529   8.876
44340SOL     OW34858   3.255   1.834   7.981
44340SOL    HW134859   3.262   1.865   7.891
44340SOL    HW234860   3.227   1.743   7.973
44341SOL     OW34861  14.556   4.228   1.138
44341SOL    HW134862  14.533   4.300   1.081
44341SOL    HW234863  14.581   4.269   1.221
44342SOL     OW34864   1.396   7.097   5.025
44342SOL    HW134865   1.327   7.062   4.969
44342SOL    HW234866   1.467   7.034   5.019
44343SOL     OW34867  12.563  11.909   4.692
44343SOL    HW134868  12.648  11.933   4.728
44343SOL    HW234869  12.542  11.981   4.632
44344SOL     OW34870  14.717  14.671   8.119
44344SOL    HW134871  14.763  14.601   8.165
44344SOL    HW234872  14.728  14.748   8.176
44345SOL     OW34873   6.696   5.621   9.551
44345SOL    HW134874   6.701   5.671   9.632
44345SOL    HW234875   6.695   5.530   9.580
44346SOL     OW34876  10.261  14.252  14.584
44346SOL    HW134877  10.225  14.311  14.650
44346SOL    HW234878  10.337  14.298  14.550
44347SOL     OW34879   9.374   0.365  13.798
44347SOL    HW134880   9.292   0.331  13.762
44347SOL    HW234881   9.414   0.289  13.841
44348SOL     OW34882   6.022   4.487  11.190
44348SOL    HW134883   6.016   4.434  11.270
44348SOL    HW234884   5.934   4.522  11.178
44349SOL     OW34885   0.119   8.590   3.829
44349SOL    HW134886   0.111   8.495   3.829
44349SOL    HW234887   0.145   8.612   3.739
44350SOL     OW34888   0.176  14.107   5.183
44350SOL    HW134889   0.122  14.071   5.254
44350SOL    HW234890   0.131  14.187   5.157
44351SOL     OW34891   8.392   1.958   2.156
44351SOL    HW134892   8.324   1.949   2.222
44351SOL    HW234893   8.346   1.961   2.073
44352SOL     OW34894   1.865  10.561   3.467
44352SOL    HW134895   1.823  10.640   3.431
44352SOL    HW234896   1.900  10.590   3.552
44353SOL     OW34897   4.690  11.737   8.075
44353SOL    HW134898   4.676  11.654   8.030
44353SOL    HW234899   4.718  11.712   8.163
44354SOL     OW34900  10.929   8.036   5.828
44354SOL    HW134901  10.969   8.120   5.805
44354SOL    HW234902  10.916   7.991   5.745
44355SOL     OW34903   5.279  10.940   2.593
44355SOL    HW134904   5.215  10.994   2.547
44355SOL    HW234905   5.256  10.949   2.685
44356SOL     OW34906   1.922  12.441   4.375
44356SOL    HW134907   1.893  12.461   4.286
44356SOL    HW234908   1.976  12.363   4.365
44357SOL     OW34909   7.835   5.197  10.153
44357SOL    HW134910   7.847   5.103  10.145
44357SOL    HW234911   7.918   5.229  10.188
44358SOL     OW34912  14.870   4.051   1.734
44358SOL    HW134913  14.814   3.974   1.747
44358SOL    HW234914   0.062   4.040   1.797
44359SOL     OW34915   6.031  14.788   7.716
44359SOL    HW134916   6.051  14.703   7.678
44359SOL    HW234917   5.986  14.767   7.798
44360SOL     OW34918  11.765  13.148   6.336
44360SOL    HW134919  11.774  13.171   6.428
44360SOL    HW234920  11.702  13.212   6.301
44361SOL     OW34921  11.566   0.677   9.148
44361SOL    HW134922  11.494   0.661   9.208
44361SOL    HW234923  11.529   0.662   9.061
44362SOL     OW34924   6.813   2.389   7.459
44362SOL    HW134925   6.817   2.340   7.542
44362SOL    HW234926   6.849   2.474   7.481
44363SOL     OW34927  13.468  14.033   9.597
44363SOL    HW134928  13.406  14.084   9.650
44363SOL    HW234929  13.413  13.970   9.551
44364SOL     OW34930   5.044  10.046   9.788
44364SOL    HW134931   5.037  10.109   9.716
44364SOL    HW234932   5.137  10.047   9.812
44365SOL     OW34933   5.892   6.377  14.525
44365SOL    HW134934   5.861   6.307  14.582
44365SOL    HW234935   5.837   6.370  14.446
44366SOL     OW34936   9.816  11.599   9.625
44366SOL    HW134937   9.821  11.674   9.684
44366SOL    HW234938   9.824  11.637   9.537
44367SOL     OW34939  14.010  12.244   5.889
44367SOL    HW134940  14.095  12.260   5.848
44367SOL    HW234941  13.958  12.322   5.868
44368SOL     OW34942   9.795  14.085   1.550
44368SOL    HW134943   9.856  14.154   1.524
44368SOL    HW234944   9.793  14.088   1.645
44369SOL     OW34945   7.321   6.889  11.899
44369SOL    HW134946   7.310   6.798  11.925
44369SOL    HW234947   7.279   6.894  11.812
44370SOL     OW34948   7.278  12.034   9.444
44370SOL    HW134949   7.190  12.017   9.476
44370SOL    HW234950   7.335  11.983   9.502
44371SOL     OW34951  10.316  11.643   2.814
44371SOL    HW134952  10.273  11.601   2.888
44371SOL    HW234953  10.244  11.684   2.765
44372SOL     OW34954   8.168   4.061  13.474
44372SOL    HW134955   8.126   4.094  13.554
44372SOL    HW234956   8.225   3.990  13.505
44373SOL     OW34957   9.209   8.683   9.948
44373SOL    HW134958   9.171   8.678  10.036
44373SOL    HW234959   9.155   8.624   9.896
44374SOL     OW34960  12.116  13.216  12.439
44374SOL    HW134961  12.131  13.147  12.374
44374SOL    HW234962  12.194  13.271  12.434
44375SOL     OW34963   2.823   9.172  10.004
44375SOL    HW134964   2.829   9.200  10.095
44375SOL    HW234965   2.756   9.104  10.004
44376SOL     OW34966   6.137   2.310   9.962
44376SOL    HW134967   6.174   2.385  10.010
44376SOL    HW234968   6.214   2.259   9.934
44377SOL     OW34969   7.757   3.851  14.125
44377SOL    HW134970   7.705   3.799  14.064
44377SOL    HW234971   7.751   3.805  14.209
44378SOL     OW34972  14.329   9.208  12.993
44378SOL    HW134973  14.234   9.197  12.994
44378SOL    HW234974  14.361   9.147  13.059
44379SOL     OW34975   4.529  12.387   3.367
44379SOL    HW134976   4.534  12.452   3.296
44379SOL    HW234977   4.437  12.385   3.392
44380SOL     OW34978  12.787   1.589   6.949
44380SOL    HW134979  12.870   1.541   6.955
44380SOL    HW234980  12.773   1.622   7.038
44381SOL     OW34981   0.465  11.734   7.468
44381SOL    HW134982   0.458  11.674   7.542
44381SOL    HW234983   0.487  11.818   7.507
44382SOL     OW34984   8.790   4.568   4.413
44382SOL    HW134985   8.785   4.638   4.347
44382SOL    HW234986   8.707   4.521   4.405
44383SOL     OW34987   9.947   2.340   4.847
44383SOL    HW134988  10.008   2.309   4.780
44383SOL    HW234989  10.000   2.391   4.908
44384SOL     OW34990   1.448  11.096   3.360
44384SOL    HW134991   1.535  11.109   3.400
44384SOL    HW234992   1.455  11.138   3.274
44385SOL     OW34993   9.545   4.225   8.366
44385SOL    HW134994   9.510   4.206   8.453
44385SOL    HW234995   9.627   4.272   8.383
44386SOL     OW34996  13.806  10.004  12.505
44386SOL    HW134997  13.749  10.080  12.516
44386SOL    HW234998  13.873  10.031  12.442
44387SOL     OW34999   3.873   3.796   9.143
44387SOL    HW135000   3.931   3.782   9.069
44387SOL    HW235001   3.923   3.766   9.219
44388SOL     OW35002  10.100   7.132   1.117
44388SOL    HW135003  10.162   7.205   1.126
44388SOL    HW235004  10.114   7.078   1.195
44389SOL     OW35005   9.575   2.304   1.143
44389SOL    HW135006   9.650   2.244   1.137
44389SOL    HW235007   9.570   2.344   1.057
44390SOL     OW35008   8.355   3.442   9.878
44390SOL    HW135009   8.384   3.362   9.834
44390SOL    HW235010   8.416   3.454   9.950
44391SOL     OW35011   6.096   1.535  14.101
44391SOL    HW135012   6.050   1.570  14.178
44391SOL    HW235013   6.183   1.574  14.106
44392SOL     OW35014   3.302   7.501   1.912
44392SOL    HW135015   3.368   7.435   1.890
44392SOL    HW235016   3.264   7.471   1.995
44393SOL     OW35017   8.195  13.010   9.930
44393SOL    HW135018   8.128  13.074   9.906
44393SOL    HW235019   8.202  12.952   9.854
44394SOL     OW35020   5.130  11.341  11.792
44394SOL    HW135021   5.034  11.340  11.787
44394SOL    HW235022   5.150  11.307  11.879
44395SOL     OW35023   0.052   9.525   2.088
44395SOL    HW135024  14.858   9.463   2.094
44395SOL    HW235025   0.129   9.470   2.077
44396SOL     OW35026   5.206   3.382   8.727
44396SOL    HW135027   5.290   3.375   8.772
44396SOL    HW235028   5.141   3.373   8.797
44397SOL     OW35029   7.835  13.023   5.653
44397SOL    HW135030   7.892  13.097   5.670
44397SOL    HW235031   7.834  12.974   5.735
44398SOL     OW35032   9.669   4.691   2.660
44398SOL    HW135033   9.574   4.697   2.650
44398SOL    HW235034   9.682   4.623   2.726
44399SOL     OW35035   5.898  13.714   3.803
44399SOL    HW135036   5.978  13.668   3.779
44399SOL    HW235037   5.837  13.696   3.732
44400SOL     OW35038   9.385  10.142  14.319
44400SOL    HW135039   9.427  10.216  14.365
44400SOL    HW235040   9.451  10.112  14.257
44401SOL     OW35041   3.899   6.499  13.351
44401SOL    HW135042   3.878   6.406  13.361
44401SOL    HW235043   3.887   6.536  13.438
44402SOL     OW35044  10.549  11.061   1.521
44402SOL    HW135045  10.495  11.138   1.504
44402SOL    HW235046  10.572  11.029   1.434
44403SOL     OW35047  11.007  13.341  11.716
44403SOL    HW135048  11.039  13.325  11.628
44403SOL    HW235049  10.967  13.428  11.712
44404SOL     OW35050  10.588   0.455   8.828
44404SOL    HW135051  10.503   0.477   8.791
44404SOL    HW235052  10.652   0.487   8.765
44405SOL     OW35053   3.292  13.841   2.854
44405SOL    HW135054   3.219  13.895   2.885
44405SOL    HW235055   3.364  13.862   2.913
44406SOL     OW35056   6.309   3.052   0.550
44406SOL    HW135057   6.362   3.128   0.524
44406SOL    HW235058   6.368   2.978   0.542
44407SOL     OW35059  10.929   5.034   0.407
44407SOL    HW135060  10.952   5.051   0.316
44407SOL    HW235061  10.871   5.105   0.432
44408SOL     OW35062   1.936   3.929  13.159
44408SOL    HW135063   2.012   3.897  13.206
44408SOL    HW235064   1.934   4.023  13.178
44409SOL     OW35065   7.371   5.308   2.104
44409SOL    HW135066   7.463   5.333   2.108
44409SOL    HW235067   7.364   5.253   2.026
44410SOL     OW35068  14.064   8.627  10.367
44410SOL    HW135069  14.032   8.712  10.335
44410SOL    HW235070  14.115   8.649  10.445
44411SOL     OW35071   1.869   7.989  12.184
44411SOL    HW135072   1.831   8.077  12.186
44411SOL    HW235073   1.813   7.940  12.124
44412SOL     OW35074  10.498   5.126   0.544
44412SOL    HW135075  10.483   5.214   0.509
44412SOL    HW235076  10.571   5.137   0.605
44413SOL     OW35077   8.836  10.623   6.615
44413SOL    HW135078   8.832  10.711   6.577
44413SOL    HW235079   8.839  10.564   6.539
44414SOL     OW35080   2.480   9.064   1.760
44414SOL    HW135081   2.558   9.114   1.738
44414SOL    HW235082   2.420   9.128   1.799
44415SOL     OW35083  13.044   4.214   9.333
44415SOL    HW135084  13.046   4.177   9.245
44415SOL    HW235085  12.951   4.234   9.348
44416SOL     OW35086  14.721  12.534   4.909
44416SOL    HW135087  14.771  12.568   4.983
44416SOL    HW235088  14.637  12.579   4.913
44417SOL     OW35089   8.039   3.200  10.761
44417SOL    HW135090   7.966   3.231  10.813
44417SOL    HW235091   8.067   3.119  10.804
44418SOL     OW35092  14.428   2.598  13.651
44418SOL    HW135093  14.334   2.611  13.650
44418SOL    HW235094  14.440   2.510  13.615
44419SOL     OW35095  11.550  10.544   0.142
44419SOL    HW135096  11.469  10.554   0.091
44419SOL    HW235097  11.618  10.528   0.076
44420SOL     OW35098   9.075   0.151   0.152
44420SOL    HW135099   9.168   0.148   0.174
44420SOL    HW235100   9.046   0.238   0.180
44421SOL     OW35101   5.805  12.390  12.133
44421SOL    HW135102   5.822  12.306  12.091
44421SOL    HW235103   5.892  12.424  12.155
44422SOL     OW35104  13.777   7.874  11.559
44422SOL    HW135105  13.716   7.897  11.629
44422SOL    HW235106  13.837   7.948  11.553
44423SOL     OW35107   3.092   3.060  14.669
44423SOL    HW135108   3.056   3.087  14.584
44423SOL    HW235109   3.120   2.970  14.655
44424SOL     OW35110  13.951   2.609  14.773
44424SOL    HW135111  14.020   2.655  14.820
44424SOL    HW235112  13.987   2.522  14.756
44425SOL     OW35113   7.684   1.417  10.107
44425SOL    HW135114   7.675   1.330  10.069
44425SOL    HW235115   7.642   1.411  10.193
44426SOL     OW35116   4.949   6.368  12.306
44426SOL    HW135117   5.037   6.356  12.272
44426SOL    HW235118   4.914   6.280  12.315
44427SOL     OW35119   1.040   8.919   7.429
44427SOL    HW135120   1.023   8.826   7.447
44427SOL    HW235121   1.032   8.961   7.514
44428SOL     OW35122   9.891   7.352   7.758
44428SOL    HW135123   9.928   7.416   7.697
44428SOL    HW235124   9.923   7.268   7.725
44429SOL     OW35125  11.438  13.084   4.324
44429SOL    HW135126  11.427  13.178   4.317
44429SOL    HW235127  11.532  13.070   4.325
44430SOL     OW35128  12.617   1.578  10.530
44430SOL    HW135129  12.601   1.487  10.503
44430SOL    HW235130  12.535   1.605  10.572
44431SOL     OW35131   4.800  12.790   4.803
44431SOL    HW135132   4.716  12.822   4.836
44431SOL    HW235133   4.817  12.710   4.853
44432SOL     OW35134   2.149   5.662   8.393
44432SOL    HW135135   2.112   5.735   8.343
44432SOL    HW235136   2.235   5.694   8.422
44433SOL     OW35137  12.847   9.833   8.253
44433SOL    HW135138  12.839   9.744   8.289
44433SOL    HW235139  12.874   9.886   8.328
44434SOL     OW35140   4.244   5.888   4.831
44434SOL    HW135141   4.239   5.961   4.770
44434SOL    HW235142   4.197   5.817   4.788
44435SOL     OW35143   4.650   5.508   6.971
44435SOL    HW135144   4.656   5.429   6.919
44435SOL    HW235145   4.676   5.578   6.912
44436SOL     OW35146   1.905   1.724  13.458
44436SOL    HW135147   1.831   1.690  13.407
44436SOL    HW235148   1.970   1.749  13.392
44437SOL     OW35149  11.141  13.397   5.774
44437SOL    HW135150  11.165  13.470   5.831
44437SOL    HW235151  11.045  13.401   5.769
44438SOL     OW35152  13.025   2.384   7.009
44438SOL    HW135153  13.055   2.334   7.085
44438SOL    HW235154  13.089   2.455   7.001
44439SOL     OW35155   3.831   5.622  12.260
44439SOL    HW135156   3.782   5.690  12.215
44439SOL    HW235157   3.910   5.667  12.291
44440SOL     OW35158  11.552   1.265  14.734
44440SOL    HW135159  11.633   1.233  14.775
44440SOL    HW235160  11.504   1.186  14.712
44441SOL     OW35161  14.643   4.067   1.464
44441SOL    HW135162  14.548   4.072   1.478
44441SOL    HW235163  14.674   4.156   1.483
44442SOL     OW35164   3.539   5.464   8.078
44442SOL    HW135165   3.494   5.409   8.013
44442SOL    HW235166   3.581   5.532   8.026
44443SOL     OW35167   6.166   2.566  10.925
44443SOL    HW135168   6.261   2.574  10.927
44443SOL    HW235169   6.136   2.651  10.894
44444SOL     OW35170   6.052   7.279   4.639
44444SOL    HW135171   6.117   7.214   4.664
44444SOL    HW235172   6.046   7.337   4.715
44445SOL     OW35173   5.254  12.695   2.738
44445SOL    HW135174   5.253  12.612   2.786
44445SOL    HW235175   5.161  12.713   2.722
44446SOL     OW35176  14.168   5.169   0.786
44446SOL    HW135177  14.089   5.127   0.820
44446SOL    HW235178  14.240   5.114   0.817
44447SOL     OW35179   6.254  13.958   4.954
44447SOL    HW135180   6.350  13.959   4.957
44447SOL    HW235181   6.229  13.889   5.016
44448SOL     OW35182  13.520   7.825   4.396
44448SOL    HW135183  13.444   7.873   4.428
44448SOL    HW235184  13.566   7.799   4.476
44449SOL     OW35185   5.614   9.553   8.845
44449SOL    HW135186   5.525   9.525   8.822
44449SOL    HW235187   5.657   9.565   8.760
44450SOL     OW35188  13.825   8.872   8.774
44450SOL    HW135189  13.856   8.824   8.852
44450SOL    HW235190  13.771   8.942   8.809
44451SOL     OW35191  11.268   4.276   2.991
44451SOL    HW135192  11.266   4.246   2.900
44451SOL    HW235193  11.217   4.357   2.990
44452SOL     OW35194   4.698  12.548  13.083
44452SOL    HW135195   4.608  12.563  13.057
44452SOL    HW235196   4.736  12.635  13.091
44453SOL     OW35197   4.190   6.610   6.605
44453SOL    HW135198   4.179   6.699   6.572
44453SOL    HW235199   4.104   6.570   6.597
44454SOL     OW35200   3.397   6.124  12.932
44454SOL    HW135201   3.323   6.131  12.992
44454SOL    HW235202   3.392   6.034  12.898
44455SOL     OW35203   8.126  10.939   8.425
44455SOL    HW135204   8.073  10.917   8.348
44455SOL    HW235205   8.076  10.906   8.499
44456SOL     OW35206   9.430   1.528   7.345
44456SOL    HW135207   9.376   1.543   7.423
44456SOL    HW235208   9.411   1.438   7.320
44457SOL     OW35209  14.827  14.547   4.068
44457SOL    HW135210  14.816  14.629   4.117
44457SOL    HW235211  14.752  14.493   4.093
44458SOL     OW35212   8.557  10.500   9.422
44458SOL    HW135213   8.623  10.455   9.369
44458SOL    HW235214   8.487  10.435   9.433
44459SOL     OW35215   5.343  10.144  12.179
44459SOL    HW135216   5.284  10.069  12.183
44459SOL    HW235217   5.429  10.108  12.200
44460SOL     OW35218   2.909  12.369   8.018
44460SOL    HW135219   2.857  12.370   8.098
44460SOL    HW235220   2.878  12.292   7.970
44461SOL     OW35221   9.908   5.265   3.290
44461SOL    HW135222   9.838   5.262   3.225
44461SOL    HW235223   9.908   5.356   3.321
44462SOL     OW35224   0.066   0.743  12.387
44462SOL    HW135225   0.095   0.660  12.425
44462SOL    HW235226   0.019   0.786  12.457
44463SOL     OW35227   1.006   6.491   8.790
44463SOL    HW135228   1.073   6.486   8.859
44463SOL    HW235229   0.940   6.550   8.825
44464SOL     OW35230   6.347   0.365   6.187
44464SOL    HW135231   6.339   0.459   6.175
44464SOL    HW235232   6.352   0.353   6.282
44465SOL     OW35233   1.818  13.154   8.797
44465SOL    HW135234   1.862  13.225   8.749
44465SOL    HW235235   1.775  13.103   8.729
44466SOL     OW35236   9.354   6.821   2.814
44466SOL    HW135237   9.338   6.727   2.811
44466SOL    HW235238   9.448   6.829   2.834
44467SOL     OW35239   8.207   9.925   3.680
44467SOL    HW135240   8.257   9.849   3.712
44467SOL    HW235241   8.157   9.891   3.606
44468SOL     OW35242  11.307  10.229  13.139
44468SOL    HW135243  11.363  10.158  13.167
44468SOL    HW235244  11.334  10.246  13.048
44469SOL     OW35245   6.131   5.271   4.465
44469SOL    HW135246   6.165   5.187   4.496
44469SOL    HW235247   6.208   5.318   4.432
44470SOL     OW35248   3.294  11.237   5.525
44470SOL    HW135249   3.335  11.282   5.451
44470SOL    HW235250   3.360  11.175   5.556
44471SOL     OW35251   3.837   5.211   1.682
44471SOL    HW135252   3.856   5.123   1.648
44471SOL    HW235253   3.811   5.261   1.604
44472SOL     OW35254  12.682  11.610  10.395
44472SOL    HW135255  12.732  11.550  10.339
44472SOL    HW235256  12.703  11.697  10.362
44473SOL     OW35257   0.494  11.577   2.020
44473SOL    HW135258   0.509  11.588   1.926
44473SOL    HW235259   0.518  11.486   2.038
44474SOL     OW35260   9.095   2.778  11.911
44474SOL    HW135261   9.181   2.812  11.936
44474SOL    HW235262   9.096   2.688  11.942
44475SOL     OW35263   9.035   6.855  13.575
44475SOL    HW135264   9.025   6.899  13.659
44475SOL    HW235265   9.127   6.865  13.553
44476SOL     OW35266   3.391  10.637   6.451
44476SOL    HW135267   3.396  10.715   6.395
44476SOL    HW235268   3.482  10.619   6.475
44477SOL     OW35269   2.283  10.656   0.757
44477SOL    HW135270   2.268  10.653   0.662
44477SOL    HW235271   2.216  10.717   0.789
44478SOL     OW35272   1.203  12.998   9.423
44478SOL    HW135273   1.197  13.004   9.327
44478SOL    HW235274   1.245  13.080   9.450
44479SOL     OW35275  12.395   4.503   7.219
44479SOL    HW135276  12.467   4.478   7.161
44479SOL    HW235277  12.367   4.421   7.260
44480SOL     OW35278   5.528  12.608   0.108
44480SOL    HW135279   5.503  12.516   0.109
44480SOL    HW235280   5.487  12.643   0.029
44481SOL     OW35281  14.877  10.013   4.573
44481SOL    HW135282  14.847   9.993   4.662
44481SOL    HW235283   0.064   9.946   4.555
44482SOL     OW35284  13.834  14.343  13.299
44482SOL    HW135285  13.917  14.362  13.256
44482SOL    HW235286  13.846  14.374  13.389
44483SOL     OW35287   1.722  11.316  11.369
44483SOL    HW135288   1.705  11.379  11.299
44483SOL    HW235289   1.700  11.231  11.332
44484SOL     OW35290  14.678  10.114  12.796
44484SOL    HW135291  14.632  10.198  12.803
44484SOL    HW235292  14.672  10.076  12.883
44485SOL     OW35293   1.075  11.590   5.811
44485SOL    HW135294   1.064  11.629   5.897
44485SOL    HW235295   1.113  11.660   5.757
44486SOL     OW35296   8.491   6.940   9.935
44486SOL    HW135297   8.485   7.036   9.935
44486SOL    HW235298   8.577   6.920   9.972
44487SOL     OW35299   6.492   6.007   4.517
44487SOL    HW135300   6.468   5.917   4.496
44487SOL    HW235301   6.419   6.060   4.484
44488SOL     OW35302   1.007   6.874   2.803
44488SOL    HW135303   0.926   6.853   2.849
44488SOL    HW235304   1.067   6.803   2.826
44489SOL     OW35305   6.012   0.021  13.111
44489SOL    HW135306   6.010   0.012  13.207
44489SOL    HW235307   6.039   0.111  13.096
44490SOL     OW35308  12.876   5.305  11.550
44490SOL    HW135309  12.940   5.243  11.586
44490SOL    HW235310  12.825   5.334  11.626
44491SOL     OW35311   5.543   4.589   2.566
44491SOL    HW135312   5.494   4.607   2.646
44491SOL    HW235313   5.568   4.496   2.574
44492SOL     OW35314   0.435   5.293   8.056
44492SOL    HW135315   0.528   5.286   8.076
44492SOL    HW235316   0.425   5.253   7.969
44493SOL     OW35317  14.564   1.027  12.731
44493SOL    HW135318  14.498   1.004  12.666
44493SOL    HW235319  14.605   1.106  12.695
44494SOL     OW35320   3.067   5.716  12.753
44494SOL    HW135321   3.107   5.789  12.707
44494SOL    HW235322   3.046   5.652  12.685
44495SOL     OW35323   2.632  11.974   2.810
44495SOL    HW135324   2.610  12.065   2.828
44495SOL    HW235325   2.564  11.944   2.750
44496SOL     OW35326   3.029   3.527  10.305
44496SOL    HW135327   3.066   3.451  10.348
44496SOL    HW235328   3.104   3.585  10.289
44497SOL     OW35329   9.821   2.559   8.322
44497SOL    HW135330   9.750   2.555   8.386
44497SOL    HW235331   9.799   2.492   8.257
44498SOL     OW35332   2.383   5.237   0.985
44498SOL    HW135333   2.471   5.223   1.018
44498SOL    HW235334   2.347   5.149   0.974
44499SOL     OW35335   4.084   4.283   3.053
44499SOL    HW135336   4.152   4.349   3.038
44499SOL    HW235337   4.127   4.200   3.032
44500SOL     OW35338   1.782   9.663  12.402
44500SOL    HW135339   1.725   9.618  12.464
44500SOL    HW235340   1.776   9.755  12.427
44501SOL     OW35341   2.785   0.736   2.820
44501SOL    HW135342   2.751   0.796   2.753
44501SOL    HW235343   2.876   0.762   2.831
44502SOL     OW35344  13.010   9.342   9.219
44502SOL    HW135345  13.080   9.327   9.283
44502SOL    HW235346  13.037   9.291   9.142
44503SOL     OW35347  10.559   6.616   9.841
44503SOL    HW135348  10.629   6.652   9.786
44503SOL    HW235349  10.533   6.535   9.797
44504SOL     OW35350   7.898  14.766   5.193
44504SOL    HW135351   7.838  14.830   5.232
44504SOL    HW235352   7.893  14.782   5.099
44505SOL     OW35353   3.400  14.299   6.010
44505SOL    HW135354   3.485  14.340   5.994
44505SOL    HW235355   3.347  14.324   5.935
44506SOL     OW35356  13.826  13.835   4.050
44506SOL    HW135357  13.859  13.808   4.136
44506SOL    HW235358  13.793  13.754   4.011
44507SOL     OW35359  13.261  11.457   2.150
44507SOL    HW135360  13.231  11.464   2.060
44507SOL    HW235361  13.230  11.538   2.192
44508SOL     OW35362   6.569   9.524  14.536
44508SOL    HW135363   6.580   9.429  14.541
44508SOL    HW235364   6.620   9.558  14.609
44509SOL     OW35365   8.896   9.486   6.236
44509SOL    HW135366   8.958   9.413   6.235
44509SOL    HW235367   8.951   9.564   6.226
44510SOL     OW35368  13.897  14.453  12.393
44510SOL    HW135369  13.898  14.521  12.326
44510SOL    HW235370  13.962  14.481  12.457
44511SOL     OW35371   4.647   4.755  13.142
44511SOL    HW135372   4.575   4.797  13.094
44511SOL    HW235373   4.608   4.678  13.183
44512SOL     OW35374   3.475  13.149   9.789
44512SOL    HW135375   3.465  13.138   9.883
44512SOL    HW235376   3.403  13.099   9.751
44513SOL     OW35377  11.115   8.463  11.995
44513SOL    HW135378  11.202   8.426  11.982
44513SOL    HW235379  11.119   8.550  11.955
44514SOL     OW35380   1.712  10.085   7.845
44514SOL    HW135381   1.713   9.990   7.856
44514SOL    HW235382   1.704  10.120   7.934
44515SOL     OW35383  13.674   0.012   9.541
44515SOL    HW135384  13.704  14.804   9.517
44515SOL    HW235385  13.754   0.062   9.555
44516SOL     OW35386   8.477   2.246   2.358
44516SOL    HW135387   8.395   2.281   2.323
44516SOL    HW235388   8.454   2.211   2.444
44517SOL     OW35389   0.231  14.143   6.634
44517SOL    HW135390   0.314  14.185   6.657
44517SOL    HW235391   0.257  14.073   6.573
44518SOL     OW35392   5.700   7.657   2.286
44518SOL    HW135393   5.720   7.731   2.228
44518SOL    HW235394   5.747   7.676   2.367
44519SOL     OW35395   7.539   3.856   0.339
44519SOL    HW135396   7.561   3.823   0.426
44519SOL    HW235397   7.616   3.837   0.286
44520SOL     OW35398   3.062   0.865   2.866
44520SOL    HW135399   3.134   0.855   2.929
44520SOL    HW235400   3.056   0.959   2.852
44521SOL     OW35401   2.342  11.708  13.380
44521SOL    HW135402   2.287  11.786  13.377
44521SOL    HW235403   2.317  11.657  13.303
44522SOL     OW35404  14.327   5.246   1.490
44522SOL    HW135405  14.349   5.201   1.572
44522SOL    HW235406  14.239   5.281   1.504
44523SOL     OW35407  12.889   7.284   5.855
44523SOL    HW135408  12.799   7.278   5.886
44523SOL    HW235409  12.892   7.233   5.775
44524SOL     OW35410   5.265  10.354   8.403
44524SOL    HW135411   5.293  10.435   8.444
44524SOL    HW235412   5.214  10.309   8.470
44525SOL     OW35413  12.353  10.793  14.598
44525SOL    HW135414  12.269  10.834  14.619
44525SOL    HW235415  12.405  10.805  14.677
44526SOL     OW35416   8.517   2.146  12.475
44526SOL    HW135417   8.581   2.186  12.416
44526SOL    HW235418   8.474   2.221  12.518
44527SOL     OW35419   4.373   0.744   2.836
44527SOL    HW135420   4.355   0.793   2.755
44527SOL    HW235421   4.428   0.671   2.808
44528SOL     OW35422  14.107   2.942   6.238
44528SOL    HW135423  14.122   2.848   6.224
44528SOL    HW235424  14.022   2.946   6.283
44529SOL     OW35425   5.739   7.150   0.625
44529SOL    HW135426   5.693   7.199   0.694
44529SOL    HW235427   5.686   7.163   0.547
44530SOL     OW35428   8.150  12.142   7.089
44530SOL    HW135429   8.140  12.233   7.062
44530SOL    HW235430   8.240  12.136   7.121
44531SOL     OW35431  11.048  12.752  12.167
44531SOL    HW135432  11.116  12.813  12.196
44531SOL    HW235433  10.967  12.801  12.178
44532SOL     OW35434   8.867   8.788   9.386
44532SOL    HW135435   8.912   8.798   9.470
44532SOL    HW235436   8.774   8.784   9.409
44533SOL     OW35437   0.491  12.816  11.294
44533SOL    HW135438   0.468  12.777  11.210
44533SOL    HW235439   0.431  12.776  11.357
44534SOL     OW35440   0.899   0.814   2.982
44534SOL    HW135441   0.875   0.734   2.936
44534SOL    HW235442   0.972   0.850   2.932
44535SOL     OW35443   0.010   6.882   0.461
44535SOL    HW135444  14.819   6.944   0.443
44535SOL    HW235445   0.045   6.908   0.547
44536SOL     OW35446   8.166   9.273  14.847
44536SOL    HW135447   8.176   9.262   0.063
44536SOL    HW235448   8.091   9.218  14.825
44537SOL     OW35449   0.256  11.637   9.947
44537SOL    HW135450   0.349  11.630   9.969
44537SOL    HW235451   0.251  11.612   9.855
44538SOL     OW35452  12.048  10.517  14.311
44538SOL    HW135453  11.955  10.539  14.300
44538SOL    HW235454  12.049  10.448  14.377
44539SOL     OW35455  11.014   7.448  11.725
44539SOL    HW135456  10.965   7.442  11.642
44539SOL    HW235457  10.984   7.529  11.765
44540SOL     OW35458  11.820   2.311  12.754
44540SOL    HW135459  11.792   2.359  12.677
44540SOL    HW235460  11.885   2.368  12.795
44541SOL     OW35461   8.322   0.022  14.508
44541SOL    HW135462   8.250  14.876  14.566
44541SOL    HW235463   8.302  14.858  14.425
44542SOL     OW35464  14.025   9.179  13.321
44542SOL    HW135465  13.972   9.258  13.334
44542SOL    HW235466  14.092   9.184  13.389
44543SOL     OW35467   0.630  14.251  11.690
44543SOL    HW135468   0.557  14.198  11.723
44543SOL    HW235469   0.653  14.309  11.763
44544SOL     OW35470   5.229   3.062   7.326
44544SOL    HW135471   5.167   2.991   7.311
44544SOL    HW235472   5.263   3.082   7.238
44545SOL     OW35473   5.620   5.929  11.549
44545SOL    HW135474   5.694   5.891  11.597
44545SOL    HW235475   5.635   5.903  11.458
44546SOL     OW35476   6.730  14.030  13.146
44546SOL    HW135477   6.824  14.014  13.144
44546SOL    HW235478   6.717  14.090  13.220
44547SOL     OW35479  14.412   6.141   9.191
44547SOL    HW135480  14.408   6.063   9.246
44547SOL    HW235481  14.335   6.192   9.217
44548SOL     OW35482  11.072   1.301   8.533
44548SOL    HW135483  11.002   1.366   8.545
44548SOL    HW235484  11.118   1.329   8.454
44549SOL     OW35485  10.958   4.164   7.266
44549SOL    HW135486  11.050   4.186   7.284
44549SOL    HW235487  10.910   4.244   7.285
44550SOL     OW35488   7.272  12.170   4.303
44550SOL    HW135489   7.212  12.221   4.358
44550SOL    HW235490   7.343  12.145   4.363
44551SOL     OW35491   5.879   4.594   9.084
44551SOL    HW135492   5.904   4.679   9.048
44551SOL    HW235493   5.962   4.555   9.111
44552SOL     OW35494  10.286   5.758  10.577
44552SOL    HW135495  10.315   5.779  10.665
44552SOL    HW235496  10.359   5.709  10.539
44553SOL     OW35497   4.681  11.764   0.532
44553SOL    HW135498   4.764  11.784   0.575
44553SOL    HW235499   4.641  11.698   0.588
44554SOL     OW35500   8.626  13.134   5.648
44554SOL    HW135501   8.676  13.073   5.703
44554SOL    HW235502   8.616  13.088   5.565
44555SOL     OW35503   4.952  10.291  13.581
44555SOL    HW135504   4.967  10.204  13.544
44555SOL    HW235505   4.884  10.329  13.526
44556SOL     OW35506   6.427   2.627   1.259
44556SOL    HW135507   6.392   2.585   1.338
44556SOL    HW235508   6.352   2.670   1.220
44557SOL     OW35509   2.363   2.153  10.290
44557SOL    HW135510   2.397   2.242  10.283
44557SOL    HW235511   2.440   2.099  10.304
44558SOL     OW35512  11.957   4.207   1.150
44558SOL    HW135513  12.044   4.231   1.180
44558SOL    HW235514  11.960   4.218   1.055
44559SOL     OW35515  14.145   8.704  12.141
44559SOL    HW135516  14.240   8.693  12.155
44559SOL    HW235517  14.138   8.739  12.052
44560SOL     OW35518   7.050  13.588  14.444
44560SOL    HW135519   6.966  13.592  14.398
44560SOL    HW235520   7.029  13.555  14.531
44561SOL     OW35521  13.361   8.156  12.731
44561SOL    HW135522  13.382   8.227  12.671
44561SOL    HW235523  13.279   8.120  12.698
44562SOL     OW35524   7.930   6.888   4.345
44562SOL    HW135525   7.885   6.949   4.403
44562SOL    HW235526   7.868   6.816   4.331
44563SOL     OW35527   9.413   9.559   6.883
44563SOL    HW135528   9.438   9.596   6.798
44563SOL    HW235529   9.455   9.617   6.947
44564SOL     OW35530   7.652   5.122  14.186
44564SOL    HW135531   7.629   5.109  14.094
44564SOL    HW235532   7.728   5.066  14.200
44565SOL     OW35533   2.470  12.389   4.988
44565SOL    HW135534   2.405  12.447   4.950
44565SOL    HW235535   2.517  12.444   5.052
44566SOL     OW35536   5.590   7.659   7.644
44566SOL    HW135537   5.655   7.591   7.661
44566SOL    HW235538   5.642   7.740   7.639
44567SOL     OW35539  12.766  11.992  13.753
44567SOL    HW135540  12.859  11.984  13.772
44567SOL    HW235541  12.759  11.970  13.660
44568SOL     OW35542   1.899   6.301   8.185
44568SOL    HW135543   1.859   6.269   8.266
44568SOL    HW235544   1.906   6.223   8.130
44569SOL     OW35545   5.388   8.278  12.667
44569SOL    HW135546   5.328   8.222  12.715
44569SOL    HW235547   5.418   8.224  12.594
44570SOL     OW35548   7.123   4.657  12.861
44570SOL    HW135549   7.159   4.650  12.773
44570SOL    HW235550   7.172   4.728  12.902
44571SOL     OW35551   8.446   9.081   7.661
44571SOL    HW135552   8.455   9.138   7.737
44571SOL    HW235553   8.535   9.074   7.626
44572SOL     OW35554   7.592  10.107  12.675
44572SOL    HW135555   7.672  10.158  12.661
44572SOL    HW235556   7.621  10.028  12.720
44573SOL     OW35557   9.812  10.948  10.072
44573SOL    HW135558   9.842  10.880  10.011
44573SOL    HW235559   9.738  10.989  10.028
44574SOL     OW35560   8.500   1.409   0.865
44574SOL    HW135561   8.499   1.361   0.782
44574SOL    HW235562   8.567   1.364   0.917
44575SOL     OW35563  14.639   4.027   4.799
44575SOL    HW135564  14.599   4.005   4.715
44575SOL    HW235565  14.565   4.032   4.860
44576SOL     OW35566   6.931   8.777   4.783
44576SOL    HW135567   6.938   8.796   4.690
44576SOL    HW235568   6.894   8.857   4.821
44577SOL     OW35569   4.747   1.652   2.408
44577SOL    HW135570   4.838   1.629   2.392
44577SOL    HW235571   4.698   1.603   2.342
44578SOL     OW35572   4.752   4.255   2.484
44578SOL    HW135573   4.663   4.223   2.498
44578SOL    HW235574   4.791   4.255   2.571
44579SOL     OW35575   6.948   9.311   4.327
44579SOL    HW135576   6.999   9.261   4.264
44579SOL    HW235577   7.011   9.334   4.396
44580SOL     OW35578   4.671  13.185   6.375
44580SOL    HW135579   4.676  13.235   6.456
44580SOL    HW235580   4.620  13.240   6.316
44581SOL     OW35581   8.037  10.850   2.143
44581SOL    HW135582   8.014  10.760   2.121
44581SOL    HW235583   7.968  10.879   2.203
44582SOL     OW35584  14.280   0.837  13.010
44582SOL    HW135585  14.281   0.933  13.010
44582SOL    HW235586  14.241   0.813  12.926
44583SOL     OW35587  13.974   7.226   9.056
44583SOL    HW135588  13.926   7.280   8.992
44583SOL    HW235589  13.923   7.146   9.063
44584SOL     OW35590   5.010   7.620  12.675
44584SOL    HW135591   5.004   7.577  12.761
44584SOL    HW235592   4.919   7.629  12.647
44585SOL     OW35593   6.547  10.289   4.487
44585SOL    HW135594   6.634  10.323   4.507
44585SOL    HW235595   6.563  10.211   4.434
44586SOL     OW35596  14.290   2.493   7.720
44586SOL    HW135597  14.268   2.400   7.719
44586SOL    HW235598  14.247   2.528   7.798
44587SOL     OW35599   5.686  11.642  11.050
44587SOL    HW135600   5.737  11.601  11.120
44587SOL    HW235601   5.751  11.662  10.982
44588SOL     OW35602   2.177   3.792  14.717
44588SOL    HW135603   2.186   3.841  14.799
44588SOL    HW235604   2.124   3.716  14.740
44589SOL     OW35605  10.331   8.556   0.087
44589SOL    HW135606  10.370   8.543   0.173
44589SOL    HW235607  10.401   8.595   0.035
44590SOL     OW35608   4.896  14.301  13.337
44590SOL    HW135609   4.893  14.284  13.243
44590SOL    HW235610   4.915  14.394  13.344
44591SOL     OW35611   4.571  11.963  11.449
44591SOL    HW135612   4.560  11.991  11.358
44591SOL    HW235613   4.665  11.954  11.461
44592SOL     OW35614   8.828  14.466   4.420
44592SOL    HW135615   8.876  14.435   4.343
44592SOL    HW235616   8.737  14.473   4.391
44593SOL     OW35617  12.709   7.966  13.758
44593SOL    HW135618  12.752   8.026  13.818
44593SOL    HW235619  12.635   8.015  13.723
44594SOL     OW35620   8.341   1.821   9.386
44594SOL    HW135621   8.356   1.912   9.413
44594SOL    HW235622   8.352   1.823   9.291
44595SOL     OW35623  11.477  12.074   9.494
44595SOL    HW135624  11.545  12.007   9.496
44595SOL    HW235625  11.397  12.028   9.519
44596SOL     OW35626   7.026   8.209  10.457
44596SOL    HW135627   7.085   8.204  10.382
44596SOL    HW235628   7.080   8.247  10.527
44597SOL     OW35629  14.729   7.646  14.731
44597SOL    HW135630  14.644   7.605  14.750
44597SOL    HW235631  14.716   7.739  14.749
44598SOL     OW35632   4.444   6.741   8.190
44598SOL    HW135633   4.369   6.757   8.133
44598SOL    HW235634   4.407   6.695   8.266
44599SOL     OW35635   4.156  12.421  14.211
44599SOL    HW135636   4.068  12.383  14.212
44599SOL    HW235637   4.141  12.514  14.190
44600SOL     OW35638   3.420   3.995  12.983
44600SOL    HW135639   3.354   3.992  12.913
44600SOL    HW235640   3.403   4.076  13.029
44601SOL     OW35641   2.882   3.012   3.203
44601SOL    HW135642   2.835   3.096   3.199
44601SOL    HW235643   2.930   3.016   3.285
44602SOL     OW35644   8.136   2.061  10.333
44602SOL    HW135645   8.137   1.972  10.298
44602SOL    HW235646   8.109   2.052  10.424
44603SOL     OW35647   8.436  14.200   9.338
44603SOL    HW135648   8.377  14.272   9.313
44603SOL    HW235649   8.469  14.166   9.255
44604SOL     OW35650   4.410   3.349   7.781
44604SOL    HW135651   4.472   3.412   7.819
44604SOL    HW235652   4.339   3.403   7.747
44605SOL     OW35653  11.536  11.228   0.530
44605SOL    HW135654  11.608  11.167   0.544
44605SOL    HW235655  11.477  11.213   0.605
44606SOL     OW35656   1.195   1.963   4.583
44606SOL    HW135657   1.106   1.992   4.561
44606SOL    HW235658   1.183   1.879   4.626
44607SOL     OW35659  14.267  10.429   2.234
44607SOL    HW135660  14.229  10.493   2.174
44607SOL    HW235661  14.218  10.440   2.316
44608SOL     OW35662   0.153  11.580   6.521
44608SOL    HW135663   0.114  11.616   6.442
44608SOL    HW235664   0.079  11.544   6.571
44609SOL     OW35665  13.755  13.155   7.550
44609SOL    HW135666  13.798  13.196   7.625
44609SOL    HW235667  13.826  13.141   7.487
44610SOL     OW35668   1.971   3.622   2.263
44610SOL    HW135669   1.996   3.714   2.254
44610SOL    HW235670   1.996   3.599   2.353
44611SOL     OW35671   5.378   2.081  13.864
44611SOL    HW135672   5.329   2.004  13.836
44611SOL    HW235673   5.314   2.134  13.912
44612SOL     OW35674   6.185   6.931  12.764
44612SOL    HW135675   6.251   7.001  12.766
44612SOL    HW235676   6.169   6.910  12.856
44613SOL     OW35677   7.587   4.010  12.966
44613SOL    HW135678   7.597   3.915  12.958
44613SOL    HW235679   7.496   4.023  12.992
44614SOL     OW35680   7.045   3.742   1.880
44614SOL    HW135681   7.028   3.705   1.967
44614SOL    HW235682   6.968   3.719   1.829
44615SOL     OW35683  13.284  13.714  13.482
44615SOL    HW135684  13.264  13.753  13.397
44615SOL    HW235685  13.243  13.772  13.545
44616SOL     OW35686  14.596  10.977   9.832
44616SOL    HW135687  14.528  10.983   9.765
44616SOL    HW235688  14.552  10.998   9.914
44617SOL     OW35689  12.131   9.170  11.326
44617SOL    HW135690  12.216   9.214  11.337
44617SOL    HW235691  12.115   9.127  11.410
44618SOL     OW35692  12.476  10.995  13.702
44618SOL    HW135693  12.406  11.003  13.766
44618SOL    HW235694  12.462  10.909  13.662
44619SOL     OW35695  14.303  14.369  12.234
44619SOL    HW135696  14.394  14.348  12.256
44619SOL    HW235697  14.307  14.454  12.192
44620SOL     OW35698  11.643   5.517  10.931
44620SOL    HW135699  11.560   5.522  10.884
44620SOL    HW235700  11.677   5.606  10.929
44621SOL     OW35701  10.814   9.472   3.034
44621SOL    HW135702  10.761   9.392   3.042
44621SOL    HW235703  10.755   9.542   3.063
44622SOL     OW35704   1.220   4.107   3.640
44622SOL    HW135705   1.207   4.171   3.710
44622SOL    HW235706   1.220   4.022   3.685
44623SOL     OW35707   8.025  13.007   5.959
44623SOL    HW135708   7.978  12.987   6.040
44623SOL    HW235709   8.064  12.923   5.933
44624SOL     OW35710  10.486   2.635   1.092
44624SOL    HW135711  10.514   2.624   1.183
44624SOL    HW235712  10.451   2.724   1.088
44625SOL     OW35713   8.696   9.575   2.927
44625SOL    HW135714   8.612   9.592   2.970
44625SOL    HW235715   8.673   9.527   2.847
44626SOL     OW35716   9.018   9.811   8.557
44626SOL    HW135717   8.998   9.814   8.650
44626SOL    HW235718   8.937   9.840   8.514
44627SOL     OW35719   8.732   0.360  14.310
44627SOL    HW135720   8.742   0.431  14.247
44627SOL    HW235721   8.821   0.341  14.339
44628SOL     OW35722   2.817   5.506  14.554
44628SOL    HW135723   2.838   5.419  14.587
44628SOL    HW235724   2.873   5.518  14.478
44629SOL     OW35725   8.976   9.076   3.077
44629SOL    HW135726   8.983   9.166   3.044
44629SOL    HW235727   9.044   9.070   3.144
44630SOL     OW35728  12.544   9.931   1.285
44630SOL    HW135729  12.638   9.938   1.302
44630SOL    HW235730  12.532   9.967   1.197
44631SOL     OW35731  13.147  14.682  12.432
44631SOL    HW135732  13.058  14.718  12.436
44631SOL    HW235733  13.192  14.735  12.367
44632SOL     OW35734   2.251  10.338   3.299
44632SOL    HW135735   2.310  10.267   3.324
44632SOL    HW235736   2.293  10.379   3.224
44633SOL     OW35737   1.416   5.227   5.595
44633SOL    HW135738   1.507   5.205   5.575
44633SOL    HW235739   1.405   5.202   5.687
44634SOL     OW35740   4.740  14.354   2.445
44634SOL    HW135741   4.763  14.397   2.527
44634SOL    HW235742   4.773  14.412   2.377
44635SOL     OW35743   5.067   5.277  11.665
44635SOL    HW135744   5.102   5.188  11.674
44635SOL    HW235745   4.996   5.281  11.729
44636SOL     OW35746  10.207  12.814   8.934
44636SOL    HW135747  10.192  12.776   8.847
44636SOL    HW235748  10.132  12.786   8.986
44637SOL     OW35749  11.445   1.451  11.270
44637SOL    HW135750  11.504   1.421  11.200
44637SOL    HW235751  11.374   1.387  11.270
44638SOL     OW35752  14.232  10.961   6.954
44638SOL    HW135753  14.283  10.940   6.875
44638SOL    HW235754  14.141  10.954   6.926
44639SOL     OW35755  13.631  12.734   5.574
44639SOL    HW135756  13.656  12.806   5.515
44639SOL    HW235757  13.557  12.769   5.623
44640SOL     OW35758   7.873   9.409   3.091
44640SOL    HW135759   7.844   9.373   3.008
44640SOL    HW235760   7.917   9.337   3.135
44641SOL     OW35761   3.051   6.879   0.522
44641SOL    HW135762   3.127   6.936   0.517
44641SOL    HW235763   3.071   6.807   0.463
44642SOL     OW35764   6.585  13.422   0.807
44642SOL    HW135765   6.614  13.331   0.816
44642SOL    HW235766   6.537  13.440   0.888
44643SOL     OW35767   2.151   2.369   3.439
44643SOL    HW135768   2.200   2.328   3.510
44643SOL    HW235769   2.088   2.426   3.483
44644SOL     OW35770   9.103   1.435   2.761
44644SOL    HW135771   9.096   1.442   2.856
44644SOL    HW235772   9.022   1.391   2.734
44645SOL     OW35773  11.526   6.638   8.105
44645SOL    HW135774  11.443   6.601   8.136
44645SOL    HW235775  11.566   6.567   8.055
44646SOL     OW35776  13.120   2.765   7.607
44646SOL    HW135777  13.055   2.828   7.577
44646SOL    HW235778  13.069   2.698   7.652
44647SOL     OW35779   8.721   1.449   8.957
44647SOL    HW135780   8.736   1.415   9.045
44647SOL    HW235781   8.642   1.503   8.965
44648SOL     OW35782   9.363   7.140   5.354
44648SOL    HW135783   9.295   7.154   5.288
44648SOL    HW235784   9.385   7.228   5.385
44649SOL     OW35785   2.690  12.616  13.318
44649SOL    HW135786   2.621  12.661  13.366
44649SOL    HW235787   2.667  12.628  13.226
44650SOL     OW35788   5.112   5.093  13.615
44650SOL    HW135789   5.100   5.001  13.594
44650SOL    HW235790   5.074   5.103  13.703
44651SOL     OW35791   7.498   3.963   9.886
44651SOL    HW135792   7.498   4.057   9.867
44651SOL    HW235793   7.522   3.922   9.803
44652SOL     OW35794   3.027   9.699   0.709
44652SOL    HW135795   3.032   9.795   0.703
44652SOL    HW235796   2.961   9.683   0.776
44653SOL     OW35797   5.604   1.127  14.708
44653SOL    HW135798   5.691   1.123  14.747
44653SOL    HW235799   5.568   1.039  14.718
44654SOL     OW35800   6.371  11.959  14.220
44654SOL    HW135801   6.377  11.976  14.126
44654SOL    HW235802   6.414  11.874  14.232
44655SOL     OW35803   0.747   2.743  12.298
44655SOL    HW135804   0.839   2.764  12.280
44655SOL    HW235805   0.697   2.803  12.242
44656SOL     OW35806  12.918   4.692   1.711
44656SOL    HW135807  12.952   4.770   1.755
44656SOL    HW235808  12.928   4.712   1.617
44657SOL     OW35809  14.167   8.240   1.756
44657SOL    HW135810  14.132   8.160   1.796
44657SOL    HW235811  14.216   8.209   1.680
44658SOL     OW35812   4.408   8.512  11.398
44658SOL    HW135813   4.432   8.597  11.360
44658SOL    HW235814   4.480   8.454  11.375
44659SOL     OW35815  12.081   9.034  10.376
44659SOL    HW135816  12.054   9.089  10.450
44659SOL    HW235817  12.091   8.946  10.414
44660SOL     OW35818   8.448   9.388   6.267
44660SOL    HW135819   8.358   9.421   6.271
44660SOL    HW235820   8.440   9.296   6.290
44661SOL     OW35821   2.136   4.998  12.726
44661SOL    HW135822   2.108   5.047  12.804
44661SOL    HW235823   2.117   4.907  12.748
44662SOL     OW35824  10.310   2.505   8.421
44662SOL    HW135825  10.287   2.597   8.430
44662SOL    HW235826  10.320   2.492   8.326
44663SOL     OW35827  14.831  13.303   6.885
44663SOL    HW135828  14.790  13.298   6.972
44663SOL    HW235829   0.039  13.268   6.898
44664SOL     OW35830  12.886  14.172   7.979
44664SOL    HW135831  12.971  14.189   8.020
44664SOL    HW235832  12.897  14.200   7.888
44665SOL     OW35833   0.358   5.986   3.219
44665SOL    HW135834   0.446   5.948   3.219
44665SOL    HW235835   0.337   5.999   3.311
44666SOL     OW35836   2.721   5.757  14.203
44666SOL    HW135837   2.742   5.828  14.265
44666SOL    HW235838   2.806   5.725  14.174
44667SOL     OW35839   5.950  11.834   4.945
44667SOL    HW135840   5.982  11.921   4.970
44667SOL    HW235841   5.953  11.783   5.025
44668SOL     OW35842   2.355   1.894   9.514
44668SOL    HW135843   2.405   1.894   9.432
44668SOL    HW235844   2.322   1.805   9.522
44669SOL     OW35845  14.157   7.786  12.005
44669SOL    HW135846  14.069   7.795  11.968
44669SOL    HW235847  14.181   7.695  11.987
44670SOL     OW35848  12.649   3.048   1.770
44670SOL    HW135849  12.577   2.985   1.778
44670SOL    HW235850  12.713   3.019   1.835
44671SOL     OW35851   2.779   0.867  13.301
44671SOL    HW135852   2.869   0.881  13.272
44671SOL    HW235853   2.773   0.774  13.320
44672SOL     OW35854  14.228   1.781   5.387
44672SOL    HW135855  14.157   1.721   5.369
44672SOL    HW235856  14.263   1.804   5.300
44673SOL     OW35857   8.564   5.522   9.418
44673SOL    HW135858   8.508   5.469   9.475
44673SOL    HW235859   8.638   5.465   9.398
44674SOL     OW35860  12.755   2.802   0.904
44674SOL    HW135861  12.742   2.767   0.992
44674SOL    HW235862  12.679   2.773   0.855
44675SOL     OW35863   5.107   8.230   4.624
44675SOL    HW135864   5.017   8.264   4.620
44675SOL    HW235865   5.147   8.258   4.542
44676SOL     OW35866  10.174  10.098   4.341
44676SOL    HW135867  10.254  10.145   4.315
44676SOL    HW235868  10.144  10.144   4.419
44677SOL     OW35869  12.543   6.586   2.957
44677SOL    HW135870  12.473   6.651   2.951
44677SOL    HW235871  12.504   6.505   2.922
44678SOL     OW35872  12.319  12.660   8.720
44678SOL    HW135873  12.260  12.729   8.690
44678SOL    HW235874  12.301  12.586   8.662
44679SOL     OW35875   3.436   3.628   9.842
44679SOL    HW135876   3.525   3.655   9.863
44679SOL    HW235877   3.385   3.708   9.847
44680SOL     OW35878   4.331   1.448  13.395
44680SOL    HW135879   4.272   1.420  13.466
44680SOL    HW235880   4.272   1.481  13.327
44681SOL     OW35881   0.849  13.952  11.063
44681SOL    HW135882   0.907  14.026  11.082
44681SOL    HW235883   0.822  13.920  11.149
44682SOL     OW35884   9.454   4.315  14.421
44682SOL    HW135885   9.460   4.403  14.458
44682SOL    HW235886   9.538   4.301  14.377
44683SOL     OW35887  14.186   8.632   3.301
44683SOL    HW135888  14.132   8.669   3.370
44683SOL    HW235889  14.148   8.665   3.220
44684SOL     OW35890   7.231   9.981   0.707
44684SOL    HW135891   7.205  10.021   0.789
44684SOL    HW235892   7.324  10.004   0.697
44685SOL     OW35893  11.700  13.797   0.421
44685SOL    HW135894  11.684  13.822   0.512
44685SOL    HW235895  11.792  13.773   0.418
44686SOL     OW35896   1.506   0.883   2.221
44686SOL    HW135897   1.538   0.893   2.310
44686SOL    HW235898   1.585   0.887   2.167
44687SOL     OW35899  10.605  10.755  14.400
44687SOL    HW135900  10.563  10.671  14.381
44687SOL    HW235901  10.652  10.741  14.482
44688SOL     OW35902   7.070  14.024   9.996
44688SOL    HW135903   7.013  13.950   9.975
44688SOL    HW235904   7.118  14.040   9.915
44689SOL     OW35905   8.110   3.819   5.679
44689SOL    HW135906   8.061   3.759   5.623
44689SOL    HW235907   8.097   3.785   5.768
44690SOL     OW35908  14.463  14.274   6.526
44690SOL    HW135909  14.526  14.236   6.588
44690SOL    HW235910  14.413  14.337   6.577
44691SOL     OW35911  13.438   0.859   9.623
44691SOL    HW135912  13.520   0.881   9.668
44691SOL    HW235913  13.463   0.856   9.530
44692SOL     OW35914  10.363  13.843  13.940
44692SOL    HW135915  10.365  13.910  13.872
44692SOL    HW235916  10.412  13.770  13.903
44693SOL     OW35917   2.247   7.318  13.740
44693SOL    HW135918   2.257   7.384  13.671
44693SOL    HW235919   2.335   7.282  13.752
44694SOL     OW35920   4.579  12.050   6.840
44694SOL    HW135921   4.594  12.135   6.880
44694SOL    HW235922   4.565  12.069   6.747
44695SOL     OW35923   6.298   0.034   6.946
44695SOL    HW135924   6.340   0.120   6.951
44695SOL    HW235925   6.209   0.052   6.914
44696SOL     OW35926   3.310   2.130   0.709
44696SOL    HW135927   3.324   2.224   0.714
44696SOL    HW235928   3.276   2.106   0.795
44697SOL     OW35929   5.258   9.302   1.927
44697SOL    HW135930   5.269   9.208   1.945
44697SOL    HW235931   5.164   9.317   1.937
44698SOL     OW35932  11.366   9.797   9.109
44698SOL    HW135933  11.322   9.717   9.080
44698SOL    HW235934  11.350   9.860   9.038
44699SOL     OW35935  14.605   2.834  13.119
44699SOL    HW135936  14.653   2.915  13.103
44699SOL    HW235937  14.653   2.768  13.069
44700SOL     OW35938   3.565  10.020   2.289
44700SOL    HW135939   3.583  10.098   2.341
44700SOL    HW235940   3.646  10.004   2.241
44701SOL     OW35941   5.934  12.033   9.782
44701SOL    HW135942   5.887  12.115   9.763
44701SOL    HW235943   5.998  12.026   9.712
44702SOL     OW35944   6.834  14.388  10.289
44702SOL    HW135945   6.761  14.450  10.286
44702SOL    HW235946   6.817  14.328  10.216
44703SOL     OW35947  10.708   2.708   8.601
44703SOL    HW135948  10.712   2.718   8.506
44703SOL    HW235949  10.616   2.693   8.621
44704SOL     OW35950   5.995   3.802  12.726
44704SOL    HW135951   6.081   3.842  12.714
44704SOL    HW235952   5.934   3.873  12.704
44705SOL     OW35953   2.062  10.286   1.397
44705SOL    HW135954   1.974  10.248   1.390
44705SOL    HW235955   2.077  10.327   1.312
44706SOL     OW35956   7.331   9.016   1.907
44706SOL    HW135957   7.328   8.922   1.888
44706SOL    HW235958   7.242   9.038   1.934
44707SOL     OW35959  11.143   1.738   0.181
44707SOL    HW135960  11.177   1.820   0.218
44707SOL    HW235961  11.218   1.700   0.135
44708SOL     OW35962   3.413   3.120   0.739
44708SOL    HW135963   3.440   3.054   0.674
44708SOL    HW235964   3.343   3.168   0.696
44709SOL     OW35965   5.478  11.719  10.515
44709SOL    HW135966   5.547  11.707  10.450
44709SOL    HW235967   5.520  11.771  10.584
44710SOL     OW35968   7.935   2.353   3.515
44710SOL    HW135969   7.978   2.295   3.578
44710SOL    HW235970   7.976   2.333   3.431
44711SOL     OW35971   7.425   2.971   9.201
44711SOL    HW135972   7.477   2.904   9.157
44711SOL    HW235973   7.390   2.928   9.279
44712SOL     OW35974   5.857  14.564   8.641
44712SOL    HW135975   5.935  14.579   8.587
44712SOL    HW235976   5.784  14.572   8.581
44713SOL     OW35977  12.539   2.652   2.025
44713SOL    HW135978  12.544   2.716   2.096
44713SOL    HW235979  12.574   2.572   2.063
44714SOL     OW35980  13.790  13.415   0.272
44714SOL    HW135981  13.840  13.494   0.292
44714SOL    HW235982  13.848  13.364   0.215
44715SOL     OW35983   8.538   5.518  13.089
44715SOL    HW135984   8.465   5.523  13.028
44715SOL    HW235985   8.564   5.609  13.104
44716SOL     OW35986   6.943   4.115   4.940
44716SOL    HW135987   7.031   4.083   4.959
44716SOL    HW235988   6.885   4.043   4.964
44717SOL     OW35989   0.546   1.152   0.203
44717SOL    HW135990   0.642   1.150   0.209
44717SOL    HW235991   0.521   1.232   0.250
44718SOL     OW35992   1.260   0.693  10.672
44718SOL    HW135993   1.251   0.788  10.669
44718SOL    HW235994   1.192   0.665  10.734
44719SOL     OW35995   4.805   0.481  12.210
44719SOL    HW135996   4.780   0.429  12.287
44719SOL    HW235997   4.809   0.571  12.242
44720SOL     OW35998   7.058   4.196  11.877
44720SOL    HW135999   7.144   4.238  11.883
44720SOL    HW236000   7.017   4.236  11.801
44721SOL     OW36001  10.591  10.049  13.064
44721SOL    HW136002  10.530  10.018  12.997
44721SOL    HW236003  10.658   9.982  13.069
44722SOL     OW36004   1.589   3.965   9.098
44722SOL    HW136005   1.575   3.931   9.186
44722SOL    HW236006   1.683   3.957   9.083
44723SOL     OW36007   2.389   5.735   9.398
44723SOL    HW136008   2.309   5.682   9.397
44723SOL    HW236009   2.368   5.810   9.342
44724SOL     OW36010   5.280   7.082   9.490
44724SOL    HW136011   5.222   7.152   9.522
44724SOL    HW236012   5.316   7.117   9.408
44725SOL     OW36013   1.815  12.971   1.324
44725SOL    HW136014   1.836  13.059   1.354
44725SOL    HW236015   1.877  12.954   1.253
44726SOL     OW36016   0.442   3.902   7.744
44726SOL    HW136017   0.425   3.958   7.820
44726SOL    HW236018   0.377   3.832   7.752
44727SOL     OW36019   3.824  11.044   8.001
44727SOL    HW136020   3.918  11.037   8.017
44727SOL    HW236021   3.810  10.991   7.922
44728SOL     OW36022   1.529   1.982  14.542
44728SOL    HW136023   1.512   1.903  14.491
44728SOL    HW236024   1.572   2.041  14.480
44729SOL     OW36025   8.843  10.064   5.290
44729SOL    HW136026   8.869  10.054   5.382
44729SOL    HW236027   8.854  10.158   5.273
44730SOL     OW36028   0.137   1.812   4.993
44730SOL    HW136029   0.185   1.755   5.052
44730SOL    HW236030   0.100   1.753   4.927
44731SOL     OW36031   2.438  13.850   8.802
44731SOL    HW136032   2.520  13.831   8.756
44731SOL    HW236033   2.466  13.892   8.884
44732SOL     OW36034  13.110   2.379   9.564
44732SOL    HW136035  13.045   2.346   9.626
44732SOL    HW236036  13.194   2.343   9.596
44733SOL     OW36037   2.643   5.483  11.664
44733SOL    HW136038   2.650   5.521  11.752
44733SOL    HW236039   2.686   5.547  11.607
44734SOL     OW36040   1.211   1.083   1.642
44734SOL    HW136041   1.117   1.066   1.641
44734SOL    HW236042   1.249   1.012   1.590
44735SOL     OW36043  11.111  14.550  14.423
44735SOL    HW136044  11.071  14.551  14.510
44735SOL    HW236045  11.143  14.640  14.410
44736SOL     OW36046   2.573   6.811   8.518
44736SOL    HW136047   2.596   6.878   8.583
44736SOL    HW236048   2.515   6.751   8.565
44737SOL     OW36049  12.113   5.514   2.012
44737SOL    HW136050  12.162   5.577   2.065
44737SOL    HW236051  12.039   5.488   2.068
44738SOL     OW36052  12.383   3.401   8.705
44738SOL    HW136053  12.383   3.323   8.760
44738SOL    HW236054  12.467   3.398   8.658
44739SOL     OW36055   8.412  11.633   6.260
44739SOL    HW136056   8.328  11.615   6.303
44739SOL    HW236057   8.478  11.604   6.323
44740SOL     OW36058  10.834  13.903   1.209
44740SOL    HW136059  10.897  13.848   1.254
44740SOL    HW236060  10.754  13.896   1.262
44741SOL     OW36061  13.136   9.447  12.599
44741SOL    HW136062  13.131   9.513  12.668
44741SOL    HW236063  13.212   9.394  12.621
44742SOL     OW36064  10.613   3.611  11.942
44742SOL    HW136065  10.616   3.536  11.883
44742SOL    HW236066  10.534   3.658  11.919
44743SOL     OW36067  11.759   3.472   7.044
44743SOL    HW136068  11.817   3.414   6.996
44743SOL    HW236069  11.816   3.516   7.108
44744SOL     OW36070   3.975   3.443   5.469
44744SOL    HW136071   3.961   3.433   5.375
44744SOL    HW236072   3.941   3.531   5.488
44745SOL     OW36073   0.980   2.578   1.584
44745SOL    HW136074   1.036   2.520   1.532
44745SOL    HW236075   0.971   2.534   1.668
44746SOL     OW36076   9.769  11.310   5.669
44746SOL    HW136077   9.760  11.396   5.628
44746SOL    HW236078   9.862  11.304   5.692
44747SOL     OW36079   7.040   2.084  10.752
44747SOL    HW136080   7.056   2.098  10.659
44747SOL    HW236081   7.122   2.046  10.784
44748SOL     OW36082  12.399   9.023  12.831
44748SOL    HW136083  12.413   9.095  12.892
44748SOL    HW236084  12.454   9.045  12.755
44749SOL     OW36085  14.222   6.083  12.042
44749SOL    HW136086  14.176   6.000  12.027
44749SOL    HW236087  14.154   6.149  12.039
44750SOL     OW36088   3.192   8.396  13.762
44750SOL    HW136089   3.205   8.406  13.857
44750SOL    HW236090   3.280   8.390  13.726
44751SOL     OW36091  11.559   5.613   9.738
44751SOL    HW136092  11.571   5.568   9.821
44751SOL    HW236093  11.465   5.603   9.719
44752SOL     OW36094  14.345   7.381   8.189
44752SOL    HW136095  14.403   7.326   8.136
44752SOL    HW236096  14.356   7.469   8.154
44753SOL     OW36097  14.310   6.958  12.023
44753SOL    HW136098  14.335   6.988  12.110
44753SOL    HW236099  14.341   6.867  12.019
44754SOL     OW36100   2.985   7.142  10.403
44754SOL    HW136101   2.899   7.105  10.380
44754SOL    HW236102   3.037   7.065  10.428
44755SOL     OW36103   2.434   6.574  12.774
44755SOL    HW136104   2.380   6.541  12.847
44755SOL    HW236105   2.385   6.649  12.741
44756SOL     OW36106   9.791  11.998   1.941
44756SOL    HW136107   9.840  12.078   1.962
44756SOL    HW236108   9.714  12.002   1.998
44757SOL     OW36109   0.806   3.788   8.533
44757SOL    HW136110   0.864   3.811   8.461
44757SOL    HW236111   0.804   3.867   8.587
44758SOL     OW36112  13.828  13.524   7.942
44758SOL    HW136113  13.819  13.437   7.982
44758SOL    HW236114  13.886  13.571   8.003
44759SOL     OW36115   5.688   2.380   4.634
44759SOL    HW136116   5.690   2.418   4.546
44759SOL    HW236117   5.609   2.416   4.674
44760SOL     OW36118   5.423   5.103  10.232
44760SOL    HW136119   5.461   5.144  10.155
44760SOL    HW236120   5.495   5.098  10.295
44761SOL     OW36121  10.620   8.891   4.221
44761SOL    HW136122  10.532   8.895   4.185
44761SOL    HW236123  10.652   8.982   4.217
44762SOL     OW36124   9.263   3.333  14.767
44762SOL    HW136125   9.332   3.390  14.802
44762SOL    HW236126   9.216   3.388  14.704
44763SOL     OW36127   1.156   4.028   1.497
44763SOL    HW136128   1.251   4.026   1.500
44763SOL    HW236129   1.129   4.031   1.589
44764SOL     OW36130   4.694   0.483   7.598
44764SOL    HW136131   4.604   0.467   7.571
44764SOL    HW236132   4.733   0.533   7.526
44765SOL     OW36133  12.118   6.920   1.184
44765SOL    HW136134  12.077   6.835   1.198
44765SOL    HW236135  12.211   6.904   1.204
44766SOL     OW36136  14.871   6.657  13.607
44766SOL    HW136137   0.078   6.699  13.606
44766SOL    HW236138  14.809   6.730  13.601
44767SOL     OW36139  10.825  12.492   9.154
44767SOL    HW136140  10.809  12.561   9.089
44767SOL    HW236141  10.738  12.456   9.172
44768SOL     OW36142   0.085  13.563   6.326
44768SOL    HW136143   0.010  13.601   6.373
44768SOL    HW236144   0.158  13.573   6.387
44769SOL     OW36145  13.159   9.325   8.354
44769SOL    HW136146  13.103   9.313   8.431
44769SOL    HW236147  13.221   9.394   8.380
44770SOL     OW36148   1.612   3.188  13.803
44770SOL    HW136149   1.658   3.271  13.790
44770SOL    HW236150   1.639   3.158  13.890
44771SOL     OW36151   9.742   4.481   6.576
44771SOL    HW136152   9.660   4.483   6.624
44771SOL    HW236153   9.780   4.567   6.591
44772SOL     OW36154   3.186  11.491  13.994
44772SOL    HW136155   3.209  11.423  14.057
44772SOL    HW236156   3.213  11.573  14.036
44773SOL     OW36157   5.678  11.620   8.228
44773SOL    HW136158   5.670  11.606   8.322
44773SOL    HW236159   5.720  11.706   8.220
44774SOL     OW36160   6.430   7.539   7.024
44774SOL    HW136161   6.444   7.573   7.112
44774SOL    HW236162   6.474   7.602   6.966
44775SOL     OW36163   6.474  14.755  11.121
44775SOL    HW136164   6.410  14.827  11.121
44775SOL    HW236165   6.486  14.734  11.214
44776SOL     OW36166  13.810   2.793   1.641
44776SOL    HW136167  13.834   2.740   1.564
44776SOL    HW236168  13.719   2.769   1.658
44777SOL     OW36169  11.809   6.426   1.906
44777SOL    HW136170  11.838   6.440   1.996
44777SOL    HW236171  11.718   6.458   1.904
44778SOL     OW36172   1.937   9.489   6.886
44778SOL    HW136173   1.942   9.488   6.981
44778SOL    HW236174   1.971   9.575   6.861
44779SOL     OW36175   2.804  13.912   4.305
44779SOL    HW136176   2.875  13.970   4.278
44779SOL    HW236177   2.745  13.967   4.356
44780SOL     OW36178   6.157   1.578   8.779
44780SOL    HW136179   6.108   1.661   8.774
44780SOL    HW236180   6.160   1.547   8.689
44781SOL     OW36181  11.074   5.720   5.673
44781SOL    HW136182  11.086   5.813   5.654
44781SOL    HW236183  11.124   5.705   5.753
44782SOL     OW36184   1.260  11.567   7.711
44782SOL    HW136185   1.170  11.587   7.735
44782SOL    HW236186   1.312  11.593   7.787
44783SOL     OW36187   8.251   8.140   4.115
44783SOL    HW136188   8.299   8.061   4.136
44783SOL    HW236189   8.318   8.209   4.112
44784SOL     OW36190  13.288  12.738   5.546
44784SOL    HW136191  13.302  12.652   5.585
44784SOL    HW236192  13.331  12.799   5.606
44785SOL     OW36193  11.045  13.428   9.119
44785SOL    HW136194  11.119  13.394   9.070
44785SOL    HW236195  11.080  13.447   9.206
44786SOL     OW36196  10.121   9.626   4.722
44786SOL    HW136197  10.048   9.676   4.686
44786SOL    HW236198  10.156   9.577   4.647
44787SOL     OW36199   3.069   7.461  13.879
44787SOL    HW136200   3.159   7.492  13.892
44787SOL    HW236201   3.023   7.486  13.959
44788SOL     OW36202   2.940   5.329   2.935
44788SOL    HW136203   3.029   5.294   2.948
44788SOL    HW236204   2.888   5.284   3.002
44789SOL     OW36205   2.316   2.571   1.274
44789SOL    HW136206   2.254   2.574   1.347
44789SOL    HW236207   2.386   2.631   1.300
44790SOL     OW36208   2.165   1.573   8.597
44790SOL    HW136209   2.215   1.646   8.634
44790SOL    HW236210   2.073   1.597   8.613
44791SOL     OW36211   6.313  12.910   9.250
44791SOL    HW136212   6.386  12.851   9.231
44791SOL    HW236213   6.260  12.909   9.171
44792SOL     OW36214   4.057  11.935   0.821
44792SOL    HW136215   4.044  11.861   0.762
44792SOL    HW236216   3.988  11.926   0.887
44793SOL     OW36217   9.809  13.540   5.687
44793SOL    HW136218   9.792  13.549   5.593
44793SOL    HW236219   9.818  13.446   5.701
44794SOL     OW36220   2.592   0.294   0.541
44794SOL    HW136221   2.601   0.213   0.591
44794SOL    HW236222   2.601   0.268   0.450
44795SOL     OW36223   7.455   5.876   2.375
44795SOL    HW136224   7.447   5.812   2.446
44795SOL    HW236225   7.370   5.919   2.372
44796SOL     OW36226  11.070   4.979   8.100
44796SOL    HW136227  11.029   4.918   8.039
44796SOL    HW236228  11.148   5.011   8.054
44797SOL     OW36229  13.103  13.423   1.359
44797SOL    HW136230  13.119  13.409   1.266
44797SOL    HW236231  13.153  13.502   1.381
44798SOL     OW36232   3.957   4.301   8.969
44798SOL    HW136233   4.007   4.286   9.049
44798SOL    HW236234   3.888   4.235   8.971
44799SOL     OW36235  10.804   5.169  14.319
44799SOL    HW136236  10.878   5.124  14.279
44799SOL    HW236237  10.840   5.251  14.352
44800SOL     OW36238   8.531   4.249  14.426
44800SOL    HW136239   8.487   4.283  14.347
44800SOL    HW236240   8.624   4.265  14.410
44801SOL     OW36241   5.920   8.684   8.180
44801SOL    HW136242   5.887   8.770   8.206
44801SOL    HW236243   5.841   8.636   8.153
44802SOL     OW36244  14.141  13.297   6.463
44802SOL    HW136245  14.071  13.325   6.522
44802SOL    HW236246  14.169  13.212   6.498
44803SOL     OW36247   4.736   8.303   5.810
44803SOL    HW136248   4.774   8.257   5.735
44803SOL    HW236249   4.689   8.377   5.771
44804SOL     OW36250   3.113  14.182   9.615
44804SOL    HW136251   3.032  14.202   9.567
44804SOL    HW236252   3.119  14.250   9.681
44805SOL     OW36253   5.750  13.667   6.518
44805SOL    HW136254   5.657  13.671   6.496
44805SOL    HW236255   5.768  13.574   6.528
44806SOL     OW36256   7.543   6.509   8.122
44806SOL    HW136257   7.514   6.424   8.088
44806SOL    HW236258   7.637   6.512   8.105
44807SOL     OW36259  13.322   3.865  12.075
44807SOL    HW136260  13.260   3.808  12.030
44807SOL    HW236261  13.290   3.871  12.165
44808SOL     OW36262   8.814  14.020   6.275
44808SOL    HW136263   8.879  14.058   6.334
44808SOL    HW236264   8.850  13.935   6.251
44809SOL     OW36265  14.307  14.387   0.485
44809SOL    HW136266  14.214  14.407   0.477
44809SOL    HW236267  14.338  14.381   0.394
44810SOL     OW36268   5.967  14.193   1.572
44810SOL    HW136269   6.041  14.136   1.553
44810SOL    HW236270   5.926  14.208   1.487
44811SOL     OW36271   7.063   7.730  12.011
44811SOL    HW136272   7.143   7.700  12.056
44811SOL    HW236273   7.085   7.726  11.918
44812SOL     OW36274   1.046  13.213  12.041
44812SOL    HW136275   0.955  13.241  12.052
44812SOL    HW236276   1.048  13.174  11.953
44813SOL     OW36277   9.406  10.038   4.660
44813SOL    HW136278   9.326  10.090   4.647
44813SOL    HW236279   9.378   9.948   4.643
44814SOL     OW36280   4.894  12.544  11.710
44814SOL    HW136281   4.863  12.535  11.619
44814SOL    HW236282   4.836  12.486  11.760
44815SOL     OW36283   1.099  13.584  13.888
44815SOL    HW136284   1.058  13.648  13.830
44815SOL    HW236285   1.104  13.627  13.973
44816SOL     OW36286   1.419   0.992   5.036
44816SOL    HW136287   1.417   1.042   4.954
44816SOL    HW236288   1.448   0.904   5.010
44817SOL     OW36289   0.936   8.635   1.875
44817SOL    HW136290   0.890   8.604   1.797
44817SOL    HW236291   0.881   8.705   1.909
44818SOL     OW36292   5.721  12.520  13.500
44818SOL    HW136293   5.681  12.491  13.582
44818SOL    HW236294   5.815  12.506  13.513
44819SOL     OW36295   7.442   1.756   6.369
44819SOL    HW136296   7.510   1.790   6.311
44819SOL    HW236297   7.485   1.746   6.453
44820SOL     OW36298   4.583   4.764   4.354
44820SOL    HW136299   4.625   4.681   4.374
44820SOL    HW236300   4.489   4.748   4.365
44821SOL     OW36301   5.090  14.317  10.280
44821SOL    HW136302   5.076  14.360  10.195
44821SOL    HW236303   5.020  14.251  10.285
44822SOL     OW36304   8.628  10.840   2.154
44822SOL    HW136305   8.704  10.782   2.157
44822SOL    HW236306   8.589  10.824   2.068
44823SOL     OW36307   4.681   7.764   6.835
44823SOL    HW136308   4.760   7.775   6.782
44823SOL    HW236309   4.712   7.775   6.925
44824SOL     OW36310   5.526   2.054   8.928
44824SOL    HW136311   5.573   2.025   8.849
44824SOL    HW236312   5.556   1.995   8.997
44825SOL     OW36313   2.456   9.020  13.131
44825SOL    HW136314   2.397   8.957  13.172
44825SOL    HW236315   2.507   8.968  13.069
44826SOL     OW36316   9.388  14.187   6.869
44826SOL    HW136317   9.472  14.150   6.841
44826SOL    HW236318   9.339  14.113   6.904
44827SOL     OW36319   5.644   8.001   2.507
44827SOL    HW136320   5.571   8.002   2.445
44827SOL    HW236321   5.632   7.920   2.557
44828SOL     OW36322   2.700  13.074   9.319
44828SOL    HW136323   2.701  13.164   9.352
44828SOL    HW236324   2.612  13.064   9.283
44829SOL     OW36325  12.317   5.219  12.809
44829SOL    HW136326  12.393   5.272  12.831
44829SOL    HW236327  12.324   5.142  12.867
44830SOL     OW36328   1.921  11.984  10.398
44830SOL    HW136329   1.919  12.067  10.350
44830SOL    HW236330   1.951  11.920  10.333
44831SOL     OW36331   6.597   1.121   8.579
44831SOL    HW136332   6.545   1.157   8.651
44831SOL    HW236333   6.677   1.173   8.578
44832SOL     OW36334   9.801   3.910   6.960
44832SOL    HW136335   9.778   3.817   6.956
44832SOL    HW236336   9.748   3.951   6.892
44833SOL     OW36337   4.861   6.200   6.680
44833SOL    HW136338   4.845   6.290   6.652
44833SOL    HW236339   4.802   6.187   6.755
44834SOL     OW36340  10.119   8.238   3.747
44834SOL    HW136341  10.163   8.320   3.769
44834SOL    HW236342  10.032   8.245   3.786
44835SOL     OW36343  12.061   3.330   7.787
44835SOL    HW136344  12.039   3.393   7.718
44835SOL    HW236345  12.037   3.245   7.750
44836SOL     OW36346   4.823   3.455   7.894
44836SOL    HW136347   4.918   3.457   7.882
44836SOL    HW236348   4.787   3.461   7.805
44837SOL     OW36349   0.359  12.497  10.448
44837SOL    HW136350   0.427  12.511  10.513
44837SOL    HW236351   0.285  12.551  10.477
44838SOL     OW36352   5.904   3.795   3.020
44838SOL    HW136353   5.809   3.803   3.015
44838SOL    HW236354   5.920   3.702   3.036
44839SOL     OW36355   0.603   2.185   0.786
44839SOL    HW136356   0.568   2.112   0.734
44839SOL    HW236357   0.526   2.239   0.805
44840SOL     OW36358   6.883   6.910   9.886
44840SOL    HW136359   6.924   6.826   9.904
44840SOL    HW236360   6.841   6.934   9.969
44841SOL     OW36361   8.021   8.506   8.429
44841SOL    HW136362   8.006   8.420   8.392
44841SOL    HW236363   7.962   8.564   8.382
44842SOL     OW36364   7.399   7.609   5.254
44842SOL    HW136365   7.369   7.698   5.234
44842SOL    HW236366   7.323   7.568   5.295
44843SOL     OW36367   2.461   3.988  12.963
44843SOL    HW136368   2.550   3.988  13.000
44843SOL    HW236369   2.451   3.901  12.926
44844SOL     OW36370   8.989   6.028  10.973
44844SOL    HW136371   8.965   6.018  11.065
44844SOL    HW236372   8.907   6.051  10.929
44845SOL     OW36373   4.176  13.217   9.695
44845SOL    HW136374   4.157  13.147   9.758
44845SOL    HW236375   4.146  13.297   9.739
44846SOL     OW36376   7.020   4.558   0.702
44846SOL    HW136377   7.024   4.479   0.648
44846SOL    HW236378   7.108   4.594   0.699
44847SOL     OW36379  12.065  13.190  14.874
44847SOL    HW136380  12.158  13.193   0.018
44847SOL    HW236381  12.064  13.187  14.778
44848SOL     OW36382   0.130  10.613  10.581
44848SOL    HW136383   0.067  10.676  10.615
44848SOL    HW236384   0.161  10.651  10.499
44849SOL     OW36385  13.375   5.855   8.683
44849SOL    HW136386  13.357   5.935   8.634
44849SOL    HW236387  13.315   5.790   8.647
44850SOL     OW36388   9.241   5.082   7.034
44850SOL    HW136389   9.198   5.009   6.989
44850SOL    HW236390   9.294   5.124   6.966
44851SOL     OW36391   7.408   3.034  13.433
44851SOL    HW136392   7.489   3.048  13.383
44851SOL    HW236393   7.437   3.028  13.524
44852SOL     OW36394  12.398   8.321  11.919
44852SOL    HW136395  12.378   8.250  11.857
44852SOL    HW236396  12.345   8.301  11.996
44853SOL     OW36397   4.691   5.031   8.025
44853SOL    HW136398   4.604   4.995   8.010
44853SOL    HW236399   4.745   4.956   8.051
44854SOL     OW36400   2.752  13.430  11.230
44854SOL    HW136401   2.740  13.515  11.274
44854SOL    HW236402   2.828  13.443  11.174
44855SOL     OW36403   7.479  12.049   2.535
44855SOL    HW136404   7.527  11.966   2.530
44855SOL    HW236405   7.547  12.116   2.538
44856SOL     OW36406   2.717  13.833   7.184
44856SOL    HW136407   2.700  13.845   7.277
44856SOL    HW236408   2.780  13.760   7.181
44857SOL     OW36409   5.456   0.178  14.448
44857SOL    HW136410   5.371   0.207  14.414
44857SOL    HW236411   5.475   0.237  14.521
44858SOL     OW36412   7.432  13.059   3.309
44858SOL    HW136413   7.487  12.999   3.259
44858SOL    HW236414   7.343  13.025   3.299
44859SOL     OW36415   5.633   9.760  10.175
44859SOL    HW136416   5.728   9.771  10.178
44859SOL    HW236417   5.619   9.690  10.111
44860SOL     OW36418  14.144   3.632   1.417
44860SOL    HW136419  14.071   3.682   1.379
44860SOL    HW236420  14.216   3.643   1.355
44861SOL     OW36421   8.865  13.127   1.750
44861SOL    HW136422   8.899  13.183   1.820
44861SOL    HW236423   8.940  13.112   1.693
44862SOL     OW36424   1.441   7.255   0.563
44862SOL    HW136425   1.522   7.260   0.512
44862SOL    HW236426   1.459   7.187   0.629
44863SOL     OW36427   6.595  14.428   5.033
44863SOL    HW136428   6.613  14.449   4.942
44863SOL    HW236429   6.506  14.392   5.033
44864SOL     OW36430   6.970   7.049  11.626
44864SOL    HW136431   7.006   6.983  11.686
44864SOL    HW236432   6.881   7.018  11.606
44865SOL     OW36433   6.622  11.061  12.334
44865SOL    HW136434   6.645  11.068  12.427
44865SOL    HW236435   6.706  11.055  12.289
44866SOL     OW36436  11.411  14.870  12.525
44866SOL    HW136437  11.449   0.011  12.612
44866SOL    HW236438  11.465  14.799  12.492
44867SOL     OW36439   9.083  11.439   3.313
44867SOL    HW136440   9.091  11.470   3.223
44867SOL    HW236441   9.144  11.493   3.363
44868SOL     OW36442   8.383  13.303  13.113
44868SOL    HW136443   8.419  13.257  13.189
44868SOL    HW236444   8.291  13.278  13.111
44869SOL     OW36445  13.722   1.200   6.722
44869SOL    HW136446  13.764   1.223   6.639
44869SOL    HW236447  13.745   1.108   6.735
44870SOL     OW36448   5.585   5.315   9.127
44870SOL    HW136449   5.651   5.333   9.060
44870SOL    HW236450   5.545   5.400   9.145
44871SOL     OW36451   0.653   0.302   4.613
44871SOL    HW136452   0.627   0.360   4.541
44871SOL    HW236453   0.576   0.250   4.631
44872SOL     OW36454   3.693   0.406   0.482
44872SOL    HW136455   3.598   0.396   0.480
44872SOL    HW236456   3.724   0.350   0.411
44873SOL     OW36457   2.696   6.361   1.832
44873SOL    HW136458   2.601   6.370   1.842
44873SOL    HW236459   2.708   6.334   1.740
44874SOL     OW36460   7.550   4.915  13.651
44874SOL    HW136461   7.537   4.824  13.679
44874SOL    HW236462   7.464   4.956  13.662
44875SOL     OW36463   5.940   5.854  11.955
44875SOL    HW136464   5.956   5.768  11.917
44875SOL    HW236465   5.976   5.849  12.044
44876SOL     OW36466   8.550   0.574   3.186
44876SOL    HW136467   8.523   0.666   3.191
44876SOL    HW236468   8.586   0.555   3.273
44877SOL     OW36469   5.114  11.172   1.825
44877SOL    HW136470   5.209  11.164   1.837
44877SOL    HW236471   5.104  11.213   1.739
44878SOL     OW36472   7.287   1.439   0.587
44878SOL    HW136473   7.194   1.422   0.599
44878SOL    HW236474   7.291   1.507   0.520
44879SOL     OW36475   3.984   0.438  13.022
44879SOL    HW136476   3.989   0.385  13.101
44879SOL    HW236477   3.949   0.522  13.052
44880SOL     OW36478   6.662  12.220   7.907
44880SOL    HW136479   6.658  12.253   7.818
44880SOL    HW236480   6.683  12.127   7.897
44881SOL     OW36481  10.373   1.999  14.393
44881SOL    HW136482  10.357   1.992  14.299
44881SOL    HW236483  10.353   2.090  14.414
44882SOL     OW36484   8.990   0.031  11.752
44882SOL    HW136485   9.012   0.064  11.840
44882SOL    HW236486   8.913  14.855  11.765
44883SOL     OW36487  14.609  10.506   3.907
44883SOL    HW136488  14.614  10.526   4.001
44883SOL    HW236489  14.518  10.481   3.893
44884SOL     OW36490   8.692   6.338   9.147
44884SOL    HW136491   8.761   6.395   9.180
44884SOL    HW236492   8.678   6.368   9.057
44885SOL     OW36493  11.947  13.162   3.956
44885SOL    HW136494  11.919  13.074   3.932
44885SOL    HW236495  11.931  13.215   3.878
44886SOL     OW36496   0.937  14.469   7.912
44886SOL    HW136497   0.892  14.410   7.972
44886SOL    HW236498   0.919  14.556   7.946
44887SOL     OW36499   3.185   2.803  12.788
44887SOL    HW136500   3.097   2.776  12.817
44887SOL    HW236501   3.169   2.874  12.726
44888SOL     OW36502   8.342   2.642  14.546
44888SOL    HW136503   8.340   2.703  14.620
44888SOL    HW236504   8.411   2.676  14.489
44889SOL     OW36505   0.282   0.572  14.348
44889SOL    HW136506   0.229   0.587  14.426
44889SOL    HW236507   0.305   0.479  14.353
44890SOL     OW36508   4.646   1.460  10.375
44890SOL    HW136509   4.740   1.474  10.364
44890SOL    HW236510   4.606   1.501  10.298
44891SOL     OW36511   9.928   4.224   5.499
44891SOL    HW136512   9.869   4.156   5.533
44891SOL    HW236513   9.916   4.298   5.559
44892SOL     OW36514   3.386  11.925  10.556
44892SOL    HW136515   3.362  11.837  10.528
44892SOL    HW236516   3.460  11.911  10.615
44893SOL     OW36517   8.691   9.569   8.317
44893SOL    HW136518   8.608   9.570   8.364
44893SOL    HW236519   8.744   9.502   8.361
44894SOL     OW36520  11.439  14.238   5.231
44894SOL    HW136521  11.508  14.189   5.275
44894SOL    HW236522  11.384  14.171   5.191
44895SOL     OW36523   7.336   1.071   8.879
44895SOL    HW136524   7.430   1.057   8.873
44895SOL    HW236525   7.324   1.163   8.855
44896SOL     OW36526  12.170   6.864   2.635
44896SOL    HW136527  12.102   6.798   2.622
44896SOL    HW236528  12.141   6.914   2.712
44897SOL     OW36529   4.839   1.020   0.944
44897SOL    HW136530   4.898   1.015   1.019
44897SOL    HW236531   4.897   1.014   0.868
44898SOL     OW36532   0.150   9.072   9.994
44898SOL    HW136533   0.159   9.099  10.085
44898SOL    HW236534   0.072   9.120   9.963
44899SOL     OW36535   3.867  11.193   4.189
44899SOL    HW136536   3.930  11.156   4.127
44899SOL    HW236537   3.836  11.273   4.148
44900SOL     OW36538   5.262   4.902   1.235
44900SOL    HW136539   5.276   4.846   1.312
44900SOL    HW236540   5.338   4.961   1.235
44901SOL     OW36541  11.668   9.095  11.857
44901SOL    HW136542  11.576   9.101  11.832
44901SOL    HW236543  11.673   9.016  11.911
44902SOL     OW36544   3.329   8.146   0.606
44902SOL    HW136545   3.300   8.128   0.516
44902SOL    HW236546   3.261   8.106   0.661
44903SOL     OW36547   9.538  13.915  10.711
44903SOL    HW136548   9.519  13.830  10.671
44903SOL    HW236549   9.595  13.894  10.784
44904SOL     OW36550   7.605   2.414  13.248
44904SOL    HW136551   7.575   2.466  13.174
44904SOL    HW236552   7.526   2.395  13.298
44905SOL     OW36553  12.047  11.383   6.701
44905SOL    HW136554  12.077  11.433   6.625
44905SOL    HW236555  11.984  11.320   6.666
44906SOL     OW36556  13.720  10.169   1.845
44906SOL    HW136557  13.712  10.167   1.940
44906SOL    HW236558  13.701  10.260   1.821
44907SOL     OW36559  10.347   7.246   5.490
44907SOL    HW136560  10.297   7.180   5.443
44907SOL    HW236561  10.404   7.285   5.424
44908SOL     OW36562   6.936  12.785  13.251
44908SOL    HW136563   6.999  12.842  13.295
44908SOL    HW236564   6.982  12.755  13.172
44909SOL     OW36565   5.413   6.662   9.383
44909SOL    HW136566   5.347   6.717   9.426
44909SOL    HW236567   5.363   6.588   9.348
44910SOL     OW36568  12.922  10.930   8.092
44910SOL    HW136569  12.973  10.852   8.112
44910SOL    HW236570  12.920  10.980   8.173
44911SOL     OW36571   4.317  12.981   6.751
44911SOL    HW136572   4.265  12.963   6.829
44911SOL    HW236573   4.405  12.951   6.773
44912SOL     OW36574   8.142   2.708  11.438
44912SOL    HW136575   8.161   2.772  11.368
44912SOL    HW236576   8.197   2.633  11.416
44913SOL     OW36577  14.322   9.857   8.917
44913SOL    HW136578  14.332   9.776   8.868
44913SOL    HW236579  14.391   9.854   8.984
44914SOL     OW36580  11.702  10.565   0.786
44914SOL    HW136581  11.693  10.553   0.692
44914SOL    HW236582  11.706  10.476   0.822
44915SOL     OW36583   7.513  10.437   8.278
44915SOL    HW136584   7.470  10.374   8.220
44915SOL    HW236585   7.607  10.423   8.264
44916SOL     OW36586   2.743   4.717   6.358
44916SOL    HW136587   2.697   4.746   6.279
44916SOL    HW236588   2.833   4.750   6.346
44917SOL     OW36589  13.682  10.015   1.532
44917SOL    HW136590  13.740   9.940   1.545
44917SOL    HW236591  13.604   9.995   1.583
44918SOL     OW36592  12.280   6.003   3.864
44918SOL    HW136593  12.304   6.092   3.890
44918SOL    HW236594  12.216   6.015   3.794
44919SOL     OW36595   7.753   5.364   7.346
44919SOL    HW136596   7.748   5.276   7.383
44919SOL    HW236597   7.825   5.360   7.283
44920SOL     OW36598   4.554  10.997  13.362
44920SOL    HW136599   4.568  11.000  13.267
44920SOL    HW236600   4.470  11.043  13.375
44921SOL     OW36601  14.200   9.594   1.920
44921SOL    HW136602  14.140   9.668   1.908
44921SOL    HW236603  14.209   9.586   2.015
44922SOL     OW36604  11.217   6.618   7.838
44922SOL    HW136605  11.124   6.603   7.851
44922SOL    HW236606  11.241   6.682   7.905
44923SOL     OW36607  13.512   3.816  12.924
44923SOL    HW136608  13.446   3.882  12.944
44923SOL    HW236609  13.591   3.866  12.907
44924SOL     OW36610   5.103   0.774   1.758
44924SOL    HW136611   5.154   0.698   1.730
44924SOL    HW236612   5.132   0.790   1.848
44925SOL     OW36613  13.202  12.488   8.566
44925SOL    HW136614  13.240  12.412   8.523
44925SOL    HW236615  13.187  12.460   8.656
44926SOL     OW36616   4.164   3.878   1.287
44926SOL    HW136617   4.146   3.959   1.240
44926SOL    HW236618   4.082   3.829   1.283
44927SOL     OW36619   0.499   8.241   7.035
44927SOL    HW136620   0.410   8.253   7.068
44927SOL    HW236621   0.531   8.163   7.082
44928SOL     OW36622   1.154  12.868  12.615
44928SOL    HW136623   1.219  12.817  12.567
44928SOL    HW236624   1.124  12.934  12.553
44929SOL     OW36625  12.332   4.371   6.163
44929SOL    HW136626  12.306   4.340   6.077
44929SOL    HW236627  12.344   4.291   6.215
44930SOL     OW36628  12.180  13.809  12.909
44930SOL    HW136629  12.192  13.726  12.954
44930SOL    HW236630  12.088  13.832  12.926
44931SOL     OW36631   2.510   8.929   1.334
44931SOL    HW136632   2.443   8.997   1.328
44931SOL    HW236633   2.469   8.852   1.294
44932SOL     OW36634   0.533   5.327   1.971
44932SOL    HW136635   0.471   5.267   1.930
44932SOL    HW236636   0.568   5.378   1.899
44933SOL     OW36637  10.332   4.544   7.820
44933SOL    HW136638  10.299   4.625   7.859
44933SOL    HW236639  10.262   4.480   7.834
44934SOL     OW36640  11.499   4.090   8.005
44934SOL    HW136641  11.561   4.147   8.051
44934SOL    HW236642  11.418   4.140   8.003
44935SOL     OW36643   7.030   7.465   2.137
44935SOL    HW136644   7.105   7.515   2.105
44935SOL    HW236645   6.997   7.419   2.060
44936SOL     OW36646   6.124  12.131  14.783
44936SOL    HW136647   6.110  12.127  14.877
44936SOL    HW236648   6.218  12.116  14.771
44937SOL     OW36649   8.772   2.437   0.485
44937SOL    HW136650   8.727   2.359   0.516
44937SOL    HW236651   8.784   2.422   0.391
44938SOL     OW36652   7.706   5.383   2.279
44938SOL    HW136653   7.696   5.328   2.201
44938SOL    HW236654   7.782   5.346   2.324
44939SOL     OW36655   7.283   0.466  12.510
44939SOL    HW136656   7.289   0.375  12.481
44939SOL    HW236657   7.209   0.467  12.571
44940SOL     OW36658   3.802  14.289   6.236
44940SOL    HW136659   3.835  14.204   6.207
44940SOL    HW236660   3.847  14.352   6.181
44941SOL     OW36661  13.291   3.469   4.204
44941SOL    HW136662  13.262   3.379   4.214
44941SOL    HW236663  13.247   3.500   4.125
44942SOL     OW36664  10.471   9.061  13.477
44942SOL    HW136665  10.530   9.102  13.542
44942SOL    HW236666  10.502   9.094  13.393
44943SOL     OW36667   4.503  10.942   4.323
44943SOL    HW136668   4.596  10.919   4.311
44943SOL    HW236669   4.486  10.920   4.415
44944SOL     OW36670   3.822   0.699   7.655
44944SOL    HW136671   3.857   0.625   7.604
44944SOL    HW236672   3.863   0.690   7.741
44945SOL     OW36673   4.289  14.565   3.266
44945SOL    HW136674   4.378  14.533   3.281
44945SOL    HW236675   4.239  14.486   3.244
44946SOL     OW36676   5.301  10.578  13.907
44946SOL    HW136677   5.225  10.533  13.871
44946SOL    HW236678   5.295  10.565  14.002
44947SOL     OW36679   2.790   7.899   0.262
44947SOL    HW136680   2.745   7.923   0.342
44947SOL    HW236681   2.753   7.956   0.195
44948SOL     OW36682  13.986   8.429   5.909
44948SOL    HW136683  13.945   8.387   5.833
44948SOL    HW236684  13.979   8.523   5.891
44949SOL     OW36685   7.448   7.538   9.726
44949SOL    HW136686   7.395   7.610   9.760
44949SOL    HW236687   7.385   7.481   9.681
44950SOL     OW36688   4.708   5.116  11.958
44950SOL    HW136689   4.715   5.101  12.053
44950SOL    HW236690   4.614   5.109  11.941
44951SOL     OW36691   1.720   9.585   3.140
44951SOL    HW136692   1.748   9.542   3.060
44951SOL    HW236693   1.798   9.631   3.172
44952SOL     OW36694   6.757   9.006   3.382
44952SOL    HW136695   6.684   9.052   3.341
44952SOL    HW236696   6.799   9.072   3.438
44953SOL     OW36697  10.357   6.055  14.399
44953SOL    HW136698  10.386   6.123  14.460
44953SOL    HW236699  10.417   5.982  14.415
44954SOL     OW36700  13.344  11.146  12.338
44954SOL    HW136701  13.367  11.233  12.305
44954SOL    HW236702  13.262  11.125  12.294
44955SOL     OW36703   1.703  12.454   9.014
44955SOL    HW136704   1.704  12.445   9.109
44955SOL    HW236705   1.794  12.443   8.987
44956SOL     OW36706   7.268   4.877  14.244
44956SOL    HW136707   7.187   4.922  14.270
44956SOL    HW236708   7.312   4.939  14.187
44957SOL     OW36709  12.118   8.790   2.547
44957SOL    HW136710  12.167   8.855   2.597
44957SOL    HW236711  12.132   8.813   2.455
44958SOL     OW36712   8.366   5.641   8.693
44958SOL    HW136713   8.393   5.550   8.681
44958SOL    HW236714   8.317   5.662   8.614
44959SOL     OW36715   7.922   4.947  10.167
44959SOL    HW136716   7.901   4.936  10.260
44959SOL    HW236717   7.879   4.873  10.124
44960SOL     OW36718   4.668  11.804   7.084
44960SOL    HW136719   4.616  11.868   7.133
44960SOL    HW236720   4.722  11.858   7.026
44961SOL     OW36721   1.481   9.715   3.160
44961SOL    HW136722   1.427   9.686   3.087
44961SOL    HW236723   1.554   9.653   3.163
44962SOL     OW36724  10.021   8.727   6.623
44962SOL    HW136725  10.008   8.745   6.530
44962SOL    HW236726   9.968   8.793   6.668
44963SOL     OW36727   0.110   8.640   9.780
44963SOL    HW136728   0.174   8.711   9.777
44963SOL    HW236729   0.152   8.568   9.734
44964SOL     OW36730  12.484   3.927  12.040
44964SOL    HW136731  12.493   3.842  12.083
44964SOL    HW236732  12.469   3.906  11.947
44965SOL     OW36733  14.855  14.504   1.718
44965SOL    HW136734  14.847  14.549   1.803
44965SOL    HW236735   0.042  14.555   1.671
44966SOL     OW36736   2.269   8.654   5.604
44966SOL    HW136737   2.289   8.676   5.695
44966SOL    HW236738   2.190   8.600   5.609
44967SOL     OW36739   6.409   8.321   3.456
44967SOL    HW136740   6.358   8.294   3.379
44967SOL    HW236741   6.485   8.262   3.455
44968SOL     OW36742   7.632   9.630  11.021
44968SOL    HW136743   7.571   9.704  11.030
44968SOL    HW236744   7.628   9.606  10.928
44969SOL     OW36745  14.710   2.244   2.243
44969SOL    HW136746  14.758   2.188   2.182
44969SOL    HW236747  14.652   2.184   2.290
44970SOL     OW36748  13.421   0.956  11.026
44970SOL    HW136749  13.428   0.889  10.957
44970SOL    HW236750  13.397   0.907  11.104
44971SOL     OW36751   9.617   6.458  14.208
44971SOL    HW136752   9.679   6.388  14.187
44971SOL    HW236753   9.669   6.522  14.257
44972SOL     OW36754   0.006   9.734   9.133
44972SOL    HW136755  14.793   9.757   9.120
44972SOL    HW236756   0.047   9.752   9.049
44973SOL     OW36757   6.039   3.810   3.679
44973SOL    HW136758   6.096   3.734   3.662
44973SOL    HW236759   6.069   3.844   3.763
44974SOL     OW36760   2.469  11.820   6.731
44974SOL    HW136761   2.449  11.912   6.712
44974SOL    HW236762   2.526  11.823   6.807
44975SOL     OW36763   7.732  10.275  11.224
44975SOL    HW136764   7.810  10.227  11.198
44975SOL    HW236765   7.717  10.338  11.154
44976SOL     OW36766   4.168   9.436   6.667
44976SOL    HW136767   4.087   9.413   6.712
44976SOL    HW236768   4.143   9.447   6.575
44977SOL     OW36769   2.659   4.826   8.819
44977SOL    HW136770   2.642   4.869   8.903
44977SOL    HW236771   2.572   4.798   8.789
44978SOL     OW36772   1.541   4.442   6.225
44978SOL    HW136773   1.471   4.379   6.237
44978SOL    HW236774   1.580   4.418   6.140
44979SOL     OW36775  12.292  10.421   9.292
44979SOL    HW136776  12.301  10.329   9.269
44979SOL    HW236777  12.294  10.467   9.208
44980SOL     OW36778   3.563   8.396  12.194
44980SOL    HW136779   3.471   8.422  12.193
44980SOL    HW236780   3.584   8.379  12.102
44981SOL     OW36781  11.686  11.774  13.568
44981SOL    HW136782  11.635  11.803  13.493
44981SOL    HW236783  11.648  11.690  13.592
44982SOL     OW36784   3.451   4.175   8.503
44982SOL    HW136785   3.428   4.239   8.571
44982SOL    HW236786   3.501   4.225   8.440
44983SOL     OW36787   7.762   6.722   5.501
44983SOL    HW136788   7.765   6.808   5.458
44983SOL    HW236789   7.679   6.722   5.549
44984SOL     OW36790   3.637   9.659   4.104
44984SOL    HW136791   3.688   9.585   4.069
44984SOL    HW236792   3.612   9.630   4.192
44985SOL     OW36793  11.756   4.705   6.278
44985SOL    HW136794  11.850   4.710   6.297
44985SOL    HW236795  11.735   4.789   6.238
44986SOL     OW36796   0.536  10.171   5.769
44986SOL    HW136797   0.553  10.078   5.759
44986SOL    HW236798   0.574  10.211   5.691
44987SOL     OW36799  10.212  14.453  14.332
44987SOL    HW136800  10.289  14.454  14.390
44987SOL    HW236801  10.148  14.509  14.376
44988SOL     OW36802   7.986   7.188   7.297
44988SOL    HW136803   7.926   7.135   7.244
44988SOL    HW236804   7.952   7.180   7.386
44989SOL     OW36805   3.090  10.053   0.780
44989SOL    HW136806   3.101   9.990   0.851
44989SOL    HW236807   3.010  10.027   0.736
44990SOL     OW36808   6.876  14.769   4.194
44990SOL    HW136809   6.792  14.729   4.171
44990SOL    HW236810   6.923  14.700   4.241
44991SOL     OW36811  12.844   6.500   9.743
44991SOL    HW136812  12.906   6.567   9.772
44991SOL    HW236813  12.780   6.549   9.690
44992SOL     OW36814   6.624   4.280  10.948
44992SOL    HW136815   6.594   4.242  10.865
44992SOL    HW236816   6.708   4.237  10.965
44993SOL     OW36817   2.848   0.478   2.436
44993SOL    HW136818   2.754   0.469   2.451
44993SOL    HW236819   2.855   0.548   2.371
44994SOL     OW36820   8.436   8.381   2.960
44994SOL    HW136821   8.495   8.341   2.897
44994SOL    HW236822   8.492   8.403   3.035
44995SOL     OW36823   0.710  14.040   2.500
44995SOL    HW136824   0.676  13.956   2.531
44995SOL    HW236825   0.797  14.046   2.537
44996SOL     OW36826  10.509   5.210   4.627
44996SOL    HW136827  10.479   5.151   4.696
44996SOL    HW236828  10.479   5.170   4.546
44997SOL     OW36829   2.400   1.934   1.962
44997SOL    HW136830   2.320   1.987   1.951
44997SOL    HW236831   2.457   1.988   2.016
44998SOL     OW36832  12.054  12.601  10.867
44998SOL    HW136833  12.117  12.575  10.934
44998SOL    HW236834  11.973  12.554  10.889
44999SOL     OW36835   2.590   6.707   9.755
44999SOL    HW136836   2.601   6.790   9.708
44999SOL    HW236837   2.527   6.659   9.702
45000SOL     OW36838   0.581   3.622   1.654
45000SOL    HW136839   0.562   3.640   1.562
45000SOL    HW236840   0.533   3.689   1.702
45001SOL     OW36841   8.143   9.705   3.129
45001SOL    HW136842   8.086   9.771   3.170
45001SOL    HW236843   8.111   9.698   3.040
45002SOL     OW36844   9.763   8.686  13.091
45002SOL    HW136845   9.818   8.631  13.147
45002SOL    HW236846   9.821   8.755  13.060
45003SOL     OW36847   2.253   5.960   3.122
45003SOL    HW136848   2.159   5.978   3.132
45003SOL    HW236849   2.296   6.039   3.154
45004SOL     OW36850   0.804   1.650  13.885
45004SOL    HW136851   0.885   1.637  13.835
45004SOL    HW236852   0.742   1.686  13.822
45005SOL     OW36853   6.698   1.373   8.231
45005SOL    HW136854   6.673   1.303   8.171
45005SOL    HW236855   6.765   1.422   8.184
45006SOL     OW36856   3.423   0.051  13.659
45006SOL    HW136857   3.361   0.026  13.590
45006SOL    HW236858   3.508   0.053  13.614
45007SOL     OW36859  13.951   6.813   0.591
45007SOL    HW136860  13.895   6.840   0.663
45007SOL    HW236861  13.930   6.721   0.577
45008SOL     OW36862   1.237   4.711  14.056
45008SOL    HW136863   1.154   4.758  14.056
45008SOL    HW236864   1.255   4.694  13.964
45009SOL     OW36865   7.089   4.390  12.234
45009SOL    HW136866   7.000   4.372  12.265
45009SOL    HW236867   7.081   4.390  12.139
45010SOL     OW36868   0.348   8.232   0.596
45010SOL    HW136869   0.286   8.242   0.524
45010SOL    HW236870   0.417   8.176   0.560
45011SOL     OW36871   2.954  14.495   0.942
45011SOL    HW136872   2.906  14.414   0.958
45011SOL    HW236873   3.046  14.471   0.950
45012SOL     OW36874   5.491  14.389   9.724
45012SOL    HW136875   5.539  14.410   9.643
45012SOL    HW236876   5.476  14.473   9.765
45013SOL     OW36877  10.279  14.092  10.638
45013SOL    HW136878  10.269  14.179  10.677
45013SOL    HW236879  10.199  14.046  10.661
45014SOL     OW36880   4.304   2.885  13.384
45014SOL    HW136881   4.280   2.916  13.296
45014SOL    HW236882   4.256   2.942  13.444
45015SOL     OW36883   0.815   4.495  11.914
45015SOL    HW136884   0.725   4.497  11.945
45015SOL    HW236885   0.810   4.524  11.822
45016SOL     OW36886  12.428   7.110   7.352
45016SOL    HW136887  12.507   7.147   7.312
45016SOL    HW236888  12.452   7.021   7.377
45017SOL     OW36889   1.436   2.928   8.203
45017SOL    HW136890   1.489   3.003   8.231
45017SOL    HW236891   1.457   2.916   8.111
45018SOL     OW36892  12.268  14.639   8.404
45018SOL    HW136893  12.307  14.613   8.320
45018SOL    HW236894  12.185  14.679   8.380
45019SOL     OW36895   7.336   7.266  10.400
45019SOL    HW136896   7.267   7.321  10.365
45019SOL    HW236897   7.292   7.184  10.425
45020SOL     OW36898   0.619   8.519   4.692
45020SOL    HW136899   0.660   8.454   4.635
45020SOL    HW236900   0.618   8.599   4.640
45021SOL     OW36901   5.706   6.985  12.239
45021SOL    HW136902   5.711   6.985  12.334
45021SOL    HW236903   5.796   7.001  12.210
45022SOL     OW36904   1.177   9.652   7.563
45022SOL    HW136905   1.172   9.569   7.516
45022SOL    HW236906   1.207   9.715   7.497
45023SOL     OW36907  14.020   4.963   7.076
45023SOL    HW136908  14.043   4.905   7.004
45023SOL    HW236909  14.053   4.918   7.154
45024SOL     OW36910   5.208   9.035  13.010
45024SOL    HW136911   5.189   9.074  12.925
45024SOL    HW236912   5.164   9.093  13.073
45025SOL     OW36913   3.323   4.725   3.196
45025SOL    HW136914   3.367   4.669   3.260
45025SOL    HW236915   3.264   4.666   3.149
45026SOL     OW36916  11.560   5.100   4.622
45026SOL    HW136917  11.554   5.185   4.579
45026SOL    HW236918  11.519   5.114   4.708
45027SOL     OW36919   9.950   8.835  13.966
45027SOL    HW136920   9.916   8.866  13.882
45027SOL    HW236921  10.029   8.787  13.944
45028SOL     OW36922  12.859   0.636   5.149
45028SOL    HW136923  12.950   0.645   5.178
45028SOL    HW236924  12.854   0.692   5.072
45029SOL     OW36925   8.448  11.918  14.473
45029SOL    HW136926   8.363  11.955  14.496
45029SOL    HW236927   8.429  11.828  14.448
45030SOL     OW36928   6.373  13.380   1.581
45030SOL    HW136929   6.454  13.349   1.541
45030SOL    HW236930   6.343  13.450   1.523
45031SOL     OW36931  11.417  12.084   5.526
45031SOL    HW136932  11.426  12.053   5.436
45031SOL    HW236933  11.322  12.092   5.539
45032SOL     OW36934   6.185   0.493   9.180
45032SOL    HW136935   6.160   0.568   9.126
45032SOL    HW236936   6.138   0.419   9.140
45033SOL     OW36937  10.440   1.719   5.889
45033SOL    HW136938  10.392   1.795   5.922
45033SOL    HW236939  10.455   1.664   5.966
45034SOL     OW36940   9.703   1.914   4.619
45034SOL    HW136941   9.745   1.884   4.538
45034SOL    HW236942   9.638   1.847   4.638
45035SOL     OW36943   5.967  10.436  13.884
45035SOL    HW136944   5.940  10.381  13.810
45035SOL    HW236945   5.894  10.433  13.945
45036SOL     OW36946   4.562  14.515   6.825
45036SOL    HW136947   4.514  14.579   6.773
45036SOL    HW236948   4.506  14.438   6.827
45037SOL     OW36949   8.616   9.033   9.816
45037SOL    HW136950   8.692   9.054   9.762
45037SOL    HW236951   8.651   8.984   9.890
45038SOL     OW36952  10.589   7.388   1.089
45038SOL    HW136953  10.622   7.391   0.999
45038SOL    HW236954  10.538   7.469   1.098
45039SOL     OW36955  11.679   0.302  14.271
45039SOL    HW136956  11.641   0.319  14.184
45039SOL    HW236957  11.771   0.284  14.254
45040SOL     OW36958   6.941   6.008   4.471
45040SOL    HW136959   6.877   6.077   4.487
45040SOL    HW236960   7.026   6.052   4.481
45041SOL     OW36961   8.223   6.395   4.564
45041SOL    HW136962   8.248   6.470   4.511
45041SOL    HW236963   8.297   6.335   4.557
45042SOL     OW36964   5.032  14.161   9.843
45042SOL    HW136965   4.950  14.144   9.797
45042SOL    HW236966   5.092  14.192   9.775
45043SOL     OW36967   3.274   3.581   0.998
45043SOL    HW136968   3.246   3.592   0.907
45043SOL    HW236969   3.368   3.599   0.996
45044SOL     OW36970  14.267   4.062   0.420
45044SOL    HW136971  14.275   3.967   0.431
45044SOL    HW236972  14.178   4.083   0.450
45045SOL     OW36973   9.764   2.483   3.348
45045SOL    HW136974   9.724   2.541   3.283
45045SOL    HW236975   9.717   2.503   3.430
45046SOL     OW36976   5.162  13.550   3.261
45046SOL    HW136977   5.103  13.530   3.188
45046SOL    HW236978   5.110  13.606   3.319
45047SOL     OW36979   2.612  12.061   6.425
45047SOL    HW136980   2.696  12.032   6.463
45047SOL    HW236981   2.548  12.046   6.494
45048SOL     OW36982   4.212   5.325   4.146
45048SOL    HW136983   4.267   5.401   4.166
45048SOL    HW236984   4.123   5.354   4.168
45049SOL     OW36985   0.352   1.182   8.612
45049SOL    HW136986   0.351   1.278   8.613
45049SOL    HW236987   0.275   1.158   8.665
45050SOL     OW36988   8.641   7.508   9.252
45050SOL    HW136989   8.706   7.483   9.317
45050SOL    HW236990   8.577   7.437   9.253
45051SOL     OW36991   2.570   8.218   4.569
45051SOL    HW136992   2.492   8.274   4.568
45051SOL    HW236993   2.633   8.265   4.624
45052SOL     OW36994   8.709  13.433  12.043
45052SOL    HW136995   8.634  13.471  11.998
45052SOL    HW236996   8.688  13.340  12.049
45053SOL     OW36997   2.854   1.611   0.979
45053SOL    HW136998   2.771   1.563   0.980
45053SOL    HW236999   2.881   1.611   0.887
45054SOL     OW37000   2.728   2.174  12.740
45054SOL    HW137001   2.805   2.147  12.790
45054SOL    HW237002   2.755   2.256  12.698
45055SOL     OW37003   8.523   3.985   1.089
45055SOL    HW137004   8.438   3.969   1.129
45055SOL    HW237005   8.505   4.048   1.019
45056SOL     OW37006  11.425   2.214   6.339
45056SOL    HW137007  11.496   2.278   6.333
45056SOL    HW237008  11.457   2.137   6.291
45057SOL     OW37009   0.446  12.817  10.812
45057SOL    HW137010   0.537  12.813  10.841
45057SOL    HW237011   0.439  12.751  10.744
45058SOL     OW37012   4.475  12.367   5.823
45058SOL    HW137013   4.492  12.352   5.730
45058SOL    HW237014   4.530  12.303   5.868
45059SOL     OW37015   0.827   4.571   2.327
45059SOL    HW137016   0.911   4.537   2.357
45059SOL    HW237017   0.829   4.664   2.351
45060SOL     OW37018   0.776   5.517   7.468
45060SOL    HW137019   0.735   5.593   7.509
45060SOL    HW237020   0.847   5.493   7.528
45061SOL     OW37021   4.159  11.770   2.516
45061SOL    HW137022   4.115  11.840   2.564
45061SOL    HW237023   4.228  11.815   2.466
45062SOL     OW37024   5.089  13.669  11.067
45062SOL    HW137025   5.133  13.674  11.152
45062SOL    HW237026   5.014  13.612  11.082
45063SOL     OW37027   4.982  12.874   3.939
45063SOL    HW137028   4.932  12.802   3.901
45063SOL    HW237029   4.923  12.950   3.934
45064SOL     OW37030   5.162   4.128   5.264
45064SOL    HW137031   5.214   4.053   5.234
45064SOL    HW237032   5.071   4.101   5.251
45065SOL     OW37033   6.737   8.062  12.725
45065SOL    HW137034   6.803   8.018  12.778
45065SOL    HW237035   6.664   8.076  12.785
45066SOL     OW37036   3.731   0.125  10.533
45066SOL    HW137037   3.741   0.032  10.554
45066SOL    HW237038   3.740   0.129  10.438
45067SOL     OW37039   5.292  11.781   0.303
45067SOL    HW137040   5.273  11.854   0.362
45067SOL    HW237041   5.363  11.813   0.248
45068SOL     OW37042  10.556  14.109   2.340
45068SOL    HW137043  10.540  14.192   2.384
45068SOL    HW237044  10.652  14.099   2.342
45069SOL     OW37045   0.288   5.279  12.512
45069SOL    HW137046   0.198   5.309  12.521
45069SOL    HW237047   0.322   5.325  12.435
45070SOL     OW37048   8.117   5.669   8.071
45070SOL    HW137049   8.038   5.683   8.123
45070SOL    HW237050   8.085   5.642   7.985
45071SOL     OW37051   5.773   6.594   2.036
45071SOL    HW137052   5.862   6.600   2.069
45071SOL    HW237053   5.779   6.629   1.947
45072SOL     OW37054  13.920   2.724   8.899
45072SOL    HW137055  13.877   2.697   8.981
45072SOL    HW237056  13.866   2.686   8.830
45073SOL     OW37057  13.709   4.530   1.732
45073SOL    HW137058  13.750   4.444   1.739
45073SOL    HW237059  13.735   4.575   1.813
45074SOL     OW37060   7.386  14.235   1.143
45074SOL    HW137061   7.478  14.211   1.139
45074SOL    HW237062   7.377  14.309   1.084
45075SOL     OW37063   9.511   9.632   2.765
45075SOL    HW137064   9.447   9.701   2.783
45075SOL    HW237065   9.555   9.618   2.849
45076SOL     OW37066  12.011  11.356  13.859
45076SOL    HW137067  12.103  11.369  13.838
45076SOL    HW237068  11.996  11.410  13.936
45077SOL     OW37069  10.333  14.604   6.592
45077SOL    HW137070  10.427  14.593   6.603
45077SOL    HW237071  10.325  14.664   6.518
45078SOL     OW37072   0.126  12.068   1.672
45078SOL    HW137073   0.166  12.102   1.591
45078SOL    HW237074   0.032  12.079   1.659
45079SOL     OW37075   6.022  13.215   8.114
45079SOL    HW137076   5.991  13.305   8.125
45079SOL    HW237077   6.095  13.208   8.176
45080SOL     OW37078   6.083   4.918   0.456
45080SOL    HW137079   6.019   4.974   0.499
45080SOL    HW237080   6.132   4.978   0.399
45081SOL     OW37081   5.774   8.948  10.654
45081SOL    HW137082   5.705   8.881  10.656
45081SOL    HW237083   5.815   8.939  10.568
45082SOL     OW37084   1.505  12.581  11.519
45082SOL    HW137085   1.571  12.568  11.451
45082SOL    HW237086   1.447  12.505  11.513
45083SOL     OW37087  14.086   6.684   1.959
45083SOL    HW137088  14.055   6.765   1.918
45083SOL    HW237089  14.065   6.615   1.896
45084SOL     OW37090   0.615   8.936   8.837
45084SOL    HW137091   0.607   9.001   8.767
45084SOL    HW237092   0.532   8.890   8.838
45085SOL     OW37093   8.426   2.127   4.611
45085SOL    HW137094   8.450   2.148   4.701
45085SOL    HW237095   8.459   2.201   4.560
45086SOL     OW37096  12.903   4.762  14.158
45086SOL    HW137097  12.984   4.712  14.173
45086SOL    HW237098  12.852   4.749  14.238
45087SOL     OW37099   2.199  12.981  13.304
45087SOL    HW137100   2.226  13.046  13.369
45087SOL    HW237101   2.267  12.986  13.236
45088SOL     OW37102  14.613   9.735  10.176
45088SOL    HW137103  14.597   9.764  10.266
45088SOL    HW237104  14.708   9.724  10.171
45089SOL     OW37105   7.487  10.722   6.284
45089SOL    HW137106   7.533  10.651   6.239
45089SOL    HW237107   7.396  10.715   6.252
45090SOL     OW37108   6.232   4.093   0.105
45090SOL    HW137109   6.197   4.027   0.164
45090SOL    HW237110   6.309   4.127   0.150
45091SOL     OW37111  10.408   9.998  14.389
45091SOL    HW137112  10.454   9.914  14.387
45091SOL    HW237113  10.358   9.995  14.471
45092SOL     OW37114   5.742  11.823  13.771
45092SOL    HW137115   5.742  11.919  13.774
45092SOL    HW237116   5.689  11.801  13.694
45093SOL     OW37117   9.901   7.937   5.183
45093SOL    HW137118   9.829   7.998   5.193
45093SOL    HW237119   9.866   7.869   5.124
45094SOL     OW37120   5.526  13.831  13.199
45094SOL    HW137121   5.466  13.791  13.136
45094SOL    HW237122   5.531  13.769  13.271
45095SOL     OW37123  13.168   4.760   0.035
45095SOL    HW137124  13.076   4.733   0.040
45095SOL    HW237125  13.218   4.682   0.059
45096SOL     OW37126  12.132   4.877   9.139
45096SOL    HW137127  12.211   4.926   9.116
45096SOL    HW237128  12.072   4.893   9.066
45097SOL     OW37129  10.586   5.154   0.136
45097SOL    HW137130  10.562   5.090   0.069
45097SOL    HW237131  10.540   5.234   0.111
45098SOL     OW37132   1.404  10.550   6.545
45098SOL    HW137133   1.308  10.549   6.546
45098SOL    HW237134   1.427  10.643   6.546
45099SOL     OW37135   4.355   6.479   0.532
45099SOL    HW137136   4.398   6.553   0.575
45099SOL    HW237137   4.299   6.441   0.599
45100SOL     OW37138   6.344   7.099  13.056
45100SOL    HW137139   6.396   7.179  13.052
45100SOL    HW237140   6.397   7.033  13.011
45101SOL     OW37141   1.867   7.853   4.000
45101SOL    HW137142   1.884   7.901   4.081
45101SOL    HW237143   1.847   7.921   3.936
45102SOL     OW37144  13.781  14.766   7.795
45102SOL    HW137145  13.831  14.732   7.721
45102SOL    HW237146  13.846  14.815   7.846
45103SOL     OW37147   5.456   0.533  12.676
45103SOL    HW137148   5.526   0.596  12.696
45103SOL    HW237149   5.426   0.503  12.762
45104SOL     OW37150   6.450   8.315  10.761
45104SOL    HW137151   6.504   8.359  10.827
45104SOL    HW237152   6.373   8.372  10.752
45105SOL     OW37153   0.136  11.484   1.525
45105SOL    HW137154   0.147  11.431   1.604
45105SOL    HW237155   0.162  11.572   1.552
45106SOL     OW37156   4.213   3.541   8.570
45106SOL    HW137157   4.282   3.558   8.505
45106SOL    HW237158   4.246   3.465   8.619
45107SOL     OW37159   6.065  13.427   0.877
45107SOL    HW137160   6.098  13.367   0.944
45107SOL    HW237161   5.976  13.398   0.860
45108SOL     OW37162   5.495   7.796  14.724
45108SOL    HW137163   5.456   7.715  14.757
45108SOL    HW237164   5.525   7.841  14.803
45109SOL     OW37165   3.818   9.392   4.947
45109SOL    HW137166   3.897   9.345   4.973
45109SOL    HW237167   3.756   9.323   4.922
45110SOL     OW37168   3.154   2.608   5.151
45110SOL    HW137169   3.229   2.626   5.208
45110SOL    HW237170   3.158   2.513   5.136
45111SOL     OW37171   7.720   6.594   4.563
45111SOL    HW137172   7.687   6.649   4.492
45111SOL    HW237173   7.739   6.510   4.521
45112SOL     OW37174   1.642   6.728  14.854
45112SOL    HW137175   1.682   6.723  14.767
45112SOL    HW237176   1.592   6.809  14.854
45113SOL     OW37177   1.417  14.341  10.507
45113SOL    HW137178   1.395  14.280  10.437
45113SOL    HW237179   1.430  14.287  10.584
45114SOL     OW37180   5.757   2.454   5.887
45114SOL    HW137181   5.682   2.499   5.849
45114SOL    HW237182   5.764   2.373   5.837
45115SOL     OW37183  13.971   1.600   4.476
45115SOL    HW137184  13.903   1.607   4.544
45115SOL    HW237185  14.035   1.539   4.514
45116SOL     OW37186   8.193   4.141   8.946
45116SOL    HW137187   8.225   4.073   8.887
45116SOL    HW237188   8.098   4.130   8.947
45117SOL     OW37189   0.419   6.349   7.669
45117SOL    HW137190   0.392   6.361   7.578
45117SOL    HW237191   0.514   6.358   7.668
45118SOL     OW37192  10.697   2.687  10.862
45118SOL    HW137193  10.675   2.703  10.953
45118SOL    HW237194  10.634   2.739  10.812
45119SOL     OW37195   0.116  12.672  10.438
45119SOL    HW137196   0.070  12.729  10.499
45119SOL    HW237197   0.047  12.627  10.389
45120SOL     OW37198   0.136  10.207  13.876
45120SOL    HW137199   0.105  10.117  13.886
45120SOL    HW237200   0.207  10.215  13.940
45121SOL     OW37201   9.979   8.425   3.234
45121SOL    HW137202   9.941   8.434   3.322
45121SOL    HW237203   9.931   8.353   3.194
45122SOL     OW37204   2.454   7.629   2.752
45122SOL    HW137205   2.460   7.550   2.804
45122SOL    HW237206   2.523   7.686   2.786
45123SOL     OW37207  13.786   7.316   7.552
45123SOL    HW137208  13.822   7.325   7.640
45123SOL    HW237209  13.708   7.371   7.553
45124SOL     OW37210  11.996  10.995  13.021
45124SOL    HW137211  11.936  11.035  13.084
45124SOL    HW237212  11.963  11.023  12.936
45125SOL     OW37213   1.379   5.525   2.845
45125SOL    HW137214   1.386   5.606   2.795
45125SOL    HW237215   1.399   5.456   2.781
45126SOL     OW37216  11.775   2.598   3.719
45126SOL    HW137217  11.763   2.680   3.767
45126SOL    HW237218  11.845   2.617   3.657
45127SOL     OW37219  14.049  11.292   8.465
45127SOL    HW137220  13.966  11.340   8.469
45127SOL    HW237221  14.101  11.340   8.401
45128SOL     OW37222   8.161  13.828  13.424
45128SOL    HW137223   8.083  13.849  13.475
45128SOL    HW237224   8.214  13.907  13.427
45129SOL     OW37225  12.048   0.518   0.255
45129SOL    HW137226  11.988   0.566   0.312
45129SOL    HW237227  12.073   0.441   0.307
45130SOL     OW37228   6.196   7.611  12.027
45130SOL    HW137229   6.244   7.556  11.965
45130SOL    HW237230   6.263   7.666  12.067
45131SOL     OW37231   6.438  10.486  10.837
45131SOL    HW137232   6.421  10.556  10.899
45131SOL    HW237233   6.511  10.437  10.875
45132SOL     OW37234   8.093   8.164   9.566
45132SOL    HW137235   8.037   8.122   9.501
45132SOL    HW237236   8.168   8.197   9.516
45133SOL     OW37237   1.627   6.545  13.368
45133SOL    HW137238   1.577   6.479  13.321
45133SOL    HW237239   1.571   6.569  13.442
45134SOL     OW37240   3.609   3.533   4.221
45134SOL    HW137241   3.658   3.614   4.207
45134SOL    HW237242   3.571   3.513   4.135
45135SOL     OW37243   6.282   0.292  13.145
45135SOL    HW137244   6.192   0.279  13.114
45135SOL    HW237245   6.275   0.354  13.217
45136SOL     OW37246  12.610   7.124   4.419
45136SOL    HW137247  12.523   7.085   4.429
45136SOL    HW237248  12.605   7.206   4.469
45137SOL     OW37249   6.789   3.740   1.781
45137SOL    HW137250   6.746   3.771   1.860
45137SOL    HW237251   6.780   3.812   1.719
45138SOL     OW37252   5.963   3.945   6.993
45138SOL    HW137253   5.895   3.929   6.928
45138SOL    HW237254   5.915   3.968   7.073
45139SOL     OW37255  10.197   3.019   8.254
45139SOL    HW137256  10.135   2.956   8.218
45139SOL    HW237257  10.279   3.002   8.206
45140SOL     OW37258   7.214   3.388   4.891
45140SOL    HW137259   7.289   3.402   4.949
45140SOL    HW237260   7.245   3.324   4.827
45141SOL     OW37261   6.902   0.267   8.743
45141SOL    HW137262   6.913   0.326   8.669
45141SOL    HW237263   6.821   0.297   8.785
45142SOL     OW37264   2.262   9.836   3.280
45142SOL    HW137265   2.266   9.926   3.313
45142SOL    HW237266   2.170   9.822   3.258
45143SOL     OW37267  10.553   7.110   0.411
45143SOL    HW137268  10.504   7.127   0.330
45143SOL    HW237269  10.527   7.181   0.470
45144SOL     OW37270  14.258  14.427   2.008
45144SOL    HW137271  14.275  14.465   1.922
45144SOL    HW237272  14.331  14.457   2.062
45145SOL     OW37273  12.370  11.704   2.529
45145SOL    HW137274  12.314  11.687   2.605
45145SOL    HW237275  12.425  11.777   2.556
45146SOL     OW37276   0.933   8.720  11.364
45146SOL    HW137277   1.022   8.751  11.347
45146SOL    HW237278   0.943   8.629  11.390
45147SOL     OW37279   5.732  11.404  11.708
45147SOL    HW137280   5.754  11.413  11.801
45147SOL    HW237281   5.704  11.491  11.681
45148SOL     OW37282  11.977   0.960  14.048
45148SOL    HW137283  11.958   1.010  14.127
45148SOL    HW237284  11.891   0.939  14.011
45149SOL     OW37285  11.992   3.783   4.919
45149SOL    HW137286  12.022   3.693   4.927
45149SOL    HW237287  11.919   3.791   4.980
45150SOL     OW37288   8.578   6.404   5.603
45150SOL    HW137289   8.666   6.441   5.595
45150SOL    HW237290   8.524   6.477   5.634
45151SOL     OW37291   0.898   8.593   6.750
45151SOL    HW137292   0.929   8.683   6.740
45151SOL    HW237293   0.845   8.577   6.672
45152SOL     OW37294   0.088   1.280   9.330
45152SOL    HW137295   0.089   1.212   9.263
45152SOL    HW237296   0.122   1.358   9.286
45153SOL     OW37297  14.074   3.402   7.642
45153SOL    HW137298  14.059   3.425   7.734
45153SOL    HW237299  14.103   3.484   7.601
45154SOL     OW37300   9.686   7.693   7.087
45154SOL    HW137301   9.750   7.667   7.021
45154SOL    HW237302   9.602   7.659   7.055
45155SOL     OW37303   0.708   3.499   8.562
45155SOL    HW137304   0.616   3.519   8.543
45155SOL    HW237305   0.747   3.585   8.580
45156SOL     OW37306   0.572   7.725   2.629
45156SOL    HW137307   0.557   7.778   2.707
45156SOL    HW237308   0.667   7.720   2.622
45157SOL     OW37309   5.428   0.656   4.300
45157SOL    HW137310   5.362   0.611   4.249
45157SOL    HW237311   5.493   0.588   4.321
45158SOL     OW37312   6.742   1.225   4.751
45158SOL    HW137313   6.751   1.301   4.807
45158SOL    HW237314   6.703   1.259   4.670
45159SOL     OW37315   8.074  10.367   1.788
45159SOL    HW137316   7.981  10.344   1.794
45159SOL    HW237317   8.119  10.302   1.842
45160SOL     OW37318   3.620   9.703  13.330
45160SOL    HW137319   3.587   9.743  13.411
45160SOL    HW237320   3.610   9.772  13.264
45161SOL     OW37321  13.265   8.158   1.434
45161SOL    HW137322  13.271   8.214   1.356
45161SOL    HW237323  13.355   8.130   1.450
45162SOL     OW37324  14.114   1.409   2.213
45162SOL    HW137325  14.044   1.474   2.209
45162SOL    HW237326  14.195   1.459   2.207
45163SOL     OW37327   4.352  14.641  10.144
45163SOL    HW137328   4.391  14.581  10.208
45163SOL    HW237329   4.409  14.634  10.068
45164SOL     OW37330   7.080   7.133  10.090
45164SOL    HW137331   6.999   7.089  10.065
45164SOL    HW237332   7.141   7.062  10.110
45165SOL     OW37333  13.826   5.842   4.851
45165SOL    HW137334  13.733   5.849   4.871
45165SOL    HW237335  13.829   5.795   4.767
45166SOL     OW37336  11.906  11.064  10.139
45166SOL    HW137337  11.819  11.062  10.098
45166SOL    HW237338  11.965  11.089  10.068
45167SOL     OW37339   8.633   9.041   6.595
45167SOL    HW137340   8.567   9.061   6.660
45167SOL    HW237341   8.606   9.090   6.517
45168SOL     OW37342   5.391   0.681   8.540
45168SOL    HW137343   5.300   0.685   8.569
45168SOL    HW237344   5.401   0.754   8.480
45169SOL     OW37345   9.693   2.185   2.803
45169SOL    HW137346   9.733   2.174   2.716
45169SOL    HW237347   9.739   2.122   2.859
45170SOL     OW37348  14.604   4.314   3.799
45170SOL    HW137349  14.601   4.401   3.759
45170SOL    HW237350  14.614   4.331   3.893
45171SOL     OW37351   4.419   3.178   5.111
45171SOL    HW137352   4.354   3.183   5.180
45171SOL    HW237353   4.503   3.184   5.156
45172SOL     OW37354   6.948   1.341  10.102
45172SOL    HW137355   7.024   1.299  10.064
45172SOL    HW237356   6.919   1.281  10.172
45173SOL     OW37357  11.764   5.906   6.102
45173SOL    HW137358  11.811   5.907   6.186
45173SOL    HW237359  11.834   5.904   6.037
45174SOL     OW37360  14.636   1.524  12.342
45174SOL    HW137361  14.653   1.618  12.344
45174SOL    HW237362  14.560   1.514  12.285
45175SOL     OW37363  12.422   0.871   5.925
45175SOL    HW137364  12.464   0.933   5.866
45175SOL    HW237365  12.401   0.922   6.003
45176SOL     OW37366   2.317  13.101   7.875
45176SOL    HW137367   2.378  13.136   7.940
45176SOL    HW237368   2.364  13.108   7.791
45177SOL     OW37369   2.649   9.514   2.022
45177SOL    HW137370   2.640   9.609   2.028
45177SOL    HW237371   2.669   9.497   1.930
45178SOL     OW37372  13.918  12.727  14.089
45178SOL    HW137373  13.946  12.688  14.172
45178SOL    HW237374  13.982  12.796  14.073
45179SOL     OW37375   4.793  12.283   2.232
45179SOL    HW137376   4.790  12.280   2.136
45179SOL    HW237377   4.765  12.372   2.254
45180SOL     OW37378   4.000  11.938   7.873
45180SOL    HW137379   4.007  11.844   7.859
45180SOL    HW237380   4.090  11.969   7.873
45181SOL     OW37381   1.659  13.227   1.465
45181SOL    HW137382   1.579  13.193   1.507
45181SOL    HW237383   1.643  13.214   1.372
45182SOL     OW37384   5.087  14.590  11.051
45182SOL    HW137385   5.167  14.570  11.098
45182SOL    HW237386   5.019  14.594  11.119
45183SOL     OW37387  12.191   5.804   0.274
45183SOL    HW137388  12.155   5.868   0.213
45183SOL    HW237389  12.126   5.734   0.278
45184SOL     OW37390  11.688  12.516  14.272
45184SOL    HW137391  11.640  12.456  14.329
45184SOL    HW237392  11.720  12.584  14.331
45185SOL     OW37393  14.376  12.819   1.413
45185SOL    HW137394  14.419  12.799   1.330
45185SOL    HW237395  14.388  12.740   1.466
45186SOL     OW37396  13.859   0.356   5.594
45186SOL    HW137397  13.946   0.325   5.621
45186SOL    HW237398  13.844   0.315   5.509
45187SOL     OW37399   8.982   9.622  11.707
45187SOL    HW137400   8.926   9.636  11.631
45187SOL    HW237401   8.921   9.600  11.778
45188SOL     OW37402  10.281   7.494   7.915
45188SOL    HW137403  10.348   7.563   7.913
45188SOL    HW237404  10.231   7.506   7.835
45189SOL     OW37405   1.031   8.663   4.691
45189SOL    HW137406   1.049   8.687   4.782
45189SOL    HW237407   0.953   8.712   4.667
45190SOL     OW37408  11.075  14.083   3.058
45190SOL    HW137409  11.035  14.167   3.078
45190SOL    HW237410  11.124  14.099   2.977
45191SOL     OW37411   0.701   2.785  10.542
45191SOL    HW137412   0.784   2.829  10.527
45191SOL    HW237413   0.696   2.718  10.473
45192SOL     OW37414  13.833  11.566   3.811
45192SOL    HW137415  13.834  11.474   3.837
45192SOL    HW237416  13.741  11.591   3.812
45193SOL     OW37417   3.909  10.540   6.458
45193SOL    HW137418   3.855  10.463   6.444
45193SOL    HW237419   3.998  10.511   6.439
45194SOL     OW37420  12.871   8.082   5.532
45194SOL    HW137421  12.832   8.001   5.564
45194SOL    HW237422  12.945   8.097   5.590
45195SOL     OW37423   0.200   2.382  10.405
45195SOL    HW137424   0.154   2.299  10.412
45195SOL    HW237425   0.253   2.387  10.485
45196SOL     OW37426  12.757   7.286   5.237
45196SOL    HW137427  12.765   7.219   5.170
45196SOL    HW237428  12.681   7.259   5.289
45197SOL     OW37429   8.474  11.189   9.265
45197SOL    HW137430   8.394  11.140   9.246
45197SOL    HW237431   8.450  11.280   9.245
45198SOL     OW37432  10.390   5.875   8.828
45198SOL    HW137433  10.465   5.874   8.887
45198SOL    HW237434  10.346   5.791   8.842
45199SOL     OW37435   4.042  10.919  14.038
45199SOL    HW137436   4.024  10.997  14.091
45199SOL    HW237437   3.974  10.919  13.971
45200SOL     OW37438   9.051   2.766   0.583
45200SOL    HW137439   9.045   2.858   0.554
45200SOL    HW237440   8.964   2.731   0.567
45201SOL     OW37441   1.315  10.202  11.985
45201SOL    HW137442   1.369  10.130  12.015
45201SOL    HW237443   1.337  10.212  11.892
45202SOL     OW37444   5.126   5.533  11.723
45202SOL    HW137445   5.164   5.577  11.647
45202SOL    HW237446   5.097   5.448  11.691
45203SOL     OW37447  13.298  12.232   6.820
45203SOL    HW137448  13.248  12.246   6.900
45203SOL    HW237449  13.366  12.169   6.844
45204SOL     OW37450   0.707   8.014   8.269
45204SOL    HW137451   0.717   7.957   8.344
45204SOL    HW237452   0.744   7.965   8.195
45205SOL     OW37453   1.472  13.742   1.972
45205SOL    HW137454   1.421  13.817   1.942
45205SOL    HW237455   1.518  13.712   1.894
45206SOL     OW37456   5.031   2.415   0.644
45206SOL    HW137457   4.992   2.492   0.604
45206SOL    HW237458   5.063   2.363   0.569
45207SOL     OW37459  10.800   8.280   4.785
45207SOL    HW137460  10.738   8.334   4.735
45207SOL    HW237461  10.747   8.241   4.854
45208SOL     OW37462   2.721   4.571  14.039
45208SOL    HW137463   2.669   4.634  13.990
45208SOL    HW237464   2.678   4.567  14.125
45209SOL     OW37465   1.122   9.993   5.344
45209SOL    HW137466   1.177  10.060   5.384
45209SOL    HW237467   1.159   9.979   5.257
45210SOL     OW37468   5.893   0.847   0.362
45210SOL    HW137469   5.956   0.879   0.299
45210SOL    HW237470   5.946   0.814   0.435
45211SOL     OW37471  11.567   2.676   8.365
45211SOL    HW137472  11.653   2.691   8.325
45211SOL    HW237473  11.562   2.742   8.434
45212SOL     OW37474  10.615   5.615  14.603
45212SOL    HW137475  10.625   5.709  14.588
45212SOL    HW237476  10.653   5.574  14.525
45213SOL     OW37477   7.760  10.514   0.779
45213SOL    HW137478   7.833  10.551   0.830
45213SOL    HW237479   7.792  10.517   0.688
45214SOL     OW37480   8.036  14.711  12.239
45214SOL    HW137481   8.045  14.806  12.246
45214SOL    HW237482   8.084  14.688  12.159
45215SOL     OW37483   6.531   6.026  12.060
45215SOL    HW137484   6.457   5.979  12.098
45215SOL    HW237485   6.554   5.976  11.981
45216SOL     OW37486  11.673   6.856   2.541
45216SOL    HW137487  11.646   6.915   2.471
45216SOL    HW237488  11.598   6.798   2.554
45217SOL     OW37489   5.257   2.540   1.388
45217SOL    HW137490   5.271   2.623   1.341
45217SOL    HW237491   5.247   2.566   1.480
45218SOL     OW37492  10.463  12.779   4.916
45218SOL    HW137493  10.443  12.849   4.978
45218SOL    HW237494  10.431  12.812   4.832
45219SOL     OW37495  10.453   4.437   9.498
45219SOL    HW137496  10.454   4.390   9.581
45219SOL    HW237497  10.453   4.530   9.523
45220SOL     OW37498   6.400  11.563   5.149
45220SOL    HW137499   6.336  11.495   5.130
45220SOL    HW237500   6.419  11.553   5.242
45221SOL     OW37501   2.355  12.055   9.032
45221SOL    HW137502   2.443  12.050   9.069
45221SOL    HW237503   2.304  11.994   9.085
45222SOL     OW37504   0.721   6.050   0.103
45222SOL    HW137505   0.700   6.024   0.193
45222SOL    HW237506   0.704   5.972   0.051
45223SOL     OW37507   5.809   7.240   6.443
45223SOL    HW137508   5.764   7.156   6.435
45223SOL    HW237509   5.738   7.305   6.438
45224SOL     OW37510   5.511   7.589   8.698
45224SOL    HW137511   5.484   7.604   8.607
45224SOL    HW237512   5.590   7.535   8.691
45225SOL     OW37513   3.709   5.737   1.221
45225SOL    HW137514   3.660   5.778   1.293
45225SOL    HW237515   3.642   5.709   1.159
45226SOL     OW37516  11.257   8.240   7.026
45226SOL    HW137517  11.296   8.297   7.092
45226SOL    HW237518  11.202   8.298   6.973
45227SOL     OW37519   7.332   4.638   0.690
45227SOL    HW137520   7.418   4.679   0.679
45227SOL    HW237521   7.339   4.588   0.771
45228SOL     OW37522  10.653   0.855   4.986
45228SOL    HW137523  10.655   0.847   4.891
45228SOL    HW237524  10.691   0.940   5.005
45229SOL     OW37525   6.732   6.423  12.117
45229SOL    HW137526   6.746   6.424  12.022
45229SOL    HW237527   6.812   6.459  12.154
45230SOL     OW37528   4.426   7.575  11.881
45230SOL    HW137529   4.448   7.625  11.803
45230SOL    HW237530   4.337   7.604  11.904
45231SOL     OW37531   5.108   3.516   0.806
45231SOL    HW137532   5.023   3.534   0.847
45231SOL    HW237533   5.170   3.519   0.879
45232SOL     OW37534  12.473  11.228  14.363
45232SOL    HW137535  12.537  11.180  14.311
45232SOL    HW237536  12.416  11.271  14.299
45233SOL     OW37537   1.273   3.218   4.460
45233SOL    HW137538   1.259   3.135   4.506
45233SOL    HW237539   1.339   3.264   4.513
45234SOL     OW37540   0.783  14.847   5.460
45234SOL    HW137541   0.707  14.790   5.450
45234SOL    HW237542   0.785   0.019   5.379
45235SOL     OW37543  14.525  10.932   8.211
45235SOL    HW137544  14.449  10.875   8.204
45235SOL    HW237545  14.520  10.968   8.300
45236SOL     OW37546   2.034   7.028  12.841
45236SOL    HW137547   1.960   7.007  12.898
45236SOL    HW237548   2.100   7.065  12.900
45237SOL     OW37549  14.640  12.136   5.961
45237SOL    HW137550  14.581  12.205   5.992
45237SOL    HW237551  14.698  12.180   5.899
45238SOL     OW37552  11.768  13.323   3.178
45238SOL    HW137553  11.696  13.261   3.178
45238SOL    HW237554  11.748  13.382   3.251
45239SOL     OW37555  13.265  10.929   2.024
45239SOL    HW137556  13.340  10.876   2.052
45239SOL    HW237557  13.275  11.011   2.072
45240SOL     OW37558  10.461  11.360  14.077
45240SOL    HW137559  10.546  11.338  14.117
45240SOL    HW237560  10.472  11.340  13.984
45241SOL     OW37561  14.815   0.148   0.767
45241SOL    HW137562  14.832   0.183   0.854
45241SOL    HW237563  14.830   0.222   0.707
45242SOL     OW37564  13.479   6.654   3.903
45242SOL    HW137565  13.496   6.717   3.833
45242SOL    HW237566  13.528   6.576   3.877
45243SOL     OW37567   5.802  14.258   3.553
45243SOL    HW137568   5.890  14.234   3.526
45243SOL    HW237569   5.800  14.354   3.547
45244SOL     OW37570  13.943   2.891  14.651
45244SOL    HW137571  14.012   2.950  14.622
45244SOL    HW237572  13.987   2.825  14.705
45245SOL     OW37573   3.178   4.773  10.611
45245SOL    HW137574   3.163   4.698  10.554
45245SOL    HW237575   3.098   4.825  10.603
45246SOL     OW37576  12.995   7.722  14.302
45246SOL    HW137577  12.969   7.649  14.245
45246SOL    HW237578  13.044   7.680  14.373
45247SOL     OW37579   6.073   7.972   7.206
45247SOL    HW137580   6.112   7.937   7.286
45247SOL    HW237581   6.037   8.057   7.232
45248SOL     OW37582   0.014   4.353   1.933
45248SOL    HW137583   0.069   4.275   1.922
45248SOL    HW237584  14.807   4.327   1.899
45249SOL     OW37585  14.246   6.108  13.483
45249SOL    HW137586  14.213   6.018  13.479
45249SOL    HW237587  14.312   6.107  13.553
45250SOL     OW37588   6.017  12.713  12.643
45250SOL    HW137589   6.066  12.776  12.695
45250SOL    HW237590   6.084  12.656  12.606
45251SOL     OW37591   6.440   8.774   0.170
45251SOL    HW137592   6.468   8.725   0.247
45251SOL    HW237593   6.488   8.735   0.098
45252SOL     OW37594  13.384  10.475   6.948
45252SOL    HW137595  13.376  10.393   6.997
45252SOL    HW237596  13.443  10.529   7.001
45253SOL     OW37597  11.078  12.438  13.243
45253SOL    HW137598  11.013  12.370  13.263
45253SOL    HW237599  11.105  12.470  13.329
45254SOL     OW37600  13.933  12.077   4.701
45254SOL    HW137601  13.893  12.162   4.681
45254SOL    HW237602  13.966  12.087   4.790
45255SOL     OW37603   4.638  10.372   4.542
45255SOL    HW137604   4.652  10.326   4.625
45255SOL    HW237605   4.546  10.399   4.544
45256SOL     OW37606   7.112   2.636   6.683
45256SOL    HW137607   7.168   2.658   6.608
45256SOL    HW237608   7.030   2.607   6.643
45257SOL     OW37609   1.779   1.858   9.502
45257SOL    HW137610   1.732   1.861   9.586
45257SOL    HW237611   1.870   1.876   9.525
45258SOL     OW37612   8.840  14.264  11.873
45258SOL    HW137613   8.928  14.272  11.909
45258SOL    HW237614   8.788  14.327  11.924
45259SOL     OW37615   8.068  10.427   0.664
45259SOL    HW137616   8.084  10.439   0.571
45259SOL    HW237617   8.142  10.375   0.695
45260SOL     OW37618   9.288   8.607   1.833
45260SOL    HW137619   9.318   8.658   1.758
45260SOL    HW237620   9.354   8.623   1.901
45261SOL     OW37621  10.218  11.462   0.317
45261SOL    HW137622  10.285  11.452   0.385
45261SOL    HW237623  10.210  11.376   0.277
45262SOL     OW37624   2.267  10.971  11.783
45262SOL    HW137625   2.230  11.047  11.828
45262SOL    HW237626   2.259  10.900  11.846
45263SOL     OW37627   3.204   6.412   8.918
45263SOL    HW137628   3.163   6.454   8.993
45263SOL    HW237629   3.297   6.433   8.926
45264SOL     OW37630   8.154  10.127  14.218
45264SOL    HW137631   8.195  10.140  14.304
45264SOL    HW237632   8.220  10.082  14.166
45265SOL     OW37633  10.267  14.469   4.018
45265SOL    HW137634  10.314  14.549   3.995
45265SOL    HW237635  10.296  14.404   3.954
45266SOL     OW37636  12.559  12.662   3.026
45266SOL    HW137637  12.464  12.648   3.029
45266SOL    HW237638  12.586  12.664   3.118
45267SOL     OW37639  12.399   8.652  12.617
45267SOL    HW137640  12.407   8.611  12.531
45267SOL    HW237641  12.402   8.746  12.599
45268SOL     OW37642  14.263  14.561   2.389
45268SOL    HW137643  14.235  14.641   2.433
45268SOL    HW237644  14.329  14.524   2.447
45269SOL     OW37645   3.890   9.855  12.606
45269SOL    HW137646   3.868   9.768  12.575
45269SOL    HW237647   3.961   9.885  12.549
45270SOL     OW37648  10.016   7.449   8.596
45270SOL    HW137649  10.073   7.480   8.525
45270SOL    HW237650   9.977   7.529   8.632
45271SOL     OW37651   5.651   9.018   5.084
45271SOL    HW137652   5.718   9.083   5.106
45271SOL    HW237653   5.619   8.987   5.169
45272SOL     OW37654   1.964   6.412  14.029
45272SOL    HW137655   1.925   6.498  14.046
45272SOL    HW237656   1.894   6.349  14.047
45273SOL     OW37657   8.240   8.916   0.948
45273SOL    HW137658   8.297   8.900   1.023
45273SOL    HW237659   8.152   8.922   0.985
45274SOL     OW37660  12.178   1.693   6.353
45274SOL    HW137661  12.101   1.738   6.318
45274SOL    HW237662  12.143   1.632   6.418
45275SOL     OW37663   4.783  11.631   8.614
45275SOL    HW137664   4.825  11.656   8.696
45275SOL    HW237665   4.853  11.590   8.563
45276SOL     OW37666   8.219   7.313   3.541
45276SOL    HW137667   8.309   7.284   3.556
45276SOL    HW237668   8.167   7.258   3.600
45277SOL     OW37669   0.213   2.471   8.388
45277SOL    HW137670   0.250   2.403   8.332
45277SOL    HW237671   0.118   2.461   8.379
45278SOL     OW37672   7.783   7.847  12.064
45278SOL    HW137673   7.878   7.835  12.064
45278SOL    HW237674   7.770   7.934  12.102
45279SOL     OW37675  10.480   4.927   7.522
45279SOL    HW137676  10.452   4.857   7.462
45279SOL    HW237677  10.490   4.883   7.607
45280SOL     OW37678  11.492  13.286   0.251
45280SOL    HW137679  11.419  13.267   0.192
45280SOL    HW237680  11.500  13.381   0.249
45281SOL     OW37681  14.641   0.328   7.667
45281SOL    HW137682  14.588   0.395   7.710
45281SOL    HW237683  14.588   0.298   7.593
45282SOL     OW37684  11.830   9.424   7.537
45282SOL    HW137685  11.856   9.516   7.531
45282SOL    HW237686  11.895   9.385   7.596
45283SOL     OW37687  13.294  10.082   9.801
45283SOL    HW137688  13.286  10.167   9.759
45283SOL    HW237689  13.221  10.030   9.766
45284SOL     OW37690   7.335  11.806   4.240
45284SOL    HW137691   7.263  11.778   4.184
45284SOL    HW237692   7.414  11.775   4.195
45285SOL     OW37693   8.177  11.619   3.020
45285SOL    HW137694   8.224  11.588   3.098
45285SOL    HW237695   8.246  11.648   2.961
45286SOL     OW37696   4.618   5.903   7.809
45286SOL    HW137697   4.653   5.882   7.896
45286SOL    HW237698   4.646   5.993   7.794
45287SOL     OW37699   4.194  10.164  13.413
45287SOL    HW137700   4.192  10.254  13.444
45287SOL    HW237701   4.108  10.129  13.437
45288SOL     OW37702   1.768   6.425   4.387
45288SOL    HW137703   1.846   6.380   4.422
45288SOL    HW237704   1.716   6.355   4.347
45289SOL     OW37705   5.978   7.066  12.227
45289SOL    HW137706   6.072   7.077  12.209
45289SOL    HW237707   5.968   7.091  12.319
45290SOL     OW37708  13.542   8.411  14.203
45290SOL    HW137709  13.625   8.443  14.237
45290SOL    HW237710  13.521   8.335  14.257
45291SOL     OW37711  13.545  14.304  11.558
45291SOL    HW137712  13.502  14.327  11.641
45291SOL    HW237713  13.497  14.227  11.527
45292SOL     OW37714   3.884   3.121   2.599
45292SOL    HW137715   3.858   3.049   2.656
45292SOL    HW237716   3.818   3.188   2.613
45293SOL     OW37717   8.167   1.057  13.508
45293SOL    HW137718   8.114   1.134  13.487
45293SOL    HW237719   8.104   0.992  13.540
45294SOL     OW37720   2.126   2.385   8.371
45294SOL    HW137721   2.178   2.409   8.447
45294SOL    HW237722   2.051   2.338   8.406
45295SOL     OW37723   1.410   0.241   6.393
45295SOL    HW137724   1.318   0.263   6.404
45295SOL    HW237725   1.409   0.151   6.359
45296SOL     OW37726   8.059   6.920   7.545
45296SOL    HW137727   8.117   6.935   7.470
45296SOL    HW237728   7.971   6.921   7.507
45297SOL     OW37729   8.789   2.938   4.462
45297SOL    HW137730   8.784   3.003   4.533
45297SOL    HW237731   8.835   2.982   4.391
45298SOL     OW37732  14.722  10.982  13.242
45298SOL    HW137733  14.811  10.971  13.275
45298SOL    HW237734  14.667  10.982  13.321
45299SOL     OW37735   3.272  13.842  13.891
45299SOL    HW137736   3.313  13.881  13.813
45299SOL    HW237737   3.301  13.898  13.963
45300SOL     OW37738  12.229  12.248   4.709
45300SOL    HW137739  12.176  12.250   4.788
45300SOL    HW237740  12.178  12.298   4.645
45301SOL     OW37741  10.682   9.786   3.642
45301SOL    HW137742  10.632   9.857   3.599
45301SOL    HW237743  10.633   9.767   3.721
45302SOL     OW37744   0.423   0.126   7.474
45302SOL    HW137745   0.463   0.115   7.387
45302SOL    HW237746   0.333   0.151   7.455
45303SOL     OW37747   6.681   1.380  10.373
45303SOL    HW137748   6.691   1.428  10.291
45303SOL    HW237749   6.747   1.417  10.431
45304SOL     OW37750   9.755   7.131   1.084
45304SOL    HW137751   9.717   7.137   1.172
45304SOL    HW237752   9.761   7.037   1.067
45305SOL     OW37753  14.624   9.735  14.539
45305SOL    HW137754  14.622   9.645  14.571
45305SOL    HW237755  14.541   9.772  14.568
45306SOL     OW37756   4.196   6.178  11.943
45306SOL    HW137757   4.180   6.209  11.854
45306SOL    HW237758   4.281   6.214  11.966
45307SOL     OW37759  13.353  13.965   6.228
45307SOL    HW137760  13.377  13.975   6.136
45307SOL    HW237761  13.263  13.930   6.225
45308SOL     OW37762   5.209   5.989  12.093
45308SOL    HW137763   5.218   5.956  12.004
45308SOL    HW237764   5.120   6.025  12.097
45309SOL     OW37765   5.427   4.659  14.059
45309SOL    HW137766   5.484   4.736  14.064
45309SOL    HW237767   5.355   4.685  14.002
45310SOL     OW37768   5.645   3.521  10.965
45310SOL    HW137769   5.582   3.508  11.036
45310SOL    HW237770   5.643   3.439  10.916
45311SOL     OW37771   3.236  13.921   9.635
45311SOL    HW137772   3.195  14.007   9.641
45311SOL    HW237773   3.315  13.936   9.582
45312SOL     OW37774   3.689   6.482  10.688
45312SOL    HW137775   3.729   6.558  10.645
45312SOL    HW237776   3.639   6.439  10.619
45313SOL     OW37777   5.167   8.567   5.142
45313SOL    HW137778   5.170   8.618   5.061
45313SOL    HW237779   5.251   8.521   5.145
45314SOL     OW37780   2.151   6.943  11.240
45314SOL    HW137781   2.099   6.873  11.282
45314SOL    HW237782   2.168   6.910  11.152
45315SOL     OW37783   6.059   0.746   1.086
45315SOL    HW137784   6.061   0.659   1.046
45315SOL    HW237785   5.998   0.736   1.159
45316SOL     OW37786   1.002   5.035  12.382
45316SOL    HW137787   1.038   5.112  12.338
45316SOL    HW237788   1.003   4.966  12.315
45317SOL     OW37789   5.147   8.677   8.767
45317SOL    HW137790   5.093   8.598   8.772
45317SOL    HW237791   5.104   8.740   8.824
45318SOL     OW37792   4.457   2.397   9.689
45318SOL    HW137793   4.551   2.397   9.668
45318SOL    HW237794   4.450   2.451   9.767
45319SOL     OW37795   1.216   4.893  11.859
45319SOL    HW137796   1.128   4.916  11.827
45319SOL    HW237797   1.220   4.798  11.851
45320SOL     OW37798   0.423   0.933  13.665
45320SOL    HW137799   0.433   0.897  13.753
45320SOL    HW237800   0.509   0.968  13.643
45321SOL     OW37801   8.263  11.145  12.184
45321SOL    HW137802   8.341  11.092  12.201
45321SOL    HW237803   8.297  11.233  12.168
45322SOL     OW37804  12.542  12.442   4.281
45322SOL    HW137805  12.499  12.428   4.365
45322SOL    HW237806  12.634  12.456   4.302
45323SOL     OW37807  12.873  11.542   2.164
45323SOL    HW137808  12.779  11.528   2.157
45323SOL    HW237809  12.908  11.458   2.194
45324SOL     OW37810   6.835   0.002   8.368
45324SOL    HW137811   6.746  14.852   8.388
45324SOL    HW237812   6.876   0.014   8.454
45325SOL     OW37813  14.547  13.987  14.125
45325SOL    HW137814  14.639  13.961  14.131
45325SOL    HW237815  14.501  13.906  14.101
45326SOL     OW37816   8.122   4.786   4.173
45326SOL    HW137817   8.177   4.732   4.116
45326SOL    HW237818   8.086   4.853   4.115
45327SOL     OW37819  10.570   6.736   6.205
45327SOL    HW137820  10.599   6.688   6.283
45327SOL    HW237821  10.474   6.728   6.207
45328SOL     OW37822   8.376   7.403   6.676
45328SOL    HW137823   8.284   7.392   6.703
45328SOL    HW237824   8.426   7.388   6.756
45329SOL     OW37825   9.949   8.811   9.624
45329SOL    HW137826   9.905   8.753   9.686
45329SOL    HW237827   9.922   8.779   9.538
45330SOL     OW37828   4.580   6.728  10.143
45330SOL    HW137829   4.617   6.814  10.126
45330SOL    HW237830   4.527   6.739  10.222
45331SOL     OW37831  12.950   2.544  12.724
45331SOL    HW137832  12.893   2.571  12.796
45331SOL    HW237833  12.984   2.458  12.751
45332SOL     OW37834   1.964  10.878  14.145
45332SOL    HW137835   2.004  10.870  14.232
45332SOL    HW237836   2.027  10.929  14.095
45333SOL     OW37837   9.641   8.766   5.322
45333SOL    HW137838   9.593   8.797   5.246
45333SOL    HW237839   9.581   8.779   5.396
45334SOL     OW37840   7.983   3.538   1.062
45334SOL    HW137841   7.923   3.521   0.989
45334SOL    HW237842   8.069   3.513   1.028
45335SOL     OW37843   8.782   1.360   0.576
45335SOL    HW137844   8.743   1.442   0.605
45335SOL    HW237845   8.861   1.385   0.528
45336SOL     OW37846   2.703   5.846  11.773
45336SOL    HW137847   2.627   5.798  11.807
45336SOL    HW237848   2.670   5.934  11.756
45337SOL     OW37849  12.467   9.260   5.864
45337SOL    HW137850  12.511   9.203   5.926
45337SOL    HW237851  12.532   9.276   5.796
45338SOL     OW37852   1.405   1.803   1.650
45338SOL    HW137853   1.345   1.772   1.719
45338SOL    HW237854   1.489   1.813   1.694
45339SOL     OW37855   0.310   1.179  12.262
45339SOL    HW137856   0.215   1.195  12.258
45339SOL    HW237857   0.339   1.189  12.172
45340SOL     OW37858   0.865  10.070  11.650
45340SOL    HW137859   0.808  10.018  11.707
45340SOL    HW237860   0.806  10.127  11.602
45341SOL     OW37861  11.360  10.616   8.837
45341SOL    HW137862  11.416  10.559   8.890
45341SOL    HW237863  11.418  10.687   8.809
45342SOL     OW37864   9.152   8.262   9.163
45342SOL    HW137865   9.086   8.314   9.116
45342SOL    HW237866   9.215   8.327   9.195
45343SOL     OW37867  14.682   8.687   1.906
45343SOL    HW137868  14.652   8.599   1.883
45343SOL    HW237869  14.602   8.734   1.929
45344SOL     OW37870  10.454   0.665   4.558
45344SOL    HW137871  10.427   0.756   4.544
45344SOL    HW237872  10.496   0.639   4.476
45345SOL     OW37873   2.714   0.644  13.801
45345SOL    HW137874   2.775   0.578  13.835
45345SOL    HW237875   2.655   0.595  13.743
45346SOL     OW37876   2.020  12.171   8.924
45346SOL    HW137877   1.986  12.243   8.871
45346SOL    HW237878   2.077  12.214   8.988
45347SOL     OW37879  10.440   1.908   2.375
45347SOL    HW137880  10.367   1.867   2.420
45347SOL    HW237881  10.476   1.839   2.318
45348SOL     OW37882   7.745   4.372   0.899
45348SOL    HW137883   7.802   4.297   0.918
45348SOL    HW237884   7.681   4.372   0.970
45349SOL     OW37885   9.502  11.013   3.419
45349SOL    HW137886   9.461  11.097   3.440
45349SOL    HW237887   9.484  10.958   3.495
45350SOL     OW37888   0.010   8.071   2.880
45350SOL    HW137889   0.034   8.115   2.799
45350SOL    HW237890  14.793   8.068   2.878
45351SOL     OW37891   7.993   1.013  11.419
45351SOL    HW137892   8.010   0.987  11.329
45351SOL    HW237893   7.998   0.932  11.469
45352SOL     OW37894  10.772   3.345   9.990
45352SOL    HW137895  10.804   3.434   9.973
45352SOL    HW237896  10.767   3.339  10.086
45353SOL     OW37897  12.115   2.327   1.050
45353SOL    HW137898  12.201   2.363   1.071
45353SOL    HW237899  12.065   2.336   1.131
45354SOL     OW37900   4.761   6.560   3.104
45354SOL    HW137901   4.846   6.536   3.140
45354SOL    HW237902   4.712   6.477   3.101
45355SOL     OW37903   2.493   2.043   7.763
45355SOL    HW137904   2.564   2.001   7.812
45355SOL    HW237905   2.536   2.106   7.706
45356SOL     OW37906  12.787   9.138   5.374
45356SOL    HW137907  12.734   9.195   5.318
45356SOL    HW237908  12.734   9.126   5.453
45357SOL     OW37909   6.203   8.094   4.719
45357SOL    HW137910   6.150   8.104   4.799
45357SOL    HW237911   6.139   8.097   4.648
45358SOL     OW37912  11.652   3.215  10.645
45358SOL    HW137913  11.643   3.138  10.701
45358SOL    HW237914  11.680   3.180  10.560
45359SOL     OW37915   9.424  10.081   3.303
45359SOL    HW137916   9.333  10.112   3.311
45359SOL    HW237917   9.476  10.149   3.346
45360SOL     OW37918   5.146   9.379   3.159
45360SOL    HW137919   5.163   9.295   3.118
45360SOL    HW237920   5.147   9.442   3.086
45361SOL     OW37921   1.053  14.326   2.354
45361SOL    HW137922   1.053  14.387   2.280
45361SOL    HW237923   0.964  14.292   2.357
45362SOL     OW37924  11.491  11.931  13.412
45362SOL    HW137925  11.502  12.026  13.423
45362SOL    HW237926  11.473  11.920  13.319
45363SOL     OW37927   8.687  12.230  10.250
45363SOL    HW137928   8.759  12.174  10.222
45363SOL    HW237929   8.721  12.319  10.241
45364SOL     OW37930   4.651   8.867   4.761
45364SOL    HW137931   4.605   8.951   4.758
45364SOL    HW237932   4.739   8.890   4.792
45365SOL     OW37933   9.095   1.411   4.217
45365SOL    HW137934   9.151   1.343   4.181
45365SOL    HW237935   9.100   1.483   4.154
45366SOL     OW37936   2.583   7.837   7.397
45366SOL    HW137937   2.560   7.822   7.488
45366SOL    HW237938   2.667   7.883   7.401
45367SOL     OW37939   2.684   3.047  12.919
45367SOL    HW137940   2.687   3.012  12.829
45367SOL    HW237941   2.695   3.141  12.908
45368SOL     OW37942  12.119   1.012  13.533
45368SOL    HW137943  12.132   0.922  13.503
45368SOL    HW237944  12.203   1.056  13.514
45369SOL     OW37945  11.432   1.318   4.488
45369SOL    HW137946  11.383   1.254   4.437
45369SOL    HW237947  11.510   1.270   4.516
45370SOL     OW37948  11.261   9.735   8.018
45370SOL    HW137949  11.179   9.774   8.048
45370SOL    HW237950  11.248   9.717   7.925
45371SOL     OW37951   0.326  10.441   8.168
45371SOL    HW137952   0.270  10.434   8.246
45371SOL    HW237953   0.415  10.442   8.203
45372SOL     OW37954  14.651   5.383   0.705
45372SOL    HW137955  14.676   5.456   0.649
45372SOL    HW237956  14.596   5.328   0.649
45373SOL     OW37957  13.229  10.378   4.156
45373SOL    HW137958  13.298  10.341   4.101
45373SOL    HW237959  13.266  10.377   4.245
45374SOL     OW37960  14.459   4.899   8.093
45374SOL    HW137961  14.442   4.993   8.096
45374SOL    HW237962  14.390   4.864   8.036
45375SOL     OW37963   1.014  14.327  12.418
45375SOL    HW137964   1.099  14.284  12.426
45375SOL    HW237965   1.010  14.387  12.492
45376SOL     OW37966  13.514   5.360   1.036
45376SOL    HW137967  13.506   5.272   0.999
45376SOL    HW237968  13.482   5.351   1.126
45377SOL     OW37969  10.504  13.344   7.483
45377SOL    HW137970  10.470  13.431   7.505
45377SOL    HW237971  10.506  13.297   7.566
45378SOL     OW37972   9.460   7.107   1.765
45378SOL    HW137973   9.381   7.161   1.759
45378SOL    HW237974   9.491   7.120   1.855
45379SOL     OW37975   3.095   7.202   6.576
45379SOL    HW137976   3.039   7.209   6.653
45379SOL    HW237977   3.036   7.218   6.502
45380SOL     OW37978  12.933   4.889  11.016
45380SOL    HW137979  12.840   4.907  11.006
45380SOL    HW237980  12.936   4.800  11.052
45381SOL     OW37981   7.811  10.456   8.267
45381SOL    HW137982   7.896  10.500   8.272
45381SOL    HW237983   7.826  10.382   8.209
45382SOL     OW37984  14.799  14.341   5.721
45382SOL    HW137985   0.011  14.367   5.728
45382SOL    HW237986  14.794  14.256   5.766
45383SOL     OW37987   2.719  11.351   0.499
45383SOL    HW137988   2.660  11.294   0.451
45383SOL    HW237989   2.672  11.434   0.507
45384SOL     OW37990   4.855   4.666   5.062
45384SOL    HW137991   4.779   4.717   5.036
45384SOL    HW237992   4.849   4.586   5.008
45385SOL     OW37993   1.847   2.692   1.424
45385SOL    HW137994   1.826   2.613   1.475
45385SOL    HW237995   1.824   2.764   1.482
45386SOL     OW37996   4.894   3.946  11.927
45386SOL    HW137997   4.835   3.921  11.855
45386SOL    HW237998   4.938   4.025  11.895
45387SOL     OW37999   2.480   6.860   3.899
45387SOL    HW138000   2.444   6.821   3.979
45387SOL    HW238001   2.548   6.920   3.929
45388SOL     OW38002   2.006   1.477   3.881
45388SOL    HW138003   2.058   1.495   3.802
45388SOL    HW238004   2.041   1.395   3.914
45389SOL     OW38005   1.557  14.833  10.822
45389SOL    HW138006   1.481  14.782  10.850
45389SOL    HW238007   1.610  14.771  10.771
45390SOL     OW38008   9.196   1.535  14.474
45390SOL    HW138009   9.272   1.561  14.421
45390SOL    HW238010   9.235   1.504  14.556
45391SOL     OW38011   5.612   0.447   1.098
45391SOL    HW138012   5.528   0.490   1.114
45391SOL    HW238013   5.645   0.487   1.018
45392SOL     OW38014   2.475   2.866  13.302
45392SOL    HW138015   2.404   2.890  13.362
45392SOL    HW238016   2.501   2.949  13.262
45393SOL     OW38017  12.333  13.388  11.071
45393SOL    HW138018  12.245  13.354  11.054
45393SOL    HW238019  12.340  13.388  11.167
45394SOL     OW38020   4.165   4.671  13.307
45394SOL    HW138021   4.119   4.589  13.295
45394SOL    HW238022   4.099   4.731  13.341
45395SOL     OW38023  14.833   2.956   1.142
45395SOL    HW138024   0.031   2.900   1.134
45395SOL    HW238025  14.779   2.914   1.209
45396SOL     OW38026   3.005  10.522  14.842
45396SOL    HW138027   3.047  10.518   0.048
45396SOL    HW238028   3.073  10.556  14.783
45397SOL     OW38029   5.292   0.019   2.962
45397SOL    HW138030   5.226   0.079   2.997
45397SOL    HW238031   5.340  14.867   3.039
45398SOL     OW38032  13.247   5.899   9.997
45398SOL    HW138033  13.265   5.975  10.053
45398SOL    HW238034  13.318   5.838  10.016
45399SOL     OW38035   1.554   2.923  10.924
45399SOL    HW138036   1.596   2.895  11.006
45399SOL    HW238037   1.626   2.956  10.871
45400SOL     OW38038   3.183   5.507   1.038
45400SOL    HW138039   3.129   5.586   1.033
45400SOL    HW238040   3.121   5.435   1.028
45401SOL     OW38041   6.436   6.934   4.995
45401SOL    HW138042   6.460   6.976   4.912
45401SOL    HW238043   6.502   6.866   5.007
45402SOL     OW38044   5.049   4.383  11.096
45402SOL    HW138045   5.025   4.476  11.093
45402SOL    HW238046   5.116   4.378  11.165
45403SOL     OW38047   6.246   9.226  11.793
45403SOL    HW138048   6.264   9.228  11.888
45403SOL    HW238049   6.328   9.194  11.755
45404SOL     OW38050   1.198   6.416   5.267
45404SOL    HW138051   1.167   6.462   5.345
45404SOL    HW238052   1.274   6.467   5.238
45405SOL     OW38053  10.654  13.434   9.249
45405SOL    HW138054  10.572  13.387   9.266
45405SOL    HW238055  10.717  13.397   9.311
45406SOL     OW38056  13.984   3.511   0.985
45406SOL    HW138057  14.021   3.459   1.056
45406SOL    HW238058  14.052   3.576   0.965
45407SOL     OW38059  10.197  10.808   8.002
45407SOL    HW138060  10.110  10.843   7.988
45407SOL    HW238061  10.221  10.838   8.090
45408SOL     OW38062  12.680  10.522   0.199
45408SOL    HW138063  12.677  10.570   0.116
45408SOL    HW238064  12.633  10.578   0.261
45409SOL     OW38065   8.259  11.044   9.436
45409SOL    HW138066   8.262  11.139   9.419
45409SOL    HW238067   8.168  11.026   9.457
45410SOL     OW38068  14.429   3.996   0.805
45410SOL    HW138069  14.518   4.028   0.789
45410SOL    HW238070  14.424   3.913   0.757
45411SOL     OW38071   0.905   0.970   9.906
45411SOL    HW138072   0.855   1.040   9.948
45411SOL    HW238073   0.975   1.015   9.858
45412SOL     OW38074  11.714   0.063   1.083
45412SOL    HW138075  11.686  14.874   1.144
45412SOL    HW238076  11.700   0.024   0.996
45413SOL     OW38077   8.759   5.901  14.277
45413SOL    HW138078   8.832   5.866  14.329
45413SOL    HW238079   8.775   5.868  14.188
45414SOL     OW38080   6.582   4.487   1.846
45414SOL    HW138081   6.639   4.560   1.822
45414SOL    HW238082   6.515   4.485   1.777
45415SOL     OW38083   1.438   5.978  13.041
45415SOL    HW138084   1.452   6.026  12.959
45415SOL    HW238085   1.379   5.906  13.017
45416SOL     OW38086   9.412   9.563  10.738
45416SOL    HW138087   9.502   9.528  10.741
45416SOL    HW238088   9.421   9.647  10.693
45417SOL     OW38089   2.800   0.904   0.401
45417SOL    HW138090   2.745   0.947   0.336
45417SOL    HW238091   2.881   0.882   0.354
45418SOL     OW38092   3.953   5.204  10.400
45418SOL    HW138093   4.047   5.190  10.412
45418SOL    HW238094   3.946   5.295  10.369
45419SOL     OW38095   9.323  11.567  14.197
45419SOL    HW138096   9.294  11.619  14.122
45419SOL    HW238097   9.242  11.531  14.233
45420SOL     OW38098   3.185   7.876   1.726
45420SOL    HW138099   3.225   7.907   1.807
45420SOL    HW238100   3.232   7.796   1.704
45421SOL     OW38101   7.032  12.912   7.025
45421SOL    HW138102   6.971  12.849   6.986
45421SOL    HW238103   7.115  12.896   6.979
45422SOL     OW38104   4.787   6.613  14.068
45422SOL    HW138105   4.750   6.525  14.065
45422SOL    HW238106   4.812   6.627  14.159
45423SOL     OW38107   2.041   3.965  11.036
45423SOL    HW138108   2.012   3.980  10.946
45423SOL    HW238109   2.093   3.885  11.031
45424SOL     OW38110   8.616   7.626   6.991
45424SOL    HW138111   8.711   7.634   7.003
45424SOL    HW238112   8.590   7.711   6.955
45425SOL     OW38113  10.356   9.120   5.305
45425SOL    HW138114  10.302   9.154   5.377
45425SOL    HW238115  10.419   9.190   5.287
45426SOL     OW38116   4.104   4.946   4.385
45426SOL    HW138117   4.067   4.859   4.369
45426SOL    HW238118   4.032   4.996   4.421
45427SOL     OW38119   9.304   8.958   1.852
45427SOL    HW138120   9.240   8.899   1.894
45427SOL    HW238121   9.341   9.008   1.924
45428SOL     OW38122   0.094  13.173   0.452
45428SOL    HW138123   0.027  13.115   0.489
45428SOL    HW238124   0.168  13.164   0.511
45429SOL     OW38125  13.125  14.316  13.912
45429SOL    HW138126  13.148  14.330  13.820
45429SOL    HW238127  13.185  14.247  13.941
45430SOL     OW38128   6.359  13.134   5.130
45430SOL    HW138129   6.321  13.072   5.068
45430SOL    HW238130   6.364  13.217   5.081
45431SOL     OW38131   4.553   4.140   6.681
45431SOL    HW138132   4.626   4.197   6.657
45431SOL    HW238133   4.585   4.051   6.664
45432SOL     OW38134   8.032   6.816  10.618
45432SOL    HW138135   8.028   6.853  10.706
45432SOL    HW238136   8.107   6.861  10.577
45433SOL     OW38137  13.570   0.870   5.492
45433SOL    HW138138  13.572   0.901   5.401
45433SOL    HW238139  13.559   0.950   5.544
45434SOL     OW38140   3.475   6.649  12.344
45434SOL    HW138141   3.480   6.714  12.414
45434SOL    HW238142   3.529   6.576  12.375
45435SOL     OW38143   3.594  13.837   0.289
45435SOL    HW138144   3.646  13.756   0.291
45435SOL    HW238145   3.659  13.907   0.286
45436SOL     OW38146  13.714   0.253   1.140
45436SOL    HW138147  13.783   0.229   1.202
45436SOL    HW238148  13.644   0.290   1.194
45437SOL     OW38149  13.131   4.651   8.906
45437SOL    HW138150  13.174   4.603   8.835
45437SOL    HW238151  13.134   4.591   8.981
45438SOL     OW38152   5.722  13.992   6.943
45438SOL    HW138153   5.759  13.967   7.028
45438SOL    HW238154   5.764  13.933   6.880
45439SOL     OW38155  11.822   1.600   2.146
45439SOL    HW138156  11.829   1.530   2.082
45439SOL    HW238157  11.732   1.596   2.177
45440SOL     OW38158   8.095   6.276  11.507
45440SOL    HW138159   8.162   6.259  11.441
45440SOL    HW238160   8.013   6.248  11.466
45441SOL     OW38161   2.958   3.328  13.212
45441SOL    HW138162   2.887   3.374  13.167
45441SOL    HW238163   2.932   3.236  13.211
45442SOL     OW38164   3.400   4.396   7.293
45442SOL    HW138165   3.400   4.318   7.238
45442SOL    HW238166   3.310   4.429   7.289
45443SOL     OW38167  10.072   1.088  11.466
45443SOL    HW138168  10.121   1.036  11.402
45443SOL    HW238169  10.048   1.168  11.419
45444SOL     OW38170  11.096   1.050   5.148
45444SOL    HW138171  11.113   1.105   5.225
45444SOL    HW238172  11.182   1.039   5.108
45445SOL     OW38173   9.951   4.298   5.939
45445SOL    HW138174   9.898   4.245   5.999
45445SOL    HW238175   9.999   4.234   5.887
45446SOL     OW38176   5.932   5.041   5.854
45446SOL    HW138177   6.010   5.096   5.853
45446SOL    HW238178   5.859   5.102   5.844
45447SOL     OW38179  12.387  12.463   7.378
45447SOL    HW138180  12.301  12.428   7.354
45447SOL    HW238181  12.377  12.494   7.468
45448SOL     OW38182   3.727  11.062   0.955
45448SOL    HW138183   3.800  11.124   0.961
45448SOL    HW238184   3.768  10.980   0.927
45449SOL     OW38185   2.710   9.173   9.265
45449SOL    HW138186   2.658   9.224   9.327
45449SOL    HW238187   2.789   9.148   9.313
45450SOL     OW38188   8.500   6.815   1.402
45450SOL    HW138189   8.442   6.789   1.473
45450SOL    HW238190   8.577   6.852   1.446
45451SOL     OW38191   3.009   7.613   1.533
45451SOL    HW138192   2.983   7.573   1.451
45451SOL    HW238193   2.926   7.638   1.575
45452SOL     OW38194   7.214   9.543  11.352
45452SOL    HW138195   7.202   9.514  11.261
45452SOL    HW238196   7.165   9.479  11.404
45453SOL     OW38197  12.606   2.622   9.384
45453SOL    HW138198  12.686   2.675   9.393
45453SOL    HW238199  12.550   2.674   9.326
45454SOL     OW38200  14.457   7.638   9.056
45454SOL    HW138201  14.405   7.625   8.977
45454SOL    HW238202  14.418   7.715   9.097
45455SOL     OW38203   0.278   6.361   1.283
45455SOL    HW138204   0.279   6.351   1.188
45455SOL    HW238205   0.249   6.276   1.316
45456SOL     OW38206   2.232   9.622  12.582
45456SOL    HW138207   2.246   9.684  12.654
45456SOL    HW238208   2.261   9.537  12.617
45457SOL     OW38209   0.726  11.375  11.719
45457SOL    HW138210   0.633  11.396  11.710
45457SOL    HW238211   0.764  11.456  11.755
45458SOL     OW38212   9.372   1.656   3.095
45458SOL    HW138213   9.388   1.584   3.157
45458SOL    HW238214   9.453   1.661   3.044
45459SOL     OW38215  13.531   7.621   3.112
45459SOL    HW138216  13.566   7.534   3.097
45459SOL    HW238217  13.588   7.679   3.062
45460SOL     OW38218  12.335   2.619   5.841
45460SOL    HW138219  12.327   2.527   5.816
45460SOL    HW238220  12.257   2.637   5.893
45461SOL     OW38221   9.788   1.540   3.853
45461SOL    HW138222   9.763   1.463   3.904
45461SOL    HW238223   9.840   1.505   3.780
45462SOL     OW38224   6.518   6.753   5.661
45462SOL    HW138225   6.456   6.799   5.604
45462SOL    HW238226   6.580   6.821   5.689
45463SOL     OW38227  14.035  11.990  11.427
45463SOL    HW138228  13.987  11.907  11.424
45463SOL    HW238229  14.028  12.025  11.338
45464SOL     OW38230   9.566   1.113  12.768
45464SOL    HW138231   9.504   1.184  12.782
45464SOL    HW238232   9.598   1.091  12.855
45465SOL     OW38233  12.844  12.359  12.744
45465SOL    HW138234  12.906  12.375  12.673
45465SOL    HW238235  12.882  12.287  12.793
45466SOL     OW38236   4.925  11.565   6.270
45466SOL    HW138237   4.945  11.531   6.182
45466SOL    HW238238   4.837  11.532   6.289
45467SOL     OW38239   0.845   6.907   3.203
45467SOL    HW138240   0.827   6.859   3.122
45467SOL    HW238241   0.892   6.985   3.174
45468SOL     OW38242  10.836   5.691   8.710
45468SOL    HW138243  10.890   5.728   8.780
45468SOL    HW238244  10.898   5.641   8.656
45469SOL     OW38245  11.321   6.397  12.028
45469SOL    HW138246  11.357   6.485  12.042
45469SOL    HW238247  11.252   6.388  12.093
45470SOL     OW38248  10.215   0.651   3.300
45470SOL    HW138249  10.142   0.657   3.361
45470SOL    HW238250  10.291   0.677   3.351
45471SOL     OW38251  12.989   3.945   5.604
45471SOL    HW138252  12.977   3.895   5.523
45471SOL    HW238253  12.940   4.026   5.588
45472SOL     OW38254   9.686   1.783   6.049
45472SOL    HW138255   9.725   1.863   6.083
45472SOL    HW238256   9.641   1.810   5.969
45473SOL     OW38257  10.213   4.811   6.566
45473SOL    HW138258  10.222   4.759   6.646
45473SOL    HW238259  10.293   4.864   6.563
45474SOL     OW38260   2.614  10.472   1.631
45474SOL    HW138261   2.671  10.490   1.706
45474SOL    HW238262   2.557  10.402   1.661
45475SOL     OW38263   1.601  14.317   9.447
45475SOL    HW138264   1.682  14.358   9.477
45475SOL    HW238265   1.542  14.389   9.428
45476SOL     OW38266   2.846  11.791   1.719
45476SOL    HW138267   2.789  11.797   1.796
45476SOL    HW238268   2.842  11.878   1.680
45477SOL     OW38269   4.197   5.058  14.338
45477SOL    HW138270   4.291   5.076  14.344
45477SOL    HW238271   4.166   5.064  14.428
45478SOL     OW38272   1.273   2.185  11.535
45478SOL    HW138273   1.293   2.206  11.626
45478SOL    HW238274   1.357   2.190  11.490
45479SOL     OW38275  10.112  10.553  11.694
45479SOL    HW138276  10.092  10.485  11.629
45479SOL    HW238277  10.167  10.615  11.648
45480SOL     OW38278   5.719  10.145   8.992
45480SOL    HW138279   5.699  10.234   8.962
45480SOL    HW238280   5.709  10.090   8.914
45481SOL     OW38281   3.438   3.890  10.951
45481SOL    HW138282   3.505   3.893  10.883
45481SOL    HW238283   3.462   3.959  11.012
45482SOL     OW38284  12.106   4.829  10.808
45482SOL    HW138285  12.038   4.763  10.820
45482SOL    HW238286  12.061   4.913  10.817
45483SOL     OW38287   7.636  14.375   3.425
45483SOL    HW138288   7.650  14.321   3.502
45483SOL    HW238289   7.676  14.326   3.353
45484SOL     OW38290   5.023  11.247   1.043
45484SOL    HW138291   5.053  11.192   0.970
45484SOL    HW238292   5.035  11.337   1.011
45485SOL     OW38293   2.846  14.515   8.769
45485SOL    HW138294   2.907  14.500   8.697
45485SOL    HW238295   2.802  14.431   8.781
45486SOL     OW38296  10.883  12.705   2.682
45486SOL    HW138297  10.933  12.754   2.747
45486SOL    HW238298  10.792  12.721   2.705
45487SOL     OW38299   1.146   5.709  13.897
45487SOL    HW138300   1.121   5.648  13.968
45487SOL    HW238301   1.146   5.655  13.818
45488SOL     OW38302  14.042   8.339  10.629
45488SOL    HW138303  14.026   8.304  10.717
45488SOL    HW238304  14.126   8.385  10.637
45489SOL     OW38305   8.910   5.293   0.249
45489SOL    HW138306   8.849   5.359   0.215
45489SOL    HW238307   8.903   5.221   0.186
45490SOL     OW38308   4.976   2.330   2.581
45490SOL    HW138309   4.915   2.301   2.513
45490SOL    HW238310   4.949   2.421   2.599
45491SOL     OW38311   9.573   9.528   9.685
45491SOL    HW138312   9.626   9.607   9.699
45491SOL    HW238313   9.616   9.461   9.738
45492SOL     OW38314   1.980   0.537  13.309
45492SOL    HW138315   1.897   0.498  13.335
45492SOL    HW238316   1.957   0.601  13.242
45493SOL     OW38317  10.524  12.208   6.039
45493SOL    HW138318  10.546  12.182   6.128
45493SOL    HW238319  10.436  12.174   6.025
45494SOL     OW38320  12.884   6.085  12.604
45494SOL    HW138321  12.967   6.085  12.558
45494SOL    HW238322  12.891   6.158  12.667
45495SOL     OW38323   7.485  14.498   7.819
45495SOL    HW138324   7.484  14.404   7.803
45495SOL    HW238325   7.393  14.523   7.824
45496SOL     OW38326   4.869  12.798   6.044
45496SOL    HW138327   4.838  12.881   6.082
45496SOL    HW238328   4.797  12.737   6.058
45497SOL     OW38329   7.564   0.315   4.528
45497SOL    HW138330   7.535   0.383   4.468
45497SOL    HW238331   7.484   0.278   4.565
45498SOL     OW38332   1.357   2.835   8.778
45498SOL    HW138333   1.434   2.844   8.833
45498SOL    HW238334   1.378   2.883   8.698
45499SOL     OW38335   9.380  12.355   0.945
45499SOL    HW138336   9.314  12.401   0.996
45499SOL    HW238337   9.456  12.413   0.946
45500SOL     OW38338  12.465  10.911   2.998
45500SOL    HW138339  12.473  10.896   2.904
45500SOL    HW238340  12.522  10.986   3.015
45501SOL     OW38341  13.896  10.643  14.098
45501SOL    HW138342  13.826  10.688  14.145
45501SOL    HW238343  13.878  10.550  14.112
45502SOL     OW38344   9.011   5.901   6.117
45502SOL    HW138345   8.958   5.925   6.193
45502SOL    HW238346   9.081   5.966   6.115
45503SOL     OW38347   1.619   4.385   5.987
45503SOL    HW138348   1.622   4.313   5.924
45503SOL    HW238349   1.644   4.462   5.937
45504SOL     OW38350   7.971   3.398  10.968
45504SOL    HW138351   8.060   3.406  10.934
45504SOL    HW238352   7.978   3.336  11.040
45505SOL     OW38353  13.780   7.427  14.643
45505SOL    HW138354  13.787   7.512  14.600
45505SOL    HW238355  13.837   7.434  14.720
45506SOL     OW38356  13.798   8.462   1.423
45506SOL    HW138357  13.878   8.488   1.469
45506SOL    HW238358  13.791   8.368   1.441
45507SOL     OW38359   0.920   5.958  14.709
45507SOL    HW138360   0.949   6.004  14.788
45507SOL    HW238361   0.844   5.908  14.737
45508SOL     OW38362  10.423   1.298  12.045
45508SOL    HW138363  10.482   1.282  11.971
45508SOL    HW238364  10.337   1.269  12.014
45509SOL     OW38365  12.679   2.924   3.585
45509SOL    HW138366  12.733   2.863   3.635
45509SOL    HW238367  12.739   2.994   3.559
45510SOL     OW38368   9.729  12.741   7.699
45510SOL    HW138369   9.813  12.787   7.696
45510SOL    HW238370   9.672  12.798   7.750
45511SOL     OW38371  10.351   0.955   8.133
45511SOL    HW138372  10.259   0.973   8.151
45511SOL    HW238373  10.387   0.927   8.216
45512SOL     OW38374  12.311  13.768   1.193
45512SOL    HW138375  12.298  13.674   1.188
45512SOL    HW238376  12.353  13.792   1.111
45513SOL     OW38377  12.215   6.460   2.770
45513SOL    HW138378  12.122   6.451   2.751
45513SOL    HW238379  12.257   6.466   2.684
45514SOL     OW38380   2.373  13.885   9.109
45514SOL    HW138381   2.341  13.869   9.198
45514SOL    HW238382   2.294  13.902   9.058
45515SOL     OW38383  12.362   7.192   5.340
45515SOL    HW138384  12.316   7.133   5.280
45515SOL    HW238385  12.351   7.279   5.300
45516SOL     OW38386  12.264   1.957   8.455
45516SOL    HW138387  12.175   1.974   8.488
45516SOL    HW238388  12.269   1.862   8.448
45517SOL     OW38389   5.019  11.547  12.210
45517SOL    HW138390   5.070  11.608  12.264
45517SOL    HW238391   5.062  11.463  12.221
45518SOL     OW38392   2.593   5.502  14.128
45518SOL    HW138393   2.679   5.461  14.122
45518SOL    HW238394   2.609   5.585  14.173
45519SOL     OW38395  13.045   5.993   1.375
45519SOL    HW138396  13.057   5.928   1.305
45519SOL    HW238397  13.023   5.941   1.452
45520SOL     OW38398  13.198  10.717  11.771
45520SOL    HW138399  13.130  10.686  11.711
45520SOL    HW238400  13.280  10.680  11.736
45521SOL     OW38401   9.003  13.672   8.755
45521SOL    HW138402   9.006  13.683   8.660
45521SOL    HW238403   8.924  13.619   8.770
45522SOL     OW38404   4.270  13.788   2.647
45522SOL    HW138405   4.203  13.851   2.672
45522SOL    HW238406   4.345  13.841   2.622
45523SOL     OW38407  12.333   1.489  14.441
45523SOL    HW138408  12.363   1.534  14.363
45523SOL    HW238409  12.359   1.546  14.514
45524SOL     OW38410   2.534  14.743   9.770
45524SOL    HW138411   2.494  14.683   9.707
45524SOL    HW238412   2.605  14.692   9.810
45525SOL     OW38413   3.413   5.189  12.333
45525SOL    HW138414   3.352   5.132  12.379
45525SOL    HW238415   3.477   5.129  12.294
45526SOL     OW38416   2.576  13.196   2.322
45526SOL    HW138417   2.505  13.145   2.283
45526SOL    HW238418   2.650  13.181   2.264
45527SOL     OW38419   8.189  11.262   1.610
45527SOL    HW138420   8.119  11.321   1.637
45527SOL    HW238421   8.270  11.310   1.630
45528SOL     OW38422   8.062   3.306   6.564
45528SOL    HW138423   8.133   3.355   6.606
45528SOL    HW238424   8.025   3.252   6.634
45529SOL     OW38425   4.813  14.223  14.492
45529SOL    HW138426   4.879  14.153  14.494
45529SOL    HW238427   4.859  14.298  14.454
45530SOL     OW38428   3.941  14.491   0.948
45530SOL    HW138429   4.021  14.526   0.908
45530SOL    HW238430   3.871  14.519   0.890
45531SOL     OW38431   9.495  14.652  12.543
45531SOL    HW138432   9.434  14.716  12.507
45531SOL    HW238433   9.561  14.641  12.475
45532SOL     OW38434   1.195   4.946   8.558
45532SOL    HW138435   1.220   4.863   8.517
45532SOL    HW238436   1.172   5.003   8.484
45533SOL     OW38437   2.034   9.140  12.708
45533SOL    HW138438   2.079   9.110  12.629
45533SOL    HW238439   1.990   9.220  12.682
45534SOL     OW38440   1.377   3.024   3.396
45534SOL    HW138441   1.427   3.005   3.476
45534SOL    HW238442   1.345   2.939   3.367
45535SOL     OW38443   3.403   5.912   6.901
45535SOL    HW138444   3.420   5.985   6.841
45535SOL    HW238445   3.375   5.840   6.845
45536SOL     OW38446   4.191  11.598   8.069
45536SOL    HW138447   4.227  11.521   8.112
45536SOL    HW238448   4.205  11.670   8.131
45537SOL     OW38449   6.116   9.877   7.798
45537SOL    HW138450   6.174   9.841   7.731
45537SOL    HW238451   6.169   9.878   7.877
45538SOL     OW38452   5.854  14.332   9.670
45538SOL    HW138453   5.844  14.323   9.765
45538SOL    HW238454   5.898  14.416   9.658
45539SOL     OW38455   2.768   8.992   7.767
45539SOL    HW138456   2.744   9.066   7.712
45539SOL    HW238457   2.709   8.922   7.740
45540SOL     OW38458   7.146  10.420   7.885
45540SOL    HW138459   7.105  10.353   7.940
45540SOL    HW238460   7.083  10.492   7.885
45541SOL     OW38461   9.391   6.554   8.120
45541SOL    HW138462   9.458   6.578   8.184
45541SOL    HW238463   9.311   6.543   8.171
45542SOL     OW38464  11.398   1.465   0.981
45542SOL    HW138465  11.339   1.394   0.956
45542SOL    HW238466  11.484   1.437   0.949
45543SOL     OW38467   9.007  14.502  10.177
45543SOL    HW138468   8.957  14.498  10.095
45543SOL    HW238469   9.094  14.469  10.153
45544SOL     OW38470  10.788   3.459   9.042
45544SOL    HW138471  10.799   3.499   9.128
45544SOL    HW238472  10.868   3.407   9.029
45545SOL     OW38473   7.468  11.978   6.814
45545SOL    HW138474   7.405  11.946   6.879
45545SOL    HW238475   7.461  12.073   6.819
45546SOL     OW38476   8.945   1.880  13.151
45546SOL    HW138477   8.910   1.951  13.098
45546SOL    HW238478   8.963   1.810  13.089
45547SOL     OW38479   3.147   2.051   2.111
45547SOL    HW138480   3.151   2.104   2.190
45547SOL    HW238481   3.076   1.988   2.128
45548SOL     OW38482  14.027   6.995   5.390
45548SOL    HW138483  14.028   6.961   5.301
45548SOL    HW238484  13.940   7.033   5.400
45549SOL     OW38485   8.838   9.371   5.852
45549SOL    HW138486   8.897   9.422   5.797
45549SOL    HW238487   8.858   9.280   5.830
45550SOL     OW38488  12.405  11.523   0.191
45550SOL    HW138489  12.491  11.499   0.157
45550SOL    HW238490  12.404  11.619   0.185
45551SOL     OW38491   4.612   7.404   2.810
45551SOL    HW138492   4.580   7.469   2.873
45551SOL    HW238493   4.617   7.323   2.860
45552SOL     OW38494   5.488   2.540   8.746
45552SOL    HW138495   5.434   2.497   8.812
45552SOL    HW238496   5.428   2.561   8.675
45553SOL     OW38497   3.830   3.776   8.618
45553SOL    HW138498   3.870   3.852   8.659
45553SOL    HW238499   3.737   3.798   8.611
45554SOL     OW38500  10.197  11.569  11.751
45554SOL    HW138501  10.277  11.519  11.765
45554SOL    HW238502  10.159  11.579  11.838
45555SOL     OW38503   6.684  13.527   4.879
45555SOL    HW138504   6.724  13.533   4.966
45555SOL    HW238505   6.729  13.454   4.836
45556SOL     OW38506  12.979   1.558   3.885
45556SOL    HW138507  12.942   1.619   3.822
45556SOL    HW238508  13.016   1.488   3.832
45557SOL     OW38509   1.596   1.434   1.959
45557SOL    HW138510   1.622   1.388   1.879
45557SOL    HW238511   1.523   1.383   1.993
45558SOL     OW38512   2.235   3.338   4.231
45558SOL    HW138513   2.172   3.330   4.303
45558SOL    HW238514   2.256   3.248   4.208
45559SOL     OW38515   9.596   0.683  14.330
45559SOL    HW138516   9.512   0.639  14.345
45559SOL    HW238517   9.573   0.776  14.326
45560SOL     OW38518  14.199   0.602  10.614
45560SOL    HW138519  14.224   0.594  10.706
45560SOL    HW238520  14.107   0.629  10.616
45561SOL     OW38521   3.462   5.278   1.634
45561SOL    HW138522   3.539   5.224   1.617
45561SOL    HW238523   3.495   5.352   1.685
45562SOL     OW38524  14.240   5.990  12.980
45562SOL    HW138525  14.154   5.998  12.940
45562SOL    HW238526  14.295   6.053  12.933
45563SOL     OW38527   4.498   1.897   0.636
45563SOL    HW138528   4.445   1.953   0.693
45563SOL    HW238529   4.571   1.953   0.609
45564SOL     OW38530   1.961  13.584   8.446
45564SOL    HW138531   1.876  13.627   8.442
45564SOL    HW238532   2.022  13.648   8.411
45565SOL     OW38533   3.604   5.888   5.031
45565SOL    HW138534   3.612   5.804   5.077
45565SOL    HW238535   3.691   5.904   4.995
45566SOL     OW38536  13.063  11.254  12.245
45566SOL    HW138537  13.068  11.159  12.232
45566SOL    HW238538  13.029  11.288  12.162
45567SOL     OW38539   6.852   2.966  13.125
45567SOL    HW138540   6.812   2.986  13.210
45567SOL    HW238541   6.779   2.936  13.071
45568SOL     OW38542   6.920   9.005   2.719
45568SOL    HW138543   7.002   8.967   2.750
45568SOL    HW238544   6.944   9.051   2.638
45569SOL     OW38545   8.077  12.265  11.402
45569SOL    HW138546   8.069  12.345  11.455
45569SOL    HW238547   8.144  12.286  11.337
45570SOL     OW38548   4.870   4.748   0.466
45570SOL    HW138549   4.850   4.819   0.527
45570SOL    HW238550   4.786   4.725   0.426
45571SOL     OW38551   8.725   9.414  13.572
45571SOL    HW138552   8.712   9.470  13.496
45571SOL    HW238553   8.713   9.325  13.539
45572SOL     OW38554  12.624   4.927  14.771
45572SOL    HW138555  12.661   4.946  14.857
45572SOL    HW238556  12.543   4.879  14.791
45573SOL     OW38557   1.155   0.986   6.105
45573SOL    HW138558   1.206   0.907   6.121
45573SOL    HW238559   1.212   1.042   6.053
45574SOL     OW38560  10.051  10.256  14.477
45574SOL    HW138561   9.958  10.236  14.490
45574SOL    HW238562  10.092  10.240  14.562
45575SOL     OW38563   9.534   1.164   3.665
45575SOL    HW138564   9.617   1.211   3.670
45575SOL    HW238565   9.498   1.170   3.753
45576SOL     OW38566   2.142   5.919  12.252
45576SOL    HW138567   2.234   5.937  12.231
45576SOL    HW238568   2.124   5.835  12.210
45577SOL     OW38569  10.590   1.682   0.522
45577SOL    HW138570  10.509   1.731   0.537
45577SOL    HW238571  10.562   1.591   0.514
45578SOL     OW38572   5.725   2.780  14.732
45578SOL    HW138573   5.680   2.852  14.776
45578SOL    HW238574   5.687   2.701  14.769
45579SOL     OW38575   4.240   3.544   3.313
45579SOL    HW138576   4.241   3.625   3.262
45579SOL    HW238577   4.307   3.557   3.380
45580SOL     OW38578  10.261   2.058   6.352
45580SOL    HW138579  10.180   2.083   6.395
45580SOL    HW238580  10.300   2.141   6.325
45581SOL     OW38581   0.748   7.153  13.390
45581SOL    HW138582   0.713   7.073  13.431
45581SOL    HW238583   0.733   7.222  13.455
45582SOL     OW38584   5.252   5.085  10.008
45582SOL    HW138585   5.249   5.031  10.087
45582SOL    HW238586   5.213   5.168  10.035
45583SOL     OW38587   3.494   5.663   1.059
45583SOL    HW138588   3.458   5.588   1.106
45583SOL    HW238589   3.514   5.629   0.971
45584SOL     OW38590   0.458   1.263   7.003
45584SOL    HW138591   0.438   1.193   6.942
45584SOL    HW238592   0.523   1.226   7.062
45585SOL     OW38593  14.116   7.685  10.335
45585SOL    HW138594  14.059   7.610  10.320
45585SOL    HW238595  14.079   7.728  10.412
45586SOL     OW38596  11.564   2.713   4.998
45586SOL    HW138597  11.627   2.783   5.017
45586SOL    HW238598  11.557   2.711   4.903
45587SOL     OW38599   9.567  13.542   5.999
45587SOL    HW138600   9.474  13.554   6.020
45587SOL    HW238601   9.567  13.479   5.927
45588SOL     OW38602   7.032   4.012   9.046
45588SOL    HW138603   6.965   4.080   9.057
45588SOL    HW238604   7.102   4.037   9.106
45589SOL     OW38605   7.925  10.095   4.493
45589SOL    HW138606   7.934  10.021   4.432
45589SOL    HW238607   7.908  10.053   4.577
45590SOL     OW38608   2.859   8.910   9.476
45590SOL    HW138609   2.888   9.000   9.468
45590SOL    HW238610   2.798   8.911   9.550
45591SOL     OW38611   1.605   8.135  14.704
45591SOL    HW138612   1.659   8.187  14.763
45591SOL    HW238613   1.655   8.055  14.689
45592SOL     OW38614   7.037   9.944   8.513
45592SOL    HW138615   7.057   9.885   8.441
45592SOL    HW238616   6.949   9.919   8.540
45593SOL     OW38617  10.204  14.824   4.337
45593SOL    HW138618  10.228  14.776   4.416
45593SOL    HW238619  10.125  14.779   4.305
45594SOL     OW38620   5.881   3.432   5.137
45594SOL    HW138621   5.875   3.339   5.159
45594SOL    HW238622   5.960   3.462   5.182
45595SOL     OW38623   3.095  10.675   3.052
45595SOL    HW138624   3.012  10.662   3.098
45595SOL    HW238625   3.134  10.751   3.095
45596SOL     OW38626   2.750   0.808   3.631
45596SOL    HW138627   2.759   0.739   3.565
45596SOL    HW238628   2.755   0.761   3.714
45597SOL     OW38629   5.637   4.759  10.082
45597SOL    HW138630   5.592   4.674  10.079
45597SOL    HW238631   5.714   4.744  10.137
45598SOL     OW38632  12.095  10.966  13.609
45598SOL    HW138633  12.032  10.961  13.681
45598SOL    HW238634  12.062  10.904  13.544
45599SOL     OW38635   5.705  14.309   3.195
45599SOL    HW138636   5.773  14.356   3.243
45599SOL    HW238637   5.733  14.315   3.103
45600SOL     OW38638   3.360   4.557   2.558
45600SOL    HW138639   3.301   4.511   2.498
45600SOL    HW238640   3.447   4.542   2.521
45601SOL     OW38641   5.961   5.849  14.267
45601SOL    HW138642   5.929   5.938  14.279
45601SOL    HW238643   5.882   5.795  14.265
45602SOL     OW38644   0.036   4.323  13.728
45602SOL    HW138645   0.000   4.375  13.656
45602SOL    HW238646   0.038   4.234  13.695
45603SOL     OW38647   3.610   3.534  10.171
45603SOL    HW138648   3.629   3.541  10.265
45603SOL    HW238649   3.653   3.610  10.132
45604SOL     OW38650   1.900  14.663  11.247
45604SOL    HW138651   1.968  14.620  11.299
45604SOL    HW238652   1.822  14.608  11.258
45605SOL     OW38653   3.705   7.238  11.928
45605SOL    HW138654   3.784   7.186  11.946
45605SOL    HW238655   3.738   7.315  11.882
45606SOL     OW38656   5.608   0.320   6.708
45606SOL    HW138657   5.553   0.256   6.754
45606SOL    HW238658   5.581   0.312   6.616
45607SOL     OW38659  10.588   9.858   6.031
45607SOL    HW138660  10.649   9.798   6.074
45607SOL    HW238661  10.542   9.901   6.103
45608SOL     OW38662   1.238   5.553   0.919
45608SOL    HW138663   1.283   5.511   0.993
45608SOL    HW238664   1.149   5.519   0.922
45609SOL     OW38665   9.584   2.879   6.788
45609SOL    HW138666   9.616   2.950   6.844
45609SOL    HW238667   9.493   2.867   6.814
45610SOL     OW38668   0.253   6.467  11.561
45610SOL    HW138669   0.234   6.373  11.553
45610SOL    HW238670   0.261   6.497  11.470
45611SOL     OW38671   9.648  13.267  13.478
45611SOL    HW138672   9.620  13.258  13.569
45611SOL    HW238673   9.656  13.362  13.465
45612SOL     OW38674   7.035   5.002  14.293
45612SOL    HW138675   6.987   4.949  14.356
45612SOL    HW238676   6.969   5.026  14.227
45613SOL     OW38677   3.417   1.333   0.799
45613SOL    HW138678   3.435   1.241   0.820
45613SOL    HW238679   3.357   1.329   0.725
45614SOL     OW38680   3.226  13.289  14.440
45614SOL    HW138681   3.163  13.311  14.509
45614SOL    HW238682   3.273  13.371  14.424
45615SOL     OW38683   2.224   7.349   2.240
45615SOL    HW138684   2.295   7.344   2.304
45615SOL    HW238685   2.147   7.372   2.291
45616SOL     OW38686   8.371   0.395   2.421
45616SOL    HW138687   8.398   0.374   2.510
45616SOL    HW238688   8.335   0.314   2.386
45617SOL     OW38689  14.611   5.702  13.862
45617SOL    HW138690  14.604   5.792  13.892
45617SOL    HW238691  14.683   5.665  13.913
45618SOL     OW38692   1.216   2.594   6.541
45618SOL    HW138693   1.188   2.618   6.453
45618SOL    HW238694   1.262   2.672   6.573
45619SOL     OW38695  11.165   2.698  14.858
45619SOL    HW138696  11.238   2.756  14.838
45619SOL    HW238697  11.175   2.625  14.798
45620SOL     OW38698  12.516   5.383  12.864
45620SOL    HW138699  12.511   5.464  12.813
45620SOL    HW238700  12.588   5.398  12.926
45621SOL     OW38701   6.005   9.833   6.301
45621SOL    HW138702   5.945   9.891   6.255
45621SOL    HW238703   5.949   9.778   6.356
45622SOL     OW38704   5.876  14.555  11.508
45622SOL    HW138705   5.800  14.502  11.531
45622SOL    HW238706   5.851  14.601  11.428
45623SOL     OW38707   8.582  12.507  12.342
45623SOL    HW138708   8.630  12.431  12.310
45623SOL    HW238709   8.644  12.580  12.335
45624SOL     OW38710   3.340   9.718   4.442
45624SOL    HW138711   3.410   9.733   4.506
45624SOL    HW238712   3.297   9.803   4.433
45625SOL     OW38713  11.136  11.551   0.929
45625SOL    HW138714  11.175  11.603   0.859
45625SOL    HW238715  11.104  11.472   0.885
45626SOL     OW38716   5.892   2.640   4.903
45626SOL    HW138717   5.951   2.648   4.829
45626SOL    HW238718   5.805   2.660   4.868
45627SOL     OW38719  13.910  10.191   5.489
45627SOL    HW138720  13.949  10.225   5.408
45627SOL    HW238721  13.984  10.168   5.544
45628SOL     OW38722   2.275  11.999   2.757
45628SOL    HW138723   2.274  11.916   2.804
45628SOL    HW238724   2.249  12.064   2.823
45629SOL     OW38725   4.905   3.381   0.171
45629SOL    HW138726   4.836   3.439   0.138
45629SOL    HW238727   4.962   3.366   0.095
45630SOL     OW38728   0.583   7.765  10.497
45630SOL    HW138729   0.507   7.767  10.439
45630SOL    HW238730   0.577   7.845  10.548
45631SOL     OW38731  13.609  13.547  12.004
45631SOL    HW138732  13.662  13.472  11.977
45631SOL    HW238733  13.652  13.580  12.083
45632SOL     OW38734   4.270  13.720   9.920
45632SOL    HW138735   4.259  13.736  10.013
45632SOL    HW238736   4.364  13.705   9.909
45633SOL     OW38737   3.034  12.386  13.350
45633SOL    HW138738   3.125  12.366  13.331
45633SOL    HW238739   3.035  12.475  13.387
45634SOL     OW38740   5.584   3.018  11.072
45634SOL    HW138741   5.600   2.927  11.097
45634SOL    HW238742   5.626   3.070  11.140
45635SOL     OW38743   2.290   9.698  11.296
45635SOL    HW138744   2.385   9.697  11.294
45635SOL    HW238745   2.267   9.704  11.388
45636SOL     OW38746  10.970  10.181   0.457
45636SOL    HW138747  10.880  10.212   0.453
45636SOL    HW238748  11.015  10.245   0.513
45637SOL     OW38749   6.617   3.010   6.184
45637SOL    HW138750   6.649   3.068   6.114
45637SOL    HW238751   6.529   2.985   6.156
45638SOL     OW38752   8.644   1.400   1.328
45638SOL    HW138753   8.701   1.475   1.345
45638SOL    HW238754   8.569   1.414   1.386
45639SOL     OW38755   8.554   5.229   2.311
45639SOL    HW138756   8.632   5.233   2.256
45639SOL    HW238757   8.580   5.176   2.386
45640SOL     OW38758  13.697  14.337  12.551
45640SOL    HW138759  13.753  14.388  12.492
45640SOL    HW238760  13.644  14.403  12.596
45641SOL     OW38761   6.222   3.417  11.188
45641SOL    HW138762   6.230   3.440  11.096
45641SOL    HW238763   6.129   3.433  11.208
45642SOL     OW38764  14.842   7.029   0.009
45642SOL    HW138765   0.017   7.108   0.020
45642SOL    HW238766  14.759   7.062  14.854
45643SOL     OW38767   1.357   2.566  12.352
45643SOL    HW138768   1.407   2.491  12.382
45643SOL    HW238769   1.419   2.618  12.300
45644SOL     OW38770   1.456   6.286   1.484
45644SOL    HW138771   1.463   6.311   1.392
45644SOL    HW238772   1.510   6.207   1.492
45645SOL     OW38773   1.030  14.200  10.977
45645SOL    HW138774   1.030  14.192  11.072
45645SOL    HW238775   1.088  14.130  10.947
45646SOL     OW38776   6.457   6.740   8.195
45646SOL    HW138777   6.475   6.652   8.161
45646SOL    HW238778   6.478   6.735   8.288
45647SOL     OW38779  11.481   5.248   5.638
45647SOL    HW138780  11.466   5.333   5.597
45647SOL    HW238781  11.452   5.184   5.573
45648SOL     OW38782   3.542   0.519   6.744
45648SOL    HW138783   3.503   0.605   6.761
45648SOL    HW238784   3.541   0.476   6.830
45649SOL     OW38785  13.584  12.794  13.223
45649SOL    HW138786  13.666  12.752  13.250
45649SOL    HW238787  13.569  12.861  13.290
45650SOL     OW38788   3.304   1.107   4.944
45650SOL    HW138789   3.382   1.149   4.908
45650SOL    HW238790   3.232   1.140   4.890
45651SOL     OW38791  13.960  13.887   1.654
45651SOL    HW138792  13.888  13.924   1.705
45651SOL    HW238793  14.037  13.898   1.709
45652SOL     OW38794   3.740  10.327   5.720
45652SOL    HW138795   3.757  10.232   5.720
45652SOL    HW238796   3.818  10.365   5.760
45653SOL     OW38797   6.586   1.700  14.574
45653SOL    HW138798   6.501   1.703  14.617
45653SOL    HW238799   6.643   1.655  14.636
45654SOL     OW38800  13.329  11.621   7.191
45654SOL    HW138801  13.288  11.646   7.274
45654SOL    HW238802  13.266  11.562   7.150
45655SOL     OW38803   6.333   0.498   4.271
45655SOL    HW138804   6.256   0.552   4.292
45655SOL    HW238805   6.362   0.531   4.186
45656SOL     OW38806   1.101   6.246   0.184
45656SOL    HW138807   1.130   6.335   0.165
45656SOL    HW238808   1.138   6.194   0.112
45657SOL     OW38809   0.780   9.326   5.608
45657SOL    HW138810   0.697   9.346   5.652
45657SOL    HW238811   0.846   9.370   5.660
45658SOL     OW38812  11.834  12.132  10.647
45658SOL    HW138813  11.891  12.206  10.625
45658SOL    HW238814  11.795  12.157  10.731
45659SOL     OW38815   6.387  11.273  12.580
45659SOL    HW138816   6.300  11.294  12.616
45659SOL    HW238817   6.413  11.193  12.626
45660SOL     OW38818   8.251   2.425   4.510
45660SOL    HW138819   8.295   2.442   4.426
45660SOL    HW238820   8.302   2.473   4.574
45661SOL     OW38821   2.082   3.845   0.553
45661SOL    HW138822   2.014   3.903   0.519
45661SOL    HW238823   2.081   3.860   0.648
45662SOL     OW38824  12.092   0.848   1.259
45662SOL    HW138825  12.131   0.933   1.278
45662SOL    HW238826  12.034   0.865   1.185
45663SOL     OW38827   5.465   2.499   4.006
45663SOL    HW138828   5.479   2.407   3.984
45663SOL    HW238829   5.466   2.501   4.102
45664SOL     OW38830   3.048   6.207   9.486
45664SOL    HW138831   3.030   6.230   9.395
45664SOL    HW238832   3.121   6.264   9.511
45665SOL     OW38833  13.766  14.180  13.909
45665SOL    HW138834  13.788  14.203  13.999
45665SOL    HW238835  13.735  14.089  13.914
45666SOL     OW38836  13.452   9.832   6.676
45666SOL    HW138837  13.374   9.789   6.640
45666SOL    HW238838  13.419   9.882   6.751
45667SOL     OW38839  14.369   3.093  10.551
45667SOL    HW138840  14.276   3.086  10.573
45667SOL    HW238841  14.405   3.149  10.620
45668SOL     OW38842   8.389   9.153  14.247
45668SOL    HW138843   8.365   9.213  14.317
45668SOL    HW238844   8.441   9.206  14.186
45669SOL     OW38845  14.060  10.049  13.110
45669SOL    HW138846  14.005  10.035  13.033
45669SOL    HW238847  14.085   9.961  13.138
45670SOL     OW38848  11.405   1.027   0.380
45670SOL    HW138849  11.313   1.034   0.407
45670SOL    HW238850  11.413   1.088   0.307
45671SOL     OW38851   7.335  13.662   7.331
45671SOL    HW138852   7.285  13.593   7.375
45671SOL    HW238853   7.285  13.742   7.348
45672SOL     OW38854  14.177   6.907  13.955
45672SOL    HW138855  14.254   6.850  13.966
45672SOL    HW238856  14.140   6.881  13.871
45673SOL     OW38857   7.862   6.344  13.142
45673SOL    HW138858   7.829   6.416  13.197
45673SOL    HW238859   7.898   6.281  13.204
45674SOL     OW38860   4.919   5.333   1.850
45674SOL    HW138861   4.977   5.258   1.840
45674SOL    HW238862   4.839   5.308   1.804
45675SOL     OW38863   6.863  12.083   7.406
45675SOL    HW138864   6.936  12.061   7.463
45675SOL    HW238865   6.785  12.057   7.455
45676SOL     OW38866   9.077   4.477   0.292
45676SOL    HW138867   9.137   4.479   0.367
45676SOL    HW238868   9.095   4.558   0.244
45677SOL     OW38869  13.534   7.032   2.599
45677SOL    HW138870  13.554   7.116   2.641
45677SOL    HW238871  13.615   6.982   2.605
45678SOL     OW38872   9.376   6.605   9.659
45678SOL    HW138873   9.348   6.532   9.715
45678SOL    HW238874   9.452   6.642   9.705
45679SOL     OW38875   2.197  13.600   2.707
45679SOL    HW138876   2.172  13.594   2.615
45679SOL    HW238877   2.198  13.694   2.726
45680SOL     OW38878   2.953   9.337  11.727
45680SOL    HW138879   2.927   9.379  11.645
45680SOL    HW238880   2.908   9.387  11.795
45681SOL     OW38881   1.813   6.110   7.055
45681SOL    HW138882   1.799   6.049   7.127
45681SOL    HW238883   1.880   6.170   7.087
45682SOL     OW38884   1.660   6.352  10.332
45682SOL    HW138885   1.690   6.385  10.417
45682SOL    HW238886   1.593   6.288  10.354
45683SOL     OW38887   1.985   0.313   4.266
45683SOL    HW138888   1.919   0.380   4.285
45683SOL    HW238889   2.059   0.334   4.323
45684SOL     OW38890   6.017  11.823   7.091
45684SOL    HW138891   6.078  11.892   7.070
45684SOL    HW238892   6.063  11.768   7.155
45685SOL     OW38893   6.583   8.149   1.142
45685SOL    HW138894   6.646   8.221   1.152
45685SOL    HW238895   6.503   8.182   1.181
45686SOL     OW38896   8.917   4.800  10.822
45686SOL    HW138897   8.969   4.801  10.741
45686SOL    HW238898   8.963   4.859  10.881
45687SOL     OW38899   1.729   6.444   9.060
45687SOL    HW138900   1.738   6.376   8.994
45687SOL    HW238901   1.781   6.412   9.134
45688SOL     OW38902  12.466   4.779   6.582
45688SOL    HW138903  12.448   4.730   6.502
45688SOL    HW238904  12.393   4.841   6.589
45689SOL     OW38905  11.731   9.931   4.321
45689SOL    HW138906  11.658   9.931   4.383
45689SOL    HW238907  11.733   9.841   4.288
45690SOL     OW38908   1.542  13.392   7.175
45690SOL    HW138909   1.559  13.305   7.138
45690SOL    HW238910   1.608  13.402   7.244
45691SOL     OW38911  11.035   5.347   6.519
45691SOL    HW138912  10.988   5.429   6.507
45691SOL    HW238913  10.971   5.288   6.559
45692SOL     OW38914   0.441   9.322  10.764
45692SOL    HW138915   0.405   9.281  10.844
45692SOL    HW238916   0.496   9.254  10.726
45693SOL     OW38917  12.148   8.609  10.791
45693SOL    HW138918  12.184   8.623  10.879
45693SOL    HW238919  12.102   8.525  10.797
45694SOL     OW38920   1.669   4.426   6.775
45694SOL    HW138921   1.594   4.369   6.757
45694SOL    HW238922   1.660   4.449   6.867
45695SOL     OW38923   7.970   0.068   1.028
45695SOL    HW138924   7.875   0.056   1.031
45695SOL    HW238925   8.005  14.868   1.067
45696SOL     OW38926  13.038   6.013   6.980
45696SOL    HW138927  12.995   6.094   6.949
45696SOL    HW238928  12.981   5.943   6.949
45697SOL     OW38929   0.789   0.239  10.021
45697SOL    HW138930   0.796   0.326   9.981
45697SOL    HW238931   0.805   0.254  10.114
45698SOL     OW38932   0.232   8.288   5.151
45698SOL    HW138933   0.319   8.298   5.190
45698SOL    HW238934   0.246   8.303   5.057
45699SOL     OW38935   1.108  10.397   0.970
45699SOL    HW138936   1.020  10.381   0.937
45699SOL    HW238937   1.159  10.321   0.939
45700SOL     OW38938  11.988   9.237  10.585
45700SOL    HW138939  11.902   9.278  10.588
45700SOL    HW238940  12.046   9.306  10.552
45701SOL     OW38941   3.336   0.311  12.495
45701SOL    HW138942   3.332   0.398  12.533
45701SOL    HW238943   3.406   0.316  12.430
45702SOL     OW38944  14.716  14.133   2.534
45702SOL    HW138945  14.711  14.176   2.449
45702SOL    HW238946  14.776  14.060   2.521
45703SOL     OW38947   4.612  14.101  11.164
45703SOL    HW138948   4.653  14.169  11.110
45703SOL    HW238949   4.526  14.088  11.124
45704SOL     OW38950   1.765   8.056   7.893
45704SOL    HW138951   1.794   7.969   7.864
45704SOL    HW238952   1.708   8.087   7.823
45705SOL     OW38953  11.204   6.344   6.655
45705SOL    HW138954  11.134   6.291   6.617
45705SOL    HW238955  11.284   6.297   6.633
45706SOL     OW38956   8.153   2.645  14.373
45706SOL    HW138957   8.202   2.634  14.454
45706SOL    HW238958   8.144   2.740  14.362
45707SOL     OW38959   1.107  12.010   6.622
45707SOL    HW138960   1.156  11.988   6.542
45707SOL    HW238961   1.070  11.927   6.651
45708SOL     OW38962  11.366  12.623   8.049
45708SOL    HW138963  11.313  12.586   7.979
45708SOL    HW238964  11.453  12.631   8.012
45709SOL     OW38965   8.027  10.268   8.921
45709SOL    HW138966   7.980  10.190   8.894
45709SOL    HW238967   7.993  10.338   8.865
45710SOL     OW38968  12.917   7.522   9.103
45710SOL    HW138969  12.916   7.568   9.187
45710SOL    HW238970  12.875   7.438   9.121
45711SOL     OW38971  14.364  11.983   6.685
45711SOL    HW138972  14.320  11.996   6.769
45711SOL    HW238973  14.308  12.028   6.621
45712SOL     OW38974   3.929   8.605  12.621
45712SOL    HW138975   3.986   8.600  12.697
45712SOL    HW238976   3.939   8.694  12.588
45713SOL     OW38977   6.224  11.960   6.941
45713SOL    HW138978   6.243  11.952   7.034
45713SOL    HW238979   6.237  11.871   6.907
45714SOL     OW38980   2.627   9.501   6.089
45714SOL    HW138981   2.571   9.447   6.144
45714SOL    HW238982   2.663   9.566   6.149
45715SOL     OW38983   2.761  11.980   3.225
45715SOL    HW138984   2.752  12.069   3.258
45715SOL    HW238985   2.739  11.925   3.300
45716SOL     OW38986   5.229   7.035  12.855
45716SOL    HW138987   5.235   6.960  12.796
45716SOL    HW238988   5.242   6.997  12.942
45717SOL     OW38989   6.186   9.239   7.052
45717SOL    HW138990   6.234   9.199   7.125
45717SOL    HW238991   6.216   9.192   6.975
45718SOL     OW38992   7.685  12.048   4.052
45718SOL    HW138993   7.750  12.027   3.985
45718SOL    HW238994   7.696  12.142   4.067
45719SOL     OW38995   7.815   6.336   2.157
45719SOL    HW138996   7.884   6.401   2.175
45719SOL    HW238997   7.799   6.295   2.242
45720SOL     OW38998   1.618   8.160   7.688
45720SOL    HW138999   1.691   8.165   7.626
45720SOL    HW239000   1.541   8.146   7.634
45721SOL     OW39001  13.059  14.484   2.322
45721SOL    HW139002  13.123  14.550   2.296
45721SOL    HW239003  13.110  14.420   2.372
45722SOL     OW39004   0.176   7.300   6.237
45722SOL    HW139005   0.222   7.294   6.320
45722SOL    HW239006   0.138   7.213   6.224
45723SOL     OW39007   9.889   0.621  12.402
45723SOL    HW139008   9.973   0.648  12.366
45723SOL    HW239009   9.827   0.632  12.330
45724SOL     OW39010  12.032   3.027   8.658
45724SOL    HW139011  12.014   2.959   8.722
45724SOL    HW239012  11.967   3.014   8.589
45725SOL     OW39013   7.894   3.786   2.900
45725SOL    HW139014   7.949   3.732   2.957
45725SOL    HW239015   7.861   3.856   2.957
45726SOL     OW39016  12.564  14.845  13.145
45726SOL    HW139017  12.538  14.754  13.133
45726SOL    HW239018  12.646  14.840  13.195
45727SOL     OW39019   5.255  11.197  14.421
45727SOL    HW139020   5.278  11.104  14.427
45727SOL    HW239021   5.189  11.201  14.353
45728SOL     OW39022   8.269   0.499  10.532
45728SOL    HW139023   8.202   0.434  10.556
45728SOL    HW239024   8.343   0.446  10.502
45729SOL     OW39025   6.477   2.411   9.753
45729SOL    HW139026   6.409   2.467   9.716
45729SOL    HW239027   6.504   2.456   9.833
45730SOL     OW39028   9.688   5.242  14.724
45730SOL    HW139029   9.719   5.332  14.732
45730SOL    HW239030   9.659   5.219  14.812
45731SOL     OW39031   1.015   4.142  10.027
45731SOL    HW139032   1.088   4.096  10.069
45731SOL    HW239033   1.041   4.234  10.030
45732SOL     OW39034  12.541  11.607   5.066
45732SOL    HW139035  12.489  11.649   4.998
45732SOL    HW239036  12.505  11.642   5.148
45733SOL     OW39037   8.827   5.264  10.930
45733SOL    HW139038   8.863   5.350  10.907
45733SOL    HW239039   8.758   5.249  10.865
45734SOL     OW39040   9.050  13.481  10.852
45734SOL    HW139041   9.007  13.511  10.933
45734SOL    HW239042   9.014  13.394  10.837
45735SOL     OW39043  10.329   4.570   0.468
45735SOL    HW139044  10.404   4.537   0.518
45735SOL    HW239045  10.257   4.573   0.531
45736SOL     OW39046   5.035   1.410   2.567
45736SOL    HW139047   5.009   1.436   2.479
45736SOL    HW239048   5.121   1.369   2.556
45737SOL     OW39049   7.889   8.714   1.167
45737SOL    HW139050   7.883   8.647   1.236
45737SOL    HW239051   7.810   8.701   1.114
45738SOL     OW39052  13.804  11.292   3.806
45738SOL    HW139053  13.782  11.254   3.891
45738SOL    HW239054  13.840  11.219   3.755
45739SOL     OW39055   1.301   7.620  11.554
45739SOL    HW139056   1.389   7.585  11.547
45739SOL    HW239057   1.244   7.544  11.549
45740SOL     OW39058   3.313  13.900   7.578
45740SOL    HW139059   3.248  13.930   7.642
45740SOL    HW239060   3.392  13.885   7.629
45741SOL     OW39061  14.818   8.342   3.867
45741SOL    HW139062   0.030   8.313   3.875
45741SOL    HW239063  14.785   8.339   3.957
45742SOL     OW39064   1.514  11.305  12.954
45742SOL    HW139065   1.506  11.213  12.978
45742SOL    HW239066   1.493  11.307  12.860
45743SOL     OW39067  11.230   7.226   7.097
45743SOL    HW139068  11.142   7.244   7.066
45743SOL    HW239069  11.242   7.132   7.083
45744SOL     OW39070   4.533   1.965   2.953
45744SOL    HW139071   4.583   2.022   3.012
45744SOL    HW239072   4.527   2.015   2.871
45745SOL     OW39073  12.327   9.887   9.390
45745SOL    HW139074  12.321   9.859   9.482
45745SOL    HW239075  12.415   9.861   9.363
45746SOL     OW39076   7.502   3.883   0.638
45746SOL    HW139077   7.487   3.868   0.731
45746SOL    HW239078   7.417   3.869   0.597
45747SOL     OW39079  13.402   0.093  10.011
45747SOL    HW139080  13.324   0.149  10.002
45747SOL    HW239081  13.379   0.013   9.965
45748SOL     OW39082  13.311   6.575  14.807
45748SOL    HW139083  13.389   6.628  14.790
45748SOL    HW239084  13.319   6.499  14.749
45749SOL     OW39085  11.645   5.993   3.940
45749SOL    HW139086  11.644   6.071   3.885
45749SOL    HW239087  11.589   5.930   3.894
45750SOL     OW39088   2.883  14.448   5.133
45750SOL    HW139089   2.810  14.456   5.071
45750SOL    HW239090   2.884  14.533   5.178
45751SOL     OW39091   6.421   0.890   9.221
45751SOL    HW139092   6.332   0.854   9.218
45751SOL    HW239093   6.457   0.857   9.303
45752SOL     OW39094   1.351   4.524   6.769
45752SOL    HW139095   1.381   4.515   6.859
45752SOL    HW239096   1.427   4.556   6.721
45753SOL     OW39097   2.588  11.526  13.187
45753SOL    HW139098   2.512  11.584  13.185
45753SOL    HW239099   2.663  11.586  13.186
45754SOL     OW39100  10.340  14.285   0.958
45754SOL    HW139101  10.429  14.249   0.957
45754SOL    HW239102  10.342  14.349   1.030
45755SOL     OW39103   4.506   9.677   9.573
45755SOL    HW139104   4.423   9.684   9.525
45755SOL    HW239105   4.571   9.711   9.512
45756SOL     OW39106   4.778   8.926   2.437
45756SOL    HW139107   4.871   8.937   2.457
45756SOL    HW239108   4.743   8.878   2.512
45757SOL     OW39109   5.456   0.944   4.709
45757SOL    HW139110   5.375   0.931   4.660
45757SOL    HW239111   5.519   0.884   4.669
45758SOL     OW39112  12.517  13.041  12.819
45758SOL    HW139113  12.546  13.050  12.909
45758SOL    HW239114  12.492  13.130  12.793
45759SOL     OW39115  11.828   7.947  10.570
45759SOL    HW139116  11.784   7.932  10.653
45759SOL    HW239117  11.921   7.945  10.592
45760SOL     OW39118  10.533   8.953   3.266
45760SOL    HW139119  10.528   9.043   3.298
45760SOL    HW239120  10.441   8.927   3.255
45761SOL     OW39121  10.887   5.173  12.361
45761SOL    HW139122  10.896   5.126  12.444
45761SOL    HW239123  10.958   5.140  12.307
45762SOL     OW39124  11.735  13.416   6.118
45762SOL    HW139125  11.805  13.382   6.062
45762SOL    HW239126  11.655  13.380   6.081
45763SOL     OW39127  13.840   1.938   9.187
45763SOL    HW139128  13.866   2.030   9.187
45763SOL    HW239129  13.840   1.913   9.280
45764SOL     OW39130  14.729  12.789   7.903
45764SOL    HW139131  14.672  12.807   7.829
45764SOL    HW239132  14.719  12.866   7.960
45765SOL     OW39133   2.663   8.264  10.482
45765SOL    HW139134   2.716   8.343  10.497
45765SOL    HW239135   2.727   8.197  10.456
45766SOL     OW39136  11.780   1.080  10.126
45766SOL    HW139137  11.698   1.103  10.083
45766SOL    HW239138  11.843   1.071  10.055
45767SOL     OW39139   2.260   8.008   1.583
45767SOL    HW139140   2.222   8.093   1.564
45767SOL    HW239141   2.355   8.024   1.586
45768SOL     OW39142   2.411   6.492   0.783
45768SOL    HW139143   2.501   6.464   0.766
45768SOL    HW239144   2.377   6.428   0.845
45769SOL     OW39145  13.579   5.049   7.745
45769SOL    HW139146  13.616   4.967   7.777
45769SOL    HW239147  13.624   5.117   7.796
45770SOL     OW39148   3.525   3.685   0.546
45770SOL    HW139149   3.533   3.683   0.450
45770SOL    HW239150   3.588   3.619   0.576
45771SOL     OW39151   3.392   0.474  12.140
45771SOL    HW139152   3.299   0.490  12.150
45771SOL    HW239153   3.434   0.541  12.196
45772SOL     OW39154  12.920   1.627   1.484
45772SOL    HW139155  12.865   1.566   1.435
45772SOL    HW239156  12.939   1.697   1.422
45773SOL     OW39157  12.800   7.256   2.033
45773SOL    HW139158  12.741   7.326   2.002
45773SOL    HW239159  12.779   7.246   2.125
45774SOL     OW39160   2.434   1.883  10.660
45774SOL    HW139161   2.505   1.917  10.716
45774SOL    HW239162   2.404   1.960  10.611
45775SOL     OW39163   9.794   7.486   9.909
45775SOL    HW139164   9.799   7.490  10.005
45775SOL    HW239165   9.852   7.557   9.880
45776SOL     OW39166   2.535  11.521  14.053
45776SOL    HW139167   2.461  11.559  14.006
45776SOL    HW239168   2.606  11.520  13.989
45777SOL     OW39169  11.274   5.463  10.165
45777SOL    HW139170  11.311   5.441  10.080
45777SOL    HW239171  11.301   5.553  10.180
45778SOL     OW39172   7.762   8.875  14.156
45778SOL    HW139173   7.850   8.871  14.192
45778SOL    HW239174   7.773   8.867  14.061
45779SOL     OW39175   5.815   0.270   6.982
45779SOL    HW139176   5.800   0.358   7.018
45779SOL    HW239177   5.773   0.211   7.046
45780SOL     OW39178   8.192   8.748   5.761
45780SOL    HW139179   8.131   8.789   5.700
45780SOL    HW239180   8.168   8.783   5.846
45781SOL     OW39181   7.235   6.657  14.046
45781SOL    HW139182   7.249   6.608  13.965
45781SOL    HW239183   7.252   6.594  14.116
45782SOL     OW39184   8.619   9.588  11.892
45782SOL    HW139185   8.663   9.512  11.931
45782SOL    HW239186   8.564   9.550  11.823
45783SOL     OW39187   2.263   9.406  13.857
45783SOL    HW139188   2.299   9.318  13.856
45783SOL    HW239189   2.293   9.445  13.775
45784SOL     OW39190   9.459   4.877  11.497
45784SOL    HW139191   9.498   4.964  11.493
45784SOL    HW239192   9.424   4.870  11.586
45785SOL     OW39193   6.845   1.544   3.747
45785SOL    HW139194   6.800   1.483   3.689
45785SOL    HW239195   6.913   1.492   3.789
45786SOL     OW39196   6.287  10.497  14.678
45786SOL    HW139197   6.315  10.520  14.766
45786SOL    HW239198   6.361  10.523  14.622
45787SOL     OW39199   5.894   5.650  11.350
45787SOL    HW139200   5.924   5.563  11.322
45787SOL    HW239201   5.908   5.705  11.273
45788SOL     OW39202   8.252   7.578   9.074
45788SOL    HW139203   8.253   7.647   9.141
45788SOL    HW239204   8.164   7.583   9.036
45789SOL     OW39205   5.217  14.512  12.408
45789SOL    HW139206   5.247  14.566  12.335
45789SOL    HW239207   5.296  14.471  12.441
45790SOL     OW39208   8.322   0.263   3.700
45790SOL    HW139209   8.229   0.238   3.700
45790SOL    HW239210   8.325   0.342   3.647
45791SOL     OW39211   3.467  10.817  13.810
45791SOL    HW139212   3.444  10.899  13.854
45791SOL    HW239213   3.403  10.810  13.739
45792SOL     OW39214  14.196  11.888   0.683
45792SOL    HW139215  14.208  11.928   0.770
45792SOL    HW239216  14.118  11.833   0.693
45793SOL     OW39217   9.045   6.998  12.768
45793SOL    HW139218   9.014   6.948  12.693
45793SOL    HW239219   9.131   6.960  12.788
45794SOL     OW39220   1.278   5.161   6.269
45794SOL    HW139221   1.366   5.152   6.303
45794SOL    HW239222   1.233   5.081   6.296
45795SOL     OW39223   2.154   5.692   6.634
45795SOL    HW139224   2.223   5.753   6.606
45795SOL    HW239225   2.072   5.735   6.609
45796SOL     OW39226   3.852   3.040  12.645
45796SOL    HW139227   3.882   3.035  12.555
45796SOL    HW239228   3.766   2.997  12.644
45797SOL     OW39229  14.811   8.757  14.507
45797SOL    HW139230  14.801   8.795  14.594
45797SOL    HW239231  14.721   8.736  14.480
45798SOL     OW39232  14.228   9.024   6.668
45798SOL    HW139233  14.199   9.064   6.750
45798SOL    HW239234  14.235   8.931   6.688
45799SOL     OW39235  14.788  10.052  14.698
45799SOL    HW139236  14.855  10.096  14.646
45799SOL    HW239237  14.707  10.066  14.649
45800SOL     OW39238  14.817   1.222   3.871
45800SOL    HW139239  14.872   1.175   3.807
45800SOL    HW239240  14.868   1.300   3.893
45801SOL     OW39241  13.511   3.696  14.765
45801SOL    HW139242  13.556   3.619  14.800
45801SOL    HW239243  13.571   3.769  14.784
45802SOL     OW39244   3.257   9.047   0.993
45802SOL    HW139245   3.282   8.958   0.967
45802SOL    HW239246   3.188   9.035   1.058
45803SOL     OW39247  11.499   1.840  14.805
45803SOL    HW139248  11.483   1.913  14.866
45803SOL    HW239249  11.544   1.881  14.731
45804SOL     OW39250   8.695   1.789   9.215
45804SOL    HW139251   8.709   1.696   9.232
45804SOL    HW239252   8.730   1.833   9.293
45805SOL     OW39253   3.851  11.784   3.062
45805SOL    HW139254   3.806  11.789   2.977
45805SOL    HW239255   3.787  11.815   3.125
45806SOL     OW39256  14.655  14.085   0.040
45806SOL    HW139257  14.671  14.004   0.088
45806SOL    HW239258  14.634  14.149   0.108
45807SOL     OW39259  14.006   6.663  13.460
45807SOL    HW139260  13.984   6.621  13.544
45807SOL    HW239261  13.923   6.691  13.424
45808SOL     OW39262  10.942   3.750   3.614
45808SOL    HW139263  10.879   3.800   3.666
45808SOL    HW239264  10.889   3.688   3.564
45809SOL     OW39265   1.696   1.127   7.694
45809SOL    HW139266   1.719   1.208   7.739
45809SOL    HW239267   1.669   1.067   7.764
45810SOL     OW39268   4.626   5.389   1.183
45810SOL    HW139269   4.599   5.427   1.100
45810SOL    HW239270   4.560   5.322   1.201
45811SOL     OW39271   0.150   3.999  10.704
45811SOL    HW139272   0.089   4.067  10.732
45811SOL    HW239273   0.093   3.927  10.676
45812SOL     OW39274   5.577   8.159   5.984
45812SOL    HW139275   5.641   8.167   6.054
45812SOL    HW239276   5.524   8.083   6.008
45813SOL     OW39277   1.543  10.926   2.575
45813SOL    HW139278   1.467  10.943   2.631
45813SOL    HW239279   1.618  10.936   2.633
45814SOL     OW39280   5.632   2.895  10.104
45814SOL    HW139281   5.623   2.806  10.138
45814SOL    HW239282   5.685   2.885  10.025
45815SOL     OW39283  13.150   5.519   4.829
45815SOL    HW139284  13.099   5.522   4.748
45815SOL    HW239285  13.099   5.463   4.888
45816SOL     OW39286  10.037   6.963   4.764
45816SOL    HW139287  10.055   7.052   4.792
45816SOL    HW239288  10.004   6.973   4.674
45817SOL     OW39289   3.958   3.025  14.316
45817SOL    HW139290   4.027   3.078  14.275
45817SOL    HW239291   3.876   3.068  14.291
45818SOL     OW39292   4.400   1.666  14.428
45818SOL    HW139293   4.392   1.750  14.474
45818SOL    HW239294   4.436   1.690  14.342
45819SOL     OW39295   8.799  12.085  12.586
45819SOL    HW139296   8.758  12.040  12.512
45819SOL    HW239297   8.854  12.019  12.628
45820SOL     OW39298  10.845   7.187  11.446
45820SOL    HW139299  10.788   7.194  11.523
45820SOL    HW239300  10.789   7.148  11.379
45821SOL     OW39301   0.238   0.268   0.451
45821SOL    HW139302   0.253   0.186   0.404
45821SOL    HW239303   0.296   0.331   0.409
45822SOL     OW39304   6.911   3.300   7.873
45822SOL    HW139305   6.976   3.369   7.890
45822SOL    HW239306   6.868   3.328   7.793
45823SOL     OW39307   6.929  11.166   8.125
45823SOL    HW139308   6.871  11.229   8.084
45823SOL    HW239309   6.879  11.084   8.127
45824SOL     OW39310  11.537   1.916  10.116
45824SOL    HW139311  11.632   1.925  10.118
45824SOL    HW239312  11.516   1.858  10.189
45825SOL     OW39313   4.793   6.377   4.129
45825SOL    HW139314   4.839   6.365   4.046
45825SOL    HW239315   4.708   6.414   4.103
45826SOL     OW39316   7.006  14.680   3.157
45826SOL    HW139317   6.994  14.589   3.131
45826SOL    HW239318   7.022  14.676   3.252
45827SOL     OW39319   7.329  14.315   6.994
45827SOL    HW139320   7.320  14.244   6.930
45827SOL    HW239321   7.290  14.391   6.951
45828SOL     OW39322   2.583   1.061  13.384
45828SOL    HW139323   2.632   0.983  13.359
45828SOL    HW239324   2.492   1.035  13.380
45829SOL     OW39325  10.797   3.061   7.195
45829SOL    HW139326  10.832   2.990   7.248
45829SOL    HW239327  10.817   3.140   7.245
45830SOL     OW39328   9.286   8.693   2.587
45830SOL    HW139329   9.314   8.752   2.516
45830SOL    HW239330   9.257   8.614   2.542
45831SOL     OW39331   4.487   8.625   5.864
45831SOL    HW139332   4.554   8.588   5.807
45831SOL    HW239333   4.495   8.574   5.945
45832SOL     OW39334  10.479   9.560   1.230
45832SOL    HW139335  10.547   9.618   1.265
45832SOL    HW239336  10.504   9.473   1.261
45833SOL     OW39337   9.824   1.155   9.699
45833SOL    HW139338   9.732   1.182   9.695
45833SOL    HW239339   9.823   1.071   9.744
45834SOL     OW39340   8.722   1.521   3.970
45834SOL    HW139341   8.761   1.497   4.054
45834SOL    HW239342   8.739   1.446   3.914
45835SOL     OW39343   9.910   9.695   5.450
45835SOL    HW139344   9.869   9.609   5.461
45835SOL    HW239345   9.928   9.700   5.356
45836SOL     OW39346   0.770   2.207   1.811
45836SOL    HW139347   0.682   2.198   1.773
45836SOL    HW239348   0.755   2.216   1.905
45837SOL     OW39349   7.825   0.124   2.096
45837SOL    HW139350   7.773   0.171   2.031
45837SOL    HW239351   7.773   0.127   2.176
45838SOL     OW39352   0.269   4.617  10.348
45838SOL    HW139353   0.296   4.675  10.277
45838SOL    HW239354   0.254   4.533  10.306
45839SOL     OW39355   6.659   3.287  10.098
45839SOL    HW139356   6.672   3.337  10.179
45839SOL    HW239357   6.744   3.291  10.054
45840SOL     OW39358  10.438   5.888   9.275
45840SOL    HW139359  10.472   5.976   9.288
45840SOL    HW239360  10.509   5.840   9.233
45841SOL     OW39361   5.892   4.261  10.848
45841SOL    HW139362   5.910   4.167  10.840
45841SOL    HW239363   5.803   4.272  10.815
45842SOL     OW39364   7.393  14.195   4.235
45842SOL    HW139365   7.388  14.290   4.245
45842SOL    HW239366   7.416  14.181   4.143
45843SOL     OW39367  14.021   6.233  13.407
45843SOL    HW139368  14.004   6.180  13.329
45843SOL    HW239369  14.078   6.178  13.460
45844SOL     OW39370   6.127   8.653   6.334
45844SOL    HW139371   6.052   8.693   6.288
45844SOL    HW239372   6.204   8.694   6.294
45845SOL     OW39373   2.252  14.696   9.065
45845SOL    HW139374   2.264  14.780   9.109
45845SOL    HW239375   2.192  14.715   8.994
45846SOL     OW39376   8.651   3.333   0.242
45846SOL    HW139377   8.692   3.362   0.160
45846SOL    HW239378   8.557   3.339   0.225
45847SOL     OW39379   7.020   2.332   3.438
45847SOL    HW139380   7.081   2.391   3.394
45847SOL    HW239381   6.957   2.390   3.481
45848SOL     OW39382  11.297   0.273  10.128
45848SOL    HW139383  11.282   0.280  10.034
45848SOL    HW239384  11.357   0.199  10.137
45849SOL     OW39385   2.885   4.521   4.125
45849SOL    HW139386   2.980   4.512   4.135
45849SOL    HW239387   2.851   4.512   4.214
45850SOL     OW39388   2.649  12.844   4.842
45850SOL    HW139389   2.722  12.858   4.781
45850SOL    HW239390   2.612  12.760   4.817
45851SOL     OW39391  14.584   9.107   8.859
45851SOL    HW139392  14.644   9.144   8.924
45851SOL    HW239393  14.599   9.012   8.865
45852SOL     OW39394   8.641   4.201   5.445
45852SOL    HW139395   8.634   4.158   5.529
45852SOL    HW239396   8.557   4.185   5.402
45853SOL     OW39397  11.453  13.553   7.317
45853SOL    HW139398  11.508  13.546   7.239
45853SOL    HW239399  11.389  13.621   7.295
45854SOL     OW39400  11.329   2.645   4.347
45854SOL    HW139401  11.234   2.637   4.351
45854SOL    HW239402  11.344   2.734   4.316
45855SOL     OW39403   9.869   4.565   2.018
45855SOL    HW139404   9.880   4.508   1.941
45855SOL    HW239405   9.959   4.585   2.045
45856SOL     OW39406   7.078   1.151   4.117
45856SOL    HW139407   7.055   1.244   4.111
45856SOL    HW239408   7.007   1.106   4.071
45857SOL     OW39409   1.250   8.882   7.906
45857SOL    HW139410   1.167   8.919   7.936
45857SOL    HW239411   1.316   8.942   7.938
45858SOL     OW39412   4.629   4.832  12.776
45858SOL    HW139413   4.698   4.768  12.795
45858SOL    HW239414   4.569   4.825  12.850
45859SOL     OW39415   8.361   1.713   8.294
45859SOL    HW139416   8.292   1.653   8.324
45859SOL    HW239417   8.371   1.694   8.201
45860SOL     OW39418   4.281  10.132   3.064
45860SOL    HW139419   4.367  10.116   3.102
45860SOL    HW239420   4.298  10.191   2.990
45861SOL     OW39421  14.015   1.415  12.415
45861SOL    HW139422  13.935   1.455  12.379
45861SOL    HW239423  14.075   1.489  12.426
45862SOL     OW39424   6.355   5.162   1.328
45862SOL    HW139425   6.365   5.213   1.248
45862SOL    HW239426   6.434   5.182   1.378
45863SOL     OW39427  10.648   2.603   0.561
45863SOL    HW139428  10.612   2.630   0.646
45863SOL    HW239429  10.594   2.648   0.497
45864SOL     OW39430   0.585  13.114   3.867
45864SOL    HW139431   0.577  13.055   3.942
45864SOL    HW239432   0.494  13.132   3.843
45865SOL     OW39433  12.841   5.985   9.334
45865SOL    HW139434  12.836   5.909   9.276
45865SOL    HW239435  12.911   6.039   9.297
45866SOL     OW39436   8.146   3.198  14.092
45866SOL    HW139437   8.064   3.187  14.043
45866SOL    HW239438   8.215   3.176  14.029
45867SOL     OW39439   1.605  14.085  14.577
45867SOL    HW139440   1.650  14.051  14.655
45867SOL    HW239441   1.586  14.007  14.525
45868SOL     OW39442   2.121   7.350   1.965
45868SOL    HW139443   2.204   7.317   1.930
45868SOL    HW239444   2.108   7.301   2.046
45869SOL     OW39445   6.330   6.231  12.784
45869SOL    HW139446   6.302   6.321  12.770
45869SOL    HW239447   6.250   6.184  12.807
45870SOL     OW39448  11.878  13.606   0.702
45870SOL    HW139449  11.902  13.658   0.625
45870SOL    HW239450  11.961  13.572   0.735
45871SOL     OW39451   0.450  11.159   1.867
45871SOL    HW139452   0.533  11.203   1.885
45871SOL    HW239453   0.437  11.100   1.941
45872SOL     OW39454  14.862  13.639   4.154
45872SOL    HW139455  14.821  13.644   4.241
45872SOL    HW239456   0.061  13.694   4.161
45873SOL     OW39457   5.808  14.835  10.854
45873SOL    HW139458   5.733   0.014  10.852
45873SOL    HW239459   5.882   0.010  10.826
45874SOL     OW39460   0.501   3.753   4.899
45874SOL    HW139461   0.464   3.729   4.814
45874SOL    HW239462   0.446   3.709   4.963
45875SOL     OW39463   3.544  10.749   4.330
45875SOL    HW139464   3.474  10.687   4.350
45875SOL    HW239465   3.593  10.758   4.412
45876SOL     OW39466   7.694  14.275   8.830
45876SOL    HW139467   7.647  14.337   8.774
45876SOL    HW239468   7.646  14.192   8.819
45877SOL     OW39469  12.597  13.279   4.013
45877SOL    HW139470  12.518  13.258   4.063
45877SOL    HW239471  12.583  13.239   3.927
45878SOL     OW39472   3.119  13.340   0.730
45878SOL    HW139473   3.087  13.385   0.808
45878SOL    HW239474   3.050  13.353   0.665
45879SOL     OW39475   8.513  10.555   3.093
45879SOL    HW139476   8.609  10.548   3.101
45879SOL    HW239477   8.479  10.505   3.167
45880SOL     OW39478  12.931   7.349   8.294
45880SOL    HW139479  12.949   7.424   8.351
45880SOL    HW239480  12.835   7.345   8.290
45881SOL     OW39481  12.694   8.290  11.534
45881SOL    HW139482  12.742   8.343  11.470
45881SOL    HW239483  12.644   8.353  11.585
45882SOL     OW39484   2.419   4.354  10.431
45882SOL    HW139485   2.414   4.309  10.515
45882SOL    HW239486   2.378   4.439  10.447
45883SOL     OW39487   0.948   5.986   5.833
45883SOL    HW139488   0.905   5.985   5.918
45883SOL    HW239489   0.993   5.901   5.827
45884SOL     OW39490   6.015   8.297   8.065
45884SOL    HW139491   6.041   8.272   7.976
45884SOL    HW239492   6.059   8.382   8.079
45885SOL     OW39493  13.403   8.366   3.814
45885SOL    HW139494  13.367   8.286   3.776
45885SOL    HW239495  13.482   8.337   3.861
45886SOL     OW39496   9.643  10.734  11.358
45886SOL    HW139497   9.676  10.807  11.410
45886SOL    HW239498   9.720  10.700  11.313
45887SOL     OW39499   9.752   1.560   0.402
45887SOL    HW139500   9.663   1.574   0.433
45887SOL    HW239501   9.751   1.473   0.362
45888SOL     OW39502  13.151  12.757  12.746
45888SOL    HW139503  13.128  12.846  12.774
45888SOL    HW239504  13.207  12.770  12.670
45889SOL     OW39505   0.718   6.304   4.067
45889SOL    HW139506   0.641   6.255   4.097
45889SOL    HW239507   0.757   6.340   4.147
45890SOL     OW39508  13.395   8.453   2.052
45890SOL    HW139509  13.412   8.448   2.146
45890SOL    HW239510  13.399   8.546   2.031
45891SOL     OW39511   2.484   7.066   9.342
45891SOL    HW139512   2.415   6.999   9.350
45891SOL    HW239513   2.488   7.106   9.429
45892SOL     OW39514   3.079   4.167   9.941
45892SOL    HW139515   3.113   4.182  10.029
45892SOL    HW239516   3.015   4.236   9.928
45893SOL     OW39517  11.786   3.241  12.915
45893SOL    HW139518  11.709   3.291  12.942
45893SOL    HW239519  11.779   3.157  12.961
45894SOL     OW39520  10.865   4.139   1.683
45894SOL    HW139521  10.788   4.177   1.643
45894SOL    HW239522  10.936   4.200   1.661
45895SOL     OW39523  12.440   5.216   3.315
45895SOL    HW139524  12.440   5.291   3.375
45895SOL    HW239525  12.378   5.240   3.246
45896SOL     OW39526   7.062   1.520   1.183
45896SOL    HW139527   7.085   1.496   1.273
45896SOL    HW239528   6.971   1.493   1.173
45897SOL     OW39529   1.076   2.830   2.223
45897SOL    HW139530   1.061   2.905   2.280
45897SOL    HW239531   1.116   2.867   2.144
45898SOL     OW39532  14.769  12.836   2.564
45898SOL    HW139533  14.733  12.758   2.523
45898SOL    HW239534  14.833  12.868   2.500
45899SOL     OW39535  14.806  10.599   4.864
45899SOL    HW139536  14.789  10.505   4.854
45899SOL    HW239537   0.000  10.603   4.925
45900SOL     OW39538   1.443   1.553   0.146
45900SOL    HW139539   1.457   1.621   0.213
45900SOL    HW239540   1.348   1.540   0.145
45901SOL     OW39541   5.539  14.143  10.150
45901SOL    HW139542   5.503  14.210  10.207
45901SOL    HW239543   5.509  14.165  10.063
45902SOL     OW39544   7.257   6.382   4.275
45902SOL    HW139545   7.342   6.402   4.314
45902SOL    HW239546   7.253   6.437   4.197
45903SOL     OW39547   2.308  14.727   1.843
45903SOL    HW139548   2.257  14.648   1.859
45903SOL    HW239549   2.269  14.766   1.765
45904SOL     OW39550   7.583  14.162  14.856
45904SOL    HW139551   7.598  14.139  14.764
45904SOL    HW239552   7.514  14.102   0.006
45905SOL     OW39553   9.714   0.979   0.152
45905SOL    HW139554   9.684   0.902   0.104
45905SOL    HW239555   9.664   1.052   0.114
45906SOL     OW39556   2.116   9.616   8.607
45906SOL    HW139557   2.173   9.570   8.545
45906SOL    HW239558   2.122   9.708   8.581
45907SOL     OW39559   0.563  10.513   1.360
45907SOL    HW139560   0.596  10.442   1.305
45907SOL    HW239561   0.477  10.482   1.388
45908SOL     OW39562   3.829   2.898   7.095
45908SOL    HW139563   3.746   2.871   7.134
45908SOL    HW239564   3.875   2.816   7.077
45909SOL     OW39565   5.740  10.347  12.817
45909SOL    HW139566   5.789  10.420  12.778
45909SOL    HW239567   5.652  10.354  12.780
45910SOL     OW39568   8.801  10.992  10.648
45910SOL    HW139569   8.709  10.967  10.658
45910SOL    HW239570   8.820  10.978  10.555
45911SOL     OW39571   9.220   0.719   8.791
45911SOL    HW139572   9.209   0.625   8.782
45911SOL    HW239573   9.153   0.757   8.734
45912SOL     OW39574  10.957  10.172  13.571
45912SOL    HW139575  11.021  10.156  13.502
45912SOL    HW239576  10.940  10.266  13.567
45913SOL     OW39577  13.027  11.166   3.759
45913SOL    HW139578  13.046  11.093   3.701
45913SOL    HW239579  13.039  11.244   3.704
45914SOL     OW39580   0.203   8.084   0.127
45914SOL    HW139581   0.230   8.156   0.071
45914SOL    HW239582   0.283   8.034   0.142
45915SOL     OW39583  11.415  11.921   2.897
45915SOL    HW139584  11.474  11.847   2.909
45915SOL    HW239585  11.452  11.991   2.951
45916SOL     OW39586   9.020   8.385  12.617
45916SOL    HW139587   9.004   8.295  12.643
45916SOL    HW239588   8.936   8.417  12.585
45917SOL     OW39589   1.881  12.436  13.733
45917SOL    HW139590   1.813  12.477  13.786
45917SOL    HW239591   1.834  12.394  13.661
45918SOL     OW39592   9.651  12.497   6.389
45918SOL    HW139593   9.667  12.585   6.422
45918SOL    HW239594   9.738  12.460   6.376
45919SOL     OW39595   0.721   8.923   3.482
45919SOL    HW139596   0.664   8.951   3.410
45919SOL    HW239597   0.809   8.927   3.445
45920SOL     OW39598   4.940   9.758   4.171
45920SOL    HW139599   4.937   9.757   4.075
45920SOL    HW239600   4.871   9.697   4.198
45921SOL     OW39601   1.115   6.531   5.498
45921SOL    HW139602   1.055   6.598   5.530
45921SOL    HW239603   1.202   6.568   5.512
45922SOL     OW39604   3.451  10.279   7.475
45922SOL    HW139605   3.455  10.244   7.387
45922SOL    HW239606   3.511  10.354   7.474
45923SOL     OW39607   7.281   9.004   8.402
45923SOL    HW139608   7.203   9.057   8.421
45923SOL    HW239609   7.346   9.068   8.372
45924SOL     OW39610  14.270   5.926   0.543
45924SOL    HW139611  14.228   5.867   0.481
45924SOL    HW239612  14.357   5.887   0.558
45925SOL     OW39613   2.075   1.497   9.274
45925SOL    HW139614   2.105   1.449   9.197
45925SOL    HW239615   2.112   1.449   9.348
45926SOL     OW39616   2.193   0.499  11.593
45926SOL    HW139617   2.187   0.421  11.538
45926SOL    HW239618   2.285   0.506  11.616
45927SOL     OW39619   4.034  13.486   3.504
45927SOL    HW139620   4.060  13.463   3.593
45927SOL    HW239621   3.962  13.427   3.484
45928SOL     OW39622   2.435  12.264  13.738
45928SOL    HW139623   2.420  12.238  13.647
45928SOL    HW239624   2.485  12.345  13.731
45929SOL     OW39625   9.569   5.514   9.549
45929SOL    HW139626   9.576   5.565   9.468
45929SOL    HW239627   9.625   5.560   9.611
45930SOL     OW39628   1.226   2.362   4.962
45930SOL    HW139629   1.184   2.319   4.888
45930SOL    HW239630   1.275   2.292   5.006
45931SOL     OW39631  13.255   2.182  11.369
45931SOL    HW139632  13.328   2.149  11.316
45931SOL    HW239633  13.270   2.145  11.456
45932SOL     OW39634  11.772  14.146   8.443
45932SOL    HW139635  11.727  14.102   8.514
45932SOL    HW239636  11.817  14.220   8.484
45933SOL     OW39637   4.740   0.254   3.839
45933SOL    HW139638   4.798   0.290   3.771
45933SOL    HW239639   4.656   0.296   3.824
45934SOL     OW39640  14.097   2.367   8.897
45934SOL    HW139641  14.114   2.423   8.972
45934SOL    HW239642  14.185   2.348   8.862
45935SOL     OW39643   7.906   3.448  12.627
45935SOL    HW139644   7.863   3.441  12.712
45935SOL    HW239645   7.883   3.367  12.581
45936SOL     OW39646   9.236  12.628  14.220
45936SOL    HW139647   9.221  12.534  14.223
45936SOL    HW239648   9.326  12.637  14.188
45937SOL     OW39649   8.261  10.345   8.110
45937SOL    HW139650   8.279  10.325   8.018
45937SOL    HW239651   8.166  10.334   8.118
45938SOL     OW39652  11.725   1.987   7.427
45938SOL    HW139653  11.756   1.938   7.351
45938SOL    HW239654  11.643   2.026   7.399
45939SOL     OW39655  13.955   2.867   3.511
45939SOL    HW139656  14.029   2.848   3.569
45939SOL    HW239657  13.915   2.946   3.549
45940SOL     OW39658  14.529  13.261   2.441
45940SOL    HW139659  14.531  13.171   2.473
45940SOL    HW239660  14.437  13.279   2.422
45941SOL     OW39661   6.158   1.051   6.308
45941SOL    HW139662   6.077   1.037   6.358
45941SOL    HW239663   6.148   1.139   6.272
45942SOL     OW39664   1.241  11.469   8.310
45942SOL    HW139665   1.230  11.375   8.295
45942SOL    HW239666   1.172  11.493   8.371
45943SOL     OW39667   9.070   9.461   9.465
45943SOL    HW139668   9.071   9.368   9.440
45943SOL    HW239669   9.013   9.503   9.400
45944SOL     OW39670   7.383  14.179  12.487
45944SOL    HW139671   7.298  14.176  12.441
45944SOL    HW239672   7.429  14.101  12.455
45945SOL     OW39673  10.838   7.312   6.559
45945SOL    HW139674  10.847   7.406   6.576
45945SOL    HW239675  10.782   7.280   6.630
45946SOL     OW39676   4.713   4.375   0.905
45946SOL    HW139677   4.688   4.415   0.822
45946SOL    HW239678   4.631   4.366   0.953
45947SOL     OW39679   1.796   6.209   0.366
45947SOL    HW139680   1.704   6.229   0.346
45947SOL    HW239681   1.846   6.264   0.305
45948SOL     OW39682   3.434  10.571   9.014
45948SOL    HW139683   3.524  10.577   9.047
45948SOL    HW239684   3.442  10.582   8.920
45949SOL     OW39685  10.206   6.456  11.585
45949SOL    HW139686  10.168   6.456  11.497
45949SOL    HW239687  10.179   6.539  11.623
45950SOL     OW39688   7.267  11.376   8.083
45950SOL    HW139689   7.362  11.387   8.080
45950SOL    HW239690   7.254  11.293   8.129
45951SOL     OW39691   1.200   5.529   4.341
45951SOL    HW139692   1.221   5.535   4.248
45951SOL    HW239693   1.205   5.435   4.361
45952SOL     OW39694   9.285  14.755   9.941
45952SOL    HW139695   9.318  14.845   9.939
45952SOL    HW239696   9.190  14.764   9.942
45953SOL     OW39697   4.852  11.055   1.871
45953SOL    HW139698   4.844  11.013   1.785
45953SOL    HW239699   4.933  11.105   1.865
45954SOL     OW39700  11.953   8.780   4.764
45954SOL    HW139701  11.884   8.835   4.801
45954SOL    HW239702  11.908   8.704   4.728
45955SOL     OW39703   2.607  13.370   9.612
45955SOL    HW139704   2.651  13.368   9.527
45955SOL    HW239705   2.584  13.462   9.624
45956SOL     OW39706   5.023   5.973  10.214
45956SOL    HW139707   5.095   6.036  10.212
45956SOL    HW239708   5.044   5.916  10.288
45957SOL     OW39709  12.753   9.103  12.443
45957SOL    HW139710  12.728   9.091  12.351
45957SOL    HW239711  12.814   9.177  12.443
45958SOL     OW39712   2.377   8.690   9.378
45958SOL    HW139713   2.422   8.627   9.321
45958SOL    HW239714   2.290   8.698   9.340
45959SOL     OW39715   9.210   5.397   7.409
45959SOL    HW139716   9.210   5.302   7.420
45959SOL    HW239717   9.246   5.411   7.321
45960SOL     OW39718   9.488   5.062   4.744
45960SOL    HW139719   9.417   5.047   4.683
45960SOL    HW239720   9.445   5.090   4.825
45961SOL     OW39721   7.446   8.508  12.556
45961SOL    HW139722   7.514   8.570  12.581
45961SOL    HW239723   7.493   8.428  12.532
45962SOL     OW39724   8.786  12.409  10.808
45962SOL    HW139725   8.771  12.503  10.815
45962SOL    HW239726   8.784  12.391  10.714
45963SOL     OW39727   1.296  11.256   2.160
45963SOL    HW139728   1.247  11.338   2.163
45963SOL    HW239729   1.244  11.195   2.213
45964SOL     OW39730  10.287   1.383  11.322
45964SOL    HW139731  10.325   1.471  11.314
45964SOL    HW239732  10.195   1.399  11.346
45965SOL     OW39733  10.841   0.506  10.469
45965SOL    HW139734  10.807   0.422  10.439
45965SOL    HW239735  10.773   0.539  10.528
45966SOL     OW39736   2.232  12.393   7.719
45966SOL    HW139737   2.211  12.465   7.779
45966SOL    HW239738   2.262  12.323   7.777
45967SOL     OW39739   6.148   4.548   1.244
45967SOL    HW139740   6.075   4.525   1.187
45967SOL    HW239741   6.107   4.591   1.319
45968SOL     OW39742   5.770   0.713   7.290
45968SOL    HW139743   5.690   0.667   7.316
45968SOL    HW239744   5.824   0.715   7.370
45969SOL     OW39745   2.601   0.904   5.937
45969SOL    HW139746   2.668   0.971   5.925
45969SOL    HW239747   2.591   0.864   5.850
45970SOL     OW39748   4.954   5.397   9.252
45970SOL    HW139749   4.927   5.308   9.230
45970SOL    HW239750   4.934   5.449   9.174
45971SOL     OW39751  14.509   1.493  13.835
45971SOL    HW139752  14.535   1.413  13.790
45971SOL    HW239753  14.503   1.559  13.765
45972SOL     OW39754   9.939   1.902  14.010
45972SOL    HW139755   9.869   1.937  13.955
45972SOL    HW239756  10.018   1.913  13.957
45973SOL     OW39757   8.181   0.355  14.690
45973SOL    HW139758   8.116   0.292  14.659
45973SOL    HW239759   8.219   0.391  14.611
45974SOL     OW39760  12.891   0.676   9.640
45974SOL    HW139761  12.967   0.639   9.683
45974SOL    HW239762  12.816   0.645   9.691
45975SOL     OW39763  10.691  11.967  14.133
45975SOL    HW139764  10.767  11.997  14.183
45975SOL    HW239765  10.678  11.877  14.160
45976SOL     OW39766   8.093   2.132   4.674
45976SOL    HW139767   8.188   2.120   4.676
45976SOL    HW239768   8.074   2.192   4.746
45977SOL     OW39769  14.030  10.069  13.841
45977SOL    HW139770  13.949  10.089  13.887
45977SOL    HW239771  14.099  10.096  13.902
45978SOL     OW39772   6.894   4.995  10.150
45978SOL    HW139773   6.951   5.047  10.208
45978SOL    HW239774   6.806   5.026  10.171
45979SOL     OW39775   4.728   8.686  12.106
45979SOL    HW139776   4.801   8.648  12.058
45979SOL    HW239777   4.653   8.632  12.082
45980SOL     OW39778   5.772   3.969   8.077
45980SOL    HW139779   5.713   3.998   8.007
45980SOL    HW239780   5.749   3.877   8.091
45981SOL     OW39781  13.802  14.381  11.890
45981SOL    HW139782  13.792  14.397  11.796
45981SOL    HW239783  13.741  14.443  11.930
45982SOL     OW39784   6.520   0.308  14.136
45982SOL    HW139785   6.608   0.347  14.143
45982SOL    HW239786   6.535   0.224  14.092
45983SOL     OW39787   6.486   7.528   2.173
45983SOL    HW139788   6.494   7.588   2.098
45983SOL    HW239789   6.428   7.574   2.234
45984SOL     OW39790   2.727   6.126   7.234
45984SOL    HW139791   2.687   6.185   7.171
45984SOL    HW239792   2.813   6.164   7.251
45985SOL     OW39793   0.010   4.688  11.307
45985SOL    HW139794   0.052   4.702  11.392
45985SOL    HW239795   0.023   4.595  11.288
45986SOL     OW39796   4.769   2.282   2.417
45986SOL    HW139797   4.694   2.337   2.436
45986SOL    HW239798   4.770   2.274   2.322
45987SOL     OW39799   6.710  10.284  11.410
45987SOL    HW139800   6.684  10.369  11.374
45987SOL    HW239801   6.718  10.227  11.333
45988SOL     OW39802  11.524  10.739   2.639
45988SOL    HW139803  11.590  10.691   2.689
45988SOL    HW239804  11.441  10.715   2.681
45989SOL     OW39805   1.214   0.964  10.158
45989SOL    HW139806   1.199   0.874  10.131
45989SOL    HW239807   1.231   0.958  10.252
45990SOL     OW39808   5.560   4.295   9.660
45990SOL    HW139809   5.575   4.202   9.677
45990SOL    HW239810   5.584   4.339   9.741
45991SOL     OW39811   1.879   0.013   4.893
45991SOL    HW139812   1.913   0.037   4.979
45991SOL    HW239813   1.909  14.803   4.880
45992SOL     OW39814  13.112  14.715   1.691
45992SOL    HW139815  13.188  14.688   1.743
45992SOL    HW239816  13.150  14.745   1.608
45993SOL     OW39817   7.032   3.104   7.626
45993SOL    HW139818   7.099   3.169   7.604
45993SOL    HW239819   6.958   3.155   7.660
45994SOL     OW39820   8.125  14.592   7.382
45994SOL    HW139821   8.113  14.679   7.420
45994SOL    HW239822   8.099  14.603   7.290
45995SOL     OW39823   8.517   5.557  14.032
45995SOL    HW139824   8.444   5.596  13.983
45995SOL    HW239825   8.560   5.499  13.969
45996SOL     OW39826   7.462   3.470   0.955
45996SOL    HW139827   7.367   3.466   0.943
45996SOL    HW239828   7.488   3.378   0.967
45997SOL     OW39829   5.571   4.538  14.295
45997SOL    HW139830   5.564   4.460  14.241
45997SOL    HW239831   5.482   4.572  14.301
45998SOL     OW39832   4.456  13.887   6.958
45998SOL    HW139833   4.389  13.945   6.995
45998SOL    HW239834   4.423  13.799   6.974
45999SOL     OW39835  13.125   2.879  12.070
45999SOL    HW139836  13.162   2.792  12.086
45999SOL    HW239837  13.031   2.864  12.059
46000SOL     OW39838  12.146   7.397   2.196
46000SOL    HW139839  12.236   7.387   2.225
46000SOL    HW239840  12.109   7.308   2.200
46001SOL     OW39841   6.912   1.906   6.951
46001SOL    HW139842   6.964   1.973   6.908
46001SOL    HW239843   6.873   1.855   6.880
46002SOL     OW39844   1.463   5.777   6.588
46002SOL    HW139845   1.541   5.774   6.642
46002SOL    HW239846   1.422   5.691   6.600
46003SOL     OW39847  11.915  13.260   9.738
46003SOL    HW139848  11.915  13.356   9.745
46003SOL    HW239849  11.932  13.243   9.645
46004SOL     OW39850   7.937   7.066   5.741
46004SOL    HW139851   7.945   7.107   5.655
46004SOL    HW239852   7.982   6.982   5.733
46005SOL     OW39853   2.729  11.733   9.794
46005SOL    HW139854   2.822  11.731   9.773
46005SOL    HW239855   2.719  11.809   9.851
46006SOL     OW39856  12.887   8.912  14.242
46006SOL    HW139857  12.945   8.836  14.245
46006SOL    HW239858  12.800   8.876  14.229
46007SOL     OW39859   4.670  13.097   8.209
46007SOL    HW139860   4.713  13.127   8.289
46007SOL    HW239861   4.723  13.023   8.179
46008SOL     OW39862  13.387   0.816  14.177
46008SOL    HW139863  13.436   0.795  14.097
46008SOL    HW239864  13.420   0.753  14.242
46009SOL     OW39865   1.381   4.154   5.930
46009SOL    HW139866   1.437   4.218   5.885
46009SOL    HW239867   1.313   4.133   5.866
46010SOL     OW39868   3.338  12.974   3.889
46010SOL    HW139869   3.419  13.021   3.912
46010SOL    HW239870   3.329  12.987   3.795
46011SOL     OW39871   4.918  11.395  12.465
46011SOL    HW139872   5.012  11.414  12.472
46011SOL    HW239873   4.914  11.306  12.431
46012SOL     OW39874   4.256   6.178   3.065
46012SOL    HW139875   4.341   6.181   3.022
46012SOL    HW239876   4.217   6.096   3.036
46013SOL     OW39877  12.459   1.461   9.146
46013SOL    HW139878  12.543   1.441   9.105
46013SOL    HW239879  12.397   1.464   9.073
46014SOL     OW39880  10.841   9.213  12.576
46014SOL    HW139881  10.807   9.206  12.665
46014SOL    HW239882  10.935   9.227  12.588
46015SOL     OW39883  10.437   3.954   2.880
46015SOL    HW139884  10.460   4.022   2.816
46015SOL    HW239885  10.379   3.895   2.832
46016SOL     OW39886  13.550  11.911   9.638
46016SOL    HW139887  13.492  11.944   9.706
46016SOL    HW239888  13.515  11.825   9.615
46017SOL     OW39889   4.026   3.924  14.141
46017SOL    HW139890   3.950   3.968  14.180
46017SOL    HW239891   4.099   3.984  14.157
46018SOL     OW39892   1.201  13.578  11.650
46018SOL    HW139893   1.215  13.506  11.588
46018SOL    HW239894   1.164  13.648  11.598
46019SOL     OW39895   3.310   1.761   4.974
46019SOL    HW139896   3.325   1.752   4.880
46019SOL    HW239897   3.369   1.696   5.014
46020SOL     OW39898   8.179   7.732  13.581
46020SOL    HW139899   8.268   7.703  13.562
46020SOL    HW239900   8.184   7.828  13.578
46021SOL     OW39901   4.451  14.687  11.855
46021SOL    HW139902   4.515  14.659  11.920
46021SOL    HW239903   4.500  14.693  11.773
46022SOL     OW39904   3.971   9.158  10.927
46022SOL    HW139905   3.889   9.156  10.977
46022SOL    HW239906   4.032   9.106  10.980
46023SOL     OW39907   4.469  11.190   8.152
46023SOL    HW139908   4.446  11.133   8.080
46023SOL    HW239909   4.550  11.153   8.188
46024SOL     OW39910   9.875   9.658   8.626
46024SOL    HW139911   9.924   9.578   8.605
46024SOL    HW239912   9.786   9.639   8.595
46025SOL     OW39913  13.378   5.177   6.788
46025SOL    HW139914  13.415   5.180   6.876
46025SOL    HW239915  13.369   5.084   6.768
46026SOL     OW39916  12.657   7.169   8.513
46026SOL    HW139917  12.714   7.148   8.439
46026SOL    HW239918  12.666   7.263   8.525
46027SOL     OW39919   8.911   9.368  13.219
46027SOL    HW139920   8.882   9.283  13.250
46027SOL    HW239921   8.856   9.431  13.266
46028SOL     OW39922  10.707   1.589  12.482
46028SOL    HW139923  10.632   1.538  12.450
46028SOL    HW239924  10.697   1.589  12.577
46029SOL     OW39925   6.469  10.758   3.873
46029SOL    HW139926   6.535  10.815   3.834
46029SOL    HW239927   6.475  10.774   3.967
46030SOL     OW39928   5.376  12.665   6.284
46030SOL    HW139929   5.295  12.700   6.321
46030SOL    HW239930   5.399  12.593   6.343
46031SOL     OW39931   1.842   6.632   9.808
46031SOL    HW139932   1.856   6.644   9.714
46031SOL    HW239933   1.927   6.650   9.848
46032SOL     OW39934   9.769   8.533  10.860
46032SOL    HW139935   9.716   8.509  10.937
46032SOL    HW239936   9.708   8.578  10.802
46033SOL     OW39937  12.544   1.302   0.272
46033SOL    HW139938  12.520   1.211   0.254
46033SOL    HW239939  12.503   1.321   0.356
46034SOL     OW39940   0.593  13.749   3.474
46034SOL    HW139941   0.588  13.840   3.502
46034SOL    HW239942   0.650  13.750   3.397
46035SOL     OW39943  13.473   5.303   1.917
46035SOL    HW139944  13.489   5.316   1.823
46035SOL    HW239945  13.437   5.386   1.947
46036SOL     OW39946   7.319   7.697  12.093
46036SOL    HW139947   7.350   7.787  12.092
46036SOL    HW239948   7.397   7.644  12.074
46037SOL     OW39949  11.813  14.769   8.613
46037SOL    HW139950  11.831  14.794   8.523
46037SOL    HW239951  11.766  14.686   8.607
46038SOL     OW39952   9.576  12.293   1.583
46038SOL    HW139953   9.494  12.244   1.595
46038SOL    HW239954   9.640  12.246   1.635
46039SOL     OW39955   0.505  10.128  12.541
46039SOL    HW139956   0.530  10.154  12.452
46039SOL    HW239957   0.503  10.032  12.538
46040SOL     OW39958   5.069   8.598  14.189
46040SOL    HW139959   5.151   8.644  14.209
46040SOL    HW239960   5.059   8.609  14.094
46041SOL     OW39961  10.897   8.893   2.507
46041SOL    HW139962  10.828   8.856   2.452
46041SOL    HW239963  10.961   8.927   2.445
46042SOL     OW39964   8.278   3.398   8.025
46042SOL    HW139965   8.372   3.405   8.012
46042SOL    HW239966   8.257   3.466   8.088
46043SOL     OW39967  10.708  14.523  14.094
46043SOL    HW139968  10.765  14.509  14.169
46043SOL    HW239969  10.640  14.455  14.102
46044SOL     OW39970   6.739   8.293   3.117
46044SOL    HW139971   6.804   8.250   3.173
46044SOL    HW239972   6.680   8.222   3.090
46045SOL     OW39973   2.189  13.966   0.603
46045SOL    HW139974   2.140  14.047   0.620
46045SOL    HW239975   2.280  13.995   0.592
46046SOL     OW39976   9.652   8.876   7.372
46046SOL    HW139977   9.732   8.881   7.425
46046SOL    HW239978   9.672   8.810   7.305
46047SOL     OW39979   3.282   7.534   7.864
46047SOL    HW139980   3.261   7.472   7.794
46047SOL    HW239981   3.377   7.531   7.871
46048SOL     OW39982   8.769   1.456  13.713
46048SOL    HW139983   8.746   1.523  13.648
46048SOL    HW239984   8.855   1.483  13.746
46049SOL     OW39985  13.828   7.014  12.537
46049SOL    HW139986  13.886   6.938  12.527
46049SOL    HW239987  13.887   7.088  12.552
46050SOL     OW39988   9.879   1.256  13.797
46050SOL    HW139989   9.974   1.242  13.791
46050SOL    HW239990   9.866   1.293  13.884
46051SOL     OW39991   6.517  10.274   5.182
46051SOL    HW139992   6.567  10.354   5.165
46051SOL    HW239993   6.581  10.204   5.170
46052SOL     OW39994  14.601   5.927  14.720
46052SOL    HW139995  14.593   5.990  14.791
46052SOL    HW239996  14.602   5.980  14.640
46053SOL     OW39997  10.187   1.297  14.618
46053SOL    HW139998  10.253   1.332  14.559
46053SOL    HW239999  10.125   1.252  14.560
46054SOL     OW40000   7.303   9.143  14.175
46054SOL    HW140001   7.326   9.052  14.155
46054SOL    HW240002   7.267   9.140  14.263
46055SOL     OW40003   6.111   5.300  10.377
46055SOL    HW140004   6.171   5.322  10.306
46055SOL    HW240005   6.063   5.224  10.345
46056SOL     OW40006  11.705   8.505   7.718
46056SOL    HW140007  11.734   8.444   7.650
46056SOL    HW240008  11.746   8.588   7.694
46057SOL     OW40009   4.467  12.679   8.029
46057SOL    HW140010   4.532  12.669   7.960
46057SOL    HW240011   4.511  12.649   8.108
46058SOL     OW40012   3.110  14.643   7.615
46058SOL    HW140013   3.023  14.604   7.605
46058SOL    HW240014   3.137  14.663   7.525
46059SOL     OW40015  11.715  13.559  11.045
46059SOL    HW140016  11.639  13.559  11.103
46059SOL    HW240017  11.754  13.646  11.057
46060SOL     OW40018  12.098   2.404   7.367
46060SOL    HW140019  12.186   2.392   7.405
46060SOL    HW240020  12.050   2.325   7.392
46061SOL     OW40021   1.220  11.348  14.715
46061SOL    HW140022   1.238  11.377  14.626
46061SOL    HW240023   1.167  11.269  14.703
46062SOL     OW40024   6.547   6.723  11.494
46062SOL    HW140025   6.512   6.670  11.566
46062SOL    HW240026   6.477   6.721  11.428
46063SOL     OW40027   1.677  12.103   6.705
46063SOL    HW140028   1.706  12.083   6.615
46063SOL    HW240029   1.582  12.098   6.701
46064SOL     OW40030   8.585   3.077   9.960
46064SOL    HW140031   8.531   3.018  10.013
46064SOL    HW240032   8.523   3.114   9.896
46065SOL     OW40033   1.805   5.772   7.113
46065SOL    HW140034   1.867   5.700   7.099
46065SOL    HW240035   1.726   5.730   7.145
46066SOL     OW40036   8.837  12.136   9.579
46066SOL    HW140037   8.826  12.231   9.583
46066SOL    HW240038   8.852  12.110   9.670
46067SOL     OW40039  13.808  11.641  12.981
46067SOL    HW140040  13.846  11.719  12.940
46067SOL    HW240041  13.872  11.571  12.965
46068SOL     OW40042   5.839   0.820  13.552
46068SOL    HW140043   5.825   0.725  13.556
46068SOL    HW240044   5.756   0.854  13.519
46069SOL     OW40045   4.888  13.733   8.525
46069SOL    HW140046   4.839  13.747   8.443
46069SOL    HW240047   4.979  13.729   8.497
46070SOL     OW40048   7.758  13.328  13.508
46070SOL    HW140049   7.847  13.352  13.533
46070SOL    HW240050   7.756  13.337  13.413
46071SOL     OW40051   8.664   7.954   6.016
46071SOL    HW140052   8.622   7.888   6.071
46071SOL    HW240053   8.738   7.985   6.069
46072SOL     OW40054  10.251   4.075  11.006
46072SOL    HW140055  10.330   4.047  10.960
46072SOL    HW240056  10.185   4.082  10.937
46073SOL     OW40057   0.579   1.080   1.908
46073SOL    HW140058   0.484   1.081   1.918
46073SOL    HW240059   0.613   1.101   1.995
46074SOL     OW40060  14.505   5.786   6.381
46074SOL    HW140061  14.522   5.867   6.332
46074SOL    HW240062  14.483   5.721   6.315
46075SOL     OW40063  14.560   5.333   9.363
46075SOL    HW140064  14.531   5.243   9.353
46075SOL    HW240065  14.544   5.373   9.277
46076SOL     OW40066   6.033   1.020   0.567
46076SOL    HW140067   6.036   1.046   0.659
46076SOL    HW240068   6.025   0.925   0.569
46077SOL     OW40069  12.668  11.985  12.670
46077SOL    HW140070  12.641  12.069  12.633
46077SOL    HW240071  12.607  11.970  12.742
46078SOL     OW40072   4.877  13.901   4.058
46078SOL    HW140073   4.842  13.879   4.145
46078SOL    HW240074   4.835  13.984   4.036
46079SOL     OW40075  13.414   8.226   6.376
46079SOL    HW140076  13.372   8.142   6.394
46079SOL    HW240077  13.477   8.207   6.307
46080SOL     OW40078  14.827  12.610   6.155
46080SOL    HW140079  14.846  12.517   6.162
46080SOL    HW240080   0.022  12.653   6.200
46081SOL     OW40081   5.721   0.098  10.121
46081SOL    HW140082   5.789   0.118  10.057
46081SOL    HW240083   5.682   0.183  10.143
46082SOL     OW40084  11.993  14.495   6.153
46082SOL    HW140085  11.929  14.424   6.167
46082SOL    HW240086  11.983  14.551   6.230
46083SOL     OW40087   8.244   7.217   2.241
46083SOL    HW140088   8.245   7.213   2.337
46083SOL    HW240089   8.187   7.290   2.220
46084SOL     OW40090   1.455  14.399  11.324
46084SOL    HW140091   1.540  14.368  11.293
46084SOL    HW240092   1.402  14.408  11.245
46085SOL     OW40093   4.837  14.775   4.021
46085SOL    HW140094   4.839  14.834   4.097
46085SOL    HW240095   4.894  14.703   4.046
46086SOL     OW40096   2.022   7.846   2.438
46086SOL    HW140097   1.927   7.833   2.437
46086SOL    HW240098   2.050   7.827   2.349
46087SOL     OW40099   2.758   3.572   0.635
46087SOL    HW140100   2.734   3.659   0.667
46087SOL    HW240101   2.746   3.514   0.710
46088SOL     OW40102  13.156   6.001   9.750
46088SOL    HW140103  13.171   6.089   9.783
46088SOL    HW240104  13.174   5.943   9.824
46089SOL     OW40105  11.720   5.461   5.567
46089SOL    HW140106  11.740   5.400   5.638
46089SOL    HW240107  11.759   5.421   5.490
46090SOL     OW40108   8.799   6.441  11.881
46090SOL    HW140109   8.769   6.362  11.926
46090SOL    HW240110   8.724   6.500  11.885
46091SOL     OW40111  10.222   7.276   0.034
46091SOL    HW140112  10.148   7.254  14.858
46091SOL    HW240113  10.258   7.356  14.876
46092SOL     OW40114   6.940  14.602   8.432
46092SOL    HW140115   6.915  14.690   8.462
46092SOL    HW240116   7.004  14.572   8.497
46093SOL     OW40117  13.116   5.487   6.161
46093SOL    HW140118  13.150   5.493   6.072
46093SOL    HW240119  13.193   5.471   6.215
46094SOL     OW40120   9.106   0.782   6.297
46094SOL    HW140121   9.186   0.741   6.263
46094SOL    HW240122   9.130   0.874   6.310
46095SOL     OW40123  10.932   3.296   1.167
46095SOL    HW140124  10.845   3.315   1.132
46095SOL    HW240125  10.982   3.375   1.151
46096SOL     OW40126   7.812   1.811  13.334
46096SOL    HW140127   7.821   1.735  13.391
46096SOL    HW240128   7.892   1.861  13.348
46097SOL     OW40129   9.376  12.571  14.805
46097SOL    HW140130   9.422  12.496  14.767
46097SOL    HW240131   9.400  12.644  14.749
46098SOL     OW40132   6.507   7.448  12.174
46098SOL    HW140133   6.591   7.405  12.191
46098SOL    HW240134   6.490   7.431  12.081
46099SOL     OW40135  10.226   7.032   0.373
46099SOL    HW140136  10.231   6.952   0.426
46099SOL    HW240137  10.133   7.047   0.360
46100SOL     OW40138  12.899   2.905  13.418
46100SOL    HW140139  12.815   2.951  13.425
46100SOL    HW240140  12.892   2.834  13.482
46101SOL     OW40141  10.295  10.871  11.871
46101SOL    HW140142  10.319  10.963  11.861
46101SOL    HW240143  10.350  10.840  11.942
46102SOL     OW40144   9.502  11.745   3.255
46102SOL    HW140145   9.525  11.732   3.163
46102SOL    HW240146   9.513  11.839   3.270
46103SOL     OW40147   9.294   1.093   2.315
46103SOL    HW140148   9.322   1.176   2.275
46103SOL    HW240149   9.218   1.066   2.263
46104SOL     OW40150  11.920   4.300   4.325
46104SOL    HW140151  11.851   4.358   4.292
46104SOL    HW240152  11.974   4.281   4.248
46105SOL     OW40153   7.859  13.253   6.082
46105SOL    HW140154   7.879  13.319   6.148
46105SOL    HW240155   7.935  13.195   6.083
46106SOL     OW40156   6.457   8.995  10.098
46106SOL    HW140157   6.506   9.077  10.101
46106SOL    HW240158   6.455   8.972  10.005
46107SOL     OW40159   0.946   1.588   5.436
46107SOL    HW140160   1.013   1.602   5.369
46107SOL    HW240161   0.969   1.504   5.475
46108SOL     OW40162   5.551   7.801   9.312
46108SOL    HW140163   5.612   7.810   9.239
46108SOL    HW240164   5.534   7.891   9.341
46109SOL     OW40165   0.947   2.002   1.413
46109SOL    HW140166   0.892   2.069   1.454
46109SOL    HW240167   1.034   2.016   1.451
46110SOL     OW40168   3.432  11.668  11.442
46110SOL    HW140169   3.390  11.643  11.525
46110SOL    HW240170   3.519  11.698  11.468
46111SOL     OW40171   5.971  11.911   1.145
46111SOL    HW140172   5.962  11.987   1.088
46111SOL    HW240173   6.065  11.894   1.147
46112SOL     OW40174   5.691  11.298   9.604
46112SOL    HW140175   5.751  11.233   9.640
46112SOL    HW240176   5.748  11.368   9.571
46113SOL     OW40177  12.876   1.127  11.049
46113SOL    HW140178  12.922   1.211  11.039
46113SOL    HW240179  12.787   1.151  11.075
46114SOL     OW40180   8.264   9.796  12.427
46114SOL    HW140181   8.216   9.805  12.509
46114SOL    HW240182   8.205   9.746  12.370
46115SOL     OW40183   4.985  11.629  12.846
46115SOL    HW140184   4.901  11.638  12.802
46115SOL    HW240185   5.006  11.536  12.839
46116SOL     OW40186   7.632   9.367   2.118
46116SOL    HW140187   7.584   9.439   2.079
46116SOL    HW240188   7.598   9.288   2.075
46117SOL     OW40189  14.434  10.423   4.923
46117SOL    HW140190  14.474  10.500   4.963
46117SOL    HW240191  14.506  10.379   4.878
46118SOL     OW40192  11.706  14.668  12.744
46118SOL    HW140193  11.712  14.572  12.740
46118SOL    HW240194  11.793  14.697  12.773
46119SOL     OW40195   2.046  13.619   1.839
46119SOL    HW140196   2.015  13.612   1.749
46119SOL    HW240197   1.975  13.663   1.886
46120SOL     OW40198   3.676   1.603   1.832
46120SOL    HW140199   3.711   1.546   1.899
46120SOL    HW240200   3.626   1.669   1.880
46121SOL     OW40201   8.883   8.109  11.031
46121SOL    HW140202   8.804   8.163  11.024
46121SOL    HW240203   8.952   8.171  11.058
46122SOL     OW40204   1.493   8.717   3.126
46122SOL    HW140205   1.474   8.810   3.140
46122SOL    HW240206   1.514   8.683   3.212
46123SOL     OW40207   8.909  10.402  10.706
46123SOL    HW140208   8.901  10.496  10.726
46123SOL    HW240209   8.824  10.378  10.668
46124SOL     OW40210   8.852   4.163   6.884
46124SOL    HW140211   8.874   4.162   6.977
46124SOL    HW240212   8.757   4.168   6.882
46125SOL     OW40213   3.692  13.641  12.405
46125SOL    HW140214   3.683  13.567  12.466
46125SOL    HW240215   3.700  13.717  12.462
46126SOL     OW40216  11.234   4.797  12.216
46126SOL    HW140217  11.227   4.863  12.147
46126SOL    HW240218  11.153   4.805  12.265
46127SOL     OW40219  13.965  12.069   0.451
46127SOL    HW140220  13.933  12.097   0.536
46127SOL    HW240221  14.018  12.142   0.419
46128SOL     OW40222  12.812   8.060   7.185
46128SOL    HW140223  12.827   8.033   7.276
46128SOL    HW240224  12.721   8.035   7.167
46129SOL     OW40225   7.863  12.274   5.486
46129SOL    HW140226   7.937  12.325   5.454
46129SOL    HW240227   7.786  12.327   5.466
46130SOL     OW40228   4.554   3.935   9.690
46130SOL    HW140229   4.504   3.947   9.771
46130SOL    HW240230   4.623   4.001   9.695
46131SOL     OW40231  12.806  10.487   9.771
46131SOL    HW140232  12.800  10.539   9.851
46131SOL    HW240233  12.737  10.522   9.714
46132SOL     OW40234   8.924   7.534  14.373
46132SOL    HW140235   8.833   7.538  14.402
46132SOL    HW240236   8.973   7.514  14.453
46133SOL     OW40237   0.933  11.038  13.271
46133SOL    HW140238   0.959  11.000  13.355
46133SOL    HW240239   0.838  11.029  13.270
46134SOL     OW40240   8.665  10.699  10.386
46134SOL    HW140241   8.625  10.631  10.331
46134SOL    HW240242   8.631  10.682  10.474
46135SOL     OW40243   6.108   7.123   3.955
46135SOL    HW140244   6.123   7.060   3.885
46135SOL    HW240245   6.167   7.196   3.935
46136SOL     OW40246   6.574   8.441   2.204
46136SOL    HW140247   6.541   8.517   2.253
46136SOL    HW240248   6.659   8.422   2.244
46137SOL     OW40249   8.411   3.140  12.512
46137SOL    HW140250   8.423   3.150  12.607
46137SOL    HW240251   8.324   3.175  12.495
46138SOL     OW40252   0.144  12.268  12.598
46138SOL    HW140253   0.118  12.195  12.542
46138SOL    HW240254   0.114  12.244  12.686
46139SOL     OW40255  14.599   3.239  10.004
46139SOL    HW140256  14.622   3.244   9.911
46139SOL    HW240257  14.506   3.264  10.007
46140SOL     OW40258   3.159   7.349  14.550
46140SOL    HW140259   3.124   7.302  14.474
46140SOL    HW240260   3.153   7.287  14.622
46141SOL     OW40261   0.949  11.601   0.364
46141SOL    HW140262   1.022  11.548   0.332
46141SOL    HW240263   0.897  11.541   0.418
46142SOL     OW40264   5.442   5.767   7.532
46142SOL    HW140265   5.433   5.840   7.471
46142SOL    HW240266   5.526   5.782   7.575
46143SOL     OW40267   0.161   5.249  11.547
46143SOL    HW140268   0.189   5.191  11.617
46143SOL    HW240269   0.242   5.271  11.500
46144SOL     OW40270   9.566   1.519  14.217
46144SOL    HW140271   9.599   1.454  14.279
46144SOL    HW240272   9.529   1.588  14.272
46145SOL     OW40273  12.889   5.387  11.301
46145SOL    HW140274  12.897   5.349  11.388
46145SOL    HW240275  12.795   5.386  11.283
46146SOL     OW40276  11.828   8.772   9.020
46146SOL    HW140277  11.818   8.677   9.025
46146SOL    HW240278  11.858   8.798   9.107
46147SOL     OW40279   0.045   3.468   8.724
46147SOL    HW140280   0.043   3.461   8.819
46147SOL    HW240281   0.048   3.378   8.693
46148SOL     OW40282  11.686   3.269   4.803
46148SOL    HW140283  11.590   3.275   4.808
46148SOL    HW240284  11.706   3.293   4.712
46149SOL     OW40285   2.412  13.801   9.398
46149SOL    HW140286   2.347  13.859   9.437
46149SOL    HW240287   2.495  13.832   9.432
46150SOL     OW40288   0.356  12.842  10.093
46150SOL    HW140289   0.426  12.786  10.059
46150SOL    HW240290   0.372  12.847  10.187
46151SOL     OW40291   1.175  10.922   7.483
46151SOL    HW140292   1.141  10.988   7.544
46151SOL    HW240293   1.160  10.959   7.396
46152SOL     OW40294   9.299   0.095   1.841
46152SOL    HW140295   9.225   0.043   1.873
46152SOL    HW240296   9.301   0.078   1.747
46153SOL     OW40297  10.531   3.204   0.889
46153SOL    HW140298  10.543   3.290   0.927
46153SOL    HW240299  10.473   3.158   0.951
46154SOL     OW40300  11.101   4.715  11.121
46154SOL    HW140301  11.163   4.690  11.052
46154SOL    HW240302  11.035   4.767  11.076
46155SOL     OW40303   7.684   9.211   6.795
46155SOL    HW140304   7.778   9.199   6.781
46155SOL    HW240305   7.677   9.293   6.844
46156SOL     OW40306   5.344   7.390  14.222
46156SOL    HW140307   5.416   7.388  14.158
46156SOL    HW240308   5.309   7.301  14.220
46157SOL     OW40309  14.068  11.479   2.927
46157SOL    HW140310  14.133  11.536   2.970
46157SOL    HW240311  14.119  11.409   2.888
46158SOL     OW40312  12.612   1.887   9.828
46158SOL    HW140313  12.551   1.922   9.763
46158SOL    HW240314  12.600   1.943   9.905
46159SOL     OW40315  11.376   2.655  13.098
46159SOL    HW140316  11.339   2.731  13.143
46159SOL    HW240317  11.302   2.612  13.056
46160SOL     OW40318   7.626   6.450  11.628
46160SOL    HW140319   7.655   6.376  11.681
46160SOL    HW240320   7.593   6.409  11.547
46161SOL     OW40321   1.977   8.464   7.801
46161SOL    HW140322   1.886   8.471   7.831
46161SOL    HW240323   2.021   8.413   7.868
46162SOL     OW40324   0.391  12.702   6.097
46162SOL    HW140325   0.308  12.720   6.142
46162SOL    HW240326   0.458  12.739   6.154
46163SOL     OW40327  14.407   9.820  12.770
46163SOL    HW140328  14.393   9.889  12.835
46163SOL    HW240329  14.323   9.775  12.763
46164SOL     OW40330   8.189   5.863   9.995
46164SOL    HW140331   8.198   5.947   9.949
46164SOL    HW240332   8.131   5.811   9.938
46165SOL     OW40333  11.221   9.330   9.464
46165SOL    HW140334  11.295   9.357   9.410
46165SOL    HW240335  11.204   9.240   9.437
46166SOL     OW40336   0.307   2.549  11.996
46166SOL    HW140337   0.299   2.615  11.927
46166SOL    HW240338   0.217   2.534  12.025
46167SOL     OW40339   4.707   4.219   8.980
46167SOL    HW140340   4.781   4.209   9.039
46167SOL    HW240341   4.734   4.287   8.918
46168SOL     OW40342   1.744   2.240   1.792
46168SOL    HW140343   1.761   2.147   1.776
46168SOL    HW240344   1.799   2.262   1.867
46169SOL     OW40345   4.210   2.127  13.158
46169SOL    HW140346   4.271   2.201  13.155
46169SOL    HW240347   4.153   2.145  13.233
46170SOL     OW40348  12.360   9.143   6.973
46170SOL    HW140349  12.279   9.127   7.023
46170SOL    HW240350  12.388   9.056   6.945
46171SOL     OW40351   6.585  11.670   1.046
46171SOL    HW140352   6.588  11.597   0.984
46171SOL    HW240353   6.589  11.628   1.133
46172SOL     OW40354   9.154  11.861   2.873
46172SOL    HW140355   9.196  11.910   2.802
46172SOL    HW240356   9.089  11.806   2.828
46173SOL     OW40357   1.426   3.654   5.729
46173SOL    HW140358   1.381   3.574   5.757
46173SOL    HW240359   1.356   3.708   5.692
46174SOL     OW40360   1.779   1.486  10.592
46174SOL    HW140361   1.835   1.427  10.541
46174SOL    HW240362   1.813   1.574  10.573
46175SOL     OW40363   6.992   7.640   3.667
46175SOL    HW140364   7.073   7.598   3.639
46175SOL    HW240365   6.923   7.585   3.630
46176SOL     OW40366  14.346  11.431  10.787
46176SOL    HW140367  14.360  11.378  10.709
46176SOL    HW240368  14.347  11.368  10.859
46177SOL     OW40369   2.586  10.042  13.900
46177SOL    HW140370   2.495  10.012  13.893
46177SOL    HW240371   2.625  10.021  13.816
46178SOL     OW40372   0.320   1.984   3.337
46178SOL    HW140373   0.354   2.030   3.413
46178SOL    HW240374   0.331   2.045   3.264
46179SOL     OW40375  14.707  13.243  13.004
46179SOL    HW140376  14.797  13.214  12.989
46179SOL    HW240377  14.707  13.336  12.982
46180SOL     OW40378   7.255   5.666   7.242
46180SOL    HW140379   7.295   5.688   7.158
46180SOL    HW240380   7.222   5.577   7.230
46181SOL     OW40381  14.205   7.009   3.426
46181SOL    HW140382  14.130   7.053   3.464
46181SOL    HW240383  14.236   7.069   3.358
46182SOL     OW40384   4.060  12.347   4.732
46182SOL    HW140385   4.117  12.270   4.735
46182SOL    HW240386   4.083  12.391   4.651
46183SOL     OW40387   4.138   3.929  11.690
46183SOL    HW140388   4.080   3.998  11.659
46183SOL    HW240389   4.166   3.883  11.611
46184SOL     OW40390   6.059  13.818   6.161
46184SOL    HW140391   6.049  13.796   6.253
46184SOL    HW240392   6.146  13.859   6.155
46185SOL     OW40393   3.021   6.299  11.695
46185SOL    HW140394   2.957   6.328  11.629
46185SOL    HW240395   3.061   6.221  11.656
46186SOL     OW40396   8.599  13.510  12.690
46186SOL    HW140397   8.584  13.519  12.596
46186SOL    HW240398   8.530  13.451  12.720
46187SOL     OW40399   1.400   7.453   0.945
46187SOL    HW140400   1.456   7.484   0.873
46187SOL    HW240401   1.350   7.381   0.906
46188SOL     OW40402  14.712  10.885   2.349
46188SOL    HW140403  14.674  10.823   2.287
46188SOL    HW240404  14.798  10.849   2.370
46189SOL     OW40405   0.291  11.460   8.700
46189SOL    HW140406   0.209  11.413   8.715
46189SOL    HW240407   0.340  11.404   8.640
46190SOL     OW40408  13.929   6.074   9.889
46190SOL    HW140409  13.935   6.070   9.793
46190SOL    HW240410  13.911   6.166   9.907
46191SOL     OW40411  11.364  13.213   5.769
46191SOL    HW140412  11.328  13.126   5.754
46191SOL    HW240413  11.287  13.271   5.769
46192SOL     OW40414   9.708   2.290   4.695
46192SOL    HW140415   9.796   2.305   4.729
46192SOL    HW240416   9.650   2.330   4.760
46193SOL     OW40417  14.588   2.161  13.898
46193SOL    HW140418  14.547   2.074  13.894
46193SOL    HW240419  14.617   2.169  13.989
46194SOL     OW40420   8.599  13.358   3.777
46194SOL    HW140421   8.636  13.346   3.690
46194SOL    HW240422   8.543  13.281   3.790
46195SOL     OW40423   4.554   9.312   7.803
46195SOL    HW140424   4.521   9.395   7.769
46195SOL    HW240425   4.582   9.264   7.725
46196SOL     OW40426  11.999  12.225   1.327
46196SOL    HW140427  11.934  12.167   1.367
46196SOL    HW240428  12.063  12.242   1.397
46197SOL     OW40429   8.779   4.905   6.815
46197SOL    HW140430   8.804   4.812   6.821
46197SOL    HW240431   8.684   4.904   6.808
46198SOL     OW40432   8.362  10.723  10.611
46198SOL    HW140433   8.388  10.631  10.604
46198SOL    HW240434   8.271  10.721  10.639
46199SOL     OW40435   7.679   9.556   5.292
46199SOL    HW140436   7.741   9.621   5.260
46199SOL    HW240437   7.599   9.572   5.242
46200SOL     OW40438   7.999   0.295   2.253
46200SOL    HW140439   7.980   0.221   2.195
46200SOL    HW240440   8.039   0.360   2.195
46201SOL     OW40441   7.287   7.887   1.980
46201SOL    HW140442   7.220   7.826   1.950
46201SOL    HW240443   7.350   7.890   1.907
46202SOL     OW40444   5.308   1.188  13.021
46202SOL    HW140445   5.277   1.151  12.938
46202SOL    HW240446   5.343   1.273  12.997
46203SOL     OW40447   9.040   5.312   7.052
46203SOL    HW140448   9.131   5.291   7.032
46203SOL    HW240449   8.990   5.272   6.981
46204SOL     OW40450  12.648   7.164  13.915
46204SOL    HW140451  12.707   7.211  13.856
46204SOL    HW240452  12.651   7.214  13.996
46205SOL     OW40453  13.046   8.417   2.621
46205SOL    HW140454  13.046   8.450   2.531
46205SOL    HW240455  13.130   8.373   2.631
46206SOL     OW40456  11.360   6.927   3.972
46206SOL    HW140457  11.435   6.977   4.002
46206SOL    HW240458  11.395   6.841   3.950
46207SOL     OW40459  11.313   6.060   4.415
46207SOL    HW140460  11.342   6.017   4.335
46207SOL    HW240461  11.341   6.002   4.486
46208SOL     OW40462   5.864   0.971  10.584
46208SOL    HW140463   5.848   0.895  10.529
46208SOL    HW240464   5.958   0.970  10.601
46209SOL     OW40465   7.918   7.944   5.598
46209SOL    HW140466   7.968   7.985   5.668
46209SOL    HW240467   7.833   7.989   5.600
46210SOL     OW40468   3.981  12.908   3.755
46210SOL    HW140469   3.943  12.860   3.828
46210SOL    HW240470   3.959  12.856   3.678
46211SOL     OW40471   6.635  12.203   5.623
46211SOL    HW140472   6.657  12.130   5.681
46211SOL    HW240473   6.635  12.280   5.680
46212SOL     OW40474   3.365  12.512   6.936
46212SOL    HW140475   3.450  12.472   6.953
46212SOL    HW240476   3.373  12.601   6.970
46213SOL     OW40477   9.130   4.871   3.074
46213SOL    HW140478   9.094   4.783   3.080
46213SOL    HW240479   9.224   4.860   3.089
46214SOL     OW40480   1.866   7.247   3.930
46214SOL    HW140481   1.851   7.280   4.019
46214SOL    HW240482   1.943   7.295   3.899
46215SOL     OW40483   2.151   1.492   7.949
46215SOL    HW140484   2.176   1.543   7.872
46215SOL    HW240485   2.149   1.401   7.919
46216SOL     OW40486   1.232   5.957  13.984
46216SOL    HW140487   1.243   5.956  14.079
46216SOL    HW240488   1.181   5.878  13.965
46217SOL     OW40489  13.440   8.362   5.101
46217SOL    HW140490  13.524   8.362   5.055
46217SOL    HW240491  13.382   8.413   5.043
46218SOL     OW40492   3.449  11.229   8.604
46218SOL    HW140493   3.427  11.145   8.565
46218SOL    HW240494   3.467  11.286   8.528
46219SOL     OW40495   3.212   6.852  13.970
46219SOL    HW140496   3.138   6.842  13.910
46219SOL    HW240497   3.279   6.792  13.936
46220SOL     OW40498  12.076   6.892  11.130
46220SOL    HW140499  12.034   6.944  11.062
46220SOL    HW240500  12.093   6.807  11.088
46221SOL     OW40501  13.786   1.073   4.791
46221SOL    HW140502  13.733   1.152   4.782
46221SOL    HW240503  13.797   1.040   4.702
46222SOL     OW40504  12.995  11.908   8.881
46222SOL    HW140505  13.028  11.986   8.925
46222SOL    HW240506  12.913  11.937   8.840
46223SOL     OW40507   3.082   2.457   6.286
46223SOL    HW140508   3.032   2.392   6.236
46223SOL    HW240509   3.141   2.496   6.223
46224SOL     OW40510   4.568   5.692   4.267
46224SOL    HW140511   4.614   5.611   4.244
46224SOL    HW240512   4.638   5.757   4.275
46225SOL     OW40513  14.529  12.748  12.530
46225SOL    HW140514  14.612  12.700  12.533
46225SOL    HW240515  14.486  12.727  12.613
46226SOL     OW40516   5.593  14.098   5.300
46226SOL    HW140517   5.632  14.095   5.388
46226SOL    HW240518   5.666  14.080   5.241
46227SOL     OW40519  12.886  13.347   2.308
46227SOL    HW140520  12.873  13.360   2.402
46227SOL    HW240521  12.802  13.373   2.269
46228SOL     OW40522   6.728  11.929  10.116
46228SOL    HW140523   6.803  11.872  10.101
46228SOL    HW240524   6.667  11.908  10.045
46229SOL     OW40525   7.944   5.162   2.203
46229SOL    HW140526   7.940   5.248   2.160
46229SOL    HW240527   8.008   5.113   2.152
46230SOL     OW40528  13.574  11.967   6.167
46230SOL    HW140529  13.491  12.014   6.172
46230SOL    HW240530  13.555  11.892   6.110
46231SOL     OW40531   9.721   8.634   3.603
46231SOL    HW140532   9.757   8.550   3.633
46231SOL    HW240533   9.731   8.632   3.508
46232SOL     OW40534   0.065   9.538  12.217
46232SOL    HW140535   0.153   9.509  12.193
46232SOL    HW240536   0.012   9.524  12.138
46233SOL     OW40537  13.485  10.123   0.945
46233SOL    HW140538  13.535  10.072   0.882
46233SOL    HW240539  13.523  10.210   0.941
46234SOL     OW40540  10.236   6.896   3.893
46234SOL    HW140541  10.203   6.907   3.982
46234SOL    HW240542  10.173   6.944   3.838
46235SOL     OW40543   3.691   3.244   8.761
46235SOL    HW140544   3.670   3.326   8.717
46235SOL    HW240545   3.610   3.193   8.758
46236SOL     OW40546  10.573   9.516   7.046
46236SOL    HW140547  10.531   9.575   7.108
46236SOL    HW240548  10.666   9.534   7.055
46237SOL     OW40549  10.716   2.118   1.331
46237SOL    HW140550  10.648   2.185   1.325
46237SOL    HW240551  10.795   2.167   1.355
46238SOL     OW40552  14.272   0.107  13.023
46238SOL    HW140553  14.262   0.091  12.929
46238SOL    HW240554  14.190   0.150  13.049
46239SOL     OW40555   5.273   3.640  14.627
46239SOL    HW140556   5.238   3.672  14.710
46239SOL    HW240557   5.235   3.554  14.616
46240SOL     OW40558   9.868   4.896  14.798
46240SOL    HW140559   9.886   4.802  14.804
46240SOL    HW240560   9.812   4.904  14.721
46241SOL     OW40561   1.444   1.209   9.715
46241SOL    HW140562   1.501   1.156   9.660
46241SOL    HW240563   1.360   1.164   9.713
46242SOL     OW40564   5.158   6.843  11.768
46242SOL    HW140565   5.250   6.818  11.778
46242SOL    HW240566   5.144   6.848  11.674
46243SOL     OW40567   4.631   3.226   5.337
46243SOL    HW140568   4.711   3.240   5.387
46243SOL    HW240569   4.560   3.239   5.400
46244SOL     OW40570   2.715  11.955  10.437
46244SOL    HW140571   2.749  12.042  10.458
46244SOL    HW240572   2.677  11.965  10.350
46245SOL     OW40573   8.598  12.578   1.086
46245SOL    HW140574   8.664  12.591   1.154
46245SOL    HW240575   8.539  12.653   1.097
46246SOL     OW40576   9.205   4.499  11.798
46246SOL    HW140577   9.122   4.457  11.823
46246SOL    HW240578   9.260   4.427  11.767
46247SOL     OW40579   2.494   7.471   9.289
46247SOL    HW140580   2.548   7.550   9.289
46247SOL    HW240581   2.440   7.479   9.211
46248SOL     OW40582  14.322   2.369  10.218
46248SOL    HW140583  14.395   2.328  10.266
46248SOL    HW240584  14.265   2.296  10.195
46249SOL     OW40585  10.849   7.476   3.235
46249SOL    HW140586  10.903   7.412   3.188
46249SOL    HW240587  10.860   7.453   3.327
46250SOL     OW40588   1.479   6.268   5.922
46250SOL    HW140589   1.523   6.227   5.996
46250SOL    HW240590   1.396   6.221   5.913
46251SOL     OW40591   3.596   6.507   1.790
46251SOL    HW140592   3.649   6.547   1.720
46251SOL    HW240593   3.595   6.414   1.769
46252SOL     OW40594   1.210   7.116   0.665
46252SOL    HW140595   1.229   7.199   0.621
46252SOL    HW240596   1.162   7.065   0.601
46253SOL     OW40597   8.498  10.279  12.467
46253SOL    HW140598   8.504  10.356  12.411
46253SOL    HW240599   8.445  10.217  12.418
46254SOL     OW40600   5.880   2.431   9.424
46254SOL    HW140601   5.844   2.422   9.512
46254SOL    HW240602   5.957   2.375   9.423
46255SOL     OW40603   3.906  14.048   3.526
46255SOL    HW140604   3.916  13.970   3.582
46255SOL    HW240605   3.852  14.107   3.578
46256SOL     OW40606   6.562   3.348  10.940
46256SOL    HW140607   6.500   3.296  10.990
46256SOL    HW240608   6.519   3.434  10.931
46257SOL     OW40609   3.337   2.759   0.789
46257SOL    HW140610   3.357   2.677   0.744
46257SOL    HW240611   3.270   2.801   0.734
46258SOL     OW40612  10.206   3.128   1.883
46258SOL    HW140613  10.172   3.162   1.966
46258SOL    HW240614  10.286   3.082   1.907
46259SOL     OW40615   1.369   6.614   5.582
46259SOL    HW140616   1.426   6.538   5.573
46259SOL    HW240617   1.399   6.657   5.662
46260SOL     OW40618  14.696   6.365  10.945
46260SOL    HW140619  14.754   6.290  10.930
46260SOL    HW240620  14.753   6.433  10.979
46261SOL     OW40621   0.549   5.377   1.604
46261SOL    HW140622   0.494   5.380   1.526
46261SOL    HW240623   0.523   5.298   1.650
46262SOL     OW40624   0.710   8.471   0.512
46262SOL    HW140625   0.680   8.561   0.528
46262SOL    HW240626   0.801   8.481   0.484
46263SOL     OW40627   3.035  11.801   3.715
46263SOL    HW140628   3.005  11.737   3.650
46263SOL    HW240629   3.100  11.753   3.767
46264SOL     OW40630   5.684   5.337  12.232
46264SOL    HW140631   5.709   5.423  12.197
46264SOL    HW240632   5.728   5.332  12.317
46265SOL     OW40633   8.576   5.872   6.187
46265SOL    HW140634   8.574   5.778   6.202
46265SOL    HW240635   8.523   5.885   6.108
46266SOL     OW40636   0.562  13.007  14.134
46266SOL    HW140637   0.585  13.016  14.227
46266SOL    HW240638   0.476  12.965  14.135
46267SOL     OW40639  12.400  11.911  12.475
46267SOL    HW140640  12.416  12.005  12.473
46267SOL    HW240641  12.478  11.872  12.435
46268SOL     OW40642  11.042  10.659   2.202
46268SOL    HW140643  10.970  10.633   2.260
46268SOL    HW240644  11.062  10.749   2.228
46269SOL     OW40645   1.813   6.703   2.471
46269SOL    HW140646   1.735   6.703   2.526
46269SOL    HW240647   1.881   6.662   2.526
46270SOL     OW40648   3.140  14.021  11.991
46270SOL    HW140649   3.141  13.934  12.032
46270SOL    HW240650   3.233  14.042  11.978
46271SOL     OW40651   6.588   5.725   3.293
46271SOL    HW140652   6.576   5.813   3.259
46271SOL    HW240653   6.570   5.667   3.219
46272SOL     OW40654  11.796   3.844  13.468
46272SOL    HW140655  11.885   3.860  13.499
46272SOL    HW240656  11.744   3.833  13.548
46273SOL     OW40657   2.219   3.321   0.391
46273SOL    HW140658   2.132   3.362   0.393
46273SOL    HW240659   2.243   3.312   0.483
46274SOL     OW40660   8.612   7.243   2.709
46274SOL    HW140661   8.642   7.191   2.784
46274SOL    HW240662   8.654   7.328   2.720
46275SOL     OW40663   8.824   9.063  11.080
46275SOL    HW140664   8.866   8.980  11.057
46275SOL    HW240665   8.731   9.040  11.091
46276SOL     OW40666  10.470   6.827   8.976
46276SOL    HW140667  10.453   6.796   8.887
46276SOL    HW240668  10.565   6.826   8.984
46277SOL     OW40669  12.806  12.912   0.571
46277SOL    HW140670  12.751  12.838   0.596
46277SOL    HW240671  12.801  12.914   0.475
46278SOL     OW40672   3.494   8.400   2.604
46278SOL    HW140673   3.579   8.426   2.640
46278SOL    HW240674   3.430   8.430   2.669
46279SOL     OW40675   7.883   1.196  12.210
46279SOL    HW140676   7.797   1.228  12.234
46279SOL    HW240677   7.944   1.256  12.253
46280SOL     OW40678   4.442   8.753   2.991
46280SOL    HW140679   4.450   8.691   3.063
46280SOL    HW240680   4.483   8.833   3.024
46281SOL     OW40681  14.763   6.540   6.744
46281SOL    HW140682  14.748   6.518   6.836
46281SOL    HW240683  14.855   6.519   6.729
46282SOL     OW40684  10.961   4.046   7.005
46282SOL    HW140685  10.879   3.996   7.012
46282SOL    HW240686  10.970   4.090   7.089
46283SOL     OW40687  13.665  11.801   3.030
46283SOL    HW140688  13.702  11.841   2.951
46283SOL    HW240689  13.586  11.852   3.048
46284SOL     OW40690   7.564  10.288   8.936
46284SOL    HW140691   7.504  10.312   8.865
46284SOL    HW240692   7.611  10.212   8.903
46285SOL     OW40693   1.246   6.931   5.385
46285SOL    HW140694   1.336   6.932   5.417
46285SOL    HW240695   1.212   7.018   5.406
46286SOL     OW40696   0.615   4.062   4.765
46286SOL    HW140697   0.553   4.084   4.835
46286SOL    HW240698   0.701   4.073   4.806
46287SOL     OW40699   4.833   4.382   7.796
46287SOL    HW140700   4.860   4.472   7.778
46287SOL    HW240701   4.776   4.389   7.873
46288SOL     OW40702   4.441  12.631  10.650
46288SOL    HW140703   4.496  12.665  10.579
46288SOL    HW240704   4.357  12.612  10.607
46289SOL     OW40705  11.088   2.778  12.989
46289SOL    HW140706  11.045   2.748  12.908
46289SOL    HW240707  11.045   2.728  13.058
46290SOL     OW40708  14.329  14.423  11.815
46290SOL    HW140709  14.317  14.332  11.842
46290SOL    HW240710  14.255  14.440  11.756
46291SOL     OW40711   7.668   0.577  14.647
46291SOL    HW140712   7.584   0.623  14.650
46291SOL    HW240713   7.650   0.492  14.687
46292SOL     OW40714   2.655   7.034   3.991
46292SOL    HW140715   2.655   6.989   4.076
46292SOL    HW240716   2.743   7.069   3.983
46293SOL     OW40717  12.356   1.392  11.282
46293SOL    HW140718  12.423   1.444  11.325
46293SOL    HW240719  12.342   1.317  11.340
46294SOL     OW40720   5.940   2.563  10.519
46294SOL    HW140721   5.911   2.648  10.553
46294SOL    HW240722   5.883   2.499  10.562
46295SOL     OW40723  12.189   0.124  13.759
46295SOL    HW140724  12.252   0.084  13.819
46295SOL    HW240725  12.122   0.161  13.815
46296SOL     OW40726   6.883  13.206   9.902
46296SOL    HW140727   6.964  13.213   9.952
46296SOL    HW240728   6.891  13.123   9.855
46297SOL     OW40729  12.406  11.906  13.417
46297SOL    HW140730  12.414  11.849  13.341
46297SOL    HW240731  12.316  11.894  13.446
46298SOL     OW40732  12.872   1.756   5.348
46298SOL    HW140733  12.964   1.779   5.350
46298SOL    HW240734  12.834   1.802   5.423
46299SOL     OW40735  14.146   6.706   8.829
46299SOL    HW140736  14.218   6.664   8.782
46299SOL    HW240737  14.108   6.636   8.881
46300SOL     OW40738   9.059   8.828   0.374
46300SOL    HW140739   8.988   8.882   0.410
46300SOL    HW240740   9.030   8.738   0.388
46301SOL     OW40741  14.766   9.908  11.264
46301SOL    HW140742  14.811   9.823  11.267
46301SOL    HW240743  14.701   9.902  11.334
46302SOL     OW40744   2.843   6.648  14.797
46302SOL    HW140745   2.931   6.653  14.834
46302SOL    HW240746   2.808   6.737  14.805
46303SOL     OW40747  12.538   3.221   4.197
46303SOL    HW140748  12.455   3.183   4.167
46303SOL    HW240749  12.529   3.314   4.178
46304SOL     OW40750  12.713   5.768   2.177
46304SOL    HW140751  12.631   5.721   2.189
46304SOL    HW240752  12.745   5.786   2.265
46305SOL     OW40753  10.300   2.231  11.502
46305SOL    HW140754  10.251   2.249  11.583
46305SOL    HW240755  10.282   2.139  11.484
46306SOL     OW40756  10.659   0.709   5.193
46306SOL    HW140757  10.647   0.767   5.118
46306SOL    HW240758  10.738   0.741   5.236
46307SOL     OW40759  12.936   6.730   3.155
46307SOL    HW140760  12.938   6.722   3.250
46307SOL    HW240761  12.896   6.648   3.125
46308SOL     OW40762   7.125   3.763  10.112
46308SOL    HW140763   7.132   3.831  10.180
46308SOL    HW240764   7.175   3.798  10.038
46309SOL     OW40765   8.605   3.416   2.575
46309SOL    HW140766   8.579   3.362   2.500
46309SOL    HW240767   8.538   3.484   2.579
46310SOL     OW40768  14.458  14.118   1.845
46310SOL    HW140769  14.536  14.133   1.792
46310SOL    HW240770  14.477  14.161   1.929
46311SOL     OW40771  10.640   3.231  14.268
46311SOL    HW140772  10.545   3.222  14.269
46311SOL    HW240773  10.672   3.153  14.314
46312SOL     OW40774  10.082   3.337   0.457
46312SOL    HW140775  10.010   3.322   0.394
46312SOL    HW240776  10.074   3.429   0.480
46313SOL     OW40777  14.442  12.954   5.438
46313SOL    HW140778  14.488  12.893   5.380
46313SOL    HW240779  14.351  12.927   5.434
46314SOL     OW40780  12.533   5.951   8.375
46314SOL    HW140781  12.489   6.005   8.440
46314SOL    HW240782  12.465   5.889   8.345
46315SOL     OW40783   2.708   7.347   2.480
46315SOL    HW140784   2.751   7.281   2.533
46315SOL    HW240785   2.737   7.430   2.516
46316SOL     OW40786  14.134   5.374  13.467
46316SOL    HW140787  14.132   5.283  13.497
46316SOL    HW240788  14.098   5.424  13.540
46317SOL     OW40789   8.341   2.701   1.842
46317SOL    HW140790   8.339   2.622   1.789
46317SOL    HW240791   8.337   2.670   1.932
46318SOL     OW40792   1.341   9.273  12.798
46318SOL    HW140793   1.432   9.294  12.819
46318SOL    HW240794   1.291   9.351  12.820
46319SOL     OW40795  13.189  13.837   3.246
46319SOL    HW140796  13.261  13.775   3.257
46319SOL    HW240797  13.232  13.922   3.233
46320SOL     OW40798   5.744   2.024  12.774
46320SOL    HW140799   5.787   2.047  12.856
46320SOL    HW240800   5.719   1.932  12.785
46321SOL     OW40801   4.602   0.066   2.108
46321SOL    HW140802   4.592   0.112   2.192
46321SOL    HW240803   4.528   0.096   2.055
46322SOL     OW40804   8.285   0.232   1.953
46322SOL    HW140805   8.199   0.195   1.933
46322SOL    HW240806   8.348   0.166   1.924
46323SOL     OW40807   4.862   6.768   3.767
46323SOL    HW140808   4.821   6.759   3.852
46323SOL    HW240809   4.928   6.837   3.779
46324SOL     OW40810   5.546   5.211  13.354
46324SOL    HW140811   5.554   5.277  13.423
46324SOL    HW240812   5.484   5.147  13.390
46325SOL     OW40813   1.314   3.694   1.462
46325SOL    HW140814   1.327   3.788   1.449
46325SOL    HW240815   1.329   3.655   1.375
46326SOL     OW40816   7.429   4.850  14.464
46326SOL    HW140817   7.384   4.854  14.379
46326SOL    HW240818   7.444   4.942  14.487
46327SOL     OW40819  10.835   6.939   2.298
46327SOL    HW140820  10.828   6.909   2.207
46327SOL    HW240821  10.792   7.024   2.299
46328SOL     OW40822  10.028   4.268  10.345
46328SOL    HW140823  10.065   4.317  10.272
46328SOL    HW240824   9.953   4.320  10.374
46329SOL     OW40825   7.714   9.155  13.608
46329SOL    HW140826   7.777   9.212  13.652
46329SOL    HW240827   7.742   9.067  13.630
46330SOL     OW40828   6.119   4.837  11.230
46330SOL    HW140829   6.174   4.811  11.304
46330SOL    HW240830   6.030   4.816  11.259
46331SOL     OW40831  11.789   6.398  10.332
46331SOL    HW140832  11.837   6.321  10.300
46331SOL    HW240833  11.833   6.421  10.414
46332SOL     OW40834   1.619  12.275   1.281
46332SOL    HW140835   1.599  12.230   1.363
46332SOL    HW240836   1.660  12.357   1.308
46333SOL     OW40837   9.887   9.404   1.346
46333SOL    HW140838   9.899   9.318   1.384
46333SOL    HW240839   9.897   9.391   1.252
46334SOL     OW40840   6.683   0.298   5.980
46334SOL    HW140841   6.715   0.387   5.969
46334SOL    HW240842   6.718   0.270   6.065
46335SOL     OW40843  11.881   8.523  10.380
46335SOL    HW140844  11.947   8.561  10.322
46335SOL    HW240845  11.854   8.596  10.436
46336SOL     OW40846   8.070   2.552  14.721
46336SOL    HW140847   8.105   2.480  14.772
46336SOL    HW240848   8.144   2.585  14.670
46337SOL     OW40849   9.300   5.864  14.631
46337SOL    HW140850   9.393   5.880  14.615
46337SOL    HW240851   9.268   5.946  14.670
46338SOL     OW40852  14.491  10.038  12.539
46338SOL    HW140853  14.583  10.033  12.514
46338SOL    HW240854  14.484   9.985  12.618
46339SOL     OW40855   8.754  11.487  11.942
46339SOL    HW140856   8.697  11.497  12.018
46339SOL    HW240857   8.789  11.398  11.950
46340SOL     OW40858  12.813   3.451   6.276
46340SOL    HW140859  12.844   3.527   6.324
46340SOL    HW240860  12.852   3.461   6.189
46341SOL     OW40861   0.901  12.514   4.594
46341SOL    HW140862   0.924  12.485   4.506
46341SOL    HW240863   0.906  12.436   4.648
46342SOL     OW40864  11.176   1.056   1.894
46342SOL    HW140865  11.152   0.974   1.936
46342SOL    HW240866  11.223   1.031   1.815
46343SOL     OW40867   3.235   4.771  14.282
46343SOL    HW140868   3.210   4.786  14.373
46343SOL    HW240869   3.254   4.859  14.248
46344SOL     OW40870  13.830   3.489   1.282
46344SOL    HW140871  13.781   3.544   1.221
46344SOL    HW240872  13.798   3.515   1.369
46345SOL     OW40873   2.415   3.066   6.766
46345SOL    HW140874   2.432   3.033   6.854
46345SOL    HW240875   2.366   3.147   6.779
46346SOL     OW40876  10.039  12.134  11.844
46346SOL    HW140877   9.945  12.145  11.836
46346SOL    HW240878  10.075  12.221  11.829
46347SOL     OW40879  11.924  10.301   5.926
46347SOL    HW140880  11.984  10.269   5.993
46347SOL    HW240881  11.980  10.335   5.856
46348SOL     OW40882   5.520   6.250   8.774
46348SOL    HW140883   5.528   6.183   8.843
46348SOL    HW240884   5.611   6.270   8.750
46349SOL     OW40885   3.538  13.419   2.443
46349SOL    HW140886   3.508  13.467   2.366
46349SOL    HW240887   3.458  13.386   2.484
46350SOL     OW40888   4.499  11.650   9.625
46350SOL    HW140889   4.473  11.733   9.585
46350SOL    HW240890   4.578  11.671   9.675
46351SOL     OW40891   3.160  14.026   0.320
46351SOL    HW140892   3.141  14.065   0.235
46351SOL    HW240893   3.202  13.943   0.299
46352SOL     OW40894   9.015  13.707  14.166
46352SOL    HW140895   8.976  13.794  14.176
46352SOL    HW240896   9.109  13.721  14.174
46353SOL     OW40897   2.678   1.737  13.890
46353SOL    HW140898   2.737   1.810  13.909
46353SOL    HW240899   2.736   1.664  13.867
46354SOL     OW40900   9.782   6.585   7.432
46354SOL    HW140901   9.766   6.552   7.520
46354SOL    HW240902   9.870   6.622   7.435
46355SOL     OW40903   4.212   1.235   5.109
46355SOL    HW140904   4.209   1.140   5.098
46355SOL    HW240905   4.268   1.249   5.185
46356SOL     OW40906   9.918   5.199   2.254
46356SOL    HW140907   9.908   5.288   2.287
46356SOL    HW240908   9.999   5.168   2.294
46357SOL     OW40909  13.628  13.744   8.357
46357SOL    HW140910  13.616  13.777   8.268
46357SOL    HW240911  13.667  13.657   8.345
46358SOL     OW40912  13.558   7.735   9.933
46358SOL    HW140913  13.474   7.776   9.914
46358SOL    HW240914  13.582   7.768  10.020
46359SOL     OW40915   0.826   8.058  14.673
46359SOL    HW140916   0.783   8.054  14.758
46359SOL    HW240917   0.882   7.980  14.670
46360SOL     OW40918   1.882   7.349  13.253
46360SOL    HW140919   1.804   7.358  13.198
46360SOL    HW240920   1.870   7.414  13.323
46361SOL     OW40921   9.800   4.202   6.570
46361SOL    HW140922   9.783   4.296   6.563
46361SOL    HW240923   9.735   4.171   6.633
46362SOL     OW40924   7.084  14.706   2.140
46362SOL    HW140925   7.041  14.641   2.196
46362SOL    HW240926   7.176  14.680   2.141
46363SOL     OW40927   0.200  14.416  14.392
46363SOL    HW140928   0.262  14.406  14.464
46363SOL    HW240929   0.166  14.328  14.376
46364SOL     OW40930   0.550  10.080  10.318
46364SOL    HW140931   0.554  10.161  10.370
46364SOL    HW240932   0.466  10.041  10.341
46365SOL     OW40933   0.592  12.004  13.732
46365SOL    HW140934   0.552  12.039  13.653
46365SOL    HW240935   0.674  12.053  13.741
46366SOL     OW40936   2.823   3.690   5.820
46366SOL    HW140937   2.745   3.641   5.846
46366SOL    HW240938   2.844   3.658   5.732
46367SOL     OW40939  13.235   1.137   5.871
46367SOL    HW140940  13.230   1.057   5.922
46367SOL    HW240941  13.150   1.141   5.826
46368SOL     OW40942   4.889   6.218  13.991
46368SOL    HW140943   4.834   6.296  13.978
46368SOL    HW240944   4.828   6.150  14.020
46369SOL     OW40945   9.114  14.236   8.367
46369SOL    HW140946   9.114  14.218   8.273
46369SOL    HW240947   9.148  14.325   8.375
46370SOL     OW40948   9.700   6.695   7.887
46370SOL    HW140949   9.761   6.761   7.920
46370SOL    HW240950   9.625   6.745   7.856
46371SOL     OW40951  11.459  12.603   1.512
46371SOL    HW140952  11.503  12.573   1.432
46371SOL    HW240953  11.381  12.649   1.480
46372SOL     OW40954   5.184  12.238  10.204
46372SOL    HW140955   5.245  12.182  10.156
46372SOL    HW240956   5.100  12.225  10.160
46373SOL     OW40957  14.027   9.294   2.212
46373SOL    HW140958  13.941   9.281   2.173
46373SOL    HW240959  14.011   9.290   2.307
46374SOL     OW40960  11.737   3.761   9.355
46374SOL    HW140961  11.727   3.853   9.332
46374SOL    HW240962  11.731   3.714   9.272
46375SOL     OW40963   7.180   5.418   9.673
46375SOL    HW140964   7.170   5.421   9.577
46375SOL    HW240965   7.238   5.344   9.688
46376SOL     OW40966   4.449   5.407  11.402
46376SOL    HW140967   4.510   5.396  11.329
46376SOL    HW240968   4.413   5.495  11.391
46377SOL     OW40969   3.952   9.052   9.745
46377SOL    HW140970   4.014   9.067   9.673
46377SOL    HW240971   3.950   9.135   9.792
46378SOL     OW40972   4.746  11.944   3.713
46378SOL    HW140973   4.789  11.890   3.779
46378SOL    HW240974   4.738  11.888   3.637
46379SOL     OW40975   3.494  11.671   0.450
46379SOL    HW140976   3.545  11.684   0.529
46379SOL    HW240977   3.464  11.758   0.425
46380SOL     OW40978   4.157  10.879   1.274
46380SOL    HW140979   4.241  10.858   1.314
46380SOL    HW240980   4.116  10.793   1.260
46381SOL     OW40981   9.267   1.236   3.455
46381SOL    HW140982   9.176   1.213   3.436
46381SOL    HW240983   9.316   1.155   3.443
46382SOL     OW40984  11.696   3.005   0.473
46382SOL    HW140985  11.728   2.937   0.533
46382SOL    HW240986  11.606   2.979   0.454
46383SOL     OW40987  11.317   9.555   8.253
46383SOL    HW140988  11.412   9.543   8.251
46383SOL    HW240989  11.299   9.614   8.180
46384SOL     OW40990  14.352   3.184   1.407
46384SOL    HW140991  14.332   3.096   1.442
46384SOL    HW240992  14.286   3.241   1.447
46385SOL     OW40993   8.888   0.886   4.054
46385SOL    HW140994   8.826   0.944   4.097
46385SOL    HW240995   8.836   0.807   4.033
46386SOL     OW40996   8.832   3.597   0.255
46386SOL    HW140997   8.856   3.546   0.332
46386SOL    HW240998   8.818   3.531   0.186
46387SOL     OW40999   8.818   6.057   5.207
46387SOL    HW141000   8.727   6.087   5.199
46387SOL    HW241001   8.820   6.009   5.289
46388SOL     OW41002  13.546   2.300  12.281
46388SOL    HW141003  13.640   2.285  12.274
46388SOL    HW241004  13.531   2.381  12.231
46389SOL     OW41005   2.570   9.715   1.190
46389SOL    HW141006   2.593   9.637   1.240
46389SOL    HW241007   2.509   9.683   1.123
46390SOL     OW41008   0.649   3.385  14.637
46390SOL    HW141009   0.669   3.477  14.623
46390SOL    HW241010   0.569   3.369  14.588
46391SOL     OW41011   4.835  13.441  12.299
46391SOL    HW141012   4.918  13.393  12.311
46391SOL    HW241013   4.767  13.375  12.311
46392SOL     OW41014   3.354   0.204   1.220
46392SOL    HW141015   3.274   0.240   1.259
46392SOL    HW241016   3.397   0.158   1.292
46393SOL     OW41017  14.734   9.130  13.893
46393SOL    HW141018  14.692   9.073  13.958
46393SOL    HW241019  14.662   9.181  13.856
46394SOL     OW41020  13.069   1.494  12.716
46394SOL    HW141021  13.156   1.510  12.679
46394SOL    HW241022  13.086   1.439  12.793
46395SOL     OW41023   3.795  12.708   2.905
46395SOL    HW141024   3.826  12.642   2.967
46395SOL    HW241025   3.869  12.767   2.894
46396SOL     OW41026  12.647  13.419   6.254
46396SOL    HW141027  12.696  13.338   6.243
46396SOL    HW241028  12.590  13.404   6.329
46397SOL     OW41029   3.938   6.780  13.121
46397SOL    HW141030   4.031   6.794  13.110
46397SOL    HW241031   3.910   6.732  13.043
46398SOL     OW41032   7.623  11.867  13.268
46398SOL    HW141033   7.677  11.827  13.200
46398SOL    HW241034   7.533  11.854  13.239
46399SOL     OW41035   4.854   2.442   8.507
46399SOL    HW141036   4.915   2.499   8.553
46399SOL    HW241037   4.906   2.364   8.484
46400SOL     OW41038   7.569  10.520   7.976
46400SOL    HW141039   7.552  10.426   7.968
46400SOL    HW241040   7.484  10.558   8.000
46401SOL     OW41041  14.873   6.882   2.088
46401SOL    HW141042   0.009   6.798   2.045
46401SOL    HW241043  14.868   6.860   2.181
46402SOL     OW41044  11.132  14.760   4.161
46402SOL    HW141045  11.155  14.730   4.249
46402SOL    HW241046  11.066  14.828   4.175
46403SOL     OW41047   6.425  12.749   3.428
46403SOL    HW141048   6.490  12.679   3.437
46403SOL    HW241049   6.424  12.792   3.514
46404SOL     OW41050   1.531   2.814  13.829
46404SOL    HW141051   1.538   2.818  13.924
46404SOL    HW241052   1.447   2.854  13.809
46405SOL     OW41053  12.970  11.427   6.530
46405SOL    HW141054  13.061  11.402   6.547
46405SOL    HW241055  12.918  11.356   6.565
46406SOL     OW41056  14.326   8.476  10.688
46406SOL    HW141057  14.369   8.470  10.603
46406SOL    HW241058  14.304   8.386  10.710
46407SOL     OW41059   0.631  11.859   8.652
46407SOL    HW141060   0.554  11.802   8.656
46407SOL    HW241061   0.644  11.874   8.558
46408SOL     OW41062   4.111  10.980   8.004
46408SOL    HW141063   4.191  10.944   7.964
46408SOL    HW241064   4.072  10.906   8.050
46409SOL     OW41065   5.418   6.553   7.245
46409SOL    HW141066   5.352   6.610   7.205
46409SOL    HW241067   5.422   6.581   7.336
46410SOL     OW41068   8.520   7.770  13.757
46410SOL    HW141069   8.457   7.784  13.827
46410SOL    HW241070   8.600   7.744  13.802
46411SOL     OW41071  12.516   0.148   1.101
46411SOL    HW141072  12.597   0.110   1.134
46411SOL    HW241073  12.540   0.238   1.078
46412SOL     OW41074   8.300   6.268  11.316
46412SOL    HW141075   8.330   6.222  11.238
46412SOL    HW241076   8.371   6.257  11.379
46413SOL     OW41077   4.102  11.103   9.812
46413SOL    HW141078   4.026  11.067   9.857
46413SOL    HW241079   4.067  11.170   9.754
46414SOL     OW41080   8.464  14.533  12.732
46414SOL    HW141081   8.508  14.618  12.741
46414SOL    HW241082   8.372  14.556  12.720
46415SOL     OW41083   4.995  10.103  14.329
46415SOL    HW141084   5.089  10.093  14.341
46415SOL    HW241085   4.968  10.021  14.286
46416SOL     OW41086  11.858  14.147   2.245
46416SOL    HW141087  11.931  14.144   2.308
46416SOL    HW241088  11.835  14.055   2.231
46417SOL     OW41089   0.907   4.303  13.601
46417SOL    HW141090   0.934   4.212  13.586
46417SOL    HW241091   0.923   4.347  13.518
46418SOL     OW41092   3.224   6.091  11.029
46418SOL    HW141093   3.206   6.180  11.059
46418SOL    HW241094   3.164   6.035  11.079
46419SOL     OW41095  13.254   0.339  10.709
46419SOL    HW141096  13.179   0.378  10.754
46419SOL    HW241097  13.224   0.253  10.680
46420SOL     OW41098  11.270  12.938  11.931
46420SOL    HW141099  11.208  13.001  11.892
46420SOL    HW241100  11.267  12.957  12.025
46421SOL     OW41101   6.321  11.617   1.567
46421SOL    HW141102   6.387  11.686   1.557
46421SOL    HW241103   6.268  11.622   1.488
46422SOL     OW41104   5.158  13.287   2.147
46422SOL    HW141105   5.124  13.364   2.102
46422SOL    HW241106   5.080  13.238   2.173
46423SOL     OW41107   8.336   0.472  12.957
46423SOL    HW141108   8.346   0.377  12.968
46423SOL    HW241109   8.313   0.482  12.864
46424SOL     OW41110  12.235   7.152   2.485
46424SOL    HW141111  12.218   7.074   2.538
46424SOL    HW241112  12.248   7.117   2.396
46425SOL     OW41113  14.203   1.392   2.502
46425SOL    HW141114  14.129   1.378   2.443
46425SOL    HW241115  14.279   1.403   2.444
46426SOL     OW41116   5.960  12.460   6.778
46426SOL    HW141117   5.899  12.414   6.835
46426SOL    HW241118   5.935  12.433   6.689
46427SOL     OW41119   3.630   9.695   0.960
46427SOL    HW141120   3.711   9.677   0.913
46427SOL    HW241121   3.578   9.614   0.950
46428SOL     OW41122   1.251   9.118   0.125
46428SOL    HW141123   1.170   9.103   0.076
46428SOL    HW241124   1.320   9.088   0.065
46429SOL     OW41125  14.364  10.662  13.217
46429SOL    HW141126  14.397  10.655  13.307
46429SOL    HW241127  14.426  10.720  13.173
46430SOL     OW41128  13.671  11.440   0.204
46430SOL    HW141129  13.758  11.420   0.238
46430SOL    HW241130  13.683  11.445   0.109
46431SOL     OW41131   6.395   3.775  10.423
46431SOL    HW141132   6.460   3.716  10.462
46431SOL    HW241133   6.446   3.837  10.371
46432SOL     OW41134   6.806   7.129   9.758
46432SOL    HW141135   6.856   7.073   9.816
46432SOL    HW241136   6.729   7.078   9.734
46433SOL     OW41137  13.971  14.846   7.494
46433SOL    HW141138  14.050   0.008   7.529
46433SOL    HW241139  14.001  14.763   7.457
46434SOL     OW41140   6.529   5.157   4.285
46434SOL    HW141141   6.478   5.112   4.218
46434SOL    HW241142   6.533   5.248   4.256
46435SOL     OW41143   1.349   7.378  13.348
46435SOL    HW141144   1.272   7.326  13.325
46435SOL    HW241145   1.321   7.433  13.421
46436SOL     OW41146   5.248   5.038  11.526
46436SOL    HW141147   5.317   4.976  11.547
46436SOL    HW241148   5.176   5.013  11.584
46437SOL     OW41149  14.295   9.925  10.893
46437SOL    HW141150  14.246  10.006  10.902
46437SOL    HW241151  14.387   9.952  10.894
46438SOL     OW41152   4.891  13.662   8.808
46438SOL    HW141153   4.811  13.714   8.801
46438SOL    HW241154   4.930  13.666   8.720
46439SOL     OW41155   5.685   1.557   6.474
46439SOL    HW141156   5.730   1.526   6.395
46439SOL    HW241157   5.608   1.602   6.441
46440SOL     OW41158   4.105   4.809  12.394
46440SOL    HW141159   4.131   4.850  12.311
46440SOL    HW241160   4.176   4.747  12.412
46441SOL     OW41161   8.205  10.514  10.934
46441SOL    HW141162   8.178  10.556  10.853
46441SOL    HW241163   8.214  10.421  10.911
46442SOL     OW41164   5.918   1.207   5.718
46442SOL    HW141165   5.886   1.131   5.669
46442SOL    HW241166   5.964   1.170   5.793
46443SOL     OW41167   7.469   0.648   7.908
46443SOL    HW141168   7.538   0.715   7.908
46443SOL    HW241169   7.424   0.660   7.824
46444SOL     OW41170  11.161   0.059   5.876
46444SOL    HW141171  11.180   0.068   5.783
46444SOL    HW241172  11.245   0.073   5.920
46445SOL     OW41173   6.632  14.226   0.961
46445SOL    HW141174   6.653  14.160   1.027
46445SOL    HW241175   6.584  14.177   0.893
46446SOL     OW41176   8.234   8.477   5.273
46446SOL    HW141177   8.241   8.490   5.178
46446SOL    HW241178   8.141   8.494   5.292
46447SOL     OW41179  14.779   3.212   9.021
46447SOL    HW141180  14.769   3.196   9.115
46447SOL    HW241181  14.697   3.182   8.982
46448SOL     OW41182   6.053   5.930   6.929
46448SOL    HW141183   6.101   6.004   6.891
46448SOL    HW241184   5.988   5.971   6.986
46449SOL     OW41185   2.462   6.990  10.831
46449SOL    HW141186   2.498   7.062  10.882
46449SOL    HW241187   2.523   6.980  10.757
46450SOL     OW41188   7.388  11.783  13.159
46450SOL    HW141189   7.321  11.851  13.166
46450SOL    HW241190   7.360  11.714  13.219
46451SOL     OW41191   8.435  14.144  11.753
46451SOL    HW141192   8.490  14.115  11.825
46451SOL    HW241193   8.485  14.214  11.711
46452SOL     OW41194  11.975   6.636   5.088
46452SOL    HW141195  12.054   6.600   5.049
46452SOL    HW241196  11.906   6.575   5.063
46453SOL     OW41197   4.888  13.975  11.448
46453SOL    HW141198   4.835  13.895  11.457
46453SOL    HW241199   4.901  14.005  11.538
46454SOL     OW41200  12.742   2.488  10.567
46454SOL    HW141201  12.728   2.434  10.490
46454SOL    HW241202  12.782   2.429  10.631
46455SOL     OW41203   5.389   5.780  14.752
46455SOL    HW141204   5.403   5.750  14.842
46455SOL    HW241205   5.302   5.747  14.730
46456SOL     OW41206   6.618   2.110   6.640
46456SOL    HW141207   6.554   2.166   6.596
46456SOL    HW241208   6.652   2.053   6.571
46457SOL     OW41209   3.308   6.284   1.705
46457SOL    HW141210   3.403   6.289   1.712
46457SOL    HW241211   3.277   6.264   1.793
46458SOL     OW41212   8.610   7.104  12.682
46458SOL    HW141213   8.657   7.074  12.760
46458SOL    HW241214   8.652   7.056  12.610
46459SOL     OW41215   3.046   4.124   7.014
46459SOL    HW141216   3.009   4.110   7.102
46459SOL    HW241217   3.009   4.208   6.986
46460SOL     OW41218  12.404  11.731   4.846
46460SOL    HW141219  12.463  11.792   4.803
46460SOL    HW241220  12.342  11.786   4.894
46461SOL     OW41221   1.326   7.234   3.768
46461SOL    HW141222   1.411   7.276   3.774
46461SOL    HW241223   1.340   7.144   3.799
46462SOL     OW41224   0.546   7.712   1.779
46462SOL    HW141225   0.593   7.794   1.793
46462SOL    HW241226   0.612   7.644   1.789
46463SOL     OW41227  12.912  13.839  10.729
46463SOL    HW141228  12.846  13.782  10.768
46463SOL    HW241229  12.996  13.797  10.750
46464SOL     OW41230   1.340   4.614   6.391
46464SOL    HW141231   1.308   4.525   6.409
46464SOL    HW241232   1.393   4.605   6.313
46465SOL     OW41233   3.190   2.363   7.105
46465SOL    HW141234   3.250   2.406   7.165
46465SOL    HW241235   3.167   2.430   7.041
46466SOL     OW41236   5.640  12.929  14.807
46466SOL    HW141237   5.643  12.865  14.736
46466SOL    HW241238   5.680  12.885   0.002
46467SOL     OW41239  11.566   4.294   1.956
46467SOL    HW141240  11.561   4.221   2.018
46467SOL    HW241241  11.543   4.255   1.872
46468SOL     OW41242   4.839   3.205   1.837
46468SOL    HW141243   4.746   3.203   1.861
46468SOL    HW241244   4.867   3.294   1.855
46469SOL     OW41245  11.891   0.206   8.727
46469SOL    HW141246  11.942   0.213   8.647
46469SOL    HW241247  11.845   0.122   8.719
46470SOL     OW41248   4.113   8.389   7.270
46470SOL    HW141249   4.059   8.370   7.193
46470SOL    HW241250   4.051   8.411   7.339
46471SOL     OW41251  14.703  12.426  10.575
46471SOL    HW141252  14.625  12.471  10.541
46471SOL    HW241253  14.676  12.334  10.581
46472SOL     OW41254  14.102   1.508  13.525
46472SOL    HW141255  14.130   1.558  13.449
46472SOL    HW241256  14.157   1.429  13.523
46473SOL     OW41257  12.191   0.567   4.023
46473SOL    HW141258  12.157   0.642   4.073
46473SOL    HW241259  12.149   0.491   4.063
46474SOL     OW41260  14.222  14.457  10.564
46474SOL    HW141261  14.142  14.449  10.512
46474SOL    HW241262  14.191  14.472  10.653
46475SOL     OW41263   4.130   1.939   0.989
46475SOL    HW141264   4.143   1.871   0.922
46475SOL    HW241265   4.073   1.899   1.054
46476SOL     OW41266  11.640  11.290   9.236
46476SOL    HW141267  11.554  11.254   9.212
46476SOL    HW241268  11.641  11.290   9.331
46477SOL     OW41269   3.995   4.055   7.853
46477SOL    HW141270   3.916   4.088   7.811
46477SOL    HW241271   4.002   4.104   7.934
46478SOL     OW41272   0.487  13.340  11.081
46478SOL    HW141273   0.444  13.322  10.997
46478SOL    HW241274   0.461  13.268  11.138
46479SOL     OW41275   3.743   5.038   2.427
46479SOL    HW141276   3.811   5.070   2.486
46479SOL    HW241277   3.773   5.063   2.340
46480SOL     OW41278   9.018   1.533  13.760
46480SOL    HW141279   9.060   1.564  13.680
46480SOL    HW241280   9.016   1.609  13.817
46481SOL     OW41281  11.284  11.952   0.741
46481SOL    HW141282  11.289  11.948   0.837
46481SOL    HW241283  11.278  11.860   0.714
46482SOL     OW41284   9.351   4.510   1.960
46482SOL    HW141285   9.414   4.482   2.027
46482SOL    HW241286   9.374   4.602   1.943
46483SOL     OW41287   5.626  13.751   6.080
46483SOL    HW141288   5.672  13.834   6.072
46483SOL    HW241289   5.685  13.688   6.038
46484SOL     OW41290   4.902   6.649   5.662
46484SOL    HW141291   4.884   6.671   5.570
46484SOL    HW241292   4.982   6.697   5.682
46485SOL     OW41293   7.528   6.353   6.568
46485SOL    HW141294   7.567   6.359   6.481
46485SOL    HW241295   7.486   6.438   6.582
46486SOL     OW41296   4.240   3.552  12.616
46486SOL    HW141297   4.245   3.573  12.709
46486SOL    HW241298   4.148   3.562  12.593
46487SOL     OW41299   3.463  10.276   3.429
46487SOL    HW141300   3.410  10.201   3.401
46487SOL    HW241301   3.439  10.288   3.521
46488SOL     OW41302   6.982   2.254   2.053
46488SOL    HW141303   6.933   2.179   2.019
46488SOL    HW241304   7.068   2.218   2.075
46489SOL     OW41305   5.119   2.560   4.933
46489SOL    HW141306   5.177   2.483   4.930
46489SOL    HW241307   5.144   2.611   4.856
46490SOL     OW41308   6.586   9.058   8.666
46490SOL    HW141309   6.522   9.101   8.723
46490SOL    HW241310   6.671   9.084   8.702
46491SOL     OW41311   3.890   2.932   7.442
46491SOL    HW141312   3.819   2.937   7.505
46491SOL    HW241313   3.883   3.012   7.391
46492SOL     OW41314   4.269   3.915   8.239
46492SOL    HW141315   4.200   3.849   8.241
46492SOL    HW241316   4.254   3.963   8.157
46493SOL     OW41317  10.952   2.046   3.446
46493SOL    HW141318  10.895   2.037   3.370
46493SOL    HW241319  10.962   1.956   3.479
46494SOL     OW41320  11.528   3.290  12.148
46494SOL    HW141321  11.509   3.383  12.141
46494SOL    HW241322  11.450   3.252  12.189
46495SOL     OW41323   2.639   6.563  12.343
46495SOL    HW141324   2.660   6.655  12.357
46495SOL    HW241325   2.547   6.556  12.368
46496SOL     OW41326   2.585  14.566   6.203
46496SOL    HW141327   2.534  14.590   6.281
46496SOL    HW241328   2.658  14.516   6.238
46497SOL     OW41329  12.511   7.813   1.194
46497SOL    HW141330  12.542   7.733   1.237
46497SOL    HW241331  12.457   7.856   1.260
46498SOL     OW41332   6.530   7.727   3.878
46498SOL    HW141333   6.513   7.737   3.972
46498SOL    HW241334   6.620   7.758   3.867
46499SOL     OW41335   9.834   1.782   3.429
46499SOL    HW141336   9.825   1.866   3.474
46499SOL    HW241337   9.900   1.734   3.479
46500SOL     OW41338  12.054  12.471   7.429
46500SOL    HW141339  11.992  12.537   7.460
46500SOL    HW241340  12.067  12.413   7.504
46501SOL     OW41341  13.526   8.260   0.592
46501SOL    HW141342  13.521   8.226   0.682
46501SOL    HW241343  13.558   8.349   0.601
46502SOL     OW41344   1.524  12.119   7.777
46502SOL    HW141345   1.521  12.028   7.749
46502SOL    HW241346   1.438  12.137   7.814
46503SOL     OW41347  11.394   0.039   9.586
46503SOL    HW141348  11.468   0.069   9.534
46503SOL    HW241349  11.400   0.088   9.667
46504SOL     OW41350  11.945  13.412  10.144
46504SOL    HW141351  11.928  13.425  10.238
46504SOL    HW241352  11.935  13.318  10.131
46505SOL     OW41353   6.497   1.506   2.159
46505SOL    HW141354   6.456   1.419   2.161
46505SOL    HW241355   6.447   1.557   2.223
46506SOL     OW41356   2.023   9.555  13.926
46506SOL    HW141357   2.098   9.513  13.884
46506SOL    HW241358   1.975   9.483  13.967
46507SOL     OW41359   1.444   7.290  11.657
46507SOL    HW141360   1.486   7.205  11.645
46507SOL    HW241361   1.443   7.304  11.752
46508SOL     OW41362   7.340  11.277   3.681
46508SOL    HW141363   7.254  11.250   3.648
46508SOL    HW241364   7.321  11.329   3.759
46509SOL     OW41365   0.845   3.639   2.061
46509SOL    HW141366   0.802   3.611   2.142
46509SOL    HW241367   0.896   3.716   2.086
46510SOL     OW41368  11.348   2.925   4.658
46510SOL    HW141369  11.305   2.843   4.683
46510SOL    HW241370  11.339   2.981   4.735
46511SOL     OW41371  11.944   3.710   6.038
46511SOL    HW141372  11.991   3.631   6.066
46511SOL    HW241373  11.852   3.683   6.034
46512SOL     OW41374   4.377   9.145  13.239
46512SOL    HW141375   4.344   9.149  13.329
46512SOL    HW241376   4.470   9.166  13.247
46513SOL     OW41377   2.641   1.444   5.639
46513SOL    HW141378   2.667   1.535   5.628
46513SOL    HW241379   2.581   1.427   5.566
46514SOL     OW41380  12.425   8.555   3.951
46514SOL    HW141381  12.386   8.482   3.998
46514SOL    HW241382  12.446   8.619   4.019
46515SOL     OW41383   3.480   6.641   2.227
46515SOL    HW141384   3.487   6.545   2.226
46515SOL    HW241385   3.468   6.666   2.136
46516SOL     OW41386   1.793   1.443  13.861
46516SOL    HW141387   1.889   1.440  13.859
46516SOL    HW241388   1.766   1.353  13.848
46517SOL     OW41389  12.310   7.584   3.085
46517SOL    HW141390  12.271   7.572   2.999
46517SOL    HW241391  12.259   7.654   3.125
46518SOL     OW41392   7.242   1.276  12.157
46518SOL    HW141393   7.172   1.234  12.205
46518SOL    HW241394   7.270   1.348  12.214
46519SOL     OW41395   5.235   4.522  13.616
46519SOL    HW141396   5.312   4.479  13.577
46519SOL    HW241397   5.271   4.598  13.663
46520SOL     OW41398   2.111   6.184  13.767
46520SOL    HW141399   2.033   6.182  13.823
46520SOL    HW241400   2.128   6.278  13.755
46521SOL     OW41401   8.931   4.253   1.060
46521SOL    HW141402   8.895   4.192   0.996
46521SOL    HW241403   8.875   4.243   1.137
46522SOL     OW41404   3.564  11.116  12.203
46522SOL    HW141405   3.530  11.101  12.292
46522SOL    HW241406   3.645  11.066  12.200
46523SOL     OW41407   9.406  13.638   0.196
46523SOL    HW141408   9.401  13.646   0.291
46523SOL    HW241409   9.367  13.553   0.176
46524SOL     OW41410   1.508   7.590   6.031
46524SOL    HW141411   1.551   7.548   6.106
46524SOL    HW241412   1.571   7.656   6.002
46525SOL     OW41413   6.081   0.901   8.994
46525SOL    HW141414   6.061   0.993   9.010
46525SOL    HW241415   6.026   0.876   8.919
46526SOL     OW41416  11.184   6.344  13.204
46526SOL    HW141417  11.145   6.419  13.160
46526SOL    HW241418  11.190   6.277  13.136
46527SOL     OW41419   4.305   9.708   2.544
46527SOL    HW141420   4.302   9.648   2.470
46527SOL    HW241421   4.302   9.795   2.504
46528SOL     OW41422   8.701   9.551  13.293
46528SOL    HW141423   8.740   9.568  13.207
46528SOL    HW241424   8.608   9.537  13.275
46529SOL     OW41425   1.647  10.717   7.655
46529SOL    HW141426   1.738  10.746   7.659
46529SOL    HW241427   1.648  10.627   7.687
46530SOL     OW41428   0.017   3.806   0.300
46530SOL    HW141429   0.104   3.837   0.327
46530SOL    HW241430   0.011   3.718   0.337
46531SOL     OW41431   3.257   6.233  13.139
46531SOL    HW141432   3.280   6.209  13.228
46531SOL    HW241433   3.326   6.294  13.112
46532SOL     OW41434  10.020   6.028   7.190
46532SOL    HW141435   9.957   6.082   7.237
46532SOL    HW241436   9.969   5.954   7.158
46533SOL     OW41437  13.962   6.780  12.526
46533SOL    HW141438  13.958   6.778  12.431
46533SOL    HW241439  14.056   6.773  12.547
46534SOL     OW41440  13.406   5.597  11.332
46534SOL    HW141441  13.349   5.641  11.269
46534SOL    HW241442  13.495   5.617  11.302
46535SOL     OW41443   5.990   3.501   0.100
46535SOL    HW141444   5.959   3.412   0.082
46535SOL    HW241445   6.034   3.495   0.185
46536SOL     OW41446   0.953  12.417   3.207
46536SOL    HW141447   0.900  12.494   3.187
46536SOL    HW241448   0.908  12.345   3.164
46537SOL     OW41449  12.085   3.730   3.639
46537SOL    HW141450  12.032   3.767   3.709
46537SOL    HW241451  12.165   3.783   3.640
46538SOL     OW41452   0.857   2.013   4.295
46538SOL    HW141453   0.906   2.090   4.267
46538SOL    HW241454   0.813   1.982   4.216
46539SOL     OW41455   2.899  12.862   3.977
46539SOL    HW141456   2.949  12.812   3.913
46539SOL    HW241457   2.837  12.912   3.924
46540SOL     OW41458   6.929   1.721  13.228
46540SOL    HW141459   6.933   1.676  13.313
46540SOL    HW241460   6.849   1.773  13.233
46541SOL     OW41461   1.051   9.237   5.136
46541SOL    HW141462   1.075   9.201   5.221
46541SOL    HW241463   0.970   9.286   5.152
46542SOL     OW41464   0.796   3.590  14.521
46542SOL    HW141465   0.785   3.682  14.496
46542SOL    HW241466   0.889   3.581  14.541
46543SOL     OW41467  12.491  13.489  13.521
46543SOL    HW141468  12.456  13.460  13.605
46543SOL    HW241469  12.418  13.533  13.477
46544SOL     OW41470   8.448  11.382   9.595
46544SOL    HW141471   8.422  11.472   9.611
46544SOL    HW241472   8.383  11.349   9.533
46545SOL     OW41473   6.915  11.709   1.724
46545SOL    HW141474   6.976  11.685   1.793
46545SOL    HW241475   6.856  11.634   1.716
46546SOL     OW41476  14.550   6.526   0.363
46546SOL    HW141477  14.589   6.501   0.447
46546SOL    HW241478  14.456   6.525   0.380
46547SOL     OW41479  14.234   4.385   7.580
46547SOL    HW141480  14.271   4.304   7.543
46547SOL    HW241481  14.236   4.371   7.675
46548SOL     OW41482   8.309   8.966   9.899
46548SOL    HW141483   8.224   8.923   9.910
46548SOL    HW241484   8.303   9.010   9.814
46549SOL     OW41485   7.169   0.695   2.711
46549SOL    HW141486   7.159   0.630   2.642
46549SOL    HW241487   7.260   0.686   2.741
46550SOL     OW41488  12.385  12.828   6.392
46550SOL    HW141489  12.348  12.767   6.457
46550SOL    HW241490  12.424  12.771   6.326
46551SOL     OW41491   7.432  13.255  14.058
46551SOL    HW141492   7.376  13.309  14.115
46551SOL    HW241493   7.426  13.296  13.972
46552SOL     OW41494  10.064   8.456   5.637
46552SOL    HW141495   9.978   8.428   5.666
46552SOL    HW241496  10.077   8.541   5.681
46553SOL     OW41497  11.881   4.117  13.734
46553SOL    HW141498  11.830   4.154  13.806
46553SOL    HW241499  11.858   4.172  13.659
46554SOL     OW41500  12.910  12.747   6.332
46554SOL    HW141501  12.864  12.825   6.363
46554SOL    HW241502  12.893  12.745   6.238
46555SOL     OW41503   6.339  14.292   3.530
46555SOL    HW141504   6.428  14.259   3.530
46555SOL    HW241505   6.292  14.236   3.592
46556SOL     OW41506  11.866  11.541   1.536
46556SOL    HW141507  11.924  11.575   1.604
46556SOL    HW241508  11.924  11.497   1.475
46557SOL     OW41509   1.437  10.374  13.517
46557SOL    HW141510   1.419  10.281  13.502
46557SOL    HW241511   1.531  10.378  13.536
46558SOL     OW41512  13.757   4.985   3.161
46558SOL    HW141513  13.781   4.991   3.069
46558SOL    HW241514  13.711   4.901   3.169
46559SOL     OW41515  14.351   7.930  12.627
46559SOL    HW141516  14.309   7.867  12.568
46559SOL    HW241517  14.406   7.876  12.684
46560SOL     OW41518  12.831   0.122  11.443
46560SOL    HW141519  12.850   0.029  11.450
46560SOL    HW241520  12.875   0.150  11.363
46561SOL     OW41521   3.469   0.310  11.578
46561SOL    HW141522   3.444   0.295  11.669
46561SOL    HW241523   3.386   0.310  11.530
46562SOL     OW41524  10.961  12.370  10.705
46562SOL    HW141525  10.968  12.458  10.742
46562SOL    HW241526  10.988  12.312  10.777
46563SOL     OW41527   5.085  14.640  14.012
46563SOL    HW141528   5.104  14.548  14.028
46563SOL    HW241529   5.016  14.662  14.074
46564SOL     OW41530   1.802  10.686  13.320
46564SOL    HW141531   1.826  10.598  13.292
46564SOL    HW241532   1.734  10.672  13.386
46565SOL     OW41533  11.225   1.315   1.266
46565SOL    HW141534  11.163   1.376   1.228
46565SOL    HW241535  11.228   1.338   1.359
46566SOL     OW41536   7.902   8.826   6.828
46566SOL    HW141537   7.834   8.866   6.882
46566SOL    HW241538   7.927   8.895   6.766
46567SOL     OW41539   5.806  14.541   3.511
46567SOL    HW141540   5.807  14.561   3.417
46567SOL    HW241541   5.750  14.608   3.549
46568SOL     OW41542   8.329  10.526   6.012
46568SOL    HW141543   8.273  10.604   6.009
46568SOL    HW241544   8.401  10.545   5.952
46569SOL     OW41545   4.462  14.528   1.728
46569SOL    HW141546   4.526  14.511   1.797
46569SOL    HW241547   4.393  14.464   1.743
46570SOL     OW41548  12.551   9.068   1.984
46570SOL    HW141549  12.611   9.055   1.910
46570SOL    HW241550  12.582   9.007   2.051
46571SOL     OW41551   1.138  13.206  10.982
46571SOL    HW141552   1.201  13.228  10.912
46571SOL    HW241553   1.119  13.113  10.968
46572SOL     OW41554   8.113  11.479  13.632
46572SOL    HW141555   8.109  11.400  13.578
46572SOL    HW241556   8.205  11.490  13.654
46573SOL     OW41557   4.311   4.305   7.106
46573SOL    HW141558   4.237   4.247   7.088
46573SOL    HW241559   4.366   4.300   7.028
46574SOL     OW41560   1.229   5.134   9.945
46574SOL    HW141561   1.218   5.085   9.863
46574SOL    HW241562   1.303   5.191   9.930
46575SOL     OW41563   2.532  13.980  10.816
46575SOL    HW141564   2.496  13.895  10.791
46575SOL    HW241565   2.559  14.019  10.733
46576SOL     OW41566   2.464   1.151  12.117
46576SOL    HW141567   2.526   1.119  12.052
46576SOL    HW241568   2.420   1.225  12.073
46577SOL     OW41569   8.296   9.722   7.518
46577SOL    HW141570   8.336   9.754   7.599
46577SOL    HW241571   8.244   9.796   7.487
46578SOL     OW41572   1.320  11.636  12.809
46578SOL    HW141573   1.325  11.655  12.903
46578SOL    HW241574   1.339  11.543  12.803
46579SOL     OW41575   1.016  10.387  10.504
46579SOL    HW141576   0.939  10.413  10.452
46579SOL    HW241577   0.996  10.418  10.592
46580SOL     OW41578  12.025   9.236  12.174
46580SOL    HW141579  11.930   9.228  12.168
46580SOL    HW241580  12.052   9.263  12.086
46581SOL     OW41581  12.162  12.972   7.954
46581SOL    HW141582  12.240  12.984   7.901
46581SOL    HW241583  12.117  13.056   7.952
46582SOL     OW41584  12.731  13.552   0.048
46582SOL    HW141585  12.787  13.535  14.852
46582SOL    HW241586  12.708  13.645   0.041
46583SOL     OW41587   9.662  10.754   2.948
46583SOL    HW141588   9.618  10.715   3.024
46583SOL    HW241589   9.748  10.780   2.981
46584SOL     OW41590   4.982  12.781   4.436
46584SOL    HW141591   5.054  12.834   4.471
46584SOL    HW241592   5.018  12.741   4.357
46585SOL     OW41593   6.313   0.610  10.262
46585SOL    HW141594   6.387   0.646  10.213
46585SOL    HW241595   6.349   0.593  10.350
46586SOL     OW41596   4.877   5.256   3.374
46586SOL    HW141597   4.892   5.344   3.339
46586SOL    HW241598   4.965   5.221   3.390
46587SOL     OW41599   8.919  14.400   6.323
46587SOL    HW141600   8.869  14.368   6.248
46587SOL    HW241601   8.879  14.484   6.345
46588SOL     OW41602  14.465  14.633  11.685
46588SOL    HW141603  14.371  14.648  11.697
46588SOL    HW241604  14.478  14.541  11.708
46589SOL     OW41605   4.464  12.375   7.943
46589SOL    HW141606   4.379  12.420   7.951
46589SOL    HW241607   4.456  12.325   7.861
46590SOL     OW41608   0.577   9.939   7.832
46590SOL    HW141609   0.559  10.025   7.871
46590SOL    HW241610   0.575   9.878   7.906
46591SOL     OW41611   0.023   4.442   4.259
46591SOL    HW141612  14.877   4.350   4.257
46591SOL    HW241613  14.820   4.490   4.253
46592SOL     OW41614   7.185  11.169   9.480
46592SOL    HW141615   7.110  11.110   9.489
46592SOL    HW241616   7.202  11.171   9.386
46593SOL     OW41617   2.505   2.019   8.807
46593SOL    HW141618   2.590   2.055   8.833
46593SOL    HW241619   2.498   1.937   8.855
46594SOL     OW41620  11.736   9.024   2.223
46594SOL    HW141621  11.708   9.019   2.132
46594SOL    HW241622  11.692   8.950   2.265
46595SOL     OW41623   3.375  13.956  13.685
46595SOL    HW141624   3.457  13.912  13.659
46595SOL    HW241625   3.400  14.047  13.697
46596SOL     OW41626   4.923  11.769   0.676
46596SOL    HW141627   4.981  11.703   0.640
46596SOL    HW241628   4.974  11.850   0.673
46597SOL     OW41629   9.898  14.424   6.736
46597SOL    HW141630   9.919  14.490   6.670
46597SOL    HW241631   9.925  14.341   6.695
46598SOL     OW41632   1.862   8.829   0.376
46598SOL    HW141633   1.795   8.854   0.312
46598SOL    HW241634   1.945   8.838   0.329
46599SOL     OW41635  14.051   3.660  14.145
46599SOL    HW141636  14.045   3.755  14.153
46599SOL    HW241637  14.144   3.642  14.135
46600SOL     OW41638  12.364   8.978  10.060
46600SOL    HW141639  12.283   8.929  10.047
46600SOL    HW241640  12.408   8.975   9.975
46601SOL     OW41641   2.339  14.016   4.112
46601SOL    HW141642   2.348  13.922   4.095
46601SOL    HW241643   2.424  14.053   4.090
46602SOL     OW41644   1.321   1.732  10.556
46602SOL    HW141645   1.339   1.669  10.487
46602SOL    HW241646   1.237   1.705  10.594
46603SOL     OW41647   8.211   6.867   9.352
46603SOL    HW141648   8.188   6.959   9.366
46603SOL    HW241649   8.234   6.835   9.439
46604SOL     OW41650   7.594   2.658  11.626
46604SOL    HW141651   7.587   2.565  11.603
46604SOL    HW241652   7.586   2.704  11.543
46605SOL     OW41653  14.051   2.171  13.664
46605SOL    HW141654  14.111   2.167  13.739
46605SOL    HW241655  14.083   2.105  13.603
46606SOL     OW41656  14.735   5.376   4.736
46606SOL    HW141657  14.738   5.414   4.824
46606SOL    HW241658  14.645   5.346   4.725
46607SOL     OW41659   7.294   3.801   1.163
46607SOL    HW141660   7.268   3.886   1.199
46607SOL    HW241661   7.233   3.786   1.090
46608SOL     OW41662  13.872  10.428   3.674
46608SOL    HW141663  13.794  10.408   3.726
46608SOL    HW241664  13.909  10.506   3.716
46609SOL     OW41665  10.563  11.396   2.971
46609SOL    HW141666  10.572  11.490   2.987
46609SOL    HW241667  10.567  11.356   3.057
46610SOL     OW41668  11.994  11.467   1.039
46610SOL    HW141669  11.931  11.427   1.098
46610SOL    HW241670  12.022  11.396   0.982
46611SOL     OW41671  14.535  10.789   0.497
46611SOL    HW141672  14.569  10.872   0.466
46611SOL    HW241673  14.500  10.746   0.419
46612SOL     OW41674   6.051   1.073   4.590
46612SOL    HW141675   6.066   1.129   4.666
46612SOL    HW241676   6.027   0.988   4.627
46613SOL     OW41677   1.802  12.758   1.663
46613SOL    HW141678   1.894  12.784   1.656
46613SOL    HW241679   1.761  12.829   1.713
46614SOL     OW41680   9.856   9.370   2.225
46614SOL    HW141681   9.855   9.294   2.167
46614SOL    HW241682   9.791   9.349   2.293
46615SOL     OW41683   7.091   8.502   1.435
46615SOL    HW141684   7.109   8.430   1.374
46615SOL    HW241685   7.057   8.572   1.379
46616SOL     OW41686   4.604   7.003  10.761
46616SOL    HW141687   4.574   7.083  10.804
46616SOL    HW241688   4.690   7.027  10.725
46617SOL     OW41689  10.788  12.183  14.629
46617SOL    HW141690  10.779  12.105  14.574
46617SOL    HW241691  10.717  12.175  14.693
46618SOL     OW41692  10.170  11.828   9.414
46618SOL    HW141693  10.098  11.870   9.462
46618SOL    HW241694  10.231  11.799   9.483
46619SOL     OW41695  10.961  11.258   9.723
46619SOL    HW141696  10.952  11.169   9.759
46619SOL    HW241697  10.975  11.244   9.629
46620SOL     OW41698   2.015  11.986   5.111
46620SOL    HW141699   1.946  12.051   5.095
46620SOL    HW241700   2.063  11.981   5.029
46621SOL     OW41701   5.621   0.158   1.048
46621SOL    HW141702   5.711   0.134   1.025
46621SOL    HW241703   5.623   0.252   1.061
46622SOL     OW41704  13.122   9.692   2.216
46622SOL    HW141705  13.101   9.779   2.250
46622SOL    HW241706  13.186   9.708   2.147
46623SOL     OW41707   1.551  14.456  13.910
46623SOL    HW141708   1.497  14.497  13.977
46623SOL    HW241709   1.641  14.468  13.940
46624SOL     OW41710   4.866   1.305   3.146
46624SOL    HW141711   4.800   1.266   3.088
46624SOL    HW241712   4.833   1.290   3.234
46625SOL     OW41713   5.903   6.163   5.489
46625SOL    HW141714   5.925   6.073   5.517
46625SOL    HW241715   5.978   6.190   5.436
46626SOL     OW41716   5.243   1.736   6.146
46626SOL    HW141717   5.162   1.765   6.104
46626SOL    HW241718   5.304   1.808   6.132
46627SOL     OW41719   0.859   8.627   4.310
46627SOL    HW141720   0.881   8.690   4.378
46627SOL    HW241721   0.768   8.647   4.286
46628SOL     OW41722  14.517  13.954   7.497
46628SOL    HW141723  14.422  13.954   7.504
46628SOL    HW241724  14.548  13.987   7.582
46629SOL     OW41725   9.599   8.276   9.068
46629SOL    HW141726   9.543   8.213   9.113
46629SOL    HW241727   9.572   8.270   8.977
46630SOL     OW41728   9.053  11.046   2.392
46630SOL    HW141729   8.989  11.052   2.463
46630SOL    HW241730   9.003  11.069   2.313
46631SOL     OW41731  11.062   7.955   3.689
46631SOL    HW141732  11.017   7.908   3.620
46631SOL    HW241733  10.993   8.003   3.734
46632SOL     OW41734   3.240  10.214   9.526
46632SOL    HW141735   3.291  10.150   9.576
46632SOL    HW241736   3.160  10.226   9.577
46633SOL     OW41737  13.461   9.931   4.215
46633SOL    HW141738  13.440   9.877   4.292
46633SOL    HW241739  13.522   9.877   4.164
46634SOL     OW41740  10.443   9.394   7.324
46634SOL    HW141741  10.369   9.436   7.366
46634SOL    HW241742  10.518   9.451   7.342
46635SOL     OW41743  12.883   1.588   8.564
46635SOL    HW141744  12.814   1.532   8.599
46635SOL    HW241745  12.946   1.596   8.635
46636SOL     OW41746   2.503  13.074   0.372
46636SOL    HW141747   2.474  13.100   0.459
46636SOL    HW241748   2.426  13.089   0.316
46637SOL     OW41749   4.502   3.932   8.387
46637SOL    HW141750   4.442   3.918   8.314
46637SOL    HW241751   4.464   3.884   8.460
46638SOL     OW41752  13.387   9.803   8.956
46638SOL    HW141753  13.328   9.809   9.031
46638SOL    HW241754  13.454   9.870   8.973
46639SOL     OW41755   5.149   1.808  12.549
46639SOL    HW141756   5.148   1.823  12.454
46639SOL    HW241757   5.189   1.887  12.585
46640SOL     OW41758   6.966  13.885  12.473
46640SOL    HW141759   6.877  13.910  12.499
46640SOL    HW241760   7.020  13.907  12.548
46641SOL     OW41761  14.608   6.100  12.474
46641SOL    HW141762  14.577   6.087  12.385
46641SOL    HW241763  14.685   6.157  12.465
46642SOL     OW41764   4.713   2.771  11.028
46642SOL    HW141765   4.674   2.754  10.941
46642SOL    HW241766   4.640   2.803  11.081
46643SOL     OW41767  13.208   5.685   7.606
46643SOL    HW141768  13.252   5.635   7.536
46643SOL    HW241769  13.144   5.739   7.560
46644SOL     OW41770  11.455  13.678   7.751
46644SOL    HW141771  11.485  13.660   7.662
46644SOL    HW241772  11.473  13.597   7.799
46645SOL     OW41773   7.839  14.697   0.879
46645SOL    HW141774   7.785  14.759   0.928
46645SOL    HW241775   7.878  14.640   0.946
46646SOL     OW41776   2.186   2.404  13.884
46646SOL    HW141777   2.159   2.493  13.903
46646SOL    HW241778   2.252   2.383  13.950
46647SOL     OW41779   3.604   4.191   1.529
46647SOL    HW141780   3.590   4.223   1.440
46647SOL    HW241781   3.520   4.154   1.555
46648SOL     OW41782   6.909   2.470   6.349
46648SOL    HW141783   6.886   2.466   6.442
46648SOL    HW241784   6.973   2.400   6.337
46649SOL     OW41785   1.115  14.599   9.587
46649SOL    HW141786   1.085  14.672   9.641
46649SOL    HW241787   1.049  14.531   9.599
46650SOL     OW41788  14.758   2.114   9.552
46650SOL    HW141789  14.710   2.086   9.630
46650SOL    HW241790  14.830   2.166   9.586
46651SOL     OW41791   3.389   6.073   5.888
46651SOL    HW141792   3.461   6.128   5.859
46651SOL    HW241793   3.322   6.135   5.917
46652SOL     OW41794   5.344   6.445  13.932
46652SOL    HW141795   5.356   6.418  13.841
46652SOL    HW241796   5.264   6.498  13.931
46653SOL     OW41797  11.456   9.924  12.351
46653SOL    HW141798  11.436   9.914  12.258
46653SOL    HW241799  11.551   9.914  12.356
46654SOL     OW41800  14.381   7.843   4.293
46654SOL    HW141801  14.382   7.755   4.257
46654SOL    HW241802  14.289   7.870   4.287
46655SOL     OW41803  13.589   4.271   2.760
46655SOL    HW141804  13.541   4.248   2.839
46655SOL    HW241805  13.614   4.187   2.722
46656SOL     OW41806   8.775  11.424  14.316
46656SOL    HW141807   8.780  11.360  14.387
46656SOL    HW241808   8.730  11.377  14.245
46657SOL     OW41809  12.947   4.287   9.916
46657SOL    HW141810  12.933   4.380   9.935
46657SOL    HW241811  12.861   4.256   9.886
46658SOL     OW41812  14.150   6.711  12.945
46658SOL    HW141813  14.114   6.696  13.032
46658SOL    HW241814  14.242   6.731  12.961
46659SOL     OW41815  12.991   0.035  14.816
46659SOL    HW141816  13.007   0.029   0.031
46659SOL    HW241817  13.015   0.124  14.793
46660SOL     OW41818   2.373   7.004   0.697
46660SOL    HW141819   2.339   6.928   0.745
46660SOL    HW241820   2.461   7.017   0.733
46661SOL     OW41821   5.309   0.881   2.405
46661SOL    HW141822   5.306   0.944   2.478
46661SOL    HW241823   5.221   0.843   2.403
46662SOL     OW41824  14.614  12.764  14.811
46662SOL    HW141825  14.626  12.721  14.726
46662SOL    HW241826  14.628  12.694  14.875
46663SOL     OW41827  11.475   6.755   6.708
46663SOL    HW141828  11.438   6.837   6.740
46663SOL    HW241829  11.405   6.691   6.722
46664SOL     OW41830  11.763   8.868   8.580
46664SOL    HW141831  11.823   8.856   8.506
46664SOL    HW241832  11.816   8.911   8.647
46665SOL     OW41833  13.916  10.195  13.574
46665SOL    HW141834  13.920  10.133  13.501
46665SOL    HW241835  13.975  10.158  13.640
46666SOL     OW41836   2.986  10.185   4.138
46666SOL    HW141837   2.922  10.182   4.209
46666SOL    HW241838   2.989  10.096   4.104
46667SOL     OW41839   3.239   4.507   1.690
46667SOL    HW141840   3.305   4.472   1.630
46667SOL    HW241841   3.289   4.560   1.752
46668SOL     OW41842   7.006   9.195  10.123
46668SOL    HW141843   7.044   9.218  10.038
46668SOL    HW241844   7.066   9.234  10.187
46669SOL     OW41845   4.768   6.132   2.861
46669SOL    HW141846   4.838   6.171   2.913
46669SOL    HW241847   4.758   6.043   2.897
46670SOL     OW41848   9.849   9.541   7.243
46670SOL    HW141849   9.809   9.457   7.219
46670SOL    HW241850   9.902   9.521   7.320
46671SOL     OW41851   4.319   6.718  11.616
46671SOL    HW141852   4.277   6.663  11.681
46671SOL    HW241853   4.337   6.659  11.543
46672SOL     OW41854   8.914  11.742  14.611
46672SOL    HW141855   8.888  11.650  14.624
46672SOL    HW241856   8.834  11.792  14.624
46673SOL     OW41857  14.803   4.576   6.541
46673SOL    HW141858  14.809   4.483   6.563
46673SOL    HW241859  14.753   4.578   6.460
46674SOL     OW41860   5.214   9.470  10.480
46674SOL    HW141861   5.136   9.504  10.438
46674SOL    HW241862   5.197   9.376  10.491
46675SOL     OW41863   4.081  11.997  14.366
46675SOL    HW141864   4.036  12.042  14.295
46675SOL    HW241865   4.091  12.064  14.434
46676SOL     OW41866   3.167  11.897  13.398
46676SOL    HW141867   3.207  11.811  13.410
46676SOL    HW241868   3.219  11.938  13.328
46677SOL     OW41869  14.745  14.514  12.697
46677SOL    HW141870  14.719  14.444  12.757
46677SOL    HW241871  14.754  14.591  12.753
46678SOL     OW41872   5.955   3.853   2.705
46678SOL    HW141873   5.993   3.933   2.670
46678SOL    HW241874   5.865   3.877   2.728
46679SOL     OW41875   4.288   5.286   1.942
46679SOL    HW141876   4.329   5.290   1.856
46679SOL    HW241877   4.338   5.219   1.989
46680SOL     OW41878   6.350   5.757   0.652
46680SOL    HW141879   6.284   5.806   0.700
46680SOL    HW241880   6.382   5.819   0.586
46681SOL     OW41881   9.675   7.509   5.566
46681SOL    HW141882   9.743   7.506   5.633
46681SOL    HW241883   9.657   7.418   5.545
46682SOL     OW41884   9.982  12.049   2.608
46682SOL    HW141885   9.904  12.012   2.649
46682SOL    HW241886  10.012  12.115   2.670
46683SOL     OW41887   7.927   1.033   9.270
46683SOL    HW141888   7.912   1.079   9.187
46683SOL    HW241889   7.861   0.964   9.272
46684SOL     OW41890  10.999   0.622  10.267
46684SOL    HW141891  10.986   0.588  10.355
46684SOL    HW241892  10.962   0.710  10.269
46685SOL     OW41893  14.423   1.800   0.028
46685SOL    HW141894  14.374   1.867  14.859
46685SOL    HW241895  14.390   1.717  14.871
46686SOL     OW41896   7.532   2.624   8.362
46686SOL    HW141897   7.499   2.604   8.450
46686SOL    HW241898   7.509   2.546   8.311
46687SOL     OW41899   8.670   6.134   7.529
46687SOL    HW141900   8.712   6.155   7.446
46687SOL    HW241901   8.683   6.212   7.583
46688SOL     OW41902  10.420  12.858   9.102
46688SOL    HW141903  10.409  12.796   9.174
46688SOL    HW241904  10.359  12.828   9.035
46689SOL     OW41905   1.597   8.328   2.808
46689SOL    HW141906   1.644   8.248   2.787
46689SOL    HW241907   1.509   8.298   2.831
46690SOL     OW41908   6.187  14.237   2.345
46690SOL    HW141909   6.250  14.262   2.278
46690SOL    HW241910   6.102  14.241   2.301
46691SOL     OW41911   8.220   6.964   0.446
46691SOL    HW141912   8.185   7.053   0.451
46691SOL    HW241913   8.291   6.963   0.511
46692SOL     OW41914   5.676  10.329   9.604
46692SOL    HW141915   5.653  10.273   9.530
46692SOL    HW241916   5.664  10.274   9.681
46693SOL     OW41917   2.418  11.041   7.166
46693SOL    HW141918   2.330  11.007   7.151
46693SOL    HW241919   2.421  11.123   7.118
46694SOL     OW41920   7.024   5.487   4.421
46694SOL    HW141921   7.095   5.549   4.406
46694SOL    HW241922   6.976   5.484   4.339
46695SOL     OW41923   8.995   3.848   7.090
46695SOL    HW141924   8.969   3.938   7.109
46695SOL    HW241925   9.086   3.843   7.120
46696SOL     OW41926   4.758   9.092   4.372
46696SOL    HW141927   4.743   9.153   4.444
46696SOL    HW241928   4.821   9.138   4.316
46697SOL     OW41929   8.792   8.375   5.903
46697SOL    HW141930   8.751   8.312   5.962
46697SOL    HW241931   8.886   8.361   5.914
46698SOL     OW41932   9.753  11.873  10.436
46698SOL    HW141933   9.684  11.873  10.369
46698SOL    HW241934   9.800  11.791  10.422
46699SOL     OW41935   6.184   5.622   1.651
46699SOL    HW141936   6.177   5.717   1.650
46699SOL    HW241937   6.109   5.592   1.702
46700SOL     OW41938  10.733   5.331   7.169
46700SOL    HW141939  10.637   5.328   7.164
46700SOL    HW241940  10.761   5.244   7.142
46701SOL     OW41941   4.711   6.673   8.145
46701SOL    HW141942   4.682   6.649   8.057
46701SOL    HW241943   4.631   6.700   8.190
46702SOL     OW41944   6.132  14.059   3.521
46702SOL    HW141945   6.081  13.984   3.492
46702SOL    HW241946   6.139  14.049   3.616
46703SOL     OW41947   8.081   1.203   1.664
46703SOL    HW141948   8.072   1.164   1.576
46703SOL    HW241949   8.042   1.290   1.656
46704SOL     OW41950   9.985   0.424   6.960
46704SOL    HW141951  10.002   0.456   7.048
46704SOL    HW241952   9.959   0.502   6.911
46705SOL     OW41953   3.500   6.500   8.884
46705SOL    HW141954   3.492   6.572   8.822
46705SOL    HW241955   3.568   6.444   8.847
46706SOL     OW41956   7.834  12.307   8.670
46706SOL    HW141957   7.788  12.248   8.730
46706SOL    HW241958   7.925  12.303   8.698
46707SOL     OW41959  11.764   1.997  13.282
46707SOL    HW141960  11.847   1.987  13.236
46707SOL    HW241961  11.715   2.060  13.229
46708SOL     OW41962  12.821   0.259   8.660
46708SOL    HW141963  12.744   0.238   8.713
46708SOL    HW241964  12.801   0.346   8.624
46709SOL     OW41965   9.926   5.572  13.428
46709SOL    HW141966   9.911   5.540  13.339
46709SOL    HW241967   9.884   5.658  13.430
46710SOL     OW41968   6.110   1.771   8.097
46710SOL    HW141969   6.044   1.753   8.030
46710SOL    HW241970   6.106   1.866   8.110
46711SOL     OW41971  14.565  10.156  14.609
46711SOL    HW141972  14.587  10.243  14.643
46711SOL    HW241973  14.469  10.152  14.615
46712SOL     OW41974  10.266   9.128   2.501
46712SOL    HW141975  10.219   9.211   2.499
46712SOL    HW241976  10.257   9.093   2.412
46713SOL     OW41977  11.594  12.977  12.993
46713SOL    HW141978  11.636  12.992  12.908
46713SOL    HW241979  11.613  12.886  13.014
46714SOL     OW41980  12.418  10.604  11.161
46714SOL    HW141981  12.450  10.515  11.148
46714SOL    HW241982  12.335  10.593  11.208
46715SOL     OW41983   4.416  14.452  13.380
46715SOL    HW141984   4.435  14.515  13.450
46715SOL    HW241985   4.465  14.374  13.405
46716SOL     OW41986   8.391   5.868   2.929
46716SOL    HW141987   8.445   5.946   2.917
46716SOL    HW241988   8.327   5.873   2.858
46717SOL     OW41989  14.560   8.355   0.996
46717SOL    HW141990  14.565   8.275   1.049
46717SOL    HW241991  14.588   8.425   1.055
46718SOL     OW41992   8.127   8.839  13.881
46718SOL    HW141993   8.176   8.757  13.868
46718SOL    HW241994   8.173   8.884  13.952
46719SOL     OW41995   4.563  11.268  13.051
46719SOL    HW141996   4.492  11.206  13.065
46719SOL    HW241997   4.573  11.272  12.955
46720SOL     OW41998   6.291  11.784   5.014
46720SOL    HW141999   6.337  11.706   5.044
46720SOL    HW242000   6.324  11.854   5.071
46721SOL     OW42001   2.477  11.823  10.841
46721SOL    HW142002   2.382  11.813  10.844
46721SOL    HW242003   2.492  11.890  10.775
46722SOL     OW42004   4.009  11.658  13.115
46722SOL    HW142005   4.076  11.684  13.179
46722SOL    HW242006   3.926  11.682  13.156
46723SOL     OW42007   4.058  11.684   1.050
46723SOL    HW142008   3.991  11.639   0.997
46723SOL    HW242009   4.021  11.770   1.067
46724SOL     OW42010   0.039  11.163   3.258
46724SOL    HW142011   0.103  11.234   3.258
46724SOL    HW242012   0.066  11.106   3.330
46725SOL     OW42013   0.522   7.209  12.781
46725SOL    HW142014   0.427   7.213  12.769
46725SOL    HW242015   0.534   7.209  12.876
46726SOL     OW42016  14.156  10.946   8.519
46726SOL    HW142017  14.087  10.883   8.498
46726SOL    HW242018  14.129  10.985   8.603
46727SOL     OW42019   3.620   9.539  13.024
46727SOL    HW142020   3.622   9.578  12.936
46727SOL    HW242021   3.666   9.456  13.015
46728SOL     OW42022   6.051  12.198   1.248
46728SOL    HW142023   6.065  12.158   1.162
46728SOL    HW242024   5.956  12.193   1.261
46729SOL     OW42025   1.349   3.242   5.545
46729SOL    HW142026   1.436   3.281   5.540
46729SOL    HW242027   1.293   3.301   5.494
46730SOL     OW42028   8.173  12.901   2.076
46730SOL    HW142029   8.125  12.820   2.059
46730SOL    HW242030   8.182  12.943   1.991
46731SOL     OW42031   8.340   1.518  11.102
46731SOL    HW142032   8.419   1.539  11.152
46731SOL    HW242033   8.318   1.429  11.130
46732SOL     OW42034   1.473   5.049   5.814
46732SOL    HW142035   1.396   4.994   5.823
46732SOL    HW242036   1.488   5.083   5.903
46733SOL     OW42037  13.605  12.841   6.547
46733SOL    HW142038  13.581  12.755   6.511
46733SOL    HW242039  13.699  12.835   6.563
46734SOL     OW42040  11.238   8.985   1.797
46734SOL    HW142041  11.319   9.005   1.844
46734SOL    HW242042  11.179   9.057   1.819
46735SOL     OW42043  12.686  12.966  11.034
46735SOL    HW142044  12.703  12.912  10.958
46735SOL    HW242045  12.597  12.998  11.022
46736SOL     OW42046   7.053   5.224   0.533
46736SOL    HW142047   6.961   5.224   0.560
46736SOL    HW242048   7.082   5.134   0.549
46737SOL     OW42049  14.749   9.388   8.386
46737SOL    HW142050  14.774   9.416   8.298
46737SOL    HW242051  14.688   9.315   8.372
46738SOL     OW42052   2.204  11.039   9.605
46738SOL    HW142053   2.162  11.089   9.535
46738SOL    HW242054   2.133  10.987   9.643
46739SOL     OW42055   2.095   0.446   9.448
46739SOL    HW142056   2.014   0.471   9.492
46739SOL    HW242057   2.078   0.357   9.416
46740SOL     OW42058   9.850   4.854  12.216
46740SOL    HW142059   9.920   4.919  12.210
46740SOL    HW242060   9.886   4.785  12.272
46741SOL     OW42061  10.471   6.947  10.469
46741SOL    HW142062  10.508   6.912  10.388
46741SOL    HW242063  10.454   7.039  10.451
46742SOL     OW42064   5.920  14.834   8.421
46742SOL    HW142065   5.940  14.743   8.443
46742SOL    HW242066   5.993   0.005   8.457
46743SOL     OW42067   8.350  13.373  11.691
46743SOL    HW142068   8.328  13.297  11.638
46743SOL    HW242069   8.277  13.381  11.753
46744SOL     OW42070   5.983   0.709  14.134
46744SOL    HW142071   5.982   0.785  14.075
46744SOL    HW242072   6.007   0.745  14.219
46745SOL     OW42073  10.228   9.337  10.885
46745SOL    HW142074  10.304   9.318  10.830
46745SOL    HW242075  10.153   9.307  10.833
46746SOL     OW42076   1.306   0.865   1.523
46746SOL    HW142077   1.277   0.901   1.439
46746SOL    HW242078   1.400   0.852   1.513
46747SOL     OW42079  12.509   6.162   8.053
46747SOL    HW142080  12.424   6.206   8.053
46747SOL    HW242081  12.555   6.199   8.129
46748SOL     OW42082   6.958   7.876  12.357
46748SOL    HW142083   6.978   7.891  12.449
46748SOL    HW242084   6.885   7.935  12.339
46749SOL     OW42085  12.446   7.897   4.611
46749SOL    HW142086  12.456   7.967   4.676
46749SOL    HW242087  12.526   7.901   4.559
46750SOL     OW42088  14.010   1.525   1.916
46750SOL    HW142089  14.010   1.589   1.986
46750SOL    HW242090  14.027   1.441   1.960
46751SOL     OW42091   6.260   6.055   2.416
46751SOL    HW142092   6.195   6.018   2.356
46751SOL    HW242093   6.341   6.056   2.365
46752SOL     OW42094   1.787   4.374  13.431
46752SOL    HW142095   1.760   4.388  13.340
46752SOL    HW242096   1.705   4.356  13.477
46753SOL     OW42097   0.603   9.623  13.070
46753SOL    HW142098   0.539   9.680  13.028
46753SOL    HW242099   0.595   9.642  13.164
46754SOL     OW42100   6.831  10.643  12.527
46754SOL    HW142101   6.889  10.569  12.510
46754SOL    HW242102   6.770  10.644  12.453
46755SOL     OW42103   2.117   8.782  14.497
46755SOL    HW142104   2.197   8.742  14.463
46755SOL    HW242105   2.057   8.783  14.423
46756SOL     OW42106   3.154  11.534  14.713
46756SOL    HW142107   3.100  11.607  14.742
46756SOL    HW242108   3.217  11.521  14.785
46757SOL     OW42109  11.827  13.970   3.950
46757SOL    HW142110  11.804  14.037   4.014
46757SOL    HW242111  11.763  13.901   3.962
46758SOL     OW42112   8.889   1.150   0.359
46758SOL    HW142113   8.815   1.168   0.416
46758SOL    HW242114   8.888   1.055   0.348
46759SOL     OW42115   4.081  10.683   0.771
46759SOL    HW142116   4.035  10.625   0.710
46759SOL    HW242117   4.127  10.745   0.715
46760SOL     OW42118  12.587   9.649   2.577
46760SOL    HW142119  12.578   9.649   2.482
46760SOL    HW242120  12.581   9.741   2.602
46761SOL     OW42121  14.817   5.134  11.416
46761SOL    HW142122  14.787   5.198  11.351
46761SOL    HW242123   0.010   5.177  11.461
46762SOL     OW42124   5.390   1.870   2.404
46762SOL    HW142125   5.351   1.949   2.441
46762SOL    HW242126   5.451   1.840   2.471
46763SOL     OW42127   8.851  14.813   8.281
46763SOL    HW142128   8.793  14.839   8.210
46763SOL    HW242129   8.792  14.797   8.355
46764SOL     OW42130   1.949   3.225  13.331
46764SOL    HW142131   1.913   3.158  13.273
46764SOL    HW242132   1.872   3.273  13.363
46765SOL     OW42133  13.865  11.897   3.458
46765SOL    HW142134  13.860  11.891   3.554
46765SOL    HW242135  13.824  11.981   3.437
46766SOL     OW42136  13.108  13.878  10.435
46766SOL    HW142137  13.115  13.819  10.360
46766SOL    HW242138  13.189  13.927  10.434
46767SOL     OW42139  13.372   2.711   4.648
46767SOL    HW142140  13.452   2.686   4.600
46767SOL    HW242141  13.403   2.770   4.717
46768SOL     OW42142  14.687  10.109  10.760
46768SOL    HW142143  14.773  10.146  10.777
46768SOL    HW242144  14.692  10.020  10.793
46769SOL     OW42145   8.953  14.766   3.783
46769SOL    HW142146   8.930  14.832   3.848
46769SOL    HW242147   9.046  14.749   3.797
46770SOL     OW42148   3.968  10.217   3.661
46770SOL    HW142149   3.933  10.131   3.639
46770SOL    HW242150   3.913  10.278   3.613
46771SOL     OW42151   5.128  14.485   4.823
46771SOL    HW142152   5.087  14.425   4.761
46771SOL    HW242153   5.092  14.571   4.800
46772SOL     OW42154   6.772   2.070   3.925
46772SOL    HW142155   6.823   2.070   3.844
46772SOL    HW242156   6.834   2.099   3.992
46773SOL     OW42157   7.122   4.048   9.712
46773SOL    HW142158   7.188   4.066   9.645
46773SOL    HW242159   7.105   4.133   9.753
46774SOL     OW42160  11.325  14.307  11.072
46774SOL    HW142161  11.324  14.308  10.977
46774SOL    HW242162  11.389  14.239  11.095
46775SOL     OW42163   1.558  13.872  14.426
46775SOL    HW142164   1.607  13.797  14.391
46775SOL    HW242165   1.507  13.836  14.499
46776SOL     OW42166   6.652  11.831   9.161
46776SOL    HW142167   6.691  11.914   9.189
46776SOL    HW242168   6.580  11.817   9.222
46777SOL     OW42169  11.439  12.723  13.710
46777SOL    HW142170  11.478  12.773  13.781
46777SOL    HW242171  11.491  12.746  13.633
46778SOL     OW42172  14.542  10.395   1.492
46778SOL    HW142173  14.508  10.456   1.557
46778SOL    HW242174  14.517  10.432   1.408
46779SOL     OW42175  11.584  11.319  12.629
46779SOL    HW142176  11.620  11.394  12.678
46779SOL    HW242177  11.498  11.304  12.669
46780SOL     OW42178  10.341   7.791  14.618
46780SOL    HW142179  10.425   7.816  14.656
46780SOL    HW242180  10.335   7.842  14.537
46781SOL     OW42181   8.195   1.212  14.682
46781SOL    HW142182   8.165   1.128  14.717
46781SOL    HW242183   8.241   1.254  14.755
46782SOL     OW42184   6.168  11.907  14.447
46782SOL    HW142185   6.158  12.002  14.460
46782SOL    HW242186   6.234  11.900  14.378
46783SOL     OW42187   3.414  14.831  12.728
46783SOL    HW142188   3.319  14.843  12.736
46783SOL    HW242189   3.450  14.871  12.807
46784SOL     OW42190  12.282   3.613  10.364
46784SOL    HW142191  12.307   3.542  10.305
46784SOL    HW242192  12.295   3.693  10.313
46785SOL     OW42193   5.928   2.575  11.755
46785SOL    HW142194   5.912   2.482  11.737
46785SOL    HW242195   5.986   2.603  11.685
46786SOL     OW42196   2.642  10.175   0.469
46786SOL    HW142197   2.643  10.234   0.393
46786SOL    HW242198   2.597  10.097   0.438
46787SOL     OW42199  11.217  10.979  10.775
46787SOL    HW142200  11.310  10.958  10.778
46787SOL    HW242201  11.187  10.969  10.865
46788SOL     OW42202   7.201  11.505   6.247
46788SOL    HW142203   7.223  11.498   6.340
46788SOL    HW242204   7.147  11.429   6.229
46789SOL     OW42205   9.958   7.545   9.222
46789SOL    HW142206  10.049   7.555   9.192
46789SOL    HW242207   9.960   7.470   9.281
46790SOL     OW42208  11.121   4.934   0.760
46790SOL    HW142209  11.106   4.840   0.753
46790SOL    HW242210  11.036   4.973   0.740
46791SOL     OW42211  13.276   6.375  14.044
46791SOL    HW142212  13.261   6.469  14.032
46791SOL    HW242213  13.188   6.338  14.057
46792SOL     OW42214   8.439  10.212   0.485
46792SOL    HW142215   8.438  10.125   0.526
46792SOL    HW242216   8.501  10.204   0.413
46793SOL     OW42217  14.640   5.214   7.126
46793SOL    HW142218  14.598   5.130   7.109
46793SOL    HW242219  14.677   5.206   7.214
46794SOL     OW42220  14.099  13.088  14.488
46794SOL    HW142221  14.172  13.043  14.445
46794SOL    HW242222  14.053  13.132  14.416
46795SOL     OW42223  11.288   7.020   4.274
46795SOL    HW142224  11.286   7.105   4.231
46795SOL    HW242225  11.199   6.986   4.266
46796SOL     OW42226   4.826   6.604  12.125
46796SOL    HW142227   4.869   6.562  12.200
46796SOL    HW242228   4.894   6.659  12.086
46797SOL     OW42229   2.079   5.928  11.748
46797SOL    HW142230   2.135   6.004  11.763
46797SOL    HW242231   2.138   5.861  11.712
46798SOL     OW42232  13.009   8.557  11.520
46798SOL    HW142233  13.087   8.530  11.471
46798SOL    HW242234  13.034   8.546  11.612
46799SOL     OW42235   4.227  11.356  11.131
46799SOL    HW142236   4.176  11.434  11.154
46799SOL    HW242237   4.202  11.337  11.041
46800SOL     OW42238   9.970   9.986   1.456
46800SOL    HW142239   9.939  10.027   1.537
46800SOL    HW242240   9.934  10.040   1.386
46801SOL     OW42241   4.378  11.872   9.512
46801SOL    HW142242   4.401  11.937   9.445
46801SOL    HW242243   4.295  11.834   9.481
46802SOL     OW42244  13.721  11.601  13.270
46802SOL    HW142245  13.774  11.544  13.326
46802SOL    HW242246  13.774  11.614  13.191
46803SOL     OW42247   5.857   0.080   5.540
46803SOL    HW142248   5.941   0.127   5.544
46803SOL    HW242249   5.856   0.027   5.620
46804SOL     OW42250  13.380  14.263   9.214
46804SOL    HW142251  13.425  14.219   9.287
46804SOL    HW242252  13.414  14.352   9.215
46805SOL     OW42253  13.728   3.160   0.703
46805SOL    HW142254  13.676   3.142   0.781
46805SOL    HW242255  13.799   3.216   0.734
46806SOL     OW42256   4.255   2.843  14.083
46806SOL    HW142257   4.210   2.925  14.061
46806SOL    HW242258   4.343   2.871  14.109
46807SOL     OW42259   4.195   4.495   4.852
46807SOL    HW142260   4.286   4.524   4.844
46807SOL    HW242261   4.158   4.550   4.922
46808SOL     OW42262  11.705  12.039   5.578
46808SOL    HW142263  11.764  11.978   5.622
46808SOL    HW242264  11.621  12.027   5.621
46809SOL     OW42265  14.193  11.520   1.512
46809SOL    HW142266  14.282  11.485   1.508
46809SOL    HW242267  14.175  11.550   1.422
46810SOL     OW42268  13.057  12.927   6.645
46810SOL    HW142269  13.127  12.921   6.579
46810SOL    HW242270  13.008  13.006   6.621
46811SOL     OW42271   9.985   2.647   5.204
46811SOL    HW142272   9.977   2.581   5.273
46811SOL    HW242273  10.062   2.619   5.154
46812SOL     OW42274   1.877  13.227   9.071
46812SOL    HW142275   1.934  13.154   9.093
46812SOL    HW242276   1.862  13.219   8.977
46813SOL     OW42277  12.516  13.985  14.751
46813SOL    HW142278  12.455  13.998  14.678
46813SOL    HW242279  12.499  14.059  14.809
46814SOL     OW42280   7.147  12.552   6.192
46814SOL    HW142281   7.148  12.525   6.283
46814SOL    HW242282   7.130  12.646   6.194
46815SOL     OW42283  12.374   7.462   3.838
46815SOL    HW142284  12.292   7.504   3.862
46815SOL    HW242285  12.366   7.444   3.744
46816SOL     OW42286   9.766   6.301  10.912
46816SOL    HW142287   9.802   6.217  10.883
46816SOL    HW242288   9.720   6.335  10.835
46817SOL     OW42289   5.540   0.476   9.084
46817SOL    HW142290   5.476   0.527   9.135
46817SOL    HW242291   5.487   0.417   9.031
46818SOL     OW42292   2.060  13.807  12.318
46818SOL    HW142293   2.076  13.736  12.256
46818SOL    HW242294   2.001  13.769  12.383
46819SOL     OW42295   7.498   4.542   0.092
46819SOL    HW142296   7.405   4.520   0.098
46819SOL    HW242297   7.499   4.635   0.070
46820SOL     OW42298  13.247   0.527   8.701
46820SOL    HW142299  13.300   0.559   8.774
46820SOL    HW242300  13.212   0.443   8.732
46821SOL     OW42301   6.607   3.511  12.200
46821SOL    HW142302   6.604   3.446  12.271
46821SOL    HW242303   6.642   3.462  12.125
46822SOL     OW42304   6.821   9.853   3.318
46822SOL    HW142305   6.877   9.833   3.393
46822SOL    HW242306   6.815   9.948   3.318
46823SOL     OW42307   5.665   1.603   4.703
46823SOL    HW142308   5.583   1.648   4.723
46823SOL    HW242309   5.669   1.531   4.766
46824SOL     OW42310   2.602   8.285   0.549
46824SOL    HW142311   2.546   8.334   0.489
46824SOL    HW242312   2.610   8.342   0.626
46825SOL     OW42313   0.833   3.635   0.765
46825SOL    HW142314   0.769   3.589   0.819
46825SOL    HW242315   0.850   3.717   0.811
46826SOL     OW42316   5.957  14.568   0.061
46826SOL    HW142317   5.983  14.534   0.146
46826SOL    HW242318   6.025  14.538   0.001
46827SOL     OW42319   7.313  11.264  11.484
46827SOL    HW142320   7.278  11.282  11.572
46827SOL    HW242321   7.343  11.350  11.453
46828SOL     OW42322   5.261  10.527   0.816
46828SOL    HW142323   5.260  10.581   0.736
46828SOL    HW242324   5.247  10.590   0.887
46829SOL     OW42325  10.983   7.030  10.997
46829SOL    HW142326  11.077   7.013  10.986
46829SOL    HW242327  10.945   7.011  10.912
46830SOL     OW42328  11.652   5.894  12.591
46830SOL    HW142329  11.643   5.969  12.532
46830SOL    HW242330  11.729   5.916  12.645
46831SOL     OW42331   2.600   1.990   2.170
46831SOL    HW142332   2.608   1.980   2.265
46831SOL    HW242333   2.572   2.081   2.158
46832SOL     OW42334   0.950  14.168   0.014
46832SOL    HW142335   0.897  14.245   0.035
46832SOL    HW242336   1.040  14.199   0.019
46833SOL     OW42337  10.862  13.441  10.369
46833SOL    HW142338  10.771  13.470  10.381
46833SOL    HW242339  10.877  13.379  10.440
46834SOL     OW42340   9.919  14.353  12.198
46834SOL    HW142341   9.902  14.444  12.173
46834SOL    HW242342   9.833  14.318  12.221
46835SOL     OW42343   7.498   3.670   1.934
46835SOL    HW142344   7.485   3.722   2.013
46835SOL    HW242345   7.447   3.590   1.948
46836SOL     OW42346   9.639   7.168  14.082
46836SOL    HW142347   9.706   7.210  14.136
46836SOL    HW242348   9.593   7.110  14.143
46837SOL     OW42349   4.912   1.766   1.854
46837SOL    HW142350   4.913   1.818   1.934
46837SOL    HW242351   4.848   1.809   1.798
46838SOL     OW42352   2.035   3.014   6.603
46838SOL    HW142353   2.059   2.954   6.674
46838SOL    HW242354   2.101   2.999   6.536
46839SOL     OW42355   3.275  14.639   7.272
46839SOL    HW142356   3.332  14.602   7.340
46839SOL    HW242357   3.236  14.716   7.313
46840SOL     OW42358  14.208   0.247   7.573
46840SOL    HW142359  14.294   0.209   7.592
46840SOL    HW242360  14.183   0.292   7.653
46841SOL     OW42361  10.392   6.495   5.182
46841SOL    HW142362  10.362   6.548   5.108
46841SOL    HW242363  10.397   6.556   5.255
46842SOL     OW42364   2.226  10.366   2.897
46842SOL    HW142365   2.210  10.329   2.811
46842SOL    HW242366   2.256  10.455   2.880
46843SOL     OW42367   2.487  12.190   4.529
46843SOL    HW142368   2.516  12.262   4.473
46843SOL    HW242369   2.511  12.218   4.617
46844SOL     OW42370  13.484  10.921   9.338
46844SOL    HW142371  13.512  10.829   9.339
46844SOL    HW242372  13.432  10.929   9.259
46845SOL     OW42373  11.795   5.860  12.905
46845SOL    HW142374  11.745   5.782  12.879
46845SOL    HW242375  11.736   5.908  12.962
46846SOL     OW42376  13.415   2.412   9.708
46846SOL    HW142377  13.472   2.489   9.708
46846SOL    HW242378  13.455   2.354   9.643
46847SOL     OW42379   4.414   5.435   5.312
46847SOL    HW142380   4.487   5.483   5.271
46847SOL    HW242381   4.342   5.498   5.314
46848SOL     OW42382   3.427   8.308   9.040
46848SOL    HW142383   3.355   8.321   9.102
46848SOL    HW242384   3.443   8.214   9.044
46849SOL     OW42385   8.793   4.559  11.263
46849SOL    HW142386   8.827   4.643  11.232
46849SOL    HW242387   8.857   4.494  11.234
46850SOL     OW42388  14.026   9.049  10.816
46850SOL    HW142389  13.968   8.974  10.799
46850SOL    HW242390  14.018   9.065  10.909
46851SOL     OW42391   6.851   1.246   0.242
46851SOL    HW142392   6.921   1.290   0.194
46851SOL    HW242393   6.798   1.318   0.278
46852SOL     OW42394  14.247   8.141   2.865
46852SOL    HW142395  14.189   8.065   2.866
46852SOL    HW242396  14.210   8.199   2.798
46853SOL     OW42397   6.737   8.381   1.182
46853SOL    HW142398   6.766   8.400   1.271
46853SOL    HW242399   6.774   8.451   1.128
46854SOL     OW42400  13.593   4.777   0.993
46854SOL    HW142401  13.594   4.788   0.898
46854SOL    HW242402  13.501   4.762   1.014
46855SOL     OW42403   6.207   1.543   7.884
46855SOL    HW142404   6.157   1.621   7.859
46855SOL    HW242405   6.290   1.553   7.839
46856SOL     OW42406   3.423   7.327  14.156
46856SOL    HW142407   3.434   7.328  14.061
46856SOL    HW242408   3.334   7.358  14.170
46857SOL     OW42409   0.130  14.473   3.136
46857SOL    HW142410   0.043  14.445   3.165
46857SOL    HW242411   0.181  14.482   3.217
46858SOL     OW42412   1.123   5.390   5.830
46858SOL    HW142413   1.131   5.476   5.872
46858SOL    HW242414   1.116   5.328   5.903
46859SOL     OW42415   6.525   9.162   0.192
46859SOL    HW142416   6.533   9.256   0.211
46859SOL    HW242417   6.586   9.147   0.120
46860SOL     OW42418   5.060   0.679   7.082
46860SOL    HW142419   5.123   0.619   7.121
46860SOL    HW242420   5.028   0.731   7.156
46861SOL     OW42421  11.266  11.573  13.388
46861SOL    HW142422  11.320  11.537  13.458
46861SOL    HW242423  11.298  11.530  13.308
46862SOL     OW42424   4.441   1.939   5.244
46862SOL    HW142425   4.373   1.873   5.238
46862SOL    HW242426   4.408   2.014   5.194
46863SOL     OW42427  12.368  14.654  12.735
46863SOL    HW142428  12.458  14.644  12.704
46863SOL    HW242429  12.372  14.637  12.829
46864SOL     OW42430   7.731   7.987  12.856
46864SOL    HW142431   7.807   8.033  12.893
46864SOL    HW242432   7.740   7.897  12.887
46865SOL     OW42433  10.734   9.212  12.130
46865SOL    HW142434  10.729   9.221  12.225
46865SOL    HW242435  10.763   9.122  12.116
46866SOL     OW42436   6.440   7.466  11.859
46866SOL    HW142437   6.466   7.375  11.868
46866SOL    HW242438   6.517   7.516  11.886
46867SOL     OW42439  11.207  13.554   4.281
46867SOL    HW142440  11.291  13.515   4.257
46867SOL    HW242441  11.178  13.503   4.356
46868SOL     OW42442  13.985   5.940   4.434
46868SOL    HW142443  13.975   5.849   4.405
46868SOL    HW242444  14.063   5.939   4.489
46869SOL     OW42445   3.469  11.231  10.065
46869SOL    HW142446   3.464  11.271  10.152
46869SOL    HW242447   3.378  11.216  10.040
46870SOL     OW42448  13.608   6.919   2.915
46870SOL    HW142449  13.644   6.904   2.828
46870SOL    HW242450  13.543   6.850   2.926
46871SOL     OW42451  10.028  13.511  14.208
46871SOL    HW142452  10.038  13.513  14.303
46871SOL    HW242453  10.104  13.463  14.176
46872SOL     OW42454  13.695   8.137  13.868
46872SOL    HW142455  13.603   8.145  13.843
46872SOL    HW242456  13.724   8.227  13.880
46873SOL     OW42457   3.913   6.108  11.245
46873SOL    HW142458   3.843   6.167  11.218
46873SOL    HW242459   3.983   6.123  11.181
46874SOL     OW42460   3.317  12.237  11.053
46874SOL    HW142461   3.396  12.201  11.012
46874SOL    HW242462   3.246  12.182  11.021
46875SOL     OW42463   3.209  14.643  12.218
46875SOL    HW142464   3.133  14.594  12.250
46875SOL    HW242465   3.253  14.673  12.298
46876SOL     OW42466  10.682   3.441   4.439
46876SOL    HW142467  10.614   3.386   4.479
46876SOL    HW242468  10.646   3.529   4.441
46877SOL     OW42469   7.507   1.678   4.502
46877SOL    HW142470   7.549   1.735   4.437
46877SOL    HW242471   7.500   1.733   4.580
46878SOL     OW42472   1.367   0.412  12.182
46878SOL    HW142473   1.379   0.498  12.142
46878SOL    HW242474   1.371   0.428  12.276
46879SOL     OW42475  10.390  11.471   7.814
46879SOL    HW142476  10.382  11.564   7.832
46879SOL    HW242477  10.366  11.462   7.721
46880SOL     OW42478  11.554   9.456  11.718
46880SOL    HW142479  11.522   9.454  11.809
46880SOL    HW242480  11.519   9.538  11.683
46881SOL     OW42481   8.146  13.792   1.853
46881SOL    HW142482   8.198  13.712   1.850
46881SOL    HW242483   8.179  13.845   1.780
46882SOL     OW42484   8.641   8.207   2.818
46882SOL    HW142485   8.584   8.160   2.757
46882SOL    HW242486   8.610   8.181   2.905
46883SOL     OW42487   4.630   7.404   3.441
46883SOL    HW142488   4.683   7.377   3.366
46883SOL    HW242489   4.646   7.338   3.507
46884SOL     OW42490  13.015   9.515  10.455
46884SOL    HW142491  13.110   9.506  10.457
46884SOL    HW242492  12.992   9.519  10.362
46885SOL     OW42493   2.056  11.378   0.290
46885SOL    HW142494   1.974  11.328   0.289
46885SOL    HW242495   2.105  11.341   0.364
46886SOL     OW42496   0.553  12.445   1.599
46886SOL    HW142497   0.575  12.389   1.674
46886SOL    HW242498   0.543  12.533   1.636
46887SOL     OW42499   1.715  12.265   6.186
46887SOL    HW142500   1.732  12.329   6.116
46887SOL    HW242501   1.729  12.180   6.143
46888SOL     OW42502  14.453  13.336  13.518
46888SOL    HW142503  14.512  13.334  13.443
46888SOL    HW242504  14.460  13.425  13.552
46889SOL     OW42505   6.604   3.531  12.635
46889SOL    HW142506   6.585   3.534  12.729
46889SOL    HW242507   6.576   3.443  12.608
46890SOL     OW42508   3.645   3.387   8.284
46890SOL    HW142509   3.737   3.414   8.292
46890SOL    HW242510   3.646   3.319   8.216
46891SOL     OW42511  11.621  14.131   9.350
46891SOL    HW142512  11.667  14.213   9.332
46891SOL    HW242513  11.598  14.138   9.443
46892SOL     OW42514   8.773   4.746   8.756
46892SOL    HW142515   8.698   4.800   8.780
46892SOL    HW242516   8.760   4.727   8.663
46893SOL     OW42517   9.610   6.838   6.079
46893SOL    HW142518   9.639   6.757   6.121
46893SOL    HW242519   9.537   6.868   6.134
46894SOL     OW42520  11.638  13.572  14.122
46894SOL    HW142521  11.656  13.609  14.036
46894SOL    HW242522  11.546  13.595  14.139
46895SOL     OW42523   1.067  12.515   0.394
46895SOL    HW142524   1.013  12.470   0.458
46895SOL    HW242525   1.078  12.603   0.429
46896SOL     OW42526  10.037   4.365  13.143
46896SOL    HW142527  10.022   4.322  13.059
46896SOL    HW242528   9.992   4.310  13.207
46897SOL     OW42529   8.799   7.472   6.313
46897SOL    HW142530   8.781   7.563   6.338
46897SOL    HW242531   8.747   7.458   6.234
46898SOL     OW42532  11.337   0.283   6.678
46898SOL    HW142533  11.327   0.250   6.767
46898SOL    HW242534  11.254   0.263   6.636
46899SOL     OW42535   3.834  12.471   8.150
46899SOL    HW142536   3.859  12.428   8.232
46899SOL    HW242537   3.741  12.490   8.160
46900SOL     OW42538  13.520  13.301  10.765
46900SOL    HW142539  13.546  13.227  10.709
46900SOL    HW242540  13.468  13.262  10.834
46901SOL     OW42541  11.540  11.063   8.052
46901SOL    HW142542  11.627  11.102   8.058
46901SOL    HW242543  11.490  11.105   8.122
46902SOL     OW42544   4.645   6.992  10.155
46902SOL    HW142545   4.577   7.033  10.102
46902SOL    HW242546   4.630   7.026  10.243
46903SOL     OW42547   1.842   3.388   0.012
46903SOL    HW142548   1.887   3.461   0.054
46903SOL    HW242549   1.845   3.409  14.798
46904SOL     OW42550  11.769   5.045   0.755
46904SOL    HW142551  11.689   5.088   0.784
46904SOL    HW242552  11.773   4.964   0.806
46905SOL     OW42553   7.958   6.925   1.086
46905SOL    HW142554   7.923   6.843   1.049
46905SOL    HW242555   7.898   6.993   1.053
46906SOL     OW42556  12.051   6.409   6.265
46906SOL    HW142557  12.020   6.462   6.339
46906SOL    HW242558  11.971   6.371   6.228
46907SOL     OW42559   0.855   3.136  13.001
46907SOL    HW142560   0.841   3.064  13.064
46907SOL    HW242561   0.872   3.092  12.918
46908SOL     OW42562   0.844   1.815   7.571
46908SOL    HW142563   0.798   1.899   7.562
46908SOL    HW242564   0.906   1.814   7.497
46909SOL     OW42565   1.150   7.585   3.372
46909SOL    HW142566   1.242   7.610   3.362
46909SOL    HW242567   1.153   7.492   3.394
46910SOL     OW42568   9.114   0.435  10.450
46910SOL    HW142569   9.044   0.452  10.513
46910SOL    HW242570   9.091   0.488  10.374
46911SOL     OW42571   0.503  13.017  10.991
46911SOL    HW142572   0.448  12.961  10.936
46911SOL    HW242573   0.457  13.021  11.075
46912SOL     OW42574  10.909   0.109  14.655
46912SOL    HW142575  10.916   0.014  14.660
46912SOL    HW242576  10.830   0.130  14.706
46913SOL     OW42577   8.411  12.783  13.405
46913SOL    HW142578   8.366  12.802  13.323
46913SOL    HW242579   8.501  12.811  13.390
46914SOL     OW42580  10.515  12.343   6.428
46914SOL    HW142581  10.462  12.351   6.507
46914SOL    HW242582  10.501  12.253   6.399
46915SOL     OW42583   2.779   0.871  11.199
46915SOL    HW142584   2.855   0.928  11.189
46915SOL    HW242585   2.731   0.909  11.273
46916SOL     OW42586  12.806  11.651   1.209
46916SOL    HW142587  12.762  11.734   1.190
46916SOL    HW242588  12.772  11.625   1.295
46917SOL     OW42589   7.424   7.184   5.221
46917SOL    HW142590   7.489   7.150   5.283
46917SOL    HW242591   7.448   7.276   5.210
46918SOL     OW42592   4.544  10.133   9.993
46918SOL    HW142593   4.586  10.218  10.006
46918SOL    HW242594   4.522  10.102  10.081
46919SOL     OW42595   9.174  10.363   8.073
46919SOL    HW142596   9.182  10.277   8.116
46919SOL    HW242597   9.121  10.346   7.995
46920SOL     OW42598   5.029  12.415   0.552
46920SOL    HW142599   5.062  12.497   0.514
46920SOL    HW242600   5.107  12.364   0.571
46921SOL     OW42601  12.135   2.179  13.977
46921SOL    HW142602  12.067   2.116  13.952
46921SOL    HW242603  12.091   2.264  13.973
46922SOL     OW42604   7.950   7.444  14.685
46922SOL    HW142605   7.854   7.440  14.689
46922SOL    HW242606   7.971   7.410  14.598
46923SOL     OW42607  10.648   5.749  12.108
46923SOL    HW142608  10.740   5.768  12.086
46923SOL    HW242609  10.600   5.764  12.027
46924SOL     OW42610  11.161   0.438   3.104
46924SOL    HW142611  11.076   0.410   3.136
46924SOL    HW242612  11.223   0.401   3.167
46925SOL     OW42613  12.122   7.804  10.279
46925SOL    HW142614  12.071   7.765  10.350
46925SOL    HW242615  12.211   7.812  10.314
46926SOL     OW42616  10.742   1.876   1.513
46926SOL    HW142617  10.762   1.945   1.451
46926SOL    HW242618  10.651   1.891   1.539
46927SOL     OW42619   4.113   8.245   0.814
46927SOL    HW142620   4.057   8.251   0.892
46927SOL    HW242621   4.127   8.151   0.803
46928SOL     OW42622   5.644   6.867  14.161
46928SOL    HW142623   5.549   6.863  14.168
46928SOL    HW242624   5.662   6.859  14.067
46929SOL     OW42625  11.247  11.760  12.650
46929SOL    HW142626  11.340  11.742  12.663
46929SOL    HW242627  11.244  11.848  12.614
46930SOL     OW42628   9.496  12.954  10.056
46930SOL    HW142629   9.514  12.915   9.970
46930SOL    HW242630   9.491  12.879  10.116
46931SOL     OW42631   8.114  14.444  10.673
46931SOL    HW142632   8.053  14.493  10.618
46931SOL    HW242633   8.060  14.375  10.712
46932SOL     OW42634   1.326   5.452  13.034
46932SOL    HW142635   1.313   5.395  12.958
46932SOL    HW242636   1.300   5.398  13.109
46933SOL     OW42637   7.239   7.098  12.755
46933SOL    HW142638   7.319   7.055  12.724
46933SOL    HW242639   7.176   7.082  12.685
46934SOL     OW42640  13.468  13.827  13.231
46934SOL    HW142641  13.373  13.821  13.222
46934SOL    HW242642  13.500  13.740  13.205
46935SOL     OW42643   2.770   2.098   1.415
46935SOL    HW142644   2.854   2.087   1.371
46935SOL    HW242645   2.753   2.013   1.456
46936SOL     OW42646   5.349  13.478  12.828
46936SOL    HW142647   5.377  13.431  12.750
46936SOL    HW242648   5.263  13.442  12.849
46937SOL     OW42649   1.031   3.255   8.134
46937SOL    HW142650   0.978   3.199   8.191
46937SOL    HW242651   1.085   3.194   8.084
46938SOL     OW42652   7.180   8.985  12.202
46938SOL    HW142653   7.205   9.008  12.291
46938SOL    HW242654   7.096   8.939  12.212
46939SOL     OW42655   0.307   5.824  13.948
46939SOL    HW142656   0.369   5.887  13.913
46939SOL    HW242657   0.352   5.739  13.939
46940SOL     OW42658   6.751   7.470  10.709
46940SOL    HW142659   6.663   7.486  10.743
46940SOL    HW242660   6.784   7.397  10.760
46941SOL     OW42661  11.547   1.314   2.218
46941SOL    HW142662  11.507   1.379   2.161
46941SOL    HW242663  11.486   1.240   2.217
46942SOL     OW42664  10.281  14.036   9.837
46942SOL    HW142665  10.364  14.055   9.881
46942SOL    HW242666  10.214  14.058   9.902
46943SOL     OW42667  12.497  12.323   8.451
46943SOL    HW142668  12.494  12.267   8.373
46943SOL    HW242669  12.574  12.379   8.437
46944SOL     OW42670   9.420   8.345   2.663
46944SOL    HW142671   9.467   8.277   2.712
46944SOL    HW242672   9.376   8.397   2.731
46945SOL     OW42673   3.349  13.509   3.245
46945SOL    HW142674   3.376  13.573   3.179
46945SOL    HW242675   3.344  13.426   3.198
46946SOL     OW42676  11.072   7.740   8.624
46946SOL    HW142677  11.084   7.646   8.633
46946SOL    HW242678  10.991   7.759   8.671
46947SOL     OW42679   1.727   5.288  11.790
46947SOL    HW142680   1.786   5.290  11.714
46947SOL    HW242681   1.639   5.293  11.752
46948SOL     OW42682  14.066   9.834   3.218
46948SOL    HW142683  14.065   9.745   3.182
46948SOL    HW242684  14.149   9.872   3.189
46949SOL     OW42685   3.471   2.312   7.225
46949SOL    HW142686   3.504   2.227   7.196
46949SOL    HW242687   3.388   2.292   7.269
46950SOL     OW42688   2.284   0.152   7.555
46950SOL    HW142689   2.236   0.125   7.634
46950SOL    HW242690   2.215   0.182   7.495
46951SOL     OW42691   5.296   2.071   6.277
46951SOL    HW142692   5.206   2.049   6.303
46951SOL    HW242693   5.296   2.063   6.182
46952SOL     OW42694  12.927   8.803  13.411
46952SOL    HW142695  12.938   8.790  13.317
46952SOL    HW242696  13.016   8.806  13.446
46953SOL     OW42697   3.942   4.479  13.280
46953SOL    HW142698   3.849   4.487  13.303
46953SOL    HW242699   3.948   4.511  13.191
46954SOL     OW42700   2.750  12.951  11.556
46954SOL    HW142701   2.744  12.975  11.463
46954SOL    HW242702   2.704  12.867  11.562
46955SOL     OW42703   7.138   9.268   8.313
46955SOL    HW142704   7.155   9.272   8.219
46955SOL    HW242705   7.057   9.218   8.321
46956SOL     OW42706  13.217   7.189   0.934
46956SOL    HW142707  13.287   7.138   0.895
46956SOL    HW242708  13.149   7.192   0.867
46957SOL     OW42709   9.443   4.762   2.001
46957SOL    HW142710   9.410   4.844   1.964
46957SOL    HW242711   9.531   4.784   2.033
46958SOL     OW42712   7.589  11.483  12.064
46958SOL    HW142713   7.669  11.431  12.069
46958SOL    HW242714   7.519  11.422  12.087
46959SOL     OW42715  12.907  12.567  11.308
46959SOL    HW142716  12.913  12.645  11.253
46959SOL    HW242717  12.839  12.589  11.372
46960SOL     OW42718   9.044   1.757  14.517
46960SOL    HW142719   9.076   1.668  14.525
46960SOL    HW242720   9.045   1.792  14.606
46961SOL     OW42721   2.720   4.156   8.633
46961SOL    HW142722   2.627   4.179   8.631
46961SOL    HW242723   2.725   4.070   8.593
46962SOL     OW42724   3.871   8.162   9.575
46962SOL    HW142725   3.921   8.218   9.516
46962SOL    HW242726   3.869   8.077   9.532
46963SOL     OW42727   6.296   8.994   0.186
46963SOL    HW142728   6.343   8.913   0.163
46963SOL    HW242729   6.361   9.063   0.177
46964SOL     OW42730  11.387   6.914  14.513
46964SOL    HW142731  11.394   6.987  14.451
46964SOL    HW242732  11.336   6.948  14.586
46965SOL     OW42733   3.853   3.830   2.208
46965SOL    HW142734   3.859   3.897   2.275
46965SOL    HW242735   3.906   3.864   2.135
46966SOL     OW42736   4.755   8.542   1.322
46966SOL    HW142737   4.723   8.509   1.406
46966SOL    HW242738   4.818   8.475   1.293
46967SOL     OW42739   8.167  11.470   0.126
46967SOL    HW142740   8.126  11.495   0.208
46967SOL    HW242741   8.239  11.532   0.114
46968SOL     OW42742  11.396   6.492   0.075
46968SOL    HW142743  11.342   6.559   0.032
46968SOL    HW242744  11.425   6.533   0.156
46969SOL     OW42745   4.586  11.122  10.226
46969SOL    HW142746   4.593  11.168  10.142
46969SOL    HW242747   4.638  11.174  10.287
46970SOL     OW42748  10.706   1.408   6.681
46970SOL    HW142749  10.770   1.389   6.612
46970SOL    HW242750  10.630   1.443   6.635
46971SOL     OW42751   5.008   9.926   4.778
46971SOL    HW142752   5.055   9.999   4.819
46971SOL    HW242753   5.042   9.848   4.822
46972SOL     OW42754   8.748   1.250   3.443
46972SOL    HW142755   8.652   1.250   3.444
46972SOL    HW242756   8.771   1.231   3.352
46973SOL     OW42757   1.607   8.975   8.126
46973SOL    HW142758   1.676   9.038   8.146
46973SOL    HW242759   1.529   9.028   8.111
46974SOL     OW42760   7.438   6.817   4.646
46974SOL    HW142761   7.511   6.829   4.707
46974SOL    HW242762   7.480   6.812   4.560
46975SOL     OW42763   4.552   1.060   2.792
46975SOL    HW142764   4.509   1.112   2.724
46975SOL    HW242765   4.491   0.989   2.812
46976SOL     OW42766  11.730   5.975   1.380
46976SOL    HW142767  11.779   5.989   1.299
46976SOL    HW242768  11.717   5.880   1.384
46977SOL     OW42769   4.107   3.655   4.513
46977SOL    HW142770   4.066   3.600   4.446
46977SOL    HW242771   4.200   3.654   4.490
46978SOL     OW42772  10.116   8.740  10.089
46978SOL    HW142773  10.192   8.688  10.062
46978SOL    HW242774  10.088   8.700  10.171
46979SOL     OW42775   2.488   5.422  11.270
46979SOL    HW142776   2.550   5.495  11.276
46979SOL    HW242777   2.531   5.358  11.213
46980SOL     OW42778  13.639   3.150   7.045
46980SOL    HW142779  13.555   3.105   7.041
46980SOL    HW242780  13.688   3.104   7.113
46981SOL     OW42781   8.639   1.248  12.088
46981SOL    HW142782   8.725   1.285  12.108
46981SOL    HW242783   8.614   1.200  12.167
46982SOL     OW42784  12.763   0.620  14.781
46982SOL    HW142785  12.772   0.538  14.731
46982SOL    HW242786  12.723   0.681  14.719
46983SOL     OW42787   6.576   4.068   7.497
46983SOL    HW142788   6.510   4.001   7.515
46983SOL    HW242789   6.597   4.103   7.583
46984SOL     OW42790  14.812  14.175   5.031
46984SOL    HW142791  14.777  14.263   5.018
46984SOL    HW242792  14.810  14.135   4.944
46985SOL     OW42793  13.415   4.238   6.270
46985SOL    HW142794  13.339   4.257   6.326
46985SOL    HW242795  13.476   4.191   6.327
46986SOL     OW42796   4.787   4.116   1.521
46986SOL    HW142797   4.747   4.034   1.492
46986SOL    HW242798   4.857   4.088   1.581
46987SOL     OW42799   3.842   3.258  14.507
46987SOL    HW142800   3.882   3.225  14.427
46987SOL    HW242801   3.913   3.304  14.553
46988SOL     OW42802   3.490   1.938   9.722
46988SOL    HW142803   3.568   1.943   9.666
46988SOL    HW242804   3.449   1.855   9.698
46989SOL     OW42805   6.208  13.109   7.580
46989SOL    HW142806   6.262  13.052   7.525
46989SOL    HW242807   6.163  13.166   7.518
46990SOL     OW42808   1.359   7.140   8.480
46990SOL    HW142809   1.326   7.184   8.401
46990SOL    HW242810   1.435   7.090   8.450
46991SOL     OW42811   0.541   1.688  13.540
46991SOL    HW142812   0.481   1.747  13.494
46991SOL    HW242813   0.613   1.744  13.568
46992SOL     OW42814  11.521   6.958   3.466
46992SOL    HW142815  11.520   6.881   3.523
46992SOL    HW242816  11.501   6.923   3.379
46993SOL     OW42817   5.575   1.143  12.793
46993SOL    HW142818   5.568   1.129  12.699
46993SOL    HW242819   5.485   1.152  12.823
46994SOL     OW42820   1.672   0.799  12.533
46994SOL    HW142821   1.745   0.839  12.581
46994SOL    HW242822   1.646   0.866  12.469
46995SOL     OW42823   9.060   7.838   7.380
46995SOL    HW142824   9.143   7.852   7.425
46995SOL    HW242825   9.085   7.810   7.292
46996SOL     OW42826   4.454   7.488   5.458
46996SOL    HW142827   4.496   7.558   5.508
46996SOL    HW242828   4.383   7.532   5.411
46997SOL     OW42829  10.569   8.264  13.822
46997SOL    HW142830  10.485   8.301  13.795
46997SOL    HW242831  10.618   8.253  13.741
46998SOL     OW42832  13.461   3.809   0.746
46998SOL    HW142833  13.387   3.755   0.775
46998SOL    HW242834  13.482   3.865   0.821
46999SOL     OW42835  11.070   6.658  10.768
46999SOL    HW142836  11.002   6.635  10.832
46999SOL    HW242837  11.033   6.731  10.719
47000SOL     OW42838   9.188  12.667   7.272
47000SOL    HW142839   9.262  12.728   7.278
47000SOL    HW242840   9.111  12.720   7.294
47001SOL     OW42841   0.248   1.775   5.826
47001SOL    HW142842   0.224   1.866   5.814
47001SOL    HW242843   0.227   1.733   5.743
47002SOL     OW42844   8.187   5.899   9.446
47002SOL    HW142845   8.257   5.932   9.503
47002SOL    HW242846   8.225   5.897   9.359
47003SOL     OW42847   7.815   0.681   0.648
47003SOL    HW142848   7.901   0.684   0.606
47003SOL    HW242849   7.752   0.678   0.576
47004SOL     OW42850  12.489   0.161   4.492
47004SOL    HW142851  12.572   0.186   4.533
47004SOL    HW242852  12.514   0.106   4.418
47005SOL     OW42853  14.277   5.656  14.033
47005SOL    HW142854  14.189   5.644  14.070
47005SOL    HW242855  14.270   5.736  13.981
47006SOL     OW42856  14.662   6.655  12.016
47006SOL    HW142857  14.756   6.652  11.996
47006SOL    HW242858  14.631   6.566  11.997
47007SOL     OW42859   2.075   2.781   8.871
47007SOL    HW142860   2.020   2.709   8.841
47007SOL    HW242861   2.100   2.756   8.960
47008SOL     OW42862  12.905   8.753   2.498
47008SOL    HW142863  12.852   8.824   2.463
47008SOL    HW242864  12.900   8.683   2.433
47009SOL     OW42865   4.806   0.807   5.143
47009SOL    HW142866   4.878   0.863   5.113
47009SOL    HW242867   4.803   0.736   5.078
47010SOL     OW42868  13.200   1.691   6.034
47010SOL    HW142869  13.121   1.737   6.005
47010SOL    HW242870  13.271   1.748   6.007
47011SOL     OW42871   5.988   0.354  14.411
47011SOL    HW142872   5.916   0.406  14.375
47011SOL    HW242873   6.041   0.331  14.336
47012SOL     OW42874   9.811   0.130   6.127
47012SOL    HW142875   9.879   0.196   6.112
47012SOL    HW242876   9.855   0.046   6.114
47013SOL     OW42877   7.175   7.284  14.633
47013SOL    HW142878   7.180   7.339  14.710
47013SOL    HW242879   7.159   7.345  14.561
47014SOL     OW42880   2.809   3.269   2.900
47014SOL    HW142881   2.854   3.344   2.938
47014SOL    HW242882   2.856   3.193   2.934
47015SOL     OW42883  11.757   4.765   7.206
47015SOL    HW142884  11.706   4.747   7.285
47015SOL    HW242885  11.840   4.801   7.238
47016SOL     OW42886   7.207   5.531  11.031
47016SOL    HW142887   7.225   5.621  11.005
47016SOL    HW242888   7.290   5.485  11.020
47017SOL     OW42889  13.254   2.969   1.332
47017SOL    HW142890  13.180   2.909   1.342
47017SOL    HW242891  13.265   3.008   1.418
47018SOL     OW42892   0.194  11.564  14.670
47018SOL    HW142893   0.177  11.629  14.738
47018SOL    HW242894   0.289  11.571  14.655
47019SOL     OW42895   6.334   7.179  12.752
47019SOL    HW142896   6.402   7.224  12.701
47019SOL    HW242897   6.274   7.249  12.778
47020SOL     OW42898   2.884   0.773   4.299
47020SOL    HW142899   2.974   0.793   4.324
47020SOL    HW242900   2.891   0.735   4.212
47021SOL     OW42901   1.616  13.374   4.118
47021SOL    HW142902   1.672  13.419   4.055
47021SOL    HW242903   1.645  13.283   4.117
47022SOL     OW42904  14.340   7.374   5.167
47022SOL    HW142905  14.385   7.381   5.083
47022SOL    HW242906  14.270   7.439   5.161
47023SOL     OW42907   9.534   7.858   2.680
47023SOL    HW142908   9.450   7.903   2.671
47023SOL    HW242909   9.570   7.854   2.592
47024SOL     OW42910  14.344  12.492   3.776
47024SOL    HW142911  14.436  12.481   3.801
47024SOL    HW242912  14.345  12.494   3.680
47025SOL     OW42913  13.876  13.702  13.298
47025SOL    HW142914  13.808  13.741  13.243
47025SOL    HW242915  13.867  13.747  13.382
47026SOL     OW42916   9.519   2.888   1.850
47026SOL    HW142917   9.491   2.918   1.764
47026SOL    HW242918   9.447   2.835   1.882
47027SOL     OW42919   6.168   3.993   8.297
47027SOL    HW142920   6.226   4.048   8.245
47027SOL    HW242921   6.226   3.932   8.343
47028SOL     OW42922  14.624   9.915   1.058
47028SOL    HW142923  14.608   9.832   1.015
47028SOL    HW242924  14.718   9.931   1.046
47029SOL     OW42925  12.070   0.942   3.852
47029SOL    HW142926  12.068   0.966   3.944
47029SOL    HW242927  12.133   0.870   3.847
47030SOL     OW42928   4.123   6.788  13.442
47030SOL    HW142929   4.086   6.860  13.493
47030SOL    HW242930   4.048   6.747  13.399
47031SOL     OW42931   5.863   0.555   6.644
47031SOL    HW142932   5.838   0.648   6.649
47031SOL    HW242933   5.929   0.551   6.575
47032SOL     OW42934  12.723   0.605   9.842
47032SOL    HW142935  12.732   0.682   9.899
47032SOL    HW242936  12.803   0.555   9.856
47033SOL     OW42937   1.293  12.000   6.941
47033SOL    HW142938   1.323  11.924   6.990
47033SOL    HW242939   1.260  11.964   6.859
47034SOL     OW42940   6.656   8.670   7.366
47034SOL    HW142941   6.735   8.722   7.380
47034SOL    HW242942   6.688   8.587   7.329
47035SOL     OW42943   4.030   3.085   4.892
47035SOL    HW142944   4.097   3.040   4.842
47035SOL    HW242945   4.073   3.164   4.926
47036SOL     OW42946  11.201   6.602   8.355
47036SOL    HW142947  11.265   6.552   8.305
47036SOL    HW242948  11.116   6.574   8.320
47037SOL     OW42949   8.476  10.041   8.246
47037SOL    HW142950   8.508   9.974   8.186
47037SOL    HW242951   8.551  10.099   8.260
47038SOL     OW42952   6.006   7.888   9.759
47038SOL    HW142953   5.963   7.918   9.840
47038SOL    HW242954   6.096   7.919   9.767
47039SOL     OW42955   1.071  13.202   7.645
47039SOL    HW142956   1.057  13.112   7.616
47039SOL    HW242957   1.108  13.194   7.733
47040SOL     OW42958   8.975   4.731  14.784
47040SOL    HW142959   8.982   4.636  14.782
47040SOL    HW242960   9.049   4.762  14.733
47041SOL     OW42961   1.837   8.293   5.128
47041SOL    HW142962   1.754   8.246   5.127
47041SOL    HW242963   1.849   8.321   5.219
47042SOL     OW42964   2.567  10.661   6.839
47042SOL    HW142965   2.510  10.637   6.767
47042SOL    HW242966   2.643  10.603   6.830
47043SOL     OW42967  12.747   5.971   7.203
47043SOL    HW142968  12.815   5.913   7.169
47043SOL    HW242969  12.665   5.925   7.184
47044SOL     OW42970  11.127   3.960   7.651
47044SOL    HW142971  11.191   4.017   7.693
47044SOL    HW242972  11.133   3.982   7.558
47045SOL     OW42973   7.527   7.936   1.054
47045SOL    HW142974   7.530   8.030   1.036
47045SOL    HW242975   7.587   7.898   0.990
47046SOL     OW42976   2.194  14.803   6.361
47046SOL    HW142977   2.201  14.858   6.439
47046SOL    HW242978   2.283  14.802   6.325
47047SOL     OW42979   7.989   8.774   0.547
47047SOL    HW142980   8.012   8.746   0.635
47047SOL    HW242981   7.902   8.736   0.531
47048SOL     OW42982   4.350  11.272   5.121
47048SOL    HW142983   4.294  11.347   5.102
47048SOL    HW242984   4.426  11.285   5.065
47049SOL     OW42985   4.416   6.227  10.417
47049SOL    HW142986   4.447   6.154  10.470
47049SOL    HW242987   4.351   6.271  10.474
47050SOL     OW42988   0.508   7.324  13.411
47050SOL    HW142989   0.596   7.334  13.447
47050SOL    HW242990   0.487   7.232  13.425
47051SOL     OW42991   4.538   8.180   1.418
47051SOL    HW142992   4.493   8.201   1.499
47051SOL    HW242993   4.535   8.084   1.413
47052SOL     OW42994   7.463   8.084  13.852
47052SOL    HW142995   7.484   8.161  13.905
47052SOL    HW242996   7.545   8.035  13.846
47053SOL     OW42997   9.972   2.134  12.242
47053SOL    HW142998   9.986   2.041  12.258
47053SOL    HW242999  10.051   2.177  12.276
47054SOL     OW43000   7.270   5.168  10.508
47054SOL    HW143001   7.195   5.110  10.505
47054SOL    HW243002   7.297   5.177  10.416
47055SOL     OW43003   2.237   9.159   8.795
47055SOL    HW143004   2.236   9.093   8.864
47055SOL    HW243005   2.146   9.163   8.765
47056SOL     OW43006   4.195   3.827   3.233
47056SOL    HW143007   4.113   3.830   3.283
47056SOL    HW243008   4.192   3.906   3.178
47057SOL     OW43009   9.987   7.601   9.558
47057SOL    HW143010   9.942   7.663   9.500
47057SOL    HW243011   9.983   7.641   9.645
47058SOL     OW43012   1.580   0.804   5.398
47058SOL    HW143013   1.668   0.815   5.435
47058SOL    HW243014   1.595   0.770   5.310
47059SOL     OW43015   0.326   7.467  11.238
47059SOL    HW143016   0.338   7.444  11.146
47059SOL    HW243017   0.356   7.390  11.286
47060SOL     OW43018   6.702   7.453  14.159
47060SOL    HW143019   6.714   7.369  14.115
47060SOL    HW243020   6.762   7.450  14.234
47061SOL     OW43021   0.992   0.887   8.046
47061SOL    HW143022   0.928   0.879   8.117
47061SOL    HW243023   1.062   0.826   8.070
47062SOL     OW43024   6.952  12.098   5.305
47062SOL    HW143025   6.991  12.162   5.364
47062SOL    HW243026   6.950  12.141   5.220
47063SOL     OW43027   6.115   4.292   1.569
47063SOL    HW143028   6.056   4.319   1.499
47063SOL    HW243029   6.194   4.261   1.523
47064SOL     OW43030  12.628  11.373   9.952
47064SOL    HW143031  12.564  11.316   9.995
47064SOL    HW243032  12.702  11.376  10.013
47065SOL     OW43033   1.805   7.092  13.019
47065SOL    HW143034   1.720   7.055  13.045
47065SOL    HW243035   1.784   7.181  12.991
47066SOL     OW43036   3.449   9.224   1.049
47066SOL    HW143037   3.406   9.261   1.126
47066SOL    HW243038   3.385   9.161   1.015
47067SOL     OW43039   8.301   1.138   9.477
47067SOL    HW143040   8.243   1.202   9.436
47067SOL    HW243041   8.245   1.064   9.497
47068SOL     OW43042   9.666  10.872  14.764
47068SOL    HW143043   9.701  10.894  14.678
47068SOL    HW243044   9.677  10.951  14.816
47069SOL     OW43045   8.058   8.962   4.236
47069SOL    HW143046   8.064   8.866   4.233
47069SOL    HW243047   8.032   8.981   4.326
47070SOL     OW43048   8.727   3.575   0.738
47070SOL    HW143049   8.787   3.547   0.806
47070SOL    HW243050   8.662   3.629   0.784
47071SOL     OW43051  13.375   7.278   0.529
47071SOL    HW143052  13.348   7.343   0.593
47071SOL    HW243053  13.391   7.199   0.582
47072SOL     OW43054   5.355  11.112  11.289
47072SOL    HW143055   5.418  11.159  11.344
47072SOL    HW243056   5.314  11.180  11.236
47073SOL     OW43057   8.201  13.451  12.715
47073SOL    HW143058   8.228  13.525  12.660
47073SOL    HW243059   8.179  13.491  12.800
47074SOL     OW43060   1.563   4.086   9.777
47074SOL    HW143061   1.603   4.024   9.716
47074SOL    HW243062   1.637   4.133   9.816
47075SOL     OW43063  14.265   2.095   3.596
47075SOL    HW143064  14.295   2.065   3.681
47075SOL    HW243065  14.198   2.031   3.570
47076SOL     OW43066   7.429   4.630   4.250
47076SOL    HW143067   7.431   4.609   4.157
47076SOL    HW243068   7.418   4.725   4.253
47077SOL     OW43069   7.734   9.138   2.294
47077SOL    HW143070   7.678   9.209   2.262
47077SOL    HW243071   7.792   9.118   2.221
47078SOL     OW43072  14.550  10.687  13.434
47078SOL    HW143073  14.632  10.638  13.440
47078SOL    HW243074  14.500  10.659  13.510
47079SOL     OW43075   0.475   1.989   0.657
47079SOL    HW143076   0.384   2.019   0.652
47079SOL    HW243077   0.496   1.961   0.568
47080SOL     OW43078   7.721  11.320   3.046
47080SOL    HW143079   7.648  11.260   3.033
47080SOL    HW243080   7.798  11.270   3.017
47081SOL     OW43081   7.315   1.991  12.477
47081SOL    HW143082   7.394   2.038  12.448
47081SOL    HW243083   7.265   1.978  12.397
47082SOL     OW43084   6.792   0.517   7.669
47082SOL    HW143085   6.765   0.481   7.584
47082SOL    HW243086   6.730   0.478   7.731
47083SOL     OW43087   7.098   0.995  13.777
47083SOL    HW143088   7.169   0.960  13.831
47083SOL    HW243089   7.141   1.046  13.709
47084SOL     OW43090   2.857  12.391   3.581
47084SOL    HW143091   2.944  12.385   3.543
47084SOL    HW243092   2.810  12.314   3.546
47085SOL     OW43093  13.274  13.483  11.308
47085SOL    HW143094  13.290  13.571  11.340
47085SOL    HW243095  13.338  13.428  11.353
47086SOL     OW43096  11.081  13.975   3.436
47086SOL    HW143097  11.131  14.024   3.371
47086SOL    HW243098  11.134  13.898   3.454
47087SOL     OW43099   2.688   8.818   9.231
47087SOL    HW143100   2.720   8.850   9.315
47087SOL    HW243101   2.693   8.894   9.173
47088SOL     OW43102   5.996   9.160   9.966
47088SOL    HW143103   5.907   9.179   9.994
47088SOL    HW243104   6.030   9.243   9.934
47089SOL     OW43105   4.728   9.809   0.482
47089SOL    HW143106   4.702   9.880   0.422
47089SOL    HW243107   4.824   9.809   0.477
47090SOL     OW43108   8.387   7.916   4.203
47090SOL    HW143109   8.417   7.846   4.145
47090SOL    HW243110   8.449   7.914   4.276
47091SOL     OW43111  10.706  11.394   6.277
47091SOL    HW143112  10.647  11.380   6.351
47091SOL    HW243113  10.654  11.373   6.200
47092SOL     OW43114   7.949  14.878   4.948
47092SOL    HW143115   7.881   0.064   4.928
47092SOL    HW243116   8.027   0.051   4.967
47093SOL     OW43117   4.226   8.932   2.366
47093SOL    HW143118   4.290   8.997   2.340
47093SOL    HW243119   4.215   8.876   2.289
47094SOL     OW43120   6.667   5.874   7.930
47094SOL    HW143121   6.711   5.956   7.909
47094SOL    HW243122   6.731   5.806   7.908
47095SOL     OW43123   0.519  11.317   7.426
47095SOL    HW143124   0.490  11.275   7.507
47095SOL    HW243125   0.442  11.365   7.395
47096SOL     OW43126   6.696   8.798   7.843
47096SOL    HW143127   6.776   8.775   7.796
47096SOL    HW243128   6.698   8.743   7.922
47097SOL     OW43129   6.222   1.655   5.502
47097SOL    HW143130   6.166   1.591   5.545
47097SOL    HW243131   6.219   1.732   5.558
47098SOL     OW43132  10.231   7.561   9.194
47098SOL    HW143133  10.237   7.652   9.166
47098SOL    HW243134  10.273   7.511   9.124
47099SOL     OW43135   5.823  11.544   3.626
47099SOL    HW143136   5.843  11.559   3.718
47099SOL    HW243137   5.857  11.456   3.608
47100SOL     OW43138  13.869   6.465  10.637
47100SOL    HW143139  13.859   6.370  10.626
47100SOL    HW243140  13.780   6.499  10.631
47101SOL     OW43141   8.424   8.464   7.895
47101SOL    HW143142   8.436   8.476   7.989
47101SOL    HW243143   8.409   8.370   7.885
47102SOL     OW43144   1.408   6.465   4.242
47102SOL    HW143145   1.380   6.532   4.180
47102SOL    HW243146   1.488   6.429   4.204
47103SOL     OW43147   0.184   2.595   3.209
47103SOL    HW143148   0.166   2.576   3.301
47103SOL    HW243149   0.105   2.638   3.176
47104SOL     OW43150  11.941   5.211   1.045
47104SOL    HW143151  12.011   5.210   1.110
47104SOL    HW243152  11.929   5.118   1.021
47105SOL     OW43153   9.026   2.112   8.397
47105SOL    HW143154   8.944   2.122   8.348
47105SOL    HW243155   9.032   2.191   8.451
47106SOL     OW43156   0.185   7.058   5.369
47106SOL    HW143157   0.264   7.031   5.321
47106SOL    HW243158   0.154   7.136   5.322
47107SOL     OW43159  14.723   9.409   3.682
47107SOL    HW143160  14.797   9.462   3.652
47107SOL    HW243161  14.750   9.377   3.768
47108SOL     OW43162   1.447   1.742   9.085
47108SOL    HW143163   1.412   1.653   9.084
47108SOL    HW243164   1.529   1.735   9.133
47109SOL     OW43165   3.778   2.543  13.105
47109SOL    HW143166   3.840   2.470  13.107
47109SOL    HW243167   3.782   2.580  13.193
47110SOL     OW43168   7.239   7.713  12.375
47110SOL    HW143169   7.321   7.710  12.325
47110SOL    HW243170   7.191   7.787  12.337
47111SOL     OW43171   2.536   8.559   7.878
47111SOL    HW143172   2.502   8.647   7.891
47111SOL    HW243173   2.460   8.508   7.848
47112SOL     OW43174   3.809  12.512   1.886
47112SOL    HW143175   3.838  12.536   1.974
47112SOL    HW243176   3.750  12.438   1.899
47113SOL     OW43177   8.835  11.357  12.653
47113SOL    HW143178   8.923  11.387  12.629
47113SOL    HW243179   8.846  11.316  12.739
47114SOL     OW43180   7.829   2.688  14.313
47114SOL    HW143181   7.873   2.647  14.387
47114SOL    HW243182   7.746   2.718  14.348
47115SOL     OW43183  11.218   7.258   0.775
47115SOL    HW143184  11.152   7.198   0.810
47115SOL    HW243185  11.297   7.239   0.827
47116SOL     OW43186   4.328  14.427   9.600
47116SOL    HW143187   4.356  14.416   9.509
47116SOL    HW243188   4.370  14.355   9.646
47117SOL     OW43189  14.827  11.511   0.239
47117SOL    HW143190   0.035  11.533   0.207
47117SOL    HW243191  14.771  11.519   0.163
47118SOL     OW43192  14.697   4.409   2.351
47118SOL    HW143193  14.658   4.490   2.318
47118SOL    HW243194  14.696   4.350   2.276
47119SOL     OW43195   3.354   8.970  11.732
47119SOL    HW143196   3.350   8.934  11.644
47119SOL    HW243197   3.269   8.948  11.770
47120SOL     OW43198   2.333  13.551   4.581
47120SOL    HW143199   2.324  13.470   4.631
47120SOL    HW243200   2.337  13.522   4.490
47121SOL     OW43201   6.272  12.297   9.225
47121SOL    HW143202   6.239  12.363   9.286
47121SOL    HW243203   6.311  12.230   9.281
47122SOL     OW43204   9.762  12.594   2.555
47122SOL    HW143205   9.780  12.503   2.534
47122SOL    HW243206   9.809  12.610   2.637
47123SOL     OW43207  11.714   6.273  13.109
47123SOL    HW143208  11.740   6.308  13.023
47123SOL    HW243209  11.680   6.348  13.157
47124SOL     OW43210   7.796   4.855  10.842
47124SOL    HW143211   7.759   4.784  10.895
47124SOL    HW243212   7.720   4.901  10.807
47125SOL     OW43213  14.579   9.157   8.226
47125SOL    HW143214  14.655   9.099   8.230
47125SOL    HW243215  14.571   9.180   8.133
47126SOL     OW43216   8.366  13.786  10.272
47126SOL    HW143217   8.282  13.742  10.288
47126SOL    HW243218   8.383  13.771  10.179
47127SOL     OW43219   0.152   9.622   6.393
47127SOL    HW143220   0.211   9.547   6.387
47127SOL    HW243221   0.137   9.633   6.487
47128SOL     OW43222  14.184   3.854  11.322
47128SOL    HW143223  14.271   3.815  11.327
47128SOL    HW243224  14.172   3.872  11.228
47129SOL     OW43225  12.391   9.996   2.285
47129SOL    HW143226  12.305   9.989   2.328
47129SOL    HW243227  12.381  10.069   2.224
47130SOL     OW43228  12.957   5.724   6.273
47130SOL    HW143229  12.968   5.801   6.216
47130SOL    HW243230  13.020   5.660   6.240
47131SOL     OW43231  12.215   3.623   8.193
47131SOL    HW143232  12.173   3.566   8.129
47131SOL    HW243233  12.245   3.699   8.142
47132SOL     OW43234   4.392   3.149  13.906
47132SOL    HW143235   4.392   3.153  13.811
47132SOL    HW243236   4.317   3.202  13.933
47133SOL     OW43237   6.097  14.613   1.151
47133SOL    HW143238   6.022  14.630   1.209
47133SOL    HW243239   6.134  14.700   1.135
47134SOL     OW43240  10.981   3.815  14.172
47134SOL    HW143241  11.021   3.874  14.236
47134SOL    HW243242  11.041   3.815  14.098
47135SOL     OW43243   6.011   9.362   4.932
47135SOL    HW143244   6.095   9.393   4.965
47135SOL    HW243245   5.956   9.350   5.010
47136SOL     OW43246  13.774   0.980   7.497
47136SOL    HW143247  13.805   0.930   7.421
47136SOL    HW243248  13.682   0.996   7.478
47137SOL     OW43249   3.752   7.091  13.592
47137SOL    HW143250   3.658   7.087  13.613
47137SOL    HW243251   3.766   7.181  13.562
47138SOL     OW43252  12.008   0.976   6.144
47138SOL    HW143253  12.037   0.896   6.188
47138SOL    HW243254  12.013   0.954   6.051
47139SOL     OW43255  10.467   3.451  12.832
47139SOL    HW143256  10.378   3.423  12.813
47139SOL    HW243257  10.457   3.526  12.890
47140SOL     OW43258  11.983   4.059   8.075
47140SOL    HW143259  12.055   4.071   8.137
47140SOL    HW243260  11.925   3.995   8.117
47141SOL     OW43261   7.381   3.510  13.032
47141SOL    HW143262   7.303   3.454  13.042
47141SOL    HW243263   7.440   3.459  12.976
47142SOL     OW43264   4.972  13.003   7.596
47142SOL    HW143265   5.030  12.940   7.639
47142SOL    HW243266   5.007  13.089   7.621
47143SOL     OW43267  14.476  12.540  10.488
47143SOL    HW143268  14.427  12.548  10.571
47143SOL    HW243269  14.481  12.630  10.455
47144SOL     OW43270  10.383   1.854   6.687
47144SOL    HW143271  10.461   1.880   6.637
47144SOL    HW243272  10.387   1.759   6.689
47145SOL     OW43273  11.329  13.501  14.402
47145SOL    HW143274  11.246  13.547  14.413
47145SOL    HW243275  11.308  13.428  14.344
47146SOL     OW43276  14.770   0.258   4.282
47146SOL    HW143277  14.831   0.202   4.233
47146SOL    HW243278  14.790   0.239   4.374
47147SOL     OW43279   8.194  10.962  13.595
47147SOL    HW143280   8.255  10.956  13.521
47147SOL    HW243281   8.207  10.880  13.643
47148SOL     OW43282   9.567   0.490   3.672
47148SOL    HW143283   9.607   0.452   3.750
47148SOL    HW243284   9.476   0.459   3.674
47149SOL     OW43285   3.247   3.325   2.175
47149SOL    HW143286   3.266   3.259   2.108
47149SOL    HW243287   3.325   3.381   2.177
47150SOL     OW43288   4.936   5.537   1.589
47150SOL    HW143289   4.978   5.475   1.649
47150SOL    HW243290   4.931   5.491   1.506
47151SOL     OW43291  11.002   1.345   7.960
47151SOL    HW143292  10.988   1.285   8.033
47151SOL    HW243293  11.018   1.430   8.001
47152SOL     OW43294   7.594   0.440   2.192
47152SOL    HW143295   7.535   0.439   2.268
47152SOL    HW243296   7.599   0.348   2.164
47153SOL     OW43297   0.582   5.480  13.106
47153SOL    HW143298   0.497   5.519  13.083
47153SOL    HW243299   0.562   5.388  13.122
47154SOL     OW43300   2.919  10.593   1.414
47154SOL    HW143301   2.893  10.640   1.493
47154SOL    HW243302   2.970  10.519   1.446
47155SOL     OW43303   9.936   3.049   4.043
47155SOL    HW143304  10.014   2.993   4.048
47155SOL    HW243305   9.920   3.075   4.134
47156SOL     OW43306   0.817   0.228   1.451
47156SOL    HW143307   0.795   0.321   1.458
47156SOL    HW243308   0.736   0.181   1.469
47157SOL     OW43309   0.197   3.141   5.055
47157SOL    HW143310   0.153   3.105   5.132
47157SOL    HW243311   0.266   3.077   5.035
47158SOL     OW43312   8.036   7.699   0.427
47158SOL    HW143313   8.094   7.772   0.407
47158SOL    HW243314   7.950   7.739   0.438
47159SOL     OW43315   0.166   7.423   4.739
47159SOL    HW143316   0.168   7.475   4.658
47159SOL    HW243317   0.082   7.378   4.737
47160SOL     OW43318  10.970   5.263  14.081
47160SOL    HW143319  10.957   5.210  14.002
47160SOL    HW243320  11.001   5.201  14.147
47161SOL     OW43321   1.358  13.681   4.610
47161SOL    HW143322   1.405  13.717   4.534
47161SOL    HW243323   1.409  13.711   4.685
47162SOL     OW43324   2.185   9.329   6.082
47162SOL    HW143325   2.129   9.405   6.095
47162SOL    HW243326   2.158   9.268   6.151
47163SOL     OW43327   4.480   2.709   9.290
47163SOL    HW143328   4.504   2.725   9.381
47163SOL    HW243329   4.562   2.685   9.248
47164SOL     OW43330   4.292   2.583  10.497
47164SOL    HW143331   4.343   2.581  10.577
47164SOL    HW243332   4.313   2.667  10.456
47165SOL     OW43333  11.337   6.115   3.834
47165SOL    HW143334  11.386   6.053   3.779
47165SOL    HW243335  11.288   6.168   3.772
47166SOL     OW43336   0.089  11.258   6.570
47166SOL    HW143337   0.042  11.338   6.594
47166SOL    HW243338   0.054  11.190   6.628
47167SOL     OW43339  12.835  13.424  13.825
47167SOL    HW143340  12.870  13.385  13.746
47167SOL    HW243341  12.826  13.517  13.804
47168SOL     OW43342   5.791   4.904   5.414
47168SOL    HW143343   5.792   4.865   5.502
47168SOL    HW243344   5.756   4.836   5.358
47169SOL     OW43345   5.364   7.326   4.595
47169SOL    HW143346   5.287   7.360   4.551
47169SOL    HW243347   5.396   7.257   4.537
47170SOL     OW43348   6.909  11.743   9.982
47170SOL    HW143349   6.936  11.701   9.900
47170SOL    HW243350   6.949  11.688  10.050
47171SOL     OW43351   9.644   4.568   2.906
47171SOL    HW143352   9.717   4.558   2.967
47171SOL    HW243353   9.597   4.645   2.938
47172SOL     OW43354   0.185   4.123   6.587
47172SOL    HW143355   0.159   4.052   6.529
47172SOL    HW243356   0.177   4.087   6.675
47173SOL     OW43357   6.199   0.194   1.424
47173SOL    HW143358   6.277   0.161   1.379
47173SOL    HW243359   6.233   0.242   1.499
47174SOL     OW43360  10.262   6.274  10.240
47174SOL    HW143361  10.315   6.198  10.264
47174SOL    HW243362  10.220   6.249  10.158
47175SOL     OW43363   7.436  13.118   9.841
47175SOL    HW143364   7.527  13.147   9.841
47175SOL    HW243365   7.388  13.187   9.796
47176SOL     OW43366   8.977   6.732   0.457
47176SOL    HW143367   9.037   6.804   0.437
47176SOL    HW243368   9.033   6.661   0.487
47177SOL     OW43369   5.863   6.136   7.798
47177SOL    HW143370   5.870   6.114   7.891
47177SOL    HW243371   5.930   6.203   7.785
47178SOL     OW43372   2.960   3.453   0.203
47178SOL    HW143373   2.867   3.434   0.192
47178SOL    HW243374   2.968   3.485   0.293
47179SOL     OW43375  11.146   5.569  13.203
47179SOL    HW143376  11.138   5.489  13.151
47179SOL    HW243377  11.172   5.636  13.140
47180SOL     OW43378   7.681   5.399   1.418
47180SOL    HW143379   7.587   5.401   1.397
47180SOL    HW243380   7.687   5.440   1.504
47181SOL     OW43381   3.272   1.064  14.148
47181SOL    HW143382   3.355   1.038  14.190
47181SOL    HW243383   3.299   1.127  14.081
47182SOL     OW43384   1.394   7.958   9.419
47182SOL    HW143385   1.398   7.959   9.515
47182SOL    HW243386   1.322   8.018   9.398
47183SOL     OW43387   4.244  11.644   6.656
47183SOL    HW143388   4.276  11.558   6.683
47183SOL    HW243389   4.320  11.702   6.665
47184SOL     OW43390   6.894   5.610   5.663
47184SOL    HW143391   6.945   5.542   5.619
47184SOL    HW243392   6.955   5.648   5.726
47185SOL     OW43393   5.420   3.949   7.051
47185SOL    HW143394   5.365   4.018   7.087
47185SOL    HW243395   5.394   3.943   6.959
47186SOL     OW43396   3.332  10.933   1.914
47186SOL    HW143397   3.378  10.991   1.974
47186SOL    HW243398   3.401  10.893   1.861
47187SOL     OW43399   2.204  12.219   1.906
47187SOL    HW143400   2.121  12.189   1.869
47187SOL    HW243401   2.180  12.277   1.978
47188SOL     OW43402  12.151  11.069  14.086
47188SOL    HW143403  12.180  11.153  14.123
47188SOL    HW243404  12.058  11.064  14.108
47189SOL     OW43405   3.907   4.050   8.294
47189SOL    HW143406   3.934   4.118   8.232
47189SOL    HW243407   3.838   4.003   8.248
47190SOL     OW43408   8.750   8.165   8.450
47190SOL    HW143409   8.766   8.086   8.502
47190SOL    HW243410   8.749   8.134   8.360
47191SOL     OW43411  10.573   4.218   5.482
47191SOL    HW143412  10.597   4.213   5.390
47191SOL    HW243413  10.512   4.291   5.487
47192SOL     OW43414  11.005   6.969   9.477
47192SOL    HW143415  10.984   7.035   9.411
47192SOL    HW243416  11.098   6.981   9.495
47193SOL     OW43417   3.416  10.748   9.625
47193SOL    HW143418   3.484  10.748   9.558
47193SOL    HW243419   3.412  10.839   9.654
47194SOL     OW43420  12.935   5.328   8.744
47194SOL    HW143421  13.010   5.272   8.724
47194SOL    HW243422  12.971   5.416   8.749
47195SOL     OW43423  12.227   0.102   3.290
47195SOL    HW143424  12.192   0.014   3.302
47195SOL    HW243425  12.237   0.110   3.195
47196SOL     OW43426  10.223   5.687  12.620
47196SOL    HW143427  10.257   5.742  12.549
47196SOL    HW243428  10.148   5.736  12.654
47197SOL     OW43429   0.692   8.616  12.990
47197SOL    HW143430   0.701   8.699  12.943
47197SOL    HW243431   0.656   8.556  12.925
47198SOL     OW43432   8.568   2.251   0.533
47198SOL    HW143433   8.609   2.207   0.607
47198SOL    HW243434   8.507   2.313   0.573
47199SOL     OW43435   7.340  11.431  12.605
47199SOL    HW143436   7.382  11.516  12.621
47199SOL    HW243437   7.318  11.432  12.512
47200SOL     OW43438  11.934   3.039   7.742
47200SOL    HW143439  12.001   2.986   7.699
47200SOL    HW243440  11.881   3.074   7.671
47201SOL     OW43441  10.156   6.886   4.175
47201SOL    HW143442  10.098   6.927   4.239
47201SOL    HW243443  10.115   6.802   4.155
47202SOL     OW43444   5.989   5.004   9.939
47202SOL    HW143445   5.983   5.077   9.876
47202SOL    HW243446   5.927   4.939   9.906
47203SOL     OW43447  14.728   8.758   1.642
47203SOL    HW143448  14.716   8.748   1.737
47203SOL    HW243449  14.731   8.852   1.628
47204SOL     OW43450   5.753   9.988  13.555
47204SOL    HW143451   5.801   9.965  13.634
47204SOL    HW243452   5.680  10.041  13.585
47205SOL     OW43453   3.443  13.857   1.067
47205SOL    HW143454   3.525  13.854   1.017
47205SOL    HW243455   3.401  13.939   1.039
47206SOL     OW43456   6.743   3.068   9.484
47206SOL    HW143457   6.755   3.157   9.517
47206SOL    HW243458   6.661   3.038   9.522
47207SOL     OW43459   6.258   4.136   3.553
47207SOL    HW143460   6.221   4.051   3.528
47207SOL    HW243461   6.223   4.152   3.640
47208SOL     OW43462   5.090   2.148   8.738
47208SOL    HW143463   5.166   2.161   8.795
47208SOL    HW243464   5.112   2.195   8.657
47209SOL     OW43465  13.975   2.897   8.256
47209SOL    HW143466  14.058   2.860   8.286
47209SOL    HW243467  13.949   2.841   8.184
47210SOL     OW43468   9.405   5.323  14.450
47210SOL    HW143469   9.475   5.387  14.441
47210SOL    HW243470   9.385   5.323  14.544
47211SOL     OW43471  13.243   5.694   6.649
47211SOL    HW143472  13.270   5.783   6.625
47211SOL    HW243473  13.288   5.677   6.731
47212SOL     OW43474  12.951   3.880   7.582
47212SOL    HW143475  13.025   3.940   7.576
47212SOL    HW243476  12.954   3.830   7.500
47213SOL     OW43477   5.942  14.237  12.107
47213SOL    HW143478   6.010  14.231  12.173
47213SOL    HW243479   5.987  14.267  12.028
47214SOL     OW43480  10.521   8.463   1.988
47214SOL    HW143481  10.505   8.369   2.000
47214SOL    HW243482  10.445   8.506   2.027
47215SOL     OW43483  12.065  10.880   3.669
47215SOL    HW143484  12.051  10.935   3.746
47215SOL    HW243485  11.984  10.830   3.660
47216SOL     OW43486  13.403   6.284   8.850
47216SOL    HW143487  13.418   6.231   8.772
47216SOL    HW243488  13.486   6.330   8.865
47217SOL     OW43489   4.644  10.005   8.463
47217SOL    HW143490   4.556   9.977   8.437
47217SOL    HW243491   4.657  10.087   8.415
47218SOL     OW43492   5.271  10.791  12.337
47218SOL    HW143493   5.244  10.782  12.429
47218SOL    HW243494   5.366  10.803  12.342
47219SOL     OW43495   7.951   9.345   7.287
47219SOL    HW143496   7.926   9.406   7.218
47219SOL    HW243497   7.943   9.258   7.248
47220SOL     OW43498   3.205  10.793   1.600
47220SOL    HW143499   3.126  10.750   1.632
47220SOL    HW243500   3.183  10.886   1.600
47221SOL     OW43501   9.388   6.139  14.560
47221SOL    HW143502   9.370   6.093  14.477
47221SOL    HW243503   9.421   6.224  14.533
47222SOL     OW43504  10.188   5.696   6.346
47222SOL    HW143505  10.097   5.675   6.325
47222SOL    HW243506  10.233   5.697   6.262
47223SOL     OW43507   5.197   2.262  14.688
47223SOL    HW143508   5.183   2.326  14.758
47223SOL    HW243509   5.179   2.311  14.608
47224SOL     OW43510   7.365   2.366   4.050
47224SOL    HW143511   7.299   2.352   4.117
47224SOL    HW243512   7.442   2.318   4.081
47225SOL     OW43513   2.286  14.029  11.290
47225SOL    HW143514   2.314  14.003  11.203
47225SOL    HW243515   2.351  14.094  11.318
47226SOL     OW43516  10.425  13.990   0.831
47226SOL    HW143517  10.336  13.982   0.797
47226SOL    HW243518  10.481  13.993   0.753
47227SOL     OW43519   3.448  11.291  11.920
47227SOL    HW143520   3.408  11.254  11.841
47227SOL    HW243521   3.447  11.219  11.982
47228SOL     OW43522  13.872   0.870  10.804
47228SOL    HW143523  13.902   0.882  10.895
47228SOL    HW243524  13.783   0.903  10.804
47229SOL     OW43525   0.089   3.526   4.241
47229SOL    HW143526   0.169   3.515   4.190
47229SOL    HW243527   0.119   3.549   4.329
47230SOL     OW43528   9.327   4.862   3.952
47230SOL    HW143529   9.404   4.855   3.895
47230SOL    HW243530   9.300   4.953   3.944
47231SOL     OW43531   2.458   3.434   3.030
47231SOL    HW143532   2.453   3.339   3.027
47231SOL    HW243533   2.516   3.453   3.104
47232SOL     OW43534   3.677   6.005   9.244
47232SOL    HW143535   3.654   5.999   9.336
47232SOL    HW243536   3.688   5.914   9.216
47233SOL     OW43537   7.687   7.723  10.394
47233SOL    HW143538   7.591   7.724  10.390
47233SOL    HW243539   7.712   7.641  10.350
47234SOL     OW43540   7.127   0.438   0.167
47234SOL    HW143541   7.040   0.470   0.144
47234SOL    HW243542   7.143   0.471   0.255
47235SOL     OW43543   0.496   6.984   3.730
47235SOL    HW143544   0.499   6.921   3.803
47235SOL    HW243545   0.571   7.041   3.745
47236SOL     OW43546  11.111  14.496   1.172
47236SOL    HW143547  11.032  14.468   1.217
47236SOL    HW243548  11.176  14.507   1.242
47237SOL     OW43549  13.068   2.587  10.740
47237SOL    HW143550  13.137   2.633  10.788
47237SOL    HW243551  13.025   2.533  10.807
47238SOL     OW43552  11.296   1.685  12.774
47238SOL    HW143553  11.229   1.691  12.706
47238SOL    HW243554  11.377   1.665  12.727
47239SOL     OW43555  12.015   8.997  10.723
47239SOL    HW143556  12.106   8.970  10.706
47239SOL    HW243557  12.009   9.084  10.685
47240SOL     OW43558   1.864   6.627   2.223
47240SOL    HW143559   1.834   6.537   2.211
47240SOL    HW243560   1.855   6.643   2.317
47241SOL     OW43561   6.051   0.451   4.147
47241SOL    HW143562   5.986   0.407   4.092
47241SOL    HW243563   6.064   0.392   4.221
47242SOL     OW43564   7.094  10.654  10.069
47242SOL    HW143565   7.101  10.748  10.048
47242SOL    HW243566   7.167  10.613  10.022
47243SOL     OW43567   7.620   6.921   3.797
47243SOL    HW143568   7.663   6.944   3.879
47243SOL    HW243569   7.601   7.005   3.755
47244SOL     OW43570   8.467   6.955   8.210
47244SOL    HW143571   8.492   6.933   8.300
47244SOL    HW243572   8.378   6.989   8.218
47245SOL     OW43573  10.163   0.375   5.059
47245SOL    HW143574  10.187   0.311   5.126
47245SOL    HW243575  10.234   0.371   4.995
47246SOL     OW43576  13.772   6.810  13.188
47246SOL    HW143577  13.724   6.749  13.243
47246SOL    HW243578  13.821   6.865  13.250
47247SOL     OW43579  10.224  10.129   6.489
47247SOL    HW143580  10.315  10.153   6.471
47247SOL    HW243581  10.187  10.207   6.531
47248SOL     OW43582   0.803   2.512   3.572
47248SOL    HW143583   0.862   2.471   3.509
47248SOL    HW243584   0.789   2.600   3.538
47249SOL     OW43585   7.831   1.266   0.168
47249SOL    HW143586   7.862   1.205   0.234
47249SOL    HW243587   7.813   1.211   0.091
47250SOL     OW43588   6.427   8.666   5.173
47250SOL    HW143589   6.372   8.590   5.193
47250SOL    HW243590   6.440   8.709   5.258
47251SOL     OW43591  14.290   9.120   5.888
47251SOL    HW143592  14.345   9.179   5.940
47251SOL    HW243593  14.239   9.072   5.952
47252SOL     OW43594   9.542  13.651  11.953
47252SOL    HW143595   9.546  13.698  11.870
47252SOL    HW243596   9.603  13.699  12.010
47253SOL     OW43597  12.774  13.418   0.854
47253SOL    HW143598  12.844  13.381   0.799
47253SOL    HW243599  12.732  13.342   0.893
47254SOL     OW43600  10.269   1.967  10.432
47254SOL    HW143601  10.230   2.034  10.488
47254SOL    HW243602  10.203   1.951  10.364
47255SOL     OW43603   8.361  14.061  13.693
47255SOL    HW143604   8.345  14.077  13.600
47255SOL    HW243605   8.448  14.097  13.710
47256SOL     OW43606  14.368  10.214  10.396
47256SOL    HW143607  14.434  10.267  10.440
47256SOL    HW243608  14.350  10.261  10.314
47257SOL     OW43609   0.726  10.804   7.991
47257SOL    HW143610   0.710  10.710   7.991
47257SOL    HW243611   0.813  10.814   8.031
47258SOL     OW43612   5.263   1.392   4.870
47258SOL    HW143613   5.269   1.486   4.851
47258SOL    HW243614   5.259   1.388   4.966
47259SOL     OW43615   9.289  12.407   0.531
47259SOL    HW143616   9.338  12.490   0.533
47259SOL    HW243617   9.343  12.348   0.479
47260SOL     OW43618   1.229   7.141  10.219
47260SOL    HW143619   1.276   7.108  10.295
47260SOL    HW243620   1.214   7.234  10.238
47261SOL     OW43621   6.680   4.717   1.682
47261SOL    HW143622   6.596   4.762   1.690
47261SOL    HW243623   6.745   4.784   1.702
47262SOL     OW43624   7.385  13.601   7.072
47262SOL    HW143625   7.376  13.623   7.165
47262SOL    HW243626   7.318  13.535   7.056
47263SOL     OW43627  13.817  14.456   5.282
47263SOL    HW143628  13.800  14.390   5.215
47263SOL    HW243629  13.873  14.520   5.238
47264SOL     OW43630   4.541   2.520   9.938
47264SOL    HW143631   4.509   2.588   9.879
47264SOL    HW243632   4.611   2.562   9.987
47265SOL     OW43633   6.155  11.827   5.315
47265SOL    HW143634   6.128  11.736   5.327
47265SOL    HW243635   6.114  11.854   5.233
47266SOL     OW43636   1.874   3.816   9.086
47266SOL    HW143637   1.893   3.723   9.094
47266SOL    HW243638   1.851   3.828   8.994
47267SOL     OW43639   5.787  13.806   2.172
47267SOL    HW143640   5.741  13.839   2.249
47267SOL    HW243641   5.879  13.824   2.189
47268SOL     OW43642   7.839  13.968  10.642
47268SOL    HW143643   7.769  13.951  10.579
47268SOL    HW243644   7.902  13.897  10.627
47269SOL     OW43645   7.039   4.651   3.628
47269SOL    HW143646   7.123   4.634   3.587
47269SOL    HW243647   6.982   4.680   3.557
47270SOL     OW43648   0.078  14.211   7.049
47270SOL    HW143649   0.112  14.151   6.982
47270SOL    HW243650   0.051  14.153   7.121
47271SOL     OW43651  11.375  13.621   9.876
47271SOL    HW143652  11.422  13.547   9.838
47271SOL    HW243653  11.289  13.618   9.836
47272SOL     OW43654   2.379   5.636  12.198
47272SOL    HW143655   2.380   5.559  12.141
47272SOL    HW243656   2.306   5.620  12.258
47273SOL     OW43657  10.243  14.315   7.692
47273SOL    HW143658  10.172  14.259   7.723
47273SOL    HW243659  10.238  14.309   7.596
47274SOL     OW43660   0.172  14.739  11.839
47274SOL    HW143661   0.214  14.798  11.776
47274SOL    HW243662   0.162  14.792  11.918
47275SOL     OW43663   1.317  12.677   4.883
47275SOL    HW143664   1.242  12.730   4.854
47275SOL    HW243665   1.346  12.720   4.964
47276SOL     OW43666   1.976   1.253   9.845
47276SOL    HW143667   1.905   1.195   9.820
47276SOL    HW243668   2.022   1.205   9.914
47277SOL     OW43669   3.527   7.885   3.498
47277SOL    HW143670   3.610   7.933   3.502
47277SOL    HW243671   3.506   7.867   3.590
47278SOL     OW43672   8.459   2.412   0.172
47278SOL    HW143673   8.437   2.383   0.261
47278SOL    HW243674   8.537   2.361   0.149
47279SOL     OW43675   5.348   0.005  14.766
47279SOL    HW143676   5.435  14.865  14.730
47279SOL    HW243677   5.349   0.099  14.784
47280SOL     OW43678  11.912   9.867  14.293
47280SOL    HW143679  11.989   9.923  14.287
47280SOL    HW243680  11.838   9.928  14.296
47281SOL     OW43681  12.088  12.001  13.112
47281SOL    HW143682  12.077  11.912  13.081
47281SOL    HW243683  12.025  12.009  13.185
47282SOL     OW43684  14.160  11.111   8.243
47282SOL    HW143685  14.092  11.144   8.302
47282SOL    HW243686  14.134  11.021   8.224
47283SOL     OW43687  10.834  12.396   5.813
47283SOL    HW143688  10.820  12.347   5.894
47283SOL    HW243689  10.886  12.472   5.839
47284SOL     OW43690   8.617   5.602   1.084
47284SOL    HW143691   8.570   5.645   1.155
47284SOL    HW243692   8.575   5.634   1.004
47285SOL     OW43693   1.905   3.746  13.789
47285SOL    HW143694   1.945   3.683  13.849
47285SOL    HW243695   1.979   3.779  13.737
47286SOL     OW43696   5.192   0.325   7.917
47286SOL    HW143697   5.181   0.365   7.831
47286SOL    HW243698   5.237   0.242   7.900
47287SOL     OW43699   1.088   4.755   1.246
47287SOL    HW143700   1.126   4.701   1.176
47287SOL    HW243701   0.994   4.745   1.236
47288SOL     OW43702  11.687   3.811  13.720
47288SOL    HW143703  11.650   3.891  13.758
47288SOL    HW243704  11.748   3.779  13.786
47289SOL     OW43705   6.285   0.881   1.042
47289SOL    HW143706   6.288   0.934   1.122
47289SOL    HW243707   6.207   0.827   1.051
47290SOL     OW43708   5.313  13.536  11.819
47290SOL    HW143709   5.237  13.478  11.810
47290SOL    HW243710   5.385  13.487  11.778
47291SOL     OW43711   2.322  10.591  12.848
47291SOL    HW143712   2.399  10.648  12.847
47291SOL    HW243713   2.303  10.575  12.756
47292SOL     OW43714  10.880   7.355   6.228
47292SOL    HW143715  10.813   7.391   6.286
47292SOL    HW243716  10.908   7.430   6.175
47293SOL     OW43717   8.104   9.891   4.235
47293SOL    HW143718   8.081   9.819   4.293
47293SOL    HW243719   8.120   9.849   4.150
47294SOL     OW43720  11.225   6.902  13.989
47294SOL    HW143721  11.246   6.979  13.937
47294SOL    HW243722  11.230   6.829  13.927
47295SOL     OW43723   0.725   2.741   6.683
47295SOL    HW143724   0.648   2.760   6.736
47295SOL    HW243725   0.711   2.791   6.602
47296SOL     OW43726   7.730   4.737   0.098
47296SOL    HW143727   7.780   4.668   0.143
47296SOL    HW243728   7.728   4.810   0.160
47297SOL     OW43729  10.137   8.449  14.821
47297SOL    HW143730  10.189   8.518  14.863
47297SOL    HW243731  10.109   8.393   0.013
47298SOL     OW43732  12.869   7.260   2.308
47298SOL    HW143733  12.923   7.182   2.292
47298SOL    HW243734  12.888   7.282   2.400
47299SOL     OW43735  10.965  10.225  12.675
47299SOL    HW143736  10.976  10.264  12.588
47299SOL    HW243737  10.871  10.209  12.683
47300SOL     OW43738   4.813  13.928   3.339
47300SOL    HW143739   4.882  13.992   3.355
47300SOL    HW243740   4.732  13.977   3.347
47301SOL     OW43741   3.836   8.588  10.734
47301SOL    HW143742   3.888   8.517  10.773
47301SOL    HW243743   3.879   8.606  10.651
47302SOL     OW43744   0.024   0.856   6.971
47302SOL    HW143745   0.079   0.817   7.040
47302SOL    HW243746   0.043   0.949   6.975
47303SOL     OW43747   9.446   1.558   0.200
47303SOL    HW143748   9.516   1.623   0.202
47303SOL    HW243749   9.468   1.497   0.270
47304SOL     OW43750  12.607  14.278   9.333
47304SOL    HW143751  12.640  14.189   9.346
47304SOL    HW243752  12.631  14.324   9.414
47305SOL     OW43753  12.895  13.135  14.862
47305SOL    HW143754  12.960  13.181  14.809
47305SOL    HW243755  12.895  13.046  14.827
47306SOL     OW43756  13.842   3.881  12.345
47306SOL    HW143757  13.798   3.803  12.311
47306SOL    HW243758  13.935   3.861  12.340
47307SOL     OW43759   3.938   6.104  11.512
47307SOL    HW143760   3.928   6.126  11.419
47307SOL    HW243761   3.935   6.009  11.514
47308SOL     OW43762   9.502   1.260  10.912
47308SOL    HW143763   9.447   1.199  10.862
47308SOL    HW243764   9.444   1.294  10.980
47309SOL     OW43765  14.534  11.018   8.880
47309SOL    HW143766  14.617  10.980   8.908
47309SOL    HW243767  14.470  10.981   8.941
47310SOL     OW43768   5.612   3.885   9.163
47310SOL    HW143769   5.576   3.973   9.173
47310SOL    HW243770   5.647   3.863   9.249
47311SOL     OW43771   7.305   6.410   6.039
47311SOL    HW143772   7.271   6.359   6.112
47311SOL    HW243773   7.364   6.350   5.993
47312SOL     OW43774   4.390   4.901  14.553
47312SOL    HW143775   4.351   4.850  14.624
47312SOL    HW243776   4.431   4.975  14.597
47313SOL     OW43777   3.715   6.060   0.876
47313SOL    HW143778   3.770   5.998   0.922
47313SOL    HW243779   3.631   6.014   0.864
47314SOL     OW43780   2.813   7.646  12.021
47314SOL    HW143781   2.724   7.614  12.014
47314SOL    HW243782   2.857   7.585  12.080
47315SOL     OW43783   2.701   4.128  12.240
47315SOL    HW143784   2.639   4.080  12.296
47315SOL    HW243785   2.753   4.180  12.301
47316SOL     OW43786   4.896   0.385   3.034
47316SOL    HW143787   4.947   0.403   2.955
47316SOL    HW243788   4.805   0.396   3.007
47317SOL     OW43789  13.310  13.506   4.123
47317SOL    HW143790  13.383  13.458   4.083
47317SOL    HW243791  13.302  13.468   4.211
47318SOL     OW43792   0.812   7.914   2.373
47318SOL    HW143793   0.814   7.998   2.418
47318SOL    HW243794   0.720   7.895   2.360
47319SOL     OW43795   3.216  10.862   4.619
47319SOL    HW143796   3.191  10.955   4.622
47319SOL    HW243797   3.174  10.829   4.540
47320SOL     OW43798   3.661   7.204  12.912
47320SOL    HW143799   3.703   7.118  12.916
47320SOL    HW243800   3.571   7.185  12.884
47321SOL     OW43801  11.842   4.949   3.099
47321SOL    HW143802  11.868   5.025   3.151
47321SOL    HW243803  11.755   4.926   3.131
47322SOL     OW43804   7.287   7.881  11.038
47322SOL    HW143805   7.231   7.805  11.018
47322SOL    HW243806   7.373   7.857  11.003
47323SOL     OW43807  14.569  14.781  11.490
47323SOL    HW143808  14.520  14.740  11.561
47323SOL    HW243809  14.647  14.816  11.532
47324SOL     OW43810  12.424   3.785  13.903
47324SOL    HW143811  12.475   3.826  13.833
47324SOL    HW243812  12.386   3.858  13.951
47325SOL     OW43813  14.081   4.896   9.884
47325SOL    HW143814  14.012   4.962   9.889
47325SOL    HW243815  14.039   4.814   9.910
47326SOL     OW43816   8.794   1.830  14.112
47326SOL    HW143817   8.765   1.740  14.126
47326SOL    HW243818   8.847   1.851  14.188
47327SOL     OW43819   0.254  14.074  12.697
47327SOL    HW143820   0.211  14.063  12.782
47327SOL    HW243821   0.347  14.061  12.715
47328SOL     OW43822   0.610   4.613   1.427
47328SOL    HW143823   0.623   4.522   1.452
47328SOL    HW243824   0.563   4.652   1.501
47329SOL     OW43825   6.904   1.440  11.568
47329SOL    HW143826   6.830   1.400  11.521
47329SOL    HW243827   6.896   1.408  11.657
47330SOL     OW43828  14.875   7.507   0.381
47330SOL    HW143829   0.035   7.552   0.307
47330SOL    HW243830  14.872   7.573   0.450
47331SOL     OW43831   8.430   9.313  10.148
47331SOL    HW143832   8.462   9.403  10.152
47331SOL    HW243833   8.465   9.278  10.067
47332SOL     OW43834  10.484   6.853  10.722
47332SOL    HW143835  10.484   6.861  10.627
47332SOL    HW243836  10.473   6.943  10.753
47333SOL     OW43837   0.368  11.735   6.549
47333SOL    HW143838   0.330  11.773   6.628
47333SOL    HW243839   0.305  11.668   6.521
47334SOL     OW43840   9.050   5.468   9.555
47334SOL    HW143841   9.047   5.553   9.600
47334SOL    HW243842   8.960   5.437   9.555
47335SOL     OW43843  12.394  11.898   3.399
47335SOL    HW143844  12.478  11.858   3.421
47335SOL    HW243845  12.348  11.832   3.347
47336SOL     OW43846   7.975   0.046   3.402
47336SOL    HW143847   7.890   0.085   3.381
47336SOL    HW243848   8.002   0.090   3.483
47337SOL     OW43849  13.374  13.803   2.350
47337SOL    HW143850  13.289  13.761   2.360
47337SOL    HW243851  13.428  13.737   2.307
47338SOL     OW43852   1.769  11.295   3.845
47338SOL    HW143853   1.797  11.357   3.777
47338SOL    HW243854   1.806  11.330   3.926
47339SOL     OW43855   2.307   6.071   9.786
47339SOL    HW143856   2.251   6.036   9.855
47339SOL    HW243857   2.361   6.137   9.830
47340SOL     OW43858   6.396   1.339   3.363
47340SOL    HW143859   6.381   1.425   3.324
47340SOL    HW243860   6.320   1.324   3.419
47341SOL     OW43861  13.219   0.858   9.962
47341SOL    HW143862  13.222   0.919   9.888
47341SOL    HW243863  13.249   0.775   9.926
47342SOL     OW43864  14.151   3.300  12.726
47342SOL    HW143865  14.126   3.317  12.635
47342SOL    HW243866  14.146   3.204  12.735
47343SOL     OW43867   3.322  12.386  12.252
47343SOL    HW143868   3.245  12.336  12.225
47343SOL    HW243869   3.396  12.337  12.217
47344SOL     OW43870   6.213   7.028   7.209
47344SOL    HW143871   6.164   6.964   7.262
47344SOL    HW243872   6.264   6.974   7.148
47345SOL     OW43873   8.025   3.599  14.849
47345SOL    HW143874   8.021   3.685   0.010
47345SOL    HW243875   8.014   3.615  14.755
47346SOL     OW43876   4.997  11.189   5.717
47346SOL    HW143877   4.901  11.197   5.723
47346SOL    HW243878   5.022  11.154   5.803
47347SOL     OW43879   6.581   4.530  12.957
47347SOL    HW143880   6.551   4.577  13.034
47347SOL    HW243881   6.528   4.566  12.885
47348SOL     OW43882  13.936  11.408  11.844
47348SOL    HW143883  13.938  11.314  11.831
47348SOL    HW243884  13.868  11.423  11.910
47349SOL     OW43885   2.826   2.718   2.714
47349SOL    HW143886   2.841   2.806   2.681
47349SOL    HW243887   2.731   2.709   2.718
47350SOL     OW43888   4.438  10.021   6.758
47350SOL    HW143889   4.468   9.943   6.710
47350SOL    HW243890   4.363   9.991   6.808
47351SOL     OW43891   8.677   6.107   2.244
47351SOL    HW143892   8.730   6.142   2.172
47351SOL    HW243893   8.740   6.088   2.313
47352SOL     OW43894   3.329   1.074   7.143
47352SOL    HW143895   3.325   1.158   7.096
47352SOL    HW243896   3.254   1.077   7.202
47353SOL     OW43897   0.278   7.910   1.918
47353SOL    HW143898   0.290   7.975   1.849
47353SOL    HW243899   0.366   7.895   1.953
47354SOL     OW43900   1.205   8.343   3.403
47354SOL    HW143901   1.210   8.403   3.478
47354SOL    HW243902   1.150   8.390   3.340
47355SOL     OW43903  10.299  10.784   9.487
47355SOL    HW143904  10.341  10.739   9.413
47355SOL    HW243905  10.348  10.754   9.564
47356SOL     OW43906   1.412   0.843   3.314
47356SOL    HW143907   1.421   0.934   3.343
47356SOL    HW243908   1.488   0.829   3.257
47357SOL     OW43909   9.816   0.124   2.338
47357SOL    HW143910   9.904   0.098   2.311
47357SOL    HW243911   9.758   0.061   2.296
47358SOL     OW43912   5.135   0.013  11.407
47358SOL    HW143913   5.180  14.825  11.459
47358SOL    HW243914   5.173   0.096  11.438
47359SOL     OW43915   8.767  14.552   2.902
47359SOL    HW143916   8.802  14.636   2.933
47359SOL    HW243917   8.831  14.522   2.838
47360SOL     OW43918   1.703  12.302  13.538
47360SOL    HW143919   1.773  12.259  13.489
47360SOL    HW243920   1.634  12.317  13.474
47361SOL     OW43921  10.716  10.203   3.804
47361SOL    HW143922  10.779  10.213   3.876
47361SOL    HW243923  10.656  10.276   3.814
47362SOL     OW43924   9.810  11.464   2.003
47362SOL    HW143925   9.744  11.437   2.068
47362SOL    HW243926   9.817  11.559   2.015
47363SOL     OW43927  12.635   4.836   6.953
47363SOL    HW143928  12.689   4.860   6.877
47363SOL    HW243929  12.582   4.914   6.970
47364SOL     OW43930   8.897   5.627   5.334
47364SOL    HW143931   8.876   5.705   5.385
47364SOL    HW243932   8.814   5.579   5.328
47365SOL     OW43933  14.871  13.924  11.547
47365SOL    HW143934  14.817  13.964  11.615
47365SOL    HW243935   0.019  13.997  11.492
47366SOL     OW43936  12.494   4.118   2.219
47366SOL    HW143937  12.441   4.159   2.150
47366SOL    HW243938  12.577   4.165   2.216
47367SOL     OW43939   7.671   1.173  10.011
47367SOL    HW143940   7.696   1.190   9.921
47367SOL    HW243941   7.649   1.080  10.014
47368SOL     OW43942   7.686  13.473  14.315
47368SOL    HW143943   7.713  13.433  14.233
47368SOL    HW243944   7.767  13.486  14.364
47369SOL     OW43945   1.573  10.134  14.202
47369SOL    HW143946   1.607  10.215  14.238
47369SOL    HW243947   1.533  10.089  14.277
47370SOL     OW43948   2.739  14.119  12.443
47370SOL    HW143949   2.647  14.104  12.424
47370SOL    HW243950   2.768  14.181  12.376
47371SOL     OW43951  13.760   8.578   4.845
47371SOL    HW143952  13.806   8.662   4.840
47371SOL    HW243953  13.802   8.523   4.778
47372SOL     OW43954  11.903   4.985  11.178
47372SOL    HW143955  11.900   5.079  11.200
47372SOL    HW243956  11.967   4.949  11.239
47373SOL     OW43957  10.229  11.525   3.918
47373SOL    HW143958  10.241  11.572   4.001
47373SOL    HW243959  10.246  11.434   3.940
47374SOL     OW43960   1.642   7.577   3.399
47374SOL    HW143961   1.670   7.506   3.457
47374SOL    HW243962   1.653   7.657   3.452
47375SOL     OW43963  11.902  11.012  12.086
47375SOL    HW143964  11.968  11.009  12.155
47375SOL    HW243965  11.894  11.105  12.064
47376SOL     OW43966  13.554   5.947   2.079
47376SOL    HW143967  13.556   5.936   1.984
47376SOL    HW243968  13.492   6.019   2.094
47377SOL     OW43969  11.855   5.290   2.861
47377SOL    HW143970  11.807   5.302   2.943
47377SOL    HW243971  11.854   5.196   2.846
47378SOL     OW43972   5.104   4.628   4.924
47378SOL    HW143973   5.067   4.626   5.013
47378SOL    HW243974   5.177   4.566   4.928
47379SOL     OW43975   0.521   4.252  13.517
47379SOL    HW143976   0.530   4.187  13.586
47379SOL    HW243977   0.600   4.241  13.464
47380SOL     OW43978  11.526  14.266   5.622
47380SOL    HW143979  11.543  14.351   5.663
47380SOL    HW243980  11.604  14.214   5.640
47381SOL     OW43981   9.702   1.426   9.908
47381SOL    HW143982   9.686   1.405   9.816
47381SOL    HW243983   9.615   1.423   9.948
47382SOL     OW43984   9.482  14.341   6.024
47382SOL    HW143985   9.565  14.294   6.028
47382SOL    HW243986   9.416  14.274   6.041
47383SOL     OW43987   5.999   9.424   8.473
47383SOL    HW143988   6.067   9.405   8.409
47383SOL    HW243989   5.946   9.492   8.432
47384SOL     OW43990   4.220   7.606   0.782
47384SOL    HW143991   4.176   7.636   0.702
47384SOL    HW243992   4.150   7.589   0.844
47385SOL     OW43993   5.730  10.426   8.854
47385SOL    HW143994   5.749  10.482   8.779
47385SOL    HW243995   5.651  10.462   8.892
47386SOL     OW43996   0.860  10.531   8.233
47386SOL    HW143997   0.895  10.600   8.177
47386SOL    HW243998   0.931  10.468   8.239
47387SOL     OW43999   1.972  14.007   2.655
47387SOL    HW144000   1.908  13.949   2.697
47387SOL    HW244001   1.960  14.091   2.698
47388SOL     OW44002  11.690   3.911   0.071
47388SOL    HW144003  11.612   3.859   0.089
47388SOL    HW244004  11.698   3.969   0.147
47389SOL     OW44005   0.188   4.083  14.599
47389SOL    HW144006   0.278   4.050  14.604
47389SOL    HW244007   0.177   4.109  14.508
47390SOL     OW44008   2.769  10.444   6.827
47390SOL    HW144009   2.840  10.498   6.862
47390SOL    HW244010   2.813  10.372   6.782
47391SOL     OW44011   9.182   3.098   7.016
47391SOL    HW144012   9.101   3.074   7.061
47391SOL    HW244013   9.212   3.017   6.975
47392SOL     OW44014   2.237  11.365  12.964
47392SOL    HW144015   2.287  11.302  12.912
47392SOL    HW244016   2.161  11.315  12.994
47393SOL     OW44017   2.915   7.074  13.096
47393SOL    HW144018   2.869   7.113  13.021
47393SOL    HW244019   2.922   7.144  13.160
47394SOL     OW44020   3.946  12.880   5.624
47394SOL    HW144021   3.860  12.910   5.594
47394SOL    HW244022   3.930  12.845   5.711
47395SOL     OW44023   8.564   1.250  14.069
47395SOL    HW144024   8.478   1.250  14.110
47395SOL    HW244025   8.620   1.204  14.131
47396SOL     OW44026   0.012   3.553   7.751
47396SOL    HW144027   0.032   3.484   7.814
47396SOL    HW244028  14.828   3.609   7.797
47397SOL     OW44029  13.152  13.659  10.789
47397SOL    HW144030  13.190  13.744  10.766
47397SOL    HW244031  13.223  13.613  10.834
47398SOL     OW44032   7.446   5.588   0.970
47398SOL    HW144033   7.437   5.524   0.899
47398SOL    HW244034   7.380   5.561   1.034
47399SOL     OW44035   7.035  13.417  14.672
47399SOL    HW144036   7.107  13.361  14.643
47399SOL    HW244037   6.956  13.365  14.658
47400SOL     OW44038  13.204   1.034   2.596
47400SOL    HW144039  13.287   0.987   2.592
47400SOL    HW244040  13.228   1.123   2.624
47401SOL     OW44041   9.142   9.900   0.175
47401SOL    HW144042   9.237   9.885   0.176
47401SOL    HW244043   9.119   9.915   0.266
47402SOL     OW44044   5.643   9.047   9.257
47402SOL    HW144045   5.568   9.108   9.253
47402SOL    HW244046   5.719   9.102   9.237
47403SOL     OW44047   2.681   2.395   7.011
47403SOL    HW144048   2.670   2.488   7.032
47403SOL    HW244049   2.739   2.394   6.935
47404SOL     OW44050   5.409   2.509   0.845
47404SOL    HW144051   5.348   2.580   0.824
47404SOL    HW244052   5.354   2.432   0.857
47405SOL     OW44053   1.632   8.242   5.545
47405SOL    HW144054   1.626   8.276   5.634
47405SOL    HW244055   1.542   8.216   5.524
47406SOL     OW44056   2.101   5.634   2.511
47406SOL    HW144057   2.128   5.620   2.420
47406SOL    HW244058   2.063   5.549   2.537
47407SOL     OW44059  10.983   9.927   0.884
47407SOL    HW144060  10.907   9.934   0.825
47407SOL    HW244061  11.034  10.006   0.865
47408SOL     OW44062   4.913   0.185  11.706
47408SOL    HW144063   4.837   0.183  11.764
47408SOL    HW244064   4.886   0.132  11.631
47409SOL     OW44065  14.447   6.717   3.257
47409SOL    HW144066  14.399   6.800   3.252
47409SOL    HW244067  14.378   6.650   3.261
47410SOL     OW44068  12.454   8.647  10.797
47410SOL    HW144069  12.410   8.630  10.714
47410SOL    HW244070  12.532   8.697  10.773
47411SOL     OW44071   2.429   7.706  11.534
47411SOL    HW144072   2.441   7.618  11.497
47411SOL    HW244073   2.421   7.691  11.628
47412SOL     OW44074   5.619   3.263  13.064
47412SOL    HW144075   5.530   3.293  13.044
47412SOL    HW244076   5.671   3.343  13.071
47413SOL     OW44077   6.604  11.746   2.463
47413SOL    HW144078   6.649  11.663   2.454
47413SOL    HW244079   6.521  11.734   2.417
47414SOL     OW44080   7.967  12.051  12.570
47414SOL    HW144081   7.906  12.109  12.616
47414SOL    HW244082   8.016  12.008  12.640
47415SOL     OW44083   7.889   8.615   3.173
47415SOL    HW144084   7.925   8.569   3.097
47415SOL    HW244085   7.954   8.682   3.193
47416SOL     OW44086  13.710   6.294   6.855
47416SOL    HW144087  13.763   6.367   6.823
47416SOL    HW244088  13.648   6.334   6.916
47417SOL     OW44089   6.622   1.746   0.355
47417SOL    HW144090   6.533   1.766   0.385
47417SOL    HW244091   6.608   1.702   0.271
47418SOL     OW44092  11.152   8.135   0.522
47418SOL    HW144093  11.065   8.151   0.488
47418SOL    HW244094  11.157   8.040   0.534
47419SOL     OW44095   0.019  14.155   3.291
47419SOL    HW144096   0.019  14.106   3.209
47419SOL    HW244097   0.088  14.115   3.344
47420SOL     OW44098   0.370   3.422   5.936
47420SOL    HW144099   0.409   3.488   5.878
47420SOL    HW244100   0.336   3.471   6.010
47421SOL     OW44101   1.081   4.982   7.251
47421SOL    HW144102   1.028   4.968   7.173
47421SOL    HW244103   1.054   4.912   7.311
47422SOL     OW44104   4.194  12.157  12.819
47422SOL    HW144105   4.224  12.147  12.728
47422SOL    HW244106   4.099  12.167  12.811
47423SOL     OW44107   6.234   5.363   3.191
47423SOL    HW144108   6.283   5.375   3.272
47423SOL    HW244109   6.297   5.384   3.121
47424SOL     OW44110   5.278  12.105   5.147
47424SOL    HW144111   5.222  12.103   5.225
47424SOL    HW244112   5.240  12.174   5.092
47425SOL     OW44113   0.068   0.434   5.796
47425SOL    HW144114   0.015   0.486   5.857
47425SOL    HW244115   0.005   0.374   5.755
47426SOL     OW44116   4.194   5.074   7.926
47426SOL    HW144117   4.266   5.131   7.898
47426SOL    HW244118   4.205   5.068   8.021
47427SOL     OW44119   8.741   0.584   7.818
47427SOL    HW144120   8.800   0.607   7.890
47427SOL    HW244121   8.744   0.488   7.814
47428SOL     OW44122  11.119   0.505   8.820
47428SOL    HW144123  11.116   0.467   8.909
47428SOL    HW244124  11.085   0.435   8.764
47429SOL     OW44125   5.115   8.020   5.517
47429SOL    HW144126   5.135   7.974   5.436
47429SOL    HW244127   5.143   8.110   5.501
47430SOL     OW44128   1.368   5.316   9.185
47430SOL    HW144129   1.366   5.256   9.111
47430SOL    HW244130   1.447   5.291   9.234
47431SOL     OW44131   7.360   9.805  12.970
47431SOL    HW144132   7.432   9.768  13.021
47431SOL    HW244133   7.285   9.803  13.029
47432SOL     OW44134  12.030   0.145   0.695
47432SOL    HW144135  12.089   0.219   0.712
47432SOL    HW244136  12.079   0.068   0.725
47433SOL     OW44137  11.093   8.915   5.127
47433SOL    HW144138  11.046   8.866   5.059
47433SOL    HW244139  11.169   8.862   5.148
47434SOL     OW44140  13.222  12.499  11.558
47434SOL    HW144141  13.293  12.520  11.498
47434SOL    HW244142  13.258  12.519  11.645
47435SOL     OW44143   4.080   4.904   9.080
47435SOL    HW144144   4.071   4.999   9.067
47435SOL    HW244145   3.993   4.869   9.064
47436SOL     OW44146   9.149   0.612   3.508
47436SOL    HW144147   9.180   0.596   3.418
47436SOL    HW244148   9.064   0.568   3.512
47437SOL     OW44149  11.638   1.696  11.655
47437SOL    HW144150  11.674   1.633  11.717
47437SOL    HW244151  11.609   1.644  11.581
47438SOL     OW44152   5.456   6.938   4.991
47438SOL    HW144153   5.426   6.849   5.006
47438SOL    HW244154   5.461   6.948   4.896
47439SOL     OW44155  10.874   1.921  12.526
47439SOL    HW144156  10.850   1.951  12.614
47439SOL    HW244157  10.961   1.883  12.536
47440SOL     OW44158   4.487   1.891  12.151
47440SOL    HW144159   4.463   1.939  12.072
47440SOL    HW244160   4.418   1.826  12.162
47441SOL     OW44161   0.673  10.077  10.609
47441SOL    HW144162   0.738  10.058  10.542
47441SOL    HW244163   0.614  10.141  10.567
47442SOL     OW44164  10.101   4.553   4.620
47442SOL    HW144165  10.119   4.645   4.602
47442SOL    HW244166  10.006   4.546   4.616
47443SOL     OW44167  11.765  12.865   3.261
47443SOL    HW144168  11.784  12.779   3.300
47443SOL    HW244169  11.829  12.923   3.301
47444SOL     OW44170   5.773  10.836   4.244
47444SOL    HW144171   5.694  10.886   4.223
47444SOL    HW244172   5.741  10.746   4.258
47445SOL     OW44173  11.936   7.860   8.697
47445SOL    HW144174  11.874   7.788   8.682
47445SOL    HW244175  12.022   7.819   8.694
47446SOL     OW44176   5.296   3.198   8.381
47446SOL    HW144177   5.336   3.120   8.341
47446SOL    HW244178   5.293   3.178   8.474
47447SOL     OW44179   4.675   4.907   8.600
47447SOL    HW144180   4.697   4.959   8.677
47447SOL    HW244181   4.581   4.921   8.588
47448SOL     OW44182   4.300   2.282   3.329
47448SOL    HW144183   4.229   2.251   3.272
47448SOL    HW244184   4.262   2.279   3.417
47449SOL     OW44185   7.336  13.162   8.874
47449SOL    HW144186   7.249  13.130   8.900
47449SOL    HW244187   7.383  13.173   8.957
47450SOL     OW44188  12.352  13.823  14.187
47450SOL    HW144189  12.421  13.779  14.138
47450SOL    HW244190  12.271  13.780  14.158
47451SOL     OW44191   5.958   4.709  10.647
47451SOL    HW144192   5.954   4.655  10.726
47451SOL    HW244193   5.867   4.715  10.618
47452SOL     OW44194   4.516   3.041   0.117
47452SOL    HW144195   4.523   3.115   0.057
47452SOL    HW244196   4.553   2.967   0.069
47453SOL     OW44197  10.699   5.989  13.862
47453SOL    HW144198  10.746   5.910  13.837
47453SOL    HW244199  10.610   5.960  13.878
47454SOL     OW44200  12.707   6.240   0.723
47454SOL    HW144201  12.636   6.261   0.662
47454SOL    HW244202  12.698   6.146   0.739
47455SOL     OW44203   7.608   5.374  11.454
47455SOL    HW144204   7.615   5.281  11.476
47455SOL    HW244205   7.514   5.387  11.437
47456SOL     OW44206   7.341   6.278  12.957
47456SOL    HW144207   7.427   6.296  12.920
47456SOL    HW244208   7.358   6.265  13.051
47457SOL     OW44209   0.587   9.287   5.382
47457SOL    HW144210   0.502   9.255   5.413
47457SOL    HW244211   0.634   9.312   5.461
47458SOL     OW44212   6.040   7.669   3.605
47458SOL    HW144213   6.116   7.726   3.596
47458SOL    HW244214   5.981   7.697   3.534
47459SOL     OW44215  14.489  11.487   0.507
47459SOL    HW144216  14.448  11.540   0.575
47459SOL    HW244217  14.469  11.533   0.426
47460SOL     OW44218   5.060   5.673   6.433
47460SOL    HW144219   5.054   5.686   6.339
47460SOL    HW244220   5.112   5.747   6.465
47461SOL     OW44221   7.033   6.786   1.299
47461SOL    HW144222   7.053   6.693   1.290
47461SOL    HW244223   7.082   6.813   1.377
47462SOL     OW44224   8.361   0.268   8.337
47462SOL    HW144225   8.349   0.359   8.364
47462SOL    HW244226   8.407   0.227   8.411
47463SOL     OW44227   2.380   3.793  11.726
47463SOL    HW144228   2.305   3.738  11.749
47463SOL    HW244229   2.385   3.857  11.797
47464SOL     OW44230   8.581   1.498   4.384
47464SOL    HW144231   8.669   1.484   4.350
47464SOL    HW244232   8.539   1.555   4.319
47465SOL     OW44233  12.039   1.672  11.621
47465SOL    HW144234  12.011   1.752  11.664
47465SOL    HW244235  12.081   1.620  11.690
47466SOL     OW44236   0.822  12.641   3.661
47466SOL    HW144237   0.886  12.595   3.606
47466SOL    HW244238   0.873  12.670   3.737
47467SOL     OW44239   3.556   9.778   5.619
47467SOL    HW144240   3.646   9.746   5.607
47467SOL    HW244241   3.558   9.822   5.704
47468SOL     OW44242   8.434  10.200   7.006
47468SOL    HW144243   8.484  10.248   7.072
47468SOL    HW244244   8.488  10.203   6.928
47469SOL     OW44245   1.970   9.721   0.773
47469SOL    HW144246   2.045   9.753   0.723
47469SOL    HW244247   1.905   9.791   0.767
47470SOL     OW44248   2.250   3.097   7.436
47470SOL    HW144249   2.257   3.191   7.455
47470SOL    HW244250   2.334   3.061   7.462
47471SOL     OW44251   6.038   1.516  12.968
47471SOL    HW144252   6.055   1.469  12.887
47471SOL    HW244253   6.124   1.519  13.012
47472SOL     OW44254  12.680  12.330  11.929
47472SOL    HW144255  12.637  12.349  11.845
47472SOL    HW244256  12.758  12.385  11.929
47473SOL     OW44257   3.338   0.787   4.865
47473SOL    HW144258   3.277   0.861   4.870
47473SOL    HW244259   3.425   0.828   4.861
47474SOL     OW44260  11.718  10.897   6.471
47474SOL    HW144261  11.742  10.846   6.393
47474SOL    HW244262  11.796  10.894   6.526
47475SOL     OW44263   0.487   6.090   7.302
47475SOL    HW144264   0.537   6.023   7.257
47475SOL    HW244265   0.399   6.086   7.264
47476SOL     OW44266   6.991   7.376  10.142
47476SOL    HW144267   7.008   7.402  10.052
47476SOL    HW244268   7.024   7.286  10.147
47477SOL     OW44269  11.028  12.947   8.801
47477SOL    HW144270  11.035  12.881   8.870
47477SOL    HW244271  10.970  13.014   8.838
47478SOL     OW44272   3.349   4.999   9.807
47478SOL    HW144273   3.271   4.947   9.793
47478SOL    HW244274   3.319   5.077   9.855
47479SOL     OW44275   8.016   2.454   2.503
47479SOL    HW144276   8.020   2.507   2.423
47479SOL    HW244277   7.943   2.394   2.489
47480SOL     OW44278   1.311  10.624  11.247
47480SOL    HW144279   1.407  10.621  11.250
47480SOL    HW244280   1.284  10.532  11.253
47481SOL     OW44281  14.026   7.335   3.003
47481SOL    HW144282  14.071   7.288   2.932
47481SOL    HW244283  14.097   7.370   3.057
47482SOL     OW44284   7.747   1.933   8.285
47482SOL    HW144285   7.836   1.897   8.286
47482SOL    HW244286   7.721   1.936   8.377
47483SOL     OW44287   9.750   7.891   0.729
47483SOL    HW144288   9.664   7.871   0.690
47483SOL    HW244289   9.813   7.862   0.663
47484SOL     OW44290   6.587   5.559   0.589
47484SOL    HW144291   6.565   5.547   0.682
47484SOL    HW244292   6.514   5.610   0.553
47485SOL     OW44293   4.383   3.652   4.803
47485SOL    HW144294   4.320   3.720   4.827
47485SOL    HW244295   4.365   3.580   4.863
47486SOL     OW44296  12.076   7.452   3.171
47486SOL    HW144297  12.009   7.491   3.115
47486SOL    HW244298  12.153   7.508   3.160
47487SOL     OW44299  12.630   2.698   3.422
47487SOL    HW144300  12.657   2.776   3.470
47487SOL    HW244301  12.710   2.646   3.414
47488SOL     OW44302  10.077   7.371  13.261
47488SOL    HW144303  10.107   7.322  13.337
47488SOL    HW244304  10.075   7.307  13.190
47489SOL     OW44305   7.729  14.348   8.010
47489SOL    HW144306   7.645  14.302   8.009
47489SOL    HW244307   7.738  14.380   8.099
47490SOL     OW44308   3.725   2.391   7.575
47490SOL    HW144309   3.725   2.320   7.640
47490SOL    HW244310   3.784   2.457   7.610
47491SOL     OW44311   7.291   9.508  13.505
47491SOL    HW144312   7.260   9.439  13.446
47491SOL    HW244313   7.226   9.578  13.498
47492SOL     OW44314  12.718  12.016   3.355
47492SOL    HW144315  12.671  12.022   3.271
47492SOL    HW244316  12.741  11.924   3.362
47493SOL     OW44317   4.490  14.369  11.389
47493SOL    HW144318   4.571  14.344  11.345
47493SOL    HW244319   4.470  14.295  11.446
47494SOL     OW44320   1.948   2.247   6.628
47494SOL    HW144321   1.967   2.156   6.651
47494SOL    HW244322   1.883   2.241   6.558
47495SOL     OW44323   6.717  14.223   2.633
47495SOL    HW144324   6.630  14.198   2.600
47495SOL    HW244325   6.731  14.167   2.709
47496SOL     OW44326   6.745   6.167  14.833
47496SOL    HW144327   6.773   6.208   0.036
47496SOL    HW244328   6.780   6.078  14.838
47497SOL     OW44329   9.965  12.244   1.121
47497SOL    HW144330  10.045  12.224   1.072
47497SOL    HW244331   9.921  12.160   1.131
47498SOL     OW44332  10.922   9.663  12.550
47498SOL    HW144333  10.923   9.609  12.629
47498SOL    HW244334  10.889   9.604  12.481
47499SOL     OW44335  10.944   1.266  14.042
47499SOL    HW144336  11.028   1.310  14.056
47499SOL    HW244337  10.883   1.312  14.100
47500SOL     OW44338  11.656   1.754   0.875
47500SOL    HW144339  11.644   1.660   0.886
47500SOL    HW244340  11.633   1.792   0.959
47501SOL     OW44341   9.811   0.960   8.125
47501SOL    HW144342   9.847   0.889   8.178
47501SOL    HW244343   9.803   1.034   8.187
47502SOL     OW44344   1.249   3.289   1.155
47502SOL    HW144345   1.272   3.228   1.226
47502SOL    HW244346   1.274   3.243   1.075
47503SOL     OW44347  12.102   7.211  13.640
47503SOL    HW144348  12.127   7.120  13.653
47503SOL    HW244349  12.051   7.233  13.718
47504SOL     OW44350   6.215   6.393   8.713
47504SOL    HW144351   6.216   6.337   8.792
47504SOL    HW244352   6.308   6.408   8.694
47505SOL     OW44353  14.762   4.115   8.957
47505SOL    HW144354  14.819   4.164   9.017
47505SOL    HW244355  14.721   4.049   9.012
47506SOL     OW44356   8.892  10.584   4.050
47506SOL    HW144357   8.914  10.515   3.988
47506SOL    HW244358   8.905  10.665   4.001
47507SOL     OW44359   6.671  11.105   0.520
47507SOL    HW144360   6.697  11.168   0.453
47507SOL    HW244361   6.742  11.041   0.522
47508SOL     OW44362  13.416   6.405   9.238
47508SOL    HW144363  13.425   6.471   9.307
47508SOL    HW244364  13.324   6.409   9.212
47509SOL     OW44365   5.639   9.859   6.276
47509SOL    HW144366   5.620   9.952   6.270
47509SOL    HW244367   5.602   9.822   6.196
47510SOL     OW44368  12.839  12.756  10.529
47510SOL    HW144369  12.759  12.713  10.499
47510SOL    HW244370  12.899  12.684  10.548
47511SOL     OW44371  12.421  14.760   3.979
47511SOL    HW144372  12.400  14.844   4.018
47511SOL    HW244373  12.388  14.766   3.890
47512SOL     OW44374   1.248   4.826   0.265
47512SOL    HW144375   1.153   4.814   0.268
47512SOL    HW244376   1.265   4.900   0.324
47513SOL     OW44377   6.659   4.678   6.811
47513SOL    HW144378   6.635   4.598   6.857
47513SOL    HW244379   6.586   4.694   6.751
47514SOL     OW44380  12.670  12.553  11.134
47514SOL    HW144381  12.731  12.484  11.160
47514SOL    HW244382  12.671  12.614  11.208
47515SOL     OW44383   1.673   8.578  10.546
47515SOL    HW144384   1.707   8.563  10.634
47515SOL    HW244385   1.621   8.500  10.527
47516SOL     OW44386  10.863   3.408   5.691
47516SOL    HW144387  10.837   3.416   5.599
47516SOL    HW244388  10.943   3.355   5.689
47517SOL     OW44389  11.360   7.774  10.040
47517SOL    HW144390  11.428   7.709  10.025
47517SOL    HW244391  11.405   7.848  10.079
47518SOL     OW44392   1.497   9.782   5.314
47518SOL    HW144393   1.576   9.812   5.359
47518SOL    HW244394   1.515   9.795   5.221
47519SOL     OW44395  11.756  10.030   8.473
47519SOL    HW144396  11.812  10.089   8.422
47519SOL    HW244397  11.673  10.029   8.426
47520SOL     OW44398  13.795  13.599  10.064
47520SOL    HW144399  13.732  13.566  10.128
47520SOL    HW244400  13.872  13.543  10.074
47521SOL     OW44401   0.323   2.068   6.427
47521SOL    HW144402   0.331   2.027   6.341
47521SOL    HW244403   0.412   2.068   6.463
47522SOL     OW44404   7.889   0.062   7.312
47522SOL    HW144405   7.944  14.877   7.356
47522SOL    HW244406   7.801   0.026   7.317
47523SOL     OW44407  13.827   1.895   1.852
47523SOL    HW144408  13.881   1.964   1.813
47523SOL    HW244409  13.770   1.941   1.914
47524SOL     OW44410   8.716   2.224   1.263
47524SOL    HW144411   8.701   2.307   1.217
47524SOL    HW244412   8.769   2.248   1.338
47525SOL     OW44413  11.139   7.424   7.420
47525SOL    HW144414  11.051   7.407   7.387
47525SOL    HW244415  11.156   7.516   7.399
47526SOL     OW44416  10.681   3.415   8.473
47526SOL    HW144417  10.704   3.505   8.497
47526SOL    HW244418  10.645   3.422   8.385
47527SOL     OW44419  14.226   8.713   5.297
47527SOL    HW144420  14.204   8.799   5.333
47527SOL    HW244421  14.283   8.673   5.363
47528SOL     OW44422   2.315   8.287  14.317
47528SOL    HW144423   2.363   8.330  14.388
47528SOL    HW244424   2.223   8.306  14.336
47529SOL     OW44425  11.784   0.790   3.439
47529SOL    HW144426  11.692   0.801   3.461
47529SOL    HW244427  11.804   0.861   3.379
47530SOL     OW44428   8.483   3.305   0.950
47530SOL    HW144429   8.437   3.261   0.878
47530SOL    HW244430   8.442   3.392   0.955
47531SOL     OW44431   6.485   7.897  14.055
47531SOL    HW144432   6.504   7.825  14.114
47531SOL    HW244433   6.397   7.925  14.079
47532SOL     OW44434  13.953  14.103   8.008
47532SOL    HW144435  13.967  14.057   7.925
47532SOL    HW244436  13.859  14.118   8.011
47533SOL     OW44437   3.681  11.799   2.855
47533SOL    HW144438   3.601  11.810   2.907
47533SOL    HW244439   3.655  11.823   2.766
47534SOL     OW44440  14.043   8.677   6.764
47534SOL    HW144441  13.975   8.692   6.831
47534SOL    HW244442  13.997   8.687   6.681
47535SOL     OW44443  14.540   8.122  10.075
47535SOL    HW144444  14.562   8.083  10.159
47535SOL    HW244445  14.590   8.072  10.010
47536SOL     OW44446  14.361   0.646   4.632
47536SOL    HW144447  14.288   0.635   4.694
47536SOL    HW244448  14.436   0.668   4.687
47537SOL     OW44449  14.869  13.241   9.006
47537SOL    HW144450   0.008  13.241   8.912
47537SOL    HW244451   0.035  13.164   9.039
47538SOL     OW44452  13.858   9.229   7.110
47538SOL    HW144453  13.856   9.253   7.018
47538SOL    HW244454  13.806   9.297   7.153
47539SOL     OW44455   1.421   1.761  11.931
47539SOL    HW144456   1.388   1.671  11.937
47539SOL    HW244457   1.369   1.810  11.996
47540SOL     OW44458   1.237  11.940  11.518
47540SOL    HW144459   1.332  11.936  11.506
47540SOL    HW244460   1.220  11.889  11.597
47541SOL     OW44461   0.256  11.168   9.810
47541SOL    HW144462   0.349  11.167   9.832
47541SOL    HW244463   0.250  11.117   9.729
47542SOL     OW44464   9.642   0.466   6.048
47542SOL    HW144465   9.580   0.463   5.975
47542SOL    HW244466   9.722   0.502   6.010
47543SOL     OW44467   7.443   0.285  12.821
47543SOL    HW144468   7.414   0.316  12.735
47543SOL    HW244469   7.528   0.245  12.805
47544SOL     OW44470   8.037  10.812   8.646
47544SOL    HW144471   7.954  10.766   8.635
47544SOL    HW244472   8.098  10.744   8.677
47545SOL     OW44473   6.168   9.520   3.706
47545SOL    HW144474   6.165   9.506   3.800
47545SOL    HW244475   6.089   9.570   3.686
47546SOL     OW44476  14.078   6.283  11.935
47546SOL    HW144477  14.024   6.309  11.860
47546SOL    HW244478  14.063   6.352  12.000
47547SOL     OW44479   6.827   3.161   2.546
47547SOL    HW144480   6.844   3.248   2.511
47547SOL    HW244481   6.736   3.165   2.577
47548SOL     OW44482   1.296   0.671   2.195
47548SOL    HW144483   1.384   0.709   2.191
47548SOL    HW244484   1.275   0.670   2.289
47549SOL     OW44485   5.696   2.958  14.113
47549SOL    HW144486   5.749   2.988  14.039
47549SOL    HW244487   5.662   2.873  14.084
47550SOL     OW44488   3.116   9.117   4.653
47550SOL    HW144489   3.207   9.139   4.637
47550SOL    HW244490   3.075   9.122   4.567
47551SOL     OW44491   8.489   3.941  12.854
47551SOL    HW144492   8.584   3.930  12.852
47551SOL    HW244493   8.475   4.032  12.827
47552SOL     OW44494   8.452   0.365   1.062
47552SOL    HW144495   8.528   0.420   1.084
47552SOL    HW244496   8.490   0.291   1.014
47553SOL     OW44497  12.339   8.185  14.489
47553SOL    HW144498  12.260   8.166  14.439
47553SOL    HW244499  12.313   8.174  14.581
47554SOL     OW44500   7.793   7.651   9.092
47554SOL    HW144501   7.861   7.606   9.043
47554SOL    HW244502   7.839   7.687   9.168
47555SOL     OW44503   5.674   2.482  10.603
47555SOL    HW144504   5.584   2.456  10.583
47555SOL    HW244505   5.665   2.566  10.648
47556SOL     OW44506   7.274   0.235   4.277
47556SOL    HW144507   7.204   0.169   4.277
47556SOL    HW244508   7.307   0.235   4.367
47557SOL     OW44509   7.712  10.379   8.518
47557SOL    HW144510   7.617  10.382   8.507
47557SOL    HW244511   7.747  10.370   8.430
47558SOL     OW44512  13.832   6.984  10.033
47558SOL    HW144513  13.914   6.947  10.001
47558SOL    HW244514  13.787   6.910  10.075
47559SOL     OW44515  10.331  13.361   0.137
47559SOL    HW144516  10.292  13.332   0.219
47559SOL    HW244517  10.419  13.322   0.137
47560SOL     OW44518   1.665   7.963   5.658
47560SOL    HW144519   1.756   7.989   5.671
47560SOL    HW244520   1.663   7.871   5.687
47561SOL     OW44521  14.106  13.375   0.429
47561SOL    HW144522  14.108  13.457   0.378
47561SOL    HW244523  14.067  13.311   0.369
47562SOL     OW44524  13.754   2.772   7.021
47562SOL    HW144525  13.805   2.844   7.060
47562SOL    HW244526  13.809   2.740   6.950
47563SOL     OW44527   6.720   3.578   4.482
47563SOL    HW144528   6.701   3.518   4.554
47563SOL    HW244529   6.716   3.665   4.521
47564SOL     OW44530   4.434  11.259   2.139
47564SOL    HW144531   4.357  11.252   2.083
47564SOL    HW244532   4.477  11.174   2.131
47565SOL     OW44533  11.757  14.688  14.735
47565SOL    HW144534  11.842  14.707  14.695
47565SOL    HW244535  11.699  14.670  14.661
47566SOL     OW44536   5.391   3.630   5.440
47566SOL    HW144537   5.349   3.626   5.355
47566SOL    HW244538   5.485   3.625   5.421
47567SOL     OW44539  11.129   8.609   8.075
47567SOL    HW144540  11.203   8.554   8.101
47567SOL    HW244541  11.073   8.551   8.023
47568SOL     OW44542  12.026  13.575  13.975
47568SOL    HW144543  11.976  13.506  13.931
47568SOL    HW244544  11.986  13.656  13.945
47569SOL     OW44545   9.369   9.988  12.549
47569SOL    HW144546   9.292   9.967  12.496
47569SOL    HW244547   9.439   9.934  12.512
47570SOL     OW44548  10.475   4.633  13.986
47570SOL    HW144549  10.525   4.570  14.038
47570SOL    HW244550  10.530   4.712  13.985
47571SOL     OW44551   9.683   2.104   9.574
47571SOL    HW144552   9.731   2.175   9.616
47571SOL    HW244553   9.739   2.077   9.500
47572SOL     OW44554   9.938  14.640   1.976
47572SOL    HW144555   9.948  14.614   2.068
47572SOL    HW244556  10.022  14.619   1.936
47573SOL     OW44557   9.936   2.924   1.671
47573SOL    HW144558   9.879   2.981   1.722
47573SOL    HW244559  10.002   2.982   1.634
47574SOL     OW44560   6.910   7.637   0.362
47574SOL    HW144561   6.861   7.719   0.359
47574SOL    HW244562   6.845   7.571   0.386
47575SOL     OW44563   7.215   9.710   8.277
47575SOL    HW144564   7.222   9.805   8.266
47575SOL    HW244565   7.144   9.684   8.219
47576SOL     OW44566   5.390   7.064  10.830
47576SOL    HW144567   5.462   7.041  10.887
47576SOL    HW244568   5.313   7.067  10.887
47577SOL     OW44569   8.016  14.542   6.574
47577SOL    HW144570   8.028  14.552   6.668
47577SOL    HW244571   7.956  14.468   6.565
47578SOL     OW44572  14.252   6.128   4.527
47578SOL    HW144573  14.207   6.136   4.444
47578SOL    HW244574  14.185   6.145   4.593
47579SOL     OW44575   2.828   0.305   8.227
47579SOL    HW144576   2.868   0.262   8.302
47579SOL    HW244577   2.853   0.251   8.152
47580SOL     OW44578   6.926   2.734   0.300
47580SOL    HW144579   6.956   2.643   0.307
47580SOL    HW244580   6.832   2.727   0.285
47581SOL     OW44581   9.125   4.973   0.760
47581SOL    HW144582   9.117   4.938   0.849
47581SOL    HW244583   9.067   5.049   0.759
47582SOL     OW44584   1.353   3.694   9.354
47582SOL    HW144585   1.267   3.736   9.364
47582SOL    HW244586   1.340   3.630   9.284
47583SOL     OW44587   4.613   9.060   0.863
47583SOL    HW144588   4.684   9.076   0.925
47583SOL    HW244589   4.535   9.050   0.917
47584SOL     OW44590   0.067   6.706  12.616
47584SOL    HW144591   0.037   6.748  12.535
47584SOL    HW244592   0.153   6.744  12.633
47585SOL     OW44593   1.531   6.095   7.802
47585SOL    HW144594   1.610   6.078   7.854
47585SOL    HW244595   1.460   6.057   7.853
47586SOL     OW44596  10.205   5.195  12.009
47586SOL    HW144597  10.281   5.253  12.011
47586SOL    HW244598  10.189   5.179  11.916
47587SOL     OW44599   4.257   6.375   3.513
47587SOL    HW144600   4.314   6.307   3.476
47587SOL    HW244601   4.180   6.373   3.458
47588SOL     OW44602   0.494   0.217   5.317
47588SOL    HW144603   0.415   0.181   5.358
47588SOL    HW244604   0.511   0.298   5.365
47589SOL     OW44605  13.260   3.934   7.038
47589SOL    HW144606  13.333   3.873   7.037
47589SOL    HW244607  13.299   4.019   7.018
47590SOL     OW44608   1.349   1.191   8.468
47590SOL    HW144609   1.370   1.115   8.524
47590SOL    HW244610   1.432   1.216   8.429
47591SOL     OW44611  10.906   8.050  12.596
47591SOL    HW144612  10.909   8.145  12.588
47591SOL    HW244613  10.974   8.030  12.661
47592SOL     OW44614   2.613   3.866   9.808
47592SOL    HW144615   2.528   3.834   9.837
47592SOL    HW244616   2.597   3.905   9.722
47593SOL     OW44617   9.268  12.579  10.791
47593SOL    HW144618   9.353  12.600  10.752
47593SOL    HW244619   9.234  12.509  10.736
47594SOL     OW44620   7.512  11.321   9.792
47594SOL    HW144621   7.438  11.341   9.734
47594SOL    HW244622   7.542  11.235   9.763
47595SOL     OW44623  11.021   3.556  11.468
47595SOL    HW144624  10.958   3.520  11.406
47595SOL    HW244625  11.048   3.639  11.429
47596SOL     OW44626   0.102   4.820  12.641
47596SOL    HW144627   0.062   4.904  12.621
47596SOL    HW244628   0.092   4.811  12.736
47597SOL     OW44629   6.740   6.527   9.822
47597SOL    HW144630   6.753   6.444   9.868
47597SOL    HW244631   6.667   6.512   9.763
47598SOL     OW44632   4.993  13.719   3.380
47598SOL    HW144633   4.936  13.789   3.349
47598SOL    HW244634   5.035  13.756   3.458
47599SOL     OW44635   2.473   3.172   4.718
47599SOL    HW144636   2.458   3.252   4.668
47599SOL    HW244637   2.518   3.200   4.797
47600SOL     OW44638   0.868   6.622   0.826
47600SOL    HW144639   0.787   6.618   0.776
47600SOL    HW244640   0.920   6.690   0.784
47601SOL     OW44641  10.946   2.673  13.881
47601SOL    HW144642  11.006   2.598  13.889
47601SOL    HW244643  10.910   2.664  13.792
47602SOL     OW44644   7.529   2.150  11.739
47602SOL    HW144645   7.574   2.077  11.697
47602SOL    HW244646   7.453   2.166  11.684
47603SOL     OW44647   1.889   1.903  11.009
47603SOL    HW144648   1.832   1.827  10.994
47603SOL    HW244649   1.870   1.962  10.936
47604SOL     OW44650  13.610  11.900   1.480
47604SOL    HW144651  13.610  11.882   1.574
47604SOL    HW244652  13.557  11.979   1.470
47605SOL     OW44653   5.756  10.138   2.414
47605SOL    HW144654   5.688  10.134   2.480
47605SOL    HW244655   5.739  10.064   2.355
47606SOL     OW44656   5.569   2.721   8.204
47606SOL    HW144657   5.582   2.631   8.234
47606SOL    HW244658   5.517   2.712   8.124
47607SOL     OW44659   1.014   6.305  10.224
47607SOL    HW144660   0.928   6.272  10.248
47607SOL    HW244661   0.999   6.360  10.146
47608SOL     OW44662   2.723   8.787  12.686
47608SOL    HW144663   2.761   8.779  12.598
47608SOL    HW244664   2.648   8.728  12.684
47609SOL     OW44665  14.338   2.138   5.850
47609SOL    HW144666  14.327   2.232   5.867
47609SOL    HW244667  14.265   2.116   5.793
47610SOL     OW44668   0.892   9.959  12.702
47610SOL    HW144669   0.901  10.021  12.775
47610SOL    HW244670   0.808   9.916  12.718
47611SOL     OW44671   2.855   6.658  10.862
47611SOL    HW144672   2.869   6.742  10.819
47611SOL    HW244673   2.873   6.675  10.955
47612SOL     OW44674   8.363   8.557   6.261
47612SOL    HW144675   8.426   8.556   6.333
47612SOL    HW244676   8.280   8.582   6.301
47613SOL     OW44677  13.094   9.157   3.864
47613SOL    HW144678  13.136   9.148   3.949
47613SOL    HW244679  13.001   9.171   3.884
47614SOL     OW44680   6.429   2.172  10.155
47614SOL    HW144681   6.502   2.111  10.157
47614SOL    HW244682   6.395   2.166  10.065
47615SOL     OW44683  12.504   3.964   7.991
47615SOL    HW144684  12.555   4.035   8.031
47615SOL    HW244685  12.520   3.973   7.897
47616SOL     OW44686  12.656   9.401  10.428
47616SOL    HW144687  12.563   9.424  10.431
47616SOL    HW244688  12.699   9.465  10.484
47617SOL     OW44689   8.406   3.547  12.270
47617SOL    HW144690   8.380   3.629  12.312
47617SOL    HW244691   8.330   3.521  12.218
47618SOL     OW44692   6.582   2.864   4.246
47618SOL    HW144693   6.662   2.911   4.268
47618SOL    HW244694   6.514   2.931   4.242
47619SOL     OW44695   6.499   7.731   4.142
47619SOL    HW144696   6.508   7.653   4.198
47619SOL    HW244697   6.543   7.800   4.190
47620SOL     OW44698  12.626   3.490   0.458
47620SOL    HW144699  12.575   3.569   0.440
47620SOL    HW244700  12.711   3.523   0.489
47621SOL     OW44701   8.922   0.131   9.002
47621SOL    HW144702   8.831   0.126   8.972
47621SOL    HW244703   8.969   0.068   8.947
47622SOL     OW44704   4.617  14.340   9.619
47622SOL    HW144705   4.595  14.311   9.531
47622SOL    HW244706   4.705  14.305   9.634
47623SOL     OW44707   9.461   8.612   9.718
47623SOL    HW144708   9.492   8.542   9.661
47623SOL    HW244709   9.376   8.637   9.683
47624SOL     OW44710  13.709  12.315  14.573
47624SOL    HW144711  13.622  12.306  14.536
47624SOL    HW244712  13.708  12.260  14.651
47625SOL     OW44713   7.758   0.777   6.242
47625SOL    HW144714   7.752   0.814   6.330
47625SOL    HW244715   7.667   0.770   6.213
47626SOL     OW44716  11.362   9.811  10.535
47626SOL    HW144717  11.361   9.896  10.489
47626SOL    HW244718  11.275   9.775  10.520
47627SOL     OW44719  13.361   4.583   0.936
47627SOL    HW144720  13.272   4.563   0.910
47627SOL    HW244721  13.395   4.639   0.867
47628SOL     OW44722   8.057   1.210   4.453
47628SOL    HW144723   8.067   1.147   4.382
47628SOL    HW244724   8.141   1.207   4.500
47629SOL     OW44725   0.050   8.984   5.570
47629SOL    HW144726   0.133   8.954   5.606
47629SOL    HW244727  14.863   8.934   5.618
47630SOL     OW44728   6.692  14.361  12.120
47630SOL    HW144729   6.760  14.427  12.135
47630SOL    HW244730   6.610  14.408  12.131
47631SOL     OW44731   9.509  10.255   4.429
47631SOL    HW144732   9.416  10.261   4.450
47631SOL    HW244733   9.512  10.206   4.347
47632SOL     OW44734  14.514  13.151   3.687
47632SOL    HW144735  14.457  13.147   3.764
47632SOL    HW244736  14.532  13.245   3.676
47633SOL     OW44737  11.582   7.438   4.657
47633SOL    HW144738  11.596   7.385   4.578
47633SOL    HW244739  11.668   7.472   4.679
47634SOL     OW44740   6.287  14.837   5.602
47634SOL    HW144741   6.270  14.747   5.576
47634SOL    HW244742   6.382  14.844   5.605
47635SOL     OW44743  14.173   6.798  14.769
47635SOL    HW144744  14.161   6.887  14.802
47635SOL    HW244745  14.249   6.765  14.817
47636SOL     OW44746   3.078   5.474   8.374
47636SOL    HW144747   3.123   5.557   8.356
47636SOL    HW244748   3.007   5.497   8.434
47637SOL     OW44749   4.313   2.261   0.916
47637SOL    HW144750   4.382   2.317   0.882
47637SOL    HW244751   4.358   2.196   0.970
47638SOL     OW44752   7.366   8.727   6.873
47638SOL    HW144753   7.278   8.691   6.880
47638SOL    HW244754   7.419   8.654   6.842
47639SOL     OW44755  13.490   4.984  14.779
47639SOL    HW144756  13.510   4.990  14.685
47639SOL    HW244757  13.527   4.900  14.806
47640SOL     OW44758   8.341  10.832   0.954
47640SOL    HW144759   8.319  10.764   0.891
47640SOL    HW244760   8.434  10.848   0.940
47641SOL     OW44761   6.771  10.309   9.708
47641SOL    HW144762   6.747  10.225   9.747
47641SOL    HW244763   6.688  10.349   9.684
47642SOL     OW44764   0.766   2.235   5.917
47642SOL    HW144765   0.743   2.322   5.886
47642SOL    HW244766   0.682   2.191   5.930
47643SOL     OW44767   1.382  10.912  14.768
47643SOL    HW144768   1.289  10.919  14.791
47643SOL    HW244769   1.397  10.986  14.710
47644SOL     OW44770   0.262  14.397   5.215
47644SOL    HW144771   0.209  14.458   5.266
47644SOL    HW244772   0.346  14.395   5.260
47645SOL     OW44773  11.832   9.121  13.094
47645SOL    HW144774  11.767   9.190  13.081
47645SOL    HW244775  11.862   9.099  13.006
47646SOL     OW44776   3.270  14.792   6.066
47646SOL    HW144777   3.358  14.808   6.033
47646SOL    HW244778   3.258  14.858   6.135
47647SOL     OW44779  12.531   1.162   9.806
47647SOL    HW144780  12.490   1.163   9.720
47647SOL    HW244781  12.574   1.076   9.811
47648SOL     OW44782   7.353   6.627   5.875
47648SOL    HW144783   7.353   6.573   5.954
47648SOL    HW244784   7.290   6.697   5.894
47649SOL     OW44785   6.009   2.792   4.646
47649SOL    HW144786   6.062   2.870   4.629
47649SOL    HW244787   6.061   2.719   4.610
47650SOL     OW44788   5.837   3.021   2.117
47650SOL    HW144789   5.847   3.014   2.022
47650SOL    HW244790   5.901   2.958   2.152
47651SOL     OW44791  14.235  13.587   4.104
47651SOL    HW144792  14.172  13.525   4.068
47651SOL    HW244793  14.208  13.672   4.068
47652SOL     OW44794   1.098   8.604   1.606
47652SOL    HW144795   1.042   8.616   1.682
47652SOL    HW244796   1.065   8.524   1.564
47653SOL     OW44797  11.788  10.271   7.523
47653SOL    HW144798  11.731  10.298   7.595
47653SOL    HW244799  11.848  10.208   7.563
47654SOL     OW44800   3.501   3.996   9.312
47654SOL    HW144801   3.583   4.008   9.360
47654SOL    HW244802   3.433   3.999   9.380
47655SOL     OW44803  12.944   9.098   5.044
47655SOL    HW144804  12.860   9.064   5.014
47655SOL    HW244805  12.954   9.065   5.133
47656SOL     OW44806  10.355   8.924   4.121
47656SOL    HW144807  10.342   8.904   4.029
47656SOL    HW244808  10.295   8.866   4.168
47657SOL     OW44809  14.766   1.196   1.436
47657SOL    HW144810  14.805   1.160   1.356
47657SOL    HW244811  14.753   1.288   1.417
47658SOL     OW44812  12.436  14.445  14.614
47658SOL    HW144813  12.393  14.387  14.552
47658SOL    HW244814  12.487  14.386  14.671
47659SOL     OW44815   5.279   9.909  13.678
47659SOL    HW144816   5.263   9.987  13.625
47659SOL    HW244817   5.228   9.841  13.635
47660SOL     OW44818   4.497  11.834  12.185
47660SOL    HW144819   4.545  11.861  12.107
47660SOL    HW244820   4.564  11.815  12.250
47661SOL     OW44821  11.235   3.443   8.431
47661SOL    HW144822  11.143   3.434   8.406
47661SOL    HW244823  11.235   3.435   8.527
47662SOL     OW44824   1.779   9.548   4.566
47662SOL    HW144825   1.832   9.473   4.539
47662SOL    HW244826   1.723   9.515   4.636
47663SOL     OW44827   3.884   7.627   4.596
47663SOL    HW144828   3.797   7.589   4.580
47663SOL    HW244829   3.883   7.710   4.549
47664SOL     OW44830  14.566  14.122  13.841
47664SOL    HW144831  14.512  14.193  13.874
47664SOL    HW244832  14.524  14.042  13.874
47665SOL     OW44833   7.465  13.594   3.029
47665SOL    HW144834   7.443  13.678   2.989
47665SOL    HW244835   7.405  13.532   2.989
47666SOL     OW44836   2.498   6.361  13.341
47666SOL    HW144837   2.409   6.357  13.376
47666SOL    HW244838   2.489   6.339  13.249
47667SOL     OW44839   4.308   8.861  11.547
47667SOL    HW144840   4.339   8.777  11.581
47667SOL    HW244841   4.266   8.903  11.622
47668SOL     OW44842   3.058   7.871  10.115
47668SOL    HW144843   3.053   7.959  10.078
47668SOL    HW244844   3.058   7.812  10.039
47669SOL     OW44845  12.499  10.523   8.458
47669SOL    HW144846  12.587  10.557   8.445
47669SOL    HW244847  12.462  10.517   8.370
47670SOL     OW44848  13.352  10.027   3.720
47670SOL    HW144849  13.291  10.021   3.794
47670SOL    HW244850  13.367   9.936   3.695
47671SOL     OW44851  11.110   3.751  13.879
47671SOL    HW144852  11.204   3.757  13.895
47671SOL    HW244853  11.103   3.721  13.789
47672SOL     OW44854   0.429   1.922   6.107
47672SOL    HW144855   0.453   1.830   6.114
47672SOL    HW244856   0.512   1.969   6.102
47673SOL     OW44857   6.367   4.777  14.668
47673SOL    HW144858   6.352   4.843  14.736
47673SOL    HW244859   6.400   4.828  14.593
47674SOL     OW44860  12.569  11.703  13.544
47674SOL    HW144861  12.498  11.659  13.590
47674SOL    HW244862  12.536  11.791  13.526
47675SOL     OW44863  11.428   8.449   4.464
47675SOL    HW144864  11.345   8.461   4.511
47675SOL    HW244865  11.412   8.375   4.406
47676SOL     OW44866   7.611  14.675   5.281
47676SOL    HW144867   7.684  14.615   5.265
47676SOL    HW244868   7.619  14.698   5.374
47677SOL     OW44869  13.276   4.365  13.416
47677SOL    HW144870  13.369   4.344  13.420
47677SOL    HW244871  13.236   4.312  13.484
47678SOL     OW44872   2.522   1.139  10.172
47678SOL    HW144873   2.577   1.184  10.236
47678SOL    HW244874   2.500   1.056  10.212
47679SOL     OW44875  11.208  14.191   2.806
47679SOL    HW144876  11.239  14.183   2.716
47679SOL    HW244877  11.231  14.281   2.831
47680SOL     OW44878   5.591   4.307   2.341
47680SOL    HW144879   5.558   4.222   2.371
47680SOL    HW244880   5.682   4.308   2.369
47681SOL     OW44881   8.347  12.546   6.067
47681SOL    HW144882   8.257  12.523   6.044
47681SOL    HW244883   8.387  12.463   6.095
47682SOL     OW44884  12.657   6.067   2.095
47682SOL    HW144885  12.711   6.132   2.050
47682SOL    HW244886  12.719   6.003   2.129
47683SOL     OW44887   1.821  12.764  14.323
47683SOL    HW144888   1.727  12.762  14.343
47683SOL    HW244889   1.862  12.794  14.404
47684SOL     OW44890   0.525  12.318   9.131
47684SOL    HW144891   0.511  12.225   9.147
47684SOL    HW244892   0.451  12.343   9.074
47685SOL     OW44893   5.035   3.312  13.971
47685SOL    HW144894   5.057   3.338  14.060
47685SOL    HW244895   5.038   3.393  13.921
47686SOL     OW44896   5.205   7.800   9.398
47686SOL    HW144897   5.235   7.880   9.441
47686SOL    HW244898   5.277   7.738   9.410
47687SOL     OW44899   8.601  11.444   2.019
47687SOL    HW144900   8.661  11.488   1.959
47687SOL    HW244901   8.653  11.373   2.057
47688SOL     OW44902   7.777   3.994   8.770
47688SOL    HW144903   7.773   3.951   8.685
47688SOL    HW244904   7.705   3.956   8.820
47689SOL     OW44905   2.781   4.891   9.315
47689SOL    HW144906   2.776   4.833   9.391
47689SOL    HW244907   2.779   4.979   9.353
47690SOL     OW44908  11.139   3.174  10.063
47690SOL    HW144909  11.173   3.251  10.018
47690SOL    HW244910  11.049   3.197  10.087
47691SOL     OW44911  10.144   5.041  11.460
47691SOL    HW144912  10.155   4.946  11.462
47691SOL    HW244913  10.211   5.071  11.399
47692SOL     OW44914   5.407   5.828  10.223
47692SOL    HW144915   5.465   5.895  10.258
47692SOL    HW244916   5.373   5.865  10.142
47693SOL     OW44917   2.503   1.822   7.090
47693SOL    HW144918   2.458   1.791   7.012
47693SOL    HW244919   2.454   1.782   7.163
47694SOL     OW44920   2.026  11.364  13.938
47694SOL    HW144921   2.020  11.279  13.893
47694SOL    HW244922   2.090  11.350  14.008
47695SOL     OW44923   5.884   7.946   3.506
47695SOL    HW144924   5.946   7.948   3.433
47695SOL    HW244925   5.939   7.961   3.583
47696SOL     OW44926   9.664   8.463   2.544
47696SOL    HW144927   9.674   8.383   2.492
47696SOL    HW244928   9.588   8.447   2.600
47697SOL     OW44929   3.608  13.267   9.403
47697SOL    HW144930   3.536  13.294   9.345
47697SOL    HW244931   3.686  13.310   9.366
47698SOL     OW44932  14.394   6.205  12.918
47698SOL    HW144933  14.376   6.182  12.827
47698SOL    HW244934  14.484   6.176  12.932
47699SOL     OW44935  12.946   2.672  11.498
47699SOL    HW144936  12.933   2.626  11.415
47699SOL    HW244937  12.944   2.765  11.475
47700SOL     OW44938   0.141  13.236  11.741
47700SOL    HW144939   0.112  13.324  11.763
47700SOL    HW244940   0.060  13.185  11.736
47701SOL     OW44941   4.251   8.835   9.801
47701SOL    HW144942   4.344   8.854   9.790
47701SOL    HW244943   4.225   8.795   9.718
47702SOL     OW44944   9.483  10.648   2.431
47702SOL    HW144945   9.402  10.667   2.478
47702SOL    HW244946   9.532  10.730   2.432
47703SOL     OW44947   1.755  10.295   9.945
47703SOL    HW144948   1.674  10.245   9.934
47703SOL    HW244949   1.816  10.234   9.986
47704SOL     OW44950   9.986  14.810   1.531
47704SOL    HW144951  10.038   0.008   1.550
47704SOL    HW244952  10.030  14.767   1.458
47705SOL     OW44953  10.025   2.468   6.721
47705SOL    HW144954  10.049   2.525   6.794
47705SOL    HW244955   9.993   2.387   6.762
47706SOL     OW44956   2.633   4.552   5.778
47706SOL    HW144957   2.713   4.530   5.828
47706SOL    HW244958   2.579   4.601   5.840
47707SOL     OW44959   5.437   6.826   2.288
47707SOL    HW144960   5.487   6.906   2.276
47707SOL    HW244961   5.345   6.852   2.282
47708SOL     OW44962   3.090   7.821  13.072
47708SOL    HW144963   3.168   7.828  13.127
47708SOL    HW244964   3.125   7.823  12.982
47709SOL     OW44965  13.774  13.047   6.960
47709SOL    HW144966  13.805  13.138   6.969
47709SOL    HW244967  13.710  13.037   7.031
47710SOL     OW44968   1.085   2.537   2.830
47710SOL    HW144969   1.047   2.461   2.873
47710SOL    HW244970   1.016   2.603   2.829
47711SOL     OW44971   7.143   4.336   2.425
47711SOL    HW144972   7.217   4.288   2.462
47711SOL    HW244973   7.082   4.268   2.397
47712SOL     OW44974   7.967  14.325   8.823
47712SOL    HW144975   7.974  14.400   8.763
47712SOL    HW244976   7.874  14.303   8.822
47713SOL     OW44977   6.527   8.470   0.086
47713SOL    HW144978   6.432   8.479   0.079
47713SOL    HW244979   6.562   8.545   0.038
47714SOL     OW44980   0.638   9.991  13.091
47714SOL    HW144981   0.685   9.915  13.056
47714SOL    HW244982   0.600  10.034  13.015
47715SOL     OW44983   6.908   9.983   9.133
47715SOL    HW144984   6.883  10.073   9.112
47715SOL    HW244985   6.871   9.930   9.063
47716SOL     OW44986  11.782  10.994   4.748
47716SOL    HW144987  11.820  10.942   4.819
47716SOL    HW244988  11.742  10.929   4.690
47717SOL     OW44989  14.728   3.926   6.833
47717SOL    HW144990  14.713   3.834   6.813
47717SOL    HW244991  14.823   3.937   6.829
47718SOL     OW44992   7.933  13.095  13.037
47718SOL    HW144993   7.912  13.064  12.949
47718SOL    HW244994   7.877  13.043  13.095
47719SOL     OW44995  11.912   8.990   5.137
47719SOL    HW144996  11.846   8.973   5.070
47719SOL    HW244997  11.861   9.021   5.213
47720SOL     OW44998   1.224  12.235   8.853
47720SOL    HW144999   1.133  12.241   8.880
47720SOL    HW245000   1.272  12.287   8.917
47721SOL     OW45001   9.246   4.708   7.971
47721SOL    HW145002   9.336   4.730   7.994
47721SOL    HW245003   9.224   4.768   7.899
47722SOL     OW45004   3.977  13.001   4.547
47722SOL    HW145005   3.937  12.932   4.600
47722SOL    HW245006   3.916  13.074   4.553
47723SOL     OW45007   2.643  10.542  11.693
47723SOL    HW145008   2.577  10.535  11.762
47723SOL    HW245009   2.592  10.541  11.612
47724SOL     OW45010  10.192   3.953   4.969
47724SOL    HW145011  10.243   3.879   4.937
47724SOL    HW245012  10.109   3.915   4.997
47725SOL     OW45013  12.965   0.744   7.669
47725SOL    HW145014  12.943   0.679   7.736
47725SOL    HW245015  13.010   0.695   7.601
47726SOL     OW45016   2.166   1.344  10.989
47726SOL    HW145017   2.221   1.310  10.919
47726SOL    HW245018   2.183   1.286  11.063
47727SOL     OW45019  11.677  13.217   9.258
47727SOL    HW145020  11.647  13.126   9.267
47727SOL    HW245021  11.729  13.217   9.177
47728SOL     OW45022   6.904   0.558   0.121
47728SOL    HW145023   6.934   0.647   0.139
47728SOL    HW245024   6.829   0.570   0.062
47729SOL     OW45025   3.481   3.864   2.985
47729SOL    HW145026   3.514   3.953   2.993
47729SOL    HW245027   3.459   3.855   2.892
47730SOL     OW45028   0.858   9.230   4.634
47730SOL    HW145029   0.841   9.314   4.592
47730SOL    HW245030   0.835   9.244   4.726
47731SOL     OW45031   5.833   1.097   0.032
47731SOL    HW145032   5.901   1.165   0.037
47731SOL    HW245033   5.882   1.015   0.038
47732SOL     OW45034   5.441  14.544   5.244
47732SOL    HW145035   5.381  14.521   5.173
47732SOL    HW245036   5.458  14.637   5.233
47733SOL     OW45037   2.023  14.747   9.344
47733SOL    HW145038   2.049  14.721   9.432
47733SOL    HW245039   2.034  14.843   9.343
47734SOL     OW45040   5.923   2.714   1.320
47734SOL    HW145041   5.918   2.801   1.359
47734SOL    HW245042   5.900   2.654   1.391
47735SOL     OW45043   5.997   0.260   4.329
47735SOL    HW145044   5.932   0.189   4.320
47735SOL    HW245045   6.070   0.219   4.376
47736SOL     OW45046  12.580  12.429   5.792
47736SOL    HW145047  12.619  12.418   5.705
47736SOL    HW245048  12.492  12.391   5.784
47737SOL     OW45049   7.819  12.390   3.498
47737SOL    HW145050   7.812  12.304   3.456
47737SOL    HW245051   7.733  12.430   3.484
47738SOL     OW45052  12.581   1.359   2.855
47738SOL    HW145053  12.645   1.326   2.918
47738SOL    HW245054  12.630   1.420   2.800
47739SOL     OW45055   3.639   6.620  13.920
47739SOL    HW145056   3.573   6.690  13.908
47739SOL    HW245057   3.606   6.568  13.992
47740SOL     OW45058  11.907   7.426   4.569
47740SOL    HW145059  11.832   7.381   4.531
47740SOL    HW245060  11.897   7.413   4.664
47741SOL     OW45061   4.871   1.060   0.445
47741SOL    HW145062   4.895   1.057   0.352
47741SOL    HW245063   4.780   1.089   0.445
47742SOL     OW45064   6.060   3.542  10.652
47742SOL    HW145065   6.033   3.463  10.606
47742SOL    HW245066   5.984   3.565  10.706
47743SOL     OW45067   4.672   4.285  11.760
47743SOL    HW145068   4.758   4.308  11.725
47743SOL    HW245069   4.662   4.339  11.838
47744SOL     OW45070   9.910  12.095   5.526
47744SOL    HW145071   9.820  12.065   5.510
47744SOL    HW245072   9.959  12.014   5.543
47745SOL     OW45073  11.312   3.117   8.614
47745SOL    HW145074  11.332   3.056   8.685
47745SOL    HW245075  11.331   3.203   8.650
47746SOL     OW45076   8.327   4.543   8.526
47746SOL    HW145077   8.336   4.497   8.610
47746SOL    HW245078   8.396   4.609   8.527
47747SOL     OW45079   5.592   5.418   7.599
47747SOL    HW145080   5.510   5.397   7.644
47747SOL    HW245081   5.623   5.498   7.643
47748SOL     OW45082  12.775  13.292   3.566
47748SOL    HW145083  12.713  13.364   3.576
47748SOL    HW245084  12.803  13.271   3.655
47749SOL     OW45085   9.289   3.986   5.652
47749SOL    HW145086   9.201   4.021   5.638
47749SOL    HW245087   9.343   4.031   5.587
47750SOL     OW45088   3.865   1.368   7.476
47750SOL    HW145089   3.870   1.440   7.413
47750SOL    HW245090   3.773   1.342   7.475
47751SOL     OW45091  14.489   6.196  11.117
47751SOL    HW145092  14.460   6.280  11.151
47751SOL    HW245093  14.577   6.185  11.155
47752SOL     OW45094  10.485  14.398   4.262
47752SOL    HW145095  10.524  14.469   4.210
47752SOL    HW245096  10.408  14.371   4.213
47753SOL     OW45097   7.268   9.259  10.896
47753SOL    HW145098   7.355   9.277  10.932
47753SOL    HW245099   7.286   9.207  10.817
47754SOL     OW45100   2.204  11.618   6.099
47754SOL    HW145101   2.232  11.540   6.147
47754SOL    HW245102   2.151  11.583   6.027
47755SOL     OW45103   5.979   1.702   4.184
47755SOL    HW145104   6.041   1.755   4.134
47755SOL    HW245105   6.034   1.637   4.228
47756SOL     OW45106   7.232  12.819   2.062
47756SOL    HW145107   7.178  12.894   2.088
47756SOL    HW245108   7.235  12.763   2.139
47757SOL     OW45109  13.306  10.750   4.398
47757SOL    HW145110  13.328  10.822   4.457
47757SOL    HW245111  13.231  10.708   4.439
47758SOL     OW45112  13.770  10.284  14.754
47758SOL    HW145113  13.713  10.273  14.830
47758SOL    HW245114  13.719  10.337  14.693
47759SOL     OW45115  14.439   9.053   0.869
47759SOL    HW145116  14.445   8.996   0.946
47759SOL    HW245117  14.434   9.141   0.905
47760SOL     OW45118  11.275  11.873   9.488
47760SOL    HW145119  11.232  11.788   9.492
47760SOL    HW245120  11.210  11.935   9.520
47761SOL     OW45121  13.331  13.724  11.427
47761SOL    HW145122  13.412  13.681  11.454
47761SOL    HW245123  13.279  13.731  11.507
47762SOL     OW45124   7.073   0.917   2.088
47762SOL    HW145125   7.066   0.916   1.993
47762SOL    HW245126   6.996   0.966   2.117
47763SOL     OW45127  10.853  14.438   1.285
47763SOL    HW145128  10.827  14.346   1.278
47763SOL    HW245129  10.770  14.485   1.292
47764SOL     OW45130   8.422  13.433  10.460
47764SOL    HW145131   8.433  13.367  10.392
47764SOL    HW245132   8.502  13.485  10.455
47765SOL     OW45133  11.026  11.292   5.666
47765SOL    HW145134  11.044  11.351   5.739
47765SOL    HW245135  11.078  11.326   5.593
47766SOL     OW45136   6.357   7.743   8.635
47766SOL    HW145137   6.416   7.723   8.708
47766SOL    HW245138   6.301   7.814   8.669
47767SOL     OW45139  11.241   8.370   0.613
47767SOL    HW145140  11.163   8.425   0.623
47767SOL    HW245141  11.208   8.287   0.581
47768SOL     OW45142   2.122  11.585   7.689
47768SOL    HW145143   2.161  11.646   7.626
47768SOL    HW245144   2.126  11.500   7.647
47769SOL     OW45145   9.545   8.676   1.925
47769SOL    HW145146   9.584   8.672   1.837
47769SOL    HW245147   9.618   8.703   1.982
47770SOL     OW45148  10.765  14.582  13.333
47770SOL    HW145149  10.679  14.568  13.294
47770SOL    HW245150  10.817  14.507  13.303
47771SOL     OW45151  10.284  13.007  10.568
47771SOL    HW145152  10.245  12.941  10.625
47771SOL    HW245153  10.278  13.088  10.618
47772SOL     OW45154   3.428  12.592   6.665
47772SOL    HW145155   3.419  12.559   6.755
47772SOL    HW245156   3.393  12.521   6.611
47773SOL     OW45157   2.410   1.303   3.431
47773SOL    HW145158   2.402   1.277   3.339
47773SOL    HW245159   2.478   1.370   3.430
47774SOL     OW45160   5.187  10.847  11.272
47774SOL    HW145161   5.257  10.908  11.249
47774SOL    HW245162   5.118  10.865  11.208
47775SOL     OW45163   3.780  11.752  14.381
47775SOL    HW145164   3.733  11.833  14.400
47775SOL    HW245165   3.865  11.764  14.423
47776SOL     OW45166   2.112   9.485   6.652
47776SOL    HW145167   2.032   9.462   6.604
47776SOL    HW245168   2.088   9.477   6.744
47777SOL     OW45169   5.655  12.565  10.251
47777SOL    HW145170   5.705  12.642  10.278
47777SOL    HW245171   5.694  12.492  10.299
47778SOL     OW45172  11.604   0.484   2.945
47778SOL    HW145173  11.676   0.489   2.883
47778SOL    HW245174  11.626   0.549   3.012
47779SOL     OW45175   1.626   2.113   8.454
47779SOL    HW145176   1.634   2.037   8.396
47779SOL    HW245177   1.571   2.083   8.526
47780SOL     OW45178   9.790   6.713  13.387
47780SOL    HW145179   9.851   6.663  13.333
47780SOL    HW245180   9.832   6.719  13.473
47781SOL     OW45181   4.414  11.037  12.430
47781SOL    HW145182   4.416  11.127  12.398
47781SOL    HW245183   4.371  11.042  12.516
47782SOL     OW45184  10.254  10.008   8.084
47782SOL    HW145185  10.331   9.958   8.111
47782SOL    HW245186  10.217   9.958   8.012
47783SOL     OW45187   5.210   8.600  10.814
47783SOL    HW145188   5.206   8.689  10.779
47783SOL    HW245189   5.276   8.555  10.761
47784SOL     OW45190   8.593   1.215   9.135
47784SOL    HW145191   8.629   1.200   9.047
47784SOL    HW245192   8.636   1.149   9.189
47785SOL     OW45193  14.069   1.188   6.682
47785SOL    HW145194  14.120   1.107   6.686
47785SOL    HW245195  14.077   1.226   6.769
47786SOL     OW45196  12.910   8.325   3.914
47786SOL    HW145197  12.966   8.279   3.976
47786SOL    HW245198  12.946   8.305   3.828
47787SOL     OW45199  12.483   5.159   0.858
47787SOL    HW145200  12.425   5.151   0.782
47787SOL    HW245201  12.465   5.081   0.910
47788SOL     OW45202   6.807  10.274   5.607
47788SOL    HW145203   6.713  10.255   5.607
47788SOL    HW245204   6.839  10.234   5.688
47789SOL     OW45205  11.139   2.106  10.118
47789SOL    HW145206  11.132   2.053  10.039
47789SOL    HW245207  11.082   2.062  10.182
47790SOL     OW45208  10.080   1.763  14.469
47790SOL    HW145209  10.093   1.837  14.409
47790SOL    HW245210  10.153   1.769  14.530
47791SOL     OW45211   8.529  12.131   0.464
47791SOL    HW145212   8.438  12.108   0.447
47791SOL    HW245213   8.538  12.124   0.559
47792SOL     OW45214   7.704   2.781   5.262
47792SOL    HW145215   7.742   2.868   5.273
47792SOL    HW245216   7.749   2.726   5.326
47793SOL     OW45217   8.781   3.170   1.250
47793SOL    HW145218   8.814   3.233   1.315
47793SOL    HW245219   8.778   3.220   1.168
47794SOL     OW45220   1.349   3.962   0.204
47794SOL    HW145221   1.279   4.018   0.171
47794SOL    HW245222   1.380   4.005   0.283
47795SOL     OW45223   0.147  10.482   1.868
47795SOL    HW145224   0.223  10.429   1.847
47795SOL    HW245225   0.163  10.565   1.824
47796SOL     OW45226  13.479   4.088   4.265
47796SOL    HW145227  13.565   4.048   4.279
47796SOL    HW245228  13.416   4.022   4.291
47797SOL     OW45229   2.628   9.394   9.068
47797SOL    HW145230   2.706   9.450   9.065
47797SOL    HW245231   2.644   9.336   9.143
47798SOL     OW45232   4.093   8.576  12.840
47798SOL    HW145233   4.138   8.519  12.778
47798SOL    HW245234   4.162   8.634  12.872
47799SOL     OW45235   2.665   8.669   5.671
47799SOL    HW145236   2.634   8.638   5.586
47799SOL    HW245237   2.760   8.664   5.665
47800SOL     OW45238   4.878   5.952   0.136
47800SOL    HW145239   4.817   5.920   0.070
47800SOL    HW245240   4.823   5.993   0.203
47801SOL     OW45241   6.760  10.542   5.494
47801SOL    HW145242   6.757  10.462   5.547
47801SOL    HW245243   6.677  10.585   5.511
47802SOL     OW45244  12.999   4.360  12.219
47802SOL    HW145245  13.082   4.364  12.172
47802SOL    HW245246  13.017   4.399  12.304
47803SOL     OW45247  13.806  13.127  10.422
47803SOL    HW145248  13.796  13.114  10.516
47803SOL    HW245249  13.716  13.140  10.390
47804SOL     OW45250   3.250   1.832   0.338
47804SOL    HW145251   3.263   1.927   0.343
47804SOL    HW245252   3.292   1.798   0.416
47805SOL     OW45253   5.653   4.459   2.095
47805SOL    HW145254   5.619   4.387   2.148
47805SOL    HW245255   5.711   4.507   2.155
47806SOL     OW45256   0.336   7.134  14.805
47806SOL    HW145257   0.326   7.063  14.743
47806SOL    HW245258   0.259   7.189  14.792
47807SOL     OW45259  10.584   5.353  11.183
47807SOL    HW145260  10.675   5.346  11.154
47807SOL    HW245261  10.544   5.271  11.155
47808SOL     OW45262   3.502   2.825   0.992
47808SOL    HW145263   3.433   2.856   1.051
47808SOL    HW245264   3.455   2.790   0.916
47809SOL     OW45265   0.105   1.550   1.287
47809SOL    HW145266   0.113   1.645   1.292
47809SOL    HW245267   0.165   1.517   1.354
47810SOL     OW45268   6.326  10.457   5.283
47810SOL    HW145269   6.397  10.411   5.238
47810SOL    HW245270   6.318  10.541   5.238
47811SOL     OW45271   8.636  11.051   1.516
47811SOL    HW145272   8.554  11.100   1.510
47811SOL    HW245273   8.697  11.099   1.460
47812SOL     OW45274   6.924   8.049   8.762
47812SOL    HW145275   7.005   8.020   8.804
47812SOL    HW245276   6.952   8.083   8.677
47813SOL     OW45277   7.776   4.468   7.279
47813SOL    HW145278   7.766   4.391   7.222
47813SOL    HW245279   7.847   4.518   7.240
47814SOL     OW45280   6.722   1.304  14.212
47814SOL    HW145281   6.785   1.361  14.170
47814SOL    HW245282   6.752   1.215  14.191
47815SOL     OW45283   9.706  14.184  10.766
47815SOL    HW145284   9.654  14.104  10.757
47815SOL    HW245285   9.676  14.222  10.848
47816SOL     OW45286   0.251   3.767   3.856
47816SOL    HW145287   0.231   3.687   3.904
47816SOL    HW245288   0.173   3.784   3.803
47817SOL     OW45289   4.777  14.876  11.009
47817SOL    HW145290   4.795   0.018  10.918
47817SOL    HW245291   4.700  14.819  11.006
47818SOL     OW45292  14.382  13.327   3.128
47818SOL    HW145293  14.354  13.419   3.130
47818SOL    HW245294  14.344  13.293   3.046
47819SOL     OW45295   6.098   5.059   1.833
47819SOL    HW145296   6.105   5.081   1.925
47819SOL    HW245297   6.113   4.965   1.829
47820SOL     OW45298   8.110  14.448   0.263
47820SOL    HW145299   8.135  14.356   0.250
47820SOL    HW245300   8.149  14.494   0.189
47821SOL     OW45301   9.441   2.128   9.403
47821SOL    HW145302   9.496   2.132   9.481
47821SOL    HW245303   9.502   2.143   9.331
47822SOL     OW45304   4.133   7.914  11.058
47822SOL    HW145305   4.156   7.892  11.149
47822SOL    HW245306   4.104   7.831  11.021
47823SOL     OW45307   1.655   8.995   2.153
47823SOL    HW145308   1.573   8.961   2.117
47823SOL    HW245309   1.648   9.090   2.142
47824SOL     OW45310   4.419  13.844  10.958
47824SOL    HW145311   4.393  13.935  10.972
47824SOL    HW245312   4.489  13.849  10.893
47825SOL     OW45313   3.420   8.596   9.346
47825SOL    HW145314   3.415   8.644   9.263
47825SOL    HW245315   3.397   8.661   9.412
47826SOL     OW45316   0.288   4.607  11.947
47826SOL    HW145317   0.270   4.631  12.037
47826SOL    HW245318   0.202   4.597  11.906
47827SOL     OW45319  12.534   9.433   1.098
47827SOL    HW145320  12.443   9.425   1.069
47827SOL    HW245321  12.542   9.525   1.124
47828SOL     OW45322   0.645   2.268   3.043
47828SOL    HW145323   0.617   2.185   3.003
47828SOL    HW245324   0.616   2.335   2.981
47829SOL     OW45325  10.855   6.204   6.128
47829SOL    HW145326  10.826   6.220   6.038
47829SOL    HW245327  10.944   6.170   6.119
47830SOL     OW45328  14.608   8.480   7.664
47830SOL    HW145329  14.537   8.446   7.610
47830SOL    HW245330  14.670   8.518   7.602
47831SOL     OW45331  10.807  14.058  12.704
47831SOL    HW145332  10.900  14.076  12.690
47831SOL    HW245333  10.763  14.136  12.670
47832SOL     OW45334   4.100   5.101   5.735
47832SOL    HW145335   4.151   5.079   5.657
47832SOL    HW245336   4.075   5.017   5.772
47833SOL     OW45337   2.786   3.680   5.533
47833SOL    HW145338   2.783   3.773   5.553
47833SOL    HW245339   2.842   3.674   5.455
47834SOL     OW45340   7.969  14.122   8.609
47834SOL    HW145341   7.967  14.197   8.550
47834SOL    HW245342   8.000  14.158   8.692
47835SOL     OW45343  13.525  11.970   0.977
47835SOL    HW145344  13.508  12.009   1.063
47835SOL    HW245345  13.484  12.030   0.915
47836SOL     OW45346   4.936   9.356   5.191
47836SOL    HW145347   4.971   9.267   5.203
47836SOL    HW245348   5.014   9.411   5.185
47837SOL     OW45349  13.124   9.784  13.930
47837SOL    HW145350  13.161   9.866  13.898
47837SOL    HW245351  13.167   9.716  13.878
47838SOL     OW45352   5.112   8.375   2.489
47838SOL    HW145353   5.158   8.368   2.573
47838SOL    HW245354   5.089   8.468   2.483
47839SOL     OW45355  12.247   3.743  11.515
47839SOL    HW145356  12.193   3.821  11.533
47839SOL    HW245357  12.208   3.674  11.568
47840SOL     OW45358   0.126   0.225   7.469
47840SOL    HW145359   0.047   0.182   7.436
47840SOL    HW245360   0.093   0.300   7.519
47841SOL     OW45361   5.967   5.993  13.609
47841SOL    HW145362   6.006   6.064  13.559
47841SOL    HW245363   6.016   5.991  13.691
47842SOL     OW45364   7.851   2.084   4.569
47842SOL    HW145365   7.942   2.102   4.588
47842SOL    HW245366   7.823   2.025   4.639
47843SOL     OW45367  12.327  12.358  10.024
47843SOL    HW145368  12.351  12.353   9.931
47843SOL    HW245369  12.409  12.341  10.070
47844SOL     OW45370  10.229   1.735   9.351
47844SOL    HW145371  10.170   1.726   9.277
47844SOL    HW245372  10.246   1.646   9.381
47845SOL     OW45373   4.156   2.845   5.405
47845SOL    HW145374   4.239   2.893   5.408
47845SOL    HW245375   4.094   2.908   5.368
47846SOL     OW45376   8.639   1.874   1.596
47846SOL    HW145377   8.715   1.932   1.599
47846SOL    HW245378   8.596   1.895   1.513
47847SOL     OW45379   2.380  14.342   9.118
47847SOL    HW145380   2.456  14.398   9.134
47847SOL    HW245381   2.380  14.281   9.191
47848SOL     OW45382   9.655  13.752  13.912
47848SOL    HW145383   9.561  13.766  13.919
47848SOL    HW245384   9.687  13.828  13.864
47849SOL     OW45385   7.224   8.608   3.486
47849SOL    HW145386   7.212   8.691   3.439
47849SOL    HW245387   7.212   8.631   3.579
47850SOL     OW45388   1.953   9.465   5.066
47850SOL    HW145389   1.938   9.458   5.160
47850SOL    HW245390   2.046   9.446   5.055
47851SOL     OW45391  10.396  12.022  14.130
47851SOL    HW145392  10.371  11.935  14.097
47851SOL    HW245393  10.492  12.021  14.129
47852SOL     OW45394  11.154   8.973   5.780
47852SOL    HW145395  11.120   8.897   5.827
47852SOL    HW245396  11.146   8.949   5.688
47853SOL     OW45397   3.422   4.358   8.681
47853SOL    HW145398   3.385   4.329   8.765
47853SOL    HW245399   3.366   4.431   8.654
47854SOL     OW45400   4.303   4.893   7.054
47854SOL    HW145401   4.389   4.865   7.025
47854SOL    HW245402   4.292   4.856   7.141
47855SOL     OW45403   0.794   9.742  14.681
47855SOL    HW145404   0.732   9.674  14.654
47855SOL    HW245405   0.808   9.727  14.774
47856SOL     OW45406   3.975   8.761   2.802
47856SOL    HW145407   3.939   8.849   2.806
47856SOL    HW245408   4.070   8.773   2.813
47857SOL     OW45409   9.836   0.480   8.370
47857SOL    HW145410   9.919   0.440   8.342
47857SOL    HW245411   9.783   0.483   8.291
47858SOL     OW45412   2.037   9.593   4.064
47858SOL    HW145413   2.023   9.664   4.126
47858SOL    HW245414   2.060   9.637   3.982
47859SOL     OW45415   9.571   3.312  12.925
47859SOL    HW145416   9.569   3.241  12.989
47859SOL    HW245417   9.648   3.364  12.949
47860SOL     OW45418  14.870   8.680  11.311
47860SOL    HW145419   0.049   8.693  11.386
47860SOL    HW245420   0.042   8.708  11.236
47861SOL     OW45421   2.609  13.379   3.785
47861SOL    HW145422   2.545  13.446   3.760
47861SOL    HW245423   2.631  13.336   3.702
47862SOL     OW45424  11.660   4.107   3.104
47862SOL    HW145425  11.677   4.197   3.077
47862SOL    HW245426  11.698   4.100   3.191
47863SOL     OW45427   8.177  12.286   7.646
47863SOL    HW145428   8.125  12.206   7.648
47863SOL    HW245429   8.114  12.356   7.664
47864SOL     OW45430  13.331   4.076   6.077
47864SOL    HW145431  13.268   4.021   6.123
47864SOL    HW245432  13.350   4.147   6.139
47865SOL     OW45433  11.102   0.558  13.330
47865SOL    HW145434  11.194   0.582  13.324
47865SOL    HW245435  11.101   0.474  13.376
47866SOL     OW45436  11.495   3.577   0.609
47866SOL    HW145437  11.473   3.550   0.698
47866SOL    HW245438  11.442   3.656   0.595
47867SOL     OW45439   3.494   0.050  10.122
47867SOL    HW145440   3.523  14.840  10.144
47867SOL    HW245441   3.512   0.101  10.200
47868SOL     OW45442   7.830   9.038  14.396
47868SOL    HW145443   7.749   9.066  14.355
47868SOL    HW245444   7.803   8.970  14.458
47869SOL     OW45445   7.769   3.207   0.464
47869SOL    HW145446   7.842   3.197   0.526
47869SOL    HW245447   7.753   3.301   0.460
47870SOL     OW45448  10.834  10.979  11.789
47870SOL    HW145449  10.891  11.053  11.768
47870SOL    HW245450  10.894  10.912  11.822
47871SOL     OW45451  11.215   6.545   0.974
47871SOL    HW145452  11.165   6.563   0.895
47871SOL    HW245453  11.263   6.465   0.955
47872SOL     OW45454  13.765  13.127  14.252
47872SOL    HW145455  13.784  13.088  14.337
47872SOL    HW245456  13.837  13.189  14.237
47873SOL     OW45457  11.547   5.830  13.729
47873SOL    HW145458  11.488   5.905  13.741
47873SOL    HW245459  11.608   5.858  13.662
47874SOL     OW45460   9.642   8.017  14.427
47874SOL    HW145461   9.641   7.940  14.484
47874SOL    HW245462   9.734   8.025  14.400
47875SOL     OW45463   9.910  12.210   9.653
47875SOL    HW145464   9.926  12.287   9.707
47875SOL    HW245465   9.841  12.236   9.593
47876SOL     OW45466   0.181  13.628   7.489
47876SOL    HW145467   0.116  13.696   7.506
47876SOL    HW245468   0.259  13.656   7.538
47877SOL     OW45469   3.628   2.367  13.901
47877SOL    HW145470   3.646   2.424  13.975
47877SOL    HW245471   3.572   2.298  13.937
47878SOL     OW45472   2.592  11.767   1.399
47878SOL    HW145473   2.531  11.703   1.363
47878SOL    HW245474   2.657  11.716   1.446
47879SOL     OW45475  12.321   5.534   6.932
47879SOL    HW145476  12.263   5.596   6.976
47879SOL    HW245477  12.282   5.449   6.949
47880SOL     OW45478   5.621   0.656  11.694
47880SOL    HW145479   5.581   0.571  11.679
47880SOL    HW245480   5.709   0.637  11.727
47881SOL     OW45481   9.819   4.877  13.703
47881SOL    HW145482   9.795   4.970  13.696
47881SOL    HW245483   9.740   4.834  13.735
47882SOL     OW45484  13.973   6.431  12.380
47882SOL    HW145485  13.895   6.481  12.404
47882SOL    HW245486  13.954   6.342  12.408
47883SOL     OW45487   0.774  12.966   3.735
47883SOL    HW145488   0.804  12.912   3.808
47883SOL    HW245489   0.723  13.035   3.775
47884SOL     OW45490   5.820   0.412   9.390
47884SOL    HW145491   5.736   0.367   9.395
47884SOL    HW245492   5.877   0.353   9.341
47885SOL     OW45493  10.111   8.275   4.510
47885SOL    HW145494  10.023   8.311   4.506
47885SOL    HW245495  10.154   8.323   4.581
47886SOL     OW45496   6.614  10.750   5.140
47886SOL    HW145497   6.681  10.783   5.199
47886SOL    HW245498   6.635  10.657   5.129
47887SOL     OW45499   6.634  14.664  13.636
47887SOL    HW145500   6.610  14.579  13.673
47887SOL    HW245501   6.577  14.726  13.681
47888SOL     OW45502   1.864   8.586   3.748
47888SOL    HW145503   1.903   8.672   3.766
47888SOL    HW245504   1.884   8.534   3.825
47889SOL     OW45505   4.892  13.017   5.499
47889SOL    HW145506   4.862  13.010   5.590
47889SOL    HW245507   4.816  13.050   5.451
47890SOL     OW45508  12.825   7.927   0.629
47890SOL    HW145509  12.885   7.994   0.661
47890SOL    HW245510  12.768   7.908   0.704
47891SOL     OW45511   1.899  13.669  10.657
47891SOL    HW145512   1.861  13.647  10.742
47891SOL    HW245513   1.842  13.738  10.623
47892SOL     OW45514  13.939  11.689   9.268
47892SOL    HW145515  13.964  11.641   9.347
47892SOL    HW245516  13.868  11.746   9.298
47893SOL     OW45517   5.893  10.561   3.965
47893SOL    HW145518   5.919  10.478   3.924
47893SOL    HW245519   5.975  10.610   3.975
47894SOL     OW45520  13.106   1.049  12.966
47894SOL    HW145521  13.072   1.008  12.887
47894SOL    HW245522  13.032   1.053  13.026
47895SOL     OW45523   6.659   0.705  11.244
47895SOL    HW145524   6.728   0.761  11.279
47895SOL    HW245525   6.578   0.745  11.275
47896SOL     OW45526   0.577   2.642  13.961
47896SOL    HW145527   0.641   2.571  13.967
47896SOL    HW245528   0.585   2.689  14.043
47897SOL     OW45529   7.958   0.205  12.600
47897SOL    HW145530   8.009   0.280  12.569
47897SOL    HW245531   7.978   0.135  12.537
47898SOL     OW45532   4.354  11.909   2.958
47898SOL    HW145533   4.425  11.941   2.903
47898SOL    HW245534   4.302  11.853   2.901
47899SOL     OW45535   8.880  11.261  11.994
47899SOL    HW145536   8.905  11.199  11.925
47899SOL    HW245537   8.926  11.229  12.072
47900SOL     OW45538  10.614   0.267  12.032
47900SOL    HW145539  10.588   0.184  12.072
47900SOL    HW245540  10.584   0.260  11.941
47901SOL     OW45541   3.688   7.859  13.360
47901SOL    HW145542   3.683   7.821  13.273
47901SOL    HW245543   3.754   7.929  13.352
47902SOL     OW45544  11.798  14.082  10.086
47902SOL    HW145545  11.835  13.994  10.087
47902SOL    HW245546  11.759  14.092  10.173
47903SOL     OW45547   4.152   7.678  13.136
47903SOL    HW145548   4.119   7.666  13.225
47903SOL    HW245549   4.159   7.589  13.100
47904SOL     OW45550  14.095   4.052   8.372
47904SOL    HW145551  14.155   4.080   8.441
47904SOL    HW245552  14.127   3.965   8.346
47905SOL     OW45553   4.870  10.506  12.812
47905SOL    HW145554   4.795  10.534  12.864
47905SOL    HW245555   4.882  10.576  12.748
47906SOL     OW45556   8.173   8.362  10.318
47906SOL    HW145557   8.120   8.387  10.243
47906SOL    HW245558   8.263   8.365  10.286
47907SOL     OW45559  10.587   2.782   6.052
47907SOL    HW145560  10.517   2.720   6.029
47907SOL    HW245561  10.663   2.727   6.070
47908SOL     OW45562  14.375  13.322   7.778
47908SOL    HW145563  14.407  13.234   7.796
47908SOL    HW245564  14.433  13.355   7.710
47909SOL     OW45565  13.216  14.786   9.791
47909SOL    HW145566  13.193  14.867   9.745
47909SOL    HW245567  13.166  14.718   9.746
47910SOL     OW45568   3.505   2.359  10.998
47910SOL    HW145569   3.564   2.287  11.020
47910SOL    HW245570   3.420   2.316  10.985
47911SOL     OW45571  13.890   7.485  10.345
47911SOL    HW145572  13.797   7.476  10.369
47911SOL    HW245573  13.928   7.400  10.367
47912SOL     OW45574   4.030   4.411   5.462
47912SOL    HW145575   4.105   4.426   5.520
47912SOL    HW245576   4.011   4.498   5.424
47913SOL     OW45577  10.854   1.351  13.801
47913SOL    HW145578  10.799   1.272  13.797
47913SOL    HW245579  10.901   1.344  13.884
47914SOL     OW45580   7.544  12.329   4.447
47914SOL    HW145581   7.612  12.397   4.440
47914SOL    HW245582   7.559  12.290   4.534
47915SOL     OW45583   2.654   2.601  11.692
47915SOL    HW145584   2.724   2.662  11.713
47915SOL    HW245585   2.686   2.516  11.723
47916SOL     OW45586  10.618   6.473  10.876
47916SOL    HW145587  10.621   6.378  10.868
47916SOL    HW245588  10.537   6.499  10.833
47917SOL     OW45589   4.732   2.234   5.347
47917SOL    HW145590   4.758   2.144   5.327
47917SOL    HW245591   4.717   2.274   5.261
47918SOL     OW45592   8.640   3.262  11.479
47918SOL    HW145593   8.698   3.187  11.470
47918SOL    HW245594   8.571   3.247  11.415
47919SOL     OW45595   9.339  14.088   5.841
47919SOL    HW145596   9.245  14.106   5.852
47919SOL    HW245597   9.373  14.165   5.797
47920SOL     OW45598   7.282  12.422   4.944
47920SOL    HW145599   7.267  12.499   4.999
47920SOL    HW245600   7.360  12.381   4.982
47921SOL     OW45601  13.489   3.341  11.966
47921SOL    HW145602  13.491   3.308  11.876
47921SOL    HW245603  13.429   3.416  11.963
47922SOL     OW45604  14.492  10.771   7.657
47922SOL    HW145605  14.551  10.846   7.653
47922SOL    HW245606  14.515  10.726   7.739
47923SOL     OW45607   9.343   7.304   6.840
47923SOL    HW145608   9.346   7.253   6.921
47923SOL    HW245609   9.290   7.251   6.781
47924SOL     OW45610  13.090   2.717   4.901
47924SOL    HW145611  13.038   2.665   4.840
47924SOL    HW245612  13.032   2.734   4.975
47925SOL     OW45613   8.841   1.733  13.630
47925SOL    HW145614   8.883   1.741  13.716
47925SOL    HW245615   8.773   1.800  13.630
47926SOL     OW45616   7.216   1.388  14.581
47926SOL    HW145617   7.163   1.319  14.621
47926SOL    HW245618   7.232   1.357  14.492
47927SOL     OW45619   5.797   1.627   9.001
47927SOL    HW145620   5.869   1.686   9.023
47927SOL    HW245621   5.838   1.558   8.949
47928SOL     OW45622   4.754   7.157   8.391
47928SOL    HW145623   4.661   7.171   8.408
47928SOL    HW245624   4.764   7.062   8.385
47929SOL     OW45625   3.643   6.721   8.441
47929SOL    HW145626   3.643   6.676   8.356
47929SOL    HW245627   3.735   6.743   8.457
47930SOL     OW45628   6.998   9.397  13.931
47930SOL    HW145629   6.947   9.337  13.986
47930SOL    HW245630   7.079   9.412  13.979
47931SOL     OW45631   6.566   3.299  12.353
47931SOL    HW145632   6.643   3.268  12.401
47931SOL    HW245633   6.493   3.249  12.389
47932SOL     OW45634   1.507   9.000  14.344
47932SOL    HW145635   1.477   9.089  14.324
47932SOL    HW245636   1.493   8.952  14.262
47933SOL     OW45637   9.727   4.753   4.066
47933SOL    HW145638   9.699   4.726   3.978
47933SOL    HW245639   9.646   4.754   4.117
47934SOL     OW45640   1.511   5.436  12.638
47934SOL    HW145641   1.581   5.438  12.704
47934SOL    HW245642   1.432   5.416  12.688
47935SOL     OW45643  13.472   6.676  11.424
47935SOL    HW145644  13.559   6.708  11.447
47935SOL    HW245645  13.420   6.755  11.411
47936SOL     OW45646   3.899  11.188  11.944
47936SOL    HW145647   3.822  11.208  11.996
47936SOL    HW245648   3.887  11.096  11.918
47937SOL     OW45649   0.279   7.224   7.659
47937SOL    HW145650   0.284   7.297   7.597
47937SOL    HW245651   0.214   7.251   7.723
47938SOL     OW45652   2.162   2.670   6.593
47938SOL    HW145653   2.090   2.612   6.618
47938SOL    HW245654   2.156   2.743   6.655
47939SOL     OW45655  11.221   4.839  14.403
47939SOL    HW145656  11.201   4.747  14.422
47939SOL    HW245657  11.149   4.888  14.444
47940SOL     OW45658   4.984   4.064   3.118
47940SOL    HW145659   5.010   3.973   3.101
47940SOL    HW245660   5.064   4.115   3.103
47941SOL     OW45661   9.933  11.358   6.179
47941SOL    HW145662   9.985  11.295   6.229
47941SOL    HW245663   9.931  11.322   6.090
47942SOL     OW45664   5.616   9.542   0.661
47942SOL    HW145665   5.558   9.473   0.692
47942SOL    HW245666   5.680   9.553   0.732
47943SOL     OW45667   0.085  13.252   4.767
47943SOL    HW145668   0.064  13.187   4.700
47943SOL    HW245669   0.027  13.229   4.841
47944SOL     OW45670  14.641  11.953  14.745
47944SOL    HW145671  14.561  11.902  14.761
47944SOL    HW245672  14.620  12.041  14.775
47945SOL     OW45673  13.276   7.739  10.153
47945SOL    HW145674  13.218   7.702  10.218
47945SOL    HW245675  13.254   7.832  10.150
47946SOL     OW45676   8.749  12.426   5.018
47946SOL    HW145677   8.685  12.428   4.946
47946SOL    HW245678   8.802  12.504   5.004
47947SOL     OW45679  10.060   4.301   0.372
47947SOL    HW145680  10.145   4.333   0.403
47947SOL    HW245681   9.997   4.334   0.437
47948SOL     OW45682   1.424  10.145   4.520
47948SOL    HW145683   1.404  10.186   4.604
47948SOL    HW245684   1.500  10.194   4.487
47949SOL     OW45685  12.076   1.710  14.264
47949SOL    HW145686  12.013   1.722  14.193
47949SOL    HW245687  12.023   1.713  14.344
47950SOL     OW45688   4.706  11.513   2.300
47950SOL    HW145689   4.783  11.549   2.343
47950SOL    HW245690   4.712  11.419   2.317
47951SOL     OW45691   1.277  11.955   8.808
47951SOL    HW145692   1.345  11.953   8.740
47951SOL    HW245693   1.281  12.044   8.842
47952SOL     OW45694   0.347  11.757   7.218
47952SOL    HW145695   0.364  11.759   7.313
47952SOL    HW245696   0.339  11.849   7.194
47953SOL     OW45697   1.547   8.230   9.385
47953SOL    HW145698   1.506   8.229   9.471
47953SOL    HW245699   1.571   8.138   9.370
47954SOL     OW45700   4.789   6.076  13.731
47954SOL    HW145701   4.766   6.085  13.824
47954SOL    HW245702   4.733   6.139  13.686
47955SOL     OW45703   7.485   7.098   5.968
47955SOL    HW145704   7.578   7.101   5.991
47955SOL    HW245705   7.463   7.189   5.947
47956SOL     OW45706  11.038   3.998  14.631
47956SOL    HW145707  11.111   3.984  14.571
47956SOL    HW245708  11.070   3.970  14.716
47957SOL     OW45709   5.648   0.703   4.844
47957SOL    HW145710   5.698   0.775   4.883
47957SOL    HW245711   5.606   0.661   4.919
47958SOL     OW45712  14.816   4.937  10.241
47958SOL    HW145713  14.802   4.847  10.212
47958SOL    HW245714  14.863   4.979  10.169
47959SOL     OW45715   3.165   7.811  13.733
47959SOL    HW145716   3.212   7.829  13.814
47959SOL    HW245717   3.186   7.720  13.713
47960SOL     OW45718  10.117   3.396   1.593
47960SOL    HW145719  10.176   3.392   1.518
47960SOL    HW245720  10.105   3.489   1.611
47961SOL     OW45721  12.340   9.152   6.361
47961SOL    HW145722  12.289   9.211   6.417
47961SOL    HW245723  12.430   9.182   6.371
47962SOL     OW45724   3.369   2.355   3.816
47962SOL    HW145725   3.314   2.279   3.794
47962SOL    HW245726   3.435   2.356   3.747
47963SOL     OW45727   7.694   8.853   4.502
47963SOL    HW145728   7.741   8.772   4.519
47963SOL    HW245729   7.735   8.917   4.561
47964SOL     OW45730  14.393   6.696  10.389
47964SOL    HW145731  14.423   6.740  10.310
47964SOL    HW245732  14.348   6.764  10.439
47965SOL     OW45733   3.837   7.878   9.562
47965SOL    HW145734   3.815   7.859   9.471
47965SOL    HW245735   3.755   7.909   9.600
47966SOL     OW45736   8.022  11.229   0.362
47966SOL    HW145737   7.952  11.280   0.322
47966SOL    HW245738   8.000  11.138   0.343
47967SOL     OW45739  11.703   8.440   5.954
47967SOL    HW145740  11.747   8.411   6.034
47967SOL    HW245741  11.740   8.385   5.885
47968SOL     OW45742   4.548   8.503  12.847
47968SOL    HW145743   4.589   8.569  12.791
47968SOL    HW245744   4.539   8.426  12.791
47969SOL     OW45745   1.603   5.198   4.752
47969SOL    HW145746   1.573   5.244   4.673
47969SOL    HW245747   1.679   5.148   4.723
47970SOL     OW45748  12.981   1.634   0.768
47970SOL    HW145749  12.932   1.596   0.696
47970SOL    HW245750  13.062   1.583   0.771
47971SOL     OW45751   4.151  14.630  12.273
47971SOL    HW145752   4.162  14.589  12.187
47971SOL    HW245753   4.236  14.671  12.291
47972SOL     OW45754   0.748   9.997   6.831
47972SOL    HW145755   0.704  10.073   6.793
47972SOL    HW245756   0.680   9.930   6.837
47973SOL     OW45757   4.873  14.140   6.830
47973SOL    HW145758   4.874  14.047   6.808
47973SOL    HW245759   4.822  14.145   6.911
47974SOL     OW45760  12.697   1.309  10.738
47974SOL    HW145761  12.645   1.311  10.658
47974SOL    HW245762  12.667   1.231  10.784
47975SOL     OW45763  12.972   5.530   9.933
47975SOL    HW145764  13.049   5.557   9.883
47975SOL    HW245765  13.002   5.528  10.024
47976SOL     OW45766   1.375   7.499   9.893
47976SOL    HW145767   1.316   7.424   9.906
47976SOL    HW245768   1.379   7.541   9.979
47977SOL     OW45769  11.923   1.813   5.984
47977SOL    HW145770  11.956   1.729   5.952
47977SOL    HW245771  11.833   1.794   6.012
47978SOL     OW45772   1.015  11.092   5.803
47978SOL    HW145773   1.076  11.018   5.815
47978SOL    HW245774   0.999  11.094   5.709
47979SOL     OW45775   7.299   4.014   8.299
47979SOL    HW145776   7.259   3.964   8.370
47979SOL    HW245777   7.263   4.102   8.309
47980SOL     OW45778   2.462   9.818   2.721
47980SOL    HW145779   2.391   9.877   2.749
47980SOL    HW245780   2.430   9.731   2.743
47981SOL     OW45781   2.627   7.541   6.805
47981SOL    HW145782   2.713   7.500   6.813
47981SOL    HW245783   2.645   7.632   6.782
47982SOL     OW45784   1.641  12.227   0.846
47982SOL    HW145785   1.574  12.291   0.873
47982SOL    HW245786   1.600  12.180   0.774
47983SOL     OW45787  14.497  11.545   9.780
47983SOL    HW145788  14.503  11.485   9.706
47983SOL    HW245789  14.470  11.490   9.854
47984SOL     OW45790   5.960   4.461   5.328
47984SOL    HW145791   5.985   4.369   5.323
47984SOL    HW245792   5.904   4.467   5.405
47985SOL     OW45793  13.457   6.876   3.749
47985SOL    HW145794  13.533   6.933   3.733
47985SOL    HW245795  13.402   6.926   3.808
47986SOL     OW45796   7.824   1.125  14.791
47986SOL    HW145797   7.809   1.078  14.708
47986SOL    HW245798   7.832   1.056  14.857
47987SOL     OW45799   7.248   9.374  14.055
47987SOL    HW145800   7.263   9.284  14.084
47987SOL    HW245801   7.294   9.380  13.971
47988SOL     OW45802   2.747   5.901   4.242
47988SOL    HW145803   2.675   5.945   4.197
47988SOL    HW245804   2.704   5.842   4.304
47989SOL     OW45805   4.542   1.953   1.990
47989SOL    HW145806   4.608   1.925   2.054
47989SOL    HW245807   4.513   1.872   1.949
47990SOL     OW45808   7.471   5.322  10.336
47990SOL    HW145809   7.449   5.238  10.295
47990SOL    HW245810   7.388   5.370  10.336
47991SOL     OW45811  12.998   7.933  12.500
47991SOL    HW145812  12.967   7.877  12.570
47991SOL    HW245813  13.023   7.873  12.430
47992SOL     OW45814   2.872   5.816  10.470
47992SOL    HW145815   2.781   5.806  10.496
47992SOL    HW245816   2.882   5.761  10.393
47993SOL     OW45817   8.441   4.498  10.797
47993SOL    HW145818   8.376   4.566  10.815
47993SOL    HW245819   8.494   4.493  10.877
47994SOL     OW45820   2.297   6.689   3.348
47994SOL    HW145821   2.222   6.746   3.335
47994SOL    HW245822   2.271   6.630   3.418
47995SOL     OW45823  12.609  11.771  13.917
47995SOL    HW145824  12.532  11.774  13.974
47995SOL    HW245825  12.620  11.861  13.886
47996SOL     OW45826   0.497  11.394   1.581
47996SOL    HW145827   0.574  11.368   1.630
47996SOL    HW245828   0.423  11.369   1.636
47997SOL     OW45829  10.731  11.679   6.263
47997SOL    HW145830  10.687  11.594   6.262
47997SOL    HW245831  10.752  11.695   6.355
47998SOL     OW45832   2.471  13.562   0.037
47998SOL    HW145833   2.540  13.515  14.870
47998SOL    HW245834   2.469  13.523   0.124
47999SOL     OW45835   5.150   0.517   8.109
47999SOL    HW145836   5.235   0.550   8.081
47999SOL    HW245837   5.137   0.438   8.057
48000SOL     OW45838  13.346   8.583  12.622
48000SOL    HW145839  13.264   8.579  12.671
48000SOL    HW245840  13.349   8.672  12.588
48001SOL     OW45841   6.142  11.415   4.188
48001SOL    HW145842   6.187  11.424   4.272
48001SOL    HW245843   6.201  11.454   4.124
48002SOL     OW45844  11.986   4.908   8.922
48002SOL    HW145845  11.972   4.815   8.900
48002SOL    HW245846  11.923   4.955   8.867
48003SOL     OW45847   9.841   2.533   7.900
48003SOL    HW145848   9.878   2.517   7.813
48003SOL    HW245849   9.786   2.457   7.917
48004SOL     OW45850   9.530  10.982   7.231
48004SOL    HW145851   9.529  10.915   7.163
48004SOL    HW245852   9.466  11.047   7.202
48005SOL     OW45853   7.343   3.034  13.727
48005SOL    HW145854   7.346   2.960  13.667
48005SOL    HW245855   7.252   3.037  13.756
48006SOL     OW45856   6.798  13.856  11.695
48006SOL    HW145857   6.788  13.766  11.724
48006SOL    HW245858   6.788  13.908  11.775
48007SOL     OW45859   5.463   7.558   2.178
48007SOL    HW145860   5.516   7.496   2.127
48007SOL    HW245861   5.527   7.621   2.212
48008SOL     OW45862   4.552   6.844   0.947
48008SOL    HW145863   4.553   6.750   0.964
48008SOL    HW245864   4.459   6.866   0.936
48009SOL     OW45865  10.429   1.067   6.344
48009SOL    HW145866  10.462   0.978   6.352
48009SOL    HW245867  10.507   1.123   6.349
48010SOL     OW45868   0.082  13.472   7.901
48010SOL    HW145869   0.049  13.552   7.859
48010SOL    HW245870   0.003  13.425   7.929
48011SOL     OW45871   1.124   6.159   4.577
48011SOL    HW145872   1.162   6.214   4.507
48011SOL    HW245873   1.063   6.102   4.531
48012SOL     OW45874   3.056   0.584   9.384
48012SOL    HW145875   3.110   0.662   9.397
48012SOL    HW245876   3.113   0.522   9.339
48013SOL     OW45877   0.781   3.469   9.865
48013SOL    HW145878   0.874   3.482   9.849
48013SOL    HW245879   0.739   3.483   9.780
48014SOL     OW45880   2.481   4.445   5.297
48014SOL    HW145881   2.570   4.413   5.309
48014SOL    HW245882   2.454   4.476   5.384
48015SOL     OW45883   4.910   7.318   5.683
48015SOL    HW145884   4.884   7.228   5.665
48015SOL    HW245885   4.904   7.362   5.599
48016SOL     OW45886   1.815   7.051   7.154
48016SOL    HW145887   1.831   6.981   7.218
48016SOL    HW245888   1.888   7.112   7.167
48017SOL     OW45889   8.527   3.158   9.463
48017SOL    HW145890   8.543   3.064   9.472
48017SOL    HW245891   8.541   3.176   9.370
48018SOL     OW45892  10.257  11.240  10.505
48018SOL    HW145893  10.339  11.193  10.517
48018SOL    HW245894  10.227  11.214  10.418
48019SOL     OW45895  14.590  12.565  11.270
48019SOL    HW145896  14.601  12.647  11.320
48019SOL    HW245897  14.497  12.545  11.277
48020SOL     OW45898   0.088   0.761   4.089
48020SOL    HW145899   0.036   0.842   4.090
48020SOL    HW245900   0.176   0.790   4.064
48021SOL     OW45901   0.384   1.700   3.286
48021SOL    HW145902   0.474   1.679   3.260
48021SOL    HW245903   0.382   1.795   3.289
48022SOL     OW45904   2.743   8.903  13.056
48022SOL    HW145905   2.809   8.957  13.012
48022SOL    HW245906   2.756   8.921  13.149
48023SOL     OW45907  14.115   5.731   9.725
48023SOL    HW145908  14.129   5.820   9.693
48023SOL    HW245909  14.162   5.675   9.663
48024SOL     OW45910  11.005   8.746   4.919
48024SOL    HW145911  10.995   8.788   4.833
48024SOL    HW245912  11.050   8.663   4.900
48025SOL     OW45913   1.706  10.129   2.280
48025SOL    HW145914   1.719  10.046   2.326
48025SOL    HW245915   1.651  10.180   2.339
48026SOL     OW45916   8.698   9.410   0.400
48026SOL    HW145917   8.673   9.329   0.355
48026SOL    HW245918   8.622   9.433   0.453
48027SOL     OW45919  11.876   5.629   6.992
48027SOL    HW145920  11.785   5.655   6.977
48027SOL    HW245921  11.891   5.559   6.928
48028SOL     OW45922  12.243   7.983  11.434
48028SOL    HW145923  12.196   7.929  11.497
48028SOL    HW245924  12.315   8.021  11.483
48029SOL     OW45925   5.040   4.740  10.036
48029SOL    HW145926   5.096   4.793  10.093
48029SOL    HW245927   4.979   4.696  10.095
48030SOL     OW45928   4.575   9.088  10.064
48030SOL    HW145929   4.524   9.159  10.025
48030SOL    HW245930   4.665   9.118  10.060
48031SOL     OW45931  10.569   8.128  10.770
48031SOL    HW145932  10.594   8.198  10.831
48031SOL    HW245933  10.648   8.075  10.761
48032SOL     OW45934  12.772   0.107   0.460
48032SOL    HW145935  12.724   0.067   0.387
48032SOL    HW245936  12.741   0.197   0.462
48033SOL     OW45937   8.106   8.280   6.522
48033SOL    HW145938   8.018   8.256   6.492
48033SOL    HW245939   8.119   8.229   6.602
48034SOL     OW45940   2.598   9.798   7.324
48034SOL    HW145941   2.515   9.751   7.326
48034SOL    HW245942   2.578   9.885   7.359
48035SOL     OW45943   0.322   5.140   0.419
48035SOL    HW145944   0.402   5.105   0.457
48035SOL    HW245945   0.257   5.133   0.490
48036SOL     OW45946   5.909   7.511  10.644
48036SOL    HW145947   5.926   7.463  10.563
48036SOL    HW245948   5.958   7.593  10.633
48037SOL     OW45949   5.930   2.346   2.558
48037SOL    HW145950   5.850   2.371   2.604
48037SOL    HW245951   5.914   2.257   2.529
48038SOL     OW45952   8.468   4.237   9.730
48038SOL    HW145953   8.402   4.209   9.666
48038SOL    HW245954   8.540   4.174   9.719
48039SOL     OW45955   3.324  13.590   5.871
48039SOL    HW145956   3.326  13.538   5.951
48039SOL    HW245957   3.373  13.670   5.892
48040SOL     OW45958  13.491   7.338  10.425
48040SOL    HW145959  13.453   7.269  10.370
48040SOL    HW245960  13.515   7.407  10.364
48041SOL     OW45961   6.215   0.226   7.210
48041SOL    HW145962   6.214   0.131   7.219
48041SOL    HW245963   6.159   0.244   7.135
48042SOL     OW45964   3.392  12.428   1.672
48042SOL    HW145965   3.455  12.494   1.700
48042SOL    HW245966   3.355  12.463   1.590
48043SOL     OW45967  11.262  10.022  10.781
48043SOL    HW145968  11.166  10.020  10.775
48043SOL    HW245969  11.280  10.071  10.861
48044SOL     OW45970   6.762   5.710   8.785
48044SOL    HW145971   6.667   5.705   8.801
48044SOL    HW245972   6.768   5.732   8.692
48045SOL     OW45973  11.394   9.841   2.520
48045SOL    HW145974  11.399   9.775   2.451
48045SOL    HW245975  11.392   9.924   2.472
48046SOL     OW45976   6.958  12.566   9.761
48046SOL    HW145977   7.024  12.629   9.734
48046SOL    HW245978   7.001  12.513   9.829
48047SOL     OW45979  14.847   5.200   6.359
48047SOL    HW145980  14.787   5.200   6.434
48047SOL    HW245981  14.866   5.107   6.344
48048SOL     OW45982   0.724   7.284   5.378
48048SOL    HW145983   0.636   7.313   5.402
48048SOL    HW245984   0.782   7.336   5.433
48049SOL     OW45985   3.407  14.403   3.510
48049SOL    HW145986   3.457  14.391   3.591
48049SOL    HW245987   3.319  14.424   3.540
48050SOL     OW45988   4.738   0.354  14.590
48050SOL    HW145989   4.697   0.417  14.531
48050SOL    HW245990   4.703   0.375  14.677
48051SOL     OW45991   0.712  11.437   7.844
48051SOL    HW145992   0.708  11.532   7.851
48051SOL    HW245993   0.621  11.410   7.838
48052SOL     OW45994   2.629   0.673   5.159
48052SOL    HW145995   2.602   0.590   5.198
48052SOL    HW245996   2.697   0.649   5.096
48053SOL     OW45997   4.692  11.211   0.288
48053SOL    HW145998   4.604  11.235   0.258
48053SOL    HW245999   4.701  11.257   0.372
48054SOL     OW46000  11.134   9.237   2.568
48054SOL    HW146001  11.133   9.162   2.628
48054SOL    HW246002  11.227   9.248   2.546
48055SOL     OW46003   1.704   2.675   8.784
48055SOL    HW146004   1.628   2.625   8.753
48055SOL    HW246005   1.665   2.754   8.823
48056SOL     OW46006  12.285   1.398   8.893
48056SOL    HW146007  12.341   1.321   8.906
48056SOL    HW246008  12.302   1.425   8.803
48057SOL     OW46009   8.263   6.061   3.407
48057SOL    HW146010   8.263   5.996   3.337
48057SOL    HW246011   8.356   6.072   3.428
48058SOL     OW46012   1.601   2.123   1.019
48058SOL    HW146013   1.519   2.094   1.060
48058SOL    HW246014   1.629   2.048   0.967
48059SOL     OW46015  13.075   3.108   6.162
48059SOL    HW146016  13.141   3.157   6.113
48059SOL    HW246017  13.121   3.078   6.240
48060SOL     OW46018   6.193   4.052   5.826
48060SOL    HW146019   6.146   4.065   5.908
48060SOL    HW246020   6.283   4.034   5.852
48061SOL     OW46021   9.325   6.998  11.786
48061SOL    HW146022   9.354   6.919  11.740
48061SOL    HW246023   9.248   7.027  11.737
48062SOL     OW46024   5.013   4.311  10.122
48062SOL    HW146025   5.071   4.254  10.173
48062SOL    HW246026   4.974   4.253  10.056
48063SOL     OW46027   7.013   8.193  13.984
48063SOL    HW146028   6.926   8.153  13.975
48063SOL    HW246029   7.056   8.142  14.052
48064SOL     OW46030   2.575   3.595  11.713
48064SOL    HW146031   2.497   3.646  11.737
48064SOL    HW246032   2.643   3.661  11.697
48065SOL     OW46033  10.839  14.321  13.286
48065SOL    HW146034  10.869  14.310  13.196
48065SOL    HW246035  10.768  14.258  13.296
48066SOL     OW46036  10.902   2.877  10.180
48066SOL    HW146037  10.909   2.818  10.104
48066SOL    HW246038  10.818   2.921  10.167
48067SOL     OW46039   2.621   5.291   7.613
48067SOL    HW146040   2.563   5.217   7.594
48067SOL    HW246041   2.708   5.260   7.590
48068SOL     OW46042   5.944   6.941  11.207
48068SOL    HW146043   5.915   7.027  11.237
48068SOL    HW246044   5.945   6.947  11.112
48069SOL     OW46045  14.270   4.622  12.065
48069SOL    HW146046  14.215   4.559  12.113
48069SOL    HW246047  14.356   4.614  12.107
48070SOL     OW46048   6.657   2.587   8.300
48070SOL    HW146049   6.671   2.523   8.370
48070SOL    HW246050   6.585   2.552   8.249
48071SOL     OW46051   8.821   1.953   3.113
48071SOL    HW146052   8.727   1.935   3.119
48071SOL    HW246053   8.838   1.954   3.018
48072SOL     OW46054  10.374   7.945  13.265
48072SOL    HW146055  10.316   7.968  13.192
48072SOL    HW246056  10.402   7.855  13.246
48073SOL     OW46057   1.587   7.530   2.452
48073SOL    HW146058   1.502   7.514   2.411
48073SOL    HW246059   1.581   7.487   2.538
48074SOL     OW46060  12.841   3.686   5.182
48074SOL    HW146061  12.750   3.658   5.172
48074SOL    HW246062  12.892   3.624   5.130
48075SOL     OW46063   2.565   0.818   5.638
48075SOL    HW146064   2.551   0.820   5.543
48075SOL    HW246065   2.515   0.742   5.668
48076SOL     OW46066  10.878   3.359  12.843
48076SOL    HW146067  10.935   3.291  12.807
48076SOL    HW246068  10.856   3.329  12.931
48077SOL     OW46069  12.116   4.345  12.556
48077SOL    HW146070  12.124   4.251  12.572
48077SOL    HW246071  12.141   4.356  12.464
48078SOL     OW46072   3.506  12.777   2.830
48078SOL    HW146073   3.448  12.783   2.906
48078SOL    HW246074   3.594  12.770   2.867
48079SOL     OW46075  11.181   8.635   1.022
48079SOL    HW146076  11.264   8.623   0.975
48079SOL    HW246077  11.190   8.720   1.064
48080SOL     OW46078   2.586   0.421   6.925
48080SOL    HW146079   2.509   0.463   6.885
48080SOL    HW246080   2.550   0.371   6.998
48081SOL     OW46081   3.239  14.000   7.335
48081SOL    HW146082   3.274  13.976   7.420
48081SOL    HW246083   3.150  14.030   7.353
48082SOL     OW46084  12.285  10.557  13.874
48082SOL    HW146085  12.212  10.502  13.904
48082SOL    HW246086  12.363  10.506  13.895
48083SOL     OW46087   4.944   0.166   1.007
48083SOL    HW146088   4.960   0.086   0.957
48083SOL    HW246089   4.945   0.139   1.098
48084SOL     OW46090   5.428   0.213   8.974
48084SOL    HW146091   5.451   0.174   8.890
48084SOL    HW246092   5.360   0.277   8.953
48085SOL     OW46093  13.716   7.436  12.216
48085SOL    HW146094  13.787   7.490  12.183
48085SOL    HW246095  13.679   7.487  12.288
48086SOL     OW46096   8.824   7.113  14.343
48086SOL    HW146097   8.905   7.109  14.292
48086SOL    HW246098   8.767   7.170  14.292
48087SOL     OW46099   6.105  11.562   4.720
48087SOL    HW146100   6.024  11.536   4.676
48087SOL    HW246101   6.172  11.505   4.683
48088SOL     OW46102   3.422   8.218   7.327
48088SOL    HW146103   3.427   8.308   7.359
48088SOL    HW246104   3.470   8.219   7.244
48089SOL     OW46105  11.961   8.131   2.589
48089SOL    HW146106  12.037   8.142   2.532
48089SOL    HW246107  11.984   8.178   2.669
48090SOL     OW46108  13.604   0.762   1.128
48090SOL    HW146109  13.589   0.694   1.062
48090SOL    HW246110  13.672   0.726   1.185
48091SOL     OW46111   6.692   2.647  12.784
48091SOL    HW146112   6.618   2.587  12.775
48091SOL    HW246113   6.739   2.617  12.862
48092SOL     OW46114  13.699   8.058   4.732
48092SOL    HW146115  13.659   7.976   4.702
48092SOL    HW246116  13.759   8.083   4.661
48093SOL     OW46117  13.304  13.964   0.299
48093SOL    HW146118  13.393  13.972   0.264
48093SOL    HW246119  13.300  13.874   0.333
48094SOL     OW46120   3.291  11.896  13.145
48094SOL    HW146121   3.315  11.816  13.099
48094SOL    HW246122   3.370  11.950  13.141
48095SOL     OW46123   4.089  11.967   5.487
48095SOL    HW146124   4.166  11.981   5.433
48095SOL    HW246125   4.109  12.012   5.569
48096SOL     OW46126   2.942   5.946   9.445
48096SOL    HW146127   2.980   6.031   9.470
48096SOL    HW246128   2.861   5.969   9.399
48097SOL     OW46129   1.201  14.070   2.756
48097SOL    HW146130   1.153  14.031   2.830
48097SOL    HW246131   1.262  14.131   2.797
48098SOL     OW46132  14.128  13.701   3.849
48098SOL    HW146133  14.114  13.749   3.767
48098SOL    HW246134  14.055  13.639   3.853
48099SOL     OW46135   9.124  10.851   7.550
48099SOL    HW146136   9.089  10.895   7.627
48099SOL    HW246137   9.212  10.823   7.576
48100SOL     OW46138  10.278  14.307  10.122
48100SOL    HW146139  10.296  14.317  10.216
48100SOL    HW246140  10.356  14.343  10.079
48101SOL     OW46141   5.793   4.174   9.265
48101SOL    HW146142   5.780   4.261   9.227
48101SOL    HW246143   5.886   4.155   9.249
48102SOL     OW46144   3.764  11.420   6.440
48102SOL    HW146145   3.693  11.484   6.439
48102SOL    HW246146   3.720  11.335   6.439
48103SOL     OW46147   4.175  12.147  10.438
48103SOL    HW146148   4.125  12.116  10.363
48103SOL    HW246149   4.169  12.076  10.502
48104SOL     OW46150   6.595   4.478   3.919
48104SOL    HW146151   6.533   4.543   3.885
48104SOL    HW246152   6.584   4.483   4.014
48105SOL     OW46153   6.813  14.376   1.099
48105SOL    HW146154   6.781  14.347   1.184
48105SOL    HW246155   6.734  14.390   1.047
48106SOL     OW46156   0.340   2.709   4.931
48106SOL    HW146157   0.337   2.801   4.904
48106SOL    HW246158   0.305   2.710   5.021
48107SOL     OW46159  10.926   4.130   6.004
48107SOL    HW146160  11.008   4.098   5.966
48107SOL    HW246161  10.857   4.083   5.957
48108SOL     OW46162   9.750   5.949  11.000
48108SOL    HW146163   9.672   5.983  11.045
48108SOL    HW246164   9.722   5.864  10.964
48109SOL     OW46165   2.047   0.125   9.035
48109SOL    HW146166   2.038   0.086   8.948
48109SOL    HW246167   1.963   0.169   9.050
48110SOL     OW46168   9.638  14.037  12.728
48110SOL    HW146169   9.600  14.105  12.784
48110SOL    HW246170   9.647  13.961  12.785
48111SOL     OW46171   2.673  10.742   3.278
48111SOL    HW146172   2.738  10.692   3.230
48111SOL    HW246173   2.609  10.768   3.212
48112SOL     OW46174  14.695   3.201  11.264
48112SOL    HW146175  14.676   3.169  11.176
48112SOL    HW246176  14.682   3.125  11.321
48113SOL     OW46177   7.950   3.204  11.139
48113SOL    HW146178   7.963   3.123  11.090
48113SOL    HW246179   7.862   3.196  11.176
48114SOL     OW46180  14.376  14.583   2.802
48114SOL    HW146181  14.358  14.514   2.738
48114SOL    HW246182  14.460  14.559   2.841
48115SOL     OW46183   7.631   3.249   7.571
48115SOL    HW146184   7.592   3.247   7.658
48115SOL    HW246185   7.713   3.297   7.582
48116SOL     OW46186   1.729  10.598   9.787
48116SOL    HW146187   1.644  10.564   9.815
48116SOL    HW246188   1.792  10.531   9.814
48117SOL     OW46189   4.920   3.290   7.529
48117SOL    HW146190   4.846   3.271   7.471
48117SOL    HW246191   4.909   3.381   7.554
48118SOL     OW46192   7.398   7.133   0.313
48118SOL    HW146193   7.422   7.159   0.225
48118SOL    HW246194   7.363   7.213   0.353
48119SOL     OW46195   8.912  12.498   4.272
48119SOL    HW146196   8.868  12.558   4.333
48119SOL    HW246197   8.870  12.414   4.287
48120SOL     OW46198  12.331   9.817   7.213
48120SOL    HW146199  12.384   9.769   7.148
48120SOL    HW246200  12.242   9.785   7.199
48121SOL     OW46201   4.528   2.551   7.901
48121SOL    HW146202   4.553   2.510   7.818
48121SOL    HW246203   4.450   2.504   7.929
48122SOL     OW46204   1.717  13.610  13.401
48122SOL    HW146205   1.669  13.669  13.343
48122SOL    HW246206   1.666  13.529  13.401
48123SOL     OW46207   8.758   3.250   7.519
48123SOL    HW146208   8.712   3.276   7.440
48123SOL    HW246209   8.807   3.172   7.494
48124SOL     OW46210  12.841  12.299   8.116
48124SOL    HW146211  12.889  12.333   8.041
48124SOL    HW246212  12.908  12.283   8.183
48125SOL     OW46213  12.187  10.786   4.864
48125SOL    HW146214  12.252  10.803   4.796
48125SOL    HW246215  12.183  10.867   4.915
48126SOL     OW46216   2.433   2.747  10.567
48126SOL    HW146217   2.525   2.772  10.563
48126SOL    HW246218   2.414   2.741  10.660
48127SOL     OW46219  11.666   0.044  14.421
48127SOL    HW146220  11.643   0.124  14.373
48127SOL    HW246221  11.647  14.852  14.360
48128SOL     OW46222   9.704   6.096   4.261
48128SOL    HW146223   9.671   6.183   4.238
48128SOL    HW246224   9.631   6.037   4.243
48129SOL     OW46225   7.551  10.811   8.712
48129SOL    HW146226   7.577  10.728   8.750
48129SOL    HW246227   7.462  10.796   8.682
48130SOL     OW46228   7.724   0.303  14.638
48130SOL    HW146229   7.813   0.323  14.666
48130SOL    HW246230   7.719   0.207  14.640
48131SOL     OW46231   9.237   8.640   9.304
48131SOL    HW146232   9.155   8.682   9.276
48131SOL    HW246233   9.276   8.607   9.223
48132SOL     OW46234   7.733   2.516   4.109
48132SOL    HW146235   7.806   2.471   4.151
48132SOL    HW246236   7.673   2.538   4.181
48133SOL     OW46237   7.806   9.235   2.778
48133SOL    HW146238   7.793   9.180   2.701
48133SOL    HW246239   7.848   9.178   2.842
48134SOL     OW46240   7.295  14.594   3.793
48134SOL    HW146241   7.242  14.643   3.730
48134SOL    HW246242   7.231  14.550   3.849
48135SOL     OW46243  12.877   1.850  14.389
48135SOL    HW146244  12.878   1.892  14.475
48135SOL    HW246245  12.963   1.871  14.351
48136SOL     OW46246   6.525  10.076   1.867
48136SOL    HW146247   6.612  10.114   1.854
48136SOL    HW246248   6.475  10.145   1.912
48137SOL     OW46249  10.162   1.225   0.498
48137SOL    HW146250  10.098   1.264   0.558
48137SOL    HW246251  10.114   1.214   0.416
48138SOL     OW46252  13.433   2.731   8.183
48138SOL    HW146253  13.435   2.676   8.104
48138SOL    HW246254  13.476   2.678   8.250
48139SOL     OW46255   2.547   9.505   2.476
48139SOL    HW146256   2.582   9.485   2.562
48139SOL    HW246257   2.468   9.451   2.469
48140SOL     OW46258   9.733  12.734   6.515
48140SOL    HW146259   9.813  12.695   6.552
48140SOL    HW246260   9.686  12.767   6.591
48141SOL     OW46261   6.961  10.791  10.568
48141SOL    HW146262   6.921  10.733  10.632
48141SOL    HW246263   6.907  10.779  10.489
48142SOL     OW46264   1.449   3.712  14.636
48142SOL    HW146265   1.367   3.737  14.679
48142SOL    HW246266   1.510   3.783  14.658
48143SOL     OW46267   4.816  10.659   9.551
48143SOL    HW146268   4.897  10.607   9.550
48143SOL    HW246269   4.771  10.630   9.630
48144SOL     OW46270   8.145   2.417  11.645
48144SOL    HW146271   8.124   2.408  11.738
48144SOL    HW246272   8.229   2.464  11.644
48145SOL     OW46273  14.062  14.405   2.319
48145SOL    HW146274  14.080  14.332   2.378
48145SOL    HW246275  14.139  14.462   2.327
48146SOL     OW46276   5.854   2.019  12.208
48146SOL    HW146277   5.776   2.001  12.156
48146SOL    HW246278   5.837   1.977  12.293
48147SOL     OW46279   6.942  13.928  14.560
48147SOL    HW146280   7.029  13.962  14.583
48147SOL    HW246281   6.947  13.835  14.581
48148SOL     OW46282  11.442   2.838   2.414
48148SOL    HW146283  11.529   2.871   2.436
48148SOL    HW246284  11.381   2.901   2.452
48149SOL     OW46285   4.340  10.388   3.399
48149SOL    HW146286   4.361  10.297   3.418
48149SOL    HW246287   4.361  10.434   3.481
48150SOL     OW46288  11.371   7.248   4.092
48150SOL    HW146289  11.419   7.277   4.015
48150SOL    HW246290  11.370   7.324   4.150
48151SOL     OW46291   0.899   3.915   5.116
48151SOL    HW146292   0.955   3.838   5.102
48151SOL    HW246293   0.906   3.964   5.034
48152SOL     OW46294   0.219   1.294   7.136
48152SOL    HW146295   0.191   1.378   7.100
48152SOL    HW246296   0.313   1.289   7.115
48153SOL     OW46297  11.539   3.216  14.117
48153SOL    HW146298  11.525   3.176  14.202
48153SOL    HW246299  11.629   3.192  14.094
48154SOL     OW46300   5.064   6.593  11.538
48154SOL    HW146301   5.074   6.596  11.633
48154SOL    HW246302   5.096   6.678  11.508
48155SOL     OW46303   9.843   6.403  11.462
48155SOL    HW146304   9.875   6.326  11.415
48155SOL    HW246305   9.794   6.452  11.396
48156SOL     OW46306   6.035   2.930  12.939
48156SOL    HW146307   6.079   2.995  12.884
48156SOL    HW246308   5.947   2.966  12.954
48157SOL     OW46309  11.037   6.743   0.097
48157SOL    HW146310  11.049   6.802   0.023
48157SOL    HW246311  11.053   6.656   0.062
48158SOL     OW46312   1.954   7.709   1.708
48158SOL    HW146313   1.999   7.682   1.788
48158SOL    HW246314   1.885   7.767   1.738
48159SOL     OW46315   3.977   6.244   4.892
48159SOL    HW146316   3.962   6.335   4.867
48159SOL    HW246317   3.993   6.199   4.809
48160SOL     OW46318   5.699   8.596   2.238
48160SOL    HW146319   5.617   8.630   2.273
48160SOL    HW246320   5.674   8.516   2.192
48161SOL     OW46321   6.304  11.222   9.268
48161SOL    HW146322   6.347  11.214   9.353
48161SOL    HW246323   6.248  11.144   9.262
48162SOL     OW46324  11.495   3.051  14.367
48162SOL    HW146325  11.551   3.054  14.444
48162SOL    HW246326  11.536   2.987  14.309
48163SOL     OW46327  13.285   3.889  12.365
48163SOL    HW146328  13.193   3.878  12.389
48163SOL    HW246329  13.318   3.953  12.428
48164SOL     OW46330  13.675   8.753  14.201
48164SOL    HW146331  13.696   8.742  14.293
48164SOL    HW246332  13.583   8.727  14.193
48165SOL     OW46333   7.774  12.685   4.165
48165SOL    HW146334   7.816  12.698   4.080
48165SOL    HW246335   7.686  12.652   4.143
48166SOL     OW46336  13.525  11.165   7.946
48166SOL    HW146337  13.473  11.099   7.900
48166SOL    HW246338  13.609  11.164   7.899
48167SOL     OW46339  13.724   2.467  11.110
48167SOL    HW146340  13.677   2.419  11.041
48167SOL    HW246341  13.745   2.551  11.070
48168SOL     OW46342  13.049   1.628   4.769
48168SOL    HW146343  12.964   1.585   4.780
48168SOL    HW246344  13.088   1.584   4.694
48169SOL     OW46345   3.516  13.662  10.589
48169SOL    HW146346   3.528  13.628  10.678
48169SOL    HW246347   3.457  13.600  10.547
48170SOL     OW46348   8.889   3.435  10.538
48170SOL    HW146349   8.913   3.493  10.611
48170SOL    HW246350   8.924   3.478  10.460
48171SOL     OW46351   4.333   7.323   9.763
48171SOL    HW146352   4.381   7.377   9.826
48171SOL    HW246353   4.245   7.318   9.799
48172SOL     OW46354   5.437   5.648   5.499
48172SOL    HW146355   5.521   5.602   5.506
48172SOL    HW246356   5.372   5.578   5.493
48173SOL     OW46357   0.207   5.873   8.383
48173SOL    HW146358   0.255   5.830   8.454
48173SOL    HW246359   0.268   5.938   8.349
48174SOL     OW46360   6.796   1.183  12.559
48174SOL    HW146361   6.709   1.218  12.575
48174SOL    HW246362   6.856   1.255  12.581
48175SOL     OW46363   0.776  11.862   3.003
48175SOL    HW146364   0.797  11.891   3.092
48175SOL    HW246365   0.861  11.858   2.959
48176SOL     OW46366  14.008  13.585  13.555
48176SOL    HW146367  13.947  13.521  13.592
48176SOL    HW246368  13.986  13.588  13.462
48177SOL     OW46369  14.038   1.261  12.884
48177SOL    HW146370  13.964   1.226  12.935
48177SOL    HW246371  14.013   1.247  12.793
48178SOL     OW46372   7.426   4.448   4.455
48178SOL    HW146373   7.475   4.504   4.516
48178SOL    HW246374   7.411   4.504   4.378
48179SOL     OW46375  10.107   0.196   8.123
48179SOL    HW146376  10.059   0.193   8.040
48179SOL    HW246377  10.073   0.122   8.173
48180SOL     OW46378  10.333   2.466  13.957
48180SOL    HW146379  10.335   2.407  14.032
48180SOL    HW246380  10.262   2.528  13.977
48181SOL     OW46381   2.256   3.690   0.142
48181SOL    HW146382   2.226   3.780   0.136
48181SOL    HW246383   2.252   3.669   0.236
48182SOL     OW46384  13.448  11.853  10.753
48182SOL    HW146385  13.385  11.806  10.808
48182SOL    HW246386  13.418  11.837  10.663
48183SOL     OW46387   1.268  13.721   8.248
48183SOL    HW146388   1.358  13.746   8.226
48183SOL    HW246389   1.228  13.699   8.164
48184SOL     OW46390  12.104   8.944   9.568
48184SOL    HW146391  12.121   8.905   9.482
48184SOL    HW246392  12.081   9.035   9.549
48185SOL     OW46393   9.613   0.060   0.567
48185SOL    HW146394   9.590  14.847   0.570
48185SOL    HW246395   9.534   0.106   0.596
48186SOL     OW46396   8.019   8.165  14.876
48186SOL    HW146397   8.083   8.105   0.035
48186SOL    HW246398   8.062   8.250  14.878
48187SOL     OW46399   5.483   7.266  13.847
48187SOL    HW146400   5.578   7.271  13.834
48187SOL    HW246401   5.463   7.172  13.841
48188SOL     OW46402  14.221  10.617  12.997
48188SOL    HW146403  14.180  10.701  12.977
48188SOL    HW246404  14.248  10.625  13.088
48189SOL     OW46405   4.273   5.223   8.408
48189SOL    HW146406   4.198   5.279   8.427
48189SOL    HW246407   4.346   5.262   8.457
48190SOL     OW46408  11.694   8.950   6.943
48190SOL    HW146409  11.746   9.022   6.978
48190SOL    HW246410  11.652   8.911   7.019
48191SOL     OW46411  10.545  12.304   4.072
48191SOL    HW146412  10.628  12.350   4.064
48191SOL    HW246413  10.507  12.337   4.153
48192SOL     OW46414   4.932   0.907   8.816
48192SOL    HW146415   4.881   0.841   8.864
48192SOL    HW246416   4.925   0.881   8.724
48193SOL     OW46417   4.925   2.702   6.687
48193SOL    HW146418   4.923   2.747   6.772
48193SOL    HW246419   4.832   2.688   6.665
48194SOL     OW46420   4.929   6.172   3.093
48194SOL    HW146421   4.990   6.121   3.147
48194SOL    HW246422   4.919   6.255   3.139
48195SOL     OW46423   9.494   2.362   4.058
48195SOL    HW146424   9.400   2.346   4.052
48195SOL    HW246425   9.505   2.409   4.141
48196SOL     OW46426   1.106  10.340  12.063
48196SOL    HW146427   1.183  10.297  12.026
48196SOL    HW246428   1.140  10.422  12.100
48197SOL     OW46429   8.049  14.875   0.378
48197SOL    HW146430   8.142  14.876   0.354
48197SOL    HW246431   8.039   0.067   0.440
48198SOL     OW46432  12.712   1.213   8.399
48198SOL    HW146433  12.647   1.212   8.329
48198SOL    HW246434  12.774   1.144   8.375
48199SOL     OW46435  10.653   3.737   2.796
48199SOL    HW146436  10.579   3.757   2.739
48199SOL    HW246437  10.727   3.782   2.756
48200SOL     OW46438   8.682   5.871   3.554
48200SOL    HW146439   8.632   5.893   3.475
48200SOL    HW246440   8.616   5.841   3.617
48201SOL     OW46441   9.693  13.316   5.244
48201SOL    HW146442   9.768  13.280   5.196
48201SOL    HW246443   9.656  13.381   5.185
48202SOL     OW46444   9.077  14.440   0.174
48202SOL    HW146445   9.096  14.385   0.099
48202SOL    HW246446   9.048  14.523   0.137
48203SOL     OW46447   2.316   4.797  11.692
48203SOL    HW146448   2.342   4.724  11.748
48203SOL    HW246449   2.309   4.872  11.752
48204SOL     OW46450  10.086   3.849  12.265
48204SOL    HW146451  10.000   3.891  12.260
48204SOL    HW246452  10.067   3.755  12.267
48205SOL     OW46453   5.136   3.131   7.849
48205SOL    HW146454   5.051   3.129   7.894
48205SOL    HW246455   5.117   3.103   7.760
48206SOL     OW46456   7.219  11.029   1.653
48206SOL    HW146457   7.293  11.079   1.620
48206SOL    HW246458   7.233  10.940   1.620
48207SOL     OW46459  10.833   4.335   3.415
48207SOL    HW146460  10.827   4.368   3.325
48207SOL    HW246461  10.743   4.320   3.441
48208SOL     OW46462   5.645   1.153   5.728
48208SOL    HW146463   5.675   1.185   5.813
48208SOL    HW246464   5.553   1.179   5.723
48209SOL     OW46465  13.870   2.832   9.930
48209SOL    HW146466  13.956   2.809   9.965
48209SOL    HW246467  13.887   2.905   9.871
48210SOL     OW46468  12.131   2.375  14.280
48210SOL    HW146469  12.178   2.294  14.301
48210SOL    HW246470  12.040   2.347  14.267
48211SOL     OW46471   0.238   5.125  11.792
48211SOL    HW146472   0.182   5.194  11.826
48211SOL    HW246473   0.225   5.051  11.851
48212SOL     OW46474   3.244   3.467   8.865
48212SOL    HW146475   3.198   3.501   8.788
48212SOL    HW246476   3.336   3.490   8.850
48213SOL     OW46477  10.466   6.411  11.681
48213SOL    HW146478  10.377   6.384  11.661
48213SOL    HW246479  10.519   6.333  11.664
48214SOL     OW46480   0.775   0.614  14.398
48214SOL    HW146481   0.766   0.678  14.328
48214SOL    HW246482   0.833   0.656  14.462
48215SOL     OW46483  12.061  10.597  10.230
48215SOL    HW146484  12.001  10.670  10.245
48215SOL    HW246485  12.093  10.574  10.317
48216SOL     OW46486   0.673   1.929  13.182
48216SOL    HW146487   0.675   2.025  13.178
48216SOL    HW246488   0.658   1.901  13.092
48217SOL     OW46489  12.787   0.471   6.057
48217SOL    HW146490  12.767   0.435   5.971
48217SOL    HW246491  12.733   0.550   6.063
48218SOL     OW46492   0.276   1.011  13.027
48218SOL    HW146493   0.277   0.917  13.012
48218SOL    HW246494   0.367   1.033  13.050
48219SOL     OW46495   3.851   5.442  14.388
48219SOL    HW146496   3.913   5.500  14.344
48219SOL    HW246497   3.799   5.500  14.444
48220SOL     OW46498   5.058   2.876  12.202
48220SOL    HW146499   4.994   2.814  12.166
48220SOL    HW246500   5.006   2.951  12.229
48221SOL     OW46501  12.374  13.132   9.406
48221SOL    HW146502  12.464  13.129   9.439
48221SOL    HW246503  12.325  13.076   9.466
48222SOL     OW46504   0.631   7.078  14.118
48222SOL    HW146505   0.601   7.072  14.208
48222SOL    HW246506   0.663   7.168  14.109
48223SOL     OW46507   2.716   8.031   2.910
48223SOL    HW146508   2.802   8.021   2.951
48223SOL    HW246509   2.721   8.116   2.867
48224SOL     OW46510  13.168   6.208   5.592
48224SOL    HW146511  13.215   6.279   5.636
48224SOL    HW246512  13.208   6.203   5.505
48225SOL     OW46513   9.740   0.322  14.483
48225SOL    HW146514   9.813   0.284  14.533
48225SOL    HW246515   9.762   0.414  14.475
48226SOL     OW46516   9.707   3.305   8.576
48226SOL    HW146517   9.640   3.307   8.508
48226SOL    HW246518   9.699   3.218   8.615
48227SOL     OW46519   6.019  11.405  14.807
48227SOL    HW146520   6.033  11.446  14.721
48227SOL    HW246521   6.000  11.314  14.787
48228SOL     OW46522   9.796   0.149   6.966
48228SOL    HW146523   9.824   0.138   7.057
48228SOL    HW246524   9.704   0.174   6.972
48229SOL     OW46525   2.380  11.495  11.900
48229SOL    HW146526   2.454  11.539  11.941
48229SOL    HW246527   2.389  11.404  11.927
48230SOL     OW46528  13.675   5.985  14.699
48230SOL    HW146529  13.635   5.900  14.717
48230SOL    HW246530  13.719   6.008  14.781
48231SOL     OW46531   2.279  11.942  12.144
48231SOL    HW146532   2.319  11.918  12.061
48231SOL    HW246533   2.190  11.907  12.139
48232SOL     OW46534   1.000  13.944  12.482
48232SOL    HW146535   0.923  13.987  12.518
48232SOL    HW246536   0.982  13.935  12.388
48233SOL     OW46537   4.026   8.695   4.642
48233SOL    HW146538   4.039   8.646   4.560
48233SOL    HW246539   3.931   8.698   4.654
48234SOL     OW46540   1.813   5.620   4.994
48234SOL    HW146541   1.899   5.590   4.967
48234SOL    HW246542   1.771   5.541   5.030
48235SOL     OW46543   5.143  12.618   3.319
48235SOL    HW146544   5.229  12.647   3.351
48235SOL    HW246545   5.156  12.604   3.225
48236SOL     OW46546   2.853   8.449   6.333
48236SOL    HW146547   2.811   8.530   6.360
48236SOL    HW246548   2.898   8.471   6.251
48237SOL     OW46549   1.429   2.927   7.892
48237SOL    HW146550   1.397   3.017   7.902
48237SOL    HW246551   1.481   2.929   7.811
48238SOL     OW46552  11.633  10.311   3.242
48238SOL    HW146553  11.699  10.241   3.238
48238SOL    HW246554  11.558  10.270   3.285
48239SOL     OW46555   7.191   2.987   9.589
48239SOL    HW146556   7.171   3.081   9.590
48239SOL    HW246557   7.134   2.950   9.655
48240SOL     OW46558   1.658  12.640   2.023
48240SOL    HW146559   1.575  12.614   1.983
48240SOL    HW246560   1.712  12.561   2.019
48241SOL     OW46561   9.489   4.510   6.666
48241SOL    HW146562   9.442   4.444   6.717
48241SOL    HW246563   9.483   4.589   6.720
48242SOL     OW46564   3.901  10.566   2.688
48242SOL    HW146565   3.935  10.652   2.712
48242SOL    HW246566   3.953  10.504   2.738
48243SOL     OW46567  10.548  10.415   3.785
48243SOL    HW146568  10.483  10.413   3.855
48243SOL    HW246569  10.511  10.475   3.720
48244SOL     OW46570   3.437   8.054   4.255
48244SOL    HW146571   3.361   8.110   4.271
48244SOL    HW246572   3.481   8.049   4.340
48245SOL     OW46573  10.209  14.063  14.413
48245SOL    HW146574  10.187  14.127  14.481
48245SOL    HW246575  10.188  13.978  14.451
48246SOL     OW46576   7.111  13.012  11.068
48246SOL    HW146577   7.127  13.033  10.976
48246SOL    HW246578   7.022  12.977  11.070
48247SOL     OW46579  14.504   8.400  13.197
48247SOL    HW146580  14.457   8.434  13.121
48247SOL    HW246581  14.461   8.441  13.273
48248SOL     OW46582   5.356   2.518  10.362
48248SOL    HW146583   5.329   2.609  10.352
48248SOL    HW246584   5.333   2.496  10.453
48249SOL     OW46585   0.822   6.481   1.782
48249SOL    HW146586   0.856   6.415   1.722
48249SOL    HW246587   0.745   6.440   1.822
48250SOL     OW46588   1.089   8.853   5.602
48250SOL    HW146589   1.160   8.808   5.648
48250SOL    HW246590   1.133   8.908   5.538
48251SOL     OW46591   9.715   8.375  11.256
48251SOL    HW146592   9.793   8.405  11.303
48251SOL    HW246593   9.743   8.297  11.209
48252SOL     OW46594   6.472  10.327   8.570
48252SOL    HW146595   6.445  10.280   8.648
48252SOL    HW246596   6.447  10.418   8.586
48253SOL     OW46597   5.666   4.728   5.263
48253SOL    HW146598   5.635   4.771   5.184
48253SOL    HW246599   5.589   4.687   5.301
48254SOL     OW46600   3.220  14.848  13.489
48254SOL    HW146601   3.170  14.781  13.535
48254SOL    HW246602   3.240  14.808  13.404
48255SOL     OW46603   1.588   8.258   0.844
48255SOL    HW146604   1.540   8.215   0.915
48255SOL    HW246605   1.524   8.318   0.806
48256SOL     OW46606   1.669   1.949  12.676
48256SOL    HW146607   1.581   1.987  12.682
48256SOL    HW246608   1.662   1.883  12.607
48257SOL     OW46609  14.865   0.379  10.300
48257SOL    HW146610  14.789   0.357  10.354
48257SOL    HW246611   0.061   0.359  10.355
48258SOL     OW46612   0.977   6.428   0.991
48258SOL    HW146613   0.945   6.476   1.067
48258SOL    HW246614   0.938   6.473   0.916
48259SOL     OW46615  13.546   8.861  13.631
48259SOL    HW146616  13.550   8.765  13.631
48259SOL    HW246617  13.471   8.882  13.686
48260SOL     OW46618  14.811  10.963   8.898
48260SOL    HW146619  14.852  10.876   8.888
48260SOL    HW246620   0.003  11.025   8.882
48261SOL     OW46621   4.417  12.655   2.338
48261SOL    HW146622   4.397  12.591   2.406
48261SOL    HW246623   4.333  12.696   2.318
48262SOL     OW46624  10.852   2.409   3.764
48262SOL    HW146625  10.899   2.348   3.706
48262SOL    HW246626  10.899   2.492   3.754
48263SOL     OW46627   4.798   5.657   0.826
48263SOL    HW146628   4.846   5.593   0.878
48263SOL    HW246629   4.826   5.641   0.736
48264SOL     OW46630   6.126  11.048   5.598
48264SOL    HW146631   6.050  11.003   5.635
48264SOL    HW246632   6.186  11.059   5.672
48265SOL     OW46633   9.907   1.735   8.477
48265SOL    HW146634   9.826   1.709   8.521
48265SOL    HW246635   9.901   1.694   8.391
48266SOL     OW46636  11.621   3.556   1.726
48266SOL    HW146637  11.696   3.555   1.786
48266SOL    HW246638  11.544   3.551   1.783
48267SOL     OW46639  12.955   6.280   8.250
48267SOL    HW146640  12.861   6.271   8.267
48267SOL    HW246641  12.963   6.275   8.155
48268SOL     OW46642  14.492  10.255   3.285
48268SOL    HW146643  14.481  10.279   3.377
48268SOL    HW246644  14.477  10.336   3.236
48269SOL     OW46645   0.020  12.242   7.416
48269SOL    HW146646   0.010  12.300   7.491
48269SOL    HW246647   0.016  12.154   7.453
48270SOL     OW46648   7.848   8.646  10.639
48270SOL    HW146649   7.790   8.587  10.686
48270SOL    HW246650   7.814   8.648  10.549
48271SOL     OW46651   4.088   9.883  12.097
48271SOL    HW146652   4.092   9.852  12.007
48271SOL    HW246653   4.174   9.921  12.114
48272SOL     OW46654   1.362   3.839   9.598
48272SOL    HW146655   1.423   3.767   9.609
48272SOL    HW246656   1.365   3.859   9.504
48273SOL     OW46657   2.599   7.128   3.319
48273SOL    HW146658   2.558   7.210   3.293
48273SOL    HW246659   2.528   7.064   3.322
48274SOL     OW46660  10.278   3.914  13.438
48274SOL    HW146661  10.355   3.962  13.406
48274SOL    HW246662  10.248   3.864  13.361
48275SOL     OW46663  14.118   1.503   6.747
48275SOL    HW146664  14.203   1.461   6.735
48275SOL    HW246665  14.058   1.450   6.694
48276SOL     OW46666   6.855  11.744   3.738
48276SOL    HW146667   6.806  11.676   3.784
48276SOL    HW246668   6.864  11.710   3.649
48277SOL     OW46669   4.114   5.539  12.442
48277SOL    HW146670   4.163   5.524  12.361
48277SOL    HW246671   4.073   5.625  12.430
48278SOL     OW46672   5.730   9.391   5.477
48278SOL    HW146673   5.777   9.346   5.547
48278SOL    HW246674   5.726   9.328   5.406
48279SOL     OW46675   9.890  10.552  10.516
48279SOL    HW146676   9.857  10.517  10.433
48279SOL    HW246677   9.837  10.507  10.583
48280SOL     OW46678   8.664   2.989  10.799
48280SOL    HW146679   8.670   3.078  10.834
48280SOL    HW246680   8.600   2.945  10.855
48281SOL     OW46681   7.832   2.280   9.643
48281SOL    HW146682   7.816   2.323   9.559
48281SOL    HW246683   7.926   2.290   9.657
48282SOL     OW46684  13.918   1.268   7.338
48282SOL    HW146685  14.014   1.275   7.332
48282SOL    HW246686  13.902   1.242   7.429
48283SOL     OW46687   6.118   4.244  10.323
48283SOL    HW146688   6.120   4.237  10.418
48283SOL    HW246689   6.133   4.155  10.292
48284SOL     OW46690   4.751   3.183   7.086
48284SOL    HW146691   4.793   3.267   7.065
48284SOL    HW246692   4.823   3.120   7.084
48285SOL     OW46693   2.245  14.158  14.543
48285SOL    HW146694   2.261  14.106  14.464
48285SOL    HW246695   2.257  14.096  14.615
48286SOL     OW46696   5.333  11.546   6.666
48286SOL    HW146697   5.301  11.507   6.585
48286SOL    HW246698   5.340  11.639   6.647
48287SOL     OW46699   3.372  14.104   5.612
48287SOL    HW146700   3.288  14.079   5.651
48287SOL    HW246701   3.368  14.071   5.523
48288SOL     OW46702  12.348  14.204   9.247
48288SOL    HW146703  12.439  14.196   9.274
48288SOL    HW246704  12.298  14.177   9.324
48289SOL     OW46705   6.726  13.817   4.671
48289SOL    HW146706   6.657  13.874   4.638
48289SOL    HW246707   6.754  13.859   4.753
48290SOL     OW46708   0.868   0.224   4.957
48290SOL    HW146709   0.918   0.269   5.025
48290SOL    HW246710   0.813   0.292   4.919
48291SOL     OW46711  10.047   2.731  13.361
48291SOL    HW146712   9.959   2.699  13.343
48291SOL    HW246713  10.041   2.826  13.352
48292SOL     OW46714   7.008   6.214   1.612
48292SOL    HW146715   7.035   6.127   1.641
48292SOL    HW246716   6.952   6.197   1.535
48293SOL     OW46717  11.724   0.894   5.549
48293SOL    HW146718  11.794   0.959   5.553
48293SOL    HW246719  11.658   0.933   5.491
48294SOL     OW46720   3.544  12.500   3.099
48294SOL    HW146721   3.493  12.581   3.094
48294SOL    HW246722   3.626  12.526   3.141
48295SOL     OW46723  11.272   6.652   9.745
48295SOL    HW146724  11.360   6.633   9.713
48295SOL    HW246725  11.240   6.568   9.779
48296SOL     OW46726   4.396  12.834   4.339
48296SOL    HW146727   4.355  12.856   4.422
48296SOL    HW246728   4.456  12.762   4.359
48297SOL     OW46729  11.410   5.955   8.027
48297SOL    HW146730  11.392   5.863   8.045
48297SOL    HW246731  11.480   5.954   7.962
48298SOL     OW46732   5.490  10.401   0.735
48298SOL    HW146733   5.499  10.310   0.763
48298SOL    HW246734   5.406  10.429   0.771
48299SOL     OW46735   6.183   0.556  14.277
48299SOL    HW146736   6.178   0.638  14.228
48299SOL    HW246737   6.188   0.584  14.369
48300SOL     OW46738   3.745   1.260   2.263
48300SOL    HW146739   3.713   1.196   2.200
48300SOL    HW246740   3.789   1.326   2.210
48301SOL     OW46741   8.526   2.217  10.309
48301SOL    HW146742   8.498   2.126  10.303
48301SOL    HW246743   8.449   2.268  10.283
48302SOL     OW46744  12.615  14.284   5.346
48302SOL    HW146745  12.630  14.332   5.264
48302SOL    HW246746  12.529  14.243   5.334
48303SOL     OW46747   0.663  11.806   3.698
48303SOL    HW146748   0.578  11.800   3.742
48303SOL    HW246749   0.676  11.719   3.661
48304SOL     OW46750  10.471  11.893  11.690
48304SOL    HW146751  10.425  11.975  11.707
48304SOL    HW246752  10.425  11.855  11.615
48305SOL     OW46753  10.268  10.078  12.326
48305SOL    HW146754  10.308  10.010  12.381
48305SOL    HW246755  10.331  10.150  12.329
48306SOL     OW46756   6.901  11.871  14.419
48306SOL    HW146757   6.885  11.847  14.511
48306SOL    HW246758   6.816  11.901  14.388
48307SOL     OW46759   3.026  12.484   4.107
48307SOL    HW146760   3.033  12.484   4.011
48307SOL    HW246761   2.939  12.450   4.125
48308SOL     OW46762   3.502  13.466   3.486
48308SOL    HW146763   3.444  13.437   3.415
48308SOL    HW246764   3.554  13.536   3.447
48309SOL     OW46765   9.293  11.108  11.214
48309SOL    HW146766   9.304  11.203  11.223
48309SOL    HW246767   9.315  11.090  11.122
48310SOL     OW46768   0.154   6.050  13.913
48310SOL    HW146769   0.165   6.093  13.998
48310SOL    HW246770   0.207   5.970  13.919
48311SOL     OW46771  13.157  13.825   2.887
48311SOL    HW146772  13.077  13.802   2.841
48311SOL    HW246773  13.129  13.847   2.976
48312SOL     OW46774  14.097   0.807  12.200
48312SOL    HW146775  14.038   0.881  12.215
48312SOL    HW246776  14.048   0.750  12.141
48313SOL     OW46777   0.526  14.537   2.372
48313SOL    HW146778   0.560  14.576   2.453
48313SOL    HW246779   0.431  14.532   2.386
48314SOL     OW46780  14.123   4.258  13.654
48314SOL    HW146781  14.102   4.170  13.623
48314SOL    HW246782  14.038   4.298  13.672
48315SOL     OW46783   3.700   5.812   6.455
48315SOL    HW146784   3.793   5.787   6.457
48315SOL    HW246785   3.698   5.892   6.403
48316SOL     OW46786   4.248   9.100   1.986
48316SOL    HW146787   4.342   9.116   1.981
48316SOL    HW246788   4.226   9.116   2.077
48317SOL     OW46789   0.493   0.743   8.311
48317SOL    HW146790   0.541   0.826   8.307
48317SOL    HW246791   0.553   0.678   8.276
48318SOL     OW46792   0.524   6.165  11.624
48318SOL    HW146793   0.531   6.079  11.665
48318SOL    HW246794   0.433   6.169  11.592
48319SOL     OW46795   2.770  12.184   3.430
48319SOL    HW146796   2.855  12.174   3.388
48319SOL    HW246797   2.778  12.139   3.513
48320SOL     OW46798  13.098  14.219  12.737
48320SOL    HW146799  13.142  14.223  12.822
48320SOL    HW246800  13.016  14.268  12.749
48321SOL     OW46801  11.883   0.897   9.323
48321SOL    HW146802  11.964   0.930   9.285
48321SOL    HW246803  11.818   0.905   9.253
48322SOL     OW46804   1.457  12.918  11.305
48322SOL    HW146805   1.404  12.866  11.365
48322SOL    HW246806   1.401  12.932  11.229
48323SOL     OW46807   0.402  13.300   6.613
48323SOL    HW146808   0.481  13.249   6.596
48323SOL    HW246809   0.332  13.235   6.618
48324SOL     OW46810   2.431   3.237  12.859
48324SOL    HW146811   2.352   3.258  12.908
48324SOL    HW246812   2.400   3.211  12.772
48325SOL     OW46813   7.036   1.425   3.991
48325SOL    HW146814   7.089   1.499   4.020
48325SOL    HW246815   7.100   1.359   3.963
48326SOL     OW46816   3.055   5.758   9.767
48326SOL    HW146817   3.002   5.731   9.692
48326SOL    HW246818   3.106   5.833   9.735
48327SOL     OW46819  12.298   0.235   0.910
48327SOL    HW146820  12.291   0.327   0.934
48327SOL    HW246821  12.328   0.191   0.990
48328SOL     OW46822   3.437  14.811   1.405
48328SOL    HW146823   3.517  14.794   1.355
48328SOL    HW246824   3.454   0.015   1.450
48329SOL     OW46825   1.963   6.389   1.657
48329SOL    HW146826   2.007   6.407   1.740
48329SOL    HW246827   1.893   6.454   1.652
48330SOL     OW46828   9.598   8.856   9.769
48330SOL    HW146829   9.548   8.775   9.757
48330SOL    HW246830   9.678   8.828   9.814
48331SOL     OW46831   0.099   1.968   7.602
48331SOL    HW146832   0.179   1.957   7.551
48331SOL    HW246833   0.049   2.035   7.556
48332SOL     OW46834   8.198  13.364  14.333
48332SOL    HW146835   8.225  13.324  14.250
48332SOL    HW246836   8.215  13.458  14.321
48333SOL     OW46837   8.578   3.182   2.741
48333SOL    HW146838   8.504   3.208   2.796
48333SOL    HW246839   8.602   3.262   2.694
48334SOL     OW46840   9.371   9.616   8.544
48334SOL    HW146841   9.387   9.599   8.637
48334SOL    HW246842   9.297   9.560   8.521
48335SOL     OW46843  11.493   1.021   2.447
48335SOL    HW146844  11.519   0.938   2.408
48335SOL    HW246845  11.446   1.067   2.377
48336SOL     OW46846   4.764  11.452   1.864
48336SOL    HW146847   4.724  11.458   1.777
48336SOL    HW246848   4.691  11.464   1.925
48337SOL     OW46849   6.407   5.154   8.916
48337SOL    HW146850   6.409   5.248   8.894
48337SOL    HW246851   6.403   5.110   8.831
48338SOL     OW46852  11.213  13.786   0.032
48338SOL    HW146853  11.302  13.817   0.051
48338SOL    HW246854  11.189  13.830  14.830
48339SOL     OW46855   6.400   9.693   9.650
48339SOL    HW146856   6.333   9.724   9.711
48339SOL    HW246857   6.416   9.767   9.591
48340SOL     OW46858   5.139   0.279  11.050
48340SOL    HW146859   5.206   0.340  11.083
48340SOL    HW246860   5.063   0.334  11.035
48341SOL     OW46861   9.371  10.125   5.444
48341SOL    HW146862   9.282  10.159   5.432
48341SOL    HW246863   9.373  10.044   5.393
48342SOL     OW46864  14.546  13.835  11.905
48342SOL    HW146865  14.454  13.851  11.883
48342SOL    HW246866  14.547  13.748  11.944
48343SOL     OW46867   3.948   4.659   1.987
48343SOL    HW146868   3.858   4.670   1.956
48343SOL    HW246869   3.996   4.628   1.910
48344SOL     OW46870  10.433  12.787   2.965
48344SOL    HW146871  10.388  12.864   2.931
48344SOL    HW246872  10.365  12.722   2.976
48345SOL     OW46873  13.403  13.473   9.117
48345SOL    HW146874  13.307  13.478   9.122
48345SOL    HW246875  13.433  13.502   9.203
48346SOL     OW46876  13.252   9.360  14.264
48346SOL    HW146877  13.166   9.327  14.237
48346SOL    HW246878  13.280   9.416  14.192
48347SOL     OW46879   5.658   8.018   3.366
48347SOL    HW146880   5.726   8.014   3.433
48347SOL    HW246881   5.667   7.935   3.318
48348SOL     OW46882   6.164  12.201  10.006
48348SOL    HW146883   6.188  12.233   9.919
48348SOL    HW246884   6.069  12.214  10.010
48349SOL     OW46885   1.596   5.846  12.389
48349SOL    HW146886   1.689   5.844  12.367
48349SOL    HW246887   1.571   5.753  12.396
48350SOL     OW46888   3.459   2.073  13.230
48350SOL    HW146889   3.462   2.140  13.162
48350SOL    HW246890   3.481   2.120  13.310
48351SOL     OW46891  13.470   9.234   1.603
48351SOL    HW146892  13.422   9.316   1.594
48351SOL    HW246893  13.534   9.236   1.531
48352SOL     OW46894  14.798   1.504  10.404
48352SOL    HW146895  14.710   1.521  10.436
48352SOL    HW246896  14.798   1.411  10.381
48353SOL     OW46897   8.464   3.340  13.447
48353SOL    HW146898   8.552   3.303  13.441
48353SOL    HW246899   8.477   3.434  13.434
48354SOL     OW46900   1.454  12.689   0.510
48354SOL    HW146901   1.409  12.618   0.556
48354SOL    HW246902   1.387  12.726   0.453
48355SOL     OW46903   7.463   5.202   2.508
48355SOL    HW146904   7.481   5.122   2.458
48355SOL    HW246905   7.380   5.234   2.474
48356SOL     OW46906   4.337  13.966  13.521
48356SOL    HW146907   4.377  13.880  13.527
48356SOL    HW246908   4.391  14.023  13.575
48357SOL     OW46909   5.038   2.558  11.524
48357SOL    HW146910   5.124   2.538  11.560
48357SOL    HW246911   4.986   2.480  11.541
48358SOL     OW46912  14.844   8.187   9.441
48358SOL    HW146913   0.007   8.221   9.520
48358SOL    HW246914  14.777   8.127   9.473
48359SOL     OW46915   1.870   3.761   6.632
48359SOL    HW146916   1.834   3.808   6.707
48359SOL    HW246917   1.965   3.770   6.643
48360SOL     OW46918   3.616   7.279   8.815
48360SOL    HW146919   3.625   7.312   8.726
48360SOL    HW246920   3.554   7.338   8.857
48361SOL     OW46921   4.161   4.137   0.682
48361SOL    HW146922   4.083   4.095   0.645
48361SOL    HW246923   4.199   4.185   0.608
48362SOL     OW46924   0.620  13.173   8.075
48362SOL    HW146925   0.648  13.115   8.146
48362SOL    HW246926   0.651  13.130   7.996
48363SOL     OW46927   0.518  10.781  10.850
48363SOL    HW146928   0.424  10.767  10.838
48363SOL    HW246929   0.526  10.873  10.875
48364SOL     OW46930   8.950   8.937   3.548
48364SOL    HW146931   8.934   8.879   3.623
48364SOL    HW246932   8.972   8.878   3.476
48365SOL     OW46933  12.006  11.026   6.340
48365SOL    HW146934  12.021  10.960   6.272
48365SOL    HW246935  12.072  11.008   6.407
48366SOL     OW46936   2.981   0.507  10.532
48366SOL    HW146937   2.998   0.549  10.616
48366SOL    HW246938   3.049   0.541  10.474
48367SOL     OW46939   1.785  14.683  13.208
48367SOL    HW146940   1.696  14.679  13.173
48367SOL    HW246941   1.784  14.623  13.282
48368SOL     OW46942   6.019   3.289  10.515
48368SOL    HW146943   6.011   3.212  10.572
48368SOL    HW246944   5.945   3.281  10.454
48369SOL     OW46945  11.570   9.052  13.773
48369SOL    HW146946  11.560   9.128  13.715
48369SOL    HW246947  11.642   9.075  13.831
48370SOL     OW46948  10.027   8.525  11.136
48370SOL    HW146949  10.101   8.464  11.127
48370SOL    HW246950  10.065   8.602  11.179
48371SOL     OW46951   1.545   0.172  12.156
48371SOL    HW146952   1.548   0.266  12.136
48371SOL    HW246953   1.544   0.129  12.070
48372SOL     OW46954   3.369   1.074   0.902
48372SOL    HW146955   3.412   1.005   0.851
48372SOL    HW246956   3.314   1.027   0.965
48373SOL     OW46957   5.470  11.542   8.058
48373SOL    HW146958   5.525  11.595   8.116
48373SOL    HW246959   5.421  11.606   8.006
48374SOL     OW46960   4.219  11.296  14.527
48374SOL    HW146961   4.165  11.375  14.532
48374SOL    HW246962   4.306  11.325  14.555
48375SOL     OW46963  10.816   4.718   1.861
48375SOL    HW146964  10.857   4.677   1.937
48375SOL    HW246965  10.864   4.800   1.849
48376SOL     OW46966  13.916   2.468  12.777
48376SOL    HW146967  13.932   2.426  12.692
48376SOL    HW246968  13.821   2.476  12.782
48377SOL     OW46969  14.757  12.958   7.167
48377SOL    HW146970  14.686  12.897   7.189
48377SOL    HW246971  14.825  12.940   7.232
48378SOL     OW46972   2.900   0.171   8.437
48378SOL    HW146973   2.825   0.132   8.481
48378SOL    HW246974   2.945   0.222   8.505
48379SOL     OW46975   7.302   0.118  10.090
48379SOL    HW146976   7.384   0.072  10.071
48379SOL    HW246977   7.257   0.124  10.006
48380SOL     OW46978   6.107   0.154  12.759
48380SOL    HW146979   6.034   0.111  12.804
48380SOL    HW246980   6.095   0.131  12.667
48381SOL     OW46981   2.796   3.845   3.558
48381SOL    HW146982   2.777   3.909   3.627
48381SOL    HW246983   2.887   3.863   3.534
48382SOL     OW46984   8.582   8.021   3.892
48382SOL    HW146985   8.629   8.097   3.857
48382SOL    HW246986   8.490   8.048   3.893
48383SOL     OW46987   8.805  14.744  11.803
48383SOL    HW146988   8.816  14.720  11.711
48383SOL    HW246989   8.710  14.743  11.816
48384SOL     OW46990  10.728   8.763   7.879
48384SOL    HW146991  10.656   8.786   7.820
48384SOL    HW246992  10.693   8.694   7.934
48385SOL     OW46993   9.309   9.992  10.200
48385SOL    HW146994   9.286   9.944  10.120
48385SOL    HW246995   9.376   9.938  10.242
48386SOL     OW46996   7.184  11.208  14.032
48386SOL    HW146997   7.121  11.196  14.104
48386SOL    HW246998   7.135  11.189  13.953
48387SOL     OW46999  12.178   1.940   1.018
48387SOL    HW147000  12.259   1.897   0.990
48387SOL    HW247001  12.168   1.914   1.110
48388SOL     OW47002   0.207  14.417   8.946
48388SOL    HW147003   0.174  14.441   9.032
48388SOL    HW247004   0.245  14.330   8.958
48389SOL     OW47005   3.396  12.157   8.631
48389SOL    HW147006   3.456  12.205   8.573
48389SOL    HW247007   3.334  12.224   8.662
48390SOL     OW47008   4.322  12.961  13.895
48390SOL    HW147009   4.251  13.006  13.850
48390SOL    HW247010   4.283  12.927  13.975
48391SOL     OW47011  12.249  13.033   1.790
48391SOL    HW147012  12.311  13.058   1.859
48391SOL    HW247013  12.235  12.940   1.802
48392SOL     OW47014   4.453   6.790  13.929
48392SOL    HW147015   4.526   6.834  13.973
48392SOL    HW247016   4.480   6.783  13.838
48393SOL     OW47017  11.889   2.808   2.379
48393SOL    HW147018  11.794   2.806   2.391
48393SOL    HW247019  11.906   2.892   2.336
48394SOL     OW47020   6.155  10.773  14.209
48394SOL    HW147021   6.156  10.837  14.280
48394SOL    HW247022   6.073  10.791  14.162
48395SOL     OW47023  12.266   8.001   5.479
48395SOL    HW147024  12.280   7.906   5.472
48395SOL    HW247025  12.180   8.009   5.520
48396SOL     OW47026   0.785   2.538   2.739
48396SOL    HW147027   0.778   2.626   2.703
48396SOL    HW247028   0.804   2.552   2.832
48397SOL     OW47029  14.702  13.154  10.746
48397SOL    HW147030  14.776  13.094  10.757
48397SOL    HW247031  14.644  13.133  10.819
48398SOL     OW47032   3.156   5.658   7.632
48398SOL    HW147033   3.103   5.585   7.664
48398SOL    HW247034   3.146   5.726   7.698
48399SOL     OW47035  10.941  13.025  13.884
48399SOL    HW147036  10.983  12.968  13.949
48399SOL    HW247037  10.903  13.096  13.935
48400SOL     OW47038  10.925   4.489  12.177
48400SOL    HW147039  10.934   4.405  12.132
48400SOL    HW247040  10.841   4.524  12.148
48401SOL     OW47041   1.146  11.337   6.227
48401SOL    HW147042   1.088  11.379   6.290
48401SOL    HW247043   1.087  11.293   6.165
48402SOL     OW47044   0.603   6.069   7.906
48402SOL    HW147045   0.531   6.010   7.929
48402SOL    HW247046   0.678   6.011   7.894
48403SOL     OW47047   8.407  10.160   2.730
48403SOL    HW147048   8.324  10.172   2.684
48403SOL    HW247049   8.419  10.241   2.779
48404SOL     OW47050   3.247   7.103  12.188
48404SOL    HW147051   3.275   7.047  12.116
48404SOL    HW247052   3.326   7.116  12.241
48405SOL     OW47053   7.021   6.788  10.641
48405SOL    HW147054   6.973   6.722  10.690
48405SOL    HW247055   7.113   6.764  10.649
48406SOL     OW47056   0.429  11.282  12.569
48406SOL    HW147057   0.454  11.205  12.621
48406SOL    HW247058   0.444  11.356  12.627
48407SOL     OW47059  12.065   6.556  10.175
48407SOL    HW147060  12.159   6.538  10.180
48407SOL    HW247061  12.038   6.571  10.265
48408SOL     OW47062   5.002   1.604   8.049
48408SOL    HW147063   4.995   1.607   8.144
48408SOL    HW247064   5.039   1.518   8.030
48409SOL     OW47065  14.126  14.210  10.416
48409SOL    HW147066  14.087  14.210  10.503
48409SOL    HW247067  14.140  14.118  10.396
48410SOL     OW47068  13.750  13.386  13.342
48410SOL    HW147069  13.837  13.356  13.317
48410SOL    HW247070  13.755  13.396  13.437
48411SOL     OW47071   0.130  14.708  10.387
48411SOL    HW147072   0.196  14.692  10.454
48411SOL    HW247073   0.098  14.620  10.363
48412SOL     OW47074   0.416   5.370   4.239
48412SOL    HW147075   0.467   5.428   4.295
48412SOL    HW247076   0.474   5.296   4.222
48413SOL     OW47077  11.187   9.204   9.879
48413SOL    HW147078  11.158   9.225   9.967
48413SOL    HW247079  11.170   9.284   9.828
48414SOL     OW47080   0.404   5.225   7.213
48414SOL    HW147081   0.364   5.150   7.168
48414SOL    HW247082   0.381   5.300   7.159
48415SOL     OW47083   5.710   8.463  11.383
48415SOL    HW147084   5.736   8.550  11.413
48415SOL    HW247085   5.693   8.474  11.290
48416SOL     OW47086   4.155   4.615   5.717
48416SOL    HW147087   4.208   4.671   5.773
48416SOL    HW247088   4.218   4.571   5.660
48417SOL     OW47089   0.739   8.134   2.582
48417SOL    HW147090   0.777   8.194   2.645
48417SOL    HW247091   0.653   8.112   2.617
48418SOL     OW47092   5.084   8.196  13.859
48418SOL    HW147093   5.101   8.268  13.798
48418SOL    HW247094   4.989   8.189  13.863
48419SOL     OW47095   1.803   5.532  10.409
48419SOL    HW147096   1.876   5.581  10.447
48419SOL    HW247097   1.769   5.479  10.480
48420SOL     OW47098  10.339  11.836   1.055
48420SOL    HW147099  10.353  11.785   1.135
48420SOL    HW247100  10.253  11.875   1.066
48421SOL     OW47101   5.043   0.988   5.109
48421SOL    HW147102   5.092   0.906   5.113
48421SOL    HW247103   5.110   1.056   5.100
48422SOL     OW47104   5.483   1.651  11.976
48422SOL    HW147105   5.565   1.671  12.020
48422SOL    HW247106   5.423   1.625  12.046
48423SOL     OW47107   1.776   7.751   8.030
48423SOL    HW147108   1.769   7.659   8.006
48423SOL    HW247109   1.835   7.789   7.965
48424SOL     OW47110  12.154   8.266  10.315
48424SOL    HW147111  12.059   8.254  10.318
48424SOL    HW247112  12.168   8.322  10.239
48425SOL     OW47113  12.405  13.786   0.940
48425SOL    HW147114  12.438  13.705   0.903
48425SOL    HW247115  12.454  13.855   0.895
48426SOL     OW47116   3.221   9.391   2.524
48426SOL    HW147117   3.168   9.343   2.589
48426SOL    HW247118   3.156   9.436   2.470
48427SOL     OW47119  14.867   9.050  11.555
48427SOL    HW147120  14.793   9.000  11.588
48427SOL    HW247121   0.064   9.011  11.599
48428SOL     OW47122  14.601   5.398   4.969
48428SOL    HW147123  14.540   5.435   4.906
48428SOL    HW247124  14.624   5.471   5.027
48429SOL     OW47125   4.442   5.167   1.167
48429SOL    HW147126   4.389   5.136   1.240
48429SOL    HW247127   4.453   5.090   1.111
48430SOL     OW47128  11.127   3.586  14.585
48430SOL    HW147129  11.188   3.612  14.517
48430SOL    HW247130  11.040   3.595  14.544
48431SOL     OW47131  10.598   5.187  12.554
48431SOL    HW147132  10.674   5.161  12.501
48431SOL    HW247133  10.546   5.108  12.562
48432SOL     OW47134   8.899   2.930   5.924
48432SOL    HW147135   8.912   2.940   6.018
48432SOL    HW247136   8.987   2.928   5.887
48433SOL     OW47137  11.481  11.480   0.392
48433SOL    HW147138  11.474  11.412   0.459
48433SOL    HW247139  11.485  11.431   0.310
48434SOL     OW47140  12.676   1.440   4.343
48434SOL    HW147141  12.703   1.487   4.422
48434SOL    HW247142  12.747   1.454   4.281
48435SOL     OW47143   3.255   3.185   3.243
48435SOL    HW147144   3.339   3.215   3.278
48435SOL    HW247145   3.262   3.198   3.149
48436SOL     OW47146   5.869   4.367  14.329
48436SOL    HW147147   5.860   4.422  14.406
48436SOL    HW247148   5.923   4.418  14.269
48437SOL     OW47149   3.883  13.502   6.787
48437SOL    HW147150   3.824  13.426   6.788
48437SOL    HW247151   3.945  13.485   6.858
48438SOL     OW47152  11.175   5.530   4.617
48438SOL    HW147153  11.151   5.513   4.526
48438SOL    HW247154  11.134   5.614   4.637
48439SOL     OW47155  11.055   2.577   4.307
48439SOL    HW147156  11.015   2.639   4.368
48439SOL    HW247157  11.055   2.493   4.354
48440SOL     OW47158   3.856   8.134   4.856
48440SOL    HW147159   3.775   8.135   4.806
48440SOL    HW247160   3.913   8.196   4.810
48441SOL     OW47161   2.042  10.296   7.939
48441SOL    HW147162   1.972  10.286   8.003
48441SOL    HW247163   2.002  10.272   7.855
48442SOL     OW47164  10.356   5.331   6.726
48442SOL    HW147165  10.336   5.404   6.784
48442SOL    HW247166  10.287   5.332   6.660
48443SOL     OW47167  10.284   1.484  12.678
48443SOL    HW147168  10.239   1.410  12.636
48443SOL    HW247169  10.359   1.445  12.722
48444SOL     OW47170   0.858  10.367   5.356
48444SOL    HW147171   0.817  10.452   5.339
48444SOL    HW247172   0.952  10.387   5.364
48445SOL     OW47173  10.581  14.445   9.080
48445SOL    HW147174  10.674  14.427   9.090
48445SOL    HW247175  10.561  14.418   8.990
48446SOL     OW47176   0.530   9.876  12.092
48446SOL    HW147177   0.514   9.970  12.085
48446SOL    HW247178   0.482   9.850  12.171
48447SOL     OW47179   9.962  10.927   1.095
48447SOL    HW147180   9.968  10.881   1.179
48447SOL    HW247181  10.053  10.941   1.069
48448SOL     OW47182   1.692  10.541   8.620
48448SOL    HW147183   1.639  10.525   8.542
48448SOL    HW247184   1.773  10.491   8.604
48449SOL     OW47185  13.798   3.695   8.175
48449SOL    HW147186  13.741   3.691   8.252
48449SOL    HW247187  13.748   3.653   8.106
48450SOL     OW47188  13.452  11.733  14.262
48450SOL    HW147189  13.519  11.758  14.198
48450SOL    HW247190  13.377  11.708  14.209
48451SOL     OW47191   1.234   2.683   3.021
48451SOL    HW147192   1.321   2.647   3.001
48451SOL    HW247193   1.182   2.663   2.943
48452SOL     OW47194   0.837   6.814   4.280
48452SOL    HW147195   0.865   6.725   4.261
48452SOL    HW247196   0.915   6.857   4.317
48453SOL     OW47197  11.175  11.438   2.024
48453SOL    HW147198  11.193  11.524   1.987
48453SOL    HW247199  11.253  11.386   2.002
48454SOL     OW47200   7.018  14.336   8.305
48454SOL    HW147201   6.968  14.405   8.349
48454SOL    HW247202   7.109  14.363   8.315
48455SOL     OW47203   0.238   0.306   3.387
48455SOL    HW147204   0.154   0.301   3.432
48455SOL    HW247205   0.248   0.398   3.364
48456SOL     OW47206   6.777  13.633   0.868
48456SOL    HW147207   6.704  13.596   0.819
48456SOL    HW247208   6.754  13.621   0.960
48457SOL     OW47209   1.557  10.173   7.660
48457SOL    HW147210   1.606  10.150   7.739
48457SOL    HW247211   1.616  10.147   7.588
48458SOL     OW47212  12.961  13.102   1.683
48458SOL    HW147213  12.895  13.043   1.716
48458SOL    HW247214  12.920  13.189   1.686
48459SOL     OW47215   6.283  14.033   0.530
48459SOL    HW147216   6.288  14.044   0.435
48459SOL    HW247217   6.196  14.065   0.554
48460SOL     OW47218   0.369  12.874   0.601
48460SOL    HW147219   0.352  12.838   0.514
48460SOL    HW247220   0.286  12.915   0.626
48461SOL     OW47221  10.468  12.628   2.456
48461SOL    HW147222  10.528  12.588   2.392
48461SOL    HW247223  10.493  12.590   2.540
48462SOL     OW47224  13.757   1.895   4.094
48462SOL    HW147225  13.746   1.805   4.066
48462SOL    HW247226  13.826   1.891   4.160
48463SOL     OW47227   1.890  10.428  13.200
48463SOL    HW147228   1.962  10.398  13.145
48463SOL    HW247229   1.812  10.395  13.156
48464SOL     OW47230  14.429   9.079   2.931
48464SOL    HW147231  14.364   9.092   2.863
48464SOL    HW247232  14.400   9.135   3.004
48465SOL     OW47233   2.447   5.733   0.326
48465SOL    HW147234   2.539   5.730   0.353
48465SOL    HW247235   2.443   5.675   0.250
48466SOL     OW47236   6.092  11.777   9.405
48466SOL    HW147237   6.036  11.755   9.330
48466SOL    HW247238   6.090  11.698   9.459
48467SOL     OW47239  10.465  13.877   5.698
48467SOL    HW147240  10.499  13.819   5.766
48467SOL    HW247241  10.513  13.852   5.619
48468SOL     OW47242   5.771   6.861   9.990
48468SOL    HW147243   5.720   6.783   9.971
48468SOL    HW247244   5.792   6.898   9.904
48469SOL     OW47245   2.797   2.142   0.249
48469SOL    HW147246   2.852   2.165   0.324
48469SOL    HW247247   2.813   2.211   0.185
48470SOL     OW47248   4.503   5.048  12.311
48470SOL    HW147249   4.592   5.043  12.278
48470SOL    HW247250   4.488   4.964  12.354
48471SOL     OW47251  13.359  14.432   3.324
48471SOL    HW147252  13.386  14.430   3.232
48471SOL    HW247253  13.265  14.416   3.321
48472SOL     OW47254   6.569   7.459  13.912
48472SOL    HW147255   6.645   7.488  13.962
48472SOL    HW247256   6.518   7.406  13.973
48473SOL     OW47257   3.905   4.805  11.708
48473SOL    HW147258   3.984   4.857  11.717
48473SOL    HW247259   3.834   4.869  11.719
48474SOL     OW47260   9.654   8.567   7.552
48474SOL    HW147261   9.619   8.557   7.463
48474SOL    HW247262   9.585   8.611   7.601
48475SOL     OW47263  10.807   9.525  13.818
48475SOL    HW147264  10.863   9.571  13.881
48475SOL    HW247265  10.746   9.475  13.873
48476SOL     OW47266   8.372   1.984  14.257
48476SOL    HW147267   8.306   2.037  14.301
48476SOL    HW247268   8.324   1.940  14.186
48477SOL     OW47269  14.711  14.759  12.856
48477SOL    HW147270  14.667  14.843  12.872
48477SOL    HW247271  14.692  14.707  12.934
48478SOL     OW47272   8.624   8.643  13.297
48478SOL    HW147273   8.534   8.629  13.327
48478SOL    HW247274   8.616   8.659  13.203
48479SOL     OW47275   8.173   5.848   2.346
48479SOL    HW147276   8.130   5.878   2.266
48479SOL    HW247277   8.102   5.843   2.411
48480SOL     OW47278   2.843   4.578   4.408
48480SOL    HW147279   2.939   4.573   4.413
48480SOL    HW247280   2.815   4.596   4.497
48481SOL     OW47281   5.112  13.813   8.366
48481SOL    HW147282   5.117  13.857   8.281
48481SOL    HW247283   5.169  13.865   8.423
48482SOL     OW47284   1.312   4.086   0.958
48482SOL    HW147285   1.294   4.081   1.051
48482SOL    HW247286   1.406   4.070   0.951
48483SOL     OW47287   7.140  12.474  13.015
48483SOL    HW147288   7.116  12.444  12.928
48483SOL    HW247289   7.120  12.568  13.015
48484SOL     OW47290  12.897   7.335   6.174
48484SOL    HW147291  12.863   7.318   6.262
48484SOL    HW247292  12.987   7.363   6.188
48485SOL     OW47293  14.581   7.079  14.816
48485SOL    HW147294  14.535   7.062   0.019
48485SOL    HW247295  14.553   7.008  14.758
48486SOL     OW47296   6.585   8.143   2.947
48486SOL    HW147297   6.509   8.177   2.899
48486SOL    HW247298   6.660   8.161   2.891
48487SOL     OW47299   8.654  14.480   7.272
48487SOL    HW147300   8.638  14.441   7.186
48487SOL    HW247301   8.575  14.461   7.322
48488SOL     OW47302   4.778   2.663   9.783
48488SOL    HW147303   4.761   2.703   9.868
48488SOL    HW247304   4.812   2.576   9.803
48489SOL     OW47305   9.350   7.351   0.814
48489SOL    HW147306   9.378   7.422   0.873
48489SOL    HW247307   9.430   7.327   0.767
48490SOL     OW47308   4.702   9.649  12.397
48490SOL    HW147309   4.676   9.559  12.379
48490SOL    HW247310   4.745   9.678  12.316
48491SOL     OW47311  10.165   0.957   5.402
48491SOL    HW147312  10.094   1.010   5.367
48491SOL    HW247313  10.245   0.999   5.369
48492SOL     OW47314   6.828   7.259   8.658
48492SOL    HW147315   6.889   7.196   8.697
48492SOL    HW247316   6.744   7.240   8.699
48493SOL     OW47317  10.958   5.416   8.872
48493SOL    HW147318  10.872   5.459   8.876
48493SOL    HW247319  10.943   5.339   8.817
48494SOL     OW47320   8.826   9.919   8.912
48494SOL    HW147321   8.907   9.967   8.894
48494SOL    HW247322   8.813   9.930   9.007
48495SOL     OW47323  13.619   1.601  10.678
48495SOL    HW147324  13.529   1.590  10.648
48495SOL    HW247325  13.629   1.539  10.749
48496SOL     OW47326   8.574   5.275   0.408
48496SOL    HW147327   8.486   5.263   0.446
48496SOL    HW247328   8.619   5.332   0.470
48497SOL     OW47329  10.731  10.606   1.213
48497SOL    HW147330  10.750  10.626   1.121
48497SOL    HW247331  10.802  10.649   1.262
48498SOL     OW47332  11.694   6.258   5.062
48498SOL    HW147333  11.737   6.286   4.981
48498SOL    HW247334  11.663   6.170   5.043
48499SOL     OW47335   1.659   3.340  10.384
48499SOL    HW147336   1.660   3.281  10.308
48499SOL    HW247337   1.586   3.399  10.367
48500SOL     OW47338   3.609  11.504   3.299
48500SOL    HW147339   3.529  11.467   3.337
48500SOL    HW247340   3.679  11.473   3.356
48501SOL     OW47341   5.103  13.762   3.618
48501SOL    HW147342   5.098  13.856   3.635
48501SOL    HW247343   5.138  13.725   3.699
48502SOL     OW47344   3.456   4.766  10.585
48502SOL    HW147345   3.360   4.766  10.588
48502SOL    HW247346   3.477   4.763  10.492
48503SOL     OW47347   3.774  13.931   8.712
48503SOL    HW147348   3.695  13.903   8.666
48503SOL    HW247349   3.754  13.916   8.804
48504SOL     OW47350  12.620   6.888   2.681
48504SOL    HW147351  12.615   6.977   2.716
48504SOL    HW247352  12.677   6.895   2.605
48505SOL     OW47353   5.402  13.509  14.366
48505SOL    HW147354   5.454  13.495  14.286
48505SOL    HW247355   5.348  13.585  14.346
48506SOL     OW47356  10.796  14.238   1.841
48506SOL    HW147357  10.716  14.208   1.882
48506SOL    HW247358  10.777  14.328   1.814
48507SOL     OW47359   8.821  11.351   7.351
48507SOL    HW147360   8.751  11.337   7.287
48507SOL    HW247361   8.795  11.429   7.399
48508SOL     OW47362  11.027   1.440   0.143
48508SOL    HW147363  10.999   1.525   0.177
48508SOL    HW247364  11.053   1.459   0.052
48509SOL     OW47365   1.619  10.649  11.844
48509SOL    HW147366   1.692  10.693  11.799
48509SOL    HW247367   1.630  10.557  11.822
48510SOL     OW47368   5.602   0.304   4.192
48510SOL    HW147369   5.513   0.338   4.180
48510SOL    HW247370   5.591   0.216   4.226
48511SOL     OW47371  14.784  13.833  14.101
48511SOL    HW147372  14.820  13.896  14.039
48511SOL    HW247373  14.818  13.748  14.072
48512SOL     OW47374   5.035   0.735  11.469
48512SOL    HW147375   5.067   0.709  11.556
48512SOL    HW247376   5.113   0.767  11.424
48513SOL     OW47377   3.764  13.612   3.153
48513SOL    HW147378   3.803  13.700   3.145
48513SOL    HW247379   3.711  13.602   3.074
48514SOL     OW47380  11.894  14.139  10.794
48514SOL    HW147381  11.848  14.211  10.752
48514SOL    HW247382  11.889  14.158  10.887
48515SOL     OW47383   1.771   8.430   8.313
48515SOL    HW147384   1.739   8.354   8.264
48515SOL    HW247385   1.704   8.445   8.380
48516SOL     OW47386   5.492   1.877  14.561
48516SOL    HW147387   5.503   1.955  14.506
48516SOL    HW247388   5.398   1.861  14.561
48517SOL     OW47389   9.156  13.536   8.244
48517SOL    HW147390   9.134  13.627   8.263
48517SOL    HW247391   9.194  13.502   8.325
48518SOL     OW47392  11.798   0.702   4.802
48518SOL    HW147393  11.880   0.658   4.781
48518SOL    HW247394  11.814   0.794   4.778
48519SOL     OW47395   2.419  12.329   7.508
48519SOL    HW147396   2.368  12.384   7.567
48519SOL    HW247397   2.510  12.349   7.527
48520SOL     OW47398   8.867   5.623   2.851
48520SOL    HW147399   8.790   5.678   2.835
48520SOL    HW247400   8.939   5.669   2.808
48521SOL     OW47401   2.033   9.487  14.397
48521SOL    HW147402   1.957   9.496  14.456
48521SOL    HW247403   2.062   9.397  14.411
48522SOL     OW47404   6.946  14.175   5.750
48522SOL    HW147405   6.982  14.115   5.815
48522SOL    HW247406   7.017  14.236   5.731
48523SOL     OW47407   4.413   7.899   5.387
48523SOL    HW147408   4.375   7.987   5.393
48523SOL    HW247409   4.339   7.840   5.401
48524SOL     OW47410  13.164   0.558   3.043
48524SOL    HW147411  13.238   0.498   3.048
48524SOL    HW247412  13.095   0.508   2.999
48525SOL     OW47413   0.950   3.592   6.778
48525SOL    HW147414   0.952   3.688   6.772
48525SOL    HW247415   0.909   3.563   6.697
48526SOL     OW47416   7.517   6.357   7.776
48526SOL    HW147417   7.551   6.343   7.864
48526SOL    HW247418   7.544   6.280   7.727
48527SOL     OW47419   0.828   8.715   3.204
48527SOL    HW147420   0.886   8.751   3.136
48527SOL    HW247421   0.742   8.753   3.185
48528SOL     OW47422   2.501  13.759   4.673
48528SOL    HW147423   2.433  13.696   4.648
48528SOL    HW247424   2.504  13.821   4.601
48529SOL     OW47425   0.988   4.212  10.360
48529SOL    HW147426   0.968   4.157  10.436
48529SOL    HW247427   1.070   4.177  10.326
48530SOL     OW47428   3.857   6.521  10.373
48530SOL    HW147429   3.850   6.510  10.278
48530SOL    HW247430   3.772   6.557  10.399
48531SOL     OW47431  14.737   0.801   8.162
48531SOL    HW147432  14.684   0.878   8.139
48531SOL    HW247433  14.790   0.784   8.085
48532SOL     OW47434  12.201   4.315   1.167
48532SOL    HW147435  12.290   4.320   1.203
48532SOL    HW247436  12.181   4.405   1.140
48533SOL     OW47437   9.932   9.784   6.319
48533SOL    HW147438   9.946   9.867   6.273
48533SOL    HW247439   9.896   9.725   6.253
48534SOL     OW47440   2.227  13.546  10.143
48534SOL    HW147441   2.230  13.620  10.082
48534SOL    HW247442   2.318  13.516  10.147
48535SOL     OW47443   2.401  12.418   8.774
48535SOL    HW147444   2.340  12.348   8.751
48535SOL    HW247445   2.488  12.383   8.754
48536SOL     OW47446   1.976   5.430   2.636
48536SOL    HW147447   2.018   5.364   2.691
48536SOL    HW247448   1.913   5.472   2.693
48537SOL     OW47449   8.268   8.984  14.688
48537SOL    HW147450   8.175   9.005  14.697
48537SOL    HW247451   8.287   8.998  14.595
48538SOL     OW47452   1.444   2.653  13.062
48538SOL    HW147453   1.493   2.598  13.123
48538SOL    HW247454   1.367   2.600  13.039
48539SOL     OW47455   1.719   4.392  12.270
48539SOL    HW147456   1.678   4.305  12.267
48539SOL    HW247457   1.685   4.437  12.193
48540SOL     OW47458   5.113   1.763  10.449
48540SOL    HW147459   5.154   1.701  10.509
48540SOL    HW247460   5.022   1.768  10.477
48541SOL     OW47461   3.602   1.534  13.646
48541SOL    HW147462   3.642   1.447  13.643
48541SOL    HW247463   3.651   1.581  13.714
48542SOL     OW47464  10.083  13.539   4.164
48542SOL    HW147465  10.102  13.446   4.156
48542SOL    HW247466  10.150  13.582   4.112
48543SOL     OW47467   4.759   0.696   1.358
48543SOL    HW147468   4.692   0.636   1.326
48543SOL    HW247469   4.842   0.656   1.332
48544SOL     OW47470   4.896   4.725  11.986
48544SOL    HW147471   4.906   4.777  12.066
48544SOL    HW247472   4.835   4.775  11.933
48545SOL     OW47473   5.664   7.927   5.666
48545SOL    HW147474   5.724   7.934   5.741
48545SOL    HW247475   5.694   7.850   5.618
48546SOL     OW47476  11.973   2.287   6.483
48546SOL    HW147477  11.919   2.262   6.409
48546SOL    HW247478  12.001   2.376   6.465
48547SOL     OW47479   1.479   2.312   6.432
48547SOL    HW147480   1.434   2.252   6.492
48547SOL    HW247481   1.433   2.301   6.349
48548SOL     OW47482   1.314   2.620   5.785
48548SOL    HW147483   1.278   2.549   5.838
48548SOL    HW247484   1.409   2.610   5.794
48549SOL     OW47485   6.621   4.048   9.358
48549SOL    HW147486   6.602   3.961   9.322
48549SOL    HW247487   6.535   4.088   9.373
48550SOL     OW47488   2.518   7.232  11.427
48550SOL    HW147489   2.433   7.201  11.396
48550SOL    HW247490   2.524   7.321  11.392
48551SOL     OW47491   2.307   3.754  10.551
48551SOL    HW147492   2.401   3.769  10.559
48551SOL    HW247493   2.300   3.660  10.533
48552SOL     OW47494   4.178   8.510  11.031
48552SOL    HW147495   4.268   8.518  10.999
48552SOL    HW247496   4.185   8.455  11.109
48553SOL     OW47497   7.825   3.279  14.273
48553SOL    HW147498   7.871   3.322  14.345
48553SOL    HW247499   7.737   3.262  14.307
48554SOL     OW47500   2.618  14.520   1.361
48554SOL    HW147501   2.652  14.600   1.320
48554SOL    HW247502   2.588  14.549   1.448
48555SOL     OW47503   9.480  13.772  10.452
48555SOL    HW147504   9.465  13.759  10.358
48555SOL    HW247505   9.534  13.697  10.478
48556SOL     OW47506   7.979  10.191   8.409
48556SOL    HW147507   8.006  10.099   8.403
48556SOL    HW247508   7.942  10.199   8.497
48557SOL     OW47509   2.701  12.008   6.162
48557SOL    HW147510   2.677  12.027   6.253
48557SOL    HW247511   2.655  11.927   6.142
48558SOL     OW47512  12.430   8.312  13.131
48558SOL    HW147513  12.487   8.357  13.068
48558SOL    HW247514  12.397   8.382  13.187
48559SOL     OW47515   1.624   5.422  14.701
48559SOL    HW147516   1.541   5.442  14.657
48559SOL    HW247517   1.645   5.333  14.672
48560SOL     OW47518  11.664  14.561   8.568
48560SOL    HW147519  11.588  14.577   8.513
48560SOL    HW247520  11.628  14.533   8.653
48561SOL     OW47521  13.543  12.741   9.402
48561SOL    HW147522  13.552  12.833   9.427
48561SOL    HW247523  13.490  12.703   9.471
48562SOL     OW47524   6.174   2.563   4.574
48562SOL    HW147525   6.241   2.588   4.637
48562SOL    HW247526   6.174   2.467   4.575
48563SOL     OW47527   5.123   0.269   4.012
48563SOL    HW147528   5.061   0.340   3.997
48563SOL    HW247529   5.147   0.239   3.924
48564SOL     OW47530   6.400  10.881  12.440
48564SOL    HW147531   6.431  10.950  12.499
48564SOL    HW247532   6.344  10.927  12.377
48565SOL     OW47533   5.282   1.613   2.297
48565SOL    HW147534   5.359   1.664   2.272
48565SOL    HW247535   5.280   1.541   2.234
48566SOL     OW47536   6.650   9.910  14.763
48566SOL    HW147537   6.557   9.895  14.778
48566SOL    HW247538   6.694   9.868  14.836
48567SOL     OW47539   7.504   8.700   9.441
48567SOL    HW147540   7.494   8.707   9.346
48567SOL    HW247541   7.493   8.790   9.474
48568SOL     OW47542   0.493  12.494   2.540
48568SOL    HW147543   0.456  12.456   2.619
48568SOL    HW247544   0.541  12.572   2.571
48569SOL     OW47545  10.353   7.748  13.905
48569SOL    HW147546  10.375   7.804  13.979
48569SOL    HW247547  10.296   7.802  13.850
48570SOL     OW47548   5.119   7.488   0.417
48570SOL    HW147549   5.111   7.517   0.507
48570SOL    HW247550   5.029   7.487   0.383
48571SOL     OW47551   9.629   7.212   5.841
48571SOL    HW147552   9.657   7.142   5.899
48571SOL    HW247553   9.578   7.168   5.773
48572SOL     OW47554   5.564  12.107   3.200
48572SOL    HW147555   5.593  12.072   3.116
48572SOL    HW247556   5.474  12.138   3.183
48573SOL     OW47557  10.616  13.909   1.363
48573SOL    HW147558  10.534  13.863   1.342
48573SOL    HW247559  10.587  13.992   1.401
48574SOL     OW47560   6.470   9.840   0.137
48574SOL    HW147561   6.417   9.903   0.088
48574SOL    HW247562   6.408   9.775   0.168
48575SOL     OW47563   6.162   7.902   8.804
48575SOL    HW147564   6.225   7.973   8.811
48575SOL    HW247565   6.176   7.850   8.884
48576SOL     OW47566   3.769   3.748   7.803
48576SOL    HW147567   3.862   3.756   7.783
48576SOL    HW247568   3.766   3.742   7.899
48577SOL     OW47569   5.132   5.527  10.088
48577SOL    HW147570   5.190   5.517  10.163
48577SOL    HW247571   5.091   5.441  10.077
48578SOL     OW47572   3.606   2.623   1.676
48578SOL    HW147573   3.666   2.687   1.638
48578SOL    HW247574   3.565   2.669   1.750
48579SOL     OW47575  12.554   8.890   5.290
48579SOL    HW147576  12.613   8.946   5.239
48579SOL    HW247577  12.550   8.931   5.376
48580SOL     OW47578   2.939   9.991  13.922
48580SOL    HW147579   2.886   9.982  14.002
48580SOL    HW247580   3.013   9.931  13.935
48581SOL     OW47581   8.526   7.657   3.839
48581SOL    HW147582   8.494   7.579   3.794
48581SOL    HW247583   8.495   7.731   3.786
48582SOL     OW47584  10.307   4.480   4.195
48582SOL    HW147585  10.315   4.535   4.273
48582SOL    HW247586  10.259   4.535   4.132
48583SOL     OW47587  10.951  12.379   3.443
48583SOL    HW147588  10.868  12.354   3.402
48583SOL    HW247589  11.014  12.376   3.371
48584SOL     OW47590   5.722  14.866  11.697
48584SOL    HW147591   5.682  14.816  11.626
48584SOL    HW247592   5.812   0.002  11.669
48585SOL     OW47593   2.422  11.931   2.532
48585SOL    HW147594   2.395  11.962   2.619
48585SOL    HW247595   2.340  11.918   2.485
48586SOL     OW47596   7.117   3.727   5.060
48586SOL    HW147597   7.150   3.738   4.971
48586SOL    HW247598   7.185   3.676   5.105
48587SOL     OW47599   1.798   2.492  13.487
48587SOL    HW147600   1.742   2.480  13.564
48587SOL    HW247601   1.862   2.558  13.514
48588SOL     OW47602   7.133   7.876   7.316
48588SOL    HW147603   7.214   7.866   7.266
48588SOL    HW247604   7.067   7.832   7.263
48589SOL     OW47605   3.385   5.590   6.870
48589SOL    HW147606   3.336   5.521   6.825
48589SOL    HW247607   3.350   5.589   6.960
48590SOL     OW47608   9.910  14.569   4.385
48590SOL    HW147609   9.828  14.520   4.386
48590SOL    HW247610   9.969  14.516   4.331
48591SOL     OW47611   5.950   5.227  14.370
48591SOL    HW147612   5.880   5.259  14.427
48591SOL    HW247613   6.023   5.209  14.428
48592SOL     OW47614   6.000  13.703  10.134
48592SOL    HW147615   5.936  13.747  10.079
48592SOL    HW247616   6.083  13.714  10.087
48593SOL     OW47617   3.566  14.034  10.896
48593SOL    HW147618   3.589  14.029  10.803
48593SOL    HW247619   3.499  13.966  10.908
48594SOL     OW47620  12.405   3.092   4.607
48594SOL    HW147621  12.454   3.171   4.629
48594SOL    HW247622  12.365   3.112   4.522
48595SOL     OW47623   9.036  13.219  12.967
48595SOL    HW147624   8.966  13.258  13.020
48595SOL    HW247625   9.093  13.293  12.946
48596SOL     OW47626   6.268   7.553   9.447
48596SOL    HW147627   6.303   7.565   9.535
48596SOL    HW247628   6.231   7.639   9.425
48597SOL     OW47629  10.231   5.474  13.352
48597SOL    HW147630  10.203   5.395  13.306
48597SOL    HW247631  10.153   5.530  13.354
48598SOL     OW47632   3.259   3.129   6.438
48598SOL    HW147633   3.277   3.038   6.464
48598SOL    HW247634   3.227   3.171   6.518
48599SOL     OW47635   4.952   6.399   9.271
48599SOL    HW147636   4.942   6.478   9.324
48599SOL    HW247637   4.926   6.426   9.183
48600SOL     OW47638  12.663   5.395  11.746
48600SOL    HW147639  12.592   5.347  11.787
48600SOL    HW247640  12.737   5.385  11.806
48601SOL     OW47641   0.240  11.209  10.822
48601SOL    HW147642   0.265  11.257  10.743
48601SOL    HW247643   0.319  11.159  10.845
48602SOL     OW47644   0.232   6.119  12.544
48602SOL    HW147645   0.274   6.088  12.624
48602SOL    HW247646   0.241   6.214  12.547
48603SOL     OW47647  10.483   0.436   1.846
48603SOL    HW147648  10.468   0.383   1.924
48603SOL    HW247649  10.570   0.474   1.858
48604SOL     OW47650   1.840   6.490  13.091
48604SOL    HW147651   1.920   6.534  13.121
48604SOL    HW247652   1.852   6.398  13.116
48605SOL     OW47653   4.901   8.483   9.591
48605SOL    HW147654   4.878   8.575   9.577
48605SOL    HW247655   4.848   8.457   9.667
48606SOL     OW47656  10.760   4.131   9.536
48606SOL    HW147657  10.845   4.101   9.504
48606SOL    HW247658  10.771   4.226   9.547
48607SOL     OW47659  14.206   3.387  10.780
48607SOL    HW147660  14.140   3.447  10.815
48607SOL    HW247661  14.156   3.322  10.732
48608SOL     OW47662   3.035   0.364  14.120
48608SOL    HW147663   3.100   0.295  14.138
48608SOL    HW247664   3.075   0.444  14.154
48609SOL     OW47665   1.429  13.159   1.607
48609SOL    HW147666   1.471  13.085   1.651
48609SOL    HW247667   1.359  13.120   1.555
48610SOL     OW47668   7.663   3.675   8.643
48610SOL    HW147669   7.730   3.612   8.671
48610SOL    HW247670   7.581   3.638   8.675
48611SOL     OW47671   5.260   8.259  13.559
48611SOL    HW147672   5.310   8.271  13.640
48611SOL    HW247673   5.239   8.166  13.557
48612SOL     OW47674   9.954   1.053  12.357
48612SOL    HW147675   9.978   0.971  12.314
48612SOL    HW247676   9.901   1.099  12.292
48613SOL     OW47677  11.128  14.619   0.534
48613SOL    HW147678  11.102  14.628   0.626
48613SOL    HW247679  11.192  14.548   0.535
48614SOL     OW47680   1.442   7.353   5.157
48614SOL    HW147681   1.400   7.298   5.091
48614SOL    HW247682   1.513   7.397   5.109
48615SOL     OW47683   4.939   2.557   3.199
48615SOL    HW147684   4.894   2.640   3.188
48615SOL    HW247685   4.928   2.512   3.115
48616SOL     OW47686   7.743   4.851   5.782
48616SOL    HW147687   7.656   4.860   5.822
48616SOL    HW247688   7.736   4.895   5.698
48617SOL     OW47689  10.872   1.176  11.227
48617SOL    HW147690  10.918   1.103  11.185
48617SOL    HW247691  10.840   1.229  11.154
48618SOL     OW47692   5.605   6.798   5.356
48618SOL    HW147693   5.542   6.829   5.291
48618SOL    HW247694   5.579   6.707   5.373
48619SOL     OW47695   1.146  13.445   8.841
48619SOL    HW147696   1.064  13.423   8.886
48619SOL    HW247697   1.183  13.515   8.894
48620SOL     OW47698   6.035  11.039   4.412
48620SOL    HW147699   6.093  11.038   4.335
48620SOL    HW247700   6.015  10.947   4.428
48621SOL     OW47701  10.202  10.704   3.181
48621SOL    HW147702  10.190  10.625   3.129
48621SOL    HW247703  10.278  10.747   3.143
48622SOL     OW47704   3.626  12.692   6.930
48622SOL    HW147705   3.631  12.717   6.838
48622SOL    HW247706   3.717  12.679   6.957
48623SOL     OW47707  11.762   5.323   8.880
48623SOL    HW147708  11.850   5.357   8.896
48623SOL    HW247709  11.748   5.337   8.786
48624SOL     OW47710  10.863   3.084  14.684
48624SOL    HW147711  10.913   3.104  14.605
48624SOL    HW247712  10.853   3.168  14.728
48625SOL     OW47713  12.703   6.764   9.831
48625SOL    HW147714  12.695   6.676   9.867
48625SOL    HW247715  12.671   6.822   9.900
48626SOL     OW47716   1.874   0.058  12.044
48626SOL    HW147717   1.799   0.117  12.045
48626SOL    HW247718   1.877   0.025  11.954
48627SOL     OW47719   9.151   7.423   8.022
48627SOL    HW147720   9.116   7.344   8.064
48627SOL    HW247721   9.151   7.489   8.092
48628SOL     OW47722   9.281   0.840  10.900
48628SOL    HW147723   9.199   0.791  10.902
48628SOL    HW247724   9.346   0.781  10.940
48629SOL     OW47725   3.015  11.685   0.554
48629SOL    HW147726   2.955  11.700   0.480
48629SOL    HW247727   3.012  11.591   0.569
48630SOL     OW47728   5.002  11.394   9.863
48630SOL    HW147729   5.066  11.324   9.852
48630SOL    HW247730   4.919  11.354   9.837
48631SOL     OW47731   5.806  12.503   5.518
48631SOL    HW147732   5.741  12.443   5.555
48631SOL    HW247733   5.812  12.574   5.581
48632SOL     OW47734   5.113  12.431   1.505
48632SOL    HW147735   5.019  12.448   1.496
48632SOL    HW247736   5.118  12.345   1.545
48633SOL     OW47737   7.297   7.876   3.978
48633SOL    HW147738   7.230   7.855   4.043
48633SOL    HW247739   7.307   7.971   3.983
48634SOL     OW47740   5.341   4.588   6.642
48634SOL    HW147741   5.285   4.523   6.601
48634SOL    HW247742   5.341   4.662   6.581
48635SOL     OW47743   2.295   0.361  10.667
48635SOL    HW147744   2.209   0.328  10.692
48635SOL    HW247745   2.355   0.289  10.685
48636SOL     OW47746   2.038  10.500  14.326
48636SOL    HW147747   2.024  10.479  14.233
48636SOL    HW247748   2.060  10.415  14.366
48637SOL     OW47749   7.107   3.339   2.365
48637SOL    HW147750   7.060   3.263   2.330
48637SOL    HW247751   7.107   3.326   2.460
48638SOL     OW47752   2.984  12.768   4.215
48638SOL    HW147753   2.983  12.675   4.195
48638SOL    HW247754   2.974  12.811   4.129
48639SOL     OW47755   5.217   3.194   2.043
48639SOL    HW147756   5.199   3.205   1.950
48639SOL    HW247757   5.134   3.161   2.080
48640SOL     OW47758  11.372  11.286   1.691
48640SOL    HW147759  11.405  11.332   1.768
48640SOL    HW247760  11.447  11.282   1.632
48641SOL     OW47761   3.721  12.237   6.506
48641SOL    HW147762   3.662  12.220   6.433
48641SOL    HW247763   3.743  12.330   6.498
48642SOL     OW47764   5.935  11.210   3.283
48642SOL    HW147765   5.849  11.210   3.241
48642SOL    HW247766   5.931  11.281   3.346
48643SOL     OW47767   9.122   4.866   1.008
48643SOL    HW147768   9.053   4.815   1.050
48643SOL    HW247769   9.145   4.933   1.073
48644SOL     OW47770  13.726   2.646   8.749
48644SOL    HW147771  13.706   2.698   8.671
48644SOL    HW247772  13.642   2.636   8.794
48645SOL     OW47773  10.282   9.902   9.609
48645SOL    HW147774  10.190   9.876   9.612
48645SOL    HW247775  10.330   9.825   9.642
48646SOL     OW47776   4.629   3.718   9.546
48646SOL    HW147777   4.634   3.634   9.592
48646SOL    HW247778   4.598   3.780   9.612
48647SOL     OW47779  14.204   2.124  11.430
48647SOL    HW147780  14.116   2.149  11.458
48647SOL    HW247781  14.215   2.034  11.462
48648SOL     OW47782  11.863   8.712   2.482
48648SOL    HW147783  11.947   8.750   2.508
48648SOL    HW247784  11.800   8.783   2.495
48649SOL     OW47785   5.268   7.402  12.378
48649SOL    HW147786   5.247   7.438  12.292
48649SOL    HW247787   5.205   7.331  12.391
48650SOL     OW47788  11.755   7.388  10.653
48650SOL    HW147789  11.729   7.385  10.745
48650SOL    HW247790  11.827   7.451  10.651
48651SOL     OW47791   2.071   2.725  11.945
48651SOL    HW147792   2.078   2.751  11.853
48651SOL    HW247793   2.068   2.808  11.993
48652SOL     OW47794  11.837  13.046   7.479
48652SOL    HW147795  11.772  13.018   7.544
48652SOL    HW247796  11.921  13.039   7.525
48653SOL     OW47797   5.636  14.618  14.381
48653SOL    HW147798   5.720  14.603  14.337
48653SOL    HW247799   5.660  14.636  14.472
48654SOL     OW47800   5.454   5.234  14.384
48654SOL    HW147801   5.384   5.272  14.330
48654SOL    HW247802   5.452   5.141  14.362
48655SOL     OW47803   0.529   0.778   3.112
48655SOL    HW147804   0.491   0.825   3.186
48655SOL    HW247805   0.465   0.787   3.042
48656SOL     OW47806   9.678   2.569   6.889
48656SOL    HW147807   9.659   2.483   6.926
48656SOL    HW247808   9.597   2.619   6.901
48657SOL     OW47809   4.131  13.078   0.447
48657SOL    HW147810   4.095  13.165   0.431
48657SOL    HW247811   4.182  13.088   0.528
48658SOL     OW47812  11.953   3.771   2.557
48658SOL    HW147813  12.000   3.688   2.558
48658SOL    HW247814  11.975   3.813   2.639
48659SOL     OW47815   6.227   5.042  10.318
48659SOL    HW147816   6.162   5.073  10.256
48659SOL    HW247817   6.288   5.115  10.328
48660SOL     OW47818   3.310   6.645   7.846
48660SOL    HW147819   3.216   6.653   7.862
48660SOL    HW247820   3.351   6.703   7.910
48661SOL     OW47821  14.055   8.921  13.998
48661SOL    HW147822  14.076   9.005  14.037
48661SOL    HW247823  14.101   8.857  14.051
48662SOL     OW47824   4.025   7.919   2.421
48662SOL    HW147825   3.983   8.005   2.426
48662SOL    HW247826   4.112   7.932   2.459
48663SOL     OW47827   3.030  13.074   0.838
48663SOL    HW147828   3.086  13.151   0.827
48663SOL    HW247829   2.957  13.090   0.779
48664SOL     OW47830   2.407  11.295   8.495
48664SOL    HW147831   2.470  11.285   8.423
48664SOL    HW247832   2.348  11.220   8.486
48665SOL     OW47833   6.949  11.529   9.536
48665SOL    HW147834   7.024  11.583   9.561
48665SOL    HW247835   6.956  11.451   9.591
48666SOL     OW47836  12.226   6.334   3.575
48666SOL    HW147837  12.234   6.269   3.504
48666SOL    HW247838  12.135   6.362   3.571
48667SOL     OW47839  11.159   9.370   1.958
48667SOL    HW147840  11.177   9.430   1.886
48667SOL    HW247841  11.222   9.394   2.026
48668SOL     OW47842  13.258   4.754   1.197
48668SOL    HW147843  13.272   4.670   1.153
48668SOL    HW247844  13.287   4.740   1.287
48669SOL     OW47845  13.824   9.059  14.055
48669SOL    HW147846  13.909   9.048  14.012
48669SOL    HW247847  13.846   9.070  14.148
48670SOL     OW47848   5.353   8.196   8.005
48670SOL    HW147849   5.323   8.206   8.095
48670SOL    HW247850   5.348   8.102   7.989
48671SOL     OW47851   8.934   2.655   6.433
48671SOL    HW147852   8.926   2.607   6.351
48671SOL    HW247853   8.855   2.710   6.437
48672SOL     OW47854   3.708  14.153  13.895
48672SOL    HW147855   3.752  14.086  13.946
48672SOL    HW247856   3.729  14.133  13.804
48673SOL     OW47857  11.057  12.271   4.571
48673SOL    HW147858  10.969  12.234   4.581
48673SOL    HW247859  11.043  12.366   4.569
48674SOL     OW47860   9.069   2.500  11.980
48674SOL    HW147861   9.111   2.423  11.941
48674SOL    HW247862   9.087   2.493  12.073
48675SOL     OW47863  13.268   4.513   0.183
48675SOL    HW147864  13.304   4.436   0.139
48675SOL    HW247865  13.344   4.567   0.203
48676SOL     OW47866   5.233  11.399  10.661
48676SOL    HW147867   5.310  11.375  10.712
48676SOL    HW247868   5.187  11.463  10.715
48677SOL     OW47869   5.459   6.393   3.422
48677SOL    HW147870   5.545   6.387   3.464
48677SOL    HW247871   5.434   6.302   3.406
48678SOL     OW47872   4.380   4.752  13.034
48678SOL    HW147873   4.346   4.681  12.980
48678SOL    HW247874   4.317   4.824  13.022
48679SOL     OW47875  14.072   1.193  13.184
48679SOL    HW147876  14.076   1.132  13.111
48679SOL    HW247877  14.056   1.138  13.261
48680SOL     OW47878  11.076  11.098   2.836
48680SOL    HW147879  11.058  11.192   2.835
48680SOL    HW247880  11.132  11.082   2.760
48681SOL     OW47881   6.844  14.707   7.119
48681SOL    HW147882   6.894  14.627   7.136
48681SOL    HW247883   6.904  14.763   7.070
48682SOL     OW47884   3.262   0.189   7.620
48682SOL    HW147885   3.244   0.166   7.528
48682SOL    HW247886   3.207   0.129   7.671
48683SOL     OW47887   8.945   5.304   8.491
48683SOL    HW147888   8.892   5.381   8.474
48683SOL    HW247889   8.926   5.244   8.419
48684SOL     OW47890  14.055   5.182   2.501
48684SOL    HW147891  14.032   5.095   2.468
48684SOL    HW247892  13.972   5.219   2.532
48685SOL     OW47893   7.192  13.919  12.286
48685SOL    HW147894   7.246  13.901  12.363
48685SOL    HW247895   7.103  13.897  12.313
48686SOL     OW47896  11.677   6.677   1.051
48686SOL    HW147897  11.612   6.623   1.094
48686SOL    HW247898  11.706   6.625   0.976
48687SOL     OW47899  11.133  12.626   7.455
48687SOL    HW147900  11.218  12.612   7.414
48687SOL    HW247901  11.070  12.610   7.385
48688SOL     OW47902   1.345   0.207   8.092
48688SOL    HW147903   1.296   0.284   8.065
48688SOL    HW247904   1.330   0.200   8.186
48689SOL     OW47905   6.308  12.805   1.014
48689SOL    HW147906   6.238  12.847   1.063
48689SOL    HW247907   6.265  12.770   0.936
48690SOL     OW47908  11.958   0.201   1.047
48690SOL    HW147909  11.992   0.133   0.988
48690SOL    HW247910  11.877   0.165   1.083
48691SOL     OW47911   1.063  14.191   6.032
48691SOL    HW147912   1.089  14.149   5.950
48691SOL    HW247913   1.113  14.272   6.035
48692SOL     OW47914   4.217  11.345   8.536
48692SOL    HW147915   4.310  11.366   8.542
48692SOL    HW247916   4.210  11.259   8.578
48693SOL     OW47917   6.479   0.303   4.382
48693SOL    HW147918   6.533   0.354   4.443
48693SOL    HW247919   6.420   0.367   4.343
48694SOL     OW47920  11.830   5.445  12.325
48694SOL    HW147921  11.856   5.466  12.235
48694SOL    HW247922  11.777   5.520  12.352
48695SOL     OW47923   3.822   3.140  11.420
48695SOL    HW147924   3.842   3.132  11.513
48695SOL    HW247925   3.749   3.080  11.406
48696SOL     OW47926  13.692   1.432   4.946
48696SOL    HW147927  13.758   1.405   5.010
48696SOL    HW247928  13.694   1.363   4.879
48697SOL     OW47929  10.635  12.558  13.157
48697SOL    HW147930  10.599  12.500  13.224
48697SOL    HW247931  10.710  12.601  13.200
48698SOL     OW47932  14.227  12.287   3.957
48698SOL    HW147933  14.255  12.342   3.884
48698SOL    HW247934  14.240  12.198   3.927
48699SOL     OW47935   7.179   7.011   5.195
48699SOL    HW147936   7.142   7.030   5.109
48699SOL    HW247937   7.263   7.057   5.197
48700SOL     OW47938   1.741   7.381   1.287
48700SOL    HW147939   1.679   7.308   1.294
48700SOL    HW247940   1.687   7.456   1.264
48701SOL     OW47941  10.165   3.773   1.600
48701SOL    HW147942  10.111   3.759   1.678
48701SOL    HW247943  10.253   3.747   1.626
48702SOL     OW47944  12.336  12.005   8.412
48702SOL    HW147945  12.297  12.091   8.427
48702SOL    HW247946  12.398  12.019   8.339
48703SOL     OW47947   8.807  13.045   7.825
48703SOL    HW147948   8.713  13.060   7.828
48703SOL    HW247949   8.846  13.132   7.824
48704SOL     OW47950  11.363   3.023   8.869
48704SOL    HW147951  11.365   3.063   8.956
48704SOL    HW247952  11.332   2.933   8.885
48705SOL     OW47953  13.581   1.352  14.466
48705SOL    HW147954  13.560   1.320  14.554
48705SOL    HW247955  13.658   1.302  14.440
48706SOL     OW47956  12.304   8.867   6.969
48706SOL    HW147957  12.255   8.853   7.050
48706SOL    HW247958  12.323   8.779   6.937
48707SOL     OW47959   0.174  10.973  13.117
48707SOL    HW147960   0.164  10.948  13.209
48707SOL    HW247961   0.244  10.917  13.084
48708SOL     OW47962   7.492  11.426   4.545
48708SOL    HW147963   7.471  11.383   4.462
48708SOL    HW247964   7.477  11.519   4.529
48709SOL     OW47965   6.876  10.998  12.236
48709SOL    HW147966   6.914  11.080  12.205
48709SOL    HW247967   6.897  10.935  12.168
48710SOL     OW47968   8.811  10.306  11.182
48710SOL    HW147969   8.858  10.349  11.254
48710SOL    HW247970   8.869  10.234  11.156
48711SOL     OW47971   6.007   9.065   6.368
48711SOL    HW147972   6.011   9.144   6.314
48711SOL    HW247973   6.085   9.069   6.423
48712SOL     OW47974  14.405   7.031   0.940
48712SOL    HW147975  14.454   7.030   0.858
48712SOL    HW247976  14.465   6.995   1.005
48713SOL     OW47977   1.394   5.047   8.301
48713SOL    HW147978   1.426   4.971   8.350
48713SOL    HW247979   1.453   5.053   8.225
48714SOL     OW47980  13.249   9.520   9.583
48714SOL    HW147981  13.263   9.453   9.517
48714SOL    HW247982  13.222   9.597   9.534
48715SOL     OW47983  11.459   8.335   0.373
48715SOL    HW147984  11.478   8.273   0.302
48715SOL    HW247985  11.368   8.318   0.396
48716SOL     OW47986   3.494   3.982  14.855
48716SOL    HW147987   3.559   3.914  14.871
48716SOL    HW247988   3.517   4.052   0.035
48717SOL     OW47989  13.161  14.223   1.345
48717SOL    HW147990  13.072  14.228   1.311
48717SOL    HW247991  13.150  14.216   1.440
48718SOL     OW47992   8.645  14.163   5.459
48718SOL    HW147993   8.701  14.234   5.425
48718SOL    HW247994   8.556  14.199   5.455
48719SOL     OW47995   1.151   1.659   2.791
48719SOL    HW147996   1.057   1.646   2.780
48719SOL    HW247997   1.178   1.712   2.717
48720SOL     OW47998  11.625   3.948   2.675
48720SOL    HW147999  11.551   3.930   2.616
48720SOL    HW248000  11.649   4.039   2.658
48721SOL     OW48001  11.244   8.126   8.411
48721SOL    HW148002  11.261   8.032   8.413
48721SOL    HW248003  11.190   8.142   8.488
48722SOL     OW48004  13.030  14.352   4.859
48722SOL    HW148005  13.119  14.324   4.880
48722SOL    HW248006  12.980  14.335   4.938
48723SOL     OW48007   2.201   5.688  11.370
48723SOL    HW148008   2.153   5.664  11.448
48723SOL    HW248009   2.179   5.621  11.305
48724SOL     OW48010  11.011   0.634   1.905
48724SOL    HW148011  11.028   0.644   1.812
48724SOL    HW248012  10.934   0.688   1.922
48725SOL     OW48013   1.894   7.506  11.492
48725SOL    HW148014   1.978   7.551  11.503
48725SOL    HW248015   1.835   7.572  11.456
48726SOL     OW48016   9.436   7.184   6.544
48726SOL    HW148017   9.522   7.200   6.507
48726SOL    HW248018   9.448   7.108   6.601
48727SOL     OW48019   0.222   7.060   4.081
48727SOL    HW148020   0.160   6.994   4.051
48727SOL    HW248021   0.237   7.039   4.173
48728SOL     OW48022   2.325  10.833   6.577
48728SOL    HW148023   2.402  10.800   6.530
48728SOL    HW248024   2.263  10.855   6.508
48729SOL     OW48025   9.553   3.337   8.959
48729SOL    HW148026   9.588   3.425   8.945
48729SOL    HW248027   9.461   3.343   8.934
48730SOL     OW48028   5.376   1.261   5.653
48730SOL    HW148029   5.285   1.289   5.663
48730SOL    HW248030   5.427   1.341   5.667
48731SOL     OW48031   4.863   6.745  13.338
48731SOL    HW148032   4.806   6.748  13.262
48731SOL    HW248033   4.806   6.766  13.412
48732SOL     OW48034   6.262   0.105   8.151
48732SOL    HW148035   6.234   0.184   8.197
48732SOL    HW248036   6.299   0.136   8.069
48733SOL     OW48037   5.505   0.625   4.615
48733SOL    HW148038   5.554   0.570   4.554
48733SOL    HW248039   5.564   0.638   4.690
48734SOL     OW48040   7.570   3.075  11.837
48734SOL    HW148041   7.550   3.055  11.746
48734SOL    HW248042   7.621   3.156  11.833
48735SOL     OW48043  11.473  10.780   4.840
48735SOL    HW148044  11.410  10.733   4.785
48735SOL    HW248045  11.419  10.833   4.899
48736SOL     OW48046   6.173   2.981   0.299
48736SOL    HW148047   6.190   3.030   0.380
48736SOL    HW248048   6.173   3.048   0.230
48737SOL     OW48049   7.959  12.136   1.136
48737SOL    HW148050   8.012  12.174   1.065
48737SOL    HW248051   7.892  12.084   1.091
48738SOL     OW48052  14.863  12.918   5.005
48738SOL    HW148053   0.075  12.892   5.015
48738SOL    HW248054  14.842  12.897   4.914
48739SOL     OW48055   2.346  10.096   3.768
48739SOL    HW148056   2.432  10.064   3.795
48739SOL    HW248057   2.355  10.191   3.766
48740SOL     OW48058  10.454  13.492  12.466
48740SOL    HW148059  10.509  13.418  12.491
48740SOL    HW248060  10.408  13.516  12.547
48741SOL     OW48061  10.436   6.298   5.377
48741SOL    HW148062  10.355   6.251   5.398
48741SOL    HW248063  10.408   6.363   5.312
48742SOL     OW48064   5.704   9.455   2.029
48742SOL    HW148065   5.690   9.486   2.119
48742SOL    HW248066   5.617   9.461   1.988
48743SOL     OW48067   8.303   8.531   9.635
48743SOL    HW148068   8.356   8.610   9.646
48743SOL    HW248069   8.234   8.539   9.701
48744SOL     OW48070  11.719   3.204   5.345
48744SOL    HW148071  11.712   3.289   5.390
48744SOL    HW248072  11.806   3.207   5.303
48745SOL     OW48073   8.431  14.639   5.413
48745SOL    HW148074   8.368  14.703   5.446
48745SOL    HW248075   8.447  14.581   5.488
48746SOL     OW48076  12.339   8.793   7.315
48746SOL    HW148077  12.255   8.768   7.355
48746SOL    HW248078  12.368   8.715   7.269
48747SOL     OW48079   8.112   0.861   0.069
48747SOL    HW148080   8.186   0.909   0.106
48747SOL    HW248081   8.139   0.770   0.070
48748SOL     OW48082  10.203   7.125  12.860
48748SOL    HW148083  10.124   7.168  12.894
48748SOL    HW248084  10.246   7.089  12.938
48749SOL     OW48085  11.722  14.573   8.238
48749SOL    HW148086  11.787  14.529   8.292
48749SOL    HW248087  11.649  14.591   8.297
48750SOL     OW48088   2.740   8.228   2.734
48750SOL    HW148089   2.815   8.227   2.675
48750SOL    HW248090   2.702   8.315   2.724
48751SOL     OW48091   3.811   3.526  12.107
48751SOL    HW148092   3.740   3.549  12.047
48751SOL    HW248093   3.887   3.574  12.073
48752SOL     OW48094  12.755   3.297   0.337
48752SOL    HW148095  12.690   3.357   0.375
48752SOL    HW248096  12.712   3.263   0.258
48753SOL     OW48097   4.443   3.938   6.179
48753SOL    HW148098   4.533   3.907   6.188
48753SOL    HW248099   4.408   3.937   6.268
48754SOL     OW48100  14.203  11.701   4.477
48754SOL    HW148101  14.259  11.625   4.458
48754SOL    HW248102  14.188  11.696   4.571
48755SOL     OW48103   2.772   3.293  10.470
48755SOL    HW148104   2.741   3.311  10.381
48755SOL    HW248105   2.867   3.307  10.465
48756SOL     OW48106   1.997   9.696  13.521
48756SOL    HW148107   2.071   9.642  13.494
48756SOL    HW248108   2.025   9.735  13.604
48757SOL     OW48109   2.874  14.424   5.877
48757SOL    HW148110   2.849  14.508   5.916
48757SOL    HW248111   2.878  14.442   5.783
48758SOL     OW48112  14.386   2.971   0.727
48758SOL    HW148113  14.292   2.982   0.714
48758SOL    HW248114  14.393   2.909   0.800
48759SOL     OW48115  12.516  10.710  12.040
48759SOL    HW148116  12.425  10.729  12.059
48759SOL    HW248117  12.539  10.770  11.970
48760SOL     OW48118   7.533   5.979   1.555
48760SOL    HW148119   7.593   6.053   1.559
48760SOL    HW248120   7.466   6.006   1.492
48761SOL     OW48121  10.854   2.428   9.929
48761SOL    HW148122  10.778   2.438   9.987
48761SOL    HW248123  10.837   2.348   9.879
48762SOL     OW48124  10.405   4.020  11.781
48762SOL    HW148125  10.496   4.044  11.799
48762SOL    HW248126  10.399   4.019  11.686
48763SOL     OW48127   9.871  12.533   3.432
48763SOL    HW148128   9.958  12.565   3.409
48763SOL    HW248129   9.816  12.560   3.358
48764SOL     OW48130   0.922   9.964  13.221
48764SOL    HW148131   0.837   9.952  13.177
48764SOL    HW248132   0.949  10.053  13.196
48765SOL     OW48133   4.402  14.398   9.335
48765SOL    HW148134   4.493  14.376   9.313
48765SOL    HW248135   4.350  14.329   9.294
48766SOL     OW48136   5.324  11.752   9.111
48766SOL    HW148137   5.376  11.709   9.179
48766SOL    HW248138   5.234  11.744   9.141
48767SOL     OW48139   9.620   8.380   2.019
48767SOL    HW148140   9.564   8.448   2.057
48767SOL    HW248141   9.564   8.338   1.953
48768SOL     OW48142   8.552   9.635   0.192
48768SOL    HW148143   8.554   9.608   0.100
48768SOL    HW248144   8.587   9.560   0.239
48769SOL     OW48145   6.519   6.811   1.997
48769SOL    HW148146   6.556   6.789   1.912
48769SOL    HW248147   6.579   6.876   2.034
48770SOL     OW48148   3.535   1.973   4.910
48770SOL    HW148149   3.505   1.924   4.986
48770SOL    HW248150   3.541   2.063   4.940
48771SOL     OW48151   8.554   0.302  13.939
48771SOL    HW148152   8.516   0.385  13.908
48771SOL    HW248153   8.622   0.282  13.875
48772SOL     OW48154   7.143   6.803  13.463
48772SOL    HW148155   7.228   6.832  13.497
48772SOL    HW248156   7.079   6.856  13.509
48773SOL     OW48157  11.167   7.050   5.139
48773SOL    HW148158  11.077   7.082   5.144
48773SOL    HW248159  11.173   7.009   5.052
48774SOL     OW48160   5.866   2.941   7.867
48774SOL    HW148161   5.821   2.919   7.949
48774SOL    HW248162   5.941   2.881   7.864
48775SOL     OW48163   5.178   0.550   0.270
48775SOL    HW148164   5.264   0.551   0.311
48775SOL    HW248165   5.136   0.630   0.300
48776SOL     OW48166   6.766  13.550   3.593
48776SOL    HW148167   6.822  13.541   3.516
48776SOL    HW248168   6.826  13.573   3.664
48777SOL     OW48169  10.495   2.156   2.621
48777SOL    HW148170  10.408   2.120   2.638
48777SOL    HW248171  10.553   2.108   2.679
48778SOL     OW48172   5.439  12.684  10.163
48778SOL    HW148173   5.507  12.624  10.195
48778SOL    HW248174   5.459  12.695  10.070
48779SOL     OW48175   0.925   1.325  13.804
48779SOL    HW148176   0.931   1.364  13.717
48779SOL    HW248177   0.832   1.319  13.822
48780SOL     OW48178  12.078   1.371  14.678
48780SOL    HW148179  12.065   1.355  14.771
48780SOL    HW248180  12.048   1.461  14.665
48781SOL     OW48181   8.138  12.708   8.474
48781SOL    HW148182   8.087  12.751   8.543
48781SOL    HW248183   8.196  12.776   8.442
48782SOL     OW48184   5.025  12.176   1.618
48782SOL    HW148185   5.056  12.089   1.643
48782SOL    HW248186   4.966  12.203   1.688
48783SOL     OW48187   8.414   1.732   4.246
48783SOL    HW148188   8.431   1.796   4.315
48783SOL    HW248189   8.347   1.675   4.282
48784SOL     OW48190   3.001   0.343   6.388
48784SOL    HW148191   3.066   0.335   6.458
48784SOL    HW248192   2.921   0.370   6.432
48785SOL     OW48193   3.503   8.597  11.790
48785SOL    HW148194   3.415   8.612  11.825
48785SOL    HW248195   3.551   8.677  11.813
48786SOL     OW48196  14.616   6.507   6.986
48786SOL    HW148197  14.583   6.458   7.062
48786SOL    HW248198  14.538   6.545   6.946
48787SOL     OW48199   5.872   2.483   8.276
48787SOL    HW148200   5.821   2.554   8.313
48787SOL    HW248201   5.810   2.433   8.222
48788SOL     OW48202   3.694   7.660   1.004
48788SOL    HW148203   3.629   7.714   1.050
48788SOL    HW248204   3.646   7.624   0.929
48789SOL     OW48205   5.446   3.556  11.522
48789SOL    HW148206   5.365   3.510  11.546
48789SOL    HW248207   5.417   3.645  11.502
48790SOL     OW48208   1.706   2.555   9.334
48790SOL    HW148209   1.686   2.603   9.415
48790SOL    HW248210   1.799   2.532   9.342
48791SOL     OW48211   7.232   1.179   3.061
48791SOL    HW148212   7.195   1.198   2.975
48791SOL    HW248213   7.294   1.250   3.076
48792SOL     OW48214  12.498   5.495   5.151
48792SOL    HW148215  12.457   5.442   5.083
48792SOL    HW248216  12.465   5.584   5.134
48793SOL     OW48217  13.223   7.575   5.072
48793SOL    HW148218  13.218   7.667   5.100
48793SOL    HW248219  13.133   7.542   5.084
48794SOL     OW48220  13.003   9.584  13.638
48794SOL    HW148221  12.983   9.674  13.611
48794SOL    HW248222  13.028   9.539  13.557
48795SOL     OW48223   7.836   6.203  11.464
48795SOL    HW148224   7.840   6.141  11.392
48795SOL    HW248225   7.761   6.259  11.444
48796SOL     OW48226   9.915   5.958   5.290
48796SOL    HW148227   9.923   5.883   5.350
48796SOL    HW248228   9.821   5.973   5.283
48797SOL     OW48229   8.855   3.105   9.336
48797SOL    HW148230   8.897   3.029   9.296
48797SOL    HW248231   8.818   3.153   9.262
48798SOL     OW48232   6.218  11.985   8.967
48798SOL    HW148233   6.246  11.943   9.048
48798SOL    HW248234   6.213  11.914   8.903
48799SOL     OW48235   4.162   4.376   7.755
48799SOL    HW148236   4.228   4.431   7.797
48799SOL    HW248237   4.086   4.433   7.746
48800SOL     OW48238   7.339   7.730   3.473
48800SOL    HW148239   7.398   7.728   3.548
48800SOL    HW248240   7.325   7.638   3.450
48801SOL     OW48241   7.039  10.747   2.620
48801SOL    HW148242   7.052  10.716   2.710
48801SOL    HW248243   6.948  10.725   2.600
48802SOL     OW48244  10.091  11.388   9.235
48802SOL    HW148245  10.141  11.310   9.259
48802SOL    HW248246  10.018  11.390   9.297
48803SOL     OW48247   5.318  11.617   8.447
48803SOL    HW148248   5.365  11.697   8.468
48803SOL    HW248249   5.369  11.547   8.488
48804SOL     OW48250   9.255   5.692  12.606
48804SOL    HW148251   9.186   5.757  12.601
48804SOL    HW248252   9.251   5.659  12.696
48805SOL     OW48253   6.755   5.741  13.636
48805SOL    HW148254   6.772   5.677  13.706
48805SOL    HW248255   6.667   5.719  13.605
48806SOL     OW48256   8.309   5.827   2.059
48806SOL    HW148257   8.295   5.915   2.093
48806SOL    HW248258   8.381   5.836   1.997
48807SOL     OW48259   5.174   9.342  13.428
48807SOL    HW148260   5.186   9.324  13.335
48807SOL    HW248261   5.097   9.399  13.431
48808SOL     OW48262   0.350   6.820   6.969
48808SOL    HW148263   0.389   6.797   7.054
48808SOL    HW248264   0.256   6.810   6.984
48809SOL     OW48265   1.107   3.612   9.505
48809SOL    HW148266   1.085   3.702   9.531
48809SOL    HW248267   1.200   3.603   9.526
48810SOL     OW48268   3.663   2.653  10.954
48810SOL    HW148269   3.616   2.589  11.008
48810SOL    HW248270   3.753   2.622  10.952
48811SOL     OW48271   3.175   1.714   1.869
48811SOL    HW148272   3.160   1.676   1.955
48811SOL    HW248273   3.157   1.643   1.808
48812SOL     OW48274   8.622   8.303   0.441
48812SOL    HW148275   8.615   8.217   0.401
48812SOL    HW248276   8.701   8.342   0.402
48813SOL     OW48277   5.427   9.224  14.701
48813SOL    HW148278   5.344   9.216  14.654
48813SOL    HW248279   5.494   9.223  14.632
48814SOL     OW48280   4.408  14.288  12.564
48814SOL    HW148281   4.466  14.310  12.637
48814SOL    HW248282   4.358  14.368  12.549
48815SOL     OW48283  10.453   6.558   7.407
48815SOL    HW148284  10.389   6.554   7.478
48815SOL    HW248285  10.520   6.493   7.430
48816SOL     OW48286  12.124   8.830  10.042
48816SOL    HW148287  12.105   8.764   9.976
48816SOL    HW248288  12.065   8.903  10.021
48817SOL     OW48289  12.679   7.203   4.933
48817SOL    HW148290  12.632   7.284   4.956
48817SOL    HW248291  12.610   7.140   4.913
48818SOL     OW48292   1.628   6.935   2.588
48818SOL    HW148293   1.623   6.950   2.682
48818SOL    HW248294   1.569   6.861   2.573
48819SOL     OW48295   7.434   1.119  13.312
48819SOL    HW148296   7.490   1.150  13.240
48819SOL    HW248297   7.474   1.158  13.390
48820SOL     OW48298  13.486   2.068   9.781
48820SOL    HW148299  13.464   2.143   9.835
48820SOL    HW248300  13.418   2.004   9.798
48821SOL     OW48301   6.203  14.055   1.572
48821SOL    HW148302   6.220  14.051   1.666
48821SOL    HW248303   6.289  14.042   1.532
48822SOL     OW48304   4.633   3.259   6.367
48822SOL    HW148305   4.578   3.264   6.289
48822SOL    HW248306   4.595   3.188   6.419
48823SOL     OW48307   8.425   2.731   1.493
48823SOL    HW148308   8.492   2.763   1.554
48823SOL    HW248309   8.473   2.675   1.432
48824SOL     OW48310  13.883  14.274   0.950
48824SOL    HW148311  13.822  14.258   1.022
48824SOL    HW248312  13.969  14.276   0.992
48825SOL     OW48313   7.278   3.812   7.710
48825SOL    HW148314   7.365   3.831   7.677
48825SOL    HW248315   7.243   3.747   7.649
48826SOL     OW48316   9.982   0.325   9.322
48826SOL    HW148317   9.921   0.392   9.289
48826SOL    HW248318   9.991   0.263   9.250
48827SOL     OW48319   4.081   6.466   8.309
48827SOL    HW148320   4.017   6.536   8.293
48827SOL    HW248321   4.161   6.512   8.334
48828SOL     OW48322   8.716   4.811   3.063
48828SOL    HW148323   8.651   4.779   3.125
48828SOL    HW248324   8.670   4.875   3.010
48829SOL     OW48325  13.319   4.667   4.631
48829SOL    HW148326  13.283   4.667   4.720
48829SOL    HW248327  13.400   4.616   4.639
48830SOL     OW48328   7.091   1.702   4.063
48830SOL    HW148329   7.099   1.659   4.148
48830SOL    HW248330   7.180   1.699   4.027
48831SOL     OW48331  13.706   8.348   5.479
48831SOL    HW148332  13.619   8.340   5.441
48831SOL    HW248333  13.690   8.379   5.569
48832SOL     OW48334  11.469   1.211  10.389
48832SOL    HW148335  11.431   1.124  10.375
48832SOL    HW248336  11.417   1.248  10.460
48833SOL     OW48337   0.172   2.283   3.417
48833SOL    HW148338   0.105   2.240   3.364
48833SOL    HW248339   0.208   2.214   3.472
48834SOL     OW48340   8.794   2.714   8.766
48834SOL    HW148341   8.784   2.657   8.690
48834SOL    HW248342   8.715   2.699   8.819
48835SOL     OW48343   7.094  10.748   6.746
48835SOL    HW148344   7.078  10.814   6.679
48835SOL    HW248345   7.108  10.799   6.826
48836SOL     OW48346   2.409   2.238   5.004
48836SOL    HW148347   2.435   2.189   4.926
48836SOL    HW248348   2.465   2.204   5.074
48837SOL     OW48349  10.835  12.135  13.856
48837SOL    HW148350  10.756  12.163  13.809
48837SOL    HW248351  10.904  12.135  13.790
48838SOL     OW48352   2.800   0.864   8.018
48838SOL    HW148353   2.815   0.784   8.068
48838SOL    HW248354   2.793   0.933   8.085
48839SOL     OW48355   8.198   1.450  12.992
48839SOL    HW148356   8.256   1.446  13.068
48839SOL    HW248357   8.258   1.450  12.917
48840SOL     OW48358   6.438  14.364  14.322
48840SOL    HW148359   6.473  14.416  14.250
48840SOL    HW248360   6.343  14.367  14.309
48841SOL     OW48361   0.988  13.731   6.676
48841SOL    HW148362   0.919  13.665   6.677
48841SOL    HW248363   0.941  13.814   6.689
48842SOL     OW48364   2.373   2.742   3.251
48842SOL    HW148365   2.412   2.736   3.163
48842SOL    HW248366   2.281   2.719   3.238
48843SOL     OW48367   3.163  10.548  11.708
48843SOL    HW148368   3.239  10.585  11.664
48843SOL    HW248369   3.198  10.473  11.757
48844SOL     OW48370  11.933  12.455   9.549
48844SOL    HW148371  11.967  12.501   9.472
48844SOL    HW248372  11.923  12.364   9.520
48845SOL     OW48373   0.746   5.358   4.086
48845SOL    HW148374   0.652   5.360   4.067
48845SOL    HW248375   0.753   5.309   4.168
48846SOL     OW48376   3.517   2.936   4.623
48846SOL    HW148377   3.528   2.848   4.660
48846SOL    HW248378   3.478   2.920   4.537
48847SOL     OW48379  13.220   0.173  12.028
48847SOL    HW148380  13.186   0.219  12.105
48847SOL    HW248381  13.148   0.175  11.965
48848SOL     OW48382   1.779   7.317   5.721
48848SOL    HW148383   1.701   7.369   5.738
48848SOL    HW248384   1.756   7.262   5.646
48849SOL     OW48385   7.336   5.923   6.597
48849SOL    HW148386   7.268   5.859   6.621
48849SOL    HW248387   7.416   5.871   6.587
48850SOL     OW48388   4.892   1.935   8.400
48850SOL    HW148389   4.805   1.972   8.386
48850SOL    HW248390   4.952   2.007   8.380
48851SOL     OW48391   7.549   0.567   9.838
48851SOL    HW148392   7.531   0.556   9.932
48851SOL    HW248393   7.623   0.509   9.821
48852SOL     OW48394   6.920   7.998   3.160
48852SOL    HW148395   7.003   8.034   3.130
48852SOL    HW248396   6.943   7.948   3.239
48853SOL     OW48397   3.309   0.805   1.580
48853SOL    HW148398   3.231   0.860   1.580
48853SOL    HW248399   3.281   0.725   1.625
48854SOL     OW48400   6.038  13.645   2.458
48854SOL    HW148401   6.040  13.740   2.448
48854SOL    HW248402   6.053  13.611   2.370
48855SOL     OW48403   1.291   6.839  11.248
48855SOL    HW148404   1.315   6.765  11.305
48855SOL    HW248405   1.270   6.798  11.164
48856SOL     OW48406  11.449  13.603   5.972
48856SOL    HW148407  11.463  13.586   5.879
48856SOL    HW248408  11.462  13.517   6.013
48857SOL     OW48409   4.516   2.389   2.251
48857SOL    HW148410   4.521   2.293   2.251
48857SOL    HW248411   4.466   2.410   2.172
48858SOL     OW48412   9.112   5.569   8.316
48858SOL    HW148413   9.200   5.583   8.281
48858SOL    HW248414   9.090   5.480   8.290
48859SOL     OW48415   0.844   4.161   9.358
48859SOL    HW148416   0.897   4.240   9.371
48859SOL    HW248417   0.877   4.124   9.276
48860SOL     OW48418  10.739   2.681   9.721
48860SOL    HW148419  10.802   2.753   9.712
48860SOL    HW248420  10.688   2.704   9.799
48861SOL     OW48421   2.095  14.738   0.257
48861SOL    HW148422   2.044  14.672   0.304
48861SOL    HW248423   2.065  14.821   0.293
48862SOL     OW48424  12.847  11.837   1.745
48862SOL    HW148425  12.803  11.872   1.668
48862SOL    HW248426  12.829  11.743   1.741
48863SOL     OW48427   9.206  12.304  12.427
48863SOL    HW148428   9.180  12.265  12.343
48863SOL    HW248429   9.131  12.289  12.484
48864SOL     OW48430   9.810   5.267   6.173
48864SOL    HW148431   9.827   5.303   6.086
48864SOL    HW248432   9.716   5.246   6.172
48865SOL     OW48433   7.463   1.644  10.317
48865SOL    HW148434   7.385   1.589  10.322
48865SOL    HW248435   7.534   1.585  10.342
48866SOL     OW48436  13.803   2.147  13.494
48866SOL    HW148437  13.889   2.185  13.510
48866SOL    HW248438  13.746   2.187  13.559
48867SOL     OW48439  12.883  11.520   4.334
48867SOL    HW148440  12.846  11.604   4.308
48867SOL    HW248441  12.821  11.485   4.398
48868SOL     OW48442  10.804   1.462  10.056
48868SOL    HW148443  10.787   1.460  10.150
48868SOL    HW248444  10.719   1.477  10.016
48869SOL     OW48445  11.906   0.747   5.704
48869SOL    HW148446  11.841   0.803   5.660
48869SOL    HW248447  11.949   0.804   5.767
48870SOL     OW48448   8.695   3.097   3.312
48870SOL    HW148449   8.790   3.107   3.300
48870SOL    HW248450   8.668   3.041   3.239
48871SOL     OW48451   3.724  14.222   5.353
48871SOL    HW148452   3.681  14.138   5.368
48871SOL    HW248453   3.817  14.206   5.373
48872SOL     OW48454   3.569   7.735   8.193
48872SOL    HW148455   3.641   7.693   8.238
48872SOL    HW248456   3.571   7.826   8.222
48873SOL     OW48457   5.936   9.418   0.984
48873SOL    HW148458   5.965   9.384   0.900
48873SOL    HW248459   5.938   9.513   0.974
48874SOL     OW48460   8.459  12.803   1.974
48874SOL    HW148461   8.437  12.873   2.035
48874SOL    HW248462   8.536  12.835   1.928
48875SOL     OW48463   5.883  10.029   3.603
48875SOL    HW148464   5.860  10.118   3.575
48875SOL    HW248465   5.977  10.033   3.622
48876SOL     OW48466  12.163   6.530   1.063
48876SOL    HW148467  12.076   6.492   1.059
48876SOL    HW248468  12.204   6.488   1.139
48877SOL     OW48469   9.674   0.226   6.356
48877SOL    HW148470   9.711   0.164   6.419
48877SOL    HW248471   9.710   0.199   6.271
48878SOL     OW48472  13.344   9.193   5.687
48878SOL    HW148473  13.338   9.246   5.766
48878SOL    HW248474  13.397   9.118   5.713
48879SOL     OW48475   5.282  10.900   3.292
48879SOL    HW148476   5.255  10.810   3.307
48879SOL    HW248477   5.201  10.947   3.274
48880SOL     OW48478  10.098  12.157   0.839
48880SOL    HW148479  10.009  12.124   0.830
48880SOL    HW248480  10.148  12.107   0.775
48881SOL     OW48481  10.228   7.288   1.502
48881SOL    HW148482  10.225   7.193   1.497
48881SOL    HW248483  10.230   7.308   1.596
48882SOL     OW48484   2.708   0.989  14.574
48882SOL    HW148485   2.641   1.011  14.510
48882SOL    HW248486   2.707   0.893  14.578
48883SOL     OW48487   9.850   2.184   1.515
48883SOL    HW148488   9.772   2.220   1.558
48883SOL    HW248489   9.908   2.259   1.506
48884SOL     OW48490  11.491   8.664  10.246
48884SOL    HW148491  11.401   8.644  10.222
48884SOL    HW248492  11.484   8.718  10.324
48885SOL     OW48493   5.513   7.031   5.554
48885SOL    HW148494   5.490   7.122   5.536
48885SOL    HW248495   5.499   6.986   5.471
48886SOL     OW48496   7.542  11.812  12.020
48886SOL    HW148497   7.460  11.835  12.063
48886SOL    HW248498   7.559  11.722  12.047
48887SOL     OW48499  11.303  10.461   6.648
48887SOL    HW148500  11.237  10.401   6.682
48887SOL    HW248501  11.256  10.541   6.627
48888SOL     OW48502   6.404   7.279   6.848
48888SOL    HW148503   6.324   7.227   6.839
48888SOL    HW248504   6.407   7.303   6.941
48889SOL     OW48505   3.530   1.444   3.994
48889SOL    HW148506   3.434   1.444   3.994
48889SOL    HW248507   3.555   1.369   4.047
48890SOL     OW48508  13.463   5.140  14.090
48890SOL    HW148509  13.398   5.070  14.088
48890SOL    HW248510  13.527   5.114  14.023
48891SOL     OW48511  11.247   0.870   8.435
48891SOL    HW148512  11.191   0.792   8.441
48891SOL    HW248513  11.282   0.867   8.346
48892SOL     OW48514   6.627   8.734  12.806
48892SOL    HW148515   6.664   8.743  12.719
48892SOL    HW248516   6.561   8.666  12.797
48893SOL     OW48517  14.112   3.144   0.028
48893SOL    HW148518  14.053   3.079   0.068
48893SOL    HW248519  14.107   3.126  14.814
48894SOL     OW48520   9.780  12.015   7.907
48894SOL    HW148521   9.812  11.925   7.899
48894SOL    HW248522   9.769  12.028   8.001
48895SOL     OW48523  12.410   1.890  13.785
48895SOL    HW148524  12.417   1.985  13.772
48895SOL    HW248525  12.324   1.867  13.752
48896SOL     OW48526   4.485   5.661   1.326
48896SOL    HW148527   4.437   5.671   1.408
48896SOL    HW248528   4.572   5.696   1.344
48897SOL     OW48529   4.171   4.341  10.594
48897SOL    HW148530   4.167   4.274  10.662
48897SOL    HW248531   4.248   4.317  10.542
48898SOL     OW48532   9.477  11.115   0.149
48898SOL    HW148533   9.416  11.086   0.081
48898SOL    HW248534   9.563  11.108   0.108
48899SOL     OW48535   8.021   8.114  11.399
48899SOL    HW148536   7.944   8.162  11.369
48899SOL    HW248537   8.002   8.093  11.490
48900SOL     OW48538   1.767   1.594   7.805
48900SOL    HW148539   1.680   1.588   7.843
48900SOL    HW248540   1.775   1.685   7.777
48901SOL     OW48541   4.799  13.674   9.072
48901SOL    HW148542   4.850  13.633   9.142
48901SOL    HW248543   4.859  13.680   8.998
48902SOL     OW48544   6.382  13.894   8.212
48902SOL    HW148545   6.400  13.985   8.186
48902SOL    HW248546   6.364  13.849   8.130
48903SOL     OW48547  13.644   5.841   3.722
48903SOL    HW148548  13.631   5.924   3.768
48903SOL    HW248549  13.569   5.787   3.748
48904SOL     OW48550   5.643   4.414  10.395
48904SOL    HW148551   5.675   4.324  10.395
48904SOL    HW248552   5.548   4.407  10.401
48905SOL     OW48553   4.303  12.318   9.546
48905SOL    HW148554   4.244  12.388   9.519
48905SOL    HW248555   4.290  12.250   9.480
48906SOL     OW48556   9.791   8.099  10.273
48906SOL    HW148557   9.777   8.054  10.356
48906SOL    HW248558   9.722   8.166  10.270
48907SOL     OW48559  13.963   1.608   3.576
48907SOL    HW148560  13.962   1.701   3.598
48907SOL    HW248561  13.913   1.566   3.646
48908SOL     OW48562  10.933   1.865  14.321
48908SOL    HW148563  10.937   1.824  14.234
48908SOL    HW248564  10.905   1.955  14.303
48909SOL     OW48565  14.560   5.946  13.949
48909SOL    HW148566  14.583   5.949  14.042
48909SOL    HW248567  14.640   5.974  13.905
48910SOL     OW48568   3.371   6.229   0.789
48910SOL    HW148569   3.276   6.240   0.781
48910SOL    HW248570   3.388   6.245   0.882
48911SOL     OW48571   6.196   9.642  13.400
48911SOL    HW148572   6.186   9.621  13.307
48911SOL    HW248573   6.167   9.563  13.445
48912SOL     OW48574   0.855   7.353   7.577
48912SOL    HW148575   0.793   7.407   7.527
48912SOL    HW248576   0.885   7.411   7.646
48913SOL     OW48577  13.104   8.660   4.574
48913SOL    HW148578  13.075   8.621   4.492
48913SOL    HW248579  13.117   8.586   4.633
48914SOL     OW48580   7.785   1.435  11.484
48914SOL    HW148581   7.859   1.431  11.544
48914SOL    HW248582   7.731   1.360  11.507
48915SOL     OW48583  10.738   5.880   2.355
48915SOL    HW148584  10.801   5.837   2.413
48915SOL    HW248585  10.772   5.968   2.343
48916SOL     OW48586   1.323   0.893   6.456
48916SOL    HW148587   1.314   0.978   6.413
48916SOL    HW248588   1.264   0.898   6.532
48917SOL     OW48589   4.926   4.596   2.827
48917SOL    HW148590   4.978   4.566   2.902
48917SOL    HW248591   4.861   4.527   2.814
48918SOL     OW48592   8.052   8.367   2.245
48918SOL    HW148593   8.007   8.444   2.281
48918SOL    HW248594   7.986   8.298   2.245
48919SOL     OW48595   2.770   9.651   3.282
48919SOL    HW148596   2.857   9.640   3.244
48919SOL    HW248597   2.775   9.609   3.367
48920SOL     OW48598   6.471   1.175   2.762
48920SOL    HW148599   6.452   1.098   2.708
48920SOL    HW248600   6.497   1.140   2.847
48921SOL     OW48601  11.123   6.461  14.601
48921SOL    HW148602  11.183   6.535  14.592
48921SOL    HW248603  11.140   6.407  14.524
48922SOL     OW48604   8.776   3.250   2.958
48922SOL    HW148605   8.722   3.171   2.963
48922SOL    HW248606   8.713   3.322   2.956
48923SOL     OW48607   1.179   5.198   9.376
48923SOL    HW148608   1.213   5.254   9.306
48923SOL    HW248609   1.144   5.121   9.330
48924SOL     OW48610   4.411   3.619   3.521
48924SOL    HW148611   4.395   3.712   3.541
48924SOL    HW248612   4.496   3.600   3.561
48925SOL     OW48613   4.513   7.933  13.519
48925SOL    HW148614   4.433   7.885  13.539
48925SOL    HW248615   4.543   7.966  13.604
48926SOL     OW48616   9.331  10.990   3.755
48926SOL    HW148617   9.273  10.998   3.679
48926SOL    HW248618   9.336  10.896   3.772
48927SOL     OW48619   2.165   4.322  10.937
48927SOL    HW148620   2.155   4.256  10.867
48927SOL    HW248621   2.160   4.406  10.891
48928SOL     OW48622   4.518   2.222   5.902
48928SOL    HW148623   4.468   2.276   5.840
48928SOL    HW248624   4.452   2.185   5.960
48929SOL     OW48625   6.353   4.993   2.702
48929SOL    HW148626   6.392   5.072   2.666
48929SOL    HW248627   6.403   4.921   2.664
48930SOL     OW48628  12.355   8.516  12.854
48930SOL    HW148629  12.362   8.577  12.780
48930SOL    HW248630  12.288   8.454  12.827
48931SOL     OW48631  10.511  11.131  10.513
48931SOL    HW148632  10.517  11.036  10.500
48931SOL    HW248633  10.583  11.152  10.572
48932SOL     OW48634   8.864  10.316   5.198
48932SOL    HW148635   8.905  10.401   5.214
48932SOL    HW248636   8.838  10.319   5.106
48933SOL     OW48637   2.690   5.291  11.131
48933SOL    HW148638   2.770   5.332  11.097
48933SOL    HW248639   2.715   5.200  11.147
48934SOL     OW48640   6.864   6.719   2.151
48934SOL    HW148641   6.906   6.774   2.217
48934SOL    HW248642   6.865   6.631   2.187
48935SOL     OW48643  11.987  14.108   8.787
48935SOL    HW148644  12.041  14.133   8.862
48935SOL    HW248645  11.975  14.013   8.796
48936SOL     OW48646   0.656   1.209   8.404
48936SOL    HW148647   0.646   1.129   8.456
48936SOL    HW248648   0.737   1.249   8.436
48937SOL     OW48649   4.418   3.161   3.005
48937SOL    HW148650   4.361   3.231   3.037
48937SOL    HW248651   4.500   3.174   3.053
48938SOL     OW48652   3.291   2.873   2.429
48938SOL    HW148653   3.270   2.798   2.484
48938SOL    HW248654   3.229   2.867   2.356
48939SOL     OW48655   1.034   8.364   7.755
48939SOL    HW148656   1.024   8.279   7.712
48939SOL    HW248657   0.982   8.357   7.835
48940SOL     OW48658   3.111   8.309   1.077
48940SOL    HW148659   3.157   8.245   1.131
48940SOL    HW248660   3.138   8.394   1.111
48941SOL     OW48661   0.205  12.164   9.009
48941SOL    HW148662   0.208  12.180   9.103
48941SOL    HW248663   0.124  12.115   8.995
48942SOL     OW48664  10.026   0.009  10.286
48942SOL    HW148665  10.115  14.852  10.288
48942SOL    HW248666  10.001   0.005  10.193
48943SOL     OW48667   3.960   7.835   2.862
48943SOL    HW148668   3.963   7.909   2.923
48943SOL    HW248669   3.870   7.835   2.829
48944SOL     OW48670   2.521   5.690  10.235
48944SOL    HW148671   2.563   5.610  10.204
48944SOL    HW248672   2.541   5.693  10.329
48945SOL     OW48673  12.490   8.503  13.396
48945SOL    HW148674  12.583   8.485  13.405
48945SOL    HW248675  12.480   8.533  13.305
48946SOL     OW48676   8.643   2.232   3.362
48946SOL    HW148677   8.591   2.152   3.370
48946SOL    HW248678   8.669   2.233   3.270
48947SOL     OW48679   1.297   1.973   1.878
48947SOL    HW148680   1.309   1.919   1.956
48947SOL    HW248681   1.213   2.017   1.892
48948SOL     OW48682   1.455   3.003   8.596
48948SOL    HW148683   1.415   3.090   8.601
48948SOL    HW248684   1.542   3.019   8.561
48949SOL     OW48685   9.342  14.005  14.397
48949SOL    HW148686   9.395  14.012  14.477
48949SOL    HW248687   9.402  13.970  14.332
48950SOL     OW48688   4.030  14.101   0.416
48950SOL    HW148689   4.095  14.169   0.396
48950SOL    HW248690   3.998  14.123   0.504
48951SOL     OW48691   5.732   6.135   4.438
48951SOL    HW148692   5.767   6.168   4.355
48951SOL    HW248693   5.715   6.043   4.421
48952SOL     OW48694  12.072   9.206   1.001
48952SOL    HW148695  12.017   9.183   0.926
48952SOL    HW248696  12.113   9.124   1.028
48953SOL     OW48697   4.805   0.624   8.120
48953SOL    HW148698   4.838   0.539   8.093
48953SOL    HW248699   4.710   0.618   8.109
48954SOL     OW48700   7.810   1.022   1.642
48954SOL    HW148701   7.896   0.984   1.630
48954SOL    HW248702   7.801   1.086   1.572
48955SOL     OW48703   4.672   5.061   5.118
48955SOL    HW148704   4.666   4.986   5.059
48955SOL    HW248705   4.665   5.137   5.061
48956SOL     OW48706   9.155   3.002  13.116
48956SOL    HW148707   9.168   3.029  13.025
48956SOL    HW248708   9.066   2.967  13.118
48957SOL     OW48709   0.147   9.595   0.101
48957SOL    HW148710   0.133   9.686   0.074
48957SOL    HW248711   0.147   9.545   0.019
48958SOL     OW48712   5.517  12.912   5.615
48958SOL    HW148713   5.457  12.983   5.589
48958SOL    HW248714   5.504  12.844   5.549
48959SOL     OW48715  12.020   4.332   2.041
48959SOL    HW148716  11.964   4.379   1.979
48959SOL    HW248717  11.967   4.258   2.070
48960SOL     OW48718  14.515  12.568  13.728
48960SOL    HW148719  14.506  12.663  13.728
48960SOL    HW248720  14.608  12.552  13.712
48961SOL     OW48721  11.659   9.615   4.033
48961SOL    HW148722  11.706   9.588   3.953
48961SOL    HW248723  11.570   9.584   4.020
48962SOL     OW48724  10.898   5.728  10.623
48962SOL    HW148725  10.873   5.801  10.567
48962SOL    HW248726  10.823   5.668  10.619
48963SOL     OW48727  13.883   1.852  10.864
48963SOL    HW148728  13.856   1.918  10.928
48963SOL    HW248729  13.816   1.855  10.796
48964SOL     OW48730   7.776   4.291   3.280
48964SOL    HW148731   7.831   4.308   3.204
48964SOL    HW248732   7.686   4.305   3.249
48965SOL     OW48733  13.611   0.178  14.287
48965SOL    HW148734  13.562   0.231  14.350
48965SOL    HW248735  13.616   0.091  14.326
48966SOL     OW48736   6.839   0.336  11.126
48966SOL    HW148737   6.856   0.278  11.052
48966SOL    HW248738   6.748   0.318  11.151
48967SOL     OW48739   4.797  10.090   9.102
48967SOL    HW148740   4.758  10.093   9.014
48967SOL    HW248741   4.778  10.177   9.139
48968SOL     OW48742   1.333   7.155   1.379
48968SOL    HW148743   1.268   7.211   1.423
48968SOL    HW248744   1.345   7.196   1.293
48969SOL     OW48745  12.725   8.332   0.669
48969SOL    HW148746  12.700   8.381   0.591
48969SOL    HW248747  12.647   8.334   0.725
48970SOL     OW48748   2.375  14.025  10.258
48970SOL    HW148749   2.440  14.068  10.203
48970SOL    HW248750   2.293  14.033  10.209
48971SOL     OW48751   9.255   7.665  10.472
48971SOL    HW148752   9.321   7.731  10.495
48971SOL    HW248753   9.277   7.589  10.526
48972SOL     OW48754   9.623   8.292  14.386
48972SOL    HW148755   9.625   8.196  14.384
48972SOL    HW248756   9.633   8.314  14.478
48973SOL     OW48757   7.939   6.208   3.896
48973SOL    HW148758   8.010   6.258   3.857
48973SOL    HW248759   7.908   6.151   3.826
48974SOL     OW48760   4.615  12.174   0.425
48974SOL    HW148761   4.704  12.206   0.417
48974SOL    HW248762   4.590  12.150   0.335
48975SOL     OW48763   1.156   7.568   1.694
48975SOL    HW148764   1.195   7.567   1.606
48975SOL    HW248765   1.116   7.482   1.704
48976SOL     OW48766   7.122   9.380   2.452
48976SOL    HW148767   7.164   9.345   2.530
48976SOL    HW248768   7.192   9.427   2.406
48977SOL     OW48769  10.372   9.651   0.984
48977SOL    HW148770  10.406   9.608   1.063
48977SOL    HW248771  10.280   9.667   1.003
48978SOL     OW48772   6.334   1.222  14.790
48978SOL    HW148773   6.260   1.189  14.739
48978SOL    HW248774   6.307   1.210   0.002
48979SOL     OW48775   3.519   7.782   6.508
48979SOL    HW148776   3.567   7.775   6.425
48979SOL    HW248777   3.546   7.704   6.558
48980SOL     OW48778  12.335   8.726   2.015
48980SOL    HW148779  12.399   8.724   1.944
48980SOL    HW248780  12.331   8.636   2.046
48981SOL     OW48781   1.514   5.945  13.305
48981SOL    HW148782   1.467   5.947  13.221
48981SOL    HW248783   1.606   5.938  13.281
48982SOL     OW48784  13.934  10.897   0.171
48982SOL    HW148785  13.920  10.989   0.151
48982SOL    HW248786  14.027  10.882   0.153
48983SOL     OW48787   5.284   3.059   6.908
48983SOL    HW148788   5.334   2.978   6.916
48983SOL    HW248789   5.240   3.052   6.823
48984SOL     OW48790   8.899  10.025   0.703
48984SOL    HW148791   8.975   9.985   0.746
48984SOL    HW248792   8.894   9.983   0.618
48985SOL     OW48793   2.413   2.641  12.452
48985SOL    HW148794   2.389   2.596  12.371
48985SOL    HW248795   2.425   2.570  12.516
48986SOL     OW48796   4.072   8.848   3.599
48986SOL    HW148797   4.130   8.875   3.528
48986SOL    HW248798   4.027   8.928   3.627
48987SOL     OW48799   0.166   8.442   2.817
48987SOL    HW148800   0.071   8.438   2.806
48987SOL    HW248801   0.186   8.535   2.817
48988SOL     OW48802   5.064   9.502   9.419
48988SOL    HW148803   5.020   9.537   9.496
48988SOL    HW248804   5.154   9.485   9.448
48989SOL     OW48805   6.532   6.595  12.257
48989SOL    HW148806   6.585   6.527  12.216
48989SOL    HW248807   6.498   6.647  12.185
48990SOL     OW48808   6.270   1.475  12.644
48990SOL    HW148809   6.341   1.411  12.648
48990SOL    HW248810   6.192   1.426  12.670
48991SOL     OW48811   1.946  14.563   0.464
48991SOL    HW148812   1.898  14.642   0.486
48991SOL    HW248813   2.033  14.576   0.502
48992SOL     OW48814  14.471   3.939  11.128
48992SOL    HW148815  14.380   3.965  11.109
48992SOL    HW248816  14.463   3.871  11.194
48993SOL     OW48817   3.892  11.039   9.986
48993SOL    HW148818   3.837  11.080  10.053
48993SOL    HW248819   3.830  10.998   9.926
48994SOL     OW48820   3.990   1.691   0.388
48994SOL    HW148821   3.976   1.617   0.446
48994SOL    HW248822   4.007   1.765   0.447
48995SOL     OW48823   2.924  10.009   6.602
48995SOL    HW148824   2.905  10.018   6.508
48995SOL    HW248825   3.019  10.000   6.606
48996SOL     OW48826   8.952  13.901  12.729
48996SOL    HW148827   8.865  13.941  12.723
48996SOL    HW248828   8.936  13.807  12.723
48997SOL     OW48829   9.964  13.839  14.334
48997SOL    HW148830  10.031  13.825  14.267
48997SOL    HW248831   9.890  13.786  14.306
48998SOL     OW48832   8.827  12.932  14.660
48998SOL    HW148833   8.749  12.892  14.619
48998SOL    HW248834   8.825  12.901  14.750
48999SOL     OW48835   8.717  12.857   2.603
48999SOL    HW148836   8.712  12.802   2.525
48999SOL    HW248837   8.656  12.817   2.665
49000SOL     OW48838   0.056  10.533   3.827
49000SOL    HW148839   0.031  10.625   3.832
49000SOL    HW248840  14.870  10.487   3.880
49001SOL     OW48841   3.536  14.340  11.711
49001SOL    HW148842   3.543  14.297  11.796
49001SOL    HW248843   3.532  14.269  11.647
49002SOL     OW48844  10.174   5.371   6.205
49002SOL    HW148845  10.136   5.283   6.210
49002SOL    HW248846  10.099   5.429   6.189
49003SOL     OW48847   2.344   7.001   3.454
49003SOL    HW148848   2.341   6.920   3.403
49003SOL    HW248849   2.255   7.036   3.448
49004SOL     OW48850  11.622  10.710   6.848
49004SOL    HW148851  11.529  10.690   6.858
49004SOL    HW248852  11.648  10.664   6.768
49005SOL     OW48853  10.890   7.863   5.612
49005SOL    HW148854  10.836   7.877   5.534
49005SOL    HW248855  10.953   7.796   5.586
49006SOL     OW48856  10.682   0.380   7.828
49006SOL    HW148857  10.643   0.295   7.847
49006SOL    HW248858  10.655   0.436   7.901
49007SOL     OW48859   7.134   4.804   6.860
49007SOL    HW148860   7.175   4.807   6.947
49007SOL    HW248861   7.042   4.783   6.878
49008SOL     OW48862   4.358  13.232  12.343
49008SOL    HW148863   4.284  13.240  12.403
49008SOL    HW248864   4.353  13.311  12.289
49009SOL     OW48865  10.006   3.660   2.529
49009SOL    HW148866   9.954   3.605   2.588
49009SOL    HW248867   9.947   3.732   2.506
49010SOL     OW48868   9.970  14.649  12.175
49010SOL    HW148869   9.889  14.667  12.128
49010SOL    HW248870   9.959  14.693  12.259
49011SOL     OW48871  11.861   7.373   8.688
49011SOL    HW148872  11.866   7.413   8.601
49011SOL    HW248873  11.768   7.370   8.708
49012SOL     OW48874   0.042   3.759  14.613
49012SOL    HW148875   0.116   3.748  14.552
49012SOL    HW248876   0.034   3.854  14.624
49013SOL     OW48877  13.004   3.293   6.436
49013SOL    HW148878  12.944   3.338   6.377
49013SOL    HW248879  13.058   3.239   6.379
49014SOL     OW48880   5.354   9.580  14.118
49014SOL    HW148881   5.410   9.530  14.177
49014SOL    HW248882   5.276   9.527  14.107
49015SOL     OW48883   9.178   1.342  13.066
49015SOL    HW148884   9.180   1.430  13.105
49015SOL    HW248885   9.087   1.329  13.040
49016SOL     OW48886   8.556   3.414  12.800
49016SOL    HW148887   8.583   3.324  12.816
49016SOL    HW248888   8.579   3.431  12.709
49017SOL     OW48889   4.479   0.522   0.236
49017SOL    HW148890   4.519   0.481   0.159
49017SOL    HW248891   4.539   0.594   0.258
49018SOL     OW48892   2.875  13.265  14.001
49018SOL    HW148893   2.801  13.317  13.969
49018SOL    HW248894   2.952  13.306  13.963
49019SOL     OW48895   3.878  13.939  10.226
49019SOL    HW148896   3.918  14.009  10.174
49019SOL    HW248897   3.885  13.970  10.317
49020SOL     OW48898   0.843  10.370   7.511
49020SOL    HW148899   0.758  10.353   7.471
49020SOL    HW248900   0.824  10.426   7.586
49021SOL     OW48901   9.824  10.215   6.269
49021SOL    HW148902   9.821  10.137   6.213
49021SOL    HW248903   9.910  10.253   6.252
49022SOL     OW48904  11.874   3.172   1.803
49022SOL    HW148905  11.925   3.187   1.883
49022SOL    HW248906  11.817   3.249   1.797
49023SOL     OW48907   7.783   5.867   5.166
49023SOL    HW148908   7.711   5.813   5.134
49023SOL    HW248909   7.831   5.893   5.087
49024SOL     OW48910  11.345   9.039  13.358
49024SOL    HW148911  11.262   9.086  13.349
49024SOL    HW248912  11.412   9.102  13.334
49025SOL     OW48913  11.873   7.495   2.313
49025SOL    HW148914  11.876   7.451   2.397
49025SOL    HW248915  11.815   7.442   2.259
49026SOL     OW48916  12.956   8.089   9.822
49026SOL    HW148917  12.931   8.067   9.733
49026SOL    HW248918  12.875   8.081   9.873
49027SOL     OW48919   9.918  10.247  10.274
49027SOL    HW148920   9.936  10.176  10.213
49027SOL    HW248921   9.994  10.249  10.332
49028SOL     OW48922   6.738  11.281   9.467
49028SOL    HW148923   6.765  11.341   9.397
49028SOL    HW248924   6.654  11.246   9.437
49029SOL     OW48925  12.173   3.450  12.114
49029SOL    HW148926  12.134   3.500  12.185
49029SOL    HW248927  12.221   3.380  12.157
49030SOL     OW48928   8.672  10.037   9.818
49030SOL    HW148929   8.637   9.979   9.750
49030SOL    HW248930   8.747  10.080   9.778
49031SOL     OW48931  12.552   8.268   1.900
49031SOL    HW148932  12.549   8.357   1.866
49031SOL    HW248933  12.637   8.261   1.943
49032SOL     OW48934   0.281   2.041   7.824
49032SOL    HW148935   0.338   1.966   7.840
49032SOL    HW248936   0.226   2.015   7.750
49033SOL     OW48937   8.198   0.744   4.087
49033SOL    HW148938   8.135   0.674   4.106
49033SOL    HW248939   8.220   0.731   3.995
49034SOL     OW48940   3.607   5.025  12.294
49034SOL    HW148941   3.683   5.022  12.235
49034SOL    HW248942   3.642   5.001  12.379
49035SOL     OW48943   3.503   8.715  12.965
49035SOL    HW148944   3.556   8.636  12.975
49035SOL    HW248945   3.413   8.683  12.960
49036SOL     OW48946   5.840   2.233  11.152
49036SOL    HW148947   5.826   2.289  11.075
49036SOL    HW248948   5.774   2.164  11.144
49037SOL     OW48949   9.417   7.194  10.594
49037SOL    HW148950   9.368   7.119  10.626
49037SOL    HW248951   9.493   7.156  10.549
49038SOL     OW48952   4.522   7.211   7.011
49038SOL    HW148953   4.446   7.270   7.009
49038SOL    HW248954   4.493   7.137   7.063
49039SOL     OW48955  14.267   4.796   8.678
49039SOL    HW148956  14.231   4.831   8.759
49039SOL    HW248957  14.316   4.868   8.639
49040SOL     OW48958  12.784  11.079  12.038
49040SOL    HW148959  12.743  11.050  11.956
49040SOL    HW248960  12.739  11.030  12.106
49041SOL     OW48961  14.810   6.589  11.040
49041SOL    HW148962  14.743   6.645  11.001
49041SOL    HW248963   0.005   6.647  11.056
49042SOL     OW48964  12.429   3.718  10.790
49042SOL    HW148965  12.393   3.788  10.737
49042SOL    HW248966  12.353   3.671  10.823
49043SOL     OW48967  11.253   1.370  12.849
49043SOL    HW148968  11.200   1.297  12.882
49043SOL    HW248969  11.213   1.448  12.887
49044SOL     OW48970   6.834   9.755   4.491
49044SOL    HW148971   6.739   9.747   4.483
49044SOL    HW248972   6.850   9.759   4.586
49045SOL     OW48973   0.207   3.902  10.942
49045SOL    HW148974   0.179   3.914  10.851
49045SOL    HW248975   0.260   3.979  10.961
49046SOL     OW48976   5.039   9.606   6.669
49046SOL    HW148977   5.084   9.535   6.715
49046SOL    HW248978   5.062   9.685   6.718
49047SOL     OW48979  14.415  14.213  14.041
49047SOL    HW148980  14.362  14.227  14.119
49047SOL    HW248981  14.473  14.141  14.065
49048SOL     OW48982   1.890   2.762  10.426
49048SOL    HW148983   1.932   2.691  10.474
49048SOL    HW248984   1.802   2.728  10.405
49049SOL     OW48985   6.771  12.192   2.513
49049SOL    HW148986   6.856  12.232   2.533
49049SOL    HW248987   6.726  12.257   2.458
49050SOL     OW48988   0.171   7.565  10.768
49050SOL    HW148989   0.143   7.580  10.678
49050SOL    HW248990   0.149   7.646  10.814
49051SOL     OW48991   0.818  14.197  11.935
49051SOL    HW148992   0.810  14.286  11.899
49051SOL    HW248993   0.830  14.210  12.029
49052SOL     OW48994   1.952  11.931   6.964
49052SOL    HW148995   1.858  11.942   6.954
49052SOL    HW248996   1.984  11.913   6.876
49053SOL     OW48997   3.361   4.349   5.871
49053SOL    HW148998   3.426   4.347   5.941
49053SOL    HW248999   3.277   4.356   5.916
49054SOL     OW49000   5.022  13.950   1.073
49054SOL    HW149001   5.085  13.964   1.002
49054SOL    HW249002   4.940  13.931   1.029
49055SOL     OW49003   8.170   5.331   9.828
49055SOL    HW149004   8.106   5.365   9.765
49055SOL    HW249005   8.158   5.236   9.825
49056SOL     OW49006   4.485   0.948  13.220
49056SOL    HW149007   4.429   0.870  13.219
49056SOL    HW249008   4.443   1.008  13.158
49057SOL     OW49009   7.556   5.666   6.275
49057SOL    HW149010   7.521   5.686   6.188
49057SOL    HW249011   7.649   5.689   6.269
49058SOL     OW49012  11.517  13.298   5.342
49058SOL    HW149013  11.432  13.331   5.314
49058SOL    HW249014  11.497  13.228   5.404
49059SOL     OW49015  10.073  10.071  10.750
49059SOL    HW149016  10.079  10.120  10.833
49059SOL    HW249017  10.127   9.994  10.764
49060SOL     OW49018   3.076   7.677   9.927
49060SOL    HW149019   3.070   7.589   9.963
49060SOL    HW249020   3.070   7.665   9.832
49061SOL     OW49021   9.354   0.296  10.480
49061SOL    HW149022   9.418   0.305  10.409
49061SOL    HW249023   9.269   0.310  10.438
49062SOL     OW49024  14.580  14.110   6.004
49062SOL    HW149025  14.549  14.136   5.918
49062SOL    HW249026  14.533  14.029   6.024
49063SOL     OW49027   0.396  14.127  11.777
49063SOL    HW149028   0.345  14.155  11.701
49063SOL    HW249029   0.344  14.058  11.817
49064SOL     OW49030  11.340   6.377  10.607
49064SOL    HW149031  11.308   6.295  10.570
49064SOL    HW249032  11.352   6.358  10.700
49065SOL     OW49033   1.104   3.447   4.770
49065SOL    HW149034   1.030   3.501   4.799
49065SOL    HW249035   1.152   3.427   4.850
49066SOL     OW49036   0.813   6.025   9.896
49066SOL    HW149037   0.899   6.051   9.929
49066SOL    HW249038   0.822   6.026   9.801
49067SOL     OW49039  12.488  12.998   0.260
49067SOL    HW149040  12.457  12.963   0.344
49067SOL    HW249041  12.537  13.077   0.284
49068SOL     OW49042   6.451  13.151  13.859
49068SOL    HW149043   6.507  13.184  13.931
49068SOL    HW249044   6.372  13.120  13.903
49069SOL     OW49045   6.939  10.278  14.647
49069SOL    HW149046   6.999  10.353  14.648
49069SOL    HW249047   6.994  10.204  14.622
49070SOL     OW49048   9.434   7.549   4.405
49070SOL    HW149049   9.395   7.611   4.343
49070SOL    HW249050   9.518   7.526   4.366
49071SOL     OW49051   5.766   8.208  11.460
49071SOL    HW149052   5.834   8.188  11.395
49071SOL    HW249053   5.739   8.297  11.440
49072SOL     OW49054   0.660   6.071  10.645
49072SOL    HW149055   0.617   5.991  10.614
49072SOL    HW249056   0.587   6.127  10.674
49073SOL     OW49057   3.747   1.285   5.041
49073SOL    HW149058   3.674   1.245   5.089
49073SOL    HW249059   3.822   1.275   5.100
49074SOL     OW49060  10.308   2.524   6.612
49074SOL    HW149061  10.361   2.467   6.668
49074SOL    HW249062  10.219   2.490   6.622
49075SOL     OW49063  10.852  12.311   8.028
49075SOL    HW149064  10.787  12.247   8.055
49075SOL    HW249065  10.936  12.270   8.050
49076SOL     OW49066   0.572   4.662   2.054
49076SOL    HW149067   0.623   4.584   2.073
49076SOL    HW249068   0.530   4.644   1.971
49077SOL     OW49069  13.014   8.626   9.206
49077SOL    HW149070  13.064   8.610   9.286
49077SOL    HW249071  13.027   8.719   9.187
49078SOL     OW49072   0.627   1.413   7.792
49078SOL    HW149073   0.566   1.465   7.740
49078SOL    HW249074   0.571   1.351   7.839
49079SOL     OW49075   7.853   9.004   9.456
49079SOL    HW149076   7.912   8.937   9.422
49079SOL    HW249077   7.889   9.087   9.425
49080SOL     OW49078   7.124   8.886   3.610
49080SOL    HW149079   7.137   8.899   3.516
49080SOL    HW249080   7.035   8.917   3.627
49081SOL     OW49081   5.738   9.907  14.615
49081SOL    HW149082   5.778   9.975  14.562
49081SOL    HW249083   5.717   9.837  14.553
49082SOL     OW49084  13.726   0.638  12.769
49082SOL    HW149085  13.732   0.725  12.809
49082SOL    HW249086  13.776   0.581  12.827
49083SOL     OW49087   7.233   8.861  11.732
49083SOL    HW149088   7.192   8.899  11.654
49083SOL    HW249089   7.163   8.860  11.797
49084SOL     OW49090   6.577  14.169   7.193
49084SOL    HW149091   6.547  14.223   7.266
49084SOL    HW249092   6.543  14.082   7.211
49085SOL     OW49093  10.678  12.232   1.167
49085SOL    HW149094  10.722  12.175   1.104
49085SOL    HW249095  10.667  12.315   1.120
49086SOL     OW49096   0.352  13.058   9.899
49086SOL    HW149097   0.406  13.016   9.832
49086SOL    HW249098   0.318  12.986   9.951
49087SOL     OW49099   9.523   2.170   8.266
49087SOL    HW149100   9.607   2.150   8.307
49087SOL    HW249101   9.543   2.237   8.201
49088SOL     OW49102  11.180   7.323  14.380
49088SOL    HW149103  11.117   7.260  14.414
49088SOL    HW249104  11.263   7.297  14.420
49089SOL     OW49105   5.401  12.774   2.260
49089SOL    HW149106   5.359  12.857   2.237
49089SOL    HW249107   5.342  12.733   2.323
49090SOL     OW49108   5.024  13.565  11.845
49090SOL    HW149109   5.086  13.601  11.909
49090SOL    HW249110   4.995  13.642  11.796
49091SOL     OW49111   0.629  12.089  11.979
49091SOL    HW149112   0.666  12.139  12.051
49091SOL    HW249113   0.705  12.053  11.933
49092SOL     OW49114   4.405   8.797   4.958
49092SOL    HW149115   4.480   8.809   5.016
49092SOL    HW249116   4.409   8.872   4.898
49093SOL     OW49117  13.611  12.561   1.776
49093SOL    HW149118  13.524  12.528   1.755
49093SOL    HW249119  13.670  12.512   1.718
49094SOL     OW49120   4.702   8.418   7.678
49094SOL    HW149121   4.650   8.470   7.617
49094SOL    HW249122   4.639   8.383   7.740
49095SOL     OW49123   3.165  10.392  12.910
49095SOL    HW149124   3.168  10.349  12.996
49095SOL    HW249125   3.101  10.462  12.921
49096SOL     OW49126  14.809  10.949   0.893
49096SOL    HW149127  14.795  10.982   0.804
49096SOL    HW249128  14.796  10.855   0.887
49097SOL     OW49129   8.362   4.870  12.281
49097SOL    HW149130   8.433   4.806  12.291
49097SOL    HW249131   8.282   4.817  12.284
49098SOL     OW49132  13.530  10.974   6.668
49098SOL    HW149133  13.614  10.936   6.693
49098SOL    HW249134  13.490  11.002   6.751
49099SOL     OW49135   5.298   0.892  11.565
49099SOL    HW149136   5.267   0.938  11.643
49099SOL    HW249137   5.313   0.802  11.594
49100SOL     OW49138   9.710   5.744   4.054
49100SOL    HW149139   9.717   5.708   3.965
49100SOL    HW249140   9.753   5.679   4.110
49101SOL     OW49141   3.209   7.545  12.075
49101SOL    HW149142   3.284   7.584  12.030
49101SOL    HW249143   3.248   7.481  12.134
49102SOL     OW49144   6.975   2.142   6.358
49102SOL    HW149145   7.048   2.184   6.403
49102SOL    HW249146   6.985   2.049   6.376
49103SOL     OW49147   8.933   7.964  12.884
49103SOL    HW149148   8.993   7.989  12.954
49103SOL    HW249149   8.878   7.896  12.921
49104SOL     OW49150   1.832  10.053   7.536
49104SOL    HW149151   1.819   9.968   7.493
49104SOL    HW249152   1.846  10.114   7.463
49105SOL     OW49153   8.783   5.569   2.265
49105SOL    HW149154   8.731   5.548   2.343
49105SOL    HW249155   8.868   5.528   2.281
49106SOL     OW49156  14.056   3.145  13.045
49106SOL    HW149157  14.104   3.124  12.965
49106SOL    HW249158  14.079   3.074  13.105
49107SOL     OW49159   1.038   6.026  13.622
49107SOL    HW149160   1.133   6.014  13.614
49107SOL    HW249161   1.011   5.960  13.686
49108SOL     OW49162   4.650  12.917   6.446
49108SOL    HW149163   4.618  13.003   6.418
49108SOL    HW249164   4.733  12.935   6.490
49109SOL     OW49165   1.109  11.561   5.459
49109SOL    HW149166   1.149  11.629   5.513
49109SOL    HW249167   1.172  11.490   5.458
49110SOL     OW49168   3.471  14.201  14.347
49110SOL    HW149169   3.395  14.242  14.305
49110SOL    HW249170   3.545  14.255  14.320
49111SOL     OW49171  11.635  11.666   7.330
49111SOL    HW149172  11.704  11.604   7.354
49111SOL    HW249173  11.597  11.693   7.414
49112SOL     OW49174   4.543   2.746   6.508
49112SOL    HW149175   4.456   2.716   6.532
49112SOL    HW249176   4.541   2.841   6.523
49113SOL     OW49177  11.488   8.935   5.091
49113SOL    HW149178  11.499   8.902   5.180
49113SOL    HW249179  11.505   9.029   5.097
49114SOL     OW49180  11.920   1.744   6.342
49114SOL    HW149181  11.911   1.696   6.424
49114SOL    HW249182  11.830   1.765   6.315
49115SOL     OW49183   3.681  13.892   6.518
49115SOL    HW149184   3.734  13.820   6.553
49115SOL    HW249185   3.744  13.962   6.501
49116SOL     OW49186   4.280  12.769   9.356
49116SOL    HW149187   4.314  12.772   9.445
49116SOL    HW249188   4.232  12.851   9.344
49117SOL     OW49189   1.815   0.111   0.977
49117SOL    HW149190   1.721   0.117   0.994
49117SOL    HW249191   1.849   0.056   1.048
49118SOL     OW49192   7.355   1.904   9.250
49118SOL    HW149193   7.296   1.918   9.324
49118SOL    HW249194   7.439   1.884   9.291
49119SOL     OW49195  10.441  10.327   8.615
49119SOL    HW149196  10.420  10.408   8.568
49119SOL    HW249197  10.521  10.348   8.663
49120SOL     OW49198   7.796  14.551  12.392
49120SOL    HW149199   7.753  14.628  12.431
49120SOL    HW249200   7.779  14.481  12.454
49121SOL     OW49201   6.849  11.469   2.199
49121SOL    HW149202   6.814  11.552   2.167
49121SOL    HW249203   6.929  11.493   2.246
49122SOL     OW49204   7.482   3.304   2.321
49122SOL    HW149205   7.472   3.360   2.398
49122SOL    HW249206   7.535   3.231   2.352
49123SOL     OW49207   2.985  14.362   2.180
49123SOL    HW149208   2.924  14.358   2.107
49123SOL    HW249209   3.036  14.442   2.165
49124SOL     OW49210   3.793   0.732   5.772
49124SOL    HW149211   3.884   0.735   5.743
49124SOL    HW249212   3.756   0.815   5.742
49125SOL     OW49213   7.698  10.160   8.266
49125SOL    HW149214   7.793  10.162   8.273
49125SOL    HW249215   7.675  10.068   8.278
49126SOL     OW49216  10.131   2.806  11.250
49126SOL    HW149217  10.116   2.749  11.175
49126SOL    HW249218  10.111   2.894  11.218
49127SOL     OW49219   0.793   2.482  13.999
49127SOL    HW149220   0.842   2.427  14.061
49127SOL    HW249221   0.834   2.464  13.914
49128SOL     OW49222   1.698  12.729   8.289
49128SOL    HW149223   1.695  12.777   8.372
49128SOL    HW249224   1.771  12.668   8.299
49129SOL     OW49225   6.220  14.820   9.634
49129SOL    HW149226   6.231  14.767   9.555
49129SOL    HW249227   6.203  14.756   9.703
49130SOL     OW49228   0.555  10.289  10.490
49130SOL    HW149229   0.466  10.318  10.514
49130SOL    HW249230   0.606  10.370  10.486
49131SOL     OW49231  11.875  10.735  10.576
49131SOL    HW149232  11.941  10.764  10.639
49131SOL    HW249233  11.805  10.699  10.631
49132SOL     OW49234  14.080  14.378   8.940
49132SOL    HW149235  14.044  14.303   8.987
49132SOL    HW249236  14.074  14.353   8.847
49133SOL     OW49237  14.838   8.622   4.829
49133SOL    HW149238  14.747   8.644   4.848
49133SOL    HW249239  14.874   8.592   4.913
49134SOL     OW49240   9.346  14.775  11.318
49134SOL    HW149241   9.408  14.770  11.390
49134SOL    HW249242   9.262  14.751  11.357
49135SOL     OW49243   9.877   2.698   2.792
49135SOL    HW149244   9.878   2.706   2.888
49135SOL    HW249245   9.954   2.746   2.763
49136SOL     OW49246   4.739   2.620   4.565
49136SOL    HW149247   4.684   2.547   4.536
49136SOL    HW249248   4.760   2.600   4.656
49137SOL     OW49249   5.111   8.362  12.965
49137SOL    HW149250   5.087   8.323  12.881
49137SOL    HW249251   5.198   8.399  12.950
49138SOL     OW49252   7.923   5.202   4.254
49138SOL    HW149253   7.945   5.282   4.303
49138SOL    HW249254   8.008   5.165   4.230
49139SOL     OW49255   0.121  11.652   3.103
49139SOL    HW149256   0.080  11.714   3.163
49139SOL    HW249257   0.070  11.661   3.022
49140SOL     OW49258  12.613   2.581   8.302
49140SOL    HW149259  12.637   2.669   8.273
49140SOL    HW249260  12.696   2.535   8.310
49141SOL     OW49261   4.826   7.885   9.748
49141SOL    HW149262   4.861   7.867   9.661
49141SOL    HW249263   4.903   7.892   9.804
49142SOL     OW49264   6.432   8.020   4.469
49142SOL    HW149265   6.339   7.997   4.458
49142SOL    HW249266   6.442   8.100   4.417
49143SOL     OW49267  11.479  10.781   3.570
49143SOL    HW149268  11.506  10.729   3.495
49143SOL    HW249269  11.406  10.835   3.538
49144SOL     OW49270   8.529   5.355  14.325
49144SOL    HW149271   8.576   5.434  14.298
49144SOL    HW249272   8.560   5.339  14.415
49145SOL     OW49273   3.872   4.250   4.963
49145SOL    HW149274   3.850   4.282   4.875
49145SOL    HW249275   3.843   4.319   5.022
49146SOL     OW49276  14.669   5.610  12.258
49146SOL    HW149277  14.687   5.663  12.180
49146SOL    HW249278  14.599   5.655  12.303
49147SOL     OW49279   9.920   2.798   1.275
49147SOL    HW149280   9.871   2.737   1.221
49147SOL    HW249281   9.871   2.804   1.356
49148SOL     OW49282  13.199   4.306   0.939
49148SOL    HW149283  13.185   4.213   0.918
49148SOL    HW249284  13.224   4.345   0.855
49149SOL     OW49285  10.879   3.745   1.156
49149SOL    HW149286  10.930   3.755   1.075
49149SOL    HW249287  10.916   3.667   1.198
49150SOL     OW49288   8.505   3.360  14.053
49150SOL    HW149289   8.441   3.432  14.049
49150SOL    HW249290   8.499   3.328  14.143
49151SOL     OW49291  13.749  10.289   7.757
49151SOL    HW149292  13.836  10.267   7.722
49151SOL    HW249293  13.753  10.384   7.773
49152SOL     OW49294  12.764   4.935  11.396
49152SOL    HW149295  12.839   4.973  11.349
49152SOL    HW249296  12.692   4.995  11.378
49153SOL     OW49297   5.010   7.744   7.610
49153SOL    HW149298   5.101   7.713   7.608
49153SOL    HW249299   4.987   7.742   7.703
49154SOL     OW49300  12.859   1.373  11.675
49154SOL    HW149301  12.951   1.358  11.655
49154SOL    HW249302  12.832   1.440  11.612
49155SOL     OW49303  10.368   9.624   2.470
49155SOL    HW149304  10.346   9.560   2.538
49155SOL    HW249305  10.451   9.594   2.434
49156SOL     OW49306   1.883   5.018   6.012
49156SOL    HW149307   1.852   5.076   6.082
49156SOL    HW249308   1.922   5.077   5.947
49157SOL     OW49309   0.873   5.341   9.464
49157SOL    HW149310   0.908   5.287   9.393
49157SOL    HW249311   0.857   5.280   9.535
49158SOL     OW49312  10.870  12.669  13.204
49158SOL    HW149313  10.939  12.606  13.184
49158SOL    HW249314  10.915  12.741  13.247
49159SOL     OW49315  12.931   9.862  14.538
49159SOL    HW149316  12.912   9.956  14.538
49159SOL    HW249317  12.852   9.821  14.501
49160SOL     OW49318   1.777  11.753   3.853
49160SOL    HW149319   1.782  11.816   3.781
49160SOL    HW249320   1.706  11.693   3.828
49161SOL     OW49321   5.849   6.530   6.985
49161SOL    HW149322   5.841   6.514   7.079
49161SOL    HW249323   5.846   6.625   6.977
49162SOL     OW49324   1.957  14.256   4.457
49162SOL    HW149325   1.954  14.240   4.551
49162SOL    HW249326   2.019  14.191   4.423
49163SOL     OW49327   1.482  12.129   5.603
49163SOL    HW149328   1.576  12.126   5.621
49163SOL    HW249329   1.441  12.118   5.689
49164SOL     OW49330   9.102   0.321   1.388
49164SOL    HW149331   9.013   0.347   1.408
49164SOL    HW249332   9.093   0.247   1.328
49165SOL     OW49333   0.067   6.795  11.189
49165SOL    HW149334  14.865   6.843  11.198
49165SOL    HW249335   0.101   6.787  11.278
49166SOL     OW49336   2.335  11.042   0.109
49166SOL    HW149337   2.406  10.990   0.070
49166SOL    HW249338   2.334  11.014   0.201
49167SOL     OW49339  12.525   5.913  14.654
49167SOL    HW149340  12.518   5.954  14.568
49167SOL    HW249341  12.599   5.956  14.695
49168SOL     OW49342   7.555  14.344   0.921
49168SOL    HW149343   7.465  14.329   0.893
49168SOL    HW249344   7.586  14.415   0.866
49169SOL     OW49345   2.123   0.389  13.560
49169SOL    HW149346   2.087   0.400  13.472
49169SOL    HW249347   2.047   0.378  13.616
49170SOL     OW49348  11.538  14.272   8.054
49170SOL    HW149349  11.525  14.222   8.134
49170SOL    HW249350  11.461  14.253   8.000
49171SOL     OW49351  12.560   6.913  14.467
49171SOL    HW149352  12.469   6.930  14.487
49171SOL    HW249353  12.570   6.819  14.477
49172SOL     OW49354   9.439   2.600  11.012
49172SOL    HW149355   9.460   2.507  11.017
49172SOL    HW249356   9.364   2.604  10.952
49173SOL     OW49357   7.712   9.042   1.387
49173SOL    HW149358   7.724   8.949   1.406
49173SOL    HW249359   7.707   9.047   1.292
49174SOL     OW49360   3.772   3.023   4.533
49174SOL    HW149361   3.687   2.997   4.569
49174SOL    HW249362   3.807   3.086   4.596
49175SOL     OW49363   9.812  10.941   1.726
49175SOL    HW149364   9.858  10.885   1.788
49175SOL    HW249365   9.825  11.030   1.760
49176SOL     OW49366   6.893  11.720   2.744
49176SOL    HW149367   6.865  11.811   2.751
49176SOL    HW249368   6.987  11.723   2.756
49177SOL     OW49369  10.069   3.935   6.973
49177SOL    HW149370   9.976   3.918   6.962
49177SOL    HW249371  10.108   3.848   6.987
49178SOL     OW49372   8.066   6.439   0.624
49178SOL    HW149373   8.135   6.499   0.596
49178SOL    HW249374   8.112   6.373   0.676
49179SOL     OW49375   4.674   2.110   6.645
49179SOL    HW149376   4.582   2.082   6.645
49179SOL    HW249377   4.721   2.039   6.603
49180SOL     OW49378   6.812  11.346  12.013
49180SOL    HW149379   6.856  11.340  12.097
49180SOL    HW249380   6.735  11.400  12.030
49181SOL     OW49381   6.043  14.564   7.504
49181SOL    HW149382   6.089  14.571   7.420
49181SOL    HW249383   5.951  14.579   7.482
49182SOL     OW49384   5.585   1.813   8.158
49182SOL    HW149385   5.510   1.813   8.099
49182SOL    HW249386   5.660   1.834   8.101
49183SOL     OW49387   1.619  11.879   9.173
49183SOL    HW149388   1.638  11.829   9.093
49183SOL    HW249389   1.674  11.957   9.166
49184SOL     OW49390  12.034   3.255  13.541
49184SOL    HW149391  12.070   3.302  13.616
49184SOL    HW249392  12.048   3.163  13.562
49185SOL     OW49393  12.615   5.964  14.070
49185SOL    HW149394  12.672   5.965  14.146
49185SOL    HW249395  12.527   5.977  14.105
49186SOL     OW49396  12.244   1.353   7.745
49186SOL    HW149397  12.284   1.267   7.737
49186SOL    HW249398  12.180   1.356   7.675
49187SOL     OW49399  12.660   2.693   4.727
49187SOL    HW149400  12.575   2.699   4.684
49187SOL    HW249401  12.641   2.703   4.820
49188SOL     OW49402   6.123   8.041   1.636
49188SOL    HW149403   6.071   8.030   1.557
49188SOL    HW249404   6.170   7.958   1.645
49189SOL     OW49405  11.071   6.748   9.195
49189SOL    HW149406  11.070   6.840   9.222
49189SOL    HW249407  11.128   6.705   9.259
49190SOL     OW49408   4.836   7.225   9.012
49190SOL    HW149409   4.912   7.232   8.955
49190SOL    HW249410   4.868   7.178   9.089
49191SOL     OW49411   9.945  14.486   6.991
49191SOL    HW149412   9.922  14.442   6.909
49191SOL    HW249413   9.974  14.573   6.964
49192SOL     OW49414  14.068   3.587  13.428
49192SOL    HW149415  14.100   3.527  13.361
49192SOL    HW249416  14.073   3.674  13.388
49193SOL     OW49417   1.899   4.062   5.043
49193SOL    HW149418   1.989   4.057   5.076
49193SOL    HW249419   1.847   4.018   5.110
49194SOL     OW49420  12.637   1.200  11.193
49194SOL    HW149421  12.583   1.121  11.198
49194SOL    HW249422  12.636   1.236  11.282
49195SOL     OW49423   0.868   1.208   4.147
49195SOL    HW149424   0.830   1.140   4.203
49195SOL    HW249425   0.940   1.244   4.198
49196SOL     OW49426   9.272   7.361   8.297
49196SOL    HW149427   9.206   7.299   8.328
49196SOL    HW249428   9.247   7.444   8.336
49197SOL     OW49429   1.897   6.763  10.765
49197SOL    HW149430   1.849   6.730  10.841
49197SOL    HW249431   1.927   6.850  10.792
49198SOL     OW49432  14.166  14.013   6.968
49198SOL    HW149433  14.262  14.018   6.963
49198SOL    HW249434  14.148  13.999   7.060
49199SOL     OW49435   5.980  12.303   2.813
49199SOL    HW149436   5.884  12.294   2.812
49199SOL    HW249437   6.000  12.332   2.902
49200SOL     OW49438   3.215   3.492   8.083
49200SOL    HW149439   3.257   3.555   8.141
49200SOL    HW249440   3.284   3.431   8.059
49201SOL     OW49441  11.884  10.071   7.680
49201SOL    HW149442  11.864  10.122   7.759
49201SOL    HW249443  11.978  10.054   7.686
49202SOL     OW49444   4.234   5.974   7.911
49202SOL    HW149445   4.258   5.965   7.819
49202SOL    HW249446   4.141   5.998   7.909
49203SOL     OW49447   9.177   1.215   7.066
49203SOL    HW149448   9.206   1.149   7.129
49203SOL    HW249449   9.195   1.299   7.110
49204SOL     OW49450   6.362   4.973  14.869
49204SOL    HW149451   6.317   4.902   0.035
49204SOL    HW249452   6.307   5.050   0.005
49205SOL     OW49453   0.198  13.572   1.411
49205SOL    HW149454   0.178  13.489   1.455
49205SOL    HW249455   0.114  13.617   1.406
49206SOL     OW49456  10.989   6.714   2.541
49206SOL    HW149457  11.051   6.700   2.613
49206SOL    HW249458  10.982   6.629   2.497
49207SOL     OW49459   3.128   1.606  10.098
49207SOL    HW149460   3.213   1.626  10.060
49207SOL    HW249461   3.128   1.511  10.107
49208SOL     OW49462   1.205  11.673   2.341
49208SOL    HW149463   1.176  11.631   2.423
49208SOL    HW249464   1.299  11.656   2.338
49209SOL     OW49465   2.634   5.659   5.768
49209SOL    HW149466   2.676   5.630   5.849
49209SOL    HW249467   2.543   5.630   5.775
49210SOL     OW49468   4.481   8.635   9.923
49210SOL    HW149469   4.502   8.636  10.016
49210SOL    HW249470   4.517   8.717   9.889
49211SOL     OW49471  14.496   5.802   8.126
49211SOL    HW149472  14.561   5.839   8.066
49211SOL    HW249473  14.544   5.735   8.175
49212SOL     OW49474   2.668  13.567   7.873
49212SOL    HW149475   2.708  13.482   7.852
49212SOL    HW249476   2.585  13.568   7.825
49213SOL     OW49477   0.078   9.736  12.939
49213SOL    HW149478   0.143   9.778  12.995
49213SOL    HW249479   0.048   9.805  12.880
49214SOL     OW49480   6.490   4.173   0.232
49214SOL    HW149481   6.524   4.214   0.153
49214SOL    HW249482   6.553   4.104   0.252
49215SOL     OW49483   2.129   9.526   3.184
49215SOL    HW149484   2.138   9.508   3.090
49215SOL    HW249485   2.215   9.505   3.221
49216SOL     OW49486  14.725   3.374   9.507
49216SOL    HW149487  14.744   3.284   9.482
49216SOL    HW249488  14.725   3.373   9.603
49217SOL     OW49489   1.202   0.745   8.974
49217SOL    HW149490   1.185   0.817   9.034
49217SOL    HW249491   1.134   0.752   8.907
49218SOL     OW49492   5.377   7.937   7.873
49218SOL    HW149493   5.461   7.979   7.853
49218SOL    HW249494   5.401   7.850   7.904
49219SOL     OW49495  14.821  10.761  10.200
49219SOL    HW149496  14.730  10.752  10.229
49219SOL    HW249497  14.827  10.850  10.167
49220SOL     OW49498  13.908   7.881   6.407
49220SOL    HW149499  13.923   7.941   6.480
49220SOL    HW249500  13.977   7.816   6.416
49221SOL     OW49501  10.406  10.339   6.443
49221SOL    HW149502  10.415  10.416   6.499
49221SOL    HW249503  10.493  10.299   6.443
49222SOL     OW49504  10.300  13.667  14.557
49222SOL    HW149505  10.217  13.709  14.533
49222SOL    HW249506  10.286  13.636  14.647
49223SOL     OW49507  10.784   8.454   8.721
49223SOL    HW149508  10.813   8.376   8.769
49223SOL    HW249509  10.824   8.445   8.634
49224SOL     OW49510   3.078   6.650   9.636
49224SOL    HW149511   3.100   6.596   9.712
49224SOL    HW249512   3.121   6.607   9.562
49225SOL     OW49513   3.992  11.293   6.959
49225SOL    HW149514   3.952  11.355   7.020
49225SOL    HW249515   4.082  11.325   6.950
49226SOL     OW49516   1.723   3.491  10.994
49226SOL    HW149517   1.686   3.416  10.947
49226SOL    HW249518   1.813   3.466  11.012
49227SOL     OW49519   3.989   7.792   6.550
49227SOL    HW149520   4.039   7.728   6.600
49227SOL    HW249521   3.930   7.832   6.614
49228SOL     OW49522   3.073   8.260   5.445
49228SOL    HW149523   3.068   8.165   5.443
49228SOL    HW249524   2.983   8.289   5.460
49229SOL     OW49525   4.836   0.088   2.464
49229SOL    HW149526   4.854   0.026   2.394
49229SOL    HW249527   4.919   0.133   2.479
49230SOL     OW49528   4.575  13.917   9.956
49230SOL    HW149529   4.548  13.826   9.939
49230SOL    HW249530   4.582  13.922  10.051
49231SOL     OW49531   9.343  11.449   6.436
49231SOL    HW149532   9.404  11.499   6.382
49231SOL    HW249533   9.302  11.388   6.374
49232SOL     OW49534  11.784   3.581  14.567
49232SOL    HW149535  11.740   3.618  14.491
49232SOL    HW249536  11.717   3.530  14.611
49233SOL     OW49537   2.286  11.839   9.660
49233SOL    HW149538   2.317  11.897   9.730
49233SOL    HW249539   2.363  11.785   9.638
49234SOL     OW49540  10.836   1.710   4.002
49234SOL    HW149541  10.881   1.639   4.047
49234SOL    HW249542  10.847   1.785   4.060
49235SOL     OW49543   9.859   6.817  13.905
49235SOL    HW149544   9.939   6.767  13.921
49235SOL    HW249545   9.870   6.897  13.957
49236SOL     OW49546  13.693   5.819  11.741
49236SOL    HW149547  13.788   5.831  11.737
49236SOL    HW249548  13.660   5.904  11.770
49237SOL     OW49549  12.825   1.182   3.934
49237SOL    HW149550  12.888   1.178   3.861
49237SOL    HW249551  12.764   1.110   3.916
49238SOL     OW49552   2.884   9.954   2.203
49238SOL    HW149553   2.933   9.888   2.252
49238SOL    HW249554   2.946   9.988   2.139
49239SOL     OW49555   8.464  10.332   9.194
49239SOL    HW149556   8.494  10.248   9.158
49239SOL    HW249557   8.446  10.386   9.117
49240SOL     OW49558   4.172   7.061   0.234
49240SOL    HW149559   4.263   7.036   0.252
49240SOL    HW249560   4.177   7.151   0.205
49241SOL     OW49561   4.141   5.349   1.490
49241SOL    HW149562   4.053   5.337   1.527
49241SOL    HW249563   4.167   5.262   1.461
49242SOL     OW49564   4.067   1.739   1.933
49242SOL    HW149565   4.147   1.736   1.986
49242SOL    HW249566   4.000   1.774   1.993
49243SOL     OW49567   8.579   3.583   4.713
49243SOL    HW149568   8.623   3.658   4.755
49243SOL    HW249569   8.534   3.621   4.638
49244SOL     OW49570   9.077   6.084   2.180
49244SOL    HW149571   9.064   6.139   2.103
49244SOL    HW249572   9.112   6.145   2.246
49245SOL     OW49573   6.923  14.746  12.394
49245SOL    HW149574   6.938  14.752  12.489
49245SOL    HW249575   6.888  14.658  12.381
49246SOL     OW49576   4.662   7.116   1.321
49246SOL    HW149577   4.686   7.026   1.341
49246SOL    HW249578   4.631   7.113   1.230
49247SOL     OW49579   4.036   7.372   1.047
49247SOL    HW149580   3.971   7.313   1.007
49247SOL    HW249581   4.014   7.458   1.012
49248SOL     OW49582   1.639  11.030   5.457
49248SOL    HW149583   1.700  11.104   5.459
49248SOL    HW249584   1.625  11.013   5.364
49249SOL     OW49585   6.117  13.472  13.146
49249SOL    HW149586   6.046  13.457  13.084
49249SOL    HW249587   6.175  13.533  13.101
49250SOL     OW49588   6.224   5.059  11.127
49250SOL    HW149589   6.196   5.048  11.036
49250SOL    HW249590   6.178   4.991  11.175
49251SOL     OW49591  13.067  10.445   8.292
49251SOL    HW149592  12.999  10.455   8.358
49251SOL    HW249593  13.142  10.409   8.340
49252SOL     OW49594  13.874   6.368   1.783
49252SOL    HW149595  13.870   6.295   1.845
49252SOL    HW249596  13.784   6.397   1.773
49253SOL     OW49597  10.559  13.394   5.046
49253SOL    HW149598  10.625  13.331   5.076
49253SOL    HW249599  10.496  13.341   4.997
49254SOL     OW49600   8.698   5.654  11.892
49254SOL    HW149601   8.629   5.687  11.951
49254SOL    HW249602   8.765   5.620  11.951
49255SOL     OW49603  12.152   2.301   2.861
49255SOL    HW149604  12.206   2.352   2.921
49255SOL    HW249605  12.170   2.338   2.775
49256SOL     OW49606  11.544   4.611   6.117
49256SOL    HW149607  11.603   4.646   6.184
49256SOL    HW249608  11.600   4.560   6.059
49257SOL     OW49609  13.786   4.338   6.629
49257SOL    HW149610  13.813   4.316   6.540
49257SOL    HW249611  13.802   4.258   6.679
49258SOL     OW49612  13.068   3.146   9.273
49258SOL    HW149613  13.049   3.182   9.360
49258SOL    HW249614  13.048   3.053   9.280
49259SOL     OW49615   8.054   5.690   9.827
49259SOL    HW149616   8.049   5.676   9.733
49259SOL    HW249617   7.972   5.655   9.862
49260SOL     OW49618  12.740   0.869  10.573
49260SOL    HW149619  12.783   0.919  10.643
49260SOL    HW249620  12.762   0.917  10.493
49261SOL     OW49621   6.124   7.994   3.672
49261SOL    HW149622   6.087   8.053   3.738
49261SOL    HW249623   6.209   7.969   3.709
49262SOL     OW49624   6.888  12.499   4.775
49262SOL    HW149625   6.927  12.424   4.820
49262SOL    HW249626   6.818  12.528   4.832
49263SOL     OW49627   3.631   8.249   3.521
49263SOL    HW149628   3.568   8.272   3.589
49263SOL    HW249629   3.613   8.310   3.449
49264SOL     OW49630   7.586   5.832  11.215
49264SOL    HW149631   7.591   5.837  11.120
49264SOL    HW249632   7.667   5.787  11.241
49265SOL     OW49633   9.491  12.275   8.117
49265SOL    HW149634   9.462  12.364   8.098
49265SOL    HW249635   9.468  12.261   8.209
49266SOL     OW49636  11.064   1.105   2.234
49266SOL    HW149637  11.007   1.058   2.172
49266SOL    HW249638  11.006   1.169   2.276
49267SOL     OW49639   9.381   9.586   8.800
49267SOL    HW149640   9.310   9.526   8.825
49267SOL    HW249641   9.448   9.571   8.867
49268SOL     OW49642  13.299   7.595   8.502
49268SOL    HW149643  13.300   7.657   8.429
49268SOL    HW249644  13.206   7.572   8.513
49269SOL     OW49645   0.043  10.503   2.111
49269SOL    HW149646  14.871  10.422   2.117
49269SOL    HW249647   0.088  10.497   2.027
49270SOL     OW49648   9.573   4.703   0.606
49270SOL    HW149649   9.595   4.611   0.623
49270SOL    HW249650   9.479   4.702   0.590
49271SOL     OW49651   7.155   0.810   1.079
49271SOL    HW149652   7.233   0.857   1.048
49271SOL    HW249653   7.153   0.827   1.174
49272SOL     OW49654   8.179   4.348  14.691
49272SOL    HW149655   8.237   4.276  14.666
49272SOL    HW249656   8.233   4.404  14.746
49273SOL     OW49657   0.339   6.624  14.587
49273SOL    HW149658   0.399   6.668  14.526
49273SOL    HW249659   0.389   6.616  14.668
49274SOL     OW49660   1.138   6.590  11.245
49274SOL    HW149661   1.144   6.512  11.190
49274SOL    HW249662   1.170   6.562  11.330
49275SOL     OW49663   4.415   4.826   2.491
49275SOL    HW149664   4.328   4.812   2.530
49275SOL    HW249665   4.399   4.822   2.396
49276SOL     OW49666   7.364   7.936   7.969
49276SOL    HW149667   7.291   7.934   7.907
49276SOL    HW249668   7.341   8.007   8.029
49277SOL     OW49669   7.319   1.548  11.941
49277SOL    HW149670   7.367   1.573  12.020
49277SOL    HW249671   7.325   1.624  11.884
49278SOL     OW49672   9.017  10.620   3.770
49278SOL    HW149673   9.087  10.678   3.799
49278SOL    HW249674   9.039  10.535   3.808
49279SOL     OW49675  14.392   3.848  12.898
49279SOL    HW149676  14.466   3.874  12.844
49279SOL    HW249677  14.317   3.896  12.863
49280SOL     OW49678  13.373   7.769   5.999
49280SOL    HW149679  13.463   7.783   6.031
49280SOL    HW249680  13.342   7.693   6.047
49281SOL     OW49681  14.072   8.674  14.404
49281SOL    HW149682  14.010   8.723  14.458
49281SOL    HW249683  14.079   8.589  14.447
49282SOL     OW49684   6.236   0.932   1.860
49282SOL    HW149685   6.219   0.873   1.934
49282SOL    HW249686   6.326   0.912   1.835
49283SOL     OW49687   6.188   4.605   7.122
49283SOL    HW149688   6.144   4.627   7.204
49283SOL    HW249689   6.272   4.650   7.126
49284SOL     OW49690   9.370   8.882   7.460
49284SOL    HW149691   9.306   8.925   7.403
49284SOL    HW249692   9.446   8.866   7.403
49285SOL     OW49693   2.929   0.464  11.233
49285SOL    HW149694   2.865   0.528  11.203
49285SOL    HW249695   2.888   0.379  11.216
49286SOL     OW49696   1.454  11.663   7.905
49286SOL    HW149697   1.537  11.635   7.867
49286SOL    HW249698   1.470  11.661   8.000
49287SOL     OW49699   4.600   7.099   5.695
49287SOL    HW149700   4.567   7.009   5.696
49287SOL    HW249701   4.695   7.090   5.703
49288SOL     OW49702   6.803   8.638  12.603
49288SOL    HW149703   6.828   8.547  12.586
49288SOL    HW249704   6.792   8.677  12.516
49289SOL     OW49705  14.570  11.322   9.652
49289SOL    HW149706  14.641  11.276   9.695
49289SOL    HW249707  14.571  11.289   9.562
49290SOL     OW49708   6.773   9.631   1.955
49290SOL    HW149709   6.689   9.647   1.911
49290SOL    HW249710   6.766   9.543   1.990
49291SOL     OW49711   9.871   9.446   3.850
49291SOL    HW149712   9.905   9.491   3.772
49291SOL    HW249713   9.949   9.421   3.899
49292SOL     OW49714  14.219   2.428  13.888
49292SOL    HW149715  14.155   2.476  13.941
49292SOL    HW249716  14.237   2.348  13.938
49293SOL     OW49717   9.201   1.906   8.032
49293SOL    HW149718   9.199   1.994   8.069
49293SOL    HW249719   9.292   1.878   8.043
49294SOL     OW49720   1.394  10.794  13.239
49294SOL    HW149721   1.336  10.869  13.229
49294SOL    HW249722   1.336  10.720  13.255
49295SOL     OW49723  13.463   5.249   3.706
49295SOL    HW149724  13.423   5.162   3.695
49295SOL    HW249725  13.552   5.238   3.674
49296SOL     OW49726  10.903   4.827  11.743
49296SOL    HW149727  10.858   4.782  11.814
49296SOL    HW249728  10.970   4.766  11.714
49297SOL     OW49729   5.688   6.979   7.744
49297SOL    HW149730   5.717   6.899   7.788
49297SOL    HW249731   5.684   6.956   7.651
49298SOL     OW49732  13.806  14.091  13.336
49298SOL    HW149733  13.797  14.061  13.426
49298SOL    HW249734  13.809  14.187  13.343
49299SOL     OW49735   0.644   0.871   4.811
49299SOL    HW149736   0.690   0.946   4.775
49299SOL    HW249737   0.622   0.817   4.735
49300SOL     OW49738  14.211  12.127   9.066
49300SOL    HW149739  14.190  12.058   9.129
49300SOL    HW249740  14.163  12.204   9.098
49301SOL     OW49741   5.939   1.594   4.704
49301SOL    HW149742   5.947   1.548   4.620
49301SOL    HW249743   5.845   1.603   4.717
49302SOL     OW49744   6.467   4.178   0.680
49302SOL    HW149745   6.556   4.196   0.711
49302SOL    HW249746   6.417   4.161   0.760
49303SOL     OW49747   0.622   5.167   4.324
49303SOL    HW149748   0.578   5.098   4.274
49303SOL    HW249749   0.579   5.165   4.409
49304SOL     OW49750   7.025   1.654   7.670
49304SOL    HW149751   7.080   1.732   7.667
49304SOL    HW249752   7.003   1.644   7.762
49305SOL     OW49753   9.517   6.751  12.864
49305SOL    HW149754   9.560   6.687  12.920
49305SOL    HW249755   9.584   6.776  12.801
49306SOL     OW49756   6.181   3.850   5.039
49306SOL    HW149757   6.161   3.800   5.118
49306SOL    HW249758   6.276   3.844   5.030
49307SOL     OW49759   7.217  11.532   4.391
49307SOL    HW149760   7.164  11.509   4.467
49307SOL    HW249761   7.288  11.586   4.426
49308SOL     OW49762   9.331  10.075   2.936
49308SOL    HW149763   9.331  10.166   2.904
49308SOL    HW249764   9.263  10.072   3.002
49309SOL     OW49765   6.635   3.477   3.592
49309SOL    HW149766   6.598   3.563   3.572
49309SOL    HW249767   6.701   3.494   3.660
49310SOL     OW49768   5.071   6.902   2.497
49310SOL    HW149769   5.107   6.813   2.497
49310SOL    HW249770   5.134   6.954   2.547
49311SOL     OW49771   0.158   3.629   7.059
49311SOL    HW149772   0.241   3.620   7.013
49311SOL    HW249773   0.145   3.545   7.102
49312SOL     OW49774   7.034  13.462   0.503
49312SOL    HW149775   6.992  13.434   0.585
49312SOL    HW249776   7.016  13.390   0.442
49313SOL     OW49777   8.344  14.657   2.473
49313SOL    HW149778   8.274  14.720   2.490
49313SOL    HW249779   8.421  14.711   2.455
49314SOL     OW49780  14.584   8.906   2.769
49314SOL    HW149781  14.671   8.902   2.809
49314SOL    HW249782  14.532   8.959   2.830
49315SOL     OW49783   5.625   5.669   8.777
49315SOL    HW149784   5.535   5.701   8.766
49315SOL    HW249785   5.676   5.716   8.711
49316SOL     OW49786   7.517  13.843  12.722
49316SOL    HW149787   7.518  13.793  12.640
49316SOL    HW249788   7.590  13.807  12.773
49317SOL     OW49789   4.602  12.761  14.284
49317SOL    HW149790   4.629  12.804  14.366
49317SOL    HW249791   4.653  12.805  14.216
49318SOL     OW49792   5.693   8.703   3.757
49318SOL    HW149793   5.740   8.770   3.707
49318SOL    HW249794   5.721   8.620   3.719
49319SOL     OW49795   2.197   5.354   5.051
49319SOL    HW149796   2.184   5.381   5.142
49319SOL    HW249797   2.284   5.314   5.051
49320SOL     OW49798  14.434  13.465  11.310
49320SOL    HW149799  14.471  13.536  11.363
49320SOL    HW249800  14.476  13.473  11.225
49321SOL     OW49801   1.596   2.005   7.201
49321SOL    HW149802   1.595   2.039   7.290
49321SOL    HW249803   1.654   2.065   7.153
49322SOL     OW49804  10.347  13.993  11.858
49322SOL    HW149805  10.439  13.966  11.865
49322SOL    HW249806  10.343  14.077  11.903
49323SOL     OW49807   1.433   0.148   3.575
49323SOL    HW149808   1.519   0.188   3.585
49323SOL    HW249809   1.403   0.177   3.489
49324SOL     OW49810   0.320   3.890   1.257
49324SOL    HW149811   0.323   3.985   1.250
49324SOL    HW249812   0.238   3.872   1.304
49325SOL     OW49813   8.427  11.067   6.962
49325SOL    HW149814   8.448  11.009   7.036
49325SOL    HW249815   8.342  11.036   6.931
49326SOL     OW49816  12.555  12.189   7.131
49326SOL    HW149817  12.626  12.253   7.129
49326SOL    HW249818  12.541  12.165   7.040
49327SOL     OW49819   7.508  12.409  14.130
49327SOL    HW149820   7.476  12.326  14.165
49327SOL    HW249821   7.446  12.474  14.160
49328SOL     OW49822  14.623   3.596   4.783
49328SOL    HW149823  14.588   3.508   4.795
49328SOL    HW249824  14.651   3.623   4.870
49329SOL     OW49825  11.358   2.431   9.428
49329SOL    HW149826  11.427   2.491   9.457
49329SOL    HW249827  11.326   2.390   9.508
49330SOL     OW49828   4.049  13.708   1.693
49330SOL    HW149829   4.076  13.689   1.603
49330SOL    HW249830   4.073  13.800   1.706
49331SOL     OW49831   1.355  10.433   6.875
49331SOL    HW149832   1.333  10.524   6.895
49331SOL    HW249833   1.352  10.428   6.780
49332SOL     OW49834  10.285   8.729   1.600
49332SOL    HW149835  10.313   8.714   1.510
49332SOL    HW249836  10.364   8.718   1.653
49333SOL     OW49837   3.829   0.051  13.124
49333SOL    HW149838   3.809  14.837  13.131
49333SOL    HW249839   3.915   0.054  13.082
49334SOL     OW49840   5.145   9.584   1.741
49334SOL    HW149841   5.092   9.528   1.684
49334SOL    HW249842   5.081   9.634   1.791
49335SOL     OW49843   9.177   4.124   0.135
49335SOL    HW149844   9.118   4.072   0.190
49335SOL    HW249845   9.134   4.127   0.050
49336SOL     OW49846   4.647   6.523  13.420
49336SOL    HW149847   4.608   6.527  13.333
49336SOL    HW249848   4.663   6.614  13.444
49337SOL     OW49849   6.806  10.490   3.562
49337SOL    HW149850   6.794  10.409   3.512
49337SOL    HW249851   6.901  10.497   3.573
49338SOL     OW49852  13.672   2.301  11.303
49338SOL    HW149853  13.679   2.341  11.389
49338SOL    HW249854  13.707   2.366  11.243
49339SOL     OW49855   9.871   6.487   7.880
49339SOL    HW149856   9.879   6.431   7.957
49339SOL    HW249857   9.793   6.540   7.897
49340SOL     OW49858   5.595   6.507   2.672
49340SOL    HW149859   5.570   6.529   2.582
49340SOL    HW249860   5.517   6.522   2.724
49341SOL     OW49861   9.869  13.807   4.996
49341SOL    HW149862   9.803  13.856   4.946
49341SOL    HW249863   9.868  13.849   5.082
49342SOL     OW49864  12.198   6.814   5.213
49342SOL    HW149865  12.197   6.905   5.185
49342SOL    HW249866  12.288   6.785   5.197
49343SOL     OW49867   9.856   3.004   2.561
49343SOL    HW149868   9.872   3.050   2.478
49343SOL    HW249869   9.835   3.075   2.623
49344SOL     OW49870   0.669  10.754   7.087
49344SOL    HW149871   0.700  10.692   7.021
49344SOL    HW249872   0.615  10.815   7.038
49345SOL     OW49873   8.205   0.502  13.841
49345SOL    HW149874   8.293   0.500  13.803
49345SOL    HW249875   8.152   0.448  13.783
49346SOL     OW49876   2.849  12.458   1.997
49346SOL    HW149877   2.896  12.538   1.975
49346SOL    HW249878   2.849  12.455   2.093
49347SOL     OW49879   4.053   9.985   9.444
49347SOL    HW149880   4.146  10.000   9.456
49347SOL    HW249881   4.021  10.063   9.400
49348SOL     OW49882   9.035   2.978  10.776
49348SOL    HW149883   9.116   2.958  10.731
49348SOL    HW249884   9.017   3.070  10.753
49349SOL     OW49885   9.692   4.352   5.051
49349SOL    HW149886   9.617   4.356   4.992
49349SOL    HW249887   9.662   4.297   5.124
49350SOL     OW49888   1.072   1.744  14.665
49350SOL    HW149889   1.084   1.668  14.609
49350SOL    HW249890   0.978   1.745  14.685
49351SOL     OW49891   4.296   2.755   3.306
49351SOL    HW149892   4.304   2.669   3.346
49351SOL    HW249893   4.256   2.810   3.374
49352SOL     OW49894   7.291  12.970  13.771
49352SOL    HW149895   7.370  13.019  13.750
49352SOL    HW249896   7.291  12.964  13.867
49353SOL     OW49897   1.283  11.467   9.950
49353SOL    HW149898   1.215  11.467  10.017
49353SOL    HW249899   1.321  11.380   9.953
49354SOL     OW49900   8.756  12.779  11.222
49354SOL    HW149901   8.700  12.856  11.230
49354SOL    HW249902   8.803  12.791  11.140
49355SOL     OW49903   9.380  12.708  11.436
49355SOL    HW149904   9.406  12.665  11.355
49355SOL    HW249905   9.306  12.656  11.468
49356SOL     OW49906  12.130   3.263   6.459
49356SOL    HW149907  12.104   3.222   6.376
49356SOL    HW249908  12.047   3.281   6.504
49357SOL     OW49909   3.253  10.868   4.912
49357SOL    HW149910   3.218  10.797   4.966
49357SOL    HW249911   3.227  10.846   4.823
49358SOL     OW49912   6.906  14.178   5.413
49358SOL    HW149913   6.842  14.111   5.389
49358SOL    HW249914   6.908  14.176   5.509
49359SOL     OW49915   2.230   8.355  10.667
49359SOL    HW149916   2.313   8.323  10.701
49359SOL    HW249917   2.166   8.337  10.736
49360SOL     OW49918   9.351  13.098   1.681
49360SOL    HW149919   9.294  13.068   1.751
49360SOL    HW249920   9.426  13.038   1.683
49361SOL     OW49921   4.453   2.343  11.042
49361SOL    HW149922   4.498   2.304  10.966
49361SOL    HW249923   4.384   2.396  11.004
49362SOL     OW49924   4.983   0.424   8.720
49362SOL    HW149925   4.898   0.432   8.764
49362SOL    HW249926   4.971   0.352   8.658
49363SOL     OW49927   4.516   4.626  13.397
49363SOL    HW149928   4.453   4.692  13.368
49363SOL    HW249929   4.496   4.613  13.490
49364SOL     OW49930   7.197  12.294   1.363
49364SOL    HW149931   7.140  12.364   1.395
49364SOL    HW249932   7.172  12.282   1.272
49365SOL     OW49933   0.941  12.074   9.151
49365SOL    HW149934   1.034  12.050   9.155
49365SOL    HW249935   0.928  12.105   9.061
49366SOL     OW49936   1.514   7.489   8.754
49366SOL    HW149937   1.583   7.528   8.807
49366SOL    HW249938   1.481   7.416   8.807
49367SOL     OW49939   2.959  12.775   1.756
49367SOL    HW149940   2.968  12.859   1.712
49367SOL    HW249941   2.935  12.714   1.687
49368SOL     OW49942   2.112   5.208   4.147
49368SOL    HW149943   2.198   5.247   4.133
49368SOL    HW249944   2.092   5.164   4.065
49369SOL     OW49945   4.124   3.675   2.911
49369SOL    HW149946   4.108   3.589   2.871
49369SOL    HW249947   4.194   3.713   2.859
49370SOL     OW49948   9.453  10.227   8.929
49370SOL    HW149949   9.524  10.272   8.976
49370SOL    HW249950   9.491  10.204   8.845
49371SOL     OW49951   5.394   4.362   5.870
49371SOL    HW149952   5.412   4.411   5.950
49371SOL    HW249953   5.315   4.403   5.834
49372SOL     OW49954  14.818   2.833   0.317
49372SOL    HW149955  14.859   2.857   0.401
49372SOL    HW249956  14.874   2.873   0.251
49373SOL     OW49957   0.236   7.876   6.727
49373SOL    HW149958   0.213   7.895   6.635
49373SOL    HW249959   0.271   7.787   6.725
49374SOL     OW49960  14.800   8.916  14.083
49374SOL    HW149961  14.799   9.001  14.128
49374SOL    HW249962   0.006   8.878  14.105
49375SOL     OW49963   8.594  13.930   0.428
49375SOL    HW149964   8.632  13.955   0.512
49375SOL    HW249965   8.527  13.865   0.450
49376SOL     OW49966   5.845   3.416   1.663
49376SOL    HW149967   5.898   3.337   1.680
49376SOL    HW249968   5.783   3.389   1.595
49377SOL     OW49969   9.173   9.036   9.548
49377SOL    HW149970   9.251   9.089   9.562
49377SOL    HW249971   9.200   8.970   9.484
49378SOL     OW49972   3.905   7.227  10.629
49378SOL    HW149973   3.957   7.213  10.708
49378SOL    HW249974   3.894   7.140  10.591
49379SOL     OW49975  10.600   7.255   8.534
49379SOL    HW149976  10.661   7.308   8.585
49379SOL    HW249977  10.514   7.278   8.569
49380SOL     OW49978  12.553   5.942   9.689
49380SOL    HW149979  12.540   5.924   9.783
49380SOL    HW249980  12.514   5.867   9.645
49381SOL     OW49981   9.552   5.707   3.335
49381SOL    HW149982   9.582   5.797   3.326
49381SOL    HW249983   9.621   5.662   3.383
49382SOL     OW49984  14.632   4.350   4.071
49382SOL    HW149985  14.676   4.435   4.075
49382SOL    HW249986  14.597   4.336   4.159
49383SOL     OW49987   7.247  11.906   1.347
49383SOL    HW149988   7.253  11.828   1.402
49383SOL    HW249989   7.325  11.957   1.370
49384SOL     OW49990   0.336  14.126  10.699
49384SOL    HW149991   0.362  14.101  10.611
49384SOL    HW249992   0.296  14.047  10.735
49385SOL     OW49993   9.649   1.779  12.324
49385SOL    HW149994   9.718   1.810  12.265
49385SOL    HW249995   9.568   1.811  12.285
49386SOL     OW49996   4.535  14.818  14.066
49386SOL    HW149997   4.548  14.774  13.982
49386SOL    HW249998   4.609  14.878  14.073
49387SOL     OW49999  11.587  11.500   3.041
49387SOL    HW150000  11.545  11.454   3.114
49387SOL    HW250001  11.671  11.455   3.030
49388SOL     OW50002  14.109   2.240   0.068
49388SOL    HW150003  14.056   2.164   0.046
49388SOL    HW250004  14.193   2.203   0.094
49389SOL     OW50005   1.394   7.241  11.915
49389SOL    HW150006   1.413   7.326  11.954
49389SOL    HW250007   1.437   7.178  11.973
49390SOL     OW50008  13.633  10.778   6.476
49390SOL    HW150009  13.637  10.868   6.508
49390SOL    HW250010  13.600  10.728   6.551
49391SOL     OW50011   3.721  10.662  14.034
49391SOL    HW150012   3.748  10.744  13.991
49391SOL    HW250013   3.654  10.626  13.976
49392SOL     OW50014  12.464  12.417  14.535
49392SOL    HW150015  12.394  12.361  14.570
49392SOL    HW250016  12.524  12.430  14.608
49393SOL     OW50017   2.018   6.671   5.306
49393SOL    HW150018   2.002   6.675   5.212
49393SOL    HW250019   2.028   6.578   5.326
49394SOL     OW50020  13.063   0.766   8.494
49394SOL    HW150021  13.127   0.695   8.503
49394SOL    HW250022  13.033   0.781   8.584
49395SOL     OW50023  12.113  12.193   9.312
49395SOL    HW150024  12.030  12.198   9.264
49395SOL    HW250025  12.155  12.114   9.278
49396SOL     OW50026   8.283   5.491   8.234
49396SOL    HW150027   8.255   5.558   8.171
49396SOL    HW250028   8.372   5.470   8.208
49397SOL     OW50029   1.108   3.575  13.963
49397SOL    HW150030   1.016   3.551  13.977
49397SOL    HW250031   1.133   3.530  13.882
49398SOL     OW50032   5.712   1.466  13.428
49398SOL    HW150033   5.765   1.451  13.350
49398SOL    HW250034   5.763   1.428  13.499
49399SOL     OW50035   8.852   9.578   6.765
49399SOL    HW150036   8.827   9.513   6.831
49399SOL    HW250037   8.805   9.657   6.790
49400SOL     OW50038   8.839  14.455  14.314
49400SOL    HW150039   8.882  14.517  14.372
49400SOL    HW250040   8.909  14.394  14.288
49401SOL     OW50041   8.356   1.323   7.367
49401SOL    HW150042   8.321   1.324   7.278
49401SOL    HW250043   8.437   1.273   7.359
49402SOL     OW50044   0.024   2.920   4.128
49402SOL    HW150045   0.062   3.006   4.147
49402SOL    HW250046   0.075   2.886   4.055
49403SOL     OW50047  10.071   2.905  13.917
49403SOL    HW150048  10.078   2.860  13.834
49403SOL    HW250049  10.093   2.839  13.983
49404SOL     OW50050   8.423  13.433  12.178
49404SOL    HW150051   8.348  13.374  12.169
49404SOL    HW250052   8.411  13.497  12.108
49405SOL     OW50053   2.964  12.621   6.388
49405SOL    HW150054   3.031  12.680   6.423
49405SOL    HW250055   2.902  12.678   6.344
49406SOL     OW50056  14.430   5.869   3.152
49406SOL    HW150057  14.514   5.829   3.172
49406SOL    HW250058  14.412   5.845   3.061
49407SOL     OW50059   9.633   6.009   2.807
49407SOL    HW150060   9.575   6.080   2.779
49407SOL    HW250061   9.582   5.960   2.871
49408SOL     OW50062   5.492   6.141   2.315
49408SOL    HW150063   5.545   6.219   2.297
49408SOL    HW250064   5.527   6.074   2.257
49409SOL     OW50065  14.836   1.725   0.516
49409SOL    HW150066  14.860   1.803   0.467
49409SOL    HW250067   0.029   1.710   0.577
49410SOL     OW50068   7.970   0.631   3.019
49410SOL    HW150069   7.931   0.684   3.089
49410SOL    HW250070   7.924   0.658   2.940
49411SOL     OW50071  10.087  12.428   4.647
49411SOL    HW150072  10.063  12.364   4.580
49411SOL    HW250073  10.147  12.488   4.603
49412SOL     OW50074  13.380   5.024   3.478
49412SOL    HW150075  13.457   4.969   3.493
49412SOL    HW250076  13.338   4.985   3.401
49413SOL     OW50077   5.038   0.327  13.627
49413SOL    HW150078   5.088   0.253  13.593
49413SOL    HW250079   5.070   0.402  13.578
49414SOL     OW50080   9.829  13.062   7.640
49414SOL    HW150081   9.857  12.980   7.680
49414SOL    HW250082   9.769  13.036   7.570
49415SOL     OW50083  11.655   6.638  11.318
49415SOL    HW150084  11.560   6.637  11.331
49415SOL    HW250085  11.678   6.546  11.303
49416SOL     OW50086  12.320  12.068   2.045
49416SOL    HW150087  12.396  12.012   2.061
49416SOL    HW250088  12.305  12.113   2.128
49417SOL     OW50089  12.057   9.380   7.837
49417SOL    HW150090  12.099   9.379   7.923
49417SOL    HW250091  12.018   9.467   7.831
49418SOL     OW50092   3.592   2.257   9.597
49418SOL    HW150093   3.655   2.295   9.535
49418SOL    HW250094   3.607   2.163   9.591
49419SOL     OW50095  11.985  13.243  14.198
49419SOL    HW150096  11.903  13.261  14.151
49419SOL    HW250097  12.037  13.322  14.185
49420SOL     OW50098   0.532   7.198   1.568
49420SOL    HW150099   0.481   7.120   1.543
49420SOL    HW250100   0.586   7.168   1.642
49421SOL     OW50101   0.707   3.083   0.757
49421SOL    HW150102   0.730   3.161   0.808
49421SOL    HW250103   0.719   3.010   0.819
49422SOL     OW50104   8.476   4.578   5.248
49422SOL    HW150105   8.477   4.666   5.285
49422SOL    HW250106   8.525   4.585   5.166
49423SOL     OW50107  13.310   3.333  12.386
49423SOL    HW150108  13.282   3.351  12.296
49423SOL    HW250109  13.308   3.419  12.429
49424SOL     OW50110  12.096   2.028  14.274
49424SOL    HW150111  12.182   1.988  14.288
49424SOL    HW250112  12.058   1.979  14.202
49425SOL     OW50113   3.895  11.404   7.955
49425SOL    HW150114   3.980  11.365   7.977
49425SOL    HW250115   3.917  11.492   7.923
49426SOL     OW50116   2.177  11.724   8.342
49426SOL    HW150117   2.137  11.781   8.409
49426SOL    HW250118   2.134  11.640   8.353
49427SOL     OW50119   3.606   6.037  10.624
49427SOL    HW150120   3.578   6.128  10.634
49427SOL    HW250121   3.563   6.007  10.544
49428SOL     OW50122   9.604   0.582   4.252
49428SOL    HW150123   9.616   0.650   4.319
49428SOL    HW250124   9.607   0.630   4.169
49429SOL     OW50125   2.843   2.616   3.398
49429SOL    HW150126   2.822   2.649   3.311
49429SOL    HW250127   2.834   2.521   3.392
49430SOL     OW50128  13.442   7.280   0.264
49430SOL    HW150129  13.419   7.228   0.340
49430SOL    HW250130  13.474   7.216   0.200
49431SOL     OW50131   2.497   7.694   9.006
49431SOL    HW150132   2.466   7.618   8.957
49431SOL    HW250133   2.560   7.658   9.069
49432SOL     OW50134   9.585  11.054  10.366
49432SOL    HW150135   9.520  11.123  10.354
49432SOL    HW250136   9.559  11.009  10.446
49433SOL     OW50137   6.887  12.728  14.296
49433SOL    HW150138   6.920  12.674  14.369
49433SOL    HW250139   6.867  12.812  14.336
49434SOL     OW50140   0.374   0.841   5.215
49434SOL    HW150141   0.289   0.805   5.188
49434SOL    HW250142   0.434   0.816   5.144
49435SOL     OW50143   9.714   8.069  13.439
49435SOL    HW150144   9.744   8.020  13.515
49435SOL    HW250145   9.736   8.014  13.364
49436SOL     OW50146   9.477  13.256   1.477
49436SOL    HW150147   9.453  13.184   1.536
49436SOL    HW250148   9.408  13.258   1.412
49437SOL     OW50149   8.418   6.501   8.168
49437SOL    HW150150   8.324   6.515   8.159
49437SOL    HW250151   8.439   6.433   8.105
49438SOL     OW50152  13.072   5.417  10.718
49438SOL    HW150153  13.104   5.435  10.806
49438SOL    HW250154  13.029   5.331  10.726
49439SOL     OW50155   6.220  10.847   3.541
49439SOL    HW150156   6.231  10.931   3.497
49439SOL    HW250157   6.196  10.870   3.631
49440SOL     OW50158   1.147  11.125  10.842
49440SOL    HW150159   1.077  11.111  10.906
49440SOL    HW250160   1.123  11.069  10.768
49441SOL     OW50161   9.774   1.246   3.552
49441SOL    HW150162   9.801   1.174   3.496
49441SOL    HW250163   9.732   1.308   3.493
49442SOL     OW50164   4.616   9.002  14.409
49442SOL    HW150165   4.521   8.987  14.416
49442SOL    HW250166   4.629   9.091  14.443
49443SOL     OW50167   3.453   6.571   3.728
49443SOL    HW150168   3.426   6.577   3.820
49443SOL    HW250169   3.443   6.660   3.694
49444SOL     OW50170   6.200   3.560  12.166
49444SOL    HW150171   6.222   3.467  12.159
49444SOL    HW250172   6.252   3.602  12.097
49445SOL     OW50173   7.643   2.701   9.307
49445SOL    HW150174   7.713   2.709   9.371
49445SOL    HW250175   7.566   2.739   9.350
49446SOL     OW50176   6.374   7.304   8.982
49446SOL    HW150177   6.315   7.368   8.941
49446SOL    HW250178   6.316   7.249   9.036
49447SOL     OW50179  11.342  12.221  13.777
49447SOL    HW150180  11.381  12.282  13.714
49447SOL    HW250181  11.341  12.269  13.859
49448SOL     OW50182   4.736  14.592   7.326
49448SOL    HW150183   4.765  14.647   7.253
49448SOL    HW250184   4.659  14.546   7.292
49449SOL     OW50185  13.641   8.088   5.139
49449SOL    HW150186  13.702   8.070   5.068
49449SOL    HW250187  13.646   8.183   5.151
49450SOL     OW50188  11.488   7.640   6.766
49450SOL    HW150189  11.544   7.609   6.837
49450SOL    HW250190  11.495   7.572   6.698
49451SOL     OW50191   6.916   1.144  11.395
49451SOL    HW150192   6.985   1.142  11.328
49451SOL    HW250193   6.837   1.122  11.347
49452SOL     OW50194   3.145  14.293   1.178
49452SOL    HW150195   3.058  14.319   1.209
49452SOL    HW250196   3.178  14.233   1.245
49453SOL     OW50197   8.399  14.044   4.313
49453SOL    HW150198   8.480  14.095   4.313
49453SOL    HW250199   8.384  14.022   4.222
49454SOL     OW50200   2.048   5.204   0.675
49454SOL    HW150201   2.066   5.275   0.737
49454SOL    HW250202   2.131   5.188   0.631
49455SOL     OW50203   3.790  12.766  13.582
49455SOL    HW150204   3.700  12.789  13.560
49455SOL    HW250205   3.784  12.679  13.620
49456SOL     OW50206  10.357  11.712   5.500
49456SOL    HW150207  10.355  11.620   5.528
49456SOL    HW250208  10.415  11.712   5.423
49457SOL     OW50209  12.708   7.886  10.327
49457SOL    HW150210  12.683   7.853  10.413
49457SOL    HW250211  12.732   7.808  10.276
49458SOL     OW50212  13.515   1.774   4.343
49458SOL    HW150213  13.543   1.864   4.355
49458SOL    HW250214  13.558   1.725   4.413
49459SOL     OW50215   5.582  11.171   2.246
49459SOL    HW150216   5.521  11.174   2.320
49459SOL    HW250217   5.542  11.109   2.184
49460SOL     OW50218   8.926  13.974   1.311
49460SOL    HW150219   8.965  13.962   1.398
49460SOL    HW250220   8.930  13.887   1.271
49461SOL     OW50221  10.040   6.747   6.671
49461SOL    HW150222  10.092   6.672   6.701
49461SOL    HW250223  10.061   6.817   6.733
49462SOL     OW50224  12.402   0.766   6.809
49462SOL    HW150225  12.460   0.700   6.771
49462SOL    HW250226  12.457   0.844   6.820
49463SOL     OW50227  12.789  14.045   4.398
49463SOL    HW150228  12.797  13.950   4.393
49463SOL    HW250229  12.703  14.061   4.435
49464SOL     OW50230   5.847   3.552   4.384
49464SOL    HW150231   5.815   3.639   4.408
49464SOL    HW250232   5.848   3.503   4.467
49465SOL     OW50233   7.021  12.695   3.255
49465SOL    HW150234   7.072  12.615   3.240
49465SOL    HW250235   6.943  12.685   3.201
49466SOL     OW50236   7.047   8.251   0.964
49466SOL    HW150237   7.140   8.226   0.965
49466SOL    HW250238   7.044   8.327   0.906
49467SOL     OW50239   6.117   9.142   7.749
49467SOL    HW150240   6.032   9.168   7.785
49467SOL    HW250241   6.181   9.174   7.813
49468SOL     OW50242  13.659   0.027  11.816
49468SOL    HW150243  13.650   0.095  11.883
49468SOL    HW250244  13.595   0.051  11.748
49469SOL     OW50245  10.639   8.090   2.501
49469SOL    HW150246  10.625   7.998   2.479
49469SOL    HW250247  10.631   8.094   2.597
49470SOL     OW50248  10.299   7.501  13.787
49470SOL    HW150249  10.319   7.586  13.825
49470SOL    HW250250  10.343   7.438  13.844
49471SOL     OW50251   3.636   7.732  10.362
49471SOL    HW150252   3.691   7.654  10.363
49471SOL    HW250253   3.680   7.792  10.302
49472SOL     OW50254   7.646   5.406  10.776
49472SOL    HW150255   7.685   5.435  10.694
49472SOL    HW250256   7.669   5.474  10.840
49473SOL     OW50257   0.297   9.418  13.158
49473SOL    HW150258   0.313   9.324  13.157
49473SOL    HW250259   0.284   9.439  13.251
49474SOL     OW50260  10.822  11.005   7.620
49474SOL    HW150261  10.782  11.055   7.548
49474SOL    HW250262  10.793  10.915   7.605
49475SOL     OW50263   2.274   8.989   6.050
49475SOL    HW150264   2.267   8.986   6.146
49475SOL    HW250265   2.357   9.033   6.034
49476SOL     OW50266   1.871   1.127   5.981
49476SOL    HW150267   1.845   1.038   6.004
49476SOL    HW250268   1.951   1.142   6.032
49477SOL     OW50269   6.850   6.115   7.733
49477SOL    HW150270   6.890   6.043   7.684
49477SOL    HW250271   6.913   6.186   7.729
49478SOL     OW50272  13.840   8.148   7.663
49478SOL    HW150273  13.893   8.079   7.624
49478SOL    HW250274  13.750   8.115   7.658
49479SOL     OW50275   6.952   3.685   7.210
49479SOL    HW150276   6.994   3.605   7.180
49479SOL    HW250277   6.859   3.663   7.215
49480SOL     OW50278  11.645  13.535   8.485
49480SOL    HW150279  11.660  13.539   8.580
49480SOL    HW250280  11.698  13.605   8.449
49481SOL     OW50281  10.046   7.924   3.000
49481SOL    HW150282  10.031   7.901   2.908
49481SOL    HW250283  10.141   7.922   3.010
49482SOL     OW50284   8.464   1.646  10.494
49482SOL    HW150285   8.383   1.649  10.544
49482SOL    HW250286   8.511   1.726  10.520
49483SOL     OW50287   0.923   0.017  12.116
49483SOL    HW150288   0.953   0.066  12.040
49483SOL    HW250289   0.995   0.023  12.179
49484SOL     OW50290   2.150   0.294  13.061
49484SOL    HW150291   2.080   0.340  13.015
49484SOL    HW250292   2.210   0.363  13.088
49485SOL     OW50293  10.081  11.460  12.302
49485SOL    HW150294  10.071  11.556  12.300
49485SOL    HW250295  10.111  11.438  12.214
49486SOL     OW50296   4.433   7.720   8.760
49486SOL    HW150297   4.342   7.725   8.732
49486SOL    HW250298   4.478   7.676   8.688
49487SOL     OW50299  12.328   1.355  10.319
49487SOL    HW150300  12.246   1.313  10.346
49487SOL    HW250301  12.378   1.365  10.400
49488SOL     OW50302   3.225  11.331   6.271
49488SOL    HW150303   3.242  11.371   6.356
49488SOL    HW250304   3.131  11.341   6.258
49489SOL     OW50305   2.138   1.155   4.145
49489SOL    HW150306   2.049   1.139   4.175
49489SOL    HW250307   2.188   1.168   4.225
49490SOL     OW50308   7.666  13.912   0.841
49490SOL    HW150309   7.713  13.968   0.779
49490SOL    HW250310   7.575  13.915   0.813
49491SOL     OW50311  12.025   3.678   8.427
49491SOL    HW150312  12.078   3.667   8.347
49491SOL    HW250313  12.084   3.654   8.498
49492SOL     OW50314  12.248   4.235   4.638
49492SOL    HW150315  12.268   4.301   4.705
49492SOL    HW250316  12.179   4.275   4.585
49493SOL     OW50317  13.198  13.687   1.318
49493SOL    HW150318  13.289  13.716   1.322
49493SOL    HW250319  13.174  13.695   1.226
49494SOL     OW50320   5.410   7.799   5.583
49494SOL    HW150321   5.482   7.853   5.617
49494SOL    HW250322   5.364   7.769   5.661
49495SOL     OW50323   2.718   6.538  13.698
49495SOL    HW150324   2.635   6.523  13.743
49495SOL    HW250325   2.771   6.462  13.719
49496SOL     OW50326   1.501   4.338   0.977
49496SOL    HW150327   1.477   4.394   1.050
49496SOL    HW250328   1.521   4.253   1.016
49497SOL     OW50329   7.497  10.293   0.416
49497SOL    HW150330   7.442  10.215   0.423
49497SOL    HW250331   7.464  10.340   0.339
49498SOL     OW50332   9.660  14.612   8.916
49498SOL    HW150333   9.655  14.687   8.975
49498SOL    HW250334   9.715  14.549   8.962
49499SOL     OW50335  10.552  13.891   7.983
49499SOL    HW150336  10.464  13.885   8.021
49499SOL    HW250337  10.573  13.985   7.986
49500SOL     OW50338   8.807  11.490   1.798
49500SOL    HW150339   8.761  11.507   1.716
49500SOL    HW250340   8.900  11.485   1.773
49501SOL     OW50341   7.174   2.840   5.663
49501SOL    HW150342   7.223   2.861   5.742
49501SOL    HW250343   7.146   2.750   5.676
49502SOL     OW50344  11.517  11.826   6.442
49502SOL    HW150345  11.516  11.813   6.537
49502SOL    HW250346  11.604  11.860   6.422
49503SOL     OW50347   3.774   6.601   1.590
49503SOL    HW150348   3.848   6.548   1.561
49503SOL    HW250349   3.731   6.628   1.509
49504SOL     OW50350   0.757   4.488   0.616
49504SOL    HW150351   0.816   4.558   0.644
49504SOL    HW250352   0.795   4.455   0.535
49505SOL     OW50353   1.321  10.205   0.948
49505SOL    HW150354   1.258  10.229   1.016
49505SOL    HW250355   1.370  10.131   0.986
49506SOL     OW50356  11.455  11.844   2.585
49506SOL    HW150357  11.433  11.801   2.668
49506SOL    HW250358  11.396  11.920   2.582
49507SOL     OW50359   8.045   8.979  12.152
49507SOL    HW150360   7.968   9.036  12.156
49507SOL    HW250361   8.056   8.960  12.059
49508SOL     OW50362   2.502   7.805   9.797
49508SOL    HW150363   2.433   7.793   9.861
49508SOL    HW250364   2.567   7.858   9.842
49509SOL     OW50365   0.876   7.405  10.595
49509SOL    HW150366   0.796   7.417  10.648
49509SOL    HW250367   0.844   7.397  10.505
49510SOL     OW50368  12.609   4.795  12.058
49510SOL    HW150369  12.638   4.827  11.972
49510SOL    HW250370  12.539   4.856  12.083
49511SOL     OW50371   8.379  11.378   5.920
49511SOL    HW150372   8.436  11.448   5.951
49511SOL    HW250373   8.422  11.297   5.946
49512SOL     OW50374   3.163   3.894   5.996
49512SOL    HW150375   3.210   3.939   5.926
49512SOL    HW250376   3.222   3.823   6.022
49513SOL     OW50377  14.137   3.357  11.417
49513SOL    HW150378  14.180   3.347  11.331
49513SOL    HW250379  14.142   3.269  11.455
49514SOL     OW50380   3.232   0.623   1.003
49514SOL    HW150381   3.316   0.576   1.005
49514SOL    HW250382   3.166   0.553   0.994
49515SOL     OW50383   7.260   3.809   8.094
49515SOL    HW150384   7.241   3.889   8.045
49515SOL    HW250385   7.295   3.839   8.177
49516SOL     OW50386  10.791  10.261   3.509
49516SOL    HW150387  10.756  10.202   3.576
49516SOL    HW250388  10.886  10.255   3.520
49517SOL     OW50389  10.788   3.809   2.201
49517SOL    HW150390  10.787   3.891   2.152
49517SOL    HW250391  10.813   3.742   2.137
49518SOL     OW50392   8.931   8.456  10.452
49518SOL    HW150393   8.990   8.525  10.481
49518SOL    HW250394   8.938   8.456  10.357
49519SOL     OW50395  14.797   0.783  12.614
49519SOL    HW150396  14.731   0.716  12.599
49519SOL    HW250397  14.810   0.784  12.709
49520SOL     OW50398  14.234   8.764  12.805
49520SOL    HW150399  14.221   8.858  12.799
49520SOL    HW250400  14.329   8.753  12.807
49521SOL     OW50401   9.326   7.073   0.369
49521SOL    HW150402   9.354   7.163   0.350
49521SOL    HW250403   9.268   7.050   0.297
49522SOL     OW50404   5.675   6.672   9.331
49522SOL    HW150405   5.667   6.689   9.237
49522SOL    HW250406   5.585   6.673   9.364
49523SOL     OW50407   6.352   4.804  12.899
49523SOL    HW150408   6.390   4.754  12.826
49523SOL    HW250409   6.361   4.895  12.872
49524SOL     OW50410   7.709  12.039  12.306
49524SOL    HW150411   7.630  12.093  12.311
49524SOL    HW250412   7.751  12.066  12.224
49525SOL     OW50413   4.066   7.254   3.140
49525SOL    HW150414   3.983   7.281   3.101
49525SOL    HW250415   4.127   7.255   3.066
49526SOL     OW50416   6.618   9.064   7.841
49526SOL    HW150417   6.692   9.074   7.781
49526SOL    HW250418   6.613   8.969   7.856
49527SOL     OW50419   0.455   5.747   1.164
49527SOL    HW150420   0.494   5.742   1.252
49527SOL    HW250421   0.527   5.726   1.105
49528SOL     OW50422  10.645   3.061   3.879
49528SOL    HW150423  10.645   3.046   3.784
49528SOL    HW250424  10.718   3.009   3.912
49529SOL     OW50425  14.520   7.170   3.356
49529SOL    HW150426  14.427   7.184   3.378
49529SOL    HW250427  14.537   7.080   3.384
49530SOL     OW50428   3.557  14.147   6.190
49530SOL    HW150429   3.513  14.219   6.143
49530SOL    HW250430   3.612  14.190   6.255
49531SOL     OW50431   7.143  10.503   4.116
49531SOL    HW150432   7.083  10.445   4.068
49531SOL    HW250433   7.229  10.484   4.079
49532SOL     OW50434   5.919   3.839  10.553
49532SOL    HW150435   5.946   3.856  10.463
49532SOL    HW250436   5.834   3.794  10.545
49533SOL     OW50437   8.356   9.474  10.559
49533SOL    HW150438   8.451   9.484  10.569
49533SOL    HW250439   8.329   9.426  10.638
49534SOL     OW50440   7.675  14.452  11.174
49534SOL    HW150441   7.711  14.530  11.217
49534SOL    HW250442   7.601  14.485  11.123
49535SOL     OW50443   7.122   7.576   0.212
49535SOL    HW150444   7.047   7.601   0.266
49535SOL    HW250445   7.084   7.544   0.131
49536SOL     OW50446   1.997   5.299  13.482
49536SOL    HW150447   1.950   5.229  13.435
49536SOL    HW250448   2.015   5.262  13.568
49537SOL     OW50449   1.294   3.117  14.440
49537SOL    HW150450   1.318   3.106  14.532
49537SOL    HW250451   1.262   3.030  14.413
49538SOL     OW50452  12.906   3.091   7.818
49538SOL    HW150453  12.814   3.114   7.805
49538SOL    HW250454  12.951   3.176   7.821
49539SOL     OW50455  13.212  11.666   7.429
49539SOL    HW150456  13.257  11.646   7.511
49539SOL    HW250457  13.137  11.607   7.428
49540SOL     OW50458   3.289   1.832  10.780
49540SOL    HW150459   3.199   1.857  10.759
49540SOL    HW250460   3.305   1.754  10.728
49541SOL     OW50461  11.775   1.057   0.157
49541SOL    HW150462  11.685   1.030   0.176
49541SOL    HW250463  11.776   1.074   0.063
49542SOL     OW50464   2.881  14.126   8.025
49542SOL    HW150465   2.839  14.043   8.049
49542SOL    HW250466   2.815  14.192   8.047
49543SOL     OW50467   4.238   4.796  14.770
49543SOL    HW150468   4.220   4.800  14.864
49543SOL    HW250469   4.154   4.775  14.730
49544SOL     OW50470   1.285   9.738   8.324
49544SOL    HW150471   1.304   9.827   8.352
49544SOL    HW250472   1.307   9.683   8.399
49545SOL     OW50473   4.220  13.220  14.056
49545SOL    HW150474   4.306  13.261  14.065
49545SOL    HW250475   4.236  13.143  14.002
49546SOL     OW50476   4.176   3.298   1.034
49546SOL    HW150477   4.200   3.273   1.123
49546SOL    HW250478   4.236   3.370   1.012
49547SOL     OW50479   3.338   3.052   7.817
49547SOL    HW150480   3.281   3.082   7.746
49547SOL    HW250481   3.294   3.080   7.897
49548SOL     OW50482   5.308   7.948   5.101
49548SOL    HW150483   5.391   7.903   5.115
49548SOL    HW250484   5.291   7.993   5.184
49549SOL     OW50485   7.590   4.454  12.715
49549SOL    HW150486   7.612   4.419  12.801
49549SOL    HW250487   7.602   4.381  12.655
49550SOL     OW50488   4.826   1.579   2.890
49550SOL    HW150489   4.783   1.494   2.901
49550SOL    HW250490   4.772   1.639   2.941
49551SOL     OW50491   5.763  12.656   8.813
49551SOL    HW150492   5.830  12.724   8.823
49551SOL    HW250493   5.757  12.642   8.719
49552SOL     OW50494   4.656   5.807   4.624
49552SOL    HW150495   4.722   5.874   4.606
49552SOL    HW250496   4.647   5.806   4.719
49553SOL     OW50497  13.918  12.930   6.060
49553SOL    HW150498  13.840  12.896   6.016
49553SOL    HW250499  13.975  12.958   5.988
49554SOL     OW50500   8.721   2.678  14.841
49554SOL    HW150501   8.809   2.667  14.804
49554SOL    HW250502   8.663   2.633  14.781
49555SOL     OW50503   8.334   3.967  10.953
49555SOL    HW150504   8.253   3.917  10.955
49555SOL    HW250505   8.354   3.976  10.859
49556SOL     OW50506   3.868   0.199   5.290
49556SOL    HW150507   3.876   0.284   5.332
49556SOL    HW250508   3.954   0.158   5.304
49557SOL     OW50509   5.325  10.986   5.348
49557SOL    HW150510   5.404  11.031   5.375
49557SOL    HW250511   5.323  10.995   5.252
49558SOL     OW50512  13.939  14.044   8.465
49558SOL    HW150513  13.944  13.972   8.402
49558SOL    HW250514  14.029  14.076   8.471
49559SOL     OW50515  13.660  13.017  12.685
49559SOL    HW150516  13.665  13.110  12.662
49559SOL    HW250517  13.745  12.982  12.661
49560SOL     OW50518   4.434  10.382  14.572
49560SOL    HW150519   4.444  10.466  14.618
49560SOL    HW250520   4.516  10.370  14.525
49561SOL     OW50521   6.102   5.465  13.161
49561SOL    HW150522   6.079   5.479  13.253
49561SOL    HW250523   6.071   5.377  13.142
49562SOL     OW50524   1.859   0.341   3.623
49562SOL    HW150525   1.764   0.342   3.616
49562SOL    HW250526   1.885   0.255   3.591
49563SOL     OW50527   0.150   9.887  12.562
49563SOL    HW150528   0.230   9.904  12.610
49563SOL    HW250529   0.163   9.930  12.477
49564SOL     OW50530   0.605  12.974   0.102
49564SOL    HW150531   0.585  12.885   0.071
49564SOL    HW250532   0.577  13.031   0.030
49565SOL     OW50533   4.113  10.211  10.551
49565SOL    HW150534   4.070  10.278  10.605
49565SOL    HW250535   4.097  10.239  10.461
49566SOL     OW50536  14.052   6.269   6.210
49566SOL    HW150537  14.080   6.207   6.143
49566SOL    HW250538  13.983   6.223   6.258
49567SOL     OW50539   3.636   4.421  13.043
49567SOL    HW150540   3.600   4.506  13.019
49567SOL    HW250541   3.664   4.383  12.960
49568SOL     OW50542   6.327  12.267   7.001
49568SOL    HW150543   6.351  12.182   6.965
49568SOL    HW250544   6.350  12.329   6.932
49569SOL     OW50545  13.615  11.674   8.931
49569SOL    HW150546  13.633  11.615   9.004
49569SOL    HW250547  13.578  11.618   8.863
49570SOL     OW50548   7.965  12.009   4.220
49570SOL    HW150549   8.005  11.992   4.306
49570SOL    HW250550   7.911  12.087   4.233
49571SOL     OW50551   9.095  12.042   0.145
49571SOL    HW150552   9.083  12.116   0.085
49571SOL    HW250553   9.166  11.992   0.105
49572SOL     OW50554   4.910   1.359  11.833
49572SOL    HW150555   4.846   1.290  11.845
49572SOL    HW250556   4.955   1.338  11.751
49573SOL     OW50557   2.310  12.613  14.835
49573SOL    HW150558   2.389  12.668  14.833
49573SOL    HW250559   2.290  12.597  14.743
49574SOL     OW50560   8.130   8.501   1.795
49574SOL    HW150561   8.140   8.518   1.888
49574SOL    HW250562   8.061   8.435   1.790
49575SOL     OW50563   7.223   9.265  10.301
49575SOL    HW150564   7.199   9.356  10.319
49575SOL    HW250565   7.307   9.253  10.345
49576SOL     OW50566  10.540   8.605  12.399
49576SOL    HW150567  10.604   8.616  12.469
49576SOL    HW250568  10.459   8.640  12.436
49577SOL     OW50569   4.322   5.582   5.754
49577SOL    HW150570   4.272   5.561   5.675
49577SOL    HW250571   4.312   5.677   5.764
49578SOL     OW50572   5.874   5.315   5.837
49578SOL    HW150573   5.919   5.359   5.766
49578SOL    HW250574   5.808   5.378   5.867
49579SOL     OW50575   3.196   1.059   5.605
49579SOL    HW150576   3.150   1.046   5.523
49579SOL    HW250577   3.287   1.075   5.580
49580SOL     OW50578   7.328  12.818  11.808
49580SOL    HW150579   7.239  12.810  11.842
49580SOL    HW250580   7.331  12.906  11.772
49581SOL     OW50581   3.352   8.400   6.345
49581SOL    HW150582   3.327   8.454   6.270
49581SOL    HW250583   3.440   8.368   6.324
49582SOL     OW50584  10.224   1.087  12.401
49582SOL    HW150585  10.230   1.182  12.413
49582SOL    HW250586  10.135   1.073  12.370
49583SOL     OW50587   2.077   9.215  13.598
49583SOL    HW150588   1.996   9.171  13.624
49583SOL    HW250589   2.055   9.309  13.603
49584SOL     OW50590   4.699   1.715  14.847
49584SOL    HW150591   4.773   1.776  14.854
49584SOL    HW250592   4.622   1.770  14.856
49585SOL     OW50593   1.977   1.623   1.609
49585SOL    HW150594   1.889   1.592   1.586
49585SOL    HW250595   1.965   1.673   1.690
49586SOL     OW50596   0.016   4.376   7.702
49586SOL    HW150597   0.027   4.329   7.620
49586SOL    HW250598   0.072   4.453   7.693
49587SOL     OW50599   6.277   3.681   9.201
49587SOL    HW150600   6.275   3.776   9.204
49587SOL    HW250601   6.324   3.660   9.120
49588SOL     OW50602   6.303   2.693   3.830
49588SOL    HW150603   6.357   2.718   3.755
49588SOL    HW250604   6.361   2.700   3.906
49589SOL     OW50605   2.183  14.319   8.909
49589SOL    HW150606   2.246  14.347   8.976
49589SOL    HW250607   2.156  14.400   8.866
49590SOL     OW50608   6.769   4.928   7.156
49590SOL    HW150609   6.814   4.897   7.235
49590SOL    HW250610   6.801   4.871   7.086
49591SOL     OW50611   9.856   3.742  10.278
49591SOL    HW150612   9.889   3.713  10.193
49591SOL    HW250613   9.761   3.742  10.269
49592SOL     OW50614   8.630   7.997   7.469
49592SOL    HW150615   8.599   8.077   7.510
49592SOL    HW250616   8.664   8.025   7.383
49593SOL     OW50617   9.804   3.056   1.064
49593SOL    HW150618   9.719   3.079   1.100
49593SOL    HW250619   9.786   3.031   0.973
49594SOL     OW50620   9.117  14.135  12.831
49594SOL    HW150621   9.079  14.047  12.836
49594SOL    HW250622   9.165  14.136  12.749
49595SOL     OW50623  10.449  10.654   9.295
49595SOL    HW150624  10.521  10.591   9.292
49595SOL    HW250625  10.478  10.726   9.239
49596SOL     OW50626  13.832   9.173  12.571
49596SOL    HW150627  13.810   9.178  12.478
49596SOL    HW250628  13.757   9.212  12.616
49597SOL     OW50629  10.874  11.445  14.219
49597SOL    HW150630  10.848  11.497  14.295
49597SOL    HW250631  10.901  11.510  14.154
49598SOL     OW50632   7.685   3.172  10.224
49598SOL    HW150633   7.672   3.102  10.160
49598SOL    HW250634   7.737   3.132  10.294
49599SOL     OW50635  13.039  13.687  11.101
49599SOL    HW150636  13.072  13.633  11.029
49599SOL    HW250637  12.944  13.687  11.090
49600SOL     OW50638   6.144  12.467  14.633
49600SOL    HW150639   6.157  12.437  14.544
49600SOL    HW250640   6.050  12.454  14.649
49601SOL     OW50641   7.222  12.221   5.869
49601SOL    HW150642   7.204  12.159   5.940
49601SOL    HW250643   7.141  12.271   5.860
49602SOL     OW50644   3.511   4.558   5.281
49602SOL    HW150645   3.501   4.566   5.376
49602SOL    HW250646   3.507   4.464   5.264
49603SOL     OW50647  13.407   6.821   9.208
49603SOL    HW150648  13.375   6.883   9.274
49603SOL    HW250649  13.348   6.834   9.134
49604SOL     OW50650  14.448   2.962   8.329
49604SOL    HW150651  14.434   2.947   8.423
49604SOL    HW250652  14.500   2.887   8.300
49605SOL     OW50653   5.600  12.035   7.729
49605SOL    HW150654   5.601  12.086   7.810
49605SOL    HW250655   5.644  11.953   7.752
49606SOL     OW50656   8.776   9.934   6.207
49606SOL    HW150657   8.805   9.906   6.120
49606SOL    HW250658   8.852   9.978   6.245
49607SOL     OW50659  10.853   9.612   6.777
49607SOL    HW150660  10.796   9.550   6.731
49607SOL    HW250661  10.916   9.556   6.823
49608SOL     OW50662  11.617   8.948  12.903
49608SOL    HW150663  11.588   8.913  12.819
49608SOL    HW250664  11.657   8.873  12.948
49609SOL     OW50665   7.640   7.506   5.708
49609SOL    HW150666   7.629   7.438   5.773
49609SOL    HW250667   7.584   7.578   5.738
49610SOL     OW50668  11.717   9.333  14.177
49610SOL    HW150669  11.759   9.318  14.262
49610SOL    HW250670  11.736   9.424  14.156
49611SOL     OW50671   1.765   0.504  11.687
49611SOL    HW150672   1.734   0.547  11.607
49611SOL    HW250673   1.810   0.573  11.735
49612SOL     OW50674  14.150   1.486   7.085
49612SOL    HW150675  14.233   1.466   7.041
49612SOL    HW250676  14.158   1.443   7.171
49613SOL     OW50677   4.974   2.454   1.877
49613SOL    HW150678   5.033   2.529   1.890
49613SOL    HW250679   5.026   2.392   1.825
49614SOL     OW50680   6.807   4.135   8.596
49614SOL    HW150681   6.798   4.185   8.514
49614SOL    HW250682   6.802   4.044   8.569
49615SOL     OW50683  11.626   8.247   0.136
49615SOL    HW150684  11.577   8.164   0.130
49615SOL    HW250685  11.710   8.222   0.174
49616SOL     OW50686  10.730   8.578   0.227
49616SOL    HW150687  10.761   8.511   0.288
49616SOL    HW250688  10.746   8.539   0.140
49617SOL     OW50689   9.005   9.686   7.402
49617SOL    HW150690   9.071   9.618   7.415
49617SOL    HW250691   9.019   9.747   7.474
49618SOL     OW50692   1.549   0.881   2.947
49618SOL    HW150693   1.586   0.866   3.034
49618SOL    HW250694   1.463   0.841   2.950
49619SOL     OW50695   0.968   7.250   4.508
49619SOL    HW150696   0.958   7.272   4.601
49619SOL    HW250697   1.063   7.239   4.496
49620SOL     OW50698   8.492   6.398   3.974
49620SOL    HW150699   8.521   6.487   3.956
49620SOL    HW250700   8.556   6.364   4.038
49621SOL     OW50701  14.360   5.579   7.962
49621SOL    HW150702  14.351   5.634   7.884
49621SOL    HW250703  14.387   5.639   8.031
49622SOL     OW50704   0.228   5.816   2.159
49622SOL    HW150705   0.285   5.743   2.182
49622SOL    HW250706   0.219   5.811   2.064
49623SOL     OW50707  10.909   4.717   5.214
49623SOL    HW150708  10.898   4.627   5.184
49623SOL    HW250709  10.940   4.709   5.304
49624SOL     OW50710   2.963   9.686   1.527
49624SOL    HW150711   2.930   9.775   1.520
49624SOL    HW250712   2.986   9.675   1.619
49625SOL     OW50713   1.963   3.735   7.978
49625SOL    HW150714   1.922   3.747   7.892
49625SOL    HW250715   1.950   3.642   7.997
49626SOL     OW50716   7.303  10.206   4.626
49626SOL    HW150717   7.366  10.145   4.587
49626SOL    HW250718   7.240  10.149   4.670
49627SOL     OW50719   0.464  14.521   0.560
49627SOL    HW150720   0.438  14.613   0.566
49627SOL    HW250721   0.442  14.483   0.645
49628SOL     OW50722   6.650   9.783   6.216
49628SOL    HW150723   6.634   9.869   6.255
49628SOL    HW250724   6.732   9.754   6.256
49629SOL     OW50725   5.551  10.839  14.489
49629SOL    HW150726   5.473  10.889  14.512
49629SOL    HW250727   5.604  10.899  14.437
49630SOL     OW50728  12.339   7.468   5.896
49630SOL    HW150729  12.407   7.535   5.893
49630SOL    HW250730  12.281   7.495   5.967
49631SOL     OW50731   7.322  11.585   5.791
49631SOL    HW150732   7.370  11.664   5.767
49631SOL    HW250733   7.367  11.515   5.745
49632SOL     OW50734  12.655  14.878   7.535
49632SOL    HW150735  12.579   0.009   7.592
49632SOL    HW250736  12.728  14.866   7.595
49633SOL     OW50737   7.347  13.373   2.031
49633SOL    HW150738   7.427  13.334   1.995
49633SOL    HW250739   7.357  13.467   2.016
49634SOL     OW50740  11.494  10.043  13.188
49634SOL    HW150741  11.543  10.058  13.107
49634SOL    HW250742  11.551   9.988  13.241
49635SOL     OW50743  13.901   3.573   6.518
49635SOL    HW150744  13.883   3.480   6.499
49635SOL    HW250745  13.882   3.582   6.611
49636SOL     OW50746   5.114   3.550   7.463
49636SOL    HW150747   5.182   3.489   7.434
49636SOL    HW250748   5.085   3.594   7.383
49637SOL     OW50749   7.348   6.983   1.115
49637SOL    HW150750   7.362   7.051   1.182
49637SOL    HW250751   7.402   7.011   1.041
49638SOL     OW50752  13.191   6.334  11.988
49638SOL    HW150753  13.167   6.242  11.978
49638SOL    HW250754  13.269   6.345  11.934
49639SOL     OW50755  13.523  11.099   4.897
49639SOL    HW150756  13.544  11.067   4.809
49639SOL    HW250757  13.434  11.067   4.913
49640SOL     OW50758   9.176   5.984   8.943
49640SOL    HW150759   9.111   5.955   8.880
49640SOL    HW250760   9.144   5.952   9.028
49641SOL     OW50761   4.450  12.316  13.146
49641SOL    HW150762   4.459  12.292  13.238
49641SOL    HW250763   4.445  12.412  13.147
49642SOL     OW50764   1.547   9.147  12.572
49642SOL    HW150765   1.495   9.227  12.565
49642SOL    HW250766   1.637   9.174  12.555
49643SOL     OW50767   6.023   3.179   1.698
49643SOL    HW150768   6.080   3.233   1.753
49643SOL    HW250769   6.003   3.102   1.753
49644SOL     OW50770   8.974   0.846   1.518
49644SOL    HW150771   9.034   0.789   1.469
49644SOL    HW250772   9.031   0.906   1.565
49645SOL     OW50773   1.208   6.525  13.141
49645SOL    HW150774   1.113   6.515  13.129
49645SOL    HW250775   1.245   6.444  13.104
49646SOL     OW50776  14.172   5.174   6.092
49646SOL    HW150777  14.245   5.189   6.152
49646SOL    HW250778  14.197   5.222   6.013
49647SOL     OW50779  11.042   7.377   9.674
49647SOL    HW150780  11.069   7.360   9.765
49647SOL    HW250781  11.116   7.424   9.635
49648SOL     OW50782   9.214   3.768  11.798
49648SOL    HW150783   9.242   3.722  11.719
49648SOL    HW250784   9.250   3.856  11.788
49649SOL     OW50785  13.503   6.800   4.166
49649SOL    HW150786  13.471   6.761   4.085
49649SOL    HW250787  13.552   6.877   4.137
49650SOL     OW50788  12.525   3.044   3.823
49650SOL    HW150789  12.509   2.956   3.790
49650SOL    HW250790  12.496   3.103   3.753
49651SOL     OW50791  10.682   8.194  12.917
49651SOL    HW150792  10.774   8.200  12.941
49651SOL    HW250793  10.660   8.280  12.882
49652SOL     OW50794  12.427   1.428   8.643
49652SOL    HW150795  12.463   1.510   8.675
49652SOL    HW250796  12.340   1.451   8.611
49653SOL     OW50797  14.260   4.121   2.553
49653SOL    HW150798  14.297   4.175   2.622
49653SOL    HW250799  14.311   4.041   2.555
49654SOL     OW50800  11.830   2.108   6.214
49654SOL    HW150801  11.785   2.180   6.259
49654SOL    HW250802  11.769   2.081   6.145
49655SOL     OW50803   6.497  13.399   5.672
49655SOL    HW150804   6.558  13.369   5.605
49655SOL    HW250805   6.442  13.323   5.691
49656SOL     OW50806   4.013  11.501  14.549
49656SOL    HW150807   4.041  11.592  14.560
49656SOL    HW250808   3.946  11.504  14.482
49657SOL     OW50809  14.065  10.527  13.713
49657SOL    HW150810  14.031  10.486  13.633
49657SOL    HW250811  13.986  10.551  13.762
49658SOL     OW50812   6.980  11.843  11.180
49658SOL    HW150813   6.966  11.771  11.119
49658SOL    HW250814   6.967  11.804  11.266
49659SOL     OW50815  13.402   0.655  10.776
49659SOL    HW150816  13.482   0.613  10.809
49659SOL    HW250817  13.338   0.585  10.770
49660SOL     OW50818   8.338  12.753   3.884
49660SOL    HW150819   8.276  12.701   3.833
49660SOL    HW250820   8.376  12.814   3.821
49661SOL     OW50821   1.478   5.718   9.355
49661SOL    HW150822   1.459   5.705   9.447
49661SOL    HW250823   1.399   5.758   9.319
49662SOL     OW50824   2.264   9.579  13.639
49662SOL    HW150825   2.277   9.666  13.676
49662SOL    HW250826   2.315   9.579  13.558
49663SOL     OW50827  13.164   6.513   3.081
49663SOL    HW150828  13.071   6.495   3.070
49663SOL    HW250829  13.170   6.607   3.093
49664SOL     OW50830   6.447   4.691  12.665
49664SOL    HW150831   6.416   4.690  12.575
49664SOL    HW250832   6.525   4.747  12.662
49665SOL     OW50833  12.765   6.466  11.652
49665SOL    HW150834  12.795   6.554  11.627
49665SOL    HW250835  12.814   6.446  11.732
49666SOL     OW50836   7.482   3.315  13.692
49666SOL    HW150837   7.498   3.341  13.783
49666SOL    HW250838   7.553   3.254  13.672
49667SOL     OW50839  14.242   8.562   7.027
49667SOL    HW150840  14.227   8.595   6.939
49667SOL    HW250841  14.265   8.640   7.078
49668SOL     OW50842   0.911   6.400   3.654
49668SOL    HW150843   0.936   6.313   3.624
49668SOL    HW250844   0.826   6.387   3.697
49669SOL     OW50845   8.811  11.657  12.393
49669SOL    HW150846   8.895  11.686  12.429
49669SOL    HW250847   8.764  11.621  12.468
49670SOL     OW50848  14.232  14.745  12.322
49670SOL    HW150849  14.216  14.839  12.333
49670SOL    HW250850  14.327  14.739  12.312
49671SOL     OW50851   5.868   2.468   4.414
49671SOL    HW150852   5.941   2.478   4.475
49671SOL    HW250853   5.904   2.413   4.344
49672SOL     OW50854   4.430  12.605   1.744
49672SOL    HW150855   4.373  12.681   1.731
49672SOL    HW250856   4.425  12.587   1.838
49673SOL     OW50857   4.268  14.401  13.688
49673SOL    HW150858   4.323  14.452  13.629
49673SOL    HW250859   4.182  14.400  13.646
49674SOL     OW50860   9.874   4.131   9.601
49674SOL    HW150861   9.967   4.135   9.581
49674SOL    HW250862   9.869   4.138   9.696
49675SOL     OW50863   9.495   2.613  11.517
49675SOL    HW150864   9.548   2.679  11.562
49675SOL    HW250865   9.424   2.663  11.476
49676SOL     OW50866   3.938   2.901  12.295
49676SOL    HW150867   3.934   2.863  12.207
49676SOL    HW250868   4.024   2.876  12.328
49677SOL     OW50869   5.632   8.136  10.733
49677SOL    HW150870   5.716   8.147  10.689
49677SOL    HW250871   5.640   8.051  10.778
49678SOL     OW50872   1.389  10.625   2.773
49678SOL    HW150873   1.343  10.675   2.840
49678SOL    HW250874   1.388  10.535   2.806
49679SOL     OW50875   8.987   3.110   7.973
49679SOL    HW150876   9.018   3.098   7.883
49679SOL    HW250877   8.899   3.074   7.974
49680SOL     OW50878  10.303  11.943   8.603
49680SOL    HW150879  10.361  11.987   8.541
49680SOL    HW250880  10.353  11.868   8.634
49681SOL     OW50881   7.340  11.901   9.678
49681SOL    HW150882   7.312  11.965   9.743
49681SOL    HW250883   7.274  11.832   9.683
49682SOL     OW50884  12.225  12.764   7.172
49682SOL    HW150885  12.167  12.690   7.149
49682SOL    HW250886  12.174  12.842   7.148
49683SOL     OW50887   3.907   3.282  13.153
49683SOL    HW150888   3.999   3.255  13.148
49683SOL    HW250889   3.895   3.338  13.076
49684SOL     OW50890   6.184  12.937  12.740
49684SOL    HW150891   6.234  12.960  12.818
49684SOL    HW250892   6.109  12.997  12.740
49685SOL     OW50893  13.837   2.236   8.580
49685SOL    HW150894  13.827   2.306   8.644
49685SOL    HW250895  13.814   2.276   8.496
49686SOL     OW50896   0.372   8.393  12.615
49686SOL    HW150897   0.362   8.340  12.536
49686SOL    HW250898   0.460   8.372  12.647
49687SOL     OW50899   8.126   2.905   7.554
49687SOL    HW150900   8.052   2.849   7.531
49687SOL    HW250901   8.135   2.965   7.480
49688SOL     OW50902   1.336  11.296   0.551
49688SOL    HW150903   1.259  11.290   0.495
49688SOL    HW250904   1.308  11.349   0.626
49689SOL     OW50905   4.194   2.313  10.094
49689SOL    HW150906   4.229   2.346  10.177
49689SOL    HW250907   4.129   2.248  10.120
49690SOL     OW50908  14.570   2.940   7.952
49690SOL    HW150909  14.565   2.953   7.857
49690SOL    HW250910  14.593   2.847   7.962
49691SOL     OW50911  13.606  14.856   1.655
49691SOL    HW150912  13.622  14.771   1.614
49691SOL    HW250913  13.570  14.834   1.742
49692SOL     OW50914   8.567   6.317   8.812
49692SOL    HW150915   8.590   6.228   8.784
49692SOL    HW250916   8.649   6.353   8.847
49693SOL     OW50917   1.093   6.151  12.533
49693SOL    HW150918   1.155   6.223  12.519
49693SOL    HW250919   1.148   6.074  12.546
49694SOL     OW50920  14.848   8.461  14.454
49694SOL    HW150921  14.824   8.553  14.463
49694SOL    HW250922   0.055   8.462  14.412
49695SOL     OW50923   5.950  13.434  10.096
49695SOL    HW150924   5.967  13.516  10.143
49695SOL    HW250925   5.909  13.462  10.013
49696SOL     OW50926  14.670   4.059   5.124
49696SOL    HW150927  14.629   4.086   5.206
49696SOL    HW250928  14.598   4.019   5.074
49697SOL     OW50929   1.446   5.042  12.258
49697SOL    HW150930   1.523   5.097  12.245
49697SOL    HW250931   1.423   5.055  12.350
49698SOL     OW50932  14.197   0.889  13.334
49698SOL    HW150933  14.124   0.841  13.295
49698SOL    HW250934  14.270   0.828  13.332
49699SOL     OW50935  11.914   7.534  11.629
49699SOL    HW150936  11.914   7.459  11.568
49699SOL    HW250937  11.948   7.498  11.710
49700SOL     OW50938   0.928   8.153   1.698
49700SOL    HW150939   0.981   8.110   1.765
49700SOL    HW250940   0.874   8.215   1.747
49701SOL     OW50941  10.402  11.052  14.139
49701SOL    HW150942  10.350  11.107  14.081
49701SOL    HW250943  10.395  10.964  14.102
49702SOL     OW50944   2.118   5.181  13.963
49702SOL    HW150945   2.088   5.203  14.051
49702SOL    HW250946   2.213   5.173  13.971
49703SOL     OW50947   0.471   2.259   9.387
49703SOL    HW150948   0.435   2.343   9.417
49703SOL    HW250949   0.410   2.231   9.319
49704SOL     OW50950   0.199   9.362   9.308
49704SOL    HW150951   0.257   9.302   9.261
49704SOL    HW250952   0.171   9.312   9.385
49705SOL     OW50953   2.409   2.357   7.071
49705SOL    HW150954   2.503   2.374   7.066
49705SOL    HW250955   2.388   2.365   7.164
49706SOL     OW50956   2.881  10.616   5.464
49706SOL    HW150957   2.887  10.707   5.435
49706SOL    HW250958   2.790  10.592   5.450
49707SOL     OW50959   3.653  13.061   1.672
49707SOL    HW150960   3.726  13.117   1.645
49707SOL    HW250961   3.652  13.067   1.767
49708SOL     OW50962   3.820   6.094   9.860
49708SOL    HW150963   3.878   6.101   9.936
49708SOL    HW250964   3.732   6.103   9.897
49709SOL     OW50965   1.182  12.906   3.109
49709SOL    HW150966   1.276  12.926   3.109
49709SOL    HW250967   1.157  12.913   3.201
49710SOL     OW50968   8.133   5.237   8.551
49710SOL    HW150969   8.091   5.222   8.636
49710SOL    HW250970   8.152   5.149   8.518
49711SOL     OW50971  13.713   5.097   2.391
49711SOL    HW150972  13.618   5.103   2.399
49711SOL    HW250973  13.738   5.175   2.342
49712SOL     OW50974   5.401  13.556   3.544
49712SOL    HW150975   5.490  13.541   3.576
49712SOL    HW250976   5.391  13.651   3.542
49713SOL     OW50977  12.025  12.377   7.705
49713SOL    HW150978  11.931  12.374   7.719
49713SOL    HW250979  12.061  12.317   7.770
49714SOL     OW50980   0.909   6.393  12.893
49714SOL    HW150981   0.917   6.298  12.887
49714SOL    HW250982   0.996   6.425  12.871
49715SOL     OW50983   6.462  14.491  11.032
49715SOL    HW150984   6.408  14.517  10.958
49715SOL    HW250985   6.485  14.574  11.075
49716SOL     OW50986  13.171   7.624  11.461
49716SOL    HW150987  13.203   7.639  11.550
49716SOL    HW250988  13.076   7.635  11.467
49717SOL     OW50989   4.402   6.926   5.784
49717SOL    HW150990   4.346   6.848   5.790
49717SOL    HW250991   4.457   6.922   5.861
49718SOL     OW50992   2.331   4.360   1.464
49718SOL    HW150993   2.257   4.387   1.517
49718SOL    HW250994   2.345   4.433   1.403
49719SOL     OW50995  10.654   5.009   7.901
49719SOL    HW150996  10.719   4.982   7.837
49719SOL    HW250997  10.579   5.037   7.848
49720SOL     OW50998   0.535  12.972   3.413
49720SOL    HW150999   0.525  12.886   3.453
49720SOL    HW251000   0.623  12.971   3.375
49721SOL     OW51001   3.227   9.237  10.034
49721SOL    HW151002   3.150   9.284  10.002
49721SOL    HW251003   3.254   9.182   9.960
49722SOL     OW51004  12.946   6.282   4.795
49722SOL    HW151005  12.892   6.361   4.794
49722SOL    HW251006  12.890   6.214   4.758
49723SOL     OW51007   3.842  13.214   7.559
49723SOL    HW151008   3.747  13.222   7.561
49723SOL    HW251009   3.859  13.121   7.574
49724SOL     OW51010   8.104   0.942  10.280
49724SOL    HW151011   8.125   0.877  10.347
49724SOL    HW251012   8.010   0.932  10.266
49725SOL     OW51013   3.749  14.362  10.191
49725SOL    HW151014   3.742  14.384  10.284
49725SOL    HW251015   3.673  14.307  10.174
49726SOL     OW51016   5.865   5.634  14.468
49726SOL    HW151017   5.835   5.574  14.535
49726SOL    HW251018   5.788   5.649  14.413
49727SOL     OW51019  12.389  12.008   8.919
49727SOL    HW151020  12.336  11.929   8.910
49727SOL    HW251021  12.421  12.027   8.831
49728SOL     OW51022   2.752  12.711  13.713
49728SOL    HW151023   2.718  12.683  13.797
49728SOL    HW251024   2.747  12.806  13.715
49729SOL     OW51025  14.576   4.405  13.160
49729SOL    HW151026  14.541   4.482  13.206
49729SOL    HW251027  14.517   4.334  13.184
49730SOL     OW51028   2.126   2.745   1.176
49730SOL    HW151029   2.185   2.673   1.197
49730SOL    HW251030   2.182   2.823   1.177
49731SOL     OW51031   5.434  12.160   4.722
49731SOL    HW151032   5.351  12.128   4.687
49731SOL    HW251033   5.487  12.081   4.735
49732SOL     OW51034   8.391  11.793   6.880
49732SOL    HW151035   8.389  11.808   6.975
49732SOL    HW251036   8.365  11.701   6.871
49733SOL     OW51037  10.945   9.726   8.550
49733SOL    HW151038  11.006   9.671   8.501
49733SOL    HW251039  10.865   9.727   8.497
49734SOL     OW51040   1.874   4.180   8.452
49734SOL    HW151041   1.898   4.270   8.431
49734SOL    HW251042   1.859   4.138   8.368
49735SOL     OW51043   6.416   4.327   2.289
49735SOL    HW151044   6.467   4.307   2.210
49735SOL    HW251045   6.355   4.396   2.261
49736SOL     OW51046  14.226   0.830   4.092
49736SOL    HW151047  14.253   0.804   4.004
49736SOL    HW251048  14.290   0.897   4.118
49737SOL     OW51049  11.754   1.747   3.703
49737SOL    HW151050  11.703   1.713   3.629
49737SOL    HW251051  11.776   1.837   3.678
49738SOL     OW51052   3.351   9.060   1.895
49738SOL    HW151053   3.400   9.039   1.815
49738SOL    HW251054   3.331   9.153   1.886
49739SOL     OW51055  10.786  11.795   2.031
49739SOL    HW151056  10.784  11.875   1.978
49739SOL    HW251057  10.820  11.824   2.116
49740SOL     OW51058   5.538   2.879   5.117
49740SOL    HW151059   5.542   2.908   5.208
49740SOL    HW251060   5.455   2.832   5.110
49741SOL     OW51061  11.789   6.857   4.940
49741SOL    HW151062  11.722   6.916   4.974
49741SOL    HW251063  11.740   6.790   4.892
49742SOL     OW51064   4.592   4.954   2.979
49742SOL    HW151065   4.622   4.863   2.980
49742SOL    HW251066   4.519   4.954   2.917
49743SOL     OW51067   0.429   3.389   6.345
49743SOL    HW151068   0.400   3.312   6.296
49743SOL    HW251069   0.523   3.392   6.331
49744SOL     OW51070   5.728   4.467   0.375
49744SOL    HW151071   5.808   4.505   0.411
49744SOL    HW251072   5.658   4.521   0.412
49745SOL     OW51073   0.534   3.414  13.541
49745SOL    HW151074   0.451   3.426  13.494
49745SOL    HW251075   0.508   3.399  13.632
49746SOL     OW51076   9.193  12.936   6.368
49746SOL    HW151077   9.260  12.957   6.304
49746SOL    HW251078   9.180  12.842   6.360
49747SOL     OW51079   4.488   5.090   8.775
49747SOL    HW151080   4.565   5.130   8.814
49747SOL    HW251081   4.415   5.121   8.829
49748SOL     OW51082   2.958   7.629   5.632
49748SOL    HW151083   2.943   7.557   5.694
49748SOL    HW251084   3.009   7.693   5.682
49749SOL     OW51085   2.881   1.036   2.040
49749SOL    HW151086   2.825   0.963   2.017
49749SOL    HW251087   2.864   1.051   2.133
49750SOL     OW51088   3.982  13.372   5.835
49750SOL    HW151089   3.936  13.300   5.792
49750SOL    HW251090   4.001  13.433   5.763
49751SOL     OW51091  10.409   9.195  10.758
49751SOL    HW151092  10.391   9.123  10.818
49751SOL    HW251093  10.501   9.182  10.733
49752SOL     OW51094  11.459   7.229   8.666
49752SOL    HW151095  11.375   7.196   8.697
49752SOL    HW251096  11.523   7.164   8.695
49753SOL     OW51097   2.005  12.318   8.497
49753SOL    HW151098   1.935  12.273   8.450
49753SOL    HW251099   1.961  12.362   8.569
49754SOL     OW51100   9.674   7.000   6.387
49754SOL    HW151101   9.712   7.048   6.461
49754SOL    HW251102   9.612   6.939   6.427
49755SOL     OW51103  12.205   6.082   1.021
49755SOL    HW151104  12.270   6.080   1.091
49755SOL    HW251105  12.203   5.992   0.988
49756SOL     OW51106  11.459   5.514  10.755
49756SOL    HW151107  11.399   5.441  10.741
49756SOL    HW251108  11.403   5.592  10.751
49757SOL     OW51109  10.322  10.534   4.493
49757SOL    HW151110  10.379  10.462   4.517
49757SOL    HW251111  10.264  10.498   4.426
49758SOL     OW51112  12.470  10.277  13.538
49758SOL    HW151113  12.411  10.226  13.592
49758SOL    HW251114  12.435  10.366  13.542
49759SOL     OW51115   0.866   9.881  12.014
49759SOL    HW151116   0.959   9.906  12.010
49759SOL    HW251117   0.865   9.802  12.067
49760SOL     OW51118   4.924   6.146   5.998
49760SOL    HW151119   4.967   6.215   6.050
49760SOL    HW251120   4.830   6.161   6.011
49761SOL     OW51121   4.724  11.425  14.530
49761SOL    HW151122   4.768  11.360  14.585
49761SOL    HW251123   4.772  11.506  14.547
49762SOL     OW51124   5.364  13.793   6.647
49762SOL    HW151125   5.399  13.820   6.732
49762SOL    HW251126   5.304  13.720   6.668
49763SOL     OW51127  13.077   1.564   3.270
49763SOL    HW151128  13.032   1.600   3.346
49763SOL    HW251129  13.077   1.470   3.283
49764SOL     OW51130  13.784   1.359  11.209
49764SOL    HW151131  13.858   1.410  11.175
49764SOL    HW251132  13.709   1.417  11.198
49765SOL     OW51133  12.411   4.404   0.302
49765SOL    HW151134  12.483   4.410   0.239
49765SOL    HW251135  12.334   4.385   0.248
49766SOL     OW51136  10.423   1.961  13.352
49766SOL    HW151137  10.329   1.977  13.348
49766SOL    HW251138  10.456   2.026  13.415
49767SOL     OW51139  10.803  13.055  12.584
49767SOL    HW151140  10.866  13.105  12.532
49767SOL    HW251141  10.739  13.023  12.520
49768SOL     OW51142  13.003  14.049   6.614
49768SOL    HW151143  13.021  14.072   6.523
49768SOL    HW251144  13.057  13.971   6.630
49769SOL     OW51145   8.478   1.144  10.699
49769SOL    HW151146   8.500   1.218  10.642
49769SOL    HW251147   8.469   1.182  10.786
49770SOL     OW51148   5.713   7.966   0.535
49770SOL    HW151149   5.715   7.944   0.442
49770SOL    HW251150   5.654   7.901   0.574
49771SOL     OW51151   2.858   9.776  13.114
49771SOL    HW151152   2.852   9.864  13.076
49771SOL    HW251153   2.909   9.726  13.050
49772SOL     OW51154   5.458   5.980   4.231
49772SOL    HW151155   5.533   5.933   4.267
49772SOL    HW251156   5.481   6.072   4.237
49773SOL     OW51157  12.201   0.438   1.660
49773SOL    HW151158  12.233   0.348   1.658
49773SOL    HW251159  12.132   0.441   1.593
49774SOL     OW51160   8.680   2.958   3.050
49774SOL    HW151161   8.586   2.974   3.041
49774SOL    HW251162   8.707   2.925   2.964
49775SOL     OW51163  12.353   1.228  13.459
49775SOL    HW151164  12.433   1.277  13.480
49775SOL    HW251165  12.283   1.293  13.465
49776SOL     OW51166   2.037   3.167   4.664
49776SOL    HW151167   2.085   3.116   4.599
49776SOL    HW251168   2.105   3.219   4.707
49777SOL     OW51169   1.624   6.585  10.211
49777SOL    HW151170   1.534   6.601  10.239
49777SOL    HW251171   1.646   6.500  10.249
49778SOL     OW51172   3.754   0.128   2.039
49778SOL    HW151173   3.716   0.146   1.953
49778SOL    HW251174   3.770   0.034   2.040
49779SOL     OW51175  11.208   8.653  12.416
49779SOL    HW151176  11.203   8.696  12.502
49779SOL    HW251177  11.190   8.561  12.434
49780SOL     OW51178  14.133   7.214   0.960
49780SOL    HW151179  14.203   7.158   0.994
49780SOL    HW251180  14.105   7.171   0.879
49781SOL     OW51181   9.382  11.896   6.501
49781SOL    HW151182   9.372  11.808   6.535
49781SOL    HW251183   9.370  11.887   6.406
49782SOL     OW51184   3.247   9.353   0.441
49782SOL    HW151185   3.182   9.351   0.511
49782SOL    HW251186   3.202   9.399   0.369
49783SOL     OW51187   9.899   9.235  13.473
49783SOL    HW151188   9.882   9.262  13.563
49783SOL    HW251189   9.995   9.234  13.467
49784SOL     OW51190  10.430   3.512   9.428
49784SOL    HW151191  10.525   3.509   9.413
49784SOL    HW251192  10.401   3.589   9.380
49785SOL     OW51193   1.726  12.367   9.590
49785SOL    HW151194   1.730  12.462   9.606
49785SOL    HW251195   1.692  12.330   9.671
49786SOL     OW51196  11.614  14.821   5.435
49786SOL    HW151197  11.707  14.801   5.426
49786SOL    HW251198  11.585  14.766   5.508
49787SOL     OW51199  14.829   8.448   6.622
49787SOL    HW151200   0.028   8.503   6.623
49787SOL    HW251201  14.800   8.446   6.714
49788SOL     OW51202  11.684   8.023  14.252
49788SOL    HW151203  11.667   7.989  14.164
49788SOL    HW251204  11.703   8.116  14.238
49789SOL     OW51205  12.635   2.844  14.152
49789SOL    HW151206  12.697   2.814  14.219
49789SOL    HW251207  12.580   2.768  14.134
49790SOL     OW51208  11.508   2.825   8.615
49790SOL    HW151209  11.552   2.805   8.697
49790SOL    HW251210  11.425   2.778   8.620
49791SOL     OW51211  13.644   4.238  13.693
49791SOL    HW151212  13.568   4.264  13.746
49791SOL    HW251213  13.718   4.241  13.754
49792SOL     OW51214   7.095   0.536   2.103
49792SOL    HW151215   7.106   0.444   2.081
49792SOL    HW251216   7.104   0.582   2.019
49793SOL     OW51217   8.903   1.725   3.311
49793SOL    HW151218   8.945   1.640   3.302
49793SOL    HW251219   8.810   1.706   3.310
49794SOL     OW51220   7.831   9.082   8.317
49794SOL    HW151221   7.772   9.076   8.392
49794SOL    HW251222   7.848   9.176   8.307
49795SOL     OW51223  14.587  11.578  10.723
49795SOL    HW151224  14.644  11.504  10.702
49795SOL    HW251225  14.503  11.539  10.747
49796SOL     OW51226  13.259   4.981  13.398
49796SOL    HW151227  13.221   5.063  13.430
49796SOL    HW251228  13.354   4.995  13.405
49797SOL     OW51229  13.521   5.105   0.940
49797SOL    HW151230  13.527   5.135   0.849
49797SOL    HW251231  13.463   5.029   0.936
49798SOL     OW51232   8.289   1.173   9.818
49798SOL    HW151233   8.242   1.234   9.761
49798SOL    HW251234   8.247   1.088   9.801
49799SOL     OW51235   8.822   5.809  10.667
49799SOL    HW151236   8.822   5.733  10.725
49799SOL    HW251237   8.731   5.838  10.666
49800SOL     OW51238   9.974   1.189  14.832
49800SOL    HW151239  10.005   1.101  14.810
49800SOL    HW251240   9.907   1.208  14.766
49801SOL     OW51241   1.504   7.404   3.204
49801SOL    HW151242   1.431   7.465   3.215
49801SOL    HW251243   1.575   7.442   3.256
49802SOL     OW51244   0.828  12.086  11.768
49802SOL    HW151245   0.862  12.004  11.802
49802SOL    HW251246   0.810  12.068  11.675
49803SOL     OW51247  10.591   2.629  12.082
49803SOL    HW151248  10.509   2.629  12.034
49803SOL    HW251249  10.568   2.661  12.170
49804SOL     OW51250   9.961  12.775   9.830
49804SOL    HW151251   9.969  12.800   9.922
49804SOL    HW251252   9.934  12.854   9.785
49805SOL     OW51253  14.358   9.214   4.712
49805SOL    HW151254  14.318   9.293   4.676
49805SOL    HW251255  14.451   9.224   4.694
49806SOL     OW51256   8.976   1.171  12.970
49806SOL    HW151257   8.932   1.188  12.887
49806SOL    HW251258   9.006   1.080  12.963
49807SOL     OW51259   3.200   0.642   8.950
49807SOL    HW151260   3.123   0.636   9.007
49807SOL    HW251261   3.213   0.735   8.935
49808SOL     OW51262   3.289   5.823   0.838
49808SOL    HW151263   3.318   5.748   0.891
49808SOL    HW251264   3.238   5.877   0.898
49809SOL     OW51265   4.242   9.920   3.386
49809SOL    HW151266   4.158   9.901   3.426
49809SOL    HW251267   4.297   9.844   3.407
49810SOL     OW51268   3.487   4.332   2.789
49810SOL    HW151269   3.430   4.314   2.714
49810SOL    HW251270   3.427   4.351   2.861
49811SOL     OW51271   7.499   1.041   7.352
49811SOL    HW151272   7.481   1.023   7.445
49811SOL    HW251273   7.579   1.093   7.353
49812SOL     OW51274   4.972   1.376   5.029
49812SOL    HW151275   5.062   1.344   5.021
49812SOL    HW251276   4.947   1.357   5.119
49813SOL     OW51277  12.052  14.010  11.097
49813SOL    HW151278  11.983  14.074  11.115
49813SOL    HW251279  12.106  14.010  11.176
49814SOL     OW51280   0.475   3.561   7.626
49814SOL    HW151281   0.440   3.480   7.588
49814SOL    HW251282   0.529   3.599   7.556
49815SOL     OW51283   7.490  10.658  11.326
49815SOL    HW151284   7.428  10.715  11.281
49815SOL    HW251285   7.545  10.718  11.377
49816SOL     OW51286   0.050   7.017   9.796
49816SOL    HW151287   0.110   7.064   9.853
49816SOL    HW251288   0.003   6.958   9.854
49817SOL     OW51289  14.519   7.282   0.944
49817SOL    HW151290  14.446   7.322   0.991
49817SOL    HW251291  14.490   7.192   0.928
49818SOL     OW51292   7.943   1.902  10.756
49818SOL    HW151293   7.923   1.809  10.759
49818SOL    HW251294   7.898   1.934  10.678
49819SOL     OW51295   0.657   2.769  14.198
49819SOL    HW151296   0.714   2.758  14.274
49819SOL    HW251297   0.569   2.757  14.233
49820SOL     OW51298   0.817  10.783   5.336
49820SOL    HW151299   0.880  10.747   5.399
49820SOL    HW251300   0.813  10.877   5.356
49821SOL     OW51301  12.135  12.796  11.745
49821SOL    HW151302  12.108  12.772  11.656
49821SOL    HW251303  12.067  12.758  11.801
49822SOL     OW51304  12.857  10.873   3.215
49822SOL    HW151305  12.924  10.928   3.176
49822SOL    HW251306  12.800  10.934   3.263
49823SOL     OW51307   2.359   4.249   0.531
49823SOL    HW151308   2.305   4.312   0.482
49823SOL    HW251309   2.386   4.185   0.465
49824SOL     OW51310   0.363   3.455   1.967
49824SOL    HW151311   0.389   3.538   1.927
49824SOL    HW251312   0.272   3.442   1.938
49825SOL     OW51313   1.028   3.500   7.520
49825SOL    HW151314   1.000   3.531   7.606
49825SOL    HW251315   1.112   3.544   7.505
49826SOL     OW51316  11.179  10.469   3.165
49826SOL    HW151317  11.162  10.516   3.246
49826SOL    HW251318  11.238  10.525   3.115
49827SOL     OW51319  10.528   3.481   6.967
49827SOL    HW151320  10.488   3.475   7.054
49827SOL    HW251321  10.602   3.421   6.970
49828SOL     OW51322   1.593  13.177   8.600
49828SOL    HW151323   1.551  13.092   8.613
49828SOL    HW251324   1.533  13.240   8.639
49829SOL     OW51325   7.795  14.804  11.505
49829SOL    HW151326   7.720  14.749  11.527
49829SOL    HW251327   7.823  14.773  11.419
49830SOL     OW51328   6.080   5.093  10.812
49830SOL    HW151329   6.016   5.152  10.773
49830SOL    HW251330   6.027   5.031  10.863
49831SOL     OW51331   2.117   6.737   7.799
49831SOL    HW151332   2.030   6.776   7.792
49831SOL    HW251333   2.176   6.802   7.761
49832SOL     OW51334   6.498   0.892  12.041
49832SOL    HW151335   6.450   0.884  11.959
49832SOL    HW251336   6.572   0.833  12.032
49833SOL     OW51337   7.929   7.185  11.758
49833SOL    HW151338   8.016   7.148  11.751
49833SOL    HW251339   7.909   7.181  11.852
49834SOL     OW51340  11.300   3.516   7.849
49834SOL    HW151341  11.391   3.534   7.874
49834SOL    HW251342  11.302   3.426   7.816
49835SOL     OW51343  11.273   5.562   0.995
49835SOL    HW151344  11.268   5.557   1.091
49835SOL    HW251345  11.301   5.652   0.977
49836SOL     OW51346  13.221  12.109   5.060
49836SOL    HW151347  13.127  12.124   5.068
49836SOL    HW251348  13.260  12.196   5.055
49837SOL     OW51349   7.236  11.953  10.549
49837SOL    HW151350   7.240  11.937  10.455
49837SOL    HW251351   7.162  12.013  10.560
49838SOL     OW51352  11.167   9.129   1.166
49838SOL    HW151353  11.175   9.096   1.255
49838SOL    HW251354  11.258   9.140   1.136
49839SOL     OW51355   5.817   2.354  13.342
49839SOL    HW151356   5.891   2.296  13.360
49839SOL    HW251357   5.857   2.432  13.304
49840SOL     OW51358  11.181   0.913  14.650
49840SOL    HW151359  11.200   0.822  14.627
49840SOL    HW251360  11.167   0.912  14.745
49841SOL     OW51361   1.669   3.104   1.151
49841SOL    HW151362   1.606   3.039   1.119
49841SOL    HW251363   1.751   3.083   1.106
49842SOL     OW51364   1.667   9.323   3.846
49842SOL    HW151365   1.685   9.389   3.779
49842SOL    HW251366   1.750   9.276   3.857
49843SOL     OW51367  10.802   3.959  14.418
49843SOL    HW151368  10.871   3.894  14.432
49843SOL    HW251369  10.798   4.008  14.500
49844SOL     OW51370   6.194  11.718  11.410
49844SOL    HW151371   6.146  11.768  11.344
49844SOL    HW251372   6.279  11.702  11.370
49845SOL     OW51373  10.175  10.664  12.375
49845SOL    HW151374  10.167  10.588  12.317
49845SOL    HW251375  10.177  10.626  12.463
49846SOL     OW51376   8.569   9.380   1.797
49846SOL    HW151377   8.654   9.417   1.774
49846SOL    HW251378   8.512   9.456   1.808
49847SOL     OW51379   2.454  14.258  11.367
49847SOL    HW151380   2.441  14.346  11.333
49847SOL    HW251381   2.549  14.249  11.376
49848SOL     OW51382   5.900   0.532   4.900
49848SOL    HW151383   5.929   0.446   4.930
49848SOL    HW251384   5.817   0.547   4.946
49849SOL     OW51385  10.083   2.722   7.837
49849SOL    HW151386  10.072   2.636   7.878
49849SOL    HW251387  10.175   2.725   7.813
49850SOL     OW51388   4.522  13.140   9.241
49850SOL    HW151389   4.509  13.234   9.252
49850SOL    HW251390   4.594  13.133   9.178
49851SOL     OW51391   1.294   1.059  11.726
49851SOL    HW151392   1.352   1.110  11.670
49851SOL    HW251393   1.272   1.118  11.798
49852SOL     OW51394   3.491   4.021  13.990
49852SOL    HW151395   3.563   4.008  13.929
49852SOL    HW251396   3.508   4.106  14.030
49853SOL     OW51397   2.032   3.915   1.097
49853SOL    HW151398   1.972   3.958   1.158
49853SOL    HW251399   2.114   3.963   1.107
49854SOL     OW51400   5.413   5.350   6.918
49854SOL    HW151401   5.443   5.261   6.934
49854SOL    HW251402   5.340   5.341   6.857
49855SOL     OW51403   5.464  11.347  13.696
49855SOL    HW151404   5.394  11.406  13.665
49855SOL    HW251405   5.421  11.291  13.760
49856SOL     OW51406   9.853   3.882   0.249
49856SOL    HW151407   9.831   3.852   0.338
49856SOL    HW251408   9.769   3.885   0.204
49857SOL     OW51409   8.091   5.006  13.150
49857SOL    HW151410   8.022   4.940  13.141
49857SOL    HW251411   8.044   5.089  13.151
49858SOL     OW51412  12.775   1.980   4.131
49858SOL    HW151413  12.833   1.977   4.055
49858SOL    HW251414  12.700   1.925   4.106
49859SOL     OW51415  10.477  14.189   4.020
49859SOL    HW151416  10.548  14.126   4.032
49859SOL    HW251417  10.406  14.156   4.075
49860SOL     OW51418  12.110   9.946   7.499
49860SOL    HW151419  12.150  10.033   7.495
49860SOL    HW251420  12.032   9.954   7.443
49861SOL     OW51421  12.134  14.413   4.648
49861SOL    HW151422  12.137  14.409   4.552
49861SOL    HW251423  12.112  14.323   4.674
49862SOL     OW51424  13.601  14.551  14.766
49862SOL    HW151425  13.685  14.575  14.805
49862SOL    HW251426  13.558  14.635  14.747
49863SOL     OW51427   5.340   8.293   1.173
49863SOL    HW151428   5.330   8.279   1.267
49863SOL    HW251429   5.268   8.352   1.150
49864SOL     OW51430   1.602  13.917   6.362
49864SOL    HW151431   1.591  13.832   6.320
49864SOL    HW251432   1.565  13.980   6.300
49865SOL     OW51433  11.050   9.562   2.445
49865SOL    HW151434  11.067   9.573   2.538
49865SOL    HW251435  10.996   9.483   2.439
49866SOL     OW51436  10.890  13.417   5.846
49866SOL    HW151437  10.916  13.454   5.930
49866SOL    HW251438  10.835  13.485   5.807
49867SOL     OW51439  12.734  14.746   7.081
49867SOL    HW151440  12.657  14.733   7.136
49867SOL    HW251441  12.800  14.782   7.140
49868SOL     OW51442  11.579   6.421   7.140
49868SOL    HW151443  11.611   6.409   7.051
49868SOL    HW251444  11.486   6.399   7.136
49869SOL     OW51445   8.631   5.763  12.992
49869SOL    HW151446   8.692   5.759  13.065
49869SOL    HW251447   8.668   5.831  12.934
49870SOL     OW51448   6.547  13.545  11.113
49870SOL    HW151449   6.617  13.484  11.089
49870SOL    HW251450   6.512  13.510  11.195
49871SOL     OW51451   3.580  12.037   3.729
49871SOL    HW151452   3.505  11.978   3.716
49871SOL    HW251453   3.639  11.988   3.786
49872SOL     OW51454   3.412   3.206   8.825
49872SOL    HW151455   3.390   3.115   8.802
49872SOL    HW251456   3.367   3.220   8.909
49873SOL     OW51457   7.145   6.905   1.805
49873SOL    HW151458   7.065   6.932   1.851
49873SOL    HW251459   7.213   6.963   1.841
49874SOL     OW51460   3.222   5.329   0.639
49874SOL    HW151461   3.151   5.267   0.659
49874SOL    HW251462   3.273   5.286   0.571
49875SOL     OW51463  11.934  13.674   5.546
49875SOL    HW151464  11.961  13.719   5.466
49875SOL    HW251465  11.869  13.611   5.516
49876SOL     OW51466   0.514   7.478   1.972
49876SOL    HW151467   0.485   7.402   2.022
49876SOL    HW251468   0.463   7.475   1.892
49877SOL     OW51469  13.104   4.273  10.830
49877SOL    HW151470  13.021   4.280  10.784
49877SOL    HW251471  13.164   4.330  10.781
49878SOL     OW51472  13.822   1.514   8.528
49878SOL    HW151473  13.849   1.519   8.619
49878SOL    HW251474  13.803   1.421   8.513
49879SOL     OW51475  10.680   0.743  13.637
49879SOL    HW151476  10.671   0.815  13.699
49879SOL    HW251477  10.610   0.682  13.660
49880SOL     OW51478   7.678   8.890  10.925
49880SOL    HW151479   7.671   8.798  10.900
49880SOL    HW251480   7.656   8.891  11.018
49881SOL     OW51481  10.913   3.579   9.966
49881SOL    HW151482  10.964   3.641  10.018
49881SOL    HW251483  10.849   3.634   9.920
49882SOL     OW51484   1.865   9.324   9.657
49882SOL    HW151485   1.954   9.316   9.623
49882SOL    HW251486   1.809   9.321   9.580
49883SOL     OW51487   2.156  11.202  14.394
49883SOL    HW151488   2.081  11.200  14.454
49883SOL    HW251489   2.214  11.269  14.430
49884SOL     OW51490   7.718   7.730   6.221
49884SOL    HW151491   7.704   7.823   6.240
49884SOL    HW251492   7.631   7.696   6.199
49885SOL     OW51493   5.423   4.482  14.796
49885SOL    HW151494   5.463   4.413  14.850
49885SOL    HW251495   5.470   4.478  14.713
49886SOL     OW51496   3.423   2.392  12.711
49886SOL    HW151497   3.409   2.433  12.625
49886SOL    HW251498   3.484   2.450  12.755
49887SOL     OW51499   5.657  12.159   8.347
49887SOL    HW151500   5.601  12.132   8.274
49887SOL    HW251501   5.697  12.240   8.317
49888SOL     OW51502  11.588   4.907  11.301
49888SOL    HW151503  11.535   4.933  11.226
49888SOL    HW251504  11.527   4.860  11.358
49889SOL     OW51505   9.791  11.295  12.870
49889SOL    HW151506   9.771  11.264  12.781
49889SOL    HW251507   9.723  11.360  12.888
49890SOL     OW51508   8.388   0.854   2.958
49890SOL    HW151509   8.352   0.765   2.964
49890SOL    HW251510   8.475   0.842   2.920
49891SOL     OW51511   5.569  14.803   6.449
49891SOL    HW151512   5.639  14.838   6.504
49891SOL    HW251513   5.606  14.723   6.411
49892SOL     OW51514   4.023   8.659   4.036
49892SOL    HW151515   4.103   8.630   3.992
49892SOL    HW251516   4.003   8.744   3.995
49893SOL     OW51517   5.007   5.818   2.026
49893SOL    HW151518   4.960   5.838   1.945
49893SOL    HW251519   4.991   5.894   2.082
49894SOL     OW51520   8.066   3.925   9.861
49894SOL    HW151521   8.019   3.917   9.945
49894SOL    HW251522   8.055   3.840   9.819
49895SOL     OW51523   6.717   8.476   4.269
49895SOL    HW151524   6.678   8.481   4.356
49895SOL    HW251525   6.654   8.424   4.218
49896SOL     OW51526   6.016   1.985   6.801
49896SOL    HW151527   5.987   1.910   6.749
49896SOL    HW251528   5.937   2.016   6.845
49897SOL     OW51529   3.570   1.491   4.422
49897SOL    HW151530   3.637   1.426   4.400
49897SOL    HW251531   3.579   1.505   4.516
49898SOL     OW51532  12.218   4.492  13.779
49898SOL    HW151533  12.226   4.571  13.832
49898SOL    HW251534  12.300   4.445  13.794
49899SOL     OW51535  11.617  13.416   3.441
49899SOL    HW151536  11.576  13.410   3.527
49899SOL    HW251537  11.684  13.483   3.451
49900SOL     OW51538   2.777  12.256  13.285
49900SOL    HW151539   2.821  12.175  13.311
49900SOL    HW251540   2.828  12.326  13.327
49901SOL     OW51541  14.336   3.740   4.401
49901SOL    HW151542  14.402   3.672   4.407
49901SOL    HW251543  14.283   3.729   4.480
49902SOL     OW51544  14.113   5.464  13.780
49902SOL    HW151545  14.198   5.437  13.814
49902SOL    HW251546  14.105   5.556  13.804
49903SOL     OW51547  12.584  13.285   5.458
49903SOL    HW151548  12.672  13.309   5.428
49903SOL    HW251549  12.580  13.319   5.547
49904SOL     OW51550  10.799   1.656  10.268
49904SOL    HW151551  10.803   1.619  10.356
49904SOL    HW251552  10.735   1.727  10.275
49905SOL     OW51553  13.889  10.920   1.218
49905SOL    HW151554  13.930  10.851   1.271
49905SOL    HW251555  13.903  10.890   1.128
49906SOL     OW51556   4.623  10.553   2.773
49906SOL    HW151557   4.689  10.512   2.830
49906SOL    HW251558   4.569  10.605   2.831
49907SOL     OW51559   5.383   1.488   1.468
49907SOL    HW151560   5.472   1.520   1.482
49907SOL    HW251561   5.328   1.546   1.521
49908SOL     OW51562   4.920   4.350   1.992
49908SOL    HW151563   4.872   4.316   2.068
49908SOL    HW251564   4.997   4.392   2.030
49909SOL     OW51565  11.671  10.251  11.392
49909SOL    HW151566  11.708  10.276  11.308
49909SOL    HW251567  11.730  10.184  11.426
49910SOL     OW51568   6.178   1.249   9.314
49910SOL    HW151569   6.096   1.298   9.307
49910SOL    HW251570   6.154   1.166   9.355
49911SOL     OW51571   1.796   8.268   6.081
49911SOL    HW151572   1.886   8.289   6.107
49911SOL    HW251573   1.774   8.191   6.133
49912SOL     OW51574   1.115   5.000  10.646
49912SOL    HW151575   1.073   4.931  10.699
49912SOL    HW251576   1.188   4.956  10.604
49913SOL     OW51577   1.473   4.094  10.094
49913SOL    HW151578   1.502   4.119  10.182
49913SOL    HW251579   1.547   4.117  10.038
49914SOL     OW51580  10.642   6.875   0.513
49914SOL    HW151581  10.634   6.813   0.441
49914SOL    HW251582  10.606   6.956   0.479
49915SOL     OW51583  13.992  11.209   4.504
49915SOL    HW151584  14.060  11.274   4.517
49915SOL    HW251585  14.015  11.166   4.421
49916SOL     OW51586   0.368   0.204   2.352
49916SOL    HW151587   0.453   0.243   2.371
49916SOL    HW251588   0.388   0.113   2.330
49917SOL     OW51589  12.832   2.303   8.982
49917SOL    HW151590  12.841   2.346   8.897
49917SOL    HW251591  12.746   2.261   8.978
49918SOL     OW51592   6.228   6.453  13.394
49918SOL    HW151593   6.311   6.406  13.405
49918SOL    HW251594   6.251   6.545  13.410
49919SOL     OW51595   1.815   2.722   9.765
49919SOL    HW151596   1.787   2.673   9.842
49919SOL    HW251597   1.788   2.812   9.784
49920SOL     OW51598   3.258   5.277   6.957
49920SOL    HW151599   3.321   5.208   6.938
49920SOL    HW251600   3.230   5.308   6.871
49921SOL     OW51601   6.552   0.725  10.151
49921SOL    HW151602   6.580   0.644  10.194
49921SOL    HW251603   6.576   0.712  10.059
49922SOL     OW51604  14.191  13.658   0.715
49922SOL    HW151605  14.109  13.609   0.723
49922SOL    HW251606  14.259  13.592   0.722
49923SOL     OW51607  11.657  12.686   7.170
49923SOL    HW151608  11.697  12.771   7.188
49923SOL    HW251609  11.571  12.690   7.212
49924SOL     OW51610   2.123   0.897  12.952
49924SOL    HW151611   2.170   0.827  12.907
49924SOL    HW251612   2.099   0.958  12.882
49925SOL     OW51613   9.702   9.586  10.759
49925SOL    HW151614   9.751   9.505  10.767
49925SOL    HW251615   9.765   9.649  10.723
49926SOL     OW51616   8.750   4.431  14.661
49926SOL    HW151617   8.798   4.392  14.588
49926SOL    HW251618   8.804   4.506  14.688
49927SOL     OW51619   6.523  12.630  14.636
49927SOL    HW151620   6.566  12.654  14.718
49927SOL    HW251621   6.429  12.637  14.654
49928SOL     OW51622   6.720  11.961  14.861
49928SOL    HW151623   6.792  11.907  14.829
49928SOL    HW251624   6.641  11.915  14.834
49929SOL     OW51625   2.734  14.167   0.613
49929SOL    HW151626   2.803  14.172   0.679
49929SOL    HW251627   2.779  14.137   0.534
49930SOL     OW51628   4.190   2.534   2.214
49930SOL    HW151629   4.218   2.442   2.215
49930SOL    HW251630   4.197   2.561   2.123
49931SOL     OW51631   1.032   0.221  14.562
49931SOL    HW151632   1.046   0.227  14.657
49931SOL    HW251633   0.946   0.261  14.549
49932SOL     OW51634  13.686   7.880   1.215
49932SOL    HW151635  13.603   7.898   1.259
49932SOL    HW251636  13.745   7.851   1.284
49933SOL     OW51637   1.637   4.164  10.338
49933SOL    HW151638   1.714   4.182  10.284
49933SOL    HW251639   1.668   4.099  10.402
49934SOL     OW51640  14.452  13.763   5.553
49934SOL    HW151641  14.366  13.801   5.538
49934SOL    HW251642  14.509  13.806   5.489
49935SOL     OW51643   0.176  12.787   3.519
49935SOL    HW151644   0.158  12.793   3.425
49935SOL    HW251645   0.146  12.870   3.555
49936SOL     OW51646   8.972   3.349   9.869
49936SOL    HW151647   8.987   3.263   9.908
49936SOL    HW251648   8.882   3.371   9.894
49937SOL     OW51649  14.821   9.847   3.331
49937SOL    HW151650  14.828   9.828   3.425
49937SOL    HW251651   0.032   9.845   3.300
49938SOL     OW51652   7.668  14.875   0.979
49938SOL    HW151653   7.583  14.867   1.022
49938SOL    HW251654   7.669   0.084   0.942
49939SOL     OW51655   0.819   2.325   4.558
49939SOL    HW151656   0.787   2.367   4.638
49939SOL    HW251657   0.743   2.320   4.501
49940SOL     OW51658   9.454   9.529   0.098
49940SOL    HW151659   9.503   9.609   0.114
49940SOL    HW251660   9.519   9.467   0.065
49941SOL     OW51661   4.719  13.162   3.035
49941SOL    HW151662   4.794  13.183   3.091
49941SOL    HW251663   4.661  13.111   3.090
49942SOL     OW51664   9.727  14.508   2.708
49942SOL    HW151665   9.802  14.533   2.762
49942SOL    HW251666   9.709  14.418   2.733
49943SOL     OW51667   4.999   5.908   3.910
49943SOL    HW151668   5.081   5.869   3.942
49943SOL    HW251669   4.970   5.965   3.981
49944SOL     OW51670   8.632   2.629  11.294
49944SOL    HW151671   8.726   2.645  11.301
49944SOL    HW251672   8.623   2.534  11.307
49945SOL     OW51673   5.260   5.742   4.463
49945SOL    HW151674   5.185   5.717   4.518
49945SOL    HW251675   5.337   5.712   4.512
49946SOL     OW51676  11.048  11.466   1.479
49946SOL    HW151677  11.049  11.545   1.425
49946SOL    HW251678  10.959  11.432   1.470
49947SOL     OW51679  10.052   8.739   4.728
49947SOL    HW151680  10.017   8.684   4.657
49947SOL    HW251681  10.140   8.761   4.700
49948SOL     OW51682   8.486  12.751  14.790
49948SOL    HW151683   8.515  12.838  14.819
49948SOL    HW251684   8.560  12.694  14.808
49949SOL     OW51685   6.192  11.067   0.032
49949SOL    HW151686   6.115  11.083  14.857
49949SOL    HW251687   6.248  11.143   0.017
49950SOL     OW51688  13.361  11.242   4.486
49950SOL    HW151689  13.273  11.205   4.480
49950SOL    HW251690  13.379  11.276   4.399
49951SOL     OW51691   4.422  12.400  10.297
49951SOL    HW151692   4.406  12.327  10.238
49951SOL    HW251693   4.515  12.421  10.285
49952SOL     OW51694   2.145  10.305   0.998
49952SOL    HW151695   2.104  10.360   1.065
49952SOL    HW251696   2.092  10.225   0.997
49953SOL     OW51697   0.015  10.168   3.250
49953SOL    HW151698   0.007  10.260   3.278
49953SOL    HW251699   0.044  10.122   3.329
49954SOL     OW51700   8.930  11.032   7.984
49954SOL    HW151701   8.973  11.113   7.956
49954SOL    HW251702   9.002  10.974   8.008
49955SOL     OW51703   2.309   6.252   0.019
49955SOL    HW151704   2.367   6.321  14.865
49955SOL    HW251705   2.335   6.174  14.850
49956SOL     OW51706   1.385   1.702  12.591
49956SOL    HW151707   1.350   1.631  12.537
49956SOL    HW251708   1.439   1.754  12.531
49957SOL     OW51709  12.560   1.931   1.167
49957SOL    HW151710  12.560   2.026   1.179
49957SOL    HW251711  12.511   1.917   1.086
49958SOL     OW51712  11.301   8.072   2.809
49958SOL    HW151713  11.275   8.144   2.866
49958SOL    HW251714  11.392   8.091   2.786
49959SOL     OW51715   8.802   6.253   7.313
49959SOL    HW151716   8.882   6.296   7.342
49959SOL    HW251717   8.760   6.317   7.255
49960SOL     OW51718  13.163   1.320   1.553
49960SOL    HW151719  13.202   1.249   1.502
49960SOL    HW251720  13.237   1.356   1.602
49961SOL     OW51721   6.980   2.669  14.588
49961SOL    HW151722   7.002   2.588  14.634
49961SOL    HW251723   6.944   2.641  14.505
49962SOL     OW51724  11.198   5.831  12.444
49962SOL    HW151725  11.157   5.842  12.530
49962SOL    HW251726  11.126   5.805  12.386
49963SOL     OW51727  12.016  14.770   8.345
49963SOL    HW151728  12.008  14.701   8.279
49963SOL    HW251729  11.995  14.851   8.298
49964SOL     OW51730   4.762   2.152   1.911
49964SOL    HW151731   4.724   2.067   1.930
49964SOL    HW251732   4.802   2.143   1.824
49965SOL     OW51733  10.525   3.779   9.494
49965SOL    HW151734  10.475   3.721   9.552
49965SOL    HW251735  10.542   3.856   9.547
49966SOL     OW51736   9.693  11.301   5.176
49966SOL    HW151737   9.654  11.370   5.229
49966SOL    HW251738   9.723  11.236   5.241
49967SOL     OW51739   7.878   3.791   3.701
49967SOL    HW151740   7.936   3.801   3.777
49967SOL    HW251741   7.926   3.734   3.642
49968SOL     OW51742  13.358   1.679   6.528
49968SOL    HW151743  13.317   1.651   6.446
49968SOL    HW251744  13.302   1.642   6.597
49969SOL     OW51745   3.676   9.700   8.623
49969SOL    HW151746   3.593   9.734   8.657
49969SOL    HW251747   3.715   9.773   8.576
49970SOL     OW51748   9.366   6.081  12.201
49970SOL    HW151749   9.385   5.993  12.233
49970SOL    HW251750   9.387   6.077  12.107
49971SOL     OW51751   6.710   8.444  12.773
49971SOL    HW151752   6.647   8.418  12.706
49971SOL    HW251753   6.728   8.536  12.754
49972SOL     OW51754   6.710   4.051   7.002
49972SOL    HW151755   6.670   4.088   7.081
49972SOL    HW251756   6.711   3.957   7.017
49973SOL     OW51757  10.825  10.125   2.665
49973SOL    HW151758  10.787  10.050   2.711
49973SOL    HW251759  10.919  10.120   2.685
49974SOL     OW51760   2.259   9.989   2.839
49974SOL    HW151761   2.286   9.921   2.901
49974SOL    HW251762   2.188  10.035   2.883
49975SOL     OW51763   5.929  12.392   6.503
49975SOL    HW151764   5.869  12.402   6.429
49975SOL    HW251765   6.001  12.339   6.468
49976SOL     OW51766   4.172   9.902  11.831
49976SOL    HW151767   4.169   9.992  11.797
49976SOL    HW251768   4.262   9.890  11.859
49977SOL     OW51769  10.775  13.024   3.129
49977SOL    HW151770  10.719  12.954   3.162
49977SOL    HW251771  10.755  13.028   3.035
49978SOL     OW51772  13.055   8.392   1.957
49978SOL    HW151773  13.137   8.343   1.948
49978SOL    HW251774  12.998   8.355   1.890
49979SOL     OW51775   1.954   7.232   4.940
49979SOL    HW151776   1.911   7.176   5.004
49979SOL    HW251777   1.892   7.304   4.925
49980SOL     OW51778   0.299   7.408   3.294
49980SOL    HW151779   0.343   7.382   3.213
49980SOL    HW251780   0.235   7.474   3.268
49981SOL     OW51781  14.728  12.990  12.446
49981SOL    HW151782  14.787  12.926  12.407
49981SOL    HW251783  14.654  12.938  12.479
49982SOL     OW51784   7.406   4.119   5.731
49982SOL    HW151785   7.387   4.047   5.791
49982SOL    HW251786   7.354   4.100   5.652
49983SOL     OW51787  13.911   7.767  12.913
49983SOL    HW151788  13.944   7.680  12.936
49983SOL    HW251789  13.815   7.756  12.913
49984SOL     OW51790  11.043   2.253   0.405
49984SOL    HW151791  11.055   2.158   0.398
49984SOL    HW251792  10.972   2.264   0.468
49985SOL     OW51793   2.034   8.411   4.703
49985SOL    HW151794   1.939   8.400   4.709
49985SOL    HW251795   2.068   8.370   4.783
49986SOL     OW51796  12.756   5.028   0.132
49986SOL    HW151797  12.831   4.999   0.184
49986SOL    HW251798  12.696   5.066   0.196
49987SOL     OW51799  14.492   4.598   1.313
49987SOL    HW151800  14.557   4.667   1.300
49987SOL    HW251801  14.445   4.626   1.392
49988SOL     OW51802  10.918   3.659   3.196
49988SOL    HW151803  10.910   3.618   3.283
49988SOL    HW251804  10.911   3.752   3.214
49989SOL     OW51805  10.705  13.470  11.425
49989SOL    HW151806  10.708  13.440  11.334
49989SOL    HW251807  10.632  13.422  11.463
49990SOL     OW51808   2.456   8.401   0.327
49990SOL    HW151809   2.501   8.484   0.342
49990SOL    HW251810   2.364   8.425   0.316
49991SOL     OW51811   2.912   8.819   0.709
49991SOL    HW151812   2.826   8.861   0.698
49991SOL    HW251813   2.973   8.892   0.722
49992SOL     OW51814   8.156  10.437  12.256
49992SOL    HW151815   8.225  10.450  12.322
49992SOL    HW251816   8.120  10.525  12.243
49993SOL     OW51817   9.109  10.158  10.992
49993SOL    HW151818   9.123  10.247  10.960
49993SOL    HW251819   9.094  10.167  11.086
49994SOL     OW51820   0.195   9.854   9.568
49994SOL    HW151821   0.146   9.823   9.644
49994SOL    HW251822   0.207   9.776   9.514
49995SOL     OW51823   6.259   6.462   1.150
49995SOL    HW151824   6.314   6.520   1.096
49995SOL    HW251825   6.238   6.388   1.093
49996SOL     OW51826   0.751   4.226   5.766
49996SOL    HW151827   0.708   4.259   5.844
49996SOL    HW251828   0.711   4.140   5.751
49997SOL     OW51829   6.849   2.230   5.505
49997SOL    HW151830   6.768   2.248   5.457
49997SOL    HW251831   6.897   2.169   5.449
49998SOL     OW51832   1.983  11.229  10.114
49998SOL    HW151833   2.035  11.199  10.039
49998SOL    HW251834   1.948  11.148  10.152
49999SOL     OW51835  12.705  12.943   2.867
49999SOL    HW151836  12.630  12.924   2.923
49999SOL    HW251837  12.737  13.028   2.898
50000SOL     OW51838   4.102   7.933  13.094
50000SOL    HW151839   4.129   7.952  13.184
50000SOL    HW251840   4.124   7.841  13.082
50001SOL     OW51841  11.281   4.247   4.511
50001SOL    HW151842  11.242   4.247   4.599
50001SOL    HW251843  11.322   4.333   4.503
50002SOL     OW51844   2.675   4.087   1.170
50002SOL    HW151845   2.712   3.999   1.166
50002SOL    HW251846   2.750   4.145   1.176
50003SOL     OW51847   5.845   1.342   7.760
50003SOL    HW151848   5.910   1.388   7.707
50003SOL    HW251849   5.763   1.390   7.744
50004SOL     OW51850  10.118   7.327   9.616
50004SOL    HW151851  10.099   7.415   9.585
50004SOL    HW251852  10.183   7.339   9.685
50005SOL     OW51853   5.130   6.552   0.814
50005SOL    HW151854   5.145   6.599   0.896
50005SOL    HW251855   5.046   6.508   0.827
50006SOL     OW51856  12.703   3.937   5.429
50006SOL    HW151857  12.625   3.918   5.481
50006SOL    HW251858  12.676   3.922   5.338
50007SOL     OW51859   6.270  14.417  13.154
50007SOL    HW151860   6.241  14.480  13.088
50007SOL    HW251861   6.358  14.445  13.178
50008SOL     OW51862  10.695  12.424  13.928
50008SOL    HW151863  10.643  12.368  13.870
50008SOL    HW251864  10.631  12.483  13.968
50009SOL     OW51865  13.636   1.241   1.910
50009SOL    HW151866  13.547   1.206   1.905
50009SOL    HW251867  13.641   1.302   1.837
50010SOL     OW51868   8.380   3.141   9.137
50010SOL    HW151869   8.304   3.193   9.164
50010SOL    HW251870   8.353   3.051   9.151
50011SOL     OW51871  10.917   5.003  12.076
50011SOL    HW151872  10.960   4.923  12.104
50011SOL    HW251873  10.948   5.017  11.986
50012SOL     OW51874  10.113   2.050   2.366
50012SOL    HW151875  10.175   1.994   2.320
50012SOL    HW251876  10.028   2.027   2.329
50013SOL     OW51877   5.758   7.914  14.136
50013SOL    HW151878   5.759   7.833  14.188
50013SOL    HW251879   5.684   7.903  14.077
50014SOL     OW51880  10.945   8.286  11.864
50014SOL    HW151881  11.000   8.320  11.934
50014SOL    HW251882  10.876   8.237  11.909
50015SOL     OW51883   2.187   4.108   7.088
50015SOL    HW151884   2.101   4.146   7.100
50015SOL    HW251885   2.207   4.065   7.171
50016SOL     OW51886  11.436   9.560  14.402
50016SOL    HW151887  11.371   9.587  14.468
50016SOL    HW251888  11.447   9.466  14.417
50017SOL     OW51889   6.722   7.875   2.052
50017SOL    HW151890   6.767   7.922   1.982
50017SOL    HW251891   6.788   7.865   2.120
50018SOL     OW51892   6.387   3.483  13.094
50018SOL    HW151893   6.388   3.426  13.170
50018SOL    HW251894   6.314   3.452  13.041
50019SOL     OW51895   2.207   8.196   3.285
50019SOL    HW151896   2.244   8.160   3.365
50019SOL    HW251897   2.124   8.235   3.312
50020SOL     OW51898   6.016   3.849  13.613
50020SOL    HW151899   6.044   3.922  13.668
50020SOL    HW251900   5.994   3.889  13.529
50021SOL     OW51901  10.488   4.879   8.951
50021SOL    HW151902  10.583   4.865   8.958
50021SOL    HW251903  10.479   4.950   8.887
50022SOL     OW51904   9.934   6.522   9.984
50022SOL    HW151905  10.018   6.568   9.982
50022SOL    HW251906   9.898   6.541  10.071
50023SOL     OW51907   8.699   7.866  13.342
50023SOL    HW151908   8.633   7.918  13.295
50023SOL    HW251909   8.752   7.932  13.387
50024SOL     OW51910  13.981  12.260   3.209
50024SOL    HW151911  13.965  12.189   3.146
50024SOL    HW251912  13.924  12.239   3.283
50025SOL     OW51913   7.022  12.572  11.619
50025SOL    HW151914   6.967  12.545  11.545
50025SOL    HW251915   7.098  12.614  11.578
50026SOL     OW51916  12.985   0.073   8.716
50026SOL    HW151917  12.914   0.135   8.699
50026SOL    HW251918  12.945   0.007   8.774
50027SOL     OW51919  13.513   0.832   1.981
50027SOL    HW151920  13.552   0.835   2.069
50027SOL    HW251921  13.429   0.876   1.990
50028SOL     OW51922   9.809   3.401   9.128
50028SOL    HW151923   9.756   3.462   9.179
50028SOL    HW251924   9.776   3.315   9.153
50029SOL     OW51925   5.369   8.073  10.390
50029SOL    HW151926   5.405   8.049  10.476
50029SOL    HW251927   5.274   8.072  10.403
50030SOL     OW51928   5.818   4.107  12.023
50030SOL    HW151929   5.829   4.012  12.028
50030SOL    HW251930   5.896   4.142  12.066
50031SOL     OW51931   7.856   2.588  11.952
50031SOL    HW151932   7.843   2.643  11.875
50031SOL    HW251933   7.768   2.561  11.978
50032SOL     OW51934  14.633   7.080  11.758
50032SOL    HW151935  14.687   7.035  11.694
50032SOL    HW251936  14.686   7.081  11.838
50033SOL     OW51937   9.722  11.096   2.747
50033SOL    HW151938   9.733  11.119   2.655
50033SOL    HW251939   9.749  11.005   2.753
50034SOL     OW51940   2.916   0.293   0.751
50034SOL    HW151941   2.924   0.234   0.676
50034SOL    HW251942   2.822   0.307   0.759
50035SOL     OW51943  14.064   6.448   2.654
50035SOL    HW151944  14.080   6.476   2.744
50035SOL    HW251945  14.107   6.516   2.601
50036SOL     OW51946   4.485   7.838   0.372
50036SOL    HW151947   4.441   7.759   0.339
50036SOL    HW251948   4.487   7.826   0.467
50037SOL     OW51949   3.088   0.660  10.126
50037SOL    HW151950   3.067   0.714  10.050
50037SOL    HW251951   3.087   0.721  10.200
50038SOL     OW51952  14.472   2.152   0.245
50038SOL    HW151953  14.477   2.074   0.300
50038SOL    HW251954  14.515   2.220   0.297
50039SOL     OW51955   8.586  12.725  10.058
50039SOL    HW151956   8.518  12.791  10.072
50039SOL    HW251957   8.608  12.694  10.146
50040SOL     OW51958   9.081   4.515   0.975
50040SOL    HW151959   9.023   4.590   0.964
50040SOL    HW251960   9.022   4.439   0.975
50041SOL     OW51961   1.355   1.421   6.370
50041SOL    HW151962   1.323   1.409   6.281
50041SOL    HW251963   1.275   1.427   6.423
50042SOL     OW51964  13.477  11.721   9.408
50042SOL    HW151965  13.552  11.677   9.448
50042SOL    HW251966  13.512  11.804   9.376
50043SOL     OW51967   9.246   3.647  11.561
50043SOL    HW151968   9.217   3.649  11.470
50043SOL    HW251969   9.328   3.597  11.559
50044SOL     OW51970  14.839  14.152  12.631
50044SOL    HW151971   0.035  14.199  12.665
50044SOL    HW251972  14.839  14.069  12.678
50045SOL     OW51973   3.292  11.563   8.160
50045SOL    HW151974   3.289  11.586   8.067
50045SOL    HW251975   3.324  11.643   8.203
50046SOL     OW51976   3.259   4.260   7.958
50046SOL    HW151977   3.216   4.204   8.022
50046SOL    HW251978   3.309   4.199   7.903
50047SOL     OW51979  12.592   3.494   5.319
50047SOL    HW151980  12.560   3.527   5.235
50047SOL    HW251981  12.525   3.432   5.347
50048SOL     OW51982  13.890   3.770  14.399
50048SOL    HW151983  13.905   3.700  14.462
50048SOL    HW251984  13.864   3.725  14.319
50049SOL     OW51985   9.229   8.098  10.924
50049SOL    HW151986   9.182   8.173  10.961
50049SOL    HW251987   9.321   8.119  10.936
50050SOL     OW51988   2.956  10.290  13.384
50050SOL    HW151989   2.893  10.362  13.394
50050SOL    HW251990   2.972  10.285  13.290
50051SOL     OW51991  11.322   4.652   0.841
50051SOL    HW151992  11.332   4.710   0.916
50051SOL    HW251993  11.229   4.657   0.819
50052SOL     OW51994   8.902   2.977  14.782
50052SOL    HW151995   8.911   3.056  14.729
50052SOL    HW251996   8.852   2.916  14.727
50053SOL     OW51997   8.657  11.329   5.451
50053SOL    HW151998   8.636  11.340   5.359
50053SOL    HW251999   8.670  11.234   5.462
50054SOL     OW52000  14.819  11.787   7.813
50054SOL    HW152001  14.793  11.814   7.901
50054SOL    HW252002  14.750  11.728   7.784
50055SOL     OW52003  11.587   5.229   5.328
50055SOL    HW152004  11.642   5.307   5.330
50055SOL    HW252005  11.500   5.260   5.354
50056SOL     OW52006   5.598   4.249   6.241
50056SOL    HW152007   5.612   4.336   6.203
50056SOL    HW252008   5.555   4.200   6.171
50057SOL     OW52009   2.511   3.783  14.289
50057SOL    HW152010   2.512   3.878  14.282
50057SOL    HW252011   2.490   3.766  14.381
50058SOL     OW52012   3.382   9.111  11.350
50058SOL    HW152013   3.426   9.050  11.290
50058SOL    HW252014   3.292   9.114  11.319
50059SOL     OW52015  14.078   3.570   5.861
50059SOL    HW152016  14.016   3.507   5.898
50059SOL    HW252017  14.150   3.516   5.828
50060SOL     OW52018   4.093   1.924   5.894
50060SOL    HW152019   4.000   1.901   5.892
50060SOL    HW252020   4.094   2.020   5.901
50061SOL     OW52021   7.468  11.244   1.410
50061SOL    HW152022   7.556  11.280   1.421
50061SOL    HW252023   7.482  11.150   1.395
50062SOL     OW52024   2.523  12.668   9.978
50062SOL    HW152025   2.505  12.761   9.991
50062SOL    HW252026   2.550  12.661   9.886
50063SOL     OW52027  13.962  11.565   4.954
50063SOL    HW152028  13.985  11.476   4.980
50063SOL    HW252029  13.883  11.555   4.901
50064SOL     OW52030   1.405  12.848   2.000
50064SOL    HW152031   1.347  12.892   1.938
50064SOL    HW252032   1.423  12.763   1.961
50065SOL     OW52033   3.800  14.057   7.150
50065SOL    HW152034   3.782  14.101   7.233
50065SOL    HW252035   3.799  13.964   7.171
50066SOL     OW52036  13.744  11.605   0.924
50066SOL    HW152037  13.689  11.528   0.908
50066SOL    HW252038  13.697  11.677   0.883
50067SOL     OW52039  13.689   6.795   4.791
50067SOL    HW152040  13.620   6.728   4.789
50067SOL    HW252041  13.768   6.748   4.815
50068SOL     OW52042   7.159  14.647   2.471
50068SOL    HW152043   7.080  14.612   2.513
50068SOL    HW252044   7.143  14.740   2.463
50069SOL     OW52045  11.227   3.825   2.780
50069SOL    HW152046  11.171   3.752   2.754
50069SOL    HW252047  11.295   3.828   2.713
50070SOL     OW52048   0.423   4.318  11.182
50070SOL    HW152049   0.500   4.357  11.142
50070SOL    HW252050   0.455   4.240  11.226
50071SOL     OW52051  10.640  14.661   6.383
50071SOL    HW152052  10.715  14.660   6.442
50071SOL    HW252053  10.673  14.624   6.301
50072SOL     OW52054   8.765   0.373   5.084
50072SOL    HW152055   8.709   0.439   5.045
50072SOL    HW252056   8.715   0.339   5.159
50073SOL     OW52057   0.751   4.905  10.579
50073SOL    HW152058   0.676   4.869  10.532
50073SOL    HW252059   0.825   4.852  10.551
50074SOL     OW52060  10.633   6.376  13.477
50074SOL    HW152061  10.612   6.435  13.550
50074SOL    HW252062  10.713   6.331  13.506
50075SOL     OW52063  12.921   5.793   7.685
50075SOL    HW152064  12.843   5.767   7.734
50075SOL    HW252065  12.985   5.817   7.751
50076SOL     OW52066   7.270  12.753   4.874
50076SOL    HW152067   7.269  12.688   4.944
50076SOL    HW252068   7.220  12.713   4.803
50077SOL     OW52069   2.280  12.738   4.242
50077SOL    HW152070   2.307  12.811   4.298
50077SOL    HW252071   2.186  12.730   4.258
50078SOL     OW52072  13.365  13.880   1.461
50078SOL    HW152073  13.438  13.819   1.470
50078SOL    HW252074  13.391  13.939   1.391
50079SOL     OW52075   1.566   3.872  11.622
50079SOL    HW152076   1.499   3.904  11.683
50079SOL    HW252077   1.558   3.929  11.546
50080SOL     OW52078   2.536   7.636   7.096
50080SOL    HW152079   2.559   7.572   7.165
50080SOL    HW252080   2.574   7.599   7.016
50081SOL     OW52081   1.358   3.117   7.158
50081SOL    HW152082   1.347   3.212   7.169
50081SOL    HW252083   1.283   3.091   7.105
50082SOL     OW52084   1.168  11.635   1.272
50082SOL    HW152085   1.256  11.650   1.236
50082SOL    HW252086   1.147  11.716   1.319
50083SOL     OW52087   6.563  12.579  10.437
50083SOL    HW152088   6.617  12.544  10.508
50083SOL    HW252089   6.493  12.515  10.428
50084SOL     OW52090  14.661  11.573  13.034
50084SOL    HW152091  14.733  11.510  13.035
50084SOL    HW252092  14.599  11.538  12.970
50085SOL     OW52093   1.809   8.377   1.491
50085SOL    HW152094   1.719   8.360   1.463
50085SOL    HW252095   1.860   8.307   1.451
50086SOL     OW52096  11.137  11.489   2.290
50086SOL    HW152097  11.081  11.561   2.318
50086SOL    HW252098  11.129  11.488   2.195
50087SOL     OW52099  14.210   9.182  13.515
50087SOL    HW152100  14.277   9.239  13.552
50087SOL    HW252101  14.251   9.095  13.512
50088SOL     OW52102  10.646   1.966   9.917
50088SOL    HW152103  10.662   2.046   9.966
50088SOL    HW252104  10.605   1.995   9.836
50089SOL     OW52105  10.307  13.624   3.310
50089SOL    HW152106  10.254  13.552   3.276
50089SOL    HW252107  10.397  13.591   3.308
50090SOL     OW52108   0.302  13.094  11.161
50090SOL    HW152109   0.209  13.076  11.150
50090SOL    HW252110   0.317  13.087  11.255
50091SOL     OW52111  12.279  14.134   4.735
50091SOL    HW152112  12.320  14.147   4.649
50091SOL    HW252113  12.350  14.144   4.798
50092SOL     OW52114   0.341  10.114  14.027
50092SOL    HW152115   0.363  10.114  14.120
50092SOL    HW252116   0.415  10.155  13.984
50093SOL     OW52117   0.881  11.515  14.179
50093SOL    HW152118   0.825  11.474  14.244
50093SOL    HW252119   0.822  11.573  14.130
50094SOL     OW52120   7.236   8.446   0.245
50094SOL    HW152121   7.263   8.538   0.237
50094SOL    HW252122   7.303   8.406   0.300
50095SOL     OW52123   6.872   8.721   7.633
50095SOL    HW152124   6.848   8.797   7.580
50095SOL    HW252125   6.947   8.751   7.685
50096SOL     OW52126   7.991   6.666   1.653
50096SOL    HW152127   8.063   6.617   1.614
50096SOL    HW252128   7.938   6.600   1.697
50097SOL     OW52129   3.484  14.476   3.253
50097SOL    HW152130   3.472  14.396   3.202
50097SOL    HW252131   3.469  14.449   3.344
50098SOL     OW52132   6.878  12.182   1.182
50098SOL    HW152133   6.878  12.270   1.220
50098SOL    HW252134   6.937  12.132   1.239
50099SOL     OW52135  10.809  11.254  12.611
50099SOL    HW152136  10.839  11.240  12.521
50099SOL    HW252137  10.717  11.277  12.602
50100SOL     OW52138   0.409   9.696   8.345
50100SOL    HW152139   0.470   9.648   8.401
50100SOL    HW252140   0.458   9.714   8.265
50101SOL     OW52141   5.085   1.071   8.055
50101SOL    HW152142   5.024   1.004   8.086
50101SOL    HW252143   5.123   1.108   8.135
50102SOL     OW52144   9.615  11.449   6.935
50102SOL    HW152145   9.607  11.434   6.841
50102SOL    HW252146   9.665  11.374   6.967
50103SOL     OW52147  12.166   8.793   9.337
50103SOL    HW152148  12.254   8.806   9.302
50103SOL    HW252149  12.162   8.699   9.355
50104SOL     OW52150   8.311   8.314  10.988
50104SOL    HW152151   8.380   8.378  10.968
50104SOL    HW252152   8.307   8.258  10.910
50105SOL     OW52153   9.512  14.095   5.346
50105SOL    HW152154   9.515  14.146   5.265
50105SOL    HW252155   9.450  14.025   5.327
50106SOL     OW52156   0.566  10.235  13.947
50106SOL    HW152157   0.656  10.219  13.918
50106SOL    HW252158   0.565  10.329  13.969
50107SOL     OW52159  11.334   7.556  12.158
50107SOL    HW152160  11.365   7.593  12.075
50107SOL    HW252161  11.400   7.492  12.182
50108SOL     OW52162   4.414  12.325   1.638
50108SOL    HW152163   4.486  12.296   1.696
50108SOL    HW252164   4.409  12.419   1.651
50109SOL     OW52165   7.021  10.524   2.896
50109SOL    HW152166   6.934  10.494   2.869
50109SOL    HW252167   7.004  10.603   2.947
50110SOL     OW52168   0.717   6.941  12.426
50110SOL    HW152169   0.758   7.007  12.482
50110SOL    HW252170   0.789   6.905  12.375
50111SOL     OW52171   9.197  13.896   0.628
50111SOL    HW152172   9.116  13.947   0.634
50111SOL    HW252173   9.260  13.956   0.587
50112SOL     OW52174  11.994   3.241   2.069
50112SOL    HW152175  12.089   3.238   2.056
50112SOL    HW252176  11.982   3.291   2.149
50113SOL     OW52177   7.678   9.108  12.353
50113SOL    HW152178   7.708   9.024  12.318
50113SOL    HW252179   7.708   9.109  12.444
50114SOL     OW52180   3.324   3.183   0.971
50114SOL    HW152181   3.353   3.164   0.882
50114SOL    HW252182   3.404   3.191   1.022
50115SOL     OW52183   3.083   9.424   0.671
50115SOL    HW152184   3.071   9.507   0.717
50115SOL    HW252185   3.093   9.359   0.740
50116SOL     OW52186   4.496   8.403  14.678
50116SOL    HW152187   4.497   8.480  14.621
50116SOL    HW252188   4.443   8.430  14.754
50117SOL     OW52189   7.794  12.536   8.946
50117SOL    HW152190   7.836  12.461   8.989
50117SOL    HW252191   7.787  12.602   9.015
50118SOL     OW52192  12.198  11.753   9.417
50118SOL    HW152193  12.255  11.782   9.345
50118SOL    HW252194  12.185  11.660   9.400
50119SOL     OW52195  14.446   7.389   9.630
50119SOL    HW152196  14.526   7.397   9.578
50119SOL    HW252197  14.378   7.429   9.575
50120SOL     OW52198   4.105   9.201  13.083
50120SOL    HW152199   4.017   9.169  13.063
50120SOL    HW252200   4.103   9.220  13.177
50121SOL     OW52201   4.640   5.296   4.987
50121SOL    HW152202   4.611   5.343   5.065
50121SOL    HW252203   4.693   5.360   4.939
50122SOL     OW52204  10.926   2.168  14.063
50122SOL    HW152205  10.995   2.227  14.091
50122SOL    HW252206  10.846   2.204  14.101
50123SOL     OW52207   4.183   9.940   6.292
50123SOL    HW152208   4.166   9.999   6.366
50123SOL    HW252209   4.251   9.880   6.324
50124SOL     OW52210  12.582   0.013   7.275
50124SOL    HW152211  12.617   0.026   7.363
50124SOL    HW252212  12.598   0.096   7.230
50125SOL     OW52213   4.970   7.597   1.902
50125SOL    HW152214   4.988   7.691   1.905
50125SOL    HW252215   4.945   7.575   1.992
50126SOL     OW52216   0.236  13.757   4.141
50126SOL    HW152217   0.228  13.843   4.181
50126SOL    HW252218   0.213  13.771   4.048
50127SOL     OW52219   5.832   3.421   2.129
50127SOL    HW152220   5.799   3.500   2.172
50127SOL    HW252221   5.871   3.453   2.048
50128SOL     OW52222   2.926  13.513  11.452
50128SOL    HW152223   2.885  13.566  11.384
50128SOL    HW252224   2.864  13.514  11.524
50129SOL     OW52225   8.834   0.700   7.355
50129SOL    HW152226   8.874   0.760   7.418
50129SOL    HW252227   8.868   0.613   7.379
50130SOL     OW52228  13.435  11.591  13.227
50130SOL    HW152229  13.429  11.627  13.138
50130SOL    HW252230  13.528  11.591  13.247
50131SOL     OW52231  10.205   3.544   1.167
50131SOL    HW152232  10.212   3.637   1.191
50131SOL    HW252233  10.216   3.543   1.072
50132SOL     OW52234   6.803   1.419   1.101
50132SOL    HW152235   6.729   1.455   1.151
50132SOL    HW252236   6.786   1.446   1.011
50133SOL     OW52237   1.886   3.795   2.811
50133SOL    HW152238   1.822   3.725   2.824
50133SOL    HW252239   1.949   3.784   2.882
50134SOL     OW52240   1.006   9.817   6.095
50134SOL    HW152241   1.034   9.787   6.181
50134SOL    HW252242   1.032   9.909   6.092
50135SOL     OW52243   4.729   5.033  12.639
50135SOL    HW152244   4.681   4.976  12.700
50135SOL    HW252245   4.667   5.050  12.568
50136SOL     OW52246   4.486   2.079  14.622
50136SOL    HW152247   4.568   2.124  14.641
50136SOL    HW252248   4.430   2.146  14.584
50137SOL     OW52249   7.384   4.032  10.961
50137SOL    HW152250   7.347   3.946  10.980
50137SOL    HW252251   7.385   4.038  10.865
50138SOL     OW52252   6.837  13.532   7.383
50138SOL    HW152253   6.868  13.520   7.294
50138SOL    HW252254   6.747  13.563   7.373
50139SOL     OW52255   0.213   2.075  10.756
50139SOL    HW152256   0.169   2.027  10.686
50139SOL    HW252257   0.243   2.007  10.817
50140SOL     OW52258   8.244  11.356   9.397
50140SOL    HW152259   8.150  11.364   9.381
50140SOL    HW252260   8.285  11.391   9.318
50141SOL     OW52261   8.674   9.250   3.023
50141SOL    HW152262   8.722   9.294   3.093
50141SOL    HW252263   8.719   9.274   2.943
50142SOL     OW52264  13.126   8.469  12.029
50142SOL    HW152265  13.034   8.443  12.033
50142SOL    HW252266  13.134   8.540  12.093
50143SOL     OW52267  12.713  13.972   9.909
50143SOL    HW152268  12.680  14.031   9.977
50143SOL    HW252269  12.727  13.889   9.954
50144SOL     OW52270   1.694   2.955   0.241
50144SOL    HW152271   1.642   2.893   0.292
50144SOL    HW252272   1.783   2.919   0.244
50145SOL     OW52273  11.272  11.334   7.368
50145SOL    HW152274  11.242  11.244   7.358
50145SOL    HW252275  11.332  11.348   7.295
50146SOL     OW52276   0.735  10.852   3.848
50146SOL    HW152277   0.739  10.769   3.894
50146SOL    HW252278   0.795  10.909   3.896
50147SOL     OW52279   1.772   3.532   8.778
50147SOL    HW152280   1.769   3.540   8.873
50147SOL    HW252281   1.857   3.491   8.760
50148SOL     OW52282   6.453   4.501  11.055
50148SOL    HW152283   6.506   4.445  10.999
50148SOL    HW252284   6.508   4.516  11.133
50149SOL     OW52285   2.357  12.413   5.423
50149SOL    HW152286   2.395  12.499   5.402
50149SOL    HW252287   2.282  12.434   5.478
50150SOL     OW52288   2.899   4.675   7.033
50150SOL    HW152289   2.964   4.623   6.986
50150SOL    HW252290   2.934   4.764   7.032
50151SOL     OW52291   3.479   0.981   7.462
50151SOL    HW152292   3.432   0.968   7.379
50151SOL    HW252293   3.490   0.892   7.497
50152SOL     OW52294  14.744  11.684   8.251
50152SOL    HW152295  14.791  11.640   8.322
50152SOL    HW252296  14.788  11.769   8.243
50153SOL     OW52297  11.730  12.327   7.884
50153SOL    HW152298  11.755  12.250   7.935
50153SOL    HW252299  11.638  12.311   7.860
50154SOL     OW52300   5.495  13.479  14.103
50154SOL    HW152301   5.513  13.505  14.012
50154SOL    HW252302   5.526  13.389  14.109
50155SOL     OW52303   8.041  10.004  10.202
50155SOL    HW152304   7.959   9.970  10.237
50155SOL    HW252305   8.080   9.930  10.155
50156SOL     OW52306  14.630   7.998  10.318
50156SOL    HW152307  14.636   7.993  10.413
50156SOL    HW252308  14.547   7.955  10.297
50157SOL     OW52309   3.456  14.725   0.311
50157SOL    HW152310   3.470  14.656   0.245
50157SOL    HW252311   3.495  14.803   0.272
50158SOL     OW52312   5.635   3.820  13.893
50158SOL    HW152313   5.555   3.865  13.919
50158SOL    HW252314   5.629   3.814  13.798
50159SOL     OW52315   0.228   9.945  13.837
50159SOL    HW152316   0.267  10.009  13.896
50159SOL    HW252317   0.284   9.945  13.759
50160SOL     OW52318  12.548   6.635   1.392
50160SOL    HW152319  12.529   6.617   1.300
50160SOL    HW252320  12.576   6.551   1.427
50161SOL     OW52321  13.184   9.680   7.493
50161SOL    HW152322  13.208   9.735   7.419
50161SOL    HW252323  13.267   9.647   7.528
50162SOL     OW52324   0.242   1.506  11.649
50162SOL    HW152325   0.289   1.474  11.573
50162SOL    HW252326   0.202   1.588  11.619
50163SOL     OW52327  10.548  12.145  12.103
50163SOL    HW152328  10.630  12.164  12.148
50163SOL    HW252329  10.572  12.144  12.010
50164SOL     OW52330   7.444   2.982   0.362
50164SOL    HW152331   7.500   3.051   0.325
50164SOL    HW252332   7.504   2.920   0.402
50165SOL     OW52333   1.212  12.874   9.810
50165SOL    HW152334   1.189  12.945   9.870
50165SOL    HW252335   1.133  12.821   9.804
50166SOL     OW52336   1.162  12.124  14.333
50166SOL    HW152337   1.086  12.093  14.383
50166SOL    HW252338   1.235  12.071  14.365
50167SOL     OW52339   7.249  10.967   2.986
50167SOL    HW152340   7.256  10.873   2.968
50167SOL    HW252341   7.339  10.995   2.999
50168SOL     OW52342  11.046   4.014   2.692
50168SOL    HW152343  11.107   3.969   2.750
50168SOL    HW252344  11.098   4.034   2.614
50169SOL     OW52345  13.933   0.592   6.315
50169SOL    HW152346  13.882   0.667   6.286
50169SOL    HW252347  14.002   0.583   6.249
50170SOL     OW52348  10.438   1.402   0.401
50170SOL    HW152349  10.465   1.311   0.383
50170SOL    HW252350  10.385   1.396   0.480
50171SOL     OW52351   6.708  14.718   2.400
50171SOL    HW152352   6.696  14.777   2.475
50171SOL    HW252353   6.718  14.631   2.439
50172SOL     OW52354   0.012   6.047   4.625
50172SOL    HW152355   0.004   6.029   4.718
50172SOL    HW252356  14.840   6.126   4.610
50173SOL     OW52357   1.271   8.056  12.200
50173SOL    HW152358   1.232   8.120  12.141
50173SOL    HW252359   1.366   8.069  12.190
50174SOL     OW52360   4.194   6.378  10.036
50174SOL    HW152361   4.165   6.322  10.108
50174SOL    HW252362   4.199   6.319   9.961
50175SOL     OW52363   2.094  12.898   1.746
50175SOL    HW152364   2.187  12.904   1.724
50175SOL    HW252365   2.092  12.882   1.841
50176SOL     OW52366   5.921   3.241  13.213
50176SOL    HW152367   5.988   3.275  13.153
50176SOL    HW252368   5.839   3.280  13.181
50177SOL     OW52369  12.211   0.270   7.162
50177SOL    HW152370  12.127   0.310   7.184
50177SOL    HW252371  12.207   0.183   7.204
50178SOL     OW52372   7.269  12.265  11.074
50178SOL    HW152373   7.198  12.222  11.121
50178SOL    HW252374   7.226  12.328  11.016
50179SOL     OW52375   5.868  12.951   7.005
50179SOL    HW152376   5.918  12.989   6.933
50179SOL    HW252377   5.874  12.856   6.991
50180SOL     OW52378   0.257   8.248   7.144
50180SOL    HW152379   0.192   8.236   7.213
50180SOL    HW252380   0.235   8.333   7.106
50181SOL     OW52381  10.695   9.306   8.487
50181SOL    HW152382  10.732   9.329   8.572
50181SOL    HW252383  10.624   9.370   8.474
50182SOL     OW52384   3.525   8.936   9.320
50182SOL    HW152385   3.507   8.860   9.265
50182SOL    HW252386   3.462   9.003   9.291
50183SOL     OW52387   5.934  11.198   6.216
50183SOL    HW152388   6.018  11.154   6.210
50183SOL    HW252389   5.951  11.274   6.272
50184SOL     OW52390   9.223  10.840   4.041
50184SOL    HW152391   9.278  10.840   4.120
50184SOL    HW252392   9.175  10.923   4.046
50185SOL     OW52393  13.828   8.713   0.357
50185SOL    HW152394  13.918   8.732   0.331
50185SOL    HW252395  13.797   8.794   0.397
50186SOL     OW52396   4.784   0.725  10.821
50186SOL    HW152397   4.837   0.657  10.779
50186SOL    HW252398   4.757   0.783  10.750
50187SOL     OW52399   1.030  10.175  14.533
50187SOL    HW152400   1.022  10.214  14.446
50187SOL    HW252401   1.063  10.086  14.516
50188SOL     OW52402   2.154   5.971   7.345
50188SOL    HW152403   2.156   5.877   7.328
50188SOL    HW252404   2.062   5.991   7.357
50189SOL     OW52405   3.373   4.536   3.399
50189SOL    HW152406   3.315   4.549   3.474
50189SOL    HW252407   3.424   4.458   3.423
50190SOL     OW52408   2.506  14.358   4.565
50190SOL    HW152409   2.436  14.423   4.561
50190SOL    HW252410   2.551  14.366   4.481
50191SOL     OW52411  11.414   9.604  10.133
50191SOL    HW152412  11.502   9.619  10.169
50191SOL    HW252413  11.370   9.549  10.198
50192SOL     OW52414  10.082   4.975  10.252
50192SOL    HW152415  10.175   4.995  10.264
50192SOL    HW252416  10.040   5.061  10.240
50193SOL     OW52417  11.539   4.162   7.517
50193SOL    HW152418  11.505   4.139   7.603
50193SOL    HW252419  11.619   4.211   7.534
50194SOL     OW52420  10.707   8.329   2.318
50194SOL    HW152421  10.722   8.249   2.368
50194SOL    HW252422  10.773   8.327   2.249
50195SOL     OW52423  12.229   4.066   8.814
50195SOL    HW152424  12.253   4.072   8.907
50195SOL    HW252425  12.231   3.972   8.794
50196SOL     OW52426   1.880   6.115   2.503
50196SOL    HW152427   1.884   6.205   2.535
50196SOL    HW252428   1.962   6.075   2.532
50197SOL     OW52429   9.976   7.935  14.553
50197SOL    HW152430  10.024   7.942  14.471
50197SOL    HW252431   9.928   8.018  14.560
50198SOL     OW52432   5.238  11.233   6.587
50198SOL    HW152433   5.174  11.303   6.578
50198SOL    HW252434   5.236  11.187   6.503
50199SOL     OW52435   1.256   2.535  10.624
50199SOL    HW152436   1.291   2.517  10.536
50199SOL    HW252437   1.242   2.448  10.662
50200SOL     OW52438   3.358  10.277  11.753
50200SOL    HW152439   3.401  10.347  11.803
50200SOL    HW252440   3.412  10.199  11.769
50201SOL     OW52441   6.126   6.682  13.845
50201SOL    HW152442   6.154   6.631  13.768
50201SOL    HW252443   6.082   6.618  13.901
50202SOL     OW52444   0.329  10.713   6.593
50202SOL    HW152445   0.302  10.780   6.530
50202SOL    HW252446   0.277  10.731   6.671
50203SOL     OW52447  11.514   6.442   4.985
50203SOL    HW152448  11.431   6.410   4.950
50203SOL    HW252449  11.539   6.376   5.051
50204SOL     OW52450   4.788  11.215   6.660
50204SOL    HW152451   4.787  11.287   6.722
50204SOL    HW252452   4.839  11.147   6.703
50205SOL     OW52453   2.297   8.060   8.013
50205SOL    HW152454   2.264   8.063   8.103
50205SOL    HW252455   2.368   7.995   8.016
50206SOL     OW52456   0.476   2.225  11.311
50206SOL    HW152457   0.505   2.228  11.220
50206SOL    HW252458   0.395   2.276  11.313
50207SOL     OW52459   3.936  10.194   4.541
50207SOL    HW152460   3.864  10.171   4.482
50207SOL    HW252461   3.909  10.161   4.627
50208SOL     OW52462   2.835  13.641   4.341
50208SOL    HW152463   2.757  13.602   4.380
50208SOL    HW252464   2.824  13.735   4.355
50209SOL     OW52465   5.719   7.616  12.908
50209SOL    HW152466   5.678   7.529  12.905
50209SOL    HW252467   5.650   7.676  12.882
50210SOL     OW52468   6.183  11.591   7.851
50210SOL    HW152469   6.198  11.555   7.763
50210SOL    HW252470   6.187  11.685   7.838
50211SOL     OW52471   2.578   0.950   9.084
50211SOL    HW152472   2.488   0.953   9.118
50211SOL    HW252473   2.568   0.951   8.989
50212SOL     OW52474   0.079   8.800  13.290
50212SOL    HW152475   0.008   8.862  13.271
50212SOL    HW252476   0.146   8.853  13.334
50213SOL     OW52477   3.680   1.305   0.204
50213SOL    HW152478   3.605   1.246   0.207
50213SOL    HW252479   3.738   1.273   0.273
50214SOL     OW52480   5.593   3.175   9.512
50214SOL    HW152481   5.603   3.080   9.522
50214SOL    HW252482   5.681   3.210   9.530
50215SOL     OW52483   9.167   4.905   5.932
50215SOL    HW152484   9.096   4.946   5.882
50215SOL    HW252485   9.206   4.842   5.872
50216SOL     OW52486   4.444   3.532   7.480
50216SOL    HW152487   4.497   3.607   7.453
50216SOL    HW252488   4.384   3.567   7.546
50217SOL     OW52489   6.518   5.065  10.531
50217SOL    HW152490   6.499   5.158  10.542
50217SOL    HW252491   6.434   5.021  10.545
50218SOL     OW52492   2.707   9.934   8.058
50218SOL    HW152493   2.745   9.945   7.971
50218SOL    HW252494   2.738   9.848   8.087
50219SOL     OW52495   2.253   6.029   3.446
50219SOL    HW152496   2.311   5.993   3.512
50219SOL    HW252497   2.307   6.092   3.398
50220SOL     OW52498  14.632  13.044   6.094
50220SOL    HW152499  14.572  12.980   6.055
50220SOL    HW252500  14.575  13.108   6.136
50221SOL     OW52501  12.019   9.759   2.909
50221SOL    HW152502  12.047   9.845   2.940
50221SOL    HW252503  11.929   9.772   2.879
50222SOL     OW52504   2.361   2.475   7.962
50222SOL    HW152505   2.287   2.498   8.018
50222SOL    HW252506   2.349   2.382   7.944
50223SOL     OW52507   9.765   2.227  10.080
50223SOL    HW152508   9.733   2.303  10.128
50223SOL    HW252509   9.744   2.152  10.135
50224SOL     OW52510   3.942   5.986  10.631
50224SOL    HW152511   3.868   5.945  10.676
50224SOL    HW252512   4.009   5.997  10.698
50225SOL     OW52513   1.796   9.603   1.812
50225SOL    HW152514   1.850   9.525   1.828
50225SOL    HW252515   1.830   9.669   1.872
50226SOL     OW52516   9.179  13.774  14.668
50226SOL    HW152517   9.219  13.707  14.612
50226SOL    HW252518   9.240  13.782  14.741
50227SOL     OW52519  10.195   5.901   2.690
50227SOL    HW152520  10.186   5.975   2.630
50227SOL    HW252521  10.289   5.896   2.708
50228SOL     OW52522   2.396   5.940  14.557
50228SOL    HW152523   2.301   5.929  14.565
50228SOL    HW252524   2.423   5.971  14.644
50229SOL     OW52525  10.590   6.996   3.865
50229SOL    HW152526  10.655   6.937   3.903
50229SOL    HW252527  10.572   6.959   3.779
50230SOL     OW52528   6.257   1.884   2.062
50230SOL    HW152529   6.252   1.872   1.967
50230SOL    HW252530   6.345   1.920   2.077
50231SOL     OW52531   0.075  13.605   9.198
50231SOL    HW152532   0.130  13.536   9.160
50231SOL    HW252533   0.023  13.637   9.124
50232SOL     OW52534   1.563  13.330  14.758
50232SOL    HW152535   1.517  13.283  14.828
50232SOL    HW252536   1.560  13.422  14.785
50233SOL     OW52537   7.321   7.966  13.127
50233SOL    HW152538   7.311   7.914  13.047
50233SOL    HW252539   7.369   7.908  13.187
50234SOL     OW52540   9.764   7.007   5.957
50234SOL    HW152541   9.708   6.945   6.003
50234SOL    HW252542   9.852   6.992   5.992
50235SOL     OW52543  13.389   6.156   2.099
50235SOL    HW152544  13.364   6.147   2.191
50235SOL    HW252545  13.313   6.199   2.058
50236SOL     OW52546   8.900   5.713   0.912
50236SOL    HW152547   8.902   5.775   0.839
50236SOL    HW252548   8.809   5.685   0.917
50237SOL     OW52549   5.688   1.900  10.789
50237SOL    HW152550   5.657   1.827  10.842
50237SOL    HW252551   5.623   1.909  10.719
50238SOL     OW52552  11.793   7.161  11.385
50238SOL    HW152553  11.804   7.066  11.378
50238SOL    HW252554  11.718   7.173  11.443
50239SOL     OW52555   9.838  10.681   8.646
50239SOL    HW152556   9.846  10.669   8.740
50239SOL    HW252557   9.832  10.592   8.611
50240SOL     OW52558   9.656   3.904   9.327
50240SOL    HW152559   9.635   3.901   9.421
50240SOL    HW252560   9.750   3.888   9.324
50241SOL     OW52561  11.459   8.905  14.140
50241SOL    HW152562  11.502   8.987  14.163
50241SOL    HW252563  11.386   8.930  14.084
50242SOL     OW52564  11.409   3.663   4.690
50242SOL    HW152565  11.412   3.741   4.745
50242SOL    HW252566  11.346   3.605   4.733
50243SOL     OW52567   4.479   5.820   9.077
50243SOL    HW152568   4.430   5.899   9.055
50243SOL    HW252569   4.571   5.845   9.066
50244SOL     OW52570  13.931   1.745  13.271
50244SOL    HW152571  13.880   1.790  13.338
50244SOL    HW252572  13.869   1.682  13.233
50245SOL     OW52573  13.483   3.935   8.418
50245SOL    HW152574  13.464   3.932   8.511
50245SOL    HW252575  13.555   3.872   8.406
50246SOL     OW52576   3.714   6.109   5.191
50246SOL    HW152577   3.681   6.097   5.102
50246SOL    HW252578   3.648   6.068   5.247
50247SOL     OW52579  14.027   3.455   0.559
50247SOL    HW152580  14.123   3.458   0.548
50247SOL    HW252581  13.998   3.391   0.494
50248SOL     OW52582  12.416   8.213   9.484
50248SOL    HW152583  12.361   8.148   9.527
50248SOL    HW252584  12.388   8.213   9.393
50249SOL     OW52585   4.999  10.186   2.740
50249SOL    HW152586   4.922  10.243   2.732
50249SOL    HW252587   5.000  10.135   2.659
50250SOL     OW52588  13.488   8.485   9.690
50250SOL    HW152589  13.510   8.574   9.662
50250SOL    HW252590  13.415   8.496   9.750
50251SOL     OW52591   3.193   5.489   1.504
50251SOL    HW152592   3.245   5.550   1.452
50251SOL    HW252593   3.234   5.488   1.590
50252SOL     OW52594  11.826   0.161  13.518
50252SOL    HW152595  11.784   0.235  13.474
50252SOL    HW252596  11.876   0.201  13.590
50253SOL     OW52597   9.820   6.480   1.390
50253SOL    HW152598   9.810   6.391   1.357
50253SOL    HW252599   9.900   6.513   1.349
50254SOL     OW52600   9.105   4.357  10.548
50254SOL    HW152601   9.191   4.317  10.564
50254SOL    HW252602   9.116   4.448  10.575
50255SOL     OW52603   7.908   9.726   3.974
50255SOL    HW152604   7.943   9.638   3.963
50255SOL    HW252605   7.986   9.782   3.980
50256SOL     OW52606   8.086   1.784   3.679
50256SOL    HW152607   8.043   1.779   3.764
50256SOL    HW252608   8.179   1.794   3.699
50257SOL     OW52609  13.880   7.069  14.279
50257SOL    HW152610  13.910   6.988  14.238
50257SOL    HW252611  13.809   7.099  14.223
50258SOL     OW52612   9.027   4.423   7.329
50258SOL    HW152613   9.116   4.393   7.349
50258SOL    HW252614   9.040   4.499   7.272
50259SOL     OW52615  10.335   8.934  11.264
50259SOL    HW152616  10.423   8.907  11.288
50259SOL    HW252617  10.342   9.028  11.248
50260SOL     OW52618   3.222   3.879  10.774
50260SOL    HW152619   3.235   3.793  10.735
50260SOL    HW252620   3.289   3.885  10.842
50261SOL     OW52621   2.693   0.206  14.266
50261SOL    HW152622   2.626   0.194  14.333
50261SOL    HW252623   2.700   0.301  14.256
50262SOL     OW52624  13.872  12.151   3.861
50262SOL    HW152625  13.950  12.161   3.914
50262SOL    HW252626  13.799  12.164   3.922
50263SOL     OW52627  12.873  12.326  14.038
50263SOL    HW152628  12.832  12.255  14.088
50263SOL    HW252629  12.905  12.283  13.958
50264SOL     OW52630   9.349   0.275  12.019
50264SOL    HW152631   9.402   0.200  11.991
50264SOL    HW252632   9.363   0.281  12.113
50265SOL     OW52633  12.746  10.714   7.287
50265SOL    HW152634  12.840  10.699   7.291
50265SOL    HW252635  12.725  10.709   7.194
50266SOL     OW52636   7.461  12.390  13.841
50266SOL    HW152637   7.514  12.399  13.921
50266SOL    HW252638   7.372  12.378  13.873
50267SOL     OW52639   5.994   8.675  10.645
50267SOL    HW152640   5.985   8.666  10.550
50267SOL    HW252641   6.039   8.758  10.658
50268SOL     OW52642   3.849  14.604   5.454
50268SOL    HW152643   3.894  14.592   5.537
50268SOL    HW252644   3.772  14.547   5.460
50269SOL     OW52645   3.959   8.568   9.642
50269SOL    HW152646   3.978   8.482   9.606
50269SOL    HW252647   3.986   8.563   9.734
50270SOL     OW52648  12.781   1.874   2.288
50270SOL    HW152649  12.838   1.810   2.246
50270SOL    HW252650  12.694   1.835   2.285
50271SOL     OW52651  11.758  14.776   9.227
50271SOL    HW152652  11.725  14.715   9.292
50271SOL    HW252653  11.818  14.724   9.174
50272SOL     OW52654   9.805  12.079   9.979
50272SOL    HW152655   9.752  12.155   9.953
50272SOL    HW252656   9.747  12.004   9.968
50273SOL     OW52657  13.229   8.617   5.680
50273SOL    HW152658  13.155   8.581   5.632
50273SOL    HW252659  13.237   8.561   5.758
50274SOL     OW52660   4.976   3.274   4.455
50274SOL    HW152661   4.899   3.275   4.399
50274SOL    HW252662   5.024   3.354   4.431
50275SOL     OW52663   7.031   1.770  13.568
50275SOL    HW152664   6.985   1.835  13.621
50275SOL    HW252665   7.091   1.728  13.629
50276SOL     OW52666  10.038  10.208   3.184
50276SOL    HW152667   9.953  10.206   3.229
50276SOL    HW252668  10.054  10.118   3.159
50277SOL     OW52669  12.575   9.655   9.064
50277SOL    HW152670  12.545   9.565   9.073
50277SOL    HW252671  12.520   9.692   8.994
50278SOL     OW52672   3.578   8.741   8.077
50278SOL    HW152673   3.657   8.745   8.131
50278SOL    HW252674   3.579   8.823   8.028
50279SOL     OW52675   4.528   5.887   3.157
50279SOL    HW152676   4.496   5.888   3.247
50279SOL    HW252677   4.452   5.860   3.105
50280SOL     OW52678  13.434  14.006   5.223
50280SOL    HW152679  13.419  13.917   5.257
50280SOL    HW252680  13.387  14.007   5.140
50281SOL     OW52681  14.233   7.251   9.513
50281SOL    HW152682  14.317   7.240   9.557
50281SOL    HW252683  14.256   7.285   9.426
50282SOL     OW52684   1.800   1.566   0.271
50282SOL    HW152685   1.845   1.646   0.298
50282SOL    HW252686   1.727   1.558   0.332
50283SOL     OW52687  14.796  10.480  12.228
50283SOL    HW152688  14.776  10.573  12.232
50283SOL    HW252689  14.876  10.474  12.177
50284SOL     OW52690  14.160  13.308   7.953
50284SOL    HW152691  14.147  13.226   7.905
50284SOL    HW252692  14.238  13.347   7.914
50285SOL     OW52693  11.605  10.956   7.189
50285SOL    HW152694  11.632  10.942   7.280
50285SOL    HW252695  11.658  10.894   7.139
50286SOL     OW52696   2.026   5.741  13.546
50286SOL    HW152697   2.037   5.658  13.500
50286SOL    HW252698   1.950   5.726  13.603
50287SOL     OW52699   6.729  12.768   3.750
50287SOL    HW152700   6.806  12.770   3.807
50287SOL    HW252701   6.702  12.676   3.750
50288SOL     OW52702  10.676   2.712  11.525
50288SOL    HW152703  10.597   2.660  11.540
50288SOL    HW252704  10.648   2.802  11.540
50289SOL     OW52705  14.679   5.286   8.186
50289SOL    HW152706  14.740   5.348   8.146
50289SOL    HW252707  14.626   5.254   8.113
50290SOL     OW52708  12.647   4.058   9.183
50290SOL    HW152709  12.609   4.129   9.132
50290SOL    HW252710  12.611   4.070   9.271
50291SOL     OW52711  10.398   6.606  10.796
50291SOL    HW152712  10.446   6.686  10.777
50291SOL    HW252713  10.363   6.578  10.712
50292SOL     OW52714   4.731  10.407   2.168
50292SOL    HW152715   4.676  10.396   2.246
50292SOL    HW252716   4.804  10.462   2.198
50293SOL     OW52717   1.985   5.837   9.824
50293SOL    HW152718   1.916   5.773   9.807
50293SOL    HW252719   2.054   5.787   9.868
50294SOL     OW52720   8.145  14.710  10.814
50294SOL    HW152721   8.117  14.633  10.864
50294SOL    HW252722   8.118  14.692  10.724
50295SOL     OW52723  10.324  12.635  12.492
50295SOL    HW152724  10.238  12.677  12.486
50295SOL    HW252725  10.362  12.670  12.572
50296SOL     OW52726   8.967   7.758   6.480
50296SOL    HW152727   8.980   7.700   6.555
50296SOL    HW252728   8.876   7.743   6.454
50297SOL     OW52729  12.499   7.558   4.369
50297SOL    HW152730  12.453   7.641   4.357
50297SOL    HW252731  12.497   7.516   4.283
50298SOL     OW52732   6.401   3.579   4.432
50298SOL    HW152733   6.346   3.658   4.433
50298SOL    HW252734   6.387   3.540   4.518
50299SOL     OW52735  14.001   2.695   4.224
50299SOL    HW152736  13.987   2.789   4.215
50299SOL    HW252737  14.042   2.685   4.310
50300SOL     OW52738   5.556  13.804   9.570
50300SOL    HW152739   5.565  13.709   9.561
50300SOL    HW252740   5.494  13.816   9.643
50301SOL     OW52741   2.701   7.611   3.200
50301SOL    HW152742   2.766   7.665   3.155
50301SOL    HW252743   2.620   7.662   3.194
50302SOL     OW52744   4.506  12.031   2.774
50302SOL    HW152745   4.519  12.104   2.835
50302SOL    HW252746   4.574  12.043   2.707
50303SOL     OW52747   9.497   2.330  12.250
50303SOL    HW152748   9.404   2.306  12.256
50303SOL    HW252749   9.501   2.420  12.284
50304SOL     OW52750   0.691   4.169  14.706
50304SOL    HW152751   0.742   4.154  14.785
50304SOL    HW252752   0.695   4.263  14.692
50305SOL     OW52753   1.716  10.002   9.763
50305SOL    HW152754   1.785   9.964   9.709
50305SOL    HW252755   1.701   9.938   9.832
50306SOL     OW52756   9.342  11.362  13.678
50306SOL    HW152757   9.329  11.268  13.696
50306SOL    HW252758   9.343  11.368  13.583
50307SOL     OW52759   5.160   8.571   7.109
50307SOL    HW152760   5.064   8.573   7.111
50307SOL    HW252761   5.181   8.478   7.098
50308SOL     OW52762   3.225   8.658   0.875
50308SOL    HW152763   3.149   8.705   0.908
50308SOL    HW252764   3.197   8.567   0.870
50309SOL     OW52765  14.313   0.125   6.818
50309SOL    HW152766  14.339   0.217   6.815
50309SOL    HW252767  14.222   0.125   6.789
50310SOL     OW52768   3.979   1.714   8.747
50310SOL    HW152769   3.973   1.705   8.652
50310SOL    HW252770   4.001   1.626   8.778
50311SOL     OW52771   3.655  12.665   2.594
50311SOL    HW152772   3.682  12.682   2.684
50311SOL    HW252773   3.631  12.751   2.560
50312SOL     OW52774   3.623   7.371   7.079
50312SOL    HW152775   3.708   7.327   7.069
50312SOL    HW252776   3.626   7.408   7.167
50313SOL     OW52777  10.033   6.648   4.882
50313SOL    HW152778  10.118   6.689   4.898
50313SOL    HW252779  10.019   6.658   4.788
50314SOL     OW52780   5.379   6.407   6.770
50314SOL    HW152781   5.287   6.416   6.794
50314SOL    HW252782   5.394   6.476   6.706
50315SOL     OW52783   8.544  12.798   0.775
50315SOL    HW152784   8.575  12.826   0.689
50315SOL    HW252785   8.618  12.749   0.812
50316SOL     OW52786  14.779   5.416   9.738
50316SOL    HW152787  14.704   5.469   9.763
50316SOL    HW252788  14.767   5.400   9.644
50317SOL     OW52789  11.524  12.255  10.077
50317SOL    HW152790  11.577  12.330  10.105
50317SOL    HW252791  11.468  12.236  10.152
50318SOL     OW52792  12.639   4.034   6.389
50318SOL    HW152793  12.591   3.958   6.422
50318SOL    HW252794  12.592   4.110   6.424
50319SOL     OW52795  13.404  14.753   6.557
50319SOL    HW152796  13.338  14.816   6.586
50319SOL    HW252797  13.488  14.792   6.581
50320SOL     OW52798   5.691   9.393   7.349
50320SOL    HW152799   5.778   9.369   7.315
50320SOL    HW252800   5.688   9.489   7.341
50321SOL     OW52801   0.759  12.400   2.546
50321SOL    HW152802   0.778  12.477   2.493
50321SOL    HW252803   0.664  12.391   2.541
50322SOL     OW52804  13.521   8.838   8.839
50322SOL    HW152805  13.538   8.785   8.917
50322SOL    HW252806  13.587   8.907   8.842
50323SOL     OW52807   5.882  13.364  14.309
50323SOL    HW152808   5.899  13.405  14.394
50323SOL    HW252809   5.848  13.278  14.330
50324SOL     OW52810   2.925   2.970  13.953
50324SOL    HW152811   2.832   2.962  13.973
50324SOL    HW252812   2.935   2.931  13.867
50325SOL     OW52813   0.325   7.002   2.264
50325SOL    HW152814   0.319   6.917   2.220
50325SOL    HW252815   0.306   7.066   2.196
50326SOL     OW52816  12.388  11.086   8.831
50326SOL    HW152817  12.335  11.165   8.827
50326SOL    HW252818  12.401  11.061   8.739
50327SOL     OW52819  14.520   1.462  12.864
50327SOL    HW152820  14.523   1.433  12.773
50327SOL    HW252821  14.427   1.471  12.883
50328SOL     OW52822   8.837   5.280   8.953
50328SOL    HW152823   8.778   5.247   8.885
50328SOL    HW252824   8.894   5.342   8.907
50329SOL     OW52825  12.976  13.026  13.538
50329SOL    HW152826  13.052  13.084  13.542
50329SOL    HW252827  12.956  13.020  13.445
50330SOL     OW52828  12.947   5.280   6.214
50330SOL    HW152829  12.856   5.310   6.214
50330SOL    HW252830  12.997   5.354   6.180
50331SOL     OW52831  14.289   8.918   9.031
50331SOL    HW152832  14.269   8.908   9.124
50331SOL    HW252833  14.383   8.898   9.025
50332SOL     OW52834   8.156   5.709   4.946
50332SOL    HW152835   8.145   5.776   5.013
50332SOL    HW252836   8.233   5.659   4.975
50333SOL     OW52837  11.334   5.751   0.650
50333SOL    HW152838  11.428   5.734   0.649
50333SOL    HW252839  11.313   5.774   0.559
50334SOL     OW52840   8.748   9.845  14.766
50334SOL    HW152841   8.791   9.815  14.846
50334SOL    HW252842   8.787   9.930  14.748
50335SOL     OW52843   8.656   6.174  10.695
50335SOL    HW152844   8.613   6.194  10.778
50335SOL    HW252845   8.613   6.094  10.664
50336SOL     OW52846  10.400   5.951  10.988
50336SOL    HW152847  10.353   5.909  11.060
50336SOL    HW252848  10.425   6.037  11.023
50337SOL     OW52849   7.079  13.373  12.060
50337SOL    HW152850   6.998  13.423  12.068
50337SOL    HW252851   7.098  13.373  11.966
50338SOL     OW52852   9.515   4.604   3.444
50338SOL    HW152853   9.527   4.672   3.510
50338SOL    HW252854   9.569   4.531   3.474
50339SOL     OW52855  14.744   0.862   1.583
50339SOL    HW152856  14.693   0.791   1.622
50339SOL    HW252857  14.754   0.925   1.655
50340SOL     OW52858   1.812   8.518   7.540
50340SOL    HW152859   1.763   8.596   7.564
50340SOL    HW252860   1.826   8.472   7.623
50341SOL     OW52861   0.438   6.080  13.252
50341SOL    HW152862   0.349   6.100  13.222
50341SOL    HW252863   0.431   6.069  13.346
50342SOL     OW52864   0.054   5.917   2.932
50342SOL    HW152865  14.838   5.916   2.922
50342SOL    HW252866   0.071   5.986   2.997
50343SOL     OW52867  14.181  11.467   4.080
50343SOL    HW152868  14.141  11.553   4.093
50343SOL    HW252869  14.190  11.459   3.985
50344SOL     OW52870   7.956  11.443  13.000
50344SOL    HW152871   7.878  11.492  12.972
50344SOL    HW252872   7.927  11.393  13.075
50345SOL     OW52873   6.583   0.521   6.316
50345SOL    HW152874   6.499   0.550   6.279
50345SOL    HW252875   6.648   0.548   6.252
50346SOL     OW52876   6.762   5.871   1.897
50346SOL    HW152877   6.814   5.947   1.923
50346SOL    HW252878   6.760   5.876   1.801
50347SOL     OW52879  11.025  11.556  14.645
50347SOL    HW152880  10.987  11.564  14.732
50347SOL    HW252881  11.098  11.496  14.656
50348SOL     OW52882  11.501   8.546   2.070
50348SOL    HW152883  11.468   8.554   1.980
50348SOL    HW252884  11.423   8.549   2.125
50349SOL     OW52885   5.791   1.293   8.926
50349SOL    HW152886   5.801   1.305   8.831
50349SOL    HW252887   5.878   1.268   8.957
50350SOL     OW52888   4.968   1.679   1.558
50350SOL    HW152889   4.894   1.665   1.616
50350SOL    HW252890   4.986   1.592   1.521
50351SOL     OW52891   3.139  14.252   6.782
50351SOL    HW152892   3.136  14.174   6.838
50351SOL    HW252893   3.219  14.241   6.731
50352SOL     OW52894   2.001   2.454   9.817
50352SOL    HW152895   1.918   2.412   9.836
50352SOL    HW252896   2.039   2.404   9.745
50353SOL     OW52897   4.972  13.126  12.928
50353SOL    HW152898   4.913  13.079  12.869
50353SOL    HW252899   4.967  13.078  13.011
50354SOL     OW52900   4.761  14.232  11.669
50354SOL    HW152901   4.794  14.159  11.723
50354SOL    HW252902   4.673  14.204  11.643
50355SOL     OW52903  10.440   8.215  14.306
50355SOL    HW152904  10.491   8.216  14.225
50355SOL    HW252905  10.458   8.299  14.347
50356SOL     OW52906  12.673  12.765   8.296
50356SOL    HW152907  12.693  12.858   8.310
50356SOL    HW252908  12.689  12.751   8.203
50357SOL     OW52909   6.815   0.567   1.146
50357SOL    HW152910   6.886   0.577   1.209
50357SOL    HW252911   6.791   0.475   1.151
50358SOL     OW52912   7.496   1.376   8.407
50358SOL    HW152913   7.505   1.293   8.454
50358SOL    HW252914   7.585   1.397   8.378
50359SOL     OW52915   9.686  12.578   1.425
50359SOL    HW152916   9.664  12.652   1.368
50359SOL    HW252917   9.602  12.551   1.462
50360SOL     OW52918   6.489   5.909  11.539
50360SOL    HW152919   6.460   5.957  11.617
50360SOL    HW252920   6.460   5.963  11.465
50361SOL     OW52921   5.374  13.243   4.720
50361SOL    HW152922   5.456  13.222   4.674
50361SOL    HW252923   5.312  13.263   4.650
50362SOL     OW52924   3.770  10.060   4.726
50362SOL    HW152925   3.680  10.038   4.703
50362SOL    HW252926   3.786  10.013   4.808
50363SOL     OW52927   4.283   6.874  10.972
50363SOL    HW152928   4.328   6.904  10.894
50363SOL    HW252929   4.237   6.952  11.004
50364SOL     OW52930   8.685   9.026   7.545
50364SOL    HW152931   8.683   8.970   7.468
50364SOL    HW252932   8.710   9.112   7.512
50365SOL     OW52933   6.536  12.545   0.247
50365SOL    HW152934   6.512  12.468   0.196
50365SOL    HW252935   6.470  12.549   0.317
50366SOL     OW52936   5.515   0.394   6.202
50366SOL    HW152937   5.494   0.487   6.210
50366SOL    HW252938   5.430   0.351   6.187
50367SOL     OW52939  13.391  13.286   4.664
50367SOL    HW152940  13.392  13.191   4.653
50367SOL    HW252941  13.321  13.317   4.606
50368SOL     OW52942   1.005   0.491   7.505
50368SOL    HW152943   0.951   0.453   7.574
50368SOL    HW252944   1.030   0.416   7.451
50369SOL     OW52945   7.857   0.330   5.592
50369SOL    HW152946   7.823   0.241   5.590
50369SOL    HW252947   7.943   0.323   5.549
50370SOL     OW52948  14.137   1.910   0.001
50370SOL    HW152949  14.129   1.815   0.004
50370SOL    HW252950  14.047   1.941  14.864
50371SOL     OW52951   5.189   9.027   4.711
50371SOL    HW152952   5.248   9.018   4.635
50371SOL    HW252953   5.245   9.013   4.787
50372SOL     OW52954  13.232  12.022   9.686
50372SOL    HW152955  13.145  12.059   9.700
50372SOL    HW252956  13.291  12.076   9.740
50373SOL     OW52957   6.826   9.756   2.316
50373SOL    HW152958   6.844   9.783   2.406
50373SOL    HW252959   6.899   9.699   2.293
50374SOL     OW52960   0.650  14.733   8.318
50374SOL    HW152961   0.630  14.727   8.411
50374SOL    HW252962   0.743  14.711   8.312
50375SOL     OW52963   3.843  10.933   3.305
50375SOL    HW152964   3.781  11.003   3.284
50375SOL    HW252965   3.789  10.855   3.312
50376SOL     OW52966  12.911   2.536   5.089
50376SOL    HW152967  13.006   2.530   5.080
50376SOL    HW252968  12.886   2.458   5.137
50377SOL     OW52969   6.156   6.346  12.136
50377SOL    HW152970   6.208   6.373  12.211
50377SOL    HW252971   6.219   6.304  12.077
50378SOL     OW52972  13.028  14.511   1.199
50378SOL    HW152973  13.122  14.532   1.196
50378SOL    HW252974  12.990  14.580   1.254
50379SOL     OW52975   7.830  12.005  10.249
50379SOL    HW152976   7.744  12.019  10.289
50379SOL    HW252977   7.890  12.056  10.303
50380SOL     OW52978   4.171   1.107   3.114
50380SOL    HW152979   4.265   1.090   3.120
50380SOL    HW252980   4.130   1.024   3.140
50381SOL     OW52981   9.698  10.006   4.667
50381SOL    HW152982   9.704   9.911   4.672
50381SOL    HW252983   9.611  10.022   4.630
50382SOL     OW52984  12.525  11.132   4.924
50382SOL    HW152985  12.462  11.203   4.915
50382SOL    HW252986  12.520  11.084   4.842
50383SOL     OW52987   2.019   1.180   8.793
50383SOL    HW152988   2.020   1.167   8.698
50383SOL    HW252989   1.927   1.178   8.817
50384SOL     OW52990   0.185   4.778   3.719
50384SOL    HW152991   0.108   4.787   3.776
50384SOL    HW252992   0.150   4.743   3.637
50385SOL     OW52993  10.831   6.173  13.474
50385SOL    HW152994  10.880   6.092  13.458
50385SOL    HW252995  10.887   6.242  13.438
50386SOL     OW52996   0.018  11.838  14.824
50386SOL    HW152997   0.022  11.858   0.038
50386SOL    HW252998  14.845  11.908  14.786
50387SOL     OW52999   0.936   2.751  12.949
50387SOL    HW153000   0.981   2.674  12.915
50387SOL    HW253001   0.844   2.726  12.952
50388SOL     OW53002  13.045  12.116   9.053
50388SOL    HW153003  13.116  12.173   9.083
50388SOL    HW253004  12.998  12.091   9.132
50389SOL     OW53005   2.388  13.313  13.676
50389SOL    HW153006   2.386  13.362  13.759
50389SOL    HW253007   2.480  13.290  13.664
50390SOL     OW53008  12.662  10.900   8.863
50390SOL    HW153009  12.614  10.981   8.844
50390SOL    HW253010  12.653  10.888   8.957
50391SOL     OW53011   0.281   6.895   4.311
50391SOL    HW153012   0.251   6.805   4.299
50391SOL    HW253013   0.377   6.889   4.304
50392SOL     OW53014  13.675  13.171   1.394
50392SOL    HW153015  13.732  13.246   1.408
50392SOL    HW253016  13.661  13.135   1.482
50393SOL     OW53017  10.398  13.337   4.186
50393SOL    HW153018  10.490  13.324   4.163
50393SOL    HW253019  10.387  13.289   4.268
50394SOL     OW53020   0.514   5.123   4.033
50394SOL    HW153021   0.607   5.101   4.043
50394SOL    HW253022   0.487   5.074   3.955
50395SOL     OW53023   0.156   3.696  13.451
50395SOL    HW153024   0.069   3.659  13.438
50395SOL    HW253025   0.217   3.624  13.433
50396SOL     OW53026   7.791   5.927   7.016
50396SOL    HW153027   7.830   5.913   7.102
50396SOL    HW253028   7.861   5.968   6.965
50397SOL     OW53029  14.726  10.792   8.350
50397SOL    HW153030  14.647  10.738   8.350
50397SOL    HW253031  14.709  10.858   8.282
50398SOL     OW53032   7.771   6.384  12.906
50398SOL    HW153033   7.799   6.299  12.872
50398SOL    HW253034   7.802   6.385  12.997
50399SOL     OW53035   7.087  10.469  11.926
50399SOL    HW153036   7.141  10.457  11.848
50399SOL    HW253037   7.121  10.405  11.989
50400SOL     OW53038   0.572   2.361   3.670
50400SOL    HW153039   0.657   2.404   3.662
50400SOL    HW253040   0.509   2.428   3.646
50401SOL     OW53041  12.274   2.538  14.564
50401SOL    HW153042  12.188   2.500  14.546
50401SOL    HW253043  12.269   2.565  14.656
50402SOL     OW53044   5.763   7.899   7.686
50402SOL    HW153045   5.796   7.951   7.759
50402SOL    HW253046   5.683   7.943   7.659
50403SOL     OW53047   4.383   4.633   6.627
50403SOL    HW153048   4.459   4.689   6.609
50403SOL    HW253049   4.392   4.560   6.566
50404SOL     OW53050   1.885   1.235  10.979
50404SOL    HW153051   1.976   1.264  10.973
50404SOL    HW253052   1.847   1.289  11.048
50405SOL     OW53053  11.685   2.994   6.761
50405SOL    HW153054  11.649   3.078   6.735
50405SOL    HW253055  11.616   2.952   6.812
50406SOL     OW53056   7.668   8.491   9.351
50406SOL    HW153057   7.590   8.463   9.302
50406SOL    HW253058   7.638   8.564   9.405
50407SOL     OW53059   1.313  10.800  12.297
50407SOL    HW153060   1.390  10.851  12.273
50407SOL    HW253061   1.325  10.781  12.390
50408SOL     OW53062  12.668  14.411  11.872
50408SOL    HW153063  12.620  14.494  11.870
50408SOL    HW253064  12.739  14.425  11.935
50409SOL     OW53065   6.204  12.865   1.469
50409SOL    HW153066   6.263  12.869   1.393
50409SOL    HW253067   6.200  12.955   1.500
50410SOL     OW53068   2.217   3.390   4.789
50410SOL    HW153069   2.165   3.453   4.839
50410SOL    HW253070   2.289   3.367   4.847
50411SOL     OW53071  14.095   5.455  10.371
50411SOL    HW153072  14.160   5.522  10.353
50411SOL    HW253073  14.028   5.499  10.423
50412SOL     OW53074   7.415  14.052  10.898
50412SOL    HW153075   7.398  14.079  10.807
50412SOL    HW253076   7.483  14.112  10.929
50413SOL     OW53077   0.969  13.373   3.287
50413SOL    HW153078   0.940  13.346   3.375
50413SOL    HW253079   0.944  13.300   3.231
50414SOL     OW53080   8.933  10.296   3.513
50414SOL    HW153081   8.915  10.235   3.441
50414SOL    HW253082   8.856  10.289   3.569
50415SOL     OW53083  10.343  14.031   7.185
50415SOL    HW153084  10.359  14.004   7.275
50415SOL    HW253085  10.430  14.054   7.151
50416SOL     OW53086   5.614   7.090  14.871
50416SOL    HW153087   5.531   7.045   0.001
50416SOL    HW253088   5.680   7.025   0.015
50417SOL     OW53089   2.046  10.947   7.479
50417SOL    HW153090   2.090  11.015   7.428
50417SOL    HW253091   2.044  10.981   7.568
50418SOL     OW53092  10.943   8.272  14.861
50418SOL    HW153093  10.902   8.347   0.026
50418SOL    HW253094  10.896   8.266  14.778
50419SOL     OW53095   8.182  10.222   1.982
50419SOL    HW153096   8.217  10.149   2.033
50419SOL    HW253097   8.231  10.299   2.013
50420SOL     OW53098   8.451  12.283   4.928
50420SOL    HW153099   8.356  12.296   4.924
50420SOL    HW253100   8.472  12.293   5.021
50421SOL     OW53101  13.650   5.510   9.001
50421SOL    HW153102  13.615   5.555   8.924
50421SOL    HW253103  13.721   5.456   8.968
50422SOL     OW53104   7.398   0.118   1.114
50422SOL    HW153105   7.383   0.160   1.199
50422SOL    HW253106   7.414   0.190   1.053
50423SOL     OW53107  11.466  11.057  11.499
50423SOL    HW153108  11.428  11.007  11.571
50423SOL    HW253109  11.429  11.145  11.508
50424SOL     OW53110  14.488  11.179   4.071
50424SOL    HW153111  14.564  11.210   4.120
50424SOL    HW253112  14.497  11.220   3.985
50425SOL     OW53113   4.442  14.205  14.085
50425SOL    HW153114   4.460  14.275  14.021
50425SOL    HW253115   4.368  14.157  14.047
50426SOL     OW53116   3.222  12.377  11.739
50426SOL    HW153117   3.218  12.410  11.649
50426SOL    HW253118   3.133  12.346  11.756
50427SOL     OW53119  13.649   9.466   0.788
50427SOL    HW153120  13.663   9.385   0.739
50427SOL    HW253121  13.560   9.493   0.764
50428SOL     OW53122   1.031  11.540  12.781
50428SOL    HW153123   1.104  11.569  12.727
50428SOL    HW253124   1.068  11.471  12.836
50429SOL     OW53125  11.981   2.414   1.321
50429SOL    HW153126  12.045   2.378   1.383
50429SOL    HW253127  11.897   2.401   1.364
50430SOL     OW53128   4.072   7.507   4.726
50430SOL    HW153129   3.996   7.546   4.683
50430SOL    HW253130   4.083   7.560   4.805
50431SOL     OW53131   9.669  14.749   2.153
50431SOL    HW153132   9.725  14.683   2.193
50431SOL    HW253133   9.580  14.722   2.177
50432SOL     OW53134   1.138   0.142   4.252
50432SOL    HW153135   1.162   0.200   4.324
50432SOL    HW253136   1.056   0.102   4.279
50433SOL     OW53137  14.722   2.520   1.303
50433SOL    HW153138  14.734   2.563   1.388
50433SOL    HW253139  14.811   2.513   1.267
50434SOL     OW53140   9.721   1.064   5.108
50434SOL    HW153141   9.629   1.075   5.132
50434SOL    HW253142   9.739   1.137   5.049
50435SOL     OW53143   1.317  10.410   9.307
50435SOL    HW153144   1.251  10.479   9.305
50435SOL    HW253145   1.364  10.424   9.390
50436SOL     OW53146  14.340  13.086   3.368
50436SOL    HW153147  14.432  13.093   3.395
50436SOL    HW253148  14.341  13.027   3.293
50437SOL     OW53149  12.370   8.734   8.279
50437SOL    HW153150  12.346   8.826   8.271
50437SOL    HW253151  12.452   8.726   8.229
50438SOL     OW53152   3.832  14.751   7.136
50438SOL    HW153153   3.754  14.698   7.116
50438SOL    HW253154   3.841  14.746   7.231
50439SOL     OW53155  14.444  11.787   8.855
50439SOL    HW153156  14.363  11.737   8.845
50439SOL    HW253157  14.513  11.721   8.853
50440SOL     OW53158   8.312   9.994   2.095
50440SOL    HW153159   8.388  10.043   2.127
50440SOL    HW253160   8.319   9.909   2.138
50441SOL     OW53161  13.269   8.305   8.692
50441SOL    HW153162  13.214   8.321   8.769
50441SOL    HW253163  13.217   8.336   8.618
50442SOL     OW53164   5.415  13.655  13.630
50442SOL    HW153165   5.496  13.700  13.609
50442SOL    HW253166   5.359  13.722  13.669
50443SOL     OW53167   2.854  10.485   9.188
50443SOL    HW153168   2.909  10.415   9.153
50443SOL    HW253169   2.884  10.496   9.279
50444SOL     OW53170   6.838   8.749  14.143
50444SOL    HW153171   6.916   8.803  14.139
50444SOL    HW253172   6.861   8.669  14.095
50445SOL     OW53173   8.877  13.128   7.465
50445SOL    HW153174   8.844  13.040   7.486
50445SOL    HW253175   8.851  13.142   7.374
50446SOL     OW53176   3.541   9.989  14.133
50446SOL    HW153177   3.466  10.005  14.190
50446SOL    HW253178   3.606   9.946  14.189
50447SOL     OW53179   1.234   0.243  11.827
50447SOL    HW153180   1.200   0.309  11.766
50447SOL    HW253181   1.295   0.192  11.774
50448SOL     OW53182  11.995   7.234   5.874
50448SOL    HW153183  12.083   7.211   5.907
50448SOL    HW253184  11.967   7.307   5.930
50449SOL     OW53185   9.146   0.922  11.813
50449SOL    HW153186   9.164   0.836  11.850
50449SOL    HW253187   9.109   0.904  11.727
50450SOL     OW53188   9.587  11.515  13.734
50450SOL    HW153189   9.563  11.606  13.747
50450SOL    HW253190   9.506  11.472  13.706
50451SOL     OW53191   8.146   6.549   8.975
50451SOL    HW153192   8.214   6.482   8.987
50451SOL    HW253193   8.188   6.631   9.000
50452SOL     OW53194   8.200   0.691   2.096
50452SOL    HW153195   8.245   0.769   2.063
50452SOL    HW253196   8.116   0.725   2.128
50453SOL     OW53197   7.538   4.152  14.182
50453SOL    HW153198   7.504   4.225  14.130
50453SOL    HW253199   7.630   4.173  14.197
50454SOL     OW53200  12.925   8.114   3.457
50454SOL    HW153201  12.983   8.047   3.421
50454SOL    HW253202  12.853   8.120   3.394
50455SOL     OW53203   0.912   5.216  11.609
50455SOL    HW153204   0.924   5.275  11.684
50455SOL    HW253205   0.963   5.257  11.538
50456SOL     OW53206   4.381  10.159  14.262
50456SOL    HW153207   4.418  10.080  14.302
50456SOL    HW253208   4.286  10.148  14.271
50457SOL     OW53209   6.008  12.154   4.121
50457SOL    HW153210   5.951  12.089   4.162
50457SOL    HW253211   5.980  12.156   4.029
50458SOL     OW53212   4.325   2.569   9.006
50458SOL    HW153213   4.419   2.550   9.012
50458SOL    HW253214   4.296   2.577   9.097
50459SOL     OW53215   6.398   2.222   6.528
50459SOL    HW153216   6.329   2.284   6.550
50459SOL    HW253217   6.354   2.153   6.479
50460SOL     OW53218  13.682   8.573  13.300
50460SOL    HW153219  13.631   8.654  13.292
50460SOL    HW253220  13.768   8.595  13.265
50461SOL     OW53221  13.065   0.793   1.943
50461SOL    HW153222  13.058   0.702   1.916
50461SOL    HW253223  12.980   0.813   1.982
50462SOL     OW53224  14.816   4.201   4.917
50462SOL    HW153225  14.785   4.196   5.008
50462SOL    HW253226  14.764   4.135   4.871
50463SOL     OW53227   9.225   7.588  13.355
50463SOL    HW153228   9.166   7.637  13.299
50463SOL    HW253229   9.289   7.549  13.296
50464SOL     OW53230   6.732   8.754   2.232
50464SOL    HW153231   6.721   8.730   2.141
50464SOL    HW253232   6.816   8.715   2.258
50465SOL     OW53233  11.285   0.463   7.381
50465SOL    HW153234  11.373   0.498   7.364
50465SOL    HW253235  11.289   0.433   7.472
50466SOL     OW53236  14.216   6.596   6.514
50466SOL    HW153237  14.187   6.672   6.464
50466SOL    HW253238  14.264   6.634   6.588
50467SOL     OW53239   4.077  12.975   7.875
50467SOL    HW153240   4.124  12.894   7.894
50467SOL    HW253241   4.034  12.998   7.957
50468SOL     OW53242   8.806   5.649  14.639
50468SOL    HW153243   8.711   5.651  14.637
50468SOL    HW253244   8.829   5.656  14.731
50469SOL     OW53245   5.718   9.591   8.596
50469SOL    HW153246   5.661   9.538   8.540
50469SOL    HW253247   5.784   9.626   8.536
50470SOL     OW53248   7.857   2.704  10.777
50470SOL    HW153249   7.802   2.628  10.756
50470SOL    HW253250   7.946   2.669  10.776
50471SOL     OW53251   6.394   6.627   0.975
50471SOL    HW153252   6.465   6.578   0.935
50471SOL    HW253253   6.420   6.719   0.964
50472SOL     OW53254  10.650   1.389   1.573
50472SOL    HW153255  10.617   1.479   1.576
50472SOL    HW253256  10.606   1.350   1.497
50473SOL     OW53257   1.230   8.355   0.884
50473SOL    HW153258   1.298   8.397   0.937
50473SOL    HW253259   1.238   8.396   0.798
50474SOL     OW53260  12.816  13.126   6.842
50474SOL    HW153261  12.829  13.055   6.905
50474SOL    HW253262  12.802  13.204   6.896
50475SOL     OW53263   4.736  14.247  12.789
50475SOL    HW153264   4.721  14.252  12.883
50475SOL    HW253265   4.673  14.182  12.758
50476SOL     OW53266   5.741   1.186  13.914
50476SOL    HW153267   5.766   1.106  13.867
50476SOL    HW253268   5.824   1.227  13.937
50477SOL     OW53269   8.855   2.106  14.513
50477SOL    HW153270   8.787   2.060  14.563
50477SOL    HW253271   8.924   2.123  14.577
50478SOL     OW53272   7.724   7.567  12.093
50478SOL    HW153273   7.749   7.525  12.011
50478SOL    HW253274   7.724   7.660  12.074
50479SOL     OW53275   1.435   6.700  13.106
50479SOL    HW153276   1.358   6.654  13.138
50479SOL    HW253277   1.462   6.756  13.179
50480SOL     OW53278   2.215  10.986  10.250
50480SOL    HW153279   2.210  11.011  10.342
50480SOL    HW253280   2.238  11.067  10.204
50481SOL     OW53281  12.472   9.471   8.836
50481SOL    HW153282  12.473   9.430   8.749
50481SOL    HW253283  12.410   9.544   8.826
50482SOL     OW53284  13.207   3.951   5.274
50482SOL    HW153285  13.128   3.915   5.314
50482SOL    HW253286  13.264   3.973   5.347
50483SOL     OW53287  11.871   6.332  14.033
50483SOL    HW153288  11.938   6.265  14.046
50483SOL    HW253289  11.910   6.412  14.068
50484SOL     OW53290   5.267   1.990   9.548
50484SOL    HW153291   5.274   2.079   9.583
50484SOL    HW253292   5.351   1.975   9.505
50485SOL     OW53293   1.440   3.384  13.305
50485SOL    HW153294   1.345   3.385  13.310
50485SOL    HW253295   1.460   3.395  13.211
50486SOL     OW53296   1.665  10.546  10.138
50486SOL    HW153297   1.737  10.495  10.101
50486SOL    HW253298   1.586  10.508  10.100
50487SOL     OW53299   2.673   2.036   5.780
50487SOL    HW153300   2.726   1.977   5.834
50487SOL    HW253301   2.732   2.065   5.711
50488SOL     OW53302   7.283   6.808   2.817
50488SOL    HW153303   7.295   6.724   2.861
50488SOL    HW253304   7.335   6.870   2.868
50489SOL     OW53305   0.544   8.997  14.730
50489SOL    HW153306   0.568   8.992  14.823
50489SOL    HW253307   0.452   8.971  14.728
50490SOL     OW53308  11.547   9.157   2.409
50490SOL    HW153309  11.616   9.130   2.348
50490SOL    HW253310  11.573   9.118   2.493
50491SOL     OW53311   6.237  13.510   6.053
50491SOL    HW153312   6.232  13.568   6.129
50491SOL    HW253313   6.211  13.424   6.086
50492SOL     OW53314   7.198   6.667   9.741
50492SOL    HW153315   7.217   6.760   9.735
50492SOL    HW253316   7.105   6.662   9.761
50493SOL     OW53317   6.353   6.060   4.774
50493SOL    HW153318   6.289   6.131   4.763
50493SOL    HW253319   6.379   6.038   4.684
50494SOL     OW53320  14.130   4.828   3.657
50494SOL    HW153321  14.161   4.816   3.747
50494SOL    HW253322  14.165   4.754   3.609
50495SOL     OW53323  12.793   1.487   8.878
50495SOL    HW153324  12.779   1.427   8.805
50495SOL    HW253325  12.762   1.438   8.955
50496SOL     OW53326  11.784   8.641  10.630
50496SOL    HW153327  11.689   8.646  10.621
50496SOL    HW253328  11.801   8.555  10.669
50497SOL     OW53329  10.638   3.807  12.266
50497SOL    HW153330  10.655   3.811  12.360
50497SOL    HW253331  10.581   3.882  12.249
50498SOL     OW53332   9.872  13.274   7.800
50498SOL    HW153333   9.882  13.206   7.734
50498SOL    HW253334   9.833  13.348   7.753
50499SOL     OW53335  11.920   9.227   8.600
50499SOL    HW153336  11.924   9.295   8.667
50499SOL    HW253337  11.951   9.148   8.644
50500SOL     OW53338   0.596   0.369   9.162
50500SOL    HW153339   0.595   0.459   9.130
50500SOL    HW253340   0.507   0.337   9.147
50501SOL     OW53341  10.724   8.573   5.467
50501SOL    HW153342  10.755   8.662   5.453
50501SOL    HW253343  10.674   8.552   5.387
50502SOL     OW53344   9.856   6.768   8.138
50502SOL    HW153345   9.905   6.691   8.110
50502SOL    HW253346   9.876   6.776   8.232
50503SOL     OW53347  13.851  13.503   2.800
50503SOL    HW153348  13.769  13.544   2.771
50503SOL    HW253349  13.844  13.501   2.896
50504SOL     OW53350   4.846   3.953   9.363
50504SOL    HW153351   4.831   3.888   9.294
50504SOL    HW253352   4.932   3.931   9.398
50505SOL     OW53353  12.039   5.174   7.935
50505SOL    HW153354  12.029   5.211   8.023
50505SOL    HW253355  12.035   5.250   7.877
50506SOL     OW53356   9.370   8.402  10.398
50506SOL    HW153357   9.340   8.466  10.334
50506SOL    HW253358   9.293   8.349  10.417
50507SOL     OW53359   9.552   2.467  13.449
50507SOL    HW153360   9.503   2.491  13.370
50507SOL    HW253361   9.511   2.516  13.519
50508SOL     OW53362   8.182   3.485  13.558
50508SOL    HW153363   8.132   3.530  13.626
50508SOL    HW253364   8.254   3.543  13.538
50509SOL     OW53365  11.053   6.450   4.362
50509SOL    HW153366  10.997   6.382   4.400
50509SOL    HW253367  11.141   6.425   4.388
50510SOL     OW53368  10.161   0.177   1.601
50510SOL    HW153369  10.252   0.150   1.589
50510SOL    HW253370  10.160   0.221   1.686
50511SOL     OW53371   8.461   1.427   5.370
50511SOL    HW153372   8.482   1.469   5.286
50511SOL    HW253373   8.377   1.384   5.355
50512SOL     OW53374   7.227   6.085   6.210
50512SOL    HW153375   7.218   6.146   6.284
50512SOL    HW253376   7.216   5.999   6.248
50513SOL     OW53377   7.044   2.827   2.825
50513SOL    HW153378   7.019   2.870   2.743
50513SOL    HW253379   7.140   2.828   2.824
50514SOL     OW53380  13.257   0.865   2.137
50514SOL    HW153381  13.187   0.860   2.072
50514SOL    HW253382  13.257   0.956   2.165
50515SOL     OW53383   4.521   6.958   7.115
50515SOL    HW153384   4.612   6.930   7.106
50515SOL    HW253385   4.490   6.913   7.194
50516SOL     OW53386  12.176   5.686  13.202
50516SOL    HW153387  12.099   5.741  13.212
50516SOL    HW253388  12.216   5.714  13.120
50517SOL     OW53389   6.797   8.367   9.953
50517SOL    HW153390   6.805   8.424  10.029
50517SOL    HW253391   6.886   8.355   9.922
50518SOL     OW53392   1.774  10.333  10.892
50518SOL    HW153393   1.833  10.265  10.863
50518SOL    HW253394   1.732  10.365  10.812
50519SOL     OW53395  10.944  12.248   9.796
50519SOL    HW153396  10.982  12.333   9.777
50519SOL    HW253397  10.850  12.265   9.804
50520SOL     OW53398  13.743  13.404  10.503
50520SOL    HW153399  13.696  13.450  10.573
50520SOL    HW253400  13.833  13.399  10.534
50521SOL     OW53401  14.823   1.777   2.375
50521SOL    HW153402  14.845   1.759   2.283
50521SOL    HW253403  14.873   1.712   2.425
50522SOL     OW53404   4.379  11.731   7.320
50522SOL    HW153405   4.338  11.752   7.237
50522SOL    HW253406   4.405  11.816   7.356
50523SOL     OW53407   7.576   3.854   3.123
50523SOL    HW153408   7.547   3.910   3.195
50523SOL    HW253409   7.643   3.906   3.078
50524SOL     OW53410   4.127   8.420   3.558
50524SOL    HW153411   4.080   8.368   3.494
50524SOL    HW253412   4.059   8.468   3.605
50525SOL     OW53413   2.098   5.151   8.521
50525SOL    HW153414   2.114   5.058   8.533
50525SOL    HW253415   2.107   5.165   8.426
50526SOL     OW53416   6.874  12.037  14.147
50526SOL    HW153417   6.961  12.078  14.149
50526SOL    HW253418   6.891  11.947  14.118
50527SOL     OW53419   7.750   0.383   3.691
50527SOL    HW153420   7.689   0.314   3.717
50527SOL    HW253421   7.738   0.451   3.758
50528SOL     OW53422  13.149   9.162   3.208
50528SOL    HW153423  13.155   9.133   3.117
50528SOL    HW253424  13.164   9.083   3.260
50529SOL     OW53425  13.286  11.584   7.685
50529SOL    HW153426  13.257  11.515   7.744
50529SOL    HW253427  13.372  11.554   7.654
50530SOL     OW53428   0.775   9.362  10.731
50530SOL    HW153429   0.714   9.385  10.661
50530SOL    HW253430   0.761   9.428  10.799
50531SOL     OW53431   8.228   5.825   6.744
50531SOL    HW153432   8.197   5.844   6.655
50531SOL    HW253433   8.321   5.848   6.742
50532SOL     OW53434  10.128  10.908   5.077
50532SOL    HW153435  10.044  10.877   5.112
50532SOL    HW253436  10.189  10.837   5.097
50533SOL     OW53437   4.754  13.859  11.157
50533SOL    HW153438   4.751  13.949  11.187
50533SOL    HW253439   4.679  13.817  11.198
50534SOL     OW53440   7.994   8.331  10.113
50534SOL    HW153441   7.969   8.249  10.069
50534SOL    HW253442   7.984   8.398  10.046
50535SOL     OW53443   7.071   6.025   1.396
50535SOL    HW153444   7.034   5.936   1.390
50535SOL    HW253445   7.025   6.075   1.329
50536SOL     OW53446   2.105   9.235   1.210
50536SOL    HW153447   2.095   9.303   1.277
50536SOL    HW253448   2.016   9.220   1.178
50537SOL     OW53449   9.328  10.232   7.674
50537SOL    HW153450   9.416  10.264   7.693
50537SOL    HW253451   9.342  10.141   7.647
50538SOL     OW53452   4.210   2.188   3.560
50538SOL    HW153453   4.230   2.165   3.650
50538SOL    HW253454   4.123   2.151   3.544
50539SOL     OW53455   1.906  12.836   8.856
50539SOL    HW153456   1.877  12.802   8.940
50539SOL    HW253457   1.878  12.928   8.857
50540SOL     OW53458   8.002  10.916   9.451
50540SOL    HW153459   7.961  10.992   9.410
50540SOL    HW253460   7.949  10.899   9.529
50541SOL     OW53461   6.366   6.646  14.766
50541SOL    HW153462   6.295   6.675  14.708
50541SOL    HW253463   6.429   6.604  14.707
50542SOL     OW53464   6.907   3.139   3.701
50542SOL    HW153465   6.984   3.180   3.742
50542SOL    HW253466   6.928   3.046   3.699
50543SOL     OW53467   4.786   2.401   8.822
50543SOL    HW153468   4.779   2.308   8.801
50543SOL    HW253469   4.805   2.444   8.739
50544SOL     OW53470  10.811   7.666   1.207
50544SOL    HW153471  10.808   7.600   1.277
50544SOL    HW253472  10.904   7.681   1.193
50545SOL     OW53473   3.166   4.368   9.709
50545SOL    HW153474   3.169   4.283   9.753
50545SOL    HW253475   3.196   4.350   9.620
50546SOL     OW53476   6.620   4.529   5.573
50546SOL    HW153477   6.572   4.580   5.637
50546SOL    HW253478   6.605   4.438   5.597
50547SOL     OW53479   8.417   2.647   4.656
50547SOL    HW153480   8.483   2.592   4.615
50547SOL    HW253481   8.436   2.736   4.624
50548SOL     OW53482   3.121   9.418   0.172
50548SOL    HW153483   3.039   9.370   0.164
50548SOL    HW253484   3.186   9.362   0.130
50549SOL     OW53485   8.752  12.755   8.732
50549SOL    HW153486   8.751  12.671   8.779
50549SOL    HW253487   8.672  12.799   8.760
50550SOL     OW53488   7.819  11.503   2.142
50550SOL    HW153489   7.756  11.559   2.188
50550SOL    HW253490   7.864  11.563   2.082
50551SOL     OW53491   2.809  11.001   6.261
50551SOL    HW153492   2.754  10.986   6.184
50551SOL    HW253493   2.809  10.917   6.307
50552SOL     OW53494   6.259   4.569   0.703
50552SOL    HW153495   6.207   4.649   0.708
50552SOL    HW253496   6.198   4.499   0.725
50553SOL     OW53497   0.389   7.778  11.011
50553SOL    HW153498   0.388   7.852  10.950
50553SOL    HW253499   0.298   7.748  11.014
50554SOL     OW53500  11.249   4.427   5.856
50554SOL    HW153501  11.222   4.340   5.885
50554SOL    HW253502  11.257   4.477   5.937
50555SOL     OW53503   1.487  14.367   1.568
50555SOL    HW153504   1.433  14.440   1.538
50555SOL    HW253505   1.577  14.398   1.560
50556SOL     OW53506   5.699   2.138   5.291
50556SOL    HW153507   5.688   2.227   5.258
50556SOL    HW253508   5.753   2.148   5.369
50557SOL     OW53509   6.140   2.840   2.715
50557SOL    HW153510   6.209   2.876   2.771
50557SOL    HW253511   6.069   2.904   2.721
50558SOL     OW53512   5.425  12.934   4.234
50558SOL    HW153513   5.351  12.926   4.174
50558SOL    HW253514   5.478  13.005   4.197
50559SOL     OW53515  10.369   6.753  11.893
50559SOL    HW153516  10.358   6.833  11.945
50559SOL    HW253517  10.455   6.720  11.917
50560SOL     OW53518   1.576  10.443   6.335
50560SOL    HW153519   1.497  10.473   6.381
50560SOL    HW253520   1.546  10.367   6.284
50561SOL     OW53521   0.177  11.473  13.386
50561SOL    HW153522   0.092  11.513  13.401
50561SOL    HW253523   0.235  11.546  13.362
50562SOL     OW53524   2.788   3.899  14.109
50562SOL    HW153525   2.776   3.822  14.164
50562SOL    HW253526   2.760   3.973  14.163
50563SOL     OW53527   8.893  11.260   1.520
50563SOL    HW153528   8.814  11.310   1.498
50563SOL    HW253529   8.955  11.327   1.550
50564SOL     OW53530  12.651  12.756   5.007
50564SOL    HW153531  12.725  12.804   4.970
50564SOL    HW253532  12.662  12.666   4.974
50565SOL     OW53533   3.060   7.629  14.761
50565SOL    HW153534   2.998   7.693  14.796
50565SOL    HW253535   3.048   7.552  14.817
50566SOL     OW53536   0.970   0.676   0.573
50566SOL    HW153537   0.883   0.635   0.569
50566SOL    HW253538   0.952   0.768   0.592
50567SOL     OW53539  12.077   2.222   7.647
50567SOL    HW153540  12.133   2.297   7.668
50567SOL    HW253541  12.112   2.151   7.700
50568SOL     OW53542   1.032  14.192  13.414
50568SOL    HW153543   1.118  14.152  13.417
50568SOL    HW253544   1.048  14.282  13.386
50569SOL     OW53545   3.501   2.945   0.166
50569SOL    HW153546   3.406   2.932   0.163
50569SOL    HW253547   3.537   2.866   0.125
50570SOL     OW53548   5.904   0.232   1.767
50570SOL    HW153549   5.997   0.250   1.784
50570SOL    HW253550   5.904   0.144   1.729
50571SOL     OW53551   1.846  12.545   7.525
50571SOL    HW153552   1.799  12.618   7.564
50571SOL    HW253553   1.839  12.559   7.430
50572SOL     OW53554   8.659   5.247   7.632
50572SOL    HW153555   8.587   5.223   7.690
50572SOL    HW253556   8.694   5.329   7.668
50573SOL     OW53557   2.476   4.214   7.255
50573SOL    HW153558   2.460   4.308   7.259
50573SOL    HW253559   2.534   4.201   7.180
50574SOL     OW53560  14.540  11.799   3.894
50574SOL    HW153561  14.534  11.870   3.958
50574SOL    HW253562  14.451  11.766   3.886
50575SOL     OW53563   5.868  11.045  11.348
50575SOL    HW153564   5.882  11.099  11.426
50575SOL    HW253565   5.954  11.039  11.306
50576SOL     OW53566  10.587  10.810   7.327
50576SOL    HW153567  10.665  10.799   7.274
50576SOL    HW253568  10.614  10.783   7.415
50577SOL     OW53569   2.924  11.470   8.072
50577SOL    HW153570   2.960  11.467   7.984
50577SOL    HW253571   2.995  11.504   8.126
50578SOL     OW53572  12.197   2.637  14.218
50578SOL    HW153573  12.183   2.570  14.285
50578SOL    HW253574  12.238   2.710  14.265
50579SOL     OW53575   1.341   4.069   8.904
50579SOL    HW153576   1.400   4.144   8.892
50579SOL    HW253577   1.400   3.994   8.909
50580SOL     OW53578  14.492   4.300   7.840
50580SOL    HW153579  14.548   4.323   7.913
50580SOL    HW253580  14.443   4.224   7.871
50581SOL     OW53581  11.826  12.713   9.652
50581SOL    HW153582  11.777  12.746   9.577
50581SOL    HW253583  11.831  12.619   9.638
50582SOL     OW53584  11.547   5.086   6.444
50582SOL    HW153585  11.508   5.082   6.531
50582SOL    HW253586  11.511   5.009   6.399
50583SOL     OW53587   8.783  13.731   5.955
50583SOL    HW153588   8.741  13.647   5.938
50583SOL    HW253589   8.728  13.795   5.910
50584SOL     OW53590   7.860   0.701   9.911
50584SOL    HW153591   7.944   0.722   9.871
50584SOL    HW253592   7.795   0.735   9.850
50585SOL     OW53593   1.856   6.061   4.549
50585SOL    HW153594   1.893   6.138   4.505
50585SOL    HW253595   1.891   5.986   4.501
50586SOL     OW53596  13.197  12.387   7.588
50586SOL    HW153597  13.177  12.472   7.550
50586SOL    HW253598  13.265  12.350   7.531
50587SOL     OW53599   6.777  14.870  14.393
50587SOL    HW153600   6.853  14.812  14.392
50587SOL    HW253601   6.814   0.079  14.385
50588SOL     OW53602  10.836   3.042   2.497
50588SOL    HW153603  10.781   3.014   2.571
50588SOL    HW253604  10.851   2.962   2.447
50589SOL     OW53605   3.015  12.945   7.404
50589SOL    HW153606   3.028  12.872   7.465
50589SOL    HW253607   3.082  12.932   7.337
50590SOL     OW53608  11.121   1.935   7.964
50590SOL    HW153609  11.156   1.969   7.882
50590SOL    HW253610  11.042   1.986   7.979
50591SOL     OW53611   6.431   6.335   7.172
50591SOL    HW153612   6.439   6.280   7.094
50591SOL    HW253613   6.348   6.381   7.161
50592SOL     OW53614  14.232   0.637   7.606
50592SOL    HW153615  14.220   0.543   7.620
50592SOL    HW253616  14.143   0.672   7.603
50593SOL     OW53617  14.490   7.834   3.354
50593SOL    HW153618  14.566   7.888   3.336
50593SOL    HW253619  14.520   7.769   3.417
50594SOL     OW53620   6.719  12.674  12.768
50594SOL    HW153621   6.701  12.731  12.693
50594SOL    HW253622   6.686  12.723  12.844
50595SOL     OW53623   8.843   4.366   3.675
50595SOL    HW153624   8.920   4.424   3.675
50595SOL    HW253625   8.863   4.300   3.741
50596SOL     OW53626   8.086  14.197  13.464
50596SOL    HW153627   8.076  14.165  13.554
50596SOL    HW253628   8.144  14.273  13.471
50597SOL     OW53629  12.422  11.972   5.934
50597SOL    HW153630  12.460  12.027   6.003
50597SOL    HW253631  12.460  11.886   5.950
50598SOL     OW53632  11.403  12.068  10.568
50598SOL    HW153633  11.420  12.162  10.562
50598SOL    HW253634  11.456  12.039  10.643
50599SOL     OW53635  14.385   0.295  14.837
50599SOL    HW153636  14.293   0.269  14.834
50599SOL    HW253637  14.418   0.276  14.749
50600SOL     OW53638  12.969  10.713  12.513
50600SOL    HW153639  13.002  10.667  12.436
50600SOL    HW253640  12.977  10.806  12.491
50601SOL     OW53641  11.231  10.543   8.555
50601SOL    HW153642  11.302  10.578   8.501
50601SOL    HW253643  11.251  10.573   8.643
50602SOL     OW53644   2.396   7.795  14.322
50602SOL    HW153645   2.373   7.705  14.341
50602SOL    HW253646   2.450   7.790  14.243
50603SOL     OW53647  13.992   1.654   3.303
50603SOL    HW153648  13.990   1.596   3.226
50603SOL    HW253649  13.988   1.594   3.378
50604SOL     OW53650  11.872  11.799   2.352
50604SOL    HW153651  11.882  11.804   2.257
50604SOL    HW253652  11.862  11.890   2.380
50605SOL     OW53653   9.158  14.706  10.792
50605SOL    HW153654   9.183  14.638  10.729
50605SOL    HW253655   9.207  14.685  10.871
50606SOL     OW53656  13.333  11.847   8.564
50606SOL    HW153657  13.399  11.866   8.498
50606SOL    HW253658  13.294  11.764   8.536
50607SOL     OW53659   0.484   3.164   1.443
50607SOL    HW153660   0.435   3.083   1.433
50607SOL    HW253661   0.560   3.140   1.496
50608SOL     OW53662  14.781   2.827   4.417
50608SOL    HW153663  14.859   2.774   4.403
50608SOL    HW253664  14.731   2.817   4.336
50609SOL     OW53665   1.556   8.473   1.779
50609SOL    HW153666   1.527   8.511   1.696
50609SOL    HW253667   1.486   8.413   1.804
50610SOL     OW53668   3.215   3.223   9.390
50610SOL    HW153669   3.181   3.172   9.463
50610SOL    HW253670   3.220   3.312   9.423
50611SOL     OW53671   0.898   7.712   6.427
50611SOL    HW153672   0.861   7.693   6.341
50611SOL    HW253673   0.954   7.637   6.446
50612SOL     OW53674  12.812   2.841   8.300
50612SOL    HW153675  12.849   2.869   8.216
50612SOL    HW253676  12.758   2.914   8.328
50613SOL     OW53677  13.900   2.711   5.092
50613SOL    HW153678  13.949   2.794   5.090
50613SOL    HW253679  13.937   2.664   5.167
50614SOL     OW53680   4.296   3.740   9.763
50614SOL    HW153681   4.291   3.764   9.670
50614SOL    HW253682   4.315   3.822   9.808
50615SOL     OW53683   6.348  14.159  14.582
50615SOL    HW153684   6.360  14.065  14.570
50615SOL    HW253685   6.390  14.199  14.506
50616SOL     OW53686   1.060   4.443  12.050
50616SOL    HW153687   0.970   4.440  12.018
50616SOL    HW253688   1.100   4.362  12.019
50617SOL     OW53689  14.161   0.710   3.117
50617SOL    HW153690  14.091   0.768   3.145
50617SOL    HW253691  14.232   0.769   3.090
50618SOL     OW53692   0.243  14.635   6.741
50618SOL    HW153693   0.275  14.684   6.817
50618SOL    HW253694   0.196  14.560   6.779
50619SOL     OW53695   2.278   4.100   2.542
50619SOL    HW153696   2.267   4.005   2.543
50619SOL    HW253697   2.195   4.135   2.572
50620SOL     OW53698  11.702   9.063   3.118
50620SOL    HW153699  11.631   9.030   3.172
50620SOL    HW253700  11.685   9.157   3.111
50621SOL     OW53701   0.780  10.058   4.444
50621SOL    HW153702   0.765   9.964   4.451
50621SOL    HW253703   0.817  10.070   4.356
50622SOL     OW53704   4.701   2.682   5.924
50622SOL    HW153705   4.738   2.608   5.876
50622SOL    HW253706   4.775   2.721   5.970
50623SOL     OW53707   1.887  11.971  14.289
50623SOL    HW153708   1.967  11.968  14.342
50623SOL    HW253709   1.913  11.934  14.205
50624SOL     OW53710   1.885   5.777   6.343
50624SOL    HW153711   1.842   5.823   6.415
50624SOL    HW253712   1.935   5.844   6.297
50625SOL     OW53713   4.740   4.407  13.592
50625SOL    HW153714   4.701   4.427  13.677
50625SOL    HW253715   4.805   4.339  13.610
50626SOL     OW53716  12.095  12.250  10.132
50626SOL    HW153717  12.152  12.236  10.208
50626SOL    HW253718  12.150  12.295  10.068
50627SOL     OW53719  13.359  14.170  12.644
50627SOL    HW153720  13.266  14.181  12.663
50627SOL    HW253721  13.402  14.234  12.701
50628SOL     OW53722  10.788   2.723   5.077
50628SOL    HW153723  10.738   2.785   5.131
50628SOL    HW253724  10.873   2.716   5.122
50629SOL     OW53725  13.530  14.654   3.381
50629SOL    HW153726  13.490  14.567   3.375
50629SOL    HW253727  13.460  14.714   3.356
50630SOL     OW53728   8.756   6.275  14.216
50630SOL    HW153729   8.788   6.238  14.298
50630SOL    HW253730   8.766   6.205  14.151
50631SOL     OW53731   8.010  13.155  10.301
50631SOL    HW153732   7.981  13.107  10.223
50631SOL    HW253733   7.941  13.219  10.317
50632SOL     OW53734   9.112  14.053  14.680
50632SOL    HW153735   9.157  13.969  14.691
50632SOL    HW253736   9.125  14.075  14.587
50633SOL     OW53737   2.227  12.069  11.665
50633SOL    HW153738   2.166  12.087  11.737
50633SOL    HW253739   2.171  12.059  11.588
50634SOL     OW53740   0.622   5.339   5.620
50634SOL    HW153741   0.638   5.432   5.636
50634SOL    HW253742   0.709   5.299   5.619
50635SOL     OW53743  13.061  13.289   4.810
50635SOL    HW153744  13.060  13.193   4.812
50635SOL    HW253745  13.039  13.311   4.719
50636SOL     OW53746  11.442   9.695   1.746
50636SOL    HW153747  11.367   9.746   1.775
50636SOL    HW253748  11.501   9.758   1.706
50637SOL     OW53749   6.021  11.187   4.651
50637SOL    HW153750   6.016  11.131   4.573
50637SOL    HW253751   5.942  11.241   4.646
50638SOL     OW53752  12.925  10.297  10.987
50638SOL    HW153753  12.937  10.261  10.899
50638SOL    HW253754  12.869  10.233  11.031
50639SOL     OW53755   4.770  14.688   0.108
50639SOL    HW153756   4.705  14.675   0.177
50639SOL    HW253757   4.742  14.630   0.037
50640SOL     OW53758  12.697   4.080   6.794
50640SOL    HW153759  12.620   4.078   6.737
50640SOL    HW253760  12.719   4.173   6.802
50641SOL     OW53761  11.931   9.393   0.305
50641SOL    HW153762  11.942   9.477   0.261
50641SOL    HW253763  11.961   9.410   0.395
50642SOL     OW53764   8.764   1.786   4.253
50642SOL    HW153765   8.711   1.837   4.314
50642SOL    HW253766   8.841   1.840   4.236
50643SOL     OW53767   5.103   2.468   6.716
50643SOL    HW153768   5.090   2.421   6.798
50643SOL    HW253769   5.025   2.522   6.706
50644SOL     OW53770  11.888   8.763   3.724
50644SOL    HW153771  11.960   8.771   3.662
50644SOL    HW253772  11.930   8.745   3.808
50645SOL     OW53773  11.722   2.009  10.662
50645SOL    HW153774  11.715   2.015  10.757
50645SOL    HW253775  11.639   1.968  10.634
50646SOL     OW53776   5.623  10.613  14.119
50646SOL    HW153777   5.558  10.589  14.185
50646SOL    HW253778   5.571  10.646  14.046
50647SOL     OW53779   8.274   3.292   7.509
50647SOL    HW153780   8.239   3.216   7.462
50647SOL    HW253781   8.332   3.255   7.575
50648SOL     OW53782   8.996   9.492   9.734
50648SOL    HW153783   9.078   9.484   9.782
50648SOL    HW253784   9.019   9.476   9.643
50649SOL     OW53785   0.889   6.649   9.129
50649SOL    HW153786   0.940   6.577   9.164
50649SOL    HW253787   0.951   6.700   9.077
50650SOL     OW53788  13.380   5.866   9.655
50650SOL    HW153789  13.366   5.837   9.565
50650SOL    HW253790  13.298   5.908   9.679
50651SOL     OW53791  13.540   8.713   3.250
50651SOL    HW153792  13.611   8.772   3.223
50651SOL    HW253793  13.467   8.735   3.191
50652SOL     OW53794   2.788   3.418  14.573
50652SOL    HW153795   2.763   3.468  14.495
50652SOL    HW253796   2.854   3.473  14.616
50653SOL     OW53797   8.820   1.884   0.938
50653SOL    HW153798   8.812   1.970   0.978
50653SOL    HW253799   8.731   1.859   0.915
50654SOL     OW53800  12.208  10.818   2.959
50654SOL    HW153801  12.129  10.839   3.008
50654SOL    HW253802  12.278  10.862   3.007
50655SOL     OW53803   6.528   7.699  12.774
50655SOL    HW153804   6.571   7.620  12.809
50655SOL    HW253805   6.582   7.723  12.699
50656SOL     OW53806   2.218   2.531  14.660
50656SOL    HW153807   2.248   2.462  14.720
50656SOL    HW253808   2.292   2.545  14.601
50657SOL     OW53809   3.871   8.533   2.134
50657SOL    HW153810   3.889   8.568   2.046
50657SOL    HW253811   3.813   8.598   2.174
50658SOL     OW53812   7.569  14.082  14.301
50658SOL    HW153813   7.481  14.079  14.264
50658SOL    HW253814   7.613  14.005  14.266
50659SOL     OW53815   8.547  10.191   6.738
50659SOL    HW153816   8.486  10.126   6.702
50659SOL    HW253817   8.496  10.273   6.738
50660SOL     OW53818  13.317   0.421   7.425
50660SOL    HW153819  13.243   0.389   7.476
50660SOL    HW253820  13.279   0.476   7.357
50661SOL     OW53821   4.076   1.272   7.289
50661SOL    HW153822   4.010   1.271   7.359
50661SOL    HW253823   4.094   1.179   7.272
50662SOL     OW53824   9.808   5.768  12.646
50662SOL    HW153825   9.876   5.834  12.661
50662SOL    HW253826   9.852   5.685  12.659
50663SOL     OW53827   6.336  11.121  11.329
50663SOL    HW153828   6.276  11.195  11.326
50663SOL    HW253829   6.423  11.159  11.313
50664SOL     OW53830  12.106   7.223  10.913
50664SOL    HW153831  12.096   7.258  11.001
50664SOL    HW253832  12.195   7.249  10.887
50665SOL     OW53833  12.849   9.769  12.300
50665SOL    HW153834  12.883   9.680  12.297
50665SOL    HW253835  12.791   9.776  12.224
50666SOL     OW53836   5.732  11.460   0.750
50666SOL    HW153837   5.817  11.478   0.791
50666SOL    HW253838   5.748  11.386   0.692
50667SOL     OW53839   5.995   2.276   0.818
50667SOL    HW153840   5.951   2.191   0.822
50667SOL    HW253841   5.973   2.318   0.901
50668SOL     OW53842   5.944   2.116   7.803
50668SOL    HW153843   5.971   2.208   7.799
50668SOL    HW253844   5.876   2.108   7.736
50669SOL     OW53845   0.360   3.914  12.947
50669SOL    HW153846   0.324   3.985  12.999
50669SOL    HW253847   0.305   3.911  12.869
50670SOL     OW53848   5.757   5.592   7.136
50670SOL    HW153849   5.691   5.556   7.196
50670SOL    HW253850   5.708   5.619   7.059
50671SOL     OW53851   4.104  14.878   3.050
50671SOL    HW153852   4.105   0.089   3.082
50671SOL    HW253853   4.052  14.830   3.114
50672SOL     OW53854   2.109   7.325   6.531
50672SOL    HW153855   2.076   7.281   6.609
50672SOL    HW253856   2.204   7.313   6.536
50673SOL     OW53857  13.625   6.127   4.765
50673SOL    HW153858  13.640   6.124   4.671
50673SOL    HW253859  13.579   6.045   4.785
50674SOL     OW53860   6.642   5.113  11.934
50674SOL    HW153861   6.665   5.200  11.965
50674SOL    HW253862   6.664   5.115  11.841
50675SOL     OW53863   0.186   3.951   8.926
50675SOL    HW153864   0.255   3.924   8.865
50675SOL    HW253865   0.135   3.871   8.941
50676SOL     OW53866  11.445  14.629   1.780
50676SOL    HW153867  11.516  14.670   1.829
50676SOL    HW253868  11.483  14.609   1.695
50677SOL     OW53869   0.899   0.019  12.906
50677SOL    HW153870   0.900   0.047  12.815
50677SOL    HW253871   0.847   0.086  12.951
50678SOL     OW53872   8.869  12.152   7.478
50678SOL    HW153873   8.804  12.097   7.435
50678SOL    HW253874   8.821  12.196   7.548
50679SOL     OW53875   4.122  13.303   1.104
50679SOL    HW153876   4.062  13.265   1.168
50679SOL    HW253877   4.088  13.275   1.019
50680SOL     OW53878   8.122   0.112  10.720
50680SOL    HW153879   8.213   0.130  10.699
50680SOL    HW253880   8.118   0.017  10.732
50681SOL     OW53881   4.701   1.420   7.424
50681SOL    HW153882   4.728   1.346   7.479
50681SOL    HW253883   4.718   1.390   7.335
50682SOL     OW53884   7.327  13.948   4.358
50682SOL    HW153885   7.337  13.874   4.298
50682SOL    HW253886   7.338  14.025   4.303
50683SOL     OW53887   7.489   6.564  13.240
50683SOL    HW153888   7.481   6.589  13.148
50683SOL    HW253889   7.398   6.566  13.273
50684SOL     OW53890   6.089   3.351   6.472
50684SOL    HW153891   6.003   3.341   6.513
50684SOL    HW253892   6.151   3.350   6.545
50685SOL     OW53893  10.266   2.607   1.586
50685SOL    HW153894  10.336   2.671   1.573
50685SOL    HW253895  10.201   2.654   1.639
50686SOL     OW53896  10.075   0.545  11.382
50686SOL    HW153897  10.022   0.503  11.450
50686SOL    HW253898  10.040   0.510  11.300
50687SOL     OW53899   7.702   1.760   7.661
50687SOL    HW153900   7.717   1.775   7.754
50687SOL    HW253901   7.789   1.744   7.625
50688SOL     OW53902   3.897  14.018  11.954
50688SOL    HW153903   3.985  14.001  11.920
50688SOL    HW253904   3.895  13.971  12.037
50689SOL     OW53905   3.947  14.197  10.115
50689SOL    HW153906   3.882  14.249  10.163
50689SOL    HW253907   3.903  14.174  10.033
50690SOL     OW53908   3.229   5.465   8.904
50690SOL    HW153909   3.225   5.407   8.828
50690SOL    HW253910   3.143   5.457   8.946
50691SOL     OW53911  13.190   9.964   2.660
50691SOL    HW153912  13.211   9.885   2.610
50691SOL    HW253913  13.101   9.987   2.632
50692SOL     OW53914   4.865  11.552   7.655
50692SOL    HW153915   4.848  11.499   7.578
50692SOL    HW253916   4.896  11.489   7.721
50693SOL     OW53917  13.593  14.593   6.269
50693SOL    HW153918  13.632  14.528   6.327
50693SOL    HW253919  13.500  14.573   6.268
50694SOL     OW53920   5.720   0.043  14.157
50694SOL    HW153921   5.739  14.829  14.152
50694SOL    HW253922   5.685   0.065  14.071
50695SOL     OW53923  12.096   9.244   9.918
50695SOL    HW153924  12.181   9.287   9.929
50695SOL    HW253925  12.089   9.185   9.992
50696SOL     OW53926   6.070   7.234  13.711
50696SOL    HW153927   6.157   7.241  13.672
50696SOL    HW253928   6.012   7.276  13.648
50697SOL     OW53929   5.377   5.085   3.559
50697SOL    HW153930   5.453   5.070   3.503
50697SOL    HW253931   5.374   5.007   3.616
50698SOL     OW53932  10.973   2.514   5.775
50698SOL    HW153933  10.933   2.461   5.844
50698SOL    HW253934  10.976   2.602   5.811
50699SOL     OW53935   5.236   8.482  12.027
50699SOL    HW153936   5.269   8.396  12.052
50699SOL    HW253937   5.229   8.478  11.931
50700SOL     OW53938   1.866  11.442  10.992
50700SOL    HW153939   1.920  11.419  10.916
50700SOL    HW253940   1.776  11.429  10.962
50701SOL     OW53941   9.773   9.032   1.596
50701SOL    HW153942   9.688   8.988   1.595
50701SOL    HW253943   9.781   9.071   1.509
50702SOL     OW53944   4.674   8.441   3.154
50702SOL    HW153945   4.608   8.509   3.165
50702SOL    HW253946   4.651   8.375   3.219
50703SOL     OW53947   2.426  13.432   3.393
50703SOL    HW153948   2.431  13.368   3.321
50703SOL    HW253949   2.408  13.379   3.471
50704SOL     OW53950   9.315  11.027  11.492
50704SOL    HW153951   9.282  11.033  11.403
50704SOL    HW253952   9.371  10.949  11.491
50705SOL     OW53953  14.226   5.687  12.961
50705SOL    HW153954  14.166   5.716  12.892
50705SOL    HW253955  14.257   5.768  13.001
50706SOL     OW53956   9.125   8.730  12.454
50706SOL    HW153957   9.064   8.668  12.416
50706SOL    HW253958   9.070   8.802  12.485
50707SOL     OW53959  10.673   9.610   8.204
50707SOL    HW153960  10.617   9.619   8.128
50707SOL    HW253961  10.659   9.520   8.234
50708SOL     OW53962   0.088   5.635  12.896
50708SOL    HW153963   0.031   5.688  12.952
50708SOL    HW253964   0.117   5.694  12.828
50709SOL     OW53965   2.789   8.533  10.480
50709SOL    HW153966   2.869   8.525  10.532
50709SOL    HW253967   2.782   8.627  10.462
50710SOL     OW53968   3.243   6.268  10.308
50710SOL    HW153969   3.305   6.333  10.343
50710SOL    HW253970   3.157   6.301  10.334
50711SOL     OW53971   4.691  11.907  11.174
50711SOL    HW153972   4.673  11.817  11.201
50711SOL    HW253973   4.656  11.913  11.085
50712SOL     OW53974  14.712  10.670   9.076
50712SOL    HW153975  14.786  10.722   9.107
50712SOL    HW253976  14.653  10.665   9.151
50713SOL     OW53977  11.095   3.245   5.006
50713SOL    HW153978  11.027   3.312   5.006
50713SOL    HW253979  11.060   3.176   4.950
50714SOL     OW53980  11.725  10.483   2.555
50714SOL    HW153981  11.755  10.555   2.499
50714SOL    HW253982  11.734  10.517   2.644
50715SOL     OW53983   6.884   6.345  11.880
50715SOL    HW153984   6.978   6.342  11.899
50715SOL    HW253985   6.855   6.254  11.888
50716SOL     OW53986   1.738  13.654  14.340
50716SOL    HW153987   1.709  13.563  14.352
50716SOL    HW253988   1.759  13.685  14.428
50717SOL     OW53989  10.501  11.275   6.124
50717SOL    HW153990  10.409  11.276   6.099
50717SOL    HW253991  10.522  11.183   6.136
50718SOL     OW53992   2.161  14.384   8.481
50718SOL    HW153993   2.083  14.437   8.464
50718SOL    HW253994   2.137  14.329   8.556
50719SOL     OW53995  11.130   9.637   2.975
50719SOL    HW153996  11.093   9.719   3.009
50719SOL    HW253997  11.208   9.622   3.028
50720SOL     OW53998   6.389   5.704   3.929
50720SOL    HW153999   6.307   5.743   3.959
50720SOL    HW254000   6.432   5.774   3.880
50721SOL     OW54001   0.027   4.537   3.825
50721SOL    HW154002   0.038   4.588   3.905
50721SOL    HW254003  14.860   4.458   3.853
50722SOL     OW54004   1.961   1.657   0.002
50722SOL    HW154005   1.883   1.705   0.031
50722SOL    HW254006   1.926   1.583  14.831
50723SOL     OW54007   1.050   1.652   2.523
50723SOL    HW154008   0.961   1.687   2.529
50723SOL    HW254009   1.106   1.726   2.544
50724SOL     OW54010   5.310  13.795   0.224
50724SOL    HW154011   5.303  13.829   0.313
50724SOL    HW254012   5.385  13.735   0.228
50725SOL     OW54013   2.803   0.546   9.290
50725SOL    HW154014   2.868   0.595   9.340
50725SOL    HW254015   2.781   0.471   9.345
50726SOL     OW54016   6.166   0.887  14.648
50726SOL    HW154017   6.075   0.869  14.673
50726SOL    HW254018   6.174   0.982  14.656
50727SOL     OW54019  13.421   4.314  10.485
50727SOL    HW154020  13.414   4.346  10.575
50727SOL    HW254021  13.493   4.251  10.488
50728SOL     OW54022  12.459   8.030   8.596
50728SOL    HW154023  12.482   8.041   8.689
50728SOL    HW254024  12.398   8.103   8.579
50729SOL     OW54025   7.507   6.816   9.838
50729SOL    HW154026   7.593   6.823   9.881
50729SOL    HW254027   7.472   6.905   9.841
50730SOL     OW54028   5.809   5.679  13.643
50730SOL    HW154029   5.902   5.692  13.661
50730SOL    HW254030   5.774   5.767  13.631
50731SOL     OW54031  12.115   1.897   9.827
50731SOL    HW154032  12.165   1.835   9.774
50731SOL    HW254033  12.164   1.979   9.822
50732SOL     OW54034   1.098   5.505   2.857
50732SOL    HW154035   1.187   5.537   2.872
50732SOL    HW254036   1.110   5.421   2.813
50733SOL     OW54037   4.200   9.804   7.345
50733SOL    HW154038   4.223   9.715   7.370
50733SOL    HW254039   4.263   9.826   7.276
50734SOL     OW54040   8.770   4.653  10.089
50734SOL    HW154041   8.744   4.743  10.067
50734SOL    HW254042   8.708   4.626  10.156
50735SOL     OW54043   7.963  14.534   8.584
50735SOL    HW154044   7.955  14.448   8.543
50735SOL    HW254045   7.875  14.572   8.576
50736SOL     OW54046   1.968   2.547   0.493
50736SOL    HW154047   1.904   2.497   0.443
50736SOL    HW254048   2.048   2.494   0.488
50737SOL     OW54049   0.146   3.096  13.198
50737SOL    HW154050   0.235   3.083  13.229
50737SOL    HW254051   0.091   3.066  13.271
50738SOL     OW54052   9.779  12.592   9.348
50738SOL    HW154053   9.832  12.661   9.308
50738SOL    HW254054   9.721  12.563   9.278
50739SOL     OW54055  13.319   6.509   2.771
50739SOL    HW154056  13.370   6.453   2.712
50739SOL    HW254057  13.301   6.453   2.847
50740SOL     OW54058   1.546   8.154   1.173
50740SOL    HW154059   1.552   8.061   1.149
50740SOL    HW254060   1.636   8.183   1.180
50741SOL     OW54061   8.333   5.145   7.473
50741SOL    HW154062   8.395   5.094   7.421
50741SOL    HW254063   8.382   5.223   7.500
50742SOL     OW54064  12.613  12.068   1.018
50742SOL    HW154065  12.549  12.091   1.086
50742SOL    HW254066  12.562  12.068   0.937
50743SOL     OW54067   0.232   9.244   3.626
50743SOL    HW154068   0.151   9.218   3.582
50743SOL    HW254069   0.275   9.304   3.565
50744SOL     OW54070   0.750   3.232  14.146
50744SOL    HW154071   0.814   3.303  14.142
50744SOL    HW254072   0.687   3.260  14.213
50745SOL     OW54073   1.240  12.094  13.904
50745SOL    HW154074   1.309  12.088  13.837
50745SOL    HW254075   1.265  12.029  13.969
50746SOL     OW54076  11.222   6.782  12.276
50746SOL    HW154077  11.167   6.720  12.227
50746SOL    HW254078  11.307   6.738  12.283
50747SOL     OW54079  13.411   0.575  12.303
50747SOL    HW154080  13.413   0.520  12.381
50747SOL    HW254081  13.390   0.663  12.336
50748SOL     OW54082   4.006   4.617   2.763
50748SOL    HW154083   3.990   4.700   2.807
50748SOL    HW254084   3.920   4.586   2.736
50749SOL     OW54085   3.492  10.964   8.948
50749SOL    HW154086   3.566  10.996   9.000
50749SOL    HW254087   3.414  10.992   8.995
50750SOL     OW54088   6.456   5.120   6.571
50750SOL    HW154089   6.548   5.119   6.543
50750SOL    HW254090   6.460   5.101   6.665
50751SOL     OW54091   6.483  11.120  10.004
50751SOL    HW154092   6.426  11.057   9.960
50751SOL    HW254093   6.571  11.085   9.993
50752SOL     OW54094   4.311   2.915   9.837
50752SOL    HW154095   4.257   2.954   9.769
50752SOL    HW254096   4.350   2.990   9.882
50753SOL     OW54097  11.320   3.408   7.373
50753SOL    HW154098  11.235   3.439   7.407
50753SOL    HW254099  11.375   3.487   7.372
50754SOL     OW54100   0.758   8.491  14.568
50754SOL    HW154101   0.694   8.420  14.558
50754SOL    HW254102   0.843   8.447  14.569
50755SOL     OW54103  14.116   1.186   8.802
50755SOL    HW154104  14.123   1.178   8.897
50755SOL    HW254105  14.171   1.261   8.779
50756SOL     OW54106   4.815  12.362   7.688
50756SOL    HW154107   4.720  12.359   7.687
50756SOL    HW254108   4.837  12.402   7.772
50757SOL     OW54109  12.025   1.709   2.536
50757SOL    HW154110  11.933   1.730   2.518
50757SOL    HW254111  12.057   1.782   2.588
50758SOL     OW54112   8.618   1.474   5.835
50758SOL    HW154113   8.534   1.514   5.813
50758SOL    HW254114   8.610   1.453   5.929
50759SOL     OW54115   5.105   1.020   5.554
50759SOL    HW154116   5.030   0.971   5.587
50759SOL    HW254117   5.095   1.020   5.459
50760SOL     OW54118   1.321   8.375   5.529
50760SOL    HW154119   1.230   8.392   5.551
50760SOL    HW254120   1.322   8.284   5.499
50761SOL     OW54121   2.346  10.572  14.039
50761SOL    HW154122   2.326  10.620  14.119
50761SOL    HW254123   2.290  10.613  13.973
50762SOL     OW54124  11.120  14.190   5.866
50762SOL    HW154125  11.150  14.154   5.783
50762SOL    HW254126  11.121  14.117   5.927
50763SOL     OW54127   0.130  13.352   1.142
50763SOL    HW154128   0.179  13.434   1.133
50763SOL    HW254129   0.044  13.371   1.105
50764SOL     OW54130   2.178  11.041  11.469
50764SOL    HW154131   2.165  10.947  11.462
50764SOL    HW254132   2.107  11.079  11.417
50765SOL     OW54133   5.891   5.845   0.043
50765SOL    HW154134   5.806   5.849  14.879
50765SOL    HW254135   5.878   5.780   0.113
50766SOL     OW54136   4.168   7.996   6.095
50766SOL    HW154137   4.177   7.934   6.022
50766SOL    HW254138   4.142   7.942   6.169
50767SOL     OW54139   2.032   7.314   7.946
50767SOL    HW154140   2.065   7.284   7.862
50767SOL    HW254141   1.948   7.356   7.925
50768SOL     OW54142   2.497   4.532   0.103
50768SOL    HW154143   2.435   4.567   0.167
50768SOL    HW254144   2.442   4.487   0.039
50769SOL     OW54145  12.921   7.031   6.189
50769SOL    HW154146  12.856   6.969   6.221
50769SOL    HW254147  12.906   7.110   6.241
50770SOL     OW54148   4.726   3.574   4.957
50770SOL    HW154149   4.805   3.534   4.991
50770SOL    HW254150   4.685   3.617   5.032
50771SOL     OW54151   5.040   1.301   7.557
50771SOL    HW154152   5.105   1.319   7.626
50771SOL    HW254153   4.957   1.296   7.604
50772SOL     OW54154   1.324  11.493   4.922
50772SOL    HW154155   1.362  11.463   5.004
50772SOL    HW254156   1.249  11.546   4.948
50773SOL     OW54157   4.407  13.041   2.785
50773SOL    HW154158   4.481  13.098   2.770
50773SOL    HW254159   4.377  13.063   2.874
50774SOL     OW54160   1.571   7.650   1.491
50774SOL    HW154161   1.664   7.660   1.471
50774SOL    HW254162   1.546   7.568   1.447
50775SOL     OW54163   3.547  11.450   0.014
50775SOL    HW154164   3.549  11.456  14.798
50775SOL    HW254165   3.466  11.496   0.039
50776SOL     OW54166   9.008   2.328   6.484
50776SOL    HW154167   9.027   2.421   6.480
50776SOL    HW254168   9.001   2.309   6.578
50777SOL     OW54169   5.465   8.270  13.738
50777SOL    HW154170   5.519   8.330  13.686
50777SOL    HW254171   5.515   8.189  13.740
50778SOL     OW54172   4.601   1.176   0.430
50778SOL    HW154173   4.611   1.264   0.466
50778SOL    HW254174   4.508   1.155   0.442
50779SOL     OW54175   6.548   2.929  10.330
50779SOL    HW154176   6.465   2.924  10.377
50779SOL    HW254177   6.572   2.837  10.315
50780SOL     OW54178   8.440   8.278   8.926
50780SOL    HW154179   8.443   8.183   8.937
50780SOL    HW254180   8.368   8.293   8.866
50781SOL     OW54181  12.458   5.337   4.263
50781SOL    HW154182  12.518   5.263   4.259
50781SOL    HW254183  12.513   5.412   4.287
50782SOL     OW54184   7.593   1.378   7.969
50782SOL    HW154185   7.522   1.314   7.972
50782SOL    HW254186   7.549   1.462   7.959
50783SOL     OW54187   7.369   0.869  12.626
50783SOL    HW154188   7.353   0.908  12.540
50783SOL    HW254189   7.400   0.781  12.607
50784SOL     OW54190   3.041  12.490   0.140
50784SOL    HW154191   3.050  12.467   0.048
50784SOL    HW254192   3.127  12.525   0.165
50785SOL     OW54193   8.643   8.643   2.797
50785SOL    HW154194   8.657   8.664   2.889
50785SOL    HW254195   8.559   8.683   2.775
50786SOL     OW54196  12.926  13.941   4.676
50786SOL    HW154197  12.839  13.976   4.695
50786SOL    HW254198  12.914  13.893   4.594
50787SOL     OW54199  10.448   5.347   0.395
50787SOL    HW154200  10.457   5.330   0.301
50787SOL    HW254201  10.438   5.442   0.402
50788SOL     OW54202   9.199   7.658  12.766
50788SOL    HW154203   9.128   7.654  12.830
50788SOL    HW254204   9.162   7.617  12.687
50789SOL     OW54205  14.446   0.198   5.922
50789SOL    HW154206  14.470   0.232   6.008
50789SOL    HW254207  14.385   0.127   5.941
50790SOL     OW54208   7.585   0.595  14.253
50790SOL    HW154209   7.525   0.585  14.326
50790SOL    HW254210   7.671   0.608  14.294
50791SOL     OW54211   9.252  12.149   4.496
50791SOL    HW154212   9.207  12.231   4.515
50791SOL    HW254213   9.319  12.173   4.432
50792SOL     OW54214   9.690   3.691   1.613
50792SOL    HW154215   9.693   3.786   1.627
50792SOL    HW254216   9.675   3.681   1.519
50793SOL     OW54217  12.321   5.826   8.300
50793SOL    HW154218  12.226   5.835   8.295
50793SOL    HW254219  12.341   5.748   8.249
50794SOL     OW54220  12.308  14.450   7.199
50794SOL    HW154221  12.249  14.462   7.273
50794SOL    HW254222  12.327  14.538   7.168
50795SOL     OW54223  13.516   4.929   1.384
50795SOL    HW154224  13.444   4.884   1.426
50795SOL    HW254225  13.575   4.859   1.355
50796SOL     OW54226   5.260   1.641   6.501
50796SOL    HW154227   5.299   1.556   6.519
50796SOL    HW254228   5.279   1.658   6.409
50797SOL     OW54229   7.200   3.962  13.573
50797SOL    HW154230   7.218   4.008  13.491
50797SOL    HW254231   7.122   3.908  13.554
50798SOL     OW54232   7.693   5.071  14.845
50798SOL    HW154233   7.713   4.998   0.024
50798SOL    HW254234   7.728   5.044  14.760
50799SOL     OW54235   8.447   8.991   1.752
50799SOL    HW154236   8.527   9.041   1.737
50799SOL    HW254237   8.420   9.015   1.841
50800SOL     OW54238   7.953   0.261   8.760
50800SOL    HW154239   7.930   0.197   8.828
50800SOL    HW254240   8.022   0.219   8.710
50801SOL     OW54241  11.262   1.521  12.181
50801SOL    HW154242  11.194   1.472  12.135
50801SOL    HW254243  11.214   1.591  12.226
50802SOL     OW54244   5.333  11.139  12.939
50802SOL    HW154245   5.249  11.120  12.897
50802SOL    HW254246   5.314  11.134  13.033
50803SOL     OW54247  11.056  13.568   2.347
50803SOL    HW154248  11.122  13.578   2.415
50803SOL    HW254249  11.086  13.493   2.295
50804SOL     OW54250   9.766  14.847   3.827
50804SOL    HW154251   9.716  14.814   3.753
50804SOL    HW254252   9.814   0.043   3.793
50805SOL     OW54253   2.205   4.351   0.304
50805SOL    HW154254   2.237   4.351   0.214
50805SOL    HW254255   2.185   4.443   0.322
50806SOL     OW54256  12.348   0.017   0.201
50806SOL    HW154257  12.368  14.803   0.196
50806SOL    HW254258  12.368   0.040   0.292
50807SOL     OW54259   1.464  11.544   1.240
50807SOL    HW154260   1.488  11.487   1.313
50807SOL    HW254261   1.531  11.613   1.240
50808SOL     OW54262   3.593  11.845   4.410
50808SOL    HW154263   3.506  11.833   4.374
50808SOL    HW254264   3.578  11.878   4.499
50809SOL     OW54265   2.699  13.654   2.231
50809SOL    HW154266   2.619  13.613   2.264
50809SOL    HW254267   2.740  13.587   2.175
50810SOL     OW54268   1.348   8.031  13.644
50810SOL    HW154269   1.275   8.090  13.660
50810SOL    HW254270   1.312   7.943  13.658
50811SOL     OW54271  10.702  10.607   4.985
50811SOL    HW154272  10.736  10.618   5.074
50811SOL    HW254273  10.652  10.687   4.968
50812SOL     OW54274  12.374  14.477  12.302
50812SOL    HW154275  12.326  14.504  12.380
50812SOL    HW254276  12.311  14.428  12.250
50813SOL     OW54277   4.556  12.235   5.595
50813SOL    HW154278   4.560  12.141   5.578
50813SOL    HW254279   4.626  12.272   5.541
50814SOL     OW54280  11.008  10.013   5.445
50814SOL    HW154281  10.919   9.980   5.455
50814SOL    HW254282  11.007  10.056   5.359
50815SOL     OW54283  13.423   8.557   9.037
50815SOL    HW154284  13.355   8.564   8.971
50815SOL    HW254285  13.376   8.562   9.120
50816SOL     OW54286   6.521   7.172   3.722
50816SOL    HW154287   6.517   7.078   3.739
50816SOL    HW254288   6.549   7.210   3.806
50817SOL     OW54289  12.226   6.137  12.406
50817SOL    HW154290  12.242   6.140  12.312
50817SOL    HW254291  12.240   6.046  12.431
50818SOL     OW54292   5.415  11.158   3.788
50818SOL    HW154293   5.413  11.252   3.805
50818SOL    HW254294   5.350  11.121   3.847
50819SOL     OW54295   5.302  13.053   7.622
50819SOL    HW154296   5.238  13.124   7.628
50819SOL    HW254297   5.341  13.049   7.710
50820SOL     OW54298   9.078  14.624   4.145
50820SOL    HW154299   8.986  14.644   4.127
50820SOL    HW254300   9.081  14.529   4.153
50821SOL     OW54301   4.585  13.878  14.602
50821SOL    HW154302   4.496  13.905  14.579
50821SOL    HW254303   4.629  13.864  14.519
50822SOL     OW54304   9.696   0.710   1.571
50822SOL    HW154305   9.734   0.766   1.638
50822SOL    HW254306   9.693   0.623   1.611
50823SOL     OW54307  14.864  10.257  12.427
50823SOL    HW154308  14.782  10.210  12.447
50823SOL    HW254309  14.842  10.313  12.352
50824SOL     OW54310   8.125  12.803   2.660
50824SOL    HW154311   8.127  12.788   2.566
50824SOL    HW254312   8.070  12.733   2.695
50825SOL     OW54313   3.584   0.582   4.677
50825SOL    HW154314   3.595   0.508   4.736
50825SOL    HW254315   3.505   0.562   4.627
50826SOL     OW54316   3.636   9.724   5.144
50826SOL    HW154317   3.635   9.816   5.172
50826SOL    HW254318   3.726   9.709   5.115
50827SOL     OW54319  13.071   1.502   4.483
50827SOL    HW154320  13.033   1.578   4.438
50827SOL    HW254321  13.079   1.435   4.415
50828SOL     OW54322   6.696  13.703   5.928
50828SOL    HW154323   6.757  13.721   5.999
50828SOL    HW254324   6.625  13.654   5.969
50829SOL     OW54325  10.567  11.263   1.895
50829SOL    HW154326  10.513  11.206   1.949
50829SOL    HW254327  10.511  11.288   1.821
50830SOL     OW54328   8.574   8.082   6.474
50830SOL    HW154329   8.502   8.146   6.472
50830SOL    HW254330   8.645   8.128   6.518
50831SOL     OW54331   6.274  13.129  10.891
50831SOL    HW154332   6.266  13.140  10.986
50831SOL    HW254333   6.324  13.205  10.862
50832SOL     OW54334  12.627  12.879   5.288
50832SOL    HW154335  12.642  12.835   5.204
50832SOL    HW254336  12.532  12.890   5.292
50833SOL     OW54337   6.682   8.699  13.726
50833SOL    HW154338   6.767   8.709  13.683
50833SOL    HW254339   6.629   8.771  13.692
50834SOL     OW54340   9.882   9.670  14.556
50834SOL    HW154341   9.869   9.599  14.618
50834SOL    HW254342   9.855   9.749  14.603
50835SOL     OW54343   2.989   3.678  12.714
50835SOL    HW154344   2.917   3.682  12.776
50835SOL    HW254345   3.060   3.726  12.756
50836SOL     OW54346  13.360  11.897  14.481
50836SOL    HW154347  13.338  11.951  14.405
50836SOL    HW254348  13.399  11.818  14.443
50837SOL     OW54349  12.357   2.410  11.734
50837SOL    HW154350  12.271   2.379  11.764
50837SOL    HW254351  12.341   2.498  11.702
50838SOL     OW54352   9.261  11.278  12.371
50838SOL    HW154353   9.324  11.350  12.366
50838SOL    HW254354   9.293  11.214  12.307
50839SOL     OW54355  12.219   7.107  13.097
50839SOL    HW154356  12.226   7.091  13.003
50839SOL    HW254357  12.124   7.109  13.114
50840SOL     OW54358   4.461   6.294   8.314
50840SOL    HW154359   4.411   6.373   8.294
50840SOL    HW254360   4.423   6.263   8.397
50841SOL     OW54361  12.403   1.808   6.912
50841SOL    HW154362  12.495   1.823   6.935
50841SOL    HW254363  12.398   1.834   6.820
50842SOL     OW54364   6.411  12.516   4.804
50842SOL    HW154365   6.465  12.442   4.778
50842SOL    HW254366   6.350  12.529   4.731
50843SOL     OW54367   1.151   6.480   7.574
50843SOL    HW154368   1.169   6.456   7.483
50843SOL    HW254369   1.153   6.396   7.621
50844SOL     OW54370   7.635  13.900  13.768
50844SOL    HW154371   7.622  13.810  13.739
50844SOL    HW254372   7.548  13.931  13.793
50845SOL     OW54373   4.903   8.666   5.570
50845SOL    HW154374   4.940   8.638   5.654
50845SOL    HW254375   4.978   8.670   5.511
50846SOL     OW54376  10.609   5.006   3.809
50846SOL    HW154377  10.642   4.921   3.837
50846SOL    HW254378  10.685   5.051   3.775
50847SOL     OW54379  11.079   8.189   3.462
50847SOL    HW154380  11.097   8.208   3.554
50847SOL    HW254381  11.114   8.101   3.448
50848SOL     OW54382  13.087   0.935  11.412
50848SOL    HW154383  13.081   1.015  11.464
50848SOL    HW254384  13.030   0.951  11.336
50849SOL     OW54385  10.445   3.863   1.336
50849SOL    HW154386  10.427   3.948   1.376
50849SOL    HW254387  10.524   3.878   1.283
50850SOL     OW54388   7.739  13.979   8.984
50850SOL    HW154389   7.800  14.053   8.980
50850SOL    HW254390   7.790  13.905   8.953
50851SOL     OW54391   5.401  11.148  14.729
50851SOL    HW154392   5.496  11.140  14.741
50851SOL    HW254393   5.364  11.107  14.808
50852SOL     OW54394   9.571   1.221  11.717
50852SOL    HW154395   9.495   1.180  11.757
50852SOL    HW254396   9.535   1.284  11.655
50853SOL     OW54397   3.708   6.419  14.103
50853SOL    HW154398   3.753   6.474  14.038
50853SOL    HW254399   3.700   6.333  14.060
50854SOL     OW54400  10.655  11.838   1.017
50854SOL    HW154401  10.724  11.791   1.063
50854SOL    HW254402  10.580  11.835   1.076
50855SOL     OW54403  10.620   6.050  10.254
50855SOL    HW154404  10.695   6.088  10.298
50855SOL    HW254405  10.545   6.073  10.310
50856SOL     OW54406   7.041  14.350   3.131
50856SOL    HW154407   7.049  14.356   3.227
50856SOL    HW254408   7.081  14.266   3.109
50857SOL     OW54409   0.829   1.051   4.380
50857SOL    HW154410   0.841   1.138   4.418
50857SOL    HW254411   0.740   1.026   4.405
50858SOL     OW54412  11.411   1.675   0.124
50858SOL    HW154413  11.444   1.590   0.094
50858SOL    HW254414  11.424   1.734   0.050
50859SOL     OW54415  10.374   6.290   6.646
50859SOL    HW154416  10.282   6.284   6.671
50859SOL    HW254417  10.380   6.371   6.594
50860SOL     OW54418   1.530   9.414   3.234
50860SOL    HW154419   1.605   9.465   3.207
50860SOL    HW254420   1.488   9.386   3.153
50861SOL     OW54421   8.400   5.888   1.780
50861SOL    HW154422   8.319   5.939   1.775
50861SOL    HW254423   8.462   5.936   1.724
50862SOL     OW54424   6.504   7.908   2.223
50862SOL    HW154425   6.484   8.001   2.222
50862SOL    HW254426   6.580   7.898   2.165
50863SOL     OW54427  10.738   0.286   2.400
50863SOL    HW154428  10.785   0.358   2.359
50863SOL    HW254429  10.797   0.211   2.394
50864SOL     OW54430  12.236  11.751   2.282
50864SOL    HW154431  12.189  11.835   2.284
50864SOL    HW254432  12.287  11.750   2.364
50865SOL     OW54433   5.232   6.903   9.937
50865SOL    HW154434   5.302   6.861   9.886
50865SOL    HW254435   5.173   6.939   9.871
50866SOL     OW54436  12.088  11.823   4.579
50866SOL    HW154437  12.174  11.864   4.574
50866SOL    HW254438  12.037  11.879   4.637
50867SOL     OW54439  10.419  11.381  13.504
50867SOL    HW154440  10.420  11.385  13.409
50867SOL    HW254441  10.495  11.326  13.526
50868SOL     OW54442   8.611  13.286  14.370
50868SOL    HW154443   8.548  13.288  14.298
50868SOL    HW254444   8.630  13.378  14.387
50869SOL     OW54445   2.229   2.581   8.636
50869SOL    HW154446   2.174   2.660   8.643
50869SOL    HW254447   2.300   2.597   8.698
50870SOL     OW54448   8.844   0.185   5.593
50870SOL    HW154449   8.758   0.144   5.590
50870SOL    HW254450   8.889   0.141   5.666
50871SOL     OW54451  10.064   5.591  11.536
50871SOL    HW154452  10.127   5.530  11.498
50871SOL    HW254453   9.997   5.600  11.469
50872SOL     OW54454   6.795  13.411   1.800
50872SOL    HW154455   6.780  13.417   1.706
50872SOL    HW254456   6.711  13.436   1.839
50873SOL     OW54457  13.647   6.756   1.181
50873SOL    HW154458  13.723   6.713   1.143
50873SOL    HW254459  13.579   6.689   1.184
50874SOL     OW54460   3.369  12.881   0.170
50874SOL    HW154461   3.304  12.899   0.238
50874SOL    HW254462   3.445  12.848   0.218
50875SOL     OW54463   6.314   7.298   7.732
50875SOL    HW154464   6.332   7.390   7.713
50875SOL    HW254465   6.304   7.258   7.646
50876SOL     OW54466   7.522   2.449  10.489
50876SOL    HW154467   7.437   2.476  10.525
50876SOL    HW254468   7.512   2.462  10.395
50877SOL     OW54469   7.951   1.549  10.105
50877SOL    HW154470   7.931   1.631  10.149
50877SOL    HW254471   7.875   1.493  10.122
50878SOL     OW54472  13.149   4.625   9.787
50878SOL    HW154473  13.193   4.546   9.754
50878SOL    HW254474  13.130   4.676   9.708
50879SOL     OW54475   0.476   8.834   7.528
50879SOL    HW154476   0.458   8.829   7.434
50879SOL    HW254477   0.512   8.748   7.550
50880SOL     OW54478   7.746   3.627   5.068
50880SOL    HW154479   7.825   3.650   5.117
50880SOL    HW254480   7.779   3.582   4.990
50881SOL     OW54481   7.570  14.682   1.608
50881SOL    HW154482   7.594  14.675   1.700
50881SOL    HW254483   7.640  14.636   1.561
50882SOL     OW54484   2.569   9.313  12.532
50882SOL    HW154485   2.569   9.315  12.437
50882SOL    HW254486   2.559   9.220  12.554
50883SOL     OW54487  10.460   3.575   5.912
50883SOL    HW154488  10.486   3.661   5.878
50883SOL    HW254489  10.435   3.525   5.835
50884SOL     OW54490   6.705   8.852   9.274
50884SOL    HW154491   6.768   8.785   9.248
50884SOL    HW254492   6.706   8.849   9.370
50885SOL     OW54493  14.270  12.894   8.714
50885SOL    HW154494  14.278  12.832   8.641
50885SOL    HW254495  14.184  12.934   8.702
50886SOL     OW54496   3.727   0.046   0.759
50886SOL    HW154497   3.717   0.137   0.786
50886SOL    HW254498   3.654   0.030   0.699
50887SOL     OW54499   7.345   9.936   1.172
50887SOL    HW154500   7.342   9.895   1.258
50887SOL    HW254501   7.437   9.958   1.158
50888SOL     OW54502   8.827   8.963   2.867
50888SOL    HW154503   8.876   8.999   2.941
50888SOL    HW254504   8.889   8.907   2.821
50889SOL     OW54505  12.774  10.339   7.115
50889SOL    HW154506  12.809  10.427   7.107
50889SOL    HW254507  12.824  10.299   7.186
50890SOL     OW54508   9.141   3.420   1.188
50890SOL    HW154509   9.151   3.438   1.095
50890SOL    HW254510   9.224   3.379   1.213
50891SOL     OW54511  12.091  11.462   6.420
50891SOL    HW154512  12.119  11.373   6.401
50891SOL    HW254513  11.999  11.465   6.396
50892SOL     OW54514  13.174  10.166   2.076
50892SOL    HW154515  13.122  10.158   1.996
50892SOL    HW254516  13.120  10.219   2.134
50893SOL     OW54517  13.370  13.741  14.003
50893SOL    HW154518  13.424  13.725  14.081
50893SOL    HW254519  13.427  13.717  13.930
50894SOL     OW54520  13.527   9.984   2.502
50894SOL    HW154521  13.466  10.047   2.541
50894SOL    HW254522  13.475   9.938   2.435
50895SOL     OW54523   8.948   2.544   6.672
50895SOL    HW154524   8.857   2.516   6.680
50895SOL    HW254525   8.951   2.592   6.590
50896SOL     OW54526   5.299   7.664   3.719
50896SOL    HW154527   5.228   7.717   3.683
50896SOL    HW254528   5.336   7.719   3.789
50897SOL     OW54529   2.668   6.178  13.650
50897SOL    HW154530   2.603   6.245  13.670
50897SOL    HW254531   2.749   6.212  13.686
50898SOL     OW54532   6.523   5.715   1.890
50898SOL    HW154533   6.516   5.719   1.795
50898SOL    HW254534   6.591   5.778   1.912
50899SOL     OW54535   2.888   7.485   6.879
50899SOL    HW154536   2.946   7.533   6.820
50899SOL    HW254537   2.932   7.488   6.964
50900SOL     OW54538   1.728   6.544  10.539
50900SOL    HW154539   1.745   6.637  10.529
50900SOL    HW254540   1.798   6.512  10.595
50901SOL     OW54541  13.138   5.558   4.277
50901SOL    HW154542  13.103   5.480   4.320
50901SOL    HW254543  13.190   5.525   4.204
50902SOL     OW54544   3.473   1.014   4.557
50902SOL    HW154545   3.505   0.992   4.645
50902SOL    HW254546   3.541   0.981   4.498
50903SOL     OW54547   6.734   9.443   1.363
50903SOL    HW154548   6.687   9.457   1.445
50903SOL    HW254549   6.672   9.469   1.295
50904SOL     OW54550  14.536   6.304   3.407
50904SOL    HW154551  14.594   6.288   3.481
50904SOL    HW254552  14.592   6.345   3.341
50905SOL     OW54553   8.370   8.586   9.989
50905SOL    HW154554   8.389   8.524  10.060
50905SOL    HW254555   8.331   8.533   9.920
50906SOL     OW54556   4.172   7.842  14.538
50906SOL    HW154557   4.169   7.867  14.630
50906SOL    HW254558   4.159   7.924  14.490
50907SOL     OW54559  14.070  10.313   5.289
50907SOL    HW154560  14.126  10.373   5.241
50907SOL    HW254561  14.130  10.265   5.346
50908SOL     OW54562   7.766  10.142  13.474
50908SOL    HW154563   7.670  10.148  13.472
50908SOL    HW254564   7.785  10.090  13.552
50909SOL     OW54565   9.655   4.582  10.746
50909SOL    HW154566   9.734   4.531  10.729
50909SOL    HW254567   9.666   4.616  10.834
50910SOL     OW54568   2.518   8.743   9.014
50910SOL    HW154569   2.484   8.829   9.037
50910SOL    HW254570   2.542   8.704   9.099
50911SOL     OW54571   8.531  10.904  10.700
50911SOL    HW154572   8.518  10.856  10.781
50911SOL    HW254573   8.469  10.864  10.638
50912SOL     OW54574   3.739   7.386   6.252
50912SOL    HW154575   3.772   7.303   6.218
50912SOL    HW254576   3.668   7.361   6.311
50913SOL     OW54577   8.686  14.700   9.775
50913SOL    HW154578   8.778  14.675   9.786
50913SOL    HW254579   8.643  14.618   9.750
50914SOL     OW54580  14.038  11.545  10.676
50914SOL    HW154581  13.958  11.497  10.696
50914SOL    HW254582  14.108  11.480  10.681
50915SOL     OW54583   2.827  13.011  10.626
50915SOL    HW154584   2.796  13.037  10.713
50915SOL    HW254585   2.835  12.916  10.630
50916SOL     OW54586   2.960  12.922  12.833
50916SOL    HW154587   3.019  12.858  12.873
50916SOL    HW254588   2.872  12.887  12.850
50917SOL     OW54589  10.320  10.184  13.306
50917SOL    HW154590  10.410  10.216  13.301
50917SOL    HW254591  10.300  10.152  13.218
50918SOL     OW54592   7.704   1.932   9.036
50918SOL    HW154593   7.682   1.964   9.123
50918SOL    HW254594   7.757   1.854   9.051
50919SOL     OW54595   6.122   7.074  10.559
50919SOL    HW154596   6.155   7.155  10.597
50919SOL    HW254597   6.194   7.041  10.505
50920SOL     OW54598  13.470   6.067  13.504
50920SOL    HW154599  13.553   6.045  13.462
50920SOL    HW254600  13.463   6.007  13.578
50921SOL     OW54601   0.968   5.816   9.495
50921SOL    HW154602   0.976   5.786   9.405
50921SOL    HW254603   0.966   5.736   9.547
50922SOL     OW54604   1.768   5.186   6.232
50922SOL    HW154605   1.818   5.265   6.255
50922SOL    HW254606   1.809   5.116   6.283
50923SOL     OW54607  11.596   5.205   3.756
50923SOL    HW154608  11.506   5.224   3.732
50923SOL    HW254609  11.606   5.111   3.738
50924SOL     OW54610  13.991  13.274   9.924
50924SOL    HW154611  14.087  13.275   9.924
50924SOL    HW254612  13.967  13.292  10.014
50925SOL     OW54613   4.488   4.342   9.124
50925SOL    HW154614   4.551   4.301   9.065
50925SOL    HW254615   4.442   4.268   9.164
50926SOL     OW54616   2.965   8.493   6.957
50926SOL    HW154617   3.036   8.528   6.903
50926SOL    HW254618   2.930   8.570   7.003
50927SOL     OW54619   2.526   9.609  11.947
50927SOL    HW154620   2.487   9.604  11.860
50927SOL    HW254621   2.561   9.698  11.952
50928SOL     OW54622   4.846   8.028   9.050
50928SOL    HW154623   4.824   7.942   9.085
50928SOL    HW254624   4.911   8.063   9.112
50929SOL     OW54625   3.830   3.941   1.450
50929SOL    HW154626   3.740   3.951   1.479
50929SOL    HW254627   3.879   4.009   1.498
50930SOL     OW54628   0.051   1.764  14.216
50930SOL    HW154629   0.147   1.770  14.224
50930SOL    HW254630   0.024   1.719  14.296
50931SOL     OW54631   9.326   1.237  12.390
50931SOL    HW154632   9.354   1.324  12.363
50931SOL    HW254633   9.263   1.252  12.460
50932SOL     OW54634   7.562   7.069   7.285
50932SOL    HW154635   7.558   7.164   7.295
50932SOL    HW254636   7.473   7.038   7.302
50933SOL     OW54637  10.735   2.600  13.210
50933SOL    HW154638  10.675   2.617  13.282
50933SOL    HW254639  10.806   2.664  13.222
50934SOL     OW54640   0.102  14.575   8.022
50934SOL    HW154641   0.011  14.601   8.013
50934SOL    HW254642   0.152  14.653   7.997
50935SOL     OW54643  10.970   7.024   1.617
50935SOL    HW154644  10.977   6.973   1.697
50935SOL    HW254645  10.902   7.089   1.636
50936SOL     OW54646  12.819   0.958   8.064
50936SOL    HW154647  12.854   0.940   7.977
50936SOL    HW254648  12.724   0.946   8.054
50937SOL     OW54649   6.268  14.485  10.843
50937SOL    HW154650   6.172  14.483  10.839
50937SOL    HW254651   6.295  14.394  10.831
50938SOL     OW54652   0.673  12.466   2.048
50938SOL    HW154653   0.695  12.526   1.977
50938SOL    HW254654   0.616  12.517   2.106
50939SOL     OW54655   9.698   1.050  10.808
50939SOL    HW154656   9.784   1.090  10.822
50939SOL    HW254657   9.637   1.105  10.857
50940SOL     OW54658  11.424   0.386  10.484
50940SOL    HW154659  11.444   0.301  10.445
50940SOL    HW254660  11.494   0.401  10.548
50941SOL     OW54661  13.474  14.099   7.533
50941SOL    HW154662  13.404  14.087   7.469
50941SOL    HW254663  13.463  14.028   7.596
50942SOL     OW54664   4.752   5.963  14.567
50942SOL    HW154665   4.662   5.992  14.579
50942SOL    HW254666   4.805   6.039  14.593
50943SOL     OW54667   3.577   8.864  14.758
50943SOL    HW154668   3.589   8.792  14.697
50943SOL    HW254669   3.621   8.836  14.838
50944SOL     OW54670   0.116   5.577  11.192
50944SOL    HW154671   0.131   5.665  11.157
50944SOL    HW254672   0.031   5.583  11.235
50945SOL     OW54673   4.689   5.528   2.227
50945SOL    HW154674   4.767   5.480   2.201
50945SOL    HW254675   4.616   5.474   2.198
50946SOL     OW54676  12.136   4.068   4.168
50946SOL    HW154677  12.168   4.116   4.091
50946SOL    HW254678  12.060   4.020   4.136
50947SOL     OW54679   8.548  12.589   1.738
50947SOL    HW154680   8.487  12.516   1.742
50947SOL    HW254681   8.493  12.667   1.745
50948SOL     OW54682   8.096   4.025   4.335
50948SOL    HW154683   8.132   4.090   4.274
50948SOL    HW254684   8.087   4.072   4.418
50949SOL     OW54685   7.011   0.519   4.026
50949SOL    HW154686   6.967   0.454   4.080
50949SOL    HW254687   6.946   0.545   3.961
50950SOL     OW54688   0.097  14.814   2.356
50950SOL    HW154689   0.080   0.005   2.293
50950SOL    HW254690   0.126  14.859   2.435
50951SOL     OW54691   9.663   6.536   4.855
50951SOL    HW154692   9.719   6.474   4.808
50951SOL    HW254693   9.639   6.491   4.936
50952SOL     OW54694  12.682   3.732   6.002
50952SOL    HW154695  12.752   3.727   6.067
50952SOL    HW254696  12.703   3.662   5.940
50953SOL     OW54697   1.028  13.848   2.380
50953SOL    HW154698   1.008  13.814   2.293
50953SOL    HW254699   0.942  13.865   2.419
50954SOL     OW54700   2.097   2.744   0.620
50954SOL    HW154701   2.029   2.788   0.672
50954SOL    HW254702   2.050   2.676   0.572
50955SOL     OW54703  14.744   2.586  10.696
50955SOL    HW154704  14.748   2.515  10.632
50955SOL    HW254705  14.816   2.644  10.672
50956SOL     OW54706   8.644  10.289  10.693
50956SOL    HW154707   8.676  10.294  10.783
50956SOL    HW254708   8.644  10.195  10.674
50957SOL     OW54709   3.954  12.669  14.854
50957SOL    HW154710   3.971  12.612  14.778
50957SOL    HW254711   4.039  12.708  14.874
50958SOL     OW54712   9.088  11.586  10.252
50958SOL    HW154713   9.167  11.541  10.283
50958SOL    HW254714   9.032  11.517  10.219
50959SOL     OW54715   8.677   1.160   8.139
50959SOL    HW154716   8.737   1.090   8.113
50959SOL    HW254717   8.731   1.239   8.137
50960SOL     OW54718  13.570  14.876  14.735
50960SOL    HW154719  13.653   0.026  14.698
50960SOL    HW254720  13.570   0.030  14.825
50961SOL     OW54721   5.638   0.649   8.653
50961SOL    HW154722   5.552   0.680   8.625
50961SOL    HW254723   5.698   0.680   8.585
50962SOL     OW54724  13.804  14.210   3.340
50962SOL    HW154725  13.838  14.254   3.261
50962SOL    HW254726  13.719  14.251   3.355
50963SOL     OW54727   0.631  10.420   8.734
50963SOL    HW154728   0.554  10.475   8.721
50963SOL    HW254729   0.696  10.455   8.673
50964SOL     OW54730  11.928   0.875   2.064
50964SOL    HW154731  11.953   0.957   2.106
50964SOL    HW254732  11.834   0.867   2.079
50965SOL     OW54733   9.019   8.759   9.169
50965SOL    HW154734   8.951   8.747   9.234
50965SOL    HW254735   8.973   8.788   9.090
50966SOL     OW54736   2.876  13.789  11.678
50966SOL    HW154737   2.857  13.866  11.731
50966SOL    HW254738   2.799  13.733  11.688
50967SOL     OW54739  11.233  12.509   4.382
50967SOL    HW154740  11.318  12.505   4.338
50967SOL    HW254741  11.192  12.425   4.361
50968SOL     OW54742   5.732  11.333  12.196
50968SOL    HW154743   5.715  11.402  12.260
50968SOL    HW254744   5.711  11.252  12.242
50969SOL     OW54745   7.657  14.212   3.674
50969SOL    HW154746   7.655  14.119   3.698
50969SOL    HW254747   7.749  14.238   3.686
50970SOL     OW54748   7.496   7.134   9.546
50970SOL    HW154749   7.403   7.112   9.542
50970SOL    HW254750   7.540   7.055   9.516
50971SOL     OW54751   2.597   6.001   9.643
50971SOL    HW154752   2.582   5.999   9.548
50971SOL    HW254753   2.518   5.961   9.680
50972SOL     OW54754  14.499   5.278   1.298
50972SOL    HW154755  14.427   5.269   1.360
50972SOL    HW254756  14.473   5.351   1.241
50973SOL     OW54757  11.321   5.510  12.727
50973SOL    HW154758  11.380   5.461  12.670
50973SOL    HW254759  11.344   5.602  12.713
50974SOL     OW54760   9.215   1.331  11.956
50974SOL    HW154761   9.170   1.411  11.928
50974SOL    HW254762   9.235   1.285  11.875
50975SOL     OW54763  13.486  12.315   6.298
50975SOL    HW154764  13.400  12.305   6.256
50975SOL    HW254765  13.490  12.245   6.363
50976SOL     OW54766   6.151   7.688   0.918
50976SOL    HW154767   6.069   7.646   0.945
50976SOL    HW254768   6.189   7.722   0.999
50977SOL     OW54769   2.831   2.224   4.004
50977SOL    HW154770   2.835   2.233   3.909
50977SOL    HW254771   2.751   2.175   4.020
50978SOL     OW54772   8.080   3.206   1.676
50978SOL    HW154773   8.145   3.194   1.745
50978SOL    HW254774   7.998   3.217   1.723
50979SOL     OW54775   2.421   5.448  11.895
50979SOL    HW154776   2.343   5.413  11.937
50979SOL    HW254777   2.459   5.373  11.849
50980SOL     OW54778   0.716   6.936  10.612
50980SOL    HW154779   0.719   6.921  10.706
50980SOL    HW254780   0.736   6.851  10.573
50981SOL     OW54781   2.999   7.198   2.335
50981SOL    HW154782   2.929   7.231   2.278
50981SOL    HW254783   3.027   7.275   2.385
50982SOL     OW54784   8.330   5.864   7.777
50982SOL    HW154785   8.405   5.866   7.717
50982SOL    HW254786   8.271   5.800   7.738
50983SOL     OW54787   8.469  12.168   6.050
50983SOL    HW154788   8.472  12.226   6.126
50983SOL    HW254789   8.430  12.087   6.084
50984SOL     OW54790   9.247   5.085  13.989
50984SOL    HW154791   9.296   5.152  13.941
50984SOL    HW254792   9.233   5.123  14.076
50985SOL     OW54793  14.473   8.407  11.445
50985SOL    HW154794  14.529   8.483  11.429
50985SOL    HW254795  14.518   8.359  11.514
50986SOL     OW54796   7.247   3.784   8.796
50986SOL    HW154797   7.288   3.766   8.711
50986SOL    HW254798   7.223   3.876   8.791
50987SOL     OW54799  14.853   8.960   2.831
50987SOL    HW154800   0.051   8.979   2.776
50987SOL    HW254801  14.833   9.044   2.872
50988SOL     OW54802  10.211   7.634   0.492
50988SOL    HW154803  10.148   7.616   0.561
50988SOL    HW254804  10.160   7.676   0.423
50989SOL     OW54805   8.175   7.740   9.306
50989SOL    HW154806   8.080   7.738   9.297
50989SOL    HW254807   8.195   7.664   9.361
50990SOL     OW54808  10.456   1.411   6.938
50990SOL    HW154809  10.550   1.418   6.919
50990SOL    HW254810  10.452   1.394   7.032
50991SOL     OW54811  11.317  13.900   7.518
50991SOL    HW154812  11.295  13.838   7.449
50991SOL    HW254813  11.273  13.981   7.493
50992SOL     OW54814   1.861   4.277   6.657
50992SOL    HW154815   1.843   4.275   6.563
50992SOL    HW254816   1.784   4.320   6.695
50993SOL     OW54817   8.915   1.048  12.102
50993SOL    HW154818   8.983   1.112  12.119
50993SOL    HW254819   8.898   1.007  12.187
50994SOL     OW54820  10.826   0.818  14.678
50994SOL    HW154821  10.856   0.731  14.708
50994SOL    HW254822  10.886   0.841  14.607
50995SOL     OW54823   6.509   7.516  11.248
50995SOL    HW154824   6.593   7.545  11.211
50995SOL    HW254825   6.520   7.524  11.343
50996SOL     OW54826   2.759   3.869   0.922
50996SOL    HW154827   2.678   3.820   0.907
50996SOL    HW254828   2.790   3.838   1.008
50997SOL     OW54829   2.370   5.665  10.904
50997SOL    HW154830   2.464   5.658  10.921
50997SOL    HW254831   2.352   5.598  10.838
50998SOL     OW54832   3.290   0.822  13.168
50998SOL    HW154833   3.314   0.891  13.230
50998SOL    HW254834   3.252   0.869  13.093
50999SOL     OW54835   0.211  13.400   9.104
50999SOL    HW154836   0.148  13.331   9.084
50999SOL    HW254837   0.281  13.355   9.152
51000SOL     OW54838  12.024   5.894   9.431
51000SOL    HW154839  11.937   5.870   9.400
51000SOL    HW254840  12.044   5.976   9.386
51001SOL     OW54841  11.015   1.056   2.553
51001SOL    HW154842  11.088   0.998   2.530
51001SOL    HW254843  11.030   1.078   2.645
51002SOL     OW54844  12.371  13.603   3.170
51002SOL    HW154845  12.446  13.553   3.138
51002SOL    HW254846  12.319  13.621   3.092
51003SOL     OW54847   6.584   2.532   5.185
51003SOL    HW154848   6.586   2.539   5.281
51003SOL    HW254849   6.504   2.484   5.166
51004SOL     OW54850   6.313   5.287  14.752
51004SOL    HW154851   6.399   5.249  14.737
51004SOL    HW254852   6.321   5.377  14.721
51005SOL     OW54853  10.025   9.236   4.334
51005SOL    HW154854  10.028   9.312   4.275
51005SOL    HW254855   9.933   9.211   4.336
51006SOL     OW54856  12.111   6.419   7.791
51006SOL    HW154857  12.075   6.331   7.796
51006SOL    HW254858  12.065   6.468   7.859
51007SOL     OW54859   1.359  12.814   8.104
51007SOL    HW154860   1.286  12.801   8.164
51007SOL    HW254861   1.413  12.881   8.146
51008SOL     OW54862   2.185  10.283   9.584
51008SOL    HW154863   2.220  10.317   9.501
51008SOL    HW254864   2.130  10.354   9.618
51009SOL     OW54865   8.138   8.169  12.671
51009SOL    HW154866   8.087   8.096  12.705
51009SOL    HW254867   8.097   8.190  12.587
51010SOL     OW54868  13.561   1.386  11.961
51010SOL    HW154869  13.641   1.418  11.919
51010SOL    HW254870  13.521   1.465  11.999
51011SOL     OW54871  12.312   1.520   5.424
51011SOL    HW154872  12.276   1.518   5.513
51011SOL    HW254873  12.407   1.523   5.437
51012SOL     OW54874   9.246   3.605  10.669
51012SOL    HW154875   9.240   3.694  10.634
51012SOL    HW254876   9.266   3.617  10.762
51013SOL     OW54877   9.262   3.872   2.535
51013SOL    HW154878   9.198   3.801   2.535
51013SOL    HW254879   9.212   3.949   2.511
51014SOL     OW54880   1.016   5.341   2.194
51014SOL    HW154881   1.065   5.260   2.180
51014SOL    HW254882   0.924   5.314   2.187
51015SOL     OW54883   7.172   2.952   8.562
51015SOL    HW154884   7.217   2.910   8.488
51015SOL    HW254885   7.221   2.922   8.639
51016SOL     OW54886   6.552   2.915   6.453
51016SOL    HW154887   6.568   2.918   6.359
51016SOL    HW254888   6.593   2.834   6.482
51017SOL     OW54889  10.518   8.403  13.243
51017SOL    HW154890  10.437   8.446  13.270
51017SOL    HW254891  10.551   8.456  13.171
51018SOL     OW54892  10.099   8.430   7.067
51018SOL    HW154893  10.099   8.337   7.046
51018SOL    HW254894  10.015   8.462   7.032
51019SOL     OW54895   9.244   9.527  11.379
51019SOL    HW154896   9.218   9.454  11.322
51019SOL    HW254897   9.294   9.585  11.322
51020SOL     OW54898   7.637   2.923   8.084
51020SOL    HW154899   7.634   3.005   8.033
51020SOL    HW254900   7.584   2.942   8.162
51021SOL     OW54901   6.422   2.479  11.004
51021SOL    HW154902   6.467   2.535  11.067
51021SOL    HW254903   6.439   2.390  11.034
51022SOL     OW54904   0.786   7.134  11.053
51022SOL    HW154905   0.802   7.043  11.075
51022SOL    HW254906   0.695   7.137  11.025
51023SOL     OW54907   1.966  10.961   1.132
51023SOL    HW154908   1.932  10.945   1.221
51023SOL    HW254909   1.895  10.931   1.075
51024SOL     OW54910   8.873   0.483   4.054
51024SOL    HW154911   8.967   0.476   4.036
51024SOL    HW254912   8.834   0.504   3.969
51025SOL     OW54913  12.550   6.868   3.382
51025SOL    HW154914  12.564   6.884   3.475
51025SOL    HW254915  12.574   6.776   3.369
51026SOL     OW54916  12.097  11.607   9.873
51026SOL    HW154917  12.043  11.645   9.942
51026SOL    HW254918  12.077  11.660   9.796
51027SOL     OW54919   4.712  14.527  10.861
51027SOL    HW154920   4.701  14.605  10.915
51027SOL    HW254921   4.660  14.544  10.783
51028SOL     OW54922   2.941   9.248   3.299
51028SOL    HW154923   3.011   9.293   3.346
51028SOL    HW254924   2.878   9.223   3.367
51029SOL     OW54925   6.101   1.418   8.523
51029SOL    HW154926   6.103   1.489   8.459
51029SOL    HW254927   6.176   1.363   8.501
51030SOL     OW54928   5.649   9.597   9.821
51030SOL    HW154929   5.569   9.650   9.819
51030SOL    HW254930   5.637   9.533   9.751
51031SOL     OW54931   9.862   7.823  12.133
51031SOL    HW154932   9.907   7.743  12.109
51031SOL    HW254933   9.884   7.837  12.225
51032SOL     OW54934   1.767   4.296   3.259
51032SOL    HW154935   1.763   4.377   3.311
51032SOL    HW254936   1.789   4.228   3.323
51033SOL     OW54937   9.128   5.653   3.766
51033SOL    HW154938   9.071   5.679   3.694
51033SOL    HW254939   9.216   5.655   3.729
51034SOL     OW54940   8.049   5.732   8.924
51034SOL    HW154941   8.002   5.657   8.960
51034SOL    HW254942   7.981   5.784   8.880
51035SOL     OW54943   0.921   1.829   6.621
51035SOL    HW154944   0.964   1.865   6.544
51035SOL    HW254945   0.884   1.746   6.592
51036SOL     OW54946   7.355   0.927   2.057
51036SOL    HW154947   7.259   0.926   2.059
51036SOL    HW254948   7.379   1.000   2.114
51037SOL     OW54949  11.460  14.002   4.878
51037SOL    HW154950  11.390  14.052   4.836
51037SOL    HW254951  11.428  13.986   4.967
51038SOL     OW54952   5.644   3.315   2.326
51038SOL    HW154953   5.645   3.219   2.336
51038SOL    HW254954   5.665   3.329   2.234
51039SOL     OW54955  13.754   3.076   7.312
51039SOL    HW154956  13.694   3.018   7.359
51039SOL    HW254957  13.772   3.147   7.374
51040SOL     OW54958   5.545   5.322  12.776
51040SOL    HW154959   5.503   5.367  12.702
51040SOL    HW254960   5.493   5.347  12.852
51041SOL     OW54961   2.560   6.333   7.979
51041SOL    HW154962   2.638   6.326   7.924
51041SOL    HW254963   2.503   6.394   7.933
51042SOL     OW54964   5.123  13.036   1.416
51042SOL    HW154965   5.136  13.125   1.450
51042SOL    HW254966   5.039  13.039   1.371
51043SOL     OW54967   1.706  14.629   7.060
51043SOL    HW154968   1.680  14.546   7.021
51043SOL    HW254969   1.738  14.605   7.147
51044SOL     OW54970   3.576   6.234  13.306
51044SOL    HW154971   3.563   6.169  13.237
51044SOL    HW254972   3.493   6.236  13.354
51045SOL     OW54973   4.443   1.538   3.656
51045SOL    HW154974   4.496   1.462   3.677
51045SOL    HW254975   4.487   1.612   3.698
51046SOL     OW54976  14.106  11.039   9.631
51046SOL    HW154977  14.078  10.951   9.656
51046SOL    HW254978  14.192  11.025   9.590
51047SOL     OW54979   7.331   5.041   4.547
51047SOL    HW154980   7.240   5.031   4.576
51047SOL    HW254981   7.361   5.123   4.586
51048SOL     OW54982   7.014  11.447   1.477
51048SOL    HW154983   7.073  11.448   1.401
51048SOL    HW254984   7.046  11.375   1.531
51049SOL     OW54985   4.293   2.947   0.901
51049SOL    HW154986   4.265   3.024   0.850
51049SOL    HW254987   4.330   2.888   0.836
51050SOL     OW54988   9.401  11.167   4.913
51050SOL    HW154989   9.421  11.076   4.934
51050SOL    HW254990   9.481  11.200   4.871
51051SOL     OW54991   6.264  11.425   6.057
51051SOL    HW154992   6.224  11.511   6.041
51051SOL    HW254993   6.300  11.399   5.972
51052SOL     OW54994  14.180   3.039   4.875
51052SOL    HW154995  14.269   3.071   4.889
51052SOL    HW254996  14.181   3.003   4.786
51053SOL     OW54997  14.684   4.227  14.205
51053SOL    HW154998  14.670   4.135  14.184
51053SOL    HW254999  14.612   4.250  14.263
51054SOL     OW55000   5.041   7.801  13.803
51054SOL    HW155001   5.087   7.721  13.829
51054SOL    HW255002   4.966   7.805  13.863
51055SOL     OW55003   4.657   2.789  10.748
51055SOL    HW155004   4.623   2.876  10.771
51055SOL    HW255005   4.665   2.790  10.653
51056SOL     OW55006   4.695  12.910   7.608
51056SOL    HW155007   4.706  12.815   7.610
51056SOL    HW255008   4.784  12.945   7.614
51057SOL     OW55009   7.282   4.227   4.498
51057SOL    HW155010   7.338   4.304   4.485
51057SOL    HW255011   7.254   4.232   4.589
51058SOL     OW55012  11.941   6.482   2.949
51058SOL    HW155013  11.947   6.460   2.856
51058SOL    HW255014  11.986   6.410   2.993
51059SOL     OW55015   6.732  10.621   0.988
51059SOL    HW155016   6.819  10.660   0.978
51059SOL    HW255017   6.746  10.528   0.972
51060SOL     OW55018   4.118  13.958   7.457
51060SOL    HW155019   4.088  13.890   7.397
51060SOL    HW255020   4.066  13.945   7.536
51061SOL     OW55021   4.176   8.324   5.016
51061SOL    HW155022   4.141   8.391   4.957
51061SOL    HW255023   4.256   8.363   5.052
51062SOL     OW55024   5.133   6.904  14.107
51062SOL    HW155025   5.087   6.959  14.042
51062SOL    HW255026   5.083   6.915  14.187
51063SOL     OW55027   9.041  10.999   6.313
51063SOL    HW155028   8.947  10.985   6.305
51063SOL    HW255029   9.059  11.077   6.262
51064SOL     OW55030   3.286  12.025  14.079
51064SOL    HW155031   3.333  12.108  14.085
51064SOL    HW255032   3.220  12.040  14.011
51065SOL     OW55033  11.941  13.933   7.160
51065SOL    HW155034  11.977  13.980   7.085
51065SOL    HW255035  11.957  13.990   7.235
51066SOL     OW55036  11.350   3.412   2.755
51066SOL    HW155037  11.267   3.401   2.801
51066SOL    HW255038  11.392   3.486   2.798
51067SOL     OW55039   0.796  14.237  13.602
51067SOL    HW155040   0.760  14.325  13.609
51067SOL    HW255041   0.886  14.250  13.571
51068SOL     OW55042   1.225   1.818  10.163
51068SOL    HW155043   1.291   1.876  10.124
51068SOL    HW255044   1.275   1.742  10.194
51069SOL     OW55045  11.910   2.288  13.049
51069SOL    HW155046  11.989   2.267  13.098
51069SOL    HW255047  11.908   2.224  12.978
51070SOL     OW55048  11.256   2.380  12.526
51070SOL    HW155049  11.266   2.407  12.435
51070SOL    HW255050  11.256   2.462  12.575
51071SOL     OW55051   7.104   8.159  10.807
51071SOL    HW155052   7.158   8.131  10.732
51071SOL    HW255053   7.160   8.145  10.883
51072SOL     OW55054  13.627  12.204  12.198
51072SOL    HW155055  13.709  12.164  12.227
51072SOL    HW255056  13.635  12.296  12.222
51073SOL     OW55057   6.193   3.409   1.886
51073SOL    HW155058   6.245   3.390   1.808
51073SOL    HW255059   6.257   3.434   1.952
51074SOL     OW55060   8.733  12.382  13.821
51074SOL    HW155061   8.682  12.366  13.741
51074SOL    HW255062   8.682  12.340  13.890
51075SOL     OW55063   6.012   2.239  14.354
51075SOL    HW155064   6.028   2.252  14.260
51075SOL    HW255065   6.068   2.304  14.397
51076SOL     OW55066   0.097   7.224   5.916
51076SOL    HW155067   0.085   7.226   6.011
51076SOL    HW255068   0.017   7.183   5.883
51077SOL     OW55069   6.854   1.582   9.072
51077SOL    HW155070   6.910   1.659   9.081
51077SOL    HW255071   6.769   1.610   9.107
51078SOL     OW55072   8.936  10.854  12.015
51078SOL    HW155073   9.022  10.857  12.056
51078SOL    HW255074   8.874  10.838  12.086
51079SOL     OW55075   6.652  11.916   7.482
51079SOL    HW155076   6.627  11.877   7.566
51079SOL    HW255077   6.684  11.842   7.430
51080SOL     OW55078   1.582   1.158   2.867
51080SOL    HW155079   1.572   1.063   2.860
51080SOL    HW255080   1.535   1.193   2.792
51081SOL     OW55081   9.500   1.251   7.056
51081SOL    HW155082   9.495   1.185   6.988
51081SOL    HW255083   9.500   1.335   7.009
51082SOL     OW55084   5.323   7.276   9.907
51082SOL    HW155085   5.359   7.257   9.993
51082SOL    HW255086   5.341   7.197   9.856
51083SOL     OW55087   7.995   5.600   5.609
51083SOL    HW155088   7.971   5.641   5.525
51083SOL    HW255089   7.978   5.507   5.596
51084SOL     OW55090   1.657   3.488   1.508
51084SOL    HW155091   1.751   3.477   1.494
51084SOL    HW255092   1.640   3.579   1.486
51085SOL     OW55093  12.656   0.762   7.041
51085SOL    HW155094  12.590   0.692   7.044
51085SOL    HW255095  12.734   0.719   7.006
51086SOL     OW55096  10.252  10.891  10.438
51086SOL    HW155097  10.171  10.839  10.439
51086SOL    HW255098  10.236  10.962  10.500
51087SOL     OW55099   8.234   2.747   5.275
51087SOL    HW155100   8.278   2.779   5.353
51087SOL    HW255101   8.252   2.814   5.209
51088SOL     OW55102   4.806   2.331   4.506
51088SOL    HW155103   4.770   2.323   4.418
51088SOL    HW255104   4.769   2.257   4.554
51089SOL     OW55105   4.097   7.408   6.337
51089SOL    HW155106   4.137   7.486   6.299
51089SOL    HW255107   4.107   7.340   6.270
51090SOL     OW55108  12.432   2.991  11.362
51090SOL    HW155109  12.358   3.035  11.320
51090SOL    HW255110  12.503   3.055  11.357
51091SOL     OW55111   6.262  12.095  11.304
51091SOL    HW155112   6.193  12.040  11.338
51091SOL    HW255113   6.292  12.050  11.225
51092SOL     OW55114   3.506  12.559  12.054
51092SOL    HW155115   3.524  12.488  11.991
51092SOL    HW255116   3.544  12.528  12.136
51093SOL     OW55117   8.060  12.633   1.225
51093SOL    HW155118   7.965  12.631   1.217
51093SOL    HW255119   8.092  12.611   1.137
51094SOL     OW55120   6.991   3.847  13.460
51094SOL    HW155121   6.918   3.909  13.453
51094SOL    HW255122   6.962   3.769  13.412
51095SOL     OW55123   0.042   0.027   9.513
51095SOL    HW155124  14.838  14.865   9.491
51095SOL    HW255125   0.019   0.117   9.537
51096SOL     OW55126   5.467   8.821   9.731
51096SOL    HW155127   5.384   8.869   9.729
51096SOL    HW255128   5.518   8.858   9.659
51097SOL     OW55129   9.897   5.784  11.314
51097SOL    HW155130   9.876   5.778  11.221
51097SOL    HW255131   9.853   5.709  11.354
51098SOL     OW55132   9.966   7.465  14.523
51098SOL    HW155133   9.958   7.497  14.433
51098SOL    HW255134   9.876   7.465  14.556
51099SOL     OW55135   0.614   6.716   1.334
51099SOL    HW155136   0.545   6.650   1.348
51099SOL    HW255137   0.656   6.690   1.252
51100SOL     OW55138   2.931  12.319  11.763
51100SOL    HW155139   2.844  12.344  11.732
51100SOL    HW255140   2.953  12.240  11.713
51101SOL     OW55141   0.897   5.606   5.922
51101SOL    HW155142   0.818   5.660   5.922
51101SOL    HW255143   0.955   5.647   5.987
51102SOL     OW55144   1.995   6.608   8.991
51102SOL    HW155145   1.978   6.539   9.055
51102SOL    HW255146   2.090   6.615   8.987
51103SOL     OW55147   3.180   5.762   5.460
51103SOL    HW155148   3.172   5.814   5.539
51103SOL    HW255149   3.157   5.822   5.389
51104SOL     OW55150  12.122   7.842   4.370
51104SOL    HW155151  12.088   7.769   4.421
51104SOL    HW255152  12.117   7.917   4.430
51105SOL     OW55153   4.028   7.514   8.872
51105SOL    HW155154   4.105   7.471   8.908
51105SOL    HW255155   3.978   7.444   8.832
51106SOL     OW55156   4.695   1.022  11.052
51106SOL    HW155157   4.693   0.928  11.070
51106SOL    HW255158   4.605   1.043  11.027
51107SOL     OW55159  10.984   8.502   0.707
51107SOL    HW155160  10.902   8.454   0.710
51107SOL    HW255161  10.962   8.590   0.738
51108SOL     OW55162   9.295   9.393  10.441
51108SOL    HW155163   9.281   9.423  10.530
51108SOL    HW255164   9.220   9.426  10.392
51109SOL     OW55165   2.380   5.389   2.344
51109SOL    HW155166   2.404   5.298   2.330
51109SOL    HW255167   2.449   5.439   2.300
51110SOL     OW55168   6.930   0.010  10.184
51110SOL    HW155169   6.880  14.809  10.171
51110SOL    HW255170   7.017  14.859  10.209
51111SOL     OW55171   5.019  11.911   1.048
51111SOL    HW155172   4.961  11.982   1.076
51111SOL    HW255173   4.963  11.833   1.045
51112SOL     OW55174   2.015   1.899   4.099
51112SOL    HW155175   1.948   1.832   4.112
51112SOL    HW255176   2.025   1.905   4.004
51113SOL     OW55177   7.652   1.064  14.199
51113SOL    HW155178   7.698   0.981  14.211
51113SOL    HW255179   7.687   1.122  14.266
51114SOL     OW55180  14.590   0.799   9.013
51114SOL    HW155181  14.575   0.842   9.097
51114SOL    HW255182  14.683   0.773   9.016
51115SOL     OW55183   2.427  12.031  14.443
51115SOL    HW155184   2.433  12.123  14.418
51115SOL    HW255185   2.376  12.031  14.524
51116SOL     OW55186   7.940   2.013   0.719
51116SOL    HW155187   7.964   1.938   0.773
51116SOL    HW255188   7.978   1.996   0.634
51117SOL     OW55189   3.191  11.861   9.516
51117SOL    HW155190   3.268  11.914   9.537
51117SOL    HW255191   3.151  11.907   9.442
51118SOL     OW55192   1.668  10.029   4.359
51118SOL    HW155193   1.622  10.038   4.276
51118SOL    HW255194   1.697   9.938   4.361
51119SOL     OW55195   9.031  13.556   7.868
51119SOL    HW155196   9.122  13.540   7.890
51119SOL    HW255197   8.991  13.585   7.950
51120SOL     OW55198   9.514   1.647   4.164
51120SOL    HW155199   9.422   1.672   4.173
51120SOL    HW255200   9.540   1.683   4.079
51121SOL     OW55201   1.295   0.862  14.392
51121SOL    HW155202   1.224   0.925  14.394
51121SOL    HW255203   1.320   0.856  14.300
51122SOL     OW55204   3.630  14.522   6.983
51122SOL    HW155205   3.603  14.501   6.894
51122SOL    HW255206   3.726  14.511   6.981
51123SOL     OW55207   1.383  10.073  14.382
51123SOL    HW155208   1.338  10.000  14.424
51123SOL    HW255209   1.332  10.091  14.303
51124SOL     OW55210   6.710   4.575  12.496
51124SOL    HW155211   6.649   4.647  12.475
51124SOL    HW255212   6.723   4.530  12.413
51125SOL     OW55213   0.396   2.684   5.322
51125SOL    HW155214   0.458   2.631   5.272
51125SOL    HW255215   0.438   2.697   5.407
51126SOL     OW55216   6.687   0.701  10.489
51126SOL    HW155217   6.780   0.683  10.502
51126SOL    HW255218   6.685   0.777  10.431
51127SOL     OW55219   1.838  14.472  13.989
51127SOL    HW155220   1.872  14.531  13.922
51127SOL    HW255221   1.910  14.411  14.007
51128SOL     OW55222   0.734   7.891   1.886
51128SOL    HW155223   0.739   7.906   1.981
51128SOL    HW255224   0.806   7.831   1.868
51129SOL     OW55225   8.473  13.010  13.901
51129SOL    HW155226   8.548  13.032  13.956
51129SOL    HW255227   8.459  12.917  13.915
51130SOL     OW55228   6.745   0.993  14.116
51130SOL    HW155229   6.653   0.969  14.105
51130SOL    HW255230   6.771   0.954  14.200
51131SOL     OW55231  11.803  11.002  14.457
51131SOL    HW155232  11.832  10.911  14.462
51131SOL    HW255233  11.882  11.051  14.434
51132SOL     OW55234  13.565   6.038  11.864
51132SOL    HW155235  13.523   6.044  11.950
51132SOL    HW255236  13.492   6.034  11.803
51133SOL     OW55237   0.601  13.286   4.341
51133SOL    HW155238   0.523  13.332   4.370
51133SOL    HW255239   0.673  13.348   4.354
51134SOL     OW55240   0.030  12.913  12.782
51134SOL    HW155241   0.030  12.976  12.710
51134SOL    HW255242   0.121  12.885  12.790
51135SOL     OW55243   3.154   7.686   3.264
51135SOL    HW155244   3.089   7.697   3.333
51135SOL    HW255245   3.103   7.676   3.183
51136SOL     OW55246   6.916  13.486   6.029
51136SOL    HW155247   6.913  13.581   6.044
51136SOL    HW255248   6.956  13.451   6.108
51137SOL     OW55249   0.194   0.070  10.265
51137SOL    HW155250   0.177  14.874  10.322
51137SOL    HW255251   0.120   0.071  10.204
51138SOL     OW55252   1.166  12.653   0.979
51138SOL    HW155253   1.221  12.729   0.993
51138SOL    HW255254   1.152  12.616   1.066
51139SOL     OW55255   0.989  14.831  13.698
51139SOL    HW155256   1.004  14.778  13.620
51139SOL    HW255257   0.970   0.039  13.665
51140SOL     OW55258   5.953  10.675   3.612
51140SOL    HW155259   5.996  10.590   3.624
51140SOL    HW255260   6.009  10.737   3.659
51141SOL     OW55261  11.832   7.256   3.614
51141SOL    HW155262  11.780   7.270   3.693
51141SOL    HW255263  11.881   7.177   3.632
51142SOL     OW55264   2.692   8.337   3.285
51142SOL    HW155265   2.757   8.315   3.352
51142SOL    HW255266   2.738   8.324   3.202
51143SOL     OW55267   9.856   0.226  12.260
51143SOL    HW155268   9.829   0.245  12.170
51143SOL    HW255269   9.932   0.169  12.251
51144SOL     OW55270  14.438   3.062   2.740
51144SOL    HW155271  14.448   3.048   2.834
51144SOL    HW255272  14.514   3.020   2.701
51145SOL     OW55273   1.294   1.717   0.661
51145SOL    HW155274   1.235   1.642   0.673
51145SOL    HW255275   1.245   1.792   0.694
51146SOL     OW55276   2.112   3.348   3.634
51146SOL    HW155277   2.047   3.382   3.696
51146SOL    HW255278   2.059   3.308   3.565
51147SOL     OW55279   6.324  13.978  12.468
51147SOL    HW155280   6.368  14.054  12.507
51147SOL    HW255281   6.311  13.918  12.542
51148SOL     OW55282   6.221   3.807   3.910
51148SOL    HW155283   6.185   3.740   3.968
51148SOL    HW255284   6.290   3.849   3.962
51149SOL     OW55285   0.580  13.180  14.788
51149SOL    HW155286   0.490  13.214  14.783
51149SOL    HW255287   0.628  13.229  14.721
51150SOL     OW55288  11.320  10.927   4.998
51150SOL    HW155289  11.384  10.945   5.067
51150SOL    HW255290  11.250  10.990   5.014
51151SOL     OW55291   3.465  10.901  10.505
51151SOL    HW155292   3.499  10.989  10.521
51151SOL    HW255293   3.472  10.890  10.410
51152SOL     OW55294   6.863   9.318   2.734
51152SOL    HW155295   6.771   9.324   2.706
51152SOL    HW255296   6.867   9.237   2.785
51153SOL     OW55297   5.435   9.376  13.184
51153SOL    HW155298   5.528   9.362  13.200
51153SOL    HW255299   5.420   9.468  13.205
51154SOL     OW55300  11.323  11.340   6.058
51154SOL    HW155301  11.264  11.274   6.094
51154SOL    HW255302  11.411  11.307   6.079
51155SOL     OW55303   3.401   7.293   4.880
51155SOL    HW155304   3.326   7.235   4.870
51155SOL    HW255305   3.386   7.340   4.961
51156SOL     OW55306  10.861  12.170   1.413
51156SOL    HW155307  10.922  12.243   1.404
51156SOL    HW255308  10.864  12.125   1.329
51157SOL     OW55309  14.165  11.265   2.526
51157SOL    HW155310  14.197  11.279   2.616
51157SOL    HW255311  14.172  11.351   2.485
51158SOL     OW55312   1.644   4.076   1.415
51158SOL    HW155313   1.731   4.047   1.388
51158SOL    HW255314   1.631   4.160   1.372
51159SOL     OW55315  11.999  11.604   3.789
51159SOL    HW155316  11.981  11.520   3.832
51159SOL    HW255317  12.028  11.580   3.701
51160SOL     OW55318   3.401   6.298   8.581
51160SOL    HW155319   3.469   6.304   8.649
51160SOL    HW255320   3.412   6.212   8.543
51161SOL     OW55321  12.496   2.292   3.669
51161SOL    HW155322  12.491   2.238   3.747
51161SOL    HW255323  12.590   2.297   3.649
51162SOL     OW55324   5.931   9.335   7.188
51162SOL    HW155325   5.968   9.410   7.140
51162SOL    HW255326   5.960   9.259   7.138
51163SOL     OW55327   1.385   1.124  14.097
51163SOL    HW155328   1.392   1.084  14.010
51163SOL    HW255329   1.311   1.081  14.138
51164SOL     OW55330   1.030   2.773   6.844
51164SOL    HW155331   1.003   2.810   6.928
51164SOL    HW255332   0.956   2.718   6.817
51165SOL     OW55333  13.031   5.961   1.753
51165SOL    HW155334  13.097   5.934   1.689
51165SOL    HW255335  12.998   5.879   1.790
51166SOL     OW55336   9.594   2.956  10.532
51166SOL    HW155337   9.563   2.943  10.621
51166SOL    HW255338   9.563   2.880  10.484
51167SOL     OW55339   3.907   9.946   4.225
51167SOL    HW155340   3.989   9.980   4.261
51167SOL    HW255341   3.839  10.001   4.265
51168SOL     OW55342  13.165   4.355   4.789
51168SOL    HW155343  13.180   4.376   4.697
51168SOL    HW255344  13.248   4.318   4.819
51169SOL     OW55345  14.194   0.832   0.380
51169SOL    HW155346  14.283   0.837   0.344
51169SOL    HW255347  14.172   0.922   0.404
51170SOL     OW55348   4.465   1.789   6.435
51170SOL    HW155349   4.432   1.705   6.403
51170SOL    HW255350   4.481   1.840   6.355
51171SOL     OW55351   5.133  12.521   2.167
51171SOL    HW155352   5.053  12.574   2.166
51171SOL    HW255353   5.136  12.484   2.255
51172SOL     OW55354   5.130   3.729   9.081
51172SOL    HW155355   5.159   3.742   8.991
51172SOL    HW255356   5.035   3.739   9.078
51173SOL     OW55357  11.512   5.005   2.277
51173SOL    HW155358  11.495   4.932   2.337
51173SOL    HW255359  11.606   5.021   2.285
51174SOL     OW55360   0.156  12.201  13.643
51174SOL    HW155361   0.103  12.150  13.705
51174SOL    HW255362   0.211  12.256  13.699
51175SOL     OW55363   5.524  10.021   8.466
51175SOL    HW155364   5.531  10.020   8.561
51175SOL    HW255365   5.560  10.106   8.441
51176SOL     OW55366   9.811   5.993   1.069
51176SOL    HW155367   9.824   5.948   1.153
51176SOL    HW255368   9.880   5.959   1.013
51177SOL     OW55369   2.038  12.490  10.185
51177SOL    HW155370   2.034  12.573  10.233
51177SOL    HW255371   2.131  12.478  10.166
51178SOL     OW55372   1.532  10.068   9.038
51178SOL    HW155373   1.495  10.129   9.101
51178SOL    HW255374   1.511  10.106   8.952
51179SOL     OW55375   5.198   4.933   4.107
51179SOL    HW155376   5.180   4.868   4.039
51179SOL    HW255377   5.265   4.989   4.069
51180SOL     OW55378   9.754  14.531  12.799
51180SOL    HW155379   9.725  14.622  12.798
51180SOL    HW255380   9.815  14.527  12.873
51181SOL     OW55381   5.804   7.043   7.002
51181SOL    HW155382   5.750   7.095   6.942
51181SOL    HW255383   5.893   7.078   6.990
51182SOL     OW55384   3.991   6.175  10.198
51182SOL    HW155385   3.960   6.142  10.282
51182SOL    HW255386   4.006   6.096  10.145
51183SOL     OW55387  14.253   0.543  11.086
51183SOL    HW155388  14.261   0.448  11.076
51183SOL    HW255389  14.281   0.560  11.176
51184SOL     OW55390   1.589  13.537   3.765
51184SOL    HW155391   1.675  13.546   3.723
51184SOL    HW255392   1.580  13.618   3.816
51185SOL     OW55393  10.684   5.173   3.454
51185SOL    HW155394  10.689   5.077   3.459
51185SOL    HW255395  10.733   5.196   3.376
51186SOL     OW55396   2.281   6.856   9.303
51186SOL    HW155397   2.213   6.921   9.319
51186SOL    HW255398   2.282   6.801   9.381
51187SOL     OW55399   6.117   5.767   3.848
51187SOL    HW155400   6.093   5.860   3.845
51187SOL    HW255401   6.158   5.750   3.764
51188SOL     OW55402   8.946  10.787  14.254
51188SOL    HW155403   9.003  10.717  14.288
51188SOL    HW255404   8.950  10.776  14.159
51189SOL     OW55405   8.109  14.629   2.051
51189SOL    HW155406   8.100  14.535   2.069
51189SOL    HW255407   8.041  14.671   2.103
51190SOL     OW55408   0.481   5.956   5.349
51190SOL    HW155409   0.547   6.006   5.301
51190SOL    HW255410   0.507   5.965   5.441
51191SOL     OW55411   4.427   3.959   9.928
51191SOL    HW155412   4.384   4.037   9.963
51191SOL    HW255413   4.490   3.933   9.995
51192SOL     OW55414   1.220   3.660   7.418
51192SOL    HW155415   1.277   3.737   7.420
51192SOL    HW255416   1.266   3.598   7.361
51193SOL     OW55417   5.381   1.746   8.913
51193SOL    HW155418   5.290   1.726   8.891
51193SOL    HW255419   5.417   1.787   8.835
51194SOL     OW55420  10.337   2.840   7.774
51194SOL    HW155421  10.315   2.923   7.731
51194SOL    HW255422  10.366   2.783   7.703
51195SOL     OW55423  14.590   0.269   3.754
51195SOL    HW155424  14.656   0.327   3.717
51195SOL    HW255425  14.611   0.266   3.848
51196SOL     OW55426  13.128   1.150   4.565
51196SOL    HW155427  13.102   1.201   4.488
51196SOL    HW255428  13.099   1.202   4.640
51197SOL     OW55429   1.119   7.798   8.736
51197SOL    HW155430   1.065   7.747   8.797
51197SOL    HW255431   1.206   7.758   8.742
51198SOL     OW55432   6.678   5.936  11.803
51198SOL    HW155433   6.760   5.939  11.853
51198SOL    HW255434   6.691   5.999  11.732
51199SOL     OW55435  14.401   6.004   7.565
51199SOL    HW155436  14.372   6.023   7.476
51199SOL    HW255437  14.475   5.945   7.554
51200SOL     OW55438   8.175   4.007   0.228
51200SOL    HW155439   8.168   4.080   0.167
51200SOL    HW255440   8.174   3.929   0.172
51201SOL     OW55441  13.859   5.801   9.808
51201SOL    HW155442  13.858   5.857   9.886
51201SOL    HW255443  13.945   5.759   9.811
51202SOL     OW55444  11.095   2.849   2.026
51202SOL    HW155445  11.090   2.852   2.121
51202SOL    HW255446  11.007   2.874   1.996
51203SOL     OW55447   7.850   2.657   7.183
51203SOL    HW155448   7.882   2.603   7.255
51203SOL    HW255449   7.764   2.620   7.162
51204SOL     OW55450   1.355   4.172  12.091
51204SOL    HW155451   1.391   4.143  12.175
51204SOL    HW255452   1.416   4.137  12.025
51205SOL     OW55453   6.613   4.078  14.123
51205SOL    HW155454   6.621   4.096  14.030
51205SOL    HW255455   6.704   4.075  14.155
51206SOL     OW55456  12.859   8.703   0.167
51206SOL    HW155457  12.874   8.780   0.222
51206SOL    HW255458  12.886   8.731   0.079
51207SOL     OW55459  10.605   7.629  13.802
51207SOL    HW155460  10.522   7.631  13.850
51207SOL    HW255461  10.580   7.633  13.710
51208SOL     OW55462   4.886  13.593   2.365
51208SOL    HW155463   4.858  13.505   2.338
51208SOL    HW255464   4.969  13.607   2.319
51209SOL     OW55465   0.098  14.644   8.318
51209SOL    HW155466   0.154  14.649   8.241
51209SOL    HW255467   0.158  14.632   8.391
51210SOL     OW55468  14.803   2.537  13.939
51210SOL    HW155469  14.863   2.463  13.948
51210SOL    HW255470  14.717   2.501  13.959
51211SOL     OW55471   4.840   2.254   6.371
51211SOL    HW155472   4.929   2.286   6.356
51211SOL    HW255473   4.801   2.250   6.284
51212SOL     OW55474   5.030   8.311   1.652
51212SOL    HW155475   5.106   8.345   1.700
51212SOL    HW255476   5.019   8.222   1.685
51213SOL     OW55477   9.518   2.588   4.246
51213SOL    HW155478   9.593   2.568   4.302
51213SOL    HW255479   9.528   2.681   4.225
51214SOL     OW55480   6.638  13.197   0.586
51214SOL    HW155481   6.622  13.281   0.543
51214SOL    HW255482   6.710  13.158   0.537
51215SOL     OW55483   5.446  13.918   3.606
51215SOL    HW155484   5.404  13.969   3.537
51215SOL    HW255485   5.536  13.950   3.609
51216SOL     OW55486  10.508   2.564  11.247
51216SOL    HW155487  10.446   2.515  11.193
51216SOL    HW255488  10.577   2.501  11.268
51217SOL     OW55489  14.004  10.123  12.315
51217SOL    HW155490  13.988  10.217  12.321
51217SOL    HW255491  14.087  10.109  12.361
51218SOL     OW55492   8.394   4.717   4.778
51218SOL    HW155493   8.364   4.627   4.793
51218SOL    HW255494   8.489   4.709   4.768
51219SOL     OW55495   2.797   0.330   9.465
51219SOL    HW155496   2.741   0.272   9.518
51219SOL    HW255497   2.851   0.270   9.414
51220SOL     OW55498   1.640   0.128   6.227
51220SOL    HW155499   1.649   0.092   6.139
51220SOL    HW255500   1.561   0.085   6.262
51221SOL     OW55501   2.852   1.612  12.244
51221SOL    HW155502   2.780   1.566  12.201
51221SOL    HW255503   2.920   1.546  12.255
51222SOL     OW55504   7.511  10.729  12.462
51222SOL    HW155505   7.534  10.751  12.372
51222SOL    HW255506   7.568  10.784  12.516
51223SOL     OW55507   9.247  10.278   4.422
51223SOL    HW155508   9.212  10.276   4.333
51223SOL    HW255509   9.169  10.283   4.478
51224SOL     OW55510   1.081   3.298   2.632
51224SOL    HW155511   1.074   3.375   2.688
51224SOL    HW255512   1.166   3.260   2.654
51225SOL     OW55513   5.345  13.959   4.898
51225SOL    HW155514   5.357  13.890   4.962
51225SOL    HW255515   5.408  14.027   4.922
51226SOL     OW55516  14.163   6.171   6.587
51226SOL    HW155517  14.103   6.242   6.564
51226SOL    HW255518  14.120   6.092   6.555
51227SOL     OW55519   3.229  12.325  10.249
51227SOL    HW155520   3.200  12.386  10.317
51227SOL    HW255521   3.310  12.287  10.283
51228SOL     OW55522   9.195   6.957   8.657
51228SOL    HW155523   9.255   7.002   8.597
51228SOL    HW255524   9.138   6.906   8.599
51229SOL     OW55525  10.953   7.707   0.335
51229SOL    HW155526  10.919   7.776   0.278
51229SOL    HW255527  11.003   7.650   0.277
51230SOL     OW55528   2.754  13.539   3.002
51230SOL    HW155529   2.681  13.590   2.968
51230SOL    HW255530   2.718  13.493   3.078
51231SOL     OW55531   9.599  10.822   6.999
51231SOL    HW155532   9.624  10.834   6.907
51231SOL    HW255533   9.580  10.729   7.007
51232SOL     OW55534   1.950   2.866   5.414
51232SOL    HW155535   2.000   2.832   5.488
51232SOL    HW255536   1.859   2.864   5.443
51233SOL     OW55537  12.505  14.513   4.996
51233SOL    HW155538  12.476  14.459   4.922
51233SOL    HW255539  12.537  14.594   4.956
51234SOL     OW55540  13.643   3.436  10.579
51234SOL    HW155541  13.677   3.525  10.570
51234SOL    HW255542  13.548   3.448  10.587
51235SOL     OW55543   1.415   2.100   2.440
51235SOL    HW155544   1.491   2.054   2.404
51235SOL    HW255545   1.450   2.182   2.472
51236SOL     OW55546  13.349   5.147   5.196
51236SOL    HW155547  13.319   5.124   5.108
51236SOL    HW255548  13.269   5.153   5.248
51237SOL     OW55549  11.889   2.053   3.695
51237SOL    HW155550  11.911   2.140   3.731
51237SOL    HW255551  11.827   2.071   3.625
51238SOL     OW55552  12.691  11.946  11.501
51238SOL    HW155553  12.756  11.994  11.450
51238SOL    HW255554  12.683  11.996  11.583
51239SOL     OW55555  11.485  10.254   2.842
51239SOL    HW155556  11.447  10.252   2.930
51239SOL    HW255557  11.579  10.263   2.856
51240SOL     OW55558   8.257   3.246   4.549
51240SOL    HW155559   8.208   3.302   4.489
51240SOL    HW255560   8.348   3.274   4.537
51241SOL     OW55561   9.533  14.405  11.614
51241SOL    HW155562   9.619  14.376  11.582
51241SOL    HW255563   9.538  14.393  11.709
51242SOL     OW55564  11.211   2.082   7.735
51242SOL    HW155565  11.299   2.052   7.713
51242SOL    HW255566  11.224   2.162   7.785
51243SOL     OW55567   3.150  14.101  12.427
51243SOL    HW155568   3.074  14.082  12.372
51243SOL    HW255569   3.118  14.091  12.516
51244SOL     OW55570   2.659  11.783   5.771
51244SOL    HW155571   2.692  11.714   5.714
51244SOL    HW255572   2.738  11.825   5.806
51245SOL     OW55573   4.269   1.042   9.841
51245SOL    HW155574   4.325   1.039   9.919
51245SOL    HW255575   4.199   0.980   9.860
51246SOL     OW55576   6.718  11.472   1.786
51246SOL    HW155577   6.659  11.419   1.732
51246SOL    HW255578   6.782  11.410   1.820
51247SOL     OW55579   5.444   0.139   6.838
51247SOL    HW155580   5.380   0.072   6.816
51247SOL    HW255581   5.503   0.097   6.900
51248SOL     OW55582  11.480  11.660  13.705
51248SOL    HW155583  11.431  11.730  13.748
51248SOL    HW255584  11.420  11.585  13.704
51249SOL     OW55585  10.517   8.271   6.004
51249SOL    HW155586  10.608   8.291   5.984
51249SOL    HW255587  10.482   8.352   6.041
51250SOL     OW55588   1.862  10.326   3.334
51250SOL    HW155589   1.769  10.309   3.324
51250SOL    HW255590   1.867  10.394   3.401
51251SOL     OW55591   1.427   4.775  12.845
51251SOL    HW155592   1.422   4.848  12.784
51251SOL    HW255593   1.399   4.699  12.794
51252SOL     OW55594   7.960   4.716   0.415
51252SOL    HW155595   7.886   4.676   0.460
51252SOL    HW255596   7.959   4.676   0.328
51253SOL     OW55597   3.879   1.579   3.507
51253SOL    HW155598   3.798   1.623   3.532
51253SOL    HW255599   3.901   1.525   3.584
51254SOL     OW55600  13.660  10.327   4.773
51254SOL    HW155601  13.756  10.326   4.779
51254SOL    HW255602  13.635  10.412   4.809
51255SOL     OW55603  14.548   6.476  11.206
51255SOL    HW155604  14.506   6.519  11.131
51255SOL    HW255605  14.641   6.493  11.194
51256SOL     OW55606   6.418   9.870   5.692
51256SOL    HW155607   6.468   9.835   5.766
51256SOL    HW255608   6.426   9.802   5.625
51257SOL     OW55609  13.948  13.925   9.846
51257SOL    HW155610  14.010  13.997   9.842
51257SOL    HW255611  13.889  13.939   9.773
51258SOL     OW55612   7.693   4.624   0.800
51258SOL    HW155613   7.762   4.687   0.822
51258SOL    HW255614   7.725   4.540   0.833
51259SOL     OW55615   9.120   3.618   3.446
51259SOL    HW155616   9.169   3.611   3.528
51259SOL    HW255617   9.120   3.712   3.426
51260SOL     OW55618   2.129  14.375   4.247
51260SOL    HW155619   2.089  14.312   4.308
51260SOL    HW255620   2.073  14.374   4.170
51261SOL     OW55621   3.175   0.437   8.794
51261SOL    HW155622   3.251   0.430   8.737
51261SOL    HW255623   3.194   0.511   8.851
51262SOL     OW55624   7.952   7.657   8.660
51262SOL    HW155625   7.864   7.693   8.671
51262SOL    HW255626   7.993   7.715   8.597
51263SOL     OW55627  10.738   7.021  13.420
51263SOL    HW155628  10.809   7.081  13.396
51263SOL    HW255629  10.663   7.050  13.367
51264SOL     OW55630   6.333  11.154  13.858
51264SOL    HW155631   6.346  11.120  13.947
51264SOL    HW255632   6.421  11.167  13.823
51265SOL     OW55633   0.933   7.168  10.161
51265SOL    HW155634   0.983   7.248  10.172
51265SOL    HW255635   0.874   7.165  10.237
51266SOL     OW55636   4.309   1.906  14.486
51266SOL    HW155637   4.367   1.960  14.540
51266SOL    HW255638   4.268   1.968  14.425
51267SOL     OW55639  11.958   5.006   5.315
51267SOL    HW155640  12.049   4.978   5.328
51267SOL    HW255641  11.942   5.069   5.385
51268SOL     OW55642   5.387   6.953   7.754
51268SOL    HW155643   5.458   6.927   7.695
51268SOL    HW255644   5.323   6.882   7.747
51269SOL     OW55645  10.347  10.591   7.736
51269SOL    HW155646  10.368  10.524   7.672
51269SOL    HW255647  10.367  10.551   7.820
51270SOL     OW55648  11.265  14.119   1.869
51270SOL    HW155649  11.300  14.206   1.889
51270SOL    HW255650  11.178  14.136   1.834
51271SOL     OW55651   0.524   8.813   4.786
51271SOL    HW155652   0.601   8.778   4.830
51271SOL    HW255653   0.500   8.891   4.837
51272SOL     OW55654   9.823   4.305   1.031
51272SOL    HW155655   9.762   4.377   1.015
51272SOL    HW255656   9.772   4.226   1.015
51273SOL     OW55657  13.380  11.258   6.923
51273SOL    HW155658  13.372  11.176   6.876
51273SOL    HW255659  13.435  11.237   6.999
51274SOL     OW55660   6.532   7.801   8.457
51274SOL    HW155661   6.466   7.777   8.522
51274SOL    HW255662   6.509   7.750   8.379
51275SOL     OW55663  12.727  11.897   3.879
51275SOL    HW155664  12.669  11.826   3.906
51275SOL    HW255665  12.687  11.976   3.916
51276SOL     OW55666   6.741   0.533   6.774
51276SOL    HW155667   6.679   0.461   6.765
51276SOL    HW255668   6.724   0.589   6.698
51277SOL     OW55669  10.207   1.731  12.534
51277SOL    HW155670  10.230   1.651  12.582
51277SOL    HW255671  10.291   1.772  12.514
51278SOL     OW55672  11.020   1.532  13.340
51278SOL    HW155673  10.983   1.448  13.367
51278SOL    HW255674  11.071   1.561  13.415
51279SOL     OW55675   8.617  13.022  11.779
51279SOL    HW155676   8.601  13.039  11.687
51279SOL    HW255677   8.712  13.013  11.786
51280SOL     OW55678   3.325   4.014   9.534
51280SOL    HW155679   3.265   4.019   9.607
51280SOL    HW255680   3.385   3.943   9.555
51281SOL     OW55681  14.585   4.006   5.411
51281SOL    HW155682  14.495   3.991   5.439
51281SOL    HW255683  14.615   4.079   5.466
51282SOL     OW55684  14.732   0.077   7.670
51282SOL    HW155685  14.688   0.162   7.664
51282SOL    HW255686  14.750   0.052   7.579
51283SOL     OW55687   3.964  10.683  14.358
51283SOL    HW155688   3.998  10.769  14.334
51283SOL    HW255689   3.937  10.693  14.449
51284SOL     OW55690   9.828   1.758   6.343
51284SOL    HW155691   9.805   1.818   6.414
51284SOL    HW255692   9.819   1.671   6.382
51285SOL     OW55693   8.179   5.918   2.752
51285SOL    HW155694   8.135   5.873   2.680
51285SOL    HW255695   8.196   6.006   2.719
51286SOL     OW55696   9.438   5.848  11.849
51286SOL    HW155697   9.373   5.832  11.781
51286SOL    HW255698   9.418   5.783  11.917
51287SOL     OW55699   5.370   4.920   5.498
51287SOL    HW155700   5.443   4.978   5.520
51287SOL    HW255701   5.319   4.914   5.579
51288SOL     OW55702   2.353  11.379   2.250
51288SOL    HW155703   2.284  11.367   2.315
51288SOL    HW255704   2.428  11.330   2.285
51289SOL     OW55705   2.453   9.352   6.232
51289SOL    HW155706   2.400   9.306   6.167
51289SOL    HW255707   2.397   9.358   6.309
51290SOL     OW55708   1.510   3.414  11.293
51290SOL    HW155709   1.545   3.402  11.380
51290SOL    HW255710   1.555   3.492  11.260
51291SOL     OW55711   0.384   5.966   7.717
51291SOL    HW155712   0.389   5.871   7.711
51291SOL    HW255713   0.314   5.982   7.780
51292SOL     OW55714   4.995   1.433   6.651
51292SOL    HW155715   5.041   1.447   6.567
51292SOL    HW255716   5.038   1.356   6.689
51293SOL     OW55717   4.736   0.163   7.573
51293SOL    HW155718   4.767   0.173   7.663
51293SOL    HW255719   4.658   0.108   7.581
51294SOL     OW55720  14.568   3.339   1.386
51294SOL    HW155721  14.613   3.316   1.305
51294SOL    HW255722  14.493   3.279   1.388
51295SOL     OW55723   9.440  10.483   5.675
51295SOL    HW155724   9.496  10.422   5.723
51295SOL    HW255725   9.466  10.473   5.583
51296SOL     OW55726   4.868  10.801  10.829
51296SOL    HW155727   4.938  10.740  10.850
51296SOL    HW255728   4.898  10.845  10.748
51297SOL     OW55729   1.964   5.916   7.662
51297SOL    HW155730   1.935   5.965   7.585
51297SOL    HW255731   1.956   5.978   7.735
51298SOL     OW55732   6.917  13.551  12.414
51298SOL    HW155733   6.914  13.509  12.328
51298SOL    HW255734   6.826  13.555  12.442
51299SOL     OW55735  14.055   0.248  13.132
51299SOL    HW155736  14.037   0.337  13.165
51299SOL    HW255737  14.025   0.191  13.203
51300SOL     OW55738   3.527   6.848  14.369
51300SOL    HW155739   3.580   6.784  14.418
51300SOL    HW255740   3.569   6.854  14.284
51301SOL     OW55741  12.773   4.033   3.179
51301SOL    HW155742  12.714   4.038   3.103
51301SOL    HW255743  12.795   3.940   3.186
51302SOL     OW55744   2.294   4.287   5.109
51302SOL    HW155745   2.218   4.231   5.097
51302SOL    HW255746   2.258   4.375   5.114
51303SOL     OW55747   2.943  11.527  11.984
51303SOL    HW155748   2.926  11.437  11.954
51303SOL    HW255749   3.027  11.550  11.945
51304SOL     OW55750   4.002  14.280   2.588
51304SOL    HW155751   3.909  14.292   2.572
51304SOL    HW255752   4.006  14.232   2.671
51305SOL     OW55753   6.063   8.706   3.828
51305SOL    HW155754   6.096   8.770   3.764
51305SOL    HW255755   6.032   8.760   3.901
51306SOL     OW55756   0.025   3.752   3.723
51306SOL    HW155757  14.817   3.718   3.745
51306SOL    HW255758   0.051   3.704   3.646
51307SOL     OW55759  14.229   2.436   5.785
51307SOL    HW155760  14.256   2.456   5.875
51307SOL    HW255761  14.284   2.492   5.730
51308SOL     OW55762   0.408  11.365   4.757
51308SOL    HW155763   0.486  11.311   4.741
51308SOL    HW255764   0.335  11.305   4.743
51309SOL     OW55765   0.470   1.194  13.967
51309SOL    HW155766   0.393   1.206  14.022
51309SOL    HW255767   0.442   1.223  13.880
51310SOL     OW55768   9.471  14.387   4.709
51310SOL    HW155769   9.517  14.440   4.645
51310SOL    HW255770   9.379  14.410   4.698
51311SOL     OW55771  12.977  11.499  11.166
51311SOL    HW155772  12.959  11.414  11.124
51311SOL    HW255773  13.001  11.477  11.256
51312SOL     OW55774  13.014   3.294   4.799
51312SOL    HW155775  12.977   3.214   4.760
51312SOL    HW255776  13.107   3.275   4.808
51313SOL     OW55777  10.102  11.091   2.882
51313SOL    HW155778  10.112  11.182   2.855
51313SOL    HW255779  10.027  11.092   2.942
51314SOL     OW55780   1.866   2.850   3.518
51314SOL    HW155781   1.894   2.786   3.583
51314SOL    HW255782   1.878   2.935   3.562
51315SOL     OW55783   9.132   9.052  14.281
51315SOL    HW155784   9.046   9.090  14.299
51315SOL    HW255785   9.170   9.108  14.213
51316SOL     OW55786  12.248   4.139   9.206
51316SOL    HW155787  12.165   4.186   9.197
51316SOL    HW255788  12.223   4.052   9.237
51317SOL     OW55789   6.514   2.337   4.666
51317SOL    HW155790   6.548   2.260   4.711
51317SOL    HW255791   6.507   2.310   4.574
51318SOL     OW55792   5.085  12.222  13.173
51318SOL    HW155793   5.003  12.203  13.219
51318SOL    HW255794   5.110  12.309  13.202
51319SOL     OW55795   4.881   3.626  14.418
51319SOL    HW155796   4.924   3.628  14.333
51319SOL    HW255797   4.883   3.717  14.449
51320SOL     OW55798  14.141   0.640   4.783
51320SOL    HW155799  14.139   0.685   4.867
51320SOL    HW255800  14.057   0.663   4.742
51321SOL     OW55801   4.003  10.115   6.498
51321SOL    HW155802   3.911  10.139   6.487
51321SOL    HW255803   4.049  10.198   6.504
51322SOL     OW55804  12.934   3.468   6.039
51322SOL    HW155805  12.994   3.396   6.023
51322SOL    HW255806  12.888   3.479   5.956
51323SOL     OW55807   0.730  12.479  13.738
51323SOL    HW155808   0.640  12.474  13.707
51323SOL    HW255809   0.724  12.471  13.833
51324SOL     OW55810   1.737  11.036   8.273
51324SOL    HW155811   1.791  11.114   8.279
51324SOL    HW255812   1.652  11.063   8.309
51325SOL     OW55813  12.838  11.346   7.108
51325SOL    HW155814  12.786  11.422   7.133
51325SOL    HW255815  12.774  11.276   7.096
51326SOL     OW55816   4.795   7.622   3.132
51326SOL    HW155817   4.877   7.576   3.114
51326SOL    HW255818   4.800   7.645   3.225
51327SOL     OW55819   6.593   1.751  11.245
51327SOL    HW155820   6.621   1.777  11.333
51327SOL    HW255821   6.561   1.832  11.205
51328SOL     OW55822   1.356  12.274  13.475
51328SOL    HW155823   1.317  12.352  13.436
51328SOL    HW255824   1.428  12.252  13.416
51329SOL     OW55825   5.009   9.879  13.583
51329SOL    HW155826   4.946   9.815  13.549
51329SOL    HW255827   4.999   9.875  13.678
51330SOL     OW55828  11.515   9.896  11.122
51330SOL    HW155829  11.547   9.844  11.048
51330SOL    HW255830  11.521   9.986  11.093
51331SOL     OW55831   8.016   2.229   2.803
51331SOL    HW155832   7.946   2.223   2.867
51331SOL    HW255833   7.997   2.161   2.739
51332SOL     OW55834  11.003   4.355   4.364
51332SOL    HW155835  11.002   4.287   4.431
51332SOL    HW255836  11.043   4.431   4.408
51333SOL     OW55837   7.682   2.784   2.789
51333SOL    HW155838   7.618   2.743   2.731
51333SOL    HW255839   7.742   2.712   2.811
51334SOL     OW55840   8.899   6.228  10.571
51334SOL    HW155841   8.820   6.201  10.618
51334SOL    HW255842   8.879   6.315  10.538
51335SOL     OW55843   5.657   5.109   6.109
51335SOL    HW155844   5.566   5.079   6.104
51335SOL    HW255845   5.652   5.201   6.084
51336SOL     OW55846  14.718  14.431   0.115
51336SOL    HW155847  14.796  14.416   0.168
51336SOL    HW255848  14.650  14.377   0.156
51337SOL     OW55849  12.373  11.013   7.027
51337SOL    HW155850  12.316  11.069   6.974
51337SOL    HW255851  12.396  11.066   7.103
51338SOL     OW55852   0.977   3.781   6.161
51338SOL    HW155853   1.039   3.734   6.217
51338SOL    HW255854   1.028   3.804   6.083
51339SOL     OW55855  10.900  13.597  10.771
51339SOL    HW155856  10.951  13.517  10.781
51339SOL    HW255857  10.917  13.625  10.681
51340SOL     OW55858   8.448   6.211   6.972
51340SOL    HW155859   8.418   6.177   6.887
51340SOL    HW255860   8.444   6.136   7.031
51341SOL     OW55861   3.836  13.966  12.946
51341SOL    HW155862   3.769  13.898  12.948
51341SOL    HW255863   3.791  14.043  12.909
51342SOL     OW55864   2.033  13.956   1.209
51342SOL    HW155865   1.946  13.972   1.171
51342SOL    HW255866   2.076  13.899   1.146
51343SOL     OW55867  11.723   3.939   0.707
51343SOL    HW155868  11.817   3.949   0.716
51343SOL    HW255869  11.705   3.851   0.741
51344SOL     OW55870   2.702  13.690  12.447
51344SOL    HW155871   2.763  13.644  12.390
51344SOL    HW255872   2.631  13.718  12.389
51345SOL     OW55873  12.743  10.113  14.308
51345SOL    HW155874  12.822  10.120  14.255
51345SOL    HW255875  12.710  10.203  14.315
51346SOL     OW55876   9.130   7.701  14.523
51346SOL    HW155877   9.225   7.712  14.528
51346SOL    HW255878   9.114   7.618  14.567
51347SOL     OW55879   1.249  12.746  10.142
51347SOL    HW155880   1.331  12.755  10.190
51347SOL    HW255881   1.240  12.828  10.094
51348SOL     OW55882   7.553   6.105  10.947
51348SOL    HW155883   7.533   6.162  10.873
51348SOL    HW255884   7.608   6.158  11.004
51349SOL     OW55885   3.756  14.285  14.835
51349SOL    HW155886   3.773  14.320  14.748
51349SOL    HW255887   3.815  14.334   0.013
51350SOL     OW55888   7.756   2.224   4.340
51350SOL    HW155889   7.767   2.196   4.431
51350SOL    HW255890   7.832   2.187   4.294
51351SOL     OW55891   6.072   3.381   8.415
51351SOL    HW155892   6.003   3.360   8.477
51351SOL    HW255893   6.034   3.449   8.359
51352SOL     OW55894  14.089   0.896   7.429
51352SOL    HW155895  14.074   0.986   7.460
51352SOL    HW255896  14.077   0.842   7.507
51353SOL     OW55897   2.372  10.770   5.815
51353SOL    HW155898   2.278  10.771   5.798
51353SOL    HW255899   2.382  10.821   5.896
51354SOL     OW55900  10.204  12.997   1.340
51354SOL    HW155901  10.209  12.997   1.245
51354SOL    HW255902  10.246  12.915   1.366
51355SOL     OW55903   6.739   0.363  10.534
51355SOL    HW155904   6.760   0.372  10.627
51355SOL    HW255905   6.716   0.451  10.505
51356SOL     OW55906   2.259   1.907   3.448
51356SOL    HW155907   2.326   1.960   3.404
51356SOL    HW255908   2.309   1.838   3.491
51357SOL     OW55909   8.989   3.519  10.292
51357SOL    HW155910   9.031   3.605  10.290
51357SOL    HW255911   9.054   3.459  10.255
51358SOL     OW55912   4.873   4.136  13.051
51358SOL    HW155913   4.823   4.101  12.977
51358SOL    HW255914   4.849   4.079  13.124
51359SOL     OW55915   2.541   5.248  12.473
51359SOL    HW155916   2.556   5.343  12.475
51359SOL    HW255917   2.579   5.216  12.555
51360SOL     OW55918   4.672   8.202   0.696
51360SOL    HW155919   4.768   8.209   0.689
51360SOL    HW255920   4.645   8.282   0.741
51361SOL     OW55921   0.521   6.898   0.621
51361SOL    HW155922   0.591   6.886   0.685
51361SOL    HW255923   0.509   6.993   0.618
51362SOL     OW55924   0.247   7.252   2.109
51362SOL    HW155925   0.161   7.290   2.127
51362SOL    HW255926   0.233   7.195   2.034
51363SOL     OW55927  10.342   4.811  10.911
51363SOL    HW155928  10.297   4.754  10.848
51363SOL    HW255929  10.335   4.765  10.994
51364SOL     OW55930   1.791   7.297   1.560
51364SOL    HW155931   1.765   7.326   1.473
51364SOL    HW255932   1.883   7.322   1.567
51365SOL     OW55933   0.724  14.112   7.462
51365SOL    HW155934   0.682  14.195   7.436
51365SOL    HW255935   0.761  14.130   7.548
51366SOL     OW55936  12.073   4.893   1.842
51366SOL    HW155937  12.012   4.910   1.913
51366SOL    HW255938  12.148   4.851   1.885
51367SOL     OW55939   2.435  13.743  10.715
51367SOL    HW155940   2.348  13.722  10.748
51367SOL    HW255941   2.419  13.795  10.636
51368SOL     OW55942   2.276   5.928   2.060
51368SOL    HW155943   2.222   5.981   2.002
51368SOL    HW255944   2.228   5.927   2.143
51369SOL     OW55945   7.603  14.371   6.965
51369SOL    HW155946   7.586  14.281   6.935
51369SOL    HW255947   7.523  14.418   6.944
51370SOL     OW55948   4.898   8.850   4.386
51370SOL    HW155949   4.829   8.911   4.361
51370SOL    HW255950   4.978   8.903   4.390
51371SOL     OW55951   0.955   0.816   4.313
51371SOL    HW155952   0.904   0.891   4.342
51371SOL    HW255953   1.033   0.854   4.272
51372SOL     OW55954   8.843   9.829  13.895
51372SOL    HW155955   8.749   9.834  13.876
51372SOL    HW255956   8.848   9.787  13.980
51373SOL     OW55957   2.871   4.329  14.167
51373SOL    HW155958   2.789   4.373  14.190
51373SOL    HW255959   2.938   4.396  14.178
51374SOL     OW55960  11.077   2.829  14.243
51374SOL    HW155961  11.124   2.820  14.326
51374SOL    HW255962  11.049   2.921  14.242
51375SOL     OW55963   2.247   6.861  10.941
51375SOL    HW155964   2.174   6.901  10.894
51375SOL    HW255965   2.325   6.899  10.900
51376SOL     OW55966   0.272   2.015   2.414
51376SOL    HW155967   0.365   1.993   2.415
51376SOL    HW255968   0.267   2.094   2.361
51377SOL     OW55969   4.224   9.212   7.854
51377SOL    HW155970   4.270   9.275   7.910
51377SOL    HW255971   4.274   9.131   7.863
51378SOL     OW55972   9.808   9.878  14.310
51378SOL    HW155973   9.753   9.816  14.358
51378SOL    HW255974   9.854   9.823  14.246
51379SOL     OW55975   6.335  14.394   9.168
51379SOL    HW155976   6.325  14.328   9.100
51379SOL    HW255977   6.299  14.353   9.247
51380SOL     OW55978  11.882   4.075   0.306
51380SOL    HW155979  11.895   3.992   0.352
51380SOL    HW255980  11.886   4.051   0.213
51381SOL     OW55981   8.164  13.412   5.937
51381SOL    HW155982   8.168  13.319   5.956
51381SOL    HW255983   8.142  13.453   6.020
51382SOL     OW55984   3.796   1.071   5.314
51382SOL    HW155985   3.863   1.139   5.309
51382SOL    HW255986   3.717   1.117   5.345
51383SOL     OW55987  12.046  11.760   9.657
51383SOL    HW155988  11.973  11.711   9.618
51383SOL    HW255989  12.101  11.784   9.583
51384SOL     OW55990   3.266  14.653   1.666
51384SOL    HW155991   3.254  14.639   1.572
51384SOL    HW255992   3.178  14.651   1.702
51385SOL     OW55993   0.062   9.488   5.004
51385SOL    HW155994   0.076   9.430   5.079
51385SOL    HW255995   0.091   9.436   4.929
51386SOL     OW55996   9.233   6.733   0.977
51386SOL    HW155997   9.256   6.780   1.058
51386SOL    HW255998   9.267   6.787   0.907
51387SOL     OW55999  10.159   5.891  14.479
51387SOL    HW156000  10.191   5.968  14.431
51387SOL    HW256001  10.178   5.909  14.570
51388SOL     OW56002   8.164   2.071   1.658
51388SOL    HW156003   8.229   2.117   1.710
51388SOL    HW256004   8.209   2.051   1.576
51389SOL     OW56005   0.168  13.661   9.829
51389SOL    HW156006   0.219  13.580   9.835
51389SOL    HW256007   0.147  13.670   9.736
51390SOL     OW56008   0.548  14.859   9.109
51390SOL    HW156009   0.528  14.778   9.156
51390SOL    HW256010   0.594   0.034   9.172
51391SOL     OW56011   5.660   8.424   1.992
51391SOL    HW156012   5.696   8.353   2.045
51391SOL    HW256013   5.683   8.402   1.902
51392SOL     OW56014   4.022   8.274  13.908
51392SOL    HW156015   4.004   8.192  13.862
51392SOL    HW256016   4.113   8.295  13.885
51393SOL     OW56017   7.796   6.960   7.439
51393SOL    HW156018   7.731   6.995   7.378
51393SOL    HW256019   7.754   6.967   7.525
51394SOL     OW56020   5.744   5.595   8.436
51394SOL    HW156021   5.676   5.661   8.449
51394SOL    HW256022   5.794   5.627   8.362
51395SOL     OW56023   6.485   8.901   2.540
51395SOL    HW156024   6.551   8.964   2.511
51395SOL    HW256025   6.528   8.850   2.608
51396SOL     OW56026  10.187   4.654   8.860
51396SOL    HW156027  10.218   4.743   8.845
51396SOL    HW256028  10.176   4.617   8.772
51397SOL     OW56029   7.437  14.232   7.789
51397SOL    HW156030   7.448  14.169   7.718
51397SOL    HW256031   7.376  14.190   7.850
51398SOL     OW56032   1.205   1.379   0.001
51398SOL    HW156033   1.233   1.382  14.789
51398SOL    HW256034   1.174   1.289   0.014
51399SOL     OW56035   9.048   1.152   0.591
51399SOL    HW156036   9.007   1.194   0.515
51399SOL    HW256037   9.122   1.104   0.553
51400SOL     OW56038   0.855  12.862  10.415
51400SOL    HW156039   0.773  12.891  10.454
51400SOL    HW256040   0.921  12.922  10.451
51401SOL     OW56041   3.936  13.247   0.597
51401SOL    HW156042   3.920  13.259   0.503
51401SOL    HW256043   3.868  13.299   0.640
51402SOL     OW56044   6.720  11.210   3.268
51402SOL    HW156045   6.721  11.182   3.176
51402SOL    HW256046   6.796  11.268   3.276
51403SOL     OW56047   8.305   3.227  13.657
51403SOL    HW156048   8.226   3.281  13.659
51403SOL    HW256049   8.349   3.252  13.576
51404SOL     OW56050  11.053   3.518  11.761
51404SOL    HW156051  11.142   3.483  11.764
51404SOL    HW256052  11.026   3.509  11.670
51405SOL     OW56053   7.194  11.881   3.361
51405SOL    HW156054   7.145  11.913   3.436
51405SOL    HW256055   7.132  11.882   3.289
51406SOL     OW56056   3.946   2.076   9.863
51406SOL    HW156057   3.997   1.995   9.863
51406SOL    HW256058   3.969   2.119   9.945
51407SOL     OW56059   5.440   1.757   1.039
51407SOL    HW156060   5.382   1.713   0.977
51407SOL    HW256061   5.505   1.690   1.063
51408SOL     OW56062   5.879  11.951   8.779
51408SOL    HW156063   5.970  11.921   8.777
51408SOL    HW256064   5.847  11.927   8.866
51409SOL     OW56065   1.087  11.661   4.979
51409SOL    HW156066   1.071  11.656   4.884
51409SOL    HW256067   1.093  11.754   4.997
51410SOL     OW56068   5.647   9.490   6.857
51410SOL    HW156069   5.584   9.522   6.793
51410SOL    HW256070   5.723   9.464   6.806
51411SOL     OW56071   3.886   9.776  14.079
51411SOL    HW156072   3.826   9.796  14.008
51411SOL    HW256073   3.840   9.800  14.158
51412SOL     OW56074   2.715  11.593  14.622
51412SOL    HW156075   2.784  11.596  14.556
51412SOL    HW256076   2.699  11.499  14.634
51413SOL     OW56077  11.125   1.138   1.566
51413SOL    HW156078  11.033   1.163   1.575
51413SOL    HW256079  11.174   1.216   1.592
51414SOL     OW56080  11.532  13.284   6.362
51414SOL    HW156081  11.490  13.281   6.447
51414SOL    HW256082  11.535  13.377   6.339
51415SOL     OW56083   2.443  12.201   5.588
51415SOL    HW156084   2.529  12.173   5.559
51415SOL    HW256085   2.420  12.272   5.528
51416SOL     OW56086   0.832   2.352  12.730
51416SOL    HW156087   0.763   2.344  12.665
51416SOL    HW256088   0.855   2.261  12.752
51417SOL     OW56089   8.397  13.227  14.161
51417SOL    HW156090   8.355  13.144  14.181
51417SOL    HW256091   8.452  13.208  14.084
51418SOL     OW56092  11.756  11.442  10.455
51418SOL    HW156093  11.707  11.386  10.394
51418SOL    HW256094  11.719  11.529  10.443
51419SOL     OW56095  13.498  10.913  12.810
51419SOL    HW156096  13.511  10.967  12.732
51419SOL    HW256097  13.488  10.824  12.776
51420SOL     OW56098  13.735   4.867   5.169
51420SOL    HW156099  13.723   4.844   5.261
51420SOL    HW256100  13.749   4.783   5.125
51421SOL     OW56101   4.071   8.946  13.315
51421SOL    HW156102   4.073   9.039  13.337
51421SOL    HW256103   4.160   8.926  13.286
51422SOL     OW56104  10.529  10.730  13.323
51422SOL    HW156105  10.532  10.774  13.238
51422SOL    HW256106  10.586  10.654  13.312
51423SOL     OW56107   2.758   2.217   0.789
51423SOL    HW156108   2.749   2.124   0.765
51423SOL    HW256109   2.681   2.235   0.844
51424SOL     OW56110   0.421   7.552   2.516
51424SOL    HW156111   0.483   7.609   2.562
51424SOL    HW256112   0.459   7.465   2.522
51425SOL     OW56113   8.095  12.790   7.190
51425SOL    HW156114   8.105  12.841   7.270
51425SOL    HW256115   8.184  12.764   7.167
51426SOL     OW56116   4.436   2.272   9.984
51426SOL    HW156117   4.465   2.363   9.978
51426SOL    HW256118   4.355   2.276  10.034
51427SOL     OW56119   7.193   3.252  14.195
51427SOL    HW156120   7.150   3.301  14.265
51427SOL    HW256121   7.261   3.310  14.163
51428SOL     OW56122  12.702   6.732   8.141
51428SOL    HW156123  12.777   6.786   8.119
51428SOL    HW256124  12.629   6.794   8.149
51429SOL     OW56125   4.400   5.368   7.482
51429SOL    HW156126   4.336   5.435   7.455
51429SOL    HW256127   4.355   5.319   7.551
51430SOL     OW56128   3.707   5.008  11.487
51430SOL    HW156129   3.712   4.920  11.523
51430SOL    HW256130   3.660   5.059  11.553
51431SOL     OW56131  14.736  11.367   0.547
51431SOL    HW156132  14.760  11.330   0.462
51431SOL    HW256133  14.648  11.402   0.534
51432SOL     OW56134   6.685   5.800   2.455
51432SOL    HW156135   6.725   5.852   2.525
51432SOL    HW256136   6.744   5.810   2.381
51433SOL     OW56137  12.286   4.133   7.129
51433SOL    HW156138  12.335   4.189   7.070
51433SOL    HW256139  12.263   4.057   7.076
51434SOL     OW56140   7.002  11.530  10.553
51434SOL    HW156141   6.926  11.586  10.573
51434SOL    HW256142   7.076  11.575  10.595
51435SOL     OW56143  10.885   5.085  11.487
51435SOL    HW156144  10.975   5.086  11.519
51435SOL    HW256145  10.863   5.177  11.475
51436SOL     OW56146  12.163  10.796   0.079
51436SOL    HW156147  12.162  10.817  14.865
51436SOL    HW256148  12.092  10.733   0.089
51437SOL     OW56149   8.123  13.507   8.319
51437SOL    HW156150   8.156  13.428   8.361
51437SOL    HW256151   8.202  13.552   8.286
51438SOL     OW56152  12.552  12.655   9.173
51438SOL    HW156153  12.494  12.598   9.122
51438SOL    HW256154  12.612  12.595   9.217
51439SOL     OW56155  12.150   1.995  14.711
51439SOL    HW156156  12.194   1.963  14.790
51439SOL    HW256157  12.183   1.941  14.640
51440SOL     OW56158   2.991  14.465   3.351
51440SOL    HW156159   2.934  14.413   3.407
51440SOL    HW256160   2.966  14.556   3.370
51441SOL     OW56161  12.415   2.127   8.603
51441SOL    HW156162  12.359   2.062   8.561
51441SOL    HW256163  12.498   2.081   8.619
51442SOL     OW56164   6.340  11.932  13.263
51442SOL    HW156165   6.313  11.856  13.211
51442SOL    HW256166   6.351  12.002  13.199
51443SOL     OW56167   4.810  11.610  14.248
51443SOL    HW156168   4.756  11.560  14.308
51443SOL    HW256169   4.765  11.603  14.164
51444SOL     OW56170   2.903   4.168   5.501
51444SOL    HW156171   2.859   4.144   5.583
51444SOL    HW256172   2.915   4.262   5.506
51445SOL     OW56173   6.225   5.189   0.714
51445SOL    HW156174   6.132   5.166   0.716
51445SOL    HW256175   6.267   5.123   0.770
51446SOL     OW56176   8.632   3.457  10.772
51446SOL    HW156177   8.621   3.418  10.686
51446SOL    HW256178   8.720   3.495  10.771
51447SOL     OW56179   5.146   3.972   0.542
51447SOL    HW156180   5.174   3.918   0.616
51447SOL    HW256181   5.210   4.043   0.539
51448SOL     OW56182   3.189  11.040   1.705
51448SOL    HW156183   3.258  10.991   1.750
51448SOL    HW256184   3.228  11.124   1.683
51449SOL     OW56185   5.781   4.196   7.478
51449SOL    HW156186   5.710   4.178   7.538
51449SOL    HW256187   5.843   4.124   7.491
51450SOL     OW56188  14.172  14.173   1.994
51450SOL    HW156189  14.209  14.262   1.992
51450SOL    HW256190  14.109  14.171   1.922
51451SOL     OW56191  10.537   3.310   3.839
51451SOL    HW156192  10.575   3.359   3.912
51451SOL    HW256193  10.585   3.227   3.840
51452SOL     OW56194   4.204   7.624  10.703
51452SOL    HW156195   4.125   7.657  10.662
51452SOL    HW256196   4.255   7.586  10.630
51453SOL     OW56197   9.075   3.249   8.562
51453SOL    HW156198   9.127   3.321   8.596
51453SOL    HW256199   8.985   3.283   8.559
51454SOL     OW56200   6.426   7.308   4.716
51454SOL    HW156201   6.415   7.296   4.811
51454SOL    HW256202   6.400   7.225   4.677
51455SOL     OW56203  12.262   1.593   0.642
51455SOL    HW156204  12.216   1.676   0.635
51455SOL    HW256205  12.281   1.584   0.736
51456SOL     OW56206   6.615   9.032  10.988
51456SOL    HW156207   6.623   8.938  10.977
51456SOL    HW256208   6.688   9.068  10.937
51457SOL     OW56209  12.939   8.719   1.441
51457SOL    HW156210  13.018   8.692   1.486
51457SOL    HW256211  12.943   8.815   1.440
51458SOL     OW56212  11.826   5.966  10.244
51458SOL    HW156213  11.854   5.935  10.158
51458SOL    HW256214  11.838   5.890  10.302
51459SOL     OW56215  13.358   1.510  10.613
51459SOL    HW156216  13.289   1.566  10.649
51459SOL    HW256217  13.359   1.434  10.671
51460SOL     OW56218  13.786   8.199   0.272
51460SOL    HW156219  13.797   8.106   0.290
51460SOL    HW256220  13.692   8.212   0.267
51461SOL     OW56221   5.683   6.191   6.983
51461SOL    HW156222   5.635   6.259   7.031
51461SOL    HW256223   5.683   6.221   6.892
51462SOL     OW56224   3.306   8.860  12.638
51462SOL    HW156225   3.226   8.821  12.604
51462SOL    HW256226   3.277   8.913  12.713
51463SOL     OW56227  14.594  10.983   5.516
51463SOL    HW156228  14.540  10.942   5.449
51463SOL    HW256229  14.626  11.063   5.476
51464SOL     OW56230  13.702  13.915  10.481
51464SOL    HW156231  13.683  14.009  10.487
51464SOL    HW256232  13.674  13.891  10.393
51465SOL     OW56233   8.724  11.511   3.405
51465SOL    HW156234   8.690  11.477   3.322
51465SOL    HW256235   8.786  11.444   3.435
51466SOL     OW56236   9.043   1.350   2.428
51466SOL    HW156237   9.099   1.410   2.478
51466SOL    HW256238   9.000   1.406   2.363
51467SOL     OW56239   6.987   4.189   9.428
51467SOL    HW156240   7.002   4.276   9.464
51467SOL    HW256241   6.956   4.137   9.502
51468SOL     OW56242   3.482   0.128   3.107
51468SOL    HW156243   3.488   0.071   3.183
51468SOL    HW256244   3.459   0.070   3.035
51469SOL     OW56245   3.309   1.399   7.285
51469SOL    HW156246   3.250   1.328   7.310
51469SOL    HW256247   3.335   1.378   7.195
51470SOL     OW56248  10.658   5.246   6.810
51470SOL    HW156249  10.586   5.192   6.842
51470SOL    HW256250  10.616   5.313   6.756
51471SOL     OW56251   1.657   6.068   2.961
51471SOL    HW156252   1.675   6.073   3.055
51471SOL    HW256253   1.570   6.030   2.954
51472SOL     OW56254   8.412   2.922   3.693
51472SOL    HW156255   8.421   2.900   3.601
51472SOL    HW256256   8.415   2.837   3.738
51473SOL     OW56257  10.880   9.070  11.852
51473SOL    HW156258  10.907   9.043  11.939
51473SOL    HW256259  10.799   9.119  11.866
51474SOL     OW56260  10.568   5.575  13.920
51474SOL    HW156261  10.503   5.518  13.877
51474SOL    HW256262  10.645   5.571  13.863
51475SOL     OW56263  14.061   5.933   9.189
51475SOL    HW156264  13.993   5.884   9.141
51475SOL    HW256265  14.142   5.911   9.143
51476SOL     OW56266   9.312   1.665  13.790
51476SOL    HW156267   9.321   1.758  13.812
51476SOL    HW256268   9.292   1.664  13.697
51477SOL     OW56269   5.253  14.622   9.955
51477SOL    HW156270   5.201  14.643   9.877
51477SOL    HW256271   5.215  14.541   9.988
51478SOL     OW56272  13.765   7.925  10.934
51478SOL    HW156273  13.671   7.904  10.935
51478SOL    HW256274  13.771   8.009  10.978
51479SOL     OW56275  13.422   9.689   2.174
51479SOL    HW156276  13.488   9.633   2.216
51479SOL    HW256277  13.473   9.751   2.121
51480SOL     OW56278   0.402  13.558   3.541
51480SOL    HW156279   0.334  13.614   3.504
51480SOL    HW256280   0.484  13.603   3.519
51481SOL     OW56281  13.710  12.592   3.093
51481SOL    HW156282  13.753  12.637   3.166
51481SOL    HW256283  13.778  12.583   3.027
51482SOL     OW56284  14.491   8.481   5.297
51482SOL    HW156285  14.496   8.396   5.253
51482SOL    HW256286  14.412   8.475   5.351
51483SOL     OW56287   6.754  11.724  12.504
51483SOL    HW156288   6.810  11.801  12.506
51483SOL    HW256289   6.723  11.715  12.594
51484SOL     OW56290   9.214  14.561   1.409
51484SOL    HW156291   9.277  14.498   1.445
51484SOL    HW256292   9.167  14.511   1.343
51485SOL     OW56293   0.697   4.518   1.056
51485SOL    HW156294   0.703   4.440   1.112
51485SOL    HW256295   0.607   4.518   1.024
51486SOL     OW56296   5.189  10.666   2.508
51486SOL    HW156297   5.258  10.726   2.538
51486SOL    HW256298   5.162  10.702   2.423
51487SOL     OW56299  14.415   7.260   1.648
51487SOL    HW156300  14.390   7.240   1.557
51487SOL    HW256301  14.497   7.310   1.640
51488SOL     OW56302   4.362   1.061   3.339
51488SOL    HW156303   4.322   1.133   3.387
51488SOL    HW256304   4.350   0.985   3.395
51489SOL     OW56305  11.567   7.833   6.158
51489SOL    HW156306  11.536   7.924   6.159
51489SOL    HW256307  11.642   7.833   6.217
51490SOL     OW56308  11.956   9.598   8.686
51490SOL    HW156309  12.018   9.594   8.613
51490SOL    HW256310  11.877   9.636   8.648
51491SOL     OW56311   9.548   7.968  12.413
51491SOL    HW156312   9.489   7.899  12.443
51491SOL    HW256313   9.536   8.039  12.476
51492SOL     OW56314   7.050  11.582   1.928
51492SOL    HW156315   7.000  11.504   1.907
51492SOL    HW256316   7.097  11.560   2.008
51493SOL     OW56317   3.988   9.934   9.959
51493SOL    HW156318   4.074   9.920   9.920
51493SOL    HW256319   3.997   9.904  10.049
51494SOL     OW56320  13.155  12.284   6.403
51494SOL    HW156321  13.167  12.313   6.494
51494SOL    HW256322  13.126  12.362   6.357
51495SOL     OW56323   6.178   0.421   1.972
51495SOL    HW156324   6.249   0.484   1.964
51495SOL    HW256325   6.198   0.354   1.907
51496SOL     OW56326   2.191  11.932  13.360
51496SOL    HW156327   2.219  12.017  13.324
51496SOL    HW256328   2.106  11.915  13.318
51497SOL     OW56329   9.660   0.307   3.868
51497SOL    HW156330   9.654   0.213   3.887
51497SOL    HW256331   9.645   0.349   3.953
51498SOL     OW56332  13.658   9.968  12.014
51498SOL    HW156333  13.648   9.876  11.991
51498SOL    HW256334  13.749   9.976  12.041
51499SOL     OW56335   2.030   7.222  10.195
51499SOL    HW156336   2.048   7.132  10.223
51499SOL    HW256337   1.935   7.225  10.184
51500SOL     OW56338   2.594  12.678   6.339
51500SOL    HW156339   2.638  12.617   6.281
51500SOL    HW256340   2.575  12.754   6.283
51501SOL     OW56341  10.360   8.233   5.504
51501SOL    HW156342  10.266   8.236   5.483
51501SOL    HW256343  10.365   8.253   5.597
51502SOL     OW56344   1.673  13.925   2.503
51502SOL    HW156345   1.757  13.963   2.477
51502SOL    HW256346   1.674  13.929   2.598
51503SOL     OW56347   8.797  14.269  13.795
51503SOL    HW156348   8.889  14.263  13.768
51503SOL    HW256349   8.796  14.334  13.865
51504SOL     OW56350  12.309   2.230   2.398
51504SOL    HW156351  12.245   2.300   2.395
51504SOL    HW256352  12.258   2.150   2.391
51505SOL     OW56353   1.544   7.685  12.305
51505SOL    HW156354   1.575   7.773  12.325
51505SOL    HW256355   1.459   7.699  12.263
51506SOL     OW56356   1.469  12.522   5.737
51506SOL    HW156357   1.524  12.485   5.668
51506SOL    HW256358   1.383  12.530   5.697
51507SOL     OW56359   7.953   7.447   0.101
51507SOL    HW156360   7.941   7.369   0.154
51507SOL    HW256361   7.947   7.417   0.010
51508SOL     OW56362   3.098  12.737   0.849
51508SOL    HW156363   3.106  12.653   0.894
51508SOL    HW256364   3.173  12.739   0.789
51509SOL     OW56365  13.590   5.032   5.002
51509SOL    HW156366  13.651   4.973   5.047
51509SOL    HW256367  13.554   5.086   5.072
51510SOL     OW56368   3.237   2.935   5.752
51510SOL    HW156369   3.143   2.941   5.768
51510SOL    HW256370   3.246   2.951   5.658
51511SOL     OW56371  11.885   7.051  14.641
51511SOL    HW156372  11.882   7.142  14.671
51511SOL    HW256373  11.846   7.001  14.713
51512SOL     OW56374   7.561   6.216   6.105
51512SOL    HW156375   7.482   6.178   6.067
51512SOL    HW256376   7.619   6.141   6.119
51513SOL     OW56377   0.883  13.488  13.609
51513SOL    HW156378   0.872  13.429  13.535
51513SOL    HW256379   0.972  13.521  13.602
51514SOL     OW56380  11.135   5.409   2.960
51514SOL    HW156381  11.133   5.432   2.867
51514SOL    HW256382  11.070   5.466   3.000
51515SOL     OW56383  14.778   8.386   2.728
51515SOL    HW156384  14.811   8.315   2.673
51515SOL    HW256385  14.740   8.342   2.804
51516SOL     OW56386  10.873  10.271   3.997
51516SOL    HW156387  10.834  10.317   4.071
51516SOL    HW256388  10.926  10.337   3.952
51517SOL     OW56389   2.910  14.168  13.224
51517SOL    HW156390   2.817  14.177  13.245
51517SOL    HW256391   2.932  14.079  13.252
51518SOL     OW56392   0.045   5.767   8.998
51518SOL    HW156393   0.133   5.733   9.015
51518SOL    HW256394   0.021   5.729   8.914
51519SOL     OW56395  10.578   3.148   0.330
51519SOL    HW156396  10.496   3.195   0.344
51519SOL    HW256397  10.565   3.063   0.373
51520SOL     OW56398  10.097  14.835  13.389
51520SOL    HW156399  10.124  14.826  13.481
51520SOL    HW256400  10.052   0.040  13.386
51521SOL     OW56401   8.410   7.507   8.085
51521SOL    HW156402   8.442   7.584   8.132
51521SOL    HW256403   8.376   7.542   8.002
51522SOL     OW56404   2.286   5.825   4.653
51522SOL    HW156405   2.323   5.863   4.733
51522SOL    HW256406   2.201   5.791   4.680
51523SOL     OW56407   7.415  14.640   0.647
51523SOL    HW156408   7.396  14.630   0.554
51523SOL    HW256409   7.487  14.579   0.663
51524SOL     OW56410   1.816   0.654  14.179
51524SOL    HW156411   1.911   0.661  14.190
51524SOL    HW256412   1.788   0.742  14.156
51525SOL     OW56413   8.469   0.489   9.131
51525SOL    HW156414   8.403   0.557   9.118
51525SOL    HW256415   8.551   0.536   9.140
51526SOL     OW56416  10.553   6.777  14.780
51526SOL    HW156417  10.475   6.724  14.795
51526SOL    HW256418  10.609   6.723  14.725
51527SOL     OW56419  13.170   7.346   9.187
51527SOL    HW156420  13.080   7.317   9.170
51527SOL    HW256421  13.201   7.286   9.255
51528SOL     OW56422  11.512   0.556  11.466
51528SOL    HW156423  11.528   0.647  11.443
51528SOL    HW256424  11.556   0.544  11.550
51529SOL     OW56425   0.942   9.228   0.634
51529SOL    HW156426   0.991   9.268   0.706
51529SOL    HW256427   0.888   9.161   0.676
51530SOL     OW56428   2.890   4.093   9.502
51530SOL    HW156429   2.874   4.003   9.534
51530SOL    HW256430   2.974   4.088   9.458
51531SOL     OW56431  10.167  12.127   6.294
51531SOL    HW156432  10.140  12.194   6.231
51531SOL    HW256433  10.112  12.052   6.273
51532SOL     OW56434   8.514   5.059   0.795
51532SOL    HW156435   8.586   5.121   0.785
51532SOL    HW256436   8.556   4.979   0.826
51533SOL     OW56437  10.395   7.040   0.978
51533SOL    HW156438  10.405   6.974   0.909
51533SOL    HW256439  10.386   6.989   1.058
51534SOL     OW56440   4.287   9.805   5.097
51534SOL    HW156441   4.343   9.774   5.169
51534SOL    HW256442   4.258   9.726   5.053
51535SOL     OW56443  10.512  12.325   0.243
51535SOL    HW156444  10.451  12.313   0.316
51535SOL    HW256445  10.489  12.411   0.207
51536SOL     OW56446   6.300   4.609  13.992
51536SOL    HW156447   6.225   4.645  13.944
51536SOL    HW256448   6.271   4.604  14.083
51537SOL     OW56449   4.676  12.355   4.260
51537SOL    HW156450   4.664  12.450   4.248
51537SOL    HW256451   4.750  12.334   4.203
51538SOL     OW56452   6.057  12.199   0.533
51538SOL    HW156453   6.124  12.132   0.548
51538SOL    HW256454   5.980  12.150   0.505
51539SOL     OW56455   8.828  11.976   7.821
51539SOL    HW156456   8.903  12.036   7.815
51539SOL    HW256457   8.834  11.922   7.742
51540SOL     OW56458   8.143  11.303  11.502
51540SOL    HW156459   8.053  11.308  11.469
51540SOL    HW256460   8.191  11.370  11.454
51541SOL     OW56461   5.091   9.352   2.544
51541SOL    HW156462   5.028   9.424   2.535
51541SOL    HW256463   5.054   9.297   2.613
51542SOL     OW56464   1.872   8.788   1.793
51542SOL    HW156465   1.856   8.725   1.863
51542SOL    HW256466   1.857   8.874   1.833
51543SOL     OW56467   5.267   4.806   9.193
51543SOL    HW156468   5.241   4.895   9.168
51543SOL    HW256469   5.321   4.776   9.120
51544SOL     OW56470   2.653  14.341  14.352
51544SOL    HW156471   2.586  14.368  14.288
51544SOL    HW256472   2.703  14.421  14.369
51545SOL     OW56473   7.548   1.295   3.897
51545SOL    HW156474   7.616   1.359   3.920
51545SOL    HW256475   7.569   1.270   3.807
51546SOL     OW56476   6.305  10.375   0.877
51546SOL    HW156477   6.228  10.326   0.905
51546SOL    HW256478   6.271  10.461   0.853
51547SOL     OW56479  10.628   4.585   5.284
51547SOL    HW156480  10.661   4.673   5.302
51547SOL    HW256481  10.617   4.582   5.189
51548SOL     OW56482  13.097   0.696  14.542
51548SOL    HW156483  13.110   0.755  14.468
51548SOL    HW256484  13.091   0.753  14.618
51549SOL     OW56485  10.387   0.682   7.420
51549SOL    HW156486  10.295   0.706   7.421
51549SOL    HW256487  10.396   0.615   7.488
51550SOL     OW56488   1.417   7.538   0.669
51550SOL    HW156489   1.378   7.500   0.590
51550SOL    HW256490   1.467   7.613   0.637
51551SOL     OW56491   4.154   0.563   6.956
51551SOL    HW156492   4.124   0.650   6.932
51551SOL    HW256493   4.238   0.578   7.001
51552SOL     OW56494   1.715   7.358  11.134
51552SOL    HW156495   1.665   7.419  11.189
51552SOL    HW256496   1.733   7.408  11.054
51553SOL     OW56497   9.876   9.930   2.680
51553SOL    HW156498   9.838   9.842   2.673
51553SOL    HW256499   9.848   9.962   2.765
51554SOL     OW56500   8.596   5.472   3.587
51554SOL    HW156501   8.664   5.485   3.654
51554SOL    HW256502   8.577   5.378   3.592
51555SOL     OW56503   1.775   2.602  11.383
51555SOL    HW156504   1.721   2.680  11.370
51555SOL    HW256505   1.712   2.531  11.397
51556SOL     OW56506  11.541  14.373  10.831
51556SOL    HW156507  11.481  14.448  10.830
51556SOL    HW256508  11.580  14.375  10.919
51557SOL     OW56509   0.061   4.622  13.368
51557SOL    HW156510   0.077   4.691  13.431
51557SOL    HW256511   0.115   4.645  13.292
51558SOL     OW56512   3.901  10.786   0.398
51558SOL    HW156513   3.905  10.879   0.420
51558SOL    HW256514   3.808  10.764   0.405
51559SOL     OW56515   5.777  10.581  14.458
51559SOL    HW156516   5.818  10.558  14.541
51559SOL    HW256517   5.807  10.670  14.440
51560SOL     OW56518   5.433  12.559   7.833
51560SOL    HW156519   5.425  12.654   7.823
51560SOL    HW256520   5.515  12.537   7.789
51561SOL     OW56521   4.143   0.456  12.669
51561SOL    HW156522   4.071   0.511  12.700
51561SOL    HW256523   4.206   0.456  12.741
51562SOL     OW56524   4.860  11.219   6.006
51562SOL    HW156525   4.819  11.300   6.035
51562SOL    HW256526   4.802  11.150   6.039
51563SOL     OW56527   6.782   0.707   8.329
51563SOL    HW156528   6.812   0.617   8.333
51563SOL    HW256529   6.801   0.743   8.416
51564SOL     OW56530   0.837  13.421   4.326
51564SOL    HW156531   0.832  13.473   4.406
51564SOL    HW256532   0.927  13.388   4.323
51565SOL     OW56533   3.980   4.924  10.469
51565SOL    HW156534   3.994   4.873  10.549
51565SOL    HW256535   4.002   5.014  10.494
51566SOL     OW56536   3.853   4.620   3.639
51566SOL    HW156537   3.887   4.652   3.722
51566SOL    HW256538   3.880   4.686   3.575
51567SOL     OW56539   7.488  12.170   5.747
51567SOL    HW156540   7.405  12.189   5.791
51567SOL    HW256541   7.473  12.192   5.655
51568SOL     OW56542   3.767  13.364  10.479
51568SOL    HW156543   3.821  13.401  10.548
51568SOL    HW256544   3.828  13.347  10.407
51569SOL     OW56545   2.991  13.116   5.318
51569SOL    HW156546   3.003  13.177   5.390
51569SOL    HW256547   2.908  13.142   5.277
51570SOL     OW56548   4.627   8.466   0.770
51570SOL    HW156549   4.671   8.450   0.853
51570SOL    HW256550   4.689   8.519   0.720
51571SOL     OW56551  11.906   1.520  13.413
51571SOL    HW156552  11.837   1.551  13.471
51571SOL    HW256553  11.902   1.425  13.418
51572SOL     OW56554   3.844   5.725   5.414
51572SOL    HW156555   3.903   5.734   5.339
51572SOL    HW256556   3.879   5.787   5.479
51573SOL     OW56557  13.587   6.820   9.506
51573SOL    HW156558  13.647   6.892   9.484
51573SOL    HW256559  13.505   6.864   9.530
51574SOL     OW56560   1.223  12.749   9.133
51574SOL    HW156561   1.177  12.825   9.170
51574SOL    HW256562   1.278  12.785   9.064
51575SOL     OW56563   3.465  12.094   1.367
51575SOL    HW156564   3.512  12.018   1.400
51575SOL    HW256565   3.504  12.168   1.412
51576SOL     OW56566  12.199   6.572   4.765
51576SOL    HW156567  12.200   6.477   4.750
51576SOL    HW256568  12.107   6.596   4.755
51577SOL     OW56569  14.632   1.861   1.402
51577SOL    HW156570  14.573   1.787   1.384
51577SOL    HW256571  14.668   1.843   1.489
51578SOL     OW56572  11.924   8.278   3.995
51578SOL    HW156573  11.877   8.353   3.960
51578SOL    HW256574  11.974   8.314   4.069
51579SOL     OW56575   8.993   1.742   2.561
51579SOL    HW156576   8.959   1.831   2.574
51579SOL    HW256577   9.030   1.743   2.473
51580SOL     OW56578   2.539   4.619  11.390
51580SOL    HW156579   2.463   4.664  11.426
51580SOL    HW256580   2.516   4.526  11.394
51581SOL     OW56581   9.202   8.707  11.649
51581SOL    HW156582   9.273   8.682  11.589
51581SOL    HW256583   9.208   8.644  11.721
51582SOL     OW56584   8.391   7.819   0.849
51582SOL    HW156585   8.427   7.785   0.931
51582SOL    HW256586   8.458   7.879   0.816
51583SOL     OW56587   0.493   9.742   9.282
51583SOL    HW156588   0.488   9.811   9.348
51583SOL    HW256589   0.548   9.674   9.321
51584SOL     OW56590   5.473   8.871   3.409
51584SOL    HW156591   5.546   8.819   3.375
51584SOL    HW256592   5.427   8.812   3.469
51585SOL     OW56593   8.305   2.687   3.942
51585SOL    HW156594   8.361   2.616   3.913
51585SOL    HW256595   8.224   2.644   3.971
51586SOL     OW56596  10.365   4.775   7.311
51586SOL    HW156597  10.457   4.769   7.285
51586SOL    HW256598  10.319   4.807   7.234
51587SOL     OW56599  13.431   5.828  13.119
51587SOL    HW156600  13.352   5.819  13.173
51587SOL    HW256601  13.401   5.808  13.030
51588SOL     OW56602   4.378   1.596   2.029
51588SOL    HW156603   4.328   1.548   1.964
51588SOL    HW256604   4.419   1.668   1.980
51589SOL     OW56605  10.029  11.429   6.504
51589SOL    HW156606   9.984  11.472   6.577
51589SOL    HW256607  10.010  11.336   6.515
51590SOL     OW56608   9.514   3.677  14.484
51590SOL    HW156609   9.509   3.673  14.388
51590SOL    HW256610   9.555   3.594  14.509
51591SOL     OW56611   3.650   4.397  13.842
51591SOL    HW156612   3.630   4.340  13.916
51591SOL    HW256613   3.682   4.337  13.774
51592SOL     OW56614  13.324   4.405   1.199
51592SOL    HW156615  13.261   4.387   1.268
51592SOL    HW256616  13.301   4.344   1.129
51593SOL     OW56617   1.065   4.629  13.194
51593SOL    HW156618   1.002   4.695  13.166
51593SOL    HW256619   1.145   4.651  13.146
51594SOL     OW56620   3.545   5.993   8.962
51594SOL    HW156621   3.565   5.975   8.870
51594SOL    HW256622   3.606   5.939   9.011
51595SOL     OW56623   3.643   3.165   6.575
51595SOL    HW156624   3.562   3.214   6.586
51595SOL    HW256625   3.685   3.168   6.661
51596SOL     OW56626  11.646   8.937   3.755
51596SOL    HW156627  11.638   8.937   3.660
51596SOL    HW256628  11.740   8.930   3.772
51597SOL     OW56629   5.964   2.027   5.825
51597SOL    HW156630   5.876   2.050   5.854
51597SOL    HW256631   6.019   2.101   5.853
51598SOL     OW56632   8.035  14.702   9.385
51598SOL    HW156633   8.050  14.610   9.407
51598SOL    HW256634   8.120  14.734   9.356
51599SOL     OW56635  12.652  12.586   3.320
51599SOL    HW156636  12.735  12.552   3.355
51599SOL    HW256637  12.659  12.681   3.328
51600SOL     OW56638   9.768  13.183   9.255
51600SOL    HW156639   9.799  13.097   9.225
51600SOL    HW256640   9.812  13.246   9.197
51601SOL     OW56641   6.174   9.967   2.622
51601SOL    HW156642   6.224   9.948   2.542
51601SOL    HW256643   6.209   9.906   2.687
51602SOL     OW56644   1.376  13.270   5.268
51602SOL    HW156645   1.284  13.244   5.263
51602SOL    HW256646   1.423  13.187   5.274
51603SOL     OW56647   8.458   1.811   9.086
51603SOL    HW156648   8.549   1.819   9.115
51603SOL    HW256649   8.440   1.894   9.042
51604SOL     OW56650   0.116   7.932   2.487
51604SOL    HW156651   0.130   7.849   2.533
51604SOL    HW256652   0.164   7.923   2.405
51605SOL     OW56653   2.921   1.117  12.454
51605SOL    HW156654   2.969   1.193  12.487
51605SOL    HW256655   2.870   1.087  12.530
51606SOL     OW56656   0.157  10.715   8.138
51606SOL    HW156657   0.146  10.630   8.182
51606SOL    HW256658   0.250  10.716   8.112
51607SOL     OW56659  13.691   1.978   8.570
51607SOL    HW156660  13.743   1.949   8.645
51607SOL    HW256661  13.706   2.073   8.566
51608SOL     OW56662   6.036   8.103  12.290
51608SOL    HW156663   5.966   8.164  12.265
51608SOL    HW256664   6.075   8.142  12.368
51609SOL     OW56665   1.579   9.361  11.506
51609SOL    HW156666   1.666   9.335  11.475
51609SOL    HW256667   1.596   9.425  11.576
51610SOL     OW56668   3.654   9.463   2.587
51610SOL    HW156669   3.657   9.480   2.493
51610SOL    HW256670   3.712   9.529   2.625
51611SOL     OW56671   5.399   5.971   7.364
51611SOL    HW156672   5.427   6.055   7.403
51611SOL    HW256673   5.448   5.966   7.282
51612SOL     OW56674   3.673  13.661   9.870
51612SOL    HW156675   3.727  13.734   9.841
51612SOL    HW256676   3.720  13.583   9.842
51613SOL     OW56677   1.800  12.991   7.217
51613SOL    HW156678   1.889  12.959   7.227
51613SOL    HW256679   1.744  12.917   7.241
51614SOL     OW56680  13.371   6.680   8.472
51614SOL    HW156681  13.307   6.713   8.408
51614SOL    HW256682  13.411   6.604   8.429
51615SOL     OW56683   4.844   4.041   3.734
51615SOL    HW156684   4.809   4.118   3.690
51615SOL    HW256685   4.845   3.973   3.666
51616SOL     OW56686  12.701  13.757   9.416
51616SOL    HW156687  12.654  13.711   9.346
51616SOL    HW256688  12.661  13.725   9.497
51617SOL     OW56689  14.481   0.504   8.722
51617SOL    HW156690  14.464   0.437   8.656
51617SOL    HW256691  14.574   0.495   8.743
51618SOL     OW56692  13.422   6.534   7.483
51618SOL    HW156693  13.474   6.611   7.504
51618SOL    HW256694  13.485   6.462   7.481
51619SOL     OW56695   9.706   6.510   7.668
51619SOL    HW156696   9.651   6.437   7.697
51619SOL    HW256697   9.708   6.569   7.742
51620SOL     OW56698  13.906  14.427  14.397
51620SOL    HW156699  13.953  14.366  14.453
51620SOL    HW256700  13.969  14.451  14.329
51621SOL     OW56701   1.349  10.702   5.803
51621SOL    HW156702   1.287  10.633   5.827
51621SOL    HW256703   1.423  10.655   5.763
51622SOL     OW56704  12.608   0.705   3.238
51622SOL    HW156705  12.550   0.628   3.240
51622SOL    HW256706  12.567   0.763   3.173
51623SOL     OW56707  14.365   5.911   1.496
51623SOL    HW156708  14.279   5.873   1.480
51623SOL    HW256709  14.419   5.836   1.523
51624SOL     OW56710   9.153   4.559   4.053
51624SOL    HW156711   9.118   4.648   4.053
51624SOL    HW256712   9.215   4.557   3.980
51625SOL     OW56713   9.988  12.859  10.077
51625SOL    HW156714   9.931  12.919  10.124
51625SOL    HW256715  10.011  12.792  10.142
51626SOL     OW56716   9.954   1.871  13.604
51626SOL    HW156717   9.895   1.911  13.541
51626SOL    HW256718   9.948   1.777  13.586
51627SOL     OW56719   3.777   3.497   1.665
51627SOL    HW156720   3.862   3.540   1.679
51627SOL    HW256721   3.785   3.454   1.580
51628SOL     OW56722  11.519  14.855   3.715
51628SOL    HW156723  11.576  14.811   3.778
51628SOL    HW256724  11.445   0.007   3.767
51629SOL     OW56725   7.696   6.982   5.809
51629SOL    HW156726   7.784   7.018   5.802
51629SOL    HW256727   7.640   7.047   5.768
51630SOL     OW56728   5.297  12.011  11.824
51630SOL    HW156729   5.226  12.026  11.887
51630SOL    HW256730   5.289  11.918  11.801
51631SOL     OW56731   8.210  11.158  10.965
51631SOL    HW156732   8.128  11.175  11.012
51631SOL    HW256733   8.186  11.096  10.896
51632SOL     OW56734  10.449   3.093  10.250
51632SOL    HW156735  10.464   3.128  10.338
51632SOL    HW256736  10.354   3.086  10.244
51633SOL     OW56737   4.865   8.107   5.595
51633SOL    HW156738   4.949   8.075   5.564
51633SOL    HW256739   4.819   8.136   5.516
51634SOL     OW56740   6.831   8.547  10.171
51634SOL    HW156741   6.882   8.586  10.242
51634SOL    HW256742   6.762   8.612  10.153
51635SOL     OW56743   6.918   5.771   9.337
51635SOL    HW156744   6.859   5.716   9.389
51635SOL    HW256745   6.924   5.852   9.387
51636SOL     OW56746   7.735  10.208  14.368
51636SOL    HW156747   7.705  10.255  14.290
51636SOL    HW256748   7.768  10.277  14.426
51637SOL     OW56749   5.288   2.018  14.789
51637SOL    HW156750   5.255   2.105  14.763
51637SOL    HW256751   5.258   1.960  14.719
51638SOL     OW56752   8.204   9.961   5.039
51638SOL    HW156753   8.116   9.999   5.037
51638SOL    HW256754   8.203   9.896   4.970
51639SOL     OW56755   1.033   4.323  11.235
51639SOL    HW156756   1.007   4.234  11.261
51639SOL    HW256757   1.128   4.318  11.225
51640SOL     OW56758   2.728   8.038   0.515
51640SOL    HW156759   2.686   8.124   0.524
51640SOL    HW256760   2.805   8.043   0.572
51641SOL     OW56761   9.570   2.023  11.178
51641SOL    HW156762   9.646   2.062  11.135
51641SOL    HW256763   9.545   1.950  11.122
51642SOL     OW56764   3.678   2.429   0.669
51642SOL    HW156765   3.767   2.411   0.640
51642SOL    HW256766   3.688   2.479   0.750
51643SOL     OW56767   2.854   8.246  14.375
51643SOL    HW156768   2.901   8.190  14.313
51643SOL    HW256769   2.924   8.288  14.426
51644SOL     OW56770  11.203  11.407   3.021
51644SOL    HW156771  11.169  11.377   3.106
51644SOL    HW256772  11.217  11.501   3.032
51645SOL     OW56773  11.245  11.394  14.397
51645SOL    HW156774  11.284  11.462  14.342
51645SOL    HW256775  11.183  11.349  14.339
51646SOL     OW56776   3.837   5.035   6.479
51646SOL    HW156777   3.863   4.979   6.553
51646SOL    HW256778   3.900   5.107   6.481
51647SOL     OW56779  11.386   8.504   1.809
51647SOL    HW156780  11.326   8.565   1.765
51647SOL    HW256781  11.340   8.420   1.808
51648SOL     OW56782  13.692   5.264   4.887
51648SOL    HW156783  13.661   5.183   4.928
51648SOL    HW256784  13.664   5.333   4.948
51649SOL     OW56785   9.916   4.685   7.647
51649SOL    HW156786   9.980   4.753   7.666
51649SOL    HW256787   9.933   4.659   7.557
51650SOL     OW56788  11.926   0.046   3.429
51650SOL    HW156789  11.843   0.080   3.394
51650SOL    HW256790  11.976   0.124   3.453
51651SOL     OW56791   4.564   2.558   3.624
51651SOL    HW156792   4.502   2.534   3.693
51651SOL    HW256793   4.605   2.638   3.656
51652SOL     OW56794   5.256   0.913   8.640
51652SOL    HW156795   5.265   0.948   8.729
51652SOL    HW256796   5.223   0.825   8.652
51653SOL     OW56797   5.326  14.061  12.437
51653SOL    HW156798   5.403  14.116  12.421
51653SOL    HW256799   5.252  14.121  12.429
51654SOL     OW56800   7.707   4.143  11.335
51654SOL    HW156801   7.658   4.167  11.256
51654SOL    HW256802   7.707   4.047  11.334
51655SOL     OW56803  10.075  10.829   7.374
51655SOL    HW156804  10.151  10.846   7.318
51655SOL    HW256805  10.052  10.916   7.409
51656SOL     OW56806  13.701   9.037  10.631
51656SOL    HW156807  13.723   9.115  10.682
51656SOL    HW256808  13.785   9.005  10.599
51657SOL     OW56809  13.468   4.964   3.777
51657SOL    HW156810  13.379   4.929   3.779
51657SOL    HW256811  13.503   4.935   3.692
51658SOL     OW56812   7.828   0.635  10.289
51658SOL    HW156813   7.826   0.548  10.248
51658SOL    HW256814   7.917   0.644  10.324
51659SOL     OW56815   7.186   2.558   8.689
51659SOL    HW156816   7.155   2.521   8.771
51659SOL    HW256817   7.129   2.520   8.622
51660SOL     OW56818   9.986   1.211   7.603
51660SOL    HW156819  10.029   1.179   7.524
51660SOL    HW256820   9.894   1.188   7.591
51661SOL     OW56821   2.925  12.959   6.923
51661SOL    HW156822   2.923  13.019   6.997
51661SOL    HW256823   2.861  12.891   6.945
51662SOL     OW56824  12.324  12.040   7.720
51662SOL    HW156825  12.417  12.062   7.726
51662SOL    HW256826  12.301  12.061   7.629
51663SOL     OW56827  14.687   4.764  13.266
51663SOL    HW156828  14.774   4.736  13.237
51663SOL    HW256829  14.651   4.813  13.192
51664SOL     OW56830   6.552  10.111  13.110
51664SOL    HW156831   6.461  10.093  13.133
51664SOL    HW256832   6.604  10.057  13.170
51665SOL     OW56833   2.057  14.286  12.725
51665SOL    HW156834   2.074  14.350  12.656
51665SOL    HW256835   1.976  14.316  12.766
51666SOL     OW56836   8.074   6.201  12.967
51666SOL    HW156837   8.074   6.280  12.914
51666SOL    HW256838   8.066   6.233  13.057
51667SOL     OW56839   1.082  14.545  14.335
51667SOL    HW156840   1.096  14.451  14.325
51667SOL    HW256841   1.149  14.572  14.397
51668SOL     OW56842   8.269   7.203   1.913
51668SOL    HW156843   8.329   7.148   1.963
51668SOL    HW256844   8.290   7.184   1.822
51669SOL     OW56845   7.911   1.104  13.076
51669SOL    HW156846   7.866   1.025  13.106
51669SOL    HW256847   8.003   1.077  13.069
51670SOL     OW56848   9.684  13.480  11.008
51670SOL    HW156849   9.645  13.392  11.010
51670SOL    HW256850   9.770  13.466  10.968
51671SOL     OW56851   8.725   6.837  14.242
51671SOL    HW156852   8.751   6.898  14.311
51671SOL    HW256853   8.673   6.771  14.287
51672SOL     OW56854   2.409  10.307  12.402
51672SOL    HW156855   2.441  10.218  12.422
51672SOL    HW256856   2.318  10.294  12.375
51673SOL     OW56857  10.609  13.350  11.799
51673SOL    HW156858  10.606  13.443  11.777
51673SOL    HW256859  10.595  13.305  11.716
51674SOL     OW56860   3.354   9.974   8.206
51674SOL    HW156861   3.395  10.016   8.281
51674SOL    HW256862   3.337  10.045   8.145
51675SOL     OW56863   0.345   6.815   6.666
51675SOL    HW156864   0.393   6.840   6.746
51675SOL    HW256865   0.287   6.744   6.694
51676SOL     OW56866   6.126  14.622   5.490
51676SOL    HW156867   6.186  14.555   5.457
51676SOL    HW256868   6.103  14.592   5.578
51677SOL     OW56869  13.405   3.942  14.726
51677SOL    HW156870  13.394   3.847  14.736
51677SOL    HW256871  13.497   3.958  14.749
51678SOL     OW56872   2.316   1.444   2.807
51678SOL    HW156873   2.387   1.381   2.818
51678SOL    HW256874   2.255   1.425   2.879
51679SOL     OW56875   3.469  14.283   0.736
51679SOL    HW156876   3.375  14.261   0.735
51679SOL    HW256877   3.477  14.358   0.678
51680SOL     OW56878   9.296   4.398   0.021
51680SOL    HW156879   9.276   4.305   0.013
51680SOL    HW256880   9.319   4.409   0.113
51681SOL     OW56881  11.431   4.430   0.696
51681SOL    HW156882  11.407   4.502   0.755
51681SOL    HW256883  11.364   4.364   0.712
51682SOL     OW56884  11.636  12.841   5.594
51682SOL    HW156885  11.546  12.815   5.571
51682SOL    HW256886  11.688  12.762   5.579
51683SOL     OW56887  13.606  10.895   6.053
51683SOL    HW156888  13.599  10.932   5.966
51683SOL    HW256889  13.667  10.953   6.099
51684SOL     OW56890  11.668   8.379   7.017
51684SOL    HW156891  11.689   8.456   6.964
51684SOL    HW256892  11.676   8.305   6.957
51685SOL     OW56893   8.645   5.543   7.456
51685SOL    HW156894   8.732   5.517   7.485
51685SOL    HW256895   8.660   5.606   7.387
51686SOL     OW56896   9.034   7.773   3.252
51686SOL    HW156897   9.020   7.835   3.323
51686SOL    HW256898   9.087   7.703   3.291
51687SOL     OW56899  14.252  12.712   0.583
51687SOL    HW156900  14.257  12.742   0.493
51687SOL    HW256901  14.165  12.672   0.591
51688SOL     OW56902   3.911   9.713   6.661
51688SOL    HW156903   3.874   9.625   6.648
51688SOL    HW256904   3.835   9.771   6.656
51689SOL     OW56905   9.982   4.709  11.154
51689SOL    HW156906   9.994   4.655  11.076
51689SOL    HW256907   9.981   4.646  11.226
51690SOL     OW56908  13.715   4.444   3.888
51690SOL    HW156909  13.624   4.470   3.905
51690SOL    HW256910  13.765   4.482   3.960
51691SOL     OW56911  13.893   3.281  11.168
51691SOL    HW156912  13.924   3.244  11.251
51691SOL    HW256913  13.896   3.207  11.107
51692SOL     OW56914  11.441   8.003  13.938
51692SOL    HW156915  11.440   8.096  13.918
51692SOL    HW256916  11.529   7.987  13.974
51693SOL     OW56917   0.962   8.817  13.784
51693SOL    HW156918   1.051   8.783  13.788
51693SOL    HW256919   0.910   8.744  13.752
51694SOL     OW56920   9.979  14.123   6.718
51694SOL    HW156921   9.928  14.054   6.761
51694SOL    HW256922  10.045  14.148   6.783
51695SOL     OW56923  13.118   7.351   2.029
51695SOL    HW156924  13.045   7.309   2.074
51695SOL    HW256925  13.083   7.377   1.944
51696SOL     OW56926  10.508   9.149   0.372
51696SOL    HW156927  10.538   9.204   0.445
51696SOL    HW256928  10.413   9.149   0.379
51697SOL     OW56929  10.125  11.063   5.973
51697SOL    HW156930  10.055  11.009   5.936
51697SOL    HW256931  10.176  11.002   6.027
51698SOL     OW56932  10.773  12.175   9.410
51698SOL    HW156933  10.687  12.205   9.379
51698SOL    HW256934  10.807  12.248   9.461
51699SOL     OW56935  10.131  10.417  13.809
51699SOL    HW156936  10.067  10.469  13.858
51699SOL    HW256937  10.079  10.350  13.765
51700SOL     OW56938  13.414  13.280   6.344
51700SOL    HW156939  13.336  13.255   6.394
51700SOL    HW256940  13.479  13.214   6.369
51701SOL     OW56941   0.784  10.116  10.121
51701SOL    HW156942   0.793  10.039  10.064
51701SOL    HW256943   0.731  10.085  10.194
51702SOL     OW56944  12.277   2.623   6.479
51702SOL    HW156945  12.222   2.699   6.461
51702SOL    HW256946  12.298   2.630   6.572
51703SOL     OW56947   9.858  12.039   0.467
51703SOL    HW156948   9.838  12.062   0.557
51703SOL    HW256949   9.774  12.041   0.422
51704SOL     OW56950   4.747   7.752   3.799
51704SOL    HW156951   4.667   7.702   3.782
51704SOL    HW256952   4.718   7.832   3.842
51705SOL     OW56953   0.122   7.081   6.970
51705SOL    HW156954   0.195   7.079   7.032
51705SOL    HW256955   0.114   7.173   6.945
51706SOL     OW56956   9.684   5.766  14.791
51706SOL    HW156957   9.624   5.795  14.860
51706SOL    HW256958   9.638   5.788  14.710
51707SOL     OW56959   6.472  10.530   5.524
51707SOL    HW156960   6.436  10.480   5.451
51707SOL    HW256961   6.397  10.577   5.561
51708SOL     OW56962  10.335  12.459  11.702
51708SOL    HW156963  10.243  12.432  11.695
51708SOL    HW256964  10.333  12.539  11.755
51709SOL     OW56965  12.833   5.316   3.349
51709SOL    HW156966  12.880   5.321   3.432
51709SOL    HW256967  12.796   5.228   3.347
51710SOL     OW56968   1.378   3.517   4.105
51710SOL    HW156969   1.316   3.523   4.177
51710SOL    HW256970   1.446   3.457   4.137
51711SOL     OW56971  11.282  14.658  13.802
51711SOL    HW156972  11.282  14.699  13.889
51711SOL    HW256973  11.363  14.607  13.800
51712SOL     OW56974  12.017   4.718   6.289
51712SOL    HW156975  12.074   4.693   6.216
51712SOL    HW256976  12.040   4.809   6.308
51713SOL     OW56977   8.006   9.407  13.969
51713SOL    HW156978   8.084   9.370  13.927
51713SOL    HW256979   8.006   9.369  14.057
51714SOL     OW56980   7.476   3.744  13.734
51714SOL    HW156981   7.507   3.666  13.688
51714SOL    HW256982   7.382   3.746  13.716
51715SOL     OW56983   2.393   8.260   6.943
51715SOL    HW156984   2.443   8.214   7.010
51715SOL    HW256985   2.458   8.311   6.894
51716SOL     OW56986   3.857   9.704   8.077
51716SOL    HW156987   3.917   9.774   8.104
51716SOL    HW256988   3.827   9.731   7.990
51717SOL     OW56989  12.265   6.162   7.016
51717SOL    HW156990  12.228   6.211   7.090
51717SOL    HW256991  12.245   6.216   6.939
51718SOL     OW56992  11.742   4.091   3.386
51718SOL    HW156993  11.678   4.125   3.449
51718SOL    HW256994  11.827   4.114   3.424
51719SOL     OW56995   9.138   0.087  14.061
51719SOL    HW156996   9.058   0.078  14.112
51719SOL    HW256997   9.206   0.047  14.116
51720SOL     OW56998   3.063  13.161   0.435
51720SOL    HW156999   3.086  13.246   0.472
51720SOL    HW257000   2.973  13.171   0.407
51721SOL     OW57001   2.762   1.863   3.289
51721SOL    HW157002   2.682   1.854   3.239
51721SOL    HW257003   2.769   1.781   3.338
51722SOL     OW57004   3.776   6.192   5.866
51722SOL    HW157005   3.839   6.183   5.794
51722SOL    HW257006   3.702   6.238   5.827
51723SOL     OW57007   7.027  10.864   7.711
51723SOL    HW157008   6.970  10.875   7.788
51723SOL    HW257009   6.981  10.799   7.657
51724SOL     OW57010  14.510   9.918  14.309
51724SOL    HW157011  14.485   9.896  14.219
51724SOL    HW257012  14.429   9.907  14.359
51725SOL     OW57013  14.761   3.501   8.468
51725SOL    HW157014  14.708   3.423   8.485
51725SOL    HW257015  14.825   3.503   8.539
51726SOL     OW57016  13.377   6.596   8.987
51726SOL    HW157017  13.336   6.556   8.910
51726SOL    HW257018  13.357   6.689   8.980
51727SOL     OW57019   3.338   5.429  11.963
51727SOL    HW157020   3.292   5.346  11.972
51727SOL    HW257021   3.380   5.443  12.048
51728SOL     OW57022   6.836   5.168   3.409
51728SOL    HW157023   6.747   5.134   3.416
51728SOL    HW257024   6.825   5.263   3.406
51729SOL     OW57025   9.002   1.248   9.217
51729SOL    HW157026   8.917   1.236   9.259
51729SOL    HW257027   9.008   1.342   9.202
51730SOL     OW57028   5.581   5.427   1.499
51730SOL    HW157029   5.499   5.476   1.490
51730SOL    HW257030   5.639   5.467   1.434
51731SOL     OW57031   6.602   5.388   8.016
51731SOL    HW157032   6.561   5.303   8.000
51731SOL    HW257033   6.608   5.429   7.930
51732SOL     OW57034   3.340  13.265   5.799
51732SOL    HW157035   3.360  13.175   5.773
51732SOL    HW257036   3.405  13.318   5.754
51733SOL     OW57037   7.412   7.882  12.857
51733SOL    HW157038   7.393   7.793  12.826
51733SOL    HW257039   7.506   7.892  12.842
51734SOL     OW57040   0.389   9.644   3.695
51734SOL    HW157041   0.445   9.587   3.748
51734SOL    HW257042   0.364   9.591   3.620
51735SOL     OW57043   4.905  10.786  14.702
51735SOL    HW157044   4.829  10.737  14.669
51735SOL    HW257045   4.981  10.738  14.667
51736SOL     OW57046  14.091  13.927  14.225
51736SOL    HW157047  14.097  14.021  14.240
51736SOL    HW257048  14.100  13.916  14.131
51737SOL     OW57049   4.679  13.467  13.508
51737SOL    HW157050   4.686  13.530  13.436
51737SOL    HW257051   4.586  13.442  13.508
51738SOL     OW57052  10.589  12.754  10.479
51738SOL    HW157053  10.636  12.751  10.562
51738SOL    HW257054  10.644  12.809  10.422
51739SOL     OW57055  10.552  12.697  12.931
51739SOL    HW157056  10.634  12.718  12.885
51739SOL    HW257057  10.578  12.630  12.994
51740SOL     OW57058   2.757   8.357  11.829
51740SOL    HW157059   2.707   8.422  11.779
51740SOL    HW257060   2.691   8.293  11.856
51741SOL     OW57061   0.906   0.504   4.068
51741SOL    HW157062   0.866   0.576   4.020
51741SOL    HW257063   0.991   0.490   4.026
51742SOL     OW57064  12.174   8.049   9.324
51742SOL    HW157065  12.237   8.113   9.289
51742SOL    HW257066  12.143   8.088   9.405
51743SOL     OW57067  13.744   3.282   8.106
51743SOL    HW157068  13.721   3.341   8.034
51743SOL    HW257069  13.734   3.194   8.068
51744SOL     OW57070   1.324   0.344   5.277
51744SOL    HW157071   1.309   0.390   5.194
51744SOL    HW257072   1.413   0.368   5.302
51745SOL     OW57073  10.566   5.713  12.985
51745SOL    HW157074  10.517   5.754  12.913
51745SOL    HW257075  10.498   5.687  13.048
51746SOL     OW57076   6.774  10.599   4.257
51746SOL    HW157077   6.783  10.624   4.349
51746SOL    HW257078   6.860  10.618   4.219
51747SOL     OW57079  13.221   4.676  10.802
51747SOL    HW157080  13.275   4.752  10.824
51747SOL    HW257081  13.142   4.713  10.763
51748SOL     OW57082   5.335   4.634  13.095
51748SOL    HW157083   5.343   4.722  13.059
51748SOL    HW257084   5.425   4.603  13.103
51749SOL     OW57085   7.053  14.331  11.142
51749SOL    HW157086   7.128  14.334  11.201
51749SOL    HW257087   6.985  14.285  11.191
51750SOL     OW57088   9.950   5.864   9.389
51750SOL    HW157089   9.923   5.945   9.434
51750SOL    HW257090  10.035   5.886   9.351
51751SOL     OW57091  14.049   6.384   6.452
51751SOL    HW157092  14.095   6.465   6.473
51751SOL    HW257093  14.072   6.365   6.361
51752SOL     OW57094  10.019   0.352   0.229
51752SOL    HW157095   9.928   0.348   0.201
51752SOL    HW257096  10.052   0.263   0.216
51753SOL     OW57097  10.969   2.029   7.664
51753SOL    HW157098  10.933   1.976   7.735
51753SOL    HW257099  11.052   2.062   7.698
51754SOL     OW57100   2.472  12.450  13.436
51754SOL    HW157101   2.376  12.448  13.438
51754SOL    HW257102   2.495  12.448  13.343
51755SOL     OW57103   9.494   0.512   3.044
51755SOL    HW157104   9.413   0.557   3.020
51755SOL    HW257105   9.513   0.546   3.132
51756SOL     OW57106   4.693   7.137   2.621
51756SOL    HW157107   4.716   7.090   2.702
51756SOL    HW257108   4.748   7.215   2.623
51757SOL     OW57109  10.419  12.123   9.877
51757SOL    HW157110  10.335  12.146   9.838
51757SOL    HW257111  10.404  12.127   9.972
51758SOL     OW57112   8.750   8.963  12.341
51758SOL    HW157113   8.690   9.035  12.320
51758SOL    HW257114   8.768   8.922  12.256
51759SOL     OW57115   5.139   5.675   4.192
51759SOL    HW157116   5.127   5.763   4.230
51759SOL    HW257117   5.101   5.616   4.257
51760SOL     OW57118   0.593   2.883   1.281
51760SOL    HW157119   0.563   2.941   1.211
51760SOL    HW257120   0.514   2.860   1.329
51761SOL     OW57121   2.947   4.862   7.349
51761SOL    HW157122   2.931   4.767   7.352
51761SOL    HW257123   2.968   4.880   7.258
51762SOL     OW57124  12.141  13.868   0.731
51762SOL    HW157125  12.174  13.912   0.653
51762SOL    HW257126  12.185  13.783   0.731
51763SOL     OW57127  11.137   0.912   0.046
51763SOL    HW157128  11.140   0.883   0.138
51763SOL    HW257129  11.131   1.008   0.052
51764SOL     OW57130   8.910   4.315   1.876
51764SOL    HW157131   8.961   4.384   1.918
51764SOL    HW257132   8.935   4.320   1.784
51765SOL     OW57133   8.180   1.003   8.636
51765SOL    HW157134   8.121   1.066   8.595
51765SOL    HW257135   8.141   0.918   8.617
51766SOL     OW57136  12.149  13.088  10.810
51766SOL    HW157137  12.210  13.019  10.785
51766SOL    HW257138  12.063  13.047  10.808
51767SOL     OW57139  10.541   6.075  12.258
51767SOL    HW157140  10.471   6.080  12.193
51767SOL    HW257141  10.564   5.982  12.261
51768SOL     OW57142   8.612  13.069  10.847
51768SOL    HW157143   8.697  13.036  10.875
51768SOL    HW257144   8.630  13.156  10.811
51769SOL     OW57145   0.393  14.277  14.129
51769SOL    HW157146   0.380  14.369  14.108
51769SOL    HW257147   0.341  14.229  14.064
51770SOL     OW57148   3.742   5.501  11.458
51770SOL    HW157149   3.830   5.526  11.429
51770SOL    HW257150   3.697   5.476  11.377
51771SOL     OW57151  12.599   6.254  12.567
51771SOL    HW157152  12.676   6.210  12.532
51771SOL    HW257153  12.634   6.316  12.632
51772SOL     OW57154   4.676  11.105  10.820
51772SOL    HW157155   4.751  11.142  10.774
51772SOL    HW257156   4.612  11.176  10.822
51773SOL     OW57157  12.986  13.802   7.470
51773SOL    HW157158  12.920  13.853   7.517
51773SOL    HW257159  12.940  13.765   7.395
51774SOL     OW57160   8.056   2.582   0.602
51774SOL    HW157161   8.131   2.548   0.552
51774SOL    HW257162   7.998   2.619   0.536
51775SOL     OW57163   3.121   2.955   6.649
51775SOL    HW157164   3.116   3.011   6.727
51775SOL    HW257165   3.061   2.883   6.668
51776SOL     OW57166  14.063   9.586   9.061
51776SOL    HW157167  14.065   9.508   9.006
51776SOL    HW257168  14.011   9.649   9.012
51777SOL     OW57169   8.645  10.535   5.064
51777SOL    HW157170   8.592  10.508   5.139
51777SOL    HW257171   8.597  10.610   5.026
51778SOL     OW57172   3.714   1.460   7.753
51778SOL    HW157173   3.746   1.419   7.834
51778SOL    HW257174   3.624   1.429   7.744
51779SOL     OW57175   0.822  12.990   1.307
51779SOL    HW157176   0.833  12.904   1.267
51779SOL    HW257177   0.765  13.037   1.246
51780SOL     OW57178   0.979   2.041   0.088
51780SOL    HW157179   1.037   2.114   0.065
51780SOL    HW257180   0.994   2.027   0.181
51781SOL     OW57181  10.330   0.874   2.020
51781SOL    HW157182  10.412   0.912   1.990
51781SOL    HW257183  10.291   0.837   1.941
51782SOL     OW57184  11.915  14.852  12.554
51782SOL    HW157185  11.863  14.876  12.630
51782SOL    HW257186  12.000   0.015  12.569
51783SOL     OW57187   0.334  13.502  13.342
51783SOL    HW157188   0.403  13.543  13.289
51783SOL    HW257189   0.316  13.419  13.296
51784SOL     OW57190   3.348   7.121   8.612
51784SOL    HW157191   3.288   7.047   8.609
51784SOL    HW257192   3.435   7.083   8.603
51785SOL     OW57193  13.676   5.171   3.348
51785SOL    HW157194  13.713   5.150   3.434
51785SOL    HW257195  13.672   5.087   3.302
51786SOL     OW57196   7.771   6.582  14.211
51786SOL    HW157197   7.819   6.499  14.208
51786SOL    HW257198   7.720   6.578  14.292
51787SOL     OW57199   8.015   6.556  12.334
51787SOL    HW157200   7.928   6.595  12.348
51787SOL    HW257201   7.998   6.463  12.320
51788SOL     OW57202   8.017   8.388  10.556
51788SOL    HW157203   8.073   8.315  10.532
51788SOL    HW257204   7.956   8.397  10.482
51789SOL     OW57205  10.589   6.863   3.616
51789SOL    HW157206  10.677   6.828   3.616
51789SOL    HW257207  10.571   6.884   3.525
51790SOL     OW57208   6.872  12.264   9.093
51790SOL    HW157209   6.821  12.248   9.014
51790SOL    HW257210   6.927  12.339   9.072
51791SOL     OW57211   9.717  10.074   5.802
51791SOL    HW157212   9.782  10.103   5.738
51791SOL    HW257213   9.681   9.993   5.765
51792SOL     OW57214   8.622   4.150   3.265
51792SOL    HW157215   8.701   4.185   3.307
51792SOL    HW257216   8.601   4.071   3.315
51793SOL     OW57217  11.115   2.660   3.123
51793SOL    HW157218  11.199   2.623   3.094
51793SOL    HW257219  11.113   2.747   3.082
51794SOL     OW57220   6.307  10.629  11.931
51794SOL    HW157221   6.354  10.565  11.984
51794SOL    HW257222   6.217  10.627  11.965
51795SOL     OW57223  10.711  12.967   6.332
51795SOL    HW157224  10.689  12.961   6.425
51795SOL    HW257225  10.704  13.060   6.312
51796SOL     OW57226   4.031   1.595  11.870
51796SOL    HW157227   4.048   1.619  11.961
51796SOL    HW257228   3.944   1.555  11.871
51797SOL     OW57229   5.077   6.501  10.491
51797SOL    HW157230   5.059   6.595  10.497
51797SOL    HW257231   5.116   6.479  10.576
51798SOL     OW57232   9.537   5.940   5.172
51798SOL    HW157233   9.588   5.979   5.244
51798SOL    HW257234   9.489   5.868   5.214
51799SOL     OW57235   8.272   3.632  10.845
51799SOL    HW157236   8.322   3.649  10.926
51799SOL    HW257237   8.315   3.556  10.806
51800SOL     OW57238   5.010  12.063  10.666
51800SOL    HW157239   4.928  12.112  10.674
51800SOL    HW257240   5.048  12.092  10.583
51801SOL     OW57241  10.718   0.622   8.616
51801SOL    HW157242  10.668   0.662   8.687
51801SOL    HW257243  10.795   0.679   8.606
51802SOL     OW57244   0.727   7.377  11.532
51802SOL    HW157245   0.815   7.395  11.564
51802SOL    HW257246   0.727   7.409  11.442
51803SOL     OW57247  12.716  12.757   0.798
51803SOL    HW157248  12.810  12.765   0.816
51803SOL    HW257249  12.675  12.823   0.854
51804SOL     OW57250   6.705   6.713  11.865
51804SOL    HW157251   6.799   6.694  11.856
51804SOL    HW257252   6.684   6.766  11.787
51805SOL     OW57253   8.694  14.328   1.296
51805SOL    HW157254   8.652  14.345   1.212
51805SOL    HW257255   8.698  14.232   1.302
51806SOL     OW57256   2.967  14.247  14.141
51806SOL    HW157257   2.922  14.330  14.127
51806SOL    HW257258   2.945  14.222  14.231
51807SOL     OW57259   8.818   5.483   5.635
51807SOL    HW157260   8.884   5.551   5.623
51807SOL    HW257261   8.869   5.403   5.651
51808SOL     OW57262  10.251   9.399   5.399
51808SOL    HW157263  10.235   9.330   5.464
51808SOL    HW257264  10.272   9.476   5.452
51809SOL     OW57265   6.041  14.324   7.320
51809SOL    HW157266   5.968  14.322   7.382
51809SOL    HW257267   6.007  14.279   7.242
51810SOL     OW57268  13.566   3.786   5.148
51810SOL    HW157269  13.560   3.736   5.229
51810SOL    HW257270  13.479   3.777   5.108
51811SOL     OW57271  12.724  13.722   8.360
51811SOL    HW157272  12.806  13.771   8.358
51811SOL    HW257273  12.694  13.731   8.451
51812SOL     OW57274  14.629   7.721   4.458
51812SOL    HW157275  14.577   7.765   4.391
51812SOL    HW257276  14.718   7.720   4.422
51813SOL     OW57277   3.897   7.536   2.713
51813SOL    HW157278   3.979   7.585   2.712
51813SOL    HW257279   3.856   7.559   2.796
51814SOL     OW57280  11.661   2.932   8.125
51814SOL    HW157281  11.580   2.960   8.168
51814SOL    HW257282  11.731   2.962   8.183
51815SOL     OW57283   0.294   6.069   8.823
51815SOL    HW157284   0.241   6.142   8.856
51815SOL    HW257285   0.232   5.997   8.812
51816SOL     OW57286   0.965  12.396   9.984
51816SOL    HW157287   0.996  12.327  10.043
51816SOL    HW257288   1.039  12.456   9.976
51817SOL     OW57289   2.636   7.986   4.160
51817SOL    HW157290   2.730   7.976   4.171
51817SOL    HW257291   2.597   7.916   4.213
51818SOL     OW57292   4.266  10.717   6.488
51818SOL    HW157293   4.326  10.677   6.552
51818SOL    HW257294   4.242  10.801   6.527
51819SOL     OW57295  13.959  10.752   8.516
51819SOL    HW157296  13.912  10.717   8.592
51819SOL    HW257297  13.923  10.703   8.442
51820SOL     OW57298   5.873  11.391  11.965
51820SOL    HW157299   5.954  11.374  11.917
51820SOL    HW257300   5.881  11.338  12.045
51821SOL     OW57301   6.661   2.921   9.793
51821SOL    HW157302   6.643   3.012   9.817
51821SOL    HW257303   6.659   2.874   9.877
51822SOL     OW57304   5.142   5.025   9.761
51822SOL    HW157305   5.089   5.104   9.750
51822SOL    HW257306   5.145   5.012   9.856
51823SOL     OW57307  10.021   0.346  14.259
51823SOL    HW157308  10.014   0.309  14.346
51823SOL    HW257309   9.949   0.409  14.253
51824SOL     OW57310   5.597   3.500  13.558
51824SOL    HW157311   5.622   3.525  13.469
51824SOL    HW257312   5.669   3.445  13.589
51825SOL     OW57313   3.950   2.277   3.296
51825SOL    HW157314   3.946   2.203   3.356
51825SOL    HW257315   4.014   2.336   3.335
51826SOL     OW57316   7.024   8.991   0.971
51826SOL    HW157317   7.092   9.050   1.004
51826SOL    HW257318   7.007   9.021   0.882
51827SOL     OW57319   6.956   6.845   2.791
51827SOL    HW157320   7.050   6.861   2.775
51827SOL    HW257321   6.948   6.750   2.791
51828SOL     OW57322   3.731  10.826   6.214
51828SOL    HW157323   3.692  10.739   6.201
51828SOL    HW257324   3.657  10.885   6.218
51829SOL     OW57325  13.963   0.110  14.555
51829SOL    HW157326  13.927   0.148  14.475
51829SOL    HW257327  14.026   0.045  14.525
51830SOL     OW57328   8.447   5.690   3.440
51830SOL    HW157329   8.484   5.646   3.516
51830SOL    HW257330   8.352   5.686   3.454
51831SOL     OW57331   2.400   5.768   5.535
51831SOL    HW157332   2.400   5.677   5.503
51831SOL    HW257333   2.387   5.759   5.629
51832SOL     OW57334  11.647   5.513  11.483
51832SOL    HW157335  11.560   5.475  11.494
51832SOL    HW257336  11.646   5.552  11.395
51833SOL     OW57337   0.341   0.167   3.578
51833SOL    HW157338   0.306   0.210   3.500
51833SOL    HW257339   0.273   0.180   3.645
51834SOL     OW57340  12.931  11.578   9.105
51834SOL    HW157341  12.846  11.533   9.114
51834SOL    HW257342  12.993  11.521   9.149
51835SOL     OW57343   7.496   9.353  11.026
51835SOL    HW157344   7.469   9.436  10.987
51835SOL    HW257345   7.553   9.378  11.099
51836SOL     OW57346   0.251   0.837   2.574
51836SOL    HW157347   0.301   0.799   2.502
51836SOL    HW257348   0.244   0.930   2.553
51837SOL     OW57349   8.022   4.402   5.082
51837SOL    HW157350   8.089   4.467   5.103
51837SOL    HW257351   7.945   4.454   5.059
51838SOL     OW57352   7.101   9.399   3.237
51838SOL    HW157353   7.046   9.477   3.247
51838SOL    HW257354   7.161   9.403   3.311
51839SOL     OW57355  10.257   9.161  11.515
51839SOL    HW157356  10.221   9.248  11.497
51839SOL    HW257357  10.180   9.107  11.532
51840SOL     OW57358   4.459   6.248  11.991
51840SOL    HW157359   4.502   6.331  12.012
51840SOL    HW257360   4.502   6.219  11.910
51841SOL     OW57361  13.816   9.623  14.350
51841SOL    HW157362  13.902   9.620  14.309
51841SOL    HW257363  13.833   9.605  14.442
51842SOL     OW57364  13.796  14.806   2.718
51842SOL    HW157365  13.762  14.717   2.721
51842SOL    HW257366  13.808  14.824   2.625
51843SOL     OW57367   7.930  12.270   0.554
51843SOL    HW157368   7.944  12.325   0.476
51843SOL    HW257369   7.992  12.198   0.544
51844SOL     OW57370   4.420  11.039   2.892
51844SOL    HW157371   4.362  11.061   2.965
51844SOL    HW257372   4.368  10.981   2.836
51845SOL     OW57373   6.841   2.671   1.192
51845SOL    HW157374   6.770   2.651   1.130
51845SOL    HW257375   6.879   2.752   1.159
51846SOL     OW57376   1.717   6.041   1.094
51846SOL    HW157377   1.700   6.087   1.012
51846SOL    HW257378   1.745   5.954   1.068
51847SOL     OW57379   2.132   3.188   6.190
51847SOL    HW157380   2.084   3.195   6.107
51847SOL    HW257381   2.096   3.259   6.243
51848SOL     OW57382   6.956  13.923  12.960
51848SOL    HW157383   6.926  13.843  13.002
51848SOL    HW257384   6.901  13.931  12.882
51849SOL     OW57385  13.440   4.716   2.280
51849SOL    HW157386  13.497   4.773   2.228
51849SOL    HW257387  13.497   4.644   2.306
51850SOL     OW57388   1.734   5.552  14.472
51850SOL    HW157389   1.659   5.605  14.444
51850SOL    HW257390   1.712   5.523  14.560
51851SOL     OW57391  12.941   6.842   8.571
51851SOL    HW157392  12.894   6.877   8.495
51851SOL    HW257393  12.936   6.747   8.560
51852SOL     OW57394   7.529   4.487   7.377
51852SOL    HW157395   7.543   4.399   7.413
51852SOL    HW257396   7.615   4.511   7.341
51853SOL     OW57397  13.881  10.017  13.362
51853SOL    HW157398  13.908  10.065  13.283
51853SOL    HW257399  13.819   9.952  13.331
51854SOL     OW57400   1.585  14.046   7.129
51854SOL    HW157401   1.598  14.044   7.035
51854SOL    HW257402   1.597  13.956   7.158
51855SOL     OW57403   2.942   3.349  13.641
51855SOL    HW157404   2.903   3.415  13.699
51855SOL    HW257405   3.030   3.337  13.675
51856SOL     OW57406   9.573   5.888  12.673
51856SOL    HW157407   9.561   5.959  12.610
51856SOL    HW257408   9.652   5.843  12.644
51857SOL     OW57409   1.865   7.637   0.974
51857SOL    HW157410   1.865   7.654   0.880
51857SOL    HW257411   1.848   7.543   0.981
51858SOL     OW57412  12.476  11.326  10.850
51858SOL    HW157413  12.429  11.386  10.908
51858SOL    HW257414  12.461  11.239  10.888
51859SOL     OW57415  12.183   9.727  10.010
51859SOL    HW157416  12.101   9.717   9.962
51859SOL    HW257417  12.246   9.674   9.961
51860SOL     OW57418  11.695   7.360   2.122
51860SOL    HW157419  11.637   7.349   2.047
51860SOL    HW257420  11.638   7.390   2.192
51861SOL     OW57421   9.226  13.662   6.313
51861SOL    HW157422   9.139  13.621   6.320
51861SOL    HW257423   9.286  13.596   6.346
51862SOL     OW57424   5.622   5.791   7.789
51862SOL    HW157425   5.585   5.703   7.783
51862SOL    HW257426   5.604   5.818   7.879
51863SOL     OW57427   2.095  10.262  14.498
51863SOL    HW157428   2.140  10.188  14.539
51863SOL    HW257429   2.120  10.337  14.551
51864SOL     OW57430   6.868   6.650   3.941
51864SOL    HW157431   6.877   6.742   3.916
51864SOL    HW257432   6.883   6.602   3.860
51865SOL     OW57433  12.466  13.554   5.896
51865SOL    HW157434  12.393  13.518   5.945
51865SOL    HW257435  12.518  13.602   5.960
51866SOL     OW57436   2.299  11.949   5.623
51866SOL    HW157437   2.286  11.914   5.535
51866SOL    HW257438   2.370  12.012   5.614
51867SOL     OW57439   5.094   7.185   2.166
51867SOL    HW157440   5.071   7.203   2.257
51867SOL    HW257441   5.154   7.255   2.142
51868SOL     OW57442  12.764  10.549   5.892
51868SOL    HW157443  12.716  10.631   5.889
51868SOL    HW257444  12.803  10.540   5.805
51869SOL     OW57445   4.125   5.938  11.843
51869SOL    HW157446   4.187   5.909  11.776
51869SOL    HW257447   4.157   6.024  11.871
51870SOL     OW57448   7.487   2.394  10.793
51870SOL    HW157449   7.539   2.325  10.835
51870SOL    HW257450   7.515   2.474  10.837
51871SOL     OW57451   1.958  12.294  11.497
51871SOL    HW157452   1.892  12.297  11.427
51871SOL    HW257453   2.026  12.236  11.463
51872SOL     OW57454  14.244  12.213   5.688
51872SOL    HW157455  14.289  12.237   5.606
51872SOL    HW257456  14.282  12.129   5.712
51873SOL     OW57457  10.688   4.822  13.952
51873SOL    HW157458  10.642   4.893  13.909
51873SOL    HW257459  10.748   4.788  13.886
51874SOL     OW57460   4.587  14.840   6.079
51874SOL    HW157461   4.499  14.875   6.089
51874SOL    HW257462   4.642   0.016   6.135
51875SOL     OW57463  11.392  10.899  13.889
51875SOL    HW157464  11.370  10.987  13.922
51875SOL    HW257465  11.323  10.843  13.924
51876SOL     OW57466  10.499   2.397   6.780
51876SOL    HW157467  10.537   2.461   6.720
51876SOL    HW257468  10.551   2.318   6.768
51877SOL     OW57469   9.693   9.618   6.237
51877SOL    HW157470   9.636   9.692   6.259
51877SOL    HW257471   9.676   9.602   6.144
51878SOL     OW57472   5.839  14.013   5.812
51878SOL    HW157473   5.840  13.999   5.717
51878SOL    HW257474   5.882  14.099   5.823
51879SOL     OW57475  13.287   9.111  12.544
51879SOL    HW157476  13.216   9.150  12.494
51879SOL    HW257477  13.324   9.184  12.594
51880SOL     OW57478   1.739   1.139   4.124
51880SOL    HW157479   1.797   1.199   4.171
51880SOL    HW257480   1.715   1.073   4.189
51881SOL     OW57481   7.097   8.027   4.141
51881SOL    HW157482   7.077   8.080   4.218
51881SOL    HW257483   7.111   7.939   4.175
51882SOL     OW57484   3.370  10.653  11.551
51882SOL    HW157485   3.443  10.695  11.508
51882SOL    HW257486   3.358  10.571  11.503
51883SOL     OW57487   4.065   1.476  13.279
51883SOL    HW157488   4.074   1.390  13.239
51883SOL    HW257489   4.015   1.460  13.359
51884SOL     OW57490  13.805   9.437   3.072
51884SOL    HW157491  13.786   9.406   2.983
51884SOL    HW257492  13.899   9.423   3.083
51885SOL     OW57493   2.136   5.553   0.402
51885SOL    HW157494   2.143   5.609   0.479
51885SOL    HW257495   2.056   5.581   0.359
51886SOL     OW57496  13.383   9.243   1.056
51886SOL    HW157497  13.398   9.150   1.073
51886SOL    HW257498  13.462   9.273   1.012
51887SOL     OW57499   0.014   4.907   8.923
51887SOL    HW157500   0.022   4.819   8.960
51887SOL    HW257501  14.801   4.914   8.899
51888SOL     OW57502   0.834   6.274   0.270
51888SOL    HW157503   0.781   6.201   0.239
51888SOL    HW257504   0.923   6.253   0.241
51889SOL     OW57505   4.760   6.443  10.072
51889SOL    HW157506   4.679   6.441  10.124
51889SOL    HW257507   4.771   6.353  10.042
51890SOL     OW57508   1.708   1.481   8.217
51890SOL    HW157509   1.643   1.532   8.169
51890SOL    HW257510   1.792   1.514   8.187
51891SOL     OW57511  11.534   0.982   8.304
51891SOL    HW157512  11.457   1.012   8.256
51891SOL    HW257513  11.516   1.005   8.395
51892SOL     OW57514  13.629   5.496  13.031
51892SOL    HW157515  13.668   5.413  13.057
51892SOL    HW257516  13.671   5.562  13.087
51893SOL     OW57517   8.335   1.215  13.690
51893SOL    HW157518   8.275   1.205  13.616
51893SOL    HW257519   8.380   1.131  13.696
51894SOL     OW57520   1.431  11.073  10.538
51894SOL    HW157521   1.521  11.044  10.529
51894SOL    HW257522   1.436  11.144  10.603
51895SOL     OW57523  13.219   4.296  12.806
51895SOL    HW157524  13.169   4.308  12.887
51895SOL    HW257525  13.305   4.333  12.826
51896SOL     OW57526   1.888   2.524  12.201
51896SOL    HW157527   1.966   2.507  12.254
51896SOL    HW257528   1.856   2.609  12.230
51897SOL     OW57529   2.058  13.095   3.480
51897SOL    HW157530   2.052  13.000   3.486
51897SOL    HW257531   2.013  13.127   3.558
51898SOL     OW57532  10.520  11.321   9.948
51898SOL    HW157533  10.451  11.353   9.890
51898SOL    HW257534  10.601  11.357   9.913
51899SOL     OW57535   3.165  11.833   2.142
51899SOL    HW157536   3.110  11.899   2.184
51899SOL    HW257537   3.142  11.750   2.185
51900SOL     OW57538   7.576   0.915   0.150
51900SOL    HW157539   7.631   0.838   0.166
51900SOL    HW257540   7.632   0.975   0.100
51901SOL     OW57541  13.425  11.254   3.459
51901SOL    HW157542  13.513  11.281   3.483
51901SOL    HW257543  13.375  11.255   3.540
51902SOL     OW57544   5.451   4.384   3.130
51902SOL    HW157545   5.400   4.439   3.189
51902SOL    HW257546   5.533   4.369   3.176
51903SOL     OW57547   9.869   6.334   0.309
51903SOL    HW157548   9.959   6.354   0.334
51903SOL    HW257549   9.820   6.340   0.391
51904SOL     OW57550   2.672   2.706  13.186
51904SOL    HW157551   2.654   2.704  13.092
51904SOL    HW257552   2.596   2.751  13.223
51905SOL     OW57553   7.991   1.051   3.179
51905SOL    HW157554   7.945   1.121   3.226
51905SOL    HW257555   7.939   0.973   3.195
51906SOL     OW57556   2.633   8.952   9.646
51906SOL    HW157557   2.617   8.889   9.716
51906SOL    HW257558   2.553   8.951   9.593
51907SOL     OW57559  14.152  10.178   9.208
51907SOL    HW157560  14.101  10.196   9.287
51907SOL    HW257561  14.243  10.180   9.237
51908SOL     OW57562   9.505  12.497   3.368
51908SOL    HW157563   9.442  12.493   3.296
51908SOL    HW257564   9.591  12.496   3.324
51909SOL     OW57565   6.034   1.060   0.820
51909SOL    HW157566   5.962   1.005   0.851
51909SOL    HW257567   6.094   1.063   0.894
51910SOL     OW57568  10.678   7.181  11.677
51910SOL    HW157569  10.622   7.111  11.644
51910SOL    HW257570  10.707   7.149  11.763
51911SOL     OW57571   5.720   8.650   1.772
51911SOL    HW157572   5.798   8.655   1.829
51911SOL    HW257573   5.706   8.556   1.760
51912SOL     OW57574   2.891   7.017   0.079
51912SOL    HW157575   2.806   7.005   0.035
51912SOL    HW257576   2.869   7.063   0.161
51913SOL     OW57577   3.117   4.539   0.893
51913SOL    HW157578   3.167   4.539   0.811
51913SOL    HW257579   3.025   4.536   0.865
51914SOL     OW57580   2.227  13.356  12.479
51914SOL    HW157581   2.307  13.405  12.498
51914SOL    HW257582   2.259  13.272  12.444
51915SOL     OW57583  13.130  12.868   4.122
51915SOL    HW157584  13.069  12.816   4.174
51915SOL    HW257585  13.213  12.862   4.170
51916SOL     OW57586   4.435  12.589  13.068
51916SOL    HW157587   4.396  12.615  12.984
51916SOL    HW257588   4.369  12.614  13.133
51917SOL     OW57589   0.139  14.761   2.905
51917SOL    HW157590   0.157  14.855   2.904
51917SOL    HW257591   0.207  14.722   2.849
51918SOL     OW57592   2.804   6.567   1.966
51918SOL    HW157593   2.769   6.495   1.913
51918SOL    HW257594   2.847   6.624   1.902
51919SOL     OW57595   1.475   7.823   3.565
51919SOL    HW157596   1.381   7.803   3.561
51919SOL    HW257597   1.480   7.898   3.625
51920SOL     OW57598   4.424  13.325   2.139
51920SOL    HW157599   4.428  13.396   2.075
51920SOL    HW257600   4.496  13.266   2.114
51921SOL     OW57601  12.150   9.987   2.452
51921SOL    HW157602  12.143   9.905   2.501
51921SOL    HW257603  12.060  10.008   2.428
51922SOL     OW57604   2.999  14.770   2.365
51922SOL    HW157605   2.974  14.805   2.451
51922SOL    HW257606   3.048  14.691   2.385
51923SOL     OW57607   7.972   6.755   3.793
51923SOL    HW157608   7.995   6.669   3.827
51923SOL    HW257609   7.907   6.738   3.725
51924SOL     OW57610  13.969  11.135   9.376
51924SOL    HW157611  13.983  11.068   9.309
51924SOL    HW257612  13.951  11.086   9.456
51925SOL     OW57613  10.824   2.131   1.900
51925SOL    HW157614  10.905   2.175   1.925
51925SOL    HW257615  10.852   2.064   1.838
51926SOL     OW57616   3.576   8.791  12.701
51926SOL    HW157617   3.488   8.819  12.678
51926SOL    HW257618   3.574   8.782  12.797
51927SOL     OW57619   1.881  13.668   2.318
51927SOL    HW157620   1.871  13.763   2.310
51927SOL    HW257621   1.845  13.633   2.237
51928SOL     OW57622   1.312   9.393  10.316
51928SOL    HW157623   1.380   9.454  10.287
51928SOL    HW257624   1.265   9.441  10.385
51929SOL     OW57625   8.912   8.034   3.322
51929SOL    HW157626   8.898   8.126   3.302
51929SOL    HW257627   8.998   8.030   3.363
51930SOL     OW57628   3.125   2.406  10.116
51930SOL    HW157629   3.166   2.325  10.147
51930SOL    HW257630   3.175   2.429  10.037
51931SOL     OW57631  10.191  14.871  11.850
51931SOL    HW157632  10.098  14.868  11.830
51931SOL    HW257633  10.234  14.843  11.769
51932SOL     OW57634   6.133  14.520   5.143
51932SOL    HW157635   6.088  14.455   5.198
51932SOL    HW257636   6.204  14.471   5.102
51933SOL     OW57637   3.907   3.570  13.933
51933SOL    HW157638   3.842   3.529  13.990
51933SOL    HW257639   3.867   3.568  13.846
51934SOL     OW57640   8.425  11.708  12.718
51934SOL    HW157641   8.410  11.794  12.677
51934SOL    HW257642   8.417  11.724  12.812
51935SOL     OW57643  14.413  14.686  10.287
51935SOL    HW157644  14.358  14.610  10.304
51935SOL    HW257645  14.388  14.749  10.356
51936SOL     OW57646  11.822   4.111  12.696
51936SOL    HW157647  11.910   4.117  12.734
51936SOL    HW257648  11.794   4.202  12.685
51937SOL     OW57649   0.636  10.533   2.285
51937SOL    HW157650   0.628  10.539   2.190
51937SOL    HW257651   0.729  10.514   2.300
51938SOL     OW57652  11.294   3.146   1.362
51938SOL    HW157653  11.223   3.192   1.406
51938SOL    HW257654  11.251   3.079   1.310
51939SOL     OW57655  10.774   5.690   3.958
51939SOL    HW157656  10.700   5.713   3.901
51939SOL    HW257657  10.843   5.664   3.898
51940SOL     OW57658  14.609   1.183   4.450
51940SOL    HW157659  14.671   1.202   4.380
51940SOL    HW257660  14.628   1.093   4.475
51941SOL     OW57661   1.804   9.985  13.676
51941SOL    HW157662   1.737   9.966  13.742
51941SOL    HW257663   1.858   9.906  13.673
51942SOL     OW57664  14.728   7.697   9.072
51942SOL    HW157665  14.735   7.781   9.117
51942SOL    HW257666  14.634   7.687   9.054
51943SOL     OW57667  14.522   2.537   3.669
51943SOL    HW157668  14.518   2.630   3.689
51943SOL    HW257669  14.498   2.493   3.750
51944SOL     OW57670   2.535   2.637   7.599
51944SOL    HW157671   2.443   2.620   7.617
51944SOL    HW257672   2.583   2.571   7.650
51945SOL     OW57673   6.568   4.210  10.354
51945SOL    HW157674   6.660   4.234  10.366
51945SOL    HW257675   6.521   4.294  10.352
51946SOL     OW57676   9.398  11.535   2.556
51946SOL    HW157677   9.364  11.488   2.479
51946SOL    HW257678   9.489  11.506   2.563
51947SOL     OW57679  12.112   6.680  13.241
51947SOL    HW157680  12.053   6.746  13.278
51947SOL    HW257681  12.056   6.604  13.225
51948SOL     OW57682   7.385  14.242  14.438
51948SOL    HW157683   7.412  14.325  14.478
51948SOL    HW257684   7.423  14.245  14.350
51949SOL     OW57685   9.968  12.685   7.077
51949SOL    HW157686   9.996  12.776   7.089
51949SOL    HW257687   9.886  12.679   7.125
51950SOL     OW57688   0.271   9.782  13.324
51950SOL    HW157689   0.203   9.761  13.388
51950SOL    HW257690   0.334   9.710  13.331
51951SOL     OW57691   2.768   0.299  14.653
51951SOL    HW157692   2.816   0.322  14.573
51951SOL    HW257693   2.821   0.233  14.695
51952SOL     OW57694  14.466  10.795  10.077
51952SOL    HW157695  14.493  10.887  10.083
51952SOL    HW257696  14.505  10.753  10.153
51953SOL     OW57697   1.378  10.295   4.724
51953SOL    HW157698   1.309  10.277   4.788
51953SOL    HW257699   1.364  10.387   4.699
51954SOL     OW57700   9.163  12.066   8.701
51954SOL    HW157701   9.104  12.018   8.643
51954SOL    HW257702   9.154  12.022   8.786
51955SOL     OW57703  10.968   0.089   2.557
51955SOL    HW157704  11.003   0.127   2.638
51955SOL    HW257705  11.027   0.017   2.536
51956SOL     OW57706  12.904   3.500  10.392
51956SOL    HW157707  12.870   3.481  10.480
51956SOL    HW257708  12.999   3.501  10.403
51957SOL     OW57709  14.839   0.277   1.821
51957SOL    HW157710  14.743   0.280   1.813
51957SOL    HW257711  14.861   0.362   1.860
51958SOL     OW57712   3.583  11.401  12.292
51958SOL    HW157713   3.507  11.443  12.252
51958SOL    HW257714   3.583  11.312  12.257
51959SOL     OW57715   6.930  12.799  10.124
51959SOL    HW157716   7.020  12.779  10.099
51959SOL    HW257717   6.922  12.768  10.214
51960SOL     OW57718   4.482   6.175   2.915
51960SOL    HW157719   4.573   6.176   2.883
51960SOL    HW257720   4.433   6.128   2.848
51961SOL     OW57721   4.754  12.746  14.764
51961SOL    HW157722   4.846  12.739  14.791
51961SOL    HW257723   4.720  12.657  14.774
51962SOL     OW57724   0.512   9.668  13.708
51962SOL    HW157725   0.574   9.654  13.637
51962SOL    HW257726   0.552   9.627  13.784
51963SOL     OW57727   8.150   4.490   5.940
51963SOL    HW157728   8.134   4.397   5.960
51963SOL    HW257729   8.114   4.502   5.852
51964SOL     OW57730   8.890  14.163  11.603
51964SOL    HW157731   8.904  14.257  11.617
51964SOL    HW257732   8.932  14.121  11.678
51965SOL     OW57733  10.176  10.191   9.476
51965SOL    HW157734  10.081  10.188   9.487
51965SOL    HW257735  10.205  10.101   9.487
51966SOL     OW57736   0.285  10.409   9.491
51966SOL    HW157737   0.241  10.430   9.574
51966SOL    HW257738   0.237  10.334   9.456
51967SOL     OW57739  10.994   4.487   6.102
51967SOL    HW157740  10.966   4.478   6.011
51967SOL    HW257741  10.969   4.404   6.142
51968SOL     OW57742   5.385   2.360   6.861
51968SOL    HW157743   5.441   2.414   6.916
51968SOL    HW257744   5.319   2.325   6.922
51969SOL     OW57745  10.434  11.299  14.734
51969SOL    HW157746  10.381  11.328  14.660
51969SOL    HW257747  10.439  11.204  14.724
51970SOL     OW57748  11.431   7.691   5.294
51970SOL    HW157749  11.385   7.646   5.365
51970SOL    HW257750  11.366   7.751   5.257
51971SOL     OW57751   1.317   4.569  12.685
51971SOL    HW157752   1.358   4.573  12.599
51971SOL    HW257753   1.223   4.570  12.667
51972SOL     OW57754   2.808   4.949   0.792
51972SOL    HW157755   2.825   4.881   0.857
51972SOL    HW257756   2.716   4.973   0.806
51973SOL     OW57757   7.462   5.588   9.312
51973SOL    HW157758   7.528   5.638   9.263
51973SOL    HW257759   7.386   5.645   9.314
51974SOL     OW57760   3.461   0.732   5.502
51974SOL    HW157761   3.402   0.694   5.436
51974SOL    HW257762   3.530   0.666   5.513
51975SOL     OW57763   6.526  10.068  14.012
51975SOL    HW157764   6.574  10.120  14.076
51975SOL    HW257765   6.434  10.077  14.038
51976SOL     OW57766   8.537  10.088   4.820
51976SOL    HW157767   8.543  10.032   4.897
51976SOL    HW257768   8.526  10.176   4.854
51977SOL     OW57769  13.739  10.882  11.775
51977SOL    HW157770  13.822  10.856  11.815
51977SOL    HW257771  13.722  10.815  11.709
51978SOL     OW57772   0.879   4.653   8.777
51978SOL    HW157773   0.811   4.609   8.726
51978SOL    HW257774   0.947   4.588   8.788
51979SOL     OW57775   5.596   7.211  10.671
51979SOL    HW157776   5.577   7.177  10.759
51979SOL    HW257777   5.686   7.183  10.653
51980SOL     OW57778   9.040   0.770  10.538
51980SOL    HW157779   9.045   0.706  10.467
51980SOL    HW257780   9.049   0.855  10.496
51981SOL     OW57781  12.709   6.094  10.620
51981SOL    HW157782  12.716   6.164  10.686
51981SOL    HW257783  12.771   6.027  10.650
51982SOL     OW57784   8.919  11.430  10.033
51982SOL    HW157785   8.930  11.336  10.026
51982SOL    HW257786   8.825  11.442  10.051
51983SOL     OW57787   8.355   2.856   9.247
51983SOL    HW157788   8.447   2.879   9.260
51983SOL    HW257789   8.322   2.836   9.334
51984SOL     OW57790   2.123   7.418  14.331
51984SOL    HW157791   2.092   7.448  14.417
51984SOL    HW257792   2.046   7.425  14.275
51985SOL     OW57793   1.815   1.549   5.536
51985SOL    HW157794   1.866   1.472   5.562
51985SOL    HW257795   1.732   1.513   5.505
51986SOL     OW57796   0.502   4.679   7.251
51986SOL    HW157797   0.539   4.604   7.206
51986SOL    HW257798   0.451   4.641   7.323
51987SOL     OW57799  12.892  12.069   9.316
51987SOL    HW157800  12.851  12.046   9.399
51987SOL    HW257801  12.892  11.987   9.266
51988SOL     OW57802  10.398   6.031   2.924
51988SOL    HW157803  10.437   6.093   2.985
51988SOL    HW257804  10.329   6.081   2.879
51989SOL     OW57805   9.354   9.807  13.476
51989SOL    HW157806   9.313   9.794  13.562
51989SOL    HW257807   9.435   9.855  13.496
51990SOL     OW57808  11.516   2.508  11.032
51990SOL    HW157809  11.460   2.431  11.039
51990SOL    HW257810  11.605   2.475  11.037
51991SOL     OW57811   1.336  10.121   8.136
51991SOL    HW157812   1.382  10.147   8.216
51991SOL    HW257813   1.339  10.025   8.137
51992SOL     OW57814   1.772   4.068   2.644
51992SOL    HW157815   1.817   3.992   2.608
51992SOL    HW257816   1.711   4.032   2.709
51993SOL     OW57817   2.746   2.703  12.697
51993SOL    HW157818   2.694   2.654  12.761
51993SOL    HW257819   2.789   2.635  12.644
51994SOL     OW57820  11.824   4.153   4.063
51994SOL    HW157821  11.789   4.105   3.987
51994SOL    HW257822  11.765   4.129   4.135
51995SOL     OW57823   4.569   5.517   0.962
51995SOL    HW157824   4.569   5.602   1.004
51995SOL    HW257825   4.493   5.518   0.905
51996SOL     OW57826   9.371  12.591  10.457
51996SOL    HW157827   9.427  12.553  10.525
51996SOL    HW257828   9.364  12.523  10.390
51997SOL     OW57829   8.357   5.760   5.492
51997SOL    HW157830   8.376   5.832   5.553
51997SOL    HW257831   8.378   5.681   5.542
51998SOL     OW57832   7.640  11.630   1.774
51998SOL    HW157833   7.658  11.688   1.848
51998SOL    HW257834   7.709  11.563   1.778
51999SOL     OW57835   3.256   8.398  13.300
51999SOL    HW157836   3.165   8.407  13.330
51999SOL    HW257837   3.278   8.307  13.316
52000SOL     OW57838   7.347   6.188  12.300
52000SOL    HW157839   7.341   6.094  12.314
52000SOL    HW257840   7.416   6.199  12.234
52001SOL     OW57841   2.760   9.191   8.491
52001SOL    HW157842   2.686   9.192   8.551
52001SOL    HW257843   2.761   9.278   8.452
52002SOL     OW57844   3.717   4.032   4.930
52002SOL    HW157845   3.634   4.053   4.887
52002SOL    HW257846   3.745   4.114   4.971
52003SOL     OW57847   2.900   5.264   4.537
52003SOL    HW157848   2.838   5.258   4.610
52003SOL    HW257849   2.893   5.355   4.507
52004SOL     OW57850   4.707  13.741   8.317
52004SOL    HW157851   4.623  13.783   8.334
52004SOL    HW257852   4.690  13.647   8.329
52005SOL     OW57853   5.840   6.595  10.215
52005SOL    HW157854   5.927   6.591  10.174
52005SOL    HW257855   5.779   6.587  10.142
52006SOL     OW57856  10.014   0.718   6.590
52006SOL    HW157857  10.015   0.806   6.630
52006SOL    HW257858   9.952   0.726   6.518
52007SOL     OW57859  11.315   8.792   5.949
52007SOL    HW157860  11.357   8.715   5.987
52007SOL    HW257861  11.387   8.846   5.917
52008SOL     OW57862  12.097   9.446  11.243
52008SOL    HW157863  12.070   9.398  11.321
52008SOL    HW257864  12.132   9.380  11.184
52009SOL     OW57865  14.481   4.994  12.068
52009SOL    HW157866  14.550   5.058  12.053
52009SOL    HW257867  14.526   4.917  12.101
52010SOL     OW57868   7.622   0.096   8.898
52010SOL    HW157869   7.535   0.064   8.875
52010SOL    HW257870   7.667   0.018   8.931
52011SOL     OW57871   1.379   3.246  11.862
52011SOL    HW157872   1.469   3.216  11.852
52011SOL    HW257873   1.386   3.334  11.899
52012SOL     OW57874   8.238  14.876  11.928
52012SOL    HW157875   8.192  14.850  11.849
52012SOL    HW257876   8.245   0.092  11.922
52013SOL     OW57877   1.964  10.661   1.371
52013SOL    HW157878   2.034  10.658   1.436
52013SOL    HW257879   1.884  10.672   1.422
52014SOL     OW57880   1.364  13.554   5.505
52014SOL    HW157881   1.344  13.624   5.568
52014SOL    HW257882   1.291  13.557   5.443
52015SOL     OW57883  10.220   8.893  12.577
52015SOL    HW157884  10.198   8.899  12.484
52015SOL    HW257885  10.148   8.938  12.621
52016SOL     OW57886   7.514   0.756   4.519
52016SOL    HW157887   7.520   0.742   4.614
52016SOL    HW257888   7.585   0.817   4.500
52017SOL     OW57889   7.367   7.760   1.704
52017SOL    HW157890   7.379   7.830   1.640
52017SOL    HW257891   7.303   7.702   1.663
52018SOL     OW57892  11.466   3.943   3.947
52018SOL    HW157893  11.428   3.946   4.035
52018SOL    HW257894  11.452   3.852   3.919
52019SOL     OW57895  13.526  14.729  10.285
52019SOL    HW157896  13.577  14.737  10.366
52019SOL    HW257897  13.585  14.684  10.224
52020SOL     OW57898   4.979   7.809   1.491
52020SOL    HW157899   4.932   7.730   1.518
52020SOL    HW257900   4.953   7.824   1.401
52021SOL     OW57901   7.671   1.193   3.301
52021SOL    HW157902   7.582   1.173   3.330
52021SOL    HW257903   7.682   1.142   3.221
52022SOL     OW57904  11.138  12.953   7.567
52022SOL    HW157905  11.064  12.941   7.506
52022SOL    HW257906  11.147  12.868   7.610
52023SOL     OW57907   9.012   0.506  14.723
52023SOL    HW157908   9.086   0.563  14.744
52023SOL    HW257909   8.957   0.558  14.665
52024SOL     OW57910   7.527   4.668   6.617
52024SOL    HW157911   7.439   4.688   6.584
52024SOL    HW257912   7.549   4.584   6.576
52025SOL     OW57913   9.405  11.254  10.292
52025SOL    HW157914   9.403  11.334  10.239
52025SOL    HW257915   9.361  11.188  10.238
52026SOL     OW57916   7.290   6.470  14.240
52026SOL    HW157917   7.234   6.393  14.230
52026SOL    HW257918   7.282   6.495  14.332
52027SOL     OW57919   6.865   7.704  11.139
52027SOL    HW157920   6.900   7.729  11.225
52027SOL    HW257921   6.846   7.788  11.096
52028SOL     OW57922   8.672  10.606   0.497
52028SOL    HW157923   8.721  10.555   0.433
52028SOL    HW257924   8.735  10.671   0.530
52029SOL     OW57925  14.747  11.703   1.409
52029SOL    HW157926  14.710  11.629   1.457
52029SOL    HW257927  14.821  11.666   1.361
52030SOL     OW57928   2.760   8.273   9.181
52030SOL    HW157929   2.713   8.252   9.262
52030SOL    HW257930   2.703   8.241   9.111
52031SOL     OW57931   0.148   4.183   6.108
52031SOL    HW157932   0.203   4.110   6.136
52031SOL    HW257933   0.064   4.169   6.153
52032SOL     OW57934  12.931  10.540   7.868
52032SOL    HW157935  12.909  10.495   7.950
52032SOL    HW257936  12.848  10.546   7.821
52033SOL     OW57937   3.650   7.855   1.577
52033SOL    HW157938   3.596   7.814   1.510
52033SOL    HW257939   3.706   7.785   1.610
52034SOL     OW57940   8.585  14.408   6.415
52034SOL    HW157941   8.637  14.349   6.469
52034SOL    HW257942   8.514  14.437   6.472
52035SOL     OW57943  12.127   2.903   2.047
52035SOL    HW157944  12.056   2.914   2.110
52035SOL    HW257945  12.205   2.933   2.093
52036SOL     OW57946   5.248   9.674  11.940
52036SOL    HW157947   5.328   9.632  11.911
52036SOL    HW257948   5.249   9.665  12.035
52037SOL     OW57949   0.986   9.929   8.431
52037SOL    HW157950   0.953   9.983   8.503
52037SOL    HW257951   0.964   9.839   8.456
52038SOL     OW57952  11.812   2.266  11.061
52038SOL    HW157953  11.723   2.229  11.070
52038SOL    HW257954  11.863   2.222  11.129
52039SOL     OW57955   1.829   2.849   9.537
52039SOL    HW157956   1.910   2.900   9.548
52039SOL    HW257957   1.837   2.778   9.601
52040SOL     OW57958   7.543   9.790   1.611
52040SOL    HW157959   7.534   9.699   1.584
52040SOL    HW257960   7.545   9.787   1.706
52041SOL     OW57961   9.067  12.339  14.509
52041SOL    HW157962   9.041  12.428  14.532
52041SOL    HW257963   9.163  12.342  14.508
52042SOL     OW57964   3.965  12.650   9.122
52042SOL    HW157965   3.966  12.726   9.064
52042SOL    HW257966   3.991  12.577   9.067
52043SOL     OW57967   7.180  11.311   0.770
52043SOL    HW157968   7.141  11.315   0.682
52043SOL    HW257969   7.114  11.266   0.823
52044SOL     OW57970  10.823  14.209  14.150
52044SOL    HW157971  10.869  14.286  14.185
52044SOL    HW257972  10.892  14.148  14.125
52045SOL     OW57973   3.348   3.678   3.901
52045SOL    HW157974   3.269   3.650   3.855
52045SOL    HW257975   3.332   3.770   3.922
52046SOL     OW57976  14.400   9.600   4.730
52046SOL    HW157977  14.372   9.637   4.814
52046SOL    HW257978  14.473   9.542   4.753
52047SOL     OW57979   4.737   3.520   7.654
52047SOL    HW157980   4.659   3.538   7.602
52047SOL    HW257981   4.789   3.600   7.648
52048SOL     OW57982   8.678   9.682   9.569
52048SOL    HW157983   8.662   9.589   9.587
52048SOL    HW257984   8.769   9.696   9.597
52049SOL     OW57985  11.227  14.708  14.076
52049SOL    HW157986  11.160  14.666  14.022
52049SOL    HW257987  11.280  14.635  14.109
52050SOL     OW57988   4.092  13.050   6.007
52050SOL    HW157989   4.111  12.994   6.082
52050SOL    HW257990   4.152  13.021   5.939
52051SOL     OW57991   1.043   6.853   5.200
52051SOL    HW157992   1.111   6.857   5.267
52051SOL    HW257993   1.011   6.943   5.193
52052SOL     OW57994  13.524   2.563   3.656
52052SOL    HW157995  13.430   2.558   3.667
52052SOL    HW257996  13.546   2.492   3.596
52053SOL     OW57997  10.841   2.664   1.746
52053SOL    HW157998  10.772   2.672   1.812
52053SOL    HW257999  10.876   2.575   1.758
52054SOL     OW58000  13.318   7.167   1.916
52054SOL    HW158001  13.259   7.092   1.914
52054SOL    HW258002  13.274   7.231   1.971
52055SOL     OW58003   5.700   7.975   0.074
52055SOL    HW158004   5.734   8.058   0.106
52055SOL    HW258005   5.617   7.964   0.120
52056SOL     OW58006  13.255   0.963  11.901
52056SOL    HW158007  13.274   1.053  11.928
52056SOL    HW258008  13.160   0.958  11.900
52057SOL     OW58009  14.125  10.391  12.135
52057SOL    HW158010  14.055  10.425  12.079
52057SOL    HW258011  14.084  10.376  12.220
52058SOL     OW58012   3.054  12.013  13.042
52058SOL    HW158013   3.137  11.981  13.077
52058SOL    HW258014   3.058  11.995  12.948
52059SOL     OW58015   7.878   3.474   8.040
52059SOL    HW158016   7.935   3.483   7.964
52059SOL    HW258017   7.896   3.387   8.074
52060SOL     OW58018   7.922   2.235  11.791
52060SOL    HW158019   7.915   2.181  11.870
52060SOL    HW258020   7.977   2.309  11.818
52061SOL     OW58021   4.899   1.042  10.797
52061SOL    HW158022   4.877   1.042  10.890
52061SOL    HW258023   4.819   1.011  10.753
52062SOL     OW58024   6.278   3.186  11.513
52062SOL    HW158025   6.304   3.278  11.515
52062SOL    HW258026   6.305   3.156  11.426
52063SOL     OW58027   6.070   8.370  11.015
52063SOL    HW158028   6.134   8.299  11.010
52063SOL    HW258029   6.120   8.448  10.989
52064SOL     OW58030  11.339   0.517   6.093
52064SOL    HW158031  11.314   0.549   6.006
52064SOL    HW258032  11.275   0.556   6.152
52065SOL     OW58033   4.450   8.303   9.824
52065SOL    HW158034   4.431   8.233   9.887
52065SOL    HW258035   4.397   8.281   9.747
52066SOL     OW58036  14.265  12.902   7.310
52066SOL    HW158037  14.291  12.981   7.262
52066SOL    HW258038  14.180  12.925   7.348
52067SOL     OW58039   1.266   8.788  11.830
52067SOL    HW158040   1.347   8.830  11.860
52067SOL    HW258041   1.253   8.821  11.742
52068SOL     OW58042   3.354   7.157   2.568
52068SOL    HW158043   3.337   7.145   2.474
52068SOL    HW258044   3.287   7.105   2.612
52069SOL     OW58045   3.141  13.725   3.183
52069SOL    HW158046   3.175  13.727   3.272
52069SOL    HW258047   3.058  13.771   3.188
52070SOL     OW58048   4.710   0.129   0.131
52070SOL    HW158049   4.645   0.122   0.061
52070SOL    HW258050   4.765   0.052   0.121
52071SOL     OW58051  13.754   3.963   8.196
52071SOL    HW158052  13.700   3.981   8.119
52071SOL    HW258053  13.773   3.869   8.192
52072SOL     OW58054  10.681   4.991   4.212
52072SOL    HW158055  10.757   5.003   4.270
52072SOL    HW258056  10.637   5.076   4.213
52073SOL     OW58057  12.585  13.264   4.636
52073SOL    HW158058  12.658  13.233   4.689
52073SOL    HW258059  12.509  13.257   4.693
52074SOL     OW58060   3.552   8.782   0.723
52074SOL    HW158061   3.644   8.766   0.700
52074SOL    HW258062   3.502   8.724   0.666
52075SOL     OW58063  10.670   9.985   9.142
52075SOL    HW158064  10.743  10.029   9.185
52075SOL    HW258065  10.707   9.901   9.113
52076SOL     OW58066   6.874   1.613   1.501
52076SOL    HW158067   6.856   1.608   1.594
52076SOL    HW258068   6.846   1.701   1.475
52077SOL     OW58069   1.312   0.535   4.062
52077SOL    HW158070   1.349   0.450   4.089
52077SOL    HW258071   1.357   0.599   4.117
52078SOL     OW58072  11.926   5.548   1.385
52078SOL    HW158073  12.010   5.571   1.345
52078SOL    HW258074  11.932   5.454   1.402
52079SOL     OW58075   1.821   8.581  13.300
52079SOL    HW158076   1.785   8.621  13.220
52079SOL    HW258077   1.758   8.513  13.323
52080SOL     OW58078   7.135   1.604  13.087
52080SOL    HW158079   7.205   1.670  13.091
52080SOL    HW258080   7.062   1.644  13.134
52081SOL     OW58081   5.837   6.604   2.827
52081SOL    HW158082   5.761   6.601   2.769
52081SOL    HW258083   5.859   6.697   2.833
52082SOL     OW58084   6.667  13.177  11.152
52082SOL    HW158085   6.671  13.229  11.071
52082SOL    HW258086   6.758  13.167  11.178
52083SOL     OW58087   4.741   9.863  11.448
52083SOL    HW158088   4.696   9.948  11.442
52083SOL    HW258089   4.772   9.859  11.538
52084SOL     OW58090   1.881   8.211   7.585
52084SOL    HW158091   1.950   8.181   7.644
52084SOL    HW258092   1.914   8.190   7.498
52085SOL     OW58093   5.448   4.542   6.056
52085SOL    HW158094   5.405   4.626   6.038
52085SOL    HW258095   5.457   4.540   6.151
52086SOL     OW58096  11.481   0.060   7.324
52086SOL    HW158097  11.573   0.036   7.324
52086SOL    HW258098  11.468   0.107   7.241
52087SOL     OW58099  13.296   8.057   9.407
52087SOL    HW158100  13.331   8.124   9.465
52087SOL    HW258101  13.318   7.974   9.449
52088SOL     OW58102   9.909   3.489   3.804
52088SOL    HW158103   9.823   3.523   3.829
52088SOL    HW258104   9.891   3.402   3.769
52089SOL     OW58105   6.029   1.316   4.240
52089SOL    HW158106   6.099   1.272   4.288
52089SOL    HW258107   6.075   1.364   4.171
52090SOL     OW58108   7.373   5.102   1.457
52090SOL    HW158109   7.363   5.087   1.363
52090SOL    HW258110   7.306   5.166   1.479
52091SOL     OW58111   0.552   0.910   6.681
52091SOL    HW158112   0.555   0.970   6.607
52091SOL    HW258113   0.506   0.833   6.649
52092SOL     OW58114   8.569   1.560  11.243
52092SOL    HW158115   8.621   1.584  11.319
52092SOL    HW258116   8.595   1.470  11.223
52093SOL     OW58117   2.666  12.876   9.518
52093SOL    HW158118   2.696  12.924   9.596
52093SOL    HW258119   2.671  12.941   9.448
52094SOL     OW58120   7.476   8.108   3.975
52094SOL    HW158121   7.523   8.191   3.976
52094SOL    HW258122   7.521   8.053   4.039
52095SOL     OW58123   6.087  12.488   2.581
52095SOL    HW158124   6.005  12.530   2.606
52095SOL    HW258125   6.062  12.402   2.549
52096SOL     OW58126   6.910  12.483   2.089
52096SOL    HW158127   6.878  12.572   2.074
52096SOL    HW258128   6.836  12.426   2.069
52097SOL     OW58129   0.129   4.584   9.715
52097SOL    HW158130   0.109   4.602   9.807
52097SOL    HW258131   0.112   4.667   9.670
52098SOL     OW58132   9.417   6.963   6.740
52098SOL    HW158133   9.377   6.876   6.743
52098SOL    HW258134   9.481   6.962   6.811
52099SOL     OW58135   7.494  12.719  14.554
52099SOL    HW158136   7.414  12.765  14.530
52099SOL    HW258137   7.498  12.723  14.649
52100SOL     OW58138   3.684   9.883   0.358
52100SOL    HW158139   3.592   9.878   0.329
52100SOL    HW258140   3.709   9.791   0.370
52101SOL     OW58141   2.114   7.286   1.216
52101SOL    HW158142   2.118   7.258   1.124
52101SOL    HW258143   2.065   7.368   1.213
52102SOL     OW58144   1.427  11.581  14.018
52102SOL    HW158145   1.488  11.557  13.948
52102SOL    HW258146   1.471  11.652  14.065
52103SOL     OW58147   7.913  12.831  12.267
52103SOL    HW158148   7.828  12.791  12.247
52103SOL    HW258149   7.934  12.799  12.355
52104SOL     OW58150   7.914   3.295   2.960
52104SOL    HW158151   7.917   3.350   3.038
52104SOL    HW258152   7.896   3.357   2.888
52105SOL     OW58153  13.456  12.092  10.408
52105SOL    HW158154  13.541  12.113  10.446
52105SOL    HW258155  13.438  12.165  10.348
52106SOL     OW58156   5.680   8.398  13.017
52106SOL    HW158157   5.760   8.361  12.980
52106SOL    HW258158   5.669   8.353  13.101
52107SOL     OW58159  12.263   1.832  14.453
52107SOL    HW158160  12.189   1.800  14.403
52107SOL    HW258161  12.287   1.760  14.512
52108SOL     OW58162   6.761   1.900   9.347
52108SOL    HW158163   6.681   1.849   9.338
52108SOL    HW258164   6.828   1.835   9.371
52109SOL     OW58165   8.647   0.178  14.765
52109SOL    HW158166   8.713   0.217  14.707
52109SOL    HW258167   8.564   0.193  14.719
52110SOL     OW58168   9.826   9.579   7.960
52110SOL    HW158169   9.874   9.648   8.007
52110SOL    HW258170   9.784   9.528   8.028
52111SOL     OW58171   6.410   5.873   8.546
52111SOL    HW158172   6.341   5.839   8.487
52111SOL    HW258173   6.431   5.798   8.602
52112SOL     OW58174   6.266   5.732  13.071
52112SOL    HW158175   6.276   5.780  13.153
52112SOL    HW258176   6.223   5.650  13.097
52113SOL     OW58177   0.945   8.475   6.371
52113SOL    HW158178   0.868   8.507   6.418
52113SOL    HW258179   1.018   8.492   6.431
52114SOL     OW58180  11.967   8.254  10.850
52114SOL    HW158181  12.010   8.247  10.765
52114SOL    HW258182  11.900   8.321  10.839
52115SOL     OW58183   4.669  13.094   5.367
52115SOL    HW158184   4.667  13.181   5.327
52115SOL    HW258185   4.596  13.047   5.325
52116SOL     OW58186   3.140   0.913  14.533
52116SOL    HW158187   3.175   0.824  14.545
52116SOL    HW258188   3.049   0.907  14.561
52117SOL     OW58189  14.668   6.381   1.501
52117SOL    HW158190  14.747   6.435   1.505
52117SOL    HW258191  14.691   6.302   1.549
52118SOL     OW58192   8.323   2.651   9.729
52118SOL    HW158193   8.286   2.731   9.692
52118SOL    HW258194   8.412   2.648   9.694
52119SOL     OW58195   9.797  11.507  10.739
52119SOL    HW158196   9.830  11.595  10.719
52119SOL    HW258197   9.717  11.522  10.790
52120SOL     OW58198  11.206   2.054   2.133
52120SOL    HW158199  11.130   2.086   2.182
52120SOL    HW258200  11.255   2.001   2.196
52121SOL     OW58201   0.542  11.199   0.632
52121SOL    HW158202   0.581  11.269   0.684
52121SOL    HW258203   0.535  11.125   0.693
52122SOL     OW58204  13.053   2.472  13.410
52122SOL    HW158205  13.125   2.427  13.453
52122SOL    HW258206  12.976   2.451  13.465
52123SOL     OW58207   8.281   1.261  13.962
52123SOL    HW158208   8.243   1.173  13.969
52123SOL    HW258209   8.331   1.259  13.880
52124SOL     OW58210   8.284   9.943  14.033
52124SOL    HW158211   8.376   9.955  14.012
52124SOL    HW258212   8.282   9.864  14.087
52125SOL     OW58213   2.204   1.616  13.953
52125SOL    HW158214   2.178   1.536  13.909
52125SOL    HW258215   2.186   1.600  14.046
52126SOL     OW58216   3.341  10.795  12.292
52126SOL    HW158217   3.430  10.776  12.261
52126SOL    HW258218   3.331  10.740  12.370
52127SOL     OW58219  13.831   5.063  14.623
52127SOL    HW158220  13.801   5.152  14.645
52127SOL    HW258221  13.825   5.059  14.527
52128SOL     OW58222   8.822   1.512   4.244
52128SOL    HW158223   8.812   1.607   4.241
52128SOL    HW258224   8.912   1.498   4.273
52129SOL     OW58225   1.077  14.701   4.226
52129SOL    HW158226   1.147  14.700   4.290
52129SOL    HW258227   1.106  14.641   4.158
52130SOL     OW58228  13.650  10.122   8.302
52130SOL    HW158229  13.664  10.186   8.233
52130SOL    HW258230  13.555  10.125   8.318
52131SOL     OW58231   2.298   8.288  13.019
52131SOL    HW158232   2.342   8.223  13.075
52131SOL    HW258233   2.338   8.371  13.043
52132SOL     OW58234   4.286  13.673   2.917
52132SOL    HW158235   4.283  13.755   2.966
52132SOL    HW258236   4.314  13.700   2.829
52133SOL     OW58237   0.812  13.873  14.726
52133SOL    HW158238   0.723  13.842  14.712
52133SOL    HW258239   0.821  13.879  14.821
52134SOL     OW58240  11.735   5.351   3.091
52134SOL    HW158241  11.785   5.322   3.167
52134SOL    HW258242  11.694   5.433   3.120
52135SOL     OW58243   5.546  13.905   5.788
52135SOL    HW158244   5.488  13.829   5.783
52135SOL    HW258245   5.598  13.891   5.867
52136SOL     OW58246  14.145   1.332   3.087
52136SOL    HW158247  14.194   1.338   3.005
52136SOL    HW258248  14.210   1.306   3.152
52137SOL     OW58249  11.566   2.259  10.417
52137SOL    HW158250  11.500   2.316  10.378
52137SOL    HW258251  11.617   2.227  10.343
52138SOL     OW58252   3.966  12.743   9.371
52138SOL    HW158253   3.980  12.713   9.281
52138SOL    HW258254   3.899  12.811   9.364
52139SOL     OW58255   4.575   6.634  12.545
52139SOL    HW158256   4.664   6.599  12.534
52139SOL    HW258257   4.518   6.557  12.542
52140SOL     OW58258  14.342   5.384  13.893
52140SOL    HW158259  14.340   5.459  13.952
52140SOL    HW258260  14.352   5.308  13.951
52141SOL     OW58261   5.766   4.039  13.667
52141SOL    HW158262   5.760   4.033  13.762
52141SOL    HW258263   5.772   3.948  13.638
52142SOL     OW58264  10.384  10.953  12.565
52142SOL    HW158265  10.411  11.018  12.630
52142SOL    HW258266  10.289  10.961  12.562
52143SOL     OW58267   8.324  12.425   6.775
52143SOL    HW158268   8.313  12.519   6.789
52143SOL    HW258269   8.418  12.413   6.762
52144SOL     OW58270  10.832   4.138  13.959
52144SOL    HW158271  10.822   4.158  14.052
52144SOL    HW258272  10.873   4.216  13.922
52145SOL     OW58273   2.880  11.710  14.876
52145SOL    HW158274   2.843  11.758  14.802
52145SOL    HW258275   2.815  11.642   0.016
52146SOL     OW58276   3.952  13.289  10.299
52146SOL    HW158277   4.000  13.343  10.237
52146SOL    HW258278   4.015  13.222  10.326
52147SOL     OW58279   7.992  11.226   1.900
52147SOL    HW158280   8.021  11.137   1.916
52147SOL    HW258281   7.931  11.244   1.972
52148SOL     OW58282   9.092  13.496   1.984
52148SOL    HW158283   9.092  13.580   2.030
52148SOL    HW258284   9.173  13.454   2.011
52149SOL     OW58285   4.173   7.158  10.756
52149SOL    HW158286   4.202   7.196  10.673
52149SOL    HW258287   4.154   7.067  10.736
52150SOL     OW58288   4.648   0.288  13.894
52150SOL    HW158289   4.556   0.287  13.919
52150SOL    HW258290   4.692   0.236  13.961
52151SOL     OW58291   2.652  10.424   3.897
52151SOL    HW158292   2.645  10.518   3.913
52151SOL    HW258293   2.746  10.408   3.888
52152SOL     OW58294  11.790   5.800   9.336
52152SOL    HW158295  11.741   5.749   9.401
52152SOL    HW258296  11.806   5.737   9.265
52153SOL     OW58297  10.507  13.872   0.138
52153SOL    HW158298  10.543  13.792   0.177
52153SOL    HW258299  10.441  13.841   0.077
52154SOL     OW58300   1.386   7.192  10.999
52154SOL    HW158301   1.440   7.149  10.932
52154SOL    HW258302   1.392   7.134  11.075
52155SOL     OW58303  10.431  13.155   3.166
52155SOL    HW158304  10.499  13.155   3.233
52155SOL    HW258305  10.463  13.214   3.098
52156SOL     OW58306   2.620   8.579  12.413
52156SOL    HW158307   2.640   8.563  12.505
52156SOL    HW258308   2.626   8.492  12.372
52157SOL     OW58309   5.187  13.305  10.796
52157SOL    HW158310   5.272  13.262  10.788
52157SOL    HW258311   5.207  13.396  10.815
52158SOL     OW58312   1.270   3.587  11.160
52158SOL    HW158313   1.242   3.678  11.150
52158SOL    HW258314   1.322   3.568  11.082
52159SOL     OW58315  12.875  13.023   7.090
52159SOL    HW158316  12.962  12.988   7.112
52159SOL    HW258317  12.816  12.948   7.098
52160SOL     OW58318   3.845   3.895  14.819
52160SOL    HW158319   3.813   3.807  14.801
52160SOL    HW258320   3.867   3.930  14.733
52161SOL     OW58321   6.213  12.281   8.813
52161SOL    HW158322   6.230  12.352   8.874
52161SOL    HW258323   6.297  12.236   8.804
52162SOL     OW58324  12.851   3.502   7.257
52162SOL    HW158325  12.903   3.532   7.332
52162SOL    HW258326  12.764   3.540   7.271
52163SOL     OW58327  14.298   5.794   3.386
52163SOL    HW158328  14.341   5.823   3.305
52163SOL    HW258329  14.230   5.734   3.356
52164SOL     OW58330   7.977  14.794   9.995
52164SOL    HW158331   7.984  14.719   9.935
52164SOL    HW258332   7.890  14.830   9.979
52165SOL     OW58333   4.221  14.222   0.854
52165SOL    HW158334   4.295  14.260   0.900
52165SOL    HW258335   4.145  14.243   0.909
52166SOL     OW58336   3.470   1.104   3.075
52166SOL    HW158337   3.488   1.191   3.111
52166SOL    HW258338   3.513   1.104   2.990
52167SOL     OW58339   8.678  11.971   8.054
52167SOL    HW158340   8.627  12.050   8.072
52167SOL    HW258341   8.729  11.994   7.976
52168SOL     OW58342   5.587   0.208   3.112
52168SOL    HW158343   5.630   0.129   3.079
52168SOL    HW258344   5.599   0.272   3.042
52169SOL     OW58345   0.249   4.285   0.167
52169SOL    HW158346   0.306   4.223   0.211
52169SOL    HW258347   0.172   4.234   0.143
52170SOL     OW58348  11.384   0.212   8.847
52170SOL    HW158349  11.454   0.162   8.889
52170SOL    HW258350  11.303   0.168   8.874
52171SOL     OW58351  14.651   4.967   0.809
52171SOL    HW158352  14.685   5.038   0.863
52171SOL    HW258353  14.616   5.010   0.732
52172SOL     OW58354   1.570  10.825   1.359
52172SOL    HW158355   1.538  10.891   1.420
52172SOL    HW258356   1.509  10.830   1.285
52173SOL     OW58357  14.206   5.036   3.509
52173SOL    HW158358  14.185   4.970   3.574
52173SOL    HW258359  14.124   5.052   3.462
52174SOL     OW58360   7.699  12.899   3.701
52174SOL    HW158361   7.665  12.988   3.705
52174SOL    HW258362   7.636  12.852   3.646
52175SOL     OW58363   2.027   8.761   6.248
52175SOL    HW158364   1.954   8.714   6.208
52175SOL    HW258365   2.057   8.704   6.319
52176SOL     OW58366  13.895   6.132   2.231
52176SOL    HW158367  13.953   6.178   2.292
52176SOL    HW258368  13.950   6.066   2.190
52177SOL     OW58369  11.033  11.231  14.275
52177SOL    HW158370  10.962  11.289  14.248
52177SOL    HW258371  11.067  11.195  14.193
52178SOL     OW58372  14.050  11.188   0.635
52178SOL    HW158373  14.002  11.137   0.570
52178SOL    HW258374  14.121  11.229   0.585
52179SOL     OW58375   6.206   0.013   1.081
52179SOL    HW158376   6.189   0.091   1.028
52179SOL    HW258377   6.238   0.048   1.165
52180SOL     OW58378  10.294   1.941  11.967
52180SOL    HW158379  10.268   1.926  12.058
52180SOL    HW258380  10.365   2.005  11.973
52181SOL     OW58381   4.654  12.085   8.266
52181SOL    HW158382   4.732  12.030   8.250
52181SOL    HW258383   4.683  12.151   8.328
52182SOL     OW58384   5.606  13.587   0.513
52182SOL    HW158385   5.566  13.619   0.432
52182SOL    HW258386   5.552  13.513   0.539
52183SOL     OW58387   2.420   8.566   7.511
52183SOL    HW158388   2.416   8.649   7.464
52183SOL    HW258389   2.341   8.564   7.565
52184SOL     OW58390   9.880   3.519   8.617
52184SOL    HW158391   9.909   3.504   8.707
52184SOL    HW258392   9.796   3.473   8.611
52185SOL     OW58393   4.370   0.306  12.404
52185SOL    HW158394   4.298   0.242  12.405
52185SOL    HW258395   4.442   0.260  12.362
52186SOL     OW58396   9.113  11.965   7.043
52186SOL    HW158397   9.024  11.990   7.018
52186SOL    HW258398   9.127  11.880   7.001
52187SOL     OW58399  13.084   5.180   7.170
52187SOL    HW158400  13.019   5.171   7.239
52187SOL    HW258401  13.039   5.228   7.101
52188SOL     OW58402   9.729   4.681  13.340
52188SOL    HW158403   9.766   4.760  13.300
52188SOL    HW258404   9.647   4.710  13.378
52189SOL     OW58405   7.067  14.726  10.904
52189SOL    HW158406   6.988  14.720  10.851
52189SOL    HW258407   7.046  14.680  10.985
52190SOL     OW58408   3.435  11.463   2.657
52190SOL    HW158409   3.385  11.533   2.700
52190SOL    HW258410   3.504  11.442   2.720
52191SOL     OW58411   2.851  12.994  11.990
52191SOL    HW158412   2.891  13.080  12.002
52191SOL    HW258413   2.903  12.936  12.046
52192SOL     OW58414   7.455   0.373   1.008
52192SOL    HW158415   7.452   0.461   1.046
52192SOL    HW258416   7.394   0.376   0.935
52193SOL     OW58417   9.345  13.411   5.265
52193SOL    HW158418   9.391  13.494   5.280
52193SOL    HW258419   9.335  13.406   5.170
52194SOL     OW58420  12.960   6.839   0.343
52194SOL    HW158421  13.001   6.797   0.418
52194SOL    HW258422  12.887   6.888   0.381
52195SOL     OW58423  14.233   7.351   8.651
52195SOL    HW158424  14.149   7.309   8.639
52195SOL    HW258425  14.297   7.288   8.618
52196SOL     OW58426   6.016   1.207  11.517
52196SOL    HW158427   5.974   1.158  11.446
52196SOL    HW258428   6.064   1.276  11.472
52197SOL     OW58429   6.595   4.623   9.717
52197SOL    HW158430   6.555   4.553   9.768
52197SOL    HW258431   6.551   4.703   9.746
52198SOL     OW58432   9.318   8.891   2.941
52198SOL    HW158433   9.336   8.797   2.930
52198SOL    HW258434   9.367   8.933   2.871
52199SOL     OW58435  14.540   9.762   8.209
52199SOL    HW158436  14.547   9.680   8.160
52199SOL    HW258437  14.577   9.828   8.150
52200SOL     OW58438   7.769  12.599   2.991
52200SOL    HW158439   7.798  12.636   3.074
52200SOL    HW258440   7.673  12.605   2.995
52201SOL     OW58441  10.951   2.406   7.537
52201SOL    HW158442  10.866   2.409   7.492
52201SOL    HW258443  10.929   2.383   7.628
52202SOL     OW58444   3.333   8.573   5.550
52202SOL    HW158445   3.294   8.654   5.516
52202SOL    HW258446   3.427   8.592   5.556
52203SOL     OW58447   4.982   1.542   4.309
52203SOL    HW158448   5.019   1.461   4.273
52203SOL    HW258449   4.933   1.513   4.386
52204SOL     OW58450  10.581   7.216   3.569
52204SOL    HW158451  10.636   7.171   3.505
52204SOL    HW258452  10.556   7.148   3.631
52205SOL     OW58453  11.353  11.194   0.699
52205SOL    HW158454  11.308  11.279   0.697
52205SOL    HW258455  11.283  11.129   0.691
52206SOL     OW58456   3.362   8.700  12.169
52206SOL    HW158457   3.403   8.652  12.097
52206SOL    HW258458   3.326   8.779  12.129
52207SOL     OW58459   9.754   0.864   6.935
52207SOL    HW158460   9.697   0.865   7.012
52207SOL    HW258461   9.693   0.866   6.860
52208SOL     OW58462   6.522  13.983   4.619
52208SOL    HW158463   6.488  14.072   4.615
52208SOL    HW258464   6.476  13.944   4.693
52209SOL     OW58465   3.775   8.054   7.090
52209SOL    HW158466   3.728   7.982   7.131
52209SOL    HW258467   3.843   8.078   7.153
52210SOL     OW58468   1.590   6.677  14.599
52210SOL    HW158469   1.605   6.764  14.561
52210SOL    HW258470   1.532   6.634  14.536
52211SOL     OW58471   2.653   8.716   2.387
52211SOL    HW158472   2.733   8.741   2.434
52211SOL    HW258473   2.594   8.685   2.456
52212SOL     OW58474  11.014   3.400   4.718
52212SOL    HW158475  11.075   3.398   4.644
52212SOL    HW258476  10.942   3.455   4.689
52213SOL     OW58477   9.872   8.790  10.951
52213SOL    HW158478   9.851   8.720  10.889
52213SOL    HW258479   9.829   8.765  11.032
52214SOL     OW58480   9.998   5.476   9.540
52214SOL    HW158481   9.914   5.437   9.516
52214SOL    HW258482  10.052   5.468   9.462
52215SOL     OW58483   2.779  14.176   6.938
52215SOL    HW158484   2.806  14.199   6.849
52215SOL    HW258485   2.688  14.146   6.928
52216SOL     OW58486  11.069   2.071  11.972
52216SOL    HW158487  11.010   2.006  12.009
52216SOL    HW258488  11.046   2.074  11.879
52217SOL     OW58489   7.224  12.125  12.269
52217SOL    HW158490   7.146  12.172  12.239
52217SOL    HW258491   7.200  12.091  12.355
52218SOL     OW58492  11.167  10.655   4.070
52218SOL    HW158493  11.228  10.588   4.038
52218SOL    HW258494  11.085  10.607   4.085
52219SOL     OW58495   9.554   5.225   6.253
52219SOL    HW158496   9.502   5.305   6.257
52219SOL    HW258497   9.491   5.154   6.267
52220SOL     OW58498   6.730   6.378   3.356
52220SOL    HW158499   6.758   6.322   3.429
52220SOL    HW258500   6.658   6.430   3.392
52221SOL     OW58501  13.388   5.875   2.553
52221SOL    HW158502  13.369   5.782   2.566
52221SOL    HW258503  13.410   5.907   2.640
52222SOL     OW58504   0.320  12.255   4.455
52222SOL    HW158505   0.343  12.320   4.388
52222SOL    HW258506   0.231  12.278   4.481
52223SOL     OW58507  13.318   9.932   2.916
52223SOL    HW158508  13.286   9.915   2.827
52223SOL    HW258509  13.321   9.846   2.957
52224SOL     OW58510   1.670  10.375  14.363
52224SOL    HW158511   1.759  10.340  14.360
52224SOL    HW258512   1.680  10.464  14.395
52225SOL     OW58513  10.587   5.580   7.501
52225SOL    HW158514  10.668   5.565   7.452
52225SOL    HW258515  10.563   5.671   7.480
52226SOL     OW58516  11.684  11.657   0.847
52226SOL    HW158517  11.671  11.591   0.778
52226SOL    HW258518  11.778  11.675   0.846
52227SOL     OW58519   7.366   4.494   0.937
52227SOL    HW158520   7.281   4.472   0.977
52227SOL    HW258521   7.430   4.449   0.993
52228SOL     OW58522   2.331   1.870   8.559
52228SOL    HW158523   2.276   1.858   8.482
52228SOL    HW258524   2.399   1.931   8.531
52229SOL     OW58525   5.236   5.724   3.029
52229SOL    HW158526   5.280   5.728   3.114
52229SOL    HW258527   5.173   5.796   3.032
52230SOL     OW58528   7.256  10.101   5.831
52230SOL    HW158529   7.330  10.067   5.879
52230SOL    HW258530   7.187  10.035   5.842
52231SOL     OW58531   1.039  12.228  13.781
52231SOL    HW158532   0.950  12.199  13.762
52231SOL    HW258533   1.081  12.152  13.821
52232SOL     OW58534   6.746   4.157   8.007
52232SOL    HW158535   6.659   4.119   8.019
52232SOL    HW258536   6.794   4.131   8.086
52233SOL     OW58537  12.535  12.314  11.023
52233SOL    HW158538  12.582  12.393  11.052
52233SOL    HW258539  12.575  12.243  11.073
52234SOL     OW58540   8.798   4.296  12.200
52234SOL    HW158541   8.813   4.233  12.129
52234SOL    HW258542   8.739   4.361  12.162
52235SOL     OW58543   1.877   5.717   1.660
52235SOL    HW158544   1.968   5.718   1.690
52235SOL    HW258545   1.875   5.776   1.585
52236SOL     OW58546   7.001   1.320  14.163
52236SOL    HW158547   7.035   1.243  14.117
52236SOL    HW258548   7.004   1.296  14.255
52237SOL     OW58549   2.487  10.540   6.576
52237SOL    HW158550   2.556  10.527   6.510
52237SOL    HW258551   2.405  10.523   6.529
52238SOL     OW58552  11.341   5.652  13.389
52238SOL    HW158553  11.289   5.609  13.321
52238SOL    HW258554  11.409   5.699  13.341
52239SOL     OW58555  12.780   4.450  12.395
52239SOL    HW158556  12.735   4.528  12.362
52239SOL    HW258557  12.807   4.402  12.317
52240SOL     OW58558   9.412  10.892   9.175
52240SOL    HW158559   9.491  10.842   9.157
52240SOL    HW258560   9.413  10.963   9.110
52241SOL     OW58561   0.802   7.299   4.301
52241SOL    HW158562   0.853   7.317   4.222
52241SOL    HW258563   0.865   7.261   4.362
52242SOL     OW58564   2.569  12.851   8.903
52242SOL    HW158565   2.548  12.799   8.825
52242SOL    HW258566   2.542  12.795   8.976
52243SOL     OW58567  12.074   1.946   6.179
52243SOL    HW158568  12.033   1.898   6.106
52243SOL    HW258569  12.004   1.958   6.242
52244SOL     OW58570   2.225  14.303  10.877
52244SOL    HW158571   2.155  14.356  10.839
52244SOL    HW258572   2.182  14.223  10.906
52245SOL     OW58573   7.274  13.998   0.333
52245SOL    HW158574   7.319  13.953   0.404
52245SOL    HW258575   7.187  13.958   0.331
52246SOL     OW58576   2.565   6.666  10.723
52246SOL    HW158577   2.512   6.724  10.668
52246SOL    HW258578   2.638   6.641  10.667
52247SOL     OW58579  11.073   0.964   3.407
52247SOL    HW158580  11.154   0.982   3.454
52247SOL    HW258581  11.083   0.873   3.377
52248SOL     OW58582  10.163  14.686  13.972
52248SOL    HW158583  10.215  14.621  14.019
52248SOL    HW258584  10.217  14.765  13.972
52249SOL     OW58585  12.966   8.795  13.134
52249SOL    HW158586  13.021   8.804  13.056
52249SOL    HW258587  12.922   8.711  13.123
52250SOL     OW58588  14.102   9.320  14.874
52250SOL    HW158589  14.059   9.253   0.048
52250SOL    HW258590  14.195   9.300   0.002
52251SOL     OW58591   2.381   2.548  12.194
52251SOL    HW158592   2.427   2.613  12.141
52251SOL    HW258593   2.369   2.473  12.136
52252SOL     OW58594  10.020  12.193  12.905
52252SOL    HW158595  10.018  12.123  12.840
52252SOL    HW258596  10.072  12.262  12.863
52253SOL     OW58597   8.236   8.877   6.957
52253SOL    HW158598   8.258   8.909   6.869
52253SOL    HW258599   8.241   8.954   7.013
52254SOL     OW58600   8.380   3.535   7.447
52254SOL    HW158601   8.321   3.594   7.494
52254SOL    HW258602   8.357   3.447   7.479
52255SOL     OW58603  13.234   7.110   1.644
52255SOL    HW158604  13.174   7.162   1.591
52255SOL    HW258605  13.258   7.168   1.716
52256SOL     OW58606   4.877   7.485   1.291
52256SOL    HW158607   4.839   7.505   1.377
52256SOL    HW258608   4.894   7.391   1.295
52257SOL     OW58609  11.516   3.948  11.359
52257SOL    HW158610  11.491   3.866  11.401
52257SOL    HW258611  11.435   3.981  11.320
52258SOL     OW58612   5.150   2.023   4.662
52258SOL    HW158613   5.079   1.974   4.703
52258SOL    HW258614   5.220   1.959   4.649
52259SOL     OW58615   8.610  13.010   0.345
52259SOL    HW158616   8.545  13.069   0.385
52259SOL    HW258617   8.575  12.991   0.258
52260SOL     OW58618   8.547  13.342   1.708
52260SOL    HW158619   8.575  13.325   1.799
52260SOL    HW258620   8.606  13.410   1.677
52261SOL     OW58621   9.338  13.898  11.546
52261SOL    HW158622   9.348  13.953  11.468
52261SOL    HW258623   9.244  13.882  11.552
52262SOL     OW58624  14.017  14.579   1.053
52262SOL    HW158625  14.006  14.652   1.114
52262SOL    HW258626  13.938  14.527   1.064
52263SOL     OW58627   3.571   5.380   0.251
52263SOL    HW158628   3.583   5.466   0.293
52263SOL    HW258629   3.607   5.318   0.313
52264SOL     OW58630   5.680   6.891   1.976
52264SOL    HW158631   5.650   6.818   1.923
52264SOL    HW258632   5.775   6.891   1.966
52265SOL     OW58633   8.049  13.284  10.679
52265SOL    HW158634   7.970  13.339  10.685
52265SOL    HW258635   8.108  13.334  10.623
52266SOL     OW58636   2.136   2.002   0.522
52266SOL    HW158637   2.070   2.064   0.554
52266SOL    HW258638   2.220   2.043   0.544
52267SOL     OW58639   7.610   7.262  10.412
52267SOL    HW158640   7.519   7.291  10.403
52267SOL    HW258641   7.625   7.207  10.335
52268SOL     OW58642   9.163   7.346  12.966
52268SOL    HW158643   9.171   7.346  12.871
52268SOL    HW258644   9.116   7.264  12.986
52269SOL     OW58645   3.542   0.065  14.245
52269SOL    HW158646   3.584   0.137  14.292
52269SOL    HW258647   3.450   0.072  14.269
52270SOL     OW58648   3.017   9.513  10.530
52270SOL    HW158649   2.932   9.556  10.543
52270SOL    HW258650   3.068   9.577  10.480
52271SOL     OW58651   1.107   9.819   0.872
52271SOL    HW158652   1.154   9.853   0.795
52271SOL    HW258653   1.176   9.804   0.936
52272SOL     OW58654  14.657  10.294   5.169
52272SOL    HW158655  14.576  10.265   5.212
52272SOL    HW258656  14.647  10.267   5.078
52273SOL     OW58657   3.693  14.428   0.377
52273SOL    HW158658   3.710  14.499   0.315
52273SOL    HW258659   3.638  14.366   0.329
52274SOL     OW58660   5.627  12.952  11.262
52274SOL    HW158661   5.650  13.036  11.222
52274SOL    HW258662   5.537  12.964  11.292
52275SOL     OW58663   0.118   4.086  12.400
52275SOL    HW158664   0.181   4.127  12.459
52275SOL    HW258665   0.143   3.993  12.400
52276SOL     OW58666   8.570  12.620  13.638
52276SOL    HW158667   8.518  12.663  13.706
52276SOL    HW258668   8.516  12.545  13.610
52277SOL     OW58669   8.500  10.888   2.739
52277SOL    HW158670   8.454  10.867   2.658
52277SOL    HW258671   8.546  10.806   2.762
52278SOL     OW58672  12.981   4.463   1.883
52278SOL    HW158673  12.932   4.524   1.828
52278SOL    HW258674  12.940   4.470   1.969
52279SOL     OW58675   8.657   1.966   4.418
52279SOL    HW158676   8.563   1.945   4.418
52279SOL    HW258677   8.664   2.041   4.358
52280SOL     OW58678  14.091  11.387   8.209
52280SOL    HW158679  14.179  11.353   8.195
52280SOL    HW258680  14.105  11.476   8.242
52281SOL     OW58681   6.064   8.212   9.045
52281SOL    HW158682   6.025   8.286   9.092
52281SOL    HW258683   6.156   8.236   9.036
52282SOL     OW58684   1.402   5.848   2.049
52282SOL    HW158685   1.451   5.767   2.035
52282SOL    HW258686   1.455   5.898   2.111
52283SOL     OW58687  10.986  10.470   0.808
52283SOL    HW158688  10.935  10.430   0.738
52283SOL    HW258689  11.076  10.440   0.793
52284SOL     OW58690  13.691   2.680   7.771
52284SOL    HW158691  13.762   2.627   7.806
52284SOL    HW258692  13.682   2.652   7.680
52285SOL     OW58693   2.515   9.140   7.121
52285SOL    HW158694   2.532   9.194   7.044
52285SOL    HW258695   2.423   9.115   7.113
52286SOL     OW58696   8.406  11.940   6.227
52286SOL    HW158697   8.345  11.966   6.296
52286SOL    HW258698   8.392  11.845   6.217
52287SOL     OW58699  13.070   7.625  13.224
52287SOL    HW158700  12.990   7.598  13.270
52287SOL    HW258701  13.081   7.717  13.248
52288SOL     OW58702  14.363   2.880   8.973
52288SOL    HW158703  14.432   2.814   8.980
52288SOL    HW258704  14.287   2.832   8.940
52289SOL     OW58705  11.613   5.313   0.538
52289SOL    HW158706  11.606   5.291   0.631
52289SOL    HW258707  11.573   5.239   0.493
52290SOL     OW58708  10.375   2.459   3.276
52290SOL    HW158709  10.465   2.453   3.308
52290SOL    HW258710  10.378   2.420   3.188
52291SOL     OW58711   6.534  13.577  14.388
52291SOL    HW158712   6.483  13.521  14.330
52291SOL    HW258713   6.482  13.582  14.469
52292SOL     OW58714   0.629   2.782   4.943
52292SOL    HW158715   0.719   2.762   4.970
52292SOL    HW258716   0.596   2.700   4.908
52293SOL     OW58717   3.191   1.683  12.240
52293SOL    HW158718   3.153   1.710  12.156
52293SOL    HW258719   3.186   1.761  12.295
52294SOL     OW58720   7.900   5.887  10.994
52294SOL    HW158721   7.931   5.805  10.955
52294SOL    HW258722   7.807   5.890  10.972
52295SOL     OW58723   6.774  14.859   3.478
52295SOL    HW158724   6.850  14.835   3.426
52295SOL    HW258725   6.733   0.052   3.430
52296SOL     OW58726   6.954  10.924  10.243
52296SOL    HW158727   7.004  10.979  10.303
52296SOL    HW258728   6.985  10.948  10.156
52297SOL     OW58729   6.955  11.707   9.287
52297SOL    HW158730   6.935  11.792   9.247
52297SOL    HW258731   6.883  11.650   9.259
52298SOL     OW58732   1.488   7.342   1.525
52298SOL    HW158733   1.511   7.288   1.600
52298SOL    HW258734   1.472   7.279   1.454
52299SOL     OW58735   2.724   0.885   8.760
52299SOL    HW158736   2.817   0.875   8.743
52299SOL    HW258737   2.702   0.970   8.722
52300SOL     OW58738  12.463   4.566  12.046
52300SOL    HW158739  12.523   4.502  12.084
52300SOL    HW258740  12.510   4.649  12.051
52301SOL     OW58741   1.567  10.374   4.489
52301SOL    HW158742   1.522  10.435   4.549
52301SOL    HW258743   1.514  10.375   4.410
52302SOL     OW58744   5.236   0.515  10.210
52302SOL    HW158745   5.232   0.547  10.120
52302SOL    HW258746   5.311   0.560  10.248
52303SOL     OW58747  14.086   9.448  14.604
52303SOL    HW158748  14.026   9.394  14.553
52303SOL    HW258749  14.098   9.399  14.686
52304SOL     OW58750   6.863   1.244   2.975
52304SOL    HW158751   6.915   1.237   3.055
52304SOL    HW258752   6.837   1.336   2.971
52305SOL     OW58753   0.737   9.215   0.033
52305SOL    HW158754   0.751   9.159   0.109
52305SOL    HW258755   0.775   9.166  14.839
52306SOL     OW58756   2.668   2.500   7.929
52306SOL    HW158757   2.678   2.454   8.012
52306SOL    HW258758   2.574   2.511   7.918
52307SOL     OW58759   9.662   6.527  11.305
52307SOL    HW158760   9.651   6.614  11.266
52307SOL    HW258761   9.574   6.502  11.334
52308SOL     OW58762   3.621   4.393   4.323
52308SOL    HW158763   3.527   4.375   4.315
52308SOL    HW258764   3.626   4.463   4.388
52309SOL     OW58765   2.875   7.721   5.367
52309SOL    HW158766   2.943   7.719   5.434
52309SOL    HW258767   2.921   7.743   5.286
52310SOL     OW58768  11.050  13.804   5.200
52310SOL    HW158769  10.992  13.859   5.148
52310SOL    HW258770  10.991  13.745   5.247
52311SOL     OW58771   7.852   9.771   5.735
52311SOL    HW158772   7.937   9.815   5.741
52311SOL    HW258773   7.789   9.842   5.723
52312SOL     OW58774   7.709  14.878  10.990
52312SOL    HW158775   7.705   0.054  11.068
52312SOL    HW258776   7.684   0.058  10.919
52313SOL     OW58777   6.920  11.661   3.073
52313SOL    HW158778   6.908  11.719   2.998
52313SOL    HW258779   6.967  11.585   3.038
52314SOL     OW58780  13.556  14.490   2.158
52314SOL    HW158781  13.464  14.473   2.138
52314SOL    HW258782  13.601  14.477   2.074
52315SOL     OW58783   7.829   5.174   1.333
52315SOL    HW158784   7.872   5.227   1.266
52315SOL    HW258785   7.773   5.235   1.380
52316SOL     OW58786   1.996   3.111   8.894
52316SOL    HW158787   1.978   3.045   8.961
52316SOL    HW258788   1.919   3.111   8.838
52317SOL     OW58789   9.513   8.243   8.819
52317SOL    HW158790   9.450   8.299   8.772
52317SOL    HW258791   9.481   8.154   8.805
52318SOL     OW58792  11.040  13.043  13.312
52318SOL    HW158793  11.015  13.119  13.259
52318SOL    HW258794  11.034  13.074  13.402
52319SOL     OW58795   8.914   9.795   9.713
52319SOL    HW158796   8.959   9.710   9.715
52319SOL    HW258797   8.960   9.845   9.646
52320SOL     OW58798   8.282  14.476  11.044
52320SOL    HW158799   8.345  14.428  11.098
52320SOL    HW258800   8.258  14.415  10.975
52321SOL     OW58801   6.347   7.776   1.353
52321SOL    HW158802   6.411   7.708   1.373
52321SOL    HW258803   6.298   7.789   1.434
52322SOL     OW58804   3.050   0.086   0.564
52322SOL    HW158805   3.077   0.045   0.482
52322SOL    HW258806   3.069   0.021   0.632
52323SOL     OW58807  13.860   7.347  13.669
52323SOL    HW158808  13.825   7.260  13.690
52323SOL    HW258809  13.920   7.332  13.597
52324SOL     OW58810  11.950   2.165   7.415
52324SOL    HW158811  11.895   2.087   7.420
52324SOL    HW258812  12.006   2.160   7.492
52325SOL     OW58813   6.498  10.153   3.871
52325SOL    HW158814   6.569  10.135   3.809
52325SOL    HW258815   6.437  10.079   3.860
52326SOL     OW58816  10.855   3.715   1.584
52326SOL    HW158817  10.873   3.635   1.633
52326SOL    HW258818  10.782   3.692   1.526
52327SOL     OW58819   1.315   2.439   9.316
52327SOL    HW158820   1.294   2.532   9.315
52327SOL    HW258821   1.324   2.417   9.409
52328SOL     OW58822   9.661   8.204   4.939
52328SOL    HW158823   9.566   8.198   4.925
52328SOL    HW258824   9.692   8.261   4.868
52329SOL     OW58825   8.484   6.094   9.427
52329SOL    HW158826   8.467   6.168   9.369
52329SOL    HW258827   8.551   6.042   9.382
52330SOL     OW58828   4.042   9.981   1.061
52330SOL    HW158829   4.060   9.995   0.968
52330SOL    HW258830   4.126   9.952   1.098
52331SOL     OW58831  10.314  13.727   1.625
52331SOL    HW158832  10.255  13.731   1.699
52331SOL    HW258833  10.383  13.667   1.653
52332SOL     OW58834  10.650  13.020   9.793
52332SOL    HW158835  10.557  13.018   9.818
52332SOL    HW258836  10.653  12.971   9.711
52333SOL     OW58837   8.979   6.843  13.040
52333SOL    HW158838   9.022   6.868  12.958
52333SOL    HW258839   8.891   6.816  13.014
52334SOL     OW58840   1.141   4.593   0.072
52334SOL    HW158841   1.189   4.520   0.110
52334SOL    HW258842   1.151   4.664   0.135
52335SOL     OW58843   4.065   6.217  10.999
52335SOL    HW158844   4.122   6.274  10.947
52335SOL    HW258845   3.984   6.268  11.010
52336SOL     OW58846   5.952   7.759   9.198
52336SOL    HW158847   5.936   7.853   9.191
52336SOL    HW258848   5.870   7.718   9.171
52337SOL     OW58849  12.645   0.616   4.185
52337SOL    HW158850  12.647   0.662   4.269
52337SOL    HW258851  12.602   0.677   4.125
52338SOL     OW58852   7.518  13.665   5.785
52338SOL    HW158853   7.559  13.611   5.853
52338SOL    HW258854   7.449  13.610   5.749
52339SOL     OW58855  13.982   1.684   1.702
52339SOL    HW158856  13.992   1.623   1.775
52339SOL    HW258857  13.914   1.744   1.730
52340SOL     OW58858  11.801   3.966   7.670
52340SOL    HW158859  11.887   3.927   7.654
52340SOL    HW258860  11.819   4.041   7.726
52341SOL     OW58861   4.508   5.277   8.574
52341SOL    HW158862   4.490   5.212   8.641
52341SOL    HW258863   4.601   5.298   8.584
52342SOL     OW58864  13.840   0.397   2.593
52342SOL    HW158865  13.877   0.335   2.530
52342SOL    HW258866  13.787   0.343   2.652
52343SOL     OW58867   3.648   3.904  10.444
52343SOL    HW158868   3.580   3.911  10.378
52343SOL    HW258869   3.641   3.814  10.477
52344SOL     OW58870   9.651   3.734   4.029
52344SOL    HW158871   9.689   3.820   4.009
52344SOL    HW258872   9.655   3.728   4.125
52345SOL     OW58873   8.560   0.128   7.780
52345SOL    HW158874   8.592   0.039   7.794
52345SOL    HW258875   8.465   0.121   7.787
52346SOL     OW58876   0.383   8.233  13.044
52346SOL    HW158877   0.475   8.253  13.028
52346SOL    HW258878   0.370   8.146  13.005
52347SOL     OW58879   7.205   0.915   3.106
52347SOL    HW158880   7.111   0.905   3.094
52347SOL    HW258881   7.221   1.009   3.100
52348SOL     OW58882   0.457  12.025   0.443
52348SOL    HW158883   0.377  12.056   0.400
52348SOL    HW258884   0.472  12.088   0.514
52349SOL     OW58885  10.881   0.959   0.238
52349SOL    HW158886  10.817   0.940   0.169
52349SOL    HW258887  10.852   0.906   0.313
52350SOL     OW58888   6.549   6.883  12.476
52350SOL    HW158889   6.505   6.942  12.414
52350SOL    HW258890   6.484   6.867  12.544
52351SOL     OW58891   5.472  11.601  14.713
52351SOL    HW158892   5.417  11.531  14.678
52351SOL    HW258893   5.547  11.604  14.653
52352SOL     OW58894  11.430   5.767  11.405
52352SOL    HW158895  11.381   5.693  11.441
52352SOL    HW258896  11.489   5.728  11.341
52353SOL     OW58897   3.137   1.393   4.526
52353SOL    HW158898   3.220   1.380   4.571
52353SOL    HW258899   3.089   1.455   4.581
52354SOL     OW58900   2.639  11.249   1.022
52354SOL    HW158901   2.544  11.238   1.022
52354SOL    HW258902   2.669  11.201   0.945
52355SOL     OW58903   8.108  12.999   8.830
52355SOL    HW158904   8.035  13.050   8.866
52355SOL    HW258905   8.141  12.949   8.905
52356SOL     OW58906   9.139   0.790   4.286
52356SOL    HW158907   9.046   0.791   4.310
52356SOL    HW258908   9.184   0.812   4.367
52357SOL     OW58909   2.786  10.161   5.329
52357SOL    HW158910   2.776  10.068   5.347
52357SOL    HW258911   2.697  10.196   5.332
52358SOL     OW58912  10.226  11.145   6.535
52358SOL    HW158913  10.136  11.178   6.531
52358SOL    HW258914  10.220  11.066   6.587
52359SOL     OW58915   4.388   9.553   3.779
52359SOL    HW158916   4.456   9.593   3.724
52359SOL    HW258917   4.415   9.571   3.869
52360SOL     OW58918  14.646  10.049   1.856
52360SOL    HW158919  14.616  10.134   1.822
52360SOL    HW258920  14.577  10.022   1.917
52361SOL     OW58921   7.936   2.401   4.226
52361SOL    HW158922   7.936   2.463   4.299
52361SOL    HW258923   7.994   2.330   4.255
52362SOL     OW58924   8.019  11.655  14.870
52362SOL    HW158925   7.936  11.637  14.826
52362SOL    HW258926   8.068  11.573  14.862
52363SOL     OW58927  12.227   0.615  12.623
52363SOL    HW158928  12.302   0.659  12.581
52363SOL    HW258929  12.223   0.529  12.581
52364SOL     OW58930   4.383  13.792  12.000
52364SOL    HW158931   4.415  13.786  12.090
52364SOL    HW258932   4.428  13.868  11.963
52365SOL     OW58933   3.333  13.833   0.233
52365SOL    HW158934   3.423  13.820   0.262
52365SOL    HW258935   3.314  13.757   0.178
52366SOL     OW58936  11.579   5.779  13.273
52366SOL    HW158937  11.594   5.862  13.227
52366SOL    HW258938  11.665   5.753  13.306
52367SOL     OW58939   2.090   0.791   2.577
52367SOL    HW158940   2.074   0.697   2.569
52367SOL    HW258941   2.155   0.809   2.510
52368SOL     OW58942   6.482   9.497   8.999
52368SOL    HW158943   6.543   9.548   9.052
52368SOL    HW258944   6.395   9.522   9.031
52369SOL     OW58945   8.754   8.597   5.732
52369SOL    HW158946   8.777   8.549   5.812
52369SOL    HW258947   8.687   8.542   5.690
52370SOL     OW58948   2.925   2.585   4.750
52370SOL    HW158949   3.002   2.543   4.714
52370SOL    HW258950   2.877   2.617   4.674
52371SOL     OW58951   6.110   8.226  10.245
52371SOL    HW158952   6.060   8.298  10.207
52371SOL    HW258953   6.185   8.267  10.286
52372SOL     OW58954   6.673  13.482  10.397
52372SOL    HW158955   6.757  13.487  10.442
52372SOL    HW258956   6.614  13.440  10.460
52373SOL     OW58957  11.961   1.619   3.294
52373SOL    HW158958  12.028   1.635   3.361
52373SOL    HW258959  11.967   1.524   3.278
52374SOL     OW58960   5.721  10.609   1.596
52374SOL    HW158961   5.660  10.663   1.646
52374SOL    HW258962   5.674  10.527   1.580
52375SOL     OW58963  10.270   7.469   5.644
52375SOL    HW158964  10.256   7.535   5.577
52375SOL    HW258965  10.281   7.387   5.596
52376SOL     OW58966  14.647   1.309   3.249
52376SOL    HW158967  14.612   1.233   3.295
52376SOL    HW258968  14.619   1.384   3.302
52377SOL     OW58969  10.170   5.620   9.324
52377SOL    HW158970  10.189   5.659   9.409
52377SOL    HW258971  10.125   5.689   9.275
52378SOL     OW58972  12.691   9.333   5.693
52378SOL    HW158973  12.682   9.412   5.639
52378SOL    HW258974  12.775   9.295   5.666
52379SOL     OW58975  11.918  11.229   3.606
52379SOL    HW158976  11.832  11.271   3.610
52379SOL    HW258977  11.900  11.135   3.612
52380SOL     OW58978   2.173   0.097   1.648
52380SOL    HW158979   2.260   0.080   1.611
52380SOL    HW258980   2.185   0.175   1.703
52381SOL     OW58981  10.163  10.671   5.563
52381SOL    HW158982  10.092  10.728   5.532
52381SOL    HW258983  10.173  10.606   5.493
52382SOL     OW58984  12.169   3.524   2.847
52382SOL    HW158985  12.238   3.573   2.890
52382SOL    HW258986  12.093   3.583   2.848
52383SOL     OW58987   5.037   5.273   9.716
52383SOL    HW158988   4.951   5.280   9.674
52383SOL    HW258989   5.070   5.363   9.717
52384SOL     OW58990   8.293   2.298   8.725
52384SOL    HW158991   8.218   2.264   8.773
52384SOL    HW258992   8.262   2.379   8.685
52385SOL     OW58993   1.435   3.940  12.250
52385SOL    HW158994   1.475   3.904  12.171
52385SOL    HW258995   1.372   3.873  12.277
52386SOL     OW58996   7.482   1.580  11.057
52386SOL    HW158997   7.455   1.488  11.056
52386SOL    HW258998   7.478   1.605  11.149
52387SOL     OW58999   6.716   7.621   2.945
52387SOL    HW159000   6.706   7.633   2.851
52387SOL    HW259001   6.760   7.701   2.975
52388SOL     OW59002   6.069   5.487   1.345
52388SOL    HW159003   6.086   5.538   1.424
52388SOL    HW259004   5.990   5.437   1.364
52389SOL     OW59005  11.751   8.977  10.428
52389SOL    HW159006  11.794   8.897  10.399
52389SOL    HW259007  11.732   8.962  10.521
52390SOL     OW59008   0.744  14.299   5.061
52390SOL    HW159009   0.748  14.243   4.983
52390SOL    HW259010   0.833  14.299   5.095
52391SOL     OW59011  11.227   7.526   5.023
52391SOL    HW159012  11.167   7.594   4.994
52391SOL    HW259013  11.299   7.529   4.960
52392SOL     OW59014   6.166   5.605   7.379
52392SOL    HW159015   6.256   5.612   7.346
52392SOL    HW259016   6.171   5.640   7.468
52393SOL     OW59017  10.305   8.825   5.471
52393SOL    HW159018  10.309   8.730   5.462
52393SOL    HW259019  10.288   8.857   5.382
52394SOL     OW59020  13.913   4.558   5.454
52394SOL    HW159021  13.917   4.556   5.550
52394SOL    HW259022  13.929   4.650   5.431
52395SOL     OW59023  12.869  13.517   0.284
52395SOL    HW159024  12.817  13.534   0.206
52395SOL    HW259025  12.909  13.601   0.305
52396SOL     OW59026   9.848  11.517   6.687
52396SOL    HW159027   9.908  11.547   6.755
52396SOL    HW259028   9.768  11.494   6.733
52397SOL     OW59029  14.617   7.546   4.678
52397SOL    HW159030  14.662   7.596   4.747
52397SOL    HW259031  14.612   7.607   4.604
52398SOL     OW59032   2.707  14.190   9.213
52398SOL    HW159033   2.669  14.274   9.239
52398SOL    HW259034   2.727  14.200   9.120
52399SOL     OW59035   6.187   4.716   3.623
52399SOL    HW159036   6.144   4.694   3.706
52399SOL    HW259037   6.140   4.793   3.592
52400SOL     OW59038  11.127   7.952   9.819
52400SOL    HW159039  11.171   8.025   9.864
52400SOL    HW259040  11.196   7.914   9.763
52401SOL     OW59041  10.184  11.660   9.203
52401SOL    HW159042  10.156  11.570   9.223
52401SOL    HW259043  10.172  11.707   9.286
52402SOL     OW59044   4.333   4.088  13.244
52402SOL    HW159045   4.311   4.181  13.242
52402SOL    HW259046   4.429   4.086  13.246
52403SOL     OW59047   9.570   2.376   1.917
52403SOL    HW159048   9.494   2.432   1.933
52403SOL    HW259049   9.589   2.337   2.002
52404SOL     OW59050  14.684   6.800   4.086
52404SOL    HW159051  14.652   6.732   4.026
52404SOL    HW259052  14.661   6.768   4.173
52405SOL     OW59053  10.307   0.516  10.727
52405SOL    HW159054  10.223   0.521  10.679
52405SOL    HW259055  10.338   0.427  10.710
52406SOL     OW59056   9.223   6.040   3.466
52406SOL    HW159057   9.222   6.134   3.483
52406SOL    HW259058   9.223   6.033   3.370
52407SOL     OW59059   4.159   2.024   2.173
52407SOL    HW159060   4.072   1.995   2.148
52407SOL    HW259061   4.201   1.946   2.210
52408SOL     OW59062   7.057   8.471   5.323
52408SOL    HW159063   7.065   8.376   5.329
52408SOL    HW259064   6.977   8.492   5.370
52409SOL     OW59065   8.386   0.778  10.022
52409SOL    HW159066   8.422   0.753  10.107
52409SOL    HW259067   8.295   0.802  10.041
52410SOL     OW59068   2.943   1.127   8.426
52410SOL    HW159069   3.006   1.065   8.463
52410SOL    HW259070   2.903   1.169   8.501
52411SOL     OW59071  14.847   7.498   0.955
52411SOL    HW159072   0.036   7.555   0.921
52411SOL    HW259073  14.778   7.501   0.887
52412SOL     OW59074  14.719   6.187  11.276
52412SOL    HW159075  14.781   6.255  11.302
52412SOL    HW259076  14.774   6.112  11.253
52413SOL     OW59077   0.266   5.236  11.255
52413SOL    HW159078   0.348   5.266  11.216
52413SOL    HW259079   0.198   5.272  11.198
52414SOL     OW59080  10.929   3.344  14.850
52414SOL    HW159081  10.861   3.404  14.820
52414SOL    HW259082  10.974   3.393   0.040
52415SOL     OW59083  11.651  14.284   3.809
52415SOL    HW159084  11.622  14.202   3.849
52415SOL    HW259085  11.598  14.351   3.850
52416SOL     OW59086  12.684   6.945   0.489
52416SOL    HW159087  12.689   6.895   0.570
52416SOL    HW259088  12.615   6.902   0.439
52417SOL     OW59089   9.534   6.555   5.803
52417SOL    HW159090   9.586   6.635   5.801
52417SOL    HW259091   9.475   6.562   5.729
52418SOL     OW59092   1.220   5.126   2.298
52418SOL    HW159093   1.289   5.088   2.352
52418SOL    HW259094   1.162   5.171   2.360
52419SOL     OW59095   4.001   3.724   8.368
52419SOL    HW159096   4.074   3.743   8.427
52419SOL    HW259097   3.927   3.772   8.405
52420SOL     OW59098   2.662  13.296   1.898
52420SOL    HW159099   2.594  13.335   1.952
52420SOL    HW259100   2.676  13.209   1.935
52421SOL     OW59101   8.099   6.275   4.261
52421SOL    HW159102   8.020   6.311   4.221
52421SOL    HW259103   8.168   6.337   4.237
52422SOL     OW59104   5.892   4.285   1.093
52422SOL    HW159105   5.885   4.222   1.021
52422SOL    HW259106   5.940   4.358   1.055
52423SOL     OW59107  13.451  11.739   2.215
52423SOL    HW159108  13.542  11.736   2.185
52423SOL    HW259109  13.400  11.710   2.139
52424SOL     OW59110  12.480   1.116   1.757
52424SOL    HW159111  12.490   1.112   1.852
52424SOL    HW259112  12.555   1.067   1.723
52425SOL     OW59113   9.071  10.915   6.944
52425SOL    HW159114   9.122  10.861   6.884
52425SOL    HW259115   9.073  11.002   6.905
52426SOL     OW59116   9.934   5.107   1.397
52426SOL    HW159117   9.944   5.113   1.303
52426SOL    HW259118   9.907   5.195   1.424
52427SOL     OW59119   4.729   8.256  10.500
52427SOL    HW159120   4.755   8.173  10.460
52427SOL    HW259121   4.798   8.276  10.563
52428SOL     OW59122   2.426   8.789  12.659
52428SOL    HW159123   2.427   8.880  12.630
52428SOL    HW259124   2.460   8.791  12.748
52429SOL     OW59125  14.782  13.096   5.367
52429SOL    HW159126  14.703  13.118   5.416
52429SOL    HW259127  14.765  13.008   5.332
52430SOL     OW59128  11.501   8.188   8.988
52430SOL    HW159129  11.430   8.252   8.995
52430SOL    HW259130  11.553   8.218   8.914
52431SOL     OW59131   5.250   7.468   5.304
52431SOL    HW159132   5.237   7.401   5.371
52431SOL    HW259133   5.314   7.528   5.342
52432SOL     OW59134  13.788  10.718  13.459
52432SOL    HW159135  13.742  10.706  13.541
52432SOL    HW259136  13.786  10.632  13.417
52433SOL     OW59137   0.269   2.753   9.147
52433SOL    HW159138   0.285   2.797   9.064
52433SOL    HW259139   0.224   2.818   9.201
52434SOL     OW59140  10.720   1.160   9.780
52434SOL    HW159141  10.717   1.140   9.874
52434SOL    HW259142  10.811   1.185   9.764
52435SOL     OW59143  12.912   3.390   7.028
52435SOL    HW159144  12.940   3.470   6.982
52435SOL    HW259145  12.888   3.421   7.115
52436SOL     OW59146  14.821  14.379   1.162
52436SOL    HW159147   0.015  14.331   1.202
52436SOL    HW259148  14.743  14.332   1.191
52437SOL     OW59149   6.198   8.788   8.312
52437SOL    HW159150   6.238   8.873   8.330
52437SOL    HW259151   6.117   8.788   8.363
52438SOL     OW59152   6.359  14.682  12.804
52438SOL    HW159153   6.274  14.638  12.799
52438SOL    HW259154   6.412  14.625  12.860
52439SOL     OW59155   9.292   9.700   6.135
52439SOL    HW159156   9.207   9.731   6.166
52439SOL    HW259157   9.284   9.605   6.136
52440SOL     OW59158   0.428   7.655   2.991
52440SOL    HW159159   0.356   7.718   2.997
52440SOL    HW259160   0.396   7.589   2.930
52441SOL     OW59161   1.967   2.503  13.259
52441SOL    HW159162   1.995   2.412  13.266
52441SOL    HW259163   1.916   2.519  13.338
52442SOL     OW59164   9.446   1.490  12.607
52442SOL    HW159165   9.356   1.495  12.575
52442SOL    HW259166   9.472   1.581  12.619
52443SOL     OW59167   9.193  10.812   0.042
52443SOL    HW159168   9.242  10.891   0.021
52443SOL    HW259169   9.140  10.836   0.118
52444SOL     OW59170   8.748   7.602   5.600
52444SOL    HW159171   8.687   7.530   5.587
52444SOL    HW259172   8.764   7.636   5.511
52445SOL     OW59173   7.816   6.482  10.853
52445SOL    HW159174   7.756   6.536  10.801
52445SOL    HW259175   7.897   6.482  10.802
52446SOL     OW59176   4.672   4.973   6.404
52446SOL    HW159177   4.662   4.880   6.421
52446SOL    HW259178   4.665   4.982   6.309
52447SOL     OW59179  13.978   3.785  12.877
52447SOL    HW159180  13.983   3.715  12.942
52447SOL    HW259181  13.891   3.774  12.837
52448SOL     OW59182   1.505  11.721  12.579
52448SOL    HW159183   1.542  11.730  12.667
52448SOL    HW259184   1.424  11.673  12.592
52449SOL     OW59185  11.394   4.443   1.724
52449SOL    HW159186  11.457   4.467   1.792
52449SOL    HW259187  11.402   4.348   1.717
52450SOL     OW59188  13.519   1.879   5.257
52450SOL    HW159189  13.533   1.786   5.274
52450SOL    HW259190  13.437   1.882   5.207
52451SOL     OW59191   3.921  13.871  12.177
52451SOL    HW159192   3.857  13.892  12.246
52451SOL    HW259193   3.991  13.824  12.223
52452SOL     OW59194   2.840  10.721   0.254
52452SOL    HW159195   2.930  10.697   0.276
52452SOL    HW259196   2.795  10.724   0.337
52453SOL     OW59197  12.126   0.099   8.490
52453SOL    HW159198  12.085   0.015   8.468
52453SOL    HW259199  12.219   0.086   8.467
52454SOL     OW59200  12.761   4.977   3.792
52454SOL    HW159201  12.783   4.884   3.787
52454SOL    HW259202  12.831   5.016   3.844
52455SOL     OW59203   3.856   6.169   4.450
52455SOL    HW159204   3.841   6.076   4.438
52455SOL    HW259205   3.768   6.207   4.453
52456SOL     OW59206  12.139   1.195   8.789
52456SOL    HW159207  12.183   1.271   8.825
52456SOL    HW259208  12.082   1.164   8.860
52457SOL     OW59209  13.268   3.299   5.521
52457SOL    HW159210  13.343   3.358   5.531
52457SOL    HW259211  13.195   3.345   5.563
52458SOL     OW59212  11.707   6.149   5.637
52458SOL    HW159213  11.802   6.153   5.647
52458SOL    HW259214  11.679   6.240   5.643
52459SOL     OW59215   6.754   3.543   0.903
52459SOL    HW159216   6.806   3.465   0.923
52459SOL    HW259217   6.756   3.594   0.984
52460SOL     OW59218   9.926   4.663   9.506
52460SOL    HW159219   9.899   4.571   9.510
52460SOL    HW259220  10.014   4.661   9.468
52461SOL     OW59221  11.992  10.562   0.551
52461SOL    HW159222  12.077  10.600   0.527
52461SOL    HW259223  11.986  10.576   0.646
52462SOL     OW59224   6.461   7.490   9.678
52462SOL    HW159225   6.532   7.476   9.741
52462SOL    HW259226   6.472   7.581   9.650
52463SOL     OW59227   5.854   1.819   0.112
52463SOL    HW159228   5.797   1.745   0.134
52463SOL    HW259229   5.942   1.781   0.107
52464SOL     OW59230   7.922   8.757  10.222
52464SOL    HW159231   7.983   8.787  10.290
52464SOL    HW259232   7.846   8.814  10.232
52465SOL     OW59233  12.386  10.490   7.396
52465SOL    HW159234  12.423  10.441   7.323
52465SOL    HW259235  12.307  10.441   7.420
52466SOL     OW59236  13.088   8.755   5.187
52466SOL    HW159237  13.173   8.753   5.230
52466SOL    HW259238  13.040   8.824   5.232
52467SOL     OW59239   1.836   0.123   1.308
52467SOL    HW159240   1.833   0.140   1.402
52467SOL    HW259241   1.817   0.208   1.268
52468SOL     OW59242   3.228  10.407   8.652
52468SOL    HW159243   3.226  10.492   8.609
52468SOL    HW259244   3.147  10.364   8.623
52469SOL     OW59245   8.559  10.322   4.556
52469SOL    HW159246   8.652  10.308   4.542
52469SOL    HW259247   8.528  10.362   4.475
52470SOL     OW59248   2.880   0.152  10.878
52470SOL    HW159249   2.915   0.132  10.791
52470SOL    HW259250   2.838   0.237  10.869
52471SOL     OW59251  10.046   1.722   6.153
52471SOL    HW159252   9.974   1.751   6.209
52471SOL    HW259253  10.027   1.629   6.137
52472SOL     OW59254   7.382  11.431  13.852
52472SOL    HW159255   7.383  11.394  13.940
52472SOL    HW259256   7.396  11.356  13.794
52473SOL     OW59257   7.851  13.226   6.751
52473SOL    HW159258   7.849  13.301   6.692
52473SOL    HW259259   7.939  13.189   6.739
52474SOL     OW59260   6.243  10.190   9.501
52474SOL    HW159261   6.232  10.220   9.410
52474SOL    HW259262   6.154  10.186   9.535
52475SOL     OW59263  13.395   8.737  14.239
52475SOL    HW159264  13.387   8.686  14.319
52475SOL    HW259265  13.373   8.826  14.266
52476SOL     OW59266  13.086   7.556   8.118
52476SOL    HW159267  13.173   7.533   8.086
52476SOL    HW259268  13.065   7.489   8.182
52477SOL     OW59269   0.817   1.750   8.080
52477SOL    HW159270   0.743   1.809   8.068
52477SOL    HW259271   0.778   1.663   8.085
52478SOL     OW59272   6.575   8.650  14.604
52478SOL    HW159273   6.604   8.687  14.521
52478SOL    HW259274   6.544   8.562  14.583
52479SOL     OW59275  13.663  10.155   4.233
52479SOL    HW159276  13.665  10.204   4.316
52479SOL    HW259277  13.599  10.086   4.249
52480SOL     OW59278  10.388   1.491   7.770
52480SOL    HW159279  10.323   1.421   7.777
52480SOL    HW259280  10.336   1.571   7.767
52481SOL     OW59281  11.425  10.579  13.566
52481SOL    HW159282  11.360  10.646  13.548
52481SOL    HW259283  11.488  10.586  13.494
52482SOL     OW59284  11.438   0.280   2.489
52482SOL    HW159285  11.387   0.232   2.554
52482SOL    HW259286  11.383   0.354   2.465
52483SOL     OW59287  11.955   3.199   5.633
52483SOL    HW159288  11.920   3.158   5.712
52483SOL    HW259289  12.021   3.137   5.601
52484SOL     OW59290   8.347   4.790   3.435
52484SOL    HW159291   8.335   4.842   3.515
52484SOL    HW259292   8.341   4.699   3.465
52485SOL     OW59293   2.529   2.639  10.884
52485SOL    HW159294   2.504   2.550  10.911
52485SOL    HW259295   2.624   2.635  10.874
52486SOL     OW59296   2.317   2.609   4.670
52486SOL    HW159297   2.317   2.660   4.590
52486SOL    HW259298   2.231   2.624   4.709
52487SOL     OW59299  10.665   4.412  11.879
52487SOL    HW159300  10.649   4.318  11.873
52487SOL    HW259301  10.759   4.422  11.862
52488SOL     OW59302   2.140  12.935   1.397
52488SOL    HW159303   2.068  12.977   1.445
52488SOL    HW259304   2.096  12.883   1.330
52489SOL     OW59305   3.898   0.016   0.256
52489SOL    HW159306   3.837   0.060   0.315
52489SOL    HW259307   3.910   0.077   0.184
52490SOL     OW59308   6.327  11.540   6.573
52490SOL    HW159309   6.312  11.555   6.480
52490SOL    HW259310   6.356  11.448   6.577
52491SOL     OW59311  11.053   7.285   4.075
52491SOL    HW159312  11.062   7.334   3.993
52491SOL    HW259313  11.142   7.281   4.109
52492SOL     OW59314   8.467   2.131   6.348
52492SOL    HW159315   8.382   2.145   6.307
52492SOL    HW259316   8.518   2.208   6.326
52493SOL     OW59317   4.128   5.239  10.912
52493SOL    HW159318   4.205   5.270  10.959
52493SOL    HW259319   4.162   5.205  10.829
52494SOL     OW59320   9.706  11.462  13.293
52494SOL    HW159321   9.732  11.430  13.380
52494SOL    HW259322   9.747  11.400  13.232
52495SOL     OW59323   6.030   5.153  10.166
52495SOL    HW159324   5.998   5.243  10.170
52495SOL    HW259325   6.003   5.122  10.080
52496SOL     OW59326   9.693  10.467   4.466
52496SOL    HW159327   9.619  10.525   4.452
52496SOL    HW259328   9.658  10.379   4.450
52497SOL     OW59329  14.185  10.974   3.712
52497SOL    HW159330  14.093  10.992   3.732
52497SOL    HW259331  14.194  10.997   3.619
52498SOL     OW59332  14.410   4.121   8.167
52498SOL    HW159333  14.500   4.134   8.197
52498SOL    HW259334  14.384   4.038   8.207
52499SOL     OW59335  11.894   8.346  12.951
52499SOL    HW159336  11.837   8.403  13.003
52499SOL    HW259337  11.981   8.385  12.959
52500SOL     OW59338  10.892  12.960   7.435
52500SOL    HW159339  10.797  12.956   7.444
52500SOL    HW259340  10.910  13.050   7.409
52501SOL     OW59341   6.681  11.524  10.785
52501SOL    HW159342   6.715  11.588  10.723
52501SOL    HW259343   6.741  11.450  10.779
52502SOL     OW59344   7.954   0.824   5.318
52502SOL    HW159345   7.887   0.805   5.251
52502SOL    HW259346   8.017   0.880   5.273
52503SOL     OW59347  11.628  11.239   9.773
52503SOL    HW159348  11.657  11.255   9.862
52503SOL    HW259349  11.567  11.311   9.754
52504SOL     OW59350   3.655   4.121   0.951
52504SOL    HW159351   3.715   4.061   0.995
52504SOL    HW259352   3.655   4.092   0.860
52505SOL     OW59353   4.935  11.022   1.577
52505SOL    HW159354   5.028  11.023   1.551
52505SOL    HW259355   4.913  10.929   1.585
52506SOL     OW59356   6.107   7.061   3.697
52506SOL    HW159357   6.152   7.132   3.653
52506SOL    HW259358   6.153   6.982   3.669
52507SOL     OW59359   5.528   2.184  11.255
52507SOL    HW159360   5.475   2.224  11.187
52507SOL    HW259361   5.552   2.098  11.220
52508SOL     OW59362   8.714   8.850  10.032
52508SOL    HW159363   8.684   8.775  10.084
52508SOL    HW259364   8.777   8.813   9.971
52509SOL     OW59365   5.562   6.790   5.940
52509SOL    HW159366   5.484   6.829   5.902
52509SOL    HW259367   5.611   6.755   5.865
52510SOL     OW59368  13.727  14.803   5.305
52510SOL    HW159369  13.784  14.738   5.263
52510SOL    HW259370  13.785  14.852   5.363
52511SOL     OW59371   0.351  12.725  11.507
52511SOL    HW159372   0.272  12.744  11.557
52511SOL    HW259373   0.403  12.668  11.564
52512SOL     OW59374   1.511  10.194  10.998
52512SOL    HW159375   1.584  10.256  10.984
52512SOL    HW259376   1.440  10.229  10.945
52513SOL     OW59377   7.475   3.450   3.258
52513SOL    HW159378   7.554   3.504   3.250
52513SOL    HW259379   7.442   3.441   3.169
52514SOL     OW59380   2.920   4.764   8.931
52514SOL    HW159381   2.834   4.804   8.939
52514SOL    HW259382   2.948   4.747   9.021
52515SOL     OW59383   4.938  11.612   1.992
52515SOL    HW159384   4.894  11.538   1.950
52515SOL    HW259385   4.999  11.571   2.053
52516SOL     OW59386   2.818  10.209   3.383
52516SOL    HW159387   2.851  10.121   3.366
52516SOL    HW259388   2.896  10.261   3.403
52517SOL     OW59389   3.290   1.791   2.887
52517SOL    HW159390   3.270   1.883   2.901
52517SOL    HW259391   3.384   1.789   2.868
52518SOL     OW59392   6.734   2.627   0.088
52518SOL    HW159393   6.684   2.567   0.033
52518SOL    HW259394   6.753   2.702   0.031
52519SOL     OW59395   6.069   8.791  11.919
52519SOL    HW159396   5.996   8.835  11.874
52519SOL    HW259397   6.123   8.756  11.849
52520SOL     OW59398   4.750   1.687   1.262
52520SOL    HW159399   4.778   1.778   1.252
52520SOL    HW259400   4.700   1.686   1.344
52521SOL     OW59401  14.212   9.198  12.181
52521SOL    HW159402  14.289   9.152  12.149
52521SOL    HW259403  14.243   9.252  12.253
52522SOL     OW59404   7.250   4.269   1.591
52522SOL    HW159405   7.332   4.237   1.554
52522SOL    HW259406   7.276   4.327   1.663
52523SOL     OW59407  12.360   7.792   4.270
52523SOL    HW159408  12.275   7.812   4.308
52523SOL    HW259409  12.346   7.796   4.176
52524SOL     OW59410   3.823  10.265  10.961
52524SOL    HW159411   3.871  10.345  10.939
52524SOL    HW259412   3.744  10.296  11.005
52525SOL     OW59413  11.488  12.941  12.473
52525SOL    HW159414  11.582  12.939  12.458
52525SOL    HW259415  11.460  13.028  12.444
52526SOL     OW59416   0.367   0.343   0.728
52526SOL    HW159417   0.324   0.325   0.644
52526SOL    HW259418   0.449   0.294   0.725
52527SOL     OW59419  10.200   8.444  14.007
52527SOL    HW159420  10.184   8.463  14.100
52527SOL    HW259421  10.128   8.386  13.982
52528SOL     OW59422   7.370  10.039  11.438
52528SOL    HW159423   7.434  10.110  11.434
52528SOL    HW259424   7.289  10.078  11.405
52529SOL     OW59425  13.004   2.527   2.818
52529SOL    HW159426  13.087   2.521   2.864
52529SOL    HW259427  12.947   2.578   2.875
52530SOL     OW59428  11.827  14.455  14.048
52530SOL    HW159429  11.748  14.413  14.013
52530SOL    HW259430  11.840  14.532  13.992
52531SOL     OW59431   9.198   2.463  14.609
52531SOL    HW159432   9.152   2.392  14.564
52531SOL    HW259433   9.289   2.454  14.582
52532SOL     OW59434   8.451   5.146  12.252
52532SOL    HW159435   8.418   5.056  12.257
52532SOL    HW259436   8.487   5.163  12.339
52533SOL     OW59437  12.326   4.594   3.800
52533SOL    HW159438  12.364   4.627   3.719
52533SOL    HW259439  12.232   4.587   3.781
52534SOL     OW59440   4.088  14.152   5.960
52534SOL    HW159441   4.138  14.126   6.038
52534SOL    HW259442   3.999  14.122   5.977
52535SOL     OW59443   1.444  13.990   6.550
52535SOL    HW159444   1.511  13.964   6.486
52535SOL    HW259445   1.449  13.923   6.618
52536SOL     OW59446  10.405  12.934   7.627
52536SOL    HW159447  10.367  12.847   7.636
52536SOL    HW259448  10.436  12.937   7.537
52537SOL     OW59449   3.132   2.931   0.631
52537SOL    HW159450   3.134   2.967   0.719
52537SOL    HW259451   3.141   3.007   0.573
52538SOL     OW59452  12.647  14.463   1.793
52538SOL    HW159453  12.711  14.447   1.862
52538SOL    HW259454  12.657  14.388   1.734
52539SOL     OW59455   3.778  13.432   5.154
52539SOL    HW159456   3.699  13.469   5.113
52539SOL    HW259457   3.750  13.347   5.187
52540SOL     OW59458   9.422   7.613   4.966
52540SOL    HW159459   9.446   7.668   4.892
52540SOL    HW259460   9.402   7.675   5.036
52541SOL     OW59461  13.185   5.966   7.850
52541SOL    HW159462  13.223   5.929   7.771
52541SOL    HW259463  13.251   6.029   7.881
52542SOL     OW59464   8.073   4.206   2.008
52542SOL    HW159465   8.123   4.208   2.089
52542SOL    HW259466   8.093   4.289   1.965
52543SOL     OW59467  12.585   7.644   9.771
52543SOL    HW159468  12.561   7.675   9.859
52543SOL    HW259469  12.504   7.605   9.737
52544SOL     OW59470  13.338  13.062  12.706
52544SOL    HW159471  13.372  13.047  12.618
52544SOL    HW259472  13.293  13.147  12.700
52545SOL     OW59473   4.246  14.120  13.898
52545SOL    HW159474   4.214  14.032  13.874
52545SOL    HW259475   4.268  14.160  13.814
52546SOL     OW59476  10.967   2.684   5.288
52546SOL    HW159477  11.044   2.630   5.275
52546SOL    HW259478  10.922   2.646   5.363
52547SOL     OW59479  13.575  10.658  11.923
52547SOL    HW159480  13.548  10.699  11.841
52547SOL    HW259481  13.496  10.615  11.955
52548SOL     OW59482   4.379   4.023   0.524
52548SOL    HW159483   4.380   3.942   0.574
52548SOL    HW259484   4.295   4.022   0.479
52549SOL     OW59485   2.328   2.211   7.927
52549SOL    HW159486   2.365   2.155   7.859
52549SOL    HW259487   2.294   2.151   7.993
52550SOL     OW59488   7.033   5.030   9.081
52550SOL    HW159489   7.127   5.017   9.091
52550SOL    HW259490   7.023   5.064   8.992
52551SOL     OW59491   3.170   8.602   6.830
52551SOL    HW159492   3.254   8.646   6.846
52551SOL    HW259493   3.170   8.583   6.736
52552SOL     OW59494   2.685  14.284   8.141
52552SOL    HW159495   2.669  14.375   8.167
52552SOL    HW259496   2.598  14.244   8.139
52553SOL     OW59497   0.613  13.361   9.579
52553SOL    HW159498   0.551  13.398   9.642
52553SOL    HW259499   0.581  13.392   9.494
52554SOL     OW59500  11.118   0.643   8.444
52554SOL    HW159501  11.047   0.605   8.497
52554SOL    HW259502  11.165   0.568   8.410
52555SOL     OW59503   2.620   2.620   4.189
52555SOL    HW159504   2.684   2.550   4.196
52555SOL    HW259505   2.668   2.699   4.215
52556SOL     OW59506   7.527  11.160   6.046
52556SOL    HW159507   7.493  11.219   6.114
52556SOL    HW259508   7.524  11.073   6.086
52557SOL     OW59509   8.516   7.091  11.057
52557SOL    HW159510   8.530   7.079  10.963
52557SOL    HW259511   8.450   7.160  11.063
52558SOL     OW59512   5.839   8.561   0.027
52558SOL    HW159513   5.818   8.506   0.102
52558SOL    HW259514   5.909   8.619   0.058
52559SOL     OW59515   1.638   3.744   7.770
52559SOL    HW159516   1.632   3.672   7.833
52559SOL    HW259517   1.580   3.811   7.805
52560SOL     OW59518   0.743   0.424  10.603
52560SOL    HW159519   0.702   0.509  10.618
52560SOL    HW259520   0.833   0.436  10.632
52561SOL     OW59521   8.558   0.881   4.214
52561SOL    HW159522   8.596   0.794   4.203
52561SOL    HW259523   8.508   0.875   4.295
52562SOL     OW59524  11.677   6.504  10.883
52562SOL    HW159525  11.628   6.511  10.965
52562SOL    HW259526  11.614   6.467  10.821
52563SOL     OW59527   6.598  14.833   3.712
52563SOL    HW159528   6.646  14.805   3.633
52563SOL    HW259529   6.662  14.826   3.782
52564SOL     OW59530   2.770  12.202  10.535
52564SOL    HW159531   2.846  12.186  10.591
52564SOL    HW259532   2.724  12.274  10.578
52565SOL     OW59533   3.993  10.748   8.111
52565SOL    HW159534   3.898  10.755   8.103
52565SOL    HW259535   4.008  10.670   8.164
52566SOL     OW59536   1.335   1.408  14.349
52566SOL    HW159537   1.423   1.370  14.349
52566SOL    HW259538   1.335   1.472  14.279
52567SOL     OW59539  13.287   5.116   1.529
52567SOL    HW159540  13.229   5.146   1.459
52567SOL    HW259541  13.294   5.021   1.515
52568SOL     OW59542   8.403  12.425   9.466
52568SOL    HW159543   8.312  12.396   9.468
52568SOL    HW259544   8.431  12.424   9.558
52569SOL     OW59545   2.688   7.681  13.394
52569SOL    HW159546   2.766   7.695  13.340
52569SOL    HW259547   2.706   7.728  13.475
52570SOL     OW59548   9.589  13.291   5.539
52570SOL    HW159549   9.599  13.300   5.445
52570SOL    HW259550   9.666  13.240   5.567
52571SOL     OW59551   6.113  12.998  11.118
52571SOL    HW159552   6.029  12.955  11.103
52571SOL    HW259553   6.178  12.929  11.108
52572SOL     OW59554   7.070  10.505  14.727
52572SOL    HW159555   6.999  10.569  14.722
52572SOL    HW259556   7.046  10.448  14.799
52573SOL     OW59557   7.535  13.489   2.460
52573SOL    HW159558   7.552  13.429   2.533
52573SOL    HW259559   7.601  13.467   2.395
52574SOL     OW59560   5.284   2.360   4.290
52574SOL    HW159561   5.278   2.297   4.361
52574SOL    HW259562   5.352   2.421   4.316
52575SOL     OW59563   5.597   1.559   1.704
52575SOL    HW159564   5.634   1.512   1.629
52575SOL    HW259565   5.571   1.644   1.668
52576SOL     OW59566   4.571   3.365   2.215
52576SOL    HW159567   4.500   3.423   2.241
52576SOL    HW259568   4.606   3.404   2.135
52577SOL     OW59569   1.494   5.914   4.758
52577SOL    HW159570   1.459   5.838   4.804
52577SOL    HW259571   1.540   5.877   4.682
52578SOL     OW59572  12.124  11.146  10.009
52578SOL    HW159573  12.169  11.231  10.008
52578SOL    HW259574  12.127  11.116   9.919
52579SOL     OW59575  12.161   0.899   9.590
52579SOL    HW159576  12.184   0.907   9.682
52579SOL    HW259577  12.086   0.840   9.589
52580SOL     OW59578  14.631   8.247   4.802
52580SOL    HW159579  14.574   8.298   4.745
52580SOL    HW259580  14.683   8.193   4.743
52581SOL     OW59581   3.078  13.291   2.114
52581SOL    HW159582   3.107  13.382   2.114
52581SOL    HW259583   3.124  13.252   2.188
52582SOL     OW59584  12.588  12.628  10.462
52582SOL    HW159585  12.519  12.664  10.407
52582SOL    HW259586  12.584  12.533  10.447
52583SOL     OW59587   3.088  10.823  14.876
52583SOL    HW159588   3.125  10.774   0.070
52583SOL    HW259589   3.136  10.790  14.799
52584SOL     OW59590  14.637   5.540   3.709
52584SOL    HW159591  14.689   5.481   3.763
52584SOL    HW259592  14.623   5.617   3.764
52585SOL     OW59593   3.473   7.535   0.393
52585SOL    HW159594   3.515   7.553   0.309
52585SOL    HW259595   3.499   7.608   0.449
52586SOL     OW59596  11.563   1.312   8.324
52586SOL    HW159597  11.480   1.327   8.277
52586SOL    HW259598  11.545   1.342   8.413
52587SOL     OW59599   2.385   4.005   6.161
52587SOL    HW159600   2.352   4.058   6.233
52587SOL    HW259601   2.480   4.012   6.167
52588SOL     OW59602  13.865   9.396   4.691
52588SOL    HW159603  13.803   9.363   4.756
52588SOL    HW259604  13.944   9.418   4.742
52589SOL     OW59605   2.548  10.188   4.374
52589SOL    HW159606   2.516  10.182   4.284
52589SOL    HW259607   2.511  10.270   4.407
52590SOL     OW59608   3.069   4.808   7.724
52590SOL    HW159609   2.981   4.782   7.754
52590SOL    HW259610   3.099   4.870   7.790
52591SOL     OW59611   1.852   1.257  13.528
52591SOL    HW159612   1.873   1.164  13.524
52591SOL    HW259613   1.768   1.261  13.572
52592SOL     OW59614   2.029   9.108   8.061
52592SOL    HW159615   2.055   9.143   7.976
52592SOL    HW259616   1.992   9.022   8.042
52593SOL     OW59617   5.549   6.264  14.496
52593SOL    HW159618   5.525   6.171  14.490
52593SOL    HW259619   5.544   6.296  14.406
52594SOL     OW59620   8.269   4.199   1.409
52594SOL    HW159621   8.357   4.236   1.400
52594SOL    HW259622   8.211   4.266   1.372
52595SOL     OW59623   6.893   3.358  14.770
52595SOL    HW159624   6.927   3.378  14.683
52595SOL    HW259625   6.930   3.427  14.826
52596SOL     OW59626  12.487   7.596  13.305
52596SOL    HW159627  12.520   7.660  13.242
52596SOL    HW259628  12.421   7.643  13.355
52597SOL     OW59629   4.091  13.852  12.564
52597SOL    HW159630   4.094  13.946  12.578
52597SOL    HW259631   4.045  13.817  12.641
52598SOL     OW59632   6.155  14.074   7.088
52598SOL    HW159633   6.229  14.130   7.065
52598SOL    HW259634   6.104  14.066   7.007
52599SOL     OW59635   5.193  11.687  12.397
52599SOL    HW159636   5.199  11.623  12.467
52599SOL    HW259637   5.181  11.771  12.442
52600SOL     OW59638   3.940   4.234  12.699
52600SOL    HW159639   3.935   4.169  12.770
52600SOL    HW259640   4.033   4.253  12.690
52601SOL     OW59641   7.882  11.401   8.897
52601SOL    HW159642   7.790  11.410   8.920
52601SOL    HW259643   7.930  11.430   8.974
52602SOL     OW59644  11.963   3.462  11.077
52602SOL    HW159645  11.903   3.399  11.038
52602SOL    HW259646  12.022   3.409  11.131
52603SOL     OW59647   1.971   5.665  10.605
52603SOL    HW159648   2.052   5.617  10.589
52603SOL    HW259649   1.941   5.633  10.690
52604SOL     OW59650   6.341  11.000   5.429
52604SOL    HW159651   6.276  11.024   5.495
52604SOL    HW259652   6.424  10.997   5.477
52605SOL     OW59653   7.637   6.759  13.559
52605SOL    HW159654   7.681   6.782  13.477
52605SOL    HW259655   7.708   6.749  13.622
52606SOL     OW59656   9.595   7.253   8.590
52606SOL    HW159657   9.631   7.277   8.504
52606SOL    HW259658   9.593   7.335   8.639
52607SOL     OW59659  14.090   1.842   2.683
52607SOL    HW159660  14.013   1.861   2.737
52607SOL    HW259661  14.116   1.754   2.708
52608SOL     OW59662   2.458   2.786   8.818
52608SOL    HW159663   2.447   2.699   8.856
52608SOL    HW259664   2.510   2.771   8.739
52609SOL     OW59665   2.071   5.886   8.279
52609SOL    HW159666   2.120   5.940   8.216
52609SOL    HW259667   1.998   5.851   8.228
52610SOL     OW59668  10.113   0.785   5.592
52610SOL    HW159669  10.179   0.716   5.591
52610SOL    HW259670  10.137   0.841   5.518
52611SOL     OW59671   6.282   0.566   2.797
52611SOL    HW159672   6.349   0.615   2.845
52611SOL    HW259673   6.301   0.584   2.705
52612SOL     OW59674   0.046   9.014   9.012
52612SOL    HW159675   0.109   9.084   9.029
52612SOL    HW259676   0.099   8.935   9.002
52613SOL     OW59677   3.591  14.144  10.177
52613SOL    HW159678   3.602  14.053  10.206
52613SOL    HW259679   3.561  14.137  10.087
52614SOL     OW59680  14.125   9.522   3.462
52614SOL    HW159681  14.030   9.511   3.457
52614SOL    HW259682  14.143   9.543   3.554
52615SOL     OW59683  10.367  13.599   4.141
52615SOL    HW159684  10.457  13.611   4.110
52615SOL    HW259685  10.361  13.505   4.160
52616SOL     OW59686  14.727   7.400   0.127
52616SOL    HW159687  14.735   7.452   0.207
52616SOL    HW259688  14.813   7.361   0.115
52617SOL     OW59689   9.483   6.836   6.482
52617SOL    HW159690   9.532   6.754   6.479
52617SOL    HW259691   9.438   6.834   6.566
52618SOL     OW59692  12.638   4.608  11.191
52618SOL    HW159693  12.663   4.518  11.170
52618SOL    HW259694  12.623   4.607  11.286
52619SOL     OW59695   0.989  12.827   7.936
52619SOL    HW159696   1.011  12.808   7.845
52619SOL    HW259697   0.906  12.781   7.950
52620SOL     OW59698  13.144   5.155   1.290
52620SOL    HW159699  13.153   5.211   1.213
52620SOL    HW259700  13.120   5.069   1.255
52621SOL     OW59701  13.200   3.561   2.878
52621SOL    HW159702  13.204   3.607   2.794
52621SOL    HW259703  13.223   3.470   2.857
52622SOL     OW59704   9.220  11.509   5.753
52622SOL    HW159705   9.196  11.420   5.777
52622SOL    HW259706   9.308  11.502   5.718
52623SOL     OW59707  11.866  10.063   4.768
52623SOL    HW159708  11.907  10.035   4.850
52623SOL    HW259709  11.789  10.006   4.760
52624SOL     OW59710   9.944  10.280  10.633
52624SOL    HW159711   9.985  10.200  10.666
52624SOL    HW259712  10.016  10.327  10.589
52625SOL     OW59713   5.950   7.346   6.737
52625SOL    HW159714   5.978   7.384   6.820
52625SOL    HW259715   6.029   7.346   6.683
52626SOL     OW59716   0.850   2.336   6.892
52626SOL    HW159717   0.925   2.357   6.837
52626SOL    HW259718   0.781   2.312   6.830
52627SOL     OW59719  14.749   1.023  12.482
52627SOL    HW159720  14.761   0.976  12.565
52627SOL    HW259721  14.662   0.997  12.453
52628SOL     OW59722  11.048  10.726   0.769
52628SOL    HW159723  11.037  10.631   0.776
52628SOL    HW259724  11.142  10.740   0.773
52629SOL     OW59725  11.963  14.087   2.648
52629SOL    HW159726  11.958  14.168   2.698
52629SOL    HW259727  11.999  14.113   2.563
52630SOL     OW59728   6.874   5.285   8.997
52630SOL    HW159729   6.891   5.311   8.907
52630SOL    HW259730   6.811   5.214   8.990
52631SOL     OW59731  13.245  10.218   2.844
52631SOL    HW159732  13.334  10.222   2.879
52631SOL    HW259733  13.229  10.124   2.831
52632SOL     OW59734  10.157  12.722   3.153
52632SOL    HW159735  10.179  12.815   3.148
52632SOL    HW259736  10.176  12.698   3.244
52633SOL     OW59737   6.445  11.512  14.631
52633SOL    HW159738   6.441  11.464  14.548
52633SOL    HW259739   6.364  11.563  14.633
52634SOL     OW59740  11.886  10.021   8.733
52634SOL    HW159741  11.853  10.001   8.646
52634SOL    HW259742  11.816  10.069   8.775
52635SOL     OW59743   5.656   2.703   9.820
52635SOL    HW159744   5.659   2.633   9.886
52635SOL    HW259745   5.720   2.768   9.851
52636SOL     OW59746   2.264   0.360   9.111
52636SOL    HW159747   2.282   0.389   9.021
52636SOL    HW259748   2.170   0.372   9.121
52637SOL     OW59749  14.007   6.050  10.549
52637SOL    HW159750  13.942   6.095  10.496
52637SOL    HW259751  13.979   5.958  10.547
52638SOL     OW59752   0.219   9.997   9.293
52638SOL    HW159753   0.312   9.986   9.275
52638SOL    HW259754   0.186   9.909   9.309
52639SOL     OW59755   3.518  10.351   0.905
52639SOL    HW159756   3.612  10.354   0.888
52639SOL    HW259757   3.491  10.266   0.871
52640SOL     OW59758   4.077   1.090  13.449
52640SOL    HW159759   3.984   1.086  13.470
52640SOL    HW259760   4.080   1.135  13.365
52641SOL     OW59761   7.693   1.633  10.904
52641SOL    HW159762   7.755   1.572  10.943
52641SOL    HW259763   7.616   1.628  10.959
52642SOL     OW59764   5.896  14.727   1.945
52642SOL    HW159765   5.842  14.653   1.916
52642SOL    HW259766   5.986  14.699   1.928
52643SOL     OW59767   4.330   0.814   4.887
52643SOL    HW159768   4.385   0.881   4.925
52643SOL    HW259769   4.385   0.735   4.885
52644SOL     OW59770   6.281   3.065   2.497
52644SOL    HW159771   6.264   3.133   2.562
52644SOL    HW259772   6.198   3.018   2.489
52645SOL     OW59773   0.156   4.810   1.567
52645SOL    HW159774   0.112   4.882   1.522
52645SOL    HW259775   0.092   4.738   1.564
52646SOL     OW59776  13.722  13.859  11.420
52646SOL    HW159777  13.699  13.766  11.421
52646SOL    HW259778  13.709  13.888  11.510
52647SOL     OW59779   1.665   6.972   9.170
52647SOL    HW159780   1.665   6.897   9.110
52647SOL    HW259781   1.715   7.040   9.124
52648SOL     OW59782   3.942   8.573   9.027
52648SOL    HW159783   3.947   8.629   8.949
52648SOL    HW259784   3.863   8.603   9.072
52649SOL     OW59785   8.435   2.938   8.479
52649SOL    HW159786   8.505   2.898   8.428
52649SOL    HW259787   8.387   2.992   8.417
52650SOL     OW59788   2.751   9.975  10.960
52650SOL    HW159789   2.845   9.972  10.976
52650SOL    HW259790   2.735  10.066  10.932
52651SOL     OW59791   1.717   6.554   1.640
52651SOL    HW159792   1.644   6.613   1.657
52651SOL    HW259793   1.743   6.522   1.726
52652SOL     OW59794   8.030   9.621  12.406
52652SOL    HW159795   7.995   9.655  12.489
52652SOL    HW259796   7.998   9.530  12.402
52653SOL     OW59797   1.999  13.039   4.694
52653SOL    HW159798   2.073  13.079   4.649
52653SOL    HW259799   2.021  13.046   4.787
52654SOL     OW59800   3.003   0.730   5.993
52654SOL    HW159801   2.939   0.707   5.925
52654SOL    HW259802   3.005   0.654   6.050
52655SOL     OW59803  10.494   5.948   4.195
52655SOL    HW159804  10.450   5.868   4.166
52655SOL    HW259805  10.424   6.013   4.201
52656SOL     OW59806   0.033   1.968   3.465
52656SOL    HW159807   0.128   1.959   3.452
52656SOL    HW259808  14.874   1.928   3.386
52657SOL     OW59809   8.116   0.507   7.251
52657SOL    HW159810   8.200   0.473   7.219
52657SOL    HW259811   8.051   0.445   7.218
52658SOL     OW59812  10.208   0.604   3.799
52658SOL    HW159813  10.207   0.509   3.800
52658SOL    HW259814  10.121   0.629   3.769
52659SOL     OW59815   0.698   0.370  11.130
52659SOL    HW159816   0.717   0.420  11.050
52659SOL    HW259817   0.647   0.430  11.184
52660SOL     OW59818  13.468  14.219  11.097
52660SOL    HW159819  13.436  14.168  11.022
52660SOL    HW259820  13.550  14.177  11.121
52661SOL     OW59821   3.866   6.958   4.367
52661SOL    HW159822   3.840   7.049   4.353
52661SOL    HW259823   3.785   6.914   4.396
52662SOL     OW59824   8.512  11.556   0.417
52662SOL    HW159825   8.560  11.544   0.335
52662SOL    HW259826   8.522  11.649   0.437
52663SOL     OW59827  12.590   3.939   3.733
52663SOL    HW159828  12.605   3.950   3.639
52663SOL    HW259829  12.575   3.846   3.745
52664SOL     OW59830   9.624   7.498   8.741
52664SOL    HW159831   9.554   7.552   8.778
52664SOL    HW259832   9.648   7.542   8.659
52665SOL     OW59833  11.754  10.914   0.667
52665SOL    HW159834  11.836  10.868   0.685
52665SOL    HW259835  11.777  11.006   0.669
52666SOL     OW59836   3.928   7.109   8.168
52666SOL    HW159837   3.995   7.137   8.231
52666SOL    HW259838   3.963   7.134   8.083
52667SOL     OW59839  11.829   3.988   7.357
52667SOL    HW159840  11.849   4.061   7.299
52667SOL    HW259841  11.845   4.023   7.445
52668SOL     OW59842   9.432   4.365   6.198
52668SOL    HW159843   9.348   4.359   6.243
52668SOL    HW259844   9.470   4.277   6.207
52669SOL     OW59845   2.206   6.598   9.489
52669SOL    HW159846   2.206   6.532   9.419
52669SOL    HW259847   2.140   6.661   9.461
52670SOL     OW59848  14.247  11.234   1.080
52670SOL    HW159849  14.265  11.189   0.997
52670SOL    HW259850  14.159  11.204   1.104
52671SOL     OW59851   8.773   0.663   9.784
52671SOL    HW159852   8.738   0.629   9.867
52671SOL    HW259853   8.700   0.657   9.723
52672SOL     OW59854  10.841   9.758   6.184
52672SOL    HW159855  10.898   9.826   6.149
52672SOL    HW259856  10.889   9.677   6.171
52673SOL     OW59857  10.964   9.907   9.901
52673SOL    HW159858  11.019   9.970   9.855
52673SOL    HW259859  11.014   9.825   9.897
52674SOL     OW59860  13.162   1.565   6.671
52674SOL    HW159861  13.121   1.498   6.616
52674SOL    HW259862  13.118   1.646   6.646
52675SOL     OW59863   7.180   1.753   2.156
52675SOL    HW159864   7.124   1.827   2.181
52675SOL    HW259865   7.176   1.694   2.231
52676SOL     OW59866   5.403  11.123   8.114
52676SOL    HW159867   5.385  11.199   8.170
52676SOL    HW259868   5.347  11.054   8.149
52677SOL     OW59869   4.617  13.714   2.774
52677SOL    HW159870   4.608  13.636   2.720
52677SOL    HW259871   4.577  13.784   2.723
52678SOL     OW59872   8.841   2.799   3.488
52678SOL    HW159873   8.873   2.729   3.431
52678SOL    HW259874   8.750   2.775   3.507
52679SOL     OW59875  12.847   3.553   2.556
52679SOL    HW159876  12.774   3.591   2.605
52679SOL    HW259877  12.852   3.462   2.586
52680SOL     OW59878  13.170   6.005   6.287
52680SOL    HW159879  13.210   6.088   6.263
52680SOL    HW259880  13.117   5.980   6.211
52681SOL     OW59881   7.710   7.390   8.755
52681SOL    HW159882   7.672   7.405   8.669
52681SOL    HW259883   7.635   7.377   8.813
52682SOL     OW59884   1.592  13.047  12.946
52682SOL    HW159885   1.502  13.050  12.913
52682SOL    HW259886   1.646  13.069  12.869
52683SOL     OW59887  11.687   1.429  13.768
52683SOL    HW159888  11.733   1.427  13.852
52683SOL    HW259889  11.707   1.515  13.731
52684SOL     OW59890   5.652   5.618   4.063
52684SOL    HW159891   5.638   5.660   3.978
52684SOL    HW259892   5.575   5.642   4.115
52685SOL     OW59893  11.358   7.801  14.477
52685SOL    HW159894  11.391   7.714  14.452
52685SOL    HW259895  11.273   7.808  14.433
52686SOL     OW59896   8.169  12.794  12.971
52686SOL    HW159897   8.144  12.870  12.918
52686SOL    HW259898   8.141  12.719  12.919
52687SOL     OW59899   7.327   9.755  11.994
52687SOL    HW159900   7.304   9.670  11.957
52687SOL    HW259901   7.329   9.814  11.918
52688SOL     OW59902   6.021   5.622   5.078
52688SOL    HW159903   6.042   5.713   5.099
52688SOL    HW259904   6.079   5.600   5.005
52689SOL     OW59905   2.258  14.070   3.819
52689SOL    HW159906   2.332  14.045   3.764
52689SOL    HW259907   2.290  14.146   3.868
52690SOL     OW59908  12.603   9.192  11.295
52690SOL    HW159909  12.592   9.236  11.380
52690SOL    HW259910  12.656   9.253  11.244
52691SOL     OW59911   9.311   3.968  10.021
52691SOL    HW159912   9.313   3.986   9.927
52691SOL    HW259913   9.348   4.046  10.062
52692SOL     OW59914   4.006  11.961   6.636
52692SOL    HW159915   4.038  12.038   6.683
52692SOL    HW259916   4.033  11.975   6.545
52693SOL     OW59917   9.365   8.712   0.417
52693SOL    HW159918   9.452   8.688   0.450
52693SOL    HW259919   9.304   8.666   0.474
52694SOL     OW59920  12.848   0.278   2.719
52694SOL    HW159921  12.793   0.354   2.696
52694SOL    HW259922  12.863   0.234   2.635
52695SOL     OW59923  10.404   0.805  11.033
52695SOL    HW159924  10.467   0.861  11.079
52695SOL    HW259925  10.350   0.767  11.101
52696SOL     OW59926   1.097  13.156   4.688
52696SOL    HW159927   1.123  13.122   4.602
52696SOL    HW259928   1.136  13.244   4.691
52697SOL     OW59929   0.500   2.465   5.074
52697SOL    HW159930   0.466   2.512   4.998
52697SOL    HW259931   0.589   2.439   5.049
52698SOL     OW59932  10.251   1.210   6.580
52698SOL    HW159933  10.313   1.180   6.645
52698SOL    HW259934  10.289   1.184   6.496
52699SOL     OW59935   5.887   1.257   3.222
52699SOL    HW159936   5.976   1.271   3.189
52699SOL    HW259937   5.898   1.195   3.294
52700SOL     OW59938   2.204   7.376  12.245
52700SOL    HW159939   2.115   7.347  12.263
52700SOL    HW259940   2.224   7.438  12.315
52701SOL     OW59941  14.186  10.414   5.025
52701SOL    HW159942  14.171  10.320   5.029
52701SOL    HW259943  14.279  10.423   5.003
52702SOL     OW59944   6.731  12.732  11.911
52702SOL    HW159945   6.804  12.769  11.861
52702SOL    HW259946   6.772  12.698  11.991
52703SOL     OW59947   1.654  11.410  13.419
52703SOL    HW159948   1.630  11.477  13.355
52703SOL    HW259949   1.591  11.340  13.405
52704SOL     OW59950   0.255   3.788   3.370
52704SOL    HW159951   0.189   3.739   3.419
52704SOL    HW259952   0.242   3.879   3.397
52705SOL     OW59953  13.331  10.358  14.286
52705SOL    HW159954  13.384  10.340  14.364
52705SOL    HW259955  13.378  10.317  14.214
52706SOL     OW59956   4.462   5.567  12.350
52706SOL    HW159957   4.371   5.574  12.320
52706SOL    HW259958   4.473   5.475  12.374
52707SOL     OW59959  14.057  11.313   5.011
52707SOL    HW159960  14.111  11.305   4.932
52707SOL    HW259961  14.019  11.226   5.023
52708SOL     OW59962   5.737   8.469   3.633
52708SOL    HW159963   5.710   8.480   3.542
52708SOL    HW259964   5.833   8.466   3.630
52709SOL     OW59965   9.598   6.094  11.627
52709SOL    HW159966   9.630   6.052  11.707
52709SOL    HW259967   9.675   6.099  11.571
52710SOL     OW59968   2.980  10.811   4.324
52710SOL    HW159969   3.067  10.795   4.288
52710SOL    HW259970   2.973  10.907   4.328
52711SOL     OW59971   1.985  12.674  12.418
52711SOL    HW159972   1.955  12.719  12.339
52711SOL    HW259973   1.924  12.701  12.486
52712SOL     OW59974  10.377   5.861   0.536
52712SOL    HW159975  10.465   5.845   0.570
52712SOL    HW259976  10.368   5.798   0.464
52713SOL     OW59977  13.617   2.789   3.773
52713SOL    HW159978  13.590   2.763   3.861
52713SOL    HW259979  13.594   2.714   3.718
52714SOL     OW59980   6.036   0.751  12.416
52714SOL    HW159981   6.031   0.804  12.496
52714SOL    HW259982   5.958   0.774  12.367
52715SOL     OW59983   9.531  11.205  11.679
52715SOL    HW159984   9.607  11.262  11.669
52715SOL    HW259985   9.518  11.200  11.774
52716SOL     OW59986  11.009   5.259   5.861
52716SOL    HW159987  10.983   5.340   5.904
52716SOL    HW259988  11.100   5.274   5.834
52717SOL     OW59989  14.620   2.956   4.848
52717SOL    HW159990  14.555   2.895   4.881
52717SOL    HW259991  14.701   2.907   4.847
52718SOL     OW59992  10.214  14.806   7.381
52718SOL    HW159993  10.173  14.828   7.465
52718SOL    HW259994  10.190  14.715   7.366
52719SOL     OW59995  12.993   6.379   7.561
52719SOL    HW159996  12.974   6.375   7.468
52719SOL    HW259997  13.084   6.351   7.569
52720SOL     OW59998   1.760   4.820   1.271
52720SOL    HW159999   1.756   4.726   1.255
52720SOL    HW260000   1.741   4.830   1.364
52721SOL     OW60001  12.146   1.066  12.828
52721SOL    HW160002  12.152   0.994  12.766
52721SOL    HW260003  12.129   1.023  12.912
52722SOL     OW60004   0.357   4.146  10.969
52722SOL    HW160005   0.294   4.211  10.937
52722SOL    HW260006   0.397   4.188  11.045
52723SOL     OW60007  10.924   3.112  10.797
52723SOL    HW160008  10.947   3.193  10.841
52723SOL    HW260009  10.909   3.049  10.868
52724SOL     OW60010  12.809   9.148   8.337
52724SOL    HW160011  12.882   9.174   8.395
52724SOL    HW260012  12.845   9.076   8.286
52725SOL     OW60013   2.175   4.021   5.058
52725SOL    HW160014   2.213   3.950   5.108
52725SOL    HW260015   2.219   4.017   4.973
52726SOL     OW60016   5.238   5.572   6.832
52726SOL    HW160017   5.199   5.657   6.855
52726SOL    HW260018   5.319   5.569   6.882
52727SOL     OW60019   3.740  12.876   9.283
52727SOL    HW160020   3.663  12.826   9.256
52727SOL    HW260021   3.762  12.930   9.207
52728SOL     OW60022   6.802   6.912   5.479
52728SOL    HW160023   6.763   6.845   5.423
52728SOL    HW260024   6.730   6.942   5.534
52729SOL     OW60025  10.745  11.140   7.170
52729SOL    HW160026  10.839  11.125   7.163
52729SOL    HW260027  10.708  11.100   7.092
52730SOL     OW60028   6.645   9.759  13.078
52730SOL    HW160029   6.561   9.746  13.034
52730SOL    HW260030   6.621   9.776  13.169
52731SOL     OW60031  12.620   3.360   9.464
52731SOL    HW160032  12.616   3.452   9.436
52731SOL    HW260033  12.615   3.364   9.560
52732SOL     OW60034  11.800  14.679   6.305
52732SOL    HW160035  11.891  14.685   6.333
52732SOL    HW260036  11.775  14.588   6.323
52733SOL     OW60037  13.515   7.532  10.229
52733SOL    HW160038  13.487   7.453  10.184
52733SOL    HW260039  13.453   7.599  10.200
52734SOL     OW60040   6.941   9.388  11.376
52734SOL    HW160041   6.971   9.341  11.298
52734SOL    HW260042   6.992   9.350  11.447
52735SOL     OW60043   0.497   7.253  10.597
52735SOL    HW160044   0.422   7.248  10.538
52735SOL    HW260045   0.534   7.340  10.581
52736SOL     OW60046   8.274   0.742   8.231
52736SOL    HW160047   8.204   0.800   8.203
52736SOL    HW260048   8.317   0.788   8.303
52737SOL     OW60049   9.447   9.878   3.122
52737SOL    HW160050   9.451   9.941   3.194
52737SOL    HW260051   9.448   9.932   3.043
52738SOL     OW60052   3.080   4.549  12.317
52738SOL    HW160053   3.037   4.478  12.366
52738SOL    HW260054   3.134   4.594  12.381
52739SOL     OW60055   8.832  12.404  13.046
52739SOL    HW160056   8.774  12.329  13.034
52739SOL    HW260057   8.800  12.446  13.126
52740SOL     OW60058  14.149  10.015   6.094
52740SOL    HW160059  14.156  10.043   6.185
52740SOL    HW260060  14.112   9.926   6.099
52741SOL     OW60061   3.511   4.300   5.246
52741SOL    HW160062   3.443   4.257   5.194
52741SOL    HW260063   3.584   4.239   5.246
52742SOL     OW60064  11.510   2.450   5.184
52742SOL    HW160065  11.586   2.462   5.241
52742SOL    HW260066  11.487   2.538   5.155
52743SOL     OW60067   1.941   3.532   0.209
52743SOL    HW160068   2.003   3.572   0.270
52743SOL    HW260069   1.909   3.454   0.254
52744SOL     OW60070  14.448   9.632   6.151
52744SOL    HW160071  14.433   9.707   6.208
52744SOL    HW260072  14.523   9.658   6.097
52745SOL     OW60073   1.475  11.636  10.590
52745SOL    HW160074   1.458  11.613  10.499
52745SOL    HW260075   1.548  11.580  10.615
52746SOL     OW60076   5.795   2.332  12.703
52746SOL    HW160077   5.831   2.286  12.627
52746SOL    HW260078   5.782   2.422  12.672
52747SOL     OW60079   1.594  11.796  12.818
52747SOL    HW160080   1.589  11.892  12.817
52747SOL    HW260081   1.545  11.771  12.897
52748SOL     OW60082   7.985   0.455   4.827
52748SOL    HW160083   7.917   0.522   4.832
52748SOL    HW260084   7.945   0.377   4.865
52749SOL     OW60085  14.755  12.628  14.135
52749SOL    HW160086  14.804  12.548  14.154
52749SOL    HW260087  14.781  12.689  14.204
52750SOL     OW60088   5.189   5.194  14.284
52750SOL    HW160089   5.188   5.108  14.327
52750SOL    HW260090   5.104   5.200  14.240
52751SOL     OW60091  11.709   2.445   2.480
52751SOL    HW160092  11.721   2.480   2.568
52751SOL    HW260093  11.624   2.480   2.452
52752SOL     OW60094  14.343   8.581   9.033
52752SOL    HW160095  14.320   8.544   8.947
52752SOL    HW260096  14.275   8.647   9.049
52753SOL     OW60097   3.827   7.619  14.348
52753SOL    HW160098   3.922   7.628  14.352
52753SOL    HW260099   3.794   7.707  14.363
52754SOL     OW60100   7.265   5.627   4.396
52754SOL    HW160101   7.349   5.664   4.423
52754SOL    HW260102   7.267   5.629   4.300
52755SOL     OW60103   0.168   7.880   0.379
52755SOL    HW160104   0.114   7.912   0.451
52755SOL    HW260105   0.108   7.830   0.324
52756SOL     OW60106   9.292   0.457   4.575
52756SOL    HW160107   9.202   0.467   4.608
52756SOL    HW260108   9.286   0.483   4.483
52757SOL     OW60109   6.982   0.023   5.454
52757SOL    HW160110   6.976  14.862   5.540
52757SOL    HW260111   6.938  14.841   5.395
52758SOL     OW60112   0.785   1.385   2.216
52758SOL    HW160113   0.709   1.350   2.170
52758SOL    HW260114   0.812   1.460   2.163
52759SOL     OW60115  13.106   8.245   8.939
52759SOL    HW160116  13.075   8.177   8.880
52759SOL    HW260117  13.169   8.200   8.996
52760SOL     OW60118   3.489  12.919  10.840
52760SOL    HW160119   3.417  12.982  10.837
52760SOL    HW260120   3.567  12.972  10.857
52761SOL     OW60121   2.833   9.248  10.274
52761SOL    HW160122   2.791   9.273  10.356
52761SOL    HW260123   2.850   9.154  10.284
52762SOL     OW60124  13.116  14.447   8.039
52762SOL    HW160125  13.195  14.443   7.985
52762SOL    HW260126  13.112  14.538   8.069
52763SOL     OW60127   8.713  12.540   1.963
52763SOL    HW160128   8.759  12.624   1.957
52763SOL    HW260129   8.655  12.539   1.888
52764SOL     OW60130   4.623   2.713  14.180
52764SOL    HW160131   4.542   2.662  14.183
52764SOL    HW260132   4.610   2.782  14.245
52765SOL     OW60133   7.786  12.546   6.264
52765SOL    HW160134   7.713  12.580   6.212
52765SOL    HW260135   7.755  12.462   6.296
52766SOL     OW60136  13.049   4.981   3.347
52766SOL    HW160137  12.969   4.929   3.335
52766SOL    HW260138  13.019   5.072   3.348
52767SOL     OW60139   0.475   1.433   0.829
52767SOL    HW160140   0.429   1.408   0.909
52767SOL    HW260141   0.565   1.447   0.857
52768SOL     OW60142   2.257   7.916  11.483
52768SOL    HW160143   2.325   7.849  11.493
52768SOL    HW260144   2.198   7.880  11.417
52769SOL     OW60145   9.227   4.521  13.135
52769SOL    HW160146   9.142   4.532  13.092
52769SOL    HW260147   9.208   4.520  13.229
52770SOL     OW60148   0.439   3.121   2.405
52770SOL    HW160149   0.440   3.118   2.309
52770SOL    HW260150   0.530   3.105   2.429
52771SOL     OW60151  11.138  14.433  13.338
52771SOL    HW160152  11.101  14.429  13.250
52771SOL    HW260153  11.153  14.527  13.353
52772SOL     OW60154   9.251   3.615   8.742
52772SOL    HW160155   9.337   3.622   8.700
52772SOL    HW260156   9.189   3.641   8.674
52773SOL     OW60157  13.839   6.654   8.950
52773SOL    HW160158  13.912   6.594   8.969
52773SOL    HW260159  13.761   6.604   8.973
52774SOL     OW60160   4.210  12.432  12.222
52774SOL    HW160161   4.176  12.385  12.298
52774SOL    HW260162   4.215  12.523  12.250
52775SOL     OW60163  13.978   5.633   5.713
52775SOL    HW160164  13.964   5.541   5.687
52775SOL    HW260165  13.935   5.641   5.797
52776SOL     OW60166   8.797   4.561  12.003
52776SOL    HW160167   8.715   4.533  11.961
52776SOL    HW260168   8.789   4.656  12.008
52777SOL     OW60169   9.716   9.351   1.811
52777SOL    HW160170   9.755   9.265   1.829
52777SOL    HW260171   9.647   9.332   1.747
52778SOL     OW60172   8.351   5.365   8.632
52778SOL    HW160173   8.288   5.338   8.565
52778SOL    HW260174   8.306   5.351   8.715
52779SOL     OW60175   5.997  10.810   0.354
52779SOL    HW160176   6.018  10.813   0.447
52779SOL    HW260177   6.074  10.848   0.311
52780SOL     OW60178   9.203  11.937  12.444
52780SOL    HW160179   9.276  11.948  12.384
52780SOL    HW260180   9.236  11.965  12.529
52781SOL     OW60181   5.324  10.852  13.943
52781SOL    HW160182   5.337  10.757  13.939
52781SOL    HW260183   5.410  10.889  13.924
52782SOL     OW60184   0.537   7.269   0.087
52782SOL    HW160185   0.465   7.221   0.047
52782SOL    HW260186   0.540   7.237   0.178
52783SOL     OW60187   1.234   1.849   2.595
52783SOL    HW160188   1.314   1.892   2.627
52783SOL    HW260189   1.173   1.920   2.578
52784SOL     OW60190   3.675   8.515   6.480
52784SOL    HW160191   3.635   8.434   6.447
52784SOL    HW260192   3.699   8.494   6.570
52785SOL     OW60193   5.470  14.837  11.853
52785SOL    HW160194   5.555  14.872  11.827
52785SOL    HW260195   5.407   0.028  11.832
52786SOL     OW60196   7.677  11.675   0.623
52786SOL    HW160197   7.611  11.731   0.581
52786SOL    HW260198   7.704  11.614   0.554
52787SOL     OW60199  14.666  10.244   1.663
52787SOL    HW160200  14.628  10.301   1.596
52787SOL    HW260201  14.714  10.303   1.721
52788SOL     OW60202   9.305  12.550   4.378
52788SOL    HW160203   9.379  12.610   4.386
52788SOL    HW260204   9.244  12.578   4.446
52789SOL     OW60205  13.524  13.053   4.990
52789SOL    HW160206  13.576  13.087   4.917
52789SOL    HW260207  13.531  13.119   5.059
52790SOL     OW60208  10.101   4.676   6.010
52790SOL    HW160209  10.077   4.699   6.099
52790SOL    HW260210  10.025   4.629   5.975
52791SOL     OW60211  11.195   9.271   4.511
52791SOL    HW160212  11.290   9.263   4.522
52791SOL    HW260213  11.158   9.230   4.590
52792SOL     OW60214  13.340  12.244  12.492
52792SOL    HW160215  13.359  12.157  12.456
52792SOL    HW260216  13.331  12.229  12.586
52793SOL     OW60217   9.615   0.789   3.174
52793SOL    HW160218   9.580   0.847   3.241
52793SOL    HW260219   9.690   0.837   3.138
52794SOL     OW60220   9.577  11.807   8.011
52794SOL    HW160221   9.496  11.834   7.967
52794SOL    HW260222   9.611  11.736   7.958
52795SOL     OW60223  13.039   8.180  11.796
52795SOL    HW160224  13.003   8.237  11.865
52795SOL    HW260225  12.961   8.143  11.753
52796SOL     OW60226   8.136   3.285  11.321
52796SOL    HW160227   8.152   3.369  11.279
52796SOL    HW260228   8.072   3.242  11.265
52797SOL     OW60229   7.356   1.061  11.194
52797SOL    HW160230   7.361   1.132  11.258
52797SOL    HW260231   7.385   0.983  11.242
52798SOL     OW60232   0.977  12.065   7.546
52798SOL    HW160233   0.935  11.981   7.565
52798SOL    HW260234   1.068  12.052   7.571
52799SOL     OW60235   2.970  12.070  13.496
52799SOL    HW160236   2.983  12.153  13.451
52799SOL    HW260237   3.018  12.006  13.444
52800SOL     OW60238  14.726   0.902  12.074
52800SOL    HW160239  14.695   0.819  12.111
52800SOL    HW260240  14.800   0.927  12.128
52801SOL     OW60241   0.199  11.072  13.726
52801SOL    HW160242   0.186  10.986  13.766
52801SOL    HW260243   0.220  11.130  13.799
52802SOL     OW60244   8.921   1.241  12.488
52802SOL    HW160245   8.893   1.185  12.416
52802SOL    HW260246   8.936   1.327  12.448
52803SOL     OW60247   2.278  14.726  11.157
52803SOL    HW160248   2.245  14.736  11.068
52803SOL    HW260249   2.230  14.651  11.192
52804SOL     OW60250  14.792   4.469  11.890
52804SOL    HW160251  14.718   4.408  11.895
52804SOL    HW260252  14.849   4.432  11.823
52805SOL     OW60253   5.491   1.588   1.951
52805SOL    HW160254   5.525   1.577   1.862
52805SOL    HW260255   5.511   1.505   1.995
52806SOL     OW60256   6.552   6.416   6.561
52806SOL    HW160257   6.471   6.465   6.579
52806SOL    HW260258   6.622   6.475   6.590
52807SOL     OW60259  13.939   2.129  14.576
52807SOL    HW160260  14.012   2.144  14.516
52807SOL    HW260261  13.958   2.183  14.652
52808SOL     OW60262   3.898  12.118   4.505
52808SOL    HW160263   3.976  12.071   4.474
52808SOL    HW260264   3.878  12.179   4.434
52809SOL     OW60265  11.957   1.930  10.512
52809SOL    HW160266  11.936   1.865  10.445
52809SOL    HW260267  11.891   1.918  10.580
52810SOL     OW60268   8.677   2.960  14.282
52810SOL    HW160269   8.731   3.017  14.228
52810SOL    HW260270   8.718   2.963  14.369
52811SOL     OW60271   9.343  12.741   9.639
52811SOL    HW160272   9.308  12.819   9.595
52811SOL    HW260273   9.377  12.687   9.568
52812SOL     OW60274   3.018  13.184   9.635
52812SOL    HW160275   3.060  13.178   9.721
52812SOL    HW260276   3.054  13.110   9.586
52813SOL     OW60277  10.290   6.216   0.703
52813SOL    HW160278  10.265   6.244   0.790
52813SOL    HW260279  10.342   6.137   0.718
52814SOL     OW60280   7.022   3.216   5.606
52814SOL    HW160281   7.056   3.154   5.541
52814SOL    HW260282   6.934   3.185   5.625
52815SOL     OW60283   8.372   6.927   6.151
52815SOL    HW160284   8.452   6.979   6.158
52815SOL    HW260285   8.340   6.920   6.241
52816SOL     OW60286   4.221  12.884  14.138
52816SOL    HW160287   4.127  12.900  14.148
52816SOL    HW260288   4.255  12.881  14.228
52817SOL     OW60289   5.454  13.022   0.710
52817SOL    HW160290   5.369  12.983   0.733
52817SOL    HW260291   5.505  12.950   0.675
52818SOL     OW60292  11.336  11.227   4.653
52818SOL    HW160293  11.431  11.215   4.642
52818SOL    HW260294  11.329  11.279   4.733
52819SOL     OW60295  11.046   6.611  13.194
52819SOL    HW160296  11.077   6.674  13.259
52819SOL    HW260297  10.953   6.600  13.212
52820SOL     OW60298  11.945   7.365   1.069
52820SOL    HW160299  11.924   7.318   0.988
52820SOL    HW260300  11.950   7.296   1.135
52821SOL     OW60301  14.504  13.766   1.745
52821SOL    HW160302  14.525  13.778   1.652
52821SOL    HW260303  14.573  13.706   1.777
52822SOL     OW60304   6.281   5.649   3.076
52822SOL    HW160305   6.374   5.627   3.084
52822SOL    HW260306   6.281   5.739   3.045
52823SOL     OW60307   2.939  11.750   3.108
52823SOL    HW160308   2.848  11.764   3.084
52823SOL    HW260309   2.975  11.838   3.118
52824SOL     OW60310   5.793   2.452   7.910
52824SOL    HW160311   5.886   2.455   7.887
52824SOL    HW260312   5.762   2.542   7.895
52825SOL     OW60313  13.775   4.979   6.477
52825SOL    HW160314  13.696   4.958   6.527
52825SOL    HW260315  13.817   5.049   6.528
52826SOL     OW60316   9.197   7.706   0.844
52826SOL    HW160317   9.106   7.720   0.869
52826SOL    HW260318   9.248   7.745   0.915
52827SOL     OW60319   9.375   5.929   0.474
52827SOL    HW160320   9.398   5.956   0.563
52827SOL    HW260321   9.409   5.840   0.466
52828SOL     OW60322   8.821  11.134   8.963
52828SOL    HW160323   8.811  11.219   9.006
52828SOL    HW260324   8.893  11.092   9.009
52829SOL     OW60325   9.230   2.871   0.200
52829SOL    HW160326   9.162   2.898   0.262
52829SOL    HW260327   9.185   2.811   0.140
52830SOL     OW60328   0.203  11.394   9.172
52830SOL    HW160329   0.249  11.467   9.130
52830SOL    HW260330   0.134  11.371   9.110
52831SOL     OW60331   8.648  10.889   4.357
52831SOL    HW160332   8.727  10.867   4.308
52831SOL    HW260333   8.679  10.943   4.430
52832SOL     OW60334  11.880   5.347   2.612
52832SOL    HW160335  11.868   5.329   2.705
52832SOL    HW260336  11.899   5.441   2.607
52833SOL     OW60337   6.175  14.210  12.550
52833SOL    HW160338   6.196  14.118  12.565
52833SOL    HW260339   6.168  14.247  12.639
52834SOL     OW60340  12.864  10.380  14.766
52834SOL    HW160341  12.808  10.455  14.746
52834SOL    HW260342  12.944  10.419  14.802
52835SOL     OW60343   0.184   2.326   7.200
52835SOL    HW160344   0.162   2.234   7.214
52835SOL    HW260345   0.149   2.371   7.277
52836SOL     OW60346  13.253  10.930   0.426
52836SOL    HW160347  13.253  10.851   0.479
52836SOL    HW260348  13.320  10.986   0.467
52837SOL     OW60349   4.815   9.859   8.597
52837SOL    HW160350   4.758   9.908   8.537
52837SOL    HW260351   4.847   9.785   8.544
52838SOL     OW60352  12.800   0.073   6.706
52838SOL    HW160353  12.819   0.003   6.769
52838SOL    HW260354  12.740   0.033   6.643
52839SOL     OW60355  10.879  11.969  11.730
52839SOL    HW160356  10.941  11.926  11.671
52839SOL    HW260357  10.867  11.907  11.802
52840SOL     OW60358   9.193   5.130   7.483
52840SOL    HW160359   9.117   5.073   7.495
52840SOL    HW260360   9.267   5.071   7.481
52841SOL     OW60361   4.418  10.539   0.930
52841SOL    HW160362   4.493  10.581   0.889
52841SOL    HW260363   4.387  10.475   0.866
52842SOL     OW60364  14.657   9.706  12.770
52842SOL    HW160365  14.575   9.755  12.775
52842SOL    HW260366  14.725   9.771  12.788
52843SOL     OW60367   1.462   9.668  10.538
52843SOL    HW160368   1.436   9.683  10.447
52843SOL    HW260369   1.545   9.715  10.547
52844SOL     OW60370  10.705   7.046   8.160
52844SOL    HW160371  10.732   6.987   8.230
52844SOL    HW260372  10.682   6.988   8.087
52845SOL     OW60373   7.828   7.246   2.623
52845SOL    HW160374   7.756   7.203   2.669
52845SOL    HW260375   7.833   7.333   2.662
52846SOL     OW60376   7.482  13.484  13.507
52846SOL    HW160377   7.512  13.396  13.486
52846SOL    HW260378   7.388  13.483  13.488
52847SOL     OW60379   5.747   0.679  14.763
52847SOL    HW160380   5.822   0.626  14.734
52847SOL    HW260381   5.759   0.686  14.858
52848SOL     OW60382   8.018  14.267  12.050
52848SOL    HW160383   7.991  14.235  11.965
52848SOL    HW260384   8.048  14.357  12.033
52849SOL     OW60385   2.294   3.896  12.536
52849SOL    HW160386   2.244   3.815  12.545
52849SOL    HW260387   2.241   3.961  12.582
52850SOL     OW60388  11.774   2.408   3.456
52850SOL    HW160389  11.761   2.349   3.530
52850SOL    HW260390  11.860   2.385   3.422
52851SOL     OW60391   3.306   4.084   1.874
52851SOL    HW160392   3.212   4.075   1.856
52851SOL    HW260393   3.340   3.995   1.868
52852SOL     OW60394   0.163   1.809  13.308
52852SOL    HW160395   0.156   1.722  13.267
52852SOL    HW260396   0.073   1.842  13.310
52853SOL     OW60397   8.594  10.829   5.718
52853SOL    HW160398   8.649  10.895   5.675
52853SOL    HW260399   8.504  10.861   5.705
52854SOL     OW60400   3.156   3.211   2.796
52854SOL    HW160401   3.218   3.222   2.867
52854SOL    HW260402   3.089   3.152   2.830
52855SOL     OW60403   0.049   3.892   4.708
52855SOL    HW160404   0.066   3.959   4.641
52855SOL    HW260405  14.869   3.830   4.664
52856SOL     OW60406  14.546   0.836  10.801
52856SOL    HW160407  14.523   0.817  10.892
52856SOL    HW260408  14.556   0.750  10.760
52857SOL     OW60409   8.082   6.177  10.472
52857SOL    HW160410   8.120   6.118  10.408
52857SOL    HW260411   8.016   6.125  10.517
52858SOL     OW60412   2.424   0.016   1.551
52858SOL    HW160413   2.515  14.866   1.552
52858SOL    HW260414   2.374  14.817   1.527
52859SOL     OW60415  10.721   8.933   9.117
52859SOL    HW160416  10.752   9.023   9.106
52859SOL    HW260417  10.714   8.898   9.028
52860SOL     OW60418  13.863  14.083  13.655
52860SOL    HW160419  13.821  14.120  13.733
52860SOL    HW260420  13.952  14.120  13.657
52861SOL     OW60421  13.883  14.708  11.099
52861SOL    HW160422  13.849  14.619  11.089
52861SOL    HW260423  13.977  14.697  11.109
52862SOL     OW60424   7.351   8.037   0.312
52862SOL    HW160425   7.416   7.997   0.253
52862SOL    HW260426   7.267   8.015   0.273
52863SOL     OW60427  14.648  11.218   3.247
52863SOL    HW160428  14.639  11.313   3.251
52863SOL    HW260429  14.743  11.203   3.243
52864SOL     OW60430  14.481   5.767  12.384
52864SOL    HW160431  14.481   5.740  12.476
52864SOL    HW260432  14.412   5.834  12.379
52865SOL     OW60433   9.972   7.699   9.811
52865SOL    HW160434  10.051   7.721   9.860
52865SOL    HW260435   9.929   7.784   9.795
52866SOL     OW60436   0.326  10.685   5.180
52866SOL    HW160437   0.276  10.759   5.146
52866SOL    HW260438   0.407  10.725   5.214
52867SOL     OW60439  12.660   8.241   9.196
52867SOL    HW160440  12.703   8.155   9.198
52867SOL    HW260441  12.704   8.287   9.124
52868SOL     OW60442   5.026   4.778   1.227
52868SOL    HW160443   5.003   4.757   1.317
52868SOL    HW260444   5.110   4.823   1.233
52869SOL     OW60445  14.439   7.141   8.618
52869SOL    HW160446  14.400   7.100   8.541
52869SOL    HW260447  14.393   7.101   8.692
52870SOL     OW60448  11.121  14.787   4.946
52870SOL    HW160449  11.092  14.878   4.958
52870SOL    HW260450  11.050  14.734   4.981
52871SOL     OW60451  10.350  14.129  14.083
52871SOL    HW160452  10.279  14.158  14.141
52871SOL    HW260453  10.309  14.061  14.028
52872SOL     OW60454  10.520  12.849   8.479
52872SOL    HW160455  10.442  12.903   8.468
52872SOL    HW260456  10.580  12.903   8.530
52873SOL     OW60457  14.615   2.187   7.165
52873SOL    HW160458  14.611   2.253   7.234
52873SOL    HW260459  14.578   2.108   7.205
52874SOL     OW60460   4.843  12.866   2.321
52874SOL    HW160461   4.892  12.803   2.267
52874SOL    HW260462   4.772  12.896   2.263
52875SOL     OW60463   6.071   9.135   4.293
52875SOL    HW160464   6.103   9.051   4.325
52875SOL    HW260465   6.065   9.190   4.372
52876SOL     OW60466   1.170   5.530   1.985
52876SOL    HW160467   1.103   5.476   2.027
52876SOL    HW260468   1.250   5.513   2.036
52877SOL     OW60469  11.807   0.167   6.999
52877SOL    HW160470  11.722   0.153   7.040
52877SOL    HW260471  11.825   0.086   6.951
52878SOL     OW60472  11.039  14.194   1.742
52878SOL    HW160473  11.031  14.240   1.659
52878SOL    HW260474  10.952  14.202   1.782
52879SOL     OW60475   5.683  10.992   0.921
52879SOL    HW160476   5.672  11.086   0.926
52879SOL    HW260477   5.766  10.974   0.966
52880SOL     OW60478  12.539   8.431   2.554
52880SOL    HW160479  12.515   8.522   2.565
52880SOL    HW260480  12.547   8.396   2.643
52881SOL     OW60481  12.470   1.894  14.700
52881SOL    HW160482  12.451   1.987  14.688
52881SOL    HW260483  12.518   1.870  14.620
52882SOL     OW60484   5.144  11.692   4.687
52882SOL    HW160485   5.062  11.703   4.638
52882SOL    HW260486   5.123  11.720   4.776
52883SOL     OW60487   0.277   5.691   8.894
52883SOL    HW160488   0.273   5.693   8.799
52883SOL    HW260489   0.350   5.749   8.916
52884SOL     OW60490   5.619   2.499  10.968
52884SOL    HW160491   5.702   2.455  10.951
52884SOL    HW260492   5.561   2.430  10.999
52885SOL     OW60493   4.157   2.775  11.638
52885SOL    HW160494   4.100   2.789  11.714
52885SOL    HW260495   4.236   2.736  11.674
52886SOL     OW60496  11.913   6.636   4.720
52886SOL    HW160497  11.840   6.607   4.665
52886SOL    HW260498  11.907   6.732   4.719
52887SOL     OW60499   9.817   1.151   3.217
52887SOL    HW160500   9.857   1.094   3.282
52887SOL    HW260501   9.723   1.131   3.222
52888SOL     OW60502  11.115   7.125  13.523
52888SOL    HW160503  11.107   7.145  13.430
52888SOL    HW260504  11.173   7.049  13.527
52889SOL     OW60505   6.646   9.549   2.237
52889SOL    HW160506   6.697   9.469   2.231
52889SOL    HW260507   6.711   9.618   2.253
52890SOL     OW60508   7.458   9.256   1.570
52890SOL    HW160509   7.400   9.264   1.646
52890SOL    HW260510   7.496   9.168   1.578
52891SOL     OW60511  12.833  11.826  13.539
52891SOL    HW160512  12.916  11.797  13.578
52891SOL    HW260513  12.771  11.756  13.559
52892SOL     OW60514  13.969  12.533   9.870
52892SOL    HW160515  14.031  12.527   9.797
52892SOL    HW260516  13.993  12.461   9.928
52893SOL     OW60517   8.164   2.269   6.485
52893SOL    HW160518   8.197   2.353   6.517
52893SOL    HW260519   8.203   2.260   6.398
52894SOL     OW60520  13.825   6.249  14.294
52894SOL    HW160521  13.830   6.197  14.214
52894SOL    HW260522  13.769   6.198  14.352
52895SOL     OW60523   0.888   4.918   9.981
52895SOL    HW160524   0.960   4.891  10.037
52895SOL    HW260525   0.810   4.884  10.024
52896SOL     OW60526   4.141  11.841   4.598
52896SOL    HW160527   4.181  11.800   4.521
52896SOL    HW260528   4.055  11.799   4.605
52897SOL     OW60529  12.046   5.816   5.665
52897SOL    HW160530  12.124   5.797   5.613
52897SOL    HW260531  12.033   5.910   5.657
52898SOL     OW60532  11.035  11.091   6.843
52898SOL    HW160533  11.015  11.171   6.893
52898SOL    HW260534  10.965  11.086   6.778
52899SOL     OW60535   3.287   0.585  10.629
52899SOL    HW160536   3.336   0.503  10.643
52899SOL    HW260537   3.284   0.595  10.534
52900SOL     OW60538   8.265   9.206   3.128
52900SOL    HW160539   8.341   9.154   3.153
52900SOL    HW260540   8.285   9.237   3.040
52901SOL     OW60541  11.356   5.537  14.076
52901SOL    HW160542  11.450   5.554  14.082
52901SOL    HW260543  11.330   5.513  14.165
52902SOL     OW60544  14.205   9.120   2.784
52902SOL    HW160545  14.203   9.211   2.754
52902SOL    HW260546  14.116   9.102   2.813
52903SOL     OW60547   2.565  11.996   7.111
52903SOL    HW160548   2.538  12.008   7.202
52903SOL    HW260549   2.571  12.085   7.076
52904SOL     OW60550   5.925   8.964   7.469
52904SOL    HW160551   5.994   8.917   7.516
52904SOL    HW260552   5.955   9.055   7.468
52905SOL     OW60553  10.521  12.170  13.504
52905SOL    HW160554  10.445  12.112  13.500
52905SOL    HW260555  10.540  12.178  13.598
52906SOL     OW60556   8.178   7.295   4.907
52906SOL    HW160557   8.222   7.377   4.885
52906SOL    HW260558   8.195   7.283   5.001
52907SOL     OW60559   7.981  10.715   2.886
52907SOL    HW160560   8.008  10.714   2.794
52907SOL    HW260561   8.053  10.673   2.933
52908SOL     OW60562   5.169   5.475   5.708
52908SOL    HW160563   5.074   5.477   5.702
52908SOL    HW260564   5.197   5.431   5.628
52909SOL     OW60565   2.990   1.933   6.872
52909SOL    HW160566   3.034   1.985   6.939
52909SOL    HW260567   2.897   1.942   6.891
52910SOL     OW60568   4.164  12.811   7.486
52910SOL    HW160569   4.200  12.899   7.497
52910SOL    HW260570   4.121  12.814   7.401
52911SOL     OW60571   1.231   9.215  14.070
52911SOL    HW160572   1.140   9.244  14.068
52911SOL    HW260573   1.227   9.123  14.045
52912SOL     OW60574   5.512   1.069  10.424
52912SOL    HW160575   5.572   1.090  10.496
52912SOL    HW260576   5.425   1.067  10.464
52913SOL     OW60577   0.580  11.149  13.898
52913SOL    HW160578   0.668  11.166  13.932
52913SOL    HW260579   0.573  11.053  13.896
52914SOL     OW60580   7.565   9.548  10.466
52914SOL    HW160581   7.581   9.639  10.492
52914SOL    HW260582   7.641   9.500  10.498
52915SOL     OW60583  13.150   8.763  12.890
52915SOL    HW160584  13.130   8.705  12.817
52915SOL    HW260585  13.232   8.729  12.926
52916SOL     OW60586   5.057   1.811   9.232
52916SOL    HW160587   5.065   1.906   9.218
52916SOL    HW260588   5.120   1.773   9.171
52917SOL     OW60589  14.513  13.346   1.884
52917SOL    HW160590  14.447  13.345   1.814
52917SOL    HW260591  14.593  13.315   1.843
52918SOL     OW60592   3.051   0.915   1.875
52918SOL    HW160593   2.993   0.974   1.923
52918SOL    HW260594   3.084   0.967   1.802
52919SOL     OW60595   5.936  13.108   8.404
52919SOL    HW160596   5.904  13.175   8.463
52919SOL    HW260597   6.019  13.143   8.370
52920SOL     OW60598   0.700  10.787  13.582
52920SOL    HW160599   0.616  10.825  13.609
52920SOL    HW260600   0.765  10.853  13.606
52921SOL     OW60601   7.256   1.603   5.301
52921SOL    HW160602   7.234   1.636   5.388
52921SOL    HW260603   7.182   1.547   5.277
52922SOL     OW60604   0.307   3.153   6.252
52922SOL    HW160605   0.251   3.151   6.175
52922SOL    HW260606   0.252   3.119   6.323
52923SOL     OW60607   4.008  10.734   3.640
52923SOL    HW160608   4.070  10.777   3.699
52923SOL    HW260609   4.053  10.734   3.555
52924SOL     OW60610  10.867   8.298   3.073
52924SOL    HW160611  10.856   8.393   3.064
52924SOL    HW260612  10.846   8.264   2.986
52925SOL     OW60613   4.355   0.172  12.865
52925SOL    HW160614   4.340   0.140  12.776
52925SOL    HW260615   4.368   0.093  12.917
52926SOL     OW60616   8.062  11.271   8.137
52926SOL    HW160617   8.070  11.296   8.045
52926SOL    HW260618   7.984  11.216   8.140
52927SOL     OW60619   4.461   6.358  11.392
52927SOL    HW160620   4.489   6.434  11.442
52927SOL    HW260621   4.381   6.387  11.347
52928SOL     OW60622  13.829   5.481   7.126
52928SOL    HW160623  13.763   5.548   7.109
52928SOL    HW260624  13.801   5.406   7.075
52929SOL     OW60625   7.812   9.140  12.102
52929SOL    HW160626   7.780   9.182  12.181
52929SOL    HW260627   7.738   9.146  12.040
52930SOL     OW60628   9.869   0.981  13.429
52930SOL    HW160629   9.873   0.895  13.387
52930SOL    HW260630   9.865   0.963  13.523
52931SOL     OW60631   3.354  13.426   6.103
52931SOL    HW160632   3.269  13.447   6.143
52931SOL    HW260633   3.391  13.359   6.160
52932SOL     OW60634   0.296  13.040   2.277
52932SOL    HW160635   0.353  13.068   2.205
52932SOL    HW260636   0.324  13.093   2.352
52933SOL     OW60637  11.013   2.703   9.104
52933SOL    HW160638  11.044   2.657   9.182
52933SOL    HW260639  10.931   2.743   9.131
52934SOL     OW60640   8.656  14.698  14.365
52934SOL    HW160641   8.669  14.786  14.400
52934SOL    HW260642   8.641  14.644  14.443
52935SOL     OW60643  13.004   5.960  14.668
52935SOL    HW160644  13.057   6.039  14.673
52935SOL    HW260645  13.060   5.891  14.705
52936SOL     OW60646   1.263   0.093  13.467
52936SOL    HW160647   1.279   0.048  13.550
52936SOL    HW260648   1.303   0.037  13.401
52937SOL     OW60649   3.713   6.689   3.388
52937SOL    HW160650   3.761   6.698   3.305
52937SOL    HW260651   3.781   6.682   3.455
52938SOL     OW60652   2.665  12.332   8.744
52938SOL    HW160653   2.701  12.259   8.693
52938SOL    HW260654   2.738  12.392   8.756
52939SOL     OW60655   1.575  13.339   6.410
52939SOL    HW160656   1.518  13.331   6.333
52939SOL    HW260657   1.516  13.337   6.485
52940SOL     OW60658   6.983   5.086   6.436
52940SOL    HW160659   7.074   5.103   6.459
52940SOL    HW260660   6.961   5.004   6.482
52941SOL     OW60661   1.931   6.067   8.066
52941SOL    HW160662   1.990   6.122   8.015
52941SOL    HW260663   1.949   5.978   8.036
52942SOL     OW60664  12.673   3.233  12.149
52942SOL    HW160665  12.732   3.307  12.163
52942SOL    HW260666  12.585   3.269  12.159
52943SOL     OW60667  13.281   0.362  10.152
52943SOL    HW160668  13.267   0.376  10.059
52943SOL    HW260669  13.203   0.400  10.194
52944SOL     OW60670   8.336   1.110   5.100
52944SOL    HW160671   8.415   1.091   5.150
52944SOL    HW260672   8.366   1.169   5.030
52945SOL     OW60673   0.174   4.225   3.217
52945SOL    HW160674   0.122   4.270   3.150
52945SOL    HW260675   0.245   4.286   3.237
52946SOL     OW60676  10.049   2.982   8.493
52946SOL    HW160677  10.087   3.067   8.471
52946SOL    HW260678  10.097   2.919   8.438
52947SOL     OW60679   6.717   2.683   2.502
52947SOL    HW160680   6.752   2.637   2.578
52947SOL    HW260681   6.644   2.735   2.537
52948SOL     OW60682  11.566   6.175   5.928
52948SOL    HW160683  11.599   6.202   6.014
52948SOL    HW260684  11.645   6.161   5.876
52949SOL     OW60685  11.078   2.166   4.719
52949SOL    HW160686  11.102   2.217   4.796
52949SOL    HW260687  11.104   2.220   4.645
52950SOL     OW60688   9.618   8.665   0.480
52950SOL    HW160689   9.647   8.725   0.411
52950SOL    HW260690   9.697   8.617   0.505
52951SOL     OW60691   7.270  14.789  13.218
52951SOL    HW160692   7.228  14.875  13.226
52951SOL    HW260693   7.328  14.799  13.142
52952SOL     OW60694  13.269   5.128   6.386
52952SOL    HW160695  13.193   5.121   6.443
52952SOL    HW260696  13.241   5.091   6.303
52953SOL     OW60697   6.755  10.915   2.910
52953SOL    HW160698   6.773  10.969   2.987
52953SOL    HW260699   6.823  10.940   2.848
52954SOL     OW60700  13.340   5.421   6.354
52954SOL    HW160701  13.331   5.329   6.378
52954SOL    HW260702  13.404   5.456   6.415
52955SOL     OW60703   5.428  12.835   0.370
52955SOL    HW160704   5.371  12.760   0.350
52955SOL    HW260705   5.385  12.910   0.328
52956SOL     OW60706   7.109  13.446   3.550
52956SOL    HW160707   7.120  13.352   3.536
52956SOL    HW260708   7.051  13.474   3.480
52957SOL     OW60709   7.874  12.120  13.320
52957SOL    HW160710   7.791  12.119  13.369
52957SOL    HW260711   7.911  12.206  13.339
52958SOL     OW60712   3.302   8.830   2.025
52958SOL    HW160713   3.363   8.756   2.019
52958SOL    HW260714   3.347   8.902   1.982
52959SOL     OW60715   3.017   1.182   9.322
52959SOL    HW160716   3.031   1.098   9.280
52959SOL    HW260717   2.931   1.211   9.291
52960SOL     OW60718   1.790   9.535   0.663
52960SOL    HW160719   1.736   9.607   0.695
52960SOL    HW260720   1.878   9.553   0.697
52961SOL     OW60721  12.129   8.808   3.581
52961SOL    HW160722  12.145   8.869   3.509
52961SOL    HW260723  12.135   8.721   3.541
52962SOL     OW60724   1.619   8.609   7.222
52962SOL    HW160725   1.593   8.532   7.273
52962SOL    HW260726   1.546   8.670   7.232
52963SOL     OW60727   2.363  10.350   4.017
52963SOL    HW160728   2.382  10.361   3.924
52963SOL    HW260729   2.393  10.261   4.037
52964SOL     OW60730   7.785  12.493  14.186
52964SOL    HW160731   7.859  12.467  14.131
52964SOL    HW260732   7.714  12.433  14.162
52965SOL     OW60733   8.931   2.393  11.549
52965SOL    HW160734   9.017   2.434  11.540
52965SOL    HW260735   8.871   2.465  11.565
52966SOL     OW60736  12.180   4.181   9.627
52966SOL    HW160737  12.092   4.151   9.604
52966SOL    HW260738  12.185   4.270   9.592
52967SOL     OW60739  11.839   9.324   2.708
52967SOL    HW160740  11.814   9.399   2.762
52967SOL    HW260741  11.925   9.298   2.741
52968SOL     OW60742   9.347   5.090   4.965
52968SOL    HW160743   9.321   5.174   5.002
52968SOL    HW260744   9.265   5.041   4.957
52969SOL     OW60745  14.832  13.925  13.014
52969SOL    HW160746  14.782  14.002  13.042
52969SOL    HW260747  14.800  13.854  13.071
52970SOL     OW60748   0.243   4.203   5.860
52970SOL    HW160749   0.203   4.125   5.820
52970SOL    HW260750   0.204   4.208   5.947
52971SOL     OW60751  12.559  14.471   8.271
52971SOL    HW160752  12.512  14.543   8.229
52971SOL    HW260753  12.645  14.471   8.229
52972SOL     OW60754   2.745  11.149  10.342
52972SOL    HW160755   2.785  11.068  10.374
52972SOL    HW260756   2.802  11.218  10.377
52973SOL     OW60757  10.485   9.937   8.252
52973SOL    HW160758  10.506  10.008   8.191
52973SOL    HW260759  10.525   9.964   8.334
52974SOL     OW60760   2.314   2.869   1.833
52974SOL    HW160761   2.368   2.796   1.862
52974SOL    HW260762   2.305   2.925   1.910
52975SOL     OW60763  11.103   4.349   6.673
52975SOL    HW160764  11.026   4.299   6.700
52975SOL    HW260765  11.171   4.325   6.736
52976SOL     OW60766   3.783   3.776  10.124
52976SOL    HW160767   3.874   3.804  10.112
52976SOL    HW260768   3.732   3.856  10.119
52977SOL     OW60769   4.011   0.784  11.634
52977SOL    HW160770   4.002   0.787  11.539
52977SOL    HW260771   4.022   0.691  11.654
52978SOL     OW60772   1.390   4.688  10.122
52978SOL    HW160773   1.357   4.714  10.208
52978SOL    HW260774   1.485   4.686  10.133
52979SOL     OW60775   2.164   7.572   3.448
52979SOL    HW160776   2.167   7.635   3.376
52979SOL    HW260777   2.111   7.615   3.515
52980SOL     OW60778  12.228  10.828   5.438
52980SOL    HW160779  12.240  10.815   5.532
52980SOL    HW260780  12.135  10.810   5.423
52981SOL     OW60781   7.466  12.720   3.343
52981SOL    HW160782   7.413  12.761   3.275
52981SOL    HW260783   7.429  12.755   3.425
52982SOL     OW60784  11.322   7.727  10.590
52982SOL    HW160785  11.320   7.798  10.655
52982SOL    HW260786  11.323   7.647  10.643
52983SOL     OW60787  11.436   3.095   3.333
52983SOL    HW160788  11.353   3.073   3.375
52983SOL    HW260789  11.497   3.111   3.405
52984SOL     OW60790   1.931  14.003   2.375
52984SOL    HW160791   1.977  14.000   2.459
52984SOL    HW260792   2.000  14.020   2.311
52985SOL     OW60793   3.496   4.879  14.735
52985SOL    HW160794   3.487   4.814  14.665
52985SOL    HW260795   3.571   4.932  14.708
52986SOL     OW60796  14.258   0.582   3.367
52986SOL    HW160797  14.222   0.640   3.300
52986SOL    HW260798  14.204   0.598   3.445
52987SOL     OW60799   0.479   6.594   8.727
52987SOL    HW160800   0.574   6.581   8.719
52987SOL    HW260801   0.450   6.611   8.638
52988SOL     OW60802   4.489   0.823   7.593
52988SOL    HW160803   4.395   0.820   7.573
52988SOL    HW260804   4.492   0.826   7.689
52989SOL     OW60805   2.414   8.222   6.102
52989SOL    HW160806   2.476   8.270   6.048
52989SOL    HW260807   2.341   8.283   6.114
52990SOL     OW60808   1.376   4.689   9.166
52990SOL    HW160809   1.317   4.691   9.090
52990SOL    HW260810   1.341   4.756   9.225
52991SOL     OW60811  14.818   7.815   5.200
52991SOL    HW160812  14.735   7.779   5.171
52991SOL    HW260813  14.795   7.896   5.245
52992SOL     OW60814  13.475   0.778   0.595
52992SOL    HW160815  13.439   0.720   0.528
52992SOL    HW260816  13.568   0.754   0.600
52993SOL     OW60817   5.986   0.178  13.560
52993SOL    HW160818   5.998   0.083  13.564
52993SOL    HW260819   5.916   0.196  13.622
52994SOL     OW60820   5.497  13.346  11.692
52994SOL    HW160821   5.492  13.273  11.755
52994SOL    HW260822   5.483  13.305  11.607
52995SOL     OW60823  14.806  14.459  14.451
52995SOL    HW160824   0.021  14.440  14.444
52995SOL    HW260825  14.781  14.425  14.537
52996SOL     OW60826   3.129   0.310   1.899
52996SOL    HW160827   3.034   0.299   1.898
52996SOL    HW260828   3.147   0.345   1.987
52997SOL     OW60829  11.918   6.119  13.234
52997SOL    HW160830  11.865   6.171  13.173
52997SOL    HW260831  11.908   6.163  13.318
52998SOL     OW60832   7.122  11.051  13.155
52998SOL    HW160833   7.217  11.051  13.169
52998SOL    HW260834   7.107  10.975  13.098
52999SOL     OW60835   2.248   2.499  11.227
52999SOL    HW160836   2.237   2.526  11.136
52999SOL    HW260837   2.286   2.575  11.271
53000SOL     OW60838   3.222   0.561   7.034
53000SOL    HW160839   3.316   0.555   7.047
53000SOL    HW260840   3.208   0.647   6.995
53001SOL     OW60841   3.556  10.520   7.478
53001SOL    HW160842   3.589  10.577   7.547
53001SOL    HW260843   3.632  10.501   7.423
53002SOL     OW60844   8.830  10.707   5.823
53002SOL    HW160845   8.835  10.688   5.917
53002SOL    HW260846   8.751  10.760   5.814
53003SOL     OW60847   9.653   5.744  11.585
53003SOL    HW160848   9.564   5.711  11.576
53003SOL    HW260849   9.657   5.781  11.673
53004SOL     OW60850   0.291   3.616   6.087
53004SOL    HW160851   0.230   3.609   6.014
53004SOL    HW260852   0.236   3.618   6.165
53005SOL     OW60853   7.778   0.763   5.147
53005SOL    HW160854   7.703   0.703   5.144
53005SOL    HW260855   7.772   0.813   5.065
53006SOL     OW60856   1.910   2.021   4.718
53006SOL    HW160857   1.965   2.076   4.773
53006SOL    HW260858   1.838   2.078   4.690
53007SOL     OW60859  12.326   9.948  12.776
53007SOL    HW160860  12.291   9.923  12.691
53007SOL    HW260861  12.250   9.955  12.833
53008SOL     OW60862   2.609   9.588   7.924
53008SOL    HW160863   2.648   9.502   7.906
53008SOL    HW260864   2.638   9.643   7.852
53009SOL     OW60865   7.335   7.229   3.295
53009SOL    HW160866   7.428   7.207   3.304
53009SOL    HW260867   7.335   7.317   3.255
53010SOL     OW60868   7.831   4.900  14.207
53010SOL    HW160869   7.907   4.902  14.150
53010SOL    HW260870   7.787   4.818  14.186
53011SOL     OW60871  10.148   4.662   2.537
53011SOL    HW160872  10.158   4.576   2.576
53011SOL    HW260873  10.055   4.668   2.515
53012SOL     OW60874   5.775  14.251  11.792
53012SOL    HW160875   5.852  14.303  11.767
53012SOL    HW260876   5.787  14.235  11.885
53013SOL     OW60877   5.666   3.411   6.308
53013SOL    HW160878   5.608   3.337   6.329
53013SOL    HW260879   5.614   3.466   6.249
53014SOL     OW60880  12.409  14.075  14.232
53014SOL    HW160881  12.396  13.983  14.209
53014SOL    HW260882  12.503  14.082  14.250
53015SOL     OW60883   3.422   7.986   5.512
53015SOL    HW160884   3.351   7.970   5.451
53015SOL    HW260885   3.442   8.079   5.503
53016SOL     OW60886   7.042  10.925   0.018
53016SOL    HW160887   7.000  10.952   0.100
53016SOL    HW260888   6.972  10.881  14.848
53017SOL     OW60889   4.528   0.995  14.778
53017SOL    HW160890   4.493   1.058  14.841
53017SOL    HW260891   4.611   1.033  14.751
53018SOL     OW60892  11.997   3.566   8.752
53018SOL    HW160893  11.934   3.541   8.684
53018SOL    HW260894  12.025   3.483   8.790
53019SOL     OW60895   5.255   4.197  11.552
53019SOL    HW160896   5.229   4.130  11.616
53019SOL    HW260897   5.319   4.251  11.598
53020SOL     OW60898   0.987   5.583   9.326
53020SOL    HW160899   0.948   5.514   9.380
53020SOL    HW260900   1.079   5.559   9.320
53021SOL     OW60901   5.588   8.730  10.875
53021SOL    HW160902   5.680   8.706  10.892
53021SOL    HW260903   5.544   8.646  10.863
53022SOL     OW60904  11.686   2.791   4.096
53022SOL    HW160905  11.652   2.873   4.130
53022SOL    HW260906  11.712   2.811   4.006
53023SOL     OW60907   9.103  13.398   4.303
53023SOL    HW160908   9.154  13.444   4.370
53023SOL    HW260909   9.076  13.316   4.346
53024SOL     OW60910   7.380   0.891  14.338
53024SOL    HW160911   7.394   0.936  14.255
53024SOL    HW260912   7.285   0.890  14.349
53025SOL     OW60913   1.831   9.664   2.561
53025SOL    HW160914   1.762   9.626   2.506
53025SOL    HW260915   1.895   9.594   2.570
53026SOL     OW60916   5.248   2.734   4.788
53026SOL    HW160917   5.326   2.782   4.815
53026SOL    HW260918   5.250   2.737   4.692
53027SOL     OW60919  14.603   0.998  12.990
53027SOL    HW160920  14.647   1.082  12.996
53027SOL    HW260921  14.562   0.998  12.903
53028SOL     OW60922   0.200   3.750   4.376
53028SOL    HW160923   0.118   3.724   4.418
53028SOL    HW260924   0.249   3.795   4.444
53029SOL     OW60925  12.304  13.478   4.317
53029SOL    HW160926  12.383  13.446   4.360
53029SOL    HW260927  12.232  13.437   4.365
53030SOL     OW60928   4.904   0.967   3.151
53030SOL    HW160929   4.868   1.027   3.085
53030SOL    HW260930   4.837   0.965   3.220
53031SOL     OW60931   1.887   2.879  11.015
53031SOL    HW160932   1.923   2.815  10.955
53031SOL    HW260933   1.813   2.834  11.056
53032SOL     OW60934   2.344  13.974   5.701
53032SOL    HW160935   2.301  14.004   5.781
53032SOL    HW260936   2.410  13.911   5.731
53033SOL     OW60937   9.691   2.233  14.507
53033SOL    HW160938   9.724   2.176  14.577
53033SOL    HW260939   9.755   2.224  14.437
53034SOL     OW60940   8.587  14.830   0.265
53034SOL    HW160941   8.655  14.793   0.322
53034SOL    HW260942   8.619  14.817   0.176
53035SOL     OW60943   7.884   3.542  13.901
53035SOL    HW160944   7.864   3.584  13.817
53035SOL    HW260945   7.804   3.495  13.925
53036SOL     OW60946   3.360   2.310   8.735
53036SOL    HW160947   3.429   2.245   8.720
53036SOL    HW260948   3.344   2.306   8.830
53037SOL     OW60949   0.303  13.279  10.425
53037SOL    HW160950   0.244  13.203  10.434
53037SOL    HW260951   0.390  13.243  10.438
53038SOL     OW60952  13.091  12.486  12.838
53038SOL    HW160953  13.087  12.577  12.808
53038SOL    HW260954  13.000  12.459  12.845
53039SOL     OW60955   3.377   3.374   5.588
53039SOL    HW160956   3.464   3.356   5.623
53039SOL    HW260957   3.364   3.468   5.603
53040SOL     OW60958   7.411   4.199   3.940
53040SOL    HW160959   7.373   4.184   3.854
53040SOL    HW260960   7.340   4.178   4.001
53041SOL     OW60961   8.914   5.724   3.619
53041SOL    HW160962   8.955   5.747   3.536
53041SOL    HW260963   8.830   5.769   3.617
53042SOL     OW60964   3.159   2.164  12.631
53042SOL    HW160965   3.249   2.151  12.660
53042SOL    HW260966   3.117   2.079  12.644
53043SOL     OW60967   3.038   2.942  11.714
53043SOL    HW160968   3.002   3.021  11.753
53043SOL    HW260969   3.098   2.974  11.646
53044SOL     OW60970  11.811   2.122   4.366
53044SOL    HW160971  11.719   2.123   4.394
53044SOL    HW260972  11.820   2.038   4.321
53045SOL     OW60973   7.208   8.980  10.262
53045SOL    HW160974   7.216   9.073  10.284
53045SOL    HW260975   7.257   8.970  10.180
53046SOL     OW60976   9.375  11.794   4.891
53046SOL    HW160977   9.339  11.775   4.977
53046SOL    HW260978   9.322  11.867   4.858
53047SOL     OW60979  12.565   0.855  12.107
53047SOL    HW160980  12.617   0.933  12.085
53047SOL    HW260981  12.629   0.789  12.131
53048SOL     OW60982  14.295  13.251   1.579
53048SOL    HW160983  14.326  13.323   1.524
53048SOL    HW260984  14.256  13.189   1.518
53049SOL     OW60985  11.572   6.198   9.281
53049SOL    HW160986  11.580   6.193   9.185
53049SOL    HW260987  11.619   6.121   9.313
53050SOL     OW60988  11.927   8.813   8.360
53050SOL    HW160989  12.005   8.761   8.340
53050SOL    HW260990  11.862   8.785   8.295
53051SOL     OW60991  14.453   9.506  12.718
53051SOL    HW160992  14.520   9.574  12.717
53051SOL    HW260993  14.421   9.503  12.627
53052SOL     OW60994   3.859   0.164   8.011
53052SOL    HW160995   3.877   0.093   8.072
53052SOL    HW260996   3.778   0.203   8.043
53053SOL     OW60997  10.980  12.864  10.747
53053SOL    HW160998  11.002  12.922  10.820
53053SOL    HW260999  11.048  12.880  10.682
53054SOL     OW61000  13.509   3.204  10.377
53054SOL    HW161001  13.474   3.175  10.461
53054SOL    HW261002  13.600   3.229  10.397
53055SOL     OW61003  11.202   4.583   5.398
53055SOL    HW161004  11.272   4.593   5.463
53055SOL    HW261005  11.222   4.648   5.331
53056SOL     OW61006   1.743   9.823  11.549
53056SOL    HW161007   1.689   9.760  11.501
53056SOL    HW261008   1.830   9.815  11.509
53057SOL     OW61009  14.292  10.924   7.238
53057SOL    HW161010  14.200  10.921   7.264
53057SOL    HW261011  14.293  10.893   7.148
53058SOL     OW61012  13.285  11.805   0.192
53058SOL    HW161013  13.242  11.838   0.114
53058SOL    HW261014  13.379  11.812   0.173
53059SOL     OW61015   0.881   8.668  12.653
53059SOL    HW161016   0.847   8.691  12.567
53059SOL    HW261017   0.826   8.716  12.715
53060SOL     OW61018  13.484   7.441  14.689
53060SOL    HW161019  13.578   7.424  14.699
53060SOL    HW261020  13.473   7.461  14.596
53061SOL     OW61021   8.565   9.852   8.549
53061SOL    HW161022   8.547   9.825   8.639
53061SOL    HW261023   8.490   9.906   8.525
53062SOL     OW61024   1.819  13.337   3.928
53062SOL    HW161025   1.743  13.291   3.892
53062SOL    HW261026   1.850  13.392   3.855
53063SOL     OW61027   2.489   1.635   1.262
53063SOL    HW161028   2.396   1.637   1.281
53063SOL    HW261029   2.504   1.551   1.220
53064SOL     OW61030   8.096   8.130  12.392
53064SOL    HW161031   8.112   8.036  12.385
53064SOL    HW261032   8.171   8.170  12.347
53065SOL     OW61033   7.682  13.907   6.730
53065SOL    HW161034   7.735  13.845   6.679
53065SOL    HW261035   7.630  13.851   6.788
53066SOL     OW61036   1.850   9.112   6.175
53066SOL    HW161037   1.889   9.076   6.255
53066SOL    HW261038   1.795   9.042   6.141
53067SOL     OW61039   3.491  12.794  13.761
53067SOL    HW161040   3.419  12.812  13.702
53067SOL    HW261041   3.547  12.873  13.757
53068SOL     OW61042  10.325   5.364   8.980
53068SOL    HW161043  10.327   5.358   9.076
53068SOL    HW261044  10.235   5.390   8.959
53069SOL     OW61045   8.316   0.088  13.238
53069SOL    HW161046   8.355   0.038  13.310
53069SOL    HW261047   8.238   0.128  13.277
53070SOL     OW61048   8.703   6.421   8.243
53070SOL    HW161049   8.652   6.356   8.290
53070SOL    HW261050   8.728   6.378   8.161
53071SOL     OW61051  12.014  11.343  13.570
53071SOL    HW161052  12.066  11.422  13.573
53071SOL    HW261053  11.981  11.332  13.659
53072SOL     OW61054  14.283  10.971   2.714
53072SOL    HW161055  14.296  10.911   2.787
53072SOL    HW261056  14.353  10.951   2.653
53073SOL     OW61057   3.388  12.037   9.855
53073SOL    HW161058   3.441  12.090   9.914
53073SOL    HW261059   3.387  11.950   9.896
53074SOL     OW61060   2.943   9.509   9.447
53074SOL    HW161061   2.924   9.422   9.414
53074SOL    HW261062   2.872   9.564   9.412
53075SOL     OW61063   3.637   0.437  10.288
53075SOL    HW161064   3.719   0.398  10.257
53075SOL    HW261065   3.578   0.430  10.213
53076SOL     OW61066   8.658  14.638  12.341
53076SOL    HW161067   8.710  14.696  12.286
53076SOL    HW261068   8.719  14.570  12.369
53077SOL     OW61069   5.295  13.550  10.838
53077SOL    HW161070   5.376  13.536  10.888
53077SOL    HW261071   5.274  13.642  10.852
53078SOL     OW61072  12.379   0.910   3.451
53078SOL    HW161073  12.381   1.004   3.469
53078SOL    HW261074  12.470   0.881   3.464
53079SOL     OW61075   3.006   4.208   4.982
53079SOL    HW161076   3.020   4.212   5.076
53079SOL    HW261077   2.917   4.242   4.969
53080SOL     OW61078   6.415  10.846  11.364
53080SOL    HW161079   6.375  10.932  11.358
53080SOL    HW261080   6.391  10.814  11.451
53081SOL     OW61081   9.793   8.391   9.621
53081SOL    HW161082   9.857   8.406   9.552
53081SOL    HW261083   9.708   8.402   9.579
53082SOL     OW61084   5.031  10.130   1.422
53082SOL    HW161085   4.954  10.074   1.429
53082SOL    HW261086   5.029  10.164   1.333
53083SOL     OW61087   3.077   5.205   6.107
53083SOL    HW161088   3.143   5.206   6.038
53083SOL    HW261089   3.093   5.284   6.158
53084SOL     OW61090  13.009   4.386  11.261
53084SOL    HW161091  13.067   4.371  11.336
53084SOL    HW261092  12.971   4.300  11.243
53085SOL     OW61093  10.125   2.680   8.948
53085SOL    HW161094  10.030   2.694   8.949
53085SOL    HW261095  10.162   2.767   8.935
53086SOL     OW61096   3.976   8.132   2.975
53086SOL    HW161097   3.975   8.208   3.032
53086SOL    HW261098   3.906   8.149   2.911
53087SOL     OW61099   0.704  13.454   8.007
53087SOL    HW161100   0.685  13.366   8.041
53087SOL    HW261101   0.796  13.469   8.029
53088SOL     OW61102   9.334   3.123   0.254
53088SOL    HW161103   9.290   3.142   0.336
53088SOL    HW261104   9.300   3.038   0.227
53089SOL     OW61105   3.001  11.298  13.581
53089SOL    HW161106   2.957  11.367  13.531
53089SOL    HW261107   3.030  11.341  13.661
53090SOL     OW61108   9.887  11.304   1.039
53090SOL    HW161109   9.894  11.399   1.044
53090SOL    HW261110   9.936  11.272   1.115
53091SOL     OW61111  14.683  11.645  11.574
53091SOL    HW161112  14.692  11.684  11.661
53091SOL    HW261113  14.702  11.717  11.514
53092SOL     OW61114  14.522   9.792   2.083
53092SOL    HW161115  14.615   9.773   2.094
53092SOL    HW261116  14.477   9.723   2.133
53093SOL     OW61117   7.463  11.137   7.561
53093SOL    HW161118   7.516  11.076   7.510
53093SOL    HW261119   7.374  11.129   7.525
53094SOL     OW61120   4.370   0.173   4.578
53094SOL    HW161121   4.457   0.149   4.611
53094SOL    HW261122   4.312   0.106   4.612
53095SOL     OW61123   1.272  11.894   7.945
53095SOL    HW161124   1.263  11.818   7.887
53095SOL    HW261125   1.359  11.884   7.985
53096SOL     OW61126  10.183  14.143   2.845
53096SOL    HW161127  10.208  14.066   2.896
53096SOL    HW261128  10.132  14.107   2.772
53097SOL     OW61129   3.163   2.576  14.877
53097SOL    HW161130   3.095   2.607   0.056
53097SOL    HW261131   3.136   2.607  14.790
53098SOL     OW61132   6.752   5.758   0.048
53098SOL    HW161133   6.800   5.683   0.012
53098SOL    HW261134   6.684   5.777  14.861
53099SOL     OW61135  11.099   0.147   8.704
53099SOL    HW161136  11.155   0.106   8.770
53099SOL    HW261137  11.123   0.104   8.622
53100SOL     OW61138   5.370   5.070   7.359
53100SOL    HW161139   5.320   5.034   7.286
53100SOL    HW261140   5.444   5.115   7.318
53101SOL     OW61141   6.638  13.758  13.292
53101SOL    HW161142   6.656  13.844  13.253
53101SOL    HW261143   6.662  13.768  13.384
53102SOL     OW61144   0.927  10.128   1.881
53102SOL    HW161145   1.018  10.136   1.910
53102SOL    HW261146   0.932  10.084   1.796
53103SOL     OW61147   9.556   5.808   5.861
53103SOL    HW161148   9.532   5.889   5.906
53103SOL    HW261149   9.530   5.739   5.922
53104SOL     OW61150   1.446  13.630  12.530
53104SOL    HW161151   1.470  13.688  12.602
53104SOL    HW261152   1.353  13.646  12.515
53105SOL     OW61153   7.874  13.631   5.119
53105SOL    HW161154   7.902  13.703   5.176
53105SOL    HW261155   7.911  13.553   5.158
53106SOL     OW61156   3.407   5.608  10.128
53106SOL    HW161157   3.499   5.606  10.101
53106SOL    HW261158   3.407   5.568  10.215
53107SOL     OW61159  10.206   5.998   9.748
53107SOL    HW161160  10.255   6.058   9.693
53107SOL    HW261161  10.115   6.009   9.720
53108SOL     OW61162   1.490   6.348  11.223
53108SOL    HW161163   1.491   6.285  11.295
53108SOL    HW261164   1.401   6.342  11.188
53109SOL     OW61165  14.002   0.383   4.680
53109SOL    HW161166  13.991   0.464   4.631
53109SOL    HW261167  14.085   0.347   4.648
53110SOL     OW61168   1.948  10.935   0.209
53110SOL    HW161169   1.906  11.015   0.178
53110SOL    HW261170   1.888  10.865   0.182
53111SOL     OW61171  13.004  13.003   9.085
53111SOL    HW161172  13.009  12.941   9.011
53111SOL    HW261173  12.917  12.990   9.122
53112SOL     OW61174   4.308   0.351   4.972
53112SOL    HW161175   4.313   0.413   5.044
53112SOL    HW261176   4.398   0.341   4.941
53113SOL     OW61177  13.543  10.244   2.910
53113SOL    HW161178  13.582  10.276   2.829
53113SOL    HW261179  13.618  10.232   2.969
53114SOL     OW61180   6.091   1.602   6.205
53114SOL    HW161181   6.156   1.568   6.266
53114SOL    HW261182   6.138   1.667   6.154
53115SOL     OW61183   5.895  14.762   9.891
53115SOL    HW161184   5.944  14.694   9.845
53115SOL    HW261185   5.847  14.715   9.959
53116SOL     OW61186   3.387   6.949  12.015
53116SOL    HW161187   3.332   6.871  12.006
53116SOL    HW261188   3.412   6.972  11.926
53117SOL     OW61189   0.123  13.971  10.893
53117SOL    HW161190   0.056  14.032  10.923
53117SOL    HW261191   0.082  13.923  10.822
53118SOL     OW61192   8.865   2.288   7.965
53118SOL    HW161193   8.934   2.353   7.952
53118SOL    HW261194   8.886   2.217   7.906
53119SOL     OW61195   8.683   6.056   3.814
53119SOL    HW161196   8.614   5.994   3.839
53119SOL    HW261197   8.764   6.009   3.832
53120SOL     OW61198   2.455  14.550   5.686
53120SOL    HW161199   2.381  14.501   5.721
53120SOL    HW261200   2.415  14.614   5.627
53121SOL     OW61201   6.300   1.346   8.935
53121SOL    HW161202   6.267   1.396   9.010
53121SOL    HW261203   6.259   1.388   8.859
53122SOL     OW61204   4.362   0.879   3.550
53122SOL    HW161205   4.320   0.867   3.635
53122SOL    HW261206   4.332   0.804   3.498
53123SOL     OW61207  13.790   4.343   6.351
53123SOL    HW161208  13.771   4.333   6.258
53123SOL    HW261209  13.757   4.262   6.391
53124SOL     OW61210   7.242   3.838   9.867
53124SOL    HW161211   7.336   3.856   9.866
53124SOL    HW261212   7.201   3.918   9.837
53125SOL     OW61213   9.726   3.473  14.369
53125SOL    HW161214   9.753   3.563  14.354
53125SOL    HW261215   9.688   3.473  14.457
53126SOL     OW61216   8.986  12.017   4.067
53126SOL    HW161217   8.925  12.080   4.030
53126SOL    HW261218   9.030  12.064   4.138
53127SOL     OW61219   6.004   9.482  12.792
53127SOL    HW161220   6.003   9.524  12.878
53127SOL    HW261221   5.976   9.392  12.808
53128SOL     OW61222   3.116  10.408   7.032
53128SOL    HW161223   3.130  10.316   7.009
53128SOL    HW261224   3.114  10.454   6.948
53129SOL     OW61225   0.173  12.406   7.725
53129SOL    HW161226   0.251  12.442   7.769
53129SOL    HW261227   0.207  12.334   7.672
53130SOL     OW61228   9.943  14.088  14.744
53130SOL    HW161229   9.912  14.080  14.834
53130SOL    HW261230  10.022  14.143  14.750
53131SOL     OW61231  10.529   9.753   7.987
53131SOL    HW161232  10.514   9.796   7.903
53131SOL    HW261233  10.566   9.822   8.043
53132SOL     OW61234   9.498   5.595   6.058
53132SOL    HW161235   9.447   5.537   6.001
53132SOL    HW261236   9.493   5.554   6.144
53133SOL     OW61237  14.776  12.609   2.894
53133SOL    HW161238  14.868  12.588   2.910
53133SOL    HW261239  14.779  12.689   2.841
53134SOL     OW61240   2.606   7.107   4.588
53134SOL    HW161241   2.533   7.086   4.530
53134SOL    HW261242   2.568   7.102   4.676
53135SOL     OW61243   9.249   4.534   0.511
53135SOL    HW161244   9.259   4.579   0.595
53135SOL    HW261245   9.293   4.450   0.523
53136SOL     OW61246   9.416   6.115   1.783
53136SOL    HW161247   9.478   6.116   1.856
53136SOL    HW261248   9.331   6.131   1.824
53137SOL     OW61249  11.355  14.460   3.155
53137SOL    HW161250  11.362  14.445   3.249
53137SOL    HW261251  11.306  14.542   3.147
53138SOL     OW61252  12.193   0.125   3.015
53138SOL    HW161253  12.189   0.195   2.950
53138SOL    HW261254  12.154   0.049   2.971
53139SOL     OW61255   7.735   9.187  10.552
53139SOL    HW161256   7.799   9.125  10.516
53139SOL    HW261257   7.786   9.240  10.614
53140SOL     OW61258  11.333   7.162   3.213
53140SOL    HW161259  11.278   7.202   3.145
53140SOL    HW261260  11.327   7.068   3.196
53141SOL     OW61261  14.769   7.131   4.051
53141SOL    HW161262  14.684   7.089   4.038
53141SOL    HW261263  14.823   7.065   4.094
53142SOL     OW61264  11.832   9.101   6.434
53142SOL    HW161265  11.794   9.082   6.520
53142SOL    HW261266  11.879   9.184   6.446
53143SOL     OW61267   5.041   2.641   3.614
53143SOL    HW161268   4.955   2.633   3.571
53143SOL    HW261269   5.020   2.651   3.707
53144SOL     OW61270  11.432  14.552   0.001
53144SOL    HW161271  11.392  14.574   0.085
53144SOL    HW261272  11.409  14.460  14.866
53145SOL     OW61273   7.811   9.401   2.408
53145SOL    HW161274   7.787   9.309   2.407
53145SOL    HW261275   7.896   9.404   2.452
53146SOL     OW61276  10.613   2.913   4.878
53146SOL    HW161277  10.535   2.962   4.852
53146SOL    HW261278  10.628   2.939   4.969
53147SOL     OW61279  10.493   2.703   7.583
53147SOL    HW161280  10.500   2.798   7.577
53147SOL    HW261281  10.583   2.672   7.595
53148SOL     OW61282   2.954  14.743  12.587
53148SOL    HW161283   3.013  14.691  12.642
53148SOL    HW261284   2.936  14.822  12.639
53149SOL     OW61285   2.438   2.616   3.725
53149SOL    HW161286   2.525   2.584   3.748
53149SOL    HW261287   2.447   2.647   3.635
53150SOL     OW61288  10.012  10.585   6.936
53150SOL    HW161289  10.067  10.551   6.866
53150SOL    HW261290   9.961  10.510   6.966
53151SOL     OW61291  11.874  10.600   6.519
53151SOL    HW161292  11.892  10.592   6.425
53151SOL    HW261293  11.785  10.634   6.523
53152SOL     OW61294   3.641   4.457   1.705
53152SOL    HW161295   3.591   4.393   1.755
53152SOL    HW261296   3.584   4.480   1.631
53153SOL     OW61297  10.467   2.555  12.989
53153SOL    HW161298  10.389   2.582  12.941
53153SOL    HW261299  10.441   2.478  13.038
53154SOL     OW61300   6.907   7.842   1.121
53154SOL    HW161301   6.962   7.853   1.043
53154SOL    HW261302   6.818   7.859   1.090
53155SOL     OW61303  10.749  14.613   5.556
53155SOL    HW161304  10.773  14.556   5.483
53155SOL    HW261305  10.830  14.627   5.604
53156SOL     OW61306  11.606  12.882  11.481
53156SOL    HW161307  11.646  12.817  11.539
53156SOL    HW261308  11.543  12.928  11.536
53157SOL     OW61309   5.041   3.967   1.185
53157SOL    HW161310   5.040   4.062   1.194
53157SOL    HW261311   4.957   3.946   1.145
53158SOL     OW61312   2.154   4.317   6.703
53158SOL    HW161313   2.188   4.243   6.755
53158SOL    HW261314   2.067   4.288   6.675
53159SOL     OW61315  10.832   0.700   1.042
53159SOL    HW161316  10.920   0.688   1.006
53159SOL    HW261317  10.785   0.752   0.977
53160SOL     OW61318   4.705   5.262   2.074
53160SOL    HW161319   4.673   5.281   1.986
53160SOL    HW261320   4.791   5.304   2.078
53161SOL     OW61321   3.274  11.857   7.839
53161SOL    HW161322   3.293  11.908   7.918
53161SOL    HW261323   3.213  11.911   7.789
53162SOL     OW61324   6.136  14.778   6.422
53162SOL    HW161325   6.145  14.827   6.340
53162SOL    HW261326   6.208  14.810   6.477
53163SOL     OW61327  13.517  12.109   5.169
53163SOL    HW161328  13.473  12.091   5.252
53163SOL    HW261329  13.446  12.128   5.108
53164SOL     OW61330   5.795   5.954   8.984
53164SOL    HW161331   5.849   5.875   8.988
53164SOL    HW261332   5.826   5.999   8.905
53165SOL     OW61333   7.413   3.048  14.241
53165SOL    HW161334   7.381   3.071  14.154
53165SOL    HW261335   7.346   3.082  14.301
53166SOL     OW61336  13.359   8.956   6.183
53166SOL    HW161337  13.419   8.907   6.240
53166SOL    HW261338  13.328   9.028   6.238
53167SOL     OW61339   4.257  13.354   3.165
53167SOL    HW161340   4.292  13.267   3.145
53167SOL    HW261341   4.285  13.371   3.255
53168SOL     OW61342   7.046   1.930   0.534
53168SOL    HW161343   7.057   1.838   0.559
53168SOL    HW261344   6.971   1.929   0.475
53169SOL     OW61345   4.967  12.609  14.491
53169SOL    HW161346   4.912  12.663  14.434
53169SOL    HW261347   4.910  12.536  14.517
53170SOL     OW61348  12.174   8.287  11.010
53170SOL    HW161349  12.173   8.224  11.083
53170SOL    HW261350  12.088   8.277  10.969
53171SOL     OW61351   6.514   3.751  12.364
53171SOL    HW161352   6.523   3.686  12.295
53171SOL    HW261353   6.577   3.724  12.431
53172SOL     OW61354  10.085   5.594   8.053
53172SOL    HW161355  10.153   5.562   8.112
53172SOL    HW261356  10.132   5.616   7.972
53173SOL     OW61357   4.433   2.564   8.210
53173SOL    HW161358   4.450   2.511   8.132
53173SOL    HW261359   4.498   2.535   8.273
53174SOL     OW61360   3.655   3.988   7.599
53174SOL    HW161361   3.676   3.964   7.690
53174SOL    HW261362   3.699   4.072   7.586
53175SOL     OW61363   1.445  13.735   8.521
53175SOL    HW161364   1.414  13.784   8.444
53175SOL    HW261365   1.376  13.747   8.586
53176SOL     OW61366  14.610   0.990  10.206
53176SOL    HW161367  14.533   0.969  10.260
53176SOL    HW261368  14.600   0.937  10.127
53177SOL     OW61369   4.665   0.255  12.345
53177SOL    HW161370   4.753   0.216  12.348
53177SOL    HW261371   4.650   0.287  12.434
53178SOL     OW61372   9.095  14.429   2.290
53178SOL    HW161373   9.187  14.413   2.269
53178SOL    HW261374   9.050  14.426   2.206
53179SOL     OW61375  13.381   4.532   3.095
53179SOL    HW161376  13.466   4.488   3.106
53179SOL    HW261377  13.381   4.562   3.004
53180SOL     OW61378  14.069   2.560   0.156
53180SOL    HW161379  14.086   2.469   0.129
53180SOL    HW261380  13.974   2.563   0.170
53181SOL     OW61381   9.958   2.484  12.112
53181SOL    HW161382   9.947   2.488  12.017
53181SOL    HW261383   9.869   2.480  12.147
53182SOL     OW61384   6.912   7.904   5.326
53182SOL    HW161385   7.003   7.917   5.298
53182SOL    HW261386   6.909   7.939   5.415
53183SOL     OW61387  14.532   0.793   9.916
53183SOL    HW161388  14.491   0.861   9.863
53183SOL    HW261389  14.563   0.728   9.852
53184SOL     OW61390   8.132   4.271   5.505
53184SOL    HW161391   8.115   4.209   5.434
53184SOL    HW261392   8.218   4.307   5.485
53185SOL     OW61393   4.705  11.406  13.588
53185SOL    HW161394   4.769  11.335  13.585
53185SOL    HW261395   4.666  11.408  13.501
53186SOL     OW61396  12.514  12.338   6.602
53186SOL    HW161397  12.528  12.277   6.529
53186SOL    HW261398  12.585  12.401   6.594
53187SOL     OW61399  10.766  10.923  14.817
53187SOL    HW161400  10.746  10.950   0.027
53187SOL    HW261401  10.837  10.981  14.790
53188SOL     OW61402   6.714   2.360   6.139
53188SOL    HW161403   6.740   2.404   6.219
53188SOL    HW261404   6.796   2.342   6.093
53189SOL     OW61405  10.017  10.863   6.702
53189SOL    HW161406  10.053  10.774   6.703
53189SOL    HW261407  10.007  10.883   6.609
53190SOL     OW61408  11.654  12.762   4.208
53190SOL    HW161409  11.684  12.719   4.288
53190SOL    HW261410  11.583  12.706   4.176
53191SOL     OW61411   0.125   3.007  14.471
53191SOL    HW161412   0.075   3.014  14.553
53191SOL    HW261413   0.196   2.946  14.491
53192SOL     OW61414  10.633  11.660  12.469
53192SOL    HW161415  10.612  11.713  12.546
53192SOL    HW261416  10.553  11.610  12.453
53193SOL     OW61417  12.148   4.717   4.764
53193SOL    HW161418  12.231   4.699   4.808
53193SOL    HW261419  12.172   4.775   4.691
53194SOL     OW61420   5.940   6.504   7.964
53194SOL    HW161421   5.861   6.453   7.945
53194SOL    HW261422   5.952   6.497   8.058
53195SOL     OW61423   2.664   9.595   0.194
53195SOL    HW161424   2.688   9.564   0.107
53195SOL    HW261425   2.639   9.687   0.180
53196SOL     OW61426   0.358  12.883   1.116
53196SOL    HW161427   0.285  12.919   1.066
53196SOL    HW261428   0.326  12.879   1.206
53197SOL     OW61429   7.763   1.473   3.972
53197SOL    HW161430   7.790   1.565   3.969
53197SOL    HW261431   7.727   1.461   4.060
53198SOL     OW61432   0.696  13.419  10.041
53198SOL    HW161433   0.604  13.407  10.017
53198SOL    HW261434   0.697  13.501  10.091
53199SOL     OW61435  14.172   9.450  13.858
53199SOL    HW161436  14.097   9.402  13.824
53199SOL    HW261437  14.194   9.513  13.789
53200SOL     OW61438   3.015  12.523   6.987
53200SOL    HW161439   3.068  12.443   6.984
53200SOL    HW261440   3.079  12.593   7.003
53201SOL     OW61441   7.052   9.569   2.700
53201SOL    HW161442   7.105   9.502   2.656
53201SOL    HW261443   7.044   9.537   2.790
53202SOL     OW61444   0.713  13.374   0.277
53202SOL    HW161445   0.638  13.407   0.325
53202SOL    HW261446   0.689  13.385   0.185
53203SOL     OW61447   3.248   4.097  11.899
53203SOL    HW161448   3.270   4.166  11.961
53203SOL    HW261449   3.164   4.125  11.861
53204SOL     OW61450  11.243   4.989  11.990
53204SOL    HW161451  11.278   5.050  12.055
53204SOL    HW261452  11.164   5.032  11.957
53205SOL     OW61453   0.223   3.599  11.176
53205SOL    HW161454   0.182   3.513  11.186
53205SOL    HW261455   0.149   3.659  11.161
53206SOL     OW61456  14.023   8.878   8.118
53206SOL    HW161457  14.091   8.878   8.185
53206SOL    HW261458  14.038   8.796   8.070
53207SOL     OW61459   0.651   6.562   3.923
53207SOL    HW161460   0.666   6.511   3.843
53207SOL    HW261461   0.662   6.499   3.994
53208SOL     OW61462   7.905  12.903   4.280
53208SOL    HW161463   7.852  12.825   4.263
53208SOL    HW261464   7.924  12.899   4.374
53209SOL     OW61465   1.394  12.076  13.683
53209SOL    HW161466   1.489  12.075  13.694
53209SOL    HW261467   1.377  12.150  13.624
53210SOL     OW61468   6.724  12.423  14.648
53210SOL    HW161469   6.806  12.449  14.606
53210SOL    HW261470   6.661  12.488  14.618
53211SOL     OW61471   9.887   6.556  12.971
53211SOL    HW161472   9.947   6.616  12.927
53211SOL    HW261473   9.941   6.515  13.039
53212SOL     OW61474   5.692   2.911   3.852
53212SOL    HW161475   5.660   2.833   3.897
53212SOL    HW261476   5.785   2.894   3.836
53213SOL     OW61477   5.003  10.773   9.339
53213SOL    HW161478   5.007  10.736   9.427
53213SOL    HW261479   4.942  10.716   9.292
53214SOL     OW61480  12.420   2.060  10.678
53214SOL    HW161481  12.328   2.037  10.690
53214SOL    HW261482  12.432   2.061  10.583
53215SOL     OW61483   4.182   2.300   5.426
53215SOL    HW161484   4.144   2.388   5.420
53215SOL    HW261485   4.273   2.315   5.449
53216SOL     OW61486   9.497  10.031  11.452
53216SOL    HW161487   9.525   9.956  11.400
53216SOL    HW261488   9.575  10.055  11.503
53217SOL     OW61489   1.046   6.511  13.689
53217SOL    HW161490   1.022   6.583  13.747
53217SOL    HW261491   1.057   6.436  13.747
53218SOL     OW61492   6.535  10.231   1.173
53218SOL    HW161493   6.517  10.232   1.079
53218SOL    HW261494   6.525  10.322   1.200
53219SOL     OW61495  13.170   0.298  11.131
53219SOL    HW161496  13.168   0.204  11.148
53219SOL    HW261497  13.217   0.335  11.206
53220SOL     OW61498   4.128  13.894  11.880
53220SOL    HW161499   4.110  13.800  11.882
53220SOL    HW261500   4.178  13.910  11.959
53221SOL     OW61501  11.983   9.094   0.712
53221SOL    HW161502  11.953   9.006   0.689
53221SOL    HW261503  12.078   9.087   0.718
53222SOL     OW61504  10.065   0.430  10.585
53222SOL    HW161505  10.027   0.371  10.649
53222SOL    HW261506  10.006   0.425  10.509
53223SOL     OW61507   9.488  11.198   7.845
53223SOL    HW161508   9.530  11.280   7.872
53223SOL    HW261509   9.407  11.225   7.802
53224SOL     OW61510  10.245   7.497   8.192
53224SOL    HW161511  10.252   7.589   8.165
53224SOL    HW261512  10.238   7.448   8.110
53225SOL     OW61513   7.495  10.048   3.408
53225SOL    HW161514   7.506   9.970   3.463
53225SOL    HW261515   7.497  10.121   3.470
53226SOL     OW61516  14.221  14.621   3.784
53226SOL    HW161517  14.269  14.579   3.713
53226SOL    HW261518  14.276  14.696   3.809
53227SOL     OW61519   4.341   8.875   6.747
53227SOL    HW161520   4.415   8.834   6.792
53227SOL    HW261521   4.311   8.809   6.684
53228SOL     OW61522  14.829   6.820   2.348
53228SOL    HW161523  14.813   6.728   2.368
53228SOL    HW261524  14.755   6.867   2.388
53229SOL     OW61525  12.465  10.777   6.960
53229SOL    HW161526  12.432  10.865   6.983
53229SOL    HW261527  12.406  10.717   7.006
53230SOL     OW61528   4.666   2.188   9.834
53230SOL    HW161529   4.731   2.202   9.902
53230SOL    HW261530   4.598   2.253   9.851
53231SOL     OW61531   6.604   8.262  14.355
53231SOL    HW161532   6.529   8.242  14.299
53231SOL    HW261533   6.571   8.324  14.420
53232SOL     OW61534  10.244   6.168   8.401
53232SOL    HW161535  10.321   6.214   8.369
53232SOL    HW261536  10.278   6.099   8.458
53233SOL     OW61537   0.158   9.304   5.224
53233SOL    HW161538   0.139   9.215   5.252
53233SOL    HW261539   0.175   9.353   5.305
53234SOL     OW61540   6.342  10.861   4.631
53234SOL    HW161541   6.328  10.857   4.725
53234SOL    HW261542   6.255  10.864   4.593
53235SOL     OW61543  13.039   4.932   1.187
53235SOL    HW161544  13.095   4.857   1.206
53235SOL    HW261545  13.022   4.928   1.093
53236SOL     OW61546  12.829   4.744  11.583
53236SOL    HW161547  12.923   4.726  11.573
53236SOL    HW261548  12.809   4.805  11.513
53237SOL     OW61549  10.282   1.844   0.498
53237SOL    HW161550  10.196   1.836   0.457
53237SOL    HW261551  10.338   1.879   0.429
53238SOL     OW61552   3.085  13.797   6.312
53238SOL    HW161553   3.164  13.768   6.358
53238SOL    HW261554   3.019  13.731   6.334
53239SOL     OW61555   2.372   0.744  13.568
53239SOL    HW161556   2.435   0.678  13.597
53239SOL    HW261557   2.346   0.717  13.480
53240SOL     OW61558   7.037   7.446   2.405
53240SOL    HW161559   7.006   7.442   2.315
53240SOL    HW261560   7.027   7.356   2.437
53241SOL     OW61561   5.326   8.819  10.017
53241SOL    HW161562   5.261   8.865   9.964
53241SOL    HW261563   5.389   8.886  10.043
53242SOL     OW61564  11.976   2.196   7.135
53242SOL    HW161565  11.978   2.161   7.224
53242SOL    HW261566  11.905   2.149   7.092
53243SOL     OW61567  11.344  13.828   9.425
53243SOL    HW161568  11.349  13.906   9.370
53243SOL    HW261569  11.372  13.857   9.512
53244SOL     OW61570  11.081  12.134  13.703
53244SOL    HW161571  11.154  12.162  13.758
53244SOL    HW261572  11.102  12.168  13.616
53245SOL     OW61573  10.431  14.420  12.446
53245SOL    HW161574  10.427  14.506  12.404
53245SOL    HW261575  10.340  14.396  12.460
53246SOL     OW61576   4.986   7.277   5.954
53246SOL    HW161577   4.968   7.369   5.973
53246SOL    HW261578   4.937   7.260   5.873
53247SOL     OW61579   8.026  14.853   8.751
53247SOL    HW161580   8.007  14.765   8.719
53247SOL    HW261581   8.108  14.844   8.800
53248SOL     OW61582   0.529   8.299   8.062
53248SOL    HW161583   0.494   8.309   7.973
53248SOL    HW261584   0.515   8.384   8.103
53249SOL     OW61585   9.230  14.278   7.742
53249SOL    HW161586   9.320  14.249   7.732
53249SOL    HW261587   9.223  14.355   7.684
53250SOL     OW61588   6.984   3.497   6.571
53250SOL    HW161589   7.065   3.459   6.536
53250SOL    HW261590   6.929   3.422   6.592
53251SOL     OW61591   5.648   6.773   0.623
53251SOL    HW161592   5.676   6.703   0.563
53251SOL    HW261593   5.599   6.727   0.691
53252SOL     OW61594  14.699  14.184   0.467
53252SOL    HW161595  14.745  14.264   0.491
53252SOL    HW261596  14.767  14.118   0.459
53253SOL     OW61597   2.600  13.539  10.728
53253SOL    HW161598   2.541  13.610  10.703
53253SOL    HW261599   2.560  13.501  10.806
53254SOL     OW61600   5.838   4.918  14.131
53254SOL    HW161601   5.905   4.903  14.198
53254SOL    HW261602   5.801   4.831  14.115
53255SOL     OW61603   9.441   4.116   8.618
53255SOL    HW161604   9.365   4.058   8.629
53255SOL    HW261605   9.515   4.063   8.647
53256SOL     OW61606   6.970  12.803   5.774
53256SOL    HW161607   6.898  12.813   5.837
53256SOL    HW261608   7.025  12.734   5.812
53257SOL     OW61609  11.225  14.200   0.138
53257SOL    HW161610  11.308  14.165   0.104
53257SOL    HW261611  11.202  14.141   0.210
53258SOL     OW61612   0.697   2.467  12.265
53258SOL    HW161613   0.639   2.461  12.188
53258SOL    HW261614   0.688   2.557  12.295
53259SOL     OW61615   7.510   5.881  14.510
53259SOL    HW161616   7.578   5.846  14.453
53259SOL    HW261617   7.481   5.807  14.563
53260SOL     OW61618  12.857   3.613   0.228
53260SOL    HW161619  12.916   3.552   0.185
53260SOL    HW261620  12.867   3.596   0.321
53261SOL     OW61621   2.432   8.642   6.312
53261SOL    HW161622   2.487   8.564   6.301
53261SOL    HW261623   2.418   8.648   6.406
53262SOL     OW61624  12.175   3.105   5.510
53262SOL    HW161625  12.219   3.022   5.490
53262SOL    HW261626  12.243   3.160   5.549
53263SOL     OW61627   9.979   6.535   3.585
53263SOL    HW161628   9.919   6.465   3.560
53263SOL    HW261629   9.965   6.604   3.521
53264SOL     OW61630  13.971  11.567   2.336
53264SOL    HW161631  13.998  11.603   2.251
53264SOL    HW261632  13.907  11.630   2.369
53265SOL     OW61633  10.065  13.833   9.198
53265SOL    HW161634   9.972  13.824   9.177
53265SOL    HW261635  10.106  13.856   9.114
53266SOL     OW61636   2.661   4.242   4.180
53266SOL    HW161637   2.671   4.260   4.274
53266SOL    HW261638   2.600   4.308   4.149
53267SOL     OW61639  12.791   9.846   8.986
53267SOL    HW161640  12.770   9.766   9.034
53267SOL    HW261641  12.716   9.904   9.001
53268SOL     OW61642   2.063  11.607   3.667
53268SOL    HW161643   2.093  11.601   3.576
53268SOL    HW261644   2.113  11.680   3.704
53269SOL     OW61645  12.132   9.235  13.724
53269SOL    HW161646  12.149   9.328  13.707
53269SOL    HW261647  12.218   9.198  13.741
53270SOL     OW61648  12.412   7.669  12.098
53270SOL    HW161649  12.363   7.600  12.053
53270SOL    HW261650  12.461   7.623  12.166
53271SOL     OW61651   9.451   5.022   2.973
53271SOL    HW161652   9.419   4.980   2.893
53271SOL    HW261653   9.510   5.091   2.941
53272SOL     OW61654   8.471   7.281   7.325
53272SOL    HW161655   8.508   7.230   7.253
53272SOL    HW261656   8.491   7.229   7.403
53273SOL     OW61657  13.964   0.946   4.089
53273SOL    HW161658  14.044   0.893   4.084
53273SOL    HW261659  13.896   0.889   4.054
53274SOL     OW61660   1.614   0.382  11.461
53274SOL    HW161661   1.702   0.346  11.464
53274SOL    HW261662   1.578   0.351  11.377
53275SOL     OW61663   7.954   2.249   1.646
53275SOL    HW161664   8.004   2.169   1.662
53275SOL    HW261665   7.909   2.267   1.729
53276SOL     OW61666   7.263  14.765  13.768
53276SOL    HW161667   7.195  14.769  13.835
53276SOL    HW261668   7.235  14.694  13.710
53277SOL     OW61669   7.319   4.101   2.188
53277SOL    HW161670   7.376   4.145   2.125
53277SOL    HW261671   7.353   4.011   2.191
53278SOL     OW61672   4.415   3.806   3.810
53278SOL    HW161673   4.336   3.842   3.850
53278SOL    HW261674   4.476   3.880   3.807
53279SOL     OW61675   8.992  11.530  10.530
53279SOL    HW161676   8.976  11.436  10.543
53279SOL    HW261677   9.086  11.536  10.515
53280SOL     OW61678   8.166  12.001  14.001
53280SOL    HW161679   8.074  12.016  14.024
53280SOL    HW261680   8.174  12.032  13.911
53281SOL     OW61681  11.620   9.691  13.814
53281SOL    HW161682  11.528   9.662  13.812
53281SOL    HW261683  11.623   9.758  13.882
53282SOL     OW61684  10.033   3.322  12.647
53282SOL    HW161685  10.111   3.356  12.603
53282SOL    HW261686   9.970   3.309  12.577
53283SOL     OW61687   3.147   0.557  12.157
53283SOL    HW161688   3.085   0.554  12.230
53283SOL    HW261689   3.168   0.650  12.147
53284SOL     OW61690   9.717   4.448  14.360
53284SOL    HW161691   9.793   4.495  14.326
53284SOL    HW261692   9.740   4.429  14.451
53285SOL     OW61693  11.846  12.417   2.968
53285SOL    HW161694  11.793  12.378   3.038
53285SOL    HW261695  11.936  12.397   2.992
53286SOL     OW61696  10.769   6.508   5.174
53286SOL    HW161697  10.769   6.415   5.151
53286SOL    HW261698  10.733   6.551   5.096
53287SOL     OW61699  11.791  12.044   2.479
53287SOL    HW161700  11.723  12.042   2.547
53287SOL    HW261701  11.824  12.134   2.480
53288SOL     OW61702   6.529   9.465   5.514
53288SOL    HW161703   6.488   9.447   5.429
53288SOL    HW261704   6.456   9.465   5.576
53289SOL     OW61705  12.134  10.867  10.489
53289SOL    HW161706  12.090  10.947  10.463
53289SOL    HW261707  12.065  10.802  10.495
53290SOL     OW61708   9.483   0.559  13.950
53290SOL    HW161709   9.542   0.599  13.886
53290SOL    HW261710   9.418   0.514  13.897
53291SOL     OW61711   5.231   9.287   8.946
53291SOL    HW161712   5.239   9.198   8.913
53291SOL    HW261713   5.287   9.339   8.889
53292SOL     OW61714   1.416   1.611   2.363
53292SOL    HW161715   1.504   1.599   2.327
53292SOL    HW261716   1.414   1.703   2.390
53293SOL     OW61717   5.846   3.609   8.677
53293SOL    HW161718   5.783   3.547   8.640
53293SOL    HW261719   5.805   3.640   8.758
53294SOL     OW61720   5.540   6.545   5.431
53294SOL    HW161721   5.449   6.525   5.452
53294SOL    HW261722   5.584   6.460   5.438
53295SOL     OW61723   2.917   1.763  12.836
53295SOL    HW161724   2.906   1.832  12.902
53295SOL    HW261725   2.829   1.729  12.822
53296SOL     OW61726   7.001   9.545   1.367
53296SOL    HW161727   7.021   9.491   1.444
53296SOL    HW261728   6.906   9.547   1.364
53297SOL     OW61729   9.686   4.524   8.057
53297SOL    HW161730   9.616   4.462   8.080
53297SOL    HW261731   9.694   4.516   7.961
53298SOL     OW61732   8.328   5.658   8.432
53298SOL    HW161733   8.421   5.681   8.432
53298SOL    HW261734   8.316   5.605   8.353
53299SOL     OW61735   7.365  14.311   3.072
53299SOL    HW161736   7.403  14.392   3.037
53299SOL    HW261737   7.375  14.319   3.167
53300SOL     OW61738   4.003   7.836  12.442
53300SOL    HW161739   3.987   7.778  12.367
53300SOL    HW261740   4.097   7.827  12.459
53301SOL     OW61741   8.949  10.404   1.164
53301SOL    HW161742   9.043  10.410   1.180
53301SOL    HW261743   8.932  10.310   1.154
53302SOL     OW61744   2.888   2.146   4.646
53302SOL    HW161745   2.834   2.132   4.723
53302SOL    HW261746   2.876   2.067   4.593
53303SOL     OW61747   3.867   6.606   2.750
53303SOL    HW161748   3.780   6.646   2.757
53303SOL    HW261749   3.859   6.544   2.678
53304SOL     OW61750   2.349  10.917   0.374
53304SOL    HW161751   2.390  10.833   0.357
53304SOL    HW261752   2.256  10.897   0.385
53305SOL     OW61753  10.312   7.115   6.711
53305SOL    HW161754  10.229   7.080   6.678
53305SOL    HW261755  10.302   7.117   6.806
53306SOL     OW61756   8.739  10.867   3.723
53306SOL    HW161757   8.710  10.777   3.736
53306SOL    HW261758   8.671  10.921   3.764
53307SOL     OW61759   7.427   8.379   2.553
53307SOL    HW161760   7.364   8.415   2.490
53307SOL    HW261761   7.390   8.400   2.638
53308SOL     OW61762  11.504  13.730  11.604
53308SOL    HW161763  11.459  13.740  11.688
53308SOL    HW261764  11.466  13.651  11.566
53309SOL     OW61765  13.530   0.381   2.771
53309SOL    HW161766  13.541   0.404   2.679
53309SOL    HW261767  13.612   0.407   2.812
53310SOL     OW61768   2.487   4.138  13.818
53310SOL    HW161769   2.479   4.148  13.723
53310SOL    HW261770   2.558   4.197  13.842
53311SOL     OW61771   4.902   6.243   3.419
53311SOL    HW161772   4.930   6.155   3.444
53311SOL    HW261773   4.962   6.301   3.465
53312SOL     OW61774   9.294   7.863  11.196
53312SOL    HW161775   9.337   7.781  11.223
53312SOL    HW261776   9.350   7.932  11.231
53313SOL     OW61777   6.237  13.214   7.080
53313SOL    HW161778   6.314  13.262   7.109
53313SOL    HW261779   6.256  13.123   7.101
53314SOL     OW61780   5.952  11.670   5.180
53314SOL    HW161781   5.980  11.627   5.261
53314SOL    HW261782   5.875  11.721   5.206
53315SOL     OW61783   0.790   4.284  12.164
53315SOL    HW161784   0.769   4.376  12.180
53315SOL    HW261785   0.710   4.237  12.187
53316SOL     OW61786   2.693   0.591   1.407
53316SOL    HW161787   2.772   0.621   1.451
53316SOL    HW261788   2.690   0.497   1.426
53317SOL     OW61789  13.659   3.947  14.787
53317SOL    HW161790  13.680   3.945   0.001
53317SOL    HW261791  13.744   3.952  14.743
53318SOL     OW61792  13.700   7.272   4.097
53318SOL    HW161793  13.766   7.283   4.166
53318SOL    HW261794  13.642   7.348   4.107
53319SOL     OW61795   1.174   1.864   7.511
53319SOL    HW161796   1.099   1.885   7.457
53319SOL    HW261797   1.249   1.865   7.451
53320SOL     OW61798   6.569  13.890   6.335
53320SOL    HW161799   6.557  13.827   6.407
53320SOL    HW261800   6.571  13.836   6.256
53321SOL     OW61801   9.227   3.971   8.688
53321SOL    HW161802   9.134   3.956   8.676
53321SOL    HW261803   9.243   3.949   8.780
53322SOL     OW61804   8.652  10.235  14.497
53322SOL    HW161805   8.570  10.208  14.455
53322SOL    HW261806   8.625  10.300  14.561
53323SOL     OW61807   5.749  11.042   6.360
53323SOL    HW161808   5.686  11.105   6.395
53323SOL    HW261809   5.814  11.095   6.315
53324SOL     OW61810   2.949  11.718  13.852
53324SOL    HW161811   3.026  11.773  13.838
53324SOL    HW261812   2.876  11.779  13.861
53325SOL     OW61813  12.723  11.360   4.035
53325SOL    HW161814  12.684  11.279   4.068
53325SOL    HW261815  12.683  11.429   4.087
53326SOL     OW61816  11.409  13.131  14.032
53326SOL    HW161817  11.437  13.162  13.946
53326SOL    HW261818  11.481  13.154  14.091
53327SOL     OW61819   0.506   2.087   4.692
53327SOL    HW161820   0.508   2.024   4.763
53327SOL    HW261821   0.473   2.038   4.617
53328SOL     OW61822  14.328   0.326   4.787
53328SOL    HW161823  14.272   0.260   4.827
53328SOL    HW261824  14.305   0.325   4.694
53329SOL     OW61825  14.063   3.661   2.080
53329SOL    HW161826  14.015   3.628   2.156
53329SOL    HW261827  14.134   3.599   2.068
53330SOL     OW61828   8.336   1.109   8.945
53330SOL    HW161829   8.373   1.051   8.878
53330SOL    HW261830   8.399   1.105   9.017
53331SOL     OW61831  13.564   4.334   5.802
53331SOL    HW161832  13.477   4.338   5.764
53331SOL    HW261833  13.609   4.411   5.768
53332SOL     OW61834  14.291  14.808   6.298
53332SOL    HW161835  14.286   0.011   6.347
53332SOL    HW261836  14.256  14.742   6.359
53333SOL     OW61837   6.251  14.730   0.767
53333SOL    HW161838   6.272  14.807   0.819
53333SOL    HW261839   6.186  14.682   0.818
53334SOL     OW61840   5.493  14.809   9.495
53334SOL    HW161841   5.559  14.853   9.441
53334SOL    HW261842   5.516  14.834   9.585
53335SOL     OW61843   8.122  10.700   9.089
53335SOL    HW161844   8.218  10.697   9.081
53335SOL    HW261845   8.097  10.608   9.103
53336SOL     OW61846   5.175   5.044   3.166
53336SOL    HW161847   5.092   5.082   3.195
53336SOL    HW261848   5.165   4.950   3.177
53337SOL     OW61849   9.486   9.246  11.688
53337SOL    HW161850   9.415   9.191  11.656
53337SOL    HW261851   9.469   9.332  11.650
53338SOL     OW61852   1.805  14.007   9.676
53338SOL    HW161853   1.725  14.054   9.700
53338SOL    HW261854   1.853  14.068   9.621
53339SOL     OW61855   9.614  11.630  12.686
53339SOL    HW161856   9.668  11.709  12.686
53339SOL    HW261857   9.648  11.578  12.613
53340SOL     OW61858   4.316   2.508  11.910
53340SOL    HW161859   4.309   2.509  11.815
53340SOL    HW261860   4.409   2.517  11.927
53341SOL     OW61861   0.275  10.979   2.790
53341SOL    HW161862   0.355  11.015   2.751
53341SOL    HW261863   0.271  11.018   2.877
53342SOL     OW61864   3.536   9.023   6.889
53342SOL    HW161865   3.500   9.062   6.810
53342SOL    HW261866   3.503   8.933   6.890
53343SOL     OW61867   0.314  14.678   6.469
53343SOL    HW161868   0.268  14.601   6.436
53343SOL    HW261869   0.309  14.670   6.564
53344SOL     OW61870   6.032  10.057  13.601
53344SOL    HW161871   6.125  10.076  13.614
53344SOL    HW261872   6.030   9.987  13.535
53345SOL     OW61873   3.494  13.003   3.110
53345SOL    HW161874   3.484  12.908   3.113
53345SOL    HW261875   3.550  13.019   3.035
53346SOL     OW61876  11.558   1.851  12.452
53346SOL    HW161877  11.577   1.852  12.546
53346SOL    HW261878  11.641   1.829  12.411
53347SOL     OW61879  14.433  12.030   2.625
53347SOL    HW161880  14.449  12.053   2.533
53347SOL    HW261881  14.346  11.990   2.624
53348SOL     OW61882   6.112   8.347   9.468
53348SOL    HW161883   6.129   8.348   9.374
53348SOL    HW261884   6.137   8.259   9.496
53349SOL     OW61885   5.046   4.094  10.767
53349SOL    HW161886   4.983   4.030  10.800
53349SOL    HW261887   5.003   4.179  10.779
53350SOL     OW61888   1.590   3.552   5.448
53350SOL    HW161889   1.679   3.572   5.477
53350SOL    HW261890   1.555   3.495   5.516
53351SOL     OW61891   6.915  14.855   0.324
53351SOL    HW161892   6.967   0.049   0.290
53351SOL    HW261893   6.875  14.816   0.246
53352SOL     OW61894  13.360   3.636  10.860
53352SOL    HW161895  13.292   3.569  10.869
53352SOL    HW261896  13.328   3.710  10.912
53353SOL     OW61897   0.888   4.970   6.993
53353SOL    HW161898   0.837   4.895   6.964
53353SOL    HW261899   0.827   5.023   7.044
53354SOL     OW61900   7.265   7.124   0.664
53354SOL    HW161901   7.236   7.215   0.671
53354SOL    HW261902   7.185   7.072   0.665
53355SOL     OW61903   6.404  12.205   7.274
53355SOL    HW161904   6.387  12.220   7.180
53355SOL    HW261905   6.351  12.128   7.296
53356SOL     OW61906   2.121  13.568   3.067
53356SOL    HW161907   2.120  13.617   3.149
53356SOL    HW261908   2.214  13.557   3.048
53357SOL     OW61909   8.059   1.721  13.740
53357SOL    HW161910   8.106   1.639  13.756
53357SOL    HW261911   8.104   1.785  13.795
53358SOL     OW61912   4.002   4.990   7.190
53358SOL    HW161913   3.954   4.929   7.245
53358SOL    HW261914   4.094   4.975   7.212
53359SOL     OW61915   3.799  14.644   7.750
53359SOL    HW161916   3.711  14.673   7.774
53359SOL    HW261917   3.788  14.601   7.665
53360SOL     OW61918  13.477   2.084   8.937
53360SOL    HW161919  13.510   2.158   8.987
53360SOL    HW261920  13.383   2.083   8.954
53361SOL     OW61921  13.143   4.965  14.472
53361SOL    HW161922  13.164   4.950  14.564
53361SOL    HW261923  13.163   5.058  14.458
53362SOL     OW61924   9.660   5.403  13.470
53362SOL    HW161925   9.669   5.439  13.558
53362SOL    HW261926   9.566   5.395  13.456
53363SOL     OW61927  12.294   3.871   4.485
53363SOL    HW161928  12.353   3.797   4.474
53363SOL    HW261929  12.331   3.940   4.429
53364SOL     OW61930   9.032   8.905  11.268
53364SOL    HW161931   9.051   8.816  11.240
53364SOL    HW261932   8.936   8.911  11.266
53365SOL     OW61933  12.752  12.628   7.285
53365SOL    HW161934  12.734  12.605   7.377
53365SOL    HW261935  12.847  12.619   7.277
53366SOL     OW61936   2.592  14.660  10.518
53366SOL    HW161937   2.597  14.756  10.515
53366SOL    HW261938   2.623  14.637  10.606
53367SOL     OW61939   5.392   1.804   0.342
53367SOL    HW161940   5.477   1.812   0.385
53367SOL    HW261941   5.412   1.815   0.249
53368SOL     OW61942   8.724   3.689   9.999
53368SOL    HW161943   8.688   3.776  10.011
53368SOL    HW261944   8.788   3.679  10.069
53369SOL     OW61945  14.549  12.452   6.384
53369SOL    HW161946  14.476  12.509   6.360
53369SOL    HW261947  14.583  12.490   6.465
53370SOL     OW61948   4.808   6.576  13.767
53370SOL    HW161949   4.834   6.611  13.852
53370SOL    HW261950   4.749   6.504  13.788
53371SOL     OW61951  13.712  10.650   3.526
53371SOL    HW161952  13.682  10.574   3.575
53371SOL    HW261953  13.807  10.637   3.517
53372SOL     OW61954   9.401  12.009  13.635
53372SOL    HW161955   9.423  12.048  13.719
53372SOL    HW261956   9.307  12.024  13.625
53373SOL     OW61957   2.158   1.608   4.554
53373SOL    HW161958   2.246   1.620   4.521
53373SOL    HW261959   2.133   1.694   4.588
53374SOL     OW61960   4.562   2.545   0.477
53374SOL    HW161961   4.560   2.450   0.490
53374SOL    HW261962   4.476   2.575   0.508
53375SOL     OW61963   9.919   4.552   3.750
53375SOL    HW161964   9.959   4.622   3.802
53375SOL    HW261965   9.833   4.538   3.790
53376SOL     OW61966  12.632   3.197   5.574
53376SOL    HW161967  12.644   3.155   5.489
53376SOL    HW261968  12.721   3.215   5.605
53377SOL     OW61969   2.602   8.869  13.381
53377SOL    HW161970   2.634   8.819  13.455
53377SOL    HW261971   2.508   8.877  13.396
53378SOL     OW61972   8.924   0.741  10.816
53378SOL    HW161973   8.981   0.767  10.743
53378SOL    HW261974   8.840   0.784  10.797
53379SOL     OW61975  10.499   4.024   8.811
53379SOL    HW161976  10.567   4.028   8.878
53379SOL    HW261977  10.434   4.088   8.838
53380SOL     OW61978   1.861  11.848  14.690
53380SOL    HW161979   1.868  11.752  14.685
53380SOL    HW261980   1.872  11.868  14.783
53381SOL     OW61981   3.732   2.544  12.758
53381SOL    HW161982   3.792   2.616  12.779
53381SOL    HW261983   3.666   2.546  12.827
53382SOL     OW61984  11.771  13.673  11.683
53382SOL    HW161985  11.686  13.704  11.652
53382SOL    HW261986  11.816  13.643  11.604
53383SOL     OW61987   7.968  14.248   3.952
53383SOL    HW161988   7.949  14.164   3.995
53383SOL    HW261989   7.993  14.307   4.024
53384SOL     OW61990   3.790   5.539   6.641
53384SOL    HW161991   3.735   5.543   6.563
53384SOL    HW261992   3.749   5.601   6.702
53385SOL     OW61993  10.587   2.555   5.332
53385SOL    HW161994  10.551   2.471   5.361
53385SOL    HW261995  10.681   2.541   5.328
53386SOL     OW61996   2.345  12.014   0.128
53386SOL    HW161997   2.389  11.990   0.046
53386SOL    HW261998   2.405  12.075   0.170
53387SOL     OW61999  12.511  13.782   8.193
53387SOL    HW162000  12.589  13.757   8.242
53387SOL    HW262001  12.526  13.747   8.105
53388SOL     OW62002   6.216   0.435  11.785
53388SOL    HW162003   6.178   0.522  11.774
53388SOL    HW262004   6.300   0.440  11.739
53389SOL     OW62005   1.891  10.628  12.506
53389SOL    HW162006   1.903  10.638  12.600
53389SOL    HW262007   1.797  10.609  12.496
53390SOL     OW62008   3.282  14.250   4.247
53390SOL    HW162009   3.373  14.244   4.217
53390SOL    HW262010   3.233  14.277   4.169
53391SOL     OW62011   1.237   9.575   8.636
53391SOL    HW162012   1.333   9.577   8.641
53391SOL    HW262013   1.218   9.505   8.574
53392SOL     OW62014  10.298   3.715   0.630
53392SOL    HW162015  10.361   3.761   0.574
53392SOL    HW262016  10.227   3.689   0.571
53393SOL     OW62017  12.770   0.515  11.135
53393SOL    HW162018  12.793   0.565  11.057
53393SOL    HW262019  12.729   0.435  11.102
53394SOL     OW62020  14.212   6.938   9.102
53394SOL    HW162021  14.297   6.948   9.144
53394SOL    HW262022  14.182   7.027   9.085
53395SOL     OW62023   6.913   9.919   7.454
53395SOL    HW162024   7.006   9.900   7.463
53395SOL    HW262025   6.896   9.987   7.519
53396SOL     OW62026   7.767   2.266  13.428
53396SOL    HW162027   7.766   2.320  13.507
53396SOL    HW262028   7.714   2.313  13.365
53397SOL     OW62029   1.694   0.481   1.549
53397SOL    HW162030   1.626   0.472   1.482
53397SOL    HW262031   1.672   0.415   1.614
53398SOL     OW62032   7.815   7.765  13.821
53398SOL    HW162033   7.856   7.728  13.743
53398SOL    HW262034   7.833   7.700  13.890
53399SOL     OW62035  13.088  12.694   0.390
53399SOL    HW162036  13.083  12.677   0.484
53399SOL    HW262037  13.096  12.608   0.350
53400SOL     OW62038   1.319   6.541  13.403
53400SOL    HW162039   1.296   6.459  13.447
53400SOL    HW262040   1.295   6.527  13.311
53401SOL     OW62041   0.584   6.507   0.427
53401SOL    HW162042   0.633   6.496   0.345
53401SOL    HW262043   0.545   6.594   0.420
53402SOL     OW62044   9.581  13.969  13.397
53402SOL    HW162045   9.518  14.019  13.448
53402SOL    HW262046   9.529  13.926  13.329
53403SOL     OW62047   4.136   6.588   4.741
53403SOL    HW162048   4.186   6.511   4.768
53403SOL    HW262049   4.045   6.565   4.757
53404SOL     OW62050  10.989  12.947   6.457
53404SOL    HW162051  10.971  12.887   6.385
53404SOL    HW262052  10.924  12.926   6.523
53405SOL     OW62053   7.353   1.937   5.685
53405SOL    HW162054   7.370   2.000   5.615
53405SOL    HW262055   7.414   1.961   5.755
53406SOL     OW62056   4.998  11.666   9.972
53406SOL    HW162057   5.031  11.576   9.968
53406SOL    HW262058   4.930  11.670   9.906
53407SOL     OW62059   5.641  10.904   4.622
53407SOL    HW162060   5.591  10.947   4.692
53407SOL    HW262061   5.609  10.814   4.622
53408SOL     OW62062  12.968  14.613   0.825
53408SOL    HW162063  12.883  14.589   0.862
53408SOL    HW262064  12.995  14.690   0.875
53409SOL     OW62065  12.569   0.406   9.782
53409SOL    HW162066  12.537   0.421   9.693
53409SOL    HW262067  12.629   0.480   9.799
53410SOL     OW62068   0.039   8.876   5.132
53410SOL    HW162069   0.026   8.782   5.126
53410SOL    HW262070   0.103   8.896   5.063
53411SOL     OW62071  13.405   5.444  11.989
53411SOL    HW162072  13.432   5.421  11.900
53411SOL    HW262073  13.330   5.502  11.977
53412SOL     OW62074  12.920   4.421   0.476
53412SOL    HW162075  12.917   4.348   0.537
53412SOL    HW262076  12.895   4.385   0.392
53413SOL     OW62077  12.838  11.267  11.076
53413SOL    HW162078  12.811  11.298  10.990
53413SOL    HW262079  12.799  11.180  11.084
53414SOL     OW62080   4.418  10.269   6.259
53414SOL    HW162081   4.327  10.286   6.236
53414SOL    HW262082   4.435  10.181   6.227
53415SOL     OW62083   3.810   0.364   1.812
53415SOL    HW162084   3.765   0.295   1.763
53415SOL    HW262085   3.903   0.340   1.808
53416SOL     OW62086   7.223  11.451  12.907
53416SOL    HW162087   7.248  11.450  12.815
53416SOL    HW262088   7.271  11.378  12.946
53417SOL     OW62089  12.490  10.097  13.988
53417SOL    HW162090  12.498  10.003  14.004
53417SOL    HW262091  12.576  10.122  13.952
53418SOL     OW62092  10.591  13.944   2.786
53418SOL    HW162093  10.630  14.022   2.825
53418SOL    HW262094  10.506  13.974   2.752
53419SOL     OW62095  14.292   6.053  11.261
53419SOL    HW162096  14.274   6.117  11.331
53419SOL    HW262097  14.377   6.079  11.226
53420SOL     OW62098   8.022  10.366   2.703
53420SOL    HW162099   8.011  10.404   2.790
53420SOL    HW262100   7.969  10.421   2.646
53421SOL     OW62101   4.797  10.667   7.139
53421SOL    HW162102   4.820  10.619   7.059
53421SOL    HW262103   4.875  10.659   7.195
53422SOL     OW62104  10.278   8.981  14.598
53422SOL    HW162105  10.233   9.011  14.677
53422SOL    HW262106  10.370   8.996  14.616
53423SOL     OW62107   2.045   0.227   8.724
53423SOL    HW162108   2.022   0.306   8.772
53423SOL    HW262109   2.128   0.248   8.681
53424SOL     OW62110   3.729   4.986  14.614
53424SOL    HW162111   3.809   4.934  14.625
53424SOL    HW262112   3.715   4.989  14.520
53425SOL     OW62113   3.313   5.285   7.987
53425SOL    HW162114   3.301   5.317   7.897
53425SOL    HW262115   3.251   5.337   8.039
53426SOL     OW62116  11.620  13.771   3.554
53426SOL    HW162117  11.665  13.688   3.567
53426SOL    HW262118  11.550  13.752   3.492
53427SOL     OW62119   3.956   8.139  10.954
53427SOL    HW162120   4.043   8.102  10.971
53427SOL    HW262121   3.910   8.132  11.037
53428SOL     OW62122  11.392   7.218  14.532
53428SOL    HW162123  11.478   7.251  14.556
53428SOL    HW262124  11.372   7.153  14.599
53429SOL     OW62125   9.073   7.177   8.431
53429SOL    HW162126   8.978   7.169   8.423
53429SOL    HW262127   9.106   7.091   8.410
53430SOL     OW62128   2.641  13.850  14.449
53430SOL    HW162129   2.669  13.860  14.358
53430SOL    HW262130   2.603  13.935  14.471
53431SOL     OW62131   4.028   1.395   6.198
53431SOL    HW162132   4.123   1.392   6.213
53431SOL    HW262133   3.991   1.348   6.273
53432SOL     OW62134   6.463   4.403   9.996
53432SOL    HW162135   6.376   4.394  10.034
53432SOL    HW262136   6.496   4.487  10.029
53433SOL     OW62137  11.671  10.893  13.005
53433SOL    HW162138  11.693  10.804  13.032
53433SOL    HW262139  11.741  10.918  12.945
53434SOL     OW62140  14.370   0.174   3.382
53434SOL    HW162141  14.387   0.084   3.408
53434SOL    HW262142  14.388   0.176   3.288
53435SOL     OW62143   2.579   6.185  12.038
53435SOL    HW162144   2.642   6.202  11.968
53435SOL    HW262145   2.543   6.098  12.016
53436SOL     OW62146  10.696   8.276   3.793
53436SOL    HW162147  10.650   8.359   3.782
53436SOL    HW262148  10.628   8.209   3.784
53437SOL     OW62149  11.377   4.151  12.003
53437SOL    HW162150  11.446   4.109  12.054
53437SOL    HW262151  11.361   4.234  12.047
53438SOL     OW62152   2.315   0.753  14.730
53438SOL    HW162153   2.329   0.741  14.823
53438SOL    HW262154   2.279   0.842  14.723
53439SOL     OW62155   1.106  10.744   5.051
53439SOL    HW162156   1.139  10.789   5.129
53439SOL    HW262157   1.180  10.692   5.020
53440SOL     OW62158  13.936   0.090   9.488
53440SOL    HW162159  13.965   0.037   9.414
53440SOL    HW262160  14.004   0.078   9.555
53441SOL     OW62161   2.861   8.633   8.063
53441SOL    HW162162   2.866   8.719   8.022
53441SOL    HW262163   2.925   8.638   8.135
53442SOL     OW62164   5.017   5.780  10.027
53442SOL    HW162165   5.055   5.696  10.056
53442SOL    HW262166   4.950   5.799  10.092
53443SOL     OW62167   9.794  12.867  11.286
53443SOL    HW162168   9.818  12.955  11.257
53443SOL    HW262169   9.835  12.809  11.222
53444SOL     OW62170  13.140  13.333   4.493
53444SOL    HW162171  13.188  13.296   4.419
53444SOL    HW262172  13.053  13.354   4.457
53445SOL     OW62173  14.715  12.542   8.028
53445SOL    HW162174  14.795  12.504   7.992
53445SOL    HW262175  14.705  12.625   7.981
53446SOL     OW62176   0.452   8.204   3.466
53446SOL    HW162177   0.459   8.154   3.385
53446SOL    HW262178   0.404   8.148   3.526
53447SOL     OW62179   4.817   4.090   6.361
53447SOL    HW162180   4.894   4.081   6.417
53447SOL    HW262181   4.767   4.162   6.400
53448SOL     OW62182  12.751   9.902   6.191
53448SOL    HW162183  12.731   9.961   6.118
53448SOL    HW262184  12.839   9.929   6.219
53449SOL     OW62185   2.313   8.971   6.790
53449SOL    HW162186   2.285   9.055   6.826
53449SOL    HW262187   2.263   8.906   6.839
53450SOL     OW62188   6.015   3.471   7.981
53450SOL    HW162189   5.993   3.432   7.897
53450SOL    HW262190   5.981   3.561   7.975
53451SOL     OW62191  14.793   2.647  12.322
53451SOL    HW162192   0.009   2.641  12.321
53451SOL    HW262193  14.775   2.738  12.299
53452SOL     OW62194   3.353  10.163  11.247
53452SOL    HW162195   3.390  10.127  11.327
53452SOL    HW262196   3.418  10.146  11.179
53453SOL     OW62197   8.901   9.440   5.505
53453SOL    HW162198   8.913   9.463   5.413
53453SOL    HW262199   8.846   9.362   5.504
53454SOL     OW62200   5.401  14.557   0.553
53454SOL    HW162201   5.437  14.633   0.507
53454SOL    HW262202   5.322  14.535   0.503
53455SOL     OW62203   7.912  14.165   7.475
53455SOL    HW162204   7.874  14.199   7.556
53455SOL    HW262205   7.836  14.143   7.421
53456SOL     OW62206   1.545  13.508   7.828
53456SOL    HW162207   1.610  13.568   7.866
53456SOL    HW262208   1.582  13.484   7.743
53457SOL     OW62209  10.824   2.396   2.807
53457SOL    HW162210  10.906   2.379   2.760
53457SOL    HW262211  10.843   2.473   2.861
53458SOL     OW62212   6.822   8.505   3.314
53458SOL    HW162213   6.838   8.460   3.231
53458SOL    HW262214   6.840   8.597   3.296
53459SOL     OW62215  11.172   7.010   1.415
53459SOL    HW162216  11.257   6.969   1.435
53459SOL    HW262217  11.117   6.988   1.490
53460SOL     OW62218  10.882  14.140   3.643
53460SOL    HW162219  10.932  14.063   3.669
53460SOL    HW262220  10.818  14.107   3.579
53461SOL     OW62221  11.166   8.784   3.284
53461SOL    HW162222  11.126   8.826   3.361
53461SOL    HW262223  11.165   8.853   3.217
53462SOL     OW62224   8.057  10.137   3.462
53462SOL    HW162225   8.026  10.175   3.544
53462SOL    HW262226   8.032  10.045   3.468
53463SOL     OW62227   0.831  10.525   7.226
53463SOL    HW162228   0.776  10.463   7.274
53463SOL    HW262229   0.796  10.522   7.136
53464SOL     OW62230   4.537   6.595  12.123
53464SOL    HW162231   4.484   6.626  12.049
53464SOL    HW262232   4.627   6.597  12.090
53465SOL     OW62233   7.501   0.595  12.599
53465SOL    HW162234   7.587   0.602  12.557
53465SOL    HW262235   7.449   0.545  12.537
53466SOL     OW62236   1.365   9.967   8.488
53466SOL    HW162237   1.363  10.062   8.495
53466SOL    HW262238   1.455   9.942   8.511
53467SOL     OW62239   7.377   2.719  13.338
53467SOL    HW162240   7.467   2.745  13.316
53467SOL    HW262241   7.373   2.726  13.434
53468SOL     OW62242  11.338   9.735   6.608
53468SOL    HW162243  11.321   9.669   6.540
53468SOL    HW262244  11.279   9.807   6.586
53469SOL     OW62245  13.242  12.029   8.770
53469SOL    HW162246  13.276  11.956   8.719
53469SOL    HW262247  13.147  12.027   8.756
53470SOL     OW62248   2.294   0.429  10.398
53470SOL    HW162249   2.300   0.399  10.489
53470SOL    HW262250   2.212   0.479  10.395
53471SOL     OW62251   5.952   2.652   7.351
53471SOL    HW162252   5.884   2.719   7.357
53471SOL    HW262253   5.943   2.617   7.262
53472SOL     OW62254   0.137  14.327   6.074
53472SOL    HW162255   0.063  14.275   6.106
53472SOL    HW262256   0.151  14.392   6.143
53473SOL     OW62257  11.017  11.587  11.703
53473SOL    HW162258  11.042  11.612  11.792
53473SOL    HW262259  11.062  11.651  11.647
53474SOL     OW62260  10.063   0.559   2.364
53474SOL    HW162261  10.099   0.608   2.438
53474SOL    HW262262  10.025   0.626   2.307
53475SOL     OW62263   7.909   0.147   8.261
53475SOL    HW162264   7.954   0.219   8.305
53475SOL    HW262265   7.833   0.188   8.220
53476SOL     OW62266   7.283   9.412   9.100
53476SOL    HW162267   7.206   9.459   9.066
53476SOL    HW262268   7.312   9.466   9.174
53477SOL     OW62269   2.399   8.516   4.734
53477SOL    HW162270   2.464   8.575   4.773
53477SOL    HW262271   2.374   8.457   4.806
53478SOL     OW62272   8.224   4.147   6.821
53478SOL    HW162273   8.282   4.137   6.745
53478SOL    HW262274   8.196   4.058   6.842
53479SOL     OW62275  14.353   9.915  13.489
53479SOL    HW162276  14.430   9.947  13.443
53479SOL    HW262277  14.351   9.965  13.570
53480SOL     OW62278   2.860   3.131   4.269
53480SOL    HW162279   2.936   3.154   4.217
53480SOL    HW262280   2.799   3.205   4.257
53481SOL     OW62281   0.152  14.559   5.396
53481SOL    HW162282   0.209  14.632   5.422
53481SOL    HW262283   0.084  14.558   5.463
53482SOL     OW62284   5.624  14.713  11.034
53482SOL    HW162285   5.670  14.776  10.978
53482SOL    HW262286   5.692  14.650  11.059
53483SOL     OW62287   9.592  12.912   2.921
53483SOL    HW162288   9.659  12.940   2.982
53483SOL    HW262289   9.566  12.825   2.952
53484SOL     OW62290  10.470   9.850   1.514
53484SOL    HW162291  10.512   9.844   1.429
53484SOL    HW262292  10.377   9.854   1.495
53485SOL     OW62293   5.875   9.847  14.860
53485SOL    HW162294   5.943   9.910   0.003
53485SOL    HW262295   5.847   9.872  14.772
53486SOL     OW62296   5.317   6.089   9.742
53486SOL    HW162297   5.280   6.126   9.822
53486SOL    HW262298   5.365   6.011   9.771
53487SOL     OW62299   5.149   3.660   3.407
53487SOL    HW162300   5.055   3.667   3.391
53487SOL    HW262301   5.190   3.694   3.328
53488SOL     OW62302  10.013  10.588  10.805
53488SOL    HW162303   9.962  10.665  10.828
53488SOL    HW262304   9.950  10.529  10.764
53489SOL     OW62305   4.836  13.097   3.904
53489SOL    HW162306   4.872  13.174   3.950
53489SOL    HW262307   4.770  13.062   3.964
53490SOL     OW62308  11.118   4.165   9.056
53490SOL    HW162309  11.050   4.159   8.989
53490SOL    HW262310  11.080   4.221   9.124
53491SOL     OW62311   2.665   7.582  12.625
53491SOL    HW162312   2.662   7.672  12.656
53491SOL    HW262313   2.758   7.560  12.623
53492SOL     OW62314  13.845   4.789   7.334
53492SOL    HW162315  13.783   4.849   7.292
53492SOL    HW262316  13.852   4.820   7.424
53493SOL     OW62317   9.644  14.840   9.426
53493SOL    HW162318   9.629  14.825   9.519
53493SOL    HW262319   9.637  14.754   9.386
53494SOL     OW62320   8.398   6.621   9.939
53494SOL    HW162321   8.401   6.545   9.881
53494SOL    HW262322   8.414   6.586  10.026
53495SOL     OW62323  12.536   7.136   2.809
53495SOL    HW162324  12.621   7.178   2.799
53495SOL    HW262325  12.478   7.206   2.841
53496SOL     OW62326  12.926  10.657  10.000
53496SOL    HW162327  12.877  10.646  10.082
53496SOL    HW262328  12.893  10.739   9.963
53497SOL     OW62329   7.394   1.435   4.939
53497SOL    HW162330   7.462   1.368   4.931
53497SOL    HW262331   7.314   1.391   4.912
53498SOL     OW62332   1.500   7.759   0.505
53498SOL    HW162333   1.561   7.757   0.432
53498SOL    HW262334   1.414   7.764   0.464
53499SOL     OW62335  10.903   3.272   7.792
53499SOL    HW162336  10.883   3.365   7.804
53499SOL    HW262337  10.855   3.248   7.713
53500SOL     OW62338  13.746  10.501  10.610
53500SOL    HW162339  13.674  10.556  10.581
53500SOL    HW262340  13.812  10.509  10.541
53501SOL     OW62341   4.212  14.224   7.404
53501SOL    HW162342   4.289  14.180   7.369
53501SOL    HW262343   4.162  14.154   7.447
53502SOL     OW62344  14.058   2.697   6.543
53502SOL    HW162345  14.132   2.642   6.520
53502SOL    HW262346  13.991   2.674   6.478
53503SOL     OW62347  10.500   8.533   9.639
53503SOL    HW162348  10.525   8.441   9.636
53503SOL    HW262349  10.466   8.552   9.552
53504SOL     OW62350  13.439  11.778  12.709
53504SOL    HW162351  13.520  11.826  12.729
53504SOL    HW262352  13.433  11.781  12.614
53505SOL     OW62353   0.850   4.032   7.113
53505SOL    HW162354   0.937   4.023   7.153
53505SOL    HW262355   0.868   4.051   7.021
53506SOL     OW62356   2.208  14.784  10.888
53506SOL    HW162357   2.176  14.869  10.918
53506SOL    HW262358   2.142  14.753  10.826
53507SOL     OW62359   5.567   2.503   2.237
53507SOL    HW162360   5.564   2.407   2.235
53507SOL    HW262361   5.646   2.523   2.287
53508SOL     OW62362  12.510   6.330   1.884
53508SOL    HW162363  12.496   6.242   1.847
53508SOL    HW262364  12.479   6.323   1.974
53509SOL     OW62365  14.660   8.241   2.130
53509SOL    HW162366  14.589   8.177   2.131
53509SOL    HW262367  14.736   8.192   2.098
53510SOL     OW62368   0.865   8.607  13.688
53510SOL    HW162369   0.795   8.541  13.685
53510SOL    HW262370   0.916   8.591  13.608
53511SOL     OW62371   3.399   4.785   3.885
53511SOL    HW162372   3.394   4.880   3.896
53511SOL    HW262373   3.412   4.773   3.790
53512SOL     OW62374   3.294   6.744  14.607
53512SOL    HW162375   3.373   6.691  14.596
53512SOL    HW262376   3.222   6.681  14.612
53513SOL     OW62377   4.724   1.430   1.904
53513SOL    HW162378   4.806   1.441   1.856
53513SOL    HW262379   4.656   1.462   1.845
53514SOL     OW62380   5.732   7.170   4.144
53514SOL    HW162381   5.766   7.123   4.068
53514SOL    HW262382   5.807   7.217   4.179
53515SOL     OW62383   9.644   2.514   3.881
53515SOL    HW162384   9.578   2.479   3.941
53515SOL    HW262385   9.728   2.482   3.915
53516SOL     OW62386   7.898  10.063  10.819
53516SOL    HW162387   7.821  10.026  10.862
53516SOL    HW262388   7.964  10.067  10.888
53517SOL     OW62389  14.121   5.321  12.045
53517SOL    HW162390  14.150   5.230  12.040
53517SOL    HW262391  14.199   5.370  12.073
53518SOL     OW62392   9.655   5.110   9.374
53518SOL    HW162393   9.682   5.177   9.437
53518SOL    HW262394   9.643   5.031   9.427
53519SOL     OW62395   3.142  14.594   9.547
53519SOL    HW162396   3.201  14.547   9.606
53519SOL    HW262397   3.150  14.686   9.573
53520SOL     OW62398   8.724   6.305  11.262
53520SOL    HW162399   8.767   6.357  11.330
53520SOL    HW262400   8.747   6.349  11.180
53521SOL     OW62401   8.973  11.792   3.230
53521SOL    HW162402   8.920  11.795   3.151
53521SOL    HW262403   8.910  11.797   3.302
53522SOL     OW62404   4.540   4.871   7.271
53522SOL    HW162405   4.502   4.957   7.287
53522SOL    HW262406   4.544   4.863   7.176
53523SOL     OW62407   5.535  11.010   1.695
53523SOL    HW162408   5.498  11.047   1.615
53523SOL    HW262409   5.605  11.072   1.719
53524SOL     OW62410   6.371  14.022  13.858
53524SOL    HW162411   6.331  13.958  13.798
53524SOL    HW262412   6.358  13.985  13.945
53525SOL     OW62413   8.403  14.828  10.584
53525SOL    HW162414   8.403  14.733  10.576
53525SOL    HW262415   8.495  14.851  10.597
53526SOL     OW62416   4.729   7.407  11.697
53526SOL    HW162417   4.708   7.476  11.761
53526SOL    HW262418   4.688   7.328  11.733
53527SOL     OW62419  14.618  14.654   8.830
53527SOL    HW162420  14.698  14.686   8.789
53527SOL    HW262421  14.548  14.702   8.786
53528SOL     OW62422   2.996   2.206   9.068
53528SOL    HW162423   3.026   2.278   9.123
53528SOL    HW262424   2.973   2.136   9.129
53529SOL     OW62425  14.259   9.162   2.116
53529SOL    HW162426  14.195   9.230   2.139
53529SOL    HW262427  14.236   9.087   2.172
53530SOL     OW62428   8.755   2.822   1.442
53530SOL    HW162429   8.828   2.880   1.421
53530SOL    HW262430   8.706   2.813   1.360
53531SOL     OW62431   0.306  13.255   9.731
53531SOL    HW162432   0.302  13.167   9.769
53531SOL    HW262433   0.215  13.275   9.710
53532SOL     OW62434  11.818   8.867   9.978
53532SOL    HW162435  11.819   8.899   9.888
53532SOL    HW262436  11.737   8.817   9.985
53533SOL     OW62437   9.135   5.815  14.140
53533SOL    HW162438   9.109   5.724  14.125
53533SOL    HW262439   9.070   5.867  14.092
53534SOL     OW62440  14.822  11.916  11.771
53534SOL    HW162441   0.008  11.848  11.751
53534SOL    HW262442  14.870  11.982  11.821
53535SOL     OW62443   1.350  10.076   7.846
53535SOL    HW162444   1.398  10.158   7.838
53535SOL    HW262445   1.362  10.050   7.937
53536SOL     OW62446  11.131   1.227  11.890
53536SOL    HW162447  11.108   1.304  11.942
53536SOL    HW262448  11.125   1.257  11.799
53537SOL     OW62449   1.973  10.758   4.944
53537SOL    HW162450   1.892  10.754   4.894
53537SOL    HW262451   2.008  10.845   4.926
53538SOL     OW62452   2.370  10.381  13.010
53538SOL    HW162453   2.458  10.378  13.049
53538SOL    HW262454   2.359  10.472  12.984
53539SOL     OW62455  13.730  12.225   5.718
53539SOL    HW162456  13.756  12.246   5.807
53539SOL    HW262457  13.681  12.302   5.689
53540SOL     OW62458   0.138   3.536   4.796
53540SOL    HW162459   0.120   3.473   4.866
53540SOL    HW262460   0.128   3.621   4.838
53541SOL     OW62461   7.269  12.466   2.825
53541SOL    HW162462   7.326  12.434   2.754
53541SOL    HW262463   7.235  12.386   2.866
53542SOL     OW62464   4.463  14.302   6.050
53542SOL    HW162465   4.444  14.348   6.131
53542SOL    HW262466   4.518  14.228   6.077
53543SOL     OW62467  14.251  14.585  14.739
53543SOL    HW162468  14.326  14.593  14.798
53543SOL    HW262469  14.251  14.493  14.712
53544SOL     OW62470  11.326  10.740   1.397
53544SOL    HW162471  11.390  10.808   1.377
53544SOL    HW262472  11.322  10.738   1.493
53545SOL     OW62473   6.941   6.918   1.973
53545SOL    HW162474   6.900   6.846   2.021
53545SOL    HW262475   6.871   6.983   1.962
53546SOL     OW62476   7.725   1.855  11.866
53546SOL    HW162477   7.724   1.768  11.905
53546SOL    HW262478   7.739   1.915  11.939
53547SOL     OW62479   3.805   6.666   6.728
53547SOL    HW162480   3.716   6.701   6.727
53547SOL    HW262481   3.814   6.624   6.643
53548SOL     OW62482  14.595   0.774   7.771
53548SOL    HW162483  14.646   0.778   7.851
53548SOL    HW262484  14.647   0.820   7.706
53549SOL     OW62485   4.248  13.785   1.147
53549SOL    HW162486   4.227  13.783   1.054
53549SOL    HW262487   4.249  13.693   1.174
53550SOL     OW62488   1.680   1.738   8.705
53550SOL    HW162489   1.630   1.796   8.762
53550SOL    HW262490   1.678   1.653   8.748
53551SOL     OW62491   9.430   3.250   1.730
53551SOL    HW162492   9.455   3.175   1.676
53551SOL    HW262493   9.462   3.326   1.682
53552SOL     OW62494   3.290  10.321   5.059
53552SOL    HW162495   3.321  10.321   5.149
53552SOL    HW262496   3.330  10.398   5.020
53553SOL     OW62497  11.180   4.351  10.532
53553SOL    HW162498  11.233   4.334  10.454
53553SOL    HW262499  11.214   4.433  10.567
53554SOL     OW62500   7.676   7.990   4.207
53554SOL    HW162501   7.769   8.002   4.190
53554SOL    HW262502   7.662   8.030   4.293
53555SOL     OW62503   6.234  10.586  13.907
53555SOL    HW162504   6.158  10.533  13.883
53555SOL    HW262505   6.305  10.522  13.920
53556SOL     OW62506   2.683   9.829   2.055
53556SOL    HW162507   2.752   9.849   2.119
53556SOL    HW262508   2.720   9.857   1.971
53557SOL     OW62509  14.536  14.625   1.946
53557SOL    HW162510  14.480  14.633   2.024
53557SOL    HW262511  14.567  14.713   1.929
53558SOL     OW62512   2.845   6.637   5.554
53558SOL    HW162513   2.811   6.577   5.619
53558SOL    HW262514   2.919   6.680   5.597
53559SOL     OW62515   4.399   3.391  12.044
53559SOL    HW162516   4.408   3.487  12.043
53559SOL    HW262517   4.306   3.377  12.060
53560SOL     OW62518  12.978   1.024   9.842
53560SOL    HW162519  13.055   1.019   9.786
53560SOL    HW262520  12.927   0.946   9.820
53561SOL     OW62521   7.691   1.773   8.739
53561SOL    HW162522   7.778   1.802   8.712
53561SOL    HW262523   7.640   1.853   8.748
53562SOL     OW62524   9.941   5.214  10.172
53562SOL    HW162525   9.869   5.278  10.165
53562SOL    HW262526   9.955   5.184  10.083
53563SOL     OW62527   1.762   8.494   8.767
53563SOL    HW162528   1.829   8.556   8.736
53563SOL    HW262529   1.809   8.437   8.828
53564SOL     OW62530  12.993   2.953   3.959
53564SOL    HW162531  13.044   2.872   3.951
53564SOL    HW262532  12.902   2.925   3.956
53565SOL     OW62533   0.350   8.612   3.990
53565SOL    HW162534   0.375   8.698   3.958
53565SOL    HW262535   0.267   8.593   3.946
53566SOL     OW62536   7.506   0.295  14.431
53566SOL    HW162537   7.569   0.309  14.502
53566SOL    HW262538   7.534   0.356  14.363
53567SOL     OW62539   5.026  13.243   4.781
53567SOL    HW162540   5.052  13.266   4.692
53567SOL    HW262541   5.097  13.275   4.836
53568SOL     OW62542   0.427   7.818   5.742
53568SOL    HW162543   0.444   7.770   5.823
53568SOL    HW262544   0.469   7.766   5.674
53569SOL     OW62545   3.943   5.208   0.123
53569SOL    HW162546   3.903   5.186   0.039
53569SOL    HW262547   3.900   5.151   0.186
53570SOL     OW62548   0.437  11.998   4.399
53570SOL    HW162549   0.531  12.006   4.388
53570SOL    HW262550   0.406  12.089   4.407
53571SOL     OW62551   2.839  12.628   3.772
53571SOL    HW162552   2.863  12.577   3.694
53571SOL    HW262553   2.785  12.699   3.738
53572SOL     OW62554   1.830   7.121   8.395
53572SOL    HW162555   1.916   7.083   8.413
53572SOL    HW262556   1.833   7.207   8.436
53573SOL     OW62557   7.581  12.484   2.198
53573SOL    HW162558   7.635  12.451   2.270
53573SOL    HW262559   7.530  12.408   2.170
53574SOL     OW62560  11.236   6.823  10.542
53574SOL    HW162561  11.290   6.744  10.541
53574SOL    HW262562  11.287   6.888  10.494
53575SOL     OW62563  13.402   7.674  12.627
53575SOL    HW162564  13.379   7.707  12.540
53575SOL    HW262565  13.361   7.587  12.630
53576SOL     OW62566  10.900  12.620   1.579
53576SOL    HW162567  10.995  12.614   1.586
53576SOL    HW262568  10.870  12.530   1.568
53577SOL     OW62569   2.944   2.200   1.008
53577SOL    HW162570   2.923   2.221   0.917
53577SOL    HW262571   2.982   2.112   1.005
53578SOL     OW62572  10.710   2.943  11.740
53578SOL    HW162573  10.658   2.869  11.773
53578SOL    HW262574  10.795   2.905  11.720
53579SOL     OW62575   6.084  10.844  13.557
53579SOL    HW162576   6.083  10.898  13.478
53579SOL    HW262577   6.158  10.878  13.608
53580SOL     OW62578   1.045  12.965   5.253
53580SOL    HW162579   1.071  13.057   5.255
53580SOL    HW262580   0.996  12.952   5.334
53581SOL     OW62581   4.515  11.315   7.576
53581SOL    HW162582   4.444  11.338   7.516
53581SOL    HW262583   4.588  11.293   7.519
53582SOL     OW62584   5.051   7.518   3.900
53582SOL    HW162585   5.009   7.577   3.962
53582SOL    HW262586   5.076   7.573   3.826
53583SOL     OW62587   6.289  13.623   4.068
53583SOL    HW162588   6.194  13.620   4.052
53583SOL    HW262589   6.324  13.668   3.992
53584SOL     OW62590  11.177   2.514  11.385
53584SOL    HW162591  11.269   2.488  11.385
53584SOL    HW262592  11.167   2.565  11.304
53585SOL     OW62593   6.356   3.739   3.472
53585SOL    HW162594   6.369   3.751   3.566
53585SOL    HW262595   6.266   3.707   3.463
53586SOL     OW62596   3.086   7.667   6.799
53586SOL    HW162597   3.149   7.622   6.855
53586SOL    HW262598   3.124   7.754   6.786
53587SOL     OW62599   0.016  12.172   4.563
53587SOL    HW162600  14.836  12.124   4.506
53587SOL    HW262601  14.846  12.250   4.589
53588SOL     OW62602  13.781   3.034  12.374
53588SOL    HW162603  13.811   2.948  12.403
53588SOL    HW262604  13.751   3.077  12.454
53589SOL     OW62605   8.410   6.074   8.166
53589SOL    HW162606   8.359   6.018   8.107
53589SOL    HW262607   8.347   6.103   8.232
53590SOL     OW62608  11.845  13.463   1.896
53590SOL    HW162609  11.810  13.519   1.826
53590SOL    HW262610  11.808  13.499   1.976
53591SOL     OW62611  12.695   4.328   2.101
53591SOL    HW162612  12.761   4.393   2.127
53591SOL    HW262613  12.734   4.244   2.124
53592SOL     OW62614  10.287   0.211  14.514
53592SOL    HW162615  10.349   0.283  14.525
53592SOL    HW262616  10.298   0.184  14.422
53593SOL     OW62617   6.433   7.840   3.054
53593SOL    HW162618   6.426   7.866   3.146
53593SOL    HW262619   6.527   7.831   3.039
53594SOL     OW62620   0.777  14.607   3.800
53594SOL    HW162621   0.729  14.604   3.883
53594SOL    HW262622   0.825  14.690   3.803
53595SOL     OW62623   1.472  11.482  12.310
53595SOL    HW162624   1.514  11.549  12.364
53595SOL    HW262625   1.515  11.400  12.335
53596SOL     OW62626   9.658  11.058  13.231
53596SOL    HW162627   9.595  11.085  13.164
53596SOL    HW262628   9.737  11.108  13.211
53597SOL     OW62629   6.842  13.199   3.115
53597SOL    HW162630   6.788  13.259   3.063
53597SOL    HW262631   6.791  13.185   3.195
53598SOL     OW62632   0.379   4.818   0.743
53598SOL    HW162633   0.384   4.730   0.704
53598SOL    HW262634   0.298   4.817   0.794
53599SOL     OW62635   2.068   1.864   5.125
53599SOL    HW162636   2.102   1.826   5.206
53599SOL    HW262637   1.978   1.889   5.146
53600SOL     OW62638   1.084   8.461   9.277
53600SOL    HW162639   1.108   8.540   9.230
53600SOL    HW262640   0.997   8.438   9.243
53601SOL     OW62641   0.656   6.790  10.305
53601SOL    HW162642   0.740   6.750  10.284
53601SOL    HW262643   0.597   6.715  10.320
53602SOL     OW62644   9.403  13.824  12.150
53602SOL    HW162645   9.391  13.895  12.087
53602SOL    HW262646   9.406  13.745  12.095
53603SOL     OW62647   6.798   8.696   0.684
53603SOL    HW162648   6.812   8.790   0.692
53603SOL    HW262649   6.709   8.682   0.718
53604SOL     OW62650   5.585   2.183   3.715
53604SOL    HW162651   5.558   2.115   3.653
53604SOL    HW262652   5.670   2.154   3.747
53605SOL     OW62653   0.906  10.866   9.431
53605SOL    HW162654   0.823  10.913   9.425
53605SOL    HW262655   0.885  10.777   9.401
53606SOL     OW62656   5.118  14.038   3.614
53606SOL    HW162657   5.192  14.085   3.652
53606SOL    HW262658   5.129  14.048   3.520
53607SOL     OW62659  11.254  10.180   7.882
53607SOL    HW162660  11.195  10.169   7.956
53607SOL    HW262661  11.330  10.126   7.904
53608SOL     OW62662   9.173   1.625   0.135
53608SOL    HW162663   9.127   1.613   0.218
53608SOL    HW262664   9.266   1.619   0.158
53609SOL     OW62665   2.043   1.270  10.197
53609SOL    HW162666   2.130   1.254  10.160
53609SOL    HW262667   2.012   1.349  10.152
53610SOL     OW62668  12.115  11.597   0.627
53610SOL    HW162669  12.121  11.505   0.602
53610SOL    HW262670  12.199  11.618   0.667
53611SOL     OW62671   5.922   8.921   3.069
53611SOL    HW162672   5.850   8.968   3.111
53611SOL    HW262673   5.943   8.974   2.992
53612SOL     OW62674  11.598   8.741   4.953
53612SOL    HW162675  11.600   8.767   4.861
53612SOL    HW262676  11.539   8.805   4.995
53613SOL     OW62677  10.030  13.755   8.541
53613SOL    HW162678   9.938  13.782   8.544
53613SOL    HW262679  10.030  13.679   8.482
53614SOL     OW62680   9.205   0.196   2.417
53614SOL    HW162681   9.156   0.196   2.335
53614SOL    HW262682   9.145   0.235   2.481
53615SOL     OW62683  12.944  14.323   9.591
53615SOL    HW162684  13.029  14.294   9.559
53615SOL    HW262685  12.911  14.248   9.641
53616SOL     OW62686   2.689   4.815   3.069
53616SOL    HW162687   2.659   4.852   3.151
53616SOL    HW262688   2.617   4.830   3.007
53617SOL     OW62689   1.390   9.244   3.858
53617SOL    HW162690   1.485   9.237   3.846
53617SOL    HW262691   1.369   9.177   3.923
53618SOL     OW62692  10.265   0.481   0.551
53618SOL    HW162693  10.174   0.450   0.551
53618SOL    HW262694  10.259   0.573   0.525
53619SOL     OW62695  10.093  10.290   8.521
53619SOL    HW162696  10.130  10.251   8.601
53619SOL    HW262697  10.136  10.243   8.450
53620SOL     OW62698  11.106  11.570   9.930
53620SOL    HW162699  11.069  11.576  10.018
53620SOL    HW262700  11.198  11.547   9.943
53621SOL     OW62701   7.210  11.667  10.641
53621SOL    HW162702   7.180  11.709  10.721
53621SOL    HW262703   7.233  11.740  10.583
53622SOL     OW62704  13.928   8.218  10.864
53622SOL    HW162705  13.842   8.209  10.903
53622SOL    HW262706  13.981   8.261  10.931
53623SOL     OW62707  14.475   1.600   3.958
53623SOL    HW162708  14.503   1.582   3.868
53623SOL    HW262709  14.393   1.648   3.949
53624SOL     OW62710   5.086   5.625   2.192
53624SOL    HW162711   5.127   5.669   2.267
53624SOL    HW262712   5.073   5.695   2.128
53625SOL     OW62713  14.144   8.240   6.241
53625SOL    HW162714  14.164   8.156   6.199
53625SOL    HW262715  14.119   8.217   6.331
53626SOL     OW62716   6.245  10.479  13.441
53626SOL    HW162717   6.209  10.393  13.419
53626SOL    HW262718   6.184  10.514  13.505
53627SOL     OW62719   8.091   3.923   8.413
53627SOL    HW162720   8.187   3.918   8.405
53627SOL    HW262721   8.067   3.845   8.463
53628SOL     OW62722  12.368   1.108   6.698
53628SOL    HW162723  12.422   1.059   6.760
53628SOL    HW262724  12.407   1.091   6.612
53629SOL     OW62725  14.537   0.015  11.787
53629SOL    HW162726  14.544  14.808  11.746
53629SOL    HW262727  14.463   0.008  11.847
53630SOL     OW62728   3.428   7.757   8.856
53630SOL    HW162729   3.427   7.808   8.937
53630SOL    HW262730   3.504   7.791   8.807
53631SOL     OW62731   2.239  14.159   3.470
53631SOL    HW162732   2.298  14.234   3.478
53631SOL    HW262733   2.175  14.170   3.540
53632SOL     OW62734   7.836  12.735   2.182
53632SOL    HW162735   7.820  12.656   2.233
53632SOL    HW262736   7.909  12.711   2.125
53633SOL     OW62737   2.507  14.105  13.430
53633SOL    HW162738   2.526  14.031  13.487
53633SOL    HW262739   2.418  14.089  13.399
53634SOL     OW62740   5.972   9.156   2.920
53634SOL    HW162741   5.905   9.223   2.919
53634SOL    HW262742   6.038   9.188   2.982
53635SOL     OW62743  12.051  12.085  12.727
53635SOL    HW162744  11.964  12.047  12.714
53635SOL    HW262745  12.092  12.079  12.641
53636SOL     OW62746  12.171  14.717  11.442
53636SOL    HW162747  12.185  14.810  11.462
53636SOL    HW262748  12.131  14.682  11.522
53637SOL     OW62749   8.659   7.061  14.714
53637SOL    HW162750   8.609   7.125  14.664
53637SOL    HW262751   8.710   7.114  14.776
53638SOL     OW62752   5.572  10.138   6.198
53638SOL    HW162753   5.639  10.150   6.130
53638SOL    HW262754   5.539  10.226   6.215
53639SOL     OW62755  13.916   9.745   6.678
53639SOL    HW162756  13.839   9.707   6.719
53639SOL    HW262757  13.904   9.840   6.687
53640SOL     OW62758  10.716   5.002  10.391
53640SOL    HW162759  10.705   5.067  10.321
53640SOL    HW262760  10.773   4.935  10.352
53641SOL     OW62761   1.950  13.459   4.230
53641SOL    HW162762   1.986  13.376   4.262
53641SOL    HW262763   1.945  13.515   4.308
53642SOL     OW62764   3.484   5.206   0.802
53642SOL    HW162765   3.512   5.292   0.835
53642SOL    HW262766   3.496   5.147   0.876
53643SOL     OW62767  12.377   8.644   2.594
53643SOL    HW162768  12.328   8.671   2.517
53643SOL    HW262769  12.387   8.725   2.645
53644SOL     OW62770  14.136  11.835   1.576
53644SOL    HW162771  14.118  11.764   1.638
53644SOL    HW262772  14.056  11.841   1.523
53645SOL     OW62773  13.292   5.467   9.972
53645SOL    HW162774  13.279   5.526   9.898
53645SOL    HW262775  13.387   5.456   9.978
53646SOL     OW62776  13.740   7.256   2.249
53646SOL    HW162777  13.734   7.276   2.156
53646SOL    HW262778  13.656   7.215   2.270
53647SOL     OW62779   5.018   0.980  10.273
53647SOL    HW162780   5.109   0.967  10.248
53647SOL    HW262781   5.021   0.998  10.367
53648SOL     OW62782   1.872  13.540   6.335
53648SOL    HW162783   1.778  13.550   6.346
53648SOL    HW262784   1.910  13.617   6.378
53649SOL     OW62785   2.113  13.595  10.457
53649SOL    HW162786   2.049  13.627  10.394
53649SOL    HW262787   2.084  13.633  10.541
53650SOL     OW62788  14.640   9.562   8.576
53650SOL    HW162789  14.709   9.578   8.640
53650SOL    HW262790  14.684   9.525   8.500
53651SOL     OW62791   0.361   2.213  10.168
53651SOL    HW162792   0.420   2.212  10.243
53651SOL    HW262793   0.302   2.140  10.183
53652SOL     OW62794   4.347   2.046  12.780
53652SOL    HW162795   4.413   2.035  12.711
53652SOL    HW262796   4.309   2.132  12.763
53653SOL     OW62797   0.446  13.726   5.076
53653SOL    HW162798   0.459  13.676   4.995
53653SOL    HW262799   0.382  13.674   5.126
53654SOL     OW62800   5.365   0.988   5.669
53654SOL    HW162801   5.384   1.081   5.677
53654SOL    HW262802   5.272   0.984   5.645
53655SOL     OW62803   0.864  14.191   1.752
53655SOL    HW162804   0.862  14.277   1.793
53655SOL    HW262805   0.933  14.144   1.799
53656SOL     OW62806   1.506   2.240   4.665
53656SOL    HW162807   1.476   2.181   4.734
53656SOL    HW262808   1.592   2.207   4.640
53657SOL     OW62809  12.220   2.521  14.846
53657SOL    HW162810  12.147   2.511   0.028
53657SOL    HW262811  12.260   2.434  14.843
53658SOL     OW62812   4.450   4.230   3.903
53658SOL    HW162813   4.372   4.284   3.890
53658SOL    HW262814   4.481   4.253   3.991
53659SOL     OW62815   5.914   2.025  10.787
53659SOL    HW162816   5.836   1.975  10.811
53659SOL    HW262817   5.880   2.107  10.751
53660SOL     OW62818   7.726  11.501   5.959
53660SOL    HW162819   7.674  11.504   6.039
53660SOL    HW262820   7.677  11.441   5.902
53661SOL     OW62821   1.753   4.990  12.234
53661SOL    HW162822   1.763   5.021  12.324
53661SOL    HW262823   1.815   4.918  12.227
53662SOL     OW62824   3.492   3.564   8.845
53662SOL    HW162825   3.561   3.549   8.780
53662SOL    HW262826   3.529   3.532   8.927
53663SOL     OW62827  14.414   5.027   2.991
53663SOL    HW162828  14.501   4.988   2.999
53663SOL    HW262829  14.419   5.081   2.912
53664SOL     OW62830   1.796   4.727   5.987
53664SOL    HW162831   1.741   4.707   5.912
53664SOL    HW262832   1.804   4.823   5.987
53665SOL     OW62833   4.242   6.339   4.738
53665SOL    HW162834   4.323   6.320   4.691
53665SOL    HW262835   4.190   6.260   4.730
53666SOL     OW62836   4.586   0.827   5.610
53666SOL    HW162837   4.614   0.887   5.542
53666SOL    HW262838   4.660   0.768   5.623
53667SOL     OW62839   1.749   3.170   1.402
53667SOL    HW162840   1.746   3.192   1.309
53667SOL    HW262841   1.677   3.107   1.414
53668SOL     OW62842  13.508   3.059   6.079
53668SOL    HW162843  13.522   3.035   5.988
53668SOL    HW262844  13.450   3.135   6.075
53669SOL     OW62845   1.820   3.163  11.309
53669SOL    HW162846   1.789   3.249  11.335
53669SOL    HW262847   1.741   3.110  11.300
53670SOL     OW62848   2.905  10.748   8.515
53670SOL    HW162849   2.960  10.804   8.569
53670SOL    HW262850   2.942  10.754   8.427
53671SOL     OW62851   5.941   9.153   1.704
53671SOL    HW162852   6.018   9.097   1.708
53671SOL    HW262853   5.969   9.235   1.744
53672SOL     OW62854  10.036  11.718   0.801
53672SOL    HW162855  10.129  11.740   0.807
53672SOL    HW262856  10.010  11.749   0.713
53673SOL     OW62857   1.680  13.038   6.429
53673SOL    HW162858   1.704  12.998   6.513
53673SOL    HW262859   1.668  13.131   6.450
53674SOL     OW62860   7.740   7.420  14.107
53674SOL    HW162861   7.705   7.390  14.023
53674SOL    HW262862   7.675   7.393  14.172
53675SOL     OW62863   8.356   7.710  14.138
53675SOL    HW162864   8.351   7.797  14.098
53675SOL    HW262865   8.396   7.655  14.070
53676SOL     OW62866  14.346  12.362  11.582
53676SOL    HW162867  14.272  12.307  11.558
53676SOL    HW262868  14.396  12.309  11.644
53677SOL     OW62869   7.602   5.190   4.096
53677SOL    HW162870   7.611   5.101   4.061
53677SOL    HW262871   7.634   5.183   4.186
53678SOL     OW62872   7.692   1.995  10.321
53678SOL    HW162873   7.597   1.997  10.333
53678SOL    HW262874   7.703   2.010  10.227
53679SOL     OW62875   7.899   8.765   8.769
53679SOL    HW162876   7.982   8.752   8.723
53679SOL    HW262877   7.838   8.792   8.701
53680SOL     OW62878   0.842  14.617   0.075
53680SOL    HW162879   0.795  14.661   0.146
53680SOL    HW262880   0.828  14.674  14.878
53681SOL     OW62881   6.683   6.512  13.938
53681SOL    HW162882   6.713   6.491  14.026
53681SOL    HW262883   6.603   6.460  13.927
53682SOL     OW62884   0.178   4.566   6.826
53682SOL    HW162885   0.112   4.555   6.895
53682SOL    HW262886   0.158   4.650   6.786
53683SOL     OW62887  14.605   3.815   0.016
53683SOL    HW162888  14.697   3.829   0.040
53683SOL    HW262889  14.607   3.799  14.801
53684SOL     OW62890   4.856   1.749   3.783
53684SOL    HW162891   4.838   1.766   3.876
53684SOL    HW262892   4.909   1.669   3.784
53685SOL     OW62893   3.680  11.812   7.532
53685SOL    HW162894   3.755  11.871   7.542
53685SOL    HW262895   3.674  11.797   7.437
53686SOL     OW62896   6.841   7.708   5.620
53686SOL    HW162897   6.849   7.637   5.557
53686SOL    HW262898   6.758   7.693   5.664
53687SOL     OW62899   7.058   8.392  12.577
53687SOL    HW162900   6.999   8.365  12.647
53687SOL    HW262901   7.096   8.310  12.545
53688SOL     OW62902   3.084  11.503   8.678
53688SOL    HW162903   3.163  11.457   8.707
53688SOL    HW262904   3.053  11.452   8.603
53689SOL     OW62905   1.140  13.784  14.878
53689SOL    HW162906   1.142  13.699   0.043
53689SOL    HW262907   1.123  13.847   0.068
53690SOL     OW62908   0.195   4.119   1.547
53690SOL    HW162909   0.158   4.085   1.466
53690SOL    HW262910   0.157   4.064   1.616
53691SOL     OW62911   4.742  12.880   0.324
53691SOL    HW162912   4.803  12.953   0.317
53691SOL    HW262913   4.678  12.895   0.254
53692SOL     OW62914  10.385   1.113   4.101
53692SOL    HW162915  10.459   1.070   4.057
53692SOL    HW262916  10.377   1.197   4.055
53693SOL     OW62917   0.438   7.144   4.633
53693SOL    HW162918   0.502   7.109   4.571
53693SOL    HW262919   0.487   7.204   4.688
53694SOL     OW62920  12.925   6.238   6.813
53694SOL    HW162921  12.881   6.215   6.732
53694SOL    HW262922  12.858   6.283   6.865
53695SOL     OW62923   7.746   7.025   6.114
53695SOL    HW162924   7.836   7.016   6.145
53695SOL    HW262925   7.749   6.993   6.024
53696SOL     OW62926   3.758   9.133   4.414
53696SOL    HW162927   3.708   9.116   4.335
53696SOL    HW262928   3.814   9.207   4.392
53697SOL     OW62929   9.676   0.434   5.011
53697SOL    HW162930   9.619   0.395   4.944
53697SOL    HW262931   9.760   0.447   4.966
53698SOL     OW62932  13.467   3.143  10.665
53698SOL    HW162933  13.444   3.189  10.745
53698SOL    HW262934  13.386   3.098  10.639
53699SOL     OW62935   9.576   1.119  13.545
53699SOL    HW162936   9.511   1.189  13.540
53699SOL    HW262937   9.656   1.162  13.572
53700SOL     OW62938   5.882   8.298  14.278
53700SOL    HW162939   5.899   8.345  14.359
53700SOL    HW262940   5.875   8.367  14.211
53701SOL     OW62941  12.129  11.611   4.757
53701SOL    HW162942  12.201  11.655   4.802
53701SOL    HW262943  12.106  11.669   4.684
53702SOL     OW62944   8.463   8.203   5.147
53702SOL    HW162945   8.404   8.174   5.077
53702SOL    HW262946   8.525   8.261   5.103
53703SOL     OW62947   3.440  12.047   1.861
53703SOL    HW162948   3.499  11.972   1.862
53703SOL    HW262949   3.430  12.069   1.769
53704SOL     OW62950   5.778  11.860   0.698
53704SOL    HW162951   5.776  11.825   0.787
53704SOL    HW262952   5.709  11.813   0.651
53705SOL     OW62953  14.003   5.161  12.721
53705SOL    HW162954  14.078   5.117  12.681
53705SOL    HW262955  14.022   5.161  12.814
53706SOL     OW62956  14.534   8.831   7.076
53706SOL    HW162957  14.600   8.813   7.143
53706SOL    HW262958  14.450   8.813   7.118
53707SOL     OW62959   1.716   2.748   2.947
53707SOL    HW162960   1.764   2.683   2.896
53707SOL    HW262961   1.707   2.823   2.888
53708SOL     OW62962   3.370  13.817   8.931
53708SOL    HW162963   3.360  13.839   8.838
53708SOL    HW262964   3.342  13.896   8.977
53709SOL     OW62965   5.504  12.543   7.047
53709SOL    HW162966   5.564  12.475   7.077
53709SOL    HW262967   5.455  12.568   7.126
53710SOL     OW62968   9.782   3.108   1.811
53710SOL    HW162969   9.791   3.173   1.741
53710SOL    HW262970   9.783   3.159   1.892
53711SOL     OW62971   0.050  10.854   1.573
53711SOL    HW162972  14.865  10.872   1.504
53711SOL    HW262973   0.134  10.879   1.534
53712SOL     OW62974  10.575   1.761   2.175
53712SOL    HW162975  10.592   1.845   2.133
53712SOL    HW262976  10.652   1.708   2.156
53713SOL     OW62977   0.232  11.745   1.549
53713SOL    HW162978   0.295  11.781   1.612
53713SOL    HW262979   0.270  11.763   1.463
53714SOL     OW62980   1.705   9.189  10.080
53714SOL    HW162981   1.742   9.184   9.992
53714SOL    HW262982   1.637   9.121  10.081
53715SOL     OW62983  13.668   7.014  11.420
53715SOL    HW162984  13.693   7.046  11.507
53715SOL    HW262985  13.613   7.083  11.384
53716SOL     OW62986   6.607   6.586   1.524
53716SOL    HW162987   6.522   6.542   1.524
53716SOL    HW262988   6.640   6.574   1.613
53717SOL     OW62989  10.799  13.414   7.463
53717SOL    HW162990  10.796  13.451   7.551
53717SOL    HW262991  10.709  13.385   7.446
53718SOL     OW62992  12.091   3.034  10.533
53718SOL    HW162993  12.180   3.005  10.553
53718SOL    HW262994  12.042   2.953  10.518
53719SOL     OW62995   7.800   4.437   6.180
53719SOL    HW162996   7.886   4.479   6.181
53719SOL    HW262997   7.758   4.470   6.101
53720SOL     OW62998   9.195   7.822   6.046
53720SOL    HW162999   9.242   7.740   6.031
53720SOL    HW263000   9.250   7.890   6.006
53721SOL     OW63001   3.757  14.459   9.370
53721SOL    HW163002   3.826  14.406   9.328
53721SOL    HW263003   3.769  14.443   9.463
53722SOL     OW63004   9.838   3.133  13.319
53722SOL    HW163005   9.753   3.170  13.343
53722SOL    HW263006   9.881   3.203  13.269
53723SOL     OW63007   6.635   4.930  14.545
53723SOL    HW163008   6.728   4.906  14.548
53723SOL    HW263009   6.601   4.884  14.468
53724SOL     OW63010   9.644   4.440   0.654
53724SOL    HW163011   9.655   4.349   0.627
53724SOL    HW263012   9.620   4.435   0.746
53725SOL     OW63013   0.271   3.011   3.910
53725SOL    HW163014   0.287   3.018   3.816
53725SOL    HW263015   0.284   2.918   3.930
53726SOL     OW63016   7.702   4.877   0.309
53726SOL    HW163017   7.711   4.938   0.382
53726SOL    HW263018   7.611   4.848   0.313
53727SOL     OW63019   5.801   7.463   4.127
53727SOL    HW163020   5.896   7.461   4.141
53727SOL    HW263021   5.786   7.545   4.079
53728SOL     OW63022  11.570  13.392  14.725
53728SOL    HW163023  11.597  13.440  14.647
53728SOL    HW263024  11.651  13.379  14.774
53729SOL     OW63025  14.361   9.450  13.136
53729SOL    HW163026  14.444   9.485  13.103
53729SOL    HW263027  14.338   9.382  13.072
53730SOL     OW63028   5.076   1.963   5.798
53730SOL    HW163029   5.106   2.038   5.746
53730SOL    HW263030   4.998   1.932   5.753
53731SOL     OW63031   7.562  13.827   9.507
53731SOL    HW163032   7.556  13.918   9.480
53731SOL    HW263033   7.628  13.789   9.449
53732SOL     OW63034   2.306  10.591  12.572
53732SOL    HW163035   2.293  10.684  12.556
53732SOL    HW263036   2.392  10.572  12.534
53733SOL     OW63037   1.029   2.383   3.502
53733SOL    HW163038   1.120   2.406   3.525
53733SOL    HW263039   1.028   2.386   3.406
53734SOL     OW63040   7.202   7.196   9.855
53734SOL    HW163041   7.174   7.182   9.945
53734SOL    HW263042   7.144   7.264   9.821
53735SOL     OW63043   6.753  12.785   8.519
53735SOL    HW163044   6.784  12.705   8.478
53735SOL    HW263045   6.707  12.832   8.450
53736SOL     OW63046   4.054   0.120  12.174
53736SOL    HW163047   3.987   0.129  12.242
53736SOL    HW263048   4.016   0.059  12.110
53737SOL     OW63049  11.156   0.018   6.595
53737SOL    HW163050  11.248   0.013   6.568
53737SOL    HW263051  11.128   0.106   6.569
53738SOL     OW63052   6.867  10.323  13.103
53738SOL    HW163053   6.850  10.360  13.016
53738SOL    HW263054   6.873  10.229  13.089
53739SOL     OW63055   3.815  13.014   0.241
53739SOL    HW163056   3.796  13.037   0.331
53739SOL    HW263057   3.790  12.922   0.233
53740SOL     OW63058   3.557  11.730  11.753
53740SOL    HW163059   3.550  11.641  11.789
53740SOL    HW263060   3.639  11.730  11.705
53741SOL     OW63061   2.440   5.386   9.364
53741SOL    HW163062   2.529   5.415   9.346
53741SOL    HW263063   2.421   5.420   9.452
53742SOL     OW63064   3.205  11.833   0.051
53742SOL    HW163065   3.116  11.799   0.062
53742SOL    HW263066   3.195  11.928   0.058
53743SOL     OW63067   9.077   5.641   6.081
53743SOL    HW163068   9.059   5.735   6.091
53743SOL    HW263069   9.116   5.616   6.165
53744SOL     OW63070   0.850   4.186   1.773
53744SOL    HW163071   0.798   4.224   1.844
53744SOL    HW263072   0.904   4.120   1.816
53745SOL     OW63073   4.269  11.545   6.386
53745SOL    HW163074   4.252  11.585   6.472
53745SOL    HW263075   4.199  11.576   6.330
53746SOL     OW63076  11.335   7.587  14.098
53746SOL    HW163077  11.375   7.649  14.037
53746SOL    HW263078  11.241   7.601  14.089
53747SOL     OW63079  14.075   3.019   9.168
53747SOL    HW163080  14.078   2.928   9.197
53747SOL    HW263081  14.048   3.068   9.246
53748SOL     OW63082  14.812  13.350   9.368
53748SOL    HW163083  14.775  13.420   9.421
53748SOL    HW263084  14.844  13.394   9.289
53749SOL     OW63085   1.611   5.776   1.352
53749SOL    HW163086   1.605   5.726   1.270
53749SOL    HW263087   1.531   5.756   1.399
53750SOL     OW63088   1.489   0.784  10.450
53750SOL    HW163089   1.533   0.800  10.366
53750SOL    HW263090   1.425   0.855  10.457
53751SOL     OW63091   5.926   3.711  11.924
53751SOL    HW163092   5.925   3.655  12.002
53751SOL    HW263093   5.836   3.741  11.915
53752SOL     OW63094  10.032  13.769  10.008
53752SOL    HW163095  10.081  13.774   9.925
53752SOL    HW263096  10.093  13.803  10.074
53753SOL     OW63097  10.852  12.124   1.957
53753SOL    HW163098  10.879  12.140   1.867
53753SOL    HW263099  10.932  12.132   2.009
53754SOL     OW63100   9.643   6.639  13.073
53754SOL    HW163101   9.719   6.598  13.032
53754SOL    HW263102   9.625   6.586  13.150
53755SOL     OW63103   1.925  11.943  13.228
53755SOL    HW163104   1.939  11.983  13.142
53755SOL    HW263105   1.921  11.849  13.210
53756SOL     OW63106   5.887   8.219   3.131
53756SOL    HW163107   5.805   8.225   3.181
53756SOL    HW263108   5.949   8.273   3.180
53757SOL     OW63109   1.615  13.486   8.577
53757SOL    HW163110   1.541  13.442   8.536
53757SOL    HW263111   1.614  13.574   8.538
53758SOL     OW63112  12.544  13.466   2.916
53758SOL    HW163113  12.456  13.480   2.881
53758SOL    HW263114  12.589  13.415   2.848
53759SOL     OW63115   0.811  14.397   0.375
53759SOL    HW163116   0.759  14.384   0.454
53759SOL    HW263117   0.866  14.320   0.369
53760SOL     OW63118   7.320   1.336   4.049
53760SOL    HW163119   7.363   1.275   4.108
53760SOL    HW263120   7.384   1.351   3.979
53761SOL     OW63121  12.769   0.092   5.493
53761SOL    HW163122  12.760   0.059   5.403
53761SOL    HW263123  12.689   0.141   5.508
53762SOL     OW63124  11.736   5.329  14.119
53762SOL    HW163125  11.813   5.380  14.140
53762SOL    HW263126  11.677   5.390  14.074
53763SOL     OW63127   2.075   8.265   9.745
53763SOL    HW163128   2.108   8.298   9.828
53763SOL    HW263129   2.037   8.180   9.766
53764SOL     OW63130   8.625  11.161   3.381
53764SOL    HW163131   8.702  11.213   3.360
53764SOL    HW263132   8.630  11.147   3.476
53765SOL     OW63133   8.006   6.741   6.074
53765SOL    HW163134   7.958   6.746   5.992
53765SOL    HW263135   7.967   6.667   6.121
53766SOL     OW63136   5.161   5.122  11.256
53766SOL    HW163137   5.177   5.028  11.244
53766SOL    HW263138   5.174   5.136  11.350
53767SOL     OW63139  12.616   2.689   6.190
53767SOL    HW163140  12.540   2.649   6.148
53767SOL    HW263141  12.604   2.783   6.177
53768SOL     OW63142   2.275   2.761  10.875
53768SOL    HW163143   2.363   2.726  10.888
53768SOL    HW263144   2.231   2.746  10.959
53769SOL     OW63145   4.921   0.872  14.133
53769SOL    HW163146   4.939   0.785  14.169
53769SOL    HW263147   4.946   0.865  14.041
53770SOL     OW63148  10.880  13.579   7.695
53770SOL    HW163149  10.902  13.653   7.638
53770SOL    HW263150  10.840  13.619   7.772
53771SOL     OW63151  14.415   7.784  14.723
53771SOL    HW163152  14.444   7.739  14.803
53771SOL    HW263153  14.326   7.814  14.744
53772SOL     OW63154   9.437   0.464   5.546
53772SOL    HW163155   9.475   0.538   5.498
53772SOL    HW263156   9.486   0.388   5.515
53773SOL     OW63157   9.954   9.624   2.957
53773SOL    HW163158  10.017   9.665   2.898
53773SOL    HW263159   9.992   9.539   2.980
53774SOL     OW63160  10.456   2.333  13.154
53774SOL    HW163161  10.381   2.274  13.150
53774SOL    HW263162  10.495   2.316  13.240
53775SOL     OW63163  11.181   1.418  14.051
53775SOL    HW163164  11.187   1.475  14.127
53775SOL    HW263165  11.149   1.475  13.981
53776SOL     OW63166   2.332   6.721   1.134
53776SOL    HW163167   2.277   6.647   1.161
53776SOL    HW263168   2.416   6.705   1.177
53777SOL     OW63169  14.091  11.379  12.376
53777SOL    HW163170  14.083  11.290  12.410
53777SOL    HW263171  14.071  11.371  12.283
53778SOL     OW63172   9.731   3.323   0.700
53778SOL    HW163173   9.707   3.326   0.608
53778SOL    HW263174   9.804   3.384   0.708
53779SOL     OW63175  12.781   0.547   0.489
53779SOL    HW163176  12.870   0.515   0.500
53779SOL    HW263177  12.776   0.625   0.543
53780SOL     OW63178   2.810   8.383   5.444
53780SOL    HW163179   2.801   8.475   5.418
53780SOL    HW263180   2.748   8.336   5.388
53781SOL     OW63181   6.536   5.119  14.719
53781SOL    HW163182   6.570   5.061  14.651
53781SOL    HW263183   6.486   5.062  14.777
53782SOL     OW63184  12.341   9.985   2.710
53782SOL    HW163185  12.248   9.970   2.728
53782SOL    HW263186  12.342  10.030   2.625
53783SOL     OW63187   9.784   9.045   4.320
53783SOL    HW163188   9.790   9.130   4.365
53783SOL    HW263189   9.721   9.060   4.249
53784SOL     OW63190   9.411   6.924   4.716
53784SOL    HW163191   9.506   6.932   4.707
53784SOL    HW263192   9.387   6.993   4.778
53785SOL     OW63193  13.670  13.578   5.071
53785SOL    HW163194  13.611  13.643   5.034
53785SOL    HW263195  13.691  13.611   5.159
53786SOL     OW63196  10.047  12.670   4.209
53786SOL    HW163197   9.965  12.664   4.160
53786SOL    HW263198  10.055  12.763   4.233
53787SOL     OW63199  14.377   0.663  13.468
53787SOL    HW163200  14.368   0.596  13.401
53787SOL    HW263201  14.454   0.636  13.519
53788SOL     OW63202   0.042  11.063  14.440
53788SOL    HW163203  14.832  11.032  14.430
53788SOL    HW263204   0.057  11.062  14.535
53789SOL     OW63205   9.778   5.337  12.413
53789SOL    HW163206   9.782   5.242  12.421
53789SOL    HW263207   9.700   5.353  12.360
53790SOL     OW63208   2.476  13.775  12.289
53790SOL    HW163209   2.449  13.858  12.330
53790SOL    HW263210   2.403  13.716  12.305
53791SOL     OW63211  12.691   2.569  12.928
53791SOL    HW163212  12.606   2.545  12.965
53791SOL    HW263213  12.751   2.566  13.003
53792SOL     OW63214   4.496   7.749   9.022
53792SOL    HW163215   4.461   7.750   8.932
53792SOL    HW263216   4.481   7.837   9.054
53793SOL     OW63217   6.482   7.728   6.255
53793SOL    HW163218   6.455   7.756   6.342
53793SOL    HW263219   6.428   7.780   6.195
53794SOL     OW63220  14.250   3.833  12.086
53794SOL    HW163221  14.204   3.876  12.013
53794SOL    HW263222  14.340   3.823  12.055
53795SOL     OW63223  13.509   1.378  13.055
53795SOL    HW163224  13.576   1.417  13.112
53795SOL    HW263225  13.457   1.453  13.025
53796SOL     OW63226   4.856  11.379   8.127
53796SOL    HW163227   4.902  11.301   8.095
53796SOL    HW263228   4.789  11.396   8.061
53797SOL     OW63229  11.311   7.153   1.694
53797SOL    HW163230  11.381   7.089   1.680
53797SOL    HW263231  11.257   7.115   1.763
53798SOL     OW63232   1.951   4.895   1.646
53798SOL    HW163233   1.986   4.920   1.732
53798SOL    HW263234   2.024   4.853   1.601
53799SOL     OW63235   3.227   6.707   4.516
53799SOL    HW163236   3.243   6.757   4.436
53799SOL    HW263237   3.165   6.759   4.566
53800SOL     OW63238  11.682  12.197  13.503
53800SOL    HW163239  11.751  12.130  13.503
53800SOL    HW263240  11.671  12.220  13.595
53801SOL     OW63241   7.969   3.152  10.443
53801SOL    HW163242   7.912   3.083  10.410
53801SOL    HW263243   8.015   3.111  10.516
53802SOL     OW63244   8.654   4.693  14.312
53802SOL    HW163245   8.580   4.707  14.371
53802SOL    HW263246   8.635   4.610  14.269
53803SOL     OW63247  11.660   8.907  11.629
53803SOL    HW163248  11.711   8.985  11.652
53803SOL    HW263249  11.633   8.921  11.539
53804SOL     OW63250   9.979   7.967  13.128
53804SOL    HW163251  10.072   7.987  13.119
53804SOL    HW263252   9.936   8.052  13.140
53805SOL     OW63253   0.051   5.125  13.011
53805SOL    HW163254   0.034   5.205  12.961
53805SOL    HW263255  14.844   5.096  13.040
53806SOL     OW63256   6.385  11.964   7.436
53806SOL    HW163257   6.474  11.932   7.451
53806SOL    HW263258   6.373  12.034   7.500
53807SOL     OW63259   1.149   8.037   9.295
53807SOL    HW163260   1.111   8.113   9.338
53807SOL    HW263261   1.099   7.963   9.328
53808SOL     OW63262   7.942   6.906  12.690
53808SOL    HW163263   7.865   6.858  12.658
53808SOL    HW263264   8.012   6.882  12.630
53809SOL     OW63265   2.604   1.904  12.019
53809SOL    HW163266   2.592   1.999  12.025
53809SOL    HW263267   2.516   1.869  12.030
53810SOL     OW63268   0.478   0.394  10.428
53810SOL    HW163269   0.479   0.298  10.421
53810SOL    HW263270   0.542   0.413  10.496
53811SOL     OW63271   1.834   3.253   1.830
53811SOL    HW163272   1.853   3.243   1.736
53811SOL    HW263273   1.797   3.341   1.837
53812SOL     OW63274   9.295   5.613  14.682
53812SOL    HW163275   9.285   5.708  14.668
53812SOL    HW263276   9.295   5.603  14.777
53813SOL     OW63277   9.544   1.951   4.260
53813SOL    HW163278   9.568   1.859   4.269
53813SOL    HW263279   9.585   1.995   4.335
53814SOL     OW63280  10.923  10.365   2.501
53814SOL    HW163281  11.016  10.385   2.499
53814SOL    HW263282  10.901  10.364   2.594
53815SOL     OW63283   5.380  13.407   5.695
53815SOL    HW163284   5.325  13.380   5.621
53815SOL    HW263285   5.469  13.398   5.663
53816SOL     OW63286  11.757   8.266   5.118
53816SOL    HW163287  11.730   8.187   5.072
53816SOL    HW263288  11.775   8.330   5.048
53817SOL     OW63289   1.992   5.177   1.318
53817SOL    HW163290   1.978   5.193   1.412
53817SOL    HW263291   2.085   5.157   1.310
53818SOL     OW63292   3.593   4.738  12.593
53818SOL    HW163293   3.580   4.802  12.663
53818SOL    HW263294   3.678   4.760  12.556
53819SOL     OW63295   1.170  13.068   1.522
53819SOL    HW163296   1.138  13.149   1.562
53819SOL    HW263297   1.098  13.006   1.531
53820SOL     OW63298   6.324   1.732   5.253
53820SOL    HW163299   6.296   1.823   5.241
53820SOL    HW263300   6.305   1.713   5.345
53821SOL     OW63301  11.086  10.774  14.259
53821SOL    HW163302  11.019  10.811  14.201
53821SOL    HW263303  11.125  10.851  14.302
53822SOL     OW63304   2.199  14.079  13.734
53822SOL    HW163305   2.163  14.038  13.655
53822SOL    HW263306   2.127  14.079  13.796
53823SOL     OW63307  11.494   0.370  14.729
53823SOL    HW163308  11.493   0.274  14.725
53823SOL    HW263309  11.562   0.396  14.666
53824SOL     OW63310  13.649   9.960   0.811
53824SOL    HW163311  13.626   9.872   0.779
53824SOL    HW263312  13.716   9.944   0.878
53825SOL     OW63313   5.971  10.281   1.165
53825SOL    HW163314   5.951  10.271   1.072
53825SOL    HW263315   6.037  10.350   1.169
53826SOL     OW63316  11.592   0.438   7.846
53826SOL    HW163317  11.615   0.348   7.823
53826SOL    HW263318  11.607   0.488   7.766
53827SOL     OW63319  10.116   3.491   3.963
53827SOL    HW163320  10.174   3.416   3.950
53827SOL    HW263321  10.040   3.471   3.908
53828SOL     OW63322   1.307  14.411   1.034
53828SOL    HW163323   1.293  14.337   0.974
53828SOL    HW263324   1.248  14.393   1.107
53829SOL     OW63325   1.964   3.202   9.548
53829SOL    HW163326   1.877   3.228   9.578
53829SOL    HW263327   1.952   3.181   9.456
53830SOL     OW63328   5.115   1.537  11.314
53830SOL    HW163329   5.203   1.507  11.337
53830SOL    HW263330   5.123   1.568  11.224
53831SOL     OW63331  11.690  11.762   4.819
53831SOL    HW163332  11.704  11.717   4.736
53831SOL    HW263333  11.601  11.737   4.846
53832SOL     OW63334  14.752   5.384  13.644
53832SOL    HW163335  14.813   5.424  13.704
53832SOL    HW263336  14.800   5.377  13.561
53833SOL     OW63337   8.074   9.658  14.024
53833SOL    HW163338   8.034   9.573  14.005
53833SOL    HW263339   8.079   9.663  14.119
53834SOL     OW63340  10.926   4.844  10.948
53834SOL    HW163341  10.863   4.793  10.897
53834SOL    HW263342  10.873   4.893  11.010
53835SOL     OW63343  12.389   0.034  13.927
53835SOL    HW163344  12.477   0.047  13.962
53835SOL    HW263345  12.343  14.865  13.996
53836SOL     OW63346   0.331   7.185   3.625
53836SOL    HW163347   0.368   7.255   3.679
53836SOL    HW263348   0.354   7.104   3.670
53837SOL     OW63349   9.003   9.348   2.968
53837SOL    HW163350   9.065   9.419   2.982
53837SOL    HW263351   8.927   9.371   3.021
53838SOL     OW63352  11.159   5.314   8.585
53838SOL    HW163353  11.076   5.360   8.570
53838SOL    HW263354  11.147   5.230   8.541
53839SOL     OW63355  12.198  11.409  10.049
53839SOL    HW163356  12.159  11.434  10.133
53839SOL    HW263357  12.143  11.453   9.984
53840SOL     OW63358   8.493  11.118   7.862
53840SOL    HW163359   8.586  11.095   7.859
53840SOL    HW263360   8.460  11.100   7.774
53841SOL     OW63361  10.464   7.760   9.573
53841SOL    HW163362  10.472   7.734   9.665
53841SOL    HW263363  10.399   7.699   9.536
53842SOL     OW63364  12.825   5.965   9.597
53842SOL    HW163365  12.733   5.945   9.611
53842SOL    HW263366  12.831   5.985   9.504
53843SOL     OW63367  13.148   6.965  14.780
53843SOL    HW163368  13.128   7.056  14.762
53843SOL    HW263369  13.069   6.930  14.821
53844SOL     OW63370   3.459   1.908  12.049
53844SOL    HW163371   3.385   1.958  12.083
53844SOL    HW263372   3.426   1.818  12.043
53845SOL     OW63373  10.717   0.453   0.653
53845SOL    HW163374  10.759   0.369   0.666
53845SOL    HW263375  10.632   0.445   0.697
53846SOL     OW63376   9.318   1.315  12.828
53846SOL    HW163377   9.258   1.313  12.753
53846SOL    HW263378   9.262   1.308  12.905
53847SOL     OW63379   0.440   7.232   9.358
53847SOL    HW163380   0.460   7.222   9.451
53847SOL    HW263381   0.423   7.143   9.327
53848SOL     OW63382   2.301   7.904  13.768
53848SOL    HW163383   2.234   7.906  13.836
53848SOL    HW263384   2.375   7.953  13.805
53849SOL     OW63385  14.301   6.559   0.453
53849SOL    HW163386  14.232   6.580   0.391
53849SOL    HW263387  14.255   6.536   0.534
53850SOL     OW63388  10.037  11.485  14.468
53850SOL    HW163389   9.969  11.429  14.429
53850SOL    HW263390  10.060  11.546  14.399
53851SOL     OW63391   6.099  14.017   7.365
53851SOL    HW163392   6.121  14.055   7.279
53851SOL    HW263393   6.143  14.074   7.428
53852SOL     OW63394   1.156  11.190   9.785
53852SOL    HW163395   1.126  11.215   9.698
53852SOL    HW263396   1.249  11.213   9.785
53853SOL     OW63397  10.190  11.909  11.207
53853SOL    HW163398  10.272  11.916  11.158
53853SOL    HW263399  10.124  11.892  11.139
53854SOL     OW63400   7.194  10.279  10.907
53854SOL    HW163401   7.133  10.316  10.971
53854SOL    HW263402   7.258  10.349  10.892
53855SOL     OW63403   5.179  13.479   7.770
53855SOL    HW163404   5.215  13.403   7.815
53855SOL    HW263405   5.142  13.533   7.840
53856SOL     OW63406   4.449   8.579   3.216
53856SOL    HW163407   4.436   8.556   3.308
53856SOL    HW263408   4.412   8.505   3.168
53857SOL     OW63409   4.675   5.964  12.683
53857SOL    HW163410   4.617   5.988  12.611
53857SOL    HW263411   4.751   5.926  12.640
53858SOL     OW63412  14.038   5.371   8.697
53858SOL    HW163413  13.971   5.379   8.764
53858SOL    HW263414  14.117   5.347   8.745
53859SOL     OW63415   5.233  11.770   9.512
53859SOL    HW163416   5.167  11.734   9.570
53859SOL    HW263417   5.206  11.861   9.498
53860SOL     OW63418   7.328  13.971   9.655
53860SOL    HW163419   7.246  13.923   9.651
53860SOL    HW263420   7.393  13.910   9.620
53861SOL     OW63421   5.174  11.474   7.939
53861SOL    HW163422   5.226  11.493   7.861
53861SOL    HW263423   5.091  11.440   7.905
53862SOL     OW63424   5.454   6.378   6.415
53862SOL    HW163425   5.528   6.423   6.375
53862SOL    HW263426   5.405   6.447   6.459
53863SOL     OW63427  12.471   7.412   4.106
53863SOL    HW163428  12.545   7.470   4.089
53863SOL    HW263429  12.424   7.408   4.022
53864SOL     OW63430   7.303   9.653   0.252
53864SOL    HW163431   7.334   9.743   0.240
53864SOL    HW263432   7.288   9.645   0.346
53865SOL     OW63433  10.744   2.716   9.200
53865SOL    HW163434  10.657   2.727   9.161
53865SOL    HW263435  10.732   2.736   9.292
53866SOL     OW63436   2.189   1.415   6.838
53866SOL    HW163437   2.242   1.362   6.778
53866SOL    HW263438   2.134   1.351   6.884
53867SOL     OW63439   3.211  10.853   4.210
53867SOL    HW163440   3.263  10.903   4.274
53867SOL    HW263441   3.275  10.797   4.166
53868SOL     OW63442   2.012  13.863  12.885
53868SOL    HW163443   2.009  13.780  12.838
53868SOL    HW263444   1.982  13.841  12.974
53869SOL     OW63445   5.975   7.067  13.287
53869SOL    HW163446   5.893   7.084  13.240
53869SOL    HW263447   6.022   7.004  13.232
53870SOL     OW63448   5.787   0.889   1.843
53870SOL    HW163449   5.850   0.817   1.834
53870SOL    HW263450   5.755   0.881   1.933
53871SOL     OW63451   8.826  10.009   4.727
53871SOL    HW163452   8.748  10.064   4.723
53871SOL    HW263453   8.857  10.005   4.636
53872SOL     OW63454  10.048   5.087   0.008
53872SOL    HW163455   9.988   5.018  14.860
53872SOL    HW263456  10.045   5.151  14.816
53873SOL     OW63457   6.463   8.827  11.977
53873SOL    HW163458   6.384   8.782  12.008
53873SOL    HW263459   6.521   8.828  12.053
53874SOL     OW63460  10.574  11.639  13.364
53874SOL    HW163461  10.639  11.666  13.298
53874SOL    HW263462  10.538  11.557  13.329
53875SOL     OW63463   7.640   8.010   6.331
53875SOL    HW163464   7.558   8.029   6.376
53875SOL    HW263465   7.684   8.095   6.324
53876SOL     OW63466  10.430   3.087   3.031
53876SOL    HW163467  10.355   3.101   2.974
53876SOL    HW263468  10.497   3.148   2.999
53877SOL     OW63469   5.942   5.738   7.301
53877SOL    HW163470   5.913   5.732   7.210
53877SOL    HW263471   6.015   5.677   7.307
53878SOL     OW63472  13.404   6.818  12.147
53878SOL    HW163473  13.490   6.786  12.119
53878SOL    HW263474  13.389   6.775  12.231
53879SOL     OW63475  13.252   0.794   6.295
53879SOL    HW163476  13.243   0.735   6.220
53879SOL    HW263477  13.337   0.771   6.333
53880SOL     OW63478   5.248  14.406   6.916
53880SOL    HW163479   5.161  14.424   6.881
53880SOL    HW263480   5.284  14.340   6.858
53881SOL     OW63481  11.649  10.130   8.807
53881SOL    HW163482  11.575  10.086   8.766
53881SOL    HW263483  11.649  10.218   8.769
53882SOL     OW63484   6.495   4.518   7.996
53882SOL    HW163485   6.446   4.556   8.069
53882SOL    HW263486   6.572   4.478   8.036
53883SOL     OW63487   1.875   0.616   4.051
53883SOL    HW163488   1.938   0.686   4.067
53883SOL    HW263489   1.919   0.556   3.991
53884SOL     OW63490   3.955  10.370   4.205
53884SOL    HW163491   3.881  10.337   4.256
53884SOL    HW263492   3.918  10.443   4.154
53885SOL     OW63493  14.112  13.931  12.105
53885SOL    HW163494  14.178  13.909  12.171
53885SOL    HW263495  14.089  14.022  12.122
53886SOL     OW63496   8.696   2.275   0.133
53886SOL    HW163497   8.767   2.215   0.110
53886SOL    HW263498   8.739   2.347   0.178
53887SOL     OW63499   3.840   1.589   9.670
53887SOL    HW163500   3.866   1.680   9.657
53887SOL    HW263501   3.784   1.590   9.748
53888SOL     OW63502   7.807   4.203   8.496
53888SOL    HW163503   7.721   4.174   8.528
53888SOL    HW263504   7.852   4.235   8.573
53889SOL     OW63505   4.572  13.945   6.378
53889SOL    HW163506   4.666  13.931   6.378
53889SOL    HW263507   4.535  13.861   6.352
53890SOL     OW63508   6.409   2.683   0.376
53890SOL    HW163509   6.495   2.643   0.363
53890SOL    HW263510   6.416   2.728   0.461
53891SOL     OW63511   5.088  12.510  13.126
53891SOL    HW163512   5.018  12.557  13.081
53891SOL    HW263513   5.150  12.487  13.056
53892SOL     OW63514   6.057  13.902   2.156
53892SOL    HW163515   6.049  13.979   2.100
53892SOL    HW263516   6.088  13.936   2.240
53893SOL     OW63517  12.779   2.969  11.240
53893SOL    HW163518  12.801   2.937  11.153
53893SOL    HW263519  12.773   3.064  11.231
53894SOL     OW63520   2.647   2.608  14.770
53894SOL    HW163521   2.718   2.546  14.781
53894SOL    HW263522   2.614   2.591  14.682
53895SOL     OW63523  12.424  10.306  10.503
53895SOL    HW163524  12.504  10.260  10.478
53895SOL    HW263525  12.438  10.396  10.471
53896SOL     OW63526   1.791   2.578   8.227
53896SOL    HW163527   1.843   2.501   8.205
53896SOL    HW263528   1.829   2.649   8.175
53897SOL     OW63529   0.724   6.202   5.374
53897SOL    HW163530   0.750   6.131   5.434
53897SOL    HW263531   0.786   6.195   5.302
53898SOL     OW63532   3.491   2.823   7.851
53898SOL    HW163533   3.441   2.905   7.851
53898SOL    HW263534   3.580   2.849   7.872
53899SOL     OW63535   4.823  13.551  10.503
53899SOL    HW163536   4.740  13.564  10.550
53899SOL    HW263537   4.861  13.473  10.544
53900SOL     OW63538  11.223   4.845   9.362
53900SOL    HW163539  11.246   4.920   9.417
53900SOL    HW263540  11.249   4.769   9.414
53901SOL     OW63541   3.340   7.377   3.600
53901SOL    HW163542   3.393   7.367   3.680
53901SOL    HW263543   3.257   7.413   3.632
53902SOL     OW63544   9.357  14.641   8.859
53902SOL    HW163545   9.443  14.637   8.900
53902SOL    HW263546   9.320  14.725   8.889
53903SOL     OW63547   0.736   6.516   3.133
53903SOL    HW163548   0.685   6.439   3.107
53903SOL    HW263549   0.800   6.483   3.196
53904SOL     OW63550   0.088   7.105   5.028
53904SOL    HW163551   0.068   7.016   5.057
53904SOL    HW263552   0.011   7.130   4.976
53905SOL     OW63553   8.162   2.299  13.471
53905SOL    HW163554   8.203   2.361  13.411
53905SOL    HW263555   8.148   2.349  13.552
53906SOL     OW63556   1.430  13.326   6.879
53906SOL    HW163557   1.394  13.345   6.966
53906SOL    HW263558   1.504  13.267   6.896
53907SOL     OW63559  10.579   9.801  10.908
53907SOL    HW163560  10.624   9.886  10.906
53907SOL    HW263561  10.645   9.739  10.936
53908SOL     OW63562  14.209  11.088  13.980
53908SOL    HW163563  14.259  11.017  14.019
53908SOL    HW263564  14.134  11.099  14.038
53909SOL     OW63565   7.120   4.907  10.652
53909SOL    HW163566   7.149   4.824  10.614
53909SOL    HW263567   7.038   4.885  10.698
53910SOL     OW63568   4.579   9.334   5.702
53910SOL    HW163569   4.662   9.299   5.734
53910SOL    HW263570   4.560   9.283   5.623
53911SOL     OW63571   8.630   0.338   5.308
53911SOL    HW163572   8.568   0.396   5.351
53911SOL    HW263573   8.619   0.253   5.352
53912SOL     OW63574   4.156  14.039   1.906
53912SOL    HW163575   4.101  14.078   1.975
53912SOL    HW263576   4.099  14.036   1.830
53913SOL     OW63577  14.478  14.402  13.725
53913SOL    HW163578  14.436  14.324  13.689
53913SOL    HW263579  14.418  14.432  13.793
53914SOL     OW63580   2.904   6.923  10.767
53914SOL    HW163581   2.954   6.942  10.688
53914SOL    HW263582   2.833   6.987  10.767
53915SOL     OW63583   6.334   5.612   9.187
53915SOL    HW163584   6.306   5.699   9.159
53915SOL    HW263585   6.387   5.579   9.114
53916SOL     OW63586   9.449   9.089   3.400
53916SOL    HW163587   9.364   9.122   3.428
53916SOL    HW263588   9.429   9.003   3.361
53917SOL     OW63589  13.368  14.133  13.787
53917SOL    HW163590  13.360  14.073  13.861
53917SOL    HW263591  13.391  14.217  13.827
53918SOL     OW63592  10.929  11.854   4.300
53918SOL    HW163593  10.965  11.847   4.212
53918SOL    HW263594  10.837  11.829   4.290
53919SOL     OW63595   2.482  12.006  10.627
53919SOL    HW163596   2.395  12.044  10.618
53919SOL    HW263597   2.521  12.013  10.539
53920SOL     OW63598  12.348   3.623   1.156
53920SOL    HW163599  12.378   3.637   1.246
53920SOL    HW263600  12.257   3.652   1.156
53921SOL     OW63601  14.238   2.551  11.314
53921SOL    HW163602  14.238   2.505  11.398
53921SOL    HW263603  14.147   2.546  11.284
53922SOL     OW63604  10.008   4.035   1.212
53922SOL    HW163605   9.919   4.005   1.225
53922SOL    HW263606  10.062   3.957   1.226
53923SOL     OW63607   5.286   2.455  12.589
53923SOL    HW163608   5.258   2.468  12.679
53923SOL    HW263609   5.349   2.525  12.573
53924SOL     OW63610   4.422   7.562   2.134
53924SOL    HW163611   4.465   7.561   2.219
53924SOL    HW263612   4.494   7.554   2.070
53925SOL     OW63613   9.631   1.804   3.222
53925SOL    HW163614   9.716   1.818   3.264
53925SOL    HW263615   9.653   1.765   3.137
53926SOL     OW63616   8.686  11.980  14.197
53926SOL    HW163617   8.691  11.908  14.260
53926SOL    HW263618   8.603  11.966  14.151
53927SOL     OW63619   4.777  10.865   5.830
53927SOL    HW163620   4.734  10.780   5.838
53927SOL    HW263621   4.869  10.844   5.814
53928SOL     OW63622   7.226   7.577   8.292
53928SOL    HW163623   7.215   7.486   8.322
53928SOL    HW263624   7.275   7.570   8.210
53929SOL     OW63625   8.310   4.925  14.421
53929SOL    HW163626   8.361   4.844  14.416
53929SOL    HW263627   8.221   4.899  14.398
53930SOL     OW63628   5.180   2.647   4.147
53930SOL    HW163629   5.235   2.573   4.122
53930SOL    HW263630   5.141   2.621   4.231
53931SOL     OW63631  11.717  10.548   3.064
53931SOL    HW163632  11.796  10.514   3.107
53931SOL    HW263633  11.654  10.477   3.071
53932SOL     OW63634   1.887   8.863  14.305
53932SOL    HW163635   1.811   8.890  14.357
53932SOL    HW263636   1.900   8.934  14.242
53933SOL     OW63637  10.608   0.716   5.954
53933SOL    HW163638  10.695   0.757   5.952
53933SOL    HW263639  10.547   0.790   5.957
53934SOL     OW63640   6.152  11.188   1.743
53934SOL    HW163641   6.154  11.278   1.773
53934SOL    HW263642   6.162  11.135   1.822
53935SOL     OW63643   2.658   2.770   7.851
53935SOL    HW163644   2.709   2.725   7.783
53935SOL    HW263645   2.715   2.767   7.929
53936SOL     OW63646   4.679   1.919   7.782
53936SOL    HW163647   4.600   1.958   7.744
53936SOL    HW263648   4.681   1.830   7.748
53937SOL     OW63649  14.459   0.309   8.533
53937SOL    HW163650  14.406   0.251   8.587
53937SOL    HW263651  14.517   0.250   8.484
53938SOL     OW63652   7.233   2.452   0.723
53938SOL    HW163653   7.279   2.421   0.802
53938SOL    HW263654   7.301   2.460   0.657
53939SOL     OW63655  13.450   5.335   4.306
53939SOL    HW163656  13.458   5.345   4.211
53939SOL    HW263657  13.363   5.299   4.319
53940SOL     OW63658   6.958   1.686   8.748
53940SOL    HW163659   7.032   1.694   8.809
53940SOL    HW263660   6.905   1.764   8.764
53941SOL     OW63661   5.061   6.504   4.528
53941SOL    HW163662   5.152   6.508   4.500
53941SOL    HW263663   5.032   6.416   4.503
53942SOL     OW63664  10.628  14.804   4.574
53942SOL    HW163665  10.539  14.832   4.598
53942SOL    HW263666  10.618  14.713   4.548
53943SOL     OW63667   7.605  10.121  12.075
53943SOL    HW163668   7.586  10.112  11.981
53943SOL    HW263669   7.534  10.074  12.119
53944SOL     OW63670   8.965   3.782   7.471
53944SOL    HW163671   9.039   3.736   7.431
53944SOL    HW263672   8.933   3.840   7.402
53945SOL     OW63673   0.450   5.147   1.209
53945SOL    HW163674   0.399   5.120   1.132
53945SOL    HW263675   0.496   5.067   1.237
53946SOL     OW63676   8.670   5.359  14.618
53946SOL    HW163677   8.636   5.445  14.640
53946SOL    HW263678   8.607   5.297  14.656
53947SOL     OW63679   8.746   6.830   8.443
53947SOL    HW163680   8.751   6.767   8.371
53947SOL    HW263681   8.652   6.844   8.456
53948SOL     OW63682  11.974   1.094   3.654
53948SOL    HW163683  12.063   1.120   3.630
53948SOL    HW263684  11.986   1.029   3.723
53949SOL     OW63685   3.591   7.206   7.379
53949SOL    HW163686   3.506   7.193   7.336
53949SOL    HW263687   3.608   7.300   7.372
53950SOL     OW63688   1.478   7.972   4.030
53950SOL    HW163689   1.404   8.000   4.084
53950SOL    HW263690   1.551   8.027   4.060
53951SOL     OW63691   0.266   7.873   2.815
53951SOL    HW163692   0.352   7.916   2.811
53951SOL    HW263693   0.265   7.814   2.740
53952SOL     OW63694   2.881   8.023   1.019
53952SOL    HW163695   2.900   8.031   1.112
53952SOL    HW263696   2.829   7.943   1.011
53953SOL     OW63697   4.879   3.333   1.284
53953SOL    HW163698   4.793   3.293   1.271
53953SOL    HW263699   4.907   3.301   1.370
53954SOL     OW63700  14.094  10.759   4.683
53954SOL    HW163701  14.154  10.717   4.622
53954SOL    HW263702  14.076  10.844   4.643
53955SOL     OW63703   2.863   2.941   8.510
53955SOL    HW163704   2.855   2.977   8.422
53955SOL    HW263705   2.920   3.002   8.556
53956SOL     OW63706   9.055   7.418   7.265
53956SOL    HW163707   8.968   7.441   7.298
53956SOL    HW263708   9.080   7.340   7.314
53957SOL     OW63709   9.912   9.841   3.489
53957SOL    HW163710   9.883   9.798   3.408
53957SOL    HW263711   9.857   9.919   3.495
53958SOL     OW63712   6.549  10.190   9.292
53958SOL    HW163713   6.522  10.277   9.262
53958SOL    HW263714   6.629  10.206   9.343
53959SOL     OW63715  12.056   6.541   8.632
53959SOL    HW163716  12.088   6.599   8.700
53959SOL    HW263717  12.005   6.475   8.679
53960SOL     OW63718   6.250   5.681   0.160
53960SOL    HW163719   6.260   5.595   0.120
53960SOL    HW263720   6.337   5.702   0.193
53961SOL     OW63721  13.271  14.086   8.637
53961SOL    HW163722  13.342  14.030   8.605
53961SOL    HW263723  13.200  14.025   8.657
53962SOL     OW63724  12.191  13.663   4.042
53962SOL    HW163725  12.172  13.751   4.010
53962SOL    HW263726  12.113  13.638   4.091
53963SOL     OW63727   4.867   8.740   6.038
53963SOL    HW163728   4.868   8.650   6.008
53963SOL    HW263729   4.776   8.769   6.023
53964SOL     OW63730   8.317  12.742   8.792
53964SOL    HW163731   8.336  12.776   8.879
53964SOL    HW263732   8.241  12.686   8.804
53965SOL     OW63733   8.080  14.386   4.148
53965SOL    HW163734   8.024  14.460   4.123
53965SOL    HW263735   8.169  14.420   4.145
53966SOL     OW63736   8.324  12.278   1.314
53966SOL    HW163737   8.329  12.322   1.230
53966SOL    HW263738   8.270  12.335   1.368
53967SOL     OW63739  12.679  13.203  13.898
53967SOL    HW163740  12.723  13.130  13.854
53967SOL    HW263741  12.727  13.280  13.869
53968SOL     OW63742   5.636  14.470  14.639
53968SOL    HW163743   5.727  14.455  14.614
53968SOL    HW263744   5.637  14.472  14.734
53969SOL     OW63745   4.613   1.569   8.515
53969SOL    HW163746   4.608   1.662   8.492
53969SOL    HW263747   4.622   1.523   8.432
53970SOL     OW63748  12.917  13.822   2.572
53970SOL    HW163749  12.829  13.840   2.538
53970SOL    HW263750  12.903  13.799   2.664
53971SOL     OW63751  14.043   0.969   1.769
53971SOL    HW163752  13.994   1.016   1.838
53971SOL    HW263753  13.983   0.900   1.741
53972SOL     OW63754   9.835   6.222   5.728
53972SOL    HW163755   9.808   6.231   5.636
53972SOL    HW263756   9.923   6.185   5.724
53973SOL     OW63757  14.184  11.560   9.944
53973SOL    HW163758  14.147  11.578   9.858
53973SOL    HW263759  14.207  11.646   9.979
53974SOL     OW63760   5.699   5.942   3.321
53974SOL    HW163761   5.765   5.876   3.344
53974SOL    HW263762   5.660   5.910   3.240
53975SOL     OW63763   0.396   0.215   1.008
53975SOL    HW163764   0.489   0.193   0.999
53975SOL    HW263765   0.367   0.231   0.919
53976SOL     OW63766   3.185   9.726   3.735
53976SOL    HW163767   3.125   9.671   3.685
53976SOL    HW263768   3.272   9.703   3.703
53977SOL     OW63769   8.702   4.366   6.309
53977SOL    HW163770   8.695   4.276   6.341
53977SOL    HW263771   8.643   4.416   6.365
53978SOL     OW63772   8.215  14.248   6.088
53978SOL    HW163773   8.310  14.255   6.098
53978SOL    HW263774   8.182  14.238   6.177
53979SOL     OW63775  11.870   5.717   5.315
53979SOL    HW163776  11.860   5.778   5.242
53979SOL    HW263777  11.828   5.761   5.389
53980SOL     OW63778   5.616   0.546   7.560
53980SOL    HW163779   5.522   0.541   7.547
53980SOL    HW263780   5.635   0.640   7.567
53981SOL     OW63781   4.982   2.746   0.751
53981SOL    HW163782   4.914   2.709   0.695
53981SOL    HW263783   4.941   2.823   0.790
53982SOL     OW63784   6.921   6.201   3.904
53982SOL    HW163785   6.881   6.215   3.990
53982SOL    HW263786   7.014   6.194   3.921
53983SOL     OW63787  12.742   1.300  12.194
53983SOL    HW163788  12.797   1.362  12.242
53983SOL    HW263789  12.653   1.317  12.226
53984SOL     OW63790  12.458   2.736   0.886
53984SOL    HW163791  12.379   2.726   0.939
53984SOL    HW263792  12.441   2.813   0.832
53985SOL     OW63793  13.632   4.367   7.656
53985SOL    HW163794  13.555   4.377   7.712
53985SOL    HW263795  13.641   4.452   7.612
53986SOL     OW63796   6.793   4.602  14.317
53986SOL    HW163797   6.883   4.587  14.347
53986SOL    HW263798   6.738   4.572  14.389
53987SOL     OW63799  12.471   6.858   5.078
53987SOL    HW163800  12.451   6.934   5.024
53987SOL    HW263801  12.499   6.790   5.016
53988SOL     OW63802   9.619  12.065  13.850
53988SOL    HW163803   9.632  12.105  13.936
53988SOL    HW263804   9.708  12.047  13.819
53989SOL     OW63805  11.718   7.743   5.396
53989SOL    HW163806  11.632   7.717   5.362
53989SOL    HW263807  11.721   7.838   5.385
53990SOL     OW63808  12.606   4.157   5.668
53990SOL    HW163809  12.588   4.097   5.740
53990SOL    HW263810  12.619   4.242   5.709
53991SOL     OW63811   3.100   5.730   5.940
53991SOL    HW163812   3.184   5.771   5.920
53991SOL    HW263813   3.087   5.747   6.033
53992SOL     OW63814   2.898   5.451   0.164
53992SOL    HW163815   2.936   5.439   0.252
53992SOL    HW263816   2.945   5.527   0.129
53993SOL     OW63817  10.916   1.964   1.710
53993SOL    HW163818  10.871   1.938   1.629
53993SOL    HW263819  10.909   1.887   1.766
53994SOL     OW63820   0.870  10.983  13.848
53994SOL    HW163821   0.904  11.039  13.918
53994SOL    HW263822   0.776  10.980  13.863
53995SOL     OW63823  12.265  12.163   5.182
53995SOL    HW163824  12.190  12.178   5.241
53995SOL    HW263825  12.239  12.205   5.100
53996SOL     OW63826   1.684   1.753   5.963
53996SOL    HW163827   1.624   1.811   5.917
53996SOL    HW263828   1.645   1.666   5.955
53997SOL     OW63829  13.463   7.710   5.720
53997SOL    HW163830  13.427   7.771   5.655
53997SOL    HW263831  13.395   7.644   5.730
53998SOL     OW63832   6.501  12.360   6.442
53998SOL    HW163833   6.500  12.266   6.460
53998SOL    HW263834   6.591  12.378   6.416
53999SOL     OW63835   3.480   1.976   4.267
53999SOL    HW163836   3.454   1.885   4.281
53999SOL    HW263837   3.572   1.972   4.241
54000SOL     OW63838   3.717   1.700   7.115
54000SOL    HW163839   3.710   1.759   7.040
54000SOL    HW263840   3.685   1.751   7.190
54001SOL     OW63841  13.991   9.184   4.525
54001SOL    HW163842  14.034   9.167   4.609
54001SOL    HW263843  13.924   9.249   4.544
54002SOL     OW63844  11.960   0.593   2.448
54002SOL    HW163845  11.987   0.515   2.497
54002SOL    HW263846  11.923   0.559   2.367
54003SOL     OW63847   7.966   0.421   6.460
54003SOL    HW163848   7.898   0.468   6.411
54003SOL    HW263849   8.044   0.476   6.451
54004SOL     OW63850   9.837   2.733  13.647
54004SOL    HW163851   9.927   2.735  13.614
54004SOL    HW263852   9.794   2.806  13.603
54005SOL     OW63853   2.571  11.419   3.619
54005SOL    HW163854   2.631  11.345   3.626
54005SOL    HW263855   2.485  11.382   3.638
54006SOL     OW63856   1.221   1.273   6.953
54006SOL    HW163857   1.232   1.307   7.042
54006SOL    HW263858   1.226   1.178   6.963
54007SOL     OW63859  11.041   8.936   0.984
54007SOL    HW163860  11.072   9.011   1.035
54007SOL    HW263861  11.079   8.948   0.897
54008SOL     OW63862   3.060  13.569   3.721
54008SOL    HW163863   2.978  13.581   3.769
54008SOL    HW263864   3.083  13.478   3.736
54009SOL     OW63865   0.407  10.872  10.275
54009SOL    HW163866   0.478  10.936  10.271
54009SOL    HW263867   0.448  10.792  10.307
54010SOL     OW63868  10.697   8.610   9.238
54010SOL    HW163869  10.607   8.610   9.205
54010SOL    HW263870  10.689   8.639   9.328
54011SOL     OW63871   0.098   8.858   0.072
54011SOL    HW163872   0.133   8.769   0.073
54011SOL    HW263873   0.005   8.847   0.093
54012SOL     OW63874   6.349  13.785  13.314
54012SOL    HW163875   6.315  13.711  13.363
54012SOL    HW263876   6.442  13.766  13.303
54013SOL     OW63877   7.845   5.867   8.748
54013SOL    HW163878   7.758   5.869   8.787
54013SOL    HW263879   7.866   5.959   8.730
54014SOL     OW63880   3.825   9.398   0.910
54014SOL    HW163881   3.893   9.419   0.973
54014SOL    HW263882   3.788   9.315   0.940
54015SOL     OW63883   9.706   9.090  13.313
54015SOL    HW163884   9.780   9.136  13.354
54015SOL    HW263885   9.720   8.998  13.336
54016SOL     OW63886   0.585   8.824   3.140
54016SOL    HW163887   0.531   8.791   3.068
54016SOL    HW263888   0.524   8.832   3.213
54017SOL     OW63889   8.971  14.590  14.510
54017SOL    HW163890   9.038  14.625  14.452
54017SOL    HW263891   8.946  14.664  14.565
54018SOL     OW63892   7.396   9.557  10.849
54018SOL    HW163893   7.379   9.651  10.848
54018SOL    HW263894   7.383   9.529  10.758
54019SOL     OW63895   3.514   4.681  11.822
54019SOL    HW163896   3.513   4.646  11.732
54019SOL    HW263897   3.503   4.604  11.878
54020SOL     OW63898  11.539   1.765   7.837
54020SOL    HW163899  11.455   1.751   7.794
54020SOL    HW263900  11.587   1.684   7.824
54021SOL     OW63901   1.313   4.448  14.652
54021SOL    HW163902   1.252   4.374  14.659
54021SOL    HW263903   1.313   4.488  14.739
54022SOL     OW63904  12.843   7.693   4.242
54022SOL    HW163905  12.898   7.723   4.314
54022SOL    HW263906  12.901   7.637   4.190
54023SOL     OW63907  11.935  14.514  13.485
54023SOL    HW163908  11.934  14.422  13.514
54023SOL    HW263909  11.853  14.550  13.518
54024SOL     OW63910   7.210  11.307   6.472
54024SOL    HW163911   7.180  11.222   6.505
54024SOL    HW263912   7.150  11.371   6.510
54025SOL     OW63913  11.421   5.456   9.334
54025SOL    HW163914  11.346   5.514   9.350
54025SOL    HW263915  11.382   5.376   9.299
54026SOL     OW63916  10.936   5.560  11.351
54026SOL    HW163917  10.918   5.466  11.354
54026SOL    HW263918  10.883   5.597  11.421
54027SOL     OW63919   8.421  14.010   6.374
54027SOL    HW163920   8.385  14.090   6.413
54027SOL    HW263921   8.454  14.038   6.289
54028SOL     OW63922  12.926   4.401   3.382
54028SOL    HW163923  12.982   4.415   3.305
54028SOL    HW263924  12.841   4.436   3.356
54029SOL     OW63925   3.874   2.058   6.273
54029SOL    HW163926   3.862   2.152   6.279
54029SOL    HW263927   3.808   2.021   6.332
54030SOL     OW63928  10.698   3.227  13.909
54030SOL    HW163929  10.785   3.217  13.869
54030SOL    HW263930  10.685   3.145  13.957
54031SOL     OW63931  14.725  12.106   8.577
54031SOL    HW163932  14.635  12.122   8.605
54031SOL    HW263933  14.772  12.088   8.658
54032SOL     OW63934  12.815   9.373   4.967
54032SOL    HW163935  12.833   9.439   4.900
54032SOL    HW263936  12.898   9.327   4.978
54033SOL     OW63937  12.594   9.846   7.881
54033SOL    HW163938  12.640   9.768   7.913
54033SOL    HW263939  12.640   9.870   7.801
54034SOL     OW63940  10.016  12.754  12.310
54034SOL    HW163941  10.063  12.829  12.346
54034SOL    HW263942   9.945  12.738  12.372
54035SOL     OW63943   6.553   6.599   7.099
54035SOL    HW163944   6.514   6.666   7.155
54035SOL    HW263945   6.504   6.519   7.119
54036SOL     OW63946   5.840   3.475   6.100
54036SOL    HW163947   5.792   3.464   6.182
54036SOL    HW263948   5.879   3.389   6.083
54037SOL     OW63949   9.681   1.488   3.417
54037SOL    HW163950   9.632   1.570   3.416
54037SOL    HW263951   9.769   1.511   3.389
54038SOL     OW63952   7.317  11.042   3.417
54038SOL    HW163953   7.393  10.984   3.423
54038SOL    HW263954   7.354  11.130   3.415
54039SOL     OW63955  13.423   0.420   4.562
54039SOL    HW163956  13.386   0.373   4.637
54039SOL    HW263957  13.516   0.398   4.563
54040SOL     OW63958   0.917   9.523  10.152
54040SOL    HW163959   0.997   9.542  10.102
54040SOL    HW263960   0.850   9.511  10.085
54041SOL     OW63961   1.869   3.986   9.305
54041SOL    HW163962   1.908   3.949   9.385
54041SOL    HW263963   1.865   3.913   9.244
54042SOL     OW63964  13.295   6.040  11.090
54042SOL    HW163965  13.316   6.120  11.041
54042SOL    HW263966  13.367   5.980  11.070
54043SOL     OW63967   4.114   6.373  11.385
54043SOL    HW163968   4.110   6.464  11.412
54043SOL    HW263969   4.073   6.325  11.457
54044SOL     OW63970  13.969   2.579  11.252
54044SOL    HW163971  13.942   2.662  11.291
54044SOL    HW263972  13.891   2.524  11.254
54045SOL     OW63973   4.767   5.991   1.979
54045SOL    HW163974   4.742   5.922   2.040
54045SOL    HW263975   4.693   6.052   1.980
54046SOL     OW63976   5.652  12.781   9.207
54046SOL    HW163977   5.560  12.756   9.203
54046SOL    HW263978   5.698  12.699   9.224
54047SOL     OW63979   5.360   3.160   1.480
54047SOL    HW163980   5.323   3.214   1.550
54047SOL    HW263981   5.319   3.074   1.492
54048SOL     OW63982   6.765   8.568   6.918
54048SOL    HW163983   6.789   8.584   7.009
54048SOL    HW263984   6.728   8.651   6.888
54049SOL     OW63985  10.062   1.133   7.355
54049SOL    HW163986  10.151   1.105   7.378
54049SOL    HW263987  10.047   1.096   7.268
54050SOL     OW63988   4.211   7.539  11.453
54050SOL    HW163989   4.197   7.575  11.365
54050SOL    HW263990   4.203   7.614  11.511
54051SOL     OW63991   1.493  14.085   6.141
54051SOL    HW163992   1.425  14.028   6.107
54051SOL    HW263993   1.538  14.118   6.063
54052SOL     OW63994   1.229   2.958   1.188
54052SOL    HW163995   1.232   2.935   1.281
54052SOL    HW263996   1.139   2.943   1.162
54053SOL     OW63997   4.190   5.591   4.939
54053SOL    HW163998   4.265   5.620   4.989
54053SOL    HW263999   4.213   5.609   4.848
54054SOL     OW64000   2.212  11.938   7.388
54054SOL    HW164001   2.209  11.844   7.403
54054SOL    HW264002   2.134  11.957   7.336
54055SOL     OW64003   1.905  14.389  13.641
54055SOL    HW164004   1.861  14.341  13.712
54055SOL    HW264005   1.925  14.323  13.576
54056SOL     OW64006   8.946   6.347   5.792
54056SOL    HW164007   9.004   6.423   5.785
54056SOL    HW264008   8.967   6.310   5.878
54057SOL     OW64009   8.901   7.911   0.877
54057SOL    HW164010   8.907   7.825   0.918
54057SOL    HW264011   8.853   7.965   0.941
54058SOL     OW64012   8.982  12.859   7.312
54058SOL    HW164013   8.896  12.874   7.351
54058SOL    HW264014   8.981  12.909   7.231
54059SOL     OW64015  13.460  11.514   4.392
54059SOL    HW164016  13.439  11.445   4.455
54059SOL    HW264017  13.550  11.538   4.411
54060SOL     OW64018  14.652   4.632  12.559
54060SOL    HW164019  14.647   4.677  12.475
54060SOL    HW264020  14.700   4.692  12.616
54061SOL     OW64021   2.666   1.159   8.625
54061SOL    HW164022   2.659   1.134   8.533
54061SOL    HW264023   2.576   1.155   8.658
54062SOL     OW64024   6.773   9.846  14.274
54062SOL    HW164025   6.770   9.887  14.361
54062SOL    HW264026   6.817   9.910  14.219
54063SOL     OW64027   5.668  10.990  12.965
54063SOL    HW164028   5.598  10.941  12.922
54063SOL    HW264029   5.698  10.933  13.036
54064SOL     OW64030  14.256  10.284   4.700
54064SOL    HW164031  14.234  10.354   4.639
54064SOL    HW264032  14.294  10.329   4.776
54065SOL     OW64033  14.505  11.340  14.573
54065SOL    HW164034  14.514  11.339  14.478
54065SOL    HW264035  14.512  11.433  14.596
54066SOL     OW64036   0.049   0.533  11.318
54066SOL    HW164037   0.099   0.474  11.262
54066SOL    HW264038   0.109   0.555  11.389
54067SOL     OW64039  11.060  11.411   3.261
54067SOL    HW164040  11.105  11.487   3.298
54067SOL    HW264041  11.058  11.348   3.333
54068SOL     OW64042   8.025   9.064   4.474
54068SOL    HW164043   7.944   9.095   4.512
54068SOL    HW264044   8.086   9.058   4.548
54069SOL     OW64045  12.829   0.407   6.676
54069SOL    HW164046  12.799   0.447   6.594
54069SOL    HW264047  12.924   0.401   6.667
54070SOL     OW64048   9.073   9.180   2.685
54070SOL    HW164049   9.061   9.239   2.759
54070SOL    HW264050   9.086   9.094   2.725
54071SOL     OW64051   9.584  11.704   8.966
54071SOL    HW164052   9.533  11.630   8.931
54071SOL    HW264053   9.661  11.663   9.005
54072SOL     OW64054  13.048   0.136   9.642
54072SOL    HW164055  13.115   0.119   9.576
54072SOL    HW264056  12.966   0.113   9.598
54073SOL     OW64057  13.618  10.568   5.221
54073SOL    HW164058  13.712  10.552   5.208
54073SOL    HW264059  13.605  10.559   5.315
54074SOL     OW64060   3.184   1.405  14.151
54074SOL    HW164061   3.171   1.485  14.100
54074SOL    HW264062   3.099   1.362  14.150
54075SOL     OW64063   4.159  12.337  13.056
54075SOL    HW164064   4.118  12.251  13.067
54075SOL    HW264065   4.253  12.321  13.067
54076SOL     OW64066  10.430  11.327   7.010
54076SOL    HW164067  10.494  11.316   7.081
54076SOL    HW264068  10.354  11.367   7.052
54077SOL     OW64069   3.653   0.302   2.231
54077SOL    HW164070   3.665   0.256   2.314
54077SOL    HW264071   3.664   0.233   2.164
54078SOL     OW64072   2.435  13.023   3.596
54078SOL    HW164073   2.370  12.971   3.643
54078SOL    HW264074   2.388  13.103   3.571
54079SOL     OW64075   0.621  13.447   7.736
54079SOL    HW164076   0.613  13.494   7.818
54079SOL    HW264077   0.715  13.439   7.721
54080SOL     OW64078  12.936   7.285  14.030
54080SOL    HW164079  12.959   7.346  14.101
54080SOL    HW264080  12.962   7.199  14.065
54081SOL     OW64081   9.588   8.524   3.909
54081SOL    HW164082   9.681   8.533   3.932
54081SOL    HW264083   9.545   8.595   3.956
54082SOL     OW64084   2.169  11.220   7.378
54082SOL    HW164085   2.261  11.247   7.381
54082SOL    HW264086   2.133  11.263   7.301
54083SOL     OW64087   9.955   7.217   8.467
54083SOL    HW164088   9.873   7.224   8.417
54083SOL    HW264089   9.960   7.299   8.517
54084SOL     OW64090   2.206   3.752  10.973
54084SOL    HW164091   2.298   3.730  10.987
54084SOL    HW264092   2.166   3.671  10.942
54085SOL     OW64093   0.306  14.750   3.449
54085SOL    HW164094   0.366  14.775   3.520
54085SOL    HW264095   0.332  14.806   3.376
54086SOL     OW64096   3.113  12.488  14.205
54086SOL    HW164097   3.034  12.469  14.256
54086SOL    HW264098   3.180  12.431  14.243
54087SOL     OW64099  14.389  12.870   4.550
54087SOL    HW164100  14.423  12.938   4.609
54087SOL    HW264101  14.405  12.905   4.462
54088SOL     OW64102   1.438   1.615  12.890
54088SOL    HW164103   1.415   1.702  12.856
54088SOL    HW264104   1.372   1.599  12.957
54089SOL     OW64105   3.549   8.403   6.109
54089SOL    HW164106   3.455   8.406   6.092
54089SOL    HW264107   3.582   8.338   6.047
54090SOL     OW64108  13.995   4.015   8.892
54090SOL    HW164109  13.973   4.016   8.985
54090SOL    HW264110  14.081   4.057   8.887
54091SOL     OW64111   5.500   4.104  11.204
54091SOL    HW164112   5.476   4.119  11.113
54091SOL    HW264113   5.595   4.114  11.206
54092SOL     OW64114   5.465  13.849   0.955
54092SOL    HW164115   5.522  13.772   0.949
54092SOL    HW264116   5.525  13.922   0.974
54093SOL     OW64117   5.984   6.441   3.223
54093SOL    HW164118   6.003   6.472   3.135
54093SOL    HW264119   5.891   6.462   3.237
54094SOL     OW64120   0.167   9.531   0.832
54094SOL    HW164121   0.223   9.598   0.871
54094SOL    HW264122   0.147   9.565   0.745
54095SOL     OW64123  14.790   2.519   9.426
54095SOL    HW164124   0.002   2.543   9.410
54095SOL    HW264125  14.794   2.451   9.492
54096SOL     OW64126   1.754   8.287   4.753
54096SOL    HW164127   1.714   8.372   4.771
54096SOL    HW264128   1.730   8.268   4.662
54097SOL     OW64129   6.056  12.285   7.092
54097SOL    HW164130   6.004  12.239   7.026
54097SOL    HW264131   6.143  12.291   7.054
54098SOL     OW64132   5.032  14.660   3.348
54098SOL    HW164133   5.004  14.621   3.266
54098SOL    HW264134   5.070  14.744   3.323
54099SOL     OW64135   3.406   3.443  12.332
54099SOL    HW164136   3.453   3.459  12.250
54099SOL    HW264137   3.328   3.497  12.326
54100SOL     OW64138  10.315  11.728   0.820
54100SOL    HW164139  10.351  11.640   0.832
54100SOL    HW264140  10.329  11.771   0.905
54101SOL     OW64141  10.073   5.990   0.320
54101SOL    HW164142  10.105   6.070   0.362
54101SOL    HW264143  10.094   5.920   0.382
54102SOL     OW64144  10.719  11.013   6.945
54102SOL    HW164145  10.769  11.002   6.864
54102SOL    HW264146  10.629  10.996   6.919
54103SOL     OW64147   6.098   6.696   7.733
54103SOL    HW164148   6.176   6.721   7.684
54103SOL    HW264149   6.126   6.695   7.824
54104SOL     OW64150   0.226   4.806   1.991
54104SOL    HW164151   0.197   4.722   1.956
54104SOL    HW264152   0.209   4.799   2.085
54105SOL     OW64153   5.745   2.011   6.748
54105SOL    HW164154   5.665   2.064   6.751
54105SOL    HW264155   5.787   2.035   6.666
54106SOL     OW64156   1.800   0.233   9.466
54106SOL    HW164157   1.716   0.275   9.447
54106SOL    HW264158   1.840   0.288   9.532
54107SOL     OW64159  13.067   0.652  12.264
54107SOL    HW164160  13.122   0.584  12.226
54107SOL    HW264161  13.125   0.697  12.326
54108SOL     OW64162  14.359   7.229  12.852
54108SOL    HW164163  14.350   7.319  12.822
54108SOL    HW264164  14.376   7.237  12.946
54109SOL     OW64165   7.444  14.527  14.553
54109SOL    HW164166   7.444  14.504  14.646
54109SOL    HW264167   7.530  14.499  14.521
54110SOL     OW64168   8.507  11.586   1.031
54110SOL    HW164169   8.566  11.615   0.962
54110SOL    HW264170   8.475  11.500   1.001
54111SOL     OW64171  11.729  12.956   7.242
54111SOL    HW164172  11.684  13.018   7.183
54111SOL    HW264173  11.765  13.011   7.311
54112SOL     OW64174   6.081  14.676  10.630
54112SOL    HW164175   6.022  14.604  10.655
54112SOL    HW264176   6.137  14.689  10.706
54113SOL     OW64177   4.967  10.399   5.404
54113SOL    HW164178   4.886  10.388   5.454
54113SOL    HW264179   5.033  10.349   5.453
54114SOL     OW64180   2.106   7.029   2.914
54114SOL    HW164181   2.137   7.007   2.826
54114SOL    HW264182   2.088   7.123   2.911
54115SOL     OW64183  11.698  10.259   7.879
54115SOL    HW164184  11.654  10.343   7.895
54115SOL    HW264185  11.791  10.277   7.894
54116SOL     OW64186   9.334  11.400   2.310
54116SOL    HW164187   9.300  11.329   2.364
54116SOL    HW264188   9.257  11.453   2.289
54117SOL     OW64189  14.019   1.809   8.464
54117SOL    HW164190  13.951   1.857   8.512
54117SOL    HW264191  14.082   1.877   8.437
54118SOL     OW64192   7.915  11.368   6.111
54118SOL    HW164193   7.841  11.404   6.062
54118SOL    HW264194   7.905  11.406   6.199
54119SOL     OW64195  10.667   2.349   4.675
54119SOL    HW164196  10.695   2.283   4.739
54119SOL    HW264197  10.621   2.414   4.728
54120SOL     OW64198   7.417   8.943   2.953
54120SOL    HW164199   7.369   8.886   2.893
54120SOL    HW264200   7.425   8.891   3.034
54121SOL     OW64201   3.623  14.315   4.441
54121SOL    HW164202   3.537  14.273   4.433
54121SOL    HW264203   3.673  14.255   4.497
54122SOL     OW64204   8.341   4.150  14.575
54122SOL    HW164205   8.396   4.208  14.522
54122SOL    HW264206   8.294   4.097  14.511
54123SOL     OW64207   2.382   9.260   9.621
54123SOL    HW164208   2.412   9.346   9.651
54123SOL    HW264209   2.445   9.234   9.555
54124SOL     OW64210   3.252   2.825  14.708
54124SOL    HW164211   3.329   2.881  14.709
54124SOL    HW264212   3.251   2.783  14.794
54125SOL     OW64213  12.860   8.095   2.008
54125SOL    HW164214  12.792   8.028   1.999
54125SOL    HW264215  12.877   8.100   2.102
54126SOL     OW64216   8.095   2.162  14.130
54126SOL    HW164217   8.153   2.150  14.055
54126SOL    HW264218   8.144   2.219  14.190
54127SOL     OW64219   1.622   5.648   3.674
54127SOL    HW164220   1.644   5.725   3.621
54127SOL    HW264221   1.532   5.663   3.703
54128SOL     OW64222   9.341  10.271  12.902
54128SOL    HW164223   9.358  10.341  12.839
54128SOL    HW264224   9.279  10.213  12.857
54129SOL     OW64225  14.136   4.103  12.913
54129SOL    HW164226  14.121   4.046  12.988
54129SOL    HW264227  14.057   4.157  12.908
54130SOL     OW64228   0.489   5.056   9.656
54130SOL    HW164229   0.431   5.123   9.692
54130SOL    HW264230   0.441   4.974   9.668
54131SOL     OW64231  13.347  12.120   4.094
54131SOL    HW164232  13.366  12.039   4.047
54131SOL    HW264233  13.405  12.117   4.170
54132SOL     OW64234   8.884   8.645  10.193
54132SOL    HW164235   8.964   8.697  10.197
54132SOL    HW264236   8.914   8.556  10.173
54133SOL     OW64237   0.935   2.973  10.672
54133SOL    HW164238   0.974   2.886  10.658
54133SOL    HW264239   0.917   2.977  10.766
54134SOL     OW64240   3.264   1.265   8.213
54134SOL    HW164241   3.289   1.306   8.296
54134SOL    HW264242   3.304   1.178   8.217
54135SOL     OW64243   2.613   3.966   4.561
54135SOL    HW164244   2.632   4.042   4.615
54135SOL    HW264245   2.678   3.970   4.490
54136SOL     OW64246   9.946   6.332   8.971
54136SOL    HW164247  10.008   6.260   8.974
54136SOL    HW264248   9.861   6.292   8.986
54137SOL     OW64249   5.288   0.652   3.641
54137SOL    HW164250   5.205   0.650   3.594
54137SOL    HW264251   5.302   0.562   3.670
54138SOL     OW64252   0.944   0.858   3.257
54138SOL    HW164253   1.025   0.895   3.224
54138SOL    HW264254   0.914   0.799   3.188
54139SOL     OW64255   5.521   1.782   4.894
54139SOL    HW164256   5.481   1.867   4.877
54139SOL    HW264257   5.574   1.796   4.973
54140SOL     OW64258  14.217   9.534   5.981
54140SOL    HW164259  14.204   9.608   5.922
54140SOL    HW264260  14.287   9.563   6.040
54141SOL     OW64261   7.907   0.073   5.508
54141SOL    HW164262   7.972   0.115   5.451
54141SOL    HW264263   7.825   0.077   5.459
54142SOL     OW64264   5.742   4.771   2.726
54142SOL    HW164265   5.668   4.801   2.673
54142SOL    HW264266   5.772   4.850   2.771
54143SOL     OW64267   1.788   8.027   5.426
54143SOL    HW164268   1.737   8.098   5.387
54143SOL    HW264269   1.729   7.988   5.491
54144SOL     OW64270   3.574   4.540  14.557
54144SOL    HW164271   3.647   4.481  14.538
54144SOL    HW264272   3.505   4.483  14.592
54145SOL     OW64273   6.476   4.110   5.923
54145SOL    HW164274   6.514   4.153   5.847
54145SOL    HW264275   6.548   4.056   5.958
54146SOL     OW64276   0.130   2.690  10.648
54146SOL    HW164277   0.161   2.690  10.738
54146SOL    HW264278   0.208   2.706  10.595
54147SOL     OW64279   6.892   7.161  10.364
54147SOL    HW164280   6.967   7.119  10.406
54147SOL    HW264281   6.902   7.254  10.385
54148SOL     OW64282   8.009  12.059   2.221
54148SOL    HW164283   7.933  12.026   2.173
54148SOL    HW264284   8.031  11.989   2.282
54149SOL     OW64285  10.707   1.814   0.306
54149SOL    HW164286  10.795   1.840   0.333
54149SOL    HW264287  10.675   1.760   0.378
54150SOL     OW64288   3.828   9.318   5.886
54150SOL    HW164289   3.881   9.281   5.815
54150SOL    HW264290   3.839   9.256   5.958
54151SOL     OW64291   7.060   5.091   4.885
54151SOL    HW164292   7.018   5.171   4.917
54151SOL    HW264293   7.040   5.025   4.952
54152SOL     OW64294   4.061   5.747   3.812
54152SOL    HW164295   4.140   5.702   3.783
54152SOL    HW264296   4.009   5.758   3.732
54153SOL     OW64297  12.537  11.371   7.137
54153SOL    HW164298  12.524  11.299   7.199
54153SOL    HW264299  12.454  11.419   7.137
54154SOL     OW64300   2.124   0.299   8.367
54154SOL    HW164301   2.158   0.342   8.446
54154SOL    HW264302   2.102   0.211   8.396
54155SOL     OW64303   7.178   6.148   4.456
54155SOL    HW164304   7.243   6.180   4.394
54155SOL    HW264305   7.217   6.162   4.542
54156SOL     OW64306   9.969   6.329   4.348
54156SOL    HW164307   9.942   6.398   4.408
54156SOL    HW264308   9.936   6.357   4.262
54157SOL     OW64309   2.668   5.230   7.096
54157SOL    HW164310   2.703   5.224   7.185
54157SOL    HW264311   2.740   5.203   7.040
54158SOL     OW64312   1.690  12.694   4.194
54158SOL    HW164313   1.595  12.682   4.187
54158SOL    HW264314   1.725  12.606   4.200
54159SOL     OW64315   1.339   1.421  13.695
54159SOL    HW164316   1.325   1.515  13.706
54159SOL    HW264317   1.346   1.387  13.784
54160SOL     OW64318  14.187  13.443  11.711
54160SOL    HW164319  14.126  13.517  11.715
54160SOL    HW264320  14.193  13.422  11.618
54161SOL     OW64321   6.399  11.368   2.816
54161SOL    HW164322   6.483  11.329   2.791
54161SOL    HW264323   6.420  11.459   2.836
54162SOL     OW64324   6.048   0.948   0.149
54162SOL    HW164325   6.122   1.009   0.150
54162SOL    HW264326   6.089   0.862   0.142
54163SOL     OW64327   3.713  11.451   7.470
54163SOL    HW164328   3.698  11.542   7.445
54163SOL    HW264329   3.807  11.439   7.462
54164SOL     OW64330   7.115   6.493   1.228
54164SOL    HW164331   7.153   6.434   1.165
54164SOL    HW264332   7.163   6.476   1.309
54165SOL     OW64333   6.403   4.033   2.351
54165SOL    HW164334   6.431   4.118   2.316
54165SOL    HW264335   6.467   4.014   2.419
54166SOL     OW64336  13.183  13.639  12.326
54166SOL    HW164337  13.172  13.690  12.245
54166SOL    HW264338  13.210  13.703  12.391
54167SOL     OW64339  11.666   7.190  13.305
54167SOL    HW164340  11.701   7.279  13.305
54167SOL    HW264341  11.578   7.199  13.341
54168SOL     OW64342  12.257  12.679  14.838
54168SOL    HW164343  12.238  12.758   0.009
54168SOL    HW264344  12.294  12.710  14.756
54169SOL     OW64345  10.525   9.654  10.396
54169SOL    HW164346  10.498   9.744  10.415
54169SOL    HW264347  10.443   9.605  10.389
54170SOL     OW64348   3.693   1.366  11.690
54170SOL    HW164349   3.764   1.353  11.628
54170SOL    HW264350   3.617   1.324  11.650
54171SOL     OW64351   7.375   1.284  13.835
54171SOL    HW164352   7.460   1.280  13.878
54171SOL    HW264353   7.323   1.343  13.890
54172SOL     OW64354   4.954   9.851  11.272
54172SOL    HW164355   4.893   9.843  11.345
54172SOL    HW264356   4.911   9.910  11.211
54173SOL     OW64357  12.438   2.420   8.764
54173SOL    HW164358  12.488   2.403   8.684
54173SOL    HW264359  12.348   2.434   8.733
54174SOL     OW64360  12.043   6.825  11.508
54174SOL    HW164361  12.003   6.895  11.456
54174SOL    HW264362  12.060   6.755  11.445
54175SOL     OW64363  14.521   4.036   8.726
54175SOL    HW164364  14.516   3.947   8.690
54175SOL    HW264365  14.596   4.075   8.682
54176SOL     OW64366  13.795   4.591   9.082
54176SOL    HW164367  13.719   4.639   9.113
54176SOL    HW264368  13.815   4.630   8.997
54177SOL     OW64369  11.619   3.351   0.496
54177SOL    HW164370  11.576   3.431   0.527
54177SOL    HW264371  11.560   3.280   0.522
54178SOL     OW64372   8.060   4.961  10.873
54178SOL    HW164373   8.060   5.021  10.948
54178SOL    HW264374   7.968   4.940  10.860
54179SOL     OW64375   1.097   9.293   3.558
54179SOL    HW164376   1.148   9.212   3.569
54179SOL    HW264377   1.094   9.306   3.463
54180SOL     OW64378   1.172  11.734  13.624
54180SOL    HW164379   1.172  11.769  13.713
54180SOL    HW264380   1.228  11.656  13.629
54181SOL     OW64381   8.974   6.899  12.536
54181SOL    HW164382   9.010   6.817  12.501
54181SOL    HW264383   8.883   6.898  12.508
54182SOL     OW64384   0.661  11.833  11.599
54182SOL    HW164385   0.633  11.771  11.532
54182SOL    HW264386   0.701  11.905  11.550
54183SOL     OW64387  12.049   3.087   3.224
54183SOL    HW164388  12.019   3.052   3.141
54183SOL    HW264389  11.972   3.130   3.262
54184SOL     OW64390  11.600   8.714   8.426
54184SOL    HW164391  11.602   8.740   8.334
54184SOL    HW264392  11.644   8.785   8.472
54185SOL     OW64393  13.150   9.249   1.260
54185SOL    HW164394  13.242   9.245   1.234
54185SOL    HW264395  13.111   9.171   1.220
54186SOL     OW64396   0.328   4.610  13.662
54186SOL    HW164397   0.304   4.539  13.602
54186SOL    HW264398   0.283   4.588  13.743
54187SOL     OW64399   7.038   9.641   0.112
54187SOL    HW164400   7.004   9.597   0.190
54187SOL    HW264401   7.129   9.659   0.132
54188SOL     OW64402  13.402  14.800   2.994
54188SOL    HW164403  13.461  14.828   2.924
54188SOL    HW264404  13.333  14.867   2.997
54189SOL     OW64405   1.033  14.482  13.944
54189SOL    HW164406   1.092  14.440  14.006
54189SOL    HW264407   1.079  14.561  13.916
54190SOL     OW64408   3.363   9.444  14.497
54190SOL    HW164409   3.423   9.438  14.571
54190SOL    HW264410   3.376   9.362  14.450
54191SOL     OW64411  10.062   1.681   6.807
54191SOL    HW164412  10.064   1.768   6.766
54191SOL    HW264413  10.089   1.697   6.898
54192SOL     OW64414  10.242  13.203   8.585
54192SOL    HW164415  10.281  13.183   8.670
54192SOL    HW264416  10.302  13.268   8.547
54193SOL     OW64417   2.078   2.254   9.654
54193SOL    HW164418   2.025   2.176   9.667
54193SOL    HW264419   2.163   2.222   9.624
54194SOL     OW64420  10.546  12.461   1.534
54194SOL    HW164421  10.637  12.466   1.566
54194SOL    HW264422  10.538  12.371   1.502
54195SOL     OW64423   2.565   2.262  12.966
54195SOL    HW164424   2.523   2.206  13.031
54195SOL    HW264425   2.592   2.202  12.897
54196SOL     OW64426   2.439   0.837   7.331
54196SOL    HW164427   2.468   0.913   7.280
54196SOL    HW264428   2.365   0.871   7.383
54197SOL     OW64429   5.069   6.082   1.473
54197SOL    HW164430   5.101   6.171   1.490
54197SOL    HW264431   5.147   6.027   1.483
54198SOL     OW64432  13.378  14.095   2.275
54198SOL    HW164433  13.304  14.088   2.214
54198SOL    HW264434  13.399  14.004   2.297
54199SOL     OW64435   6.335   7.622   0.486
54199SOL    HW164436   6.347   7.661   0.572
54199SOL    HW264437   6.424   7.612   0.451
54200SOL     OW64438  13.951   0.531   1.279
54200SOL    HW164439  13.908   0.445   1.271
54200SOL    HW264440  14.012   0.521   1.352
54201SOL     OW64441  14.097   9.250   9.195
54201SOL    HW164442  14.099   9.318   9.128
54201SOL    HW264443  14.126   9.294   9.275
54202SOL     OW64444   5.611  13.965   1.939
54202SOL    HW164445   5.705  13.961   1.925
54202SOL    HW264446   5.574  13.966   1.850
54203SOL     OW64447   0.506  12.375  11.285
54203SOL    HW164448   0.576  12.331  11.237
54203SOL    HW264449   0.551  12.415  11.360
54204SOL     OW64450   6.361   3.212  11.033
54204SOL    HW164451   6.305   3.267  11.088
54204SOL    HW264452   6.307   3.191  10.956
54205SOL     OW64453  11.041   9.620   4.586
54205SOL    HW164454  11.051   9.543   4.531
54205SOL    HW264455  11.076   9.693   4.534
54206SOL     OW64456   4.451   4.428  12.081
54206SOL    HW164457   4.544   4.443  12.063
54206SOL    HW264458   4.422   4.371  12.010
54207SOL     OW64459  10.585   0.555  11.005
54207SOL    HW164460  10.666   0.603  10.985
54207SOL    HW264461  10.517   0.623  11.006
54208SOL     OW64462   3.388   2.535  13.947
54208SOL    HW164463   3.328   2.471  13.908
54208SOL    HW264464   3.473   2.515  13.909
54209SOL     OW64465   6.490  11.574  11.893
54209SOL    HW164466   6.467  11.529  11.812
54209SOL    HW264467   6.517  11.503  11.952
54210SOL     OW64468   1.228  10.034   3.149
54210SOL    HW164469   1.144  10.045   3.195
54210SOL    HW264470   1.203  10.011   3.060
54211SOL     OW64471  13.287   6.973   8.133
54211SOL    HW164472  13.259   7.064   8.138
54211SOL    HW264473  13.213   6.928   8.092
54212SOL     OW64474   6.407   6.966  11.812
54212SOL    HW164475   6.429   6.986  11.721
54212SOL    HW264476   6.360   6.883  11.809
54213SOL     OW64477   5.401   2.122   0.177
54213SOL    HW164478   5.395   2.149   0.086
54213SOL    HW264479   5.429   2.031   0.174
54214SOL     OW64480   1.552   4.195   5.058
54214SOL    HW164481   1.568   4.101   5.056
54214SOL    HW264482   1.479   4.209   4.997
54215SOL     OW64483   4.989  11.956   9.231
54215SOL    HW164484   5.011  11.866   9.205
54215SOL    HW264485   4.894  11.957   9.237
54216SOL     OW64486   6.584   1.995   9.812
54216SOL    HW164487   6.617   1.936   9.880
54216SOL    HW264488   6.655   2.002   9.749
54217SOL     OW64489   5.897  11.804  10.270
54217SOL    HW164490   5.986  11.769  10.265
54217SOL    HW264491   5.903  11.891  10.232
54218SOL     OW64492  11.365   6.099   3.000
54218SOL    HW164493  11.277   6.133   2.983
54218SOL    HW264494  11.416   6.124   2.923
54219SOL     OW64495  11.762   9.038   9.140
54219SOL    HW164496  11.829   9.000   9.197
54219SOL    HW264497  11.724   8.963   9.094
54220SOL     OW64498  14.125  11.898   4.320
54220SOL    HW164499  14.161  11.830   4.378
54220SOL    HW264500  14.056  11.938   4.372
54221SOL     OW64501  13.077   7.959   3.289
54221SOL    HW164502  13.077   7.878   3.338
54221SOL    HW264503  13.146   7.948   3.223
54222SOL     OW64504  11.026   2.840   6.087
54222SOL    HW164505  11.032   2.929   6.122
54222SOL    HW264506  11.002   2.851   5.995
54223SOL     OW64507   4.630  13.164   2.394
54223SOL    HW164508   4.647  13.091   2.454
54223SOL    HW264509   4.574  13.224   2.444
54224SOL     OW64510  12.277   4.714   7.535
54224SOL    HW164511  12.319   4.764   7.605
54224SOL    HW264512  12.283   4.769   7.458
54225SOL     OW64513   8.312  10.233  12.892
54225SOL    HW164514   8.335  10.190  12.975
54225SOL    HW264515   8.246  10.298  12.916
54226SOL     OW64516   6.163   2.746   5.219
54226SOL    HW164517   6.163   2.654   5.194
54226SOL    HW264518   6.100   2.787   5.159
54227SOL     OW64519  11.634  13.319   1.522
54227SOL    HW164520  11.725  13.326   1.553
54227SOL    HW264521  11.627  13.387   1.455
54228SOL     OW64522   9.383  12.533   3.957
54228SOL    HW164523   9.367  12.619   3.918
54228SOL    HW264524   9.301  12.509   3.998
54229SOL     OW64525   7.260   3.559   7.887
54229SOL    HW164526   7.253   3.641   7.936
54229SOL    HW264527   7.354   3.546   7.874
54230SOL     OW64528  13.324   4.631   2.604
54230SOL    HW164529  13.305   4.556   2.548
54230SOL    HW264530  13.242   4.681   2.605
54231SOL     OW64531  11.244   9.653   6.350
54231SOL    HW164532  11.219   9.743   6.329
54231SOL    HW264533  11.164   9.615   6.388
54232SOL     OW64534   0.531   1.953   0.378
54232SOL    HW164535   0.446   1.910   0.388
54232SOL    HW264536   0.549   1.948   0.284
54233SOL     OW64537  10.936   0.277  12.357
54233SOL    HW164538  10.950   0.183  12.370
54233SOL    HW264539  11.010   0.318  12.401
54234SOL     OW64540   0.763   7.686   6.168
54234SOL    HW164541   0.797   7.695   6.079
54234SOL    HW264542   0.706   7.762   6.180
54235SOL     OW64543  13.366   6.297   7.877
54235SOL    HW164544  13.385   6.352   7.952
54235SOL    HW264545  13.372   6.207   7.911
54236SOL     OW64546   5.856  14.554   4.718
54236SOL    HW164547   5.801  14.555   4.639
54236SOL    HW264548   5.895  14.642   4.721
54237SOL     OW64549  12.785  13.755  11.994
54237SOL    HW164550  12.719  13.819  11.965
54237SOL    HW264551  12.771  13.679  11.937
54238SOL     OW64552   7.923  10.147   6.131
54238SOL    HW164553   7.844  10.175   6.179
54238SOL    HW264554   7.919  10.051   6.133
54239SOL     OW64555   4.256   3.219   6.519
54239SOL    HW164556   4.222   3.302   6.485
54239SOL    HW264557   4.214   3.209   6.604
54240SOL     OW64558   9.455   3.588  11.163
54240SOL    HW164559   9.384   3.579  11.227
54240SOL    HW264560   9.493   3.500  11.157
54241SOL     OW64561   1.696   2.343   5.055
54241SOL    HW164562   1.699   2.251   5.083
54241SOL    HW264563   1.787   2.373   5.061
54242SOL     OW64564   4.269  12.129   7.569
54242SOL    HW164565   4.257  12.051   7.515
54242SOL    HW264566   4.272  12.096   7.659
54243SOL     OW64567   2.117  11.331   8.595
54243SOL    HW164568   2.132  11.278   8.517
54243SOL    HW264569   2.025  11.318   8.616
54244SOL     OW64570   7.218   5.806   9.827
54244SOL    HW164571   7.211   5.772   9.916
54244SOL    HW264572   7.266   5.889   9.837
54245SOL     OW64573   0.881  11.211   0.089
54245SOL    HW164574   0.806  11.171   0.133
54245SOL    HW264575   0.893  11.295   0.133
54246SOL     OW64576   4.646   3.569   4.700
54246SOL    HW164577   4.651   3.560   4.795
54246SOL    HW264578   4.559   3.604   4.683
54247SOL     OW64579  14.602   9.520   5.840
54247SOL    HW164580  14.634   9.479   5.921
54247SOL    HW264581  14.673   9.508   5.777
54248SOL     OW64582  11.785  14.499  13.118
54248SOL    HW164583  11.726  14.504  13.043
54248SOL    HW264584  11.752  14.427  13.171
54249SOL     OW64585   9.204  14.238   8.658
54249SOL    HW164586   9.121  14.245   8.705
54249SOL    HW264587   9.179  14.227   8.566
54250SOL     OW64588  14.494   7.510   0.295
54250SOL    HW164589  14.514   7.604   0.300
54250SOL    HW264590  14.445   7.492   0.375
54251SOL     OW64591   0.229   7.513   2.824
54251SOL    HW164592   0.143   7.477   2.842
54251SOL    HW264593   0.212   7.585   2.762
54252SOL     OW64594   5.884  14.540   3.243
54252SOL    HW164595   5.975  14.519   3.221
54252SOL    HW264596   5.854  14.594   3.171
54253SOL     OW64597   1.807   4.921  12.950
54253SOL    HW164598   1.807   4.966  13.034
54253SOL    HW264599   1.897   4.892  12.937
54254SOL     OW64600   8.883  11.940   4.917
54254SOL    HW164601   8.878  11.844   4.921
54254SOL    HW264602   8.814  11.969   4.977
54255SOL     OW64603   1.654  11.583  13.834
54255SOL    HW164604   1.723  11.621  13.780
54255SOL    HW264605   1.696  11.510  13.880
54256SOL     OW64606  11.800   9.288   0.107
54256SOL    HW164607  11.844   9.322   0.185
54256SOL    HW264608  11.708   9.313   0.119
54257SOL     OW64609  10.220   9.824  14.581
54257SOL    HW164610  10.143   9.800  14.632
54257SOL    HW264611  10.204   9.788  14.494
54258SOL     OW64612   3.978   3.519  14.378
54258SOL    HW164613   3.986   3.490  14.469
54258SOL    HW264614   3.972   3.614  14.384
54259SOL     OW64615   0.930   6.374  11.560
54259SOL    HW164616   0.853   6.386  11.505
54259SOL    HW264617   0.898   6.390  11.649
54260SOL     OW64618   2.991   2.618  12.056
54260SOL    HW164619   3.008   2.614  12.150
54260SOL    HW264620   2.921   2.683  12.048
54261SOL     OW64621   8.860  12.282   8.160
54261SOL    HW164622   8.895  12.284   8.249
54261SOL    HW264623   8.857  12.373   8.134
54262SOL     OW64624  10.124   9.941   5.601
54262SOL    HW164625  10.132   9.895   5.518
54262SOL    HW264626  10.103   9.872   5.664
54263SOL     OW64627   9.485  13.413   1.706
54263SOL    HW164628   9.392  13.434   1.709
54263SOL    HW264629   9.497  13.364   1.625
54264SOL     OW64630   5.724  13.260   9.937
54264SOL    HW164631   5.657  13.193   9.950
54264SOL    HW264632   5.688  13.338   9.979
54265SOL     OW64633   6.592   2.189   1.497
54265SOL    HW164634   6.548   2.274   1.493
54265SOL    HW264635   6.555   2.139   1.424
54266SOL     OW64636   7.526  11.554   5.152
54266SOL    HW164637   7.451  11.517   5.105
54266SOL    HW264638   7.495  11.640   5.180
54267SOL     OW64639   8.956   5.506  10.860
54267SOL    HW164640   9.005   5.578  10.899
54267SOL    HW264641   8.957   5.525  10.766
54268SOL     OW64642   3.964   9.405   3.207
54268SOL    HW164643   3.982   9.467   3.277
54268SOL    HW264644   3.980   9.319   3.246
54269SOL     OW64645  14.855  14.537  14.154
54269SOL    HW164646   0.003  14.486  14.078
54269SOL    HW264647   0.004  14.484  14.229
54270SOL     OW64648   7.227   2.752  12.825
54270SOL    HW164649   7.224   2.782  12.734
54270SOL    HW264650   7.163   2.682  12.830
54271SOL     OW64651   2.702   0.233  11.484
54271SOL    HW164652   2.790   0.252  11.452
54271SOL    HW264653   2.699   0.137  11.491
54272SOL     OW64654   2.776  12.818   6.596
54272SOL    HW164655   2.728  12.741   6.626
54272SOL    HW264656   2.715  12.891   6.612
54273SOL     OW64657   5.668   9.637   7.494
54273SOL    HW164658   5.741   9.679   7.448
54273SOL    HW264659   5.670   9.676   7.581
54274SOL     OW64660   5.781   8.691  12.938
54274SOL    HW164661   5.753   8.603  12.961
54274SOL    HW264662   5.834   8.680  12.859
54275SOL     OW64663  10.794   4.454  12.962
54275SOL    HW164664  10.815   4.547  12.965
54275SOL    HW264665  10.878   4.410  12.964
54276SOL     OW64666   8.721  14.810   8.514
54276SOL    HW164667   8.660  14.740   8.537
54276SOL    HW264668   8.765  14.830   8.597
54277SOL     OW64669  12.878  12.495   3.427
54277SOL    HW164670  12.912  12.410   3.399
54277SOL    HW264671  12.896  12.498   3.521
54278SOL     OW64672   3.373   4.369   3.101
54278SOL    HW164673   3.369   4.456   3.140
54278SOL    HW264674   3.284   4.335   3.109
54279SOL     OW64675  12.391   7.678  11.614
54279SOL    HW164676  12.464   7.701  11.556
54279SOL    HW264677  12.386   7.583  11.610
54280SOL     OW64678  13.997   0.910   0.113
54280SOL    HW164679  13.940   0.930   0.038
54280SOL    HW264680  14.029   0.822   0.096
54281SOL     OW64681  13.036   2.471   5.598
54281SOL    HW164682  13.117   2.520   5.609
54281SOL    HW264683  12.980   2.500   5.670
54282SOL     OW64684   0.315   4.506  10.598
54282SOL    HW164685   0.324   4.533  10.506
54282SOL    HW264686   0.286   4.415  10.593
54283SOL     OW64687   9.543   7.618  13.216
54283SOL    HW164688   9.475   7.557  13.186
54283SOL    HW264689   9.538   7.692  13.154
54284SOL     OW64690  10.464   1.333  12.831
54284SOL    HW164691  10.420   1.380  12.901
54284SOL    HW264692  10.521   1.270  12.876
54285SOL     OW64693   1.804   0.896  13.082
54285SOL    HW164694   1.832   0.954  13.011
54285SOL    HW264695   1.752   0.952  13.139
54286SOL     OW64696   8.110   5.324  11.549
54286SOL    HW164697   8.016   5.307  11.536
54286SOL    HW264698   8.136   5.261  11.616
54287SOL     OW64699   6.262  14.733  12.521
54287SOL    HW164700   6.225  14.664  12.576
54287SOL    HW264701   6.319  14.783  12.580
54288SOL     OW64702   7.589   5.908   2.828
54288SOL    HW164703   7.669   5.956   2.849
54288SOL    HW264704   7.519   5.960   2.868
54289SOL     OW64705   6.835   5.120  12.752
54289SOL    HW164706   6.890   5.159  12.684
54289SOL    HW264707   6.746   5.142  12.725
54290SOL     OW64708  13.092   0.864  14.774
54290SOL    HW164709  13.047   0.918  14.839
54290SOL    HW264710  13.177   0.906  14.761
54291SOL     OW64711   0.540  11.261   9.896
54291SOL    HW164712   0.604  11.190   9.900
54291SOL    HW264713   0.503  11.265   9.984
54292SOL     OW64714  10.285   3.935   4.067
54292SOL    HW164715  10.296   3.983   3.985
54292SOL    HW264716  10.207   3.881   4.053
54293SOL     OW64717   0.989   7.666   8.218
54293SOL    HW164718   1.056   7.670   8.285
54293SOL    HW264719   0.971   7.573   8.208
54294SOL     OW64720   4.133   4.502  10.860
54294SOL    HW164721   4.148   4.420  10.907
54294SOL    HW264722   4.208   4.509  10.801
54295SOL     OW64723   2.337   5.160  11.817
54295SOL    HW164724   2.338   5.117  11.903
54295SOL    HW264725   2.245   5.161  11.792
54296SOL     OW64726   2.723  10.895   5.599
54296SOL    HW164727   2.783  10.933   5.535
54296SOL    HW264728   2.674  10.970   5.633
54297SOL     OW64729  12.107   3.547   2.498
54297SOL    HW164730  12.192   3.582   2.471
54297SOL    HW264731  12.127   3.464   2.540
54298SOL     OW64732   7.615  10.889  12.652
54298SOL    HW164733   7.629  10.839  12.732
54298SOL    HW264734   7.605  10.980  12.682
54299SOL     OW64735   1.108  14.470  11.233
54299SOL    HW164736   1.112  14.427  11.318
54299SOL    HW264737   1.047  14.418  11.182
54300SOL     OW64738   5.943   9.296   3.330
54300SOL    HW164739   5.982   9.322   3.414
54300SOL    HW264740   5.851   9.281   3.350
54301SOL     OW64741   0.831   7.184  12.496
54301SOL    HW164742   0.874   7.269  12.504
54301SOL    HW264743   0.739   7.204  12.481
54302SOL     OW64744   7.718   2.423   4.687
54302SOL    HW164745   7.810   2.439   4.667
54302SOL    HW264746   7.719   2.384   4.774
54303SOL     OW64747   3.232   4.633   2.179
54303SOL    HW164748   3.162   4.640   2.243
54303SOL    HW264749   3.307   4.677   2.219
54304SOL     OW64750   5.298   5.068   2.038
54304SOL    HW164751   5.361   5.139   2.046
54304SOL    HW264752   5.350   4.988   2.042
54305SOL     OW64753   0.596  13.937   5.132
54305SOL    HW164754   0.553  13.853   5.121
54305SOL    HW264755   0.543  13.999   5.081
54306SOL     OW64756   9.556  12.296  11.268
54306SOL    HW164757   9.644  12.335  11.271
54306SOL    HW264758   9.556  12.245  11.186
54307SOL     OW64759   9.460   7.924   0.370
54307SOL    HW164760   9.438   7.916   0.463
54307SOL    HW264761   9.375   7.936   0.327
54308SOL     OW64762   7.798   1.646   7.937
54308SOL    HW164763   7.770   1.585   7.869
54308SOL    HW264764   7.718   1.666   7.985
54309SOL     OW64765   6.516   9.530   3.287
54309SOL    HW164766   6.473   9.497   3.366
54309SOL    HW264767   6.463   9.496   3.215
54310SOL     OW64768   6.768   4.776  10.028
54310SOL    HW164769   6.774   4.872  10.035
54310SOL    HW264770   6.812   4.744  10.107
54311SOL     OW64771  13.900  14.270   3.110
54311SOL    HW164772  13.835  14.338   3.091
54311SOL    HW264773  13.978  14.297   3.061
54312SOL     OW64774   3.357   2.863   9.136
54312SOL    HW164775   3.267   2.863   9.167
54312SOL    HW264776   3.351   2.842   9.043
54313SOL     OW64777  12.937  10.369   2.987
54313SOL    HW164778  12.982  10.447   3.017
54313SOL    HW264779  12.966  10.357   2.897
54314SOL     OW64780   0.390   3.950   3.628
54314SOL    HW164781   0.338   3.875   3.657
54314SOL    HW264782   0.473   3.941   3.675
54315SOL     OW64783   5.881  14.467   2.427
54315SOL    HW164784   5.971  14.501   2.433
54315SOL    HW264785   5.888  14.390   2.371
54316SOL     OW64786   7.868   9.698  13.812
54316SOL    HW164787   7.958   9.669  13.823
54316SOL    HW264788   7.822   9.621  13.779
54317SOL     OW64789  10.404  10.632  13.784
54317SOL    HW164790  10.397  10.681  13.866
54317SOL    HW264791  10.321  10.648  13.740
54318SOL     OW64792   1.156   7.235   8.295
54318SOL    HW164793   1.129   7.296   8.363
54318SOL    HW264794   1.082   7.175   8.286
54319SOL     OW64795   9.020   8.018  10.706
54319SOL    HW164796   9.111   8.047  10.716
54319SOL    HW264797   9.020   7.927  10.736
54320SOL     OW64798   6.146   6.925  13.071
54320SOL    HW164799   6.174   6.859  13.134
54320SOL    HW264800   6.212   6.994  13.077
54321SOL     OW64801  14.022  14.467   2.689
54321SOL    HW164802  13.936  14.427   2.703
54321SOL    HW264803  14.074  14.398   2.649
54322SOL     OW64804   2.628   1.184   6.561
54322SOL    HW164805   2.642   1.140   6.477
54322SOL    HW264806   2.698   1.249   6.566
54323SOL     OW64807   6.822  11.978   8.703
54323SOL    HW164808   6.839  11.885   8.690
54323SOL    HW264809   6.753  11.999   8.640
54324SOL     OW64810   5.114   8.770   9.608
54324SOL    HW164811   5.094   8.824   9.685
54324SOL    HW264812   5.128   8.682   9.644
54325SOL     OW64813   1.320  13.780  11.040
54325SOL    HW164814   1.294  13.752  11.128
54325SOL    HW264815   1.334  13.698  10.992
54326SOL     OW64816   6.306  11.467  10.611
54326SOL    HW164817   6.325  11.379  10.576
54326SOL    HW264818   6.349  11.527  10.550
54327SOL     OW64819   6.937   0.812   0.128
54327SOL    HW164820   6.845   0.837   0.117
54327SOL    HW264821   6.969   0.867   0.199
54328SOL     OW64822   0.541  11.130   8.074
54328SOL    HW164823   0.597  11.099   8.003
54328SOL    HW264824   0.534  11.055   8.133
54329SOL     OW64825   6.458  11.142   8.248
54329SOL    HW164826   6.394  11.173   8.184
54329SOL    HW264827   6.421  11.059   8.279
54330SOL     OW64828   0.196  14.314  12.138
54330SOL    HW164829   0.245  14.269  12.207
54330SOL    HW264830   0.108  14.276  12.142
54331SOL     OW64831   7.685   5.233   2.050
54331SOL    HW164832   7.764   5.187   2.022
54331SOL    HW264833   7.632   5.165   2.092
54332SOL     OW64834   8.059   7.286   4.519
54332SOL    HW164835   8.122   7.354   4.495
54332SOL    HW264836   8.014   7.320   4.596
54333SOL     OW64837  13.699   1.799   8.186
54333SOL    HW164838  13.665   1.772   8.101
54333SOL    HW264839  13.642   1.755   8.250
54334SOL     OW64840  10.347   9.896   0.746
54334SOL    HW164841  10.394   9.950   0.809
54334SOL    HW264842  10.340   9.810   0.789
54335SOL     OW64843  14.359  13.496   1.474
54335SOL    HW164844  14.423  13.518   1.407
54335SOL    HW264845  14.307  13.576   1.484
54336SOL     OW64846  13.296   1.894  14.756
54336SOL    HW164847  13.316   1.931  14.670
54336SOL    HW264848  13.244   1.816  14.738
54337SOL     OW64849   8.670   9.382   4.213
54337SOL    HW164850   8.609   9.373   4.287
54337SOL    HW264851   8.630   9.331   4.143
54338SOL     OW64852   3.252  13.037  12.122
54338SOL    HW164853   3.338  12.996  12.119
54338SOL    HW264854   3.225  13.043  12.030
54339SOL     OW64855  14.374  12.472   2.049
54339SOL    HW164856  14.460  12.474   2.007
54339SOL    HW264857  14.389  12.505   2.138
54340SOL     OW64858  12.580  11.276   8.233
54340SOL    HW164859  12.502  11.316   8.272
54340SOL    HW264860  12.550  11.192   8.200
54341SOL     OW64861   6.015   8.055  14.243
54341SOL    HW164862   5.944   8.013  14.194
54341SOL    HW264863   5.985   8.144  14.257
54342SOL     OW64864   1.538  12.692  11.759
54342SOL    HW164865   1.480  12.648  11.820
54342SOL    HW264866   1.531  12.642  11.678
54343SOL     OW64867   1.542   3.194  12.846
54343SOL    HW164868   1.554   3.101  12.827
54343SOL    HW264869   1.515   3.233  12.763
54344SOL     OW64870  13.678   2.466   0.051
54344SOL    HW164871  13.733   2.405   0.100
54344SOL    HW264872  13.606   2.412   0.018
54345SOL     OW64873   1.601   5.448  12.942
54345SOL    HW164874   1.506   5.456  12.949
54345SOL    HW264875   1.635   5.516  13.000
54346SOL     OW64876   4.811  10.137   0.283
54346SOL    HW164877   4.793  10.141   0.377
54346SOL    HW264878   4.898  10.098   0.277
54347SOL     OW64879   4.371   8.570   0.541
54347SOL    HW164880   4.311   8.497   0.560
54347SOL    HW264881   4.397   8.602   0.627
54348SOL     OW64882   8.254  13.548   2.588
54348SOL    HW164883   8.193  13.546   2.661
54348SOL    HW264884   8.319  13.614   2.612
54349SOL     OW64885   7.738   8.851  13.645
54349SOL    HW164886   7.756   8.803  13.564
54349SOL    HW264887   7.645   8.872  13.641
54350SOL     OW64888   1.009   9.855   4.095
54350SOL    HW164889   0.966   9.924   4.145
54350SOL    HW264890   0.957   9.848   4.015
54351SOL     OW64891   0.286  12.958   4.115
54351SOL    HW164892   0.247  12.879   4.079
54351SOL    HW264893   0.292  13.019   4.042
54352SOL     OW64894   4.926   0.872  12.569
54352SOL    HW164895   4.864   0.812  12.612
54352SOL    HW264896   4.898   0.959  12.597
54353SOL     OW64897  11.858   5.888   5.102
54353SOL    HW164898  11.788   5.923   5.046
54353SOL    HW264899  11.910   5.833   5.043
54354SOL     OW64900  13.527   7.543  13.862
54354SOL    HW164901  13.432   7.531  13.863
54354SOL    HW264902  13.559   7.474  13.803
54355SOL     OW64903   3.766   3.550   4.930
54355SOL    HW164904   3.825   3.591   4.993
54355SOL    HW264905   3.762   3.458   4.956
54356SOL     OW64906  14.752  11.138  14.037
54356SOL    HW164907  14.686  11.205  14.017
54356SOL    HW264908  14.831  11.188  14.055
54357SOL     OW64909   5.078   7.617   0.643
54357SOL    HW164910   5.049   7.558   0.712
54357SOL    HW264911   5.025   7.696   0.656
54358SOL     OW64912  14.300  10.672   4.522
54358SOL    HW164913  14.369  10.607   4.521
54358SOL    HW264914  14.269  10.676   4.431
54359SOL     OW64915   8.817  10.353   8.168
54359SOL    HW164916   8.785  10.378   8.081
54359SOL    HW264917   8.840  10.436   8.210
54360SOL     OW64918   8.354   0.579  14.796
54360SOL    HW164919   8.311   0.609  14.876
54360SOL    HW264920   8.305   0.501  14.770
54361SOL     OW64921   5.139  13.036  10.277
54361SOL    HW164922   5.051  13.041  10.313
54361SOL    HW264923   5.194  13.005  10.350
54362SOL     OW64924   6.687  12.061   2.033
54362SOL    HW164925   6.647  12.098   2.112
54362SOL    HW264926   6.613  12.027   1.982
54363SOL     OW64927  14.539  10.205  14.357
54363SOL    HW164928  14.512  10.114  14.354
54363SOL    HW264929  14.573  10.217  14.446
54364SOL     OW64930   4.294   2.831  10.391
54364SOL    HW164931   4.209   2.858  10.356
54364SOL    HW264932   4.353   2.835  10.316
54365SOL     OW64933   4.278   3.511  14.550
54365SOL    HW164934   4.235   3.597  14.551
54365SOL    HW264935   4.352   3.523  14.491
54366SOL     OW64936   0.653  11.776   2.149
54366SOL    HW164937   0.605  11.858   2.135
54366SOL    HW264938   0.601  11.710   2.103
54367SOL     OW64939   4.377  14.237   1.807
54367SOL    HW164940   4.336  14.192   1.881
54367SOL    HW264941   4.380  14.170   1.738
54368SOL     OW64942   1.871   5.574   6.746
54368SOL    HW164943   1.816   5.502   6.717
54368SOL    HW264944   1.809   5.644   6.768
54369SOL     OW64945   4.720   3.538   7.070
54369SOL    HW164946   4.728   3.631   7.052
54369SOL    HW264947   4.735   3.495   6.986
54370SOL     OW64948   8.688   1.539   5.487
54370SOL    HW164949   8.629   1.605   5.522
54370SOL    HW264950   8.633   1.484   5.431
54371SOL     OW64951   8.594   9.532   9.052
54371SOL    HW164952   8.558   9.616   9.023
54371SOL    HW264953   8.580   9.533   9.147
54372SOL     OW64954  13.129   7.249   7.824
54372SOL    HW164955  13.185   7.249   7.902
54372SOL    HW264956  13.122   7.157   7.799
54373SOL     OW64957   7.410   9.273   4.202
54373SOL    HW164958   7.378   9.280   4.292
54373SOL    HW264959   7.428   9.363   4.176
54374SOL     OW64960   1.411  14.578   6.609
54374SOL    HW164961   1.398  14.539   6.695
54374SOL    HW264962   1.434  14.669   6.627
54375SOL     OW64963   6.446   7.710   4.740
54375SOL    HW164964   6.494   7.642   4.693
54375SOL    HW264965   6.381   7.741   4.678
54376SOL     OW64966   7.069   7.104  11.359
54376SOL    HW164967   7.034   7.124  11.446
54376SOL    HW264968   7.121   7.181  11.335
54377SOL     OW64969  14.710   3.536  10.265
54377SOL    HW164970  14.637   3.550  10.204
54377SOL    HW264971  14.781   3.590  10.230
54378SOL     OW64972   3.109   4.227   5.738
54378SOL    HW164973   3.175   4.162   5.763
54378SOL    HW264974   3.156   4.289   5.681
54379SOL     OW64975  12.381  11.208   9.580
54379SOL    HW164976  12.446  11.207   9.650
54379SOL    HW264977  12.305  11.250   9.618
54380SOL     OW64978   2.021   3.127  11.987
54380SOL    HW164979   2.059   3.143  11.901
54380SOL    HW264980   2.084   3.070  12.031
54381SOL     OW64981   2.133  13.766   6.343
54381SOL    HW164982   2.047  13.809   6.351
54381SOL    HW264983   2.117  13.693   6.284
54382SOL     OW64984  12.349   0.544   4.819
54382SOL    HW164985  12.316   0.527   4.730
54382SOL    HW264986  12.444   0.549   4.808
54383SOL     OW64987  11.533   4.971   3.121
54383SOL    HW164988  11.440   4.949   3.130
54383SOL    HW264989  11.534   5.048   3.063
54384SOL     OW64990   7.394   2.161   5.526
54384SOL    HW164991   7.334   2.227   5.563
54384SOL    HW264992   7.448   2.210   5.464
54385SOL     OW64993   9.013  12.222  10.870
54385SOL    HW164994   9.010  12.128  10.858
54385SOL    HW264995   8.923  12.252  10.859
54386SOL     OW64996  14.810   8.309   7.781
54386SOL    HW164997  14.752   8.369   7.735
54386SOL    HW264998  14.777   8.307   7.871
54387SOL     OW64999   9.767   4.353   5.721
54387SOL    HW165000   9.694   4.412   5.700
54387SOL    HW265001   9.746   4.319   5.808
54388SOL     OW65002   5.705   3.067   4.340
54388SOL    HW165003   5.662   3.149   4.316
54388SOL    HW265004   5.773   3.055   4.274
54389SOL     OW65005   3.175   7.434   2.427
54389SOL    HW165006   3.259   7.388   2.422
54389SOL    HW265007   3.140   7.409   2.512
54390SOL     OW65008   3.673   4.312  10.354
54390SOL    HW165009   3.607   4.244  10.347
54390SOL    HW265010   3.676   4.334  10.447
54391SOL     OW65011  12.071  12.381   4.489
54391SOL    HW165012  12.040  12.462   4.531
54391SOL    HW265013  12.103  12.409   4.404
54392SOL     OW65014   8.500   6.842   3.320
54392SOL    HW165015   8.522   6.812   3.408
54392SOL    HW265016   8.434   6.910   3.334
54393SOL     OW65017   8.417   0.487   3.558
54393SOL    HW165018   8.392   0.571   3.596
54393SOL    HW265019   8.508   0.499   3.531
54394SOL     OW65020  11.261   1.838   7.477
54394SOL    HW165021  11.171   1.827   7.447
54394SOL    HW265022  11.283   1.929   7.456
54395SOL     OW65023   3.233   0.402  11.450
54395SOL    HW165024   3.215   0.312  11.478
54395SOL    HW265025   3.147   0.441  11.437
54396SOL     OW65026   7.190  13.887   7.364
54396SOL    HW165027   7.172  13.960   7.422
54396SOL    HW265028   7.104  13.859   7.333
54397SOL     OW65029   7.016   0.188   7.273
54397SOL    HW165030   6.998   0.201   7.180
54397SOL    HW265031   7.057   0.102   7.277
54398SOL     OW65032   8.462   9.843  10.084
54398SOL    HW165033   8.448   9.924  10.134
54398SOL    HW265034   8.460   9.871   9.993
54399SOL     OW65035   2.866   3.701   9.881
54399SOL    HW165036   2.915   3.748   9.949
54399SOL    HW265037   2.779   3.741   9.884
54400SOL     OW65038   1.433  13.544   5.139
54400SOL    HW165039   1.397  13.476   5.196
54400SOL    HW265040   1.386  13.623   5.163
54401SOL     OW65041  12.203  10.063   3.982
54401SOL    HW165042  12.250   9.988   4.017
54401SOL    HW265043  12.269  10.133   3.978
54402SOL     OW65044   8.426  10.462   5.249
54402SOL    HW165045   8.488  10.414   5.303
54402SOL    HW265046   8.362  10.396   5.222
54403SOL     OW65047  10.069   7.927  10.320
54403SOL    HW165048  10.133   7.875  10.271
54403SOL    HW265049  10.031   7.986  10.255
54404SOL     OW65050   1.150  11.301   4.497
54404SOL    HW165051   1.207  11.347   4.558
54404SOL    HW265052   1.210  11.250   4.441
54405SOL     OW65053   3.201  13.527  11.111
54405SOL    HW165054   3.112  13.497  11.094
54405SOL    HW265055   3.250  13.505  11.031
54406SOL     OW65056  13.795  13.535  12.980
54406SOL    HW165057  13.739  13.481  12.924
54406SOL    HW265058  13.743  13.551  13.058
54407SOL     OW65059  13.437  12.817   9.648
54407SOL    HW165060  13.520  12.865   9.654
54407SOL    HW265061  13.444  12.749   9.714
54408SOL     OW65062   9.906  11.303   1.633
54408SOL    HW165063   9.936  11.229   1.580
54408SOL    HW265064   9.983  11.359   1.643
54409SOL     OW65065   0.524  14.485   5.956
54409SOL    HW165066   0.514  14.526   6.042
54409SOL    HW265067   0.480  14.400   5.965
54410SOL     OW65068   0.072   0.688  11.589
54410SOL    HW165069   0.033   0.615  11.638
54410SOL    HW265070   0.112   0.743  11.656
54411SOL     OW65071   6.152   3.430   9.244
54411SOL    HW165072   6.220   3.496   9.244
54411SOL    HW265073   6.074   3.475   9.275
54412SOL     OW65074   4.051   0.042   1.164
54412SOL    HW165075   4.029   0.020   1.074
54412SOL    HW265076   4.087  14.841   1.201
54413SOL     OW65077   6.078   1.479   1.104
54413SOL    HW165078   6.124   1.531   1.169
54413SOL    HW265079   6.005   1.440   1.152
54414SOL     OW65080   3.968  12.255   1.810
54414SOL    HW165081   3.977  12.279   1.718
54414SOL    HW265082   3.975  12.338   1.857
54415SOL     OW65083   9.042  11.640   8.428
54415SOL    HW165084   8.949  11.644   8.449
54415SOL    HW265085   9.045  11.613   8.336
54416SOL     OW65086   4.197   9.791   2.781
54416SOL    HW165087   4.205   9.775   2.687
54416SOL    HW265088   4.246   9.721   2.822
54417SOL     OW65089   1.492  11.393  12.709
54417SOL    HW165090   1.567  11.434  12.665
54417SOL    HW265091   1.419  11.408  12.649
54418SOL     OW65092   6.321   2.093  14.681
54418SOL    HW165093   6.355   2.162  14.738
54418SOL    HW265094   6.398   2.057  14.638
54419SOL     OW65095  11.935   7.431   6.043
54419SOL    HW165096  11.898   7.500   5.988
54419SOL    HW265097  11.926   7.464   6.132
54420SOL     OW65098  11.093  10.868   8.985
54420SOL    HW165099  11.048  10.942   8.944
54420SOL    HW265100  11.121  10.813   8.911
54421SOL     OW65101  11.654  14.022   8.632
54421SOL    HW165102  11.675  14.023   8.725
54421SOL    HW265103  11.601  13.943   8.619
54422SOL     OW65104   4.352  11.508  12.852
54422SOL    HW165105   4.362  11.587  12.905
54422SOL    HW265106   4.408  11.443  12.894
54423SOL     OW65107   4.487  12.481   9.711
54423SOL    HW165108   4.447  12.425   9.645
54423SOL    HW265109   4.473  12.570   9.680
54424SOL     OW65110  11.396   3.039  13.584
54424SOL    HW165111  11.417   3.066  13.674
54424SOL    HW265112  11.324   2.976  13.594
54425SOL     OW65113   3.794   6.448   9.587
54425SOL    HW165114   3.784   6.407   9.501
54425SOL    HW265115   3.867   6.403   9.628
54426SOL     OW65116   3.331   8.256  11.130
54426SOL    HW165117   3.335   8.252  11.226
54426SOL    HW265118   3.328   8.164  11.102
54427SOL     OW65119   9.444  10.286  12.579
54427SOL    HW165120   9.373  10.347  12.559
54427SOL    HW265121   9.409  10.200  12.557
54428SOL     OW65122   0.403   8.502  13.983
54428SOL    HW165123   0.454   8.504  14.064
54428SOL    HW265124   0.318   8.466  14.010
54429SOL     OW65125  13.629  11.910  13.726
54429SOL    HW165126  13.586  11.850  13.665
54429SOL    HW265127  13.642  11.991  13.677
54430SOL     OW65128   1.535   0.758   5.928
54430SOL    HW165129   1.602   0.780   5.863
54430SOL    HW265130   1.573   0.787   6.012
54431SOL     OW65131  13.071   6.217   3.473
54431SOL    HW165132  13.097   6.125   3.471
54431SOL    HW265133  13.145   6.263   3.514
54432SOL     OW65134   2.852   6.666  11.215
54432SOL    HW165135   2.944   6.645  11.199
54432SOL    HW265136   2.851   6.705  11.302
54433SOL     OW65137   8.098   3.297   0.731
54433SOL    HW165138   8.142   3.382   0.722
54433SOL    HW265139   8.166   3.240   0.766
54434SOL     OW65140   5.022   1.423  13.099
54434SOL    HW165141   5.034   1.349  13.159
54434SOL    HW265142   5.014   1.499  13.156
54435SOL     OW65143  12.555   2.160  13.884
54435SOL    HW165144  12.494   2.134  13.953
54435SOL    HW265145  12.499   2.172  13.807
54436SOL     OW65146   3.706  12.934   2.295
54436SOL    HW165147   3.722  13.008   2.236
54436SOL    HW265148   3.762  12.952   2.371
54437SOL     OW65149   7.043   0.539   8.761
54437SOL    HW165150   7.029   0.480   8.834
54437SOL    HW265151   7.117   0.594   8.788
54438SOL     OW65152  11.853   8.768  11.167
54438SOL    HW165153  11.851   8.781  11.072
54438SOL    HW265154  11.904   8.688  11.179
54439SOL     OW65155  12.594   8.417   6.328
54439SOL    HW165156  12.543   8.479   6.277
54439SOL    HW265157  12.563   8.331   6.300
54440SOL     OW65158   9.528  11.159  13.456
54440SOL    HW165159   9.541  11.253  13.470
54440SOL    HW265160   9.583  11.139  13.380
54441SOL     OW65161   1.703   8.903   6.094
54441SOL    HW165162   1.762   8.828   6.103
54441SOL    HW265163   1.680   8.904   6.001
54442SOL     OW65164  14.455   1.283   3.000
54442SOL    HW165165  14.463   1.367   2.954
54442SOL    HW265166  14.545   1.262   3.027
54443SOL     OW65167  14.606   3.041  11.046
54443SOL    HW165168  14.590   2.947  11.061
54443SOL    HW265169  14.667   3.043  10.973
54444SOL     OW65170   4.376   4.769  12.114
54444SOL    HW165171   4.373   4.730  12.202
54444SOL    HW265172   4.303   4.728  12.068
54445SOL     OW65173   7.196   1.307   3.760
54445SOL    HW165174   7.204   1.401   3.775
54445SOL    HW265175   7.113   1.296   3.713
54446SOL     OW65176   5.878  10.184  14.668
54446SOL    HW165177   5.930  10.232  14.733
54446SOL    HW265178   5.788  10.213  14.683
54447SOL     OW65179  12.104  12.717  13.697
54447SOL    HW165180  12.132  12.658  13.768
54447SOL    HW265181  12.052  12.661  13.639
54448SOL     OW65182   1.492   5.804   8.058
54448SOL    HW165183   1.419   5.806   8.119
54448SOL    HW265184   1.532   5.890   8.065
54449SOL     OW65185  12.620   6.929   1.272
54449SOL    HW165186  12.696   6.937   1.329
54449SOL    HW265187  12.575   7.013   1.281
54450SOL     OW65188   2.232   9.958   4.161
54450SOL    HW165189   2.181  10.015   4.103
54450SOL    HW265190   2.271   9.893   4.103
54451SOL     OW65191   2.512  12.145  13.447
54451SOL    HW165192   2.506  12.235  13.417
54451SOL    HW265193   2.530  12.094  13.367
54452SOL     OW65194   1.262   5.815   5.302
54452SOL    HW165195   1.284   5.908   5.291
54452SOL    HW265196   1.198   5.814   5.373
54453SOL     OW65197   8.623  12.051   9.178
54453SOL    HW165198   8.601  12.118   9.113
54453SOL    HW265199   8.567  12.071   9.253
54454SOL     OW65200   2.821   6.406   6.599
54454SOL    HW165201   2.790   6.338   6.659
54454SOL    HW265202   2.916   6.409   6.613
54455SOL     OW65203   9.145   6.544   5.793
54455SOL    HW165204   9.199   6.467   5.777
54455SOL    HW265205   9.174   6.608   5.728
54456SOL     OW65206   3.506  10.307   2.654
54456SOL    HW165207   3.412  10.328   2.654
54456SOL    HW265208   3.539  10.347   2.733
54457SOL     OW65209   8.832   3.152   5.161
54457SOL    HW165210   8.925   3.147   5.184
54457SOL    HW265211   8.822   3.091   5.088
54458SOL     OW65212  13.452   2.208   8.178
54458SOL    HW165213  13.532   2.241   8.136
54458SOL    HW265214  13.405   2.165   8.107
54459SOL     OW65215   6.809  14.752   6.221
54459SOL    HW165216   6.726  14.723   6.258
54459SOL    HW265217   6.795  14.752   6.126
54460SOL     OW65218   2.771   5.248   6.452
54460SOL    HW165219   2.790   5.271   6.542
54460SOL    HW265220   2.844   5.193   6.425
54461SOL     OW65221   0.103   3.580   5.890
54461SOL    HW165222   0.085   3.581   5.796
54461SOL    HW265223   0.072   3.665   5.921
54462SOL     OW65224   3.073  13.511   4.346
54462SOL    HW165225   3.137  13.523   4.277
54462SOL    HW265226   3.006  13.577   4.329
54463SOL     OW65227  11.320   0.970  10.279
54463SOL    HW165228  11.405   0.928  10.293
54463SOL    HW265229  11.273   0.910  10.221
54464SOL     OW65230   9.695   8.080   2.162
54464SOL    HW165231   9.616   8.121   2.197
54464SOL    HW265232   9.742   8.049   2.239
54465SOL     OW65233  13.335   7.685   1.361
54465SOL    HW165234  13.335   7.740   1.439
54465SOL    HW265235  13.377   7.603   1.389
54466SOL     OW65236  13.180  11.393  10.572
54466SOL    HW165237  13.232  11.473  10.580
54466SOL    HW265238  13.109  11.404  10.636
54467SOL     OW65239   4.249   5.873   6.972
54467SOL    HW165240   4.265   5.805   7.037
54467SOL    HW265241   4.163   5.909   6.996
54468SOL     OW65242   5.504   4.841   3.671
54468SOL    HW165243   5.584   4.882   3.638
54468SOL    HW265244   5.534   4.785   3.743
54469SOL     OW65245   9.339   7.995   1.604
54469SOL    HW165246   9.403   7.992   1.675
54469SOL    HW265247   9.366   7.925   1.544
54470SOL     OW65248   5.780   9.969   5.311
54470SOL    HW165249   5.847   9.925   5.363
54470SOL    HW265250   5.737  10.028   5.373
54471SOL     OW65251   2.816  12.175  10.902
54471SOL    HW165252   2.800  12.081  10.903
54471SOL    HW265253   2.895  12.186  10.849
54472SOL     OW65254   8.985   3.722  12.983
54472SOL    HW165255   8.990   3.798  13.040
54472SOL    HW265256   9.065   3.726  12.930
54473SOL     OW65257  13.105   3.499   5.330
54473SOL    HW165258  13.143   3.474   5.414
54473SOL    HW265259  13.013   3.472   5.336
54474SOL     OW65260   0.298   4.702  11.119
54474SOL    HW165261   0.269   4.689  11.028
54474SOL    HW265262   0.233   4.657  11.172
54475SOL     OW65263  10.356   3.321   6.824
54475SOL    HW165264  10.336   3.353   6.736
54475SOL    HW265265  10.404   3.393   6.866
54476SOL     OW65266   5.171  12.780  13.763
54476SOL    HW165267   5.096  12.764  13.704
54476SOL    HW265268   5.244  12.798  13.704
54477SOL     OW65269   3.920   3.688  11.757
54477SOL    HW165270   3.932   3.780  11.781
54477SOL    HW265271   3.970   3.640  11.823
54478SOL     OW65272   9.667   4.765  11.309
54478SOL    HW165273   9.616   4.801  11.381
54478SOL    HW265274   9.757   4.793  11.328
54479SOL     OW65275  10.420  12.484   1.785
54479SOL    HW165276  10.331  12.489   1.749
54479SOL    HW265277  10.477  12.502   1.710
54480SOL     OW65278   4.668   3.142   3.136
54480SOL    HW165279   4.759   3.120   3.119
54480SOL    HW265280   4.665   3.161   3.230
54481SOL     OW65281   4.668  13.226  12.923
54481SOL    HW165282   4.754  13.205  12.960
54481SOL    HW265283   4.621  13.268  12.995
54482SOL     OW65284   6.225   4.792   7.906
54482SOL    HW165285   6.292   4.812   7.840
54482SOL    HW265286   6.177   4.718   7.869
54483SOL     OW65287   5.080  14.737   2.074
54483SOL    HW165288   5.103  14.645   2.062
54483SOL    HW265289   5.001  14.735   2.128
54484SOL     OW65290   6.896  12.701  10.389
54484SOL    HW165291   6.946  12.739  10.461
54484SOL    HW265292   6.822  12.659  10.432
54485SOL     OW65293   2.460  11.298   1.523
54485SOL    HW165294   2.364  11.299   1.520
54485SOL    HW265295   2.483  11.207   1.507
54486SOL     OW65296   0.713   3.306  13.390
54486SOL    HW165297   0.683   3.215  13.384
54486SOL    HW265298   0.639   3.353  13.428
54487SOL     OW65299  14.340   8.834   3.804
54487SOL    HW165300  14.374   8.923   3.791
54487SOL    HW265301  14.255   8.847   3.845
54488SOL     OW65302   6.976  10.685   4.726
54488SOL    HW165303   6.985  10.752   4.793
54488SOL    HW265304   7.014  10.606   4.766
54489SOL     OW65305  10.665   9.133  10.713
54489SOL    HW165306  10.670   9.056  10.656
54489SOL    HW265307  10.756   9.160  10.725
54490SOL     OW65308  14.657   2.110  13.268
54490SOL    HW165309  14.564   2.087  13.272
54490SOL    HW265310  14.680   2.133  13.358
54491SOL     OW65311  14.271   9.817   9.964
54491SOL    HW165312  14.206   9.837   9.898
54491SOL    HW265313  14.348   9.868   9.938
54492SOL     OW65314   0.640   1.257  11.589
54492SOL    HW165315   0.735   1.253  11.594
54492SOL    HW265316   0.611   1.246  11.680
54493SOL     OW65317   4.255  12.698  12.773
54493SOL    HW165318   4.213  12.616  12.798
54493SOL    HW265319   4.184  12.761  12.767
54494SOL     OW65320   4.856  11.976   2.031
54494SOL    HW165321   4.899  11.891   2.036
54494SOL    HW265322   4.765  11.957   2.011
54495SOL     OW65323   5.992   0.247   7.674
54495SOL    HW165324   5.963   0.222   7.762
54495SOL    HW265325   6.086   0.233   7.674
54496SOL     OW65326  13.861   4.703   8.834
54496SOL    HW165327  13.898   4.787   8.810
54496SOL    HW265328  13.781   4.696   8.781
54497SOL     OW65329   0.578   4.736  12.114
54497SOL    HW165330   0.655   4.771  12.160
54497SOL    HW265331   0.539   4.812  12.071
54498SOL     OW65332  13.650   3.980   5.974
54498SOL    HW165333  13.680   3.919   5.908
54498SOL    HW265334  13.567   4.013   5.941
54499SOL     OW65335   4.561  14.684  14.740
54499SOL    HW165336   4.610  14.604  14.759
54499SOL    HW265337   4.513  14.664  14.659
54500SOL     OW65338  12.013   3.062   2.743
54500SOL    HW165339  11.976   3.022   2.822
54500SOL    HW265340  12.060   2.990   2.700
54501SOL     OW65341   6.806   5.724  11.626
54501SOL    HW165342   6.754   5.795  11.664
54501SOL    HW265343   6.804   5.655  11.693
54502SOL     OW65344   2.561   6.624   3.302
54502SOL    HW165345   2.468   6.646   3.302
54502SOL    HW265346   2.605   6.709   3.297
54503SOL     OW65347   4.402   2.332   4.572
54503SOL    HW165348   4.375   2.394   4.640
54503SOL    HW265349   4.427   2.387   4.498
54504SOL     OW65350   8.908  14.603   7.111
54504SOL    HW165351   8.982  14.543   7.121
54504SOL    HW265352   8.838  14.550   7.072
54505SOL     OW65353  12.225   3.668   1.789
54505SOL    HW165354  12.266   3.754   1.786
54505SOL    HW265355  12.290   3.609   1.753
54506SOL     OW65356  13.004   4.569  14.662
54506SOL    HW165357  12.991   4.601  14.751
54506SOL    HW265358  12.932   4.507  14.648
54507SOL     OW65359   2.652   4.598   3.436
54507SOL    HW165360   2.594   4.601   3.360
54507SOL    HW265361   2.635   4.512   3.476
54508SOL     OW65362  11.651   3.480   0.109
54508SOL    HW165363  11.739   3.470   0.072
54508SOL    HW265364  11.632   3.395   0.149
54509SOL     OW65365  14.742  13.920   5.127
54509SOL    HW165366  14.755  13.879   5.042
54509SOL    HW265367  14.765  14.012   5.113
54510SOL     OW65368   9.093   0.104   0.683
54510SOL    HW165369   9.041   0.024   0.680
54510SOL    HW265370   9.116   0.114   0.775
54511SOL     OW65371  10.290  12.412  11.167
54511SOL    HW165372  10.342  12.368  11.100
54511SOL    HW265373  10.286  12.350  11.240
54512SOL     OW65374   9.968   9.112   2.367
54512SOL    HW165375   9.930   9.104   2.279
54512SOL    HW265376   9.954   9.204   2.390
54513SOL     OW65377   3.479  13.850   7.798
54513SOL    HW165378   3.536  13.783   7.836
54513SOL    HW265379   3.492  13.927   7.853
54514SOL     OW65380   3.087  12.492  12.159
54514SOL    HW165381   3.133  12.573  12.141
54514SOL    HW265382   3.137  12.425  12.112
54515SOL     OW65383   5.119   9.458   3.435
54515SOL    HW165384   5.154   9.402   3.504
54515SOL    HW265385   5.119   9.403   3.357
54516SOL     OW65386  10.224   7.605   4.609
54516SOL    HW165387  10.154   7.664   4.581
54516SOL    HW265388  10.192   7.566   4.690
54517SOL     OW65389   3.887   6.786   9.352
54517SOL    HW165390   3.845   6.773   9.438
54517SOL    HW265391   3.832   6.850   9.308
54518SOL     OW65392   2.802   5.496   3.637
54518SOL    HW165393   2.765   5.439   3.705
54518SOL    HW265394   2.730   5.553   3.611
54519SOL     OW65395   6.677   4.702   7.864
54519SOL    HW165396   6.610   4.651   7.909
54519SOL    HW265397   6.759   4.659   7.888
54520SOL     OW65398  11.772   4.553   6.659
54520SOL    HW165399  11.762   4.528   6.567
54520SOL    HW265400  11.786   4.471   6.705
54521SOL     OW65401   3.010  12.857   5.621
54521SOL    HW165402   2.980  12.779   5.666
54521SOL    HW265403   2.962  12.929   5.662
54522SOL     OW65404   0.372   5.476  10.731
54522SOL    HW165405   0.466   5.480  10.747
54522SOL    HW265406   0.343   5.399  10.780
54523SOL     OW65407   7.273   3.213   7.551
54523SOL    HW165408   7.273   3.155   7.476
54523SOL    HW265409   7.360   3.200   7.591
54524SOL     OW65410   3.779   1.287   7.124
54524SOL    HW165411   3.713   1.226   7.091
54524SOL    HW265412   3.736   1.329   7.199
54525SOL     OW65413  10.914  14.035   4.754
54525SOL    HW165414  10.955  13.998   4.676
54525SOL    HW265415  10.823  14.005   4.750
54526SOL     OW65416   9.233   7.314  12.689
54526SOL    HW165417   9.169   7.292  12.622
54526SOL    HW265418   9.296   7.242  12.688
54527SOL     OW65419  13.006   0.493   1.312
54527SOL    HW165420  12.925   0.527   1.274
54527SOL    HW265421  13.071   0.504   1.243
54528SOL     OW65422   4.585   3.903   5.350
54528SOL    HW165423   4.643   3.960   5.403
54528SOL    HW265424   4.638   3.825   5.334
54529SOL     OW65425   2.221   2.230   4.029
54529SOL    HW165426   2.148   2.287   4.052
54529SOL    HW265427   2.299   2.281   4.049
54530SOL     OW65428   4.446   4.154  11.671
54530SOL    HW165429   4.525   4.202  11.696
54530SOL    HW265430   4.378   4.189  11.728
54531SOL     OW65431   1.824   3.933   2.079
54531SOL    HW165432   1.892   3.923   2.146
54531SOL    HW265433   1.873   3.953   1.999
54532SOL     OW65434   8.257   6.514  13.025
54532SOL    HW165435   8.275   6.456  13.099
54532SOL    HW265436   8.211   6.459  12.962
54533SOL     OW65437   5.108   3.505   4.534
54533SOL    HW165438   5.158   3.582   4.506
54533SOL    HW265439   5.044   3.540   4.596
54534SOL     OW65440   6.053   0.482   6.040
54534SOL    HW165441   6.082   0.480   5.948
54534SOL    HW265442   5.993   0.557   6.044
54535SOL     OW65443   5.730   5.512   0.833
54535SOL    HW165444   5.764   5.479   0.916
54535SOL    HW265445   5.694   5.434   0.789
54536SOL     OW65446   3.983   4.231   8.059
54536SOL    HW165447   4.053   4.235   8.124
54536SOL    HW265448   3.941   4.317   8.064
54537SOL     OW65449   6.462  14.637   7.567
54537SOL    HW165450   6.549  14.667   7.540
54537SOL    HW265451   6.408  14.647   7.488
54538SOL     OW65452   0.258  14.073   3.797
54538SOL    HW165453   0.272  14.140   3.730
54538SOL    HW265454   0.345  14.037   3.813
54539SOL     OW65455  12.394   2.244  10.461
54539SOL    HW165456  12.311   2.198  10.455
54539SOL    HW265457  12.386   2.317  10.399
54540SOL     OW65458   1.219  11.931  12.523
54540SOL    HW165459   1.217  11.973  12.609
54540SOL    HW265460   1.212  11.838  12.542
54541SOL     OW65461   2.733   6.702  12.004
54541SOL    HW165462   2.723   6.703  11.909
54541SOL    HW265463   2.646   6.724  12.037
54542SOL     OW65464  12.774  11.172   9.578
54542SOL    HW165465  12.747  11.091   9.621
54542SOL    HW265466  12.718  11.240   9.615
54543SOL     OW65467  10.622  13.342   6.602
54543SOL    HW165468  10.541  13.389   6.581
54543SOL    HW265469  10.651  13.380   6.685
54544SOL     OW65470   4.751  12.561   8.558
54544SOL    HW165471   4.729  12.529   8.471
54544SOL    HW265472   4.726  12.654   8.556
54545SOL     OW65473  14.506   1.163   5.336
54545SOL    HW165474  14.557   1.244   5.322
54545SOL    HW265475  14.481   1.167   5.429
54546SOL     OW65476   1.402  10.848   9.337
54546SOL    HW165477   1.487  10.878   9.369
54546SOL    HW265478   1.354  10.822   9.416
54547SOL     OW65479   4.961  14.284  13.086
54547SOL    HW165480   5.029  14.263  13.022
54547SOL    HW265481   4.899  14.338  13.038
54548SOL     OW65482   3.621  10.818   0.380
54548SOL    HW165483   3.577  10.824   0.464
54548SOL    HW265484   3.551  10.813   0.315
54549SOL     OW65485   6.709   3.839  10.782
54549SOL    HW165486   6.666   3.868  10.863
54549SOL    HW265487   6.676   3.899  10.715
54550SOL     OW65488   9.087   4.964   5.612
54550SOL    HW165489   9.116   5.046   5.571
54550SOL    HW265490   9.167   4.923   5.644
54551SOL     OW65491   8.358   3.561   5.393
54551SOL    HW165492   8.428   3.500   5.415
54551SOL    HW265493   8.373   3.583   5.301
54552SOL     OW65494  10.175   2.922  10.229
54552SOL    HW165495  10.176   2.838  10.275
54552SOL    HW265496  10.165   2.987  10.299
54553SOL     OW65497  12.451   4.281   6.942
54553SOL    HW165498  12.538   4.261   6.977
54553SOL    HW265499  12.460   4.369   6.905
54554SOL     OW65500   9.839  14.512  13.294
54554SOL    HW165501   9.914  14.530  13.350
54554SOL    HW265502   9.792  14.441  13.338
54555SOL     OW65503   0.258  14.561   2.421
54555SOL    HW165504   0.172  14.527   2.445
54555SOL    HW265505   0.242  14.650   2.392
54556SOL     OW65506  10.631  13.827   5.481
54556SOL    HW165507  10.611  13.770   5.407
54556SOL    HW265508  10.719  13.803   5.508
54557SOL     OW65509   6.494   3.564   4.171
54557SOL    HW165510   6.469   3.654   4.151
54557SOL    HW265511   6.493   3.559   4.266
54558SOL     OW65512   6.799  14.561   5.974
54558SOL    HW165513   6.805  14.594   5.884
54558SOL    HW265514   6.888  14.533   5.995
54559SOL     OW65515  11.036  10.109   2.249
54559SOL    HW165516  11.062  10.168   2.178
54559SOL    HW265517  10.953  10.143   2.280
54560SOL     OW65518  12.345   8.606   6.846
54560SOL    HW165519  12.328   8.592   6.939
54560SOL    HW265520  12.410   8.540   6.822
54561SOL     OW65521   5.212   3.976   3.809
54561SOL    HW165522   5.155   3.943   3.739
54561SOL    HW265523   5.291   3.921   3.803
54562SOL     OW65524   4.560  12.092  14.364
54562SOL    HW165525   4.467  12.076  14.346
54562SOL    HW265526   4.606  12.019  14.321
54563SOL     OW65527   6.398   6.148   5.391
54563SOL    HW165528   6.323   6.191   5.351
54563SOL    HW265529   6.389   6.165   5.484
54564SOL     OW65530   7.422  11.307  14.096
54564SOL    HW165531   7.354  11.247  14.066
54564SOL    HW265532   7.492  11.250  14.129
54565SOL     OW65533   6.557   7.871   0.291
54565SOL    HW165534   6.493   7.800   0.283
54565SOL    HW265535   6.505   7.951   0.285
54566SOL     OW65536   8.961   2.699   5.752
54566SOL    HW165537   9.053   2.720   5.767
54566SOL    HW265538   8.913   2.779   5.775
54567SOL     OW65539  11.566   0.843  12.780
54567SOL    HW165540  11.638   0.783  12.794
54567SOL    HW265541  11.487   0.790  12.790
54568SOL     OW65542   9.997   7.068  11.944
54568SOL    HW165543   9.915   7.043  11.902
54568SOL    HW265544  10.043   7.120  11.878
54569SOL     OW65545   6.428   7.377   8.019
54569SOL    HW165546   6.370   7.445   7.987
54569SOL    HW265547   6.375   7.327   8.081
54570SOL     OW65548   2.817   8.141  10.910
54570SOL    HW165549   2.892   8.128  10.852
54570SOL    HW265550   2.769   8.058  10.905
54571SOL     OW65551   1.977   2.008   6.974
54571SOL    HW165552   1.965   2.005   6.880
54571SOL    HW265553   2.032   2.085   6.989
54572SOL     OW65554  12.775   7.179  13.496
54572SOL    HW165555  12.706   7.131  13.544
54572SOL    HW265556  12.728   7.246  13.448
54573SOL     OW65557  13.603   7.609   9.573
54573SOL    HW165558  13.676   7.626   9.633
54573SOL    HW265559  13.618   7.519   9.543
54574SOL     OW65560   2.458   8.545   9.623
54574SOL    HW165561   2.551   8.554   9.603
54574SOL    HW265562   2.413   8.581   9.547
54575SOL     OW65563   6.286   8.535   0.006
54575SOL    HW165564   6.256   8.598  14.821
54575SOL    HW265565   6.231   8.458  14.871
54576SOL     OW65566   9.558  13.466  10.077
54576SOL    HW165567   9.644  13.500  10.102
54576SOL    HW265568   9.568  13.371  10.080
54577SOL     OW65569   3.353   7.794   4.153
54577SOL    HW165570   3.311   7.796   4.067
54577SOL    HW265571   3.363   7.886   4.177
54578SOL     OW65572   0.454  12.027   3.805
54578SOL    HW165573   0.433  11.933   3.805
54578SOL    HW265574   0.445  12.053   3.897
54579SOL     OW65575   2.153  11.143  13.762
54579SOL    HW165576   2.097  11.070  13.735
54579SOL    HW265577   2.232  11.101  13.796
54580SOL     OW65578   0.896   8.967   0.756
54580SOL    HW165579   0.980   8.974   0.802
54580SOL    HW265580   0.853   8.892   0.797
54581SOL     OW65581   9.602  14.782  10.611
54581SOL    HW165582   9.582  14.694  10.578
54581SOL    HW265583   9.540  14.839  10.566
54582SOL     OW65584   9.100   3.637   4.066
54582SOL    HW165585   9.074   3.545   4.068
54582SOL    HW265586   9.102   3.664   4.158
54583SOL     OW65587   9.761   6.833   5.528
54583SOL    HW165588   9.687   6.877   5.486
54583SOL    HW265589   9.792   6.770   5.463
54584SOL     OW65590  10.775   4.567   5.910
54584SOL    HW165591  10.733   4.505   5.970
54584SOL    HW265592  10.783   4.519   5.828
54585SOL     OW65593   3.464   2.106  11.367
54585SOL    HW165594   3.425   2.075  11.449
54585SOL    HW265595   3.544   2.150  11.393
54586SOL     OW65596   1.173   8.400   4.874
54586SOL    HW165597   1.269   8.398   4.874
54586SOL    HW265598   1.151   8.461   4.803
54587SOL     OW65599  10.578  14.407  13.795
54587SOL    HW165600  10.593  14.350  13.870
54587SOL    HW265601  10.488  14.387  13.767
54588SOL     OW65602  10.040  12.202   6.755
54588SOL    HW165603   9.989  12.128   6.723
54588SOL    HW265604   9.980  12.247   6.815
54589SOL     OW65605  13.858   2.867   6.662
54589SOL    HW165606  13.915   2.792   6.642
54589SOL    HW265607  13.897   2.907   6.740
54590SOL     OW65608   7.513   3.212   8.684
54590SOL    HW165609   7.465   3.146   8.734
54590SOL    HW265610   7.561   3.262   8.750
54591SOL     OW65611  11.473  12.308  12.839
54591SOL    HW165612  11.455  12.399  12.813
54591SOL    HW265613  11.397  12.259  12.808
54592SOL     OW65614  13.202   1.280   9.973
54592SOL    HW165615  13.153   1.292   9.892
54592SOL    HW265616  13.192   1.363  10.020
54593SOL     OW65617   6.816  14.016   4.848
54593SOL    HW165618   6.781  14.104   4.861
54593SOL    HW265619   6.885  14.008   4.915
54594SOL     OW65620   3.539   4.376  11.048
54594SOL    HW165621   3.550   4.340  10.960
54594SOL    HW265622   3.444   4.383  11.060
54595SOL     OW65623  11.776  11.685   8.851
54595SOL    HW165624  11.726  11.676   8.932
54595SOL    HW265625  11.832  11.761   8.866
54596SOL     OW65626  14.860  10.496   1.165
54596SOL    HW165627  14.857  10.528   1.255
54596SOL    HW265628   0.057  10.538   1.127
54597SOL     OW65629   9.195   2.466   4.988
54597SOL    HW165630   9.237   2.471   4.902
54597SOL    HW265631   9.143   2.386   4.985
54598SOL     OW65632   2.528   0.350   8.478
54598SOL    HW165633   2.574   0.307   8.550
54598SOL    HW265634   2.492   0.277   8.427
54599SOL     OW65635   4.696   4.113  10.555
54599SOL    HW165636   4.664   4.093  10.643
54599SOL    HW265637   4.628   4.171  10.518
54600SOL     OW65638  10.868   7.187   8.778
54600SOL    HW165639  10.785   7.172   8.823
54600SOL    HW265640  10.854   7.266   8.726
54601SOL     OW65641   1.972   1.827  13.914
54601SOL    HW165642   2.004   1.862  13.997
54601SOL    HW265643   2.043   1.771  13.883
54602SOL     OW65644   6.813   7.673   9.869
54602SOL    HW165645   6.841   7.644   9.782
54602SOL    HW265646   6.832   7.766   9.871
54603SOL     OW65647   2.756  14.326   6.304
54603SOL    HW165648   2.832  14.269   6.318
54603SOL    HW265649   2.681  14.272   6.330
54604SOL     OW65650   6.776  11.405   2.943
54604SOL    HW165651   6.727  11.468   2.995
54604SOL    HW265652   6.795  11.451   2.862
54605SOL     OW65653   6.319  14.705  13.503
54605SOL    HW165654   6.359  14.629  13.460
54605SOL    HW265655   6.276  14.752  13.431
54606SOL     OW65656   2.275   0.820   8.330
54606SOL    HW165657   2.345   0.819   8.265
54606SOL    HW265658   2.253   0.913   8.340
54607SOL     OW65659  13.720   2.109  14.327
54607SOL    HW165660  13.692   2.160  14.403
54607SOL    HW265661  13.658   2.035  14.324
54608SOL     OW65662   1.903  11.215   4.110
54608SOL    HW165663   1.845  11.187   4.181
54608SOL    HW265664   1.907  11.139   4.052
54609SOL     OW65665  13.759  10.804   0.639
54609SOL    HW165666  13.767  10.873   0.573
54609SOL    HW265667  13.692  10.836   0.699
54610SOL     OW65668   0.482   3.575  10.236
54610SOL    HW165669   0.468   3.657  10.187
54610SOL    HW265670   0.562   3.538  10.197
54611SOL     OW65671   4.934  13.253   7.981
54611SOL    HW165672   4.839  13.266   7.980
54611SOL    HW265673   4.945  13.165   8.015
54612SOL     OW65674   8.902  10.676   9.790
54612SOL    HW165675   8.873  10.621   9.717
54612SOL    HW265676   8.957  10.743   9.749
54613SOL     OW65677  11.363   6.143   0.051
54613SOL    HW165678  11.422   6.196   0.105
54613SOL    HW265679  11.411   6.130  14.848
54614SOL     OW65680   2.165   9.727  11.949
54614SOL    HW165681   2.128   9.777  11.876
54614SOL    HW265682   2.150   9.635  11.926
54615SOL     OW65683   5.447   2.663  12.546
54615SOL    HW165684   5.528   2.708  12.523
54615SOL    HW265685   5.409   2.717  12.615
54616SOL     OW65686  14.214  12.497   9.690
54616SOL    HW165687  14.248  12.532   9.608
54616SOL    HW265688  14.269  12.421   9.709
54617SOL     OW65689   4.047   4.990   1.753
54617SOL    HW165690   4.143   4.997   1.756
54617SOL    HW265691   4.030   4.930   1.681
54618SOL     OW65692   7.439   9.386   8.121
54618SOL    HW165693   7.384   9.451   8.076
54618SOL    HW265694   7.447   9.418   8.211
54619SOL     OW65695   3.393   5.228   1.377
54619SOL    HW165696   3.377   5.262   1.465
54619SOL    HW265697   3.475   5.179   1.385
54620SOL     OW65698   5.728  10.326   2.188
54620SOL    HW165699   5.764  10.251   2.236
54620SOL    HW265700   5.643  10.341   2.227
54621SOL     OW65701   7.622   4.650  14.034
54621SOL    HW165702   7.569   4.661  14.113
54621SOL    HW265703   7.699   4.602  14.064
54622SOL     OW65704  14.185   2.892  10.406
54622SOL    HW165705  14.220   2.861  10.489
54622SOL    HW265706  14.255   2.947  10.370
54623SOL     OW65707  14.302   0.657  10.867
54623SOL    HW165708  14.301   0.752  10.880
54623SOL    HW265709  14.281   0.621  10.953
54624SOL     OW65710  10.058   5.852  12.762
54624SOL    HW165711  10.102   5.929  12.728
54624SOL    HW265712  10.100   5.835  12.846
54625SOL     OW65713   8.314   9.961   1.295
54625SOL    HW165714   8.352  10.040   1.333
54625SOL    HW265715   8.327   9.971   1.201
54626SOL     OW65716  11.169  14.765   1.879
54626SOL    HW165717  11.264  14.767   1.882
54626SOL    HW265718  11.148  14.743   1.788
54627SOL     OW65719  11.786   5.446  10.303
54627SOL    HW165720  11.696   5.418  10.320
54627SOL    HW265721  11.832   5.434  10.387
54628SOL     OW65722  14.823   6.287   9.085
54628SOL    HW165723  14.873   6.348   9.139
54628SOL    HW265724   0.010   6.228   9.048
54629SOL     OW65725  12.370   8.466   2.006
54629SOL    HW165726  12.418   8.421   2.076
54629SOL    HW265727  12.396   8.421   1.926
54630SOL     OW65728   9.185   2.523  13.370
54630SOL    HW165729   9.267   2.492  13.332
54630SOL    HW265730   9.127   2.447  13.368
54631SOL     OW65731   8.594  10.169   6.194
54631SOL    HW165732   8.651  10.169   6.271
54631SOL    HW265733   8.536  10.244   6.206
54632SOL     OW65734  10.777   7.409   1.393
54632SOL    HW165735  10.815   7.321   1.397
54632SOL    HW265736  10.685   7.393   1.370
54633SOL     OW65737  10.607   9.631   1.618
54633SOL    HW165738  10.549   9.703   1.596
54633SOL    HW265739  10.561   9.584   1.688
54634SOL     OW65740  11.698   8.382  13.356
54634SOL    HW165741  11.620   8.425  13.392
54634SOL    HW265742  11.753   8.453  13.324
54635SOL     OW65743  11.218   7.316   5.429
54635SOL    HW165744  11.206   7.222   5.432
54635SOL    HW265745  11.190   7.347   5.515
54636SOL     OW65746   0.074  11.789  10.101
54636SOL    HW165747   0.066  11.880  10.070
54636SOL    HW265748   0.124  11.745  10.033
54637SOL     OW65749  11.704  13.841  14.524
54637SOL    HW165750  11.705  13.936  14.533
54637SOL    HW265751  11.612  13.817  14.536
54638SOL     OW65752   7.363  12.568  10.551
54638SOL    HW165753   7.451  12.590  10.521
54638SOL    HW265754   7.359  12.472  10.545
54639SOL     OW65755   1.894  10.027   4.984
54639SOL    HW165756   1.949  10.062   5.053
54639SOL    HW265757   1.852  10.104   4.945
54640SOL     OW65758   6.671  14.538   8.249
54640SOL    HW165759   6.685  14.539   8.344
54640SOL    HW265760   6.736  14.599   8.215
54641SOL     OW65761   2.607  10.562   2.962
54641SOL    HW165762   2.605  10.477   2.917
54641SOL    HW265763   2.596  10.626   2.891
54642SOL     OW65764   9.781   0.675   2.362
54642SOL    HW165765   9.730   0.649   2.285
54642SOL    HW265766   9.759   0.611   2.429
54643SOL     OW65767   7.859  12.626  13.288
54643SOL    HW165768   7.794  12.562  13.257
54643SOL    HW265769   7.943  12.589  13.261
54644SOL     OW65770   9.851  10.104   1.206
54644SOL    HW165771   9.812  10.176   1.255
54644SOL    HW265772   9.922  10.145   1.156
54645SOL     OW65773   5.984   9.729   5.051
54645SOL    HW165774   6.002   9.655   5.109
54645SOL    HW265775   6.058   9.789   5.065
54646SOL     OW65776   6.844  14.225   7.472
54646SOL    HW165777   6.799  14.302   7.437
54646SOL    HW265778   6.841  14.236   7.567
54647SOL     OW65779  14.120   8.411  14.453
54647SOL    HW165780  14.062   8.401  14.377
54647SOL    HW265781  14.200   8.366  14.428
54648SOL     OW65782   3.524   0.528  12.942
54648SOL    HW165783   3.492   0.441  12.919
54648SOL    HW265784   3.545   0.569  12.858
54649SOL     OW65785  10.627  12.378   0.744
54649SOL    HW165786  10.706  12.431   0.751
54649SOL    HW265787  10.659  12.288   0.732
54650SOL     OW65788  12.983  14.413   1.549
54650SOL    HW165789  12.959  14.370   1.467
54650SOL    HW265790  13.048  14.354   1.588
54651SOL     OW65791   2.304  13.395   5.198
54651SOL    HW165792   2.260  13.471   5.238
54651SOL    HW265793   2.362  13.363   5.267
54652SOL     OW65794   4.634   0.805  13.581
54652SOL    HW165795   4.675   0.804  13.495
54652SOL    HW265796   4.641   0.714  13.612
54653SOL     OW65797   7.288  13.945   8.873
54653SOL    HW165798   7.273  13.952   8.967
54653SOL    HW265799   7.243  13.865   8.847
54654SOL     OW65800  11.634   3.883   7.897
54654SOL    HW165801  11.567   3.945   7.926
54654SOL    HW265802  11.665   3.917   7.814
54655SOL     OW65803   2.123   9.419   1.480
54655SOL    HW165804   2.196   9.357   1.482
54655SOL    HW265805   2.073   9.400   1.560
54656SOL     OW65806   5.820   1.047   6.146
54656SOL    HW165807   5.913   1.045   6.122
54656SOL    HW265808   5.803   0.961   6.185
54657SOL     OW65809  10.879   2.918  11.025
54657SOL    HW165810  10.902   2.827  11.005
54657SOL    HW265811  10.795   2.912  11.070
54658SOL     OW65812  13.937   1.305   9.115
54658SOL    HW165813  14.005   1.242   9.091
54658SOL    HW265814  13.855   1.266   9.083
54659SOL     OW65815   9.254   4.255   7.693
54659SOL    HW165816   9.291   4.202   7.622
54659SOL    HW265817   9.185   4.199   7.730
54660SOL     OW65818  11.876  13.904   7.526
54660SOL    HW165819  11.909  13.832   7.471
54660SOL    HW265820  11.954  13.937   7.571
54661SOL     OW65821  13.485  13.353  13.150
54661SOL    HW165822  13.548  13.284  13.130
54661SOL    HW265823  13.403  13.307  13.164
54662SOL     OW65824   7.790   4.133   1.542
54662SOL    HW165825   7.739   4.208   1.510
54662SOL    HW265826   7.809   4.154   1.633
54663SOL     OW65827  11.793  10.981   3.651
54663SOL    HW165828  11.731  10.992   3.580
54663SOL    HW265829  11.790  10.888   3.672
54664SOL     OW65830   4.762   6.724   6.823
54664SOL    HW165831   4.740   6.634   6.849
54664SOL    HW265832   4.747   6.776   6.902
54665SOL     OW65833   7.381   5.669   6.972
54665SOL    HW165834   7.387   5.732   6.900
54665SOL    HW265835   7.444   5.601   6.948
54666SOL     OW65836  14.821   9.213  12.463
54666SOL    HW165837  14.869   9.258  12.533
54666SOL    HW265838  14.813   9.278  12.394
54667SOL     OW65839   9.252  10.742   9.340
54667SOL    HW165840   9.293  10.796   9.273
54667SOL    HW265841   9.256  10.796   9.420
54668SOL     OW65842  14.482   8.633   9.919
54668SOL    HW165843  14.399   8.652   9.874
54668SOL    HW265844  14.549   8.664   9.859
54669SOL     OW65845   4.378  10.479   3.092
54669SOL    HW165846   4.469  10.510   3.101
54669SOL    HW265847   4.366  10.421   3.168
54670SOL     OW65848   9.006  12.395  11.796
54670SOL    HW165849   8.948  12.444  11.737
54670SOL    HW265850   9.071  12.460  11.823
54671SOL     OW65851   8.458  12.393   9.172
54671SOL    HW165852   8.463  12.425   9.262
54671SOL    HW265853   8.548  12.397   9.140
54672SOL     OW65854  10.899   5.872   0.438
54672SOL    HW165855  10.871   5.875   0.346
54672SOL    HW265856  10.915   5.963   0.461
54673SOL     OW65857   5.486   5.616   4.544
54673SOL    HW165858   5.541   5.547   4.508
54673SOL    HW265859   5.507   5.618   4.637
54674SOL     OW65860  10.671  11.461   3.525
54674SOL    HW165861  10.720  11.397   3.578
54674SOL    HW265862  10.588  11.471   3.572
54675SOL     OW65863   3.324   9.318   4.234
54675SOL    HW165864   3.358   9.233   4.210
54675SOL    HW265865   3.277   9.303   4.316
54676SOL     OW65866   1.776   1.969  14.082
54676SOL    HW165867   1.818   1.917  14.150
54676SOL    HW265868   1.827   1.951  14.003
54677SOL     OW65869   1.180  14.351   7.821
54677SOL    HW165870   1.205  14.393   7.739
54677SOL    HW265871   1.095  14.389   7.843
54678SOL     OW65872   5.784  12.106   2.336
54678SOL    HW165873   5.759  12.187   2.381
54678SOL    HW265874   5.746  12.114   2.249
54679SOL     OW65875   2.691   2.331   1.978
54679SOL    HW165876   2.605   2.314   1.940
54679SOL    HW265877   2.726   2.404   1.927
54680SOL     OW65878   9.832  12.821   8.026
54680SOL    HW165879   9.884  12.751   7.986
54680SOL    HW265880   9.884  12.900   8.014
54681SOL     OW65881  12.813   2.868   4.275
54681SOL    HW165882  12.790   2.873   4.183
54681SOL    HW265883  12.810   2.775   4.297
54682SOL     OW65884  11.156   3.097   2.700
54682SOL    HW165885  11.076   3.044   2.702
54682SOL    HW265886  11.219   3.047   2.752
54683SOL     OW65887   1.206   9.423   0.760
54683SOL    HW165888   1.149   9.361   0.807
54683SOL    HW265889   1.160   9.507   0.768
54684SOL     OW65890  13.012  11.220   3.247
54684SOL    HW165891  12.975  11.242   3.333
54684SOL    HW265892  13.086  11.163   3.267
54685SOL     OW65893   3.371   9.322  11.568
54685SOL    HW165894   3.356   9.282  11.654
54685SOL    HW265895   3.392   9.248  11.511
54686SOL     OW65896  13.115  13.889   6.162
54686SOL    HW165897  13.042  13.830   6.181
54686SOL    HW265898  13.102  13.915   6.071
54687SOL     OW65899  10.799   6.965  10.775
54687SOL    HW165900  10.859   6.931  10.708
54687SOL    HW265901  10.773   6.888  10.826
54688SOL     OW65902   5.090   3.685   7.210
54688SOL    HW165903   5.127   3.766   7.245
54688SOL    HW265904   5.130   3.676   7.123
54689SOL     OW65905   6.805  14.227  11.609
54689SOL    HW165906   6.784  14.179  11.530
54689SOL    HW265907   6.876  14.178  11.650
54690SOL     OW65908   1.507  12.760   6.084
54690SOL    HW165909   1.468  12.775   5.997
54690SOL    HW265910   1.439  12.713   6.132
54691SOL     OW65911  11.404  11.778  11.806
54691SOL    HW165912  11.350  11.776  11.727
54691SOL    HW265913  11.374  11.704  11.858
54692SOL     OW65914   8.803   2.415   5.344
54692SOL    HW165915   8.865   2.469   5.393
54692SOL    HW265916   8.849   2.393   5.263
54693SOL     OW65917   2.692  14.797  13.932
54693SOL    HW165918   2.754  14.869  13.919
54693SOL    HW265919   2.717  14.731  13.867
54694SOL     OW65920   2.498  11.246  10.373
54694SOL    HW165921   2.518  11.327  10.421
54694SOL    HW265922   2.582  11.202  10.365
54695SOL     OW65923  11.450  12.577   7.532
54695SOL    HW165924  11.445  12.485   7.557
54695SOL    HW265925  11.505  12.618   7.598
54696SOL     OW65926   5.848   5.762   6.069
54696SOL    HW165927   5.898   5.780   6.148
54696SOL    HW265928   5.758   5.751   6.099
54697SOL     OW65929   5.811  10.337   5.161
54697SOL    HW165930   5.886  10.387   5.194
54697SOL    HW265931   5.839  10.304   5.075
54698SOL     OW65932   9.801   8.843  13.356
54698SOL    HW165933   9.869   8.777  13.367
54698SOL    HW265934   9.745   8.808  13.287
54699SOL     OW65935  12.868   4.187  12.042
54699SOL    HW165936  12.934   4.164  11.977
54699SOL    HW265937  12.917   4.230  12.113
54700SOL     OW65938  12.553   9.631   2.079
54700SOL    HW165939  12.488   9.613   2.011
54700SOL    HW265940  12.634   9.651   2.032
54701SOL     OW65941  12.095  10.104  14.841
54701SOL    HW165942  12.130  10.192  14.851
54701SOL    HW265943  12.138  10.070  14.762
54702SOL     OW65944   8.247  11.794   4.062
54702SOL    HW165945   8.176  11.827   4.006
54702SOL    HW265946   8.206  11.727   4.116
54703SOL     OW65947  11.162   5.756  14.218
54703SOL    HW165948  11.083   5.769  14.270
54703SOL    HW265949  11.151   5.670  14.178
54704SOL     OW65950  12.663  11.595   7.200
54704SOL    HW165951  12.617  11.517   7.172
54704SOL    HW265952  12.595  11.660   7.215
54705SOL     OW65953   3.504   1.771   2.432
54705SOL    HW165954   3.486   1.814   2.516
54705SOL    HW265955   3.538   1.685   2.457
54706SOL     OW65956   5.909   0.233   6.746
54706SOL    HW165957   5.863   0.289   6.683
54706SOL    HW265958   5.866   0.249   6.829
54707SOL     OW65959   8.889  14.479  10.427
54707SOL    HW165960   8.941  14.470  10.347
54707SOL    HW265961   8.847  14.394  10.439
54708SOL     OW65962   1.798  12.027   2.696
54708SOL    HW165963   1.818  11.938   2.666
54708SOL    HW265964   1.875  12.078   2.670
54709SOL     OW65965   3.276   6.201  12.205
54709SOL    HW165966   3.295   6.261  12.133
54709SOL    HW265967   3.264   6.258  12.281
54710SOL     OW65968   8.204  13.007   7.680
54710SOL    HW165969   8.156  12.933   7.719
54710SOL    HW265970   8.221  12.980   7.590
54711SOL     OW65971  14.160   9.592   5.612
54711SOL    HW165972  14.206   9.598   5.529
54711SOL    HW265973  14.203   9.658   5.667
54712SOL     OW65974  14.653   8.110   8.729
54712SOL    HW165975  14.563   8.084   8.711
54712SOL    HW265976  14.655   8.204   8.712
54713SOL     OW65977   1.709   3.201   3.516
54713SOL    HW165978   1.657   3.246   3.450
54713SOL    HW265979   1.690   3.248   3.597
54714SOL     OW65980  12.240   6.945   7.608
54714SOL    HW165981  12.259   6.898   7.527
54714SOL    HW265982  12.200   7.027   7.580
54715SOL     OW65983   4.440  13.462  14.108
54715SOL    HW165984   4.527  13.445  14.071
54715SOL    HW265985   4.386  13.486  14.032
54716SOL     OW65986  14.433   6.497   9.775
54716SOL    HW165987  14.472   6.584   9.766
54716SOL    HW265988  14.443   6.457   9.688
54717SOL     OW65989   7.201  12.630   2.264
54717SOL    HW165990   7.120  12.643   2.314
54717SOL    HW265991   7.271  12.643   2.328
54718SOL     OW65992   3.994  12.185  13.862
54718SOL    HW165993   4.005  12.154  13.772
54718SOL    HW265994   3.959  12.109  13.909
54719SOL     OW65995  11.962  12.560   3.996
54719SOL    HW165996  11.918  12.476   3.986
54719SOL    HW265997  11.958  12.600   3.909
54720SOL     OW65998   0.968   6.393   2.539
54720SOL    HW165999   0.992   6.319   2.594
54720SOL    HW266000   1.000   6.370   2.452
54721SOL     OW66001   6.376   6.214  10.330
54721SOL    HW166002   6.283   6.227  10.347
54721SOL    HW266003   6.398   6.278  10.263
54722SOL     OW66004  10.980   8.497  12.873
54722SOL    HW166005  11.065   8.542  12.872
54722SOL    HW266006  10.920   8.559  12.915
54723SOL     OW66007   2.496   5.418   0.644
54723SOL    HW166008   2.524   5.468   0.568
54723SOL    HW266009   2.412   5.457   0.669
54724SOL     OW66010   8.521   8.603   0.871
54724SOL    HW166011   8.601   8.647   0.843
54724SOL    HW266012   8.503   8.638   0.958
54725SOL     OW66013  11.047  13.081   9.294
54725SOL    HW166014  11.115  13.089   9.361
54725SOL    HW266015  11.090  13.109   9.213
54726SOL     OW66016   4.411  12.405  12.641
54726SOL    HW166017   4.321  12.438  12.643
54726SOL    HW266018   4.417  12.358  12.557
54727SOL     OW66019   6.780   3.355  12.014
54727SOL    HW166020   6.797   3.266  11.982
54727SOL    HW266021   6.754   3.403  11.935
54728SOL     OW66022  14.731  12.380   2.540
54728SOL    HW166023  14.666  12.354   2.474
54728SOL    HW266024  14.781  12.301   2.557
54729SOL     OW66025   9.532  11.570   8.586
54729SOL    HW166026   9.544  11.475   8.576
54729SOL    HW266027   9.472  11.579   8.660
54730SOL     OW66028   5.478   2.023   5.567
54730SOL    HW166029   5.496   1.929   5.571
54730SOL    HW266030   5.387   2.028   5.536
54731SOL     OW66031   1.467   3.299  12.596
54731SOL    HW166032   1.437   3.291  12.506
54731SOL    HW266033   1.558   3.325  12.589
54732SOL     OW66034  11.370   4.713   7.169
54732SOL    HW166035  11.292   4.682   7.214
54732SOL    HW266036  11.366   4.808   7.177
54733SOL     OW66037   7.654   1.567  12.382
54733SOL    HW166038   7.692   1.485  12.352
54733SOL    HW266039   7.692   1.581  12.469
54734SOL     OW66040   5.195   1.270   5.120
54734SOL    HW166041   5.158   1.289   5.206
54734SOL    HW266042   5.261   1.203   5.137
54735SOL     OW66043   4.729   0.017   1.382
54735SOL    HW166044   4.753   0.092   1.436
54735SOL    HW266045   4.702  14.829   1.445
54736SOL     OW66046   0.865   2.137   5.556
54736SOL    HW166047   0.875   2.075   5.628
54736SOL    HW266048   0.895   2.089   5.479
54737SOL     OW66049   6.272   4.192   8.561
54737SOL    HW166050   6.275   4.162   8.470
54737SOL    HW266051   6.364   4.198   8.588
54738SOL     OW66052  11.688  10.694   8.979
54738SOL    HW166053  11.712  10.769   8.924
54738SOL    HW266054  11.738  10.707   9.060
54739SOL     OW66055   2.827  12.740   0.742
54739SOL    HW166056   2.921  12.754   0.753
54739SOL    HW266057   2.817  12.717   0.649
54740SOL     OW66058  10.801  10.228   6.930
54740SOL    HW166059  10.749  10.159   6.971
54740SOL    HW266060  10.821  10.194   6.843
54741SOL     OW66061  12.612  12.557   5.246
54741SOL    HW166062  12.551  12.596   5.308
54741SOL    HW266063  12.557  12.516   5.179
54742SOL     OW66064  12.655   8.228  12.297
54742SOL    HW166065  12.658   8.281  12.217
54742SOL    HW266066  12.732   8.172  12.290
54743SOL     OW66067   3.459   5.109  11.911
54743SOL    HW166068   3.394   5.081  11.847
54743SOL    HW266069   3.419   5.090  11.996
54744SOL     OW66070   5.465   8.935   6.446
54744SOL    HW166071   5.388   8.888   6.475
54744SOL    HW266072   5.532   8.915   6.512
54745SOL     OW66073  10.692   6.002  14.326
54745SOL    HW166074  10.666   6.086  14.289
54745SOL    HW266075  10.662   5.937  14.263
54746SOL     OW66076   5.383   3.881  13.615
54746SOL    HW166077   5.458   3.823  13.631
54746SOL    HW266078   5.309   3.821  13.604
54747SOL     OW66079  12.690   7.788   1.874
54747SOL    HW166080  12.668   7.713   1.819
54747SOL    HW266081  12.762   7.831   1.828
54748SOL     OW66082   1.831   5.083   0.841
54748SOL    HW166083   1.918   5.118   0.822
54748SOL    HW266084   1.828   5.077   0.936
54749SOL     OW66085   8.794   8.536   7.005
54749SOL    HW166086   8.806   8.458   6.950
54749SOL    HW266087   8.751   8.600   6.948
54750SOL     OW66088   4.929   8.464   2.796
54750SOL    HW166089   4.949   8.414   2.875
54750SOL    HW266090   4.941   8.401   2.725
54751SOL     OW66091  11.303  12.405  13.988
54751SOL    HW166092  11.281  12.490  14.027
54751SOL    HW266093  11.391  12.387  14.018
54752SOL     OW66094   6.200   1.840   9.883
54752SOL    HW166095   6.268   1.836   9.816
54752SOL    HW266096   6.133   1.779   9.853
54753SOL     OW66097   9.277   0.628  13.015
54753SOL    HW166098   9.199   0.647  13.068
54753SOL    HW266099   9.350   0.640  13.076
54754SOL     OW66100   3.087  12.082  12.551
54754SOL    HW166101   3.062  12.007  12.497
54754SOL    HW266102   3.178  12.100  12.526
54755SOL     OW66103   6.913  11.537  11.550
54755SOL    HW166104   6.999  11.497  11.538
54755SOL    HW266105   6.880  11.499  11.631
54756SOL     OW66106   7.454  11.360   8.544
54756SOL    HW166107   7.365  11.336   8.569
54756SOL    HW266108   7.497  11.277   8.524
54757SOL     OW66109   6.862   0.953   8.955
54757SOL    HW166110   6.826   0.884   8.900
54757SOL    HW266111   6.896   0.906   9.032
54758SOL     OW66112   8.232   1.898  13.879
54758SOL    HW166113   8.210   1.984  13.842
54758SOL    HW266114   8.328   1.897  13.880
54759SOL     OW66115   2.495   0.183  14.476
54759SOL    HW166116   2.445   0.258  14.447
54759SOL    HW266117   2.440   0.107  14.457
54760SOL     OW66118   8.710  14.774   7.834
54760SOL    HW166119   8.785  14.809   7.785
54760SOL    HW266120   8.735  14.685   7.856
54761SOL     OW66121  13.308   3.570   1.574
54761SOL    HW166122  13.227   3.531   1.608
54761SOL    HW266123  13.376   3.507   1.598
54762SOL     OW66124   0.191   0.000  12.086
54762SOL    HW166125   0.227   0.087  12.103
54762SOL    HW266126   0.096   0.011  12.096
54763SOL     OW66127   3.299   1.735   8.883
54763SOL    HW166128   3.291   1.819   8.928
54763SOL    HW266129   3.369   1.748   8.820
54764SOL     OW66130  14.111  12.463  10.840
54764SOL    HW166131  14.109  12.432  10.930
54764SOL    HW266132  14.186  12.417  10.800
54765SOL     OW66133   9.515  13.260  11.714
54765SOL    HW166134   9.588  13.321  11.702
54765SOL    HW266135   9.516  13.240  11.808
54766SOL     OW66136  14.450  14.207   4.230
54766SOL    HW166137  14.429  14.163   4.313
54766SOL    HW266138  14.366  14.214   4.185
54767SOL     OW66139  13.300   8.520   9.895
54767SOL    HW166140  13.279   8.493   9.984
54767SOL    HW266141  13.216   8.520   9.850
54768SOL     OW66142   6.150   5.493   2.212
54768SOL    HW166143   6.190   5.536   2.137
54768SOL    HW266144   6.106   5.563   2.260
54769SOL     OW66145  12.088   4.544   3.705
54769SOL    HW166146  12.026   4.592   3.649
54769SOL    HW266147  12.132   4.483   3.646
54770SOL     OW66148  13.237  11.936   8.232
54770SOL    HW166149  13.227  12.017   8.180
54770SOL    HW266150  13.320  11.947   8.277
54771SOL     OW66151  14.590   4.785   6.645
54771SOL    HW166152  14.632   4.702   6.623
54771SOL    HW266153  14.502   4.762   6.672
54772SOL     OW66154   2.687   0.250   7.830
54772SOL    HW166155   2.753   0.313   7.860
54772SOL    HW266156   2.650   0.290   7.751
54773SOL     OW66157  14.725   7.737  14.373
54773SOL    HW166158  14.642   7.703  14.340
54773SOL    HW266159  14.725   7.715  14.466
54774SOL     OW66160   0.307   5.219   1.853
54774SOL    HW166161   0.254   5.152   1.811
54774SOL    HW266162   0.298   5.203   1.947
54775SOL     OW66163   3.520  14.460   7.227
54775SOL    HW166164   3.452  14.394   7.238
54775SOL    HW266165   3.543  14.457   7.134
54776SOL     OW66166  14.243   3.837  10.661
54776SOL    HW166167  14.171   3.851  10.600
54776SOL    HW266168  14.203   3.789  10.734
54777SOL     OW66169   8.262  12.190   9.066
54777SOL    HW166170   8.195  12.235   9.013
54777SOL    HW266171   8.309  12.261   9.110
54778SOL     OW66172   7.086   6.766  10.316
54778SOL    HW166173   6.997   6.764  10.281
54778SOL    HW266174   7.141   6.730  10.246
54779SOL     OW66175   9.032   1.251   5.387
54779SOL    HW166176   8.945   1.269   5.349
54779SOL    HW266177   9.014   1.232   5.479
54780SOL     OW66178   8.115  11.877   7.087
54780SOL    HW166179   8.193  11.831   7.117
54780SOL    HW266180   8.143  11.967   7.076
54781SOL     OW66181  12.862   9.160   3.229
54781SOL    HW166182  12.955   9.173   3.247
54781SOL    HW266183  12.818   9.180   3.312
54782SOL     OW66184   1.686  12.063  13.665
54782SOL    HW166185   1.699  12.138  13.607
54782SOL    HW266186   1.760  12.067  13.725
54783SOL     OW66187  13.782   6.142  11.073
54783SOL    HW166188  13.846   6.073  11.086
54783SOL    HW266189  13.826   6.205  11.016
54784SOL     OW66190  13.168  11.109   6.062
54784SOL    HW166191  13.214  11.149   6.136
54784SOL    HW266192  13.227  11.041   6.032
54785SOL     OW66193   8.244  13.012  14.260
54785SOL    HW166194   8.188  12.998  14.336
54785SOL    HW266195   8.184  13.036  14.189
54786SOL     OW66196   1.063  12.788   7.667
54786SOL    HW166197   1.060  12.693   7.662
54786SOL    HW266198   0.974  12.816   7.644
54787SOL     OW66199   7.741   5.626  13.751
54787SOL    HW166200   7.802   5.699  13.757
54787SOL    HW266201   7.693   5.628  13.834
54788SOL     OW66202   8.646  11.208   2.676
54788SOL    HW166203   8.559  11.198   2.638
54788SOL    HW266204   8.646  11.150   2.752
54789SOL     OW66205  12.565   5.806  10.159
54789SOL    HW166206  12.527   5.755  10.231
54789SOL    HW266207  12.635   5.750  10.125
54790SOL     OW66208   0.339   8.355   9.887
54790SOL    HW166209   0.267   8.391   9.938
54790SOL    HW266210   0.354   8.268   9.925
54791SOL     OW66211  12.656   3.366   0.955
54791SOL    HW166212  12.630   3.458   0.951
54791SOL    HW266213  12.574   3.318   0.943
54792SOL     OW66214   7.639  11.727   2.140
54792SOL    HW166215   7.587  11.777   2.204
54792SOL    HW266216   7.582  11.654   2.116
54793SOL     OW66217  13.953   1.526   3.080
54793SOL    HW166218  13.962   1.575   2.998
54793SOL    HW266219  14.021   1.459   3.075
54794SOL     OW66220  13.619  13.697   8.766
54794SOL    HW166221  13.642  13.782   8.805
54794SOL    HW266222  13.541  13.670   8.813
54795SOL     OW66223   2.766  10.364  10.360
54795SOL    HW166224   2.835  10.297  10.370
54795SOL    HW266225   2.813  10.442  10.330
54796SOL     OW66226   8.955   9.156   2.446
54796SOL    HW166227   8.987   9.218   2.380
54796SOL    HW266228   8.993   9.187   2.528
54797SOL     OW66229  10.579  12.615   6.916
54797SOL    HW166230  10.606  12.527   6.944
54797SOL    HW266231  10.621  12.673   6.979
54798SOL     OW66232  12.684   5.531  12.446
54798SOL    HW166233  12.736   5.521  12.366
54798SOL    HW266234  12.657   5.622  12.447
54799SOL     OW66235  13.111   5.139   5.700
54799SOL    HW166236  13.157   5.059   5.724
54799SOL    HW266237  13.025   5.131   5.742
54800SOL     OW66238   7.297   5.344   1.550
54800SOL    HW166239   7.376   5.357   1.497
54800SOL    HW266240   7.305   5.408   1.620
54801SOL     OW66241   0.487   1.515   2.236
54801SOL    HW166242   0.482   1.502   2.331
54801SOL    HW266243   0.401   1.551   2.212
54802SOL     OW66244   5.397   1.194   6.192
54802SOL    HW166245   5.350   1.274   6.216
54802SOL    HW266246   5.479   1.199   6.241
54803SOL     OW66247  14.694  13.619   3.905
54803SOL    HW166248  14.748  13.625   3.984
54803SOL    HW266249  14.642  13.699   3.905
54804SOL     OW66250  13.318  10.389   8.389
54804SOL    HW166251  13.311  10.393   8.484
54804SOL    HW266252  13.330  10.296   8.369
54805SOL     OW66253  13.627  12.187   8.446
54805SOL    HW166254  13.631  12.222   8.357
54805SOL    HW266255  13.719  12.181   8.474
54806SOL     OW66256  13.818  11.262  10.125
54806SOL    HW166257  13.728  11.271  10.095
54806SOL    HW266258  13.852  11.351  10.129
54807SOL     OW66259   8.969   8.552  12.343
54807SOL    HW166260   9.020   8.497  12.285
54807SOL    HW266261   8.916   8.492  12.394
54808SOL     OW66262   3.680  13.450   2.098
54808SOL    HW166263   3.688  13.508   2.022
54808SOL    HW266264   3.748  13.479   2.158
54809SOL     OW66265   8.843  14.562   7.922
54809SOL    HW166266   8.917  14.583   7.979
54809SOL    HW266267   8.806  14.482   7.959
54810SOL     OW66268   4.818   8.208   9.718
54810SOL    HW166269   4.786   8.294   9.746
54810SOL    HW266270   4.837   8.162   9.799
54811SOL     OW66271  12.957   6.468   8.859
54811SOL    HW166272  12.951   6.387   8.909
54811SOL    HW266273  12.963   6.537   8.925
54812SOL     OW66274   8.812   5.142   0.462
54812SOL    HW166275   8.873   5.180   0.400
54812SOL    HW266276   8.729   5.186   0.444
54813SOL     OW66277   5.735  10.515  10.746
54813SOL    HW166278   5.801  10.540  10.681
54813SOL    HW266279   5.770  10.547  10.829
54814SOL     OW66280  12.691   0.962   7.292
54814SOL    HW166281  12.688   0.992   7.201
54814SOL    HW266282  12.766   1.009   7.330
54815SOL     OW66283   1.825   4.532   1.348
54815SOL    HW166284   1.822   4.603   1.413
54815SOL    HW266285   1.904   4.551   1.296
54816SOL     OW66286   4.416   8.892   6.202
54816SOL    HW166287   4.325   8.874   6.179
54816SOL    HW266288   4.419   8.986   6.216
54817SOL     OW66289  11.995   3.667   9.423
54817SOL    HW166290  11.908   3.701   9.403
54817SOL    HW266291  12.002   3.674   9.518
54818SOL     OW66292   0.070   0.592   8.768
54818SOL    HW166293   0.031   0.519   8.817
54818SOL    HW266294  14.878   0.656   8.760
54819SOL     OW66295   0.465  14.390   9.558
54819SOL    HW166296   0.383  14.440   9.563
54819SOL    HW266297   0.530  14.446   9.600
54820SOL     OW66298   4.515  13.473  11.967
54820SOL    HW166299   4.532  13.412  11.896
54820SOL    HW266300   4.603  13.500  11.996
54821SOL     OW66301   8.284  12.415   0.365
54821SOL    HW166302   8.204  12.375   0.334
54821SOL    HW266303   8.301  12.487   0.305
54822SOL     OW66304  11.993   0.940   4.767
54822SOL    HW166305  12.033   0.900   4.690
54822SOL    HW266306  12.017   0.883   4.840
54823SOL     OW66307   4.694  14.310   6.667
54823SOL    HW166308   4.644  14.368   6.724
54823SOL    HW266309   4.761  14.272   6.725
54824SOL     OW66310   6.189  12.860  13.062
54824SOL    HW166311   6.129  12.800  13.106
54824SOL    HW266312   6.255  12.803  13.022
54825SOL     OW66313  10.513  10.650   5.475
54825SOL    HW166314  10.442  10.615   5.422
54825SOL    HW266315  10.494  10.744   5.482
54826SOL     OW66316  11.835  10.335   6.557
54826SOL    HW166317  11.855  10.428   6.549
54826SOL    HW266318  11.792  10.327   6.643
54827SOL     OW66319  14.590   8.990   2.230
54827SOL    HW166320  14.507   8.942   2.230
54827SOL    HW266321  14.650   8.933   2.278
54828SOL     OW66322   7.767   6.392  13.898
54828SOL    HW166323   7.692   6.335  13.916
54828SOL    HW266324   7.819   6.389  13.979
54829SOL     OW66325  13.325   8.586   0.288
54829SOL    HW166326  13.396   8.642   0.258
54829SOL    HW266327  13.247   8.620   0.243
54830SOL     OW66328   1.296  10.332  11.347
54830SOL    HW166329   1.216  10.295  11.310
54830SOL    HW266330   1.348  10.255  11.373
54831SOL     OW66331  10.294   2.909  11.445
54831SOL    HW166332  10.231   2.876  11.380
54831SOL    HW266333  10.340   2.831  11.475
54832SOL     OW66334   8.346   6.711   7.224
54832SOL    HW166335   8.341   6.634   7.168
54832SOL    HW266336   8.394   6.681   7.301
54833SOL     OW66337  10.340   2.916   9.306
54833SOL    HW166338  10.283   2.840   9.312
54833SOL    HW266339  10.386   2.919   9.390
54834SOL     OW66340  12.095   9.567  14.712
54834SOL    HW166341  12.147   9.647  14.720
54834SOL    HW266342  12.155   9.503  14.674
54835SOL     OW66343  11.092  12.652   6.425
54835SOL    HW166344  10.997  12.660   6.420
54835SOL    HW266345  11.108  12.558   6.441
54836SOL     OW66346   5.224   0.255   0.705
54836SOL    HW166347   5.139   0.225   0.673
54836SOL    HW266348   5.203   0.326   0.766
54837SOL     OW66349   4.923   6.132   8.980
54837SOL    HW166350   5.002   6.186   8.979
54837SOL    HW266351   4.907   6.115   9.072
54838SOL     OW66352  14.609   3.854  14.330
54838SOL    HW166353  14.659   3.883  14.254
54838SOL    HW266354  14.651   3.772  14.356
54839SOL     OW66355   4.838   9.856  13.266
54839SOL    HW166356   4.759   9.835  13.216
54839SOL    HW266357   4.829   9.807  13.348
54840SOL     OW66358   5.853   3.831   6.288
54840SOL    HW166359   5.945   3.804   6.288
54840SOL    HW266360   5.856   3.925   6.309
54841SOL     OW66361   0.286   3.244  10.512
54841SOL    HW166362   0.299   3.336  10.487
54841SOL    HW266363   0.198   3.242  10.550
54842SOL     OW66364  14.739   4.410   7.962
54842SOL    HW166365  14.835   4.411   7.965
54842SOL    HW266366  14.718   4.403   7.869
54843SOL     OW66367   2.049  11.483   5.520
54843SOL    HW166368   2.138  11.474   5.488
54843SOL    HW266369   2.046  11.430   5.600
54844SOL     OW66370  12.341   1.567   9.440
54844SOL    HW166371  12.339   1.628   9.366
54844SOL    HW266372  12.405   1.500   9.414
54845SOL     OW66373   6.851  11.015   9.167
54845SOL    HW166374   6.768  11.056   9.144
54845SOL    HW266375   6.870  11.047   9.255
54846SOL     OW66376   8.257  12.120   0.405
54846SOL    HW166377   8.216  12.108   0.319
54846SOL    HW266378   8.273  12.215   0.411
54847SOL     OW66379   5.076   0.552   4.833
54847SOL    HW166380   5.002   0.583   4.781
54847SOL    HW266381   5.086   0.460   4.809
54848SOL     OW66382   0.700   5.283  13.576
54848SOL    HW166383   0.604   5.279  13.585
54848SOL    HW266384   0.719   5.228  13.500
54849SOL     OW66385  11.989   0.972  12.049
54849SOL    HW166386  11.914   1.024  12.079
54849SOL    HW266387  12.063   1.007  12.097
54850SOL     OW66388   5.008   5.463   4.313
54850SOL    HW166389   4.945   5.404   4.353
54850SOL    HW266390   5.086   5.409   4.299
54851SOL     OW66391   1.203   4.125  14.657
54851SOL    HW166392   1.131   4.188  14.654
54851SOL    HW266393   1.219   4.104  14.565
54852SOL     OW66394   4.089   9.987   1.607
54852SOL    HW166395   4.064  10.071   1.569
54852SOL    HW266396   4.035   9.923   1.561
54853SOL     OW66397   0.524   5.029  14.840
54853SOL    HW166398   0.458   5.013   0.029
54853SOL    HW266399   0.501   4.968  14.770
54854SOL     OW66400   7.947   5.664  11.490
54854SOL    HW166401   7.991   5.708  11.418
54854SOL    HW266402   8.018   5.634  11.547
54855SOL     OW66403   1.081   5.067   1.457
54855SOL    HW166404   1.108   5.041   1.545
54855SOL    HW266405   1.092   4.987   1.405
54856SOL     OW66406   3.056   2.077  13.525
54856SOL    HW166407   3.063   1.990  13.486
54856SOL    HW266408   3.045   2.136  13.451
54857SOL     OW66409   5.181   9.107  12.013
54857SOL    HW166410   5.245   9.081  12.079
54857SOL    HW266411   5.226   9.094  11.929
54858SOL     OW66412  13.620   0.204   2.561
54858SOL    HW166413  13.557   0.140   2.529
54858SOL    HW266414  13.605   0.282   2.508
54859SOL     OW66415   0.708   9.338   1.121
54859SOL    HW166416   0.698   9.416   1.065
54859SOL    HW266417   0.639   9.346   1.186
54860SOL     OW66418   8.180   5.729   0.402
54860SOL    HW166419   8.218   5.729   0.314
54860SOL    HW266420   8.203   5.643   0.437
54861SOL     OW66421  11.900  13.832  12.921
54861SOL    HW166422  11.874  13.804  12.833
54861SOL    HW266423  11.818  13.858  12.964
54862SOL     OW66424   7.160  11.072   7.570
54862SOL    HW166425   7.183  11.123   7.648
54862SOL    HW266426   7.113  10.996   7.605
54863SOL     OW66427   7.531   6.933   5.357
54863SOL    HW166428   7.469   6.905   5.425
54863SOL    HW266429   7.617   6.931   5.400
54864SOL     OW66430  13.983   1.528  11.122
54864SOL    HW166431  14.070   1.526  11.161
54864SOL    HW266432  13.998   1.547  11.030
54865SOL     OW66433  11.119   4.790   7.554
54865SOL    HW166434  11.119   4.717   7.492
54865SOL    HW266435  11.135   4.868   7.501
54866SOL     OW66436   3.150   6.136   9.004
54866SOL    HW166437   3.188   6.218   8.973
54866SOL    HW266438   3.060   6.136   8.969
54867SOL     OW66439  14.360  14.433   4.369
54867SOL    HW166440  14.432  14.391   4.320
54867SOL    HW266441  14.401  14.464   4.450
54868SOL     OW66442   0.504  11.726   4.158
54868SOL    HW166443   0.515  11.647   4.210
54868SOL    HW266444   0.410  11.738   4.151
54869SOL     OW66445   4.085  13.512  10.196
54869SOL    HW166446   4.005  13.563  10.188
54869SOL    HW266447   4.142  13.565  10.252
54870SOL     OW66448   6.521   3.076  14.132
54870SOL    HW166449   6.582   3.005  14.154
54870SOL    HW266450   6.522   3.133  14.209
54871SOL     OW66451   8.229   5.487   2.355
54871SOL    HW166452   8.146   5.534   2.349
54871SOL    HW266453   8.207   5.397   2.329
54872SOL     OW66454  13.823   7.136   6.213
54872SOL    HW166455  13.850   7.182   6.133
54872SOL    HW266456  13.867   7.182   6.284
54873SOL     OW66457  12.463  11.037   4.689
54873SOL    HW166458  12.465  11.066   4.598
54873SOL    HW266459  12.410  10.957   4.687
54874SOL     OW66460   9.995   2.371  10.012
54874SOL    HW166461  10.032   2.345  10.096
54874SOL    HW266462   9.915   2.319  10.004
54875SOL     OW66463  10.421  11.949  13.688
54875SOL    HW166464  10.339  11.911  13.657
54875SOL    HW266465  10.488  11.884  13.664
54876SOL     OW66466   6.591  10.250  11.676
54876SOL    HW166467   6.678  10.252  11.716
54876SOL    HW266468   6.604  10.212  11.590
54877SOL     OW66469  11.534   9.826   2.040
54877SOL    HW166470  11.572   9.866   1.962
54877SOL    HW266471  11.441   9.817   2.020
54878SOL     OW66472   4.449   3.581   0.091
54878SOL    HW166473   4.415   3.668   0.070
54878SOL    HW266474   4.374   3.534   0.129
54879SOL     OW66475   1.615   6.047  14.283
54879SOL    HW166476   1.648   6.015  14.367
54879SOL    HW266477   1.634   5.976  14.221
54880SOL     OW66478   3.343   3.641   1.973
54880SOL    HW166479   3.372   3.707   1.911
54880SOL    HW266480   3.256   3.614   1.942
54881SOL     OW66481  10.255  12.301   4.798
54881SOL    HW166482  10.297  12.345   4.871
54881SOL    HW266483  10.184  12.360   4.772
54882SOL     OW66484   0.761   7.998   5.507
54882SOL    HW166485   0.668   7.982   5.524
54882SOL    HW266486   0.792   8.044   5.585
54883SOL     OW66487   5.675  13.898  13.717
54883SOL    HW166488   5.612  13.967  13.735
54883SOL    HW266489   5.704  13.868  13.803
54884SOL     OW66490   9.296  14.505  14.821
54884SOL    HW166491   9.219  14.451  14.838
54884SOL    HW266492   9.340  14.460  14.749
54885SOL     OW66493  11.349   4.000   8.718
54885SOL    HW166494  11.376   4.091   8.706
54885SOL    HW266495  11.416   3.949   8.673
54886SOL     OW66496   8.504  12.245   5.231
54886SOL    HW166497   8.460  12.209   5.307
54886SOL    HW266498   8.587  12.198   5.226
54887SOL     OW66499   5.127  11.144   2.470
54887SOL    HW166500   5.081  11.182   2.395
54887SOL    HW266501   5.059  11.131   2.536
54888SOL     OW66502   8.391   5.845  14.728
54888SOL    HW166503   8.386   5.908  14.657
54888SOL    HW266504   8.331   5.878  14.795
54889SOL     OW66505  12.869  12.337  11.155
54889SOL    HW166506  12.910  12.352  11.070
54889SOL    HW266507  12.914  12.398  11.214
54890SOL     OW66508  14.261  13.840  13.413
54890SOL    HW166509  14.287  13.779  13.344
54890SOL    HW266510  14.183  13.884  13.378
54891SOL     OW66511   1.251   0.536  14.130
54891SOL    HW166512   1.319   0.514  14.193
54891SOL    HW266513   1.169   0.523  14.178
54892SOL     OW66514   7.785   5.034   8.860
54892SOL    HW166515   7.768   5.110   8.916
54892SOL    HW266516   7.785   5.069   8.771
54893SOL     OW66517   4.404   8.863  10.136
54893SOL    HW166518   4.425   8.928  10.204
54893SOL    HW266519   4.350   8.912  10.074
54894SOL     OW66520   3.103  14.208   6.158
54894SOL    HW166521   3.194  14.212   6.128
54894SOL    HW266522   3.051  14.204   6.077
54895SOL     OW66523  11.585  10.599  12.786
54895SOL    HW166524  11.537  10.663  12.838
54895SOL    HW266525  11.576  10.517  12.835
54896SOL     OW66526  12.910   2.382   9.364
54896SOL    HW166527  12.892   2.303   9.313
54896SOL    HW266528  13.001   2.373   9.393
54897SOL     OW66529   1.799  11.683   6.220
54897SOL    HW166530   1.854  11.760   6.231
54897SOL    HW266531   1.818  11.627   6.295
54898SOL     OW66532   2.830   5.086   6.002
54898SOL    HW166533   2.842   5.116   5.912
54898SOL    HW266534   2.916   5.054   6.028
54899SOL     OW66535   4.978  11.890  12.173
54899SOL    HW166536   4.970  11.801  12.208
54899SOL    HW266537   4.903  11.937  12.211
54900SOL     OW66538  11.143   1.157   5.403
54900SOL    HW166539  11.223   1.194   5.441
54900SOL    HW266540  11.094   1.122   5.477
54901SOL     OW66541   3.916   5.633   6.193
54901SOL    HW166542   3.864   5.618   6.114
54901SOL    HW266543   3.984   5.565   6.190
54902SOL     OW66544   2.861  11.550   2.047
54902SOL    HW166545   2.797  11.621   2.046
54902SOL    HW266546   2.843  11.504   2.130
54903SOL     OW66547   1.300  13.238  10.770
54903SOL    HW166548   1.384  13.283  10.756
54903SOL    HW266549   1.266  13.223  10.682
54904SOL     OW66550   6.129   3.660   5.229
54904SOL    HW166551   6.105   3.673   5.321
54904SOL    HW266552   6.159   3.570   5.224
54905SOL     OW66553  12.552  12.350  10.434
54905SOL    HW166554  12.565  12.296  10.513
54905SOL    HW266555  12.519  12.288  10.368
54906SOL     OW66556   5.599   7.090   2.939
54906SOL    HW166557   5.604   7.168   2.994
54906SOL    HW266558   5.555   7.118   2.860
54907SOL     OW66559  12.639   6.336   9.351
54907SOL    HW166560  12.620   6.425   9.383
54907SOL    HW266561  12.658   6.286   9.430
54908SOL     OW66562  14.628  11.241   1.510
54908SOL    HW166563  14.705  11.217   1.562
54908SOL    HW266564  14.664  11.291   1.437
54909SOL     OW66565  13.192   6.708   5.659
54909SOL    HW166566  13.266   6.663   5.618
54909SOL    HW266567  13.221   6.799   5.666
54910SOL     OW66568   2.832  10.923  14.662
54910SOL    HW166569   2.853  10.979  14.737
54910SOL    HW266570   2.825  10.835  14.699
54911SOL     OW66571  12.643   7.053   2.383
54911SOL    HW166572  12.621   7.068   2.291
54911SOL    HW266573  12.604   7.127   2.429
54912SOL     OW66574  12.260   2.383   9.228
54912SOL    HW166575  12.352   2.370   9.205
54912SOL    HW266576  12.259   2.467   9.274
54913SOL     OW66577   6.633   7.406   0.749
54913SOL    HW166578   6.569   7.412   0.819
54913SOL    HW266579   6.716   7.390   0.793
54914SOL     OW66580  10.648   9.531   9.998
54914SOL    HW166581  10.681   9.576   9.920
54914SOL    HW266582  10.669   9.590  10.070
54915SOL     OW66583   9.269   8.395  13.547
54915SOL    HW166584   9.187   8.406  13.499
54915SOL    HW266585   9.276   8.474  13.600
54916SOL     OW66586  11.471   5.091   8.415
54916SOL    HW166587  11.463   5.017   8.354
54916SOL    HW266588  11.416   5.067   8.490
54917SOL     OW66589  11.103   2.747  11.210
54917SOL    HW166590  11.014   2.765  11.240
54917SOL    HW266591  11.094   2.726  11.117
54918SOL     OW66592  13.735  14.599  14.535
54918SOL    HW166593  13.734  14.563  14.624
54918SOL    HW266594  13.773  14.529  14.482
54919SOL     OW66595  11.806  10.760   6.237
54919SOL    HW166596  11.853  10.680   6.213
54919SOL    HW266597  11.812  10.815   6.158
54920SOL     OW66598  11.464   4.424   4.170
54920SOL    HW166599  11.477   4.359   4.100
54920SOL    HW266600  11.474   4.508   4.126
54921SOL     OW66601   6.793  11.058   1.138
54921SOL    HW166602   6.866  11.112   1.169
54921SOL    HW266603   6.800  11.062   1.042
54922SOL     OW66604  11.173  14.778   2.610
54922SOL    HW166605  11.224  14.806   2.534
54922SOL    HW266606  11.153  14.686   2.593
54923SOL     OW66607  11.326   4.856  13.657
54923SOL    HW166608  11.379   4.834  13.580
54923SOL    HW266609  11.390   4.882  13.723
54924SOL     OW66610  12.692   3.271   5.882
54924SOL    HW166611  12.604   3.233   5.874
54924SOL    HW266612  12.721   3.246   5.970
54925SOL     OW66613   9.371  11.581   2.056
54925SOL    HW166614   9.413  11.580   1.970
54925SOL    HW266615   9.393  11.496   2.094
54926SOL     OW66616   7.565  13.144   2.825
54926SOL    HW166617   7.519  13.176   2.903
54926SOL    HW266618   7.519  13.063   2.802
54927SOL     OW66619   5.121  13.421   0.265
54927SOL    HW166620   5.157  13.474   0.336
54927SOL    HW266621   5.105  13.335   0.305
54928SOL     OW66622   2.486   1.753  12.337
54928SOL    HW166623   2.493   1.725  12.246
54928SOL    HW266624   2.513   1.844  12.336
54929SOL     OW66625   4.404  10.541   6.685
54929SOL    HW166626   4.431  10.520   6.595
54929SOL    HW266627   4.429  10.465   6.736
54930SOL     OW66628   5.309   6.931   8.021
54930SOL    HW166629   5.337   6.938   7.930
54930SOL    HW266630   5.363   6.995   8.068
54931SOL     OW66631   2.077   6.614  13.198
54931SOL    HW166632   2.091   6.548  13.267
54931SOL    HW266633   2.056   6.694  13.245
54932SOL     OW66634   4.645   7.352  10.741
54932SOL    HW166635   4.709   7.283  10.723
54932SOL    HW266636   4.574   7.308  10.787
54933SOL     OW66637   5.301   2.937   2.729
54933SOL    HW166638   5.307   2.911   2.637
54933SOL    HW266639   5.265   2.860   2.773
54934SOL     OW66640   5.377   3.909   2.457
54934SOL    HW166641   5.340   3.937   2.541
54934SOL    HW266642   5.364   3.814   2.455
54935SOL     OW66643   1.038  12.508   8.415
54935SOL    HW166644   0.972  12.551   8.469
54935SOL    HW266645   0.990  12.438   8.370
54936SOL     OW66646   2.938   6.469   9.051
54936SOL    HW166647   2.967   6.553   9.085
54936SOL    HW266648   2.944   6.478   8.956
54937SOL     OW66649   7.582   0.507   1.504
54937SOL    HW166650   7.555   0.598   1.501
54937SOL    HW266651   7.678   0.511   1.507
54938SOL     OW66652  11.441   7.433   1.377
54938SOL    HW166653  11.364   7.389   1.413
54938SOL    HW266654  11.420   7.447   1.285
54939SOL     OW66655   6.619   3.261   9.098
54939SOL    HW166656   6.699   3.213   9.078
54939SOL    HW266657   6.650   3.344   9.135
54940SOL     OW66658   9.760  12.286   4.199
54940SOL    HW166659   9.851  12.273   4.227
54940SOL    HW266660   9.757  12.247   4.112
54941SOL     OW66661   6.931   5.419  12.047
54941SOL    HW166662   7.022   5.404  12.021
54941SOL    HW266663   6.937   5.452  12.137
54942SOL     OW66664  10.153  12.556   6.467
54942SOL    HW166665  10.136  12.462   6.475
54942SOL    HW266666  10.102  12.582   6.390
54943SOL     OW66667  14.634   7.657   1.062
54943SOL    HW166668  14.629   7.752   1.050
54943SOL    HW266669  14.720   7.642   1.101
54944SOL     OW66670   8.222   2.785   4.239
54944SOL    HW166671   8.233   2.872   4.279
54944SOL    HW266672   8.201   2.804   4.148
54945SOL     OW66673   1.923   1.008  13.516
54945SOL    HW166674   1.980   0.932  13.520
54945SOL    HW266675   1.844   0.977  13.472
54946SOL     OW66676   3.468  11.366   5.365
54946SOL    HW166677   3.554  11.375   5.325
54946SOL    HW266678   3.408  11.404   5.301
54947SOL     OW66679   8.862  10.563   4.664
54947SOL    HW166680   8.788  10.573   4.604
54947SOL    HW266681   8.848  10.630   4.731
54948SOL     OW66682   1.891   4.752  13.848
54948SOL    HW166683   1.968   4.770  13.903
54948SOL    HW266684   1.827   4.713  13.908
54949SOL     OW66685   3.148   6.034   0.065
54949SOL    HW166686   3.123   6.097   0.132
54949SOL    HW266687   3.065   6.007   0.024
54950SOL     OW66688   6.507   4.557  14.770
54950SOL    HW166689   6.557   4.601  14.839
54950SOL    HW266690   6.462   4.628  14.724
54951SOL     OW66691   3.901  10.460   8.863
54951SOL    HW166692   3.945  10.389   8.816
54951SOL    HW266693   3.849  10.415   8.930
54952SOL     OW66694   8.404   8.291   9.870
54952SOL    HW166695   8.393   8.222   9.805
54952SOL    HW266696   8.369   8.254   9.951
54953SOL     OW66697   2.695  10.880   7.640
54953SOL    HW166698   2.625  10.889   7.705
54953SOL    HW266699   2.736  10.967   7.637
54954SOL     OW66700   8.294   0.309   8.956
54954SOL    HW166701   8.347   0.326   9.034
54954SOL    HW266702   8.330   0.367   8.889
54955SOL     OW66703  13.873  12.192   8.586
54955SOL    HW166704  13.904  12.279   8.609
54955SOL    HW266705  13.861  12.148   8.670
54956SOL     OW66706   8.234   4.692  10.829
54956SOL    HW166707   8.155   4.701  10.775
54956SOL    HW266708   8.267   4.781  10.837
54957SOL     OW66709   7.179   5.851  11.030
54957SOL    HW166710   7.152   5.834  11.120
54957SOL    HW266711   7.101   5.830  10.977
54958SOL     OW66712   4.079  14.745  11.124
54958SOL    HW166713   4.165  14.706  11.110
54958SOL    HW266714   4.090  14.837  11.100
54959SOL     OW66715   2.216   6.472   7.846
54959SOL    HW166716   2.306   6.476   7.813
54959SOL    HW266717   2.185   6.563   7.842
54960SOL     OW66718   8.938   7.073   7.034
54960SOL    HW166719   8.953   7.059   6.941
54960SOL    HW266720   8.906   7.163   7.040
54961SOL     OW66721   5.095   7.001  13.350
54961SOL    HW166722   5.164   6.973  13.411
54961SOL    HW266723   5.035   6.926  13.347
54962SOL     OW66724  14.753   7.282   3.812
54962SOL    HW166725  14.671   7.251   3.775
54962SOL    HW266726  14.769   7.225   3.887
54963SOL     OW66727  12.014   0.780  10.732
54963SOL    HW166728  12.103   0.816  10.734
54963SOL    HW266729  12.026   0.686  10.727
54964SOL     OW66730  12.726  12.299   9.007
54964SOL    HW166731  12.705  12.211   9.036
54964SOL    HW266732  12.820  12.297   8.989
54965SOL     OW66733   9.356   0.262   4.354
54965SOL    HW166734   9.284   0.320   4.377
54965SOL    HW266735   9.378   0.217   4.436
54966SOL     OW66736   4.803   2.668  13.022
54966SOL    HW166737   4.768   2.600  13.079
54966SOL    HW266738   4.766   2.648  12.936
54967SOL     OW66739   2.398   2.426   5.331
54967SOL    HW166740   2.478   2.434   5.383
54967SOL    HW266741   2.377   2.333   5.333
54968SOL     OW66742   0.168   7.565   9.712
54968SOL    HW166743   0.178   7.476   9.677
54968SOL    HW266744   0.090   7.560   9.768
54969SOL     OW66745  13.028  10.636   4.373
54969SOL    HW166746  13.066  10.652   4.287
54969SOL    HW266747  13.030  10.541   4.383
54970SOL     OW66748  10.898   2.526   8.236
54970SOL    HW166749  10.823   2.467   8.224
54970SOL    HW266750  10.972   2.477   8.199
54971SOL     OW66751   2.307   6.105  13.057
54971SOL    HW166752   2.277   6.182  13.105
54971SOL    HW266753   2.299   6.129  12.965
54972SOL     OW66754  11.830  13.473   2.965
54972SOL    HW166755  11.829  13.431   3.051
54972SOL    HW266756  11.753  13.530   2.965
54973SOL     OW66757  12.553   8.973   6.090
54973SOL    HW166758  12.463   8.996   6.116
54973SOL    HW266759  12.591   8.934   6.169
54974SOL     OW66760   2.379   5.047   9.052
54974SOL    HW166761   2.366   5.063   9.145
54974SOL    HW266762   2.295   5.068   9.011
54975SOL     OW66763   4.702   9.510   9.280
54975SOL    HW166764   4.732   9.529   9.191
54975SOL    HW266765   4.716   9.592   9.328
54976SOL     OW66766   4.006   3.054   5.327
54976SOL    HW166767   3.937   3.072   5.391
54976SOL    HW266768   4.029   3.141   5.293
54977SOL     OW66769  10.354   1.561   6.745
54977SOL    HW166770  10.399   1.507   6.810
54977SOL    HW266771  10.261   1.545   6.761
54978SOL     OW66772   0.560   6.781   4.298
54978SOL    HW166773   0.651   6.811   4.296
54978SOL    HW266774   0.567   6.686   4.292
54979SOL     OW66775   6.642   6.463   4.684
54979SOL    HW166776   6.679   6.451   4.597
54979SOL    HW266777   6.715   6.494   4.738
54980SOL     OW66778  12.618   4.277  14.249
54980SOL    HW166779  12.707   4.272  14.283
54980SOL    HW266780  12.625   4.332  14.170
54981SOL     OW66781  11.163   4.418  11.330
54981SOL    HW166782  11.122   4.342  11.372
54981SOL    HW266783  11.108   4.434  11.253
54982SOL     OW66784   2.211   7.328   7.324
54982SOL    HW166785   2.259   7.408   7.345
54982SOL    HW266786   2.131   7.359   7.281
54983SOL     OW66787   4.430  13.065  12.866
54983SOL    HW166788   4.466  13.056  12.778
54983SOL    HW266789   4.500  13.107  12.917
54984SOL     OW66790   8.798   5.792   1.626
54984SOL    HW166791   8.723   5.741   1.657
54984SOL    HW266792   8.864   5.726   1.603
54985SOL     OW66793  13.220   0.614   7.264
54985SOL    HW166794  13.244   0.601   7.173
54985SOL    HW266795  13.226   0.708   7.277
54986SOL     OW66796  14.222   1.042  14.428
54986SOL    HW166797  14.137   1.074  14.400
54986SOL    HW266798  14.242   1.091  14.507
54987SOL     OW66799  14.799   4.894  11.924
54987SOL    HW166800  14.779   4.927  11.836
54987SOL    HW266801  14.773   4.965  11.983
54988SOL     OW66802  10.685   4.240   1.359
54988SOL    HW166803  10.739   4.308   1.320
54988SOL    HW266804  10.741   4.162   1.357
54989SOL     OW66805   0.257   0.846   9.068
54989SOL    HW166806   0.329   0.887   9.116
54989SOL    HW266807   0.300   0.780   9.012
54990SOL     OW66808   1.444   6.755  10.721
54990SOL    HW166809   1.448   6.660  10.719
54990SOL    HW266810   1.466   6.782  10.631
54991SOL     OW66811   8.909  13.491  14.018
54991SOL    HW166812   8.943  13.551  14.085
54991SOL    HW266813   8.880  13.548  13.947
54992SOL     OW66814   8.098  12.469   5.957
54992SOL    HW166815   8.103  12.456   5.863
54992SOL    HW266816   8.119  12.383   5.995
54993SOL     OW66817   7.463  11.617   8.672
54993SOL    HW166818   7.387  11.663   8.637
54993SOL    HW266819   7.460  11.531   8.630
54994SOL     OW66820  11.430   9.801  10.803
54994SOL    HW166821  11.423   9.783  10.709
54994SOL    HW266822  11.382   9.883  10.815
54995SOL     OW66823   2.594   1.470   1.981
54995SOL    HW166824   2.549   1.547   1.944
54995SOL    HW266825   2.640   1.432   1.906
54996SOL     OW66826   1.179  14.607   1.959
54996SOL    HW166827   1.256  14.661   1.981
54996SOL    HW266828   1.120  14.667   1.913
54997SOL     OW66829  13.992   4.084  12.654
54997SOL    HW166830  13.909   4.053  12.691
54997SOL    HW266831  14.051   4.009  12.661
54998SOL     OW66832  12.882   5.607   0.742
54998SOL    HW166833  12.788   5.591   0.743
54998SOL    HW266834  12.904   5.619   0.650
54999SOL     OW66835  13.672   5.031  12.475
54999SOL    HW166836  13.751   5.070  12.438
54999SOL    HW266837  13.654   5.083  12.553
55000SOL     OW66838   5.083   6.045   4.736
55000SOL    HW166839   5.083   6.004   4.822
55000SOL    HW266840   5.148   5.996   4.686
55001SOL     OW66841   1.432  14.434  10.104
55001SOL    HW166842   1.380  14.503  10.144
55001SOL    HW266843   1.377  14.400  10.034
55002SOL     OW66844   6.223   1.287   7.992
55002SOL    HW166845   6.198   1.372   7.956
55002SOL    HW266846   6.318   1.292   8.000
55003SOL     OW66847   6.915   9.884   1.507
55003SOL    HW166848   6.822   9.863   1.507
55003SOL    HW266849   6.937   9.894   1.414
55004SOL     OW66850  13.188  14.542   6.799
55004SOL    HW166851  13.106  14.576   6.837
55004SOL    HW266852  13.211  14.468   6.855
55005SOL     OW66853   8.537  13.375   6.044
55005SOL    HW166854   8.487  13.377   6.125
55005SOL    HW266855   8.627  13.395   6.070
55006SOL     OW66856   3.337   9.498  12.893
55006SOL    HW166857   3.321   9.490  12.987
55006SOL    HW266858   3.356   9.591  12.881
55007SOL     OW66859   4.695   6.025  13.991
55007SOL    HW166860   4.702   5.979  14.075
55007SOL    HW266861   4.610   6.070  13.996
55008SOL     OW66862   4.634  11.651   9.324
55008SOL    HW166863   4.652  11.713   9.395
55008SOL    HW266864   4.604  11.706   9.251
55009SOL     OW66865  11.027  13.555   1.152
55009SOL    HW166866  11.014  13.465   1.182
55009SOL    HW266867  11.088  13.546   1.078
55010SOL     OW66868  12.670  13.712   2.322
55010SOL    HW166869  12.647  13.668   2.404
55010SOL    HW266870  12.705  13.797   2.349
55011SOL     OW66871   1.111  10.709  13.613
55011SOL    HW166872   1.056  10.706  13.691
55011SOL    HW266873   1.200  10.690  13.645
55012SOL     OW66874   8.739   9.432   2.183
55012SOL    HW166875   8.662   9.380   2.206
55012SOL    HW266876   8.704   9.512   2.144
55013SOL     OW66877  12.827   5.569  12.212
55013SOL    HW166878  12.790   5.580  12.124
55013SOL    HW266879  12.908   5.520  12.197
55014SOL     OW66880  13.062   8.246   4.970
55014SOL    HW166881  13.071   8.313   5.038
55014SOL    HW266882  13.014   8.175   5.013
55015SOL     OW66883   1.382  11.454   4.341
55015SOL    HW166884   1.359  11.432   4.432
55015SOL    HW266885   1.360  11.546   4.332
55016SOL     OW66886  10.765  14.503   1.743
55016SOL    HW166887  10.698  14.560   1.782
55016SOL    HW266888  10.782  14.542   1.658
55017SOL     OW66889   4.835   4.874  11.552
55017SOL    HW166890   4.833   4.779  11.547
55017SOL    HW266891   4.808   4.904  11.465
55018SOL     OW66892  10.313  11.012  13.714
55018SOL    HW166893  10.370  10.972  13.648
55018SOL    HW266894  10.276  10.938  13.761
55019SOL     OW66895  13.067   9.097   5.952
55019SOL    HW166896  13.022   9.082   5.869
55019SOL    HW266897  13.118   9.017   5.966
55020SOL     OW66898  11.169   0.802   5.853
55020SOL    HW166899  11.142   0.712   5.839
55020SOL    HW266900  11.152   0.818   5.946
55021SOL     OW66901   4.717   3.446   1.996
55021SOL    HW166902   4.712   3.541   2.005
55021SOL    HW266903   4.675   3.428   1.912
55022SOL     OW66904   6.637  14.324   9.619
55022SOL    HW166905   6.727  14.296   9.601
55022SOL    HW266906   6.593  14.245   9.651
55023SOL     OW66907   1.835   9.249   1.123
55023SOL    HW166908   1.765   9.302   1.162
55023SOL    HW266909   1.789   9.192   1.061
55024SOL     OW66910   0.979   5.579   7.250
55024SOL    HW166911   1.031   5.510   7.291
55024SOL    HW266912   0.921   5.610   7.319
55025SOL     OW66913   0.772   7.424  10.335
55025SOL    HW166914   0.695   7.368  10.323
55025SOL    HW266915   0.773   7.479  10.257
55026SOL     OW66916   5.544   4.679   8.896
55026SOL    HW166917   5.520   4.592   8.928
55026SOL    HW266918   5.631   4.666   8.857
55027SOL     OW66919  10.849  10.589   2.376
55027SOL    HW166920  10.768  10.622   2.415
55027SOL    HW266921  10.863  10.505   2.420
55028SOL     OW66922  10.460   3.088  14.036
55028SOL    HW166923  10.480   3.125  14.122
55028SOL    HW266924  10.401   3.152  13.996
55029SOL     OW66925   0.869   6.668   8.035
55029SOL    HW166926   0.915   6.605   7.979
55029SOL    HW266927   0.832   6.732   7.974
55030SOL     OW66928  12.860   5.103   9.318
55030SOL    HW166929  12.806   5.070   9.246
55030SOL    HW266930  12.849   5.198   9.314
55031SOL     OW66931   7.378   9.658   5.056
55031SOL    HW166932   7.367   9.616   5.141
55031SOL    HW266933   7.334   9.599   4.994
55032SOL     OW66934   1.840   7.647   1.473
55032SOL    HW166935   1.884   7.681   1.551
55032SOL    HW266936   1.870   7.556   1.466
55033SOL     OW66937   9.972   9.325  10.505
55033SOL    HW166938   9.984   9.413  10.470
55033SOL    HW266939   9.915   9.282  10.442
55034SOL     OW66940   3.776  12.978   4.128
55034SOL    HW166941   3.868  12.995   4.147
55034SOL    HW266942   3.764  12.885   4.149
55035SOL     OW66943   5.338   3.413  14.355
55035SOL    HW166944   5.424   3.381  14.383
55035SOL    HW266945   5.297   3.445  14.436
55036SOL     OW66946  11.980   9.479   0.863
55036SOL    HW166947  11.900   9.513   0.903
55036SOL    HW266948  11.969   9.384   0.865
55037SOL     OW66949   0.440   9.017   9.893
55037SOL    HW166950   0.529   9.040   9.923
55037SOL    HW266951   0.386   9.092   9.918
55038SOL     OW66952   5.822   7.530   8.871
55038SOL    HW166953   5.790   7.487   8.792
55038SOL    HW266954   5.901   7.576   8.843
55039SOL     OW66955   1.395  12.741   5.363
55039SOL    HW166956   1.475  12.719   5.315
55039SOL    HW266957   1.401  12.688   5.443
55040SOL     OW66958  10.809  12.704   7.526
55040SOL    HW166959  10.867  12.774   7.496
55040SOL    HW266960  10.843  12.625   7.485
55041SOL     OW66961   9.407  14.423   7.014
55041SOL    HW166962   9.492  14.458   6.986
55041SOL    HW266963   9.392  14.348   6.957
55042SOL     OW66964   0.237   6.197  11.531
55042SOL    HW166965   0.167   6.157  11.582
55042SOL    HW266966   0.207   6.195  11.441
55043SOL     OW66967   8.243   0.267   5.950
55043SOL    HW166968   8.299   0.255   5.872
55043SOL    HW266969   8.263   0.192   6.006
55044SOL     OW66970   8.662   1.858   6.920
55044SOL    HW166971   8.572   1.835   6.896
55044SOL    HW266972   8.683   1.797   6.991
55045SOL     OW66973   9.759   3.647   6.895
55045SOL    HW166974   9.780   3.555   6.877
55045SOL    HW266975   9.688   3.667   6.834
55046SOL     OW66976   8.388  10.238  14.366
55046SOL    HW166977   8.419  10.197  14.285
55046SOL    HW266978   8.327  10.306  14.337
55047SOL     OW66979   6.948  14.101   8.500
55047SOL    HW166980   6.975  14.085   8.590
55047SOL    HW266981   7.013  14.163   8.466
55048SOL     OW66982  11.108   7.294   5.699
55048SOL    HW166983  11.103   7.209   5.742
55048SOL    HW266984  11.054   7.351   5.754
55049SOL     OW66985  14.552   5.532   9.831
55049SOL    HW166986  14.522   5.538   9.740
55049SOL    HW266987  14.524   5.615   9.871
55050SOL     OW66988   1.241   2.454   0.435
55050SOL    HW166989   1.223   2.544   0.461
55050SOL    HW266990   1.155   2.416   0.419
55051SOL     OW66991   5.536  10.931  11.192
55051SOL    HW166992   5.549  10.952  11.099
55051SOL    HW266993   5.475  10.998  11.223
55052SOL     OW66994   6.024   2.835   9.315
55052SOL    HW166995   5.995   2.770   9.251
55052SOL    HW266996   6.113   2.857   9.287
55053SOL     OW66997   6.656  11.953  11.206
55053SOL    HW166998   6.656  12.038  11.250
55053SOL    HW266999   6.723  11.903  11.253
55054SOL     OW67000  11.136  13.708   3.243
55054SOL    HW167001  11.081  13.637   3.277
55054SOL    HW267002  11.088  13.741   3.167
55055SOL     OW67003   7.092  10.296  14.309
55055SOL    HW167004   7.150  10.332  14.376
55055SOL    HW267005   7.061  10.214  14.347
55056SOL     OW67006  10.050  12.360   9.364
55056SOL    HW167007   9.994  12.339   9.439
55056SOL    HW267008  10.019  12.302   9.294
55057SOL     OW67009   0.950   1.296   1.237
55057SOL    HW167010   0.963   1.380   1.192
55057SOL    HW267011   1.037   1.269   1.264
55058SOL     OW67012  13.395   8.193  13.802
55058SOL    HW167013  13.444   8.201  13.884
55058SOL    HW267014  13.315   8.146  13.826
55059SOL     OW67015   5.622   0.761   1.672
55059SOL    HW167016   5.684   0.793   1.737
55059SOL    HW267017   5.663   0.683   1.634
55060SOL     OW67018  10.825   3.251   8.237
55060SOL    HW167019  10.766   3.322   8.210
55060SOL    HW267020  10.827   3.192   8.162
55061SOL     OW67021  12.232  11.632  11.374
55061SOL    HW167022  12.174  11.697  11.414
55061SOL    HW267023  12.175  11.557  11.357
55062SOL     OW67024   0.322   7.547   1.784
55062SOL    HW167025   0.321   7.516   1.694
55062SOL    HW267026   0.401   7.601   1.790
55063SOL     OW67027  10.769  13.831   0.924
55063SOL    HW167028  10.691  13.784   0.954
55063SOL    HW267029  10.809  13.865   1.003
55064SOL     OW67030  12.218   1.862  11.847
55064SOL    HW167031  12.134   1.845  11.806
55064SOL    HW267032  12.209   1.829  11.936
55065SOL     OW67033  11.939   3.137   3.883
55065SOL    HW167034  11.900   3.161   3.799
55065SOL    HW267035  11.871   3.155   3.948
55066SOL     OW67036   6.851   9.218   8.044
55066SOL    HW167037   6.917   9.284   8.066
55066SOL    HW267038   6.800   9.258   7.973
55067SOL     OW67039   2.953   3.562   4.911
55067SOL    HW167040   3.036   3.517   4.894
55067SOL    HW267041   2.888   3.491   4.915
55068SOL     OW67042   9.274  11.180   1.492
55068SOL    HW167043   9.281  11.236   1.415
55068SOL    HW267044   9.348  11.205   1.547
55069SOL     OW67045   1.832   7.524   9.989
55069SOL    HW167046   1.793   7.576  10.059
55069SOL    HW267047   1.835   7.435  10.024
55070SOL     OW67048   3.774   3.372   2.613
55070SOL    HW167049   3.709   3.355   2.681
55070SOL    HW267050   3.771   3.467   2.600
55071SOL     OW67051  12.958   6.866  13.064
55071SOL    HW167052  13.038   6.909  13.035
55071SOL    HW267053  12.956   6.784  13.015
55072SOL     OW67054  14.135  10.155  10.854
55072SOL    HW167055  14.185  10.169  10.774
55072SOL    HW267056  14.129  10.242  10.894
55073SOL     OW67057  14.767  11.483   3.257
55073SOL    HW167058  14.847  11.445   3.220
55073SOL    HW267059  14.774  11.577   3.238
55074SOL     OW67060   8.360   4.990  10.588
55074SOL    HW167061   8.382   4.952  10.673
55074SOL    HW267062   8.403   5.076  10.588
55075SOL     OW67063  14.274   7.684   7.491
55075SOL    HW167064  14.323   7.720   7.417
55075SOL    HW267065  14.186   7.670   7.456
55076SOL     OW67066  12.829   0.798   6.174
55076SOL    HW167067  12.790   0.749   6.101
55076SOL    HW267068  12.913   0.754   6.190
55077SOL     OW67069   3.090   6.657   2.428
55077SOL    HW167070   3.115   6.741   2.390
55077SOL    HW267071   3.167   6.601   2.413
55078SOL     OW67072  10.530   9.411  11.014
55078SOL    HW167073  10.487   9.488  10.977
55078SOL    HW267074  10.556   9.359  10.938
55079SOL     OW67075  13.505  12.460   7.829
55079SOL    HW167076  13.541  12.538   7.869
55079SOL    HW267077  13.495  12.482   7.736
55080SOL     OW67078   7.869  10.635   4.321
55080SOL    HW167079   7.848  10.727   4.336
55080SOL    HW267080   7.942  10.637   4.259
55081SOL     OW67081  14.818   7.813   6.474
55081SOL    HW167082  14.798   7.721   6.489
55081SOL    HW267083  14.809   7.824   6.379
55082SOL     OW67084   6.282  13.608  10.031
55082SOL    HW167085   6.359  13.557  10.053
55082SOL    HW267086   6.236  13.556   9.965
55083SOL     OW67087   5.948   2.611   7.668
55083SOL    HW167088   5.943   2.625   7.573
55083SOL    HW267089   5.878   2.665   7.704
55084SOL     OW67090   1.391   6.871   4.418
55084SOL    HW167091   1.486   6.864   4.423
55084SOL    HW267092   1.374   6.927   4.342
55085SOL     OW67093   4.573   1.150   7.552
55085SOL    HW167094   4.487   1.148   7.595
55085SOL    HW267095   4.578   1.067   7.505
55086SOL     OW67096   9.460   1.545   3.617
55086SOL    HW167097   9.499   1.609   3.557
55086SOL    HW267098   9.427   1.476   3.560
55087SOL     OW67099   2.460   8.089  13.933
55087SOL    HW167100   2.435   8.063  14.022
55087SOL    HW267101   2.440   8.183  13.929
55088SOL     OW67102   7.766  11.425   0.987
55088SOL    HW167103   7.766  11.382   0.901
55088SOL    HW267104   7.733  11.358   1.047
55089SOL     OW67105  13.505   0.334   7.251
55089SOL    HW167106  13.455   0.384   7.316
55089SOL    HW267107  13.507   0.245   7.287
55090SOL     OW67108   9.593   8.164  12.616
55090SOL    HW167109   9.527   8.180  12.683
55090SOL    HW267110   9.644   8.091  12.649
55091SOL     OW67111   4.217   4.850   7.304
55091SOL    HW167112   4.269   4.908   7.359
55091SOL    HW267113   4.185   4.783   7.365
55092SOL     OW67114  11.785  10.414   0.441
55092SOL    HW167115  11.840  10.486   0.472
55092SOL    HW267116  11.843  10.337   0.442
55093SOL     OW67117  14.841  13.178  14.685
55093SOL    HW167118  14.842  13.135  14.770
55093SOL    HW267119   0.042  13.149  14.643
55094SOL     OW67120   5.431   1.244   1.035
55094SOL    HW167121   5.450   1.329   0.995
55094SOL    HW267122   5.351   1.215   0.991
55095SOL     OW67123   9.613  10.485   4.075
55095SOL    HW167124   9.628  10.545   4.149
55095SOL    HW267125   9.688  10.425   4.079
55096SOL     OW67126  14.130   8.102   8.539
55096SOL    HW167127  14.151   8.105   8.632
55096SOL    HW267128  14.083   8.019   8.527
55097SOL     OW67129  10.371   1.998   8.606
55097SOL    HW167130  10.306   1.946   8.558
55097SOL    HW267131  10.338   2.088   8.601
55098SOL     OW67132  14.130   0.968   3.733
55098SOL    HW167133  14.035   0.962   3.744
55098SOL    HW267134  14.161   0.878   3.743
55099SOL     OW67135   7.941   6.326  14.134
55099SOL    HW167136   8.035   6.340  14.118
55099SOL    HW267137   7.938   6.245  14.186
55100SOL     OW67138   2.593   0.055  12.793
55100SOL    HW167139   2.508   0.026  12.826
55100SOL    HW267140   2.601   0.013  12.707
55101SOL     OW67141   4.314   3.811   0.312
55101SOL    HW167142   4.315   3.806   0.216
55101SOL    HW267143   4.389   3.867   0.333
55102SOL     OW67144  10.355  13.022  10.916
55102SOL    HW167145  10.286  13.006  10.980
55102SOL    HW267146  10.431  12.973  10.949
55103SOL     OW67147   4.846  11.301   4.320
55103SOL    HW167148   4.762  11.315   4.278
55103SOL    HW267149   4.836  11.219   4.369
55104SOL     OW67150   8.116   7.398   5.242
55104SOL    HW167151   8.206   7.370   5.230
55104SOL    HW267152   8.116   7.442   5.327
55105SOL     OW67153   1.899   9.669   8.777
55105SOL    HW167154   1.985   9.649   8.740
55105SOL    HW267155   1.860   9.583   8.795
55106SOL     OW67156  11.081  12.418   6.204
55106SOL    HW167157  11.001  12.454   6.164
55106SOL    HW267158  11.066  12.423   6.298
55107SOL     OW67159   6.688  13.403   4.504
55107SOL    HW167160   6.675  13.345   4.429
55107SOL    HW267161   6.782  13.396   4.524
55108SOL     OW67162   0.716   2.310  13.674
55108SOL    HW167163   0.771   2.387  13.658
55108SOL    HW267164   0.775   2.245  13.712
55109SOL     OW67165   7.778   0.656   6.559
55109SOL    HW167166   7.744   0.738   6.524
55109SOL    HW267167   7.849   0.683   6.618
55110SOL     OW67168  12.091   9.108   9.332
55110SOL    HW167169  12.025   9.174   9.352
55110SOL    HW267170  12.173   9.147   9.363
55111SOL     OW67171   0.005   3.118  13.832
55111SOL    HW167172   0.084   3.085  13.788
55111SOL    HW267173   0.038   3.180  13.897
55112SOL     OW67174   7.488  10.000  12.336
55112SOL    HW167175   7.455  10.065  12.397
55112SOL    HW267176   7.583  10.013  12.335
55113SOL     OW67177  10.632   1.357  10.314
55113SOL    HW167178  10.566   1.335  10.380
55113SOL    HW267179  10.715   1.328  10.353
55114SOL     OW67180   1.184   5.305  12.351
55114SOL    HW167181   1.133   5.386  12.356
55114SOL    HW267182   1.186   5.283  12.258
55115SOL     OW67183   1.681   4.640   4.560
55115SOL    HW167184   1.627   4.659   4.637
55115SOL    HW267185   1.642   4.562   4.522
55116SOL     OW67186   9.630   9.261  10.755
55116SOL    HW167187   9.550   9.223  10.793
55116SOL    HW267188   9.698   9.242  10.820
55117SOL     OW67189   3.997   0.540   9.313
55117SOL    HW167190   4.020   0.620   9.358
55117SOL    HW267191   3.901   0.543   9.306
55118SOL     OW67192   0.425  10.640   4.161
55118SOL    HW167193   0.370  10.606   4.232
55118SOL    HW267194   0.497  10.684   4.206
55119SOL     OW67195   7.380   5.272  14.145
55119SOL    HW167196   7.449   5.326  14.185
55119SOL    HW267197   7.314   5.263  14.214
55120SOL     OW67198  11.371   9.919   4.826
55120SOL    HW167199  11.333   9.997   4.786
55120SOL    HW267200  11.313   9.900   4.900
55121SOL     OW67201   7.655   2.729  12.418
55121SOL    HW167202   7.592   2.661  12.393
55121SOL    HW267203   7.738   2.700  12.380
55122SOL     OW67204  14.819   3.751   4.490
55122SOL    HW167205  14.855   3.670   4.526
55122SOL    HW267206  14.724   3.739   4.494
55123SOL     OW67207   6.672   2.212   4.918
55123SOL    HW167208   6.688   2.213   5.012
55123SOL    HW267209   6.726   2.284   4.884
55124SOL     OW67210   3.942  10.446  13.736
55124SOL    HW167211   3.968  10.412  13.651
55124SOL    HW267212   3.879  10.383  13.770
55125SOL     OW67213  11.004   6.745  10.108
55125SOL    HW167214  11.099   6.753  10.116
55125SOL    HW267215  10.991   6.691  10.030
55126SOL     OW67216  11.145   8.050  14.281
55126SOL    HW167217  11.081   8.043  14.352
55126SOL    HW267218  11.229   8.062  14.325
55127SOL     OW67219   4.572   4.247   8.371
55127SOL    HW167220   4.560   4.153   8.384
55127SOL    HW267221   4.551   4.286   8.456
55128SOL     OW67222  14.655   4.762   9.194
55128SOL    HW167223  14.707   4.839   9.219
55128SOL    HW267224  14.720   4.699   9.163
55129SOL     OW67225   3.658  10.707  10.192
55129SOL    HW167226   3.714  10.668  10.125
55129SOL    HW267227   3.591  10.640  10.209
55130SOL     OW67228   3.699  13.567   9.247
55130SOL    HW167229   3.741  13.482   9.231
55130SOL    HW267230   3.628  13.571   9.182
55131SOL     OW67231   9.094  12.573   2.062
55131SOL    HW167232   9.122  12.652   2.109
55131SOL    HW267233   9.090  12.600   1.970
55132SOL     OW67234   9.214   9.731  11.576
55132SOL    HW167235   9.134   9.718  11.625
55132SOL    HW267236   9.231   9.646  11.535
55133SOL     OW67237  10.528  12.776   5.515
55133SOL    HW167238  10.560  12.700   5.564
55133SOL    HW267239  10.544  12.753   5.423
55134SOL     OW67240  13.553   0.847   8.244
55134SOL    HW167241  13.515   0.914   8.300
55134SOL    HW267242  13.643   0.876   8.230
55135SOL     OW67243   0.465   5.455  14.199
55135SOL    HW167244   0.443   5.366  14.173
55135SOL    HW267245   0.539   5.446  14.259
55136SOL     OW67246   7.919   6.087   5.320
55136SOL    HW167247   7.850   6.021   5.316
55136SOL    HW267248   7.992   6.042   5.364
55137SOL     OW67249   1.484   6.050  13.875
55137SOL    HW167250   1.433   5.970  13.886
55137SOL    HW267251   1.424   6.120  13.897
55138SOL     OW67252  10.621  10.106  11.919
55138SOL    HW167253  10.610  10.038  11.986
55138SOL    HW267254  10.709  10.093  11.886
55139SOL     OW67255  14.289   2.183   7.259
55139SOL    HW167256  14.367   2.237   7.269
55139SOL    HW267257  14.233   2.233   7.199
55140SOL     OW67258   5.426   1.403  12.884
55140SOL    HW167259   5.404   1.492  12.912
55140SOL    HW267260   5.376   1.390  12.804
55141SOL     OW67261   6.569  11.008  14.439
55141SOL    HW167262   6.569  11.077  14.373
55141SOL    HW267263   6.652  10.962  14.426
55142SOL     OW67264   8.650   3.664   4.236
55142SOL    HW167265   8.567   3.675   4.282
55142SOL    HW267266   8.673   3.752   4.206
55143SOL     OW67267   5.896  11.455  14.076
55143SOL    HW167268   5.896  11.549  14.056
55143SOL    HW267269   5.954  11.417  14.010
55144SOL     OW67270  12.663  13.087  12.330
55144SOL    HW167271  12.740  13.033  12.350
55144SOL    HW267272  12.696  13.177  12.332
55145SOL     OW67273   5.993   3.319   1.273
55145SOL    HW167274   6.004   3.229   1.242
55145SOL    HW267275   5.899   3.335   1.266
55146SOL     OW67276   8.998   4.397   2.771
55146SOL    HW167277   8.993   4.350   2.688
55146SOL    HW267278   9.071   4.458   2.759
55147SOL     OW67279   5.822   2.426   1.414
55147SOL    HW167280   5.786   2.408   1.328
55147SOL    HW267281   5.917   2.413   1.404
55148SOL     OW67282  13.217   7.456   4.512
55148SOL    HW167283  13.283   7.459   4.581
55148SOL    HW267284  13.265   7.427   4.435
55149SOL     OW67285  12.302   8.427   1.688
55149SOL    HW167286  12.313   8.333   1.671
55149SOL    HW267287  12.281   8.464   1.602
55150SOL     OW67288   5.043  14.073   4.654
55150SOL    HW167289   5.028  14.028   4.738
55150SOL    HW267290   5.037  14.004   4.588
55151SOL     OW67291   0.825   2.646   2.972
55151SOL    HW167292   0.737   2.683   2.972
55151SOL    HW267293   0.881   2.716   3.006
55152SOL     OW67294   8.706   0.292  12.289
55152SOL    HW167295   8.697   0.219  12.351
55152SOL    HW267296   8.662   0.261  12.210
55153SOL     OW67297  13.467  11.551  11.101
55153SOL    HW167298  13.382  11.551  11.057
55153SOL    HW267299  13.490  11.458  11.108
55154SOL     OW67300   4.616  10.917  12.278
55154SOL    HW167301   4.543  10.961  12.322
55154SOL    HW267302   4.652  10.984  12.219
55155SOL     OW67303  11.971   4.614  14.127
55155SOL    HW167304  12.030   4.663  14.184
55155SOL    HW267305  12.012   4.527  14.120
55156SOL     OW67306   8.465  11.763  12.987
55156SOL    HW167307   8.493  11.815  13.062
55156SOL    HW267308   8.462  11.673  13.020
55157SOL     OW67309   0.874   7.708  14.217
55157SOL    HW167310   0.800   7.650  14.199
55157SOL    HW267311   0.856   7.743  14.304
55158SOL     OW67312  10.166  10.499   2.320
55158SOL    HW167313  10.155  10.464   2.408
55158SOL    HW267314  10.107  10.574   2.317
55159SOL     OW67315   1.098  13.238   5.278
55159SOL    HW167316   1.089  13.333   5.282
55159SOL    HW267317   1.071  13.208   5.365
55160SOL     OW67318   9.335   1.037   1.325
55160SOL    HW167319   9.392   1.002   1.394
55160SOL    HW267320   9.299   0.959   1.283
55161SOL     OW67321   7.408  11.064   9.606
55161SOL    HW167322   7.330  11.098   9.562
55161SOL    HW267323   7.380  11.044   9.695
55162SOL     OW67324   7.063   8.290   9.834
55162SOL    HW167325   7.011   8.326   9.762
55162SOL    HW267326   7.152   8.319   9.817
55163SOL     OW67327   8.264  13.980   9.504
55163SOL    HW167328   8.228  14.068   9.515
55163SOL    HW267329   8.328  13.989   9.433
55164SOL     OW67330  13.651  13.103   4.758
55164SOL    HW167331  13.670  13.029   4.701
55164SOL    HW267332  13.685  13.179   4.711
55165SOL     OW67333  13.168   4.126   0.368
55165SOL    HW167334  13.250   4.083   0.390
55165SOL    HW267335  13.102   4.078   0.418
55166SOL     OW67336  10.667  10.861   9.882
55166SOL    HW167337  10.665  10.892   9.973
55166SOL    HW267338  10.663  10.766   9.889
55167SOL     OW67339   2.544   0.652  12.551
55167SOL    HW167340   2.598   0.698  12.615
55167SOL    HW267341   2.570   0.560  12.559
55168SOL     OW67342   5.073  10.405   9.924
55168SOL    HW167343   5.024  10.365   9.853
55168SOL    HW267344   5.083  10.335   9.989
55169SOL     OW67345   4.469   4.316   1.045
55169SOL    HW167346   4.388   4.331   0.998
55169SOL    HW267347   4.470   4.222   1.063
55170SOL     OW67348   2.966   1.520  14.867
55170SOL    HW167349   2.952   1.580  14.794
55170SOL    HW267350   2.890   1.534   0.045
55171SOL     OW67351  14.186   7.542  10.631
55171SOL    HW167352  14.172   7.500  10.716
55171SOL    HW267353  14.138   7.625  10.638
55172SOL     OW67354   3.065   2.629   6.948
55172SOL    HW167355   3.030   2.612   7.036
55172SOL    HW267356   2.997   2.681   6.905
55173SOL     OW67357   7.368   8.825  10.871
55173SOL    HW167358   7.359   8.900  10.930
55173SOL    HW267359   7.407   8.861  10.792
55174SOL     OW67360   8.047  10.709   6.967
55174SOL    HW167361   7.967  10.749   7.000
55174SOL    HW267362   8.063  10.634   7.024
55175SOL     OW67363  10.050   3.103   2.145
55175SOL    HW167364  10.054   3.015   2.109
55175SOL    HW267365  10.038   3.090   2.239
55176SOL     OW67366  11.119   5.091   1.481
55176SOL    HW167367  11.151   5.007   1.513
55176SOL    HW267368  11.039   5.107   1.531
55177SOL     OW67369   8.507  13.169   4.842
55177SOL    HW167370   8.567  13.236   4.872
55177SOL    HW267371   8.440  13.216   4.792
55178SOL     OW67372  12.206   6.156   3.371
55178SOL    HW167373  12.195   6.094   3.443
55178SOL    HW267374  12.170   6.112   3.294
55179SOL     OW67375  13.480   3.097  10.126
55179SOL    HW167376  13.553   3.125  10.070
55179SOL    HW267377  13.508   3.119  10.215
55180SOL     OW67378   5.576   2.207   0.659
55180SOL    HW167379   5.510   2.165   0.714
55180SOL    HW267380   5.654   2.151   0.667
55181SOL     OW67381   1.772   5.080   7.412
55181SOL    HW167382   1.729   5.108   7.493
55181SOL    HW267383   1.774   4.985   7.418
55182SOL     OW67384   4.717   9.113   1.811
55182SOL    HW167385   4.759   9.031   1.785
55182SOL    HW267386   4.783   9.180   1.796
55183SOL     OW67387   8.925  10.073   0.136
55183SOL    HW167388   8.964  10.156   0.160
55183SOL    HW267389   8.999  10.014   0.122
55184SOL     OW67390  11.618   4.463   8.658
55184SOL    HW167391  11.683   4.417   8.605
55184SOL    HW267392  11.595   4.540   8.607
55185SOL     OW67393  12.950   7.391  13.500
55185SOL    HW167394  13.013   7.358  13.435
55185SOL    HW267395  12.894   7.316  13.520
55186SOL     OW67396  13.905   6.713  13.972
55186SOL    HW167397  13.930   6.717  13.879
55186SOL    HW267398  13.967   6.651  14.010
55187SOL     OW67399  13.136   9.153  12.021
55187SOL    HW167400  13.107   9.204  11.946
55187SOL    HW267401  13.086   9.071  12.016
55188SOL     OW67402   1.160   7.324   5.491
55188SOL    HW167403   1.188   7.256   5.431
55188SOL    HW267404   1.074   7.351   5.459
55189SOL     OW67405   4.727  12.780   3.630
55189SOL    HW167406   4.632  12.784   3.622
55189SOL    HW267407   4.752  12.704   3.577
55190SOL     OW67408   1.376  14.431   2.924
55190SOL    HW167409   1.353  14.491   2.853
55190SOL    HW267410   1.377  14.486   3.002
55191SOL     OW67411   3.853  14.823  12.356
55191SOL    HW167412   3.873  14.844  12.448
55191SOL    HW267413   3.769  14.867  12.340
55192SOL     OW67414  11.527   6.259   9.013
55192SOL    HW167415  11.538   6.354   9.018
55192SOL    HW267416  11.519   6.240   8.920
55193SOL     OW67417  12.038   5.734  11.949
55193SOL    HW167418  12.084   5.753  12.031
55193SOL    HW267419  12.021   5.819  11.910
55194SOL     OW67420   2.044   7.562  10.540
55194SOL    HW167421   1.972   7.520  10.494
55194SOL    HW267422   2.093   7.609  10.472
55195SOL     OW67423  11.582   2.547   9.509
55195SOL    HW167424  11.584   2.573   9.601
55195SOL    HW267425  11.655   2.486   9.499
55196SOL     OW67426   9.310  14.312   0.916
55196SOL    HW167427   9.330  14.396   0.957
55196SOL    HW267428   9.324  14.248   0.985
55197SOL     OW67429   7.072   7.292   9.169
55197SOL    HW167430   7.023   7.225   9.122
55197SOL    HW267431   7.102   7.352   9.101
55198SOL     OW67432  13.575  10.671   9.280
55198SOL    HW167433  13.639  10.600   9.275
55198SOL    HW267434  13.538  10.676   9.192
55199SOL     OW67435   7.014  11.004   5.305
55199SOL    HW167436   6.943  10.950   5.341
55199SOL    HW267437   6.999  11.091   5.344
55200SOL     OW67438   7.591   8.451  13.425
55200SOL    HW167439   7.545   8.367  13.419
55200SOL    HW267440   7.535   8.512  13.378
55201SOL     OW67441   3.254  12.673  14.369
55201SOL    HW167442   3.194  12.615  14.416
55201SOL    HW267443   3.202  12.708  14.296
55202SOL     OW67444   3.662   5.665   4.410
55202SOL    HW167445   3.728   5.603   4.439
55202SOL    HW267446   3.588   5.651   4.470
55203SOL     OW67447   7.980   7.057   4.899
55203SOL    HW167448   8.046   7.106   4.949
55203SOL    HW267449   8.031   7.007   4.835
55204SOL     OW67450  11.967   4.722  12.096
55204SOL    HW167451  11.952   4.688  12.184
55204SOL    HW267452  11.962   4.644  12.040
55205SOL     OW67453  14.818   8.184  11.531
55205SOL    HW167454  14.805   8.142  11.446
55205SOL    HW267455   0.008   8.133  11.573
55206SOL     OW67456   6.277   6.791   2.282
55206SOL    HW167457   6.311   6.876   2.252
55206SOL    HW267458   6.188   6.789   2.246
55207SOL     OW67459   3.711   2.439   1.125
55207SOL    HW167460   3.696   2.512   1.184
55207SOL    HW267461   3.802   2.414   1.140
55208SOL     OW67462   0.118  10.696   3.448
55208SOL    HW167463   0.098  10.716   3.357
55208SOL    HW267464   0.115  10.601   3.453
55209SOL     OW67465  10.445   8.739   2.575
55209SOL    HW167466  10.441   8.828   2.610
55209SOL    HW267467  10.534   8.710   2.594
55210SOL     OW67468   3.775  10.580  11.736
55210SOL    HW167469   3.838  10.593  11.807
55210SOL    HW267470   3.728  10.500  11.760
55211SOL     OW67471  14.245  12.282   8.068
55211SOL    HW167472  14.298  12.361   8.060
55211SOL    HW267473  14.253  12.257   8.160
55212SOL     OW67474   2.822   9.174   4.749
55212SOL    HW167475   2.844   9.242   4.813
55212SOL    HW267476   2.846   9.212   4.664
55213SOL     OW67477   0.368  11.505  10.876
55213SOL    HW167478   0.285  11.551  10.862
55213SOL    HW267479   0.360  11.425  10.826
55214SOL     OW67480  14.026   6.793   6.936
55214SOL    HW167481  14.102   6.852   6.937
55214SOL    HW267482  14.029   6.747   7.019
55215SOL     OW67483  14.589   0.472   7.383
55215SOL    HW167484  14.599   0.412   7.309
55215SOL    HW267485  14.678   0.489   7.413
55216SOL     OW67486   9.997   7.510  10.974
55216SOL    HW167487  10.066   7.571  11.000
55216SOL    HW267488  10.037   7.455  10.907
55217SOL     OW67489   4.349  10.446   9.836
55217SOL    HW167490   4.366  10.469   9.927
55217SOL    HW267491   4.269  10.393   9.839
55218SOL     OW67492  10.856  10.370   7.583
55218SOL    HW167493  10.898  10.454   7.564
55218SOL    HW267494  10.891  10.344   7.668
55219SOL     OW67495  11.444   3.371   9.905
55219SOL    HW167496  11.391   3.295   9.879
55219SOL    HW267497  11.493   3.394   9.826
55220SOL     OW67498  12.215  11.202   6.880
55220SOL    HW167499  12.198  11.150   6.802
55220SOL    HW267500  12.136  11.195   6.932
55221SOL     OW67501   5.141   5.903  11.835
55221SOL    HW167502   5.224   5.878  11.795
55221SOL    HW267503   5.077   5.841  11.800
55222SOL     OW67504   1.702  10.484   5.772
55222SOL    HW167505   1.707  10.522   5.859
55222SOL    HW267506   1.737  10.395   5.783
55223SOL     OW67507  10.397  12.555  10.556
55223SOL    HW167508  10.368  12.532  10.467
55223SOL    HW267509  10.457  12.629  10.543
55224SOL     OW67510   2.718   2.960  12.661
55224SOL    HW167511   2.698   2.965  12.567
55224SOL    HW267512   2.747   2.869  12.674
55225SOL     OW67513   6.332  14.810  11.737
55225SOL    HW167514   6.325  14.714  11.744
55225SOL    HW267515   6.265  14.843  11.797
55226SOL     OW67516   6.729   8.194   4.486
55226SOL    HW167517   6.684   8.271   4.521
55226SOL    HW267518   6.685   8.177   4.402
55227SOL     OW67519   4.062   1.428   2.805
55227SOL    HW167520   3.993   1.495   2.809
55227SOL    HW267521   4.016   1.347   2.784
55228SOL     OW67522  11.967  13.891   6.340
55228SOL    HW167523  11.924  13.918   6.260
55228SOL    HW267524  11.903  13.834   6.384
55229SOL     OW67525   7.390   2.985   5.556
55229SOL    HW167526   7.394   3.075   5.589
55229SOL    HW267527   7.299   2.958   5.572
55230SOL     OW67528   6.988  12.202   4.477
55230SOL    HW167529   7.033  12.120   4.456
55230SOL    HW267530   6.904  12.175   4.513
55231SOL     OW67531  11.596  11.310   5.386
55231SOL    HW167532  11.539  11.386   5.393
55231SOL    HW267533  11.671  11.330   5.442
55232SOL     OW67534   8.191   4.508   3.772
55232SOL    HW167535   8.240   4.532   3.693
55232SOL    HW267536   8.218   4.418   3.790
55233SOL     OW67537   5.633   4.669   1.136
55233SOL    HW167538   5.629   4.736   1.067
55233SOL    HW267539   5.557   4.614   1.120
55234SOL     OW67540   9.744   6.823   4.801
55234SOL    HW167541   9.707   6.736   4.811
55234SOL    HW267542   9.823   6.811   4.748
55235SOL     OW67543  10.032   6.798  11.434
55235SOL    HW167544   9.981   6.766  11.508
55235SOL    HW267545   9.967   6.819  11.367
55236SOL     OW67546   6.414   0.175   0.842
55236SOL    HW167547   6.426   0.122   0.763
55236SOL    HW267548   6.400   0.264   0.809
55237SOL     OW67549   0.623   3.297   3.924
55237SOL    HW167550   0.534   3.294   3.957
55237SOL    HW267551   0.618   3.353   3.847
55238SOL     OW67552   9.153   6.554   8.259
55238SOL    HW167553   9.170   6.512   8.344
55238SOL    HW267554   9.104   6.489   8.210
55239SOL     OW67555   8.784   7.602   7.843
55239SOL    HW167556   8.717   7.582   7.778
55239SOL    HW267557   8.845   7.527   7.838
55240SOL     OW67558   8.841  10.470   8.664
55240SOL    HW167559   8.911  10.522   8.626
55240SOL    HW267560   8.762  10.522   8.649
55241SOL     OW67561   6.795   3.269   0.423
55241SOL    HW167562   6.759   3.224   0.500
55241SOL    HW267563   6.719   3.282   0.366
55242SOL     OW67564   3.296   9.806   7.257
55242SOL    HW167565   3.333   9.799   7.169
55242SOL    HW267566   3.201   9.801   7.244
55243SOL     OW67567   9.910  13.616   9.778
55243SOL    HW167568   9.903  13.616   9.874
55243SOL    HW267569   9.938  13.705   9.757
55244SOL     OW67570   2.376   5.150  14.048
55244SOL    HW167571   2.462   5.151  14.007
55244SOL    HW267572   2.381   5.218  14.115
55245SOL     OW67573   4.694   4.185   9.756
55245SOL    HW167574   4.742   4.216   9.679
55245SOL    HW267575   4.760   4.181   9.826
55246SOL     OW67576   1.664  12.477   5.524
55246SOL    HW167577   1.726  12.404   5.527
55246SOL    HW267578   1.639  12.483   5.432
55247SOL     OW67579   2.974   3.200   7.514
55247SOL    HW167580   2.951   3.285   7.551
55247SOL    HW267581   2.998   3.218   7.423
55248SOL     OW67582   1.998   1.949   3.181
55248SOL    HW167583   1.995   1.955   3.276
55248SOL    HW267584   1.906   1.943   3.155
55249SOL     OW67585  10.222   7.437   7.028
55249SOL    HW167586  10.278   7.501   7.072
55249SOL    HW267587  10.233   7.456   6.935
55250SOL     OW67588  10.519   5.820   8.442
55250SOL    HW167589  10.547   5.819   8.351
55250SOL    HW267590  10.533   5.730   8.472
55251SOL     OW67591   7.340  12.492   4.365
55251SOL    HW167592   7.388  12.413   4.391
55251SOL    HW267593   7.394  12.564   4.398
55252SOL     OW67594   3.550   9.770   0.066
55252SOL    HW167595   3.522   9.846   0.016
55252SOL    HW267596   3.493   9.770   0.143
55253SOL     OW67597   5.087   2.832   6.284
55253SOL    HW167598   5.177   2.824   6.250
55253SOL    HW267599   5.062   2.742   6.305
55254SOL     OW67600  13.989  13.683   3.365
55254SOL    HW167601  14.070  13.646   3.328
55254SOL    HW267602  13.968  13.756   3.306
55255SOL     OW67603   0.537  11.398  11.198
55255SOL    HW167604   0.462  11.385  11.256
55255SOL    HW267605   0.546  11.314  11.151
55256SOL     OW67606   6.269  13.317  10.287
55256SOL    HW167607   6.334  13.383  10.263
55256SOL    HW267608   6.224  13.296  10.205
55257SOL     OW67609   3.190  11.071   0.091
55257SOL    HW167610   3.119  11.009   0.073
55257SOL    HW267611   3.208  11.111   0.006
55258SOL     OW67612  13.145  11.440  12.030
55258SOL    HW167613  13.060  11.402  12.008
55258SOL    HW267614  13.142  11.528  11.993
55259SOL     OW67615   0.727   7.492   1.727
55259SOL    HW167616   0.697   7.406   1.697
55259SOL    HW267617   0.778   7.526   1.654
55260SOL     OW67618  12.521   6.959   9.511
55260SOL    HW167619  12.453   6.910   9.557
55260SOL    HW267620  12.503   7.050   9.533
55261SOL     OW67621  14.563   2.611   3.176
55261SOL    HW167622  14.513   2.614   3.258
55261SOL    HW267623  14.544   2.695   3.134
55262SOL     OW67624  13.940  13.261  12.742
55262SOL    HW167625  13.880  13.237  12.812
55262SOL    HW267626  13.977  13.345  12.769
55263SOL     OW67627  10.775   9.413   7.371
55263SOL    HW167628  10.847   9.366   7.329
55263SOL    HW267629  10.749   9.355   7.443
55264SOL     OW67630   1.443   6.274   6.495
55264SOL    HW167631   1.469   6.335   6.565
55264SOL    HW267632   1.466   6.188   6.529
55265SOL     OW67633  10.044   1.185   0.861
55265SOL    HW167634  10.015   1.237   0.787
55265SOL    HW267635  10.054   1.096   0.826
55266SOL     OW67636   6.289   9.344  13.197
55266SOL    HW167637   6.315   9.258  13.166
55266SOL    HW267638   6.332   9.354  13.282
55267SOL     OW67639   5.578  11.206   6.529
55267SOL    HW167640   5.615  11.263   6.597
55267SOL    HW267641   5.517  11.149   6.576
55268SOL     OW67642  11.985   8.987   8.737
55268SOL    HW167643  12.055   9.028   8.788
55268SOL    HW267644  11.995   8.893   8.752
55269SOL     OW67645   2.502   7.968  14.564
55269SOL    HW167646   2.502   7.930  14.476
55269SOL    HW267647   2.498   7.892  14.622
55270SOL     OW67648  11.415  13.573   9.430
55270SOL    HW167649  11.407  13.668   9.437
55270SOL    HW267650  11.443  13.545   9.517
55271SOL     OW67651   8.047  12.485   7.787
55271SOL    HW167652   7.972  12.522   7.740
55271SOL    HW267653   8.038  12.519   7.876
55272SOL     OW67654   2.727  13.168   3.294
55272SOL    HW167655   2.818  13.139   3.284
55272SOL    HW267656   2.676  13.104   3.245
55273SOL     OW67657  12.530  10.065   2.878
55273SOL    HW167658  12.470  10.047   2.805
55273SOL    HW267659  12.586  10.136   2.845
55274SOL     OW67660   7.534  13.038   2.118
55274SOL    HW167661   7.609  12.990   2.082
55274SOL    HW267662   7.467  12.971   2.132
55275SOL     OW67663   4.624   9.763   0.167
55275SOL    HW167664   4.578   9.811   0.235
55275SOL    HW267665   4.689   9.825   0.133
55276SOL     OW67666   5.845   4.858   8.479
55276SOL    HW167667   5.807   4.935   8.435
55276SOL    HW267668   5.797   4.784   8.442
55277SOL     OW67669   3.709   9.997  11.942
55277SOL    HW167670   3.740   9.956  12.023
55277SOL    HW267671   3.748   9.944  11.872
55278SOL     OW67672  14.068  11.827   0.391
55278SOL    HW167673  14.029  11.811   0.306
55278SOL    HW267674  14.042  11.916   0.414
55279SOL     OW67675   0.188  10.244   4.598
55279SOL    HW167676   0.206  10.153   4.573
55279SOL    HW267677   0.105  10.264   4.556
55280SOL     OW67678   6.463   2.617   7.123
55280SOL    HW167679   6.544   2.668   7.116
55280SOL    HW267680   6.493   2.527   7.138
55281SOL     OW67681   6.766   7.050  11.997
55281SOL    HW167682   6.748   6.956  12.001
55281SOL    HW267683   6.861   7.056  11.989
55282SOL     OW67684  12.878  14.412  12.083
55282SOL    HW167685  12.964  14.392  12.118
55282SOL    HW267686  12.819  14.404  12.158
55283SOL     OW67687   1.224   2.863   9.986
55283SOL    HW167688   1.185   2.778   9.966
55283SOL    HW267689   1.222   2.868  10.082
55284SOL     OW67690   4.787  11.581  12.087
55284SOL    HW167691   4.772  11.663  12.039
55284SOL    HW267692   4.882  11.575  12.095
55285SOL     OW67693  12.105   5.414  12.388
55285SOL    HW167694  12.013   5.415  12.413
55285SOL    HW267695  12.140   5.333  12.425
55286SOL     OW67696  12.226   5.243   2.178
55286SOL    HW167697  12.186   5.320   2.137
55286SOL    HW267698  12.320   5.263   2.181
55287SOL     OW67699   5.489   0.687  13.826
55287SOL    HW167700   5.476   0.776  13.859
55287SOL    HW267701   5.560   0.652  13.880
55288SOL     OW67702   4.149   9.500   0.429
55288SOL    HW167703   4.071   9.446   0.412
55288SOL    HW267704   4.128   9.549   0.509
55289SOL     OW67705  12.538  14.206   3.091
55289SOL    HW167706  12.622  14.251   3.100
55289SOL    HW267707  12.475  14.266   3.131
55290SOL     OW67708  11.671  12.603   3.805
55290SOL    HW167709  11.578  12.610   3.824
55290SOL    HW267710  11.692  12.511   3.818
55291SOL     OW67711   9.367  14.234   0.300
55291SOL    HW167712   9.422  14.304   0.336
55291SOL    HW267713   9.279  14.271   0.300
55292SOL     OW67714  10.427   7.176  11.487
55292SOL    HW167715  10.440   7.256  11.537
55292SOL    HW267716  10.353   7.196  11.429
55293SOL     OW67717   2.543   1.812  13.676
55293SOL    HW167718   2.554   1.794  13.769
55293SOL    HW267719   2.502   1.898  13.672
55294SOL     OW67720   4.457   2.727   5.596
55294SOL    HW167721   4.366   2.695   5.591
55294SOL    HW267722   4.449   2.822   5.588
55295SOL     OW67723  14.477   0.366  11.561
55295SOL    HW167724  14.404   0.317  11.599
55295SOL    HW267725  14.497   0.433  11.626
55296SOL     OW67726   6.672  11.721   1.877
55296SOL    HW167727   6.615  11.698   1.951
55296SOL    HW267728   6.674  11.643   1.823
55297SOL     OW67729   2.820   5.873   0.285
55297SOL    HW167730   2.894   5.934   0.287
55297SOL    HW267731   2.750   5.922   0.243
55298SOL     OW67732   9.108   7.683   9.604
55298SOL    HW167733   9.102   7.598   9.648
55298SOL    HW267734   9.186   7.724   9.641
55299SOL     OW67735  14.094   9.854   0.630
55299SOL    HW167736  14.045   9.925   0.673
55299SOL    HW267737  14.041   9.830   0.554
55300SOL     OW67738   2.349  11.318   8.114
55300SOL    HW167739   2.405  11.296   8.039
55300SOL    HW267740   2.350  11.414   8.116
55301SOL     OW67741  11.929   8.797   3.252
55301SOL    HW167742  11.939   8.743   3.329
55301SOL    HW267743  11.867   8.750   3.196
55302SOL     OW67744   8.183   9.260   3.899
55302SOL    HW167745   8.156   9.176   3.862
55302SOL    HW267746   8.189   9.244   3.993
55303SOL     OW67747   6.155   6.226   0.523
55303SOL    HW167748   6.206   6.147   0.503
55303SOL    HW267749   6.065   6.194   0.535
55304SOL     OW67750  14.576   3.481   0.015
55304SOL    HW167751  14.600   3.394   0.047
55304SOL    HW267752  14.482   3.489   0.033
55305SOL     OW67753   1.023   3.420   1.553
55305SOL    HW167754   0.990   3.385   1.470
55305SOL    HW267755   0.970   3.498   1.569
55306SOL     OW67756   8.855   7.104   2.189
55306SOL    HW167757   8.845   7.189   2.233
55306SOL    HW267758   8.883   7.044   2.258
55307SOL     OW67759   9.487   2.183   5.380
55307SOL    HW167760   9.433   2.225   5.312
55307SOL    HW267761   9.470   2.234   5.459
55308SOL     OW67762   9.562   8.271   3.368
55308SOL    HW167763   9.480   8.295   3.412
55308SOL    HW267764   9.570   8.177   3.382
55309SOL     OW67765  13.720   4.810  13.371
55309SOL    HW167766  13.670   4.736  13.406
55309SOL    HW267767  13.768   4.844  13.447
55310SOL     OW67768   2.889   5.389   2.249
55310SOL    HW167769   2.869   5.299   2.277
55310SOL    HW267770   2.973   5.409   2.292
55311SOL     OW67771  13.120   2.121  10.168
55311SOL    HW167772  13.039   2.104  10.120
55311SOL    HW267773  13.186   2.071  10.120
55312SOL     OW67774   0.398   5.161  10.572
55312SOL    HW167775   0.340   5.167  10.649
55312SOL    HW267776   0.356   5.095  10.517
55313SOL     OW67777   1.077  14.045   3.569
55313SOL    HW167778   0.993  13.999   3.573
55313SOL    HW267779   1.056  14.132   3.534
55314SOL     OW67780   4.966  12.112   3.291
55314SOL    HW167781   4.907  12.042   3.263
55314SOL    HW267782   4.924  12.192   3.259
55315SOL     OW67783   6.643  12.139   1.464
55315SOL    HW167784   6.594  12.139   1.546
55315SOL    HW267785   6.708  12.209   1.474
55316SOL     OW67786  13.146   2.854  14.066
55316SOL    HW167787  13.136   2.922  13.999
55316SOL    HW267788  13.239   2.833  14.065
55317SOL     OW67789   5.933  11.952   4.538
55317SOL    HW167790   5.915  12.032   4.588
55317SOL    HW267791   5.921  11.881   4.601
55318SOL     OW67792  12.435   0.019   4.764
55318SOL    HW167793  12.388  14.862   4.839
55318SOL    HW267794  12.526   0.025   4.793
55319SOL     OW67795   2.415  13.095   5.766
55319SOL    HW167796   2.379  13.015   5.729
55319SOL    HW267797   2.509  13.090   5.749
55320SOL     OW67798  12.537   1.376   9.409
55320SOL    HW167799  12.525   1.387   9.315
55320SOL    HW267800  12.619   1.422   9.429
55321SOL     OW67801   0.945   1.116   5.898
55321SOL    HW167802   1.021   1.067   5.931
55321SOL    HW267803   0.983   1.188   5.848
55322SOL     OW67804  10.407  10.090   1.858
55322SOL    HW167805  10.346  10.073   1.786
55322SOL    HW267806  10.492  10.058   1.826
55323SOL     OW67807  14.224   8.533   2.666
55323SOL    HW167808  14.169   8.564   2.738
55323SOL    HW267809  14.304   8.586   2.671
55324SOL     OW67810   4.471   8.611  14.537
55324SOL    HW167811   4.475   8.686  14.597
55324SOL    HW267812   4.387   8.621  14.492
55325SOL     OW67813  10.911   5.123   1.647
55325SOL    HW167814  10.856   5.184   1.598
55325SOL    HW267815  10.864   5.108   1.729
55326SOL     OW67816   8.218  13.731   5.578
55326SOL    HW167817   8.190  13.696   5.663
55326SOL    HW267818   8.139  13.770   5.541
55327SOL     OW67819   4.095  12.100   2.244
55327SOL    HW167820   4.019  12.066   2.292
55327SOL    HW267821   4.081  12.071   2.154
55328SOL     OW67822   8.567   6.544   8.472
55328SOL    HW167823   8.505   6.481   8.510
55328SOL    HW267824   8.543   6.547   8.379
55329SOL     OW67825  13.054   2.192  11.778
55329SOL    HW167826  13.080   2.101  11.792
55329SOL    HW267827  13.096   2.217  11.696
55330SOL     OW67828   0.874   1.909   0.980
55330SOL    HW167829   0.903   1.818   0.968
55330SOL    HW267830   0.950   1.954   1.015
55331SOL     OW67831  10.303   8.844   4.646
55331SOL    HW167832  10.297   8.892   4.728
55331SOL    HW267833  10.356   8.899   4.589
55332SOL     OW67834   6.765   1.037   3.327
55332SOL    HW167835   6.780   1.125   3.292
55332SOL    HW267836   6.852   0.996   3.330
55333SOL     OW67837   9.069  13.076   1.597
55333SOL    HW167838   9.162  13.099   1.600
55333SOL    HW267839   9.067  12.981   1.599
55334SOL     OW67840  14.809  12.039   2.300
55334SOL    HW167841   0.022  12.021   2.319
55334SOL    HW267842  14.773  11.956   2.272
55335SOL     OW67843  11.184  10.440  11.054
55335SOL    HW167844  11.167  10.532  11.073
55335SOL    HW267845  11.138  10.392  11.123
55336SOL     OW67846  10.255   1.639  14.831
55336SOL    HW167847  10.251   1.705  14.762
55336SOL    HW267848  10.309   1.679   0.020
55337SOL     OW67849  11.163   4.675   0.475
55337SOL    HW167850  11.144   4.731   0.400
55337SOL    HW267851  11.246   4.632   0.453
55338SOL     OW67852   0.298  10.014   4.516
55338SOL    HW167853   0.301   9.989   4.424
55338SOL    HW267854   0.378  10.064   4.531
55339SOL     OW67855  12.086   0.195  14.182
55339SOL    HW167856  12.037   0.169  14.260
55339SOL    HW267857  12.176   0.168  14.199
55340SOL     OW67858  13.239  12.293   9.473
55340SOL    HW167859  13.234  12.228   9.402
55340SOL    HW267860  13.153  12.290   9.514
55341SOL     OW67861   9.584   3.243  13.377
55341SOL    HW167862   9.540   3.327  13.361
55341SOL    HW267863   9.533   3.202  13.447
55342SOL     OW67864  11.272   0.686   3.022
55342SOL    HW167865  11.232   0.608   3.061
55342SOL    HW267866  11.227   0.759   3.065
55343SOL     OW67867  13.631   2.384   8.386
55343SOL    HW167868  13.554   2.328   8.387
55343SOL    HW267869  13.597   2.473   8.398
55344SOL     OW67870  14.679   6.224   3.173
55344SOL    HW167871  14.641   6.309   3.196
55344SOL    HW267872  14.773   6.242   3.165
55345SOL     OW67873  13.617   7.273   8.180
55345SOL    HW167874  13.585   7.347   8.232
55345SOL    HW267875  13.693   7.309   8.133
55346SOL     OW67876  14.694   9.142   2.949
55346SOL    HW167877  14.735   9.215   2.903
55346SOL    HW267878  14.601   9.147   2.925
55347SOL     OW67879   0.879   5.205   4.362
55347SOL    HW167880   0.787   5.181   4.371
55347SOL    HW267881   0.924   5.153   4.429
55348SOL     OW67882   4.829   9.098   0.462
55348SOL    HW167883   4.866   9.021   0.505
55348SOL    HW267884   4.744   9.069   0.430
55349SOL     OW67885  13.475  12.182  14.466
55349SOL    HW167886  13.407  12.177  14.399
55349SOL    HW267887  13.428  12.203  14.547
55350SOL     OW67888   9.446   8.655   7.713
55350SOL    HW167889   9.371   8.715   7.707
55350SOL    HW267890   9.452   8.634   7.806
55351SOL     OW67891   2.373   2.923   9.867
55351SOL    HW167892   2.344   2.841   9.827
55351SOL    HW267893   2.438   2.896   9.932
55352SOL     OW67894   5.390   1.969   3.613
55352SOL    HW167895   5.330   1.895   3.617
55352SOL    HW267896   5.342   2.036   3.564
55353SOL     OW67897   5.642   6.584  13.676
55353SOL    HW167898   5.728   6.551  13.704
55353SOL    HW267899   5.602   6.511  13.630
55354SOL     OW67900  14.314   0.425   0.714
55354SOL    HW167901  14.387   0.407   0.655
55354SOL    HW267902  14.243   0.369   0.681
55355SOL     OW67903   1.982   8.185   3.636
55355SOL    HW167904   1.987   8.229   3.551
55355SOL    HW267905   2.023   8.246   3.697
55356SOL     OW67906   0.896   8.991   0.230
55356SOL    HW167907   0.944   9.021   0.153
55356SOL    HW267908   0.893   8.896   0.221
55357SOL     OW67909   5.015   5.193  13.862
55357SOL    HW167910   5.052   5.281  13.866
55357SOL    HW267911   4.931   5.200  13.909
55358SOL     OW67912   1.058  14.042  14.107
55358SOL    HW167913   0.976  14.081  14.137
55358SOL    HW267914   1.038  14.010  14.019
55359SOL     OW67915  13.486  10.848  11.104
55359SOL    HW167916  13.412  10.791  11.079
55359SOL    HW267917  13.444  10.928  11.135
55360SOL     OW67918   3.724  12.813   1.553
55360SOL    HW167919   3.689  12.888   1.601
55360SOL    HW267920   3.721  12.740   1.615
55361SOL     OW67921   2.468   3.683   7.965
55361SOL    HW167922   2.391   3.733   7.990
55361SOL    HW267923   2.436   3.593   7.954
55362SOL     OW67924   6.054   2.991  13.975
55362SOL    HW167925   6.107   3.062  14.011
55362SOL    HW267926   6.116   2.936  13.927
55363SOL     OW67927   9.944   7.966   9.174
55363SOL    HW167928  10.007   7.980   9.104
55363SOL    HW267929   9.892   8.046   9.177
55364SOL     OW67930  12.804   4.375  13.278
55364SOL    HW167931  12.844   4.420  13.353
55364SOL    HW267932  12.710   4.376  13.297
55365SOL     OW67933   1.662   7.098   5.300
55365SOL    HW167934   1.578   7.052   5.297
55365SOL    HW267935   1.711   7.063   5.226
55366SOL     OW67936   8.724   2.217   7.319
55366SOL    HW167937   8.764   2.155   7.380
55366SOL    HW267938   8.678   2.280   7.374
55367SOL     OW67939   4.311   0.238  13.597
55367SOL    HW167940   4.355   0.292  13.532
55367SOL    HW267941   4.258   0.300  13.648
55368SOL     OW67942   0.711   2.140  14.259
55368SOL    HW167943   0.687   2.230  14.238
55368SOL    HW267944   0.683   2.090  14.182
55369SOL     OW67945  14.339  13.967  12.404
55369SOL    HW167946  14.376  13.991  12.489
55369SOL    HW267947  14.288  13.887  12.421
55370SOL     OW67948  13.417   9.047   5.104
55370SOL    HW167949  13.412   8.952   5.100
55370SOL    HW267950  13.424   9.067   5.197
55371SOL     OW67951   3.404  13.568  12.301
55371SOL    HW167952   3.422  13.499  12.236
55371SOL    HW267953   3.490  13.596  12.331
55372SOL     OW67954   5.686   2.654   9.328
55372SOL    HW167955   5.604   2.605   9.335
55372SOL    HW267956   5.754   2.589   9.341
55373SOL     OW67957   9.406  10.759   8.029
55373SOL    HW167958   9.433  10.828   7.968
55373SOL    HW267959   9.393  10.682   7.974
55374SOL     OW67960  11.255   8.728   1.976
55374SOL    HW167961  11.322   8.745   1.909
55374SOL    HW267962  11.217   8.813   1.994
55375SOL     OW67963   1.106   2.246   5.290
55375SOL    HW167964   1.093   2.335   5.324
55375SOL    HW267965   1.187   2.251   5.240
55376SOL     OW67966   8.730  14.477   4.060
55376SOL    HW167967   8.789  14.403   4.045
55376SOL    HW267968   8.650  14.437   4.096
55377SOL     OW67969   9.049  14.807  13.383
55377SOL    HW167970   8.987  14.872  13.351
55377SOL    HW267971   9.124  14.858  13.412
55378SOL     OW67972   7.787  14.335  13.636
55378SOL    HW167973   7.836  14.254  13.653
55378SOL    HW267974   7.710  14.329  13.691
55379SOL     OW67975   7.073  11.187   3.791
55379SOL    HW167976   7.044  11.278   3.791
55379SOL    HW267977   7.027  11.147   3.718
55380SOL     OW67978   5.855   4.902   1.703
55380SOL    HW167979   5.872   4.845   1.778
55380SOL    HW267980   5.929   4.888   1.645
55381SOL     OW67981   4.863   8.356   4.575
55381SOL    HW167982   4.823   8.305   4.646
55381SOL    HW267983   4.808   8.339   4.499
55382SOL     OW67984  13.722   8.047  14.259
55382SOL    HW167985  13.787   8.087  14.318
55382SOL    HW267986  13.767   8.042  14.175
55383SOL     OW67987  14.879   1.663   9.635
55383SOL    HW167988  14.822   1.702   9.569
55383SOL    HW267989   0.001   1.569   9.614
55384SOL     OW67990   9.205  14.406  13.122
55384SOL    HW167991   9.284  14.364  13.155
55384SOL    HW267992   9.172  14.458  13.196
55385SOL     OW67993   6.528   6.921   3.808
55385SOL    HW167994   6.509   6.827   3.809
55385SOL    HW267995   6.596   6.932   3.874
55386SOL     OW67996  10.027   6.683   7.470
55386SOL    HW167997  10.024   6.621   7.543
55386SOL    HW267998  10.071   6.759   7.505
55387SOL     OW67999  12.677   8.626   1.305
55387SOL    HW168000  12.691   8.549   1.360
55387SOL    HW268001  12.745   8.688   1.334
55388SOL     OW68002   3.458  13.111   4.253
55388SOL    HW168003   3.431  13.020   4.250
55388SOL    HW268004   3.500  13.126   4.168
55389SOL     OW68005   6.489   5.649  11.917
55389SOL    HW168006   6.420   5.657  11.851
55389SOL    HW268007   6.569   5.635  11.866
55390SOL     OW68008   2.221  12.730  11.144
55390SOL    HW168009   2.312  12.700  11.154
55390SOL    HW268010   2.202  12.776  11.226
55391SOL     OW68011  11.648  14.459   5.747
55391SOL    HW168012  11.716  14.394   5.729
55391SOL    HW268013  11.664  14.485   5.838
55392SOL     OW68014   5.356  11.347   8.813
55392SOL    HW168015   5.381  11.423   8.865
55392SOL    HW268016   5.439  11.305   8.792
55393SOL     OW68017   2.956   8.909   6.851
55393SOL    HW168018   2.913   8.994   6.864
55393SOL    HW268019   2.944   8.863   6.934
55394SOL     OW68020   6.545   1.211   1.067
55394SOL    HW168021   6.463   1.169   1.095
55394SOL    HW268022   6.541   1.299   1.105
55395SOL     OW68023  12.270   9.908  10.434
55395SOL    HW168024  12.337   9.898  10.366
55395SOL    HW268025  12.254  10.002  10.437
55396SOL     OW68026   4.567   2.808   8.967
55396SOL    HW168027   4.645   2.855   8.995
55396SOL    HW268028   4.589   2.716   8.981
55397SOL     OW68029   1.247   6.989   3.917
55397SOL    HW168030   1.172   6.991   3.857
55397SOL    HW268031   1.208   6.972   4.003
55398SOL     OW68032  12.174   8.552   3.432
55398SOL    HW168033  12.168   8.462   3.463
55398SOL    HW268034  12.153   8.547   3.339
55399SOL     OW68035  10.652   3.893   7.001
55399SOL    HW168036  10.703   3.904   6.921
55399SOL    HW268037  10.633   3.982   7.030
55400SOL     OW68038   1.584   1.280   0.094
55400SOL    HW168039   1.548   1.368   0.107
55400SOL    HW268040   1.521   1.237   0.037
55401SOL     OW68041   1.212   3.262  12.783
55401SOL    HW168042   1.192   3.168  12.790
55401SOL    HW268043   1.233   3.275  12.691
55402SOL     OW68044  12.456   8.641  14.679
55402SOL    HW168045  12.375   8.656  14.629
55402SOL    HW268046  12.431   8.577  14.746
55403SOL     OW68047   2.111  14.282   0.674
55403SOL    HW168048   2.182  14.314   0.618
55403SOL    HW268049   2.151  14.275   0.761
55404SOL     OW68050   4.120   4.220   4.148
55404SOL    HW168051   4.071   4.277   4.207
55404SOL    HW268052   4.063   4.210   4.072
55405SOL     OW68053   5.704  12.847   9.605
55405SOL    HW168054   5.725  12.817   9.694
55405SOL    HW268055   5.787  12.876   9.569
55406SOL     OW68056   1.776  10.982   4.513
55406SOL    HW168057   1.766  10.989   4.608
55406SOL    HW268058   1.818  11.064   4.487
55407SOL     OW68059  14.182   6.061   8.500
55407SOL    HW168060  14.216   6.151   8.508
55407SOL    HW268061  14.088   6.072   8.487
55408SOL     OW68062   9.133  10.063   3.109
55408SOL    HW168063   9.068  10.091   3.045
55408SOL    HW268064   9.100  10.096   3.193
55409SOL     OW68065  10.416   0.843   2.953
55409SOL    HW168066  10.509   0.858   2.970
55409SOL    HW268067  10.405   0.748   2.959
55410SOL     OW68068   9.660  14.291   8.541
55410SOL    HW168069   9.606  14.236   8.598
55410SOL    HW268070   9.715  14.341   8.600
55411SOL     OW68071   4.732  14.014   1.542
55411SOL    HW168072   4.649  14.004   1.589
55411SOL    HW268073   4.789  14.060   1.604
55412SOL     OW68074   9.363  14.550   5.894
55412SOL    HW168075   9.419  14.478   5.924
55412SOL    HW268076   9.424  14.618   5.868
55413SOL     OW68077  10.148   6.063   1.737
55413SOL    HW168078  10.135   5.970   1.755
55413SOL    HW268079  10.201   6.095   1.811
55414SOL     OW68080   3.273   2.870   1.157
55414SOL    HW168081   3.254   2.776   1.148
55414SOL    HW268082   3.350   2.874   1.214
55415SOL     OW68083  11.731  11.204   5.934
55415SOL    HW168084  11.783  11.195   5.853
55415SOL    HW268085  11.660  11.140   5.923
55416SOL     OW68086   8.584   7.510  10.319
55416SOL    HW168087   8.512   7.572  10.332
55416SOL    HW268088   8.554   7.429  10.359
55417SOL     OW68089   1.888   7.815  12.396
55417SOL    HW168090   1.870   7.878  12.326
55417SOL    HW268091   1.905   7.870  12.473
55418SOL     OW68092   9.413   4.555   2.295
55418SOL    HW168093   9.491   4.520   2.252
55418SOL    HW268094   9.378   4.619   2.232
55419SOL     OW68095   2.447   9.998  11.307
55419SOL    HW168096   2.488   9.931  11.252
55419SOL    HW268097   2.501  10.000  11.387
55420SOL     OW68098   6.372  10.531  11.311
55420SOL    HW168099   6.378  10.593  11.384
55420SOL    HW268100   6.315  10.461  11.344
55421SOL     OW68101   9.521  12.917   2.543
55421SOL    HW168102   9.586  12.973   2.584
55421SOL    HW268103   9.571  12.862   2.482
55422SOL     OW68104  12.233  14.694   1.214
55422SOL    HW168105  12.217  14.788   1.217
55422SOL    HW268106  12.303  14.680   1.279
55423SOL     OW68107   6.984  13.429  11.230
55423SOL    HW168108   6.909  13.421  11.171
55423SOL    HW268109   6.972  13.358  11.294
55424SOL     OW68110   0.809  14.562   6.087
55424SOL    HW168111   0.723  14.595   6.113
55424SOL    HW268112   0.869  14.634   6.107
55425SOL     OW68113   3.709  14.742  10.286
55425SOL    HW168114   3.788  14.718  10.335
55425SOL    HW268115   3.740  14.756  10.197
55426SOL     OW68116   4.896   1.304   0.015
55426SOL    HW168117   4.958   1.366   0.054
55426SOL    HW268118   4.834   1.359  14.847
55427SOL     OW68119  11.835   9.719   5.218
55427SOL    HW168120  11.795   9.637   5.248
55427SOL    HW268121  11.769   9.759   5.162
55428SOL     OW68122   7.055  11.271   4.391
55428SOL    HW168123   7.007  11.338   4.343
55428SOL    HW268124   7.027  11.189   4.351
55429SOL     OW68125   7.542   2.393   6.601
55429SOL    HW168126   7.549   2.346   6.518
55429SOL    HW268127   7.604   2.348   6.659
55430SOL     OW68128   3.132   0.786   5.155
55430SOL    HW168129   3.080   0.795   5.074
55430SOL    HW268130   3.105   0.701   5.191
55431SOL     OW68131   1.341   5.537  11.008
55431SOL    HW168132   1.269   5.572  10.956
55431SOL    HW268133   1.414   5.529  10.946
55432SOL     OW68134   5.244   4.196   3.974
55432SOL    HW168135   5.259   4.123   3.913
55432SOL    HW268136   5.173   4.245   3.935
55433SOL     OW68137  12.297   1.724   5.252
55433SOL    HW168138  12.342   1.778   5.316
55433SOL    HW268139  12.273   1.645   5.300
55434SOL     OW68140   5.879  12.981   9.304
55434SOL    HW168141   5.885  13.076   9.300
55434SOL    HW268142   5.819  12.957   9.234
55435SOL     OW68143  13.394  14.240  13.144
55435SOL    HW168144  13.373  14.190  13.223
55435SOL    HW268145  13.482  14.273  13.159
55436SOL     OW68146   4.505   1.343   8.219
55436SOL    HW168147   4.432   1.378   8.270
55436SOL    HW268148   4.582   1.389   8.253
55437SOL     OW68149   3.768   1.369   3.783
55437SOL    HW168150   3.713   1.394   3.858
55437SOL    HW268151   3.710   1.318   3.727
55438SOL     OW68152   7.234  10.069   9.886
55438SOL    HW168153   7.327  10.088   9.894
55438SOL    HW268154   7.221   9.989   9.937
55439SOL     OW68155   9.906   2.141   7.912
55439SOL    HW168156   9.886   2.127   8.005
55439SOL    HW268157   9.826   2.182   7.877
55440SOL     OW68158   1.265   9.866  14.508
55440SOL    HW168159   1.302   9.872  14.596
55440SOL    HW268160   1.171   9.854  14.521
55441SOL     OW68161   7.982   7.904   1.475
55441SOL    HW168162   7.945   7.882   1.390
55441SOL    HW268163   8.076   7.890   1.465
55442SOL     OW68164   0.583  10.141   0.900
55442SOL    HW168165   0.588  10.226   0.857
55442SOL    HW268166   0.533  10.086   0.839
55443SOL     OW68167   5.425   6.470   4.609
55443SOL    HW168168   5.386   6.464   4.522
55443SOL    HW268169   5.409   6.385   4.649
55444SOL     OW68170   4.166   1.390  11.073
55444SOL    HW168171   4.251   1.435  11.076
55444SOL    HW268172   4.182   1.313  11.019
55445SOL     OW68173   7.982   2.642   7.518
55445SOL    HW168174   7.897   2.682   7.533
55445SOL    HW268175   8.004   2.600   7.601
55446SOL     OW68176  11.855   4.388   3.769
55446SOL    HW168177  11.779   4.434   3.733
55446SOL    HW268178  11.927   4.450   3.762
55447SOL     OW68179   0.900  11.683  10.363
55447SOL    HW168180   0.994  11.698  10.375
55447SOL    HW268181   0.883  11.601  10.409
55448SOL     OW68182   3.031   2.844   1.672
55448SOL    HW168183   2.946   2.853   1.629
55448SOL    HW268184   3.089   2.814   1.602
55449SOL     OW68185   4.426   1.904   9.077
55449SOL    HW168186   4.432   1.808   9.077
55449SOL    HW268187   4.502   1.933   9.027
55450SOL     OW68188  12.395   2.110   1.361
55450SOL    HW168189  12.436   2.126   1.277
55450SOL    HW268190  12.331   2.041   1.344
55451SOL     OW68191   4.128  14.151  12.364
55451SOL    HW168192   4.071  14.214  12.319
55451SOL    HW268193   4.097  14.152  12.455
55452SOL     OW68194  14.732  11.093   7.268
55452SOL    HW168195  14.777  11.177   7.279
55452SOL    HW268196  14.733  11.055   7.356
55453SOL     OW68197   3.024  13.177   8.296
55453SOL    HW168198   3.021  13.270   8.321
55453SOL    HW268199   2.949  13.167   8.236
55454SOL     OW68200  14.367   0.184  12.358
55454SOL    HW168201  14.311   0.169  12.434
55454SOL    HW268202  14.456   0.164  12.388
55455SOL     OW68203   2.109   1.516  10.095
55455SOL    HW168204   2.165   1.562  10.157
55455SOL    HW268205   2.147   1.535  10.009
55456SOL     OW68206   3.654   4.858   8.848
55456SOL    HW168207   3.661   4.951   8.829
55456SOL    HW268208   3.720   4.841   8.915
55457SOL     OW68209  11.651  13.927  12.969
55457SOL    HW168210  11.604  13.962  12.893
55457SOL    HW268211  11.582  13.902  13.031
55458SOL     OW68212   8.714  12.387  14.585
55458SOL    HW168213   8.771  12.332  14.531
55458SOL    HW268214   8.630  12.341  14.586
55459SOL     OW68215  13.034   2.772   8.500
55459SOL    HW168216  12.977   2.749   8.426
55459SOL    HW268217  13.114   2.805   8.459
55460SOL     OW68218   0.136  13.705   1.073
55460SOL    HW168219   0.151  13.720   0.980
55460SOL    HW268220   0.223  13.702   1.111
55461SOL     OW68221   9.599   3.514   9.786
55461SOL    HW168222   9.637   3.521   9.698
55461SOL    HW268223   9.543   3.591   9.794
55462SOL     OW68224   7.788   8.801   7.243
55462SOL    HW168225   7.792   8.743   7.320
55462SOL    HW268226   7.872   8.786   7.198
55463SOL     OW68227  12.828   8.076   5.079
55463SOL    HW168228  12.780   8.064   5.161
55463SOL    HW268229  12.857   7.988   5.055
55464SOL     OW68230   1.788  13.891   2.113
55464SOL    HW168231   1.705  13.937   2.101
55464SOL    HW268232   1.847  13.957   2.149
55465SOL     OW68233   9.584   1.796  13.939
55465SOL    HW168234   9.621   1.877  13.905
55465SOL    HW268235   9.491   1.814  13.949
55466SOL     OW68236  11.041  14.123   8.946
55466SOL    HW168237  11.026  14.109   8.852
55466SOL    HW268238  10.962  14.092   8.988
55467SOL     OW68239  10.224  10.628   9.876
55467SOL    HW168240  10.231  10.714   9.919
55467SOL    HW268241  10.162  10.641   9.805
55468SOL     OW68242   3.866   8.119  12.465
55468SOL    HW168243   3.797   8.179  12.436
55468SOL    HW268244   3.881   8.062  12.389
55469SOL     OW68245   4.778   3.496   9.382
55469SOL    HW168246   4.752   3.586   9.365
55469SOL    HW268247   4.698   3.453   9.414
55470SOL     OW68248  12.358   7.203   4.680
55470SOL    HW168249  12.426   7.267   4.662
55470SOL    HW268250  12.358   7.146   4.603
55471SOL     OW68251  14.710   3.907   9.187
55471SOL    HW168252  14.664   3.991   9.191
55471SOL    HW268253  14.647   3.844   9.222
55472SOL     OW68254   9.336   2.518   1.982
55472SOL    HW168255   9.309   2.605   1.952
55472SOL    HW268256   9.297   2.458   1.918
55473SOL     OW68257   1.854   0.830  10.765
55473SOL    HW168258   1.905   0.753  10.741
55473SOL    HW268259   1.880   0.898  10.704
55474SOL     OW68260   1.479  12.768   2.897
55474SOL    HW168261   1.531  12.759   2.818
55474SOL    HW268262   1.418  12.694   2.895
55475SOL     OW68263   1.013   6.764  12.553
55475SOL    HW168264   1.045   6.707  12.483
55475SOL    HW268265   0.973   6.839  12.508
55476SOL     OW68266  12.579   5.092   5.032
55476SOL    HW168267  12.629   5.058   4.957
55476SOL    HW268268  12.633   5.071   5.108
55477SOL     OW68269  10.667   3.754   7.848
55477SOL    HW168270  10.714   3.806   7.783
55477SOL    HW268271  10.674   3.804   7.929
55478SOL     OW68272   4.566  10.598   9.304
55478SOL    HW168273   4.646  10.649   9.314
55478SOL    HW268274   4.520  10.609   9.387
55479SOL     OW68275   4.997   8.408   8.691
55479SOL    HW168276   5.007   8.392   8.597
55479SOL    HW268277   4.992   8.321   8.730
55480SOL     OW68278   5.335   9.160   5.140
55480SOL    HW168279   5.303   9.249   5.128
55480SOL    HW268280   5.314   9.139   5.231
55481SOL     OW68281   5.199   1.568   9.763
55481SOL    HW168282   5.281   1.609   9.791
55481SOL    HW268283   5.220   1.476   9.754
55482SOL     OW68284   2.597  13.043   7.121
55482SOL    HW168285   2.658  12.988   7.171
55482SOL    HW268286   2.519  13.050   7.177
55483SOL     OW68287   0.711  10.007  13.773
55483SOL    HW168288   0.790   9.964  13.741
55483SOL    HW268289   0.695  10.077  13.710
55484SOL     OW68290   8.506   6.340   5.137
55484SOL    HW168291   8.411   6.329   5.133
55484SOL    HW268292   8.538   6.258   5.174
55485SOL     OW68293  14.280   7.527  12.019
55485SOL    HW168294  14.312   7.523  12.109
55485SOL    HW268295  14.256   7.437  11.997
55486SOL     OW68296   2.943   8.268  13.651
55486SOL    HW168297   2.954   8.190  13.706
55486SOL    HW268298   3.030   8.308  13.651
55487SOL     OW68299   3.707  10.984   6.614
55487SOL    HW168300   3.646  10.947   6.678
55487SOL    HW268301   3.736  10.908   6.563
55488SOL     OW68302  13.247  10.352  11.614
55488SOL    HW168303  13.294  10.374  11.694
55488SOL    HW268304  13.155  10.365  11.636
55489SOL     OW68305   9.913   0.180   5.315
55489SOL    HW168306   9.934   0.271   5.296
55489SOL    HW268307   9.914   0.175   5.411
55490SOL     OW68308   9.503   8.556   5.491
55490SOL    HW168309   9.435   8.570   5.426
55490SOL    HW268310   9.559   8.487   5.454
55491SOL     OW68311   9.116  11.472  11.654
55491SOL    HW168312   9.110  11.475  11.750
55491SOL    HW268313   9.180  11.403  11.636
55492SOL     OW68314   3.690   1.084  13.790
55492SOL    HW168315   3.741   1.129  13.858
55492SOL    HW268316   3.701   0.991  13.809
55493SOL     OW68317   7.886   6.191   8.801
55493SOL    HW168318   7.852   6.266   8.849
55493SOL    HW268319   7.979   6.189   8.822
55494SOL     OW68320  14.818   6.277  12.495
55494SOL    HW168321   0.022   6.317  12.473
55494SOL    HW268322  14.805   6.295  12.588
55495SOL     OW68323  11.418   3.155   0.486
55495SOL    HW168324  11.377   3.105   0.416
55495SOL    HW268325  11.351   3.160   0.554
55496SOL     OW68326   7.707   8.497  13.138
55496SOL    HW168327   7.714   8.405  13.162
55496SOL    HW268328   7.743   8.502  13.050
55497SOL     OW68329   8.118  14.192  14.162
55497SOL    HW168330   8.069  14.123  14.208
55497SOL    HW268331   8.074  14.199  14.077
55498SOL     OW68332  12.634  14.707   3.002
55498SOL    HW168333  12.610  14.760   2.926
55498SOL    HW268334  12.697  14.761   3.050
55499SOL     OW68335  10.939   4.763   5.480
55499SOL    HW168336  10.944   4.743   5.574
55499SOL    HW268337  10.984   4.847   5.471
55500SOL     OW68338   5.321  14.406   9.131
55500SOL    HW168339   5.333  14.311   9.131
55500SOL    HW268340   5.404  14.441   9.098
55501SOL     OW68341   8.996   3.038  11.947
55501SOL    HW168342   8.936   3.058  11.875
55501SOL    HW268343   8.995   2.942  11.954
55502SOL     OW68344   6.405  14.222   4.690
55502SOL    HW168345   6.474  14.255   4.747
55502SOL    HW268346   6.324  14.252   4.730
55503SOL     OW68347  10.729  11.089   0.953
55503SOL    HW168348  10.779  11.014   0.983
55503SOL    HW268349  10.643  11.079   0.995
55504SOL     OW68350   2.135   4.459  13.089
55504SOL    HW168351   2.207   4.498  13.040
55504SOL    HW268352   2.082   4.414  13.024
55505SOL     OW68353  13.207   5.859  10.639
55505SOL    HW168354  13.300   5.873  10.658
55505SOL    HW268355  13.190   5.910  10.561
55506SOL     OW68356   7.222   5.425  12.065
55506SOL    HW168357   7.317   5.420  12.068
55506SOL    HW268358   7.194   5.416  12.156
55507SOL     OW68359  10.273  11.982   7.383
55507SOL    HW168360  10.273  12.073   7.353
55507SOL    HW268361  10.276  11.988   7.478
55508SOL     OW68362   2.467   9.126   8.004
55508SOL    HW168363   2.446   9.219   7.996
55508SOL    HW268364   2.443   9.088   7.919
55509SOL     OW68365  11.029   1.791  10.507
55509SOL    HW168366  11.079   1.717  10.540
55509SOL    HW268367  10.948   1.791  10.558
55510SOL     OW68368   2.605   1.082   6.294
55510SOL    HW168369   2.529   1.036   6.331
55510SOL    HW268370   2.664   1.011   6.266
55511SOL     OW68371   8.566   8.341   7.294
55511SOL    HW168372   8.560   8.432   7.267
55511SOL    HW268373   8.515   8.336   7.375
55512SOL     OW68374   0.580   2.917   5.896
55512SOL    HW168375   0.552   2.966   5.973
55512SOL    HW268376   0.504   2.917   5.838
55513SOL     OW68377   4.376   2.527   3.427
55513SOL    HW168378   4.386   2.448   3.374
55513SOL    HW268379   4.438   2.516   3.499
55514SOL     OW68380   0.941   9.186   5.454
55514SOL    HW168381   0.887   9.127   5.402
55514SOL    HW268382   0.887   9.209   5.529
55515SOL     OW68383  14.568  13.001  11.309
55515SOL    HW168384  14.632  13.071  11.315
55515SOL    HW268385  14.490  13.042  11.271
55516SOL     OW68386  10.092  14.080  10.045
55516SOL    HW168387   9.997  14.088  10.041
55516SOL    HW268388  10.121  14.162  10.086
55517SOL     OW68389   0.526   0.450   4.411
55517SOL    HW168390   0.436   0.475   4.431
55517SOL    HW268391   0.528   0.438   4.316
55518SOL     OW68392   3.835   0.990   7.565
55518SOL    HW168393   3.858   0.972   7.473
55518SOL    HW268394   3.823   0.903   7.603
55519SOL     OW68395   2.229   8.147   9.126
55519SOL    HW168396   2.271   8.193   9.053
55519SOL    HW268397   2.256   8.056   9.115
55520SOL     OW68398   8.031   2.316   6.035
55520SOL    HW168399   7.999   2.252   6.098
55520SOL    HW268400   8.064   2.263   5.962
55521SOL     OW68401   6.371   8.760   4.597
55521SOL    HW168402   6.466   8.747   4.604
55521SOL    HW268403   6.334   8.703   4.664
55522SOL     OW68404   9.415  12.375  12.904
55522SOL    HW168405   9.472  12.448  12.929
55522SOL    HW268406   9.394  12.391  12.812
55523SOL     OW68407  14.482  14.131  11.288
55523SOL    HW168408  14.500  14.040  11.265
55523SOL    HW268409  14.568  14.168  11.308
55524SOL     OW68410  11.999   9.926   3.857
55524SOL    HW168411  12.041   9.997   3.906
55524SOL    HW268412  12.031   9.938   3.767
55525SOL     OW68413   6.701   7.016   2.067
55525SOL    HW168414   6.655   7.097   2.089
55525SOL    HW268415   6.775   7.013   2.128
55526SOL     OW68416  10.979   4.072   1.910
55526SOL    HW168417  10.943   4.096   1.825
55526SOL    HW268418  11.054   4.130   1.923
55527SOL     OW68419   9.974  10.569   7.358
55527SOL    HW168420  10.027  10.567   7.278
55527SOL    HW268421   9.962  10.662   7.375
55528SOL     OW68422  12.033  14.583   7.264
55528SOL    HW168423  11.939  14.567   7.275
55528SOL    HW268424  12.044  14.597   7.170
55529SOL     OW68425   4.831   0.039  10.721
55529SOL    HW168426   4.890  14.877  10.657
55529SOL    HW268427   4.744   0.013  10.693
55530SOL     OW68428   7.918  10.846   1.831
55530SOL    HW168429   7.844  10.906   1.830
55530SOL    HW268430   7.903  10.790   1.908
55531SOL     OW68431   0.925   2.947  13.163
55531SOL    HW168432   0.924   2.886  13.089
55531SOL    HW268433   1.013   2.938  13.201
55532SOL     OW68434   5.839  14.443   4.091
55532SOL    HW168435   5.835  14.430   3.997
55532SOL    HW268436   5.918  14.397   4.119
55533SOL     OW68437   6.138   5.319   7.044
55533SOL    HW168438   6.120   5.342   7.135
55533SOL    HW268439   6.074   5.252   7.022
55534SOL     OW68440   1.587   8.713  12.209
55534SOL    HW168441   1.584   8.805  12.236
55534SOL    HW268442   1.680   8.697  12.190
55535SOL     OW68443   7.680   4.387   5.045
55535SOL    HW168444   7.734   4.330   5.100
55535SOL    HW268445   7.593   4.348   5.048
55536SOL     OW68446  11.883   3.712  14.818
55536SOL    HW168447  11.796   3.735  14.851
55536SOL    HW268448  11.868   3.683  14.728
55537SOL     OW68449   9.845  10.306   3.634
55537SOL    HW168450   9.864  10.282   3.724
55537SOL    HW268451   9.821  10.398   3.638
55538SOL     OW68452  10.930   0.258  10.014
55538SOL    HW168453  10.990   0.283   9.943
55538SOL    HW268454  10.977   0.188  10.060
55539SOL     OW68455  11.067  14.359   7.452
55539SOL    HW168456  11.073  14.439   7.504
55539SOL    HW268457  11.081  14.387   7.362
55540SOL     OW68458  13.249   2.506  12.523
55540SOL    HW168459  13.263   2.575  12.587
55540SOL    HW268460  13.204   2.549  12.451
55541SOL     OW68461  14.154   2.526   8.662
55541SOL    HW168462  14.236   2.505   8.618
55541SOL    HW268463  14.123   2.441   8.695
55542SOL     OW68464   1.971   8.198   8.574
55542SOL    HW168465   1.966   8.145   8.495
55542SOL    HW268466   1.902   8.165   8.630
55543SOL     OW68467   9.833   9.673  11.909
55543SOL    HW168468   9.757   9.617  11.925
55543SOL    HW268469   9.899   9.614  11.874
55544SOL     OW68470   0.596  14.330   1.986
55544SOL    HW168471   0.587  14.417   2.024
55544SOL    HW268472   0.510  14.312   1.947
55545SOL     OW68473   6.662  13.357  13.985
55545SOL    HW168474   6.619  13.388  13.905
55545SOL    HW268475   6.744  13.406  13.989
55546SOL     OW68476   0.400   3.230  11.036
55546SOL    HW168477   0.358   3.175  10.971
55546SOL    HW268478   0.396   3.180  11.118
55547SOL     OW68479  12.776   9.640   3.782
55547SOL    HW168480  12.829   9.633   3.703
55547SOL    HW268481  12.717   9.714   3.765
55548SOL     OW68482  12.022   9.196   5.692
55548SOL    HW168483  11.953   9.130   5.688
55548SOL    HW268484  12.003   9.246   5.771
55549SOL     OW68485   7.612   5.218  13.480
55549SOL    HW168486   7.669   5.175  13.544
55549SOL    HW268487   7.562   5.146  13.440
55550SOL     OW68488   0.831  10.260   9.458
55550SOL    HW168489   0.809  10.278   9.367
55550SOL    HW268490   0.761  10.301   9.509
55551SOL     OW68491   7.953   9.442   5.819
55551SOL    HW168492   7.947   9.354   5.856
55551SOL    HW268493   7.959   9.499   5.896
55552SOL     OW68494   6.045   6.593   6.615
55552SOL    HW168495   6.006   6.664   6.667
55552SOL    HW268496   6.124   6.569   6.662
55553SOL     OW68497   9.730   8.347   2.972
55553SOL    HW168498   9.819   8.324   2.945
55553SOL    HW268499   9.726   8.442   2.960
55554SOL     OW68500   9.580   6.633   1.364
55554SOL    HW168501   9.575   6.650   1.269
55554SOL    HW268502   9.664   6.589   1.375
55555SOL     OW68503  13.017   6.841   1.082
55555SOL    HW168504  12.959   6.784   1.031
55555SOL    HW268505  12.958   6.907   1.120
55556SOL     OW68506   0.873   8.728   0.161
55556SOL    HW168507   0.779   8.722   0.146
55556SOL    HW268508   0.893   8.656   0.221
55557SOL     OW68509   0.736   3.420  13.869
55557SOL    HW168510   0.814   3.387  13.826
55557SOL    HW268511   0.679   3.343  13.879
55558SOL     OW68512   3.449   0.629   3.608
55558SOL    HW168513   3.459   0.712   3.654
55558SOL    HW268514   3.360   0.631   3.572
55559SOL     OW68515   5.176  13.336  14.807
55559SOL    HW168516   5.110  13.284  14.852
55559SOL    HW268517   5.182  13.298  14.720
55560SOL     OW68518  11.675   5.120  11.633
55560SOL    HW168519  11.731   5.046  11.656
55560SOL    HW268520  11.727   5.198  11.650
55561SOL     OW68521  14.339  11.824   6.426
55561SOL    HW168522  14.298  11.909   6.413
55561SOL    HW268523  14.291  11.785   6.499
55562SOL     OW68524  13.523  11.371  11.793
55562SOL    HW168525  13.571  11.317  11.730
55562SOL    HW268526  13.438  11.386  11.752
55563SOL     OW68527   4.564  13.114   7.716
55563SOL    HW168528   4.628  13.046   7.696
55563SOL    HW268529   4.481  13.066   7.726
55564SOL     OW68530  13.319   4.619   7.262
55564SOL    HW168531  13.326   4.562   7.185
55564SOL    HW268532  13.230   4.654   7.258
55565SOL     OW68533   5.695   2.672   5.248
55565SOL    HW168534   5.700   2.581   5.218
55565SOL    HW268535   5.661   2.720   5.172
55566SOL     OW68536   1.028   3.178   5.725
55566SOL    HW168537   1.064   3.170   5.813
55566SOL    HW268538   0.999   3.089   5.703
55567SOL     OW68539   3.237  13.520   2.082
55567SOL    HW168540   3.263  13.545   1.993
55567SOL    HW268541   3.176  13.589   2.109
55568SOL     OW68542   4.457   6.387   7.820
55568SOL    HW168543   4.420   6.374   7.733
55568SOL    HW268544   4.383   6.412   7.875
55569SOL     OW68545  13.159  11.753   3.541
55569SOL    HW168546  13.229  11.798   3.494
55569SOL    HW268547  13.197  11.668   3.565
55570SOL     OW68548   6.950   5.747  13.409
55570SOL    HW168549   6.859   5.756  13.380
55570SOL    HW268550   6.947   5.762  13.504
55571SOL     OW68551   9.203   7.564  10.050
55571SOL    HW168552   9.184   7.640  10.105
55571SOL    HW268553   9.270   7.516  10.098
55572SOL     OW68554   0.690   0.829   4.182
55572SOL    HW168555   0.692   0.783   4.098
55572SOL    HW268556   0.776   0.812   4.221
55573SOL     OW68557   1.465   8.710   2.288
55573SOL    HW168558   1.552   8.676   2.306
55573SOL    HW268559   1.413   8.687   2.365
55574SOL     OW68560  12.006   3.260   8.302
55574SOL    HW168561  12.034   3.296   8.218
55574SOL    HW268562  12.086   3.253   8.354
55575SOL     OW68563  11.347   7.387   6.158
55575SOL    HW168564  11.419   7.449   6.150
55575SOL    HW268565  11.282   7.417   6.094
55576SOL     OW68566   7.358   4.778   3.057
55576SOL    HW168567   7.335   4.819   2.974
55576SOL    HW268568   7.275   4.766   3.103
55577SOL     OW68569   1.575  12.535  13.052
55577SOL    HW168570   1.589  12.568  13.141
55577SOL    HW268571   1.480  12.536  13.041
55578SOL     OW68572  13.282  13.168   2.977
55578SOL    HW168573  13.235  13.240   2.936
55578SOL    HW268574  13.237  13.089   2.945
55579SOL     OW68575   6.162   1.354   3.550
55579SOL    HW168576   6.107   1.414   3.500
55579SOL    HW268577   6.117   1.342   3.633
55580SOL     OW68578  13.389  13.269   0.152
55580SOL    HW168579  13.312  13.226   0.116
55580SOL    HW268580  13.457  13.254   0.086
55581SOL     OW68581   8.375   3.725  13.690
55581SOL    HW168582   8.284   3.712  13.718
55581SOL    HW268583   8.393   3.817  13.710
55582SOL     OW68584   6.909   4.399   7.423
55582SOL    HW168585   6.945   4.413   7.336
55582SOL    HW268586   6.927   4.307   7.442
55583SOL     OW68587  14.183  11.817   9.252
55583SOL    HW168588  14.108  11.757   9.259
55583SOL    HW268589  14.220  11.799   9.166
55584SOL     OW68590  13.280  10.821   0.806
55584SOL    HW168591  13.274  10.763   0.730
55584SOL    HW268592  13.193  10.820   0.845
55585SOL     OW68593   7.993   8.951   8.118
55585SOL    HW168594   7.924   8.941   8.053
55585SOL    HW268595   7.952   9.000   8.189
55586SOL     OW68596  10.945   3.236  14.296
55586SOL    HW168597  10.947   3.329  14.271
55586SOL    HW268598  10.854   3.209  14.280
55587SOL     OW68599   2.552   7.203   5.777
55587SOL    HW168600   2.564   7.238   5.689
55587SOL    HW268601   2.524   7.278   5.829
55588SOL     OW68602   3.169   6.030   7.428
55588SOL    HW168603   3.170   6.111   7.376
55588SOL    HW268604   3.101   6.044   7.493
55589SOL     OW68605   6.041   5.802  12.203
55589SOL    HW168606   6.032   5.877  12.261
55589SOL    HW268607   6.037   5.725  12.261
55590SOL     OW68608  11.017   7.592   9.400
55590SOL    HW168609  10.989   7.594   9.309
55590SOL    HW268610  10.964   7.659   9.443
55591SOL     OW68611   6.116  10.843  13.934
55591SOL    HW168612   6.041  10.801  13.894
55591SOL    HW268613   6.167  10.772  13.973
55592SOL     OW68614   0.640   8.520   5.376
55592SOL    HW168615   0.591   8.448   5.414
55592SOL    HW268616   0.728   8.511   5.413
55593SOL     OW68617   0.147  12.331   6.171
55593SOL    HW168618   0.146  12.310   6.078
55593SOL    HW268619   0.055  12.328   6.197
55594SOL     OW68620   5.080   9.767   4.406
55594SOL    HW168621   5.057   9.790   4.316
55594SOL    HW268622   4.998   9.776   4.455
55595SOL     OW68623   4.928   0.381  11.382
55595SOL    HW168624   5.020   0.370  11.406
55595SOL    HW268625   4.913   0.314  11.315
55596SOL     OW68626   7.806  12.701   3.264
55596SOL    HW168627   7.719  12.703   3.304
55596SOL    HW268628   7.859  12.652   3.327
55597SOL     OW68629   7.698   6.627  12.830
55597SOL    HW168630   7.734   6.546  12.866
55597SOL    HW268631   7.615   6.600  12.789
55598SOL     OW68632  12.730   9.800   7.646
55598SOL    HW168633  12.819   9.769   7.632
55598SOL    HW268634  12.737   9.896   7.640
55599SOL     OW68635   4.447   7.289  13.661
55599SOL    HW168636   4.402   7.251  13.737
55599SOL    HW268637   4.516   7.343  13.699
55600SOL     OW68638   9.576   5.595   1.274
55600SOL    HW168639   9.547   5.673   1.322
55600SOL    HW268640   9.507   5.531   1.290
55601SOL     OW68641   9.462   7.740   4.735
55601SOL    HW168642   9.397   7.781   4.678
55601SOL    HW268643   9.507   7.677   4.678
55602SOL     OW68644   2.999   5.285   9.283
55602SOL    HW168645   3.050   5.352   9.328
55602SOL    HW268646   2.913   5.326   9.268
55603SOL     OW68647   3.664   1.534  13.046
55603SOL    HW168648   3.661   1.583  13.129
55603SOL    HW268649   3.758   1.520  13.031
55604SOL     OW68650   0.865   4.064  11.057
55604SOL    HW168651   0.789   4.100  11.011
55604SOL    HW268652   0.878   3.978  11.017
55605SOL     OW68653  12.602  12.185  12.203
55605SOL    HW168654  12.624  12.265  12.250
55605SOL    HW268655  12.671  12.175  12.138
55606SOL     OW68656   1.480   9.844   2.904
55606SOL    HW168657   1.560   9.841   2.850
55606SOL    HW268658   1.512   9.860   2.993
55607SOL     OW68659   9.612   7.097   2.809
55607SOL    HW168660   9.650   7.144   2.883
55607SOL    HW268661   9.632   7.005   2.825
55608SOL     OW68662  11.099   4.069  10.224
55608SOL    HW168663  11.174   4.016  10.252
55608SOL    HW268664  11.119   4.093  10.134
55609SOL     OW68665   6.553   1.176   1.389
55609SOL    HW168666   6.641   1.214   1.398
55609SOL    HW268667   6.539   1.129   1.471
55610SOL     OW68668  11.962   0.085  14.398
55610SOL    HW168669  11.869   0.064  14.399
55610SOL    HW268670  11.975   0.142  14.474
55611SOL     OW68671   0.562  13.547  13.181
55611SOL    HW168672   0.617  13.502  13.245
55611SOL    HW268673   0.569  13.493  13.102
55612SOL     OW68674   7.622   0.192  10.346
55612SOL    HW168675   7.686   0.133  10.384
55612SOL    HW268676   7.594   0.248  10.419
55613SOL     OW68677   6.749   8.191   2.496
55613SOL    HW168678   6.738   8.104   2.535
55613SOL    HW268679   6.699   8.188   2.415
55614SOL     OW68680   6.610  11.062   9.052
55614SOL    HW168681   6.561  11.141   9.075
55614SOL    HW268682   6.564  11.026   8.976
55615SOL     OW68683   7.764  14.726   9.525
55615SOL    HW168684   7.846  14.724   9.477
55615SOL    HW268685   7.782  14.778   9.603
55616SOL     OW68686   1.732  12.920   6.141
55616SOL    HW168687   1.658  12.858   6.142
55616SOL    HW268688   1.746  12.942   6.233
55617SOL     OW68689   2.102   6.484   8.127
55617SOL    HW168690   2.135   6.453   8.043
55617SOL    HW268691   2.015   6.444   8.135
55618SOL     OW68692   7.798  13.856  11.610
55618SOL    HW168693   7.806  13.896  11.524
55618SOL    HW268694   7.711  13.882  11.641
55619SOL     OW68695   9.362   9.196  13.154
55619SOL    HW168696   9.440   9.234  13.115
55619SOL    HW268697   9.323   9.267  13.205
55620SOL     OW68698   9.523   0.233   2.980
55620SOL    HW168699   9.610   0.192   2.970
55620SOL    HW268700   9.542   0.325   2.995
55621SOL     OW68701   6.664   2.076   1.726
55621SOL    HW168702   6.738   2.133   1.750
55621SOL    HW268703   6.641   2.102   1.637
55622SOL     OW68704   4.537  10.716   4.167
55622SOL    HW168705   4.519  10.769   4.090
55622SOL    HW268706   4.579  10.775   4.229
55623SOL     OW68707   6.804   8.855  12.980
55623SOL    HW168708   6.757   8.798  12.919
55623SOL    HW268709   6.896   8.832  12.969
55624SOL     OW68710  11.981  10.511   2.253
55624SOL    HW168711  11.909  10.574   2.257
55624SOL    HW268712  12.031  10.537   2.175
55625SOL     OW68713  14.080   0.542   1.009
55625SOL    HW168714  14.150   0.607   1.021
55625SOL    HW268715  14.033   0.541   1.092
55626SOL     OW68716   0.320   0.152   8.237
55626SOL    HW168717   0.285   0.226   8.286
55626SOL    HW268718   0.414   0.168   8.234
55627SOL     OW68719   7.085   7.081  14.104
55627SOL    HW168720   7.079   7.129  14.021
55627SOL    HW268721   7.058   6.992  14.081
55628SOL     OW68722   0.956   3.617  13.213
55628SOL    HW168723   1.036   3.611  13.265
55628SOL    HW268724   0.941   3.528  13.181
55629SOL     OW68725  11.663   8.998   6.657
55629SOL    HW168726  11.627   9.015   6.744
55629SOL    HW268727  11.601   8.938   6.616
55630SOL     OW68728   5.166   4.384   3.755
55630SOL    HW168729   5.144   4.469   3.717
55630SOL    HW268730   5.210   4.337   3.684
55631SOL     OW68731   3.045   4.940   9.742
55631SOL    HW168732   3.024   4.911   9.831
55631SOL    HW268733   3.026   4.864   9.687
55632SOL     OW68734  10.167  12.108   2.389
55632SOL    HW168735  10.167  12.203   2.374
55632SOL    HW268736  10.115  12.096   2.469
55633SOL     OW68737  13.837   7.963   6.948
55633SOL    HW168738  13.776   8.036   6.941
55633SOL    HW268739  13.826   7.915   6.866
55634SOL     OW68740   6.980   3.319   8.827
55634SOL    HW168741   7.043   3.353   8.890
55634SOL    HW268742   6.895   3.349   8.860
55635SOL     OW68743   4.002   8.128   5.073
55635SOL    HW168744   4.072   8.186   5.045
55635SOL    HW268745   3.938   8.131   5.002
55636SOL     OW68746   3.479   7.252   6.108
55636SOL    HW168747   3.548   7.258   6.041
55636SOL    HW268748   3.403   7.295   6.068
55637SOL     OW68749   9.467   3.352   5.234
55637SOL    HW168750   9.515   3.288   5.180
55637SOL    HW268751   9.481   3.323   5.324
55638SOL     OW68752   8.159  10.291  14.775
55638SOL    HW168753   8.217  10.233  14.727
55638SOL    HW268754   8.159  10.258  14.865
55639SOL     OW68755  14.182  14.344   7.384
55639SOL    HW168756  14.088  14.326   7.381
55639SOL    HW268757  14.215  14.310   7.301
55640SOL     OW68758   1.106  12.269   7.344
55640SOL    HW168759   1.187  12.254   7.393
55640SOL    HW268760   1.042  12.212   7.387
55641SOL     OW68761   4.623   9.702   7.077
55641SOL    HW168762   4.689   9.656   7.129
55641SOL    HW268763   4.651   9.689   6.986
55642SOL     OW68764   6.166   8.698  12.819
55642SOL    HW168765   6.162   8.642  12.897
55642SOL    HW268766   6.090   8.755  12.826
55643SOL     OW68767   0.228  14.702  14.054
55643SOL    HW168768   0.168  14.690  14.127
55643SOL    HW268769   0.194  14.779  14.008
55644SOL     OW68770   2.972   6.472   1.424
55644SOL    HW168771   2.983   6.439   1.335
55644SOL    HW268772   3.057   6.458   1.466
55645SOL     OW68773  10.767   1.428   5.918
55645SOL    HW168774  10.810   1.417   6.003
55645SOL    HW268775  10.825   1.381   5.857
55646SOL     OW68776  12.118   4.629  11.098
55646SOL    HW168777  12.065   4.604  11.174
55646SOL    HW268778  12.163   4.709  11.126
55647SOL     OW68779   9.471   9.102   8.716
55647SOL    HW168780   9.558   9.063   8.722
55647SOL    HW268781   9.488   9.191   8.684
55648SOL     OW68782  12.667   1.601   4.597
55648SOL    HW168783  12.707   1.565   4.675
55648SOL    HW268784  12.577   1.570   4.599
55649SOL     OW68785   7.504   2.375  11.288
55649SOL    HW168786   7.458   2.292  11.302
55649SOL    HW268787   7.511   2.383  11.193
55650SOL     OW68788  11.637   9.203   9.646
55650SOL    HW168789  11.627   9.296   9.625
55650SOL    HW268790  11.601   9.158   9.570
55651SOL     OW68791   4.145  14.245  11.958
55651SOL    HW168792   4.118  14.336  11.975
55651SOL    HW268793   4.067  14.204  11.920
55652SOL     OW68794   5.532  13.147  12.557
55652SOL    HW168795   5.595  13.093  12.605
55652SOL    HW268796   5.457  13.153  12.615
55653SOL     OW68797  13.871  11.565  14.126
55653SOL    HW168798  13.859  11.483  14.175
55653SOL    HW268799  13.826  11.631  14.178
55654SOL     OW68800   4.168   8.768   6.438
55654SOL    HW168801   4.078   8.784   6.466
55654SOL    HW268802   4.211   8.853   6.447
55655SOL     OW68803   5.144  14.691   9.077
55655SOL    HW168804   5.206  14.763   9.089
55655SOL    HW268805   5.192  14.613   9.104
55656SOL     OW68806   8.293  13.884  12.871
55656SOL    HW168807   8.228  13.816  12.885
55656SOL    HW268808   8.359  13.843  12.814
55657SOL     OW68809  14.865   5.371   9.301
55657SOL    HW168810   0.041   5.417   9.237
55657SOL    HW268811  14.776   5.403   9.283
55658SOL     OW68812   8.829  12.414   0.361
55658SOL    HW168813   8.862  12.463   0.436
55658SOL    HW268814   8.901  12.357   0.335
55659SOL     OW68815  10.257   3.084   7.624
55659SOL    HW168816  10.168   3.111   7.603
55659SOL    HW268817  10.303   3.166   7.645
55660SOL     OW68818   2.615   0.656  10.808
55660SOL    HW168819   2.532   0.669  10.855
55660SOL    HW268820   2.672   0.727  10.840
55661SOL     OW68821   8.095  11.969   0.580
55661SOL    HW168822   8.072  11.892   0.528
55661SOL    HW268823   8.161  12.014   0.528
55662SOL     OW68824   4.161  14.799   0.340
55662SOL    HW168825   4.081  14.832   0.299
55662SOL    HW268826   4.225  14.797   0.269
55663SOL     OW68827   1.583  12.701   2.314
55663SOL    HW168828   1.582  12.668   2.224
55663SOL    HW268829   1.493  12.690   2.344
55664SOL     OW68830  12.408   3.135   9.507
55664SOL    HW168831  12.490   3.121   9.460
55664SOL    HW268832  12.351   3.179   9.444
55665SOL     OW68833  12.184   3.114   7.197
55665SOL    HW168834  12.131   3.084   7.270
55665SOL    HW268835  12.263   3.060   7.201
55666SOL     OW68836   6.126  11.311   0.950
55666SOL    HW168837   6.070  11.381   0.917
55666SOL    HW268838   6.153  11.340   1.037
55667SOL     OW68839   6.115   9.149  11.041
55667SOL    HW168840   6.208   9.171  11.048
55667SOL    HW268841   6.095   9.163  10.948
55668SOL     OW68842  10.149  13.250  11.322
55668SOL    HW168843  10.117  13.168  11.361
55668SOL    HW268844  10.244  13.237  11.316
55669SOL     OW68845   1.545   4.112   4.150
55669SOL    HW168846   1.561   4.055   4.226
55669SOL    HW268847   1.632   4.128   4.114
55670SOL     OW68848   3.607   2.505  14.578
55670SOL    HW168849   3.679   2.442  14.585
55670SOL    HW268850   3.539   2.469  14.634
55671SOL     OW68851   9.234   2.248  12.314
55671SOL    HW168852   9.160   2.216  12.262
55671SOL    HW268853   9.236   2.190  12.390
55672SOL     OW68854   2.268  10.149   8.711
55672SOL    HW168855   2.249  10.147   8.805
55672SOL    HW268856   2.213  10.079   8.674
55673SOL     OW68857   9.083  12.345  14.249
55673SOL    HW168858   9.046  12.259  14.234
55673SOL    HW268859   9.097  12.349  14.344
55674SOL     OW68860  11.719   3.114  10.120
55674SOL    HW168861  11.720   3.094  10.213
55674SOL    HW268862  11.688   3.204  10.114
55675SOL     OW68863   4.835   2.803   8.762
55675SOL    HW168864   4.911   2.858   8.742
55675SOL    HW268865   4.796   2.844   8.839
55676SOL     OW68866   6.829  11.496   2.637
55676SOL    HW168867   6.834  11.585   2.673
55676SOL    HW268868   6.746  11.493   2.591
55677SOL     OW68869   8.389   4.476   1.264
55677SOL    HW168870   8.435   4.393   1.268
55677SOL    HW268871   8.452   4.541   1.295
55678SOL     OW68872   3.676  12.337   4.611
55678SOL    HW168873   3.738  12.409   4.602
55678SOL    HW268874   3.711  12.268   4.555
55679SOL     OW68875   5.336  10.001   0.012
55679SOL    HW168876   5.385  10.079   0.039
55679SOL    HW268877   5.394   9.956  14.831
55680SOL     OW68878  13.643  10.621  13.819
55680SOL    HW168879  13.660  10.605  13.912
55680SOL    HW268880  13.713  10.680  13.792
55681SOL     OW68881   7.418  11.020  11.932
55681SOL    HW168882   7.355  11.093  11.927
55681SOL    HW268883   7.503  11.060  11.913
55682SOL     OW68884   4.822  14.848  10.127
55682SOL    HW168885   4.874   0.020  10.064
55682SOL    HW268886   4.854  14.875  10.213
55683SOL     OW68887   0.062   8.216   8.473
55683SOL    HW168888   0.152   8.245   8.454
55683SOL    HW268889   0.065   8.121   8.461
55684SOL     OW68890  12.420   1.621   4.102
55684SOL    HW168891  12.334   1.584   4.081
55684SOL    HW268892  12.433   1.600   4.194
55685SOL     OW68893   3.101   5.153  14.361
55685SOL    HW168894   3.145   5.121  14.440
55685SOL    HW268895   3.156   5.225  14.331
55686SOL     OW68896  11.100   6.013   8.641
55686SOL    HW168897  11.103   6.096   8.593
55686SOL    HW268898  11.193   5.991   8.655
55687SOL     OW68899   2.897  13.529   4.887
55687SOL    HW168900   2.984  13.508   4.854
55687SOL    HW268901   2.866  13.600   4.831
55688SOL     OW68902   6.276   4.237   6.400
55688SOL    HW168903   6.313   4.196   6.321
55688SOL    HW268904   6.238   4.319   6.369
55689SOL     OW68905   7.704  13.811  14.300
55689SOL    HW168906   7.719  13.769  14.385
55689SOL    HW268907   7.648  13.749  14.252
55690SOL     OW68908   0.485  11.503  12.720
55690SOL    HW168909   0.438  11.559  12.782
55690SOL    HW268910   0.571  11.544  12.711
55691SOL     OW68911   1.864   8.695  12.120
55691SOL    HW168912   1.952   8.661  12.135
55691SOL    HW268913   1.839   8.661  12.035
55692SOL     OW68914  12.046   5.321   5.390
55692SOL    HW168915  12.100   5.397   5.410
55692SOL    HW268916  11.971   5.357   5.343
55693SOL     OW68917  13.123   7.610   7.059
55693SOL    HW168918  13.211   7.602   7.097
55693SOL    HW268919  13.092   7.520   7.051
55694SOL     OW68920   4.201  13.185  12.973
55694SOL    HW168921   4.276  13.129  12.956
55694SOL    HW268922   4.219  13.266  12.926
55695SOL     OW68923   6.331   2.233   8.446
55695SOL    HW168924   6.310   2.318   8.483
55695SOL    HW268925   6.394   2.252   8.376
55696SOL     OW68926   9.663   5.878   1.463
55696SOL    HW168927   9.662   5.959   1.513
55696SOL    HW268928   9.573   5.867   1.432
55697SOL     OW68929   5.472  10.536  12.966
55697SOL    HW168930   5.442  10.449  12.938
55697SOL    HW268931   5.392  10.587  12.976
55698SOL     OW68932   9.111   6.855  11.600
55698SOL    HW168933   9.041   6.858  11.535
55698SOL    HW268934   9.183   6.810  11.555
55699SOL     OW68935   5.632   4.556   4.854
55699SOL    HW168936   5.712   4.510   4.827
55699SOL    HW268937   5.651   4.648   4.836
55700SOL     OW68938   7.716   1.236  13.565
55700SOL    HW168939   7.744   1.156  13.520
55700SOL    HW268940   7.698   1.208  13.655
55701SOL     OW68941   7.847   0.934  12.541
55701SOL    HW168942   7.913   0.998  12.568
55701SOL    HW268943   7.764   0.972  12.569
55702SOL     OW68944   9.196   5.071  13.473
55702SOL    HW168945   9.275   5.020  13.486
55702SOL    HW268946   9.175   5.107  13.559
55703SOL     OW68947   1.111   3.866   5.921
55703SOL    HW168948   1.162   3.908   5.851
55703SOL    HW268949   1.036   3.828   5.877
55704SOL     OW68950   2.086  10.664  11.728
55704SOL    HW168951   2.103  10.570  11.730
55704SOL    HW268952   2.135  10.700  11.802
55705SOL     OW68953   6.208   6.283   4.681
55705SOL    HW168954   6.123   6.287   4.638
55705SOL    HW268955   6.268   6.327   4.620
55706SOL     OW68956   3.037  13.906   6.072
55706SOL    HW168957   3.068  13.869   6.155
55706SOL    HW268958   3.109  13.961   6.042
55707SOL     OW68959   8.521   6.270  14.000
55707SOL    HW168960   8.585   6.267  14.072
55707SOL    HW268961   8.557   6.213  13.933
55708SOL     OW68962   9.898   9.441   6.314
55708SOL    HW168963   9.934   9.448   6.402
55708SOL    HW268964   9.811   9.478   6.319
55709SOL     OW68965  12.566  14.048  13.716
55709SOL    HW168966  12.490  13.998  13.745
55709SOL    HW268967  12.606  14.081  13.797
55710SOL     OW68968  13.181  13.746   8.547
55710SOL    HW168969  13.199  13.653   8.532
55710SOL    HW268970  13.259  13.778   8.594
55711SOL     OW68971  12.843   7.618   8.677
55711SOL    HW168972  12.782   7.682   8.712
55711SOL    HW268973  12.918   7.622   8.737
55712SOL     OW68974  11.512  10.839   5.577
55712SOL    HW168975  11.564  10.779   5.631
55712SOL    HW268976  11.490  10.788   5.499
55713SOL     OW68977  12.358  14.635   8.138
55713SOL    HW168978  12.293  14.591   8.084
55713SOL    HW268979  12.396  14.702   8.081
55714SOL     OW68980  12.681   7.904   4.907
55714SOL    HW168981  12.701   7.994   4.883
55714SOL    HW268982  12.588   7.905   4.931
55715SOL     OW68983   5.273   9.852   8.214
55715SOL    HW168984   5.281   9.937   8.258
55715SOL    HW268985   5.349   9.802   8.244
55716SOL     OW68986   2.934   6.717   7.436
55716SOL    HW168987   2.971   6.788   7.489
55716SOL    HW268988   2.947   6.639   7.489
55717SOL     OW68989   3.233  10.755  10.980
55717SOL    HW168990   3.267  10.844  10.975
55717SOL    HW268991   3.151  10.758  10.929
55718SOL     OW68992   5.738   8.410   7.574
55718SOL    HW168993   5.696   8.496   7.580
55718SOL    HW268994   5.747   8.382   7.665
55719SOL     OW68995   5.574   1.102   9.454
55719SOL    HW168996   5.667   1.117   9.469
55719SOL    HW268997   5.561   1.122   9.361
55720SOL     OW68998   5.134   1.656   6.759
55720SOL    HW168999   5.089   1.577   6.789
55720SOL    HW269000   5.156   1.638   6.668
55721SOL     OW69001   7.046   9.452  13.120
55721SOL    HW169002   7.118   9.429  13.178
55721SOL    HW269003   6.993   9.513  13.170
55722SOL     OW69004  10.496  13.862  14.184
55722SOL    HW169005  10.450  13.870  14.100
55722SOL    HW269006  10.485  13.770  14.209
55723SOL     OW69007  11.421   4.432   3.752
55723SOL    HW169008  11.407   4.372   3.826
55723SOL    HW269009  11.358   4.502   3.765
55724SOL     OW69010   0.820   8.037   6.839
55724SOL    HW169011   0.821   8.122   6.796
55724SOL    HW269012   0.911   8.006   6.832
55725SOL     OW69013   8.944   6.470   2.401
55725SOL    HW169014   9.036   6.470   2.427
55725SOL    HW269015   8.916   6.561   2.410
55726SOL     OW69016   9.179   5.238   1.890
55726SOL    HW169017   9.185   5.334   1.897
55726SOL    HW269018   9.182   5.221   1.796
55727SOL     OW69019   3.681   1.871   6.911
55727SOL    HW169020   3.728   1.939   6.862
55727SOL    HW269021   3.588   1.890   6.896
55728SOL     OW69022  11.485   3.402  11.344
55728SOL    HW169023  11.549   3.415  11.414
55728SOL    HW269024  11.402   3.430  11.383
55729SOL     OW69025   4.234   2.411   7.513
55729SOL    HW169026   4.161   2.399   7.452
55729SOL    HW269027   4.232   2.332   7.568
55730SOL     OW69028   6.244   7.654   5.640
55730SOL    HW169029   6.193   7.733   5.623
55730SOL    HW269030   6.261   7.617   5.553
55731SOL     OW69031  10.647   7.866   4.834
55731SOL    HW169032  10.562   7.871   4.791
55731SOL    HW269033  10.626   7.866   4.928
55732SOL     OW69034   8.375  12.838   4.131
55732SOL    HW169035   8.414  12.922   4.107
55732SOL    HW269036   8.337  12.805   4.049
55733SOL     OW69037  13.203   2.606   1.931
55733SOL    HW169038  13.150   2.574   1.858
55733SOL    HW269039  13.147   2.598   2.007
55734SOL     OW69040   7.127   0.872   1.339
55734SOL    HW169041   7.109   0.960   1.308
55734SOL    HW269042   7.127   0.879   1.434
55735SOL     OW69043   8.207   5.390   3.377
55735SOL    HW169044   8.292   5.407   3.337
55735SOL    HW269045   8.169   5.320   3.323
55736SOL     OW69046  11.770   8.288   1.050
55736SOL    HW169047  11.789   8.197   1.030
55736SOL    HW269048  11.683   8.285   1.092
55737SOL     OW69049   5.122   3.969   4.348
55737SOL    HW169050   5.118   3.926   4.262
55737SOL    HW269051   5.193   4.032   4.340
55738SOL     OW69052   5.706  13.907  10.266
55738SOL    HW169053   5.633  13.959  10.233
55738SOL    HW269054   5.765  13.971  10.305
55739SOL     OW69055   1.539   6.922   8.110
55739SOL    HW169056   1.530   6.918   8.205
55739SOL    HW269057   1.516   6.835   8.079
55740SOL     OW69058   2.376   9.495   5.946
55740SOL    HW169059   2.323   9.424   5.983
55740SOL    HW269060   2.462   9.486   5.987
55741SOL     OW69061   9.804   2.929   7.312
55741SOL    HW169062   9.775   3.015   7.281
55741SOL    HW269063   9.820   2.941   7.406
55742SOL     OW69064  14.214   8.082   7.505
55742SOL    HW169065  14.247   8.065   7.417
55742SOL    HW269066  14.135   8.029   7.512
55743SOL     OW69067   4.425  12.784  11.363
55743SOL    HW169068   4.360  12.729  11.321
55743SOL    HW269069   4.429  12.752  11.453
55744SOL     OW69070  14.476   7.703  10.054
55744SOL    HW169071  14.521   7.663  10.129
55744SOL    HW269072  14.542   7.704   9.985
55745SOL     OW69073   5.762   7.651   7.933
55745SOL    HW169074   5.767   7.697   8.017
55745SOL    HW269075   5.839   7.679   7.885
55746SOL     OW69076   6.239  12.489   0.015
55746SOL    HW169077   6.236  12.502  14.800
55746SOL    HW269078   6.288  12.407   0.027
55747SOL     OW69079   4.544  13.784   8.784
55747SOL    HW169080   4.524  13.737   8.703
55747SOL    HW269081   4.535  13.876   8.762
55748SOL     OW69082   3.139   6.108   1.528
55748SOL    HW169083   3.057   6.133   1.571
55748SOL    HW269084   3.208   6.142   1.585
55749SOL     OW69085  14.137   1.656  12.162
55749SOL    HW169086  14.144   1.649  12.257
55749SOL    HW269087  14.114   1.568  12.133
55750SOL     OW69088  14.075  13.931   2.158
55750SOL    HW169089  14.120  13.989   2.097
55750SOL    HW269090  14.076  13.978   2.241
55751SOL     OW69091   3.631   0.164   5.547
55751SOL    HW169092   3.575   0.211   5.485
55751SOL    HW269093   3.719   0.192   5.525
55752SOL     OW69094   4.795  14.442  10.594
55752SOL    HW169095   4.788  14.482  10.680
55752SOL    HW269096   4.763  14.509  10.534
55753SOL     OW69097   2.973  12.123  11.246
55753SOL    HW169098   2.999  12.143  11.157
55753SOL    HW269099   2.896  12.067  11.236
55754SOL     OW69100   4.977  12.777   8.233
55754SOL    HW169101   4.965  12.805   8.324
55754SOL    HW269102   4.948  12.686   8.231
55755SOL     OW69103  10.475  13.262   5.738
55755SOL    HW169104  10.435  13.234   5.655
55755SOL    HW269105  10.454  13.355   5.744
55756SOL     OW69106   8.025   0.444   2.590
55756SOL    HW169107   8.051   0.535   2.600
55756SOL    HW269108   7.949   0.446   2.531
55757SOL     OW69109  12.413   7.078   8.570
55757SOL    HW169110  12.496   7.124   8.556
55757SOL    HW269111  12.363   7.137   8.626
55758SOL     OW69112   1.056   2.201   7.659
55758SOL    HW169113   1.121   2.233   7.721
55758SOL    HW269114   0.989   2.269   7.657
55759SOL     OW69115   6.078   0.652  13.220
55759SOL    HW169116   6.060   0.738  13.258
55759SOL    HW269117   6.012   0.595  13.259
55760SOL     OW69118   8.530  12.740   8.362
55760SOL    HW169119   8.502  12.656   8.399
55760SOL    HW269120   8.601  12.769   8.420
55761SOL     OW69121   2.608  14.521   5.447
55761SOL    HW169122   2.642  14.611   5.447
55761SOL    HW269123   2.535  14.523   5.509
55762SOL     OW69124   8.432   2.688   8.321
55762SOL    HW169125   8.464   2.598   8.332
55762SOL    HW269126   8.366   2.681   8.252
55763SOL     OW69127  14.329  14.860   6.035
55763SOL    HW169128  14.299  14.834   6.122
55763SOL    HW269129  14.339  14.777   5.988
55764SOL     OW69130  10.499   7.174  11.107
55764SOL    HW169131  10.540   7.100  11.150
55764SOL    HW269132  10.549   7.250  11.137
55765SOL     OW69133   4.216   6.724   5.808
55765SOL    HW169134   4.203   6.693   5.897
55765SOL    HW269135   4.129   6.723   5.769
55766SOL     OW69136   3.233   8.781   5.075
55766SOL    HW169137   3.261   8.820   4.992
55766SOL    HW269138   3.239   8.853   5.138
55767SOL     OW69139  14.815   9.952   5.702
55767SOL    HW169140  14.809   9.941   5.608
55767SOL    HW269141  14.839  10.044   5.715
55768SOL     OW69142   5.287   6.525   5.514
55768SOL    HW169143   5.196   6.497   5.511
55768SOL    HW269144   5.299   6.558   5.604
55769SOL     OW69145   1.828   3.361  14.539
55769SOL    HW169146   1.774   3.284  14.556
55769SOL    HW269147   1.775   3.416  14.482
55770SOL     OW69148  14.449   6.461   6.396
55770SOL    HW169149  14.380   6.527   6.402
55770SOL    HW269150  14.489   6.476   6.310
55771SOL     OW69151  11.072   5.310   5.390
55771SOL    HW169152  11.019   5.262   5.454
55771SOL    HW269153  11.008   5.364   5.343
55772SOL     OW69154  13.562   9.903   5.913
55772SOL    HW169155  13.532   9.970   5.852
55772SOL    HW269156  13.658   9.912   5.914
55773SOL     OW69157   9.890   3.435   3.432
55773SOL    HW169158   9.953   3.498   3.467
55773SOL    HW269159   9.937   3.352   3.431
55774SOL     OW69160  14.733   5.072   4.367
55774SOL    HW169161  14.700   5.000   4.421
55774SOL    HW269162  14.661   5.136   4.365
55775SOL     OW69163   3.963   6.738   8.501
55775SOL    HW169164   3.987   6.722   8.410
55775SOL    HW269165   3.926   6.826   8.502
55776SOL     OW69166   8.067   4.917   3.668
55776SOL    HW169167   8.056   4.970   3.747
55776SOL    HW269168   7.996   4.945   3.610
55777SOL     OW69169  10.064   7.231   2.549
55777SOL    HW169170  10.119   7.226   2.627
55777SOL    HW269171   9.975   7.217   2.581
55778SOL     OW69172  10.578   6.134   7.043
55778SOL    HW169173  10.527   6.088   6.977
55778SOL    HW269174  10.552   6.095   7.126
55779SOL     OW69175   6.343  11.034   3.903
55779SOL    HW169176   6.302  10.948   3.892
55779SOL    HW269177   6.417  11.033   3.843
55780SOL     OW69178  12.744   5.208   1.900
55780SOL    HW169179  12.688   5.165   1.835
55780SOL    HW269180  12.755   5.297   1.868
55781SOL     OW69181   9.032  13.112   6.552
55781SOL    HW169182   9.077  13.189   6.516
55781SOL    HW269183   9.088  13.039   6.528
55782SOL     OW69184   9.609  14.181  12.046
55782SOL    HW169185   9.641  14.128  12.119
55782SOL    HW269186   9.670  14.162  11.974
55783SOL     OW69187  14.792  14.586   9.859
55783SOL    HW169188  14.773  14.528   9.786
55783SOL    HW269189  14.750  14.545   9.934
55784SOL     OW69190   1.651  11.926  12.008
55784SOL    HW169191   1.678  11.846  11.963
55784SOL    HW269192   1.733  11.970  12.029
55785SOL     OW69193   3.602  10.278   4.808
55785SOL    HW169194   3.636  10.345   4.867
55785SOL    HW269195   3.679  10.233   4.775
55786SOL     OW69196   2.930   5.290  10.965
55786SOL    HW169197   2.923   5.257  10.875
55786SOL    HW269198   2.923   5.212  11.020
55787SOL     OW69199   9.658   9.691   2.299
55787SOL    HW169200   9.751   9.684   2.277
55787SOL    HW269201   9.637   9.783   2.288
55788SOL     OW69202   5.112   7.625  11.195
55788SOL    HW169203   5.163   7.669  11.263
55788SOL    HW269204   5.177   7.597  11.130
55789SOL     OW69205   6.400  11.654  12.169
55789SOL    HW169206   6.436  11.588  12.229
55789SOL    HW269207   6.421  11.621  12.082
55790SOL     OW69208   7.782   7.150   3.594
55790SOL    HW169209   7.703   7.153   3.648
55790SOL    HW269210   7.771   7.221   3.531
55791SOL     OW69211   8.367  11.105  13.010
55791SOL    HW169212   8.333  11.059  12.933
55791SOL    HW269213   8.462  11.110  12.995
55792SOL     OW69214  14.204   0.839   5.626
55792SOL    HW169215  14.193   0.934   5.622
55792SOL    HW269216  14.227   0.814   5.536
55793SOL     OW69217   5.961   0.013  11.607
55793SOL    HW169218   5.992  14.843  11.531
55793SOL    HW269219   6.040   0.054  11.644
55794SOL     OW69220   9.947   5.547   8.691
55794SOL    HW169221  10.030   5.576   8.654
55794SOL    HW269222   9.919   5.619   8.747
55795SOL     OW69223   8.204  12.744  11.327
55795SOL    HW169224   8.211  12.695  11.245
55795SOL    HW269225   8.261  12.698  11.388
55796SOL     OW69226  10.409   4.117   4.572
55796SOL    HW169227  10.344   4.187   4.576
55796SOL    HW269228  10.388   4.068   4.493
55797SOL     OW69229   1.977   5.478   3.272
55797SOL    HW169230   1.962   5.567   3.240
55797SOL    HW269231   1.894   5.433   3.255
55798SOL     OW69232   3.889   7.865  14.708
55798SOL    HW169233   3.909   7.771  14.708
55798SOL    HW269234   3.847   7.880  14.623
55799SOL     OW69235   4.563   0.284   4.879
55799SOL    HW169236   4.542   0.223   4.951
55799SOL    HW269237   4.578   0.227   4.804
55800SOL     OW69238  11.007   9.781   8.973
55800SOL    HW169239  10.996   9.759   9.065
55800SOL    HW269240  10.918   9.796   8.941
55801SOL     OW69241   3.269  12.632   7.936
55801SOL    HW169242   3.231  12.681   7.863
55801SOL    HW269243   3.280  12.543   7.903
55802SOL     OW69244   1.345  11.876   3.918
55802SOL    HW169245   1.280  11.832   3.972
55802SOL    HW269246   1.428  11.862   3.965
55803SOL     OW69247  14.101   0.597   9.917
55803SOL    HW169248  14.049   0.576   9.995
55803SOL    HW269249  14.189   0.565   9.938
55804SOL     OW69250   1.135   2.918   1.981
55804SOL    HW169251   1.156   2.836   1.935
55804SOL    HW269252   1.072   2.962   1.923
55805SOL     OW69253  13.475  13.715   9.399
55805SOL    HW169254  13.550  13.742   9.451
55805SOL    HW269255  13.482  13.620   9.393
55806SOL     OW69256   9.230   8.770   1.351
55806SOL    HW169257   9.161   8.833   1.371
55806SOL    HW269258   9.199   8.687   1.388
55807SOL     OW69259   4.370   1.892  12.422
55807SOL    HW169260   4.283   1.892  12.461
55807SOL    HW269261   4.365   1.955  12.350
55808SOL     OW69262   6.428   4.770   9.944
55808SOL    HW169263   6.370   4.770   9.868
55808SOL    HW269264   6.387   4.710  10.007
55809SOL     OW69265  13.581   0.063  12.803
55809SOL    HW169266  13.499   0.029  12.836
55809SOL    HW269267  13.561   0.154  12.779
55810SOL     OW69268   9.054   8.031   9.060
55810SOL    HW169269   9.082   8.117   9.090
55810SOL    HW269270   8.964   8.021   9.091
55811SOL     OW69271   6.814   3.252  13.018
55811SOL    HW169272   6.852   3.165  13.030
55811SOL    HW269273   6.880   3.301  12.969
55812SOL     OW69274  14.534   0.164   1.382
55812SOL    HW169275  14.515   0.223   1.309
55812SOL    HW269276  14.629   0.152   1.378
55813SOL     OW69277  14.552   9.141  10.695
55813SOL    HW169278  14.485   9.144  10.764
55813SOL    HW269279  14.621   9.198  10.726
55814SOL     OW69280   0.765   4.516   2.926
55814SOL    HW169281   0.770   4.609   2.951
55814SOL    HW269282   0.801   4.470   3.003
55815SOL     OW69283   2.716   1.955  14.208
55815SOL    HW169284   2.772   1.937  14.133
55815SOL    HW269285   2.640   1.897  14.196
55816SOL     OW69286   8.812   2.380   5.950
55816SOL    HW169287   8.907   2.381   5.941
55816SOL    HW269288   8.795   2.418   6.036
55817SOL     OW69289  10.139  10.292   7.847
55817SOL    HW169290  10.139  10.369   7.904
55817SOL    HW269291  10.094  10.321   7.768
55818SOL     OW69292   5.493   9.166   7.981
55818SOL    HW169293   5.464   9.257   7.993
55818SOL    HW269294   5.466   9.144   7.892
55819SOL     OW69295  11.296   7.627   9.214
55819SOL    HW169296  11.266   7.712   9.246
55819SOL    HW269297  11.263   7.622   9.124
55820SOL     OW69298  12.702   0.725   5.946
55820SOL    HW169299  12.618   0.767   5.927
55820SOL    HW269300  12.740   0.707   5.860
55821SOL     OW69301   3.579   3.607  11.952
55821SOL    HW169302   3.558   3.516  11.971
55821SOL    HW269303   3.603   3.608  11.859
55822SOL     OW69304   0.738   9.014   9.060
55822SOL    HW169305   0.700   8.969   8.985
55822SOL    HW269306   0.780   8.944   9.110
55823SOL     OW69307   2.718   9.423   5.577
55823SOL    HW169308   2.734   9.351   5.516
55823SOL    HW269309   2.625   9.443   5.566
55824SOL     OW69310  12.094  11.606  10.516
55824SOL    HW169311  12.173  11.598  10.569
55824SOL    HW269312  12.022  11.605  10.579
55825SOL     OW69313   8.438  14.801  11.393
55825SOL    HW169314   8.477  14.854  11.463
55825SOL    HW269315   8.422  14.863  11.322
55826SOL     OW69316  10.163  12.477   2.723
55826SOL    HW169317  10.206  12.562   2.726
55826SOL    HW269318  10.192  12.437   2.641
55827SOL     OW69319   2.819  13.535   3.464
55827SOL    HW169320   2.912  13.548   3.447
55827SOL    HW269321   2.813  13.448   3.504
55828SOL     OW69322   3.191   3.728   7.901
55828SOL    HW169323   3.198   3.635   7.922
55828SOL    HW269324   3.280   3.755   7.878
55829SOL     OW69325  13.882   0.452   7.162
55829SOL    HW169326  13.884   0.404   7.079
55829SOL    HW269327  13.822   0.525   7.147
55830SOL     OW69328   4.481   1.709   1.809
55830SOL    HW169329   4.406   1.705   1.750
55830SOL    HW269330   4.554   1.676   1.758
55831SOL     OW69331  11.935  12.817   6.846
55831SOL    HW169332  11.841  12.816   6.824
55831SOL    HW269333  11.972  12.886   6.791
55832SOL     OW69334   5.205   6.714   6.209
55832SOL    HW169335   5.227   6.796   6.165
55832SOL    HW269336   5.284   6.660   6.198
55833SOL     OW69337   7.724   0.879  10.445
55833SOL    HW169338   7.685   0.792  10.438
55833SOL    HW269339   7.737   0.892  10.538
55834SOL     OW69340   9.423   4.767   9.139
55834SOL    HW169341   9.432   4.721   9.056
55834SOL    HW269342   9.508   4.757   9.181
55835SOL     OW69343   6.205  13.449  11.359
55835SOL    HW169344   6.165  13.384  11.301
55835SOL    HW269345   6.172  13.533  11.327
55836SOL     OW69346  11.592   5.767  10.067
55836SOL    HW169347  11.668   5.760  10.125
55836SOL    HW269348  11.630   5.789   9.982
55837SOL     OW69349   6.142   2.226  10.727
55837SOL    HW169350   6.205   2.298  10.724
55837SOL    HW269351   6.068   2.256  10.673
55838SOL     OW69352   4.513  10.048  13.064
55838SOL    HW169353   4.445  10.005  13.013
55838SOL    HW269354   4.512  10.139  13.035
55839SOL     OW69355  12.012   3.820  12.175
55839SOL    HW169356  12.100   3.790  12.198
55839SOL    HW269357  11.967   3.829  12.259
55840SOL     OW69358  10.425   8.802  13.393
55840SOL    HW169359  10.448   8.796  13.301
55840SOL    HW269360  10.442   8.894  13.416
55841SOL     OW69361  12.642   6.148   8.844
55841SOL    HW169362  12.686   6.222   8.802
55841SOL    HW269363  12.658   6.161   8.937
55842SOL     OW69364   8.458   6.274   7.330
55842SOL    HW169365   8.539   6.308   7.290
55842SOL    HW269366   8.483   6.255   7.421
55843SOL     OW69367  12.452  12.350   9.031
55843SOL    HW169368  12.541  12.318   9.015
55843SOL    HW269369  12.427  12.312   9.115
55844SOL     OW69370  11.491   4.247  10.518
55844SOL    HW169371  11.579   4.227  10.551
55844SOL    HW269372  11.438   4.259  10.597
55845SOL     OW69373   6.417   3.983  12.516
55845SOL    HW169374   6.441   3.891  12.501
55845SOL    HW269375   6.497   4.024  12.550
55846SOL     OW69376  10.473  12.465  13.381
55846SOL    HW169377  10.469  12.372  13.406
55846SOL    HW269378  10.434  12.511  13.456
55847SOL     OW69379   9.682  11.042  12.080
55847SOL    HW169380   9.761  10.994  12.107
55847SOL    HW269381   9.713  11.107  12.017
55848SOL     OW69382  11.014   0.813  11.046
55848SOL    HW169383  11.059   0.768  10.976
55848SOL    HW269384  11.069   0.800  11.123
55849SOL     OW69385   1.350   5.298   4.799
55849SOL    HW169386   1.395   5.295   4.715
55849SOL    HW269387   1.420   5.317   4.862
55850SOL     OW69388   3.170  11.222  13.020
55850SOL    HW169389   3.175  11.235  12.925
55850SOL    HW269390   3.079  11.239  13.042
55851SOL     OW69391  10.167   5.662   1.567
55851SOL    HW169392  10.263   5.656   1.568
55851SOL    HW269393  10.148   5.729   1.501
55852SOL     OW69394  11.614   2.092   9.218
55852SOL    HW169395  11.663   2.068   9.296
55852SOL    HW269396  11.544   2.149   9.250
55853SOL     OW69397   7.748   4.038   3.051
55853SOL    HW169398   7.842   4.055   3.053
55853SOL    HW269399   7.708   4.125   3.046
55854SOL     OW69400   1.185   8.271  10.794
55854SOL    HW169401   1.217   8.182  10.807
55854SOL    HW269402   1.143   8.268  10.707
55855SOL     OW69403  12.369  12.803  11.885
55855SOL    HW169404  12.427  12.801  11.809
55855SOL    HW269405  12.281  12.814  11.849
55856SOL     OW69406  10.431   8.784   8.250
55856SOL    HW169407  10.413   8.823   8.165
55856SOL    HW269408  10.350   8.739   8.275
55857SOL     OW69409  14.736   8.772   0.189
55857SOL    HW169410  14.776   8.708   0.248
55857SOL    HW269411  14.725   8.851   0.241
55858SOL     OW69412  13.316  12.924  11.736
55858SOL    HW169413  13.398  12.930  11.688
55858SOL    HW269414  13.252  12.969  11.682
55859SOL     OW69415   3.793   4.274   6.273
55859SOL    HW169416   3.749   4.315   6.198
55859SOL    HW269417   3.727   4.218   6.313
55860SOL     OW69418   1.418  12.758   5.820
55860SOL    HW169419   1.453  12.673   5.794
55860SOL    HW269420   1.351  12.778   5.754
55861SOL     OW69421   3.650   2.946  10.038
55861SOL    HW169422   3.613   2.929   9.952
55861SOL    HW269423   3.602   3.023  10.070
55862SOL     OW69424  11.855   5.036  11.842
55862SOL    HW169425  11.795   4.995  11.903
55862SOL    HW269426  11.858   5.128  11.868
55863SOL     OW69427   3.042   9.556   3.565
55863SOL    HW169428   2.950   9.534   3.555
55863SOL    HW269429   3.071   9.577   3.476
55864SOL     OW69430  13.921   7.102  10.594
55864SOL    HW169431  13.956   7.015  10.609
55864SOL    HW269432  13.882   7.098  10.507
55865SOL     OW69433   0.216  12.030   0.291
55865SOL    HW169434   0.237  12.124   0.288
55865SOL    HW269435   0.120  12.028   0.293
55866SOL     OW69436  11.097   0.804   6.126
55866SOL    HW169437  11.111   0.886   6.174
55866SOL    HW269438  11.131   0.736   6.183
55867SOL     OW69439   1.879   7.184   9.883
55867SOL    HW169440   1.860   7.175   9.977
55867SOL    HW269441   1.866   7.096   9.847
55868SOL     OW69442  13.944  11.841   7.943
55868SOL    HW169443  13.862  11.863   7.898
55868SOL    HW269444  14.007  11.905   7.911
55869SOL     OW69445  12.360  10.159   9.227
55869SOL    HW169446  12.308  10.082   9.251
55869SOL    HW269447  12.450  10.135   9.247
55870SOL     OW69448   0.827   4.714  12.835
55870SOL    HW169449   0.867   4.792  12.874
55870SOL    HW269450   0.861   4.641  12.887
55871SOL     OW69451   0.909   2.480  13.746
55871SOL    HW169452   0.984   2.462  13.690
55871SOL    HW269453   0.881   2.568  13.721
55872SOL     OW69454  11.348  11.405  14.128
55872SOL    HW169455  11.402  11.471  14.085
55872SOL    HW269456  11.261  11.443  14.133
55873SOL     OW69457   4.244  13.157  11.315
55873SOL    HW169458   4.332  13.183  11.289
55873SOL    HW269459   4.227  13.206  11.395
55874SOL     OW69460  12.435  13.607   5.055
55874SOL    HW169461  12.363  13.546   5.069
55874SOL    HW269462  12.510  13.551   5.035
55875SOL     OW69463   4.984  13.213   3.156
55875SOL    HW169464   4.992  13.296   3.110
55875SOL    HW269465   5.073  13.191   3.182
55876SOL     OW69466  11.319   5.154   9.516
55876SOL    HW169467  11.398   5.175   9.567
55876SOL    HW269468  11.345   5.169   9.425
55877SOL     OW69469   1.407   4.510   1.193
55877SOL    HW169470   1.335   4.558   1.151
55877SOL    HW269471   1.445   4.573   1.254
55878SOL     OW69472   4.030   8.068   2.703
55878SOL    HW169473   4.064   7.982   2.678
55878SOL    HW269474   4.087   8.130   2.658
55879SOL     OW69475   4.275   3.593   8.175
55879SOL    HW169476   4.218   3.629   8.106
55879SOL    HW269477   4.241   3.505   8.190
55880SOL     OW69478  11.134  12.291   1.565
55880SOL    HW169479  11.192  12.274   1.492
55880SOL    HW269480  11.109  12.383   1.556
55881SOL     OW69481  11.896   3.835   0.990
55881SOL    HW169482  11.804   3.833   0.964
55881SOL    HW269483  11.938   3.891   0.924
55882SOL     OW69484   0.018  11.374   7.248
55882SOL    HW169485   0.080  11.438   7.284
55882SOL    HW269486  14.812  11.404   7.277
55883SOL     OW69487  11.144   1.866  12.939
55883SOL    HW169488  11.178   1.800  12.879
55883SOL    HW269489  11.062   1.829  12.971
55884SOL     OW69490  14.283  11.001  14.777
55884SOL    HW169491  14.228  10.923  14.772
55884SOL    HW269492  14.253  11.046  14.856
55885SOL     OW69493   1.056   6.880   7.337
55885SOL    HW169494   1.043   6.965   7.295
55885SOL    HW269495   1.145   6.854   7.313
55886SOL     OW69496  14.056  11.617   7.567
55886SOL    HW169497  14.085  11.707   7.583
55886SOL    HW269498  14.067  11.572   7.651
55887SOL     OW69499   4.694  14.166   5.450
55887SOL    HW169500   4.609  14.209   5.437
55887SOL    HW269501   4.740  14.223   5.511
55888SOL     OW69502   4.659  12.711  13.447
55888SOL    HW169503   4.675  12.787  13.391
55888SOL    HW269504   4.669  12.745  13.536
55889SOL     OW69505   9.634   7.082  12.458
55889SOL    HW169506   9.639   7.177  12.461
55889SOL    HW269507   9.592   7.062  12.374
55890SOL     OW69508  11.397   5.672   8.421
55890SOL    HW169509  11.352   5.633   8.496
55890SOL    HW269510  11.382   5.611   8.349
55891SOL     OW69511  13.260   6.624   9.618
55891SOL    HW169512  13.320   6.676   9.672
55891SOL    HW269513  13.308   6.609   9.536
55892SOL     OW69514  11.665  13.087   8.263
55892SOL    HW169515  11.634  13.069   8.175
55892SOL    HW269516  11.673  13.001   8.304
55893SOL     OW69517   4.002  14.197   0.668
55893SOL    HW169518   4.063  14.225   0.736
55893SOL    HW269519   3.915  14.221   0.702
55894SOL     OW69520  13.986   7.128   2.224
55894SOL    HW169521  13.963   7.044   2.185
55894SOL    HW269522  13.903   7.175   2.230
55895SOL     OW69523  14.799   8.873  12.623
55895SOL    HW169524  14.835   8.795  12.666
55895SOL    HW269525  14.859   8.892  12.552
55896SOL     OW69526   6.474   5.248  12.272
55896SOL    HW169527   6.389   5.277  12.307
55896SOL    HW269528   6.537   5.311  12.306
55897SOL     OW69529   2.321  10.782   2.131
55897SOL    HW169530   2.339  10.786   2.036
55897SOL    HW269531   2.229  10.808   2.139
55898SOL     OW69532   8.113  12.750   4.867
55898SOL    HW169533   8.130  12.843   4.886
55898SOL    HW269534   8.160  12.734   4.785
55899SOL     OW69535  11.818  11.650   1.945
55899SOL    HW169536  11.838  11.568   1.990
55899SOL    HW269537  11.723  11.650   1.936
55900SOL     OW69538  14.237   7.381   2.399
55900SOL    HW169539  14.308   7.387   2.336
55900SOL    HW269540  14.208   7.290   2.394
55901SOL     OW69541   8.024  11.783  10.146
55901SOL    HW169542   7.961  11.853  10.129
55901SOL    HW269543   8.070  11.810  10.225
55902SOL     OW69544   3.174   0.409   4.345
55902SOL    HW169545   3.180   0.476   4.277
55902SOL    HW269546   3.236   0.341   4.316
55903SOL     OW69547  12.027   7.527   5.677
55903SOL    HW169548  12.049   7.589   5.608
55903SOL    HW269549  12.078   7.449   5.657
55904SOL     OW69550   7.591   5.143  10.625
55904SOL    HW169551   7.534   5.217  10.609
55904SOL    HW269552   7.662   5.178  10.679
55905SOL     OW69553  11.371   3.673  10.231
55905SOL    HW169554  11.447   3.655  10.286
55905SOL    HW269555  11.376   3.768  10.214
55906SOL     OW69556   7.873   7.896  10.221
55906SOL    HW169557   7.799   7.894  10.282
55906SOL    HW269558   7.847   7.836  10.151
55907SOL     OW69559  11.068   7.204  11.177
55907SOL    HW169560  11.002   7.190  11.245
55907SOL    HW269561  11.036   7.155  11.102
55908SOL     OW69562   0.652   0.949   7.548
55908SOL    HW169563   0.702   0.869   7.562
55908SOL    HW269564   0.718   1.018   7.543
55909SOL     OW69565   2.925  14.075  11.826
55909SOL    HW169566   2.953  14.020  11.899
55909SOL    HW269567   3.003  14.125  11.803
55910SOL     OW69568  12.993  10.159  11.542
55910SOL    HW169569  13.080  10.119  11.537
55910SOL    HW269570  12.932  10.087  11.525
55911SOL     OW69571   4.056   0.907  14.764
55911SOL    HW169572   4.083   0.901  14.672
55911SOL    HW269573   3.964   0.934  14.761
55912SOL     OW69574  14.611  12.075  12.705
55912SOL    HW169575  14.558  12.127  12.646
55912SOL    HW269576  14.575  12.092  12.792
55913SOL     OW69577   3.175   5.237   7.654
55913SOL    HW169578   3.149   5.185   7.730
55913SOL    HW269579   3.263   5.206   7.633
55914SOL     OW69580   9.112   3.557   7.204
55914SOL    HW169581   9.170   3.540   7.130
55914SOL    HW269582   9.064   3.636   7.180
55915SOL     OW69583  13.379   3.085  11.369
55915SOL    HW169584  13.324   3.022  11.323
55915SOL    HW269585  13.366   3.167  11.321
55916SOL     OW69586  11.716  13.276   8.549
55916SOL    HW169587  11.673  13.361   8.539
55916SOL    HW269588  11.765  13.264   8.468
55917SOL     OW69589   6.746   3.942   5.017
55917SOL    HW169590   6.781   3.861   5.056
55917SOL    HW269591   6.748   4.006   5.088
55918SOL     OW69592   2.473   2.443   0.058
55918SOL    HW169593   2.512   2.363   0.094
55918SOL    HW269594   2.546   2.489   0.016
55919SOL     OW69595  12.091   2.637  12.023
55919SOL    HW169596  12.054   2.628  11.935
55919SOL    HW269597  12.106   2.731  12.032
55920SOL     OW69598  12.851   3.277  10.201
55920SOL    HW169599  12.865   3.371  10.209
55920SOL    HW269600  12.862   3.244  10.291
55921SOL     OW69601  14.554  14.077   5.699
55921SOL    HW169602  14.579  14.019   5.626
55921SOL    HW269603  14.470  14.044   5.728
55922SOL     OW69604   0.483   7.731   9.486
55922SOL    HW169605   0.515   7.643   9.505
55922SOL    HW269606   0.559   7.776   9.448
55923SOL     OW69607  13.464  12.150   6.505
55923SOL    HW169608  13.425  12.188   6.584
55923SOL    HW269609  13.544  12.106   6.537
55924SOL     OW69610  10.258  14.383   8.914
55924SOL    HW169611  10.331  14.321   8.911
55924SOL    HW269612  10.260  14.426   8.829
55925SOL     OW69613   0.916   5.097  10.433
55925SOL    HW169614   0.951   5.096  10.523
55925SOL    HW269615   0.929   5.007  10.402
55926SOL     OW69616  13.583   0.563   6.047
55926SOL    HW169617  13.670   0.526   6.030
55926SOL    HW269618  13.540   0.499   6.104
55927SOL     OW69619   7.978   7.196  12.542
55927SOL    HW169620   7.891   7.223  12.512
55927SOL    HW269621   8.028   7.182  12.461
55928SOL     OW69622   9.325   8.244   9.424
55928SOL    HW169623   9.352   8.190   9.499
55928SOL    HW269624   9.230   8.250   9.432
55929SOL     OW69625   1.368   5.511  14.627
55929SOL    HW169626   1.388   5.580  14.564
55929SOL    HW269627   1.273   5.502  14.625
55930SOL     OW69628   6.619  11.363   8.884
55930SOL    HW169629   6.644  11.271   8.870
55930SOL    HW269630   6.558  11.360   8.958
55931SOL     OW69631  10.202  10.838   6.241
55931SOL    HW169632  10.278  10.874   6.286
55931SOL    HW269633  10.233  10.820   6.152
55932SOL     OW69634   7.063   9.013   2.197
55932SOL    HW169635   7.153   9.027   2.227
55932SOL    HW269636   7.066   8.930   2.149
55933SOL     OW69637   7.809   8.819   9.148
55933SOL    HW169638   7.743   8.877   9.188
55933SOL    HW269639   7.767   8.788   9.068
55934SOL     OW69640   7.939  12.250   3.115
55934SOL    HW169641   7.899  12.238   3.201
55934SOL    HW269642   7.950  12.162   3.081
55935SOL     OW69643   2.378   0.158   5.864
55935SOL    HW169644   2.301   0.117   5.903
55935SOL    HW269645   2.363   0.151   5.770
55936SOL     OW69646   7.882  14.338   9.712
55936SOL    HW169647   7.810  14.282   9.741
55936SOL    HW269648   7.960  14.284   9.723
55937SOL     OW69649  14.580  12.314   8.002
55937SOL    HW169650  14.521  12.355   7.938
55937SOL    HW269651  14.632  12.387   8.037
55938SOL     OW69652   1.502  11.415   1.480
55938SOL    HW169653   1.495  11.498   1.527
55938SOL    HW269654   1.519  11.350   1.548
55939SOL     OW69655   0.545  13.835  11.135
55939SOL    HW169656   0.460  13.833  11.090
55939SOL    HW269657   0.591  13.758  11.101
55940SOL     OW69658  13.783   8.587   4.373
55940SOL    HW169659  13.699   8.541   4.376
55940SOL    HW269660  13.797   8.617   4.462
55941SOL     OW69661   5.630   3.191   1.450
55941SOL    HW169662   5.641   3.141   1.531
55941SOL    HW269663   5.536   3.211   1.448
55942SOL     OW69664   1.676  14.473   0.350
55942SOL    HW169665   1.755  14.527   0.358
55942SOL    HW269666   1.699  14.390   0.390
55943SOL     OW69667  13.682  14.319   2.402
55943SOL    HW169668  13.652  14.235   2.365
55943SOL    HW269669  13.647  14.385   2.343
55944SOL     OW69670   6.905   4.182   2.815
55944SOL    HW169671   6.984   4.139   2.782
55944SOL    HW269672   6.900   4.264   2.765
55945SOL     OW69673   8.183   6.304   0.824
55945SOL    HW169674   8.123   6.229   0.819
55945SOL    HW269675   8.238   6.286   0.900
55946SOL     OW69676   0.964  14.049  11.505
55946SOL    HW169677   0.878  14.050  11.548
55946SOL    HW269678   1.025  14.025  11.575
55947SOL     OW69679   8.125   8.804  12.983
55947SOL    HW169680   8.200   8.745  12.985
55947SOL    HW269681   8.139   8.857  12.904
55948SOL     OW69682   2.865   7.601  13.717
55948SOL    HW169683   2.840   7.678  13.769
55948SOL    HW269684   2.950   7.575  13.752
55949SOL     OW69685  12.203  14.690  12.516
55949SOL    HW169686  12.248  14.678  12.599
55949SOL    HW269687  12.144  14.614  12.510
55950SOL     OW69688   3.270   6.561  12.181
55950SOL    HW169689   3.215   6.524  12.250
55950SOL    HW269690   3.348   6.593  12.227
55951SOL     OW69691  11.572  10.253   2.294
55951SOL    HW169692  11.479  10.256   2.270
55951SOL    HW269693  11.586  10.164   2.325
55952SOL     OW69694  10.638   0.214   1.185
55952SOL    HW169695  10.589   0.283   1.140
55952SOL    HW269696  10.581   0.185   1.256
55953SOL     OW69697   8.023   0.189   0.608
55953SOL    HW169698   8.102   0.241   0.597
55953SOL    HW269699   8.019   0.171   0.702
55954SOL     OW69700  12.934  14.586   9.661
55954SOL    HW169701  12.919  14.494   9.637
55954SOL    HW269702  12.867  14.634   9.612
55955SOL     OW69703   9.546   5.548   5.015
55955SOL    HW169704   9.512   5.614   5.074
55955SOL    HW269705   9.475   5.533   4.952
55956SOL     OW69706   1.016   8.604   8.076
55956SOL    HW169707   0.983   8.515   8.075
55956SOL    HW269708   0.955   8.653   8.021
55957SOL     OW69709   8.055   3.505  12.958
55957SOL    HW169710   8.075   3.498  13.051
55957SOL    HW269711   8.140   3.513  12.915
55958SOL     OW69712   9.039   0.237  10.796
55958SOL    HW169713   9.029   0.157  10.848
55958SOL    HW269714   9.115   0.220  10.740
55959SOL     OW69715  10.416   2.107   4.171
55959SOL    HW169716  10.325   2.108   4.200
55959SOL    HW269717  10.459   2.176   4.223
55960SOL     OW69718   8.285  11.738   4.816
55960SOL    HW169719   8.378  11.759   4.807
55960SOL    HW269720   8.268  11.742   4.910
55961SOL     OW69721  12.801  12.948   1.042
55961SOL    HW169722  12.831  12.866   1.082
55961SOL    HW269723  12.873  13.009   1.059
55962SOL     OW69724   5.129   8.922   1.498
55962SOL    HW169725   5.114   8.846   1.442
55962SOL    HW269726   5.204   8.966   1.459
55963SOL     OW69727   2.066   9.789  14.470
55963SOL    HW169728   1.986   9.837  14.492
55963SOL    HW269729   2.038   9.699  14.457
55964SOL     OW69730   1.134   2.381  13.577
55964SOL    HW169731   1.190   2.323  13.629
55964SOL    HW269732   1.090   2.323  13.515
55965SOL     OW69733  11.917  14.802  10.124
55965SOL    HW169734  11.868  14.820  10.044
55965SOL    HW269735  11.987  14.868  10.124
55966SOL     OW69736   5.390   8.749   3.626
55966SOL    HW169737   5.409   8.655   3.630
55966SOL    HW269738   5.442   8.786   3.698
55967SOL     OW69739   8.460   0.396   3.924
55967SOL    HW169740   8.483   0.415   3.833
55967SOL    HW269741   8.410   0.315   3.919
55968SOL     OW69742   5.199  10.192  11.531
55968SOL    HW169743   5.148  10.148  11.463
55968SOL    HW269744   5.252  10.123  11.570
55969SOL     OW69745  14.820   9.818   6.710
55969SOL    HW169746  14.845   9.749   6.773
55969SOL    HW269747  14.801   9.771   6.629
55970SOL     OW69748   7.795   8.140   6.703
55970SOL    HW169749   7.705   8.128   6.733
55970SOL    HW269750   7.849   8.124   6.780
55971SOL     OW69751   5.727   8.526  10.637
55971SOL    HW169752   5.780   8.512  10.559
55971SOL    HW269753   5.786   8.509  10.710
55972SOL     OW69754  11.608   4.364  12.914
55972SOL    HW169755  11.592   4.277  12.949
55972SOL    HW269756  11.522   4.392  12.880
55973SOL     OW69757   3.678   6.414  12.067
55973SOL    HW169758   3.741   6.343  12.055
55973SOL    HW269759   3.663   6.416  12.162
55974SOL     OW69760   8.319   7.289  10.122
55974SOL    HW169761   8.278   7.375  10.108
55974SOL    HW269762   8.295   7.266  10.212
55975SOL     OW69763   2.808   9.573   9.709
55975SOL    HW169764   2.853   9.490   9.691
55975SOL    HW269765   2.878   9.639   9.704
55976SOL     OW69766  11.888   2.873  12.316
55976SOL    HW169767  11.847   2.802  12.366
55976SOL    HW269768  11.865   2.953  12.364
55977SOL     OW69769   8.446   9.769   7.721
55977SOL    HW169770   8.434   9.780   7.816
55977SOL    HW269771   8.536   9.797   7.705
55978SOL     OW69772   4.716  12.435  13.353
55978SOL    HW169773   4.773  12.488  13.409
55978SOL    HW269774   4.730  12.470  13.265
55979SOL     OW69775   1.713  11.833   7.537
55979SOL    HW169776   1.734  11.926   7.527
55979SOL    HW269777   1.631  11.832   7.586
55980SOL     OW69778   8.639   7.471   7.631
55980SOL    HW169779   8.582   7.541   7.598
55980SOL    HW269780   8.582   7.394   7.636
55981SOL     OW69781   7.441   5.614  11.351
55981SOL    HW169782   7.479   5.557  11.284
55981SOL    HW269783   7.507   5.682  11.364
55982SOL     OW69784  13.916  10.948  10.745
55982SOL    HW169785  13.871  11.005  10.683
55982SOL    HW269786  14.000  10.990  10.760
55983SOL     OW69787   1.326  11.288   7.361
55983SOL    HW169788   1.235  11.265   7.344
55983SOL    HW269789   1.365  11.208   7.396
55984SOL     OW69790   7.215   7.001   6.830
55984SOL    HW169791   7.253   6.992   6.918
55984SOL    HW269792   7.282   6.963   6.772
55985SOL     OW69793   7.387   7.080  11.594
55985SOL    HW169794   7.349   6.992  11.593
55985SOL    HW269795   7.382   7.106  11.686
55986SOL     OW69796  10.191   9.141   1.064
55986SOL    HW169797  10.221   9.204   0.998
55986SOL    HW269798  10.117   9.098   1.023
55987SOL     OW69799   9.225   9.249   7.682
55987SOL    HW169800   9.195   9.337   7.659
55987SOL    HW269801   9.149   9.193   7.663
55988SOL     OW69802   2.637   6.644   4.381
55988SOL    HW169803   2.658   6.554   4.407
55988SOL    HW269804   2.700   6.698   4.428
55989SOL     OW69805   8.865   6.810   7.624
55989SOL    HW169806   8.796   6.875   7.627
55989SOL    HW269807   8.863   6.767   7.709
55990SOL     OW69808   0.015   2.822   4.773
55990SOL    HW169809   0.090   2.810   4.714
55990SOL    HW269810   0.055   2.834   4.859
55991SOL     OW69811   3.878   1.594  11.247
55991SOL    HW169812   3.877   1.690  11.245
55991SOL    HW269813   3.823   1.571  11.321
55992SOL     OW69814   2.755   6.303  14.801
55992SOL    HW169815   2.691   6.278  14.735
55992SOL    HW269816   2.733   6.394  14.823
55993SOL     OW69817  10.348   0.590   5.686
55993SOL    HW169818  10.377   0.499   5.697
55993SOL    HW269819  10.429   0.641   5.681
55994SOL     OW69820   9.126   1.554   3.934
55994SOL    HW169821   9.198   1.612   3.959
55994SOL    HW269822   9.080   1.602   3.865
55995SOL     OW69823   5.961   7.562   6.223
55995SOL    HW169824   6.015   7.505   6.277
55995SOL    HW269825   5.912   7.616   6.285
55996SOL     OW69826  11.625   6.959   5.873
55996SOL    HW169827  11.532   6.981   5.868
55996SOL    HW269828  11.659   6.982   5.786
55997SOL     OW69829   1.813   1.457  14.714
55997SOL    HW169830   1.732   1.506  14.729
55997SOL    HW269831   1.783   1.370  14.689
55998SOL     OW69832  13.109   6.465   6.788
55998SOL    HW169833  13.020   6.445   6.760
55998SOL    HW269834  13.145   6.380   6.815
55999SOL     OW69835  11.620  10.323  12.769
55999SOL    HW169836  11.704  10.370  12.764
55999SOL    HW269837  11.631  10.263  12.843
56000SOL     OW69838  14.610   8.594  13.606
56000SOL    HW169839  14.686   8.538  13.620
56000SOL    HW269840  14.590   8.630  13.692
56001SOL     OW69841   5.685   4.901   7.287
56001SOL    HW169842   5.673   4.829   7.225
56001SOL    HW269843   5.625   4.969   7.256
56002SOL     OW69844   2.415   1.255  14.671
56002SOL    HW169845   2.448   1.207  14.595
56002SOL    HW269846   2.458   1.340  14.666
56003SOL     OW69847  12.595  12.018  11.778
56003SOL    HW169848  12.576  12.104  11.817
56003SOL    HW269849  12.528  11.961  11.814
56004SOL     OW69850   4.524  12.436   4.953
56004SOL    HW169851   4.537  12.375   5.025
56004SOL    HW269852   4.432  12.463   4.961
56005SOL     OW69853   7.248   6.106  11.171
56005SOL    HW169854   7.309   6.088  11.242
56005SOL    HW269855   7.245   6.025  11.121
56006SOL     OW69856   8.541   5.524   1.968
56006SOL    HW169857   8.508   5.502   2.055
56006SOL    HW269858   8.623   5.474   1.960
56007SOL     OW69859  13.848   0.520  10.859
56007SOL    HW169860  13.814   0.504  10.771
56007SOL    HW269861  13.920   0.581  10.845
56008SOL     OW69862   5.994  11.831   2.787
56008SOL    HW169863   6.061  11.863   2.848
56008SOL    HW269864   5.958  11.754   2.830
56009SOL     OW69865  10.278   7.742   2.213
56009SOL    HW169866  10.184   7.737   2.230
56009SOL    HW269867  10.298   7.662   2.164
56010SOL     OW69868  12.449  11.267  13.517
56010SOL    HW169869  12.431  11.329  13.587
56010SOL    HW269870  12.367  11.217  13.509
56011SOL     OW69871   5.300   1.072  11.929
56011SOL    HW169872   5.310   1.129  11.853
56011SOL    HW269873   5.272   0.988  11.892
56012SOL     OW69874  10.726   1.571   3.591
56012SOL    HW169875  10.814   1.570   3.627
56012SOL    HW269876  10.732   1.627   3.513
56013SOL     OW69877   3.718   5.064  10.268
56013SOL    HW169878   3.711   5.076  10.362
56013SOL    HW269879   3.693   4.973  10.253
56014SOL     OW69880  12.605   1.151   5.987
56014SOL    HW169881  12.540   1.121   6.050
56014SOL    HW269882  12.679   1.090   5.998
56015SOL     OW69883   2.679   9.755  10.844
56015SOL    HW169884   2.589   9.766  10.876
56015SOL    HW269885   2.725   9.831  10.878
56016SOL     OW69886   7.624  11.544  12.607
56016SOL    HW169887   7.645  11.633  12.637
56016SOL    HW269888   7.646  11.545  12.514
56017SOL     OW69889   4.773   8.904   3.971
56017SOL    HW169890   4.806   8.836   3.912
56017SOL    HW269891   4.842   8.914   4.036
56018SOL     OW69892   4.186  11.600   1.958
56018SOL    HW169893   4.091  11.591   1.951
56018SOL    HW269894   4.207  11.568   2.045
56019SOL     OW69895   3.825   6.534   0.829
56019SOL    HW169896   3.759   6.555   0.763
56019SOL    HW269897   3.829   6.438   0.829
56020SOL     OW69898   2.217  10.606   0.451
56020SOL    HW169899   2.201  10.559   0.369
56020SOL    HW269900   2.161  10.683   0.445
56021SOL     OW69901   4.831  12.533  11.416
56021SOL    HW169902   4.893  12.512  11.346
56021SOL    HW269903   4.786  12.612  11.386
56022SOL     OW69904   2.685  13.245   6.947
56022SOL    HW169905   2.671  13.168   7.002
56022SOL    HW269906   2.631  13.313   6.985
56023SOL     OW69907   3.470   8.062   5.787
56023SOL    HW169908   3.423   8.142   5.764
56023SOL    HW269909   3.458   8.004   5.711
56024SOL     OW69910   0.433   0.487   3.001
56024SOL    HW169911   0.510   0.538   2.976
56024SOL    HW269912   0.456   0.397   2.979
56025SOL     OW69913  12.085  14.659  11.701
56025SOL    HW169914  12.088  14.565  11.722
56025SOL    HW269915  11.992  14.677  11.689
56026SOL     OW69916  14.801   9.129   1.058
56026SOL    HW169917  14.822   9.218   1.031
56026SOL    HW269918   0.007   9.088   1.074
56027SOL     OW69919   8.345   0.884  13.362
56027SOL    HW169920   8.288   0.960  13.374
56027SOL    HW269921   8.433   0.918  13.378
56028SOL     OW69922   8.562   8.296  12.096
56028SOL    HW169923   8.653   8.270  12.109
56028SOL    HW269924   8.536   8.335  12.180
56029SOL     OW69925  11.478  10.806   9.832
56029SOL    HW169926  11.512  10.745   9.898
56029SOL    HW269927  11.387  10.821   9.859
56030SOL     OW69928  14.778   4.289   0.888
56030SOL    HW169929  14.778   4.376   0.849
56030SOL    HW269930  14.691   4.255   0.870
56031SOL     OW69931   2.021   7.976  12.577
56031SOL    HW169932   1.960   8.021  12.635
56031SOL    HW269933   2.033   8.037  12.503
56032SOL     OW69934   4.425   1.226   0.030
56032SOL    HW169935   4.475   1.306   0.047
56032SOL    HW269936   4.367   1.217   0.106
56033SOL     OW69937   3.022   6.894  14.467
56033SOL    HW169938   2.985   6.809  14.447
56033SOL    HW269939   3.116   6.878  14.477
56034SOL     OW69940   4.512  11.135   0.512
56034SOL    HW169941   4.575  11.064   0.527
56034SOL    HW269942   4.470  11.113   0.429
56035SOL     OW69943  14.705   2.579  10.162
56035SOL    HW169944  14.697   2.646  10.230
56035SOL    HW269945  14.791   2.539  10.177
56036SOL     OW69946  11.506   0.699  12.299
56036SOL    HW169947  11.463   0.749  12.368
56036SOL    HW269948  11.595   0.736  12.294
56037SOL     OW69949  14.733  11.954  14.056
56037SOL    HW169950  14.694  12.023  14.110
56037SOL    HW269951  14.686  11.958  13.973
56038SOL     OW69952  14.257   2.239  13.371
56038SOL    HW169953  14.257   2.332  13.394
56038SOL    HW269954  14.189   2.232  13.303
56039SOL     OW69955   6.567   3.140  11.731
56039SOL    HW169956   6.496   3.171  11.788
56039SOL    HW269957   6.560   3.195  11.653
56040SOL     OW69958   3.166  14.674   0.625
56040SOL    HW169959   3.101  14.617   0.666
56040SOL    HW269960   3.231  14.691   0.694
56041SOL     OW69961  13.806  13.407  13.625
56041SOL    HW169962  13.763  13.321  13.621
56041SOL    HW269963  13.803  13.430  13.718
56042SOL     OW69964   2.604   8.826  14.530
56042SOL    HW169965   2.635   8.756  14.587
56042SOL    HW269966   2.551   8.882  14.587
56043SOL     OW69967  13.275  11.960   1.985
56043SOL    HW169968  13.310  11.921   1.905
56043SOL    HW269969  13.351  11.967   2.043
56044SOL     OW69970  14.626  13.806   9.458
56044SOL    HW169971  14.701  13.865   9.459
56044SOL    HW269972  14.637  13.754   9.378
56045SOL     OW69973   9.698   2.465  10.216
56045SOL    HW169974   9.772   2.498  10.266
56045SOL    HW269975   9.686   2.528  10.145
56046SOL     OW69976  10.147   5.132  11.722
56046SOL    HW169977  10.140   5.105  11.630
56046SOL    HW269978  10.103   5.063  11.771
56047SOL     OW69979   2.738  12.001   0.405
56047SOL    HW169980   2.693  11.933   0.455
56047SOL    HW269981   2.813  11.957   0.366
56048SOL     OW69982   4.041  11.725   0.632
56048SOL    HW169983   4.136  11.717   0.625
56048SOL    HW269984   4.009  11.699   0.545
56049SOL     OW69985   5.579   5.116   7.140
56049SOL    HW169986   5.504   5.160   7.098
56049SOL    HW269987   5.652   5.177   7.128
56050SOL     OW69988  10.000   0.057  11.534
56050SOL    HW169989   9.937  14.866  11.551
56050SOL    HW269990  10.077   0.032  11.585
56051SOL     OW69991  11.408   3.068   6.615
56051SOL    HW169992  11.343   3.082   6.684
56051SOL    HW269993  11.474   3.136   6.630
56052SOL     OW69994  12.846   1.969   8.372
56052SOL    HW169995  12.781   1.903   8.350
56052SOL    HW269996  12.920   1.920   8.407
56053SOL     OW69997  10.640  14.802  13.033
56053SOL    HW169998  10.570  14.802  12.968
56053SOL    HW269999  10.717  14.771  12.986
56054SOL     OW70000   9.742   4.811   0.401
56054SOL    HW170001   9.827   4.772   0.424
56054SOL    HW270002   9.684   4.787   0.473
56055SOL     OW70003   9.578  14.779  10.276
56055SOL    HW170004   9.555  14.871  10.260
56055SOL    HW270005   9.673  14.779  10.281
56056SOL     OW70006   8.919   3.746   5.094
56056SOL    HW170007   8.997   3.741   5.150
56056SOL    HW270008   8.876   3.827   5.121
56057SOL     OW70009   1.213   6.356   0.634
56057SOL    HW170010   1.278   6.321   0.573
56057SOL    HW270011   1.154   6.282   0.651
56058SOL     OW70012  14.877  10.522   7.928
56058SOL    HW170013  14.863  10.428   7.938
56058SOL    HW270014  14.826  10.562   7.999
56059SOL     OW70015   6.208   3.917   7.089
56059SOL    HW170016   6.261   3.931   7.011
56059SOL    HW270017   6.117   3.924   7.059
56060SOL     OW70018   9.786   4.384   3.954
56060SOL    HW170019   9.820   4.302   3.918
56060SOL    HW270020   9.813   4.384   4.045
56061SOL     OW70021  11.139   7.671  10.872
56061SOL    HW170022  11.102   7.583  10.868
56061SOL    HW270023  11.083   7.723  10.814
56062SOL     OW70024   4.152   9.801  12.820
56062SOL    HW170025   4.089   9.776  12.887
56062SOL    HW270026   4.100   9.810  12.740
56063SOL     OW70027   0.149   3.946   5.192
56063SOL    HW170028   0.156   4.005   5.267
56063SOL    HW270029   0.139   4.004   5.117
56064SOL     OW70030   5.832  13.791   6.780
56064SOL    HW170031   5.809  13.761   6.692
56064SOL    HW270032   5.874  13.716   6.821
56065SOL     OW70033   6.240   5.647   8.507
56065SOL    HW170034   6.187   5.657   8.587
56065SOL    HW270035   6.186   5.594   8.449
56066SOL     OW70036   4.197   7.485   8.268
56066SOL    HW170037   4.125   7.545   8.288
56066SOL    HW270038   4.276   7.540   8.274
56067SOL     OW70039  14.477   1.586   8.053
56067SOL    HW170040  14.382   1.589   8.065
56067SOL    HW270041  14.504   1.502   8.091
56068SOL     OW70042   7.622  12.395  11.226
56068SOL    HW170043   7.711  12.366  11.244
56068SOL    HW270044   7.591  12.337  11.156
56069SOL     OW70045   5.835  13.961   0.743
56069SOL    HW170046   5.753  14.010   0.744
56069SOL    HW270047   5.816  13.882   0.693
56070SOL     OW70048  14.057   7.596  12.364
56070SOL    HW170049  14.096   7.682  12.381
56070SOL    HW270050  13.967   7.605  12.395
56071SOL     OW70051  13.688  12.833   1.641
56071SOL    HW170052  13.671  12.836   1.735
56071SOL    HW270053  13.658  12.747   1.614
56072SOL     OW70054  14.406   2.943   0.211
56072SOL    HW170055  14.379   2.958   0.121
56072SOL    HW270056  14.402   3.029   0.252
56073SOL     OW70057   0.258  14.180   4.557
56073SOL    HW170058   0.190  14.218   4.501
56073SOL    HW270059   0.340  14.203   4.513
56074SOL     OW70060  11.681   8.148   6.165
56074SOL    HW170061  11.589   8.125   6.158
56074SOL    HW270062  11.681   8.241   6.190
56075SOL     OW70063  13.802  14.653   9.252
56075SOL    HW170064  13.879  14.709   9.240
56075SOL    HW270065  13.728  14.709   9.231
56076SOL     OW70066   4.463   9.323   9.901
56076SOL    HW170067   4.543   9.332   9.849
56076SOL    HW270068   4.394   9.354   9.843
56077SOL     OW70069   8.956   6.625  14.334
56077SOL    HW170070   8.913   6.561  14.276
56077SOL    HW270071   8.966   6.703  14.279
56078SOL     OW70072   6.098   1.877   6.132
56078SOL    HW170073   6.009   1.886   6.099
56078SOL    HW270074   6.108   1.949   6.195
56079SOL     OW70075   4.891  12.730  10.113
56079SOL    HW170076   4.921  12.639  10.108
56079SOL    HW270077   4.797  12.724  10.131
56080SOL     OW70078   8.742   7.509   2.786
56080SOL    HW170079   8.684   7.583   2.807
56080SOL    HW270080   8.775   7.480   2.871
56081SOL     OW70081   9.375  12.416   1.899
56081SOL    HW170082   9.460  12.373   1.908
56081SOL    HW270083   9.327  12.389   1.978
56082SOL     OW70084   3.898  12.571   9.644
56082SOL    HW170085   3.828  12.635   9.630
56082SOL    HW270086   3.887  12.507   9.573
56083SOL     OW70087  14.454   7.990  14.501
56083SOL    HW170088  14.452   7.909  14.553
56083SOL    HW270089  14.496   8.054  14.559
56084SOL     OW70090   6.827   0.446  13.508
56084SOL    HW170091   6.785   0.505  13.445
56084SOL    HW270092   6.864   0.504  13.575
56085SOL     OW70093   4.297   8.545   8.519
56085SOL    HW170094   4.277   8.526   8.427
56085SOL    HW270095   4.280   8.638   8.528
56086SOL     OW70096   8.525  11.441  11.207
56086SOL    HW170097   8.521  11.376  11.278
56086SOL    HW270098   8.560  11.392  11.132
56087SOL     OW70099  10.322   7.195   4.682
56087SOL    HW170100  10.399   7.140   4.699
56087SOL    HW270101  10.287   7.216   4.768
56088SOL     OW70102   9.142   0.907   9.685
56088SOL    HW170103   9.114   0.842   9.749
56088SOL    HW270104   9.174   0.980   9.737
56089SOL     OW70105   8.809   4.716  13.430
56089SOL    HW170106   8.828   4.810  13.424
56089SOL    HW270107   8.840   4.680  13.347
56090SOL     OW70108   9.936   9.974   0.298
56090SOL    HW170109  10.021  10.019   0.301
56090SOL    HW270110   9.883  10.027   0.239
56091SOL     OW70111   2.827   8.318   9.586
56091SOL    HW170112   2.841   8.230   9.552
56091SOL    HW270113   2.901   8.369   9.553
56092SOL     OW70114   8.170  12.787   9.033
56092SOL    HW170115   8.118  12.793   9.113
56092SOL    HW270116   8.106  12.762   8.966
56093SOL     OW70117  12.840   1.228   8.108
56093SOL    HW170118  12.780   1.247   8.035
56093SOL    HW270119  12.853   1.134   8.104
56094SOL     OW70120  10.696   9.567  10.609
56094SOL    HW170121  10.737   9.489  10.573
56094SOL    HW270122  10.653   9.609  10.534
56095SOL     OW70123  12.054  11.438  11.314
56095SOL    HW170124  11.998  11.371  11.353
56095SOL    HW270125  12.001  11.475  11.243
56096SOL     OW70126  11.978  13.708   3.611
56096SOL    HW170127  11.936  13.791   3.632
56096SOL    HW270128  12.065  13.733   3.580
56097SOL     OW70129   3.350   3.960   6.922
56097SOL    HW170130   3.289   3.960   6.848
56097SOL    HW270131   3.433   3.929   6.886
56098SOL     OW70132   0.002   3.268   7.779
56098SOL    HW170133   0.069   3.271   7.710
56098SOL    HW270134  14.804   3.309   7.739
56099SOL     OW70135   7.058  12.745  13.000
56099SOL    HW170136   7.029  12.791  12.921
56099SOL    HW270137   7.131  12.797  13.033
56100SOL     OW70138  14.492   8.473  10.460
56100SOL    HW170139  14.451   8.440  10.380
56100SOL    HW270140  14.506   8.566  10.442
56101SOL     OW70141   5.946  11.575   0.106
56101SOL    HW170142   5.977  11.521   0.033
56101SOL    HW270143   5.885  11.518   0.154
56102SOL     OW70144   9.453   0.060  12.761
56102SOL    HW170145   9.530   0.002  12.756
56102SOL    HW270146   9.405   0.044  12.680
56103SOL     OW70147   8.233   7.561  10.117
56103SOL    HW170148   8.140   7.579  10.110
56103SOL    HW270149   8.275   7.646  10.106
56104SOL     OW70150   5.987  12.561   9.661
56104SOL    HW170151   6.030  12.610   9.592
56104SOL    HW270152   5.897  12.550   9.630
56105SOL     OW70153  10.853   3.446   5.403
56105SOL    HW170154  10.769   3.469   5.442
56105SOL    HW270155  10.891   3.529   5.375
56106SOL     OW70156   6.143  11.727  13.322
56106SOL    HW170157   6.148  11.639  13.287
56106SOL    HW270158   6.229  11.741  13.362
56107SOL     OW70159   9.248   8.858   3.554
56107SOL    HW170160   9.183   8.811   3.502
56107SOL    HW270161   9.321   8.796   3.562
56108SOL     OW70162   6.415   3.090   4.209
56108SOL    HW170163   6.472   3.139   4.151
56108SOL    HW270164   6.410   3.143   4.289
56109SOL     OW70165   7.129   0.320   6.815
56109SOL    HW170166   7.168   0.300   6.730
56109SOL    HW270167   7.087   0.405   6.803
56110SOL     OW70168  11.239   4.327  12.215
56110SOL    HW170169  11.243   4.233  12.235
56110SOL    HW270170  11.185   4.364  12.286
56111SOL     OW70171   1.567   4.970   6.834
56111SOL    HW170172   1.531   4.967   6.746
56111SOL    HW270173   1.505   4.920   6.888
56112SOL     OW70174   1.760   6.541   4.003
56112SOL    HW170175   1.798   6.573   4.085
56112SOL    HW270176   1.699   6.609   3.976
56113SOL     OW70177   3.085   4.187   5.292
56113SOL    HW170178   3.029   4.213   5.366
56113SOL    HW270179   3.119   4.101   5.317
56114SOL     OW70180   4.405   1.189   6.442
56114SOL    HW170181   4.325   1.147   6.471
56114SOL    HW270182   4.403   1.181   6.347
56115SOL     OW70183   4.512   6.082   8.104
56115SOL    HW170184   4.435   6.027   8.091
56115SOL    HW270185   4.495   6.128   8.186
56116SOL     OW70186   7.350   6.986  10.108
56116SOL    HW170187   7.422   6.994  10.171
56116SOL    HW270188   7.377   7.039  10.033
56117SOL     OW70189   2.409   4.073   1.816
56117SOL    HW170190   2.416   4.118   1.731
56117SOL    HW270191   2.500   4.053   1.839
56118SOL     OW70192   4.430   2.250   6.238
56118SOL    HW170193   4.383   2.242   6.322
56118SOL    HW270194   4.415   2.341   6.211
56119SOL     OW70195   6.831   7.910   0.361
56119SOL    HW170196   6.761   7.889   0.300
56119SOL    HW270197   6.786   7.949   0.436
56120SOL     OW70198   1.476  14.579   9.439
56120SOL    HW170199   1.485  14.649   9.374
56120SOL    HW270200   1.526  14.610   9.514
56121SOL     OW70201   2.987  12.133  14.270
56121SOL    HW170202   3.033  12.174  14.196
56121SOL    HW270203   2.953  12.051  14.234
56122SOL     OW70204   7.608   1.484   8.696
56122SOL    HW170205   7.670   1.435   8.642
56122SOL    HW270206   7.627   1.576   8.676
56123SOL     OW70207   8.060  13.332   9.492
56123SOL    HW170208   8.133  13.296   9.541
56123SOL    HW270209   8.091  13.417   9.462
56124SOL     OW70210   5.729  12.965   5.772
56124SOL    HW170211   5.659  12.947   5.709
56124SOL    HW270212   5.683  13.004   5.847
56125SOL     OW70213   3.836   0.568   4.175
56125SOL    HW170214   3.830   0.659   4.205
56125SOL    HW270215   3.768   0.522   4.224
56126SOL     OW70216  12.762   8.342   2.418
56126SOL    HW170217  12.790   8.415   2.363
56126SOL    HW270218  12.687   8.376   2.467
56127SOL     OW70219  13.201  11.104  10.529
56127SOL    HW170220  13.217  11.197  10.512
56127SOL    HW270221  13.159  11.103  10.615
56128SOL     OW70222  14.476  10.483   0.965
56128SOL    HW170223  14.472  10.507   0.872
56128SOL    HW270224  14.429  10.400   0.969
56129SOL     OW70225   9.172  12.891   5.259
56129SOL    HW170226   9.077  12.894   5.248
56129SOL    HW270227   9.190  12.802   5.290
56130SOL     OW70228  14.544   6.741   1.493
56130SOL    HW170229  14.570   6.807   1.557
56130SOL    HW270230  14.579   6.659   1.527
56131SOL     OW70231   7.407   5.101  13.366
56131SOL    HW170232   7.416   5.025  13.309
56131SOL    HW270233   7.381   5.172  13.307
56132SOL     OW70234   9.168   4.491   5.256
56132SOL    HW170235   9.259   4.463   5.243
56132SOL    HW270236   9.116   4.424   5.212
56133SOL     OW70237  10.495  10.248   5.183
56133SOL    HW170238  10.442  10.327   5.193
56133SOL    HW270239  10.528  10.252   5.093
56134SOL     OW70240  11.467   3.837  13.077
56134SOL    HW170241  11.396   3.898  13.056
56134SOL    HW270242  11.542   3.868  13.026
56135SOL     OW70243  14.034   0.761   5.819
56135SOL    HW170244  14.109   0.786   5.765
56135SOL    HW270245  13.972   0.723   5.757
56136SOL     OW70246   1.775   2.971   4.514
56136SOL    HW170247   1.752   2.955   4.422
56136SOL    HW270248   1.733   3.055   4.534
56137SOL     OW70249  12.972   3.984  14.421
56137SOL    HW170250  12.891   3.986  14.473
56137SOL    HW270251  12.973   3.897  14.382
56138SOL     OW70252   8.326   8.715  10.243
56138SOL    HW170253   8.414   8.684  10.262
56138SOL    HW270254   8.309   8.685  10.153
56139SOL     OW70255   4.862  10.274   0.865
56139SOL    HW170256   4.856  10.180   0.877
56139SOL    HW270257   4.878  10.285   0.771
56140SOL     OW70258   7.841   2.368   8.987
56140SOL    HW170259   7.785   2.305   9.032
56140SOL    HW270260   7.904   2.314   8.939
56141SOL     OW70261   9.945  10.064   4.764
56141SOL    HW170262   9.864  10.042   4.717
56141SOL    HW270263   9.916  10.119   4.837
56142SOL     OW70264   9.495  14.096  14.686
56142SOL    HW170265   9.505  14.190  14.704
56142SOL    HW270266   9.438  14.064  14.755
56143SOL     OW70267  13.600  13.761   9.944
56143SOL    HW170268  13.554  13.686   9.909
56143SOL    HW270269  13.674  13.724   9.993
56144SOL     OW70270   7.637  14.679   1.864
56144SOL    HW170271   7.723  14.656   1.829
56144SOL    HW270272   7.623  14.617   1.936
56145SOL     OW70273   2.504  11.555   8.824
56145SOL    HW170274   2.556  11.504   8.886
56145SOL    HW270275   2.500  11.643   8.862
56146SOL     OW70276   7.130   8.080  10.007
56146SOL    HW170277   7.056   8.065  10.067
56146SOL    HW270278   7.103   8.155   9.954
56147SOL     OW70279   7.611   8.993   0.359
56147SOL    HW170280   7.522   8.976   0.390
56147SOL    HW270281   7.631   9.081   0.390
56148SOL     OW70282   5.185  13.763   5.849
56148SOL    HW170283   5.221  13.849   5.870
56148SOL    HW270284   5.095  13.766   5.881
56149SOL     OW70285   6.197   4.337  13.910
56149SOL    HW170286   6.275   4.385  13.879
56149SOL    HW270287   6.215   4.319  14.002
56150SOL     OW70288   9.607  12.683   8.137
56150SOL    HW170289   9.570  12.692   8.225
56150SOL    HW270290   9.694  12.722   8.143
56151SOL     OW70291  11.991  10.848   3.102
56151SOL    HW170292  12.025  10.800   3.177
56151SOL    HW270293  11.898  10.860   3.122
56152SOL     OW70294   0.492  14.849  12.003
56152SOL    HW170295   0.459   0.022  12.076
56152SOL    HW270296   0.566  14.801  12.040
56153SOL     OW70297  11.719  12.449   4.355
56153SOL    HW170298  11.805  12.452   4.313
56153SOL    HW270299  11.703  12.539   4.384
56154SOL     OW70300   7.154  11.205  10.134
56154SOL    HW170301   7.145  11.240  10.223
56154SOL    HW270302   7.245  11.221  10.111
56155SOL     OW70303  12.873   9.900  13.951
56155SOL    HW170304  12.853   9.885  13.859
56155SOL    HW270305  12.968   9.890  13.957
56156SOL     OW70306   0.638  14.042   1.801
56156SOL    HW170307   0.716  14.091   1.775
56156SOL    HW270308   0.566  14.088   1.758
56157SOL     OW70309  14.620   9.402  12.258
56157SOL    HW170310  14.653   9.483  12.295
56157SOL    HW270311  14.581   9.428  12.175
56158SOL     OW70312   9.614  13.348   4.124
56158SOL    HW170313   9.612  13.273   4.065
56158SOL    HW270314   9.705  13.353   4.154
56159SOL     OW70315  10.999   5.376  13.060
56159SOL    HW170316  11.015   5.282  13.059
56159SOL    HW270317  11.024   5.405  12.972
56160SOL     OW70318   4.265  10.012   4.919
56160SOL    HW170319   4.234   9.975   4.837
56160SOL    HW270320   4.278   9.937   4.976
56161SOL     OW70321  14.092  11.897   1.869
56161SOL    HW170322  14.167  11.916   1.813
56161SOL    HW270323  14.024  11.959   1.841
56162SOL     OW70324  11.656  11.386  14.243
56162SOL    HW170325  11.614  11.454  14.190
56162SOL    HW270326  11.717  11.434  14.299
56163SOL     OW70327   7.548  10.102  10.620
56163SOL    HW170328   7.494  10.102  10.698
56163SOL    HW270329   7.589  10.015  10.619
56164SOL     OW70330   0.259   4.107  13.115
56164SOL    HW170331   0.290   4.048  13.184
56164SOL    HW270332   0.220   4.180  13.162
56165SOL     OW70333   7.848  13.397  14.101
56165SOL    HW170334   7.816  13.370  14.014
56165SOL    HW270335   7.870  13.490  14.091
56166SOL     OW70336  14.339   5.049  12.332
56166SOL    HW170337  14.264   4.993  12.352
56166SOL    HW270338  14.328   5.072  12.240
56167SOL     OW70339   3.215  11.888   2.934
56167SOL    HW170340   3.176  11.919   3.016
56167SOL    HW270341   3.255  11.965   2.895
56168SOL     OW70342   1.730  12.016   4.498
56168SOL    HW170343   1.664  11.960   4.459
56168SOL    HW270344   1.779  12.051   4.423
56169SOL     OW70345   2.025  12.177   2.641
56169SOL    HW170346   2.088  12.178   2.714
56169SOL    HW270347   2.071  12.133   2.570
56170SOL     OW70348  14.190  10.913   3.104
56170SOL    HW170349  14.143  10.997   3.101
56170SOL    HW270350  14.272  10.930   3.058
56171SOL     OW70351   1.556   9.817  14.763
56171SOL    HW170352   1.608   9.841  14.840
56171SOL    HW270353   1.537   9.901  14.720
56172SOL     OW70354   0.315   3.458   3.420
56172SOL    HW170355   0.349   3.477   3.332
56172SOL    HW270356   0.352   3.373   3.442
56173SOL     OW70357   2.476  11.211   7.370
56173SOL    HW170358   2.558  11.245   7.334
56173SOL    HW270359   2.445  11.150   7.304
56174SOL     OW70360  11.652   8.773  11.340
56174SOL    HW170361  11.585   8.834  11.310
56174SOL    HW270362  11.726   8.787  11.281
56175SOL     OW70363   7.077   6.957   0.272
56175SOL    HW170364   6.999   6.906   0.291
56175SOL    HW270365   7.143   6.924   0.334
56176SOL     OW70366   2.000  14.845   5.994
56176SOL    HW170367   2.088  14.809   5.994
56176SOL    HW270368   1.959  14.809   6.073
56177SOL     OW70369   3.504   5.718   7.941
56177SOL    HW170370   3.480   5.740   7.851
56177SOL    HW270371   3.424   5.680   7.979
56178SOL     OW70372   3.086  11.979   7.702
56178SOL    HW170373   3.017  12.040   7.677
56178SOL    HW270374   3.043  11.893   7.702
56179SOL     OW70375   3.885  13.312   8.331
56179SOL    HW170376   3.864  13.394   8.376
56179SOL    HW270377   3.800  13.272   8.313
56180SOL     OW70378   7.566   8.707   3.735
56180SOL    HW170379   7.588   8.650   3.808
56180SOL    HW270380   7.576   8.652   3.657
56181SOL     OW70381   4.099   0.559   9.051
56181SOL    HW170382   4.018   0.604   9.023
56181SOL    HW270383   4.085   0.541   9.144
56182SOL     OW70384  13.343  10.979   6.855
56182SOL    HW170385  13.316  10.910   6.795
56182SOL    HW270386  13.309  10.951   6.941
56183SOL     OW70387  14.153  11.412   5.275
56183SOL    HW170388  14.110  11.381   5.195
56183SOL    HW270389  14.102  11.489   5.302
56184SOL     OW70390   9.251  11.602   5.124
56184SOL    HW170391   9.302  11.553   5.060
56184SOL    HW270392   9.160  11.596   5.093
56185SOL     OW70393  10.570   7.467   6.836
56185SOL    HW170394  10.632   7.407   6.878
56185SOL    HW270395  10.607   7.554   6.850
56186SOL     OW70396   2.051   3.178  12.267
56186SOL    HW170397   2.089   3.266  12.264
56186SOL    HW270398   1.964   3.189  12.230
56187SOL     OW70399   2.247  13.605   6.670
56187SOL    HW170400   2.179  13.667   6.694
56187SOL    HW270401   2.210  13.519   6.691
56188SOL     OW70402   1.385   3.553   4.831
56188SOL    HW170403   1.415   3.490   4.897
56188SOL    HW270404   1.301   3.585   4.866
56189SOL     OW70405   5.662  11.721   0.208
56189SOL    HW170406   5.644  11.805   0.165
56189SOL    HW270407   5.611  11.657   0.159
56190SOL     OW70408  13.169   1.343   9.504
56190SOL    HW170409  13.237   1.306   9.449
56190SOL    HW270410  13.157   1.432   9.471
56191SOL     OW70411  11.566  10.040   5.188
56191SOL    HW170412  11.505   9.969   5.209
56191SOL    HW270413  11.521  10.119   5.216
56192SOL     OW70414   9.083  11.701   6.972
56192SOL    HW170415   9.155  11.637   6.963
56192SOL    HW270416   9.034  11.693   6.891
56193SOL     OW70417   7.071   5.745   8.450
56193SOL    HW170418   7.008   5.738   8.522
56193SOL    HW270419   7.067   5.661   8.405
56194SOL     OW70420   8.518   5.178   4.571
56194SOL    HW170421   8.545   5.090   4.546
56194SOL    HW270422   8.451   5.165   4.638
56195SOL     OW70423   5.952   1.114   6.511
56195SOL    HW170424   5.899   1.039   6.535
56195SOL    HW270425   6.007   1.131   6.588
56196SOL     OW70426  12.621  13.884  12.867
56196SOL    HW170427  12.681  13.958  12.854
56196SOL    HW270428  12.678  13.809  12.880
56197SOL     OW70429   1.198  14.185   5.226
56197SOL    HW170430   1.280  14.172   5.273
56197SOL    HW270431   1.209  14.137   5.144
56198SOL     OW70432  10.715  12.151   5.164
56198SOL    HW170433  10.673  12.189   5.241
56198SOL    HW270434  10.770  12.222   5.130
56199SOL     OW70435  11.777  13.472   0.013
56199SOL    HW170436  11.730  13.540   0.062
56199SOL    HW270437  11.864  13.510  14.877
56200SOL     OW70438  13.500   5.858   1.374
56200SOL    HW170439  13.592   5.846   1.351
56200SOL    HW270440  13.459   5.890   1.294
56201SOL     OW70441   1.708   8.881   5.156
56201SOL    HW170442   1.790   8.892   5.108
56201SOL    HW270443   1.694   8.786   5.159
56202SOL     OW70444   6.289  12.382  12.491
56202SOL    HW170445   6.202  12.379  12.530
56202SOL    HW270446   6.347  12.406  12.563
56203SOL     OW70447   3.486  10.433   0.567
56203SOL    HW170448   3.403  10.437   0.521
56203SOL    HW270449   3.547  10.393   0.504
56204SOL     OW70450   7.599  11.018   1.308
56204SOL    HW170451   7.591  10.924   1.292
56204SOL    HW270452   7.692  11.031   1.327
56205SOL     OW70453   2.462   3.101   0.097
56205SOL    HW170454   2.442   3.105   0.191
56205SOL    HW270455   2.547   3.058   0.092
56206SOL     OW70456  11.385  10.129   1.527
56206SOL    HW170457  11.338  10.151   1.447
56206SOL    HW270458  11.318  10.093   1.585
56207SOL     OW70459   0.873  11.082   8.298
56207SOL    HW170460   0.925  11.043   8.229
56207SOL    HW270461   0.875  11.176   8.282
56208SOL     OW70462   3.478   8.007  10.515
56208SOL    HW170463   3.540   8.080  10.516
56208SOL    HW270464   3.518   7.943  10.456
56209SOL     OW70465   8.779   4.334  13.885
56209SOL    HW170466   8.814   4.249  13.913
56209SOL    HW270467   8.836   4.361  13.814
56210SOL     OW70468   3.043   7.312   1.746
56210SOL    HW170469   3.024   7.285   1.836
56210SOL    HW270470   2.958   7.310   1.702
56211SOL     OW70471   1.640  13.297   9.168
56211SOL    HW170472   1.628  13.332   9.257
56211SOL    HW270473   1.728  13.260   9.168
56212SOL     OW70474  11.957   6.171  14.516
56212SOL    HW170475  11.996   6.259  14.516
56212SOL    HW270476  11.970   6.140  14.605
56213SOL     OW70477  11.824   2.516   2.248
56213SOL    HW170478  11.882   2.441   2.238
56213SOL    HW270479  11.793   2.512   2.338
56214SOL     OW70480   3.681  10.399   6.854
56214SOL    HW170481   3.599  10.369   6.893
56214SOL    HW270482   3.749  10.346   6.897
56215SOL     OW70483   2.491   4.129   3.778
56215SOL    HW170484   2.455   4.094   3.696
56215SOL    HW270485   2.483   4.224   3.769
56216SOL     OW70486  14.209  13.492  14.209
56216SOL    HW170487  14.245  13.494  14.121
56216SOL    HW270488  14.114  13.495  14.197
56217SOL     OW70489  11.768   8.400  12.547
56217SOL    HW170490  11.714   8.338  12.596
56217SOL    HW270491  11.771   8.478  12.602
56218SOL     OW70492   3.880   1.496   9.399
56218SOL    HW170493   3.843   1.511   9.486
56218SOL    HW270494   3.847   1.410   9.373
56219SOL     OW70495   4.514   8.378   2.247
56219SOL    HW170496   4.428   8.383   2.288
56219SOL    HW270497   4.517   8.291   2.207
56220SOL     OW70498   6.919  14.123   6.798
56220SOL    HW170499   6.889  14.202   6.843
56220SOL    HW270500   6.970  14.075   6.863
56221SOL     OW70501   0.230  11.067   6.203
56221SOL    HW170502   0.288  11.037   6.273
56221SOL    HW270503   0.222  11.161   6.218
56222SOL     OW70504   7.503  12.824   9.887
56222SOL    HW170505   7.494  12.915   9.861
56222SOL    HW270506   7.490  12.825   9.982
56223SOL     OW70507   0.539   8.602   1.304
56223SOL    HW170508   0.595   8.525   1.295
56223SOL    HW270509   0.592   8.664   1.353
56224SOL     OW70510   4.412   3.854  11.768
56224SOL    HW170511   4.399   3.946  11.747
56224SOL    HW270512   4.324   3.820  11.785
56225SOL     OW70513  12.573   0.121   3.793
56225SOL    HW170514  12.562   0.047   3.853
56225SOL    HW270515  12.666   0.121   3.771
56226SOL     OW70516  12.280  10.509  14.650
56226SOL    HW170517  12.365  10.467  14.647
56226SOL    HW270518  12.297  10.601  14.629
56227SOL     OW70519  11.060   0.367   6.315
56227SOL    HW170520  11.104   0.317   6.246
56227SOL    HW270521  11.098   0.455   6.308
56228SOL     OW70522  12.582  10.247   1.669
56228SOL    HW170523  12.499  10.246   1.622
56228SOL    HW270524  12.648  10.257   1.601
56229SOL     OW70525  13.775   1.873  13.443
56229SOL    HW170526  13.751   1.966  13.450
56229SOL    HW270527  13.724   1.830  13.511
56230SOL     OW70528   9.155   7.681   9.047
56230SOL    HW170529   9.154   7.686   9.143
56230SOL    HW270530   9.206   7.758   9.020
56231SOL     OW70531   7.175   3.951   8.531
56231SOL    HW170532   7.186   3.985   8.620
56231SOL    HW270533   7.198   3.859   8.537
56232SOL     OW70534   4.580   1.796   1.528
56232SOL    HW170535   4.585   1.890   1.512
56232SOL    HW270536   4.486   1.777   1.533
56233SOL     OW70537   0.820  10.351  14.877
56233SOL    HW170538   0.757  10.279   0.002
56233SOL    HW270539   0.772  10.422  14.833
56234SOL     OW70540  14.009  14.716  13.474
56234SOL    HW170541  13.976  14.791  13.524
56234SOL    HW270542  13.985  14.734  13.384
56235SOL     OW70543  11.708   8.100   3.690
56235SOL    HW170544  11.741   8.010   3.687
56235SOL    HW270545  11.755   8.146   3.620
56236SOL     OW70546   7.062   2.423  10.919
56236SOL    HW170547   7.110   2.368  10.858
56236SOL    HW270548   6.999   2.365  10.961
56237SOL     OW70549  13.972   7.263   8.616
56237SOL    HW170550  13.921   7.298   8.542
56237SOL    HW270551  13.953   7.323   8.688
56238SOL     OW70552   2.893   6.105  14.191
56238SOL    HW170553   2.860   6.027  14.147
56238SOL    HW270554   2.884   6.085  14.285
56239SOL     OW70555  11.111   5.296   9.746
56239SOL    HW170556  11.187   5.308   9.803
56239SOL    HW270557  11.131   5.215   9.698
56240SOL     OW70558   1.926   1.546   3.047
56240SOL    HW170559   1.883   1.460   3.042
56240SOL    HW270560   1.866   1.599   3.100
56241SOL     OW70561   2.681   1.902   8.364
56241SOL    HW170562   2.634   1.893   8.280
56241SOL    HW270563   2.620   1.950   8.420
56242SOL     OW70564  11.198   1.298   4.639
56242SOL    HW170565  11.147   1.251   4.573
56242SOL    HW270566  11.269   1.339   4.589
56243SOL     OW70567   8.680  11.871   6.865
56243SOL    HW170568   8.588  11.882   6.841
56243SOL    HW270569   8.678  11.840   6.955
56244SOL     OW70570   1.674  12.516  12.106
56244SOL    HW170571   1.601  12.455  12.096
56244SOL    HW270572   1.721  12.485  12.184
56245SOL     OW70573  14.711   6.413   2.799
56245SOL    HW170574  14.674   6.413   2.711
56245SOL    HW270575  14.800   6.446   2.787
56246SOL     OW70576   2.437   3.503  10.091
56246SOL    HW170577   2.430   3.478  10.183
56246SOL    HW270578   2.390   3.434  10.044
56247SOL     OW70579   0.612   1.936  10.845
56247SOL    HW170580   0.598   1.843  10.863
56247SOL    HW270581   0.656   1.938  10.760
56248SOL     OW70582   2.717   3.734   3.300
56248SOL    HW170583   2.754   3.794   3.236
56248SOL    HW270584   2.745   3.769   3.385
56249SOL     OW70585   3.665   9.011   8.039
56249SOL    HW170586   3.748   9.056   8.031
56249SOL    HW270587   3.629   9.041   8.122
56250SOL     OW70588   7.168   0.854   5.491
56250SOL    HW170589   7.091   0.875   5.439
56250SOL    HW270590   7.196   0.768   5.459
56251SOL     OW70591  12.954   5.256   3.572
56251SOL    HW170592  13.022   5.294   3.627
56251SOL    HW270593  12.912   5.190   3.627
56252SOL     OW70594   8.722   3.262  13.404
56252SOL    HW170595   8.799   3.286  13.456
56252SOL    HW270596   8.754   3.258  13.314
56253SOL     OW70597   8.142   0.450   9.275
56253SOL    HW170598   8.170   0.524   9.221
56253SOL    HW270599   8.218   0.392   9.278
56254SOL     OW70600  14.437  13.835   9.649
56254SOL    HW170601  14.514  13.808   9.599
56254SOL    HW270602  14.388  13.754   9.662
56255SOL     OW70603  14.131   8.527   7.632
56255SOL    HW170604  14.098   8.512   7.721
56255SOL    HW270605  14.061   8.576   7.589
56256SOL     OW70606   9.701   5.925   3.379
56256SOL    HW170607   9.699   5.931   3.474
56256SOL    HW270608   9.663   6.008   3.349
56257SOL     OW70609   8.424  10.397   1.262
56257SOL    HW170610   8.355  10.447   1.305
56257SOL    HW270611   8.453  10.334   1.328
56258SOL     OW70612   8.941  11.721   5.224
56258SOL    HW170613   8.996  11.794   5.195
56258SOL    HW270614   8.924  11.671   5.144
56259SOL     OW70615  10.765   0.160  13.094
56259SOL    HW170616  10.717   0.079  13.079
56259SOL    HW270617  10.728   0.195  13.175
56260SOL     OW70618   5.346  13.978   5.938
56260SOL    HW170619   5.411  13.962   5.869
56260SOL    HW270620   5.326  14.071   5.931
56261SOL     OW70621   5.138   2.043   7.287
56261SOL    HW170622   5.224   2.071   7.317
56261SOL    HW270623   5.091   2.125   7.271
56262SOL     OW70624   1.449   3.354   2.895
56262SOL    HW170625   1.535   3.347   2.935
56262SOL    HW270626   1.388   3.322   2.961
56263SOL     OW70627  11.984  13.528   1.315
56263SOL    HW170628  12.069  13.555   1.349
56263SOL    HW270629  11.964  13.446   1.362
56264SOL     OW70630   4.824   4.958   7.689
56264SOL    HW170631   4.865   5.044   7.676
56264SOL    HW270632   4.730   4.976   7.688
56265SOL     OW70633  14.590   1.433  14.683
56265SOL    HW170634  14.575   1.416  14.590
56265SOL    HW270635  14.575   1.527  14.692
56266SOL     OW70636  10.447   5.339  13.838
56266SOL    HW170637  10.430   5.311  13.928
56266SOL    HW270638  10.367   5.319  13.791
56267SOL     OW70639   1.420  12.061  11.957
56267SOL    HW170640   1.393  12.052  12.049
56267SOL    HW270641   1.500  12.009  11.951
56268SOL     OW70642  11.709   7.811   8.246
56268SOL    HW170643  11.774   7.789   8.180
56268SOL    HW270644  11.760   7.837   8.323
56269SOL     OW70645   9.106   3.429   0.192
56269SOL    HW170646   9.073   3.343   0.166
56269SOL    HW270647   9.073   3.489   0.124
56270SOL     OW70648  11.542  11.634   1.973
56270SOL    HW170649  11.547  11.661   2.065
56270SOL    HW270650  11.460  11.671   1.941
56271SOL     OW70651  13.911   3.644   1.848
56271SOL    HW170652  13.922   3.550   1.840
56271SOL    HW270653  13.943   3.665   1.936
56272SOL     OW70654   5.312   3.853   5.262
56272SOL    HW170655   5.389   3.899   5.296
56272SOL    HW270656   5.263   3.828   5.340
56273SOL     OW70657   0.208   2.195  11.878
56273SOL    HW170658   0.275   2.263  11.872
56273SOL    HW270659   0.203   2.175  11.971
56274SOL     OW70660  13.903  12.271   7.377
56274SOL    HW170661  13.989  12.230   7.380
56274SOL    HW270662  13.920  12.360   7.346
56275SOL     OW70663   4.150   2.744   3.688
56275SOL    HW170664   4.121   2.654   3.708
56275SOL    HW270665   4.084   2.800   3.729
56276SOL     OW70666  12.796  13.964  11.462
56276SOL    HW170667  12.865  13.981  11.527
56276SOL    HW270668  12.842  13.925  11.388
56277SOL     OW70669   1.258   8.633   0.815
56277SOL    HW170670   1.232   8.642   0.907
56277SOL    HW270671   1.269   8.723   0.785
56278SOL     OW70672  10.710   9.478  14.736
56278SOL    HW170673  10.633   9.425  14.712
56278SOL    HW270674  10.767   9.417  14.784
56279SOL     OW70675   9.456   3.385  10.355
56279SOL    HW170676   9.460   3.362  10.448
56279SOL    HW270677   9.495   3.310  10.310
56280SOL     OW70678  11.287   2.348  14.163
56280SOL    HW170679  11.309   2.377  14.252
56280SOL    HW270680  11.191   2.354  14.159
56281SOL     OW70681   0.800   6.736   2.961
56281SOL    HW170682   0.781   6.658   3.013
56281SOL    HW270683   0.801   6.705   2.871
56282SOL     OW70684   4.421   5.815   0.957
56282SOL    HW170685   4.338   5.860   0.940
56282SOL    HW270686   4.396   5.738   1.008
56283SOL     OW70687   5.779   3.815   4.767
56283SOL    HW170688   5.778   3.884   4.834
56283SOL    HW270689   5.800   3.735   4.815
56284SOL     OW70690   3.641   0.633  11.788
56284SOL    HW170691   3.558   0.587  11.801
56284SOL    HW270692   3.618   0.726  11.795
56285SOL     OW70693   2.334   2.103   7.207
56285SOL    HW170694   2.383   2.083   7.127
56285SOL    HW270695   2.258   2.152   7.176
56286SOL     OW70696   7.601  11.609   6.191
56286SOL    HW170697   7.640  11.691   6.161
56286SOL    HW270698   7.510  11.613   6.160
56287SOL     OW70699   6.648  10.731  11.283
56287SOL    HW170700   6.562  10.765  11.308
56287SOL    HW270701   6.694  10.807  11.247
56288SOL     OW70702   8.882   2.438   3.427
56288SOL    HW170703   8.934   2.396   3.495
56288SOL    HW270704   8.792   2.412   3.446
56289SOL     OW70705   5.368  11.120   1.887
56289SOL    HW170706   5.435  11.093   1.825
56289SOL    HW270707   5.382  11.066   1.964
56290SOL     OW70708   3.242  10.532   1.515
56290SOL    HW170709   3.183  10.464   1.547
56290SOL    HW270710   3.221  10.608   1.569
56291SOL     OW70711  11.739   2.985   8.792
56291SOL    HW170712  11.800   2.912   8.781
56291SOL    HW270713  11.660   2.945   8.827
56292SOL     OW70714  12.815   6.535  14.053
56292SOL    HW170715  12.726   6.521  14.085
56292SOL    HW270716  12.808   6.526  13.958
56293SOL     OW70717   4.883   3.654   3.451
56293SOL    HW170718   4.883   3.560   3.469
56293SOL    HW270719   4.819   3.691   3.511
56294SOL     OW70720   5.916  14.528  13.829
56294SOL    HW170721   5.987  14.527  13.765
56294SOL    HW270722   5.960  14.539  13.913
56295SOL     OW70723   3.171  10.259  12.679
56295SOL    HW170724   3.092  10.210  12.701
56295SOL    HW270725   3.186  10.315  12.755
56296SOL     OW70726  14.128   6.652  13.207
56296SOL    HW170727  14.161   6.561  13.204
56296SOL    HW270728  14.111   6.668  13.299
56297SOL     OW70729   6.045   4.067   1.729
56297SOL    HW170730   6.035   4.088   1.636
56297SOL    HW270731   6.104   4.134   1.762
56298SOL     OW70732   7.111   0.284   2.006
56298SOL    HW170733   7.074   0.230   2.076
56298SOL    HW270734   7.190   0.236   1.979
56299SOL     OW70735  10.156   5.344   4.996
56299SOL    HW170736  10.111   5.263   4.972
56299SOL    HW270737  10.096   5.414   4.970
56300SOL     OW70738  11.320  10.272   5.172
56300SOL    HW170739  11.257  10.328   5.216
56300SOL    HW270740  11.284  10.261   5.083
56301SOL     OW70741   2.004   0.920  11.287
56301SOL    HW170742   2.029   0.869  11.363
56301SOL    HW270743   1.960   0.858  11.229
56302SOL     OW70744   7.840   5.131   9.213
56302SOL    HW170745   7.780   5.205   9.208
56302SOL    HW270746   7.835   5.101   9.304
56303SOL     OW70747   8.992  14.589   8.172
56303SOL    HW170748   8.948  14.672   8.192
56303SOL    HW270749   9.043  14.570   8.250
56304SOL     OW70750   5.392   8.707   6.021
56304SOL    HW170751   5.481   8.673   6.032
56304SOL    HW270752   5.405   8.796   5.988
56305SOL     OW70753   5.376  10.913   5.055
56305SOL    HW170754   5.338  10.913   4.967
56305SOL    HW270755   5.468  10.889   5.042
56306SOL     OW70756   3.005  13.938   8.909
56306SOL    HW170757   3.062  13.862   8.897
56306SOL    HW270758   2.920  13.900   8.930
56307SOL     OW70759   1.380   4.938   9.617
56307SOL    HW170760   1.398   5.029   9.592
56307SOL    HW270761   1.295   4.942   9.662
56308SOL     OW70762   1.820   0.779   7.826
56308SOL    HW170763   1.776   0.724   7.762
56308SOL    HW270764   1.753   0.840   7.856
56309SOL     OW70765   6.727   5.670   3.508
56309SOL    HW170766   6.677   5.688   3.428
56309SOL    HW270767   6.669   5.615   3.560
56310SOL     OW70768  10.660   0.117   1.782
56310SOL    HW170769  10.713   0.045   1.749
56310SOL    HW270770  10.717   0.163   1.844
56311SOL     OW70771   7.424  10.117   2.266
56311SOL    HW170772   7.482  10.048   2.298
56311SOL    HW270773   7.452  10.132   2.176
56312SOL     OW70774   8.480   9.478   0.892
56312SOL    HW170775   8.445   9.447   0.975
56312SOL    HW270776   8.403   9.490   0.836
56313SOL     OW70777   9.517   6.362   8.747
56313SOL    HW170778   9.563   6.428   8.799
56313SOL    HW270779   9.566   6.281   8.762
56314SOL     OW70780   1.555  10.299   1.274
56314SOL    HW170781   1.589  10.214   1.301
56314SOL    HW270782   1.594  10.314   1.188
56315SOL     OW70783   8.659   5.503   2.511
56315SOL    HW170784   8.591   5.452   2.554
56315SOL    HW270785   8.642   5.593   2.537
56316SOL     OW70786  10.458   8.834   2.306
56316SOL    HW170787  10.464   8.824   2.401
56316SOL    HW270788  10.427   8.923   2.293
56317SOL     OW70789   0.716   6.537   4.862
56317SOL    HW170790   0.796   6.568   4.903
56317SOL    HW270791   0.651   6.605   4.880
56318SOL     OW70792  10.960   3.903  10.975
56318SOL    HW170793  10.912   3.826  11.002
56318SOL    HW270794  10.893   3.965  10.945
56319SOL     OW70795   0.020  11.873  13.599
56319SOL    HW170796  14.851  11.827  13.531
56319SOL    HW270797   0.112  11.852  13.581
56320SOL     OW70798   4.730   7.806   4.947
56320SOL    HW170799   4.661   7.772   5.004
56320SOL    HW270800   4.693   7.886   4.910
56321SOL     OW70801   7.224   3.695   8.532
56321SOL    HW170802   7.195   3.687   8.442
56321SOL    HW270803   7.244   3.605   8.559
56322SOL     OW70804   1.789   5.349   7.949
56322SOL    HW170805   1.845   5.298   7.891
56322SOL    HW270806   1.821   5.330   8.037
56323SOL     OW70807   0.832  13.181   9.553
56323SOL    HW170808   0.780  13.169   9.633
56323SOL    HW270809   0.797  13.262   9.515
56324SOL     OW70810  11.718   2.668  11.350
56324SOL    HW170811  11.744   2.618  11.273
56324SOL    HW270812  11.632   2.704  11.327
56325SOL     OW70813   0.579   2.392  10.958
56325SOL    HW170814   0.581   2.296  10.958
56325SOL    HW270815   0.642   2.417  11.026
56326SOL     OW70816   9.491   0.756   9.351
56326SOL    HW170817   9.540   0.770   9.432
56326SOL    HW270818   9.404   0.793   9.369
56327SOL     OW70819   1.725   5.587   4.339
56327SOL    HW170820   1.650   5.591   4.280
56327SOL    HW270821   1.690   5.553   4.421
56328SOL     OW70822  12.021  12.304   2.396
56328SOL    HW170823  11.965  12.292   2.319
56328SOL    HW270824  11.961  12.294   2.471
56329SOL     OW70825   1.300  14.391   9.879
56329SOL    HW170826   1.215  14.433   9.891
56329SOL    HW270827   1.287  14.329   9.807
56330SOL     OW70828   8.063   8.963   0.348
56330SOL    HW170829   8.040   8.908   0.423
56330SOL    HW270830   8.068   9.051   0.384
56331SOL     OW70831  14.407   2.041  10.306
56331SOL    HW170832  14.323   2.083  10.323
56331SOL    HW270833  14.404   2.018  10.213
56332SOL     OW70834   4.148  10.597   1.304
56332SOL    HW170835   4.214  10.546   1.351
56332SOL    HW270836   4.180  10.602   1.215
56333SOL     OW70837   9.572  14.852  12.334
56333SOL    HW170838   9.640  14.786  12.352
56333SOL    HW270839   9.620   0.055  12.324
56334SOL     OW70840   0.657  13.824  12.461
56334SOL    HW170841   0.675  13.814  12.368
56334SOL    HW270842   0.708  13.900  12.488
56335SOL     OW70843   7.467   1.844   4.149
56335SOL    HW170844   7.558   1.858   4.173
56335SOL    HW270845   7.419   1.913   4.196
56336SOL     OW70846   6.675   6.627  12.473
56336SOL    HW170847   6.621   6.601  12.399
56336SOL    HW270848   6.640   6.712  12.499
56337SOL     OW70849   3.489  14.085   7.967
56337SOL    HW170850   3.549  14.145   8.011
56337SOL    HW270851   3.427  14.059   8.035
56338SOL     OW70852   4.746  13.499  13.183
56338SOL    HW170853   4.813  13.513  13.117
56338SOL    HW270854   4.755  13.573  13.243
56339SOL     OW70855  10.493   4.659  11.401
56339SOL    HW170856  10.439   4.619  11.469
56339SOL    HW270857  10.574   4.607  11.402
56340SOL     OW70858  12.769  12.971  10.341
56340SOL    HW170859  12.777  12.901  10.406
56340SOL    HW270860  12.753  12.926  10.258
56341SOL     OW70861   4.369  13.641   7.039
56341SOL    HW170862   4.344  13.634   7.131
56341SOL    HW270863   4.339  13.560   6.999
56342SOL     OW70864   6.513   2.455   3.641
56342SOL    HW170865   6.519   2.545   3.671
56342SOL    HW270866   6.461   2.410   3.708
56343SOL     OW70867  10.099   5.554   9.070
56343SOL    HW170868  10.100   5.567   9.165
56343SOL    HW270869  10.007   5.540   9.049
56344SOL     OW70870   2.115   1.860   9.256
56344SOL    HW170871   2.197   1.811   9.256
56344SOL    HW270872   2.096   1.876   9.349
56345SOL     OW70873  11.310  14.797  11.878
56345SOL    HW170874  11.397  14.760  11.862
56345SOL    HW270875  11.273  14.808  11.790
56346SOL     OW70876  14.454  14.228  12.916
56346SOL    HW170877  14.396  14.301  12.893
56346SOL    HW270878  14.403  14.150  12.895
56347SOL     OW70879  13.916   4.835   0.321
56347SOL    HW170880  13.925   4.929   0.335
56347SOL    HW270881  13.937   4.821   0.229
56348SOL     OW70882   7.851  14.743   6.027
56348SOL    HW170883   7.911  14.775   5.959
56348SOL    HW270884   7.891  14.771   6.109
56349SOL     OW70885   9.631   0.521   0.780
56349SOL    HW170886   9.555   0.576   0.796
56349SOL    HW270887   9.628   0.504   0.685
56350SOL     OW70888   3.411   3.550  12.850
56350SOL    HW170889   3.360   3.581  12.775
56350SOL    HW270890   3.358   3.480  12.888
56351SOL     OW70891   2.168   9.206  10.338
56351SOL    HW170892   2.225   9.142  10.378
56351SOL    HW270893   2.084   9.161  10.328
56352SOL     OW70894   2.950   8.657   4.437
56352SOL    HW170895   2.897   8.625   4.364
56352SOL    HW270896   3.037   8.670   4.400
56353SOL     OW70897  11.081   8.423   2.611
56353SOL    HW170898  11.083   8.328   2.608
56353SOL    HW270899  11.173   8.450   2.607
56354SOL     OW70900   9.342   2.836  13.970
56354SOL    HW170901   9.376   2.796  14.050
56354SOL    HW270902   9.261   2.789  13.952
56355SOL     OW70903  13.908   4.221  13.022
56355SOL    HW170904  13.829   4.270  13.042
56355SOL    HW270905  13.892   4.133  13.057
56356SOL     OW70906   6.297  13.787   8.621
56356SOL    HW170907   6.287  13.759   8.530
56356SOL    HW270908   6.264  13.876   8.623
56357SOL     OW70909  14.824   8.652   4.404
56357SOL    HW170910  14.818   8.717   4.334
56357SOL    HW270911  14.878   8.694   4.471
56358SOL     OW70912   9.307   8.818   4.649
56358SOL    HW170913   9.212   8.809   4.650
56358SOL    HW270914   9.328   8.845   4.560
56359SOL     OW70915   4.914   5.798  12.567
56359SOL    HW170916   4.862   5.721  12.592
56359SOL    HW270917   4.909   5.799  12.471
56360SOL     OW70918  10.976  11.902   3.554
56360SOL    HW170919  11.017  11.836   3.499
56360SOL    HW270920  11.018  11.984   3.529
56361SOL     OW70921   9.511   1.850   2.093
56361SOL    HW170922   9.582   1.835   2.156
56361SOL    HW270923   9.498   1.945   2.095
56362SOL     OW70924   0.749  12.538   4.937
56362SOL    HW170925   0.834  12.555   4.896
56362SOL    HW270926   0.746  12.599   5.011
56363SOL     OW70927   9.557   9.770  14.402
56363SOL    HW170928   9.578   9.697  14.460
56363SOL    HW270929   9.476   9.806  14.437
56364SOL     OW70930  13.794  10.084   0.362
56364SOL    HW170931  13.851  10.113   0.433
56364SOL    HW270932  13.714  10.055   0.406
56365SOL     OW70933   9.407   3.848   1.926
56365SOL    HW170934   9.468   3.887   1.989
56365SOL    HW270935   9.332   3.822   1.979
56366SOL     OW70936   2.507   8.077   5.776
56366SOL    HW170937   2.558   8.086   5.855
56366SOL    HW270938   2.438   8.143   5.784
56367SOL     OW70939   4.246  14.518   8.392
56367SOL    HW170940   4.336  14.505   8.361
56367SOL    HW270941   4.238  14.612   8.404
56368SOL     OW70942  11.111   5.828  10.763
56368SOL    HW170943  11.029   5.813  10.717
56368SOL    HW270944  11.102   5.916  10.799
56369SOL     OW70945   6.770  12.436   5.306
56369SOL    HW170946   6.732  12.381   5.375
56369SOL    HW270947   6.714  12.513   5.303
56370SOL     OW70948   5.044   8.498  11.438
56370SOL    HW170949   4.950   8.513  11.450
56370SOL    HW270950   5.050   8.450  11.356
56371SOL     OW70951   9.444   5.236   3.564
56371SOL    HW170952   9.420   5.150   3.529
56371SOL    HW270953   9.362   5.271   3.599
56372SOL     OW70954   3.622   1.443  14.014
56372SOL    HW170955   3.683   1.394  13.958
56372SOL    HW270956   3.671   1.456  14.095
56373SOL     OW70957   5.336   6.850   1.313
56373SOL    HW170958   5.427   6.863   1.340
56373SOL    HW270959   5.294   6.808   1.388
56374SOL     OW70960   9.365  10.760   1.513
56374SOL    HW170961   9.317  10.746   1.431
56374SOL    HW270962   9.329  10.841   1.548
56375SOL     OW70963  14.658   9.274   5.538
56375SOL    HW170964  14.741   9.234   5.565
56375SOL    HW270965  14.608   9.283   5.619
56376SOL     OW70966   9.226   4.217  14.294
56376SOL    HW170967   9.297   4.275  14.319
56376SOL    HW270968   9.225   4.218  14.199
56377SOL     OW70969  13.118   7.058   7.488
56377SOL    HW170970  13.064   7.135   7.470
56377SOL    HW270971  13.171   7.047   7.409
56378SOL     OW70972   5.829  10.180   4.263
56378SOL    HW170973   5.734  10.175   4.266
56378SOL    HW270974   5.853  10.143   4.178
56379SOL     OW70975   4.234   3.145   1.323
56379SOL    HW170976   4.286   3.089   1.381
56379SOL    HW270977   4.292   3.218   1.302
56380SOL     OW70978   3.173   6.425   3.282
56380SOL    HW170979   3.187   6.332   3.260
56380SOL    HW270980   3.121   6.423   3.362
56381SOL     OW70981  14.130  11.771   4.900
56381SOL    HW170982  14.128  11.840   4.967
56381SOL    HW270983  14.072  11.703   4.934
56382SOL     OW70984   8.146  11.430   0.737
56382SOL    HW170985   8.217  11.377   0.701
56382SOL    HW270986   8.168  11.520   0.714
56383SOL     OW70987  12.205   1.994  13.238
56383SOL    HW170988  12.289   1.980  13.283
56383SOL    HW270989  12.146   1.929  13.276
56384SOL     OW70990  14.177   9.985   8.331
56384SOL    HW170991  14.090   9.947   8.343
56384SOL    HW270992  14.205   9.955   8.244
56385SOL     OW70993  10.501   6.643  11.508
56385SOL    HW170994  10.442   6.607  11.574
56385SOL    HW270995  10.446   6.659  11.431
56386SOL     OW70996   9.383   1.490  13.524
56386SOL    HW170997   9.454   1.461  13.467
56386SOL    HW270998   9.396   1.441  13.606
56387SOL     OW70999   0.621   3.008   7.993
56387SOL    HW171000   0.610   2.986   8.085
56387SOL    HW271001   0.592   3.098   7.985
56388SOL     OW71002   5.193  13.221  14.568
56388SOL    HW171003   5.191  13.142  14.514
56388SOL    HW271004   5.282  13.254  14.561
56389SOL     OW71005  11.940   9.350   5.901
56389SOL    HW171006  11.968   9.415   5.836
56389SOL    HW271007  11.860   9.388   5.939
56390SOL     OW71008  14.308   0.905  13.909
56390SOL    HW171009  14.240   0.965  13.939
56390SOL    HW271010  14.384   0.960  13.895
56391SOL     OW71011   3.982  10.816   6.709
56391SOL    HW171012   4.070  10.792   6.736
56391SOL    HW271013   3.980  10.802   6.614
56392SOL     OW71014   1.432   1.723   6.290
56392SOL    HW171015   1.414   1.629   6.299
56392SOL    HW271016   1.458   1.750   6.378
56393SOL     OW71017  11.151   5.893  12.729
56393SOL    HW171018  11.213   5.875  12.800
56393SOL    HW271019  11.077   5.936  12.772
56394SOL     OW71020   9.543  14.846   5.488
56394SOL    HW171021   9.558  14.860   5.395
56394SOL    HW271022   9.542  14.751   5.499
56395SOL     OW71023   4.515   7.014   3.874
56395SOL    HW171024   4.470   7.034   3.956
56395SOL    HW271025   4.456   7.044   3.806
56396SOL     OW71026   9.851   4.551   5.150
56396SOL    HW171027   9.806   4.477   5.108
56396SOL    HW271028   9.823   4.547   5.241
56397SOL     OW71029   5.849   6.176   8.280
56397SOL    HW171030   5.788   6.220   8.339
56397SOL    HW271031   5.910   6.245   8.255
56398SOL     OW71032   2.480   1.831   2.443
56398SOL    HW171033   2.481   1.742   2.408
56398SOL    HW271034   2.572   1.856   2.449
56399SOL     OW71035   6.644   9.600  14.293
56399SOL    HW171036   6.688   9.684  14.287
56399SOL    HW271037   6.620   9.591  14.385
56400SOL     OW71038   0.867  14.448  10.942
56400SOL    HW171039   0.892  14.358  10.922
56400SOL    HW271040   0.815  14.476  10.867
56401SOL     OW71041   6.041  13.110   3.987
56401SOL    HW171042   6.104  13.047   3.949
56401SOL    HW271043   5.959  13.090   3.943
56402SOL     OW71044   5.166  14.258   3.170
56402SOL    HW171045   5.241  14.314   3.190
56402SOL    HW271046   5.105  14.315   3.123
56403SOL     OW71047   7.936  13.186   2.397
56403SOL    HW171048   7.995  13.255   2.426
56403SOL    HW271049   7.967  13.162   2.310
56404SOL     OW71050   2.684  12.470   9.379
56404SOL    HW171051   2.752  12.420   9.423
56404SOL    HW271052   2.630  12.405   9.334
56405SOL     OW71053   2.378  13.533  13.088
56405SOL    HW171054   2.311  13.560  13.151
56405SOL    HW271055   2.428  13.613  13.071
56406SOL     OW71056  13.341   7.752   2.483
56406SOL    HW171057  13.346   7.680   2.546
56406SOL    HW271058  13.252   7.746   2.448
56407SOL     OW71059   3.775   1.249  10.860
56407SOL    HW171060   3.805   1.332  10.896
56407SOL    HW271061   3.745   1.199  10.936
56408SOL     OW71062   3.704   4.693   8.076
56408SOL    HW171063   3.638   4.662   8.014
56408SOL    HW271064   3.654   4.734   8.146
56409SOL     OW71065  11.742   6.525   8.851
56409SOL    HW171066  11.647   6.517   8.843
56409SOL    HW271067  11.776   6.472   8.779
56410SOL     OW71068   6.970   4.996  11.557
56410SOL    HW171069   7.024   4.984  11.636
56410SOL    HW271070   6.947   5.089  11.558
56411SOL     OW71071   4.874   6.334  13.392
56411SOL    HW171072   4.808   6.392  13.430
56411SOL    HW271073   4.859   6.339  13.298
56412SOL     OW71074  13.151   2.558   7.281
56412SOL    HW171075  13.231   2.593   7.243
56412SOL    HW271076  13.082   2.618   7.251
56413SOL     OW71077  13.960   4.479  11.507
56413SOL    HW171078  14.023   4.546  11.483
56413SOL    HW271079  13.877   4.526  11.517
56414SOL     OW71080  12.929   0.797   3.456
56414SOL    HW171081  12.939   0.783   3.550
56414SOL    HW271082  12.868   0.871   3.448
56415SOL     OW71083   7.508  13.206  13.312
56415SOL    HW171084   7.568  13.271  13.277
56415SOL    HW271085   7.557  13.124  13.308
56416SOL     OW71086   0.268   1.575  11.006
56416SOL    HW171087   0.212   1.555  11.081
56416SOL    HW271088   0.206   1.598  10.936
56417SOL     OW71089  11.606   0.591   6.373
56417SOL    HW171090  11.614   0.561   6.464
56417SOL    HW271091  11.537   0.656   6.375
56418SOL     OW71092  10.387   8.364   1.187
56418SOL    HW171093  10.352   8.298   1.127
56418SOL    HW271094  10.328   8.362   1.262
56419SOL     OW71095   8.764  13.015  12.556
56419SOL    HW171096   8.715  13.079  12.607
56419SOL    HW271097   8.766  13.051  12.468
56420SOL     OW71098   5.636   0.549  10.102
56420SOL    HW171099   5.576   0.568  10.030
56420SOL    HW271100   5.580   0.522  10.174
56421SOL     OW71101   8.727   4.381   4.772
56421SOL    HW171102   8.642   4.391   4.729
56421SOL    HW271103   8.707   4.341   4.856
56422SOL     OW71104   3.624   1.491   0.673
56422SOL    HW171105   3.587   1.415   0.718
56422SOL    HW271106   3.719   1.479   0.677
56423SOL     OW71107   7.248   3.471  12.771
56423SOL    HW171108   7.285   3.537  12.712
56423SOL    HW271109   7.324   3.433  12.815
56424SOL     OW71110  14.684  10.595   0.618
56424SOL    HW171111  14.631  10.527   0.661
56424SOL    HW271112  14.621  10.663   0.593
56425SOL     OW71113  10.456  11.427  11.787
56425SOL    HW171114  10.513  11.360  11.824
56425SOL    HW271115  10.506  11.465  11.715
56426SOL     OW71116  10.273   1.252   9.166
56426SOL    HW171117  10.327   1.259   9.244
56426SOL    HW271118  10.274   1.159   9.143
56427SOL     OW71119   5.687   3.302   2.886
56427SOL    HW171120   5.631   3.272   2.815
56427SOL    HW271121   5.761   3.241   2.887
56428SOL     OW71122  12.205   1.110   1.341
56428SOL    HW171123  12.275   1.158   1.385
56428SOL    HW271124  12.245   1.074   1.262
56429SOL     OW71125   2.564   2.954   1.206
56429SOL    HW171126   2.527   2.974   1.120
56429SOL    HW271127   2.611   3.033   1.231
56430SOL     OW71128   2.394   7.123   7.890
56430SOL    HW171129   2.336   7.196   7.911
56430SOL    HW271130   2.473   7.140   7.940
56431SOL     OW71131   6.038   3.252  11.944
56431SOL    HW171132   5.971   3.192  11.976
56431SOL    HW271133   6.011   3.337  11.980
56432SOL     OW71134  12.064   1.015   7.054
56432SOL    HW171135  12.132   1.050   7.112
56432SOL    HW271136  11.984   1.024   7.105
56433SOL     OW71137   9.458   1.175   4.680
56433SOL    HW171138   9.407   1.179   4.760
56433SOL    HW271139   9.412   1.232   4.618
56434SOL     OW71140  14.058  10.631   7.869
56434SOL    HW171141  14.127  10.605   7.807
56434SOL    HW271142  14.104  10.686   7.933
56435SOL     OW71143   3.736   0.889   2.424
56435SOL    HW171144   3.646   0.917   2.408
56435SOL    HW271145   3.729   0.795   2.442
56436SOL     OW71146   2.453   1.997   5.518
56436SOL    HW171147   2.450   1.902   5.526
56436SOL    HW271148   2.403   2.029   5.593
56437SOL     OW71149  12.424  11.167   3.597
56437SOL    HW171150  12.374  11.201   3.523
56437SOL    HW271151  12.375  11.091   3.627
56438SOL     OW71152   0.486   8.605   7.664
56438SOL    HW171153   0.451   8.646   7.743
56438SOL    HW271154   0.453   8.515   7.667
56439SOL     OW71155   7.816   5.484  14.345
56439SOL    HW171156   7.883   5.493  14.413
56439SOL    HW271157   7.861   5.441  14.273
56440SOL     OW71158  14.480  10.279   9.581
56440SOL    HW171159  14.565  10.311   9.550
56440SOL    HW271160  14.470  10.317   9.668
56441SOL     OW71161  12.932   5.767   9.739
56441SOL    HW171162  12.931   5.790   9.832
56441SOL    HW271163  12.904   5.847   9.694
56442SOL     OW71164   3.345   5.641  14.742
56442SOL    HW171165   3.353   5.669  14.651
56442SOL    HW271166   3.409   5.571  14.751
56443SOL     OW71167   5.491  12.720   8.828
56443SOL    HW171168   5.462  12.635   8.796
56443SOL    HW271169   5.582  12.707   8.853
56444SOL     OW71170   0.452   1.561   7.626
56444SOL    HW171171   0.413   1.527   7.545
56444SOL    HW271172   0.392   1.534   7.695
56445SOL     OW71173   1.698   6.790   2.075
56445SOL    HW171174   1.608   6.798   2.106
56445SOL    HW271175   1.733   6.715   2.125
56446SOL     OW71176  12.342   4.557  12.891
56446SOL    HW171177  12.319   4.531  12.980
56446SOL    HW271178  12.294   4.639  12.878
56447SOL     OW71179  13.666  12.161   4.026
56447SOL    HW171180  13.635  12.235   4.078
56447SOL    HW271181  13.599  12.149   3.959
56448SOL     OW71182   8.871  10.415   2.032
56448SOL    HW171183   8.785  10.397   1.993
56448SOL    HW271184   8.857  10.496   2.082
56449SOL     OW71185   2.009   0.670  12.312
56449SOL    HW171186   1.981   0.736  12.248
56449SOL    HW271187   1.998   0.587  12.266
56450SOL     OW71188  14.108   2.278  13.154
56450SOL    HW171189  14.086   2.346  13.091
56450SOL    HW271190  14.044   2.209  13.139
56451SOL     OW71191   1.875   2.142   3.637
56451SOL    HW171192   1.928   2.199   3.693
56451SOL    HW271193   1.788   2.182   3.638
56452SOL     OW71194   1.686   4.262   7.320
56452SOL    HW171195   1.631   4.316   7.264
56452SOL    HW271196   1.652   4.173   7.309
56453SOL     OW71197   0.909   0.605   1.341
56453SOL    HW171198   0.871   0.664   1.406
56453SOL    HW271199   0.918   0.658   1.262
56454SOL     OW71200   8.743   6.060   4.297
56454SOL    HW171201   8.805   6.103   4.356
56454SOL    HW271202   8.665   6.045   4.351
56455SOL     OW71203   2.248   5.700   9.901
56455SOL    HW171204   2.294   5.737   9.826
56455SOL    HW271205   2.304   5.627   9.930
56456SOL     OW71206   5.158  13.195   7.409
56456SOL    HW171207   5.120  13.276   7.375
56456SOL    HW271208   5.252  13.203   7.392
56457SOL     OW71209   8.461  12.657   2.217
56457SOL    HW171210   8.554  12.634   2.207
56457SOL    HW271211   8.439  12.704   2.137
56458SOL     OW71212   5.781  10.543  12.010
56458SOL    HW171213   5.689  10.537  11.985
56458SOL    HW271214   5.808  10.452  12.022
56459SOL     OW71215   0.960   8.167  13.637
56459SOL    HW171216   0.886   8.116  13.670
56459SOL    HW271217   1.024   8.165  13.708
56460SOL     OW71218   7.734   6.179   5.749
56460SOL    HW171219   7.806   6.224   5.794
56460SOL    HW271220   7.721   6.230   5.669
56461SOL     OW71221  10.172   0.508   6.546
56461SOL    HW171222  10.152   0.475   6.459
56461SOL    HW271223  10.115   0.584   6.558
56462SOL     OW71224   6.793   3.964  11.978
56462SOL    HW171225   6.830   4.050  12.001
56462SOL    HW271226   6.792   3.916  12.061
56463SOL     OW71227  13.906   3.344   1.951
56463SOL    HW171228  13.906   3.302   2.037
56463SOL    HW271229  13.945   3.280   1.892
56464SOL     OW71230  12.349   5.343   0.585
56464SOL    HW171231  12.442   5.353   0.566
56464SOL    HW271232  12.339   5.252   0.612
56465SOL     OW71233   9.943   7.508   3.548
56465SOL    HW171234   9.884   7.580   3.528
56465SOL    HW271235   9.894   7.429   3.524
56466SOL     OW71236  10.150  14.093   4.927
56466SOL    HW171237  10.115  14.046   4.851
56466SOL    HW271238  10.079  14.149   4.956
56467SOL     OW71239   7.441  14.071   2.958
56467SOL    HW171240   7.409  14.155   2.992
56467SOL    HW271241   7.425  14.009   3.028
56468SOL     OW71242  11.554   1.617   3.030
56468SOL    HW171243  11.460   1.620   3.045
56468SOL    HW271244  11.576   1.524   3.032
56469SOL     OW71245   6.188   3.774  14.154
56469SOL    HW171246   6.227   3.847  14.106
56469SOL    HW271247   6.252   3.755  14.223
56470SOL     OW71248   7.899   8.580   2.342
56470SOL    HW171249   7.833   8.559   2.408
56470SOL    HW271250   7.856   8.565   2.258
56471SOL     OW71251   2.240   7.823   4.280
56471SOL    HW171252   2.233   7.814   4.375
56471SOL    HW271253   2.327   7.788   4.259
56472SOL     OW71254  12.331  10.620  13.099
56472SOL    HW171255  12.348  10.620  13.004
56472SOL    HW271256  12.407  10.665  13.136
56473SOL     OW71257  11.755   3.958   1.847
56473SOL    HW171258  11.784   3.887   1.789
56473SOL    HW271259  11.818   4.028   1.832
56474SOL     OW71260   2.743   7.493   5.921
56474SOL    HW171261   2.657   7.481   5.880
56474SOL    HW271262   2.740   7.436   5.998
56475SOL     OW71263   6.070  11.091   1.098
56475SOL    HW171264   6.055  11.134   1.182
56475SOL    HW271265   6.099  11.162   1.041
56476SOL     OW71266  12.119  13.470  13.546
56476SOL    HW171267  12.170  13.526  13.489
56476SOL    HW271268  12.169  13.466  13.628
56477SOL     OW71269   0.643   5.720   7.586
56477SOL    HW171270   0.556   5.711   7.625
56477SOL    HW271271   0.660   5.815   7.587
56478SOL     OW71272   6.197   7.344  10.585
56478SOL    HW171273   6.289   7.358  10.562
56478SOL    HW271274   6.149   7.411  10.536
56479SOL     OW71275   4.468  10.432   1.188
56479SOL    HW171276   4.450  10.468   1.101
56479SOL    HW271277   4.511  10.348   1.171
56480SOL     OW71278  13.102   4.738  10.052
56480SOL    HW171279  13.151   4.746   9.970
56480SOL    HW271280  13.080   4.828  10.076
56481SOL     OW71281   7.166   0.327   2.359
56481SOL    HW171282   7.170   0.419   2.382
56481SOL    HW271283   7.073   0.305   2.362
56482SOL     OW71284   2.566  10.700   2.726
56482SOL    HW171285   2.577  10.795   2.736
56482SOL    HW271286   2.632  10.675   2.662
56483SOL     OW71287  14.592   6.774   7.114
56483SOL    HW171288  14.564   6.690   7.078
56483SOL    HW271289  14.677   6.757   7.153
56484SOL     OW71290  13.528  10.959  12.261
56484SOL    HW171291  13.485  11.040  12.289
56484SOL    HW271292  13.535  10.907  12.341
56485SOL     OW71293  13.656   3.968  12.084
56485SOL    HW171294  13.659   3.885  12.132
56485SOL    HW271295  13.619   4.031  12.146
56486SOL     OW71296  13.407  10.745   2.196
56486SOL    HW171297  13.354  10.786   2.264
56486SOL    HW271298  13.372  10.657   2.188
56487SOL     OW71299   9.845  11.879   0.920
56487SOL    HW171300   9.754  11.851   0.911
56487SOL    HW271301   9.894  11.822   0.861
56488SOL     OW71302   8.653   7.884  10.075
56488SOL    HW171303   8.748   7.872  10.085
56488SOL    HW271304   8.644   7.935   9.994
56489SOL     OW71305  11.389   5.782  10.707
56489SOL    HW171306  11.429   5.773  10.620
56489SOL    HW271307  11.305   5.824  10.690
56490SOL     OW71308   0.504   3.982   7.482
56490SOL    HW171309   0.556   3.902   7.487
56490SOL    HW271310   0.462   3.987   7.568
56491SOL     OW71311   5.590   2.500   8.346
56491SOL    HW171312   5.597   2.431   8.279
56491SOL    HW271313   5.650   2.471   8.415
56492SOL     OW71314   3.396   8.266  14.854
56492SOL    HW171315   3.356   8.335   0.027
56492SOL    HW271316   3.437   8.208   0.038
56493SOL     OW71317   1.611  14.416   7.931
56493SOL    HW171318   1.598  14.510   7.944
56493SOL    HW271319   1.596  14.378   8.017
56494SOL     OW71320  11.133   6.948  12.958
56494SOL    HW171321  11.208   6.959  12.899
56494SOL    HW271322  11.063   6.916  12.901
56495SOL     OW71323  13.034   0.364   2.168
56495SOL    HW171324  12.950   0.329   2.197
56495SOL    HW271325  13.061   0.423   2.238
56496SOL     OW71326   0.739  13.129   5.535
56496SOL    HW171327   0.728  13.166   5.623
56496SOL    HW271328   0.801  13.058   5.546
56497SOL     OW71329   3.894   8.951  13.863
56497SOL    HW171330   3.901   9.046  13.854
56497SOL    HW271331   3.851   8.938  13.947
56498SOL     OW71332  12.841   2.557  14.484
56498SOL    HW171333  12.813   2.640  14.521
56498SOL    HW271334  12.766   2.527  14.432
56499SOL     OW71335   6.735   7.277  11.726
56499SOL    HW171336   6.749   7.216  11.654
56499SOL    HW271337   6.670   7.235  11.781
56500SOL     OW71338  12.585   4.250  12.599
56500SOL    HW171339  12.521   4.319  12.616
56500SOL    HW271340  12.551   4.174  12.646
56501SOL     OW71341  12.813   1.010  13.062
56501SOL    HW171342  12.784   1.074  13.127
56501SOL    HW271343  12.747   1.013  12.993
56502SOL     OW71344   8.994  10.160  13.006
56502SOL    HW171345   9.054  10.127  12.939
56502SOL    HW271346   8.907  10.150  12.967
56503SOL     OW71347   3.011  10.719  13.991
56503SOL    HW171348   3.070  10.785  14.028
56503SOL    HW271349   3.043  10.636  14.025
56504SOL     OW71350   6.769   0.867   8.570
56504SOL    HW171351   6.777   0.808   8.645
56504SOL    HW271352   6.692   0.920   8.590
56505SOL     OW71353   3.302   3.230   5.848
56505SOL    HW171354   3.342   3.315   5.867
56505SOL    HW271355   3.376   3.169   5.846
56506SOL     OW71356  10.155  12.705   8.668
56506SOL    HW171357  10.111  12.745   8.592
56506SOL    HW271358  10.226  12.654   8.630
56507SOL     OW71359   9.442   7.665   8.530
56507SOL    HW171360   9.472   7.633   8.445
56507SOL    HW271361   9.521   7.703   8.570
56508SOL     OW71362   5.483   2.535   4.342
56508SOL    HW171363   5.561   2.558   4.392
56508SOL    HW271364   5.464   2.613   4.291
56509SOL     OW71365  14.227  11.697  14.234
56509SOL    HW171366  14.252  11.639  14.162
56509SOL    HW271367  14.251  11.784  14.204
56510SOL     OW71368   1.375   9.237   1.303
56510SOL    HW171369   1.294   9.266   1.259
56510SOL    HW271370   1.344   9.186   1.378
56511SOL     OW71371   5.638   8.401   7.030
56511SOL    HW171372   5.594   8.348   6.963
56511SOL    HW271373   5.597   8.373   7.113
56512SOL     OW71374   7.851  12.652   0.702
56512SOL    HW171375   7.864  12.575   0.756
56512SOL    HW271376   7.938  12.670   0.666
56513SOL     OW71377   5.046   0.113   1.381
56513SOL    HW171378   5.015   0.044   1.322
56513SOL    HW271379   4.977   0.179   1.379
56514SOL     OW71380   3.670  14.554   4.324
56514SOL    HW171381   3.648  14.497   4.398
56514SOL    HW271382   3.765  14.561   4.327
56515SOL     OW71383   2.575  10.831   3.918
56515SOL    HW171384   2.641  10.819   3.849
56515SOL    HW271385   2.505  10.771   3.894
56516SOL     OW71386  11.248   3.491   2.335
56516SOL    HW171387  11.212   3.440   2.409
56516SOL    HW271388  11.341   3.501   2.356
56517SOL     OW71389  11.975  14.176   4.797
56517SOL    HW171390  12.066  14.150   4.789
56517SOL    HW271391  11.954  14.165   4.889
56518SOL     OW71392   4.742   3.183  12.841
56518SOL    HW171393   4.719   3.180  12.748
56518SOL    HW271394   4.728   3.093  12.872
56519SOL     OW71395  13.984   4.707   6.405
56519SOL    HW171396  13.999   4.798   6.378
56519SOL    HW271397  13.930   4.714   6.484
56520SOL     OW71398   4.658   9.763   2.542
56520SOL    HW171399   4.684   9.845   2.582
56520SOL    HW271400   4.616   9.714   2.613
56521SOL     OW71401   9.534   1.431  10.607
56521SOL    HW171402   9.530   1.360  10.543
56521SOL    HW271403   9.610   1.410  10.661
56522SOL     OW71404  14.406   1.185   8.457
56522SOL    HW171405  14.471   1.129   8.415
56522SOL    HW271406  14.339   1.125   8.490
56523SOL     OW71407  11.442   4.735   4.892
56523SOL    HW171408  11.443   4.823   4.854
56523SOL    HW271409  11.535   4.712   4.902
56524SOL     OW71410   8.863   6.481   1.598
56524SOL    HW171411   8.957   6.497   1.586
56524SOL    HW271412   8.821   6.552   1.549
56525SOL     OW71413   3.292   5.319  11.034
56525SOL    HW171414   3.266   5.379  11.104
56525SOL    HW271415   3.278   5.232  11.070
56526SOL     OW71416   4.822  11.892   6.873
56526SOL    HW171417   4.894  11.889   6.810
56526SOL    HW271418   4.754  11.942   6.829
56527SOL     OW71419   6.738  11.773   0.671
56527SOL    HW171420   6.829  11.742   0.664
56527SOL    HW271421   6.686  11.693   0.669
56528SOL     OW71422  10.200  13.363   1.525
56528SOL    HW171423  10.231  13.343   1.437
56528SOL    HW271424  10.105  13.376   1.515
56529SOL     OW71425   7.737   2.481  10.658
56529SOL    HW171426   7.737   2.406  10.718
56529SOL    HW271427   7.659   2.468  10.604
56530SOL     OW71428  13.469  11.257   3.869
56530SOL    HW171429  13.519  11.327   3.911
56530SOL    HW271430  13.476  11.183   3.930
56531SOL     OW71431   0.570   3.592   4.347
56531SOL    HW171432   0.528   3.665   4.301
56531SOL    HW271433   0.624   3.549   4.280
56532SOL     OW71434   9.025   8.476  13.484
56532SOL    HW171435   8.968   8.476  13.561
56532SOL    HW271436   8.977   8.528  13.420
56533SOL     OW71437   2.857   3.969   1.484
56533SOL    HW171438   2.940   4.012   1.503
56533SOL    HW271439   2.859   3.953   1.389
56534SOL     OW71440   6.497   2.431   2.156
56534SOL    HW171441   6.565   2.414   2.222
56534SOL    HW271442   6.453   2.510   2.188
56535SOL     OW71443   9.767   1.325   5.002
56535SOL    HW171444   9.753   1.381   5.078
56535SOL    HW271445   9.728   1.374   4.929
56536SOL     OW71446   2.882   1.671  11.060
56536SOL    HW171447   2.959   1.633  11.018
56536SOL    HW271448   2.810   1.612  11.036
56537SOL     OW71449   0.207   1.645   5.194
56537SOL    HW171450   0.201   1.700   5.272
56537SOL    HW271451   0.246   1.563   5.225
56538SOL     OW71452  13.617   4.963   6.867
56538SOL    HW171453  13.698   5.010   6.848
56538SOL    HW271454  13.642   4.893   6.927
56539SOL     OW71455   1.526   6.735   1.747
56539SOL    HW171456   1.497   6.738   1.838
56539SOL    HW271457   1.444   6.732   1.697
56540SOL     OW71458   2.913  12.274  12.491
56540SOL    HW171459   2.904  12.275  12.396
56540SOL    HW271460   2.966  12.195  12.509
56541SOL     OW71461   2.442   6.013  14.812
56541SOL    HW171462   2.523   5.985  14.856
56541SOL    HW271463   2.372   5.971  14.861
56542SOL     OW71464  11.389   3.730  14.250
56542SOL    HW171465  11.337   3.796  14.296
56542SOL    HW271466  11.335   3.650  14.255
56543SOL     OW71467   3.125   2.748   0.402
56543SOL    HW171468   3.163   2.812   0.342
56543SOL    HW271469   3.098   2.799   0.479
56544SOL     OW71470   8.548   1.376  11.585
56544SOL    HW171471   8.579   1.401  11.672
56544SOL    HW271472   8.577   1.448  11.529
56545SOL     OW71473  10.032   1.451  11.376
56545SOL    HW171474  10.021   1.440  11.281
56545SOL    HW271475   9.947   1.426  11.412
56546SOL     OW71476  11.143   0.360   2.423
56546SOL    HW171477  11.174   0.412   2.497
56546SOL    HW271478  11.106   0.281   2.463
56547SOL     OW71479   1.378   9.251  14.572
56547SOL    HW171480   1.427   9.169  14.571
56547SOL    HW271481   1.351   9.264  14.482
56548SOL     OW71482   4.411   3.248   7.250
56548SOL    HW171483   4.449   3.275   7.333
56548SOL    HW271484   4.337   3.193   7.274
56549SOL     OW71485  13.406  12.251  11.256
56549SOL    HW171486  13.388  12.190  11.327
56549SOL    HW271487  13.414  12.195  11.178
56550SOL     OW71488   1.735  13.090   3.018
56550SOL    HW171489   1.730  13.067   2.925
56550SOL    HW271490   1.732  13.186   3.019
56551SOL     OW71491  14.711   7.317   2.924
56551SOL    HW171492  14.626   7.315   2.881
56551SOL    HW271493  14.773   7.332   2.853
56552SOL     OW71494  11.150   7.625   9.890
56552SOL    HW171495  11.070   7.675   9.904
56552SOL    HW271496  11.220   7.683   9.919
56553SOL     OW71497   8.363   0.655   2.393
56553SOL    HW171498   8.286   0.675   2.340
56553SOL    HW271499   8.354   0.562   2.413
56554SOL     OW71500   3.161   0.762   4.370
56554SOL    HW171501   3.161   0.714   4.453
56554SOL    HW271502   3.171   0.854   4.395
56555SOL     OW71503  11.790  12.476   9.268
56555SOL    HW171504  11.856  12.523   9.218
56555SOL    HW271505  11.798  12.385   9.238
56556SOL     OW71506   6.521  11.838   8.798
56556SOL    HW171507   6.582  11.771   8.769
56556SOL    HW271508   6.474  11.798   8.871
56557SOL     OW71509   0.662   5.789   0.979
56557SOL    HW171510   0.744   5.811   0.934
56557SOL    HW271511   0.614   5.737   0.915
56558SOL     OW71512   0.888   4.021   4.872
56558SOL    HW171513   0.932   3.985   4.795
56558SOL    HW271514   0.909   4.115   4.870
56559SOL     OW71515   5.602   0.715   1.322
56559SOL    HW171516   5.537   0.747   1.259
56559SOL    HW271517   5.552   0.696   1.401
56560SOL     OW71518  12.019  13.574   7.722
56560SOL    HW171519  12.070  13.646   7.758
56560SOL    HW271520  11.929  13.591   7.752
56561SOL     OW71521   7.620   5.192  12.184
56561SOL    HW171522   7.656   5.137  12.115
56561SOL    HW271523   7.655   5.154  12.265
56562SOL     OW71524   0.895  12.719  13.120
56562SOL    HW171525   0.825  12.659  13.094
56562SOL    HW271526   0.962  12.708  13.052
56563SOL     OW71527  14.332   8.201   8.157
56563SOL    HW171528  14.307   8.133   8.219
56563SOL    HW271529  14.401   8.161   8.104
56564SOL     OW71530  11.324   3.162  11.549
56564SOL    HW171531  11.336   3.088  11.609
56564SOL    HW271532  11.381   3.143  11.475
56565SOL     OW71533   6.948  12.093  13.808
56565SOL    HW171534   7.042  12.095  13.791
56565SOL    HW271535   6.915  12.021  13.754
56566SOL     OW71536   4.988   9.885   8.230
56566SOL    HW171537   4.986   9.972   8.191
56566SOL    HW271538   5.078   9.855   8.217
56567SOL     OW71539   7.972   8.203   1.272
56567SOL    HW171540   7.934   8.165   1.351
56567SOL    HW271541   7.975   8.131   1.209
56568SOL     OW71542   0.040   6.932   3.498
56568SOL    HW171543   0.135   6.915   3.499
56568SOL    HW271544   0.033   7.027   3.494
56569SOL     OW71545  14.827   5.980  10.205
56569SOL    HW171546  14.741   5.938  10.202
56569SOL    HW271547  14.876   5.941  10.134
56570SOL     OW71548   4.282  12.750   3.268
56570SOL    HW171549   4.209  12.802   3.302
56570SOL    HW271550   4.266  12.746   3.173
56571SOL     OW71551  10.112   1.824   2.672
56571SOL    HW171552  10.199   1.785   2.684
56571SOL    HW271553  10.126   1.918   2.684
56572SOL     OW71554   8.052   1.128   3.665
56572SOL    HW171555   8.078   1.047   3.708
56572SOL    HW271556   8.056   1.108   3.572
56573SOL     OW71557   4.893   0.597   6.080
56573SOL    HW171558   4.929   0.652   6.149
56573SOL    HW271559   4.892   0.509   6.118
56574SOL     OW71560  10.655  12.308   3.599
56574SOL    HW171561  10.560  12.312   3.610
56574SOL    HW271562  10.669  12.327   3.506
56575SOL     OW71563   4.394   9.898   3.700
56575SOL    HW171564   4.307   9.927   3.727
56575SOL    HW271565   4.444   9.892   3.782
56576SOL     OW71566  13.781   9.220   6.830
56576SOL    HW171567  13.788   9.271   6.749
56576SOL    HW271568  13.821   9.136   6.808
56577SOL     OW71569  14.136   8.255   4.419
56577SOL    HW171570  14.196   8.220   4.485
56577SOL    HW271571  14.140   8.350   4.430
56578SOL     OW71572  11.469  13.016   0.431
56578SOL    HW171573  11.485  13.078   0.360
56578SOL    HW271574  11.373  13.010   0.436
56579SOL     OW71575   8.836   3.754  10.973
56579SOL    HW171576   8.798   3.702  11.044
56579SOL    HW271577   8.781   3.832  10.968
56580SOL     OW71578   2.948   0.984   7.407
56580SOL    HW171579   2.906   0.985   7.493
56580SOL    HW271580   2.936   0.895   7.374
56581SOL     OW71581  10.660   8.247  13.573
56581SOL    HW171582  10.702   8.316  13.522
56581SOL    HW271583  10.602   8.203  13.511
56582SOL     OW71584   0.723   6.080   3.184
56582SOL    HW171585   0.808   6.036   3.181
56582SOL    HW271586   0.734   6.157   3.128
56583SOL     OW71587  10.444  12.522   6.213
56583SOL    HW171588  10.385  12.585   6.253
56583SOL    HW271589  10.460  12.458   6.283
56584SOL     OW71590   3.299   1.873  11.045
56584SOL    HW171591   3.293   1.850  10.952
56584SOL    HW271592   3.379   1.830  11.074
56585SOL     OW71593  11.315   6.201  10.169
56585SOL    HW171594  11.267   6.282  10.190
56585SOL    HW271595  11.405   6.229  10.154
56586SOL     OW71596   7.345   1.718  13.374
56586SOL    HW171597   7.387   1.803  13.377
56586SOL    HW271598   7.274   1.724  13.439
56587SOL     OW71599   9.980  10.752  10.360
56587SOL    HW171600   9.929  10.721  10.435
56587SOL    HW271601   9.933  10.718  10.284
56588SOL     OW71602   3.055   4.165  13.586
56588SOL    HW171603   2.962   4.186  13.594
56588SOL    HW271604   3.061   4.114  13.506
56589SOL     OW71605   0.390  14.611   3.803
56589SOL    HW171606   0.435  14.694   3.786
56589SOL    HW271607   0.321  14.607   3.738
56590SOL     OW71608   7.601   4.495   5.731
56590SOL    HW171609   7.584   4.420   5.788
56590SOL    HW271610   7.529   4.493   5.668
56591SOL     OW71611   8.646   7.569   0.751
56591SOL    HW171612   8.566   7.522   0.727
56591SOL    HW271613   8.641   7.652   0.704
56592SOL     OW71614  11.075   5.792   4.606
56592SOL    HW171615  11.032   5.875   4.627
56592SOL    HW271616  11.064   5.782   4.512
56593SOL     OW71617   8.084   3.507   9.954
56593SOL    HW171618   8.171   3.513   9.914
56593SOL    HW271619   8.089   3.430  10.010
56594SOL     OW71620  10.056   9.486   4.229
56594SOL    HW171621  10.145   9.519   4.214
56594SOL    HW271622   9.999   9.554   4.194
56595SOL     OW71623   7.155   5.415  11.800
56595SOL    HW171624   7.184   5.494  11.755
56595SOL    HW271625   7.191   5.423  11.888
56596SOL     OW71626  13.158   8.101  13.670
56596SOL    HW171627  13.095   8.080  13.601
56596SOL    HW271628  13.117   8.170  13.721
56597SOL     OW71629   1.962  12.402   3.831
56597SOL    HW171630   2.024  12.339   3.867
56597SOL    HW271631   1.968  12.389   3.736
56598SOL     OW71632   2.905   7.873  14.830
56598SOL    HW171633   2.870   7.932  14.763
56598SOL    HW271634   2.833   7.858   0.011
56599SOL     OW71635  11.411  13.867   5.730
56599SOL    HW171636  11.444  13.889   5.643
56599SOL    HW271637  11.421  13.772   5.736
56600SOL     OW71638   9.382  10.853   7.469
56600SOL    HW171639   9.410  10.880   7.381
56600SOL    HW271640   9.460  10.863   7.523
56601SOL     OW71641   4.703  12.794   7.091
56601SOL    HW171642   4.692  12.878   7.136
56601SOL    HW271643   4.792  12.796   7.058
56602SOL     OW71644   7.652   8.615  10.891
56602SOL    HW171645   7.704   8.553  10.942
56602SOL    HW271646   7.574   8.566  10.866
56603SOL     OW71647   9.730   0.484  11.594
56603SOL    HW171648   9.763   0.398  11.621
56603SOL    HW271649   9.716   0.476  11.499
56604SOL     OW71650   5.871   4.586   4.381
56604SOL    HW171651   5.794   4.531   4.397
56604SOL    HW271652   5.859   4.662   4.438
56605SOL     OW71653   6.204  14.835   3.758
56605SOL    HW171654   6.148  14.776   3.708
56605SOL    HW271655   6.204   0.037   3.708
56606SOL     OW71656  14.187   6.067   6.060
56606SOL    HW171657  14.213   6.068   6.152
56606SOL    HW271658  14.128   5.992   6.052
56607SOL     OW71659   9.023   3.945   1.122
56607SOL    HW171660   8.934   3.914   1.138
56607SOL    HW271661   9.013   4.040   1.111
56608SOL     OW71662   7.581   6.811   2.508
56608SOL    HW171663   7.665   6.792   2.549
56608SOL    HW271664   7.599   6.814   2.415
56609SOL     OW71665  12.447   1.186  14.019
56609SOL    HW171666  12.385   1.178  14.091
56609SOL    HW271667  12.508   1.255  14.047
56610SOL     OW71668   8.367  14.698   4.555
56610SOL    HW171669   8.308  14.674   4.627
56610SOL    HW271670   8.352  14.792   4.542
56611SOL     OW71671  13.680   1.843  10.668
56611SOL    HW171672  13.674   1.749  10.657
56611SOL    HW271673  13.673   1.878  10.579
56612SOL     OW71674   6.404  12.974   8.350
56612SOL    HW171675   6.380  12.911   8.418
56612SOL    HW271676   6.394  12.926   8.268
56613SOL     OW71677   1.436   1.916   4.229
56613SOL    HW171678   1.348   1.952   4.223
56613SOL    HW271679   1.482   1.952   4.154
56614SOL     OW71680   3.919   7.407   6.836
56614SOL    HW171681   3.846   7.419   6.897
56614SOL    HW271682   3.950   7.318   6.852
56615SOL     OW71683  11.991   0.799   5.338
56615SOL    HW171684  12.070   0.745   5.337
56615SOL    HW271685  11.993   0.843   5.423
56616SOL     OW71686   4.619   9.785   3.042
56616SOL    HW171687   4.695   9.751   2.994
56616SOL    HW271688   4.590   9.712   3.096
56617SOL     OW71689  13.294  12.377   2.417
56617SOL    HW171690  13.372  12.323   2.407
56617SOL    HW271691  13.325  12.455   2.465
56618SOL     OW71692   1.542   5.197   3.069
56618SOL    HW171693   1.499   5.112   3.079
56618SOL    HW271694   1.614   5.194   3.131
56619SOL     OW71695   5.275  10.366   0.385
56619SOL    HW171696   5.241  10.453   0.365
56619SOL    HW271697   5.266  10.318   0.303
56620SOL     OW71698   7.653   9.771   3.873
56620SOL    HW171699   7.677   9.864   3.875
56620SOL    HW271700   7.736   9.724   3.872
56621SOL     OW71701   1.384  13.709  13.778
56621SOL    HW171702   1.337  13.753  13.707
56621SOL    HW271703   1.324  13.715  13.853
56622SOL     OW71704   1.899   6.029   7.348
56622SOL    HW171705   1.878   6.112   7.391
56622SOL    HW271706   1.818   5.979   7.351
56623SOL     OW71707   4.931  14.443   7.459
56623SOL    HW171708   4.984  14.424   7.382
56623SOL    HW271709   4.862  14.502   7.427
56624SOL     OW71710   9.515   0.464   7.796
56624SOL    HW171711   9.554   0.378   7.777
56624SOL    HW271712   9.575   0.527   7.755
56625SOL     OW71713   2.798   9.667  10.631
56625SOL    HW171714   2.755   9.690  10.713
56625SOL    HW271715   2.728   9.663  10.567
56626SOL     OW71716   1.467  12.227   7.020
56626SOL    HW171717   1.408  12.155   6.998
56626SOL    HW271718   1.408  12.300   7.042
56627SOL     OW71719   7.856   4.100   1.879
56627SOL    HW171720   7.925   4.136   1.934
56627SOL    HW271721   7.865   4.005   1.887
56628SOL     OW71722   8.464  14.202   8.286
56628SOL    HW171723   8.402  14.168   8.222
56628SOL    HW271724   8.467  14.136   8.354
56629SOL     OW71725  10.054  13.050   0.811
56629SOL    HW171726   9.983  13.044   0.875
56629SOL    HW271727  10.042  12.974   0.754
56630SOL     OW71728   7.580   7.157   6.276
56630SOL    HW171729   7.650   7.114   6.228
56630SOL    HW271730   7.608   7.249   6.282
56631SOL     OW71731  10.279   9.892   9.901
56631SOL    HW171732  10.276   9.966   9.840
56631SOL    HW271733  10.373   9.874   9.912
56632SOL     OW71734  13.807   9.204   1.399
56632SOL    HW171735  13.876   9.250   1.352
56632SOL    HW271736  13.740   9.270   1.416
56633SOL     OW71737   7.440   0.244   2.600
56633SOL    HW171738   7.476   0.246   2.689
56633SOL    HW271739   7.389   0.163   2.597
56634SOL     OW71740   3.691  12.476  11.605
56634SOL    HW171741   3.641  12.464  11.524
56634SOL    HW271742   3.659  12.406  11.663
56635SOL     OW71743   7.590  10.917  12.940
56635SOL    HW171744   7.644  10.976  12.992
56635SOL    HW271745   7.573  10.842  12.997
56636SOL     OW71746   9.561   6.396   2.003
56636SOL    HW171747   9.588   6.305   1.993
56636SOL    HW271748   9.586   6.419   2.092
56637SOL     OW71749   7.140  11.513   0.329
56637SOL    HW171750   7.133  11.604   0.300
56637SOL    HW271751   7.216  11.513   0.387
56638SOL     OW71752  14.479  14.604   5.408
56638SOL    HW171753  14.566  14.566   5.420
56638SOL    HW271754  14.422  14.552   5.466
56639SOL     OW71755   1.490  11.268  11.997
56639SOL    HW171756   1.474  11.201  12.064
56639SOL    HW271757   1.404  11.306  11.980
56640SOL     OW71758   1.505   2.781   6.056
56640SOL    HW171759   1.523   2.709   5.995
56640SOL    HW271760   1.573   2.773   6.123
56641SOL     OW71761   3.289   7.552  13.228
56641SOL    HW171762   3.210   7.508  13.198
56641SOL    HW271763   3.261   7.641  13.248
56642SOL     OW71764  14.393   8.113   8.995
56642SOL    HW171765  14.360   8.196   9.029
56642SOL    HW271766  14.418   8.064   9.074
56643SOL     OW71767   8.252   9.330  10.809
56643SOL    HW171768   8.327   9.344  10.866
56643SOL    HW271769   8.185   9.291  10.866
56644SOL     OW71770   7.838   5.218   6.701
56644SOL    HW171771   7.824   5.133   6.741
56644SOL    HW271772   7.881   5.270   6.770
56645SOL     OW71773   1.899   1.983   3.878
56645SOL    HW171774   1.918   2.059   3.823
56645SOL    HW271775   1.825   1.940   3.836
56646SOL     OW71776  12.009   0.329   5.550
56646SOL    HW171777  12.066   0.295   5.481
56646SOL    HW271778  12.043   0.416   5.568
56647SOL     OW71779   5.660   7.473   6.136
56647SOL    HW171780   5.724   7.403   6.126
56647SOL    HW271781   5.679   7.510   6.223
56648SOL     OW71782   3.276  12.592   0.192
56648SOL    HW171783   3.266  12.669   0.136
56648SOL    HW271784   3.305  12.628   0.276
56649SOL     OW71785   5.795  13.647   3.177
56649SOL    HW171786   5.877  13.605   3.204
56649SOL    HW271787   5.814  13.682   3.090
56650SOL     OW71788  13.866  13.123   9.285
56650SOL    HW171789  13.957  13.106   9.258
56650SOL    HW271790  13.818  13.128   9.203
56651SOL     OW71791   5.035  12.227  12.461
56651SOL    HW171792   5.002  12.301  12.513
56651SOL    HW271793   4.963  12.206  12.401
56652SOL     OW71794   1.000   0.756   2.264
56652SOL    HW171795   1.037   0.712   2.187
56652SOL    HW271796   1.019   0.849   2.250
56653SOL     OW71797   7.893  10.904  13.502
56653SOL    HW171798   7.823  10.859  13.550
56653SOL    HW271799   7.874  10.997  13.513
56654SOL     OW71800   5.263   1.687  12.863
56654SOL    HW171801   5.244   1.659  12.773
56654SOL    HW271802   5.212   1.768  12.874
56655SOL     OW71803   2.073   8.013   1.802
56655SOL    HW171804   2.080   8.106   1.780
56655SOL    HW271805   2.105   7.968   1.725
56656SOL     OW71806  12.467   0.172   9.280
56656SOL    HW171807  12.442   0.086   9.248
56656SOL    HW271808  12.444   0.232   9.209
56657SOL     OW71809  13.669   3.554   0.762
56657SOL    HW171810  13.670   3.473   0.812
56657SOL    HW271811  13.589   3.599   0.790
56658SOL     OW71812  11.469   2.511   3.203
56658SOL    HW171813  11.500   2.566   3.275
56658SOL    HW271814  11.376   2.499   3.220
56659SOL     OW71815  11.980   2.677   3.550
56659SOL    HW171816  12.028   2.596   3.566
56659SOL    HW271817  11.987   2.690   3.455
56660SOL     OW71818   4.942   8.256   0.638
56660SOL    HW171819   4.981   8.257   0.726
56660SOL    HW271820   4.998   8.315   0.587
56661SOL     OW71821  14.384  13.418  11.889
56661SOL    HW171822  14.303  13.444  11.846
56661SOL    HW271823  14.431  13.365  11.824
56662SOL     OW71824   1.003   4.040   0.372
56662SOL    HW171825   1.021   4.077   0.286
56662SOL    HW271826   0.940   3.970   0.357
56663SOL     OW71827   3.929   7.254  14.526
56663SOL    HW171828   3.850   7.201  14.510
56663SOL    HW271829   3.899   7.326  14.581
56664SOL     OW71830  10.469   0.862   8.354
56664SOL    HW171831  10.557   0.855   8.317
56664SOL    HW271832  10.482   0.895   8.443
56665SOL     OW71833   1.402   6.980   7.675
56665SOL    HW171834   1.363   7.028   7.602
56665SOL    HW271835   1.338   6.911   7.694
56666SOL     OW71836   5.111   3.224  12.299
56666SOL    HW171837   5.036   3.168  12.320
56666SOL    HW271838   5.123   3.213  12.204
56667SOL     OW71839   7.905   2.123   9.200
56667SOL    HW171840   7.847   2.086   9.267
56667SOL    HW271841   7.906   2.058   9.130
56668SOL     OW71842  14.266   3.784   9.061
56668SOL    HW171843  14.240   3.824   9.144
56668SOL    HW271844  14.284   3.858   9.003
56669SOL     OW71845   3.751   5.495   3.731
56669SOL    HW171846   3.666   5.534   3.712
56669SOL    HW271847   3.742   5.459   3.819
56670SOL     OW71848   4.305   2.893  12.452
56670SOL    HW171849   4.247   2.879  12.377
56670SOL    HW271850   4.393   2.890  12.415
56671SOL     OW71851  11.064   7.182   2.440
56671SOL    HW171852  11.065   7.245   2.368
56671SOL    HW271853  11.139   7.206   2.494
56672SOL     OW71854  10.420  11.552   4.612
56672SOL    HW171855  10.460  11.506   4.686
56672SOL    HW271856  10.326  11.541   4.625
56673SOL     OW71857   6.405   8.942   8.509
56673SOL    HW171858   6.320   8.956   8.552
56673SOL    HW271859   6.470   8.972   8.573
56674SOL     OW71860   5.128   0.148  12.961
56674SOL    HW171861   5.216   0.184  12.953
56674SOL    HW271862   5.071   0.224  12.952
56675SOL     OW71863  13.812   1.431   9.845
56675SOL    HW171864  13.836   1.466   9.759
56675SOL    HW271865  13.720   1.406   9.837
56676SOL     OW71866   4.671   2.875   4.301
56676SOL    HW171867   4.758   2.916   4.299
56676SOL    HW271868   4.643   2.882   4.392
56677SOL     OW71869   8.143   7.799   4.200
56677SOL    HW171870   8.231   7.836   4.195
56677SOL    HW271871   8.141   7.752   4.283
56678SOL     OW71872   5.905  10.026   3.017
56678SOL    HW171873   5.820  10.033   3.059
56678SOL    HW271874   5.958  10.094   3.059
56679SOL     OW71875  14.336   0.561   7.162
56679SOL    HW171876  14.388   0.577   7.240
56679SOL    HW271877  14.252   0.529   7.195
56680SOL     OW71878   4.612   0.063   2.718
56680SOL    HW171879   4.561   0.032   2.643
56680SOL    HW271880   4.610  14.869   2.780
56681SOL     OW71881   9.265   0.144   8.132
56681SOL    HW171882   9.219   0.096   8.063
56681SOL    HW271883   9.266   0.083   8.206
56682SOL     OW71884   3.015   1.366   0.954
56682SOL    HW171885   2.986   1.438   1.009
56682SOL    HW271886   3.110   1.378   0.946
56683SOL     OW71887   3.487  11.930  12.003
56683SOL    HW171888   3.577  11.956  11.982
56683SOL    HW271889   3.452  11.898  11.920
56684SOL     OW71890   0.779  10.909  10.868
56684SOL    HW171891   0.691  10.876  10.849
56684SOL    HW271892   0.815  10.846  10.930
56685SOL     OW71893   6.962  10.599  13.372
56685SOL    HW171894   7.033  10.577  13.311
56685SOL    HW271895   6.902  10.525  13.365
56686SOL     OW71896   2.530  10.741   4.945
56686SOL    HW171897   2.459  10.719   4.885
56686SOL    HW271898   2.499  10.712   5.031
56687SOL     OW71899   1.845  12.589   5.251
56687SOL    HW171900   1.845  12.493   5.256
56687SOL    HW271901   1.890  12.618   5.330
56688SOL     OW71902  12.608   3.201  11.402
56688SOL    HW171903  12.626   3.249  11.483
56688SOL    HW271904  12.643   3.256  11.332
56689SOL     OW71905   1.068  12.626   0.723
56689SOL    HW171906   1.098  12.627   0.814
56689SOL    HW271907   1.000  12.559   0.721
56690SOL     OW71908   2.609   0.057  10.873
56690SOL    HW171909   2.690   0.022  10.837
56690SOL    HW271910   2.635   0.104  10.952
56691SOL     OW71911   1.211  11.414  14.463
56691SOL    HW171912   1.267  11.415  14.386
56691SOL    HW271913   1.158  11.493  14.456
56692SOL     OW71914  12.848   8.932   9.335
56692SOL    HW171915  12.898   8.919   9.255
56692SOL    HW271916  12.803   8.849   9.350
56693SOL     OW71917   4.446   2.650   7.270
56693SOL    HW171918   4.359   2.633   7.234
56693SOL    HW271919   4.486   2.711   7.207
56694SOL     OW71920   7.497  12.740  14.834
56694SOL    HW171921   7.495  12.835  14.841
56694SOL    HW271922   7.451  12.710   0.033
56695SOL     OW71923  10.506   1.868   5.295
56695SOL    HW171924  10.534   1.877   5.386
56695SOL    HW271925  10.587   1.850   5.247
56696SOL     OW71926  11.285   2.934  14.786
56696SOL    HW171927  11.236   3.014  14.771
56696SOL    HW271928  11.345   2.955  14.858
56697SOL     OW71929   8.333  12.151   8.338
56697SOL    HW171930   8.248  12.172   8.301
56697SOL    HW271931   8.396  12.194   8.281
56698SOL     OW71932  12.238   3.962   8.522
56698SOL    HW171933  12.290   3.887   8.494
56698SOL    HW271934  12.234   3.955   8.617
56699SOL     OW71935  11.273  14.127   5.632
56699SOL    HW171936  11.356  14.174   5.635
56699SOL    HW271937  11.297  14.036   5.612
56700SOL     OW71938   6.011   1.376  12.745
56700SOL    HW171939   6.015   1.280  12.748
56700SOL    HW271940   5.919   1.396  12.761
56701SOL     OW71941  13.768   0.820  14.126
56701SOL    HW171942  13.837   0.788  14.067
56701SOL    HW271943  13.747   0.745  14.181
56702SOL     OW71944   5.786  12.566  11.814
56702SOL    HW171945   5.830  12.597  11.893
56702SOL    HW271946   5.778  12.644  11.760
56703SOL     OW71947  13.528  14.202   5.643
56703SOL    HW171948  13.522  14.278   5.701
56703SOL    HW271949  13.537  14.240   5.555
56704SOL     OW71950   0.680  11.078   2.100
56704SOL    HW171951   0.743  11.149   2.085
56704SOL    HW271952   0.721  11.001   2.062
56705SOL     OW71953  10.111   9.821   3.778
56705SOL    HW171954  10.175   9.890   3.760
56705SOL    HW271955  10.160   9.754   3.825
56706SOL     OW71956   9.200   5.324   3.673
56706SOL    HW171957   9.153   5.335   3.756
56706SOL    HW271958   9.145   5.367   3.608
56707SOL     OW71959   5.851  12.668  14.472
56707SOL    HW171960   5.861  12.612  14.395
56707SOL    HW271961   5.905  12.744  14.454
56708SOL     OW71962   0.913   3.432   3.412
56708SOL    HW171963   0.972   3.456   3.484
56708SOL    HW271964   0.825   3.442   3.449
56709SOL     OW71965   3.611   2.963   5.053
56709SOL    HW171966   3.601   3.049   5.011
56709SOL    HW271967   3.553   2.905   5.004
56710SOL     OW71968   4.195  10.031   5.277
56710SOL    HW171969   4.222   9.957   5.223
56710SOL    HW271970   4.266  10.095   5.266
56711SOL     OW71971   2.131  12.563   5.155
56711SOL    HW171972   2.107  12.654   5.170
56711SOL    HW271973   2.201  12.547   5.218
56712SOL     OW71974  11.957  14.439   5.460
56712SOL    HW171975  11.982  14.367   5.402
56712SOL    HW271976  11.891  14.401   5.519
56713SOL     OW71977   4.301   5.657  11.390
56713SOL    HW171978   4.302   5.748  11.419
56713SOL    HW271979   4.305   5.662  11.294
56714SOL     OW71980   2.548   2.954   4.517
56714SOL    HW171981   2.537   3.022   4.584
56714SOL    HW271982   2.638   2.922   4.531
56715SOL     OW71983   4.391   7.673   8.282
56715SOL    HW171984   4.462   7.697   8.342
56715SOL    HW271985   4.355   7.756   8.252
56716SOL     OW71986  13.799   8.408   0.477
56716SOL    HW171987  13.888   8.430   0.504
56716SOL    HW271988  13.810   8.361   0.394
56717SOL     OW71989   0.048   4.689   2.934
56717SOL    HW171990   0.015   4.695   2.844
56717SOL    HW271991   0.064   4.780   2.960
56718SOL     OW71992   1.369   9.042  11.556
56718SOL    HW171993   1.364   9.067  11.463
56718SOL    HW271994   1.431   8.968  11.557
56719SOL     OW71995   8.226   3.548   0.961
56719SOL    HW171996   8.259   3.549   0.871
56719SOL    HW271997   8.305   3.550   1.015
56720SOL     OW71998   0.193   2.322   6.044
56720SOL    HW171999   0.209   2.228   6.053
56720SOL    HW272000   0.102   2.334   6.070
56721SOL     OW72001  14.366  14.324   5.751
56721SOL    HW172002  14.313  14.279   5.816
56721SOL    HW272003  14.361  14.268   5.673
56722SOL     OW72004   4.612   7.062   3.257
56722SOL    HW172005   4.689   7.045   3.311
56722SOL    HW272006   4.597   6.979   3.210
56723SOL     OW72007  12.748  14.792   9.973
56723SOL    HW172008  12.710  14.861   9.918
56723SOL    HW272009  12.740  14.712   9.922
56724SOL     OW72010  10.129  13.113   9.712
56724SOL    HW172011  10.062  13.183   9.712
56724SOL    HW272012  10.145  13.096   9.620
56725SOL     OW72013   8.325   6.892  14.139
56725SOL    HW172014   8.417   6.913  14.125
56725SOL    HW272015   8.277   6.960  14.092
56726SOL     OW72016   1.375  13.095   9.750
56726SOL    HW172017   1.321  13.119   9.674
56726SOL    HW272018   1.364  13.000   9.758
56727SOL     OW72019  14.536   6.365   1.857
56727SOL    HW172020  14.562   6.325   1.940
56727SOL    HW272021  14.546   6.295   1.793
56728SOL     OW72022   2.889   5.105  12.156
56728SOL    HW172023   2.930   5.040  12.213
56728SOL    HW272024   2.807   5.063  12.128
56729SOL     OW72025  11.338   1.572   5.574
56729SOL    HW172026  11.430   1.595   5.562
56729SOL    HW272027  11.314   1.611   5.658
56730SOL     OW72028  11.843  12.190   9.855
56730SOL    HW172029  11.936  12.181   9.878
56730SOL    HW272030  11.826  12.284   9.864
56731SOL     OW72031   2.938   8.990   0.332
56731SOL    HW172032   3.013   9.029   0.376
56731SOL    HW272033   2.951   9.011   0.240
56732SOL     OW72034   3.829  12.046   4.742
56732SOL    HW172035   3.861  12.066   4.655
56732SOL    HW272036   3.787  12.127   4.772
56733SOL     OW72037  10.493   2.288   5.355
56733SOL    HW172038  10.439   2.211   5.369
56733SOL    HW272039  10.578   2.254   5.327
56734SOL     OW72040  13.853   7.968   9.799
56734SOL    HW172041  13.885   7.942   9.885
56734SOL    HW272042  13.927   7.955   9.740
56735SOL     OW72043  11.531   5.344   8.292
56735SOL    HW172044  11.508   5.268   8.346
56735SOL    HW272045  11.447   5.385   8.272
56736SOL     OW72046  10.408   6.000  12.029
56736SOL    HW172047  10.344   6.046  11.975
56736SOL    HW272048  10.480   5.980  11.970
56737SOL     OW72049   4.276   4.044  10.776
56737SOL    HW172050   4.288   3.973  10.840
56737SOL    HW272051   4.187   4.074  10.791
56738SOL     OW72052   1.050  12.205   1.408
56738SOL    HW172053   1.143  12.224   1.416
56738SOL    HW272054   1.018  12.208   1.499
56739SOL     OW72055   6.065   6.064   4.252
56739SOL    HW172056   5.987   6.118   4.239
56739SOL    HW272057   6.129   6.101   4.192
56740SOL     OW72058   3.156  11.628  11.359
56740SOL    HW172059   3.113  11.692  11.416
56740SOL    HW272060   3.248  11.630  11.386
56741SOL     OW72061   1.921   9.853   3.720
56741SOL    HW172062   1.910   9.899   3.637
56741SOL    HW272063   1.845   9.878   3.772
56742SOL     OW72064  14.596  11.813   6.297
56742SOL    HW172065  14.558  11.791   6.212
56742SOL    HW272066  14.524  11.805   6.359
56743SOL     OW72067  14.776  11.744   8.946
56743SOL    HW172068  14.719  11.819   8.963
56743SOL    HW272069  14.860  11.782   8.924
56744SOL     OW72070   0.234   9.911  10.029
56744SOL    HW172071   0.265   9.831  10.071
56744SOL    HW272072   0.308   9.971  10.033
56745SOL     OW72073   7.077   2.157  10.480
56745SOL    HW172074   7.014   2.171  10.409
56745SOL    HW272075   7.147   2.219  10.462
56746SOL     OW72076   0.180  11.078   0.885
56746SOL    HW172077   0.087  11.055   0.875
56746SOL    HW272078   0.178  11.172   0.906
56747SOL     OW72079   1.347  11.256   9.489
56747SOL    HW172080   1.427  11.205   9.500
56747SOL    HW272081   1.369  11.343   9.524
56748SOL     OW72082   2.896   7.320  13.233
56748SOL    HW172083   2.899   7.416  13.241
56748SOL    HW272084   2.806   7.302  13.204
56749SOL     OW72085   0.349  12.988  13.438
56749SOL    HW172086   0.430  12.938  13.428
56749SOL    HW272087   0.349  13.048  13.363
56750SOL     OW72088   7.788   1.340  14.615
56750SOL    HW172089   7.849   1.413  14.629
56750SOL    HW272090   7.792   1.289  14.696
56751SOL     OW72091   9.011   0.466   4.602
56751SOL    HW172092   9.031   0.405   4.673
56751SOL    HW272093   8.992   0.548   4.646
56752SOL     OW72094  11.304  11.676  12.223
56752SOL    HW172095  11.308  11.597  12.278
56752SOL    HW272096  11.217  11.711  12.239
56753SOL     OW72097   2.445   7.776  10.245
56753SOL    HW172098   2.431   7.851  10.303
56753SOL    HW272099   2.540   7.763  10.245
56754SOL     OW72100  10.159   6.511   6.760
56754SOL    HW172101  10.251   6.507   6.789
56754SOL    HW272102  10.146   6.429   6.713
56755SOL     OW72103   5.619   9.800   0.093
56755SOL    HW172104   5.622   9.708   0.065
56755SOL    HW272105   5.702   9.836   0.063
56756SOL     OW72106   8.504   8.454   5.612
56756SOL    HW172107   8.477   8.402   5.536
56756SOL    HW272108   8.464   8.540   5.597
56757SOL     OW72109   1.240  11.349  12.899
56757SOL    HW172110   1.220  11.272  12.845
56757SOL    HW272111   1.302  11.317  12.965
56758SOL     OW72112   7.730   6.381   1.100
56758SOL    HW172113   7.795   6.362   1.032
56758SOL    HW272114   7.652   6.334   1.072
56759SOL     OW72115   2.107   6.881  12.506
56759SOL    HW172116   2.118   6.969  12.543
56759SOL    HW272117   2.170   6.827  12.553
56760SOL     OW72118  11.860   1.534   7.612
56760SOL    HW172119  11.805   1.555   7.687
56760SOL    HW272120  11.923   1.606   7.608
56761SOL     OW72121   1.844   5.377  12.349
56761SOL    HW172122   1.835   5.383  12.444
56761SOL    HW272123   1.929   5.335  12.335
56762SOL     OW72124   0.478   9.229   7.480
56762SOL    HW172125   0.410   9.240   7.415
56762SOL    HW272126   0.558   9.262   7.438
56763SOL     OW72127   6.287  12.325   7.786
56763SOL    HW172128   6.219  12.367   7.733
56763SOL    HW272129   6.322  12.256   7.729
56764SOL     OW72130  10.745   2.141   0.311
56764SOL    HW172131  10.819   2.080   0.320
56764SOL    HW272132  10.758   2.182   0.226
56765SOL     OW72133  13.287   9.095  13.202
56765SOL    HW172134  13.202   9.057  13.226
56765SOL    HW272135  13.342   9.079  13.279
56766SOL     OW72136   8.653   0.958   7.511
56766SOL    HW172137   8.746   0.938   7.522
56766SOL    HW272138   8.609   0.907   7.578
56767SOL     OW72139   4.550  11.892   3.940
56767SOL    HW172140   4.564  11.951   4.013
56767SOL    HW272141   4.621  11.912   3.879
56768SOL     OW72142  11.528  10.455  14.349
56768SOL    HW172143  11.442  10.443  14.308
56768SOL    HW272144  11.529  10.390  14.419
56769SOL     OW72145   8.178   6.673   2.874
56769SOL    HW172146   8.094   6.702   2.909
56769SOL    HW272147   8.243   6.711   2.933
56770SOL     OW72148   1.104   8.566  13.317
56770SOL    HW172149   1.039   8.541  13.251
56770SOL    HW272150   1.089   8.505  13.389
56771SOL     OW72151  12.492   2.489   2.376
56771SOL    HW172152  12.408   2.443   2.377
56771SOL    HW272153  12.557   2.420   2.367
56772SOL     OW72154   3.824   6.793   0.873
56772SOL    HW172155   3.813   6.698   0.871
56772SOL    HW272156   3.742   6.827   0.838
56773SOL     OW72157   9.868   1.943   9.058
56773SOL    HW172158   9.950   1.922   9.104
56773SOL    HW272159   9.880   2.033   9.029
56774SOL     OW72160   5.409  13.459   6.383
56774SOL    HW172161   5.409  13.399   6.458
56774SOL    HW272162   5.489  13.511   6.395
56775SOL     OW72163   9.552   5.193   1.180
56775SOL    HW172164   9.485   5.261   1.173
56775SOL    HW272165   9.560   5.159   1.090
56776SOL     OW72166   6.544  10.924  13.427
56776SOL    HW172167   6.607  10.958  13.364
56776SOL    HW272168   6.598  10.891  13.499
56777SOL     OW72169   1.040   1.303   3.624
56777SOL    HW172170   1.070   1.248   3.696
56777SOL    HW272171   1.114   1.361   3.606
56778SOL     OW72172   8.620   8.864   5.447
56778SOL    HW172173   8.561   8.914   5.503
56778SOL    HW272174   8.622   8.777   5.485
56779SOL     OW72175   9.883   4.516   8.233
56779SOL    HW172176   9.894   4.583   8.166
56779SOL    HW272177   9.801   4.472   8.210
56780SOL     OW72178   6.219   1.205   4.383
56780SOL    HW172179   6.161   1.196   4.459
56780SOL    HW272180   6.293   1.148   4.403
56781SOL     OW72181   7.913   0.779   6.023
56781SOL    HW172182   7.880   0.801   6.111
56781SOL    HW272183   7.849   0.818   5.963
56782SOL     OW72184   6.051  10.740   4.396
56782SOL    HW172185   6.008  10.683   4.332
56782SOL    HW272186   6.031  10.699   4.480
56783SOL     OW72187  10.455  14.738  13.234
56783SOL    HW172188  10.377  14.778  13.195
56783SOL    HW272189  10.522  14.743  13.166
56784SOL     OW72190   2.954  13.489   8.629
56784SOL    HW172191   3.001  13.572   8.625
56784SOL    HW272192   2.965  13.451   8.541
56785SOL     OW72193   2.039  11.406   6.895
56785SOL    HW172194   2.090  11.486   6.903
56785SOL    HW272195   1.979  11.408   6.969
56786SOL     OW72196   4.163   3.968   2.407
56786SOL    HW172197   4.259   3.963   2.410
56786SOL    HW272198   4.146   4.059   2.383
56787SOL     OW72199  13.979  13.767   5.043
56787SOL    HW172200  14.038  13.696   5.069
56787SOL    HW272201  14.010  13.793   4.956
56788SOL     OW72202   5.985   1.098  11.271
56788SOL    HW172203   6.009   1.191  11.265
56788SOL    HW272204   6.025   1.058  11.194
56789SOL     OW72205   5.333   8.541  14.413
56789SOL    HW172206   5.278   8.500  14.479
56789SOL    HW272207   5.391   8.599  14.462
56790SOL     OW72208   5.218   0.729   5.292
56790SOL    HW172209   5.126   0.721   5.319
56790SOL    HW272210   5.215   0.783   5.213
56791SOL     OW72211   6.820  13.424  11.019
56791SOL    HW172212   6.819  13.492  10.953
56791SOL    HW272213   6.826  13.342  10.970
56792SOL     OW72214  12.582   3.207  10.138
56792SOL    HW172215  12.573   3.167  10.051
56792SOL    HW272216  12.674   3.231  10.144
56793SOL     OW72217   7.472   8.567   9.686
56793SOL    HW172218   7.496   8.631   9.619
56793SOL    HW272219   7.384   8.593   9.714
56794SOL     OW72220  12.759   6.000  14.314
56794SOL    HW172221  12.670   6.021  14.343
56794SOL    HW272222  12.793   5.942  14.382
56795SOL     OW72223   3.887   6.682   5.350
56795SOL    HW172224   3.907   6.766   5.310
56795SOL    HW272225   3.793   6.685   5.367
56796SOL     OW72226   3.620  10.402  14.344
56796SOL    HW172227   3.701  10.433  14.302
56796SOL    HW272228   3.633  10.420  14.437
56797SOL     OW72229   1.446   1.882   4.510
56797SOL    HW172230   1.379   1.936   4.552
56797SOL    HW272231   1.417   1.874   4.419
56798SOL     OW72232   7.800  13.293   2.883
56798SOL    HW172233   7.813  13.279   2.789
56798SOL    HW272234   7.707  13.275   2.898
56799SOL     OW72235   8.820  10.524  14.096
56799SOL    HW172236   8.875  10.446  14.093
56799SOL    HW272237   8.756  10.511  14.025
56800SOL     OW72238   6.995   0.132   0.774
56800SOL    HW172239   7.011   0.185   0.695
56800SOL    HW272240   7.061   0.063   0.770
56801SOL     OW72241  12.735   3.487   7.638
56801SOL    HW172242  12.825   3.463   7.615
56801SOL    HW272243  12.741   3.524   7.726
56802SOL     OW72244  14.373   1.227   0.932
56802SOL    HW172245  14.366   1.192   0.844
56802SOL    HW272246  14.412   1.314   0.921
56803SOL     OW72247   6.832  11.404   4.689
56803SOL    HW172248   6.738  11.387   4.685
56803SOL    HW272249   6.872  11.317   4.697
56804SOL     OW72250   1.687  13.933  13.206
56804SOL    HW172251   1.619  13.992  13.238
56804SOL    HW272252   1.672  13.928  13.111
56805SOL     OW72253   7.994   3.717   1.478
56805SOL    HW172254   8.078   3.750   1.510
56805SOL    HW272255   8.014   3.631   1.442
56806SOL     OW72256  10.342  12.284  13.997
56806SOL    HW172257  10.261  12.239  13.973
56806SOL    HW272258  10.371  12.241  14.077
56807SOL     OW72259   2.373  14.315  13.682
56807SOL    HW172260   2.446  14.258  13.704
56807SOL    HW272261   2.305  14.256  13.650
56808SOL     OW72262   1.935   4.550  12.242
56808SOL    HW172263   1.969   4.541  12.153
56808SOL    HW272264   1.869   4.481  12.249
56809SOL     OW72265   9.182   5.231   0.050
56809SOL    HW172266   9.269   5.245   0.013
56809SOL    HW272267   9.122   5.248  14.857
56810SOL     OW72268   6.288   1.721  11.492
56810SOL    HW172269   6.243   1.641  11.520
56810SOL    HW272270   6.223   1.768  11.440
56811SOL     OW72271  14.683   0.463   0.316
56811SOL    HW172272  14.754   0.527   0.320
56811SOL    HW272273  14.605   0.515   0.298
56812SOL     OW72274   7.321   5.775  12.016
56812SOL    HW172275   7.406   5.733  12.027
56812SOL    HW272276   7.285   5.737  11.936
56813SOL     OW72277   0.099  12.592   4.598
56813SOL    HW172278   0.020  12.546   4.627
56813SOL    HW272279   0.089  12.599   4.503
56814SOL     OW72280   8.265   8.559  11.139
56814SOL    HW172281   8.341   8.502  11.130
56814SOL    HW272282   8.289   8.638  11.091
56815SOL     OW72283  11.786  13.148   6.605
56815SOL    HW172284  11.857  13.136   6.668
56815SOL    HW272285  11.729  13.214   6.644
56816SOL     OW72286  14.064   7.867   7.302
56816SOL    HW172287  14.058   7.772   7.298
56816SOL    HW272288  14.086   7.894   7.213
56817SOL     OW72289   0.282   8.074  14.468
56817SOL    HW172290   0.233   7.993  14.454
56817SOL    HW272291   0.363   8.045  14.510
56818SOL     OW72292  13.905   9.709  13.206
56818SOL    HW172293  13.964   9.740  13.275
56818SOL    HW272294  13.938   9.622  13.184
56819SOL     OW72295   1.947  13.164   0.288
56819SOL    HW172296   1.863  13.120   0.298
56819SOL    HW272297   1.968  13.155   0.195
56820SOL     OW72298   1.080   9.908   1.754
56820SOL    HW172299   1.126   9.981   1.794
56820SOL    HW272300   1.148   9.844   1.734
56821SOL     OW72301  12.342   7.811   6.902
56821SOL    HW172302  12.289   7.764   6.837
56821SOL    HW272303  12.330   7.762   6.983
56822SOL     OW72304  12.535   3.783  13.602
56822SOL    HW172305  12.514   3.691  13.583
56822SOL    HW272306  12.631   3.784  13.612
56823SOL     OW72307   2.257   6.116   4.095
56823SOL    HW172308   2.228   6.159   4.175
56823SOL    HW272309   2.193   6.046   4.080
56824SOL     OW72310  10.606   4.447   7.127
56824SOL    HW172311  10.514   4.444   7.156
56824SOL    HW272312  10.602   4.477   7.037
56825SOL     OW72313   8.647   9.332   9.440
56825SOL    HW172314   8.726   9.377   9.410
56825SOL    HW272315   8.650   9.247   9.395
56826SOL     OW72316   1.717   4.267   0.471
56826SOL    HW172317   1.753   4.353   0.492
56826SOL    HW272318   1.643   4.285   0.413
56827SOL     OW72319  11.712   6.239   7.765
56827SOL    HW172320  11.794   6.243   7.716
56827SOL    HW272321  11.644   6.246   7.698
56828SOL     OW72322   8.759  14.253  13.411
56828SOL    HW172323   8.812  14.275  13.334
56828SOL    HW272324   8.731  14.337  13.446
56829SOL     OW72325   2.067   3.879  10.518
56829SOL    HW172326   2.147   3.835  10.545
56829SOL    HW272327   2.094   3.935  10.445
56830SOL     OW72328   6.738   3.391   1.241
56830SOL    HW172329   6.776   3.375   1.327
56830SOL    HW272330   6.812   3.423   1.188
56831SOL     OW72331  12.510  13.336   2.249
56831SOL    HW172332  12.565  13.404   2.211
56831SOL    HW272333  12.430  13.383   2.276
56832SOL     OW72334   0.679  10.040  11.359
56832SOL    HW172335   0.643   9.986  11.289
56832SOL    HW272336   0.772  10.017  11.362
56833SOL     OW72337  11.311  10.266   8.268
56833SOL    HW172338  11.281  10.295   8.354
56833SOL    HW272339  11.231  10.257   8.216
56834SOL     OW72340   6.263   7.879   5.067
56834SOL    HW172341   6.344   7.828   5.066
56834SOL    HW272342   6.270   7.933   5.146
56835SOL     OW72343  10.912  12.032   7.080
56835SOL    HW172344  11.003  12.029   7.049
56835SOL    HW272345  10.860  12.033   6.999
56836SOL     OW72346   7.573   3.215   0.281
56836SOL    HW172347   7.630   3.232   0.356
56836SOL    HW272348   7.595   3.285   0.219
56837SOL     OW72349  11.165   8.941   0.721
56837SOL    HW172350  11.140   8.855   0.687
56837SOL    HW272351  11.228   8.975   0.657
56838SOL     OW72352   4.233  14.271   3.196
56838SOL    HW172353   4.164  14.267   3.129
56838SOL    HW272354   4.312  14.242   3.151
56839SOL     OW72355   3.904   4.033   0.542
56839SOL    HW172356   3.926   3.974   0.470
56839SOL    HW272357   3.877   3.975   0.613
56840SOL     OW72358  14.417   9.228   3.197
56840SOL    HW172359  14.473   9.297   3.162
56840SOL    HW272360  14.346   9.275   3.241
56841SOL     OW72361   9.882  14.183   4.940
56841SOL    HW172362   9.860  14.112   4.880
56841SOL    HW272363   9.810  14.246   4.930
56842SOL     OW72364   6.950   9.701  10.986
56842SOL    HW172365   6.994   9.616  10.986
56842SOL    HW272366   6.896   9.699  10.906
56843SOL     OW72367   6.189   7.372   0.835
56843SOL    HW172368   6.153   7.459   0.852
56843SOL    HW272369   6.206   7.371   0.741
56844SOL     OW72370   4.777   3.537  12.838
56844SOL    HW172371   4.820   3.620  12.859
56844SOL    HW272372   4.753   3.545  12.746
56845SOL     OW72373  12.660  14.211   1.665
56845SOL    HW172374  12.629  14.145   1.726
56845SOL    HW272375  12.593  14.215   1.597
56846SOL     OW72376   1.353   1.420  14.660
56846SOL    HW172377   1.440   1.429  14.700
56846SOL    HW272378   1.337   1.504  14.617
56847SOL     OW72379  12.585   7.208   3.860
56847SOL    HW172380  12.644   7.273   3.822
56847SOL    HW272381  12.527   7.258   3.917
56848SOL     OW72382   4.260   5.851   6.649
56848SOL    HW172383   4.182   5.833   6.597
56848SOL    HW272384   4.227   5.866   6.738
56849SOL     OW72385  10.788   2.765   8.322
56849SOL    HW172386  10.835   2.711   8.258
56849SOL    HW272387  10.856   2.820   8.361
56850SOL     OW72388   0.365  13.331   3.647
56850SOL    HW172389   0.426  13.276   3.599
56850SOL    HW272390   0.385  13.420   3.617
56851SOL     OW72391  10.390  10.067  10.898
56851SOL    HW172392  10.445  10.012  10.954
56851SOL    HW272393  10.341  10.122  10.958
56852SOL     OW72394   6.955  10.986  10.781
56852SOL    HW172395   7.042  11.019  10.760
56852SOL    HW272396   6.950  10.901  10.737
56853SOL     OW72397  14.218   5.536   6.020
56853SOL    HW172398  14.232   5.590   5.943
56853SOL    HW272399  14.200   5.449   5.985
56854SOL     OW72400  14.584  11.572   7.864
56854SOL    HW172401  14.630  11.514   7.926
56854SOL    HW272402  14.497  11.584   7.903
56855SOL     OW72403  10.857   4.550  10.547
56855SOL    HW172404  10.859   4.456  10.529
56855SOL    HW272405  10.946   4.571  10.575
56856SOL     OW72406  11.508  14.824   3.443
56856SOL    HW172407  11.562   0.019   3.419
56856SOL    HW272408  11.512  14.822   3.539
56857SOL     OW72409   6.840  13.085  13.280
56857SOL    HW172410   6.904  13.146  13.244
56857SOL    HW272411   6.890  13.006  13.301
56858SOL     OW72412   9.766  12.278   2.486
56858SOL    HW172413   9.704  12.258   2.556
56858SOL    HW272414   9.840  12.220   2.502
56859SOL     OW72415  10.756   1.667  10.971
56859SOL    HW172416  10.815   1.592  10.980
56859SOL    HW272417  10.670   1.633  10.996
56860SOL     OW72418   2.795   4.980   6.675
56860SOL    HW172419   2.875   4.928   6.664
56860SOL    HW272420   2.730   4.937   6.620
56861SOL     OW72421   0.605   6.598  13.332
56861SOL    HW172422   0.594   6.546  13.252
56861SOL    HW272423   0.687   6.568  13.370
56862SOL     OW72424   9.888   8.171   5.420
56862SOL    HW172425   9.933   8.251   5.395
56862SOL    HW272426   9.827   8.154   5.348
56863SOL     OW72427  13.885   4.528   0.369
56863SOL    HW172428  13.899   4.620   0.393
56863SOL    HW272429  13.961   4.506   0.315
56864SOL     OW72430   9.611   9.110   4.126
56864SOL    HW172431   9.546   9.040   4.128
56864SOL    HW272432   9.560   9.190   4.143
56865SOL     OW72433   3.842   3.115   8.542
56865SOL    HW172434   3.784   3.050   8.501
56865SOL    HW272435   3.783   3.167   8.596
56866SOL     OW72436   4.070   1.343   3.224
56866SOL    HW172437   4.093   1.280   3.155
56866SOL    HW272438   4.141   1.337   3.287
56867SOL     OW72439  14.247   1.145   9.964
56867SOL    HW172440  14.281   1.077   9.905
56867SOL    HW272441  14.181   1.100  10.016
56868SOL     OW72442  13.915  13.312   9.519
56868SOL    HW172443  13.912  13.288   9.426
56868SOL    HW272444  14.004  13.291   9.547
56869SOL     OW72445   9.198   2.535   1.396
56869SOL    HW172446   9.291   2.511   1.394
56869SOL    HW272447   9.171   2.535   1.304
56870SOL     OW72448   4.815   3.144  14.410
56870SOL    HW172449   4.827   3.228  14.453
56870SOL    HW272450   4.721   3.125  14.419
56871SOL     OW72451   4.967  14.746   3.618
56871SOL    HW172452   4.885  14.790   3.639
56871SOL    HW272453   4.945  14.685   3.547
56872SOL     OW72454   5.827   8.346  13.344
56872SOL    HW172455   5.743   8.301  13.330
56872SOL    HW272456   5.810   8.436  13.316
56873SOL     OW72457  14.220  13.951   4.261
56873SOL    HW172458  14.183  13.976   4.176
56873SOL    HW272459  14.152  13.971   4.324
56874SOL     OW72460   6.116   8.939  14.273
56874SOL    HW172461   6.205   8.905  14.267
56874SOL    HW272462   6.066   8.886  14.212
56875SOL     OW72463  10.155  11.509   4.655
56875SOL    HW172464  10.142  11.415   4.658
56875SOL    HW272465  10.132  11.540   4.743
56876SOL     OW72466   1.071  11.217   7.028
56876SOL    HW172467   1.141  11.177   6.977
56876SOL    HW272468   0.997  11.222   6.968
56877SOL     OW72469  13.856   5.239   2.066
56877SOL    HW172470  13.880   5.300   2.136
56877SOL    HW272471  13.783   5.189   2.102
56878SOL     OW72472   4.193   6.217   9.801
56878SOL    HW172473   4.260   6.225   9.733
56878SOL    HW272474   4.207   6.129   9.837
56879SOL     OW72475  10.330   8.957   2.963
56879SOL    HW172476  10.293   8.869   2.950
56879SOL    HW272477  10.315   9.001   2.880
56880SOL     OW72478  13.477   4.272   1.495
56880SOL    HW172479  13.387   4.247   1.475
56880SOL    HW272480  13.530   4.224   1.432
56881SOL     OW72481   7.454   6.004  11.382
56881SOL    HW172482   7.496   5.960  11.308
56881SOL    HW272483   7.502   5.972  11.459
56882SOL     OW72484   1.282   2.449   2.688
56882SOL    HW172485   1.210   2.492   2.735
56882SOL    HW272486   1.355   2.512   2.693
56883SOL     OW72487  13.720  13.972   9.160
56883SOL    HW172488  13.786  13.932   9.217
56883SOL    HW272489  13.645  13.987   9.217
56884SOL     OW72490  13.653   6.464   6.409
56884SOL    HW172491  13.672   6.376   6.444
56884SOL    HW272492  13.628   6.515   6.486
56885SOL     OW72493  14.741   5.535   0.458
56885SOL    HW172494  14.682   5.589   0.405
56885SOL    HW272495  14.816   5.592   0.475
56886SOL     OW72496   5.068  13.639   4.568
56886SOL    HW172497   5.145  13.686   4.599
56886SOL    HW272498   5.002  13.706   4.553
56887SOL     OW72499   3.894  10.808   6.432
56887SOL    HW172500   3.892  10.712   6.435
56887SOL    HW272501   3.828  10.831   6.366
56888SOL     OW72502   6.674  10.467   5.002
56888SOL    HW172503   6.727  10.415   4.941
56888SOL    HW272504   6.735  10.494   5.070
56889SOL     OW72505   5.140   1.301   8.242
56889SOL    HW172506   5.212   1.351   8.281
56889SOL    HW272507   5.084   1.278   8.316
56890SOL     OW72508  13.685   5.647  14.176
56890SOL    HW172509  13.598   5.665  14.141
56890SOL    HW272510  13.701   5.720  14.236
56891SOL     OW72511  14.308   2.933   4.389
56891SOL    HW172512  14.339   2.955   4.301
56891SOL    HW272513  14.388   2.918   4.439
56892SOL     OW72514   0.052   4.685  11.848
56892SOL    HW172515   0.012   4.765  11.881
56892SOL    HW272516  14.871   4.615  11.872
56893SOL     OW72517   5.803   2.214   5.534
56893SOL    HW172518   5.861   2.270   5.585
56893SOL    HW272519   5.715   2.238   5.563
56894SOL     OW72520   3.136  14.223   7.559
56894SOL    HW172521   3.228  14.221   7.585
56894SOL    HW272522   3.106  14.311   7.585
56895SOL     OW72523  13.063  14.811   1.202
56895SOL    HW172524  12.972  14.781   1.210
56895SOL    HW272525  13.099  14.802   1.290
56896SOL     OW72526   1.423   9.203  11.341
56896SOL    HW172527   1.465   9.271  11.394
56896SOL    HW272528   1.483   9.191  11.267
56897SOL     OW72529   0.857   2.875   8.208
56897SOL    HW172530   0.851   2.779   8.209
56897SOL    HW272531   0.895   2.895   8.122
56898SOL     OW72532  12.132   6.445   9.119
56898SOL    HW172533  12.197   6.400   9.174
56898SOL    HW272534  12.139   6.537   9.145
56899SOL     OW72535   1.845   2.265  10.473
56899SOL    HW172536   1.862   2.207  10.399
56899SOL    HW272537   1.778   2.220  10.523
56900SOL     OW72538   9.982   4.835   8.664
56900SOL    HW172539   9.977   4.765   8.599
56900SOL    HW272540  10.008   4.912   8.614
56901SOL     OW72541   6.022   0.632   2.837
56901SOL    HW172542   6.116   0.613   2.845
56901SOL    HW272543   6.016   0.691   2.762
56902SOL     OW72544  10.412   9.639   8.867
56902SOL    HW172545  10.385   9.551   8.894
56902SOL    HW272546  10.337   9.694   8.889
56903SOL     OW72547   5.631  13.121   4.332
56903SOL    HW172548   5.595  13.135   4.245
56903SOL    HW272549   5.725  13.114   4.318
56904SOL     OW72550   0.809  14.833  14.347
56904SOL    HW172551   0.734  14.802  14.398
56904SOL    HW272552   0.798   0.049  14.344
56905SOL     OW72553   8.364   2.088   9.784
56905SOL    HW172554   8.386   2.000   9.815
56905SOL    HW272555   8.434   2.144   9.819
56906SOL     OW72556   4.716   9.902   3.781
56906SOL    HW172557   4.648   9.862   3.835
56906SOL    HW272558   4.775   9.944   3.844
56907SOL     OW72559   7.082   4.766  11.359
56907SOL    HW172560   7.048   4.855  11.349
56907SOL    HW272561   7.169   4.777  11.397
56908SOL     OW72562   8.562   8.520  11.910
56908SOL    HW172563   8.574   8.464  11.986
56908SOL    HW272564   8.649   8.526  11.870
56909SOL     OW72565   8.454   3.688   9.142
56909SOL    HW172566   8.411   3.760   9.188
56909SOL    HW272567   8.512   3.731   9.079
56910SOL     OW72568   1.176   0.184   3.107
56910SOL    HW172569   1.184   0.183   3.012
56910SOL    HW272570   1.104   0.125   3.126
56911SOL     OW72571   1.458   2.019   9.685
56911SOL    HW172572   1.476   2.085   9.618
56911SOL    HW272573   1.371   1.987   9.664
56912SOL     OW72574   2.654   3.057  10.253
56912SOL    HW172575   2.647   2.962  10.257
56912SOL    HW272576   2.673   3.076  10.161
56913SOL     OW72577  14.513   2.785  11.050
56913SOL    HW172578  14.561   2.742  11.121
56913SOL    HW272579  14.502   2.718  10.983
56914SOL     OW72580   9.932   2.171   6.785
56914SOL    HW172581   9.868   2.197   6.720
56914SOL    HW272582   9.991   2.111   6.738
56915SOL     OW72583  13.618  12.423  10.830
56915SOL    HW172584  13.625  12.503  10.777
56915SOL    HW272585  13.633  12.352  10.768
56916SOL     OW72586   4.587   7.328   1.498
56916SOL    HW172587   4.532   7.371   1.433
56916SOL    HW272588   4.641   7.267   1.447
56917SOL     OW72589   8.208  12.973   0.221
56917SOL    HW172590   8.202  12.892   0.271
56917SOL    HW272591   8.217  13.041   0.287
56918SOL     OW72592  11.311   2.406   0.096
56918SOL    HW172593  11.371   2.469   0.056
56918SOL    HW272594  11.283   2.350   0.023
56919SOL     OW72595   4.729   9.619   9.791
56919SOL    HW172596   4.802   9.668   9.754
56919SOL    HW272597   4.656   9.635   9.732
56920SOL     OW72598   4.409  10.564   7.763
56920SOL    HW172599   4.496  10.598   7.741
56920SOL    HW272600   4.426  10.498   7.831
56921SOL     OW72601  12.163   0.086   1.394
56921SOL    HW172602  12.076   0.053   1.374
56921SOL    HW272603  12.156   0.121   1.483
56922SOL     OW72604   5.382  11.940  11.533
56922SOL    HW172605   5.359  11.855  11.569
56922SOL    HW272606   5.309  11.997  11.556
56923SOL     OW72607   7.985  13.705  14.652
56923SOL    HW172608   8.028  13.639  14.707
56923SOL    HW272609   7.923  13.748  14.711
56924SOL     OW72610   8.132   6.661   7.684
56924SOL    HW172611   8.118   6.729   7.618
56924SOL    HW272612   8.051   6.610   7.684
56925SOL     OW72613  10.733  11.583  10.241
56925SOL    HW172614  10.669  11.563  10.173
56925SOL    HW272615  10.697  11.543  10.320
56926SOL     OW72616   0.645   1.023  14.077
56926SOL    HW172617   0.664   0.975  13.997
56926SOL    HW272618   0.593   1.098  14.048
56927SOL     OW72619   9.290   6.190   1.243
56927SOL    HW172620   9.333   6.272   1.267
56927SOL    HW272621   9.289   6.139   1.324
56928SOL     OW72622   5.321   6.158   3.342
56928SOL    HW172623   5.337   6.132   3.251
56928SOL    HW272624   5.228   6.139   3.357
56929SOL     OW72625   9.429   0.423  12.539
56929SOL    HW172626   9.369   0.435  12.613
56929SOL    HW272627   9.493   0.360  12.571
56930SOL     OW72628   5.419   6.919   3.362
56930SOL    HW172629   5.501   6.967   3.354
56930SOL    HW272630   5.444   6.827   3.366
56931SOL     OW72631  13.337  11.376  14.151
56931SOL    HW172632  13.428  11.347  14.149
56931SOL    HW272633  13.302  11.339  14.232
56932SOL     OW72634   4.399   2.598   7.589
56932SOL    HW172635   4.370   2.657   7.659
56932SOL    HW272636   4.325   2.540   7.574
56933SOL     OW72637   4.081  13.846   0.293
56933SOL    HW172638   4.016  13.875   0.356
56933SOL    HW272639   4.152  13.910   0.300
56934SOL     OW72640   8.730   7.698  13.910
56934SOL    HW172641   8.818   7.660  13.908
56934SOL    HW272642   8.726   7.745  13.992
56935SOL     OW72643  10.884   5.371   0.872
56935SOL    HW172644  10.894   5.299   0.935
56935SOL    HW272645  10.900   5.450   0.924
56936SOL     OW72646   8.809   7.070   8.838
56936SOL    HW172647   8.889   7.117   8.816
56936SOL    HW272648   8.812   6.992   8.782
56937SOL     OW72649   1.061   6.031   9.991
56937SOL    HW172650   1.046   6.011  10.084
56937SOL    HW272651   1.138   6.088   9.992
56938SOL     OW72652   2.376  11.111   4.825
56938SOL    HW172653   2.413  11.134   4.910
56938SOL    HW272654   2.300  11.168   4.815
56939SOL     OW72655   1.836   0.166   7.033
56939SOL    HW172656   1.840   0.182   6.938
56939SOL    HW272657   1.908   0.218   7.069
56940SOL     OW72658  11.055   7.628   5.542
56940SOL    HW172659  10.983   7.569   5.566
56940SOL    HW272660  11.067   7.614   5.448
56941SOL     OW72661  12.876  12.512   1.156
56941SOL    HW172662  12.808  12.510   1.089
56941SOL    HW272663  12.831  12.486   1.237
56942SOL     OW72664   2.784   4.633   9.434
56942SOL    HW172665   2.710   4.634   9.494
56942SOL    HW272666   2.780   4.545   9.394
56943SOL     OW72667   7.206  12.052   7.329
56943SOL    HW172668   7.218  12.071   7.422
56943SOL    HW272669   7.251  11.969   7.315
56944SOL     OW72670   4.402  12.431   0.014
56944SOL    HW172671   4.399  12.526   0.027
56944SOL    HW272672   4.356  12.395   0.090
56945SOL     OW72673   0.973   2.899   0.175
56945SOL    HW172674   0.976   2.806   0.153
56945SOL    HW272675   1.045   2.912   0.237
56946SOL     OW72676  13.306   0.611   1.120
56946SOL    HW172677  13.252   0.690   1.125
56946SOL    HW272678  13.388   0.634   1.164
56947SOL     OW72679  12.117   2.567  13.973
56947SOL    HW172680  12.136   2.600  14.060
56947SOL    HW272681  12.054   2.496  13.988
56948SOL     OW72682   0.274   9.576  10.076
56948SOL    HW172683   0.302   9.633  10.148
56948SOL    HW272684   0.336   9.592  10.006
56949SOL     OW72685  14.050   0.645   8.835
56949SOL    HW172686  14.049   0.740   8.824
56949SOL    HW272687  14.040   0.631   8.929
56950SOL     OW72688  11.791   9.488  13.717
56950SOL    HW172689  11.732   9.538  13.774
56950SOL    HW272690  11.879   9.505  13.753
56951SOL     OW72691   9.437  11.557   9.637
56951SOL    HW172692   9.440  11.592   9.548
56951SOL    HW272693   9.440  11.634   9.693
56952SOL     OW72694   6.996   3.550   7.800
56952SOL    HW172695   6.970   3.640   7.780
56952SOL    HW272696   7.087   3.558   7.831
56953SOL     OW72697   1.695   9.212   1.684
56953SOL    HW172698   1.711   9.280   1.619
56953SOL    HW272699   1.782   9.181   1.708
56954SOL     OW72700  11.238   0.939  13.176
56954SOL    HW172701  11.234   0.859  13.123
56954SOL    HW272702  11.256   0.908  13.265
56955SOL     OW72703  13.127  12.939  13.005
56955SOL    HW172704  13.220  12.954  13.023
56955SOL    HW272705  13.105  12.860  13.055
56956SOL     OW72706   1.378   7.514  12.732
56956SOL    HW172707   1.441   7.535  12.664
56956SOL    HW272708   1.389   7.585  12.796
56957SOL     OW72709   7.302   4.185   1.021
56957SOL    HW172710   7.397   4.175   1.033
56957SOL    HW272711   7.264   4.118   1.078
56958SOL     OW72712  11.197   1.680   1.628
56958SOL    HW172713  11.230   1.755   1.679
56958SOL    HW272714  11.201   1.710   1.537
56959SOL     OW72715   3.891  11.734   4.627
56959SOL    HW172716   3.853  11.822   4.634
56959SOL    HW272717   3.843  11.682   4.691
56960SOL     OW72718   0.741   7.304   0.484
56960SOL    HW172719   0.747   7.336   0.574
56960SOL    HW272720   0.779   7.374   0.431
56961SOL     OW72721   4.316   6.590   6.055
56961SOL    HW172722   4.396   6.602   6.003
56961SOL    HW272723   4.295   6.497   6.043
56962SOL     OW72724   4.261   3.414   9.121
56962SOL    HW172725   4.239   3.323   9.102
56962SOL    HW272726   4.223   3.464   9.049
56963SOL     OW72727  13.521   7.051   0.130
56963SOL    HW172728  13.437   7.017   0.098
56963SOL    HW272729  13.554   6.983   0.188
56964SOL     OW72730   6.292   7.254   3.607
56964SOL    HW172731   6.372   7.246   3.659
56964SOL    HW272732   6.264   7.345   3.622
56965SOL     OW72733   6.720   0.393   5.045
56965SOL    HW172734   6.700   0.476   5.089
56965SOL    HW272735   6.801   0.363   5.087
56966SOL     OW72736  11.935   4.578   4.663
56966SOL    HW172737  11.981   4.507   4.618
56966SOL    HW272738  12.005   4.628   4.706
56967SOL     OW72739   2.034   3.126   2.152
56967SOL    HW172740   1.968   3.185   2.190
56967SOL    HW272741   2.022   3.044   2.198
56968SOL     OW72742   8.836   1.455   6.281
56968SOL    HW172743   8.793   1.539   6.300
56968SOL    HW272744   8.882   1.470   6.199
56969SOL     OW72745   7.613   7.338   5.441
56969SOL    HW172746   7.692   7.341   5.387
56969SOL    HW272747   7.635   7.390   5.519
56970SOL     OW72748  12.654   6.923   7.624
56970SOL    HW172749  12.563   6.921   7.654
56970SOL    HW272750  12.706   6.907   7.702
56971SOL     OW72751   2.437   4.925   6.315
56971SOL    HW172752   2.366   4.915   6.251
56971SOL    HW272753   2.454   5.019   6.317
56972SOL     OW72754  10.172   2.575   3.019
56972SOL    HW172755  10.171   2.486   3.053
56972SOL    HW272756  10.197   2.629   3.095
56973SOL     OW72757  11.063   4.706   9.648
56973SOL    HW172758  11.141   4.658   9.619
56973SOL    HW272759  11.004   4.638   9.680
56974SOL     OW72760   0.460   4.478   0.954
56974SOL    HW172761   0.401   4.456   1.026
56974SOL    HW272762   0.428   4.562   0.921
56975SOL     OW72763  10.568   3.075   2.043
56975SOL    HW172764  10.587   3.161   2.004
56975SOL    HW272765  10.577   3.089   2.137
56976SOL     OW72766  11.315   7.912   7.931
56976SOL    HW172767  11.283   7.851   7.997
56976SOL    HW272768  11.340   7.856   7.857
56977SOL     OW72769   3.837   4.170   5.923
56977SOL    HW172770   3.833   4.265   5.913
56977SOL    HW272771   3.928   4.152   5.945
56978SOL     OW72772  13.177   9.631   0.854
56978SOL    HW172773  13.253   9.665   0.806
56978SOL    HW272774  13.104   9.684   0.824
56979SOL     OW72775   4.656  10.667   2.385
56979SOL    HW172776   4.608  10.587   2.405
56979SOL    HW272777   4.588  10.734   2.378
56980SOL     OW72778   0.019  14.493   5.130
56980SOL    HW172779   0.111  14.466   5.138
56980SOL    HW272780  14.871  14.462   5.044
56981SOL     OW72781   1.353   3.087  14.691
56981SOL    HW172782   1.285   3.116  14.751
56981SOL    HW272783   1.412   3.035  14.746
56982SOL     OW72784   4.366   1.816   6.850
56982SOL    HW172785   4.302   1.760   6.805
56982SOL    HW272786   4.321   1.848   6.928
56983SOL     OW72787   4.483   3.143   5.600
56983SOL    HW172788   4.453   3.222   5.644
56983SOL    HW272789   4.500   3.080   5.670
56984SOL     OW72790  13.425   3.777   0.478
56984SOL    HW172791  13.461   3.691   0.457
56984SOL    HW272792  13.431   3.783   0.573
56985SOL     OW72793   8.313   3.211   2.849
56985SOL    HW172794   8.224   3.177   2.860
56985SOL    HW272795   8.303   3.306   2.855
56986SOL     OW72796   4.094   9.935  11.038
56986SOL    HW172797   4.134   9.848  11.041
56986SOL    HW272798   4.159   9.992  11.079
56987SOL     OW72799   9.459   4.872   6.159
56987SOL    HW172800   9.440   4.804   6.223
56987SOL    HW272801   9.430   4.953   6.202
56988SOL     OW72802   5.098  12.759  11.669
56988SOL    HW172803   5.089  12.837  11.723
56988SOL    HW272804   5.014  12.713  11.679
56989SOL     OW72805   2.945   0.218   4.803
56989SOL    HW172806   3.010   0.147   4.809
56989SOL    HW272807   2.911   0.213   4.714
56990SOL     OW72808  12.082   0.642  11.149
56990SOL    HW172809  12.046   0.568  11.198
56990SOL    HW272810  12.023   0.652  11.074
56991SOL     OW72811   7.722   4.449   1.614
56991SOL    HW172812   7.723   4.432   1.708
56991SOL    HW272813   7.719   4.544   1.607
56992SOL     OW72814  13.636  10.361  12.238
56992SOL    HW172815  13.619  10.453  12.223
56992SOL    HW272816  13.707  10.339  12.177
56993SOL     OW72817  11.651  10.614   9.925
56993SOL    HW172818  11.664  10.567   9.843
56993SOL    HW272819  11.641  10.545   9.991
56994SOL     OW72820   8.007   7.070   3.180
56994SOL    HW172821   7.970   7.139   3.235
56994SOL    HW272822   7.954   6.993   3.199
56995SOL     OW72823   0.304  10.901   7.877
56995SOL    HW172824   0.315  10.807   7.861
56995SOL    HW272825   0.338  10.943   7.798
56996SOL     OW72826   2.360   3.350  14.845
56996SOL    HW172827   2.390   3.263  14.872
56996SOL    HW272828   2.390   3.359  14.755
56997SOL     OW72829   2.322  10.228   5.683
56997SOL    HW172830   2.351  10.306   5.636
56997SOL    HW272831   2.398  10.169   5.680
56998SOL     OW72832   1.099  11.412  10.155
56998SOL    HW172833   1.120  11.319  10.142
56998SOL    HW272834   1.105  11.425  10.250
56999SOL     OW72835   4.551   3.315   0.012
56999SOL    HW172836   4.566   3.333   0.105
56999SOL    HW272837   4.623   3.360  14.847
57000SOL     OW72838   1.663  10.456   7.757
57000SOL    HW172839   1.754  10.473   7.782
57000SOL    HW272840   1.634  10.386   7.816
57001SOL     OW72841  11.640   0.055   3.100
57001SOL    HW172842  11.642  14.848   3.141
57001SOL    HW272843  11.726   0.093   3.120
57002SOL     OW72844  11.012  11.781   0.715
57002SOL    HW172845  11.023  11.847   0.646
57002SOL    HW272846  10.962  11.711   0.672
57003SOL     OW72847  14.021   1.706  11.551
57003SOL    HW172848  14.000   1.771  11.484
57003SOL    HW272849  14.010   1.622  11.508
57004SOL     OW72850   2.458   7.467  12.955
57004SOL    HW172851   2.479   7.487  12.864
57004SOL    HW272852   2.363   7.464  12.958
57005SOL     OW72853   7.555   5.968  13.615
57005SOL    HW172854   7.493   6.030  13.654
57005SOL    HW272855   7.501   5.909  13.563
57006SOL     OW72856   3.483  10.697   9.951
57006SOL    HW172857   3.556  10.636   9.959
57006SOL    HW272858   3.421  10.653   9.894
57007SOL     OW72859  10.872   0.162   8.005
57007SOL    HW172860  10.845   0.071   7.990
57007SOL    HW272861  10.872   0.172   8.100
57008SOL     OW72862   9.246  11.631  10.731
57008SOL    HW172863   9.249  11.618  10.636
57008SOL    HW272864   9.328  11.592  10.763
57009SOL     OW72865  10.617   7.439   6.300
57009SOL    HW172866  10.541   7.443   6.241
57009SOL    HW272867  10.590   7.379   6.369
57010SOL     OW72868  11.445   7.291  12.219
57010SOL    HW172869  11.380   7.252  12.277
57010SOL    HW272870  11.528   7.254  12.249
57011SOL     OW72871  11.191   5.304  10.742
57011SOL    HW172872  11.176   5.384  10.793
57011SOL    HW272873  11.133   5.311  10.667
57012SOL     OW72874  13.942   2.889   2.197
57012SOL    HW172875  13.866   2.908   2.143
57012SOL    HW272876  13.996   2.968   2.191
57013SOL     OW72877   2.751   1.513  11.734
57013SOL    HW172878   2.823   1.480  11.787
57013SOL    HW272879   2.673   1.476  11.774
57014SOL     OW72880   1.492   4.359   8.678
57014SOL    HW172881   1.585   4.340   8.680
57014SOL    HW272882   1.477   4.416   8.754
57015SOL     OW72883   1.472   6.200   7.329
57015SOL    HW172884   1.491   6.214   7.422
57015SOL    HW272885   1.498   6.282   7.287
57016SOL     OW72886   0.958  13.167  14.578
57016SOL    HW172887   0.908  13.089  14.558
57016SOL    HW272888   0.946  13.180  14.672
57017SOL     OW72889  12.498   4.500   6.817
57017SOL    HW172890  12.550   4.520   6.739
57017SOL    HW272891  12.528   4.563   6.883
57018SOL     OW72892   7.290  13.920   6.480
57018SOL    HW172893   7.241  13.931   6.399
57018SOL    HW272894   7.230  13.948   6.549
57019SOL     OW72895   1.713   2.861   5.541
57019SOL    HW172896   1.650   2.899   5.479
57019SOL    HW272897   1.683   2.889   5.627
57020SOL     OW72898   9.151   6.866   2.044
57020SOL    HW172899   9.193   6.839   2.126
57020SOL    HW272900   9.058   6.848   2.058
57021SOL     OW72901  13.052   6.460  13.298
57021SOL    HW172902  13.133   6.501  13.329
57021SOL    HW272903  12.994   6.459  13.375
57022SOL     OW72904   5.412   3.645  14.211
57022SOL    HW172905   5.383   3.579  14.274
57022SOL    HW272906   5.377   3.616  14.127
57023SOL     OW72907   1.772   5.243   3.224
57023SOL    HW172908   1.705   5.236   3.292
57023SOL    HW272909   1.851   5.207   3.265
57024SOL     OW72910  11.451  11.211  14.393
57024SOL    HW172911  11.388  11.284  14.389
57024SOL    HW272912  11.507  11.224  14.316
57025SOL     OW72913  14.796  12.447   8.958
57025SOL    HW172914  14.784  12.459   9.052
57025SOL    HW272915  14.716  12.403   8.929
57026SOL     OW72916   6.612   1.297   3.201
57026SOL    HW172917   6.535   1.284   3.256
57026SOL    HW272918   6.658   1.370   3.241
57027SOL     OW72919   4.247  12.127  13.563
57027SOL    HW172920   4.280  12.066  13.629
57027SOL    HW272921   4.158  12.148  13.593
57028SOL     OW72922   9.791   1.755   3.982
57028SOL    HW172923   9.871   1.753   4.034
57028SOL    HW272924   9.797   1.677   3.927
57029SOL     OW72925  14.789   3.782  12.585
57029SOL    HW172926  14.795   3.819  12.497
57029SOL    HW272927  14.770   3.689  12.570
57030SOL     OW72928   0.499   0.446  11.379
57030SOL    HW172929   0.560   0.518  11.395
57030SOL    HW272930   0.414   0.480  11.407
57031SOL     OW72931   6.112  13.630   8.015
57031SOL    HW172932   6.167  13.572   8.068
57031SOL    HW272933   6.164  13.709   8.003
57032SOL     OW72934   0.287  11.014   0.647
57032SOL    HW172935   0.249  11.059   0.723
57032SOL    HW272936   0.372  10.984   0.677
57033SOL     OW72937   0.818   9.702   0.075
57033SOL    HW172938   0.892   9.760   0.060
57033SOL    HW272939   0.854   9.630   0.127
57034SOL     OW72940  11.287   4.171   0.181
57034SOL    HW172941  11.334   4.108   0.236
57034SOL    HW272942  11.327   4.162   0.095
57035SOL     OW72943   4.447   4.560   8.028
57035SOL    HW172944   4.437   4.546   8.122
57035SOL    HW272945   4.539   4.540   8.010
57036SOL     OW72946   9.297   3.993  12.182
57036SOL    HW172947   9.297   3.907  12.140
57036SOL    HW272948   9.267   3.976  12.271
57037SOL     OW72949   1.915   0.094  10.268
57037SOL    HW172950   1.870   0.010  10.282
57037SOL    HW272951   1.977   0.101  10.340
57038SOL     OW72952   6.644   2.906   5.634
57038SOL    HW172953   6.575   2.885   5.696
57038SOL    HW272954   6.606   2.887   5.548
57039SOL     OW72955   1.291  11.970   3.681
57039SOL    HW172956   1.295  11.950   3.775
57039SOL    HW272957   1.342  11.901   3.640
57040SOL     OW72958  10.129   1.893   8.225
57040SOL    HW172959  10.197   1.866   8.163
57040SOL    HW272960  10.047   1.866   8.184
57041SOL     OW72961   7.263  10.863  11.780
57041SOL    HW172962   7.247  10.917  11.703
57041SOL    HW272963   7.319  10.916  11.836
57042SOL     OW72964   2.007   7.224  13.642
57042SOL    HW172965   2.084   7.258  13.687
57042SOL    HW272966   1.966   7.301  13.602
57043SOL     OW72967   4.667   8.263  12.663
57043SOL    HW172968   4.599   8.240  12.727
57043SOL    HW272969   4.691   8.180  12.623
57044SOL     OW72970   1.182   2.243   4.741
57044SOL    HW172971   1.167   2.154   4.709
57044SOL    HW272972   1.188   2.296   4.662
57045SOL     OW72973  13.307   3.091   2.007
57045SOL    HW172974  13.399   3.113   2.024
57045SOL    HW272975  13.300   2.998   2.027
57046SOL     OW72976   9.994  11.683  12.617
57046SOL    HW172977   9.978  11.591  12.594
57046SOL    HW272978  10.090  11.690  12.620
57047SOL     OW72979  10.249   4.958  13.861
57047SOL    HW172980  10.275   5.013  13.934
57047SOL    HW272981  10.165   4.920  13.889
57048SOL     OW72982  13.679   1.448  13.412
57048SOL    HW172983  13.597   1.489  13.438
57048SOL    HW272984  13.694   1.480  13.323
57049SOL     OW72985   3.535   6.832  14.732
57049SOL    HW172986   3.608   6.777  14.705
57049SOL    HW272987   3.512   6.883  14.654
57050SOL     OW72988   1.129   9.294   3.303
57050SOL    HW172989   1.108   9.354   3.232
57050SOL    HW272990   1.109   9.207   3.269
57051SOL     OW72991  13.382   4.776   5.328
57051SOL    HW172992  13.384   4.681   5.338
57051SOL    HW272993  13.303   4.803   5.375
57052SOL     OW72994   4.250  10.090  12.620
57052SOL    HW172995   4.158  10.114  12.637
57052SOL    HW272996   4.299  10.168  12.644
57053SOL     OW72997   4.518   5.230   9.326
57053SOL    HW172998   4.487   5.215   9.415
57053SOL    HW272999   4.513   5.325   9.314
57054SOL     OW73000  13.346   7.258  10.978
57054SOL    HW173001  13.431   7.274  10.937
57054SOL    HW273002  13.342   7.163  10.989
57055SOL     OW73003  11.592   3.418  13.499
57055SOL    HW173004  11.666   3.427  13.558
57055SOL    HW273005  11.629   3.380  13.419
57056SOL     OW73006  13.842   8.506   5.192
57056SOL    HW173007  13.841   8.454   5.272
57056SOL    HW273008  13.789   8.583   5.212
57057SOL     OW73009   9.631  12.584   4.654
57057SOL    HW173010   9.570  12.604   4.725
57057SOL    HW273011   9.597  12.633   4.579
57058SOL     OW73012   7.351   8.895  10.030
57058SOL    HW173013   7.432   8.914   9.983
57058SOL    HW273014   7.287   8.876   9.960
57059SOL     OW73015  13.568  11.398  14.694
57059SOL    HW173016  13.652  11.417  14.735
57059SOL    HW273017  13.585  11.320  14.640
57060SOL     OW73018   0.659   3.690   6.536
57060SOL    HW173019   0.671   3.615   6.478
57060SOL    HW273020   0.674   3.766   6.479
57061SOL     OW73021   2.070   0.125  11.012
57061SOL    HW173022   1.978   0.108  11.029
57061SOL    HW273023   2.109   0.134  11.099
57062SOL     OW73024  13.447   4.221   4.796
57062SOL    HW173025  13.465   4.128   4.811
57062SOL    HW273026  13.507   4.266   4.856
57063SOL     OW73027  12.797   0.346  10.121
57063SOL    HW173028  12.873   0.397  10.152
57063SOL    HW273029  12.825   0.310  10.037
57064SOL     OW73030   5.137   9.740   2.474
57064SOL    HW173031   5.182   9.689   2.406
57064SOL    HW273032   5.058   9.772   2.430
57065SOL     OW73033   6.258   9.887  10.980
57065SOL    HW173034   6.265   9.874  10.886
57065SOL    HW273035   6.192   9.824  11.008
57066SOL     OW73036  13.997  10.705   7.501
57066SOL    HW173037  13.910  10.670   7.481
57066SOL    HW273038  13.980  10.793   7.535
57067SOL     OW73039   0.284   9.984   5.631
57067SOL    HW173040   0.358   9.933   5.599
57067SOL    HW273041   0.280  10.061   5.574
57068SOL     OW73042   3.889  13.694  10.115
57068SOL    HW173043   3.858  13.765  10.171
57068SOL    HW273044   3.924  13.738  10.038
57069SOL     OW73045   7.279   3.897  12.470
57069SOL    HW173046   7.356   3.859  12.428
57069SOL    HW273047   7.297   3.890  12.564
57070SOL     OW73048   1.110   4.622   4.389
57070SOL    HW173049   1.149   4.630   4.476
57070SOL    HW273050   1.040   4.687   4.388
57071SOL     OW73051  12.584   1.345   1.068
57071SOL    HW173052  12.629   1.393   1.137
57071SOL    HW273053  12.622   1.379   0.987
57072SOL     OW73054  14.786   6.076   8.139
57072SOL    HW173055  14.700   6.038   8.118
57072SOL    HW273056  14.806   6.042   8.226
57073SOL     OW73057   3.195  11.027   6.120
57073SOL    HW173058   3.175  11.035   6.026
57073SOL    HW273059   3.201  11.117   6.151
57074SOL     OW73060   4.188  14.831   4.668
57074SOL    HW173061   4.153  14.809   4.754
57074SOL    HW273062   4.111  14.837   4.611
57075SOL     OW73063   7.216   4.688   1.296
57075SOL    HW173064   7.161   4.616   1.266
57075SOL    HW273065   7.263   4.652   1.372
57076SOL     OW73066   9.178  13.482  12.265
57076SOL    HW173067   9.183  13.578  12.257
57076SOL    HW273068   9.117  13.455  12.197
57077SOL     OW73069   9.518   8.995   0.193
57077SOL    HW173070   9.428   8.971   0.169
57077SOL    HW273071   9.518   8.995   0.288
57078SOL     OW73072   3.098   4.275   3.101
57078SOL    HW173073   3.049   4.308   3.025
57078SOL    HW273074   3.057   4.191   3.120
57079SOL     OW73075  10.189   8.582   8.227
57079SOL    HW173076  10.163   8.490   8.221
57079SOL    HW273077  10.108   8.631   8.215
57080SOL     OW73078   4.027  11.365   6.626
57080SOL    HW173079   3.991  11.277   6.630
57080SOL    HW273080   4.116  11.357   6.661
57081SOL     OW73081   7.736   5.024  12.973
57081SOL    HW173082   7.748   5.106  13.020
57081SOL    HW273083   7.795   4.962  13.017
57082SOL     OW73084   9.079  12.616   8.887
57082SOL    HW173085   9.141  12.543   8.891
57082SOL    HW273086   9.001  12.579   8.846
57083SOL     OW73087  11.399   4.069  10.857
57083SOL    HW173088  11.419   4.161  10.837
57083SOL    HW273089  11.315   4.073  10.904
57084SOL     OW73090   4.924   1.328  13.834
57084SOL    HW173091   4.993   1.305  13.895
57084SOL    HW273092   4.869   1.390  13.882
57085SOL     OW73093   1.665   1.890  11.846
57085SOL    HW173094   1.741   1.870  11.900
57085SOL    HW273095   1.598   1.828  11.875
57086SOL     OW73096  12.620  14.363   4.565
57086SOL    HW173097  12.542  14.373   4.620
57086SOL    HW273098  12.587  14.337   4.479
57087SOL     OW73099  13.500   7.454   7.910
57087SOL    HW173100  13.470   7.502   7.833
57087SOL    HW273101  13.596   7.456   7.903
57088SOL     OW73102   0.187   7.686   9.449
57088SOL    HW173103   0.282   7.684   9.445
57088SOL    HW273104   0.165   7.650   9.535
57089SOL     OW73105   3.870   5.125  13.663
57089SOL    HW173106   3.820   5.195  13.704
57089SOL    HW273107   3.954   5.124  13.710
57090SOL     OW73108  14.467   9.084   3.799
57090SOL    HW173109  14.515   9.124   3.872
57090SOL    HW273110  14.520   9.103   3.722
57091SOL     OW73111   4.711  14.467  14.802
57091SOL    HW173112   4.673  14.438  14.719
57091SOL    HW273113   4.798  14.426  14.804
57092SOL     OW73114   5.572   6.724   3.978
57092SOL    HW173115   5.555   6.817   3.965
57092SOL    HW273116   5.667   6.716   3.973
57093SOL     OW73117   7.524   1.523   9.523
57093SOL    HW173118   7.561   1.457   9.463
57093SOL    HW273119   7.495   1.472   9.599
57094SOL     OW73120   2.042  10.080  11.188
57094SOL    HW173121   2.085  10.056  11.270
57094SOL    HW273122   2.091  10.156  11.157
57095SOL     OW73123   7.261   9.751   2.648
57095SOL    HW173124   7.254   9.835   2.605
57095SOL    HW273125   7.180   9.705   2.626
57096SOL     OW73126   8.830  13.267   0.267
57096SOL    HW173127   8.781  13.296   0.190
57096SOL    HW273128   8.762  13.244   0.331
57097SOL     OW73129   0.669   6.837   6.345
57097SOL    HW173130   0.578   6.812   6.328
57097SOL    HW273131   0.686   6.910   6.285
57098SOL     OW73132   6.533   1.998   0.217
57098SOL    HW173133   6.540   2.029   0.308
57098SOL    HW273134   6.491   1.912   0.224
57099SOL     OW73135   1.025   2.921   9.417
57099SOL    HW173136   0.930   2.917   9.405
57099SOL    HW273137   1.038   2.902   9.510
57100SOL     OW73138  11.648   2.753  10.805
57100SOL    HW173139  11.683   2.671  10.770
57100SOL    HW273140  11.570   2.771  10.753
57101SOL     OW73141  14.361  13.908   2.527
57101SOL    HW173142  14.441  13.893   2.477
57101SOL    HW273143  14.377  13.990   2.574
57102SOL     OW73144  12.582  13.247   8.645
57102SOL    HW173145  12.653  13.291   8.599
57102SOL    HW273146  12.607  13.154   8.644
57103SOL     OW73147   9.970   3.101   8.763
57103SOL    HW173148   9.916   3.094   8.684
57103SOL    HW273149   9.908   3.093   8.835
57104SOL     OW73150  10.471   9.073   4.569
57104SOL    HW173151  10.504   9.130   4.499
57104SOL    HW273152  10.397   9.121   4.606
57105SOL     OW73153   0.350  10.471   5.427
57105SOL    HW173154   0.422  10.468   5.364
57105SOL    HW273155   0.346  10.563   5.453
57106SOL     OW73156   9.813   2.956   0.776
57106SOL    HW173157   9.846   3.046   0.770
57106SOL    HW273158   9.887   2.902   0.746
57107SOL     OW73159  13.333  12.933   4.330
57107SOL    HW173160  13.378  12.974   4.404
57107SOL    HW273161  13.392  12.862   4.303
57108SOL     OW73162   9.973   9.322  12.911
57108SOL    HW173163   9.932   9.409  12.908
57108SOL    HW273164   9.913   9.269  12.964
57109SOL     OW73165   6.856   5.641   1.055
57109SOL    HW173166   6.864   5.692   1.135
57109SOL    HW273167   6.844   5.705   0.986
57110SOL     OW73168   3.759  11.158   6.919
57110SOL    HW173169   3.778  11.066   6.899
57110SOL    HW273170   3.844  11.202   6.914
57111SOL     OW73171   8.304   5.773   8.960
57111SOL    HW173172   8.209   5.777   8.948
57111SOL    HW273173   8.335   5.715   8.891
57112SOL     OW73174   8.249  12.860  12.188
57112SOL    HW173175   8.236  12.911  12.268
57112SOL    HW273176   8.328  12.896  12.148
57113SOL     OW73177   7.035   8.156   4.386
57113SOL    HW173178   7.092   8.120   4.453
57113SOL    HW273179   6.947   8.155   4.425
57114SOL     OW73180   3.028   5.762  11.123
57114SOL    HW173181   3.118   5.732  11.140
57114SOL    HW273182   2.975   5.683  11.130
57115SOL     OW73183   8.702  10.426  10.951
57115SOL    HW173184   8.744  10.511  10.936
57115SOL    HW273185   8.741  10.394  11.032
57116SOL     OW73186  12.865   2.512  11.267
57116SOL    HW173187  12.928   2.520  11.195
57116SOL    HW273188  12.891   2.431  11.312
57117SOL     OW73189  12.138   2.042   4.850
57117SOL    HW173190  12.120   2.102   4.778
57117SOL    HW273191  12.082   1.966   4.833
57118SOL     OW73192   7.498  11.883  12.481
57118SOL    HW173193   7.576  11.874  12.536
57118SOL    HW273194   7.525  11.939  12.409
57119SOL     OW73195  14.621  12.247   1.439
57119SOL    HW173196  14.646  12.339   1.448
57119SOL    HW273197  14.539  12.250   1.388
57120SOL     OW73198   0.507  11.609   0.531
57120SOL    HW173199   0.590  11.595   0.577
57120SOL    HW273200   0.523  11.686   0.476
57121SOL     OW73201   3.576   8.298   0.290
57121SOL    HW173202   3.619   8.252   0.218
57121SOL    HW273203   3.589   8.241   0.366
57122SOL     OW73204  10.160   1.372   1.076
57122SOL    HW173205  10.255   1.382   1.066
57122SOL    HW273206  10.136   1.308   1.009
57123SOL     OW73207   7.696   3.693   9.667
57123SOL    HW173208   7.618   3.687   9.722
57123SOL    HW273209   7.690   3.618   9.608
57124SOL     OW73210   7.077   7.730   1.877
57124SOL    HW173211   7.066   7.771   1.791
57124SOL    HW273212   7.009   7.663   1.880
57125SOL     OW73213  10.153  14.766  13.652
57125SOL    HW173214  10.061  14.750  13.669
57125SOL    HW273215  10.187  14.802  13.734
57126SOL     OW73216   6.639  12.998   7.191
57126SOL    HW173217   6.668  12.928   7.132
57126SOL    HW273218   6.611  12.953   7.270
57127SOL     OW73219   1.379   1.471   6.699
57127SOL    HW173220   1.306   1.416   6.726
57127SOL    HW273221   1.410   1.433   6.617
57128SOL     OW73222   7.730   2.071   0.474
57128SOL    HW173223   7.709   1.995   0.528
57128SOL    HW273224   7.726   2.039   0.384
57129SOL     OW73225   7.709   1.072  13.769
57129SOL    HW173226   7.644   1.002  13.776
57129SOL    HW273227   7.790   1.033  13.801
57130SOL     OW73228   3.448  13.085  14.761
57130SOL    HW173229   3.501  13.133  14.824
57130SOL    HW273230   3.474  13.120  14.676
57131SOL     OW73231   3.016   4.702   2.354
57131SOL    HW173232   3.068   4.771   2.394
57131SOL    HW273233   2.929   4.712   2.392
57132SOL     OW73234   3.210   3.932   8.186
57132SOL    HW173235   3.196   4.026   8.198
57132SOL    HW273236   3.123   3.895   8.178
57133SOL     OW73237  13.636   6.261   0.794
57133SOL    HW173238  13.712   6.209   0.769
57133SOL    HW273239  13.672   6.342   0.828
57134SOL     OW73240   3.341   4.391  14.664
57134SOL    HW173241   3.323   4.318  14.604
57134SOL    HW273242   3.320   4.356  14.750
57135SOL     OW73243   1.785   1.952  14.682
57135SOL    HW173244   1.693   1.959  14.655
57135SOL    HW273245   1.814   2.043  14.690
57136SOL     OW73246   2.728  10.777  13.934
57136SOL    HW173247   2.822  10.775  13.951
57136SOL    HW273248   2.707  10.870  13.926
57137SOL     OW73249   1.604  13.444   8.920
57137SOL    HW173250   1.616  13.396   8.838
57137SOL    HW273251   1.615  13.378   8.989
57138SOL     OW73252  11.505   8.338   4.871
57138SOL    HW173253  11.450   8.408   4.836
57138SOL    HW273254  11.479   8.331   4.963
57139SOL     OW73255   9.871   2.873   4.690
57139SOL    HW173256   9.800   2.834   4.740
57139SOL    HW273257   9.897   2.806   4.627
57140SOL     OW73258   8.268   3.544   6.415
57140SOL    HW173259   8.235   3.633   6.400
57140SOL    HW273260   8.233   3.520   6.501
57141SOL     OW73261   0.561  12.012  13.095
57141SOL    HW173262   0.623  12.001  13.167
57141SOL    HW273263   0.592  12.090  13.049
57142SOL     OW73264   2.378   9.183   9.261
57142SOL    HW173265   2.430   9.253   9.301
57142SOL    HW273266   2.289   9.216   9.262
57143SOL     OW73267   7.683   6.541  10.146
57143SOL    HW173268   7.692   6.581  10.060
57143SOL    HW273269   7.717   6.452  10.135
57144SOL     OW73270   0.668   6.205   8.917
57144SOL    HW173271   0.601   6.261   8.956
57144SOL    HW273272   0.697   6.253   8.839
57145SOL     OW73273   5.253  13.283  13.287
57145SOL    HW173274   5.259  13.378  13.278
57145SOL    HW273275   5.236  13.268  13.380
57146SOL     OW73276   1.689  13.603  10.210
57146SOL    HW173277   1.615  13.543  10.221
57146SOL    HW273278   1.653  13.678  10.162
57147SOL     OW73279  11.610   6.967   7.796
57147SOL    HW173280  11.652   6.985   7.880
57147SOL    HW273281  11.605   6.872   7.791
57148SOL     OW73282   7.474   9.682   8.006
57148SOL    HW173283   7.502   9.737   7.933
57148SOL    HW273284   7.483   9.739   8.083
57149SOL     OW73285   6.591  10.388   9.510
57149SOL    HW173286   6.629  10.466   9.470
57149SOL    HW273287   6.646  10.316   9.479
57150SOL     OW73288   3.637   0.745   8.401
57150SOL    HW173289   3.646   0.807   8.328
57150SOL    HW273290   3.573   0.681   8.370
57151SOL     OW73291   1.848   5.066  13.549
57151SOL    HW173292   1.761   5.103  13.533
57151SOL    HW273293   1.847   5.042  13.641
57152SOL     OW73294   2.942   9.924  14.310
57152SOL    HW173295   2.954   9.832  14.285
57152SOL    HW273296   2.881   9.958  14.245
57153SOL     OW73297  12.277   7.887  12.213
57153SOL    HW173298  12.301   7.814  12.155
57153SOL    HW273299  12.194   7.860  12.252
57154SOL     OW73300  10.923   8.597  10.190
57154SOL    HW173301  10.854   8.663  10.184
57154SOL    HW273302  10.877   8.513  10.183
57155SOL     OW73303   2.359   7.536  14.389
57155SOL    HW173304   2.283   7.483  14.367
57155SOL    HW273305   2.342   7.569  14.477
57156SOL     OW73306   5.763   3.135   5.879
57156SOL    HW173307   5.825   3.135   5.952
57156SOL    HW273308   5.807   3.087   5.810
57157SOL     OW73309   6.663  10.443   5.841
57157SOL    HW173310   6.599  10.480   5.901
57157SOL    HW273311   6.683  10.357   5.876
57158SOL     OW73312   2.366   5.818   0.795
57158SOL    HW173313   2.355   5.729   0.827
57158SOL    HW273314   2.341   5.814   0.703
57159SOL     OW73315  14.825   3.094   6.625
57159SOL    HW173316  14.855   3.129   6.709
57159SOL    HW273317  14.805   3.002   6.644
57160SOL     OW73318   0.666  13.892   1.044
57160SOL    HW173319   0.659  13.905   0.949
57160SOL    HW273320   0.575  13.882   1.072
57161SOL     OW73321  10.058  14.541   3.862
57161SOL    HW173322   9.974  14.497   3.872
57161SOL    HW273323  10.113  14.504   3.931
57162SOL     OW73324   7.480   3.812  11.942
57162SOL    HW173325   7.420   3.738  11.944
57162SOL    HW273326   7.565   3.776  11.965
57163SOL     OW73327   8.083   2.204   8.120
57163SOL    HW173328   8.143   2.134   8.145
57163SOL    HW273329   8.098   2.216   8.027
57164SOL     OW73330  14.311   0.840  14.572
57164SOL    HW173331  14.270   0.900  14.508
57164SOL    HW273332  14.382   0.798  14.523
57165SOL     OW73333   0.026   7.578   6.587
57165SOL    HW173334   0.045   7.668   6.561
57165SOL    HW273335   0.106   7.547   6.627
57166SOL     OW73336   2.729  12.373   3.841
57166SOL    HW173337   2.756  12.308   3.777
57166SOL    HW273338   2.792  12.445   3.831
57167SOL     OW73339   5.686   0.028   1.420
57167SOL    HW173340   5.775  14.874   1.431
57167SOL    HW273341   5.694   0.095   1.352
57168SOL     OW73342  12.517  13.885   7.833
57168SOL    HW173343  12.569  13.919   7.905
57168SOL    HW273344  12.493  13.962   7.782
57169SOL     OW73345   2.941   1.733   4.255
57169SOL    HW173346   2.963   1.747   4.347
57169SOL    HW273347   2.913   1.642   4.251
57170SOL     OW73348  14.422   1.066  13.312
57170SOL    HW173349  14.393   0.989  13.263
57170SOL    HW273350  14.409   1.042  13.404
57171SOL     OW73351  11.193   6.701   0.378
57171SOL    HW173352  11.103   6.731   0.386
57171SOL    HW273353  11.188   6.606   0.386
57172SOL     OW73354   7.589   2.376   5.034
57172SOL    HW173355   7.683   2.378   5.018
57172SOL    HW273356   7.575   2.438   5.105
57173SOL     OW73357   2.443  12.149  12.976
57173SOL    HW173358   2.508  12.179  12.913
57173SOL    HW273359   2.366  12.129  12.923
57174SOL     OW73360   2.337   6.441   5.056
57174SOL    HW173361   2.281   6.404   5.123
57174SOL    HW273362   2.412   6.477   5.104
57175SOL     OW73363   9.677  14.302   6.550
57175SOL    HW173364   9.590  14.267   6.532
57175SOL    HW273365   9.669  14.396   6.529
57176SOL     OW73366  13.595   8.388  10.621
57176SOL    HW173367  13.616   8.367  10.530
57176SOL    HW273368  13.532   8.320  10.647
57177SOL     OW73369   0.680   4.598  11.680
57177SOL    HW173370   0.613   4.634  11.738
57177SOL    HW273371   0.631   4.544  11.618
57178SOL     OW73372   6.412   3.803   9.960
57178SOL    HW173373   6.495   3.834   9.995
57178SOL    HW273374   6.363   3.774  10.037
57179SOL     OW73375   2.077   5.859   3.301
57179SOL    HW173376   2.042   5.816   3.379
57179SOL    HW273377   2.146   5.916   3.334
57180SOL     OW73378   6.297  13.598   6.316
57180SOL    HW173379   6.351  13.527   6.350
57180SOL    HW273380   6.282  13.655   6.392
57181SOL     OW73381   0.296  11.849   6.821
57181SOL    HW173382   0.327  11.772   6.867
57181SOL    HW273383   0.205  11.829   6.799
57182SOL     OW73384   0.064  13.878   9.256
57182SOL    HW173385  14.864  13.892   9.205
57182SOL    HW273386   0.076  13.783   9.258
57183SOL     OW73387  13.313  11.447   6.084
57183SOL    HW173388  13.356  11.366   6.054
57183SOL    HW273389  13.336  11.453   6.177
57184SOL     OW73390  12.622  11.884  10.356
57184SOL    HW173391  12.599  11.843  10.273
57184SOL    HW273392  12.542  11.880  10.408
57185SOL     OW73393  12.769   9.254   2.750
57185SOL    HW173394  12.860   9.228   2.740
57185SOL    HW273395  12.760   9.274   2.844
57186SOL     OW73396   8.303   4.590  13.151
57186SOL    HW173397   8.240   4.595  13.079
57186SOL    HW273398   8.335   4.500  13.149
57187SOL     OW73399   0.836   0.494   5.617
57187SOL    HW173400   0.827   0.399   5.607
57187SOL    HW273401   0.931   0.509   5.622
57188SOL     OW73402   1.003  13.435   4.989
57188SOL    HW173403   1.010  13.340   4.982
57188SOL    HW273404   1.032  13.468   4.905
57189SOL     OW73405  10.680  13.676  12.634
57189SOL    HW173406  10.757  13.730  12.652
57189SOL    HW273407  10.610  13.716  12.685
57190SOL     OW73408   6.200   3.371   5.948
57190SOL    HW173409   6.164   3.454   5.917
57190SOL    HW273410   6.275   3.396   6.002
57191SOL     OW73411   1.330   8.844   0.647
57191SOL    HW173412   1.342   8.891   0.730
57191SOL    HW273413   1.382   8.894   0.584
57192SOL     OW73414  12.876   8.650   5.974
57192SOL    HW173415  12.872   8.694   5.889
57192SOL    HW273416  12.952   8.591   5.966
57193SOL     OW73417  11.575   8.292  10.637
57193SOL    HW173418  11.607   8.341  10.561
57193SOL    HW273419  11.482   8.312  10.641
57194SOL     OW73420   8.517  13.652   8.506
57194SOL    HW173421   8.440  13.675   8.558
57194SOL    HW273422   8.569  13.596   8.564
57195SOL     OW73423   3.941   2.551   1.976
57195SOL    HW173424   3.891   2.633   1.977
57195SOL    HW273425   3.895   2.495   2.038
57196SOL     OW73426  11.674   2.916   9.670
57196SOL    HW173427  11.766   2.913   9.696
57196SOL    HW273428  11.634   2.841   9.714
57197SOL     OW73429   9.773  12.743   6.250
57197SOL    HW173430   9.684  12.762   6.218
57197SOL    HW273431   9.767  12.755   6.345
57198SOL     OW73432   4.564   8.797   0.482
57198SOL    HW173433   4.569   8.824   0.574
57198SOL    HW273434   4.607   8.712   0.479
57199SOL     OW73435   3.705   7.897   0.596
57199SOL    HW173436   3.730   7.856   0.513
57199SOL    HW273437   3.786   7.899   0.647
57200SOL     OW73438  14.502  12.373   9.101
57200SOL    HW173439  14.544  12.456   9.124
57200SOL    HW273440  14.435  12.361   9.168
57201SOL     OW73441   0.555   9.011  10.941
57201SOL    HW173442   0.588   9.027  10.853
57201SOL    HW273443   0.629   8.973  10.989
57202SOL     OW73444   1.062  13.666   0.565
57202SOL    HW173445   1.015  13.669   0.648
57202SOL    HW273446   1.055  13.575   0.537
57203SOL     OW73447  13.630  12.764   7.284
57203SOL    HW173448  13.586  12.774   7.368
57203SOL    HW273449  13.596  12.682   7.249
57204SOL     OW73450  11.027   0.797   2.802
57204SOL    HW173451  11.105   0.828   2.756
57204SOL    HW273452  10.954   0.839   2.756
57205SOL     OW73453   1.206   1.932   9.560
57205SOL    HW173454   1.139   1.994   9.532
57205SOL    HW273455   1.241   1.896   9.478
57206SOL     OW73456   8.658  11.946   5.077
57206SOL    HW173457   8.689  12.036   5.084
57206SOL    HW273458   8.642  11.918   5.167
57207SOL     OW73459   2.645   9.750   9.813
57207SOL    HW173460   2.598   9.715   9.737
57207SOL    HW273461   2.724   9.696   9.820
57208SOL     OW73462   4.372   3.012   5.407
57208SOL    HW173463   4.414   2.961   5.338
57208SOL    HW273464   4.440   3.071   5.439
57209SOL     OW73465  12.147  13.982   6.027
57209SOL    HW173466  12.072  13.982   6.086
57209SOL    HW273467  12.162  13.889   6.007
57210SOL     OW73468  13.978   2.671   2.033
57210SOL    HW173469  14.014   2.718   1.957
57210SOL    HW273470  13.966   2.740   2.099
57211SOL     OW73471   0.146  10.272  13.608
57211SOL    HW173472   0.199  10.212  13.555
57211SOL    HW273473   0.144  10.232  13.695
57212SOL     OW73474   5.376   4.026  10.543
57212SOL    HW173475   5.289   4.067  10.542
57212SOL    HW273476   5.371   3.962  10.614
57213SOL     OW73477   9.632   1.707  12.581
57213SOL    HW173478   9.620   1.728  12.488
57213SOL    HW273479   9.717   1.663  12.585
57214SOL     OW73480  11.391   5.273   9.822
57214SOL    HW173481  11.447   5.260   9.898
57214SOL    HW273482  11.431   5.346   9.775
57215SOL     OW73483   7.464   9.860  10.380
57215SOL    HW173484   7.483   9.824  10.294
57215SOL    HW273485   7.435   9.950  10.363
57216SOL     OW73486   9.069   6.264   3.277
57216SOL    HW173487   9.137   6.282   3.342
57216SOL    HW273488   9.068   6.341   3.220
57217SOL     OW73489   2.046  10.492  11.166
57217SOL    HW173490   2.109  10.438  11.119
57217SOL    HW273491   2.039  10.452  11.253
57218SOL     OW73492   7.588  10.365   5.710
57218SOL    HW173493   7.503  10.330   5.683
57218SOL    HW273494   7.638  10.372   5.628
57219SOL     OW73495   3.206  12.727  11.112
57219SOL    HW173496   3.134  12.752  11.054
57219SOL    HW273497   3.187  12.773  11.194
57220SOL     OW73498   2.744   8.405   7.071
57220SOL    HW173499   2.675   8.430   7.010
57220SOL    HW273500   2.826   8.422   7.024
57221SOL     OW73501   1.626   9.801  14.129
57221SOL    HW173502   1.652   9.815  14.038
57221SOL    HW273503   1.700   9.755  14.169
57222SOL     OW73504   8.110   0.759   5.656
57222SOL    HW173505   8.191   0.787   5.699
57222SOL    HW273506   8.058   0.839   5.650
57223SOL     OW73507  13.359   1.454   1.703
57223SOL    HW173508  13.328   1.524   1.760
57223SOL    HW273509  13.454   1.464   1.702
57224SOL     OW73510  11.545   2.188   6.897
57224SOL    HW173511  11.581   2.156   6.815
57224SOL    HW273512  11.455   2.214   6.876
57225SOL     OW73513   4.918   4.032   5.981
57225SOL    HW173514   4.956   4.048   5.894
57225SOL    HW273515   4.867   4.110   6.000
57226SOL     OW73516  11.504  10.750  14.337
57226SOL    HW173517  11.514  10.657  14.358
57226SOL    HW273518  11.575  10.793  14.383
57227SOL     OW73519  10.825   8.065   6.369
57227SOL    HW173520  10.801   8.142   6.421
57227SOL    HW273521  10.742   8.021   6.352
57228SOL     OW73522  11.234  11.380  14.682
57228SOL    HW173523  11.238  11.362  14.588
57228SOL    HW273524  11.325  11.392  14.709
57229SOL     OW73525  10.331   2.884   1.157
57229SOL    HW173526  10.353   2.920   1.243
57229SOL    HW273527  10.241   2.912   1.142
57230SOL     OW73528   3.809   7.030  13.238
57230SOL    HW173529   3.808   6.978  13.318
57230SOL    HW273530   3.900   7.056  13.226
57231SOL     OW73531  12.735   2.383   7.398
57231SOL    HW173532  12.779   2.464   7.371
57231SOL    HW273533  12.749   2.323   7.325
57232SOL     OW73534   5.871   5.837   5.784
57232SOL    HW173535   5.938   5.833   5.853
57232SOL    HW273536   5.828   5.922   5.798
57233SOL     OW73537   1.636  12.305  10.961
57233SOL    HW173538   1.607  12.394  10.978
57233SOL    HW273539   1.556  12.253  10.963
57234SOL     OW73540   8.602   5.199   9.724
57234SOL    HW173541   8.514   5.163   9.714
57234SOL    HW273542   8.591   5.270   9.787
57235SOL     OW73543   5.626  14.822   6.925
57235SOL    HW173544   5.577  14.741   6.938
57235SOL    HW273545   5.659  14.845   7.011
57236SOL     OW73546   5.463   4.508  10.642
57236SOL    HW173547   5.434   4.428  10.599
57236SOL    HW273548   5.558   4.509  10.630
57237SOL     OW73549   9.482   6.378  14.510
57237SOL    HW173550   9.571   6.412  14.521
57237SOL    HW273551   9.426   6.456  14.517
57238SOL     OW73552   1.649   3.278  12.116
57238SOL    HW173553   1.674   3.371  12.119
57238SOL    HW273554   1.648   3.257  12.022
57239SOL     OW73555   1.832   6.982   3.893
57239SOL    HW173556   1.855   7.068   3.929
57239SOL    HW273557   1.762   6.950   3.950
57240SOL     OW73558   3.876  13.718   6.602
57240SOL    HW173559   3.964  13.732   6.565
57240SOL    HW273560   3.883  13.634   6.646
57241SOL     OW73561  10.848  13.277   9.374
57241SOL    HW173562  10.824  13.228   9.296
57241SOL    HW273563  10.943  13.264   9.383
57242SOL     OW73564   5.483   4.176  13.895
57242SOL    HW173565   5.498   4.215  13.981
57242SOL    HW273566   5.471   4.083  13.913
57243SOL     OW73567   1.566   9.673   8.704
57243SOL    HW173568   1.605   9.589   8.729
57243SOL    HW273569   1.628   9.710   8.641
57244SOL     OW73570  14.850   3.842   0.988
57244SOL    HW173571  14.809   3.779   1.048
57244SOL    HW273572  14.815   3.927   1.014
57245SOL     OW73573   2.334  12.085   9.386
57245SOL    HW173574   2.401  12.030   9.426
57245SOL    HW273575   2.285  12.026   9.329
57246SOL     OW73576  12.403   3.505   1.694
57246SOL    HW173577  12.382   3.454   1.615
57246SOL    HW273578  12.423   3.439   1.760
57247SOL     OW73579   9.506  11.322   9.248
57247SOL    HW173580   9.494  11.388   9.316
57247SOL    HW273581   9.443  11.253   9.271
57248SOL     OW73582   2.154   5.038   6.631
57248SOL    HW173583   2.079   5.071   6.581
57248SOL    HW273584   2.225   5.099   6.611
57249SOL     OW73585   0.104  13.266   3.569
57249SOL    HW173586   0.064  13.349   3.598
57249SOL    HW273587   0.198  13.279   3.583
57250SOL     OW73588  13.237  13.317   3.553
57250SOL    HW173589  13.207  13.226   3.557
57250SOL    HW273590  13.292  13.321   3.474
57251SOL     OW73591   6.196  11.134   7.790
57251SOL    HW173592   6.129  11.077   7.752
57251SOL    HW273593   6.213  11.199   7.721
57252SOL     OW73594  12.024   2.545   0.844
57252SOL    HW173595  11.951   2.555   0.905
57252SOL    HW273596  12.058   2.458   0.862
57253SOL     OW73597   2.690   6.891   1.704
57253SOL    HW173598   2.622   6.879   1.770
57253SOL    HW273599   2.646   6.876   1.620
57254SOL     OW73600  12.535   4.805   0.165
57254SOL    HW173601  12.471   4.777   0.099
57254SOL    HW273602  12.487   4.870   0.217
57255SOL     OW73603   7.736   4.921   1.332
57255SOL    HW173604   7.762   5.013   1.329
57255SOL    HW273605   7.699   4.904   1.245
57256SOL     OW73606   4.654   4.410  14.332
57256SOL    HW173607   4.724   4.455  14.284
57256SOL    HW273608   4.698   4.372  14.408
57257SOL     OW73609   9.377   3.019   9.684
57257SOL    HW173610   9.336   3.095   9.644
57257SOL    HW273611   9.469   3.025   9.659
57258SOL     OW73612   4.423  10.865   4.996
57258SOL    HW173613   4.436  10.770   4.995
57258SOL    HW273614   4.381  10.884   4.912
57259SOL     OW73615  11.572   1.178  13.038
57259SOL    HW173616  11.644   1.147  13.093
57259SOL    HW273617  11.612   1.240  12.977
57260SOL     OW73618   1.472   2.632   7.871
57260SOL    HW173619   1.485   2.611   7.963
57260SOL    HW273620   1.445   2.723   7.871
57261SOL     OW73621   1.529   9.976   5.881
57261SOL    HW173622   1.547   9.948   5.971
57261SOL    HW273623   1.529   9.894   5.831
57262SOL     OW73624  11.494   0.776   6.638
57262SOL    HW173625  11.551   0.851   6.653
57262SOL    HW273626  11.552   0.700   6.634
57263SOL     OW73627   0.582   0.008  13.558
57263SOL    HW173628   0.491   0.001  13.530
57263SOL    HW273629   0.594   0.101  13.575
57264SOL     OW73630  11.341  13.046   4.918
57264SOL    HW173631  11.393  13.125   4.934
57264SOL    HW273632  11.301  13.026   5.003
57265SOL     OW73633   2.199   4.131  11.523
57265SOL    HW173634   2.128   4.195  11.518
57265SOL    HW273635   2.192   4.082  11.441
57266SOL     OW73636   6.535   8.889   7.247
57266SOL    HW173637   6.536   8.934   7.332
57266SOL    HW273638   6.587   8.810   7.261
57267SOL     OW73639   1.842  11.630   7.419
57267SOL    HW173640   1.827  11.712   7.466
57267SOL    HW273641   1.800  11.564   7.473
57268SOL     OW73642   9.197  11.674  13.225
57268SOL    HW173643   9.203  11.769  13.211
57268SOL    HW273644   9.112  11.649  13.188
57269SOL     OW73645   1.036   8.361   5.096
57269SOL    HW173646   1.084   8.377   5.015
57269SOL    HW273647   0.957   8.315   5.069
57270SOL     OW73648   1.383   9.412   8.280
57270SOL    HW173649   1.349   9.386   8.195
57270SOL    HW273650   1.432   9.493   8.262
57271SOL     OW73651   5.767   4.031  10.183
57271SOL    HW173652   5.701   4.001  10.246
57271SOL    HW273653   5.844   4.050  10.236
57272SOL     OW73654   3.851  13.972  14.056
57272SOL    HW173655   3.940  14.003  14.070
57272SOL    HW273656   3.823  13.940  14.142
57273SOL     OW73657   5.744   9.212   3.665
57273SOL    HW173658   5.737   9.297   3.708
57273SOL    HW273659   5.837   9.204   3.642
57274SOL     OW73660  10.411   1.627   8.760
57274SOL    HW173661  10.408   1.534   8.741
57274SOL    HW273662  10.332   1.643   8.812
57275SOL     OW73663   2.285  10.268  13.420
57275SOL    HW173664   2.379  10.254  13.414
57275SOL    HW273665   2.262  10.243  13.510
57276SOL     OW73666   6.045   4.737   7.362
57276SOL    HW173667   6.072   4.828   7.378
57276SOL    HW273668   6.013   4.706   7.447
57277SOL     OW73669  13.273   0.246   0.768
57277SOL    HW173670  13.188   0.244   0.811
57277SOL    HW273671  13.261   0.303   0.693
57278SOL     OW73672   1.869  14.269   7.915
57278SOL    HW173673   1.795  14.327   7.895
57278SOL    HW273674   1.856  14.245   8.006
57279SOL     OW73675  10.519   6.520  13.163
57279SOL    HW173676  10.465   6.449  13.127
57279SOL    HW273677  10.601   6.477  13.189
57280SOL     OW73678   3.750   9.865  14.334
57280SOL    HW173679   3.753   9.925  14.408
57280SOL    HW273680   3.692   9.794  14.362
57281SOL     OW73681  10.562  10.340  13.615
57281SOL    HW173682  10.477  10.359  13.653
57281SOL    HW273683  10.614  10.419  13.630
57282SOL     OW73684   2.027   9.724  10.466
57282SOL    HW173685   2.075   9.663  10.410
57282SOL    HW273686   2.039   9.690  10.554
57283SOL     OW73687   2.273   0.534   2.710
57283SOL    HW173688   2.217   0.552   2.634
57283SOL    HW273689   2.329   0.611   2.717
57284SOL     OW73690  11.873   7.576   2.026
57284SOL    HW173691  11.821   7.505   2.061
57284SOL    HW273692  11.854   7.577   1.932
57285SOL     OW73693  11.077   5.395   7.416
57285SOL    HW173694  11.056   5.390   7.322
57285SOL    HW273695  11.163   5.437   7.419
57286SOL     OW73696  14.437   4.357  11.800
57286SOL    HW173697  14.375   4.406  11.854
57286SOL    HW273698  14.469   4.287  11.858
57287SOL     OW73699   6.204   5.576  13.972
57287SOL    HW173700   6.269   5.613  14.032
57287SOL    HW273701   6.148   5.522  14.028
57288SOL     OW73702   5.099  12.360   4.081
57288SOL    HW173703   5.109  12.374   4.175
57288SOL    HW273704   5.161  12.291   4.060
57289SOL     OW73705   4.911  11.147  12.290
57289SOL    HW173706   4.834  11.123  12.238
57289SOL    HW273707   4.985  11.106  12.245
57290SOL     OW73708   8.761   3.472   0.009
57290SOL    HW173709   8.842   3.523   0.016
57290SOL    HW273710   8.745   3.464  14.795
57291SOL     OW73711   6.912  14.006   7.734
57291SOL    HW173712   6.946  13.930   7.780
57291SOL    HW273713   6.834  13.974   7.689
57292SOL     OW73714  14.240   6.363   7.243
57292SOL    HW173715  14.301   6.298   7.279
57292SOL    HW273716  14.195   6.317   7.172
57293SOL     OW73717  12.240   5.871   2.562
57293SOL    HW173718  12.311   5.836   2.508
57293SOL    HW273719  12.235   5.963   2.539
57294SOL     OW73720   7.521  12.485  12.134
57294SOL    HW173721   7.440  12.461  12.179
57294SOL    HW273722   7.497  12.559  12.078
57295SOL     OW73723  13.186  13.289  12.724
57295SOL    HW173724  13.186  13.294  12.820
57295SOL    HW273725  13.094  13.292  12.700
57296SOL     OW73726  14.288   4.024   9.959
57296SOL    HW173727  14.232   4.094   9.924
57296SOL    HW273728  14.373   4.038   9.919
57297SOL     OW73729   7.247   2.953   3.814
57297SOL    HW173730   7.303   2.992   3.747
57297SOL    HW273731   7.218   3.027   3.867
57298SOL     OW73732  10.144   1.648   7.785
57298SOL    HW173733  10.059   1.606   7.775
57298SOL    HW273734  10.165   1.680   7.697
57299SOL     OW73735  13.047   9.415  12.988
57299SOL    HW173736  13.120   9.455  12.941
57299SOL    HW273737  13.032   9.332  12.942
57300SOL     OW73738   4.718   7.306   4.710
57300SOL    HW173739   4.727   7.400   4.722
57300SOL    HW273740   4.640   7.282   4.761
57301SOL     OW73741  11.737   3.249  11.100
57301SOL    HW173742  11.747   3.273  11.008
57301SOL    HW273743  11.651   3.284  11.124
57302SOL     OW73744   9.263  10.397   3.592
57302SOL    HW173745   9.210  10.385   3.671
57302SOL    HW273746   9.273  10.492   3.584
57303SOL     OW73747   2.246   9.180   7.369
57303SOL    HW173748   2.268   9.177   7.276
57303SOL    HW273749   2.284   9.262   7.400
57304SOL     OW73750   3.312   2.135   4.061
57304SOL    HW173751   3.244   2.103   4.002
57304SOL    HW273752   3.376   2.063   4.065
57305SOL     OW73753   1.112   0.738   1.644
57305SOL    HW173754   1.136   0.739   1.736
57305SOL    HW273755   1.192   0.764   1.598
57306SOL     OW73756   0.084  12.798  11.613
57306SOL    HW173757   0.000  12.762  11.585
57306SOL    HW273758   0.083  12.792  11.708
57307SOL     OW73759  14.189   8.433   2.997
57307SOL    HW173760  14.143   8.493   2.939
57307SOL    HW273761  14.256   8.393   2.941
57308SOL     OW73762   0.976   2.898  11.324
57308SOL    HW173763   1.070   2.893  11.308
57308SOL    HW273764   0.962   2.845  11.402
57309SOL     OW73765   2.164   3.643   9.392
57309SOL    HW173766   2.208   3.644   9.308
57309SOL    HW273767   2.083   3.594   9.376
57310SOL     OW73768   4.942   3.620   4.709
57310SOL    HW173769   4.962   3.713   4.699
57310SOL    HW273770   4.847   3.615   4.701
57311SOL     OW73771  14.335  13.813   8.377
57311SOL    HW173772  14.278  13.796   8.302
57311SOL    HW273773  14.275  13.831   8.449
57312SOL     OW73774   1.125   1.835   3.353
57312SOL    HW173775   1.122   1.891   3.276
57312SOL    HW273776   1.204   1.861   3.400
57313SOL     OW73777   2.143   3.106   3.380
57313SOL    HW173778   2.139   3.022   3.334
57313SOL    HW273779   2.061   3.110   3.430
57314SOL     OW73780   4.756   8.336  14.630
57314SOL    HW173781   4.673   8.378  14.653
57314SOL    HW273782   4.796   8.314  14.714
57315SOL     OW73783  12.821   9.966  11.283
57315SOL    HW173784  12.753   9.901  11.266
57315SOL    HW273785  12.860   9.940  11.366
57316SOL     OW73786   9.204   8.791   0.811
57316SOL    HW173787   9.238   8.835   0.888
57316SOL    HW273788   9.140   8.852   0.774
57317SOL     OW73789   2.190   1.583   7.078
57317SOL    HW173790   2.211   1.530   7.001
57317SOL    HW273791   2.108   1.546   7.111
57318SOL     OW73792   3.407   9.916   3.301
57318SOL    HW173793   3.422   9.836   3.250
57318SOL    HW273794   3.365   9.976   3.239
57319SOL     OW73795   7.934  10.626   1.997
57319SOL    HW173796   7.895  10.547   2.036
57319SOL    HW273797   8.014  10.595   1.955
57320SOL     OW73798   5.204   9.051  13.882
57320SOL    HW173799   5.237   9.092  13.802
57320SOL    HW273800   5.114   9.026  13.862
57321SOL     OW73801   3.293   8.247   5.653
57321SOL    HW173802   3.199   8.267   5.651
57321SOL    HW273803   3.335   8.333   5.649
57322SOL     OW73804  10.267   8.985   4.877
57322SOL    HW173805  10.324   9.032   4.937
57322SOL    HW273806  10.178   9.006   4.906
57323SOL     OW73807  10.609   7.580   8.114
57323SOL    HW173808  10.600   7.489   8.142
57323SOL    HW273809  10.539   7.593   8.050
57324SOL     OW73810  11.410  11.438   4.351
57324SOL    HW173811  11.319  11.431   4.320
57324SOL    HW273812  11.446  11.511   4.302
57325SOL     OW73813  14.447   8.041  12.356
57325SOL    HW173814  14.406   8.121  12.324
57325SOL    HW273815  14.419   8.035  12.448
57326SOL     OW73816   4.542   8.550   5.435
57326SOL    HW173817   4.580   8.487   5.373
57326SOL    HW273818   4.589   8.632   5.418
57327SOL     OW73819   0.711   5.798  14.803
57327SOL    HW173820   0.644   5.757  14.747
57327SOL    HW273821   0.763   5.725  14.835
57328SOL     OW73822   6.381   5.176  13.131
57328SOL    HW173823   6.397   5.108  13.196
57328SOL    HW273824   6.286   5.189  13.131
57329SOL     OW73825   8.184  11.031  11.478
57329SOL    HW173826   8.253  11.021  11.413
57329SOL    HW273827   8.184  11.124  11.500
57330SOL     OW73828   1.138  11.225  13.405
57330SOL    HW173829   1.108  11.306  13.363
57330SOL    HW273830   1.060  11.169  13.407
57331SOL     OW73831  11.828   1.449   1.173
57331SOL    HW173832  11.738   1.482   1.173
57331SOL    HW273833  11.818   1.355   1.189
57332SOL     OW73834   2.690  13.688  13.464
57332SOL    HW173835   2.680  13.746  13.388
57332SOL    HW273836   2.738  13.612  13.429
57333SOL     OW73837   3.264   7.786   5.011
57333SOL    HW173838   3.354   7.789   5.044
57333SOL    HW273839   3.258   7.700   4.969
57334SOL     OW73840   4.403   7.841  10.366
57334SOL    HW173841   4.376   7.916  10.314
57334SOL    HW273842   4.388   7.868  10.457
57335SOL     OW73843   2.790   5.918  13.706
57335SOL    HW173844   2.697   5.939  13.714
57335SOL    HW273845   2.821   5.973  13.634
57336SOL     OW73846  11.600  11.610   6.577
57336SOL    HW173847  11.552  11.579   6.500
57336SOL    HW273848  11.691  11.613   6.549
57337SOL     OW73849   5.904   8.229   5.837
57337SOL    HW173850   5.886   8.215   5.930
57337SOL    HW273851   5.890   8.144   5.796
57338SOL     OW73852   9.696   9.978  10.389
57338SOL    HW173853   9.685  10.049  10.453
57338SOL    HW273854   9.693  10.021  10.304
57339SOL     OW73855  11.095   6.930  12.463
57339SOL    HW173856  11.146   6.861  12.421
57339SOL    HW273857  11.109   6.916  12.556
57340SOL     OW73858   9.885   8.065   3.387
57340SOL    HW173859   9.854   8.098   3.303
57340SOL    HW273860   9.806   8.053   3.439
57341SOL     OW73861   2.856   9.052  11.573
57341SOL    HW173862   2.895   9.027  11.657
57341SOL    HW273863   2.901   9.133  11.549
57342SOL     OW73864   7.023   6.544   4.155
57342SOL    HW173865   6.992   6.459   4.184
57342SOL    HW273866   6.953   6.578   4.100
57343SOL     OW73867   0.093   4.122  14.864
57343SOL    HW173868   0.113   4.117  14.771
57343SOL    HW273869   0.028   4.192  14.871
57344SOL     OW73870   2.116  12.128   7.005
57344SOL    HW173871   2.067  12.047   6.997
57344SOL    HW273872   2.077  12.173   7.080
57345SOL     OW73873   1.476   9.787   5.693
57345SOL    HW173874   1.405   9.800   5.630
57345SOL    HW273875   1.554   9.776   5.639
57346SOL     OW73876  12.340  13.448   2.700
57346SOL    HW173877  12.284  13.385   2.656
57346SOL    HW273878  12.285  13.487   2.768
57347SOL     OW73879   9.940   7.376   1.172
57347SOL    HW173880   9.916   7.286   1.148
57347SOL    HW273881  10.032   7.384   1.146
57348SOL     OW73882  11.665  14.805   2.512
57348SOL    HW173883  11.741  14.813   2.570
57348SOL    HW273884  11.645   0.016   2.486
57349SOL     OW73885  11.944  13.175   6.834
57349SOL    HW173886  11.891  13.214   6.904
57349SOL    HW273887  12.020  13.232   6.827
57350SOL     OW73888   3.923   0.155   4.372
57350SOL    HW173889   3.989   0.220   4.397
57350SOL    HW273890   3.840   0.192   4.402
57351SOL     OW73891  11.939  12.817   1.578
57351SOL    HW173892  12.016  12.833   1.523
57351SOL    HW273893  11.922  12.901   1.620
57352SOL     OW73894   2.952   0.447   7.073
57352SOL    HW173895   3.043   0.469   7.094
57352SOL    HW273896   2.901   0.517   7.114
57353SOL     OW73897   0.502   2.735   9.461
57353SOL    HW173898   0.447   2.665   9.425
57353SOL    HW273899   0.440   2.804   9.484
57354SOL     OW73900   8.721  14.277   2.177
57354SOL    HW173901   8.668  14.225   2.117
57354SOL    HW273902   8.735  14.359   2.130
57355SOL     OW73903   4.436  12.825   5.429
57355SOL    HW173904   4.498  12.754   5.414
57355SOL    HW273905   4.440  12.878   5.349
57356SOL     OW73906   8.358   4.366   6.293
57356SOL    HW173907   8.388   4.335   6.207
57356SOL    HW273908   8.438   4.392   6.338
57357SOL     OW73909  13.064   5.379   7.527
57357SOL    HW173910  13.044   5.286   7.523
57357SOL    HW273911  13.148   5.387   7.483
57358SOL     OW73912   7.539   1.695  10.648
57358SOL    HW173913   7.549   1.615  10.597
57358SOL    HW273914   7.599   1.683  10.722
57359SOL     OW73915   2.777   6.429   6.317
57359SOL    HW173916   2.711   6.498   6.303
57359SOL    HW273917   2.792   6.430   6.411
57360SOL     OW73918  10.643   4.664  10.957
57360SOL    HW173919  10.592   4.591  10.990
57360SOL    HW273920  10.614   4.675  10.867
57361SOL     OW73921   6.328   6.225   7.656
57361SOL    HW173922   6.277   6.277   7.718
57361SOL    HW273923   6.361   6.289   7.592
57362SOL     OW73924   8.746   5.151   8.716
57362SOL    HW173925   8.803   5.089   8.761
57362SOL    HW273926   8.797   5.180   8.641
57363SOL     OW73927   8.506   3.843   4.972
57363SOL    HW173928   8.461   3.907   4.917
57363SOL    HW273929   8.470   3.856   5.060
57364SOL     OW73930  11.488   4.030   0.607
57364SOL    HW173931  11.519   4.106   0.557
57364SOL    HW273932  11.565   4.001   0.656
57365SOL     OW73933   1.971   2.576   9.416
57365SOL    HW173934   2.004   2.664   9.396
57365SOL    HW273935   2.049   2.521   9.416
57366SOL     OW73936   3.681  13.521   7.300
57366SOL    HW173937   3.597  13.508   7.342
57366SOL    HW273938   3.745  13.520   7.372
57367SOL     OW73939  11.344   6.071   1.351
57367SOL    HW173940  11.387   5.987   1.338
57367SOL    HW273941  11.347   6.086   1.445
57368SOL     OW73942   9.647   8.438   0.222
57368SOL    HW173943   9.680   8.519   0.260
57368SOL    HW273944   9.620   8.385   0.297
57369SOL     OW73945   9.108   7.596   2.369
57369SOL    HW173946   9.176   7.657   2.397
57369SOL    HW273947   9.037   7.652   2.338
57370SOL     OW73948   6.367   3.583   0.624
57370SOL    HW173949   6.373   3.587   0.529
57370SOL    HW273950   6.275   3.604   0.643
57371SOL     OW73951   5.462   7.923   1.180
57371SOL    HW173952   5.487   7.834   1.204
57371SOL    HW273953   5.406   7.952   1.252
57372SOL     OW73954   5.861  10.211  11.572
57372SOL    HW173955   5.937  10.166  11.609
57372SOL    HW273956   5.855  10.292  11.622
57373SOL     OW73957   7.532  14.429   4.025
57373SOL    HW173958   7.557  14.343   4.058
57373SOL    HW273959   7.540  14.488   4.100
57374SOL     OW73960  13.958  11.361   4.168
57374SOL    HW173961  13.920  11.430   4.223
57374SOL    HW273962  14.030  11.404   4.122
57375SOL     OW73963   4.010   9.645  10.555
57375SOL    HW173964   3.933   9.687  10.518
57375SOL    HW273965   3.977   9.599  10.632
57376SOL     OW73966   9.825   3.577   2.762
57376SOL    HW173967   9.776   3.529   2.829
57376SOL    HW273968   9.757   3.611   2.704
57377SOL     OW73969   6.247   1.134  13.889
57377SOL    HW173970   6.199   1.197  13.834
57377SOL    HW273971   6.280   1.186  13.962
57378SOL     OW73972   8.579   2.695   4.192
57378SOL    HW173973   8.490   2.709   4.160
57378SOL    HW273974   8.635   2.732   4.124
57379SOL     OW73975  13.142   2.531   4.614
57379SOL    HW173976  13.203   2.599   4.644
57379SOL    HW273977  13.061   2.549   4.661
57380SOL     OW73978   6.915   4.077  13.707
57380SOL    HW173979   6.883   4.075  13.617
57380SOL    HW273980   6.982   4.146  13.707
57381SOL     OW73981   9.145   0.143   0.948
57381SOL    HW173982   9.091   0.108   1.019
57381SOL    HW273983   9.235   0.130   0.979
57382SOL     OW73984   8.170  13.659   8.917
57382SOL    HW173985   8.200  13.698   9.000
57382SOL    HW273986   8.118  13.583   8.944
57383SOL     OW73987  13.050  14.786  12.686
57383SOL    HW173988  13.031  14.856  12.748
57383SOL    HW273989  13.004  14.811  12.606
57384SOL     OW73990   2.635  13.694   3.592
57384SOL    HW173991   2.707  13.645   3.552
57384SOL    HW273992   2.657  13.695   3.686
57385SOL     OW73993   3.958   7.688   7.649
57385SOL    HW173994   4.013   7.621   7.608
57385SOL    HW273995   4.018   7.762   7.662
57386SOL     OW73996   3.860  14.003   2.261
57386SOL    HW173997   3.921  13.967   2.325
57386SOL    HW273998   3.827  13.926   2.214
57387SOL     OW73999  12.813   4.678   6.783
57387SOL    HW174000  12.859   4.638   6.709
57387SOL    HW274001  12.783   4.763   6.750
57388SOL     OW74002   3.610  11.971  14.409
57388SOL    HW174003   3.608  12.041  14.475
57388SOL    HW274004   3.518  11.948  14.396
57389SOL     OW74005  11.178   1.335   0.791
57389SOL    HW174006  11.143   1.252   0.823
57389SOL    HW274007  11.202   1.318   0.700
57390SOL     OW74008   4.941   6.020   8.691
57390SOL    HW174009   4.855   6.055   8.669
57390SOL    HW274010   4.949   6.032   8.785
57391SOL     OW74011   0.472  12.624   2.181
57391SOL    HW174012   0.412  12.683   2.135
57391SOL    HW274013   0.520  12.681   2.241
57392SOL     OW74014   3.156  14.567   2.183
57392SOL    HW174015   3.201  14.529   2.107
57392SOL    HW274016   3.225  14.615   2.229
57393SOL     OW74017  12.787   4.369   9.379
57393SOL    HW174018  12.782   4.402   9.289
57393SOL    HW274019  12.695   4.352   9.403
57394SOL     OW74020   6.711   6.299  13.140
57394SOL    HW174021   6.726   6.296  13.045
57394SOL    HW274022   6.794   6.268  13.178
57395SOL     OW74023   7.754  12.523   4.408
57395SOL    HW174024   7.791  12.589   4.350
57395SOL    HW274025   7.826  12.499   4.466
57396SOL     OW74026   0.915   2.963  12.031
57396SOL    HW174027   0.880   3.045  12.065
57396SOL    HW274028   0.841   2.920  11.988
57397SOL     OW74029   0.972   2.366  10.814
57397SOL    HW174030   0.949   2.448  10.770
57397SOL    HW274031   0.891   2.338  10.856
57398SOL     OW74032  11.755  13.692   4.905
57398SOL    HW174033  11.752  13.739   4.988
57398SOL    HW274034  11.849  13.687   4.884
57399SOL     OW74035   1.087   8.183   4.051
57399SOL    HW174036   1.044   8.226   4.125
57399SOL    HW274037   1.055   8.229   3.974
57400SOL     OW74038   0.276   3.963   6.193
57400SOL    HW174039   0.288   3.899   6.263
57400SOL    HW274040   0.365   3.982   6.162
57401SOL     OW74041   0.980  12.705  14.470
57401SOL    HW174042   1.067  12.682  14.437
57401SOL    HW274043   0.981  12.675  14.561
57402SOL     OW74044  13.195  10.817  13.404
57402SOL    HW174045  13.239  10.891  13.361
57402SOL    HW274046  13.264  10.773  13.453
57403SOL     OW74047  14.541   0.024   1.891
57403SOL    HW174048  14.563   0.057   1.978
57403SOL    HW274049  14.446   0.033   1.885
57404SOL     OW74050   6.248   0.260   7.638
57404SOL    HW174051   6.227   0.207   7.561
57404SOL    HW274052   6.298   0.334   7.603
57405SOL     OW74053   8.856   6.516   8.499
57405SOL    HW174054   8.880   6.424   8.495
57405SOL    HW274055   8.767   6.520   8.463
57406SOL     OW74056  12.697   9.867  14.139
57406SOL    HW174057  12.764   9.899  14.078
57406SOL    HW274058  12.685   9.939  14.201
57407SOL     OW74059  13.171   9.714   2.490
57407SOL    HW174060  13.167   9.676   2.402
57407SOL    HW274061  13.147   9.641   2.548
57408SOL     OW74062   6.751   7.892   7.228
57408SOL    HW174063   6.793   7.879   7.142
57408SOL    HW274064   6.658   7.901   7.208
57409SOL     OW74065  11.969   8.762   7.807
57409SOL    HW174066  12.060   8.787   7.820
57409SOL    HW274067  11.957   8.762   7.712
57410SOL     OW74068  14.750   4.955   3.425
57410SOL    HW174069  14.796   4.902   3.361
57410SOL    HW274070  14.712   4.892   3.486
57411SOL     OW74071  12.527   7.932   1.566
57411SOL    HW174072  12.608   7.961   1.523
57411SOL    HW274073  12.461   7.934   1.497
57412SOL     OW74074   5.979   2.415   9.733
57412SOL    HW174075   6.029   2.496   9.724
57412SOL    HW274076   6.027   2.366   9.800
57413SOL     OW74077   0.486   9.154   4.392
57413SOL    HW174078   0.456   9.066   4.370
57413SOL    HW274079   0.516   9.147   4.482
57414SOL     OW74080  14.348   4.251  14.273
57414SOL    HW174081  14.253   4.249  14.260
57414SOL    HW274082  14.377   4.163  14.251
57415SOL     OW74083  13.965  10.152   8.708
57415SOL    HW174084  14.051  10.124   8.676
57415SOL    HW274085  13.982  10.185   8.796
57416SOL     OW74086   2.304   4.275   9.529
57416SOL    HW174087   2.266   4.293   9.443
57416SOL    HW274088   2.229   4.258   9.586
57417SOL     OW74089   5.616  12.675   6.844
57417SOL    HW174090   5.551  12.738   6.815
57417SOL    HW274091   5.581  12.641   6.927
57418SOL     OW74092  13.943   8.674   7.529
57418SOL    HW174093  13.920   8.755   7.574
57418SOL    HW274094  13.877   8.664   7.461
57419SOL     OW74095   4.949   9.682   7.497
57419SOL    HW174096   4.920   9.626   7.568
57419SOL    HW274097   5.036   9.651   7.475
57420SOL     OW74098  14.713   0.037   3.001
57420SOL    HW174099  14.800   0.051   3.037
57420SOL    HW274100  14.687   0.122   2.966
57421SOL     OW74101   9.983  13.673  12.063
57421SOL    HW174102  10.056  13.711  12.016
57421SOL    HW274103   9.997  13.578  12.057
57422SOL     OW74104   9.830  12.442   0.510
57422SOL    HW174105   9.922  12.439   0.534
57422SOL    HW274106   9.831  12.447   0.414
57423SOL     OW74107   3.159   4.459   9.262
57423SOL    HW174108   3.193   4.548   9.272
57423SOL    HW274109   3.211   4.406   9.322
57424SOL     OW74110  10.197   8.727  12.284
57424SOL    HW174111  10.105   8.726  12.259
57424SOL    HW274112  10.201   8.679  12.367
57425SOL     OW74113   8.605   8.671  10.230
57425SOL    HW174114   8.675   8.617  10.193
57425SOL    HW274115   8.649   8.729  10.291
57426SOL     OW74116   4.233   0.268   2.229
57426SOL    HW174117   4.139   0.251   2.237
57426SOL    HW274118   4.258   0.227   2.146
57427SOL     OW74119  10.471   7.705   8.848
57427SOL    HW174120  10.471   7.617   8.810
57427SOL    HW274121  10.401   7.750   8.802
57428SOL     OW74122  13.103   8.838   2.677
57428SOL    HW174123  13.033   8.854   2.740
57428SOL    HW274124  13.058   8.808   2.598
57429SOL     OW74125   0.861   7.718   4.356
57429SOL    HW174126   0.866   7.725   4.261
57429SOL    HW274127   0.769   7.733   4.377
57430SOL     OW74128  14.810   6.694   3.666
57430SOL    HW174129  14.756   6.756   3.714
57430SOL    HW274130   0.001   6.747   3.628
57431SOL     OW74131   6.437  10.435   4.276
57431SOL    HW174132   6.478  10.385   4.346
57431SOL    HW274133   6.500  10.435   4.205
57432SOL     OW74134   2.896   8.114   0.721
57432SOL    HW174135   2.957   8.181   0.751
57432SOL    HW274136   2.856   8.079   0.801
57433SOL     OW74137  14.381   7.988  12.920
57433SOL    HW174138  14.285   7.984  12.915
57433SOL    HW274139  14.410   7.972  12.830
57434SOL     OW74140   8.894   3.282   3.828
57434SOL    HW174141   8.893   3.344   3.900
57434SOL    HW274142   8.856   3.330   3.754
57435SOL     OW74143   8.720   7.123   9.618
57435SOL    HW174144   8.648   7.170   9.577
57435SOL    HW274145   8.794   7.134   9.558
57436SOL     OW74146  11.447  11.912   1.311
57436SOL    HW174147  11.489  11.849   1.253
57436SOL    HW274148  11.516  11.975   1.333
57437SOL     OW74149   3.958   9.723   0.253
57437SOL    HW174150   3.895   9.658   0.283
57437SOL    HW274151   3.941   9.731   0.159
57438SOL     OW74152   2.803   5.691   7.588
57438SOL    HW174153   2.787   5.685   7.493
57438SOL    HW274154   2.830   5.603   7.613
57439SOL     OW74155  14.690   3.175  13.301
57439SOL    HW174156  14.680   3.270  13.315
57439SOL    HW274157  14.639   3.158  13.222
57440SOL     OW74158   9.319  12.244   1.285
57440SOL    HW174159   9.255  12.203   1.226
57440SOL    HW274160   9.274  12.321   1.319
57441SOL     OW74161   4.335  11.134  10.405
57441SOL    HW174162   4.412  11.141  10.350
57441SOL    HW274163   4.359  11.178  10.487
57442SOL     OW74164  10.350  14.433  11.830
57442SOL    HW174165  10.271  14.467  11.873
57442SOL    HW274166  10.364  14.347  11.870
57443SOL     OW74167   1.952   4.685  11.765
57443SOL    HW174168   2.021   4.751  11.770
57443SOL    HW274169   1.876   4.732  11.731
57444SOL     OW74170   8.414   7.117  10.720
57444SOL    HW174171   8.343   7.084  10.776
57444SOL    HW274172   8.386   7.205  10.696
57445SOL     OW74173   2.707  12.791   2.963
57445SOL    HW174174   2.667  12.856   2.906
57445SOL    HW274175   2.654  12.712   2.951
57446SOL     OW74176   4.302   7.356   6.687
57446SOL    HW174177   4.319   7.289   6.620
57446SOL    HW274178   4.388   7.395   6.704
57447SOL     OW74179  14.874   0.512   1.320
57447SOL    HW174180   0.004   0.457   1.242
57447SOL    HW274181  14.844   0.451   1.388
57448SOL     OW74182  10.123   1.930   3.364
57448SOL    HW174183  10.044   1.960   3.408
57448SOL    HW274184  10.091   1.880   3.289
57449SOL     OW74185   1.358   8.241   0.416
57449SOL    HW174186   1.416   8.316   0.424
57449SOL    HW274187   1.376   8.187   0.494
57450SOL     OW74188   8.201   3.083   0.968
57450SOL    HW174189   8.234   3.001   1.003
57450SOL    HW274190   8.181   3.137   1.044
57451SOL     OW74191   1.490  14.044   2.364
57451SOL    HW174192   1.421  14.022   2.427
57451SOL    HW274193   1.567  13.997   2.396
57452SOL     OW74194  10.703  14.299   1.017
57452SOL    HW174195  10.641  14.232   1.044
57452SOL    HW274196  10.787  14.268   1.049
57453SOL     OW74197   7.885  14.023   4.666
57453SOL    HW174198   7.823  14.013   4.738
57453SOL    HW274199   7.971  14.008   4.707
57454SOL     OW74200   2.164   8.689   2.679
57454SOL    HW174201   2.170   8.773   2.723
57454SOL    HW274202   2.136   8.709   2.589
57455SOL     OW74203   1.848  10.780   8.343
57455SOL    HW174204   1.800  10.863   8.346
57455SOL    HW274205   1.909  10.790   8.269
57456SOL     OW74206   2.827   1.394  12.554
57456SOL    HW174207   2.911   1.369  12.592
57456SOL    HW274208   2.770   1.410  12.629
57457SOL     OW74209  12.297  10.151   6.359
57457SOL    HW174210  12.375  10.131   6.412
57457SOL    HW274211  12.331  10.163   6.271
57458SOL     OW74212   6.045  10.885  11.995
57458SOL    HW174213   6.022  10.802  12.037
57458SOL    HW274214   5.971  10.904  11.937
57459SOL     OW74215   9.341   9.524   0.376
57459SOL    HW174216   9.404   9.580   0.422
57459SOL    HW274217   9.394   9.474   0.315
57460SOL     OW74218   0.638   8.792   9.968
57460SOL    HW174219   0.618   8.840  10.049
57460SOL    HW274220   0.593   8.708   9.979
57461SOL     OW74221   0.656   0.837   6.323
57461SOL    HW174222   0.614   0.911   6.367
57461SOL    HW274223   0.749   0.851   6.336
57462SOL     OW74224  14.668   4.737   6.261
57462SOL    HW174225  14.692   4.703   6.175
57462SOL    HW274226  14.637   4.661   6.309
57463SOL     OW74227   6.497   0.439  13.646
57463SOL    HW174228   6.402   0.443  13.653
57463SOL    HW274229   6.513   0.402  13.559
57464SOL     OW74230   2.744  13.653   6.083
57464SOL    HW174231   2.692  13.723   6.122
57464SOL    HW274232   2.683  13.605   6.028
57465SOL     OW74233  14.349  10.425  14.348
57465SOL    HW174234  14.415  10.356  14.341
57465SOL    HW274235  14.322  10.441  14.258
57466SOL     OW74236  13.139   2.078  13.480
57466SOL    HW174237  13.122   2.080  13.574
57466SOL    HW274238  13.180   2.163  13.461
57467SOL     OW74239   6.760   6.191   5.249
57467SOL    HW174240   6.719   6.191   5.336
57467SOL    HW274241   6.782   6.282   5.233
57468SOL     OW74242   1.618   8.408  13.353
57468SOL    HW174243   1.584   8.464  13.283
57468SOL    HW274244   1.540   8.385  13.404
57469SOL     OW74245  11.322   3.989  14.532
57469SOL    HW174246  11.403   3.954  14.568
57469SOL    HW274247  11.322   4.081  14.560
57470SOL     OW74248   3.541   4.205  11.903
57470SOL    HW174249   3.540   4.115  11.937
57470SOL    HW274250   3.484   4.200  11.826
57471SOL     OW74251   9.813   2.775   0.362
57471SOL    HW174252   9.789   2.791   0.270
57471SOL    HW274253   9.892   2.828   0.375
57472SOL     OW74254  13.513  13.598   2.204
57472SOL    HW174255  13.563  13.570   2.127
57472SOL    HW274256  13.557  13.556   2.277
57473SOL     OW74257   3.589   7.500   9.409
57473SOL    HW174258   3.600   7.478   9.501
57473SOL    HW274259   3.673   7.537   9.383
57474SOL     OW74260   1.997   2.148  13.073
57474SOL    HW174261   2.020   2.190  13.156
57474SOL    HW274262   1.921   2.094  13.094
57475SOL     OW74263   3.177   9.868   1.859
57475SOL    HW174264   3.150   9.944   1.911
57475SOL    HW274265   3.178   9.796   1.922
57476SOL     OW74266   1.860   3.172   9.293
57476SOL    HW174267   1.833   3.081   9.280
57476SOL    HW274268   1.919   3.191   9.220
57477SOL     OW74269  10.975  13.072   3.317
57477SOL    HW174270  10.934  13.071   3.404
57477SOL    HW274271  10.902  13.076   3.256
57478SOL     OW74272  10.321   8.119   4.746
57478SOL    HW174273  10.308   8.025   4.756
57478SOL    HW274274  10.233   8.155   4.745
57479SOL     OW74275  12.407   8.615  11.526
57479SOL    HW174276  12.351   8.650  11.596
57479SOL    HW274277  12.393   8.675  11.453
57480SOL     OW74278   1.658   4.133   9.477
57480SOL    HW174279   1.693   4.135   9.388
57480SOL    HW274280   1.701   4.058   9.518
57481SOL     OW74281   2.458  14.164   6.052
57481SOL    HW174282   2.510  14.239   6.023
57481SOL    HW274283   2.430  14.188   6.141
57482SOL     OW74284   9.744   7.121   6.639
57482SOL    HW174285   9.702   7.100   6.722
57482SOL    HW274286   9.796   7.199   6.657
57483SOL     OW74287  14.230   5.421   0.877
57483SOL    HW174288  14.144   5.441   0.915
57483SOL    HW274289  14.227   5.327   0.859
57484SOL     OW74290   6.115   9.798  14.127
57484SOL    HW174291   6.162   9.805  14.043
57484SOL    HW274292   6.158   9.725  14.172
57485SOL     OW74293  11.092   4.380   1.000
57485SOL    HW174294  11.059   4.440   0.933
57485SOL    HW274295  11.018   4.323   1.020
57486SOL     OW74296   8.819   2.019   7.487
57486SOL    HW174297   8.759   1.968   7.541
57486SOL    HW274298   8.851   1.957   7.421
57487SOL     OW74299   0.192  13.732   1.938
57487SOL    HW174300   0.249  13.655   1.936
57487SOL    HW274301   0.131  13.714   2.010
57488SOL     OW74302   4.980   6.802   7.618
57488SOL    HW174303   4.992   6.752   7.699
57488SOL    HW274304   5.043   6.874   7.624
57489SOL     OW74305  14.549  10.350  12.863
57489SOL    HW174306  14.504  10.424  12.905
57489SOL    HW274307  14.629  10.387  12.828
57490SOL     OW74308  11.998   4.362  10.175
57490SOL    HW174309  11.941   4.426  10.134
57490SOL    HW274310  11.993   4.285  10.118
57491SOL     OW74311  10.901  11.024   9.821
57491SOL    HW174312  10.938  11.045   9.907
57491SOL    HW274313  10.813  10.993   9.840
57492SOL     OW74314   2.788   1.285   0.323
57492SOL    HW174315   2.718   1.223   0.348
57492SOL    HW274316   2.776   1.298   0.229
57493SOL     OW74317   5.157  12.385   2.399
57493SOL    HW174318   5.164  12.291   2.380
57493SOL    HW274319   5.202  12.395   2.483
57494SOL     OW74320   3.916   0.197   5.563
57494SOL    HW174321   3.980   0.221   5.496
57494SOL    HW274322   3.954   0.121   5.607
57495SOL     OW74323   5.196   4.403   8.989
57495SOL    HW174324   5.244   4.459   8.927
57495SOL    HW274325   5.149   4.341   8.933
57496SOL     OW74326  12.665   9.229  14.374
57496SOL    HW174327  12.675   9.311  14.325
57496SOL    HW274328  12.748   9.218  14.420
57497SOL     OW74329   8.024  11.172  11.850
57497SOL    HW174330   8.029  11.261  11.817
57497SOL    HW274331   8.111  11.154  11.884
57498SOL     OW74332  12.616  10.624   3.340
57498SOL    HW174333  12.690  10.660   3.389
57498SOL    HW274334  12.642  10.533   3.321
57499SOL     OW74335   5.729   5.389   0.123
57499SOL    HW174336   5.679   5.470   0.137
57499SOL    HW274337   5.720   5.341   0.205
57500SOL     OW74338   9.211  10.479   3.891
57500SOL    HW174339   9.302  10.492   3.865
57500SOL    HW274340   9.211  10.395   3.937
57501SOL     OW74341   0.535   7.600   0.535
57501SOL    HW174342   0.602   7.554   0.585
57501SOL    HW274343   0.454   7.552   0.555
57502SOL     OW74344   2.620   5.431   2.981
57502SOL    HW174345   2.554   5.468   2.922
57502SOL    HW274346   2.621   5.337   2.961
57503SOL     OW74347   2.644   1.365  13.924
57503SOL    HW174348   2.588   1.435  13.890
57503SOL    HW274349   2.733   1.397  13.912
57504SOL     OW74350   7.931  11.692   7.475
57504SOL    HW174351   7.862  11.679   7.540
57504SOL    HW274352   7.943  11.787   7.472
57505SOL     OW74353   4.796   1.549   4.903
57505SOL    HW174354   4.739   1.498   4.846
57505SOL    HW274355   4.844   1.484   4.953
57506SOL     OW74356   4.376   3.642  13.375
57506SOL    HW174357   4.364   3.627  13.469
57506SOL    HW274358   4.471   3.640  13.362
57507SOL     OW74359  13.674   2.644   4.652
57507SOL    HW174360  13.688   2.620   4.743
57507SOL    HW274361  13.706   2.734   4.646
57508SOL     OW74362   7.937   4.816   1.666
57508SOL    HW174363   7.922   4.831   1.573
57508SOL    HW274364   7.875   4.747   1.690
57509SOL     OW74365   0.470   0.980  11.664
57509SOL    HW174366   0.516   0.928  11.598
57509SOL    HW274367   0.390   0.931  11.682
57510SOL     OW74368   9.006   9.260  14.734
57510SOL    HW174369   9.075   9.227  14.793
57510SOL    HW274370   9.039   9.344  14.703
57511SOL     OW74371  14.228  12.379   1.498
57511SOL    HW174372  14.219  12.319   1.571
57511SOL    HW274373  14.149  12.433   1.502
57512SOL     OW74374  10.368  10.130   1.463
57512SOL    HW174375  10.318  10.051   1.481
57512SOL    HW274376  10.318  10.200   1.504
57513SOL     OW74377   1.686   1.796   6.840
57513SOL    HW174378   1.596   1.787   6.873
57513SOL    HW274379   1.737   1.736   6.893
57514SOL     OW74380   2.729   4.468  12.174
57514SOL    HW174381   2.768   4.517  12.101
57514SOL    HW274382   2.804   4.441  12.227
57515SOL     OW74383   5.938   5.956  11.422
57515SOL    HW174384   5.879   5.885  11.395
57515SOL    HW274385   6.026   5.924  11.402
57516SOL     OW74386   9.760   0.089   0.069
57516SOL    HW174387   9.848   0.052   0.064
57516SOL    HW274388   9.720   0.045   0.144
57517SOL     OW74389   4.545  10.386   1.935
57517SOL    HW174390   4.635  10.404   1.908
57517SOL    HW274391   4.523  10.304   1.892
57518SOL     OW74392  14.654  13.479  12.253
57518SOL    HW174393  14.642  13.533  12.331
57518SOL    HW274394  14.629  13.391  12.281
57519SOL     OW74395   1.650   8.207   7.251
57519SOL    HW174396   1.727   8.167   7.211
57519SOL    HW274397   1.576   8.158   7.215
57520SOL     OW74398   1.092   6.307   5.860
57520SOL    HW174399   1.003   6.306   5.895
57520SOL    HW274400   1.147   6.328   5.935
57521SOL     OW74401   0.985   3.549   6.476
57521SOL    HW174402   1.049   3.620   6.483
57521SOL    HW274403   0.971   3.538   6.382
57522SOL     OW74404   0.920  10.309   9.828
57522SOL    HW174405   0.975  10.261   9.889
57522SOL    HW274406   0.968  10.308   9.746
57523SOL     OW74407  14.546   5.075   8.295
57523SOL    HW174408  14.575   5.157   8.255
57523SOL    HW274409  14.597   5.007   8.251
57524SOL     OW74410   3.525  12.188   8.058
57524SOL    HW174411   3.568  12.125   8.116
57524SOL    HW274412   3.555  12.163   7.970
57525SOL     OW74413   1.751  10.481  11.141
57525SOL    HW174414   1.847  10.481  11.143
57525SOL    HW274415   1.729  10.438  11.058
57526SOL     OW74416   0.072   3.655  14.050
57526SOL    HW174417   0.145   3.713  14.071
57526SOL    HW274418   0.075   3.589  14.119
57527SOL     OW74419  11.866   4.122   2.124
57527SOL    HW174420  11.834   4.092   2.038
57527SOL    HW274421  11.796   4.098   2.184
57528SOL     OW74422   6.454   0.429  10.887
57528SOL    HW174423   6.549   0.428  10.870
57528SOL    HW274424   6.442   0.366  10.957
57529SOL     OW74425  14.477   4.915  11.580
57529SOL    HW174426  14.473   4.927  11.485
57529SOL    HW274427  14.565   4.945  11.604
57530SOL     OW74428   2.864   7.214   6.756
57530SOL    HW174429   2.774   7.184   6.771
57530SOL    HW274430   2.868   7.300   6.799
57531SOL     OW74431   7.964   6.633   6.606
57531SOL    HW174432   7.948   6.555   6.659
57531SOL    HW274433   7.880   6.679   6.605
57532SOL     OW74434   2.546   3.585  12.953
57532SOL    HW174435   2.460   3.565  12.990
57532SOL    HW274436   2.529   3.656  12.890
57533SOL     OW74437   8.446   9.654   2.370
57533SOL    HW174438   8.491   9.701   2.300
57533SOL    HW274439   8.514   9.598   2.408
57534SOL     OW74440  10.527  10.563  11.264
57534SOL    HW174441  10.620  10.583  11.253
57534SOL    HW274442  10.504  10.515  11.185
57535SOL     OW74443  10.235   4.340  13.923
57535SOL    HW174444  10.312   4.357  13.978
57535SOL    HW274445  10.210   4.250  13.943
57536SOL     OW74446   6.872   6.994   1.225
57536SOL    HW174447   6.928   6.920   1.246
57536SOL    HW274448   6.925   7.071   1.244
57537SOL     OW74449  10.677   0.636   9.739
57537SOL    HW174450  10.714   0.594   9.817
57537SOL    HW274451  10.748   0.691   9.706
57538SOL     OW74452   3.409   9.608   2.672
57538SOL    HW174453   3.500   9.581   2.658
57538SOL    HW274454   3.363   9.579   2.593
57539SOL     OW74455  14.414  10.145  10.706
57539SOL    HW174456  14.509  10.134  10.715
57539SOL    HW274457  14.395  10.120  10.616
57540SOL     OW74458   8.862  14.815   6.923
57540SOL    HW174459   8.881  14.750   6.991
57540SOL    HW274460   8.934  14.877   6.928
57541SOL     OW74461   0.542  12.739   9.230
57541SOL    HW174462   0.616  12.688   9.198
57541SOL    HW274463   0.577  12.789   9.303
57542SOL     OW74464  13.980   5.242   1.818
57542SOL    HW174465  14.055   5.189   1.845
57542SOL    HW274466  13.929   5.255   1.898
57543SOL     OW74467   3.047  13.487   6.015
57543SOL    HW174468   3.003  13.546   5.954
57543SOL    HW274469   3.042  13.401   5.973
57544SOL     OW74470   2.032   3.703  12.826
57544SOL    HW174471   2.024   3.797  12.815
57544SOL    HW274472   1.943   3.670  12.814
57545SOL     OW74473  12.546   9.519   2.947
57545SOL    HW174474  12.635   9.483   2.947
57545SOL    HW274475  12.489   9.442   2.938
57546SOL     OW74476  13.450  13.396   1.527
57546SOL    HW174477  13.495  13.475   1.558
57546SOL    HW274478  13.439  13.342   1.605
57547SOL     OW74479   6.595  11.596   5.618
57547SOL    HW174480   6.599  11.517   5.671
57547SOL    HW274481   6.620  11.567   5.530
57548SOL     OW74482  13.616   0.613   5.329
57548SOL    HW174483  13.591   0.527   5.360
57548SOL    HW274484  13.591   0.673   5.399
57549SOL     OW74485   1.332   3.221  14.187
57549SOL    HW174486   1.315   3.196  14.278
57549SOL    HW274487   1.415   3.268  14.190
57550SOL     OW74488   0.174   7.394  11.962
57550SOL    HW174489   0.174   7.379  11.867
57550SOL    HW274490   0.106   7.459  11.977
57551SOL     OW74491  13.945  10.154   5.963
57551SOL    HW174492  13.959  10.248   5.970
57551SOL    HW274493  14.014  10.115   6.016
57552SOL     OW74494   1.440  12.946   4.227
57552SOL    HW174495   1.404  12.867   4.187
57552SOL    HW274496   1.512  12.914   4.282
57553SOL     OW74497   4.287   7.592   2.525
57553SOL    HW174498   4.327   7.507   2.544
57553SOL    HW274499   4.216   7.600   2.588
57554SOL     OW74500   5.890  11.727   1.563
57554SOL    HW174501   5.855  11.810   1.597
57554SOL    HW274502   5.945  11.693   1.634
57555SOL     OW74503   8.649   6.382   4.905
57555SOL    HW174504   8.740   6.382   4.934
57555SOL    HW274505   8.599   6.372   4.986
57556SOL     OW74506   3.030  10.619  12.955
57556SOL    HW174507   3.004  10.705  12.989
57556SOL    HW274508   2.957  10.561  12.977
57557SOL     OW74509  12.257  10.492   8.818
57557SOL    HW174510  12.238  10.429   8.888
57557SOL    HW274511  12.182  10.487   8.759
57558SOL     OW74512   4.127   7.379   9.450
57558SOL    HW174513   4.171   7.369   9.365
57558SOL    HW274514   4.177   7.448   9.494
57559SOL     OW74515  11.752   2.186   8.982
57559SOL    HW174516  11.693   2.250   9.021
57559SOL    HW274517  11.749   2.111   9.041
57560SOL     OW74518  12.082   6.828  12.810
57560SOL    HW174519  12.128   6.763  12.755
57560SOL    HW274520  12.036   6.776  12.875
57561SOL     OW74521   8.225   5.583   5.750
57561SOL    HW174522   8.138   5.588   5.711
57561SOL    HW274523   8.269   5.511   5.704
57562SOL     OW74524   9.369   4.223   3.617
57562SOL    HW174525   9.408   4.310   3.631
57562SOL    HW274526   9.440   4.162   3.637
57563SOL     OW74527  12.886   0.674  10.925
57563SOL    HW174528  12.961   0.631  10.965
57563SOL    HW274529  12.869   0.624  10.845
57564SOL     OW74530   9.470  10.844   9.929
57564SOL    HW174531   9.422  10.805   9.855
57564SOL    HW274532   9.510  10.769   9.973
57565SOL     OW74533  12.959   3.501  12.942
57565SOL    HW174534  12.890   3.566  12.926
57565SOL    HW274535  12.912   3.422  12.967
57566SOL     OW74536  12.917  14.020   1.641
57566SOL    HW174537  12.879  14.095   1.595
57566SOL    HW274538  12.975  13.979   1.577
57567SOL     OW74539   0.350  11.790   5.306
57567SOL    HW174540   0.320  11.703   5.334
57567SOL    HW274541   0.412  11.817   5.374
57568SOL     OW74542   8.429   0.465   5.423
57568SOL    HW174543   8.401   0.537   5.366
57568SOL    HW274544   8.421   0.501   5.512
57569SOL     OW74545  11.554   9.992  14.524
57569SOL    HW174546  11.555   9.943  14.442
57569SOL    HW274547  11.646  10.012  14.541
57570SOL     OW74548  13.503   9.221  11.527
57570SOL    HW174549  13.585   9.269  11.541
57570SOL    HW274550  13.461   9.267  11.455
57571SOL     OW74551   8.069   6.321   1.973
57571SOL    HW174552   8.031   6.234   1.977
57571SOL    HW274553   8.022   6.371   2.040
57572SOL     OW74554   3.077   4.909   5.477
57572SOL    HW174555   3.008   4.948   5.423
57572SOL    HW274556   3.119   4.984   5.520
57573SOL     OW74557  12.897   3.264   9.106
57573SOL    HW174558  12.955   3.212   9.162
57573SOL    HW274559  12.935   3.258   9.019
57574SOL     OW74560  10.344  12.401   6.635
57574SOL    HW174561  10.268  12.373   6.584
57574SOL    HW274562  10.376  12.320   6.675
57575SOL     OW74563  11.344  12.515   1.870
57575SOL    HW174564  11.302  12.593   1.906
57575SOL    HW274565  11.285  12.443   1.895
57576SOL     OW74566   3.080  13.218  13.599
57576SOL    HW174567   3.072  13.293  13.540
57576SOL    HW274568   3.054  13.143  13.546
57577SOL     OW74569  14.636   9.404   1.287
57577SOL    HW174570  14.675   9.489   1.266
57577SOL    HW274571  14.571   9.390   1.218
57578SOL     OW74572   0.671  12.966   9.353
57578SOL    HW174573   0.727  12.952   9.429
57578SOL    HW274574   0.712  13.039   9.307
57579SOL     OW74575   7.708   9.166  10.916
57579SOL    HW174576   7.621   9.191  10.947
57579SOL    HW274577   7.716   9.074  10.941
57580SOL     OW74578  11.425   9.170  10.326
57580SOL    HW174579  11.478   9.106  10.279
57580SOL    HW274580  11.429   9.142  10.418
57581SOL     OW74581  10.603  12.039  10.360
57581SOL    HW174582  10.536  11.981  10.398
57581SOL    HW274583  10.665  12.053  10.431
57582SOL     OW74584   0.950   0.275   6.727
57582SOL    HW174585   0.942   0.188   6.767
57582SOL    HW274586   0.921   0.335   6.796
57583SOL     OW74587   7.277  12.331   7.517
57583SOL    HW174588   7.307  12.323   7.608
57583SOL    HW274589   7.355  12.316   7.464
57584SOL     OW74590  10.433   8.600   4.534
57584SOL    HW174591  10.395   8.687   4.521
57584SOL    HW274592  10.487   8.587   4.456
57585SOL     OW74593   2.889   9.053  11.155
57585SOL    HW174594   2.817   9.059  11.092
57585SOL    HW274595   2.889   8.961  11.182
57586SOL     OW74596   4.762   6.842   3.061
57586SOL    HW174597   4.677   6.882   3.078
57586SOL    HW274598   4.747   6.748   3.068
57587SOL     OW74599   2.287   6.435  13.076
57587SOL    HW174600   2.263   6.375  13.146
57587SOL    HW274601   2.236   6.514  13.093
57588SOL     OW74602   5.510  13.140  10.662
57588SOL    HW174603   5.582  13.087  10.626
57588SOL    HW274604   5.548  13.226  10.676
57589SOL     OW74605  11.467   4.561   7.400
57589SOL    HW174606  11.461   4.593   7.310
57589SOL    HW274607  11.427   4.474   7.398
57590SOL     OW74608   9.467   4.303   8.809
57590SOL    HW174609   9.542   4.291   8.867
57590SOL    HW274610   9.493   4.258   8.728
57591SOL     OW74611   0.570   7.174   3.072
57591SOL    HW174612   0.552   7.080   3.076
57591SOL    HW274613   0.484   7.214   3.063
57592SOL     OW74614   7.100   6.801   3.892
57592SOL    HW174615   7.074   6.715   3.858
57592SOL    HW274616   7.114   6.786   3.986
57593SOL     OW74617  10.592   2.039   4.784
57593SOL    HW174618  10.584   1.948   4.813
57593SOL    HW274619  10.685   2.050   4.765
57594SOL     OW74620   6.457   4.496  14.250
57594SOL    HW174621   6.524   4.474  14.314
57594SOL    HW274622   6.383   4.528  14.302
57595SOL     OW74623  10.681   7.297   0.853
57595SOL    HW174624  10.664   7.335   0.767
57595SOL    HW274625  10.665   7.204   0.842
57596SOL     OW74626   9.806  10.951   0.595
57596SOL    HW174627   9.789  11.044   0.581
57596SOL    HW274628   9.809  10.941   0.690
57597SOL     OW74629   3.486   2.943  12.837
57597SOL    HW174630   3.397   2.932  12.806
57597SOL    HW274631   3.541   2.904  12.768
57598SOL     OW74632   8.032   7.534   3.518
57598SOL    HW174633   8.064   7.622   3.538
57598SOL    HW274634   8.084   7.477   3.575
57599SOL     OW74635  11.711   0.952  13.415
57599SOL    HW174636  11.773   0.968  13.486
57599SOL    HW274637  11.732   1.018  13.349
57600SOL     OW74638  12.658   3.219   7.830
57600SOL    HW174639  12.705   3.289   7.874
57600SOL    HW274640  12.574   3.259   7.805
57601SOL     OW74641   9.166  12.395   8.185
57601SOL    HW174642   9.183  12.467   8.246
57601SOL    HW274643   9.121  12.435   8.111
57602SOL     OW74644   9.935  12.559   7.999
57602SOL    HW174645   9.976  12.497   7.940
57602SOL    HW274646   9.850  12.521   8.019
57603SOL     OW74647  11.830  10.288   6.263
57603SOL    HW174648  11.826  10.294   6.358
57603SOL    HW274649  11.848  10.196   6.245
57604SOL     OW74650   0.424   6.428  13.471
57604SOL    HW174651   0.443   6.517  13.501
57604SOL    HW274652   0.482   6.415  13.395
57605SOL     OW74653  13.616   9.948   9.008
57605SOL    HW174654  13.624  10.017   8.941
57605SOL    HW274655  13.694   9.893   8.996
57606SOL     OW74656  13.542   0.529   8.046
57606SOL    HW174657  13.537   0.608   8.100
57606SOL    HW274658  13.453   0.495   8.045
57607SOL     OW74659   5.954   2.786   6.900
57607SOL    HW174660   5.868   2.824   6.879
57607SOL    HW274661   6.002   2.859   6.939
57608SOL     OW74662   1.253   6.237  14.073
57608SOL    HW174663   1.184   6.301  14.088
57608SOL    HW274664   1.213   6.172  14.016
57609SOL     OW74665   0.139  11.271   8.537
57609SOL    HW174666   0.114  11.194   8.485
57609SOL    HW274667   0.107  11.251   8.625
57610SOL     OW74668  12.964   6.652   4.603
57610SOL    HW174669  13.041   6.607   4.569
57610SOL    HW274670  12.926   6.696   4.527
57611SOL     OW74671  11.175   7.008   1.887
57611SOL    HW174672  11.108   6.949   1.854
57611SOL    HW274673  11.141   7.038   1.971
57612SOL     OW74674   3.754  10.301   8.658
57612SOL    HW174675   3.820  10.369   8.641
57612SOL    HW274676   3.677  10.330   8.610
57613SOL     OW74677   9.186  13.942   2.274
57613SOL    HW174678   9.096  13.971   2.262
57613SOL    HW274679   9.211  13.978   2.359
57614SOL     OW74680   7.359  10.336   5.197
57614SOL    HW174681   7.404  10.411   5.237
57614SOL    HW274682   7.412  10.314   5.121
57615SOL     OW74683   6.433   2.310   9.086
57615SOL    HW174684   6.515   2.337   9.046
57615SOL    HW274685   6.373   2.383   9.070
57616SOL     OW74686   9.873   4.211   9.089
57616SOL    HW174687   9.836   4.209   9.177
57616SOL    HW274688   9.801   4.242   9.033
57617SOL     OW74689  13.463   2.298   5.374
57617SOL    HW174690  13.544   2.344   5.397
57617SOL    HW274691  13.418   2.285   5.457
57618SOL     OW74692   4.003  13.492   4.995
57618SOL    HW174693   3.941  13.469   5.064
57618SOL    HW274694   4.089  13.481   5.036
57619SOL     OW74695   2.606  11.758   2.556
57619SOL    HW174696   2.527  11.812   2.550
57619SOL    HW274697   2.587  11.695   2.625
57620SOL     OW74698   0.252   5.267   2.870
57620SOL    HW174699   0.178   5.326   2.863
57620SOL    HW274700   0.230   5.193   2.814
57621SOL     OW74701   0.858   6.003   6.075
57621SOL    HW174702   0.886   6.056   6.150
57621SOL    HW274703   0.812   5.929   6.114
57622SOL     OW74704   6.332  14.861   6.013
57622SOL    HW174705   6.356  14.772   6.037
57622SOL    HW274706   6.270   0.009   6.080
57623SOL     OW74707   1.143   2.761   7.203
57623SOL    HW174708   1.163   2.673   7.236
57623SOL    HW274709   1.187   2.765   7.118
57624SOL     OW74710   3.798  11.187   9.493
57624SOL    HW174711   3.857  11.186   9.418
57624SOL    HW274712   3.798  11.096   9.524
57625SOL     OW74713   8.834   4.718   0.267
57625SOL    HW174714   8.928   4.713   0.249
57625SOL    HW274715   8.797   4.644   0.218
57626SOL     OW74716   1.510   4.394   9.323
57626SOL    HW174717   1.540   4.371   9.235
57626SOL    HW274718   1.584   4.439   9.363
57627SOL     OW74719   0.577   8.130   4.838
57627SOL    HW174720   0.600   8.038   4.825
57627SOL    HW274721   0.483   8.129   4.853
57628SOL     OW74722   8.140   8.856  11.018
57628SOL    HW174723   8.112   8.782  10.965
57628SOL    HW274724   8.059   8.900  11.044
57629SOL     OW74725  11.197   1.762   3.982
57629SOL    HW174726  11.212   1.683   3.930
57629SOL    HW274727  11.158   1.730   4.063
57630SOL     OW74728   0.070   7.653   3.977
57630SOL    HW174729  14.857   7.630   3.976
57630SOL    HW274730   0.085   7.697   3.893
57631SOL     OW74731   7.033  14.020   7.055
57631SOL    HW174732   6.983  14.050   7.131
57631SOL    HW274733   7.124  14.026   7.082
57632SOL     OW74734  10.603  10.053  14.841
57632SOL    HW174735  10.511  10.059  14.817
57632SOL    HW274736  10.649  10.039  14.758
57633SOL     OW74737  13.719  12.605   6.098
57633SOL    HW174738  13.728  12.633   6.189
57633SOL    HW274739  13.667  12.525   6.102
57634SOL     OW74740  13.656   2.437  10.633
57634SOL    HW174741  13.657   2.433  10.537
57634SOL    HW274742  13.736   2.485  10.656
57635SOL     OW74743   1.034  10.424   6.947
57635SOL    HW174744   1.080  10.443   7.029
57635SOL    HW274745   0.980  10.348   6.967
57636SOL     OW74746   3.347   5.816   5.788
57636SOL    HW174747   3.288   5.848   5.720
57636SOL    HW274748   3.375   5.894   5.835
57637SOL     OW74749  12.916  11.293  11.980
57637SOL    HW174750  12.867  11.217  12.012
57637SOL    HW274751  12.851  11.344  11.931
57638SOL     OW74752   3.738   2.118   2.917
57638SOL    HW174753   3.677   2.188   2.942
57638SOL    HW274754   3.748   2.065   2.996
57639SOL     OW74755   4.959  10.833   3.600
57639SOL    HW174756   4.959  10.923   3.567
57639SOL    HW274757   5.050  10.818   3.627
57640SOL     OW74758  11.652   9.372   3.162
57640SOL    HW174759  11.589   9.366   3.234
57640SOL    HW274760  11.737   9.371   3.204
57641SOL     OW74761   9.127   6.142   0.432
57641SOL    HW174762   9.197   6.187   0.384
57641SOL    HW274763   9.046   6.179   0.399
57642SOL     OW74764   8.364  10.787   3.936
57642SOL    HW174765   8.340  10.725   3.868
57642SOL    HW274766   8.418  10.852   3.892
57643SOL     OW74767   3.000  12.379   5.408
57643SOL    HW174768   3.010  12.472   5.423
57643SOL    HW274769   2.936  12.351   5.473
57644SOL     OW74770  13.346  14.828  12.897
57644SOL    HW174771  13.290   0.012  12.943
57644SOL    HW274772  13.324  14.744  12.936
57645SOL     OW74773   7.482   6.312   1.027
57645SOL    HW174774   7.472   6.279   0.938
57645SOL    HW274775   7.436   6.396   1.027
57646SOL     OW74776   0.587   9.840   0.112
57646SOL    HW174777   0.535   9.761   0.128
57646SOL    HW274778   0.677   9.814   0.131
57647SOL     OW74779   9.762   8.298  11.717
57647SOL    HW174780   9.832   8.266  11.659
57647SOL    HW274781   9.682   8.258  11.683
57648SOL     OW74782   7.881   8.994   5.682
57648SOL    HW174783   7.951   8.941   5.644
57648SOL    HW274784   7.801   8.947   5.660
57649SOL     OW74785   4.416  13.543  12.659
57649SOL    HW174786   4.370  13.509  12.583
57649SOL    HW274787   4.412  13.638  12.650
57650SOL     OW74788   3.881   0.427   4.588
57650SOL    HW174789   3.823   0.502   4.601
57650SOL    HW274790   3.934   0.424   4.668
57651SOL     OW74791   5.589   1.879   4.556
57651SOL    HW174792   5.507   1.833   4.575
57651SOL    HW274793   5.583   1.959   4.607
57652SOL     OW74794  12.974   1.967   4.624
57652SOL    HW174795  12.896   1.927   4.663
57652SOL    HW274796  12.993   2.042   4.680
57653SOL     OW74797   8.476  13.735   7.329
57653SOL    HW174798   8.406  13.735   7.264
57653SOL    HW274799   8.469  13.650   7.373
57654SOL     OW74800   4.315   5.354  14.207
57654SOL    HW174801   4.267   5.332  14.127
57654SOL    HW274802   4.378   5.421  14.179
57655SOL     OW74803   4.547  10.858   7.502
57655SOL    HW174804   4.465  10.907   7.509
57655SOL    HW274805   4.538  10.811   7.419
57656SOL     OW74806  12.686   5.905   4.980
57656SOL    HW174807  12.758   5.962   4.955
57656SOL    HW274808  12.712   5.818   4.948
57657SOL     OW74809  10.707   5.833   7.004
57657SOL    HW174810  10.654   5.890   6.947
57657SOL    HW274811  10.729   5.889   7.078
57658SOL     OW74812  12.590   9.479  12.811
57658SOL    HW174813  12.600   9.390  12.847
57658SOL    HW274814  12.498   9.500  12.827
57659SOL     OW74815   7.412  10.342   4.314
57659SOL    HW174816   7.421  10.423   4.365
57659SOL    HW274817   7.480  10.284   4.349
57660SOL     OW74818   2.051   4.086   6.513
57660SOL    HW174819   2.135   4.041   6.509
57660SOL    HW274820   2.032   4.110   6.422
57661SOL     OW74821   8.711   5.682  10.168
57661SOL    HW174822   8.625   5.709  10.136
57661SOL    HW274823   8.725   5.737  10.245
57662SOL     OW74824   0.540   4.436  12.330
57662SOL    HW174825   0.516   4.353  12.370
57662SOL    HW274826   0.492   4.438  12.248
57663SOL     OW74827   6.802  10.073   2.025
57663SOL    HW174828   6.757  10.005   2.074
57663SOL    HW274829   6.759  10.074   1.940
57664SOL     OW74830   1.882   9.033  11.608
57664SOL    HW174831   1.862   9.073  11.524
57664SOL    HW274832   1.959   8.978  11.592
57665SOL     OW74833  12.148  10.224   6.980
57665SOL    HW174834  12.137  10.200   6.888
57665SOL    HW274835  12.184  10.313   6.978
57666SOL     OW74836  13.715  13.842   2.874
57666SOL    HW174837  13.627  13.804   2.885
57666SOL    HW274838  13.767  13.801   2.943
57667SOL     OW74839  11.078   9.059   9.300
57667SOL    HW174840  11.070   9.114   9.223
57667SOL    HW274841  11.003   9.001   9.297
57668SOL     OW74842   8.814  12.573  11.668
57668SOL    HW174843   8.856  12.626  11.601
57668SOL    HW274844   8.720  12.592  11.660
57669SOL     OW74845  11.508   0.262   1.225
57669SOL    HW174846  11.565   0.295   1.294
57669SOL    HW274847  11.527   0.169   1.220
57670SOL     OW74848   6.414   1.576   8.543
57670SOL    HW174849   6.479   1.557   8.475
57670SOL    HW274850   6.401   1.671   8.538
57671SOL     OW74851  10.883   2.936  10.529
57671SOL    HW174852  10.915   2.846  10.535
57671SOL    HW274853  10.889   2.970  10.618
57672SOL     OW74854   6.338   0.580   1.165
57672SOL    HW174855   6.295   0.659   1.133
57672SOL    HW274856   6.375   0.605   1.249
57673SOL     OW74857   2.048   0.662   9.128
57673SOL    HW174858   2.103   0.653   9.206
57673SOL    HW274859   1.984   0.729   9.151
57674SOL     OW74860  12.845   8.441  12.433
57674SOL    HW174861  12.793   8.372  12.475
57674SOL    HW274862  12.816   8.440  12.341
57675SOL     OW74863   9.493   2.988  10.842
57675SOL    HW174864   9.569   2.936  10.866
57675SOL    HW274865   9.434   2.926  10.799
57676SOL     OW74866   4.805   9.045  13.445
57676SOL    HW174867   4.898   9.031  13.427
57676SOL    HW274868   4.774   8.962  13.479
57677SOL     OW74869  13.026   9.446   7.089
57677SOL    HW174870  13.041   9.526   7.039
57677SOL    HW274871  13.087   9.452   7.163
57678SOL     OW74872   2.944   0.279   9.079
57678SOL    HW174873   3.038   0.269   9.065
57678SOL    HW274874   2.931   0.252   9.170
57679SOL     OW74875   6.761   5.319   5.279
57679SOL    HW174876   6.674   5.358   5.287
57679SOL    HW274877   6.819   5.382   5.322
57680SOL     OW74878   2.911  10.161   1.668
57680SOL    HW174879   2.829  10.183   1.623
57680SOL    HW274880   2.893  10.180   1.760
57681SOL     OW74881   3.927   1.699   3.835
57681SOL    HW174882   3.912   1.708   3.929
57681SOL    HW274883   3.991   1.628   3.827
57682SOL     OW74884   3.284   0.858   7.825
57682SOL    HW174885   3.218   0.910   7.872
57682SOL    HW274886   3.364   0.868   7.878
57683SOL     OW74887   4.741   4.879  11.834
57683SOL    HW174888   4.705   4.892  11.746
57683SOL    HW274889   4.734   4.965  11.876
57684SOL     OW74890  12.035  13.271  10.435
57684SOL    HW174891  12.036  13.366  10.440
57684SOL    HW274892  11.973  13.244  10.504
57685SOL     OW74893   1.266  12.405  14.545
57685SOL    HW174894   1.270  12.408  14.640
57685SOL    HW274895   1.331  12.339  14.520
57686SOL     OW74896   8.800  12.981   0.689
57686SOL    HW174897   8.860  13.049   0.658
57686SOL    HW274898   8.792  12.921   0.614
57687SOL     OW74899   0.670   4.677  11.119
57687SOL    HW174900   0.645   4.758  11.163
57687SOL    HW274901   0.758   4.657  11.153
57688SOL     OW74902  14.845  12.433   6.896
57688SOL    HW174903   0.037  12.433   6.960
57688SOL    HW274904  14.814  12.523   6.894
57689SOL     OW74905   3.063  12.684   9.019
57689SOL    HW174906   3.094  12.716   9.104
57689SOL    HW274907   3.143  12.668   8.969
57690SOL     OW74908   9.633  14.737   1.375
57690SOL    HW174909   9.678  14.800   1.318
57690SOL    HW274910   9.664  14.759   1.463
57691SOL     OW74911  14.870  14.203   1.944
57691SOL    HW174912  14.810  14.274   1.970
57691SOL    HW274913   0.011  14.220   1.853
57692SOL     OW74914  11.378   3.146   3.844
57692SOL    HW174915  11.313   3.181   3.783
57692SOL    HW274916  11.370   3.051   3.834
57693SOL     OW74917   4.715   1.950  11.949
57693SOL    HW174918   4.636   2.004  11.946
57693SOL    HW274919   4.686   1.867  11.987
57694SOL     OW74920   4.966   0.769   5.379
57694SOL    HW174921   4.942   0.833   5.446
57694SOL    HW274922   4.901   0.782   5.309
57695SOL     OW74923  12.508  14.638  13.745
57695SOL    HW174924  12.571  14.705  13.770
57695SOL    HW274925  12.546  14.556  13.776
57696SOL     OW74926   9.302  11.681   4.522
57696SOL    HW174927   9.243  11.753   4.543
57696SOL    HW274928   9.353  11.712   4.448
57697SOL     OW74929   4.166  14.413   4.560
57697SOL    HW174930   4.255  14.450   4.556
57697SOL    HW274931   4.168  14.338   4.501
57698SOL     OW74932  11.932  11.705  13.698
57698SOL    HW174933  11.887  11.700  13.613
57698SOL    HW274934  11.891  11.778  13.743
57699SOL     OW74935   2.791   7.897   9.705
57699SOL    HW174936   2.812   7.959   9.635
57699SOL    HW274937   2.750   7.951   9.773
57700SOL     OW74938   4.661   2.501   5.561
57700SOL    HW174939   4.686   2.568   5.625
57700SOL    HW274940   4.566   2.510   5.553
57701SOL     OW74941   4.218   7.953  11.533
57701SOL    HW174942   4.212   8.032  11.588
57701SOL    HW274943   4.194   7.882  11.592
57702SOL     OW74944  13.220  12.660   8.914
57702SOL    HW174945  13.193  12.571   8.891
57702SOL    HW274946  13.183  12.674   9.001
57703SOL     OW74947   1.209   1.246   1.336
57703SOL    HW174948   1.227   1.154   1.319
57703SOL    HW274949   1.293   1.290   1.323
57704SOL     OW74950  14.878  11.853   7.049
57704SOL    HW174951   0.026  11.944   7.060
57704SOL    HW274952   0.050  11.822   6.975
57705SOL     OW74953   3.602  10.609   6.120
57705SOL    HW174954   3.619  10.523   6.082
57705SOL    HW274955   3.528  10.643   6.070
57706SOL     OW74956   9.781   3.527   8.291
57706SOL    HW174957   9.728   3.476   8.352
57706SOL    HW274958   9.735   3.611   8.285
57707SOL     OW74959   4.860   7.886   5.997
57707SOL    HW174960   4.944   7.840   6.002
57707SOL    HW274961   4.884   7.979   5.997
57708SOL     OW74962   2.045   3.277   2.513
57708SOL    HW174963   2.110   3.272   2.583
57708SOL    HW274964   1.961   3.273   2.558
57709SOL     OW74965  12.041  12.795   9.476
57709SOL    HW174966  12.062  12.722   9.418
57709SOL    HW274967  11.990  12.757   9.547
57710SOL     OW74968   5.501   8.172  11.018
57710SOL    HW174969   5.540   8.248  11.060
57710SOL    HW274970   5.549   8.161  10.937
57711SOL     OW74971  14.343   0.967   6.946
57711SOL    HW174972  14.349   0.991   7.039
57711SOL    HW274973  14.250   0.974   6.925
57712SOL     OW74974   6.832   1.741   6.109
57712SOL    HW174975   6.917   1.775   6.139
57712SOL    HW274976   6.768   1.788   6.163
57713SOL     OW74977   1.923  12.052  10.065
57713SOL    HW174978   1.961  11.968  10.092
57713SOL    HW274979   1.998  12.105  10.038
57714SOL     OW74980   3.335  14.510  10.001
57714SOL    HW174981   3.344  14.601   9.975
57714SOL    HW274982   3.392  14.462   9.940
57715SOL     OW74983   8.014   0.015  12.942
57715SOL    HW174984   8.009  14.806  12.906
57715SOL    HW274985   8.048   0.003  13.031
57716SOL     OW74986  13.644   2.983   8.358
57716SOL    HW174987  13.572   3.024   8.310
57716SOL    HW274988  13.716   2.978   8.295
57717SOL     OW74989   4.062   1.741  14.001
57717SOL    HW174990   4.010   1.662  13.986
57717SOL    HW274991   4.152   1.709  14.009
57718SOL     OW74992  14.055  10.376   6.321
57718SOL    HW174993  14.116  10.440   6.358
57718SOL    HW274994  13.991  10.429   6.272
57719SOL     OW74995  11.126  13.579   5.543
57719SOL    HW174996  11.132  13.671   5.569
57719SOL    HW274997  11.171  13.531   5.613
57720SOL     OW74998   3.412   0.548   8.656
57720SOL    HW174999   3.451   0.462   8.670
57720SOL    HW275000   3.435   0.598   8.734
57721SOL     OW75001   2.329   9.764   4.002
57721SOL    HW175002   2.268   9.751   3.929
57721SOL    HW275003   2.406   9.712   3.980
57722SOL     OW75004   3.917  11.584   9.670
57722SOL    HW175005   3.897  11.495   9.701
57722SOL    HW275006   3.983  11.616   9.732
57723SOL     OW75007   3.358   9.442   5.915
57723SOL    HW175008   3.444   9.425   5.877
57723SOL    HW275009   3.372   9.517   5.973
57724SOL     OW75010   4.387  14.857   1.310
57724SOL    HW175011   4.397  14.790   1.377
57724SOL    HW275012   4.458  14.839   1.248
57725SOL     OW75013  14.382  10.051   4.469
57725SOL    HW175014  14.424  10.054   4.555
57725SOL    HW275015  14.452  10.073   4.408
57726SOL     OW75016   0.345  13.997   5.871
57726SOL    HW175017   0.355  13.902   5.878
57726SOL    HW275018   0.344  14.014   5.777
57727SOL     OW75019  13.476  13.658   1.207
57727SOL    HW175020  13.434  13.572   1.216
57727SOL    HW275021  13.520  13.672   1.290
57728SOL     OW75022  10.895  12.530   1.844
57728SOL    HW175023  10.932  12.605   1.799
57728SOL    HW275024  10.872  12.468   1.774
57729SOL     OW75025   0.774  13.597   2.508
57729SOL    HW175026   0.865  13.589   2.478
57729SOL    HW275027   0.726  13.627   2.430
57730SOL     OW75028  12.131   4.699  11.696
57730SOL    HW175029  12.166   4.637  11.760
57730SOL    HW275030  12.104   4.775  11.748
57731SOL     OW75031  12.454  14.494  11.497
57731SOL    HW175032  12.444  14.502  11.402
57731SOL    HW275033  12.409  14.571  11.532
57732SOL     OW75034   8.633   0.849   0.857
57732SOL    HW175035   8.685   0.775   0.826
57732SOL    HW275036   8.692   0.897   0.915
57733SOL     OW75037   4.912  11.155   9.153
57733SOL    HW175038   4.975  11.173   9.083
57733SOL    HW275039   4.831  11.135   9.107
57734SOL     OW75040   8.951  14.167   7.715
57734SOL    HW175041   9.038  14.195   7.688
57734SOL    HW275042   8.891  14.223   7.666
57735SOL     OW75043   8.289   6.001  13.838
57735SOL    HW175044   8.323   5.975  13.924
57735SOL    HW275045   8.200   6.033  13.857
57736SOL     OW75046   5.096   9.032   8.564
57736SOL    HW175047   5.034   9.051   8.635
57736SOL    HW275048   5.047   9.051   8.484
57737SOL     OW75049  12.671  13.284   7.422
57737SOL    HW175050  12.632  13.372   7.421
57737SOL    HW275051  12.598  13.226   7.399
57738SOL     OW75052   1.073  11.087   6.659
57738SOL    HW175053   1.031  11.078   6.573
57738SOL    HW275054   1.109  11.001   6.677
57739SOL     OW75055  10.304   1.323   6.130
57739SOL    HW175056  10.348   1.286   6.054
57739SOL    HW275057  10.359   1.297   6.204
57740SOL     OW75058   1.707   7.837   7.233
57740SOL    HW175059   1.626   7.786   7.224
57740SOL    HW275060   1.698   7.907   7.168
57741SOL     OW75061   2.757   0.432   1.011
57741SOL    HW175062   2.738   0.430   0.917
57741SOL    HW275063   2.707   0.507   1.044
57742SOL     OW75064   8.273   8.599   8.396
57742SOL    HW175065   8.237   8.685   8.375
57742SOL    HW275066   8.197   8.541   8.399
57743SOL     OW75067   0.545   3.329  10.700
57743SOL    HW175068   0.589   3.381  10.767
57743SOL    HW275069   0.497   3.394  10.647
57744SOL     OW75070  12.116  11.565   6.066
57744SOL    HW175071  12.080  11.482   6.099
57744SOL    HW275072  12.153  11.607   6.143
57745SOL     OW75073   8.692   0.610   9.233
57745SOL    HW175074   8.758   0.555   9.274
57745SOL    HW275075   8.651   0.657   9.305
57746SOL     OW75076   9.629   1.270  10.328
57746SOL    HW175077   9.661   1.213  10.398
57746SOL    HW275078   9.648   1.222  10.247
57747SOL     OW75079  12.155  10.916  12.534
57747SOL    HW175080  12.176  10.832  12.576
57747SOL    HW275081  12.206  10.981  12.583
57748SOL     OW75082   0.426  12.513   2.934
57748SOL    HW175083   0.382  12.450   2.992
57748SOL    HW275084   0.509  12.471   2.913
57749SOL     OW75085   7.070  14.093   2.348
57749SOL    HW175086   7.064  14.083   2.253
57749SOL    HW275087   7.064  14.003   2.381
57750SOL     OW75088   4.950   7.308   5.214
57750SOL    HW175089   4.972   7.369   5.284
57750SOL    HW275090   4.974   7.354   5.133
57751SOL     OW75091   7.686  12.079   5.924
57751SOL    HW175092   7.655  12.126   5.847
57751SOL    HW275093   7.774  12.049   5.900
57752SOL     OW75094   3.542   4.323   5.647
57752SOL    HW175095   3.480   4.288   5.711
57752SOL    HW275096   3.510   4.411   5.627
57753SOL     OW75097   0.253   5.960   6.120
57753SOL    HW175098   0.234   5.888   6.180
57753SOL    HW275099   0.348   5.960   6.112
57754SOL     OW75100   4.554   5.792   5.931
57754SOL    HW175101   4.473   5.759   5.968
57754SOL    HW275102   4.597   5.837   6.004
57755SOL     OW75103  14.297  12.677  13.983
57755SOL    HW175104  14.339  12.600  14.020
57755SOL    HW275105  14.364  12.746  13.988
57756SOL     OW75106   5.109   0.448   7.688
57756SOL    HW175107   5.078   0.457   7.598
57756SOL    HW275108   5.030   0.446   7.741
57757SOL     OW75109  11.074   4.495   8.092
57757SOL    HW175110  11.082   4.582   8.129
57757SOL    HW275111  11.008   4.504   8.023
57758SOL     OW75112   5.305   5.220   2.494
57758SOL    HW175113   5.308   5.268   2.411
57758SOL    HW275114   5.368   5.149   2.482
57759SOL     OW75115  14.687   0.983  14.452
57759SOL    HW175116  14.649   1.062  14.413
57759SOL    HW275117  14.697   1.005  14.545
57760SOL     OW75118  13.565   2.434   2.389
57760SOL    HW175119  13.645   2.451   2.339
57760SOL    HW275120  13.547   2.341   2.375
57761SOL     OW75121   3.487   1.248  10.025
57761SOL    HW175122   3.564   1.234   9.970
57761SOL    HW275123   3.432   1.171  10.010
57762SOL     OW75124   6.556   7.752  14.474
57762SOL    HW175125   6.547   7.720  14.564
57762SOL    HW275126   6.623   7.820  14.480
57763SOL     OW75127   6.183   7.713   6.985
57763SOL    HW175128   6.108   7.760   6.948
57763SOL    HW275129   6.216   7.660   6.912
57764SOL     OW75130   9.449  13.210   9.661
57764SOL    HW175131   9.429  13.277   9.726
57764SOL    HW275132   9.526  13.244   9.615
57765SOL     OW75133   6.030  13.505  10.683
57765SOL    HW175134   6.108  13.449  10.678
57765SOL    HW275135   6.014  13.531  10.592
57766SOL     OW75136   4.980   8.140   1.244
57766SOL    HW175137   4.901   8.152   1.191
57766SOL    HW275138   4.992   8.045   1.247
57767SOL     OW75139   3.737   0.829   6.578
57767SOL    HW175140   3.797   0.755   6.577
57767SOL    HW275141   3.655   0.794   6.543
57768SOL     OW75142   4.244   7.864  12.681
57768SOL    HW175143   4.169   7.809  12.703
57768SOL    HW275144   4.210   7.953  12.687
57769SOL     OW75145   4.697   5.975   6.147
57769SOL    HW175146   4.766   6.019   6.197
57769SOL    HW275147   4.668   6.040   6.083
57770SOL     OW75148   2.894   8.844   1.577
57770SOL    HW175149   2.961   8.827   1.643
57770SOL    HW275150   2.893   8.764   1.524
57771SOL     OW75151   0.353   9.823  11.898
57771SOL    HW175152   0.396   9.773  11.829
57771SOL    HW275153   0.425   9.860  11.950
57772SOL     OW75154   6.574   7.474   1.634
57772SOL    HW175155   6.553   7.509   1.547
57772SOL    HW275156   6.491   7.475   1.681
57773SOL     OW75157  13.023   1.867   7.568
57773SOL    HW175158  13.046   1.789   7.618
57773SOL    HW275159  12.939   1.895   7.603
57774SOL     OW75160   4.170   8.750   0.418
57774SOL    HW175161   4.136   8.775   0.503
57774SOL    HW275162   4.247   8.696   0.437
57775SOL     OW75163   6.846   9.108   8.772
57775SOL    HW175164   6.811   9.105   8.861
57775SOL    HW275165   6.918   9.045   8.773
57776SOL     OW75166   7.945   9.621  11.867
57776SOL    HW175167   8.004   9.640  11.793
57776SOL    HW275168   7.875   9.685  11.859
57777SOL     OW75169   1.289   5.822  11.616
57777SOL    HW175170   1.269   5.889  11.681
57777SOL    HW275171   1.379   5.839  11.590
57778SOL     OW75172   8.599  13.065  13.039
57778SOL    HW175173   8.613  13.159  13.023
57778SOL    HW275174   8.529  13.041  12.979
57779SOL     OW75175   9.024   1.029  10.441
57779SOL    HW175176   8.999   1.122  10.436
57779SOL    HW275177   9.025   1.000  10.350
57780SOL     OW75178   4.532   4.520  11.455
57780SOL    HW175179   4.494   4.598  11.413
57780SOL    HW275180   4.516   4.449  11.393
57781SOL     OW75181   9.179   8.574  12.727
57781SOL    HW175182   9.127   8.503  12.689
57781SOL    HW275183   9.174   8.645  12.662
57782SOL     OW75184   6.317   9.107   7.273
57782SOL    HW175185   6.337   9.127   7.365
57782SOL    HW275186   6.278   9.020   7.275
57783SOL     OW75187   7.190   0.541  14.136
57783SOL    HW175188   7.106   0.534  14.091
57783SOL    HW275189   7.213   0.451  14.160
57784SOL     OW75190   2.790   2.824  13.627
57784SOL    HW175191   2.861   2.880  13.597
57784SOL    HW275192   2.829   2.774  13.699
57785SOL     OW75193   5.050   5.196   5.284
57785SOL    HW175194   4.991   5.153   5.347
57785SOL    HW275195   5.133   5.149   5.293
57786SOL     OW75196   4.346   2.988   8.929
57786SOL    HW175197   4.271   2.932   8.907
57786SOL    HW275198   4.422   2.938   8.898
57787SOL     OW75199   0.691   5.149  10.689
57787SOL    HW175200   0.732   5.066  10.665
57787SOL    HW275201   0.601   5.142  10.657
57788SOL     OW75202   8.184   8.065   2.473
57788SOL    HW175203   8.240   8.119   2.417
57788SOL    HW275204   8.134   8.011   2.412
57789SOL     OW75205   4.872  12.544  10.900
57789SOL    HW175206   4.813  12.559  10.825
57789SOL    HW275207   4.953  12.513  10.860
57790SOL     OW75208  11.112   5.411   3.978
57790SOL    HW175209  11.207   5.404   3.971
57790SOL    HW275210  11.083   5.323   4.001
57791SOL     OW75211   1.303   6.275   8.427
57791SOL    HW175212   1.208   6.281   8.441
57791SOL    HW275213   1.312   6.268   8.332
57792SOL     OW75214   4.567   5.649  11.668
57792SOL    HW175215   4.657   5.673  11.647
57792SOL    HW275216   4.562   5.555  11.650
57793SOL     OW75217  11.149   1.180   5.770
57793SOL    HW175218  11.111   1.189   5.857
57793SOL    HW275219  11.211   1.108   5.777
57794SOL     OW75220   8.303  12.741   0.438
57794SOL    HW175221   8.391  12.721   0.407
57794SOL    HW275222   8.245  12.707   0.370
57795SOL     OW75223   1.936   0.537   5.891
57795SOL    HW175224   1.999   0.510   5.958
57795SOL    HW275225   1.860   0.481   5.904
57796SOL     OW75226  13.364   5.566   9.083
57796SOL    HW175227  13.296   5.500   9.093
57796SOL    HW275228  13.447   5.518   9.090
57797SOL     OW75229   5.542   6.891  13.297
57797SOL    HW175230   5.600   6.815  13.292
57797SOL    HW275231   5.597   6.965  13.268
57798SOL     OW75232   5.977   8.900  12.796
57798SOL    HW175233   5.886   8.903  12.767
57798SOL    HW275234   6.017   8.979  12.760
57799SOL     OW75235   8.345  10.872   4.724
57799SOL    HW175236   8.377  10.796   4.675
57799SOL    HW275237   8.258  10.888   4.688
57800SOL     OW75238   5.681   6.002   4.926
57800SOL    HW175239   5.659   6.093   4.942
57800SOL    HW275240   5.612   5.952   4.971
57801SOL     OW75241   3.475   8.726   4.407
57801SOL    HW175242   3.466   8.669   4.483
57801SOL    HW275243   3.427   8.806   4.432
57802SOL     OW75244  11.442   7.853   5.890
57802SOL    HW175245  11.503   7.827   5.960
57802SOL    HW275246  11.365   7.800   5.906
57803SOL     OW75247   1.126   9.201   7.093
57803SOL    HW175248   1.174   9.246   7.163
57803SOL    HW275249   1.102   9.270   7.032
57804SOL     OW75250  14.830  12.383   4.227
57804SOL    HW175251  14.805  12.475   4.235
57804SOL    HW275252   0.047  12.384   4.233
57805SOL     OW75253   4.897   0.034   6.723
57805SOL    HW175254   4.853   0.118   6.709
57805SOL    HW275255   4.830  14.857   6.762
57806SOL     OW75256   7.693  12.217   7.982
57806SOL    HW175257   7.782  12.230   8.016
57806SOL    HW275258   7.639  12.279   8.033
57807SOL     OW75259  12.644  10.515   9.236
57807SOL    HW175260  12.604  10.472   9.161
57807SOL    HW275261  12.737  10.494   9.229
57808SOL     OW75262   0.545   7.143   3.431
57808SOL    HW175263   0.514   7.205   3.498
57808SOL    HW275264   0.613   7.191   3.383
57809SOL     OW75265  12.895  14.147   4.144
57809SOL    HW175266  12.866  14.069   4.191
57809SOL    HW275267  12.986  14.159   4.173
57810SOL     OW75268  14.348  11.383  11.193
57810SOL    HW175269  14.423  11.397  11.252
57810SOL    HW275270  14.287  11.453  11.216
57811SOL     OW75271  12.277   2.680   4.028
57811SOL    HW175272  12.344   2.614   4.010
57811SOL    HW275273  12.309   2.726   4.106
57812SOL     OW75274   2.932   1.024  14.705
57812SOL    HW175275   2.975   1.108  14.719
57812SOL    HW275276   2.849   1.045  14.663
57813SOL     OW75277   0.189   4.067   1.908
57813SOL    HW175278   0.226   4.077   1.996
57813SOL    HW275279   0.264   4.045   1.853
57814SOL     OW75280   2.978   8.186   8.728
57814SOL    HW175281   2.933   8.102   8.727
57814SOL    HW275282   2.971   8.216   8.818
57815SOL     OW75283  11.532   3.614   6.974
57815SOL    HW175284  11.564   3.702   6.954
57815SOL    HW275285  11.608   3.569   7.013
57816SOL     OW75286   9.654  13.541  10.522
57816SOL    HW175287   9.607  13.539  10.606
57816SOL    HW275288   9.599  13.489  10.463
57817SOL     OW75289  10.040   5.691  14.304
57817SOL    HW175290  10.004   5.627  14.366
57817SOL    HW275291  10.078   5.759  14.360
57818SOL     OW75292   4.305   9.308   8.223
57818SOL    HW175293   4.362   9.239   8.189
57818SOL    HW275294   4.304   9.374   8.155
57819SOL     OW75295   1.213  14.333   4.581
57819SOL    HW175296   1.181  14.288   4.503
57819SOL    HW275297   1.306  14.347   4.565
57820SOL     OW75298  14.189  12.394   2.782
57820SOL    HW175299  14.272  12.361   2.747
57820SOL    HW275300  14.182  12.352   2.868
57821SOL     OW75301   6.118   8.538   8.083
57821SOL    HW175302   6.082   8.546   7.994
57821SOL    HW275303   6.067   8.601   8.135
57822SOL     OW75304   0.667  12.125  12.585
57822SOL    HW175305   0.580  12.121  12.623
57822SOL    HW275306   0.724  12.086  12.651
57823SOL     OW75307   5.599  13.394   4.917
57823SOL    HW175308   5.527  13.457   4.920
57823SOL    HW275309   5.608  13.373   4.824
57824SOL     OW75310  14.029   8.632   1.511
57824SOL    HW175311  14.047   8.626   1.418
57824SOL    HW275312  14.100   8.687   1.546
57825SOL     OW75313   2.803   6.724   7.883
57825SOL    HW175314   2.712   6.737   7.857
57825SOL    HW275315   2.801   6.726   7.979
57826SOL     OW75316  10.578   1.364  14.439
57826SOL    HW175317  10.575   1.427  14.512
57826SOL    HW275318  10.616   1.285  14.477
57827SOL     OW75319  12.877   5.319  14.022
57827SOL    HW175320  12.813   5.337  14.090
57827SOL    HW275321  12.877   5.224  14.014
57828SOL     OW75322  11.297   7.169   2.703
57828SOL    HW175323  11.247   7.172   2.784
57828SOL    HW275324  11.369   7.230   2.717
57829SOL     OW75325  10.266   9.935   7.612
57829SOL    HW175326  10.263   9.955   7.518
57829SOL    HW275327  10.338   9.872   7.620
57830SOL     OW75328   1.988  10.220   2.652
57830SOL    HW175329   2.082  10.201   2.646
57830SOL    HW275330   1.976  10.296   2.595
57831SOL     OW75331   0.749   7.959   7.113
57831SOL    HW175332   0.799   7.983   7.034
57831SOL    HW275333   0.729   7.867   7.101
57832SOL     OW75334   0.615   9.441  11.708
57832SOL    HW175335   0.678   9.378  11.672
57832SOL    HW275336   0.538   9.387  11.730
57833SOL     OW75337  11.239   1.174  14.344
57833SOL    HW175338  11.324   1.169  14.387
57833SOL    HW275339  11.206   1.261  14.367
57834SOL     OW75340  10.278   1.172  14.375
57834SOL    HW175341  10.330   1.098  14.406
57834SOL    HW275342  10.338   1.222  14.319
57835SOL     OW75343   3.199   7.150  10.772
57835SOL    HW175344   3.287   7.187  10.771
57835SOL    HW275345   3.203   7.078  10.710
57836SOL     OW75346   5.616   2.003   0.980
57836SOL    HW175347   5.557   2.000   0.904
57836SOL    HW275348   5.593   1.926   1.031
57837SOL     OW75349   9.605   1.816  10.738
57837SOL    HW175350   9.681   1.771  10.702
57837SOL    HW275351   9.530   1.772  10.699
57838SOL     OW75352   6.450   5.686   8.749
57838SOL    HW175353   6.469   5.598   8.783
57838SOL    HW275354   6.394   5.726   8.816
57839SOL     OW75355   6.448   5.911  10.735
57839SOL    HW175356   6.505   5.953  10.800
57839SOL    HW275357   6.398   5.983  10.697
57840SOL     OW75358   3.645   8.681  12.221
57840SOL    HW175359   3.613   8.595  12.248
57840SOL    HW275360   3.633   8.736  12.298
57841SOL     OW75361   7.091  13.868   4.050
57841SOL    HW175362   7.078  13.862   4.145
57841SOL    HW275363   7.167  13.811   4.033
57842SOL     OW75364   8.581   6.594   7.361
57842SOL    HW175365   8.668   6.591   7.321
57842SOL    HW275366   8.571   6.510   7.404
57843SOL     OW75367   5.283  12.153   1.300
57843SOL    HW175368   5.270  12.066   1.261
57843SOL    HW275369   5.199  12.172   1.342
57844SOL     OW75370  12.666   6.652   7.796
57844SOL    HW175371  12.620   6.587   7.848
57844SOL    HW275372  12.604   6.678   7.728
57845SOL     OW75373   0.587   6.596  10.597
57845SOL    HW175374   0.574   6.503  10.615
57845SOL    HW275375   0.504   6.624  10.558
57846SOL     OW75376   7.930  11.481  11.748
57846SOL    HW175377   7.943  11.575  11.735
57846SOL    HW275378   7.982  11.440  11.679
57847SOL     OW75379   6.988  11.884   3.204
57847SOL    HW175380   6.913  11.938   3.181
57847SOL    HW275381   6.966  11.797   3.169
57848SOL     OW75382   1.945  10.446   0.673
57848SOL    HW175383   1.908  10.443   0.584
57848SOL    HW275384   1.986  10.360   0.683
57849SOL     OW75385   7.345  13.674   2.419
57849SOL    HW175386   7.334  13.711   2.507
57849SOL    HW275387   7.424  13.621   2.425
57850SOL     OW75388   2.274  12.324  11.293
57850SOL    HW175389   2.234  12.361  11.214
57850SOL    HW275390   2.292  12.400  11.348
57851SOL     OW75391   1.242   1.701  11.402
57851SOL    HW175392   1.163   1.670  11.446
57851SOL    HW275393   1.233   1.796  11.399
57852SOL     OW75394   3.825   3.190   4.745
57852SOL    HW175395   3.894   3.152   4.799
57852SOL    HW275396   3.769   3.237   4.808
57853SOL     OW75397   5.810   2.489   2.358
57853SOL    HW175398   5.870   2.441   2.415
57853SOL    HW275399   5.820   2.581   2.384
57854SOL     OW75400   2.112  13.029   9.008
57854SOL    HW175401   2.132  12.971   8.934
57854SOL    HW275402   2.137  13.116   8.977
57855SOL     OW75403  12.315   5.449  10.098
57855SOL    HW175404  12.279   5.426  10.183
57855SOL    HW275405  12.271   5.390  10.036
57856SOL     OW75406   1.469  13.975  13.987
57856SOL    HW175407   1.447  13.884  14.009
57856SOL    HW275408   1.528  14.002  14.057
57857SOL     OW75409   6.325   6.757   7.594
57857SOL    HW175410   6.293   6.711   7.517
57857SOL    HW275411   6.362   6.839   7.559
57858SOL     OW75412   5.534   5.292   1.003
57858SOL    HW175413   5.630   5.302   1.005
57858SOL    HW275414   5.510   5.314   0.913
57859SOL     OW75415  13.787  11.158   7.898
57859SOL    HW175416  13.824  11.077   7.934
57859SOL    HW275417  13.811  11.226   7.962
57860SOL     OW75418   5.660  14.562   7.099
57860SOL    HW175419   5.591  14.550   7.034
57860SOL    HW275420   5.621  14.532   7.181
57861SOL     OW75421  11.819   8.289   6.680
57861SOL    HW175422  11.812   8.304   6.586
57861SOL    HW275423  11.890   8.346   6.709
57862SOL     OW75424  13.726   0.283   3.726
57862SOL    HW175425  13.710   0.196   3.689
57862SOL    HW275426  13.775   0.330   3.658
57863SOL     OW75427  11.122   0.942   6.846
57863SOL    HW175428  11.161   1.021   6.883
57863SOL    HW275429  11.093   0.967   6.759
57864SOL     OW75430  10.908   7.846  14.484
57864SOL    HW175431  10.842   7.871  14.419
57864SOL    HW275432  10.929   7.755  14.464
57865SOL     OW75433   2.220   6.730   1.696
57865SOL    HW175434   2.131   6.716   1.662
57865SOL    HW275435   2.235   6.824   1.686
57866SOL     OW75436  12.611  11.868   6.362
57866SOL    HW175437  12.677  11.875   6.432
57866SOL    HW275438  12.582  11.777   6.367
57867SOL     OW75439   7.712  13.023   9.763
57867SOL    HW175440   7.681  12.932   9.768
57867SOL    HW275441   7.709  13.044   9.669
57868SOL     OW75442   6.786   5.090   2.889
57868SOL    HW175443   6.739   5.014   2.925
57868SOL    HW275444   6.876   5.078   2.919
57869SOL     OW75445   3.448   7.771   1.134
57869SOL    HW175446   3.453   7.787   1.228
57869SOL    HW275447   3.384   7.834   1.102
57870SOL     OW75448  11.904  11.539  14.044
57870SOL    HW175449  11.892  11.469  14.107
57870SOL    HW275450  11.942  11.611  14.094
57871SOL     OW75451   6.071   1.430   0.496
57871SOL    HW175452   6.133   1.467   0.433
57871SOL    HW275453   6.094   1.469   0.580
57872SOL     OW75454  11.577   8.188   5.348
57872SOL    HW175455  11.486   8.217   5.350
57872SOL    HW275456  11.617   8.237   5.276
57873SOL     OW75457   4.971  12.851   7.013
57873SOL    HW175458   5.048  12.869   6.958
57873SOL    HW275459   4.991  12.895   7.096
57874SOL     OW75460   3.371   6.555   2.805
57874SOL    HW175461   3.367   6.563   2.901
57874SOL    HW275462   3.291   6.507   2.782
57875SOL     OW75463   8.067  13.222   9.244
57875SOL    HW175464   8.057  13.303   9.194
57875SOL    HW275465   8.074  13.251   9.335
57876SOL     OW75466   7.150   8.977   1.241
57876SOL    HW175467   7.190   9.032   1.173
57876SOL    HW275468   7.087   9.035   1.284
57877SOL     OW75469  14.837   6.051   2.459
57877SOL    HW175470   0.009   6.051   2.378
57877SOL    HW275471   0.017   6.014   2.524
57878SOL     OW75472   4.318   8.685  14.788
57878SOL    HW175473   4.316   8.750  14.858
57878SOL    HW275474   4.343   8.604  14.831
57879SOL     OW75475  11.246  14.304  10.787
57879SOL    HW175476  11.289  14.337  10.708
57879SOL    HW275477  11.250  14.209  10.779
57880SOL     OW75478  11.077   9.672   9.813
57880SOL    HW175479  11.103   9.600   9.755
57880SOL    HW275480  11.104   9.644   9.900
57881SOL     OW75481   8.904   6.624   6.968
57881SOL    HW175482   8.905   6.537   6.929
57881SOL    HW275483   8.839   6.673   6.918
57882SOL     OW75484  14.798   4.567   6.009
57882SOL    HW175485  14.767   4.481   6.035
57882SOL    HW275486   0.006   4.574   6.048
57883SOL     OW75487  10.213   5.203  13.262
57883SOL    HW175488  10.249   5.161  13.341
57883SOL    HW275489  10.122   5.172  13.258
57884SOL     OW75490   7.268   0.014   5.868
57884SOL    HW175491   7.188  14.872   5.820
57884SOL    HW275492   7.321  14.814   5.863
57885SOL     OW75493  10.308  14.598  11.200
57885SOL    HW175494  10.358  14.575  11.278
57885SOL    HW275495  10.252  14.522  11.184
57886SOL     OW75496  13.127   7.845  11.168
57886SOL    HW175497  13.061   7.818  11.232
57886SOL    HW275498  13.208   7.804  11.198
57887SOL     OW75499   4.551  13.280   2.836
57887SOL    HW175500   4.490  13.322   2.896
57887SOL    HW275501   4.625  13.254   2.890
57888SOL     OW75502   1.151  12.580   1.244
57888SOL    HW175503   1.183  12.622   1.324
57888SOL    HW275504   1.068  12.540   1.269
57889SOL     OW75505   2.370  11.572  14.647
57889SOL    HW175506   2.315  11.629  14.594
57889SOL    HW275507   2.404  11.508  14.586
57890SOL     OW75508  11.125  13.746   1.613
57890SOL    HW175509  11.187  13.684   1.576
57890SOL    HW275510  11.073  13.694   1.675
57891SOL     OW75511   6.358  10.764  13.301
57891SOL    HW175512   6.344  10.686  13.354
57891SOL    HW275513   6.416  10.819  13.353
57892SOL     OW75514   0.956   5.903   2.996
57892SOL    HW175515   0.970   5.872   2.907
57892SOL    HW275516   1.002   5.841   3.051
57893SOL     OW75517   6.568   3.576  13.570
57893SOL    HW175518   6.476   3.554  13.559
57893SOL    HW275519   6.615   3.496  13.546
57894SOL     OW75520   2.892  12.126   1.524
57894SOL    HW175521   2.978  12.084   1.525
57894SOL    HW275522   2.910  12.218   1.541
57895SOL     OW75523  11.804  13.104  13.700
57895SOL    HW175524  11.813  13.010  13.715
57895SOL    HW275525  11.861  13.122  13.626
57896SOL     OW75526   2.116  14.018   7.872
57896SOL    HW175527   2.060  14.096   7.873
57896SOL    HW275528   2.070  13.956   7.815
57897SOL     OW75529   9.789   8.591   6.100
57897SOL    HW175530   9.713   8.535   6.088
57897SOL    HW275531   9.849   8.540   6.155
57898SOL     OW75532   4.032   7.125   7.647
57898SOL    HW175533   4.013   7.056   7.583
57898SOL    HW275534   4.125   7.143   7.635
57899SOL     OW75535   8.114   3.260  14.715
57899SOL    HW175536   8.160   3.185  14.678
57899SOL    HW275537   8.114   3.244  14.810
57900SOL     OW75538   3.383   8.047   6.953
57900SOL    HW175539   3.446   8.112   6.984
57900SOL    HW275540   3.437   7.976   6.918
57901SOL     OW75541   7.559   1.712   6.620
57901SOL    HW175542   7.504   1.734   6.696
57901SOL    HW275543   7.576   1.619   6.630
57902SOL     OW75544  13.757   4.906  13.131
57902SOL    HW175545  13.852   4.913  13.138
57902SOL    HW275546  13.729   4.866  13.214
57903SOL     OW75547   1.194  14.273   0.051
57903SOL    HW175548   1.264  14.315   0.101
57903SOL    HW275549   1.238  14.205   0.001
57904SOL     OW75550   5.978  14.282   5.029
57904SOL    HW175551   5.977  14.193   4.993
57904SOL    HW275552   5.986  14.269   5.124
57905SOL     OW75553  10.310  12.566   5.564
57905SOL    HW175554  10.299  12.472   5.572
57905SOL    HW275555  10.403  12.581   5.581
57906SOL     OW75556   3.961   2.646   7.034
57906SOL    HW175557   3.948   2.622   7.125
57906SOL    HW275558   4.009   2.573   6.996
57907SOL     OW75559  10.249  12.687   7.685
57907SOL    HW175560  10.266  12.624   7.615
57907SOL    HW275561  10.326  12.683   7.741
57908SOL     OW75562   1.619   2.438   4.139
57908SOL    HW175563   1.693   2.454   4.198
57908SOL    HW275564   1.659   2.432   4.052
57909SOL     OW75565   7.016   3.027   0.890
57909SOL    HW175566   6.975   2.964   0.948
57909SOL    HW275567   7.053   2.975   0.819
57910SOL     OW75568   0.220   9.413  13.406
57910SOL    HW175569   0.299   9.399  13.458
57910SOL    HW275570   0.152   9.437  13.469
57911SOL     OW75571   7.045   4.667  14.609
57911SOL    HW175572   7.128   4.676  14.656
57911SOL    HW275573   7.059   4.595  14.548
57912SOL     OW75574   9.080  14.290  14.805
57912SOL    HW175575   9.099  14.205  14.766
57912SOL    HW275576   8.995  14.315  14.768
57913SOL     OW75577  10.524  13.329   8.930
57913SOL    HW175578  10.584  13.354   8.859
57913SOL    HW275579  10.442  13.374   8.910
57914SOL     OW75580   2.057   8.474   9.492
57914SOL    HW175581   2.070   8.398   9.549
57914SOL    HW275582   2.079   8.442   9.404
57915SOL     OW75583  11.085  10.526  14.339
57915SOL    HW175584  11.088  10.615  14.304
57915SOL    HW275585  11.037  10.535  14.422
57916SOL     OW75586  13.601   1.153  12.889
57916SOL    HW175587  13.552   1.084  12.845
57916SOL    HW275588  13.537   1.223  12.902
57917SOL     OW75589  12.947   7.637   7.689
57917SOL    HW175590  12.888   7.601   7.755
57917SOL    HW275591  12.890   7.673   7.622
57918SOL     OW75592   1.141   5.947   7.733
57918SOL    HW175593   1.169   5.987   7.651
57918SOL    HW275594   1.191   5.866   7.740
57919SOL     OW75595  13.444   8.632   3.500
57919SOL    HW175596  13.505   8.648   3.428
57919SOL    HW275597  13.365   8.681   3.477
57920SOL     OW75598   5.750   1.188   4.982
57920SOL    HW175599   5.807   1.111   4.983
57920SOL    HW275600   5.661   1.153   4.977
57921SOL     OW75601   1.330   4.678   3.965
57921SOL    HW175602   1.295   4.644   4.047
57921SOL    HW275603   1.256   4.721   3.923
57922SOL     OW75604   8.388  10.981   6.066
57922SOL    HW175605   8.303  10.953   6.031
57922SOL    HW275606   8.430  10.900   6.095
57923SOL     OW75607   8.014   3.790   3.941
57923SOL    HW175608   7.953   3.803   4.013
57923SOL    HW275609   8.081   3.857   3.954
57924SOL     OW75610  13.298   1.465   4.625
57924SOL    HW175611  13.226   1.485   4.566
57924SOL    HW275612  13.372   1.444   4.567
57925SOL     OW75613  14.414  12.585   1.544
57925SOL    HW175614  14.450  12.566   1.631
57925SOL    HW275615  14.351  12.515   1.528
57926SOL     OW75616   6.719   4.017   6.015
57926SOL    HW175617   6.793   4.035   5.958
57926SOL    HW275618   6.731   3.927   6.044
57927SOL     OW75619  13.997  11.641  10.404
57927SOL    HW175620  13.937  11.572  10.379
57927SOL    HW275621  14.017  11.623  10.496
57928SOL     OW75622   2.533  10.572  14.409
57928SOL    HW175623   2.452  10.599  14.366
57928SOL    HW275624   2.599  10.634  14.377
57929SOL     OW75625   6.632   8.989  13.254
57929SOL    HW175626   6.717   8.963  13.289
57929SOL    HW275627   6.638   8.971  13.160
57930SOL     OW75628   2.360  13.882  13.865
57930SOL    HW175629   2.313  13.820  13.811
57930SOL    HW275630   2.326  13.968  13.840
57931SOL     OW75631   5.213   1.929   4.250
57931SOL    HW175632   5.162   2.002   4.286
57931SOL    HW275633   5.210   1.862   4.318
57932SOL     OW75634   3.730  10.163   4.314
57932SOL    HW175635   3.683  10.246   4.305
57932SOL    HW275636   3.676  10.111   4.373
57933SOL     OW75637  12.771   7.021  13.203
57933SOL    HW175638  12.739   6.988  13.287
57933SOL    HW275639  12.792   6.942  13.153
57934SOL     OW75640  10.998   2.447  14.179
57934SOL    HW175641  11.031   2.512  14.241
57934SOL    HW275642  10.914   2.483  14.149
57935SOL     OW75643  14.794   9.031   8.305
57935SOL    HW175644  14.842   9.086   8.366
57935SOL    HW275645  14.799   8.943   8.343
57936SOL     OW75646  10.024   0.059  10.005
57936SOL    HW175647   9.996   0.094   9.921
57936SOL    HW275648  10.085  14.868   9.983
57937SOL     OW75649   3.282   8.956  10.102
57937SOL    HW175650   3.248   9.043  10.083
57937SOL    HW275651   3.212   8.896  10.075
57938SOL     OW75652   5.402   5.886   2.881
57938SOL    HW175653   5.361   5.802   2.900
57938SOL    HW275654   5.365   5.913   2.797
57939SOL     OW75655   1.789   6.863  10.484
57939SOL    HW175656   1.814   6.923  10.554
57939SOL    HW275657   1.864   6.863  10.425
57940SOL     OW75658   8.698  12.324  14.268
57940SOL    HW175659   8.774  12.381  14.261
57940SOL    HW275660   8.724  12.257  14.331
57941SOL     OW75661   6.446   6.972   9.133
57941SOL    HW175662   6.406   6.965   9.046
57941SOL    HW275663   6.472   6.883   9.155
57942SOL     OW75664   5.705   5.556   1.315
57942SOL    HW175665   5.668   5.564   1.227
57942SOL    HW275666   5.724   5.647   1.341
57943SOL     OW75667   9.746   5.377  11.234
57943SOL    HW175668   9.770   5.326  11.157
57943SOL    HW275669   9.812   5.354  11.300
57944SOL     OW75670  13.600   2.355   3.540
57944SOL    HW175671  13.611   2.294   3.613
57944SOL    HW275672  13.688   2.389   3.523
57945SOL     OW75673  10.479  10.413   8.223
57945SOL    HW175674  10.416  10.421   8.294
57945SOL    HW275675  10.563  10.439   8.261
57946SOL     OW75676  11.000   7.586   1.450
57946SOL    HW175677  11.081   7.535   1.453
57946SOL    HW275678  10.932   7.522   1.427
57947SOL     OW75679  12.263   7.724  13.411
57947SOL    HW175680  12.286   7.720  13.504
57947SOL    HW275681  12.247   7.817  13.395
57948SOL     OW75682   8.042   3.715  13.355
57948SOL    HW175683   8.059   3.629  13.317
57948SOL    HW275684   7.975   3.698  13.422
57949SOL     OW75685   8.818  12.824   0.022
57949SOL    HW175686   8.754  12.763   0.059
57949SOL    HW275687   8.880  12.841   0.094
57950SOL     OW75688  11.841   9.714   7.254
57950SOL    HW175689  11.817   9.795   7.209
57950SOL    HW275690  11.854   9.740   7.345
57951SOL     OW75691   3.083  13.471  13.082
57951SOL    HW175692   3.174  13.477  13.112
57951SOL    HW275693   3.046  13.557  13.104
57952SOL     OW75694   9.214   2.064   3.653
57952SOL    HW175695   9.234   2.052   3.561
57952SOL    HW275696   9.220   1.976   3.691
57953SOL     OW75697  12.495   9.031  10.949
57953SOL    HW175698  12.516   9.116  10.910
57953SOL    HW275699  12.447   8.985  10.880
57954SOL     OW75700   4.374   7.671   4.550
57954SOL    HW175701   4.423   7.643   4.627
57954SOL    HW275702   4.315   7.739   4.581
57955SOL     OW75703  13.284  11.319   7.419
57955SOL    HW175704  13.257  11.289   7.505
57955SOL    HW275705  13.215  11.288   7.360
57956SOL     OW75706  11.103   3.509   1.110
57956SOL    HW175707  11.138   3.557   1.035
57956SOL    HW275708  11.176   3.458   1.143
57957SOL     OW75709   2.586   9.686  11.290
57957SOL    HW175710   2.622   9.599  11.304
57957SOL    HW275711   2.649   9.745  11.331
57958SOL     OW75712   8.910   4.657   3.861
57958SOL    HW175713   8.947   4.745   3.858
57958SOL    HW275714   8.971   4.603   3.811
57959SOL     OW75715   7.179   7.349  10.654
57959SOL    HW175716   7.219   7.374  10.571
57959SOL    HW275717   7.088   7.328  10.632
57960SOL     OW75718  14.267   5.754  11.284
57960SOL    HW175719  14.297   5.760  11.375
57960SOL    HW275720  14.269   5.845  11.253
57961SOL     OW75721  12.816   3.530   3.837
57961SOL    HW175722  12.725   3.509   3.859
57961SOL    HW275723  12.829   3.618   3.872
57962SOL     OW75724  12.553  13.134   9.934
57962SOL    HW175725  12.468  13.168   9.962
57962SOL    HW275726  12.604  13.129  10.015
57963SOL     OW75727   1.670   9.262   2.184
57963SOL    HW175728   1.720   9.268   2.265
57963SOL    HW275729   1.594   9.317   2.199
57964SOL     OW75730   7.992  12.589   3.466
57964SOL    HW175731   8.053  12.599   3.539
57964SOL    HW275732   7.927  12.527   3.497
57965SOL     OW75733   1.539   3.579  12.746
57965SOL    HW175734   1.480   3.511  12.714
57965SOL    HW275735   1.602   3.534  12.801
57966SOL     OW75736   3.746  12.013  11.886
57966SOL    HW175737   3.761  11.933  11.836
57966SOL    HW275738   3.694  12.068  11.828
57967SOL     OW75739   4.287   8.931   7.588
57967SOL    HW175740   4.294   9.013   7.538
57967SOL    HW275741   4.207   8.889   7.555
57968SOL     OW75742   6.613  11.315   4.328
57968SOL    HW175743   6.537  11.267   4.362
57968SOL    HW275744   6.578  11.400   4.302
57969SOL     OW75745  14.506   1.512   3.391
57969SOL    HW175746  14.516   1.558   3.475
57969SOL    HW275747  14.500   1.583   3.326
57970SOL     OW75748   7.910   5.840   5.772
57970SOL    HW175749   7.943   5.750   5.764
57970SOL    HW275750   7.907   5.872   5.682
57971SOL     OW75751  12.050   6.652   8.925
57971SOL    HW175752  12.105   6.669   9.002
57971SOL    HW275753  12.007   6.569   8.945
57972SOL     OW75754   1.279   4.726  13.077
57972SOL    HW175755   1.332   4.738  12.998
57972SOL    HW275756   1.341   4.699  13.144
57973SOL     OW75757   3.289   8.174   8.704
57973SOL    HW175758   3.279   8.144   8.794
57973SOL    HW275759   3.199   8.179   8.671
57974SOL     OW75760   1.535   3.300   3.709
57974SOL    HW175761   1.502   3.276   3.796
57974SOL    HW275762   1.457   3.300   3.654
57975SOL     OW75763  10.501  10.156   9.988
57975SOL    HW175764  10.449  10.184   9.913
57975SOL    HW275765  10.510  10.061   9.978
57976SOL     OW75766   3.705  12.761  13.251
57976SOL    HW175767   3.630  12.778  13.308
57976SOL    HW275768   3.771  12.824  13.279
57977SOL     OW75769   7.334  10.978  12.920
57977SOL    HW175770   7.322  11.068  12.889
57977SOL    HW275771   7.428  10.962  12.914
57978SOL     OW75772   7.964   1.317  10.284
57978SOL    HW175773   7.887   1.261  10.275
57978SOL    HW275774   7.998   1.325  10.195
57979SOL     OW75775  12.508  13.214   0.710
57979SOL    HW175776  12.576  13.210   0.642
57979SOL    HW275777  12.556  13.210   0.792
57980SOL     OW75778   0.077   8.444   0.635
57980SOL    HW175779   0.148   8.403   0.684
57980SOL    HW275780   0.020   8.482   0.703
57981SOL     OW75781   8.149  14.142   3.301
57981SOL    HW175782   8.085  14.170   3.235
57981SOL    HW275783   8.200  14.220   3.320
57982SOL     OW75784  11.143  11.352   6.354
57982SOL    HW175785  11.135  11.272   6.303
57982SOL    HW275786  11.107  11.421   6.297
57983SOL     OW75787   8.581   4.786   1.750
57983SOL    HW175788   8.601   4.871   1.790
57983SOL    HW275789   8.643   4.779   1.677
57984SOL     OW75790   1.674   1.950  11.568
57984SOL    HW175791   1.673   1.931  11.662
57984SOL    HW275792   1.654   1.866  11.527
57985SOL     OW75793   5.433  13.176  14.200
57985SOL    HW175794   5.494  13.179  14.126
57985SOL    HW275795   5.392  13.089  14.193
57986SOL     OW75796   1.166  14.319   1.519
57986SOL    HW175797   1.135  14.399   1.561
57986SOL    HW275798   1.238  14.289   1.575
57987SOL     OW75799  10.625   9.017   3.584
57987SOL    HW175800  10.557   9.073   3.620
57987SOL    HW275801  10.581   8.934   3.565
57988SOL     OW75802   5.498   6.197   8.507
57988SOL    HW175803   5.563   6.260   8.474
57988SOL    HW275804   5.499   6.210   8.602
57989SOL     OW75805   0.356   5.744   9.199
57989SOL    HW175806   0.364   5.804   9.125
57989SOL    HW275807   0.424   5.678   9.183
57990SOL     OW75808   6.437   3.016   4.602
57990SOL    HW175809   6.370   3.040   4.665
57990SOL    HW275810   6.393   2.957   4.541
57991SOL     OW75811  10.237   7.488   0.874
57991SOL    HW175812  10.295   7.413   0.865
57991SOL    HW275813  10.230   7.502   0.969
57992SOL     OW75814   7.017   0.160  10.768
57992SOL    HW175815   7.017   0.235  10.709
57992SOL    HW275816   6.927   0.156  10.802
57993SOL     OW75817   0.229  14.516   9.593
57993SOL    HW175818   0.196  14.555   9.674
57993SOL    HW275819   0.152  14.477   9.552
57994SOL     OW75820   5.877   8.874  11.736
57994SOL    HW175821   5.921   8.918  11.663
57994SOL    HW275822   5.801   8.928  11.754
57995SOL     OW75823  11.590   7.355  10.897
57995SOL    HW175824  11.495   7.345  10.890
57995SOL    HW275825  11.602   7.425  10.962
57996SOL     OW75826  13.444   1.247   7.787
57996SOL    HW175827  13.453   1.207   7.700
57996SOL    HW275828  13.368   1.202   7.825
57997SOL     OW75829  11.748   0.778   4.232
57997SOL    HW175830  11.788   0.696   4.260
57997SOL    HW275831  11.699   0.809   4.309
57998SOL     OW75832   6.404  12.194  12.819
57998SOL    HW175833   6.458  12.119  12.844
57998SOL    HW275834   6.404  12.192  12.723
57999SOL     OW75835   0.756   5.880   8.274
57999SOL    HW175836   0.821   5.944   8.246
57999SOL    HW275837   0.671   5.920   8.254
58000SOL     OW75838   0.705   4.432  11.425
58000SOL    HW175839   0.613   4.457  11.428
58000SOL    HW275840   0.707   4.343  11.461
58001SOL     OW75841   5.260  12.398   0.275
58001SOL    HW175842   5.304  12.379   0.358
58001SOL    HW275843   5.322  12.370   0.208
58002SOL     OW75844   5.336   2.049   7.038
58002SOL    HW175845   5.271   1.979   7.026
58002SOL    HW275846   5.411   2.021   6.986
58003SOL     OW75847  11.390   1.086   5.111
58003SOL    HW175848  11.376   1.050   5.024
58003SOL    HW275849  11.466   1.038   5.145
58004SOL     OW75850   1.466  13.103  12.606
58004SOL    HW175851   1.458  13.157  12.528
58004SOL    HW275852   1.445  13.161  12.679
58005SOL     OW75853  12.468  10.198   9.919
58005SOL    HW175854  12.377  10.181   9.944
58005SOL    HW275855  12.492  10.277   9.967
58006SOL     OW75856   9.156   0.465   0.131
58006SOL    HW175857   9.232   0.454   0.074
58006SOL    HW275858   9.081   0.467   0.071
58007SOL     OW75859   8.551  11.319  14.167
58007SOL    HW175860   8.474  11.351  14.119
58007SOL    HW275861   8.589  11.252  14.110
58008SOL     OW75862   3.787   8.047   8.727
58008SOL    HW175863   3.862   8.088   8.770
58008SOL    HW275864   3.820   8.020   8.642
58009SOL     OW75865   9.050  13.922   4.932
58009SOL    HW175866   9.065  14.015   4.950
58009SOL    HW275867   8.960  13.906   4.961
58010SOL     OW75868   7.461  13.167   4.457
58010SOL    HW175869   7.382  13.205   4.497
58010SOL    HW275870   7.495  13.108   4.524
58011SOL     OW75871   9.846   1.176   6.872
58011SOL    HW175872   9.776   1.184   6.808
58011SOL    HW275873   9.921   1.219   6.830
58012SOL     OW75874  11.480   8.030  11.181
58012SOL    HW175875  11.400   7.979  11.192
58012SOL    HW275876  11.452   8.108  11.132
58013SOL     OW75877  12.450  12.539   1.134
58013SOL    HW175878  12.366  12.578   1.157
58013SOL    HW275879  12.504  12.551   1.212
58014SOL     OW75880   9.754   8.284   5.636
58014SOL    HW175881   9.663   8.274   5.608
58014SOL    HW275882   9.803   8.226   5.579
58015SOL     OW75883   3.821   4.807   7.346
58015SOL    HW175884   3.860   4.774   7.427
58015SOL    HW275885   3.738   4.760   7.339
58016SOL     OW75886   0.016   7.473  14.520
58016SOL    HW175887  14.833   7.435  14.459
58016SOL    HW275888  14.843   7.495  14.597
58017SOL     OW75889   8.242   3.421   8.676
58017SOL    HW175890   8.318   3.461   8.635
58017SOL    HW275891   8.236   3.334   8.636
58018SOL     OW75892  11.636   4.686   1.651
58018SOL    HW175893  11.618   4.779   1.641
58018SOL    HW275894  11.620   4.668   1.743
58019SOL     OW75895   3.906   7.484   2.080
58019SOL    HW175896   3.910   7.574   2.047
58019SOL    HW275897   3.984   7.441   2.044
58020SOL     OW75898   7.491  11.939  10.935
58020SOL    HW175899   7.441  11.861  10.960
58020SOL    HW275900   7.578  11.906  10.912
58021SOL     OW75901   8.314   2.813  12.424
58021SOL    HW175902   8.383   2.874  12.396
58021SOL    HW275903   8.330   2.734  12.372
58022SOL     OW75904   1.567  13.491   7.544
58022SOL    HW175905   1.481  13.456   7.521
58022SOL    HW275906   1.629  13.440   7.491
58023SOL     OW75907   7.533   0.878   3.811
58023SOL    HW175908   7.493   0.805   3.764
58023SOL    HW275909   7.459   0.936   3.833
58024SOL     OW75910  14.460   2.184   6.943
58024SOL    HW175911  14.538   2.193   6.997
58024SOL    HW275912  14.428   2.096   6.960
58025SOL     OW75913   6.596  11.767   3.520
58025SOL    HW175914   6.656  11.840   3.501
58025SOL    HW275915   6.638  11.691   3.478
58026SOL     OW75916   4.609  11.758  14.691
58026SOL    HW175917   4.671  11.740  14.761
58026SOL    HW275918   4.634  11.845  14.659
58027SOL     OW75919   2.117  11.957   4.816
58027SOL    HW175920   2.119  11.982   4.723
58027SOL    HW275921   2.193  11.999   4.854
58028SOL     OW75922  11.779  10.776   4.023
58028SOL    HW175923  11.712  10.777   3.955
58028SOL    HW275924  11.733  10.749   4.102
58029SOL     OW75925  10.073   0.231  13.479
58029SOL    HW175926  10.097   0.310  13.431
58029SOL    HW275927  10.156   0.184  13.491
58030SOL     OW75928   6.257   4.221   4.308
58030SOL    HW175929   6.334   4.164   4.315
58030SOL    HW275930   6.215   4.215   4.394
58031SOL     OW75931   4.985   9.566   6.953
58031SOL    HW175932   5.035   9.487   6.935
58031SOL    HW275933   5.046   9.624   6.999
58032SOL     OW75934   9.183  12.909   5.683
58032SOL    HW175935   9.241  12.984   5.688
58032SOL    HW275936   9.098  12.945   5.656
58033SOL     OW75937  14.610  11.078   1.833
58033SOL    HW175938  14.627  11.054   1.924
58033SOL    HW275939  14.539  11.141   1.837
58034SOL     OW75940  14.157   0.092  12.543
58034SOL    HW175941  14.223   0.093  12.612
58034SOL    HW275942  14.099   0.019  12.565
58035SOL     OW75943   2.068  10.772   2.948
58035SOL    HW175944   2.044  10.746   2.859
58035SOL    HW275945   2.001  10.835   2.973
58036SOL     OW75946  10.744  14.581   3.709
58036SOL    HW175947  10.756  14.490   3.733
58036SOL    HW275948  10.782  14.588   3.621
58037SOL     OW75949   2.480   5.227   6.408
58037SOL    HW175950   2.560   5.277   6.429
58037SOL    HW275951   2.424   5.238   6.485
58038SOL     OW75952   7.090   9.145   1.901
58038SOL    HW175953   7.087   9.200   1.980
58038SOL    HW275954   6.998   9.137   1.875
58039SOL     OW75955   9.639   6.545   5.177
58039SOL    HW175956   9.571   6.596   5.222
58039SOL    HW275957   9.690   6.611   5.130
58040SOL     OW75958   7.107   8.687  14.850
58040SOL    HW175959   7.070   8.755   0.027
58040SOL    HW275960   7.044   8.615  14.856
58041SOL     OW75961   1.127   4.629   0.522
58041SOL    HW175962   1.075   4.657   0.447
58041SOL    HW275963   1.213   4.608   0.485
58042SOL     OW75964   1.956   7.806   1.259
58042SOL    HW175965   1.889   7.862   1.297
58042SOL    HW275966   1.944   7.722   1.302
58043SOL     OW75967   5.071  13.834   2.782
58043SOL    HW175968   5.150  13.782   2.798
58043SOL    HW275969   4.999  13.771   2.790
58044SOL     OW75970   4.080   8.786  12.100
58044SOL    HW175971   4.173   8.784  12.122
58044SOL    HW275972   4.035   8.779  12.184
58045SOL     OW75973   5.208   4.789   0.260
58045SOL    HW175974   5.142   4.804   0.192
58045SOL    HW275975   5.291   4.806   0.215
58046SOL     OW75976   3.937   6.511   4.913
58046SOL    HW175977   3.968   6.493   5.001
58046SOL    HW275978   3.883   6.589   4.922
58047SOL     OW75979   6.922  14.271  13.011
58047SOL    HW175980   6.970  14.301  12.933
58047SOL    HW275981   6.929  14.176  13.009
58048SOL     OW75982   8.643   9.678   8.074
58048SOL    HW175983   8.649   9.646   8.164
58048SOL    HW275984   8.620   9.770   8.082
58049SOL     OW75985  10.938   7.808   2.857
58049SOL    HW175986  10.878   7.782   2.787
58049SOL    HW275987  11.016   7.754   2.844
58050SOL     OW75988   2.912  14.376   1.503
58050SOL    HW175989   2.887  14.468   1.499
58050SOL    HW275990   2.938  14.362   1.594
58051SOL     OW75991  14.551   7.105   6.413
58051SOL    HW175992  14.563   7.036   6.348
58051SOL    HW275993  14.542   7.058   6.496
58052SOL     OW75994  13.766   8.335   0.925
58052SOL    HW175995  13.788   8.282   0.848
58052SOL    HW275996  13.816   8.416   0.914
58053SOL     OW75997   2.851   1.516  10.431
58053SOL    HW175998   2.800   1.582  10.478
58053SOL    HW275999   2.942   1.544  10.444
58054SOL     OW76000  11.079  14.680   7.460
58054SOL    HW176001  11.163  14.721   7.481
58054SOL    HW276002  11.068  14.696   7.367
58055SOL     OW76003   8.090   4.045   0.502
58055SOL    HW176004   8.011   4.093   0.527
58055SOL    HW276005   8.084   4.035   0.407
58056SOL     OW76006  14.811  14.855   9.816
58056SOL    HW176007  14.813  14.765   9.850
58056SOL    HW276008  14.788  14.844   9.723
58057SOL     OW76009   3.534   3.189   4.304
58057SOL    HW176010   3.628   3.199   4.320
58057SOL    HW276011   3.492   3.229   4.380
58058SOL     OW76012   9.115   3.859   3.066
58058SOL    HW176013   9.074   3.888   3.148
58058SOL    HW276014   9.063   3.899   2.997
58059SOL     OW76015  13.240  12.602   1.420
58059SOL    HW176016  13.235  12.651   1.502
58059SOL    HW276017  13.218  12.667   1.353
58060SOL     OW76018   2.195   2.494  10.515
58060SOL    HW176019   2.257   2.474  10.586
58060SOL    HW276020   2.243   2.555  10.458
58061SOL     OW76021   0.719   4.446   5.341
58061SOL    HW176022   0.744   4.513   5.405
58061SOL    HW276023   0.769   4.469   5.262
58062SOL     OW76024   4.316   9.155  14.266
58062SOL    HW176025   4.342   9.246  14.279
58062SOL    HW276026   4.318   9.116  14.354
58063SOL     OW76027  11.499  11.437   2.456
58063SOL    HW176028  11.536  11.525   2.461
58063SOL    HW276029  11.486  11.421   2.363
58064SOL     OW76030   7.721  12.202   6.905
58064SOL    HW176031   7.768  12.145   6.844
58064SOL    HW276032   7.768  12.285   6.901
58065SOL     OW76033  13.281   4.646   4.889
58065SOL    HW176034  13.312   4.720   4.940
58065SOL    HW276035  13.348   4.578   4.903
58066SOL     OW76036  12.836  14.316   9.880
58066SOL    HW176037  12.803  14.341   9.967
58066SOL    HW276038  12.866  14.226   9.892
58067SOL     OW76039   2.760   2.155   7.155
58067SOL    HW176040   2.823   2.167   7.226
58067SOL    HW276041   2.767   2.235   7.103
58068SOL     OW76042   8.557   3.865   1.465
58068SOL    HW176043   8.576   3.896   1.554
58068SOL    HW276044   8.609   3.786   1.456
58069SOL     OW76045   0.449   0.138  10.493
58069SOL    HW176046   0.375   0.084  10.520
58069SOL    HW276047   0.518   0.116  10.556
58070SOL     OW76048   5.147   0.671   8.659
58070SOL    HW176049   5.063   0.700   8.694
58070SOL    HW276050   5.139   0.576   8.653
58071SOL     OW76051   8.740   2.560   4.872
58071SOL    HW176052   8.764   2.627   4.808
58071SOL    HW276053   8.823   2.517   4.895
58072SOL     OW76054  13.160   3.312  10.490
58072SOL    HW176055  13.176   3.379  10.423
58072SOL    HW276056  13.188   3.353  10.572
58073SOL     OW76057   6.991   8.990   6.609
58073SOL    HW176058   7.002   8.993   6.704
58073SOL    HW276059   6.905   8.950   6.596
58074SOL     OW76060   5.683   7.114   8.169
58074SOL    HW176061   5.588   7.115   8.184
58074SOL    HW276062   5.706   7.206   8.159
58075SOL     OW76063   3.578  14.162   1.261
58075SOL    HW176064   3.549  14.236   1.209
58075SOL    HW276065   3.672  14.173   1.270
58076SOL     OW76066  11.930  11.774  10.376
58076SOL    HW176067  11.937  11.865  10.403
58076SOL    HW276068  11.996  11.729  10.430
58077SOL     OW76069   2.769   0.860   0.053
58077SOL    HW176070   2.830   0.933   0.067
58077SOL    HW276071   2.683   0.901   0.051
58078SOL     OW76072  12.948   3.916  12.864
58078SOL    HW176073  12.877   3.880  12.812
58078SOL    HW276074  12.923   4.008  12.879
58079SOL     OW76075   0.161   6.123   5.918
58079SOL    HW176076   0.215   6.179   5.973
58079SOL    HW276077   0.149   6.043   5.970
58080SOL     OW76078  13.648   2.849   7.991
58080SOL    HW176079  13.660   2.815   7.903
58080SOL    HW276080  13.630   2.772   8.045
58081SOL     OW76081  11.317   2.319  12.886
58081SOL    HW176082  11.407   2.324  12.916
58081SOL    HW276083  11.323   2.275  12.801
58082SOL     OW76084   5.157  14.758  14.439
58082SOL    HW176085   5.153  14.809  14.520
58082SOL    HW276086   5.126  14.671  14.465
58083SOL     OW76087   5.249   7.591  12.583
58083SOL    HW176088   5.160   7.592  12.617
58083SOL    HW276089   5.250   7.521  12.518
58084SOL     OW76090   7.451   6.589   1.889
58084SOL    HW176091   7.487   6.503   1.908
58084SOL    HW276092   7.367   6.570   1.846
58085SOL     OW76093   4.704   3.599   0.167
58085SOL    HW176094   4.706   3.609   0.263
58085SOL    HW276095   4.613   3.614   0.144
58086SOL     OW76096   6.299   9.474   3.951
58086SOL    HW176097   6.371   9.486   4.012
58086SOL    HW276098   6.264   9.387   3.971
58087SOL     OW76099  12.863   8.410  12.794
58087SOL    HW176100  12.815   8.381  12.717
58087SOL    HW276101  12.819   8.492  12.819
58088SOL     OW76102  10.920  11.150   2.497
58088SOL    HW176103  10.872  11.230   2.476
58088SOL    HW276104  11.010  11.168   2.471
58089SOL     OW76105   4.760   9.522   2.142
58089SOL    HW176106   4.789   9.612   2.130
58089SOL    HW276107   4.693   9.526   2.210
58090SOL     OW76108   7.908   1.302   2.695
58090SOL    HW176109   7.871   1.262   2.616
58090SOL    HW276110   7.833   1.338   2.742
58091SOL     OW76111   5.797   0.030  12.920
58091SOL    HW176112   5.725   0.081  12.957
58091SOL    HW276113   5.850   0.005  12.996
58092SOL     OW76114   1.276   1.217  13.192
58092SOL    HW176115   1.272   1.183  13.102
58092SOL    HW276116   1.211   1.165  13.240
58093SOL     OW76117   1.370   6.551   3.332
58093SOL    HW176118   1.361   6.637   3.373
58093SOL    HW276119   1.303   6.550   3.264
58094SOL     OW76120   9.909   8.490   4.248
58094SOL    HW176121   9.853   8.566   4.261
58094SOL    HW276122   9.905   8.442   4.330
58095SOL     OW76123  14.107   0.660  12.541
58095SOL    HW176124  14.076   0.748  12.521
58095SOL    HW276125  14.085   0.609  12.462
58096SOL     OW76126   3.916  14.373   1.674
58096SOL    HW176127   3.881  14.460   1.653
58096SOL    HW276128   3.913  14.369   1.769
58097SOL     OW76129  12.894   1.307   7.101
58097SOL    HW176130  12.950   1.377   7.068
58097SOL    HW276131  12.814   1.351   7.130
58098SOL     OW76132   8.629  12.168   8.364
58098SOL    HW176133   8.683  12.185   8.287
58098SOL    HW276134   8.579  12.089   8.341
58099SOL     OW76135   7.883   5.682  14.099
58099SOL    HW176136   7.968   5.718  14.124
58099SOL    HW276137   7.896   5.587  14.100
58100SOL     OW76138  10.519  14.822  10.710
58100SOL    HW176139  10.470  14.828  10.792
58100SOL    HW276140  10.471  14.879  10.650
58101SOL     OW76141   9.184   8.123   2.837
58101SOL    HW176142   9.272   8.089   2.852
58101SOL    HW276143   9.126   8.054   2.871
58102SOL     OW76144   4.031   8.879   5.971
58102SOL    HW176145   4.012   8.807   6.032
58102SOL    HW276146   4.025   8.839   5.884
58103SOL     OW76147   1.097   8.983   0.430
58103SOL    HW176148   1.057   9.007   0.346
58103SOL    HW276149   1.034   8.925   0.471
58104SOL     OW76150  13.849  13.033   8.401
58104SOL    HW176151  13.770  12.978   8.396
58104SOL    HW276152  13.922  12.972   8.396
58105SOL     OW76153   7.256   8.943   0.083
58105SOL    HW176154   7.160   8.937   0.074
58105SOL    HW276155   7.269   8.976   0.172
58106SOL     OW76156   2.180   5.469   1.463
58106SOL    HW176157   2.225   5.450   1.381
58106SOL    HW276158   2.149   5.560   1.453
58107SOL     OW76159   0.863   4.916   0.799
58107SOL    HW176160   0.919   4.910   0.721
58107SOL    HW276161   0.846   4.825   0.824
58108SOL     OW76162   2.598   6.644   1.229
58108SOL    HW176163   2.613   6.667   1.320
58108SOL    HW276164   2.658   6.699   1.179
58109SOL     OW76165   5.374  12.488   1.759
58109SOL    HW176166   5.329  12.423   1.812
58109SOL    HW276167   5.412  12.438   1.687
58110SOL     OW76168   4.886  12.123   4.612
58110SOL    HW176169   4.834  12.203   4.616
58110SOL    HW276170   4.909  12.115   4.519
58111SOL     OW76171   5.209   7.904   0.644
58111SOL    HW176172   5.142   7.918   0.711
58111SOL    HW276173   5.292   7.920   0.689
58112SOL     OW76174   5.142   7.527   6.838
58112SOL    HW176175   5.216   7.496   6.890
58112SOL    HW276176   5.076   7.554   6.902
58113SOL     OW76177  10.318  14.506   8.675
58113SOL    HW176178  10.350  14.429   8.628
58113SOL    HW276179  10.392  14.567   8.673
58114SOL     OW76180   8.313   6.291  10.538
58114SOL    HW176181   8.317   6.299  10.634
58114SOL    HW276182   8.223   6.265  10.520
58115SOL     OW76183  12.204  10.404  12.892
58115SOL    HW176184  12.291  10.395  12.932
58115SOL    HW276185  12.185  10.318  12.855
58116SOL     OW76186   8.143   3.731   4.490
58116SOL    HW176187   8.061   3.776   4.469
58116SOL    HW276188   8.117   3.661   4.550
58117SOL     OW76189   5.172   7.720   4.571
58117SOL    HW176190   5.092   7.772   4.558
58117SOL    HW276191   5.226   7.774   4.629
58118SOL     OW76192   1.813  13.381   8.340
58118SOL    HW176193   1.842  13.470   8.360
58118SOL    HW276194   1.721  13.390   8.317
58119SOL     OW76195  12.437   1.392   0.512
58119SOL    HW176196  12.393   1.313   0.544
58119SOL    HW276197  12.392   1.463   0.557
58120SOL     OW76198   3.978   5.802   6.380
58120SOL    HW176199   3.947   5.743   6.311
58120SOL    HW276200   4.073   5.798   6.374
58121SOL     OW76201   5.052   8.483   7.725
58121SOL    HW176202   5.130   8.536   7.707
58121SOL    HW276203   4.987   8.547   7.755
58122SOL     OW76204   3.258  12.103  11.302
58122SOL    HW176205   3.163  12.115  11.295
58122SOL    HW276206   3.289  12.107  11.212
58123SOL     OW76207  10.969   0.328  14.487
58123SOL    HW176208  11.050   0.288  14.456
58123SOL    HW276209  10.930   0.261  14.544
58124SOL     OW76210   0.452  11.408   5.441
58124SOL    HW176211   0.509  11.484   5.455
58124SOL    HW276212   0.449  11.365   5.527
58125SOL     OW76213   0.843   5.533  12.155
58125SOL    HW176214   0.816   5.459  12.100
58125SOL    HW276215   0.773   5.597  12.145
58126SOL     OW76216   6.820  13.871   2.939
58126SOL    HW176217   6.780  13.820   2.868
58126SOL    HW276218   6.808  13.817   3.017
58127SOL     OW76219  14.703   8.305   9.908
58127SOL    HW176220  14.754   8.328   9.985
58127SOL    HW276221  14.631   8.251   9.942
58128SOL     OW76222   2.706  11.113   7.897
58128SOL    HW176223   2.700  11.178   7.967
58128SOL    HW276224   2.616  11.103   7.866
58129SOL     OW76225  14.410  14.264   8.564
58129SOL    HW176226  14.465  14.315   8.505
58129SOL    HW276227  14.471  14.209   8.613
58130SOL     OW76228  13.192   5.724  14.716
58130SOL    HW176229  13.166   5.636  14.689
58130SOL    HW276230  13.276   5.711  14.760
58131SOL     OW76231   7.856  10.141  14.062
58131SOL    HW176232   7.900  10.067  14.022
58131SOL    HW276233   7.869  10.129  14.157
58132SOL     OW76234   2.724  14.618  10.745
58132SOL    HW176235   2.654  14.612  10.811
58132SOL    HW276236   2.784  14.683  10.781
58133SOL     OW76237   9.054   0.821  13.913
58133SOL    HW176238   9.138   0.821  13.867
58133SOL    HW276239   8.992   0.859  13.850
58134SOL     OW76240   9.180  12.401   6.973
58134SOL    HW176241   9.185  12.312   6.938
58134SOL    HW276242   9.266  12.439   6.954
58135SOL     OW76243   7.334  14.108  11.238
58135SOL    HW176244   7.429  14.118  11.234
58135SOL    HW276245   7.300  14.197  11.229
58136SOL     OW76246  11.589   1.661   5.068
58136SOL    HW176247  11.504   1.625   5.092
58136SOL    HW276248  11.614   1.715   5.144
58137SOL     OW76249   0.900  13.848   2.091
58137SOL    HW176250   0.867  13.777   2.036
58137SOL    HW276251   0.822  13.896   2.118
58138SOL     OW76252   6.211  13.094   0.277
58138SOL    HW176253   6.299  13.097   0.313
58138SOL    HW276254   6.153  13.097   0.353
58139SOL     OW76255   8.902   2.928  13.047
58139SOL    HW176256   8.881   2.837  13.067
58139SOL    HW276257   8.858   2.945  12.964
58140SOL     OW76258   4.260   5.706   7.182
58140SOL    HW176259   4.342   5.657   7.186
58140SOL    HW276260   4.220   5.695   7.268
58141SOL     OW76261   6.637   4.235  14.587
58141SOL    HW176262   6.572   4.220  14.656
58141SOL    HW276263   6.595   4.200  14.508
58142SOL     OW76264  11.767   7.125  11.719
58142SOL    HW176265  11.797   7.034  11.717
58142SOL    HW276266  11.836   7.173  11.765
58143SOL     OW76267   4.832   9.406   0.606
58143SOL    HW176268   4.764   9.340   0.623
58143SOL    HW276269   4.796   9.487   0.643
58144SOL     OW76270  14.526  11.317  14.312
58144SOL    HW176271  14.512  11.223  14.299
58144SOL    HW276272  14.540  11.351  14.224
58145SOL     OW76273  13.373   6.609   2.010
58145SOL    HW176274  13.391   6.699   1.985
58145SOL    HW276275  13.292   6.587   1.962
58146SOL     OW76276   3.895  13.526   1.372
58146SOL    HW176277   3.876  13.561   1.285
58146SOL    HW276278   3.869  13.434   1.367
58147SOL     OW76279   8.437  11.418   4.974
58147SOL    HW176280   8.452  11.512   4.978
58147SOL    HW276281   8.346  11.406   5.000
58148SOL     OW76282  10.362  12.873   6.958
58148SOL    HW176283  10.307  12.835   7.026
58148SOL    HW276284  10.403  12.798   6.915
58149SOL     OW76285   2.423   6.964   5.742
58149SOL    HW176286   2.386   6.958   5.654
58149SOL    HW276287   2.479   7.041   5.740
58150SOL     OW76288  10.183   8.479   6.801
58150SOL    HW176289  10.162   8.523   6.883
58150SOL    HW276290  10.240   8.406   6.827
58151SOL     OW76291   8.786   3.882  11.353
58151SOL    HW176292   8.858   3.944  11.357
58151SOL    HW276293   8.709   3.933  11.378
58152SOL     OW76294  13.520  12.831   3.492
58152SOL    HW176295  13.545  12.844   3.401
58152SOL    HW276296  13.537  12.738   3.508
58153SOL     OW76297  14.830   0.269  14.021
58153SOL    HW176298  14.751   0.246  14.070
58153SOL    HW276299  14.859   0.351  14.060
58154SOL     OW76300   9.257   4.751  11.831
58154SOL    HW176301   9.348   4.746  11.859
58154SOL    HW276302   9.231   4.660  11.815
58155SOL     OW76303   9.076   7.456   6.335
58155SOL    HW176304   8.983   7.446   6.313
58155SOL    HW276305   9.084   7.417   6.422
58156SOL     OW76306   0.553   1.287   4.031
58156SOL    HW176307   0.552   1.223   4.102
58156SOL    HW276308   0.591   1.365   4.070
58157SOL     OW76309  12.032   2.301   9.412
58157SOL    HW176310  12.127   2.318   9.411
58157SOL    HW276311  12.024   2.218   9.460
58158SOL     OW76312  14.353  10.555  14.796
58158SOL    HW176313  14.299  10.549  14.717
58158SOL    HW276314  14.298  10.519  14.865
58159SOL     OW76315  12.858  14.689  13.483
58159SOL    HW176316  12.928  14.628  13.505
58159SOL    HW276317  12.815  14.707  13.567
58160SOL     OW76318   6.335   4.751   0.272
58160SOL    HW176319   6.341   4.696   0.350
58160SOL    HW276320   6.352   4.840   0.304
58161SOL     OW76321   6.888   2.419   2.983
58161SOL    HW176322   6.881   2.511   2.959
58161SOL    HW276323   6.843   2.412   3.067
58162SOL     OW76324   6.109   0.490   4.602
58162SOL    HW176325   6.084   0.426   4.669
58162SOL    HW276326   6.055   0.469   4.526
58163SOL     OW76327   9.817   9.091   1.852
58163SOL    HW176328   9.816   9.083   1.757
58163SOL    HW276329   9.747   9.032   1.882
58164SOL     OW76330   2.699   6.611   4.089
58164SOL    HW176331   2.610   6.617   4.056
58164SOL    HW276332   2.696   6.652   4.175
58165SOL     OW76333   5.826  10.386   1.922
58165SOL    HW176334   5.813  10.379   2.017
58165SOL    HW276335   5.743  10.421   1.889
58166SOL     OW76336   6.947   6.188  10.323
58166SOL    HW176337   6.949   6.284  10.316
58166SOL    HW276338   6.993   6.158  10.244
58167SOL     OW76339   7.197   9.820   2.916
58167SOL    HW176340   7.225   9.802   2.826
58167SOL    HW276341   7.237   9.750   2.968
58168SOL     OW76342  12.547   7.150   0.274
58168SOL    HW176343  12.521   7.091   0.204
58168SOL    HW276344  12.509   7.112   0.353
58169SOL     OW76345   9.603  11.598  10.932
58169SOL    HW176346   9.583  11.677  10.882
58169SOL    HW276347   9.522  11.547  10.930
58170SOL     OW76348   9.250   3.385   8.910
58170SOL    HW176349   9.259   3.460   8.852
58170SOL    HW276350   9.200   3.418   8.985
58171SOL     OW76351   5.544   5.979   2.081
58171SOL    HW176352   5.523   5.885   2.078
58171SOL    HW276353   5.460   6.022   2.063
58172SOL     OW76354   0.287  14.316   1.572
58172SOL    HW176355   0.296  14.285   1.482
58172SOL    HW276356   0.371  14.357   1.592
58173SOL     OW76357   4.746   9.622   1.754
58173SOL    HW176358   4.833   9.645   1.786
58173SOL    HW276359   4.718   9.699   1.705
58174SOL     OW76360  10.266   8.171   7.849
58174SOL    HW176361  10.184   8.122   7.842
58174SOL    HW276362  10.249   8.254   7.804
58175SOL     OW76363  11.169  12.808   9.470
58175SOL    HW176364  11.122  12.762   9.540
58175SOL    HW276365  11.183  12.896   9.504
58176SOL     OW76366   6.900  11.457   0.674
58176SOL    HW176367   6.969  11.515   0.707
58176SOL    HW276368   6.945  11.401   0.611
58177SOL     OW76369   9.174   0.647   0.335
58177SOL    HW176370   9.185   0.565   0.287
58177SOL    HW276371   9.080   0.651   0.354
58178SOL     OW76372   1.169  13.666  10.409
58178SOL    HW176373   1.118  13.716  10.473
58178SOL    HW276374   1.103  13.617  10.359
58179SOL     OW76375   9.269   5.042   3.359
58179SOL    HW176376   9.235   5.121   3.316
58179SOL    HW276377   9.331   5.006   3.296
58180SOL     OW76378   6.857  14.548  12.073
58180SOL    HW176379   6.900  14.633  12.087
58180SOL    HW276380   6.847  14.541  11.979
58181SOL     OW76381   6.366  10.869   9.096
58181SOL    HW176382   6.399  10.952   9.129
58181SOL    HW276383   6.400  10.864   9.006
58182SOL     OW76384  11.378   2.325   3.490
58182SOL    HW176385  11.324   2.290   3.561
58182SOL    HW276386  11.316   2.366   3.431
58183SOL     OW76387  12.472  12.907   9.159
58183SOL    HW176388  12.457  12.907   9.065
58183SOL    HW276389  12.507  12.820   9.178
58184SOL     OW76390  10.318   7.810   8.664
58184SOL    HW176391  10.222   7.815   8.666
58184SOL    HW276392  10.346   7.900   8.675
58185SOL     OW76393   4.891   2.110   6.837
58185SOL    HW176394   4.955   2.058   6.787
58185SOL    HW276395   4.818   2.123   6.776
58186SOL     OW76396   2.405   5.803  13.611
58186SOL    HW176397   2.436   5.886  13.575
58186SOL    HW276398   2.426   5.808  13.704
58187SOL     OW76399   6.249   3.638   2.570
58187SOL    HW176400   6.295   3.612   2.650
58187SOL    HW276401   6.237   3.557   2.521
58188SOL     OW76402   7.034   3.871  11.468
58188SOL    HW176403   6.973   3.875  11.542
58188SOL    HW276404   7.118   3.898  11.504
58189SOL     OW76405  13.494   0.339   9.032
58189SOL    HW176406  13.540   0.422   9.043
58189SOL    HW276407  13.451   0.324   9.116
58190SOL     OW76408   0.203   4.635  12.212
58190SOL    HW176409   0.249   4.638  12.296
58190SOL    HW276410   0.193   4.727  12.186
58191SOL     OW76411   4.487  11.679  14.314
58191SOL    HW176412   4.476  11.679  14.219
58191SOL    HW276413   4.411  11.631  14.346
58192SOL     OW76414   7.040   1.851   7.888
58192SOL    HW176415   7.087   1.925   7.849
58192SOL    HW276416   7.108   1.801   7.934
58193SOL     OW76417  11.597   0.581   4.935
58193SOL    HW176418  11.673   0.625   4.897
58193SOL    HW276419  11.629   0.494   4.959
58194SOL     OW76420   3.284   3.980   1.327
58194SOL    HW176421   3.200   4.024   1.327
58194SOL    HW276422   3.324   4.001   1.243
58195SOL     OW76423   6.335   8.600   3.423
58195SOL    HW176424   6.329   8.505   3.427
58195SOL    HW276425   6.253   8.627   3.382
58196SOL     OW76426   1.002  14.596   1.275
58196SOL    HW176427   0.960  14.558   1.352
58196SOL    HW276428   0.988  14.690   1.284
58197SOL     OW76429  12.393   3.284   7.856
58197SOL    HW176430  12.342   3.217   7.903
58197SOL    HW276431  12.405   3.354   7.920
58198SOL     OW76432   4.973   6.871  13.763
58198SOL    HW176433   5.046   6.816  13.734
58198SOL    HW276434   5.014   6.938  13.818
58199SOL     OW76435  13.104   9.339   0.480
58199SOL    HW176436  13.036   9.406   0.480
58199SOL    HW276437  13.062   9.260   0.446
58200SOL     OW76438   2.478   1.245   7.670
58200SOL    HW176439   2.517   1.322   7.710
58200SOL    HW276440   2.386   1.268   7.658
58201SOL     OW76441   4.424  10.851   5.272
58201SOL    HW176442   4.410  10.878   5.182
58201SOL    HW276443   4.502  10.795   5.269
58202SOL     OW76444  12.352  11.615   0.786
58202SOL    HW176445  12.371  11.521   0.781
58202SOL    HW276446  12.436  11.656   0.807
58203SOL     OW76447   1.857   2.221   1.018
58203SOL    HW176448   1.767   2.194   1.034
58203SOL    HW276449   1.854   2.270   0.936
58204SOL     OW76450  10.337   7.514   5.894
58204SOL    HW176451  10.335   7.491   5.801
58204SOL    HW276452  10.326   7.609   5.896
58205SOL     OW76453  13.860  11.360  10.778
58205SOL    HW176454  13.871  11.267  10.757
58205SOL    HW276455  13.767  11.377  10.763
58206SOL     OW76456  12.869   9.561   4.786
58206SOL    HW176457  12.899   9.637   4.835
58206SOL    HW276458  12.879   9.587   4.694
58207SOL     OW76459   4.515  10.773   1.152
58207SOL    HW176460   4.433  10.758   1.200
58207SOL    HW276461   4.583  10.772   1.219
58208SOL     OW76462  11.778   4.210   9.688
58208SOL    HW176463  11.822   4.280   9.639
58208SOL    HW276464  11.828   4.131   9.666
58209SOL     OW76465   9.459   6.187   2.691
58209SOL    HW176466   9.392   6.188   2.759
58209SOL    HW276467   9.485   6.279   2.682
58210SOL     OW76468   8.200   5.952   5.239
58210SOL    HW176469   8.136   5.896   5.283
58210SOL    HW276470   8.147   6.015   5.190
58211SOL     OW76471   2.394   5.442  11.584
58211SOL    HW176472   2.486   5.449  11.610
58211SOL    HW276473   2.397   5.421  11.491
58212SOL     OW76474  10.446   7.977   5.701
58212SOL    HW176475  10.435   8.071   5.684
58212SOL    HW276476  10.380   7.936   5.646
58213SOL     OW76477  13.099   2.078   0.842
58213SOL    HW176478  13.025   2.017   0.848
58213SOL    HW276479  13.062   2.164   0.863
58214SOL     OW76480   2.318  12.576  12.381
58214SOL    HW176481   2.375  12.585  12.458
58214SOL    HW276482   2.308  12.665  12.348
58215SOL     OW76483   7.964  13.179   2.133
58215SOL    HW176484   8.059  13.181   2.120
58215SOL    HW276485   7.931  13.243   2.070
58216SOL     OW76486   6.537   0.762  11.571
58216SOL    HW176487   6.625   0.743  11.604
58216SOL    HW276488   6.543   0.852  11.538
58217SOL     OW76489   1.856  10.649  10.837
58217SOL    HW176490   1.817  10.562  10.850
58217SOL    HW276491   1.924  10.655  10.904
58218SOL     OW76492  14.764   5.101   9.234
58218SOL    HW176493  14.795   5.185   9.266
58218SOL    HW276494  14.757   5.113   9.139
58219SOL     OW76495   3.627   8.068   9.908
58219SOL    HW176496   3.560   8.000   9.906
58219SOL    HW276497   3.590   8.140   9.857
58220SOL     OW76498   0.932   3.620   4.970
58220SOL    HW176499   0.883   3.674   4.908
58220SOL    HW276500   0.870   3.601   5.040
58221SOL     OW76501  10.083  13.675   4.406
58221SOL    HW176502   9.994  13.653   4.432
58221SOL    HW276503  10.105  13.613   4.337
58222SOL     OW76504   1.782  13.861   9.077
58222SOL    HW176505   1.730  13.805   9.020
58222SOL    HW276506   1.732  13.943   9.083
58223SOL     OW76507   2.432   4.248   9.192
58223SOL    HW176508   2.485   4.206   9.260
58223SOL    HW276509   2.477   4.330   9.173
58224SOL     OW76510   4.434  12.533   7.233
58224SOL    HW176511   4.448  12.449   7.190
58224SOL    HW276512   4.344  12.556   7.209
58225SOL     OW76513  11.861   5.309  14.589
58225SOL    HW176514  11.781   5.348  14.623
58225SOL    HW276515  11.879   5.357  14.508
58226SOL     OW76516   3.444   5.186  13.784
58226SOL    HW176517   3.404   5.115  13.835
58226SOL    HW276518   3.372   5.223  13.734
58227SOL     OW76519   8.092   3.958   7.328
58227SOL    HW176520   8.170   3.952   7.385
58227SOL    HW276521   8.035   4.020   7.373
58228SOL     OW76522   1.757  11.314   1.932
58228SOL    HW176523   1.780  11.221   1.934
58228SOL    HW276524   1.663  11.316   1.951
58229SOL     OW76525   5.124   4.728   8.434
58229SOL    HW176526   5.050   4.787   8.447
58229SOL    HW276527   5.127   4.714   8.339
58230SOL     OW76528   9.735   5.466   2.729
58230SOL    HW176529   9.683   5.433   2.655
58230SOL    HW276530   9.822   5.481   2.692
58231SOL     OW76531  14.594  10.208  13.208
58231SOL    HW176532  14.518  10.216  13.151
58231SOL    HW276533  14.641  10.290  13.198
58232SOL     OW76534   4.861  14.084   4.985
58232SOL    HW176535   4.852  14.062   5.078
58232SOL    HW276536   4.941  14.038   4.957
58233SOL     OW76537  14.101   3.800  12.285
58233SOL    HW176538  14.176   3.806  12.225
58233SOL    HW276539  14.071   3.709  12.277
58234SOL     OW76540   8.080   6.160   5.630
58234SOL    HW176541   8.109   6.206   5.551
58234SOL    HW276542   8.064   6.070   5.600
58235SOL     OW76543  10.897   0.670   4.749
58235SOL    HW176544  10.923   0.630   4.832
58235SOL    HW276545  10.967   0.649   4.688
58236SOL     OW76546   3.661  14.114  12.801
58236SOL    HW176547   3.643  14.182  12.736
58236SOL    HW276548   3.576  14.074  12.818
58237SOL     OW76549   4.613  12.276  11.888
58237SOL    HW176550   4.526  12.240  11.870
58237SOL    HW276551   4.673  12.208  11.858
58238SOL     OW76552  12.755   2.029   7.647
58238SOL    HW176553  12.746   2.116   7.685
58238SOL    HW276554  12.694   2.028   7.573
58239SOL     OW76555   6.894   1.543   8.546
58239SOL    HW176556   6.971   1.506   8.505
58239SOL    HW276557   6.928   1.613   8.602
58240SOL     OW76558   7.974  13.989   4.113
58240SOL    HW176559   7.940  14.015   4.199
58240SOL    HW276560   7.929  13.906   4.094
58241SOL     OW76561   1.473   4.748   3.341
58241SOL    HW176562   1.480   4.812   3.411
58241SOL    HW276563   1.385   4.713   3.349
58242SOL     OW76564   9.560   6.390  10.273
58242SOL    HW176565   9.634   6.351  10.227
58242SOL    HW276566   9.493   6.321  10.274
58243SOL     OW76567   7.714   0.459   1.196
58243SOL    HW176568   7.721   0.365   1.208
58243SOL    HW276569   7.642   0.485   1.254
58244SOL     OW76570   6.787   4.971   1.794
58244SOL    HW176571   6.744   5.056   1.800
58244SOL    HW276572   6.831   4.960   1.879
58245SOL     OW76573   0.783   3.883  13.746
58245SOL    HW176574   0.876   3.859  13.750
58245SOL    HW276575   0.738   3.801  13.725
58246SOL     OW76576  10.254   9.821  10.799
58246SOL    HW176577  10.305   9.893  10.836
58246SOL    HW276578  10.318   9.768  10.752
58247SOL     OW76579   4.093  10.969  12.735
58247SOL    HW176580   4.096  11.061  12.762
58247SOL    HW276581   4.039  10.927  12.801
58248SOL     OW76582  13.597   3.051   4.882
58248SOL    HW176583  13.579   3.050   4.788
58248SOL    HW276584  13.571   3.138   4.912
58249SOL     OW76585   3.126   0.393  14.424
58249SOL    HW176586   3.131   0.466  14.363
58249SOL    HW276587   3.064   0.421  14.491
58250SOL     OW76588   1.873   0.935   4.704
58250SOL    HW176589   1.961   0.917   4.738
58250SOL    HW276590   1.889   0.975   4.618
58251SOL     OW76591   3.518   1.566   4.969
58251SOL    HW176592   3.544   1.543   4.880
58251SOL    HW276593   3.597   1.604   5.008
58252SOL     OW76594   2.397   7.111  12.716
58252SOL    HW176595   2.387   7.120  12.811
58252SOL    HW276596   2.454   7.035  12.706
58253SOL     OW76597   1.886   1.141   2.360
58253SOL    HW176598   1.979   1.157   2.376
58253SOL    HW276599   1.883   1.052   2.325
58254SOL     OW76600   7.170  13.890   1.557
58254SOL    HW176601   7.179  13.795   1.550
58254SOL    HW276602   7.246  13.924   1.509
58255SOL     OW76603   1.679   0.515  11.140
58255SOL    HW176604   1.722   0.540  11.058
58255SOL    HW276605   1.745   0.465  11.187
58256SOL     OW76606  14.248  11.417  13.409
58256SOL    HW176607  14.231  11.427  13.316
58256SOL    HW276608  14.338  11.383  13.414
58257SOL     OW76609   5.402   7.117   9.244
58257SOL    HW176610   5.459   7.057   9.195
58257SOL    HW276611   5.394   7.193   9.186
58258SOL     OW76612  14.873   5.977   5.578
58258SOL    HW176613  14.853   6.070   5.585
58258SOL    HW276614  14.827   5.936   5.651
58259SOL     OW76615   9.711   7.743  13.656
58259SOL    HW176616   9.625   7.778  13.635
58259SOL    HW276617   9.694   7.677  13.723
58260SOL     OW76618  14.774   2.294  14.565
58260SOL    HW176619  14.796   2.201  14.569
58260SOL    HW276620  14.794   2.320  14.475
58261SOL     OW76621   4.220  12.348   2.297
58261SOL    HW176622   4.156  12.277   2.286
58261SOL    HW276623   4.215  12.397   2.215
58262SOL     OW76624   1.852  11.952   6.255
58262SOL    HW176625   1.922  12.012   6.283
58262SOL    HW276626   1.853  11.957   6.159
58263SOL     OW76627   3.163   5.625  12.176
58263SOL    HW176628   3.179   5.719  12.188
58263SOL    HW276629   3.250   5.587  12.165
58264SOL     OW76630   0.252  11.471   9.651
58264SOL    HW176631   0.273  11.407   9.584
58264SOL    HW276632   0.156  11.473   9.653
58265SOL     OW76633  14.736   2.845   2.461
58265SOL    HW176634  14.685   2.766   2.443
58265SOL    HW276635  14.711   2.906   2.392
58266SOL     OW76636  12.139   3.551   6.181
58266SOL    HW176637  12.194   3.516   6.252
58266SOL    HW276638  12.196   3.547   6.104
58267SOL     OW76639   2.260   1.152   7.124
58267SOL    HW176640   2.338   1.199   7.097
58267SOL    HW276641   2.188   1.201   7.085
58268SOL     OW76642   1.141  14.118  10.276
58268SOL    HW176643   1.139  14.032  10.234
58268SOL    HW276644   1.234  14.141  10.278
58269SOL     OW76645  10.532  13.395  11.092
58269SOL    HW176646  10.538  13.378  10.998
58269SOL    HW276647  10.519  13.490  11.098
58270SOL     OW76648   9.564   9.923   6.801
58270SOL    HW176649   9.501   9.974   6.750
58270SOL    HW276650   9.539   9.938   6.892
58271SOL     OW76651  14.345   9.661  10.350
58271SOL    HW176652  14.354   9.756  10.336
58271SOL    HW276653  14.261   9.652  10.396
58272SOL     OW76654   0.903   0.432   2.001
58272SOL    HW176655   0.967   0.374   2.042
58272SOL    HW276656   0.935   0.520   2.021
58273SOL     OW76657   1.351   6.602   1.070
58273SOL    HW176658   1.316   6.565   0.989
58273SOL    HW276659   1.429   6.651   1.043
58274SOL     OW76660   6.495   0.821   6.481
58274SOL    HW176661   6.586   0.801   6.500
58274SOL    HW276662   6.495   0.852   6.390
58275SOL     OW76663   2.105   3.036  11.461
58275SOL    HW176664   2.086   3.120  11.420
58275SOL    HW276665   2.074   2.971  11.398
58276SOL     OW76666   2.944   8.998   5.265
58276SOL    HW176667   2.991   9.026   5.344
58276SOL    HW276668   2.859   8.966   5.298
58277SOL     OW76669   4.082   5.163   2.839
58277SOL    HW176670   4.168   5.131   2.864
58277SOL    HW276671   4.066   5.126   2.752
58278SOL     OW76672  12.835   2.853   4.622
58278SOL    HW176673  12.820   2.838   4.529
58278SOL    HW276674  12.788   2.782   4.665
58279SOL     OW76675   4.157   6.625   8.981
58279SOL    HW176676   4.186   6.534   8.977
58279SOL    HW276677   4.149   6.652   8.889
58280SOL     OW76678   7.797   9.653   3.036
58280SOL    HW176679   7.827   9.566   3.061
58280SOL    HW276680   7.869   9.689   2.984
58281SOL     OW76681  11.664   9.889  14.006
58281SOL    HW176682  11.712   9.952  13.952
58281SOL    HW276683  11.604   9.943  14.057
58282SOL     OW76684   9.698   2.858   4.025
58282SOL    HW176685   9.779   2.903   4.001
58282SOL    HW276686   9.727   2.784   4.079
58283SOL     OW76687   7.900  13.374  14.702
58283SOL    HW176688   7.974  13.346  14.647
58283SOL    HW276689   7.875  13.296  14.750
58284SOL     OW76690  13.423  14.104  10.825
58284SOL    HW176691  13.416  14.151  10.743
58284SOL    HW276692  13.506  14.056  10.819
58285SOL     OW76693   6.374   8.576   5.999
58285SOL    HW176694   6.458   8.572   6.044
58285SOL    HW276695   6.334   8.657   6.031
58286SOL     OW76696  11.962   5.943   1.497
58286SOL    HW176697  11.988   6.026   1.535
58286SOL    HW276698  11.870   5.955   1.474
58287SOL     OW76699  11.524   4.249   3.971
58287SOL    HW176700  11.594   4.287   3.918
58287SOL    HW276701  11.525   4.155   3.949
58288SOL     OW76702   6.590   9.688  10.211
58288SOL    HW176703   6.630   9.769  10.181
58288SOL    HW276704   6.659   9.645  10.262
58289SOL     OW76705   7.496   7.810   6.751
58289SOL    HW176706   7.520   7.811   6.843
58289SOL    HW276707   7.512   7.900   6.722
58290SOL     OW76708   1.396  14.297  11.559
58290SOL    HW176709   1.434  14.346  11.486
58290SOL    HW276710   1.303  14.286  11.535
58291SOL     OW76711   8.861   2.638  14.008
58291SOL    HW176712   8.842   2.557  13.960
58291SOL    HW276713   8.775   2.677  14.024
58292SOL     OW76714  12.427  11.652   3.729
58292SOL    HW176715  12.508  11.683   3.688
58292SOL    HW276716  12.428  11.557   3.715
58293SOL     OW76717   5.145   5.837   7.353
58293SOL    HW176718   5.200   5.759   7.361
58293SOL    HW276719   5.207   5.909   7.344
58294SOL     OW76720   9.991   5.250   4.718
58294SOL    HW176721   9.963   5.170   4.674
58294SOL    HW276722   9.910   5.294   4.744
58295SOL     OW76723  11.903   5.181   6.843
58295SOL    HW176724  11.835   5.185   6.777
58295SOL    HW276725  11.870   5.233   6.916
58296SOL     OW76726  14.369   0.987  12.535
58296SOL    HW176727  14.385   0.962  12.444
58296SOL    HW276728  14.314   1.065  12.529
58297SOL     OW76729  11.638  14.073   4.445
58297SOL    HW176730  11.729  14.042   4.446
58297SOL    HW276731  11.644  14.162   4.481
58298SOL     OW76732  10.357   2.122   9.998
58298SOL    HW176733  10.277   2.074   9.977
58298SOL    HW276734  10.405   2.126   9.915
58299SOL     OW76735  10.388  14.842  13.996
58299SOL    HW176736  10.476  14.813  13.972
58299SOL    HW276737  10.388  14.841  14.092
58300SOL     OW76738  12.560   3.172  13.246
58300SOL    HW176739  12.580   3.228  13.171
58300SOL    HW276740  12.508   3.101  13.209
58301SOL     OW76741   3.795   9.926  11.126
58301SOL    HW176742   3.790   9.979  11.205
58301SOL    HW276743   3.888   9.922  11.105
58302SOL     OW76744   9.419  13.825   5.539
58302SOL    HW176745   9.461  13.780   5.613
58302SOL    HW276746   9.446  13.916   5.547
58303SOL     OW76747  11.319   1.134   4.329
58303SOL    HW176748  11.262   1.164   4.259
58303SOL    HW276749  11.290   1.044   4.347
58304SOL     OW76750   4.688  14.043   0.308
58304SOL    HW176751   4.595  14.055   0.329
58304SOL    HW276752   4.721  13.988   0.379
58305SOL     OW76753   2.594   5.736   4.385
58305SOL    HW176754   2.657   5.723   4.455
58305SOL    HW276755   2.535   5.660   4.391
58306SOL     OW76756   9.112   0.505   9.004
58306SOL    HW176757   9.053   0.463   8.942
58306SOL    HW276758   9.084   0.597   9.005
58307SOL     OW76759   2.986   6.523  10.671
58307SOL    HW176760   2.934   6.576  10.732
58307SOL    HW276761   3.047   6.475  10.727
58308SOL     OW76762   3.143  11.447   2.803
58308SOL    HW176763   3.095  11.424   2.883
58308SOL    HW276764   3.128  11.541   2.792
58309SOL     OW76765   0.842   5.915   4.583
58309SOL    HW176766   0.863   5.892   4.492
58309SOL    HW276767   0.916   5.881   4.634
58310SOL     OW76768   3.784   2.802   1.584
58310SOL    HW176769   3.731   2.880   1.604
58310SOL    HW276770   3.813   2.815   1.494
58311SOL     OW76771   7.955  10.373   7.220
58311SOL    HW176772   7.862  10.374   7.241
58311SOL    HW276773   7.987  10.459   7.248
58312SOL     OW76774  13.327   0.836   6.894
58312SOL    HW176775  13.313   0.911   6.951
58312SOL    HW276776  13.273   0.767   6.932
58313SOL     OW76777  12.662   2.755  14.722
58313SOL    HW176778  12.631   2.806  14.646
58313SOL    HW276779  12.588   2.698  14.744
58314SOL     OW76780  12.916   7.399  12.991
58314SOL    HW176781  12.918   7.340  13.066
58314SOL    HW276782  12.992   7.456  13.002
58315SOL     OW76783   9.327  14.786  10.528
58315SOL    HW176784   9.362  14.714  10.580
58315SOL    HW276785   9.326  14.753  10.439
58316SOL     OW76786   2.194  12.844   5.198
58316SOL    HW176787   2.164  12.864   5.109
58316SOL    HW276788   2.206  12.929   5.239
58317SOL     OW76789   0.598   7.797   4.384
58317SOL    HW176790   0.618   7.887   4.411
58317SOL    HW276791   0.510   7.780   4.419
58318SOL     OW76792  12.126   1.739  13.725
58318SOL    HW176793  12.161   1.669  13.780
58318SOL    HW276794  12.079   1.694  13.655
58319SOL     OW76795  13.241   1.242  12.404
58319SOL    HW176796  13.187   1.170  12.371
58319SOL    HW276797  13.191   1.321  12.383
58320SOL     OW76798   8.073  12.103   9.600
58320SOL    HW176799   8.020  12.081   9.677
58320SOL    HW276800   8.042  12.041   9.533
58321SOL     OW76801   4.750   8.314  11.072
58321SOL    HW176802   4.694   8.334  11.147
58321SOL    HW276803   4.701   8.346  10.996
58322SOL     OW76804  12.144  14.023   9.967
58322SOL    HW176805  12.111  14.090  10.027
58322SOL    HW276806  12.212  13.977  10.016
58323SOL     OW76807   5.949   7.236  14.098
58323SOL    HW176808   5.878   7.293  14.069
58323SOL    HW276809   6.014   7.296  14.135
58324SOL     OW76810   0.683  12.883   2.113
58324SOL    HW176811   0.664  12.954   2.173
58324SOL    HW276812   0.748  12.829   2.159
58325SOL     OW76813   2.796  13.906   7.437
58325SOL    HW176814   2.746  13.937   7.512
58325SOL    HW276815   2.874  13.962   7.436
58326SOL     OW76816   8.056  13.927   0.646
58326SOL    HW176817   7.966  13.956   0.630
58326SOL    HW276818   8.051  13.831   0.649
58327SOL     OW76819   4.807   4.257   2.753
58327SOL    HW176820   4.887   4.223   2.794
58327SOL    HW276821   4.739   4.243   2.819
58328SOL     OW76822  14.708   4.075   2.711
58328SOL    HW176823  14.627   4.125   2.709
58328SOL    HW276824  14.773   4.132   2.671
58329SOL     OW76825   1.356   2.161   3.529
58329SOL    HW176826   1.401   2.223   3.473
58329SOL    HW276827   1.394   2.076   3.507
58330SOL     OW76828  10.883   1.795   2.791
58330SOL    HW176829  10.827   1.723   2.819
58330SOL    HW276830  10.916   1.832   2.872
58331SOL     OW76831   7.613  13.716   3.302
58331SOL    HW176832   7.618  13.731   3.208
58331SOL    HW276833   7.633  13.623   3.314
58332SOL     OW76834  14.170   2.078   4.633
58332SOL    HW176835  14.228   2.030   4.692
58332SOL    HW276836  14.093   2.098   4.687
58333SOL     OW76837   1.727   2.976   6.549
58333SOL    HW176838   1.663   2.970   6.620
58333SOL    HW276839   1.812   2.962   6.591
58334SOL     OW76840   1.185   3.368  12.498
58334SOL    HW176841   1.274   3.373  12.464
58334SOL    HW276842   1.146   3.453  12.475
58335SOL     OW76843  14.501  10.575   2.525
58335SOL    HW176844  14.528  10.647   2.582
58335SOL    HW276845  14.406  10.586   2.516
58336SOL     OW76846   5.742  10.129  10.802
58336SOL    HW176847   5.812  10.063  10.808
58336SOL    HW276848   5.773  10.201  10.858
58337SOL     OW76849   8.421  11.122   7.619
58337SOL    HW176850   8.479  11.196   7.604
58337SOL    HW276851   8.346  11.138   7.560
58338SOL     OW76852  14.640   2.281  11.262
58338SOL    HW176853  14.652   2.189  11.288
58338SOL    HW276854  14.590   2.319  11.335
58339SOL     OW76855   2.614   3.437   4.790
58339SOL    HW176856   2.702   3.411   4.763
58339SOL    HW276857   2.565   3.441   4.708
58340SOL     OW76858   2.682  12.170   4.240
58340SOL    HW176859   2.745  12.208   4.179
58340SOL    HW276860   2.669  12.239   4.306
58341SOL     OW76861   3.549   1.210   5.243
58341SOL    HW176862   3.558   1.293   5.290
58341SOL    HW276863   3.482   1.227   5.176
58342SOL     OW76864   9.977   5.563   0.296
58342SOL    HW176865  10.004   5.638   0.349
58342SOL    HW276866   9.981   5.488   0.355
58343SOL     OW76867  12.464   7.323  11.901
58343SOL    HW176868  12.425   7.352  11.983
58343SOL    HW276869  12.558   7.334  11.913
58344SOL     OW76870   5.565   7.212   1.676
58344SOL    HW176871   5.539   7.280   1.739
58344SOL    HW276872   5.631   7.254   1.621
58345SOL     OW76873  12.940  12.640   3.776
58345SOL    HW176874  13.034  12.655   3.779
58345SOL    HW276875  12.931  12.545   3.765
58346SOL     OW76876   5.772   8.696   6.678
58346SOL    HW176877   5.787   8.626   6.614
58346SOL    HW276878   5.806   8.661   6.760
58347SOL     OW76879   4.614   1.865   5.526
58347SOL    HW176880   4.532   1.815   5.531
58347SOL    HW276881   4.634   1.888   5.616
58348SOL     OW76882   2.287  13.263   0.424
58348SOL    HW176883   2.289  13.269   0.329
58348SOL    HW276884   2.199  13.292   0.447
58349SOL     OW76885   3.740   7.972   1.222
58349SOL    HW176886   3.781   7.985   1.308
58349SOL    HW276887   3.660   8.024   1.226
58350SOL     OW76888  13.071  12.789   8.596
58350SOL    HW176889  13.048  12.697   8.585
58350SOL    HW276890  13.072  12.825   8.507
58351SOL     OW76891  12.435  10.675   8.698
58351SOL    HW176892  12.439  10.621   8.619
58351SOL    HW276893  12.375  10.629   8.756
58352SOL     OW76894   7.141   6.239   5.725
58352SOL    HW176895   7.223   6.190   5.724
58352SOL    HW276896   7.166   6.328   5.702
58353SOL     OW76897   5.985   3.923  14.438
58353SOL    HW176898   5.918   3.868  14.398
58353SOL    HW276899   5.984   3.900  14.531
58354SOL     OW76900  13.860   9.529   0.250
58354SOL    HW176901  13.922   9.552   0.181
58354SOL    HW276902  13.911   9.475   0.311
58355SOL     OW76903  11.636  10.259   1.456
58355SOL    HW176904  11.568  10.214   1.505
58355SOL    HW276905  11.590  10.327   1.407
58356SOL     OW76906  10.555   4.537   1.514
58356SOL    HW176907  10.642   4.557   1.549
58356SOL    HW276908  10.556   4.570   1.425
58357SOL     OW76909   2.346   5.542   7.244
58357SOL    HW176910   2.383   5.518   7.159
58357SOL    HW276911   2.400   5.494   7.308
58358SOL     OW76912   4.846  12.002  13.454
58358SOL    HW176913   4.843  11.908  13.434
58358SOL    HW276914   4.938  12.019  13.472
58359SOL     OW76915   9.782  12.751   7.259
58359SOL    HW176916   9.846  12.705   7.314
58359SOL    HW276917   9.735  12.682   7.214
58360SOL     OW76918   2.674  11.233  10.751
58360SOL    HW176919   2.708  11.200  10.667
58360SOL    HW276920   2.725  11.186  10.817
58361SOL     OW76921   5.913   3.952   2.166
58361SOL    HW176922   6.008   3.948   2.152
58361SOL    HW276923   5.876   3.961   2.078
58362SOL     OW76924   4.248   6.340   5.123
58362SOL    HW176925   4.268   6.385   5.041
58362SOL    HW276926   4.155   6.356   5.138
58363SOL     OW76927  10.060   6.982   6.528
58363SOL    HW176928   9.991   7.022   6.582
58363SOL    HW276929  10.066   6.892   6.561
58364SOL     OW76930   5.872   2.109   3.584
58364SOL    HW176931   5.812   2.064   3.643
58364SOL    HW276932   5.816   2.169   3.534
58365SOL     OW76933  11.815  12.395   4.767
58365SOL    HW176934  11.817  12.300   4.764
58365SOL    HW276935  11.723  12.418   4.761
58366SOL     OW76936   4.810   4.066   5.449
58366SOL    HW176937   4.844   3.994   5.502
58366SOL    HW276938   4.843   4.049   5.361
58367SOL     OW76939   0.353   2.560   0.605
58367SOL    HW176940   0.412   2.486   0.614
58367SOL    HW276941   0.389   2.626   0.664
58368SOL     OW76942   3.778  12.902   6.134
58368SOL    HW176943   3.736  12.961   6.196
58368SOL    HW276944   3.864  12.884   6.171
58369SOL     OW76945   4.932  10.103   5.091
58369SOL    HW176946   5.005  10.042   5.088
58369SOL    HW276947   4.962  10.179   5.041
58370SOL     OW76948  11.867   6.785   8.695
58370SOL    HW176949  11.776   6.764   8.672
58370SOL    HW276950  11.882   6.738   8.777
58371SOL     OW76951  12.509   2.014   5.633
58371SOL    HW176952  12.431   2.047   5.677
58371SOL    HW276953  12.489   2.020   5.540
58372SOL     OW76954  13.310  14.328   1.157
58372SOL    HW176955  13.259  14.314   1.078
58372SOL    HW276956  13.263  14.281   1.225
58373SOL     OW76957  13.231  11.221   5.766
58373SOL    HW176958  13.169  11.278   5.721
58373SOL    HW276959  13.203  11.224   5.858
58374SOL     OW76960   7.778  11.494   6.674
58374SOL    HW176961   7.697  11.454   6.640
58374SOL    HW276962   7.747  11.558   6.739
58375SOL     OW76963  13.028   1.422  10.672
58375SOL    HW176964  12.983   1.423  10.757
58375SOL    HW276965  13.101   1.483  10.683
58376SOL     OW76966   3.054  11.624   6.311
58376SOL    HW176967   3.145  11.651   6.302
58376SOL    HW276968   3.022  11.670   6.389
58377SOL     OW76969   2.821   2.718   3.959
58377SOL    HW176970   2.774   2.724   3.876
58377SOL    HW276971   2.828   2.808   3.990
58378SOL     OW76972   7.153  10.806   6.445
58378SOL    HW176973   7.155  10.814   6.350
58378SOL    HW276974   7.138  10.712   6.461
58379SOL     OW76975   8.113   2.163   2.479
58379SOL    HW176976   8.077   2.241   2.437
58379SOL    HW276977   8.037   2.117   2.514
58380SOL     OW76978   7.884  12.284  10.334
58380SOL    HW176979   7.882  12.267  10.428
58380SOL    HW276980   7.794  12.271  10.305
58381SOL     OW76981   4.237   0.883   6.080
58381SOL    HW176982   4.330   0.883   6.101
58381SOL    HW276983   4.194   0.908   6.162
58382SOL     OW76984  11.982   6.474   5.762
58382SOL    HW176985  11.911   6.472   5.698
58382SOL    HW276986  11.957   6.408   5.827
58383SOL     OW76987   1.423  11.032  11.380
58383SOL    HW176988   1.486  11.102  11.360
58383SOL    HW276989   1.370  11.025  11.300
58384SOL     OW76990  11.093  11.447   9.316
58384SOL    HW176991  11.095  11.379   9.248
58384SOL    HW276992  11.094  11.529   9.267
58385SOL     OW76993  11.728  13.666  12.431
58385SOL    HW176994  11.665  13.729  12.396
58385SOL    HW276995  11.783  13.643  12.356
58386SOL     OW76996  14.583  13.383   4.002
58386SOL    HW176997  14.608  13.465   3.959
58386SOL    HW276998  14.498  13.361   3.964
58387SOL     OW76999  11.839  10.739   0.400
58387SOL    HW177000  11.746  10.719   0.403
58387SOL    HW277001  11.879  10.679   0.463
58388SOL     OW77002   1.714   0.465  13.331
58388SOL    HW177003   1.644   0.469  13.397
58388SOL    HW277004   1.742   0.373  13.333
58389SOL     OW77005  11.306   9.318   8.766
58389SOL    HW177006  11.274   9.300   8.678
58389SOL    HW277007  11.260   9.399   8.792
58390SOL     OW77008   9.905  10.204   9.433
58390SOL    HW177009   9.878  10.281   9.482
58390SOL    HW277010   9.911  10.235   9.342
58391SOL     OW77011   1.159   7.421  14.536
58391SOL    HW177012   1.111   7.339  14.544
58391SOL    HW277013   1.176   7.448  14.627
58392SOL     OW77014   7.395   0.541   0.604
58392SOL    HW177015   7.450   0.497   0.539
58392SOL    HW277016   7.369   0.471   0.664
58393SOL     OW77017  12.068   4.395   1.552
58393SOL    HW177018  11.974   4.409   1.549
58393SOL    HW277019  12.078   4.302   1.568
58394SOL     OW77020  12.713   1.524  11.484
58394SOL    HW177021  12.727   1.619  11.491
58394SOL    HW277022  12.618   1.515  11.476
58395SOL     OW77023   7.644  10.426   1.324
58395SOL    HW177024   7.718  10.473   1.286
58395SOL    HW277025   7.682  10.343   1.354
58396SOL     OW77026   1.769   1.630  12.808
58396SOL    HW177027   1.705   1.600  12.872
58396SOL    HW277028   1.716   1.662  12.735
58397SOL     OW77029   4.786   7.487   9.781
58397SOL    HW177030   4.698   7.509   9.750
58397SOL    HW277031   4.838   7.566   9.765
58398SOL     OW77032   9.103   4.928   3.549
58398SOL    HW177033   9.162   4.971   3.487
58398SOL    HW277034   9.017   4.934   3.508
58399SOL     OW77035   5.695  13.383  10.715
58399SOL    HW177036   5.785  13.413  10.722
58399SOL    HW277037   5.672  13.355  10.804
58400SOL     OW77038   4.383   2.552   4.747
58400SOL    HW177039   4.396   2.629   4.691
58400SOL    HW277040   4.471   2.521   4.766
58401SOL     OW77041   3.262   8.643   8.065
58401SOL    HW177042   3.353   8.645   8.093
58401SOL    HW277043   3.265   8.609   7.976
58402SOL     OW77044  13.045  13.271   6.820
58402SOL    HW177045  12.969  13.215   6.805
58402SOL    HW277046  13.079  13.244   6.905
58403SOL     OW77047   8.037   4.805  14.403
58403SOL    HW177048   8.071   4.728  14.357
58403SOL    HW277049   7.945   4.784  14.420
58404SOL     OW77050  12.482   6.158   2.676
58404SOL    HW177051  12.573   6.129   2.677
58404SOL    HW277052  12.436   6.094   2.622
58405SOL     OW77053   3.689   4.187   4.489
58405SOL    HW177054   3.752   4.138   4.436
58405SOL    HW277055   3.643   4.243   4.426
58406SOL     OW77056   4.047   4.492   8.783
58406SOL    HW177057   4.129   4.512   8.827
58406SOL    HW277058   4.023   4.404   8.813
58407SOL     OW77059   7.221   2.927   4.317
58407SOL    HW177060   7.149   2.907   4.257
58407SOL    HW277061   7.288   2.862   4.297
58408SOL     OW77062  13.149   5.514   8.054
58408SOL    HW177063  13.153   5.488   7.962
58408SOL    HW277064  13.134   5.608   8.052
58409SOL     OW77065  14.497   5.635  12.651
58409SOL    HW177066  14.477   5.711  12.705
58409SOL    HW277067  14.577   5.599  12.690
58410SOL     OW77068   9.845   2.176   1.168
58410SOL    HW177069   9.859   2.208   1.257
58410SOL    HW277070   9.890   2.240   1.112
58411SOL     OW77071   6.933   9.005  14.427
58411SOL    HW177072   6.949   8.979  14.336
58411SOL    HW277073   6.987   9.084  14.439
58412SOL     OW77074  13.571   0.929   9.980
58412SOL    HW177075  13.544   0.926  10.072
58412SOL    HW277076  13.623   0.849   9.969
58413SOL     OW77077   5.973   9.267  14.873
58413SOL    HW177078   5.879   9.280  14.861
58413SOL    HW277079   6.002   9.221  14.794
58414SOL     OW77080   7.852   7.390   5.268
58414SOL    HW177081   7.943   7.415   5.251
58414SOL    HW277082   7.803   7.472   5.263
58415SOL     OW77083   1.574   8.447   7.432
58415SOL    HW177084   1.562   8.361   7.390
58415SOL    HW277085   1.665   8.446   7.461
58416SOL     OW77086   7.835   5.790   6.550
58416SOL    HW177087   7.905   5.787   6.485
58416SOL    HW277088   7.798   5.878   6.540
58417SOL     OW77089  10.445   7.705   7.905
58417SOL    HW177090  10.475   7.783   7.858
58417SOL    HW277091  10.489   7.632   7.861
58418SOL     OW77092  12.045   0.198   0.130
58418SOL    HW177093  11.977   0.195   0.197
58418SOL    HW277094  12.109   0.262   0.164
58419SOL     OW77095   3.720  12.259   5.679
58419SOL    HW177096   3.793  12.265   5.618
58419SOL    HW277097   3.753  12.297   5.761
58420SOL     OW77098  12.023   2.234   8.186
58420SOL    HW177099  11.977   2.296   8.131
58420SOL    HW277100  12.049   2.285   8.263
58421SOL     OW77101   7.510  13.736   0.550
58421SOL    HW177102   7.435  13.701   0.502
58421SOL    HW277103   7.474  13.809   0.600
58422SOL     OW77104   5.597   5.601  12.629
58422SOL    HW177105   5.631   5.528  12.578
58422SOL    HW277106   5.646   5.678  12.598
58423SOL     OW77107  13.298   1.021   4.335
58423SOL    HW177108  13.303   1.115   4.318
58423SOL    HW277109  13.240   1.013   4.410
58424SOL     OW77110   7.423   3.361  13.299
58424SOL    HW177111   7.358   3.334  13.234
58424SOL    HW277112   7.498   3.305  13.281
58425SOL     OW77113   2.370   6.734   9.086
58425SOL    HW177114   2.349   6.759   9.176
58425SOL    HW277115   2.397   6.816   9.044
58426SOL     OW77116   5.071  14.439   5.687
58426SOL    HW177117   5.073  14.344   5.675
58426SOL    HW277118   5.008  14.453   5.757
58427SOL     OW77119   2.331  10.981   2.500
58427SOL    HW177120   2.388  10.974   2.577
58427SOL    HW277121   2.390  10.965   2.426
58428SOL     OW77122  10.781   9.081   2.686
58428SOL    HW177123  10.691   9.050   2.675
58428SOL    HW277124  10.834   9.014   2.642
58429SOL     OW77125  13.382   7.452   0.750
58429SOL    HW177126  13.291   7.480   0.759
58429SOL    HW277127  13.420   7.468   0.836
58430SOL     OW77128   4.213   7.438   2.950
58430SOL    HW177129   4.189   7.501   3.017
58430SOL    HW277130   4.289   7.477   2.906
58431SOL     OW77131  12.982   3.597   1.652
58431SOL    HW177132  12.966   3.690   1.641
58431SOL    HW277133  12.894   3.558   1.652
58432SOL     OW77134   8.756  10.037  14.157
58432SOL    HW177135   8.791  10.119  14.192
58432SOL    HW277136   8.807  10.021  14.078
58433SOL     OW77137   7.831  10.122   2.007
58433SOL    HW177138   7.907  10.069   1.983
58433SOL    HW277139   7.785  10.071   2.074
58434SOL     OW77140   4.804   6.614  11.345
58434SOL    HW177141   4.893   6.594  11.373
58434SOL    HW277142   4.807   6.605  11.250
58435SOL     OW77143   8.574   0.873  10.897
58435SOL    HW177144   8.612   0.942  10.843
58435SOL    HW277145   8.591   0.900  10.987
58436SOL     OW77146   4.045   2.840  10.282
58436SOL    HW177147   4.007   2.797  10.206
58436SOL    HW277148   4.015   2.931  10.276
58437SOL     OW77149  11.467   1.389   4.233
58437SOL    HW177150  11.459   1.413   4.325
58437SOL    HW277151  11.457   1.294   4.232
58438SOL     OW77152   3.762  13.250   2.535
58438SOL    HW177153   3.693  13.313   2.512
58438SOL    HW277154   3.822  13.301   2.591
58439SOL     OW77155   0.690   4.585  10.290
58439SOL    HW177156   0.758   4.517  10.296
58439SOL    HW277157   0.673   4.608  10.382
58440SOL     OW77158  10.287   2.871  10.830
58440SOL    HW177159  10.223   2.808  10.865
58440SOL    HW277160  10.291   2.940  10.895
58441SOL     OW77161   2.146   7.430   0.110
58441SOL    HW177162   2.124   7.390   0.026
58441SOL    HW277163   2.184   7.359   0.162
58442SOL     OW77164   2.142   8.995  12.519
58442SOL    HW177165   2.121   9.040  12.437
58442SOL    HW277166   2.213   8.935  12.496
58443SOL     OW77167   9.055  11.925   2.131
58443SOL    HW177168   9.058  11.919   2.036
58443SOL    HW277169   9.036  11.836   2.160
58444SOL     OW77170   8.546   0.089   3.755
58444SOL    HW177171   8.482   0.157   3.731
58444SOL    HW277172   8.530   0.073   3.848
58445SOL     OW77173   2.187  11.603   2.083
58445SOL    HW177174   2.119  11.536   2.071
58445SOL    HW277175   2.268  11.560   2.055
58446SOL     OW77176   2.137   8.915   1.723
58446SOL    HW177177   2.055   8.872   1.748
58446SOL    HW277178   2.197   8.897   1.796
58447SOL     OW77179  13.862   2.611  10.288
58447SOL    HW177180  13.844   2.698  10.322
58447SOL    HW277181  13.953   2.593  10.312
58448SOL     OW77182  11.493   1.307  12.206
58448SOL    HW177183  11.562   1.341  12.148
58448SOL    HW277184  11.426   1.375  12.205
58449SOL     OW77185   6.705   5.656  14.221
58449SOL    HW177186   6.762   5.664  14.297
58449SOL    HW277187   6.668   5.568  14.227
58450SOL     OW77188  11.380   1.709  11.618
58450SOL    HW177189  11.402   1.698  11.525
58450SOL    HW277190  11.464   1.728  11.660
58451SOL     OW77191  10.751   1.537   2.878
58451SOL    HW177192  10.721   1.471   2.815
58451SOL    HW277193  10.832   1.501   2.914
58452SOL     OW77194  11.444   2.524  11.411
58452SOL    HW177195  11.506   2.453  11.422
58452SOL    HW277196  11.486   2.600  11.451
58453SOL     OW77197   9.504   0.416   6.283
58453SOL    HW177198   9.550   0.421   6.199
58453SOL    HW277199   9.557   0.355   6.335
58454SOL     OW77200   1.522   5.138   6.051
58454SOL    HW177201   1.532   5.087   6.131
58454SOL    HW277202   1.596   5.199   6.051
58455SOL     OW77203   3.657   4.482   8.642
58455SOL    HW177204   3.693   4.444   8.562
58455SOL    HW277205   3.574   4.436   8.656
58456SOL     OW77206   7.339  14.053   4.802
58456SOL    HW177207   7.324  13.959   4.807
58456SOL    HW277208   7.399  14.064   4.729
58457SOL     OW77209   9.685   7.625   5.206
58457SOL    HW177210   9.613   7.688   5.209
58457SOL    HW277211   9.726   7.640   5.120
58458SOL     OW77212  13.263  13.360   5.543
58458SOL    HW177213  13.294  13.421   5.476
58458SOL    HW277214  13.342  13.329   5.586
58459SOL     OW77215   1.992  10.930  13.706
58459SOL    HW177216   1.910  10.944  13.658
58459SOL    HW277217   1.967  10.874  13.780
58460SOL     OW77218   2.899   5.116   5.743
58460SOL    HW177219   2.944   5.031   5.740
58460SOL    HW277220   2.932   5.163   5.666
58461SOL     OW77221  13.614   0.702   4.297
58461SOL    HW177222  13.519   0.713   4.299
58461SOL    HW277223  13.632   0.662   4.212
58462SOL     OW77224  12.865   9.140   2.126
58462SOL    HW177225  12.810   9.062   2.125
58462SOL    HW277226  12.861   9.174   2.037
58463SOL     OW77227   0.535   7.841   2.376
58463SOL    HW177228   0.492   7.920   2.409
58463SOL    HW277229   0.524   7.777   2.445
58464SOL     OW77230   7.387  12.880   5.837
58464SOL    HW177231   7.422  12.821   5.770
58464SOL    HW277232   7.439  12.860   5.915
58465SOL     OW77233   7.343   5.205   6.981
58465SOL    HW177234   7.308   5.135   6.926
58465SOL    HW277235   7.423   5.232   6.937
58466SOL     OW77236   1.942  14.454   6.877
58466SOL    HW177237   1.990  14.515   6.933
58466SOL    HW277238   1.881  14.509   6.828
58467SOL     OW77239   7.896  14.212   1.596
58467SOL    HW177240   7.817  14.244   1.639
58467SOL    HW277241   7.967  14.234   1.657
58468SOL     OW77242   1.742   0.369   1.919
58468SOL    HW177243   1.747   0.463   1.936
58468SOL    HW277244   1.664   0.358   1.865
58469SOL     OW77245  13.253   8.233  10.439
58469SOL    HW177246  13.285   8.313  10.482
58469SOL    HW277247  13.333   8.185  10.416
58470SOL     OW77248   8.716  13.400  11.023
58470SOL    HW177249   8.730  13.488  11.058
58470SOL    HW277250   8.735  13.342  11.096
58471SOL     OW77251   3.739   5.437  10.429
58471SOL    HW177252   3.831   5.461  10.427
58471SOL    HW277253   3.719   5.406  10.341
58472SOL     OW77254  14.208   6.813  12.697
58472SOL    HW177255  14.164   6.758  12.763
58472SOL    HW277256  14.249   6.750  12.638
58473SOL     OW77257  12.268  12.449   2.109
58473SOL    HW177258  12.208  12.392   2.062
58473SOL    HW277259  12.327  12.389   2.155
58474SOL     OW77260  13.904  14.713   3.221
58474SOL    HW177261  13.899  14.806   3.243
58474SOL    HW277262  13.855  14.705   3.140
58475SOL     OW77263   6.089  14.592  14.027
58475SOL    HW177264   6.148  14.666  14.042
58475SOL    HW277265   6.102  14.535  14.103
58476SOL     OW77266  11.069  14.639   8.901
58476SOL    HW177267  10.981  14.672   8.918
58476SOL    HW277268  11.060  14.583   8.825
58477SOL     OW77269   7.886  11.334  12.565
58477SOL    HW177270   7.912  11.426  12.571
58477SOL    HW277271   7.968  11.286  12.556
58478SOL     OW77272   7.999   4.597   6.680
58478SOL    HW177273   8.014   4.576   6.588
58478SOL    HW277274   7.997   4.512   6.723
58479SOL     OW77275  12.976  12.759  11.094
58479SOL    HW177276  12.991  12.715  11.011
58479SOL    HW277277  12.891  12.802  11.082
58480SOL     OW77278   0.583   7.522  10.648
58480SOL    HW177279   0.596   7.588  10.580
58480SOL    HW277280   0.595   7.570  10.730
58481SOL     OW77281  10.978  14.303  11.974
58481SOL    HW177282  11.017  14.388  11.951
58481SOL    HW277283  10.968  14.258  11.890
58482SOL     OW77284   0.465   1.264   1.330
58482SOL    HW177285   0.524   1.224   1.267
58482SOL    HW277286   0.522   1.313   1.389
58483SOL     OW77287  10.775   2.605  14.091
58483SOL    HW177288  10.704   2.664  14.115
58483SOL    HW277289  10.823   2.650  14.022
58484SOL     OW77290   4.487  11.889  11.750
58484SOL    HW177291   4.563  11.947  11.751
58484SOL    HW277292   4.510  11.821  11.686
58485SOL     OW77293   2.704   0.783  10.088
58485SOL    HW177294   2.719   0.779   9.994
58485SOL    HW277295   2.757   0.857  10.117
58486SOL     OW77296   4.868   1.657  12.499
58486SOL    HW177297   4.835   1.689  12.582
58486SOL    HW277298   4.929   1.587  12.522
58487SOL     OW77299   2.518   5.800   6.701
58487SOL    HW177300   2.567   5.882   6.710
58487SOL    HW277301   2.446   5.808   6.762
58488SOL     OW77302   8.822   2.630   9.470
58488SOL    HW177303   8.740   2.616   9.423
58488SOL    HW277304   8.818   2.721   9.499
58489SOL     OW77305  11.078   0.602   1.616
58489SOL    HW177306  11.007   0.637   1.561
58489SOL    HW277307  11.146   0.669   1.613
58490SOL     OW77308  10.977   7.728   1.691
58490SOL    HW177309  11.004   7.813   1.656
58490SOL    HW277310  10.991   7.666   1.619
58491SOL     OW77311   9.223  11.782   8.635
58491SOL    HW177312   9.147  11.729   8.612
58491SOL    HW277313   9.283  11.774   8.561
58492SOL     OW77314   5.826   7.252   3.043
58492SOL    HW177315   5.898   7.306   3.075
58492SOL    HW277316   5.752   7.273   3.100
58493SOL     OW77317  12.952   8.174   0.696
58493SOL    HW177318  12.874   8.229   0.696
58493SOL    HW277319  13.025   8.236   0.695
58494SOL     OW77320  10.330   1.772   7.526
58494SOL    HW177321  10.366   1.777   7.438
58494SOL    HW277322  10.237   1.792   7.516
58495SOL     OW77323  11.914  10.545   8.082
58495SOL    HW177324  11.978  10.495   8.132
58495SOL    HW277325  11.832  10.535   8.131
58496SOL     OW77326  13.458  10.679  11.640
58496SOL    HW177327  13.437  10.752  11.581
58496SOL    HW277328  13.541  10.645  11.606
58497SOL     OW77329   8.508  12.216   8.883
58497SOL    HW177330   8.414  12.217   8.905
58497SOL    HW277331   8.511  12.240   8.790
58498SOL     OW77332   7.460   8.735  13.375
58498SOL    HW177333   7.484   8.814  13.423
58498SOL    HW277334   7.384   8.761  13.322
58499SOL     OW77335   5.070   6.571   6.004
58499SOL    HW177336   5.122   6.642   6.043
58499SOL    HW277337   5.081   6.498   6.065
58500SOL     OW77338  11.139   6.023   5.337
58500SOL    HW177339  11.228   6.036   5.305
58500SOL    HW277340  11.104   6.112   5.347
58501SOL     OW77341   1.283  13.944  13.232
58501SOL    HW177342   1.333  14.021  13.205
58501SOL    HW277343   1.227  13.975  13.302
58502SOL     OW77344   4.287  12.185   5.122
58502SOL    HW177345   4.292  12.278   5.101
58502SOL    HW277346   4.346  12.143   5.059
58503SOL     OW77347  10.776   0.877   1.303
58503SOL    HW177348  10.716   0.894   1.375
58503SOL    HW277349  10.723   0.888   1.224
58504SOL     OW77350  13.458   9.701   7.527
58504SOL    HW177351  13.515   9.736   7.459
58504SOL    HW277352  13.505   9.718   7.609
58505SOL     OW77353  10.984  12.338  12.010
58505SOL    HW177354  11.040  12.373  12.079
58505SOL    HW277355  11.021  12.252  11.990
58506SOL     OW77356  12.634   3.871   0.929
58506SOL    HW177357  12.666   3.918   0.852
58506SOL    HW277358  12.604   3.940   0.988
58507SOL     OW77359   8.352   0.580   2.713
58507SOL    HW177360   8.268   0.615   2.741
58507SOL    HW277361   8.333   0.491   2.685
58508SOL     OW77362   5.840  11.428   8.269
58508SOL    HW177363   5.764  11.371   8.278
58508SOL    HW277364   5.807  11.508   8.228
58509SOL     OW77365  13.787   0.601   7.972
58509SOL    HW177366  13.700   0.569   7.996
58509SOL    HW277367  13.773   0.650   7.890
58510SOL     OW77368  12.521   0.471   3.471
58510SOL    HW177369  12.492   0.380   3.461
58510SOL    HW277370  12.613   0.470   3.443
58511SOL     OW77371   9.920   9.934  11.016
58511SOL    HW177372   9.984   9.999  10.987
58511SOL    HW277373   9.837   9.982  11.022
58512SOL     OW77374   2.315   8.555   3.752
58512SOL    HW177375   2.264   8.535   3.674
58512SOL    HW277376   2.362   8.474   3.771
58513SOL     OW77377   4.304   6.172   6.980
58513SOL    HW177378   4.211   6.185   6.960
58513SOL    HW277379   4.313   6.077   6.991
58514SOL     OW77380   6.680   0.547  13.802
58514SOL    HW177381   6.725   0.619  13.757
58514SOL    HW277382   6.612   0.520  13.741
58515SOL     OW77383  12.990   4.921  10.318
58515SOL    HW177384  12.998   4.956  10.229
58515SOL    HW277385  13.011   4.995  10.375
58516SOL     OW77386  10.777   5.933   7.610
58516SOL    HW177387  10.840   5.861   7.595
58516SOL    HW277388  10.799   5.966   7.696
58517SOL     OW77389   1.957   0.131  12.741
58517SOL    HW177390   1.952   0.219  12.778
58517SOL    HW277391   1.900   0.079  12.797
58518SOL     OW77392  11.929   6.476  13.227
58518SOL    HW177393  11.889   6.426  13.298
58518SOL    HW277394  11.857   6.525  13.188
58519SOL     OW77395   1.047  13.837  10.602
58519SOL    HW177396   1.023  13.810  10.691
58519SOL    HW277397   1.114  13.904  10.615
58520SOL     OW77398   3.692   8.426   2.822
58520SOL    HW177399   3.766   8.480   2.794
58520SOL    HW277400   3.716   8.337   2.797
58521SOL     OW77401  14.732  12.632   4.274
58521SOL    HW177402  14.654  12.653   4.325
58521SOL    HW277403  14.778  12.715   4.264
58522SOL     OW77404  11.643   2.389  11.744
58522SOL    HW177405  11.623   2.312  11.797
58522SOL    HW277406  11.565   2.444  11.753
58523SOL     OW77407   9.199  14.382   9.297
58523SOL    HW177408   9.181  14.290   9.278
58523SOL    HW277409   9.144  14.430   9.236
58524SOL     OW77410   3.882   4.062   0.148
58524SOL    HW177411   3.943   4.117   0.098
58524SOL    HW277412   3.828   4.019   0.082
58525SOL     OW77413  10.782   5.276  11.904
58525SOL    HW177414  10.829   5.342  11.954
58525SOL    HW277415  10.850   5.217  11.872
58526SOL     OW77416   8.368  13.725   9.576
58526SOL    HW177417   8.421  13.723   9.656
58526SOL    HW277418   8.331  13.813   9.573
58527SOL     OW77419   6.852   6.869  14.505
58527SOL    HW177420   6.902   6.846  14.426
58527SOL    HW277421   6.908   6.929  14.553
58528SOL     OW77422   8.804  13.168   7.195
58528SOL    HW177423   8.771  13.089   7.152
58528SOL    HW277424   8.849  13.216   7.125
58529SOL     OW77425   5.150   5.409   5.127
58529SOL    HW177426   5.126   5.338   5.187
58529SOL    HW277427   5.089   5.480   5.148
58530SOL     OW77428   8.767   9.365   3.508
58530SOL    HW177429   8.852   9.325   3.526
58530SOL    HW277430   8.780   9.458   3.523
58531SOL     OW77431   4.369   2.046   1.051
58531SOL    HW177432   4.277   2.033   1.028
58531SOL    HW277433   4.412   1.965   1.023
58532SOL     OW77434  13.245  12.415   7.989
58532SOL    HW177435  13.263  12.369   8.071
58532SOL    HW277436  13.320  12.395   7.933
58533SOL     OW77437  13.762   6.007   1.586
58533SOL    HW177438  13.851   5.997   1.621
58533SOL    HW277439  13.759   5.949   1.510
58534SOL     OW77440   9.596   3.763  13.363
58534SOL    HW177441   9.613   3.774  13.457
58534SOL    HW277442   9.678   3.730  13.327
58535SOL     OW77443   2.356   8.050  14.192
58535SOL    HW177444   2.386   7.990  14.261
58535SOL    HW277445   2.353   8.136  14.234
58536SOL     OW77446  14.665   7.590  10.237
58536SOL    HW177447  14.684   7.631  10.321
58536SOL    HW277448  14.603   7.520  10.258
58537SOL     OW77449  12.429   0.642   1.909
58537SOL    HW177450  12.337   0.615   1.913
58537SOL    HW277451  12.446   0.655   1.816
58538SOL     OW77452  10.166  14.670   0.866
58538SOL    HW177453  10.230  14.598   0.869
58538SOL    HW277454  10.204  14.733   0.805
58539SOL     OW77455   5.678  11.345  13.172
58539SOL    HW177456   5.634  11.282  13.229
58539SOL    HW277457   5.609  11.406  13.146
58540SOL     OW77458   3.846   7.347   1.832
58540SOL    HW177459   3.930   7.380   1.800
58540SOL    HW277460   3.831   7.397   1.913
58541SOL     OW77461   2.445  14.450  14.209
58541SOL    HW177462   2.352  14.435  14.227
58541SOL    HW277463   2.450  14.455  14.114
58542SOL     OW77464   6.095   3.756   9.735
58542SOL    HW177465   6.040   3.832   9.716
58542SOL    HW277466   6.184   3.787   9.723
58543SOL     OW77467   9.825  13.178   0.569
58543SOL    HW177468   9.895  13.116   0.548
58543SOL    HW277469   9.751  13.122   0.594
58544SOL     OW77470   2.965   2.169   6.372
58544SOL    HW177471   3.021   2.230   6.420
58544SOL    HW277472   2.935   2.219   6.296
58545SOL     OW77473   1.320  11.875   4.593
58545SOL    HW177474   1.388  11.856   4.657
58545SOL    HW277475   1.318  11.797   4.536
58546SOL     OW77476   2.031  14.587   6.415
58546SOL    HW177477   1.961  14.634   6.460
58546SOL    HW277478   2.096  14.655   6.396
58547SOL     OW77479  14.233   2.186   4.008
58547SOL    HW177480  14.175   2.147   4.073
58547SOL    HW277481  14.281   2.112   3.972
58548SOL     OW77482  13.081   3.757   7.346
58548SOL    HW177483  13.055   3.755   7.254
58548SOL    HW277484  13.167   3.800   7.345
58549SOL     OW77485   2.101   5.267  10.102
58549SOL    HW177486   2.014   5.299  10.124
58549SOL    HW277487   2.161   5.323  10.151
58550SOL     OW77488  14.382  13.140  11.945
58550SOL    HW177489  14.381  13.236  11.942
58550SOL    HW277490  14.471  13.118  11.972
58551SOL     OW77491   0.217   2.933   8.931
58551SOL    HW177492   0.130   2.896   8.947
58551SOL    HW277493   0.199   3.023   8.905
58552SOL     OW77494  10.137  13.401   9.301
58552SOL    HW177495  10.087  13.403   9.382
58552SOL    HW277496  10.183  13.485   9.300
58553SOL     OW77497  12.203   8.401  10.089
58553SOL    HW177498  12.202   8.330  10.025
58553SOL    HW277499  12.295   8.424  10.099
58554SOL     OW77500   6.631  12.460   1.010
58554SOL    HW177501   6.691  12.388   0.991
58554SOL    HW277502   6.595  12.439   1.096
58555SOL     OW77503  10.953  14.507   6.705
58555SOL    HW177504  10.924  14.433   6.653
58555SOL    HW277505  10.934  14.584   6.651
58556SOL     OW77506   1.880   5.822   3.840
58556SOL    HW177507   1.844   5.908   3.820
58556SOL    HW277508   1.827   5.789   3.912
58557SOL     OW77509   3.164  14.852   9.266
58557SOL    HW177510   3.190   0.026   9.190
58557SOL    HW277511   3.237  14.792   9.279
58558SOL     OW77512  11.902  11.469   5.627
58558SOL    HW177513  11.832  11.524   5.591
58558SOL    HW277514  11.927  11.513   5.708
58559SOL     OW77515  10.006  11.716  11.408
58559SOL    HW177516  10.008  11.622  11.395
58559SOL    HW277517  10.053  11.752  11.333
58560SOL     OW77518   9.936  12.560   7.420
58560SOL    HW177519  10.008  12.622   7.413
58560SOL    HW277520   9.950  12.516   7.504
58561SOL     OW77521   7.717   5.150   2.632
58561SOL    HW177522   7.767   5.200   2.568
58561SOL    HW277523   7.626   5.161   2.605
58562SOL     OW77524  10.664   8.342   1.299
58562SOL    HW177525  10.634   8.387   1.220
58562SOL    HW277526  10.748   8.303   1.273
58563SOL     OW77527   6.766   8.300   6.790
58563SOL    HW177528   6.848   8.315   6.743
58563SOL    HW277529   6.748   8.383   6.834
58564SOL     OW77530   5.342  10.016   3.001
58564SOL    HW177531   5.344   9.924   2.975
58564SOL    HW277532   5.328  10.014   3.096
58565SOL     OW77533   4.519   9.205   2.896
58565SOL    HW177534   4.456   9.181   2.827
58565SOL    HW277535   4.507   9.300   2.907
58566SOL     OW77536  13.604   4.059  11.669
58566SOL    HW177537  13.662   4.134  11.656
58566SOL    HW277538  13.620   4.003  11.593
58567SOL     OW77539   1.388   3.700   0.691
58567SOL    HW177540   1.301   3.708   0.652
58567SOL    HW277541   1.427   3.625   0.646
58568SOL     OW77542  12.320   4.327   6.468
58568SOL    HW177543  12.251   4.326   6.401
58568SOL    HW277544  12.274   4.305   6.549
58569SOL     OW77545   4.564  11.361   5.314
58569SOL    HW177546   4.643  11.355   5.261
58569SOL    HW277547   4.496  11.317   5.262
58570SOL     OW77548   0.573  13.748  11.767
58570SOL    HW177549   0.508  13.761  11.698
58570SOL    HW277550   0.612  13.834  11.781
58571SOL     OW77551   1.207   6.688   2.843
58571SOL    HW177552   1.220   6.718   2.753
58571SOL    HW277553   1.158   6.606   2.834
58572SOL     OW77554   2.842   1.077  10.894
58572SOL    HW177555   2.789   1.000  10.913
58572SOL    HW277556   2.931   1.052  10.921
58573SOL     OW77557   7.458   6.518  13.601
58573SOL    HW177558   7.526   6.453  13.585
58573SOL    HW277559   7.493   6.599  13.566
58574SOL     OW77560  13.856   6.696   8.618
58574SOL    HW177561  13.788   6.688   8.686
58574SOL    HW277562  13.869   6.790   8.608
58575SOL     OW77563   1.990   1.484  13.039
58575SOL    HW177564   1.994   1.505  13.133
58575SOL    HW277565   2.081   1.466  13.015
58576SOL     OW77566   4.656   5.074  10.923
58576SOL    HW177567   4.590   5.071  10.992
58576SOL    HW277568   4.675   5.167  10.910
58577SOL     OW77569  10.175   4.544  10.147
58577SOL    HW177570  10.241   4.515  10.211
58577SOL    HW277571  10.218   4.535  10.062
58578SOL     OW77572  11.150   9.948  14.676
58578SOL    HW177573  11.157  10.043  14.674
58578SOL    HW277574  11.240   9.917  14.681
58579SOL     OW77575   2.645   5.521  10.745
58579SOL    HW177576   2.694   5.445  10.714
58579SOL    HW277577   2.622   5.499  10.836
58580SOL     OW77578   7.628  11.815   4.213
58580SOL    HW177579   7.660  11.903   4.191
58580SOL    HW277580   7.660  11.760   4.141
58581SOL     OW77581   9.178   0.289   6.336
58581SOL    HW177582   9.114   0.226   6.301
58581SOL    HW277583   9.126   0.346   6.392
58582SOL     OW77584   7.632  12.969  10.639
58582SOL    HW177585   7.685  12.937  10.567
58582SOL    HW277586   7.618  12.892  10.695
58583SOL     OW77587   2.794   4.646  14.598
58583SOL    HW177588   2.866   4.707  14.584
58583SOL    HW277589   2.764   4.623  14.510
58584SOL     OW77590   5.232   7.832   1.548
58584SOL    HW177591   5.238   7.763   1.614
58584SOL    HW277592   5.140   7.834   1.523
58585SOL     OW77593   2.260   7.355  11.453
58585SOL    HW177594   2.226   7.290  11.391
58585SOL    HW277595   2.286   7.429  11.399
58586SOL     OW77596  13.552  11.561   5.987
58586SOL    HW177597  13.602  11.484   5.961
58586SOL    HW277598  13.472  11.527   6.027
58587SOL     OW77599   1.675   8.792   8.352
58587SOL    HW177600   1.635   8.859   8.296
58587SOL    HW277601   1.769   8.802   8.338
58588SOL     OW77602  13.145   0.367   6.908
58588SOL    HW177603  13.237   0.343   6.922
58588SOL    HW277604  13.096   0.299   6.956
58589SOL     OW77605  14.100   9.837   1.827
58589SOL    HW177606  14.010   9.848   1.797
58589SOL    HW277607  14.149   9.812   1.748
58590SOL     OW77608  13.920   0.087  14.097
58590SOL    HW177609  13.867   0.143  14.040
58590SOL    HW277610  13.936   0.141  14.175
58591SOL     OW77611   3.336  14.110   0.953
58591SOL    HW177612   3.248  14.088   0.985
58591SOL    HW277613   3.350  14.051   0.879
58592SOL     OW77614   2.759   1.039   2.961
58592SOL    HW177615   2.812   1.041   2.882
58592SOL    HW277616   2.822   1.038   3.033
58593SOL     OW77617   2.510   0.086  12.158
58593SOL    HW177618   2.449   0.159  12.157
58593SOL    HW277619   2.455   0.008  12.166
58594SOL     OW77620   2.564  12.896  10.838
58594SOL    HW177621   2.535  12.936  10.756
58594SOL    HW277622   2.537  12.958  10.905
58595SOL     OW77623   1.930   5.234  14.792
58595SOL    HW177624   1.940   5.159  14.850
58595SOL    HW277625   2.010   5.236  14.740
58596SOL     OW77626  12.533   0.219   5.599
58596SOL    HW177627  12.525   0.211   5.694
58596SOL    HW277628  12.459   0.170   5.564
58597SOL     OW77629  13.478   8.971   1.868
58597SOL    HW177630  13.565   9.004   1.892
58597SOL    HW277631  13.425   9.049   1.854
58598SOL     OW77632   7.334   5.884  12.273
58598SOL    HW177633   7.404   5.820  12.288
58598SOL    HW277634   7.317   5.880  12.179
58599SOL     OW77635  11.530   7.339   3.889
58599SOL    HW177636  11.613   7.295   3.910
58599SOL    HW277637  11.529   7.342   3.793
58600SOL     OW77638   0.182   9.531  10.808
58600SOL    HW177639   0.157   9.623  10.814
58600SOL    HW277640   0.269   9.532  10.768
58601SOL     OW77641   2.345   3.703   4.866
58601SOL    HW177642   2.285   3.628   4.861
58601SOL    HW277643   2.324   3.745   4.949
58602SOL     OW77644  11.208   8.529   5.074
58602SOL    HW177645  11.260   8.509   4.996
58602SOL    HW277646  11.241   8.614   5.103
58603SOL     OW77647   2.990  11.204  14.041
58603SOL    HW177648   3.016  11.270  14.105
58603SOL    HW277649   2.947  11.254  13.971
58604SOL     OW77650   5.281  10.103  10.322
58604SOL    HW177651   5.303  10.020  10.365
58604SOL    HW277652   5.310  10.170  10.384
58605SOL     OW77653  12.189   7.761  11.261
58605SOL    HW177654  12.237   7.825  11.313
58605SOL    HW277655  12.173   7.805  11.178
58606SOL     OW77656   2.646  14.337   0.965
58606SOL    HW177657   2.599  14.312   0.885
58606SOL    HW277658   2.588  14.399   1.009
58607SOL     OW77659   7.861   8.446   6.166
58607SOL    HW177660   7.902   8.360   6.164
58607SOL    HW277661   7.805   8.445   6.243
58608SOL     OW77662  12.930   8.664   6.821
58608SOL    HW177663  12.893   8.728   6.882
58608SOL    HW277664  13.003   8.709   6.780
58609SOL     OW77665   9.740   8.712   4.230
58609SOL    HW177666   9.809   8.776   4.214
58609SOL    HW277667   9.662   8.765   4.244
58610SOL     OW77668  13.751   3.308   3.541
58610SOL    HW177669  13.750   3.218   3.576
58610SOL    HW277670  13.761   3.297   3.447
58611SOL     OW77671   5.588  14.310   8.657
58611SOL    HW177672   5.528  14.382   8.638
58611SOL    HW277673   5.666  14.352   8.693
58612SOL     OW77674   2.243   5.823   5.970
58612SOL    HW177675   2.168   5.861   6.017
58612SOL    HW277676   2.289   5.899   5.934
58613SOL     OW77677   4.423  12.666   9.158
58613SOL    HW177678   4.338  12.634   9.189
58613SOL    HW277679   4.408  12.758   9.136
58614SOL     OW77680   7.542   4.476   0.393
58614SOL    HW177681   7.527   4.522   0.311
58614SOL    HW277682   7.597   4.402   0.369
58615SOL     OW77683  14.288   5.001  14.682
58615SOL    HW177684  14.208   4.995  14.734
58615SOL    HW277685  14.328   5.083  14.710
58616SOL     OW77686   5.003  13.621   1.494
58616SOL    HW177687   5.043  13.673   1.424
58616SOL    HW277688   4.929  13.674   1.523
58617SOL     OW77689  13.684   9.209   3.916
58617SOL    HW177690  13.597   9.202   3.955
58617SOL    HW277691  13.706   9.120   3.890
58618SOL     OW77692   2.545  10.320   4.810
58618SOL    HW177693   2.551  10.224   4.817
58618SOL    HW277694   2.516  10.336   4.721
58619SOL     OW77695   0.813   5.139  12.720
58619SOL    HW177696   0.808   5.214  12.661
58619SOL    HW277697   0.745   5.157  12.786
58620SOL     OW77698  14.808   9.531  10.568
58620SOL    HW177699  14.859   9.596  10.520
58620SOL    HW277700  14.771   9.475  10.499
58621SOL     OW77701   4.439   2.061  11.665
58621SOL    HW177702   4.482   2.037  11.583
58621SOL    HW277703   4.347   2.035  11.653
58622SOL     OW77704   4.445  13.769   7.555
58622SOL    HW177705   4.503  13.696   7.578
58622SOL    HW277706   4.418  13.806   7.639
58623SOL     OW77707   0.573   0.016  11.422
58623SOL    HW177708   0.532   0.072  11.357
58623SOL    HW277709   0.504  14.833  11.446
58624SOL     OW77710   5.271   0.455   2.689
58624SOL    HW177711   5.342   0.403   2.725
58624SOL    HW277712   5.274   0.440   2.595
58625SOL     OW77713   5.075   2.664  13.580
58625SOL    HW177714   5.071   2.672  13.675
58625SOL    HW277715   5.167   2.680  13.559
58626SOL     OW77716  12.596  12.320   1.231
58626SOL    HW177717  12.551  12.236   1.242
58626SOL    HW277718  12.533  12.374   1.183
58627SOL     OW77719   5.143   6.633   3.690
58627SOL    HW177720   5.062   6.667   3.729
58627SOL    HW277721   5.213   6.681   3.735
58628SOL     OW77722  13.220  11.560   8.147
58628SOL    HW177723  13.207  11.470   8.175
58628SOL    HW277724  13.131  11.595   8.136
58629SOL     OW77725  11.117   1.845  11.252
58629SOL    HW177726  11.128   1.916  11.316
58629SOL    HW277727  11.091   1.770  11.305
58630SOL     OW77728   1.308  10.785  10.286
58630SOL    HW177729   1.381  10.743  10.332
58630SOL    HW277730   1.230  10.745  10.323
58631SOL     OW77731   4.398  12.290  14.040
58631SOL    HW177732   4.386  12.267  13.947
58631SOL    HW277733   4.320  12.340  14.062
58632SOL     OW77734  14.570   3.657   5.971
58632SOL    HW177735  14.619   3.712   5.909
58632SOL    HW277736  14.484   3.698   5.976
58633SOL     OW77737  13.742   1.071   4.169
58633SOL    HW177738  13.726   1.064   4.263
58633SOL    HW277739  13.827   1.028   4.156
58634SOL     OW77740   9.752   2.808   3.314
58634SOL    HW177741   9.796   2.820   3.230
58634SOL    HW277742   9.682   2.745   3.296
58635SOL     OW77743   0.925  11.695  10.062
58635SOL    HW177744   0.838  11.685  10.023
58635SOL    HW277745   0.914  11.671  10.154
58636SOL     OW77746   2.103   9.717   5.572
58636SOL    HW177747   2.075   9.678   5.654
58636SOL    HW277748   2.197   9.733   5.584
58637SOL     OW77749  10.779   5.520  13.173
58637SOL    HW177750  10.868   5.489  13.184
58637SOL    HW277751  10.787   5.595  13.114
58638SOL     OW77752   5.725  13.448   6.292
58638SOL    HW177753   5.697  13.408   6.209
58638SOL    HW277754   5.810  13.489   6.272
58639SOL     OW77755  14.812   7.518  12.036
58639SOL    HW177756  14.773   7.511  12.123
58639SOL    HW277757  14.753   7.469  11.979
58640SOL     OW77758   9.434  11.071   0.701
58640SOL    HW177759   9.471  11.037   0.620
58640SOL    HW277760   9.357  11.122   0.673
58641SOL     OW77761  13.467  12.327   9.629
58641SOL    HW177762  13.438  12.408   9.672
58641SOL    HW277763  13.388  12.291   9.590
58642SOL     OW77764   3.544   5.312   4.475
58642SOL    HW177765   3.498   5.229   4.465
58642SOL    HW277766   3.522   5.361   4.395
58643SOL     OW77767  12.570   5.820   9.240
58643SOL    HW177768  12.608   5.901   9.206
58643SOL    HW277769  12.569   5.760   9.165
58644SOL     OW77770   9.290   7.826   9.273
58644SOL    HW177771   9.333   7.756   9.322
58644SOL    HW277772   9.196   7.808   9.285
58645SOL     OW77773  14.415   1.490  12.187
58645SOL    HW177774  14.383   1.410  12.147
58645SOL    HW277775  14.382   1.561  12.132
58646SOL     OW77776   7.961  11.658  10.965
58646SOL    HW177777   8.016  11.671  11.042
58646SOL    HW277778   7.886  11.607  10.997
58647SOL     OW77779  12.839   6.621   6.735
58647SOL    HW177780  12.755   6.664   6.723
58647SOL    HW277781  12.894   6.687   6.778
58648SOL     OW77782   3.678   8.512  12.996
58648SOL    HW177783   3.724   8.550  12.921
58648SOL    HW277784   3.680   8.417  12.979
58649SOL     OW77785   3.472   1.010  10.692
58649SOL    HW177786   3.527   0.932  10.704
58649SOL    HW277787   3.418   0.990  10.615
58650SOL     OW77788   8.845  14.658   8.826
58650SOL    HW177789   8.760  14.654   8.869
58650SOL    HW277790   8.854  14.574   8.782
58651SOL     OW77791  14.103  14.778   0.047
58651SOL    HW177792  14.129  14.725  14.851
58651SOL    HW277793  14.026  14.827   0.016
58652SOL     OW77794   6.629   2.003  10.144
58652SOL    HW177795   6.704   2.062  10.135
58652SOL    HW277796   6.660   1.919  10.110
58653SOL     OW77797  14.843  13.477   2.638
58653SOL    HW177798   0.018  13.447   2.565
58653SOL    HW277799  14.850  13.408   2.703
58654SOL     OW77800  12.149   5.025  10.316
58654SOL    HW177801  12.159   5.105  10.368
58654SOL    HW277802  12.111   4.961  10.377
58655SOL     OW77803   2.213   9.377   5.093
58655SOL    HW177804   2.199   9.355   5.185
58655SOL    HW277805   2.270   9.307   5.060
58656SOL     OW77806   7.176   4.228  11.506
58656SOL    HW177807   7.081   4.237  11.500
58656SOL    HW277808   7.211   4.306  11.463
58657SOL     OW77809   4.092   0.790   8.096
58657SOL    HW177810   4.118   0.867   8.146
58657SOL    HW277811   4.047   0.734   8.159
58658SOL     OW77812   7.765   9.433   0.050
58658SOL    HW177813   7.793   9.357  14.878
58658SOL    HW277814   7.846   9.471   0.083
58659SOL     OW77815   9.305   9.438   6.142
58659SOL    HW177816   9.327   9.411   6.053
58659SOL    HW277817   9.331   9.363   6.196
58660SOL     OW77818   7.937   9.699   1.997
58660SOL    HW177819   7.985   9.641   2.056
58660SOL    HW277820   7.957   9.787   2.027
58661SOL     OW77821  14.452   4.697  11.763
58661SOL    HW177822  14.504   4.718  11.840
58661SOL    HW277823  14.436   4.782  11.721
58662SOL     OW77824  10.182   1.846   5.473
58662SOL    HW177825  10.159   1.764   5.516
58662SOL    HW277826  10.182   1.825   5.380
58663SOL     OW77827  13.184   8.085  13.123
58663SOL    HW177828  13.243   8.157  13.102
58663SOL    HW277829  13.098   8.115  13.093
58664SOL     OW77830  12.604   4.468   0.120
58664SOL    HW177831  12.616   4.552   0.165
58664SOL    HW277832  12.689   4.424   0.128
58665SOL     OW77833   5.348   4.161   2.886
58665SOL    HW177834   5.401   4.234   2.852
58665SOL    HW277835   5.330   4.186   2.977
58666SOL     OW77836   6.106   2.981   7.136
58666SOL    HW177837   6.132   2.944   7.221
58666SOL    HW277838   6.159   3.061   7.128
58667SOL     OW77839  11.600   1.875   2.809
58667SOL    HW177840  11.595   1.852   2.902
58667SOL    HW277841  11.693   1.892   2.794
58668SOL     OW77842   8.831   6.168   1.170
58668SOL    HW177843   8.900   6.221   1.211
58668SOL    HW277844   8.876   6.088   1.143
58669SOL     OW77845   7.737   3.435   9.447
58669SOL    HW177846   7.812   3.407   9.499
58669SOL    HW277847   7.671   3.368   9.462
58670SOL     OW77848  10.461  11.275   0.143
58670SOL    HW177849  10.455  11.265   0.048
58670SOL    HW277850  10.372  11.256   0.175
58671SOL     OW77851   9.728  10.004   7.799
58671SOL    HW177852   9.699  10.095   7.805
58671SOL    HW277853   9.804  10.007   7.741
58672SOL     OW77854   3.181   4.395  11.587
58672SOL    HW177855   3.209   4.483  11.564
58672SOL    HW277856   3.137   4.405  11.672
58673SOL     OW77857   9.102   6.227   3.747
58673SOL    HW177858   9.141   6.283   3.680
58673SOL    HW277859   9.174   6.208   3.807
58674SOL     OW77860   8.723   9.781   9.883
58674SOL    HW177861   8.794   9.806   9.824
58674SOL    HW277862   8.669   9.860   9.889
58675SOL     OW77863   6.979   5.760   2.480
58675SOL    HW177864   6.941   5.724   2.560
58675SOL    HW277865   7.051   5.815   2.510
58676SOL     OW77866   4.770  13.186  14.337
58676SOL    HW177867   4.812  13.254  14.390
58676SOL    HW277868   4.801  13.203  14.248
58677SOL     OW77869   3.788   6.996  13.893
58677SOL    HW177870   3.815   6.919  13.844
58677SOL    HW277871   3.843   7.066  13.859
58678SOL     OW77872   5.873   5.964  12.723
58678SOL    HW177873   5.844   5.873  12.724
58678SOL    HW277874   5.902   5.979  12.633
58679SOL     OW77875   3.800   8.827   9.805
58679SOL    HW177876   3.727   8.818   9.744
58679SOL    HW277877   3.851   8.901   9.770
58680SOL     OW77878  13.728   3.929   0.160
58680SOL    HW177879  13.778   3.848   0.154
58680SOL    HW277880  13.682   3.923   0.244
58681SOL     OW77881   8.275   8.041   4.555
58681SOL    HW177882   8.269   8.136   4.547
58681SOL    HW277883   8.343   8.026   4.621
58682SOL     OW77884   6.328   5.430   4.357
58682SOL    HW177885   6.403   5.409   4.302
58682SOL    HW277886   6.274   5.488   4.303
58683SOL     OW77887   0.361  10.094   6.472
58683SOL    HW177888   0.400  10.098   6.559
58683SOL    HW277889   0.325  10.005   6.465
58684SOL     OW77890   9.718   3.950   9.874
58684SOL    HW177891   9.777   3.877   9.854
58684SOL    HW277892   9.644   3.938   9.815
58685SOL     OW77893   8.304  13.011   8.650
58685SOL    HW177894   8.341  12.924   8.634
58685SOL    HW277895   8.240  12.998   8.720
58686SOL     OW77896   0.092  10.989   5.802
58686SOL    HW177897   0.152  10.956   5.868
58686SOL    HW277898   0.011  10.939   5.815
58687SOL     OW77899  13.425  14.776  14.561
58687SOL    HW177900  13.474  14.820  14.631
58687SOL    HW277901  13.333  14.796  14.580
58688SOL     OW77902   8.450  11.931   1.094
58688SOL    HW177903   8.393  11.955   1.166
58688SOL    HW277904   8.396  11.875   1.038
58689SOL     OW77905  14.104   0.649   7.309
58689SOL    HW177906  14.085   0.732   7.353
58689SOL    HW277907  14.047   0.586   7.352
58690SOL     OW77908   8.717   6.001   8.256
58690SOL    HW177909   8.791   5.975   8.201
58690SOL    HW277910   8.641   5.993   8.200
58691SOL     OW77911   1.816   4.300   2.942
58691SOL    HW177912   1.821   4.206   2.926
58691SOL    HW277913   1.828   4.309   3.036
58692SOL     OW77914   5.330   6.684   8.342
58692SOL    HW177915   5.387   6.727   8.406
58692SOL    HW277916   5.356   6.592   8.343
58693SOL     OW77917   9.439  10.619  13.474
58693SOL    HW177918   9.529  10.589  13.491
58693SOL    HW277919   9.400  10.551  13.421
58694SOL     OW77920   7.301   6.166   3.228
58694SOL    HW177921   7.366   6.222   3.269
58694SOL    HW277922   7.295   6.090   3.286
58695SOL     OW77923  13.426   8.334   1.312
58695SOL    HW177924  13.451   8.325   1.404
58695SOL    HW277925  13.500   8.297   1.264
58696SOL     OW77926  10.101   4.253   2.846
58696SOL    HW177927  10.098   4.201   2.766
58696SOL    HW277928  10.087   4.190   2.916
58697SOL     OW77929   3.388   5.448  12.269
58697SOL    HW177930   3.467   5.488  12.306
58697SOL    HW277931   3.397   5.355  12.291
58698SOL     OW77932  12.189  14.161  13.827
58698SOL    HW177933  12.146  14.151  13.912
58698SOL    HW277934  12.223  14.251  13.828
58699SOL     OW77935   7.267   0.290   6.567
58699SOL    HW177936   7.353   0.330   6.558
58699SOL    HW277937   7.213   0.334   6.502
58700SOL     OW77938  11.860  12.263   2.643
58700SOL    HW177939  11.776  12.220   2.659
58700SOL    HW277940  11.888  12.293   2.729
58701SOL     OW77941  14.708  12.463   0.843
58701SOL    HW177942  14.615  12.468   0.820
58701SOL    HW277943  14.709  12.465   0.939
58702SOL     OW77944  11.587   5.801  11.801
58702SOL    HW177945  11.654   5.826  11.737
58702SOL    HW277946  11.552   5.884  11.832
58703SOL     OW77947   9.720   8.825   5.953
58703SOL    HW177948   9.746   8.738   5.984
58703SOL    HW277949   9.659   8.857   6.019
58704SOL     OW77950   0.295   2.315   3.796
58704SOL    HW177951   0.285   2.248   3.865
58704SOL    HW277952   0.378   2.357   3.816
58705SOL     OW77953   1.629   9.684   1.146
58705SOL    HW177954   1.666   9.739   1.215
58705SOL    HW277955   1.631   9.595   1.183
58706SOL     OW77956   6.315   1.916  14.301
58706SOL    HW177957   6.222   1.908  14.324
58706SOL    HW277958   6.362   1.870  14.370
58707SOL     OW77959   7.329   0.866   7.197
58707SOL    HW177960   7.375   0.915   7.265
58707SOL    HW277961   7.237   0.888   7.210
58708SOL     OW77962   0.181  12.555  12.017
58708SOL    HW177963   0.268  12.520  12.038
58708SOL    HW277964   0.186  12.648  12.039
58709SOL     OW77965  12.381   6.332  12.102
58709SOL    HW177966  12.433   6.376  12.034
58709SOL    HW277967  12.390   6.389  12.179
58710SOL     OW77968   5.842  13.582   9.896
58710SOL    HW177969   5.824  13.661   9.845
58710SOL    HW277970   5.762  13.567   9.946
58711SOL     OW77971   2.656   9.438  13.173
58711SOL    HW177972   2.614   9.477  13.096
58711SOL    HW277973   2.710   9.509  13.210
58712SOL     OW77974  12.904   5.585   8.494
58712SOL    HW177975  12.922   5.494   8.472
58712SOL    HW277976  12.812   5.598   8.470
58713SOL     OW77977  13.958   1.060   5.805
58713SOL    HW177978  13.966   0.973   5.845
58713SOL    HW277979  13.910   1.045   5.724
58714SOL     OW77980   0.975   9.633   2.016
58714SOL    HW177981   0.909   9.629   1.947
58714SOL    HW277982   1.037   9.564   1.993
58715SOL     OW77983   6.705   6.376  10.084
58715SOL    HW177984   6.737   6.297  10.040
58715SOL    HW277985   6.611   6.361  10.093
58716SOL     OW77986  12.741   4.811  12.958
58716SOL    HW177987  12.729   4.718  12.939
58716SOL    HW277988  12.704   4.855  12.881
58717SOL     OW77989   6.068   1.187  13.596
58717SOL    HW177990   6.132   1.252  13.626
58717SOL    HW277991   6.108   1.103  13.616
58718SOL     OW77992   5.830   5.646  13.016
58718SOL    HW177993   5.883   5.689  13.083
58718SOL    HW277994   5.801   5.564  13.057
58719SOL     OW77995  14.636   4.944   5.262
58719SOL    HW177996  14.593   5.016   5.216
58719SOL    HW277997  14.695   4.987   5.324
58720SOL     OW77998  14.627  14.663   7.701
58720SOL    HW177999  14.660  14.748   7.674
58720SOL    HW278000  14.540  14.656   7.661
58721SOL     OW78001   6.598  13.876   8.387
58721SOL    HW178002   6.635  13.964   8.400
58721SOL    HW278003   6.529  13.888   8.322
58722SOL     OW78004   3.399  10.722   5.988
58722SOL    HW178005   3.356  10.652   5.938
58722SOL    HW278006   3.327  10.770   6.028
58723SOL     OW78007   5.819  12.955   1.383
58723SOL    HW178008   5.846  12.954   1.475
58723SOL    HW278009   5.847  12.870   1.349
58724SOL     OW78010  10.244   0.810  12.634
58724SOL    HW178011  10.293   0.891  12.652
58724SOL    HW278012  10.165   0.818  12.687
58725SOL     OW78013  12.258   3.546   8.930
58725SOL    HW178014  12.290   3.497   9.006
58725SOL    HW278015  12.315   3.519   8.858
58726SOL     OW78016  10.849   6.932  11.205
58726SOL    HW178017  10.874   6.972  11.121
58726SOL    HW278018  10.796   6.999  11.248
58727SOL     OW78019   8.088   5.573   4.127
58727SOL    HW178020   7.998   5.599   4.146
58727SOL    HW278021   8.137   5.598   4.205
58728SOL     OW78022   5.545  14.465   7.320
58728SOL    HW178023   5.485  14.460   7.394
58728SOL    HW278024   5.589  14.380   7.319
58729SOL     OW78025  12.233  12.368  13.316
58729SOL    HW178026  12.286  12.362  13.395
58729SOL    HW278027  12.282  12.318  13.251
58730SOL     OW78028  10.714   3.256   5.881
58730SOL    HW178029  10.785   3.304   5.840
58730SOL    HW278030  10.685   3.312   5.953
58731SOL     OW78031  11.715  10.041   0.984
58731SOL    HW178032  11.737  10.106   1.050
58731SOL    HW278033  11.780   9.972   0.995
58732SOL     OW78034   2.951   7.897   6.875
58732SOL    HW178035   2.972   7.805   6.861
58732SOL    HW278036   3.021   7.929   6.932
58733SOL     OW78037  10.157   6.443   7.971
58733SOL    HW178038  10.108   6.364   7.950
58733SOL    HW278039  10.144   6.501   7.897
58734SOL     OW78040   9.160   4.319   1.244
58734SOL    HW178041   9.080   4.299   1.195
58734SOL    HW278042   9.142   4.405   1.283
58735SOL     OW78043   6.181  11.585   3.710
58735SOL    HW178044   6.154  11.529   3.637
58735SOL    HW278045   6.194  11.671   3.671
58736SOL     OW78046  11.251  12.562   3.375
58736SOL    HW178047  11.211  12.490   3.327
58736SOL    HW278048  11.196  12.638   3.355
58737SOL     OW78049  14.003   5.984   6.478
58737SOL    HW178050  14.062   5.934   6.421
58737SOL    HW278051  13.942   6.027   6.418
58738SOL     OW78052   5.393   3.033  12.965
58738SOL    HW178053   5.347   3.061  13.045
58738SOL    HW278054   5.363   3.095  12.898
58739SOL     OW78055   8.382   9.294   5.918
58739SOL    HW178056   8.443   9.328   5.984
58739SOL    HW278057   8.343   9.373   5.879
58740SOL     OW78058   2.493   1.858   3.144
58740SOL    HW178059   2.469   1.931   3.202
58740SOL    HW278060   2.409   1.816   3.123
58741SOL     OW78061   6.147   8.914   3.629
58741SOL    HW178062   6.154   8.998   3.676
58741SOL    HW278063   6.133   8.939   3.538
58742SOL     OW78064   2.124  11.407  12.197
58742SOL    HW178065   2.100  11.483  12.145
58742SOL    HW278066   2.205  11.433  12.242
58743SOL     OW78067  14.128   5.808   1.448
58743SOL    HW178068  14.165   5.789   1.361
58743SOL    HW278069  14.069   5.735   1.465
58744SOL     OW78070  10.295   4.310  11.816
58744SOL    HW178071  10.343   4.302  11.898
58744SOL    HW278072  10.347   4.257  11.754
58745SOL     OW78073   2.392   0.851   5.369
58745SOL    HW178074   2.391   0.875   5.276
58745SOL    HW278075   2.400   0.755   5.369
58746SOL     OW78076   8.343   2.462   1.709
58746SOL    HW178077   8.310   2.468   1.619
58746SOL    HW278078   8.310   2.377   1.740
58747SOL     OW78079  12.135  10.968   7.849
58747SOL    HW178080  12.081  10.912   7.904
58747SOL    HW278081  12.115  10.940   7.759
58748SOL     OW78082   4.050  12.334   9.150
58748SOL    HW178083   4.123  12.390   9.122
58748SOL    HW278084   4.073  12.307   9.238
58749SOL     OW78085   2.214  12.051   3.617
58749SOL    HW178086   2.134  12.089   3.654
58749SOL    HW278087   2.270  12.127   3.599
58750SOL     OW78088   7.499   3.518  11.775
58750SOL    HW178089   7.467   3.467  11.700
58750SOL    HW278090   7.470   3.468  11.852
58751SOL     OW78091  14.707   3.982   0.415
58751SOL    HW178092  14.766   3.931   0.359
58751SOL    HW278093  14.659   4.038   0.353
58752SOL     OW78094   4.362   5.057   5.046
58752SOL    HW178095   4.323   5.124   5.101
58752SOL    HW278096   4.454   5.055   5.070
58753SOL     OW78097   6.832  11.195   2.211
58753SOL    HW178098   6.807  11.287   2.207
58753SOL    HW278099   6.916  11.195   2.256
58754SOL     OW78100   1.357   6.598   7.265
58754SOL    HW178101   1.379   6.667   7.327
58754SOL    HW278102   1.436   6.545   7.258
58755SOL     OW78103   2.355  13.145  11.183
58755SOL    HW178104   2.436  13.175  11.224
58755SOL    HW278105   2.288  13.204  11.218
58756SOL     OW78106   8.357   5.835   4.072
58756SOL    HW178107   8.392   5.784   4.145
58756SOL    HW278108   8.295   5.896   4.113
58757SOL     OW78109  13.709   6.152   5.459
58757SOL    HW178110  13.751   6.180   5.541
58757SOL    HW278111  13.779   6.109   5.410
58758SOL     OW78112  11.724   4.291   5.057
58758SOL    HW178113  11.640   4.294   5.009
58758SOL    HW278114  11.707   4.340   5.137
58759SOL     OW78115   9.692  11.846   9.604
58759SOL    HW178116   9.628  11.853   9.675
58759SOL    HW278117   9.738  11.930   9.605
58760SOL     OW78118   3.023  11.954  12.780
58760SOL    HW178119   3.045  11.863  12.760
58760SOL    HW278120   3.041  12.002  12.699
58761SOL     OW78121  11.505   0.925   8.914
58761SOL    HW178122  11.458   0.854   8.959
58761SOL    HW278123  11.559   0.880   8.849
58762SOL     OW78124  11.062   9.267   6.412
58762SOL    HW178125  11.133   9.302   6.358
58762SOL    HW278126  10.994   9.243   6.348
58763SOL     OW78127  14.683  10.582  11.318
58763SOL    HW178128  14.728  10.546  11.394
58763SOL    HW278129  14.744  10.648  11.284
58764SOL     OW78130  12.678  11.127   2.700
58764SOL    HW178131  12.686  11.056   2.763
58764SOL    HW278132  12.585  11.147   2.697
58765SOL     OW78133   8.862  14.350   5.526
58765SOL    HW178134   8.825  14.411   5.590
58765SOL    HW278135   8.831  14.381   5.441
58766SOL     OW78136  13.322   9.800   5.344
58766SOL    HW178137  13.295   9.881   5.300
58766SOL    HW278138  13.247   9.777   5.399
58767SOL     OW78139   7.968   0.928   2.383
58767SOL    HW178140   7.919   0.858   2.338
58767SOL    HW278141   7.900   0.985   2.418
58768SOL     OW78142   0.675   3.961   3.747
58768SOL    HW178143   0.668   4.056   3.747
58768SOL    HW278144   0.734   3.941   3.820
58769SOL     OW78145   5.436   4.573   5.342
58769SOL    HW178146   5.381   4.572   5.420
58769SOL    HW278147   5.454   4.480   5.325
58770SOL     OW78148   8.201  10.330  13.674
58770SOL    HW178149   8.203  10.269  13.600
58770SOL    HW278150   8.145  10.402  13.645
58771SOL     OW78151   3.522  10.960   8.673
58771SOL    HW178152   3.536  10.982   8.765
58771SOL    HW278153   3.500  10.866   8.674
58772SOL     OW78154   6.952   8.299   1.597
58772SOL    HW178155   7.031   8.344   1.568
58772SOL    HW278156   6.974   8.206   1.592
58773SOL     OW78157   8.363  11.347   7.895
58773SOL    HW178158   8.390  11.257   7.878
58773SOL    HW278159   8.274  11.353   7.860
58774SOL     OW78160  14.450  10.340   6.022
58774SOL    HW178161  14.469  10.375   6.109
58774SOL    HW278162  14.536  10.323   5.983
58775SOL     OW78163  12.972   6.693  11.948
58775SOL    HW178164  12.926   6.770  11.982
58775SOL    HW278165  13.053   6.728  11.911
58776SOL     OW78166   7.779  13.437   2.307
58776SOL    HW178167   7.793  13.393   2.223
58776SOL    HW278168   7.831  13.387   2.369
58777SOL     OW78169   8.678  13.976   7.672
58777SOL    HW178170   8.626  14.024   7.737
58777SOL    HW278171   8.629  13.986   7.590
58778SOL     OW78172   9.254  13.306   7.241
58778SOL    HW178173   9.259  13.212   7.254
58778SOL    HW278174   9.326  13.327   7.182
58779SOL     OW78175   5.737   9.108  14.268
58779SOL    HW178176   5.651   9.083  14.234
58779SOL    HW278177   5.764   9.181  14.213
58780SOL     OW78178   3.731  10.690   5.401
58780SOL    HW178179   3.784  10.762   5.367
58780SOL    HW278180   3.647  10.731   5.423
58781SOL     OW78181   9.812   1.207   6.409
58781SOL    HW178182   9.892   1.228   6.457
58781SOL    HW278183   9.814   1.263   6.332
58782SOL     OW78184  13.026   5.892   6.043
58782SOL    HW178185  13.047   5.810   5.997
58782SOL    HW278186  12.944   5.921   6.002
58783SOL     OW78187   4.062   2.168  10.441
58783SOL    HW178188   4.027   2.251  10.470
58783SOL    HW278189   4.052   2.110  10.516
58784SOL     OW78190   6.041  11.324  13.882
58784SOL    HW178191   6.010  11.394  13.824
58784SOL    HW278192   6.069  11.254  13.822
58785SOL     OW78193  12.001   5.119  14.208
58785SOL    HW178194  12.081   5.134  14.156
58785SOL    HW278195  12.027   5.140  14.297
58786SOL     OW78196   0.231  14.817   8.766
58786SOL    HW178197   0.288  14.744   8.789
58786SOL    HW278198   0.267  14.849   8.683
58787SOL     OW78199   6.882   6.749  13.096
58787SOL    HW178200   6.925   6.789  13.020
58787SOL    HW278201   6.788   6.760  13.079
58788SOL     OW78202   5.388   6.049   5.930
58788SOL    HW178203   5.351   6.138   5.931
58788SOL    HW278204   5.391   6.025   5.838
58789SOL     OW78205  13.731   2.983   1.812
58789SOL    HW178206  13.744   2.918   1.880
58789SOL    HW278207  13.763   2.942   1.732
58790SOL     OW78208   4.032   9.310   5.108
58790SOL    HW178209   4.107   9.337   5.056
58790SOL    HW278210   4.070   9.259   5.179
58791SOL     OW78211   5.226  14.322   4.361
58791SOL    HW178212   5.212  14.248   4.303
58791SOL    HW278213   5.249  14.283   4.445
58792SOL     OW78214  12.628   6.586   9.461
58792SOL    HW178215  12.624   6.651   9.531
58792SOL    HW278216  12.685   6.625   9.395
58793SOL     OW78217  12.950   1.900   3.154
58793SOL    HW178218  12.977   1.851   3.076
58793SOL    HW278219  13.031   1.914   3.203
58794SOL     OW78220   5.615  12.207   7.526
58794SOL    HW178221   5.640  12.146   7.595
58794SOL    HW278222   5.529  12.178   7.497
58795SOL     OW78223  10.338   8.074   8.687
58795SOL    HW178224  10.391   8.143   8.648
58795SOL    HW278225  10.249   8.094   8.660
58796SOL     OW78226   7.257   9.658   9.268
58796SOL    HW178227   7.241   9.741   9.222
58796SOL    HW278228   7.172   9.616   9.270
58797SOL     OW78229  14.173   7.912  13.226
58797SOL    HW178230  14.081   7.936  13.237
58797SOL    HW278231  14.190   7.924  13.133
58798SOL     OW78232   2.315   4.012   4.833
58798SOL    HW178233   2.320   3.920   4.806
58798SOL    HW278234   2.399   4.050   4.807
58799SOL     OW78235  14.530   3.176   5.171
58799SOL    HW178236  14.519   3.199   5.079
58799SOL    HW278237  14.452   3.212   5.214
58800SOL     OW78238   0.659   4.777  14.451
58800SOL    HW178239   0.690   4.689  14.430
58800SOL    HW278240   0.737   4.825  14.478
58801SOL     OW78241   1.379   8.223  12.684
58801SOL    HW178242   1.357   8.219  12.591
58801SOL    HW278243   1.303   8.266  12.724
58802SOL     OW78244   6.198   4.241   4.627
58802SOL    HW178245   6.112   4.238   4.587
58802SOL    HW278246   6.233   4.327   4.601
58803SOL     OW78247  12.859  13.789   9.159
58803SOL    HW178248  12.779  13.771   9.207
58803SOL    HW278249  12.867  13.715   9.097
58804SOL     OW78250  13.273   6.848   1.151
58804SOL    HW178251  13.183   6.838   1.120
58804SOL    HW278252  13.281   6.940   1.173
58805SOL     OW78253   2.692   6.360   2.161
58805SOL    HW178254   2.675   6.398   2.075
58805SOL    HW278255   2.764   6.412   2.196
58806SOL     OW78256  13.903   4.664   8.272
58806SOL    HW178257  13.955   4.617   8.337
58806SOL    HW278258  13.904   4.607   8.195
58807SOL     OW78259   2.504  10.610   8.372
58807SOL    HW178260   2.547  10.666   8.307
58807SOL    HW278261   2.441  10.558   8.321
58808SOL     OW78262  13.403   8.710   8.074
58808SOL    HW178263  13.494   8.735   8.060
58808SOL    HW278264  13.391   8.631   8.022
58809SOL     OW78265   2.466  12.952   6.867
58809SOL    HW178266   2.543  12.933   6.919
58809SOL    HW278267   2.393  12.917   6.917
58810SOL     OW78268   0.103   6.891   1.410
58810SOL    HW178269   0.146   6.806   1.396
58810SOL    HW278270   0.064   6.913   1.325
58811SOL     OW78271  12.765   9.581   0.189
58811SOL    HW178272  12.706   9.513   0.156
58811SOL    HW278273  12.824   9.598   0.117
58812SOL     OW78274   2.790   9.989   7.811
58812SOL    HW178275   2.722  10.049   7.778
58812SOL    HW278276   2.872  10.031   7.787
58813SOL     OW78277   5.406   5.339  12.276
58813SOL    HW178278   5.408   5.402  12.348
58813SOL    HW278279   5.495   5.342  12.240
58814SOL     OW78280  13.189   7.141   5.806
58814SOL    HW178281  13.117   7.140   5.743
58814SOL    HW278282  13.261   7.184   5.760
58815SOL     OW78283   9.247   9.282   3.648
58815SOL    HW178284   9.173   9.319   3.600
58815SOL    HW278285   9.207   9.223   3.712
58816SOL     OW78286  11.239  13.850  14.331
58816SOL    HW178287  11.296  13.894  14.269
58816SOL    HW278288  11.298  13.816  14.398
58817SOL     OW78289  11.551   1.060   5.431
58817SOL    HW178290  11.500   1.096   5.503
58817SOL    HW278291  11.496   0.992   5.394
58818SOL     OW78292   0.958   4.788   5.056
58818SOL    HW178293   1.019   4.837   5.000
58818SOL    HW278294   0.972   4.825   5.144
58819SOL     OW78295   2.683  14.039   9.815
58819SOL    HW178296   2.726  14.038   9.730
58819SOL    HW278297   2.635  14.122   9.817
58820SOL     OW78298   0.774  13.930  13.688
58820SOL    HW178299   0.772  14.002  13.751
58820SOL    HW278300   0.696  13.943  13.634
58821SOL     OW78301   2.327   7.814   1.031
58821SOL    HW178302   2.320   7.751   1.102
58821SOL    HW278303   2.238   7.819   0.995
58822SOL     OW78304   1.422   0.547  12.400
58822SOL    HW178305   1.451   0.542  12.491
58822SOL    HW278306   1.501   0.571  12.351
58823SOL     OW78307   0.845   0.822   8.261
58823SOL    HW178308   0.764   0.868   8.243
58823SOL    HW278309   0.820   0.730   8.267
58824SOL     OW78310   6.160  14.013  10.320
58824SOL    HW178311   6.112  14.024  10.238
58824SOL    HW278312   6.096  14.034  10.388
58825SOL     OW78313  10.060   3.808   4.595
58825SOL    HW178314  10.008   3.859   4.657
58825SOL    HW278315  10.040   3.717   4.616
58826SOL     OW78316   7.872   5.830  12.186
58826SOL    HW178317   7.796   5.857  12.236
58826SOL    HW278318   7.855   5.737  12.166
58827SOL     OW78319   5.952  11.273   5.059
58827SOL    HW178320   5.913  11.313   5.137
58827SOL    HW278321   5.990  11.347   5.012
58828SOL     OW78322   7.194   4.003  14.716
58828SOL    HW178323   7.114   3.989  14.766
58828SOL    HW278324   7.264   3.969  14.772
58829SOL     OW78325   8.350   5.411   6.253
58829SOL    HW178326   8.406   5.487   6.242
58829SOL    HW278327   8.266   5.448   6.284
58830SOL     OW78328  12.440   1.728   6.295
58830SOL    HW178329  12.480   1.679   6.366
58830SOL    HW278330  12.346   1.714   6.306
58831SOL     OW78331   1.158  12.346   7.098
58831SOL    HW178332   1.104  12.425   7.102
58831SOL    HW278333   1.139  12.300   7.180
58832SOL     OW78334  11.005   6.881  11.738
58832SOL    HW178335  11.048   6.886  11.824
58832SOL    HW278336  10.922   6.837  11.756
58833SOL     OW78337   4.729   6.665  11.052
58833SOL    HW178338   4.758   6.756  11.060
58833SOL    HW278339   4.728   6.648  10.958
58834SOL     OW78340   4.566   6.513   0.240
58834SOL    HW178341   4.497   6.472   0.187
58834SOL    HW278342   4.566   6.462   0.321
58835SOL     OW78343   3.615   5.903   8.724
58835SOL    HW178344   3.528   5.864   8.730
58835SOL    HW278345   3.633   5.907   8.630
58836SOL     OW78346  13.871   8.906   1.069
58836SOL    HW178347  13.807   8.888   1.000
58836SOL    HW278348  13.820   8.903   1.150
58837SOL     OW78349   4.600   0.130   5.336
58837SOL    HW178350   4.634   0.041   5.341
58837SOL    HW278351   4.668   0.184   5.376
58838SOL     OW78352   7.091   0.842   9.847
58838SOL    HW178353   7.041   0.848   9.765
58838SOL    HW278354   7.026   0.824   9.914
58839SOL     OW78355   4.792   7.493   9.139
58839SOL    HW178356   4.847   7.460   9.210
58839SOL    HW278357   4.779   7.418   9.081
58840SOL     OW78358  14.363   3.707   9.828
58840SOL    HW178359  14.363   3.800   9.806
58840SOL    HW278360  14.454   3.688   9.850
58841SOL     OW78361   4.330   9.621  14.398
58841SOL    HW178362   4.350   9.681  14.326
58841SOL    HW278363   4.358   9.668  14.476
58842SOL     OW78364   5.762   3.771   4.510
58842SOL    HW178365   5.768   3.783   4.605
58842SOL    HW278366   5.688   3.826   4.484
58843SOL     OW78367   4.818  10.749  11.895
58843SOL    HW178368   4.877  10.792  11.957
58843SOL    HW278369   4.875  10.692  11.844
58844SOL     OW78370  11.215   0.737  10.139
58844SOL    HW178371  11.153   0.678  10.181
58844SOL    HW278372  11.301   0.698  10.156
58845SOL     OW78373  12.685   6.347  10.142
58845SOL    HW178374  12.675   6.253  10.130
58845SOL    HW278375  12.758   6.356  10.204
58846SOL     OW78376  10.026  12.655   6.245
58846SOL    HW178377  10.073  12.676   6.164
58846SOL    HW278378   9.942  12.698   6.236
58847SOL     OW78379   5.096   7.274   4.805
58847SOL    HW178380   5.171   7.226   4.841
58847SOL    HW278381   5.077   7.231   4.722
58848SOL     OW78382   4.810  12.636  10.640
58848SOL    HW178383   4.838  12.725  10.663
58848SOL    HW278384   4.725  12.649  10.598
58849SOL     OW78385  13.810   3.033   6.461
58849SOL    HW178386  13.732   3.070   6.503
58849SOL    HW278387  13.834   2.958   6.517
58850SOL     OW78388   3.278   8.412   5.321
58850SOL    HW178389   3.192   8.389   5.357
58850SOL    HW278390   3.315   8.474   5.383
58851SOL     OW78391  11.031   8.600   6.431
58851SOL    HW178392  10.976   8.674   6.457
58851SOL    HW278393  10.973   8.543   6.380
58852SOL     OW78394  14.821   4.038   3.433
58852SOL    HW178395  14.731   4.007   3.432
58852SOL    HW278396  14.826   4.094   3.511
58853SOL     OW78397   0.859   3.731   0.413
58853SOL    HW178398   0.852   3.762   0.323
58853SOL    HW278399   0.770   3.702   0.435
58854SOL     OW78400   2.739   5.366   9.106
58854SOL    HW178401   2.701   5.440   9.153
58854SOL    HW278402   2.672   5.342   9.042
58855SOL     OW78403   2.957   0.320  11.832
58855SOL    HW178404   2.923   0.231  11.820
58855SOL    HW278405   2.881   0.372  11.858
58856SOL     OW78406   4.945   9.422   4.337
58856SOL    HW178407   4.898   9.506   4.338
58856SOL    HW278408   4.941   9.392   4.427
58857SOL     OW78409   3.993  12.738   1.179
58857SOL    HW178410   4.063  12.741   1.114
58857SOL    HW278411   3.923  12.792   1.143
58858SOL     OW78412  11.974   5.653   0.297
58858SOL    HW178413  11.922   5.576   0.320
58858SOL    HW278414  11.988   5.644   0.203
58859SOL     OW78415  13.742   0.144   7.507
58859SOL    HW178416  13.823   0.094   7.506
58859SOL    HW278417  13.676   0.084   7.472
58860SOL     OW78418  13.373   4.893  13.700
58860SOL    HW178419  13.292   4.843  13.686
58860SOL    HW278420  13.413   4.898  13.613
58861SOL     OW78421   9.418  11.768  11.156
58861SOL    HW178422   9.339  11.773  11.102
58861SOL    HW278423   9.424  11.853  11.199
58862SOL     OW78424  14.166   3.753  14.780
58862SOL    HW178425  14.209   3.740  14.865
58862SOL    HW278426  14.232   3.727  14.716
58863SOL     OW78427   2.461  11.217   2.777
58863SOL    HW178428   2.518  11.278   2.824
58863SOL    HW278429   2.381  11.215   2.829
58864SOL     OW78430   4.293   9.958   5.794
58864SOL    HW178431   4.226  10.021   5.819
58864SOL    HW278432   4.302   9.967   5.699
58865SOL     OW78433   2.547  10.700   5.603
58865SOL    HW178434   2.613  10.769   5.607
58865SOL    HW278435   2.481  10.726   5.667
58866SOL     OW78436  13.412  13.472   8.690
58866SOL    HW178437  13.349  13.536   8.724
58866SOL    HW278438  13.419  13.406   8.759
58867SOL     OW78439   5.319  11.104   4.208
58867SOL    HW178440   5.239  11.064   4.244
58867SOL    HW278441   5.347  11.167   4.274
58868SOL     OW78442  13.812   8.761   8.266
58868SOL    HW178443  13.794   8.770   8.360
58868SOL    HW278444  13.884   8.822   8.250
58869SOL     OW78445  12.715  13.031   8.712
58869SOL    HW178446  12.778  13.029   8.640
58869SOL    HW278447  12.761  13.075   8.783
58870SOL     OW78448   3.289   0.998  11.754
58870SOL    HW178449   3.308   1.051  11.832
58870SOL    HW278450   3.205   0.956  11.774
58871SOL     OW78451  11.274  13.351   5.203
58871SOL    HW178452  11.235  13.438   5.195
58871SOL    HW278453  11.200  13.292   5.216
58872SOL     OW78454  11.145   7.650   7.116
58872SOL    HW178455  11.203   7.702   7.061
58872SOL    HW278456  11.088   7.605   7.054
58873SOL     OW78457   6.561  13.264   9.075
58873SOL    HW178458   6.568  13.357   9.097
58873SOL    HW278459   6.549  13.263   8.980
58874SOL     OW78460   6.913   7.761   1.392
58874SOL    HW178461   6.950   7.807   1.316
58874SOL    HW278462   6.919   7.668   1.368
58875SOL     OW78463   8.302   4.235   8.257
58875SOL    HW178464   8.329   4.217   8.346
58875SOL    HW278465   8.206   4.236   8.261
58876SOL     OW78466  11.291   9.536   7.291
58876SOL    HW178467  11.251   9.559   7.375
58876SOL    HW278468  11.367   9.483   7.314
58877SOL     OW78469  13.644   9.645   6.759
58877SOL    HW178470  13.573   9.699   6.723
58877SOL    HW278471  13.646   9.567   6.702
58878SOL     OW78472   3.564   2.432  12.144
58878SOL    HW178473   3.551   2.511  12.092
58878SOL    HW278474   3.637   2.387  12.102
58879SOL     OW78475  14.669   3.971  12.033
58879SOL    HW178476  14.698   3.949  11.945
58879SOL    HW278477  14.639   4.062  12.028
58880SOL     OW78478  11.521   2.563   6.899
58880SOL    HW178479  11.549   2.653   6.884
58880SOL    HW278480  11.426   2.567   6.904
58881SOL     OW78481   4.951  10.278  12.176
58881SOL    HW178482   5.037  10.306  12.207
58881SOL    HW278483   4.890  10.301  12.247
58882SOL     OW78484   7.084   1.135  12.420
58882SOL    HW178485   6.993   1.106  12.422
58882SOL    HW278486   7.113   1.131  12.511
58883SOL     OW78487   9.534  13.358   8.682
58883SOL    HW178488   9.565  13.339   8.771
58883SOL    HW278489   9.555  13.278   8.632
58884SOL     OW78490   8.673   3.796  10.306
58884SOL    HW178491   8.662   3.786  10.400
58884SOL    HW278492   8.585   3.793  10.270
58885SOL     OW78493  10.489  13.658  13.796
58885SOL    HW178494  10.549  13.697  13.732
58885SOL    HW278495  10.472  13.570  13.762
58886SOL     OW78496   8.703  14.236   3.744
58886SOL    HW178497   8.706  14.304   3.676
58886SOL    HW278498   8.633  14.266   3.803
58887SOL     OW78499   0.008  14.216   6.502
58887SOL    HW178500  14.817  14.172   6.551
58887SOL    HW278501   0.088  14.173   6.532
58888SOL     OW78502   0.417   5.771   8.545
58888SOL    HW178503   0.504   5.730   8.547
58888SOL    HW278504   0.357   5.700   8.569
58889SOL     OW78505   5.778   7.607   0.615
58889SOL    HW178506   5.741   7.653   0.691
58889SOL    HW278507   5.732   7.523   0.612
58890SOL     OW78508   1.408  14.483   9.108
58890SOL    HW178509   1.417  14.569   9.148
58890SOL    HW278510   1.461  14.487   9.029
58891SOL     OW78511  12.122   1.017   6.528
58891SOL    HW178512  12.122   1.104   6.567
58891SOL    HW278513  12.119   0.957   6.603
58892SOL     OW78514  11.735  10.711   7.098
58892SOL    HW178515  11.683  10.653   7.154
58892SOL    HW278516  11.702  10.695   7.010
58893SOL     OW78517   6.772   1.305  10.762
58893SOL    HW178518   6.722   1.259  10.829
58893SOL    HW278519   6.815   1.377  10.809
58894SOL     OW78520   0.579  14.809  14.524
58894SOL    HW178521   0.519  14.735  14.520
58894SOL    HW278522   0.566  14.846  14.611
58895SOL     OW78523   8.218   2.185  12.229
58895SOL    HW178524   8.139   2.229  12.260
58895SOL    HW278525   8.190   2.096  12.210
58896SOL     OW78526   3.960  12.299  12.736
58896SOL    HW178527   3.995  12.352  12.807
58896SOL    HW278528   3.988  12.344  12.656
58897SOL     OW78529   9.661   2.833   2.700
58897SOL    HW178530   9.696   2.850   2.612
58897SOL    HW278531   9.731   2.788   2.745
58898SOL     OW78532   4.598   4.435   5.085
58898SOL    HW178533   4.645   4.426   5.168
58898SOL    HW278534   4.627   4.360   5.032
58899SOL     OW78535  13.673   5.972   2.770
58899SOL    HW178536  13.736   5.956   2.700
58899SOL    HW278537  13.703   6.053   2.812
58900SOL     OW78538  13.469  10.071   7.066
58900SOL    HW178539  13.449  10.161   7.095
58900SOL    HW278540  13.417  10.060   6.987
58901SOL     OW78541   5.847   7.069   7.956
58901SOL    HW178542   5.818   7.073   7.865
58901SOL    HW278543   5.803   7.142   7.998
58902SOL     OW78544  12.777   8.115   1.571
58902SOL    HW178545  12.737   8.037   1.609
58902SOL    HW278546  12.748   8.115   1.479
58903SOL     OW78547   0.358   3.945  12.337
58903SOL    HW178548   0.309   3.863  12.333
58903SOL    HW278549   0.342   3.987  12.252
58904SOL     OW78550  11.633   4.545   3.599
58904SOL    HW178551  11.617   4.519   3.508
58904SOL    HW278552  11.558   4.512   3.648
58905SOL     OW78553  14.065  12.331   9.204
58905SOL    HW178554  14.144  12.356   9.251
58905SOL    HW278555  13.998  12.322   9.271
58906SOL     OW78556  13.761   3.173   6.805
58906SOL    HW178557  13.854   3.151   6.803
58906SOL    HW278558  13.728   3.133   6.885
58907SOL     OW78559   2.924  14.705   5.204
58907SOL    HW178560   3.010  14.694   5.245
58907SOL    HW278561   2.940  14.764   5.130
58908SOL     OW78562   6.427   3.078   8.674
58908SOL    HW178563   6.392   3.151   8.622
58908SOL    HW278564   6.521   3.077   8.653
58909SOL     OW78565   9.154   7.996  10.331
58909SOL    HW178566   9.238   7.983  10.375
58909SOL    HW278567   9.127   7.908  10.306
58910SOL     OW78568   5.351   6.412   8.325
58910SOL    HW178569   5.258   6.432   8.309
58910SOL    HW278570   5.349   6.340   8.388
58911SOL     OW78571   9.199   2.216   8.760
58911SOL    HW178572   9.198   2.191   8.853
58911SOL    HW278573   9.131   2.283   8.752
58912SOL     OW78574   2.545   3.597   2.794
58912SOL    HW178575   2.632   3.630   2.814
58912SOL    HW278576   2.521   3.542   2.868
58913SOL     OW78577  14.250   7.542  13.852
58913SOL    HW178578  14.296   7.624  13.871
58913SOL    HW278579  14.177   7.568  13.796
58914SOL     OW78580   3.110  14.175  13.459
58914SOL    HW178581   3.131  14.168  13.553
58914SOL    HW278582   3.016  14.161  13.455
58915SOL     OW78583  10.699   5.459   4.101
58915SOL    HW178584  10.740   5.475   4.186
58915SOL    HW278585  10.722   5.535   4.048
58916SOL     OW78586   2.764  11.997  12.412
58916SOL    HW178587   2.822  12.040  12.349
58916SOL    HW278588   2.682  11.987  12.364
58917SOL     OW78589   9.012  14.348   6.753
58917SOL    HW178590   9.092  14.371   6.705
58917SOL    HW278591   9.033  14.368   6.845
58918SOL     OW78592   9.137   3.436  12.762
58918SOL    HW178593   9.147   3.467  12.672
58918SOL    HW278594   9.170   3.508  12.816
58919SOL     OW78595  14.291   6.631   8.544
58919SOL    HW178596  14.264   6.723   8.547
58919SOL    HW278597  14.326   6.620   8.455
58920SOL     OW78598  11.733   3.074  12.429
58920SOL    HW178599  11.687   3.103  12.507
58920SOL    HW278600  11.717   3.143  12.364
58921SOL     OW78601   9.970  13.924  12.496
58921SOL    HW178602   9.951  13.831  12.484
58921SOL    HW278603  10.063  13.927  12.518
58922SOL     OW78604   7.251   8.895  14.067
58922SOL    HW178605   7.281   8.811  14.101
58922SOL    HW278606   7.296   8.903  13.982
58923SOL     OW78607   8.106   9.481  11.131
58923SOL    HW178608   8.124   9.505  11.040
58923SOL    HW278609   8.033   9.419  11.126
58924SOL     OW78610   5.154   5.682  14.656
58924SOL    HW178611   5.158   5.596  14.614
58924SOL    HW278612   5.104   5.736  14.595
58925SOL     OW78613   3.721   1.304  11.241
58925SOL    HW178614   3.809   1.341  11.251
58925SOL    HW278615   3.662   1.371  11.275
58926SOL     OW78616  13.552   6.887   8.146
58926SOL    HW178617  13.460   6.907   8.157
58926SOL    HW278618  13.584   6.953   8.083
58927SOL     OW78619   4.047   1.159  12.888
58927SOL    HW178620   4.133   1.200  12.875
58927SOL    HW278621   4.047   1.085  12.827
58928SOL     OW78622   5.838  12.325   3.957
58928SOL    HW178623   5.750  12.323   3.919
58928SOL    HW278624   5.896  12.339   3.882
58929SOL     OW78625   8.225   8.009  13.735
58929SOL    HW178626   8.194   8.069  13.667
58929SOL    HW278627   8.232   8.064  13.813
58930SOL     OW78628   1.002  10.813   2.325
58930SOL    HW178629   0.987  10.854   2.411
58930SOL    HW278630   0.917  10.775   2.301
58931SOL     OW78631   6.402  12.432   2.066
58931SOL    HW178632   6.335  12.388   2.014
58931SOL    HW278633   6.483  12.384   2.048
58932SOL     OW78634   3.825   7.326   9.286
58932SOL    HW178635   3.782   7.250   9.324
58932SOL    HW278636   3.816   7.395   9.353
58933SOL     OW78637  10.176  14.727  10.662
58933SOL    HW178638  10.083  14.720  10.639
58933SOL    HW278639  10.196  14.820  10.654
58934SOL     OW78640   6.578  13.572   8.301
58934SOL    HW178641   6.550  13.660   8.274
58934SOL    HW278642   6.637  13.588   8.375
58935SOL     OW78643   3.294  12.340   2.388
58935SOL    HW178644   3.313  12.310   2.477
58935SOL    HW278645   3.362  12.405   2.369
58936SOL     OW78646   7.734   6.811  10.267
58936SOL    HW178647   7.679   6.775  10.337
58936SOL    HW278648   7.754   6.736  10.211
58937SOL     OW78649  14.800  12.713   6.787
58937SOL    HW178650  14.775  12.710   6.694
58937SOL    HW278651  14.791  12.805   6.812
58938SOL     OW78652   6.378   0.083  12.801
58938SOL    HW178653   6.299   0.132  12.776
58938SOL    HW278654   6.357  14.871  12.779
58939SOL     OW78655  10.275   1.550   5.038
58939SOL    HW178656  10.363   1.584   5.024
58939SOL    HW278657  10.278   1.460   5.004
58940SOL     OW78658  14.102   7.884  13.504
58940SOL    HW178659  14.117   7.879  13.410
58940SOL    HW278660  14.021   7.935  13.512
58941SOL     OW78661   5.488  11.613   0.921
58941SOL    HW178662   5.563  11.585   0.868
58941SOL    HW278663   5.492  11.709   0.919
58942SOL     OW78664  12.306   5.797  14.398
58942SOL    HW178665  12.267   5.773  14.315
58942SOL    HW278666  12.397   5.767  14.392
58943SOL     OW78667   3.002   5.437   7.354
58943SOL    HW178668   3.094   5.409   7.361
58943SOL    HW278669   2.989   5.449   7.260
58944SOL     OW78670   7.521   0.063  14.239
58944SOL    HW178671   7.560  14.863  14.275
58944SOL    HW278672   7.503   0.118  14.316
58945SOL     OW78673  13.544   9.344   5.294
58945SOL    HW178674  13.531   9.383   5.380
58945SOL    HW278675  13.456   9.327   5.261
58946SOL     OW78676   1.752  14.679   3.931
58946SOL    HW178677   1.688  14.613   3.905
58946SOL    HW278678   1.704  14.762   3.927
58947SOL     OW78679   9.709   2.193  11.871
58947SOL    HW178680   9.670   2.261  11.925
58947SOL    HW278681   9.656   2.192  11.792
58948SOL     OW78682   1.062   2.753  12.312
58948SOL    HW178683   1.049   2.734  12.405
58948SOL    HW278684   1.036   2.672  12.268
58949SOL     OW78685   6.343  13.560  14.587
58949SOL    HW178686   6.317  13.576  14.678
58949SOL    HW278687   6.274  13.602  14.535
58950SOL     OW78688   6.892   4.367   5.382
58950SOL    HW178689   6.852   4.281   5.397
58950SOL    HW278690   6.937   4.357   5.298
58951SOL     OW78691  11.116   7.800  12.664
58951SOL    HW178692  11.207   7.808  12.635
58951SOL    HW278693  11.094   7.886  12.699
58952SOL     OW78694   5.980   2.897   4.995
58952SOL    HW178695   5.932   2.815   4.984
58952SOL    HW278696   5.975   2.939   4.910
58953SOL     OW78697  10.196   9.600   1.658
58953SOL    HW178698  10.274   9.570   1.705
58953SOL    HW278699  10.230   9.639   1.577
58954SOL     OW78700   8.520   2.873   9.504
58954SOL    HW178701   8.557   2.798   9.550
58954SOL    HW278702   8.429   2.877   9.534
58955SOL     OW78703   9.901   0.731   9.646
58955SOL    HW178704   9.936   0.732   9.735
58955SOL    HW278705   9.972   0.767   9.592
58956SOL     OW78706   0.670   4.859   6.478
58956SOL    HW178707   0.714   4.864   6.563
58956SOL    HW278708   0.594   4.915   6.487
58957SOL     OW78709   8.128   8.597   2.053
58957SOL    HW178710   8.121   8.527   2.118
58957SOL    HW278711   8.218   8.627   2.058
58958SOL     OW78712   6.696  13.011   9.092
58958SOL    HW178713   6.644  13.067   9.035
58958SOL    HW278714   6.688  13.051   9.179
58959SOL     OW78715   1.184  11.613   9.273
58959SOL    HW178716   1.108  11.568   9.310
58959SOL    HW278717   1.155  11.703   9.260
58960SOL     OW78718   7.226   6.686   6.370
58960SOL    HW178719   7.136   6.710   6.389
58960SOL    HW278720   7.230   6.591   6.383
58961SOL     OW78721   8.268  14.200  10.489
58961SOL    HW178722   8.302  14.243  10.567
58961SOL    HW278723   8.228  14.270  10.438
58962SOL     OW78724  10.386   8.999   5.718
58962SOL    HW178725  10.464   8.998   5.773
58962SOL    HW278726  10.411   8.949   5.640
58963SOL     OW78727  14.202   5.200   9.267
58963SOL    HW178728  14.243   5.143   9.332
58963SOL    HW278729  14.235   5.167   9.183
58964SOL     OW78730   2.943   1.943   8.300
58964SOL    HW178731   2.847   1.939   8.308
58964SOL    HW278732   2.967   2.023   8.346
58965SOL     OW78733   9.662  14.569  10.002
58965SOL    HW178734   9.619  14.508  10.062
58965SOL    HW278735   9.667  14.522   9.919
58966SOL     OW78736  10.603   7.915   6.972
58966SOL    HW178737  10.617   7.850   6.904
58966SOL    HW278738  10.676   7.975   6.963
58967SOL     OW78739   8.027  11.557   3.795
58967SOL    HW178740   8.069  11.635   3.831
58967SOL    HW278741   7.948  11.590   3.751
58968SOL     OW78742  12.554   7.100  13.658
58968SOL    HW178743  12.570   7.114  13.751
58968SOL    HW278744  12.480   7.157  13.637
58969SOL     OW78745   6.980   5.662   7.423
58969SOL    HW178746   7.048   5.617   7.373
58969SOL    HW278747   6.961   5.602   7.495
58970SOL     OW78748   2.061   0.171  12.232
58970SOL    HW178749   1.985   0.179  12.174
58970SOL    HW278750   2.027   0.127  12.310
58971SOL     OW78751   1.963   7.759  12.950
58971SOL    HW178752   1.954   7.851  12.972
58971SOL    HW278753   2.005   7.720  13.027
58972SOL     OW78754   8.703  10.598   9.628
58972SOL    HW178755   8.650  10.563   9.556
58972SOL    HW278756   8.638  10.625   9.694
58973SOL     OW78757   5.753   3.419   2.561
58973SOL    HW178758   5.736   3.382   2.475
58973SOL    HW278759   5.680   3.478   2.577
58974SOL     OW78760   3.339  14.398  13.939
58974SOL    HW178761   3.342  14.413  14.033
58974SOL    HW278762   3.407  14.456  13.904
58975SOL     OW78763  14.661  11.468   7.357
58975SOL    HW178764  14.666  11.549   7.408
58975SOL    HW278765  14.645  11.400   7.422
58976SOL     OW78766  10.526  10.224  11.258
58976SOL    HW178767  10.588  10.238  11.330
58976SOL    HW278768  10.578  10.242  11.179
58977SOL     OW78769  14.865  13.635  13.549
58977SOL    HW178770  14.870  13.705  13.484
58977SOL    HW278771   0.046  13.663  13.618
58978SOL     OW78772   6.085   3.030   1.914
58978SOL    HW178773   6.091   2.947   1.963
58978SOL    HW278774   6.131   3.093   1.968
58979SOL     OW78775  13.755   9.538   2.294
58979SOL    HW178776  13.836   9.567   2.336
58979SOL    HW278777  13.687   9.558   2.358
58980SOL     OW78778   8.581   3.860   5.442
58980SOL    HW178779   8.537   3.937   5.477
58980SOL    HW278780   8.555   3.789   5.500
58981SOL     OW78781  14.171   9.561  10.056
58981SOL    HW178782  14.255   9.588  10.017
58981SOL    HW278783  14.112   9.634  10.035
58982SOL     OW78784   8.715  13.028  13.708
58982SOL    HW178785   8.622  13.003  13.703
58982SOL    HW278786   8.713  13.124  13.712
58983SOL     OW78787  10.203   9.479  12.913
58983SOL    HW178788  10.121   9.434  12.891
58983SOL    HW278789  10.183   9.572  12.899
58984SOL     OW78790  11.081   1.243  10.384
58984SOL    HW178791  11.027   1.228  10.307
58984SOL    HW278792  11.153   1.298  10.354
58985SOL     OW78793   2.839  13.842  14.223
58985SOL    HW178794   2.916  13.878  14.266
58985SOL    HW278795   2.867  13.826  14.133
58986SOL     OW78796   2.120   4.193   1.382
58986SOL    HW178797   2.128   4.154   1.295
58986SOL    HW278798   2.198   4.248   1.391
58987SOL     OW78799   7.663   1.641   3.734
58987SOL    HW178800   7.608   1.687   3.671
58987SOL    HW278801   7.632   1.671   3.819
58988SOL     OW78802   0.337   9.998  12.739
58988SOL    HW178803   0.409  10.026  12.795
58988SOL    HW278804   0.273  10.070  12.744
58989SOL     OW78805   8.306   7.321   8.995
58989SOL    HW178806   8.276   7.324   8.904
58989SOL    HW278807   8.282   7.406   9.031
58990SOL     OW78808  11.997   0.983   5.544
58990SOL    HW178809  12.003   1.066   5.497
58990SOL    HW278810  12.081   0.973   5.587
58991SOL     OW78811   2.650   6.832   5.869
58991SOL    HW178812   2.593   6.883   5.811
58991SOL    HW278813   2.643   6.876   5.954
58992SOL     OW78814   1.015  12.042  14.113
58992SOL    HW178815   1.051  12.057  14.200
58992SOL    HW278816   1.071  12.092  14.054
58993SOL     OW78817   8.666   5.436   3.996
58993SOL    HW178818   8.586   5.415   3.947
58993SOL    HW278819   8.724   5.476   3.932
58994SOL     OW78820   9.853   6.768   8.439
58994SOL    HW178821   9.919   6.836   8.453
58994SOL    HW278822   9.831   6.737   8.527
58995SOL     OW78823  12.979  13.724   2.013
58995SOL    HW178824  12.941  13.806   1.980
58995SOL    HW278825  12.991  13.741   2.107
58996SOL     OW78826   7.876   5.483   2.912
58996SOL    HW178827   7.793   5.484   2.866
58996SOL    HW278828   7.924   5.559   2.877
58997SOL     OW78829  10.449   1.564   6.477
58997SOL    HW178830  10.385   1.619   6.432
58997SOL    HW278831  10.417   1.559   6.567
58998SOL     OW78832   8.381  13.907   7.580
58998SOL    HW178833   8.296  13.909   7.536
58998SOL    HW278834   8.437  13.858   7.519
58999SOL     OW78835  13.758   4.274  11.692
58999SOL    HW178836  13.831   4.243  11.746
58999SOL    HW278837  13.799   4.323  11.621
59000SOL     OW78838   0.176   1.992   2.690
59000SOL    HW178839   0.196   2.083   2.711
59000SOL    HW278840   0.222   1.976   2.607
59001SOL     OW78841   0.440   5.899   2.616
59001SOL    HW178842   0.451   5.851   2.698
59001SOL    HW278843   0.503   5.858   2.556
59002SOL     OW78844   1.519  13.969   3.014
59002SOL    HW178845   1.475  13.936   3.092
59002SOL    HW278846   1.506  14.064   3.018
59003SOL     OW78847   5.015   1.979   8.977
59003SOL    HW178848   4.936   2.017   9.014
59003SOL    HW278849   5.022   2.017   8.889
59004SOL     OW78850   7.090   8.672   6.856
59004SOL    HW178851   7.049   8.642   6.775
59004SOL    HW278852   7.036   8.634   6.926
59005SOL     OW78853   7.888   3.603   7.426
59005SOL    HW178854   7.940   3.526   7.404
59005SOL    HW278855   7.898   3.662   7.351
59006SOL     OW78856   6.497   5.733   4.456
59006SOL    HW178857   6.470   5.736   4.364
59006SOL    HW278858   6.592   5.745   4.453
59007SOL     OW78859   3.842  14.718  10.631
59007SOL    HW178860   3.847  14.780  10.704
59007SOL    HW278861   3.769  14.660  10.654
59008SOL     OW78862   6.137  10.828  11.685
59008SOL    HW178863   6.059  10.866  11.725
59008SOL    HW278864   6.200  10.900  11.681
59009SOL     OW78865  13.315   7.130  11.639
59009SOL    HW178866  13.306   7.196  11.570
59009SOL    HW278867  13.362   7.057  11.597
59010SOL     OW78868   6.884   3.581   9.015
59010SOL    HW178869   6.852   3.670   9.031
59010SOL    HW278870   6.864   3.534   9.096
59011SOL     OW78871  13.617   8.375   9.087
59011SOL    HW178872  13.553   8.439   9.055
59011SOL    HW278873  13.583   8.290   9.056
59012SOL     OW78874  11.099  11.489   4.294
59012SOL    HW178875  11.058  11.404   4.311
59012SOL    HW278876  11.051  11.524   4.218
59013SOL     OW78877  11.337   0.420   9.001
59013SOL    HW178878  11.422   0.418   9.044
59013SOL    HW278879  11.347   0.365   8.923
59014SOL     OW78880  11.475   0.356   9.658
59014SOL    HW178881  11.471   0.419   9.730
59014SOL    HW278882  11.542   0.391   9.600
59015SOL     OW78883   4.403   3.912   6.995
59015SOL    HW178884   4.490   3.923   6.958
59015SOL    HW278885   4.418   3.877   7.083
59016SOL     OW78886  14.341   6.123   9.644
59016SOL    HW178887  14.361   6.206   9.602
59016SOL    HW278888  14.323   6.147   9.735
59017SOL     OW78889   0.054  11.489   0.688
59017SOL    HW178890  14.855  11.466   0.638
59017SOL    HW278891   0.126  11.475   0.626
59018SOL     OW78892   8.314  11.823   3.591
59018SOL    HW178893   8.223  11.849   3.603
59018SOL    HW278894   8.365  11.903   3.603
59019SOL     OW78895  10.152   1.099   2.829
59019SOL    HW178896  10.109   1.183   2.809
59019SOL    HW278897  10.186   1.110   2.918
59020SOL     OW78898   6.954   6.811   6.282
59020SOL    HW178899   6.903   6.732   6.302
59020SOL    HW278900   6.951   6.862   6.363
59021SOL     OW78901  12.939   9.394  10.755
59021SOL    HW178902  12.856   9.441  10.746
59021SOL    HW278903  13.005   9.453  10.718
59022SOL     OW78904  10.163   2.020   6.719
59022SOL    HW178905  10.232   1.956   6.736
59022SOL    HW278906  10.131   1.997   6.631
59023SOL     OW78907   9.000   1.095   8.959
59023SOL    HW178908   9.023   1.102   9.052
59023SOL    HW278909   8.905   1.111   8.957
59024SOL     OW78910  10.784   3.517  10.469
59024SOL    HW178911  10.840   3.442  10.487
59024SOL    HW278912  10.845   3.589  10.450
59025SOL     OW78913   7.068   0.662  12.482
59025SOL    HW178914   7.163   0.659  12.479
59025SOL    HW278915   7.041   0.571  12.486
59026SOL     OW78916  10.309  12.736  14.112
59026SOL    HW178917  10.340  12.659  14.065
59026SOL    HW278918  10.351  12.730  14.198
59027SOL     OW78919   3.094  11.599   9.259
59027SOL    HW178920   3.175  11.571   9.217
59027SOL    HW278921   3.120  11.624   9.348
59028SOL     OW78922   2.089   6.878   3.441
59028SOL    HW178923   2.022   6.846   3.501
59028SOL    HW278924   2.043   6.941   3.385
59029SOL     OW78925   6.018   5.485   3.951
59029SOL    HW178926   5.925   5.463   3.947
59029SOL    HW278927   6.021   5.574   3.985
59030SOL     OW78928   5.460   9.663  13.204
59030SOL    HW178929   5.450   9.670  13.299
59030SOL    HW278930   5.456   9.753  13.173
59031SOL     OW78931  11.327  14.037   8.307
59031SOL    HW178932  11.404  14.015   8.255
59031SOL    HW278933  11.278  13.955   8.313
59032SOL     OW78934   0.220   5.044   3.246
59032SOL    HW178935   0.265   5.122   3.212
59032SOL    HW278936   0.197   5.068   3.336
59033SOL     OW78937   9.716   7.329   5.200
59033SOL    HW178938   9.697   7.272   5.125
59033SOL    HW278939   9.688   7.416   5.171
59034SOL     OW78940   8.406  13.232   5.794
59034SOL    HW178941   8.413  13.303   5.858
59034SOL    HW278942   8.482  13.243   5.737
59035SOL     OW78943   1.824   3.947   0.291
59035SOL    HW178944   1.761   3.911   0.355
59035SOL    HW278945   1.867   4.018   0.338
59036SOL     OW78946   7.626   4.385  11.874
59036SOL    HW178947   7.565   4.312  11.869
59036SOL    HW278948   7.617   4.417  11.964
59037SOL     OW78949   4.962  11.717   8.819
59037SOL    HW178950   5.049  11.721   8.781
59037SOL    HW278951   4.973  11.669   8.901
59038SOL     OW78952  10.116   7.804   0.852
59038SOL    HW178953  10.211   7.794   0.853
59038SOL    HW278954  10.100   7.878   0.794
59039SOL     OW78955   5.245   6.494   7.978
59039SOL    HW178956   5.180   6.424   7.984
59039SOL    HW278957   5.254   6.526   8.068
59040SOL     OW78958   4.755   6.356  10.687
59040SOL    HW178959   4.687   6.310  10.735
59040SOL    HW278960   4.809   6.287  10.648
59041SOL     OW78961   2.801   3.711   5.107
59041SOL    HW178962   2.714   3.738   5.077
59041SOL    HW278963   2.852   3.701   5.027
59042SOL     OW78964   5.132  14.680   2.967
59042SOL    HW178965   5.163  14.764   2.935
59042SOL    HW278966   5.201  14.618   2.946
59043SOL     OW78967   3.220   5.417  13.444
59043SOL    HW178968   3.154   5.450  13.383
59043SOL    HW278969   3.210   5.322  13.441
59044SOL     OW78970  10.941  12.066   1.643
59044SOL    HW178971  10.894  12.045   1.562
59044SOL    HW278972  11.000  12.138   1.617
59045SOL     OW78973   7.315  11.630  13.368
59045SOL    HW178974   7.367  11.549  13.364
59045SOL    HW278975   7.259  11.617  13.445
59046SOL     OW78976   5.126   2.895   0.052
59046SOL    HW178977   5.128   2.858   0.140
59046SOL    HW278978   5.044   2.945   0.048
59047SOL     OW78979   7.734   5.371   9.770
59047SOL    HW178980   7.823   5.367   9.736
59047SOL    HW278981   7.678   5.367   9.693
59048SOL     OW78982   7.271   1.610   6.208
59048SOL    HW178983   7.254   1.695   6.168
59048SOL    HW278984   7.321   1.630   6.287
59049SOL     OW78985   8.289   8.033   3.559
59049SOL    HW178986   8.342   8.082   3.496
59049SOL    HW278987   8.199   8.059   3.541
59050SOL     OW78988   5.483   6.498   2.926
59050SOL    HW178989   5.422   6.494   3.000
59050SOL    HW278990   5.563   6.536   2.962
59051SOL     OW78991  13.239  13.762   9.277
59051SOL    HW178992  13.316  13.753   9.333
59051SOL    HW278993  13.204  13.674   9.269
59052SOL     OW78994   9.305   4.226  12.065
59052SOL    HW178995   9.310   4.140  12.106
59052SOL    HW278996   9.301   4.207  11.971
59053SOL     OW78997   7.529   6.966  10.471
59053SOL    HW178998   7.617   6.944  10.501
59053SOL    HW278999   7.501   7.037  10.529
59054SOL     OW79000   4.924   7.907   7.222
59054SOL    HW179001   4.853   7.971   7.228
59054SOL    HW279002   4.999   7.950   7.261
59055SOL     OW79003   2.782  11.128   1.985
59055SOL    HW179004   2.710  11.118   1.923
59055SOL    HW279005   2.740  11.129   2.071
59056SOL     OW79006  12.719   3.937   5.141
59056SOL    HW179007  12.747   3.997   5.072
59056SOL    HW279008  12.780   3.863   5.135
59057SOL     OW79009   5.283   5.406   0.029
59057SOL    HW179010   5.331   5.323   0.031
59057SOL    HW279011   5.222   5.397  14.836
59058SOL     OW79012  13.837   1.519   4.701
59058SOL    HW179013  13.915   1.506   4.755
59058SOL    HW279014  13.766   1.480   4.752
59059SOL     OW79015   3.098   5.110   2.292
59059SOL    HW179016   3.134   5.038   2.343
59059SOL    HW279017   3.136   5.099   2.205
59060SOL     OW79018   8.892   1.488   4.921
59060SOL    HW179019   8.945   1.409   4.916
59060SOL    HW279020   8.823   1.468   4.985
59061SOL     OW79021  13.868   1.476   0.552
59061SOL    HW179022  13.802   1.506   0.489
59061SOL    HW279023  13.943   1.534   0.539
59062SOL     OW79024   5.331   8.889   8.573
59062SOL    HW179025   5.262   8.955   8.567
59062SOL    HW279026   5.291   8.817   8.621
59063SOL     OW79027   0.137  10.016   7.501
59063SOL    HW179028   0.047   9.987   7.514
59063SOL    HW279029   0.159   9.987   7.413
59064SOL     OW79030  14.797  13.604   6.815
59064SOL    HW179031  14.845  13.601   6.898
59064SOL    HW279032  14.810  13.518   6.777
59065SOL     OW79033   9.814   1.479   0.002
59065SOL    HW179034   9.903   1.453  14.855
59065SOL    HW279035   9.775   1.514  14.802
59066SOL     OW79036   1.668   4.464   9.887
59066SOL    HW179037   1.748   4.465   9.835
59066SOL    HW279038   1.679   4.534   9.951
59067SOL     OW79039   9.561   7.050   0.686
59067SOL    HW179040   9.598   6.969   0.651
59067SOL    HW279041   9.625   7.117   0.664
59068SOL     OW79042  10.369  10.879   3.492
59068SOL    HW179043  10.321  10.802   3.462
59068SOL    HW279044  10.334  10.951   3.440
59069SOL     OW79045   3.214   6.578   9.864
59069SOL    HW179046   3.168   6.657   9.892
59069SOL    HW279047   3.243   6.537   9.946
59070SOL     OW79048  10.924  13.075   8.216
59070SOL    HW179049  10.892  13.004   8.159
59070SOL    HW279050  10.851  13.138   8.218
59071SOL     OW79051  10.668   1.158  10.045
59071SOL    HW179052  10.684   1.104  10.122
59071SOL    HW279053  10.594   1.213  10.069
59072SOL     OW79054   2.540  10.018  12.965
59072SOL    HW179055   2.632  10.010  12.940
59072SOL    HW279056   2.513   9.929  12.987
59073SOL     OW79057  12.296   6.492   6.573
59073SOL    HW179058  12.383   6.489   6.533
59073SOL    HW279059  12.293   6.578   6.615
59074SOL     OW79060  14.620   9.742  12.368
59074SOL    HW179061  14.649   9.699  12.449
59074SOL    HW279062  14.525   9.730  12.367
59075SOL     OW79063   5.193   0.155   3.771
59075SOL    HW179064   5.209   0.125   3.682
59075SOL    HW279065   5.136   0.088   3.809
59076SOL     OW79066  11.100   4.654  10.581
59076SOL    HW179067  11.179   4.634  10.530
59076SOL    HW279068  11.132   4.686  10.665
59077SOL     OW79069   1.846   8.335   5.414
59077SOL    HW179070   1.827   8.429   5.416
59077SOL    HW279071   1.768   8.295   5.453
59078SOL     OW79072  13.789  11.041  12.175
59078SOL    HW179073  13.697  11.023  12.195
59078SOL    HW279074  13.835  11.023  12.257
59079SOL     OW79075   6.190  12.385   0.377
59079SOL    HW179076   6.153  12.332   0.448
59079SOL    HW279077   6.262  12.433   0.418
59080SOL     OW79078   3.008   3.549   3.585
59080SOL    HW179079   3.024   3.626   3.641
59080SOL    HW279080   3.048   3.573   3.501
59081SOL     OW79081   2.534   9.426   3.677
59081SOL    HW179082   2.539   9.477   3.757
59081SOL    HW279083   2.569   9.340   3.700
59082SOL     OW79084  13.192   8.304   6.239
59082SOL    HW179085  13.249   8.297   6.316
59082SOL    HW279086  13.244   8.272   6.166
59083SOL     OW79087   3.756   2.540  14.086
59083SOL    HW179088   3.809   2.497  14.153
59083SOL    HW279089   3.766   2.634  14.104
59084SOL     OW79090   8.215   3.177   8.578
59084SOL    HW179091   8.274   3.106   8.606
59084SOL    HW279092   8.137   3.133   8.546
59085SOL     OW79093   7.521   9.543   4.014
59085SOL    HW179094   7.531   9.615   3.952
59085SOL    HW279095   7.572   9.569   4.090
59086SOL     OW79096   0.506   3.279   7.960
59086SOL    HW179097   0.535   3.333   8.034
59086SOL    HW279098   0.412   3.269   7.974
59087SOL     OW79099   5.205  12.528   1.273
59087SOL    HW179100   5.181  12.455   1.216
59087SOL    HW279101   5.198  12.492   1.361
59088SOL     OW79102  12.124  11.143   3.004
59088SOL    HW179103  12.061  11.139   3.076
59088SOL    HW279104  12.073  11.123   2.926
59089SOL     OW79105  14.130  12.690  14.711
59089SOL    HW179106  14.082  12.759  14.755
59089SOL    HW279107  14.069  12.654  14.647
59090SOL     OW79108  10.571   1.246   1.362
59090SOL    HW179109  10.505   1.203   1.415
59090SOL    HW279110  10.607   1.176   1.307
59091SOL     OW79111  11.300   6.515   3.649
59091SOL    HW179112  11.300   6.538   3.742
59091SOL    HW279113  11.287   6.420   3.648
59092SOL     OW79114   2.951   9.601   7.958
59092SOL    HW179115   2.936   9.584   7.865
59092SOL    HW279116   2.973   9.515   7.994
59093SOL     OW79117  13.978  14.520   3.425
59093SOL    HW179118  13.929  14.561   3.354
59093SOL    HW279119  13.918  14.523   3.500
59094SOL     OW79120   9.126  14.018  11.850
59094SOL    HW179121   9.167  13.964  11.918
59094SOL    HW279122   9.099  14.098  11.896
59095SOL     OW79123  12.238  13.380   6.220
59095SOL    HW179124  12.318  13.334   6.246
59095SOL    HW279125  12.167  13.321   6.246
59096SOL     OW79126   3.275   1.652   6.245
59096SOL    HW179127   3.328   1.671   6.323
59096SOL    HW279128   3.291   1.725   6.186
59097SOL     OW79129   6.237  12.219   1.491
59097SOL    HW179130   6.193  12.191   1.411
59097SOL    HW279131   6.328  12.233   1.464
59098SOL     OW79132   9.417   9.293  12.792
59098SOL    HW179133   9.482   9.360  12.816
59098SOL    HW279134   9.339   9.343  12.768
59099SOL     OW79135   5.568   9.473   8.387
59099SOL    HW179136   5.503   9.411   8.355
59099SOL    HW279137   5.636   9.473   8.319
59100SOL     OW79138   0.313   0.207   7.029
59100SOL    HW179139   0.381   0.146   7.003
59100SOL    HW279140   0.357   0.291   7.039
59101SOL     OW79141   1.351   2.266  12.976
59101SOL    HW179142   1.303   2.347  12.993
59101SOL    HW279143   1.427   2.270  13.033
59102SOL     OW79144  13.370  10.453   3.002
59102SOL    HW179145  13.436  10.393   2.967
59102SOL    HW279146  13.371  10.438   3.096
59103SOL     OW79147   4.114   4.573   0.825
59103SOL    HW179148   4.133   4.581   0.732
59103SOL    HW279149   4.019   4.569   0.831
59104SOL     OW79150  13.359  12.861  10.127
59104SOL    HW179151  13.353  12.940  10.179
59104SOL    HW279152  13.420  12.805  10.174
59105SOL     OW79153   5.985   3.249   2.251
59105SOL    HW179154   5.937   3.179   2.208
59105SOL    HW279155   5.941   3.329   2.224
59106SOL     OW79156   8.186  12.829  10.190
59106SOL    HW179157   8.106  12.881  10.181
59106SOL    HW279158   8.200  12.791  10.103
59107SOL     OW79159   1.597   3.629  13.122
59107SOL    HW179160   1.546   3.555  13.090
59107SOL    HW279161   1.533   3.688  13.160
59108SOL     OW79162   3.397  14.018   3.291
59108SOL    HW179163   3.374  13.939   3.340
59108SOL    HW279164   3.476  14.050   3.332
59109SOL     OW79165  14.279  11.860  10.799
59109SOL    HW179166  14.203  11.843  10.743
59109SOL    HW279167  14.354  11.830  10.748
59110SOL     OW79168   2.271   9.694   5.810
59110SOL    HW179169   2.299   9.625   5.871
59110SOL    HW279170   2.339   9.761   5.816
59111SOL     OW79171  11.270   4.569  13.658
59111SOL    HW179172  11.306   4.547  13.572
59111SOL    HW279173  11.282   4.664  13.665
59112SOL     OW79174  10.271   3.034  11.045
59112SOL    HW179175  10.280   3.129  11.053
59112SOL    HW279176  10.178   3.017  11.062
59113SOL     OW79177   2.789  13.132  14.254
59113SOL    HW179178   2.873  13.106  14.292
59113SOL    HW279179   2.812  13.182  14.176
59114SOL     OW79180  12.504  11.571  12.028
59114SOL    HW179181  12.577  11.628  12.006
59114SOL    HW279182  12.504  11.567  12.124
59115SOL     OW79183   4.608   9.077  12.841
59115SOL    HW179184   4.579   9.148  12.899
59115SOL    HW279185   4.701   9.066  12.862
59116SOL     OW79186   7.439   9.561  12.541
59116SOL    HW179187   7.502   9.629  12.519
59116SOL    HW279188   7.386   9.598  12.612
59117SOL     OW79189   4.765  13.164   1.483
59117SOL    HW179190   4.827  13.214   1.537
59117SOL    HW279191   4.679  13.201   1.504
59118SOL     OW79192   0.536   8.011  10.645
59118SOL    HW179193   0.556   8.104  10.649
59118SOL    HW279194   0.452   8.002  10.689
59119SOL     OW79195   9.160   5.236  10.894
59119SOL    HW179196   9.084   5.265  10.844
59119SOL    HW279197   9.138   5.255  10.985
59120SOL     OW79198   8.671   3.532  12.281
59120SOL    HW179199   8.577   3.524  12.269
59120SOL    HW279200   8.693   3.617  12.244
59121SOL     OW79201   9.878  12.656  13.604
59121SOL    HW179202   9.798  12.617  13.639
59121SOL    HW279203   9.931  12.582  13.576
59122SOL     OW79204  10.110  10.413  10.452
59122SOL    HW179205  10.063  10.484  10.496
59122SOL    HW279206  10.148  10.454  10.375
59123SOL     OW79207  10.876   4.978   0.672
59123SOL    HW179208  10.846   4.894   0.706
59123SOL    HW279209  10.884   4.965   0.577
59124SOL     OW79210   7.801   7.460  13.178
59124SOL    HW179211   7.837   7.385  13.129
59124SOL    HW279212   7.735   7.422  13.236
59125SOL     OW79213  13.952   1.207   8.313
59125SOL    HW179214  14.006   1.237   8.386
59125SOL    HW279215  14.015   1.182   8.246
59126SOL     OW79216   1.930   1.435   2.695
59126SOL    HW179217   1.916   1.437   2.790
59126SOL    HW279218   1.841   1.429   2.658
59127SOL     OW79219  11.838   0.684   1.654
59127SOL    HW179220  11.893   0.758   1.678
59127SOL    HW279221  11.897   0.608   1.658
59128SOL     OW79222   9.985  12.965  13.808
59128SOL    HW179223  10.078  12.979  13.790
59128SOL    HW279224   9.974  12.870  13.811
59129SOL     OW79225   7.708  12.734   5.359
59129SOL    HW179226   7.653  12.811   5.345
59129SOL    HW279227   7.797  12.768   5.365
59130SOL     OW79228  13.064   2.133   3.796
59130SOL    HW179229  13.110   2.163   3.717
59130SOL    HW279230  13.127   2.148   3.867
59131SOL     OW79231   7.921  12.290   8.370
59131SOL    HW179232   7.882  12.299   8.457
59131SOL    HW279233   7.912  12.197   8.349
59132SOL     OW79234  13.639   4.171   9.364
59132SOL    HW179235  13.549   4.178   9.395
59132SOL    HW279236  13.633   4.185   9.270
59133SOL     OW79237   2.761   4.059   2.489
59133SOL    HW179238   2.676   4.101   2.492
59133SOL    HW279239   2.743   3.966   2.503
59134SOL     OW79240  10.050   1.423   6.405
59134SOL    HW179241  10.125   1.395   6.457
59134SOL    HW279242   9.998   1.477   6.464
59135SOL     OW79243   7.701  11.460   2.429
59135SOL    HW179244   7.775  11.400   2.417
59135SOL    HW279245   7.632  11.404   2.466
59136SOL     OW79246   2.546   9.839   6.910
59136SOL    HW179247   2.540   9.756   6.862
59136SOL    HW279248   2.616   9.888   6.866
59137SOL     OW79249  11.367   0.365   2.912
59137SOL    HW179250  11.293   0.374   2.972
59137SOL    HW279251  11.439   0.409   2.958
59138SOL     OW79252  11.041   1.766   7.070
59138SOL    HW179253  10.952   1.801   7.074
59138SOL    HW279254  11.098   1.840   7.092
59139SOL     OW79255   8.642   8.072   5.346
59139SOL    HW179256   8.595   8.117   5.276
59139SOL    HW279257   8.680   8.142   5.399
59140SOL     OW79258   5.307  11.512  11.589
59140SOL    HW179259   5.308  11.516  11.685
59140SOL    HW279260   5.245  11.442  11.568
59141SOL     OW79261   7.261  11.697  11.245
59141SOL    HW179262   7.180  11.745  11.229
59141SOL    HW279263   7.290  11.667  11.159
59142SOL     OW79264   0.553   5.572  11.055
59142SOL    HW179265   0.552   5.657  11.099
59142SOL    HW279266   0.639   5.536  11.076
59143SOL     OW79267  11.780   1.891   8.376
59143SOL    HW179268  11.780   1.987   8.374
59143SOL    HW279269  11.692   1.866   8.349
59144SOL     OW79270   1.455   1.318   1.579
59144SOL    HW179271   1.404   1.240   1.602
59144SOL    HW279272   1.389   1.386   1.564
59145SOL     OW79273  13.331   3.641  13.435
59145SOL    HW179274  13.337   3.549  13.411
59145SOL    HW279275  13.311   3.686  13.353
59146SOL     OW79276   7.014   2.601   0.748
59146SOL    HW179277   7.087   2.540   0.734
59146SOL    HW279278   6.953   2.553   0.803
59147SOL     OW79279  11.514  10.510   7.572
59147SOL    HW179280  11.426  10.472   7.573
59147SOL    HW279281  11.509  10.585   7.631
59148SOL     OW79282   0.403   6.589   6.821
59148SOL    HW179283   0.440   6.663   6.869
59148SOL    HW279284   0.475   6.526   6.814
59149SOL     OW79285   9.123   4.727   0.176
59149SOL    HW179286   9.219   4.726   0.169
59149SOL    HW279287   9.097   4.808   0.132
59150SOL     OW79288  14.464   4.657   9.407
59150SOL    HW179289  14.399   4.725   9.427
59150SOL    HW279290  14.528   4.702   9.352
59151SOL     OW79291  11.386   7.645  11.727
59151SOL    HW179292  11.311   7.703  11.730
59151SOL    HW279293  11.454   7.696  11.683
59152SOL     OW79294   8.485   8.139   1.122
59152SOL    HW179295   8.462   8.185   1.041
59152SOL    HW279296   8.566   8.093   1.102
59153SOL     OW79297  10.926   9.221  10.696
59153SOL    HW179298  10.992   9.151  10.695
59153SOL    HW279299  10.966   9.291  10.747
59154SOL     OW79300   2.115  13.580   2.440
59154SOL    HW179301   2.112  13.495   2.397
59154SOL    HW279302   2.041  13.628   2.404
59155SOL     OW79303   1.923  13.760  13.512
59155SOL    HW179304   1.875  13.827  13.560
59155SOL    HW279305   1.857  13.714  13.461
59156SOL     OW79306   8.416   7.884   6.641
59156SOL    HW179307   8.332   7.910   6.603
59156SOL    HW279308   8.479   7.948   6.609
59157SOL     OW79309  10.674  11.677   4.837
59157SOL    HW179310  10.709  11.735   4.770
59157SOL    HW279311  10.580  11.678   4.823
59158SOL     OW79312  11.371   7.589  13.512
59158SOL    HW179313  11.396   7.597  13.420
59158SOL    HW279314  11.327   7.504  13.517
59159SOL     OW79315   7.975   8.684  14.802
59159SOL    HW179316   7.897   8.654  14.756
59159SOL    HW279317   8.045   8.679  14.737
59160SOL     OW79318   6.930   3.765   6.911
59160SOL    HW179319   6.881   3.714   6.847
59160SOL    HW279320   6.866   3.786   6.979
59161SOL     OW79321   5.391   3.491   8.434
59161SOL    HW179322   5.333   3.554   8.391
59161SOL    HW279323   5.341   3.409   8.432
59162SOL     OW79324   0.507   8.208   8.344
59162SOL    HW179325   0.524   8.270   8.273
59162SOL    HW279326   0.573   8.139   8.332
59163SOL     OW79327   0.733   5.150   0.815
59163SOL    HW179328   0.677   5.139   0.891
59163SOL    HW279329   0.800   5.082   0.824
59164SOL     OW79330  12.255  11.948   0.983
59164SOL    HW179331  12.223  11.957   1.073
59164SOL    HW279332  12.295  11.861   0.981
59165SOL     OW79333   6.222  13.969  11.937
59165SOL    HW179334   6.190  14.059  11.928
59165SOL    HW279335   6.260  13.967  12.025
59166SOL     OW79336   2.315  13.965   9.595
59166SOL    HW179337   2.318  13.920   9.679
59166SOL    HW279338   2.326  14.058   9.618
59167SOL     OW79339   5.488  10.668   3.682
59167SOL    HW179340   5.533  10.674   3.767
59167SOL    HW279341   5.520  10.743   3.633
59168SOL     OW79342   2.445   9.214  14.529
59168SOL    HW179343   2.440   9.305  14.498
59168SOL    HW279344   2.534   9.186  14.507
59169SOL     OW79345   5.041  12.991   6.305
59169SOL    HW179346   5.112  13.025   6.251
59169SOL    HW279347   5.055  13.030   6.391
59170SOL     OW79348   2.083   7.310   2.870
59170SOL    HW179349   2.008   7.368   2.855
59170SOL    HW279350   2.134   7.355   2.937
59171SOL     OW79351   5.730  11.226  10.801
59171SOL    HW179352   5.689  11.253  10.719
59171SOL    HW279353   5.824  11.236  10.784
59172SOL     OW79354   7.667   8.342  12.173
59172SOL    HW179355   7.642   8.351  12.265
59172SOL    HW279356   7.747   8.289  12.175
59173SOL     OW79357   0.710   9.607   0.536
59173SOL    HW179358   0.656   9.569   0.606
59173SOL    HW279359   0.689   9.555   0.459
59174SOL     OW79360  14.037   7.912  12.278
59174SOL    HW179361  13.955   7.901  12.230
59174SOL    HW279362  14.010   7.936  12.367
59175SOL     OW79363   4.117   8.343   9.597
59175SOL    HW179364   4.077   8.309   9.677
59175SOL    HW279365   4.211   8.327   9.609
59176SOL     OW79366   5.769   3.438   8.221
59176SOL    HW179367   5.849   3.481   8.190
59176SOL    HW279368   5.705   3.453   8.151
59177SOL     OW79369  10.108  11.518  10.935
59177SOL    HW179370  10.124  11.513  10.840
59177SOL    HW279371  10.063  11.436  10.956
59178SOL     OW79372   9.037  12.567   1.786
59178SOL    HW179373   9.097  12.538   1.717
59178SOL    HW279374   9.010  12.486   1.829
59179SOL     OW79375   2.884   9.774  11.811
59179SOL    HW179376   2.862   9.866  11.818
59179SOL    HW279377   2.968   9.772  11.764
59180SOL     OW79378   3.955  13.171   6.975
59180SOL    HW179379   4.024  13.232   7.001
59180SOL    HW279380   3.880  13.196   7.029
59181SOL     OW79381   5.671   4.461   9.203
59181SOL    HW179382   5.742   4.519   9.177
59181SOL    HW279383   5.607   4.468   9.132
59182SOL     OW79384  14.602   0.186  12.806
59182SOL    HW179385  14.673   0.183  12.742
59182SOL    HW279386  14.637   0.240  12.877
59183SOL     OW79387  13.212   9.411   7.314
59183SOL    HW179388  13.242   9.353   7.384
59183SOL    HW279389  13.284   9.413   7.251
59184SOL     OW79390   8.345  13.002   6.860
59184SOL    HW179391   8.438  13.011   6.840
59184SOL    HW279392   8.335  13.043   6.946
59185SOL     OW79393   0.829   2.480   4.790
59185SOL    HW179394   0.808   2.400   4.839
59185SOL    HW279395   0.899   2.521   4.841
59186SOL     OW79396   0.801  14.572   7.089
59186SOL    HW179397   0.739  14.499   7.084
59186SOL    HW279398   0.836  14.567   7.178
59187SOL     OW79399  12.851   4.536   2.535
59187SOL    HW179400  12.929   4.499   2.495
59187SOL    HW279401  12.779   4.481   2.504
59188SOL     OW79402   5.377  12.532  12.376
59188SOL    HW179403   5.368  12.497  12.287
59188SOL    HW279404   5.423  12.463  12.425
59189SOL     OW79405  10.360  10.531   5.906
59189SOL    HW179406  10.394  10.481   5.832
59189SOL    HW279407  10.347  10.619   5.871
59190SOL     OW79408   3.551  10.666  10.660
59190SOL    HW179409   3.620  10.676  10.594
59190SOL    HW279410   3.503  10.749  10.657
59191SOL     OW79411   5.842  10.670  13.368
59191SOL    HW179412   5.864  10.642  13.457
59191SOL    HW279413   5.848  10.590  13.316
59192SOL     OW79414   2.928   5.062   1.387
59192SOL    HW179415   2.936   5.158   1.381
59192SOL    HW279416   3.018   5.031   1.392
59193SOL     OW79417  10.550   7.527   3.522
59193SOL    HW179418  10.642   7.518   3.546
59193SOL    HW279419  10.513   7.440   3.534
59194SOL     OW79420   6.431  10.649  14.375
59194SOL    HW179421   6.419  10.687  14.288
59194SOL    HW279422   6.392  10.714  14.435
59195SOL     OW79423   6.085  11.045  13.353
59195SOL    HW179424   6.110  10.992  13.277
59195SOL    HW279425   6.054  11.127  13.315
59196SOL     OW79426   6.908   9.794  13.073
59196SOL    HW179427   6.816   9.777  13.056
59196SOL    HW279428   6.954   9.759  12.997
59197SOL     OW79429   7.294   7.753   5.526
59197SOL    HW179430   7.256   7.676   5.484
59197SOL    HW279431   7.327   7.807   5.454
59198SOL     OW79432  13.542   1.579   5.881
59198SOL    HW179433  13.629   1.608   5.908
59198SOL    HW279434  13.508   1.533   5.958
59199SOL     OW79435   3.155  12.807   2.360
59199SOL    HW179436   3.235  12.754   2.354
59199SOL    HW279437   3.163  12.871   2.290
59200SOL     OW79438  14.438   4.674  14.470
59200SOL    HW179439  14.488   4.737  14.523
59200SOL    HW279440  14.411   4.724  14.393
59201SOL     OW79441  12.242   6.652   5.684
59201SOL    HW179442  12.304   6.660   5.756
59201SOL    HW279443  12.162   6.618   5.724
59202SOL     OW79444   2.107  12.403  10.794
59202SOL    HW179445   2.100  12.472  10.728
59202SOL    HW279446   2.146  12.329  10.747
59203SOL     OW79447   8.454  11.744  10.112
59203SOL    HW179448   8.405  11.662  10.123
59203SOL    HW279449   8.497  11.735  10.026
59204SOL     OW79450   6.543  13.826   1.840
59204SOL    HW179451   6.572  13.818   1.749
59204SOL    HW279452   6.604  13.771   1.889
59205SOL     OW79453   6.249   6.494   1.857
59205SOL    HW179454   6.263   6.498   1.951
59205SOL    HW279455   6.328   6.452   1.822
59206SOL     OW79456   8.673   4.321  10.310
59206SOL    HW179457   8.642   4.402  10.351
59206SOL    HW279458   8.594   4.271  10.293
59207SOL     OW79459  13.090   4.804   6.387
59207SOL    HW179460  13.112   4.862   6.460
59207SOL    HW279461  13.068   4.863   6.315
59208SOL     OW79462   3.328   5.944  11.465
59208SOL    HW179463   3.399   5.883  11.488
59208SOL    HW279464   3.300   5.916  11.378
59209SOL     OW79465  13.411  12.503  11.375
59209SOL    HW179466  13.480  12.475  11.435
59209SOL    HW279467  13.415  12.441  11.302
59210SOL     OW79468   7.936   3.458   4.947
59210SOL    HW179469   7.934   3.368   4.978
59210SOL    HW279470   8.009   3.498   4.994
59211SOL     OW79471   7.810   7.240   1.343
59211SOL    HW179472   7.862   7.160   1.338
59211SOL    HW279473   7.763   7.233   1.426
59212SOL     OW79474  14.038  12.992   2.775
59212SOL    HW179475  14.087  13.055   2.829
59212SOL    HW279476  14.023  13.037   2.693
59213SOL     OW79477   4.097   4.151   6.006
59213SOL    HW179478   4.066   4.139   6.095
59213SOL    HW279479   4.168   4.087   5.996
59214SOL     OW79480  12.260   8.488  14.796
59214SOL    HW179481  12.207   8.567  14.783
59214SOL    HW279482  12.220   8.444  14.871
59215SOL     OW79483   1.236  10.906  14.293
59215SOL    HW179484   1.254  10.826  14.343
59215SOL    HW279485   1.287  10.897  14.213
59216SOL     OW79486  10.147   0.285   9.628
59216SOL    HW179487  10.066   0.242   9.653
59216SOL    HW279488  10.123   0.342   9.554
59217SOL     OW79489   4.584  13.341   1.580
59217SOL    HW179490   4.631  13.416   1.617
59217SOL    HW279491   4.494  13.350   1.614
59218SOL     OW79492  10.786   7.728   9.565
59218SOL    HW179493  10.762   7.662   9.629
59218SOL    HW279494  10.706   7.746   9.516
59219SOL     OW79495   0.682   3.476   2.625
59219SOL    HW179496   0.727   3.451   2.706
59219SOL    HW279497   0.737   3.442   2.555
59220SOL     OW79498   7.694   5.965  10.480
59220SOL    HW179499   7.619   6.022  10.462
59220SOL    HW279500   7.655   5.880  10.501
59221SOL     OW79501   0.091  10.180  10.472
59221SOL    HW179502   0.008  10.132  10.460
59221SOL    HW279503   0.074  10.267  10.437
59222SOL     OW79504   7.321   2.936  11.467
59222SOL    HW179505   7.282   2.854  11.437
59222SOL    HW279506   7.293   2.943  11.558
59223SOL     OW79507  12.950   6.945   0.092
59223SOL    HW179508  12.901   7.026   0.106
59223SOL    HW279509  12.945   6.899   0.175
59224SOL     OW79510   9.374   1.081  11.849
59224SOL    HW179511   9.449   1.025  11.870
59224SOL    HW279512   9.301   1.020  11.837
59225SOL     OW79513  14.750   7.010   8.007
59225SOL    HW179514  14.794   7.069   7.946
59225SOL    HW279515  14.820   6.957   8.044
59226SOL     OW79516   5.488   2.179  14.505
59226SOL    HW179517   5.481   2.245  14.574
59226SOL    HW279518   5.576   2.191  14.469
59227SOL     OW79519  13.736  10.200   9.196
59227SOL    HW179520  13.766  10.246   9.117
59227SOL    HW279521  13.685  10.126   9.162
59228SOL     OW79522   4.424   6.128  14.025
59228SOL    HW179523   4.427   6.202  14.085
59228SOL    HW279524   4.368   6.157  13.953
59229SOL     OW79525   8.593  14.028   3.503
59229SOL    HW179526   8.528  14.083   3.548
59229SOL    HW279527   8.555  14.013   3.416
59230SOL     OW79528   1.033  10.132   9.149
59230SOL    HW179529   1.048  10.227   9.150
59230SOL    HW279530   1.117  10.094   9.172
59231SOL     OW79531  13.897   4.539  14.266
59231SOL    HW179532  13.828   4.527  14.201
59231SOL    HW279533  13.852   4.570  14.344
59232SOL     OW79534  10.788   7.926  13.817
59232SOL    HW179535  10.704   7.947  13.777
59232SOL    HW279536  10.831   7.869  13.753
59233SOL     OW79537   5.129  11.741  13.453
59233SOL    HW179538   5.118  11.834  13.474
59233SOL    HW279539   5.130  11.738  13.358
59234SOL     OW79540   4.443   5.705   8.847
59234SOL    HW179541   4.452   5.738   8.936
59234SOL    HW279542   4.529   5.666   8.828
59235SOL     OW79543   3.738  12.656   8.435
59235SOL    HW179544   3.649  12.690   8.425
59235SOL    HW279545   3.733  12.564   8.411
59236SOL     OW79546  13.745   7.937   0.266
59236SOL    HW179547  13.675   7.891   0.220
59236SOL    HW279548  13.803   7.868   0.297
59237SOL     OW79549   8.585   8.365   9.657
59237SOL    HW179550   8.523   8.347   9.728
59237SOL    HW279551   8.624   8.280   9.638
59238SOL     OW79552  11.108   4.381   9.910
59238SOL    HW179553  11.155   4.445   9.962
59238SOL    HW279554  11.143   4.391   9.822
59239SOL     OW79555   3.257   3.437   1.612
59239SOL    HW179556   3.297   3.407   1.694
59239SOL    HW279557   3.263   3.362   1.553
59240SOL     OW79558   8.315   1.927   6.007
59240SOL    HW179559   8.335   1.909   5.915
59240SOL    HW279560   8.400   1.952   6.044
59241SOL     OW79561  13.062  10.939   3.897
59241SOL    HW179562  13.103  11.021   3.870
59241SOL    HW279563  13.057  10.886   3.818
59242SOL     OW79564  14.453   6.471   1.380
59242SOL    HW179565  14.457   6.562   1.409
59242SOL    HW279566  14.522   6.427   1.429
59243SOL     OW79567   7.234   1.591   0.373
59243SOL    HW179568   7.270   1.668   0.330
59243SOL    HW279569   7.185   1.626   0.447
59244SOL     OW79570  13.114   9.764   3.810
59244SOL    HW179571  13.023   9.734   3.806
59244SOL    HW279572  13.155   9.704   3.872
59245SOL     OW79573   8.769   9.613   3.622
59245SOL    HW179574   8.736   9.677   3.685
59245SOL    HW279575   8.815   9.548   3.675
59246SOL     OW79576   5.234   0.463   7.204
59246SOL    HW179577   5.210   0.423   7.121
59246SOL    HW279578   5.321   0.426   7.224
59247SOL     OW79579  10.534   1.955   4.532
59247SOL    HW179580  10.551   2.002   4.614
59247SOL    HW279581  10.439   1.958   4.522
59248SOL     OW79582   5.541   7.137   2.671
59248SOL    HW179583   5.611   7.197   2.643
59248SOL    HW279584   5.581   7.050   2.666
59249SOL     OW79585   2.671  13.130  13.423
59249SOL    HW179586   2.683  13.191  13.350
59249SOL    HW279587   2.629  13.183  13.491
59250SOL     OW79588  12.816   3.745  13.556
59250SOL    HW179589  12.836   3.827  13.602
59250SOL    HW279590  12.900   3.700  13.550
59251SOL     OW79591   9.674  11.320  14.494
59251SOL    HW179592   9.655  11.402  14.449
59251SOL    HW279593   9.755  11.288  14.454
59252SOL     OW79594   0.778  13.168  12.053
59252SOL    HW179595   0.764  13.077  12.029
59252SOL    HW279596   0.690  13.205  12.062
59253SOL     OW79597  10.952   0.483  13.996
59253SOL    HW179598  10.945   0.396  14.033
59253SOL    HW279599  10.970   0.469  13.903
59254SOL     OW79600   6.875   7.723   4.499
59254SOL    HW179601   6.942   7.791   4.509
59254SOL    HW279602   6.794   7.771   4.485
59255SOL     OW79603  13.107   8.710  11.232
59255SOL    HW179604  13.162   8.703  11.309
59255SOL    HW279605  13.096   8.804  11.218
59256SOL     OW79606   8.978   2.070  12.200
59256SOL    HW179607   9.051   2.019  12.166
59256SOL    HW279608   8.966   2.038  12.290
59257SOL     OW79609   8.235   9.845  14.590
59257SOL    HW179610   8.246   9.791  14.668
59257SOL    HW279611   8.166   9.801  14.540
59258SOL     OW79612   7.818  10.376  14.812
59258SOL    HW179613   7.745  10.402  14.756
59258SOL    HW279614   7.842  10.289  14.782
59259SOL     OW79615   7.122  14.849  12.931
59259SOL    HW179616   7.084   0.042  12.981
59259SOL    HW279617   7.065  14.774  12.949
59260SOL     OW79618   0.125   0.134   5.275
59260SOL    HW179619   0.117   0.043   5.246
59260SOL    HW279620   0.180   0.129   5.353
59261SOL     OW79621  12.627   6.233   5.354
59261SOL    HW179622  12.646   6.162   5.293
59261SOL    HW279623  12.711   6.277   5.367
59262SOL     OW79624  14.072   5.179   4.452
59262SOL    HW179625  13.981   5.200   4.431
59262SOL    HW279626  14.067   5.100   4.506
59263SOL     OW79627   2.962   5.787   8.529
59263SOL    HW179628   3.011   5.759   8.606
59263SOL    HW279629   2.900   5.852   8.562
59264SOL     OW79630   4.686  10.477   0.935
59264SOL    HW179631   4.738  10.411   0.888
59264SOL    HW279632   4.704  10.460   1.028
59265SOL     OW79633   3.879   5.233  12.971
59265SOL    HW179634   3.793   5.263  12.943
59265SOL    HW279635   3.932   5.313  12.975
59266SOL     OW79636   6.419   3.861  11.620
59266SOL    HW179637   6.439   3.885  11.710
59266SOL    HW279638   6.324   3.868  11.614
59267SOL     OW79639  14.299   6.624   7.158
59267SOL    HW179640  14.276   6.600   7.068
59267SOL    HW279641  14.290   6.542   7.207
59268SOL     OW79642   1.436   3.558  13.529
59268SOL    HW179643   1.432   3.514  13.444
59268SOL    HW279644   1.421   3.489  13.593
59269SOL     OW79645   1.422   8.009  14.868
59269SOL    HW179646   1.482   8.075  14.833
59269SOL    HW279647   1.472   7.927  14.867
59270SOL     OW79648   4.506  10.023   0.049
59270SOL    HW179649   4.434  10.063  14.879
59270SOL    HW279650   4.584  10.069   0.020
59271SOL     OW79651   1.423   4.085  13.362
59271SOL    HW179652   1.367   4.063  13.436
59271SOL    HW279653   1.489   4.016  13.361
59272SOL     OW79654  12.587   5.439   8.121
59272SOL    HW179655  12.666   5.491   8.136
59272SOL    HW279656  12.613   5.375   8.055
59273SOL     OW79657  10.771   5.621   7.787
59273SOL    HW179658  10.703   5.684   7.763
59273SOL    HW279659  10.730   5.535   7.775
59274SOL     OW79660  11.561   3.091   0.763
59274SOL    HW179661  11.471   3.121   0.749
59274SOL    HW279662  11.596   3.077   0.675
59275SOL     OW79663  13.565   7.037   4.867
59275SOL    HW179664  13.548   7.079   4.783
59275SOL    HW279665  13.603   6.952   4.844
59276SOL     OW79666   1.762   2.202   6.809
59276SOL    HW179667   1.818   2.250   6.748
59276SOL    HW279668   1.712   2.142   6.754
59277SOL     OW79669   1.470   8.470  13.968
59277SOL    HW179670   1.535   8.536  13.944
59277SOL    HW279671   1.502   8.435  14.051
59278SOL     OW79672   7.675  14.254   1.161
59278SOL    HW179673   7.747  14.314   1.182
59278SOL    HW279674   7.643  14.286   1.076
59279SOL     OW79675   1.788  11.917   3.633
59279SOL    HW179676   1.799  11.940   3.541
59279SOL    HW279677   1.694  11.924   3.649
59280SOL     OW79678  10.480   4.132   8.140
59280SOL    HW179679  10.517   4.211   8.179
59280SOL    HW279680  10.554   4.088   8.099
59281SOL     OW79681   0.144   6.462   6.710
59281SOL    HW179682   0.170   6.424   6.627
59281SOL    HW279683   0.224   6.464   6.763
59282SOL     OW79684  11.342   4.919   0.037
59282SOL    HW179685  11.382   4.901  14.831
59282SOL    HW279686  11.402   4.980   0.079
59283SOL     OW79687   8.753  10.966  13.211
59283SOL    HW179688   8.688  11.011  13.266
59283SOL    HW279689   8.728  10.874  13.216
59284SOL     OW79690  11.123  14.531   2.560
59284SOL    HW179691  11.194  14.479   2.524
59284SOL    HW279692  11.062  14.466   2.596
59285SOL     OW79693   4.699  12.057  10.698
59285SOL    HW179694   4.656  12.099  10.623
59285SOL    HW279695   4.679  12.114  10.772
59286SOL     OW79696   3.206   7.368  11.325
59286SOL    HW179697   3.298   7.393  11.319
59286SOL    HW279698   3.183   7.387  11.416
59287SOL     OW79699   7.479  12.971   5.054
59287SOL    HW179700   7.509  12.884   5.029
59287SOL    HW279701   7.396  12.982   5.008
59288SOL     OW79702   1.992  10.096   3.274
59288SOL    HW179703   1.951  10.180   3.297
59288SOL    HW279704   2.079  10.100   3.315
59289SOL     OW79705  13.045   6.675   9.776
59289SOL    HW179706  13.046   6.771   9.780
59289SOL    HW279707  13.120   6.652   9.722
59290SOL     OW79708   6.892   3.535   2.750
59290SOL    HW179709   6.832   3.481   2.801
59290SOL    HW279710   6.916   3.481   2.675
59291SOL     OW79711   3.273  11.204   0.968
59291SOL    HW179712   3.209  11.141   1.001
59291SOL    HW279713   3.221  11.264   0.915
59292SOL     OW79714   3.125  14.086   3.304
59292SOL    HW179715   3.092  14.031   3.375
59292SOL    HW279716   3.221  14.078   3.309
59293SOL     OW79717   8.182  14.262  13.764
59293SOL    HW179718   8.255  14.201  13.774
59293SOL    HW279719   8.112  14.225  13.818
59294SOL     OW79720   2.687   4.276   6.326
59294SOL    HW179721   2.622   4.335   6.364
59294SOL    HW279722   2.710   4.216   6.398
59295SOL     OW79723   7.804  11.952   0.260
59295SOL    HW179724   7.781  11.981   0.349
59295SOL    HW279725   7.723  11.960   0.210
59296SOL     OW79726   8.139  10.184  10.415
59296SOL    HW179727   8.202  10.166  10.485
59296SOL    HW279728   8.155  10.115  10.351
59297SOL     OW79729   6.459   1.323   0.539
59297SOL    HW179730   6.407   1.260   0.488
59297SOL    HW279731   6.419   1.322   0.626
59298SOL     OW79732   1.796   9.624  14.508
59298SOL    HW179733   1.702   9.631  14.491
59298SOL    HW279734   1.806   9.652  14.599
59299SOL     OW79735  13.110  12.273   4.547
59299SOL    HW179736  13.143  12.196   4.502
59299SOL    HW279737  13.159  12.346   4.509
59300SOL     OW79738   5.827   3.451   4.638
59300SOL    HW179739   5.751   3.460   4.694
59300SOL    HW279740   5.902   3.463   4.696
59301SOL     OW79741   9.020  12.287   1.885
59301SOL    HW179742   9.089  12.222   1.870
59301SOL    HW279743   8.949  12.260   1.827
59302SOL     OW79744   9.322   6.621  14.518
59302SOL    HW179745   9.230   6.623  14.545
59302SOL    HW279746   9.355   6.708  14.539
59303SOL     OW79747   4.238   9.658   7.045
59303SOL    HW179748   4.280   9.592   6.989
59303SOL    HW279749   4.306   9.682   7.109
59304SOL     OW79750   0.125  12.534  13.591
59304SOL    HW179751   0.200  12.476  13.579
59304SOL    HW279752   0.157  12.621  13.566
59305SOL     OW79753   8.462   5.028   5.906
59305SOL    HW179754   8.389   4.991   5.954
59305SOL    HW279755   8.457   4.989   5.819
59306SOL     OW79756   8.687  14.824   9.401
59306SOL    HW179757   8.613  14.838   9.460
59306SOL    HW279758   8.748   0.016   9.421
59307SOL     OW79759  13.118  12.778   6.866
59307SOL    HW179760  13.078  12.822   6.791
59307SOL    HW279761  13.140  12.848   6.927
59308SOL     OW79762   9.030   0.740   9.911
59308SOL    HW179763   8.964   0.708   9.850
59308SOL    HW279764   8.980   0.777   9.984
59309SOL     OW79765   3.281   2.087   0.045
59309SOL    HW179766   3.304   2.109   0.135
59309SOL    HW279767   3.295   1.993   0.039
59310SOL     OW79768   3.901  10.346   7.992
59310SOL    HW179769   3.975  10.363   7.934
59310SOL    HW279770   3.934  10.364   8.080
59311SOL     OW79771  14.024   1.420  11.427
59311SOL    HW179772  14.070   1.363  11.488
59311SOL    HW279773  13.962   1.363  11.383
59312SOL     OW79774   0.863  12.963   7.310
59312SOL    HW179775   0.889  12.995   7.224
59312SOL    HW279776   0.935  12.906   7.337
59313SOL     OW79777  10.750  10.239   8.980
59313SOL    HW179778  10.693  10.185   9.035
59313SOL    HW279779  10.820  10.267   9.040
59314SOL     OW79780   1.691  11.456   9.406
59314SOL    HW179781   1.737  11.402   9.469
59314SOL    HW279782   1.682  11.541   9.449
59315SOL     OW79783  12.055  12.678   9.061
59315SOL    HW179784  12.148  12.659   9.047
59315SOL    HW279785  12.014  12.660   8.976
59316SOL     OW79786   4.742   3.304   9.823
59316SOL    HW179787   4.811   3.258   9.777
59316SOL    HW279788   4.784   3.341   9.900
59317SOL     OW79789   0.444  10.543  12.493
59317SOL    HW179790   0.364  10.497  12.468
59317SOL    HW279791   0.413  10.623  12.536
59318SOL     OW79792   1.699  14.122   9.075
59318SOL    HW179793   1.612  14.142   9.109
59318SOL    HW279794   1.754  14.195   9.106
59319SOL     OW79795   6.401  10.783  13.765
59319SOL    HW179796   6.319  10.761  13.810
59319SOL    HW279797   6.431  10.701  13.727
59320SOL     OW79798   6.717   0.652   6.523
59320SOL    HW179799   6.650   0.617   6.466
59320SOL    HW279800   6.789   0.677   6.464
59321SOL     OW79801   9.741   1.260   4.300
59321SOL    HW179802   9.782   1.182   4.338
59321SOL    HW279803   9.648   1.238   4.297
59322SOL     OW79804   4.853   3.402  11.819
59322SOL    HW179805   4.841   3.335  11.887
59322SOL    HW279806   4.765   3.415  11.784
59323SOL     OW79807   4.738  13.558   7.342
59323SOL    HW179808   4.766  13.561   7.251
59323SOL    HW279809   4.698  13.644   7.358
59324SOL     OW79810   3.643   7.876   3.969
59324SOL    HW179811   3.637   7.849   4.061
59324SOL    HW279812   3.709   7.818   3.931
59325SOL     OW79813   4.123   6.458  13.180
59325SOL    HW179814   4.177   6.388  13.218
59325SOL    HW279815   4.058   6.477  13.248
59326SOL     OW79816  11.050  11.193   2.078
59326SOL    HW179817  11.073  11.285   2.068
59326SOL    HW279818  10.957  11.189   2.057
59327SOL     OW79819   7.394  10.389   2.413
59327SOL    HW179820   7.381  10.439   2.332
59327SOL    HW279821   7.390  10.297   2.384
59328SOL     OW79822   2.287   8.999  10.456
59328SOL    HW179823   2.316   8.998  10.548
59328SOL    HW279824   2.282   8.906  10.432
59329SOL     OW79825   3.490   1.681   0.825
59329SOL    HW179826   3.495   1.649   0.915
59329SOL    HW279827   3.554   1.628   0.777
59330SOL     OW79828   2.182  12.583  12.652
59330SOL    HW179829   2.268  12.542  12.646
59330SOL    HW279830   2.155  12.594  12.561
59331SOL     OW79831   7.097   4.923  13.614
59331SOL    HW179832   7.183   4.963  13.606
59331SOL    HW279833   7.085   4.909  13.708
59332SOL     OW79834  12.585   6.127   0.354
59332SOL    HW179835  12.497   6.091   0.357
59332SOL    HW279836  12.642   6.055   0.382
59333SOL     OW79837   3.181  13.919  10.830
59333SOL    HW179838   3.091  13.930  10.861
59333SOL    HW279839   3.207  13.832  10.862
59334SOL     OW79840  12.153   8.663   7.470
59334SOL    HW179841  12.058   8.666   7.479
59334SOL    HW279842  12.182   8.613   7.546
59335SOL     OW79843   0.008  13.843   8.495
59335SOL    HW179844   0.098  13.813   8.504
59335SOL    HW279845  14.873  13.851   8.401
59336SOL     OW79846   5.889   6.878   4.615
59336SOL    HW179847   5.852   6.797   4.649
59336SOL    HW279848   5.898   6.935   4.692
59337SOL     OW79849  12.091   2.379  13.434
59337SOL    HW179850  12.008   2.358  13.477
59337SOL    HW279851  12.080   2.469  13.403
59338SOL     OW79852   7.518   3.308  10.015
59338SOL    HW179853   7.547   3.399  10.015
59338SOL    HW279854   7.559   3.270  10.094
59339SOL     OW79855  11.684   3.605   2.701
59339SOL    HW179856  11.700   3.566   2.615
59339SOL    HW279857  11.730   3.689   2.699
59340SOL     OW79858  12.290   5.088   4.780
59340SOL    HW179859  12.292   5.043   4.696
59340SOL    HW279860  12.200   5.078   4.811
59341SOL     OW79861   7.723   3.509   5.640
59341SOL    HW179862   7.685   3.493   5.553
59341SOL    HW279863   7.678   3.446   5.697
59342SOL     OW79864   7.443   0.556   6.708
59342SOL    HW179865   7.485   0.475   6.737
59342SOL    HW279866   7.352   0.532   6.692
59343SOL     OW79867  13.247   3.963   1.525
59343SOL    HW179868  13.282   3.916   1.450
59343SOL    HW279869  13.255   3.901   1.598
59344SOL     OW79870  14.492  10.856   5.286
59344SOL    HW179871  14.486  10.780   5.345
59344SOL    HW279872  14.401  10.872   5.259
59345SOL     OW79873   4.691  11.555   1.439
59345SOL    HW179874   4.662  11.500   1.512
59345SOL    HW279875   4.759  11.503   1.396
59346SOL     OW79876   0.473  14.170   8.489
59346SOL    HW179877   0.498  14.126   8.407
59346SOL    HW279878   0.395  14.124   8.518
59347SOL     OW79879   6.821  12.222  13.273
59347SOL    HW179880   6.763  12.148  13.256
59347SOL    HW279881   6.818  12.234  13.368
59348SOL     OW79882  12.625   6.648  10.288
59348SOL    HW179883  12.697   6.631  10.349
59348SOL    HW279884  12.561   6.579  10.306
59349SOL     OW79885   0.352  10.447  14.760
59349SOL    HW179886   0.337  10.434  14.667
59349SOL    HW279887   0.411  10.376  14.785
59350SOL     OW79888   1.542   9.651  11.471
59350SOL    HW179889   1.490   9.598  11.532
59350SOL    HW279890   1.532   9.607  11.386
59351SOL     OW79891  13.752   4.836   8.052
59351SOL    HW179892  13.701   4.909   8.089
59351SOL    HW279893  13.800   4.801   8.127
59352SOL     OW79894   5.098   1.950   4.938
59352SOL    HW179895   5.192   1.967   4.937
59352SOL    HW279896   5.089   1.863   4.976
59353SOL     OW79897   4.895   1.479  10.273
59353SOL    HW179898   4.965   1.425  10.235
59353SOL    HW279899   4.903   1.563  10.229
59354SOL     OW79900   6.999  13.399   8.406
59354SOL    HW179901   6.938  13.461   8.445
59354SOL    HW279902   6.976  13.397   8.313
59355SOL     OW79903   9.380   1.941   0.489
59355SOL    HW179904   9.445   1.924   0.558
59355SOL    HW279905   9.380   2.036   0.480
59356SOL     OW79906  13.493   9.266   9.272
59356SOL    HW179907  13.565   9.238   9.329
59356SOL    HW279908  13.528   9.257   9.183
59357SOL     OW79909   6.073   6.860   9.590
59357SOL    HW179910   6.066   6.870   9.495
59357SOL    HW279911   5.992   6.900   9.623
59358SOL     OW79912   1.842   4.299   0.002
59358SOL    HW179913   1.763   4.312  14.827
59358SOL    HW279914   1.868   4.208  14.862
59359SOL     OW79915   8.681   6.329   4.163
59359SOL    HW179916   8.754   6.302   4.108
59359SOL    HW279917   8.716   6.331   4.252
59360SOL     OW79918   9.730   1.910  14.476
59360SOL    HW179919   9.661   1.952  14.425
59360SOL    HW279920   9.772   1.849  14.414
59361SOL     OW79921  10.527   3.785  12.779
59361SOL    HW179922  10.507   3.870  12.818
59361SOL    HW279923  10.489   3.721  12.839
59362SOL     OW79924   3.622   1.182   3.583
59362SOL    HW179925   3.556   1.206   3.518
59362SOL    HW279926   3.684   1.127   3.535
59363SOL     OW79927   7.524   7.586   9.025
59363SOL    HW179928   7.610   7.613   9.057
59363SOL    HW279929   7.537   7.495   8.997
59364SOL     OW79930   9.499  10.454  11.530
59364SOL    HW179931   9.558  10.480  11.601
59364SOL    HW279932   9.443  10.530  11.516
59365SOL     OW79933   3.469  10.514   1.126
59365SOL    HW179934   3.485  10.463   1.046
59365SOL    HW279935   3.392  10.473   1.165
59366SOL     OW79936  12.050  11.545   2.232
59366SOL    HW179937  12.080  11.627   2.271
59366SOL    HW279938  12.008  11.497   2.304
59367SOL     OW79939  14.290  12.003   3.808
59367SOL    HW179940  14.277  11.909   3.817
59367SOL    HW279941  14.369  12.021   3.859
59368SOL     OW79942   1.010   3.507   0.308
59368SOL    HW179943   0.935   3.545   0.354
59368SOL    HW279944   1.002   3.540   0.219
59369SOL     OW79945   4.283  10.997  13.962
59369SOL    HW179946   4.192  10.966  13.965
59369SOL    HW279947   4.319  10.955  13.884
59370SOL     OW79948  14.556   4.963  14.281
59370SOL    HW179949  14.467   4.951  14.248
59370SOL    HW279950  14.600   4.880  14.263
59371SOL     OW79951   4.530   3.324  12.334
59371SOL    HW179952   4.562   3.240  12.303
59371SOL    HW279953   4.543   3.384  12.261
59372SOL     OW79954   9.213   6.220   9.421
59372SOL    HW179955   9.266   6.200   9.344
59372SOL    HW279956   9.272   6.268   9.479
59373SOL     OW79957  12.483  10.009   3.473
59373SOL    HW179958  12.523   9.947   3.413
59373SOL    HW279959  12.536  10.088   3.465
59374SOL     OW79960   1.893  11.181  14.559
59374SOL    HW179961   1.937  11.210  14.639
59374SOL    HW279962   1.804  11.160  14.588
59375SOL     OW79963   2.939  13.920  12.366
59375SOL    HW179964   2.859  13.945  12.411
59375SOL    HW279965   2.910  13.876  12.286
59376SOL     OW79966  12.206   7.750   8.052
59376SOL    HW179967  12.206   7.656   8.036
59376SOL    HW279968  12.284   7.765   8.105
59377SOL     OW79969   7.218   7.498   6.251
59377SOL    HW179970   7.225   7.471   6.342
59377SOL    HW279971   7.131   7.538   6.244
59378SOL     OW79972  14.528  11.211  13.128
59378SOL    HW179973  14.517  11.116  13.127
59378SOL    HW279974  14.500  11.237  13.216
59379SOL     OW79975   2.014  12.122   3.251
59379SOL    HW179976   1.989  12.048   3.307
59379SOL    HW279977   1.994  12.092   3.162
59380SOL     OW79978   4.595  10.064   6.472
59380SOL    HW179979   4.606   9.982   6.521
59380SOL    HW279980   4.607  10.038   6.380
59381SOL     OW79981   3.729   8.857  12.480
59381SOL    HW179982   3.668   8.850  12.554
59381SOL    HW279983   3.814   8.871  12.521
59382SOL     OW79984   2.745   2.453   7.690
59382SOL    HW179985   2.732   2.460   7.785
59382SOL    HW279986   2.804   2.526   7.669
59383SOL     OW79987   9.321   1.172  10.480
59383SOL    HW179988   9.228   1.190  10.496
59383SOL    HW279989   9.347   1.239  10.417
59384SOL     OW79990   9.470  10.375  10.263
59384SOL    HW179991   9.479  10.303  10.200
59384SOL    HW279992   9.376  10.383  10.277
59385SOL     OW79993  14.620   7.644   8.790
59385SOL    HW179994  14.556   7.581   8.823
59385SOL    HW279995  14.680   7.659   8.863
59386SOL     OW79996   3.389   2.756  12.546
59386SOL    HW179997   3.349   2.726  12.627
59386SOL    HW279998   3.382   2.682  12.486
59387SOL     OW79999   7.675   5.979   4.033
59387SOL    HW180000   7.694   5.997   3.941
59387SOL    HW280001   7.603   5.916   4.031
59388SOL     OW80002   5.924   9.165   8.429
59388SOL    HW180003   5.859   9.168   8.359
59388SOL    HW280004   5.937   9.256   8.454
59389SOL     OW80005   0.942   4.321   3.796
59389SOL    HW180006   0.899   4.393   3.843
59389SOL    HW280007   1.020   4.301   3.848
59390SOL     OW80008  13.403   2.348   9.236
59390SOL    HW180009  13.314   2.314   9.247
59390SOL    HW280010  13.409   2.370   9.143
59391SOL     OW80011   3.294   4.176  14.489
59391SOL    HW180012   3.219   4.146  14.437
59391SOL    HW280013   3.343   4.096  14.508
59392SOL     OW80014   1.274   2.601   6.962
59392SOL    HW180015   1.244   2.517   6.998
59392SOL    HW280016   1.223   2.612   6.882
59393SOL     OW80017  11.674   9.882   7.677
59393SOL    HW180018  11.633   9.862   7.593
59393SOL    HW280019  11.764   9.908   7.655
59394SOL     OW80020   3.584   3.240  10.410
59394SOL    HW180021   3.598   3.146  10.404
59394SOL    HW280022   3.490   3.249  10.426
59395SOL     OW80023  11.734   6.129   8.746
59395SOL    HW180024  11.761   6.166   8.830
59395SOL    HW280025  11.639   6.137   8.745
59396SOL     OW80026  12.538  14.319   1.181
59396SOL    HW180027  12.573  14.405   1.207
59396SOL    HW280028  12.499  14.285   1.262
59397SOL     OW80029  12.501   7.908  11.167
59397SOL    HW180030  12.552   7.937  11.244
59397SOL    HW280031  12.422   7.962  11.170
59398SOL     OW80032   3.972   0.753  12.826
59398SOL    HW180033   3.928   0.702  12.757
59398SOL    HW280034   3.926   0.730  12.906
59399SOL     OW80035   9.212  14.672  14.339
59399SOL    HW180036   9.200  14.763  14.367
59399SOL    HW280037   9.303  14.668  14.308
59400SOL     OW80038   0.902  14.360  10.560
59400SOL    HW180039   0.967  14.414  10.514
59400SOL    HW280040   0.859  14.419  10.621
59401SOL     OW80041  13.671   4.117   7.571
59401SOL    HW180042  13.675   4.185   7.638
59401SOL    HW280043  13.762   4.089   7.560
59402SOL     OW80044  10.507  12.223   1.433
59402SOL    HW180045  10.420  12.223   1.393
59402SOL    HW280046  10.567  12.203   1.360
59403SOL     OW80047   3.336   7.384   1.238
59403SOL    HW180048   3.346   7.416   1.328
59403SOL    HW280049   3.375   7.297   1.239
59404SOL     OW80050  13.972   1.453  10.171
59404SOL    HW180051  13.972   1.360  10.147
59404SOL    HW280052  13.930   1.497  10.097
59405SOL     OW80053   3.499  14.789   4.342
59405SOL    HW180054   3.571  14.726   4.336
59405SOL    HW280055   3.421  14.738   4.319
59406SOL     OW80056   8.800  13.902  11.643
59406SOL    HW180057   8.823  13.994  11.635
59406SOL    HW280058   8.732  13.888  11.577
59407SOL     OW80059  11.217   8.302   6.107
59407SOL    HW180060  11.240   8.292   6.014
59407SOL    HW280061  11.153   8.233   6.123
59408SOL     OW80062  12.102  10.179   3.585
59408SOL    HW180063  12.081  10.270   3.608
59408SOL    HW280064  12.018  10.142   3.557
59409SOL     OW80065   2.561  12.830   7.991
59409SOL    HW180066   2.604  12.848   8.074
59409SOL    HW280067   2.536  12.917   7.958
59410SOL     OW80068  11.646   5.375   9.884
59410SOL    HW180069  11.637   5.320   9.962
59410SOL    HW280070  11.740   5.373   9.864
59411SOL     OW80071  13.240  14.251  12.397
59411SOL    HW180072  13.293  14.220  12.471
59411SOL    HW280073  13.279  14.207  12.321
59412SOL     OW80074   6.642  10.472   4.055
59412SOL    HW180075   6.686  10.523   4.123
59412SOL    HW280076   6.690  10.493   3.975
59413SOL     OW80077   6.676   8.374  14.733
59413SOL    HW180078   6.617   8.448  14.720
59413SOL    HW280079   6.624   8.311  14.784
59414SOL     OW80080   8.989   1.467   3.309
59414SOL    HW180081   8.936   1.388   3.298
59414SOL    HW280082   9.013   1.467   3.402
59415SOL     OW80083   6.237   3.190   2.102
59415SOL    HW180084   6.181   3.244   2.159
59415SOL    HW280085   6.260   3.247   2.029
59416SOL     OW80086   1.941   0.652   1.143
59416SOL    HW180087   1.849   0.662   1.169
59416SOL    HW280088   1.959   0.729   1.090
59417SOL     OW80089  11.623   8.411   9.458
59417SOL    HW180090  11.569   8.470   9.406
59417SOL    HW280091  11.642   8.338   9.400
59418SOL     OW80092   2.211  10.210   0.364
59418SOL    HW180093   2.165  10.212   0.449
59418SOL    HW280094   2.141  10.194   0.300
59419SOL     OW80095   9.081   8.178  13.733
59419SOL    HW180096   9.045   8.240  13.670
59419SOL    HW280097   9.036   8.199  13.816
59420SOL     OW80098  13.821   0.004   9.940
59420SOL    HW180099  13.774  14.824   9.882
59420SOL    HW280100  13.857  14.826  10.008
59421SOL     OW80101   4.806  12.777   9.007
59421SOL    HW180102   4.714  12.759   8.988
59421SOL    HW280103   4.806  12.813   9.096
59422SOL     OW80104   7.250   0.369   0.777
59422SOL    HW180105   7.246   0.288   0.728
59422SOL    HW280106   7.166   0.372   0.825
59423SOL     OW80107   5.043   4.704   7.923
59423SOL    HW180108   4.990   4.679   7.848
59423SOL    HW280109   5.130   4.721   7.886
59424SOL     OW80110  10.844   8.985   3.731
59424SOL    HW180111  10.863   8.891   3.737
59424SOL    HW280112  10.759   8.990   3.687
59425SOL     OW80113   2.829   2.832   7.267
59425SOL    HW180114   2.794   2.874   7.346
59425SOL    HW280115   2.876   2.901   7.221
59426SOL     OW80116  12.560   1.619   6.514
59426SOL    HW180117  12.612   1.567   6.453
59426SOL    HW280118  12.622   1.649   6.580
59427SOL     OW80119   7.643   3.017   8.543
59427SOL    HW180120   7.602   3.070   8.611
59427SOL    HW280121   7.697   2.954   8.590
59428SOL     OW80122  11.850   7.852  14.429
59428SOL    HW180123  11.803   7.775  14.396
59428SOL    HW280124  11.781   7.913  14.454
59429SOL     OW80125   2.530   2.701  13.559
59429SOL    HW180126   2.595   2.755  13.604
59429SOL    HW280127   2.583   2.636  13.512
59430SOL     OW80128   0.433   7.488  14.542
59430SOL    HW180129   0.478   7.572  14.543
59430SOL    HW280130   0.472   7.441  14.468
59431SOL     OW80131   1.961  10.084   4.413
59431SOL    HW180132   1.932  10.097   4.323
59431SOL    HW280133   1.893  10.126   4.466
59432SOL     OW80134   8.851  13.858  10.682
59432SOL    HW180135   8.903  13.862  10.762
59432SOL    HW280136   8.810  13.944  10.675
59433SOL     OW80137   0.878   4.839   8.058
59433SOL    HW180138   0.922   4.870   8.138
59433SOL    HW280139   0.786   4.859   8.072
59434SOL     OW80140   8.438  13.785   9.313
59434SOL    HW180141   8.428  13.748   9.400
59434SOL    HW280142   8.531  13.805   9.306
59435SOL     OW80143   1.285  11.405  12.110
59435SOL    HW180144   1.205  11.419  12.160
59435SOL    HW280145   1.352  11.456  12.157
59436SOL     OW80146   9.156   6.343  14.668
59436SOL    HW180147   9.238   6.296  14.654
59436SOL    HW280148   9.111   6.337  14.584
59437SOL     OW80149   5.280  11.703   3.173
59437SOL    HW180150   5.362  11.753   3.165
59437SOL    HW280151   5.293  11.647   3.249
59438SOL     OW80152   2.578   6.190   8.857
59438SOL    HW180153   2.588   6.284   8.872
59438SOL    HW280154   2.560   6.182   8.764
59439SOL     OW80155  10.631  10.324   1.122
59439SOL    HW180156  10.637  10.236   1.159
59439SOL    HW280157  10.670  10.381   1.189
59440SOL     OW80158  11.525   8.675  14.748
59440SOL    HW180159  11.588   8.739  14.781
59440SOL    HW280160  11.578   8.611  14.701
59441SOL     OW80161   2.566   2.282   1.462
59441SOL    HW180162   2.605   2.195   1.454
59441SOL    HW280163   2.523   2.296   1.378
59442SOL     OW80164   7.761   3.843   1.606
59442SOL    HW180165   7.830   3.791   1.564
59442SOL    HW280166   7.749   3.918   1.549
59443SOL     OW80167   7.868   7.972   2.740
59443SOL    HW180168   7.931   8.043   2.726
59443SOL    HW280169   7.853   7.936   2.653
59444SOL     OW80170  14.762   7.921  11.720
59444SOL    HW180171  14.842   7.974  11.716
59444SOL    HW280172  14.713   7.956  11.794
59445SOL     OW80173   8.193   2.363   6.949
59445SOL    HW180174   8.161   2.311   6.875
59445SOL    HW280175   8.117   2.370   7.007
59446SOL     OW80176  13.903  14.779   6.873
59446SOL    HW180177  13.970  14.772   6.805
59446SOL    HW280178  13.831  14.826   6.831
59447SOL     OW80179   2.028   1.954   7.225
59447SOL    HW180180   2.099   1.889   7.229
59447SOL    HW280181   2.005   1.958   7.133
59448SOL     OW80182   3.565   5.038   1.489
59448SOL    HW180183   3.518   4.957   1.510
59448SOL    HW280184   3.655   5.009   1.471
59449SOL     OW80185   9.236   1.678   8.276
59449SOL    HW180186   9.307   1.703   8.216
59449SOL    HW280187   9.227   1.754   8.334
59450SOL     OW80188   7.091   1.147  11.190
59450SOL    HW180189   7.177   1.109  11.172
59450SOL    HW280190   7.030   1.096  11.137
59451SOL     OW80191   7.319   1.556   5.781
59451SOL    HW180192   7.334   1.479   5.726
59451SOL    HW280193   7.363   1.535   5.864
59452SOL     OW80194   8.167  11.062   3.725
59452SOL    HW180195   8.184  11.089   3.815
59452SOL    HW280196   8.184  11.141   3.673
59453SOL     OW80197   3.078   4.032   4.752
59453SOL    HW180198   3.055   3.941   4.767
59453SOL    HW280199   3.047   4.078   4.829
59454SOL     OW80200  14.298   6.417   7.972
59454SOL    HW180201  14.261   6.400   8.059
59454SOL    HW280202  14.236   6.476   7.930
59455SOL     OW80203   2.461   2.103   6.931
59455SOL    HW180204   2.525   2.096   6.860
59455SOL    HW280205   2.454   2.196   6.949
59456SOL     OW80206   4.538   4.613   1.537
59456SOL    HW180207   4.596   4.557   1.588
59456SOL    HW280208   4.530   4.568   1.452
59457SOL     OW80209   1.746   6.480   5.598
59457SOL    HW180210   1.805   6.555   5.592
59457SOL    HW280211   1.755   6.450   5.689
59458SOL     OW80212   4.070   5.778   7.411
59458SOL    HW180213   4.040   5.691   7.384
59458SOL    HW280214   3.994   5.816   7.456
59459SOL     OW80215  11.870  12.937   8.747
59459SOL    HW180216  11.785  12.977   8.731
59459SOL    HW280217  11.930  13.011   8.755
59460SOL     OW80218   0.268   6.308   6.968
59460SOL    HW180219   0.275   6.350   7.054
59460SOL    HW280220   0.176   6.318   6.944
59461SOL     OW80221   5.780  13.062  11.587
59461SOL    HW180222   5.785  13.105  11.501
59461SOL    HW280223   5.870  13.039  11.608
59462SOL     OW80224   7.380   0.514   3.858
59462SOL    HW180225   7.298   0.549   3.821
59462SOL    HW280226   7.358   0.492   3.948
59463SOL     OW80227  12.999   2.493  13.798
59463SOL    HW180228  13.087   2.531  13.798
59463SOL    HW280229  12.994   2.444  13.880
59464SOL     OW80230   1.369  10.718  12.548
59464SOL    HW180231   1.450  10.671  12.531
59464SOL    HW280232   1.330  10.671  12.622
59465SOL     OW80233  10.284  13.470  14.363
59465SOL    HW180234  10.218  13.406  14.390
59465SOL    HW280235  10.318  13.505  14.446
59466SOL     OW80236  13.278  13.990   2.687
59466SOL    HW180237  13.193  14.018   2.655
59466SOL    HW280238  13.258  13.935   2.763
59467SOL     OW80239  10.977  14.665   3.150
59467SOL    HW180240  10.988  14.672   3.055
59467SOL    HW280241  11.042  14.726   3.186
59468SOL     OW80242  13.982  13.965   4.468
59468SOL    HW180243  13.912  14.016   4.508
59468SOL    HW280244  14.059  13.985   4.520
59469SOL     OW80245   0.502  10.687   1.567
59469SOL    HW180246   0.535  10.633   1.494
59469SOL    HW280247   0.573  10.748   1.585
59470SOL     OW80248   3.172  14.408   4.612
59470SOL    HW180249   3.241  14.472   4.630
59470SOL    HW280250   3.106  14.423   4.680
59471SOL     OW80251  12.395   1.934   3.466
59471SOL    HW180252  12.301   1.942   3.451
59471SOL    HW280253  12.436   1.977   3.391
59472SOL     OW80254   2.519   0.048   7.911
59472SOL    HW180255   2.439   0.072   7.958
59472SOL    HW280256   2.560   0.132   7.889
59473SOL     OW80257  13.796   4.207   3.015
59473SOL    HW180258  13.816   4.200   3.109
59473SOL    HW280259  13.750   4.125   2.994
59474SOL     OW80260   8.138   3.192  11.610
59474SOL    HW180261   8.147   3.255  11.538
59474SOL    HW280262   8.053   3.150  11.594
59475SOL     OW80263   5.876   5.628   9.716
59475SOL    HW180264   5.924   5.588   9.643
59475SOL    HW280265   5.819   5.558   9.748
59476SOL     OW80266  14.398   6.572   6.847
59476SOL    HW180267  14.310   6.535   6.857
59476SOL    HW280268  14.388   6.638   6.779
59477SOL     OW80269   1.855  13.848   4.832
59477SOL    HW180270   1.916  13.807   4.770
59477SOL    HW280271   1.912  13.888   4.898
59478SOL     OW80272   3.181   6.828   0.275
59478SOL    HW180273   3.265   6.808   0.317
59478SOL    HW280274   3.195   6.913   0.233
59479SOL     OW80275   3.199  13.648   5.113
59479SOL    HW180276   3.110  13.641   5.147
59479SOL    HW280277   3.247  13.578   5.158
59480SOL     OW80278  12.757   7.130  14.302
59480SOL    HW180279  12.824   7.087  14.248
59480SOL    HW280280  12.703   7.178  14.239
59481SOL     OW80281   4.443   2.848  13.691
59481SOL    HW180282   4.452   2.942  13.702
59481SOL    HW280283   4.530   2.819  13.662
59482SOL     OW80284  11.546   3.583   7.921
59482SOL    HW180285  11.535   3.554   8.012
59482SOL    HW280286  11.583   3.671   7.929
59483SOL     OW80287   2.219   8.818  12.273
59483SOL    HW180288   2.137   8.780  12.304
59483SOL    HW280289   2.288   8.760  12.306
59484SOL     OW80290   2.120   0.669  11.929
59484SOL    HW180291   2.183   0.604  11.959
59484SOL    HW280292   2.156   0.753  11.959
59485SOL     OW80293  12.830  11.288   0.537
59485SOL    HW180294  12.804  11.304   0.627
59485SOL    HW280295  12.925  11.279   0.540
59486SOL     OW80296   0.356  13.055  10.713
59486SOL    HW180297   0.277  13.029  10.665
59486SOL    HW280298   0.388  12.974  10.751
59487SOL     OW80299   8.728  12.606   9.311
59487SOL    HW180300   8.818  12.613   9.343
59487SOL    HW280301   8.711  12.512   9.308
59488SOL     OW80302   0.746  12.075   2.519
59488SOL    HW180303   0.692  12.150   2.496
59488SOL    HW280304   0.835  12.102   2.496
59489SOL     OW80305  10.615   4.467   6.324
59489SOL    HW180306  10.709   4.481   6.332
59489SOL    HW280307  10.606   4.380   6.284
59490SOL     OW80308  13.578   7.950   2.824
59490SOL    HW180309  13.668   7.918   2.821
59490SOL    HW280310  13.544   7.918   2.907
59491SOL     OW80311  10.864   1.379  11.000
59491SOL    HW180312  10.770   1.382  11.017
59491SOL    HW280313  10.870   1.345  10.911
59492SOL     OW80314   5.783  14.139   9.493
59492SOL    HW180315   5.804  14.196   9.567
59492SOL    HW280316   5.716  14.187   9.443
59493SOL     OW80317  11.785  12.967   4.445
59493SOL    HW180318  11.760  13.051   4.483
59493SOL    HW280319  11.857  12.935   4.499
59494SOL     OW80320  10.154  13.972   7.001
59494SOL    HW180321  10.213  13.995   7.072
59494SOL    HW280322  10.183  14.025   6.927
59495SOL     OW80323  11.691   3.636  10.170
59495SOL    HW180324  11.670   3.727  10.148
59495SOL    HW280325  11.735   3.642  10.255
59496SOL     OW80326   0.033  10.709  12.961
59496SOL    HW180327   0.074  10.678  12.881
59496SOL    HW280328  14.818  10.699  12.946
59497SOL     OW80329   7.955   4.471  14.362
59497SOL    HW180330   7.958   4.493  14.455
59497SOL    HW280331   7.936   4.377  14.360
59498SOL     OW80332  11.973  13.269   1.088
59498SOL    HW180333  11.964  13.361   1.112
59498SOL    HW280334  12.067  13.255   1.080
59499SOL     OW80335   8.173   2.996   3.517
59499SOL    HW180336   8.239   2.944   3.472
59499SOL    HW280337   8.213   3.083   3.527
59500SOL     OW80338   7.622  12.548  12.423
59500SOL    HW180339   7.665  12.540  12.338
59500SOL    HW280340   7.687  12.588  12.480
59501SOL     OW80341  11.352   3.169  12.582
59501SOL    HW180342  11.335   3.263  12.590
59501SOL    HW280343  11.410   3.149  12.655
59502SOL     OW80344   0.988   0.074  13.234
59502SOL    HW180345   0.894   0.057  13.229
59502SOL    HW280346   1.015   0.087  13.143
59503SOL     OW80347   2.364  11.150  10.654
59503SOL    HW180348   2.338  11.107  10.736
59503SOL    HW280349   2.411  11.229  10.683
59504SOL     OW80350  11.215   7.976   3.368
59504SOL    HW180351  11.214   8.012   3.280
59504SOL    HW280352  11.165   7.895   3.362
59505SOL     OW80353   1.975   3.443   9.382
59505SOL    HW180354   1.911   3.432   9.312
59505SOL    HW280355   1.999   3.354   9.407
59506SOL     OW80356   8.840  10.731  11.796
59506SOL    HW180357   8.916  10.746  11.739
59506SOL    HW280358   8.874  10.745  11.885
59507SOL     OW80359  12.897  14.804  14.317
59507SOL    HW180360  12.961  14.872  14.338
59507SOL    HW280361  12.949  14.731  14.286
59508SOL     OW80362   3.915  13.014  10.836
59508SOL    HW180363   3.984  12.950  10.853
59508SOL    HW280364   3.957  13.079  10.779
59509SOL     OW80365   1.073  10.416   4.630
59509SOL    HW180366   1.056  10.322   4.637
59509SOL    HW280367   0.992  10.458   4.659
59510SOL     OW80368   9.477  12.665  14.119
59510SOL    HW180369   9.516  12.691  14.202
59510SOL    HW280370   9.535  12.701  14.052
59511SOL     OW80371   8.826   1.845   8.996
59511SOL    HW180372   8.916   1.814   9.012
59511SOL    HW280373   8.779   1.822   9.076
59512SOL     OW80374  12.013   1.581   8.228
59512SOL    HW180375  12.012   1.643   8.301
59512SOL    HW280376  12.072   1.620   8.164
59513SOL     OW80377   4.289   6.192   2.450
59513SOL    HW180378   4.274   6.277   2.490
59513SOL    HW280379   4.201   6.160   2.429
59514SOL     OW80380   1.453  10.597  10.448
59514SOL    HW180381   1.528  10.630  10.497
59514SOL    HW280382   1.452  10.503  10.465
59515SOL     OW80383  12.562   2.283   4.932
59515SOL    HW180384  12.524   2.210   4.883
59515SOL    HW280385  12.488   2.324   4.977
59516SOL     OW80386   4.400  10.375  12.488
59516SOL    HW180387   4.395  10.334  12.574
59516SOL    HW280388   4.346  10.454  12.496
59517SOL     OW80389   9.082   1.984  10.343
59517SOL    HW180390   9.058   1.941  10.425
59517SOL    HW280391   9.163   2.031  10.364
59518SOL     OW80392  11.591   2.293  11.500
59518SOL    HW180393  11.682   2.276  11.475
59518SOL    HW280394  11.597   2.328  11.589
59519SOL     OW80395   6.334   3.980  12.947
59519SOL    HW180396   6.407   3.959  13.005
59519SOL    HW280397   6.339   4.075  12.936
59520SOL     OW80398   7.513   1.437   0.156
59520SOL    HW180399   7.538   1.491   0.231
59520SOL    HW280400   7.562   1.474   0.082
59521SOL     OW80401   4.231   0.229   1.474
59521SOL    HW180402   4.275   0.161   1.423
59521SOL    HW280403   4.290   0.304   1.469
59522SOL     OW80404  12.783   3.537  11.153
59522SOL    HW180405  12.856   3.546  11.093
59522SOL    HW280406  12.718   3.600  11.122
59523SOL     OW80407   4.715   8.168   1.647
59523SOL    HW180408   4.713   8.263   1.633
59523SOL    HW280409   4.641   8.135   1.597
59524SOL     OW80410   4.557   5.350   2.676
59524SOL    HW180411   4.605   5.340   2.758
59524SOL    HW280412   4.606   5.417   2.628
59525SOL     OW80413  11.914   6.260  14.873
59525SOL    HW180414  11.994   6.297   0.032
59525SOL    HW280415  11.883   6.328  14.813
59526SOL     OW80416  14.198   8.959   6.085
59526SOL    HW180417  14.261   8.922   6.146
59526SOL    HW280418  14.114   8.952   6.130
59527SOL     OW80419  11.115   6.045   4.843
59527SOL    HW180420  11.080   5.970   4.891
59527SOL    HW280421  11.059   6.054   4.766
59528SOL     OW80422   1.423  12.069   6.664
59528SOL    HW180423   1.375  11.986   6.665
59528SOL    HW280424   1.372  12.125   6.606
59529SOL     OW80425  12.763   3.053   2.251
59529SOL    HW180426  12.669   3.040   2.241
59529SOL    HW280427  12.799   2.965   2.265
59530SOL     OW80428  12.263   3.079   7.993
59530SOL    HW180429  12.204   3.010   7.961
59530SOL    HW280430  12.272   3.062   8.086
59531SOL     OW80431   4.352  14.163   7.872
59531SOL    HW180432   4.299  14.194   7.798
59531SOL    HW280433   4.442  14.188   7.849
59532SOL     OW80434   5.053   0.396  13.276
59532SOL    HW180435   5.141   0.359  13.270
59532SOL    HW280436   4.995   0.325  13.248
59533SOL     OW80437   1.185   3.451   4.333
59533SOL    HW180438   1.203   3.497   4.415
59533SOL    HW280439   1.204   3.359   4.352
59534SOL     OW80440   0.184   9.399   9.787
59534SOL    HW180441   0.217   9.489   9.792
59534SOL    HW280442   0.148   9.382   9.874
59535SOL     OW80443   7.645   6.360   3.037
59535SOL    HW180444   7.705   6.410   3.093
59535SOL    HW280445   7.675   6.270   3.045
59536SOL     OW80446   9.846   5.767   8.876
59536SOL    HW180447   9.762   5.769   8.831
59536SOL    HW280448   9.879   5.857   8.871
59537SOL     OW80449  12.287  10.868   9.748
59537SOL    HW180450  12.309  10.869   9.655
59537SOL    HW280451  12.218  10.934   9.757
59538SOL     OW80452   9.105  10.300  13.797
59538SOL    HW180453   9.173  10.325  13.860
59538SOL    HW280454   9.135  10.216  13.762
59539SOL     OW80455   4.306  12.369  14.653
59539SOL    HW180456   4.322  12.385  14.746
59539SOL    HW280457   4.317  12.455  14.612
59540SOL     OW80458   8.307  13.721   6.624
59540SOL    HW180459   8.299  13.630   6.654
59540SOL    HW280460   8.234  13.767   6.666
59541SOL     OW80461   5.262   3.895   5.982
59541SOL    HW180462   5.334   3.891   5.919
59541SOL    HW280463   5.183   3.890   5.928
59542SOL     OW80464   6.730   6.950   4.271
59542SOL    HW180465   6.756   7.042   4.266
59542SOL    HW280466   6.807   6.905   4.305
59543SOL     OW80467   4.595  12.722  10.394
59543SOL    HW180468   4.637  12.766  10.319
59543SOL    HW280469   4.626  12.632  10.389
59544SOL     OW80470   3.910   0.643  12.553
59544SOL    HW180471   3.945   0.692  12.478
59544SOL    HW280472   3.821   0.620  12.528
59545SOL     OW80473  11.157   9.186   1.472
59545SOL    HW180474  11.243   9.225   1.491
59545SOL    HW280475  11.099   9.262   1.462
59546SOL     OW80476   1.755  10.487   5.497
59546SOL    HW180477   1.850  10.483   5.484
59546SOL    HW280478   1.742  10.462   5.588
59547SOL     OW80479   5.482   2.147   2.363
59547SOL    HW180480   5.555   2.145   2.424
59547SOL    HW280481   5.414   2.198   2.409
59548SOL     OW80482   4.128  14.779  10.235
59548SOL    HW180483   4.069  14.713  10.273
59548SOL    HW280484   4.212  14.734  10.227
59549SOL     OW80485   1.727  12.153   3.370
59549SOL    HW180486   1.677  12.074   3.391
59549SOL    HW280487   1.695  12.179   3.284
59550SOL     OW80488   6.204  14.349   8.787
59550SOL    HW180489   6.235  14.391   8.706
59550SOL    HW280490   6.131  14.404   8.816
59551SOL     OW80491   0.530   5.173   8.392
59551SOL    HW180492   0.442   5.164   8.357
59551SOL    HW280493   0.554   5.085   8.420
59552SOL     OW80494   2.831  14.543   2.906
59552SOL    HW180495   2.777  14.541   2.986
59552SOL    HW280496   2.916  14.575   2.936
59553SOL     OW80497  14.384   2.003  13.308
59553SOL    HW180498  14.361   2.096  13.316
59553SOL    HW280499  14.320   1.968  13.246
59554SOL     OW80500   5.583  10.383   1.560
59554SOL    HW180501   5.644  10.321   1.600
59554SOL    HW280502   5.596  10.373   1.466
59555SOL     OW80503   4.923  11.034   6.831
59555SOL    HW180504   4.924  10.959   6.772
59555SOL    HW280505   5.014  11.048   6.854
59556SOL     OW80506   8.085   4.832   4.849
59556SOL    HW180507   8.052   4.895   4.785
59556SOL    HW280508   8.117   4.759   4.796
59557SOL     OW80509   0.902   6.100   3.528
59557SOL    HW180510   0.947   6.135   3.451
59557SOL    HW280511   0.857   6.022   3.496
59558SOL     OW80512   4.304   9.264   3.989
59558SOL    HW180513   4.255   9.345   3.971
59558SOL    HW280514   4.282   9.242   4.079
59559SOL     OW80515   7.175  11.005   8.775
59559SOL    HW180516   7.179  10.909   8.773
59559SOL    HW280517   7.120  11.025   8.851
59560SOL     OW80518   9.310  12.624   5.293
59560SOL    HW180519   9.357  12.541   5.285
59560SOL    HW280520   9.270  12.621   5.381
59561SOL     OW80521   5.743  14.515  13.138
59561SOL    HW180522   5.671  14.452  13.131
59561SOL    HW280523   5.767  14.533  13.047
59562SOL     OW80524   4.290   0.076   2.700
59562SOL    HW180525   4.323   0.137   2.634
59562SOL    HW280526   4.240   0.130   2.760
59563SOL     OW80527   5.350   5.326   7.715
59563SOL    HW180528   5.367   5.284   7.799
59563SOL    HW280529   5.291   5.267   7.669
59564SOL     OW80530  12.701   5.648   6.195
59564SOL    HW180531  12.760   5.715   6.230
59564SOL    HW280532  12.643   5.628   6.268
59565SOL     OW80533   2.885   7.204   0.304
59565SOL    HW180534   2.843   7.289   0.315
59565SOL    HW280535   2.979   7.223   0.303
59566SOL     OW80536   6.333   0.258   5.118
59566SOL    HW180537   6.307   0.219   5.201
59566SOL    HW280538   6.354   0.349   5.138
59567SOL     OW80539  14.517  12.666   6.181
59567SOL    HW180540  14.482  12.727   6.117
59567SOL    HW280541  14.611  12.686   6.185
59568SOL     OW80542   1.620   5.392  11.090
59568SOL    HW180543   1.636   5.483  11.065
59568SOL    HW280544   1.627   5.344  11.007
59569SOL     OW80545   6.289   1.123   0.480
59569SOL    HW180546   6.309   1.030   0.467
59569SOL    HW280547   6.201   1.123   0.517
59570SOL     OW80548  13.249   5.602  11.553
59570SOL    HW180549  13.157   5.591  11.527
59570SOL    HW280550  13.298   5.594  11.472
59571SOL     OW80551   1.007   1.338  11.154
59571SOL    HW180552   1.073   1.277  11.122
59571SOL    HW280553   1.056   1.406  11.199
59572SOL     OW80554   8.746   2.120   8.207
59572SOL    HW180555   8.784   2.036   8.235
59572SOL    HW280556   8.797   2.145   8.130
59573SOL     OW80557   0.887  14.537   7.361
59573SOL    HW180558   0.917  14.503   7.446
59573SOL    HW280559   0.839  14.616   7.383
59574SOL     OW80560  12.375  12.392   0.917
59574SOL    HW180561  12.419  12.455   0.974
59574SOL    HW280562  12.314  12.346   0.974
59575SOL     OW80563  11.372   0.150   2.729
59575SOL    HW180564  11.389   0.220   2.793
59575SOL    HW280565  11.438   0.083   2.749
59576SOL     OW80566   3.788   3.769   4.163
59576SOL    HW180567   3.751   3.774   4.075
59576SOL    HW280568   3.881   3.752   4.149
59577SOL     OW80569  14.445   4.002  10.398
59577SOL    HW180570  14.479   4.088  10.376
59577SOL    HW280571  14.353   4.017  10.421
59578SOL     OW80572   3.411   2.378   0.712
59578SOL    HW180573   3.385   2.454   0.659
59578SOL    HW280574   3.507   2.378   0.708
59579SOL     OW80575  11.461   7.190   0.898
59579SOL    HW180576  11.515   7.208   0.975
59579SOL    HW280577  11.465   7.095   0.887
59580SOL     OW80578  13.730   2.872  10.667
59580SOL    HW180579  13.766   2.892  10.580
59580SOL    HW280580  13.732   2.956  10.714
59581SOL     OW80581   5.538   5.501  13.222
59581SOL    HW180582   5.620   5.490  13.269
59581SOL    HW280583   5.540   5.591  13.189
59582SOL     OW80584   8.734   1.111   1.681
59582SOL    HW180585   8.770   1.107   1.593
59582SOL    HW280586   8.811   1.108   1.738
59583SOL     OW80587   4.293  10.478   5.842
59583SOL    HW180588   4.281  10.529   5.922
59583SOL    HW280589   4.221  10.506   5.785
59584SOL     OW80590   5.903  14.412  14.596
59584SOL    HW180591   5.968  14.378  14.657
59584SOL    HW280592   5.944  14.489  14.557
59585SOL     OW80593   8.280   9.566   5.450
59585SOL    HW180594   8.352   9.629   5.449
59585SOL    HW280595   8.294   9.512   5.372
59586SOL     OW80596   0.030   6.813  14.431
59586SOL    HW180597   0.020   6.905  14.456
59586SOL    HW280598   0.018   6.813  14.336
59587SOL     OW80599   4.912  12.133  14.575
59587SOL    HW180600   4.953  12.141  14.489
59587SOL    HW280601   4.985  12.125  14.636
59588SOL     OW80602  10.455  11.448  13.233
59588SOL    HW180603  10.403  11.507  13.178
59588SOL    HW280604  10.470  11.371  13.178
59589SOL     OW80605   9.330   0.984  14.046
59589SOL    HW180606   9.269   1.007  13.975
59589SOL    HW280607   9.359   1.068  14.080
59590SOL     OW80608  10.563  11.003   6.368
59590SOL    HW180609  10.646  11.050   6.364
59590SOL    HW280610  10.578  10.923   6.317
59591SOL     OW80611   0.355   8.829   8.759
59591SOL    HW180612   0.400   8.753   8.724
59591SOL    HW280613   0.295   8.855   8.689
59592SOL     OW80614  11.430  11.196   9.113
59592SOL    HW180615  11.427  11.148   9.030
59592SOL    HW280616  11.339  11.224   9.127
59593SOL     OW80617   8.618  14.605  13.842
59593SOL    HW180618   8.568  14.678  13.879
59593SOL    HW280619   8.622  14.540  13.912
59594SOL     OW80620   8.833   4.226  11.713
59594SOL    HW180621   8.897   4.275  11.661
59594SOL    HW280622   8.749   4.245  11.673
59595SOL     OW80623   2.109  12.775   1.094
59595SOL    HW180624   2.098  12.735   1.008
59595SOL    HW280625   2.040  12.737   1.147
59596SOL     OW80626  13.241   8.038   8.720
59596SOL    HW180627  13.246   8.133   8.707
59596SOL    HW280628  13.172   8.026   8.786
59597SOL     OW80629   6.516   3.157   2.820
59597SOL    HW180630   6.574   3.197   2.756
59597SOL    HW280631   6.575   3.116   2.883
59598SOL     OW80632  14.251   7.498   3.767
59598SOL    HW180633  14.281   7.472   3.854
59598SOL    HW280634  14.301   7.578   3.748
59599SOL     OW80635   1.007  11.935  14.447
59599SOL    HW180636   1.033  11.843  14.449
59599SOL    HW280637   0.912  11.934  14.447
59600SOL     OW80638  14.633  11.365  12.643
59600SOL    HW180639  14.613  11.453  12.674
59600SOL    HW280640  14.729  11.364  12.633
59601SOL     OW80641   0.024  11.513   5.659
59601SOL    HW180642  14.829  11.573   5.664
59601SOL    HW280643   0.094  11.559   5.707
59602SOL     OW80644   1.457   7.242   2.943
59602SOL    HW180645   1.399   7.298   2.994
59602SOL    HW280646   1.399   7.191   2.887
59603SOL     OW80647   3.882   5.801   5.783
59603SOL    HW180648   3.830   5.734   5.827
59603SOL    HW280649   3.908   5.861   5.853
59604SOL     OW80650  10.490   5.847   7.821
59604SOL    HW180651  10.571   5.898   7.810
59604SOL    HW280652  10.426   5.910   7.853
59605SOL     OW80653  14.729   2.005   7.913
59605SOL    HW180654  14.770   1.925   7.879
59605SOL    HW280655  14.738   1.998   8.008
59606SOL     OW80656  11.401   3.879   2.539
59606SOL    HW180657  11.347   3.930   2.479
59606SOL    HW280658  11.435   3.808   2.486
59607SOL     OW80659   1.185  12.928   2.290
59607SOL    HW180660   1.253  12.865   2.264
59607SOL    HW280661   1.207  12.951   2.381
59608SOL     OW80662   0.570   2.258   9.039
59608SOL    HW180663   0.653   2.235   8.997
59608SOL    HW280664   0.551   2.184   9.097
59609SOL     OW80665   1.341   9.795  10.919
59609SOL    HW180666   1.425   9.839  10.931
59609SOL    HW280667   1.306   9.786  11.008
59610SOL     OW80668   1.209   8.561  14.046
59610SOL    HW180669   1.201   8.549  14.141
59610SOL    HW280670   1.299   8.534  14.026
59611SOL     OW80671   7.042  12.796  11.403
59611SOL    HW180672   6.972  12.759  11.350
59611SOL    HW280673   7.004  12.873  11.444
59612SOL     OW80674  13.200   0.849   3.042
59612SOL    HW180675  13.166   0.872   3.128
59612SOL    HW280676  13.188   0.754   3.036
59613SOL     OW80677   1.863  13.613   9.560
59613SOL    HW180678   1.944  13.580   9.520
59613SOL    HW280679   1.874  13.708   9.562
59614SOL     OW80680  14.286  14.441  11.513
59614SOL    HW180681  14.191  14.448  11.501
59614SOL    HW280682  14.302  14.346  11.517
59615SOL     OW80683   1.629   3.486  11.534
59615SOL    HW180684   1.586   3.570  11.550
59615SOL    HW280685   1.722   3.507  11.534
59616SOL     OW80686   6.991  11.287   7.203
59616SOL    HW180687   6.908  11.316   7.240
59616SOL    HW280688   6.983  11.192   7.198
59617SOL     OW80689   0.016   2.361   1.528
59617SOL    HW180690   0.095   2.414   1.530
59617SOL    HW280691   0.003   2.333   1.618
59618SOL     OW80692   7.312   3.075   6.417
59618SOL    HW180693   7.323   3.022   6.496
59618SOL    HW280694   7.232   3.125   6.432
59619SOL     OW80695  11.053   7.758  11.854
59619SOL    HW180696  11.081   7.726  11.940
59619SOL    HW280697  11.009   7.841  11.873
59620SOL     OW80698   1.532   1.492   4.959
59620SOL    HW180699   1.568   1.408   4.931
59620SOL    HW280700   1.457   1.507   4.901
59621SOL     OW80701   1.228   6.796   8.690
59621SOL    HW180702   1.202   6.739   8.762
59621SOL    HW280703   1.304   6.753   8.651
59622SOL     OW80704   8.504  11.436  13.352
59622SOL    HW180705   8.527  11.500  13.418
59622SOL    HW280706   8.460  11.366  13.400
59623SOL     OW80707  13.415   9.033  10.160
59623SOL    HW180708  13.407   8.942  10.132
59623SOL    HW280709  13.488   9.032  10.222
59624SOL     OW80710   0.842   0.598  14.015
59624SOL    HW180711   0.755   0.635  13.997
59624SOL    HW280712   0.831   0.504  14.000
59625SOL     OW80713   8.139  12.290  10.184
59625SOL    HW180714   8.160  12.233  10.258
59625SOL    HW280715   8.044  12.301  10.188
59626SOL     OW80716  10.219  14.256   7.402
59626SOL    HW180717  10.155  14.196   7.439
59626SOL    HW280718  10.170  14.305   7.335
59627SOL     OW80719   1.347   8.769   4.009
59627SOL    HW180720   1.309   8.721   4.083
59627SOL    HW280721   1.419   8.819   4.047
59628SOL     OW80722  14.186  14.167   5.917
59628SOL    HW180723  14.219  14.193   6.003
59628SOL    HW280724  14.093  14.189   5.920
59629SOL     OW80725   4.154   3.211  14.195
59629SOL    HW180726   4.090   3.282  14.188
59629SOL    HW280727   4.147   3.165  14.112
59630SOL     OW80728   2.180   9.919   0.877
59630SOL    HW180729   2.238   9.962   0.940
59630SOL    HW280730   2.157   9.836   0.919
59631SOL     OW80731   9.618  12.250   9.872
59631SOL    HW180732   9.589  12.334   9.837
59631SOL    HW280733   9.611  12.189   9.797
59632SOL     OW80734   6.749   3.493   9.241
59632SOL    HW180735   6.673   3.465   9.292
59632SOL    HW280736   6.806   3.537   9.304
59633SOL     OW80737   9.931   2.186   8.938
59633SOL    HW180738   9.977   2.244   8.999
59633SOL    HW280739  10.001   2.132   8.900
59634SOL     OW80740   9.724   8.560  12.311
59634SOL    HW180741   9.646   8.616  12.315
59634SOL    HW280742   9.719   8.508  12.391
59635SOL     OW80743   1.263   6.005  13.459
59635SOL    HW180744   1.185   5.990  13.405
59635SOL    HW280745   1.335   6.005  13.397
59636SOL     OW80746   7.442  14.727   5.653
59636SOL    HW180747   7.407  14.639   5.668
59636SOL    HW280748   7.520  14.731   5.708
59637SOL     OW80749   8.982   8.172   5.416
59637SOL    HW180750   9.024   8.252   5.383
59637SOL    HW280751   8.895   8.201   5.445
59638SOL     OW80752  12.378   4.026   5.880
59638SOL    HW180753  12.327   3.949   5.906
59638SOL    HW280754  12.468   4.001   5.899
59639SOL     OW80755   0.567   9.116   5.859
59639SOL    HW180756   0.647   9.116   5.911
59639SOL    HW280757   0.580   9.048   5.794
59640SOL     OW80758   1.449   3.871   6.657
59640SOL    HW180759   1.358   3.843   6.643
59640SOL    HW280760   1.466   3.934   6.587
59641SOL     OW80761   7.524  10.760   2.624
59641SOL    HW180762   7.442  10.810   2.631
59641SOL    HW280763   7.522  10.725   2.535
59642SOL     OW80764  11.601   6.901  13.239
59642SOL    HW180765  11.607   6.991  13.273
59642SOL    HW280766  11.507   6.881  13.243
59643SOL     OW80767   0.912   2.689   9.241
59643SOL    HW180768   0.852   2.736   9.299
59643SOL    HW280769   0.946   2.756   9.182
59644SOL     OW80770   2.018  11.641  11.554
59644SOL    HW180771   1.971  11.632  11.472
59644SOL    HW280772   2.111  11.640  11.529
59645SOL     OW80773   6.378   3.293  10.298
59645SOL    HW180774   6.363   3.334  10.384
59645SOL    HW280775   6.472   3.276  10.296
59646SOL     OW80776   8.858   1.770  10.291
59646SOL    HW180777   8.826   1.852  10.252
59646SOL    HW280778   8.928   1.798  10.351
59647SOL     OW80779  11.825  12.337   5.943
59647SOL    HW180780  11.774  12.314   6.020
59647SOL    HW280781  11.765  12.391   5.891
59648SOL     OW80782  12.640  14.126   6.872
59648SOL    HW180783  12.607  14.186   6.805
59648SOL    HW280784  12.582  14.050   6.867
59649SOL     OW80785   3.427   0.919  11.521
59649SOL    HW180786   3.406   0.825  11.517
59649SOL    HW280787   3.360   0.956  11.578
59650SOL     OW80788   3.433   9.468   0.897
59650SOL    HW180789   3.440   9.379   0.931
59650SOL    HW280790   3.446   9.460   0.803
59651SOL     OW80791  14.819  10.534   7.627
59651SOL    HW180792  14.741  10.480   7.628
59651SOL    HW280793  14.833  10.558   7.719
59652SOL     OW80794   9.862   6.223   7.332
59652SOL    HW180795   9.778   6.191   7.365
59652SOL    HW280796   9.839   6.300   7.279
59653SOL     OW80797   1.606   0.376   5.492
59653SOL    HW180798   1.516   0.349   5.507
59653SOL    HW280799   1.627   0.430   5.568
59654SOL     OW80800   9.811   3.839  14.183
59654SOL    HW180801   9.786   3.923  14.146
59654SOL    HW280802   9.805   3.778  14.109
59655SOL     OW80803   3.586   4.969   6.594
59655SOL    HW180804   3.664   5.001   6.550
59655SOL    HW280805   3.530   4.935   6.524
59656SOL     OW80806  12.603   2.989   0.454
59656SOL    HW180807  12.625   2.964   0.544
59656SOL    HW280808  12.688   2.990   0.409
59657SOL     OW80809  13.567  11.414   8.242
59657SOL    HW180810  13.590  11.372   8.159
59657SOL    HW280811  13.568  11.508   8.223
59658SOL     OW80812  10.049   3.762   3.334
59658SOL    HW180813  10.018   3.739   3.247
59658SOL    HW280814  10.105   3.689   3.361
59659SOL     OW80815   8.650   2.558   6.696
59659SOL    HW180816   8.590   2.589   6.629
59659SOL    HW280817   8.628   2.466   6.707
59660SOL     OW80818   5.744   2.287   1.806
59660SOL    HW180819   5.793   2.360   1.769
59660SOL    HW280820   5.671   2.274   1.745
59661SOL     OW80821   8.659   8.978  14.071
59661SOL    HW180822   8.743   8.932  14.069
59661SOL    HW280823   8.648   9.004  14.162
59662SOL     OW80824   2.988   2.888   2.389
59662SOL    HW180825   3.032   2.866   2.307
59662SOL    HW280826   3.014   2.978   2.407
59663SOL     OW80827  14.167   1.582   9.783
59663SOL    HW180828  14.087   1.590   9.731
59663SOL    HW280829  14.176   1.488   9.799
59664SOL     OW80830   3.156  12.918   1.062
59664SOL    HW180831   3.105  12.885   0.988
59664SOL    HW280832   3.202  12.995   1.028
59665SOL     OW80833  13.407   2.489   4.229
59665SOL    HW180834  13.339   2.527   4.284
59665SOL    HW280835  13.473   2.558   4.222
59666SOL     OW80836   4.829   4.452   3.781
59666SOL    HW180837   4.828   4.527   3.721
59666SOL    HW280838   4.807   4.377   3.726
59667SOL     OW80839   0.385   5.209  12.800
59667SOL    HW180840   0.390   5.260  12.719
59667SOL    HW280841   0.307   5.242  12.844
59668SOL     OW80842   9.840   5.157  11.617
59668SOL    HW180843   9.893   5.180  11.540
59668SOL    HW280844   9.891   5.089  11.662
59669SOL     OW80845   2.881  12.721  10.031
59669SOL    HW180846   2.877  12.632   9.996
59669SOL    HW280847   2.972  12.748  10.017
59670SOL     OW80848   2.522   7.117  13.115
59670SOL    HW180849   2.504   7.037  13.065
59670SOL    HW280850   2.436   7.141  13.151
59671SOL     OW80851   0.005   2.969   1.927
59671SOL    HW180852   0.026   3.024   1.852
59671SOL    HW280853   0.086   2.922   1.946
59672SOL     OW80854   0.281   1.510   1.528
59672SOL    HW180855   0.362   1.546   1.564
59672SOL    HW280856   0.282   1.418   1.556
59673SOL     OW80857  14.456  14.795   2.638
59673SOL    HW180858  14.463  14.726   2.704
59673SOL    HW280859  14.369  14.784   2.601
59674SOL     OW80860   2.693   7.065   1.131
59674SOL    HW180861   2.625   7.091   1.068
59674SOL    HW280862   2.668   7.109   1.212
59675SOL     OW80863   7.310   8.918   4.167
59675SOL    HW180864   7.330   8.869   4.246
59675SOL    HW280865   7.307   8.852   4.098
59676SOL     OW80866   1.841   5.171   3.496
59676SOL    HW180867   1.934   5.182   3.519
59676SOL    HW280868   1.802   5.256   3.514
59677SOL     OW80869  13.712   9.033   8.326
59677SOL    HW180870  13.762   9.046   8.246
59677SOL    HW280871  13.778   9.028   8.395
59678SOL     OW80872  10.888  14.022   7.057
59678SOL    HW180873  10.977  14.056   7.066
59678SOL    HW280874  10.898  13.943   7.004
59679SOL     OW80875  11.752   7.404   6.278
59679SOL    HW180876  11.786   7.316   6.293
59679SOL    HW280877  11.682   7.391   6.214
59680SOL     OW80878  13.991   2.904   0.871
59680SOL    HW180879  14.043   2.947   0.803
59680SOL    HW280880  14.010   2.955   0.950
59681SOL     OW80881  10.839  13.336  12.526
59681SOL    HW180882  10.754  13.309  12.561
59681SOL    HW280883  10.817  13.381  12.444
59682SOL     OW80884  13.124  12.892   5.368
59682SOL    HW180885  13.171  12.851   5.440
59682SOL    HW280886  13.032  12.888   5.395
59683SOL     OW80887  10.317   7.952  11.828
59683SOL    HW180888  10.400   7.942  11.875
59683SOL    HW280889  10.296   7.863  11.798
59684SOL     OW80890  12.279   7.728   5.472
59684SOL    HW180891  12.355   7.673   5.451
59684SOL    HW280892  12.212   7.700   5.410
59685SOL     OW80893   9.685   0.480  11.324
59685SOL    HW180894   9.760   0.530  11.291
59685SOL    HW280895   9.619   0.486  11.255
59686SOL     OW80896  10.614   1.988  12.327
59686SOL    HW180897  10.653   2.018  12.245
59686SOL    HW280898  10.687   1.986  12.388
59687SOL     OW80899   9.050   2.309   5.642
59687SOL    HW180900   9.072   2.273   5.556
59687SOL    HW280901   8.966   2.270   5.664
59688SOL     OW80902   8.215   3.969   1.932
59688SOL    HW180903   8.121   3.952   1.944
59688SOL    HW280904   8.219   4.023   1.853
59689SOL     OW80905   9.697   7.768  14.571
59689SOL    HW180906   9.737   7.702  14.513
59689SOL    HW280907   9.772   7.810  14.613
59690SOL     OW80908   3.947  12.050   5.871
59690SOL    HW180909   4.009  12.097   5.815
59690SOL    HW280910   3.929  12.110   5.943
59691SOL     OW80911   5.958  12.037   5.161
59691SOL    HW180912   5.947  12.094   5.237
59691SOL    HW280913   5.878  12.050   5.110
59692SOL     OW80914   9.361   6.103   9.215
59692SOL    HW180915   9.355   6.171   9.148
59692SOL    HW280916   9.424   6.040   9.181
59693SOL     OW80917  13.236  11.821   9.062
59693SOL    HW180918  13.199  11.834   8.974
59693SOL    HW280919  13.324  11.857   9.056
59694SOL     OW80920   6.885   6.239  10.922
59694SOL    HW180921   6.863   6.332  10.920
59694SOL    HW280922   6.975   6.236  10.952
59695SOL     OW80923  12.563  14.659   0.509
59695SOL    HW180924  12.473  14.635   0.486
59695SOL    HW280925  12.604  14.682   0.426
59696SOL     OW80926   7.795  10.731   0.957
59696SOL    HW180927   7.866  10.791   0.936
59696SOL    HW280928   7.723  10.757   0.899
59697SOL     OW80929   3.611   8.777   2.968
59697SOL    HW180930   3.547   8.708   2.984
59697SOL    HW280931   3.608   8.832   3.046
59698SOL     OW80932   0.539   6.798   9.130
59698SOL    HW180933   0.507   6.861   9.065
59698SOL    HW280934   0.571   6.724   9.078
59699SOL     OW80935   8.233  13.375   0.854
59699SOL    HW180936   8.262  13.350   0.942
59699SOL    HW280937   8.167  13.310   0.831
59700SOL     OW80938   3.541   8.608   9.757
59700SOL    HW180939   3.596   8.602   9.678
59700SOL    HW280940   3.554   8.524   9.801
59701SOL     OW80941  13.713  11.887   6.434
59701SOL    HW180942  13.675  11.970   6.404
59701SOL    HW280943  13.771  11.859   6.363
59702SOL     OW80944   2.545  11.651   8.163
59702SOL    HW180945   2.471  11.672   8.106
59702SOL    HW280946   2.505  11.619   8.244
59703SOL     OW80947   2.040   2.413  14.316
59703SOL    HW180948   2.020   2.486  14.375
59703SOL    HW280949   1.961   2.402  14.264
59704SOL     OW80950   1.452  14.652   4.140
59704SOL    HW180951   1.384  14.628   4.077
59704SOL    HW280952   1.486  14.568   4.171
59705SOL     OW80953  12.894   8.764  13.708
59705SOL    HW180954  12.895   8.787  13.615
59705SOL    HW280955  12.807   8.729  13.723
59706SOL     OW80956   6.468  12.515  10.988
59706SOL    HW180957   6.460  12.581  11.057
59706SOL    HW280958   6.562  12.502  10.979
59707SOL     OW80959  10.269  14.216   6.875
59707SOL    HW180960  10.361  14.190   6.884
59707SOL    HW280961  10.256  14.282   6.942
59708SOL     OW80962   3.194   9.739  13.883
59708SOL    HW180963   3.273   9.732  13.937
59708SOL    HW280964   3.123   9.713  13.941
59709SOL     OW80965   7.244   6.281   9.734
59709SOL    HW180966   7.278   6.217   9.797
59709SOL    HW280967   7.318   6.337   9.713
59710SOL     OW80968   2.094  12.932   4.106
59710SOL    HW180969   2.078  13.026   4.113
59710SOL    HW280970   2.027  12.891   4.160
59711SOL     OW80971   4.715   8.709  11.072
59711SOL    HW180972   4.717   8.685  10.979
59711SOL    HW280973   4.794   8.762  11.085
59712SOL     OW80974   5.182  12.684  10.250
59712SOL    HW180975   5.266  12.715  10.217
59712SOL    HW280976   5.121  12.755  10.231
59713SOL     OW80977  12.275   8.940  10.704
59713SOL    HW180978  12.354   8.956  10.652
59713SOL    HW280979  12.292   8.857  10.748
59714SOL     OW80980  10.442   0.629  13.693
59714SOL    HW180981  10.426   0.608  13.785
59714SOL    HW280982  10.372   0.690  13.670
59715SOL     OW80983   2.344   3.070  14.441
59715SOL    HW180984   2.402   3.087  14.516
59715SOL    HW280985   2.354   2.977  14.423
59716SOL     OW80986  12.038   5.407   8.853
59716SOL    HW180987  12.019   5.500   8.866
59716SOL    HW280988  12.089   5.404   8.772
59717SOL     OW80989  10.162   0.713   1.655
59717SOL    HW180990  10.180   0.807   1.650
59717SOL    HW280991  10.241   0.671   1.620
59718SOL     OW80992   1.661   9.572   9.261
59718SOL    HW180993   1.628   9.592   9.174
59718SOL    HW280994   1.583   9.559   9.315
59719SOL     OW80995   9.983   8.090   6.210
59719SOL    HW180996  10.057   8.030   6.212
59719SOL    HW280997   9.912   8.039   6.169
59720SOL     OW80998   8.413   0.638   7.555
59720SOL    HW180999   8.332   0.681   7.583
59720SOL    HW281000   8.414   0.555   7.602
59721SOL     OW81001  14.363   8.653   5.558
59721SOL    HW181002  14.390   8.623   5.645
59721SOL    HW281003  14.420   8.727   5.540
59722SOL     OW81004   1.612  13.620  14.822
59722SOL    HW181005   1.691  13.653  14.865
59722SOL    HW281006   1.603  13.674  14.743
59723SOL     OW81007   8.344   2.380   9.076
59723SOL    HW181008   8.429   2.346   9.049
59723SOL    HW281009   8.285   2.306   9.068
59724SOL     OW81010   9.115  13.158  14.543
59724SOL    HW181011   9.146  13.181  14.630
59724SOL    HW281012   9.019  13.160  14.551
59725SOL     OW81013   6.533   7.674  14.208
59725SOL    HW181014   6.614   7.623  14.203
59725SOL    HW281015   6.540   7.721  14.292
59726SOL     OW81016  13.950  12.570   4.379
59726SOL    HW181017  13.961  12.573   4.474
59726SOL    HW281018  13.979  12.482   4.354
59727SOL     OW81019  11.959   2.160  14.452
59727SOL    HW181020  12.004   2.106  14.387
59727SOL    HW281021  11.918   2.097  14.511
59728SOL     OW81022   8.786  10.869   9.954
59728SOL    HW181023   8.838  10.871  10.034
59728SOL    HW281024   8.824  10.797   9.903
59729SOL     OW81025   8.469   8.835  13.265
59729SOL    HW181026   8.533   8.899  13.234
59729SOL    HW281027   8.429   8.800  13.186
59730SOL     OW81028   4.291  10.221  13.168
59730SOL    HW181029   4.253  10.191  13.250
59730SOL    HW281030   4.254  10.164  13.101
59731SOL     OW81031   4.058   2.039   6.575
59731SOL    HW181032   4.049   1.950   6.542
59731SOL    HW281033   4.090   2.089   6.500
59732SOL     OW81034   9.110   2.362  13.087
59732SOL    HW181035   9.194   2.350  13.044
59732SOL    HW281036   9.120   2.321  13.173
59733SOL     OW81037  10.191   4.894  14.530
59733SOL    HW181038  10.139   4.969  14.500
59733SOL    HW281039  10.274   4.902  14.482
59734SOL     OW81040  13.068   5.887   2.396
59734SOL    HW181041  12.975   5.870   2.416
59734SOL    HW281042  13.072   5.981   2.382
59735SOL     OW81043  12.134  10.027   5.855
59735SOL    HW181044  12.136   9.934   5.875
59735SOL    HW281045  12.079  10.066   5.923
59736SOL     OW81046   0.716   9.236   7.074
59736SOL    HW181047   0.741   9.294   7.002
59736SOL    HW281048   0.684   9.157   7.032
59737SOL     OW81049   9.511   8.222  13.969
59737SOL    HW181050   9.543   8.306  14.003
59737SOL    HW281051   9.430   8.206  14.016
59738SOL     OW81052   7.249  10.941  13.445
59738SOL    HW181053   7.158  10.953  13.471
59738SOL    HW281054   7.257  10.847  13.427
59739SOL     OW81055   5.441   9.214  11.190
59739SOL    HW181056   5.520   9.258  11.220
59739SOL    HW281057   5.375   9.283  11.189
59740SOL     OW81058  11.043   7.102   2.096
59740SOL    HW181059  10.976   7.035   2.086
59740SOL    HW281060  11.010   7.157   2.167
59741SOL     OW81061   6.360   4.706  10.636
59741SOL    HW181062   6.312   4.788  10.651
59741SOL    HW281063   6.298   4.651  10.588
59742SOL     OW81064  11.862  11.764   3.240
59742SOL    HW181065  11.828  11.748   3.328
59742SOL    HW281066  11.898  11.853   3.244
59743SOL     OW81067   9.461   6.260   4.318
59743SOL    HW181068   9.504   6.304   4.245
59743SOL    HW281069   9.374   6.239   4.286
59744SOL     OW81070  12.136   5.987   1.736
59744SOL    HW181071  12.174   5.925   1.798
59744SOL    HW281072  12.191   5.980   1.658
59745SOL     OW81073   7.754   0.661  11.551
59745SOL    HW181074   7.729   0.576  11.514
59745SOL    HW281075   7.688   0.722  11.518
59746SOL     OW81076   9.139   4.639   2.746
59746SOL    HW181077   9.174   4.658   2.833
59746SOL    HW281078   9.079   4.711   2.728
59747SOL     OW81079  12.380  11.120   1.497
59747SOL    HW181080  12.374  11.216   1.499
59747SOL    HW281081  12.300  11.090   1.542
59748SOL     OW81082   6.281  12.659   9.633
59748SOL    HW181083   6.364  12.656   9.585
59748SOL    HW281084   6.266  12.753   9.648
59749SOL     OW81085   5.344   1.314  14.360
59749SOL    HW181086   5.322   1.267  14.279
59749SOL    HW281087   5.310   1.403  14.346
59750SOL     OW81088   7.799   9.330   3.569
59750SOL    HW181089   7.784   9.359   3.659
59750SOL    HW281090   7.876   9.274   3.575
59751SOL     OW81091   9.866   6.258   5.033
59751SOL    HW181092   9.908   6.173   5.040
59751SOL    HW281093   9.931   6.320   5.067
59752SOL     OW81094  10.856  10.111   8.697
59752SOL    HW181095  10.905  10.164   8.635
59752SOL    HW281096  10.872  10.151   8.782
59753SOL     OW81097   5.259   2.019   2.957
59753SOL    HW181098   5.294   1.948   2.904
59753SOL    HW281099   5.325   2.088   2.953
59754SOL     OW81100   6.810   2.442   3.903
59754SOL    HW181101   6.902   2.451   3.880
59754SOL    HW281102   6.775   2.380   3.839
59755SOL     OW81103   1.766   2.428   9.037
59755SOL    HW181104   1.720   2.512   9.034
59755SOL    HW281105   1.802   2.423   9.125
59756SOL     OW81106   8.794   4.890   4.612
59756SOL    HW181107   8.721   4.917   4.557
59756SOL    HW281108   8.755   4.832   4.677
59757SOL     OW81109  12.170   8.774   1.392
59757SOL    HW181110  12.226   8.826   1.334
59757SOL    HW281111  12.160   8.690   1.347
59758SOL     OW81112  13.075  14.423   6.581
59758SOL    HW181113  12.982  14.402   6.587
59758SOL    HW281114  13.094  14.472   6.661
59759SOL     OW81115   4.915   6.190  14.568
59759SOL    HW181116   5.007   6.213  14.583
59759SOL    HW281117   4.866   6.251  14.623
59760SOL     OW81118  10.534  11.771   8.680
59760SOL    HW181119  10.593  11.776   8.605
59760SOL    HW281120  10.566  11.696   8.730
59761SOL     OW81121   1.850  10.998  10.163
59761SOL    HW181122   1.785  10.935  10.133
59761SOL    HW281123   1.859  10.980  10.257
59762SOL     OW81124   1.293  12.418   5.036
59762SOL    HW181125   1.322  12.340   4.988
59762SOL    HW281126   1.298  12.489   4.972
59763SOL     OW81127   8.248   5.499   1.802
59763SOL    HW181128   8.306   5.525   1.873
59763SOL    HW281129   8.233   5.579   1.752
59764SOL     OW81130   6.365   6.898  13.753
59764SOL    HW181131   6.367   6.943  13.669
59764SOL    HW281132   6.296   6.942  13.803
59765SOL     OW81133   1.933   4.945   3.186
59765SOL    HW181134   1.962   4.966   3.097
59765SOL    HW281135   1.968   5.015   3.240
59766SOL     OW81136   2.959   4.422  11.802
59766SOL    HW181137   2.954   4.328  11.785
59766SOL    HW281138   2.984   4.428  11.894
59767SOL     OW81139   4.830   5.414  10.507
59767SOL    HW181140   4.910   5.368  10.535
59767SOL    HW281141   4.785   5.435  10.589
59768SOL     OW81142   0.830   7.943   7.568
59768SOL    HW181143   0.776   8.023   7.574
59768SOL    HW281144   0.784   7.881   7.625
59769SOL     OW81145   3.616   5.274   2.007
59769SOL    HW181146   3.661   5.190   1.994
59769SOL    HW281147   3.566   5.262   2.087
59770SOL     OW81148  13.233   3.785  12.667
59770SOL    HW181149  13.188   3.749  12.743
59770SOL    HW281150  13.239   3.879  12.684
59771SOL     OW81151   7.825   3.769   4.461
59771SOL    HW181152   7.799   3.775   4.369
59771SOL    HW281153   7.767   3.702   4.498
59772SOL     OW81154   2.183   8.598  10.200
59772SOL    HW181155   2.147   8.590  10.112
59772SOL    HW281156   2.154   8.684  10.231
59773SOL     OW81157  12.947   4.437   7.267
59773SOL    HW181158  12.933   4.493   7.190
59773SOL    HW281159  13.005   4.368   7.235
59774SOL     OW81160  10.748   2.548   4.256
59774SOL    HW181161  10.703   2.631   4.271
59774SOL    HW281162  10.791   2.559   4.172
59775SOL     OW81163  14.439  10.121   9.151
59775SOL    HW181164  14.468  10.210   9.171
59775SOL    HW281165  14.473  10.068   9.223
59776SOL     OW81166  13.717   1.138  11.993
59776SOL    HW181167  13.723   1.095  11.908
59776SOL    HW281168  13.643   1.198  11.985
59777SOL     OW81169   0.475   3.015   2.134
59777SOL    HW181170   0.388   2.975   2.135
59777SOL    HW281171   0.509   2.996   2.046
59778SOL     OW81172   0.835  13.022   4.687
59778SOL    HW181173   0.892  13.086   4.728
59778SOL    HW281174   0.883  12.940   4.692
59779SOL     OW81175   1.869  10.777  13.909
59779SOL    HW181176   1.911  10.786  13.995
59779SOL    HW281177   1.882  10.685  13.886
59780SOL     OW81178  14.471  14.840   5.274
59780SOL    HW181179  14.514  14.873   5.352
59780SOL    HW281180  14.465  14.746   5.288
59781SOL     OW81181   3.816   1.285   8.574
59781SOL    HW181182   3.804   1.367   8.527
59781SOL    HW281183   3.837   1.221   8.506
59782SOL     OW81184   6.914   4.662   0.930
59782SOL    HW181185   6.941   4.631   0.844
59782SOL    HW281186   6.819   4.663   0.927
59783SOL     OW81187   4.736   5.189   5.597
59783SOL    HW181188   4.807   5.151   5.546
59783SOL    HW281189   4.716   5.122   5.663
59784SOL     OW81190  13.490   0.340  14.476
59784SOL    HW181191  13.444   0.283  14.537
59784SOL    HW281192  13.499   0.423  14.522
59785SOL     OW81193  11.770   7.948   1.656
59785SOL    HW181194  11.685   7.945   1.699
59785SOL    HW281195  11.764   8.023   1.596
59786SOL     OW81196   9.120  12.342   4.865
59786SOL    HW181197   9.098  12.430   4.835
59786SOL    HW281198   9.059  12.285   4.818
59787SOL     OW81199   5.836  12.271   9.691
59787SOL    HW181200   5.893  12.270   9.614
59787SOL    HW281201   5.774  12.341   9.674
59788SOL     OW81202  13.093   4.616   0.888
59788SOL    HW181203  13.059   4.531   0.862
59788SOL    HW281204  13.022   4.656   0.937
59789SOL     OW81205   6.571   9.771   8.457
59789SOL    HW181206   6.576   9.852   8.507
59789SOL    HW281207   6.583   9.702   8.523
59790SOL     OW81208   2.549   7.081   2.913
59790SOL    HW181209   2.631   7.076   2.962
59790SOL    HW281210   2.568   7.038   2.829
59791SOL     OW81211  13.602   3.232   0.476
59791SOL    HW181212  13.538   3.162   0.470
59791SOL    HW281213  13.656   3.210   0.552
59792SOL     OW81214  11.463  12.367   7.665
59792SOL    HW181215  11.431  12.296   7.721
59792SOL    HW281216  11.546  12.335   7.630
59793SOL     OW81217  10.801   0.622  12.383
59793SOL    HW181218  10.759   0.538  12.371
59793SOL    HW281219  10.872   0.605  12.446
59794SOL     OW81220  11.767  11.678   3.518
59794SOL    HW181221  11.853  11.636   3.510
59794SOL    HW281222  11.771  11.725   3.601
59795SOL     OW81223   6.488   6.945   6.466
59795SOL    HW181224   6.535   7.008   6.520
59795SOL    HW281225   6.469   6.994   6.385
59796SOL     OW81226  10.310  11.817  13.394
59796SOL    HW181227  10.365  11.751  13.351
59796SOL    HW281228  10.324  11.896  13.343
59797SOL     OW81229   6.181   3.132   3.365
59797SOL    HW181230   6.175   3.099   3.275
59797SOL    HW281231   6.221   3.218   3.355
59798SOL     OW81232   1.348   2.898   3.950
59798SOL    HW181233   1.262   2.874   3.983
59798SOL    HW281234   1.410   2.851   4.006
59799SOL     OW81235   8.636   0.210  13.157
59799SOL    HW181236   8.620   0.255  13.240
59799SOL    HW281237   8.552   0.213  13.111
59800SOL     OW81238   9.468   7.501   0.413
59800SOL    HW181239   9.531   7.507   0.484
59800SOL    HW281240   9.396   7.558   0.439
59801SOL     OW81241   8.388   4.589   2.298
59801SOL    HW181242   8.399   4.545   2.382
59801SOL    HW281243   8.430   4.530   2.235
59802SOL     OW81244   4.142   7.690   2.725
59802SOL    HW181245   4.080   7.749   2.768
59802SOL    HW281246   4.211   7.676   2.789
59803SOL     OW81247   6.556   2.761   6.746
59803SOL    HW181248   6.542   2.846   6.786
59803SOL    HW281249   6.471   2.717   6.752
59804SOL     OW81250   6.856   0.544   7.345
59804SOL    HW181251   6.801   0.620   7.324
59804SOL    HW281252   6.794   0.471   7.351
59805SOL     OW81253  10.437   9.941  12.865
59805SOL    HW181254  10.388   9.918  12.786
59805SOL    HW281255  10.504   9.873  12.873
59806SOL     OW81256   8.049   9.747   5.248
59806SOL    HW181257   7.979   9.713   5.192
59806SOL    HW281258   8.122   9.764   5.189
59807SOL     OW81259   8.873   9.992  13.461
59807SOL    HW181260   8.862   9.967  13.370
59807SOL    HW281261   8.823   9.927  13.510
59808SOL     OW81262  13.883   3.485  10.195
59808SOL    HW181263  13.898   3.423  10.266
59808SOL    HW281264  13.958   3.545  10.199
59809SOL     OW81265  10.203  13.814   6.405
59809SOL    HW181266  10.177  13.895   6.448
59809SOL    HW281267  10.192  13.831   6.311
59810SOL     OW81268   1.991   8.236  13.226
59810SOL    HW181269   1.926   8.231  13.296
59810SOL    HW281270   2.052   8.304  13.256
59811SOL     OW81271   9.337   9.459   9.315
59811SOL    HW181272   9.296   9.540   9.343
59811SOL    HW281273   9.270   9.392   9.329
59812SOL     OW81274  14.775   7.774   5.614
59812SOL    HW181275  14.710   7.715   5.653
59812SOL    HW281276  14.799   7.732   5.531
59813SOL     OW81277   0.098   8.441  14.697
59813SOL    HW181278   0.003   8.430  14.699
59813SOL    HW281279   0.132   8.352  14.693
59814SOL     OW81280   3.020  13.845   4.055
59814SOL    HW181281   3.061  13.908   4.115
59814SOL    HW281282   3.083  13.773   4.051
59815SOL     OW81283  12.189   2.101   0.348
59815SOL    HW181284  12.180   2.188   0.388
59815SOL    HW281285  12.099   2.070   0.340
59816SOL     OW81286  12.464   6.986   3.163
59816SOL    HW181287  12.523   7.061   3.158
59816SOL    HW281288  12.495   6.937   3.239
59817SOL     OW81289   3.384   0.229   6.016
59817SOL    HW181290   3.409   0.227   5.923
59817SOL    HW281291   3.468   0.237   6.062
59818SOL     OW81292   9.523   1.738   3.451
59818SOL    HW181293   9.485   1.822   3.475
59818SOL    HW281294   9.573   1.755   3.372
59819SOL     OW81295  10.136   2.307  10.266
59819SOL    HW181296  10.158   2.219  10.298
59819SOL    HW281297  10.090   2.348  10.339
59820SOL     OW81298   8.352  13.271   1.106
59820SOL    HW181299   8.287  13.318   1.157
59820SOL    HW281300   8.384  13.202   1.164
59821SOL     OW81301   2.655   0.111   7.350
59821SOL    HW181302   2.641   0.024   7.313
59821SOL    HW281303   2.623   0.104   7.440
59822SOL     OW81304   6.552   2.018   4.769
59822SOL    HW181305   6.583   1.930   4.747
59822SOL    HW281306   6.622   2.054   4.824
59823SOL     OW81307   1.642   1.614  14.266
59823SOL    HW181308   1.617   1.522  14.278
59823SOL    HW281309   1.689   1.615  14.183
59824SOL     OW81310   1.283  12.618   3.141
59824SOL    HW181311   1.301  12.712   3.128
59824SOL    HW281312   1.199  12.603   3.097
59825SOL     OW81313   4.039  11.050  14.782
59825SOL    HW181314   4.095  11.025  14.708
59825SOL    HW281315   4.097  11.103  14.838
59826SOL     OW81316   6.981   0.594   1.350
59826SOL    HW181317   7.061   0.543   1.365
59826SOL    HW281318   7.008   0.685   1.365
59827SOL     OW81319   4.597   2.291   5.119
59827SOL    HW181320   4.549   2.360   5.165
59827SOL    HW281321   4.538   2.216   5.120
59828SOL     OW81322   6.059   6.302   1.951
59828SOL    HW181323   6.128   6.362   1.922
59828SOL    HW281324   5.981   6.332   1.905
59829SOL     OW81325   6.656   8.661  14.332
59829SOL    HW181326   6.720   8.702  14.273
59829SOL    HW281327   6.619   8.590  14.280
59830SOL     OW81328  11.295   4.840   3.176
59830SOL    HW181329  11.290   4.867   3.267
59830SOL    HW281330  11.327   4.750   3.178
59831SOL     OW81331  10.988  13.943  14.392
59831SOL    HW181332  10.931  13.943  14.316
59831SOL    HW281333  11.076  13.936  14.357
59832SOL     OW81334  14.117   0.266  14.751
59832SOL    HW181335  14.055   0.313  14.807
59832SOL    HW281336  14.063   0.222  14.687
59833SOL     OW81337   6.170  10.945  13.106
59833SOL    HW181338   6.229  10.877  13.138
59833SOL    HW281339   6.227  11.002  13.053
59834SOL     OW81340  10.657   4.130  11.889
59834SOL    HW181341  10.644   4.141  11.984
59834SOL    HW281342  10.724   4.063  11.882
59835SOL     OW81343  11.467  12.881   6.941
59835SOL    HW181344  11.384  12.857   6.901
59835SOL    HW281345  11.453  12.869   7.035
59836SOL     OW81346   2.482   2.115   5.955
59836SOL    HW181347   2.421   2.047   5.924
59836SOL    HW281348   2.552   2.115   5.890
59837SOL     OW81349   8.240   5.304   6.551
59837SOL    HW181350   8.188   5.370   6.506
59837SOL    HW281351   8.226   5.224   6.500
59838SOL     OW81352   6.297  13.598  12.438
59838SOL    HW181353   6.386  13.584  12.405
59838SOL    HW281354   6.251  13.516  12.420
59839SOL     OW81355  11.868   7.158   5.520
59839SOL    HW181356  11.801   7.225   5.511
59839SOL    HW281357  11.951   7.206   5.517
59840SOL     OW81358   9.011   1.264   3.872
59840SOL    HW181359   9.046   1.353   3.865
59840SOL    HW281360   9.011   1.232   3.782
59841SOL     OW81361   1.826   6.234   7.464
59841SOL    HW181362   1.819   6.326   7.437
59841SOL    HW281363   1.826   6.237   7.559
59842SOL     OW81364   0.307   3.465   9.045
59842SOL    HW181365   0.258   3.537   9.083
59842SOL    HW281366   0.378   3.507   8.995
59843SOL     OW81367  11.948  14.718   4.137
59843SOL    HW181368  12.042  14.719   4.158
59843SOL    HW281369  11.944  14.693   4.045
59844SOL     OW81370   7.228  11.428   3.910
59844SOL    HW181371   7.219  11.482   3.989
59844SOL    HW281372   7.144  11.438   3.865
59845SOL     OW81373  12.575   1.237   2.050
59845SOL    HW181374  12.547   1.314   2.001
59845SOL    HW281375  12.580   1.267   2.141
59846SOL     OW81376  13.411   2.396   5.681
59846SOL    HW181377  13.340   2.456   5.659
59846SOL    HW281378  13.491   2.446   5.664
59847SOL     OW81379  13.484   3.034  12.281
59847SOL    HW181380  13.539   3.091  12.228
59847SOL    HW281381  13.546   2.987  12.338
59848SOL     OW81382   7.813   4.253   9.937
59848SOL    HW181383   7.758   4.235  10.013
59848SOL    HW281384   7.902   4.258   9.972
59849SOL     OW81385   2.635   9.318  11.866
59849SOL    HW181386   2.721   9.360  11.858
59849SOL    HW281387   2.582   9.359  11.797
59850SOL     OW81388   1.867   0.485   9.585
59850SOL    HW181389   1.868   0.479   9.680
59850SOL    HW281390   1.868   0.579   9.566
59851SOL     OW81391   2.305   3.449   7.241
59851SOL    HW181392   2.310   3.537   7.278
59851SOL    HW281393   2.374   3.447   7.175
59852SOL     OW81394  14.655   5.692  13.278
59852SOL    HW181395  14.574   5.701  13.328
59852SOL    HW281396  14.707   5.628  13.327
59853SOL     OW81397   4.903   2.863  13.959
59853SOL    HW181398   4.903   2.931  13.892
59853SOL    HW281399   4.836   2.892  14.022
59854SOL     OW81400   0.117   2.793  11.923
59854SOL    HW181401   0.075   2.827  12.002
59854SOL    HW281402   0.068   2.713  11.903
59855SOL     OW81403   7.195   2.341  12.678
59855SOL    HW181404   7.189   2.339  12.582
59855SOL    HW281405   7.265   2.279  12.698
59856SOL     OW81406  11.342   6.948  13.550
59856SOL    HW181407  11.425   6.908  13.576
59856SOL    HW281408  11.284   6.874  13.531
59857SOL     OW81409   9.614   0.676   5.189
59857SOL    HW181410   9.619   0.754   5.133
59857SOL    HW281411   9.630   0.603   5.130
59858SOL     OW81412   8.476  11.336  14.428
59858SOL    HW181413   8.413  11.264  14.415
59858SOL    HW281414   8.522  11.342  14.344
59859SOL     OW81415   6.354   1.333  14.091
59859SOL    HW181416   6.397   1.359  14.009
59859SOL    HW281417   6.325   1.415  14.130
59860SOL     OW81418   0.250   2.742   3.984
59860SOL    HW181419   0.188   2.678   3.948
59860SOL    HW281420   0.317   2.688   4.027
59861SOL     OW81421  14.271  11.407  13.008
59861SOL    HW181422  14.362  11.391  12.980
59861SOL    HW281423  14.245  11.327  13.053
59862SOL     OW81424   2.064   3.670   7.111
59862SOL    HW181425   2.152   3.692   7.140
59862SOL    HW281426   2.040   3.740   7.049
59863SOL     OW81427   3.889   1.938  12.713
59863SOL    HW181428   3.850   2.014  12.757
59863SOL    HW281429   3.823   1.908  12.651
59864SOL     OW81430   5.152   3.963  12.381
59864SOL    HW181431   5.120   3.873  12.373
59864SOL    HW281432   5.159   3.994  12.291
59865SOL     OW81433   6.922  13.154   8.093
59865SOL    HW181434   7.017  13.138   8.100
59865SOL    HW281435   6.891  13.085   8.035
59866SOL     OW81436   9.484   0.116  13.914
59866SOL    HW181437   9.566   0.161  13.935
59866SOL    HW281438   9.476   0.048  13.981
59867SOL     OW81439  11.349   3.955  10.255
59867SOL    HW181440  11.397   3.941  10.336
59867SOL    HW281441  11.417   3.969  10.189
59868SOL     OW81442   2.710  11.800   7.974
59868SOL    HW181443   2.709  11.815   7.879
59868SOL    HW281444   2.671  11.713   7.985
59869SOL     OW81445   1.471   6.443  14.059
59869SOL    HW181446   1.431   6.526  14.085
59869SOL    HW281447   1.398   6.382  14.055
59870SOL     OW81448   7.705  14.460  12.911
59870SOL    HW181449   7.755  14.456  12.993
59870SOL    HW281450   7.623  14.414  12.931
59871SOL     OW81451   1.406   0.335   7.154
59871SOL    HW181452   1.489   0.296   7.180
59871SOL    HW281453   1.416   0.354   7.060
59872SOL     OW81454   8.082  13.165   0.500
59872SOL    HW181455   8.108  13.098   0.564
59872SOL    HW281456   7.995  13.138   0.471
59873SOL     OW81457   9.244   5.989   9.808
59873SOL    HW181458   9.160   5.973   9.764
59873SOL    HW281459   9.305   6.004   9.736
59874SOL     OW81460   8.124  13.179   6.673
59874SOL    HW181461   8.210  13.140   6.690
59874SOL    HW281462   8.139  13.237   6.598
59875SOL     OW81463   6.906  11.062   9.462
59875SOL    HW181464   6.873  10.985   9.507
59875SOL    HW281465   6.843  11.131   9.481
59876SOL     OW81466   9.441   1.693  14.386
59876SOL    HW181467   9.426   1.787  14.374
59876SOL    HW281468   9.457   1.683  14.479
59877SOL     OW81469   7.545   2.778   8.963
59877SOL    HW181470   7.536   2.692   8.923
59877SOL    HW281471   7.638   2.787   8.982
59878SOL     OW81472  11.059   3.748  10.145
59878SOL    HW181473  11.057   3.842  10.130
59878SOL    HW281474  11.151   3.725  10.139
59879SOL     OW81475   0.941   2.447   0.954
59879SOL    HW181476   0.965   2.470   1.044
59879SOL    HW281477   0.980   2.360   0.940
59880SOL     OW81478   0.109   5.442   6.209
59880SOL    HW181479   0.100   5.376   6.277
59880SOL    HW281480   0.058   5.408   6.135
59881SOL     OW81481  10.955  12.770  14.298
59881SOL    HW181482  11.002  12.698  14.339
59881SOL    HW281483  11.004  12.787  14.217
59882SOL     OW81484  10.476   1.284   9.001
59882SOL    HW181485  10.411   1.280   9.072
59882SOL    HW281486  10.556   1.252   9.041
59883SOL     OW81487   0.441   8.769  12.831
59883SOL    HW181488   0.424   8.675  12.826
59883SOL    HW281489   0.387   8.799  12.904
59884SOL     OW81490   0.317   6.946  13.168
59884SOL    HW181491   0.409   6.918  13.168
59884SOL    HW281492   0.288   6.934  13.078
59885SOL     OW81493   3.708  13.787  13.921
59885SOL    HW181494   3.761  13.858  13.958
59885SOL    HW281495   3.666  13.746  13.997
59886SOL     OW81496   7.249  12.228   7.936
59886SOL    HW181497   7.278  12.257   8.022
59886SOL    HW281498   7.196  12.150   7.954
59887SOL     OW81499  11.288   9.882  10.123
59887SOL    HW181500  11.354   9.816  10.141
59887SOL    HW281501  11.331   9.966  10.140
59888SOL     OW81502   4.884  14.327   4.405
59888SOL    HW181503   4.908  14.235   4.390
59888SOL    HW281504   4.906  14.371   4.322
59889SOL     OW81505  11.597   7.073   6.977
59889SOL    HW181506  11.531   7.077   6.908
59889SOL    HW281507  11.549   7.095   7.057
59890SOL     OW81508   1.257   2.023  11.001
59890SOL    HW181509   1.232   2.094  11.061
59890SOL    HW281510   1.212   2.044  10.919
59891SOL     OW81511   7.348   2.073   4.816
59891SOL    HW181512   7.349   2.151   4.870
59891SOL    HW281513   7.283   2.092   4.748
59892SOL     OW81514   0.958   1.398  13.560
59892SOL    HW181515   0.906   1.428  13.485
59892SOL    HW281516   1.043   1.374  13.522
59893SOL     OW81517   3.693   9.518   2.321
59893SOL    HW181518   3.759   9.567   2.273
59893SOL    HW281519   3.725   9.428   2.321
59894SOL     OW81520  10.812   7.554   3.567
59894SOL    HW181521  10.860   7.601   3.635
59894SOL    HW281522  10.849   7.465   3.568
59895SOL     OW81523  12.196  12.618   6.812
59895SOL    HW181524  12.260  12.571   6.864
59895SOL    HW281525  12.112  12.596   6.852
59896SOL     OW81526  14.439   2.226   6.233
59896SOL    HW181527  14.462   2.162   6.166
59896SOL    HW281528  14.350   2.203   6.259
59897SOL     OW81529  13.448   4.141  11.902
59897SOL    HW181530  13.404   4.063  11.938
59897SOL    HW281531  13.511   4.106  11.839
59898SOL     OW81532   2.588   1.133   7.355
59898SOL    HW181533   2.581   1.226   7.377
59898SOL    HW281534   2.559   1.088   7.434
59899SOL     OW81535  10.953   6.123   0.488
59899SOL    HW181536  10.958   6.114   0.583
59899SOL    HW281537  11.038   6.160   0.463
59900SOL     OW81538   4.787   0.751   7.655
59900SOL    HW181539   4.799   0.658   7.674
59900SOL    HW281540   4.698   0.758   7.622
59901SOL     OW81541   7.004   0.642  13.244
59901SOL    HW181542   7.008   0.735  13.267
59901SOL    HW281543   6.922   0.632  13.196
59902SOL     OW81544   1.887   6.418   1.179
59902SOL    HW181545   1.847   6.403   1.094
59902SOL    HW281546   1.829   6.374   1.241
59903SOL     OW81547  14.001  10.001   1.173
59903SOL    HW181548  14.059  10.075   1.192
59903SOL    HW281549  13.950  10.030   1.097
59904SOL     OW81550  12.798  11.663   6.913
59904SOL    HW181551  12.892  11.659   6.932
59904SOL    HW281552  12.768  11.572   6.922
59905SOL     OW81553   0.262  12.295   3.928
59905SOL    HW181554   0.207  12.350   3.984
59905SOL    HW281555   0.350  12.303   3.964
59906SOL     OW81556  13.723  11.853   8.573
59906SOL    HW181557  13.765  11.768   8.588
59906SOL    HW281558  13.741  11.873   8.481
59907SOL     OW81559   4.100   2.993  14.541
59907SOL    HW181560   4.075   2.917  14.592
59907SOL    HW281561   4.053   2.985  14.458
59908SOL     OW81562  14.837  14.111   9.975
59908SOL    HW181563   0.037  14.057   9.974
59908SOL    HW281564  14.778  14.069   9.913
59909SOL     OW81565   3.018  14.379  11.660
59909SOL    HW181566   2.968  14.309  11.618
59909SOL    HW281567   3.103  14.339  11.680
59910SOL     OW81568   4.137  11.485  14.221
59910SOL    HW181569   4.061  11.510  14.169
59910SOL    HW281570   4.168  11.567  14.260
59911SOL     OW81571   7.388  12.602   0.221
59911SOL    HW181572   7.450  12.599   0.294
59911SOL    HW281573   7.324  12.535   0.240
59912SOL     OW81574   1.333   2.985   2.814
59912SOL    HW181575   1.364   2.919   2.752
59912SOL    HW281576   1.360   2.952   2.899
59913SOL     OW81577  12.108  12.221  12.212
59913SOL    HW181578  12.137  12.130  12.219
59913SOL    HW281579  12.176  12.264  12.162
59914SOL     OW81580   0.744  10.475  10.389
59914SOL    HW181581   0.735  10.440  10.300
59914SOL    HW281582   0.758  10.568  10.377
59915SOL     OW81583   4.268  14.676  14.842
59915SOL    HW181584   4.268  14.690  14.748
59915SOL    HW281585   4.306  14.589  14.853
59916SOL     OW81586   7.843  11.490   8.373
59916SOL    HW181587   7.784  11.415   8.358
59916SOL    HW281588   7.861  11.487   8.467
59917SOL     OW81589   9.100  12.829   1.921
59917SOL    HW181590   9.121  12.919   1.897
59917SOL    HW281591   9.182  12.782   1.913
59918SOL     OW81592   6.363  12.761   6.163
59918SOL    HW181593   6.310  12.682   6.165
59918SOL    HW281594   6.433  12.742   6.101
59919SOL     OW81595   8.624   2.003  11.128
59919SOL    HW181596   8.566   1.933  11.097
59919SOL    HW281597   8.613   2.073  11.064
59920SOL     OW81598   4.652   7.725  13.417
59920SOL    HW181599   4.738   7.741  13.455
59920SOL    HW281600   4.598   7.798  13.448
59921SOL     OW81601  10.834  12.653   5.618
59921SOL    HW181602  10.883  12.678   5.696
59921SOL    HW281603  10.787  12.733   5.593
59922SOL     OW81604   7.280   1.696   9.607
59922SOL    HW181605   7.366   1.697   9.564
59922SOL    HW281606   7.293   1.747   9.687
59923SOL     OW81607   9.239   9.001   5.707
59923SOL    HW181608   9.197   9.024   5.624
59923SOL    HW281609   9.217   8.908   5.720
59924SOL     OW81610   8.058  10.416   1.110
59924SOL    HW181611   8.027  10.327   1.089
59924SOL    HW281612   8.132  10.430   1.051
59925SOL     OW81613  13.245   1.914  10.637
59925SOL    HW181614  13.183   1.985  10.618
59925SOL    HW281615  13.296   1.905  10.557
59926SOL     OW81616   4.009   1.825   9.636
59926SOL    HW181617   4.036   1.848   9.724
59926SOL    HW281618   4.073   1.868   9.579
59927SOL     OW81619   7.033  10.336   6.747
59927SOL    HW181620   6.997  10.271   6.687
59927SOL    HW281621   6.983  10.325   6.828
59928SOL     OW81622   3.442   5.056   6.221
59928SOL    HW181623   3.531   5.090   6.216
59928SOL    HW281624   3.389   5.132   6.247
59929SOL     OW81625   8.401   4.680  14.424
59929SOL    HW181626   8.431   4.616  14.489
59929SOL    HW281627   8.334   4.634  14.373
59930SOL     OW81628   8.331   5.374  10.406
59930SOL    HW181629   8.247   5.411  10.377
59930SOL    HW281630   8.376   5.448  10.447
59931SOL     OW81631   2.005  11.586   0.091
59931SOL    HW181632   2.088  11.630   0.109
59931SOL    HW281633   1.997  11.520   0.159
59932SOL     OW81634  10.262   5.065   9.941
59932SOL    HW181635  10.186   5.122   9.952
59932SOL    HW281636  10.239   5.009   9.867
59933SOL     OW81637   1.524   6.202   0.284
59933SOL    HW181638   1.548   6.131   0.225
59933SOL    HW281639   1.451   6.168   0.335
59934SOL     OW81640  13.139  10.252   1.684
59934SOL    HW181641  13.195  10.192   1.634
59934SOL    HW281642  13.052  10.240   1.648
59935SOL     OW81643   8.007   8.162  13.877
59935SOL    HW181644   8.035   8.104  13.948
59935SOL    HW281645   7.991   8.247  13.920
59936SOL     OW81646   0.482   8.562   6.635
59936SOL    HW181647   0.473   8.471   6.664
59936SOL    HW281648   0.432   8.613   6.699
59937SOL     OW81649   1.688   3.201   8.916
59937SOL    HW181650   1.657   3.163   8.997
59937SOL    HW281651   1.736   3.280   8.943
59938SOL     OW81652   4.540  14.766  10.923
59938SOL    HW181653   4.476  14.716  10.975
59938SOL    HW281654   4.488  14.834  10.880
59939SOL     OW81655  10.541   3.453   1.010
59939SOL    HW181656  10.613   3.490   0.959
59939SOL    HW281657  10.575   3.445   1.099
59940SOL     OW81658   1.632   4.713   9.088
59940SOL    HW181659   1.676   4.695   9.171
59940SOL    HW281660   1.539   4.718   9.110
59941SOL     OW81661   3.750   6.884  10.902
59941SOL    HW181662   3.777   6.879  10.994
59941SOL    HW281663   3.814   6.829  10.856
59942SOL     OW81664  12.280  11.079  13.852
59942SOL    HW181665  12.201  11.103  13.804
59942SOL    HW281666  12.255  11.086  13.944
59943SOL     OW81667  11.568  10.596   6.532
59943SOL    HW181668  11.500  10.529   6.545
59943SOL    HW281669  11.543  10.640   6.451
59944SOL     OW81670   9.874   5.833  13.381
59944SOL    HW181671   9.879   5.906  13.319
59944SOL    HW281672   9.925   5.862  13.456
59945SOL     OW81673   9.280   7.649   6.319
59945SOL    HW181674   9.288   7.655   6.224
59945SOL    HW281675   9.204   7.593   6.334
59946SOL     OW81676  14.812   3.552   9.285
59946SOL    HW181677  14.799   3.498   9.363
59946SOL    HW281678  14.877   3.617   9.312
59947SOL     OW81679   1.877   1.517  11.774
59947SOL    HW181680   1.924   1.583  11.824
59947SOL    HW281681   1.868   1.443  11.833
59948SOL     OW81682  12.961   8.898   1.735
59948SOL    HW181683  13.030   8.942   1.784
59948SOL    HW281684  12.949   8.815   1.780
59949SOL     OW81685   4.753   4.528   2.424
59949SOL    HW181686   4.773   4.439   2.453
59949SOL    HW281687   4.663   4.543   2.452
59950SOL     OW81688  14.173   6.500   6.096
59950SOL    HW181689  14.143   6.419   6.136
59950SOL    HW281690  14.098   6.530   6.044
59951SOL     OW81691  13.795   0.748   4.016
59951SOL    HW181692  13.708   0.711   4.031
59951SOL    HW281693  13.855   0.675   4.030
59952SOL     OW81694  11.003   2.984   3.794
59952SOL    HW181695  11.005   3.072   3.833
59952SOL    HW281696  10.957   2.930   3.858
59953SOL     OW81697   6.838   7.785   3.853
59953SOL    HW181698   6.873   7.874   3.862
59953SOL    HW281699   6.893   7.744   3.787
59954SOL     OW81700  10.662  10.254   6.425
59954SOL    HW181701  10.736  10.300   6.465
59954SOL    HW281702  10.701  10.203   6.354
59955SOL     OW81703  13.136   6.473   9.241
59955SOL    HW181704  13.069   6.526   9.199
59955SOL    HW281705  13.101   6.456   9.329
59956SOL     OW81706   7.022  14.359   1.361
59956SOL    HW181707   7.068  14.412   1.427
59956SOL    HW281708   7.059  14.388   1.278
59957SOL     OW81709  11.705   3.192  11.983
59957SOL    HW181710  11.656   3.236  12.052
59957SOL    HW281711  11.784   3.246  11.971
59958SOL     OW81712  10.193  14.288   0.254
59958SOL    HW181713  10.171  14.381   0.255
59958SOL    HW281714  10.263  14.281   0.189
59959SOL     OW81715   6.589  10.814   5.841
59959SOL    HW181716   6.681  10.795   5.824
59959SOL    HW281717   6.571  10.772   5.925
59960SOL     OW81718   3.890   8.349   3.786
59960SOL    HW181719   3.829   8.423   3.779
59960SOL    HW281720   3.936   8.364   3.868
59961SOL     OW81721  12.219  13.518   2.951
59961SOL    HW181722  12.198  13.432   2.987
59961SOL    HW281723  12.141  13.543   2.901
59962SOL     OW81724   0.888   7.642   6.808
59962SOL    HW181725   0.856   7.553   6.793
59962SOL    HW281726   0.970   7.631   6.855
59963SOL     OW81727  11.278   2.106   6.001
59963SOL    HW181728  11.192   2.082   6.037
59963SOL    HW281729  11.282   2.060   5.917
59964SOL     OW81730   1.382   1.115  10.870
59964SOL    HW181731   1.473   1.097  10.893
59964SOL    HW281732   1.343   1.153  10.949
59965SOL     OW81733   9.622   5.908   7.248
59965SOL    HW181734   9.592   5.999   7.240
59965SOL    HW281735   9.651   5.901   7.339
59966SOL     OW81736   6.854   5.368  11.687
59966SOL    HW181737   6.783   5.363  11.751
59966SOL    HW281738   6.934   5.360  11.738
59967SOL     OW81739   2.734  12.740  12.740
59967SOL    HW181740   2.725  12.719  12.647
59967SOL    HW281741   2.822  12.711  12.763
59968SOL     OW81742  13.945   9.897   8.179
59968SOL    HW181743  13.851   9.891   8.200
59968SOL    HW281744  13.970   9.808   8.155
59969SOL     OW81745   4.642   7.401   9.493
59969SOL    HW181746   4.731   7.369   9.512
59969SOL    HW281747   4.654   7.495   9.480
59970SOL     OW81748   6.545  14.443  13.757
59970SOL    HW181749   6.455  14.436  13.789
59970SOL    HW281750   6.583  14.358  13.775
59971SOL     OW81751   3.351   9.629   7.444
59971SOL    HW181752   3.332   9.549   7.395
59971SOL    HW281753   3.343   9.700   7.379
59972SOL     OW81754   4.152  12.775   2.249
59972SOL    HW181755   4.059  12.780   2.270
59972SOL    HW281756   4.178  12.866   2.233
59973SOL     OW81757  13.732  10.810   6.759
59973SOL    HW181758  13.753  10.791   6.851
59973SOL    HW281759  13.719  10.724   6.719
59974SOL     OW81760   8.406   1.769   3.494
59974SOL    HW181761   8.338   1.707   3.469
59974SOL    HW281762   8.399   1.776   3.589
59975SOL     OW81763  11.870  10.063   3.550
59975SOL    HW181764  11.841   9.973   3.564
59975SOL    HW281765  11.788  10.114   3.548
59976SOL     OW81766   3.167   5.484   4.139
59976SOL    HW181767   3.119   5.565   4.122
59976SOL    HW281768   3.102   5.415   4.133
59977SOL     OW81769   7.661  14.321   1.702
59977SOL    HW181770   7.609  14.371   1.639
59977SOL    HW281771   7.609  14.242   1.718
59978SOL     OW81772  14.290  12.444   5.453
59978SOL    HW181773  14.206  12.462   5.494
59978SOL    HW281774  14.269  12.412   5.366
59979SOL     OW81775  10.942   9.407  14.133
59979SOL    HW181776  10.968   9.499  14.123
59979SOL    HW281777  11.010   9.357  14.089
59980SOL     OW81778  11.819  14.653  11.631
59980SOL    HW181779  11.756  14.581  11.628
59980SOL    HW281780  11.807  14.699  11.548
59981SOL     OW81781  13.686  12.896   9.662
59981SOL    HW181782  13.745  12.895   9.587
59981SOL    HW281783  13.738  12.860   9.734
59982SOL     OW81784  12.649   6.839  13.605
59982SOL    HW181785  12.642   6.856  13.511
59982SOL    HW281786  12.607   6.915  13.646
59983SOL     OW81787   9.876   5.957  13.002
59983SOL    HW181788   9.802   5.978  12.945
59983SOL    HW281789   9.851   5.992  13.088
59984SOL     OW81790   2.234  11.597   6.909
59984SOL    HW181791   2.252  11.685   6.943
59984SOL    HW281792   2.302  11.542   6.947
59985SOL     OW81793  12.712  13.981   1.387
59985SOL    HW181794  12.686  13.988   1.295
59985SOL    HW281795  12.799  13.940   1.385
59986SOL     OW81796   2.299   9.919   1.502
59986SOL    HW181797   2.387   9.911   1.465
59986SOL    HW281798   2.256   9.984   1.447
59987SOL     OW81799  10.229  11.170   9.336
59987SOL    HW181800  10.236  11.097   9.275
59987SOL    HW281801  10.205  11.130   9.420
59988SOL     OW81802  12.319   2.653   6.744
59988SOL    HW181803  12.391   2.691   6.794
59988SOL    HW281804  12.333   2.558   6.751
59989SOL     OW81805   3.797   6.934  10.029
59989SOL    HW181806   3.841   6.900   9.951
59989SOL    HW281807   3.710   6.895  10.026
59990SOL     OW81808   8.652   9.392   0.123
59990SOL    HW181809   8.696   9.390   0.038
59990SOL    HW281810   8.559   9.387   0.102
59991SOL     OW81811  13.527   0.354  12.927
59991SOL    HW181812  13.538   0.295  13.001
59991SOL    HW281813  13.433   0.368  12.920
59992SOL     OW81814   9.316   3.222   1.268
59992SOL    HW181815   9.336   3.193   1.179
59992SOL    HW281816   9.241   3.169   1.295
59993SOL     OW81817  12.246   4.366  10.310
59993SOL    HW181818  12.290   4.451  10.303
59993SOL    HW281819  12.167   4.375  10.258
59994SOL     OW81820   5.578   0.232  11.981
59994SOL    HW181821   5.599   0.309  12.034
59994SOL    HW281822   5.663   0.193  11.961
59995SOL     OW81823  11.790   9.454   1.633
59995SOL    HW181824  11.790   9.456   1.538
59995SOL    HW281825  11.866   9.399   1.656
59996SOL     OW81826   5.243   2.674   1.640
59996SOL    HW181827   5.303   2.630   1.700
59996SOL    HW281828   5.190   2.730   1.697
59997SOL     OW81829   5.107   0.079  12.650
59997SOL    HW181830   5.095  14.863  12.657
59997SOL    HW281831   5.129   0.107  12.739
59998SOL     OW81832   5.123  13.922   4.419
59998SOL    HW181833   5.171  14.004   4.411
59998SOL    HW281834   5.169  13.861   4.361
59999SOL     OW81835  10.347  12.630   5.295
59999SOL    HW181836  10.343  12.647   5.390
59999SOL    HW281837  10.429  12.583   5.283
60000SOL     OW81838  12.000   4.217  10.499
60000SOL    HW181839  12.045   4.253  10.422
60000SOL    HW281840  12.017   4.123  10.495
60001SOL     OW81841  10.028   8.273   2.222
60001SOL    HW181842   9.983   8.315   2.295
60001SOL    HW281843  10.055   8.346   2.166
60002SOL     OW81844   1.469   6.396  11.997
60002SOL    HW181845   1.554   6.372  11.960
60002SOL    HW281846   1.431   6.312  12.024
60003SOL     OW81847   4.841  12.027  12.360
60003SOL    HW181848   4.771  12.071  12.312
60003SOL    HW281849   4.812  12.029  12.452
60004SOL     OW81850   4.217   4.020   5.206
60004SOL    HW181851   4.216   3.926   5.189
60004SOL    HW281852   4.305   4.048   5.177
60005SOL     OW81853  14.724  11.028   5.993
60005SOL    HW181854  14.776  11.067   5.923
60005SOL    HW281855  14.649  11.087   6.003
60006SOL     OW81856   7.391   7.969  12.097
60006SOL    HW181857   7.430   8.035  12.040
60006SOL    HW281858   7.307   8.006  12.125
60007SOL     OW81859  14.378   5.189   9.017
60007SOL    HW181860  14.458   5.181   9.069
60007SOL    HW281861  14.345   5.100   9.010
60008SOL     OW81862   7.917   7.882   0.066
60008SOL    HW181863   8.008   7.901   0.043
60008SOL    HW281864   7.871   7.881  14.861
60009SOL     OW81865  12.016  12.198  13.348
60009SOL    HW181866  12.081  12.260  13.314
60009SOL    HW281867  11.932  12.237  13.324
60010SOL     OW81868   2.661  14.839  13.203
60010SOL    HW181869   2.599   0.005  13.260
60010SOL    HW281870   2.606  14.790  13.142
60011SOL     OW81871   0.342   0.306   7.988
60011SOL    HW181872   0.356   0.227   8.040
60011SOL    HW281873   0.329   0.275   7.899
60012SOL     OW81874   6.568   5.355   3.923
60012SOL    HW181875   6.484   5.389   3.893
60012SOL    HW281876   6.595   5.293   3.855
60013SOL     OW81877   1.488   4.131   4.474
60013SOL    HW181878   1.484   4.037   4.459
60013SOL    HW281879   1.514   4.140   4.565
60014SOL     OW81880   9.321   0.356   7.548
60014SOL    HW181881   9.371   0.403   7.615
60014SOL    HW281882   9.286   0.425   7.492
60015SOL     OW81883   9.988   6.594  13.249
60015SOL    HW181884  10.080   6.620  13.244
60015SOL    HW281885   9.991   6.499  13.265
60016SOL     OW81886   7.319  12.244   6.452
60016SOL    HW181887   7.327  12.149   6.441
60016SOL    HW281888   7.346  12.280   6.368
60017SOL     OW81889   2.432   6.966  11.182
60017SOL    HW181890   2.461   6.882  11.146
60017SOL    HW281891   2.346   6.947  11.220
60018SOL     OW81892   4.699   2.394  11.959
60018SOL    HW181893   4.752   2.317  11.979
60018SOL    HW281894   4.609   2.362  11.958
60019SOL     OW81895  12.197  11.917   1.245
60019SOL    HW181896  12.107  11.901   1.273
60019SOL    HW281897  12.246  11.842   1.278
60020SOL     OW81898   1.117   3.406   9.322
60020SOL    HW181899   1.071   3.472   9.270
60020SOL    HW281900   1.151   3.453   9.397
60021SOL     OW81901   5.702   9.436   7.834
60021SOL    HW181902   5.610   9.462   7.823
60021SOL    HW281903   5.752   9.513   7.809
60022SOL     OW81904  12.113   7.344   3.662
60022SOL    HW181905  12.076   7.410   3.604
60022SOL    HW281906  12.091   7.375   3.750
60023SOL     OW81907   3.167  11.748   4.066
60023SOL    HW181908   3.219  11.822   4.036
60023SOL    HW281909   3.227  11.673   4.064
60024SOL     OW81910   4.290   9.808  11.453
60024SOL    HW181911   4.289   9.733  11.513
60024SOL    HW281912   4.199   9.819  11.427
60025SOL     OW81913  12.580   4.648   1.873
60025SOL    HW181914  12.548   4.684   1.791
60025SOL    HW281915  12.651   4.706   1.898
60026SOL     OW81916  11.896   3.254   3.016
60026SOL    HW181917  11.865   3.236   3.105
60026SOL    HW281918  11.816   3.265   2.965
60027SOL     OW81919   0.901   9.601   7.125
60027SOL    HW181920   0.988   9.561   7.124
60027SOL    HW281921   0.915   9.690   7.093
60028SOL     OW81922   9.473   4.126   5.503
60028SOL    HW181923   9.487   4.131   5.408
60028SOL    HW281924   9.466   4.217   5.532
60029SOL     OW81925  13.459   3.703   8.147
60029SOL    HW181926  13.513   3.671   8.219
60029SOL    HW281927  13.480   3.797   8.142
60030SOL     OW81928   1.538   9.988  13.284
60030SOL    HW181929   1.626   9.983  13.246
60030SOL    HW281930   1.548  10.046  13.360
60031SOL     OW81931   7.339   6.931   6.572
60031SOL    HW181932   7.347   6.913   6.479
60031SOL    HW281933   7.250   6.905   6.595
60032SOL     OW81934  14.714  11.116  14.810
60032SOL    HW181935  14.696  11.203  14.775
60032SOL    HW281936  14.808  11.105  14.798
60033SOL     OW81937   3.349   6.985   5.145
60033SOL    HW181938   3.287   7.056   5.126
60033SOL    HW281939   3.427   7.030   5.177
60034SOL     OW81940  12.410  10.155   6.105
60034SOL    HW181941  12.387  10.063   6.111
60034SOL    HW281942  12.390  10.180   6.015
60035SOL     OW81943   4.434   1.369   7.100
60035SOL    HW181944   4.421   1.384   7.194
60035SOL    HW281945   4.528   1.352   7.092
60036SOL     OW81946   1.470   3.093   1.900
60036SOL    HW181947   1.422   3.072   1.980
60036SOL    HW281948   1.481   3.188   1.903
60037SOL     OW81949  14.167  14.195  14.280
60037SOL    HW181950  14.222  14.192  14.358
60037SOL    HW281951  14.165  14.287  14.255
60038SOL     OW81952   9.442   9.601   3.432
60038SOL    HW181953   9.526   9.615   3.388
60038SOL    HW281954   9.378   9.643   3.375
60039SOL     OW81955   2.840   4.593   3.156
60039SOL    HW181956   2.797   4.669   3.118
60039SOL    HW281957   2.816   4.596   3.249
60040SOL     OW81958  13.447   0.316   5.737
60040SOL    HW181959  13.440   0.242   5.796
60040SOL    HW281960  13.357   0.347   5.725
60041SOL     OW81961  13.798   5.649   5.936
60041SOL    HW181962  13.756   5.677   6.018
60041SOL    HW281963  13.737   5.677   5.868
60042SOL     OW81964  13.795   8.034  11.918
60042SOL    HW181965  13.852   8.100  11.879
60042SOL    HW281966  13.802   8.048  12.012
60043SOL     OW81967   2.279   9.734   6.249
60043SOL    HW181968   2.284   9.781   6.332
60043SOL    HW281969   2.358   9.759   6.202
60044SOL     OW81970   6.793  13.695   1.907
60044SOL    HW181971   6.842  13.757   1.853
60044SOL    HW281972   6.809  13.610   1.865
60045SOL     OW81973   3.139   9.572  11.978
60045SOL    HW181974   3.097   9.616  11.904
60045SOL    HW281975   3.069   9.520  12.017
60046SOL     OW81976   0.926   0.422   7.882
60046SOL    HW181977   0.873   0.395   7.808
60046SOL    HW281978   0.986   0.349   7.897
60047SOL     OW81979   1.683  11.613   9.817
60047SOL    HW181980   1.711  11.539   9.870
60047SOL    HW281981   1.749  11.618   9.748
60048SOL     OW81982   5.197  14.619   5.853
60048SOL    HW181983   5.175  14.547   5.795
60048SOL    HW281984   5.141  14.691   5.825
60049SOL     OW81985   8.919   7.249  12.765
60049SOL    HW181986   8.971   7.169  12.770
60049SOL    HW281987   8.900   7.259  12.672
60050SOL     OW81988  12.990   0.186   7.682
60050SOL    HW181989  12.969   0.095   7.703
60050SOL    HW281990  13.059   0.181   7.617
60051SOL     OW81991   3.428   9.207  11.811
60051SOL    HW181992   3.355   9.235  11.866
60051SOL    HW281993   3.404   9.118  11.784
60052SOL     OW81994  14.823  14.214  13.794
60052SOL    HW181995  14.860  14.143  13.741
60052SOL    HW281996  14.738  14.180  13.824
60053SOL     OW81997  13.796  12.654   8.856
60053SOL    HW181998  13.844  12.726   8.814
60053SOL    HW281999  13.704  12.681   8.853
60054SOL     OW82000  14.555   4.624  10.349
60054SOL    HW182001  14.480   4.669  10.389
60054SOL    HW282002  14.611   4.599  10.422
60055SOL     OW82003   3.130   2.583   2.853
60055SOL    HW182004   3.102   2.673   2.869
60055SOL    HW282005   3.052   2.530   2.870
60056SOL     OW82006   0.189  14.854   7.597
60056SOL    HW182007   0.227  14.839   7.510
60056SOL    HW282008   0.124   0.044   7.583
60057SOL     OW82009   7.552   0.910  11.664
60057SOL    HW182010   7.604   0.972  11.613
60057SOL    HW282011   7.461   0.935  11.645
60058SOL     OW82012   7.628   4.735   2.946
60058SOL    HW182013   7.542   4.740   2.987
60058SOL    HW282014   7.609   4.731   2.852
60059SOL     OW82015   3.276   4.414  11.016
60059SOL    HW182016   3.224   4.344  10.977
60059SOL    HW282017   3.240   4.495  10.980
60060SOL     OW82018   3.961  13.161   3.201
60060SOL    HW182019   3.867  13.178   3.197
60060SOL    HW282020   3.992  13.179   3.112
60061SOL     OW82021   3.945  14.743  12.116
60061SOL    HW182022   3.878  14.770  12.178
60061SOL    HW282023   4.023  14.728  12.169
60062SOL     OW82024  11.046   8.410   5.415
60062SOL    HW182025  10.993   8.458   5.352
60062SOL    HW282026  11.000   8.327   5.428
60063SOL     OW82027  10.069  13.859  13.040
60063SOL    HW182028  10.056  13.915  12.964
60063SOL    HW282029  10.157  13.881  13.071
60064SOL     OW82030   6.044  12.543  11.656
60064SOL    HW182031   5.999  12.523  11.738
60064SOL    HW282032   5.973  12.554  11.592
60065SOL     OW82033   3.998   9.322   2.689
60065SOL    HW182034   3.935   9.254   2.666
60065SOL    HW282035   3.946   9.402   2.698
60066SOL     OW82036   4.753   7.985  12.567
60066SOL    HW182037   4.678   7.937  12.532
60066SOL    HW282038   4.756   7.960  12.660
60067SOL     OW82039   9.147   7.035  14.562
60067SOL    HW182040   9.053   7.045  14.577
60067SOL    HW282041   9.155   7.023  14.468
60068SOL     OW82042  11.968   3.136   4.660
60068SOL    HW182043  11.949   3.202   4.593
60068SOL    HW282044  12.016   3.068   4.614
60069SOL     OW82045   4.480   3.019   4.179
60069SOL    HW182046   4.558   2.984   4.222
60069SOL    HW282047   4.496   3.004   4.086
60070SOL     OW82048   0.970   3.003   3.308
60070SOL    HW182049   0.972   3.005   3.404
60070SOL    HW282050   1.022   3.079   3.281
60071SOL     OW82051  13.396   2.772   9.746
60071SOL    HW182052  13.321   2.712   9.742
60071SOL    HW282053  13.471   2.717   9.723
60072SOL     OW82054   4.865  11.218  14.375
60072SOL    HW182055   4.866  11.157  14.448
60072SOL    HW282056   4.799  11.283  14.399
60073SOL     OW82057  10.815   7.709   8.739
60073SOL    HW182058  10.746   7.751   8.688
60073SOL    HW282059  10.768   7.646   8.795
60074SOL     OW82060  12.809   6.994  12.463
60074SOL    HW182061  12.900   7.006  12.492
60074SOL    HW282062  12.757   7.038  12.530
60075SOL     OW82063   0.664   9.453  14.561
60075SOL    HW182064   0.618   9.477  14.480
60075SOL    HW282065   0.699   9.366  14.545
60076SOL     OW82066   3.204   0.888   1.046
60076SOL    HW182067   3.226   0.801   1.011
60076SOL    HW282068   3.197   0.874   1.140
60077SOL     OW82069   4.285   9.723   9.412
60077SOL    HW182070   4.304   9.814   9.389
60077SOL    HW282071   4.240   9.688   9.335
60078SOL     OW82072   7.865   8.183   6.458
60078SOL    HW182073   7.829   8.139   6.536
60078SOL    HW282074   7.797   8.245   6.431
60079SOL     OW82075   0.650   8.252  10.718
60079SOL    HW182076   0.640   8.342  10.751
60079SOL    HW282077   0.738   8.249  10.683
60080SOL     OW82078  10.207   6.644   1.479
60080SOL    HW182079  10.298   6.671   1.469
60080SOL    HW282080  10.183   6.671   1.567
60081SOL     OW82081  14.825  10.701   6.838
60081SOL    HW182082   0.038  10.727   6.844
60081SOL    HW282083  14.810  10.649   6.917
60082SOL     OW82084   8.445   0.832   2.595
60082SOL    HW182085   8.371   0.799   2.646
60082SOL    HW282086   8.439   0.785   2.512
60083SOL     OW82087   3.970   1.145   5.726
60083SOL    HW182088   4.013   1.067   5.761
60083SOL    HW282089   4.000   1.217   5.782
60084SOL     OW82090   0.586  11.218   3.865
60084SOL    HW182091   0.630  11.232   3.949
60084SOL    HW282092   0.519  11.152   3.884
60085SOL     OW82093  11.551  10.820  12.393
60085SOL    HW182094  11.458  10.813  12.412
60085SOL    HW282095  11.579  10.900  12.438
60086SOL     OW82096   6.438   7.816  11.229
60086SOL    HW182097   6.419   7.727  11.199
60086SOL    HW282098   6.387   7.872  11.170
60087SOL     OW82099  12.042  10.586  12.089
60087SOL    HW182100  11.986  10.571  12.165
60087SOL    HW282101  12.002  10.661  12.045
60088SOL     OW82102   3.939   5.801   0.204
60088SOL    HW182103   3.906   5.884   0.240
60088SOL    HW282104   3.894   5.734   0.254
60089SOL     OW82105  12.293   7.609   8.787
60089SOL    HW182106  12.222   7.583   8.728
60089SOL    HW282107  12.249   7.624   8.871
60090SOL     OW82108   9.605   9.824  12.527
60090SOL    HW182109   9.692   9.854  12.503
60090SOL    HW282110   9.590   9.747  12.472
60091SOL     OW82111  12.611   0.204   2.839
60091SOL    HW182112  12.581   0.117   2.813
60091SOL    HW282113  12.697   0.213   2.797
60092SOL     OW82114   0.836   4.170   7.867
60092SOL    HW182115   0.851   4.099   7.930
60092SOL    HW282116   0.907   4.232   7.884
60093SOL     OW82117  14.402  10.264   5.323
60093SOL    HW182118  14.374  10.337   5.378
60093SOL    HW282119  14.342  10.193   5.346
60094SOL     OW82120   8.351   3.406   1.922
60094SOL    HW182121   8.277   3.454   1.957
60094SOL    HW282122   8.321   3.315   1.917
60095SOL     OW82123   1.782  11.731   2.656
60095SOL    HW182124   1.798  11.670   2.728
60095SOL    HW282125   1.866  11.737   2.610
60096SOL     OW82126   9.932  11.608   4.010
60096SOL    HW182127   9.908  11.517   4.021
60096SOL    HW282128   9.975  11.611   3.924
60097SOL     OW82129   1.557  10.660   5.562
60097SOL    HW182130   1.605  10.723   5.615
60097SOL    HW282131   1.621  10.593   5.539
60098SOL     OW82132   6.428   6.624   3.187
60098SOL    HW182133   6.367   6.561   3.224
60098SOL    HW282134   6.511   6.577   3.182
60099SOL     OW82135   6.596   3.112  12.830
60099SOL    HW182136   6.633   3.187  12.877
60099SOL    HW282137   6.657   3.040  12.849
60100SOL     OW82138   1.839  12.484   0.103
60100SOL    HW182139   1.750  12.502   0.132
60100SOL    HW282140   1.864  12.562   0.052
60101SOL     OW82141   2.346   5.936  10.919
60101SOL    HW182142   2.433   5.951  10.956
60101SOL    HW282143   2.329   5.843  10.934
60102SOL     OW82144  12.565   1.868   4.927
60102SOL    HW182145  12.491   1.808   4.937
60102SOL    HW282146  12.525   1.951   4.901
60103SOL     OW82147   5.203  11.768   6.050
60103SOL    HW182148   5.279  11.820   6.025
60103SOL    HW282149   5.194  11.704   5.979
60104SOL     OW82150  14.780  10.447   1.773
60104SOL    HW182151  14.728  10.498   1.835
60104SOL    HW282152  14.870  10.454   1.805
60105SOL     OW82153  12.946   8.423   7.384
60105SOL    HW182154  13.031   8.417   7.339
60105SOL    HW282155  12.882   8.404   7.316
60106SOL     OW82156  14.082   6.810   5.645
60106SOL    HW182157  14.093   6.892   5.694
60106SOL    HW282158  13.990   6.809   5.620
60107SOL     OW82159  10.922  13.497   6.618
60107SOL    HW182160  10.861  13.454   6.678
60107SOL    HW282161  10.975  13.425   6.582
60108SOL     OW82162  12.261   7.093   5.671
60108SOL    HW182163  12.232   7.184   5.667
60108SOL    HW282164  12.346   7.092   5.627
60109SOL     OW82165  10.047  13.450   2.034
60109SOL    HW182166  10.070  13.376   2.091
60109SOL    HW282167  10.101  13.437   1.955
60110SOL     OW82168   4.897   8.828  10.503
60110SOL    HW182169   4.876   8.767  10.433
60110SOL    HW282170   4.870   8.784  10.583
60111SOL     OW82171   4.000   8.384   5.848
60111SOL    HW182172   3.987   8.294   5.820
60111SOL    HW282173   4.074   8.380   5.909
60112SOL     OW82174   9.863   7.625   5.754
60112SOL    HW182175   9.937   7.685   5.761
60112SOL    HW282176   9.872   7.566   5.828
60113SOL     OW82177  11.367   9.209   3.592
60113SOL    HW182178  11.323   9.203   3.507
60113SOL    HW282179  11.314   9.156   3.651
60114SOL     OW82180   4.915  11.590   2.466
60114SOL    HW182181   5.003  11.626   2.453
60114SOL    HW282182   4.928  11.518   2.528
60115SOL     OW82183   2.461   1.734   7.520
60115SOL    HW182184   2.556   1.727   7.531
60115SOL    HW282185   2.447   1.820   7.481
60116SOL     OW82186  12.762   7.477   9.612
60116SOL    HW182187  12.855   7.501   9.606
60116SOL    HW282188  12.731   7.523   9.690
60117SOL     OW82189   8.296   1.880   8.733
60117SOL    HW182190   8.312   1.951   8.671
60117SOL    HW282191   8.299   1.801   8.679
60118SOL     OW82192   2.643  12.517   5.699
60118SOL    HW182193   2.559  12.556   5.677
60118SOL    HW282194   2.634  12.490   5.790
60119SOL     OW82195   2.827   8.235   8.257
60119SOL    HW182196   2.810   8.199   8.344
60119SOL    HW282197   2.748   8.286   8.237
60120SOL     OW82198   4.937   8.689   7.913
60120SOL    HW182199   4.856   8.736   7.893
60120SOL    HW282200   4.992   8.753   7.957
60121SOL     OW82201  12.043   8.729   8.741
60121SOL    HW182202  12.094   8.728   8.660
60121SOL    HW282203  12.100   8.685   8.805
60122SOL     OW82204   2.248  13.207  13.468
60122SOL    HW182205   2.235  13.284  13.412
60122SOL    HW282206   2.282  13.243  13.550
60123SOL     OW82207   8.979  11.425  14.059
60123SOL    HW182208   9.068  11.450  14.036
60123SOL    HW282209   8.981  11.329  14.064
60124SOL     OW82210  14.321  10.466   5.460
60124SOL    HW182211  14.397  10.504   5.505
60124SOL    HW282212  14.264  10.541   5.443
60125SOL     OW82213  14.483   0.116   0.765
60125SOL    HW182214  14.578   0.123   0.758
60125SOL    HW282215  14.462   0.159   0.848
60126SOL     OW82216   5.368   0.906   4.214
60126SOL    HW182217   5.383   0.814   4.237
60126SOL    HW282218   5.406   0.915   4.127
60127SOL     OW82219   9.729   5.586   3.496
60127SOL    HW182220   9.818   5.550   3.492
60127SOL    HW282221   9.672   5.512   3.475
60128SOL     OW82222   4.249   4.927  11.271
60128SOL    HW182223   4.169   4.961  11.311
60128SOL    HW282224   4.315   4.935  11.340
60129SOL     OW82225   2.502  12.404  14.076
60129SOL    HW182226   2.579  12.394  14.019
60129SOL    HW282227   2.443  12.462  14.027
60130SOL     OW82228   7.250  12.872  10.456
60130SOL    HW182229   7.295  12.952  10.429
60130SOL    HW282230   7.229  12.827  10.374
60131SOL     OW82231  13.157   0.044   4.618
60131SOL    HW182232  13.253   0.040   4.614
60131SOL    HW282233  13.128  14.834   4.602
60132SOL     OW82234   6.386   3.233  14.757
60132SOL    HW182235   6.380   3.142  14.728
60132SOL    HW282236   6.320   3.241  14.826
60133SOL     OW82237  11.538   1.502   6.801
60133SOL    HW182238  11.480   1.515   6.876
60133SOL    HW282239  11.582   1.586   6.790
60134SOL     OW82240   8.372   2.158   2.582
60134SOL    HW182241   8.375   2.073   2.625
60134SOL    HW282242   8.281   2.167   2.553
60135SOL     OW82243  11.724   4.436  10.875
60135SOL    HW182244  11.657   4.426  10.807
60135SOL    HW282245  11.682   4.489  10.943
60136SOL     OW82246  10.594  10.906   3.629
60136SOL    HW182247  10.522  10.883   3.570
60136SOL    HW282248  10.557  10.972   3.688
60137SOL     OW82249   4.405   8.201   7.632
60137SOL    HW182250   4.468   8.136   7.663
60137SOL    HW282251   4.388   8.256   7.708
60138SOL     OW82252  14.088   2.352  12.172
60138SOL    HW182253  14.153   2.303  12.221
60138SOL    HW282254  14.104   2.444  12.194
60139SOL     OW82255   5.439  14.408  10.283
60139SOL    HW182256   5.469  14.463  10.355
60139SOL    HW282257   5.347  14.390  10.304
60140SOL     OW82258   7.576  14.396   5.914
60140SOL    HW182259   7.551  14.428   5.827
60140SOL    HW282260   7.670  14.411   5.919
60141SOL     OW82261  13.245   2.303   4.485
60141SOL    HW182262  13.197   2.374   4.527
60141SOL    HW282263  13.328   2.343   4.457
60142SOL     OW82264   3.577  13.767  11.077
60142SOL    HW182265   3.592  13.733  11.165
60142SOL    HW282266   3.636  13.842  11.068
60143SOL     OW82267  10.009   1.424   1.910
60143SOL    HW182268  10.057   1.436   1.992
60143SOL    HW282269  10.049   1.487   1.850
60144SOL     OW82270   0.009   8.065  10.840
60144SOL    HW182271  14.824   8.058  10.769
60144SOL    HW282272  14.878   8.154  10.874
60145SOL     OW82273  10.531   3.386   5.201
60145SOL    HW182274  10.531   3.413   5.292
60145SOL    HW282275  10.620   3.405   5.170
60146SOL     OW82276   1.409   2.106   6.572
60146SOL    HW182277   1.487   2.057   6.597
60146SOL    HW282278   1.361   2.119   6.654
60147SOL     OW82279  13.701  13.874  11.704
60147SOL    HW182280  13.759  13.891  11.778
60147SOL    HW282281  13.721  13.784  11.678
60148SOL     OW82282   9.263   7.910   6.440
60148SOL    HW182283   9.177   7.903   6.482
60148SOL    HW282284   9.285   7.820   6.414
60149SOL     OW82285   9.964   5.552  10.369
60149SOL    HW182286   9.937   5.530  10.280
60149SOL    HW282287   9.931   5.479  10.423
60150SOL     OW82288   5.223  12.910   4.067
60150SOL    HW182289   5.157  12.934   4.002
60150SOL    HW282290   5.236  12.816   4.054
60151SOL     OW82291   8.982   4.713  13.192
60151SOL    HW182292   8.898   4.729  13.150
60151SOL    HW282293   9.008   4.798  13.227
60152SOL     OW82294   4.194   8.146   1.851
60152SOL    HW182295   4.235   8.077   1.905
60152SOL    HW282296   4.103   8.149   1.882
60153SOL     OW82297  14.821   6.073   3.390
60153SOL    HW182298  14.754   6.090   3.324
60153SOL    HW282299  14.811   5.980   3.411
60154SOL     OW82300   3.685   0.283  14.333
60154SOL    HW182301   3.627   0.342  14.381
60154SOL    HW282302   3.772   0.302  14.367
60155SOL     OW82303   7.905   6.310   7.947
60155SOL    HW182304   7.883   6.245   7.880
60155SOL    HW282305   7.992   6.340   7.924
60156SOL     OW82306   0.603   0.089   8.174
60156SOL    HW182307   0.670   0.096   8.105
60156SOL    HW282308   0.622   0.007   8.218
60157SOL     OW82309   8.176  13.607  12.945
60157SOL    HW182310   8.102  13.644  12.994
60157SOL    HW282311   8.244  13.593  13.011
60158SOL     OW82312  14.050   3.652   8.063
60158SOL    HW182313  13.966   3.677   8.102
60158SOL    HW282314  14.029   3.573   8.013
60159SOL     OW82315   4.518   5.011   3.233
60159SOL    HW182316   4.425   4.994   3.245
60159SOL    HW282317   4.536   4.985   3.143
60160SOL     OW82318   2.547  11.671   4.159
60160SOL    HW182319   2.612  11.619   4.112
60160SOL    HW282320   2.595  11.750   4.187
60161SOL     OW82321   8.387   0.994  12.501
60161SOL    HW182322   8.355   0.905  12.517
60161SOL    HW282323   8.335   1.025  12.427
60162SOL     OW82324  12.883   0.971  14.655
60162SOL    HW182325  12.909   0.989  14.565
60162SOL    HW282326  12.961   0.933  14.696
60163SOL     OW82327  10.580   4.587   2.271
60163SOL    HW182328  10.486   4.607   2.281
60163SOL    HW282329  10.602   4.540   2.351
60164SOL     OW82330  13.174  10.622  13.199
60164SOL    HW182331  13.174  10.671  13.282
60164SOL    HW282332  13.227  10.675  13.140
60165SOL     OW82333   3.958   2.090   3.491
60165SOL    HW182334   3.953   2.091   3.587
60165SOL    HW282335   3.913   2.010   3.465
60166SOL     OW82336   6.148   7.422   7.034
60166SOL    HW182337   6.108   7.507   7.047
60166SOL    HW282338   6.242   7.437   7.046
60167SOL     OW82339  11.969   9.269   5.074
60167SOL    HW182340  11.982   9.198   5.136
60167SOL    HW282341  12.023   9.341   5.108
60168SOL     OW82342   1.434   9.336  10.018
60168SOL    HW182343   1.470   9.277  10.084
60168SOL    HW282344   1.446   9.424  10.054
60169SOL     OW82345   7.789   3.393  13.202
60169SOL    HW182346   7.744   3.471  13.234
60169SOL    HW282347   7.733   3.320  13.228
60170SOL     OW82348  11.834  10.317  13.950
60170SOL    HW182349  11.834  10.407  13.982
60170SOL    HW282350  11.843  10.326  13.855
60171SOL     OW82351  12.803   0.798   4.648
60171SOL    HW182352  12.774   0.878   4.692
60171SOL    HW282353  12.893   0.786   4.677
60172SOL     OW82354   1.506   8.557   5.607
60172SOL    HW182355   1.526   8.540   5.699
60172SOL    HW282356   1.464   8.477   5.577
60173SOL     OW82357   9.456  10.850  13.210
60173SOL    HW182358   9.518  10.913  13.245
60173SOL    HW282359   9.419  10.806  13.287
60174SOL     OW82360   4.513   6.020  10.567
60174SOL    HW182361   4.555   5.973  10.495
60174SOL    HW282362   4.446   5.959  10.599
60175SOL     OW82363   6.885   5.553   5.277
60175SOL    HW182364   6.961   5.530   5.331
60175SOL    HW282365   6.920   5.561   5.189
60176SOL     OW82366   9.462   4.990  13.508
60176SOL    HW182367   9.531   5.030  13.561
60176SOL    HW282368   9.470   5.033  13.422
60177SOL     OW82369   6.608   0.502   8.511
60177SOL    HW182370   6.554   0.538   8.440
60177SOL    HW282371   6.631   0.414   8.481
60178SOL     OW82372  13.310  13.959  11.632
60178SOL    HW182373  13.266  13.877  11.654
60178SOL    HW282374  13.243  14.010  11.586
60179SOL     OW82375  14.588  12.473   3.895
60179SOL    HW182376  14.626  12.386   3.883
60179SOL    HW282377  14.543  12.468   3.979
60180SOL     OW82378   6.251   5.661   6.275
60180SOL    HW182379   6.289   5.578   6.245
60180SOL    HW282380   6.209   5.640   6.358
60181SOL     OW82381   4.533   4.936   9.495
60181SOL    HW182382   4.521   4.993   9.571
60181SOL    HW282383   4.464   4.870   9.503
60182SOL     OW82384   1.340  12.203  12.759
60182SOL    HW182385   1.258  12.237  12.722
60182SOL    HW282386   1.319  12.114  12.786
60183SOL     OW82387  10.130   9.826   4.434
60183SOL    HW182388  10.159   9.905   4.389
60183SOL    HW282389  10.200   9.762   4.418
60184SOL     OW82390   4.830   0.521   4.353
60184SOL    HW182391   4.861   0.454   4.413
60184SOL    HW282392   4.819   0.475   4.269
60185SOL     OW82393   3.944  11.907   4.105
60185SOL    HW182394   3.855  11.875   4.092
60185SOL    HW282395   3.978  11.920   4.016
60186SOL     OW82396   2.323   1.871  12.591
60186SOL    HW182397   2.279   1.855  12.674
60186SOL    HW282398   2.416   1.876  12.614
60187SOL     OW82399   9.800   0.472   6.458
60187SOL    HW182400   9.765   0.398   6.409
60187SOL    HW282401   9.837   0.530   6.391
60188SOL     OW82402  12.303   0.104   6.717
60188SOL    HW182403  12.331   0.139   6.801
60188SOL    HW282404  12.316   0.176   6.656
60189SOL     OW82405  12.714   0.274  12.145
60189SOL    HW182406  12.789   0.219  12.168
60189SOL    HW282407  12.683   0.310  12.228
60190SOL     OW82408   1.414   6.131  12.818
60190SOL    HW182409   1.404   6.121  12.724
60190SOL    HW282410   1.487   6.192  12.829
60191SOL     OW82411   4.969   4.406   7.075
60191SOL    HW182412   4.932   4.341   7.016
60191SOL    HW282413   4.923   4.392   7.158
60192SOL     OW82414   1.443  12.553   6.468
60192SOL    HW182415   1.429  12.492   6.395
60192SOL    HW282416   1.517  12.516   6.516
60193SOL     OW82417   2.326   0.903   2.075
60193SOL    HW182418   2.401   0.851   2.048
60193SOL    HW282419   2.362   0.970   2.133
60194SOL     OW82420   3.909   3.323   4.531
60194SOL    HW182421   3.989   3.273   4.516
60194SOL    HW282422   3.869   3.281   4.608
60195SOL     OW82423   1.795   3.749   1.692
60195SOL    HW182424   1.751   3.717   1.771
60195SOL    HW282425   1.871   3.797   1.726
60196SOL     OW82426   1.054   2.433  11.922
60196SOL    HW182427   1.129   2.411  11.977
60196SOL    HW282428   1.092   2.458  11.838
60197SOL     OW82429  12.665   1.318   7.898
60197SOL    HW182430  12.714   1.400   7.896
60197SOL    HW282431  12.607   1.323   7.822
60198SOL     OW82432   7.022  10.989   2.806
60198SOL    HW182433   7.101  10.978   2.858
60198SOL    HW282434   7.039  10.942   2.724
60199SOL     OW82435   0.385   6.382   5.724
60199SOL    HW182436   0.450   6.371   5.655
60199SOL    HW282437   0.301   6.382   5.679
60200SOL     OW82438   9.461  14.493   3.092
60200SOL    HW182439   9.446  14.492   2.998
60200SOL    HW282440   9.554  14.473   3.102
60201SOL     OW82441   6.130   1.222  13.147
60201SOL    HW182442   6.215   1.178  13.147
60201SOL    HW282443   6.133   1.280  13.071
60202SOL     OW82444   3.407  14.520  14.599
60202SOL    HW182445   3.463  14.537  14.674
60202SOL    HW282446   3.318  14.520  14.634
60203SOL     OW82447   1.855  10.876   3.434
60203SOL    HW182448   1.951  10.870   3.439
60203SOL    HW282449   1.829  10.901   3.523
60204SOL     OW82450   4.908   1.333   2.300
60204SOL    HW182451   4.937   1.424   2.294
60204SOL    HW282452   4.858   1.319   2.219
60205SOL     OW82453   5.123   5.936   9.334
60205SOL    HW182454   5.128   5.843   9.309
60205SOL    HW282455   5.116   5.933   9.430
60206SOL     OW82456   8.439  14.720   6.398
60206SOL    HW182457   8.381  14.644   6.399
60206SOL    HW282458   8.401  14.781   6.461
60207SOL     OW82459   2.686  11.774   3.413
60207SOL    HW182460   2.760  11.714   3.405
60207SOL    HW282461   2.613  11.726   3.374
60208SOL     OW82462   9.215   4.516  13.402
60208SOL    HW182463   9.300   4.474  13.388
60208SOL    HW282464   9.225   4.563  13.485
60209SOL     OW82465   5.887   3.458   6.965
60209SOL    HW182466   5.812   3.503   6.926
60209SOL    HW282467   5.960   3.519   6.954
60210SOL     OW82468   6.309   8.998   5.545
60210SOL    HW182469   6.321   8.908   5.514
60210SOL    HW282470   6.371   9.050   5.493
60211SOL     OW82471  12.358  13.279  13.954
60211SOL    HW182472  12.394  13.328  14.028
60211SOL    HW282473  12.406  13.196  13.954
60212SOL     OW82474   4.854   6.386  11.575
60212SOL    HW182475   4.855   6.328  11.651
60212SOL    HW282476   4.922   6.451  11.593
60213SOL     OW82477   4.150   0.375   5.567
60213SOL    HW182478   4.166   0.319   5.643
60213SOL    HW282479   4.213   0.345   5.501
60214SOL     OW82480   4.536   6.677   4.734
60214SOL    HW182481   4.614   6.724   4.765
60214SOL    HW282482   4.511   6.723   4.655
60215SOL     OW82483   4.067  10.093   3.222
60215SOL    HW182484   4.130  10.131   3.160
60215SOL    HW282485   4.120  10.040   3.281
60216SOL     OW82486  14.275   1.771   4.583
60216SOL    HW182487  14.204   1.781   4.646
60216SOL    HW282488  14.325   1.853   4.589
60217SOL     OW82489   6.646  12.331   1.984
60217SOL    HW182490   6.664  12.237   1.988
60217SOL    HW282491   6.659  12.354   1.893
60218SOL     OW82492   3.095  13.994   2.977
60218SOL    HW182493   3.032  13.923   2.964
60218SOL    HW282494   3.057  14.048   3.046
60219SOL     OW82495  13.847   7.573   6.628
60219SOL    HW182496  13.862   7.491   6.676
60219SOL    HW282497  13.917   7.576   6.563
60220SOL     OW82498   4.084  12.932   3.310
60220SOL    HW182499   4.015  12.866   3.309
60220SOL    HW282500   4.046  13.008   3.264
60221SOL     OW82501  10.840   4.336   9.739
60221SOL    HW182502  10.788   4.296   9.810
60221SOL    HW282503  10.930   4.331   9.770
60222SOL     OW82504   2.559  11.558   0.352
60222SOL    HW182505   2.464  11.545   0.349
60222SOL    HW282506   2.585  11.574   0.262
60223SOL     OW82507   8.541   7.498   9.640
60223SOL    HW182508   8.615   7.559   9.634
60223SOL    HW282509   8.495   7.524   9.720
60224SOL     OW82510   9.345   8.885   8.563
60224SOL    HW182511   9.345   8.937   8.643
60224SOL    HW282512   9.348   8.794   8.594
60225SOL     OW82513  13.777   8.028   5.615
60225SOL    HW182514  13.718   8.034   5.540
60225SOL    HW282515  13.719   8.013   5.690
60226SOL     OW82516   6.852   8.133   7.380
60226SOL    HW182517   6.851   8.070   7.308
60226SOL    HW282518   6.890   8.085   7.453
60227SOL     OW82519   4.275   1.193   5.889
60227SOL    HW182520   4.328   1.137   5.831
60227SOL    HW282521   4.249   1.266   5.833
60228SOL     OW82522  12.966  11.083  10.772
60228SOL    HW182523  13.043  11.054  10.821
60228SOL    HW282524  12.922  11.001  10.748
60229SOL     OW82525   2.510  13.213  11.563
60229SOL    HW182526   2.558  13.199  11.644
60229SOL    HW282527   2.439  13.273  11.588
60230SOL     OW82528  13.304  13.698   6.600
60230SOL    HW182529  13.385  13.741   6.571
60230SOL    HW282530  13.329  13.606   6.612
60231SOL     OW82531   2.158  14.120   1.378
60231SOL    HW182532   2.095  14.070   1.326
60231SOL    HW282533   2.243  14.098   1.341
60232SOL     OW82534  13.754  14.264  11.325
60232SOL    HW182535  13.681  14.237  11.381
60232SOL    HW282536  13.812  14.188  11.324
60233SOL     OW82537  10.909   9.788   4.742
60233SOL    HW182538  10.821   9.752   4.752
60233SOL    HW282539  10.956   9.722   4.691
60234SOL     OW82540   7.880   4.137   9.432
60234SOL    HW182541   7.937   4.102   9.500
60234SOL    HW282542   7.939   4.168   9.364
60235SOL     OW82543   7.124  12.662  12.417
60235SOL    HW182544   7.184  12.724  12.459
60235SOL    HW282545   7.091  12.709  12.340
60236SOL     OW82546  11.126   9.141   8.246
60236SOL    HW182547  11.141   9.060   8.197
60236SOL    HW282548  11.031   9.148   8.251
60237SOL     OW82549  11.768  13.178   3.495
60237SOL    HW182550  11.711  13.111   3.533
60237SOL    HW282551  11.709  13.249   3.472
60238SOL     OW82552   4.110  12.463   8.077
60238SOL    HW182553   4.079  12.398   8.014
60238SOL    HW282554   4.031  12.495   8.120
60239SOL     OW82555  13.645  10.640   0.924
60239SOL    HW182556  13.706  10.591   0.979
60239SOL    HW282557  13.633  10.586   0.846
60240SOL     OW82558   1.038   3.232   1.767
60240SOL    HW182559   0.962   3.182   1.737
60240SOL    HW282560   1.049   3.301   1.701
60241SOL     OW82561   8.254   3.130  10.037
60241SOL    HW182562   8.224   3.190  10.105
60241SOL    HW282563   8.308   3.066  10.084
60242SOL     OW82564  11.434   7.618   2.648
60242SOL    HW182565  11.420   7.529   2.680
60242SOL    HW282566  11.398   7.674   2.717
60243SOL     OW82567   6.310   3.778   7.323
60243SOL    HW182568   6.288   3.823   7.241
60243SOL    HW282569   6.358   3.700   7.296
60244SOL     OW82570   8.225  14.047   3.033
60244SOL    HW182571   8.297  14.073   3.090
60244SOL    HW282572   8.150  14.097   3.065
60245SOL     OW82573  13.372  13.026   4.615
60245SOL    HW182574  13.305  12.957   4.614
60245SOL    HW282575  13.455  12.978   4.617
60246SOL     OW82576  10.855   5.487   6.187
60246SOL    HW182577  10.783   5.426   6.173
60246SOL    HW282578  10.890   5.504   6.100
60247SOL     OW82579   3.995   3.092  10.702
60247SOL    HW182580   3.924   3.091  10.638
60247SOL    HW282581   3.963   3.147  10.773
60248SOL     OW82582   2.695   2.341   9.806
60248SOL    HW182583   2.755   2.413   9.826
60248SOL    HW282584   2.714   2.276   9.874
60249SOL     OW82585  13.548  11.644   5.697
60249SOL    HW182586  13.516  11.630   5.786
60249SOL    HW282587  13.470  11.670   5.648
60250SOL     OW82588   4.225   2.908   8.115
60250SOL    HW182589   4.265   2.847   8.053
60250SOL    HW282590   4.278   2.987   8.108
60251SOL     OW82591   8.897  14.653   4.729
60251SOL    HW182592   8.814  14.672   4.685
60251SOL    HW282593   8.963  14.659   4.660
60252SOL     OW82594   0.431   5.158   3.580
60252SOL    HW182595   0.492   5.232   3.569
60252SOL    HW282596   0.486   5.080   3.567
60253SOL     OW82597   2.958   9.737  10.942
60253SOL    HW182598   2.993   9.752  11.030
60253SOL    HW282599   2.933   9.644  10.941
60254SOL     OW82600  10.576   3.159   9.622
60254SOL    HW182601  10.653   3.184   9.673
60254SOL    HW282602  10.597   3.185   9.533
60255SOL     OW82603  12.251   6.227   4.003
60255SOL    HW182604  12.237   6.317   3.974
60255SOL    HW282605  12.165   6.198   4.034
60256SOL     OW82606   7.353  11.626   1.815
60256SOL    HW182607   7.365  11.625   1.910
60256SOL    HW282608   7.438  11.652   1.780
60257SOL     OW82609   4.098  13.234  13.292
60257SOL    HW182610   4.004  13.222  13.306
60257SOL    HW282611   4.140  13.182  13.360
60258SOL     OW82612   4.598  14.668   4.523
60258SOL    HW182613   4.598  14.696   4.615
60258SOL    HW282614   4.505  14.657   4.502
60259SOL     OW82615   8.982   8.070  12.400
60259SOL    HW182616   9.068   8.075  12.357
60259SOL    HW282617   8.919   8.076  12.329
60260SOL     OW82618   4.337  10.726  11.254
60260SOL    HW182619   4.413  10.695  11.302
60260SOL    HW282620   4.372  10.791  11.193
60261SOL     OW82621   3.517   6.955   9.839
60261SOL    HW182622   3.529   7.016   9.911
60261SOL    HW282623   3.548   7.002   9.762
60262SOL     OW82624   9.615  14.403   5.723
60262SOL    HW182625   9.660  14.351   5.656
60262SOL    HW282626   9.530  14.425   5.684
60263SOL     OW82627  13.383  11.505  12.575
60263SOL    HW182628  13.435  11.580  12.546
60263SOL    HW282629  13.304  11.508  12.521
60264SOL     OW82630   2.134   2.205   1.223
60264SOL    HW182631   2.092   2.132   1.178
60264SOL    HW282632   2.087   2.282   1.194
60265SOL     OW82633   0.332  12.037  12.993
60265SOL    HW182634   0.419  12.017  13.028
60265SOL    HW282635   0.341  12.124  12.955
60266SOL     OW82636   4.469   0.406   4.398
60266SOL    HW182637   4.508   0.410   4.311
60266SOL    HW282638   4.499   0.322   4.434
60267SOL     OW82639   8.479  12.968   0.101
60267SOL    HW182640   8.392  12.956   0.138
60267SOL    HW282641   8.470  13.043   0.043
60268SOL     OW82642   7.786  14.206  12.229
60268SOL    HW182643   7.869  14.230  12.189
60268SOL    HW282644   7.724  14.272  12.199
60269SOL     OW82645   9.796   4.426  13.437
60269SOL    HW182646   9.777   4.506  13.387
60269SOL    HW282647   9.799   4.356  13.372
60270SOL     OW82648   1.218   3.640   6.059
60270SOL    HW182649   1.136   3.600   6.031
60270SOL    HW282650   1.219   3.726   6.017
60271SOL     OW82651  13.625  14.768   0.948
60271SOL    HW182652  13.702  14.736   0.901
60271SOL    HW282653  13.571  14.808   0.881
60272SOL     OW82654  14.500   5.902   7.188
60272SOL    HW182655  14.436   5.841   7.153
60272SOL    HW282656  14.558   5.920   7.114
60273SOL     OW82657  11.988  10.515   8.660
60273SOL    HW182658  11.901  10.474   8.657
60273SOL    HW282659  12.016  10.517   8.568
60274SOL     OW82660   8.858   7.366   2.316
60274SOL    HW182661   8.845   7.419   2.395
60274SOL    HW282662   8.782   7.387   2.261
60275SOL     OW82663   4.322  10.310   4.260
60275SOL    HW182664   4.393  10.341   4.315
60275SOL    HW282665   4.365  10.264   4.188
60276SOL     OW82666   2.948   6.351   5.281
60276SOL    HW182667   2.858   6.338   5.253
60276SOL    HW282668   2.995   6.274   5.249
60277SOL     OW82669  13.917   4.588   2.379
60277SOL    HW182670  13.983   4.549   2.437
60277SOL    HW282671  13.959   4.587   2.293
60278SOL     OW82672  13.720  13.359   9.845
60278SOL    HW182673  13.807  13.334   9.877
60278SOL    HW282674  13.683  13.277   9.812
60279SOL     OW82675   5.012   5.132   2.116
60279SOL    HW182676   4.992   5.221   2.144
60279SOL    HW282677   5.105   5.134   2.094
60280SOL     OW82678   4.603   2.056   1.476
60280SOL    HW182679   4.588   2.095   1.390
60280SOL    HW282680   4.560   2.115   1.538
60281SOL     OW82681   4.062  10.194   1.977
60281SOL    HW182682   4.110  10.276   1.980
60281SOL    HW282683   3.991  10.210   1.914
60282SOL     OW82684   4.810   2.385  10.776
60282SOL    HW182685   4.733   2.342  10.813
60282SOL    HW282686   4.792   2.390  10.682
60283SOL     OW82687  13.535   3.557  11.295
60283SOL    HW182688  13.571   3.592  11.214
60283SOL    HW282689  13.473   3.624  11.324
60284SOL     OW82690  13.130   3.988  14.769
60284SOL    HW182691  13.134   3.916  14.831
60284SOL    HW282692  13.212   3.983  14.720
60285SOL     OW82693   4.198  14.390   1.621
60285SOL    HW182694   4.108  14.393   1.654
60285SOL    HW282695   4.240  14.321   1.672
60286SOL     OW82696   9.286   1.327   9.589
60286SOL    HW182697   9.268   1.350   9.497
60286SOL    HW282698   9.250   1.399   9.639
60287SOL     OW82699  13.124  12.372  13.553
60287SOL    HW182700  13.176  12.349  13.476
60287SOL    HW282701  13.037  12.339  13.533
60288SOL     OW82702   9.029   8.543   3.225
60288SOL    HW182703   9.101   8.480   3.224
60288SOL    HW282704   8.976   8.517   3.301
60289SOL     OW82705   5.225   7.682   4.940
60289SOL    HW182706   5.278   7.603   4.933
60289SOL    HW282707   5.287   7.751   4.961
60290SOL     OW82708   6.195   8.412   6.458
60290SOL    HW182709   6.193   8.493   6.407
60290SOL    HW282710   6.253   8.354   6.408
60291SOL     OW82711  10.561   6.989  12.381
60291SOL    HW182712  10.532   7.079  12.395
60291SOL    HW282713  10.655   6.997  12.364
60292SOL     OW82714   8.467   5.650  12.072
60292SOL    HW182715   8.445   5.568  12.028
60292SOL    HW282716   8.513   5.623  12.151
60293SOL     OW82717   3.389   0.765  13.570
60293SOL    HW182718   3.353   0.685  13.533
60293SOL    HW282719   3.425   0.812  13.496
60294SOL     OW82720  11.749   1.372   1.534
60294SOL    HW182721  11.820   1.311   1.553
60294SOL    HW282722  11.675   1.340   1.585
60295SOL     OW82723  11.585   7.244   8.398
60295SOL    HW182724  11.618   7.270   8.485
60295SOL    HW282725  11.524   7.314   8.375
60296SOL     OW82726  10.962  10.530   9.500
60296SOL    HW182727  10.901  10.573   9.440
60296SOL    HW282728  10.906  10.485   9.563
60297SOL     OW82729   6.027  12.986   3.271
60297SOL    HW182730   6.008  13.065   3.321
60297SOL    HW282731   5.941  12.955   3.241
60298SOL     OW82732  14.096   6.013   0.757
60298SOL    HW182733  14.156   6.005   0.683
60298SOL    HW282734  14.149   6.055   0.826
60299SOL     OW82735  12.413  10.676  10.687
60299SOL    HW182736  12.507  10.668  10.707
60299SOL    HW282737  12.373  10.702  10.770
60300SOL     OW82738   2.915  10.241  11.336
60300SOL    HW182739   2.845  10.256  11.273
60300SOL    HW282740   2.987  10.296  11.306
60301SOL     OW82741   8.846   6.743  12.088
60301SOL    HW182742   8.808   6.672  12.139
60301SOL    HW282743   8.848   6.710  11.998
60302SOL     OW82744  13.065  14.442  12.285
60302SOL    HW182745  13.105  14.376  12.342
60302SOL    HW282746  13.087  14.526  12.326
60303SOL     OW82747  12.991  11.192   5.388
60303SOL    HW182748  13.002  11.270   5.443
60303SOL    HW282749  12.900  11.166   5.402
60304SOL     OW82750  11.459   6.419  13.752
60304SOL    HW182751  11.379   6.385  13.791
60304SOL    HW282752  11.516   6.440  13.827
60305SOL     OW82753  12.331  10.481   7.847
60305SOL    HW182754  12.412  10.460   7.893
60305SOL    HW282755  12.357  10.541   7.778
60306SOL     OW82756   3.842   3.240  13.449
60306SOL    HW182757   3.842   3.278  13.361
60306SOL    HW282758   3.773   3.288  13.495
60307SOL     OW82759   5.176   4.452  10.491
60307SOL    HW182760   5.152   4.533  10.446
60307SOL    HW282761   5.147   4.465  10.581
60308SOL     OW82762   5.885   2.116   6.540
60308SOL    HW182763   5.942   2.172   6.487
60308SOL    HW282764   5.885   2.032   6.494
60309SOL     OW82765   4.058  11.755   8.917
60309SOL    HW182766   4.109  11.707   8.982
60309SOL    HW282767   4.111  11.751   8.837
60310SOL     OW82768   6.366  13.996   0.269
60310SOL    HW182769   6.402  13.916   0.307
60310SOL    HW282770   6.441  14.056   0.264
60311SOL     OW82771   3.422   4.417  12.793
60311SOL    HW182772   3.438   4.466  12.713
60311SOL    HW282773   3.495   4.355  12.798
60312SOL     OW82774   9.252   3.523   1.985
60312SOL    HW182775   9.298   3.497   2.065
60312SOL    HW282776   9.216   3.609   2.004
60313SOL     OW82777   4.056  14.009   9.413
60313SOL    HW182778   4.108  13.931   9.431
60313SOL    HW282779   3.998  14.016   9.489
60314SOL     OW82780  12.231  10.327   6.552
60314SOL    HW182781  12.226  10.274   6.472
60314SOL    HW282782  12.283  10.274   6.613
60315SOL     OW82783   9.200   5.229   7.775
60315SOL    HW182784   9.150   5.200   7.699
60315SOL    HW282785   9.198   5.324   7.771
60316SOL     OW82786   7.014  12.143  12.814
60316SOL    HW182787   6.990  12.171  12.902
60316SOL    HW282788   6.936  12.160  12.761
60317SOL     OW82789   0.140   7.251   0.778
60317SOL    HW182790   0.062   7.273   0.726
60317SOL    HW282791   0.141   7.156   0.781
60318SOL     OW82792   3.064  12.860  13.969
60318SOL    HW182793   3.128  12.925  13.999
60318SOL    HW282794   2.983  12.910  13.957
60319SOL     OW82795   9.649  12.020   0.256
60319SOL    HW182796   9.687  12.108   0.254
60319SOL    HW282797   9.654  11.990   0.165
60320SOL     OW82798  12.819   8.370  14.453
60320SOL    HW182799  12.899   8.320  14.469
60320SOL    HW282800  12.749   8.305  14.454
60321SOL     OW82801  13.207  14.801  12.195
60321SOL    HW182802  13.137  14.740  12.173
60321SOL    HW282803  13.229  14.843  12.112
60322SOL     OW82804   2.212   6.391  11.765
60322SOL    HW182805   2.122   6.420  11.775
60322SOL    HW282806   2.254   6.461  11.715
60323SOL     OW82807   8.383   1.745   6.935
60323SOL    HW182808   8.360   1.756   7.027
60323SOL    HW282809   8.437   1.666   6.932
60324SOL     OW82810  11.136  14.001   1.540
60324SOL    HW182811  11.082  14.037   1.610
60324SOL    HW282812  11.128  13.906   1.550
60325SOL     OW82813   3.767   0.689  13.604
60325SOL    HW182814   3.747   0.736  13.686
60325SOL    HW282815   3.701   0.621  13.598
60326SOL     OW82816   1.964   3.992   7.491
60326SOL    HW182817   1.949   3.912   7.439
60326SOL    HW282818   1.979   4.060   7.425
60327SOL     OW82819   8.377   0.391   1.393
60327SOL    HW182820   8.416   0.478   1.400
60327SOL    HW282821   8.451   0.330   1.398
60328SOL     OW82822   6.031   6.717   3.769
60328SOL    HW182823   6.096   6.774   3.728
60328SOL    HW282824   6.075   6.632   3.774
60329SOL     OW82825  10.240   2.161  12.870
60329SOL    HW182826  10.250   2.256  12.869
60329SOL    HW282827  10.217   2.138  12.780
60330SOL     OW82828   7.293  12.602   6.799
60330SOL    HW182829   7.221  12.647   6.753
60330SOL    HW282830   7.254  12.519   6.827
60331SOL     OW82831   6.383   3.017   3.759
60331SOL    HW182832   6.442   3.091   3.776
60331SOL    HW282833   6.442   2.944   3.738
60332SOL     OW82834   0.311   2.117   3.579
60332SOL    HW182835   0.347   2.035   3.613
60332SOL    HW282836   0.326   2.180   3.649
60333SOL     OW82837   1.103   6.944   9.815
60333SOL    HW182838   1.157   7.014   9.777
60333SOL    HW282839   1.041   6.990   9.871
60334SOL     OW82840   7.963  12.848   0.954
60334SOL    HW182841   7.955  12.769   1.008
60334SOL    HW282842   8.051  12.843   0.916
60335SOL     OW82843  10.044   9.130  12.629
60335SOL    HW182844  10.052   9.225  12.642
60335SOL    HW282845   9.968   9.105  12.682
60336SOL     OW82846   4.400  11.033  13.082
60336SOL    HW182847   4.354  10.956  13.049
60336SOL    HW282848   4.332  11.088  13.119
60337SOL     OW82849   9.832  13.958   5.210
60337SOL    HW182850   9.882  14.017   5.267
60337SOL    HW282851   9.753  14.008   5.189
60338SOL     OW82852  12.405   7.063  10.486
60338SOL    HW182853  12.382   6.971  10.491
60338SOL    HW282854  12.333   7.108  10.531
60339SOL     OW82855   6.185   4.611  11.771
60339SOL    HW182856   6.254   4.627  11.706
60339SOL    HW282857   6.118   4.676  11.751
60340SOL     OW82858  14.730   5.105   3.701
60340SOL    HW182859  14.748   5.044   3.630
60340SOL    HW282860  14.635   5.099   3.713
60341SOL     OW82861   8.758  14.610   6.658
60341SOL    HW182862   8.768  14.599   6.563
60341SOL    HW282863   8.847  14.613   6.691
60342SOL     OW82864   1.750   6.787  10.101
60342SOL    HW182865   1.706   6.711  10.138
60342SOL    HW282866   1.682   6.855  10.100
60343SOL     OW82867   5.878   5.380   8.255
60343SOL    HW182868   5.883   5.312   8.322
60343SOL    HW282869   5.818   5.445   8.292
60344SOL     OW82870   9.078   4.806   1.889
60344SOL    HW182871   9.086   4.711   1.888
60344SOL    HW282872   9.044   4.827   1.976
60345SOL     OW82873   5.576   5.508   9.652
60345SOL    HW182874   5.594   5.566   9.578
60345SOL    HW282875   5.509   5.448   9.620
60346SOL     OW82876   2.909  12.818   1.187
60346SOL    HW182877   2.916  12.817   1.282
60346SOL    HW282878   2.998  12.832   1.156
60347SOL     OW82879  12.247   7.891   7.837
60347SOL    HW182880  12.225   7.846   7.919
60347SOL    HW282881  12.228   7.983   7.855
60348SOL     OW82882  10.264   3.024   8.691
60348SOL    HW182883  10.186   3.000   8.642
60348SOL    HW282884  10.231   3.067   8.770
60349SOL     OW82885  13.034   2.883   7.893
60349SOL    HW182886  13.075   2.909   7.976
60349SOL    HW282887  12.975   2.955   7.872
60350SOL     OW82888   7.829   6.321  12.012
60350SOL    HW182889   7.923   6.305  12.012
60350SOL    HW282890   7.821   6.416  12.023
60351SOL     OW82891   2.278   9.903   9.144
60351SOL    HW182892   2.234   9.974   9.191
60351SOL    HW282893   2.209   9.837   9.131
60352SOL     OW82894   6.855  11.000   6.588
60352SOL    HW182895   6.864  10.991   6.493
60352SOL    HW282896   6.780  10.944   6.610
60353SOL     OW82897   6.335   4.926   6.977
60353SOL    HW182898   6.306   4.860   6.914
60353SOL    HW282899   6.386   4.877   7.041
60354SOL     OW82900   2.625  14.209   3.359
60354SOL    HW182901   2.697  14.233   3.418
60354SOL    HW282902   2.548  14.253   3.395
60355SOL     OW82903   7.168   5.966  11.486
60355SOL    HW182904   7.256   5.998  11.468
60355SOL    HW282905   7.165   5.879  11.446
60356SOL     OW82906   2.141   3.058   4.105
60356SOL    HW182907   2.225   3.015   4.088
60356SOL    HW282908   2.109   3.016   4.185
60357SOL     OW82909   1.869   3.844   2.540
60357SOL    HW182910   1.950   3.820   2.494
60357SOL    HW282911   1.878   3.803   2.626
60358SOL     OW82912   2.731   8.068   6.765
60358SOL    HW182913   2.823   8.043   6.754
60358SOL    HW282914   2.713   8.053   6.858
60359SOL     OW82915   8.974  10.101   8.391
60359SOL    HW182916   9.024  10.019   8.398
60359SOL    HW282917   8.910  10.095   8.463
60360SOL     OW82918   0.692   3.055   9.931
60360SOL    HW182919   0.736   3.126   9.979
60360SOL    HW282920   0.690   2.982   9.992
60361SOL     OW82921   8.960   5.102   4.007
60361SOL    HW182922   8.921   5.051   3.935
60361SOL    HW282923   8.891   5.107   4.073
60362SOL     OW82924  10.263   5.061   2.870
60362SOL    HW182925  10.181   5.022   2.900
60362SOL    HW282926  10.310   4.989   2.829
60363SOL     OW82927   1.863  14.674   3.500
60363SOL    HW182928   1.904  14.760   3.510
60363SOL    HW282929   1.918  14.627   3.437
60364SOL     OW82930   2.147   7.603  12.714
60364SOL    HW182931   2.092   7.674  12.748
60364SOL    HW282932   2.236   7.630  12.735
60365SOL     OW82933   5.306   4.023   1.121
60365SOL    HW182934   5.341   3.961   1.185
60365SOL    HW282935   5.212   4.010   1.124
60366SOL     OW82936   1.242   2.834  11.272
60366SOL    HW182937   1.313   2.793  11.321
60366SOL    HW282938   1.244   2.926  11.298
60367SOL     OW82939   7.863  10.017   4.188
60367SOL    HW182940   7.957  10.001   4.185
60367SOL    HW282941   7.829   9.954   4.251
60368SOL     OW82942   9.527   9.710   1.782
60368SOL    HW182943   9.615   9.675   1.766
60368SOL    HW282944   9.486   9.647   1.842
60369SOL     OW82945  13.173  12.880   2.396
60369SOL    HW182946  13.241  12.939   2.363
60369SOL    HW282947  13.134  12.927   2.470
60370SOL     OW82948   1.562   4.486  12.041
60370SOL    HW182949   1.533   4.534  11.964
60370SOL    HW282950   1.519   4.529  12.115
60371SOL     OW82951  10.066   9.262   2.083
60371SOL    HW182952  10.105   9.178   2.056
60371SOL    HW282953  10.104   9.279   2.169
60372SOL     OW82954   9.853   7.955   2.339
60372SOL    HW182955   9.894   7.926   2.420
60372SOL    HW282956   9.897   7.905   2.270
60373SOL     OW82957   1.355  10.920   4.057
60373SOL    HW182958   1.428  10.889   4.111
60373SOL    HW282959   1.395  10.984   3.998
60374SOL     OW82960   4.410  13.510  13.463
60374SOL    HW182961   4.370  13.521  13.377
60374SOL    HW282962   4.346  13.548  13.524
60375SOL     OW82963  10.996   1.753   7.394
60375SOL    HW182964  10.999   1.710   7.308
60375SOL    HW282965  10.939   1.829   7.381
60376SOL     OW82966  10.299   1.740  12.852
60376SOL    HW182967  10.273   1.649  12.838
60376SOL    HW282968  10.368   1.736  12.918
60377SOL     OW82969   0.385   7.455   5.836
60377SOL    HW182970   0.382   7.362   5.859
60377SOL    HW282971   0.300   7.472   5.796
60378SOL     OW82972  11.152   3.563   1.709
60378SOL    HW182973  11.121   3.646   1.746
60378SOL    HW282974  11.235   3.584   1.667
60379SOL     OW82975   5.905  10.211   4.528
60379SOL    HW182976   5.964  10.137   4.547
60379SOL    HW282977   5.901  10.214   4.432
60380SOL     OW82978  12.252  10.876   2.186
60380SOL    HW182979  12.212  10.862   2.100
60380SOL    HW282980  12.270  10.970   2.189
60381SOL     OW82981  12.594  10.194   2.509
60381SOL    HW182982  12.513  10.154   2.477
60381SOL    HW282983  12.569  10.237   2.590
60382SOL     OW82984  14.474   2.854  13.513
60382SOL    HW182985  14.564   2.877  13.536
60382SOL    HW282986  14.458   2.771  13.557
60383SOL     OW82987   8.959   0.093   6.253
60383SOL    HW182988   8.948  14.878   6.240
60383SOL    HW282989   8.888   0.132   6.202
60384SOL     OW82990  13.552   4.788  13.868
60384SOL    HW182991  13.482   4.829  13.817
60384SOL    HW282992  13.510   4.712  13.909
60385SOL     OW82993  12.770  11.380  10.216
60385SOL    HW182994  12.764  11.285  10.222
60385SOL    HW282995  12.862  11.400  10.234
60386SOL     OW82996   2.990   4.139  11.775
60386SOL    HW182997   2.995   4.143  11.680
60386SOL    HW282998   2.899   4.114  11.793
60387SOL     OW82999  14.549  13.666   8.243
60387SOL    HW183000  14.534  13.755   8.276
60387SOL    HW283001  14.496  13.610   8.299
60388SOL     OW83002   6.767   5.416  13.102
60388SOL    HW183003   6.676   5.408  13.071
60388SOL    HW283004   6.796   5.325  13.112
60389SOL     OW83005  13.525   5.282   5.339
60389SOL    HW183006  13.544   5.350   5.274
60389SOL    HW283007  13.461   5.225   5.297
60390SOL     OW83008   1.894  10.073   4.138
60390SOL    HW183009   1.893   9.982   4.169
60390SOL    HW283010   1.958  10.073   4.067
60391SOL     OW83011   5.532  11.776   3.080
60391SOL    HW183012   5.567  11.843   3.022
60391SOL    HW283013   5.556  11.805   3.168
60392SOL     OW83014   6.338  12.735  11.807
60392SOL    HW183015   6.264  12.794  11.822
60392SOL    HW283016   6.396  12.784  11.749
60393SOL     OW83017   7.399   1.488   2.801
60393SOL    HW183018   7.445   1.405   2.790
60393SOL    HW283019   7.323   1.467   2.856
60394SOL     OW83020   2.982   6.256  13.924
60394SOL    HW183021   3.047   6.200  13.967
60394SOL    HW283022   2.941   6.304  13.996
60395SOL     OW83023  14.468   0.556  11.742
60395SOL    HW183024  14.518   0.612  11.802
60395SOL    HW283025  14.378   0.589  11.748
60396SOL     OW83026  14.758   4.705   4.968
60396SOL    HW183027  14.839   4.700   5.018
60396SOL    HW283028  14.784   4.678   4.879
60397SOL     OW83029  14.605   9.111   3.568
60397SOL    HW183030  14.701   9.109   3.574
60397SOL    HW283031  14.585   9.197   3.532
60398SOL     OW83032   2.305  10.446  14.565
60398SOL    HW183033   2.358  10.376  14.602
60398SOL    HW283034   2.354  10.476  14.489
60399SOL     OW83035   4.965   4.475   4.439
60399SOL    HW183036   4.994   4.412   4.374
60399SOL    HW283037   5.033   4.474   4.506
60400SOL     OW83038  10.595  12.610  12.086
60400SOL    HW183039  10.681  12.568  12.083
60400SOL    HW283040  10.533  12.540  12.070
60401SOL     OW83041   4.476   0.005  11.405
60401SOL    HW183042   4.414   0.078  11.404
60401SOL    HW283043   4.542   0.028  11.339
60402SOL     OW83044   8.686  13.439   5.157
60402SOL    HW183045   8.639  13.522   5.166
60402SOL    HW283046   8.669  13.393   5.239
60403SOL     OW83047   8.606   2.786   5.470
60403SOL    HW183048   8.592   2.742   5.386
60403SOL    HW283049   8.622   2.878   5.446
60404SOL     OW83050   2.446   1.794   4.743
60404SOL    HW183051   2.492   1.721   4.783
60404SOL    HW283052   2.410   1.759   4.661
60405SOL     OW83053  14.678   8.301   2.980
60405SOL    HW183054  14.667   8.359   3.056
60405SOL    HW283055  14.619   8.227   2.997
60406SOL     OW83056   8.338   1.522   2.803
60406SOL    HW183057   8.312   1.613   2.792
60406SOL    HW283058   8.261   1.479   2.840
60407SOL     OW83059   1.845  10.668   0.789
60407SOL    HW183060   1.920  10.726   0.802
60407SOL    HW283061   1.879  10.597   0.735
60408SOL     OW83062  11.816   9.197  10.315
60408SOL    HW183063  11.799   9.267  10.378
60408SOL    HW283064  11.804   9.117  10.365
60409SOL     OW83065   9.672   5.025   1.378
60409SOL    HW183066   9.758   5.037   1.418
60409SOL    HW283067   9.667   5.094   1.311
60410SOL     OW83068  13.577   7.289   7.296
60410SOL    HW183069  13.582   7.305   7.390
60410SOL    HW283070  13.661   7.320   7.262
60411SOL     OW83071   8.137  11.176  12.535
60411SOL    HW183072   8.218  11.227  12.537
60411SOL    HW283073   8.164  11.089  12.506
60412SOL     OW83074  12.332   9.808   8.988
60412SOL    HW183075  12.286   9.818   8.904
60412SOL    HW283076  12.277   9.750   9.039
60413SOL     OW83077   7.540   4.951   8.435
60413SOL    HW183078   7.564   4.891   8.364
60413SOL    HW283079   7.484   4.898   8.492
60414SOL     OW83080  14.147   7.808   0.924
60414SOL    HW183081  14.130   7.714   0.913
60414SOL    HW283082  14.071   7.841   0.971
60415SOL     OW83083   6.095   8.977   9.790
60415SOL    HW183084   6.064   9.036   9.859
60415SOL    HW283085   6.077   8.889   9.823
60416SOL     OW83086   3.715   5.157   7.702
60416SOL    HW183087   3.720   5.115   7.617
60416SOL    HW283088   3.803   5.153   7.737
60417SOL     OW83089  11.414   3.759  11.800
60417SOL    HW183090  11.442   3.761  11.892
60417SOL    HW283091  11.398   3.666  11.782
60418SOL     OW83092   0.256   0.213   5.737
60418SOL    HW183093   0.198   0.281   5.772
60418SOL    HW283094   0.286   0.165   5.815
60419SOL     OW83095   1.909  11.524   3.925
60419SOL    HW183096   1.916  11.523   4.021
60419SOL    HW283097   1.843  11.591   3.906
60420SOL     OW83098   0.340   1.221   0.716
60420SOL    HW183099   0.365   1.312   0.732
60420SOL    HW283100   0.244   1.222   0.716
60421SOL     OW83101   4.385   6.076   9.070
60421SOL    HW183102   4.429   6.075   9.154
60421SOL    HW283103   4.301   6.119   9.087
60422SOL     OW83104   8.498   1.387   8.471
60422SOL    HW183105   8.570   1.424   8.523
60422SOL    HW283106   8.516   1.416   8.381
60423SOL     OW83107   0.794   9.474   4.497
60423SOL    HW183108   0.715   9.523   4.473
60423SOL    HW283109   0.860   9.505   4.436
60424SOL     OW83110  10.056   2.624   7.475
60424SOL    HW183111  10.079   2.709   7.437
60424SOL    HW283112  10.111   2.618   7.553
60425SOL     OW83113   1.454   4.961  12.661
60425SOL    HW183114   1.446   5.012  12.580
60425SOL    HW283115   1.536   4.990  12.700
60426SOL     OW83116   4.289   8.081   9.911
60426SOL    HW183117   4.255   8.155   9.961
60426SOL    HW283118   4.214   8.049   9.861
60427SOL     OW83119   6.244   7.877   0.384
60427SOL    HW183120   6.253   7.784   0.409
60427SOL    HW283121   6.154   7.899   0.407
60428SOL     OW83122  12.881   7.625   3.770
60428SOL    HW183123  12.970   7.604   3.742
60428SOL    HW283124  12.834   7.541   3.766
60429SOL     OW83125   2.234  12.026  10.312
60429SOL    HW183126   2.165  11.969  10.277
60429SOL    HW283127   2.190  12.108  10.331
60430SOL     OW83128   8.247   2.514  12.786
60430SOL    HW183129   8.161   2.515  12.745
60430SOL    HW283130   8.267   2.421  12.799
60431SOL     OW83131  11.450   6.583  12.220
60431SOL    HW183132  11.433   6.507  12.275
60431SOL    HW283133  11.543   6.602  12.234
60432SOL     OW83134   4.558  12.427   1.327
60432SOL    HW183135   4.571  12.352   1.268
60432SOL    HW283136   4.575  12.391   1.414
60433SOL     OW83137   7.276   2.875   8.277
60433SOL    HW183138   7.242   2.957   8.241
60433SOL    HW283139   7.371   2.887   8.280
60434SOL     OW83140  10.327  12.978   2.816
60434SOL    HW183141  10.413  13.021   2.813
60434SOL    HW283142  10.272  13.032   2.759
60435SOL     OW83143   6.064  12.569   4.866
60435SOL    HW183144   6.024  12.500   4.813
60435SOL    HW283145   6.008  12.645   4.853
60436SOL     OW83146  14.659   2.279   4.006
60436SOL    HW183147  14.617   2.225   4.072
60436SOL    HW283148  14.730   2.225   3.972
60437SOL     OW83149  11.719   3.483   2.085
60437SOL    HW183150  11.688   3.404   2.041
60437SOL    HW283151  11.754   3.451   2.169
60438SOL     OW83152   7.457   4.392  14.005
60438SOL    HW183153   7.425   4.467  14.056
60438SOL    HW283154   7.422   4.406  13.917
60439SOL     OW83155   4.409   1.496  13.760
60439SOL    HW183156   4.463   1.423  13.730
60439SOL    HW283157   4.460   1.574  13.736
60440SOL     OW83158   0.403   8.432   3.620
60440SOL    HW183159   0.402   8.468   3.531
60440SOL    HW283160   0.447   8.348   3.612
60441SOL     OW83161  11.402   6.115  10.546
60441SOL    HW183162  11.440   6.082  10.465
60441SOL    HW283163  11.476   6.144  10.599
60442SOL     OW83164   9.200   0.633   1.469
60442SOL    HW183165   9.295   0.632   1.482
60442SOL    HW283166   9.167   0.577   1.539
60443SOL     OW83167   0.275  13.004   3.007
60443SOL    HW183168   0.183  13.007   2.981
60443SOL    HW283169   0.275  13.031   3.099
60444SOL     OW83170  12.266   3.803  10.139
60444SOL    HW183171  12.242   3.727  10.086
60444SOL    HW283172  12.274   3.874  10.076
60445SOL     OW83173  14.379   4.885  10.111
60445SOL    HW183174  14.423   4.810  10.071
60445SOL    HW283175  14.287   4.860  10.114
60446SOL     OW83176   3.651   4.850  14.217
60446SOL    HW183177   3.604   4.799  14.151
60446SOL    HW283178   3.722   4.892  14.169
60447SOL     OW83179  10.553   2.811   5.223
60447SOL    HW183180  10.568   2.718   5.243
60447SOL    HW283181  10.459   2.817   5.204
60448SOL     OW83182   0.667   0.671   3.504
60448SOL    HW183183   0.621   0.673   3.587
60448SOL    HW283184   0.760   0.678   3.528
60449SOL     OW83185   8.997  14.679  14.098
60449SOL    HW183186   9.069  14.678  14.162
60449SOL    HW283187   8.920  14.702  14.150
60450SOL     OW83188  14.092   7.902   7.030
60450SOL    HW183189  13.997   7.909   7.029
60450SOL    HW283190  14.119   7.944   6.948
60451SOL     OW83191   7.088   8.993  10.624
60451SOL    HW183192   7.024   9.058  10.597
60451SOL    HW283193   7.163   9.044  10.654
60452SOL     OW83194   6.798   8.897   1.045
60452SOL    HW183195   6.886   8.918   1.013
60452SOL    HW283196   6.764   8.980   1.077
60453SOL     OW83197   5.521   8.762   4.752
60453SOL    HW183198   5.586   8.752   4.821
60453SOL    HW283199   5.488   8.851   4.763
60454SOL     OW83200  14.561   4.871  13.035
60454SOL    HW183201  14.594   4.817  12.963
60454SOL    HW283202  14.468   4.849  13.040
60455SOL     OW83203   1.811   0.474   5.129
60455SOL    HW183204   1.892   0.526   5.129
60455SOL    HW283205   1.772   0.490   5.042
60456SOL     OW83206   7.560  13.544  12.691
60456SOL    HW183207   7.586  13.458  12.723
60456SOL    HW283208   7.636  13.574  12.641
60457SOL     OW83209  13.875   5.025   7.800
60457SOL    HW183210  13.830   5.088   7.857
60457SOL    HW283211  13.913   4.961   7.860
60458SOL     OW83212   8.326  14.118   3.574
60458SOL    HW183213   8.343  14.091   3.664
60458SOL    HW283214   8.235  14.145   3.574
60459SOL     OW83215   3.512  11.324   4.051
60459SOL    HW183216   3.419  11.309   4.034
60459SOL    HW283217   3.516  11.416   4.077
60460SOL     OW83218  13.177  11.258  14.640
60460SOL    HW183219  13.124  11.336  14.656
60460SOL    HW283220  13.123  11.185  14.671
60461SOL     OW83221   5.854  12.041  10.502
60461SOL    HW183222   5.774  12.081  10.469
60461SOL    HW283223   5.906  12.114  10.536
60462SOL     OW83224   0.111   8.053   6.890
60462SOL    HW183225   0.164   7.978   6.861
60462SOL    HW283226   0.055   8.018   6.959
60463SOL     OW83227   3.940   6.196  14.473
60463SOL    HW183228   3.913   6.236  14.556
60463SOL    HW283229   3.999   6.126  14.498
60464SOL     OW83230   4.048   8.779   2.199
60464SOL    HW183231   4.016   8.741   2.118
60464SOL    HW283232   4.021   8.871   2.196
60465SOL     OW83233  11.168  13.872   4.878
60465SOL    HW183234  11.103  13.807   4.905
60465SOL    HW283235  11.116  13.951   4.861
60466SOL     OW83236   1.941   7.058  10.820
60466SOL    HW183237   2.005   7.129  10.809
60466SOL    HW283238   1.908   7.070  10.909
60467SOL     OW83239  11.879   9.734   0.478
60467SOL    HW183240  11.898   9.822   0.510
60467SOL    HW283241  11.911   9.734   0.387
60468SOL     OW83242   5.969   9.252   1.208
60468SOL    HW183243   5.887   9.204   1.222
60468SOL    HW283244   5.944   9.325   1.151
60469SOL     OW83245  14.771   3.778   4.138
60469SOL    HW183246  14.793   3.686   4.123
60469SOL    HW283247  14.844   3.812   4.190
60470SOL     OW83248   1.048  11.007  11.068
60470SOL    HW183249   1.098  10.958  11.133
60470SOL    HW283250   1.002  11.075  11.118
60471SOL     OW83251   4.060   9.289  11.863
60471SOL    HW183252   4.000   9.215  11.869
60471SOL    HW283253   4.047   9.324  11.775
60472SOL     OW83254   0.925  10.482  11.910
60472SOL    HW183255   0.986  10.423  11.954
60472SOL    HW283256   0.912  10.554  11.972
60473SOL     OW83257   7.562   3.267   9.580
60473SOL    HW183258   7.488   3.327   9.570
60473SOL    HW283259   7.525   3.180   9.572
60474SOL     OW83260   6.943   7.919  12.863
60474SOL    HW183261   7.037   7.932  12.853
60474SOL    HW283262   6.928   7.926  12.958
60475SOL     OW83263  11.178   5.229  10.293
60475SOL    HW183264  11.198   5.313  10.250
60475SOL    HW283265  11.135   5.178  10.224
60476SOL     OW83266  12.648  10.410  11.238
60476SOL    HW183267  12.632  10.322  11.205
60476SOL    HW283268  12.730  10.437  11.196
60477SOL     OW83269  12.891   0.470   3.152
60477SOL    HW183270  12.882   0.564   3.141
60477SOL    HW283271  12.841   0.433   3.079
60478SOL     OW83272   8.008   4.077  13.190
60478SOL    HW183273   8.032   4.093  13.281
60478SOL    HW283274   8.027   3.984  13.177
60479SOL     OW83275  12.351   1.582   4.370
60479SOL    HW183276  12.323   1.673   4.381
60479SOL    HW283277  12.384   1.556   4.456
60480SOL     OW83278   7.241   6.712  10.089
60480SOL    HW183279   7.272   6.802  10.079
60480SOL    HW283280   7.306   6.658  10.045
60481SOL     OW83281   4.120   8.162   7.063
60481SOL    HW183282   4.066   8.095   7.106
60481SOL    HW283283   4.205   8.157   7.108
60482SOL     OW83284   0.815  11.537  12.223
60482SOL    HW183285   0.783  11.468  12.165
60482SOL    HW283286   0.745  11.548  12.288
60483SOL     OW83287  14.080   5.483   9.095
60483SOL    HW183288  14.037   5.524   9.170
60483SOL    HW283289  14.024   5.409   9.073
60484SOL     OW83290   9.919  13.145   6.609
60484SOL    HW183291   9.967  13.082   6.555
60484SOL    HW283292   9.916  13.106   6.696
60485SOL     OW83293   7.721   2.893   3.561
60485SOL    HW183294   7.678   2.946   3.494
60485SOL    HW283295   7.711   2.803   3.530
60486SOL     OW83296   0.875  12.517   6.621
60486SOL    HW183297   0.813  12.489   6.554
60486SOL    HW283298   0.940  12.447   6.625
60487SOL     OW83299   1.277   6.147  13.212
60487SOL    HW183300   1.332   6.093  13.156
60487SOL    HW283301   1.190   6.142  13.171
60488SOL     OW83302   1.621   9.461  13.422
60488SOL    HW183303   1.700   9.513  13.417
60488SOL    HW283304   1.625   9.403  13.346
60489SOL     OW83305   3.547   0.864   1.217
60489SOL    HW183306   3.595   0.826   1.144
60489SOL    HW283307   3.507   0.788   1.261
60490SOL     OW83308  14.189  11.030   5.021
60490SOL    HW183309  14.107  11.055   4.979
60490SOL    HW283310  14.251  11.022   4.948
60491SOL     OW83311  10.824   3.179   8.501
60491SOL    HW183312  10.802   3.212   8.414
60491SOL    HW283313  10.740   3.181   8.548
60492SOL     OW83314   0.889   6.267   9.716
60492SOL    HW183315   0.851   6.190   9.673
60492SOL    HW283316   0.877   6.338   9.653
60493SOL     OW83317   7.608   2.289   5.358
60493SOL    HW183318   7.687   2.284   5.304
60493SOL    HW283319   7.606   2.379   5.390
60494SOL     OW83320   6.415   6.552   4.284
60494SOL    HW183321   6.374   6.469   4.257
60494SOL    HW283322   6.411   6.607   4.206
60495SOL     OW83323   6.782   9.778  11.942
60495SOL    HW183324   6.867   9.812  11.967
60495SOL    HW283325   6.797   9.732  11.859
60496SOL     OW83326   9.823   3.381  12.197
60496SOL    HW183327   9.829   3.321  12.123
60496SOL    HW283328   9.735   3.368  12.232
60497SOL     OW83329  12.842  14.129  14.849
60497SOL    HW183330  12.861  14.035  14.841
60497SOL    HW283331  12.896  14.170  14.781
60498SOL     OW83332   3.022   0.185   5.565
60498SOL    HW183333   3.116   0.204   5.566
60498SOL    HW283334   3.013   0.109   5.622
60499SOL     OW83335   5.697  13.520  11.804
60499SOL    HW183336   5.646  13.485  11.731
60499SOL    HW283337   5.657  13.605  11.824
60500SOL     OW83338   1.405  10.472  10.150
60500SOL    HW183339   1.339  10.407  10.174
60500SOL    HW283340   1.419  10.523  10.230
60501SOL     OW83341   8.822  13.057   3.327
60501SOL    HW183342   8.781  12.988   3.274
60501SOL    HW283343   8.786  13.138   3.292
60502SOL     OW83344   4.953   4.791   4.756
60502SOL    HW183345   5.038   4.809   4.715
60502SOL    HW283346   4.974   4.737   4.832
60503SOL     OW83347   3.130   8.007   3.995
60503SOL    HW183348   3.182   8.082   4.025
60503SOL    HW283349   3.059   8.001   4.059
60504SOL     OW83350  12.847  14.606  11.031
60504SOL    HW183351  12.882  14.560  11.107
60504SOL    HW283352  12.818  14.691  11.066
60505SOL     OW83353  12.063   8.723  14.729
60505SOL    HW183354  11.986   8.719  14.787
60505SOL    HW283355  12.102   8.808  14.749
60506SOL     OW83356   5.203   1.015  12.810
60506SOL    HW183357   5.224   0.981  12.723
60506SOL    HW283358   5.118   1.058  12.799
60507SOL     OW83359   3.293  11.739   6.056
60507SOL    HW183360   3.328  11.812   6.005
60507SOL    HW283361   3.364  11.675   6.059
60508SOL     OW83362   9.245   9.121   7.370
60508SOL    HW183363   9.305   9.196   7.372
60508SOL    HW283364   9.173   9.148   7.427
60509SOL     OW83365   8.145   1.241   2.514
60509SOL    HW183366   8.208   1.313   2.506
60509SOL    HW283367   8.060   1.283   2.503
60510SOL     OW83368   1.153   0.954   3.498
60510SOL    HW183369   1.202   0.939   3.579
60510SOL    HW283370   1.220   0.967   3.431
60511SOL     OW83371  12.391   9.295   2.920
60511SOL    HW183372  12.337   9.274   2.844
60511SOL    HW283373  12.451   9.221   2.927
60512SOL     OW83374  11.281  12.266   8.295
60512SOL    HW183375  11.268  12.361   8.295
60512SOL    HW283376  11.359  12.253   8.241
60513SOL     OW83377  14.659   9.496   4.478
60513SOL    HW183378  14.712   9.417   4.465
60513SOL    HW283379  14.579   9.465   4.519
60514SOL     OW83380  14.183   9.153  14.062
60514SOL    HW183381  14.276   9.132  14.065
60514SOL    HW283382  14.159   9.144  13.969
60515SOL     OW83383   4.089   0.663   9.627
60515SOL    HW183384   4.106   0.700   9.541
60515SOL    HW283385   4.001   0.625   9.620
60516SOL     OW83386   3.034   9.623   1.264
60516SOL    HW183387   3.124   9.654   1.255
60516SOL    HW283388   3.025   9.601   1.356
60517SOL     OW83389   9.996   8.523   2.820
60517SOL    HW183390  10.014   8.440   2.866
60517SOL    HW283391  10.047   8.517   2.739
60518SOL     OW83392   5.568   3.014   7.517
60518SOL    HW183393   5.518   3.077   7.465
60518SOL    HW283394   5.625   3.069   7.572
60519SOL     OW83395   7.475   4.932   5.788
60519SOL    HW183396   7.420   4.990   5.840
60519SOL    HW283397   7.421   4.855   5.771
60520SOL     OW83398   0.360   8.695  11.338
60520SOL    HW183399   0.354   8.685  11.243
60520SOL    HW283400   0.353   8.606  11.372
60521SOL     OW83401  10.981   0.437  13.697
60521SOL    HW183402  11.030   0.515  13.671
60521SOL    HW283403  10.912   0.429  13.632
60522SOL     OW83404  12.289   3.797   2.212
60522SOL    HW183405  12.256   3.750   2.136
60522SOL    HW283406  12.243   3.881   2.210
60523SOL     OW83407  14.205  13.869   7.197
60523SOL    HW183408  14.127  13.822   7.229
60523SOL    HW283409  14.242  13.811   7.131
60524SOL     OW83410   0.756   6.366   1.280
60524SOL    HW183411   0.789   6.456   1.279
60524SOL    HW283412   0.753   6.341   1.188
60525SOL     OW83413   5.779   1.475  11.195
60525SOL    HW183414   5.685   1.493  11.196
60525SOL    HW283415   5.815   1.535  11.130
60526SOL     OW83416   8.531   1.104   2.506
60526SOL    HW183417   8.457   1.044   2.507
60526SOL    HW283418   8.526   1.150   2.590
60527SOL     OW83419  12.708   7.918   0.865
60527SOL    HW183420  12.732   8.002   0.905
60527SOL    HW283421  12.715   7.855   0.936
60528SOL     OW83422   4.656   7.105  13.845
60528SOL    HW183423   4.707   7.109  13.765
60528SOL    HW283424   4.682   7.023  13.887
60529SOL     OW83425   0.334   7.973   7.150
60529SOL    HW183426   0.349   7.959   7.243
60529SOL    HW283427   0.331   8.068   7.140
60530SOL     OW83428   8.769  13.320  11.656
60530SOL    HW183429   8.698  13.257  11.645
60530SOL    HW283430   8.848  13.271  11.638
60531SOL     OW83431   4.413   9.764  10.293
60531SOL    HW183432   4.401   9.702  10.365
60531SOL    HW283433   4.491   9.815  10.318
60532SOL     OW83434   3.703   5.744   2.970
60532SOL    HW183435   3.659   5.821   3.006
60532SOL    HW283436   3.795   5.756   2.993
60533SOL     OW83437   0.223   2.050  11.047
60533SOL    HW183438   0.175   1.998  11.111
60533SOL    HW283439   0.198   2.140  11.065
60534SOL     OW83440   6.847  13.564  13.903
60534SOL    HW183441   6.906  13.617  13.957
60534SOL    HW283442   6.896  13.549  13.823
60535SOL     OW83443   1.105  14.722  12.407
60535SOL    HW183444   1.150  14.668  12.472
60535SOL    HW283445   1.172  14.784  12.378
60536SOL     OW83446   9.967  13.967   9.710
60536SOL    HW183447  10.062  13.957   9.707
60536SOL    HW283448   9.952  14.032   9.778
60537SOL     OW83449   4.117   0.110   5.343
60537SOL    HW183450   4.187   0.168   5.314
60537SOL    HW283451   4.138   0.025   5.305
60538SOL     OW83452   5.014   4.408   0.226
60538SOL    HW183453   5.041   4.449   0.308
60538SOL    HW283454   4.932   4.452   0.203
60539SOL     OW83455   0.180  10.559   0.871
60539SOL    HW183456   0.204  10.576   0.963
60539SOL    HW283457   0.248  10.604   0.820
60540SOL     OW83458   0.869   7.147   7.992
60540SOL    HW183459   0.831   7.170   7.907
60540SOL    HW283460   0.943   7.090   7.970
60541SOL     OW83461  12.031   0.772   4.193
60541SOL    HW183462  11.961   0.759   4.129
60541SOL    HW283463  11.994   0.743   4.276
60542SOL     OW83464   1.178   6.061  11.743
60542SOL    HW183465   1.138   6.060  11.829
60542SOL    HW283466   1.106   6.075  11.682
60543SOL     OW83467   3.232  10.525  14.000
60543SOL    HW183468   3.272  10.603  14.038
60543SOL    HW283469   3.214  10.468  14.075
60544SOL     OW83470  12.835  12.930   0.282
60544SOL    HW183471  12.916  12.879   0.287
60544SOL    HW283472  12.863  13.018   0.257
60545SOL     OW83473  10.923   9.954  14.026
60545SOL    HW183474  10.953  10.041  14.051
60545SOL    HW283475  10.897   9.963  13.934
60546SOL     OW83476   9.825   2.465  13.651
60546SOL    HW183477   9.825   2.561  13.653
60546SOL    HW283478   9.740   2.440  13.689
60547SOL     OW83479   7.904   1.267  11.945
60547SOL    HW183480   7.895   1.258  12.040
60547SOL    HW283481   7.950   1.187  11.918
60548SOL     OW83482   7.534  12.453  10.129
60548SOL    HW183483   7.563  12.429  10.217
60548SOL    HW283484   7.608  12.432  10.072
60549SOL     OW83485   6.738   5.981   3.742
60549SOL    HW183486   6.774   6.056   3.790
60549SOL    HW283487   6.676   6.021   3.680
60550SOL     OW83488   4.361   7.074   5.014
60550SOL    HW183489   4.433   7.018   5.043
60550SOL    HW283490   4.296   7.065   5.084
60551SOL     OW83491   1.700   9.160   2.631
60551SOL    HW183492   1.754   9.143   2.708
60551SOL    HW283493   1.668   9.073   2.605
60552SOL     OW83494   1.374   1.117  14.833
60552SOL    HW183495   1.373   1.099  14.740
60552SOL    HW283496   1.288   1.091  14.864
60553SOL     OW83497   1.783   3.035  12.118
60553SOL    HW183498   1.866   3.040  12.071
60553SOL    HW283499   1.751   3.125  12.119
60554SOL     OW83500  13.630  11.170   3.044
60554SOL    HW183501  13.547  11.129   3.020
60554SOL    HW283502  13.695  11.127   2.988
60555SOL     OW83503   4.536   4.688  11.799
60555SOL    HW183504   4.461   4.676  11.857
60555SOL    HW283505   4.585   4.761  11.838
60556SOL     OW83506  10.075   1.053  10.561
60556SOL    HW183507  10.150   1.026  10.508
60556SOL    HW283508  10.084   1.148  10.568
60557SOL     OW83509   3.453   7.231  11.022
60557SOL    HW183510   3.382   7.169  11.036
60557SOL    HW283511   3.500   7.234  11.106
60558SOL     OW83512   5.674   3.392  14.148
60558SOL    HW183513   5.600   3.333  14.139
60558SOL    HW283514   5.659   3.459  14.082
60559SOL     OW83515   5.168   9.507  14.453
60559SOL    HW183516   5.146   9.544  14.539
60559SOL    HW283517   5.229   9.436  14.473
60560SOL     OW83518   7.251   3.568  14.555
60560SOL    HW183519   7.336   3.553  14.595
60560SOL    HW283520   7.264   3.645  14.499
60561SOL     OW83521   2.771   2.662   5.492
60561SOL    HW183522   2.728   2.701   5.416
60561SOL    HW283523   2.853   2.627   5.457
60562SOL     OW83524  14.486   7.637  13.106
60562SOL    HW183525  14.415   7.619  13.045
60562SOL    HW283526  14.522   7.550  13.127
60563SOL     OW83527  14.813  14.701   2.673
60563SOL    HW183528  14.753  14.762   2.717
60563SOL    HW283529   0.003  14.684   2.737
60564SOL     OW83530   7.983   4.025  11.668
60564SOL    HW183531   7.904   4.078  11.677
60564SOL    HW283532   8.055   4.088  11.670
60565SOL     OW83533  10.797   6.626  12.269
60565SOL    HW183534  10.745   6.581  12.202
60565SOL    HW283535  10.873   6.660  12.222
60566SOL     OW83536   3.636  14.479   6.078
60566SOL    HW183537   3.730  14.476   6.094
60566SOL    HW283538   3.618  14.572   6.059
60567SOL     OW83539   2.279  14.479   6.306
60567SOL    HW183540   2.200  14.527   6.332
60567SOL    HW283541   2.347  14.514   6.363
60568SOL     OW83542   1.423   0.659  12.048
60568SOL    HW183543   1.362   0.732  12.060
60568SOL    HW283544   1.506   0.701  12.026
60569SOL     OW83545   1.479  11.702   2.262
60569SOL    HW183546   1.529  11.755   2.324
60569SOL    HW283547   1.502  11.737   2.176
60570SOL     OW83548   8.411   0.203  11.512
60570SOL    HW183549   8.432   0.295  11.531
60570SOL    HW283550   8.351   0.208  11.437
60571SOL     OW83551  10.381  10.104   5.935
60571SOL    HW183552  10.403  10.176   5.874
60571SOL    HW283553  10.363  10.030   5.878
60572SOL     OW83554   3.502   5.186   9.622
60572SOL    HW183555   3.501   5.103   9.575
60572SOL    HW283556   3.520   5.161   9.713
60573SOL     OW83557   8.955   4.523  12.223
60573SOL    HW183558   8.895   4.472  12.278
60573SOL    HW283559   8.902   4.550  12.148
60574SOL     OW83560   5.381   9.900   5.881
60574SOL    HW183561   5.393   9.990   5.913
60574SOL    HW283562   5.392   9.845   5.959
60575SOL     OW83563   2.509   8.498   9.221
60575SOL    HW183564   2.534   8.467   9.134
60575SOL    HW283565   2.513   8.419   9.276
60576SOL     OW83566   2.198  11.298   1.455
60576SOL    HW183567   2.205  11.206   1.430
60576SOL    HW283568   2.111  11.307   1.494
60577SOL     OW83569   1.357  12.738  12.495
60577SOL    HW183570   1.373  12.653  12.537
60577SOL    HW283571   1.437  12.788  12.512
60578SOL     OW83572   9.313   2.171  10.344
60578SOL    HW183573   9.358   2.088  10.360
60578SOL    HW283574   9.384   2.234  10.327
60579SOL     OW83575   9.761  12.500  10.099
60579SOL    HW183576   9.688  12.440  10.084
60579SOL    HW283577   9.752  12.527  10.190
60580SOL     OW83578  14.167  13.346  13.494
60580SOL    HW183579  14.137  13.432  13.525
60580SOL    HW283580  14.262  13.353  13.490
60581SOL     OW83581   0.477  10.763  11.320
60581SOL    HW183582   0.487  10.685  11.265
60581SOL    HW283583   0.538  10.826  11.283
60582SOL     OW83584   4.115  13.813   6.903
60582SOL    HW183585   4.130  13.783   6.813
60582SOL    HW283586   4.023  13.792   6.920
60583SOL     OW83587   7.241   3.992  11.610
60583SOL    HW183588   7.306   3.986  11.539
60583SOL    HW283589   7.197   4.075  11.595
60584SOL     OW83590  10.257   2.542   2.565
60584SOL    HW183591  10.275   2.483   2.638
60584SOL    HW283592  10.163   2.559   2.570
60585SOL     OW83593   6.523   8.207   0.574
60585SOL    HW183594   6.494   8.204   0.483
60585SOL    HW283595   6.542   8.299   0.591
60586SOL     OW83596   7.401   3.606  10.018
60586SOL    HW183597   7.323   3.552  10.010
60586SOL    HW283598   7.388   3.656  10.099
60587SOL     OW83599   0.593   6.699  12.271
60587SOL    HW183600   0.674   6.648  12.270
60587SOL    HW283601   0.618   6.785  12.303
60588SOL     OW83602   4.218   5.301   6.138
60588SOL    HW183603   4.235   5.302   6.044
60588SOL    HW283604   4.270   5.373   6.172
60589SOL     OW83605   4.900   6.726   9.706
60589SOL    HW183606   4.876   6.661   9.772
60589SOL    HW283607   4.822   6.780   9.695
60590SOL     OW83608   8.288   6.672   6.341
60590SOL    HW183609   8.233   6.595   6.326
60590SOL    HW283610   8.351   6.671   6.269
60591SOL     OW83611   5.635   9.440   3.787
60591SOL    HW183612   5.669   9.523   3.820
60591SOL    HW283613   5.602   9.459   3.700
60592SOL     OW83614   4.479  13.203  14.610
60592SOL    HW183615   4.502  13.165  14.525
60592SOL    HW283616   4.504  13.295  14.602
60593SOL     OW83617   6.025  10.046   0.107
60593SOL    HW183618   5.977  10.071   0.185
60593SOL    HW283619   6.116  10.066   0.127
60594SOL     OW83620   5.947   3.232  14.861
60594SOL    HW183621   6.035   3.194  14.869
60594SOL    HW283622   5.892   3.173   0.034
60595SOL     OW83623   2.094  12.247   4.241
60595SOL    HW183624   2.109  12.315   4.175
60595SOL    HW283625   2.176  12.198   4.245
60596SOL     OW83626   1.966   6.038   8.486
60596SOL    HW183627   1.929   5.954   8.513
60596SOL    HW283628   1.990   6.025   8.394
60597SOL     OW83629   5.414   9.846   0.258
60597SOL    HW183630   5.492   9.840   0.203
60597SOL    HW283631   5.437   9.797   0.337
60598SOL     OW83632   0.388   4.594   7.475
60598SOL    HW183633   0.318   4.597   7.540
60598SOL    HW283634   0.463   4.559   7.522
60599SOL     OW83635  14.693   0.107   8.180
60599SOL    HW183636  14.740   0.082   8.100
60599SOL    HW283637  14.759   0.155   8.231
60600SOL     OW83638  12.624   7.009  11.733
60600SOL    HW183639  12.611   6.921  11.699
60600SOL    HW283640  12.648   7.061  11.657
60601SOL     OW83641   4.439   1.269  10.061
60601SOL    HW183642   4.499   1.218  10.008
60601SOL    HW283643   4.404   1.335  10.000
60602SOL     OW83644   1.216  11.460  10.402
60602SOL    HW183645   1.299  11.470  10.356
60602SOL    HW283646   1.212  11.536  10.461
60603SOL     OW83647  11.218   9.454   9.706
60603SOL    HW183648  11.225   9.377   9.650
60603SOL    HW283649  11.293   9.509   9.680
60604SOL     OW83650  14.293  13.539  10.616
60604SOL    HW183651  14.212  13.583  10.643
60604SOL    HW283652  14.361  13.606  10.624
60605SOL     OW83653   8.764  11.087  13.500
60605SOL    HW183654   8.783  11.123  13.587
60605SOL    HW283655   8.812  11.004  13.497
60606SOL     OW83656   4.231   0.068   7.474
60606SOL    HW183657   4.185   0.053   7.392
60606SOL    HW283658   4.323   0.050   7.454
60607SOL     OW83659   8.113   5.797  13.589
60607SOL    HW183660   8.070   5.792  13.504
60607SOL    HW283661   8.041   5.798  13.652
60608SOL     OW83662   3.127   7.571   6.518
60608SOL    HW183663   3.208   7.524   6.537
60608SOL    HW283664   3.112   7.624   6.596
60609SOL     OW83665   6.844  12.595   8.085
60609SOL    HW183666   6.851  12.501   8.098
60609SOL    HW283667   6.827  12.605   7.991
60610SOL     OW83668   1.700   4.491   3.461
60610SOL    HW183669   1.635   4.499   3.392
60610SOL    HW283670   1.649   4.499   3.542
60611SOL     OW83671   3.340   1.656   8.484
60611SOL    HW183672   3.246   1.674   8.482
60611SOL    HW283673   3.376   1.720   8.545
60612SOL     OW83674   6.400   2.672  13.990
60612SOL    HW183675   6.316   2.629  14.005
60612SOL    HW283676   6.377   2.751  13.940
60613SOL     OW83677   3.765   6.542   7.333
60613SOL    HW183678   3.789   6.635   7.333
60613SOL    HW283679   3.703   6.533   7.405
60614SOL     OW83680   0.716  12.496   4.201
60614SOL    HW183681   0.766  12.468   4.124
60614SOL    HW283682   0.777  12.552   4.250
60615SOL     OW83683   6.707   7.017   9.383
60615SOL    HW183684   6.731   7.108   9.366
60615SOL    HW283685   6.662   7.020   9.467
60616SOL     OW83686   4.908   9.426   7.972
60616SOL    HW183687   4.911   9.520   7.953
60616SOL    HW283688   4.997   9.396   7.956
60617SOL     OW83689   9.689  10.321  12.771
60617SOL    HW183690   9.662  10.239  12.730
60617SOL    HW283691   9.610  10.374  12.776
60618SOL     OW83692  10.685   8.467  12.768
60618SOL    HW183693  10.679   8.549  12.720
60618SOL    HW283694  10.622   8.409  12.725
60619SOL     OW83695   5.231   9.215   4.036
60619SOL    HW183696   5.326   9.210   4.050
60619SOL    HW283697   5.206   9.299   4.074
60620SOL     OW83698   2.347   0.782   9.809
60620SOL    HW183699   2.318   0.768   9.899
60620SOL    HW283700   2.367   0.694   9.776
60621SOL     OW83701  11.562   6.292  10.141
60621SOL    HW183702  11.604   6.234  10.077
60621SOL    HW283703  11.623   6.294  10.215
60622SOL     OW83704  13.850   9.637  10.845
60622SOL    HW183705  13.788   9.572  10.813
60622SOL    HW283706  13.828   9.717  10.797
60623SOL     OW83707   9.871  13.136  13.625
60623SOL    HW183708   9.920  13.096  13.696
60623SOL    HW283709   9.858  13.065  13.562
60624SOL     OW83710   2.571   5.431   6.616
60624SOL    HW183711   2.597   5.347   6.654
60624SOL    HW283712   2.499   5.461   6.672
60625SOL     OW83713   9.970  11.192  14.117
60625SOL    HW183714   9.949  11.141  14.039
60625SOL    HW283715  10.056  11.230  14.099
60626SOL     OW83716   2.971   4.687  11.373
60626SOL    HW183717   2.913   4.629  11.422
60626SOL    HW283718   2.919   4.713  11.296
60627SOL     OW83719   4.696  12.455  12.730
60627SOL    HW183720   4.708  12.408  12.813
60627SOL    HW283721   4.608  12.430  12.701
60628SOL     OW83722  13.859  12.888   3.077
60628SOL    HW183723  13.898  12.922   3.158
60628SOL    HW283724  13.786  12.835   3.107
60629SOL     OW83725   7.108   5.740   0.456
60629SOL    HW183726   7.201   5.745   0.433
60629SOL    HW283727   7.063   5.779   0.381
60630SOL     OW83728   9.068   2.627   9.176
60630SOL    HW183729   9.061   2.532   9.178
60630SOL    HW283730   9.098   2.651   9.264
60631SOL     OW83731   4.817   7.777   7.878
60631SOL    HW183732   4.733   7.750   7.913
60631SOL    HW283733   4.861   7.822   7.950
60632SOL     OW83734  10.653   7.119   7.835
60632SOL    HW183735  10.620   7.044   7.885
60632SOL    HW283736  10.733   7.145   7.880
60633SOL     OW83737   4.523   7.920   2.711
60633SOL    HW183738   4.447   7.915   2.652
60633SOL    HW283739   4.597   7.893   2.657
60634SOL     OW83740   1.574  11.784   1.365
60634SOL    HW183741   1.575  11.719   1.436
60634SOL    HW283742   1.543  11.864   1.407
60635SOL     OW83743  13.947  13.628   0.321
60635SOL    HW183744  13.930  13.677   0.240
60635SOL    HW283745  14.028  13.666   0.355
60636SOL     OW83746   6.800   2.002   9.080
60636SOL    HW183747   6.744   1.974   9.153
60636SOL    HW283748   6.875   1.943   9.083
60637SOL     OW83749   0.362  10.432  14.485
60637SOL    HW183750   0.312  10.506  14.451
60637SOL    HW283751   0.410  10.398  14.409
60638SOL     OW83752   5.868   2.325   2.150
60638SOL    HW183753   5.857   2.404   2.204
60638SOL    HW283754   5.907   2.261   2.209
60639SOL     OW83755   3.696   5.492   7.449
60639SOL    HW183756   3.785   5.527   7.443
60639SOL    HW283757   3.641   5.556   7.405
60640SOL     OW83758  12.180   9.219   2.492
60640SOL    HW183759  12.111   9.192   2.432
60640SOL    HW283760  12.258   9.225   2.438
60641SOL     OW83761   7.693   9.195   7.716
60641SOL    HW183762   7.641   9.253   7.770
60641SOL    HW283763   7.728   9.251   7.647
60642SOL     OW83764  12.783   3.354   3.160
60642SOL    HW183765  12.853   3.324   3.101
60642SOL    HW283766  12.702   3.326   3.118
60643SOL     OW83767   5.282  10.970   4.504
60643SOL    HW183768   5.363  11.020   4.511
60643SOL    HW283769   5.310  10.882   4.479
60644SOL     OW83770   0.121   2.166  12.984
60644SOL    HW183771   0.039   2.184  13.030
60644SOL    HW283772   0.172   2.113  13.046
60645SOL     OW83773   4.667   1.538   5.677
60645SOL    HW183774   4.749   1.489   5.673
60645SOL    HW283775   4.599   1.471   5.675
60646SOL     OW83776   4.371   2.214  11.324
60646SOL    HW183777   4.388   2.257  11.240
60646SOL    HW283778   4.288   2.252  11.354
60647SOL     OW83779  14.136   2.214   6.380
60647SOL    HW183780  14.185   2.154   6.437
60647SOL    HW283781  14.049   2.175   6.374
60648SOL     OW83782  14.016   1.600  10.858
60648SOL    HW183783  14.050   1.607  10.769
60648SOL    HW283784  13.953   1.672  10.864
60649SOL     OW83785   2.513  10.243   5.371
60649SOL    HW183786   2.513  10.302   5.447
60649SOL    HW283787   2.514  10.301   5.295
60650SOL     OW83788   2.775   8.074  11.393
60650SOL    HW183789   2.798   8.119  11.311
60650SOL    HW283790   2.684   8.100  11.409
60651SOL     OW83791   5.797   1.235   7.314
60651SOL    HW183792   5.727   1.269   7.370
60651SOL    HW283793   5.851   1.182   7.373
60652SOL     OW83794  10.117  13.770  14.107
60652SOL    HW183795  10.099  13.680  14.081
60652SOL    HW283796  10.207  13.785  14.080
60653SOL     OW83797   3.633  11.204  11.206
60653SOL    HW183798   3.620  11.247  11.122
60653SOL    HW283799   3.645  11.112  11.185
60654SOL     OW83800  13.174  12.678  13.414
60654SOL    HW183801  13.182  12.729  13.494
60654SOL    HW283802  13.179  12.587  13.443
60655SOL     OW83803  14.381   6.202   6.751
60655SOL    HW183804  14.304   6.192   6.694
60655SOL    HW283805  14.421   6.284   6.723
60656SOL     OW83806   8.579   4.673  12.253
60656SOL    HW183807   8.633   4.725  12.193
60656SOL    HW283808   8.535   4.609  12.198
60657SOL     OW83809   5.946   5.120  13.433
60657SOL    HW183810   5.955   5.067  13.512
60657SOL    HW283811   5.973   5.208  13.460
60658SOL     OW83812   1.031   2.175   2.084
60658SOL    HW183813   1.095   2.129   2.137
60658SOL    HW283814   1.036   2.266   2.114
60659SOL     OW83815   1.665  11.810   5.988
60659SOL    HW183816   1.702  11.759   6.060
60659SOL    HW283817   1.700  11.769   5.909
60660SOL     OW83818   2.775   3.871   8.606
60660SOL    HW183819   2.706   3.804   8.604
60660SOL    HW283820   2.801   3.882   8.515
60661SOL     OW83821   4.139   8.343   0.001
60661SOL    HW183822   4.074   8.377  14.818
60661SOL    HW283823   4.094   8.342   0.085
60662SOL     OW83824   9.623  13.122   8.608
60662SOL    HW183825   9.573  13.040   8.600
60662SOL    HW283826   9.674  13.127   8.527
60663SOL     OW83827  11.460  12.817   9.727
60663SOL    HW183828  11.406  12.802   9.649
60663SOL    HW283829  11.417  12.889   9.773
60664SOL     OW83830   3.780   3.290  14.846
60664SOL    HW183831   3.831   3.213  14.868
60664SOL    HW283832   3.832   3.336  14.780
60665SOL     OW83833  13.437   7.156   7.609
60665SOL    HW183834  13.427   7.159   7.704
60665SOL    HW283835  13.377   7.088   7.580
60666SOL     OW83836  13.181   5.844   7.174
60666SOL    HW183837  13.112   5.868   7.113
60666SOL    HW283838  13.136   5.823   7.256
60667SOL     OW83839   1.099   1.129  13.860
60667SOL    HW183840   1.046   1.101  13.935
60667SOL    HW283841   1.048   1.199  13.820
60668SOL     OW83842   0.331  13.979   9.170
60668SOL    HW183843   0.245  13.967   9.211
60668SOL    HW283844   0.386  14.016   9.239
60669SOL     OW83845   8.701   6.727   2.188
60669SOL    HW183846   8.685   6.726   2.283
60669SOL    HW283847   8.797   6.731   2.181
60670SOL     OW83848  12.541   8.355   0.022
60670SOL    HW183849  12.597   8.433   0.022
60670SOL    HW283850  12.601   8.282   0.005
60671SOL     OW83851   1.630   4.387  10.528
60671SOL    HW183852   1.620   4.333  10.450
60671SOL    HW283853   1.722   4.414  10.527
60672SOL     OW83854   4.468   8.331  14.265
60672SOL    HW183855   4.560   8.324  14.289
60672SOL    HW283856   4.463   8.411  14.213
60673SOL     OW83857  11.465  14.760   6.772
60673SOL    HW183858  11.483  14.775   6.864
60673SOL    HW283859  11.497  14.672   6.755
60674SOL     OW83860   9.848  10.964   9.668
60674SOL    HW183861   9.847  10.936   9.576
60674SOL    HW283862   9.915  11.032   9.671
60675SOL     OW83863   1.331  12.266   2.496
60675SOL    HW183864   1.386  12.201   2.541
60675SOL    HW283865   1.360  12.350   2.532
60676SOL     OW83866   7.843   9.285   5.536
60676SOL    HW183867   7.775   9.274   5.469
60676SOL    HW283868   7.901   9.210   5.524
60677SOL     OW83869   3.814  10.032  10.590
60677SOL    HW183870   3.881  10.047  10.656
60677SOL    HW283871   3.845  10.079  10.513
60678SOL     OW83872  13.846   1.398   2.602
60678SOL    HW183873  13.885   1.314   2.625
60678SOL    HW283874  13.809   1.384   2.515
60679SOL     OW83875   3.784  13.081  12.169
60679SOL    HW183876   3.869  13.062  12.208
60679SOL    HW283877   3.733  13.121  12.240
60680SOL     OW83878  13.151   6.408   1.767
60680SOL    HW183879  13.153   6.325   1.721
60680SOL    HW283880  13.139   6.474   1.698
60681SOL     OW83881   0.317   9.851   4.738
60681SOL    HW183882   0.269   9.772   4.714
60681SOL    HW283883   0.310   9.908   4.661
60682SOL     OW83884   0.956   1.627   9.659
60682SOL    HW183885   1.031   1.635   9.718
60682SOL    HW283886   0.959   1.536   9.629
60683SOL     OW83887   9.681   8.712   6.520
60683SOL    HW183888   9.646   8.711   6.609
60683SOL    HW283889   9.603   8.716   6.463
60684SOL     OW83890   1.963   2.425   5.165
60684SOL    HW183891   1.999   2.512   5.179
60684SOL    HW283892   2.039   2.366   5.171
60685SOL     OW83893   4.106   1.662  14.415
60685SOL    HW183894   4.090   1.723  14.487
60685SOL    HW283895   4.201   1.659  14.407
60686SOL     OW83896   9.424   9.851   5.423
60686SOL    HW183897   9.441   9.822   5.333
60686SOL    HW283898   9.341   9.810   5.447
60687SOL     OW83899  11.403   2.734  14.332
60687SOL    HW183900  11.365   2.785  14.403
60687SOL    HW283901  11.478   2.786  14.301
60688SOL     OW83902  13.622  12.804  13.826
60688SOL    HW183903  13.675  12.883  13.816
60688SOL    HW283904  13.633  12.779  13.918
60689SOL     OW83905   7.667  11.241   1.165
60689SOL    HW183906   7.606  11.300   1.209
60689SOL    HW283907   7.657  11.158   1.212
60690SOL     OW83908   3.966  11.244  14.384
60690SOL    HW183909   3.891  11.300  14.402
60690SOL    HW283910   4.040  11.289  14.423
60691SOL     OW83911   7.054   2.467   1.749
60691SOL    HW183912   7.110   2.403   1.793
60691SOL    HW283913   7.040   2.535   1.815
60692SOL     OW83914   6.304   3.029   1.637
60692SOL    HW183915   6.217   3.065   1.651
60692SOL    HW283916   6.296   2.937   1.659
60693SOL     OW83917   6.939   6.571   5.680
60693SOL    HW183918   6.946   6.660   5.713
60693SOL    HW283919   6.860   6.536   5.721
60694SOL     OW83920   2.892   4.487   1.080
60694SOL    HW183921   2.930   4.561   1.032
60694SOL    HW283922   2.798   4.505   1.082
60695SOL     OW83923  12.578  12.147  14.706
60695SOL    HW183924  12.548  12.109  14.624
60695SOL    HW283925  12.585  12.072  14.766
60696SOL     OW83926  10.961  14.621   8.156
60696SOL    HW183927  10.976  14.651   8.067
60696SOL    HW283928  10.907  14.689   8.196
60697SOL     OW83929  14.318   0.068   5.027
60697SOL    HW183930  14.380   0.002   4.997
60697SOL    HW283931  14.372   0.140   5.059
60698SOL     OW83932   6.781  13.956   0.134
60698SOL    HW183933   6.731  13.875   0.121
60698SOL    HW283934   6.720  14.014   0.180
60699SOL     OW83935  12.992   7.925   0.959
60699SOL    HW183936  12.987   7.865   0.885
60699SOL    HW283937  12.951   7.878   1.031
60700SOL     OW83938  13.974   4.392  11.091
60700SOL    HW183939  13.968   4.481  11.126
60700SOL    HW283940  14.026   4.401  11.011
60701SOL     OW83941   3.367  13.276   3.111
60701SOL    HW183942   3.319  13.304   3.033
60701SOL    HW283943   3.399  13.189   3.090
60702SOL     OW83944  11.735   1.683  10.056
60702SOL    HW183945  11.654   1.635  10.075
60702SOL    HW283946  11.757   1.659   9.966
60703SOL     OW83947   1.517   8.405  10.987
60703SOL    HW183948   1.591   8.455  11.022
60703SOL    HW283949   1.492   8.452  10.907
60704SOL     OW83950   1.675   0.809   4.142
60704SOL    HW183951   1.754   0.762   4.115
60704SOL    HW283952   1.673   0.887   4.086
60705SOL     OW83953   3.637   1.526   2.509
60705SOL    HW183954   3.598   1.491   2.589
60705SOL    HW283955   3.712   1.470   2.492
60706SOL     OW83956   1.641   8.171   8.403
60706SOL    HW183957   1.615   8.257   8.437
60706SOL    HW283958   1.571   8.148   8.341
60707SOL     OW83959   0.036   8.728   1.201
60707SOL    HW183960  14.875   8.641   1.191
60707SOL    HW283961  14.856   8.776   1.258
60708SOL     OW83962  13.965   1.105  14.275
60708SOL    HW183963  13.932   1.024  14.235
60708SOL    HW283964  14.018   1.146  14.206
60709SOL     OW83965   6.754   0.006   4.949
60709SOL    HW183966   6.712   0.073   5.002
60709SOL    HW283967   6.832   0.049   4.914
60710SOL     OW83968   6.374   6.964   4.094
60710SOL    HW183969   6.373   7.052   4.130
60710SOL    HW283970   6.459   6.956   4.051
60711SOL     OW83971   1.713   3.885   9.594
60711SOL    HW183972   1.678   3.820   9.654
60711SOL    HW283973   1.807   3.867   9.591
60712SOL     OW83974   7.446  11.236  11.160
60712SOL    HW183975   7.371  11.283  11.124
60712SOL    HW283976   7.487  11.195  11.084
60713SOL     OW83977   9.746   8.866  14.138
60713SOL    HW183978   9.812   8.826  14.081
60713SOL    HW283979   9.717   8.944  14.091
60714SOL     OW83980   2.645  12.256   2.809
60714SOL    HW183981   2.719  12.296   2.763
60714SOL    HW283982   2.587  12.330   2.829
60715SOL     OW83983   3.709   7.927  10.189
60715SOL    HW183984   3.772   7.990  10.153
60715SOL    HW283985   3.623   7.966  10.172
60716SOL     OW83986   4.030   5.145  14.128
60716SOL    HW183987   4.063   5.215  14.072
60716SOL    HW283988   4.102   5.128  14.189
60717SOL     OW83989   9.670  13.474  13.869
60717SOL    HW183990   9.697  13.477  13.961
60717SOL    HW283991   9.666  13.566  13.842
60718SOL     OW83992  14.038   4.177  14.096
60718SOL    HW183993  13.978   4.153  14.165
60718SOL    HW283994  14.030   4.107  14.031
60719SOL     OW83995   2.268   9.202  14.304
60719SOL    HW183996   2.281   9.165  14.391
60719SOL    HW283997   2.355   9.232  14.278
60720SOL     OW83998   9.432  12.117   2.024
60720SOL    HW183999   9.380  12.178   2.077
60720SOL    HW284000   9.472  12.057   2.088
60721SOL     OW84001   9.621   8.522   8.493
60721SOL    HW184002   9.602   8.442   8.541
60721SOL    HW284003   9.540   8.543   8.447
60722SOL     OW84004   8.228   6.224  14.085
60722SOL    HW184005   8.323   6.214  14.093
60722SOL    HW284006   8.216   6.266  13.999
60723SOL     OW84007   1.846   8.202   0.433
60723SOL    HW184008   1.795   8.163   0.504
60723SOL    HW284009   1.889   8.278   0.472
60724SOL     OW84010  14.567   7.627  11.407
60724SOL    HW184011  14.510   7.669  11.342
60724SOL    HW284012  14.566   7.687  11.482
60725SOL     OW84013  11.422   6.722   6.195
60725SOL    HW184014  11.379   6.758   6.273
60725SOL    HW284015  11.514   6.744   6.206
60726SOL     OW84016   2.974  12.154   2.797
60726SOL    HW184017   2.935  12.080   2.751
60726SOL    HW284018   3.043  12.185   2.738
60727SOL     OW84019  11.751   4.899  12.049
60727SOL    HW184020  11.714   4.931  12.132
60727SOL    HW284021  11.830   4.851  12.075
60728SOL     OW84022  10.925  11.671   5.821
60728SOL    HW184023  10.993  11.605   5.836
60728SOL    HW284024  10.870  11.633   5.753
60729SOL     OW84025  13.075  14.154   9.315
60729SOL    HW184026  12.993  14.199   9.297
60729SOL    HW284027  13.049  14.073   9.360
60730SOL     OW84028   7.925   5.307   1.781
60730SOL    HW184029   8.001   5.326   1.727
60730SOL    HW284030   7.951   5.333   1.869
60731SOL     OW84031   4.321   5.951   3.657
60731SOL    HW184032   4.305   5.860   3.683
60731SOL    HW284033   4.375   5.943   3.578
60732SOL     OW84034   2.160  13.325   2.347
60732SOL    HW184035   2.144  13.243   2.394
60732SOL    HW284036   2.107  13.318   2.268
60733SOL     OW84037   8.767   7.230  12.993
60733SOL    HW184038   8.830   7.223  13.065
60733SOL    HW284039   8.821   7.241  12.915
60734SOL     OW84040  12.835   7.258  12.122
60734SOL    HW184041  12.785   7.312  12.061
60734SOL    HW284042  12.911   7.311  12.145
60735SOL     OW84043   5.610   0.543   5.063
60735SOL    HW184044   5.653   0.541   5.149
60735SOL    HW284045   5.635   0.460   5.023
60736SOL     OW84046   7.172  12.670   5.885
60736SOL    HW184047   7.225  12.749   5.883
60736SOL    HW284048   7.235  12.598   5.885
60737SOL     OW84049  13.538   4.300  13.392
60737SOL    HW184050  13.571   4.243  13.322
60737SOL    HW284051  13.602   4.291  13.462
60738SOL     OW84052   5.216   9.406   4.259
60738SOL    HW184053   5.252   9.473   4.317
60738SOL    HW284054   5.128   9.390   4.292
60739SOL     OW84055   3.072   1.818  13.778
60739SOL    HW184056   3.045   1.739  13.731
60739SOL    HW284057   3.161   1.798  13.807
60740SOL     OW84058   9.285   0.900   4.107
60740SOL    HW184059   9.223   0.858   4.168
60740SOL    HW284060   9.367   0.904   4.156
60741SOL     OW84061   5.106   2.831   0.989
60741SOL    HW184062   5.114   2.926   0.991
60741SOL    HW284063   5.099   2.809   0.896
60742SOL     OW84064   3.187   7.910   5.363
60742SOL    HW184065   3.109   7.876   5.320
60742SOL    HW284066   3.155   7.947   5.445
60743SOL     OW84067   8.132   0.521   8.198
60743SOL    HW184068   8.175   0.607   8.203
60743SOL    HW284069   8.092   0.510   8.284
60744SOL     OW84070  14.844   1.388   8.503
60744SOL    HW184071  14.801   1.361   8.422
60744SOL    HW284072  14.821   1.321   8.567
60745SOL     OW84073   8.179  11.062   2.055
60745SOL    HW184074   8.255  11.037   2.004
60745SOL    HW284075   8.142  10.979   2.086
60746SOL     OW84076  11.805   7.566   0.090
60746SOL    HW184077  11.854   7.644   0.118
60746SOL    HW284078  11.858   7.492   0.119
60747SOL     OW84079  11.436   0.333   0.417
60747SOL    HW184080  11.437   0.342   0.321
60747SOL    HW284081  11.354   0.375   0.444
60748SOL     OW84082  14.757  14.396   3.284
60748SOL    HW184083  14.674  14.374   3.326
60748SOL    HW284084  14.790  14.312   3.252
60749SOL     OW84085   7.522  11.960   0.169
60749SOL    HW184086   7.544  11.887   0.111
60749SOL    HW284087   7.427  11.963   0.168
60750SOL     OW84088   5.084   5.304   2.631
60750SOL    HW184089   5.015   5.239   2.645
60750SOL    HW284090   5.150   5.258   2.580
60751SOL     OW84091   2.923   2.643   9.200
60751SOL    HW184092   2.985   2.595   9.255
60751SOL    HW284093   2.928   2.600   9.115
60752SOL     OW84094  13.382   0.354   1.591
60752SOL    HW184095  13.364   0.415   1.662
60752SOL    HW284096  13.296   0.333   1.554
60753SOL     OW84097   9.781  11.348   4.599
60753SOL    HW184098   9.793  11.398   4.680
60753SOL    HW284099   9.701  11.384   4.560
60754SOL     OW84100  14.219   9.503  13.387
60754SOL    HW184101  14.269   9.451  13.450
60754SOL    HW284102  14.271   9.500  13.307
60755SOL     OW84103  11.090  12.871   7.913
60755SOL    HW184104  11.160  12.933   7.934
60755SOL    HW284105  11.108  12.844   7.823
60756SOL     OW84106  14.107   4.810  10.995
60756SOL    HW184107  14.109   4.760  10.914
60756SOL    HW284108  14.102   4.902  10.967
60757SOL     OW84109  11.273   9.414  10.857
60757SOL    HW184110  11.308   9.431  10.769
60757SOL    HW284111  11.181   9.393  10.842
60758SOL     OW84112  13.769   0.739   0.560
60758SOL    HW184113  13.811   0.759   0.477
60758SOL    HW284114  13.833   0.766   0.627
60759SOL     OW84115  13.548  13.745  13.519
60759SOL    HW184116  13.453  13.756  13.528
60759SOL    HW284117  13.564  13.753  13.425
60760SOL     OW84118   6.629   1.987  13.499
60760SOL    HW184119   6.541   1.989  13.538
60760SOL    HW284120   6.668   1.907  13.532
60761SOL     OW84121   0.508   4.633   5.068
60761SOL    HW184122   0.579   4.676   5.020
60761SOL    HW284123   0.431   4.644   5.014
60762SOL     OW84124   5.554  11.858   0.554
60762SOL    HW184125   5.499  11.921   0.600
60762SOL    HW284126   5.497  11.781   0.543
60763SOL     OW84127  14.383   9.423  11.080
60763SOL    HW184128  14.300   9.377  11.092
60763SOL    HW284129  14.401   9.462  11.166
60764SOL     OW84130   6.118  12.468  10.699
60764SOL    HW184131   6.177  12.541  10.716
60764SOL    HW284132   6.167  12.412  10.639
60765SOL     OW84133  10.312   4.455  10.362
60765SOL    HW184134  10.251   4.434  10.433
60765SOL    HW284135  10.386   4.497  10.406
60766SOL     OW84136   8.432  11.221   5.638
60766SOL    HW184137   8.412  11.278   5.712
60766SOL    HW284138   8.394  11.266   5.562
60767SOL     OW84139   7.951  14.065   7.989
60767SOL    HW184140   7.986  13.976   7.988
60767SOL    HW284141   7.870  14.060   7.938
60768SOL     OW84142   4.721   1.667  13.721
60768SOL    HW184143   4.771   1.632  13.647
60768SOL    HW284144   4.765   1.750  13.743
60769SOL     OW84145  13.863   4.670   6.821
60769SOL    HW184146  13.800   4.701   6.886
60769SOL    HW284147  13.939   4.728   6.833
60770SOL     OW84148   4.831   2.150   8.780
60770SOL    HW184149   4.925   2.163   8.768
60770SOL    HW284150   4.813   2.065   8.741
60771SOL     OW84151  12.091  12.578   9.331
60771SOL    HW184152  12.126  12.613   9.248
60771SOL    HW284153  12.145  12.502   9.349
60772SOL     OW84154  10.663  12.723   5.964
60772SOL    HW184155  10.588  12.782   5.973
60772SOL    HW284156  10.629  12.648   5.916
60773SOL     OW84157   1.881  10.428   5.116
60773SOL    HW184158   1.899  10.435   5.022
60773SOL    HW284159   1.964  10.397   5.154
60774SOL     OW84160   8.428  12.932  11.988
60774SOL    HW184161   8.492  12.973  11.930
60774SOL    HW284162   8.415  12.845  11.951
60775SOL     OW84163  13.709   2.631   4.933
60775SOL    HW184164  13.656   2.651   5.010
60775SOL    HW284165  13.799   2.645   4.962
60776SOL     OW84166   0.986   5.601   9.675
60776SOL    HW184167   0.894   5.587   9.650
60776SOL    HW284168   0.988   5.586   9.769
60777SOL     OW84169   6.134  12.696  10.921
60777SOL    HW184170   6.196  12.714  10.991
60777SOL    HW284171   6.133  12.776  10.868
60778SOL     OW84172  11.423   9.309   2.593
60778SOL    HW184173  11.408   9.397   2.559
60778SOL    HW284174  11.449   9.258   2.516
60779SOL     OW84175   8.622   1.351   7.689
60779SOL    HW184176   8.629   1.300   7.608
60779SOL    HW284177   8.535   1.328   7.723
60780SOL     OW84178  12.669   0.134   8.365
60780SOL    HW184179  12.666   0.155   8.458
60780SOL    HW284180  12.672   0.219   8.321
60781SOL     OW84181  10.838  11.482   3.100
60781SOL    HW184182  10.759  11.445   3.139
60781SOL    HW284183  10.910  11.443   3.150
60782SOL     OW84184   0.080  11.117  10.322
60782SOL    HW184185   0.111  11.207  10.325
60782SOL    HW284186   0.137  11.070  10.383
60783SOL     OW84187   8.468   7.085  11.690
60783SOL    HW184188   8.427   7.020  11.633
60783SOL    HW284189   8.396   7.140  11.720
60784SOL     OW84190  14.830   7.101  11.950
60784SOL    HW184191   0.031   7.052  11.970
60784SOL    HW284192  14.826   7.169  12.017
60785SOL     OW84193  11.661   5.075  14.536
60785SOL    HW184194  11.674   5.112  14.624
60785SOL    HW284195  11.649   5.150  14.479
60786SOL     OW84196   5.434   9.517   1.315
60786SOL    HW184197   5.459   9.584   1.379
60786SOL    HW284198   5.514   9.502   1.264
60787SOL     OW84199   0.473   6.491  13.950
60787SOL    HW184200   0.479   6.476  14.044
60787SOL    HW284201   0.410   6.426  13.919
60788SOL     OW84202  12.789   2.824   1.216
60788SOL    HW184203  12.781   2.734   1.184
60788SOL    HW284204  12.727   2.829   1.289
60789SOL     OW84205   8.751  11.637   1.545
60789SOL    HW184206   8.697  11.716   1.543
60789SOL    HW284207   8.822  11.654   1.484
60790SOL     OW84208  11.400   7.266  11.505
60790SOL    HW184209  11.435   7.231  11.587
60790SOL    HW284210  11.326   7.321  11.532
60791SOL     OW84211   1.003   4.072  13.494
60791SOL    HW184212   1.057   4.046  13.568
60791SOL    HW284213   1.062   4.120  13.437
60792SOL     OW84214  14.738  10.693  14.660
60792SOL    HW184215  14.749  10.662  14.750
60792SOL    HW284216  14.674  10.764  14.667
60793SOL     OW84217   9.641  10.700  10.950
60793SOL    HW184218   9.627  10.608  10.973
60793SOL    HW284219   9.617  10.748  11.029
60794SOL     OW84220   6.104  10.358  11.825
60794SOL    HW184221   6.132  10.274  11.790
60794SOL    HW284222   6.184  10.412  11.823
60795SOL     OW84223   0.961   0.760   3.558
60795SOL    HW184224   0.935   0.808   3.480
60795SOL    HW284225   1.039   0.805   3.590
60796SOL     OW84226   6.994   3.503   0.085
60796SOL    HW184227   7.057   3.440   0.120
60796SOL    HW284228   6.947   3.535   0.161
60797SOL     OW84229   8.751  12.935   9.086
60797SOL    HW184230   8.703  12.969   9.011
60797SOL    HW284231   8.728  12.842   9.090
60798SOL     OW84232   9.086  12.281  14.840
60798SOL    HW184233   9.161  12.242  14.795
60798SOL    HW284234   9.074  12.366  14.798
60799SOL     OW84235   2.656   4.354  13.828
60799SOL    HW184236   2.675   4.408  13.905
60799SOL    HW284237   2.651   4.417  13.756
60800SOL     OW84238  12.024   4.443   8.036
60800SOL    HW184239  12.005   4.453   8.129
60800SOL    HW284240  12.098   4.384   8.032
60801SOL     OW84241   2.709   4.499   7.582
60801SOL    HW184242   2.707   4.485   7.677
60801SOL    HW284243   2.652   4.430   7.547
60802SOL     OW84244   4.363   0.040   3.421
60802SOL    HW184245   4.339   0.050   3.513
60802SOL    HW284246   4.286   0.000   3.380
60803SOL     OW84247   0.581  12.548  10.945
60803SOL    HW184248   0.607  12.486  10.876
60803SOL    HW284249   0.664  12.578  10.982
60804SOL     OW84250   6.872   8.060  11.770
60804SOL    HW184251   6.851   8.027  11.858
60804SOL    HW284252   6.967   8.050  11.762
60805SOL     OW84253   1.027  12.767   6.584
60805SOL    HW184254   1.098  12.704   6.577
60805SOL    HW284255   0.956  12.719   6.627
60806SOL     OW84256  13.271  13.212   5.832
60806SOL    HW184257  13.343  13.204   5.769
60806SOL    HW284258  13.216  13.281   5.797
60807SOL     OW84259   5.302   7.609   8.986
60807SOL    HW184260   5.315   7.534   9.045
60807SOL    HW284261   5.214   7.640   9.005
60808SOL     OW84262  10.040   1.517   7.493
60808SOL    HW184263  10.018   1.485   7.406
60808SOL    HW284264  10.035   1.613   7.485
60809SOL     OW84265   2.202   6.317   5.767
60809SOL    HW184266   2.239   6.260   5.699
60809SOL    HW284267   2.125   6.270   5.798
60810SOL     OW84268  11.087  10.323  11.777
60810SOL    HW184269  11.182  10.320  11.763
60810SOL    HW284270  11.074  10.286  11.864
60811SOL     OW84271  12.505   9.659   0.081
60811SOL    HW184272  12.528   9.733   0.026
60811SOL    HW284273  12.525   9.582   0.027
60812SOL     OW84274   8.930   1.877   9.426
60812SOL    HW184275   9.009   1.913   9.383
60812SOL    HW284276   8.957   1.791   9.457
60813SOL     OW84277  12.395   5.005   9.853
60813SOL    HW184278  12.367   5.079   9.800
60813SOL    HW284279  12.456   4.957   9.797
60814SOL     OW84280  10.297   0.242  12.278
60814SOL    HW184281  10.216   0.284  12.307
60814SOL    HW284282  10.363   0.271  12.341
60815SOL     OW84283   6.185   6.545   7.446
60815SOL    HW184284   6.241   6.521   7.520
60815SOL    HW284285   6.140   6.464   7.423
60816SOL     OW84286   2.159  10.157   8.964
60816SOL    HW184287   2.067  10.175   8.985
60816SOL    HW284288   2.183  10.083   9.019
60817SOL     OW84289   6.997   9.534   9.297
60817SOL    HW184290   6.924   9.575   9.343
60817SOL    HW284291   6.980   9.440   9.304
60818SOL     OW84292   7.554   9.011  10.706
60818SOL    HW184293   7.617   9.080  10.689
60818SOL    HW284294   7.601   8.949  10.762
60819SOL     OW84295   5.073  12.680   9.089
60819SOL    HW184296   5.058  12.673   9.184
60819SOL    HW284297   4.990  12.712   9.054
60820SOL     OW84298   9.960   0.439   5.185
60820SOL    HW184299  10.044   0.423   5.141
60820SOL    HW284300   9.964   0.532   5.210
60821SOL     OW84301   5.942  13.173   3.666
60821SOL    HW184302   5.888  13.140   3.593
60821SOL    HW284303   5.885  13.168   3.742
60822SOL     OW84304  13.416   4.782  12.667
60822SOL    HW184305  13.447   4.788  12.757
60822SOL    HW284306  13.493   4.757  12.616
60823SOL     OW84307  10.513   3.845   6.713
60823SOL    HW184308  10.584   3.908   6.699
60823SOL    HW284309  10.550   3.761   6.686
60824SOL     OW84310  10.539  11.611   3.183
60824SOL    HW184311  10.458  11.569   3.212
60824SOL    HW284312  10.584  11.635   3.265
60825SOL     OW84313  14.268  10.680   1.504
60825SOL    HW184314  14.329  10.637   1.565
60825SOL    HW284315  14.323  10.741   1.455
60826SOL     OW84316  10.868   8.491  13.963
60826SOL    HW184317  10.922   8.415  13.983
60826SOL    HW284318  10.778   8.462  13.980
60827SOL     OW84319   9.054  11.372   8.795
60827SOL    HW184320   9.149  11.381   8.811
60827SOL    HW284321   9.045  11.290   8.747
60828SOL     OW84322   1.162  12.083  11.212
60828SOL    HW184323   1.184  12.155  11.153
60828SOL    HW284324   1.152  12.125  11.298
60829SOL     OW84325  10.258  10.081   0.580
60829SOL    HW184326  10.298  10.017   0.639
60829SOL    HW284327  10.283  10.166   0.617
60830SOL     OW84328   8.844  11.177  11.173
60830SOL    HW184329   8.798  11.216  11.099
60830SOL    HW284330   8.878  11.251  11.223
60831SOL     OW84331   8.274  11.510  12.564
60831SOL    HW184332   8.184  11.538  12.546
60831SOL    HW284333   8.310  11.578  12.620
60832SOL     OW84334   7.503   7.467  12.180
60832SOL    HW184335   7.582   7.510  12.148
60832SOL    HW284336   7.512   7.376  12.151
60833SOL     OW84337  13.672   1.994   3.284
60833SOL    HW184338  13.728   2.059   3.327
60833SOL    HW284339  13.727   1.959   3.213
60834SOL     OW84340  11.581  10.487   2.069
60834SOL    HW184341  11.569  10.394   2.051
60834SOL    HW284342  11.525  10.505   2.145
60835SOL     OW84343   9.121  10.213   4.007
60835SOL    HW184344   9.202  10.166   3.988
60835SOL    HW284345   9.097  10.186   4.096
60836SOL     OW84346  14.212   0.939   6.648
60836SOL    HW184347  14.304   0.951   6.626
60836SOL    HW284348  14.214   0.881   6.725
60837SOL     OW84349  13.395  10.401   4.361
60837SOL    HW184350  13.370  10.476   4.415
60837SOL    HW284351  13.490  10.394   4.372
60838SOL     OW84352   0.159  11.402   7.006
60838SOL    HW184353   0.145  11.413   7.100
60838SOL    HW284354   0.089  11.452   6.965
60839SOL     OW84355  14.080   9.582   0.120
60839SOL    HW184356  14.163   9.590   0.168
60839SOL    HW284357  14.084   9.495   0.081
60840SOL     OW84358   5.114   1.828   7.988
60840SOL    HW184359   5.091   1.735   7.994
60840SOL    HW284360   5.035   1.874   8.015
60841SOL     OW84361   9.685   8.063   0.492
60841SOL    HW184362   9.636   8.079   0.573
60841SOL    HW284363   9.624   8.014   0.437
60842SOL     OW84364   6.453  11.587  13.113
60842SOL    HW184365   6.433  11.511  13.167
60842SOL    HW284366   6.540  11.569  13.077
60843SOL     OW84367   3.492  10.495   1.960
60843SOL    HW184368   3.501  10.462   2.049
60843SOL    HW284369   3.455  10.422   1.911
60844SOL     OW84370   2.413   5.576   6.339
60844SOL    HW184371   2.451   5.660   6.312
60844SOL    HW284372   2.481   5.512   6.320
60845SOL     OW84373   6.756   7.965   8.354
60845SOL    HW184374   6.716   8.004   8.276
60845SOL    HW284375   6.681   7.943   8.410
60846SOL     OW84376  14.597   7.463  13.440
60846SOL    HW184377  14.517   7.438  13.485
60846SOL    HW284378  14.618   7.550  13.475
60847SOL     OW84379  14.018   0.299   4.069
60847SOL    HW184380  13.931   0.264   4.088
60847SOL    HW284381  14.039   0.263   3.982
60848SOL     OW84382  12.216  14.442   6.039
60848SOL    HW184383  12.188  14.350   6.042
60848SOL    HW284384  12.147  14.489   6.086
60849SOL     OW84385   6.237  12.751   6.844
60849SOL    HW184386   6.251  12.724   6.934
60849SOL    HW284387   6.143  12.746   6.831
60850SOL     OW84388  14.774   5.139  14.228
60850SOL    HW184389  14.717   5.074  14.269
60850SOL    HW284390  14.755   5.132  14.134
60851SOL     OW84391  12.140   9.697   0.878
60851SOL    HW184392  12.080   9.639   0.833
60851SOL    HW284393  12.119   9.686   0.971
60852SOL     OW84394   3.635   7.583   6.668
60852SOL    HW184395   3.673   7.613   6.750
60852SOL    HW284396   3.708   7.580   6.607
60853SOL     OW84397   1.419   5.664   2.357
60853SOL    HW184398   1.507   5.700   2.352
60853SOL    HW284399   1.410   5.613   2.276
60854SOL     OW84400  11.156   4.060   2.434
60854SOL    HW184401  11.113   4.039   2.351
60854SOL    HW284402  11.196   4.146   2.418
60855SOL     OW84403  10.331   0.755  14.855
60855SOL    HW184404  10.294   0.723  14.772
60855SOL    HW284405  10.379   0.834  14.831
60856SOL     OW84406   6.798  10.642   2.493
60856SOL    HW184407   6.727  10.705   2.501
60856SOL    HW284408   6.764  10.574   2.436
60857SOL     OW84409   8.615  11.571   6.446
60857SOL    HW184410   8.640  11.651   6.492
60857SOL    HW284411   8.569  11.519   6.511
60858SOL     OW84412  13.213   8.903  10.500
60858SOL    HW184413  13.128   8.890  10.541
60858SOL    HW284414  13.196   8.895  10.406
60859SOL     OW84415  11.700   0.682   9.690
60859SOL    HW184416  11.626   0.742   9.706
60859SOL    HW284417  11.672   0.629   9.616
60860SOL     OW84418  14.258   2.289   2.645
60860SOL    HW184419  14.350   2.310   2.657
60860SOL    HW284420  14.247   2.205   2.690
60861SOL     OW84421   0.583  10.385   7.349
60861SOL    HW184422   0.558  10.478   7.356
60861SOL    HW284423   0.505  10.338   7.379
60862SOL     OW84424   8.563   9.015   8.016
60862SOL    HW184425   8.492   9.074   7.994
60862SOL    HW284426   8.574   8.960   7.939
60863SOL     OW84427   3.539   4.125   6.293
60863SOL    HW184428   3.561   4.053   6.234
60863SOL    HW284429   3.444   4.119   6.305
60864SOL     OW84430   5.463   9.803  14.652
60864SOL    HW184431   5.410   9.817  14.573
60864SOL    HW284432   5.511   9.885  14.664
60865SOL     OW84433   2.058  14.105  10.741
60865SOL    HW184434   2.043  14.199  10.733
60865SOL    HW284435   2.081  14.077  10.652
60866SOL     OW84436   7.665   4.178   2.520
60866SOL    HW184437   7.595   4.115   2.540
60866SOL    HW284438   7.744   4.137   2.554
60867SOL     OW84439   8.786   9.283   2.734
60867SOL    HW184440   8.864   9.268   2.680
60867SOL    HW284441   8.752   9.367   2.703
60868SOL     OW84442   9.876  11.773   4.431
60868SOL    HW184443   9.853  11.771   4.338
60868SOL    HW284444   9.903  11.864   4.447
60869SOL     OW84445   6.926   5.075  14.695
60869SOL    HW184446   6.900   5.059  14.786
60869SOL    HW284447   6.852   5.123  14.658
60870SOL     OW84448   6.352  14.816   8.399
60870SOL    HW184449   6.370   0.007   8.336
60870SOL    HW284450   6.293  14.856   8.462
60871SOL     OW84451   5.468   5.698   6.640
60871SOL    HW184452   5.474   5.794   6.643
60871SOL    HW284453   5.547   5.670   6.594
60872SOL     OW84454  14.798  11.360  10.647
60872SOL    HW184455  14.867  11.386  10.586
60872SOL    HW284456  14.768  11.276  10.614
60873SOL     OW84457   5.444  12.751   3.228
60873SOL    HW184458   5.496  12.671   3.232
60873SOL    HW284459   5.370  12.729   3.171
60874SOL     OW84460   8.759   2.330  13.519
60874SOL    HW184461   8.677   2.289  13.490
60874SOL    HW284462   8.734   2.421  13.539
60875SOL     OW84463   6.028   0.373  13.358
60875SOL    HW184464   6.075   0.418  13.429
60875SOL    HW284465   5.993   0.294  13.399
60876SOL     OW84466  11.491   4.494   5.733
60876SOL    HW184467  11.491   4.570   5.676
60876SOL    HW284468  11.406   4.494   5.775
60877SOL     OW84469   4.623   1.498  12.877
60877SOL    HW184470   4.599   1.452  12.796
60877SOL    HW284471   4.619   1.431  12.945
60878SOL     OW84472  11.134   1.886   9.948
60878SOL    HW184473  11.126   1.876   9.853
60878SOL    HW284474  11.116   1.799   9.983
60879SOL     OW84475   4.982   5.984  12.751
60879SOL    HW184476   5.005   6.070  12.713
60879SOL    HW284477   4.978   5.926  12.675
60880SOL     OW84478   0.350  10.299   0.161
60880SOL    HW184479   0.345  10.223   0.220
60880SOL    HW284480   0.431  10.343   0.187
60881SOL     OW84481   7.058   0.735   4.949
60881SOL    HW184482   6.981   0.736   4.892
60881SOL    HW284483   7.093   0.824   4.945
60882SOL     OW84484   2.487  12.776   5.969
60882SOL    HW184485   2.515  12.686   5.982
60882SOL    HW284486   2.409  12.769   5.913
60883SOL     OW84487   4.372   7.500  10.882
60883SOL    HW184488   4.315   7.545  10.820
60883SOL    HW284489   4.443   7.562  10.899
60884SOL     OW84490  12.476   4.526   3.389
60884SOL    HW184491  12.462   4.596   3.326
60884SOL    HW284492  12.498   4.571   3.471
60885SOL     OW84493  13.845   7.022   6.810
60885SOL    HW184494  13.875   7.015   6.719
60885SOL    HW284495  13.900   6.960   6.858
60886SOL     OW84496   1.987  12.692  12.105
60886SOL    HW184497   1.951  12.657  12.024
60886SOL    HW284498   2.027  12.616  12.148
60887SOL     OW84499   2.994  10.276  13.119
60887SOL    HW184500   3.034  10.202  13.074
60887SOL    HW284501   2.942  10.320  13.052
60888SOL     OW84502   8.778   3.916  12.528
60888SOL    HW184503   8.837   3.934  12.455
60888SOL    HW284504   8.831   3.866  12.590
60889SOL     OW84505  12.226  11.023   5.216
60889SOL    HW184506  12.177  10.961   5.270
60889SOL    HW284507  12.309  10.979   5.199
60890SOL     OW84508   2.065   6.693   7.300
60890SOL    HW184509   2.144   6.732   7.336
60890SOL    HW284510   2.076   6.599   7.312
60891SOL     OW84511   5.741   4.950   9.600
60891SOL    HW184512   5.772   4.904   9.678
60891SOL    HW284513   5.730   4.881   9.534
60892SOL     OW84514  10.321   8.813  13.835
60892SOL    HW184515  10.270   8.736  13.862
60892SOL    HW284516  10.260   8.864  13.782
60893SOL     OW84517   8.867   2.325   5.077
60893SOL    HW184518   8.910   2.318   4.991
60893SOL    HW284519   8.786   2.274   5.068
60894SOL     OW84520   6.740   3.049   1.161
60894SOL    HW184521   6.671   3.018   1.103
60894SOL    HW284522   6.739   3.144   1.152
60895SOL     OW84523  11.226   1.029   7.421
60895SOL    HW184524  11.254   0.940   7.443
60895SOL    HW284525  11.180   1.060   7.499
60896SOL     OW84526   7.500   7.621  13.262
60896SOL    HW184527   7.466   7.531  13.268
60896SOL    HW284528   7.452   7.669  13.330
60897SOL     OW84529   7.815   4.805  13.847
60897SOL    HW184530   7.758   4.729  13.838
60897SOL    HW284531   7.756   4.878  13.867
60898SOL     OW84532  11.946  10.794  14.417
60898SOL    HW184533  11.891  10.721  14.387
60898SOL    HW284534  11.970  10.840  14.337
60899SOL     OW84535   9.833   7.778   1.340
60899SOL    HW184536   9.837   7.869   1.371
60899SOL    HW284537   9.913   7.738   1.373
60900SOL     OW84538  13.818   7.572  13.515
60900SOL    HW184539  13.818   7.509  13.588
60900SOL    HW284540  13.736   7.621  13.527
60901SOL     OW84541  12.842   3.846  14.740
60901SOL    HW184542  12.872   3.889  14.820
60901SOL    HW284543  12.812   3.918  14.684
60902SOL     OW84544   8.447   0.507  13.213
60902SOL    HW184545   8.388   0.508  13.138
60902SOL    HW284546   8.397   0.465  13.283
60903SOL     OW84547   1.523  11.340   7.138
60903SOL    HW184548   1.604  11.350   7.189
60903SOL    HW284549   1.454  11.335   7.204
60904SOL     OW84550   7.698   9.538  12.294
60904SOL    HW184551   7.775   9.484  12.315
60904SOL    HW284552   7.630   9.474  12.274
60905SOL     OW84553   5.843  12.462   7.153
60905SOL    HW184554   5.931  12.428   7.172
60905SOL    HW284555   5.814  12.410   7.078
60906SOL     OW84556   3.038  13.651   7.667
60906SOL    HW184557   3.054  13.560   7.692
60906SOL    HW284558   3.022  13.648   7.572
60907SOL     OW84559  14.311  14.430  13.934
60907SOL    HW184560  14.358  14.356  13.972
60907SOL    HW284561  14.220  14.417  13.960
60908SOL     OW84562  10.725   3.905   4.634
60908SOL    HW184563  10.719   3.887   4.728
60908SOL    HW284564  10.710   3.999   4.626
60909SOL     OW84565   0.810  11.733   5.403
60909SOL    HW184566   0.854  11.690   5.476
60909SOL    HW284567   0.768  11.662   5.355
60910SOL     OW84568   7.942   5.187   6.449
60910SOL    HW184569   7.971   5.278   6.450
60910SOL    HW284570   7.900   5.175   6.535
60911SOL     OW84571   9.580  10.037  14.176
60911SOL    HW184572   9.543   9.952  14.149
60911SOL    HW284573   9.670  10.016  14.203
60912SOL     OW84574   1.398  14.849   3.155
60912SOL    HW184575   1.403  14.864   3.060
60912SOL    HW284576   1.382   0.056   3.192
60913SOL     OW84577   0.215   4.501   2.607
60913SOL    HW184578   0.224   4.580   2.660
60913SOL    HW284579   0.271   4.436   2.652
60914SOL     OW84580  12.952   8.818  14.822
60914SOL    HW184581  12.911   8.828  14.736
60914SOL    HW284582  13.033   8.869  14.817
60915SOL     OW84583   7.573   6.270  13.558
60915SOL    HW184584   7.530   6.239  13.638
60915SOL    HW284585   7.652   6.216  13.551
60916SOL     OW84586   4.914   9.098   9.783
60916SOL    HW184587   4.894   9.191   9.776
60916SOL    HW284588   4.870   9.059   9.708
60917SOL     OW84589  11.908  11.397   2.051
60917SOL    HW184590  11.965  11.457   2.098
60917SOL    HW284591  11.967  11.330   2.017
60918SOL     OW84592   3.298  12.378   7.851
60918SOL    HW184593   3.253  12.324   7.916
60918SOL    HW284594   3.308  12.320   7.775
60919SOL     OW84595   9.535  11.321   1.667
60919SOL    HW184596   9.568  11.339   1.579
60919SOL    HW284597   9.546  11.226   1.677
60920SOL     OW84598   0.120  14.427   6.351
60920SOL    HW184599   0.179  14.352   6.358
60920SOL    HW284600   0.033  14.391   6.365
60921SOL     OW84601   1.670  13.710   8.870
60921SOL    HW184602   1.671  13.617   8.892
60921SOL    HW284603   1.684  13.713   8.776
60922SOL     OW84604  12.093  11.610   9.126
60922SOL    HW184605  12.022  11.553   9.096
60922SOL    HW284606  12.059  11.650   9.206
60923SOL     OW84607   9.872  14.503  13.706
60923SOL    HW184608   9.839  14.425  13.751
60923SOL    HW284609   9.808  14.571  13.726
60924SOL     OW84610   6.352   9.107  13.089
60924SOL    HW184611   6.393   9.156  13.018
60924SOL    HW284612   6.345   9.017  13.056
60925SOL     OW84613   0.338   8.602   6.115
60925SOL    HW184614   0.431   8.588   6.099
60925SOL    HW284615   0.293   8.535   6.062
60926SOL     OW84616  13.033   3.987   2.212
60926SOL    HW184617  13.032   4.007   2.118
60926SOL    HW284618  13.055   3.894   2.216
60927SOL     OW84619  10.728  12.232   2.167
60927SOL    HW184620  10.778  12.226   2.249
60927SOL    HW284621  10.765  12.165   2.111
60928SOL     OW84622   7.235   1.021  13.147
60928SOL    HW184623   7.285   0.983  13.075
60928SOL    HW284624   7.300   1.040  13.215
60929SOL     OW84625  11.178   2.789   0.299
60929SOL    HW184626  11.150   2.804   0.209
60929SOL    HW284627  11.116   2.724   0.333
60930SOL     OW84628   4.040   5.665   1.648
60930SOL    HW184629   4.022   5.580   1.689
60930SOL    HW284630   3.971   5.675   1.583
60931SOL     OW84631   6.730   9.353   1.980
60931SOL    HW184632   6.663   9.314   1.924
60931SOL    HW284633   6.767   9.279   2.028
60932SOL     OW84634   7.529   2.875  13.037
60932SOL    HW184635   7.488   2.788  13.037
60932SOL    HW284636   7.457   2.935  13.018
60933SOL     OW84637   4.147   3.599  13.213
60933SOL    HW184638   4.159   3.505  13.199
60933SOL    HW284639   4.212   3.622  13.280
60934SOL     OW84640   5.152   3.361   8.224
60934SOL    HW184641   5.207   3.307   8.280
60934SOL    HW284642   5.163   3.450   8.258
60935SOL     OW84643  12.262   2.007  12.871
60935SOL    HW184644  12.294   2.096  12.889
60935SOL    HW284645  12.279   1.995  12.777
60936SOL     OW84646  14.392   9.376   4.453
60936SOL    HW184647  14.387   9.467   4.422
60936SOL    HW284648  14.326   9.330   4.401
60937SOL     OW84649   5.394  11.275   4.409
60937SOL    HW184650   5.479  11.247   4.441
60937SOL    HW284651   5.411  11.357   4.363
60938SOL     OW84652  13.452  14.733   4.172
60938SOL    HW184653  13.396  14.664   4.210
60938SOL    HW284654  13.516  14.685   4.120
60939SOL     OW84655  13.070   7.231  14.769
60939SOL    HW184656  13.134   7.299  14.747
60939SOL    HW284657  13.050   7.245  14.861
60940SOL     OW84658  13.063   9.602   8.265
60940SOL    HW184659  13.075   9.651   8.346
60940SOL    HW284660  12.972   9.574   8.267
60941SOL     OW84661  14.836   4.386  10.944
60941SOL    HW184662  14.808   4.387  11.036
60941SOL    HW284663  14.756   4.407  10.895
60942SOL     OW84664   7.855   2.484   3.120
60942SOL    HW184665   7.807   2.550   3.169
60942SOL    HW284666   7.843   2.509   3.028
60943SOL     OW84667  10.230   4.644   5.462
60943SOL    HW184668  10.212   4.688   5.544
60943SOL    HW284669  10.194   4.702   5.395
60944SOL     OW84670   0.673   1.678   6.441
60944SOL    HW184671   0.698   1.623   6.514
60944SOL    HW284672   0.660   1.618   6.368
60945SOL     OW84673   8.406   8.315   5.382
60945SOL    HW184674   8.339   8.384   5.385
60945SOL    HW284675   8.425   8.304   5.289
60946SOL     OW84676   8.483  11.888   1.578
60946SOL    HW184677   8.406  11.882   1.522
60946SOL    HW284678   8.516  11.977   1.566
60947SOL     OW84679   3.951   2.684   7.971
60947SOL    HW184680   3.974   2.729   8.052
60947SOL    HW284681   3.900   2.608   7.998
60948SOL     OW84682  11.177  14.876   7.810
60948SOL    HW184683  11.168   0.088   7.836
60948SOL    HW284684  11.094  14.836   7.833
60949SOL     OW84685   6.073   0.313   7.002
60949SOL    HW184686   6.066   0.408   6.991
60949SOL    HW284687   5.991   0.279   6.967
60950SOL     OW84688   2.278  14.120   0.160
60950SOL    HW184689   2.200  14.139   0.211
60950SOL    HW284690   2.273  14.027   0.141
60951SOL     OW84691   3.683   9.512   4.461
60951SOL    HW184692   3.646   9.510   4.549
60951SOL    HW284693   3.608   9.496   4.403
60952SOL     OW84694  12.628   7.715  12.567
60952SOL    HW184695  12.666   7.678  12.487
60952SOL    HW284696  12.553   7.766  12.536
60953SOL     OW84697   1.614   5.031   4.181
60953SOL    HW184698   1.545   4.972   4.150
60953SOL    HW284699   1.644   4.991   4.263
60954SOL     OW84700   7.320   2.722   5.440
60954SOL    HW184701   7.352   2.794   5.494
60954SOL    HW284702   7.224   2.732   5.442
60955SOL     OW84703   7.063   8.783   7.224
60955SOL    HW184704   7.041   8.876   7.223
60955SOL    HW284705   7.158   8.780   7.209
60956SOL     OW84706  12.667   8.447   6.000
60956SOL    HW184707  12.720   8.527   5.995
60956SOL    HW284708  12.675   8.418   6.091
60957SOL     OW84709   3.204   4.958   5.814
60957SOL    HW184710   3.235   4.970   5.724
60957SOL    HW284711   3.224   5.042   5.856
60958SOL     OW84712   5.672   4.440   9.857
60958SOL    HW184713   5.686   4.373   9.924
60958SOL    HW284714   5.616   4.505   9.899
60959SOL     OW84715   2.859   1.944  13.881
60959SOL    HW184716   2.932   1.892  13.848
60959SOL    HW284717   2.851   2.016  13.818
60960SOL     OW84718   8.751  13.656  11.321
60960SOL    HW184719   8.717  13.741  11.351
60960SOL    HW284720   8.754  13.664  11.226
60961SOL     OW84721   1.580  12.532   7.115
60961SOL    HW184722   1.655  12.487   7.156
60961SOL    HW284723   1.509  12.521   7.178
60962SOL     OW84724   2.959  11.726  13.531
60962SOL    HW184725   2.868  11.757  13.535
60962SOL    HW284726   3.012  11.806  13.532
60963SOL     OW84727   1.646   6.033   8.061
60963SOL    HW184728   1.732   6.069   8.039
60963SOL    HW284729   1.657   5.996   8.149
60964SOL     OW84730   2.988  13.944   9.852
60964SOL    HW184731   2.928  13.894   9.908
60964SOL    HW284732   2.958  13.926   9.763
60965SOL     OW84733  10.043   9.699   0.796
60965SOL    HW184734   9.977   9.630   0.792
60965SOL    HW284735  10.033   9.736   0.884
60966SOL     OW84736  14.060   6.513   8.613
60966SOL    HW184737  14.144   6.558   8.606
60966SOL    HW284738  13.996   6.583   8.626
60967SOL     OW84739   0.618   0.907   9.836
60967SOL    HW184740   0.647   0.899   9.745
60967SOL    HW284741   0.694   0.880   9.888
60968SOL     OW84742   3.181   9.454  13.245
60968SOL    HW184743   3.123   9.449  13.321
60968SOL    HW284744   3.233   9.533  13.260
60969SOL     OW84745   8.210   5.028  10.201
60969SOL    HW184746   8.135   4.978  10.168
60969SOL    HW284747   8.252   4.970  10.264
60970SOL     OW84748   6.099   2.987   8.544
60970SOL    HW184749   6.012   2.987   8.505
60970SOL    HW284750   6.146   3.059   8.501
60971SOL     OW84751  11.468   1.116  14.460
60971SOL    HW184752  11.474   1.042  14.399
60971SOL    HW284753  11.473   1.077  14.547
60972SOL     OW84754   6.268   6.067   8.703
60972SOL    HW184755   6.309   6.025   8.628
60972SOL    HW284756   6.200   6.123   8.664
60973SOL     OW84757   4.830  14.516   2.643
60973SOL    HW184758   4.823  14.475   2.729
60973SOL    HW284759   4.802  14.606   2.656
60974SOL     OW84760   9.921  12.850  10.518
60974SOL    HW184761   9.971  12.787  10.465
60974SOL    HW284762   9.835  12.855  10.475
60975SOL     OW84763  12.955  11.417  11.448
60975SOL    HW184764  13.042  11.432  11.486
60975SOL    HW284765  12.923  11.338  11.491
60976SOL     OW84766   7.815   8.608  14.332
60976SOL    HW184767   7.873   8.655  14.271
60976SOL    HW284768   7.863   8.607  14.415
60977SOL     OW84769   1.501   4.024  13.099
60977SOL    HW184770   1.482   4.058  13.186
60977SOL    HW284771   1.443   3.948  13.090
60978SOL     OW84772  11.911  11.954  13.848
60978SOL    HW184773  11.895  12.012  13.923
60978SOL    HW284774  11.842  11.974  13.786
60979SOL     OW84775  14.383   7.941  10.842
60979SOL    HW184776  14.448   7.907  10.904
60979SOL    HW284777  14.433   7.957  10.762
60980SOL     OW84778   8.404  12.848   5.332
60980SOL    HW184779   8.490  12.883   5.354
60980SOL    HW284780   8.346  12.885   5.398
60981SOL     OW84781   1.299  10.807   8.875
60981SOL    HW184782   1.210  10.836   8.898
60981SOL    HW284783   1.343  10.796   8.959
60982SOL     OW84784  12.340  13.448  11.703
60982SOL    HW184785  12.255  13.417  11.671
60982SOL    HW284786  12.356  13.396  11.781
60983SOL     OW84787   8.757   5.527   0.158
60983SOL    HW184788   8.725   5.616   0.174
60983SOL    HW284789   8.679   5.477   0.137
60984SOL     OW84790   4.403   0.430   9.148
60984SOL    HW184791   4.409   0.508   9.204
60984SOL    HW284792   4.345   0.371   9.195
60985SOL     OW84793   2.079   5.652   5.510
60985SOL    HW184794   2.008   5.681   5.568
60985SOL    HW284795   2.144   5.722   5.515
60986SOL     OW84796   6.040  13.789  12.253
60986SOL    HW184797   6.061  13.725  12.321
60986SOL    HW284798   6.121  13.838  12.240
60987SOL     OW84799   5.352  11.355   4.729
60987SOL    HW184800   5.373  11.446   4.707
60987SOL    HW284801   5.359  11.352   4.824
60988SOL     OW84802  12.462  12.179  12.538
60988SOL    HW184803  12.369  12.199  12.541
60988SOL    HW284804  12.503  12.260  12.506
60989SOL     OW84805  11.722   9.502   9.381
60989SOL    HW184806  11.658   9.465   9.442
60989SOL    HW284807  11.680   9.497   9.295
60990SOL     OW84808  10.708   1.925  10.261
60990SOL    HW184809  10.613   1.909  10.257
60990SOL    HW284810  10.719   2.014  10.226
60991SOL     OW84811   0.814  13.615  11.736
60991SOL    HW184812   0.729  13.659  11.732
60991SOL    HW284813   0.828  13.584  11.646
60992SOL     OW84814   3.637  12.117  12.477
60992SOL    HW184815   3.552  12.112  12.433
60992SOL    HW284816   3.680  12.034  12.458
60993SOL     OW84817   1.695   7.548   4.303
60993SOL    HW184818   1.758   7.600   4.353
60993SOL    HW284819   1.667   7.607   4.233
60994SOL     OW84820   5.905   4.206  14.687
60994SOL    HW184821   5.926   4.113  14.689
60994SOL    HW284822   5.839   4.214  14.618
60995SOL     OW84823  13.348   6.269  10.943
60995SOL    HW184824  13.382   6.347  10.898
60995SOL    HW284825  13.357   6.291  11.036
60996SOL     OW84826   6.037  13.639   8.802
60996SOL    HW184827   5.991  13.695   8.740
60996SOL    HW284828   6.126  13.675   8.805
60997SOL     OW84829  14.747   9.536   1.580
60997SOL    HW184830  14.672   9.529   1.521
60997SOL    HW284831  14.709   9.533   1.668
60998SOL     OW84832  10.304   9.681  13.374
60998SOL    HW184833  10.260   9.630  13.307
60998SOL    HW284834  10.397   9.669  13.357
60999SOL     OW84835  10.027   0.446  11.627
60999SOL    HW184836   9.993   0.500  11.699
60999SOL    HW284837   9.966   0.373  11.622
61000SOL     OW84838  14.714   6.432   9.890
61000SOL    HW184839  14.619   6.422   9.883
61000SOL    HW284840  14.748   6.396   9.808
61001SOL     OW84841  13.515   8.886  11.360
61001SOL    HW184842  13.486   8.879  11.451
61001SOL    HW284843  13.434   8.895  11.310
61002SOL     OW84844   8.913   4.654   7.525
61002SOL    HW184845   8.957   4.637   7.441
61002SOL    HW284846   8.821   4.666   7.502
61003SOL     OW84847  13.577   7.864   0.465
61003SOL    HW184848  13.645   7.887   0.401
61003SOL    HW284849  13.540   7.782   0.433
61004SOL     OW84850   7.134  10.927  14.309
61004SOL    HW184851   7.092  10.857  14.359
61004SOL    HW284852   7.212  10.949  14.361
61005SOL     OW84853   3.491   0.068   7.462
61005SOL    HW184854   3.577   0.081   7.502
61005SOL    HW284855   3.431   0.118   7.517
61006SOL     OW84856   0.595   6.859   4.575
61006SOL    HW184857   0.648   6.938   4.568
61006SOL    HW284858   0.561   6.845   4.486
61007SOL     OW84859  12.193  14.401  10.407
61007SOL    HW184860  12.166  14.453  10.331
61007SOL    HW284861  12.286  14.386  10.394
61008SOL     OW84862  10.031  12.256   2.795
61008SOL    HW184863   9.957  12.293   2.843
61008SOL    HW284864  10.087  12.330   2.774
61009SOL     OW84865   2.014  11.704   5.192
61009SOL    HW184866   2.046  11.780   5.143
61009SOL    HW284867   1.951  11.662   5.132
61010SOL     OW84868  11.748  12.913  10.657
61010SOL    HW184869  11.798  12.930  10.577
61010SOL    HW284870  11.791  12.837  10.697
61011SOL     OW84871   6.090   4.033   6.083
61011SOL    HW184872   6.079   4.117   6.126
61011SOL    HW284873   6.128   3.976   6.149
61012SOL     OW84874   8.511  14.647  10.152
61012SOL    HW184875   8.517  14.625  10.245
61012SOL    HW284876   8.462  14.575  10.113
61013SOL     OW84877   9.659  12.136   8.388
61013SOL    HW184878   9.631  12.095   8.306
61013SOL    HW284879   9.577  12.159   8.432
61014SOL     OW84880  10.756  11.829  10.005
61014SOL    HW184881  10.759  11.771  10.082
61014SOL    HW284882  10.799  11.779   9.936
61015SOL     OW84883   1.534   8.925   6.299
61015SOL    HW184884   1.463   8.863   6.280
61015SOL    HW284885   1.601   8.904   6.234
61016SOL     OW84886  13.800   6.403  13.495
61016SOL    HW184887  13.795   6.357  13.579
61016SOL    HW284888  13.858   6.348  13.442
61017SOL     OW84889   0.344   6.602  11.338
61017SOL    HW184890   0.421   6.656  11.356
61017SOL    HW284891   0.270   6.663  11.341
61018SOL     OW84892  12.730   8.742   4.142
61018SOL    HW184893  12.671   8.800   4.094
61018SOL    HW284894  12.722   8.657   4.098
61019SOL     OW84895  13.252  12.921   3.891
61019SOL    HW184896  13.181  12.962   3.941
61019SOL    HW284897  13.321  12.904   3.955
61020SOL     OW84898   1.941   3.557  14.670
61020SOL    HW184899   2.014   3.543  14.730
61020SOL    HW284900   1.939   3.479  14.616
61021SOL     OW84901   9.119   2.515  12.255
61021SOL    HW184902   9.155   2.590  12.303
61021SOL    HW284903   9.180   2.444  12.273
61022SOL     OW84904  11.848   1.779  10.303
61022SOL    HW184905  11.812   1.697  10.336
61022SOL    HW284906  11.838   1.773  10.208
61023SOL     OW84907  12.896   9.195   7.922
61023SOL    HW184908  12.933   9.106   7.919
61023SOL    HW284909  12.954   9.242   7.982
61024SOL     OW84910   4.955  12.331   5.194
61024SOL    HW184911   4.993  12.409   5.234
61024SOL    HW284912   4.998  12.324   5.109
61025SOL     OW84913  10.824   1.156  10.810
61025SOL    HW184914  10.912   1.119  10.804
61025SOL    HW284915  10.776   1.096  10.867
61026SOL     OW84916   4.814   6.171   5.091
61026SOL    HW184917   4.770   6.151   5.173
61026SOL    HW284918   4.790   6.262   5.072
61027SOL     OW84919   2.696  14.164   5.638
61027SOL    HW184920   2.780  14.206   5.657
61027SOL    HW284921   2.632  14.220   5.682
61028SOL     OW84922   0.783   6.362   7.247
61028SOL    HW184923   0.733   6.281   7.234
61028SOL    HW284924   0.734   6.411   7.312
61029SOL     OW84925   9.585  13.072  11.504
61029SOL    HW184926   9.537  13.099  11.426
61029SOL    HW284927   9.558  13.134  11.572
61030SOL     OW84928  10.807   3.128   3.251
61030SOL    HW184929  10.763   3.207   3.218
61030SOL    HW284930  10.809   3.140   3.346
61031SOL     OW84931  13.212   8.150   4.766
61031SOL    HW184932  13.221   8.059   4.793
61031SOL    HW284933  13.153   8.188   4.831
61032SOL     OW84934   5.472   0.707   7.255
61032SOL    HW184935   5.487   0.742   7.167
61032SOL    HW284936   5.388   0.744   7.282
61033SOL     OW84937  12.673   4.759   6.338
61033SOL    HW184938  12.592   4.728   6.297
61033SOL    HW284939  12.703   4.830   6.281
61034SOL     OW84940   9.850   0.807   5.507
61034SOL    HW184941   9.938   0.818   5.544
61034SOL    HW284942   9.803   0.756   5.573
61035SOL     OW84943  12.550   5.850   6.844
61035SOL    HW184944  12.551   5.754   6.852
61035SOL    HW284945  12.519   5.881   6.929
61036SOL     OW84946   0.708  11.196   1.008
61036SOL    HW184947   0.629  11.179   1.060
61036SOL    HW284948   0.684  11.270   0.952
61037SOL     OW84949   7.473   7.872   3.711
61037SOL    HW184950   7.417   7.885   3.788
61037SOL    HW284951   7.504   7.960   3.688
61038SOL     OW84952  13.288   2.220  14.103
61038SOL    HW184953  13.212   2.270  14.074
61038SOL    HW284954  13.307   2.254  14.190
61039SOL     OW84955   3.500   3.687  13.807
61039SOL    HW184956   3.583   3.719  13.771
61039SOL    HW284957   3.438   3.759  13.794
61040SOL     OW84958   4.619  12.200   5.992
61040SOL    HW184959   4.667  12.213   6.074
61040SOL    HW284960   4.590  12.108   5.996
61041SOL     OW84961   8.020   7.977   3.217
61041SOL    HW184962   8.014   7.966   3.311
61041SOL    HW284963   8.047   8.068   3.205
61042SOL     OW84964   8.500   2.430   8.022
61042SOL    HW184965   8.441   2.460   8.091
61042SOL    HW284966   8.587   2.440   8.060
61043SOL     OW84967  10.002  12.993   6.826
61043SOL    HW184968  10.080  12.964   6.778
61043SOL    HW284969  10.023  12.977   6.918
61044SOL     OW84970  10.700  14.553   4.867
61044SOL    HW184971  10.633  14.508   4.814
61044SOL    HW284972  10.771  14.490   4.875
61045SOL     OW84973   5.957  10.386  13.308
61045SOL    HW184974   6.011  10.310  13.329
61045SOL    HW284975   5.869  10.349  13.293
61046SOL     OW84976   9.820  13.967  13.813
61046SOL    HW184977   9.865  13.972  13.898
61046SOL    HW284978   9.884  13.926  13.754
61047SOL     OW84979  12.401   0.495   0.377
61047SOL    HW184980  12.352   0.417   0.405
61047SOL    HW284981  12.401   0.552   0.453
61048SOL     OW84982   9.208   8.115  11.353
61048SOL    HW184983   9.235   8.158  11.435
61048SOL    HW284984   9.246   8.170  11.284
61049SOL     OW84985   5.199   3.673  13.987
61049SOL    HW184986   5.174   3.757  13.949
61049SOL    HW284987   5.282   3.651  13.945
61050SOL     OW84988  10.482   4.190   8.495
61050SOL    HW184989  10.548   4.123   8.513
61050SOL    HW284990  10.427   4.190   8.573
61051SOL     OW84991  13.624   7.800   7.818
61051SOL    HW184992  13.557   7.739   7.785
61051SOL    HW284993  13.581   7.885   7.817
61052SOL     OW84994  13.235   4.413   9.649
61052SOL    HW184995  13.213   4.321   9.666
61052SOL    HW284996  13.205   4.428   9.560
61053SOL     OW84997  13.962   9.594   0.707
61053SOL    HW184998  13.871   9.594   0.675
61053SOL    HW284999  13.969   9.674   0.758
61054SOL     OW85000   7.131   4.158  14.500
61054SOL    HW185001   7.040   4.128  14.494
61054SOL    HW285002   7.163   4.119  14.582
61055SOL     OW85003   0.404   0.958  14.219
61055SOL    HW185004   0.478   1.018  14.209
61055SOL    HW285005   0.428   0.882  14.167
61056SOL     OW85006   4.135   7.945   9.144
61056SOL    HW185007   4.118   7.852   9.129
61056SOL    HW285008   4.146   7.982   9.057
61057SOL     OW85009   7.897   5.464  10.908
61057SOL    HW185010   7.979   5.450  10.954
61057SOL    HW285011   7.922   5.506  10.826
61058SOL     OW85012   9.466  14.459   7.625
61058SOL    HW185013   9.482  14.428   7.714
61058SOL    HW285014   9.539  14.425   7.574
61059SOL     OW85015   6.899  13.645  13.084
61059SOL    HW185016   6.937  13.569  13.040
61059SOL    HW285017   6.809  13.617  13.105
61060SOL     OW85018   5.359  12.132   4.353
61060SOL    HW185019   5.331  12.073   4.422
61060SOL    HW285020   5.293  12.200   4.350
61061SOL     OW85021   2.864   7.047   1.537
61061SOL    HW185022   2.807   7.000   1.597
61061SOL    HW285023   2.846   7.139   1.553
61062SOL     OW85024   8.773   2.329   5.688
61062SOL    HW185025   8.771   2.343   5.783
61062SOL    HW285026   8.751   2.414   5.651
61063SOL     OW85027  11.395   1.330   6.022
61063SOL    HW185028  11.451   1.263   5.983
61063SOL    HW285029  11.438   1.413   5.999
61064SOL     OW85030   1.988   8.297   3.401
61064SOL    HW185031   1.970   8.386   3.432
61064SOL    HW285032   1.908   8.271   3.355
61065SOL     OW85033  13.338   4.528   8.480
61065SOL    HW185034  13.433   4.532   8.492
61065SOL    HW285035  13.326   4.469   8.405
61066SOL     OW85036   7.667  12.025   8.546
61066SOL    HW185037   7.762  12.027   8.539
61066SOL    HW285038   7.648  12.075   8.625
61067SOL     OW85039   2.408  14.387   3.391
61067SOL    HW185040   2.344  14.383   3.321
61067SOL    HW285041   2.463  14.462   3.368
61068SOL     OW85042   0.378   6.287   5.996
61068SOL    HW185043   0.458   6.235   5.986
61068SOL    HW285044   0.362   6.324   5.910
61069SOL     OW85045  12.601   4.128  10.658
61069SOL    HW185046  12.687   4.142  10.618
61069SOL    HW285047  12.547   4.198  10.623
61070SOL     OW85048   0.561   6.699  11.019
61070SOL    HW185049   0.592   6.787  10.999
61070SOL    HW285050   0.484   6.686  10.963
61071SOL     OW85051   5.403  13.870  13.845
61071SOL    HW185052   5.403  13.815  13.923
61071SOL    HW285053   5.368  13.954  13.874
61072SOL     OW85054   0.327  14.700  10.573
61072SOL    HW185055   0.408  14.713  10.621
61072SOL    HW285056   0.328  14.607  10.549
61073SOL     OW85057   5.366  14.221   5.330
61073SOL    HW185058   5.338  14.158   5.397
61073SOL    HW285059   5.453  14.191   5.304
61074SOL     OW85060   3.552   0.236   4.721
61074SOL    HW185061   3.456   0.232   4.717
61074SOL    HW285062   3.570   0.276   4.806
61075SOL     OW85063  12.865  14.766  10.220
61075SOL    HW185064  12.803  14.767  10.147
61075SOL    HW285065  12.942  14.722  10.186
61076SOL     OW85066  14.086   6.120   8.126
61076SOL    HW185067  14.115   6.210   8.142
61076SOL    HW285068  14.158   6.066   8.159
61077SOL     OW85069   5.378   6.823  14.194
61077SOL    HW185070   5.360   6.735  14.227
61077SOL    HW285071   5.293   6.855  14.163
61078SOL     OW85072   0.086  10.094   1.741
61078SOL    HW185073   0.104  10.174   1.692
61078SOL    HW285074   0.003  10.112   1.786
61079SOL     OW85075   7.714   5.125   4.726
61079SOL    HW185076   7.680   5.037   4.707
61079SOL    HW285077   7.640   5.183   4.709
61080SOL     OW85078  14.286   8.710   1.200
61080SOL    HW185079  14.314   8.722   1.290
61080SOL    HW285080  14.200   8.667   1.207
61081SOL     OW85081  12.584  12.621  12.958
61081SOL    HW185082  12.552  12.600  12.871
61081SOL    HW285083  12.612  12.536  12.994
61082SOL     OW85084   1.260  12.852   5.608
61082SOL    HW185085   1.287  12.813   5.525
61082SOL    HW285086   1.298  12.940   5.607
61083SOL     OW85087   1.362   4.877   6.952
61083SOL    HW185088   1.361   4.894   7.046
61083SOL    HW285089   1.273   4.849   6.932
61084SOL     OW85090   0.407  12.231   0.638
61084SOL    HW185091   0.394  12.247   0.731
61084SOL    HW285092   0.448  12.311   0.605
61085SOL     OW85093   1.881   4.076   3.397
61085SOL    HW185094   1.969   4.063   3.434
61085SOL    HW285095   1.838   4.136   3.458
61086SOL     OW85096   1.041  13.259   9.191
61086SOL    HW185097   1.078  13.313   9.261
61086SOL    HW285098   1.113  13.202   9.165
61087SOL     OW85099   6.051   9.286  10.524
61087SOL    HW185100   6.047   9.245  10.438
61087SOL    HW285101   5.980   9.350  10.523
61088SOL     OW85102   0.929   3.902  14.706
61088SOL    HW185103   0.965   3.876  14.621
61088SOL    HW285104   0.844   3.942  14.685
61089SOL     OW85105  11.785   6.297  13.734
61089SOL    HW185106  11.716   6.284  13.669
61089SOL    HW285107  11.767   6.233  13.802
61090SOL     OW85108   5.727  14.003   8.687
61090SOL    HW185109   5.633  14.019   8.690
61090SOL    HW285110   5.765  14.075   8.737
61091SOL     OW85111   4.736  11.231   2.276
61091SOL    HW185112   4.681  11.195   2.346
61091SOL    HW285113   4.676  11.247   2.203
61092SOL     OW85114  14.477   7.906   6.731
61092SOL    HW185115  14.528   7.983   6.757
61092SOL    HW285116  14.521   7.833   6.773
61093SOL     OW85117   0.021   9.072   7.601
61093SOL    HW185118  14.853   9.105   7.525
61093SOL    HW285119   0.111   9.102   7.588
61094SOL     OW85120  10.242   8.797   9.644
61094SOL    HW185121  10.152   8.775   9.620
61094SOL    HW285122  10.287   8.810   9.561
61095SOL     OW85123   7.607   2.856   6.889
61095SOL    HW185124   7.594   2.769   6.928
61095SOL    HW285125   7.694   2.882   6.917
61096SOL     OW85126   9.258   6.238   8.985
61096SOL    HW185127   9.234   6.148   8.966
61096SOL    HW285128   9.242   6.285   8.903
61097SOL     OW85129   8.568   0.163   6.575
61097SOL    HW185130   8.639   0.163   6.640
61097SOL    HW285131   8.534   0.252   6.577
61098SOL     OW85132   8.618   7.539  10.006
61098SOL    HW185133   8.628   7.533  10.101
61098SOL    HW285134   8.627   7.449   9.975
61099SOL     OW85135   7.556   2.171  12.299
61099SOL    HW185136   7.538   2.157  12.206
61099SOL    HW285137   7.647   2.143  12.309
61100SOL     OW85138   7.079   5.051   2.647
61100SOL    HW185139   7.153   5.100   2.684
61100SOL    HW285140   7.090   5.059   2.552
61101SOL     OW85141   7.653   5.866   8.425
61101SOL    HW185142   7.612   5.952   8.434
61101SOL    HW285143   7.581   5.804   8.430
61102SOL     OW85144   8.386  14.357  13.023
61102SOL    HW185145   8.397  14.368  12.929
61102SOL    HW285146   8.378  14.262  13.035
61103SOL     OW85147   3.592  11.649   6.259
61103SOL    HW185148   3.621  11.590   6.190
61103SOL    HW285149   3.673  11.687   6.293
61104SOL     OW85150   2.193  11.634   8.949
61104SOL    HW185151   2.119  11.614   8.892
61104SOL    HW285152   2.205  11.728   8.942
61105SOL     OW85153   5.493   6.863   6.713
61105SOL    HW185154   5.411   6.865   6.763
61105SOL    HW285155   5.531   6.778   6.732
61106SOL     OW85156   9.601   8.797  12.880
61106SOL    HW185157   9.607   8.893  12.875
61106SOL    HW285158   9.673   8.772  12.937
61107SOL     OW85159   3.489   1.647   5.527
61107SOL    HW185160   3.468   1.609   5.612
61107SOL    HW285161   3.480   1.742   5.540
61108SOL     OW85162   6.344  12.905   6.383
61108SOL    HW185163   6.352  12.844   6.309
61108SOL    HW285164   6.251  12.924   6.388
61109SOL     OW85165   6.638   7.617   1.103
61109SOL    HW185166   6.631   7.706   1.137
61109SOL    HW285167   6.583   7.616   1.025
61110SOL     OW85168   0.099   7.252  12.210
61110SOL    HW185169   0.153   7.226  12.136
61110SOL    HW285170   0.160   7.262  12.283
61111SOL     OW85171   2.714   7.970   6.385
61111SOL    HW185172   2.623   7.994   6.365
61111SOL    HW285173   2.767   8.027   6.330
61112SOL     OW85174   2.961   4.860   0.096
61112SOL    HW185175   2.928   4.776   0.063
61112SOL    HW285176   2.923   4.926   0.038
61113SOL     OW85177   7.101   2.496  14.171
61113SOL    HW185178   7.144   2.580  14.185
61113SOL    HW285179   7.058   2.504  14.086
61114SOL     OW85180   5.370   6.196  11.040
61114SOL    HW185181   5.298   6.221  10.981
61114SOL    HW285182   5.363   6.258  11.113
61115SOL     OW85183   5.380   5.114   4.037
61115SOL    HW185184   5.397   5.161   3.956
61115SOL    HW285185   5.398   5.178   4.106
61116SOL     OW85186   6.962   5.753  14.657
61116SOL    HW185187   6.888   5.805  14.626
61116SOL    HW285188   6.922   5.679  14.703
61117SOL     OW85189   5.168   8.025   2.376
61117SOL    HW185190   5.096   7.974   2.341
61117SOL    HW285191   5.128   8.107   2.406
61118SOL     OW85192   7.456  14.714   5.055
61118SOL    HW185193   7.503  14.694   5.136
61118SOL    HW285194   7.413  14.632   5.031
61119SOL     OW85195  13.925  14.165   9.070
61119SOL    HW185196  13.857  14.188   9.134
61119SOL    HW285197  13.878  14.117   9.002
61120SOL     OW85198   7.105   4.412  10.633
61120SOL    HW185199   7.020   4.368  10.629
61120SOL    HW285200   7.089   4.490  10.686
61121SOL     OW85201  10.079   3.712  10.700
61121SOL    HW185202  10.015   3.764  10.651
61121SOL    HW285203  10.158   3.767  10.702
61122SOL     OW85204   2.202   1.949  11.895
61122SOL    HW185205   2.210   1.912  11.807
61122SOL    HW285206   2.195   2.043  11.881
61123SOL     OW85207  12.388   7.820  10.354
61123SOL    HW185208  12.395   7.914  10.338
61123SOL    HW285209  12.440   7.806  10.433
61124SOL     OW85210   0.409  13.427   2.628
61124SOL    HW185211   0.403  13.344   2.675
61124SOL    HW285212   0.408  13.494   2.696
61125SOL     OW85213   7.848   6.222   6.315
61125SOL    HW185214   7.825   6.198   6.225
61125SOL    HW285215   7.829   6.316   6.320
61126SOL     OW85216   5.230  11.140   0.643
61126SOL    HW185217   5.135  11.126   0.632
61126SOL    HW285218   5.236  11.218   0.698
61127SOL     OW85219  14.804   1.441   7.268
61127SOL    HW185220  14.851   1.439   7.351
61127SOL    HW285221  14.739   1.511   7.278
61128SOL     OW85222  10.649   3.465  13.778
61128SOL    HW185223  10.658   3.537  13.840
61128SOL    HW285224  10.647   3.386  13.832
61129SOL     OW85225  14.170   3.833   6.790
61129SOL    HW185226  14.132   3.747   6.806
61129SOL    HW285227  14.264   3.817   6.782
61130SOL     OW85228   8.096   4.370   1.740
61130SOL    HW185229   8.091   4.281   1.704
61130SOL    HW285230   8.097   4.426   1.663
61131SOL     OW85231   3.521   9.745   7.615
61131SOL    HW185232   3.564   9.820   7.574
61131SOL    HW285233   3.469   9.707   7.544
61132SOL     OW85234  10.175   1.364   2.402
61132SOL    HW185235  10.214   1.437   2.451
61132SOL    HW285236  10.223   1.287   2.431
61133SOL     OW85237   5.579   6.108  12.288
61133SOL    HW185238   5.601   6.105  12.195
61133SOL    HW285239   5.617   6.190  12.319
61134SOL     OW85240   5.808  12.603   8.127
61134SOL    HW185241   5.832  12.525   8.077
61134SOL    HW285242   5.891  12.633   8.165
61135SOL     OW85243   0.459   4.122  11.548
61135SOL    HW185244   0.392   4.061  11.579
61135SOL    HW285245   0.466   4.186  11.618
61136SOL     OW85246  12.357   1.733   4.968
61136SOL    HW185247  12.305   1.718   5.047
61136SOL    HW285248  12.303   1.698   4.897
61137SOL     OW85249  11.530  12.102   1.033
61137SOL    HW185250  11.618  12.109   1.072
61137SOL    HW285251  11.523  12.178   0.975
61138SOL     OW85252  10.384  10.752   5.726
61138SOL    HW185253  10.309  10.731   5.671
61138SOL    HW285254  10.439  10.808   5.671
61139SOL     OW85255   0.418   3.974   1.736
61139SOL    HW185256   0.492   3.929   1.776
61139SOL    HW285257   0.457   4.050   1.692
61140SOL     OW85258   7.897   5.037  11.800
61140SOL    HW185259   7.824   5.075  11.849
61140SOL    HW285260   7.886   4.943  11.809
61141SOL     OW85261   2.673   1.648   6.431
61141SOL    HW185262   2.640   1.738   6.422
61141SOL    HW285263   2.594   1.593   6.432
61142SOL     OW85264  10.896   3.086   6.116
61142SOL    HW185265  10.846   3.159   6.150
61142SOL    HW285266  10.965   3.126   6.063
61143SOL     OW85267   4.675   2.744   5.380
61143SOL    HW185268   4.610   2.714   5.443
61143SOL    HW285269   4.748   2.683   5.389
61144SOL     OW85270  12.063  14.491  12.188
61144SOL    HW185271  12.125  14.559  12.161
61144SOL    HW285272  11.995  14.538  12.236
61145SOL     OW85273   6.450   7.251   0.463
61145SOL    HW185274   6.478   7.203   0.385
61145SOL    HW285275   6.494   7.336   0.456
61146SOL     OW85276   8.503  12.244   2.298
61146SOL    HW185277   8.594  12.273   2.301
61146SOL    HW285278   8.485  12.211   2.386
61147SOL     OW85279  10.752  11.583   5.108
61147SOL    HW185280  10.735  11.624   5.023
61147SOL    HW285281  10.837  11.618   5.135
61148SOL     OW85282   5.175  10.115   0.744
61148SOL    HW185283   5.084  10.094   0.765
61148SOL    HW285284   5.225  10.039   0.773
61149SOL     OW85285   2.525   7.722   4.231
61149SOL    HW185286   2.493   7.640   4.194
61149SOL    HW285287   2.608   7.700   4.272
61150SOL     OW85288   6.025   5.596  12.405
61150SOL    HW185289   6.063   5.568  12.488
61150SOL    HW285290   6.013   5.515  12.355
61151SOL     OW85291   4.482   1.587   8.972
61151SOL    HW185292   4.545   1.568   8.902
61151SOL    HW285293   4.429   1.658   8.937
61152SOL     OW85294   9.584   8.191  13.151
61152SOL    HW185295   9.579   8.253  13.078
61152SOL    HW285296   9.672   8.201  13.186
61153SOL     OW85297  10.640  12.794  14.603
61153SOL    HW185298  10.666  12.785  14.511
61153SOL    HW285299  10.621  12.705  14.632
61154SOL     OW85300  11.931  12.676  10.095
61154SOL    HW185301  11.847  12.698  10.056
61154SOL    HW285302  11.909  12.643  10.182
61155SOL     OW85303   1.462   1.038   5.723
61155SOL    HW185304   1.529   1.087   5.771
61155SOL    HW285305   1.499   0.951   5.712
61156SOL     OW85306   5.870   6.470   4.624
61156SOL    HW185307   5.793   6.418   4.603
61156SOL    HW285308   5.938   6.405   4.645
61157SOL     OW85309   1.591   4.378   5.463
61157SOL    HW185310   1.542   4.440   5.410
61157SOL    HW285311   1.677   4.373   5.422
61158SOL     OW85312   2.562   9.364   9.381
61158SOL    HW185313   2.630   9.430   9.392
61158SOL    HW285314   2.481   9.414   9.369
61159SOL     OW85315   2.188  14.492   5.309
61159SOL    HW185316   2.161  14.441   5.385
61159SOL    HW285317   2.244  14.432   5.259
61160SOL     OW85318  13.252   0.443  11.384
61160SOL    HW185319  13.247   0.455  11.479
61160SOL    HW285320  13.253   0.531  11.348
61161SOL     OW85321   3.240  11.126   9.980
61161SOL    HW185322   3.226  11.056  10.044
61161SOL    HW285323   3.157  11.174   9.980
61162SOL     OW85324   8.399  13.202  13.358
61162SOL    HW185325   8.337  13.159  13.417
61162SOL    HW285326   8.479  13.150  13.366
61163SOL     OW85327   1.805   9.326  14.801
61163SOL    HW185328   1.740   9.389  14.833
61163SOL    HW285329   1.812   9.261  14.871
61164SOL     OW85330  13.237  11.435   1.878
61164SOL    HW185331  13.185  11.354   1.878
61164SOL    HW285332  13.192  11.492   1.815
61165SOL     OW85333   0.505   9.592   7.703
61165SOL    HW185334   0.493   9.498   7.708
61165SOL    HW285335   0.485   9.615   7.613
61166SOL     OW85336   1.010   1.986   0.349
61166SOL    HW185337   1.090   1.987   0.402
61166SOL    HW285338   0.978   1.896   0.356
61167SOL     OW85339   3.803  14.801  10.008
61167SOL    HW185340   3.883  14.849  10.030
61167SOL    HW285341   3.833  14.721   9.966
61168SOL     OW85342   4.539   3.107  14.450
61168SOL    HW185343   4.456   3.155  14.446
61168SOL    HW285344   4.513   3.017  14.469
61169SOL     OW85345   4.526   9.573   2.678
61169SOL    HW185346   4.471   9.538   2.749
61169SOL    HW285347   4.463   9.611   2.616
61170SOL     OW85348   7.824   1.746   5.153
61170SOL    HW185349   7.880   1.780   5.223
61170SOL    HW285350   7.862   1.782   5.072
61171SOL     OW85351   2.001   8.014   8.057
61171SOL    HW185352   1.920   8.018   8.005
61171SOL    HW285353   2.033   8.105   8.058
61172SOL     OW85354   9.224  10.761  13.554
61172SOL    HW185355   9.308  10.715  13.551
61172SOL    HW285356   9.186  10.748  13.467
61173SOL     OW85357   6.619   0.016   6.696
61173SOL    HW185358   6.647  14.809   6.666
61173SOL    HW285359   6.617   0.008   6.791
61174SOL     OW85360   5.189  11.092   3.939
61174SOL    HW185361   5.191  11.117   4.031
61174SOL    HW285362   5.152  11.004   3.938
61175SOL     OW85363   1.395   3.818  12.808
61175SOL    HW185364   1.448   3.808  12.728
61175SOL    HW285365   1.414   3.739  12.859
61176SOL     OW85366   5.212  11.719  10.607
61176SOL    HW185367   5.231  11.800  10.654
61176SOL    HW285368   5.297  11.677  10.597
61177SOL     OW85369   0.196  10.739  10.355
61177SOL    HW185370   0.278  10.752  10.307
61177SOL    HW285371   0.127  10.760  10.292
61178SOL     OW85372  11.131   2.020  14.732
61178SOL    HW185373  11.039   2.021  14.706
61178SOL    HW285374  11.174   1.963  14.668
61179SOL     OW85375   5.781   6.448  13.128
61179SOL    HW185376   5.833   6.520  13.163
61179SOL    HW285377   5.726   6.420  13.201
61180SOL     OW85378   0.122   4.399   4.494
61180SOL    HW185379   0.083   4.409   4.407
61180SOL    HW285380   0.217   4.406   4.478
61181SOL     OW85381   6.457   8.287  11.219
61181SOL    HW185382   6.532   8.288  11.278
61181SOL    HW285383   6.390   8.239  11.267
61182SOL     OW85384   3.365   7.421  11.857
61182SOL    HW185385   3.300   7.363  11.897
61182SOL    HW285386   3.438   7.422  11.918
61183SOL     OW85387   3.794   5.398   9.365
61183SOL    HW185388   3.847   5.429   9.292
61183SOL    HW285389   3.801   5.303   9.361
61184SOL     OW85390   8.948   3.579  11.637
61184SOL    HW185391   8.931   3.552  11.727
61184SOL    HW285392   9.041   3.600  11.634
61185SOL     OW85393  13.007   3.789   7.815
61185SOL    HW185394  13.093   3.828   7.828
61185SOL    HW285395  12.977   3.824   7.730
61186SOL     OW85396   6.767   8.221   6.281
61186SOL    HW185397   6.718   8.271   6.347
61186SOL    HW285398   6.701   8.194   6.217
61187SOL     OW85399   8.987   3.987   6.475
61187SOL    HW185400   9.070   4.024   6.505
61187SOL    HW285401   8.985   3.898   6.512
61188SOL     OW85402  12.371  11.390   1.555
61188SOL    HW185403  12.381  11.456   1.624
61188SOL    HW285404  12.398  11.434   1.475
61189SOL     OW85405   0.858   7.097   7.514
61189SOL    HW185406   0.809   7.056   7.584
61189SOL    HW285407   0.833   7.189   7.518
61190SOL     OW85408   1.586   9.306   9.500
61190SOL    HW185409   1.499   9.268   9.494
61190SOL    HW285410   1.578   9.375   9.565
61191SOL     OW85411   7.719   9.681   4.186
61191SOL    HW185412   7.764   9.688   4.101
61191SOL    HW285413   7.769   9.615   4.234
61192SOL     OW85414   9.453   1.760   8.122
61192SOL    HW185415   9.451   1.718   8.036
61192SOL    HW285416   9.531   1.725   8.164
61193SOL     OW85417   7.745  11.302   0.728
61193SOL    HW185418   7.833  11.264   0.735
61193SOL    HW285419   7.748  11.354   0.647
61194SOL     OW85420   6.473  12.814  13.311
61194SOL    HW185421   6.444  12.889  13.259
61194SOL    HW285422   6.413  12.812  13.386
61195SOL     OW85423  11.753   7.634   4.767
61195SOL    HW185424  11.682   7.695   4.786
61195SOL    HW285425  11.813   7.642   4.842
61196SOL     OW85426   4.229   7.000  12.992
61196SOL    HW185427   4.140   7.031  13.012
61196SOL    HW285428   4.217   6.934  12.924
61197SOL     OW85429   2.055  12.648   5.957
61197SOL    HW185430   2.060  12.563   5.914
61197SOL    HW285431   2.128  12.649   6.019
61198SOL     OW85432   0.743   0.433  12.117
61198SOL    HW185433   0.687   0.475  12.182
61198SOL    HW285434   0.712   0.468  12.033
61199SOL     OW85435   3.847   7.222   0.925
61199SOL    HW185436   3.886   7.198   0.841
61199SOL    HW285437   3.766   7.267   0.902
61200SOL     OW85438  11.699  13.370   4.184
61200SOL    HW185439  11.729  13.422   4.258
61200SOL    HW285440  11.739  13.284   4.197
61201SOL     OW85441   1.431   0.581   2.542
61201SOL    HW185442   1.489   0.526   2.595
61201SOL    HW285443   1.444   0.670   2.576
61202SOL     OW85444   9.596   0.584   6.615
61202SOL    HW185445   9.579   0.510   6.673
61202SOL    HW285446   9.663   0.551   6.554
61203SOL     OW85447   9.951   1.127  13.192
61203SOL    HW185448   9.867   1.164  13.167
61203SOL    HW285449   9.931   1.068  13.264
61204SOL     OW85450   7.158  10.205  13.344
61204SOL    HW185451   7.192  10.248  13.423
61204SOL    HW285452   7.106  10.273  13.301
61205SOL     OW85453   9.633   4.138   7.462
61205SOL    HW185454   9.728   4.131   7.456
61205SOL    HW285455   9.618   4.206   7.528
61206SOL     OW85456   1.026   2.442  14.480
61206SOL    HW185457   1.041   2.502  14.552
61206SOL    HW285458   1.074   2.481  14.406
61207SOL     OW85459   0.654   1.749   3.481
61207SOL    HW185460   0.707   1.711   3.411
61207SOL    HW285461   0.699   1.829   3.505
61208SOL     OW85462   3.888   7.911   0.997
61208SOL    HW185463   3.847   7.953   1.072
61208SOL    HW285464   3.981   7.905   1.019
61209SOL     OW85465  11.736   6.786   1.696
61209SOL    HW185466  11.654   6.782   1.745
61209SOL    HW285467  11.797   6.832   1.755
61210SOL     OW85468  13.067  14.315   3.323
61210SOL    HW185469  13.006  14.244   3.301
61210SOL    HW285470  13.086  14.302   3.416
61211SOL     OW85471   7.798  14.487  11.501
61211SOL    HW185472   7.735  14.550  11.534
61211SOL    HW285473   7.878  14.503  11.551
61212SOL     OW85474   6.211   3.859  10.636
61212SOL    HW185475   6.276   3.842  10.568
61212SOL    HW285476   6.128   3.830  10.598
61213SOL     OW85477   2.263  12.748  11.799
61213SOL    HW185478   2.205  12.824  11.802
61213SOL    HW285479   2.247  12.709  11.713
61214SOL     OW85480   3.663   6.382  11.757
61214SOL    HW185481   3.573   6.360  11.779
61214SOL    HW285482   3.716   6.334  11.820
61215SOL     OW85483   5.880   7.456   3.672
61215SOL    HW185484   5.906   7.547   3.665
61215SOL    HW285485   5.835   7.449   3.756
61216SOL     OW85486   6.992  11.982   1.675
61216SOL    HW185487   6.943  12.041   1.733
61216SOL    HW285488   6.968  11.894   1.704
61217SOL     OW85489   2.338  12.568   5.730
61217SOL    HW185490   2.281  12.541   5.658
61217SOL    HW285491   2.299  12.529   5.808
61218SOL     OW85492  12.159   1.243  11.601
61218SOL    HW185493  12.241   1.276  11.564
61218SOL    HW285494  12.173   1.243  11.695
61219SOL     OW85495   8.716   9.315  10.830
61219SOL    HW185496   8.786   9.379  10.843
61219SOL    HW285497   8.760   9.239  10.792
61220SOL     OW85498   1.548   4.274   7.759
61220SOL    HW185499   1.587   4.349   7.716
61220SOL    HW285500   1.505   4.310   7.837
61221SOL     OW85501  12.553   4.794   5.557
61221SOL    HW185502  12.508   4.774   5.474
61221SOL    HW285503  12.503   4.746   5.623
61222SOL     OW85504   4.724   5.879   9.021
61222SOL    HW185505   4.764   5.854   8.938
61222SOL    HW285506   4.784   5.845   9.088
61223SOL     OW85507  12.043   6.057   8.564
61223SOL    HW185508  12.080   6.068   8.651
61223SOL    HW285509  12.103   6.104   8.506
61224SOL     OW85510   5.226   8.886   5.095
61224SOL    HW185511   5.270   8.966   5.065
61224SOL    HW285512   5.216   8.833   5.016
61225SOL     OW85513   3.353   8.775   6.914
61225SOL    HW185514   3.388   8.792   7.002
61225SOL    HW285515   3.324   8.861   6.884
61226SOL     OW85516   5.902  10.305  13.645
61226SOL    HW185517   5.972  10.241  13.630
61226SOL    HW285518   5.838  10.286  13.576
61227SOL     OW85519   2.380  10.165   6.147
61227SOL    HW185520   2.366  10.249   6.191
61227SOL    HW285521   2.443  10.184   6.078
61228SOL     OW85522  14.301  11.318   7.636
61228SOL    HW185523  14.269  11.292   7.550
61228SOL    HW285524  14.393  11.290   7.638
61229SOL     OW85525   8.109  14.191   7.707
61229SOL    HW185526   8.134  14.159   7.621
61229SOL    HW285527   8.186  14.176   7.762
61230SOL     OW85528   4.231  14.586   3.873
61230SOL    HW185529   4.201  14.533   3.800
61230SOL    HW285530   4.315  14.622   3.844
61231SOL     OW85531   0.918   1.193   2.050
61231SOL    HW185532   0.880   1.238   2.126
61231SOL    HW285533   0.953   1.264   1.996
61232SOL     OW85534   3.466   2.462   9.248
61232SOL    HW185535   3.532   2.395   9.229
61232SOL    HW285536   3.516   2.542   9.264
61233SOL     OW85537   9.970   4.610  14.836
61233SOL    HW185538  10.015   4.528  14.816
61233SOL    HW285539  10.001   4.633   0.044
61234SOL     OW85540   0.335  10.107   5.084
61234SOL    HW185541   0.375  10.183   5.127
61234SOL    HW285542   0.351  10.120   4.991
61235SOL     OW85543  12.290  14.038   4.222
61235SOL    HW185544  12.369  14.061   4.173
61235SOL    HW285545  12.311  13.953   4.262
61236SOL     OW85546  14.214   7.696  10.063
61236SOL    HW185547  14.193   7.651  10.145
61236SOL    HW285548  14.310   7.690  10.057
61237SOL     OW85549   3.366   5.756   3.447
61237SOL    HW185550   3.282   5.743   3.404
61237SOL    HW285551   3.355   5.837   3.498
61238SOL     OW85552   1.667   7.032   8.656
61238SOL    HW185553   1.659   6.946   8.614
61238SOL    HW285554   1.673   7.093   8.582
61239SOL     OW85555   2.136   0.268   6.098
61239SOL    HW185556   2.103   0.358   6.098
61239SOL    HW285557   2.075   0.221   6.156
61240SOL     OW85558  12.295   0.975   1.103
61240SOL    HW185559  12.272   1.033   1.031
61240SOL    HW285560  12.311   0.890   1.062
61241SOL     OW85561   6.492  14.346   1.847
61241SOL    HW185562   6.460  14.435   1.834
61241SOL    HW285563   6.548  14.352   1.925
61242SOL     OW85564   8.979   7.085  11.173
61242SOL    HW185565   9.011   7.172  11.200
61242SOL    HW285566   8.928   7.102  11.094
61243SOL     OW85567   7.118   2.477   4.424
61243SOL    HW185568   7.143   2.466   4.515
61243SOL    HW285569   7.032   2.520   4.427
61244SOL     OW85570   1.979   6.497   9.597
61244SOL    HW185571   2.007   6.426   9.655
61244SOL    HW285572   2.059   6.545   9.577
61245SOL     OW85573   8.030   1.940   9.640
61245SOL    HW185574   7.989   1.913   9.722
61245SOL    HW285575   8.049   2.033   9.652
61246SOL     OW85576   7.820   0.422   2.398
61246SOL    HW185577   7.743   0.415   2.341
61246SOL    HW285578   7.883   0.360   2.362
61247SOL     OW85579   0.708  11.870   6.223
61247SOL    HW185580   0.786  11.894   6.272
61247SOL    HW285581   0.649  11.833   6.288
61248SOL     OW85582  13.286   1.552   8.227
61248SOL    HW185583  13.198   1.517   8.218
61248SOL    HW285584  13.340   1.498   8.169
61249SOL     OW85585   1.267   2.432   3.611
61249SOL    HW185586   1.285   2.372   3.683
61249SOL    HW285587   1.351   2.438   3.564
61250SOL     OW85588   1.538   4.422  13.597
61250SOL    HW185589   1.526   4.495  13.657
61250SOL    HW285590   1.494   4.349  13.639
61251SOL     OW85591  14.434   2.632   7.065
61251SOL    HW185592  14.355   2.631   7.012
61251SOL    HW285593  14.498   2.680   7.013
61252SOL     OW85594   4.464   2.499   4.344
61252SOL    HW185595   4.543   2.511   4.291
61252SOL    HW285596   4.397   2.474   4.281
61253SOL     OW85597   5.345   1.217   2.360
61253SOL    HW185598   5.266   1.182   2.320
61253SOL    HW285599   5.315   1.252   2.444
61254SOL     OW85600   2.775   9.662   4.113
61254SOL    HW185601   2.727   9.602   4.171
61254SOL    HW285602   2.866   9.654   4.140
61255SOL     OW85603   8.291  13.870  11.423
61255SOL    HW185604   8.268  13.898  11.511
61255SOL    HW285605   8.300  13.774  11.429
61256SOL     OW85606   6.587  11.180  13.783
61256SOL    HW185607   6.627  11.102  13.743
61256SOL    HW285608   6.654  11.215  13.841
61257SOL     OW85609  13.050   2.302   2.467
61257SOL    HW185610  13.020   2.370   2.527
61257SOL    HW285611  13.024   2.220   2.509
61258SOL     OW85612   6.079   1.749   3.653
61258SOL    HW185613   6.082   1.807   3.729
61258SOL    HW285614   6.171   1.724   3.638
61259SOL     OW85615   9.356  14.179   8.949
61259SOL    HW185616   9.290  14.249   8.945
61259SOL    HW285617   9.312  14.103   8.911
61260SOL     OW85618   4.729   6.036   2.299
61260SOL    HW185619   4.668   5.971   2.264
61260SOL    HW285620   4.812   5.989   2.307
61261SOL     OW85621  13.323   6.086  10.185
61261SOL    HW185622  13.382   6.072  10.258
61261SOL    HW285623  13.297   6.178  10.191
61262SOL     OW85624  11.314  11.525   1.459
61262SOL    HW185625  11.225  11.493   1.470
61262SOL    HW285626  11.348  11.533   1.548
61263SOL     OW85627  13.585   3.188   5.652
61263SOL    HW185628  13.611   3.232   5.733
61263SOL    HW285629  13.565   3.098   5.680
61264SOL     OW85630  13.472   3.150   4.185
61264SOL    HW185631  13.472   3.190   4.098
61264SOL    HW285632  13.410   3.078   4.178
61265SOL     OW85633  12.544   9.444  13.464
61265SOL    HW185634  12.565   9.384  13.535
61265SOL    HW285635  12.460   9.414  13.430
61266SOL     OW85636  10.208   6.888   5.172
61266SOL    HW185637  10.174   6.827   5.239
61266SOL    HW285638  10.192   6.843   5.089
61267SOL     OW85639  10.837   1.110  14.691
61267SOL    HW185640  10.919   1.156  14.705
61267SOL    HW285641  10.861   1.017  14.693
61268SOL     OW85642  13.745  12.651   3.627
61268SOL    HW185643  13.681  12.667   3.696
61268SOL    HW285644  13.829  12.657   3.671
61269SOL     OW85645   7.355   6.795   5.533
61269SOL    HW185646   7.274   6.845   5.547
61269SOL    HW285647   7.395   6.789   5.620
61270SOL     OW85648   5.390   1.526   9.397
61270SOL    HW185649   5.454   1.521   9.468
61270SOL    HW285650   5.344   1.608   9.412
61271SOL     OW85651   1.781   9.630  10.182
61271SOL    HW185652   1.856   9.688  10.193
61271SOL    HW285653   1.815   9.555  10.133
61272SOL     OW85654  11.125   6.900   0.709
61272SOL    HW185655  11.081   6.918   0.793
61272SOL    HW285656  11.059   6.923   0.643
61273SOL     OW85657   9.803  13.130   2.351
61273SOL    HW185658   9.784  13.169   2.265
61273SOL    HW285659   9.884  13.081   2.338
61274SOL     OW85660  14.196  14.673   2.995
61274SOL    HW185661  14.256  14.659   3.068
61274SOL    HW285662  14.246  14.646   2.918
61275SOL     OW85663  12.562   9.580   0.592
61275SOL    HW185664  12.572   9.485   0.594
61275SOL    HW285665  12.558   9.601   0.498
61276SOL     OW85666  11.519   5.026   4.901
61276SOL    HW185667  11.491   5.116   4.922
61276SOL    HW285668  11.555   4.992   4.984
61277SOL     OW85669   3.574  12.401  13.544
61277SOL    HW185670   3.600  12.484  13.584
61277SOL    HW285671   3.479  12.405  13.542
61278SOL     OW85672   5.527   4.341   1.469
61278SOL    HW185673   5.558   4.277   1.533
61278SOL    HW285674   5.557   4.308   1.385
61279SOL     OW85675   6.943   2.831  13.462
61279SOL    HW185676   6.971   2.898  13.399
61279SOL    HW285677   6.878   2.875  13.517
61280SOL     OW85678  12.062  11.985  10.527
61280SOL    HW185679  12.117  11.963  10.602
61280SOL    HW285680  11.977  12.007  10.566
61281SOL     OW85681  13.122   8.801   9.578
61281SOL    HW185682  13.196   8.804   9.639
61281SOL    HW285683  13.118   8.890   9.541
61282SOL     OW85684  10.205   2.563   0.405
61282SOL    HW185685  10.241   2.636   0.354
61282SOL    HW285686  10.152   2.606   0.473
61283SOL     OW85687  10.254   5.727   5.565
61283SOL    HW185688  10.289   5.804   5.521
61283SOL    HW285689  10.284   5.653   5.511
61284SOL     OW85690   3.965   9.829   0.524
61284SOL    HW185691   3.942   9.814   0.433
61284SOL    HW285692   3.991   9.921   0.527
61285SOL     OW85693   0.090   0.364  10.054
61285SOL    HW185694   0.053   0.375  10.141
61285SOL    HW285695   0.144   0.443  10.041
61286SOL     OW85696   3.196   4.626   0.146
61286SOL    HW185697   3.142   4.674   0.209
61286SOL    HW285698   3.286   4.647   0.170
61287SOL     OW85699   2.726   8.535  12.932
61287SOL    HW185700   2.774   8.590  12.994
61287SOL    HW285701   2.692   8.463  12.985
61288SOL     OW85702   0.276   2.651  13.755
61288SOL    HW185703   0.324   2.700  13.821
61288SOL    HW285704   0.343   2.618  13.696
61289SOL     OW85705   4.047  12.588   5.929
61289SOL    HW185706   4.001  12.672   5.927
61289SOL    HW285707   4.115  12.599   5.995
61290SOL     OW85708   5.115  11.186  10.488
61290SOL    HW185709   5.107  11.269  10.535
61290SOL    HW285710   5.174  11.133  10.541
61291SOL     OW85711   4.047  11.523   2.454
61291SOL    HW185712   3.955  11.539   2.479
61291SOL    HW285713   4.091  11.606   2.472
61292SOL     OW85714   3.817  14.493   2.139
61292SOL    HW185715   3.785  14.427   2.076
61292SOL    HW285716   3.903  14.462   2.165
61293SOL     OW85717   9.646   6.293   5.916
61293SOL    HW185718   9.620   6.379   5.882
61293SOL    HW285719   9.703   6.256   5.849
61294SOL     OW85720   5.924  11.035   9.118
61294SOL    HW185721   5.886  11.122   9.102
61294SOL    HW285722   5.888  10.980   9.049
61295SOL     OW85723   9.473  11.146  13.017
61295SOL    HW185724   9.420  11.218  13.051
61295SOL    HW285725   9.417  11.069  13.022
61296SOL     OW85726   9.443   6.667   9.231
61296SOL    HW185727   9.536   6.679   9.212
61296SOL    HW285728   9.437   6.579   9.268
61297SOL     OW85729   3.172  10.862   8.062
61297SOL    HW185730   3.227  10.855   7.985
61297SOL    HW285731   3.101  10.921   8.037
61298SOL     OW85732   6.596  10.124  10.095
61298SOL    HW185733   6.689  10.101  10.090
61298SOL    HW285734   6.578  10.169  10.013
61299SOL     OW85735   2.794  10.313  11.651
61299SOL    HW185736   2.744  10.387  11.686
61299SOL    HW285737   2.851  10.353  11.585
61300SOL     OW85738  10.989   8.570   6.703
61300SOL    HW185739  11.023   8.529   6.623
61300SOL    HW285740  10.903   8.603   6.679
61301SOL     OW85741  14.828   2.118   4.388
61301SOL    HW185742  14.796   2.040   4.432
61301SOL    HW285743   0.011   2.156   4.451
61302SOL     OW85744  13.197   1.517   5.827
61302SOL    HW185745  13.255   1.549   5.759
61302SOL    HW285746  13.206   1.580   5.898
61303SOL     OW85747   3.717   4.195   1.242
61303SOL    HW185748   3.790   4.246   1.278
61303SOL    HW285749   3.757   4.113   1.215
61304SOL     OW85750   7.645   3.492  10.706
61304SOL    HW185751   7.572   3.546  10.735
61304SOL    HW285752   7.681   3.538  10.631
61305SOL     OW85753  13.414   9.559   1.342
61305SOL    HW185754  13.360   9.530   1.268
61305SOL    HW285755  13.421   9.653   1.330
61306SOL     OW85756  13.808   8.630   2.339
61306SOL    HW185757  13.808   8.644   2.244
61306SOL    HW285758  13.742   8.562   2.353
61307SOL     OW85759  11.203   3.681   0.443
61307SOL    HW185760  11.121   3.702   0.397
61307SOL    HW285761  11.203   3.586   0.449
61308SOL     OW85762   4.931   2.474   7.459
61308SOL    HW185763   4.871   2.401   7.470
61308SOL    HW285764   4.875   2.552   7.464
61309SOL     OW85765   3.194  10.640  14.679
61309SOL    HW185766   3.187  10.642  14.583
61309SOL    HW285767   3.283  10.611  14.696
61310SOL     OW85768   8.976  10.336   6.153
61310SOL    HW185769   8.992  10.242   6.161
61310SOL    HW285770   9.002  10.373   6.237
61311SOL     OW85771   8.342   0.880   0.467
61311SOL    HW185772   8.343   0.950   0.532
61311SOL    HW285773   8.319   0.801   0.517
61312SOL     OW85774   1.267   5.062   7.547
61312SOL    HW185775   1.234   4.973   7.564
61312SOL    HW285776   1.193   5.107   7.507
61313SOL     OW85777   6.666   1.063   3.753
61313SOL    HW185778   6.611   1.139   3.731
61313SOL    HW285779   6.638   1.038   3.840
61314SOL     OW85780   7.160   3.523   4.656
61314SOL    HW185781   7.161   3.520   4.752
61314SOL    HW285782   7.092   3.587   4.635
61315SOL     OW85783   0.587   4.035   9.370
61315SOL    HW185784   0.604   4.065   9.280
61315SOL    HW285785   0.648   4.085   9.424
61316SOL     OW85786  10.704   9.197   3.116
61316SOL    HW185787  10.648   9.186   3.193
61316SOL    HW285788  10.771   9.129   3.125
61317SOL     OW85789  13.037   8.756   8.563
61317SOL    HW185790  12.963   8.815   8.575
61317SOL    HW285791  13.058   8.725   8.652
61318SOL     OW85792   3.401   1.298   4.595
61318SOL    HW185793   3.422   1.205   4.593
61318SOL    HW285794   3.429   1.330   4.509
61319SOL     OW85795   5.128   1.368   5.650
61319SOL    HW185796   5.043   1.343   5.687
61319SOL    HW285797   5.121   1.462   5.636
61320SOL     OW85798   1.264   5.917  12.641
61320SOL    HW185799   1.266   5.909  12.736
61320SOL    HW285800   1.350   5.952  12.619
61321SOL     OW85801   4.456  10.571  14.758
61321SOL    HW185802   4.482  10.611  14.841
61321SOL    HW285803   4.361  10.584  14.754
61322SOL     OW85804   2.053   6.242  11.514
61322SOL    HW185805   2.122   6.222  11.577
61322SOL    HW285806   2.095   6.234  11.429
61323SOL     OW85807  10.146   1.214   5.681
61323SOL    HW185808  10.096   1.133   5.697
61323SOL    HW285809  10.122   1.238   5.592
61324SOL     OW85810  14.371  11.576   9.414
61324SOL    HW185811  14.414  11.521   9.479
61324SOL    HW285812  14.442  11.630   9.379
61325SOL     OW85813   7.263   2.731   3.225
61325SOL    HW185814   7.279   2.651   3.175
61325SOL    HW285815   7.297   2.711   3.313
61326SOL     OW85816   0.863  10.484  13.664
61326SOL    HW185817   0.913  10.486  13.583
61326SOL    HW285818   0.888  10.565  13.710
61327SOL     OW85819   8.437  12.420   6.470
61327SOL    HW185820   8.359  12.456   6.427
61327SOL    HW285821   8.411  12.334   6.500
61328SOL     OW85822   9.163   4.924  14.684
61328SOL    HW185823   9.171   4.883  14.598
61328SOL    HW285824   9.137   5.014  14.666
61329SOL     OW85825   2.355  14.281   5.216
61329SOL    HW185826   2.399  14.223   5.154
61329SOL    HW285827   2.381  14.248   5.302
61330SOL     OW85828   8.414  11.010  13.381
61330SOL    HW185829   8.350  11.047  13.320
61330SOL    HW285830   8.487  11.072  13.380
61331SOL     OW85831  14.568  13.863  11.245
61331SOL    HW185832  14.662  13.865  11.228
61331SOL    HW285833  14.558  13.799  11.315
61332SOL     OW85834   2.691  13.458  13.875
61332SOL    HW185835   2.743  13.535  13.899
61332SOL    HW285836   2.615  13.461  13.933
61333SOL     OW85837   5.988  14.047  13.559
61333SOL    HW185838   5.924  13.994  13.511
61333SOL    HW285839   6.024  14.107  13.493
61334SOL     OW85840   6.302   8.209  11.636
61334SOL    HW185841   6.381   8.171  11.674
61334SOL    HW285842   6.245   8.228  11.711
61335SOL     OW85843  10.850  14.465   5.896
61335SOL    HW185844  10.836  14.416   5.815
61335SOL    HW285845  10.853  14.398   5.964
61336SOL     OW85846   2.102   3.475   2.795
61336SOL    HW185847   2.158   3.527   2.851
61336SOL    HW285848   2.032   3.444   2.852
61337SOL     OW85849  12.634  12.937   6.343
61337SOL    HW185850  12.569  12.882   6.385
61337SOL    HW285851  12.651  12.895   6.259
61338SOL     OW85852   7.564  11.751   0.030
61338SOL    HW185853   7.569  11.734  14.815
61338SOL    HW285854   7.546  11.665   0.069
61339SOL     OW85855   2.552   0.085   4.439
61339SOL    HW185856   2.457   0.093   4.446
61339SOL    HW285857   2.571  14.875   4.467
61340SOL     OW85858   0.297  13.138   3.832
61340SOL    HW185859   0.324  13.199   3.763
61340SOL    HW285860   0.208  13.114   3.809
61341SOL     OW85861  10.590   3.706   4.511
61341SOL    HW185862  10.613   3.794   4.542
61341SOL    HW285863  10.497   3.698   4.532
61342SOL     OW85864  12.925  13.213   8.176
61342SOL    HW185865  12.976  13.164   8.241
61342SOL    HW285866  12.839  13.171   8.176
61343SOL     OW85867   6.649   6.378  12.396
61343SOL    HW185868   6.681   6.451  12.449
61343SOL    HW285869   6.715   6.367  12.327
61344SOL     OW85870   5.174   9.595   8.447
61344SOL    HW185871   5.252   9.613   8.395
61344SOL    HW285872   5.181   9.503   8.471
61345SOL     OW85873  13.336   1.485   2.549
61345SOL    HW185874  13.338   1.573   2.512
61345SOL    HW285875  13.399   1.488   2.621
61346SOL     OW85876   7.137   5.106   7.179
61346SOL    HW185877   7.224   5.116   7.140
61346SOL    HW285878   7.147   5.136   7.269
61347SOL     OW85879   4.864   1.197  13.627
61347SOL    HW185880   4.888   1.259  13.696
61347SOL    HW285881   4.784   1.156  13.658
61348SOL     OW85882  10.647   1.238  14.871
61348SOL    HW185883  10.621   1.306  14.808
61348SOL    HW285884  10.709   1.183  14.823
61349SOL     OW85885   0.761   3.000  11.199
61349SOL    HW185886   0.822   2.952  11.254
61349SOL    HW285887   0.765   3.090  11.230
61350SOL     OW85888   9.100   8.678  10.531
61350SOL    HW185889   9.144   8.627  10.599
61350SOL    HW285890   9.171   8.716  10.479
61351SOL     OW85891  12.580   9.101   8.475
61351SOL    HW185892  12.657   9.122   8.422
61351SOL    HW285893  12.567   9.007   8.464
61352SOL     OW85894   5.760   3.815  12.400
61352SOL    HW185895   5.698   3.782  12.336
61352SOL    HW285896   5.755   3.911  12.392
61353SOL     OW85897   6.567   0.489  11.393
61353SOL    HW185898   6.627   0.550  11.350
61353SOL    HW285899   6.562   0.414  11.333
61354SOL     OW85900   8.593   4.122   6.406
61354SOL    HW185901   8.636   4.148   6.487
61354SOL    HW285902   8.644   4.047   6.375
61355SOL     OW85903   2.011  12.317   9.189
61355SOL    HW185904   2.093  12.355   9.158
61355SOL    HW285905   2.032  12.281   9.275
61356SOL     OW85906   6.948  10.752  13.936
61356SOL    HW185907   7.029  10.787  13.897
61356SOL    HW285908   6.978  10.688  14.000
61357SOL     OW85909   2.671   8.936   0.641
61357SOL    HW185910   2.655   8.928   0.547
61357SOL    HW285911   2.734   9.008   0.649
61358SOL     OW85912   5.657   3.050   1.751
61358SOL    HW185913   5.657   3.000   1.832
61358SOL    HW285914   5.598   3.124   1.767
61359SOL     OW85915   1.517   0.607  14.733
61359SOL    HW185916   1.513   0.531  14.792
61359SOL    HW285917   1.496   0.682  14.789
61360SOL     OW85918  13.184   0.436  14.525
61360SOL    HW185919  13.135   0.518  14.534
61360SOL    HW285920  13.118   0.370  14.506
61361SOL     OW85921   1.512  14.261   3.788
61361SOL    HW185922   1.508  14.175   3.746
61361SOL    HW285923   1.583  14.254   3.852
61362SOL     OW85924  13.375   7.113  11.912
61362SOL    HW185925  13.333   7.100  11.827
61362SOL    HW285926  13.393   7.207  11.916
61363SOL     OW85927  11.602  10.071   0.706
61363SOL    HW185928  11.616  10.067   0.801
61363SOL    HW285929  11.677  10.024   0.669
61364SOL     OW85930   4.018   1.334   1.909
61364SOL    HW185931   4.112   1.351   1.897
61364SOL    HW285932   3.998   1.265   1.846
61365SOL     OW85933  11.764   4.517   4.271
61365SOL    HW185934  11.679   4.493   4.234
61365SOL    HW285935  11.806   4.569   4.202
61366SOL     OW85936  10.315   4.523  12.776
61366SOL    HW185937  10.284   4.538  12.866
61366SOL    HW285938  10.393   4.469  12.786
61367SOL     OW85939   7.128   4.072   8.793
61367SOL    HW185940   7.118   4.164   8.768
61367SOL    HW285941   7.061   4.057   8.860
61368SOL     OW85942  12.496   7.701   2.410
61368SOL    HW185943  12.504   7.705   2.314
61368SOL    HW285944  12.578   7.661   2.439
61369SOL     OW85945   8.389   0.498   8.765
61369SOL    HW185946   8.451   0.551   8.816
61369SOL    HW285947   8.385   0.542   8.680
61370SOL     OW85948   4.391  14.351  10.832
61370SOL    HW185949   4.316  14.406  10.855
61370SOL    HW285950   4.442  14.405  10.772
61371SOL     OW85951   9.080  10.904  11.185
61371SOL    HW185952   9.045  10.933  11.100
61371SOL    HW285953   9.151  10.965  11.204
61372SOL     OW85954   2.177   9.870   7.219
61372SOL    HW185955   2.261   9.916   7.224
61372SOL    HW285956   2.123   9.925   7.162
61373SOL     OW85957  12.548  10.458   2.170
61373SOL    HW185958  12.499  10.499   2.099
61373SOL    HW285959  12.581  10.532   2.222
61374SOL     OW85960   5.256  14.669  13.756
61374SOL    HW185961   5.227  14.760  13.754
61374SOL    HW285962   5.213  14.632  13.832
61375SOL     OW85963   5.734  11.302  14.253
61375SOL    HW185964   5.651  11.343  14.277
61375SOL    HW285965   5.790  11.374  14.228
61376SOL     OW85966   3.445   3.491   3.191
61376SOL    HW185967   3.463   3.398   3.205
61376SOL    HW285968   3.521   3.536   3.228
61377SOL     OW85969   7.351  13.288   8.153
61377SOL    HW185970   7.280  13.348   8.131
61377SOL    HW285971   7.316  13.235   8.225
61378SOL     OW85972   1.984  10.744  12.265
61378SOL    HW185973   1.940  10.705  12.340
61378SOL    HW285974   2.022  10.825  12.299
61379SOL     OW85975  12.418   2.734   9.239
61379SOL    HW185976  12.345   2.694   9.286
61379SOL    HW285977  12.402   2.715   9.147
61380SOL     OW85978  11.430  13.169   8.760
61380SOL    HW185979  11.345  13.136   8.731
61380SOL    HW285980  11.425  13.264   8.748
61381SOL     OW85981   4.724   6.807  12.881
61381SOL    HW185982   4.633   6.837  12.877
61381SOL    HW285983   4.770   6.864  12.819
61382SOL     OW85984   5.149   8.955   9.175
61382SOL    HW185985   5.100   8.919   9.249
61382SOL    HW285986   5.152   9.049   9.193
61383SOL     OW85987  14.087   3.940   4.502
61383SOL    HW185988  14.119   3.959   4.414
61383SOL    HW285989  14.039   4.018   4.528
61384SOL     OW85990  13.894   7.768   4.747
61384SOL    HW185991  13.949   7.845   4.754
61384SOL    HW285992  13.935   7.715   4.679
61385SOL     OW85993   0.978  13.531  10.957
61385SOL    HW185994   1.056  13.516  11.011
61385SOL    HW285995   0.907  13.489  11.006
61386SOL     OW85996  13.349   7.814   7.141
61386SOL    HW185997  13.384   7.786   7.056
61386SOL    HW285998  13.276   7.872   7.119
61387SOL     OW85999  11.996   2.217  10.850
61387SOL    HW186000  11.941   2.252  10.921
61387SOL    HW286001  12.077   2.191  10.893
61388SOL     OW86002   3.897   3.911  13.306
61388SOL    HW186003   3.950   3.883  13.231
61388SOL    HW286004   3.839   3.978  13.270
61389SOL     OW86005   8.020   7.150   0.474
61389SOL    HW186006   8.100   7.202   0.474
61389SOL    HW286007   7.971   7.180   0.398
61390SOL     OW86008  14.454   0.701   2.392
61390SOL    HW186009  14.362   0.727   2.389
61390SOL    HW286010  14.495   0.764   2.451
61391SOL     OW86011   1.635   4.225   1.976
61391SOL    HW186012   1.657   4.250   2.066
61391SOL    HW286013   1.660   4.301   1.923
61392SOL     OW86014   7.820   8.543   3.554
61392SOL    HW186015   7.789   8.475   3.613
61392SOL    HW286016   7.746   8.561   3.497
61393SOL     OW86017   0.562  14.230   1.414
61393SOL    HW186018   0.512  14.152   1.394
61393SOL    HW286019   0.629  14.235   1.345
61394SOL     OW86020  13.984  11.232   3.368
61394SOL    HW186021  13.988  11.312   3.421
61394SOL    HW286022  13.934  11.258   3.290
61395SOL     OW86023   2.712   3.108  11.315
61395SOL    HW186024   2.711   3.181  11.376
61395SOL    HW286025   2.627   3.112  11.272
61396SOL     OW86026   1.438   4.557   2.165
61396SOL    HW186027   1.360   4.575   2.217
61396SOL    HW286028   1.481   4.485   2.212
61397SOL     OW86029   8.284   3.512   2.899
61397SOL    HW186030   8.247   3.595   2.869
61397SOL    HW286031   8.377   3.531   2.912
61398SOL     OW86032   7.632  11.143   2.305
61398SOL    HW186033   7.635  11.181   2.392
61398SOL    HW286034   7.544  11.163   2.273
61399SOL     OW86035  12.052   5.862   9.691
61399SOL    HW186036  12.034   5.866   9.597
61399SOL    HW286037  12.103   5.782   9.703
61400SOL     OW86038   5.934   2.479   4.040
61400SOL    HW186039   5.892   2.443   3.962
61400SOL    HW286040   5.874   2.547   4.070
61401SOL     OW86041  14.707   2.481   6.627
61401SOL    HW186042  14.623   2.437   6.636
61401SOL    HW286043  14.731   2.506   6.717
61402SOL     OW86044   4.867   5.092   6.848
61402SOL    HW186045   4.915   5.020   6.889
61402SOL    HW286046   4.920   5.170   6.867
61403SOL     OW86047  10.212  13.359  10.319
61403SOL    HW186048  10.231  13.451  10.336
61403SOL    HW286049  10.292  13.325  10.278
61404SOL     OW86050  10.754   3.003   7.561
61404SOL    HW186051  10.671   3.020   7.517
61404SOL    HW286052  10.805   2.953   7.497
61405SOL     OW86053   5.832  11.250   2.484
61405SOL    HW186054   5.889  11.211   2.417
61405SOL    HW286055   5.806  11.176   2.539
61406SOL     OW86056  10.353   8.519  14.484
61406SOL    HW186057  10.366   8.471  14.566
61406SOL    HW286058  10.289   8.587  14.506
61407SOL     OW86059   4.874   9.918  14.093
61407SOL    HW186060   4.785   9.909  14.060
61407SOL    HW286061   4.880   9.852  14.162
61408SOL     OW86062   1.207   0.262  14.308
61408SOL    HW186063   1.137   0.210  14.347
61408SOL    HW286064   1.165   0.344  14.282
61409SOL     OW86065   7.455   0.311   5.382
61409SOL    HW186066   7.369   0.332   5.346
61409SOL    HW286067   7.453   0.216   5.396
61410SOL     OW86068   0.133  12.683  10.889
61410SOL    HW186069   0.088  12.665  10.972
61410SOL    HW286070   0.065  12.674  10.822
61411SOL     OW86071  12.969  13.839   6.930
61411SOL    HW186072  12.911  13.776   6.887
61411SOL    HW286073  13.042  13.850   6.870
61412SOL     OW86074   3.694   9.361  13.581
61412SOL    HW186075   3.621   9.360  13.643
61412SOL    HW286076   3.751   9.289  13.609
61413SOL     OW86077   1.029   0.500  10.831
61413SOL    HW186078   0.937   0.480  10.851
61413SOL    HW286079   1.059   0.427  10.777
61414SOL     OW86080   9.466   6.476   4.635
61414SOL    HW186081   9.431   6.399   4.679
61414SOL    HW286082   9.542   6.501   4.688
61415SOL     OW86083  11.728  12.296   3.227
61415SOL    HW186084  11.652  12.239   3.242
61415SOL    HW286085  11.803  12.237   3.234
61416SOL     OW86086  13.757   0.598  14.308
61416SOL    HW186087  13.800   0.540  14.372
61416SOL    HW286088  13.671   0.558  14.293
61417SOL     OW86089  10.244   3.725  13.173
61417SOL    HW186090  10.176   3.658  13.185
61417SOL    HW286091  10.209   3.783  13.106
61418SOL     OW86092   3.021  12.063   6.192
61418SOL    HW186093   2.942  12.019   6.222
61418SOL    HW286094   2.996  12.102   6.108
61419SOL     OW86095   8.072   1.590  12.530
61419SOL    HW186096   8.106   1.658  12.588
61419SOL    HW286097   7.978   1.588  12.549
61420SOL     OW86098   3.687   7.695   3.197
61420SOL    HW186099   3.680   7.789   3.210
61420SOL    HW286100   3.602   7.660   3.225
61421SOL     OW86101   1.125  14.063  13.719
61421SOL    HW186102   1.205  14.098  13.758
61421SOL    HW286103   1.055  14.087  13.780
61422SOL     OW86104  11.534   4.503  13.943
61422SOL    HW186105  11.572   4.453  14.015
61422SOL    HW286106  11.575   4.589  13.949
61423SOL     OW86107  14.372  12.964   2.243
61423SOL    HW186108  14.366  13.047   2.196
61423SOL    HW286109  14.343  12.984   2.331
61424SOL     OW86110   8.993   2.310   0.903
61424SOL    HW186111   9.036   2.324   0.819
61424SOL    HW286112   9.064   2.288   0.964
61425SOL     OW86113  10.017   3.980   2.018
61425SOL    HW186114  10.111   3.996   2.026
61425SOL    HW286115   9.986   4.050   1.960
61426SOL     OW86116   0.432  12.476   4.315
61426SOL    HW186117   0.498  12.450   4.251
61426SOL    HW286118   0.467  12.556   4.355
61427SOL     OW86119  13.984   1.582   2.780
61427SOL    HW186120  14.070   1.543   2.765
61427SOL    HW286121  13.928   1.541   2.714
61428SOL     OW86122  12.346   7.535   9.652
61428SOL    HW186123  12.348   7.478   9.576
61428SOL    HW286124  12.272   7.504   9.704
61429SOL     OW86125   4.892   8.155   2.762
61429SOL    HW186126   4.981   8.120   2.768
61429SOL    HW286127   4.860   8.153   2.852
61430SOL     OW86128   5.026  11.589  11.717
61430SOL    HW186129   5.081  11.525  11.763
61430SOL    HW286130   4.956  11.537  11.679
61431SOL     OW86131   5.440   6.550   6.110
61431SOL    HW186132   5.519   6.526   6.159
61431SOL    HW286133   5.469   6.615   6.047
61432SOL     OW86134   9.632  13.037  13.756
61432SOL    HW186135   9.710  13.029  13.701
61432SOL    HW286136   9.558  13.028  13.696
61433SOL     OW86137   5.043   7.340  13.382
61433SOL    HW186138   5.111   7.287  13.341
61433SOL    HW286139   4.965   7.326  13.327
61434SOL     OW86140   2.834  11.610   1.471
61434SOL    HW186141   2.852  11.535   1.528
61434SOL    HW286142   2.841  11.686   1.528
61435SOL     OW86143   1.645   6.844   0.524
61435SOL    HW186144   1.646   6.856   0.429
61435SOL    HW286145   1.616   6.754   0.536
61436SOL     OW86146  11.701   0.913  13.981
61436SOL    HW186147  11.673   0.889  14.070
61436SOL    HW286148  11.635   0.976  13.952
61437SOL     OW86149   3.237   4.237   0.282
61437SOL    HW186150   3.203   4.313   0.329
61437SOL    HW286151   3.331   4.239   0.297
61438SOL     OW86152   4.592   8.806  12.796
61438SOL    HW186153   4.526   8.798  12.727
61438SOL    HW286154   4.602   8.901  12.808
61439SOL     OW86155   0.670   8.623  11.101
61439SOL    HW186156   0.689   8.708  11.140
61439SOL    HW286157   0.756   8.587  11.078
61440SOL     OW86158   7.188   2.760  14.150
61440SOL    HW186159   7.164   2.825  14.216
61440SOL    HW286160   7.183   2.806  14.067
61441SOL     OW86161  13.486   5.961   6.900
61441SOL    HW186162  13.433   6.031   6.938
61441SOL    HW286163  13.534   5.925   6.975
61442SOL     OW86164  14.610  10.665  11.659
61442SOL    HW186165  14.688  10.623  11.621
61442SOL    HW286166  14.639  10.754  11.681
61443SOL     OW86167  10.116   4.834   0.959
61443SOL    HW186168  10.077   4.902   0.904
61443SOL    HW286169  10.057   4.759   0.952
61444SOL     OW86170   3.662  13.350   2.931
61444SOL    HW186171   3.585  13.394   2.897
61444SOL    HW286172   3.736  13.397   2.892
61445SOL     OW86173  10.095   7.418  13.637
61445SOL    HW186174  10.013   7.437  13.684
61445SOL    HW286175  10.162   7.463  13.688
61446SOL     OW86176   8.312  13.449   0.213
61446SOL    HW186177   8.406  13.461   0.211
61446SOL    HW286178   8.293  13.426   0.305
61447SOL     OW86179   7.731  14.541   2.645
61447SOL    HW186180   7.725  14.462   2.592
61447SOL    HW286181   7.819  14.538   2.683
61448SOL     OW86182  14.255   6.756   7.391
61448SOL    HW186183  14.224   6.845   7.377
61448SOL    HW286184  14.276   6.723   7.304
61449SOL     OW86185   1.947  11.479   4.783
61449SOL    HW186186   1.953  11.575   4.784
61449SOL    HW286187   1.880  11.459   4.849
61450SOL     OW86188   5.241   9.890   2.670
61450SOL    HW186189   5.247   9.818   2.733
61450SOL    HW286190   5.199   9.851   2.594
61451SOL     OW86191   8.235  12.837   3.524
61451SOL    HW186192   8.172  12.836   3.452
61451SOL    HW286193   8.234  12.927   3.556
61452SOL     OW86194   2.699   6.848   6.994
61452SOL    HW186195   2.710   6.782   7.062
61452SOL    HW286196   2.779   6.843   6.942
61453SOL     OW86197   0.959  10.778   6.238
61453SOL    HW186198   0.985  10.786   6.146
61453SOL    HW286199   0.865  10.758   6.234
61454SOL     OW86200   5.071   4.584  12.888
61454SOL    HW186201   5.036   4.495  12.890
61454SOL    HW286202   5.154   4.578  12.935
61455SOL     OW86203   7.139   2.835   0.741
61455SOL    HW186204   7.143   2.863   0.650
61455SOL    HW286205   7.082   2.758   0.740
61456SOL     OW86206   0.154   6.862   7.843
61456SOL    HW186207   0.075   6.912   7.865
61456SOL    HW286208   0.184   6.899   7.760
61457SOL     OW86209   3.582   8.272  13.159
61457SOL    HW186210   3.585   8.186  13.117
61457SOL    HW286211   3.584   8.253  13.252
61458SOL     OW86212   1.123   8.813   5.209
61458SOL    HW186213   1.161   8.749   5.270
61458SOL    HW286214   1.180   8.889   5.217
61459SOL     OW86215   7.587   9.601   0.815
61459SOL    HW186216   7.523   9.670   0.835
61459SOL    HW286217   7.593   9.549   0.895
61460SOL     OW86218  13.127   8.096   0.060
61460SOL    HW186219  13.190   8.166   0.076
61460SOL    HW286220  13.079   8.087   0.143
61461SOL     OW86221  14.680  12.352   3.399
61461SOL    HW186222  14.767  12.390   3.404
61461SOL    HW286223  14.623  12.425   3.375
61462SOL     OW86224   9.469   4.963  14.253
61462SOL    HW186225   9.544   5.023  14.255
61462SOL    HW286226   9.507   4.877  14.235
61463SOL     OW86227   4.546  14.495   5.456
61463SOL    HW186228   4.594  14.459   5.531
61463SOL    HW286229   4.471  14.540   5.495
61464SOL     OW86230   3.577   6.793   6.670
61464SOL    HW186231   3.529   6.822   6.748
61464SOL    HW286232   3.556   6.859   6.604
61465SOL     OW86233  10.046  11.149   9.685
61465SOL    HW186234  10.075  11.132   9.774
61465SOL    HW286235  10.121  11.125   9.631
61466SOL     OW86236  12.740  11.267   6.603
61466SOL    HW186237  12.737  11.283   6.697
61466SOL    HW286238  12.764  11.175   6.595
61467SOL     OW86239   2.205   4.544   9.656
61467SOL    HW186240   2.217   4.576   9.567
61467SOL    HW286241   2.279   4.581   9.705
61468SOL     OW86242  14.202   5.066  14.389
61468SOL    HW186243  14.252   5.019  14.322
61468SOL    HW286244  14.236   5.033  14.472
61469SOL     OW86245  13.103   0.138   9.068
61469SOL    HW186246  13.111   0.153   8.974
61469SOL    HW286247  13.038   0.203   9.097
61470SOL     OW86248   6.325   0.165   8.580
61470SOL    HW186249   6.296   0.248   8.544
61470SOL    HW286250   6.245   0.120   8.606
61471SOL     OW86251   3.929   3.128   0.345
61471SOL    HW186252   3.892   3.204   0.301
61471SOL    HW286253   3.857   3.066   0.351
61472SOL     OW86254   6.540   9.033   7.485
61472SOL    HW186255   6.571   9.119   7.456
61472SOL    HW286256   6.448   9.048   7.509
61473SOL     OW86257  14.485  13.583   0.773
61473SOL    HW186258  14.530  13.631   0.842
61473SOL    HW286259  14.449  13.506   0.817
61474SOL     OW86260  12.865   0.753   8.260
61474SOL    HW186261  12.889   0.801   8.340
61474SOL    HW286262  12.846   0.822   8.196
61475SOL     OW86263   0.204  10.462  12.393
61475SOL    HW186264   0.211  10.453  12.298
61475SOL    HW286265   0.187  10.373  12.424
61476SOL     OW86266   7.675   9.020  11.197
61476SOL    HW186267   7.595   8.970  11.187
61476SOL    HW286268   7.649   9.096  11.249
61477SOL     OW86269   3.526   9.539  11.509
61477SOL    HW186270   3.469   9.575  11.441
61477SOL    HW286271   3.491   9.452  11.526
61478SOL     OW86272   6.564   1.428   0.871
61478SOL    HW186273   6.616   1.361   0.915
61478SOL    HW286274   6.475   1.394   0.871
61479SOL     OW86275   0.542   9.684   6.435
61479SOL    HW186276   0.612   9.713   6.376
61479SOL    HW286277   0.501   9.765   6.464
61480SOL     OW86278  12.491   2.571  10.553
61480SOL    HW186279  12.496   2.567  10.458
61480SOL    HW286280  12.582   2.561  10.582
61481SOL     OW86281  10.761   9.124  12.850
61481SOL    HW186282  10.778   9.154  12.939
61481SOL    HW286283  10.668   9.100  12.850
61482SOL     OW86284  11.075   3.479   3.779
61482SOL    HW186285  11.087   3.535   3.855
61482SOL    HW286286  11.033   3.536   3.714
61483SOL     OW86287   6.015   9.030  11.260
61483SOL    HW186288   6.046   9.051  11.172
61483SOL    HW286289   5.924   9.061  11.262
61484SOL     OW86290  10.867   1.682   6.038
61484SOL    HW186291  10.818   1.621   5.982
61484SOL    HW286292  10.835   1.768   6.013
61485SOL     OW86293   0.263  12.844   2.722
61485SOL    HW186294   0.239  12.770   2.777
61485SOL    HW286295   0.306  12.905   2.782
61486SOL     OW86296   6.758   5.870  11.165
61486SOL    HW186297   6.738   5.811  11.237
61486SOL    HW286298   6.835   5.919  11.195
61487SOL     OW86299   0.614   9.379   4.706
61487SOL    HW186300   0.585   9.290   4.724
61487SOL    HW286301   0.640   9.377   4.614
61488SOL     OW86302  10.546   8.576   0.628
61488SOL    HW186303  10.506   8.620   0.703
61488SOL    HW286304  10.568   8.648   0.568
61489SOL     OW86305   8.725   1.217  14.785
61489SOL    HW186306   8.801   1.265  14.816
61489SOL    HW286307   8.710   1.149  14.851
61490SOL     OW86308   5.403  13.685   5.741
61490SOL    HW186309   5.415  13.590   5.743
61490SOL    HW286310   5.314  13.698   5.774
61491SOL     OW86311   0.823   3.101  11.712
61491SOL    HW186312   0.905   3.137  11.747
61491SOL    HW286313   0.824   3.125  11.620
61492SOL     OW86314   1.312   4.262   8.241
61492SOL    HW186315   1.396   4.221   8.262
61492SOL    HW286316   1.323   4.294   8.151
61493SOL     OW86317  12.068   1.253   5.066
61493SOL    HW186318  12.113   1.270   5.149
61493SOL    HW286319  12.047   1.160   5.070
61494SOL     OW86320   6.959   8.121   5.831
61494SOL    HW186321   6.944   8.190   5.895
61494SOL    HW286322   7.009   8.054   5.879
61495SOL     OW86323  10.325  10.537   8.456
61495SOL    HW186324  10.319  10.632   8.466
61495SOL    HW286325  10.249  10.515   8.402
61496SOL     OW86326   9.048   8.499   4.563
61496SOL    HW186327   8.981   8.466   4.623
61496SOL    HW286328   9.035   8.449   4.483
61497SOL     OW86329   7.396   7.482  13.989
61497SOL    HW186330   7.301   7.472  13.975
61497SOL    HW286331   7.435   7.415  13.933
61498SOL     OW86332   7.632  12.760   2.421
61498SOL    HW186333   7.704  12.783   2.479
61498SOL    HW286334   7.671  12.756   2.334
61499SOL     OW86335   9.424  12.678  13.141
61499SOL    HW186336   9.447  12.610  13.203
61499SOL    HW286337   9.329  12.674  13.134
61500SOL     OW86338   1.142   3.031  10.474
61500SOL    HW186339   1.078   3.002  10.408
61500SOL    HW286340   1.094   3.029  10.557
61501SOL     OW86341   8.801   9.783   1.840
61501SOL    HW186342   8.787   9.806   1.748
61501SOL    HW286343   8.893   9.757   1.844
61502SOL     OW86344   2.315   0.069  13.031
61502SOL    HW186345   2.315   0.076  13.126
61502SOL    HW286346   2.248   0.131  13.002
61503SOL     OW86347   3.610  13.857  12.250
61503SOL    HW186348   3.594  13.776  12.298
61503SOL    HW286349   3.523  13.891  12.230
61504SOL     OW86350  12.678   3.587   5.578
61504SOL    HW186351  12.720   3.671   5.559
61504SOL    HW286352  12.653   3.553   5.492
61505SOL     OW86353   1.490  10.111  10.254
61505SOL    HW186354   1.531  10.166  10.321
61505SOL    HW286355   1.406  10.084  10.292
61506SOL     OW86356   5.486   0.811  10.921
61506SOL    HW186357   5.527   0.857  10.847
61506SOL    HW286358   5.499   0.868  10.996
61507SOL     OW86359   6.191   5.550   4.878
61507SOL    HW186360   6.254   5.485   4.909
61507SOL    HW286361   6.241   5.603   4.816
61508SOL     OW86362  10.476   4.261  14.049
61508SOL    HW186363  10.549   4.274  13.989
61508SOL    HW286364  10.498   4.315  14.125
61509SOL     OW86365   3.805   2.332   2.680
61509SOL    HW186366   3.892   2.332   2.642
61509SOL    HW286367   3.747   2.309   2.607
61510SOL     OW86368   8.457  12.271   3.060
61510SOL    HW186369   8.410  12.204   3.011
61510SOL    HW286370   8.411  12.352   3.039
61511SOL     OW86371  14.464   6.577   8.339
61511SOL    HW186372  14.525   6.645   8.311
61511SOL    HW286373  14.507   6.536   8.414
61512SOL     OW86374   9.904   8.964   9.013
61512SOL    HW186375   9.903   9.016   9.094
61512SOL    HW286376   9.833   9.000   8.960
61513SOL     OW86377  11.815   9.600   0.110
61513SOL    HW186378  11.815   9.537   0.038
61513SOL    HW286379  11.743   9.659   0.089
61514SOL     OW86380   2.199   5.440   5.881
61514SOL    HW186381   2.284   5.440   5.924
61514SOL    HW286382   2.138   5.474   5.947
61515SOL     OW86383  11.882  10.544  12.393
61515SOL    HW186384  11.793  10.526  12.423
61515SOL    HW286385  11.890  10.639  12.397
61516SOL     OW86386   5.153   0.009  13.448
61516SOL    HW186387   5.207  14.809  13.453
61516SOL    HW286388   5.212   0.080  13.474
61517SOL     OW86389   3.426   9.295   9.534
61517SOL    HW186390   3.408   9.342   9.615
61517SOL    HW286391   3.488   9.226   9.559
61518SOL     OW86392   6.672   5.203  11.317
61518SOL    HW186393   6.617   5.257  11.374
61518SOL    HW286394   6.707   5.265  11.253
61519SOL     OW86395  10.038   5.660   9.717
61519SOL    HW186396  10.108   5.723   9.705
61519SOL    HW286397  10.042   5.605   9.639
61520SOL     OW86398  13.957   0.286  10.924
61520SOL    HW186399  13.907   0.220  10.875
61520SOL    HW286400  13.910   0.368  10.908
61521SOL     OW86401   4.308   6.046   3.918
61521SOL    HW186402   4.380   6.106   3.940
61521SOL    HW286403   4.315   6.035   3.823
61522SOL     OW86404   5.825  14.728   3.080
61522SOL    HW186405   5.786  14.803   3.035
61522SOL    HW286406   5.917  14.753   3.093
61523SOL     OW86407   8.736  12.719   5.932
61523SOL    HW186408   8.746  12.718   6.027
61523SOL    HW286409   8.655  12.767   5.917
61524SOL     OW86410   2.274  13.803   9.865
61524SOL    HW186411   2.240  13.732   9.811
61524SOL    HW286412   2.349  13.765   9.910
61525SOL     OW86413   7.669   9.669   7.618
61525SOL    HW186414   7.614   9.711   7.552
61525SOL    HW286415   7.702   9.590   7.575
61526SOL     OW86416   1.869   2.099   9.375
61526SOL    HW186417   1.938   2.081   9.438
61526SOL    HW286418   1.824   2.015   9.363
61527SOL     OW86419  12.902  12.990  14.230
61527SOL    HW186420  12.816  13.008  14.194
61527SOL    HW286421  12.957  12.970  14.154
61528SOL     OW86422   3.173   9.245   1.706
61528SOL    HW186423   3.253   9.296   1.721
61528SOL    HW286424   3.164   9.240   1.611
61529SOL     OW86425  11.519   0.771   5.691
61529SOL    HW186426  11.549   0.712   5.761
61529SOL    HW286427  11.599   0.795   5.645
61530SOL     OW86428   7.767   5.544   4.939
61530SOL    HW186429   7.786   5.529   4.846
61530SOL    HW286430   7.680   5.506   4.952
61531SOL     OW86431   8.252   9.319   7.735
61531SOL    HW186432   8.213   9.283   7.656
61531SOL    HW286433   8.327   9.370   7.703
61532SOL     OW86434   1.553   0.865  11.039
61532SOL    HW186435   1.606   0.863  11.119
61532SOL    HW286436   1.606   0.913  10.976
61533SOL     OW86437   0.399  10.736   5.535
61533SOL    HW186438   0.311  10.752   5.570
61533SOL    HW286439   0.416  10.810   5.476
61534SOL     OW86440  11.841  11.591   2.758
61534SOL    HW186441  11.876  11.624   2.841
61534SOL    HW286442  11.862  11.659   2.694
61535SOL     OW86443   9.785  11.292  10.013
61535SOL    HW186444   9.851  11.249   9.959
61535SOL    HW286445   9.708  11.234  10.006
61536SOL     OW86446   2.894   4.477   4.721
61536SOL    HW186447   2.978   4.519   4.741
61536SOL    HW286448   2.850   4.470   4.806
61537SOL     OW86449   7.002   9.817   9.582
61537SOL    HW186450   7.093   9.787   9.576
61537SOL    HW286451   6.950   9.741   9.559
61538SOL     OW86452   0.759  10.709   8.938
61538SOL    HW186453   0.711  10.768   8.881
61538SOL    HW286454   0.691  10.668   8.992
61539SOL     OW86455   1.104   3.753   1.171
61539SOL    HW186456   1.047   3.766   1.247
61539SOL    HW286457   1.160   3.831   1.170
61540SOL     OW86458  12.197  12.117   9.593
61540SOL    HW186459  12.139  12.097   9.521
61540SOL    HW286460  12.212  12.212   9.587
61541SOL     OW86461   0.112   5.495   3.007
61541SOL    HW186462   0.165   5.562   2.962
61541SOL    HW286463   0.095   5.532   3.094
61542SOL     OW86464   1.510   8.851  13.480
61542SOL    HW186465   1.476   8.896  13.403
61542SOL    HW286466   1.437   8.796  13.510
61543SOL     OW86467   6.898  10.951   5.605
61543SOL    HW186468   6.922  10.859   5.613
61543SOL    HW286469   6.981  10.998   5.611
61544SOL     OW86470   2.212  14.730   3.994
61544SOL    HW186471   2.157  14.781   4.053
61544SOL    HW286472   2.195  14.767   3.907
61545SOL     OW86473  13.799   3.053   8.826
61545SOL    HW186474  13.833   3.090   8.745
61545SOL    HW286475  13.868   2.995   8.857
61546SOL     OW86476   1.916  13.745  13.199
61546SOL    HW186477   1.836  13.796  13.188
61546SOL    HW286478   1.886  13.657  13.221
61547SOL     OW86479  13.494   7.648  14.152
61547SOL    HW186480  13.439   7.718  14.116
61547SOL    HW286481  13.444   7.568  14.136
61548SOL     OW86482   0.923   5.194   3.149
61548SOL    HW186483   0.914   5.166   3.058
61548SOL    HW286484   0.955   5.284   3.142
61549SOL     OW86485  11.302   5.694   8.122
61549SOL    HW186486  11.228   5.748   8.150
61549SOL    HW286487  11.263   5.608   8.104
61550SOL     OW86488   8.128   6.539   3.297
61550SOL    HW186489   8.108   6.616   3.351
61550SOL    HW286490   8.213   6.559   3.257
61551SOL     OW86491   1.394  13.417   2.050
61551SOL    HW186492   1.338  13.494   2.038
61551SOL    HW286493   1.451  13.440   2.124
61552SOL     OW86494   0.549   4.706   3.891
61552SOL    HW186495   0.511   4.787   3.927
61552SOL    HW286496   0.474   4.653   3.867
61553SOL     OW86497   6.744   8.612  11.084
61553SOL    HW186498   6.671   8.584  11.139
61553SOL    HW286499   6.731   8.565  11.001
61554SOL     OW86500   1.778  11.289  11.933
61554SOL    HW186501   1.690  11.293  11.970
61554SOL    HW286502   1.765  11.250  11.846
61555SOL     OW86503   8.543   5.705  11.689
61555SOL    HW186504   8.495   5.773  11.735
61555SOL    HW286505   8.613   5.680  11.750
61556SOL     OW86506   7.414  10.734  10.627
61556SOL    HW186507   7.472  10.804  10.597
61556SOL    HW286508   7.473  10.666  10.659
61557SOL     OW86509   6.273   1.982   8.773
61557SOL    HW186510   6.195   1.936   8.743
61557SOL    HW286511   6.304   1.930   8.848
61558SOL     OW86512  12.153   2.380   0.230
61558SOL    HW186513  12.089   2.376   0.159
61558SOL    HW286514  12.106   2.419   0.303
61559SOL     OW86515   6.918  10.930   1.711
61559SOL    HW186516   6.994  10.987   1.709
61559SOL    HW286517   6.872  10.947   1.629
61560SOL     OW86518   0.171   3.332   2.736
61560SOL    HW186519   0.256   3.343   2.692
61560SOL    HW286520   0.109   3.379   2.682
61561SOL     OW86521   4.679   1.577   1.659
61561SOL    HW186522   4.675   1.636   1.584
61561SOL    HW286523   4.673   1.489   1.620
61562SOL     OW86524   3.451   5.109   1.067
61562SOL    HW186525   3.363   5.137   1.094
61562SOL    HW286526   3.510   5.153   1.128
61563SOL     OW86527  11.461  13.426  11.626
61563SOL    HW186528  11.529  13.362  11.644
61563SOL    HW286529  11.413  13.435  11.709
61564SOL     OW86530  12.283  11.930  10.697
61564SOL    HW186531  12.280  11.938  10.792
61564SOL    HW286532  12.300  11.838  10.681
61565SOL     OW86533   3.325   4.137  13.690
61565SOL    HW186534   3.384   4.111  13.619
61565SOL    HW286535   3.240   4.150  13.647
61566SOL     OW86536   5.184   3.900   7.362
61566SOL    HW186537   5.151   3.943   7.441
61566SOL    HW286538   5.260   3.849   7.391
61567SOL     OW86539  13.732   7.205   6.957
61567SOL    HW186540  13.787   7.151   6.900
61567SOL    HW286541  13.701   7.144   7.025
61568SOL     OW86542  12.916  13.058   7.562
61568SOL    HW186543  12.824  13.070   7.539
61568SOL    HW286544  12.918  13.060   7.657
61569SOL     OW86545  10.743   6.328  14.611
61569SOL    HW186546  10.740   6.423  14.624
61569SOL    HW286547  10.802   6.316  14.537
61570SOL     OW86548   4.564  14.665   3.716
61570SOL    HW186549   4.530  14.690   3.630
61570SOL    HW286550   4.640  14.722   3.729
61571SOL     OW86551   2.973   0.540   1.503
61571SOL    HW186552   3.038   0.531   1.572
61571SOL    HW286553   3.015   0.502   1.426
61572SOL     OW86554  14.755   5.724   6.975
61572SOL    HW186555  14.706   5.737   6.894
61572SOL    HW286556  14.754   5.629   6.989
61573SOL     OW86557  14.346   9.943  10.409
61573SOL    HW186558  14.263   9.908  10.377
61573SOL    HW286559  14.344  10.036  10.384
61574SOL     OW86560  13.738  10.565   1.575
61574SOL    HW186561  13.735  10.482   1.528
61574SOL    HW286562  13.831  10.581   1.590
61575SOL     OW86563   9.866  10.076   4.468
61575SOL    HW186564   9.801  10.046   4.532
61575SOL    HW286565   9.822  10.065   4.384
61576SOL     OW86566  13.956  11.006  14.071
61576SOL    HW186567  13.946  11.085  14.019
61576SOL    HW286568  13.869  10.989  14.106
61577SOL     OW86569  10.543  14.360   2.851
61577SOL    HW186570  10.476  14.292   2.849
61577SOL    HW286571  10.601  14.338   2.778
61578SOL     OW86572  11.308   7.991   3.832
61578SOL    HW186573  11.229   7.973   3.781
61578SOL    HW286574  11.333   8.080   3.807
61579SOL     OW86575   6.334  12.498  14.003
61579SOL    HW186576   6.352  12.426  13.943
61579SOL    HW286577   6.241  12.489  14.025
61580SOL     OW86578   7.335  10.574   9.957
61580SOL    HW186579   7.429  10.570   9.978
61580SOL    HW286580   7.331  10.619   9.873
61581SOL     OW86581  11.710   7.530   8.396
61581SOL    HW186582  11.794   7.576   8.408
61581SOL    HW286583  11.722   7.480   8.315
61582SOL     OW86584  12.560   7.405   2.724
61582SOL    HW186585  12.626   7.371   2.785
61582SOL    HW286586  12.478   7.400   2.773
61583SOL     OW86587  12.677  14.418   9.567
61583SOL    HW186588  12.758  14.372   9.585
61583SOL    HW286589  12.659  14.467   9.647
61584SOL     OW86590   2.488  10.906   6.337
61584SOL    HW186591   2.459  10.976   6.396
61584SOL    HW286592   2.581  10.894   6.358
61585SOL     OW86593  10.040  11.047  11.215
61585SOL    HW186594  10.081  11.000  11.288
61585SOL    HW286595   9.996  11.121  11.256
61586SOL     OW86596   1.676   2.771  11.136
61586SOL    HW186597   1.636   2.685  11.119
61586SOL    HW286598   1.673   2.780  11.231
61587SOL     OW86599   7.629  11.253  12.638
61587SOL    HW186600   7.578  11.310  12.581
61587SOL    HW286601   7.720  11.282  12.626
61588SOL     OW86602   9.916   7.174  13.904
61588SOL    HW186603   9.921   7.267  13.923
61588SOL    HW286604   9.927   7.131  13.989
61589SOL     OW86605   1.458   8.500   9.309
61589SOL    HW186606   1.495   8.579   9.350
61589SOL    HW286607   1.517   8.429   9.336
61590SOL     OW86608   0.369   4.733  11.442
61590SOL    HW186609   0.338   4.752  11.353
61590SOL    HW286610   0.289   4.713  11.491
61591SOL     OW86611  10.893  12.842   0.728
61591SOL    HW186612  10.981  12.862   0.760
61591SOL    HW286613  10.882  12.899   0.651
61592SOL     OW86614  13.539   1.850   6.958
61592SOL    HW186615  13.484   1.843   6.881
61592SOL    HW286616  13.604   1.780   6.948
61593SOL     OW86617   6.090   4.713  13.836
61593SOL    HW186618   5.998   4.741  13.827
61593SOL    HW286619   6.140   4.794  13.832
61594SOL     OW86620   2.769   5.972  13.967
61594SOL    HW186621   2.806   5.998  13.882
61594SOL    HW286622   2.770   5.876  13.965
61595SOL     OW86623  11.073  12.557  14.782
61595SOL    HW186624  11.040  12.505  14.710
61595SOL    HW286625  11.136  12.500  14.827
61596SOL     OW86626  11.424   0.043   6.002
61596SOL    HW186627  11.406   0.122   6.053
61596SOL    HW286628  11.506   0.062   5.956
61597SOL     OW86629   7.244   4.899   3.583
61597SOL    HW186630   7.149   4.894   3.575
61597SOL    HW286631   7.277   4.842   3.513
61598SOL     OW86632   2.367   9.375   7.497
61598SOL    HW186633   2.384   9.362   7.590
61598SOL    HW286634   2.453   9.367   7.455
61599SOL     OW86635   8.672  13.222   3.153
61599SOL    HW186636   8.586  13.181   3.140
61599SOL    HW286637   8.689  13.267   3.070
61600SOL     OW86638   5.400  11.512   2.652
61600SOL    HW186639   5.386  11.487   2.743
61600SOL    HW286640   5.481  11.468   2.627
61601SOL     OW86641  12.182  13.432  14.142
61601SOL    HW186642  12.161  13.470  14.057
61601SOL    HW286643  12.277  13.444  14.150
61602SOL     OW86644  13.028   2.144   1.361
61602SOL    HW186645  13.080   2.083   1.413
61602SOL    HW286646  12.947   2.155   1.410
61603SOL     OW86647   7.312  14.512   1.657
61603SOL    HW186648   7.275  14.509   1.745
61603SOL    HW286649   7.238  14.495   1.599
61604SOL     OW86650   6.957  10.202   8.335
61604SOL    HW186651   6.862  10.214   8.341
61604SOL    HW286652   6.972  10.112   8.364
61605SOL     OW86653   1.180   3.640   3.048
61605SOL    HW186654   1.131   3.713   3.011
61605SOL    HW286655   1.232   3.606   2.974
61606SOL     OW86656   5.299   5.923   8.887
61606SOL    HW186657   5.230   5.988   8.903
61606SOL    HW286658   5.379   5.965   8.918
61607SOL     OW86659   8.019  12.413   0.274
61607SOL    HW186660   7.948  12.440   0.216
61607SOL    HW286661   8.012  12.317   0.277
61608SOL     OW86662   8.240   0.051   6.205
61608SOL    HW186663   8.334   0.047   6.189
61608SOL    HW286664   8.206  14.849   6.166
61609SOL     OW86665   7.918   6.538   9.139
61609SOL    HW186666   7.990   6.566   9.083
61609SOL    HW286667   7.924   6.595   9.216
61610SOL     OW86668  11.748   8.583  13.105
61610SOL    HW186669  11.695   8.627  13.171
61610SOL    HW286670  11.808   8.651  13.073
61611SOL     OW86671   0.761   8.861  14.328
61611SOL    HW186672   0.827   8.805  14.369
61611SOL    HW286673   0.677   8.825  14.357
61612SOL     OW86674   2.446   9.532   0.370
61612SOL    HW186675   2.530   9.561   0.334
61612SOL    HW286676   2.383   9.596   0.338
61613SOL     OW86677  13.503  14.690   7.770
61613SOL    HW186678  13.496  14.785   7.776
61613SOL    HW286679  13.597  14.672   7.774
61614SOL     OW86680   9.248   6.417  13.026
61614SOL    HW186681   9.154   6.420  13.039
61614SOL    HW286682   9.265   6.485  12.961
61615SOL     OW86683   6.857   7.938   9.904
61615SOL    HW186684   6.806   8.001   9.854
61615SOL    HW286685   6.881   7.985   9.984
61616SOL     OW86686  14.699  10.823   3.440
61616SOL    HW186687  14.702  10.812   3.536
61616SOL    HW286688  14.629  10.886   3.426
61617SOL     OW86689  13.128   9.055   1.920
61617SOL    HW186690  13.045   9.099   1.937
61617SOL    HW286691  13.194   9.125   1.928
61618SOL     OW86692  14.840  12.052  12.468
61618SOL    HW186693  14.752  12.025  12.493
61618SOL    HW286694   0.019  11.994  12.517
61619SOL     OW86695  14.745   4.112  10.151
61619SOL    HW186696  14.749   4.056  10.073
61619SOL    HW286697  14.757   4.051  10.224
61620SOL     OW86698   2.191   1.932  11.063
61620SOL    HW186699   2.156   1.956  11.149
61620SOL    HW286700   2.125   1.872  11.027
61621SOL     OW86701  14.539  13.059   5.697
61621SOL    HW186702  14.515  13.007   5.620
61621SOL    HW286703  14.621  13.020   5.728
61622SOL     OW86704   3.828   7.723   3.844
61622SOL    HW186705   3.847   7.740   3.752
61622SOL    HW286706   3.901   7.763   3.891
61623SOL     OW86707  10.660   5.374   7.851
61623SOL    HW186708  10.727   5.305   7.848
61623SOL    HW286709  10.594   5.346   7.788
61624SOL     OW86710   8.609   0.853  10.293
61624SOL    HW186711   8.626   0.834  10.385
61624SOL    HW286712   8.529   0.905  10.293
61625SOL     OW86713  14.089  14.675   6.578
61625SOL    HW186714  14.063  14.587   6.603
61625SOL    HW286715  14.017  14.708   6.524
61626SOL     OW86716  14.290   1.591  10.604
61626SOL    HW186717  14.325   1.593  10.693
61626SOL    HW286718  14.219   1.655  10.604
61627SOL     OW86719   2.492  13.561   6.780
61627SOL    HW186720   2.413  13.602   6.746
61627SOL    HW286721   2.496  13.476   6.736
61628SOL     OW86722   7.602   6.701   6.810
61628SOL    HW186723   7.694   6.676   6.809
61628SOL    HW286724   7.604   6.794   6.833
61629SOL     OW86725   1.788  13.291  12.675
61629SOL    HW186726   1.786  13.198  12.696
61629SOL    HW286727   1.710  13.306  12.621
61630SOL     OW86728   2.304   3.275   2.737
61630SOL    HW186729   2.213   3.290   2.763
61630SOL    HW286730   2.349   3.252   2.818
61631SOL     OW86731   8.546   4.963   2.792
61631SOL    HW186732   8.628   5.009   2.810
61631SOL    HW286733   8.572   4.872   2.779
61632SOL     OW86734   9.158  12.787  13.064
61632SOL    HW186735   9.117  12.862  13.108
61632SOL    HW286736   9.128  12.711  13.113
61633SOL     OW86737   3.505  12.333   9.169
61633SOL    HW186738   3.537  12.244   9.154
61633SOL    HW286739   3.577  12.389   9.140
61634SOL     OW86740   4.569  14.459  14.558
61634SOL    HW186741   4.498  14.395  14.559
61634SOL    HW286742   4.530  14.538  14.520
61635SOL     OW86743  13.058   6.489   7.984
61635SOL    HW186744  13.057   6.397   7.957
61635SOL    HW286745  13.004   6.533   7.919
61636SOL     OW86746   0.578  13.761  13.966
61636SOL    HW186747   0.632  13.824  13.918
61636SOL    HW286748   0.555  13.806  14.047
61637SOL     OW86749   0.251   4.758   8.602
61637SOL    HW186750   0.198   4.679   8.602
61637SOL    HW286751   0.269   4.776   8.694
61638SOL     OW86752   2.493   0.305   1.789
61638SOL    HW186753   2.433   0.324   1.717
61638SOL    HW286754   2.451   0.344   1.866
61639SOL     OW86755   3.801   1.298   4.333
61639SOL    HW186756   3.813   1.317   4.426
61639SOL    HW286757   3.848   1.215   4.320
61640SOL     OW86758   5.042   7.089   4.627
61640SOL    HW186759   5.027   7.145   4.551
61640SOL    HW286760   5.060   7.002   4.590
61641SOL     OW86761   8.289  11.828   4.489
61641SOL    HW186762   8.275  11.842   4.583
61641SOL    HW286763   8.211  11.780   4.460
61642SOL     OW86764   1.913   6.311   5.273
61642SOL    HW186765   1.887   6.223   5.249
61642SOL    HW286766   1.924   6.308   5.368
61643SOL     OW86767   2.295   6.422  12.468
61643SOL    HW186768   2.297   6.487  12.397
61643SOL    HW286769   2.327   6.469  12.545
61644SOL     OW86770   0.760  13.111  10.929
61644SOL    HW186771   0.675  13.081  10.960
61644SOL    HW286772   0.740  13.178  10.864
61645SOL     OW86773  10.239   8.739   9.329
61645SOL    HW186774  10.299   8.743   9.255
61645SOL    HW286775  10.152   8.745   9.289
61646SOL     OW86776   5.485   6.991   3.929
61646SOL    HW186777   5.493   7.077   3.888
61646SOL    HW286778   5.419   7.002   3.997
61647SOL     OW86779   2.037  11.552   2.577
61647SOL    HW186780   2.097  11.560   2.651
61647SOL    HW286781   2.093  11.557   2.499
61648SOL     OW86782   5.096   1.854   3.415
61648SOL    HW186783   5.149   1.790   3.462
61648SOL    HW286784   5.117   1.839   3.323
61649SOL     OW86785   8.884   8.226   2.497
61649SOL    HW186786   8.830   8.149   2.518
61649SOL    HW286787   8.838   8.299   2.539
61650SOL     OW86788   7.174   6.711   4.317
61650SOL    HW186789   7.108   6.647   4.290
61650SOL    HW286790   7.228   6.724   4.239
61651SOL     OW86791  10.299  10.057   3.986
61651SOL    HW186792  10.373   9.997   3.996
61651SOL    HW286793  10.319  10.129   4.047
61652SOL     OW86794   0.191  13.329  11.026
61652SOL    HW186795   0.221  13.395  10.964
61652SOL    HW286796   0.196  13.247  10.978
61653SOL     OW86797   3.626   6.662  10.388
61653SOL    HW186798   3.678   6.742  10.400
61653SOL    HW286799   3.544   6.692  10.350
61654SOL     OW86800   9.742   9.738   9.735
61654SOL    HW186801   9.780   9.687   9.806
61654SOL    HW286802   9.817   9.759   9.678
61655SOL     OW86803  14.306   4.768   6.661
61655SOL    HW186804  14.329   4.851   6.620
61655SOL    HW286805  14.301   4.706   6.588
61656SOL     OW86806   5.183  13.372   4.565
61656SOL    HW186807   5.186  13.350   4.471
61656SOL    HW286808   5.169  13.466   4.567
61657SOL     OW86809   8.743  10.533  10.012
61657SOL    HW186810   8.815  10.588   9.981
61657SOL    HW286811   8.773  10.443   9.996
61658SOL     OW86812  11.330   4.074  12.378
61658SOL    HW186813  11.242   4.063  12.413
61658SOL    HW286814  11.388   4.048  12.450
61659SOL     OW86815   2.882  13.503  12.289
61659SOL    HW186816   2.973  13.530  12.273
61659SOL    HW286817   2.872  13.421  12.240
61660SOL     OW86818  11.011   9.715  14.755
61660SOL    HW186819  11.064   9.780  14.709
61660SOL    HW286820  11.017   9.739  14.847
61661SOL     OW86821   2.838   3.517   1.501
61661SOL    HW186822   2.914   3.560   1.461
61661SOL    HW286823   2.874   3.437   1.541
61662SOL     OW86824   0.347   8.571  12.176
61662SOL    HW186825   0.264   8.548  12.218
61662SOL    HW286826   0.399   8.490  12.181
61663SOL     OW86827  11.401   9.872   5.562
61663SOL    HW186828  11.443   9.906   5.483
61663SOL    HW286829  11.354   9.948   5.598
61664SOL     OW86830   4.230   0.784   2.299
61664SOL    HW186831   4.136   0.804   2.304
61664SOL    HW286832   4.235   0.689   2.302
61665SOL     OW86833   6.690   3.646   0.656
61665SOL    HW186834   6.637   3.693   0.720
61665SOL    HW286835   6.732   3.576   0.706
61666SOL     OW86836   9.162  10.660   8.128
61666SOL    HW186837   9.162  10.565   8.116
61666SOL    HW286838   9.252  10.686   8.111
61667SOL     OW86839  13.802   9.725   4.964
61667SOL    HW186840  13.891   9.692   4.955
61667SOL    HW286841  13.812   9.813   5.000
61668SOL     OW86842   6.569  11.290   4.657
61668SOL    HW186843   6.503  11.286   4.726
61668SOL    HW286844   6.574  11.201   4.623
61669SOL     OW86845   8.029   4.318   4.372
61669SOL    HW186846   7.983   4.402   4.362
61669SOL    HW286847   8.049   4.313   4.466
61670SOL     OW86848  11.151   7.258   8.366
61670SOL    HW186849  11.065   7.231   8.397
61670SOL    HW286850  11.172   7.198   8.295
61671SOL     OW86851   0.685   6.702   3.590
61671SOL    HW186852   0.649   6.618   3.560
61671SOL    HW286853   0.666   6.763   3.519
61672SOL     OW86854  12.608   6.922   0.997
61672SOL    HW186855  12.608   6.922   1.093
61672SOL    HW286856  12.648   6.839   0.973
61673SOL     OW86857  11.413   6.447   2.792
61673SOL    HW186858  11.464   6.367   2.779
61673SOL    HW286859  11.478   6.512   2.818
61674SOL     OW86860   3.118   9.466   6.301
61674SOL    HW186861   3.082   9.457   6.213
61674SOL    HW286862   3.126   9.560   6.314
61675SOL     OW86863   5.926   5.695   7.962
61675SOL    HW186864   5.841   5.737   7.952
61675SOL    HW286865   5.938   5.643   7.882
61676SOL     OW86866  10.139   3.222   5.719
61676SOL    HW186867  10.159   3.186   5.633
61676SOL    HW286868  10.199   3.175   5.778
61677SOL     OW86869   7.664  14.092   2.299
61677SOL    HW186870   7.629  14.024   2.240
61677SOL    HW286871   7.757  14.096   2.277
61678SOL     OW86872   5.624   7.133   6.005
61678SOL    HW186873   5.712   7.165   6.026
61678SOL    HW286874   5.628   7.112   5.912
61679SOL     OW86875   1.223  10.624  12.056
61679SOL    HW186876   1.178  10.698  12.096
61679SOL    HW286877   1.256  10.659  11.973
61680SOL     OW86878  10.381  13.718  11.149
61680SOL    HW186879  10.375  13.812  11.137
61680SOL    HW286880  10.453  13.705  11.210
61681SOL     OW86881  13.691   1.906   0.638
61681SOL    HW186882  13.658   1.983   0.592
61681SOL    HW286883  13.651   1.911   0.725
61682SOL     OW86884  10.130  10.172  14.055
61682SOL    HW186885  10.171  10.106  14.111
61682SOL    HW286886  10.196  10.241  14.047
61683SOL     OW86887   6.855   3.646   8.049
61683SOL    HW186888   6.794   3.697   7.996
61683SOL    HW286889   6.911   3.602   7.985
61684SOL     OW86890   1.703  10.053  13.978
61684SOL    HW186891   1.656  10.091  14.052
61684SOL    HW286892   1.733  10.128  13.927
61685SOL     OW86893  14.595   7.434   2.455
61685SOL    HW186894  14.632   7.522   2.459
61685SOL    HW286895  14.578   7.410   2.546
61686SOL     OW86896   5.075   5.219   8.313
61686SOL    HW186897   5.155   5.272   8.320
61686SOL    HW286898   5.057   5.216   8.219
61687SOL     OW86899   2.582  10.263   6.911
61687SOL    HW186900   2.647  10.315   6.864
61687SOL    HW286901   2.600  10.278   7.004
61688SOL     OW86902   8.819   9.336  11.182
61688SOL    HW186903   8.905   9.359  11.147
61688SOL    HW286904   8.793   9.259  11.132
61689SOL     OW86905  13.443   0.780  10.540
61689SOL    HW186906  13.428   0.731  10.621
61689SOL    HW286907  13.362   0.771  10.491
61690SOL     OW86908  12.431   7.111   6.857
61690SOL    HW186909  12.481   7.030   6.863
61690SOL    HW286910  12.340   7.084   6.867
61691SOL     OW86911   1.210  14.149  12.555
61691SOL    HW186912   1.155  14.071  12.549
61691SOL    HW286913   1.294  14.123  12.517
61692SOL     OW86914  13.137   1.448   7.815
61692SOL    HW186915  13.161   1.483   7.729
61692SOL    HW286916  13.118   1.356   7.800
61693SOL     OW86917   2.014  14.702   7.464
61693SOL    HW186918   2.040  14.749   7.384
61693SOL    HW286919   1.937  14.749   7.495
61694SOL     OW86920   3.355  13.202   1.218
61694SOL    HW186921   3.315  13.195   1.305
61694SOL    HW286922   3.450  13.201   1.235
61695SOL     OW86923   7.819  13.884   5.505
61695SOL    HW186924   7.839  13.793   5.528
61695SOL    HW286925   7.755  13.911   5.571
61696SOL     OW86926   0.088   3.954  14.249
61696SOL    HW186927   0.010   3.938  14.196
61696SOL    HW286928   0.158   3.967  14.186
61697SOL     OW86929   9.813  10.939  11.434
61697SOL    HW186930   9.899  10.906  11.459
61697SOL    HW286931   9.832  11.021  11.388
61698SOL     OW86932   5.965   9.547  10.362
61698SOL    HW186933   5.923   9.592  10.436
61698SOL    HW286934   5.900   9.551  10.292
61699SOL     OW86935   6.165   1.441  10.784
61699SOL    HW186936   6.238   1.464  10.726
61699SOL    HW286937   6.185   1.485  10.866
61700SOL     OW86938   1.851   5.130  11.960
61700SOL    HW186939   1.820   5.216  11.929
61700SOL    HW286940   1.797   5.111  12.036
61701SOL     OW86941   8.226   4.224  10.383
61701SOL    HW186942   8.186   4.218  10.470
61701SOL    HW286943   8.166   4.177  10.325
61702SOL     OW86944   8.939   6.657   7.962
61702SOL    HW186945   8.848   6.629   7.950
61702SOL    HW286946   8.946   6.679   8.055
61703SOL     OW86947   5.685   0.670  14.082
61703SOL    HW186948   5.658   0.584  14.112
61703SOL    HW286949   5.769   0.686  14.125
61704SOL     OW86950   4.977   6.108  13.025
61704SOL    HW186951   4.970   6.023  13.068
61704SOL    HW286952   4.964   6.089  12.932
61705SOL     OW86953   1.329   1.165   4.392
61705SOL    HW186954   1.407   1.120   4.361
61705SOL    HW286955   1.362   1.246   4.431
61706SOL     OW86956   5.098  11.050  12.811
61706SOL    HW186957   5.085  10.973  12.867
61706SOL    HW286958   5.092  11.016  12.722
61707SOL     OW86959   9.903  10.211  14.727
61707SOL    HW186960   9.952  10.259  14.794
61707SOL    HW286961   9.824  10.181  14.772
61708SOL     OW86962  11.659  14.059   3.551
61708SOL    HW186963  11.627  13.969   3.544
61708SOL    HW286964  11.641  14.084   3.642
61709SOL     OW86965   4.519   7.425  11.221
61709SOL    HW186966   4.597   7.404  11.272
61709SOL    HW286967   4.552   7.470  11.143
61710SOL     OW86968  11.043   1.412  12.091
61710SOL    HW186969  10.961   1.458  12.076
61710SOL    HW286970  11.035   1.378  12.180
61711SOL     OW86971  14.694   5.149  11.996
61711SOL    HW186972  14.711   5.168  11.904
61711SOL    HW286973  14.691   5.235  12.038
61712SOL     OW86974   1.616   3.050   4.189
61712SOL    HW186975   1.619   2.954   4.188
61712SOL    HW286976   1.706   3.077   4.206
61713SOL     OW86977  11.149  13.266   0.089
61713SOL    HW186978  11.163  13.201   0.158
61713SOL    HW286979  11.147  13.350   0.136
61714SOL     OW86980  13.536   9.420  10.837
61714SOL    HW186981  13.583   9.400  10.918
61714SOL    HW286982  13.467   9.481  10.863
61715SOL     OW86983  10.223  14.261   3.833
61715SOL    HW186984  10.294  14.198   3.849
61715SOL    HW286985  10.154  14.236   3.894
61716SOL     OW86986   3.005  10.387   8.267
61716SOL    HW186987   3.012  10.409   8.360
61716SOL    HW286988   2.917  10.351   8.257
61717SOL     OW86989   2.248   4.639  14.243
61717SOL    HW186990   2.284   4.551  14.233
61717SOL    HW286991   2.325   4.695  14.254
61718SOL     OW86992   0.083   7.628   8.647
61718SOL    HW186993   0.034   7.605   8.725
61718SOL    HW286994   0.027   7.602   8.574
61719SOL     OW86995  14.446   9.947   0.128
61719SOL    HW186996  14.434   9.943   0.223
61719SOL    HW286997  14.467  10.039   0.110
61720SOL     OW86998  12.151   8.791  10.506
61720SOL    HW186999  12.226   8.732  10.509
61720SOL    HW287000  12.108   8.779  10.591
61721SOL     OW87001   2.561   5.695   1.864
61721SOL    HW187002   2.555   5.673   1.771
61721SOL    HW287003   2.619   5.771   1.867
61722SOL     OW87004   8.079   0.916   8.119
61722SOL    HW187005   8.078   0.872   8.034
61722SOL    HW287006   8.056   1.007   8.100
61723SOL     OW87007  14.761  13.385  13.839
61723SOL    HW187008  14.721  13.314  13.789
61723SOL    HW287009  14.736  13.465  13.792
61724SOL     OW87010   5.093   9.138   5.690
61724SOL    HW187011   5.011   9.156   5.735
61724SOL    HW287012   5.102   9.042   5.692
61725SOL     OW87013   3.517  13.656   1.460
61725SOL    HW187014   3.511  13.588   1.394
61725SOL    HW287015   3.568  13.725   1.419
61726SOL     OW87016   6.478   3.844   8.814
61726SOL    HW187017   6.425   3.863   8.737
61726SOL    HW287018   6.434   3.770   8.856
61727SOL     OW87019  12.974  13.161   0.286
61727SOL    HW187020  12.991  13.192   0.196
61727SOL    HW287021  13.047  13.101   0.304
61728SOL     OW87022   0.467  11.748  11.781
61728SOL    HW187023   0.418  11.698  11.714
61728SOL    HW287024   0.537  11.791  11.732
61729SOL     OW87025   2.200   1.785  13.720
61729SOL    HW187026   2.226   1.862  13.770
61729SOL    HW287027   2.216   1.711  13.778
61730SOL     OW87028   4.046   1.456  12.771
61730SOL    HW187029   4.126   1.403  12.766
61730SOL    HW287030   4.036   1.474  12.865
61731SOL     OW87031   7.957   2.777   2.467
61731SOL    HW187032   7.863   2.761   2.467
61731SOL    HW287033   7.994   2.704   2.416
61732SOL     OW87034   5.506   1.263   1.825
61732SOL    HW187035   5.530   1.347   1.787
61732SOL    HW287036   5.581   1.206   1.808
61733SOL     OW87037   8.110   7.239   0.744
61733SOL    HW187038   8.023   7.204   0.725
61733SOL    HW287039   8.156   7.168   0.789
61734SOL     OW87040   0.677   4.341  13.042
61734SOL    HW187041   0.724   4.261  13.069
61734SOL    HW287042   0.731   4.377  12.971
61735SOL     OW87043   9.109  14.739   3.022
61735SOL    HW187044   9.156  14.817   3.052
61735SOL    HW287045   9.132  14.671   3.085
61736SOL     OW87046  13.767   4.952   4.331
61736SOL    HW187047  13.810   4.869   4.310
61736SOL    HW287048  13.754   4.949   4.426
61737SOL     OW87049   3.717   7.708  12.584
61737SOL    HW187050   3.799   7.723  12.631
61737SOL    HW287051   3.734   7.629  12.532
61738SOL     OW87052  12.589   3.578   4.264
61738SOL    HW187053  12.565   3.669   4.247
61738SOL    HW287054  12.685   3.579   4.264
61739SOL     OW87055   5.023   9.052  12.505
61739SOL    HW187056   5.003   8.988  12.437
61739SOL    HW287057   4.947   9.049  12.563
61740SOL     OW87058  10.511   2.610   0.026
61740SOL    HW187059  10.419   2.594   0.003
61740SOL    HW287060  10.514   2.701   0.053
61741SOL     OW87061  11.425   7.474   5.570
61741SOL    HW187062  11.403   7.567   5.574
61741SOL    HW287063  11.368   7.440   5.501
61742SOL     OW87064   1.573   2.610   7.617
61742SOL    HW187065   1.528   2.685   7.579
61742SOL    HW287066   1.529   2.595   7.700
61743SOL     OW87067  14.284   9.312   2.460
61743SOL    HW187068  14.191   9.290   2.460
61743SOL    HW287069  14.304   9.330   2.552
61744SOL     OW87070  13.535  14.619   8.595
61744SOL    HW187071  13.540  14.576   8.681
61744SOL    HW287072  13.446  14.654   8.592
61745SOL     OW87073   8.946  14.548   5.083
61745SOL    HW187074   8.928  14.641   5.071
61745SOL    HW287075   8.961  14.515   4.995
61746SOL     OW87076  13.715  11.568   4.795
61746SOL    HW187077  13.682  11.556   4.706
61746SOL    HW287078  13.673  11.648   4.825
61747SOL     OW87079   9.525   7.765  11.859
61747SOL    HW187080   9.432   7.771  11.837
61747SOL    HW287081   9.528   7.767  11.954
61748SOL     OW87082   8.432  13.580   1.585
61748SOL    HW187083   8.434  13.511   1.518
61748SOL    HW287084   8.524  13.592   1.609
61749SOL     OW87085   1.892  14.188   9.971
61749SOL    HW187086   1.919  14.255   9.909
61749SOL    HW287087   1.825  14.137   9.925
61750SOL     OW87088  10.297   5.941   5.244
61750SOL    HW187089  10.309   5.944   5.149
61750SOL    HW287090  10.287   5.848   5.264
61751SOL     OW87091   8.010   1.108   5.810
61751SOL    HW187092   7.978   1.197   5.798
61751SOL    HW287093   8.022   1.099   5.905
61752SOL     OW87094   8.153   9.368  10.202
61752SOL    HW187095   8.245   9.356  10.177
61752SOL    HW287096   8.107   9.300  10.152
61753SOL     OW87097   5.461  10.468   7.719
61753SOL    HW187098   5.477  10.376   7.697
61753SOL    HW287099   5.472  10.515   7.636
61754SOL     OW87100  14.223   2.540  13.343
61754SOL    HW187101  14.251   2.621  13.299
61754SOL    HW287102  14.185   2.570  13.426
61755SOL     OW87103  11.149   5.040  11.567
61755SOL    HW187104  11.163   4.945  11.563
61755SOL    HW287105  11.238   5.076  11.574
61756SOL     OW87106  14.679   7.374   1.584
61756SOL    HW187107  14.734   7.417   1.650
61756SOL    HW287108  14.719   7.288   1.572
61757SOL     OW87109   0.576  14.583  14.126
61757SOL    HW187110   0.553  14.665  14.170
61757SOL    HW287111   0.518  14.579  14.050
61758SOL     OW87112  11.093   3.613   2.689
61758SOL    HW187113  11.116   3.531   2.645
61758SOL    HW287114  11.058   3.585   2.774
61759SOL     OW87115  12.753   6.805   3.752
61759SOL    HW187116  12.673   6.841   3.791
61759SOL    HW287117  12.813   6.794   3.825
61760SOL     OW87118  11.648  10.870   8.276
61760SOL    HW187119  11.601  10.945   8.311
61760SOL    HW287120  11.597  10.843   8.199
61761SOL     OW87121   7.142  10.205   9.211
61761SOL    HW187122   7.074  10.141   9.230
61761SOL    HW287123   7.149  10.206   9.116
61762SOL     OW87124   4.312   8.817   1.725
61762SOL    HW187125   4.329   8.885   1.661
61762SOL    HW287126   4.395   8.769   1.732
61763SOL     OW87127   5.902   7.132   5.393
61763SOL    HW187128   5.842   7.203   5.411
61763SOL    HW287129   5.852   7.071   5.338
61764SOL     OW87130   1.931   6.917  12.008
61764SOL    HW187131   1.979   6.874  11.937
61764SOL    HW287132   1.882   6.987  11.966
61765SOL     OW87133  10.378   8.899   7.999
61765SOL    HW187134  10.436   8.971   7.973
61765SOL    HW287135  10.290   8.931   7.981
61766SOL     OW87136  10.301  11.545  13.722
61766SOL    HW187137  10.377  11.497  13.688
61766SOL    HW287138  10.244  11.557  13.646
61767SOL     OW87139  10.413  10.678  10.454
61767SOL    HW187140  10.394  10.764  10.419
61767SOL    HW287141  10.345  10.663  10.520
61768SOL     OW87142   3.932  12.107  14.588
61768SOL    HW187143   3.946  12.043  14.657
61768SOL    HW287144   3.947  12.192  14.630
61769SOL     OW87145   3.176   7.378   6.142
61769SOL    HW187146   3.142   7.312   6.082
61769SOL    HW287147   3.214   7.327   6.214
61770SOL     OW87148  10.193  12.327   3.689
61770SOL    HW187149  10.128  12.261   3.669
61770SOL    HW287150  10.145  12.395   3.737
61771SOL     OW87151   7.923   3.801   0.309
61771SOL    HW187152   7.970   3.717   0.315
61771SOL    HW287153   7.976   3.854   0.250
61772SOL     OW87154   6.137   5.018  13.240
61772SOL    HW187155   6.097   5.072  13.308
61772SOL    HW287156   6.212   4.976  13.284
61773SOL     OW87157   3.260  11.757  12.855
61773SOL    HW187158   3.334  11.737  12.912
61773SOL    HW287159   3.278  11.845  12.822
61774SOL     OW87160   8.955   5.693   0.037
61774SOL    HW187161   8.883   5.630   0.042
61774SOL    HW287162   9.032   5.644   0.065
61775SOL     OW87163   3.015   0.289   8.663
61775SOL    HW187164   3.067   0.349   8.716
61775SOL    HW287165   3.020   0.206   8.710
61776SOL     OW87166   5.393   8.723   8.886
61776SOL    HW187167   5.304   8.711   8.854
61776SOL    HW287168   5.386   8.709   8.981
61777SOL     OW87169   8.188   7.736   7.161
61777SOL    HW187170   8.235   7.742   7.245
61777SOL    HW287171   8.154   7.824   7.147
61778SOL     OW87172   4.548   8.903   7.523
61778SOL    HW187173   4.561   8.972   7.458
61778SOL    HW287174   4.453   8.898   7.535
61779SOL     OW87175  13.251   1.034  10.155
61779SOL    HW187176  13.257   0.993  10.069
61779SOL    HW287177  13.321   0.993  10.206
61780SOL     OW87178  13.922  14.140   2.375
61780SOL    HW187179  13.879  14.225   2.378
61780SOL    HW287180  13.936  14.116   2.466
61781SOL     OW87181   0.603  10.446   1.744
61781SOL    HW187182   0.520  10.410   1.773
61781SOL    HW287183   0.584  10.537   1.721
61782SOL     OW87184  11.935   3.027   9.995
61782SOL    HW187185  11.852   3.047  10.037
61782SOL    HW287186  11.980   3.111   9.987
61783SOL     OW87187   3.524   0.106   0.168
61783SOL    HW187188   3.521   0.137   0.077
61783SOL    HW287189   3.465   0.165   0.215
61784SOL     OW87190   2.692   9.552  12.150
61784SOL    HW187191   2.653   9.487  12.208
61784SOL    HW287192   2.620   9.580  12.094
61785SOL     OW87193  14.628   5.743   3.883
61785SOL    HW187194  14.654   5.834   3.869
61785SOL    HW287195  14.572   5.746   3.961
61786SOL     OW87196   5.696   1.021  12.109
61786SOL    HW187197   5.645   1.091  12.068
61786SOL    HW287198   5.759   1.067  12.164
61787SOL     OW87199   3.827  10.272   7.037
61787SOL    HW187200   3.897  10.228   6.989
61787SOL    HW287201   3.866  10.293   7.122
61788SOL     OW87202   7.705   9.817  10.521
61788SOL    HW187203   7.647   9.836  10.448
61788SOL    HW287204   7.790   9.852  10.495
61789SOL     OW87205   8.686  11.978  12.356
61789SOL    HW187206   8.704  11.884  12.357
61789SOL    HW287207   8.593  11.984  12.334
61790SOL     OW87208   1.164   4.527  11.027
61790SOL    HW187209   1.175   4.589  11.099
61790SOL    HW287210   1.219   4.563  10.956
61791SOL     OW87211   5.695   4.481  13.634
61791SOL    HW187212   5.632   4.410  13.619
61791SOL    HW287213   5.763   4.441  13.688
61792SOL     OW87214  10.852   3.772  13.617
61792SOL    HW187215  10.914   3.781  13.545
61792SOL    HW287216  10.784   3.714  13.583
61793SOL     OW87217   2.528   9.695  10.524
61793SOL    HW187218   2.481   9.722  10.603
61793SOL    HW287219   2.470   9.633  10.481
61794SOL     OW87220   3.161   8.717  10.668
61794SOL    HW187221   3.253   8.715  10.693
61794SOL    HW287222   3.158   8.774  10.591
61795SOL     OW87223   7.316   2.573   6.107
61795SOL    HW187224   7.226   2.605   6.103
61795SOL    HW287225   7.368   2.649   6.129
61796SOL     OW87226  12.707  10.621  12.552
61796SOL    HW187227  12.675  10.646  12.466
61796SOL    HW287228  12.788  10.670  12.563
61797SOL     OW87229  13.426  13.818  14.743
61797SOL    HW187230  13.508  13.833  14.696
61797SOL    HW287231  13.430  13.727  14.771
61798SOL     OW87232  11.170   3.967  14.320
61798SOL    HW187233  11.225   4.000  14.391
61798SOL    HW287234  11.187   4.027  14.247
61799SOL     OW87235  13.775  14.807   4.473
61799SOL    HW187236  13.782   0.001   4.534
61799SOL    HW287237  13.810  14.841   4.391
61800SOL     OW87238   7.372  12.308   9.499
61800SOL    HW187239   7.323  12.336   9.422
61800SOL    HW287240   7.351  12.215   9.508
61801SOL     OW87241   7.680   2.953  14.121
61801SOL    HW187242   7.678   2.870  14.168
61801SOL    HW287243   7.611   3.006  14.161
61802SOL     OW87244   3.165   0.744   7.587
61802SOL    HW187245   3.175   0.651   7.607
61802SOL    HW287246   3.202   0.789   7.663
61803SOL     OW87247   8.734   0.503   0.584
61803SOL    HW187248   8.649   0.524   0.545
61803SOL    HW287249   8.754   0.415   0.553
61804SOL     OW87250   0.317   9.474  11.887
61804SOL    HW187251   0.279   9.387  11.878
61804SOL    HW287252   0.324   9.506  11.797
61805SOL     OW87253   7.086   8.230   9.180
61805SOL    HW187254   7.036   8.175   9.120
61805SOL    HW287255   7.075   8.189   9.265
61806SOL     OW87256   6.212   6.792   3.587
61806SOL    HW187257   6.159   6.759   3.514
61806SOL    HW287258   6.302   6.790   3.555
61807SOL     OW87259   5.460   2.766  11.141
61807SOL    HW187260   5.493   2.796  11.226
61807SOL    HW287261   5.492   2.677  11.132
61808SOL     OW87262  13.814   7.092   8.792
61808SOL    HW187263  13.806   7.118   8.700
61808SOL    HW287264  13.890   7.034   8.794
61809SOL     OW87265   7.627   0.080  13.457
61809SOL    HW187266   7.694   0.015  13.480
61809SOL    HW287267   7.585   0.044  13.379
61810SOL     OW87268   2.282   1.244   6.415
61810SOL    HW187269   2.301   1.276   6.503
61810SOL    HW287270   2.187   1.254   6.406
61811SOL     OW87271   5.469   6.323   9.622
61811SOL    HW187272   5.469   6.328   9.526
61811SOL    HW287273   5.425   6.240   9.642
61812SOL     OW87274   8.968  13.186   0.905
61812SOL    HW187275   8.904  13.115   0.902
61812SOL    HW287276   8.982  13.209   0.813
61813SOL     OW87277   1.753   5.456   3.494
61813SOL    HW187278   1.733   5.504   3.414
61813SOL    HW287279   1.688   5.488   3.557
61814SOL     OW87280   2.558   6.656   5.325
61814SOL    HW187281   2.616   6.706   5.384
61814SOL    HW287282   2.474   6.653   5.371
61815SOL     OW87283   8.623   8.197  11.007
61815SOL    HW187284   8.584   8.187  10.920
61815SOL    HW287285   8.582   8.275  11.043
61816SOL     OW87286   9.035   2.861   6.150
61816SOL    HW187287   9.068   2.776   6.122
61816SOL    HW287288   9.113   2.913   6.170
61817SOL     OW87289   0.392  11.720   8.682
61817SOL    HW187290   0.309  11.745   8.721
61817SOL    HW287291   0.382  11.627   8.661
61818SOL     OW87292   8.093   9.939  13.122
61818SOL    HW187293   8.173   9.989  13.109
61818SOL    HW287294   8.048   9.984  13.194
61819SOL     OW87295   4.417   3.291  12.857
61819SOL    HW187296   4.405   3.301  12.762
61819SOL    HW287297   4.512   3.283  12.868
61820SOL     OW87298   9.396  11.629   5.341
61820SOL    HW187299   9.323  11.623   5.279
61820SOL    HW287300   9.374  11.704   5.396
61821SOL     OW87301   3.507   7.629   7.016
61821SOL    HW187302   3.581   7.648   7.073
61821SOL    HW287303   3.517   7.536   6.995
61822SOL     OW87304   5.882   3.017   4.143
61822SOL    HW187305   5.867   3.030   4.049
61822SOL    HW287306   5.968   2.974   4.147
61823SOL     OW87307   6.455   4.290  14.852
61823SOL    HW187308   6.372   4.259  14.814
61823SOL    HW287309   6.462   4.380  14.823
61824SOL     OW87310   9.358   5.082   0.766
61824SOL    HW187311   9.270   5.047   0.778
61824SOL    HW287312   9.381   5.059   0.676
61825SOL     OW87313   7.939  11.422   4.211
61825SOL    HW187314   7.950  11.340   4.163
61825SOL    HW287315   7.985  11.408   4.294
61826SOL     OW87316   5.049   7.351   8.595
61826SOL    HW187317   5.033   7.256   8.593
61826SOL    HW287318   5.049   7.377   8.503
61827SOL     OW87319   7.876   9.663  12.629
61827SOL    HW187320   7.854   9.586  12.680
61827SOL    HW287321   7.793   9.709  12.617
61828SOL     OW87322   4.874   4.689  10.457
61828SOL    HW187323   4.900   4.666  10.368
61828SOL    HW287324   4.900   4.781  10.466
61829SOL     OW87325   8.033   5.950   1.459
61829SOL    HW187326   7.967   5.892   1.420
61829SOL    HW287327   8.105   5.951   1.396
61830SOL     OW87328   6.561  13.407   2.396
61830SOL    HW187329   6.524  13.331   2.350
61830SOL    HW287330   6.487  13.468   2.403
61831SOL     OW87331  12.598   2.170  12.827
61831SOL    HW187332  12.674   2.188  12.883
61831SOL    HW287333  12.525   2.211  12.873
61832SOL     OW87334   7.533   9.680   2.068
61832SOL    HW187335   7.583   9.712   1.992
61832SOL    HW287336   7.441   9.692   2.043
61833SOL     OW87337  14.295   1.874   8.317
61833SOL    HW187338  14.258   1.831   8.240
61833SOL    HW287339  14.315   1.963   8.287
61834SOL     OW87340   5.995   6.815   6.079
61834SOL    HW187341   6.081   6.827   6.119
61834SOL    HW287342   5.996   6.726   6.045
61835SOL     OW87343   0.766   3.513   4.709
61835SOL    HW187344   0.731   3.518   4.619
61835SOL    HW287345   0.747   3.599   4.747
61836SOL     OW87346  12.065   2.529   4.916
61836SOL    HW187347  11.989   2.556   4.968
61836SOL    HW287348  12.037   2.541   4.825
61837SOL     OW87349  11.751   8.060   4.902
61837SOL    HW187350  11.816   8.043   4.834
61837SOL    HW287351  11.673   8.086   4.854
61838SOL     OW87352   3.866  13.424   4.116
61838SOL    HW187353   3.818  13.365   4.175
61838SOL    HW287354   3.806  13.438   4.043
61839SOL     OW87355   1.236  13.394  13.699
61839SOL    HW187356   1.251  13.430  13.612
61839SOL    HW287357   1.210  13.469  13.752
61840SOL     OW87358  10.647   8.747   6.005
61840SOL    HW187359  10.613   8.823   5.959
61840SOL    HW287360  10.650   8.678   5.938
61841SOL     OW87361   5.331   3.175   4.470
61841SOL    HW187362   5.323   3.200   4.378
61841SOL    HW287363   5.254   3.121   4.487
61842SOL     OW87364   0.341   9.182   5.468
61842SOL    HW187365   0.268   9.155   5.412
61842SOL    HW287366   0.395   9.103   5.476
61843SOL     OW87367  13.759  11.411  11.475
61843SOL    HW187368  13.679  11.367  11.449
61843SOL    HW287369  13.821  11.393  11.404
61844SOL     OW87370   8.418   0.158   0.433
61844SOL    HW187371   8.400   0.068   0.407
61844SOL    HW287372   8.512   0.160   0.450
61845SOL     OW87373   7.779   3.055  14.734
61845SOL    HW187374   7.855   3.082  14.786
61845SOL    HW287375   7.772   2.960  14.749
61846SOL     OW87376   0.246  11.549   0.519
61846SOL    HW187377   0.338  11.568   0.537
61846SOL    HW287378   0.208  11.634   0.495
61847SOL     OW87379   6.803   6.869  13.592
61847SOL    HW187380   6.733   6.904  13.648
61847SOL    HW287381   6.878   6.926  13.611
61848SOL     OW87382  14.529   6.499  14.148
61848SOL    HW187383  14.502   6.589  14.161
61848SOL    HW287384  14.619   6.495  14.182
61849SOL     OW87385   4.591   3.655  12.189
61849SOL    HW187386   4.588   3.624  12.280
61849SOL    HW287387   4.652   3.728  12.190
61850SOL     OW87388   9.861   2.257  12.830
61850SOL    HW187389   9.843   2.342  12.869
61850SOL    HW287390   9.954   2.242  12.847
61851SOL     OW87391   0.278  11.556   4.911
61851SOL    HW187392   0.320  11.491   4.854
61851SOL    HW287393   0.275  11.636   4.858
61852SOL     OW87394   5.966   9.346   0.681
61852SOL    HW187395   6.033   9.404   0.645
61852SOL    HW287396   5.897   9.344   0.615
61853SOL     OW87397  10.108  13.053  14.703
61853SOL    HW187398  10.059  13.005  14.637
61853SOL    HW287399  10.189  13.080  14.659
61854SOL     OW87400   7.415  12.172  11.381
61854SOL    HW187401   7.401  12.086  11.342
61854SOL    HW287402   7.460  12.222  11.313
61855SOL     OW87403  11.652   3.377   0.947
61855SOL    HW187404  11.732   3.384   0.894
61855SOL    HW287405  11.660   3.293   0.992
61856SOL     OW87406  11.883  10.465   7.109
61856SOL    HW187407  11.833  10.452   7.028
61856SOL    HW287408  11.860  10.553   7.138
61857SOL     OW87409   8.243   7.206  10.993
61857SOL    HW187410   8.162   7.212  10.941
61857SOL    HW287411   8.225   7.138  11.058
61858SOL     OW87412  10.673  12.484  10.407
61858SOL    HW187413  10.598  12.474  10.349
61858SOL    HW287414  10.651  12.561  10.460
61859SOL     OW87415  10.494   6.818   0.744
61859SOL    HW187416  10.575   6.830   0.695
61859SOL    HW287417  10.510   6.741   0.799
61860SOL     OW87418   4.580  12.691   8.859
61860SOL    HW187419   4.513  12.667   8.923
61860SOL    HW287420   4.531  12.712   8.780
61861SOL     OW87421  13.881   6.523   7.399
61861SOL    HW187422  13.945   6.558   7.461
61861SOL    HW287423  13.902   6.430   7.392
61862SOL     OW87424   1.033  12.280   9.658
61862SOL    HW187425   0.968  12.212   9.640
61862SOL    HW287426   0.982  12.352   9.695
61863SOL     OW87427  12.736   8.642   3.553
61863SOL    HW187428  12.810   8.591   3.518
61863SOL    HW287429  12.668   8.634   3.486
61864SOL     OW87430   1.045   6.188   2.668
61864SOL    HW187431   1.062   6.165   2.760
61864SOL    HW287432   1.131   6.185   2.626
61865SOL     OW87433   4.721   9.969   2.703
61865SOL    HW187434   4.763  10.018   2.773
61865SOL    HW287435   4.633   9.950   2.736
61866SOL     OW87436   9.915  10.322   7.001
61866SOL    HW187437   9.977  10.273   7.056
61866SOL    HW287438   9.935  10.294   6.912
61867SOL     OW87439  14.464   0.739   6.843
61867SOL    HW187440  14.419   0.816   6.878
61867SOL    HW287441  14.506   0.699   6.919
61868SOL     OW87442  13.546   5.131   0.642
61868SOL    HW187443  13.629   5.138   0.595
61868SOL    HW287444  13.497   5.064   0.594
61869SOL     OW87445   7.799   6.414   1.744
61869SOL    HW187446   7.731   6.392   1.808
61869SOL    HW287447   7.879   6.418   1.796
61870SOL     OW87448   7.038   1.351   0.069
61870SOL    HW187449   7.074   1.329  14.863
61870SOL    HW287450   7.112   1.348   0.129
61871SOL     OW87451   4.593  11.950   9.911
61871SOL    HW187452   4.640  12.030   9.888
61871SOL    HW287453   4.512  11.956   9.861
61872SOL     OW87454  14.724   6.610   8.107
61872SOL    HW187455  14.813   6.625   8.077
61872SOL    HW287456  14.689   6.544   8.047
61873SOL     OW87457   3.763   3.218   2.108
61873SOL    HW187458   3.753   3.281   2.037
61873SOL    HW287459   3.785   3.271   2.185
61874SOL     OW87460  12.893   3.952   6.386
61874SOL    HW187461  12.922   3.956   6.477
61874SOL    HW287462  12.808   3.997   6.386
61875SOL     OW87463   4.870  11.811   5.714
61875SOL    HW187464   4.885  11.761   5.794
61875SOL    HW287465   4.778  11.793   5.692
61876SOL     OW87466   5.246  13.007   2.206
61876SOL    HW187467   5.162  12.972   2.177
61876SOL    HW287468   5.302  13.001   2.129
61877SOL     OW87469   4.834   7.780   0.642
61877SOL    HW187470   4.822   7.826   0.559
61877SOL    HW287471   4.888   7.839   0.695
61878SOL     OW87472   4.552   5.682  13.956
61878SOL    HW187473   4.545   5.700  13.863
61878SOL    HW287474   4.507   5.755  13.999
61879SOL     OW87475   8.263  10.039   9.420
61879SOL    HW187476   8.262  10.135   9.424
61879SOL    HW287477   8.347  10.018   9.378
61880SOL     OW87478   8.792   2.405   0.749
61880SOL    HW187479   8.811   2.430   0.659
61880SOL    HW287480   8.875   2.372   0.783
61881SOL     OW87481   0.483   6.709  14.364
61881SOL    HW187482   0.406   6.736  14.315
61881SOL    HW287483   0.550   6.774  14.342
61882SOL     OW87484   6.390   1.863   3.265
61882SOL    HW187485   6.481   1.839   3.286
61882SOL    HW287486   6.390   1.959   3.266
61883SOL     OW87487   6.231   3.197  14.027
61883SOL    HW187488   6.260   3.228  13.941
61883SOL    HW287489   6.312   3.181  14.075
61884SOL     OW87490  13.552  11.841   3.700
61884SOL    HW187491  13.637  11.797   3.702
61884SOL    HW287492  13.565  11.919   3.755
61885SOL     OW87493   4.513   4.573   6.075
61885SOL    HW187494   4.430   4.526   6.080
61885SOL    HW287495   4.519   4.620   6.158
61886SOL     OW87496  10.123   9.248  10.072
61886SOL    HW187497  10.177   9.312  10.027
61886SOL    HW287498  10.055   9.299  10.115
61887SOL     OW87499  11.815   9.693   8.243
61887SOL    HW187500  11.736   9.684   8.190
61887SOL    HW287501  11.884   9.717   8.180
61888SOL     OW87502   4.888   6.034   8.030
61888SOL    HW187503   4.878   5.941   8.052
61888SOL    HW287504   4.933   6.035   7.946
61889SOL     OW87505   3.804   2.623  14.810
61889SOL    HW187506   3.845   2.626  14.724
61889SOL    HW287507   3.862   2.569  14.863
61890SOL     OW87508   2.344   2.336  13.448
61890SOL    HW187509   2.349   2.371  13.537
61890SOL    HW287510   2.356   2.412  13.391
61891SOL     OW87511  13.500   9.205  12.272
61891SOL    HW187512  13.451   9.262  12.214
61891SOL    HW287513  13.447   9.126  12.279
61892SOL     OW87514   1.063   3.713  11.459
61892SOL    HW187515   1.064   3.801  11.495
61892SOL    HW287516   1.155   3.689  11.449
61893SOL     OW87517   8.939   6.149   1.535
61893SOL    HW187518   8.940   6.222   1.474
61893SOL    HW287519   9.027   6.149   1.574
61894SOL     OW87520   6.710  12.651   1.545
61894SOL    HW187521   6.800  12.682   1.541
61894SOL    HW287522   6.671  12.681   1.462
61895SOL     OW87523   8.861   8.584   3.013
61895SOL    HW187524   8.918   8.534   3.071
61895SOL    HW287525   8.845   8.666   3.060
61896SOL     OW87526   2.819  14.525   7.286
61896SOL    HW187527   2.816  14.594   7.220
61896SOL    HW287528   2.911  14.519   7.310
61897SOL     OW87529   0.565  12.837   4.699
61897SOL    HW187530   0.523  12.902   4.755
61897SOL    HW287531   0.655  12.868   4.688
61898SOL     OW87532  13.186  13.927  13.894
61898SOL    HW187533  13.158  13.880  13.815
61898SOL    HW287534  13.263  13.879  13.923
61899SOL     OW87535   8.023  10.450   2.318
61899SOL    HW187536   8.108  10.419   2.349
61899SOL    HW287537   7.983  10.490   2.396
61900SOL     OW87538  14.438  11.840  13.678
61900SOL    HW187539  14.487  11.777  13.626
61900SOL    HW287540  14.347  11.827  13.652
61901SOL     OW87541   0.597   0.000   6.745
61901SOL    HW187542   0.596   0.007   6.650
61901SOL    HW287543   0.676  14.830   6.765
61902SOL     OW87544   8.819  10.356  14.850
61902SOL    HW187545   8.889  10.411   0.006
61902SOL    HW287546   8.790  10.402  14.772
61903SOL     OW87547   4.972   9.193  14.141
61903SOL    HW187548   4.952   9.100  14.132
61903SOL    HW287549   4.930   9.234  14.065
61904SOL     OW87550   5.010   4.469  13.388
61904SOL    HW187551   5.038   4.480  13.479
61904SOL    HW287552   5.035   4.551  13.345
61905SOL     OW87553   9.482   2.304   2.928
61905SOL    HW187554   9.397   2.282   2.891
61905SOL    HW287555   9.546   2.266   2.867
61906SOL     OW87556  14.395   5.282  14.678
61906SOL    HW187557  14.475   5.269  14.730
61906SOL    HW287558  14.424   5.334  14.603
61907SOL     OW87559  13.171   2.045   1.562
61907SOL    HW187560  13.181   2.136   1.587
61907SOL    HW287561  13.244   2.000   1.606
61908SOL     OW87562   4.434  10.189   5.797
61908SOL    HW187563   4.392  10.254   5.853
61908SOL    HW287564   4.419  10.105   5.841
61909SOL     OW87565  12.273  12.563   3.400
61909SOL    HW187566  12.197  12.575   3.343
61909SOL    HW287567  12.317  12.486   3.365
61910SOL     OW87568   8.722   3.019  10.377
61910SOL    HW187569   8.753   2.979  10.458
61910SOL    HW287570   8.794   3.078  10.351
61911SOL     OW87571   5.283  12.301   3.813
61911SOL    HW187572   5.195  12.291   3.778
61911SOL    HW287573   5.296  12.223   3.867
61912SOL     OW87574   2.435   6.281   8.625
61912SOL    HW187575   2.388   6.215   8.574
61912SOL    HW287576   2.516   6.297   8.576
61913SOL     OW87577   4.866  13.706   5.415
61913SOL    HW187578   4.917  13.638   5.457
61913SOL    HW287579   4.875  13.782   5.472
61914SOL     OW87580  12.225   5.561   7.229
61914SOL    HW187581  12.153   5.552   7.292
61914SOL    HW287582  12.183   5.582   7.146
61915SOL     OW87583   5.612   5.644   0.153
61915SOL    HW187584   5.519   5.661   0.140
61915SOL    HW287585   5.623   5.645   0.248
61916SOL     OW87586   7.812   1.092  10.291
61916SOL    HW187587   7.842   1.035  10.220
61916SOL    HW287588   7.753   1.037  10.343
61917SOL     OW87589   7.178   9.913  10.604
61917SOL    HW187590   7.092   9.911  10.646
61917SOL    HW287591   7.192  10.005  10.583
61918SOL     OW87592  13.540   6.372   4.638
61918SOL    HW187593  13.608   6.306   4.630
61918SOL    HW287594  13.458   6.322   4.632
61919SOL     OW87595  13.611   6.626   7.768
61919SOL    HW187596  13.536   6.685   7.774
61919SOL    HW287597  13.635   6.627   7.675
61920SOL     OW87598   0.270   2.118  11.529
61920SOL    HW187599   0.230   2.046  11.578
61920SOL    HW287600   0.351   2.081  11.493
61921SOL     OW87601   3.549  10.584   3.897
61921SOL    HW187602   3.643  10.585   3.918
61921SOL    HW287603   3.539  10.655   3.833
61922SOL     OW87604   5.493   3.162   2.069
61922SOL    HW187605   5.530   3.202   1.991
61922SOL    HW287606   5.399   3.156   2.051
61923SOL     OW87607  13.683  14.437   3.062
61923SOL    HW187608  13.598  14.475   3.043
61923SOL    HW287609  13.745  14.509   3.051
61924SOL     OW87610  10.748   3.963   3.675
61924SOL    HW187611  10.814   4.031   3.662
61924SOL    HW287612  10.669   4.011   3.700
61925SOL     OW87613  10.354   3.031   6.559
61925SOL    HW187614  10.371   3.103   6.498
61925SOL    HW287615  10.262   3.010   6.545
61926SOL     OW87616  10.638   6.194  10.876
61926SOL    HW187617  10.573   6.182  10.945
61926SOL    HW287618  10.704   6.127  10.894
61927SOL     OW87619   2.546   1.968   9.293
61927SOL    HW187620   2.570   2.040   9.235
61927SOL    HW287621   2.607   1.897   9.271
61928SOL     OW87622   3.421   6.874   0.493
61928SOL    HW187623   3.413   6.861   0.587
61928SOL    HW287624   3.479   6.950   0.484
61929SOL     OW87625   6.088   3.648   6.978
61929SOL    HW187626   6.169   3.655   6.928
61929SOL    HW287627   6.022   3.689   6.922
61930SOL     OW87628   1.102   7.256   1.469
61930SOL    HW187629   1.062   7.197   1.404
61930SOL    HW287630   1.035   7.266   1.536
61931SOL     OW87631  14.018   5.152   1.258
61931SOL    HW187632  14.106   5.158   1.219
61931SOL    HW287633  14.028   5.194   1.344
61932SOL     OW87634   3.264  13.037   3.645
61932SOL    HW187635   3.274  13.032   3.550
61932SOL    HW287636   3.171  13.020   3.660
61933SOL     OW87637   8.521  11.192  13.753
61933SOL    HW187638   8.611  11.181  13.722
61933SOL    HW287639   8.530  11.241  13.835
61934SOL     OW87640  13.868   0.241  14.338
61934SOL    HW187641  13.775   0.247  14.316
61934SOL    HW287642  13.878   0.295  14.416
61935SOL     OW87643   1.411  14.125   1.253
61935SOL    HW187644   1.488  14.169   1.217
61935SOL    HW287645   1.393  14.054   1.191
61936SOL     OW87646  14.836   1.681  12.133
61936SOL    HW187647  14.799   1.721  12.212
61936SOL    HW287648  14.764   1.684  12.070
61937SOL     OW87649  10.143   0.041   8.690
61937SOL    HW187650  10.115  14.837   8.651
61937SOL    HW287651  10.164   0.097   8.615
61938SOL     OW87652  12.973   6.133  12.268
61938SOL    HW187653  12.893   6.100  12.310
61938SOL    HW287654  13.034   6.059  12.272
61939SOL     OW87655   5.326  10.138   1.150
61939SOL    HW187656   5.332  10.172   1.240
61939SOL    HW287657   5.266  10.198   1.106
61940SOL     OW87658  13.516   0.636  11.453
61940SOL    HW187659  13.454   0.693  11.499
61940SOL    HW287660  13.536   0.567  11.516
61941SOL     OW87661   9.793   7.402   9.600
61941SOL    HW187662   9.847   7.477   9.578
61941SOL    HW287663   9.795   7.398   9.696
61942SOL     OW87664   3.044   3.074   4.491
61942SOL    HW187665   3.095   3.152   4.513
61942SOL    HW287666   2.964   3.109   4.451
61943SOL     OW87667   3.803   3.285   4.276
61943SOL    HW187668   3.747   3.363   4.280
61943SOL    HW287669   3.858   3.291   4.354
61944SOL     OW87670   2.485   7.427  13.995
61944SOL    HW187671   2.530   7.372  13.931
61944SOL    HW287672   2.422   7.477  13.944
61945SOL     OW87673   6.524   9.994   4.337
61945SOL    HW187674   6.616  10.002   4.310
61945SOL    HW287675   6.474  10.033   4.266
61946SOL     OW87676  14.592  11.315   9.368
61946SOL    HW187677  14.565  11.273   9.286
61946SOL    HW287678  14.610  11.406   9.343
61947SOL     OW87679   6.427   6.063   2.678
61947SOL    HW187680   6.371   6.090   2.750
61947SOL    HW287681   6.367   6.023   2.615
61948SOL     OW87682  10.740  13.479   1.253
61948SOL    HW187683  10.697  13.559   1.282
61948SOL    HW287684  10.832  13.502   1.243
61949SOL     OW87685   2.757  14.386   4.433
61949SOL    HW187686   2.846  14.422   4.428
61949SOL    HW287687   2.741  14.349   4.347
61950SOL     OW87688   5.377  11.658  12.641
61950SOL    HW187689   5.413  11.711  12.712
61950SOL    HW287690   5.413  11.697  12.562
61951SOL     OW87691   2.718   8.497  14.376
61951SOL    HW187692   2.756   8.412  14.399
61951SOL    HW287693   2.793   8.554  14.359
61952SOL     OW87694  11.452  13.654   1.965
61952SOL    HW187695  11.435  13.560   1.960
61952SOL    HW287696  11.400  13.691   1.893
61953SOL     OW87697  14.680   3.779  13.160
61953SOL    HW187698  14.654   3.789  13.069
61953SOL    HW287699  14.774   3.760  13.157
61954SOL     OW87700  13.949   8.223   6.830
61954SOL    HW187701  13.982   8.276   6.903
61954SOL    HW287702  13.878   8.276   6.793
61955SOL     OW87703   8.771   8.575   1.223
61955SOL    HW187704   8.723   8.492   1.226
61955SOL    HW287705   8.862   8.549   1.206
61956SOL     OW87706  10.074  13.962   0.912
61956SOL    HW187707   9.982  13.947   0.934
61956SOL    HW287708  10.121  13.944   0.993
61957SOL     OW87709   1.529   9.473  12.900
61957SOL    HW187710   1.546   9.531  12.974
61957SOL    HW287711   1.589   9.399  12.913
61958SOL     OW87712   7.654   5.492   4.279
61958SOL    HW187713   7.717   5.513   4.210
61958SOL    HW287714   7.584   5.445   4.234
61959SOL     OW87715  14.699   4.776  12.322
61959SOL    HW187716  14.753   4.714  12.273
61959SOL    HW287717  14.739   4.861  12.305
61960SOL     OW87718   5.897   3.373   7.739
61960SOL    HW187719   5.827   3.309   7.754
61960SOL    HW287720   5.902   3.381   7.644
61961SOL     OW87721   6.598  11.621   8.502
61961SOL    HW187722   6.630  11.541   8.544
61961SOL    HW287723   6.573  11.594   8.414
61962SOL     OW87724  11.124   0.325   1.660
61962SOL    HW187725  11.138   0.302   1.752
61962SOL    HW287726  11.108   0.420   1.661
61963SOL     OW87727   1.607   9.544  12.629
61963SOL    HW187728   1.591   9.505  12.716
61963SOL    HW287729   1.567   9.482  12.568
61964SOL     OW87730  12.200   4.005  12.573
61964SOL    HW187731  12.260   3.994  12.647
61964SOL    HW287732  12.247   3.967  12.498
61965SOL     OW87733  12.765   2.234  14.051
61965SOL    HW187734  12.680   2.227  14.008
61965SOL    HW287735  12.744   2.237  14.144
61966SOL     OW87736   0.080   5.987   7.806
61966SOL    HW187737   0.018   6.057   7.823
61966SOL    HW287738   0.080   5.977   7.711
61967SOL     OW87739  10.023  11.630   1.410
61967SOL    HW187740  10.039  11.717   1.445
61967SOL    HW287741   9.963  11.644   1.337
61968SOL     OW87742   4.371   4.697   0.260
61968SOL    HW187743   4.410   4.691   0.173
61968SOL    HW287744   4.277   4.700   0.244
61969SOL     OW87745   7.733  10.760  13.661
61969SOL    HW187746   7.757  10.702  13.734
61969SOL    HW287747   7.645  10.732  13.637
61970SOL     OW87748   4.231  11.268  13.722
61970SOL    HW187749   4.255  11.317  13.644
61970SOL    HW287750   4.315  11.245  13.763
61971SOL     OW87751   7.431  10.537  13.247
61971SOL    HW187752   7.476  10.584  13.176
61971SOL    HW287753   7.346  10.513  13.209
61972SOL     OW87754   6.499   3.953  10.249
61972SOL    HW187755   6.535   4.032  10.290
61972SOL    HW287756   6.509   3.968  10.155
61973SOL     OW87757   0.731   7.800   5.031
61973SOL    HW187758   0.656   7.825   5.085
61973SOL    HW287759   0.706   7.716   4.993
61974SOL     OW87760  14.030   4.839   1.739
61974SOL    HW187761  14.054   4.747   1.754
61974SOL    HW287762  14.084   4.888   1.800
61975SOL     OW87763  12.915  11.890   7.695
61975SOL    HW187764  12.878  11.835   7.626
61975SOL    HW287765  12.948  11.967   7.649
61976SOL     OW87766  12.192   0.596  10.230
61976SOL    HW187767  12.240   0.545  10.164
61976SOL    HW287768  12.100   0.577  10.212
61977SOL     OW87769   2.589  11.884   3.654
61977SOL    HW187770   2.525  11.820   3.685
61977SOL    HW287771   2.594  11.869   3.559
61978SOL     OW87772  10.547   5.283   9.470
61978SOL    HW187773  10.533   5.199   9.512
61978SOL    HW287774  10.634   5.311   9.498
61979SOL     OW87775   2.778   0.170   3.538
61979SOL    HW187776   2.786   0.169   3.443
61979SOL    HW287777   2.695   0.216   3.554
61980SOL     OW87778  13.763  14.495   6.502
61980SOL    HW187779  13.698  14.430   6.528
61980SOL    HW287780  13.733  14.576   6.542
61981SOL     OW87781  14.371   7.481  14.092
61981SOL    HW187782  14.325   7.496  14.010
61981SOL    HW287783  14.438   7.416  14.070
61982SOL     OW87784   2.454   1.032  14.451
61982SOL    HW187785   2.381   1.093  14.452
61982SOL    HW287786   2.413   0.946  14.463
61983SOL     OW87787   6.695   4.356   0.742
61983SOL    HW187788   6.783   4.395   0.751
61983SOL    HW287789   6.664   4.346   0.832
61984SOL     OW87790  11.351   1.396  14.870
61984SOL    HW187791  11.413   1.346  14.817
61984SOL    HW287792  11.307   1.454  14.808
61985SOL     OW87793   8.195  10.754   1.173
61985SOL    HW187794   8.110  10.799   1.169
61985SOL    HW287795   8.248  10.799   1.107
61986SOL     OW87796   1.281   0.071   0.538
61986SOL    HW187797   1.250  14.869   0.577
61986SOL    HW287798   1.283   0.054   0.444
61987SOL     OW87799   0.126   8.621   1.603
61987SOL    HW187800   0.040   8.655   1.579
61987SOL    HW287801   0.171   8.610   1.519
61988SOL     OW87802   8.615   6.660   8.971
61988SOL    HW187803   8.614   6.687   8.879
61988SOL    HW287804   8.660   6.575   8.970
61989SOL     OW87805   4.843  10.446   1.935
61989SOL    HW187806   4.790  10.428   2.013
61989SOL    HW287807   4.846  10.542   1.930
61990SOL     OW87808   4.665  14.582   0.726
61990SOL    HW187809   4.614  14.662   0.711
61990SOL    HW287810   4.655  14.565   0.819
61991SOL     OW87811  10.805   7.830   5.141
61991SOL    HW187812  10.737   7.889   5.109
61991SOL    HW287813  10.878   7.889   5.163
61992SOL     OW87814   3.011   8.158   1.944
61992SOL    HW187815   2.984   8.104   2.018
61992SOL    HW287816   2.966   8.241   1.957
61993SOL     OW87817   8.185  12.008   6.390
61993SOL    HW187818   8.160  11.953   6.464
61993SOL    HW287819   8.214  12.090   6.430
61994SOL     OW87820   1.438  14.194   6.710
61994SOL    HW187821   1.404  14.129   6.648
61994SOL    HW287822   1.459  14.143   6.788
61995SOL     OW87823  12.982  12.722   0.898
61995SOL    HW187824  13.004  12.705   0.990
61995SOL    HW287825  13.061  12.761   0.861
61996SOL     OW87826  12.094   3.718   5.462
61996SOL    HW187827  12.040   3.702   5.540
61996SOL    HW287828  12.076   3.810   5.439
61997SOL     OW87829   1.946   8.503  10.989
61997SOL    HW187830   1.948   8.594  10.961
61997SOL    HW287831   2.022   8.493  11.046
61998SOL     OW87832   6.897  11.615   1.001
61998SOL    HW187833   6.857  11.702   0.994
61998SOL    HW287834   6.982  11.631   1.041
61999SOL     OW87835   4.521   7.919   1.402
61999SOL    HW187836   4.551   7.871   1.325
61999SOL    HW287837   4.551   7.866   1.476
62000SOL     OW87838   5.207   8.203  12.183
62000SOL    HW187839   5.239   8.114  12.166
62000SOL    HW287840   5.143   8.219  12.114
62001SOL     OW87841   5.480   1.753   3.327
62001SOL    HW187842   5.420   1.679   3.343
62001SOL    HW287843   5.552   1.715   3.276
62002SOL     OW87844   3.893   5.679   3.568
62002SOL    HW187845   3.851   5.615   3.626
62002SOL    HW287846   3.826   5.701   3.504
62003SOL     OW87847  12.456   9.114   0.358
62003SOL    HW187848  12.394   9.166   0.308
62003SOL    HW287849  12.412   9.030   0.372
62004SOL     OW87850   3.663   4.457   4.062
62004SOL    HW187851   3.642   4.410   4.143
62004SOL    HW287852   3.610   4.536   4.067
62005SOL     OW87853   7.011  11.879   2.540
62005SOL    HW187854   7.085  11.940   2.539
62005SOL    HW287855   6.956  11.909   2.612
62006SOL     OW87856  13.663  12.161   1.711
62006SOL    HW187857  13.616  12.216   1.775
62006SOL    HW287858  13.683  12.220   1.639
62007SOL     OW87859   4.713   3.791  13.944
62007SOL    HW187860   4.709   3.872  13.893
62007SOL    HW287861   4.674   3.725  13.887
62008SOL     OW87862  10.613  13.828   7.667
62008SOL    HW187863  10.678  13.888   7.704
62008SOL    HW287864  10.538  13.833   7.727
62009SOL     OW87865  12.873   4.104   3.774
62009SOL    HW187866  12.846   4.115   3.866
62009SOL    HW287867  12.792   4.079   3.729
62010SOL     OW87868   9.832   9.505  13.073
62010SOL    HW187869   9.761   9.499  13.137
62010SOL    HW287870   9.823   9.593  13.036
62011SOL     OW87871   6.251  14.421   6.742
62011SOL    HW187872   6.158  14.436   6.726
62011SOL    HW287873   6.285  14.508   6.765
62012SOL     OW87874   2.473   1.326  12.759
62012SOL    HW187875   2.438   1.239  12.779
62012SOL    HW287876   2.410   1.364  12.697
62013SOL     OW87877  10.307   4.540  11.575
62013SOL    HW187878  10.365   4.558  11.650
62013SOL    HW287879  10.315   4.446  11.561
62014SOL     OW87880  12.275   6.121  14.631
62014SOL    HW187881  12.256   6.093  14.721
62014SOL    HW287882  12.305   6.042  14.587
62015SOL     OW87883   1.246   9.096   7.514
62015SOL    HW187884   1.207   9.062   7.434
62015SOL    HW287885   1.195   9.055   7.584
62016SOL     OW87886   5.469  10.614  10.268
62016SOL    HW187887   5.485  10.654  10.182
62016SOL    HW287888   5.374  10.608  10.274
62017SOL     OW87889  13.883   0.510   7.424
62017SOL    HW187890  13.816   0.471   7.479
62017SOL    HW287891  13.867   0.473   7.337
62018SOL     OW87892  14.865  11.462  14.296
62018SOL    HW187893   0.034  11.486  14.217
62018SOL    HW287894  14.799  11.531  14.306
62019SOL     OW87895   5.668   5.983  14.463
62019SOL    HW187896   5.665   5.906  14.407
62019SOL    HW287897   5.760   5.994  14.485
62020SOL     OW87898   5.425   5.348  11.863
62020SOL    HW187899   5.379   5.278  11.909
62020SOL    HW287900   5.398   5.340  11.772
62021SOL     OW87901   5.204   6.824   9.453
62021SOL    HW187902   5.233   6.911   9.479
62021SOL    HW287903   5.116   6.838   9.417
62022SOL     OW87904  14.081   6.488   8.974
62022SOL    HW187905  14.038   6.490   9.060
62022SOL    HW287906  14.080   6.396   8.949
62023SOL     OW87907   3.208  10.815   0.957
62023SOL    HW187908   3.294  10.806   0.998
62023SOL    HW287909   3.174  10.898   0.991
62024SOL     OW87910  12.447   3.422  11.005
62024SOL    HW187911  12.534   3.458  11.021
62024SOL    HW287912  12.463   3.330  10.984
62025SOL     OW87913  10.696   8.481   1.011
62025SOL    HW187914  10.645   8.561   1.009
62025SOL    HW287915  10.782   8.508   1.043
62026SOL     OW87916   2.121  10.785  11.362
62026SOL    HW187917   2.088  10.702  11.397
62026SOL    HW287918   2.094  10.785  11.270
62027SOL     OW87919  13.839   7.092   7.389
62027SOL    HW187920  13.815   7.171   7.438
62027SOL    HW287921  13.769   7.030   7.406
62028SOL     OW87922   4.643  14.124  14.296
62028SOL    HW187923   4.601  14.190  14.240
62028SOL    HW287924   4.681  14.174  14.368
62029SOL     OW87925  10.633   8.154  11.145
62029SOL    HW187926  10.692   8.218  11.105
62029SOL    HW287927  10.577   8.124  11.073
62030SOL     OW87928   6.476   4.923   8.102
62030SOL    HW187929   6.489   4.996   8.041
62030SOL    HW287930   6.388   4.935   8.137
62031SOL     OW87931  12.116  10.916   5.693
62031SOL    HW187932  12.195  10.967   5.713
62031SOL    HW287933  12.111  10.852   5.764
62032SOL     OW87934  11.932  11.335   7.982
62032SOL    HW187935  12.009  11.329   8.039
62032SOL    HW287936  11.938  11.421   7.941
62033SOL     OW87937   7.648  13.619   0.872
62033SOL    HW187938   7.568  13.660   0.838
62033SOL    HW287939   7.692  13.688   0.921
62034SOL     OW87940   4.925   8.649   4.204
62034SOL    HW187941   4.866   8.694   4.265
62034SOL    HW287942   5.006   8.700   4.207
62035SOL     OW87943   4.623  14.840   3.504
62035SOL    HW187944   4.694   0.011   3.465
62035SOL    HW287945   4.544  14.879   3.467
62036SOL     OW87946  13.928   9.646   5.730
62036SOL    HW187947  13.864   9.674   5.665
62036SOL    HW287948  14.002   9.614   5.679
62037SOL     OW87949  12.211   0.137   4.641
62037SOL    HW187950  12.205   0.095   4.555
62037SOL    HW287951  12.300   0.117   4.671
62038SOL     OW87952   7.647  11.052   4.475
62038SOL    HW187953   7.575  11.058   4.412
62038SOL    HW287954   7.611  11.091   4.556
62039SOL     OW87955   6.614  11.541  12.376
62039SOL    HW187956   6.618  11.487  12.455
62039SOL    HW287957   6.672  11.614  12.394
62040SOL     OW87958  11.236   4.465   1.447
62040SOL    HW187959  11.274   4.551   1.425
62040SOL    HW287960  11.312   4.411   1.469
62041SOL     OW87961  11.299   6.465  11.345
62041SOL    HW187962  11.243   6.403  11.299
62041SOL    HW287963  11.276   6.454  11.437
62042SOL     OW87964   6.380   2.199   8.033
62042SOL    HW187965   6.286   2.202   8.049
62042SOL    HW287966   6.387   2.162   7.944
62043SOL     OW87967  10.289   4.168  12.662
62043SOL    HW187968  10.327   4.235  12.718
62043SOL    HW287969  10.290   4.206  12.574
62044SOL     OW87970   0.085  13.088  12.591
62044SOL    HW187971   0.136  13.138  12.528
62044SOL    HW287972   0.008  13.060  12.542
62045SOL     OW87973  10.585   6.029   3.932
62045SOL    HW187974  10.523   6.009   4.002
62045SOL    HW287975  10.597   6.124   3.937
62046SOL     OW87976   6.311   6.745   9.429
62046SOL    HW187977   6.391   6.740   9.377
62046SOL    HW287978   6.336   6.793   9.508
62047SOL     OW87979   6.423   9.722   5.272
62047SOL    HW187980   6.349   9.766   5.229
62047SOL    HW287981   6.395   9.713   5.363
62048SOL     OW87982   7.362   7.012   8.614
62048SOL    HW187983   7.429   7.002   8.683
62048SOL    HW287984   7.412   7.009   8.533
62049SOL     OW87985   2.259   9.894  10.940
62049SOL    HW187986   2.228   9.982  10.918
62049SOL    HW287987   2.345   9.907  10.980
62050SOL     OW87988  13.199   2.494  11.780
62050SOL    HW187989  13.121   2.456  11.819
62050SOL    HW287990  13.272   2.451  11.824
62051SOL     OW87991   3.103   1.615  10.464
62051SOL    HW187992   3.181   1.639  10.413
62051SOL    HW287993   3.139   1.577  10.544
62052SOL     OW87994  11.616   6.637   2.842
62052SOL    HW187995  11.705   6.669   2.827
62052SOL    HW287996  11.578   6.698   2.904
62053SOL     OW87997   3.766   8.405   8.592
62053SOL    HW187998   3.697   8.363   8.643
62053SOL    HW287999   3.847   8.383   8.638
62054SOL     OW88000   1.390   3.167   6.307
62054SOL    HW188001   1.364   3.240   6.251
62054SOL    HW288002   1.336   3.094   6.278
62055SOL     OW88003   6.732   5.382  13.565
62055SOL    HW188004   6.763   5.415  13.649
62055SOL    HW288005   6.800   5.406  13.502
62056SOL     OW88006   7.003  11.238   5.448
62056SOL    HW188007   7.039  11.322   5.421
62056SOL    HW288008   6.923  11.260   5.496
62057SOL     OW88009  12.239  12.965   4.706
62057SOL    HW188010  12.268  13.056   4.712
62057SOL    HW288011  12.277  12.923   4.783
62058SOL     OW88012   1.042   2.236   6.021
62058SOL    HW188013   1.080   2.179   5.954
62058SOL    HW288014   0.963   2.271   5.981
62059SOL     OW88015   7.538   8.163   7.897
62059SOL    HW188016   7.514   8.092   7.837
62059SOL    HW288017   7.623   8.136   7.932
62060SOL     OW88018  10.732   0.960   6.606
62060SOL    HW188019  10.684   0.909   6.542
62060SOL    HW288020  10.674   0.964   6.682
62061SOL     OW88021  12.354   7.686   0.142
62061SOL    HW188022  12.388   7.648   0.061
62061SOL    HW288023  12.419   7.751   0.167
62062SOL     OW88024  13.226  10.244  13.741
62062SOL    HW188025  13.194  10.310  13.803
62062SOL    HW288026  13.162  10.245  13.670
62063SOL     OW88027   9.284   9.038  12.813
62063SOL    HW188028   9.323   9.000  12.892
62063SOL    HW288029   9.319   9.127  12.809
62064SOL     OW88030   6.889  10.993   9.856
62064SOL    HW188031   6.820  10.957   9.912
62064SOL    HW288032   6.964  10.936   9.872
62065SOL     OW88033   7.591  10.133   6.029
62065SOL    HW188034   7.638  10.160   6.108
62065SOL    HW288035   7.513  10.189   6.027
62066SOL     OW88036  11.099  13.661   6.758
62066SOL    HW188037  11.153  13.722   6.708
62066SOL    HW288038  11.056  13.606   6.693
62067SOL     OW88039  14.010   9.285   7.365
62067SOL    HW188040  13.936   9.238   7.402
62067SOL    HW288041  13.971   9.358   7.317
62068SOL     OW88042  10.481   8.934  11.613
62068SOL    HW188043  10.407   8.979  11.653
62068SOL    HW288044  10.518   8.881  11.683
62069SOL     OW88045   9.361   2.526  11.759
62069SOL    HW188046   9.409   2.536  11.677
62069SOL    HW288047   9.270   2.543  11.736
62070SOL     OW88048  11.810  10.059  13.861
62070SOL    HW188049  11.820  10.133  13.921
62070SOL    HW288050  11.775  10.098  13.781
62071SOL     OW88051  13.808  13.493   3.434
62071SOL    HW188052  13.870  13.564   3.422
62071SOL    HW288053  13.811  13.444   3.351
62072SOL     OW88054   1.292  11.067   4.871
62072SOL    HW188055   1.207  11.083   4.913
62072SOL    HW288056   1.272  11.008   4.798
62073SOL     OW88057  10.820  13.934  10.426
62073SOL    HW188058  10.914  13.949  10.426
62073SOL    HW288059  10.781  14.022  10.426
62074SOL     OW88060   0.550  12.960  14.404
62074SOL    HW188061   0.491  12.889  14.375
62074SOL    HW288062   0.520  12.983  14.491
62075SOL     OW88063   9.622   0.618  12.595
62075SOL    HW188064   9.551   0.558  12.572
62075SOL    HW288065   9.691   0.598  12.532
62076SOL     OW88066  12.183  14.080   6.479
62076SOL    HW188067  12.183  13.992   6.442
62076SOL    HW288068  12.251  14.127   6.431
62077SOL     OW88069  14.061  10.393   6.890
62077SOL    HW188070  14.024  10.417   6.975
62077SOL    HW288071  14.122  10.463   6.869
62078SOL     OW88072   7.007   6.440  13.818
62078SOL    HW188073   6.962   6.428  13.902
62078SOL    HW288074   6.974   6.524  13.785
62079SOL     OW88075  12.138   9.472   2.717
62079SOL    HW188076  12.204   9.472   2.648
62079SOL    HW288077  12.169   9.538   2.779
62080SOL     OW88078   5.195  10.936   6.755
62080SOL    HW188079   5.167  10.872   6.820
62080SOL    HW288080   5.229  10.883   6.683
62081SOL     OW88081  13.847  11.793   8.874
62081SOL    HW188082  13.857  11.729   8.803
62081SOL    HW288083  13.761  11.775   8.911
62082SOL     OW88084   2.665  11.433   5.789
62082SOL    HW188085   2.716  11.465   5.864
62082SOL    HW288086   2.579  11.473   5.800
62083SOL     OW88087   6.055   6.197  13.466
62083SOL    HW188088   6.080   6.190  13.374
62083SOL    HW288089   6.000   6.276  13.470
62084SOL     OW88090  12.203   1.349   4.239
62084SOL    HW188091  12.275   1.388   4.289
62084SOL    HW288092  12.176   1.417   4.177
62085SOL     OW88093   8.723  12.226   2.628
62085SOL    HW188094   8.798  12.186   2.673
62085SOL    HW288095   8.759  12.258   2.545
62086SOL     OW88096   8.868  10.171   9.689
62086SOL    HW188097   8.943  10.141   9.638
62086SOL    HW288098   8.802  10.193   9.624
62087SOL     OW88099   9.517   2.897  13.763
62087SOL    HW188100   9.595   2.938  13.802
62087SOL    HW288101   9.477   2.850  13.836
62088SOL     OW88102   4.206  13.368   8.207
62088SOL    HW188103   4.147  13.296   8.183
62088SOL    HW288104   4.294  13.330   8.201
62089SOL     OW88105   1.255  10.983   2.684
62089SOL    HW188106   1.192  10.957   2.617
62089SOL    HW288107   1.264  10.905   2.739
62090SOL     OW88108  14.169   2.223  11.183
62090SOL    HW188109  14.158   2.135  11.148
62090SOL    HW288110  14.202   2.211  11.271
62091SOL     OW88111   4.452  13.790   8.530
62091SOL    HW188112   4.434  13.727   8.460
62091SOL    HW288113   4.383  13.855   8.521
62092SOL     OW88114   6.405   8.048   1.882
62092SOL    HW188115   6.434   8.044   1.791
62092SOL    HW288116   6.470   8.103   1.925
62093SOL     OW88117  11.852   7.153  10.563
62093SOL    HW188118  11.800   7.231  10.583
62093SOL    HW288119  11.943   7.183  10.570
62094SOL     OW88120   6.898   6.342   8.183
62094SOL    HW188121   6.968   6.347   8.249
62094SOL    HW288122   6.923   6.269   8.127
62095SOL     OW88123   0.998  13.556  12.639
62095SOL    HW188124   0.943  13.542  12.562
62095SOL    HW288125   1.069  13.612  12.608
62096SOL     OW88126  11.805   9.539   6.833
62096SOL    HW188127  11.851   9.555   6.915
62096SOL    HW288128  11.715   9.519   6.860
62097SOL     OW88129  14.416  12.297  14.126
62097SOL    HW188130  14.469  12.364  14.084
62097SOL    HW288131  14.330  12.306  14.085
62098SOL     OW88132  10.799   8.733   3.636
62098SOL    HW188133  10.711   8.725   3.674
62098SOL    HW288134  10.801   8.667   3.567
62099SOL     OW88135   5.604   1.874  11.326
62099SOL    HW188136   5.598   1.942  11.393
62099SOL    HW288137   5.674   1.816  11.357
62100SOL     OW88138   4.013  11.642   3.367
62100SOL    HW188139   3.958  11.673   3.439
62100SOL    HW288140   4.095  11.690   3.378
62101SOL     OW88141   2.886   2.654  14.395
62101SOL    HW188142   2.847   2.737  14.365
62101SOL    HW288143   2.968   2.647  14.346
62102SOL     OW88144   7.542   0.161   9.916
62102SOL    HW188145   7.565   0.126  10.003
62102SOL    HW288146   7.612   0.223   9.897
62103SOL     OW88147  10.756   9.954  14.308
62103SOL    HW188148  10.776   9.861  14.315
62103SOL    HW288149  10.683   9.958  14.245
62104SOL     OW88150  14.532  11.249   2.433
62104SOL    HW188151  14.593  11.251   2.360
62104SOL    HW288152  14.481  11.169   2.420
62105SOL     OW88153   2.573  13.125   8.002
62105SOL    HW188154   2.635  13.153   8.068
62105SOL    HW288155   2.605  13.163   7.920
62106SOL     OW88156   9.978   6.036   2.780
62106SOL    HW188157  10.031   5.959   2.801
62106SOL    HW288158   9.985   6.044   2.685
62107SOL     OW88159  13.345   4.993   5.763
62107SOL    HW188160  13.352   5.023   5.672
62107SOL    HW288161  13.395   5.057   5.814
62108SOL     OW88162  11.821   5.791   0.888
62108SOL    HW188163  11.906   5.782   0.931
62108SOL    HW288164  11.760   5.811   0.959
62109SOL     OW88165   3.301   4.212  10.272
62109SOL    HW188166   3.339   4.247  10.352
62109SOL    HW288167   3.230   4.274  10.251
62110SOL     OW88168   7.470   2.676   2.665
62110SOL    HW188169   7.445   2.694   2.574
62110SOL    HW288170   7.444   2.585   2.680
62111SOL     OW88171   4.609   6.330  12.337
62111SOL    HW188172   4.694   6.373  12.340
62111SOL    HW288173   4.628   6.241  12.308
62112SOL     OW88174   5.975  12.661  13.344
62112SOL    HW188175   5.942  12.666  13.254
62112SOL    HW288176   5.949  12.574  13.374
62113SOL     OW88177   5.381   3.098  13.851
62113SOL    HW188178   5.459   3.052  13.822
62113SOL    HW288179   5.391   3.187  13.815
62114SOL     OW88180   2.830   3.446   7.902
62114SOL    HW188181   2.768   3.376   7.923
62114SOL    HW288182   2.913   3.417   7.941
62115SOL     OW88183  13.405  13.560   1.862
62115SOL    HW188184  13.353  13.485   1.894
62115SOL    HW288185  13.489  13.522   1.838
62116SOL     OW88186   0.750   2.873  11.832
62116SOL    HW188187   0.778   2.955  11.793
62116SOL    HW288188   0.679   2.841  11.776
62117SOL     OW88189   2.600   1.474   6.724
62117SOL    HW188190   2.664   1.482   6.654
62117SOL    HW288191   2.652   1.477   6.805
62118SOL     OW88192   5.868   2.422  10.925
62118SOL    HW188193   5.948   2.473  10.927
62118SOL    HW288194   5.867   2.382  10.838
62119SOL     OW88195   8.761   4.963   3.904
62119SOL    HW188196   8.682   5.017   3.899
62119SOL    HW288197   8.763   4.915   3.821
62120SOL     OW88198   3.418   7.734   2.133
62120SOL    HW188199   3.492   7.681   2.164
62120SOL    HW288200   3.341   7.680   2.149
62121SOL     OW88201  11.210  10.662  12.056
62121SOL    HW188202  11.282  10.724  12.042
62121SOL    HW288203  11.246  10.596  12.114
62122SOL     OW88204   2.966   9.653   3.064
62122SOL    HW188205   3.040   9.659   3.004
62122SOL    HW288206   2.923   9.738   3.058
62123SOL     OW88207   1.129   9.565  14.811
62123SOL    HW188208   1.203   9.505  14.806
62123SOL    HW288209   1.169   9.651  14.824
62124SOL     OW88210   7.927   2.492  13.276
62124SOL    HW188211   8.007   2.439  13.272
62124SOL    HW288212   7.939   2.547  13.354
62125SOL     OW88213   2.210   7.367  10.350
62125SOL    HW188214   2.175   7.326  10.271
62125SOL    HW288215   2.200   7.461  10.334
62126SOL     OW88216   1.740   6.146  12.282
62126SOL    HW188217   1.649   6.118  12.289
62126SOL    HW288218   1.772   6.104  12.202
62127SOL     OW88219  14.075   3.100   7.679
62127SOL    HW188220  14.091   3.193   7.699
62127SOL    HW288221  14.151   3.074   7.626
62128SOL     OW88222   6.610  12.065   2.696
62128SOL    HW188223   6.644  12.105   2.616
62128SOL    HW288224   6.551  12.130   2.733
62129SOL     OW88225  10.329   9.408   6.299
62129SOL    HW188226  10.338   9.432   6.391
62129SOL    HW288227  10.318   9.491   6.253
62130SOL     OW88228   0.270  11.954   0.997
62130SOL    HW188229   0.263  11.893   0.924
62130SOL    HW288230   0.179  11.970   1.023
62131SOL     OW88231   3.819  12.455   2.186
62131SOL    HW188232   3.843  12.455   2.278
62131SOL    HW288233   3.817  12.362   2.162
62132SOL     OW88234   7.312   1.669   9.944
62132SOL    HW188235   7.396   1.633   9.973
62132SOL    HW288236   7.249   1.634  10.006
62133SOL     OW88237  13.955  11.149   9.940
62133SOL    HW188238  13.900  11.181  10.011
62133SOL    HW288239  13.908  11.075   9.904
62134SOL     OW88240   8.005   0.248   9.893
62134SOL    HW188241   8.055   0.210   9.821
62134SOL    HW288242   8.064   0.242   9.968
62135SOL     OW88243   7.833  12.514   0.079
62135SOL    HW188244   7.805  12.597   0.039
62135SOL    HW288245   7.814  12.448   0.013
62136SOL     OW88246   9.029   2.517   7.920
62136SOL    HW188247   9.100   2.578   7.899
62136SOL    HW288248   8.969   2.525   7.846
62137SOL     OW88249   2.224  11.272  11.609
62137SOL    HW188250   2.206  11.184  11.575
62137SOL    HW288251   2.141  11.319  11.599
62138SOL     OW88252   9.360   1.701   2.279
62138SOL    HW188253   9.429   1.743   2.228
62138SOL    HW288254   9.406   1.641   2.337
62139SOL     OW88255   0.713   5.995   9.230
62139SOL    HW188256   0.660   5.964   9.303
62139SOL    HW288257   0.745   5.915   9.188
62140SOL     OW88258  13.208   2.497   8.809
62140SOL    HW188259  13.174   2.450   8.885
62140SOL    HW288260  13.141   2.562   8.788
62141SOL     OW88261   9.031   3.616  14.856
62141SOL    HW188262   9.073   3.701  14.868
62141SOL    HW288263   8.993   3.619  14.768
62142SOL     OW88264   1.194  13.086  14.657
62142SOL    HW188265   1.270  13.119  14.609
62142SOL    HW288266   1.119  13.128  14.615
62143SOL     OW88267  14.205   8.720   2.082
62143SOL    HW188268  14.210   8.633   2.041
62143SOL    HW288269  14.126   8.759   2.045
62144SOL     OW88270   5.402  14.297  11.402
62144SOL    HW188271   5.307  14.286  11.389
62144SOL    HW288272   5.436  14.309  11.314
62145SOL     OW88273   2.607   9.118   5.686
62145SOL    HW188274   2.696   9.087   5.672
62145SOL    HW288275   2.553   9.040   5.679
62146SOL     OW88276   3.970   0.715   3.643
62146SOL    HW188277   3.948   0.700   3.551
62146SOL    HW288278   3.986   0.810   3.648
62147SOL     OW88279  11.132  12.871  10.028
62147SOL    HW188280  11.225  12.887  10.046
62147SOL    HW288281  11.093  12.958  10.026
62148SOL     OW88282  12.983   2.207   4.220
62148SOL    HW188283  12.894   2.175   4.207
62148SOL    HW288284  12.987   2.231   4.313
62149SOL     OW88285   6.378   2.973  14.661
62149SOL    HW188286   6.369   2.911  14.589
62149SOL    HW288287   6.308   2.948  14.722
62150SOL     OW88288   3.779  14.616   9.725
62150SOL    HW188289   3.686  14.597   9.717
62150SOL    HW288290   3.804  14.584   9.811
62151SOL     OW88291   5.180  13.321   3.460
62151SOL    HW188292   5.108  13.384   3.461
62151SOL    HW288293   5.217  13.325   3.548
62152SOL     OW88294  10.669  14.106   5.127
62152SOL    HW188295  10.665  14.135   5.218
62152SOL    HW288296  10.600  14.040   5.119
62153SOL     OW88297  11.912   3.296   6.596
62153SOL    HW188298  11.902   3.391   6.602
62153SOL    HW288299  11.886   3.264   6.683
62154SOL     OW88300   4.749   7.035  12.687
62154SOL    HW188301   4.819   6.974  12.664
62154SOL    HW288302   4.794   7.114  12.717
62155SOL     OW88303  12.288  10.637   2.297
62155SOL    HW188304  12.383  10.632   2.282
62155SOL    HW288305  12.262  10.719   2.255
62156SOL     OW88306   7.137   0.854  14.183
62156SOL    HW188307   7.152   0.786  14.249
62156SOL    HW288308   7.188   0.827  14.108
62157SOL     OW88309   1.768   2.706   3.217
62157SOL    HW188310   1.723   2.728   3.136
62157SOL    HW288311   1.832   2.776   3.229
62158SOL     OW88312  13.989   6.889   4.044
62158SOL    HW188313  13.934   6.862   3.971
62158SOL    HW288314  13.977   6.984   4.050
62159SOL     OW88315  13.799  11.553   4.252
62159SOL    HW188316  13.860  11.613   4.295
62159SOL    HW288317  13.731  11.611   4.215
62160SOL     OW88318   3.120   3.841  11.488
62160SOL    HW188319   3.214   3.856  11.499
62160SOL    HW288320   3.093   3.801  11.571
62161SOL     OW88321   2.556   2.178  14.131
62161SOL    HW188322   2.620   2.107  14.131
62161SOL    HW288323   2.608   2.258  14.132
62162SOL     OW88324  11.798  11.121   2.583
62162SOL    HW188325  11.749  11.200   2.606
62162SOL    HW288326  11.731  11.061   2.548
62163SOL     OW88327  13.181  10.808  10.547
62163SOL    HW188328  13.227  10.745  10.603
62163SOL    HW288329  13.198  10.893  10.588
62164SOL     OW88330  11.984   7.299  12.324
62164SOL    HW188331  12.006   7.319  12.415
62164SOL    HW288332  12.044   7.228  12.300
62165SOL     OW88333   5.001   4.211  13.654
62165SOL    HW188334   5.000   4.179  13.564
62165SOL    HW288335   5.087   4.187  13.687
62166SOL     OW88336   7.375   2.043   8.105
62166SOL    HW188337   7.351   2.015   8.017
62166SOL    HW288338   7.435   1.975   8.136
62167SOL     OW88339   8.263  13.437  13.379
62167SOL    HW188340   8.332  13.370  13.376
62167SOL    HW288341   8.305  13.517  13.346
62168SOL     OW88342  12.646  11.447   0.114
62168SOL    HW188343  12.701  11.395   0.055
62168SOL    HW288344  12.690  11.440   0.199
62169SOL     OW88345  10.332   2.310   6.065
62169SOL    HW188346  10.344   2.329   6.158
62169SOL    HW288347  10.403   2.249   6.044
62170SOL     OW88348   3.351  13.835  14.379
62170SOL    HW188349   3.311  13.790  14.305
62170SOL    HW288350   3.277  13.876  14.424
62171SOL     OW88351   2.063  14.633  13.094
62171SOL    HW188352   2.087  14.633  13.001
62171SOL    HW288353   1.976  14.673  13.097
62172SOL     OW88354  14.322   2.091  14.425
62172SOL    HW188355  14.359   2.172  14.389
62172SOL    HW288356  14.308   2.110  14.517
62173SOL     OW88357  12.253   0.981   8.152
62173SOL    HW188358  12.187   1.048   8.164
62173SOL    HW288359  12.241   0.921   8.226
62174SOL     OW88360   5.231   4.975   6.726
62174SOL    HW188361   5.269   4.931   6.650
62174SOL    HW288362   5.167   5.035   6.690
62175SOL     OW88363   6.066  10.873   0.620
62175SOL    HW188364   6.158  10.849   0.613
62175SOL    HW288365   6.066  10.968   0.635
62176SOL     OW88366   0.663   2.664   0.207
62176SOL    HW188367   0.671   2.686   0.300
62176SOL    HW288368   0.661   2.568   0.205
62177SOL     OW88369  11.881  10.918   1.694
62177SOL    HW188370  11.883  10.995   1.638
62177SOL    HW288371  11.871  10.953   1.783
62178SOL     OW88372   7.693   4.672   6.986
62178SOL    HW188373   7.607   4.710   7.000
62178SOL    HW288374   7.718   4.699   6.898
62179SOL     OW88375  13.426   0.100   5.922
62179SOL    HW188376  13.478   0.030   5.961
62179SOL    HW288377  13.350   0.056   5.886
62180SOL     OW88378   8.420   6.095   5.335
62180SOL    HW188379   8.342   6.043   5.318
62180SOL    HW288380   8.408   6.128   5.424
62181SOL     OW88381   2.345  10.607   7.984
62181SOL    HW188382   2.303  10.603   8.070
62181SOL    HW288383   2.337  10.518   7.949
62182SOL     OW88384   5.609   5.915   8.033
62182SOL    HW188385   5.590   5.883   8.121
62182SOL    HW288386   5.688   5.969   8.044
62183SOL     OW88387   1.184   1.551  12.422
62183SOL    HW188388   1.141   1.579  12.341
62183SOL    HW288389   1.114   1.547  12.487
62184SOL     OW88390  10.239   3.591   6.064
62184SOL    HW188391  10.240   3.612   6.157
62184SOL    HW288392  10.318   3.539   6.050
62185SOL     OW88393   0.102   4.838   0.808
62185SOL    HW188394   0.016   4.853   0.847
62185SOL    HW288395   0.089   4.764   0.749
62186SOL     OW88396   8.964   0.517  13.452
62186SOL    HW188397   8.997   0.429  13.434
62186SOL    HW288398   8.975   0.527  13.547
62187SOL     OW88399   4.941  13.571  14.711
62187SOL    HW188400   4.923  13.665  14.719
62187SOL    HW288401   4.959  13.543  14.801
62188SOL     OW88402  11.619   9.927   7.177
62188SOL    HW188403  11.552   9.912   7.244
62188SOL    HW288404  11.601   9.861   7.110
62189SOL     OW88405  12.967  14.417  10.147
62189SOL    HW188406  13.013  14.340  10.112
62189SOL    HW288407  13.033  14.486  10.147
62190SOL     OW88408  12.346   3.204  13.602
62190SOL    HW188409  12.287   3.197  13.527
62190SOL    HW288410  12.300   3.158  13.673
62191SOL     OW88411   6.304   5.443   3.902
62191SOL    HW188412   6.313   5.536   3.922
62191SOL    HW288413   6.234   5.412   3.959
62192SOL     OW88414   7.858  10.272   5.879
62192SOL    HW188415   7.930  10.333   5.893
62192SOL    HW288416   7.865  10.209   5.950
62193SOL     OW88417  13.388   0.947  12.183
62193SOL    HW188418  13.477   0.923  12.158
62193SOL    HW288419  13.354   0.995  12.108
62194SOL     OW88420   1.523  10.491  13.919
62194SOL    HW188421   1.545  10.413  13.868
62194SOL    HW288422   1.472  10.457  13.993
62195SOL     OW88423   9.266   3.448   7.921
62195SOL    HW188424   9.227   3.526   7.880
62195SOL    HW288425   9.291   3.392   7.847
62196SOL     OW88426  13.897   6.562  13.694
62196SOL    HW188427  13.942   6.493  13.745
62196SOL    HW288428  13.841   6.514  13.634
62197SOL     OW88429   6.530   2.599  13.205
62197SOL    HW188430   6.583   2.585  13.127
62197SOL    HW288431   6.593   2.595  13.277
62198SOL     OW88432   3.198   0.542   1.275
62198SOL    HW188433   3.161   0.558   1.189
62198SOL    HW288434   3.186   0.448   1.289
62199SOL     OW88435  14.305   6.057  11.769
62199SOL    HW188436  14.258   6.111  11.705
62199SOL    HW288437  14.276   6.089  11.854
62200SOL     OW88438   5.894   5.882   6.642
62200SOL    HW188439   5.840   5.835   6.706
62200SOL    HW288440   5.980   5.838   6.646
62201SOL     OW88441   1.585   5.941   2.261
62201SOL    HW188442   1.642   6.009   2.226
62201SOL    HW288443   1.644   5.873   2.292
62202SOL     OW88444   1.928   7.426   3.680
62202SOL    HW188445   1.909   7.451   3.771
62202SOL    HW288446   1.968   7.504   3.642
62203SOL     OW88447   1.423  10.968   6.348
62203SOL    HW188448   1.452  11.042   6.401
62203SOL    HW288449   1.502  10.940   6.301
62204SOL     OW88450   6.006   3.640   1.262
62204SOL    HW188451   6.092   3.602   1.244
62204SOL    HW288452   5.998   3.637   1.357
62205SOL     OW88453  12.218   9.363   5.977
62205SOL    HW188454  12.302   9.318   5.970
62205SOL    HW288455  12.158   9.296   6.011
62206SOL     OW88456   3.110  10.504  10.814
62206SOL    HW188457   3.063  10.478  10.893
62206SOL    HW288458   3.053  10.569  10.772
62207SOL     OW88459   2.453  12.336   8.342
62207SOL    HW188460   2.458  12.417   8.393
62207SOL    HW288461   2.363  12.334   8.309
62208SOL     OW88462   2.066  12.991   9.266
62208SOL    HW188463   2.041  12.899   9.278
62208SOL    HW288464   2.097  12.996   9.176
62209SOL     OW88465  10.506   4.208   6.302
62209SOL    HW188466  10.523   4.182   6.212
62209SOL    HW288467  10.421   4.251   6.299
62210SOL     OW88468   6.413   9.979   0.965
62210SOL    HW188469   6.419   9.901   0.910
62210SOL    HW288470   6.331   9.968   1.013
62211SOL     OW88471   6.960   4.917   2.052
62211SOL    HW188472   6.954   4.975   2.127
62211SOL    HW288473   7.002   4.838   2.086
62212SOL     OW88474   3.414  12.036  11.521
62212SOL    HW188475   3.352  12.045  11.448
62212SOL    HW288476   3.370  11.977  11.582
62213SOL     OW88477  10.269   5.636   8.895
62213SOL    HW188478  10.202   5.629   8.964
62213SOL    HW288479  10.346   5.594   8.933
62214SOL     OW88480   3.422   7.064   2.984
62214SOL    HW188481   3.494   7.100   2.932
62214SOL    HW288482   3.464   7.002   3.044
62215SOL     OW88483   3.668   9.017  11.639
62215SOL    HW188484   3.574   9.020  11.657
62215SOL    HW288485   3.687   8.924  11.627
62216SOL     OW88486   0.589   3.784  11.171
62216SOL    HW188487   0.661   3.847  11.171
62216SOL    HW288488   0.629   3.702  11.143
62217SOL     OW88489   1.380   3.801   8.964
62217SOL    HW188490   1.442   3.823   9.034
62217SOL    HW288491   1.311   3.752   9.009
62218SOL     OW88492   0.499   7.251   7.841
62218SOL    HW188493   0.550   7.330   7.827
62218SOL    HW288494   0.428   7.256   7.776
62219SOL     OW88495   5.280   5.141  13.393
62219SOL    HW188496   5.232   5.117  13.473
62219SOL    HW288497   5.291   5.236  13.400
62220SOL     OW88498   5.696   3.986   6.878
62220SOL    HW188499   5.653   4.057   6.831
62220SOL    HW288500   5.685   4.008   6.970
62221SOL     OW88501  14.534  14.862  13.732
62221SOL    HW188502  14.464   0.017  13.676
62221SOL    HW288503  14.488  14.814  13.801
62222SOL     OW88504  13.086  13.915   8.075
62222SOL    HW188505  13.045  13.889   8.157
62222SOL    HW288506  13.097  14.010   8.082
62223SOL     OW88507   2.090  13.005  12.520
62223SOL    HW188508   2.182  12.997  12.495
62223SOL    HW288509   2.078  12.940  12.590
62224SOL     OW88510   0.125  13.699  13.837
62224SOL    HW188511   0.091  13.788  13.848
62224SOL    HW288512   0.095  13.652  13.914
62225SOL     OW88513   7.842  11.584  14.696
62225SOL    HW188514   7.883  11.584  14.610
62225SOL    HW288515   7.769  11.522  14.688
62226SOL     OW88516   1.077  11.789   3.130
62226SOL    HW188517   1.094  11.806   3.038
62226SOL    HW288518   1.164  11.790   3.171
62227SOL     OW88519   7.131  11.330   2.708
62227SOL    HW188520   7.213  11.336   2.758
62227SOL    HW288521   7.070  11.385   2.755
62228SOL     OW88522  12.042   9.744   5.948
62228SOL    HW188523  11.985   9.724   5.874
62228SOL    HW288524  11.986   9.738   6.025
62229SOL     OW88525   6.887   2.028   2.407
62229SOL    HW188526   6.823   2.006   2.475
62229SOL    HW288527   6.849   2.102   2.360
62230SOL     OW88528   6.516  10.054  11.451
62230SOL    HW188529   6.481  10.142  11.433
62230SOL    HW288530   6.478   9.999  11.382
62231SOL     OW88531   4.482   7.439   8.828
62231SOL    HW188532   4.414   7.412   8.889
62231SOL    HW288533   4.500   7.531   8.851
62232SOL     OW88534   3.301   5.106   0.351
62232SOL    HW188535   3.293   5.173   0.284
62232SOL    HW288536   3.321   5.154   0.431
62233SOL     OW88537   0.872   5.235   1.574
62233SOL    HW188538   0.855   5.263   1.484
62233SOL    HW288539   0.948   5.177   1.567
62234SOL     OW88540  12.418  11.137   7.281
62234SOL    HW188541  12.336  11.143   7.329
62234SOL    HW288542  12.486  11.140   7.349
62235SOL     OW88543   7.932   7.629  13.603
62235SOL    HW188544   8.022   7.660  13.615
62235SOL    HW288545   7.924   7.619  13.508
62236SOL     OW88546   9.862   9.492   0.828
62236SOL    HW188547   9.856   9.401   0.801
62236SOL    HW288548   9.792   9.536   0.780
62237SOL     OW88549   4.612  11.467   6.561
62237SOL    HW188550   4.609  11.487   6.655
62237SOL    HW288551   4.693  11.418   6.549
62238SOL     OW88552  10.872  11.077   5.294
62238SOL    HW188553  10.956  11.038   5.318
62238SOL    HW288554  10.877  11.166   5.328
62239SOL     OW88555  12.927   4.507   2.179
62239SOL    HW188556  12.972   4.451   2.243
62239SOL    HW288557  12.965   4.594   2.192
62240SOL     OW88558   4.883   2.227   2.158
62240SOL    HW188559   4.832   2.192   2.085
62240SOL    HW288560   4.973   2.201   2.139
62241SOL     OW88561   6.116  10.256   1.710
62241SOL    HW188562   6.151  10.185   1.764
62241SOL    HW288563   6.150  10.336   1.751
62242SOL     OW88564   0.122   0.138   8.922
62242SOL    HW188565   0.149   0.061   8.872
62242SOL    HW288566   0.136   0.113   9.014
62243SOL     OW88567   4.482   1.641  12.538
62243SOL    HW188568   4.472   1.731  12.506
62243SOL    HW288569   4.397   1.600  12.520
62244SOL     OW88570   9.194  13.589   0.421
62244SOL    HW188571   9.146  13.508   0.405
62244SOL    HW288572   9.126  13.656   0.427
62245SOL     OW88573  14.410   0.506   0.953
62245SOL    HW188574  14.354   0.571   0.995
62245SOL    HW288575  14.363   0.481   0.874
62246SOL     OW88576   7.839  13.902  14.063
62246SOL    HW188577   7.778  13.904  14.136
62246SOL    HW288578   7.893  13.824  14.077
62247SOL     OW88579   7.159   7.516  14.483
62247SOL    HW188580   7.201   7.601  14.481
62247SOL    HW288581   7.142   7.495  14.391
62248SOL     OW88582   3.670  13.739  13.647
62248SOL    HW188583   3.709  13.826  13.636
62248SOL    HW288584   3.649  13.733  13.740
62249SOL     OW88585   3.912   0.181   6.243
62249SOL    HW188586   3.869   0.149   6.322
62249SOL    HW288587   3.945   0.267   6.267
62250SOL     OW88588  11.743   7.986   2.465
62250SOL    HW188589  11.657   7.977   2.506
62250SOL    HW288590  11.797   8.027   2.533
62251SOL     OW88591  10.441  13.598   9.114
62251SOL    HW188592  10.392  13.544   9.051
62251SOL    HW288593  10.497  13.535   9.159
62252SOL     OW88594   7.150  14.673   6.026
62252SOL    HW188595   7.159  14.694   5.933
62252SOL    HW288596   7.110  14.586   6.026
62253SOL     OW88597   1.408   7.798   7.400
62253SOL    HW188598   1.431   7.785   7.308
62253SOL    HW288599   1.450   7.724   7.445
62254SOL     OW88600   8.846   9.493   9.265
62254SOL    HW188601   8.840   9.587   9.278
62254SOL    HW288602   8.816   9.479   9.175
62255SOL     OW88603   9.891   2.108   2.215
62255SOL    HW188604   9.926   2.196   2.204
62255SOL    HW288605   9.867   2.080   2.127
62256SOL     OW88606   8.006   3.379   3.614
62256SOL    HW188607   7.976   3.356   3.701
62256SOL    HW288608   7.941   3.342   3.555
62257SOL     OW88609   9.177   9.133  10.382
62257SOL    HW188610   9.256   9.091  10.417
62257SOL    HW288611   9.191   9.226  10.399
62258SOL     OW88612   2.506   8.937   2.057
62258SOL    HW188613   2.583   8.981   2.021
62258SOL    HW288614   2.468   8.890   1.982
62259SOL     OW88615  10.316   5.703   0.104
62259SOL    HW188616  10.348   5.793   0.112
62259SOL    HW288617  10.270   5.700   0.020
62260SOL     OW88618   7.924   0.482   9.443
62260SOL    HW188619   7.933   0.568   9.483
62260SOL    HW288620   8.011   0.463   9.407
62261SOL     OW88621   7.522   7.177   4.070
62261SOL    HW188622   7.561   7.245   4.126
62261SOL    HW288623   7.595   7.143   4.019
62262SOL     OW88624   3.963  10.989   9.070
62262SOL    HW188625   3.977  11.022   8.981
62262SOL    HW288626   3.952  10.894   9.058
62263SOL     OW88627   1.917   7.127  14.087
62263SOL    HW188628   1.943   7.038  14.109
62263SOL    HW288629   1.984   7.158  14.026
62264SOL     OW88630   7.007   9.229  11.110
62264SOL    HW188631   6.961   9.174  11.047
62264SOL    HW288632   7.055   9.168  11.165
62265SOL     OW88633   9.510  14.203   2.517
62265SOL    HW188634   9.424  14.164   2.529
62265SOL    HW288635   9.540  14.171   2.432
62266SOL     OW88636  11.673  10.048  13.000
62266SOL    HW188637  11.701  10.011  12.917
62266SOL    HW288638  11.755  10.064  13.048
62267SOL     OW88639   9.019  14.080   0.713
62267SOL    HW188640   8.935  14.094   0.668
62267SOL    HW288641   9.045  14.167   0.743
62268SOL     OW88642  12.903  13.159   6.551
62268SOL    HW188643  12.813  13.144   6.580
62268SOL    HW288644  12.909  13.117   6.466
62269SOL     OW88645   1.205   7.864   3.554
62269SOL    HW188646   1.236   7.951   3.580
62269SOL    HW288647   1.193   7.870   3.459
62270SOL     OW88648  12.171   5.767   4.565
62270SOL    HW188649  12.093   5.818   4.585
62270SOL    HW288650  12.146   5.712   4.491
62271SOL     OW88651   0.043  12.794  12.384
62271SOL    HW188652   0.122  12.843  12.364
62271SOL    HW288653   0.069  12.732  12.452
62272SOL     OW88654  11.365   9.434  10.366
62272SOL    HW188655  11.360   9.341  10.341
62272SOL    HW288656  11.383   9.432  10.460
62273SOL     OW88657   8.674   5.324  13.421
62273SOL    HW188658   8.676   5.237  13.380
62273SOL    HW288659   8.594   5.364  13.388
62274SOL     OW88660  10.996   1.340  10.625
62274SOL    HW188661  11.032   1.304  10.544
62274SOL    HW288662  11.048   1.300  10.694
62275SOL     OW88663  13.380   5.469   7.655
62275SOL    HW188664  13.446   5.484   7.587
62275SOL    HW288665  13.426   5.414   7.719
62276SOL     OW88666   7.721   0.352   9.063
62276SOL    HW188667   7.817   0.350   9.054
62276SOL    HW288668   7.694   0.262   9.043
62277SOL     OW88669   0.098  10.235  14.175
62277SOL    HW188670   0.011  10.233  14.216
62277SOL    HW288671   0.131  10.146  14.185
62278SOL     OW88672   5.059   7.958  14.767
62278SOL    HW188673   5.119   7.917  14.705
62278SOL    HW288674   5.104   8.038  14.795
62279SOL     OW88675  13.998  14.869  13.223
62279SOL    HW188676  14.018   0.002  13.131
62279SOL    HW288677  13.903  14.865  13.227
62280SOL     OW88678  14.582  12.154  10.597
62280SOL    HW188679  14.533  12.088  10.547
62280SOL    HW288680  14.631  12.103  10.661
62281SOL     OW88681  13.598   3.031   9.345
62281SOL    HW188682  13.648   3.108   9.318
62281SOL    HW288683  13.664   2.964   9.362
62282SOL     OW88684   6.298   0.523   7.960
62282SOL    HW188685   6.269   0.614   7.954
62282SOL    HW288686   6.221   0.471   7.936
62283SOL     OW88687  13.788  11.755   5.760
62283SOL    HW188688  13.697  11.727   5.758
62283SOL    HW288689  13.791  11.832   5.703
62284SOL     OW88690   2.628   0.467   3.652
62284SOL    HW188691   2.614   0.372   3.644
62284SOL    HW288692   2.603   0.487   3.742
62285SOL     OW88693   4.019   3.839   8.908
62285SOL    HW188694   3.971   3.877   8.835
62285SOL    HW288695   4.055   3.915   8.954
62286SOL     OW88696   9.507  10.568  11.181
62286SOL    HW188697   9.415  10.576  11.208
62286SOL    HW288698   9.557  10.600  11.257
62287SOL     OW88699  13.423  11.098   0.582
62287SOL    HW188700  13.415  11.170   0.644
62287SOL    HW288701  13.450  11.023   0.636
62288SOL     OW88702   5.035  13.255   7.699
62288SOL    HW188703   5.013  13.252   7.792
62288SOL    HW288704   5.080  13.339   7.688
62289SOL     OW88705   8.914   7.122   6.335
62289SOL    HW188706   9.006   7.144   6.320
62289SOL    HW288707   8.890   7.172   6.413
62290SOL     OW88708   1.938   3.131   7.043
62290SOL    HW188709   1.852   3.143   7.003
62290SOL    HW288710   1.934   3.042   7.080
62291SOL     OW88711   3.973  14.367  12.904
62291SOL    HW188712   3.884  14.396  12.927
62291SOL    HW288713   4.023  14.376  12.985
62292SOL     OW88714   3.701   4.804   5.515
62292SOL    HW188715   3.796   4.818   5.514
62292SOL    HW288716   3.680   4.792   5.608
62293SOL     OW88717   2.384  12.408   1.891
62293SOL    HW188718   2.322  12.334   1.889
62293SOL    HW288719   2.362  12.459   1.813
62294SOL     OW88720  13.339   1.009   8.826
62294SOL    HW188721  13.364   0.954   8.901
62294SOL    HW288722  13.374   0.964   8.750
62295SOL     OW88723  14.015   4.416   6.861
62295SOL    HW188724  13.980   4.468   6.934
62295SOL    HW288725  13.939   4.401   6.804
62296SOL     OW88726  10.121  11.831   6.074
62296SOL    HW188727  10.131  11.795   5.986
62296SOL    HW288728  10.108  11.754   6.130
62297SOL     OW88729  13.727  14.017  10.836
62297SOL    HW188730  13.714  14.111  10.825
62297SOL    HW288731  13.798  14.010  10.899
62298SOL     OW88732   9.539   9.901   9.800
62298SOL    HW188733   9.483   9.908   9.722
62298SOL    HW288734   9.615   9.851   9.771
62299SOL     OW88735   1.813   0.318   0.340
62299SOL    HW188736   1.813   0.370   0.259
62299SOL    HW288737   1.788   0.380   0.408
62300SOL     OW88738  12.636   5.376  14.475
62300SOL    HW188739  12.561   5.419  14.516
62300SOL    HW288740  12.633   5.286  14.508
62301SOL     OW88741   7.231  14.306   4.796
62301SOL    HW188742   7.159  14.271   4.744
62301SOL    HW288743   7.305  14.247   4.777
62302SOL     OW88744  10.699   8.521  13.027
62302SOL    HW188745  10.700   8.516  12.932
62302SOL    HW288746  10.747   8.601  13.047
62303SOL     OW88747   9.692  12.454  10.376
62303SOL    HW188748   9.629  12.382  10.378
62303SOL    HW288749   9.686  12.492  10.464
62304SOL     OW88750  11.532   3.772   8.301
62304SOL    HW188751  11.464   3.838   8.285
62304SOL    HW288752  11.484   3.694   8.328
62305SOL     OW88753  11.743   1.956   9.864
62305SOL    HW188754  11.648   1.963   9.856
62305SOL    HW288755  11.775   1.954   9.773
62306SOL     OW88756   0.334  11.826   0.738
62306SOL    HW188757   0.306  11.829   0.647
62306SOL    HW288758   0.426  11.852   0.736
62307SOL     OW88759  10.157   0.020   5.029
62307SOL    HW188760  10.135   0.035   4.936
62307SOL    HW288761  10.191  14.810   5.032
62308SOL     OW88762   2.622   5.337  13.662
62308SOL    HW188763   2.613   5.432  13.669
62308SOL    HW288764   2.546   5.309  13.611
62309SOL     OW88765   7.793   6.983   5.423
62309SOL    HW188766   7.851   7.006   5.351
62309SOL    HW288767   7.799   7.057   5.483
62310SOL     OW88768   6.632   9.997  10.481
62310SOL    HW188769   6.619  10.030  10.570
62310SOL    HW288770   6.543   9.974  10.451
62311SOL     OW88771   7.475  13.148   5.794
62311SOL    HW188772   7.439  13.067   5.831
62311SOL    HW288773   7.502  13.199   5.870
62312SOL     OW88774   8.493   2.703   6.433
62312SOL    HW188775   8.478   2.657   6.351
62312SOL    HW288776   8.406   2.722   6.467
62313SOL     OW88777   3.713   4.765   2.766
62313SOL    HW188778   3.741   4.730   2.681
62313SOL    HW288779   3.619   4.776   2.757
62314SOL     OW88780   5.063   5.918  14.302
62314SOL    HW188781   5.143   5.955  14.340
62314SOL    HW288782   5.067   5.944  14.210
62315SOL     OW88783   8.604   4.105  12.632
62315SOL    HW188784   8.660   4.037  12.594
62315SOL    HW288785   8.548   4.133  12.560
62316SOL     OW88786   4.989   8.259   7.270
62316SOL    HW188787   4.930   8.260   7.345
62316SOL    HW288788   5.058   8.321   7.294
62317SOL     OW88789  10.706   3.467  14.770
62317SOL    HW188790  10.639   3.465  14.838
62317SOL    HW288791  10.661   3.435  14.692
62318SOL     OW88792   3.455   7.452   8.955
62318SOL    HW188793   3.450   7.542   8.922
62318SOL    HW288794   3.384   7.406   8.911
62319SOL     OW88795   4.787   4.620   1.159
62319SOL    HW188796   4.803   4.540   1.209
62319SOL    HW288797   4.855   4.681   1.187
62320SOL     OW88798  12.518   6.470  14.711
62320SOL    HW188799  12.476   6.470  14.625
62320SOL    HW288800  12.578   6.395  14.707
62321SOL     OW88801   0.242   8.122   4.056
62321SOL    HW188802   0.263   8.156   4.143
62321SOL    HW288803   0.326   8.097   4.018
62322SOL     OW88804   8.184   7.347   7.545
62322SOL    HW188805   8.142   7.381   7.466
62322SOL    HW288806   8.181   7.420   7.607
62323SOL     OW88807   2.919   4.772  12.700
62323SOL    HW188808   2.836   4.725  12.712
62323SOL    HW288809   2.894   4.864  12.699
62324SOL     OW88810  10.396   5.091   7.100
62324SOL    HW188811  10.403   5.186   7.115
62324SOL    HW288812  10.481   5.056   7.127
62325SOL     OW88813  14.743   2.102  12.814
62325SOL    HW188814  14.670   2.042  12.831
62325SOL    HW288815  14.819   2.058  12.850
62326SOL     OW88816  12.269   9.613   5.964
62326SOL    HW188817  12.180   9.650   5.969
62326SOL    HW288818  12.256   9.518   5.966
62327SOL     OW88819  14.831   2.900   9.758
62327SOL    HW188820  14.795   2.858   9.836
62327SOL    HW288821   0.040   2.928   9.785
62328SOL     OW88822  10.088  11.604   3.709
62328SOL    HW188823  10.154  11.571   3.770
62328SOL    HW288824  10.068  11.692   3.740
62329SOL     OW88825  13.604   9.725   7.749
62329SOL    HW188826  13.667   9.796   7.763
62329SOL    HW288827  13.583   9.694   7.836
62330SOL     OW88828  14.806  11.125  13.639
62330SOL    HW188829   0.022  11.136  13.644
62330SOL    HW288830  14.787  11.053  13.699
62331SOL     OW88831  12.393   8.315   5.534
62331SOL    HW188832  12.428   8.392   5.489
62331SOL    HW288833  12.460   8.293   5.599
62332SOL     OW88834  12.162   7.883  14.808
62332SOL    HW188835  12.190   7.971  14.832
62332SOL    HW288836  12.233   7.849  14.753
62333SOL     OW88837  13.108  10.001   8.290
62333SOL    HW188838  13.039  10.045   8.339
62333SOL    HW288839  13.129   9.924   8.342
62334SOL     OW88840  12.773  13.560   1.711
62334SOL    HW188841  12.867  13.548   1.727
62334SOL    HW288842  12.759  13.655   1.718
62335SOL     OW88843   8.853  14.580  14.847
62335SOL    HW188844   8.936  14.625  14.828
62335SOL    HW288845   8.848  14.511  14.781
62336SOL     OW88846  10.634  13.556  10.839
62336SOL    HW188847  10.726  13.580  10.830
62336SOL    HW288848  10.634  13.460  10.835
62337SOL     OW88849  12.479  14.309   6.744
62337SOL    HW188850  12.529  14.304   6.663
62337SOL    HW288851  12.471  14.403   6.762
62338SOL     OW88852   1.580  13.742   4.822
62338SOL    HW188853   1.672  13.767   4.810
62338SOL    HW288854   1.531  13.823   4.805
62339SOL     OW88855   4.829   7.325   6.361
62339SOL    HW188856   4.905   7.290   6.315
62339SOL    HW288857   4.777   7.367   6.293
62340SOL     OW88858   6.452  12.236  12.226
62340SOL    HW188859   6.450  12.282  12.143
62340SOL    HW288860   6.396  12.287  12.284
62341SOL     OW88861  10.497   1.449  13.968
62341SOL    HW188862  10.524   1.404  13.889
62341SOL    HW288863  10.531   1.538  13.958
62342SOL     OW88864   9.156   9.136  10.970
62342SOL    HW188865   9.144   9.063  11.031
62342SOL    HW288866   9.238   9.116  10.925
62343SOL     OW88867  13.151   4.335  10.126
62343SOL    HW188868  13.118   4.403  10.185
62343SOL    HW288869  13.094   4.340  10.049
62344SOL     OW88870   0.822   7.161   2.024
62344SOL    HW188871   0.858   7.073   2.015
62344SOL    HW288872   0.747   7.151   2.082
62345SOL     OW88873   2.349   6.089   2.299
62345SOL    HW188874   2.342   6.004   2.341
62345SOL    HW288875   2.440   6.116   2.313
62346SOL     OW88876  13.709   7.413   2.507
62346SOL    HW188877  13.671   7.353   2.572
62346SOL    HW288878  13.735   7.356   2.435
62347SOL     OW88879  11.484   4.028   5.445
62347SOL    HW188880  11.415   3.983   5.397
62347SOL    HW288881  11.558   3.966   5.445
62348SOL     OW88882  12.598  10.760  14.053
62348SOL    HW188883  12.640  10.841  14.025
62348SOL    HW288884  12.506  10.783  14.063
62349SOL     OW88885   8.943   8.397   0.619
62349SOL    HW188886   8.942   8.304   0.594
62349SOL    HW288887   8.907   8.398   0.708
62350SOL     OW88888   2.656  13.671  12.870
62350SOL    HW188889   2.632  13.583  12.839
62350SOL    HW288890   2.592  13.690  12.939
62351SOL     OW88891   4.352   3.732   2.769
62351SOL    HW188892   4.394   3.776   2.695
62351SOL    HW288893   4.414   3.742   2.841
62352SOL     OW88894   6.495   3.639  12.894
62352SOL    HW188895   6.518   3.729  12.917
62352SOL    HW288896   6.455   3.603  12.973
62353SOL     OW88897   5.035   2.150   5.145
62353SOL    HW188898   4.988   2.091   5.203
62353SOL    HW288899   5.035   2.106   5.060
62354SOL     OW88900  11.458  12.292   7.271
62354SOL    HW188901  11.546  12.329   7.277
62354SOL    HW288902  11.464  12.210   7.320
62355SOL     OW88903   6.128  11.375   9.488
62355SOL    HW188904   6.127  11.326   9.406
62355SOL    HW288905   6.176  11.318   9.549
62356SOL     OW88906  12.114   4.960   3.697
62356SOL    HW188907  12.163   4.906   3.635
62356SOL    HW288908  12.163   4.955   3.778
62357SOL     OW88909   8.594  13.233   2.650
62357SOL    HW188910   8.680  13.201   2.676
62357SOL    HW288911   8.543  13.154   2.633
62358SOL     OW88912   4.147   5.536   8.136
62358SOL    HW188913   4.082   5.476   8.172
62358SOL    HW288914   4.097   5.600   8.087
62359SOL     OW88915   1.133   9.308   1.203
62359SOL    HW188916   1.058   9.272   1.250
62359SOL    HW288917   1.118   9.403   1.204
62360SOL     OW88918   0.575  11.669   8.880
62360SOL    HW188919   0.516  11.713   8.818
62360SOL    HW288920   0.662  11.677   8.839
62361SOL     OW88921   4.234  10.361  10.905
62361SOL    HW188922   4.312  10.315  10.873
62361SOL    HW288923   4.195  10.400  10.827
62362SOL     OW88924   6.593   8.166   8.899
62362SOL    HW188925   6.684   8.189   8.915
62362SOL    HW288926   6.594   8.072   8.880
62363SOL     OW88927   0.270  12.830  12.646
62363SOL    HW188928   0.300  12.858  12.559
62363SOL    HW288929   0.203  12.764  12.628
62364SOL     OW88930   9.819  12.714   3.084
62364SOL    HW188931   9.910  12.741   3.073
62364SOL    HW288932   9.776  12.790   3.122
62365SOL     OW88933   9.072   0.853  14.427
62365SOL    HW188934   9.061   0.905  14.507
62365SOL    HW288935   9.055   0.914  14.356
62366SOL     OW88936  10.619   0.681   5.626
62366SOL    HW188937  10.672   0.742   5.576
62366SOL    HW288938  10.671   0.662   5.704
62367SOL     OW88939   7.918  13.904   2.728
62367SOL    HW188940   7.833  13.878   2.693
62367SOL    HW288941   7.979  13.888   2.656
62368SOL     OW88942   7.401   4.978   2.339
62368SOL    HW188943   7.307   4.994   2.330
62368SOL    HW288944   7.407   4.886   2.367
62369SOL     OW88945   1.794   4.975   9.263
62369SOL    HW188946   1.869   5.034   9.259
62369SOL    HW288947   1.823   4.902   9.317
62370SOL     OW88948   0.964   9.367  14.023
62370SOL    HW188949   0.884   9.352  13.974
62370SOL    HW288950   0.961   9.459  14.048
62371SOL     OW88951  13.429  10.061   5.428
62371SOL    HW188952  13.433   9.974   5.388
62371SOL    HW288953  13.508  10.065   5.482
62372SOL     OW88954   6.746   2.703   7.468
62372SOL    HW188955   6.712   2.790   7.488
62372SOL    HW288956   6.839   2.717   7.451
62373SOL     OW88957   8.882   9.438   3.767
62373SOL    HW188958   8.916   9.365   3.716
62373SOL    HW288959   8.855   9.399   3.850
62374SOL     OW88960  11.013   8.614  10.510
62374SOL    HW188961  11.026   8.689  10.568
62374SOL    HW288962  10.962   8.649  10.437
62375SOL     OW88963   6.464   0.437   9.685
62375SOL    HW188964   6.556   0.455   9.670
62375SOL    HW288965   6.461   0.344   9.709
62376SOL     OW88966   1.793  14.322   2.913
62376SOL    HW188967   1.754  14.379   2.847
62376SOL    HW288968   1.800  14.378   2.991
62377SOL     OW88969   8.405  13.761   0.446
62377SOL    HW188970   8.329  13.723   0.490
62377SOL    HW288971   8.451  13.686   0.409
62378SOL     OW88972  14.135   8.275   2.660
62378SOL    HW188973  14.190   8.353   2.666
62378SOL    HW288974  14.120   8.263   2.566
62379SOL     OW88975   5.796   5.617   7.535
62379SOL    HW188976   5.783   5.710   7.519
62379SOL    HW288977   5.808   5.579   7.448
62380SOL     OW88978   3.782  14.667  13.137
62380SOL    HW188979   3.836  14.598  13.176
62380SOL    HW288980   3.742  14.626  13.061
62381SOL     OW88981   5.642   5.934   6.512
62381SOL    HW188982   5.738   5.926   6.513
62381SOL    HW288983   5.615   5.915   6.601
62382SOL     OW88984  13.191   1.938  11.805
62382SOL    HW188985  13.179   1.853  11.763
62382SOL    HW288986  13.183   1.921  11.898
62383SOL     OW88987  13.273   4.835  14.155
62383SOL    HW188988  13.247   4.757  14.204
62383SOL    HW288989  13.196   4.892  14.158
62384SOL     OW88990   8.947   4.238   7.835
62384SOL    HW188991   9.023   4.223   7.891
62384SOL    HW288992   8.918   4.149   7.811
62385SOL     OW88993   0.230   8.596  10.850
62385SOL    HW188994   0.280   8.674  10.877
62385SOL    HW288995   0.139   8.622  10.862
62386SOL     OW88996  10.183  13.560   2.304
62386SOL    HW188997  10.121  13.491   2.281
62386SOL    HW288998  10.269  13.520   2.289
62387SOL     OW88999  14.190   9.148   6.901
62387SOL    HW189000  14.123   9.215   6.887
62387SOL    HW289001  14.199   9.142   6.996
62388SOL     OW89002   0.586   8.500  10.832
62388SOL    HW189003   0.555   8.489  10.922
62388SOL    HW289004   0.540   8.578  10.801
62389SOL     OW89005   6.556  11.398  11.370
62389SOL    HW189006   6.580  11.306  11.369
62389SOL    HW289007   6.610  11.438  11.302
62390SOL     OW89008  14.697   8.576   1.432
62390SOL    HW189009  14.668   8.636   1.363
62390SOL    HW289010  14.708   8.632   1.509
62391SOL     OW89011   3.976   8.918  12.603
62391SOL    HW189012   4.009   8.895  12.690
62391SOL    HW289013   4.018   9.002  12.583
62392SOL     OW89014  13.740   5.120   9.472
62392SOL    HW189015  13.678   5.141   9.542
62392SOL    HW289016  13.770   5.204   9.439
62393SOL     OW89017   5.518   9.352   1.774
62393SOL    HW189018   5.521   9.446   1.752
62393SOL    HW289019   5.430   9.338   1.809
62394SOL     OW89020  10.838   1.325   2.249
62394SOL    HW189021  10.786   1.275   2.186
62394SOL    HW289022  10.805   1.414   2.242
62395SOL     OW89023   3.287   6.662   6.996
62395SOL    HW189024   3.318   6.743   6.955
62395SOL    HW289025   3.192   6.665   6.985
62396SOL     OW89026   1.493  11.648  10.020
62396SOL    HW189027   1.409  11.612   9.990
62396SOL    HW289028   1.550  11.641   9.944
62397SOL     OW89029  11.264   1.494   7.578
62397SOL    HW189030  11.271   1.576   7.628
62397SOL    HW289031  11.279   1.520   7.487
62398SOL     OW89032   9.075  12.462   8.533
62398SOL    HW189033   9.054  12.383   8.483
62398SOL    HW289034   9.099  12.430   8.620
62399SOL     OW89035   8.123   7.995   7.668
62399SOL    HW189036   8.119   8.044   7.751
62399SOL    HW289037   8.035   8.001   7.632
62400SOL     OW89038   4.376   6.173  11.575
62400SOL    HW189039   4.410   6.220  11.499
62400SOL    HW289040   4.451   6.124  11.608
62401SOL     OW89041   7.651   3.759  14.601
62401SOL    HW189042   7.600   3.828  14.560
62401SOL    HW289043   7.671   3.698  14.530
62402SOL     OW89044   1.142   2.049  13.090
62402SOL    HW189045   1.057   2.082  13.060
62402SOL    HW289046   1.205   2.115  13.060
62403SOL     OW89047   9.117   7.911  13.799
62403SOL    HW189048   9.087   7.858  13.725
62403SOL    HW289049   9.118   8.001  13.765
62404SOL     OW89050   5.171  12.918   5.736
62404SOL    HW189051   5.213  12.965   5.665
62404SOL    HW289052   5.129  12.986   5.789
62405SOL     OW89053   7.627   1.318   5.902
62405SOL    HW189054   7.584   1.232   5.896
62405SOL    HW289055   7.555   1.380   5.917
62406SOL     OW89056   9.185  14.437  10.491
62406SOL    HW189057   9.236  14.360  10.465
62406SOL    HW289058   9.211  14.505  10.429
62407SOL     OW89059   2.461   0.403  13.103
62407SOL    HW189060   2.545   0.362  13.085
62407SOL    HW289061   2.481   0.473  13.165
62408SOL     OW89062   3.293   6.819   0.982
62408SOL    HW189063   3.231   6.839   0.912
62408SOL    HW289064   3.271   6.881   1.052
62409SOL     OW89065  11.555   7.551   9.219
62409SOL    HW189066  11.463   7.574   9.229
62409SOL    HW289067  11.565   7.530   9.127
62410SOL     OW89068  11.090   7.650  13.997
62410SOL    HW189069  11.012   7.633  14.049
62410SOL    HW289070  11.093   7.745  13.987
62411SOL     OW89071   0.202   7.239  10.029
62411SOL    HW189072   0.120   7.285  10.050
62411SOL    HW289073   0.202   7.163  10.088
62412SOL     OW89074  13.056  13.015  12.364
62412SOL    HW189075  13.028  13.087  12.421
62412SOL    HW289076  13.143  13.040  12.334
62413SOL     OW89077   5.634  13.217   2.924
62413SOL    HW189078   5.713  13.190   2.970
62413SOL    HW289079   5.562  13.183   2.977
62414SOL     OW89080   4.591   7.530  10.364
62414SOL    HW189081   4.633   7.557  10.446
62414SOL    HW289082   4.648   7.565  10.295
62415SOL     OW89083   3.826   7.536  11.302
62415SOL    HW189084   3.797   7.450  11.272
62415SOL    HW289085   3.918   7.541  11.277
62416SOL     OW89086   6.841   1.423  13.180
62416SOL    HW189087   6.812   1.486  13.114
62416SOL    HW289088   6.880   1.476  13.249
62417SOL     OW89089   6.773   7.678  11.620
62417SOL    HW189090   6.735   7.634  11.544
62417SOL    HW289091   6.754   7.621  11.694
62418SOL     OW89092  13.757   8.951  10.924
62418SOL    HW189093  13.811   8.895  10.868
62418SOL    HW289094  13.767   8.914  11.012
62419SOL     OW89095   6.784   8.823  10.946
62419SOL    HW189096   6.777   8.743  10.999
62419SOL    HW289097   6.767   8.794  10.856
62420SOL     OW89098   8.544   0.233  12.094
62420SOL    HW189099   8.459   0.277  12.096
62420SOL    HW289100   8.524   0.141  12.111
62421SOL     OW89101  12.013  11.515   3.524
62421SOL    HW189102  12.094  11.496   3.475
62421SOL    HW289103  11.966  11.431   3.525
62422SOL     OW89104   7.551   3.998   5.222
62422SOL    HW189105   7.592   3.970   5.304
62422SOL    HW289106   7.555   4.093   5.224
62423SOL     OW89107   0.517   1.281  12.745
62423SOL    HW189108   0.577   1.221  12.790
62423SOL    HW289109   0.433   1.268  12.788
62424SOL     OW89110  12.598   1.385  12.441
62424SOL    HW189111  12.606   1.400  12.535
62424SOL    HW289112  12.505   1.364  12.428
62425SOL     OW89113  13.039  10.370   4.381
62425SOL    HW189114  13.109  10.342   4.321
62425SOL    HW289115  13.001  10.288   4.413
62426SOL     OW89116  12.661   0.075  12.562
62426SOL    HW189117  12.586   0.093  12.505
62426SOL    HW289118  12.623   0.070  12.650
62427SOL     OW89119   3.250   3.522   0.375
62427SOL    HW189120   3.182   3.502   0.439
62427SOL    HW289121   3.213   3.594   0.323
62428SOL     OW89122  14.291  12.675   7.183
62428SOL    HW189123  14.327  12.704   7.100
62428SOL    HW289124  14.269  12.756   7.229
62429SOL     OW89125   5.020   0.690  10.066
62429SOL    HW189126   4.953   0.680   9.999
62429SOL    HW289127   5.068   0.769  10.040
62430SOL     OW89128  11.655  12.104   8.660
62430SOL    HW189129  11.736  12.056   8.644
62430SOL    HW289130  11.585  12.046   8.630
62431SOL     OW89131   0.638   0.542   6.859
62431SOL    HW189132   0.613   0.452   6.839
62431SOL    HW289133   0.683   0.536   6.944
62432SOL     OW89134   6.375  13.716   7.986
62432SOL    HW189135   6.405  13.625   7.976
62432SOL    HW289136   6.453  13.768   7.969
62433SOL     OW89137  12.668  10.611   6.918
62433SOL    HW189138  12.617  10.531   6.909
62433SOL    HW289139  12.602  10.681   6.929
62434SOL     OW89140   3.292   5.979   3.859
62434SOL    HW189141   3.311   5.914   3.926
62434SOL    HW289142   3.222   6.033   3.896
62435SOL     OW89143   8.810  11.304   3.178
62435SOL    HW189144   8.754  11.249   3.124
62435SOL    HW289145   8.877  11.337   3.118
62436SOL     OW89146   0.572   4.707   0.012
62436SOL    HW189147   0.537   4.711  14.803
62436SOL    HW289148   0.496   4.689   0.068
62437SOL     OW89149   1.141   4.183  13.262
62437SOL    HW189150   1.231   4.151  13.273
62437SOL    HW289151   1.115   4.150  13.175
62438SOL     OW89152   3.994  10.841  10.165
62438SOL    HW189153   3.913  10.863  10.211
62438SOL    HW289154   3.988  10.887  10.081
62439SOL     OW89155   7.680   7.776   1.542
62439SOL    HW189156   7.637   7.696   1.511
62439SOL    HW289157   7.765   7.746   1.573
62440SOL     OW89158   9.288  11.461   8.432
62440SOL    HW189159   9.250  11.542   8.466
62440SOL    HW289160   9.212  11.404   8.416
62441SOL     OW89161   3.408   3.135  13.700
62441SOL    HW189162   3.387   3.088  13.619
62441SOL    HW289163   3.481   3.192  13.675
62442SOL     OW89164  14.451  14.657   0.021
62442SOL    HW189165  14.428  14.746   0.047
62442SOL    HW289166  14.535  14.640   0.065
62443SOL     OW89167   2.091   8.275   7.331
62443SOL    HW189168   2.149   8.205   7.362
62443SOL    HW289169   2.143   8.324   7.267
62444SOL     OW89170   1.881   9.539   2.892
62444SOL    HW189171   1.883   9.519   2.798
62444SOL    HW289172   1.965   9.582   2.908
62445SOL     OW89173   9.862   7.759  10.430
62445SOL    HW189174   9.913   7.695  10.480
62445SOL    HW289175   9.926   7.823  10.399
62446SOL     OW89176   7.416  13.766   1.971
62446SOL    HW189177   7.343  13.748   2.031
62446SOL    HW289178   7.386  13.838   1.917
62447SOL     OW89179  11.501  13.678  14.795
62447SOL    HW189180  11.517  13.707   0.005
62447SOL    HW289181  11.538  13.590  14.791
62448SOL     OW89182   1.844  14.817  14.703
62448SOL    HW189183   1.872   0.029  14.695
62448SOL    HW289184   1.756  14.816  14.664
62449SOL     OW89185   8.359   1.232  11.708
62449SOL    HW189186   8.282   1.285  11.687
62449SOL    HW289187   8.433   1.283  11.675
62450SOL     OW89188  10.437   2.305  12.198
62450SOL    HW189189  10.503   2.352  12.249
62450SOL    HW289190  10.363   2.365  12.193
62451SOL     OW89191   4.662   7.034   9.446
62451SOL    HW189192   4.611   7.110   9.416
62451SOL    HW289193   4.706   7.064   9.525
62452SOL     OW89194   5.972   3.323   9.812
62452SOL    HW189195   6.035   3.382   9.855
62452SOL    HW289196   5.939   3.374   9.738
62453SOL     OW89197   9.803   2.718   8.818
62453SOL    HW189198   9.810   2.740   8.725
62453SOL    HW289199   9.808   2.623   8.821
62454SOL     OW89200   7.456   3.381   2.599
62454SOL    HW189201   7.500   3.297   2.590
62454SOL    HW289202   7.368   3.359   2.631
62455SOL     OW89203   2.996   7.343   8.696
62455SOL    HW189204   2.918   7.398   8.695
62455SOL    HW289205   3.056   7.385   8.635
62456SOL     OW89206   5.925   6.993   3.158
62456SOL    HW189207   6.014   6.973   3.188
62456SOL    HW289208   5.928   7.084   3.131
62457SOL     OW89209   9.644   5.221   5.899
62457SOL    HW189210   9.574   5.257   5.954
62457SOL    HW289211   9.719   5.277   5.917
62458SOL     OW89212  14.118   8.463  14.765
62458SOL    HW189213  14.086   8.429  14.682
62458SOL    HW289214  14.097   8.395  14.829
62459SOL     OW89215  13.770   1.715   7.383
62459SOL    HW189216  13.676   1.714   7.402
62459SOL    HW289217  13.778   1.765   7.303
62460SOL     OW89218  14.685   0.646   6.611
62460SOL    HW189219  14.690   0.714   6.544
62460SOL    HW289220  14.593   0.644   6.637
62461SOL     OW89221   3.799   4.839   3.468
62461SOL    HW189222   3.781   4.768   3.406
62461SOL    HW289223   3.778   4.919   3.421
62462SOL     OW89224   3.141   4.755  12.514
62462SOL    HW189225   3.055   4.794  12.532
62462SOL    HW289226   3.196   4.829  12.487
62463SOL     OW89227   8.414   2.543   3.756
62463SOL    HW189228   8.442   2.466   3.707
62463SOL    HW289229   8.331   2.568   3.715
62464SOL     OW89230   6.570   5.658   9.988
62464SOL    HW189231   6.650   5.709   9.995
62464SOL    HW289232   6.536   5.679   9.901
62465SOL     OW89233   3.970   9.089  14.249
62465SOL    HW189234   4.006   9.110  14.163
62465SOL    HW289235   3.923   9.168  14.275
62466SOL     OW89236   9.787   2.808   1.962
62466SOL    HW189237   9.764   2.727   1.916
62466SOL    HW289238   9.731   2.875   1.923
62467SOL     OW89239   4.249   4.155   7.882
62467SOL    HW189240   4.209   4.235   7.847
62467SOL    HW289241   4.181   4.089   7.872
62468SOL     OW89242   9.819   2.302   0.136
62468SOL    HW189243   9.863   2.378   0.173
62468SOL    HW289244   9.735   2.298   0.183
62469SOL     OW89245  14.736   5.598   6.245
62469SOL    HW189246  14.713   5.645   6.164
62469SOL    HW289247  14.830   5.584   6.238
62470SOL     OW89248   9.284   5.524   4.382
62470SOL    HW189249   9.242   5.518   4.468
62470SOL    HW289250   9.378   5.532   4.402
62471SOL     OW89251   2.240   8.060   4.140
62471SOL    HW189252   2.260   7.981   4.189
62471SOL    HW289253   2.325   8.098   4.119
62472SOL     OW89254  11.232  11.396   2.530
62472SOL    HW189255  11.202  11.431   2.445
62472SOL    HW289256  11.327  11.391   2.521
62473SOL     OW89257   8.291  13.847  13.831
62473SOL    HW189258   8.300  13.929  13.784
62473SOL    HW289259   8.202  13.817  13.811
62474SOL     OW89260   6.439  11.041   2.606
62474SOL    HW189261   6.440  11.136   2.618
62474SOL    HW289262   6.357  11.023   2.559
62475SOL     OW89263   0.252   7.433   0.600
62475SOL    HW189264   0.200   7.383   0.663
62475SOL    HW289265   0.200   7.511   0.582
62476SOL     OW89266   9.980  12.883   1.817
62476SOL    HW189267   9.910  12.825   1.848
62476SOL    HW289268  10.053  12.866   1.876
62477SOL     OW89269  13.811  11.431  10.389
62477SOL    HW189270  13.733  11.433  10.333
62477SOL    HW289271  13.843  11.341  10.382
62478SOL     OW89272  11.976   2.777   1.065
62478SOL    HW189273  11.916   2.735   1.004
62478SOL    HW289274  12.041   2.821   1.010
62479SOL     OW89275   4.140   2.818  12.667
62479SOL    HW189276   4.187   2.886  12.619
62479SOL    HW289277   4.186   2.811  12.751
62480SOL     OW89278   3.681   0.882   1.553
62480SOL    HW189279   3.681   0.810   1.616
62480SOL    HW289280   3.680   0.839   1.468
62481SOL     OW89281   1.022  14.141  11.266
62481SOL    HW189282   1.084  14.201  11.308
62481SOL    HW289283   0.995  14.081  11.335
62482SOL     OW89284  14.235   5.112  10.211
62482SOL    HW189285  14.270   5.024  10.225
62482SOL    HW289286  14.142   5.098  10.193
62483SOL     OW89287  13.604  14.178   3.118
62483SOL    HW189288  13.682  14.134   3.152
62483SOL    HW289289  13.638  14.243   3.056
62484SOL     OW89290   1.319  13.764   5.675
62484SOL    HW189291   1.387  13.785   5.739
62484SOL    HW289292   1.253  13.716   5.724
62485SOL     OW89293   5.622   3.959  10.415
62485SOL    HW189294   5.605   3.866  10.396
62485SOL    HW289295   5.548   3.987  10.467
62486SOL     OW89296   5.792  14.613   6.502
62486SOL    HW189297   5.821  14.672   6.432
62486SOL    HW289298   5.715  14.568   6.465
62487SOL     OW89299   2.370  14.602   4.563
62487SOL    HW189300   2.302  14.638   4.621
62487SOL    HW289301   2.338  14.621   4.475
62488SOL     OW89302  11.386  12.186   9.846
62488SOL    HW189303  11.449  12.220   9.783
62488SOL    HW289304  11.426  12.202   9.932
62489SOL     OW89305   1.465  14.387  12.848
62489SOL    HW189306   1.376  14.359  12.824
62489SOL    HW289307   1.478  14.469  12.800
62490SOL     OW89308   8.805   9.663   5.651
62490SOL    HW189309   8.835   9.585   5.605
62490SOL    HW289310   8.711   9.667   5.634
62491SOL     OW89311   5.019   6.802   3.205
62491SOL    HW189312   4.941   6.844   3.168
62491SOL    HW289313   5.046   6.861   3.276
62492SOL     OW89314  10.307   6.046  13.704
62492SOL    HW189315  10.269   6.108  13.642
62492SOL    HW289316  10.371   5.997  13.652
62493SOL     OW89317   6.509   0.755   4.299
62493SOL    HW189318   6.542   0.732   4.212
62493SOL    HW289319   6.574   0.717   4.359
62494SOL     OW89320  11.392   5.609  10.450
62494SOL    HW189321  11.307   5.647  10.472
62494SOL    HW289322  11.418   5.652  10.368
62495SOL     OW89323   7.197   3.710   0.339
62495SOL    HW189324   7.255   3.765   0.286
62495SOL    HW289325   7.246   3.630   0.355
62496SOL     OW89326  11.445   2.098   4.920
62496SOL    HW189327  11.477   2.118   5.008
62496SOL    HW289328  11.489   2.016   4.897
62497SOL     OW89329   5.335  14.503   2.908
62497SOL    HW189330   5.420  14.517   2.951
62497SOL    HW289331   5.349  14.429   2.849
62498SOL     OW89332  14.029  12.513   0.640
62498SOL    HW189333  14.064  12.447   0.700
62498SOL    HW289334  13.938  12.524   0.665
62499SOL     OW89335   5.292  11.839   4.409
62499SOL    HW189336   5.370  11.846   4.464
62499SOL    HW289337   5.221  11.818   4.470
62500SOL     OW89338   2.045  11.264   9.167
62500SOL    HW189339   2.105  11.286   9.095
62500SOL    HW289340   1.959  11.294   9.136
62501SOL     OW89341   2.626  13.500   4.466
62501SOL    HW189342   2.541  13.457   4.468
62501SOL    HW289343   2.680  13.450   4.527
62502SOL     OW89344   9.123   9.157  11.319
62502SOL    HW189345   9.088   9.079  11.276
62502SOL    HW289346   9.217   9.140  11.329
62503SOL     OW89347   6.385   8.154   2.741
62503SOL    HW189348   6.331   8.143   2.663
62503SOL    HW289349   6.419   8.243   2.733
62504SOL     OW89350   7.754  10.567   6.442
62504SOL    HW189351   7.794  10.485   6.468
62504SOL    HW289352   7.694  10.544   6.372
62505SOL     OW89353   1.294   1.854  12.821
62505SOL    HW189354   1.312   1.789  12.754
62505SOL    HW289355   1.199   1.856  12.829
62506SOL     OW89356   5.107   3.092  14.739
62506SOL    HW189357   5.169   3.131  14.801
62506SOL    HW289358   5.023   3.093  14.786
62507SOL     OW89359   2.548   7.609   1.940
62507SOL    HW189360   2.456   7.617   1.914
62507SOL    HW289361   2.549   7.633   2.032
62508SOL     OW89362   1.056  11.453   8.018
62508SOL    HW189363   1.058  11.521   8.086
62508SOL    HW289364   1.086  11.374   8.062
62509SOL     OW89365   0.579  12.042   5.408
62509SOL    HW189366   0.512  12.099   5.371
62509SOL    HW289367   0.632  12.015   5.332
62510SOL     OW89368   0.474   4.511  11.529
62510SOL    HW189369   0.385   4.476  11.516
62510SOL    HW289370   0.468   4.601  11.498
62511SOL     OW89371   6.852   2.081   8.527
62511SOL    HW189372   6.820   2.157   8.575
62511SOL    HW289373   6.812   2.089   8.440
62512SOL     OW89374   6.973  11.728  13.787
62512SOL    HW189375   7.059  11.766  13.801
62512SOL    HW289376   6.917  11.769  13.852
62513SOL     OW89377  10.787   9.876  13.140
62513SOL    HW189378  10.866   9.902  13.186
62513SOL    HW289379  10.793   9.780  13.133
62514SOL     OW89380  12.487  12.357   4.712
62514SOL    HW189381  12.422  12.423   4.738
62514SOL    HW289382  12.439  12.274   4.714
62515SOL     OW89383   3.482   5.964   4.534
62515SOL    HW189384   3.568   5.945   4.570
62515SOL    HW289385   3.483   6.059   4.519
62516SOL     OW89386  14.231  13.287   2.393
62516SOL    HW189387  14.212  13.271   2.300
62516SOL    HW289388  14.145  13.298   2.433
62517SOL     OW89389   8.175   3.932   7.081
62517SOL    HW189390   8.142   3.951   7.169
62517SOL    HW289391   8.269   3.948   7.086
62518SOL     OW89392   5.507   5.043   0.386
62518SOL    HW189393   5.480   5.039   0.294
62518SOL    HW289394   5.525   5.136   0.402
62519SOL     OW89395   0.160   8.313  12.255
62519SOL    HW189396   0.077   8.291  12.298
62519SOL    HW289397   0.165   8.253  12.180
62520SOL     OW89398   3.008   4.089  13.304
62520SOL    HW189399   3.062   4.010  13.305
62520SOL    HW289400   3.065   4.156  13.266
62521SOL     OW89401   6.172   9.821  10.029
62521SOL    HW189402   6.156   9.854   9.941
62521SOL    HW289403   6.203   9.897  10.079
62522SOL     OW89404  10.458  10.573   7.315
62522SOL    HW189405  10.367  10.595   7.296
62522SOL    HW289406  10.505  10.656   7.308
62523SOL     OW89407   8.895  12.120   2.803
62523SOL    HW189408   8.859  12.032   2.790
62523SOL    HW289409   8.875  12.141   2.894
62524SOL     OW89410  14.366   2.284  12.268
62524SOL    HW189411  14.366   2.249  12.357
62524SOL    HW289412  14.403   2.372  12.276
62525SOL     OW89413   4.341   3.187   8.181
62525SOL    HW189414   4.394   3.193   8.260
62525SOL    HW289415   4.405   3.188   8.109
62526SOL     OW89416   3.006  13.885  12.825
62526SOL    HW189417   3.084  13.909  12.774
62526SOL    HW289418   2.939  13.868  12.758
62527SOL     OW89419  10.511  13.844   3.726
62527SOL    HW189420  10.580  13.789   3.763
62527SOL    HW289421  10.456  13.784   3.675
62528SOL     OW89422  14.603   5.379   6.371
62528SOL    HW189423  14.641   5.466   6.362
62528SOL    HW289424  14.659   5.322   6.318
62529SOL     OW89425   4.640   7.304   0.419
62529SOL    HW189426   4.591   7.330   0.341
62529SOL    HW289427   4.591   7.228   0.453
62530SOL     OW89428  11.166   3.907   6.906
62530SOL    HW189429  11.089   3.959   6.930
62530SOL    HW289430  11.140   3.860   6.828
62531SOL     OW89431  12.044   2.966  13.270
62531SOL    HW189432  12.075   3.057  13.266
62531SOL    HW289433  12.113   2.916  13.226
62532SOL     OW89434  11.299   3.954   4.615
62532SOL    HW189435  11.282   4.045   4.589
62532SOL    HW289436  11.378   3.930   4.566
62533SOL     OW89437  11.027  10.759  14.691
62533SOL    HW189438  11.120  10.767  14.670
62533SOL    HW289439  11.003  10.845  14.725
62534SOL     OW89440   4.306   9.075  12.941
62534SOL    HW189441   4.237   9.112  12.996
62534SOL    HW289442   4.383   9.072  12.999
62535SOL     OW89443   9.101   9.480   3.494
62535SOL    HW189444   9.040   9.549   3.467
62535SOL    HW289445   9.185   9.526   3.507
62536SOL     OW89446   5.752  11.610  13.309
62536SOL    HW189447   5.791  11.611  13.221
62536SOL    HW289448   5.697  11.533  13.310
62537SOL     OW89449  14.207  14.789   1.704
62537SOL    HW189450  14.275  14.814   1.641
62537SOL    HW289451  14.219  14.694   1.715
62538SOL     OW89452   9.749  13.091  10.538
62538SOL    HW189453   9.791  13.049  10.613
62538SOL    HW289454   9.699  13.022  10.495
62539SOL     OW89455  10.208   3.096   3.680
62539SOL    HW189456  10.134   3.110   3.621
62539SOL    HW289457  10.204   3.169   3.742
62540SOL     OW89458   2.646   8.768   6.879
62540SOL    HW189459   2.585   8.817   6.935
62540SOL    HW289460   2.714   8.737   6.939
62541SOL     OW89461   6.280   7.501   5.047
62541SOL    HW189462   6.340   7.576   5.038
62541SOL    HW289463   6.230   7.520   5.126
62542SOL     OW89464   8.678   2.854  10.121
62542SOL    HW189465   8.704   2.892  10.204
62542SOL    HW289466   8.742   2.785  10.104
62543SOL     OW89467   7.313  14.721   9.102
62543SOL    HW189468   7.381  14.671   9.147
62543SOL    HW289469   7.278  14.779   9.170
62544SOL     OW89470   0.839  14.457   3.601
62544SOL    HW189471   0.890  14.395   3.652
62544SOL    HW289472   0.806  14.520   3.665
62545SOL     OW89473   5.781  13.086   4.897
62545SOL    HW189474   5.687  13.069   4.887
62545SOL    HW289475   5.807  13.125   4.813
62546SOL     OW89476   0.912   0.129  10.479
62546SOL    HW189477   0.989   0.103  10.429
62546SOL    HW289478   0.894   0.053  10.536
62547SOL     OW89479   8.467   5.616   2.716
62547SOL    HW189480   8.451   5.522   2.712
62547SOL    HW289481   8.399   5.655   2.661
62548SOL     OW89482   9.482   6.467   8.494
62548SOL    HW189483   9.471   6.560   8.515
62548SOL    HW289484   9.481   6.423   8.579
62549SOL     OW89485  12.378   3.799  12.726
62549SOL    HW189486  12.374   3.849  12.807
62549SOL    HW289487  12.339   3.715  12.748
62550SOL     OW89488  13.441   2.430   8.964
62550SOL    HW189489  13.364   2.465   8.919
62550SOL    HW289490  13.492   2.388   8.894
62551SOL     OW89491   8.203  14.550   3.282
62551SOL    HW189492   8.260  14.626   3.270
62551SOL    HW289493   8.240  14.505   3.358
62552SOL     OW89494  14.844  13.878   2.544
62552SOL    HW189495  14.793  13.876   2.625
62552SOL    HW289496   0.054  13.857   2.571
62553SOL     OW89497  14.273   9.792   1.252
62553SOL    HW189498  14.329   9.849   1.305
62553SOL    HW289499  14.326   9.772   1.175
62554SOL     OW89500   1.317   4.651  13.534
62554SOL    HW189501   1.384   4.638  13.602
62554SOL    HW289502   1.244   4.691  13.580
62555SOL     OW89503   1.214   3.143   9.726
62555SOL    HW189504   1.188   3.052   9.717
62555SOL    HW289505   1.285   3.155   9.663
62556SOL     OW89506   8.622   3.936  10.013
62556SOL    HW189507   8.698   3.991  10.033
62556SOL    HW289508   8.554   3.966  10.074
62557SOL     OW89509   2.546   0.273  11.890
62557SOL    HW189510   2.609   0.211  11.853
62557SOL    HW289511   2.484   0.217  11.938
62558SOL     OW89512   6.869   6.892   6.836
62558SOL    HW189513   6.871   6.952   6.911
62558SOL    HW289514   6.922   6.817   6.865
62559SOL     OW89515  13.905   9.727  14.018
62559SOL    HW189516  13.941   9.763  13.937
62559SOL    HW289517  13.813   9.755  14.018
62560SOL     OW89518   9.497  13.640   2.837
62560SOL    HW189519   9.568  13.582   2.810
62560SOL    HW289520   9.476  13.690   2.758
62561SOL     OW89521   8.977  13.999  11.302
62561SOL    HW189522   8.962  14.049  11.221
62561SOL    HW289523   9.041  14.051  11.351
62562SOL     OW89524   1.763   5.088   1.762
62562SOL    HW189525   1.728   5.050   1.843
62562SOL    HW289526   1.812   5.017   1.721
62563SOL     OW89527   9.421   4.958   0.502
62563SOL    HW189528   9.459   4.994   0.421
62563SOL    HW289529   9.332   4.934   0.477
62564SOL     OW89530   3.302   7.453  12.855
62564SOL    HW189531   3.206   7.451  12.861
62564SOL    HW289532   3.327   7.363  12.833
62565SOL     OW89533   4.925   3.802   4.454
62565SOL    HW189534   4.841   3.801   4.408
62565SOL    HW289535   4.987   3.838   4.391
62566SOL     OW89536  13.509   2.633   8.436
62566SOL    HW189537  13.436   2.634   8.498
62566SOL    HW289538  13.576   2.687   8.479
62567SOL     OW89539   9.583   9.936  13.784
62567SOL    HW189540   9.652   9.878  13.817
62567SOL    HW289541   9.582   9.919  13.689
62568SOL     OW89542   3.928  11.311   9.714
62568SOL    HW189543   3.874  11.299   9.636
62568SOL    HW289544   3.865  11.320   9.786
62569SOL     OW89545   6.504  11.595   9.961
62569SOL    HW189546   6.585  11.547   9.942
62569SOL    HW289547   6.486  11.577  10.053
62570SOL     OW89548   8.876   6.964  13.381
62570SOL    HW189549   8.794   6.931  13.419
62570SOL    HW289550   8.944   6.930  13.439
62571SOL     OW89551  12.116   0.591  11.944
62571SOL    HW189552  12.193   0.641  11.916
62571SOL    HW289553  12.082   0.640  12.018
62572SOL     OW89554   3.146  10.955  10.206
62572SOL    HW189555   3.063  10.940  10.162
62572SOL    HW289556   3.143  10.898  10.283
62573SOL     OW89557   7.253  10.603   5.491
62573SOL    HW189558   7.298  10.594   5.575
62573SOL    HW289559   7.290  10.533   5.437
62574SOL     OW89560   4.749  10.521  13.096
62574SOL    HW189561   4.708  10.604  13.074
62574SOL    HW289562   4.799  10.539  13.175
62575SOL     OW89563   6.560   0.293   2.143
62575SOL    HW189564   6.554   0.265   2.234
62575SOL    HW289565   6.647   0.263   2.114
62576SOL     OW89566   7.769  13.592   9.629
62576SOL    HW189567   7.763  13.687   9.641
62576SOL    HW289568   7.803  13.581   9.540
62577SOL     OW89569   7.994   5.595   1.584
62577SOL    HW189570   8.086   5.601   1.561
62577SOL    HW289571   7.947   5.600   1.501
62578SOL     OW89572   1.857   2.216   1.342
62578SOL    HW189573   1.785   2.278   1.356
62578SOL    HW289574   1.921   2.266   1.290
62579SOL     OW89575   0.866  13.350   9.835
62579SOL    HW189576   0.838  13.394   9.755
62579SOL    HW289577   0.796  13.369   9.899
62580SOL     OW89578   9.908   2.753   2.371
62580SOL    HW189579   9.822   2.793   2.364
62580SOL    HW289580   9.904   2.678   2.311
62581SOL     OW89581  14.234   0.033  13.365
62581SOL    HW189582  14.152  14.874  13.335
62581SOL    HW289583  14.213   0.124  13.383
62582SOL     OW89584   7.139   1.650  10.421
62582SOL    HW189585   7.088   1.631  10.500
62582SOL    HW289586   7.160   1.743  10.427
62583SOL     OW89587   8.460   6.328   9.263
62583SOL    HW189588   8.539   6.303   9.214
62583SOL    HW289589   8.390   6.278   9.222
62584SOL     OW89590   1.984  14.678   5.748
62584SOL    HW189591   1.924  14.604   5.753
62584SOL    HW289592   1.957  14.736   5.819
62585SOL     OW89593   9.362  11.563  14.587
62585SOL    HW189594   9.367  11.519  14.503
62585SOL    HW289595   9.446  11.607  14.597
62586SOL     OW89596   0.301  12.693  13.777
62586SOL    HW189597   0.343  12.761  13.725
62586SOL    HW289598   0.367  12.669  13.842
62587SOL     OW89599   6.864  14.477  13.222
62587SOL    HW189600   6.866  14.393  13.178
62587SOL    HW289601   6.930  14.470  13.290
62588SOL     OW89602   2.776  12.027  12.816
62588SOL    HW189603   2.866  12.015  12.784
62588SOL    HW289604   2.780  12.002  12.908
62589SOL     OW89605   3.426   3.372   1.397
62589SOL    HW189606   3.465   3.298   1.349
62589SOL    HW289607   3.353   3.400   1.341
62590SOL     OW89608   8.676  10.247   5.770
62590SOL    HW189609   8.740  10.308   5.733
62590SOL    HW289610   8.679  10.263   5.865
62591SOL     OW89611   7.153   2.665   1.392
62591SOL    HW189612   7.068   2.622   1.386
62591SOL    HW289613   7.138   2.740   1.450
62592SOL     OW89614   4.483   1.358   5.736
62592SOL    HW189615   4.478   1.354   5.831
62592SOL    HW289616   4.407   1.410   5.710
62593SOL     OW89617   3.500   4.690   3.625
62593SOL    HW189618   3.564   4.635   3.579
62593SOL    HW289619   3.553   4.756   3.670
62594SOL     OW89620   6.329  13.405   3.044
62594SOL    HW189621   6.253  13.366   3.003
62594SOL    HW289622   6.308  13.406   3.138
62595SOL     OW89623   8.686   7.526   8.339
62595SOL    HW189624   8.766   7.548   8.387
62595SOL    HW289625   8.683   7.431   8.339
62596SOL     OW89626   3.370   7.148  10.341
62596SOL    HW189627   3.328   7.223  10.383
62596SOL    HW289628   3.404   7.096  10.413
62597SOL     OW89629   5.832  11.601   0.435
62597SOL    HW189630   5.846  11.508   0.419
62597SOL    HW289631   5.772  11.628   0.365
62598SOL     OW89632  10.815   3.459  13.254
62598SOL    HW189633  10.832   3.455  13.348
62598SOL    HW289634  10.884   3.404  13.215
62599SOL     OW89635   5.819   6.283  14.082
62599SOL    HW189636   5.787   6.333  14.156
62599SOL    HW289637   5.813   6.191  14.110
62600SOL     OW89638   7.936  10.305   4.858
62600SOL    HW189639   8.007  10.289   4.796
62600SOL    HW289640   7.858  10.314   4.804
62601SOL     OW89641   0.376   3.878   8.695
62601SOL    HW189642   0.298   3.872   8.639
62601SOL    HW289643   0.443   3.915   8.638
62602SOL     OW89644  11.468   6.938   4.862
62602SOL    HW189645  11.518   7.012   4.896
62602SOL    HW289646  11.382   6.946   4.903
62603SOL     OW89647   2.061   8.560   9.914
62603SOL    HW189648   2.008   8.622   9.864
62603SOL    HW289649   1.999   8.522   9.977
62604SOL     OW89650   8.016   5.763   7.378
62604SOL    HW189651   8.062   5.832   7.331
62604SOL    HW289652   8.025   5.686   7.322
62605SOL     OW89653   6.560   9.824   1.284
62605SOL    HW189654   6.491   9.884   1.310
62605SOL    HW289655   6.615   9.815   1.362
62606SOL     OW89656  12.527  12.236  13.830
62606SOL    HW189657  12.563  12.322  13.808
62606SOL    HW289658  12.491  12.203  13.748
62607SOL     OW89659   4.702  14.765   6.854
62607SOL    HW189660   4.660  14.679   6.847
62607SOL    HW289661   4.632  14.828   6.835
62608SOL     OW89662  14.178  11.267  12.776
62608SOL    HW189663  14.227  11.347  12.796
62608SOL    HW289664  14.234  11.196  12.807
62609SOL     OW89665   1.087   7.752   8.460
62609SOL    HW189666   1.083   7.794   8.546
62609SOL    HW289667   1.173   7.711   8.458
62610SOL     OW89668   8.185   8.618   2.733
62610SOL    HW189669   8.169   8.635   2.641
62610SOL    HW289670   8.256   8.677   2.757
62611SOL     OW89671  12.292  12.766   1.823
62611SOL    HW189672  12.295  12.674   1.796
62611SOL    HW289673  12.306  12.763   1.918
62612SOL     OW89674   2.300   7.658   8.145
62612SOL    HW189675   2.269   7.575   8.181
62612SOL    HW289676   2.221   7.706   8.122
62613SOL     OW89677   2.363   7.893   9.599
62613SOL    HW189678   2.410   7.846   9.668
62613SOL    HW289679   2.371   7.986   9.623
62614SOL     OW89680   2.266  10.648  14.339
62614SOL    HW189681   2.261  10.739  14.368
62614SOL    HW289682   2.182  10.610  14.365
62615SOL     OW89683   9.621   6.158  12.541
62615SOL    HW189684   9.545   6.191  12.588
62615SOL    HW289685   9.621   6.205  12.458
62616SOL     OW89686   1.860   0.803  14.576
62616SOL    HW189687   1.764   0.796  14.573
62616SOL    HW289688   1.887   0.801  14.485
62617SOL     OW89689   9.556   3.940   8.076
62617SOL    HW189690   9.499   3.995   8.022
62617SOL    HW289691   9.526   3.955   8.165
62618SOL     OW89692  10.606   1.709   3.820
62618SOL    HW189693  10.656   1.636   3.784
62618SOL    HW289694  10.653   1.734   3.900
62619SOL     OW89695   7.106  13.103   0.379
62619SOL    HW189696   7.201  13.093   0.388
62619SOL    HW289697   7.070  13.034   0.434
62620SOL     OW89698   0.099   7.372   6.949
62620SOL    HW189699   0.044   7.385   7.026
62620SOL    HW289700   0.184   7.408   6.974
62621SOL     OW89701   6.631   9.948  11.761
62621SOL    HW189702   6.698   9.937  11.828
62621SOL    HW289703   6.677   9.936  11.678
62622SOL     OW89704  10.792  10.966   4.525
62622SOL    HW189705  10.837  10.887   4.555
62622SOL    HW289706  10.854  11.037   4.543
62623SOL     OW89707   4.919   3.042   4.041
62623SOL    HW189708   4.994   3.032   3.981
62623SOL    HW289709   4.843   3.046   3.983
62624SOL     OW89710   9.856   2.800   6.400
62624SOL    HW189711   9.780   2.840   6.358
62624SOL    HW289712   9.826   2.777   6.488
62625SOL     OW89713   8.528   0.250   5.867
62625SOL    HW189714   8.564   0.161   5.870
62625SOL    HW289715   8.605   0.307   5.862
62626SOL     OW89716   4.712   5.504   8.073
62626SOL    HW189717   4.675   5.587   8.042
62626SOL    HW289718   4.731   5.456   7.992
62627SOL     OW89719  11.943  11.949  10.074
62627SOL    HW189720  12.013  12.013  10.059
62627SOL    HW289721  11.889  11.989  10.141
62628SOL     OW89722   9.980  13.120   2.889
62628SOL    HW189723   9.940  13.080   2.811
62628SOL    HW289724  10.039  13.187   2.854
62629SOL     OW89725  10.447  12.100   5.059
62629SOL    HW189726  10.541  12.110   5.043
62629SOL    HW289727  10.415  12.050   4.984
62630SOL     OW89728   7.174   5.253   4.096
62630SOL    HW189729   7.174   5.158   4.087
62630SOL    HW289730   7.237   5.284   4.030
62631SOL     OW89731   8.683   7.413   5.125
62631SOL    HW189732   8.597   7.450   5.108
62631SOL    HW289733   8.715   7.386   5.039
62632SOL     OW89734   9.817   1.134  12.084
62632SOL    HW189735   9.753   1.141  12.154
62632SOL    HW289736   9.778   1.181  12.010
62633SOL     OW89737   8.335   0.076  11.186
62633SOL    HW189738   8.395   0.137  11.142
62633SOL    HW289739   8.339  14.875  11.133
62634SOL     OW89740  13.224   9.861   9.169
62634SOL    HW189741  13.282   9.930   9.202
62634SOL    HW289742  13.141   9.877   9.214
62635SOL     OW89743   3.008   9.633   1.794
62635SOL    HW189744   3.019   9.575   1.869
62635SOL    HW289745   3.060   9.710   1.815
62636SOL     OW89746   7.249  12.851  12.799
62636SOL    HW189747   7.172  12.861  12.743
62636SOL    HW289748   7.311  12.801  12.746
62637SOL     OW89749  12.812   2.428   0.728
62637SOL    HW189750  12.723   2.461   0.739
62637SOL    HW289751  12.802   2.334   0.715
62638SOL     OW89752   6.807   6.205   9.188
62638SOL    HW189753   6.833   6.150   9.261
62638SOL    HW289754   6.861   6.177   9.115
62639SOL     OW89755   8.386   8.981  12.537
62639SOL    HW189756   8.320   8.916  12.511
62639SOL    HW289757   8.347   9.065  12.516
62640SOL     OW89758   3.668   8.496   7.421
62640SOL    HW189759   3.579   8.481   7.390
62640SOL    HW289760   3.659   8.508   7.515
62641SOL     OW89761   3.468   4.665   7.569
62641SOL    HW189762   3.500   4.575   7.562
62641SOL    HW289763   3.373   4.657   7.579
62642SOL     OW89764   1.012   6.210   7.771
62642SOL    HW189765   1.101   6.176   7.765
62642SOL    HW289766   0.981   6.214   7.681
62643SOL     OW89767   4.583   7.083   6.766
62643SOL    HW189768   4.587   7.136   6.845
62643SOL    HW289769   4.646   7.124   6.706
62644SOL     OW89770  13.903  12.513   5.889
62644SOL    HW189771  13.855  12.552   5.962
62644SOL    HW289772  13.889  12.574   5.816
62645SOL     OW89773  11.897   6.731  10.050
62645SOL    HW189774  11.933   6.642  10.041
62645SOL    HW289775  11.900   6.747  10.144
62646SOL     OW89776   1.628   0.732   4.475
62646SOL    HW189777   1.577   0.771   4.546
62646SOL    HW289778   1.571   0.663   4.439
62647SOL     OW89779   5.834   2.125  13.017
62647SOL    HW189780   5.742   2.152  13.022
62647SOL    HW289781   5.848   2.073  13.096
62648SOL     OW89782   3.422   3.011  14.687
62648SOL    HW189783   3.399   3.046  14.601
62648SOL    HW289784   3.517   3.022  14.692
62649SOL     OW89785   4.708  13.257   0.089
62649SOL    HW189786   4.712  13.164   0.113
62649SOL    HW289787   4.768  13.265   0.015
62650SOL     OW89788  13.997   3.781   4.980
62650SOL    HW189789  13.910   3.785   4.940
62650SOL    HW289790  14.039   3.706   4.938
62651SOL     OW89791   5.374  12.344   6.504
62651SOL    HW189792   5.393  12.344   6.410
62651SOL    HW289793   5.287  12.384   6.511
62652SOL     OW89794   1.917   0.977   5.648
62652SOL    HW189795   1.974   1.005   5.720
62652SOL    HW289796   1.976   0.967   5.573
62653SOL     OW89797   9.649   9.605   8.470
62653SOL    HW189798   9.633   9.661   8.394
62653SOL    HW289799   9.561   9.580   8.499
62654SOL     OW89800  12.562   5.812  12.359
62654SOL    HW189801  12.525   5.802  12.446
62654SOL    HW289802  12.519   5.744  12.307
62655SOL     OW89803   6.448   3.415  11.822
62655SOL    HW189804   6.432   3.327  11.856
62655SOL    HW289805   6.369   3.437  11.772
62656SOL     OW89806   7.221   6.891  14.608
62656SOL    HW189807   7.215   6.884  14.703
62656SOL    HW289808   7.173   6.971  14.587
62657SOL     OW89809   3.739   2.392   0.359
62657SOL    HW189810   3.672   2.348   0.411
62657SOL    HW289811   3.799   2.322   0.333
62658SOL     OW89812   7.712  14.772  12.892
62658SOL    HW189813   7.699  14.678  12.884
62658SOL    HW289814   7.686  14.792  12.982
62659SOL     OW89815   1.073   8.056   5.863
62659SOL    HW189816   1.011   8.005   5.812
62659SOL    HW289817   1.079   8.011   5.947
62660SOL     OW89818  13.850   7.599  10.668
62660SOL    HW189819  13.845   7.517  10.618
62660SOL    HW289820  13.811   7.578  10.753
62661SOL     OW89821   1.281   2.115   2.820
62661SOL    HW189822   1.361   2.113   2.768
62661SOL    HW289823   1.211   2.119   2.755
62662SOL     OW89824  14.663   0.239  11.718
62662SOL    HW189825  14.605   0.292  11.663
62662SOL    HW289826  14.613   0.160  11.737
62663SOL     OW89827   6.767  13.762   3.898
62663SOL    HW189828   6.713  13.696   3.942
62663SOL    HW289829   6.857  13.729   3.906
62664SOL     OW89830  12.732  14.145   8.818
62664SOL    HW189831  12.671  14.177   8.884
62664SOL    HW289832  12.676  14.104   8.752
62665SOL     OW89833  10.596   7.537  10.632
62665SOL    HW189834  10.569   7.516  10.721
62665SOL    HW289835  10.676   7.588  10.642
62666SOL     OW89836   2.708   6.118   0.159
62666SOL    HW189837   2.717   6.184   0.228
62666SOL    HW289838   2.723   6.166   0.078
62667SOL     OW89839   9.088  10.376   6.451
62667SOL    HW189840   9.172  10.330   6.454
62667SOL    HW289841   9.111  10.469   6.452
62668SOL     OW89842   5.320   8.648  12.857
62668SOL    HW189843   5.226   8.643  12.836
62668SOL    HW289844   5.333   8.583  12.925
62669SOL     OW89845   5.304   1.171   1.988
62669SOL    HW189846   5.213   1.169   1.957
62669SOL    HW289847   5.356   1.180   1.908
62670SOL     OW89848  13.928  13.839  10.559
62670SOL    HW189849  13.841  13.860  10.527
62670SOL    HW289850  13.972  13.923  10.570
62671SOL     OW89851   7.062   4.091   6.799
62671SOL    HW189852   6.969   4.113   6.803
62671SOL    HW289853   7.067   4.016   6.740
62672SOL     OW89854   9.773  13.639   1.518
62672SOL    HW189855   9.853  13.682   1.548
62672SOL    HW289856   9.786  13.547   1.539
62673SOL     OW89857   3.458   5.527  13.580
62673SOL    HW189858   3.387   5.503  13.520
62673SOL    HW289859   3.534   5.477  13.549
62674SOL     OW89860  13.342   5.184   7.562
62674SOL    HW189861  13.350   5.274   7.592
62674SOL    HW289862  13.327   5.133   7.642
62675SOL     OW89863   9.767   9.044   3.868
62675SOL    HW189864   9.733   9.101   3.937
62675SOL    HW289865   9.708   8.970   3.867
62676SOL     OW89866   2.062   8.656  13.371
62676SOL    HW189867   2.040   8.721  13.438
62676SOL    HW289868   1.980   8.611  13.353
62677SOL     OW89869   5.725   2.946   0.758
62677SOL    HW189870   5.755   3.028   0.719
62677SOL    HW289871   5.690   2.972   0.843
62678SOL     OW89872   7.566   6.136   4.443
62678SOL    HW189873   7.498   6.203   4.448
62678SOL    HW289874   7.613   6.156   4.362
62679SOL     OW89875   9.911  12.025  10.604
62679SOL    HW189876   9.870  11.994  10.523
62679SOL    HW289877   9.893  12.119  10.605
62680SOL     OW89878   7.701   3.766  10.133
62680SOL    HW189879   7.732   3.832  10.072
62680SOL    HW289880   7.618   3.800  10.165
62681SOL     OW89881   8.724   4.396   8.119
62681SOL    HW189882   8.771   4.404   8.036
62681SOL    HW289883   8.693   4.306   8.121
62682SOL     OW89884   1.235  10.463  14.642
62682SOL    HW189885   1.170  10.402  14.678
62682SOL    HW289886   1.282  10.412  14.577
62683SOL     OW89887  14.402   7.034   8.375
62683SOL    HW189888  14.415   6.964   8.311
62683SOL    HW289889  14.468   7.100   8.352
62684SOL     OW89890  11.429  14.141   2.309
62684SOL    HW189891  11.496  14.196   2.268
62684SOL    HW289892  11.401  14.082   2.239
62685SOL     OW89893   7.856  13.415   1.381
62685SOL    HW189894   7.833  13.505   1.404
62685SOL    HW289895   7.951  13.413   1.381
62686SOL     OW89896  13.875   5.621   0.737
62686SOL    HW189897  13.904   5.581   0.656
62686SOL    HW289898  13.797   5.571   0.762
62687SOL     OW89899   4.350   5.574  14.486
62687SOL    HW189900   4.338   5.481  14.505
62687SOL    HW289901   4.379   5.612  14.569
62688SOL     OW89902   7.395  10.275  12.829
62688SOL    HW189903   7.463  10.211  12.806
62688SOL    HW289904   7.356  10.239  12.908
62689SOL     OW89905  13.717   6.183   7.195
62689SOL    HW189906  13.629   6.208   7.223
62689SOL    HW289907  13.705   6.150   7.106
62690SOL     OW89908   3.779  10.933  10.326
62690SOL    HW189909   3.723  10.867  10.285
62690SOL    HW289910   3.762  10.925  10.420
62691SOL     OW89911   6.939   4.196  12.522
62691SOL    HW189912   6.972   4.264  12.581
62691SOL    HW289913   6.847   4.218  12.509
62692SOL     OW89914   2.333   9.354  10.901
62692SOL    HW189915   2.418   9.310  10.897
62692SOL    HW289916   2.293   9.337  10.816
62693SOL     OW89917   5.988   3.629  12.462
62693SOL    HW189918   6.068   3.669  12.429
62693SOL    HW289919   5.939   3.701  12.501
62694SOL     OW89920   2.023  11.849   3.307
62694SOL    HW189921   2.111  11.885   3.318
62694SOL    HW289922   2.031  11.758   3.334
62695SOL     OW89923   7.665  12.046   3.157
62695SOL    HW189924   7.573  12.035   3.183
62695SOL    HW289925   7.668  12.132   3.116
62696SOL     OW89926   2.974   5.219   8.421
62696SOL    HW189927   3.003   5.147   8.365
62696SOL    HW289928   3.034   5.291   8.400
62697SOL     OW89929  14.612  14.535  10.795
62697SOL    HW189930  14.590  14.442  10.800
62697SOL    HW289931  14.549  14.572  10.734
62698SOL     OW89932   0.530   0.636  11.134
62698SOL    HW189933   0.485   0.699  11.189
62698SOL    HW289934   0.593   0.688  11.084
62699SOL     OW89935  12.945   8.184  14.200
62699SOL    HW189936  12.973   8.120  14.266
62699SOL    HW289937  12.853   8.201  14.220
62700SOL     OW89938  10.362   8.034  11.565
62700SOL    HW189939  10.327   8.011  11.651
62700SOL    HW289940  10.312   7.980  11.504
62701SOL     OW89941   1.094   1.521  10.116
62701SOL    HW189942   1.165   1.555  10.171
62701SOL    HW289943   1.096   1.577  10.038
62702SOL     OW89944  12.071  12.632   5.868
62702SOL    HW189945  12.166  12.640   5.880
62702SOL    HW289946  12.043  12.572   5.937
62703SOL     OW89947  14.230   7.787  11.669
62703SOL    HW189948  14.274   7.711  11.707
62703SOL    HW289949  14.145   7.791  11.713
62704SOL     OW89950   6.898   3.321  11.423
62704SOL    HW189951   6.965   3.274  11.473
62704SOL    HW289952   6.894   3.408  11.463
62705SOL     OW89953   4.350   4.395   5.203
62705SOL    HW189954   4.385   4.318   5.249
62705SOL    HW289955   4.425   4.429   5.154
62706SOL     OW89956   3.734   0.313  13.465
62706SOL    HW189957   3.688   0.366  13.530
62706SOL    HW289958   3.687   0.331  13.383
62707SOL     OW89959   1.131   4.131   9.433
62707SOL    HW189960   1.124   4.095   9.522
62707SOL    HW289961   1.107   4.224   9.443
62708SOL     OW89962  10.641   5.032  12.848
62708SOL    HW189963  10.586   4.959  12.820
62708SOL    HW289964  10.581   5.107  12.852
62709SOL     OW89965   1.060   6.468   3.870
62709SOL    HW189966   1.147   6.439   3.844
62709SOL    HW289967   1.004   6.447   3.796
62710SOL     OW89968  12.761   6.716   1.161
62710SOL    HW189969  12.731   6.640   1.210
62710SOL    HW289970  12.705   6.787   1.191
62711SOL     OW89971   8.551  14.564  10.728
62711SOL    HW189972   8.622  14.505  10.754
62711SOL    HW289973   8.543  14.625  10.801
62712SOL     OW89974   9.024   3.116  11.190
62712SOL    HW189975   8.981   3.145  11.110
62712SOL    HW289976   9.064   3.032  11.167
62713SOL     OW89977   7.677   6.547  14.693
62713SOL    HW189978   7.645   6.458  14.704
62713SOL    HW289979   7.746   6.556  14.758
62714SOL     OW89980  11.556  11.170   4.084
62714SOL    HW189981  11.628  11.227   4.112
62714SOL    HW289982  11.574  11.153   3.992
62715SOL     OW89983  13.519   0.540   9.599
62715SOL    HW189984  13.597   0.571   9.553
62715SOL    HW289985  13.552   0.508   9.683
62716SOL     OW89986   6.397  12.987   7.841
62716SOL    HW189987   6.483  12.952   7.816
62716SOL    HW289988   6.408  13.015   7.932
62717SOL     OW89989   0.571   1.188   7.284
62717SOL    HW189990   0.602   1.097   7.281
62717SOL    HW289991   0.646   1.238   7.317
62718SOL     OW89992   8.543   6.642   3.859
62718SOL    HW189993   8.448   6.635   3.850
62718SOL    HW289994   8.556   6.701   3.934
62719SOL     OW89995   6.285  10.218  11.123
62719SOL    HW189996   6.272  10.203  11.217
62719SOL    HW289997   6.246  10.304  11.107
62720SOL     OW89998  13.412  13.855  11.200
62720SOL    HW189999  13.354  13.838  11.273
62720SOL    HW290000  13.355  13.888  11.131
62721SOL     OW90001   6.348   4.473   1.669
62721SOL    HW190002   6.302   4.405   1.620
62721SOL    HW290003   6.370   4.540   1.603
62722SOL     OW90004  13.584   2.661   0.231
62722SOL    HW190005  13.504   2.608   0.232
62722SOL    HW290006  13.634   2.629   0.156
62723SOL     OW90007   5.157   5.017   5.711
62723SOL    HW190008   5.239   5.048   5.750
62723SOL    HW290009   5.089   5.068   5.755
62724SOL     OW90010  10.513   6.461   0.315
62724SOL    HW190011  10.578   6.532   0.308
62724SOL    HW290012  10.540   6.412   0.392
62725SOL     OW90013   6.858  13.249   1.274
62725SOL    HW190014   6.778  13.208   1.241
62725SOL    HW290015   6.912  13.176   1.304
62726SOL     OW90016  13.272   7.363   5.279
62726SOL    HW190017  13.183   7.330   5.274
62726SOL    HW290018  13.275   7.435   5.215
62727SOL     OW90019   3.895   9.147   1.792
62727SOL    HW190020   3.825   9.207   1.819
62727SOL    HW290021   3.885   9.071   1.848
62728SOL     OW90022  11.524   8.102  12.270
62728SOL    HW190023  11.615   8.103  12.242
62728SOL    HW290024  11.473   8.116  12.190
62729SOL     OW90025  11.049   4.533  14.092
62729SOL    HW190026  11.091   4.499  14.013
62729SOL    HW290027  11.023   4.455  14.141
62730SOL     OW90028   6.345   2.329  12.481
62730SOL    HW190029   6.417   2.392  12.479
62730SOL    HW290030   6.373   2.264  12.545
62731SOL     OW90031   5.602   1.367  13.087
62731SOL    HW190032   5.534   1.383  13.023
62731SOL    HW290033   5.595   1.441  13.148
62732SOL     OW90034   4.813   6.034   4.575
62732SOL    HW190035   4.797   6.095   4.503
62732SOL    HW290036   4.843   6.089   4.647
62733SOL     OW90037   7.227   2.673   6.426
62733SOL    HW190038   7.155   2.647   6.368
62733SOL    HW290039   7.304   2.674   6.370
62734SOL     OW90040   0.396   2.836   6.516
62734SOL    HW190041   0.413   2.773   6.586
62734SOL    HW290042   0.316   2.805   6.474
62735SOL     OW90043  10.164   0.885  10.113
62735SOL    HW190044  10.245   0.845  10.147
62735SOL    HW290045  10.098   0.866  10.180
62736SOL     OW90046   8.069   8.936   2.598
62736SOL    HW190047   7.987   8.903   2.633
62736SOL    HW290048   8.108   8.985   2.671
62737SOL     OW90049   6.446  14.810   7.796
62737SOL    HW190050   6.515  14.759   7.839
62737SOL    HW290051   6.421  14.757   7.720
62738SOL     OW90052   7.852  12.500   2.352
62738SOL    HW190053   7.899  12.418   2.344
62738SOL    HW290054   7.818  12.501   2.441
62739SOL     OW90055  10.382  12.670   9.293
62739SOL    HW190056  10.325  12.594   9.302
62739SOL    HW290057  10.451  12.657   9.358
62740SOL     OW90058  11.881   0.394   6.859
62740SOL    HW190059  11.811   0.448   6.896
62740SOL    HW290060  11.861   0.306   6.891
62741SOL     OW90061   5.592  14.011   2.316
62741SOL    HW190062   5.532  14.083   2.333
62741SOL    HW290063   5.635  13.995   2.400
62742SOL     OW90064  13.334   4.464   5.733
62742SOL    HW190065  13.254   4.412   5.743
62742SOL    HW290066  13.306   4.555   5.743
62743SOL     OW90067   7.114   2.111  13.732
62743SOL    HW190068   7.128   2.174  13.802
62743SOL    HW290069   7.041   2.057  13.762
62744SOL     OW90070   4.295   4.471   8.922
62744SOL    HW190071   4.302   4.566   8.917
62744SOL    HW290072   4.351   4.445   8.995
62745SOL     OW90073  10.067  10.684  14.215
62745SOL    HW190074  10.151  10.643  14.196
62745SOL    HW290075  10.046  10.732  14.135
62746SOL     OW90076  13.690  13.063   5.737
62746SOL    HW190077  13.647  13.085   5.820
62746SOL    HW290078  13.697  12.967   5.739
62747SOL     OW90079   7.468  14.132   8.782
62747SOL    HW190080   7.406  14.083   8.836
62747SOL    HW290081   7.498  14.069   8.717
62748SOL     OW90082   1.571   5.073   1.564
62748SOL    HW190083   1.563   4.979   1.578
62748SOL    HW290084   1.641   5.101   1.623
62749SOL     OW90085  12.108  13.476   4.500
62749SOL    HW190086  12.101  13.382   4.516
62749SOL    HW290087  12.164  13.508   4.571
62750SOL     OW90088   1.199   6.285   1.053
62750SOL    HW190089   1.143   6.232   1.109
62750SOL    HW290090   1.143   6.359   1.027
62751SOL     OW90091   5.348   5.118   2.944
62751SOL    HW190092   5.345   5.180   2.871
62751SOL    HW290093   5.272   5.140   2.998
62752SOL     OW90094  11.860  12.256  10.289
62752SOL    HW190095  11.795  12.190  10.264
62752SOL    HW290096  11.938  12.234  10.238
62753SOL     OW90097  13.916   1.813   0.520
62753SOL    HW190098  13.951   1.888   0.568
62753SOL    HW290099  13.823   1.812   0.542
62754SOL     OW90100   5.588  14.081   8.273
62754SOL    HW190101   5.597  14.055   8.181
62754SOL    HW290102   5.521  14.022   8.308
62755SOL     OW90103   4.693   9.892   1.699
62755SOL    HW190104   4.650   9.916   1.781
62755SOL    HW290105   4.774   9.943   1.699
62756SOL     OW90106  14.180   5.060  10.889
62756SOL    HW190107  14.204   5.152  10.876
62756SOL    HW290108  14.206   5.017  10.808
62757SOL     OW90109   1.303   6.546   9.992
62757SOL    HW190110   1.211   6.545   9.964
62757SOL    HW290111   1.349   6.502   9.920
62758SOL     OW90112   6.247  13.524   5.759
62758SOL    HW190113   6.250  13.534   5.854
62758SOL    HW290114   6.325  13.473   5.738
62759SOL     OW90115   1.153   9.052  11.681
62759SOL    HW190116   1.236   9.058  11.633
62759SOL    HW290117   1.123   8.962  11.665
62760SOL     OW90118   2.717  10.018   6.822
62760SOL    HW190119   2.668  10.095   6.849
62760SOL    HW290120   2.796  10.053   6.782
62761SOL     OW90121  14.838  14.074   4.261
62761SOL    HW190122  14.765  14.059   4.200
62761SOL    HW290123   0.001  14.153   4.228
62762SOL     OW90124   5.175   9.146   1.639
62762SOL    HW190125   5.093   9.176   1.677
62762SOL    HW290126   5.151   9.075   1.580
62763SOL     OW90127   3.280   5.410   5.145
62763SOL    HW190128   3.262   5.478   5.210
62763SOL    HW290129   3.361   5.369   5.177
62764SOL     OW90130   5.173   1.385  10.199
62764SOL    HW190131   5.194   1.300  10.160
62764SOL    HW290132   5.226   1.447  10.150
62765SOL     OW90133   4.171   0.650   9.923
62765SOL    HW190134   4.152   0.702  10.001
62765SOL    HW290135   4.099   0.670   9.863
62766SOL     OW90136   6.935  12.984  14.362
62766SOL    HW190137   6.953  13.077  14.353
62766SOL    HW290138   7.003  12.941  14.311
62767SOL     OW90139  11.901   2.399   6.779
62767SOL    HW190140  11.956   2.475   6.762
62767SOL    HW290141  11.878   2.366   6.692
62768SOL     OW90142   8.465  12.433  12.021
62768SOL    HW190143   8.558  12.415  12.033
62768SOL    HW290144   8.423  12.347  12.025
62769SOL     OW90145   1.696  14.499   0.015
62769SOL    HW190146   1.639  14.431   0.051
62769SOL    HW290147   1.655  14.582   0.040
62770SOL     OW90148  11.799   3.892  11.311
62770SOL    HW190149  11.806   3.944  11.231
62770SOL    HW290150  11.705   3.889  11.329
62771SOL     OW90151   1.766   6.860   4.807
62771SOL    HW190152   1.694   6.867   4.745
62771SOL    HW290153   1.780   6.765   4.817
62772SOL     OW90154   4.552   0.455  12.608
62772SOL    HW190155   4.491   0.424  12.541
62772SOL    HW290156   4.510   0.534  12.643
62773SOL     OW90157   8.840  10.676   2.177
62773SOL    HW190158   8.829  10.664   2.271
62773SOL    HW290159   8.934  10.689   2.166
62774SOL     OW90160   7.649  13.142   2.348
62774SOL    HW190161   7.740  13.172   2.342
62774SOL    HW290162   7.630  13.103   2.263
62775SOL     OW90163   7.545  12.664   5.747
62775SOL    HW190164   7.574  12.607   5.675
62775SOL    HW290165   7.624  12.713   5.772
62776SOL     OW90166  11.175  10.430   1.365
62776SOL    HW190167  11.124  10.353   1.341
62776SOL    HW290168  11.121  10.476   1.429
62777SOL     OW90169  12.134   6.052   3.616
62777SOL    HW190170  12.089   5.970   3.633
62777SOL    HW290171  12.074   6.120   3.648
62778SOL     OW90172   8.034   7.975   6.410
62778SOL    HW190173   7.964   8.039   6.418
62778SOL    HW290174   8.076   7.974   6.496
62779SOL     OW90175   4.938   1.880  12.345
62779SOL    HW190176   4.970   1.841  12.264
62779SOL    HW290177   4.888   1.810  12.388
62780SOL     OW90178  14.397   0.437   8.291
62780SOL    HW190179  14.409   0.380   8.366
62780SOL    HW290180  14.303   0.454   8.287
62781SOL     OW90181   6.508   9.324   2.841
62781SOL    HW190182   6.427   9.289   2.804
62781SOL    HW290183   6.572   9.253   2.831
62782SOL     OW90184   1.056   4.718  13.824
62782SOL    HW190185   1.076   4.765  13.743
62782SOL    HW290186   0.974   4.672  13.806
62783SOL     OW90187   6.842  12.796   5.304
62783SOL    HW190188   6.850  12.773   5.212
62783SOL    HW290189   6.752  12.773   5.327
62784SOL     OW90190   8.887  10.262   9.117
62784SOL    HW190191   8.972  10.308   9.120
62784SOL    HW290192   8.845  10.296   9.037
62785SOL     OW90193   1.112   3.866  11.120
62785SOL    HW190194   1.021   3.886  11.140
62785SOL    HW290195   1.111   3.837  11.029
62786SOL     OW90196   3.676   1.637   8.744
62786SOL    HW190197   3.646   1.581   8.815
62786SOL    HW290198   3.740   1.583   8.697
62787SOL     OW90199   4.253  10.856   2.729
62787SOL    HW190200   4.223  10.777   2.772
62787SOL    HW290201   4.225  10.847   2.638
62788SOL     OW90202   9.519   2.021  13.650
62788SOL    HW190203   9.504   1.926  13.652
62788SOL    HW290204   9.511   2.045  13.558
62789SOL     OW90205  10.907  11.153   1.248
62789SOL    HW190206  10.968  11.176   1.178
62789SOL    HW290207  10.961  11.151   1.327
62790SOL     OW90208   6.379   7.757  10.875
62790SOL    HW190209   6.294   7.742  10.916
62790SOL    HW290210   6.382   7.852  10.860
62791SOL     OW90211   6.975   1.688   2.853
62791SOL    HW190212   6.981   1.760   2.791
62791SOL    HW290213   7.041   1.707   2.920
62792SOL     OW90214   3.726   8.788   6.734
62792SOL    HW190215   3.780   8.838   6.796
62792SOL    HW290216   3.780   8.783   6.655
62793SOL     OW90217   8.126   5.037   9.571
62793SOL    HW190218   8.167   5.015   9.655
62793SOL    HW290219   8.158   5.125   9.552
62794SOL     OW90220   4.970   9.355   0.944
62794SOL    HW190221   4.886   9.352   0.990
62794SOL    HW290222   4.963   9.285   0.879
62795SOL     OW90223   9.286   2.061  14.800
62795SOL    HW190224   9.272   1.997  14.869
62795SOL    HW290225   9.362   2.112  14.829
62796SOL     OW90226  11.477   0.180   8.184
62796SOL    HW190227  11.490   0.268   8.151
62796SOL    HW290228  11.555   0.132   8.156
62797SOL     OW90229   0.458   5.317  11.082
62797SOL    HW190230   0.548   5.294  11.056
62797SOL    HW290231   0.464   5.411  11.103
62798SOL     OW90232  11.619   0.278   4.577
62798SOL    HW190233  11.542   0.294   4.524
62798SOL    HW290234  11.587   0.227   4.652
62799SOL     OW90235   7.388   1.717  12.993
62799SOL    HW190236   7.447   1.662  12.941
62799SOL    HW290237   7.446   1.766  13.051
62800SOL     OW90238   7.276  12.609  11.474
62800SOL    HW190239   7.249  12.690  11.431
62800SOL    HW290240   7.312  12.637  11.558
62801SOL     OW90241   3.239   5.058  11.115
62801SOL    HW190242   3.330   5.045  11.087
62801SOL    HW290243   3.190   4.993  11.063
62802SOL     OW90244   4.716   0.727   6.864
62802SOL    HW190245   4.800   0.682   6.872
62802SOL    HW290246   4.737   0.807   6.816
62803SOL     OW90247   9.152   5.873  12.047
62803SOL    HW190248   9.095   5.854  12.122
62803SOL    HW290249   9.157   5.791  11.999
62804SOL     OW90250   6.629   8.533   7.725
62804SOL    HW190251   6.559   8.579   7.771
62804SOL    HW290252   6.687   8.603   7.695
62805SOL     OW90253   8.593   1.824   4.660
62805SOL    HW190254   8.657   1.755   4.646
62805SOL    HW290255   8.645   1.905   4.657
62806SOL     OW90256  11.596  13.515  14.470
62806SOL    HW190257  11.504  13.515  14.442
62806SOL    HW290258  11.629  13.601  14.444
62807SOL     OW90259   3.560   9.558  11.015
62807SOL    HW190260   3.485   9.532  10.961
62807SOL    HW290261   3.591   9.477  11.055
62808SOL     OW90262   9.516   7.821  12.721
62808SOL    HW190263   9.607   7.851  12.718
62808SOL    HW290264   9.517   7.752  12.787
62809SOL     OW90265   4.128   9.570  13.406
62809SOL    HW190266   4.040   9.608  13.402
62809SOL    HW290267   4.140   9.528  13.321
62810SOL     OW90268  11.806   6.096  12.204
62810SOL    HW190269  11.842   6.061  12.286
62810SOL    HW290270  11.883   6.109  12.149
62811SOL     OW90271  11.896   6.735   9.638
62811SOL    HW190272  11.923   6.783   9.716
62811SOL    HW290273  11.979   6.711   9.596
62812SOL     OW90274   7.150   7.150   8.488
62812SOL    HW190275   7.082   7.091   8.455
62812SOL    HW290276   7.225   7.092   8.506
62813SOL     OW90277   4.807   1.489   6.893
62813SOL    HW190278   4.898   1.487   6.925
62813SOL    HW290279   4.811   1.543   6.814
62814SOL     OW90280   9.085  10.411  10.976
62814SOL    HW190281   9.093  10.473  10.903
62814SOL    HW290282   9.075  10.467  11.053
62815SOL     OW90283  14.506  12.349  12.233
62815SOL    HW190284  14.556  12.279  12.192
62815SOL    HW290285  14.559  12.376  12.308
62816SOL     OW90286  13.880  13.021   5.012
62816SOL    HW190287  13.830  12.946   4.979
62816SOL    HW290288  13.902  12.998   5.102
62817SOL     OW90289  11.186   2.308   4.483
62817SOL    HW190290  11.255   2.242   4.473
62817SOL    HW290291  11.115   2.277   4.427
62818SOL     OW90292   0.571   3.644   6.086
62818SOL    HW190293   0.631   3.613   6.019
62818SOL    HW290294   0.485   3.640   6.044
62819SOL     OW90295   2.510   9.722   0.761
62819SOL    HW190296   2.468   9.644   0.724
62819SOL    HW290297   2.505   9.787   0.690
62820SOL     OW90298   5.623   2.185  13.403
62820SOL    HW190299   5.686   2.257  13.392
62820SOL    HW290300   5.674   2.106  13.386
62821SOL     OW90301  13.072   6.811  13.541
62821SOL    HW190302  13.144   6.754  13.567
62821SOL    HW290303  13.039   6.774  13.459
62822SOL     OW90304   9.177  12.828   3.289
62822SOL    HW190305   9.154  12.800   3.201
62822SOL    HW290306   9.143  12.918   3.295
62823SOL     OW90307   6.372  13.618  14.054
62823SOL    HW190308   6.418  13.610  13.970
62823SOL    HW290309   6.404  13.701  14.090
62824SOL     OW90310   5.145   4.123  13.064
62824SOL    HW190311   5.173   4.184  13.132
62824SOL    HW290312   5.050   4.118  13.074
62825SOL     OW90313   4.426   5.829   6.216
62825SOL    HW190314   4.447   5.922   6.206
62825SOL    HW290315   4.465   5.804   6.299
62826SOL     OW90316   4.889   1.605   7.171
62826SOL    HW190317   4.905   1.697   7.194
62826SOL    HW290318   4.805   1.606   7.126
62827SOL     OW90319   2.587   8.752   1.042
62827SOL    HW190320   2.659   8.696   1.069
62827SOL    HW290321   2.515   8.728   1.100
62828SOL     OW90322   8.354  14.315   9.847
62828SOL    HW190323   8.283  14.296   9.786
62828SOL    HW290324   8.434  14.290   9.799
62829SOL     OW90325   3.972   2.548   0.836
62829SOL    HW190326   3.970   2.597   0.753
62829SOL    HW290327   3.886   2.563   0.874
62830SOL     OW90328   0.814  14.159  14.647
62830SOL    HW190329   0.807  14.223  14.718
62830SOL    HW290330   0.875  14.093  14.681
62831SOL     OW90331   4.473   4.690   6.310
62831SOL    HW190332   4.439   4.602   6.321
62831SOL    HW290333   4.523   4.707   6.390
62832SOL     OW90334   7.141   8.678   8.674
62832SOL    HW190335   7.207   8.722   8.622
62832SOL    HW290336   7.110   8.607   8.618
62833SOL     OW90337   1.198   9.650   9.168
62833SOL    HW190338   1.123   9.590   9.169
62833SOL    HW290339   1.189   9.698   9.086
62834SOL     OW90340  14.517   8.249  12.837
62834SOL    HW190341  14.493   8.202  12.917
62834SOL    HW290342  14.593   8.202  12.804
62835SOL     OW90343   7.059   4.614  13.766
62835SOL    HW190344   7.082   4.613  13.673
62835SOL    HW290345   6.983   4.672  13.772
62836SOL     OW90346   2.649  10.156   2.622
62836SOL    HW190347   2.639  10.239   2.574
62836SOL    HW290348   2.667  10.091   2.553
62837SOL     OW90349   8.508   5.609   6.670
62837SOL    HW190350   8.536   5.700   6.660
62837SOL    HW290351   8.441   5.611   6.738
62838SOL     OW90352   1.030  11.224   9.530
62838SOL    HW190353   1.076  11.176   9.461
62838SOL    HW290354   1.072  11.310   9.531
62839SOL     OW90355   5.701  11.757   5.224
62839SOL    HW190356   5.633  11.699   5.188
62839SOL    HW290357   5.652  11.822   5.275
62840SOL     OW90358  11.286   0.332   4.851
62840SOL    HW190359  11.294   0.237   4.860
62840SOL    HW290360  11.192   0.348   4.839
62841SOL     OW90361   1.518   9.513   3.518
62841SOL    HW190362   1.595   9.568   3.505
62841SOL    HW290363   1.497   9.480   3.431
62842SOL     OW90364   8.453   5.251  13.649
62842SOL    HW190365   8.428   5.171  13.694
62842SOL    HW290366   8.444   5.230  13.556
62843SOL     OW90367   7.304  10.168   4.128
62843SOL    HW190368   7.280  10.089   4.177
62843SOL    HW290369   7.299  10.238   4.193
62844SOL     OW90370   7.174   5.707   6.638
62844SOL    HW190371   7.103   5.653   6.602
62844SOL    HW290372   7.242   5.644   6.662
62845SOL     OW90373   5.136   9.083  11.442
62845SOL    HW190374   5.112   9.150  11.379
62845SOL    HW290375   5.190   9.021  11.393
62846SOL     OW90376  14.275  13.587   3.173
62846SOL    HW190377  14.240  13.667   3.134
62846SOL    HW290378  14.303  13.612   3.261
62847SOL     OW90379   4.726   8.332   7.058
62847SOL    HW190380   4.685   8.293   7.134
62847SOL    HW290381   4.796   8.271   7.034
62848SOL     OW90382  11.100  10.157   8.137
62848SOL    HW190383  11.028  10.211   8.170
62848SOL    HW290384  11.103  10.082   8.196
62849SOL     OW90385   1.178   0.834   5.583
62849SOL    HW190386   1.163   0.789   5.500
62849SOL    HW290387   1.092   0.838   5.625
62850SOL     OW90388  12.735   5.373   4.419
62850SOL    HW190389  12.688   5.455   4.432
62850SOL    HW290390  12.717   5.322   4.498
62851SOL     OW90391  13.724   5.188  11.387
62851SOL    HW190392  13.637   5.220  11.410
62851SOL    HW290393  13.765   5.166  11.470
62852SOL     OW90394   9.842   9.068   2.132
62852SOL    HW190395   9.885   9.081   2.048
62852SOL    HW290396   9.759   9.114   2.124
62853SOL     OW90397   2.720   1.166  11.983
62853SOL    HW190398   2.772   1.101  11.935
62853SOL    HW290399   2.764   1.173  12.068
62854SOL     OW90400  13.828   6.454   0.189
62854SOL    HW190401  13.857   6.391   0.255
62854SOL    HW290402  13.734   6.463   0.204
62855SOL     OW90403  11.619   2.736   8.851
62855SOL    HW190404  11.664   2.651   8.856
62855SOL    HW290405  11.591   2.754   8.940
62856SOL     OW90406   3.121   1.379   5.695
62856SOL    HW190407   3.181   1.335   5.634
62856SOL    HW290408   3.123   1.324   5.774
62857SOL     OW90409   2.593  11.762   0.544
62857SOL    HW190410   2.654  11.728   0.609
62857SOL    HW290411   2.582  11.691   0.481
62858SOL     OW90412  11.228  12.228   7.473
62858SOL    HW190413  11.199  12.305   7.522
62858SOL    HW290414  11.232  12.158   7.539
62859SOL     OW90415  11.368  14.814   0.467
62859SOL    HW190416  11.284  14.860   0.466
62859SOL    HW290417  11.424  14.866   0.524
62860SOL     OW90418   8.086   9.217   9.396
62860SOL    HW190419   8.112   9.309   9.397
62860SOL    HW290420   8.130   9.181   9.319
62861SOL     OW90421   0.435  12.176   8.019
62861SOL    HW190422   0.440  12.268   8.043
62861SOL    HW290423   0.342  12.160   8.001
62862SOL     OW90424   3.048   5.519   6.487
62862SOL    HW190425   2.958   5.543   6.506
62862SOL    HW290426   3.057   5.430   6.522
62863SOL     OW90427  13.678   3.759   1.339
62863SOL    HW190428  13.648   3.834   1.389
62863SOL    HW290429  13.701   3.693   1.405
62864SOL     OW90430  14.822  13.155   0.792
62864SOL    HW190431  14.820  13.235   0.740
62864SOL    HW290432   0.033  13.147   0.822
62865SOL     OW90433   8.859   6.834   1.760
62865SOL    HW190434   8.793   6.894   1.793
62865SOL    HW290435   8.823   6.747   1.777
62866SOL     OW90436  12.273   8.614   6.347
62866SOL    HW190437  12.257   8.704   6.376
62866SOL    HW290438  12.268   8.562   6.428
62867SOL     OW90439   3.361   3.816   4.922
62867SOL    HW190440   3.455   3.800   4.918
62867SOL    HW290441   3.333   3.821   4.830
62868SOL     OW90442   3.571   2.738   9.241
62868SOL    HW190443   3.625   2.804   9.284
62868SOL    HW290444   3.490   2.784   9.219
62869SOL     OW90445  13.937   5.423   4.133
62869SOL    HW190446  13.968   5.363   4.201
62869SOL    HW290447  13.988   5.400   4.055
62870SOL     OW90448  11.121   7.377   9.176
62870SOL    HW190449  11.207   7.388   9.217
62870SOL    HW290450  11.128   7.421   9.091
62871SOL     OW90451   9.285  14.745   7.599
62871SOL    HW190452   9.257  14.765   7.510
62871SOL    HW290453   9.214  14.693   7.636
62872SOL     OW90454   7.226  10.897   2.015
62872SOL    HW190455   7.287  10.912   2.088
62872SOL    HW290456   7.273  10.839   1.956
62873SOL     OW90457  14.226  10.686   4.932
62873SOL    HW190458  14.188  10.714   4.849
62873SOL    HW290459  14.176  10.608   4.956
62874SOL     OW90460   3.190  10.369  12.421
62874SOL    HW190461   3.178  10.293  12.478
62874SOL    HW290462   3.223  10.437  12.479
62875SOL     OW90463   0.557   7.280  10.253
62875SOL    HW190464   0.539   7.278  10.159
62875SOL    HW290465   0.473   7.302  10.293
62876SOL     OW90466   1.887   3.747   4.062
62876SOL    HW190467   1.976   3.712   4.068
62876SOL    HW290468   1.867   3.745   3.968
62877SOL     OW90469  12.022  14.385  13.255
62877SOL    HW190470  12.003  14.435  13.335
62877SOL    HW290471  11.945  14.330  13.243
62878SOL     OW90472  14.336   0.446  12.565
62878SOL    HW190473  14.241   0.444  12.568
62878SOL    HW290474  14.362   0.481  12.650
62879SOL     OW90475  12.394  10.778   0.972
62879SOL    HW190476  12.349  10.712   0.919
62879SOL    HW290477  12.402  10.740   1.059
62880SOL     OW90478   1.679   3.569   3.447
62880SOL    HW190479   1.670   3.649   3.396
62880SOL    HW290480   1.610   3.511   3.414
62881SOL     OW90481   2.760   9.071  12.716
62881SOL    HW190482   2.754   8.976  12.707
62881SOL    HW290483   2.829   9.084  12.780
62882SOL     OW90484   7.448   1.601  12.193
62882SOL    HW190485   7.524   1.583  12.247
62882SOL    HW290486   7.380   1.543  12.228
62883SOL     OW90487  13.175   3.529  10.312
62883SOL    HW190488  13.233   3.484  10.251
62883SOL    HW290489  13.129   3.593  10.258
62884SOL     OW90490   4.938  11.947   2.877
62884SOL    HW190491   4.997  11.914   2.945
62884SOL    HW290492   4.876  11.876   2.862
62885SOL     OW90493   4.556   1.901   8.810
62885SOL    HW190494   4.512   1.981   8.781
62885SOL    HW290495   4.649   1.917   8.791
62886SOL     OW90496   2.408   1.440   7.143
62886SOL    HW190497   2.342   1.508   7.128
62886SOL    HW290498   2.444   1.461   7.229
62887SOL     OW90499   8.029  11.717   5.395
62887SOL    HW190500   8.021  11.801   5.350
62887SOL    HW290501   8.076  11.738   5.475
62888SOL     OW90502   2.363   0.123   1.296
62888SOL    HW190503   2.269   0.107   1.296
62888SOL    HW290504   2.395   0.081   1.376
62889SOL     OW90505   4.705   5.688   7.351
62889SOL    HW190506   4.731   5.651   7.435
62889SOL    HW290507   4.785   5.723   7.313
62890SOL     OW90508   5.348   4.415   0.798
62890SOL    HW190509   5.279   4.386   0.739
62890SOL    HW290510   5.337   4.510   0.803
62891SOL     OW90511   4.695   9.606   0.679
62891SOL    HW190512   4.709   9.677   0.616
62891SOL    HW290513   4.608   9.572   0.657
62892SOL     OW90514   0.798  11.443  13.099
62892SOL    HW190515   0.729  11.488  13.050
62892SOL    HW290516   0.817  11.365  13.048
62893SOL     OW90517   9.083  10.504   1.445
62893SOL    HW190518   9.006  10.465   1.487
62893SOL    HW290519   9.054  10.593   1.422
62894SOL     OW90520   5.515   3.516  14.666
62894SOL    HW190521   5.568   3.485  14.593
62894SOL    HW290522   5.449   3.572  14.625
62895SOL     OW90523   9.757   6.973  10.080
62895SOL    HW190524   9.692   6.906  10.099
62895SOL    HW290525   9.706   7.046  10.045
62896SOL     OW90526   6.802  12.222  12.662
62896SOL    HW190527   6.797  12.289  12.594
62896SOL    HW290528   6.752  12.259  12.735
62897SOL     OW90529  10.606   1.895   6.246
62897SOL    HW190530  10.666   1.913   6.174
62897SOL    HW290531  10.645   1.820   6.291
62898SOL     OW90532   9.804   6.868   2.567
62898SOL    HW190533   9.872   6.808   2.598
62898SOL    HW290534   9.813   6.945   2.623
62899SOL     OW90535   2.729   9.443   2.264
62899SOL    HW190536   2.651   9.457   2.318
62899SOL    HW290537   2.705   9.477   2.178
62900SOL     OW90538   7.678   4.875  12.677
62900SOL    HW190539   7.670   4.856  12.583
62900SOL    HW290540   7.616   4.946  12.693
62901SOL     OW90541  12.083   4.520  13.543
62901SOL    HW190542  12.141   4.503  13.618
62901SOL    HW290543  11.998   4.539  13.583
62902SOL     OW90544  12.228   0.952  10.365
62902SOL    HW190545  12.223   0.873  10.419
62902SOL    HW290546  12.267   0.923  10.283
62903SOL     OW90547   4.897   2.485   5.781
62903SOL    HW190548   4.899   2.417   5.848
62903SOL    HW290549   4.875   2.439   5.700
62904SOL     OW90550   1.185   7.216  13.698
62904SOL    HW190551   1.266   7.208  13.749
62904SOL    HW290552   1.167   7.126  13.670
62905SOL     OW90553   2.081   3.449  13.230
62905SOL    HW190554   2.033   3.404  13.299
62905SOL    HW290555   2.014   3.480  13.169
62906SOL     OW90556   1.361  14.584   7.251
62906SOL    HW190557   1.400  14.653   7.305
62906SOL    HW290558   1.389  14.502   7.292
62907SOL     OW90559  10.377   2.503  14.299
62907SOL    HW190560  10.325   2.548  14.365
62907SOL    HW290561  10.427   2.573  14.257
62908SOL     OW90562  13.392  10.533   6.488
62908SOL    HW190563  13.365  10.494   6.405
62908SOL    HW290564  13.435  10.461   6.534
62909SOL     OW90565  11.422   8.932   0.965
62909SOL    HW190566  11.508   8.974   0.971
62909SOL    HW290567  11.363   9.003   0.939
62910SOL     OW90568  14.650   3.379   0.788
62910SOL    HW190569  14.632   3.360   0.879
62910SOL    HW290570  14.730   3.433   0.790
62911SOL     OW90571   0.234   7.132  13.546
62911SOL    HW190572   0.215   7.077  13.622
62911SOL    HW290573   0.241   7.221  13.581
62912SOL     OW90574  11.186   3.853   5.994
62912SOL    HW190575  11.257   3.805   6.038
62912SOL    HW290576  11.138   3.894   6.066
62913SOL     OW90577   5.106   4.055  12.643
62913SOL    HW190578   5.031   4.113  12.628
62913SOL    HW290579   5.138   4.034  12.555
62914SOL     OW90580   2.568   6.519   7.417
62914SOL    HW190581   2.587   6.512   7.323
62914SOL    HW290582   2.473   6.524   7.423
62915SOL     OW90583   3.720   6.281   1.043
62915SOL    HW190584   3.721   6.205   0.986
62915SOL    HW290585   3.627   6.305   1.048
62916SOL     OW90586   4.063  11.038   3.746
62916SOL    HW190587   4.005  11.041   3.670
62916SOL    HW290588   4.142  11.084   3.717
62917SOL     OW90589  14.693  11.287   2.153
62917SOL    HW190590  14.714  11.234   2.076
62917SOL    HW290591  14.600  11.306   2.144
62918SOL     OW90592   3.872   8.875  14.739
62918SOL    HW190593   3.832   8.806  14.686
62918SOL    HW290594   3.849   8.854  14.829
62919SOL     OW90595   8.189   7.583   7.701
62919SOL    HW190596   8.111   7.626   7.737
62919SOL    HW290597   8.260   7.611   7.758
62920SOL     OW90598  10.885  12.784   1.081
62920SOL    HW190599  10.791  12.801   1.085
62920SOL    HW290600  10.892  12.688   1.081
62921SOL     OW90601   0.028  12.312   0.162
62921SOL    HW190602   0.020  12.279   0.073
62921SOL    HW290603   0.121  12.302   0.182
62922SOL     OW90604   9.252   4.611   9.291
62922SOL    HW190605   9.254   4.658   9.374
62922SOL    HW290606   9.299   4.667   9.230
62923SOL     OW90607   1.378   8.312   2.402
62923SOL    HW190608   1.439   8.248   2.365
62923SOL    HW290609   1.392   8.305   2.496
62924SOL     OW90610  12.470   1.927   9.384
62924SOL    HW190611  12.448   1.874   9.308
62924SOL    HW290612  12.527   1.871   9.437
62925SOL     OW90613   8.995  11.889   6.206
62925SOL    HW190614   8.900  11.875   6.202
62925SOL    HW290615   9.007  11.981   6.184
62926SOL     OW90616   0.634   7.566   3.750
62926SOL    HW190617   0.720   7.557   3.709
62926SOL    HW290618   0.651   7.555   3.844
62927SOL     OW90619   6.708   2.654  14.151
62927SOL    HW190620   6.656   2.715  14.203
62927SOL    HW290621   6.773   2.710  14.107
62928SOL     OW90622  13.908  13.779  13.765
62928SOL    HW190623  13.897  13.749  13.675
62928SOL    HW290624  13.953  13.706  13.809
62929SOL     OW90625   1.255   6.221   5.608
62929SOL    HW190626   1.170   6.234   5.651
62929SOL    HW290627   1.302   6.303   5.622
62930SOL     OW90628   0.544  10.137   4.568
62930SOL    HW190629   0.635  10.140   4.540
62930SOL    HW290630   0.513  10.228   4.558
62931SOL     OW90631  14.198   1.424   3.525
62931SOL    HW190632  14.106   1.399   3.539
62931SOL    HW290633  14.197   1.520   3.527
62932SOL     OW90634  12.880   8.725  10.092
62932SOL    HW190635  12.820   8.670  10.042
62932SOL    HW290636  12.840   8.730  10.179
62933SOL     OW90637  12.588   3.630   0.098
62933SOL    HW190638  12.612   3.624   0.005
62933SOL    HW290639  12.660   3.588   0.145
62934SOL     OW90640   4.833   6.463   7.389
62934SOL    HW190641   4.879   6.538   7.352
62934SOL    HW290642   4.740   6.480   7.372
62935SOL     OW90643   9.309   6.911  12.794
62935SOL    HW190644   9.352   6.979  12.744
62935SOL    HW290645   9.380   6.854  12.823
62936SOL     OW90646  11.462   1.750  13.600
62936SOL    HW190647  11.416   1.826  13.636
62936SOL    HW290648  11.489   1.778  13.513
62937SOL     OW90649   2.756  13.150   9.725
62937SOL    HW190650   2.727  13.238   9.700
62937SOL    HW290651   2.850  13.149   9.705
62938SOL     OW90652   6.436  14.220   4.281
62938SOL    HW190653   6.406  14.141   4.327
62938SOL    HW290654   6.493  14.264   4.344
62939SOL     OW90655   5.648  12.555   8.365
62939SOL    HW190656   5.679  12.555   8.275
62939SOL    HW290657   5.708  12.613   8.412
62940SOL     OW90658  13.444  11.641  13.852
62940SOL    HW190659  13.500  11.677  13.921
62940SOL    HW290660  13.463  11.696  13.776
62941SOL     OW90661  12.698   9.315   0.677
62941SOL    HW190662  12.611   9.296   0.711
62941SOL    HW290663  12.748   9.342   0.754
62942SOL     OW90664   6.414   6.663  10.854
62942SOL    HW190665   6.455   6.650  10.769
62942SOL    HW290666   6.331   6.707  10.834
62943SOL     OW90667  14.596   0.102  13.367
62943SOL    HW190668  14.673   0.113  13.423
62943SOL    HW290669  14.580   0.008  13.366
62944SOL     OW90670   4.538  13.794  13.840
62944SOL    HW190671   4.479  13.848  13.893
62944SOL    HW290672   4.599  13.756  13.904
62945SOL     OW90673   7.564  10.801  14.399
62945SOL    HW190674   7.609  10.804  14.484
62945SOL    HW290675   7.546  10.708  14.386
62946SOL     OW90676   9.766   1.901  13.077
62946SOL    HW190677   9.728   1.856  13.002
62946SOL    HW290678   9.859   1.878  13.074
62947SOL     OW90679  13.794  12.375  11.212
62947SOL    HW190680  13.838  12.311  11.268
62947SOL    HW290681  13.717  12.329  11.178
62948SOL     OW90682   4.053  11.649  11.487
62948SOL    HW190683   4.116  11.655  11.559
62948SOL    HW290684   4.006  11.567  11.504
62949SOL     OW90685   0.936   2.066   4.591
62949SOL    HW190686   0.920   2.134   4.657
62949SOL    HW290687   0.866   2.078   4.527
62950SOL     OW90688   3.445  13.287   1.570
62950SOL    HW190689   3.377  13.234   1.527
62950SOL    HW290690   3.519  13.226   1.581
62951SOL     OW90691   5.890   8.795   7.863
62951SOL    HW190692   5.896   8.890   7.875
62951SOL    HW290693   5.847   8.763   7.943
62952SOL     OW90694  10.510   2.643   2.000
62952SOL    HW190695  10.522   2.566   1.944
62952SOL    HW290696  10.425   2.630   2.041
62953SOL     OW90697   6.350  13.203   0.768
62953SOL    HW190698   6.306  13.201   0.853
62953SOL    HW290699   6.385  13.114   0.757
62954SOL     OW90700  13.642  12.903   3.765
62954SOL    HW190701  13.588  12.923   3.689
62954SOL    HW290702  13.732  12.913   3.735
62955SOL     OW90703   7.959   5.353   1.157
62955SOL    HW190704   8.003   5.382   1.077
62955SOL    HW290705   8.029   5.328   1.216
62956SOL     OW90706   7.332  13.232   4.024
62956SOL    HW190707   7.381  13.295   4.077
62956SOL    HW290708   7.383  13.224   3.944
62957SOL     OW90709   7.762   7.638   0.099
62957SOL    HW190710   7.823   7.568   0.121
62957SOL    HW290711   7.814   7.718   0.104
62958SOL     OW90712  10.982   0.141  11.308
62958SOL    HW190713  10.984   0.112  11.217
62958SOL    HW290714  10.901   0.192  11.315
62959SOL     OW90715   2.576   2.498  12.824
62959SOL    HW190716   2.522   2.573  12.848
62959SOL    HW290717   2.562   2.434  12.894
62960SOL     OW90718   5.445  13.899   6.874
62960SOL    HW190719   5.386  13.968   6.904
62960SOL    HW290720   5.529  13.943   6.860
62961SOL     OW90721  12.121   9.287  14.112
62961SOL    HW190722  12.156   9.197  14.114
62961SOL    HW290723  12.047   9.285  14.172
62962SOL     OW90724   3.425  11.539   4.552
62962SOL    HW190725   3.341  11.494   4.554
62962SOL    HW290726   3.410  11.618   4.604
62963SOL     OW90727   9.461  12.435   2.401
62963SOL    HW190728   9.510  12.516   2.388
62963SOL    HW290729   9.390  12.459   2.460
62964SOL     OW90730   8.320   3.549  13.997
62964SOL    HW190731   8.304   3.548  13.903
62964SOL    HW290732   8.353   3.637  14.015
62965SOL     OW90733   8.616   4.170  13.383
62965SOL    HW190734   8.561   4.206  13.313
62965SOL    HW290735   8.705   4.183  13.351
62966SOL     OW90736   6.826  14.717   1.681
62966SOL    HW190737   6.798  14.626   1.683
62966SOL    HW290738   6.907  14.718   1.732
62967SOL     OW90739   9.574   6.749   9.802
62967SOL    HW190740   9.577   6.843   9.815
62967SOL    HW290741   9.568   6.712   9.890
62968SOL     OW90742   5.441  10.544  13.660
62968SOL    HW190743   5.414  10.452  13.659
62968SOL    HW290744   5.397  10.581  13.737
62969SOL     OW90745   5.685   3.677   6.435
62969SOL    HW190746   5.756   3.733   6.403
62969SOL    HW290747   5.680   3.605   6.372
62970SOL     OW90748   4.109   0.339   6.337
62970SOL    HW190749   4.202   0.320   6.323
62970SOL    HW290750   4.085   0.283   6.411
62971SOL     OW90751   0.923   2.545  13.222
62971SOL    HW190752   0.946   2.455  13.197
62971SOL    HW290753   0.831   2.553  13.199
62972SOL     OW90754   6.128  11.011   1.946
62972SOL    HW190755   6.038  10.980   1.957
62972SOL    HW290756   6.179  10.959   2.008
62973SOL     OW90757   9.005   4.837   8.491
62973SOL    HW190758   9.039   4.799   8.410
62973SOL    HW290759   9.065   4.910   8.510
62974SOL     OW90760  11.553   1.118   4.200
62974SOL    HW190761  11.511   1.105   4.115
62974SOL    HW290762  11.483   1.103   4.264
62975SOL     OW90763  11.897   1.209  12.782
62975SOL    HW190764  11.809   1.174  12.765
62975SOL    HW290765  11.946   1.134  12.815
62976SOL     OW90766  11.494   3.934  10.480
62976SOL    HW190767  11.484   4.006  10.543
62976SOL    HW290768  11.468   3.856  10.529
62977SOL     OW90769  11.536   1.648   2.653
62977SOL    HW190770  11.532   1.710   2.726
62977SOL    HW290771  11.609   1.678   2.600
62978SOL     OW90772   9.695   1.488  12.250
62978SOL    HW190773   9.782   1.479  12.210
62978SOL    HW290774   9.695   1.576  12.287
62979SOL     OW90775   8.383   9.688   3.665
62979SOL    HW190776   8.313   9.622   3.665
62979SOL    HW290777   8.459   9.642   3.700
62980SOL     OW90778   1.870   9.793   5.086
62980SOL    HW190779   1.859   9.721   5.024
62980SOL    HW290780   1.887   9.870   5.032
62981SOL     OW90781   1.033  11.684   0.835
62981SOL    HW190782   1.054  11.722   0.749
62981SOL    HW290783   0.941  11.707   0.849
62982SOL     OW90784   8.444   2.441   5.630
62982SOL    HW190785   8.536   2.464   5.641
62982SOL    HW290786   8.396   2.522   5.649
62983SOL     OW90787  11.694   6.654  13.175
62983SOL    HW190788  11.622   6.595  13.195
62983SOL    HW290789  11.664   6.741  13.202
62984SOL     OW90790  14.394  12.540   8.253
62984SOL    HW190791  14.433  12.487   8.322
62984SOL    HW290792  14.469  12.580   8.208
62985SOL     OW90793  13.118  10.961   7.855
62985SOL    HW190794  13.115  10.878   7.807
62985SOL    HW290795  13.052  10.952   7.923
62986SOL     OW90796   3.879  13.574   8.441
62986SOL    HW190797   3.974  13.578   8.433
62986SOL    HW290798   3.858  13.635   8.511
62987SOL     OW90799  12.497   6.539   1.147
62987SOL    HW190800  12.407   6.508   1.158
62987SOL    HW290801  12.496   6.584   1.062
62988SOL     OW90802  12.426   3.546   6.870
62988SOL    HW190803  12.380   3.611   6.816
62988SOL    HW290804  12.470   3.598   6.937
62989SOL     OW90805   0.890   4.012   1.476
62989SOL    HW190806   0.855   4.074   1.540
62989SOL    HW290807   0.985   4.028   1.477
62990SOL     OW90808  10.576  11.731  13.655
62990SOL    HW190809  10.584  11.699  13.565
62990SOL    HW290810  10.611  11.661  13.709
62991SOL     OW90811   4.296  14.239  13.167
62991SOL    HW190812   4.300  14.295  13.090
62991SOL    HW290813   4.347  14.285  13.233
62992SOL     OW90814  12.120   7.654   3.668
62992SOL    HW190815  12.104   7.603   3.589
62992SOL    HW290816  12.034   7.665   3.708
62993SOL     OW90817   3.582   8.293  14.341
62993SOL    HW190818   3.672   8.269  14.360
62993SOL    HW290819   3.560   8.242  14.262
62994SOL     OW90820   2.274   2.248  12.114
62994SOL    HW190821   2.362   2.238  12.076
62994SOL    HW290822   2.267   2.178  12.178
62995SOL     OW90823   9.723   3.328  11.416
62995SOL    HW190824   9.690   3.345  11.327
62995SOL    HW290825   9.716   3.233  11.426
62996SOL     OW90826   5.145   1.199  14.730
62996SOL    HW190827   5.188   1.280  14.757
62996SOL    HW290828   5.184   1.132  14.786
62997SOL     OW90829  11.940   7.096   7.548
62997SOL    HW190830  11.910   7.006   7.537
62997SOL    HW290831  11.915   7.140   7.466
62998SOL     OW90832  14.558   8.763  10.378
62998SOL    HW190833  14.462   8.768  10.371
62998SOL    HW290834  14.578   8.813  10.457
62999SOL     OW90835  13.919   8.983   2.756
62999SOL    HW190836  13.895   8.891   2.739
62999SOL    HW290837  13.868   9.033   2.692
63000SOL     OW90838   6.920   2.828  13.951
63000SOL    HW190839   6.988   2.761  13.945
63000SOL    HW290840   6.930   2.881  13.872
63001SOL     OW90841   3.377   6.261   5.032
63001SOL    HW190842   3.373   6.166   5.020
63001SOL    HW290843   3.328   6.297   4.959
63002SOL     OW90844   5.525  12.790   7.674
63002SOL    HW190845   5.614  12.774   7.642
63002SOL    HW290846   5.535  12.858   7.740
63003SOL     OW90847   2.143  13.674  10.819
63003SOL    HW190848   2.120  13.598  10.873
63003SOL    HW290849   2.065  13.689  10.766
63004SOL     OW90850  12.018   7.086   0.554
63004SOL    HW190851  12.088   7.039   0.599
63004SOL    HW290852  11.967   7.127   0.624
63005SOL     OW90853   5.230   2.805   5.757
63005SOL    HW190854   5.219   2.734   5.821
63005SOL    HW290855   5.140   2.835   5.740
63006SOL     OW90856  11.492   1.209   1.439
63006SOL    HW190857  11.569   1.262   1.417
63006SOL    HW290858  11.481   1.221   1.533
63007SOL     OW90859   8.202   2.831   1.193
63007SOL    HW190860   8.262   2.869   1.257
63007SOL    HW290861   8.116   2.836   1.235
63008SOL     OW90862   7.719  12.557   7.229
63008SOL    HW190863   7.682  12.645   7.216
63008SOL    HW290864   7.745  12.529   7.141
63009SOL     OW90865   6.080   9.136   0.880
63009SOL    HW190866   6.017   9.193   0.837
63009SOL    HW290867   6.162   9.184   0.878
63010SOL     OW90868  14.738  13.104   6.454
63010SOL    HW190869  14.737  13.139   6.543
63010SOL    HW290870  14.646  13.092   6.432
63011SOL     OW90871   0.298   2.118   5.266
63011SOL    HW190872   0.323   2.097   5.356
63011SOL    HW290873   0.375   2.162   5.230
63012SOL     OW90874  12.610   8.298  13.589
63012SOL    HW190875  12.544   8.284  13.657
63012SOL    HW290876  12.694   8.295  13.636
63013SOL     OW90877   4.437  14.377   0.248
63013SOL    HW190878   4.477  14.353   0.165
63013SOL    HW290879   4.488  14.330   0.314
63014SOL     OW90880   9.275   8.849  14.165
63014SOL    HW190881   9.311   8.907  14.097
63014SOL    HW290882   9.215   8.905  14.215
63015SOL     OW90883   5.183   7.872   0.162
63015SOL    HW190884   5.106   7.856   0.107
63015SOL    HW290885   5.150   7.927   0.233
63016SOL     OW90886  12.264  14.744   7.431
63016SOL    HW190887  12.230  14.656   7.447
63016SOL    HW290888  12.337  14.731   7.371
63017SOL     OW90889   7.651  11.014   2.735
63017SOL    HW190890   7.734  11.006   2.783
63017SOL    HW290891   7.663  10.958   2.658
63018SOL     OW90892  11.155   4.508   1.814
63018SOL    HW190893  11.103   4.483   1.738
63018SOL    HW290894  11.245   4.509   1.783
63019SOL     OW90895   9.876  14.670  11.572
63019SOL    HW190896   9.924  14.648  11.493
63019SOL    HW290897   9.932  14.639  11.644
63020SOL     OW90898  10.440   4.000  14.601
63020SOL    HW190899  10.434   3.904  14.604
63020SOL    HW290900  10.532   4.017  14.578
63021SOL     OW90901  10.784   2.715   6.412
63021SOL    HW190902  10.859   2.773   6.423
63021SOL    HW290903  10.803   2.666   6.332
63022SOL     OW90904  13.929   7.683  14.292
63022SOL    HW190905  13.956   7.598  14.326
63022SOL    HW290906  13.883   7.663  14.211
63023SOL     OW90907   5.270  10.486   9.683
63023SOL    HW190908   5.347  10.543   9.675
63023SOL    HW290909   5.204  10.528   9.628
63024SOL     OW90910   7.135  13.091   1.683
63024SOL    HW190911   7.155  13.039   1.606
63024SOL    HW290912   7.197  13.061   1.750
63025SOL     OW90913   2.656   8.235  12.618
63025SOL    HW190914   2.633   8.327  12.631
63025SOL    HW290915   2.643   8.195  12.704
63026SOL     OW90916   0.226   4.623   3.282
63026SOL    HW190917   0.239   4.646   3.374
63026SOL    HW290918   0.308   4.649   3.239
63027SOL     OW90919  12.387  11.181   6.469
63027SOL    HW190920  12.432  11.160   6.550
63027SOL    HW290921  12.419  11.268   6.445
63028SOL     OW90922  11.689   0.329  10.132
63028SOL    HW190923  11.627   0.256  10.127
63028SOL    HW290924  11.686   0.369  10.045
63029SOL     OW90925   6.089   4.129  12.038
63029SOL    HW190926   6.172   4.120  11.992
63029SOL    HW290927   6.096   4.070  12.113
63030SOL     OW90928   8.869   0.859   0.327
63030SOL    HW190929   8.870   0.764   0.341
63030SOL    HW290930   8.778   0.884   0.345
63031SOL     OW90931   1.447   1.120   6.775
63031SOL    HW190932   1.362   1.119   6.730
63031SOL    HW290933   1.436   1.187   6.843
63032SOL     OW90934   1.975   9.216  14.299
63032SOL    HW190935   2.065   9.197  14.326
63032SOL    HW290936   1.926   9.221  14.382
63033SOL     OW90937   8.165  10.726   2.656
63033SOL    HW190938   8.160  10.766   2.569
63033SOL    HW290939   8.224  10.651   2.645
63034SOL     OW90940   4.480  10.774   7.208
63034SOL    HW190941   4.500  10.777   7.115
63034SOL    HW290942   4.532  10.700   7.241
63035SOL     OW90943   4.227   6.545  12.747
63035SOL    HW190944   4.137   6.525  12.722
63035SOL    HW290945   4.281   6.490  12.690
63036SOL     OW90946  11.026   2.697  10.957
63036SOL    HW190947  11.118   2.684  10.933
63036SOL    HW290948  10.985   2.612  10.943
63037SOL     OW90949  13.680   4.615   6.624
63037SOL    HW190950  13.685   4.526   6.588
63037SOL    HW290951  13.761   4.626   6.673
63038SOL     OW90952  14.597  12.996   4.746
63038SOL    HW190953  14.679  12.947   4.735
63038SOL    HW290954  14.607  13.071   4.688
63039SOL     OW90955  12.976   0.229  13.581
63039SOL    HW190956  12.890   0.255  13.548
63039SOL    HW290957  12.992   0.287  13.655
63040SOL     OW90958   7.627   3.936   9.381
63040SOL    HW190959   7.559   3.929   9.314
63040SOL    HW290960   7.705   3.966   9.333
63041SOL     OW90961   5.650  12.730   3.566
63041SOL    HW190962   5.615  12.794   3.503
63041SOL    HW290963   5.663  12.650   3.515
63042SOL     OW90964  14.152   5.571  14.482
63042SOL    HW190965  14.215   5.569  14.410
63042SOL    HW290966  14.129   5.663  14.491
63043SOL     OW90967   6.217   7.077   4.829
63043SOL    HW190968   6.256   7.041   4.750
63043SOL    HW290969   6.287   7.130   4.868
63044SOL     OW90970   2.802  13.503   9.790
63044SOL    HW190971   2.733  13.454   9.746
63044SOL    HW290972   2.784  13.595   9.769
63045SOL     OW90973   2.232  10.804   3.141
63045SOL    HW190974   2.182  10.797   3.059
63045SOL    HW290975   2.259  10.714   3.160
63046SOL     OW90976  14.628  11.192   2.746
63046SOL    HW190977  14.611  11.190   2.651
63046SOL    HW290978  14.687  11.118   2.761
63047SOL     OW90979   0.618   6.032   5.086
63047SOL    HW190980   0.695   6.083   5.060
63047SOL    HW290981   0.638   5.943   5.057
63048SOL     OW90982   6.558   3.384   7.449
63048SOL    HW190983   6.556   3.304   7.501
63048SOL    HW290984   6.467   3.413   7.445
63049SOL     OW90985  13.179   1.801  13.248
63049SOL    HW190986  13.228   1.883  13.251
63049SOL    HW290987  13.088   1.827  13.260
63050SOL     OW90988   5.076   7.208   9.676
63050SOL    HW190989   5.103   7.244   9.761
63050SOL    HW290990   5.064   7.115   9.693
63051SOL     OW90991   3.998  11.465   5.662
63051SOL    HW190992   4.025  11.554   5.683
63051SOL    HW290993   4.044  11.411   5.727
63052SOL     OW90994  11.424   7.822   1.086
63052SOL    HW190995  11.435   7.729   1.102
63052SOL    HW290996  11.363   7.851   1.154
63053SOL     OW90997  12.554   7.975   5.840
63053SOL    HW190998  12.572   7.946   5.929
63053SOL    HW290999  12.586   8.065   5.837
63054SOL     OW91000  13.816  13.401   1.465
63054SOL    HW191001  13.897  13.417   1.417
63054SOL    HW291002  13.807  13.477   1.522
63055SOL     OW91003  12.672  13.703   7.982
63055SOL    HW191004  12.666  13.791   8.019
63055SOL    HW291005  12.762  13.697   7.949
63056SOL     OW91006  13.015   2.637   4.037
63056SOL    HW191007  12.934   2.655   4.084
63056SOL    HW291008  13.065   2.580   4.096
63057SOL     OW91009   1.373   9.752   0.155
63057SOL    HW191010   1.329   9.690   0.214
63057SOL    HW291011   1.411   9.698   0.087
63058SOL     OW91012   3.701   1.998   9.549
63058SOL    HW191013   3.782   2.000   9.600
63058SOL    HW291014   3.727   1.960   9.465
63059SOL     OW91015  12.942   6.044  11.867
63059SOL    HW191016  12.863   6.093  11.889
63059SOL    HW291017  12.918   5.993  11.790
63060SOL     OW91018   1.964  14.366  10.794
63060SOL    HW191019   1.911  14.365  10.714
63060SOL    HW291020   1.900  14.369  10.865
63061SOL     OW91021   5.256  14.785   1.124
63061SOL    HW191022   5.342  14.780   1.166
63061SOL    HW291023   5.271  14.834   1.043
63062SOL     OW91024   4.256   6.883   1.584
63062SOL    HW191025   4.174   6.873   1.536
63062SOL    HW291026   4.316   6.923   1.521
63063SOL     OW91027   1.233   3.232   0.022
63063SOL    HW191028   1.241   3.321  14.865
63063SOL    HW291029   1.215   3.246   0.115
63064SOL     OW91030  10.395  13.558  14.143
63064SOL    HW191031  10.359  13.529  14.227
63064SOL    HW291032  10.320  13.560  14.084
63065SOL     OW91033  10.053  12.947   7.080
63065SOL    HW191034   9.986  12.994   7.130
63065SOL    HW291035  10.129  13.005   7.080
63066SOL     OW91036   4.916   8.569  10.083
63066SOL    HW191037   4.905   8.615   9.999
63066SOL    HW291038   4.981   8.502  10.065
63067SOL     OW91039   0.615   9.740  14.101
63067SOL    HW191040   0.546   9.765  14.040
63067SOL    HW291041   0.606   9.802  14.174
63068SOL     OW91042   3.274   1.862   0.810
63068SOL    HW191043   3.358   1.817   0.815
63068SOL    HW291044   3.287   1.929   0.743
63069SOL     OW91045   6.273   3.723   6.148
63069SOL    HW191046   6.225   3.644   6.170
63069SOL    HW291047   6.232   3.792   6.200
63070SOL     OW91048  13.178  13.708  12.069
63070SOL    HW191049  13.121  13.695  11.993
63070SOL    HW291050  13.264  13.677  12.040
63071SOL     OW91051   0.018   8.013   5.753
63071SOL    HW191052   0.012   7.941   5.690
63071SOL    HW291053   0.110   8.015   5.778
63072SOL     OW91054   8.045   4.984   8.756
63072SOL    HW191055   8.045   4.942   8.670
63072SOL    HW291056   7.953   4.988   8.780
63073SOL     OW91057   0.667   1.404   5.863
63073SOL    HW191058   0.716   1.485   5.872
63073SOL    HW291059   0.579   1.426   5.893
63074SOL     OW91060  13.834  11.354  14.333
63074SOL    HW191061  13.809  11.353  14.425
63074SOL    HW291062  13.926  11.327  14.333
63075SOL     OW91063   0.462   8.268  13.304
63075SOL    HW191064   0.409   8.230  13.234
63075SOL    HW291065   0.470   8.197  13.369
63076SOL     OW91066   5.934   8.054   4.804
63076SOL    HW191067   5.842   8.037   4.783
63076SOL    HW291068   5.968   7.969   4.831
63077SOL     OW91069   9.731  14.726  11.991
63077SOL    HW191070   9.646  14.749  12.027
63077SOL    HW291071   9.719  14.639  11.953
63078SOL     OW91072   8.795  10.388   3.225
63078SOL    HW191073   8.781  10.351   3.138
63078SOL    HW291074   8.772  10.318   3.285
63079SOL     OW91075   9.229  10.080   8.989
63079SOL    HW191076   9.243  10.014   9.057
63079SOL    HW291077   9.314  10.122   8.978
63080SOL     OW91078  10.722   9.441   5.849
63080SOL    HW191079  10.673   9.478   5.775
63080SOL    HW291080  10.667   9.460   5.925
63081SOL     OW91081   8.994  14.332   0.571
63081SOL    HW191082   9.034  14.414   0.542
63081SOL    HW291083   8.983  14.342   0.665
63082SOL     OW91084  14.676   2.964   3.895
63082SOL    HW191085  14.769   2.943   3.897
63082SOL    HW291086  14.672   3.058   3.910
63083SOL     OW91087   2.100   5.992  10.771
63083SOL    HW191088   2.033   6.024  10.830
63083SOL    HW291089   2.149   5.927  10.822
63084SOL     OW91090  13.819   8.663   3.129
63084SOL    HW191091  13.786   8.700   3.048
63084SOL    HW291092  13.879   8.729   3.163
63085SOL     OW91093   8.823  14.197   4.111
63085SOL    HW191094   8.893  14.139   4.141
63085SOL    HW291095   8.805  14.167   4.021
63086SOL     OW91096   1.995   1.138   8.147
63086SOL    HW191097   2.084   1.102   8.154
63086SOL    HW291098   1.981   1.148   8.052
63087SOL     OW91099  11.488  11.037   8.864
63087SOL    HW191100  11.500  10.954   8.909
63087SOL    HW291101  11.549  11.034   8.790
63088SOL     OW91102   5.665   7.233   7.426
63088SOL    HW191103   5.589   7.273   7.468
63088SOL    HW291104   5.640   7.227   7.333
63089SOL     OW91105   1.400   4.082   0.458
63089SOL    HW191106   1.347   4.047   0.530
63089SOL    HW291107   1.387   4.177   0.462
63090SOL     OW91108  10.044  10.289   0.090
63090SOL    HW191109   9.968  10.255   0.137
63090SOL    HW291110  10.116  10.283   0.153
63091SOL     OW91111   7.421   6.624   4.392
63091SOL    HW191112   7.332   6.658   4.389
63091SOL    HW291113   7.425   6.575   4.474
63092SOL     OW91114   4.999  12.958   3.394
63092SOL    HW191115   5.065  12.920   3.451
63092SOL    HW291116   4.954  13.022   3.448
63093SOL     OW91117   9.182  10.723  12.399
63093SOL    HW191118   9.118  10.793  12.391
63093SOL    HW291119   9.202  10.698  12.308
63094SOL     OW91120  12.838  11.160   9.288
63094SOL    HW191121  12.925  11.181   9.323
63094SOL    HW291122  12.781  11.158   9.365
63095SOL     OW91123   7.466  12.326   8.922
63095SOL    HW191124   7.453  12.416   8.893
63095SOL    HW291125   7.380  12.298   8.952
63096SOL     OW91126   9.789   1.156   1.004
63096SOL    HW191127   9.785   1.193   1.093
63096SOL    HW291128   9.882   1.150   0.985
63097SOL     OW91129  13.226   4.574   8.070
63097SOL    HW191130  13.137   4.563   8.038
63097SOL    HW291131  13.218   4.632   8.146
63098SOL     OW91132   3.202   9.074   7.101
63098SOL    HW191133   3.290   9.111   7.092
63098SOL    HW291134   3.196   9.047   7.193
63099SOL     OW91135  12.463   1.528   7.724
63099SOL    HW191136  12.406   1.458   7.755
63099SOL    HW291137  12.415   1.568   7.651
63100SOL     OW91138   3.498   9.608  10.127
63100SOL    HW191139   3.478   9.648  10.043
63100SOL    HW291140   3.498   9.514  10.111
63101SOL     OW91141   3.224  14.445   0.971
63101SOL    HW191142   3.304  14.489   1.000
63101SOL    HW291143   3.203  14.385   1.042
63102SOL     OW91144   3.528   9.762  13.603
63102SOL    HW191145   3.522   9.756  13.698
63102SOL    HW291146   3.463   9.699  13.570
63103SOL     OW91147  13.319  14.824   8.607
63103SOL    HW191148  13.290  14.836   8.517
63103SOL    HW291149  13.283   0.020   8.654
63104SOL     OW91150   0.450  12.002  10.271
63104SOL    HW191151   0.496  12.081  10.300
63104SOL    HW291152   0.439  11.950  10.351
63105SOL     OW91153   3.130  13.672  13.316
63105SOL    HW191154   3.213  13.653  13.271
63105SOL    HW291155   3.157  13.708  13.400
63106SOL     OW91156   7.747   8.162  14.810
63106SOL    HW191157   7.764   8.083  14.758
63106SOL    HW291158   7.823   8.170  14.867
63107SOL     OW91159   2.106  10.390   3.533
63107SOL    HW191160   2.152  10.357   3.455
63107SOL    HW291161   2.088  10.482   3.512
63108SOL     OW91162   5.555  13.633  13.377
63108SOL    HW191163   5.480  13.579  13.403
63108SOL    HW291164   5.603  13.578  13.315
63109SOL     OW91165   8.930   8.850   7.106
63109SOL    HW191166   8.881   8.857   7.024
63109SOL    HW291167   9.021   8.837   7.079
63110SOL     OW91168  14.587  14.297  12.294
63110SOL    HW191169  14.646  14.236  12.250
63110SOL    HW291170  14.593  14.274  12.387
63111SOL     OW91171  11.926   8.539   0.531
63111SOL    HW191172  11.848   8.551   0.477
63111SOL    HW291173  11.899   8.475   0.597
63112SOL     OW91174   7.849   9.548  13.558
63112SOL    HW191175   7.884   9.635  13.539
63112SOL    HW291176   7.761   9.548  13.521
63113SOL     OW91177  12.569   2.187   8.896
63113SOL    HW191178  12.585   2.133   8.819
63113SOL    HW291179  12.498   2.246   8.870
63114SOL     OW91180   7.353   0.773  12.999
63114SOL    HW191181   7.430   0.752  12.947
63114SOL    HW291182   7.303   0.691  13.003
63115SOL     OW91183   9.384   3.684   0.908
63115SOL    HW191184   9.402   3.591   0.916
63115SOL    HW291185   9.377   3.715   0.999
63116SOL     OW91186   3.035   8.273  14.018
63116SOL    HW191187   3.034   8.205  13.951
63116SOL    HW291188   2.944   8.301  14.026
63117SOL     OW91189   9.971  10.119   5.981
63117SOL    HW191190   9.887  10.134   5.937
63117SOL    HW291191  10.023  10.197   5.961
63118SOL     OW91192   4.519  11.943   7.447
63118SOL    HW191193   4.488  11.922   7.535
63118SOL    HW291194   4.610  11.969   7.458
63119SOL     OW91195   6.197   8.160  13.658
63119SOL    HW191196   6.116   8.158  13.607
63119SOL    HW291197   6.222   8.067  13.666
63120SOL     OW91198  11.380   6.057  13.515
63120SOL    HW191199  11.318   6.011  13.572
63120SOL    HW291200  11.352   6.035  13.426
63121SOL     OW91201   0.951   6.154  12.794
63121SOL    HW191202   0.988   6.073  12.830
63121SOL    HW291203   0.981   6.156  12.703
63122SOL     OW91204   7.613   2.138   9.624
63122SOL    HW191205   7.604   2.099   9.711
63122SOL    HW291206   7.693   2.190   9.630
63123SOL     OW91207  10.615   7.886   6.442
63123SOL    HW191208  10.561   7.827   6.391
63123SOL    HW291209  10.688   7.832   6.473
63124SOL     OW91210   9.579   4.050  12.221
63124SOL    HW191211   9.595   4.088  12.135
63124SOL    HW291212   9.486   4.030  12.222
63125SOL     OW91213  10.247   4.798   7.915
63125SOL    HW191214  10.290   4.853   7.980
63125SOL    HW291215  10.226   4.857   7.843
63126SOL     OW91216  10.155  11.629   5.216
63126SOL    HW191217  10.224  11.691   5.190
63126SOL    HW291218  10.185  11.593   5.299
63127SOL     OW91219   5.294   5.383   1.101
63127SOL    HW191220   5.380   5.349   1.076
63127SOL    HW291221   5.245   5.306   1.130
63128SOL     OW91222   3.328   4.679   7.125
63128SOL    HW191223   3.251   4.660   7.179
63128SOL    HW291224   3.344   4.598   7.077
63129SOL     OW91225   0.734  14.843   1.252
63129SOL    HW191226   0.795   0.034   1.228
63129SOL    HW291227   0.730  14.787   1.174
63130SOL     OW91228  13.834  10.730  14.821
63130SOL    HW191229  13.879  10.784   0.007
63130SOL    HW291230  13.741  10.741  14.842
63131SOL     OW91231   6.415   5.365  11.668
63131SOL    HW191232   6.345   5.318  11.623
63131SOL    HW291233   6.379   5.452  11.684
63132SOL     OW91234   0.599  14.104   8.172
63132SOL    HW191235   0.507  14.078   8.178
63132SOL    HW291236   0.642  14.029   8.130
63133SOL     OW91237  14.245   8.778   1.483
63133SOL    HW191238  14.213   8.866   1.461
63133SOL    HW291239  14.301   8.791   1.560
63134SOL     OW91240   5.006   5.897   4.380
63134SOL    HW191241   4.919   5.873   4.347
63134SOL    HW291242   4.993   5.912   4.474
63135SOL     OW91243   5.685   8.343   8.327
63135SOL    HW191244   5.651   8.306   8.408
63135SOL    HW291245   5.678   8.438   8.339
63136SOL     OW91246  14.828  10.788   9.786
63136SOL    HW191247  14.762  10.857   9.800
63136SOL    HW291248  14.798  10.715   9.840
63137SOL     OW91249   0.324   4.752  14.286
63137SOL    HW191250   0.305   4.800  14.368
63137SOL    HW291251   0.395   4.693  14.309
63138SOL     OW91252  11.028  14.309   1.498
63138SOL    HW191253  10.941  14.282   1.469
63138SOL    HW291254  11.089  14.256   1.447
63139SOL     OW91255   2.546   9.233   5.230
63139SOL    HW191256   2.609   9.272   5.291
63139SOL    HW291257   2.540   9.297   5.159
63140SOL     OW91258  10.307   1.040   0.652
63140SOL    HW191259  10.393   1.052   0.612
63140SOL    HW291260  10.253   1.109   0.614
63141SOL     OW91261   1.330  11.423   4.650
63141SOL    HW191262   1.407  11.367   4.649
63141SOL    HW291263   1.317  11.444   4.743
63142SOL     OW91264  12.325  11.565   8.986
63142SOL    HW191265  12.367  11.492   9.032
63142SOL    HW291266  12.249  11.586   9.040
63143SOL     OW91267   0.690   7.354   6.366
63143SOL    HW191268   0.720   7.366   6.276
63143SOL    HW291269   0.623   7.422   6.378
63144SOL     OW91270   5.421   4.777  10.619
63144SOL    HW191271   5.428   4.681  10.626
63144SOL    HW291272   5.510   4.808  10.633
63145SOL     OW91273   0.732   6.876   5.124
63145SOL    HW191274   0.694   6.794   5.156
63145SOL    HW291275   0.692   6.943   5.179
63146SOL     OW91276   1.144   2.637   1.886
63146SOL    HW191277   1.096   2.579   1.828
63146SOL    HW291278   1.151   2.590   1.969
63147SOL     OW91279   6.770   6.877   3.701
63147SOL    HW191280   6.687   6.913   3.733
63147SOL    HW291281   6.823   6.955   3.682
63148SOL     OW91282   5.876   1.839   8.524
63148SOL    HW191283   5.815   1.900   8.483
63148SOL    HW291284   5.918   1.795   8.450
63149SOL     OW91285   6.265   5.846  13.311
63149SOL    HW191286   6.189   5.805  13.352
63149SOL    HW291287   6.280   5.925  13.363
63150SOL     OW91288   0.123   7.568   5.766
63150SOL    HW191289   0.101   7.561   5.859
63150SOL    HW291290   0.045   7.537   5.720
63151SOL     OW91291   5.976   2.765   4.339
63151SOL    HW191292   6.030   2.703   4.290
63151SOL    HW291293   6.037   2.833   4.367
63152SOL     OW91294   6.014   5.968   7.413
63152SOL    HW191295   6.000   5.878   7.383
63152SOL    HW291296   6.109   5.975   7.424
63153SOL     OW91297  13.638  13.626  12.278
63153SOL    HW191298  13.606  13.622  12.369
63153SOL    HW291299  13.629  13.718  12.254
63154SOL     OW91300   5.518  13.575   7.772
63154SOL    HW191301   5.496  13.504   7.711
63154SOL    HW291302   5.537  13.650   7.716
63155SOL     OW91303   6.494   0.683   1.369
63155SOL    HW191304   6.577   0.726   1.348
63155SOL    HW291305   6.519   0.593   1.392
63156SOL     OW91306  13.440   2.799  14.037
63156SOL    HW191307  13.447   2.884  14.080
63156SOL    HW291308  13.517   2.794  13.981
63157SOL     OW91309   0.147   4.395   4.872
63157SOL    HW191310   0.101   4.460   4.818
63157SOL    HW291311   0.085   4.323   4.882
63158SOL     OW91312  12.371  13.837  11.184
63158SOL    HW191313  12.307  13.883  11.238
63158SOL    HW291314  12.447  13.825  11.240
63159SOL     OW91315   3.118   2.448  11.538
63159SOL    HW191316   3.077   2.414  11.459
63159SOL    HW291317   3.120   2.543  11.526
63160SOL     OW91318  10.201   4.230   4.145
63160SOL    HW191319  10.238   4.318   4.153
63160SOL    HW291320  10.237   4.196   4.064
63161SOL     OW91321  10.851   6.108   8.710
63161SOL    HW191322  10.816   6.027   8.673
63161SOL    HW291323  10.946   6.094   8.711
63162SOL     OW91324  10.737  11.227  10.168
63162SOL    HW191325  10.819  11.199  10.128
63162SOL    HW291326  10.686  11.265  10.096
63163SOL     OW91327   1.069   4.607  12.575
63163SOL    HW191328   0.980   4.632  12.601
63163SOL    HW291329   1.112   4.689  12.552
63164SOL     OW91330  11.729  14.412   9.340
63164SOL    HW191331  11.756  14.482   9.400
63164SOL    HW291332  11.647  14.443   9.302
63165SOL     OW91333   5.815   9.318  11.827
63165SOL    HW191334   5.880   9.288  11.763
63165SOL    HW291335   5.748   9.362  11.775
63166SOL     OW91336  13.226   7.259  13.435
63166SOL    HW191337  13.164   7.232  13.503
63166SOL    HW291338  13.261   7.343  13.466
63167SOL     OW91339   1.395   1.868   7.876
63167SOL    HW191340   1.358   1.801   7.819
63167SOL    HW291341   1.324   1.888   7.938
63168SOL     OW91342  10.610  13.914   3.391
63168SOL    HW191343  10.594  13.885   3.481
63168SOL    HW291344  10.661  13.844   3.351
63169SOL     OW91345   6.866   6.024   0.921
63169SOL    HW191346   6.859   5.984   1.008
63169SOL    HW291347   6.830   6.112   0.932
63170SOL     OW91348   5.181  10.445  11.649
63170SOL    HW191349   5.148  10.505  11.582
63170SOL    HW291350   5.174  10.358  11.609
63171SOL     OW91351   6.611   7.752  12.006
63171SOL    HW191352   6.656   7.830  11.971
63171SOL    HW291353   6.647   7.679  11.955
63172SOL     OW91354  13.209   8.718   2.014
63172SOL    HW191355  13.135   8.759   1.970
63172SOL    HW291356  13.284   8.735   1.956
63173SOL     OW91357   0.736   2.380   8.055
63173SOL    HW191358   0.793   2.382   8.132
63173SOL    HW291359   0.724   2.472   8.031
63174SOL     OW91360  12.353  11.363  11.895
63174SOL    HW191361  12.278  11.303  11.894
63174SOL    HW291362  12.391  11.352  11.982
63175SOL     OW91363  14.416   0.889   2.167
63175SOL    HW191364  14.379   0.837   2.237
63175SOL    HW291365  14.416   0.979   2.201
63176SOL     OW91366   8.254   2.396   7.840
63176SOL    HW191367   8.243   2.302   7.849
63176SOL    HW291368   8.335   2.416   7.887
63177SOL     OW91369  14.403  10.931  10.783
63177SOL    HW191370  14.473  10.967  10.838
63177SOL    HW291371  14.414  10.837  10.788
63178SOL     OW91372   1.417  13.676   0.128
63178SOL    HW191373   1.477  13.651   0.057
63178SOL    HW291374   1.444  13.624   0.203
63179SOL     OW91375  11.199   0.015   0.724
63179SOL    HW191376  11.129  14.862   0.668
63179SOL    HW291377  11.221  14.821   0.781
63180SOL     OW91378   0.166  13.310   1.854
63180SOL    HW191379   0.125  13.363   1.923
63180SOL    HW291380   0.257  13.341   1.851
63181SOL     OW91381  13.139  12.538  12.293
63181SOL    HW191382  13.228  12.550  12.325
63181SOL    HW291383  13.143  12.564  12.201
63182SOL     OW91384   6.828   7.728   4.923
63182SOL    HW191385   6.845   7.821   4.939
63182SOL    HW291386   6.911   7.685   4.944
63183SOL     OW91387  11.005  10.341   6.151
63183SOL    HW191388  11.030  10.426   6.189
63183SOL    HW291389  10.940  10.364   6.084
63184SOL     OW91390   3.558   4.733   6.171
63184SOL    HW191391   3.491   4.666   6.184
63184SOL    HW291392   3.526   4.784   6.096
63185SOL     OW91393   9.214   1.720   1.295
63185SOL    HW191394   9.220   1.714   1.390
63185SOL    HW291395   9.121   1.734   1.277
63186SOL     OW91396  14.178   3.783   8.674
63186SOL    HW191397  14.172   3.866   8.628
63186SOL    HW291398  14.103   3.782   8.733
63187SOL     OW91399   0.958  11.428  11.398
63187SOL    HW191400   0.909  11.510  11.402
63187SOL    HW291401   0.989  11.415  11.487
63188SOL     OW91402   2.757  13.641   7.541
63188SOL    HW191403   2.804  13.713   7.498
63188SOL    HW291404   2.722  13.680   7.621
63189SOL     OW91405   0.510   3.491  11.195
63189SOL    HW191406   0.444   3.560  11.193
63189SOL    HW291407   0.496   3.443  11.113
63190SOL     OW91408   5.673   2.672   4.503
63190SOL    HW191409   5.766   2.651   4.512
63190SOL    HW291410   5.672   2.755   4.455
63191SOL     OW91411   6.225   8.009  10.131
63191SOL    HW191412   6.234   7.956  10.211
63191SOL    HW291413   6.186   8.091  10.162
63192SOL     OW91414   2.387  14.675  12.388
63192SOL    HW191415   2.325  14.692  12.317
63192SOL    HW291416   2.456  14.623  12.347
63193SOL     OW91417   0.857   1.480   6.994
63193SOL    HW191418   0.779   1.519   7.034
63193SOL    HW291419   0.845   1.386   7.005
63194SOL     OW91420   5.160  13.816   5.556
63194SOL    HW191421   5.234  13.843   5.502
63194SOL    HW291422   5.182  13.849   5.643
63195SOL     OW91423   3.749   2.628  12.238
63195SOL    HW191424   3.665   2.656  12.201
63195SOL    HW291425   3.785   2.707  12.278
63196SOL     OW91426   5.236   9.924   1.405
63196SOL    HW191427   5.311   9.902   1.350
63196SOL    HW291428   5.164   9.872   1.369
63197SOL     OW91429   6.221   4.021  11.050
63197SOL    HW191430   6.269   3.966  11.111
63197SOL    HW291431   6.267   4.105  11.053
63198SOL     OW91432   7.512  12.721   2.035
63198SOL    HW191433   7.564  12.662   2.089
63198SOL    HW291434   7.427  12.727   2.080
63199SOL     OW91435   7.651   4.926   3.986
63199SOL    HW191436   7.571   4.894   3.945
63199SOL    HW291437   7.692   4.848   4.022
63200SOL     OW91438  11.835   0.168   0.292
63200SOL    HW191439  11.837   0.117   0.373
63200SOL    HW291440  11.746   0.155   0.259
63201SOL     OW91441   5.112  13.173   7.060
63201SOL    HW191442   5.181  13.121   7.100
63201SOL    HW291443   5.077  13.227   7.131
63202SOL     OW91444  14.661  14.382   2.004
63202SOL    HW191445  14.586  14.349   2.053
63202SOL    HW291446  14.631  14.464   1.966
63203SOL     OW91447  14.765  13.192  11.816
63203SOL    HW191448  14.673  13.204  11.795
63203SOL    HW291449  14.773  13.219  11.907
63204SOL     OW91450   9.097   2.272   6.750
63204SOL    HW191451   9.178   2.319   6.773
63204SOL    HW291452   9.069   2.232   6.832
63205SOL     OW91453   5.144   2.171   5.644
63205SOL    HW191454   5.197   2.233   5.694
63205SOL    HW291455   5.060   2.216   5.631
63206SOL     OW91456   3.300   2.019   7.711
63206SOL    HW191457   3.266   1.932   7.691
63206SOL    HW291458   3.224   2.069   7.739
63207SOL     OW91459  14.558   2.318   1.174
63207SOL    HW191460  14.587   2.306   1.084
63207SOL    HW291461  14.619   2.382   1.211
63208SOL     OW91462  10.739   1.666   6.402
63208SOL    HW191463  10.735   1.582   6.449
63208SOL    HW291464  10.820   1.661   6.352
63209SOL     OW91465   9.071  14.742   0.112
63209SOL    HW191466   9.160  14.730   0.078
63209SOL    HW291467   9.063  14.836   0.124
63210SOL     OW91468   0.771  14.282  12.881
63210SOL    HW191469   0.844  14.332  12.845
63210SOL    HW291470   0.711  14.349  12.914
63211SOL     OW91471   8.731  10.580  12.388
63211SOL    HW191472   8.657  10.606  12.444
63211SOL    HW291473   8.805  10.573  12.449
63212SOL     OW91474   0.673  12.890  12.869
63212SOL    HW191475   0.768  12.886  12.867
63212SOL    HW291476   0.650  12.947  12.795
63213SOL     OW91477  14.756  13.864   6.768
63213SOL    HW191478  14.766  13.770   6.783
63213SOL    HW291479  14.661  13.877   6.761
63214SOL     OW91480   3.032   8.048   3.277
63214SOL    HW191481   2.966   8.088   3.334
63214SOL    HW291482   3.065   7.974   3.327
63215SOL     OW91483   8.395  14.672   8.343
63215SOL    HW191484   8.350  14.675   8.427
63215SOL    HW291485   8.454  14.596   8.351
63216SOL     OW91486  14.453   0.954   4.683
63216SOL    HW191487  14.463   0.917   4.595
63216SOL    HW291488  14.509   0.899   4.738
63217SOL     OW91489   1.328   8.714   6.320
63217SOL    HW191490   1.239   8.690   6.294
63217SOL    HW291491   1.347   8.659   6.395
63218SOL     OW91492   0.807  13.547  10.519
63218SOL    HW191493   0.777  13.568  10.431
63218SOL    HW291494   0.893  13.506  10.506
63219SOL     OW91495   9.669   8.151   9.967
63219SOL    HW191496   9.611   8.095  10.020
63219SOL    HW291497   9.640   8.240   9.986
63220SOL     OW91498  13.586  10.440   3.719
63220SOL    HW191499  13.557  10.501   3.787
63220SOL    HW291500  13.547  10.356   3.744
63221SOL     OW91501   8.244   7.628  10.780
63221SOL    HW191502   8.155   7.645  10.749
63221SOL    HW291503   8.267   7.707  10.829
63222SOL     OW91504   0.664   5.594   1.899
63222SOL    HW191505   0.641   5.619   1.988
63222SOL    HW291506   0.731   5.526   1.909
63223SOL     OW91507   8.145  12.403   1.515
63223SOL    HW191508   8.110  12.314   1.506
63223SOL    HW291509   8.091  12.443   1.583
63224SOL     OW91510   0.025   9.391  10.048
63224SOL    HW191511   0.111   9.434  10.055
63224SOL    HW291512   0.003   9.368  10.139
63225SOL     OW91513   5.306   5.969   6.200
63225SOL    HW191514   5.392   5.963   6.242
63225SOL    HW291515   5.325   5.982   6.107
63226SOL     OW91516   8.466   5.443  11.742
63226SOL    HW191517   8.510   5.362  11.714
63226SOL    HW291518   8.506   5.512  11.689
63227SOL     OW91519   8.917   1.477   1.758
63227SOL    HW191520   9.001   1.523   1.757
63227SOL    HW291521   8.923   1.416   1.832
63228SOL     OW91522   6.002  13.549   3.313
63228SOL    HW191523   6.096  13.531   3.314
63228SOL    HW291524   5.975  13.538   3.404
63229SOL     OW91525   5.728   3.245  14.675
63229SOL    HW191526   5.817   3.227  14.706
63229SOL    HW291527   5.713   3.337  14.698
63230SOL     OW91528  12.936   6.514   2.349
63230SOL    HW191529  12.881   6.532   2.426
63230SOL    HW291530  12.963   6.600   2.319
63231SOL     OW91531  13.207   6.776   3.327
63231SOL    HW191532  13.210   6.869   3.351
63231SOL    HW291533  13.299   6.750   3.324
63232SOL     OW91534   0.417   7.767   3.876
63232SOL    HW191535   0.424   7.793   3.967
63232SOL    HW291536   0.463   7.683   3.871
63233SOL     OW91537   8.135   1.909   7.660
63233SOL    HW191538   8.078   1.937   7.588
63233SOL    HW291539   8.223   1.937   7.634
63234SOL     OW91540   4.827   6.540   4.363
63234SOL    HW191541   4.802   6.452   4.336
63234SOL    HW291542   4.919   6.534   4.386
63235SOL     OW91543   2.065  11.222   1.130
63235SOL    HW191544   2.029  11.134   1.120
63235SOL    HW291545   2.000  11.269   1.182
63236SOL     OW91546   8.666  12.533   3.670
63236SOL    HW191547   8.577  12.504   3.648
63236SOL    HW291548   8.668  12.625   3.647
63237SOL     OW91549   9.683   9.293   2.792
63237SOL    HW191550   9.764   9.246   2.811
63237SOL    HW291551   9.686   9.370   2.848
63238SOL     OW91552   7.169   7.370   5.650
63238SOL    HW191553   7.225   7.362   5.573
63238SOL    HW291554   7.151   7.464   5.656
63239SOL     OW91555   7.375  10.376   7.733
63239SOL    HW191556   7.372  10.472   7.737
63239SOL    HW291557   7.298  10.348   7.781
63240SOL     OW91558   5.578   1.210   9.874
63240SOL    HW191559   5.510   1.253   9.821
63240SOL    HW291560   5.607   1.136   9.821
63241SOL     OW91561   3.414   6.285   6.196
63241SOL    HW191562   3.354   6.255   6.128
63241SOL    HW291563   3.460   6.206   6.224
63242SOL     OW91564  12.302  11.627  10.949
63242SOL    HW191565  12.355  11.651  10.873
63242SOL    HW291566  12.307  11.704  11.007
63243SOL     OW91567   2.089   6.405   7.610
63243SOL    HW191568   2.132   6.409   7.695
63243SOL    HW291569   1.997   6.386   7.630
63244SOL     OW91570   9.747   2.957  11.261
63244SOL    HW191571   9.770   2.866  11.240
63244SOL    HW291572   9.736   2.999  11.175
63245SOL     OW91573  13.163   4.879   4.116
63245SOL    HW191574  13.172   4.868   4.022
63245SOL    HW291575  13.182   4.793   4.153
63246SOL     OW91576   9.540   9.040  14.701
63246SOL    HW191577   9.547   8.960  14.752
63246SOL    HW291578   9.452   9.073  14.720
63247SOL     OW91579   9.549   4.799   4.842
63247SOL    HW191580   9.548   4.887   4.805
63247SOL    HW291581   9.461   4.766   4.828
63248SOL     OW91582  13.844  13.025   9.998
63248SOL    HW191583  13.877  12.945   9.956
63248SOL    HW291584  13.879  13.096   9.945
63249SOL     OW91585   4.743  14.608   3.419
63249SOL    HW191586   4.704  14.687   3.456
63249SOL    HW291587   4.676  14.572   3.361
63250SOL     OW91588  13.932   9.186   5.828
63250SOL    HW191589  14.010   9.204   5.775
63250SOL    HW291590  13.933   9.253   5.896
63251SOL     OW91591   7.555   1.059   5.845
63251SOL    HW191592   7.633   1.003   5.840
63251SOL    HW291593   7.493   1.020   5.784
63252SOL     OW91594   4.920   5.543   6.985
63252SOL    HW191595   4.933   5.630   6.947
63252SOL    HW291596   4.826   5.539   7.004
63253SOL     OW91597  13.430   9.775   4.734
63253SOL    HW191598  13.420   9.725   4.815
63253SOL    HW291599  13.432   9.866   4.762
63254SOL     OW91600   7.067  10.629   1.620
63254SOL    HW191601   7.026  10.684   1.686
63254SOL    HW291602   7.040  10.540   1.642
63255SOL     OW91603  13.331  11.177  14.868
63255SOL    HW191604  13.245  11.185   0.031
63255SOL    HW291605  13.323  11.226  14.786
63256SOL     OW91606  14.020  11.213   7.070
63256SOL    HW191607  14.116  11.218   7.071
63256SOL    HW291608  14.001  11.121   7.053
63257SOL     OW91609   5.490   6.157  11.596
63257SOL    HW191610   5.561   6.219  11.578
63257SOL    HW291611   5.524   6.072  11.568
63258SOL     OW91612   8.936   7.895   2.742
63258SOL    HW191613   8.996   7.823   2.724
63258SOL    HW291614   8.883   7.863   2.815
63259SOL     OW91615   5.409  10.783   1.470
63259SOL    HW191616   5.422  10.798   1.564
63259SOL    HW291617   5.492  10.809   1.430
63260SOL     OW91618   0.858  14.237   6.922
63260SOL    HW191619   0.826  14.156   6.961
63260SOL    HW291620   0.881  14.293   6.996
63261SOL     OW91621   1.804   7.596  12.225
63261SOL    HW191622   1.842   7.664  12.280
63261SOL    HW291623   1.710   7.614  12.226
63262SOL     OW91624   6.711  13.221   5.812
63262SOL    HW191625   6.630  13.256   5.849
63262SOL    HW291626   6.688  13.190   5.725
63263SOL     OW91627  12.247  13.051  13.096
63263SOL    HW191628  12.223  12.988  13.164
63263SOL    HW291629  12.340  13.033  13.079
63264SOL     OW91630  11.975  12.129   7.137
63264SOL    HW191631  12.006  12.218   7.121
63264SOL    HW291632  12.052  12.074   7.126
63265SOL     OW91633  14.307   8.316   4.695
63265SOL    HW191634  14.380   8.311   4.634
63265SOL    HW291635  14.283   8.409   4.696
63266SOL     OW91636   0.890   2.198   3.909
63266SOL    HW191637   0.904   2.280   3.862
63266SOL    HW291638   0.924   2.130   3.852
63267SOL     OW91639  11.668   9.054   1.035
63267SOL    HW191640  11.692   9.055   0.942
63267SOL    HW291641  11.692   8.966   1.065
63268SOL     OW91642   0.846   5.292   3.822
63268SOL    HW191643   0.885   5.291   3.909
63268SOL    HW291644   0.896   5.357   3.773
63269SOL     OW91645   2.430  10.825  13.507
63269SOL    HW191646   2.441  10.730  13.498
63269SOL    HW291647   2.411  10.855  13.418
63270SOL     OW91648  12.345   3.495  13.613
63270SOL    HW191649  12.325   3.417  13.663
63270SOL    HW291650  12.281   3.560  13.643
63271SOL     OW91651   4.855   9.111   5.030
63271SOL    HW191652   4.918   9.174   4.993
63271SOL    HW291653   4.896   9.082   5.111
63272SOL     OW91654   5.525   6.491   6.976
63272SOL    HW191655   5.460   6.445   6.923
63272SOL    HW291656   5.484   6.500   7.062
63273SOL     OW91657   4.857  14.509  14.482
63273SOL    HW191658   4.862  14.585  14.541
63273SOL    HW291659   4.769  14.474  14.497
63274SOL     OW91660  12.524  14.333   9.922
63274SOL    HW191661  12.593  14.302   9.980
63274SOL    HW291662  12.495  14.256   9.874
63275SOL     OW91663   8.471   3.102  10.455
63275SOL    HW191664   8.545   3.077  10.400
63275SOL    HW291665   8.482   3.196  10.469
63276SOL     OW91666  12.022   1.173  11.377
63276SOL    HW191667  12.073   1.201  11.453
63276SOL    HW291668  12.044   1.235  11.308
63277SOL     OW91669   9.856   5.657  12.969
63277SOL    HW191670   9.822   5.640  13.057
63277SOL    HW291671   9.861   5.752  12.963
63278SOL     OW91672  14.428  12.069  11.958
63278SOL    HW191673  14.508  12.119  11.974
63278SOL    HW291674  14.367  12.099  12.025
63279SOL     OW91675  12.714   9.795  14.402
63279SOL    HW191676  12.735   9.772  14.312
63279SOL    HW291677  12.618   9.800  14.405
63280SOL     OW91678   4.379  10.328   8.289
63280SOL    HW191679   4.473  10.318   8.305
63280SOL    HW291680   4.353  10.400   8.346
63281SOL     OW91681  10.869   7.659  12.644
63281SOL    HW191682  10.942   7.711  12.677
63281SOL    HW291683  10.871   7.671  12.550
63282SOL     OW91684   9.240   1.914  12.177
63282SOL    HW191685   9.277   1.843  12.125
63282SOL    HW291686   9.258   1.890  12.268
63283SOL     OW91687  12.436   3.974  13.442
63283SOL    HW191688  12.436   3.911  13.514
63283SOL    HW291689  12.500   4.040  13.468
63284SOL     OW91690   8.523   5.078   7.274
63284SOL    HW191691   8.602   5.078   7.220
63284SOL    HW291692   8.488   4.989   7.266
63285SOL     OW91693   4.185   3.561   2.062
63285SOL    HW191694   4.270   3.584   2.098
63285SOL    HW291695   4.146   3.645   2.037
63286SOL     OW91696   0.637   5.590  13.605
63286SOL    HW191697   0.688   5.642  13.667
63286SOL    HW291698   0.676   5.502  13.610
63287SOL     OW91699   0.208  10.325   4.062
63287SOL    HW191700   0.182  10.398   4.118
63287SOL    HW291701   0.126  10.281   4.040
63288SOL     OW91702  10.011  11.895  12.926
63288SOL    HW191703   9.949  11.949  12.975
63288SOL    HW291704   9.987  11.805  12.949
63289SOL     OW91705   1.247  10.581   6.197
63289SOL    HW191706   1.209  10.614   6.278
63289SOL    HW291707   1.180  10.595   6.131
63290SOL     OW91708  11.748   7.639  11.899
63290SOL    HW191709  11.841   7.650  11.920
63290SOL    HW291710  11.729   7.548  11.920
63291SOL     OW91711   6.036   8.285   5.317
63291SOL    HW191712   5.991   8.366   5.341
63291SOL    HW291713   5.981   8.245   5.250
63292SOL     OW91714   1.740   5.630  12.172
63292SOL    HW191715   1.650   5.608  12.150
63292SOL    HW291716   1.772   5.554  12.221
63293SOL     OW91717  12.478   2.297   1.987
63293SOL    HW191718  12.534   2.341   2.051
63293SOL    HW291719  12.413   2.251   2.040
63294SOL     OW91720   4.133   4.326  13.947
63294SOL    HW191721   4.094   4.297  13.865
63294SOL    HW291722   4.208   4.269  13.960
63295SOL     OW91723  14.587   5.284  12.882
63295SOL    HW191724  14.646   5.233  12.938
63295SOL    HW291725  14.535   5.336  12.944
63296SOL     OW91726   2.909   6.337  13.672
63296SOL    HW191727   2.969   6.412  13.669
63296SOL    HW291728   2.934   6.290  13.752
63297SOL     OW91729   6.148  14.235   9.910
63297SOL    HW191730   6.117  14.324   9.925
63297SOL    HW291731   6.081  14.179   9.948
63298SOL     OW91732   9.668   9.311   7.159
63298SOL    HW191733   9.709   9.290   7.075
63298SOL    HW291734   9.576   9.323   7.138
63299SOL     OW91735   2.444   6.477  14.833
63299SOL    HW191736   2.519   6.508   0.004
63299SOL    HW291737   2.368   6.512  14.878
63300SOL     OW91738   4.998   5.837   0.518
63300SOL    HW191739   4.947   5.779   0.462
63300SOL    HW291740   4.984   5.924   0.481
63301SOL     OW91741   2.861   0.920  14.277
63301SOL    HW191742   2.766   0.935  14.280
63301SOL    HW291743   2.896   0.980  14.343
63302SOL     OW91744  14.652   0.992  14.732
63302SOL    HW191745  14.604   1.066  14.769
63302SOL    HW291746  14.623   0.917  14.783
63303SOL     OW91747   3.586   9.051   5.410
63303SOL    HW191748   3.646   8.978   5.395
63303SOL    HW291749   3.547   9.068   5.324
63304SOL     OW91750   5.404   4.904  12.948
63304SOL    HW191751   5.312   4.929  12.952
63304SOL    HW291752   5.434   4.933  12.862
63305SOL     OW91753  11.983   3.355  11.724
63305SOL    HW191754  12.015   3.265  11.737
63305SOL    HW291755  11.967   3.361  11.630
63306SOL     OW91756   4.589  13.392  10.670
63306SOL    HW191757   4.519  13.360  10.726
63306SOL    HW291758   4.599  13.485  10.693
63307SOL     OW91759   4.226   2.144  13.740
63307SOL    HW191760   4.213   2.223  13.792
63307SOL    HW291761   4.159   2.083  13.770
63308SOL     OW91762   9.315   7.750   2.457
63308SOL    HW191763   9.311   7.689   2.530
63308SOL    HW291764   9.303   7.836   2.497
63309SOL     OW91765   5.476  12.900   2.691
63309SOL    HW191766   5.521  12.883   2.609
63309SOL    HW291767   5.396  12.847   2.686
63310SOL     OW91768   1.261  10.569   3.482
63310SOL    HW191769   1.274  10.664   3.474
63310SOL    HW291770   1.247  10.540   3.392
63311SOL     OW91771   5.136  10.615  11.448
63311SOL    HW191772   5.132  10.562  11.369
63311SOL    HW291773   5.187  10.692  11.423
63312SOL     OW91774   0.906   7.896  10.031
63312SOL    HW191775   0.958   7.966   9.992
63312SOL    HW291776   0.820   7.904   9.992
63313SOL     OW91777  14.283  10.115  14.069
63313SOL    HW191778  14.248  10.191  14.023
63313SOL    HW291779  14.260  10.129  14.160
63314SOL     OW91780   4.242   4.828   6.259
63314SOL    HW191781   4.322   4.782   6.286
63314SOL    HW291782   4.272   4.914   6.232
63315SOL     OW91783   4.744   1.439   6.525
63315SOL    HW191784   4.831   1.433   6.563
63315SOL    HW291785   4.717   1.530   6.539
63316SOL     OW91786   1.690   8.934   4.445
63316SOL    HW191787   1.763   8.898   4.394
63316SOL    HW291788   1.724   9.017   4.479
63317SOL     OW91789  10.112   6.411   5.074
63317SOL    HW191790  10.161   6.423   5.155
63317SOL    HW291791  10.148   6.477   5.014
63318SOL     OW91792  14.077   5.063  14.844
63318SOL    HW191793  13.998   5.095  14.800
63318SOL    HW291794  14.048   5.037   0.052
63319SOL     OW91795  11.992  11.114   4.461
63319SOL    HW191796  11.964  11.031   4.423
63319SOL    HW291797  11.955  11.181   4.403
63320SOL     OW91798   0.349   7.015  11.383
63320SOL    HW191799   0.336   6.923  11.360
63320SOL    HW291800   0.444   7.028  11.379
63321SOL     OW91801   1.659   5.244   0.582
63321SOL    HW191802   1.682   5.206   0.667
63321SOL    HW291803   1.729   5.308   0.565
63322SOL     OW91804   6.806   7.027   7.938
63322SOL    HW191805   6.737   7.093   7.936
63322SOL    HW291806   6.887   7.077   7.926
63323SOL     OW91807   8.224   5.687   7.569
63323SOL    HW191808   8.264   5.607   7.535
63323SOL    HW291809   8.164   5.715   7.500
63324SOL     OW91810  10.116   9.007   4.444
63324SOL    HW191811  10.129   9.101   4.433
63324SOL    HW291812  10.066   8.999   4.525
63325SOL     OW91813   5.673   8.699   7.141
63325SOL    HW191814   5.660   8.627   7.079
63325SOL    HW291815   5.585   8.727   7.165
63326SOL     OW91816   1.977  11.475   1.398
63326SOL    HW191817   1.938  11.406   1.452
63326SOL    HW291818   1.937  11.465   1.312
63327SOL     OW91819   5.941   0.918   7.209
63327SOL    HW191820   5.878   0.852   7.237
63327SOL    HW291821   5.895   0.968   7.141
63328SOL     OW91822   9.147   4.616   8.212
63328SOL    HW191823   9.165   4.636   8.121
63328SOL    HW291824   9.052   4.607   8.217
63329SOL     OW91825  12.098   5.988  11.125
63329SOL    HW191826  12.171   5.998  11.064
63329SOL    HW291827  12.027   5.950  11.072
63330SOL     OW91828   4.259  13.313   8.502
63330SOL    HW191829   4.265  13.223   8.535
63330SOL    HW291830   4.211  13.305   8.419
63331SOL     OW91831   0.691   7.204   1.302
63331SOL    HW191832   0.631   7.220   1.375
63331SOL    HW291833   0.642   7.148   1.242
63332SOL     OW91834   5.285  10.844   1.730
63332SOL    HW191835   5.230  10.903   1.679
63332SOL    HW291836   5.228  10.813   1.801
63333SOL     OW91837   0.537   0.736   5.623
63333SOL    HW191838   0.449   0.767   5.606
63333SOL    HW291839   0.571   0.711   5.537
63334SOL     OW91840   5.315   9.668  12.194
63334SOL    HW191841   5.396   9.620  12.207
63334SOL    HW291842   5.253   9.630  12.257
63335SOL     OW91843   3.196   8.049  10.522
63335SOL    HW191844   3.278   8.004  10.501
63335SOL    HW291845   3.128   7.996  10.480
63336SOL     OW91846   6.174   0.829   6.501
63336SOL    HW191847   6.262   0.796   6.517
63336SOL    HW291848   6.187   0.909   6.450
63337SOL     OW91849  13.546  13.400   5.411
63337SOL    HW191850  13.556  13.495   5.403
63337SOL    HW291851  13.617  13.373   5.470
63338SOL     OW91852  14.152  10.215  10.574
63338SOL    HW191853  14.127  10.126  10.548
63338SOL    HW291854  14.226  10.236  10.518
63339SOL     OW91855   8.526   8.115  14.501
63339SOL    HW191856   8.457   8.164  14.455
63339SOL    HW291857   8.605   8.131  14.450
63340SOL     OW91858  11.317   1.162   0.130
63340SOL    HW191859  11.224   1.152   0.149
63340SOL    HW291860  11.323   1.244   0.080
63341SOL     OW91861   6.464  14.669   4.358
63341SOL    HW191862   6.499  14.628   4.279
63341SOL    HW291863   6.369  14.652   4.354
63342SOL     OW91864   1.843  13.236   4.599
63342SOL    HW191865   1.884  13.163   4.644
63342SOL    HW291866   1.891  13.244   4.516
63343SOL     OW91867   3.827   9.147   1.458
63343SOL    HW191868   3.843   9.240   1.444
63343SOL    HW291869   3.901   9.103   1.416
63344SOL     OW91870   1.184   6.893   7.022
63344SOL    HW191871   1.189   6.799   7.042
63344SOL    HW291872   1.242   6.934   7.086
63345SOL     OW91873   7.163   8.752   0.428
63345SOL    HW191874   7.090   8.729   0.370
63345SOL    HW291875   7.135   8.724   0.515
63346SOL     OW91876   5.361  14.696   7.775
63346SOL    HW191877   5.361  14.738   7.689
63346SOL    HW291878   5.426  14.745   7.825
63347SOL     OW91879   7.974   6.079   1.977
63347SOL    HW191880   7.900   6.052   1.922
63347SOL    HW291881   7.956   6.038   2.062
63348SOL     OW91882   2.494   1.687   2.707
63348SOL    HW191883   2.557   1.651   2.644
63348SOL    HW291884   2.437   1.743   2.654
63349SOL     OW91885  10.831  14.701  12.637
63349SOL    HW191886  10.765  14.632  12.633
63349SOL    HW291887  10.787  14.778  12.600
63350SOL     OW91888   9.184   1.366   7.840
63350SOL    HW191889   9.231   1.340   7.761
63350SOL    HW291890   9.101   1.317   7.836
63351SOL     OW91891  14.464  11.125   7.271
63351SOL    HW191892  14.555  11.097   7.256
63351SOL    HW291893  14.414  11.043   7.274
63352SOL     OW91894   5.666  14.029  11.105
63352SOL    HW191895   5.761  14.033  11.117
63352SOL    HW291896   5.632  14.006  11.192
63353SOL     OW91897  14.839  11.654   6.309
63353SOL    HW191898   0.001  11.706   6.240
63353SOL    HW291899  14.757  11.699   6.328
63354SOL     OW91900  13.595  12.559   6.407
63354SOL    HW191901  13.561  12.499   6.341
63354SOL    HW291902  13.651  12.504   6.463
63355SOL     OW91903  10.494   2.094  10.837
63355SOL    HW191904  10.543   2.026  10.883
63355SOL    HW291905  10.423   2.047  10.793
63356SOL     OW91906  12.368   4.898  12.434
63356SOL    HW191907  12.315   4.897  12.355
63356SOL    HW291908  12.403   4.809  12.442
63357SOL     OW91909  12.942  13.634  10.241
63357SOL    HW191910  13.037  13.640  10.250
63357SOL    HW291911  12.909  13.642  10.330
63358SOL     OW91912  10.314   2.082   5.364
63358SOL    HW191913  10.234   2.049   5.405
63358SOL    HW291914  10.341   2.012   5.305
63359SOL     OW91915  11.483  11.524   9.431
63359SOL    HW191916  11.454  11.576   9.507
63359SOL    HW291917  11.482  11.586   9.358
63360SOL     OW91918   6.904  11.945  13.575
63360SOL    HW191919   6.847  11.956  13.499
63360SOL    HW291920   6.990  11.927  13.538
63361SOL     OW91921   8.590   2.557   9.306
63361SOL    HW191922   8.509   2.508   9.321
63361SOL    HW291923   8.588   2.580   9.213
63362SOL     OW91924   4.997   0.922   0.754
63362SOL    HW191925   5.025   0.842   0.710
63362SOL    HW291926   5.025   0.993   0.696
63363SOL     OW91927   2.691   6.426   0.573
63363SOL    HW191928   2.648   6.378   0.644
63363SOL    HW291929   2.651   6.392   0.493
63364SOL     OW91930  10.024  11.196   5.758
63364SOL    HW191931  10.059  11.127   5.703
63364SOL    HW291932  10.045  11.169   5.848
63365SOL     OW91933   4.787   1.517  10.691
63365SOL    HW191934   4.850   1.447  10.706
63365SOL    HW291935   4.747   1.496  10.607
63366SOL     OW91936  11.168   4.406   7.816
63366SOL    HW191937  11.247   4.460   7.819
63366SOL    HW291938  11.104   4.459   7.768
63367SOL     OW91939  12.416  12.271  14.082
63367SOL    HW191940  12.468  12.274  14.002
63367SOL    HW291941  12.444  12.348  14.131
63368SOL     OW91942  11.971  13.307   7.628
63368SOL    HW191943  11.883  13.299   7.666
63368SOL    HW291944  11.979  13.400   7.606
63369SOL     OW91945   8.357  14.346  10.721
63369SOL    HW191946   8.273  14.393  10.717
63369SOL    HW291947   8.420  14.411  10.752
63370SOL     OW91948   1.587   4.128   4.729
63370SOL    HW191949   1.634   4.207   4.756
63370SOL    HW291950   1.582   4.075   4.808
63371SOL     OW91951   1.544  12.106   1.077
63371SOL    HW191952   1.603  12.170   1.036
63371SOL    HW291953   1.517  12.147   1.159
63372SOL     OW91954   5.926  12.126   4.732
63372SOL    HW191955   5.883  12.211   4.741
63372SOL    HW291956   6.017  12.142   4.759
63373SOL     OW91957  13.674   4.498   3.042
63373SOL    HW191958  13.631   4.479   2.959
63373SOL    HW291959  13.735   4.425   3.055
63374SOL     OW91960   5.115   5.225   6.015
63374SOL    HW191961   5.085   5.291   6.078
63374SOL    HW291962   5.079   5.143   6.048
63375SOL     OW91963   7.956   9.596   1.562
63375SOL    HW191964   8.010   9.602   1.641
63375SOL    HW291965   7.999   9.528   1.510
63376SOL     OW91966   1.450   4.694   6.123
63376SOL    HW191967   1.522   4.739   6.078
63376SOL    HW291968   1.488   4.611   6.152
63377SOL     OW91969   8.976  11.180   0.169
63377SOL    HW191970   8.924  11.100   0.162
63377SOL    HW291971   9.002  11.200   0.079
63378SOL     OW91972  14.142   8.775  11.878
63378SOL    HW191973  14.171   8.695  11.833
63378SOL    HW291974  14.078   8.814  11.819
63379SOL     OW91975  13.720   4.028  12.780
63379SOL    HW191976  13.672   4.006  12.700
63379SOL    HW291977  13.693   4.117  12.802
63380SOL     OW91978  11.404  12.464   2.430
63380SOL    HW191979  11.449  12.535   2.475
63380SOL    HW291980  11.377  12.501   2.346
63381SOL     OW91981   9.408  13.521   2.358
63381SOL    HW191982   9.400  13.490   2.449
63381SOL    HW291983   9.393  13.616   2.364
63382SOL     OW91984  13.280  10.118  10.714
63382SOL    HW191985  13.319  10.113  10.627
63382SOL    HW291986  13.280  10.027  10.745
63383SOL     OW91987   0.183   8.593   0.045
63383SOL    HW191988   0.236   8.532   0.097
63383SOL    HW291989   0.166   8.547  14.843
63384SOL     OW91990  12.965   3.935   4.500
63384SOL    HW191991  12.871   3.925   4.489
63384SOL    HW291992  12.975   3.975   4.586
63385SOL     OW91993   1.050  11.039   4.474
63385SOL    HW191994   1.086  11.126   4.492
63385SOL    HW291995   0.958  11.055   4.454
63386SOL     OW91996   5.962  12.926   9.554
63386SOL    HW191997   6.055  12.948   9.551
63386SOL    HW291998   5.933  12.931   9.463
63387SOL     OW91999   9.316  10.439   3.188
63387SOL    HW192000   9.225  10.423   3.214
63387SOL    HW292001   9.365  10.367   3.229
63388SOL     OW92002   4.973  13.356   7.224
63388SOL    HW192003   4.910  13.391   7.161
63388SOL    HW292004   4.919  13.326   7.297
63389SOL     OW92005   7.753  10.362   9.196
63389SOL    HW192006   7.756  10.409   9.112
63389SOL    HW292007   7.832  10.391   9.242
63390SOL     OW92008   4.347  12.748   9.615
63390SOL    HW192009   4.270  12.730   9.670
63390SOL    HW292010   4.371  12.838   9.637
63391SOL     OW92011   6.327   3.876  13.770
63391SOL    HW192012   6.337   3.878  13.675
63391SOL    HW292013   6.233   3.885  13.784
63392SOL     OW92014   1.087   8.022  13.077
63392SOL    HW192015   1.127   8.084  13.139
63392SOL    HW292016   1.000   8.058  13.060
63393SOL     OW92017   5.757  12.621   6.002
63393SOL    HW192018   5.670  12.586   6.017
63393SOL    HW292019   5.793  12.636   6.089
63394SOL     OW92020   3.530  12.333  11.856
63394SOL    HW192021   3.571  12.270  11.796
63394SOL    HW292022   3.439  12.303  11.864
63395SOL     OW92023   3.282   3.621   0.730
63395SOL    HW192024   3.344   3.629   0.658
63395SOL    HW292025   3.209   3.676   0.705
63396SOL     OW92026   2.249   1.514  12.961
63396SOL    HW192027   2.257   1.456  12.885
63396SOL    HW292028   2.286   1.464  13.034
63397SOL     OW92029   5.770   4.692   1.371
63397SOL    HW192030   5.721   4.662   1.447
63397SOL    HW292031   5.708   4.687   1.299
63398SOL     OW92032  11.850   7.916  12.749
63398SOL    HW192033  11.778   7.974  12.777
63398SOL    HW292034  11.832   7.899  12.657
63399SOL     OW92035  10.962  10.443   1.068
63399SOL    HW192036  10.961  10.445   0.973
63399SOL    HW292037  10.870  10.450   1.093
63400SOL     OW92038  11.155   8.343   1.827
63400SOL    HW192039  11.143   8.339   1.732
63400SOL    HW292040  11.171   8.253   1.854
63401SOL     OW92041   7.715  11.101  10.256
63401SOL    HW192042   7.694  11.187  10.220
63401SOL    HW292043   7.639  11.046  10.234
63402SOL     OW92044   2.095   5.210   1.860
63402SOL    HW192045   2.078   5.243   1.948
63402SOL    HW292046   2.054   5.274   1.802
63403SOL     OW92047   4.662   6.794   5.631
63403SOL    HW192048   4.607   6.725   5.594
63403SOL    HW292049   4.744   6.750   5.653
63404SOL     OW92050   3.250   7.704  11.258
63404SOL    HW192051   3.342   7.691  11.283
63404SOL    HW292052   3.246   7.675  11.167
63405SOL     OW92053  13.595   5.744   5.467
63405SOL    HW192054  13.671   5.768   5.521
63405SOL    HW292055  13.533   5.705   5.529
63406SOL     OW92056   4.170  11.826   5.126
63406SOL    HW192057   4.138  11.765   5.192
63406SOL    HW292058   4.141  11.788   5.043
63407SOL     OW92059   0.965   1.267   3.322
63407SOL    HW192060   1.012   1.329   3.266
63407SOL    HW292061   0.984   1.297   3.411
63408SOL     OW92062   0.848   6.046  14.189
63408SOL    HW192063   0.821   5.959  14.160
63408SOL    HW292064   0.776   6.103  14.163
63409SOL     OW92065  10.186   2.173   4.302
63409SOL    HW192066  10.135   2.107   4.350
63409SOL    HW292067  10.125   2.208   4.237
63410SOL     OW92068   3.276   7.343   2.158
63410SOL    HW192069   3.339   7.365   2.226
63410SOL    HW292070   3.258   7.249   2.171
63411SOL     OW92071   4.622  14.488  14.192
63411SOL    HW192072   4.541  14.450  14.158
63411SOL    HW292073   4.598  14.522  14.278
63412SOL     OW92074   1.661   1.078  10.898
63412SOL    HW192075   1.729   1.130  10.941
63412SOL    HW292076   1.691   1.070  10.807
63413SOL     OW92077   3.849   7.071   0.038
63413SOL    HW192078   3.923   7.108  14.870
63413SOL    HW292079   3.772   7.099  14.868
63414SOL     OW92080   2.511   8.537   3.167
63414SOL    HW192081   2.560   8.560   3.089
63414SOL    HW292082   2.578   8.522   3.234
63415SOL     OW92083  11.697   4.269   2.706
63415SOL    HW192084  11.758   4.259   2.779
63415SOL    HW292085  11.659   4.356   2.718
63416SOL     OW92086   3.173  14.622   0.167
63416SOL    HW192087   3.176  14.675   0.247
63416SOL    HW292088   3.248  14.562   0.176
63417SOL     OW92089  11.595  12.754   5.109
63417SOL    HW192090  11.500  12.743   5.105
63417SOL    HW292091  11.608  12.838   5.152
63418SOL     OW92092   7.519  12.297   2.838
63418SOL    HW192093   7.457  12.225   2.847
63418SOL    HW292094   7.512  12.323   2.747
63419SOL     OW92095  14.377   9.638   2.791
63419SOL    HW192096  14.357   9.722   2.752
63419SOL    HW292097  14.456   9.653   2.843
63420SOL     OW92098   0.412   8.974   4.156
63420SOL    HW192099   0.374   9.061   4.145
63420SOL    HW292100   0.428   8.944   4.067
63421SOL     OW92101   5.201   2.084  12.122
63421SOL    HW192102   5.177   2.126  12.204
63421SOL    HW292103   5.251   2.007  12.148
63422SOL     OW92104   9.994   9.354  14.087
63422SOL    HW192105   9.961   9.364  14.176
63422SOL    HW292106  10.016   9.262  14.079
63423SOL     OW92107   7.015   0.335   3.657
63423SOL    HW192108   6.924   0.354   3.682
63423SOL    HW292109   7.009   0.305   3.567
63424SOL     OW92110   7.298  10.089  13.025
63424SOL    HW192111   7.205  10.086  13.045
63424SOL    HW292112   7.315  10.009  12.975
63425SOL     OW92113   3.941  13.031  13.614
63425SOL    HW192114   3.916  13.095  13.548
63425SOL    HW292115   3.881  12.958  13.601
63426SOL     OW92116   2.872   6.134  14.551
63426SOL    HW192117   2.793   6.179  14.582
63426SOL    HW292118   2.925   6.203  14.512
63427SOL     OW92119   1.833   3.053   5.003
63427SOL    HW192120   1.800   2.976   5.048
63427SOL    HW292121   1.863   3.021   4.918
63428SOL     OW92122   5.139  13.269   8.887
63428SOL    HW192123   5.077  13.250   8.957
63428SOL    HW292124   5.107  13.350   8.847
63429SOL     OW92125   0.776   0.274  10.294
63429SOL    HW192126   0.837   0.220  10.344
63429SOL    HW292127   0.780   0.360  10.336
63430SOL     OW92128  11.490   3.051   1.801
63430SOL    HW192129  11.420   2.990   1.824
63430SOL    HW292130  11.549   3.001   1.745
63431SOL     OW92131   9.356  14.460  12.897
63431SOL    HW192132   9.424  14.444  12.963
63431SOL    HW292133   9.275  14.433  12.940
63432SOL     OW92134  11.978  10.348   9.689
63432SOL    HW192135  11.929  10.429   9.683
63432SOL    HW292136  12.037  10.349   9.613
63433SOL     OW92137   4.741   4.170   3.020
63433SOL    HW192138   4.826   4.146   3.057
63433SOL    HW292139   4.706   4.087   2.986
63434SOL     OW92140   5.929   5.312   4.260
63434SOL    HW192141   5.908   5.405   4.264
63434SOL    HW292142   5.964   5.292   4.347
63435SOL     OW92143  13.338   0.402   4.246
63435SOL    HW192144  13.278   0.344   4.293
63435SOL    HW292145  13.377   0.457   4.314
63436SOL     OW92146  11.483   2.152   0.911
63436SOL    HW192147  11.459   2.243   0.891
63436SOL    HW292148  11.542   2.160   0.986
63437SOL     OW92149   2.002   9.819   9.072
63437SOL    HW192150   1.983   9.744   9.015
63437SOL    HW292151   1.921   9.871   9.072
63438SOL     OW92152   7.051   9.257  13.678
63438SOL    HW192153   7.053   9.339  13.728
63438SOL    HW292154   7.133   9.214  13.702
63439SOL     OW92155  12.970  14.764  13.908
63439SOL    HW192156  12.999  14.753  13.999
63439SOL    HW292157  13.023  14.837  13.875
63440SOL     OW92158   8.023   0.133   7.066
63440SOL    HW192159   7.984   0.098   7.146
63440SOL    HW292160   7.973   0.212   7.047
63441SOL     OW92161  14.419  13.518   9.167
63441SOL    HW192162  14.369  13.553   9.093
63441SOL    HW292163  14.502  13.490   9.129
63442SOL     OW92164   1.200  11.554   6.703
63442SOL    HW192165   1.215  11.464   6.671
63442SOL    HW292166   1.240  11.555   6.790
63443SOL     OW92167  12.406  10.585   9.069
63443SOL    HW192168  12.313  10.586   9.046
63443SOL    HW292169  12.436  10.675   9.054
63444SOL     OW92170   1.550   8.235   4.228
63444SOL    HW192171   1.565   8.310   4.170
63444SOL    HW292172   1.621   8.175   4.210
63445SOL     OW92173  11.796   2.043   6.995
63445SOL    HW192174  11.719   2.097   6.980
63445SOL    HW292175  11.831   2.026   6.908
63446SOL     OW92176   4.905   1.472   5.298
63446SOL    HW192177   4.997   1.497   5.309
63446SOL    HW292178   4.857   1.535   5.351
63447SOL     OW92179  13.639  11.576   5.164
63447SOL    HW192180  13.607  11.489   5.190
63447SOL    HW292181  13.593  11.595   5.082
63448SOL     OW92182   9.441   0.300   5.122
63448SOL    HW192183   9.488   0.344   5.193
63448SOL    HW292184   9.386   0.369   5.083
63449SOL     OW92185  13.658   5.925   7.625
63449SOL    HW192186  13.604   5.877   7.689
63449SOL    HW292187  13.630   6.016   7.633
63450SOL     OW92188   7.783   3.295   3.451
63450SOL    HW192189   7.715   3.238   3.416
63450SOL    HW292190   7.735   3.369   3.489
63451SOL     OW92191  12.785   4.772  10.433
63451SOL    HW192192  12.805   4.748  10.342
63451SOL    HW292193  12.849   4.839  10.454
63452SOL     OW92194  13.862  14.869   0.455
63452SOL    HW192195  13.904  14.796   0.410
63452SOL    HW292196  13.777  14.835   0.484
63453SOL     OW92197  10.274   0.084  13.789
63453SOL    HW192198  10.317   0.055  13.869
63453SOL    HW292199  10.345   0.111  13.731
63454SOL     OW92200  14.877   3.707   3.165
63454SOL    HW192201   0.048   3.783   3.195
63454SOL    HW292202   0.005   3.644   3.237
63455SOL     OW92203   3.937   8.073  10.688
63455SOL    HW192204   3.863   8.013  10.687
63455SOL    HW292205   3.965   8.075  10.780
63456SOL     OW92206  13.799  10.282   1.523
63456SOL    HW192207  13.884  10.267   1.564
63456SOL    HW292208  13.751  10.200   1.536
63457SOL     OW92209  11.058   4.636   2.747
63457SOL    HW192210  11.076   4.607   2.837
63457SOL    HW292211  11.032   4.727   2.756
63458SOL     OW92212   0.472   7.751   4.670
63458SOL    HW192213   0.421   7.670   4.674
63458SOL    HW292214   0.450   7.798   4.750
63459SOL     OW92215  11.984  11.150   3.233
63459SOL    HW192216  11.951  11.101   3.308
63459SOL    HW292217  11.932  11.230   3.231
63460SOL     OW92218   1.759   3.908  12.962
63460SOL    HW192219   1.678   3.927  13.009
63460SOL    HW292220   1.828   3.948  13.014
63461SOL     OW92221   3.994   8.899   7.203
63461SOL    HW192222   4.043   8.979   7.222
63461SOL    HW292223   4.012   8.841   7.277
63462SOL     OW92224   5.672   9.956   8.756
63462SOL    HW192225   5.592   9.916   8.791
63462SOL    HW292226   5.734   9.884   8.750
63463SOL     OW92227   3.821  12.897  11.894
63463SOL    HW192228   3.781  12.859  11.816
63463SOL    HW292229   3.846  12.822  11.948
63464SOL     OW92230   4.013   2.185   5.177
63464SOL    HW192231   3.944   2.247   5.200
63464SOL    HW292232   4.077   2.194   5.248
63465SOL     OW92233   2.352   4.716   3.014
63465SOL    HW192234   2.272   4.701   3.065
63465SOL    HW292235   2.357   4.811   3.005
63466SOL     OW92236  11.435   6.992   5.196
63466SOL    HW192237  11.466   7.081   5.179
63466SOL    HW292238  11.340   7.001   5.199
63467SOL     OW92239   3.481  14.162   2.862
63467SOL    HW192240   3.437  14.081   2.837
63467SOL    HW292241   3.476  14.217   2.784
63468SOL     OW92242  13.350   7.103   3.115
63468SOL    HW192243  13.293   7.049   3.059
63468SOL    HW292244  13.289   7.155   3.168
63469SOL     OW92245   3.093   2.225   8.404
63469SOL    HW192246   3.143   2.285   8.349
63469SOL    HW292247   3.152   2.205   8.477
63470SOL     OW92248   1.810  14.536   3.104
63470SOL    HW192249   1.768  14.608   3.152
63470SOL    HW292250   1.835  14.575   3.020
63471SOL     OW92251   3.705   5.424  12.387
63471SOL    HW192252   3.777   5.362  12.375
63471SOL    HW292253   3.730   5.500  12.334
63472SOL     OW92254   6.872  11.821  11.442
63472SOL    HW192255   6.856  11.883  11.513
63472SOL    HW292256   6.859  11.735  11.481
63473SOL     OW92257   6.427  13.168  14.820
63473SOL    HW192258   6.482  13.242  14.845
63473SOL    HW292259   6.460  13.095  14.873
63474SOL     OW92260   3.180   6.085  14.094
63474SOL    HW192261   3.120   6.087  14.169
63474SOL    HW292262   3.185   5.992  14.071
63475SOL     OW92263   1.396  12.843   6.456
63475SOL    HW192264   1.415  12.750   6.464
63475SOL    HW292265   1.359  12.852   6.368
63476SOL     OW92266   7.596   6.362   4.842
63476SOL    HW192267   7.686   6.376   4.814
63476SOL    HW292268   7.585   6.419   4.918
63477SOL     OW92269   9.656   4.158   3.639
63477SOL    HW192270   9.746   4.174   3.665
63477SOL    HW292271   9.661   4.084   3.579
63478SOL     OW92272   4.162   0.533   8.703
63478SOL    HW192273   4.153   0.438   8.696
63478SOL    HW292274   4.200   0.547   8.790
63479SOL     OW92275  13.382  12.447   5.944
63479SOL    HW192276  13.463  12.411   5.979
63479SOL    HW292277  13.314  12.411   6.002
63480SOL     OW92278   1.390   0.836   8.029
63480SOL    HW192279   1.330   0.765   8.053
63480SOL    HW292280   1.376   0.903   8.097
63481SOL     OW92281   8.708   2.343  11.313
63481SOL    HW192282   8.699   2.264  11.366
63481SOL    HW292283   8.802   2.359  11.308
63482SOL     OW92284   2.625   6.222   3.119
63482SOL    HW192285   2.558   6.271   3.072
63482SOL    HW292286   2.661   6.162   3.054
63483SOL     OW92287   9.284   6.777   5.619
63483SOL    HW192288   9.212   6.812   5.568
63483SOL    HW292289   9.291   6.836   5.695
63484SOL     OW92290  11.767  10.645  13.061
63484SOL    HW192291  11.838  10.685  13.112
63484SOL    HW292292  11.810  10.574  13.013
63485SOL     OW92293   8.041   5.216  11.010
63485SOL    HW192294   8.048   5.229  11.104
63485SOL    HW292295   8.126   5.246  10.975
63486SOL     OW92296   6.610   9.068   2.917
63486SOL    HW192297   6.535   9.009   2.922
63486SOL    HW292298   6.601   9.124   2.994
63487SOL     OW92299   3.071   5.016   7.902
63487SOL    HW192300   2.986   4.977   7.923
63487SOL    HW292301   3.074   5.096   7.954
63488SOL     OW92302   3.905   7.041   1.166
63488SOL    HW192303   3.958   7.093   1.227
63488SOL    HW292304   3.939   7.065   1.080
63489SOL     OW92305   1.104   2.064  10.412
63489SOL    HW192306   1.064   2.129  10.470
63489SOL    HW292307   1.158   2.011  10.470
63490SOL     OW92308   3.494  12.582   9.509
63490SOL    HW192309   3.534  12.665   9.534
63490SOL    HW292310   3.545  12.552   9.433
63491SOL     OW92311   2.341  10.420   3.710
63491SOL    HW192312   2.272  10.437   3.646
63491SOL    HW292313   2.419  10.400   3.657
63492SOL     OW92314   9.458   1.687  10.574
63492SOL    HW192315   9.369   1.691  10.539
63492SOL    HW292316   9.478   1.594  10.578
63493SOL     OW92317   6.022  13.351   4.117
63493SOL    HW192318   6.041  13.269   4.071
63493SOL    HW292319   5.936  13.378   4.084
63494SOL     OW92320  14.418  10.899   4.171
63494SOL    HW192321  14.442  10.978   4.219
63494SOL    HW292322  14.330  10.918   4.137
63495SOL     OW92323   2.227   8.747  14.030
63495SOL    HW192324   2.303   8.771  14.083
63495SOL    HW292325   2.223   8.652  14.034
63496SOL     OW92326  10.121  13.575  12.613
63496SOL    HW192327  10.194  13.516  12.632
63496SOL    HW292328  10.048  13.539  12.664
63497SOL     OW92329   0.997  11.083   8.005
63497SOL    HW192330   1.048  11.092   7.924
63497SOL    HW292331   0.906  11.082   7.976
63498SOL     OW92332   5.904   1.324   6.375
63498SOL    HW192333   5.962   1.313   6.300
63498SOL    HW292334   5.913   1.242   6.424
63499SOL     OW92335   8.621   3.179  12.949
63499SOL    HW192336   8.555   3.161  13.016
63499SOL    HW292337   8.609   3.109  12.885
63500SOL     OW92338   1.559  13.149   1.975
63500SOL    HW192339   1.471  13.180   1.997
63500SOL    HW292340   1.590  13.105   2.054
63501SOL     OW92341   2.055   1.804  10.351
63501SOL    HW192342   2.113   1.828  10.279
63501SOL    HW292343   2.028   1.714  10.332
63502SOL     OW92344  12.637  10.938  12.208
63502SOL    HW192345  12.608  10.847  12.219
63502SOL    HW292346  12.645  10.972  12.297
63503SOL     OW92347  11.577   7.806   4.849
63503SOL    HW192348  11.564   7.901   4.857
63503SOL    HW292349  11.495   7.774   4.811
63504SOL     OW92350   8.449   6.304   7.949
63504SOL    HW192351   8.479   6.268   7.865
63504SOL    HW292352   8.447   6.229   8.008
63505SOL     OW92353   0.146   2.177   9.458
63505SOL    HW192354   0.160   2.187   9.552
63505SOL    HW292355   0.159   2.084   9.441
63506SOL     OW92356   7.343   6.745  10.862
63506SOL    HW192357   7.342   6.840  10.855
63506SOL    HW292358   7.424   6.725  10.910
63507SOL     OW92359   4.630   7.951   6.181
63507SOL    HW192360   4.637   8.018   6.113
63507SOL    HW292361   4.570   7.886   6.146
63508SOL     OW92362   9.738  13.371   1.512
63508SOL    HW192363   9.657  13.340   1.471
63508SOL    HW292364   9.732  13.342   1.603
63509SOL     OW92365   2.085  12.841  14.791
63509SOL    HW192366   2.114  12.843   0.003
63509SOL    HW292367   2.160  12.809  14.743
63510SOL     OW92368   5.294  10.658   0.544
63510SOL    HW192369   5.342  10.737   0.567
63510SOL    HW292370   5.283  10.663   0.449
63511SOL     OW92371  10.457   5.638   1.578
63511SOL    HW192372  10.501   5.720   1.556
63511SOL    HW292373  10.443   5.643   1.673
63512SOL     OW92374   9.269   5.343   9.516
63512SOL    HW192375   9.311   5.318   9.598
63512SOL    HW292376   9.183   5.375   9.542
63513SOL     OW92377   5.986  12.111   0.950
63513SOL    HW192378   5.929  12.125   0.875
63513SOL    HW292379   6.058  12.174   0.938
63514SOL     OW92380   0.810  11.564   4.261
63514SOL    HW192381   0.885  11.621   4.279
63514SOL    HW292382   0.826  11.485   4.312
63515SOL     OW92383   8.402   0.637   7.290
63515SOL    HW192384   8.389   0.547   7.259
63515SOL    HW292385   8.392   0.631   7.385
63516SOL     OW92386   1.189   6.153  14.816
63516SOL    HW192387   1.227   6.069  14.792
63516SOL    HW292388   1.235   6.217  14.762
63517SOL     OW92389  12.453   9.324   0.768
63517SOL    HW192390  12.391   9.339   0.698
63517SOL    HW292391  12.414   9.366   0.845
63518SOL     OW92392   0.113   3.432   0.277
63518SOL    HW192393   0.160   3.348   0.270
63518SOL    HW292394   0.060   3.423   0.356
63519SOL     OW92395   4.638   8.016   5.135
63519SOL    HW192396   4.661   8.029   5.043
63519SOL    HW292397   4.606   7.926   5.140
63520SOL     OW92398   9.099   3.817   8.324
63520SOL    HW192399   9.154   3.766   8.264
63520SOL    HW292400   9.132   3.907   8.315
63521SOL     OW92401   7.958  10.947   6.685
63521SOL    HW192402   7.940  10.853   6.690
63521SOL    HW292403   7.883  10.983   6.638
63522SOL     OW92404   7.773   8.257   3.042
63522SOL    HW192405   7.801   8.165   3.034
63522SOL    HW292406   7.821   8.290   3.118
63523SOL     OW92407  10.296  12.025   4.858
63523SOL    HW192408  10.219  12.013   4.913
63523SOL    HW292409  10.291  12.117   4.830
63524SOL     OW92410  10.152  13.408   4.583
63524SOL    HW192411  10.081  13.452   4.629
63524SOL    HW292412  10.108  13.352   4.518
63525SOL     OW92413   9.684   8.177   2.544
63525SOL    HW192414   9.706   8.089   2.576
63525SOL    HW292415   9.638   8.162   2.462
63526SOL     OW92416   8.660   0.014   8.074
63526SOL    HW192417   8.589  14.832   8.093
63526SOL    HW292418   8.690  14.869   7.987
63527SOL     OW92419   4.806   8.172   5.331
63527SOL    HW192420   4.875   8.208   5.275
63527SOL    HW292421   4.757   8.114   5.273
63528SOL     OW92422  11.530   9.756   0.338
63528SOL    HW192423  11.618   9.770   0.373
63528SOL    HW292424  11.536   9.784   0.246
63529SOL     OW92425   9.340   2.715   7.671
63529SOL    HW192426   9.412   2.758   7.626
63529SOL    HW292427   9.374   2.696   7.758
63530SOL     OW92428  14.324   0.995   9.755
63530SOL    HW192429  14.315   1.043   9.672
63530SOL    HW292430  14.268   0.918   9.743
63531SOL     OW92431   5.628  14.865   9.745
63531SOL    HW192432   5.717  14.875   9.713
63531SOL    HW292433   5.627   0.034   9.828
63532SOL     OW92434   3.674   3.047   1.631
63532SOL    HW192435   3.755   3.092   1.607
63532SOL    HW292436   3.608   3.116   1.632
63533SOL     OW92437  14.745   6.656   2.581
63533SOL    HW192438  14.741   6.589   2.513
63533SOL    HW292439  14.836   6.656   2.610
63534SOL     OW92440   0.430   0.527   1.764
63534SOL    HW192441   0.489   0.534   1.690
63534SOL    HW292442   0.488   0.511   1.839
63535SOL     OW92443  13.143  10.532   0.182
63535SOL    HW192444  13.223  10.584   0.187
63535SOL    HW292445  13.153  10.466   0.252
63536SOL     OW92446  14.095   8.557   2.428
63536SOL    HW192447  14.100   8.571   2.522
63536SOL    HW292448  14.027   8.618   2.399
63537SOL     OW92449  11.701   3.379   8.755
63537SOL    HW192450  11.741   3.372   8.669
63537SOL    HW292451  11.716   3.470   8.782
63538SOL     OW92452   3.212   1.221  10.301
63538SOL    HW192453   3.306   1.204  10.311
63538SOL    HW292454   3.206   1.274  10.221
63539SOL     OW92455   5.480   9.934  10.838
63539SOL    HW192456   5.576   9.945  10.839
63539SOL    HW292457   5.463   9.869  10.906
63540SOL     OW92458   1.408   1.108   8.983
63540SOL    HW192459   1.330   1.088   8.932
63540SOL    HW292460   1.413   1.204   8.983
63541SOL     OW92461   8.270   2.029   1.413
63541SOL    HW192462   8.236   1.983   1.336
63541SOL    HW292463   8.364   2.009   1.413
63542SOL     OW92464  14.348   3.298   0.114
63542SOL    HW192465  14.270   3.259   0.075
63542SOL    HW292466  14.420   3.243   0.084
63543SOL     OW92467   2.748   0.475  11.909
63543SOL    HW192468   2.751   0.474  12.005
63543SOL    HW292469   2.669   0.426  11.887
63544SOL     OW92470  14.053   1.298   0.261
63544SOL    HW192471  14.084   1.290   0.171
63544SOL    HW292472  13.959   1.315   0.252
63545SOL     OW92473   5.485   9.895   4.722
63545SOL    HW192474   5.530   9.817   4.754
63545SOL    HW292475   5.495   9.891   4.627
63546SOL     OW92476   7.659  14.590   1.185
63546SOL    HW192477   7.717  14.543   1.125
63546SOL    HW292478   7.591  14.628   1.128
63547SOL     OW92479  12.875   7.427   7.876
63547SOL    HW192480  12.808   7.383   7.929
63547SOL    HW292481  12.948   7.365   7.873
63548SOL     OW92482  10.798   1.173   4.734
63548SOL    HW192483  10.845   1.256   4.722
63548SOL    HW292484  10.780   1.170   4.828
63549SOL     OW92485  10.667   4.173   4.580
63549SOL    HW192486  10.578   4.140   4.569
63549SOL    HW292487  10.656   4.267   4.595
63550SOL     OW92488   2.170  13.955   7.571
63550SOL    HW192489   2.114  13.890   7.614
63550SOL    HW292490   2.123  13.978   7.491
63551SOL     OW92491   3.101   8.693  13.743
63551SOL    HW192492   3.116   8.730  13.656
63551SOL    HW292493   3.145   8.608  13.740
63552SOL     OW92494   0.840   6.723   5.379
63552SOL    HW192495   0.900   6.769   5.321
63552SOL    HW292496   0.791   6.664   5.322
63553SOL     OW92497   0.292   1.704   8.728
63553SOL    HW192498   0.255   1.791   8.744
63553SOL    HW292499   0.273   1.687   8.635
63554SOL     OW92500   0.546   2.676   8.461
63554SOL    HW192501   0.568   2.585   8.439
63554SOL    HW292502   0.550   2.723   8.378
63555SOL     OW92503   6.624   3.988   9.981
63555SOL    HW192504   6.720   3.985   9.990
63555SOL    HW292505   6.607   4.069   9.933
63556SOL     OW92506   9.263  11.814   5.845
63556SOL    HW192507   9.344  11.767   5.866
63556SOL    HW292508   9.194  11.750   5.860
63557SOL     OW92509   8.004   6.972  14.705
63557SOL    HW192510   7.983   6.879  14.706
63557SOL    HW292511   8.099   6.976  14.719
63558SOL     OW92512   8.964  13.730   0.482
63558SOL    HW192513   8.898  13.739   0.551
63558SOL    HW292514   8.963  13.814   0.437
63559SOL     OW92515   7.548   2.894   4.535
63559SOL    HW192516   7.543   2.964   4.471
63559SOL    HW292517   7.640   2.893   4.563
63560SOL     OW92518   0.962   0.678   4.925
63560SOL    HW192519   0.935   0.711   5.011
63560SOL    HW292520   0.886   0.630   4.893
63561SOL     OW92521   6.122   3.663   3.359
63561SOL    HW192522   6.027   3.673   3.349
63561SOL    HW292523   6.138   3.570   3.340
63562SOL     OW92524  14.453  12.630   4.447
63562SOL    HW192525  14.435  12.720   4.474
63562SOL    HW292526  14.403  12.619   4.366
63563SOL     OW92527  14.702  11.788   2.235
63563SOL    HW192528  14.703  11.714   2.296
63563SOL    HW292529  14.736  11.752   2.153
63564SOL     OW92530  12.433   0.153  12.430
63564SOL    HW192531  12.399   0.188  12.512
63564SOL    HW292532  12.358   0.110  12.389
63565SOL     OW92533  14.548  11.949  12.269
63565SOL    HW192534  14.548  11.857  12.294
63565SOL    HW292535  14.611  11.954  12.197
63566SOL     OW92536   7.651   9.320   1.365
63566SOL    HW192537   7.682   9.264   1.437
63566SOL    HW292538   7.642   9.261   1.291
63567SOL     OW92539  11.092   5.933  14.583
63567SOL    HW192540  11.061   5.928  14.493
63567SOL    HW292541  11.090   6.026  14.605
63568SOL     OW92542  12.836   6.362   5.747
63568SOL    HW192543  12.778   6.385   5.675
63568SOL    HW292544  12.885   6.443   5.765
63569SOL     OW92545   7.747  12.881   7.585
63569SOL    HW192546   7.830  12.838   7.607
63569SOL    HW292547   7.687  12.853   7.655
63570SOL     OW92548   1.825   7.125  11.086
63570SOL    HW192549   1.756   7.190  11.102
63570SOL    HW292550   1.787   7.042  11.113
63571SOL     OW92551   3.407   9.381   9.195
63571SOL    HW192552   3.463   9.390   9.118
63571SOL    HW292553   3.353   9.460   9.194
63572SOL     OW92554   9.260  10.490   7.573
63572SOL    HW192555   9.302  10.411   7.606
63572SOL    HW292556   9.278  10.490   7.479
63573SOL     OW92557  13.710   6.796   6.362
63573SOL    HW192558  13.640   6.859   6.345
63573SOL    HW292559  13.677   6.713   6.326
63574SOL     OW92560   6.513   6.512   9.655
63574SOL    HW192561   6.475   6.472   9.577
63574SOL    HW292562   6.527   6.603   9.631
63575SOL     OW92563  11.528  13.028   6.175
63575SOL    HW192564  11.523  12.993   6.087
63575SOL    HW292565  11.616  13.006   6.205
63576SOL     OW92566   0.972   8.462  11.733
63576SOL    HW192567   0.893   8.441  11.783
63576SOL    HW292568   1.002   8.545  11.771
63577SOL     OW92569  13.058  10.699   8.141
63577SOL    HW192570  13.144  10.679   8.105
63577SOL    HW292571  13.034  10.622   8.192
63578SOL     OW92572   3.746   5.444   6.346
63578SOL    HW192573   3.811   5.394   6.397
63578SOL    HW292574   3.751   5.406   6.258
63579SOL     OW92575  14.491   3.925  12.332
63579SOL    HW192576  14.456   4.014  12.325
63579SOL    HW292577  14.457   3.880  12.255
63580SOL     OW92578   7.529   9.827  13.937
63580SOL    HW192579   7.498   9.778  14.013
63580SOL    HW292580   7.507   9.771  13.862
63581SOL     OW92581   2.871   1.612   0.713
63581SOL    HW192582   2.872   1.520   0.687
63581SOL    HW292583   2.963   1.639   0.707
63582SOL     OW92584   3.125   3.693   9.647
63582SOL    HW192585   3.055   3.633   9.674
63582SOL    HW292586   3.162   3.725   9.729
63583SOL     OW92587   0.014   0.860   0.509
63583SOL    HW192588   0.042   0.884   0.597
63583SOL    HW292589  14.824   0.922   0.488
63584SOL     OW92590  14.376   9.916   6.785
63584SOL    HW192591  14.467   9.908   6.812
63584SOL    HW292592  14.369   9.860   6.707
63585SOL     OW92593  10.459  10.280   9.513
63585SOL    HW192594  10.508  10.279   9.430
63585SOL    HW292595  10.385  10.222   9.497
63586SOL     OW92596   5.629   1.698  13.249
63586SOL    HW192597   5.610   1.703  13.342
63586SOL    HW292598   5.544   1.696  13.206
63587SOL     OW92599   1.885   6.872   2.873
63587SOL    HW192600   1.815   6.935   2.858
63587SOL    HW292601   1.965   6.924   2.872
63588SOL     OW92602   4.451   3.032   9.463
63588SOL    HW192603   4.455   3.050   9.369
63588SOL    HW292604   4.463   2.938   9.471
63589SOL     OW92605   4.969   9.002   0.205
63589SOL    HW192606   4.988   8.929   0.263
63589SOL    HW292607   4.961   9.077   0.264
63590SOL     OW92608   8.939   4.579  14.388
63590SOL    HW192609   8.854   4.593  14.346
63590SOL    HW292610   8.998   4.639  14.343
63591SOL     OW92611   1.931   5.978  10.992
63591SOL    HW192612   1.900   6.032  11.066
63591SOL    HW292613   1.944   5.891  11.030
63592SOL     OW92614   0.433   4.987   6.457
63592SOL    HW192615   0.400   4.907   6.418
63592SOL    HW292616   0.359   5.021   6.508
63593SOL     OW92617   8.884  12.037   2.309
63593SOL    HW192618   8.910  12.004   2.395
63593SOL    HW292619   8.943  11.993   2.248
63594SOL     OW92620   8.917   3.703  14.627
63594SOL    HW192621   8.873   3.775  14.672
63594SOL    HW292622   8.855   3.676  14.560
63595SOL     OW92623   1.833   0.373   2.752
63595SOL    HW192624   1.914   0.403   2.791
63595SOL    HW292625   1.775   0.449   2.755
63596SOL     OW92626   9.642   6.332  10.604
63596SOL    HW192627   9.571   6.383  10.566
63596SOL    HW292628   9.601   6.249  10.629
63597SOL     OW92629   9.981   1.460   6.131
63597SOL    HW192630  10.024   1.468   6.217
63597SOL    HW292631   9.966   1.366   6.120
63598SOL     OW92632   6.470  14.217  11.431
63598SOL    HW192633   6.496  14.129  11.404
63598SOL    HW292634   6.386  14.231  11.388
63599SOL     OW92635   5.268   5.591   7.431
63599SOL    HW192636   5.342   5.645   7.457
63599SOL    HW292637   5.304   5.528   7.369
63600SOL     OW92638   0.967   2.861   6.061
63600SOL    HW192639   0.930   2.787   6.109
63600SOL    HW292640   1.043   2.825   6.017
63601SOL     OW92641  11.719  13.901   3.291
63601SOL    HW192642  11.700  13.914   3.384
63601SOL    HW292643  11.789  13.834   3.290
63602SOL     OW92644   1.566   3.878  12.010
63602SOL    HW192645   1.533   3.934  11.939
63602SOL    HW292646   1.541   3.790  11.985
63603SOL     OW92647   4.069   6.163   4.647
63603SOL    HW192648   3.995   6.199   4.598
63603SOL    HW292649   4.114   6.106   4.585
63604SOL     OW92650  13.033   9.029   0.216
63604SOL    HW192651  13.056   9.092   0.148
63604SOL    HW292652  12.942   9.006   0.199
63605SOL     OW92653  14.493  12.993   9.123
63605SOL    HW192654  14.427  13.063   9.119
63605SOL    HW292655  14.567  13.032   9.168
63606SOL     OW92656   4.037   4.592  10.530
63606SOL    HW192657   4.083   4.519  10.570
63606SOL    HW292658   4.054   4.666  10.589
63607SOL     OW92659   5.088   7.843  14.320
63607SOL    HW192660   5.163   7.861  14.377
63607SOL    HW292661   5.013   7.879  14.367
63608SOL     OW92662   8.844   7.086   0.505
63608SOL    HW192663   8.928   7.049   0.532
63608SOL    HW292664   8.865   7.138   0.428
63609SOL     OW92665  12.970   4.699   9.566
63609SOL    HW192666  12.896   4.648   9.598
63609SOL    HW292667  13.002   4.650   9.490
63610SOL     OW92668  11.589  14.015  13.292
63610SOL    HW192669  11.565  13.924  13.311
63610SOL    HW292670  11.584  14.059  13.377
63611SOL     OW92671   9.170   7.684   7.854
63611SOL    HW192672   9.118   7.713   7.779
63611SOL    HW292673   9.129   7.603   7.883
63612SOL     OW92674   3.800   4.396   3.384
63612SOL    HW192675   3.799   4.480   3.337
63612SOL    HW292676   3.891   4.368   3.380
63613SOL     OW92677   3.937   9.752  13.007
63613SOL    HW192678   3.890   9.789  13.082
63613SOL    HW292679   3.944   9.659  13.027
63614SOL     OW92680   8.438   5.380   3.834
63614SOL    HW192681   8.383   5.343   3.765
63614SOL    HW292682   8.396   5.464   3.855
63615SOL     OW92683  13.206   8.310   4.050
63615SOL    HW192684  13.263   8.272   4.117
63615SOL    HW292685  13.246   8.394   4.030
63616SOL     OW92686   1.522  13.667  10.473
63616SOL    HW192687   1.607  13.710  10.459
63616SOL    HW292688   1.473  13.686  10.393
63617SOL     OW92689  12.520   9.508  13.845
63617SOL    HW192690  12.529   9.435  13.908
63617SOL    HW292691  12.607   9.547  13.841
63618SOL     OW92692  14.464  10.248   2.952
63618SOL    HW192693  14.373  10.224   2.939
63618SOL    HW292694  14.490  10.291   2.870
63619SOL     OW92695   8.169   4.563  12.907
63619SOL    HW192696   8.121   4.542  12.828
63619SOL    HW292697   8.130   4.508  12.975
63620SOL     OW92698   8.214  12.842  12.620
63620SOL    HW192699   8.245  12.924  12.582
63620SOL    HW292700   8.288  12.782  12.611
63621SOL     OW92701   7.334   7.250   6.723
63621SOL    HW192702   7.269   7.188   6.755
63621SOL    HW292703   7.390   7.267   6.799
63622SOL     OW92704   6.473   5.692  14.007
63622SOL    HW192705   6.565   5.669  13.998
63622SOL    HW292706   6.468   5.782  13.973
63623SOL     OW92707  10.045   7.548  14.851
63623SOL    HW192708  10.134   7.537  14.817
63623SOL    HW292709   9.997   7.473  14.817
63624SOL     OW92710   4.819   8.180  12.346
63624SOL    HW192711   4.776   8.134  12.419
63624SOL    HW292712   4.748   8.198  12.284
63625SOL     OW92713   2.922  11.187   6.783
63625SOL    HW192714   3.011  11.152   6.787
63625SOL    HW292715   2.903  11.194   6.689
63626SOL     OW92716   8.399   8.583   2.101
63626SOL    HW192717   8.460   8.653   2.080
63626SOL    HW292718   8.429   8.509   2.048
63627SOL     OW92719   5.349  13.788   9.819
63627SOL    HW192720   5.321  13.854   9.756
63627SOL    HW292721   5.354  13.835   9.902
63628SOL     OW92722   4.158   2.762   5.657
63628SOL    HW192723   4.173   2.838   5.713
63628SOL    HW292724   4.128   2.799   5.574
63629SOL     OW92725  13.949   3.554   7.320
63629SOL    HW192726  13.882   3.594   7.266
63629SOL    HW292727  13.994   3.627   7.362
63630SOL     OW92728   2.327   8.623  12.423
63630SOL    HW192729   2.420   8.608  12.405
63630SOL    HW292730   2.326   8.681  12.499
63631SOL     OW92731   5.397   9.496  14.870
63631SOL    HW192732   5.461   9.501  14.799
63631SOL    HW292733   5.370   9.587   0.006
63632SOL     OW92734   3.297  11.594  10.815
63632SOL    HW192735   3.290  11.525  10.881
63632SOL    HW292736   3.379  11.639  10.836
63633SOL     OW92737   2.498  11.485   3.361
63633SOL    HW192738   2.505  11.460   3.453
63633SOL    HW292739   2.575  11.446   3.319
63634SOL     OW92740   9.649  13.475  14.813
63634SOL    HW192741   9.585  13.407  14.795
63634SOL    HW292742   9.669  13.513  14.727
63635SOL     OW92743  12.805   3.769   3.217
63635SOL    HW192744  12.897   3.744   3.226
63635SOL    HW292745  12.757   3.694   3.251
63636SOL     OW92746  10.534   1.474   5.550
63636SOL    HW192747  10.469   1.498   5.616
63636SOL    HW292748  10.483   1.463   5.470
63637SOL     OW92749   9.302  12.781   2.638
63637SOL    HW192750   9.252  12.821   2.709
63637SOL    HW292751   9.379  12.837   2.627
63638SOL     OW92752  12.867   6.757   2.248
63638SOL    HW192753  12.857   6.832   2.307
63638SOL    HW292754  12.787   6.759   2.194
63639SOL     OW92755   3.493  12.900   7.651
63639SOL    HW192756   3.518  12.916   7.560
63639SOL    HW292757   3.397  12.896   7.650
63640SOL     OW92758  14.180   0.510  11.506
63640SOL    HW192759  14.244   0.509  11.434
63640SOL    HW292760  14.204   0.587  11.557
63641SOL     OW92761   6.478  11.324   9.111
63641SOL    HW192762   6.521  11.386   9.169
63641SOL    HW292763   6.397  11.301   9.157
63642SOL     OW92764   5.846   2.339  10.041
63642SOL    HW192765   5.854   2.367  10.132
63642SOL    HW292766   5.929   2.364  10.000
63643SOL     OW92767   1.473   1.723  13.975
63643SOL    HW192768   1.542   1.718  14.042
63643SOL    HW292769   1.514   1.769  13.902
63644SOL     OW92770   8.820  10.791   2.538
63644SOL    HW192771   8.860  10.876   2.556
63644SOL    HW292772   8.894  10.734   2.517
63645SOL     OW92773  11.105   6.884   3.990
63645SOL    HW192774  11.195   6.916   3.989
63645SOL    HW292775  11.097   6.835   4.071
63646SOL     OW92776   7.093   5.848  12.971
63646SOL    HW192777   7.127   5.808  13.051
63646SOL    HW292778   7.128   5.793  12.901
63647SOL     OW92779  10.607   0.291  11.735
63647SOL    HW192780  10.577   0.208  11.699
63647SOL    HW292781  10.698   0.275  11.760
63648SOL     OW92782   8.855   1.843   6.688
63648SOL    HW192783   8.806   1.835   6.770
63648SOL    HW292784   8.813   1.780   6.629
63649SOL     OW92785   4.001  14.229   1.006
63649SOL    HW192786   3.982  14.321   0.986
63649SOL    HW292787   3.914  14.188   1.014
63650SOL     OW92788   6.568   8.732   1.997
63650SOL    HW192789   6.534   8.775   2.075
63650SOL    HW292790   6.504   8.664   1.976
63651SOL     OW92791   6.986  13.762   8.975
63651SOL    HW192792   7.045  13.730   8.907
63651SOL    HW292793   6.900  13.764   8.934
63652SOL     OW92794   8.708   8.385  14.478
63652SOL    HW192795   8.771   8.448  14.443
63652SOL    HW292796   8.643   8.439  14.523
63653SOL     OW92797   2.611  11.269  11.650
63653SOL    HW192798   2.594  11.176  11.663
63653SOL    HW292799   2.526  11.311  11.668
63654SOL     OW92800  10.366  14.578   7.681
63654SOL    HW192801  10.279  14.614   7.664
63654SOL    HW292802  10.349  14.490   7.713
63655SOL     OW92803  10.500   4.878   6.838
63655SOL    HW192804  10.522   4.971   6.837
63655SOL    HW292805  10.509   4.851   6.747
63656SOL     OW92806   0.406   4.016  10.661
63656SOL    HW192807   0.316   4.023  10.691
63656SOL    HW292808   0.459   4.016  10.741
63657SOL     OW92809   2.855   5.388  14.115
63657SOL    HW192810   2.814   5.307  14.086
63657SOL    HW292811   2.947   5.378  14.090
63658SOL     OW92812   5.254  14.179   4.138
63658SOL    HW192813   5.247  14.112   4.070
63658SOL    HW292814   5.190  14.245   4.114
63659SOL     OW92815   1.121   9.769   4.435
63659SOL    HW192816   1.205   9.815   4.428
63659SOL    HW292817   1.087   9.796   4.521
63660SOL     OW92818   8.641  10.300  13.941
63660SOL    HW192819   8.692  10.219  13.931
63660SOL    HW292820   8.659  10.349  13.861
63661SOL     OW92821   3.595   0.022   9.271
63661SOL    HW192822   3.671  14.844   9.268
63661SOL    HW292823   3.558   0.018   9.183
63662SOL     OW92824  14.202   0.182  11.268
63662SOL    HW192825  14.257   0.115  11.309
63662SOL    HW292826  14.128   0.193  11.328
63663SOL     OW92827   7.185   7.097   2.760
63663SOL    HW192828   7.257   7.051   2.803
63663SOL    HW292829   7.226   7.174   2.721
63664SOL     OW92830   9.023  13.074   4.818
63664SOL    HW192831   8.977  13.095   4.900
63664SOL    HW292832   8.959  13.088   4.749
63665SOL     OW92833  11.963  11.674   0.868
63665SOL    HW192834  12.013  11.653   0.790
63665SOL    HW292835  11.986  11.606   0.931
63666SOL     OW92836   2.978  11.369   5.290
63666SOL    HW192837   2.973  11.366   5.385
63666SOL    HW292838   3.036  11.443   5.272
63667SOL     OW92839   0.353   0.197  14.121
63667SOL    HW192840   0.411   0.226  14.051
63667SOL    HW292841   0.272   0.172  14.076
63668SOL     OW92842   8.790  13.874   3.534
63668SOL    HW192843   8.765  13.795   3.582
63668SOL    HW292844   8.707  13.915   3.510
63669SOL     OW92845   1.539   3.532   3.149
63669SOL    HW192846   1.521   3.612   3.199
63669SOL    HW292847   1.482   3.465   3.189
63670SOL     OW92848  11.142  12.169  14.054
63670SOL    HW192849  11.052  12.201  14.066
63670SOL    HW292850  11.188  12.240  14.009
63671SOL     OW92851   4.929   0.164  11.155
63671SOL    HW192852   4.899   0.087  11.106
63671SOL    HW292853   5.019   0.178  11.125
63672SOL     OW92854  10.740  13.071   7.862
63672SOL    HW192855  10.817  13.104   7.907
63672SOL    HW292856  10.761  12.980   7.840
63673SOL     OW92857   7.941   0.565  12.237
63673SOL    HW192858   7.939   0.525  12.150
63673SOL    HW292859   7.934   0.659  12.220
63674SOL     OW92860  11.669   8.582   6.835
63674SOL    HW192861  11.725   8.649   6.794
63674SOL    HW292862  11.638   8.529   6.761
63675SOL     OW92863   7.619   9.216  11.932
63675SOL    HW192864   7.600   9.274  12.006
63675SOL    HW292865   7.533   9.195  11.895
63676SOL     OW92866  11.617   6.113  12.439
63676SOL    HW192867  11.686   6.179  12.446
63676SOL    HW292868  11.604   6.101  12.345
63677SOL     OW92869  12.548  11.227   0.701
63677SOL    HW192870  12.569  11.171   0.776
63677SOL    HW292871  12.456  11.208   0.682
63678SOL     OW92872  12.558  14.398   7.293
63678SOL    HW192873  12.470  14.411   7.258
63678SOL    HW292874  12.613  14.386   7.215
63679SOL     OW92875  11.119   8.585   5.640
63679SOL    HW192876  11.068   8.590   5.721
63679SOL    HW292877  11.073   8.521   5.586
63680SOL     OW92878   9.656   3.613   9.236
63680SOL    HW192879   9.630   3.701   9.262
63680SOL    HW292880   9.581   3.579   9.189
63681SOL     OW92881   0.175   5.479   4.133
63681SOL    HW192882   0.244   5.438   4.186
63681SOL    HW292883   0.097   5.426   4.150
63682SOL     OW92884  14.436  10.744   7.382
63682SOL    HW192885  14.432  10.766   7.475
63682SOL    HW292886  14.409  10.824   7.338
63683SOL     OW92887  11.002   8.042   1.328
63683SOL    HW192888  10.981   8.135   1.321
63683SOL    HW292889  10.982   8.006   1.241
63684SOL     OW92890  10.475  14.872   2.348
63684SOL    HW192891  10.444   0.082   2.362
63684SOL    HW292892  10.570  14.877   2.357
63685SOL     OW92893   3.268   1.746   1.234
63685SOL    HW192894   3.172   1.741   1.229
63685SOL    HW292895   3.285   1.828   1.279
63686SOL     OW92896  11.801   1.116  14.755
63686SOL    HW192897  11.863   1.189  14.751
63686SOL    HW292898  11.856   1.038  14.761
63687SOL     OW92899   9.151  12.611   4.179
63687SOL    HW192900   9.213  12.578   4.243
63687SOL    HW292901   9.065  12.595   4.219
63688SOL     OW92902   0.979  12.799  13.991
63688SOL    HW192903   1.043  12.735  13.960
63688SOL    HW292904   1.029  12.879  14.005
63689SOL     OW92905  13.544   7.980  12.271
63689SOL    HW192906  13.565   8.068  12.301
63689SOL    HW292907  13.612   7.924  12.311
63690SOL     OW92908   2.185   2.448   0.921
63690SOL    HW192909   2.149   2.361   0.940
63690SOL    HW292910   2.111   2.497   0.885
63691SOL     OW92911   4.971   8.381   1.384
63691SOL    HW192912   4.956   8.377   1.479
63691SOL    HW292913   5.012   8.297   1.362
63692SOL     OW92914  10.381   9.856   5.816
63692SOL    HW192915  10.436   9.839   5.892
63692SOL    HW292916  10.302   9.804   5.831
63693SOL     OW92917   5.842  14.236   7.513
63693SOL    HW192918   5.827  14.160   7.569
63693SOL    HW292919   5.873  14.304   7.573
63694SOL     OW92920  12.668  14.421  13.568
63694SOL    HW192921  12.712  14.336  13.569
63694SOL    HW292922  12.697  14.464  13.649
63695SOL     OW92923  14.420   6.088   1.791
63695SOL    HW192924  14.331   6.064   1.765
63695SOL    HW292925  14.424   6.071   1.885
63696SOL     OW92926   6.957  13.519   2.823
63696SOL    HW192927   6.934  13.512   2.730
63696SOL    HW292928   6.923  13.439   2.863
63697SOL     OW92929   5.144   3.386  11.372
63697SOL    HW192930   5.078   3.359  11.435
63697SOL    HW292931   5.158   3.479  11.390
63698SOL     OW92932  12.605   1.098   9.168
63698SOL    HW192933  12.594   1.088   9.263
63698SOL    HW292934  12.599   1.009   9.134
63699SOL     OW92935   3.205  12.275  14.619
63699SOL    HW192936   3.212  12.183  14.643
63699SOL    HW292937   3.218  12.322  14.701
63700SOL     OW92938  14.372   9.858   7.061
63700SOL    HW192939  14.295   9.881   7.114
63700SOL    HW292940  14.343   9.870   6.970
63701SOL     OW92941   5.198   0.013   2.299
63701SOL    HW192942   5.198  14.797   2.305
63701SOL    HW292943   5.283   0.035   2.262
63702SOL     OW92944   4.813  10.901   0.515
63702SOL    HW192945   4.734  10.864   0.554
63702SOL    HW292946   4.846  10.963   0.581
63703SOL     OW92947   9.662   0.135  10.754
63703SOL    HW192948   9.634   0.044  10.745
63703SOL    HW292949   9.603   0.173  10.819
63704SOL     OW92950   9.808  13.891   9.054
63704SOL    HW192951   9.751  13.866   9.127
63704SOL    HW292952   9.784  13.982   9.036
63705SOL     OW92953  11.936  11.410   4.736
63705SOL    HW192954  11.970  11.321   4.729
63705SOL    HW292955  12.011  11.463   4.762
63706SOL     OW92956   7.635   8.700  12.676
63706SOL    HW192957   7.720   8.744  12.677
63706SOL    HW292958   7.572   8.770  12.658
63707SOL     OW92959   9.848   9.398   4.694
63707SOL    HW192960   9.827   9.402   4.601
63707SOL    HW292961   9.764   9.390   4.738
63708SOL     OW92962   2.857   7.743   7.146
63708SOL    HW192963   2.914   7.818   7.164
63708SOL    HW292964   2.788   7.778   7.090
63709SOL     OW92965   1.835   5.687   7.644
63709SOL    HW192966   1.894   5.762   7.639
63709SOL    HW292967   1.770   5.703   7.576
63710SOL     OW92968   7.201   4.452  11.977
63710SOL    HW192969   7.277   4.401  12.006
63710SOL    HW292970   7.238   4.535  11.947
63711SOL     OW92971   7.682   2.004  11.341
63711SOL    HW192972   7.747   1.935  11.358
63711SOL    HW292973   7.719   2.082  11.382
63712SOL     OW92974   0.334  14.607   2.761
63712SOL    HW192975   0.329  14.514   2.738
63712SOL    HW292976   0.385  14.646   2.690
63713SOL     OW92977   1.403  10.798   4.763
63713SOL    HW192978   1.329  10.847   4.727
63713SOL    HW292979   1.402  10.818   4.856
63714SOL     OW92980   4.288  13.016   3.524
63714SOL    HW192981   4.298  13.095   3.470
63714SOL    HW292982   4.208  12.975   3.491
63715SOL     OW92983   4.097   3.319   1.777
63715SOL    HW192984   4.036   3.307   1.704
63715SOL    HW292985   4.153   3.392   1.750
63716SOL     OW92986   7.359   3.519   0.180
63716SOL    HW192987   7.372   3.532   0.086
63716SOL    HW292988   7.283   3.461   0.187
63717SOL     OW92989  12.010   1.664   0.167
63717SOL    HW192990  11.969   1.589   0.210
63717SOL    HW292991  12.081   1.626   0.115
63718SOL     OW92992   8.258   4.151  12.435
63718SOL    HW192993   8.243   4.241  12.464
63718SOL    HW292994   8.241   4.098  12.513
63719SOL     OW92995   1.274   0.014   7.692
63719SOL    HW192996   1.333   0.052   7.757
63719SOL    HW292997   1.200  14.860   7.744
63720SOL     OW92998   5.473   6.111   8.139
63720SOL    HW192999   5.495   6.040   8.079
63720SOL    HW293000   5.385   6.089   8.170
63721SOL     OW93001   8.276   5.886   8.044
63721SOL    HW193002   8.227   5.811   8.077
63721SOL    HW293003   8.284   5.869   7.950
63722SOL     OW93004   1.465   7.913  12.028
63722SOL    HW193005   1.465   7.999  11.986
63722SOL    HW293006   1.557   7.891  12.035
63723SOL     OW93007   4.481   9.781   6.176
63723SOL    HW193008   4.448   9.726   6.246
63723SOL    HW293009   4.435   9.751   6.097
63724SOL     OW93010   2.853   2.019  14.421
63724SOL    HW193011   2.904   1.944  14.451
63724SOL    HW293012   2.790   1.982  14.359
63725SOL     OW93013  14.434  14.602   4.085
63725SOL    HW193014  14.421  14.686   4.040
63725SOL    HW293015  14.345  14.572   4.104
63726SOL     OW93016   2.153  14.102  12.950
63726SOL    HW193017   2.098  14.172  12.915
63726SOL    HW293018   2.115  14.022  12.913
63727SOL     OW93019   4.023   1.111   2.150
63727SOL    HW193020   4.016   1.207   2.142
63727SOL    HW293021   3.988   1.078   2.067
63728SOL     OW93022   6.515   6.941  12.830
63728SOL    HW193023   6.586   6.890  12.791
63728SOL    HW293024   6.527   7.029  12.795
63729SOL     OW93025   6.694  10.039   5.757
63729SOL    HW193026   6.719   9.948   5.774
63729SOL    HW293027   6.643  10.035   5.676
63730SOL     OW93028   5.098   9.636   5.921
63730SOL    HW193029   5.104   9.642   5.826
63730SOL    HW293030   5.054   9.717   5.948
63731SOL     OW93031   4.179  14.303   0.322
63731SOL    HW193032   4.250  14.327   0.263
63731SOL    HW293033   4.181  14.370   0.390
63732SOL     OW93034   5.598  11.087   9.097
63732SOL    HW193035   5.596  10.997   9.131
63732SOL    HW293036   5.584  11.142   9.175
63733SOL     OW93037   3.730   1.391  12.177
63733SOL    HW193038   3.762   1.379  12.088
63733SOL    HW293039   3.794   1.450  12.218
63734SOL     OW93040   6.848   9.096  14.685
63734SOL    HW193041   6.863   9.184  14.720
63734SOL    HW293042   6.897   9.094  14.604
63735SOL     OW93043   9.498   5.641   2.787
63735SOL    HW193044   9.559   5.615   2.718
63735SOL    HW293045   9.441   5.565   2.799
63736SOL     OW93046   8.814  14.785   3.033
63736SOL    HW193047   8.864  14.752   3.108
63736SOL    HW293048   8.835  14.878   3.030
63737SOL     OW93049  13.582   7.101   4.369
63737SOL    HW193050  13.558   7.008   4.374
63737SOL    HW293051  13.676   7.100   4.347
63738SOL     OW93052  11.932   4.171   7.822
63738SOL    HW193053  11.903   4.248   7.871
63738SOL    HW293054  11.962   4.110   7.889
63739SOL     OW93055   7.179   1.133   3.436
63739SOL    HW193056   7.189   1.069   3.507
63739SOL    HW293057   7.147   1.082   3.362
63740SOL     OW93058   8.747   8.854  13.408
63740SOL    HW193059   8.808   8.887  13.342
63740SOL    HW293060   8.706   8.778  13.368
63741SOL     OW93061   5.881  12.561  10.856
63741SOL    HW193062   5.868  12.473  10.890
63741SOL    HW293063   5.975  12.566  10.837
63742SOL     OW93064   4.106   4.906   0.422
63742SOL    HW193065   4.165   4.920   0.496
63742SOL    HW293066   4.159   4.927   0.345
63743SOL     OW93067  13.834   6.574   0.653
63743SOL    HW193068  13.911   6.518   0.653
63743SOL    HW293069  13.793   6.557   0.738
63744SOL     OW93070  10.226   6.974  11.512
63744SOL    HW193071  10.161   6.917  11.470
63744SOL    HW293072  10.244   7.042  11.447
63745SOL     OW93073   6.561   6.194   8.724
63745SOL    HW193074   6.609   6.126   8.675
63745SOL    HW293075   6.480   6.151   8.750
63746SOL     OW93076   2.326   4.365   2.757
63746SOL    HW193077   2.384   4.289   2.745
63746SOL    HW293078   2.289   4.353   2.844
63747SOL     OW93079  12.600   7.667  11.060
63747SOL    HW193080  12.579   7.754  11.096
63747SOL    HW293081  12.660   7.629  11.124
63748SOL     OW93082   4.017  12.448   5.110
63748SOL    HW193083   4.061  12.531   5.129
63748SOL    HW293084   4.033  12.394   5.187
63749SOL     OW93085   3.720   4.801  13.397
63749SOL    HW193086   3.643   4.849  13.364
63749SOL    HW293087   3.722   4.721  13.345
63750SOL     OW93088  13.013   6.263  11.389
63750SOL    HW193089  13.060   6.180  11.403
63750SOL    HW293090  12.921   6.241  11.401
63751SOL     OW93091   6.015  14.673   3.685
63751SOL    HW193092   5.920  14.675   3.671
63751SOL    HW293093   6.046  14.601   3.630
63752SOL     OW93094   3.610  12.436   7.052
63752SOL    HW193095   3.610  12.341   7.046
63752SOL    HW293096   3.681  12.464   6.993
63753SOL     OW93097  14.830   5.443   3.536
63753SOL    HW193098  14.766   5.471   3.602
63753SOL    HW293099   0.005   5.379   3.581
63754SOL     OW93100  13.792   2.379   0.440
63754SOL    HW193101  13.704   2.376   0.404
63754SOL    HW293102  13.802   2.469   0.471
63755SOL     OW93103   7.847   6.470   4.867
63755SOL    HW193104   7.923   6.472   4.809
63755SOL    HW293105   7.865   6.536   4.933
63756SOL     OW93106   7.632   5.972   0.406
63756SOL    HW193107   7.581   6.052   0.392
63756SOL    HW293108   7.579   5.902   0.368
63757SOL     OW93109   4.887   6.059   1.273
63757SOL    HW193110   4.966   6.039   1.323
63757SOL    HW293111   4.908   6.140   1.226
63758SOL     OW93112   6.884   8.542   6.342
63758SOL    HW193113   6.939   8.512   6.269
63758SOL    HW293114   6.942   8.597   6.394
63759SOL     OW93115  14.271   2.430  14.475
63759SOL    HW193116  14.337   2.495  14.450
63759SOL    HW293117  14.255   2.380  14.396
63760SOL     OW93118  11.421   9.448  13.854
63760SOL    HW193119  11.418   9.472  13.947
63760SOL    HW293120  11.396   9.356  13.853
63761SOL     OW93121   7.687   5.416   1.710
63761SOL    HW193122   7.771   5.385   1.745
63761SOL    HW293123   7.654   5.476   1.777
63762SOL     OW93124  11.184   4.192  14.070
63762SOL    HW193125  11.173   4.271  14.018
63762SOL    HW293126  11.145   4.123  14.017
63763SOL     OW93127   9.547   5.699  10.377
63763SOL    HW193128   9.622   5.755  10.399
63763SOL    HW293129   9.471   5.749  10.408
63764SOL     OW93130   6.842   9.736   5.986
63764SOL    HW193131   6.887   9.669   6.037
63764SOL    HW293132   6.770   9.765   6.041
63765SOL     OW93133  11.808   6.105   0.384
63765SOL    HW193134  11.764   6.021   0.389
63765SOL    HW293135  11.764   6.151   0.313
63766SOL     OW93136   2.143  13.098   3.227
63766SOL    HW193137   2.115  13.077   3.316
63766SOL    HW293138   2.094  13.177   3.205
63767SOL     OW93139  11.694   7.338   4.416
63767SOL    HW193140  11.684   7.246   4.391
63767SOL    HW293141  11.645   7.386   4.349
63768SOL     OW93142  11.977   5.485  12.044
63768SOL    HW193143  11.899   5.463  11.994
63768SOL    HW293144  12.010   5.565  12.003
63769SOL     OW93145   1.780   3.467   7.116
63769SOL    HW193146   1.737   3.384   7.095
63769SOL    HW293147   1.858   3.441   7.166
63770SOL     OW93148  10.758   4.703   0.834
63770SOL    HW193149  10.677   4.736   0.797
63770SOL    HW293150  10.743   4.609   0.844
63771SOL     OW93151   5.650   4.598   7.413
63771SOL    HW193152   5.690   4.632   7.332
63771SOL    HW293153   5.562   4.572   7.386
63772SOL     OW93154   7.762  11.554   3.404
63772SOL    HW193155   7.811  11.490   3.352
63772SOL    HW293156   7.749  11.628   3.344
63773SOL     OW93157  10.308  14.565  11.513
63773SOL    HW193158  10.284  14.657  11.515
63773SOL    HW293159  10.377  14.556  11.580
63774SOL     OW93160  14.160   4.728  10.679
63774SOL    HW193161  14.166   4.691  10.591
63774SOL    HW293162  14.082   4.784  10.676
63775SOL     OW93163   1.165   1.714   4.680
63775SOL    HW193164   1.224   1.651   4.720
63775SOL    HW293165   1.077   1.678   4.695
63776SOL     OW93166   6.631  10.179  12.431
63776SOL    HW193167   6.568  10.250  12.444
63776SOL    HW293168   6.577  10.101  12.419
63777SOL     OW93169  14.688   4.486   3.290
63777SOL    HW193170  14.765   4.463   3.239
63777SOL    HW293171  14.668   4.576   3.265
63778SOL     OW93172   1.035  12.833   2.840
63778SOL    HW193173   1.057  12.743   2.867
63778SOL    HW293174   1.083  12.889   2.901
63779SOL     OW93175   7.572   8.831  11.888
63779SOL    HW193176   7.508   8.869  11.948
63779SOL    HW293177   7.654   8.830  11.937
63780SOL     OW93178  11.950   5.952  12.704
63780SOL    HW193179  11.939   6.045  12.722
63780SOL    HW293180  11.910   5.908  12.779
63781SOL     OW93181   8.338   8.819   6.096
63781SOL    HW193182   8.314   8.912   6.095
63781SOL    HW293183   8.254   8.773   6.090
63782SOL     OW93184   1.793  13.065   9.620
63782SOL    HW193185   1.754  13.086   9.705
63782SOL    HW293186   1.848  13.141   9.600
63783SOL     OW93187  10.843   7.301  10.053
63783SOL    HW193188  10.866   7.208  10.051
63783SOL    HW293189  10.926   7.347  10.057
63784SOL     OW93190   2.386  11.554   4.958
63784SOL    HW193191   2.473  11.519   4.978
63784SOL    HW293192   2.383  11.639   5.004
63785SOL     OW93193  11.231   0.294   2.146
63785SOL    HW193194  11.204   0.276   2.236
63785SOL    HW293195  11.163   0.352   2.112
63786SOL     OW93196  12.424   7.357   2.954
63786SOL    HW193197  12.415   7.442   2.997
63786SOL    HW293198  12.352   7.305   2.988
63787SOL     OW93199   4.002   0.881   1.375
63787SOL    HW193200   4.041   0.845   1.296
63787SOL    HW293201   3.924   0.827   1.391
63788SOL     OW93202   6.438  14.800   5.008
63788SOL    HW193203   6.484  14.743   4.946
63788SOL    HW293204   6.490   0.001   5.011
63789SOL     OW93205   0.205  12.698   9.739
63789SOL    HW193206   0.245  12.785   9.732
63789SOL    HW293207   0.215  12.660   9.652
63790SOL     OW93208   2.791  10.117   0.982
63790SOL    HW193209   2.878  10.095   0.947
63790SOL    HW293210   2.735  10.124   0.905
63791SOL     OW93211  11.510   8.780   1.815
63791SOL    HW193212  11.587   8.728   1.794
63791SOL    HW293213  11.503   8.843   1.744
63792SOL     OW93214   0.319   0.280  14.369
63792SOL    HW193215   0.368   0.269  14.288
63792SOL    HW293216   0.240   0.228  14.356
63793SOL     OW93217  14.782   2.166   7.516
63793SOL    HW193218  14.855   2.226   7.525
63793SOL    HW293219  14.724   2.186   7.590
63794SOL     OW93220   2.075   8.425  14.321
63794SOL    HW193221   2.009   8.485  14.287
63794SOL    HW293222   2.037   8.338  14.306
63795SOL     OW93223   2.171   3.736   4.012
63795SOL    HW193224   2.214   3.657   3.979
63795SOL    HW293225   2.156   3.718   4.105
63796SOL     OW93226   5.624   1.228   0.657
63796SOL    HW193227   5.711   1.243   0.620
63796SOL    HW293228   5.564   1.250   0.586
63797SOL     OW93229   5.985  14.802   4.755
63797SOL    HW193230   6.020  14.843   4.676
63797SOL    HW293231   6.053  14.816   4.821
63798SOL     OW93232   6.867   4.031   2.397
63798SOL    HW193233   6.876   4.122   2.426
63798SOL    HW293234   6.882   3.979   2.475
63799SOL     OW93235   5.675   5.820   9.854
63799SOL    HW193236   5.686   5.908   9.890
63799SOL    HW293237   5.752   5.806   9.799
63800SOL     OW93238   4.044   0.733   8.575
63800SOL    HW193239   4.123   0.757   8.527
63800SOL    HW293240   4.067   0.652   8.621
63801SOL     OW93241  11.337  12.826   5.565
63801SOL    HW193242  11.297  12.839   5.651
63801SOL    HW293243  11.283  12.759   5.523
63802SOL     OW93244   7.214  11.483   9.126
63802SOL    HW193245   7.151  11.463   9.195
63802SOL    HW293246   7.298  11.493   9.171
63803SOL     OW93247  14.623   8.135   7.579
63803SOL    HW193248  14.553   8.150   7.515
63803SOL    HW293249  14.592   8.176   7.659
63804SOL     OW93250   7.907  10.267   6.944
63804SOL    HW193251   7.821  10.282   6.905
63804SOL    HW293252   7.913  10.331   7.015
63805SOL     OW93253  12.374   0.478  10.424
63805SOL    HW193254  12.450   0.455  10.371
63805SOL    HW293255  12.335   0.553  10.379
63806SOL     OW93256   1.176   6.642  14.557
63806SOL    HW193257   1.224   6.624  14.638
63806SOL    HW293258   1.095   6.592  14.565
63807SOL     OW93259  13.640  14.563   1.569
63807SOL    HW193260  13.632  14.567   1.474
63807SOL    HW293261  13.586  14.488   1.595
63808SOL     OW93262   0.186   4.878   4.150
63808SOL    HW193263   0.168   4.787   4.127
63808SOL    HW293264   0.124   4.899   4.219
63809SOL     OW93265   0.414  12.014   5.810
63809SOL    HW193266   0.451  11.960   5.880
63809SOL    HW293267   0.445  12.103   5.830
63810SOL     OW93268   0.275   0.563   3.292
63810SOL    HW193269   0.344   0.577   3.228
63810SOL    HW293270   0.289   0.630   3.359
63811SOL     OW93271   7.691   7.607   5.217
63811SOL    HW193272   7.595   7.606   5.222
63811SOL    HW293273   7.716   7.688   5.262
63812SOL     OW93274   2.415   7.988   6.296
63812SOL    HW193275   2.415   8.047   6.221
63812SOL    HW293276   2.331   8.003   6.339
63813SOL     OW93277   0.931  11.684   9.030
63813SOL    HW193278   1.004  11.746   9.024
63813SOL    HW293279   0.965  11.604   8.989
63814SOL     OW93280   4.310   2.462   4.983
63814SOL    HW193281   4.252   2.531   5.012
63814SOL    HW293282   4.331   2.484   4.892
63815SOL     OW93283   7.852  11.046   9.750
63815SOL    HW193284   7.802  11.086   9.679
63815SOL    HW293285   7.903  11.118   9.788
63816SOL     OW93286   7.388   6.319  14.030
63816SOL    HW193287   7.384   6.378  14.105
63816SOL    HW293288   7.365   6.373  13.955
63817SOL     OW93289  10.817   5.553   4.338
63817SOL    HW193290  10.760   5.562   4.414
63817SOL    HW293291  10.877   5.627   4.344
63818SOL     OW93292   9.220   4.242   9.960
63818SOL    HW193293   9.146   4.259   9.901
63818SOL    HW293294   9.186   4.179  10.023
63819SOL     OW93295  12.530  12.661  10.738
63819SOL    HW193296  12.542  12.650  10.644
63819SOL    HW293297  12.613  12.633  10.777
63820SOL     OW93298   9.303   4.587   9.636
63820SOL    HW193299   9.282   4.567   9.727
63820SOL    HW293300   9.366   4.519   9.610
63821SOL     OW93301  14.100   5.359  14.665
63821SOL    HW193302  14.182   5.310  14.676
63821SOL    HW293303  14.116   5.414  14.588
63822SOL     OW93304   6.054   4.296   6.196
63822SOL    HW193305   6.089   4.370   6.147
63822SOL    HW293306   6.010   4.336   6.271
63823SOL     OW93307  14.521   0.759   4.838
63823SOL    HW193308  14.581   0.829   4.863
63823SOL    HW293309  14.578   0.683   4.824
63824SOL     OW93310   9.799   7.400   0.144
63824SOL    HW193311   9.783   7.306   0.152
63824SOL    HW293312   9.848   7.424   0.222
63825SOL     OW93313  13.835  11.909   3.715
63825SOL    HW193314  13.832  11.983   3.775
63825SOL    HW293315  13.867  11.836   3.769
63826SOL     OW93316   5.531   7.696   2.576
63826SOL    HW193317   5.503   7.623   2.633
63826SOL    HW293318   5.610   7.730   2.619
63827SOL     OW93319  12.401   6.838   4.289
63827SOL    HW193320  12.423   6.891   4.212
63827SOL    HW293321  12.381   6.902   4.357
63828SOL     OW93322   0.885   5.429   6.978
63828SOL    HW193323   0.791   5.410   6.977
63828SOL    HW293324   0.892   5.511   7.028
63829SOL     OW93325   3.217   8.216   1.320
63829SOL    HW193326   3.295   8.244   1.273
63829SOL    HW293327   3.250   8.182   1.403
63830SOL     OW93328   9.964  14.088  10.290
63830SOL    HW193329   9.979  14.180  10.313
63830SOL    HW293330   9.869  14.077  10.293
63831SOL     OW93331   8.329   5.445  11.435
63831SOL    HW193332   8.269   5.399  11.495
63831SOL    HW293333   8.410   5.394  11.439
63832SOL     OW93334  10.204   0.602   6.137
63832SOL    HW193335  10.202   0.684   6.186
63832SOL    HW293336  10.147   0.543   6.186
63833SOL     OW93337  14.210  11.397  12.061
63833SOL    HW193338  14.116  11.379  12.059
63833SOL    HW293339  14.233  11.418  11.971
63834SOL     OW93340   5.659  11.465   7.432
63834SOL    HW193341   5.665  11.399   7.363
63834SOL    HW293342   5.627  11.544   7.387
63835SOL     OW93343   2.144  14.032  10.498
63835SOL    HW193344   2.212  13.965  10.504
63835SOL    HW293345   2.088  14.002  10.426
63836SOL     OW93346   5.551  14.316   0.583
63836SOL    HW193347   5.475  14.374   0.575
63836SOL    HW293348   5.555  14.270   0.499
63837SOL     OW93349   3.672  14.033   4.268
63837SOL    HW193350   3.640  13.969   4.332
63837SOL    HW293351   3.593  14.063   4.223
63838SOL     OW93352  10.247   8.916   3.320
63838SOL    HW193353  10.171   8.953   3.366
63838SOL    HW293354  10.224   8.920   3.228
63839SOL     OW93355   6.387  13.448   7.989
63839SOL    HW193356   6.335  13.413   7.917
63839SOL    HW293357   6.333  13.437   8.067
63840SOL     OW93358  11.606   2.878  14.193
63840SOL    HW193359  11.610   2.849  14.102
63840SOL    HW293360  11.694   2.864  14.227
63841SOL     OW93361   6.621   0.049   5.927
63841SOL    HW193362   6.537   0.058   5.971
63841SOL    HW293363   6.656   0.138   5.922
63842SOL     OW93364   0.768   0.763   0.909
63842SOL    HW193365   0.758   0.762   0.814
63842SOL    HW293366   0.682   0.790   0.942
63843SOL     OW93367   9.965  11.803   7.846
63843SOL    HW193368   9.962  11.714   7.879
63843SOL    HW293369  10.014  11.851   7.913
63844SOL     OW93370   6.121  12.792   3.909
63844SOL    HW193371   6.033  12.770   3.939
63844SOL    HW293372   6.179  12.729   3.952
63845SOL     OW93373   7.404   9.634  13.779
63845SOL    HW193374   7.332   9.696  13.767
63845SOL    HW293375   7.387   9.565  13.715
63846SOL     OW93376   6.062  11.876   6.217
63846SOL    HW193377   6.102  11.922   6.291
63846SOL    HW293378   6.019  11.945   6.167
63847SOL     OW93379  10.897  11.827  13.341
63847SOL    HW193380  10.930  11.845  13.429
63847SOL    HW293381  10.834  11.898  13.325
63848SOL     OW93382   6.123   7.160  12.455
63848SOL    HW193383   6.059   7.132  12.520
63848SOL    HW293384   6.101   7.251  12.437
63849SOL     OW93385   4.344   3.079   8.626
63849SOL    HW193386   4.263   3.047   8.586
63849SOL    HW293387   4.365   3.013   8.692
63850SOL     OW93388   9.065   4.163   2.063
63850SOL    HW193389   9.028   4.226   2.001
63850SOL    HW293390   9.138   4.122   2.015
63851SOL     OW93391   7.997  11.167   0.742
63851SOL    HW193392   8.074  11.122   0.776
63851SOL    HW293393   8.031  11.247   0.703
63852SOL     OW93394  14.603   2.725   7.512
63852SOL    HW193395  14.630   2.810   7.475
63852SOL    HW293396  14.509   2.735   7.526
63853SOL     OW93397  10.921   4.074  12.854
63853SOL    HW193398  10.916   4.033  12.768
63853SOL    HW293399  11.000   4.128  12.850
63854SOL     OW93400   9.452   4.928  14.574
63854SOL    HW193401   9.394   4.888  14.510
63854SOL    HW293402   9.470   5.015  14.540
63855SOL     OW93403  14.610   3.375   0.479
63855SOL    HW193404  14.640   3.372   0.570
63855SOL    HW293405  14.640   3.292   0.442
63856SOL     OW93406   1.138  10.435   3.674
63856SOL    HW193407   1.198  10.480   3.614
63856SOL    HW293408   1.093  10.371   3.619
63857SOL     OW93409   1.690   6.150   0.840
63857SOL    HW193410   1.713   6.093   0.766
63857SOL    HW293411   1.668   6.234   0.799
63858SOL     OW93412  11.957  12.003  14.295
63858SOL    HW193413  11.943  12.077  14.355
63858SOL    HW293414  11.963  12.043  14.209
63859SOL     OW93415   8.173  11.295   6.890
63859SOL    HW193416   8.150  11.226   6.952
63859SOL    HW293417   8.141  11.263   6.806
63860SOL     OW93418  10.400  11.767  12.200
63860SOL    HW193419  10.490  11.801  12.205
63860SOL    HW293420  10.386  11.751  12.106
63861SOL     OW93421  10.334   9.130   8.486
63861SOL    HW193422  10.251   9.106   8.445
63861SOL    HW293423  10.401   9.100   8.425
63862SOL     OW93424   6.284   0.567   1.646
63862SOL    HW193425   6.196   0.536   1.623
63862SOL    HW293426   6.293   0.650   1.598
63863SOL     OW93427   2.357   7.776   5.279
63863SOL    HW193428   2.276   7.738   5.312
63863SOL    HW293429   2.390   7.713   5.215
63864SOL     OW93430   1.437  12.955   3.079
63864SOL    HW193431   1.473  12.876   3.040
63864SOL    HW293432   1.513  13.002   3.113
63865SOL     OW93433   1.119   6.456  10.885
63865SOL    HW193434   1.139   6.483  10.795
63865SOL    HW293435   1.024   6.441  10.884
63866SOL     OW93436  13.318   2.079  11.620
63866SOL    HW193437  13.358   2.011  11.567
63866SOL    HW293438  13.283   2.033  11.697
63867SOL     OW93439  11.071   1.117  12.440
63867SOL    HW193440  11.092   1.210  12.438
63867SOL    HW293441  11.123   1.081  12.512
63868SOL     OW93442   0.728   7.389   1.110
63868SOL    HW193443   0.823   7.398   1.100
63868SOL    HW293444   0.716   7.337   1.189
63869SOL     OW93445   1.954   4.477   3.540
63869SOL    HW193446   2.010   4.453   3.467
63869SOL    HW293447   1.865   4.465   3.508
63870SOL     OW93448  11.658  14.063  10.307
63870SOL    HW193449  11.714  14.028  10.377
63870SOL    HW293450  11.608  13.988  10.277
63871SOL     OW93451  10.668   8.818   6.283
63871SOL    HW193452  10.575   8.827   6.306
63871SOL    HW293453  10.669   8.820   6.187
63872SOL     OW93454   2.714  14.606  10.283
63872SOL    HW193455   2.654  14.623  10.355
63872SOL    HW293456   2.680  14.658  10.210
63873SOL     OW93457   6.894   3.897   8.458
63873SOL    HW193458   6.882   3.831   8.526
63873SOL    HW293459   6.988   3.917   8.460
63874SOL     OW93460   7.508   0.514  11.092
63874SOL    HW193461   7.565   0.592  11.094
63874SOL    HW293462   7.555   0.452  11.037
63875SOL     OW93463  12.924   3.932   0.498
63875SOL    HW193464  12.930   3.837   0.499
63875SOL    HW293465  12.839   3.950   0.457
63876SOL     OW93466   9.306   3.343  11.430
63876SOL    HW193467   9.217   3.365  11.401
63876SOL    HW293468   9.294   3.276  11.497
63877SOL     OW93469   7.511   9.349   0.237
63877SOL    HW193470   7.535   9.373   0.147
63877SOL    HW293471   7.595   9.339   0.282
63878SOL     OW93472   5.377   2.423  14.323
63878SOL    HW193473   5.455   2.387  14.366
63878SOL    HW293474   5.371   2.513  14.356
63879SOL     OW93475  12.376  14.025   5.799
63879SOL    HW193476  12.332  13.940   5.789
63879SOL    HW293477  12.446  14.022   5.734
63880SOL     OW93478   0.026   1.351  14.421
63880SOL    HW193479  14.815   1.326  14.401
63880SOL    HW293480   0.028   1.360  14.516
63881SOL     OW93481   5.967   7.073   5.664
63881SOL    HW193482   5.955   7.071   5.569
63881SOL    HW293483   5.879   7.080   5.700
63882SOL     OW93484  10.492   9.176   6.129
63882SOL    HW193485  10.469   9.261   6.091
63882SOL    HW293486  10.424   9.159   6.194
63883SOL     OW93487   2.816   8.631  11.563
63883SOL    HW193488   2.891   8.659  11.614
63883SOL    HW293489   2.740   8.657  11.615
63884SOL     OW93490   3.937   0.155   0.541
63884SOL    HW193491   3.853   0.164   0.498
63884SOL    HW293492   3.944   0.061   0.561
63885SOL     OW93493   9.512  11.026   0.437
63885SOL    HW193494   9.582  10.962   0.427
63885SOL    HW293495   9.493  11.055   0.347
63886SOL     OW93496   3.786   3.214  13.892
63886SOL    HW193497   3.731   3.254  13.959
63886SOL    HW293498   3.799   3.123  13.921
63887SOL     OW93499   8.127   0.892   9.206
63887SOL    HW193500   8.041   0.911   9.243
63887SOL    HW293501   8.142   0.964   9.144
63888SOL     OW93502   7.736   2.405  14.246
63888SOL    HW193503   7.670   2.343  14.277
63888SOL    HW293504   7.712   2.489  14.286
63889SOL     OW93505   0.456  14.257   4.084
63889SOL    HW193506   0.448  14.297   3.998
63889SOL    HW293507   0.506  14.176   4.068
63890SOL     OW93508  11.924   6.429  11.588
63890SOL    HW193509  11.857   6.416  11.521
63890SOL    HW293510  11.914   6.520  11.615
63891SOL     OW93511   5.311   5.361   8.320
63891SOL    HW193512   5.389   5.322   8.281
63891SOL    HW293513   5.337   5.380   8.411
63892SOL     OW93514  10.998   6.877  10.583
63892SOL    HW193515  11.093   6.869  10.578
63892SOL    HW293516  10.967   6.849  10.496
63893SOL     OW93517   8.585   7.712   2.953
63893SOL    HW193518   8.656   7.776   2.963
63893SOL    HW293519   8.599   7.650   3.025
63894SOL     OW93520   7.904   7.430   6.322
63894SOL    HW193521   7.859   7.394   6.246
63894SOL    HW293522   7.900   7.360   6.388
63895SOL     OW93523  10.400   1.188   4.557
63895SOL    HW193524  10.383   1.096   4.575
63895SOL    HW293525  10.470   1.187   4.491
63896SOL     OW93526  13.747   0.646   7.008
63896SOL    HW193527  13.754   0.741   7.007
63896SOL    HW293528  13.741   0.620   6.916
63897SOL     OW93529  11.630  14.342   6.979
63897SOL    HW193530  11.684  14.386   7.044
63897SOL    HW293531  11.687  14.275   6.940
63898SOL     OW93532  13.119   8.214  14.475
63898SOL    HW193533  13.166   8.168  14.404
63898SOL    HW293534  13.052   8.152  14.503
63899SOL     OW93535   0.888   3.320  14.865
63899SOL    HW193536   0.869   3.259   0.057
63899SOL    HW293537   0.813   3.313  14.806
63900SOL     OW93538  10.842   4.320   6.969
63900SOL    HW193539  10.799   4.282   7.045
63900SOL    HW293540  10.929   4.346   7.001
63901SOL     OW93541   5.422  13.669  10.166
63901SOL    HW193542   5.414  13.689  10.259
63901SOL    HW293543   5.401  13.751  10.122
63902SOL     OW93544  13.153  11.434   7.056
63902SOL    HW193545  13.193  11.373   6.993
63902SOL    HW293546  13.108  11.378   7.119
63903SOL     OW93547   2.130   3.724  14.443
63903SOL    HW193548   2.067   3.652  14.449
63903SOL    HW293549   2.124   3.768  14.528
63904SOL     OW93550  10.805   3.887   6.746
63904SOL    HW193551  10.800   3.901   6.651
63904SOL    HW293552  10.822   3.793   6.755
63905SOL     OW93553   8.614   9.440   9.712
63905SOL    HW193554   8.670   9.420   9.788
63905SOL    HW293555   8.655   9.395   9.639
63906SOL     OW93556  11.505   1.573   2.090
63906SOL    HW193557  11.410   1.576   2.091
63906SOL    HW293558  11.529   1.590   1.999
63907SOL     OW93559   6.074  14.506   2.187
63907SOL    HW193560   5.998  14.459   2.156
63907SOL    HW293561   6.096  14.567   2.117
63908SOL     OW93562  11.907   6.904   0.322
63908SOL    HW193563  11.979   6.919   0.383
63908SOL    HW293564  11.840   6.966   0.348
63909SOL     OW93565  11.238   1.699   9.710
63909SOL    HW193566  11.315   1.746   9.744
63909SOL    HW293567  11.179   1.768   9.681
63910SOL     OW93568   6.101   0.419  12.742
63910SOL    HW193569   6.037   0.461  12.800
63910SOL    HW293570   6.092   0.326  12.760
63911SOL     OW93571   1.062   3.690  14.313
63911SOL    HW193572   1.137   3.644  14.275
63911SOL    HW293573   1.065   3.667  14.406
63912SOL     OW93574   8.118   8.183   3.885
63912SOL    HW193575   8.036   8.221   3.918
63912SOL    HW293576   8.175   8.181   3.961
63913SOL     OW93577   1.076  14.661   7.553
63913SOL    HW193578   1.072  14.697   7.464
63913SOL    HW293579   1.166  14.630   7.562
63914SOL     OW93580  12.468  12.629   6.721
63914SOL    HW193581  12.472  12.545   6.766
63914SOL    HW293582  12.438  12.691   6.788
63915SOL     OW93583   0.873   2.933   9.763
63915SOL    HW193584   0.814   2.872   9.718
63915SOL    HW293585   0.817   2.976   9.828
63916SOL     OW93586   8.553   9.980   6.408
63916SOL    HW193587   8.496   9.931   6.349
63916SOL    HW293588   8.634   9.991   6.358
63917SOL     OW93589   3.963   2.674   6.154
63917SOL    HW193590   3.987   2.761   6.123
63917SOL    HW293591   3.979   2.677   6.248
63918SOL     OW93592   9.296   2.796   4.067
63918SOL    HW193593   9.363   2.846   4.115
63918SOL    HW293594   9.248   2.862   4.017
63919SOL     OW93595   4.283   4.610   1.372
63919SOL    HW193596   4.356   4.587   1.314
63919SOL    HW293597   4.266   4.530   1.421
63920SOL     OW93598   4.934   3.991   5.212
63920SOL    HW193599   4.945   3.898   5.229
63920SOL    HW293600   4.928   3.997   5.116
63921SOL     OW93601   0.189  14.593  11.543
63921SOL    HW193602   0.221  14.676  11.577
63921SOL    HW293603   0.267  14.547  11.512
63922SOL     OW93604   6.978   4.373  11.308
63922SOL    HW193605   6.975   4.458  11.264
63922SOL    HW293606   6.886   4.347  11.316
63923SOL     OW93607   4.786   6.991   2.817
63923SOL    HW193608   4.749   6.992   2.905
63923SOL    HW293609   4.874   6.955   2.828
63924SOL     OW93610   4.830   8.574   0.106
63924SOL    HW193611   4.879   8.637   0.052
63924SOL    HW293612   4.744   8.616   0.118
63925SOL     OW93613   0.406   2.658   6.733
63925SOL    HW193614   0.471   2.672   6.802
63925SOL    HW293615   0.344   2.595   6.770
63926SOL     OW93616   8.911   1.287  10.444
63926SOL    HW193617   8.925   1.330  10.529
63926SOL    HW293618   8.817   1.297  10.429
63927SOL     OW93619  13.609   4.041   3.390
63927SOL    HW193620  13.645   4.043   3.479
63927SOL    HW293621  13.532   3.984   3.397
63928SOL     OW93622  14.535   9.225   7.959
63928SOL    HW193623  14.552   9.241   7.867
63928SOL    HW293624  14.549   9.130   7.970
63929SOL     OW93625  13.344  13.044   9.786
63929SOL    HW193626  13.255  13.076   9.798
63929SOL    HW293627  13.333  12.956   9.748
63930SOL     OW93628   8.583   4.984   7.539
63930SOL    HW193629   8.586   5.079   7.543
63930SOL    HW293630   8.637   4.961   7.463
63931SOL     OW93631   9.680   9.489   5.106
63931SOL    HW193632   9.642   9.429   5.042
63931SOL    HW293633   9.612   9.555   5.121
63932SOL     OW93634   2.633  10.805  10.115
63932SOL    HW193635   2.698  10.750  10.071
63932SOL    HW293636   2.671  10.893  10.113
63933SOL     OW93637   9.144  11.788  10.473
63933SOL    HW193638   9.153  11.701  10.433
63933SOL    HW293639   9.050  11.797  10.488
63934SOL     OW93640   2.902   5.379   9.611
63934SOL    HW193641   2.958   5.331   9.672
63934SOL    HW293642   2.961   5.411   9.543
63935SOL     OW93643   4.697   3.322   8.561
63935SOL    HW193644   4.780   3.298   8.521
63935SOL    HW293645   4.720   3.361   8.645
63936SOL     OW93646  10.007   7.756   3.796
63936SOL    HW193647   9.923   7.711   3.800
63936SOL    HW293648  10.040   7.755   3.886
63937SOL     OW93649   8.882   5.113  11.411
63937SOL    HW193650   8.882   5.181  11.344
63937SOL    HW293651   8.789   5.101  11.433
63938SOL     OW93652  11.886  14.676  11.370
63938SOL    HW193653  11.980  14.693  11.372
63938SOL    HW293654  11.847  14.763  11.362
63939SOL     OW93655   5.326   6.181  10.248
63939SOL    HW193656   5.299   6.205  10.336
63939SOL    HW293657   5.402   6.124  10.262
63940SOL     OW93658   7.532   8.448   8.365
63940SOL    HW193659   7.471   8.412   8.301
63940SOL    HW293660   7.520   8.543   8.360
63941SOL     OW93661   3.519  12.733   6.215
63941SOL    HW193662   3.588  12.788   6.252
63941SOL    HW293663   3.523  12.748   6.121
63942SOL     OW93664   1.586   7.562   5.038
63942SOL    HW193665   1.680   7.576   5.052
63942SOL    HW293666   1.544   7.633   5.087
63943SOL     OW93667  12.813   6.731   5.421
63943SOL    HW193668  12.767   6.740   5.338
63943SOL    HW293669  12.890   6.678   5.401
63944SOL     OW93670  11.455   7.998   5.122
63944SOL    HW193671  11.407   8.065   5.074
63944SOL    HW293672  11.434   8.015   5.214
63945SOL     OW93673   1.516   5.574   1.885
63945SOL    HW193674   1.493   5.638   1.818
63945SOL    HW293675   1.611   5.581   1.894
63946SOL     OW93676   0.202   6.002  12.975
63946SOL    HW193677   0.195   5.946  13.053
63946SOL    HW293678   0.179   6.089  13.006
63947SOL     OW93679   5.921   7.251   0.987
63947SOL    HW193680   5.830   7.223   0.974
63947SOL    HW293681   5.973   7.172   0.971
63948SOL     OW93682  12.320   4.128  10.919
63948SOL    HW193683  12.406   4.130  10.876
63948SOL    HW293684  12.276   4.206  10.886
63949SOL     OW93685   5.544   0.179  10.618
63949SOL    HW193686   5.544   0.215  10.530
63949SOL    HW293687   5.486   0.103  10.613
63950SOL     OW93688   7.212   8.685   8.372
63950SOL    HW193689   7.163   8.605   8.352
63950SOL    HW293690   7.154   8.756   8.346
63951SOL     OW93691   9.890   7.431  12.220
63951SOL    HW193692   9.925   7.510  12.179
63951SOL    HW293693   9.802   7.422  12.184
63952SOL     OW93694   2.711  13.057   2.009
63952SOL    HW193695   2.661  12.975   2.013
63952SOL    HW293696   2.733  13.076   2.100
63953SOL     OW93697   3.811   4.252   5.533
63953SOL    HW193698   3.885   4.309   5.513
63953SOL    HW293699   3.753   4.306   5.587
63954SOL     OW93700  10.183   7.593   1.895
63954SOL    HW193701  10.120   7.549   1.837
63954SOL    HW293702  10.194   7.533   1.968
63955SOL     OW93703   2.761   8.925   3.062
63955SOL    HW193704   2.783   8.878   2.982
63955SOL    HW293705   2.792   9.014   3.046
63956SOL     OW93706   8.779   9.798   6.933
63956SOL    HW193707   8.715   9.840   6.991
63956SOL    HW293708   8.772   9.848   6.851
63957SOL     OW93709   6.254   7.378   2.099
63957SOL    HW193710   6.283   7.296   2.060
63957SOL    HW293711   6.329   7.436   2.091
63958SOL     OW93712  14.429   0.529   7.859
63958SOL    HW193713  14.478   0.600   7.817
63958SOL    HW293714  14.411   0.560   7.947
63959SOL     OW93715  11.164   1.220   4.111
63959SOL    HW193716  11.190   1.245   4.022
63959SOL    HW293717  11.069   1.212   4.106
63960SOL     OW93718   9.708  14.184   1.180
63960SOL    HW193719   9.693  14.185   1.085
63960SOL    HW293720   9.649  14.251   1.214
63961SOL     OW93721   7.958  13.366   5.184
63961SOL    HW193722   8.007  13.284   5.186
63961SOL    HW293723   7.964  13.401   5.273
63962SOL     OW93724   4.252   1.378  13.006
63962SOL    HW193725   4.255   1.471  13.031
63962SOL    HW293726   4.284   1.376  12.916
63963SOL     OW93727   0.119   2.327   4.087
63963SOL    HW193728   0.091   2.258   4.027
63963SOL    HW293729   0.179   2.283   4.148
63964SOL     OW93730   0.976  14.503  12.841
63964SOL    HW193731   1.058  14.534  12.803
63964SOL    HW293732   0.971  14.545  12.926
63965SOL     OW93733   1.227   2.888  12.121
63965SOL    HW193734   1.178   2.822  12.170
63965SOL    HW293735   1.170   2.908  12.046
63966SOL     OW93736  10.887   7.435  11.490
63966SOL    HW193737  10.865   7.343  11.473
63966SOL    HW293738  10.826   7.484  11.435
63967SOL     OW93739  11.224   8.654   2.793
63967SOL    HW193740  11.162   8.581   2.791
63967SOL    HW293741  11.176   8.728   2.757
63968SOL     OW93742   4.722   2.970   2.299
63968SOL    HW193743   4.805   2.926   2.313
63968SOL    HW293744   4.714   3.031   2.373
63969SOL     OW93745  10.276   3.537  13.980
63969SOL    HW193746  10.313   3.603  13.921
63969SOL    HW293747  10.259   3.585  14.062
63970SOL     OW93748  11.727  10.227  13.416
63970SOL    HW193749  11.723  10.131  13.413
63970SOL    HW293750  11.802  10.249  13.362
63971SOL     OW93751  10.569  13.221   0.144
63971SOL    HW193752  10.654  13.239   0.104
63971SOL    HW293753  10.528  13.157   0.086
63972SOL     OW93754   0.528   2.243   7.458
63972SOL    HW193755   0.610   2.285   7.434
63972SOL    HW293756   0.470   2.315   7.483
63973SOL     OW93757  13.093   3.370   1.762
63973SOL    HW193758  13.034   3.348   1.834
63973SOL    HW293759  13.048   3.440   1.714
63974SOL     OW93760   6.895   4.737   9.248
63974SOL    HW193761   6.879   4.832   9.247
63974SOL    HW293762   6.849   4.707   9.326
63975SOL     OW93763   0.774   3.527   9.548
63975SOL    HW193764   0.835   3.482   9.490
63975SOL    HW293765   0.827   3.593   9.592
63976SOL     OW93766   0.329  14.577  12.951
63976SOL    HW193767   0.292  14.649  12.901
63976SOL    HW293768   0.289  14.498  12.914
63977SOL     OW93769   9.819  10.662   7.970
63977SOL    HW193770   9.748  10.662   8.034
63977SOL    HW293771   9.854  10.751   7.974
63978SOL     OW93772  14.867  14.457   3.519
63978SOL    HW193773  14.862  14.449   3.423
63978SOL    HW293774  14.837  14.372   3.551
63979SOL     OW93775   6.671   3.003  14.659
63979SOL    HW193776   6.590   2.965  14.627
63979SOL    HW293777   6.686   3.078  14.601
63980SOL     OW93778   7.399  11.171  13.770
63980SOL    HW193779   7.303  11.167  13.766
63980SOL    HW293780   7.428  11.106  13.706
63981SOL     OW93781   2.028   5.085   9.588
63981SOL    HW193782   2.052   5.072   9.496
63981SOL    HW293783   2.038   5.179   9.602
63982SOL     OW93784  12.247  12.726   2.413
63982SOL    HW193785  12.322  12.753   2.360
63982SOL    HW293786  12.238  12.794   2.479
63983SOL     OW93787   0.361  12.658   1.860
63983SOL    HW193788   0.342  12.643   1.767
63983SOL    HW293789   0.354  12.571   1.899
63984SOL     OW93790   4.753  12.332  12.447
63984SOL    HW193791   4.791  12.383  12.518
63984SOL    HW293792   4.705  12.261  12.491
63985SOL     OW93793   6.054   6.575   3.010
63985SOL    HW193794   6.125   6.628   2.975
63985SOL    HW293795   5.995   6.562   2.936
63986SOL     OW93796   4.550   4.232   0.648
63986SOL    HW193797   4.478   4.191   0.602
63986SOL    HW293798   4.569   4.174   0.722
63987SOL     OW93799   7.715  13.392   0.121
63987SOL    HW193800   7.640  13.366   0.174
63987SOL    HW293801   7.768  13.312   0.113
63988SOL     OW93802   9.495  10.500   3.837
63988SOL    HW193803   9.575  10.488   3.786
63988SOL    HW293804   9.526  10.514   3.927
63989SOL     OW93805  14.429   2.157  14.844
63989SOL    HW193806  14.464   2.152   0.053
63989SOL    HW293807  14.488   2.104  14.791
63990SOL     OW93808   5.875   3.699   5.957
63990SOL    HW193809   5.815   3.769   5.984
63990SOL    HW293810   5.861   3.629   6.021
63991SOL     OW93811  11.655   5.683   4.917
63991SOL    HW193812  11.590   5.681   4.987
63991SOL    HW293813  11.664   5.776   4.895
63992SOL     OW93814  10.758   0.036   9.335
63992SOL    HW193815  10.749   0.082   9.251
63992SOL    HW293816  10.826   0.086   9.382
63993SOL     OW93817   0.620  13.444   2.227
63993SOL    HW193818   0.630  13.538   2.242
63993SOL    HW293819   0.709  13.410   2.234
63994SOL     OW93820   4.827   7.313  10.290
63994SOL    HW193821   4.800   7.396  10.251
63994SOL    HW293822   4.745   7.266  10.306
63995SOL     OW93823   2.558  13.370  13.224
63995SOL    HW193824   2.492  13.414  13.170
63995SOL    HW293825   2.603  13.311  13.163
63996SOL     OW93826   6.321  11.887  12.335
63996SOL    HW193827   6.316  11.817  12.271
63996SOL    HW293828   6.234  11.891  12.374
63997SOL     OW93829   7.963  12.484   1.692
63997SOL    HW193830   7.914  12.556   1.652
63997SOL    HW293831   7.914  12.462   1.771
63998SOL     OW93832  14.300   2.768  12.519
63998SOL    HW193833  14.317   2.724  12.603
63998SOL    HW293834  14.205   2.764  12.510
63999SOL     OW93835  11.217   7.718   5.916
63999SOL    HW193836  11.156   7.788   5.939
63999SOL    HW293837  11.187   7.643   5.966
64000SOL     OW93838   3.159   6.907   3.993
64000SOL    HW193839   3.151   6.816   3.963
64000SOL    HW293840   3.253   6.921   4.002
64001SOL     OW93841   2.257   6.672   6.657
64001SOL    HW193842   2.190   6.622   6.703
64001SOL    HW293843   2.324   6.608   6.634
64002SOL     OW93844  11.821   5.183   4.333
64002SOL    HW193845  11.871   5.229   4.265
64002SOL    HW293846  11.794   5.252   4.394
64003SOL     OW93847  12.399  12.260  13.114
64003SOL    HW193848  12.472  12.204  13.140
64003SOL    HW293849  12.344  12.204  13.059
64004SOL     OW93850   5.945   0.665   9.398
64004SOL    HW193851   5.889   0.710   9.335
64004SOL    HW293852   5.902   0.581   9.413
64005SOL     OW93853   5.673   8.122  14.707
64005SOL    HW193854   5.672   8.053  14.772
64005SOL    HW293855   5.743   8.098  14.646
64006SOL     OW93856  10.029  12.856   2.146
64006SOL    HW193857  10.062  12.813   2.225
64006SOL    HW293858   9.941  12.820   2.135
64007SOL     OW93859   8.682  11.900   6.190
64007SOL    HW193860   8.691  11.817   6.143
64007SOL    HW293861   8.588  11.914   6.198
64008SOL     OW93862   5.785  10.587   9.941
64008SOL    HW193863   5.848  10.612   9.873
64008SOL    HW293864   5.706  10.563   9.892
64009SOL     OW93865   8.959   1.680   5.450
64009SOL    HW193866   8.882   1.630   5.424
64009SOL    HW293867   8.946   1.698   5.543
64010SOL     OW93868   5.987   9.282   4.524
64010SOL    HW193869   5.918   9.261   4.462
64010SOL    HW293870   5.988   9.378   4.527
64011SOL     OW93871  10.941   9.265   2.099
64011SOL    HW193872  11.022   9.288   2.053
64011SOL    HW293873  10.963   9.275   2.192
64012SOL     OW93874   2.748  12.122   6.849
64012SOL    HW193875   2.805  12.185   6.805
64012SOL    HW293876   2.806  12.050   6.873
64013SOL     OW93877   0.090   6.525   9.162
64013SOL    HW193878   0.182   6.551   9.162
64013SOL    HW293879   0.060   6.541   9.251
64014SOL     OW93880   6.641   4.110   3.854
64014SOL    HW193881   6.667   4.019   3.842
64014SOL    HW293882   6.713   4.149   3.904
64015SOL     OW93883  12.856   9.232   6.629
64015SOL    HW193884  12.892   9.302   6.575
64015SOL    HW293885  12.880   9.257   6.719
64016SOL     OW93886   4.270   1.597   6.356
64016SOL    HW193887   4.284   1.621   6.264
64016SOL    HW293888   4.186   1.637   6.378
64017SOL     OW93889  12.787   9.343  11.749
64017SOL    HW193890  12.747   9.334  11.662
64017SOL    HW293891  12.740   9.417  11.788
64018SOL     OW93892   7.332   1.773   8.615
64018SOL    HW193893   7.315   1.861   8.648
64018SOL    HW293894   7.314   1.780   8.521
64019SOL     OW93895   2.434   3.040   3.592
64019SOL    HW193896   2.407   3.092   3.516
64019SOL    HW293897   2.370   3.063   3.660
64020SOL     OW93898   3.399  13.227  13.204
64020SOL    HW193899   3.425  13.196  13.117
64020SOL    HW293900   3.358  13.151  13.245
64021SOL     OW93901   7.993   6.446   2.875
64021SOL    HW193902   7.986   6.505   2.949
64021SOL    HW293903   8.072   6.474   2.829
64022SOL     OW93904  12.252   7.634  13.125
64022SOL    HW193905  12.263   7.637  13.220
64022SOL    HW293906  12.315   7.697  13.091
64023SOL     OW93907   2.822   3.606   2.848
64023SOL    HW193908   2.891   3.540   2.843
64023SOL    HW293909   2.867   3.690   2.835
64024SOL     OW93910  14.225   3.374   3.119
64024SOL    HW193911  14.242   3.401   3.028
64024SOL    HW293912  14.179   3.290   3.110
64025SOL     OW93913   7.758   4.231   6.590
64025SOL    HW193914   7.758   4.320   6.556
64025SOL    HW293915   7.841   4.194   6.562
64026SOL     OW93916   3.757   2.925   0.325
64026SOL    HW193917   3.729   2.884   0.407
64026SOL    HW293918   3.675   2.939   0.276
64027SOL     OW93919   6.255   0.071  13.331
64027SOL    HW193920   6.297   0.081  13.245
64027SOL    HW293921   6.235   0.160  13.358
64028SOL     OW93922  11.324  14.252   6.120
64028SOL    HW193923  11.250  14.302   6.155
64028SOL    HW293924  11.311  14.164   6.153
64029SOL     OW93925  10.315   4.931  12.419
64029SOL    HW193926  10.336   4.839  12.410
64029SOL    HW293927  10.311   4.946  12.514
64030SOL     OW93928   9.309  13.521  11.940
64030SOL    HW193929   9.282  13.533  11.850
64030SOL    HW293930   9.399  13.554  11.943
64031SOL     OW93931   1.430   3.126   9.540
64031SOL    HW193932   1.465   3.040   9.562
64031SOL    HW293933   1.359   3.109   9.479
64032SOL     OW93934   4.800   6.628   1.707
64032SOL    HW193935   4.755   6.713   1.703
64032SOL    HW293936   4.745   6.569   1.655
64033SOL     OW93937  12.744   3.594  11.618
64033SOL    HW193938  12.716   3.637  11.699
64033SOL    HW293939  12.821   3.544  11.644
64034SOL     OW93940   8.950   4.344   5.950
64034SOL    HW193941   8.994   4.274   5.998
64034SOL    HW293942   8.996   4.424   5.975
64035SOL     OW93943  13.222   4.019  10.692
64035SOL    HW193944  13.169   4.070  10.631
64035SOL    HW293945  13.175   4.023  10.775
64036SOL     OW93946  14.695   6.844  11.328
64036SOL    HW193947  14.704   6.877  11.417
64036SOL    HW293948  14.631   6.774  11.334
64037SOL     OW93949   4.865   1.319   5.723
64037SOL    HW193950   4.804   1.274   5.783
64037SOL    HW293951   4.843   1.284   5.637
64038SOL     OW93952   0.339  11.389  10.623
64038SOL    HW193953   0.367  11.469  10.578
64038SOL    HW293954   0.393  11.320  10.585
64039SOL     OW93955  13.246   9.653   1.748
64039SOL    HW193956  13.191   9.597   1.802
64039SOL    HW293957  13.258   9.733   1.799
64040SOL     OW93958  11.265   6.401  11.652
64040SOL    HW193959  11.177   6.378  11.682
64040SOL    HW293960  11.323   6.376  11.724
64041SOL     OW93961   8.697  13.082  14.080
64041SOL    HW193962   8.711  12.988  14.092
64041SOL    HW293963   8.753  13.123  14.145
64042SOL     OW93964  14.601   3.148  13.758
64042SOL    HW193965  14.694   3.127  13.771
64042SOL    HW293966  14.601   3.243  13.743
64043SOL     OW93967   7.206   0.888  10.738
64043SOL    HW193968   7.275   0.923  10.795
64043SOL    HW293969   7.152   0.835  10.797
64044SOL     OW93970   8.005   2.667   4.353
64044SOL    HW193971   7.925   2.702   4.313
64044SOL    HW293972   8.076   2.718   4.313
64045SOL     OW93973   7.813  14.471   6.043
64045SOL    HW193974   7.744  14.479   6.109
64045SOL    HW293975   7.836  14.562   6.021
64046SOL     OW93976   1.269  12.513  12.975
64046SOL    HW193977   1.228  12.437  13.015
64046SOL    HW293978   1.207  12.585  12.987
64047SOL     OW93979  12.042   5.355   4.672
64047SOL    HW193980  12.129   5.388   4.648
64047SOL    HW293981  12.004   5.424   4.726
64048SOL     OW93982  10.746   0.759  13.021
64048SOL    HW193983  10.743   0.717  13.107
64048SOL    HW293984  10.822   0.719  12.978
64049SOL     OW93985   2.766   4.853   6.092
64049SOL    HW193986   2.745   4.938   6.053
64049SOL    HW293987   2.860   4.843   6.076
64050SOL     OW93988   7.900  11.908  13.759
64050SOL    HW193989   7.887  11.827  13.711
64050SOL    HW293990   7.995  11.920  13.761
64051SOL     OW93991  11.533   9.833  11.988
64051SOL    HW193992  11.564   9.874  11.907
64051SOL    HW293993  11.613   9.804  12.032
64052SOL     OW93994   2.669   5.062   1.470
64052SOL    HW193995   2.754   5.091   1.438
64052SOL    HW293996   2.687   5.026   1.557
64053SOL     OW93997   0.467   0.735   4.647
64053SOL    HW193998   0.383   0.782   4.648
64053SOL    HW293999   0.445   0.648   4.681
64054SOL     OW94000   5.191   7.122   5.049
64054SOL    HW194001   5.275   7.145   5.087
64054SOL    HW294002   5.126   7.162   5.106
64055SOL     OW94003   0.522  10.496   9.333
64055SOL    HW194004   0.450  10.494   9.396
64055SOL    HW294005   0.571  10.415   9.351
64056SOL     OW94006   0.506   0.866   0.265
64056SOL    HW194007   0.418   0.904   0.264
64056SOL    HW294008   0.564   0.938   0.238
64057SOL     OW94009   8.967   5.868   8.817
64057SOL    HW194010   8.948   5.826   8.901
64057SOL    HW294011   8.946   5.801   8.752
64058SOL     OW94012   3.167   5.249  13.738
64058SOL    HW194013   3.106   5.319  13.712
64058SOL    HW294014   3.110   5.178  13.766
64059SOL     OW94015  14.483   9.145   9.286
64059SOL    HW194016  14.518   9.182   9.367
64059SOL    HW294017  14.543   9.074   9.264
64060SOL     OW94018   0.445  14.634   7.311
64060SOL    HW194019   0.373  14.696   7.295
64060SOL    HW294020   0.405  14.548   7.299
64061SOL     OW94021  12.054  12.424  14.281
64061SOL    HW194022  12.055  12.484  14.356
64061SOL    HW294023  12.028  12.340  14.318
64062SOL     OW94024  11.561  14.580  12.992
64062SOL    HW194025  11.480  14.609  13.033
64062SOL    HW294026  11.566  14.629  12.910
64063SOL     OW94027   1.129  13.658   5.806
64063SOL    HW194028   1.069  13.613   5.746
64063SOL    HW294029   1.131  13.603   5.884
64064SOL     OW94030   8.789  13.062   3.595
64064SOL    HW194031   8.758  13.152   3.609
64064SOL    HW294032   8.811  13.059   3.502
64065SOL     OW94033  10.791   6.461  14.018
64065SOL    HW194034  10.730   6.424  14.081
64065SOL    HW294035  10.836   6.531  14.066
64066SOL     OW94036   1.631   0.219   7.687
64066SOL    HW194037   1.675   0.281   7.745
64066SOL    HW294038   1.602   0.273   7.613
64067SOL     OW94039   0.780  11.659  11.784
64067SOL    HW194040   0.842  11.727  11.809
64067SOL    HW294041   0.749  11.686  11.697
64068SOL     OW94042  14.238  12.223  13.756
64068SOL    HW194043  14.222  12.175  13.837
64068SOL    HW294044  14.209  12.313  13.775
64069SOL     OW94045  14.211  11.584   8.437
64069SOL    HW194046  14.190  11.587   8.531
64069SOL    HW294047  14.290  11.530   8.432
64070SOL     OW94048   1.299  14.443   7.592
64070SOL    HW194049   1.328  14.528   7.558
64070SOL    HW294050   1.376  14.406   7.634
64071SOL     OW94051   3.175  11.102   6.838
64071SOL    HW194052   3.163  11.021   6.888
64071SOL    HW294053   3.264  11.131   6.861
64072SOL     OW94054   9.624  11.693   2.999
64072SOL    HW194055   9.565  11.729   2.933
64072SOL    HW294056   9.711  11.720   2.970
64073SOL     OW94057   3.243   7.847   3.008
64073SOL    HW194058   3.255   7.860   3.102
64073SOL    HW294059   3.198   7.926   2.978
64074SOL     OW94060   7.911   4.336  13.842
64074SOL    HW194061   7.839   4.282  13.875
64074SOL    HW294062   7.877   4.374  13.761
64075SOL     OW94063   0.531   1.321   4.473
64075SOL    HW194064   0.585   1.394   4.440
64075SOL    HW294065   0.442   1.343   4.444
64076SOL     OW94066  14.834   3.267  12.885
64076SOL    HW194067  14.822   3.328  12.813
64076SOL    HW294068  14.848   3.182  12.843
64077SOL     OW94069   7.928  10.857  13.859
64077SOL    HW194070   7.901  10.879  13.770
64077SOL    HW294071   7.958  10.766  13.853
64078SOL     OW94072   8.775  10.708   3.231
64078SOL    HW194073   8.763  10.614   3.241
64078SOL    HW294074   8.750  10.745   3.315
64079SOL     OW94075   2.417  13.708  11.183
64079SOL    HW194076   2.413  13.697  11.278
64079SOL    HW294077   2.460  13.792  11.170
64080SOL     OW94078   1.263  10.328  10.330
64080SOL    HW194079   1.176  10.338  10.369
64080SOL    HW294080   1.320  10.307  10.404
64081SOL     OW94081   7.330  12.315   0.595
64081SOL    HW194082   7.358  12.224   0.601
64081SOL    HW294083   7.402  12.365   0.634
64082SOL     OW94084  10.311  14.368  10.374
64082SOL    HW194085  10.240  14.328  10.423
64082SOL    HW294086  10.308  14.460  10.398
64083SOL     OW94087  12.310  13.053   0.889
64083SOL    HW194088  12.356  13.100   0.820
64083SOL    HW294089  12.315  12.961   0.863
64084SOL     OW94090   1.999   8.817   7.117
64084SOL    HW194091   1.957   8.821   7.031
64084SOL    HW294092   1.965   8.737   7.156
64085SOL     OW94093  13.104   9.152  12.335
64085SOL    HW194094  13.057   9.188  12.259
64085SOL    HW294095  13.098   9.057  12.324
64086SOL     OW94096   5.508   5.749   8.478
64086SOL    HW194097   5.504   5.743   8.382
64086SOL    HW294098   5.433   5.804   8.501
64087SOL     OW94099   4.443  12.886   7.517
64087SOL    HW194100   4.530  12.910   7.549
64087SOL    HW294101   4.454  12.875   7.423
64088SOL     OW94102  12.806  14.289  12.702
64088SOL    HW194103  12.798  14.285  12.607
64088SOL    HW294104  12.810  14.383  12.723
64089SOL     OW94105   5.352   4.144  14.781
64089SOL    HW194106   5.356   4.049  14.795
64089SOL    HW294107   5.293   4.176  14.849
64090SOL     OW94108  13.114   7.290   7.024
64090SOL    HW194109  13.140   7.292   6.932
64090SOL    HW294110  13.193   7.263   7.071
64091SOL     OW94111   7.329   4.614  10.066
64091SOL    HW194112   7.393   4.652  10.005
64091SOL    HW294113   7.340   4.520  10.057
64092SOL     OW94114   4.642   6.234   1.302
64092SOL    HW194115   4.568   6.178   1.326
64092SOL    HW294116   4.716   6.174   1.292
64093SOL     OW94117   5.411   5.542  12.456
64093SOL    HW194118   5.456   5.581  12.382
64093SOL    HW294119   5.461   5.571  12.532
64094SOL     OW94120  12.234  11.131   9.115
64094SOL    HW194121  12.184  11.059   9.151
64094SOL    HW294122  12.227  11.121   9.020
64095SOL     OW94123   7.111   4.548  13.249
64095SOL    HW194124   7.051   4.551  13.175
64095SOL    HW294125   7.104   4.635  13.289
64096SOL     OW94126   8.948   0.859   6.943
64096SOL    HW194127   8.872   0.830   6.892
64096SOL    HW294128   8.916   0.860   7.034
64097SOL     OW94129   6.244   5.457   9.392
64097SOL    HW194130   6.216   5.383   9.337
64097SOL    HW294131   6.267   5.526   9.330
64098SOL     OW94132  14.600   1.963   8.907
64098SOL    HW194133  14.639   1.879   8.932
64098SOL    HW294134  14.669   2.007   8.857
64099SOL     OW94135   0.775  11.620   0.010
64099SOL    HW194136   0.779  11.697  14.833
64099SOL    HW294137   0.859  11.576  14.877
64100SOL     OW94138   2.839   2.802   8.096
64100SOL    HW194139   2.895   2.820   8.021
64100SOL    HW294140   2.847   2.880   8.151
64101SOL     OW94141   7.263   4.585   7.437
64101SOL    HW194142   7.356   4.597   7.418
64101SOL    HW294143   7.232   4.526   7.368
64102SOL     OW94144  11.531  11.169   7.408
64102SOL    HW194145  11.557  11.125   7.489
64102SOL    HW294146  11.474  11.106   7.364
64103SOL     OW94147   8.809   6.217  14.472
64103SOL    HW194148   8.753   6.198  14.547
64103SOL    HW294149   8.867   6.141  14.466
64104SOL     OW94150   4.279   5.776  13.766
64104SOL    HW194151   4.236   5.861  13.766
64104SOL    HW294152   4.363   5.792  13.722
64105SOL     OW94153  10.998   7.290   6.911
64105SOL    HW194154  11.013   7.206   6.868
64105SOL    HW294155  10.903   7.294   6.923
64106SOL     OW94156  10.835   1.932   7.165
64106SOL    HW194157  10.880   1.972   7.240
64106SOL    HW294158  10.752   1.979   7.158
64107SOL     OW94159   2.388   0.760   1.315
64107SOL    HW194160   2.321   0.741   1.248
64107SOL    HW294161   2.337   0.783   1.393
64108SOL     OW94162  14.095   4.192   9.500
64108SOL    HW194163  14.094   4.271   9.446
64108SOL    HW294164  14.012   4.194   9.548
64109SOL     OW94165   7.904   9.887   7.922
64109SOL    HW194166   7.894   9.965   7.977
64109SOL    HW294167   7.876   9.915   7.835
64110SOL     OW94168  11.605  10.241   4.385
64110SOL    HW194169  11.678  10.265   4.442
64110SOL    HW294170  11.644  10.227   4.299
64111SOL     OW94171  14.296   8.481  14.121
64111SOL    HW194172  14.277   8.412  14.058
64111SOL    HW294173  14.349   8.438  14.188
64112SOL     OW94174  10.272  14.288   5.192
64112SOL    HW194175  10.253  14.206   5.147
64112SOL    HW294176  10.350  14.322   5.148
64113SOL     OW94177  10.663   1.604  12.756
64113SOL    HW194178  10.616   1.572  12.834
64113SOL    HW294179  10.754   1.578  12.771
64114SOL     OW94180  12.001   9.671  11.786
64114SOL    HW194181  12.067   9.647  11.851
64114SOL    HW294182  11.947   9.592  11.777
64115SOL     OW94183   2.853   2.740   0.414
64115SOL    HW194184   2.942   2.709   0.396
64115SOL    HW294185   2.845   2.736   0.509
64116SOL     OW94186   0.660   7.095   2.298
64116SOL    HW194187   0.726   7.141   2.350
64116SOL    HW294188   0.583   7.152   2.302
64117SOL     OW94189   4.129   1.557   9.235
64117SOL    HW194190   4.098   1.535   9.323
64117SOL    HW294191   4.109   1.480   9.182
64118SOL     OW94192   1.002  14.094   4.926
64118SOL    HW194193   0.907  14.099   4.916
64118SOL    HW294194   1.016  14.021   4.986
64119SOL     OW94195   7.291  13.989   3.807
64119SOL    HW194196   7.199  14.013   3.813
64119SOL    HW294197   7.337  14.073   3.801
64120SOL     OW94198   1.266   7.335   8.809
64120SOL    HW194199   1.286   7.255   8.761
64120SOL    HW294200   1.234   7.396   8.743
64121SOL     OW94201   1.611   1.459   6.493
64121SOL    HW194202   1.672   1.516   6.447
64121SOL    HW294203   1.545   1.436   6.428
64122SOL     OW94204   6.617   2.235   5.335
64122SOL    HW194205   6.604   2.144   5.363
64122SOL    HW294206   6.546   2.251   5.273
64123SOL     OW94207   8.039   4.234   6.544
64123SOL    HW194208   8.081   4.161   6.499
64123SOL    HW294209   8.066   4.311   6.494
64124SOL     OW94210  11.224   8.786   9.276
64124SOL    HW194211  11.145   8.833   9.302
64124SOL    HW294212  11.244   8.817   9.188
64125SOL     OW94213   3.179   2.968  14.084
64125SOL    HW194214   3.086   2.966  14.062
64125SOL    HW294215   3.218   2.902  14.027
64126SOL     OW94216  10.019  13.063  11.457
64126SOL    HW194217   9.946  13.019  11.413
64126SOL    HW294218   9.989  13.076  11.546
64127SOL     OW94219   1.432  11.608   8.480
64127SOL    HW194220   1.440  11.688   8.428
64127SOL    HW294221   1.357  11.562   8.444
64128SOL     OW94222  14.255   6.544  14.179
64128SOL    HW194223  14.247   6.616  14.241
64128SOL    HW294224  14.334   6.497  14.207
64129SOL     OW94225   5.443  13.779   2.837
64129SOL    HW194226   5.455  13.736   2.752
64129SOL    HW294227   5.367  13.734   2.875
64130SOL     OW94228   0.917   0.332   6.250
64130SOL    HW194229   0.829   0.337   6.288
64130SOL    HW294230   0.911   0.383   6.169
64131SOL     OW94231   4.790  13.385   9.225
64131SOL    HW194232   4.787  13.369   9.130
64131SOL    HW294233   4.819  13.302   9.262
64132SOL     OW94234   5.880  11.901  11.049
64132SOL    HW194235   5.852  11.989  11.075
64132SOL    HW294236   5.835  11.885  10.966
64133SOL     OW94237   0.005  14.106  11.784
64133SOL    HW194238  14.799  14.131  11.821
64133SOL    HW294239   0.040  14.188  11.749
64134SOL     OW94240  10.676   4.151   7.121
64134SOL    HW194241  10.690   4.157   7.215
64134SOL    HW294242  10.605   4.213   7.103
64135SOL     OW94243   4.709  14.550   2.233
64135SOL    HW194244   4.778  14.538   2.168
64135SOL    HW294245   4.629  14.524   2.188
64136SOL     OW94246   9.044   5.445   2.266
64136SOL    HW194247   9.061   5.412   2.177
64136SOL    HW294248   9.043   5.366   2.320
64137SOL     OW94249  13.165   1.889   6.824
64137SOL    HW194250  13.127   1.900   6.737
64137SOL    HW294251  13.245   1.839   6.810
64138SOL     OW94252  11.373   3.778   9.339
64138SOL    HW194253  11.438   3.711   9.317
64138SOL    HW294254  11.341   3.809   9.254
64139SOL     OW94255   0.609   1.040   7.809
64139SOL    HW194256   0.646   1.006   7.728
64139SOL    HW294257   0.685   1.060   7.864
64140SOL     OW94258   1.757   4.192   8.709
64140SOL    HW194259   1.803   4.180   8.626
64140SOL    HW294260   1.741   4.103   8.741
64141SOL     OW94261  12.756   0.959  11.419
64141SOL    HW194262  12.710   0.952  11.503
64141SOL    HW294263  12.706   0.903  11.359
64142SOL     OW94264  11.988  11.731  14.257
64142SOL    HW194265  12.062  11.697  14.307
64142SOL    HW294266  11.996  11.826  14.265
64143SOL     OW94267   3.996   8.160   5.521
64143SOL    HW194268   3.972   8.103   5.594
64143SOL    HW294269   3.920   8.218   5.509
64144SOL     OW94270  12.160   1.846  11.060
64144SOL    HW194271  12.179   1.939  11.049
64144SOL    HW294272  12.084   1.830  11.005
64145SOL     OW94273  12.851  14.805   4.595
64145SOL    HW194274  12.927  14.775   4.544
64145SOL    HW294275  12.776  14.772   4.546
64146SOL     OW94276  10.987  13.543   2.758
64146SOL    HW194277  10.927  13.541   2.832
64146SOL    HW294278  11.023  13.632   2.759
64147SOL     OW94279  11.429   0.991   4.659
64147SOL    HW194280  11.368   1.048   4.705
64147SOL    HW294281  11.386   0.972   4.575
64148SOL     OW94282   3.594   5.955   9.486
64148SOL    HW194283   3.498   5.948   9.490
64148SOL    HW294284   3.623   5.931   9.574
64149SOL     OW94285  13.781   7.064   5.313
64149SOL    HW194286  13.785   7.085   5.220
64149SOL    HW294287  13.716   6.993   5.318
64150SOL     OW94288   5.800   7.996   2.293
64150SOL    HW194289   5.759   7.992   2.379
64150SOL    HW294290   5.763   8.074   2.252
64151SOL     OW94291  13.067   1.067   8.460
64151SOL    HW194292  13.119   1.104   8.388
64151SOL    HW294293  13.086   0.973   8.458
64152SOL     OW94294  14.145   5.306   5.402
64152SOL    HW194295  14.105   5.359   5.333
64152SOL    HW294296  14.196   5.240   5.355
64153SOL     OW94297   9.130   6.285  13.681
64153SOL    HW194298   9.180   6.335  13.746
64153SOL    HW294299   9.192   6.270  13.610
64154SOL     OW94300   0.914   5.702  13.502
64154SOL    HW194301   0.859   5.710  13.424
64154SOL    HW294302   0.872   5.760  13.566
64155SOL     OW94303   8.647   5.754   8.404
64155SOL    HW194304   8.620   5.844   8.423
64155SOL    HW294305   8.614   5.737   8.316
64156SOL     OW94306   9.824   0.158   9.788
64156SOL    HW194307   9.838   0.145   9.694
64156SOL    HW294308   9.754   0.097   9.811
64157SOL     OW94309  13.435  12.125   9.811
64157SOL    HW194310  13.460  12.135   9.903
64157SOL    HW294311  13.486  12.191   9.764
64158SOL     OW94312   1.674   6.432   1.012
64158SOL    HW194313   1.674   6.447   0.918
64158SOL    HW294314   1.619   6.355   1.024
64159SOL     OW94315   8.920  13.805  14.609
64159SOL    HW194316   9.010  13.775  14.624
64159SOL    HW294317   8.872  13.778  14.687
64160SOL     OW94318   0.176  13.136   7.717
64160SOL    HW194319   0.226  13.143   7.635
64160SOL    HW294320   0.125  13.056   7.706
64161SOL     OW94321  11.020   1.390   9.065
64161SOL    HW194322  11.035   1.475   9.105
64161SOL    HW294323  11.106   1.361   9.035
64162SOL     OW94324  14.073  10.955   0.483
64162SOL    HW194325  13.989  10.912   0.500
64162SOL    HW294326  14.134  10.913   0.544
64163SOL     OW94327   8.263   9.210  10.423
64163SOL    HW194328   8.196   9.261  10.378
64163SOL    HW294329   8.309   9.273  10.478
64164SOL     OW94330  10.482  12.273   2.346
64164SOL    HW194331  10.547  12.284   2.277
64164SOL    HW294332  10.519  12.207   2.404
64165SOL     OW94333   4.847   7.296   0.968
64165SOL    HW194334   4.862   7.281   0.875
64165SOL    HW294335   4.812   7.213   1.000
64166SOL     OW94336   5.355  10.279  10.518
64166SOL    HW194337   5.389  10.307  10.603
64166SOL    HW294338   5.299  10.352  10.490
64167SOL     OW94339  13.759   0.868  14.462
64167SOL    HW194340  13.849   0.833  14.465
64167SOL    HW294341  13.742   0.881  14.369
64168SOL     OW94342   0.959  12.491  13.294
64168SOL    HW194343   0.944  12.576  13.253
64168SOL    HW294344   0.894  12.486  13.364
64169SOL     OW94345   0.582   3.205  11.519
64169SOL    HW194346   0.583   3.119  11.477
64169SOL    HW294347   0.553   3.266  11.451
64170SOL     OW94348   9.763  12.148   3.936
64170SOL    HW194349   9.723  12.218   3.883
64170SOL    HW294350   9.752  12.069   3.883
64171SOL     OW94351   3.048   3.009   1.180
64171SOL    HW194352   2.989   2.934   1.187
64171SOL    HW294353   3.135   2.970   1.178
64172SOL     OW94354  12.547   5.099   9.507
64172SOL    HW194355  12.629   5.050   9.510
64172SOL    HW294356  12.534   5.118   9.414
64173SOL     OW94357   3.644   6.707   5.039
64173SOL    HW194358   3.584   6.634   5.027
64173SOL    HW294359   3.661   6.739   4.951
64174SOL     OW94360  13.334  13.985  10.356
64174SOL    HW194361  13.358  13.900  10.321
64174SOL    HW294362  13.332  14.043  10.280
64175SOL     OW94363   1.841  10.691   6.834
64175SOL    HW194364   1.930  10.717   6.810
64175SOL    HW294365   1.848  10.598   6.855
64176SOL     OW94366  13.812   8.678   6.898
64176SOL    HW194367  13.807   8.758   6.950
64176SOL    HW294368  13.799   8.607   6.962
64177SOL     OW94369   5.495   1.544  14.584
64177SOL    HW194370   5.433   1.584  14.523
64177SOL    HW294371   5.567   1.513  14.528
64178SOL     OW94372   8.037  13.200   0.865
64178SOL    HW194373   7.979  13.142   0.816
64178SOL    HW294374   7.985  13.279   0.881
64179SOL     OW94375   4.547   2.844   0.514
64179SOL    HW194376   4.627   2.807   0.477
64179SOL    HW294377   4.476   2.798   0.471
64180SOL     OW94378   8.781   5.511  11.407
64180SOL    HW194379   8.788   5.607  11.414
64180SOL    HW294380   8.803   5.480  11.495
64181SOL     OW94381   0.900   7.882   1.611
64181SOL    HW194382   0.934   7.967   1.640
64181SOL    HW294383   0.907   7.826   1.688
64182SOL     OW94384   7.820   9.630   3.626
64182SOL    HW194385   7.810   9.573   3.549
64182SOL    HW294386   7.793   9.717   3.595
64183SOL     OW94387  10.061   1.259   5.413
64183SOL    HW194388  10.012   1.334   5.378
64183SOL    HW294389  10.037   1.186   5.356
64184SOL     OW94390  11.167   0.366  12.456
64184SOL    HW194391  11.219   0.426  12.402
64184SOL    HW294392  11.196   0.279  12.430
64185SOL     OW94393   6.329   3.966  14.026
64185SOL    HW194394   6.326   4.062  14.021
64185SOL    HW294395   6.338   3.938  13.934
64186SOL     OW94396   7.366  10.789   8.993
64186SOL    HW194397   7.377  10.745   9.077
64186SOL    HW294398   7.378  10.719   8.928
64187SOL     OW94399   0.632  10.775   2.388
64187SOL    HW194400   0.701  10.746   2.448
64187SOL    HW294401   0.607  10.695   2.341
64188SOL     OW94402  10.959   1.244  12.738
64188SOL    HW194403  10.866   1.227  12.753
64188SOL    HW294404  11.000   1.158  12.747
64189SOL     OW94405   6.451   9.129  12.286
64189SOL    HW194406   6.458   9.057  12.348
64189SOL    HW294407   6.395   9.194  12.329
64190SOL     OW94408   1.845  11.367  13.599
64190SOL    HW194409   1.815  11.299  13.659
64190SOL    HW294410   1.773  11.378  13.537
64191SOL     OW94411   7.623   3.265   8.388
64191SOL    HW194412   7.639   3.182   8.432
64191SOL    HW294413   7.552   3.247   8.326
64192SOL     OW94414  14.823   4.296   5.824
64192SOL    HW194415   0.031   4.290   5.863
64192SOL    HW294416  14.810   4.389   5.806
64193SOL     OW94417   0.207  11.568   0.070
64193SOL    HW194418   0.300  11.576   0.089
64193SOL    HW294419   0.198  11.482   0.030
64194SOL     OW94420   3.265  11.643   3.753
64194SOL    HW194421   3.228  11.569   3.705
64194SOL    HW294422   3.313  11.603   3.825
64195SOL     OW94423   7.259   5.140  12.943
64195SOL    HW194424   7.172   5.178  12.933
64195SOL    HW294425   7.312   5.183  12.876
64196SOL     OW94426   1.220   0.369  13.400
64196SOL    HW194427   1.298   0.414  13.368
64196SOL    HW294428   1.236   0.277  13.379
64197SOL     OW94429   8.054   4.159   0.028
64197SOL    HW194430   8.084   4.207  14.830
64197SOL    HW294431   7.964   4.187   0.040
64198SOL     OW94432   1.025   7.442  11.972
64198SOL    HW194433   0.938   7.419  12.004
64198SOL    HW294434   1.080   7.369  11.997
64199SOL     OW94435   2.307  12.736   1.934
64199SOL    HW194436   2.346  12.805   1.988
64199SOL    HW294437   2.332  12.757   1.845
64200SOL     OW94438   2.191   0.924   5.766
64200SOL    HW194439   2.214   0.832   5.760
64200SOL    HW294440   2.184   0.941   5.860
64201SOL     OW94441   6.752  12.054   6.225
64201SOL    HW194442   6.815  11.984   6.208
64201SOL    HW294443   6.755  12.067   6.320
64202SOL     OW94444   9.408   8.738  14.498
64202SOL    HW194445   9.492   8.782  14.481
64202SOL    HW294446   9.346   8.783  14.441
64203SOL     OW94447   2.401  14.205   8.773
64203SOL    HW194448   2.344  14.143   8.727
64203SOL    HW294449   2.357  14.220   8.856
64204SOL     OW94450  10.900   7.365   8.232
64204SOL    HW194451  10.831   7.430   8.249
64204SOL    HW294452  10.887   7.298   8.299
64205SOL     OW94453  12.050  12.290  10.635
64205SOL    HW194454  12.057  12.276  10.729
64205SOL    HW294455  12.132  12.255  10.599
64206SOL     OW94456   7.083   3.761  14.311
64206SOL    HW194457   7.003   3.814  14.314
64206SOL    HW294458   7.138   3.796  14.381
64207SOL     OW94459   5.248  10.834   6.533
64207SOL    HW194460   5.236  10.746   6.497
64207SOL    HW294461   5.280  10.886   6.460
64208SOL     OW94462   5.420   4.275   7.179
64208SOL    HW194463   5.409   4.343   7.246
64208SOL    HW294464   5.333   4.237   7.170
64209SOL     OW94465   1.055   9.570   2.602
64209SOL    HW194466   1.093   9.658   2.596
64209SOL    HW294467   1.109   9.525   2.667
64210SOL     OW94468   5.756   6.762   2.360
64210SOL    HW194469   5.681   6.744   2.304
64210SOL    HW294470   5.722   6.752   2.449
64211SOL     OW94471  13.541  10.173   3.793
64211SOL    HW194472  13.619  10.126   3.760
64211SOL    HW294473  13.468  10.119   3.764
64212SOL     OW94474   9.655  14.482   3.362
64212SOL    HW194475   9.651  14.565   3.315
64212SOL    HW294476   9.666  14.416   3.293
64213SOL     OW94477   5.726  14.462   8.059
64213SOL    HW194478   5.692  14.547   8.087
64213SOL    HW294479   5.678  14.398   8.114
64214SOL     OW94480   2.220  13.956   5.424
64214SOL    HW194481   2.255  13.895   5.489
64214SOL    HW294482   2.269  13.937   5.344
64215SOL     OW94483   3.822  11.269   5.188
64215SOL    HW194484   3.841  11.207   5.118
64215SOL    HW294485   3.885  11.247   5.257
64216SOL     OW94486  10.280   1.803   1.264
64216SOL    HW194487  10.333   1.883   1.256
64216SOL    HW294488  10.193   1.834   1.290
64217SOL     OW94489  11.486  12.140   6.012
64217SOL    HW194490  11.461  12.218   5.962
64217SOL    HW294491  11.424  12.138   6.085
64218SOL     OW94492   1.328   8.935  14.770
64218SOL    HW194493   1.249   8.887  14.794
64218SOL    HW294494   1.306   8.979  14.688
64219SOL     OW94495  14.248   1.597  12.393
64219SOL    HW194496  14.303   1.660  12.439
64219SOL    HW294497  14.307   1.556  12.329
64220SOL     OW94498  14.838  12.860  13.652
64220SOL    HW194499  14.815  12.821  13.736
64220SOL    HW294500  14.816  12.952  13.661
64221SOL     OW94501   5.182  12.966  13.973
64221SOL    HW194502   5.201  12.916  13.894
64221SOL    HW294503   5.088  12.952  13.988
64222SOL     OW94504   9.190  13.809   8.344
64222SOL    HW194505   9.116  13.791   8.401
64222SOL    HW294506   9.152  13.856   8.270
64223SOL     OW94507   3.755   4.367  11.412
64223SOL    HW194508   3.820   4.404  11.352
64223SOL    HW294509   3.798   4.370  11.497
64224SOL     OW94510   4.346   0.465   1.467
64224SOL    HW194511   4.292   0.531   1.511
64224SOL    HW294512   4.435   0.482   1.500
64225SOL     OW94513   5.601   6.638  12.007
64225SOL    HW194514   5.665   6.576  12.043
64225SOL    HW294515   5.539   6.652  12.079
64226SOL     OW94516   6.843  13.905   5.210
64226SOL    HW194517   6.823  13.986   5.163
64226SOL    HW294518   6.805  13.919   5.297
64227SOL     OW94519   7.036  14.063   0.174
64227SOL    HW194520   6.966  14.018   0.221
64227SOL    HW294521   7.077  14.119   0.240
64228SOL     OW94522  13.711   6.681  13.459
64228SOL    HW194523  13.727   6.589  13.482
64228SOL    HW294524  13.617   6.684  13.439
64229SOL     OW94525   2.462   0.552  11.072
64229SOL    HW194526   2.430   0.518  11.156
64229SOL    HW294527   2.384   0.583  11.027
64230SOL     OW94528   2.353  11.053   7.767
64230SOL    HW194529   2.327  10.976   7.717
64230SOL    HW294530   2.292  11.056   7.840
64231SOL     OW94531  14.821   1.539   2.542
64231SOL    HW194532  14.778   1.554   2.626
64231SOL    HW294533  14.806   1.446   2.524
64232SOL     OW94534   7.558   9.786   9.814
64232SOL    HW194535   7.529   9.699   9.842
64232SOL    HW294536   7.538   9.790   9.721
64233SOL     OW94537   5.030  12.748   0.207
64233SOL    HW194538   4.962  12.815   0.204
64233SOL    HW294539   5.033  12.713   0.118
64234SOL     OW94540   0.022  14.630   1.103
64234SOL    HW194541  14.827  14.684   1.075
64234SOL    HW294542  14.862  14.548   1.133
64235SOL     OW94543   9.331   4.971  12.423
64235SOL    HW194544   9.296   5.052  12.384
64235SOL    HW294545   9.404   4.947  12.367
64236SOL     OW94546   2.602   0.293   9.243
64236SOL    HW194547   2.524   0.346   9.256
64236SOL    HW294548   2.648   0.334   9.169
64237SOL     OW94549   9.741  12.669   5.075
64237SOL    HW194550   9.722  12.644   4.985
64237SOL    HW294551   9.729  12.589   5.126
64238SOL     OW94552   5.277  12.553   5.449
64238SOL    HW194553   5.203  12.566   5.389
64238SOL    HW294554   5.239  12.557   5.536
64239SOL     OW94555   3.942   9.464  13.974
64239SOL    HW194556   4.037   9.470  13.978
64239SOL    HW294557   3.915   9.550  13.941
64240SOL     OW94558  14.321  13.219   2.090
64240SOL    HW194559  14.296  13.211   1.998
64240SOL    HW294560  14.368  13.303   2.094
64241SOL     OW94561   5.664   2.329   8.139
64241SOL    HW194562   5.613   2.248   8.135
64241SOL    HW294563   5.659   2.365   8.050
64242SOL     OW94564   4.520  11.405  11.210
64242SOL    HW194565   4.437  11.364  11.185
64242SOL    HW294566   4.587  11.348  11.171
64243SOL     OW94567  14.865   3.364   5.037
64243SOL    HW194568  14.799   3.336   4.973
64243SOL    HW294569   0.049   3.292   5.040
64244SOL     OW94570   9.288   9.590  14.450
64244SOL    HW194571   9.372   9.604  14.493
64244SOL    HW294572   9.279   9.663  14.388
64245SOL     OW94573   5.985   3.628   1.528
64245SOL    HW194574   5.923   3.569   1.571
64245SOL    HW294575   6.014   3.687   1.597
64246SOL     OW94576   2.760   9.001   1.324
64246SOL    HW194577   2.671   8.970   1.342
64246SOL    HW294578   2.814   8.960   1.393
64247SOL     OW94579   0.668   5.634   8.566
64247SOL    HW194580   0.629   5.622   8.652
64247SOL    HW294581   0.757   5.664   8.584
64248SOL     OW94582  12.699  13.869   7.147
64248SOL    HW194583  12.645  13.939   7.183
64248SOL    HW294584  12.736  13.905   7.066
64249SOL     OW94585   9.958  10.450   4.525
64249SOL    HW194586   9.952  10.371   4.578
64249SOL    HW294587   9.867  10.471   4.503
64250SOL     OW94588   5.697   5.054   2.135
64250SOL    HW194589   5.787   5.025   2.119
64250SOL    HW294590   5.692   5.139   2.090
64251SOL     OW94591  11.844   0.000  11.865
64251SOL    HW194592  11.920  14.836  11.904
64251SOL    HW294593  11.877   0.037  11.783
64252SOL     OW94594  12.559   3.560  13.984
64252SOL    HW194595  12.536   3.511  13.905
64252SOL    HW294596  12.514   3.644  13.974
64253SOL     OW94597   9.626   5.047   8.950
64253SOL    HW194598   9.701   5.040   9.009
64253SOL    HW294599   9.662   5.036   8.862
64254SOL     OW94600   1.001   7.355   1.089
64254SOL    HW194601   1.058   7.326   1.161
64254SOL    HW294602   1.013   7.289   1.021
64255SOL     OW94603   9.074   4.995   0.151
64255SOL    HW194604   9.120   5.067   0.108
64255SOL    HW294605   8.981   5.012   0.133
64256SOL     OW94606   0.785   9.943   9.215
64256SOL    HW194607   0.867   9.992   9.214
64256SOL    HW294608   0.779   9.906   9.303
64257SOL     OW94609   3.616   1.918   6.096
64257SOL    HW194610   3.635   1.843   6.040
64257SOL    HW294611   3.546   1.966   6.050
64258SOL     OW94612  14.384   4.035   7.915
64258SOL    HW194613  14.291   4.012   7.927
64258SOL    HW294614  14.420   4.033   8.004
64259SOL     OW94615   2.353  11.663   1.584
64259SOL    HW194616   2.409  11.698   1.653
64259SOL    HW294617   2.409  11.602   1.537
64260SOL     OW94618   7.010   1.750   3.649
64260SOL    HW194619   6.975   1.829   3.690
64260SOL    HW294620   6.939   1.686   3.655
64261SOL     OW94621   1.366  12.083   2.949
64261SOL    HW194622   1.357  11.989   2.935
64261SOL    HW294623   1.277  12.114   2.964
64262SOL     OW94624  14.298  10.434   8.989
64262SOL    HW194625  14.267  10.344   9.002
64262SOL    HW294626  14.376  10.441   9.044
64263SOL     OW94627   5.312   2.784   6.141
64263SOL    HW194628   5.364   2.796   6.220
64263SOL    HW294629   5.369   2.813   6.070
64264SOL     OW94630   5.192  14.624   8.348
64264SOL    HW194631   5.287  14.630   8.353
64264SOL    HW294632   5.170  14.547   8.401
64265SOL     OW94633   1.193   7.498   2.646
64265SOL    HW194634   1.202   7.409   2.612
64265SOL    HW294635   1.107   7.499   2.689
64266SOL     OW94636  10.667   8.339  14.092
64266SOL    HW194637  10.619   8.356  14.011
64266SOL    HW294638  10.625   8.396  14.157
64267SOL     OW94639   1.247   9.983   2.832
64267SOL    HW194640   1.284  10.028   2.756
64267SOL    HW294641   1.323   9.950   2.879
64268SOL     OW94642   4.861   0.707   0.490
64268SOL    HW194643   4.790   0.765   0.518
64268SOL    HW294644   4.925   0.766   0.449
64269SOL     OW94645  12.557  13.769   0.356
64269SOL    HW194646  12.472  13.808   0.337
64269SOL    HW294647  12.550  13.679   0.323
64270SOL     OW94648   3.974  14.653  13.448
64270SOL    HW194649   3.995  14.737  13.489
64270SOL    HW294650   3.881  14.658  13.429
64271SOL     OW94651   5.117   2.145   4.415
64271SOL    HW194652   5.134   2.121   4.506
64271SOL    HW294653   5.025   2.123   4.401
64272SOL     OW94654   4.111   3.382   9.334
64272SOL    HW194655   4.161   3.350   9.409
64272SOL    HW294656   4.175   3.389   9.264
64273SOL     OW94657  11.655   2.149   8.693
64273SOL    HW194658  11.696   2.189   8.770
64273SOL    HW294659  11.667   2.214   8.623
64274SOL     OW94660  14.733   5.669  11.243
64274SOL    HW194661  14.669   5.603  11.216
64274SOL    HW294662  14.743   5.725  11.167
64275SOL     OW94663  12.141  10.007  14.258
64275SOL    HW194664  12.209  10.073  14.272
64275SOL    HW294665  12.171   9.958  14.181
64276SOL     OW94666   3.216   9.925  14.132
64276SOL    HW194667   3.227   9.931  14.227
64276SOL    HW294668   3.249   9.839  14.109
64277SOL     OW94669   9.753   9.715   2.594
64277SOL    HW194670   9.750   9.711   2.498
64277SOL    HW294671   9.663   9.694   2.621
64278SOL     OW94672   2.212   9.990  10.078
64278SOL    HW194673   2.258   9.923  10.128
64278SOL    HW294674   2.199  10.062  10.140
64279SOL     OW94675   9.196  10.654   6.196
64279SOL    HW194676   9.272  10.686   6.148
64279SOL    HW294677   9.230  10.627   6.281
64280SOL     OW94678   3.614   8.380   2.332
64280SOL    HW194679   3.707   8.402   2.343
64280SOL    HW294680   3.591   8.336   2.414
64281SOL     OW94681   2.419   6.360   6.294
64281SOL    HW194682   2.383   6.381   6.208
64281SOL    HW294683   2.473   6.436   6.317
64282SOL     OW94684  12.378   3.638   7.840
64282SOL    HW194685  12.347   3.559   7.796
64282SOL    HW294686  12.310   3.703   7.823
64283SOL     OW94687   4.327   4.695   4.308
64283SOL    HW194688   4.283   4.695   4.223
64283SOL    HW294689   4.259   4.667   4.369
64284SOL     OW94690   1.114   4.769   6.960
64284SOL    HW194691   1.107   4.793   6.868
64284SOL    HW294692   1.029   4.791   6.997
64285SOL     OW94693  14.248   2.603   6.820
64285SOL    HW194694  14.294   2.593   6.736
64285SOL    HW294695  14.228   2.514   6.847
64286SOL     OW94696  13.139   4.494   9.401
64286SOL    HW194697  13.178   4.501   9.314
64286SOL    HW294698  13.063   4.438   9.389
64287SOL     OW94699   3.863   5.458   8.118
64287SOL    HW194700   3.905   5.544   8.124
64287SOL    HW294701   3.809   5.452   8.197
64288SOL     OW94702   3.712   7.284  11.217
64288SOL    HW194703   3.773   7.294  11.144
64288SOL    HW294704   3.733   7.198  11.254
64289SOL     OW94705   5.258   0.697   9.528
64289SOL    HW194706   5.333   0.756   9.526
64289SOL    HW294707   5.289   0.619   9.574
64290SOL     OW94708  13.921   4.440  12.747
64290SOL    HW194709  13.906   4.362  12.800
64290SOL    HW294710  13.857   4.434  12.677
64291SOL     OW94711   7.336  13.728   9.168
64291SOL    HW194712   7.320  13.634   9.162
64291SOL    HW294713   7.431  13.736   9.183
64292SOL     OW94714   3.349   7.934   9.147
64292SOL    HW194715   3.309   7.872   9.208
64292SOL    HW294716   3.411   7.983   9.200
64293SOL     OW94717   5.274   7.893   7.040
64293SOL    HW194718   5.256   7.938   7.123
64293SOL    HW294719   5.191   7.897   6.992
64294SOL     OW94720  13.906   0.135  10.303
64294SOL    HW194721  13.911   0.050  10.259
64294SOL    HW294722  13.812   0.151  10.314
64295SOL     OW94723   0.654   3.477   3.464
64295SOL    HW194724   0.609   3.555   3.434
64295SOL    HW294725   0.585   3.422   3.501
64296SOL     OW94726   0.121  14.658  14.638
64296SOL    HW194727   0.047  14.696  14.686
64296SOL    HW294728   0.158  14.594  14.699
64297SOL     OW94729  13.179   0.029  14.344
64297SOL    HW194730  13.180   0.025  14.439
64297SOL    HW294731  13.235   0.104  14.322
64298SOL     OW94732   1.544   5.110   0.883
64298SOL    HW194733   1.573   5.200   0.893
64298SOL    HW294734   1.568   5.068   0.966
64299SOL     OW94735  14.199   5.815   5.358
64299SOL    HW194736  14.244   5.730   5.355
64299SOL    HW294737  14.167   5.829   5.269
64300SOL     OW94738   7.938  10.432   9.379
64300SOL    HW194739   7.927  10.439   9.474
64300SOL    HW294740   7.924  10.521   9.347
64301SOL     OW94741   5.628   5.097   5.550
64301SOL    HW194742   5.693   5.032   5.574
64301SOL    HW294743   5.666   5.143   5.475
64302SOL     OW94744   7.112  13.995  13.196
64302SOL    HW194745   7.060  13.963  13.122
64302SOL    HW294746   7.141  14.082  13.168
64303SOL     OW94747   4.035  11.182   6.354
64303SOL    HW194748   3.991  11.151   6.433
64303SOL    HW294749   4.118  11.135   6.352
64304SOL     OW94750   7.350   7.895   4.313
64304SOL    HW194751   7.275   7.953   4.325
64304SOL    HW294752   7.392   7.893   4.399
64305SOL     OW94753  13.431  11.417   0.335
64305SOL    HW194754  13.368  11.450   0.271
64305SOL    HW294755  13.515  11.416   0.289
64306SOL     OW94756   6.952   3.181  13.632
64306SOL    HW194757   7.045   3.193  13.612
64306SOL    HW294758   6.929   3.257  13.685
64307SOL     OW94759  13.131   2.720  13.533
64307SOL    HW194760  13.124   2.655  13.464
64307SOL    HW294761  13.221   2.752  13.528
64308SOL     OW94762   4.231   8.886   4.650
64308SOL    HW194763   4.155   8.831   4.632
64308SOL    HW294764   4.306   8.827   4.647
64309SOL     OW94765   3.254  13.291  10.546
64309SOL    HW194766   3.201  13.349  10.602
64309SOL    HW294767   3.191  13.227  10.512
64310SOL     OW94768   7.168   2.206   0.836
64310SOL    HW194769   7.164   2.280   0.775
64310SOL    HW294770   7.222   2.237   0.908
64311SOL     OW94771   0.815   9.734   9.019
64311SOL    HW194772   0.851   9.654   9.058
64311SOL    HW294773   0.816   9.798   9.091
64312SOL     OW94774  12.351  13.529   7.366
64312SOL    HW194775  12.393  13.526   7.452
64312SOL    HW294776  12.285  13.598   7.373
64313SOL     OW94777   3.811   8.742   8.190
64313SOL    HW194778   3.846   8.821   8.232
64313SOL    HW294779   3.808   8.677   8.259
64314SOL     OW94780   8.247  10.576   1.779
64314SOL    HW194781   8.197  10.499   1.808
64314SOL    HW294782   8.271  10.556   1.688
64315SOL     OW94783  13.522  12.404   6.860
64315SOL    HW194784  13.434  12.388   6.828
64315SOL    HW294785  13.537  12.339   6.928
64316SOL     OW94786  11.254   0.065   2.386
64316SOL    HW194787  11.316   0.138   2.388
64316SOL    HW294788  11.252   0.038   2.294
64317SOL     OW94789   7.075  13.706  11.321
64317SOL    HW194790   7.070  13.760  11.400
64317SOL    HW294791   7.035  13.623  11.346
64318SOL     OW94792  14.029  11.087   4.257
64318SOL    HW194793  14.061  11.047   4.176
64318SOL    HW294794  14.007  11.177   4.232
64319SOL     OW94795   9.626   9.969   7.432
64319SOL    HW194796   9.541   9.924   7.434
64319SOL    HW294797   9.606  10.060   7.453
64320SOL     OW94798   3.817  14.482   4.698
64320SOL    HW194799   3.834  14.500   4.605
64320SOL    HW294800   3.813  14.568   4.739
64321SOL     OW94801   6.542  13.802  14.172
64321SOL    HW194802   6.534  13.883  14.122
64321SOL    HW294803   6.589  13.827  14.251
64322SOL     OW94804   7.361   7.708   1.091
64322SOL    HW194805   7.419   7.779   1.064
64322SOL    HW294806   7.411   7.628   1.073
64323SOL     OW94807  13.406   1.952   2.703
64323SOL    HW194808  13.332   2.009   2.724
64323SOL    HW294809  13.483   2.004   2.728
64324SOL     OW94810   1.835  14.327   9.213
64324SOL    HW194811   1.868  14.385   9.282
64324SOL    HW294812   1.833  14.382   9.135
64325SOL     OW94813   9.262  13.543  14.289
64325SOL    HW194814   9.310  13.531  14.371
64325SOL    HW294815   9.202  13.469  14.285
64326SOL     OW94816   4.086  12.077   4.285
64326SOL    HW194817   4.023  12.023   4.237
64326SOL    HW294818   4.090  12.158   4.235
64327SOL     OW94819   4.304   6.210   5.360
64327SOL    HW194820   4.220   6.186   5.399
64327SOL    HW294821   4.282   6.275   5.294
64328SOL     OW94822   9.902  12.673   8.785
64328SOL    HW194823   9.979  12.676   8.727
64328SOL    HW294824   9.829  12.701   8.729
64329SOL     OW94825  12.689   1.767   8.301
64329SOL    HW194826  12.648   1.693   8.346
64329SOL    HW294827  12.752   1.727   8.241
64330SOL     OW94828   4.426   3.716   1.720
64330SOL    HW194829   4.354   3.660   1.692
64330SOL    HW294830   4.403   3.744   1.808
64331SOL     OW94831  12.412   5.932   5.841
64331SOL    HW194832  12.454   5.900   5.761
64331SOL    HW294833  12.481   5.978   5.888
64332SOL     OW94834  14.095   8.932   9.720
64332SOL    HW194835  14.159   8.975   9.663
64332SOL    HW294836  14.039   8.883   9.661
64333SOL     OW94837  11.374  12.438  14.755
64333SOL    HW194838  11.437  12.390  14.809
64333SOL    HW294839  11.315  12.371  14.721
64334SOL     OW94840   3.129   5.943   7.065
64334SOL    HW194841   3.188   5.929   6.991
64334SOL    HW294842   3.181   5.992   7.128
64335SOL     OW94843  14.378   5.972   3.979
64335SOL    HW194844  14.425   5.898   4.017
64335SOL    HW294845  14.410   6.049   4.026
64336SOL     OW94846   2.030   7.552   0.323
64336SOL    HW194847   2.083   7.514   0.252
64336SOL    HW294848   2.079   7.629   0.350
64337SOL     OW94849   6.719   6.416   4.422
64337SOL    HW194850   6.813   6.430   4.438
64337SOL    HW294851   6.693   6.488   4.365
64338SOL     OW94852  10.622  13.755   7.233
64338SOL    HW194853  10.655  13.685   7.289
64338SOL    HW294854  10.584  13.710   7.158
64339SOL     OW94855   3.457  11.366   7.509
64339SOL    HW194856   3.440  11.331   7.596
64339SOL    HW294857   3.552  11.377   7.505
64340SOL     OW94858   2.971   6.279   9.242
64340SOL    HW194859   2.945   6.354   9.190
64340SOL    HW294860   2.942   6.203   9.192
64341SOL     OW94861  11.988   3.626  12.633
64341SOL    HW194862  12.037   3.666  12.705
64341SOL    HW294863  11.979   3.535  12.659
64342SOL     OW94864   5.474   5.086   1.185
64342SOL    HW194865   5.491   5.157   1.123
64342SOL    HW294866   5.521   5.111   1.264
64343SOL     OW94867   6.390   2.939   3.143
64343SOL    HW194868   6.468   2.943   3.199
64343SOL    HW294869   6.377   2.845   3.128
64344SOL     OW94870  13.250  14.282   4.979
64344SOL    HW194871  13.331  14.322   5.013
64344SOL    HW294872  13.274  14.191   4.961
64345SOL     OW94873   6.207   0.634  13.877
64345SOL    HW194874   6.129   0.591  13.910
64345SOL    HW294875   6.277   0.570  13.892
64346SOL     OW94876   8.174  10.791  12.320
64346SOL    HW194877   8.206  10.765  12.233
64346SOL    HW294878   8.238  10.755  12.381
64347SOL     OW94879   6.126  11.769   8.786
64347SOL    HW194880   6.133  11.689   8.839
64347SOL    HW294881   6.131  11.738   8.696
64348SOL     OW94882   7.054  10.132   1.309
64348SOL    HW194883   7.127  10.155   1.366
64348SOL    HW294884   7.070  10.041   1.285
64349SOL     OW94885   3.093  10.947  14.135
64349SOL    HW194886   3.082  11.041  14.116
64349SOL    HW294887   3.020  10.927  14.194
64350SOL     OW94888   9.548   2.807  10.080
64350SOL    HW194889   9.490   2.881  10.099
64350SOL    HW294890   9.634   2.847  10.067
64351SOL     OW94891  14.266  11.721   3.767
64351SOL    HW194892  14.193  11.660   3.779
64351SOL    HW294893  14.295  11.707   3.677
64352SOL     OW94894  14.288   1.268   0.401
64352SOL    HW194895  14.340   1.282   0.321
64352SOL    HW294896  14.198   1.281   0.373
64353SOL     OW94897   1.707   8.636  11.921
64353SOL    HW194898   1.613   8.631  11.904
64353SOL    HW294899   1.746   8.641  11.834
64354SOL     OW94900   1.017   0.051   6.892
64354SOL    HW194901   0.955  14.861   6.870
64354SOL    HW294902   1.095   0.030   6.841
64355SOL     OW94903   9.041   6.168   0.094
64355SOL    HW194904   9.110   6.229   0.068
64355SOL    HW294905   9.077   6.081   0.077
64356SOL     OW94906   9.373   0.853  12.452
64356SOL    HW194907   9.310   0.905  12.501
64356SOL    HW294908   9.458   0.884  12.481
64357SOL     OW94909  13.591   1.638   2.257
64357SOL    HW194910  13.653   1.609   2.191
64357SOL    HW294911  13.557   1.558   2.296
64358SOL     OW94912   6.109   9.141  14.062
64358SOL    HW194913   6.110   9.116  14.154
64358SOL    HW294914   6.043   9.084  14.022
64359SOL     OW94915  13.066  14.124   6.324
64359SOL    HW194916  13.106  14.164   6.247
64359SOL    HW294917  13.016  14.050   6.290
64360SOL     OW94918  12.433  12.249   0.277
64360SOL    HW194919  12.355  12.195   0.291
64360SOL    HW294920  12.404  12.339   0.295
64361SOL     OW94921   7.865  10.949   0.422
64361SOL    HW194922   7.885  10.870   0.373
64361SOL    HW294923   7.802  10.922   0.488
64362SOL     OW94924   7.153   8.005  11.770
64362SOL    HW194925   7.116   7.917  11.773
64362SOL    HW294926   7.210   8.004  11.692
64363SOL     OW94927  10.632  11.811   3.758
64363SOL    HW194928  10.651  11.846   3.671
64363SOL    HW294929  10.554  11.757   3.745
64364SOL     OW94930   7.285   8.777   4.846
64364SOL    HW194931   7.285   8.873   4.852
64364SOL    HW294932   7.376   8.754   4.830
64365SOL     OW94933  12.050   3.985   0.818
64365SOL    HW194934  12.018   4.029   0.739
64365SOL    HW294935  12.110   4.048   0.858
64366SOL     OW94936   8.510   6.127   2.471
64366SOL    HW194937   8.457   6.200   2.439
64366SOL    HW294938   8.509   6.063   2.400
64367SOL     OW94939  11.544   5.945   3.438
64367SOL    HW194940  11.539   5.947   3.343
64367SOL    HW294941  11.501   6.026   3.466
64368SOL     OW94942   7.913   8.613   9.994
64368SOL    HW194943   7.923   8.655  10.079
64368SOL    HW294944   7.821   8.625   9.971
64369SOL     OW94945   1.517  14.741   9.221
64369SOL    HW194946   1.509  14.827   9.263
64369SOL    HW294947   1.600  14.746   9.173
64370SOL     OW94948  14.692  14.780   1.042
64370SOL    HW194949  14.616  14.823   1.082
64370SOL    HW294950  14.741  14.851   1.002
64371SOL     OW94951  13.276   1.092   1.480
64371SOL    HW194952  13.276   1.032   1.554
64371SOL    HW294953  13.344   1.059   1.422
64372SOL     OW94954   1.929  11.943   2.123
64372SOL    HW194955   1.927  11.877   2.193
64372SOL    HW294956   2.004  11.919   2.069
64373SOL     OW94957  14.408  11.098  10.321
64373SOL    HW194958  14.332  11.041  10.328
64373SOL    HW294959  14.376  11.184  10.346
64374SOL     OW94960   6.880   1.936  12.135
64374SOL    HW194961   6.872   2.009  12.074
64374SOL    HW294962   6.866   1.858  12.082
64375SOL     OW94963   4.435  13.582   1.641
64375SOL    HW194964   4.358  13.526   1.643
64375SOL    HW294965   4.452  13.596   1.548
64376SOL     OW94966   6.099   2.280  14.049
64376SOL    HW194967   6.181   2.268  14.002
64376SOL    HW294968   6.078   2.373  14.037
64377SOL     OW94969  11.864  13.678   7.103
64377SOL    HW194970  11.926  13.613   7.137
64377SOL    HW294971  11.896  13.762   7.137
64378SOL     OW94972   0.763   3.760   4.805
64378SOL    HW194973   0.669   3.758   4.825
64378SOL    HW294974   0.776   3.843   4.759
64379SOL     OW94975  13.774   5.028   0.062
64379SOL    HW194976  13.732   5.087  14.879
64379SOL    HW294977  13.801   4.953   0.009
64380SOL     OW94978   8.860   0.641  14.548
64380SOL    HW194979   8.774   0.655  14.508
64380SOL    HW294980   8.921   0.688  14.493
64381SOL     OW94981  10.489   4.318  12.854
64381SOL    HW194982  10.553   4.321  12.783
64381SOL    HW294983  10.539   4.290  12.931
64382SOL     OW94984  12.730  14.676   8.114
64382SOL    HW194985  12.730  14.697   8.207
64382SOL    HW294986  12.765  14.753   8.071
64383SOL     OW94987  13.443  11.415  10.367
64383SOL    HW194988  13.384  11.347  10.333
64383SOL    HW294989  13.454  11.476  10.294
64384SOL     OW94990   7.177  13.502   6.219
64384SOL    HW194991   7.197  13.545   6.136
64384SOL    HW294992   7.137  13.570   6.273
64385SOL     OW94993  14.477   0.560   9.255
64385SOL    HW194994  14.438   0.474   9.271
64385SOL    HW294995  14.455   0.580   9.164
64386SOL     OW94996   4.747   7.015   1.697
64386SOL    HW194997   4.829   6.965   1.698
64386SOL    HW294998   4.697   6.977   1.625
64387SOL     OW94999  12.452   8.423  11.312
64387SOL    HW195000  12.437   8.501  11.364
64387SOL    HW295001  12.481   8.456  11.227
64388SOL     OW95002   0.464  13.237  10.076
64388SOL    HW195003   0.513  13.172  10.126
64388SOL    HW295004   0.407  13.184  10.019
64389SOL     OW95005   5.194   3.229   0.524
64389SOL    HW195006   5.134   3.279   0.468
64389SOL    HW295007   5.141   3.205   0.600
64390SOL     OW95008   4.160  12.847  10.800
64390SOL    HW195009   4.233  12.795  10.834
64390SOL    HW295010   4.143  12.811  10.713
64391SOL     OW95011   8.600   1.893  13.158
64391SOL    HW195012   8.681   1.878  13.109
64391SOL    HW295013   8.584   1.987  13.151
64392SOL     OW95014   5.829  10.443  12.452
64392SOL    HW195015   5.846  10.349  12.464
64392SOL    HW295016   5.737  10.448  12.426
64393SOL     OW95017   9.419   2.470  13.213
64393SOL    HW195018   9.375   2.399  13.165
64393SOL    HW295019   9.478   2.509  13.149
64394SOL     OW95020   9.818   5.799   3.154
64394SOL    HW195021   9.789   5.846   3.232
64394SOL    HW295022   9.742   5.798   3.096
64395SOL     OW95023  11.995   7.946  11.918
64395SOL    HW195024  12.038   8.023  11.882
64395SOL    HW295025  11.913   7.938  11.870
64396SOL     OW95026   8.649   3.658   8.429
64396SOL    HW195027   8.715   3.705   8.377
64396SOL    HW295028   8.576   3.644   8.368
64397SOL     OW95029   6.137  12.700  13.834
64397SOL    HW195030   6.152  12.636  13.765
64397SOL    HW295031   6.197  12.675  13.904
64398SOL     OW95032  12.673   2.435   2.121
64398SOL    HW195033  12.708   2.422   2.210
64398SOL    HW295034  12.740   2.399   2.064
64399SOL     OW95035   6.400  14.126   5.234
64399SOL    HW195036   6.338  14.143   5.305
64399SOL    HW295037   6.485  14.153   5.269
64400SOL     OW95038   3.978   1.099   0.407
64400SOL    HW195039   4.057   1.049   0.428
64400SOL    HW295040   3.912   1.066   0.468
64401SOL     OW95041   9.465   3.158  12.721
64401SOL    HW195042   9.495   3.224  12.783
64401SOL    HW295043   9.544   3.107  12.701
64402SOL     OW95044  11.009   7.740   0.883
64402SOL    HW195045  11.094   7.767   0.849
64402SOL    HW295046  11.027   7.657   0.927
64403SOL     OW95047   8.736   3.587   9.435
64403SOL    HW195048   8.744   3.629   9.520
64403SOL    HW295049   8.740   3.493   9.454
64404SOL     OW95050  14.588   3.136   4.267
64404SOL    HW195051  14.657   3.188   4.226
64404SOL    HW295052  14.605   3.047   4.237
64405SOL     OW95053   6.974   0.904  12.122
64405SOL    HW195054   6.916   0.914  12.198
64405SOL    HW295055   7.041   0.842  12.151
64406SOL     OW95056   4.295   9.235  11.553
64406SOL    HW195057   4.359   9.210  11.620
64406SOL    HW295058   4.343   9.226  11.470
64407SOL     OW95059   3.215  14.504   6.401
64407SOL    HW195060   3.253  14.575   6.452
64407SOL    HW295061   3.246  14.520   6.312
64408SOL     OW95062   9.621   5.725   0.686
64408SOL    HW195063   9.676   5.801   0.668
64408SOL    HW295064   9.649   5.696   0.773
64409SOL     OW95065   3.776   2.402   7.309
64409SOL    HW195066   3.755   2.382   7.400
64409SOL    HW295067   3.690   2.405   7.265
64410SOL     OW95068  13.294   2.747  10.231
64410SOL    HW195069  13.225   2.812  10.218
64410SOL    HW295070  13.371   2.785  10.187
64411SOL     OW95071   6.426   6.967  10.940
64411SOL    HW195072   6.456   6.895  10.997
64411SOL    HW295073   6.349   6.932  10.896
64412SOL     OW95074  14.357   1.642   5.905
64412SOL    HW195075  14.401   1.727   5.897
64412SOL    HW295076  14.327   1.639   5.996
64413SOL     OW95077  13.519   6.237   5.660
64413SOL    HW195078  13.505   6.145   5.681
64413SOL    HW295079  13.572   6.235   5.580
64414SOL     OW95080   9.097   7.615   6.761
64414SOL    HW195081   9.099   7.546   6.828
64414SOL    HW295082   9.155   7.583   6.692
64415SOL     OW95083   2.728   7.439   1.076
64415SOL    HW195084   2.651   7.487   1.045
64415SOL    HW295085   2.758   7.489   1.153
64416SOL     OW95086  14.670   4.718  12.844
64416SOL    HW195087  14.763   4.715  12.866
64416SOL    HW295088  14.639   4.629  12.858
64417SOL     OW95089   0.043   4.592   4.680
64417SOL    HW195090   0.071   4.530   4.613
64417SOL    HW295091   0.044   4.677   4.637
64418SOL     OW95092   6.785   7.210  14.040
64418SOL    HW195093   6.815   7.224  13.950
64418SOL    HW295094   6.748   7.122  14.039
64419SOL     OW95095   3.678   9.991   5.123
64419SOL    HW195096   3.641  10.071   5.161
64419SOL    HW295097   3.773  10.003   5.130
64420SOL     OW95098   4.253   8.114   3.031
64420SOL    HW195099   4.231   8.045   3.094
64420SOL    HW295100   4.176   8.122   2.976
64421SOL     OW95101  14.339   6.198   3.753
64421SOL    HW195102  14.306   6.169   3.668
64421SOL    HW295103  14.377   6.120   3.792
64422SOL     OW95104   7.229  10.878   1.101
64422SOL    HW195105   7.254  10.888   1.193
64422SOL    HW295106   7.243  10.965   1.063
64423SOL     OW95107  12.514   4.050   9.427
64423SOL    HW195108  12.540   4.099   9.505
64423SOL    HW295109  12.420   4.037   9.436
64424SOL     OW95110   9.348   2.686   3.592
64424SOL    HW195111   9.330   2.658   3.681
64424SOL    HW295112   9.365   2.780   3.599
64425SOL     OW95113   7.234  13.702  10.053
64425SOL    HW195114   7.249  13.646   9.977
64425SOL    HW295115   7.253  13.791  10.022
64426SOL     OW95116   0.935  10.527   4.912
64426SOL    HW195117   0.922  10.596   4.847
64426SOL    HW295118   0.880  10.454   4.881
64427SOL     OW95119   4.547   0.856   9.802
64427SOL    HW195120   4.527   0.807   9.881
64427SOL    HW295121   4.533   0.793   9.731
64428SOL     OW95122   6.409   4.225  12.855
64428SOL    HW195123   6.385   4.315  12.833
64428SOL    HW295124   6.483   4.205  12.798
64429SOL     OW95125   7.198   6.398  11.622
64429SOL    HW195126   7.210   6.401  11.527
64429SOL    HW295127   7.113   6.438  11.637
64430SOL     OW95128   1.851  13.727  13.857
64430SOL    HW195129   1.827  13.634  13.865
64430SOL    HW295130   1.834  13.749  13.766
64431SOL     OW95131  11.374  13.314  10.740
64431SOL    HW195132  11.406  13.380  10.802
64431SOL    HW295133  11.437  13.243  10.746
64432SOL     OW95134   0.948   1.060   9.616
64432SOL    HW195135   0.871   1.104   9.651
64432SOL    HW295136   0.914   0.982   9.572
64433SOL     OW95137   1.024  12.227  12.059
64433SOL    HW195138   1.067  12.248  12.142
64433SOL    HW295139   1.096  12.199  12.002
64434SOL     OW95140   2.065   5.637  10.109
64434SOL    HW195141   2.061   5.713  10.168
64434SOL    HW295142   2.131   5.660  10.044
64435SOL     OW95143   0.837  14.337  11.531
64435SOL    HW195144   0.780  14.325  11.606
64435SOL    HW295145   0.786  14.306  11.456
64436SOL     OW95146   5.091   1.764  10.757
64436SOL    HW195147   5.060   1.834  10.699
64436SOL    HW295148   5.114   1.692  10.697
64437SOL     OW95149  11.858   6.921  10.684
64437SOL    HW195150  11.877   6.948  10.774
64437SOL    HW295151  11.848   7.004  10.637
64438SOL     OW95152   9.735   8.745  10.405
64438SOL    HW195153   9.806   8.684  10.421
64438SOL    HW295154   9.766   8.800  10.332
64439SOL     OW95155   6.482   9.133  11.662
64439SOL    HW195156   6.560   9.164  11.707
64439SOL    HW295157   6.495   9.159  11.571
64440SOL     OW95158   0.024   4.924   6.268
64440SOL    HW195159  14.844   4.851   6.284
64440SOL    HW295160   0.035   4.927   6.173
64441SOL     OW95161   2.658   8.342  11.120
64441SOL    HW195162   2.680   8.403  11.191
64441SOL    HW295163   2.719   8.269  11.131
64442SOL     OW95164   3.067   2.560   1.752
64442SOL    HW195165   3.125   2.538   1.679
64442SOL    HW295166   3.044   2.652   1.737
64443SOL     OW95167  13.638   3.313  14.753
64443SOL    HW195168  13.639   3.388  14.692
64443SOL    HW295169  13.571   3.335  14.817
64444SOL     OW95170   8.731  11.410   8.581
64444SOL    HW195171   8.800  11.383   8.641
64444SOL    HW295172   8.739  11.350   8.507
64445SOL     OW95173   9.436   0.585  14.593
64445SOL    HW195174   9.427   0.544  14.507
64445SOL    HW295175   9.435   0.679  14.575
64446SOL     OW95176   6.295  11.237   3.036
64446SOL    HW195177   6.312  11.290   2.958
64446SOL    HW295178   6.357  11.164   3.029
64447SOL     OW95179   5.774   3.180   9.223
64447SOL    HW195180   5.838   3.176   9.294
64447SOL    HW295181   5.699   3.225   9.260
64448SOL     OW95182   8.698   5.609   9.701
64448SOL    HW195183   8.728   5.553   9.630
64448SOL    HW295184   8.663   5.549   9.767
64449SOL     OW95185  10.650  12.543   9.707
64449SOL    HW195186  10.693  12.460   9.729
64449SOL    HW295187  10.558  12.527   9.728
64450SOL     OW95188   1.996  13.017   1.117
64450SOL    HW195189   2.034  13.105   1.119
64450SOL    HW295190   2.068  12.961   1.088
64451SOL     OW95191   7.807  12.976   2.049
64451SOL    HW195192   7.819  12.906   2.114
64451SOL    HW295193   7.858  13.049   2.084
64452SOL     OW95194   5.697   4.357  13.902
64452SOL    HW195195   5.660   4.296  13.966
64452SOL    HW295196   5.622   4.404  13.866
64453SOL     OW95197  13.766   6.380  10.933
64453SOL    HW195198  13.799   6.324  10.862
64453SOL    HW295199  13.686   6.418  10.897
64454SOL     OW95200   2.739  10.629   9.957
64454SOL    HW195201   2.804  10.574   9.913
64454SOL    HW295202   2.669  10.639   9.892
64455SOL     OW95203  11.705  14.284   0.660
64455SOL    HW195204  11.683  14.194   0.639
64455SOL    HW295205  11.657  14.336   0.595
64456SOL     OW95206  13.241   8.710  13.976
64456SOL    HW195207  13.254   8.620  13.948
64456SOL    HW295208  13.314   8.728  14.036
64457SOL     OW95209  10.730   1.105  14.454
64457SOL    HW195210  10.804   1.106  14.393
64457SOL    HW295211  10.770   1.104  14.541
64458SOL     OW95212  12.174   5.825  12.167
64458SOL    HW195213  12.213   5.913  12.170
64458SOL    HW295214  12.244   5.766  12.194
64459SOL     OW95215   8.956  11.963  12.782
64459SOL    HW195216   9.021  11.893  12.777
64459SOL    HW295217   8.902  11.941  12.857
64460SOL     OW95218  11.621  10.765  14.073
64460SOL    HW195219  11.560  10.806  14.011
64460SOL    HW295220  11.569  10.751  14.152
64461SOL     OW95221  11.569  13.170  13.801
64461SOL    HW195222  11.662  13.147  13.791
64461SOL    HW295223  11.540  13.190  13.712
64462SOL     OW95224   9.482  14.560   1.870
64462SOL    HW195225   9.570  14.533   1.844
64462SOL    HW295226   9.455  14.623   1.803
64463SOL     OW95227   5.605   8.875   4.448
64463SOL    HW195228   5.635   8.888   4.358
64463SOL    HW295229   5.685   8.860   4.498
64464SOL     OW95230  13.264   0.078  12.423
64464SOL    HW195231  13.349   0.034  12.427
64464SOL    HW295232  13.228   0.051  12.338
64465SOL     OW95233   2.722  12.322   7.244
64465SOL    HW195234   2.671  12.310   7.164
64465SOL    HW295235   2.775  12.243   7.251
64466SOL     OW95236  12.674   4.907  12.633
64466SOL    HW195237  12.638   4.929  12.547
64466SOL    HW295238  12.717   4.987  12.662
64467SOL     OW95239  13.571   5.529   6.491
64467SOL    HW195240  13.579   5.438   6.520
64467SOL    HW295241  13.645   5.543   6.433
64468SOL     OW95242   8.850   2.253   4.190
64468SOL    HW195243   8.783   2.320   4.177
64468SOL    HW295244   8.818   2.178   4.140
64469SOL     OW95245   4.648   1.015  12.113
64469SOL    HW195246   4.715   1.031  12.179
64469SOL    HW295247   4.605   0.935  12.141
64470SOL     OW95248   5.212   5.032   4.378
64470SOL    HW195249   5.126   5.017   4.417
64470SOL    HW295250   5.202   5.007   4.286
64471SOL     OW95251  12.635  12.688   6.515
64471SOL    HW195252  12.560  12.646   6.556
64471SOL    HW295253  12.665  12.751   6.580
64472SOL     OW95254   9.290   2.532  10.794
64472SOL    HW195255   9.323   2.449  10.759
64472SOL    HW295256   9.197   2.516  10.808
64473SOL     OW95257   0.155   6.137   9.777
64473SOL    HW195258   0.067   6.152   9.742
64473SOL    HW295259   0.182   6.054   9.738
64474SOL     OW95260   7.107  12.494   0.001
64474SOL    HW195261   7.023  12.477   0.045
64474SOL    HW295262   7.087  12.564  14.818
64475SOL     OW95263   6.373  11.997   2.892
64475SOL    HW195264   6.336  12.074   2.847
64475SOL    HW295265   6.297  11.954   2.931
64476SOL     OW95266   8.368  12.465   7.564
64476SOL    HW195267   8.307  12.392   7.550
64476SOL    HW295268   8.353  12.493   7.654
64477SOL     OW95269  12.880  13.432   6.506
64477SOL    HW195270  12.948  13.451   6.441
64477SOL    HW295271  12.898  13.342   6.533
64478SOL     OW95272  12.564   3.058   9.087
64478SOL    HW195273  12.499   3.044   9.156
64478SOL    HW295274  12.593   3.149   9.099
64479SOL     OW95275   2.311   8.444   0.048
64479SOL    HW195276   2.347   8.515  14.873
64479SOL    HW295277   2.221   8.470   0.066
64480SOL     OW95278   8.770  13.737   1.119
64480SOL    HW195279   8.706  13.676   1.081
64480SOL    HW295280   8.851  13.687   1.126
64481SOL     OW95281   0.361  12.843  10.377
64481SOL    HW195282   0.316  12.763  10.349
64481SOL    HW295283   0.427  12.813  10.440
64482SOL     OW95284  14.249   8.365   1.319
64482SOL    HW195285  14.185   8.428   1.353
64482SOL    HW295286  14.331   8.388   1.362
64483SOL     OW95287   5.689   9.842   3.635
64483SOL    HW195288   5.760   9.902   3.610
64483SOL    HW295289   5.627   9.898   3.682
64484SOL     OW95290  13.726   9.972   3.894
64484SOL    HW195291  13.814   9.934   3.885
64484SOL    HW295292  13.730  10.020   3.976
64485SOL     OW95293   6.552   2.769  12.281
64485SOL    HW195294   6.471   2.810  12.310
64485SOL    HW295295   6.525   2.709  12.211
64486SOL     OW95296   6.738  12.511   1.813
64486SOL    HW195297   6.785  12.566   1.876
64486SOL    HW295298   6.691  12.573   1.758
64487SOL     OW95299   8.496   7.302  11.420
64487SOL    HW195300   8.543   7.219  11.406
64487SOL    HW295301   8.560   7.358  11.464
64488SOL     OW95302   4.178   0.918   1.597
64488SOL    HW195303   4.131   0.901   1.515
64488SOL    HW295304   4.172   1.013   1.609
64489SOL     OW95305   5.226  14.219  13.926
64489SOL    HW195306   5.176  14.141  13.950
64489SOL    HW295307   5.257  14.202  13.837
64490SOL     OW95308  10.671   4.685   0.381
64490SOL    HW195309  10.728   4.677   0.305
64490SOL    HW295310  10.616   4.761   0.361
64491SOL     OW95311   6.980   7.064  14.657
64491SOL    HW195312   7.036   7.129  14.616
64491SOL    HW295313   6.996   7.075  14.751
64492SOL     OW95314  13.089  10.248   3.220
64492SOL    HW195315  13.051  10.237   3.307
64492SOL    HW295316  13.016  10.277   3.165
64493SOL     OW95317  13.845   5.686  13.151
64493SOL    HW195318  13.886   5.638  13.079
64493SOL    HW295319  13.910   5.684  13.222
64494SOL     OW95320   9.080   0.800   2.775
64494SOL    HW195321   9.172   0.773   2.776
64494SOL    HW295322   9.082   0.892   2.750
64495SOL     OW95323  12.593   8.084  10.175
64495SOL    HW195324  12.645   8.020  10.224
64495SOL    HW295325  12.530   8.117  10.239
64496SOL     OW95326   7.912   0.326   7.609
64496SOL    HW195327   7.920   0.232   7.629
64496SOL    HW295328   7.869   0.329   7.523
64497SOL     OW95329  10.876  14.385   6.280
64497SOL    HW195330  10.874  14.329   6.202
64497SOL    HW295331  10.857  14.473   6.247
64498SOL     OW95332  11.153  10.831   2.901
64498SOL    HW195333  11.106  10.773   2.842
64498SOL    HW295334  11.102  10.912   2.901
64499SOL     OW95335   8.596   3.150   3.740
64499SOL    HW195336   8.541   3.072   3.733
64499SOL    HW295337   8.682   3.116   3.767
64500SOL     OW95338  11.156  13.483   9.347
64500SOL    HW195339  11.123  13.452   9.431
64500SOL    HW295340  11.235  13.533   9.369
64501SOL     OW95341   1.373   1.052   8.199
64501SOL    HW195342   1.452   1.105   8.184
64501SOL    HW295343   1.324   1.100   8.265
64502SOL     OW95344  10.262   4.852   4.314
64502SOL    HW195345  10.200   4.839   4.386
64502SOL    HW295346  10.320   4.922   4.344
64503SOL     OW95347   7.273   2.288   2.383
64503SOL    HW195348   7.233   2.317   2.465
64503SOL    HW295349   7.272   2.366   2.328
64504SOL     OW95350   4.680  10.111  12.545
64504SOL    HW195351   4.715  10.033  12.589
64504SOL    HW295352   4.662  10.173  12.616
64505SOL     OW95353   3.235   6.970  10.206
64505SOL    HW195354   3.296   7.036  10.241
64505SOL    HW295355   3.163   7.022  10.169
64506SOL     OW95356   9.624   7.538   5.950
64506SOL    HW195357   9.718   7.544   5.966
64506SOL    HW295358   9.603   7.446   5.964
64507SOL     OW95359  13.435   1.838   8.736
64507SOL    HW195360  13.489   1.897   8.789
64507SOL    HW295361  13.438   1.876   8.648
64508SOL     OW95362   7.183   0.104  14.831
64508SOL    HW195363   7.116   0.071   0.012
64508SOL    HW295364   7.265   0.067  14.865
64509SOL     OW95365  10.813  13.299   9.659
64509SOL    HW195366  10.727  13.275   9.693
64509SOL    HW295367  10.820  13.252   9.576
64510SOL     OW95368   2.427  10.625  10.122
64510SOL    HW195369   2.411  10.638  10.029
64510SOL    HW295370   2.494  10.689  10.144
64511SOL     OW95371   1.208   9.282   5.525
64511SOL    HW195372   1.217   9.369   5.486
64511SOL    HW295373   1.115   9.261   5.514
64512SOL     OW95374   9.834   5.261   0.923
64512SOL    HW195375   9.794   5.344   0.948
64512SOL    HW295376   9.823   5.204   1.000
64513SOL     OW95377   8.955  11.952   5.795
64513SOL    HW195378   8.954  11.861   5.827
64513SOL    HW295379   8.910  11.948   5.711
64514SOL     OW95380  11.024   3.152  12.760
64514SOL    HW195381  10.961   3.136  12.690
64514SOL    HW295382  11.096   3.091  12.742
64515SOL     OW95383  12.831  10.516  10.461
64515SOL    HW195384  12.795  10.554  10.382
64515SOL    HW295385  12.755  10.489  10.512
64516SOL     OW95386   0.402  11.136   0.191
64516SOL    HW195387   0.356  11.182   0.120
64516SOL    HW295388   0.407  11.201   0.261
64517SOL     OW95389   7.209   8.098  14.586
64517SOL    HW195390   7.143   8.073  14.650
64517SOL    HW295391   7.180   8.184  14.554
64518SOL     OW95392   9.045   1.071   6.337
64518SOL    HW195393   9.050   1.052   6.431
64518SOL    HW295394   9.047   1.166   6.332
64519SOL     OW95395  13.790   0.188  11.158
64519SOL    HW195396  13.856   0.195  11.089
64519SOL    HW295397  13.708   0.214  11.116
64520SOL     OW95398   9.681   1.459   9.613
64520SOL    HW195399   9.668   1.368   9.586
64520SOL    HW295400   9.678   1.509   9.532
64521SOL     OW95401   7.201  10.936  14.047
64521SOL    HW195402   7.214  11.028  14.023
64521SOL    HW295403   7.181  10.938  14.141
64522SOL     OW95404   5.651  12.306  12.338
64522SOL    HW195405   5.710  12.238  12.368
64522SOL    HW295406   5.702  12.357  12.276
64523SOL     OW95407   5.541   5.318   0.448
64523SOL    HW195408   5.534   5.414   0.448
64523SOL    HW295409   5.616   5.300   0.390
64524SOL     OW95410  12.827   0.568  13.656
64524SOL    HW195411  12.922   0.563  13.671
64524SOL    HW295412  12.793   0.485  13.688
64525SOL     OW95413   3.526   4.552  11.551
64525SOL    HW195414   3.470   4.572  11.477
64525SOL    HW295415   3.537   4.457  11.548
64526SOL     OW95416   5.908   6.112   0.416
64526SOL    HW195417   5.932   6.021   0.437
64526SOL    HW295418   5.943   6.127   0.329
64527SOL     OW95419  11.790  14.841   4.890
64527SOL    HW195420  11.874  14.860   4.848
64527SOL    HW295421  11.799  14.878   4.978
64528SOL     OW95422   7.910  14.576  10.557
64528SOL    HW195423   7.842  14.595  10.621
64528SOL    HW295424   7.866  14.525  10.488
64529SOL     OW95425   2.651  14.123  14.793
64529SOL    HW195426   2.594  14.177  14.739
64529SOL    HW295427   2.623  14.140   0.004
64530SOL     OW95428  12.308   8.333   4.579
64530SOL    HW195429  12.402   8.347   4.590
64530SOL    HW295430  12.267   8.395   4.638
64531SOL     OW95431   6.699  10.189   5.982
64531SOL    HW195432   6.706  10.136   5.903
64531SOL    HW295433   6.607  10.185   6.006
64532SOL     OW95434  13.493   9.301   7.160
64532SOL    HW195435  13.514   9.385   7.202
64532SOL    HW295436  13.466   9.244   7.232
64533SOL     OW95437   2.991  12.648   9.656
64533SOL    HW195438   3.055  12.621   9.590
64533SOL    HW295439   2.909  12.608   9.627
64534SOL     OW95440  13.317   7.131   9.866
64534SOL    HW195441  13.234   7.178   9.858
64534SOL    HW295442  13.373   7.189   9.918
64535SOL     OW95443   7.612  11.798   1.375
64535SOL    HW195444   7.566  11.790   1.291
64535SOL    HW295445   7.549  11.841   1.433
64536SOL     OW95446   0.652   8.853   4.254
64536SOL    HW195447   0.572   8.879   4.208
64536SOL    HW295448   0.720   8.910   4.218
64537SOL     OW95449   4.900   2.801  11.671
64537SOL    HW195450   4.992   2.786  11.651
64537SOL    HW295451   4.871   2.720  11.713
64538SOL     OW95452  10.092  14.535   0.174
64538SOL    HW195453  10.046  14.594   0.115
64538SOL    HW295454  10.044  14.541   0.256
64539SOL     OW95455   5.474  14.182   0.324
64539SOL    HW195456   5.380  14.199   0.328
64539SOL    HW295457   5.496  14.192   0.232
64540SOL     OW95458  14.076  14.140   0.075
64540SOL    HW195459  13.997  14.170   0.031
64540SOL    HW295460  14.046  14.073   0.136
64541SOL     OW95461   4.869  14.111   2.268
64541SOL    HW195462   4.844  14.039   2.326
64541SOL    HW295463   4.902  14.179   2.326
64542SOL     OW95464   1.158  10.669  10.548
64542SOL    HW195465   1.111  10.618  10.614
64542SOL    HW295466   1.246  10.631  10.545
64543SOL     OW95467   9.885   0.776   7.291
64543SOL    HW195468   9.975   0.753   7.267
64543SOL    HW295469   9.887   0.785   7.386
64544SOL     OW95470   8.705   1.599   6.659
64544SOL    HW195471   8.726   1.630   6.571
64544SOL    HW295472   8.732   1.507   6.660
64545SOL     OW95473  14.433  11.073   7.756
64545SOL    HW195474  14.389  11.084   7.841
64545SOL    HW295475  14.524  11.055   7.779
64546SOL     OW95476   2.808   9.457   3.889
64546SOL    HW195477   2.847   9.541   3.911
64546SOL    HW295478   2.882   9.400   3.868
64547SOL     OW95479   7.944  10.169   1.145
64547SOL    HW195480   7.968  10.076   1.143
64547SOL    HW295481   7.965  10.196   1.235
64548SOL     OW95482  13.355   3.851   3.934
64548SOL    HW195483  13.436   3.882   3.892
64548SOL    HW295484  13.285   3.883   3.877
64549SOL     OW95485   7.291  11.958   9.170
64549SOL    HW195486   7.199  11.933   9.160
64549SOL    HW295487   7.297  11.993   9.259
64550SOL     OW95488   9.139   1.805  12.586
64550SOL    HW195489   9.113   1.827  12.676
64550SOL    HW295490   9.057   1.803  12.537
64551SOL     OW95491   2.075  13.129   0.664
64551SOL    HW195492   2.138  13.058   0.652
64551SOL    HW295493   2.046  13.119   0.755
64552SOL     OW95494   9.106   5.453   0.345
64552SOL    HW195495   9.032   5.399   0.316
64552SOL    HW295496   9.174   5.390   0.368
64553SOL     OW95497   3.689  10.702  14.863
64553SOL    HW195498   3.607  10.718   0.031
64553SOL    HW295499   3.750  10.765   0.021
64554SOL     OW95500  14.029   1.933   7.303
64554SOL    HW195501  14.016   1.951   7.396
64554SOL    HW295502  13.940   1.932   7.267
64555SOL     OW95503  11.405   8.083  10.308
64555SOL    HW195504  11.377   8.171  10.284
64555SOL    HW295505  11.323   8.036  10.323
64556SOL     OW95506   0.457  13.425  14.483
64556SOL    HW195507   0.474  13.359  14.551
64556SOL    HW295508   0.488  13.385  14.402
64557SOL     OW95509   5.215  14.008   9.317
64557SOL    HW195510   5.250  14.070   9.253
64557SOL    HW295511   5.242  13.922   9.284
64558SOL     OW95512   4.861   2.492   3.956
64558SOL    HW195513   4.910   2.456   4.029
64558SOL    HW295514   4.782   2.438   3.950
64559SOL     OW95515   9.716  12.524   7.110
64559SOL    HW195516   9.751  12.437   7.094
64559SOL    HW295517   9.631  12.509   7.153
64560SOL     OW95518   3.053  14.041   1.928
64560SOL    HW195519   3.063  14.075   2.017
64560SOL    HW295520   3.000  13.962   1.937
64561SOL     OW95521   2.290   4.314   7.851
64561SOL    HW195522   2.362   4.352   7.902
64561SOL    HW295523   2.289   4.366   7.770
64562SOL     OW95524   9.205   4.956   9.231
64562SOL    HW195525   9.236   5.038   9.193
64562SOL    HW295526   9.280   4.897   9.222
64563SOL     OW95527   1.066   5.949  14.361
64563SOL    HW195528   0.976   5.970  14.335
64563SOL    HW295529   1.088   6.018  14.424
64564SOL     OW95530  12.575   8.063  14.664
64564SOL    HW195531  12.534   8.006  14.599
64564SOL    HW295532  12.635   8.005  14.712
64565SOL     OW95533   0.231  11.173   4.693
64565SOL    HW195534   0.168  11.169   4.621
64565SOL    HW295535   0.205  11.103   4.752
64566SOL     OW95536   5.143  13.418   9.887
64566SOL    HW195537   5.142  13.508   9.855
64566SOL    HW295538   5.056  13.404   9.923
64567SOL     OW95539   3.057   4.753   0.348
64567SOL    HW195540   3.003   4.762   0.426
64567SOL    HW295541   3.020   4.815   0.285
64568SOL     OW95542   3.592   7.552   1.523
64568SOL    HW195543   3.576   7.466   1.485
64568SOL    HW295544   3.686   7.553   1.542
64569SOL     OW95545  11.511  11.371   3.321
64569SOL    HW195546  11.484  11.401   3.408
64569SOL    HW295547  11.455  11.295   3.303
64570SOL     OW95548   3.209   9.953   8.696
64570SOL    HW195549   3.137   9.975   8.756
64570SOL    HW295550   3.202  10.017   8.626
64571SOL     OW95551   3.453   4.375   6.130
64571SOL    HW195552   3.538   4.411   6.103
64571SOL    HW295553   3.474   4.288   6.163
64572SOL     OW95554   8.790   2.691   0.558
64572SOL    HW195555   8.772   2.602   0.528
64572SOL    HW295556   8.746   2.697   0.643
64573SOL     OW95557   7.701   3.544   6.003
64573SOL    HW195558   7.709   3.639   5.992
64573SOL    HW295559   7.608   3.526   5.991
64574SOL     OW95560  12.804   5.326  10.978
64574SOL    HW195561  12.761   5.305  11.061
64574SOL    HW295562  12.738   5.308  10.911
64575SOL     OW95563  13.881   4.615   6.161
64575SOL    HW195564  13.935   4.682   6.119
64575SOL    HW295565  13.904   4.620   6.254
64576SOL     OW95566  13.497   0.731  13.654
64576SOL    HW195567  13.402   0.733  13.639
64576SOL    HW295568  13.525   0.821  13.636
64577SOL     OW95569  12.826   9.085  14.687
64577SOL    HW195570  12.920   9.072  14.700
64577SOL    HW295571  12.785   9.020  14.743
64578SOL     OW95572  11.578  12.040   8.187
64578SOL    HW195573  11.658  12.000   8.221
64578SOL    HW295574  11.508  11.984   8.220
64579SOL     OW95575   6.118   8.549  13.031
64579SOL    HW195576   6.184   8.481  13.019
64579SOL    HW295577   6.119   8.568  13.125
64580SOL     OW95578  12.294  12.392   8.606
64580SOL    HW195579  12.368  12.373   8.548
64580SOL    HW295580  12.294  12.321   8.670
64581SOL     OW95581   1.337  12.726   0.173
64581SOL    HW195582   1.324  12.786   0.247
64581SOL    HW295583   1.302  12.773   0.098
64582SOL     OW95584   8.914   5.900   3.865
64582SOL    HW195585   8.922   5.821   3.811
64582SOL    HW295586   8.969   5.883   3.941
64583SOL     OW95587   7.712   6.974   9.375
64583SOL    HW195588   7.686   6.907   9.312
64583SOL    HW295589   7.717   6.928   9.459
64584SOL     OW95590   6.392   9.713   6.092
64584SOL    HW195591   6.399   9.790   6.149
64584SOL    HW295592   6.483   9.684   6.080
64585SOL     OW95593  13.980   0.906   4.910
64585SOL    HW195594  13.894   0.940   4.885
64585SOL    HW295595  14.038   0.931   4.838
64586SOL     OW95596  11.820   2.095  13.903
64586SOL    HW195597  11.778   2.077  13.987
64586SOL    HW295598  11.749   2.128  13.848
64587SOL     OW95599   4.394   9.430  10.836
64587SOL    HW195600   4.428   9.509  10.879
64587SOL    HW295601   4.299   9.435  10.847
64588SOL     OW95602  13.896   1.497   0.824
64588SOL    HW195603  13.904   1.494   0.728
64588SOL    HW295604  13.980   1.464   0.856
64589SOL     OW95605  11.480   6.273   1.225
64589SOL    HW195606  11.444   6.252   1.312
64589SOL    HW295607  11.459   6.365   1.212
64590SOL     OW95608  13.824   1.403   5.869
64590SOL    HW195609  13.820   1.492   5.904
64590SOL    HW295610  13.918   1.384   5.865
64591SOL     OW95611   5.013   9.855  12.372
64591SOL    HW195612   4.988   9.911  12.445
64591SOL    HW295613   4.931   9.818  12.341
64592SOL     OW95614   0.198   4.498  11.264
64592SOL    HW195615   0.188   4.457  11.350
64592SOL    HW295616   0.266   4.446  11.220
64593SOL     OW95617   1.559   8.380  12.418
64593SOL    HW195618   1.518   8.452  12.467
64593SOL    HW295619   1.553   8.407  12.327
64594SOL     OW95620   2.841   2.601   6.555
64594SOL    HW195621   2.770   2.590   6.492
64594SOL    HW295622   2.919   2.612   6.501
64595SOL     OW95623   8.706   3.372   6.590
64595SOL    HW195624   8.690   3.361   6.684
64595SOL    HW295625   8.795   3.407   6.584
64596SOL     OW95626  13.484   4.260   5.518
64596SOL    HW195627  13.563   4.277   5.468
64596SOL    HW295628  13.450   4.347   5.541
64597SOL     OW95629   6.220   8.911   9.397
64597SOL    HW195630   6.246   8.968   9.469
64597SOL    HW295631   6.145   8.955   9.357
64598SOL     OW95632   6.472  12.555   2.719
64598SOL    HW195633   6.540  12.611   2.757
64598SOL    HW295634   6.394  12.572   2.773
64599SOL     OW95635   8.599   0.223  12.729
64599SOL    HW195636   8.524   0.188  12.681
64599SOL    HW295637   8.675   0.194  12.679
64600SOL     OW95638  14.284   7.608   1.702
64600SOL    HW195639  14.273   7.569   1.615
64600SOL    HW295640  14.336   7.687   1.686
64601SOL     OW95641   9.293  10.409   1.601
64601SOL    HW195642   9.219  10.452   1.559
64601SOL    HW295643   9.316  10.465   1.675
64602SOL     OW95644   4.128   7.612  13.894
64602SOL    HW195645   4.048   7.565  13.918
64602SOL    HW295646   4.196   7.574  13.950
64603SOL     OW95647  14.420  14.307   9.800
64603SOL    HW195648  14.442  14.313   9.707
64603SOL    HW295649  14.411  14.398   9.828
64604SOL     OW95650   2.960   5.598  12.513
64604SOL    HW195651   2.906   5.671  12.482
64604SOL    HW295652   2.995   5.559  12.433
64605SOL     OW95653   3.543   1.589   4.705
64605SOL    HW195654   3.614   1.652   4.697
64605SOL    HW295655   3.464   1.642   4.712
64606SOL     OW95656  13.913   6.179  14.012
64606SOL    HW195657  13.976   6.108  14.005
64606SOL    HW295658  13.965   6.256  14.032
64607SOL     OW95659   3.386  14.218   7.233
64607SOL    HW195660   3.314  14.175   7.280
64607SOL    HW295661   3.350  14.235   7.146
64608SOL     OW95662   3.811   6.284  12.498
64608SOL    HW195663   3.754   6.219  12.457
64608SOL    HW295664   3.857   6.236  12.566
64609SOL     OW95665   9.947  12.979   1.451
64609SOL    HW195666   9.916  13.031   1.525
64609SOL    HW295667  10.022  13.028   1.417
64610SOL     OW95668  13.499   1.919  12.158
64610SOL    HW195669  13.470   1.921  12.249
64610SOL    HW295670  13.432   1.969  12.111
64611SOL     OW95671   6.832   1.055  13.460
64611SOL    HW195672   6.789   1.129  13.417
64611SOL    HW295673   6.795   1.054  13.548
64612SOL     OW95674   0.657   5.988  10.946
64612SOL    HW195675   0.685   5.931  11.017
64612SOL    HW295676   0.679   5.940  10.866
64613SOL     OW95677  12.851   3.783   8.775
64613SOL    HW195678  12.846   3.825   8.860
64613SOL    HW295679  12.942   3.752   8.769
64614SOL     OW95680  14.198   1.583   8.047
64614SOL    HW195681  14.160   1.569   8.134
64614SOL    HW295682  14.132   1.633   8.000
64615SOL     OW95683   7.694   7.258  12.447
64615SOL    HW195684   7.626   7.320  12.471
64615SOL    HW295685   7.745   7.303  12.380
64616SOL     OW95686  14.080   8.291   6.538
64616SOL    HW195687  14.035   8.373   6.557
64616SOL    HW295688  14.025   8.224   6.578
64617SOL     OW95689  11.573  13.650   6.609
64617SOL    HW195690  11.496  13.640   6.554
64617SOL    HW295691  11.547  13.713   6.677
64618SOL     OW95692   5.588   8.739   5.620
64618SOL    HW195693   5.674   8.698   5.630
64618SOL    HW295694   5.531   8.668   5.593
64619SOL     OW95695   4.237   3.177   3.558
64619SOL    HW195696   4.317   3.158   3.509
64619SOL    HW295697   4.180   3.221   3.494
64620SOL     OW95698   2.448   0.127   8.353
64620SOL    HW195699   2.373   0.126   8.293
64620SOL    HW295700   2.515   0.074   8.308
64621SOL     OW95701  12.770   6.170   3.304
64621SOL    HW195702  12.828   6.133   3.237
64621SOL    HW295703  12.764   6.102   3.371
64622SOL     OW95704  10.623  10.029   4.759
64622SOL    HW195705  10.686  10.005   4.691
64622SOL    HW295706  10.559   9.959   4.758
64623SOL     OW95707   8.062   4.245   4.668
64623SOL    HW195708   7.992   4.281   4.722
64623SOL    HW295709   8.079   4.158   4.704
64624SOL     OW95710  13.352  13.763   5.318
64624SOL    HW195711  13.287  13.766   5.248
64624SOL    HW295712  13.303  13.738   5.396
64625SOL     OW95713   1.339  10.497   7.381
64625SOL    HW195714   1.363  10.437   7.451
64625SOL    HW295715   1.252  10.528   7.405
64626SOL     OW95716   5.808   6.080  12.029
64626SOL    HW195717   5.828   6.118  11.944
64626SOL    HW295718   5.840   5.990  12.024
64627SOL     OW95719  10.197  10.243   8.263
64627SOL    HW195720  10.249  10.257   8.185
64627SOL    HW295721  10.163  10.154   8.254
64628SOL     OW95722   5.976   4.925  13.631
64628SOL    HW195723   5.926   4.851  13.665
64628SOL    HW295724   6.058   4.887  13.600
64629SOL     OW95725  10.205   3.316  11.549
64629SOL    HW195726  10.286   3.277  11.516
64629SOL    HW295727  10.229   3.355  11.632
64630SOL     OW95728   8.077   1.666   1.866
64630SOL    HW195729   8.087   1.696   1.956
64630SOL    HW295730   8.118   1.580   1.865
64631SOL     OW95731   3.358   1.056   3.883
64631SOL    HW195732   3.317   1.125   3.830
64631SOL    HW295733   3.284   1.013   3.927
64632SOL     OW95734  13.865   5.941   8.220
64632SOL    HW195735  13.911   6.024   8.209
64632SOL    HW295736  13.934   5.876   8.229
64633SOL     OW95737  13.720   2.368   5.463
64633SOL    HW195738  13.746   2.278   5.445
64633SOL    HW295739  13.728   2.377   5.558
64634SOL     OW95740   1.981  10.062   0.976
64634SOL    HW195741   1.911  10.022   0.923
64634SOL    HW295742   2.061  10.024   0.940
64635SOL     OW95743   0.730   0.498   9.885
64635SOL    HW195744   0.700   0.444   9.812
64635SOL    HW295745   0.649   0.527   9.928
64636SOL     OW95746  13.076   7.852   5.991
64636SOL    HW195747  13.142   7.874   5.926
64636SOL    HW295748  13.096   7.906   6.067
64637SOL     OW95749   4.245  13.067   2.249
64637SOL    HW195750   4.292  13.150   2.240
64637SOL    HW295751   4.304  13.012   2.301
64638SOL     OW95752   6.345   0.826  12.936
64638SOL    HW195753   6.359   0.809  12.842
64638SOL    HW295754   6.429   0.860  12.967
64639SOL     OW95755   3.756   6.703   7.934
64639SOL    HW195756   3.785   6.790   7.906
64639SOL    HW295757   3.821   6.643   7.897
64640SOL     OW95758   8.902   2.014   2.584
64640SOL    HW195759   8.923   2.102   2.615
64640SOL    HW295760   8.812   2.021   2.552
64641SOL     OW95761  11.120   5.369   5.041
64641SOL    HW195762  11.187   5.432   5.013
64641SOL    HW295763  11.055   5.371   4.970
64642SOL     OW95764   9.871   5.207   5.096
64642SOL    HW195765   9.829   5.123   5.076
64642SOL    HW295766   9.950   5.183   5.144
64643SOL     OW95767   5.718   1.855   7.377
64643SOL    HW195768   5.671   1.801   7.313
64643SOL    HW295769   5.652   1.917   7.409
64644SOL     OW95770  14.046   8.786   3.511
64644SOL    HW195771  14.020   8.861   3.565
64644SOL    HW295772  14.085   8.725   3.573
64645SOL     OW95773   8.651  10.707  13.250
64645SOL    HW195774   8.709  10.643  13.292
64645SOL    HW295775   8.590  10.732  13.320
64646SOL     OW95776  12.258   4.773   3.541
64646SOL    HW195777  12.216   4.690   3.517
64646SOL    HW295778  12.263   4.822   3.459
64647SOL     OW95779  14.005  14.084   4.923
64647SOL    HW195780  13.979  14.167   4.884
64647SOL    HW295781  13.923  14.034   4.930
64648SOL     OW95782   1.833  12.890  12.199
64648SOL    HW195783   1.892  12.843  12.141
64648SOL    HW295784   1.745  12.863  12.172
64649SOL     OW95785   8.466  14.329  11.211
64649SOL    HW195786   8.502  14.244  11.184
64649SOL    HW295787   8.522  14.356  11.284
64650SOL     OW95788   8.377   5.439   5.560
64650SOL    HW195789   8.322   5.428   5.482
64650SOL    HW295790   8.371   5.355   5.606
64651SOL     OW95791   9.425  14.306   9.922
64651SOL    HW195792   9.495  14.352   9.877
64651SOL    HW295793   9.465  14.223   9.949
64652SOL     OW95794   5.051   8.811   3.234
64652SOL    HW195795   5.122   8.799   3.172
64652SOL    HW295796   5.094   8.833   3.317
64653SOL     OW95797   1.695   2.051  12.964
64653SOL    HW195798   1.713   2.038  12.871
64653SOL    HW295799   1.707   1.964  13.002
64654SOL     OW95800   4.682   7.781   4.260
64654SOL    HW195801   4.682   7.699   4.309
64654SOL    HW295802   4.633   7.762   4.180
64655SOL     OW95803   1.573   3.840   5.198
64655SOL    HW195804   1.657   3.852   5.241
64655SOL    HW295805   1.514   3.902   5.241
64656SOL     OW95806  12.084   2.655  13.369
64656SOL    HW195807  12.154   2.710  13.404
64656SOL    HW295808  12.005   2.708  13.379
64657SOL     OW95809   4.890   9.312   9.338
64657SOL    HW195810   4.946   9.374   9.384
64657SOL    HW295811   4.813   9.363   9.312
64658SOL     OW95812   0.343   9.409   8.745
64658SOL    HW195813   0.319   9.373   8.831
64658SOL    HW295814   0.303   9.349   8.682
64659SOL     OW95815   0.221   1.500   9.208
64659SOL    HW195816   0.225   1.595   9.213
64659SOL    HW295817   0.189   1.482   9.120
64660SOL     OW95818   2.598   7.560  12.380
64660SOL    HW195819   2.621   7.553  12.472
64660SOL    HW295820   2.608   7.653  12.359
64661SOL     OW95821   4.392   9.660   8.740
64661SOL    HW195822   4.484   9.683   8.751
64661SOL    HW295823   4.353   9.673   8.827
64662SOL     OW95824   4.858   4.585  14.677
64662SOL    HW195825   4.923   4.550  14.616
64662SOL    HW295826   4.808   4.648  14.626
64663SOL     OW95827   9.366   7.727   7.316
64663SOL    HW195828   9.305   7.685   7.377
64663SOL    HW295829   9.417   7.787   7.370
64664SOL     OW95830   1.187  11.518   0.660
64664SOL    HW195831   1.251  11.545   0.595
64664SOL    HW295832   1.215  11.560   0.741
64665SOL     OW95833  10.524   4.165  12.410
64665SOL    HW195834  10.478   4.095  12.364
64665SOL    HW295835  10.458   4.233  12.424
64666SOL     OW95836   8.382   3.966  10.138
64666SOL    HW195837   8.316   3.907  10.175
64666SOL    HW295838   8.338   4.006  10.063
64667SOL     OW95839  13.099  10.568  14.518
64667SOL    HW195840  13.089  10.654  14.477
64667SOL    HW295841  13.064  10.579  14.607
64668SOL     OW95842  14.307   3.041  13.921
64668SOL    HW195843  14.400   3.020  13.909
64668SOL    HW295844  14.260   2.972  13.875
64669SOL     OW95845  13.594  14.617   5.740
64669SOL    HW195846  13.672  14.632   5.794
64669SOL    HW295847  13.545  14.550   5.788
64670SOL     OW95848   3.539   3.917   1.408
64670SOL    HW195849   3.494   3.950   1.330
64670SOL    HW295850   3.472   3.870   1.457
64671SOL     OW95851   4.047   8.100   8.897
64671SOL    HW195852   4.040   8.174   8.957
64671SOL    HW295853   4.129   8.114   8.850
64672SOL     OW95854   5.100   5.761  10.699
64672SOL    HW195855   5.068   5.671  10.697
64672SOL    HW295856   5.192   5.755  10.673
64673SOL     OW95857  11.895   6.613   8.419
64673SOL    HW195858  11.960   6.613   8.349
64673SOL    HW295859  11.946   6.612   8.500
64674SOL     OW95860   2.105  14.284  11.827
64674SOL    HW195861   2.172  14.228  11.867
64674SOL    HW295862   2.052  14.225  11.775
64675SOL     OW95863   9.723  13.976  14.614
64675SOL    HW195864   9.781  14.026  14.671
64675SOL    HW295865   9.635  14.007  14.635
64676SOL     OW95866   9.251   7.566   1.787
64676SOL    HW195867   9.277   7.657   1.802
64676SOL    HW295868   9.313   7.515   1.839
64677SOL     OW95869   6.774   7.824  13.317
64677SOL    HW195870   6.823   7.843  13.237
64677SOL    HW295871   6.764   7.728  13.316
64678SOL     OW95872   2.187   8.474  11.107
64678SOL    HW195873   2.236   8.408  11.156
64678SOL    HW295874   2.247   8.504  11.039
64679SOL     OW95875   0.008   5.362  14.157
64679SOL    HW195876   0.056   5.332  14.079
64679SOL    HW295877  14.856   5.282  14.198
64680SOL     OW95878   2.350  14.050   8.347
64680SOL    HW195879   2.350  14.144   8.329
64680SOL    HW295880   2.310  14.011   8.270
64681SOL     OW95881  12.658   9.223   2.314
64681SOL    HW195882  12.692   9.312   2.322
64681SOL    HW295883  12.711   9.183   2.245
64682SOL     OW95884   3.102   1.038  12.063
64682SOL    HW195885   3.074   0.980  11.992
64682SOL    HW295886   3.021   1.080  12.093
64683SOL     OW95887  11.386   7.743   4.235
64683SOL    HW195888  11.415   7.799   4.308
64683SOL    HW295889  11.401   7.796   4.157
64684SOL     OW95890  12.971   1.097   5.722
64684SOL    HW195891  12.946   1.033   5.655
64684SOL    HW295892  12.987   1.178   5.673
64685SOL     OW95893   9.875  14.518  14.550
64685SOL    HW195894   9.824  14.468  14.614
64685SOL    HW295895   9.964  14.520  14.586
64686SOL     OW95896   7.959   2.020   2.648
64686SOL    HW195897   7.947   1.961   2.723
64686SOL    HW295898   7.921   1.973   2.574
64687SOL     OW95899   7.751  13.862   8.313
64687SOL    HW195900   7.835  13.907   8.306
64687SOL    HW295901   7.687  13.927   8.286
64688SOL     OW95902   8.158   3.443  12.202
64688SOL    HW195903   8.174   3.397  12.284
64688SOL    HW295904   8.096   3.388  12.155
64689SOL     OW95905  12.276   7.100   3.357
64689SOL    HW195906  12.257   7.007   3.361
64689SOL    HW295907  12.317   7.112   3.271
64690SOL     OW95908   3.667  11.887  10.428
64690SOL    HW195909   3.716  11.842  10.359
64690SOL    HW295910   3.699  11.978  10.424
64691SOL     OW95911   0.001   0.177   6.403
64691SOL    HW195912  14.830   0.258   6.412
64691SOL    HW295913   0.092   0.206   6.399
64692SOL     OW95914  14.329   5.946  13.225
64692SOL    HW195915  14.263   5.993  13.275
64692SOL    HW295916  14.299   5.949  13.134
64693SOL     OW95917   3.308   2.814   6.954
64693SOL    HW195918   3.389   2.764   6.956
64693SOL    HW295919   3.239   2.748   6.960
64694SOL     OW95920  14.016   2.942  10.787
64694SOL    HW195921  14.013   2.992  10.868
64694SOL    HW295922  13.938   2.887  10.789
64695SOL     OW95923   4.584  13.649  10.666
64695SOL    HW195924   4.504  13.677  10.623
64695SOL    HW295925   4.601  13.718  10.731
64696SOL     OW95926   1.908  11.303   1.571
64696SOL    HW195927   1.843  11.237   1.545
64696SOL    HW295928   1.866  11.350   1.643
64697SOL     OW95929  14.154   8.134  14.194
64697SOL    HW195930  14.112   8.062  14.241
64697SOL    HW295931  14.212   8.174  14.259
64698SOL     OW95932   9.762   4.746   9.163
64698SOL    HW195933   9.743   4.839   9.157
64698SOL    HW295934   9.822   4.738   9.238
64699SOL     OW95935   9.755  12.552   0.137
64699SOL    HW195936   9.784  12.544   0.046
64699SOL    HW295937   9.720  12.640   0.144
64700SOL     OW95938   7.865   9.763   9.668
64700SOL    HW195939   7.814   9.802   9.597
64700SOL    HW295940   7.807   9.698   9.707
64701SOL     OW95941   7.922   2.240   6.357
64701SOL    HW195942   7.870   2.288   6.422
64701SOL    HW295943   8.005   2.224   6.400
64702SOL     OW95944   0.704  10.677   8.428
64702SOL    HW195945   0.732  10.642   8.343
64702SOL    HW295946   0.719  10.771   8.420
64703SOL     OW95947   5.657   7.520  11.587
64703SOL    HW195948   5.623   7.431  11.578
64703SOL    HW295949   5.717   7.515  11.662
64704SOL     OW95950   8.195  10.507   7.710
64704SOL    HW195951   8.209  10.579   7.648
64704SOL    HW295952   8.109  10.523   7.747
64705SOL     OW95953   5.741  13.571  12.776
64705SOL    HW195954   5.714  13.632  12.845
64705SOL    HW295955   5.814  13.616  12.732
64706SOL     OW95956   6.093   1.328  14.363
64706SOL    HW195957   6.114   1.246  14.317
64706SOL    HW295958   5.998   1.337  14.353
64707SOL     OW95959   5.459   2.244   3.958
64707SOL    HW195960   5.473   2.236   3.864
64707SOL    HW295961   5.464   2.155   3.991
64708SOL     OW95962   7.276   8.995   7.642
64708SOL    HW195963   7.228   9.033   7.568
64708SOL    HW295964   7.282   8.902   7.622
64709SOL     OW95965   3.312   0.027  11.216
64709SOL    HW195966   3.376  14.876  11.281
64709SOL    HW295967   3.306  14.833  11.154
64710SOL     OW95968   5.513  14.146  14.037
64710SOL    HW195969   5.459  14.174  14.110
64710SOL    HW295970   5.595  14.117  14.077
64711SOL     OW95971   8.749  10.103  10.395
64711SOL    HW195972   8.721  10.111  10.486
64711SOL    HW295973   8.679  10.051  10.354
64712SOL     OW95974   4.680  13.756   7.068
64712SOL    HW195975   4.592  13.781   7.040
64712SOL    HW295976   4.721  13.838   7.094
64713SOL     OW95977   4.824   0.543   0.231
64713SOL    HW195978   4.848   0.460   0.273
64713SOL    HW295979   4.848   0.610   0.295
64714SOL     OW95980   3.273  14.716   6.554
64714SOL    HW195981   3.352  14.768   6.569
64714SOL    HW295982   3.242  14.695   6.642
64715SOL     OW95983  11.546   8.850   0.690
64715SOL    HW195984  11.477   8.854   0.757
64715SOL    HW295985  11.627   8.846   0.741
64716SOL     OW95986   7.159   7.595  13.345
64716SOL    HW195987   7.112   7.577  13.425
64716SOL    HW295988   7.217   7.668  13.367
64717SOL     OW95989  12.025   2.270   5.324
64717SOL    HW195990  12.037   2.364   5.336
64717SOL    HW295991  11.978   2.262   5.241
64718SOL     OW95992   1.187  13.116  13.675
64718SOL    HW195993   1.167  13.208  13.696
64718SOL    HW295994   1.279  13.105  13.702
64719SOL     OW95995  14.474   1.640  10.133
64719SOL    HW195996  14.406   1.578  10.160
64719SOL    HW295997  14.474   1.706  10.202
64720SOL     OW95998   8.354   8.625   9.318
64720SOL    HW195999   8.294   8.557   9.285
64720SOL    HW296000   8.330   8.636   9.410
64721SOL     OW96001   5.671   4.778   9.392
64721SOL    HW196002   5.657   4.687   9.420
64721SOL    HW296003   5.589   4.802   9.350
64722SOL     OW96004   1.781   4.539   2.838
64722SOL    HW196005   1.765   4.525   2.745
64722SOL    HW296006   1.777   4.452   2.877
64723SOL     OW96007   0.876   1.987   5.297
64723SOL    HW196008   0.802   1.937   5.334
64723SOL    HW296009   0.933   1.921   5.260
64724SOL     OW96010  12.878   5.334   0.201
64724SOL    HW196011  12.862   5.308   0.110
64724SOL    HW296012  12.907   5.425   0.195
64725SOL     OW96013   8.474   9.905   2.847
64725SOL    HW196014   8.430   9.828   2.812
64725SOL    HW296015   8.421   9.979   2.818
64726SOL     OW96016   2.435  13.387   5.782
64726SOL    HW196017   2.359  13.415   5.833
64726SOL    HW296018   2.415  13.297   5.757
64727SOL     OW96019  14.662   8.361  14.819
64727SOL    HW196020  14.606   8.422  14.867
64727SOL    HW296021  14.719   8.323   0.007
64728SOL     OW96022   7.557   0.119   8.485
64728SOL    HW196023   7.593   0.180   8.549
64728SOL    HW296024   7.479   0.083   8.528
64729SOL     OW96025   3.973  11.413  10.703
64729SOL    HW196026   3.927  11.422  10.619
64729SOL    HW296027   3.902  11.404  10.767
64730SOL     OW96028  12.054  13.007   0.825
64730SOL    HW196029  12.037  13.074   0.759
64730SOL    HW296030  12.150  13.006   0.834
64731SOL     OW96031   2.609   6.375  11.385
64731SOL    HW196032   2.556   6.455  11.391
64731SOL    HW296033   2.544   6.304  11.382
64732SOL     OW96034   5.560   7.495   7.389
64732SOL    HW196035   5.578   7.535   7.304
64732SOL    HW296036   5.609   7.549   7.451
64733SOL     OW96037   9.155   1.136  14.825
64733SOL    HW196038   9.111   1.160   0.027
64733SOL    HW296039   9.120   1.049  14.804
64734SOL     OW96040   1.287   3.234   3.550
64734SOL    HW196041   1.293   3.193   3.637
64734SOL    HW296042   1.293   3.160   3.489
64735SOL     OW96043  10.220   8.110  12.463
64735SOL    HW196044  10.277   8.171  12.416
64735SOL    HW296045  10.152   8.165  12.501
64736SOL     OW96046  11.646   8.366   4.619
64736SOL    HW196047  11.581   8.400   4.559
64736SOL    HW296048  11.601   8.363   4.704
64737SOL     OW96049   0.559   0.316  13.815
64737SOL    HW196050   0.639   0.286  13.773
64737SOL    HW296051   0.501   0.240  13.815
64738SOL     OW96052  13.787  12.316  13.180
64738SOL    HW196053  13.821  12.339  13.094
64738SOL    HW296054  13.697  12.347  13.180
64739SOL     OW96055  12.535  13.769   1.904
64739SOL    HW196056  12.589  13.803   1.833
64739SOL    HW296057  12.458  13.733   1.860
64740SOL     OW96058   5.628   8.669  14.731
64740SOL    HW196059   5.672   8.665  14.816
64740SOL    HW296060   5.545   8.623  14.745
64741SOL     OW96061  11.105   2.484  13.891
64741SOL    HW196062  11.141   2.495  13.979
64741SOL    HW296063  11.161   2.418  13.850
64742SOL     OW96064  12.457  14.714  10.932
64742SOL    HW196065  12.473  14.622  10.911
64742SOL    HW296066  12.467  14.719  11.027
64743SOL     OW96067   5.877  14.473   2.713
64743SOL    HW196068   5.801  14.517   2.750
64743SOL    HW296069   5.860  14.473   2.618
64744SOL     OW96070   6.196   9.124   1.185
64744SOL    HW196071   6.253   9.201   1.182
64744SOL    HW296072   6.107   9.160   1.190
64745SOL     OW96073   3.260  11.600   9.543
64745SOL    HW196074   3.354  11.595   9.525
64745SOL    HW296075   3.237  11.691   9.526
64746SOL     OW96076  11.607   9.689  10.951
64746SOL    HW196077  11.536   9.736  10.907
64746SOL    HW296078  11.624   9.613  10.895
64747SOL     OW96079  12.031  12.218  10.922
64747SOL    HW196080  12.121  12.241  10.944
64747SOL    HW296081  12.022  12.127  10.951
64748SOL     OW96082   9.082  14.160  13.723
64748SOL    HW196083   9.098  14.105  13.799
64748SOL    HW296084   9.024  14.108  13.667
64749SOL     OW96085   4.981  11.659   6.594
64749SOL    HW196086   5.025  11.587   6.548
64749SOL    HW296087   5.022  11.660   6.681
64750SOL     OW96088   8.732   0.463   0.204
64750SOL    HW196089   8.744   0.466   0.110
64750SOL    HW296090   8.682   0.383   0.220
64751SOL     OW96091   3.047  10.976   3.560
64751SOL    HW196092   3.060  11.068   3.581
64751SOL    HW296093   3.029  10.934   3.644
64752SOL     OW96094   2.926   8.041  13.022
64752SOL    HW196095   2.980   8.084  12.956
64752SOL    HW296096   2.979   7.966  13.052
64753SOL     OW96097   0.106   4.663  11.553
64753SOL    HW196098   0.020   4.621  11.560
64753SOL    HW296099   0.152   4.638  11.633
64754SOL     OW96100   1.827   9.735   6.543
64754SOL    HW196101   1.840   9.644   6.514
64754SOL    HW296102   1.883   9.787   6.486
64755SOL     OW96103   9.934   7.673   1.028
64755SOL    HW196104  10.006   7.708   0.977
64755SOL    HW296105   9.970   7.664   1.117
64756SOL     OW96106  14.737  12.589   1.151
64756SOL    HW196107  14.831  12.575   1.162
64756SOL    HW296108  14.698  12.556   1.232
64757SOL     OW96109   5.306  13.027   8.417
64757SOL    HW196110   5.224  12.991   8.452
64757SOL    HW296111   5.375  12.983   8.467
64758SOL     OW96112   4.921   6.228   7.257
64758SOL    HW196113   4.885   6.148   7.295
64758SOL    HW296114   4.866   6.298   7.292
64759SOL     OW96115   2.175   4.801  10.279
64759SOL    HW196116   2.242   4.851  10.232
64759SOL    HW296117   2.150   4.857  10.353
64760SOL     OW96118   4.925  14.406   3.414
64760SOL    HW196119   4.869  14.481   3.392
64760SOL    HW296120   4.866  14.345   3.457
64761SOL     OW96121   4.217  14.210   8.117
64761SOL    HW196122   4.263  14.188   8.036
64761SOL    HW296123   4.284  14.204   8.186
64762SOL     OW96124   5.478  11.506   1.994
64762SOL    HW196125   5.430  11.480   2.072
64762SOL    HW296126   5.422  11.481   1.921
64763SOL     OW96127  13.160   9.013  11.618
64763SOL    HW196128  13.083   9.008  11.561
64763SOL    HW296129  13.155   9.100  11.657
64764SOL     OW96130  10.595   0.586  13.230
64764SOL    HW196131  10.590   0.528  13.153
64764SOL    HW296132  10.686   0.581  13.258
64765SOL     OW96133   5.862   7.054   9.187
64765SOL    HW196134   5.798   7.123   9.204
64765SOL    HW296135   5.877   7.013   9.272
64766SOL     OW96136  14.569   3.434  12.868
64766SOL    HW196137  14.597   3.393  12.950
64766SOL    HW296138  14.501   3.496  12.894
64767SOL     OW96139   8.936   5.619   4.393
64767SOL    HW196140   8.892   5.697   4.359
64767SOL    HW296141   8.961   5.570   4.314
64768SOL     OW96142  14.690   1.466   5.328
64768SOL    HW196143  14.648   1.548   5.355
64768SOL    HW296144  14.737   1.488   5.248
64769SOL     OW96145   5.486   9.302  10.162
64769SOL    HW196146   5.438   9.220  10.150
64769SOL    HW296147   5.528   9.319  10.078
64770SOL     OW96148   5.649   9.123   1.736
64770SOL    HW196149   5.598   9.203   1.750
64770SOL    HW296150   5.740   9.151   1.747
64771SOL     OW96151  13.299  14.442   2.056
64771SOL    HW196152  13.219  14.413   2.014
64771SOL    HW296153  13.347  14.362   2.075
64772SOL     OW96154  13.499   3.170   0.167
64772SOL    HW196155  13.484   3.076   0.151
64772SOL    HW296156  13.424   3.196   0.221
64773SOL     OW96157   0.146   8.790   5.897
64773SOL    HW196158   0.169   8.750   5.814
64773SOL    HW296159   0.105   8.719   5.947
64774SOL     OW96160   6.727   1.523   5.700
64774SOL    HW196161   6.772   1.605   5.681
64774SOL    HW296162   6.634   1.545   5.696
64775SOL     OW96163   2.749   4.517   1.949
64775SOL    HW196164   2.761   4.573   1.872
64775SOL    HW296165   2.654   4.512   1.961
64776SOL     OW96166  11.699   4.710   5.324
64776SOL    HW196167  11.747   4.758   5.257
64776SOL    HW296168  11.631   4.771   5.353
64777SOL     OW96169   8.481   1.660   7.601
64777SOL    HW196170   8.434   1.591   7.647
64777SOL    HW296171   8.467   1.642   7.509
64778SOL     OW96172  10.158   9.855   9.294
64778SOL    HW196173  10.157   9.946   9.265
64778SOL    HW296174  10.072   9.843   9.336
64779SOL     OW96175  14.333   9.102  14.694
64779SOL    HW196176  14.428   9.100  14.694
64779SOL    HW296177  14.310   9.188  14.661
64780SOL     OW96178   6.610   1.631  13.294
64780SOL    HW196179   6.526   1.585  13.301
64780SOL    HW296180   6.654   1.615  13.377
64781SOL     OW96181  13.088   3.073   0.157
64781SOL    HW196182  13.122   3.100   0.242
64781SOL    HW296183  13.153   3.011   0.124
64782SOL     OW96184   1.009   3.515   5.935
64782SOL    HW196185   0.939   3.577   5.913
64782SOL    HW296186   0.962   3.435   5.958
64783SOL     OW96187   8.753   3.457   7.691
64783SOL    HW196188   8.726   3.377   7.647
64783SOL    HW296189   8.737   3.526   7.627
64784SOL     OW96190   2.942  13.374   6.966
64784SOL    HW196191   2.998  13.301   6.989
64784SOL    HW296192   2.854  13.336   6.959
64785SOL     OW96193   2.036  10.555   7.476
64785SOL    HW196194   1.960  10.503   7.453
64785SOL    HW296195   2.079  10.574   7.392
64786SOL     OW96196   0.143  13.678  12.664
64786SOL    HW196197   0.098  13.709  12.742
64786SOL    HW296198   0.208  13.746  12.645
64787SOL     OW96199   3.465  12.222   5.650
64787SOL    HW196200   3.560  12.230   5.657
64787SOL    HW296201   3.451  12.180   5.564
64788SOL     OW96202   1.230  10.443  13.917
64788SOL    HW196203   1.167  10.374  13.895
64788SOL    HW296204   1.272  10.413  13.997
64789SOL     OW96205   7.005   4.358  10.239
64789SOL    HW196206   7.002   4.426  10.172
64789SOL    HW296207   7.031   4.405  10.319
64790SOL     OW96208   5.870   2.857   0.341
64790SOL    HW196209   5.937   2.806   0.296
64790SOL    HW296210   5.822   2.793   0.393
64791SOL     OW96211   9.756  14.872   1.900
64791SOL    HW196212   9.844   0.022   1.923
64791SOL    HW296213   9.724  14.825   1.977
64792SOL     OW96214   1.745   8.052   8.677
64792SOL    HW196215   1.688   8.080   8.605
64792SOL    HW296216   1.689   8.057   8.755
64793SOL     OW96217   9.913   0.397   7.249
64793SOL    HW196218   9.946   0.486   7.241
64793SOL    HW296219   9.821   0.403   7.222
64794SOL     OW96220   4.399  12.638   5.879
64794SOL    HW196221   4.322  12.655   5.825
64794SOL    HW296222   4.408  12.543   5.879
64795SOL     OW96223  13.428   2.603  10.435
64795SOL    HW196224  13.476   2.680  10.466
64795SOL    HW296225  13.366   2.637  10.371
64796SOL     OW96226   5.916  12.996   6.165
64796SOL    HW196227   5.892  13.067   6.105
64796SOL    HW296228   5.857  13.008   6.240
64797SOL     OW96229  10.414   7.481   1.387
64797SOL    HW196230  10.475   7.494   1.459
64797SOL    HW296231  10.348   7.422   1.421
64798SOL     OW96232   9.262  12.333   9.967
64798SOL    HW196233   9.266  12.255   9.912
64798SOL    HW296234   9.171  12.361   9.963
64799SOL     OW96235   4.757   0.505  12.920
64799SOL    HW196236   4.663   0.519  12.912
64799SOL    HW296237   4.789   0.583  12.967
64800SOL     OW96238   7.214   5.204   5.696
64800SOL    HW196239   7.161   5.273   5.735
64800SOL    HW296240   7.270   5.173   5.767
64801SOL     OW96241   7.410   7.014   7.674
64801SOL    HW196242   7.390   7.104   7.648
64801SOL    HW296243   7.340   6.962   7.633
64802SOL     OW96244   2.118   2.218  14.498
64802SOL    HW196245   2.077   2.289  14.448
64802SOL    HW296246   2.155   2.260  14.575
64803SOL     OW96247   0.330  13.987   2.842
64803SOL    HW196248   0.411  14.037   2.831
64803SOL    HW296249   0.261  14.045   2.809
64804SOL     OW96250  10.161  12.322   8.648
64804SOL    HW196251  10.189  12.325   8.557
64804SOL    HW296252  10.104  12.245   8.652
64805SOL     OW96253   0.165  11.421  12.344
64805SOL    HW196254   0.111  11.472  12.283
64805SOL    HW296255   0.135  11.447  12.431
64806SOL     OW96256   2.946   5.431   8.953
64806SOL    HW196257   2.928   5.357   8.895
64806SOL    HW296258   2.871   5.432   9.013
64807SOL     OW96259   2.203  14.453   9.755
64807SOL    HW196260   2.250  14.445   9.838
64807SOL    HW296261   2.249  14.522   9.707
64808SOL     OW96262   3.570  11.208  14.374
64808SOL    HW196263   3.566  11.139  14.308
64808SOL    HW296264   3.575  11.161  14.457
64809SOL     OW96265   9.658  14.313  14.458
64809SOL    HW196266   9.654  14.238  14.518
64809SOL    HW296267   9.717  14.284  14.388
64810SOL     OW96268   1.484  14.595   2.433
64810SOL    HW196269   1.550  14.617   2.368
64810SOL    HW296270   1.483  14.499   2.435
64811SOL     OW96271  11.155  10.834   7.837
64811SOL    HW196272  11.142  10.882   7.755
64811SOL    HW296273  11.131  10.743   7.815
64812SOL     OW96274   0.152   9.689   0.594
64812SOL    HW196275   0.232   9.682   0.542
64812SOL    HW296276   0.101   9.612   0.570
64813SOL     OW96277   5.009   8.048   9.268
64813SOL    HW196278   5.014   8.139   9.298
64813SOL    HW296279   5.099   8.025   9.244
64814SOL     OW96280  12.834  14.240  12.415
64814SOL    HW196281  12.846  14.331  12.386
64814SOL    HW296282  12.826  14.190  12.334
64815SOL     OW96283   2.985   3.696   8.857
64815SOL    HW196284   3.009   3.703   8.765
64815SOL    HW296285   3.000   3.784   8.893
64816SOL     OW96286  10.771  10.540  14.274
64816SOL    HW196287  10.848  10.499  14.235
64816SOL    HW296288  10.794  10.549  14.367
64817SOL     OW96289   9.200  10.747  12.128
64817SOL    HW196290   9.173  10.655  12.124
64817SOL    HW296291   9.293  10.744  12.150
64818SOL     OW96292   0.154   7.815  13.484
64818SOL    HW196293   0.117   7.803  13.572
64818SOL    HW296294   0.082   7.850  13.433
64819SOL     OW96295   4.159   6.652   5.052
64819SOL    HW196296   4.248   6.665   5.019
64819SOL    HW296297   4.156   6.560   5.077
64820SOL     OW96298   6.838  11.147   3.005
64820SOL    HW196299   6.933  11.137   3.008
64820SOL    HW296300   6.823  11.231   2.962
64821SOL     OW96301  13.689  10.045  14.271
64821SOL    HW196302  13.717  10.035  14.362
64821SOL    HW296303  13.694   9.957  14.234
64822SOL     OW96304   4.552  14.347  10.433
64822SOL    HW196305   4.625  14.338  10.495
64822SOL    HW296306   4.554  14.440  10.407
64823SOL     OW96307   4.923   6.425  10.912
64823SOL    HW196308   4.860   6.409  10.983
64823SOL    HW296309   4.870   6.461  10.841
64824SOL     OW96310   3.218   6.720  11.969
64824SOL    HW196311   3.207   6.664  11.892
64824SOL    HW296312   3.222   6.659  12.043
64825SOL     OW96313  11.557   5.320   1.110
64825SOL    HW196314  11.511   5.401   1.133
64825SOL    HW296315  11.629   5.315   1.172
64826SOL     OW96316   9.613  11.716   3.848
64826SOL    HW196317   9.533  11.746   3.891
64826SOL    HW296318   9.606  11.620   3.849
64827SOL     OW96319  12.014   2.543  10.486
64827SOL    HW196320  11.956   2.482  10.441
64827SOL    HW296321  12.051   2.492  10.558
64828SOL     OW96322   5.259  13.520   1.341
64828SOL    HW196323   5.336  13.465   1.326
64828SOL    HW296324   5.250  13.571   1.261
64829SOL     OW96325   5.009  11.583   5.516
64829SOL    HW196326   5.103  11.565   5.519
64829SOL    HW296327   5.002  11.677   5.532
64830SOL     OW96328   7.128   4.984   2.363
64830SOL    HW196329   7.074   5.045   2.313
64830SOL    HW296330   7.085   4.899   2.351
64831SOL     OW96331   9.008  11.380   2.586
64831SOL    HW196332   9.046  11.306   2.537
64831SOL    HW296333   9.079  11.408   2.644
64832SOL     OW96334  11.198  10.769   2.510
64832SOL    HW196335  11.242  10.835   2.563
64832SOL    HW296336  11.145  10.819   2.448
64833SOL     OW96337   5.964  12.858   8.516
64833SOL    HW196338   5.916  12.934   8.480
64833SOL    HW296339   6.037  12.897   8.564
64834SOL     OW96340  11.410   7.504   7.995
64834SOL    HW196341  11.445   7.592   8.003
64834SOL    HW296342  11.322   7.509   8.032
64835SOL     OW96343   9.422   3.817   3.676
64835SOL    HW196344   9.400   3.809   3.769
64835SOL    HW296345   9.425   3.727   3.644
64836SOL     OW96346   3.333   6.738  10.322
64836SOL    HW196347   3.276   6.695  10.258
64836SOL    HW296348   3.309   6.830  10.317
64837SOL     OW96349   1.442   0.227   5.803
64837SOL    HW196350   1.388   0.278   5.742
64837SOL    HW296351   1.512   0.191   5.749
64838SOL     OW96352   7.853  14.070  13.717
64838SOL    HW196353   7.789  14.018  13.766
64838SOL    HW296354   7.868  14.020  13.637
64839SOL     OW96355   9.282   5.010   8.932
64839SOL    HW196356   9.211   5.074   8.946
64839SOL    HW296357   9.355   5.045   8.982
64840SOL     OW96358   4.360   2.796  11.251
64840SOL    HW196359   4.370   2.713  11.298
64840SOL    HW296360   4.290   2.841  11.298
64841SOL     OW96361  10.772   3.748  14.785
64841SOL    HW196362  10.759   3.655  14.770
64841SOL    HW296363  10.684   3.783  14.794
64842SOL     OW96364   5.748   5.514   6.318
64842SOL    HW196365   5.683   5.490   6.252
64842SOL    HW296366   5.831   5.481   6.284
64843SOL     OW96367   1.638   6.586   1.280
64843SOL    HW196368   1.664   6.554   1.194
64843SOL    HW296369   1.716   6.576   1.334
64844SOL     OW96370   0.227   4.071   8.198
64844SOL    HW196371   0.207   4.097   8.288
64844SOL    HW296372   0.151   4.019   8.170
64845SOL     OW96373   3.653   7.303   5.922
64845SOL    HW196374   3.681   7.371   5.860
64845SOL    HW296375   3.714   7.231   5.906
64846SOL     OW96376   7.728   4.982   5.262
64846SOL    HW196377   7.781   4.981   5.182
64846SOL    HW296378   7.638   4.993   5.232
64847SOL     OW96379   8.345   1.430   2.538
64847SOL    HW196380   8.437   1.444   2.516
64847SOL    HW296381   8.339   1.448   2.632
64848SOL     OW96382   9.643  12.004   6.451
64848SOL    HW196383   9.641  12.019   6.357
64848SOL    HW296384   9.556  11.971   6.473
64849SOL     OW96385   2.429   4.849  10.189
64849SOL    HW196386   2.482   4.921  10.224
64849SOL    HW296387   2.480   4.770  10.207
64850SOL     OW96388   5.335   3.221  13.423
64850SOL    HW196389   5.262   3.189  13.476
64850SOL    HW296390   5.391   3.145  13.410
64851SOL     OW96391   0.121   1.583   5.621
64851SOL    HW196392   0.036   1.539   5.613
64851SOL    HW296393   0.177   1.538   5.558
64852SOL     OW96394  14.698   4.910   7.186
64852SOL    HW196395  14.604   4.915   7.169
64852SOL    HW296396  14.739   4.925   7.101
64853SOL     OW96397   5.207   8.704   4.107
64853SOL    HW196398   5.207   8.714   4.202
64853SOL    HW296399   5.299   8.710   4.082
64854SOL     OW96400   3.550   1.031  10.959
64854SOL    HW196401   3.494   1.017  10.883
64854SOL    HW296402   3.604   0.952  10.965
64855SOL     OW96403  12.081   9.699   7.152
64855SOL    HW196404  12.063   9.779   7.102
64855SOL    HW296405  12.006   9.690   7.211
64856SOL     OW96406  14.644   7.445   0.735
64856SOL    HW196407  14.582   7.385   0.776
64856SOL    HW296408  14.601   7.530   0.737
64857SOL     OW96409   5.611  13.156   8.575
64857SOL    HW196410   5.528  13.181   8.616
64857SOL    HW296411   5.609  13.060   8.574
64858SOL     OW96412   8.415   8.108  12.630
64858SOL    HW196413   8.450   8.078  12.714
64858SOL    HW296414   8.321   8.116  12.645
64859SOL     OW96415  10.037   3.953   4.343
64859SOL    HW196416  10.033   3.908   4.427
64859SOL    HW296417  10.130   3.971   4.330
64860SOL     OW96418   3.772   8.572   6.223
64860SOL    HW196419   3.755   8.552   6.316
64860SOL    HW296420   3.701   8.527   6.176
64861SOL     OW96421  12.488   0.158   8.079
64861SOL    HW196422  12.529   0.244   8.090
64861SOL    HW296423  12.400   0.169   8.112
64862SOL     OW96424   9.064   4.604  10.088
64862SOL    HW196425   8.981   4.649  10.078
64862SOL    HW296426   9.050   4.543  10.161
64863SOL     OW96427   7.455  12.462   1.838
64863SOL    HW196428   7.496  12.510   1.765
64863SOL    HW296429   7.454  12.525   1.910
64864SOL     OW96430   4.637   9.752   4.851
64864SOL    HW196431   4.633   9.846   4.869
64864SOL    HW296432   4.645   9.711   4.937
64865SOL     OW96433   9.720  11.783  11.393
64865SOL    HW196434   9.677  11.865  11.371
64865SOL    HW296435   9.813  11.805  11.399
64866SOL     OW96436   8.217   5.592   5.311
64866SOL    HW196437   8.266   5.590   5.228
64866SOL    HW296438   8.252   5.669   5.357
64867SOL     OW96439   5.597   3.457   9.385
64867SOL    HW196440   5.534   3.493   9.446
64867SOL    HW296441   5.621   3.372   9.421
64868SOL     OW96442   0.918  11.752  13.126
64868SOL    HW196443   0.975  11.678  13.144
64868SOL    HW296444   0.959  11.826  13.171
64869SOL     OW96445   3.062  12.397   8.452
64869SOL    HW196446   3.050  12.308   8.420
64869SOL    HW296447   3.013  12.400   8.534
64870SOL     OW96448  14.354   5.380  13.268
64870SOL    HW196449  14.377   5.462  13.311
64870SOL    HW296450  14.265   5.361  13.298
64871SOL     OW96451   2.207  10.019  11.445
64871SOL    HW196452   2.224  10.013  11.539
64871SOL    HW296453   2.294  10.018  11.405
64872SOL     OW96454  12.153  13.309   6.552
64872SOL    HW196455  12.130  13.401   6.566
64872SOL    HW296456  12.080  13.273   6.502
64873SOL     OW96457   1.759   6.524   8.474
64873SOL    HW196458   1.791   6.535   8.564
64873SOL    HW296459   1.770   6.430   8.457
64874SOL     OW96460   4.463  10.583   5.672
64874SOL    HW196461   4.421  10.560   5.589
64874SOL    HW296462   4.406  10.544   5.738
64875SOL     OW96463   6.739   3.122  12.439
64875SOL    HW196464   6.697   3.037  12.452
64875SOL    HW296465   6.785   3.113  12.356
64876SOL     OW96466   5.476   0.173  12.667
64876SOL    HW196467   5.535   0.233  12.621
64876SOL    HW296468   5.442   0.115  12.599
64877SOL     OW96469   1.622   2.822  10.024
64877SOL    HW196470   1.648   2.730  10.015
64877SOL    HW296471   1.692   2.871   9.982
64878SOL     OW96472   9.172   6.991  12.072
64878SOL    HW196473   9.258   7.013  12.036
64878SOL    HW296474   9.115   6.985  11.995
64879SOL     OW96475  10.899  13.551   1.566
64879SOL    HW196476  10.854  13.475   1.529
64879SOL    HW296477  10.834  13.622   1.562
64880SOL     OW96478   8.188   9.106   1.393
64880SOL    HW196479   8.191   9.175   1.459
64880SOL    HW296480   8.110   9.125   1.342
64881SOL     OW96481   4.415   4.069   3.162
64881SOL    HW196482   4.334   4.065   3.111
64881SOL    HW296483   4.415   3.990   3.216
64882SOL     OW96484  13.009   7.180  10.729
64882SOL    HW196485  12.957   7.259  10.746
64882SOL    HW296486  13.064   7.204  10.654
64883SOL     OW96487   1.747   8.973   8.597
64883SOL    HW196488   1.749   8.928   8.512
64883SOL    HW296489   1.810   8.925   8.651
64884SOL     OW96490  14.226   9.041   7.484
64884SOL    HW196491  14.135   9.013   7.479
64884SOL    HW296492  14.222   9.137   7.488
64885SOL     OW96493   0.699   1.509   8.067
64885SOL    HW196494   0.641   1.451   8.118
64885SOL    HW296495   0.674   1.493   7.976
64886SOL     OW96496   9.601   9.379  14.813
64886SOL    HW196497   9.678   9.391  14.868
64886SOL    HW296498   9.634   9.335  14.734
64887SOL     OW96499   9.475  11.855  12.109
64887SOL    HW196500   9.403  11.917  12.094
64887SOL    HW296501   9.509  11.880  12.195
64888SOL     OW96502   4.040   5.921   1.239
64888SOL    HW196503   4.079   5.918   1.152
64888SOL    HW296504   3.992   6.004   1.242
64889SOL     OW96505   8.542   2.323   7.106
64889SOL    HW196506   8.616   2.383   7.112
64889SOL    HW296507   8.579   2.242   7.071
64890SOL     OW96508  10.749  12.669   2.310
64890SOL    HW196509  10.778  12.757   2.287
64890SOL    HW296510  10.758  12.619   2.230
64891SOL     OW96511  10.075   3.580   5.105
64891SOL    HW196512  10.166   3.555   5.088
64891SOL    HW296513  10.073   3.599   5.199
64892SOL     OW96514   5.871   7.895   5.863
64892SOL    HW196515   5.846   7.818   5.914
64892SOL    HW296516   5.966   7.900   5.873
64893SOL     OW96517  11.263  10.325   4.164
64893SOL    HW196518  11.358  10.333   4.175
64893SOL    HW296519  11.226  10.360   4.245
64894SOL     OW96520   6.058   2.869   2.156
64894SOL    HW196521   6.028   2.782   2.131
64894SOL    HW296522   6.112   2.854   2.234
64895SOL     OW96523   7.378   0.765   7.674
64895SOL    HW196524   7.400   0.848   7.632
64895SOL    HW296525   7.318   0.722   7.613
64896SOL     OW96526  12.529  12.868  11.670
64896SOL    HW196527  12.511  12.847  11.578
64896SOL    HW296528  12.538  12.964  11.671
64897SOL     OW96529  14.253  11.431   3.390
64897SOL    HW196530  14.298  11.498   3.442
64897SOL    HW296531  14.165  11.467   3.377
64898SOL     OW96532   4.837  10.774  12.399
64898SOL    HW196533   4.748  10.798  12.372
64898SOL    HW296534   4.865  10.710  12.334
64899SOL     OW96535  10.441  12.342   9.532
64899SOL    HW196536  10.428  12.367   9.624
64899SOL    HW296537  10.395  12.409   9.482
64900SOL     OW96538   4.164   5.576  13.619
64900SOL    HW196539   4.215   5.653  13.646
64900SOL    HW296540   4.098   5.567  13.687
64901SOL     OW96541   5.954   0.003  10.297
64901SOL    HW196542   5.997   0.078  10.336
64901SOL    HW296543   5.881   0.040  10.247
64902SOL     OW96544   0.884  11.444  10.562
64902SOL    HW196545   0.921  11.378  10.504
64902SOL    HW296546   0.801  11.407  10.591
64903SOL     OW96547  13.423   2.635   8.707
64903SOL    HW196548  13.382   2.721   8.700
64903SOL    HW296549  13.353   2.577   8.736
64904SOL     OW96550   0.570  13.414   7.291
64904SOL    HW196551   0.499  13.400   7.353
64904SOL    HW296552   0.611  13.328   7.283
64905SOL     OW96553   9.229   8.593   6.921
64905SOL    HW196554   9.236   8.688   6.924
64905SOL    HW296555   9.185   8.569   7.002
64906SOL     OW96556  13.181  12.264  12.264
64906SOL    HW196557  13.153  12.355  12.271
64906SOL    HW296558  13.241  12.252  12.337
64907SOL     OW96559   4.649   6.217   6.026
64907SOL    HW196560   4.645   6.281   6.097
64907SOL    HW296561   4.568   6.230   5.977
64908SOL     OW96562   9.836   3.361   0.002
64908SOL    HW196563   9.828   3.426  14.811
64908SOL    HW296564   9.857   3.279  14.837
64909SOL     OW96565   9.875  13.147  14.461
64909SOL    HW196566   9.858  13.053  14.464
64909SOL    HW296567   9.797  13.184  14.419
64910SOL     OW96568  10.722  10.104   7.609
64910SOL    HW196569  10.745  10.071   7.696
64910SOL    HW296570  10.743  10.198   7.613
64911SOL     OW96571   1.846   5.345  11.557
64911SOL    HW196572   1.779   5.359  11.490
64911SOL    HW296573   1.914   5.409  11.537
64912SOL     OW96574   0.903   3.096   5.010
64912SOL    HW196575   0.902   3.048   4.927
64912SOL    HW296576   0.901   3.188   4.985
64913SOL     OW96577   7.797   6.099  13.736
64913SOL    HW196578   7.711   6.061  13.721
64913SOL    HW296579   7.793   6.135  13.824
64914SOL     OW96580  13.635   6.035  10.707
64914SOL    HW196581  13.640   5.985  10.788
64914SOL    HW296582  13.546   6.071  10.706
64915SOL     OW96583   4.681  13.258   4.270
64915SOL    HW196584   4.647  13.171   4.293
64915SOL    HW296585   4.612  13.319   4.295
64916SOL     OW96586   6.302   6.429   9.816
64916SOL    HW196587   6.380   6.430   9.761
64916SOL    HW296588   6.248   6.500   9.781
64917SOL     OW96589  14.620  13.150   9.758
64917SOL    HW196590  14.586  13.238   9.742
64917SOL    HW296591  14.541  13.096   9.769
64918SOL     OW96592   9.519   2.328  12.663
64918SOL    HW196593   9.545   2.287  12.580
64918SOL    HW296594   9.600   2.365  12.698
64919SOL     OW96595   4.386   8.588  11.961
64919SOL    HW196596   4.393   8.665  12.018
64919SOL    HW296597   4.349   8.520  12.017
64920SOL     OW96598   8.186  14.677   4.183
64920SOL    HW196599   8.159  14.684   4.091
64920SOL    HW296600   8.107  14.697   4.233
64921SOL     OW96601  10.906   7.376  11.978
64921SOL    HW196602  10.976   7.381  12.043
64921SOL    HW296603  10.951   7.383  11.894
64922SOL     OW96604  14.331   3.066   6.341
64922SOL    HW196605  14.309   3.020   6.422
64922SOL    HW296606  14.259   3.045   6.281
64923SOL     OW96607   0.729   1.834  14.114
64923SOL    HW196608   0.815   1.856  14.151
64923SOL    HW296609   0.749   1.792  14.031
64924SOL     OW96610   1.460   1.133   3.321
64924SOL    HW196611   1.491   1.215   3.358
64924SOL    HW296612   1.409   1.158   3.244
64925SOL     OW96613   7.256   4.339   1.970
64925SOL    HW196614   7.332   4.329   2.027
64925SOL    HW296615   7.183   4.303   2.021
64926SOL     OW96616   9.340  10.390  11.767
64926SOL    HW196617   9.421  10.415  11.723
64926SOL    HW296618   9.368  10.339  11.842
64927SOL     OW96619  10.288   7.793   7.640
64927SOL    HW196620  10.355   7.828   7.698
64927SOL    HW296621  10.221   7.862   7.637
64928SOL     OW96622   3.022   4.103  11.477
64928SOL    HW196623   3.043   4.010  11.474
64928SOL    HW296624   3.081   4.143  11.414
64929SOL     OW96625   4.727   5.946   9.383
64929SOL    HW196626   4.798   5.910   9.436
64929SOL    HW296627   4.767   6.022   9.339
64930SOL     OW96628   8.033   6.090   3.536
64930SOL    HW196629   7.996   6.146   3.468
64930SOL    HW296630   8.114   6.057   3.499
64931SOL     OW96631   4.351  11.487   6.954
64931SOL    HW196632   4.273  11.536   6.979
64931SOL    HW296633   4.379  11.444   7.034
64932SOL     OW96634  10.921   8.770   2.032
64932SOL    HW196635  10.859   8.709   1.992
64932SOL    HW296636  10.947   8.727   2.114
64933SOL     OW96637   9.590  10.136   5.209
64933SOL    HW196638   9.554  10.075   5.146
64933SOL    HW296639   9.672  10.095   5.238
64934SOL     OW96640  10.979   0.490   6.990
64934SOL    HW196641  11.037   0.421   7.023
64934SOL    HW296642  11.021   0.572   7.019
64935SOL     OW96643  10.373   9.959   3.239
64935SOL    HW196644  10.377   9.873   3.197
64935SOL    HW296645  10.393  10.021   3.169
64936SOL     OW96646   3.990   0.688   6.584
64936SOL    HW196647   3.998   0.596   6.560
64936SOL    HW296648   4.073   0.727   6.558
64937SOL     OW96649   7.829  11.901  10.875
64937SOL    HW196650   7.841  11.921  10.782
64937SOL    HW296651   7.860  11.811  10.885
64938SOL     OW96652  13.920   4.473   8.057
64938SOL    HW196653  13.898   4.486   7.964
64938SOL    HW296654  14.012   4.496   8.063
64939SOL     OW96655   9.404   5.583   6.722
64939SOL    HW196656   9.456   5.550   6.649
64939SOL    HW296657   9.346   5.648   6.683
64940SOL     OW96658   3.454   3.933   4.444
64940SOL    HW196659   3.432   3.856   4.392
64940SOL    HW296660   3.518   3.902   4.508
64941SOL     OW96661  10.215  13.104   3.709
64941SOL    HW196662  10.244  13.075   3.622
64941SOL    HW296663  10.295  13.107   3.761
64942SOL     OW96664  13.992  14.780  12.684
64942SOL    HW196665  13.897  14.777  12.671
64942SOL    HW296666  14.024  14.703  12.636
64943SOL     OW96667   6.427  14.559   6.534
64943SOL    HW196668   6.498  14.515   6.580
64943SOL    HW296669   6.374  14.598   6.604
64944SOL     OW96670   7.619  14.017   5.999
64944SOL    HW196671   7.555  14.033   6.069
64944SOL    HW296672   7.701  14.050   6.035
64945SOL     OW96673   5.489   8.012   9.085
64945SOL    HW196674   5.518   7.941   9.028
64945SOL    HW296675   5.538   7.998   9.167
64946SOL     OW96676   0.643   5.621   5.522
64946SOL    HW196677   0.652   5.628   5.428
64946SOL    HW296678   0.732   5.617   5.556
64947SOL     OW96679   2.662   6.841   4.923
64947SOL    HW196680   2.746   6.885   4.916
64947SOL    HW296681   2.681   6.763   4.976
64948SOL     OW96682  12.811   4.513   4.003
64948SOL    HW196683  12.897   4.476   4.021
64948SOL    HW296684  12.792   4.566   4.081
64949SOL     OW96685   0.859   9.946   5.386
64949SOL    HW196686   0.850   9.880   5.317
64949SOL    HW296687   0.951   9.972   5.382
64950SOL     OW96688   5.176   0.866  10.916
64950SOL    HW196689   5.158   0.880  10.823
64950SOL    HW296690   5.216   0.779  10.920
64951SOL     OW96691   1.309  10.895   1.710
64951SOL    HW196692   1.257  10.822   1.678
64951SOL    HW296693   1.354  10.861   1.787
64952SOL     OW96694   1.422   3.524  10.476
64952SOL    HW196695   1.327   3.536  10.467
64952SOL    HW296696   1.432   3.486  10.564
64953SOL     OW96697  13.445   2.333   7.185
64953SOL    HW196698  13.438   2.416   7.232
64953SOL    HW296699  13.411   2.353   7.097
64954SOL     OW96700   3.073   6.949   1.384
64954SOL    HW196701   3.096   6.867   1.428
64954SOL    HW296702   2.991   6.976   1.426
64955SOL     OW96703  14.222  10.099   6.620
64955SOL    HW196704  14.307  10.100   6.575
64955SOL    HW296705  14.231  10.031   6.687
64956SOL     OW96706   9.029   1.461  12.319
64956SOL    HW196707   9.112   1.507  12.327
64956SOL    HW296708   9.043   1.397  12.249
64957SOL     OW96709  11.740   2.542   1.385
64957SOL    HW196710  11.728   2.505   1.297
64957SOL    HW296711  11.721   2.635   1.375
64958SOL     OW96712   0.594  14.497   3.251
64958SOL    HW196713   0.591  14.439   3.174
64958SOL    HW296714   0.569  14.583   3.218
64959SOL     OW96715   8.004   5.300  13.173
64959SOL    HW196716   8.073   5.336  13.229
64959SOL    HW296717   7.966   5.377  13.131
64960SOL     OW96718  14.648  11.830   7.212
64960SOL    HW196719  14.593  11.899   7.174
64960SOL    HW296720  14.724  11.826   7.153
64961SOL     OW96721   4.409   1.122  10.969
64961SOL    HW196722   4.328   1.135  10.921
64961SOL    HW296723   4.475   1.171  10.920
64962SOL     OW96724  12.493  13.376   9.277
64962SOL    HW196725  12.408  13.413   9.300
64962SOL    HW296726  12.497  13.293   9.326
64963SOL     OW96727   4.942   7.503  14.870
64963SOL    HW196728   5.037   7.507  14.864
64963SOL    HW296729   4.915   7.452  14.794
64964SOL     OW96730   6.197  10.220  10.318
64964SOL    HW196731   6.287  10.228  10.285
64964SOL    HW296732   6.166  10.310  10.325
64965SOL     OW96733   3.149  12.884   3.270
64965SOL    HW196734   3.133  12.976   3.291
64965SOL    HW296735   3.065  12.852   3.238
64966SOL     OW96736   9.437   2.762  12.774
64966SOL    HW196737   9.459   2.724  12.859
64966SOL    HW296738   9.492   2.715  12.712
64967SOL     OW96739   8.960   5.571  12.510
64967SOL    HW196740   9.040   5.530  12.544
64967SOL    HW296741   8.902   5.497  12.490
64968SOL     OW96742  11.411   8.081   4.490
64968SOL    HW196743  11.403   8.127   4.406
64968SOL    HW296744  11.464   8.004   4.470
64969SOL     OW96745   3.936  13.135  12.904
64969SOL    HW196746   3.918  13.078  12.829
64969SOL    HW296747   4.031  13.150  12.901
64970SOL     OW96748   3.515  10.504   1.458
64970SOL    HW196749   3.427  10.536   1.439
64970SOL    HW296750   3.573  10.567   1.417
64971SOL     OW96751   1.530   0.441   6.852
64971SOL    HW196752   1.536   0.494   6.772
64971SOL    HW296753   1.621   0.430   6.880
64972SOL     OW96754   0.425   9.773  12.910
64972SOL    HW196755   0.376   9.753  12.830
64972SOL    HW296756   0.361   9.814  12.968
64973SOL     OW96757   7.101   9.364   1.601
64973SOL    HW196758   7.178   9.346   1.656
64973SOL    HW296759   7.029   9.371   1.663
64974SOL     OW96760  12.974   0.075   9.987
64974SOL    HW196761  12.896   0.036  10.027
64974SOL    HW296762  13.028  14.879   9.964
64975SOL     OW96763   7.085   3.801  10.766
64975SOL    HW196764   7.021   3.753  10.818
64975SOL    HW296765   7.164   3.747  10.768
64976SOL     OW96766  10.578  14.454   8.815
64976SOL    HW196767  10.587  14.414   8.729
64976SOL    HW296768  10.602  14.546   8.801
64977SOL     OW96769   6.430   5.867  10.103
64977SOL    HW196770   6.408   5.917  10.025
64977SOL    HW296771   6.474   5.789  10.070
64978SOL     OW96772   7.535   5.181  12.520
64978SOL    HW196773   7.531   5.251  12.456
64978SOL    HW296774   7.628   5.174  12.543
64979SOL     OW96775  10.420   9.420  13.877
64979SOL    HW196776  10.488   9.393  13.939
64979SOL    HW296777  10.467   9.467  13.808
64980SOL     OW96778   5.192   5.755  12.572
64980SOL    HW196779   5.098   5.759  12.560
64980SOL    HW296780   5.227   5.748  12.483
64981SOL     OW96781   2.985  11.512   4.020
64981SOL    HW196782   2.955  11.506   4.110
64981SOL    HW296783   3.033  11.595   4.016
64982SOL     OW96784   4.423   9.613  12.134
64982SOL    HW196785   4.356   9.610  12.066
64982SOL    HW296786   4.492   9.555  12.103
64983SOL     OW96787   5.655  12.018   2.952
64983SOL    HW196788   5.659  11.983   2.863
64983SOL    HW296789   5.744  12.047   2.970
64984SOL     OW96790   0.721   1.217   9.274
64984SOL    HW196791   0.660   1.188   9.206
64984SOL    HW296792   0.706   1.156   9.346
64985SOL     OW96793   0.681   5.793  10.751
64985SOL    HW196794   0.622   5.809  10.677
64985SOL    HW296795   0.635   5.727  10.804
64986SOL     OW96796   9.931  11.132   4.961
64986SOL    HW196797   9.887  11.150   4.878
64986SOL    HW296798   9.971  11.046   4.949
64987SOL     OW96799   4.200  12.440   6.101
64987SOL    HW196800   4.140  12.377   6.062
64987SOL    HW296801   4.262  12.387   6.151
64988SOL     OW96802  13.830   2.237   7.210
64988SOL    HW196803  13.756   2.177   7.199
64988SOL    HW296804  13.866   2.247   7.122
64989SOL     OW96805  13.310   4.914  10.945
64989SOL    HW196806  13.262   4.983  10.899
64989SOL    HW296807  13.256   4.895  11.022
64990SOL     OW96808   6.801  10.226   9.396
64990SOL    HW196809   6.840  10.303   9.438
64990SOL    HW296810   6.871  10.162   9.394
64991SOL     OW96811   0.940   6.966   8.945
64991SOL    HW196812   1.033   6.965   8.966
64991SOL    HW296813   0.900   7.015   9.016
64992SOL     OW96814   4.601   9.443   1.924
64992SOL    HW196815   4.622   9.508   1.857
64992SOL    HW296816   4.667   9.456   1.992
64993SOL     OW96817   2.603   7.876   1.438
64993SOL    HW196818   2.553   7.955   1.415
64993SOL    HW296819   2.589   7.865   1.532
64994SOL     OW96820  11.042   8.284  13.983
64994SOL    HW196821  11.088   8.271  13.900
64994SOL    HW296822  11.111   8.286  14.049
64995SOL     OW96823   0.938  13.600   6.994
64995SOL    HW196824   0.880  13.532   7.029
64995SOL    HW296825   0.984  13.557   6.922
64996SOL     OW96826   1.835   4.018   8.226
64996SOL    HW196827   1.840   3.933   8.181
64996SOL    HW296828   1.848   4.083   8.156
64997SOL     OW96829   5.761  13.367   6.566
64997SOL    HW196830   5.817  13.290   6.573
64997SOL    HW296831   5.752  13.381   6.472
64998SOL     OW96832   0.200   9.459   4.268
64998SOL    HW196833   0.219   9.552   4.277
64998SOL    HW296834   0.122   9.456   4.212
64999SOL     OW96835   5.358   8.611   8.226
64999SOL    HW196836   5.399   8.551   8.165
64999SOL    HW296837   5.267   8.583   8.230
65000SOL     OW96838  12.273   1.535   0.057
65000SOL    HW196839  12.274   1.439   0.052
65000SOL    HW296840  12.291   1.554   0.149
65001SOL     OW96841   2.069   9.526   2.652
65001SOL    HW196842   2.059   9.432   2.635
65001SOL    HW296843   2.099   9.531   2.742
65002SOL     OW96844  10.302   3.998  10.534
65002SOL    HW196845  10.247   3.933  10.490
65002SOL    HW296846  10.322   3.960  10.619
65003SOL     OW96847   6.261   4.705  11.026
65003SOL    HW196848   6.187   4.708  11.087
65003SOL    HW296849   6.301   4.620  11.041
65004SOL     OW96850  10.744   0.508  14.522
65004SOL    HW196851  10.687   0.490  14.596
65004SOL    HW296852  10.822   0.455  14.537
65005SOL     OW96853  12.778  12.857   6.124
65005SOL    HW196854  12.723  12.822   6.054
65005SOL    HW296855  12.789  12.950   6.102
65006SOL     OW96856   0.609  11.902   0.725
65006SOL    HW196857   0.618  11.981   0.778
65006SOL    HW296858   0.658  11.920   0.645
65007SOL     OW96859   0.545  10.356   2.657
65007SOL    HW196860   0.538  10.449   2.634
65007SOL    HW296861   0.592  10.356   2.741
65008SOL     OW96862   9.158  12.759   7.752
65008SOL    HW196863   9.088  12.820   7.774
65008SOL    HW296864   9.113  12.677   7.732
65009SOL     OW96865   1.908  10.324   0.030
65009SOL    HW196866   1.881  10.290   0.115
65009SOL    HW296867   1.865  10.266  14.846
65010SOL     OW96868   3.322   9.605  11.331
65010SOL    HW196869   3.252   9.539  11.332
65010SOL    HW296870   3.321   9.640  11.242
65011SOL     OW96871   7.340   8.313  13.673
65011SOL    HW196872   7.273   8.247  13.654
65011SOL    HW296873   7.309   8.393  13.630
65012SOL     OW96874   5.573  12.355   3.838
65012SOL    HW196875   5.569  12.312   3.753
65012SOL    HW296876   5.490  12.334   3.880
65013SOL     OW96877   5.222   9.172   0.687
65013SOL    HW196878   5.293   9.228   0.718
65013SOL    HW296879   5.208   9.199   0.596
65014SOL     OW96880   0.935   0.549   4.338
65014SOL    HW196881   0.931   0.515   4.249
65014SOL    HW296882   0.959   0.641   4.328
65015SOL     OW96883   5.527   1.446   0.802
65015SOL    HW196884   5.508   1.505   0.729
65015SOL    HW296885   5.530   1.359   0.761
65016SOL     OW96886   1.786   9.019   6.886
65016SOL    HW196887   1.711   9.078   6.889
65016SOL    HW296888   1.822   9.020   6.975
65017SOL     OW96889   0.234  14.295  10.238
65017SOL    HW196890   0.247  14.201  10.255
65017SOL    HW296891   0.143  14.311  10.261
65018SOL     OW96892   1.963  13.191   4.132
65018SOL    HW196893   2.004  13.264   4.084
65018SOL    HW296894   1.869  13.202   4.115
65019SOL     OW96895   5.779  14.290   4.777
65019SOL    HW196896   5.839  14.271   4.849
65019SOL    HW296897   5.797  14.381   4.754
65020SOL     OW96898  14.555   0.317   6.893
65020SOL    HW196899  14.632   0.359   6.857
65020SOL    HW296900  14.560   0.334   6.987
65021SOL     OW96901   7.918  11.774   0.750
65021SOL    HW196902   7.830  11.779   0.713
65021SOL    HW296903   7.976  11.792   0.676
65022SOL     OW96904   8.193   3.758   2.826
65022SOL    HW196905   8.133   3.815   2.778
65022SOL    HW296906   8.279   3.776   2.789
65023SOL     OW96907  12.850  11.968   6.240
65023SOL    HW196908  12.762  11.947   6.271
65023SOL    HW296909  12.854  12.064   6.242
65024SOL     OW96910   1.788   0.781  13.341
65024SOL    HW196911   1.741   0.851  13.294
65024SOL    HW296912   1.753   0.700  13.303
65025SOL     OW96913   6.068  12.295  11.206
65025SOL    HW196914   6.098  12.252  11.286
65025SOL    HW296915   6.141  12.285  11.145
65026SOL     OW96916  13.236   3.706   0.003
65026SOL    HW196917  13.318   3.667  14.854
65026SOL    HW296918  13.179   3.631   0.021
65027SOL     OW96919   7.407   6.055  12.817
65027SOL    HW196920   7.331   6.037  12.762
65027SOL    HW296921   7.370   6.090  12.898
65028SOL     OW96922   1.343   7.597  13.973
65028SOL    HW196923   1.398   7.574  13.898
65028SOL    HW296924   1.352   7.524  14.034
65029SOL     OW96925  13.476  11.841   0.583
65029SOL    HW196926  13.559  11.798   0.563
65029SOL    HW296927  13.492  11.933   0.564
65030SOL     OW96928  11.725   4.614   2.355
65030SOL    HW196929  11.724   4.651   2.267
65030SOL    HW296930  11.804   4.560   2.357
65031SOL     OW96931   7.691   8.772  13.216
65031SOL    HW196932   7.711   8.687  13.176
65031SOL    HW296933   7.611   8.757  13.266
65032SOL     OW96934   8.989  11.123   6.781
65032SOL    HW196935   8.923  11.085   6.723
65032SOL    HW296936   8.938  11.173   6.844
65033SOL     OW96937  13.054   5.137  10.932
65033SOL    HW196938  13.005   5.061  10.964
65033SOL    HW296939  13.027   5.209  10.988
65034SOL     OW96940  10.981   6.336   5.632
65034SOL    HW196941  10.964   6.356   5.540
65034SOL    HW296942  10.927   6.398   5.681
65035SOL     OW96943  13.827   1.076  13.002
65035SOL    HW196944  13.815   1.107  13.092
65035SOL    HW296945  13.742   1.089  12.960
65036SOL     OW96946  14.071   4.816  13.050
65036SOL    HW196947  14.017   4.742  13.076
65036SOL    HW296948  14.160   4.790  13.074
65037SOL     OW96949   4.767   3.065  10.616
65037SOL    HW196950   4.734   3.104  10.535
65037SOL    HW296951   4.692   3.065  10.675
65038SOL     OW96952   5.414   7.227  12.125
65038SOL    HW196953   5.467   7.227  12.205
65038SOL    HW296954   5.345   7.163  12.141
65039SOL     OW96955  11.001   2.449   0.181
65039SOL    HW196956  10.995   2.393   0.259
65039SOL    HW296957  11.095   2.450   0.160
65040SOL     OW96958  14.298   7.035  12.569
65040SOL    HW196959  14.342   7.095  12.629
65040SOL    HW296960  14.288   6.954  12.619
65041SOL     OW96961   7.398   2.183   9.461
65041SOL    HW196962   7.485   2.184   9.499
65041SOL    HW296963   7.365   2.272   9.475
65042SOL     OW96964  12.722  10.474  13.072
65042SOL    HW196965  12.797  10.529  13.096
65042SOL    HW296966  12.647  10.517  13.113
65043SOL     OW96967   1.083  11.837  11.283
65043SOL    HW196968   1.116  11.877  11.363
65043SOL    HW296969   1.112  11.895  11.213
65044SOL     OW96970  10.758   0.923   5.506
65044SOL    HW196971  10.808   0.942   5.586
65044SOL    HW296972  10.732   1.010   5.474
65045SOL     OW96973   1.503   5.407  13.939
65045SOL    HW196974   1.587   5.431  13.899
65045SOL    HW296975   1.500   5.312  13.933
65046SOL     OW96976  13.708  12.918   1.252
65046SOL    HW196977  13.796  12.894   1.280
65046SOL    HW296978  13.690  13.000   1.298
65047SOL     OW96979  13.044  12.725   5.739
65047SOL    HW196980  13.012  12.810   5.766
65047SOL    HW296981  13.135  12.722   5.769
65048SOL     OW96982   1.456   1.414   1.274
65048SOL    HW196983   1.519   1.404   1.202
65048SOL    HW296984   1.486   1.491   1.322
65049SOL     OW96985   1.248  14.034   7.421
65049SOL    HW196986   1.225  14.123   7.395
65049SOL    HW296987   1.259  13.986   7.339
65050SOL     OW96988  11.238  13.798   6.174
65050SOL    HW196989  11.316  13.771   6.223
65050SOL    HW296990  11.167  13.793   6.238
65051SOL     OW96991   6.159  11.741  10.251
65051SOL    HW196992   6.191  11.742  10.341
65051SOL    HW296993   6.213  11.676  10.207
65052SOL     OW96994   2.905   1.096   5.103
65052SOL    HW196995   2.832   1.102   5.164
65052SOL    HW296996   2.888   1.016   5.053
65053SOL     OW96997   6.250  13.495   8.214
65053SOL    HW196998   6.283  13.572   8.262
65053SOL    HW296999   6.192  13.451   8.276
65054SOL     OW97000   3.115   7.570   4.559
65054SOL    HW197001   3.107   7.547   4.467
65054SOL    HW297002   3.100   7.487   4.605
65055SOL     OW97003   9.593   3.612   6.391
65055SOL    HW197004   9.633   3.573   6.314
65055SOL    HW297005   9.607   3.706   6.381
65056SOL     OW97006  12.149  12.767   1.407
65056SOL    HW197007  12.217  12.811   1.457
65056SOL    HW297008  12.182  12.764   1.317
65057SOL     OW97009   5.244  12.445   2.836
65057SOL    HW197010   5.254  12.408   2.749
65057SOL    HW297011   5.156  12.420   2.863
65058SOL     OW97012   0.263   8.738   9.324
65058SOL    HW197013   0.179   8.700   9.299
65058SOL    HW297014   0.321   8.663   9.335
65059SOL     OW97015   8.293   3.472  12.819
65059SOL    HW197016   8.295   3.531  12.744
65059SOL    HW297017   8.379   3.429  12.818
65060SOL     OW97018   0.306  13.608  12.312
65060SOL    HW197019   0.215  13.596  12.337
65060SOL    HW297020   0.342  13.669  12.377
65061SOL     OW97021  13.902   3.751   8.877
65061SOL    HW197022  13.954   3.830   8.887
65061SOL    HW297023  13.954   3.682   8.916
65062SOL     OW97024   1.581   0.987  11.776
65062SOL    HW197025   1.593   1.063  11.832
65062SOL    HW297026   1.493   0.997  11.740
65063SOL     OW97027   5.363   2.249  11.980
65063SOL    HW197028   5.428   2.284  12.042
65063SOL    HW297029   5.314   2.185  12.031
65064SOL     OW97030  14.174   2.893   9.875
65064SOL    HW197031  14.216   2.880   9.960
65064SOL    HW297032  14.165   2.805   9.839
65065SOL     OW97033   3.341   7.651  11.006
65065SOL    HW197034   3.272   7.613  10.952
65065SOL    HW297035   3.421   7.608  10.977
65066SOL     OW97036   6.977   6.010   6.479
65066SOL    HW197037   7.016   6.070   6.543
65066SOL    HW297038   6.883   6.027   6.485
65067SOL     OW97039   2.009   7.110  13.245
65067SOL    HW197040   1.958   7.058  13.182
65067SOL    HW297041   1.953   7.185  13.264
65068SOL     OW97042   9.301  11.911   0.025
65068SOL    HW197043   9.266  11.832  14.862
65068SOL    HW297044   9.355  11.878   0.097
65069SOL     OW97045   1.168  13.764   6.460
65069SOL    HW197046   1.104  13.795   6.524
65069SOL    HW297047   1.184  13.840   6.404
65070SOL     OW97048   8.611  14.102   8.735
65070SOL    HW197049   8.654  14.017   8.731
65070SOL    HW297050   8.541  14.098   8.669
65071SOL     OW97051   4.299  12.027  14.158
65071SOL    HW197052   4.242  12.041  14.234
65071SOL    HW297053   4.328  12.115  14.134
65072SOL     OW97054  11.130   7.617   2.791
65072SOL    HW197055  11.158   7.530   2.818
65072SOL    HW297056  11.196   7.676   2.829
65073SOL     OW97057  12.717   1.450  10.265
65073SOL    HW197058  12.788   1.470  10.326
65073SOL    HW297059  12.702   1.531  10.218
65074SOL     OW97060   1.357   5.541   6.842
65074SOL    HW197061   1.325   5.469   6.896
65074SOL    HW297062   1.278   5.582   6.806
65075SOL     OW97063   0.456   9.215   9.592
65075SOL    HW197064   0.545   9.181   9.606
65075SOL    HW297065   0.442   9.207   9.498
65076SOL     OW97066  11.333   3.753  13.460
65076SOL    HW197067  11.385   3.824  13.424
65076SOL    HW297068  11.374   3.734  13.545
65077SOL     OW97069   2.468  14.652   8.846
65077SOL    HW197070   2.441  14.744   8.846
65077SOL    HW297071   2.489  14.634   8.938
65078SOL     OW97072  11.504   7.422   3.620
65078SOL    HW197073  11.493   7.361   3.547
65078SOL    HW297074  11.546   7.499   3.581
65079SOL     OW97075   5.941  14.802   5.193
65079SOL    HW197076   5.887  14.774   5.267
65079SOL    HW297077   6.027  14.762   5.210
65080SOL     OW97078   7.242   0.692  13.430
65080SOL    HW197079   7.151   0.685  13.460
65080SOL    HW297080   7.241   0.761  13.364
65081SOL     OW97081  11.977   1.054  10.992
65081SOL    HW197082  12.062   1.012  10.985
65081SOL    HW297083  11.994   1.135  11.040
65082SOL     OW97084   6.293  13.297   5.413
65082SOL    HW197085   6.224  13.231   5.405
65082SOL    HW297086   6.246  13.380   5.416
65083SOL     OW97087   8.111   3.594   5.464
65083SOL    HW197088   8.197   3.579   5.424
65083SOL    HW297089   8.089   3.511   5.506
65084SOL     OW97090   7.767   1.437   8.205
65084SOL    HW197091   7.700   1.388   8.156
65084SOL    HW297092   7.802   1.500   8.142
65085SOL     OW97093   7.051   2.201  11.428
65085SOL    HW197094   6.991   2.152  11.485
65085SOL    HW297095   6.993   2.253  11.372
65086SOL     OW97096   3.136   9.290   7.750
65086SOL    HW197097   3.056   9.342   7.746
65086SOL    HW297098   3.204   9.353   7.771
65087SOL     OW97099   8.339   9.759   2.638
65087SOL    HW197100   8.357   9.730   2.549
65087SOL    HW297101   8.248   9.791   2.635
65088SOL     OW97102  10.800   4.143   7.623
65088SOL    HW197103  10.822   4.208   7.557
65088SOL    HW297104  10.869   4.151   7.689
65089SOL     OW97105   8.897  11.143  10.024
65089SOL    HW197106   8.819  11.127   9.971
65089SOL    HW297107   8.960  11.077   9.995
65090SOL     OW97108   4.507   2.913   7.618
65090SOL    HW197109   4.504   2.965   7.538
65090SOL    HW297110   4.417   2.909   7.649
65091SOL     OW97111   8.811   1.244   3.162
65091SOL    HW197112   8.747   1.198   3.107
65091SOL    HW297113   8.802   1.336   3.138
65092SOL     OW97114   7.885   5.267   2.458
65092SOL    HW197115   7.959   5.300   2.510
65092SOL    HW297116   7.925   5.237   2.377
65093SOL     OW97117   6.973   6.311   6.723
65093SOL    HW197118   6.892   6.324   6.772
65093SOL    HW297119   6.986   6.393   6.676
65094SOL     OW97120  12.492  14.872  10.208
65094SOL    HW197121  12.575   0.010  10.253
65094SOL    HW297122  12.491   0.054  10.135
65095SOL     OW97123   1.188  11.486   0.264
65095SOL    HW197124   1.212  11.478   0.172
65095SOL    HW297125   1.228  11.569   0.292
65096SOL     OW97126   7.922   1.411   6.799
65096SOL    HW197127   7.931   1.504   6.820
65096SOL    HW297128   7.881   1.410   6.713
65097SOL     OW97129  14.334   0.661   6.428
65097SOL    HW197130  14.309   0.661   6.336
65097SOL    HW297131  14.368   0.749   6.444
65098SOL     OW97132   1.951   2.121  13.506
65098SOL    HW197133   2.008   2.160  13.572
65098SOL    HW297134   1.896   2.060  13.556
65099SOL     OW97135   7.343   1.530  13.961
65099SOL    HW197136   7.319   1.510  14.051
65099SOL    HW297137   7.438   1.537  13.962
65100SOL     OW97138   3.612   0.355   6.968
65100SOL    HW197139   3.528   0.315   6.949
65100SOL    HW297140   3.672   0.315   6.905
65101SOL     OW97141   6.904   3.117   6.872
65101SOL    HW197142   6.927   3.027   6.895
65101SOL    HW297143   6.899   3.163   6.955
65102SOL     OW97144   3.998   3.257  12.375
65102SOL    HW197145   3.963   3.333  12.420
65102SOL    HW297146   4.067   3.224  12.432
65103SOL     OW97147   9.628  12.219   3.659
65103SOL    HW197148   9.646  12.153   3.593
65103SOL    HW297149   9.550  12.188   3.704
65104SOL     OW97150   8.393   2.543  13.978
65104SOL    HW197151   8.472   2.595  13.996
65104SOL    HW297152   8.330   2.606  13.943
65105SOL     OW97153   6.446  10.611  13.042
65105SOL    HW197154   6.459  10.525  13.004
65105SOL    HW297155   6.359  10.607  13.084
65106SOL     OW97156   7.615  10.789   4.858
65106SOL    HW197157   7.595  10.861   4.917
65106SOL    HW297158   7.536  10.779   4.804
65107SOL     OW97159   1.305  10.111   3.885
65107SOL    HW197160   1.286  10.024   3.850
65107SOL    HW297161   1.269  10.109   3.974
65108SOL     OW97162   8.505   0.898  12.226
65108SOL    HW197163   8.552   0.901  12.142
65108SOL    HW297164   8.517   0.985  12.263
65109SOL     OW97165   6.638   8.060  13.182
65109SOL    HW197166   6.644   7.975  13.224
65109SOL    HW297167   6.545   8.083  13.187
65110SOL     OW97168   5.588  13.672   3.314
65110SOL    HW197169   5.681  13.658   3.296
65110SOL    HW297170   5.544  13.597   3.274
65111SOL     OW97171   7.041   5.576   0.684
65111SOL    HW197172   7.067   5.636   0.614
65111SOL    HW297173   6.988   5.510   0.640
65112SOL     OW97174   8.951   4.017   2.532
65112SOL    HW197175   8.968   4.112   2.533
65112SOL    HW297176   8.983   3.989   2.446
65113SOL     OW97177   5.040  12.938   2.520
65113SOL    HW197178   5.003  13.016   2.562
65113SOL    HW297179   4.971  12.907   2.462
65114SOL     OW97180  13.611   5.652   7.054
65114SOL    HW197181  13.524   5.626   7.084
65114SOL    HW297182  13.609   5.640   6.959
65115SOL     OW97183   5.429  13.887  12.219
65115SOL    HW197184   5.475  13.814  12.259
65115SOL    HW297185   5.372  13.921  12.288
65116SOL     OW97186   7.703   3.681   0.666
65116SOL    HW197187   7.745   3.758   0.626
65116SOL    HW297188   7.611   3.689   0.644
65117SOL     OW97189  13.328  13.241   4.290
65117SOL    HW197190  13.310  13.147   4.293
65117SOL    HW297191  13.422  13.248   4.301
65118SOL     OW97192  11.744   6.380   8.196
65118SOL    HW197193  11.686   6.351   8.266
65118SOL    HW297194  11.686   6.397   8.122
65119SOL     OW97195  10.674   2.111   1.022
65119SOL    HW197196  10.681   2.023   0.985
65119SOL    HW297197  10.704   2.101   1.113
65120SOL     OW97198   4.936   7.860   2.395
65120SOL    HW197199   4.943   7.788   2.332
65120SOL    HW297200   4.859   7.838   2.447
65121SOL     OW97201  13.682  12.194   7.226
65121SOL    HW197202  13.741  12.238   7.287
65121SOL    HW297203  13.628  12.265   7.190
65122SOL     OW97204   4.419   5.414   6.577
65122SOL    HW197205   4.428   5.320   6.561
65122SOL    HW297206   4.368   5.421   6.658
65123SOL     OW97207   5.450   9.357   5.909
65123SOL    HW197208   5.484   9.352   5.820
65123SOL    HW297209   5.527   9.341   5.964
65124SOL     OW97210  11.793   6.015   7.182
65124SOL    HW197211  11.861   6.001   7.116
65124SOL    HW297212  11.750   5.930   7.190
65125SOL     OW97213   0.562   0.328   5.074
65125SOL    HW197214   0.522   0.277   5.144
65125SOL    HW297215   0.501   0.321   5.001
65126SOL     OW97216   3.781   8.957  14.104
65126SOL    HW197217   3.713   9.024  14.109
65126SOL    HW297218   3.850   8.989  14.162
65127SOL     OW97219   2.982   2.602   7.197
65127SOL    HW197220   3.017   2.571   7.281
65127SOL    HW297221   2.959   2.694   7.213
65128SOL     OW97222  11.491   8.565   9.249
65128SOL    HW197223  11.403   8.601   9.233
65128SOL    HW297224  11.521   8.537   9.163
65129SOL     OW97225   1.136  10.701   7.882
65129SOL    HW197226   1.110  10.718   7.792
65129SOL    HW297227   1.164  10.609   7.883
65130SOL     OW97228   2.185  14.623   0.580
65130SOL    HW197229   2.255  14.597   0.640
65130SOL    HW297230   2.158  14.710   0.610
65131SOL     OW97231   5.344  12.381   0.561
65131SOL    HW197232   5.357  12.291   0.530
65131SOL    HW297233   5.425  12.403   0.606
65132SOL     OW97234   3.987  12.056   5.047
65132SOL    HW197235   4.014  11.968   5.073
65132SOL    HW297236   4.003  12.060   4.953
65133SOL     OW97237   9.479  13.130   5.002
65133SOL    HW197238   9.396  13.164   5.036
65133SOL    HW297239   9.508  13.068   5.069
65134SOL     OW97240  11.602   3.026   6.383
65134SOL    HW197241  11.514   3.045   6.413
65134SOL    HW297242  11.596   2.938   6.344
65135SOL     OW97243  12.692   2.207   9.766
65135SOL    HW197244  12.630   2.157   9.713
65135SOL    HW297245  12.673   2.181   9.856
65136SOL     OW97246   1.376   6.284   2.269
65136SOL    HW197247   1.336   6.370   2.260
65136SOL    HW297248   1.399   6.258   2.180
65137SOL     OW97249  12.946  14.033   7.104
65137SOL    HW197250  12.972  13.995   7.020
65137SOL    HW297251  12.921  13.957   7.157
65138SOL     OW97252   7.584  14.292  11.490
65138SOL    HW197253   7.642  14.250  11.427
65138SOL    HW297254   7.627  14.375  11.512
65139SOL     OW97255   7.957   0.376   8.033
65139SOL    HW197256   7.868   0.391   8.064
65139SOL    HW297257   8.012   0.429   8.091
65140SOL     OW97258   9.315   9.372   5.262
65140SOL    HW197259   9.290   9.312   5.192
65140SOL    HW297260   9.341   9.453   5.216
65141SOL     OW97261  12.791  14.686  11.849
65141SOL    HW197262  12.730  14.757  11.828
65141SOL    HW297263  12.768  14.660  11.938
65142SOL     OW97264   9.062   9.382  11.051
65142SOL    HW197265   9.153   9.409  11.037
65142SOL    HW297266   9.063   9.287  11.039
65143SOL     OW97267   0.922   9.652   8.458
65143SOL    HW197268   0.976   9.596   8.514
65143SOL    HW297269   0.848   9.676   8.514
65144SOL     OW97270   1.324   0.896   9.909
65144SOL    HW197271   1.396   0.842   9.942
65144SOL    HW297272   1.289   0.940   9.987
65145SOL     OW97273  12.596   3.399  13.577
65145SOL    HW197274  12.529   3.466  13.585
65145SOL    HW297275  12.557   3.322  13.619
65146SOL     OW97276   1.728   3.713  14.697
65146SOL    HW197277   1.761   3.725  14.786
65146SOL    HW297278   1.771   3.633  14.667
65147SOL     OW97279   4.450   8.017   0.691
65147SOL    HW197280   4.526   8.075   0.697
65147SOL    HW297281   4.487   7.932   0.668
65148SOL     OW97282   2.479  11.110  13.090
65148SOL    HW197283   2.559  11.163  13.091
65148SOL    HW297284   2.418  11.157  13.146
65149SOL     OW97285   1.359   2.096   5.995
65149SOL    HW197286   1.277   2.074   5.950
65149SOL    HW297287   1.421   2.030   5.966
65150SOL     OW97288   0.631   1.688   9.069
65150SOL    HW197289   0.677   1.638   9.136
65150SOL    HW297290   0.608   1.770   9.112
65151SOL     OW97291  11.370  10.942  11.163
65151SOL    HW197292  11.424  11.020  11.177
65151SOL    HW297293  11.428  10.880  11.118
65152SOL     OW97294  10.694   5.739  13.447
65152SOL    HW197295  10.668   5.681  13.375
65152SOL    HW297296  10.702   5.681  13.522
65153SOL     OW97297   8.714   0.430   1.954
65153SOL    HW197298   8.719   0.366   2.025
65153SOL    HW297299   8.674   0.507   1.993
65154SOL     OW97300   0.080  13.923  14.314
65154SOL    HW197301   0.024  13.864  14.263
65154SOL    HW297302   0.169  13.901  14.286
65155SOL     OW97303   2.094  11.433  11.238
65155SOL    HW197304   2.181  11.472  11.235
65155SOL    HW297305   2.061  11.441  11.149
65156SOL     OW97306   1.979  12.217  12.727
65156SOL    HW197307   1.916  12.167  12.777
65156SOL    HW297308   1.964  12.191  12.636
65157SOL     OW97309   3.404   5.366   2.859
65157SOL    HW197310   3.481   5.383   2.914
65157SOL    HW297311   3.333   5.351   2.921
65158SOL     OW97312   0.296   4.005  10.041
65158SOL    HW197313   0.287   3.950   9.963
65158SOL    HW297314   0.241   3.962  10.106
65159SOL     OW97315  10.887  10.574  14.560
65159SOL    HW197316  10.922  10.656  14.594
65159SOL    HW297317  10.806  10.560  14.609
65160SOL     OW97318   4.003   0.221  13.910
65160SOL    HW197319   3.965   0.219  13.822
65160SOL    HW297320   3.962   0.297  13.952
65161SOL     OW97321  10.226   6.114   5.432
65161SOL    HW197322  10.131   6.120   5.443
65161SOL    HW297323  10.238   6.058   5.355
65162SOL     OW97324   9.661  10.570   9.748
65162SOL    HW197325   9.597  10.506   9.780
65162SOL    HW297326   9.660  10.559   9.653
65163SOL     OW97327   5.614   3.315  10.246
65163SOL    HW197328   5.539   3.356  10.288
65163SOL    HW297329   5.623   3.361  10.163
65164SOL     OW97330   5.945   4.921   9.310
65164SOL    HW197331   5.974   4.830   9.314
65164SOL    HW297332   5.850   4.916   9.320
65165SOL     OW97333   3.045  12.165  10.579
65165SOL    HW197334   3.085  12.251  10.570
65165SOL    HW297335   3.104  12.117  10.638
65166SOL     OW97336  10.093  11.410   3.476
65166SOL    HW197337  10.058  11.330   3.515
65166SOL    HW297338  10.082  11.477   3.544
65167SOL     OW97339  14.518  10.017   4.713
65167SOL    HW197340  14.577   9.949   4.682
65167SOL    HW297341  14.562  10.054   4.789
65168SOL     OW97342  12.860   3.786   1.131
65168SOL    HW197343  12.880   3.732   1.055
65168SOL    HW297344  12.767   3.806   1.123
65169SOL     OW97345   1.949   7.027   6.312
65169SOL    HW197346   1.985   7.114   6.294
65169SOL    HW297347   2.019   6.982   6.359
65170SOL     OW97348   6.139   8.470   9.196
65170SOL    HW197349   6.208   8.521   9.239
65170SOL    HW297350   6.070   8.533   9.178
65171SOL     OW97351   3.160   6.370  10.810
65171SOL    HW197352   3.198   6.286  10.785
65171SOL    HW297353   3.180   6.379  10.903
65172SOL     OW97354   7.997   1.827  11.840
65172SOL    HW197355   7.901   1.825  11.834
65172SOL    HW297356   8.015   1.892  11.908
65173SOL     OW97357  10.261   7.072   8.133
65173SOL    HW197358  10.313   7.135   8.083
65173SOL    HW297359  10.171   7.106   8.129
65174SOL     OW97360  11.581   1.944   3.409
65174SOL    HW197361  11.566   2.006   3.338
65174SOL    HW297362  11.555   1.991   3.488
65175SOL     OW97363   2.911   1.731   2.596
65175SOL    HW197364   2.950   1.780   2.668
65175SOL    HW297365   2.934   1.640   2.613
65176SOL     OW97366   3.708  11.896   5.853
65176SOL    HW197367   3.797  11.884   5.820
65176SOL    HW297368   3.715  11.968   5.916
65177SOL     OW97369   7.309   4.817   8.768
65177SOL    HW197370   7.243   4.772   8.821
65177SOL    HW297371   7.369   4.856   8.832
65178SOL     OW97372   8.814   5.566  14.090
65178SOL    HW197373   8.774   5.544  14.174
65178SOL    HW297374   8.743   5.606  14.040
65179SOL     OW97375  10.248  13.470   9.868
65179SOL    HW197376  10.173  13.496   9.921
65179SOL    HW297377  10.304  13.548   9.864
65180SOL     OW97378   7.844  12.889  13.204
65180SOL    HW197379   7.938  12.877  13.212
65180SOL    HW297380   7.806  12.819  13.257
65181SOL     OW97381   8.672   5.985   1.988
65181SOL    HW197382   8.583   6.008   1.961
65181SOL    HW297383   8.661   5.905   2.040
65182SOL     OW97384  11.469   0.166   7.826
65182SOL    HW197385  11.477   0.197   7.736
65182SOL    HW297386  11.390   0.112   7.826
65183SOL     OW97387   5.633  10.653   3.939
65183SOL    HW197388   5.631  10.737   3.894
65183SOL    HW297389   5.726  10.635   3.953
65184SOL     OW97390   6.128   9.240   3.121
65184SOL    HW197391   6.178   9.169   3.162
65184SOL    HW297392   6.080   9.280   3.193
65185SOL     OW97393   6.640  12.085   9.816
65185SOL    HW197394   6.579  12.157   9.830
65185SOL    HW297395   6.595  12.008   9.851
65186SOL     OW97396  10.836   6.236   5.152
65186SOL    HW197397  10.749   6.196   5.162
65186SOL    HW297398  10.894   6.162   5.136
65187SOL     OW97399  12.673   4.357  11.040
65187SOL    HW197400  12.665   4.265  11.064
65187SOL    HW297401  12.586   4.394  11.055
65188SOL     OW97402   1.840   2.718   2.710
65188SOL    HW197403   1.835   2.649   2.645
65188SOL    HW297404   1.838   2.799   2.659
65189SOL     OW97405   0.705   9.265   1.742
65189SOL    HW197406   0.735   9.305   1.660
65189SOL    HW297407   0.779   9.278   1.802
65190SOL     OW97408   7.582  11.099   0.733
65190SOL    HW197409   7.640  11.031   0.768
65190SOL    HW297410   7.632  11.180   0.742
65191SOL     OW97411  11.752   4.402   1.202
65191SOL    HW197412  11.797   4.480   1.236
65191SOL    HW297413  11.823   4.345   1.173
65192SOL     OW97414   1.413   3.324  11.568
65192SOL    HW197415   1.493   3.374  11.584
65192SOL    HW297416   1.387   3.292  11.654
65193SOL     OW97417  13.000   4.228   8.284
65193SOL    HW197418  13.061   4.156   8.268
65193SOL    HW297419  12.936   4.221   8.214
65194SOL     OW97420   8.933  14.012  13.544
65194SOL    HW197421   8.859  14.056  13.501
65194SOL    HW297422   8.943  13.930  13.496
65195SOL     OW97423   0.076   6.264   7.212
65195SOL    HW197424  14.875   6.212   7.219
65195SOL    HW297425   0.085   6.306   7.298
65196SOL     OW97426   6.360   7.842  11.842
65196SOL    HW197427   6.432   7.782  11.823
65196SOL    HW297428   6.392   7.928  11.813
65197SOL     OW97429  11.193  12.569   1.292
65197SOL    HW197430  11.197  12.594   1.200
65197SOL    HW297431  11.210  12.650   1.340
65198SOL     OW97432   9.238   5.694   1.461
65198SOL    HW197433   9.240   5.756   1.534
65198SOL    HW297434   9.282   5.740   1.389
65199SOL     OW97435   0.181   5.667   8.097
65199SOL    HW197436   0.275   5.677   8.113
65199SOL    HW297437   0.146   5.755   8.107
65200SOL     OW97438  13.862  13.693   2.443
65200SOL    HW197439  13.941  13.736   2.474
65200SOL    HW297440  13.835  13.745   2.367
65201SOL     OW97441   3.997   3.976   2.028
65201SOL    HW197442   4.034   3.947   1.945
65201SOL    HW297443   3.920   4.027   2.004
65202SOL     OW97444  14.589  14.093   8.741
65202SOL    HW197445  14.678  14.066   8.719
65202SOL    HW297446  14.598  14.184   8.772
65203SOL     OW97447   2.432  13.041   9.301
65203SOL    HW197448   2.360  13.081   9.350
65203SOL    HW297449   2.415  12.947   9.307
65204SOL     OW97450   1.366  10.397   5.314
65204SOL    HW197451   1.460  10.416   5.309
65204SOL    HW297452   1.360  10.303   5.295
65205SOL     OW97453   6.380   9.501   6.921
65205SOL    HW197454   6.373   9.495   7.017
65205SOL    HW297455   6.385   9.410   6.892
65206SOL     OW97456  12.031   6.738   7.220
65206SOL    HW197457  12.010   6.647   7.238
65206SOL    HW297458  11.949   6.775   7.186
65207SOL     OW97459   8.850   4.806   2.620
65207SOL    HW197460   8.901   4.815   2.701
65207SOL    HW297461   8.860   4.890   2.576
65208SOL     OW97462   8.754   3.781  12.815
65208SOL    HW197463   8.770   3.819  12.901
65208SOL    HW297464   8.841   3.761  12.781
65209SOL     OW97465   7.924   7.526   2.685
65209SOL    HW197466   7.881   7.572   2.613
65209SOL    HW297467   7.879   7.558   2.764
65210SOL     OW97468   2.807   4.991   8.053
65210SOL    HW197469   2.737   4.951   8.105
65210SOL    HW297470   2.764   5.014   7.971
65211SOL     OW97471   4.331  13.402  10.832
65211SOL    HW197472   4.282  13.379  10.912
65211SOL    HW297473   4.295  13.486  10.805
65212SOL     OW97474   3.790  14.688   3.568
65212SOL    HW197475   3.810  14.766   3.620
65212SOL    HW297476   3.853  14.690   3.496
65213SOL     OW97477   0.268   0.524   4.364
65213SOL    HW197478   0.236   0.608   4.397
65213SOL    HW297479   0.231   0.517   4.276
65214SOL     OW97480   7.631   3.223   4.031
65214SOL    HW197481   7.600   3.255   3.946
65214SOL    HW297482   7.703   3.164   4.009
65215SOL     OW97483   9.039   4.289   4.412
65215SOL    HW197484   9.018   4.372   4.456
65215SOL    HW297485   9.111   4.311   4.352
65216SOL     OW97486  12.109  14.008   5.364
65216SOL    HW197487  12.190  14.058   5.360
65216SOL    HW297488  12.092  13.995   5.457
65217SOL     OW97489   8.192   2.972  10.373
65217SOL    HW197490   8.274   2.950  10.331
65217SOL    HW297491   8.184   3.067  10.364
65218SOL     OW97492   6.661   9.757   5.782
65218SOL    HW197493   6.685   9.705   5.705
65218SOL    HW297494   6.739   9.756   5.837
65219SOL     OW97495   7.880  11.453   7.377
65219SOL    HW197496   7.881  11.535   7.426
65219SOL    HW297497   7.790  11.421   7.385
65220SOL     OW97498   5.857  12.337  13.884
65220SOL    HW197499   5.791  12.288  13.933
65220SOL    HW297500   5.809  12.407  13.841
65221SOL     OW97501   0.812   6.572  10.387
65221SOL    HW197502   0.889   6.528  10.423
65221SOL    HW297503   0.760   6.595  10.464
65222SOL     OW97504   6.976   2.444   2.226
65222SOL    HW197505   6.963   2.365   2.174
65222SOL    HW297506   6.928   2.512   2.180
65223SOL     OW97507  14.048  10.881  14.340
65223SOL    HW197508  14.005  10.880  14.254
65223SOL    HW297509  14.124  10.825  14.329
65224SOL     OW97510  14.316   9.311   7.154
65224SOL    HW197511  14.254   9.376   7.121
65224SOL    HW297512  14.400   9.357   7.157
65225SOL     OW97513   9.049  11.041  14.327
65225SOL    HW197514   9.060  10.999  14.412
65225SOL    HW297515   9.023  10.970  14.269
65226SOL     OW97516   6.918  11.813   4.004
65226SOL    HW197517   6.990  11.752   4.017
65226SOL    HW297518   6.896  11.805   3.911
65227SOL     OW97519  14.553   4.518   1.711
65227SOL    HW197520  14.625   4.578   1.730
65227SOL    HW297521  14.492   4.569   1.658
65228SOL     OW97522   4.002  13.499  10.595
65228SOL    HW197523   4.076  13.513  10.536
65228SOL    HW297524   4.027  13.542  10.677
65229SOL     OW97525   8.625  12.663  10.846
65229SOL    HW197526   8.576  12.739  10.878
65229SOL    HW297527   8.715  12.681  10.873
65230SOL     OW97528   7.048   1.555   9.666
65230SOL    HW197529   7.128   1.600   9.636
65230SOL    HW297530   7.076   1.465   9.682
65231SOL     OW97531  14.183  12.740   3.495
65231SOL    HW197532  14.240  12.756   3.571
65231SOL    HW297533  14.135  12.660   3.517
65232SOL     OW97534   1.583   6.860   1.429
65232SOL    HW197535   1.545   6.774   1.450
65232SOL    HW297536   1.529   6.922   1.479
65233SOL     OW97537   1.733  12.834   0.140
65233SOL    HW197538   1.706  12.742   0.146
65233SOL    HW297539   1.715  12.858   0.049
65234SOL     OW97540   4.636   2.588   2.728
65234SOL    HW197541   4.636   2.628   2.815
65234SOL    HW297542   4.681   2.652   2.673
65235SOL     OW97543   5.091   6.802  13.025
65235SOL    HW197544   5.127   6.714  13.015
65235SOL    HW297545   5.145   6.842  13.093
65236SOL     OW97546   6.612  12.023   0.700
65236SOL    HW197547   6.525  12.010   0.664
65236SOL    HW297548   6.657  11.940   0.686
65237SOL     OW97549  12.020   4.888   8.233
65237SOL    HW197550  12.081   4.825   8.196
65237SOL    HW297551  11.934   4.855   8.210
65238SOL     OW97552   8.437   3.768   0.739
65238SOL    HW197553   8.343   3.769   0.759
65238SOL    HW297554   8.441   3.782   0.644
65239SOL     OW97555   9.490   7.084   0.084
65239SOL    HW197556   9.421   7.025   0.116
65239SOL    HW297557   9.488   7.157   0.146
65240SOL     OW97558   7.855  13.670  13.556
65240SOL    HW197559   7.920  13.605  13.530
65240SOL    HW297560   7.803  13.627  13.624
65241SOL     OW97561   9.875   0.897   8.452
65241SOL    HW197562   9.884   0.831   8.521
65241SOL    HW297563   9.791   0.877   8.410
65242SOL     OW97564  10.184   8.699   6.237
65242SOL    HW197565  10.205   8.787   6.206
65242SOL    HW297566  10.091   8.703   6.258
65243SOL     OW97567  13.951  10.231  14.354
65243SOL    HW197568  13.889  10.159  14.347
65243SOL    HW297569  13.915  10.300  14.298
65244SOL     OW97570  13.441   2.521   0.975
65244SOL    HW197571  13.355   2.544   1.010
65244SOL    HW297572  13.503   2.543   1.045
65245SOL     OW97573   9.183  13.489   3.401
65245SOL    HW197574   9.258  13.458   3.452
65245SOL    HW297575   9.172  13.580   3.428
65246SOL     OW97576   9.594   8.269   1.272
65246SOL    HW197577   9.650   8.247   1.198
65246SOL    HW297578   9.630   8.219   1.346
65247SOL     OW97579  13.947  12.506   2.979
65247SOL    HW197580  13.923  12.473   3.065
65247SOL    HW297581  14.022  12.563   2.995
65248SOL     OW97582  10.270  12.344   0.943
65248SOL    HW197583  10.233  12.414   0.890
65248SOL    HW297584  10.232  12.264   0.907
65249SOL     OW97585  14.653  11.728  10.254
65249SOL    HW197586  14.589  11.678  10.204
65249SOL    HW297587  14.630  11.820  10.238
65250SOL     OW97588   0.700   9.335  12.470
65250SOL    HW197589   0.691   9.333  12.566
65250SOL    HW297590   0.628   9.391  12.440
65251SOL     OW97591   4.979   0.180   0.583
65251SOL    HW197592   4.939   0.099   0.615
65251SOL    HW297593   5.033   0.152   0.509
65252SOL     OW97594  12.804  13.676   1.442
65252SOL    HW197595  12.876  13.703   1.498
65252SOL    HW297596  12.819  13.723   1.360
65253SOL     OW97597   4.475   6.334  14.391
65253SOL    HW197598   4.401   6.344  14.452
65253SOL    HW297599   4.438   6.352  14.305
65254SOL     OW97600   7.014   9.912  11.967
65254SOL    HW197601   7.042   9.972  12.037
65254SOL    HW297602   7.071   9.835  11.977
65255SOL     OW97603   1.813  10.230  12.129
65255SOL    HW197604   1.735  10.286  12.135
65255SOL    HW297605   1.782  10.143  12.155
65256SOL     OW97606  11.495   2.872   2.090
65256SOL    HW197607  11.431   2.859   2.020
65256SOL    HW297608  11.462   2.818   2.162
65257SOL     OW97609   3.631  14.109   7.357
65257SOL    HW197610   3.620  14.153   7.441
65257SOL    HW297611   3.557  14.139   7.304
65258SOL     OW97612   7.721   2.398   3.860
65258SOL    HW197613   7.725   2.411   3.955
65258SOL    HW297614   7.628   2.401   3.839
65259SOL     OW97615   8.614   1.846   8.806
65259SOL    HW197616   8.689   1.836   8.864
65259SOL    HW297617   8.545   1.882   8.862
65260SOL     OW97618   2.088  13.320   9.848
65260SOL    HW197619   2.062  13.294   9.936
65260SOL    HW297620   2.149  13.251   9.820
65261SOL     OW97621   2.677   3.225   5.762
65261SOL    HW197622   2.771   3.238   5.775
65261SOL    HW297623   2.671   3.158   5.694
65262SOL     OW97624  10.480   5.983   4.639
65262SOL    HW197625  10.406   6.042   4.653
65262SOL    HW297626  10.440   5.899   4.617
65263SOL     OW97627   7.062   8.432   6.623
65263SOL    HW197628   7.093   8.523   6.625
65263SOL    HW297629   7.095   8.398   6.539
65264SOL     OW97630  14.389  12.565   9.498
65264SOL    HW197631  14.348  12.621   9.433
65264SOL    HW297632  14.476  12.602   9.510
65265SOL     OW97633   5.636   1.796   1.917
65265SOL    HW197634   5.546   1.767   1.903
65265SOL    HW297635   5.631   1.852   1.995
65266SOL     OW97636  13.255  13.019  10.444
65266SOL    HW197637  13.176  13.033  10.496
65266SOL    HW297638  13.233  13.052  10.357
65267SOL     OW97639   5.906   4.939   6.551
65267SOL    HW197640   5.829   4.975   6.597
65267SOL    HW297641   5.888   4.954   6.459
65268SOL     OW97642  14.570   7.955   5.627
65268SOL    HW197643  14.553   8.018   5.697
65268SOL    HW297644  14.649   7.908   5.656
65269SOL     OW97645   6.681  14.233   1.290
65269SOL    HW197646   6.749  14.204   1.351
65269SOL    HW297647   6.629  14.154   1.273
65270SOL     OW97648   4.821   3.655   6.374
65270SOL    HW197649   4.829   3.630   6.466
65270SOL    HW297650   4.911   3.663   6.344
65271SOL     OW97651   6.589   5.924   9.304
65271SOL    HW197652   6.552   5.896   9.388
65271SOL    HW297653   6.628   5.845   9.267
65272SOL     OW97654   7.960  10.684   8.050
65272SOL    HW197655   7.991  10.767   8.085
65272SOL    HW297656   7.866  10.683   8.069
65273SOL     OW97657   8.570   7.458   0.436
65273SOL    HW197658   8.517   7.487   0.511
65273SOL    HW297659   8.508   7.415   0.378
65274SOL     OW97660   6.835   1.961   4.975
65274SOL    HW197661   6.825   1.926   5.063
65274SOL    HW297662   6.845   2.055   4.987
65275SOL     OW97663  10.555   3.909   1.907
65275SOL    HW197664  10.630   3.935   1.854
65275SOL    HW297665  10.543   3.979   1.970
65276SOL     OW97666   9.936   5.657   9.966
65276SOL    HW197667   9.965   5.736  10.013
65276SOL    HW297668   9.984   5.661   9.882
65277SOL     OW97669   7.029  12.333   7.640
65277SOL    HW197670   7.091  12.263   7.621
65277SOL    HW297671   7.044  12.398   7.571
65278SOL     OW97672   5.597  14.073  11.678
65278SOL    HW197673   5.649  14.124  11.740
65278SOL    HW297674   5.648  14.072  11.598
65279SOL     OW97675  14.238   4.749   9.688
65279SOL    HW197676  14.177   4.723   9.619
65279SOL    HW297677  14.201   4.829   9.725
65280SOL     OW97678   7.445  13.044  11.987
65280SOL    HW197679   7.417  12.969  12.039
65280SOL    HW297680   7.539  13.050  12.002
65281SOL     OW97681  12.133   5.720   6.995
65281SOL    HW197682  12.039   5.706   6.984
65281SOL    HW297683  12.140   5.813   7.018
65282SOL     OW97684  13.014   5.853   5.130
65282SOL    HW197685  13.049   5.770   5.162
65282SOL    HW297686  13.082   5.917   5.149
65283SOL     OW97687   1.168   7.566   2.163
65283SOL    HW197688   1.193   7.614   2.084
65283SOL    HW297689   1.085   7.525   2.141
65284SOL     OW97690   7.688   3.672   8.978
65284SOL    HW197691   7.774   3.680   8.939
65284SOL    HW297692   7.702   3.617   9.056
65285SOL     OW97693  10.020   6.180   2.100
65285SOL    HW197694  10.053   6.109   2.154
65285SOL    HW297695   9.959   6.227   2.158
65286SOL     OW97696   3.079   8.339   0.334
65286SOL    HW197697   3.094   8.415   0.277
65286SOL    HW297698   3.166   8.313   0.363
65287SOL     OW97699   4.528   3.341  10.136
65287SOL    HW197700   4.564   3.407  10.076
65287SOL    HW297701   4.506   3.391  10.214
65288SOL     OW97702   8.682   4.615   7.215
65288SOL    HW197703   8.668   4.710   7.214
65288SOL    HW297704   8.662   4.588   7.304
65289SOL     OW97705   5.165   5.517   9.825
65289SOL    HW197706   5.252   5.478   9.828
65289SOL    HW297707   5.138   5.524   9.916
65290SOL     OW97708   6.754   7.445  11.112
65290SOL    HW197709   6.692   7.476  11.046
65290SOL    HW297710   6.821   7.513  11.117
65291SOL     OW97711  10.874  13.402   0.424
65291SOL    HW197712  10.863  13.488   0.465
65291SOL    HW297713  10.828  13.410   0.340
65292SOL     OW97714   0.452   6.465  10.850
65292SOL    HW197715   0.443   6.462  10.945
65292SOL    HW297716   0.396   6.537  10.822
65293SOL     OW97717   9.812   1.314  11.836
65293SOL    HW197718   9.728   1.285  11.802
65293SOL    HW297719   9.797   1.403  11.867
65294SOL     OW97720   0.530   9.329   9.829
65294SOL    HW197721   0.448   9.304   9.788
65294SOL    HW297722   0.587   9.253   9.818
65295SOL     OW97723   8.530   7.875   6.896
65295SOL    HW197724   8.594   7.936   6.860
65295SOL    HW297725   8.483   7.842   6.820
65296SOL     OW97726   4.060   0.481   6.012
65296SOL    HW197727   4.145   0.520   5.989
65296SOL    HW297728   3.996   0.549   5.990
65297SOL     OW97729   7.088  12.802   9.669
65297SOL    HW197730   7.131  12.848   9.597
65297SOL    HW297731   7.159  12.758   9.715
65298SOL     OW97732  10.866  13.635   8.906
65298SOL    HW197733  10.826  13.693   8.970
65298SOL    HW297734  10.958  13.629   8.933
65299SOL     OW97735   9.058   6.694   8.551
65299SOL    HW197736   8.997   6.631   8.513
65299SOL    HW297737   9.007   6.737   8.620
65300SOL     OW97738   3.739   4.385   9.382
65300SOL    HW197739   3.767   4.339   9.460
65300SOL    HW297740   3.743   4.320   9.312
65301SOL     OW97741   1.854   3.493   5.563
65301SOL    HW197742   1.933   3.491   5.617
65301SOL    HW297743   1.787   3.452   5.618
65302SOL     OW97744  13.227   7.354  12.875
65302SOL    HW197745  13.158   7.299  12.839
65302SOL    HW297746  13.184   7.439  12.888
65303SOL     OW97747   6.545   8.492   3.027
65303SOL    HW197748   6.554   8.552   3.101
65303SOL    HW297749   6.610   8.424   3.044
65304SOL     OW97750   2.023   6.053   0.403
65304SOL    HW197751   2.100   6.071   0.349
65304SOL    HW297752   1.963   6.125   0.384
65305SOL     OW97753   6.227  13.064  14.066
65305SOL    HW197754   6.173  13.105  14.134
65305SOL    HW297755   6.310  13.046  14.110
65306SOL     OW97756  10.569   4.649   5.016
65306SOL    HW197757  10.488   4.673   5.061
65306SOL    HW297758  10.569   4.703   4.936
65307SOL     OW97759   7.071   4.281   4.195
65307SOL    HW197760   7.029   4.251   4.275
65307SOL    HW297761   7.152   4.230   4.189
65308SOL     OW97762   3.432   4.722   1.509
65308SOL    HW197763   3.415   4.631   1.482
65308SOL    HW297764   3.404   4.775   1.434
65309SOL     OW97765   8.816   4.910   0.606
65309SOL    HW197766   8.830   4.981   0.543
65309SOL    HW297767   8.869   4.838   0.572
65310SOL     OW97768  11.410   6.949   9.573
65310SOL    HW197769  11.352   7.024   9.582
65310SOL    HW297770  11.442   6.932   9.662
65311SOL     OW97771   2.057   1.198   4.797
65311SOL    HW197772   2.038   1.214   4.890
65311SOL    HW297773   2.077   1.104   4.793
65312SOL     OW97774  11.471  13.276   8.238
65312SOL    HW197775  11.509  13.192   8.262
65312SOL    HW297776  11.397  13.288   8.298
65313SOL     OW97777   4.285   8.448   9.378
65313SOL    HW197778   4.269   8.462   9.472
65313SOL    HW297779   4.203   8.413   9.345
65314SOL     OW97780   7.934   6.693  14.024
65314SOL    HW197781   7.879   6.649  14.088
65314SOL    HW297782   8.017   6.645  14.027
65315SOL     OW97783   0.488   9.981   0.688
65315SOL    HW197784   0.398  10.009   0.703
65315SOL    HW297785   0.504  10.000   0.595
65316SOL     OW97786  10.812   6.199  10.364
65316SOL    HW197787  10.755   6.208  10.441
65316SOL    HW297788  10.894   6.241  10.391
65317SOL     OW97789   9.419   8.993  11.261
65317SOL    HW197790   9.509   8.966  11.282
65317SOL    HW297791   9.430   9.075  11.214
65318SOL     OW97792   7.644  11.937   1.744
65318SOL    HW197793   7.619  11.955   1.834
65318SOL    HW297794   7.563  11.906   1.703
65319SOL     OW97795   6.278  12.676   7.099
65319SOL    HW197796   6.194  12.669   7.145
65319SOL    HW297797   6.342  12.643   7.162
65320SOL     OW97798   8.955   8.745   6.456
65320SOL    HW197799   8.990   8.818   6.507
65320SOL    HW297800   8.862   8.765   6.447
65321SOL     OW97801  12.429   5.413   1.337
65321SOL    HW197802  12.376   5.489   1.313
65321SOL    HW297803  12.370   5.358   1.388
65322SOL     OW97804  14.818   6.471  14.209
65322SOL    HW197805   0.027   6.487  14.242
65322SOL    HW297806  14.831   6.424  14.127
65323SOL     OW97807  10.756   5.864   4.591
65323SOL    HW197808  10.838   5.905   4.563
65323SOL    HW297809  10.691   5.934   4.587
65324SOL     OW97810   4.125  13.973   0.776
65324SOL    HW197811   4.157  14.055   0.813
65324SOL    HW297812   4.060  13.998   0.711
65325SOL     OW97813  10.861   5.132   6.357
65325SOL    HW197814  10.789   5.187   6.386
65325SOL    HW297815  10.857   5.134   6.261
65326SOL     OW97816   4.776   0.286   0.807
65326SOL    HW197817   4.839   0.226   0.848
65326SOL    HW297818   4.831   0.352   0.763
65327SOL     OW97819  11.345  14.771   7.542
65327SOL    HW197820  11.386  14.835   7.483
65327SOL    HW297821  11.390  14.784   7.626
65328SOL     OW97822   4.614   3.025   4.896
65328SOL    HW197823   4.575   3.109   4.875
65328SOL    HW297824   4.564   2.961   4.845
65329SOL     OW97825  10.051   1.486  14.733
65329SOL    HW197826  10.125   1.541  14.762
65329SOL    HW297827  10.092   1.409  14.695
65330SOL     OW97828  11.807   0.299  12.902
65330SOL    HW197829  11.785   0.232  12.967
65330SOL    HW297830  11.770   0.380  12.937
65331SOL     OW97831   3.338   7.291  13.442
65331SOL    HW197832   3.334   7.229  13.515
65331SOL    HW297833   3.277   7.256  13.377
65332SOL     OW97834  10.803   1.946   7.882
65332SOL    HW197835  10.760   1.864   7.906
65332SOL    HW297836  10.831   1.983   7.966
65333SOL     OW97837  13.245   9.593   8.053
65333SOL    HW197838  13.310   9.555   8.112
65333SOL    HW297839  13.167   9.605   8.106
65334SOL     OW97840   6.039  14.118   1.970
65334SOL    HW197841   6.036  14.211   1.992
65334SOL    HW297842   6.119  14.109   1.918
65335SOL     OW97843   0.208  11.959  13.991
65335SOL    HW197844   0.127  11.982  13.944
65335SOL    HW297845   0.182  11.890  14.051
65336SOL     OW97846   0.992   8.088  11.375
65336SOL    HW197847   1.075   8.042  11.388
65336SOL    HW297848   1.010   8.151  11.306
65337SOL     OW97849   7.881   0.450   3.416
65337SOL    HW197850   7.900   0.543   3.410
65337SOL    HW297851   7.858   0.435   3.508
65338SOL     OW97852   9.878   2.832   3.064
65338SOL    HW197853   9.794   2.832   3.019
65338SOL    HW297854   9.905   2.924   3.065
65339SOL     OW97855   0.694  11.686  13.015
65339SOL    HW197856   0.683  11.713  13.106
65339SOL    HW297857   0.789  11.678  13.003
65340SOL     OW97858   8.986   5.328   3.882
65340SOL    HW197859   9.015   5.392   3.948
65340SOL    HW297860   8.962   5.250   3.933
65341SOL     OW97861   3.533   3.355  12.070
65341SOL    HW197862   3.521   3.282  12.008
65341SOL    HW297863   3.626   3.351  12.093
65342SOL     OW97864   4.538   4.973   7.675
65342SOL    HW197865   4.483   4.996   7.750
65342SOL    HW297866   4.484   4.990   7.598
65343SOL     OW97867  10.810   9.326   4.730
65343SOL    HW197868  10.767   9.241   4.729
65343SOL    HW297869  10.825   9.347   4.637
65344SOL     OW97870   9.827   0.323  11.993
65344SOL    HW197871   9.774   0.264  11.938
65344SOL    HW297872   9.767   0.393  12.018
65345SOL     OW97873  12.681   0.702   4.434
65345SOL    HW197874  12.727   0.757   4.497
65345SOL    HW297875  12.734   0.622   4.428
65346SOL     OW97876  11.141   0.851   3.999
65346SOL    HW197877  11.109   0.777   4.051
65346SOL    HW297878  11.075   0.920   4.011
65347SOL     OW97879  14.517   2.834   4.505
65347SOL    HW197880  14.611   2.837   4.487
65347SOL    HW297881  14.507   2.765   4.571
65348SOL     OW97882  10.020  11.131  13.440
65348SOL    HW197883  10.086  11.179  13.490
65348SOL    HW297884   9.962  11.093  13.506
65349SOL     OW97885   8.823   0.923   7.169
65349SOL    HW197886   8.731   0.934   7.144
65349SOL    HW297887   8.820   0.862   7.242
65350SOL     OW97888   9.406   5.619  11.597
65350SOL    HW197889   9.336   5.672  11.635
65350SOL    HW297890   9.418   5.547  11.659
65351SOL     OW97891  14.135   0.091   3.003
65351SOL    HW197892  14.147  14.876   3.015
65351SOL    HW297893  14.212   0.131   3.044
65352SOL     OW97894  12.817   9.486   8.757
65352SOL    HW197895  12.762   9.421   8.801
65352SOL    HW297896  12.766   9.514   8.682
65353SOL     OW97897   6.790   4.997   1.433
65353SOL    HW197898   6.858   4.932   1.450
65353SOL    HW297899   6.785   5.003   1.338
65354SOL     OW97900   9.657   8.142  10.799
65354SOL    HW197901   9.747   8.172  10.786
65354SOL    HW297902   9.652   8.119  10.891
65355SOL     OW97903  10.200  13.046   7.824
65355SOL    HW197904  10.238  12.993   7.894
65355SOL    HW297905  10.273  13.062   7.764
65356SOL     OW97906   9.229   0.015   7.125
65356SOL    HW197907   9.307   0.062   7.152
65356SOL    HW297908   9.232  14.812   7.174
65357SOL     OW97909   1.688   4.217   9.987
65357SOL    HW197910   1.684   4.307   9.954
65357SOL    HW297911   1.777   4.207  10.021
65358SOL     OW97912  14.654   6.013   1.465
65358SOL    HW197913  14.560   6.002   1.471
65358SOL    HW297914  14.680   5.964   1.387
65359SOL     OW97915  13.224   3.034   6.390
65359SOL    HW197916  13.241   3.059   6.480
65359SOL    HW297917  13.309   3.005   6.356
65360SOL     OW97918   9.860   4.094   8.255
65360SOL    HW197919   9.929   4.155   8.282
65360SOL    HW297920   9.805   4.083   8.333
65361SOL     OW97921  14.147   3.103   3.016
65361SOL    HW197922  14.157   3.012   2.986
65361SOL    HW297923  14.165   3.156   2.938
65362SOL     OW97924   5.567   3.832   1.482
65362SOL    HW197925   5.485   3.809   1.524
65362SOL    HW297926   5.595   3.912   1.526
65363SOL     OW97927   3.987  13.958   9.089
65363SOL    HW197928   3.959  13.891   9.027
65363SOL    HW297929   4.081  13.944   9.100
65364SOL     OW97930   8.313   4.376   7.735
65364SOL    HW197931   8.252   4.436   7.778
65364SOL    HW297932   8.398   4.394   7.776
65365SOL     OW97933   4.690  12.885   7.934
65365SOL    HW197934   4.603  12.921   7.950
65365SOL    HW297935   4.675  12.807   7.882
65366SOL     OW97936   0.799  14.335   6.671
65366SOL    HW197937   0.888  14.345   6.638
65366SOL    HW297938   0.809  14.302   6.760
65367SOL     OW97939   6.240   6.323   8.422
65367SOL    HW197940   6.308   6.337   8.488
65367SOL    HW297941   6.262   6.239   8.382
65368SOL     OW97942   2.136   2.693   2.002
65368SOL    HW197943   2.161   2.756   1.934
65368SOL    HW297944   2.110   2.614   1.954
65369SOL     OW97945  13.033   7.123   2.852
65369SOL    HW197946  13.115   7.075   2.853
65369SOL    HW297947  12.972   7.069   2.902
65370SOL     OW97948   7.321  10.316   8.719
65370SOL    HW197949   7.306  10.410   8.713
65370SOL    HW297950   7.239  10.276   8.690
65371SOL     OW97951  13.842   5.780   0.427
65371SOL    HW197952  13.833   5.696   0.381
65371SOL    HW297953  13.876   5.756   0.514
65372SOL     OW97954   8.515   5.773  10.444
65372SOL    HW197955   8.458   5.783  10.368
65372SOL    HW297956   8.476   5.701  10.494
65373SOL     OW97957  10.771   8.670   6.530
65373SOL    HW197958  10.698   8.611   6.514
65373SOL    HW297959  10.760   8.741   6.467
65374SOL     OW97960  14.595   4.346  10.139
65374SOL    HW197961  14.624   4.255  10.130
65374SOL    HW297962  14.578   4.357  10.233
65375SOL     OW97963  12.231   6.891   8.040
65375SOL    HW197964  12.181   6.872   7.960
65375SOL    HW297965  12.236   6.987   8.043
65376SOL     OW97966  12.391   0.656  13.670
65376SOL    HW197967  12.431   0.742  13.659
65376SOL    HW297968  12.308   0.674  13.715
65377SOL     OW97969   0.828  11.052   9.010
65377SOL    HW197970   0.858  11.068   9.100
65377SOL    HW297971   0.861  11.127   8.961
65378SOL     OW97972  12.369   0.125  11.939
65378SOL    HW197973  12.406   0.089  12.019
65378SOL    HW297974  12.436   0.187  11.907
65379SOL     OW97975   1.104   8.355  14.352
65379SOL    HW197976   1.070   8.438  14.319
65379SOL    HW297977   1.040   8.326  14.417
65380SOL     OW97978   2.718   0.592   4.430
65380SOL    HW197979   2.719   0.687   4.419
65380SOL    HW297980   2.730   0.557   4.342
65381SOL     OW97981   1.871   2.101  10.258
65381SOL    HW197982   1.826   2.096  10.174
65381SOL    HW297983   1.964   2.091  10.236
65382SOL     OW97984   1.045   2.227   3.229
65382SOL    HW197985   0.966   2.281   3.234
65382SOL    HW297986   1.116   2.290   3.213
65383SOL     OW97987  13.871   9.658   5.305
65383SOL    HW197988  13.814   9.621   5.373
65383SOL    HW297989  13.824   9.640   5.223
65384SOL     OW97990   6.916   3.604  11.498
65384SOL    HW197991   6.823   3.624  11.501
65384SOL    HW297992   6.958   3.687  11.478
65385SOL     OW97993   2.154   6.313   6.449
65385SOL    HW197994   2.221   6.319   6.381
65385SOL    HW297995   2.077   6.354   6.411
65386SOL     OW97996  12.662  14.375   5.779
65386SOL    HW197997  12.690  14.287   5.752
65386SOL    HW297998  12.639  14.365   5.871
65387SOL     OW97999   7.737  11.741  10.284
65387SOL    HW198000   7.787  11.821  10.271
65387SOL    HW298001   7.774  11.703  10.364
65388SOL     OW98002   5.672  14.837   2.664
65388SOL    HW198003   5.684  14.836   2.569
65388SOL    HW298004   5.577  14.840   2.675
65389SOL     OW98005   5.730   9.520   6.030
65389SOL    HW198006   5.709   9.480   6.115
65389SOL    HW298007   5.819   9.491   6.012
65390SOL     OW98008  11.492  11.941   5.265
65390SOL    HW198009  11.523  11.863   5.217
65390SOL    HW298010  11.415  11.970   5.216
65391SOL     OW98011   9.910   4.780   1.227
65391SOL    HW198012   9.924   4.745   1.315
65391SOL    HW298013   9.822   4.817   1.229
65392SOL     OW98014   7.461   7.126   8.343
65392SOL    HW198015   7.430   7.087   8.261
65392SOL    HW298016   7.453   7.220   8.330
65393SOL     OW98017  14.256   5.155   4.257
65393SOL    HW198018  14.204   5.178   4.334
65393SOL    HW298019  14.208   5.194   4.184
65394SOL     OW98020  11.185   4.812  10.849
65394SOL    HW198021  11.210   4.891  10.800
65394SOL    HW298022  11.101   4.834  10.888
65395SOL     OW98023  11.500   0.868   1.588
65395SOL    HW198024  11.444   0.916   1.527
65395SOL    HW298025  11.588   0.902   1.573
65396SOL     OW98026   4.485  10.128   9.527
65396SOL    HW198027   4.465  10.108   9.618
65396SOL    HW298028   4.486  10.223   9.523
65397SOL     OW98029  11.804   7.800   5.900
65397SOL    HW198030  11.899   7.794   5.905
65397SOL    HW298031  11.775   7.712   5.876
65398SOL     OW98032   7.722   8.693   0.542
65398SOL    HW198033   7.720   8.597   0.548
65398SOL    HW298034   7.630   8.718   0.534
65399SOL     OW98035   3.957   9.889   7.220
65399SOL    HW198036   4.041   9.850   7.243
65399SOL    HW298037   3.953   9.970   7.271
65400SOL     OW98038   5.523  10.434   4.921
65400SOL    HW198039   5.576  10.460   4.845
65400SOL    HW298040   5.535  10.339   4.926
65401SOL     OW98041   1.446   6.107   4.403
65401SOL    HW198042   1.380   6.156   4.353
65401SOL    HW298043   1.401   6.029   4.434
65402SOL     OW98044   2.277  12.901  10.590
65402SOL    HW198045   2.233  12.953  10.522
65402SOL    HW298046   2.354  12.952  10.614
65403SOL     OW98047   7.507  10.400   0.845
65403SOL    HW198048   7.503  10.400   0.941
65403SOL    HW298049   7.586  10.451   0.825
65404SOL     OW98050  13.337   6.449  11.491
65404SOL    HW198051  13.377   6.534  11.477
65404SOL    HW298052  13.246   6.461  11.466
65405SOL     OW98053  11.695   4.019   2.308
65405SOL    HW198054  11.724   4.053   2.393
65405SOL    HW298055  11.735   3.932   2.302
65406SOL     OW98056   6.003   6.016   3.817
65406SOL    HW198057   5.919   6.016   3.863
65406SOL    HW298058   5.984   6.056   3.732
65407SOL     OW98059   7.148  13.752   8.761
65407SOL    HW198060   7.226  13.735   8.708
65407SOL    HW298061   7.082  13.780   8.698
65408SOL     OW98062  14.177  10.627   6.856
65408SOL    HW198063  14.268  10.651   6.873
65408SOL    HW298064  14.168  10.634   6.761
65409SOL     OW98065   4.699   0.384   2.377
65409SOL    HW198066   4.688   0.290   2.390
65409SOL    HW298067   4.740   0.415   2.458
65410SOL     OW98068  10.447   6.159   9.285
65410SOL    HW198069  10.436   6.247   9.321
65410SOL    HW298070  10.511   6.169   9.215
65411SOL     OW98071   9.995   5.870  14.756
65411SOL    HW198072   9.905   5.836  14.765
65411SOL    HW298073  10.007   5.925  14.833
65412SOL     OW98074   9.014   2.659   5.047
65412SOL    HW198075   9.052   2.708   4.974
65412SOL    HW298076   9.066   2.579   5.052
65413SOL     OW98077   1.343  11.779   4.290
65413SOL    HW198078   1.272  11.843   4.293
65413SOL    HW298079   1.306  11.705   4.241
65414SOL     OW98080   4.888   0.914   5.665
65414SOL    HW198081   4.846   0.984   5.615
65414SOL    HW298082   4.858   0.927   5.755
65415SOL     OW98083   4.925   9.478   5.681
65415SOL    HW198084   4.985   9.552   5.671
65415SOL    HW298085   4.906   9.451   5.591
65416SOL     OW98086  12.934   1.485  10.922
65416SOL    HW198087  12.846   1.460  10.951
65416SOL    HW298088  12.943   1.577  10.946
65417SOL     OW98089   6.726  10.077   0.205
65417SOL    HW198090   6.638  10.114   0.214
65417SOL    HW298091   6.717  10.010   0.137
65418SOL     OW98092   5.691   3.355   4.257
65418SOL    HW198093   5.721   3.430   4.309
65418SOL    HW298094   5.741   3.362   4.175
65419SOL     OW98095  10.266  10.757   0.629
65419SOL    HW198096  10.328  10.702   0.678
65419SOL    HW298097  10.297  10.847   0.645
65420SOL     OW98098  14.199   0.997   8.507
65420SOL    HW198099  14.166   0.941   8.577
65420SOL    HW298100  14.134   0.991   8.438
65421SOL     OW98101   1.713   6.737   8.978
65421SOL    HW198102   1.776   6.794   8.935
65421SOL    HW298103   1.765   6.664   9.012
65422SOL     OW98104   1.513   4.967   1.122
65422SOL    HW198105   1.499   5.032   1.191
65422SOL    HW298106   1.592   4.919   1.149
65423SOL     OW98107  10.407   9.757  13.101
65423SOL    HW198108  10.376   9.824  13.040
65423SOL    HW298109  10.450   9.807  13.170
65424SOL     OW98110   7.208   4.158   0.132
65424SOL    HW198111   7.123   4.113   0.124
65424SOL    HW298112   7.231   4.150   0.224
65425SOL     OW98113   6.490   5.129   7.533
65425SOL    HW198114   6.429   5.203   7.527
65425SOL    HW298115   6.577   5.169   7.529
65426SOL     OW98116  11.827  10.937   2.013
65426SOL    HW198117  11.835  11.016   2.067
65426SOL    HW298118  11.740  10.944   1.974
65427SOL     OW98119   0.104  11.571  14.086
65427SOL    HW198120   0.110  11.599  13.994
65427SOL    HW298121   0.105  11.653  14.135
65428SOL     OW98122   0.855   0.021   4.544
65428SOL    HW198123   0.801   0.098   4.563
65428SOL    HW298124   0.892  14.875   4.628
65429SOL     OW98125   9.230   5.513   1.667
65429SOL    HW198126   9.195   5.543   1.583
65429SOL    HW298127   9.325   5.522   1.658
65430SOL     OW98128   8.696   8.913  11.448
65430SOL    HW198129   8.690   8.826  11.486
65430SOL    HW298130   8.681   8.973  11.521
65431SOL     OW98131   1.046   0.681   7.003
65431SOL    HW198132   1.139   0.658   6.994
65431SOL    HW298133   1.046   0.758   7.059
65432SOL     OW98134   3.490   4.236   0.341
65432SOL    HW198135   3.518   4.310   0.395
65432SOL    HW298136   3.559   4.171   0.352
65433SOL     OW98137   4.385   7.674   7.022
65433SOL    HW198138   4.323   7.741   6.995
65433SOL    HW298139   4.436   7.715   7.092
65434SOL     OW98140   5.452   8.056   6.326
65434SOL    HW198141   5.546   8.072   6.319
65434SOL    HW298142   5.446   7.968   6.363
65435SOL     OW98143   5.605   0.436  11.120
65435SOL    HW198144   5.656   0.447  11.040
65435SOL    HW298145   5.660   0.474  11.189
65436SOL     OW98146   3.329   8.196   9.951
65436SOL    HW198147   3.321   8.291   9.936
65436SOL    HW298148   3.241   8.162   9.935
65437SOL     OW98149   0.243   3.967  11.626
65437SOL    HW198150   0.218   3.972  11.534
65437SOL    HW298151   0.197   3.890  11.659
65438SOL     OW98152   2.094   8.028   6.019
65438SOL    HW198153   2.008   7.994   5.994
65438SOL    HW298154   2.111   8.100   5.959
65439SOL     OW98155   7.838   6.915   2.545
65439SOL    HW198156   7.817   7.007   2.529
65439SOL    HW298157   7.902   6.917   2.616
65440SOL     OW98158   4.646   4.801  10.241
65440SOL    HW198159   4.735   4.814  10.207
65440SOL    HW298160   4.648   4.713  10.278
65441SOL     OW98161   2.743  10.890   8.239
65441SOL    HW198162   2.664  10.847   8.206
65441SOL    HW298163   2.813  10.862   8.179
65442SOL     OW98164   2.536   4.451   3.766
65442SOL    HW198165   2.580   4.390   3.708
65442SOL    HW298166   2.607   4.500   3.808
65443SOL     OW98167   8.188   1.993  10.599
65443SOL    HW198168   8.247   1.996  10.674
65443SOL    HW298169   8.136   1.914  10.613
65444SOL     OW98170  11.655   0.708  13.811
65444SOL    HW198171  11.686   0.644  13.876
65444SOL    HW298172  11.667   0.793  13.855
65445SOL     OW98173   1.363   3.931   8.161
65445SOL    HW198174   1.340   3.839   8.172
65445SOL    HW298175   1.435   3.945   8.223
65446SOL     OW98176   7.823  11.775   8.271
65446SOL    HW198177   7.831  11.760   8.177
65446SOL    HW298178   7.811  11.688   8.309
65447SOL     OW98179   4.658   7.285   2.120
65447SOL    HW198180   4.665   7.205   2.068
65447SOL    HW298181   4.567   7.286   2.150
65448SOL     OW98182  12.873   5.583  10.994
65448SOL    HW198183  12.857   5.491  10.973
65448SOL    HW298184  12.965   5.598  10.973
65449SOL     OW98185  11.268   5.440   8.258
65449SOL    HW198186  11.237   5.456   8.169
65449SOL    HW298187  11.203   5.380   8.295
65450SOL     OW98188  13.080   5.286   9.576
65450SOL    HW198189  13.009   5.227   9.601
65450SOL    HW298190  13.046   5.374   9.594
65451SOL     OW98191  14.451   3.311  10.737
65451SOL    HW198192  14.361   3.327  10.767
65451SOL    HW298193  14.481   3.396  10.707
65452SOL     OW98194   7.492   0.686   8.179
65452SOL    HW198195   7.458   0.667   8.092
65452SOL    HW298196   7.463   0.775   8.198
65453SOL     OW98197  12.124   3.181   1.191
65453SOL    HW198198  12.122   3.086   1.192
65453SOL    HW298199  12.057   3.207   1.253
65454SOL     OW98200   3.760   8.208  11.421
65454SOL    HW198201   3.718   8.197  11.336
65454SOL    HW298202   3.805   8.125  11.437
65455SOL     OW98203  14.250  13.101   6.925
65455SOL    HW198204  14.285  13.185   6.896
65455SOL    HW298205  14.194  13.072   6.853
65456SOL     OW98206  13.500   7.412  14.406
65456SOL    HW198207  13.433   7.386  14.343
65456SOL    HW298208  13.583   7.401  14.359
65457SOL     OW98209   7.518   9.880   2.342
65457SOL    HW198210   7.526   9.803   2.285
65457SOL    HW298211   7.550   9.850   2.427
65458SOL     OW98212   4.438   7.351   2.573
65458SOL    HW198213   4.489   7.350   2.654
65458SOL    HW298214   4.370   7.284   2.587
65459SOL     OW98215  14.280   4.385   9.205
65459SOL    HW198216  14.203   4.373   9.260
65459SOL    HW298217  14.316   4.469   9.231
65460SOL     OW98218   8.196  11.619   7.751
65460SOL    HW198219   8.197  11.635   7.846
65460SOL    HW298220   8.199  11.706   7.712
65461SOL     OW98221   5.738   4.000   5.590
65461SOL    HW198222   5.802   4.070   5.599
65461SOL    HW298223   5.659   4.033   5.634
65462SOL     OW98224   5.281   7.674   7.546
65462SOL    HW198225   5.377   7.681   7.542
65462SOL    HW298226   5.260   7.606   7.482
65463SOL     OW98227   8.470  12.104   0.729
65463SOL    HW198228   8.383  12.081   0.762
65463SOL    HW298229   8.531  12.060   0.788
65464SOL     OW98230   2.318   5.371   4.615
65464SOL    HW198231   2.314   5.416   4.699
65464SOL    HW298232   2.260   5.296   4.625
65465SOL     OW98233   1.523   4.114   6.873
65465SOL    HW198234   1.471   4.156   6.804
65465SOL    HW298235   1.515   4.021   6.854
65466SOL     OW98236  14.839  12.288  12.339
65466SOL    HW198237  14.803  12.213  12.387
65466SOL    HW298238   0.046  12.258  12.309
65467SOL     OW98239   0.852   3.743   9.988
65467SOL    HW198240   0.795   3.677   9.949
65467SOL    HW298241   0.814   3.827   9.960
65468SOL     OW98242   7.113  10.298   5.693
65468SOL    HW198243   7.197  10.264   5.724
65468SOL    HW298244   7.064  10.318   5.773
65469SOL     OW98245   4.733   2.961   0.307
65469SOL    HW198246   4.741   3.039   0.362
65469SOL    HW298247   4.661   2.981   0.247
65470SOL     OW98248   6.208   7.087   2.593
65470SOL    HW198249   6.166   7.087   2.506
65470SOL    HW298250   6.243   6.999   2.602
65471SOL     OW98251   1.722   8.617   5.055
65471SOL    HW198252   1.709   8.523   5.068
65471SOL    HW298253   1.749   8.626   4.964
65472SOL     OW98254  12.568  13.806  10.735
65472SOL    HW198255  12.622  13.793  10.658
65472SOL    HW298256  12.498  13.740  10.727
65473SOL     OW98257   5.794   6.579  12.230
65473SOL    HW198258   5.872   6.622  12.194
65473SOL    HW298259   5.785   6.616  12.318
65474SOL     OW98260   8.023   9.897   1.141
65474SOL    HW198261   7.983   9.822   1.186
65474SOL    HW298262   8.117   9.885   1.153
65475SOL     OW98263  12.264   1.559   1.914
65475SOL    HW198264  12.321   1.571   1.838
65475SOL    HW298265  12.209   1.637   1.916
65476SOL     OW98266   3.041  13.479   8.360
65476SOL    HW198267   2.995  13.467   8.277
65476SOL    HW298268   3.071  13.570   8.358
65477SOL     OW98269   1.331   9.887   0.705
65477SOL    HW198270   1.352   9.799   0.672
65477SOL    HW298271   1.402   9.906   0.767
65478SOL     OW98272   7.277   4.823  11.572
65478SOL    HW198273   7.201   4.813  11.630
65478SOL    HW298274   7.342   4.762  11.607
65479SOL     OW98275   8.652  11.376  10.263
65479SOL    HW198276   8.562  11.345  10.257
65479SOL    HW298277   8.666  11.427  10.184
65480SOL     OW98278   4.633  10.922   8.705
65480SOL    HW198279   4.628  10.830   8.679
65480SOL    HW298280   4.591  10.969   8.634
65481SOL     OW98281   6.166   3.149   3.817
65481SOL    HW198282   6.239   3.088   3.824
65481SOL    HW298283   6.148   3.176   3.907
65482SOL     OW98284   9.513   4.055  14.859
65482SOL    HW198285   9.545   4.131   0.029
65482SOL    HW298286   9.479   4.091  14.778
65483SOL     OW98287   9.424   2.016   3.464
65483SOL    HW198288   9.461   2.012   3.552
65483SOL    HW298289   9.491   2.060   3.411
65484SOL     OW98290  10.564  11.188  11.467
65484SOL    HW198291  10.505  11.147  11.529
65484SOL    HW298292  10.507  11.225  11.400
65485SOL     OW98293  14.327   1.784  13.002
65485SOL    HW198294  14.331   1.693  13.031
65485SOL    HW298295  14.257   1.823  13.054
65486SOL     OW98296   2.080   4.616  12.002
65486SOL    HW198297   2.045   4.610  11.913
65486SOL    HW298298   2.172   4.591  11.992
65487SOL     OW98299   3.996  14.686   6.306
65487SOL    HW198300   4.034  14.601   6.282
65487SOL    HW298301   3.905  14.667   6.326
65488SOL     OW98302   9.219   3.082  12.846
65488SOL    HW198303   9.288   3.089  12.780
65488SOL    HW298304   9.198   3.173  12.869
65489SOL     OW98305  12.285  11.387  13.803
65489SOL    HW198306  12.364  11.347  13.840
65489SOL    HW298307  12.316  11.467  13.760
65490SOL     OW98308  11.353   4.094   5.082
65490SOL    HW198309  11.357   4.177   5.128
65490SOL    HW298310  11.444   4.062   5.083
65491SOL     OW98311   7.868  13.409  13.819
65491SOL    HW198312   7.903  13.329  13.781
65491SOL    HW298313   7.941  13.471  13.816
65492SOL     OW98314   0.134   5.409   9.870
65492SOL    HW198315   0.055   5.436   9.823
65492SOL    HW298316   0.194   5.482   9.861
65493SOL     OW98317   3.374   9.617   1.748
65493SOL    HW198318   3.409   9.694   1.703
65493SOL    HW298319   3.332   9.653   1.826
65494SOL     OW98320   4.567   8.415   8.572
65494SOL    HW198321   4.609   8.495   8.539
65494SOL    HW298322   4.475   8.439   8.583
65495SOL     OW98323   3.087   5.967   6.678
65495SOL    HW198324   3.123   5.883   6.704
65495SOL    HW298325   3.108   5.974   6.584
65496SOL     OW98326  10.386   7.080   5.225
65496SOL    HW198327  10.431   7.014   5.277
65496SOL    HW298328  10.302   7.041   5.203
65497SOL     OW98329  11.655   8.889  14.828
65497SOL    HW198330  11.718   8.937  14.774
65497SOL    HW298331  11.661   8.930   0.035
65498SOL     OW98332   3.267   5.397   2.610
65498SOL    HW198333   3.338   5.366   2.553
65498SOL    HW298334   3.297   5.376   2.698
65499SOL     OW98335  13.126   8.580   9.447
65499SOL    HW198336  13.122   8.667   9.487
65499SOL    HW298337  13.107   8.520   9.519
65500SOL     OW98338  13.768  13.856   5.668
65500SOL    HW198339  13.846  13.805   5.647
65500SOL    HW298340  13.710  13.794   5.712
65501SOL     OW98341  11.195  14.707   4.425
65501SOL    HW198342  11.230  14.725   4.512
65501SOL    HW298343  11.118  14.652   4.441
65502SOL     OW98344   9.152   8.610   8.253
65502SOL    HW198345   9.065   8.647   8.239
65502SOL    HW298346   9.180   8.579   8.167
65503SOL     OW98347   0.744   4.914   0.432
65503SOL    HW198348   0.655   4.878   0.425
65503SOL    HW298349   0.731   5.008   0.445
65504SOL     OW98350   0.339   6.436  11.121
65504SOL    HW198351   0.283   6.381  11.175
65504SOL    HW298352   0.356   6.513  11.174
65505SOL     OW98353   9.169   5.391  12.497
65505SOL    HW198354   9.156   5.330  12.570
65505SOL    HW298355   9.221   5.341  12.434
65506SOL     OW98356   2.206  14.471   1.872
65506SOL    HW198357   2.138  14.408   1.850
65506SOL    HW298358   2.278  14.418   1.905
65507SOL     OW98359   0.055   8.204   6.208
65507SOL    HW198360  14.860   8.153   6.173
65507SOL    HW298361   0.033   8.217   6.300
65508SOL     OW98362   8.956   8.137   1.107
65508SOL    HW198363   9.051   8.127   1.100
65508SOL    HW298364   8.938   8.122   1.200
65509SOL     OW98365   7.387   9.073   6.362
65509SOL    HW198366   7.413   9.137   6.295
65509SOL    HW298367   7.466   9.022   6.378
65510SOL     OW98368  10.904   0.302  11.534
65510SOL    HW198369  10.819   0.292  11.489
65510SOL    HW298370  10.917   0.397  11.537
65511SOL     OW98371  12.373   6.832   1.324
65511SOL    HW198372  12.418   6.759   1.366
65511SOL    HW298373  12.442   6.897   1.309
65512SOL     OW98374  11.814   5.041   2.800
65512SOL    HW198375  11.809   4.982   2.875
65512SOL    HW298376  11.886   5.007   2.747
65513SOL     OW98377  13.629  14.504   7.472
65513SOL    HW198378  13.660  14.474   7.558
65513SOL    HW298379  13.619  14.424   7.421
65514SOL     OW98380  13.134   2.844  12.888
65514SOL    HW198381  13.192   2.918  12.870
65514SOL    HW298382  13.059   2.883  12.934
65515SOL     OW98383   1.342   6.596  14.328
65515SOL    HW198384   1.417   6.539  14.349
65515SOL    HW298385   1.295   6.603  14.411
65516SOL     OW98386   9.130   6.982   0.557
65516SOL    HW198387   9.189   7.011   0.487
65516SOL    HW298388   9.189   6.965   0.631
65517SOL     OW98389   6.304  12.734   9.019
65517SOL    HW198390   6.355  12.683   9.081
65517SOL    HW298391   6.275  12.671   8.954
65518SOL     OW98392   4.710   7.479   1.096
65518SOL    HW198393   4.756   7.417   1.040
65518SOL    HW298394   4.763   7.483   1.176
65519SOL     OW98395  11.109   0.403   0.437
65519SOL    HW198396  11.081   0.312   0.426
65519SOL    HW298397  11.087   0.424   0.528
65520SOL     OW98398   4.304   3.853  10.332
65520SOL    HW198399   4.341   3.906  10.262
65520SOL    HW298400   4.285   3.769  10.291
65521SOL     OW98401   6.052   1.808   0.953
65521SOL    HW198402   6.029   1.768   0.869
65521SOL    HW298403   6.030   1.742   1.018
65522SOL     OW98404  10.719  10.487   8.372
65522SOL    HW198405  10.655  10.520   8.436
65522SOL    HW298406  10.804  10.518   8.404
65523SOL     OW98407  12.850   9.205   1.547
65523SOL    HW198408  12.943   9.229   1.544
65523SOL    HW298409  12.842   9.133   1.484
65524SOL     OW98410  14.350  10.531  13.598
65524SOL    HW198411  14.307  10.457  13.556
65524SOL    HW298412  14.391  10.493  13.676
65525SOL     OW98413  12.385  14.866   1.905
65525SOL    HW198414  12.394  14.849   1.998
65525SOL    HW298415  12.467  14.834   1.867
65526SOL     OW98416  11.235  14.870   6.306
65526SOL    HW198417  11.276   0.072   6.276
65526SOL    HW298418  11.295  14.837   6.373
65527SOL     OW98419   8.281   7.165  13.170
65527SOL    HW198420   8.291   7.076  13.134
65527SOL    HW298421   8.315   7.222  13.101
65528SOL     OW98422   9.964   5.493   2.570
65528SOL    HW198423   9.976   5.588   2.567
65528SOL    HW298424   9.926   5.470   2.485
65529SOL     OW98425   0.525  14.797   3.615
65529SOL    HW198426   0.495   0.001   3.650
65529SOL    HW298427   0.613  14.786   3.652
65530SOL     OW98428   7.942   2.193   0.915
65530SOL    HW198429   7.939   2.155   0.828
65530SOL    HW298430   8.002   2.267   0.907
65531SOL     OW98431  14.697   8.816   7.574
65531SOL    HW198432  14.761   8.885   7.556
65531SOL    HW298433  14.616   8.863   7.592
65532SOL     OW98434   9.601   0.698   9.114
65532SOL    HW198435   9.586   0.603   9.118
65532SOL    HW298436   9.574   0.731   9.199
65533SOL     OW98437  13.194   9.035   6.667
65533SOL    HW198438  13.194   8.979   6.589
65533SOL    HW298439  13.274   9.011   6.714
65534SOL     OW98440   4.579   1.863   9.672
65534SOL    HW198441   4.626   1.944   9.651
65534SOL    HW298442   4.504   1.891   9.724
65535SOL     OW98443   9.840   3.955  12.295
65535SOL    HW198444   9.851   4.021  12.364
65535SOL    HW298445   9.759   3.979  12.251
65536SOL     OW98446   5.801  14.153  14.653
65536SOL    HW198447   5.845  14.102  14.721
65536SOL    HW298448   5.856  14.230  14.642
65537SOL     OW98449   2.643   5.953   1.808
65537SOL    HW198450   2.733   5.986   1.805
65537SOL    HW298451   2.616   5.967   1.899
65538SOL     OW98452   5.747   6.185   4.001
65538SOL    HW198453   5.752   6.094   4.032
65538SOL    HW298454   5.725   6.178   3.909
65539SOL     OW98455   4.594  12.756   9.352
65539SOL    HW198456   4.536  12.704   9.297
65539SOL    HW298457   4.633  12.693   9.412
65540SOL     OW98458   3.996  13.856   1.225
65540SOL    HW198459   3.944  13.783   1.192
65540SOL    HW298460   4.081  13.845   1.183
65541SOL     OW98461  12.134   2.653   1.922
65541SOL    HW198462  12.051   2.639   1.967
65541SOL    HW298463  12.177   2.721   1.974
65542SOL     OW98464  11.619  12.938   0.712
65542SOL    HW198465  11.603  13.032   0.702
65542SOL    HW298466  11.591  12.901   0.628
65543SOL     OW98467  12.661   8.435   1.105
65543SOL    HW198468  12.715   8.462   1.179
65543SOL    HW298469  12.677   8.501   1.038
65544SOL     OW98470   2.060   9.971   2.439
65544SOL    HW198471   2.114   9.908   2.486
65544SOL    HW298472   2.111   9.992   2.361
65545SOL     OW98473   9.139   6.177   8.629
65545SOL    HW198474   9.200   6.154   8.559
65545SOL    HW298475   9.087   6.098   8.642
65546SOL     OW98476   3.698  12.912   4.635
65546SOL    HW198477   3.767  12.872   4.687
65546SOL    HW298478   3.670  12.843   4.575
65547SOL     OW98479  11.874  11.999   0.181
65547SOL    HW198480  11.850  12.013   0.090
65547SOL    HW298481  11.969  11.986   0.179
65548SOL     OW98482   4.224   6.887   6.100
65548SOL    HW198483   4.213   6.949   6.171
65548SOL    HW298484   4.240   6.803   6.143
65549SOL     OW98485   1.164   2.675   0.946
65549SOL    HW198486   1.134   2.763   0.924
65549SOL    HW298487   1.248   2.666   0.900
65550SOL     OW98488  12.222   0.198  10.414
65550SOL    HW198489  12.229   0.133  10.485
65550SOL    HW298490  12.285   0.266  10.437
65551SOL     OW98491  13.890   6.110   4.950
65551SOL    HW198492  13.917   6.020   4.934
65551SOL    HW298493  13.795   6.109   4.937
65552SOL     OW98494   3.455   6.928   6.122
65552SOL    HW198495   3.416   6.931   6.210
65552SOL    HW298496   3.492   7.015   6.109
65553SOL     OW98497   7.341   6.753   8.859
65553SOL    HW198498   7.393   6.831   8.840
65553SOL    HW298499   7.254   6.773   8.824
65554SOL     OW98500   6.099   6.878   9.331
65554SOL    HW198501   6.172   6.824   9.363
65554SOL    HW298502   6.091   6.856   9.238
65555SOL     OW98503   4.418   7.793   0.916
65555SOL    HW198504   4.393   7.745   0.837
65555SOL    HW298505   4.468   7.868   0.883
65556SOL     OW98506  11.369  14.517   7.096
65556SOL    HW198507  11.304  14.517   7.026
65556SOL    HW298508  11.450  14.547   7.054
65557SOL     OW98509   8.419   2.017  14.601
65557SOL    HW198510   8.398   1.928  14.573
65557SOL    HW298511   8.369   2.073  14.541
65558SOL     OW98512   0.372   2.444  14.050
65558SOL    HW198513   0.425   2.457  14.129
65558SOL    HW298514   0.436   2.443  13.979
65559SOL     OW98515  13.760   3.510  12.016
65559SOL    HW198516  13.677   3.468  11.995
65559SOL    HW298517  13.817   3.489  11.942
65560SOL     OW98518   1.357   3.579  11.671
65560SOL    HW198519   1.331   3.617  11.587
65560SOL    HW298520   1.275   3.559  11.715
65561SOL     OW98521  13.983  11.583  11.108
65561SOL    HW198522  13.976  11.491  11.132
65561SOL    HW298523  13.893  11.616  11.116
65562SOL     OW98524  14.592   7.914   6.228
65562SOL    HW198525  14.548   7.929   6.144
65562SOL    HW298526  14.682   7.892   6.204
65563SOL     OW98527   1.506   9.637  14.558
65563SOL    HW198528   1.485   9.701  14.491
65563SOL    HW298529   1.515   9.688  14.639
65564SOL     OW98530   7.173   0.017  14.532
65564SOL    HW198531   7.202   0.092  14.480
65564SOL    HW298532   7.139   0.056  14.613
65565SOL     OW98533   8.937   8.822   7.537
65565SOL    HW198534   8.850   8.797   7.569
65565SOL    HW298535   8.956   8.903   7.584
65566SOL     OW98536   7.599   1.072   3.064
65566SOL    HW198537   7.686   1.056   3.027
65566SOL    HW298538   7.542   1.008   3.022
65567SOL     OW98539   7.731  11.065   6.588
65567SOL    HW198540   7.658  11.106   6.634
65567SOL    HW298541   7.697  11.046   6.501
65568SOL     OW98542  11.786  10.611   5.435
65568SOL    HW198543  11.869  10.567   5.417
65568SOL    HW298544  11.780  10.612   5.530
65569SOL     OW98545  11.400   8.549  11.428
65569SOL    HW198546  11.358   8.466  11.449
65569SOL    HW298547  11.352   8.614  11.480
65570SOL     OW98548  13.247   4.385   0.634
65570SOL    HW198549  13.227   4.363   0.543
65570SOL    HW298550  13.312   4.455   0.628
65571SOL     OW98551  11.518   5.066   6.929
65571SOL    HW198552  11.497   5.079   6.837
65571SOL    HW298553  11.523   4.971   6.939
65572SOL     OW98554   0.063  10.689   9.543
65572SOL    HW198555   0.046  10.768   9.492
65572SOL    HW298556   0.025  10.707   9.629
65573SOL     OW98557  12.282   0.622   8.193
65573SOL    HW198558  12.280   0.640   8.099
65573SOL    HW298559  12.230   0.693   8.232
65574SOL     OW98560   7.853   8.467   1.251
65574SOL    HW198561   7.908   8.389   1.243
65574SOL    HW298562   7.772   8.444   1.205
65575SOL     OW98563   3.137   0.407   6.798
65575SOL    HW198564   3.170   0.454   6.874
65575SOL    HW298565   3.061   0.457   6.769
65576SOL     OW98566   4.216  13.774  11.420
65576SOL    HW198567   4.300  13.771  11.465
65576SOL    HW298568   4.154  13.805  11.487
65577SOL     OW98569  10.354   6.939   7.752
65577SOL    HW198570  10.346   7.031   7.776
65577SOL    HW298571  10.362   6.893   7.836
65578SOL     OW98572   3.049   8.810  14.856
65578SOL    HW198573   3.140   8.839  14.854
65578SOL    HW298574   3.041   8.761   0.059
65579SOL     OW98575   4.943   9.384  10.703
65579SOL    HW198576   4.970   9.394  10.794
65579SOL    HW298577   5.024   9.391  10.652
65580SOL     OW98578   4.401   8.287   5.830
65580SOL    HW198579   4.323   8.280   5.776
65580SOL    HW298580   4.407   8.380   5.852
65581SOL     OW98581   4.633  14.598  10.355
65581SOL    HW198582   4.618  14.692  10.359
65581SOL    HW298583   4.696  14.586  10.284
65582SOL     OW98584  13.652   6.217   3.598
65582SOL    HW198585  13.746   6.231   3.614
65582SOL    HW298586  13.648   6.188   3.507
65583SOL     OW98587   1.044  11.959   3.518
65583SOL    HW198588   1.132  11.968   3.555
65583SOL    HW298589   0.985  11.980   3.591
65584SOL     OW98590  10.610   0.913  11.221
65584SOL    HW198591  10.544   0.918  11.291
65584SOL    HW298592  10.676   0.853  11.255
65585SOL     OW98593   4.419   0.437   6.116
65585SOL    HW198594   4.386   0.353   6.084
65585SOL    HW298595   4.385   0.501   6.054
65586SOL     OW98596  12.087   1.463   1.582
65586SOL    HW198597  12.142   1.440   1.657
65586SOL    HW298598  12.040   1.382   1.560
65587SOL     OW98599   6.661   9.624  11.151
65587SOL    HW198600   6.605   9.677  11.095
65587SOL    HW298601   6.727   9.588  11.092
65588SOL     OW98602  11.443   4.865   6.355
65588SOL    HW198603  11.356   4.864   6.394
65588SOL    HW298604  11.428   4.882   6.262
65589SOL     OW98605  14.169   0.017  11.510
65589SOL    HW198606  14.201  14.828  11.451
65589SOL    HW298607  14.088   0.048  11.470
65590SOL     OW98608   9.449  13.065  13.961
65590SOL    HW198609   9.518  13.065  13.895
65590SOL    HW298610   9.430  13.158  13.975
65591SOL     OW98611   7.804   5.599   7.499
65591SOL    HW198612   7.849   5.651   7.433
65591SOL    HW298613   7.785   5.516   7.456
65592SOL     OW98614   3.825   4.263   9.614
65592SOL    HW198615   3.811   4.319   9.690
65592SOL    HW298616   3.759   4.194   9.622
65593SOL     OW98617   0.481   7.092  12.145
65593SOL    HW198618   0.430   7.125  12.071
65593SOL    HW298619   0.553   7.155  12.155
65594SOL     OW98620  12.263   5.789   5.504
65594SOL    HW198621  12.276   5.858   5.438
65594SOL    HW298622  12.351   5.759   5.525
65595SOL     OW98623   6.564   5.480   8.879
65595SOL    HW198624   6.587   5.472   8.971
65595SOL    HW298625   6.641   5.450   8.831
65596SOL     OW98626   8.287   5.777  10.237
65596SOL    HW198627   8.275   5.802  10.146
65596SOL    HW298628   8.222   5.709  10.253
65597SOL     OW98629   8.429  10.158   1.486
65597SOL    HW198630   8.363  10.213   1.528
65597SOL    HW298631   8.460  10.101   1.557
65598SOL     OW98632   2.265   1.647  12.434
65598SOL    HW198633   2.257   1.722  12.493
65598SOL    HW298634   2.351   1.659  12.393
65599SOL     OW98635  11.318   9.055  14.734
65599SOL    HW198636  11.329   8.989  14.665
65599SOL    HW298637  11.270   9.126  14.691
65600SOL     OW98638  11.516   4.701   8.563
65600SOL    HW198639  11.455   4.645   8.514
65600SOL    HW298640  11.504   4.788   8.525
65601SOL     OW98641   5.479  10.624   2.321
65601SOL    HW198642   5.533  10.657   2.249
65601SOL    HW298643   5.525  10.654   2.400
65602SOL     OW98644   7.188  14.707   7.602
65602SOL    HW198645   7.209  14.615   7.589
65602SOL    HW298646   7.272  14.749   7.622
65603SOL     OW98647   5.383   2.213   2.122
65603SOL    HW198648   5.471   2.232   2.092
65603SOL    HW298649   5.394   2.188   2.214
65604SOL     OW98650  13.187  13.346   8.893
65604SOL    HW198651  13.249  13.312   8.958
65604SOL    HW298652  13.160  13.269   8.844
65605SOL     OW98653  10.951   5.788  11.690
65605SOL    HW198654  11.016   5.858  11.679
65605SOL    HW298655  10.885   5.807  11.623
65606SOL     OW98656   8.224  10.755   5.556
65606SOL    HW198657   8.273  10.837   5.554
65606SOL    HW298658   8.242  10.715   5.470
65607SOL     OW98659   9.213  10.411   1.207
65607SOL    HW198660   9.270  10.481   1.174
65607SOL    HW298661   9.177  10.446   1.288
65608SOL     OW98662   2.624  13.893   2.387
65608SOL    HW198663   2.642  13.811   2.342
65608SOL    HW298664   2.704  13.945   2.376
65609SOL     OW98665   1.682   9.735   5.539
65609SOL    HW198666   1.719   9.648   5.521
65609SOL    HW298667   1.759   9.790   5.558
65610SOL     OW98668   7.629   6.873  14.868
65610SOL    HW198669   7.663   6.901   0.074
65610SOL    HW298670   7.614   6.779  14.878
65611SOL     OW98671   5.165   5.035   9.113
65611SOL    HW198672   5.235   5.097   9.135
65611SOL    HW298673   5.121   5.075   9.038
65612SOL     OW98674  13.056   8.092   5.751
65612SOL    HW198675  13.024   8.152   5.818
65612SOL    HW298676  13.107   8.027   5.800
65613SOL     OW98677   8.226   1.911   1.100
65613SOL    HW198678   8.202   1.848   1.032
65613SOL    HW298679   8.148   1.967   1.109
65614SOL     OW98680  10.649   9.811   0.065
65614SOL    HW198681  10.687   9.791  14.859
65614SOL    HW298682  10.614   9.900   0.056
65615SOL     OW98683   2.573   9.417   6.546
65615SOL    HW198684   2.495   9.375   6.511
65615SOL    HW298685   2.599   9.480   6.478
65616SOL     OW98686  10.932   6.555   8.158
65616SOL    HW198687  10.950   6.476   8.107
65616SOL    HW298688  10.949   6.627   8.097
65617SOL     OW98689  14.212   9.823  13.130
65617SOL    HW198690  14.305   9.803  13.145
65617SOL    HW298691  14.190   9.777  13.049
65618SOL     OW98692  12.058   7.910   0.362
65618SOL    HW198693  12.067   7.858   0.282
65618SOL    HW298694  11.966   7.899   0.387
65619SOL     OW98695   3.734   0.765   3.893
65619SOL    HW198696   3.699   0.811   3.969
65619SOL    HW298697   3.665   0.770   3.827
65620SOL     OW98698  12.518   6.313   6.842
65620SOL    HW198699  12.425   6.327   6.828
65620SOL    HW298700  12.554   6.402   6.852
65621SOL     OW98701   9.764  10.797  13.227
65621SOL    HW198702   9.735  10.888  13.213
65621SOL    HW298703   9.702  10.745  13.176
65622SOL     OW98704   2.320   9.933   0.040
65622SOL    HW198705   2.400   9.979   0.017
65622SOL    HW298706   2.251   9.999   0.033
65623SOL     OW98707  11.639   4.437  10.317
65623SOL    HW198708  11.575   4.394  10.260
65623SOL    HW298709  11.601   4.429  10.405
65624SOL     OW98710   1.586  10.107   5.229
65624SOL    HW198711   1.606  10.126   5.138
65624SOL    HW298712   1.637  10.029   5.249
65625SOL     OW98713  10.997  10.698  12.909
65625SOL    HW198714  10.937  10.624  12.918
65625SOL    HW298715  10.993  10.743  12.994
65626SOL     OW98716   6.515   4.841  13.567
65626SOL    HW198717   6.475   4.787  13.635
65626SOL    HW298718   6.514   4.930  13.603
65627SOL     OW98719   8.929   7.413  11.093
65627SOL    HW198720   8.855   7.353  11.105
65627SOL    HW298721   8.889   7.500  11.094
65628SOL     OW98722  11.120  11.874  14.154
65628SOL    HW198723  11.109  11.913  14.067
65628SOL    HW298724  11.057  11.919  14.209
65629SOL     OW98725  13.193   8.861   2.264
65629SOL    HW198726  13.193   8.852   2.169
65629SOL    HW298727  13.282   8.836   2.290
65630SOL     OW98728   2.433   9.503  10.360
65630SOL    HW198729   2.511   9.492  10.306
65630SOL    HW298730   2.434   9.427  10.419
65631SOL     OW98731   7.814   6.960  11.216
65631SOL    HW198732   7.837   6.869  11.233
65631SOL    HW298733   7.754   6.984  11.287
65632SOL     OW98734   2.927   5.633   4.138
65632SOL    HW198735   2.875   5.626   4.057
65632SOL    HW298736   2.934   5.727   4.153
65633SOL     OW98737  11.092  11.117  14.498
65633SOL    HW198738  11.149  11.058  14.448
65633SOL    HW298739  11.073  11.188  14.437
65634SOL     OW98740   2.192   0.045   6.612
65634SOL    HW198741   2.138  14.862   6.661
65634SOL    HW298742   2.232   0.101   6.679
65635SOL     OW98743   3.638  11.617  10.540
65635SOL    HW198744   3.640  11.711  10.518
65635SOL    HW298745   3.550  11.588  10.516
65636SOL     OW98746   3.646  13.727   2.876
65636SOL    HW198747   3.684  13.797   2.929
65636SOL    HW298748   3.676  13.744   2.787
65637SOL     OW98749   7.040  14.232   0.422
65637SOL    HW198750   7.022  14.282   0.502
65637SOL    HW298751   7.067  14.297   0.358
65638SOL     OW98752   7.903   7.196   1.618
65638SOL    HW198753   7.932   7.124   1.561
65638SOL    HW298754   7.902   7.158   1.706
65639SOL     OW98755   5.427   1.132   8.210
65639SOL    HW198756   5.382   1.049   8.196
65639SOL    HW298757   5.442   1.135   8.305
65640SOL     OW98758   0.588   3.361   0.199
65640SOL    HW198759   0.605   3.315   0.282
65640SOL    HW298760   0.668   3.348   0.149
65641SOL     OW98761   7.862  14.462   1.025
65641SOL    HW198762   7.936  14.453   1.085
65641SOL    HW298763   7.876  14.394   0.959
65642SOL     OW98764   6.767   0.611  13.126
65642SOL    HW198765   6.724   0.658  13.198
65642SOL    HW298766   6.695   0.567  13.081
65643SOL     OW98767  13.001  10.184  13.929
65643SOL    HW198768  13.091  10.212  13.945
65643SOL    HW298769  12.972  10.146  14.011
65644SOL     OW98770  13.616   3.743   1.718
65644SOL    HW198771  13.594   3.833   1.696
65644SOL    HW298772  13.707   3.747   1.746
65645SOL     OW98773  11.331   3.775   2.046
65645SOL    HW198774  11.410   3.819   2.079
65645SOL    HW298775  11.300   3.831   1.975
65646SOL     OW98776   1.949   1.846  12.841
65646SOL    HW198777   2.033   1.803  12.824
65646SOL    HW298778   1.884   1.782  12.812
65647SOL     OW98779   3.241   7.044   9.798
65647SOL    HW198780   3.237   7.023   9.704
65647SOL    HW298781   3.332   7.029   9.822
65648SOL     OW98782   9.244   1.933  11.326
65648SOL    HW198783   9.215   2.021  11.351
65648SOL    HW298784   9.267   1.941  11.234
65649SOL     OW98785   3.720   3.786   1.915
65649SOL    HW198786   3.711   3.739   1.998
65649SOL    HW298787   3.676   3.730   1.851
65650SOL     OW98788   0.275   1.232   3.212
65650SOL    HW198789   0.196   1.202   3.166
65650SOL    HW298790   0.270   1.327   3.209
65651SOL     OW98791   2.513   0.145   3.684
65651SOL    HW198792   2.511   0.179   3.773
65651SOL    HW298793   2.434   0.090   3.677
65652SOL     OW98794  10.965   4.814  14.110
65652SOL    HW198795  11.013   4.731  14.116
65652SOL    HW298796  10.936   4.819  14.019
65653SOL     OW98797   9.186   8.358   5.610
65653SOL    HW198798   9.165   8.265   5.614
65653SOL    HW298799   9.163   8.384   5.520
65654SOL     OW98800   2.986   9.477   2.364
65654SOL    HW198801   2.996   9.412   2.295
65654SOL    HW298802   2.891   9.484   2.377
65655SOL     OW98803   2.056   2.759  14.781
65655SOL    HW198804   2.095   2.694  14.722
65655SOL    HW298805   2.060   2.841  14.732
65656SOL     OW98806  13.740  13.506   0.795
65656SOL    HW198807  13.720  13.488   0.887
65656SOL    HW298808  13.661  13.479   0.747
65657SOL     OW98809  11.849  11.383   2.974
65657SOL    HW198810  11.803  11.309   2.933
65657SOL    HW298811  11.857  11.448   2.903
65658SOL     OW98812   0.257   2.966  12.122
65658SOL    HW198813   0.280   2.996  12.033
65658SOL    HW298814   0.305   3.026  12.179
65659SOL     OW98815  11.786   5.329   5.792
65659SOL    HW198816  11.717   5.285   5.842
65659SOL    HW298817  11.855   5.346   5.855
65660SOL     OW98818   8.674  13.103   6.515
65660SOL    HW198819   8.679  13.087   6.420
65660SOL    HW298820   8.765  13.117   6.541
65661SOL     OW98821   0.953  14.763  11.181
65661SOL    HW198822   0.888  14.707  11.223
65661SOL    HW298823   0.927  14.852  11.205
65662SOL     OW98824  13.986   5.621   4.570
65662SOL    HW198825  13.933   5.574   4.634
65662SOL    HW298826  14.071   5.578   4.573
65663SOL     OW98827  13.122   9.695   2.911
65663SOL    HW198828  13.082   9.735   2.834
65663SOL    HW298829  13.056   9.704   2.980
65664SOL     OW98830  14.778   0.212  13.636
65664SOL    HW198831  14.798   0.134  13.688
65664SOL    HW298832  14.823   0.198  13.553
65665SOL     OW98833   4.774   6.422   3.749
65665SOL    HW198834   4.844   6.411   3.684
65665SOL    HW298835   4.693   6.414   3.699
65666SOL     OW98836   6.889  12.942   9.801
65666SOL    HW198837   6.971  12.903   9.773
65666SOL    HW298838   6.889  12.931   9.896
65667SOL     OW98839   8.478   2.833  10.904
65667SOL    HW198840   8.431   2.764  10.952
65667SOL    HW298841   8.416   2.863  10.838
65668SOL     OW98842  13.465  13.506   3.823
65668SOL    HW198843  13.518  13.493   3.744
65668SOL    HW298844  13.477  13.425   3.873
65669SOL     OW98845   3.597   1.546   2.152
65669SOL    HW198846   3.688   1.516   2.148
65669SOL    HW298847   3.602   1.634   2.190
65670SOL     OW98848   4.232  10.974   5.429
65670SOL    HW198849   4.203  11.062   5.406
65670SOL    HW298850   4.295  10.951   5.360
65671SOL     OW98851   9.246   2.310   1.032
65671SOL    HW198852   9.218   2.285   1.120
65671SOL    HW298853   9.327   2.359   1.047
65672SOL     OW98854   8.996  12.953  12.660
65672SOL    HW198855   9.023  12.888  12.596
65672SOL    HW298856   8.911  12.983  12.629
65673SOL     OW98857  11.009  10.282  12.385
65673SOL    HW198858  11.076  10.215  12.368
65673SOL    HW298859  10.928  10.242  12.352
65674SOL     OW98860   6.598  14.158   0.260
65674SOL    HW198861   6.580  14.235   0.205
65674SOL    HW298862   6.608  14.194   0.349
65675SOL     OW98863  10.715   0.559   4.415
65675SOL    HW198864  10.693   0.645   4.380
65675SOL    HW298865  10.661   0.498   4.365
65676SOL     OW98866   4.163   2.200   1.701
65676SOL    HW198867   4.236   2.174   1.758
65676SOL    HW298868   4.147   2.122   1.647
65677SOL     OW98869   8.421   2.914   5.739
65677SOL    HW198870   8.364   2.968   5.683
65677SOL    HW298871   8.510   2.930   5.705
65678SOL     OW98872   8.846  10.115  14.700
65678SOL    HW198873   8.801  10.172  14.638
65678SOL    HW298874   8.822  10.150  14.786
65679SOL     OW98875   5.668   5.149   0.724
65679SOL    HW198876   5.674   5.065   0.769
65679SOL    HW298877   5.593   5.192   0.765
65680SOL     OW98878  13.705  14.277   5.103
65680SOL    HW198879  13.712  14.210   5.035
65680SOL    HW298880  13.664  14.231   5.177
65681SOL     OW98881   6.431   8.914  10.763
65681SOL    HW198882   6.473   8.863  10.832
65681SOL    HW298883   6.441   8.859  10.685
65682SOL     OW98884   6.996   2.814  12.132
65682SOL    HW198885   6.916   2.815  12.184
65682SOL    HW298886   7.067   2.819  12.196
65683SOL     OW98887  11.856  14.602  11.932
65683SOL    HW198888  11.895  14.515  11.918
65683SOL    HW298889  11.852  14.641  11.845
65684SOL     OW98890   7.798  10.088  11.562
65684SOL    HW198891   7.844  10.161  11.520
65684SOL    HW298892   7.775  10.029  11.491
65685SOL     OW98893  11.429  10.968   4.216
65685SOL    HW198894  11.485  11.040   4.188
65685SOL    HW298895  11.428  10.908   4.141
65686SOL     OW98896   7.674   6.192   5.148
65686SOL    HW198897   7.671   6.261   5.215
65686SOL    HW298898   7.711   6.116   5.193
65687SOL     OW98899   7.848   2.995   9.248
65687SOL    HW198900   7.887   3.063   9.194
65687SOL    HW298901   7.785   3.042   9.304
65688SOL     OW98902   1.528  14.586  12.407
65688SOL    HW198903   1.460  14.647  12.381
65688SOL    HW298904   1.610  14.633  12.392
65689SOL     OW98905  12.385   7.433   1.998
65689SOL    HW198906  12.299   7.474   2.005
65689SOL    HW298907  12.407   7.407   2.087
65690SOL     OW98908   8.177   6.569   8.501
65690SOL    HW198909   8.228   6.499   8.542
65690SOL    HW298910   8.240   6.613   8.444
65691SOL     OW98911   0.103  14.154   2.750
65691SOL    HW198912   0.068  14.142   2.662
65691SOL    HW298913   0.028  14.141   2.808
65692SOL     OW98914   0.145   9.580   2.448
65692SOL    HW198915   0.240   9.580   2.448
65692SOL    HW298916   0.121   9.649   2.386
65693SOL     OW98917   4.423   8.582  13.539
65693SOL    HW198918   4.389   8.591  13.450
65693SOL    HW298919   4.509   8.542  13.528
65694SOL     OW98920   0.345   1.807   7.105
65694SOL    HW198921   0.418   1.819   7.166
65694SOL    HW298922   0.365   1.866   7.033
65695SOL     OW98923   5.769   0.485   1.707
65695SOL    HW198924   5.794   0.397   1.736
65695SOL    HW298925   5.697   0.510   1.765
65696SOL     OW98926  13.756   7.276   6.630
65696SOL    HW198927  13.690   7.246   6.567
65696SOL    HW298928  13.716   7.259   6.716
65697SOL     OW98929   7.277   0.786   9.336
65697SOL    HW198930   7.359   0.815   9.377
65697SOL    HW298931   7.232   0.736   9.404
65698SOL     OW98932   4.476   6.929   6.237
65698SOL    HW198933   4.486   6.997   6.303
65698SOL    HW298934   4.391   6.948   6.196
65699SOL     OW98935  11.630   7.595   3.436
65699SOL    HW198936  11.657   7.686   3.434
65699SOL    HW298937  11.689   7.551   3.375
65700SOL     OW98938   4.131   2.323   6.485
65700SOL    HW198939   4.107   2.344   6.575
65700SOL    HW298940   4.227   2.328   6.484
65701SOL     OW98941  13.466   5.932   3.506
65701SOL    HW198942  13.523   5.870   3.462
65701SOL    HW298943  13.483   5.919   3.599
65702SOL     OW98944  13.125   8.989  14.693
65702SOL    HW198945  13.138   9.080  14.718
65702SOL    HW298946  13.117   8.991  14.597
65703SOL     OW98947   8.760   4.186   6.593
65703SOL    HW198948   8.738   4.198   6.686
65703SOL    HW298949   8.831   4.247   6.577
65704SOL     OW98950   6.336  13.818  10.217
65704SOL    HW198951   6.274  13.759  10.174
65704SOL    HW298952   6.281  13.890  10.249
65705SOL     OW98953  11.430  13.698   3.782
65705SOL    HW198954  11.405  13.618   3.829
65705SOL    HW298955  11.518  13.718   3.813
65706SOL     OW98956  10.921   3.579   6.233
65706SOL    HW198957  10.929   3.499   6.284
65706SOL    HW298958  10.889   3.550   6.148
65707SOL     OW98959   6.923   5.964  10.511
65707SOL    HW198960   6.947   6.043  10.462
65707SOL    HW298961   6.874   5.995  10.586
65708SOL     OW98962   6.045   9.079   5.488
65708SOL    HW198963   6.124   9.026   5.498
65708SOL    HW298964   5.973   9.017   5.501
65709SOL     OW98965   1.806  13.234   5.396
65709SOL    HW198966   1.810  13.243   5.300
65709SOL    HW298967   1.755  13.310   5.424
65710SOL     OW98968   9.793  13.733   1.149
65710SOL    HW198969   9.788  13.798   1.219
65710SOL    HW298970   9.740  13.769   1.078
65711SOL     OW98971  14.537  10.293  12.521
65711SOL    HW198972  14.531  10.209  12.475
65711SOL    HW298973  14.502  10.276  12.608
65712SOL     OW98974   2.198   6.508   3.515
65712SOL    HW198975   2.178   6.525   3.607
65712SOL    HW298976   2.127   6.450   3.486
65713SOL     OW98977   9.930  14.660   9.868
65713SOL    HW198978   9.857  14.648   9.929
65713SOL    HW298979  10.000  14.605   9.904
65714SOL     OW98980  12.666   0.531  10.454
65714SOL    HW198981  12.664   0.607  10.395
65714SOL    HW298982  12.642   0.457  10.399
65715SOL     OW98983   7.806   4.468  10.615
65715SOL    HW198984   7.731   4.426  10.658
65715SOL    HW298985   7.854   4.396  10.575
65716SOL     OW98986   9.580  14.276   1.527
65716SOL    HW198987   9.617  14.189   1.543
65716SOL    HW298988   9.653  14.336   1.545
65717SOL     OW98989   4.627   9.771  13.107
65717SOL    HW198990   4.638   9.778  13.013
65717SOL    HW298991   4.533   9.782  13.122
65718SOL     OW98992   3.166   9.672  10.385
65718SOL    HW198993   3.195   9.741  10.326
65718SOL    HW298994   3.243   9.650  10.437
65719SOL     OW98995   4.479  10.608   1.797
65719SOL    HW198996   4.511  10.685   1.845
65719SOL    HW298997   4.478  10.538   1.862
65720SOL     OW98998  13.245   5.761   4.742
65720SOL    HW198999  13.193   5.702   4.797
65720SOL    HW299000  13.211   5.848   4.760
65721SOL     OW99001   1.680   0.891  14.096
65721SOL    HW199002   1.657   0.949  14.168
65721SOL    HW299003   1.602   0.838  14.081
65722SOL     OW99004   9.668   7.277  10.777
65722SOL    HW199005   9.683   7.215  10.706
65722SOL    HW299006   9.590   7.245  10.821
65723SOL     OW99007  14.071   0.895   9.986
65723SOL    HW199008  13.990   0.895  10.036
65723SOL    HW299009  14.103   0.804   9.991
65724SOL     OW99010   0.693   1.402   5.490
65724SOL    HW199011   0.672   1.363   5.575
65724SOL    HW299012   0.772   1.454   5.506
65725SOL     OW99013   8.190   0.610  10.927
65725SOL    HW199014   8.263   0.638  10.871
65725SOL    HW299015   8.120   0.588  10.865
65726SOL     OW99016   1.654   6.187   8.951
65726SOL    HW199017   1.676   6.094   8.945
65726SOL    HW299018   1.563   6.188   8.983
65727SOL     OW99019  14.396   8.538   1.686
65727SOL    HW199020  14.425   8.629   1.685
65727SOL    HW299021  14.410   8.507   1.597
65728SOL     OW99022   7.203   1.006  11.816
65728SOL    HW199023   7.235   0.933  11.762
65728SOL    HW299024   7.257   1.081  11.789
65729SOL     OW99025   7.566   2.026   5.809
65729SOL    HW199026   7.595   2.047   5.720
65729SOL    HW299027   7.643   2.042   5.863
65730SOL     OW99028  10.622   8.530   8.932
65730SOL    HW199029  10.706   8.527   8.976
65730SOL    HW299030  10.642   8.517   8.840
65731SOL     OW99031  14.330   7.339   5.845
65731SOL    HW199032  14.280   7.414   5.811
65731SOL    HW299033  14.386   7.377   5.913
65732SOL     OW99034  11.472   7.156   0.140
65732SOL    HW199035  11.495   7.066   0.164
65732SOL    HW299036  11.460   7.200   0.224
65733SOL     OW99037  11.973  12.546  14.752
65733SOL    HW199038  11.949  12.626  14.799
65733SOL    HW299039  12.060  12.523  14.786
65734SOL     OW99040  12.969   0.291  14.454
65734SOL    HW199041  12.993   0.268  14.364
65734SOL    HW299042  12.920   0.215  14.486
65735SOL     OW99043  10.519  10.549  10.243
65735SOL    HW199044  10.481  10.613  10.183
65735SOL    HW299045  10.474  10.566  10.326
65736SOL     OW99046  12.690   7.183  11.004
65736SOL    HW199047  12.754   7.119  11.035
65736SOL    HW299048  12.687   7.170  10.909
65737SOL     OW99049   4.830  12.675   3.279
65737SOL    HW199050   4.872  12.721   3.207
65737SOL    HW299051   4.783  12.743   3.327
65738SOL     OW99052   3.237   3.169  10.088
65738SOL    HW199053   3.271   3.222  10.016
65738SOL    HW299054   3.155   3.132  10.055
65739SOL     OW99055  14.025   9.762  13.737
65739SOL    HW199056  14.099   9.702  13.732
65739SOL    HW299057  14.065   9.849  13.725
65740SOL     OW99058   1.855   9.809   7.359
65740SOL    HW199059   1.943   9.810   7.394
65740SOL    HW299060   1.858   9.747   7.286
65741SOL     OW99061   0.676   2.914   7.436
65741SOL    HW199062   0.705   2.830   7.399
65741SOL    HW299063   0.706   2.980   7.374
65742SOL     OW99064   6.407   2.875   5.762
65742SOL    HW199065   6.397   2.882   5.857
65742SOL    HW299066   6.317   2.872   5.728
65743SOL     OW99067   0.694   8.843   9.714
65743SOL    HW199068   0.676   8.784   9.788
65743SOL    HW299069   0.755   8.795   9.659
65744SOL     OW99070   7.481  10.581  12.727
65744SOL    HW199071   7.506  10.631  12.649
65744SOL    HW299072   7.449  10.497  12.693
65745SOL     OW99073  12.570  12.518  11.490
65745SOL    HW199074  12.651  12.564  11.512
65745SOL    HW299075  12.548  12.468  11.569
65746SOL     OW99076   2.187   3.300  13.020
65746SOL    HW199077   2.138   3.217  13.023
65746SOL    HW299078   2.156   3.349  13.096
65747SOL     OW99079  12.566   1.944   2.715
65747SOL    HW199080  12.656   1.971   2.729
65747SOL    HW299081  12.571   1.877   2.647
65748SOL     OW99082   2.326   0.018   9.686
65748SOL    HW199083   2.396  14.844   9.725
65748SOL    HW299084   2.272   0.043   9.761
65749SOL     OW99085   8.223   2.370   2.284
65749SOL    HW199086   8.208   2.425   2.361
65749SOL    HW299087   8.136   2.336   2.261
65750SOL     OW99088  11.894   2.789  13.852
65750SOL    HW199089  11.868   2.763  13.763
65750SOL    HW299090  11.813   2.819  13.893
65751SOL     OW99091   7.786   7.336   5.901
65751SOL    HW199092   7.875   7.325   5.935
65751SOL    HW299093   7.787   7.294   5.815
65752SOL     OW99094   9.013  10.124   5.957
65752SOL    HW199095   8.938  10.070   5.979
65752SOL    HW299096   9.088  10.079   5.996
65753SOL     OW99097   2.316   5.209  11.300
65753SOL    HW199098   2.373   5.287  11.304
65753SOL    HW299099   2.372   5.138  11.331
65754SOL     OW99100   9.898  12.352  10.695
65754SOL    HW199101   9.861  12.430  10.654
65754SOL    HW299102   9.990  12.374  10.710
65755SOL     OW99103  12.223   0.647   5.294
65755SOL    HW199104  12.284   0.592   5.245
65755SOL    HW299105  12.159   0.677   5.229
65756SOL     OW99106   4.780  12.674   7.521
65756SOL    HW199107   4.738  12.629   7.447
65756SOL    HW299108   4.808  12.604   7.579
65757SOL     OW99109   8.130  11.383   4.428
65757SOL    HW199110   8.111  11.290   4.444
65757SOL    HW299111   8.145  11.420   4.515
65758SOL     OW99112  11.575   9.424   9.127
65758SOL    HW199113  11.485   9.438   9.098
65758SOL    HW299114  11.590   9.331   9.113
65759SOL     OW99115   3.058  13.590  11.765
65759SOL    HW199116   2.998  13.517  11.776
65759SOL    HW299117   3.005  13.661  11.729
65760SOL     OW99118  12.741   5.400   6.048
65760SOL    HW199119  12.655   5.382   6.010
65760SOL    HW299120  12.728   5.479   6.101
65761SOL     OW99121   4.492  12.589  12.077
65761SOL    HW199122   4.522  12.558  11.992
65761SOL    HW299123   4.563  12.566  12.137
65762SOL     OW99124  12.365  12.161  11.853
65762SOL    HW199125  12.367  12.069  11.876
65762SOL    HW299126  12.359  12.207  11.937
65763SOL     OW99127   1.341   9.058   6.497
65763SOL    HW199128   1.358   9.150   6.521
65763SOL    HW299129   1.386   9.046   6.414
65764SOL     OW99130  10.247   4.303   1.462
65764SOL    HW199131  10.179   4.259   1.413
65764SOL    HW299132  10.329   4.277   1.419
65765SOL     OW99133   3.591   4.424   1.301
65765SOL    HW199134   3.611   4.486   1.231
65765SOL    HW299135   3.636   4.343   1.276
65766SOL     OW99136   9.275   0.876   0.267
65766SOL    HW199137   9.244   0.786   0.276
65766SOL    HW299138   9.224   0.912   0.195
65767SOL     OW99139   9.760   6.512   1.865
65767SOL    HW199140   9.724   6.441   1.918
65767SOL    HW299141   9.819   6.468   1.804
65768SOL     OW99142   2.301   3.978  13.439
65768SOL    HW199143   2.308   4.042  13.368
65768SOL    HW299144   2.392   3.954  13.458
65769SOL     OW99145   3.177   2.502  11.152
65769SOL    HW199146   3.269   2.480  11.169
65769SOL    HW299147   3.127   2.446  11.211
65770SOL     OW99148   2.877  11.416   9.143
65770SOL    HW199149   2.895  11.323   9.160
65770SOL    HW299150   2.946  11.463   9.191
65771SOL     OW99151   3.750   4.470   2.803
65771SOL    HW199152   3.710   4.553   2.828
65771SOL    HW299153   3.676   4.411   2.790
65772SOL     OW99154  13.471  13.506  10.566
65772SOL    HW199155  13.431  13.593  10.565
65772SOL    HW299156  13.500  13.494  10.657
65773SOL     OW99157   4.253  10.561   1.616
65773SOL    HW199158   4.285  10.502   1.547
65773SOL    HW299159   4.331  10.585   1.666
65774SOL     OW99160   5.979  13.853   1.600
65774SOL    HW199161   5.974  13.793   1.674
65774SOL    HW299162   6.073  13.864   1.584
65775SOL     OW99163   5.962  11.512   0.845
65775SOL    HW199164   6.023  11.539   0.777
65775SOL    HW299165   5.959  11.587   0.905
65776SOL     OW99166   7.976   2.184   8.600
65776SOL    HW199167   7.911   2.233   8.549
65776SOL    HW299168   8.025   2.134   8.535
65777SOL     OW99169   4.342   8.059   8.873
65777SOL    HW199170   4.412   8.066   8.809
65777SOL    HW299171   4.386   8.041   8.956
65778SOL     OW99172  14.138   5.448   8.014
65778SOL    HW199173  14.220   5.494   7.999
65778SOL    HW299174  14.083   5.470   7.938
65779SOL     OW99175  11.515  14.863  11.591
65779SOL    HW199176  11.503   0.054  11.655
65779SOL    HW299177  11.535  14.785  11.643
65780SOL     OW99178  11.386   7.308  10.423
65780SOL    HW199179  11.294   7.332  10.410
65780SOL    HW299180  11.413   7.358  10.499
65781SOL     OW99181   3.708   3.305  12.695
65781SOL    HW199182   3.710   3.241  12.624
65781SOL    HW299183   3.788   3.289  12.744
65782SOL     OW99184   1.465  11.992   6.314
65782SOL    HW199185   1.536  11.974   6.376
65782SOL    HW299186   1.462  12.087   6.309
65783SOL     OW99187   2.358  14.324   8.310
65783SOL    HW199188   2.377  14.404   8.259
65783SOL    HW299189   2.294  14.352   8.375
65784SOL     OW99190   6.529   1.309   7.997
65784SOL    HW199191   6.573   1.394   7.992
65784SOL    HW299192   6.519   1.281   7.906
65785SOL     OW99193   1.098  12.058   0.083
65785SOL    HW199194   1.008  12.031   0.063
65785SOL    HW299195   1.092  12.096   0.171
65786SOL     OW99196   1.050   4.470   6.988
65786SOL    HW199197   0.973   4.500   7.037
65786SOL    HW299198   1.088   4.550   6.952
65787SOL     OW99199   7.607   5.539   2.478
65787SOL    HW199200   7.629   5.477   2.408
65787SOL    HW299201   7.649   5.502   2.556
65788SOL     OW99202   4.617   9.305  11.977
65788SOL    HW199203   4.534   9.257  11.983
65788SOL    HW299204   4.630   9.339  12.066
65789SOL     OW99205   9.061  11.925   9.258
65789SOL    HW199206   9.053  11.881   9.342
65789SOL    HW299207   9.149  11.903   9.227
65790SOL     OW99208  12.581   9.372   5.329
65790SOL    HW199209  12.603   9.437   5.395
65790SOL    HW299210  12.581   9.421   5.246
65791SOL     OW99211  13.878   0.981   8.881
65791SOL    HW199212  13.805   0.944   8.830
65791SOL    HW299213  13.937   1.018   8.815
65792SOL     OW99214   2.074  10.646   9.537
65792SOL    HW199215   2.038  10.599   9.612
65792SOL    HW299216   2.021  10.614   9.463
65793SOL     OW99217   5.635  12.689  14.620
65793SOL    HW199218   5.702  12.685  14.551
65793SOL    HW299219   5.668  12.631  14.689
65794SOL     OW99220   6.201  14.378   0.733
65794SOL    HW199221   6.209  14.310   0.801
65794SOL    HW299222   6.144  14.444   0.772
65795SOL     OW99223   2.700   0.596   4.742
65795SOL    HW199224   2.719   0.594   4.648
65795SOL    HW299225   2.618   0.548   4.751
65796SOL     OW99226   8.151  12.680   2.994
65796SOL    HW199227   8.218  12.724   2.941
65796SOL    HW299228   8.176  12.699   3.084
65797SOL     OW99229   5.881  10.928   1.527
65797SOL    HW199230   5.797  10.883   1.526
65797SOL    HW299231   5.881  10.977   1.609
65798SOL     OW99232  13.338   0.099  13.991
65798SOL    HW199233  13.385   0.171  13.949
65798SOL    HW299234  13.281   0.142  14.055
65799SOL     OW99235   1.611   0.552   2.776
65799SOL    HW199236   1.626   0.646   2.779
65799SOL    HW299237   1.582   0.529   2.864
65800SOL     OW99238  10.688   4.689   0.008
65800SOL    HW199239  10.778   4.674   0.038
65800SOL    HW299240  10.661   4.605  14.850
65801SOL     OW99241   5.856  10.466  14.731
65801SOL    HW199242   5.812  10.544  14.765
65801SOL    HW299243   5.905  10.431  14.806
65802SOL     OW99244  12.595   1.047   3.247
65802SOL    HW199245  12.526   1.103   3.282
65802SOL    HW299246  12.556   0.959   3.244
65803SOL     OW99247   3.145   9.904  14.869
65803SOL    HW199248   3.123   9.836  14.806
65803SOL    HW299249   3.120   9.868   0.074
65804SOL     OW99250   3.464   6.761   3.353
65804SOL    HW199251   3.553   6.741   3.382
65804SOL    HW299252   3.476   6.802   3.267
65805SOL     OW99253  14.187   2.998  14.151
65805SOL    HW199254  14.093   3.004  14.136
65805SOL    HW299255  14.226   3.040  14.074
65806SOL     OW99256   7.846  12.810   4.578
65806SOL    HW199257   7.891  12.889   4.610
65806SOL    HW299258   7.824  12.762   4.658
65807SOL     OW99259  10.202   4.378   2.277
65807SOL    HW199260  10.164   4.368   2.190
65807SOL    HW299261  10.203   4.290   2.314
65808SOL     OW99262   3.841   8.208  14.374
65808SOL    HW199263   3.910   8.158  14.418
65808SOL    HW299264   3.867   8.211  14.282
65809SOL     OW99265   8.070   0.353   3.666
65809SOL    HW199266   8.024   0.269   3.669
65809SOL    HW299267   8.002   0.419   3.680
65810SOL     OW99268  14.640   7.257  14.597
65810SOL    HW199269  14.614   7.206  14.673
65810SOL    HW299270  14.561   7.305  14.572
65811SOL     OW99271   3.478   4.021  14.596
65811SOL    HW199272   3.560   4.071  14.600
65811SOL    HW299273   3.477   3.971  14.677
65812SOL     OW99274  10.773   1.953  10.572
65812SOL    HW199275  10.749   1.927  10.483
65812SOL    HW299276  10.767   2.048  10.572
65813SOL     OW99277   4.026   5.277   7.207
65813SOL    HW199278   4.044   5.185   7.189
65813SOL    HW299279   3.949   5.277   7.263
65814SOL     OW99280   1.252   4.946   1.056
65814SOL    HW199281   1.347   4.942   1.064
65814SOL    HW299282   1.220   4.879   1.116
65815SOL     OW99283   9.439   1.643   7.067
65815SOL    HW199284   9.452   1.610   7.156
65815SOL    HW299285   9.446   1.565   7.011
65816SOL     OW99286   5.991  13.009   9.825
65816SOL    HW199287   5.945  12.979   9.747
65816SOL    HW299288   6.040  13.086   9.796
65817SOL     OW99289  11.018   5.530  14.119
65817SOL    HW199290  11.003   5.439  14.095
65817SOL    HW299291  10.932   5.572  14.111
65818SOL     OW99292  14.167   0.962   4.733
65818SOL    HW199293  14.236   0.918   4.684
65818SOL    HW299294  14.129   1.024   4.670
65819SOL     OW99295   0.618   6.489   4.327
65819SOL    HW199296   0.677   6.515   4.397
65819SOL    HW299297   0.530   6.492   4.366
65820SOL     OW99298  14.135  13.105   9.229
65820SOL    HW199299  14.173  13.187   9.195
65820SOL    HW299300  14.158  13.040   9.163
65821SOL     OW99301   0.897   7.141   0.322
65821SOL    HW199302   0.877   7.175   0.234
65821SOL    HW299303   0.849   7.197   0.381
65822SOL     OW99304  13.396   5.208   8.390
65822SOL    HW199305  13.354   5.172   8.312
65822SOL    HW299306  13.353   5.292   8.404
65823SOL     OW99307  12.743  11.446   5.169
65823SOL    HW199308  12.660  11.492   5.175
65823SOL    HW299309  12.774  11.438   5.259
65824SOL     OW99310   7.839   7.801   1.913
65824SOL    HW199311   7.858   7.744   1.987
65824SOL    HW299312   7.885   7.762   1.839
65825SOL     OW99313   6.008   5.772  14.673
65825SOL    HW199314   5.945   5.730  14.615
65825SOL    HW299315   5.957   5.795  14.751
65826SOL     OW99316   7.546   6.589   5.023
65826SOL    HW199317   7.641   6.603   5.023
65826SOL    HW299318   7.509   6.676   5.037
65827SOL     OW99319  11.915  14.051   1.601
65827SOL    HW199320  11.857  14.087   1.669
65827SOL    HW299321  11.916  14.117   1.533
65828SOL     OW99322   4.772   9.092  12.183
65828SOL    HW199323   4.851   9.044  12.206
65828SOL    HW299324   4.804   9.173  12.143
65829SOL     OW99325   8.703  10.141  10.067
65829SOL    HW199326   8.670  10.101   9.987
65829SOL    HW299327   8.767  10.206  10.037
65830SOL     OW99328   4.609  12.590  10.995
65830SOL    HW199329   4.685  12.606  10.939
65830SOL    HW299330   4.646  12.567  11.080
65831SOL     OW99331   8.391   1.902   5.746
65831SOL    HW199332   8.336   1.853   5.685
65831SOL    HW299333   8.383   1.993   5.719
65832SOL     OW99334   3.839  11.727   6.345
65832SOL    HW199335   3.911  11.665   6.331
65832SOL    HW299336   3.841  11.745   6.439
65833SOL     OW99337  13.482   7.347   9.435
65833SOL    HW199338  13.472   7.257   9.403
65833SOL    HW299339  13.503   7.338   9.528
65834SOL     OW99340   6.256   2.870   0.909
65834SOL    HW199341   6.209   2.787   0.895
65834SOL    HW299342   6.205   2.914   0.977
65835SOL     OW99343   1.928  12.592   4.637
65835SOL    HW199344   2.020  12.611   4.658
65835SOL    HW299345   1.932  12.550   4.551
65836SOL     OW99346   4.005  10.448  10.704
65836SOL    HW199347   3.965  10.478  10.786
65836SOL    HW299348   4.076  10.510  10.689
65837SOL     OW99349   0.712   5.615  14.527
65837SOL    HW199350   0.659   5.551  14.479
65837SOL    HW299351   0.685   5.700  14.491
65838SOL     OW99352  12.103  13.802   7.891
65838SOL    HW199353  12.140  13.846   7.968
65838SOL    HW299354  12.063  13.872   7.840
65839SOL     OW99355   8.271   0.508  12.351
65839SOL    HW199356   8.362   0.528  12.328
65839SOL    HW299357   8.241   0.448  12.283
65840SOL     OW99358   6.288   9.179  13.877
65840SOL    HW199359   6.377   9.149  13.899
65840SOL    HW299360   6.234   9.149  13.949
65841SOL     OW99361  11.587   7.702   0.122
65841SOL    HW199362  11.667   7.651   0.111
65841SOL    HW299363  11.541   7.694   0.038
65842SOL     OW99364   6.858   9.297   9.654
65842SOL    HW199365   6.774   9.340   9.668
65842SOL    HW299366   6.923   9.364   9.678
65843SOL     OW99367  11.882   8.808  10.881
65843SOL    HW199368  11.887   8.739  10.815
65843SOL    HW299369  11.938   8.878  10.847
65844SOL     OW99370  13.781   1.177  10.764
65844SOL    HW199371  13.723   1.148  10.835
65844SOL    HW299372  13.784   1.103  10.704
65845SOL     OW99373   4.977   3.377  14.787
65845SOL    HW199374   5.066   3.355  14.758
65845SOL    HW299375   4.921   3.346  14.716
65846SOL     OW99376   0.107   5.140   7.596
65846SOL    HW199377   0.112   5.125   7.691
65846SOL    HW299378   0.193   5.114   7.563
65847SOL     OW99379  12.714  11.405   9.140
65847SOL    HW199380  12.697  11.362   9.057
65847SOL    HW299381  12.711  11.335   9.205
65848SOL     OW99382   3.909  12.160   0.210
65848SOL    HW199383   3.873  12.197   0.291
65848SOL    HW299384   3.940  12.236   0.160
65849SOL     OW99385   1.882   9.664  14.797
65849SOL    HW199386   1.810   9.617  14.839
65849SOL    HW299387   1.951   9.598  14.786
65850SOL     OW99388   8.874   1.025   5.596
65850SOL    HW199389   8.901   1.078   5.671
65850SOL    HW299390   8.947   0.965   5.582
65851SOL     OW99391   5.475   5.350   0.757
65851SOL    HW199392   5.435   5.434   0.735
65851SOL    HW299393   5.437   5.289   0.694
65852SOL     OW99394   1.201   5.814   6.905
65852SOL    HW199395   1.130   5.784   6.962
65852SOL    HW299396   1.157   5.848   6.828
65853SOL     OW99397  11.508  11.574   8.235
65853SOL    HW199398  11.448  11.519   8.184
65853SOL    HW299399  11.504  11.539   8.324
65854SOL     OW99400   1.028  10.139   4.586
65854SOL    HW199401   1.020  10.077   4.659
65854SOL    HW299402   0.950  10.122   4.533
65855SOL     OW99403   1.402   2.485  11.658
65855SOL    HW199404   1.371   2.409  11.707
65855SOL    HW299405   1.442   2.542  11.724
65856SOL     OW99406  14.263   6.687  14.486
65856SOL    HW199407  14.276   6.774  14.522
65856SOL    HW299408  14.168   6.682  14.470
65857SOL     OW99409  10.312  11.529   3.321
65857SOL    HW199410  10.380  11.544   3.387
65857SOL    HW299411  10.233  11.509   3.372
65858SOL     OW99412   5.875  11.357  12.642
65858SOL    HW199413   5.965  11.388  12.652
65858SOL    HW299414   5.881  11.262  12.657
65859SOL     OW99415   8.018   0.209   5.236
65859SOL    HW199416   7.975   0.288   5.269
65859SOL    HW299417   8.095   0.243   5.190
65860SOL     OW99418   6.408   1.102   8.380
65860SOL    HW199419   6.356   1.170   8.422
65860SOL    HW299420   6.474   1.078   8.445
65861SOL     OW99421   4.762  14.849   1.892
65861SOL    HW199422   4.733   0.027   1.963
65861SOL    HW299423   4.795  14.771   1.937
65862SOL     OW99424   1.338   6.214   4.819
65862SOL    HW199425   1.379   6.177   4.740
65862SOL    HW299426   1.293   6.293   4.787
65863SOL     OW99427  13.259   5.425   8.501
65863SOL    HW199428  13.319   5.445   8.573
65863SOL    HW299429  13.250   5.508   8.454
65864SOL     OW99430   4.618   0.005  12.535
65864SOL    HW199431   4.629  14.799  12.493
65864SOL    HW299432   4.705   0.045  12.530
65865SOL     OW99433   1.518  12.516  11.086
65865SOL    HW199434   1.569  12.593  11.112
65865SOL    HW299435   1.492  12.475  11.169
65866SOL     OW99436  11.810  14.154  12.896
65866SOL    HW199437  11.792  14.061  12.913
65866SOL    HW299438  11.724  14.192  12.878
65867SOL     OW99439  13.066   6.747   8.311
65867SOL    HW199440  13.100   6.691   8.241
65867SOL    HW299441  13.026   6.687   8.373
65868SOL     OW99442  12.952  10.866  13.929
65868SOL    HW199443  12.985  10.784  13.891
65868SOL    HW299444  12.906  10.909  13.857
65869SOL     OW99445  13.289  10.238   0.713
65869SOL    HW199446  13.307  10.296   0.787
65869SOL    HW299447  13.373  10.230   0.669
65870SOL     OW99448  14.439   7.828   1.711
65870SOL    HW199449  14.438   7.882   1.790
65870SOL    HW299450  14.506   7.762   1.728
65871SOL     OW99451   4.392   4.603   9.698
65871SOL    HW199452   4.335   4.527   9.706
65871SOL    HW299453   4.365   4.645   9.616
65872SOL     OW99454   4.914   8.781   2.222
65872SOL    HW199455   4.851   8.841   2.263
65872SOL    HW299456   4.860   8.707   2.192
65873SOL     OW99457   4.738   0.888   5.907
65873SOL    HW199458   4.762   0.880   6.000
65873SOL    HW299459   4.673   0.819   5.894
65874SOL     OW99460  14.063   5.107   3.809
65874SOL    HW199461  14.050   5.164   3.733
65874SOL    HW299462  13.978   5.064   3.821
65875SOL     OW99463  14.133   9.782   5.347
65875SOL    HW199464  14.201   9.715   5.345
65875SOL    HW299465  14.055   9.736   5.378
65876SOL     OW99466   0.764   8.492  14.130
65876SOL    HW199467   0.809   8.439  14.064
65876SOL    HW299468   0.744   8.574  14.086
65877SOL     OW99469   4.709   7.569  10.622
65877SOL    HW199470   4.804   7.568  10.610
65877SOL    HW299471   4.691   7.496  10.681
65878SOL     OW99472  11.261  14.449   3.762
65878SOL    HW199473  11.253  14.365   3.716
65878SOL    HW299474  11.278  14.513   3.693
65879SOL     OW99475   0.651   0.921   8.126
65879SOL    HW199476   0.621   1.010   8.140
65879SOL    HW299477   0.646   0.908   8.032
65880SOL     OW99478  10.061   9.534  11.833
65880SOL    HW199479  10.126   9.602  11.813
65880SOL    HW299480  10.097   9.455  11.793
65881SOL     OW99481   7.193   7.182   0.948
65881SOL    HW199482   7.183   7.088   0.937
65881SOL    HW299483   7.150   7.220   0.871
65882SOL     OW99484   5.260   4.102   3.390
65882SOL    HW199485   5.288   4.182   3.433
65882SOL    HW299486   5.242   4.041   3.461
65883SOL     OW99487   8.008   1.587   0.419
65883SOL    HW199488   8.067   1.518   0.448
65883SOL    HW299489   7.922   1.547   0.418
65884SOL     OW99490   9.427   4.452  12.905
65884SOL    HW199491   9.412   4.480  12.995
65884SOL    HW299492   9.344   4.470  12.861
65885SOL     OW99493  12.160  14.343   4.366
65885SOL    HW199494  12.123  14.255   4.359
65885SOL    HW299495  12.088  14.401   4.344
65886SOL     OW99496   8.574  14.056  13.284
65886SOL    HW199497   8.566  14.071  13.190
65886SOL    HW299498   8.632  14.127  13.314
65887SOL     OW99499  13.770   7.374   8.436
65887SOL    HW199500  13.677   7.394   8.450
65887SOL    HW299501  13.772   7.325   8.354
65888SOL     OW99502   7.121  10.092  13.841
65888SOL    HW199503   7.030  10.118  13.856
65888SOL    HW299504   7.173  10.165  13.875
65889SOL     OW99505   6.690   9.492  11.396
65889SOL    HW199506   6.776   9.448  11.401
65889SOL    HW299507   6.705   9.567  11.339
65890SOL     OW99508   4.403   4.045   8.788
65890SOL    HW199509   4.393   3.977   8.721
65890SOL    HW299510   4.365   4.124   8.749
65891SOL     OW99511  11.864   1.861   8.122
65891SOL    HW199512  11.776   1.885   8.091
65891SOL    HW299513  11.856   1.854   8.217
65892SOL     OW99514  14.376   8.461  14.856
65892SOL    HW199515  14.286   8.476  14.829
65892SOL    HW299516  14.414   8.548  14.864
65893SOL     OW99517   2.125  13.982  10.032
65893SOL    HW199518   2.185  13.929   9.980
65893SOL    HW299519   2.042  13.978   9.985
65894SOL     OW99520   3.172  11.316   3.735
65894SOL    HW199521   3.136  11.257   3.801
65894SOL    HW299522   3.095  11.362   3.700
65895SOL     OW99523  11.101  13.155   1.916
65895SOL    HW199524  11.184  13.164   1.963
65895SOL    HW299525  11.085  13.243   1.881
65896SOL     OW99526  11.962   3.061  11.674
65896SOL    HW199527  12.035   3.039  11.616
65896SOL    HW299528  11.885   3.059  11.616
65897SOL     OW99529  13.930   4.920   6.251
65897SOL    HW199530  13.851   4.928   6.305
65897SOL    HW299531  13.911   4.970   6.172
65898SOL     OW99532   8.821   7.634  13.245
65898SOL    HW199533   8.793   7.699  13.309
65898SOL    HW299534   8.916   7.633  13.251
65899SOL     OW99535   6.655   4.337   8.863
65899SOL    HW199536   6.724   4.389   8.823
65899SOL    HW299537   6.596   4.401   8.902
65900SOL     OW99538   7.095   1.801  10.982
65900SOL    HW199539   7.077   1.719  11.027
65900SOL    HW299540   7.189   1.799  10.964
65901SOL     OW99541  13.498   5.033   6.540
65901SOL    HW199542  13.420   5.073   6.502
65901SOL    HW299543  13.470   4.944   6.562
65902SOL     OW99544   4.788   2.609  12.519
65902SOL    HW199545   4.727   2.535  12.523
65902SOL    HW299546   4.851   2.585  12.452
65903SOL     OW99547   2.876   1.417   1.591
65903SOL    HW199548   2.902   1.329   1.564
65903SOL    HW299549   2.891   1.471   1.514
65904SOL     OW99550  11.060   0.611   3.554
65904SOL    HW199551  11.072   0.525   3.595
65904SOL    HW299552  11.013   0.592   3.473
65905SOL     OW99553   5.438   4.512   4.662
65905SOL    HW199554   5.499   4.499   4.735
65905SOL    HW299555   5.471   4.589   4.616
65906SOL     OW99556   5.587   5.261  13.789
65906SOL    HW199557   5.585   5.343  13.839
65906SOL    HW299558   5.495   5.239  13.776
65907SOL     OW99559   3.236  13.889   4.757
65907SOL    HW199560   3.200  13.866   4.842
65907SOL    HW299561   3.319  13.842   4.752
65908SOL     OW99562   4.703   5.581   8.796
65908SOL    HW199563   4.714   5.645   8.725
65908SOL    HW299564   4.722   5.497   8.755
65909SOL     OW99565   9.127  14.718   4.609
65909SOL    HW199566   9.103  14.750   4.522
65909SOL    HW299567   9.179  14.789   4.647
65910SOL     OW99568  10.754   0.326   5.007
65910SOL    HW199569  10.810   0.404   5.008
65910SOL    HW299570  10.733   0.310   5.099
65911SOL     OW99571   0.842  10.893   6.851
65911SOL    HW199572   0.859  10.916   6.942
65911SOL    HW299573   0.748  10.904   6.840
65912SOL     OW99574   3.501  13.574   8.642
65912SOL    HW199575   3.406  13.567   8.636
65912SOL    HW299576   3.520  13.667   8.628
65913SOL     OW99577   9.496   8.360   1.658
65913SOL    HW199578   9.473   8.348   1.751
65913SOL    HW299579   9.418   8.331   1.611
65914SOL     OW99580   4.388   3.325  12.556
65914SOL    HW199581   4.434   3.316  12.472
65914SOL    HW299582   4.348   3.412  12.552
65915SOL     OW99583  10.556   7.454   7.820
65915SOL    HW199584  10.640   7.483   7.784
65915SOL    HW299585  10.531   7.380   7.766
65916SOL     OW99586   2.139   4.114  10.698
65916SOL    HW199587   2.057   4.065  10.691
65916SOL    HW299588   2.136   4.177  10.625
65917SOL     OW99589  14.727  11.136  10.475
65917SOL    HW199590  14.813  11.132  10.432
65917SOL    HW299591  14.671  11.081  10.421
65918SOL     OW99592   5.022   3.173   3.475
65918SOL    HW199593   5.063   3.134   3.553
65918SOL    HW299594   4.967   3.102   3.440
65919SOL     OW99595   7.287   4.564   9.749
65919SOL    HW199596   7.282   4.654   9.783
65919SOL    HW299597   7.362   4.565   9.690
65920SOL     OW99598   6.464   5.891   7.722
65920SOL    HW199599   6.500   5.833   7.655
65920SOL    HW299600   6.540   5.924   7.770
65921SOL     OW99601  12.451  10.097   7.925
65921SOL    HW199602  12.461  10.143   7.841
65921SOL    HW299603  12.520  10.030   7.924
65922SOL     OW99604   4.132   6.904   5.144
65922SOL    HW199605   4.071   6.940   5.079
65922SOL    HW299606   4.145   6.813   5.117
65923SOL     OW99607   7.046  12.537   2.611
65923SOL    HW199608   6.996  12.560   2.532
65923SOL    HW299609   7.059  12.620   2.657
65924SOL     OW99610   3.902   9.589   2.711
65924SOL    HW199611   3.920   9.645   2.787
65924SOL    HW299612   3.939   9.637   2.637
65925SOL     OW99613   4.784   3.367   2.747
65925SOL    HW199614   4.816   3.397   2.832
65925SOL    HW299615   4.722   3.297   2.768
65926SOL     OW99616  13.162   8.080   2.535
65926SOL    HW199617  13.098   8.136   2.491
65926SOL    HW299618  13.239   8.136   2.546
65927SOL     OW99619  11.513   4.441   6.554
65927SOL    HW199620  11.513   4.527   6.511
65927SOL    HW299621  11.542   4.459   6.643
65928SOL     OW99622   0.625  12.506   1.110
65928SOL    HW199623   0.637  12.506   1.015
65928SOL    HW299624   0.714  12.498   1.145
65929SOL     OW99625   9.938   5.543  14.530
65929SOL    HW199626   9.893   5.529  14.613
65929SOL    HW299627  10.029   5.520  14.548
65930SOL     OW99628  11.611   7.049   6.418
65930SOL    HW199629  11.632   6.996   6.495
65930SOL    HW299630  11.692   7.050   6.367
65931SOL     OW99631   4.326   3.268  14.413
65931SOL    HW199632   4.271   3.331  14.460
65931SOL    HW299633   4.290   3.266  14.324
65932SOL     OW99634  11.764   3.887   2.937
65932SOL    HW199635  11.723   3.942   3.003
65932SOL    HW299636  11.733   3.923   2.854
65933SOL     OW99637  10.300  12.065   6.719
65933SOL    HW199638  10.304  11.994   6.783
65933SOL    HW299639  10.216  12.107   6.735
65934SOL     OW99640   7.895   9.505   4.347
65934SOL    HW199641   7.983   9.474   4.324
65934SOL    HW299642   7.907   9.553   4.428
65935SOL     OW99643   9.311   4.435   2.507
65935SOL    HW199644   9.341   4.468   2.423
65935SOL    HW299645   9.391   4.412   2.555
65936SOL     OW99646  10.820   9.543  11.262
65936SOL    HW199647  10.801   9.629  11.298
65936SOL    HW299648  10.859   9.561  11.176
65937SOL     OW99649  14.373   5.474   1.129
65937SOL    HW199650  14.286   5.434   1.135
65937SOL    HW299651  14.386   5.490   1.036
65938SOL     OW99652  10.176  13.005  13.170
65938SOL    HW199653  10.207  13.095  13.179
65938SOL    HW299654  10.186  12.986  13.077
65939SOL     OW99655  11.606   1.367  11.063
65939SOL    HW199656  11.574   1.348  10.974
65939SOL    HW299657  11.694   1.402  11.049
65940SOL     OW99658   4.630   0.649   8.546
65940SOL    HW199659   4.576   0.596   8.605
65940SOL    HW299660   4.677   0.585   8.493
65941SOL     OW99661  14.437   2.654   4.165
65941SOL    HW199662  14.516   2.692   4.203
65941SOL    HW299663  14.365   2.692   4.216
65942SOL     OW99664   6.622   5.740  10.948
65942SOL    HW199665   6.586   5.729  10.860
65942SOL    HW299666   6.608   5.655  10.990
65943SOL     OW99667  10.822   3.615  10.965
65943SOL    HW199668  10.876   3.547  11.007
65943SOL    HW299669  10.855   3.620  10.876
65944SOL     OW99670  10.573   4.351  10.632
65944SOL    HW199671  10.569   4.354  10.727
65944SOL    HW299672  10.539   4.435  10.603
65945SOL     OW99673   5.350   1.152  11.678
65945SOL    HW199674   5.326   1.187  11.593
65945SOL    HW299675   5.425   1.096  11.660
65946SOL     OW99676   2.538   1.095   2.239
65946SOL    HW199677   2.514   1.137   2.157
65946SOL    HW299678   2.628   1.124   2.255
65947SOL     OW99679   3.069  14.496   7.998
65947SOL    HW199680   3.162  14.488   7.976
65947SOL    HW299681   3.027  14.427   7.946
65948SOL     OW99682  12.792  14.162  13.419
65948SOL    HW199683  12.738  14.232  13.383
65948SOL    HW299684  12.731  14.089  13.433
65949SOL     OW99685  10.873   3.610  14.515
65949SOL    HW199686  10.833   3.653  14.590
65949SOL    HW299687  10.800   3.563  14.473
65950SOL     OW99688   7.923   5.950   1.011
65950SOL    HW199689   7.943   5.859   0.988
65950SOL    HW299690   7.828   5.957   0.998
65951SOL     OW99691  14.505   9.233   6.787
65951SOL    HW199692  14.418   9.271   6.778
65951SOL    HW299693  14.517   9.221   6.881
65952SOL     OW99694  11.402   3.119   7.810
65952SOL    HW199695  11.308   3.100   7.816
65952SOL    HW299696  11.407   3.200   7.760
65953SOL     OW99697   2.373   7.180   7.592
65953SOL    HW199698   2.372   7.100   7.539
65953SOL    HW299699   2.441   7.164   7.657
65954SOL     OW99700  13.573   2.041   7.837
65954SOL    HW199701  13.631   1.965   7.832
65954SOL    HW299702  13.570   2.075   7.748
65955SOL     OW99703   8.089   3.266   7.058
65955SOL    HW199704   8.160   3.239   7.000
65955SOL    HW299705   8.019   3.292   6.999
65956SOL     OW99706   7.851   3.712  13.050
65956SOL    HW199707   7.809   3.752  13.126
65956SOL    HW299708   7.944   3.706  13.073
65957SOL     OW99709  13.242   6.252   9.833
65957SOL    HW199710  13.335   6.268   9.816
65957SOL    HW299711  13.225   6.296   9.916
65958SOL     OW99712  14.781   8.018   4.593
65958SOL    HW199713  14.817   7.939   4.634
65958SOL    HW299714  14.693   7.993   4.565
65959SOL     OW99715  14.499   7.759  12.761
65959SOL    HW199716  14.593   7.751  12.744
65959SOL    HW299717  14.481   7.693  12.827
65960SOL     OW99718   7.204  11.759  12.924
65960SOL    HW199719   7.186  11.673  12.887
65960SOL    HW299720   7.298  11.759  12.942
65961SOL     OW99721   4.053   4.668   6.710
65961SOL    HW199722   4.053   4.603   6.639
65961SOL    HW299723   4.145   4.694   6.719
65962SOL     OW99724  10.725   3.973  10.235
65962SOL    HW199725  10.652   4.022  10.271
65962SOL    HW299726  10.789   3.969  10.306
65963SOL     OW99727   4.325   9.438   5.854
65963SOL    HW199728   4.408   9.430   5.806
65963SOL    HW299729   4.271   9.367   5.819
65964SOL     OW99730   0.947  10.131   7.476
65964SOL    HW199731   0.974  10.102   7.564
65964SOL    HW299732   0.907  10.217   7.490
65965SOL     OW99733  11.335  11.405  10.682
65965SOL    HW199734  11.402  11.468  10.655
65965SOL    HW299735  11.350  11.329  10.625
65966SOL     OW99736   3.188   1.400  13.498
65966SOL    HW199737   3.217   1.491  13.509
65966SOL    HW299738   3.238   1.351  13.563
65967SOL     OW99739   0.697  11.989   9.231
65967SOL    HW199740   0.782  12.006   9.192
65967SOL    HW299741   0.715  11.928   9.303
65968SOL     OW99742   1.967  14.428  14.435
65968SOL    HW199743   1.941  14.346  14.393
65968SOL    HW299744   1.910  14.436  14.511
65969SOL     OW99745  12.097   4.343  12.298
65969SOL    HW199746  12.189   4.321  12.280
65969SOL    HW299747  12.052   4.259  12.301
65970SOL     OW99748  10.274  14.830  11.562
65970SOL    HW199749  10.291  14.847  11.469
65970SOL    HW299750  10.339   0.002  11.609
65971SOL     OW99751   5.575  10.479   1.899
65971SOL    HW199752   5.552  10.534   1.824
65971SOL    HW299753   5.507  10.411   1.901
65972SOL     OW99754   2.118   3.841   8.183
65972SOL    HW199755   2.066   3.800   8.115
65972SOL    HW299756   2.058   3.903   8.226
65973SOL     OW99757   7.761   7.500   8.383
65973SOL    HW199758   7.710   7.556   8.442
65973SOL    HW299759   7.852   7.512   8.412
65974SOL     OW99760   9.209   3.389  14.095
65974SOL    HW199761   9.254   3.359  14.016
65974SOL    HW299762   9.272   3.445  14.139
65975SOL     OW99763   1.055   0.071   6.210
65975SOL    HW199764   1.116   0.091   6.139
65975SOL    HW299765   0.977   0.037   6.166
65976SOL     OW99766  13.964  12.823   0.385
65976SOL    HW199767  13.892  12.774   0.345
65976SOL    HW299768  13.942  12.826   0.478
65977SOL     OW99769  11.064  13.820   9.873
65977SOL    HW199770  11.081  13.766   9.796
65977SOL    HW299771  10.969  13.816   9.886
65978SOL     OW99772   2.608   4.457   2.397
65978SOL    HW199773   2.543   4.390   2.373
65978SOL    HW299774   2.615   4.449   2.493
65979SOL     OW99775  14.241  13.204   1.831
65979SOL    HW199776  14.213  13.116   1.805
65979SOL    HW299777  14.288  13.238   1.755
65980SOL     OW99778   8.058   5.785   6.407
65980SOL    HW199779   8.052   5.812   6.315
65980SOL    HW299780   8.114   5.851   6.448
65981SOL     OW99781   9.537   4.283   4.107
65981SOL    HW199782   9.506   4.346   4.173
65981SOL    HW299783   9.632   4.292   4.108
65982SOL     OW99784   2.485   9.575   8.599
65982SOL    HW199785   2.403   9.526   8.591
65982SOL    HW299786   2.520   9.550   8.684
65983SOL     OW99787   4.872   2.506   4.769
65983SOL    HW199788   4.929   2.478   4.840
65983SOL    HW299789   4.919   2.480   4.689
65984SOL     OW99790   3.612   1.081   9.216
65984SOL    HW199791   3.659   1.081   9.133
65984SOL    HW299792   3.533   1.031   9.199
65985SOL     OW99793   0.820  10.033  11.080
65985SOL    HW199794   0.881  10.011  11.150
65985SOL    HW299795   0.779   9.950  11.057
65986SOL     OW99796   1.509   2.869   1.120
65986SOL    HW199797   1.538   2.830   1.203
65986SOL    HW299798   1.414   2.861   1.121
65987SOL     OW99799  13.277   2.631   5.641
65987SOL    HW199800  13.261   2.698   5.708
65987SOL    HW299801  13.319   2.679   5.569
65988SOL     OW99802  12.360   7.273   8.991
65988SOL    HW199803  12.422   7.306   8.926
65988SOL    HW299804  12.276   7.269   8.945
65989SOL     OW99805   2.537   3.508  12.533
65989SOL    HW199806   2.585   3.589  12.524
65989SOL    HW299807   2.562   3.473  12.619
65990SOL     OW99808  10.544   4.944   0.349
65990SOL    HW199809  10.601   5.008   0.308
65990SOL    HW299810  10.515   4.986   0.431
65991SOL     OW99811  11.212  13.391   7.457
65991SOL    HW199812  11.297  13.375   7.498
65991SOL    HW299813  11.154  13.416   7.529
65992SOL     OW99814   5.082  11.447   5.870
65992SOL    HW199815   5.050  11.361   5.898
65992SOL    HW299816   5.128  11.431   5.788
65993SOL     OW99817   2.728   0.504   9.695
65993SOL    HW199818   2.749   0.419   9.735
65993SOL    HW299819   2.735   0.488   9.601
65994SOL     OW99820   9.739   1.551   1.916
65994SOL    HW199821   9.804   1.488   1.948
65994SOL    HW299822   9.770   1.636   1.947
65995SOL     OW99823  13.132   9.021   9.374
65995SOL    HW199824  13.199   8.961   9.341
65995SOL    HW299825  13.050   8.974   9.362
65996SOL     OW99826   5.242  14.850   6.758
65996SOL    HW199827   5.186  14.865   6.682
65996SOL    HW299828   5.301  14.779   6.731
65997SOL     OW99829   4.652   5.800   8.069
65997SOL    HW199830   4.664   5.875   8.127
65997SOL    HW299831   4.562   5.772   8.084
65998SOL     OW99832   3.695   7.444   4.766
65998SOL    HW199833   3.664   7.362   4.805
65998SOL    HW299834   3.691   7.429   4.672
65999SOL     OW99835  13.683   7.779   3.433
65999SOL    HW199836  13.765   7.786   3.383
65999SOL    HW299837  13.709   7.796   3.524
66000SOL     OW99838  14.270   0.067  13.632
66000SOL    HW199839  14.262   0.162  13.621
66000SOL    HW299840  14.273   0.032  13.543
66001SOL     OW99841   7.399   8.416  10.953
66001SOL    HW199842   7.359   8.489  11.000
66001SOL    HW299843   7.353   8.339  10.985
66002SOL     OW99844  10.688   7.983   8.358
66002SOL    HW199845  10.700   7.957   8.449
66002SOL    HW299846  10.644   7.909   8.317
66003SOL     OW99847   2.272  10.539  10.365
66003SOL    HW199848   2.262  10.627  10.402
66003SOL    HW299849   2.343  10.548  10.301
66004SOL     OW99850   3.415   5.976   7.327
66004SOL    HW199851   3.339   5.954   7.381
66004SOL    HW299852   3.460   6.046   7.376
66005SOL     OW99853  12.539   0.243  10.029
66005SOL    HW199854  12.614   0.284  10.071
66005SOL    HW299855  12.549   0.263   9.936
66006SOL     OW99856   5.442   9.094   3.647
66006SOL    HW199857   5.519   9.139   3.682
66006SOL    HW299858   5.470   9.060   3.562
66007SOL     OW99859  13.070   9.508   4.204
66007SOL    HW199860  13.074   9.412   4.208
66007SOL    HW299861  13.107   9.536   4.288
66008SOL     OW99862   7.207   4.066   4.999
66008SOL    HW199863   7.296   4.046   5.026
66008SOL    HW299864   7.171   3.983   4.968
66009SOL     OW99865   7.374   8.869   8.624
66009SOL    HW199866   7.432   8.943   8.640
66009SOL    HW299867   7.342   8.882   8.534
66010SOL     OW99868   2.187   0.956   3.798
66010SOL    HW199869   2.107   0.918   3.762
66010SOL    HW299870   2.250   0.953   3.726
66011SOL     OW99871   3.940  11.958   2.853
66011SOL    HW199872   3.986  11.951   2.770
66011SOL    HW299873   3.900  11.871   2.866
66012SOL     OW99874   9.130   7.491   5.266
66012SOL    HW199875   9.149   7.584   5.270
66012SOL    HW299876   9.039   7.483   5.295
66013SOL     OW99877   6.493   9.544   0.461
66013SOL    HW199878   6.438   9.551   0.383
66013SOL    HW299879   6.504   9.635   0.490
66014SOL     OW99880   2.078   5.527  11.793
66014SOL    HW199881   2.143   5.585  11.832
66014SOL    HW299882   2.055   5.466  11.863
66015SOL     OW99883   3.277  12.863   5.580
66015SOL    HW199884   3.270  12.884   5.487
66015SOL    HW299885   3.187  12.861   5.612
66016SOL     OW99886   8.661   7.775   0.234
66016SOL    HW199887   8.617   7.705   0.185
66016SOL    HW299888   8.730   7.806   0.175
66017SOL     OW99889  14.302   5.608  10.665
66017SOL    HW199890  14.337   5.523  10.638
66017SOL    HW299891  14.271   5.648  10.584
66018SOL     OW99892   3.097   7.323  11.613
66018SOL    HW199893   3.103   7.309  11.707
66018SOL    HW299894   3.013   7.285  11.588
66019SOL     OW99895  10.209   9.610   9.191
66019SOL    HW199896  10.142   9.571   9.247
66019SOL    HW299897  10.206   9.704   9.212
66020SOL     OW99898   4.018   2.344  13.064
66020SOL    HW199899   4.083   2.407  13.033
66020SOL    HW299900   4.065   2.289  13.126
66021SOL     OW99901   1.891  14.105  11.739
66021SOL    HW199902   1.798  14.097  11.718
66021SOL    HW299903   1.901  14.057  11.822
66022SOL     OW99904  10.404  12.391   2.040
66022SOL    HW199905  10.473  12.432   2.092
66022SOL    HW299906  10.405  12.439   1.957
66023SOL     OW99907   4.078  14.517   2.408
66023SOL    HW199908   4.038  14.443   2.453
66023SOL    HW299909   4.094  14.581   2.477
66024SOL     OW99910   9.833   4.784   7.310
66024SOL    HW199911   9.844   4.846   7.382
66024SOL    HW299912   9.885   4.821   7.239
66025SOL     OW99913   4.266  13.902   2.372
66025SOL    HW199914   4.267  13.977   2.431
66025SOL    HW299915   4.176  13.869   2.377
66026SOL     OW99916   6.598  11.895   5.039
66026SOL    HW199917   6.680  11.851   5.062
66026SOL    HW299918   6.580  11.952   5.114
66027SOL     OW99919   5.727  12.742   4.555
66027SOL    HW199920   5.660  12.715   4.618
66027SOL    HW299921   5.681  12.742   4.471
66028SOL     OW99922  10.627   9.674   3.196
66028SOL    HW199923  10.533   9.681   3.208
66028SOL    HW299924  10.658   9.622   3.269
66029SOL     OW99925   6.655  13.993   5.894
66029SOL    HW199926   6.622  14.029   5.812
66029SOL    HW299927   6.687  13.906   5.871
66030SOL     OW99928  14.526   1.933  12.917
66030SOL    HW199929  14.516   2.016  12.962
66030SOL    HW299930  14.451   1.880  12.944
66031SOL     OW99931   0.606   8.517   3.222
66031SOL    HW199932   0.673   8.577   3.255
66031SOL    HW299933   0.653   8.458   3.164
66032SOL     OW99934   6.869   1.768   1.222
66032SOL    HW199935   6.788   1.717   1.229
66032SOL    HW299936   6.840   1.859   1.224
66033SOL     OW99937  10.215   9.520   8.601
66033SOL    HW199938  10.146   9.469   8.558
66033SOL    HW299939  10.238   9.588   8.537
66034SOL     OW99940   0.275   2.218   0.618
66034SOL    HW199941   0.191   2.264   0.612
66034SOL    HW299942   0.319   2.260   0.692
66035SOL     OW99943  12.322   8.291   3.477
66035SOL    HW199944  12.333   8.259   3.566
66035SOL    HW299945  12.391   8.357   3.467
66036SOL     OW99946  14.856   2.063   8.193
66036SOL    HW199947   0.026   2.136   8.156
66036SOL    HW299948  14.765   2.094   8.195
66037SOL     OW99949   7.780   7.554   3.420
66037SOL    HW199950   7.875   7.566   3.410
66037SOL    HW299951   7.749   7.636   3.458
66038SOL     OW99952  12.704   2.905   4.011
66038SOL    HW199953  12.651   2.961   3.955
66038SOL    HW299954  12.652   2.825   4.021
66039SOL     OW99955   5.571  10.655   7.199
66039SOL    HW199956   5.600  10.573   7.159
66039SOL    HW299957   5.558  10.634   7.291
66040SOL     OW99958   6.382   4.904   6.082
66040SOL    HW199959   6.301   4.954   6.085
66040SOL    HW299960   6.384   4.865   5.995
66041SOL     OW99961  10.418   4.462   5.407
66041SOL    HW199962  10.495   4.502   5.368
66041SOL    HW299963  10.362   4.535   5.432
66042SOL     OW99964   0.027   1.604  13.124
66042SOL    HW199965   0.003   1.515  13.150
66042SOL    HW299966   0.101   1.592  13.064
66043SOL     OW99967   2.638   5.714  10.549
66043SOL    HW199968   2.645   5.648  10.617
66043SOL    HW299969   2.544   5.736  10.547
66044SOL     OW99970   2.789   4.350   4.993
66044SOL    HW199971   2.840   4.421   5.032
66044SOL    HW299972   2.717   4.337   5.054
66045SOL     OW99973   2.688   2.389   9.292
66045SOL    HW199974   2.604   2.359   9.326
66045SOL    HW299975   2.745   2.393   9.368
66046SOL     OW99976   7.542   3.629   6.577
66046SOL    HW199977   7.602   3.659   6.645
66046SOL    HW299978   7.565   3.538   6.562
66047SOL     OW99979  12.948  11.634   8.850
66047SOL    HW199980  12.989  11.721   8.849
66047SOL    HW299981  12.943  11.611   8.943
66048SOL     OW99982   3.617   7.818   6.264
66048SOL    HW199983   3.559   7.796   6.191
66048SOL    HW299984   3.642   7.909   6.249
66049SOL     OW99985  10.666   4.566   8.423
66049SOL    HW199986  10.607   4.606   8.486
66049SOL    HW299987  10.746   4.548   8.473
66050SOL     OW99988   5.203   4.095   7.157
66050SOL    HW199989   5.131   4.076   7.097
66050SOL    HW299990   5.194   4.029   7.227
66051SOL     OW99991   9.101   4.965  10.979
66051SOL    HW199992   9.083   5.001  11.066
66051SOL    HW299993   9.146   5.036  10.932
66052SOL     OW99994  13.434   5.079   9.948
66052SOL    HW199995  13.423   5.167   9.912
66052SOL    HW299996  13.466   5.093  10.037
66053SOL     OW99997   5.330   6.822   3.778
66053SOL    HW199998   5.387   6.792   3.707
66053SOL    HW299999   5.391   6.854   3.845
66054SOL     OW    0  12.606  14.645   4.429
66054SOL    HW1    1  12.629  14.554   4.446
66054SOL    HW2    2  12.546  14.669   4.500
66055SOL     OW    3   7.123   2.027  12.271
66055SOL    HW1    4   7.138   2.051  12.179
66055SOL    HW2    5   7.041   1.979  12.270
66056SOL     OW    6  11.906   6.430   1.048
66056SOL    HW1    7  11.837   6.452   0.985
66056SOL    HW2    8  11.904   6.334   1.052
66057SOL     OW    9   4.793   9.242   6.941
66057SOL    HW1   10   4.851   9.246   6.865
66057SOL    HW2   11   4.743   9.323   6.938
66058SOL     OW   12   2.716   4.105  11.727
66058SOL    HW1   13   2.633   4.120  11.772
66058SOL    HW2   14   2.701   4.138  11.638
66059SOL     OW   15   5.574  13.726   1.504
66059SOL    HW1   16   5.635  13.660   1.537
66059SOL    HW2   17   5.629  13.790   1.459
66060SOL     OW   18  12.158  10.172   3.321
66060SOL    HW1   19  12.099  10.232   3.366
66060SOL    HW2   20  12.164  10.096   3.379
66061SOL     OW   21   3.013  12.266   4.546
66061SOL    HW1   22   3.000  12.242   4.638
66061SOL    HW2   23   2.970  12.196   4.497
66062SOL     OW   24   0.254   7.913   2.215
66062SOL    HW1   25   0.245   7.905   2.120
66062SOL    HW2   26   0.292   8.000   2.228
66063SOL     OW   27   6.894  11.709   8.634
66063SOL    HW1   28   6.894  11.671   8.547
66063SOL    HW2   29   6.986  11.730   8.651
66064SOL     OW   30   1.594  12.828   1.359
66064SOL    HW1   31   1.595  12.776   1.278
66064SOL    HW2   32   1.670  12.886   1.350
66065SOL     OW   33   2.292   3.850   3.626
66065SOL    HW1   34   2.361   3.851   3.559
66065SOL    HW2   35   2.317   3.778   3.684
66066SOL     OW   36   8.550  13.681   6.264
66066SOL    HW1   37   8.542  13.773   6.239
66066SOL    HW2   38   8.635  13.675   6.308
66067SOL     OW   39   6.809  13.101   0.390
66067SOL    HW1   40   6.812  13.046   0.312
66067SOL    HW2   41   6.880  13.068   0.445
66068SOL     OW   42   8.219  11.132  13.228
66068SOL    HW1   43   8.217  11.224  13.252
66068SOL    HW2   44   8.265  11.129  13.144
66069SOL     OW   45   5.567   0.790  12.190
66069SOL    HW1   46   5.626   0.859  12.160
66069SOL    HW2   47   5.479   0.828  12.179
66070SOL     OW   48  10.255  13.294   6.639
66070SOL    HW1   49  10.263  13.199   6.640
66070SOL    HW2   50  10.180  13.311   6.582
66071SOL     OW   51   4.320   8.264   4.201
66071SOL    HW1   52   4.371   8.324   4.255
66071SOL    HW2   53   4.373   8.254   4.121
66072SOL     OW   54   8.909  12.882   2.281
66072SOL    HW1   55   8.877  12.810   2.335
66072SOL    HW2   56   8.996  12.854   2.254
66073SOL     OW   57   8.224  10.259   5.086
66073SOL    HW1   58   8.190  10.273   5.175
66073SOL    HW2   59   8.249  10.167   5.084
66074SOL     OW   60   0.006   3.861   7.178
66074SOL    HW1   61   0.089   3.908   7.185
66074SOL    HW2   62   0.031   3.771   7.157
66075SOL     OW   63   3.594   6.400  12.353
66075SOL    HW1   64   3.688   6.393  12.368
66075SOL    HW2   65   3.555   6.379  12.438
66076SOL     OW   66  12.752   8.591   6.648
66076SOL    HW1   67  12.705   8.671   6.627
66076SOL    HW2   68  12.821   8.619   6.710
66077SOL     OW   69   2.997   5.477  10.055
66077SOL    HW1   70   2.917   5.516  10.017
66077SOL    HW2   71   2.974   5.385  10.068
66078SOL     OW   72  14.425   3.590   5.557
66078SOL    HW1   73  14.444   3.501   5.528
66078SOL    HW2   74  14.466   3.597   5.643
66079SOL     OW   75  14.728   6.571   2.286
66079SOL    HW1   76  14.705   6.589   2.195
66079SOL    HW2   77  14.737   6.476   2.290
66080SOL     OW   78   0.674   1.756   5.889
66080SOL    HW1   79   0.739   1.686   5.887
66080SOL    HW2   80   0.638   1.752   5.978
66081SOL     OW   81   4.195   5.337   7.701
66081SOL    HW1   82   4.139   5.286   7.642
66081SOL    HW2   83   4.163   5.427   7.692
66082SOL     OW   84   9.476   4.433   9.897
66082SOL    HW1   85   9.461   4.376   9.821
66082SOL    HW2   86   9.393   4.479   9.909
66083SOL     OW   87   8.752   4.202   4.488
66083SOL    HW1   88   8.725   4.200   4.580
66083SOL    HW2   89   8.834   4.250   4.487
66084SOL     OW   90  13.312  10.651   8.341
66084SOL    HW1   91  13.327  10.557   8.353
66084SOL    HW2   92  13.229  10.668   8.385
66085SOL     OW   93   1.943   0.437  12.958
66085SOL    HW1   94   1.958   0.519  13.004
66085SOL    HW2   95   1.866   0.399  13.000
66086SOL     OW   96   6.235   2.158   4.123
66086SOL    HW1   97   6.188   2.100   4.063
66086SOL    HW2   98   6.306   2.105   4.157
66087SOL     OW   99   3.031   7.748   2.056
66087SOL    HW1  100   3.033   7.712   1.967
66087SOL    HW2  101   3.081   7.685   2.109
66088SOL     OW  102   9.971  10.242   2.797
66088SOL    HW1  103   9.906  10.213   2.732
66088SOL    HW2  104   9.971  10.173   2.863
66089SOL     OW  105  10.149   0.552  14.397
66089SOL    HW1  106  10.070   0.606  14.407
66089SOL    HW2  107  10.117   0.470  14.360
66090SOL     OW  108   7.050   6.304   0.770
66090SOL    HW1  109   7.129   6.338   0.726
66090SOL    HW2  110   6.979   6.323   0.708
66091SOL     OW  111   0.276   6.985  11.078
66091SOL    HW1  112   0.247   7.065  11.122
66091SOL    HW2  113   0.221   6.916  11.114
66092SOL     OW  114  10.243  14.519   0.545
66092SOL    HW1  115  10.287  14.520   0.630
66092SOL    HW2  116  10.315  14.522   0.481
66093SOL     OW  117   3.345   6.908   1.866
66093SOL    HW1  118   3.257   6.909   1.904
66093SOL    HW2  119   3.361   6.999   1.839
66094SOL     OW  120   2.171   8.277   3.852
66094SOL    HW1  121   2.258   8.316   3.841
66094SOL    HW2  122   2.182   8.213   3.923
66095SOL     OW  123   9.401   2.342   8.025
66095SOL    HW1  124   9.414   2.270   7.965
66095SOL    HW2  125   9.328   2.314   8.081
66096SOL     OW  126   4.754   1.138   0.154
66096SOL    HW1  127   4.677   1.188   0.180
66096SOL    HW2  128   4.809   1.200   0.107
66097SOL     OW  129   6.417   9.682   7.892
66097SOL    HW1  130   6.406   9.591   7.865
66097SOL    HW2  131   6.328   9.711   7.913
66098SOL     OW  132  11.813  12.305  12.549
66098SOL    HW1  133  11.769  12.364  12.487
66098SOL    HW2  134  11.884  12.358  12.585
66099SOL     OW  135  13.947  13.414   8.900
66099SOL    HW1  136  13.935  13.507   8.880
66099SOL    HW2  137  13.875  13.370   8.854
66100SOL     OW  138   8.930   6.060   3.639
66100SOL    HW1  139   8.924   6.000   3.713
66100SOL    HW2  140   8.993   6.127   3.668
66101SOL     OW  141   9.797  12.445   3.704
66101SOL    HW1  142   9.838  12.482   3.626
66101SOL    HW2  143   9.726  12.390   3.669
66102SOL     OW  144  13.401   7.736   8.193
66102SOL    HW1  145  13.330   7.800   8.195
66102SOL    HW2  146  13.473   7.781   8.150
66103SOL     OW  147   3.184  12.656  13.527
66103SOL    HW1  148   3.092  12.638  13.542
66103SOL    HW2  149   3.226  12.570  13.530
66104SOL     OW  150   5.178   4.661   3.612
66104SOL    HW1  151   5.268   4.631   3.603
66104SOL    HW2  152   5.162   4.715   3.535
66105SOL     OW  153   9.609   1.511  10.182
66105SOL    HW1  154   9.670   1.562  10.236
66105SOL    HW2  155   9.602   1.427  10.228
66106SOL     OW  156  10.882  13.126   6.037
66106SOL    HW1  157  10.822  13.138   5.963
66106SOL    HW2  158  10.900  13.032   6.038
66107SOL     OW  159   1.577   3.486   0.849
66107SOL    HW1  160   1.541   3.561   0.897
66107SOL    HW2  161   1.509   3.420   0.852
66108SOL     OW  162   1.706   5.584  13.856
66108SOL    HW1  163   1.665   5.603  13.771
66108SOL    HW2  164   1.747   5.667  13.882
66109SOL     OW  165   9.575   8.146  14.731
66109SOL    HW1  166   9.660   8.130  14.691
66109SOL    HW2  167   9.558   8.239  14.714
66110SOL     OW  168   9.980   1.666  12.422
66110SOL    HW1  169  10.071   1.685  12.445
66110SOL    HW2  170   9.958   1.590  12.476
66111SOL     OW  171  14.606  12.637   2.474
66111SOL    HW1  172  14.584  12.635   2.381
66111SOL    HW2  173  14.648  12.552   2.490
66112SOL     OW  174   1.898   8.723  13.956
66112SOL    HW1  175   1.964   8.791  13.966
66112SOL    HW2  176   1.933   8.665  13.889
66113SOL     OW  177   9.301   1.484  10.723
66113SOL    HW1  178   9.380   1.453  10.679
66113SOL    HW2  179   9.286   1.421  10.794
66114SOL     OW  180  13.390   0.550  14.661
66114SOL    HW1  181  13.325   0.508  14.606
66114SOL    HW2  182  13.384   0.643  14.639
66115SOL     OW  183  10.706  11.239  14.167
66115SOL    HW1  184  10.754  11.319  14.187
66115SOL    HW2  185  10.724  11.182  14.242
66116SOL     OW  186  11.179   9.029   9.585
66116SOL    HW1  187  11.146   8.949   9.625
66116SOL    HW2  188  11.138   9.031   9.498
66117SOL     OW  189   4.715   1.896   7.378
66117SOL    HW1  190   4.673   1.818   7.343
66117SOL    HW2  191   4.687   1.966   7.319
66118SOL     OW  192   8.501   8.553  14.619
66118SOL    HW1  193   8.470   8.622  14.678
66118SOL    HW2  194   8.425   8.534  14.564
66119SOL     OW  195   0.658  13.216   4.738
66119SOL    HW1  196   0.724  13.149   4.720
66119SOL    HW2  197   0.608  13.181   4.812
66120SOL     OW  198  10.527  14.488   8.331
66120SOL    HW1  199  10.441  14.472   8.292
66120SOL    HW2  200  10.586  14.501   8.257
66121SOL     OW  201   9.770  12.156   4.479
66121SOL    HW1  202   9.714  12.095   4.527
66121SOL    HW2  203   9.756  12.135   4.387
66122SOL     OW  204   3.577   5.609  12.580
66122SOL    HW1  205   3.645   5.627  12.645
66122SOL    HW2  206   3.619   5.552  12.516
66123SOL     OW  207   5.003   0.472   3.869
66123SOL    HW1  208   4.935   0.507   3.811
66123SOL    HW2  209   5.052   0.549   3.896
66124SOL     OW  210   9.620   3.064   4.611
66124SOL    HW1  211   9.574   2.991   4.570
66124SOL    HW2  212   9.659   3.026   4.690
66125SOL     OW  213  12.215  12.483   1.789
66125SOL    HW1  214  12.176  12.434   1.861
66125SOL    HW2  215  12.146  12.544   1.762
66126SOL     OW  216   7.063   6.613  14.596
66126SOL    HW1  217   7.054   6.688  14.537
66126SOL    HW2  218   6.993   6.623  14.660
66127SOL     OW  219  11.094  13.964  10.466
66127SOL    HW1  220  11.138  13.891  10.422
66127SOL    HW2  221  11.148  14.040  10.445
66128SOL     OW  222   5.614   9.107   4.741
66128SOL    HW1  223   5.659   9.138   4.820
66128SOL    HW2  224   5.669   9.035   4.709
66129SOL     OW  225  12.172   4.579   6.112
66129SOL    HW1  226  12.095   4.542   6.069
66129SOL    HW2  227  12.233   4.506   6.120
66130SOL     OW  228  11.422   4.718  10.180
66130SOL    HW1  229  11.507   4.731  10.139
66130SOL    HW2  230  11.375   4.800  10.165
66131SOL     OW  231   0.007   8.058   7.523
66131SOL    HW1  232   0.052   8.096   7.599
66131SOL    HW2  233  14.794   8.058   7.548
66132SOL     OW  234   9.243   4.684  14.223
66132SOL    HW1  235   9.312   4.627  14.256
66132SOL    HW2  236   9.179   4.624  14.184
66133SOL     OW  237   7.179   7.480  13.817
66133SOL    HW1  238   7.144   7.534  13.746
66133SOL    HW2  239   7.126   7.400  13.813
66134SOL     OW  240   7.224  14.496   3.354
66134SOL    HW1  241   7.271  14.413   3.359
66134SOL    HW2  242   7.141  14.479   3.397
66135SOL     OW  243  12.640  12.536  12.692
66135SOL    HW1  244  12.707  12.471  12.711
66135SOL    HW2  245  12.688  12.609  12.653
66136SOL     OW  246  10.825   9.853   0.270
66136SOL    HW1  247  10.901   9.820   0.222
66136SOL    HW2  248  10.754   9.852   0.205
66137SOL     OW  249  13.711   9.112   5.589
66137SOL    HW1  250  13.785   9.113   5.650
66137SOL    HW2  251  13.668   9.197   5.602
66138SOL     OW  252  11.173  11.962  14.485
66138SOL    HW1  253  11.171  12.057  14.471
66138SOL    HW2  254  11.255  11.933  14.446
66139SOL     OW  255   5.288   8.101   5.784
66139SOL    HW1  256   5.333   8.107   5.867
66139SOL    HW2  257   5.207   8.151   5.796
66140SOL     OW  258  11.428   8.700   6.957
66140SOL    HW1  259  11.387   8.623   6.918
66140SOL    HW2  260  11.520   8.694   6.932
66141SOL     OW  261   3.873   1.138   0.036
66141SOL    HW1  262   3.807   1.203   0.058
66141SOL    HW2  263   3.942   1.150   0.101
66142SOL     OW  264  10.497   3.194   2.538
66142SOL    HW1  265  10.521   3.103   2.554
66142SOL    HW2  266  10.459   3.193   2.450
66143SOL     OW  267   8.658   2.059   2.476
66143SOL    HW1  268   8.657   1.967   2.449
66143SOL    HW2  269   8.598   2.102   2.415
66144SOL     OW  270   7.006  12.801   3.846
66144SOL    HW1  271   7.053  12.876   3.882
66144SOL    HW2  272   7.059  12.772   3.772
66145SOL     OW  273   8.565   5.429   4.747
66145SOL    HW1  274   8.556   5.377   4.667
66145SOL    HW2  275   8.531   5.515   4.723
66146SOL     OW  276   8.095  13.559  13.826
66146SOL    HW1  277   8.101  13.654  13.812
66146SOL    HW2  278   8.182  13.534  13.857
66147SOL     OW  279   8.938   7.915  10.106
66147SOL    HW1  280   8.976   7.956  10.184
66147SOL    HW2  281   8.968   7.824  10.110
66148SOL     OW  282   7.997   2.076  12.579
66148SOL    HW1  283   7.996   2.025  12.660
66148SOL    HW2  284   8.078   2.127  12.583
66149SOL     OW  285   1.572  11.724  11.608
66149SOL    HW1  286   1.657  11.706  11.648
66149SOL    HW2  287   1.566  11.820  11.608
66150SOL     OW  288   3.452   1.107   1.865
66150SOL    HW1  289   3.381   1.150   1.817
66150SOL    HW2  290   3.418   1.098   1.954
66151SOL     OW  291  14.796  12.264   2.115
66151SOL    HW1  292  14.798  12.184   2.168
66151SOL    HW2  293   0.003  12.303   2.129
66152SOL     OW  294   7.578   3.536  13.553
66152SOL    HW1  295   7.534   3.456  13.582
66152SOL    HW2  296   7.560   3.541  13.459
66153SOL     OW  297  10.242   3.997   3.397
66153SOL    HW1  298  10.180   3.927   3.416
66153SOL    HW2  299  10.284   3.970   3.315
66154SOL     OW  300   2.013   0.438  10.203
66154SOL    HW1  301   2.040   0.411  10.115
66154SOL    HW2  302   2.031   0.532  10.205
66155SOL     OW  303   9.862   7.957  10.064
66155SOL    HW1  304   9.888   8.017   9.995
66155SOL    HW2  305   9.834   8.013  10.136
66156SOL     OW  306  12.414   6.096   3.618
66156SOL    HW1  307  12.438   6.132   3.703
66156SOL    HW2  308  12.321   6.118   3.608
66157SOL     OW  309   1.110   6.686   1.603
66157SOL    HW1  310   1.160   6.613   1.567
66157SOL    HW2  311   1.043   6.705   1.537
66158SOL     OW  312   4.253   6.021   8.206
66158SOL    HW1  313   4.207   6.104   8.195
66158SOL    HW2  314   4.253   5.982   8.118
66159SOL     OW  315   9.164  11.913   5.199
66159SOL    HW1  316   9.206  11.871   5.274
66159SOL    HW2  317   9.229  11.976   5.167
66160SOL     OW  318   5.100  10.781   2.280
66160SOL    HW1  319   5.188  10.777   2.241
66160SOL    HW2  320   5.062  10.862   2.245
66161SOL     OW  321   3.371   9.214   6.216
66161SOL    HW1  322   3.320   9.218   6.135
66161SOL    HW2  323   3.326   9.149   6.269
66162SOL     OW  324  12.594   5.072  10.796
66162SOL    HW1  325  12.619   4.979  10.801
66162SOL    HW2  326  12.557   5.082  10.709
66163SOL     OW  327   1.448   5.953   8.480
66163SOL    HW1  328   1.367   5.924   8.437
66163SOL    HW2  329   1.517   5.902   8.437
66164SOL     OW  330  11.006  10.419  13.305
66164SOL    HW1  331  11.046  10.360  13.369
66164SOL    HW2  332  10.922  10.378  13.284
66165SOL     OW  333   2.331   8.131  11.640
66165SOL    HW1  334   2.285   8.214  11.629
66165SOL    HW2  335   2.267   8.064  11.615
66166SOL     OW  336   3.279   9.576   4.866
66166SOL    HW1  337   3.269   9.481   4.867
66166SOL    HW2  338   3.196   9.608   4.830
66167SOL     OW  339   8.960  11.641   1.376
66167SOL    HW1  340   8.960  11.688   1.293
66167SOL    HW2  341   9.025  11.572   1.364
66168SOL     OW  342   7.900  10.641  10.787
66168SOL    HW1  343   7.969  10.692  10.829
66168SOL    HW2  344   7.899  10.558  10.835
66169SOL     OW  345  14.322  13.116   7.189
66169SOL    HW1  346  14.375  13.194   7.178
66169SOL    HW2  347  14.301  13.088   7.100
66170SOL     OW  348  12.318  13.165   0.083
66170SOL    HW1  349  12.362  13.241   0.044
66170SOL    HW2  350  12.389  13.116   0.125
66171SOL     OW  351   9.269   2.988   3.333
66171SOL    HW1  352   9.276   3.076   3.296
66171SOL    HW2  353   9.193   2.992   3.392
66172SOL     OW  354   3.446   9.260  13.752
66172SOL    HW1  355   3.423   9.285  13.842
66172SOL    HW2  356   3.363   9.259  13.706
66173SOL     OW  357  10.723   5.936   0.853
66173SOL    HW1  358  10.696   5.883   0.928
66173SOL    HW2  359  10.788   5.997   0.890
66174SOL     OW  360   4.635   3.831  14.189
66174SOL    HW1  361   4.540   3.819  14.189
66174SOL    HW2  362   4.662   3.812  14.099
66175SOL     OW  363   5.284   1.297  12.079
66175SOL    HW1  364   5.270   1.229  12.013
66175SOL    HW2  365   5.207   1.353  12.072
66176SOL     OW  366   2.472  10.829   0.660
66176SOL    HW1  367   2.404  10.896   0.649
66176SOL    HW2  368   2.426  10.756   0.703
66177SOL     OW  369   0.848   8.804   1.602
66177SOL    HW1  370   0.843   8.805   1.507
66177SOL    HW2  371   0.895   8.885   1.624
66178SOL     OW  372  10.192   5.193   3.554
66178SOL    HW1  373  10.106   5.180   3.595
66178SOL    HW2  374  10.203   5.116   3.498
66179SOL     OW  375   4.258   0.392   3.478
66179SOL    HW1  376   4.331   0.353   3.526
66179SOL    HW2  377   4.182   0.380   3.535
66180SOL     OW  378  12.037   1.803   5.315
66180SOL    HW1  379  12.047   1.880   5.372
66180SOL    HW2  380  12.119   1.798   5.267
66181SOL     OW  381  10.540   1.207   7.578
66181SOL    HW1  382  10.458   1.222   7.627
66181SOL    HW2  383  10.592   1.152   7.637
66182SOL     OW  384   4.800   8.227   7.496
66182SOL    HW1  385   4.771   8.297   7.553
66182SOL    HW2  386   4.867   8.181   7.547
66183SOL     OW  387   8.514   5.902   5.921
66183SOL    HW1  388   8.521   5.808   5.905
66183SOL    HW2  389   8.600   5.937   5.897
66184SOL     OW  390   0.009   3.010  10.870
66184SOL    HW1  391   0.052   2.939  10.824
66184SOL    HW2  392  14.828   3.047  10.806
66185SOL     OW  393   8.364   5.574  12.866
66185SOL    HW1  394   8.353   5.479  12.873
66185SOL    HW2  395   8.304   5.600  12.796
66186SOL     OW  396   5.761   3.723   5.561
66186SOL    HW1  397   5.754   3.817   5.545
66186SOL    HW2  398   5.718   3.683   5.485
66187SOL     OW  399   5.642   2.481   0.686
66187SOL    HW1  400   5.641   2.390   0.656
66187SOL    HW2  401   5.567   2.488   0.745
66188SOL     OW  402   8.148  14.621  10.160
66188SOL    HW1  403   8.126  14.684  10.091
66188SOL    HW2  404   8.231  14.583  10.131
66189SOL     OW  405   0.784   8.930   7.262
66189SOL    HW1  406   0.854   8.946   7.325
66189SOL    HW2  407   0.823   8.953   7.177
66190SOL     OW  408   5.447  11.339   6.816
66190SOL    HW1  409   5.542  11.342   6.828
66190SOL    HW2  410   5.427  11.414   6.759
66191SOL     OW  411  13.678   8.560   4.035
66191SOL    HW1  412  13.597   8.594   3.998
66191SOL    HW2  413  13.697   8.481   3.984
66192SOL     OW  414   5.852   1.925   2.229
66192SOL    HW1  415   5.895   1.866   2.167
66192SOL    HW2  416   5.759   1.922   2.204
66193SOL     OW  417   9.575   7.412   9.411
66193SOL    HW1  418   9.507   7.350   9.437
66193SOL    HW2  419   9.644   7.401   9.477
66194SOL     OW  420   5.829   1.333   2.346
66194SOL    HW1  421   5.743   1.297   2.368
66194SOL    HW2  422   5.867   1.269   2.286
66195SOL     OW  423   8.770   7.671   6.700
66195SOL    HW1  424   8.687   7.637   6.666
66195SOL    HW2  425   8.753   7.763   6.718
66196SOL     OW  426   5.200  12.968  14.443
66196SOL    HW1  427   5.198  12.953  14.349
66196SOL    HW2  428   5.293  12.975  14.465
66197SOL     OW  429   2.548  11.997   8.045
66197SOL    HW1  430   2.512  11.977   8.131
66197SOL    HW2  431   2.587  11.915   8.016
66198SOL     OW  432  11.031   6.683   3.793
66198SOL    HW1  433  11.097   6.624   3.830
66198SOL    HW2  434  11.033   6.760   3.849
66199SOL     OW  435   5.842   2.597   8.845
66199SOL    HW1  436   5.795   2.618   8.926
66199SOL    HW2  437   5.926   2.643   8.853
66200SOL     OW  438  13.323   5.257   9.695
66200SOL    HW1  439  13.234   5.259   9.659
66200SOL    HW2  440  13.357   5.345   9.677
66201SOL     OW  441   9.655  10.197  12.409
66201SOL    HW1  442   9.706  10.278  12.408
66201SOL    HW2  443   9.566  10.225  12.430
66202SOL     OW  444   6.042   4.289   0.176
66202SOL    HW1  445   6.116   4.229   0.164
66202SOL    HW2  446   6.057   4.329   0.261
66203SOL     OW  447   4.489  13.434  11.364
66203SOL    HW1  448   4.420  13.458  11.302
66203SOL    HW2  449   4.509  13.516  11.410
66204SOL     OW  450   9.044  14.869   1.996
66204SOL    HW1  451   9.110  14.800   2.000
66204SOL    HW2  452   8.972  14.836   2.049
66205SOL     OW  453   2.640  13.907  13.901
66205SOL    HW1  454   2.581  13.856  13.846
66205SOL    HW2  455   2.613  13.888  13.991
66206SOL     OW  456   7.080   0.477   5.033
66206SOL    HW1  457   7.067   0.570   5.011
66206SOL    HW2  458   7.007   0.456   5.092
66207SOL     OW  459   0.700  10.704   6.214
66207SOL    HW1  460   0.644  10.660   6.279
66207SOL    HW2  461   0.699  10.646   6.138
66208SOL     OW  462   9.414   9.391   5.543
66208SOL    HW1  463   9.419   9.364   5.451
66208SOL    HW2  464   9.339   9.344   5.578
66209SOL     OW  465  14.052  11.648   5.820
66209SOL    HW1  466  13.978  11.706   5.803
66209SOL    HW2  467  14.053  11.588   5.745
66210SOL     OW  468   9.972   0.146   1.155
66210SOL    HW1  469  10.032   0.218   1.136
66210SOL    HW2  470  10.028   0.068   1.162
66211SOL     OW  471   1.726   7.133  11.991
66211SOL    HW1  472   1.750   7.194  12.061
66211SOL    HW2  473   1.757   7.175  11.911
66212SOL     OW  474   1.917   5.375  13.799
66212SOL    HW1  475   1.858   5.451  13.797
66212SOL    HW2  476   2.003   5.411  13.778
66213SOL     OW  477   9.645   9.646   8.173
66213SOL    HW1  478   9.588   9.570   8.163
66213SOL    HW2  479   9.612   9.708   8.108
66214SOL     OW  480   6.788   9.902   8.615
66214SOL    HW1  481   6.758   9.820   8.654
66214SOL    HW2  482   6.768   9.969   8.680
66215SOL     OW  483  11.140  10.432   9.230
66215SOL    HW1  484  11.095  10.470   9.305
66215SOL    HW2  485  11.187  10.357   9.265
66216SOL     OW  486   9.911   7.757   6.408
66216SOL    HW1  487   9.962   7.682   6.376
66216SOL    HW2  488   9.951   7.833   6.367
66217SOL     OW  489   2.518   0.593  10.031
66217SOL    HW1  490   2.579   0.536   9.985
66217SOL    HW2  491   2.570   0.670  10.053
66218SOL     OW  492   1.224   2.028   3.081
66218SOL    HW1  493   1.247   2.082   3.006
66218SOL    HW2  494   1.220   2.089   3.154
66219SOL     OW  495   4.023  14.039   9.739
66219SOL    HW1  496   4.025  13.965   9.800
66219SOL    HW2  497   4.111  14.075   9.742
66220SOL     OW  498   3.989  12.237   1.363
66220SOL    HW1  499   4.007  12.301   1.432
66220SOL    HW2  500   3.988  12.288   1.282
66221SOL     OW  501   1.415  14.017  12.442
66221SOL    HW1  502   1.371  13.959  12.380
66221SOL    HW2  503   1.480  14.065  12.389
66222SOL     OW  504  12.205   4.974   6.246
66222SOL    HW1  505  12.134   5.037   6.234
66222SOL    HW2  506  12.228   4.947   6.157
66223SOL     OW  507  10.994   3.375  10.599
66223SOL    HW1  508  11.015   3.359  10.507
66223SOL    HW2  509  11.014   3.292  10.642
66224SOL     OW  510  10.561   8.691   5.256
66224SOL    HW1  511  10.519   8.634   5.320
66224SOL    HW2  512  10.505   8.685   5.178
66225SOL     OW  513   0.215   5.327   3.614
66225SOL    HW1  514   0.285   5.265   3.633
66225SOL    HW2  515   0.178   5.296   3.531
66226SOL     OW  516  10.277  14.432  12.863
66226SOL    HW1  517  10.191  14.396  12.838
66226SOL    HW2  518  10.270  14.448  12.957
66227SOL     OW  519  11.148   5.916   7.502
66227SOL    HW1  520  11.078   5.851   7.500
66227SOL    HW2  521  11.177   5.917   7.594
66228SOL     OW  522   8.926  10.439   7.764
66228SOL    HW1  523   8.850  10.453   7.820
66228SOL    HW2  524   8.990  10.503   7.793
66229SOL     OW  525  12.346  13.700  14.681
66229SOL    HW1  526  12.436  13.712  14.651
66229SOL    HW2  527  12.293  13.711  14.602
66230SOL     OW  528   0.150   0.675  14.132
66230SOL    HW1  529   0.079   0.733  14.161
66230SOL    HW2  530   0.191   0.645  14.213
66231SOL     OW  531   7.009   7.419   4.046
66231SOL    HW1  532   7.104   7.408   4.046
66231SOL    HW2  533   6.995   7.509   4.076
66232SOL     OW  534   7.555   8.391  11.299
66232SOL    HW1  535   7.550   8.471  11.352
66232SOL    HW2  536   7.563   8.423  11.209
66233SOL     OW  537  10.659  11.517   7.508
66233SOL    HW1  538  10.737  11.490   7.459
66233SOL    HW2  539  10.656  11.458   7.583
66234SOL     OW  540   1.386   7.873   1.987
66234SOL    HW1  541   1.396   7.957   2.030
66234SOL    HW2  542   1.430   7.884   1.902
66235SOL     OW  543   4.689   6.145   6.882
66235SOL    HW1  544   4.651   6.058   6.880
66235SOL    HW2  545   4.615   6.204   6.889
66236SOL     OW  546  12.995  12.317   5.291
66236SOL    HW1  547  12.969  12.407   5.270
66236SOL    HW2  548  12.914  12.274   5.317
66237SOL     OW  549   5.734   7.880   6.554
66237SOL    HW1  550   5.826   7.856   6.563
66237SOL    HW2  551   5.698   7.869   6.642
66238SOL     OW  552  11.663   6.224   7.313
66238SOL    HW1  553  11.664   6.303   7.259
66238SOL    HW2  554  11.705   6.158   7.259
66239SOL     OW  555  14.716   9.774  14.215
66239SOL    HW1  556  14.644   9.802  14.272
66239SOL    HW2  557  14.792   9.824  14.244
66240SOL     OW  558   2.756   3.261   6.435
66240SOL    HW1  559   2.813   3.184   6.437
66240SOL    HW2  560   2.709   3.253   6.352
66241SOL     OW  561  10.518   7.974   9.433
66241SOL    HW1  562  10.602   8.005   9.468
66241SOL    HW2  563  10.500   7.894   9.484
66242SOL     OW  564   4.956   6.906   0.819
66242SOL    HW1  565   4.929   6.880   0.730
66242SOL    HW2  566   5.052   6.903   0.817
66243SOL     OW  567  10.908   0.194   7.603
66243SOL    HW1  568  10.941   0.267   7.654
66243SOL    HW2  569  10.865   0.235   7.527
66244SOL     OW  570   1.511   2.849   2.537
66244SOL    HW1  571   1.479   2.817   2.453
66244SOL    HW2  572   1.544   2.937   2.518
66245SOL     OW  573   4.510   0.885   0.344
66245SOL    HW1  574   4.431   0.873   0.291
66245SOL    HW2  575   4.518   0.980   0.354
66246SOL     OW  576  12.648   5.396  13.758
66246SOL    HW1  577  12.703   5.470  13.785
66246SOL    HW2  578  12.657   5.394  13.663
66247SOL     OW  579   2.941   5.610   1.317
66247SOL    HW1  580   2.981   5.635   1.401
66247SOL    HW2  581   2.854   5.649   1.320
66248SOL     OW  582   7.228  14.050   5.720
66248SOL    HW1  583   7.250  13.974   5.667
66248SOL    HW2  584   7.313  14.092   5.738
66249SOL     OW  585   8.156   0.111  10.056
66249SOL    HW1  586   8.094   0.052  10.014
66249SOL    HW2  587   8.242   0.077  10.030
66250SOL     OW  588   6.435  13.395   4.999
66250SOL    HW1  589   6.517  13.426   4.963
66250SOL    HW2  590   6.370  13.412   4.931
66251SOL     OW  591   6.584  12.917  11.385
66251SOL    HW1  592   6.671  12.951  11.408
66251SOL    HW2  593   6.584  12.915  11.289
66252SOL     OW  594  14.327  10.290  13.478
66252SOL    HW1  595  14.416  10.271  13.509
66252SOL    HW2  596  14.315  10.233  13.402
66253SOL     OW  597  13.757   2.380  14.645
66253SOL    HW1  598  13.835   2.391  14.591
66253SOL    HW2  599  13.786   2.398  14.734
66254SOL     OW  600  12.699   3.809   9.458
66254SOL    HW1  601  12.728   3.829   9.548
66254SOL    HW2  602  12.657   3.890   9.428
66255SOL     OW  603   9.472   2.217  14.286
66255SOL    HW1  604   9.546   2.242  14.231
66255SOL    HW2  605   9.456   2.293  14.342
66256SOL     OW  606  11.972  13.729   1.581
66256SOL    HW1  607  12.007  13.716   1.492
66256SOL    HW2  608  11.957  13.823   1.587
66257SOL     OW  609  11.546  14.040  12.075
66257SOL    HW1  610  11.568  14.030  12.168
66257SOL    HW2  611  11.587  14.123  12.049
66258SOL     OW  612   3.745  12.113   6.921
66258SOL    HW1  613   3.669  12.144   6.873
66258SOL    HW2  614   3.744  12.018   6.910
66259SOL     OW  615   7.981   9.863   9.957
66259SOL    HW1  616   8.050   9.805   9.924
66259SOL    HW2  617   7.936   9.893   9.878
66260SOL     OW  618   3.221   4.666  11.928
66260SOL    HW1  619   3.267   4.583  11.916
66260SOL    HW2  620   3.252   4.721  11.856
66261SOL     OW  621   2.549   7.784   7.727
66261SOL    HW1  622   2.629   7.837   7.730
66261SOL    HW2  623   2.479   7.846   7.745
66262SOL     OW  624  11.710   0.329   8.887
66262SOL    HW1  625  11.653   0.263   8.927
66262SOL    HW2  626  11.786   0.279   8.856
66263SOL     OW  627   2.418   6.045  14.296
66263SOL    HW1  628   2.419   5.993  14.376
66263SOL    HW2  629   2.440   5.982  14.227
66264SOL     OW  630  14.469   6.433  10.812
66264SOL    HW1  631  14.551   6.421  10.859
66264SOL    HW2  632  14.442   6.345  10.787
66265SOL     OW  633   3.665   8.114   2.496
66265SOL    HW1  634   3.746   8.094   2.448
66265SOL    HW2  635   3.634   8.028   2.526
66266SOL     OW  636  10.280   2.791   5.151
66266SOL    HW1  637  10.245   2.862   5.205
66266SOL    HW2  638  10.276   2.714   5.207
66267SOL     OW  639   5.655   6.646   6.776
66267SOL    HW1  640   5.736   6.687   6.809
66267SOL    HW2  641   5.627   6.589   6.848
66268SOL     OW  642  10.614  13.566   0.078
66268SOL    HW1  643  10.546  13.540   0.015
66268SOL    HW2  644  10.571  13.560   0.163
66269SOL     OW  645   6.892   4.539   2.982
66269SOL    HW1  646   6.903   4.569   2.892
66269SOL    HW2  647   6.951   4.464   2.990
66270SOL     OW  648   0.402   6.132   0.927
66270SOL    HW1  649   0.448   6.048   0.933
66270SOL    HW2  650   0.318   6.116   0.970
66271SOL     OW  651   1.352   8.412   7.051
66271SOL    HW1  652   1.420   8.390   6.986
66271SOL    HW2  653   1.342   8.507   7.044
66272SOL     OW  654  14.172  13.618   5.181
66272SOL    HW1  655  14.233  13.659   5.120
66272SOL    HW2  656  14.191  13.525   5.175
66273SOL     OW  657  10.091   5.939   6.542
66273SOL    HW1  658  10.077   5.870   6.478
66273SOL    HW2  659  10.091   6.020   6.491
66274SOL     OW  660  12.821   5.227   1.311
66274SOL    HW1  661  12.886   5.198   1.374
66274SOL    HW2  662  12.836   5.173   1.233
66275SOL     OW  663   6.384   2.386  10.719
66275SOL    HW1  664   6.472   2.359  10.694
66275SOL    HW2  665   6.394   2.420  10.808
66276SOL     OW  666   7.605  13.911   2.118
66276SOL    HW1  667   7.524  13.868   2.091
66276SOL    HW2  668   7.664  13.839   2.140
66277SOL     OW  669   5.074   2.416   6.174
66277SOL    HW1  670   5.067   2.487   6.238
66277SOL    HW2  671   5.167   2.394   6.173
66278SOL     OW  672   9.497   5.029  12.082
66278SOL    HW1  673   9.415   4.982  12.100
66278SOL    HW2  674   9.558   4.997  12.149
66279SOL     OW  675  10.314   7.988  13.579
66279SOL    HW1  676  10.220   7.999  13.566
66279SOL    HW2  677  10.340   7.923  13.513
66280SOL     OW  678  10.269   8.351   0.819
66280SOL    HW1  679  10.293   8.344   0.727
66280SOL    HW2  680  10.249   8.262   0.846
66281SOL     OW  681   7.136   4.776   9.951
66281SOL    HW1  682   7.191   4.765  10.029
66281SOL    HW2  683   7.076   4.847   9.975
66282SOL     OW  684   7.435   2.176  12.932
66282SOL    HW1  685   7.366   2.125  12.890
66282SOL    HW2  686   7.388   2.244  12.980
66283SOL     OW  687   2.392   2.211   1.235
66283SOL    HW1  688   2.299   2.190   1.228
66283SOL    HW2  689   2.404   2.288   1.179
66284SOL     OW  690   1.473   4.172  13.730
66284SOL    HW1  691   1.558   4.142  13.699
66284SOL    HW2  692   1.464   4.135  13.818
66285SOL     OW  693   1.364   1.148  13.737
66285SOL    HW1  694   1.294   1.139  13.801
66285SOL    HW2  695   1.320   1.139  13.652
66286SOL     OW  696   8.567   0.017  13.668
66286SOL    HW1  697   8.594   0.107  13.685
66286SOL    HW2  698   8.524  14.869  13.749
66287SOL     OW  699  13.397   6.288   6.600
66287SOL    HW1  700  13.434   6.329   6.679
66287SOL    HW2  701  13.313   6.253   6.629
66288SOL     OW  702  11.206  13.138  12.674
66288SOL    HW1  703  11.247  13.105  12.594
66288SOL    HW2  704  11.254  13.219  12.694
66289SOL     OW  705   3.323   7.640   6.111
66289SOL    HW1  706   3.368   7.614   6.191
66289SOL    HW2  707   3.277   7.561   6.082
66290SOL     OW  708   4.422   8.726   3.749
66290SOL    HW1  709   4.410   8.813   3.788
66290SOL    HW2  710   4.352   8.672   3.787
66291SOL     OW  711   5.850   7.928   8.382
66291SOL    HW1  712   5.842   7.958   8.472
66291SOL    HW2  713   5.834   8.005   8.329
66292SOL     OW  714  14.863   7.802   1.963
66292SOL    HW1  715   0.026   7.716   1.966
66292SOL    HW2  716   0.030   7.848   1.892
66293SOL     OW  717  12.212  12.166  12.910
66293SOL    HW1  718  12.181  12.118  12.987
66293SOL    HW2  719  12.157  12.136  12.838
66294SOL     OW  720  11.182  11.988   1.311
66294SOL    HW1  721  11.271  11.953   1.321
66294SOL    HW2  722  11.195  12.082   1.297
66295SOL     OW  723   4.437   1.210   6.732
66295SOL    HW1  724   4.369   1.263   6.775
66295SOL    HW2  725   4.407   1.202   6.642
66296SOL     OW  726   7.336  10.561   3.291
66296SOL    HW1  727   7.388  10.551   3.211
66296SOL    HW2  728   7.268  10.623   3.267
66297SOL     OW  729   3.023   9.649  12.472
66297SOL    HW1  730   2.973   9.697  12.406
66297SOL    HW2  731   3.106   9.695  12.478
66298SOL     OW  732  13.302  13.993   4.966
66298SOL    HW1  733  13.350  13.970   4.886
66298SOL    HW2  734  13.214  13.958   4.952
66299SOL     OW  735   9.170   0.234   5.919
66299SOL    HW1  736   9.163   0.303   5.985
66299SOL    HW2  737   9.107   0.258   5.852
66300SOL     OW  738   1.031  12.369   2.803
66300SOL    HW1  739   1.061  12.298   2.746
66300SOL    HW2  740   0.940  12.346   2.824
66301SOL     OW  741   9.745   3.583  13.599
66301SOL    HW1  742   9.699   3.499  13.608
66301SOL    HW2  743   9.678   3.649  13.615
66302SOL     OW  744   5.184   2.214  14.380
66302SOL    HW1  745   5.256   2.183  14.434
66302SOL    HW2  746   5.211   2.301  14.351
66303SOL     OW  747   1.263  12.154   7.861
66303SOL    HW1  748   1.250  12.212   7.936
66303SOL    HW2  749   1.238  12.067   7.892
66304SOL     OW  750   1.125   3.421   8.917
66304SOL    HW1  751   1.117   3.516   8.912
66304SOL    HW2  752   1.047   3.392   8.963
66305SOL     OW  753  10.120   4.230   8.893
66305SOL    HW1  754  10.037   4.216   8.938
66305SOL    HW2  755  10.131   4.152   8.838
66306SOL     OW  756  13.336   4.118  13.276
66306SOL    HW1  757  13.331   4.212  13.257
66306SOL    HW2  758  13.429   4.101  13.286
66307SOL     OW  759   6.738  12.694   0.387
66307SOL    HW1  760   6.764  12.765   0.328
66307SOL    HW2  761   6.685  12.635   0.334
66308SOL     OW  762  11.431   9.471  10.649
66308SOL    HW1  763  11.481   9.540  10.604
66308SOL    HW2  764  11.489   9.441  10.719
66309SOL     OW  765   9.934   1.058   3.717
66309SOL    HW1  766   9.887   1.123   3.769
66309SOL    HW2  767   9.883   0.977   3.727
66310SOL     OW  768   2.075  13.349   4.894
66310SOL    HW1  769   2.004  13.401   4.857
66310SOL    HW2  770   2.149  13.409   4.902
66311SOL     OW  771   0.055  13.096   1.584
66311SOL    HW1  772   0.094  13.018   1.622
66311SOL    HW2  773   0.010  13.066   1.505
66312SOL     OW  774  12.373   5.174   7.397
66312SOL    HW1  775  12.378   5.237   7.325
66312SOL    HW2  776  12.280   5.172   7.421
66313SOL     OW  777  13.308   8.024  14.297
66313SOL    HW1  778  13.358   8.039  14.216
66313SOL    HW2  779  13.373   7.994  14.360
66314SOL     OW  780  11.545  12.603  12.721
66314SOL    HW1  781  11.601  12.635  12.650
66314SOL    HW2  782  11.499  12.681  12.751
66315SOL     OW  783   5.006   9.489  11.545
66315SOL    HW1  784   5.017   9.582  11.565
66315SOL    HW2  785   4.947   9.456  11.612
66316SOL     OW  786   0.591   9.576   7.129
66316SOL    HW1  787   0.555   9.581   7.041
66316SOL    HW2  788   0.686   9.580   7.116
66317SOL     OW  789   1.948  13.688   4.415
66317SOL    HW1  790   1.961  13.628   4.488
66317SOL    HW2  791   1.858  13.672   4.387
66318SOL     OW  792   5.513  10.734   6.782
66318SOL    HW1  793   5.603  10.721   6.752
66318SOL    HW2  794   5.465  10.660   6.744
66319SOL     OW  795  12.961  14.807   5.859
66319SOL    HW1  796  12.919  14.815   5.944
66319SOL    HW2  797  12.914  14.735   5.815
66320SOL     OW  798   3.719   3.494   6.777
66320SOL    HW1  799   3.766   3.411   6.784
66320SOL    HW2  800   3.690   3.513   6.866
66321SOL     OW  801  13.458  12.734   3.045
66321SOL    HW1  802  13.512  12.658   3.026
66321SOL    HW2  803  13.394  12.736   2.973
66322SOL     OW  804   7.832   4.735   8.112
66322SOL    HW1  805   7.800   4.689   8.034
66322SOL    HW2  806   7.827   4.828   8.089
66323SOL     OW  807   0.375  14.721  13.177
66323SOL    HW1  808   0.293  14.703  13.224
66323SOL    HW2  809   0.386  14.645  13.119
66324SOL     OW  810   2.232   7.119   4.588
66324SOL    HW1  811   2.285   7.148   4.663
66324SOL    HW2  812   2.187   7.040   4.619
66325SOL     OW  813   8.667   3.932   4.186
66325SOL    HW1  814   8.577   3.953   4.212
66325SOL    HW2  815   8.688   3.997   4.118
66326SOL     OW  816   7.331   3.057   1.920
66326SOL    HW1  817   7.328   3.114   1.997
66326SOL    HW2  818   7.314   3.116   1.846
66327SOL     OW  819  11.838   8.473  10.045
66327SOL    HW1  820  11.876   8.526  10.115
66327SOL    HW2  821  11.752   8.512  10.029
66328SOL     OW  822   1.615   6.690   7.492
66328SOL    HW1  823   1.619   6.634   7.569
66328SOL    HW2  824   1.532   6.737   7.501
66329SOL     OW  825   3.562   7.868  10.981
66329SOL    HW1  826   3.575   7.861  10.887
66329SOL    HW2  827   3.468   7.854  10.994
66330SOL     OW  828   0.785  13.851   6.401
66330SOL    HW1  829   0.859  13.911   6.387
66330SOL    HW2  830   0.714  13.907   6.431
66331SOL     OW  831   5.626   9.979   3.075
66331SOL    HW1  832   5.541  10.006   3.042
66331SOL    HW2  833   5.611   9.891   3.111
66332SOL     OW  834  12.267  12.300   3.703
66332SOL    HW1  835  12.223  12.253   3.774
66332SOL    HW2  836  12.309  12.232   3.651
66333SOL     OW  837  12.582   8.860  13.188
66333SOL    HW1  838  12.546   8.824  13.107
66333SOL    HW2  839  12.676   8.864  13.173
66334SOL     OW  840   5.203   2.414  12.863
66334SOL    HW1  841   5.110   2.396  12.878
66334SOL    HW2  842   5.248   2.351  12.919
66335SOL     OW  843   8.071   2.981  12.591
66335SOL    HW1  844   8.159   2.946  12.597
66335SOL    HW2  845   8.058   2.998  12.497
66336SOL     OW  846  10.884   4.747   7.375
66336SOL    HW1  847  10.943   4.676   7.400
66336SOL    HW2  848  10.927   4.789   7.300
66337SOL     OW  849   5.608   8.367  11.717
66337SOL    HW1  850   5.601   8.391  11.809
66337SOL    HW2  851   5.625   8.450  11.672
66338SOL     OW  852  11.338   2.293   6.749
66338SOL    HW1  853  11.263   2.352   6.750
66338SOL    HW2  854  11.413   2.350   6.734
66339SOL     OW  855   3.111   0.264   5.960
66339SOL    HW1  856   3.206   0.263   5.959
66339SOL    HW2  857   3.086   0.172   5.968
66340SOL     OW  858   2.121   5.976  13.437
66340SOL    HW1  859   2.209   5.960  13.472
66340SOL    HW2  860   2.070   5.901  13.465
66341SOL     OW  861   7.716  10.626  11.861
66341SOL    HW1  862   7.625  10.645  11.837
66341SOL    HW2  863   7.765  10.638  11.780
66342SOL     OW  864   8.454  10.375   3.304
66342SOL    HW1  865   8.430  10.283   3.313
66342SOL    HW2  866   8.444  10.411   3.392
66343SOL     OW  867  10.349   4.689   5.151
66343SOL    HW1  868  10.284   4.701   5.082
66343SOL    HW2  869  10.320   4.610   5.197
66344SOL     OW  870   6.672   0.289   4.151
66344SOL    HW1  871   6.628   0.331   4.225
66344SOL    HW2  872   6.613   0.302   4.077
66345SOL     OW  873   6.884   2.225   0.028
66345SOL    HW1  874   6.840   2.152  14.863
66345SOL    HW2  875   6.971   2.192   0.048
66346SOL     OW  876   8.014   4.402  11.849
66346SOL    HW1  877   8.000   4.352  11.929
66346SOL    HW2  878   8.100   4.374  11.818
66347SOL     OW  879   5.999  14.304   5.302
66347SOL    HW1  880   5.981  14.220   5.344
66347SOL    HW2  881   5.914  14.334   5.271
66348SOL     OW  882   0.682  13.126   2.328
66348SOL    HW1  883   0.606  13.137   2.384
66348SOL    HW2  884   0.752  13.096   2.387
66349SOL     OW  885   7.445  11.032   8.394
66349SOL    HW1  886   7.398  11.057   8.474
66349SOL    HW2  887   7.386  11.058   8.323
66350SOL     OW  888   8.310  13.234   2.527
66350SOL    HW1  889   8.269  13.288   2.595
66350SOL    HW2  890   8.283  13.274   2.444
66351SOL     OW  891   5.516   8.996   2.832
66351SOL    HW1  892   5.503   9.006   2.927
66351SOL    HW2  893   5.554   9.080   2.805
66352SOL     OW  894   5.583   0.143  10.888
66352SOL    HW1  895   5.494   0.145  10.923
66352SOL    HW2  896   5.576   0.184  10.802
66353SOL     OW  897  11.229  10.482   6.991
66353SOL    HW1  898  11.177  10.419   7.041
66353SOL    HW2  899  11.193  10.567   7.016
66354SOL     OW  900   0.654  10.332   2.919
66354SOL    HW1  901   0.727  10.272   2.906
66354SOL    HW2  902   0.646  10.340   3.014
66355SOL     OW  903   5.861   1.084   7.754
66355SOL    HW1  904   5.904   1.077   7.669
66355SOL    HW2  905   5.854   1.178   7.770
66356SOL     OW  906   3.066   8.611   9.143
66356SOL    HW1  907   3.064   8.694   9.095
66356SOL    HW2  908   2.977   8.602   9.178
66357SOL     OW  909   2.782   2.034   6.552
66357SOL    HW1  910   2.830   1.967   6.601
66357SOL    HW2  911   2.845   2.064   6.487
66358SOL     OW  912   0.110   7.053   9.016
66358SOL    HW1  913   0.022   7.016   9.004
66358SOL    HW2  914   0.112   7.080   9.108
66359SOL     OW  915   3.307   4.849   0.964
66359SOL    HW1  916   3.316   4.754   0.972
66359SOL    HW2  917   3.397   4.881   0.954
66360SOL     OW  918   6.704  12.828  10.871
66360SOL    HW1  919   6.640  12.758  10.880
66360SOL    HW2  920   6.715  12.839  10.776
66361SOL     OW  921   5.871   0.786   1.294
66361SOL    HW1  922   5.788   0.753   1.328
66361SOL    HW2  923   5.884   0.870   1.338
66362SOL     OW  924   7.632   6.271  14.734
66362SOL    HW1  925   7.567   6.212  14.697
66362SOL    HW2  926   7.671   6.221  14.806
66363SOL     OW  927  11.818   7.686   2.575
66363SOL    HW1  928  11.894   7.723   2.619
66363SOL    HW2  929  11.836   7.698   2.482
66364SOL     OW  930  10.584   3.827  14.385
66364SOL    HW1  931  10.670   3.863  14.407
66364SOL    HW2  932  10.588   3.811  14.291
66365SOL     OW  933   8.053  14.348   8.036
66365SOL    HW1  934   8.026  14.437   8.014
66365SOL    HW2  935   7.971  14.299   8.044
66366SOL     OW  936   1.138   3.475  13.695
66366SOL    HW1  937   1.090   3.425  13.629
66366SOL    HW2  938   1.230   3.451  13.681
66367SOL     OW  939   7.460   6.146   6.730
66367SOL    HW1  940   7.411   6.065   6.716
66367SOL    HW2  941   7.449   6.195   6.649
66368SOL     OW  942   0.074  10.540   4.181
66368SOL    HW1  943   0.144  10.585   4.229
66368SOL    HW2  944   0.048  10.602   4.113
66369SOL     OW  945  11.699   4.241   6.301
66369SOL    HW1  946  11.686   4.206   6.389
66369SOL    HW2  947  11.611   4.258   6.269
66370SOL     OW  948   2.394   2.982  11.336
66370SOL    HW1  949   2.356   2.899  11.367
66370SOL    HW2  950   2.440   2.958  11.255
66371SOL     OW  951   8.856   2.045  11.254
66371SOL    HW1  952   8.783   2.043  11.192
66371SOL    HW2  953   8.870   1.953  11.277
66372SOL     OW  954   3.753   3.701   9.465
66372SOL    HW1  955   3.732   3.608   9.465
66372SOL    HW2  956   3.848   3.704   9.478
66373SOL     OW  957   2.787   0.162  10.283
66373SOL    HW1  958   2.720   0.114  10.235
66373SOL    HW2  959   2.759   0.253  10.279
66374SOL     OW  960   4.423   2.411   2.975
66374SOL    HW1  961   4.418   2.501   2.944
66374SOL    HW2  962   4.472   2.417   3.057
66375SOL     OW  963   8.303  11.475  11.884
66375SOL    HW1  964   8.275  11.559  11.849
66375SOL    HW2  965   8.264  11.471  11.971
66376SOL     OW  966  13.265  10.950   0.150
66376SOL    HW1  967  13.314  11.032   0.141
66376SOL    HW2  968  13.251  10.940   0.244
66377SOL     OW  969   2.187  11.311  14.144
66377SOL    HW1  970   2.207  11.404  14.159
66377SOL    HW2  971   2.158  11.279  14.230
66378SOL     OW  972   5.202   3.662  12.961
66378SOL    HW1  973   5.250   3.735  13.000
66378SOL    HW2  974   5.182   3.691  12.872
66379SOL     OW  975  13.197  10.331   7.872
66379SOL    HW1  976  13.129  10.301   7.932
66379SOL    HW2  977  13.211  10.423   7.895
66380SOL     OW  978   7.932   9.092   7.071
66380SOL    HW1  979   7.855   9.038   7.056
66380SOL    HW2  980   7.958   9.121   6.984
66381SOL     OW  981  14.753   3.054   9.281
66381SOL    HW1  982  14.658   3.057   9.283
66381SOL    HW2  983  14.779   3.046   9.373
66382SOL     OW  984   2.856   1.532   2.257
66382SOL    HW1  985   2.918   1.603   2.272
66382SOL    HW2  986   2.794   1.567   2.194
66383SOL     OW  987   5.091   3.048  11.482
66383SOL    HW1  988   5.171   3.088  11.448
66383SOL    HW2  989   5.066   2.984  11.416
66384SOL     OW  990   9.477   4.083   4.731
66384SOL    HW1  991   9.539   4.042   4.670
66384SOL    HW2  992   9.491   4.036   4.814
66385SOL     OW  993   8.830  14.578  10.956
66385SOL    HW1  994   8.746  14.610  10.990
66385SOL    HW2  995   8.807  14.504  10.901
66386SOL     OW  996   9.049  12.704  12.170
66386SOL    HW1  997   9.118  12.643  12.193
66386SOL    HW2  998   9.091  12.768  12.113
66387SOL     OW  999   0.063   3.757  10.655
66387SOL    HW1 1000   0.091   3.669  10.681
66387SOL    HW2 1001  14.851   3.747  10.631
66388SOL     OW 1002  14.821   0.831   6.454
66388SOL    HW1 1003  14.864   0.789   6.380
66388SOL    HW2 1004  14.836   0.924   6.442
66389SOL     OW 1005   0.319   8.992   4.572
66389SOL    HW1 1006   0.279   8.965   4.489
66389SOL    HW2 1007   0.393   8.933   4.583
66390SOL     OW 1008   5.241   3.937   1.808
66390SOL    HW1 1009   5.331   3.924   1.838
66390SOL    HW2 1010   5.216   4.022   1.842
66391SOL     OW 1011   7.483  11.724   1.137
66391SOL    HW1 1012   7.485  11.629   1.147
66391SOL    HW2 1013   7.517  11.740   1.049
66392SOL     OW 1014   6.857  10.956  14.087
66392SOL    HW1 1015   6.910  10.896  14.034
66392SOL    HW2 1016   6.786  10.901  14.120
66393SOL     OW 1017  12.554   9.020  10.624
66393SOL    HW1 1018  12.581   9.050  10.537
66393SOL    HW2 1019  12.625   9.048  10.682
66394SOL     OW 1020  11.537   8.155   9.260
66394SOL    HW1 1021  11.622   8.195   9.281
66394SOL    HW2 1022  11.548   8.123   9.171
66395SOL     OW 1023   8.287  13.765   7.846
66395SOL    HW1 1024   8.276  13.726   7.759
66395SOL    HW2 1025   8.277  13.859   7.831
66396SOL     OW 1026   7.060  11.997   6.869
66396SOL    HW1 1027   7.052  12.004   6.964
66396SOL    HW2 1028   7.123  11.926   6.856
66397SOL     OW 1029   9.294  10.970   4.704
66397SOL    HW1 1030   9.319  11.045   4.758
66397SOL    HW2 1031   9.214  10.998   4.659
66398SOL     OW 1032   7.114   1.413  12.881
66398SOL    HW1 1033   7.121   1.500  12.921
66398SOL    HW2 1034   7.144   1.353  12.949
66399SOL     OW 1035   0.817   8.147   5.729
66399SOL    HW1 1036   0.891   8.179   5.781
66399SOL    HW2 1037   0.760   8.103   5.793
66400SOL     OW 1038   3.199  11.692   3.276
66400SOL    HW1 1039   3.272  11.742   3.312
66400SOL    HW2 1040   3.130  11.757   3.260
66401SOL     OW 1041   3.075  10.495   9.586
66401SOL    HW1 1042   3.089  10.539   9.502
66401SOL    HW2 1043   3.156  10.509   9.634
66402SOL     OW 1044   8.267  11.470  10.074
66402SOL    HW1 1045   8.192  11.517  10.037
66402SOL    HW2 1046   8.298  11.414  10.002
66403SOL     OW 1047   8.572   4.742   9.176
66403SOL    HW1 1048   8.636   4.769   9.242
66403SOL    HW2 1049   8.625   4.710   9.103
66404SOL     OW 1050   1.025   9.723   9.895
66404SOL    HW1 1051   1.046   9.630   9.884
66404SOL    HW2 1052   1.103   9.769   9.866
66405SOL     OW 1053   0.293   6.624  10.548
66405SOL    HW1 1054   0.244   6.621  10.465
66405SOL    HW2 1055   0.225   6.619  10.616
66406SOL     OW 1056   6.432   1.764  13.488
66406SOL    HW1 1057   6.363   1.706  13.521
66406SOL    HW2 1058   6.403   1.789  13.400
66407SOL     OW 1059   9.060   3.007   8.455
66407SOL    HW1 1060   9.053   3.094   8.495
66407SOL    HW2 1061   9.145   2.975   8.483
66408SOL     OW 1062   5.904   3.756   7.245
66408SOL    HW1 1063   5.995   3.729   7.234
66408SOL    HW2 1064   5.853   3.679   7.220
66409SOL     OW 1065   8.944   9.124   8.028
66409SOL    HW1 1066   8.883   9.091   8.093
66409SOL    HW2 1067   8.889   9.161   7.959
66410SOL     OW 1068   7.642   9.699   7.275
66410SOL    HW1 1069   7.580   9.711   7.347
66410SOL    HW2 1070   7.595   9.730   7.197
66411SOL     OW 1071  14.291   6.748   5.444
66411SOL    HW1 1072  14.207   6.771   5.485
66411SOL    HW2 1073  14.357   6.769   5.510
66412SOL     OW 1074   4.349  10.961   6.919
66412SOL    HW1 1075   4.438  10.972   6.952
66412SOL    HW2 1076   4.339  10.866   6.910
66413SOL     OW 1077  11.396  12.011  10.902
66413SOL    HW1 1078  11.311  12.034  10.865
66413SOL    HW2 1079  11.395  12.051  10.989
66414SOL     OW 1080   3.617   2.696   2.518
66414SOL    HW1 1081   3.713   2.703   2.511
66414SOL    HW2 1082   3.584   2.780   2.485
66415SOL     OW 1083   0.272  10.900  10.017
66415SOL    HW1 1084   0.187  10.923  10.054
66415SOL    HW2 1085   0.331  10.969  10.048
66416SOL     OW 1086  10.086   3.178   5.273
66416SOL    HW1 1087  10.046   3.257   5.308
66416SOL    HW2 1088  10.040   3.162   5.191
66417SOL     OW 1089  11.189   7.795  11.123
66417SOL    HW1 1090  11.175   7.736  11.049
66417SOL    HW2 1091  11.255   7.751  11.177
66418SOL     OW 1092  10.698   8.037   3.157
66418SOL    HW1 1093  10.750   8.118   3.146
66418SOL    HW2 1094  10.679   8.034   3.250
66419SOL     OW 1095  14.433  13.748  14.056
66419SOL    HW1 1096  14.389  13.737  14.141
66419SOL    HW2 1097  14.451  13.659  14.027
66420SOL     OW 1098  11.310  14.495   8.034
66420SOL    HW1 1099  11.404  14.511   8.037
66420SOL    HW2 1100  11.300  14.404   8.063
66421SOL     OW 1101  14.478  11.085  10.064
66421SOL    HW1 1102  14.447  11.114  10.150
66421SOL    HW2 1103  14.468  11.162  10.008
66422SOL     OW 1104   6.200  12.547  13.065
66422SOL    HW1 1105   6.205  12.548  12.969
66422SOL    HW2 1106   6.106  12.537  13.084
66423SOL     OW 1107   8.745   6.682   8.218
66423SOL    HW1 1108   8.670   6.702   8.162
66423SOL    HW2 1109   8.731   6.593   8.248
66424SOL     OW 1110  14.574   8.248  11.659
66424SOL    HW1 1111  14.654   8.207  11.628
66424SOL    HW2 1112  14.511   8.176  11.665
66425SOL     OW 1113   1.994   7.488   4.579
66425SOL    HW1 1114   2.061   7.432   4.539
66425SOL    HW2 1115   2.001   7.571   4.532
66426SOL     OW 1116  14.514   9.730   9.727
66426SOL    HW1 1117  14.601   9.701   9.701
66426SOL    HW2 1118  14.529   9.788   9.802
66427SOL     OW 1119  11.127   7.279   6.349
66427SOL    HW1 1120  11.131   7.185   6.362
66427SOL    HW2 1121  11.040   7.295   6.313
66428SOL     OW 1122   0.685   9.932  11.801
66428SOL    HW1 1123   0.640   9.852  11.774
66428SOL    HW2 1124   0.711   9.915  11.892
66429SOL     OW 1125  11.889  10.857  13.827
66429SOL    HW1 1126  11.956  10.841  13.893
66429SOL    HW2 1127  11.828  10.917  13.869
66430SOL     OW 1128   8.051   5.066   9.060
66430SOL    HW1 1129   8.026   5.065   8.968
66430SOL    HW2 1130   7.968   5.076   9.107
66431SOL     OW 1131   2.163   7.196   9.823
66431SOL    HW1 1132   2.077   7.193   9.865
66431SOL    HW2 1133   2.225   7.202   9.897
66432SOL     OW 1134   5.647   3.567   5.335
66432SOL    HW1 1135   5.601   3.506   5.278
66432SOL    HW2 1136   5.718   3.603   5.281
66433SOL     OW 1137   5.083   4.873   6.930
66433SOL    HW1 1138   5.090   4.778   6.937
66433SOL    HW2 1139   5.134   4.895   6.852
66434SOL     OW 1140  14.164   2.762   7.385
66434SOL    HW1 1141  14.147   2.709   7.307
66434SOL    HW2 1142  14.212   2.838   7.353
66435SOL     OW 1143   9.004  12.079   1.547
66435SOL    HW1 1144   8.934  12.144   1.545
66435SOL    HW2 1145   8.979  12.020   1.619
66436SOL     OW 1146   6.560   4.272   8.297
66436SOL    HW1 1147   6.610   4.309   8.370
66436SOL    HW2 1148   6.627   4.235   8.239
66437SOL     OW 1149   5.563  10.155   4.278
66437SOL    HW1 1150   5.524  10.239   4.305
66437SOL    HW2 1151   5.523  10.135   4.194
66438SOL     OW 1152   8.686  11.256   2.223
66438SOL    HW1 1153   8.751  11.192   2.197
66438SOL    HW2 1154   8.605  11.206   2.234
66439SOL     OW 1155   6.758   8.108  14.004
66439SOL    HW1 1156   6.756   8.054  13.925
66439SOL    HW2 1157   6.675   8.155  14.004
66440SOL     OW 1158   8.051  10.480   4.000
66440SOL    HW1 1159   8.002  10.403   4.029
66440SOL    HW2 1160   8.092  10.514   4.080
66441SOL     OW 1161   6.079  12.889   1.115
66441SOL    HW1 1162   6.047  12.930   1.195
66441SOL    HW2 1163   6.000  12.859   1.070
66442SOL     OW 1164   8.393   9.949  10.964
66442SOL    HW1 1165   8.310   9.901  10.961
66442SOL    HW2 1166   8.369  10.037  10.994
66443SOL     OW 1167  14.224   9.472  14.139
66443SOL    HW1 1168  14.303   9.523  14.158
66443SOL    HW2 1169  14.216   9.476  14.043
66444SOL     OW 1170   6.492  11.845   3.890
66444SOL    HW1 1171   6.445  11.802   3.961
66444SOL    HW2 1172   6.556  11.779   3.862
66445SOL     OW 1173   5.340  13.868   1.240
66445SOL    HW1 1174   5.352  13.960   1.216
66445SOL    HW2 1175   5.424  13.841   1.276
66446SOL     OW 1176   8.985  10.392   1.735
66446SOL    HW1 1177   9.005  10.474   1.779
66446SOL    HW2 1178   9.011  10.324   1.798
66447SOL     OW 1179   1.629   9.086   7.718
66447SOL    HW1 1180   1.647   9.108   7.809
66447SOL    HW2 1181   1.702   9.030   7.692
66448SOL     OW 1182  11.562   1.132   2.852
66448SOL    HW1 1183  11.572   1.041   2.823
66448SOL    HW2 1184  11.565   1.183   2.770
66449SOL     OW 1185   9.032   5.697  13.631
66449SOL    HW1 1186   8.959   5.671  13.687
66449SOL    HW2 1187   9.097   5.734  13.691
66450SOL     OW 1188   1.753   0.340   5.967
66450SOL    HW1 1189   1.689   0.296   5.912
66450SOL    HW2 1190   1.709   0.351   6.051
66451SOL     OW 1191   1.045  14.431  11.800
66451SOL    HW1 1192   1.004  14.480  11.729
66451SOL    HW2 1193   1.065  14.497  11.866
66452SOL     OW 1194   7.502   0.033   6.072
66452SOL    HW1 1195   7.414   0.068   6.059
66452SOL    HW2 1196   7.558   0.110   6.076
66453SOL     OW 1197   6.343  12.833   2.495
66453SOL    HW1 1198   6.393  12.907   2.462
66453SOL    HW2 1199   6.407  12.761   2.500
66454SOL     OW 1200  10.630   4.825  11.201
66454SOL    HW1 1201  10.595   4.759  11.261
66454SOL    HW2 1202  10.649   4.776  11.121
66455SOL     OW 1203  12.015  10.747   8.836
66455SOL    HW1 1204  11.932  10.781   8.801
66455SOL    HW2 1205  12.035  10.672   8.781
66456SOL     OW 1206   1.321  12.483   0.651
66456SOL    HW1 1207   1.227  12.500   0.655
66456SOL    HW2 1208   1.344  12.453   0.739
66457SOL     OW 1209   3.479   7.473  12.449
66457SOL    HW1 1210   3.538   7.466  12.374
66457SOL    HW2 1211   3.391   7.477  12.411
66458SOL     OW 1212   0.730  10.668   3.399
66458SOL    HW1 1213   0.707  10.583   3.436
66458SOL    HW2 1214   0.660  10.727   3.427
66459SOL     OW 1215   1.649   4.037   3.175
66459SOL    HW1 1216   1.555   4.056   3.182
66459SOL    HW2 1217   1.692   4.114   3.211
66460SOL     OW 1218   3.080  10.369   3.449
66460SOL    HW1 1219   3.128  10.446   3.482
66460SOL    HW2 1220   3.147  10.303   3.435
66461SOL     OW 1221  12.975  12.036  12.463
66461SOL    HW1 1222  13.013  12.092  12.396
66461SOL    HW2 1223  12.882  12.032  12.440
66462SOL     OW 1224   2.045   1.907   9.529
66462SOL    HW1 1225   2.019   1.950   9.611
66462SOL    HW2 1226   2.100   1.833   9.557
66463SOL     OW 1227   8.894   3.422   6.011
66463SOL    HW1 1228   8.806   3.440   6.043
66463SOL    HW2 1229   8.943   3.503   6.027
66464SOL     OW 1230   0.809   9.503   3.739
66464SOL    HW1 1231   0.820   9.573   3.673
66464SOL    HW2 1232   0.882   9.518   3.800
66465SOL     OW 1233   9.641   7.198   1.370
66465SOL    HW1 1234   9.640   7.255   1.447
66465SOL    HW2 1235   9.548   7.186   1.348
66466SOL     OW 1236  10.178  11.934  12.720
66466SOL    HW1 1237  10.114  11.909  12.787
66466SOL    HW2 1238  10.263  11.911  12.757
66467SOL     OW 1239  12.056   1.137   9.198
66467SOL    HW1 1240  12.119   1.079   9.241
66467SOL    HW2 1241  12.026   1.196   9.268
66468SOL     OW 1242  14.406   9.235  13.802
66468SOL    HW1 1243  14.314   9.261  13.792
66468SOL    HW2 1244  14.436   9.281  13.881
66469SOL     OW 1245  14.768   8.682  10.599
66469SOL    HW1 1246  14.730   8.768  10.613
66469SOL    HW2 1247  14.820   8.691  10.519
66470SOL     OW 1248   2.131  12.633  14.275
66470SOL    HW1 1249   2.136  12.546  14.235
66470SOL    HW2 1250   2.050  12.670  14.242
66471SOL     OW 1251  13.634   9.307  11.077
66471SOL    HW1 1252  13.589   9.351  11.149
66471SOL    HW2 1253  13.719   9.284  11.113
66472SOL     OW 1254  13.114   3.272   8.574
66472SOL    HW1 1255  13.037   3.217   8.587
66472SOL    HW2 1256  13.188   3.216   8.597
66473SOL     OW 1257   6.637   5.157   3.706
66473SOL    HW1 1258   6.578   5.129   3.636
66473SOL    HW2 1259   6.693   5.081   3.722
66474SOL     OW 1260   8.659  13.548   9.217
66474SOL    HW1 1261   8.731  13.534   9.155
66474SOL    HW2 1262   8.690  13.619   9.273
66475SOL     OW 1263   8.700   2.309  14.652
66475SOL    HW1 1264   8.793   2.291  14.636
66475SOL    HW2 1265   8.667   2.229  14.693
66476SOL     OW 1266   1.161   8.119   9.763
66476SOL    HW1 1267   1.122   8.138   9.848
66476SOL    HW2 1268   1.118   8.038   9.735
66477SOL     OW 1269   6.770  10.747   7.598
66477SOL    HW1 1270   6.729  10.810   7.657
66477SOL    HW2 1271   6.786  10.795   7.517
66478SOL     OW 1272  13.543  13.343   7.498
66478SOL    HW1 1273  13.583  13.270   7.544
66478SOL    HW2 1274  13.614  13.407   7.488
66479SOL     OW 1275  11.145  11.828  11.092
66479SOL    HW1 1276  11.219  11.876  11.054
66479SOL    HW2 1277  11.175  11.737  11.095
66480SOL     OW 1278  13.612   5.622  12.478
66480SOL    HW1 1279  13.570   5.619  12.392
66480SOL    HW2 1280  13.614   5.530  12.506
66481SOL     OW 1281   2.096   3.301   7.871
66481SOL    HW1 1282   2.077   3.278   7.962
66481SOL    HW2 1283   2.068   3.224   7.821
66482SOL     OW 1284  11.675   6.006  13.561
66482SOL    HW1 1285  11.745   5.977  13.504
66482SOL    HW2 1286  11.606   6.037  13.502
66483SOL     OW 1287  10.658   4.947   8.656
66483SOL    HW1 1288  10.626   4.863   8.690
66483SOL    HW2 1289  10.673   4.930   8.563
66484SOL     OW 1290  11.845   2.488   0.331
66484SOL    HW1 1291  11.910   2.559   0.321
66484SOL    HW2 1292  11.763   2.527   0.303
66485SOL     OW 1293   7.097  13.271  11.441
66485SOL    HW1 1294   7.176  13.255  11.388
66485SOL    HW2 1295   7.126  13.331  11.509
66486SOL     OW 1296   9.859   7.965   5.606
66486SOL    HW1 1297   9.857   7.901   5.535
66486SOL    HW2 1298   9.914   8.036   5.573
66487SOL     OW 1299   7.220   9.936  12.610
66487SOL    HW1 1300   7.272   9.856  12.604
66487SOL    HW2 1301   7.280  10.006  12.583
66488SOL     OW 1302   5.666   7.545   5.028
66488SOL    HW1 1303   5.717   7.526   5.107
66488SOL    HW2 1304   5.671   7.464   4.977
66489SOL     OW 1305   4.601   7.647   0.106
66489SOL    HW1 1306   4.554   7.647   0.189
66489SOL    HW2 1307   4.694   7.643   0.131
66490SOL     OW 1308  12.989   2.211  14.865
66490SOL    HW1 1309  13.043   2.286  14.841
66490SOL    HW2 1310  13.050   2.149   0.027
66491SOL     OW 1311   9.098   0.269  13.443
66491SOL    HW1 1312   9.025   0.227  13.397
66491SOL    HW2 1313   9.172   0.264  13.382
66492SOL     OW 1314   7.388   7.521  10.992
66492SOL    HW1 1315   7.314   7.581  11.001
66492SOL    HW2 1316   7.439   7.533  11.071
66493SOL     OW 1317   9.601   2.956   9.394
66493SOL    HW1 1318   9.508   2.969   9.375
66493SOL    HW2 1319   9.629   2.889   9.332
66494SOL     OW 1320   7.484   1.822   2.250
66494SOL    HW1 1321   7.400   1.808   2.293
66494SOL    HW2 1322   7.545   1.765   2.296
66495SOL     OW 1323   9.616  10.205   0.747
66495SOL    HW1 1324   9.628  10.212   0.652
66495SOL    HW2 1325   9.681  10.140   0.775
66496SOL     OW 1326   4.396   3.375   5.737
66496SOL    HW1 1327   4.448   3.412   5.809
66496SOL    HW2 1328   4.324   3.330   5.781
66497SOL     OW 1329  10.840  12.429  12.982
66497SOL    HW1 1330  10.774  12.473  13.037
66497SOL    HW2 1331  10.836  12.338  13.009
66498SOL     OW 1332   0.969   5.230  12.056
66498SOL    HW1 1333   1.058   5.195  12.053
66498SOL    HW2 1334   0.912   5.154  12.050
66499SOL     OW 1335  13.534  10.479   9.027
66499SOL    HW1 1336  13.583  10.466   8.946
66499SOL    HW2 1337  13.459  10.419   9.020
66500SOL     OW 1338  13.373   0.142   6.868
66500SOL    HW1 1339  13.334   0.114   6.785
66500SOL    HW2 1340  13.409   0.229   6.850
66501SOL     OW 1341   5.159   1.832   0.468
66501SOL    HW1 1342   5.186   1.845   0.559
66501SOL    HW2 1343   5.239   1.807   0.423
66502SOL     OW 1344   7.255  13.207  13.210
66502SOL    HW1 1345   7.348  13.193  13.228
66502SOL    HW2 1346   7.253  13.235  13.118
66503SOL     OW 1347  11.261  11.048   0.050
66503SOL    HW1 1348  11.345  11.062   0.094
66503SOL    HW2 1349  11.281  10.988  14.858
66504SOL     OW 1350   4.957   4.299  10.472
66504SOL    HW1 1351   4.979   4.206  10.478
66504SOL    HW2 1352   5.042   4.343  10.467
66505SOL     OW 1353   8.654   7.431  13.198
66505SOL    HW1 1354   8.715   7.363  13.224
66505SOL    HW2 1355   8.701   7.513  13.211
66506SOL     OW 1356  13.056   1.169   9.239
66506SOL    HW1 1357  13.096   1.235   9.182
66506SOL    HW2 1358  13.013   1.108   9.179
66507SOL     OW 1359   1.128   3.636  12.380
66507SOL    HW1 1360   1.096   3.686  12.454
66507SOL    HW2 1361   1.223   3.643  12.384
66508SOL     OW 1362   3.535  13.505   8.066
66508SOL    HW1 1363   3.458  13.470   8.110
66508SOL    HW2 1364   3.590  13.428   8.050
66509SOL     OW 1365  13.352   9.309  12.704
66509SOL    HW1 1366  13.446   9.303  12.684
66509SOL    HW2 1367  13.347   9.371  12.777
66510SOL     OW 1368   8.612  11.181   9.805
66510SOL    HW1 1369   8.636  11.208   9.716
66510SOL    HW2 1370   8.527  11.138   9.795
66511SOL     OW 1371  11.934   4.396   9.578
66511SOL    HW1 1372  11.923   4.435   9.665
66511SOL    HW2 1373  12.018   4.429   9.547
66512SOL     OW 1374   9.572   0.493  14.835
66512SOL    HW1 1375   9.632   0.552   0.002
66512SOL    HW2 1376   9.532   0.548  14.768
66513SOL     OW 1377   0.861  10.687  14.493
66513SOL    HW1 1378   0.909  10.623  14.441
66513SOL    HW2 1379   0.930  10.739  14.536
66514SOL     OW 1380  12.270   8.353   4.099
66514SOL    HW1 1381  12.269   8.392   4.186
66514SOL    HW2 1382  12.223   8.270   4.109
66515SOL     OW 1383  14.584   1.702   5.407
66515SOL    HW1 1384  14.631   1.733   5.485
66515SOL    HW2 1385  14.602   1.769   5.341
66516SOL     OW 1386  12.178   4.925   9.430
66516SOL    HW1 1387  12.215   5.013   9.425
66516SOL    HW2 1388  12.173   4.897   9.338
66517SOL     OW 1389  10.526   9.043   2.584
66517SOL    HW1 1390  10.588   9.070   2.516
66517SOL    HW2 1391  10.443   9.082   2.557
66518SOL     OW 1392   5.623   5.656   6.866
66518SOL    HW1 1393   5.615   5.746   6.898
66518SOL    HW2 1394   5.566   5.652   6.790
66519SOL     OW 1395   2.255  12.064   4.587
66519SOL    HW1 1396   2.194  12.042   4.516
66519SOL    HW2 1397   2.323  12.116   4.545
66520SOL     OW 1398  10.271  14.726   2.248
66520SOL    HW1 1399  10.338  14.787   2.279
66520SOL    HW2 1400  10.319  14.665   2.192
66521SOL     OW 1401  12.121  13.607  11.194
66521SOL    HW1 1402  12.079  13.660  11.261
66521SOL    HW2 1403  12.175  13.668  11.145
66522SOL     OW 1404   3.663   7.277  13.888
66522SOL    HW1 1405   3.757   7.259  13.883
66522SOL    HW2 1406   3.658   7.371  13.907
66523SOL     OW 1407   6.348   0.568   2.521
66523SOL    HW1 1408   6.405   0.610   2.456
66523SOL    HW2 1409   6.320   0.487   2.479
66524SOL     OW 1410  13.228  10.598   9.031
66524SOL    HW1 1411  13.187  10.671   8.985
66524SOL    HW2 1412  13.179  10.521   9.001
66525SOL     OW 1413   9.430   1.877   7.422
66525SOL    HW1 1414   9.429   1.967   7.389
66525SOL    HW2 1415   9.515   1.843   7.396
66526SOL     OW 1416   0.537   5.323   5.363
66526SOL    HW1 1417   0.462   5.265   5.377
66526SOL    HW2 1418   0.564   5.349   5.451
66527SOL     OW 1419   0.282  14.875  11.538
66527SOL    HW1 1420   0.351   0.034  11.592
66527SOL    HW2 1421   0.236   0.072  11.502
66528SOL     OW 1422  12.621  12.353  10.022
66528SOL    HW1 1423  12.716  12.353  10.021
66528SOL    HW2 1424  12.596  12.430   9.971
66529SOL     OW 1425  10.759   0.087   2.135
66529SOL    HW1 1426  10.833   0.080   2.195
66529SOL    HW2 1427  10.738  14.876   2.111
66530SOL     OW 1428   9.747   6.027   0.393
66530SOL    HW1 1429   9.828   5.978   0.375
66530SOL    HW2 1430   9.711   6.047   0.307
66531SOL     OW 1431   8.498   4.301   3.974
66531SOL    HW1 1432   8.581   4.253   3.980
66531SOL    HW2 1433   8.525   4.393   3.965
66532SOL     OW 1434  12.138   2.956   0.783
66532SOL    HW1 1435  12.065   3.009   0.815
66532SOL    HW2 1436  12.156   2.991   0.696
66533SOL     OW 1437   9.571   3.336   1.983
66533SOL    HW1 1438   9.524   3.303   1.906
66533SOL    HW2 1439   9.597   3.425   1.958
66534SOL     OW 1440   8.357   4.584   9.184
66534SOL    HW1 1441   8.440   4.630   9.198
66534SOL    HW2 1442   8.327   4.615   9.098
66535SOL     OW 1443   4.013   5.441   5.077
66535SOL    HW1 1444   4.089   5.383   5.080
66535SOL    HW2 1445   4.042   5.517   5.026
66536SOL     OW 1446  14.328   3.197   3.763
66536SOL    HW1 1447  14.401   3.139   3.740
66536SOL    HW2 1448  14.268   3.191   3.689
66537SOL     OW 1449  14.790  11.165   9.760
66537SOL    HW1 1450  14.842  11.189   9.837
66537SOL    HW2 1451  14.735  11.092   9.790
66538SOL     OW 1452   1.988   4.530   3.800
66538SOL    HW1 1453   2.006   4.436   3.807
66538SOL    HW2 1454   1.970   4.543   3.706
66539SOL     OW 1455   9.436   4.390   4.946
66539SOL    HW1 1456   9.390   4.355   5.022
66539SOL    HW2 1457   9.368   4.402   4.879
66540SOL     OW 1458  13.347   4.237   9.357
66540SOL    HW1 1459  13.289   4.310   9.336
66540SOL    HW2 1460  13.289   4.164   9.375
66541SOL     OW 1461   5.207   4.119   4.619
66541SOL    HW1 1462   5.162   4.058   4.561
66541SOL    HW2 1463   5.138   4.154   4.675
66542SOL     OW 1464  14.458   1.639   7.241
66542SOL    HW1 1465  14.470   1.635   7.336
66542SOL    HW2 1466  14.405   1.718   7.227
66543SOL     OW 1467   1.095   2.169   7.212
66543SOL    HW1 1468   1.127   2.085   7.180
66543SOL    HW2 1469   1.165   2.202   7.268
66544SOL     OW 1470   8.003   6.100   7.540
66544SOL    HW1 1471   7.965   6.093   7.452
66544SOL    HW2 1472   8.094   6.072   7.529
66545SOL     OW 1473  14.773   5.090  13.947
66545SOL    HW1 1474  14.721   5.010  13.937
66545SOL    HW2 1475  14.735   5.151  13.885
66546SOL     OW 1476   5.086  10.235   5.617
66546SOL    HW1 1477   5.097  10.306   5.680
66546SOL    HW2 1478   5.032  10.171   5.662
66547SOL     OW 1479   4.441   9.533   7.670
66547SOL    HW1 1480   4.354   9.504   7.643
66547SOL    HW2 1481   4.491   9.539   7.589
66548SOL     OW 1482   8.765  13.524   5.556
66548SOL    HW1 1483   8.749  13.611   5.519
66548SOL    HW2 1484   8.692  13.509   5.615
66549SOL     OW 1485  12.126   9.955  11.575
66549SOL    HW1 1486  12.113   9.938  11.482
66549SOL    HW2 1487  12.051   9.915  11.618
66550SOL     OW 1488   3.815   0.129   8.420
66550SOL    HW1 1489   3.884   0.078   8.461
66550SOL    HW2 1490   3.743   0.068   8.408
66551SOL     OW 1491  14.086  12.082  11.778
66551SOL    HW1 1492  14.174  12.059  11.748
66551SOL    HW2 1493  14.044  11.998  11.796
66552SOL     OW 1494  12.919   4.257  10.560
66552SOL    HW1 1495  13.004   4.300  10.544
66552SOL    HW2 1496  12.892   4.290  10.646
66553SOL     OW 1497  11.205  10.595   4.433
66553SOL    HW1 1498  11.146  10.664   4.403
66553SOL    HW2 1499  11.281  10.602   4.376
66554SOL     OW 1500   6.150  13.361  11.623
66554SOL    HW1 1501   6.197  13.408  11.554
66554SOL    HW2 1502   6.082  13.422  11.651
66555SOL     OW 1503   0.605  10.036   8.148
66555SOL    HW1 1504   0.694  10.000   8.147
66555SOL    HW2 1505   0.562   9.993   8.221
66556SOL     OW 1506   2.580  14.749   0.207
66556SOL    HW1 1507   2.559  14.689   0.136
66556SOL    HW2 1508   2.533  14.830   0.184
66557SOL     OW 1509  11.593   7.521   8.947
66557SOL    HW1 1510  11.545   7.585   8.895
66557SOL    HW2 1511  11.681   7.521   8.909
66558SOL     OW 1512   8.317  11.602   8.001
66558SOL    HW1 1513   8.398  11.645   8.028
66558SOL    HW2 1514   8.340  11.509   7.995
66559SOL     OW 1515   8.272   3.340  10.751
66559SOL    HW1 1516   8.183   3.305  10.751
66559SOL    HW2 1517   8.315   3.294  10.824
66560SOL     OW 1518   6.053  11.625   1.359
66560SOL    HW1 1519   5.992  11.677   1.411
66560SOL    HW2 1520   6.019  11.536   1.365
66561SOL     OW 1521   0.803   1.633  11.553
66561SOL    HW1 1522   0.775   1.719  11.521
66561SOL    HW2 1523   0.788   1.573  11.480
66562SOL     OW 1524  13.468   8.617   3.773
66562SOL    HW1 1525  13.463   8.639   3.680
66562SOL    HW2 1526  13.455   8.522   3.775
66563SOL     OW 1527   5.437   3.002   8.798
66563SOL    HW1 1528   5.495   2.933   8.766
66563SOL    HW2 1529   5.484   3.084   8.780
66564SOL     OW 1530   8.180   1.476  10.371
66564SOL    HW1 1531   8.113   1.436  10.315
66564SOL    HW2 1532   8.261   1.430  10.348
66565SOL     OW 1533   9.286   9.789   9.052
66565SOL    HW1 1534   9.368   9.742   9.032
66565SOL    HW2 1535   9.232   9.776   8.974
66566SOL     OW 1536   4.525   8.290   7.885
66566SOL    HW1 1537   4.463   8.352   7.923
66566SOL    HW2 1538   4.577   8.260   7.960
66567SOL     OW 1539  14.482  11.846  14.377
66567SOL    HW1 1540  14.559  11.901  14.392
66567SOL    HW2 1541  14.420  11.904  14.333
66568SOL     OW 1542   2.855   1.858  12.138
66568SOL    HW1 1543   2.767   1.877  12.107
66568SOL    HW2 1544   2.845   1.777  12.190
66569SOL     OW 1545   1.097  10.322  12.910
66569SOL    HW1 1546   1.018  10.342  12.860
66569SOL    HW2 1547   1.149  10.267  12.852
66570SOL     OW 1548   3.829   1.384  12.629
66570SOL    HW1 1549   3.838   1.295  12.595
66570SOL    HW2 1550   3.915   1.403  12.667
66571SOL     OW 1551  11.976   8.538  11.214
66571SOL    HW1 1552  12.070   8.532  11.198
66571SOL    HW2 1553  11.957   8.465  11.274
66572SOL     OW 1554   4.035  12.274  10.208
66572SOL    HW1 1555   4.067  12.314  10.127
66572SOL    HW2 1556   4.074  12.327  10.278
66573SOL     OW 1557  13.350  10.341   3.266
66573SOL    HW1 1558  13.281  10.287   3.227
66573SOL    HW2 1559  13.340  10.327   3.360
66574SOL     OW 1560   2.241   6.016  10.060
66574SOL    HW1 1561   2.236   6.054  10.147
66574SOL    HW2 1562   2.150   6.009  10.031
66575SOL     OW 1563  11.337   5.545   5.012
66575SOL    HW1 1564  11.274   5.614   4.991
66575SOL    HW2 1565  11.402   5.588   5.067
66576SOL     OW 1566   3.885   3.413   1.149
66576SOL    HW1 1567   3.866   3.409   1.055
66576SOL    HW2 1568   3.933   3.332   1.167
66577SOL     OW 1569   0.009   7.980   8.781
66577SOL    HW1 1570  14.803   8.023   8.775
66577SOL    HW2 1571   0.071   8.046   8.750
66578SOL     OW 1572   8.615  12.566   8.060
66578SOL    HW1 1573   8.661  12.594   8.139
66578SOL    HW2 1574   8.678  12.577   7.989
66579SOL     OW 1575   0.856  14.687   5.656
66579SOL    HW1 1576   0.933  14.639   5.626
66579SOL    HW2 1577   0.846  14.759   5.593
66580SOL     OW 1578   8.325   1.261  14.268
66580SOL    HW1 1579   8.274   1.201  14.214
66580SOL    HW2 1580   8.337   1.215  14.351
66581SOL     OW 1581   8.052  12.688  13.919
66581SOL    HW1 1582   7.966  12.723  13.896
66581SOL    HW2 1583   8.034  12.612  13.974
66582SOL     OW 1584  14.774  12.252   5.647
66582SOL    HW1 1585  14.844  12.213   5.595
66582SOL    HW2 1586  14.710  12.282   5.583
66583SOL     OW 1587   4.438   5.197   7.872
66583SOL    HW1 1588   4.399   5.271   7.826
66583SOL    HW2 1589   4.469   5.234   7.955
66584SOL     OW 1590   5.705   1.429   1.487
66584SOL    HW1 1591   5.772   1.392   1.545
66584SOL    HW2 1592   5.657   1.354   1.453
66585SOL     OW 1593   4.824  11.442  10.224
66585SOL    HW1 1594   4.886  11.413  10.158
66585SOL    HW2 1595   4.851  11.531  10.246
66586SOL     OW 1596  13.141   0.841   7.390
66586SOL    HW1 1597  13.171   0.924   7.351
66586SOL    HW2 1598  13.064   0.817   7.338
66587SOL     OW 1599  13.355   4.397   4.153
66587SOL    HW1 1600  13.346   4.491   4.171
66587SOL    HW2 1601  13.388   4.360   4.235
66588SOL     OW 1602  12.340   8.246   9.219
66588SOL    HW1 1603  12.316   8.338   9.228
66588SOL    HW2 1604  12.434   8.247   9.201
66589SOL     OW 1605  13.529  11.369   7.278
66589SOL    HW1 1606  13.445  11.367   7.325
66589SOL    HW2 1607  13.536  11.459   7.246
66590SOL     OW 1608   7.033  12.929  12.600
66590SOL    HW1 1609   7.089  13.005  12.610
66590SOL    HW2 1610   6.959  12.946  12.658
66591SOL     OW 1611   2.833   1.360   0.589
66591SOL    HW1 1612   2.852   1.360   0.495
66591SOL    HW2 1613   2.875   1.280   0.622
66592SOL     OW 1614   5.984  13.496   4.759
66592SOL    HW1 1615   6.025  13.409   4.763
66592SOL    HW2 1616   6.058  13.557   4.754
66593SOL     OW 1617   7.589   4.619   9.945
66593SOL    HW1 1618   7.591   4.638   9.851
66593SOL    HW2 1619   7.680   4.602   9.968
66594SOL     OW 1620  14.427   1.520   5.008
66594SOL    HW1 1621  14.437   1.564   4.923
66594SOL    HW2 1622  14.509   1.539   5.054
66595SOL     OW 1623   0.261  12.878   5.132
66595SOL    HW1 1624   0.301  12.791   5.137
66595SOL    HW2 1625   0.283  12.920   5.215
66596SOL     OW 1626   9.428   9.016  10.900
66596SOL    HW1 1627   9.426   9.081  10.971
66596SOL    HW2 1628   9.469   8.939  10.941
66597SOL     OW 1629  11.049  13.477   4.927
66597SOL    HW1 1630  11.145  13.481   4.920
66597SOL    HW2 1631  11.018  13.547   4.870
66598SOL     OW 1632   3.325   0.505  13.504
66598SOL    HW1 1633   3.271   0.443  13.553
66598SOL    HW2 1634   3.365   0.453  13.434
66599SOL     OW 1635   7.536   7.060   0.936
66599SOL    HW1 1636   7.600   7.110   0.986
66599SOL    HW2 1637   7.587   6.989   0.896
66600SOL     OW 1638  11.567   2.002   3.711
66600SOL    HW1 1639  11.623   2.022   3.786
66600SOL    HW2 1640  11.493   1.954   3.749
66601SOL     OW 1641   0.063   8.134  13.555
66601SOL    HW1 1642   0.057   8.192  13.479
66601SOL    HW2 1643   0.028   8.051  13.524
66602SOL     OW 1644   0.156  14.776  10.895
66602SOL    HW1 1645   0.191  14.693  10.863
66602SOL    HW2 1646   0.066  14.757  10.919
66603SOL     OW 1647  14.857  10.766  11.215
66603SOL    HW1 1648   0.062  10.748  11.256
66603SOL    HW2 1649  14.857  10.711  11.136
66604SOL     OW 1650   1.896   9.113  10.300
66604SOL    HW1 1651   1.942   9.068  10.228
66604SOL    HW2 1652   1.818   9.150  10.258
66605SOL     OW 1653   8.164   9.934   7.421
66605SOL    HW1 1654   8.073   9.907   7.411
66605SOL    HW2 1655   8.165  10.026   7.395
66606SOL     OW 1656   7.549  13.645   8.370
66606SOL    HW1 1657   7.538  13.655   8.276
66606SOL    HW2 1658   7.640  13.668   8.386
66607SOL     OW 1659  11.844   4.368   3.315
66607SOL    HW1 1660  11.873   4.323   3.395
66607SOL    HW2 1661  11.750   4.383   3.329
66608SOL     OW 1662   5.911   4.206   5.641
66608SOL    HW1 1663   6.000   4.179   5.620
66608SOL    HW2 1664   5.918   4.254   5.723
66609SOL     OW 1665  13.862   4.943  13.565
66609SOL    HW1 1666  13.926   4.887  13.609
66609SOL    HW2 1667  13.881   5.031  13.596
66610SOL     OW 1668   0.391   3.309   9.963
66610SOL    HW1 1669   0.389   3.237   9.899
66610SOL    HW2 1670   0.364   3.269  10.045
66611SOL     OW 1671  11.553   8.063   9.513
66611SOL    HW1 1672  11.546   8.056   9.418
66611SOL    HW2 1673  11.625   8.005   9.536
66612SOL     OW 1674  11.754   2.619   4.317
66612SOL    HW1 1675  11.800   2.535   4.313
66612SOL    HW2 1676  11.743   2.645   4.226
66613SOL     OW 1677   0.760   0.617   7.994
66613SOL    HW1 1678   0.828   0.555   7.969
66613SOL    HW2 1679   0.800   0.703   7.983
66614SOL     OW 1680  12.687  10.171  11.083
66614SOL    HW1 1681  12.702  10.130  10.998
66614SOL    HW2 1682  12.686  10.098  11.146
66615SOL     OW 1683  13.349   7.882   5.519
66615SOL    HW1 1684  13.428   7.932   5.499
66615SOL    HW2 1685  13.336   7.826   5.442
66616SOL     OW 1686   7.268   2.245  11.630
66616SOL    HW1 1687   7.190   2.203  11.594
66616SOL    HW2 1688   7.264   2.335  11.597
66617SOL     OW 1689  10.277   4.870  13.599
66617SOL    HW1 1690  10.287   4.873  13.694
66617SOL    HW2 1691  10.315   4.786  13.574
66618SOL     OW 1692   3.908   0.710   7.909
66618SOL    HW1 1693   3.987   0.706   7.962
66618SOL    HW2 1694   3.869   0.623   7.917
66619SOL     OW 1695   8.339  10.437   7.280
66619SOL    HW1 1696   8.422  10.462   7.239
66619SOL    HW2 1697   8.351  10.345   7.304
66620SOL     OW 1698   2.563  10.668   4.304
66620SOL    HW1 1699   2.483  10.676   4.251
66620SOL    HW2 1700   2.590  10.759   4.321
66621SOL     OW 1701  10.437   9.580  14.240
66621SOL    HW1 1702  10.379   9.503  14.234
66621SOL    HW2 1703  10.407   9.637  14.169
66622SOL     OW 1704   4.471   4.108   5.179
66622SOL    HW1 1705   4.536   4.109   5.108
66622SOL    HW2 1706   4.513   4.057   5.249
66623SOL     OW 1707   1.460   5.309   3.643
66623SOL    HW1 1708   1.372   5.327   3.611
66623SOL    HW2 1709   1.447   5.268   3.728
66624SOL     OW 1710   5.769   0.586  13.669
66624SOL    HW1 1711   5.717   0.541  13.604
66624SOL    HW2 1712   5.773   0.526  13.743
66625SOL     OW 1713  13.232  11.762   1.443
66625SOL    HW1 1714  13.243  11.730   1.353
66625SOL    HW2 1715  13.248  11.684   1.497
66626SOL     OW 1716   2.524   2.148  10.814
66626SOL    HW1 1717   2.539   2.227  10.867
66626SOL    HW2 1718   2.504   2.080  10.879
66627SOL     OW 1719  13.119  11.697   2.802
66627SOL    HW1 1720  13.191  11.757   2.781
66627SOL    HW2 1721  13.160  11.612   2.813
66628SOL     OW 1722   9.575   9.885   6.340
66628SOL    HW1 1723   9.630   9.951   6.297
66628SOL    HW2 1724   9.599   9.891   6.432
66629SOL     OW 1725   4.035   7.903   8.027
66629SOL    HW1 1726   3.960   7.947   7.987
66629SOL    HW2 1727   4.108   7.962   8.012
66630SOL     OW 1728   8.330   4.519   3.539
66630SOL    HW1 1729   8.414   4.483   3.569
66630SOL    HW2 1730   8.290   4.447   3.489
66631SOL     OW 1731  14.559   9.449   7.191
66631SOL    HW1 1732  14.620   9.383   7.158
66631SOL    HW2 1733  14.596   9.475   7.275
66632SOL     OW 1734   2.684   3.483  14.083
66632SOL    HW1 1735   2.763   3.538  14.080
66632SOL    HW2 1736   2.622   3.528  14.025
66633SOL     OW 1737   4.571   2.964   5.773
66633SOL    HW1 1738   4.602   2.877   5.797
66633SOL    HW2 1739   4.615   3.023   5.834
66634SOL     OW 1740   4.189   4.629   5.227
66634SOL    HW1 1741   4.265   4.686   5.241
66634SOL    HW2 1742   4.195   4.563   5.295
66635SOL     OW 1743   4.362   6.987  14.467
66635SOL    HW1 1744   4.368   6.902  14.424
66635SOL    HW2 1745   4.331   7.046  14.398
66636SOL     OW 1746   0.788  13.555  12.815
66636SOL    HW1 1747   0.837  13.549  12.733
66636SOL    HW2 1748   0.855  13.574  12.881
66637SOL     OW 1749  11.895  14.617   9.467
66637SOL    HW1 1750  11.923  14.689   9.410
66637SOL    HW2 1751  11.937  14.634   9.551
66638SOL     OW 1752  13.092  13.006   8.269
66638SOL    HW1 1753  13.186  13.014   8.251
66638SOL    HW2 1754  13.078  12.911   8.278
66639SOL     OW 1755   3.615  12.239   3.052
66639SOL    HW1 1756   3.658  12.213   2.971
66639SOL    HW2 1757   3.571  12.322   3.031
66640SOL     OW 1758  10.877   7.503  10.800
66640SOL    HW1 1759  10.910   7.490  10.711
66640SOL    HW2 1760  10.790   7.462  10.799
66641SOL     OW 1761  14.373   8.410   7.558
66641SOL    HW1 1762  14.284   8.444   7.554
66641SOL    HW2 1763  14.372   8.334   7.500
66642SOL     OW 1764   5.331   0.174   1.427
66642SOL    HW1 1765   5.310   0.100   1.370
66642SOL    HW2 1766   5.258   0.235   1.415
66643SOL     OW 1767   7.126  13.444   8.088
66643SOL    HW1 1768   7.037  13.446   8.123
66643SOL    HW2 1769   7.114  13.442   7.993
66644SOL     OW 1770   7.317   6.767   4.091
66644SOL    HW1 1771   7.354   6.744   4.006
66644SOL    HW2 1772   7.375   6.835   4.126
66645SOL     OW 1773  14.060   5.086   0.524
66645SOL    HW1 1774  13.992   5.132   0.574
66645SOL    HW2 1775  14.037   5.101   0.433
66646SOL     OW 1776   9.851  13.586  12.691
66646SOL    HW1 1777   9.868  13.614  12.601
66646SOL    HW2 1778   9.775  13.638  12.718
66647SOL     OW 1779   5.322   9.329   0.406
66647SOL    HW1 1780   5.232   9.360   0.411
66647SOL    HW2 1781   5.368   9.397   0.358
66648SOL     OW 1782   6.654   9.845   1.552
66648SOL    HW1 1783   6.624   9.798   1.631
66648SOL    HW2 1784   6.607   9.928   1.555
66649SOL     OW 1785  12.157  12.261   7.925
66649SOL    HW1 1786  12.247  12.228   7.922
66649SOL    HW2 1787  12.155  12.323   7.997
66650SOL     OW 1788   4.737   4.134  11.087
66650SOL    HW1 1789   4.810   4.194  11.074
66650SOL    HW2 1790   4.744   4.106  11.178
66651SOL     OW 1791   4.953   8.193   7.014
66651SOL    HW1 1792   4.997   8.268   6.974
66651SOL    HW2 1793   4.987   8.190   7.103
66652SOL     OW 1794   8.598   3.351  10.537
66652SOL    HW1 1795   8.520   3.379  10.490
66652SOL    HW2 1796   8.670   3.397  10.494
66653SOL     OW 1797   3.675  10.486   4.968
66653SOL    HW1 1798   3.764  10.479   5.003
66653SOL    HW2 1799   3.674  10.569   4.920
66654SOL     OW 1800  14.554   6.970   7.369
66654SOL    HW1 1801  14.554   6.905   7.299
66654SOL    HW2 1802  14.521   6.922   7.445
66655SOL     OW 1803  10.458   9.097   1.195
66655SOL    HW1 1804  10.450   9.014   1.243
66655SOL    HW2 1805  10.376   9.104   1.146
66656SOL     OW 1806  12.645  13.093   6.580
66656SOL    HW1 1807  12.552  13.105   6.598
66656SOL    HW2 1808  12.647  13.052   6.493
66657SOL     OW 1809   1.522  13.151   8.942
66657SOL    HW1 1810   1.550  13.068   8.902
66657SOL    HW2 1811   1.582  13.163   9.016
66658SOL     OW 1812   2.306   5.385   2.601
66658SOL    HW1 1813   2.343   5.297   2.610
66658SOL    HW2 1814   2.315   5.406   2.508
66659SOL     OW 1815   4.721   3.740   3.661
66659SOL    HW1 1816   4.661   3.814   3.656
66659SOL    HW2 1817   4.770   3.755   3.742
66660SOL     OW 1818  13.044  11.421  13.097
66660SOL    HW1 1819  13.031  11.382  13.010
66660SOL    HW2 1820  13.014  11.353  13.158
66661SOL     OW 1821   0.800  12.889   3.428
66661SOL    HW1 1822   0.805  12.898   3.523
66661SOL    HW2 1823   0.880  12.841   3.404
66662SOL     OW 1824   3.287   8.206   2.280
66662SOL    HW1 1825   3.274   8.301   2.270
66662SOL    HW2 1826   3.203   8.174   2.310
66663SOL     OW 1827  11.031   1.713   3.423
66663SOL    HW1 1828  11.013   1.672   3.338
66663SOL    HW2 1829  11.075   1.795   3.401
66664SOL     OW 1830   6.346   9.580   0.186
66664SOL    HW1 1831   6.281   9.513   0.206
66664SOL    HW2 1832   6.408   9.537   0.128
66665SOL     OW 1833   1.579   2.954   7.657
66665SOL    HW1 1834   1.591   3.046   7.634
66665SOL    HW2 1835   1.666   2.915   7.645
66666SOL     OW 1836  12.415  14.333   7.908
66666SOL    HW1 1837  12.458  14.251   7.932
66666SOL    HW2 1838  12.362  14.355   7.985
66667SOL     OW 1839  13.147   3.999   8.545
66667SOL    HW1 1840  13.093   4.069   8.581
66667SOL    HW2 1841  13.116   3.920   8.589
66668SOL     OW 1842  10.560   9.241   4.933
66668SOL    HW1 1843  10.508   9.317   4.907
66668SOL    HW2 1844  10.636   9.278   4.977
66669SOL     OW 1845  12.001  13.330   4.763
66669SOL    HW1 1846  11.929  13.321   4.826
66669SOL    HW2 1847  11.992  13.254   4.706
66670SOL     OW 1848   2.947   7.333   9.761
66670SOL    HW1 1849   2.969   7.241   9.750
66670SOL    HW2 1850   2.870   7.346   9.705
66671SOL     OW 1851   0.077   0.677  13.192
66671SOL    HW1 1852   0.109   0.587  13.196
66671SOL    HW2 1853  14.861   0.668  13.192
66672SOL     OW 1854  13.600  12.230   1.299
66672SOL    HW1 1855  13.539  12.222   1.226
66672SOL    HW2 1856  13.658  12.154   1.291
66673SOL     OW 1857  10.487   7.240   7.662
66673SOL    HW1 1858  10.496   7.210   7.571
66673SOL    HW2 1859  10.535   7.176   7.713
66674SOL     OW 1860   6.898  13.437   5.747
66674SOL    HW1 1861   6.853  13.355   5.725
66674SOL    HW2 1862   6.901  13.437   5.842
66675SOL     OW 1863  12.339  11.707   1.330
66675SOL    HW1 1864  12.288  11.636   1.292
66675SOL    HW2 1865  12.307  11.714   1.420
66676SOL     OW 1866   2.719   3.368   4.183
66676SOL    HW1 1867   2.725   3.452   4.138
66676SOL    HW2 1868   2.661   3.315   4.129
66677SOL     OW 1869   0.126  12.472   7.991
66677SOL    HW1 1870   0.146  12.523   7.913
66677SOL    HW2 1871   0.133  12.381   7.963
66678SOL     OW 1872  13.918   7.881   1.061
66678SOL    HW1 1873  13.967   7.963   1.064
66678SOL    HW2 1874  13.838   7.898   1.110
66679SOL     OW 1875   3.264  10.806   7.657
66679SOL    HW1 1876   3.218  10.728   7.625
66679SOL    HW2 1877   3.197  10.874   7.657
66680SOL     OW 1878   1.543   9.200  11.794
66680SOL    HW1 1879   1.532   9.200  11.699
66680SOL    HW2 1880   1.512   9.287  11.822
66681SOL     OW 1881  11.247  14.037   9.836
66681SOL    HW1 1882  11.236  14.072   9.924
66681SOL    HW2 1883  11.168  13.984   9.821
66682SOL     OW 1884   3.008   0.543  14.633
66682SOL    HW1 1885   2.927   0.595  14.640
66682SOL    HW2 1886   3.034   0.527  14.724
66683SOL     OW 1887   8.963  13.642   2.842
66683SOL    HW1 1888   9.057  13.646   2.861
66683SOL    HW2 1889   8.950  13.557   2.802
66684SOL     OW 1890  14.148   0.264   8.318
66684SOL    HW1 1891  14.053   0.257   8.326
66684SOL    HW2 1892  14.181   0.240   8.404
66685SOL     OW 1893   7.665   3.175   2.619
66685SOL    HW1 1894   7.743   3.229   2.626
66685SOL    HW2 1895   7.676   3.128   2.536
66686SOL     OW 1896   2.387   3.202  11.509
66686SOL    HW1 1897   2.382   3.121  11.459
66686SOL    HW2 1898   2.306   3.248  11.489
66687SOL     OW 1899   1.826   4.918  14.580
66687SOL    HW1 1900   1.906   4.931  14.528
66687SOL    HW2 1901   1.757   4.911  14.514
66688SOL     OW 1902   8.658   0.540   8.114
66688SOL    HW1 1903   8.623   0.595   8.044
66688SOL    HW2 1904   8.617   0.455   8.101
66689SOL     OW 1905   3.464   7.066   0.935
66689SOL    HW1 1906   3.503   7.152   0.950
66689SOL    HW2 1907   3.395   7.059   1.001
66690SOL     OW 1908   4.718   3.183  10.374
66690SOL    HW1 1909   4.800   3.213  10.336
66690SOL    HW2 1910   4.672   3.139  10.302
66691SOL     OW 1911  12.980   4.910   9.720
66691SOL    HW1 1912  12.983   4.831   9.666
66691SOL    HW2 1913  13.071   4.936   9.730
66692SOL     OW 1914  11.445  13.904   4.516
66692SOL    HW1 1915  11.473  13.861   4.597
66692SOL    HW2 1916  11.515  13.965   4.495
66693SOL     OW 1917   7.460   1.213   0.538
66693SOL    HW1 1918   7.394   1.276   0.565
66693SOL    HW2 1919   7.422   1.169   0.462
66694SOL     OW 1920   1.807   9.488   5.543
66694SOL    HW1 1921   1.785   9.401   5.510
66694SOL    HW2 1922   1.827   9.474   5.636
66695SOL     OW 1923   6.197   5.252   9.127
66695SOL    HW1 1924   6.164   5.173   9.084
66695SOL    HW2 1925   6.289   5.233   9.144
66696SOL     OW 1926   4.541   2.689   2.995
66696SOL    HW1 1927   4.497   2.758   2.944
66696SOL    HW2 1928   4.558   2.729   3.080
66697SOL     OW 1929   3.200   3.071  10.439
66697SOL    HW1 1930   3.118   3.025  10.424
66697SOL    HW2 1931   3.245   3.019  10.505
66698SOL     OW 1932   5.138   3.508   3.089
66698SOL    HW1 1933   5.163   3.600   3.096
66698SOL    HW2 1934   5.172   3.468   3.169
66699SOL     OW 1935   3.619   1.342   8.170
66699SOL    HW1 1936   3.578   1.367   8.087
66699SOL    HW2 1937   3.692   1.404   8.180
66700SOL     OW 1938  13.851   9.545   1.302
66700SOL    HW1 1939  13.886   9.625   1.262
66700SOL    HW2 1940  13.922   9.482   1.296
66701SOL     OW 1941   0.574   3.751  12.426
66701SOL    HW1 1942   0.520   3.766  12.503
66701SOL    HW2 1943   0.528   3.797  12.356
66702SOL     OW 1944  11.861   8.024   7.318
66702SOL    HW1 1945  11.834   7.972   7.394
66702SOL    HW2 1946  11.783   8.029   7.263
66703SOL     OW 1947   0.474   8.543   5.815
66703SOL    HW1 1948   0.448   8.451   5.824
66703SOL    HW2 1949   0.569   8.539   5.799
66704SOL     OW 1950  11.741   2.857   9.220
66704SOL    HW1 1951  11.798   2.815   9.156
66704SOL    HW2 1952  11.653   2.831   9.194
66705SOL     OW 1953   4.684   5.886  14.272
66705SOL    HW1 1954   4.703   5.800  14.311
66705SOL    HW2 1955   4.749   5.944  14.311
66706SOL     OW 1956  11.053   8.071  14.575
66706SOL    HW1 1957  11.014   7.998  14.528
66706SOL    HW2 1958  10.985   8.138  14.577
66707SOL     OW 1959  12.631   8.839   6.889
66707SOL    HW1 1960  12.610   8.858   6.798
66707SOL    HW2 1961  12.656   8.924   6.926
66708SOL     OW 1962  13.068  13.251  14.682
66708SOL    HW1 1963  13.030  13.217  14.601
66708SOL    HW2 1964  13.159  13.271  14.659
66709SOL     OW 1965  13.854   9.709  10.281
66709SOL    HW1 1966  13.838   9.622  10.245
66709SOL    HW2 1967  13.791   9.717  10.352
66710SOL     OW 1968   9.226   8.046   5.646
66710SOL    HW1 1969   9.149   8.008   5.688
66710SOL    HW2 1970   9.300   8.011   5.696
66711SOL     OW 1971   3.536   9.773   2.043
66711SOL    HW1 1972   3.523   9.858   2.085
66711SOL    HW2 1973   3.558   9.793   1.952
66712SOL     OW 1974   8.676   2.466   8.252
66712SOL    HW1 1975   8.757   2.462   8.302
66712SOL    HW2 1976   8.609   2.435   8.314
66713SOL     OW 1977  13.895  14.145  10.265
66713SOL    HW1 1978  13.984  14.172  10.288
66713SOL    HW2 1979  13.906  14.064  10.216
66714SOL     OW 1980   1.060   6.886   1.146
66714SOL    HW1 1981   1.111   6.839   1.212
66714SOL    HW2 1982   1.118   6.891   1.070
66715SOL     OW 1983   2.943  10.881   5.056
66715SOL    HW1 1984   2.924  10.842   4.971
66715SOL    HW2 1985   3.011  10.825   5.094
66716SOL     OW 1986  14.240  11.114  11.494
66716SOL    HW1 1987  14.192  11.114  11.577
66716SOL    HW2 1988  14.317  11.061  11.511
66717SOL     OW 1989  14.679  14.866   2.422
66717SOL    HW1 1990  14.746  14.815   2.375
66717SOL    HW2 1991  14.640  14.803   2.483
66718SOL     OW 1992  11.906  13.011  14.309
66718SOL    HW1 1993  11.852  13.067  14.365
66718SOL    HW2 1994  11.974  13.071  14.275
66719SOL     OW 1995   2.602   8.892  11.479
66719SOL    HW1 1996   2.565   8.940  11.554
66719SOL    HW2 1997   2.686   8.935  11.463
66720SOL     OW 1998   8.624   5.929  10.927
66720SOL    HW1 1999   8.667   5.846  10.906
66720SOL    HW2 2000   8.622   5.931  11.023
66721SOL     OW 2001  12.871   8.995  10.251
66721SOL    HW1 2002  12.779   9.009  10.273
66721SOL    HW2 2003  12.871   8.978  10.157
66722SOL     OW 2004   1.815  12.804  11.776
66722SOL    HW1 2005   1.855  12.736  11.831
66722SOL    HW2 2006   1.724  12.776  11.767
66723SOL     OW 2007   2.861  11.121   7.622
66723SOL    HW1 2008   2.824  11.174   7.693
66723SOL    HW2 2009   2.857  11.177   7.545
66724SOL     OW 2010   8.211  13.546   9.417
66724SOL    HW1 2011   8.260  13.602   9.476
66724SOL    HW2 2012   8.277  13.489   9.377
66725SOL     OW 2013   6.806   5.360  11.093
66725SOL    HW1 2014   6.871   5.427  11.071
66725SOL    HW2 2015   6.723   5.407  11.094
66726SOL     OW 2016  10.866   4.009  11.519
66726SOL    HW1 2017  10.852   3.983  11.428
66726SOL    HW2 2018  10.877   3.926  11.566
66727SOL     OW 2019   1.433   1.352  12.763
66727SOL    HW1 2020   1.410   1.292  12.834
66727SOL    HW2 2021   1.435   1.438  12.805
66728SOL     OW 2022   8.600  14.184   7.793
66728SOL    HW1 2023   8.612  14.273   7.761
66728SOL    HW2 2024   8.626  14.188   7.885
66729SOL     OW 2025   8.720   7.725   8.773
66729SOL    HW1 2026   8.657   7.677   8.826
66729SOL    HW2 2027   8.805   7.692   8.800
66730SOL     OW 2028   6.195  13.929   4.629
66730SOL    HW1 2029   6.108  13.934   4.590
66730SOL    HW2 2030   6.205  14.010   4.678
66731SOL     OW 2031   3.893   3.248   5.946
66731SOL    HW1 2032   3.830   3.176   5.947
66731SOL    HW2 2033   3.860   3.310   6.011
66732SOL     OW 2034   7.970   8.226   3.609
66732SOL    HW1 2035   8.016   8.209   3.692
66732SOL    HW2 2036   7.946   8.318   3.613
66733SOL     OW 2037   5.942  11.673  13.500
66733SOL    HW1 2038   5.884  11.611  13.456
66733SOL    HW2 2039   6.001  11.703  13.431
66734SOL     OW 2040   4.256   3.371   3.086
66734SOL    HW1 2041   4.185   3.388   3.025
66734SOL    HW2 2042   4.246   3.436   3.156
66735SOL     OW 2043  14.822  12.111   9.333
66735SOL    HW1 2044  14.807  12.077   9.245
66735SOL    HW2 2045   0.031  12.081   9.356
66736SOL     OW 2046   8.711  10.760   7.751
66736SOL    HW1 2047   8.728  10.726   7.839
66736SOL    HW2 2048   8.741  10.851   7.754
66737SOL     OW 2049   3.017   0.671   4.593
66737SOL    HW1 2050   3.038   0.586   4.630
66737SOL    HW2 2051   2.938   0.656   4.541
66738SOL     OW 2052   0.213   6.963  12.897
66738SOL    HW1 2053   0.256   7.043  12.866
66738SOL    HW2 2054   0.214   6.904  12.821
66739SOL     OW 2055   6.201   4.969  12.220
66739SOL    HW1 2056   6.233   4.917  12.147
66739SOL    HW2 2057   6.178   5.054  12.182
66740SOL     OW 2058  11.536   0.455   7.037
66740SOL    HW1 2059  11.577   0.533   6.999
66740SOL    HW2 2060  11.449   0.451   6.995
66741SOL     OW 2061   5.108  12.963  12.676
66741SOL    HW1 2062   5.039  12.938  12.737
66741SOL    HW2 2063   5.102  12.899  12.605
66742SOL     OW 2064   3.766   6.980   3.747
66742SOL    HW1 2065   3.806   6.916   3.689
66742SOL    HW2 2066   3.708   7.031   3.689
66743SOL     OW 2067   3.890   0.189   0.032
66743SOL    HW1 2068   3.841   0.174  14.831
66743SOL    HW2 2069   3.869   0.279   0.057
66744SOL     OW 2070  12.952  14.275   1.059
66744SOL    HW1 2071  12.872  14.298   1.010
66744SOL    HW2 2072  12.958  14.343   1.127
66745SOL     OW 2073  10.457   7.389   6.595
66745SOL    HW1 2074  10.453   7.294   6.601
66745SOL    HW2 2075  10.493   7.416   6.680
66746SOL     OW 2076   8.375   7.955   9.247
66746SOL    HW1 2077   8.321   7.890   9.292
66746SOL    HW2 2078   8.436   7.902   9.194
66747SOL     OW 2079  11.508   5.382   4.557
66747SOL    HW1 2080  11.603   5.382   4.553
66747SOL    HW2 2081  11.487   5.441   4.629
66748SOL     OW 2082   2.539   6.919   2.352
66748SOL    HW1 2083   2.479   6.975   2.304
66748SOL    HW2 2084   2.615   6.909   2.294
66749SOL     OW 2085   4.745   1.705   0.253
66749SOL    HW1 2086   4.668   1.730   0.305
66749SOL    HW2 2087   4.723   1.730   0.164
66750SOL     OW 2088   4.993   7.882   1.947
66750SOL    HW1 2089   4.976   7.954   1.886
66750SOL    HW2 2090   5.002   7.925   2.032
66751SOL     OW 2091   1.563   6.101  11.791
66751SOL    HW1 2092   1.655   6.090  11.815
66751SOL    HW2 2093   1.544   6.026  11.734
66752SOL     OW 2094  10.290   9.495   0.303
66752SOL    HW1 2095  10.334   9.552   0.367
66752SOL    HW2 2096  10.229   9.554   0.258
66753SOL     OW 2097  12.722  14.678   0.064
66753SOL    HW1 2098  12.701  14.767   0.033
66753SOL    HW2 2099  12.776  14.693   0.142
66754SOL     OW 2100  13.474  11.752   6.578
66754SOL    HW1 2101  13.534  11.779   6.509
66754SOL    HW2 2102  13.470  11.826   6.638
66755SOL     OW 2103   2.825   0.309   6.820
66755SOL    HW1 2104   2.894   0.330   6.883
66755SOL    HW2 2105   2.744   0.335   6.863
66756SOL     OW 2106   5.768   3.745   8.953
66756SOL    HW1 2107   5.715   3.814   8.993
66756SOL    HW2 2108   5.856   3.782   8.948
66757SOL     OW 2109   9.057   1.677   6.170
66757SOL    HW1 2110   9.017   1.739   6.231
66757SOL    HW2 2111   8.985   1.650   6.113
66758SOL     OW 2112   2.821   2.416   6.774
66758SOL    HW1 2113   2.820   2.489   6.712
66758SOL    HW2 2114   2.913   2.398   6.789
66759SOL     OW 2115  13.278   0.647   2.659
66759SOL    HW1 2116  13.185   0.668   2.664
66759SOL    HW2 2117  13.298   0.603   2.742
66760SOL     OW 2118   9.960  14.025  11.483
66760SOL    HW1 2119  10.037  14.008  11.538
66760SOL    HW2 2120   9.888  13.983  11.531
66761SOL     OW 2121   0.151   6.121   6.378
66761SOL    HW1 2122   0.106   6.056   6.433
66761SOL    HW2 2123   0.195   6.069   6.311
66762SOL     OW 2124   7.210  13.618   1.490
66762SOL    HW1 2125   7.229  13.584   1.402
66762SOL    HW2 2126   7.258  13.559   1.548
66763SOL     OW 2127   9.290  12.787   8.010
66763SOL    HW1 2128   9.275  12.784   7.915
66763SOL    HW2 2129   9.327  12.874   8.025
66764SOL     OW 2130   1.706  11.108   7.035
66764SOL    HW1 2131   1.723  11.188   7.085
66764SOL    HW2 2132   1.647  11.057   7.090
66765SOL     OW 2133   4.742   4.459   8.830
66765SOL    HW1 2134   4.725   4.500   8.915
66765SOL    HW2 2135   4.735   4.531   8.767
66766SOL     OW 2136  13.161   2.472   0.313
66766SOL    HW1 2137  13.088   2.433   0.360
66766SOL    HW2 2138  13.217   2.508   0.382
66767SOL     OW 2139   8.950   2.318  11.079
66767SOL    HW1 2140   9.001   2.269  11.015
66767SOL    HW2 2141   8.860   2.289  11.066
66768SOL     OW 2142   0.709   9.150  14.554
66768SOL    HW1 2143   0.652   9.098  14.611
66768SOL    HW2 2144   0.660   9.157  14.472
66769SOL     OW 2145   4.805   1.888   8.684
66769SOL    HW1 2146   4.853   1.814   8.721
66769SOL    HW2 2147   4.813   1.877   8.589
66770SOL     OW 2148  11.153   9.926   7.014
66770SOL    HW1 2149  11.123   9.901   7.102
66770SOL    HW2 2150  11.192   9.846   6.979
66771SOL     OW 2151   7.702   7.812   3.533
66771SOL    HW1 2152   7.613   7.840   3.511
66771SOL    HW2 2153   7.706   7.818   3.628
66772SOL     OW 2154  10.341  12.968   5.082
66772SOL    HW1 2155  10.264  12.921   5.047
66772SOL    HW2 2156  10.327  13.059   5.057
66773SOL     OW 2157   2.511   0.968   0.004
66773SOL    HW1 2158   2.476   0.952  14.796
66773SOL    HW2 2159   2.476   1.053   0.029
66774SOL     OW 2160   4.815  10.145   0.557
66774SOL    HW1 2161   4.859  10.060   0.565
66774SOL    HW2 2162   4.885  10.209   0.567
66775SOL     OW 2163   5.804   9.544  13.632
66775SOL    HW1 2164   5.708   9.535  13.633
66775SOL    HW2 2165   5.829   9.536  13.724
66776SOL     OW 2166   0.807   6.785   0.400
66776SOL    HW1 2167   0.845   6.821   0.480
66776SOL    HW2 2168   0.819   6.690   0.409
66777SOL     OW 2169   2.334   8.662   2.311
66777SOL    HW1 2170   2.421   8.647   2.275
66777SOL    HW2 2171   2.281   8.689   2.236
66778SOL     OW 2172  11.420   3.351  13.040
66778SOL    HW1 2173  11.459   3.438  13.030
66778SOL    HW2 2174  11.479   3.305  13.100
66779SOL     OW 2175  11.626   5.965   6.658
66779SOL    HW1 2176  11.685   5.979   6.733
66779SOL    HW2 2177  11.629   5.871   6.643
66780SOL     OW 2178   4.206  12.212   8.126
66780SOL    HW1 2179   4.262  12.244   8.196
66780SOL    HW2 2180   4.140  12.280   8.114
66781SOL     OW 2181   1.027   9.807   6.888
66781SOL    HW1 2182   1.064   9.824   6.802
66781SOL    HW2 2183   1.049   9.885   6.940
66782SOL     OW 2184   2.071   9.035   6.587
66782SOL    HW1 2185   2.116   8.971   6.642
66782SOL    HW2 2186   2.059   9.111   6.644
66783SOL     OW 2187   3.716  11.608   5.804
66783SOL    HW1 2188   3.680  11.695   5.787
66783SOL    HW2 2189   3.806  11.624   5.831
66784SOL     OW 2190   7.616   6.510  14.420
66784SOL    HW1 2191   7.644   6.504  14.511
66784SOL    HW2 2192   7.523   6.529  14.424
66785SOL     OW 2193   1.682  12.596  10.652
66785SOL    HW1 2194   1.727  12.576  10.734
66785SOL    HW2 2195   1.720  12.535  10.588
66786SOL     OW 2196   5.454   6.940   0.560
66786SOL    HW1 2197   5.522   6.879   0.589
66786SOL    HW2 2198   5.399   6.953   0.638
66787SOL     OW 2199  13.808   6.761   5.551
66787SOL    HW1 2200  13.749   6.773   5.625
66787SOL    HW2 2201  13.752   6.770   5.474
66788SOL     OW 2202   4.207   1.997   9.507
66788SOL    HW1 2203   4.281   2.025   9.453
66788SOL    HW2 2204   4.219   2.043   9.590
66789SOL     OW 2205  10.040   7.229  14.680
66789SOL    HW1 2206   9.998   7.311  14.653
66789SOL    HW2 2207  10.113   7.218  14.618
66790SOL     OW 2208   4.290   4.925   0.628
66790SOL    HW1 2209   4.274   4.939   0.722
66790SOL    HW2 2210   4.380   4.894   0.623
66791SOL     OW 2211  10.026   4.028  10.200
66791SOL    HW1 2212  10.037   4.099  10.264
66791SOL    HW2 2213   9.945   4.051  10.154
66792SOL     OW 2214   8.040   6.919   1.689
66792SOL    HW1 2215   8.117   6.931   1.633
66792SOL    HW2 2216   8.007   6.832   1.665
66793SOL     OW 2217  14.512  14.562   7.233
66793SOL    HW1 2218  14.519  14.552   7.138
66793SOL    HW2 2219  14.468  14.647   7.245
66794SOL     OW 2220   6.162  13.356   2.060
66794SOL    HW1 2221   6.225  13.353   1.988
66794SOL    HW2 2222   6.127  13.267   2.065
66795SOL     OW 2223   7.039   5.013  11.015
66795SOL    HW1 2224   7.069   4.992  11.104
66795SOL    HW2 2225   7.064   5.105  11.002
66796SOL     OW 2226   3.543   5.779  11.520
66796SOL    HW1 2227   3.629   5.820  11.513
66796SOL    HW2 2228   3.543   5.712  11.452
66797SOL     OW 2229  11.268   4.945  10.178
66797SOL    HW1 2230  11.196   4.990  10.134
66797SOL    HW2 2231  11.262   4.973  10.269
66798SOL     OW 2232  10.979   6.477   7.198
66798SOL    HW1 2233  10.908   6.446   7.142
66798SOL    HW2 2234  11.046   6.508   7.137
66799SOL     OW 2235   5.713   2.062   8.701
66799SOL    HW1 2236   5.652   2.118   8.654
66799SOL    HW2 2237   5.754   2.008   8.634
66800SOL     OW 2238   7.821   8.052   7.321
66800SOL    HW1 2239   7.805   8.061   7.414
66800SOL    HW2 2240   7.894   8.112   7.303
66801SOL     OW 2241   9.865   4.662   3.316
66801SOL    HW1 2242   9.776   4.696   3.323
66801SOL    HW2 2243   9.914   4.711   3.382
66802SOL     OW 2244  12.379   1.455   3.052
66802SOL    HW1 2245  12.465   1.414   3.059
66802SOL    HW2 2246  12.396   1.542   3.017
66803SOL     OW 2247  13.409   9.699   0.742
66803SOL    HW1 2248  13.399   9.783   0.696
66803SOL    HW2 2249  13.399   9.633   0.674
66804SOL     OW 2250  14.115   5.558   8.344
66804SOL    HW1 2251  14.094   5.631   8.286
66804SOL    HW2 2252  14.178   5.505   8.295
66805SOL     OW 2253   4.369   3.699   5.379
66805SOL    HW1 2254   4.442   3.751   5.344
66805SOL    HW2 2255   4.339   3.749   5.455
66806SOL     OW 2256   0.861  10.013  10.397
66806SOL    HW1 2257   0.925  10.078  10.426
66806SOL    HW2 2258   0.904   9.968  10.324
66807SOL     OW 2259  13.244   9.652   5.596
66807SOL    HW1 2260  13.339   9.664   5.598
66807SOL    HW2 2261  13.210   9.728   5.643
66808SOL     OW 2262  11.301  11.540  10.408
66808SOL    HW1 2263  11.233  11.594  10.446
66808SOL    HW2 2264  11.377  11.553  10.466
66809SOL     OW 2265   0.688  13.625  11.036
66809SOL    HW1 2266   0.700  13.642  10.943
66809SOL    HW2 2267   0.709  13.532  11.046
66810SOL     OW 2268  14.867   1.140  12.996
66810SOL    HW1 2269  14.847   1.145  13.089
66810SOL    HW2 2270   0.071   1.093  12.991
66811SOL     OW 2271   9.300  13.590   6.068
66811SOL    HW1 2272   9.265  13.610   6.155
66811SOL    HW2 2273   9.288  13.670   6.018
66812SOL     OW 2274   9.826  10.780   9.858
66812SOL    HW1 2275   9.764  10.712   9.831
66812SOL    HW2 2276   9.837  10.835   9.780
66813SOL     OW 2277   3.042   5.388  12.267
66813SOL    HW1 2278   3.052   5.327  12.195
66813SOL    HW2 2279   3.096   5.464  12.242
66814SOL     OW 2280  13.648   0.147  12.235
66814SOL    HW1 2281  13.714   0.077  12.235
66814SOL    HW2 2282  13.569   0.104  12.267
66815SOL     OW 2283   1.519   8.507   8.064
66815SOL    HW1 2284   1.440   8.520   8.012
66815SOL    HW2 2285   1.576   8.580   8.039
66816SOL     OW 2286   3.644   5.476   2.982
66816SOL    HW1 2287   3.704   5.449   3.052
66816SOL    HW2 2288   3.657   5.571   2.974
66817SOL     OW 2289   8.709  13.838   8.651
66817SOL    HW1 2290   8.723  13.754   8.608
66817SOL    HW2 2291   8.657  13.889   8.589
66818SOL     OW 2292   9.823   9.066  14.352
66818SOL    HW1 2293   9.860   9.057  14.264
66818SOL    HW2 2294   9.836   8.980  14.392
66819SOL     OW 2295   4.576  10.084   7.038
66819SOL    HW1 2296   4.606  10.159   7.090
66819SOL    HW2 2297   4.582  10.114   6.947
66820SOL     OW 2298   5.317  14.797  10.145
66820SOL    HW1 2299   5.294  14.736  10.074
66820SOL    HW2 2300   5.250  14.865  10.140
66821SOL     OW 2301  12.454   8.528  10.187
66821SOL    HW1 2302  12.528   8.526  10.247
66821SOL    HW2 2303  12.490   8.566  10.107
66822SOL     OW 2304  13.990   7.384   9.532
66822SOL    HW1 2305  14.071   7.332   9.533
66822SOL    HW2 2306  13.993   7.430   9.448
66823SOL     OW 2307   1.371   4.108   2.039
66823SOL    HW1 2308   1.457   4.117   1.997
66823SOL    HW2 2309   1.381   4.153   2.123
66824SOL     OW 2310  12.206  14.516  14.795
66824SOL    HW1 2311  12.275  14.483  14.737
66824SOL    HW2 2312  12.125  14.505  14.744
66825SOL     OW 2313   1.496   2.714   4.088
66825SOL    HW1 2314   1.418   2.659   4.096
66825SOL    HW2 2315   1.565   2.653   4.059
66826SOL     OW 2316   2.070  11.903   8.146
66826SOL    HW1 2317   2.115  11.973   8.193
66826SOL    HW2 2318   2.105  11.822   8.182
66827SOL     OW 2319  13.024   7.714   0.742
66827SOL    HW1 2320  13.063   7.632   0.712
66827SOL    HW2 2321  13.038   7.775   0.669
66828SOL     OW 2322  13.532  10.382   0.856
66828SOL    HW1 2323  13.543  10.432   0.775
66828SOL    HW2 2324  13.530  10.448   0.925
66829SOL     OW 2325   0.614   4.089  12.172
66829SOL    HW1 2326   0.589   4.103  12.264
66829SOL    HW2 2327   0.533   4.103  12.123
66830SOL     OW 2328  13.676   5.439   0.792
66830SOL    HW1 2329  13.608   5.505   0.779
66830SOL    HW2 2330  13.664   5.410   0.883
66831SOL     OW 2331   0.371  12.110   6.131
66831SOL    HW1 2332   0.282  12.142   6.141
66831SOL    HW2 2333   0.362  12.028   6.082
66832SOL     OW 2334   4.785  13.415   4.604
66832SOL    HW1 2335   4.749  13.494   4.564
66832SOL    HW2 2336   4.836  13.374   4.534
66833SOL     OW 2337  13.982   8.967   1.423
66833SOL    HW1 2338  13.962   9.037   1.362
66833SOL    HW2 2339  14.066   8.990   1.461
66834SOL     OW 2340  10.166   9.430   4.512
66834SOL    HW1 2341  10.188   9.357   4.570
66834SOL    HW2 2342  10.107   9.393   4.447
66835SOL     OW 2343   1.091  13.415   3.687
66835SOL    HW1 2344   1.047  13.339   3.650
66835SOL    HW2 2345   1.039  13.490   3.658
66836SOL     OW 2346   4.838  13.447   8.604
66836SOL    HW1 2347   4.840  13.533   8.562
66836SOL    HW2 2348   4.761  13.404   8.566
66837SOL     OW 2349   1.826   9.690   1.559
66837SOL    HW1 2350   1.776   9.705   1.640
66837SOL    HW2 2351   1.917   9.699   1.586
66838SOL     OW 2352   4.278   4.275   9.776
66838SOL    HW1 2353   4.213   4.304   9.712
66838SOL    HW2 2354   4.231   4.209   9.828
66839SOL     OW 2355   2.000   4.452   0.760
66839SOL    HW1 2356   1.934   4.516   0.786
66839SOL    HW2 2357   1.990   4.446   0.665
66840SOL     OW 2358   9.858  10.917  14.315
66840SOL    HW1 2359   9.890  10.865  14.388
66840SOL    HW2 2360   9.930  10.977  14.294
66841SOL     OW 2361   7.972  12.543   8.052
66841SOL    HW1 2362   7.879  12.559   8.038
66841SOL    HW2 2363   7.980  12.528   8.147
66842SOL     OW 2364   2.233   1.382   5.927
66842SOL    HW1 2365   2.276   1.332   5.997
66842SOL    HW2 2366   2.243   1.473   5.953
66843SOL     OW 2367   2.483   9.390   0.910
66843SOL    HW1 2368   2.442   9.394   0.824
66843SOL    HW2 2369   2.454   9.469   0.955
66844SOL     OW 2370  10.194   8.184  11.814
66844SOL    HW1 2371  10.218   8.093  11.799
66844SOL    HW2 2372  10.276   8.227  11.838
66845SOL     OW 2373  12.489   5.988   8.698
66845SOL    HW1 2374  12.552   6.033   8.754
66845SOL    HW2 2375  12.464   6.054   8.633
66846SOL     OW 2376   6.366  11.374   5.800
66846SOL    HW1 2377   6.300  11.426   5.754
66846SOL    HW2 2378   6.419  11.336   5.729
66847SOL     OW 2379  11.371   5.777   1.355
66847SOL    HW1 2380  11.433   5.706   1.369
66847SOL    HW2 2381  11.295   5.734   1.315
66848SOL     OW 2382   7.758   1.451   0.358
66848SOL    HW1 2383   7.758   1.404   0.274
66848SOL    HW2 2384   7.750   1.543   0.334
66849SOL     OW 2385   9.055  14.732   5.463
66849SOL    HW1 2386   9.120  14.696   5.403
66849SOL    HW2 2387   9.062  14.677   5.542
66850SOL     OW 2388   4.509   1.490   0.095
66850SOL    HW1 2389   4.600   1.515   0.075
66850SOL    HW2 2390   4.456   1.543   0.036
66851SOL     OW 2391   3.697  10.524   9.614
66851SOL    HW1 2392   3.707  10.605   9.564
66851SOL    HW2 2393   3.721  10.548   9.704
66852SOL     OW 2394   0.228  12.221  12.286
66852SOL    HW1 2395   0.272  12.148  12.243
66852SOL    HW2 2396   0.294  12.259  12.344
66853SOL     OW 2397   7.295   6.004   8.033
66853SOL    HW1 2398   7.210   5.960   8.044
66853SOL    HW2 2399   7.295   6.034   7.942
66854SOL     OW 2400   7.779   4.509  13.588
66854SOL    HW1 2401   7.757   4.474  13.502
66854SOL    HW2 2402   7.861   4.557  13.575
66855SOL     OW 2403  12.924  14.115   0.638
66855SOL    HW1 2404  12.883  14.058   0.702
66855SOL    HW2 2405  12.870  14.194   0.637
66856SOL     OW 2406  14.067  13.013  13.777
66856SOL    HW1 2407  14.087  12.955  13.850
66856SOL    HW2 2408  14.134  13.081  13.781
66857SOL     OW 2409  14.035   7.614   7.344
66857SOL    HW1 2410  14.063   7.523   7.357
66857SOL    HW2 2411  13.942   7.613   7.366
66858SOL     OW 2412   6.534   0.163  13.857
66858SOL    HW1 2413   6.526   0.140  13.764
66858SOL    HW2 2414   6.507   0.083  13.903
66859SOL     OW 2415   5.305  11.949  13.979
66859SOL    HW1 2416   5.391  11.906  13.986
66859SOL    HW2 2417   5.287  11.981  14.068
66860SOL     OW 2418  11.567  14.623  12.463
66860SOL    HW1 2419  11.611  14.602  12.381
66860SOL    HW2 2420  11.631  14.603  12.531
66861SOL     OW 2421  12.173   5.722   4.946
66861SOL    HW1 2422  12.149   5.634   4.974
66861SOL    HW2 2423  12.225   5.709   4.866
66862SOL     OW 2424  11.166   2.921   9.685
66862SOL    HW1 2425  11.131   2.937   9.772
66862SOL    HW2 2426  11.095   2.947   9.626
66863SOL     OW 2427   2.989   7.845  10.367
66863SOL    HW1 2428   3.009   7.758  10.400
66863SOL    HW2 2429   3.027   7.847  10.279
66864SOL     OW 2430  11.690   7.865  11.099
66864SOL    HW1 2431  11.632   7.922  11.149
66864SOL    HW2 2432  11.678   7.892  11.008
66865SOL     OW 2433   7.720  11.389   7.753
66865SOL    HW1 2434   7.709  11.342   7.835
66865SOL    HW2 2435   7.692  11.326   7.686
66866SOL     OW 2436   6.452   3.747   5.195
66866SOL    HW1 2437   6.415   3.660   5.181
66866SOL    HW2 2438   6.496   3.769   5.113
66867SOL     OW 2439   7.291   0.395   4.070
66867SOL    HW1 2440   7.200   0.420   4.056
66867SOL    HW2 2441   7.291   0.349   4.154
66868SOL     OW 2442   0.447   0.340   2.092
66868SOL    HW1 2443   0.512   0.380   2.034
66868SOL    HW2 2444   0.496   0.311   2.168
66869SOL     OW 2445   2.749   3.813  11.737
66869SOL    HW1 2446   2.730   3.841  11.826
66869SOL    HW2 2447   2.757   3.894  11.687
66870SOL     OW 2448  10.499   4.343   9.120
66870SOL    HW1 2449  10.465   4.398   9.049
66870SOL    HW2 2450  10.593   4.335   9.101
66871SOL     OW 2451   4.363   6.798   5.318
66871SOL    HW1 2452   4.424   6.868   5.342
66871SOL    HW2 2453   4.286   6.844   5.285
66872SOL     OW 2454   4.153   4.068  11.052
66872SOL    HW1 2455   4.104   4.099  11.129
66872SOL    HW2 2456   4.238   4.043  11.087
66873SOL     OW 2457   0.255   0.084   9.779
66873SOL    HW1 2458   0.291   0.010   9.729
66873SOL    HW2 2459   0.169   0.099   9.740
66874SOL     OW 2460   5.083   2.753  10.748
66874SOL    HW1 2461   5.078   2.806  10.828
66874SOL    HW2 2462   5.065   2.664  10.778
66875SOL     OW 2463   8.357   5.248   1.782
66875SOL    HW1 2464   8.320   5.336   1.773
66875SOL    HW2 2465   8.406   5.235   1.701
66876SOL     OW 2466   5.599   6.589  10.015
66876SOL    HW1 2467   5.547   6.569   9.937
66876SOL    HW2 2468   5.534   6.599  10.085
66877SOL     OW 2469   6.962   1.579  12.392
66877SOL    HW1 2470   6.977   1.509  12.456
66877SOL    HW2 2471   6.883   1.623  12.423
66878SOL     OW 2472   9.895   8.251  11.026
66878SOL    HW1 2473   9.939   8.282  10.947
66878SOL    HW2 2474   9.908   8.322  11.089
66879SOL     OW 2475  13.819   1.449  11.875
66879SOL    HW1 2476  13.879   1.518  11.845
66879SOL    HW2 2477  13.863   1.411  11.951
66880SOL     OW 2478   4.351  10.993  14.223
66880SOL    HW1 2479   4.346  10.991  14.127
66880SOL    HW2 2480   4.303  11.071  14.248
66881SOL     OW 2481   0.398   1.156  10.062
66881SOL    HW1 2482   0.451   1.120  10.133
66881SOL    HW2 2483   0.387   1.083  10.001
66882SOL     OW 2484   4.957   9.262  13.741
66882SOL    HW1 2485   4.886   9.219  13.790
66882SOL    HW2 2486   5.033   9.206  13.755
66883SOL     OW 2487   7.092  10.573   8.626
66883SOL    HW1 2488   7.031  10.505   8.600
66883SOL    HW2 2489   7.062  10.602   8.712
66884SOL     OW 2490   0.577  12.208  14.758
66884SOL    HW1 2491   0.503  12.239  14.705
66884SOL    HW2 2492   0.653  12.252  14.721
66885SOL     OW 2493   6.646   7.259   1.087
66885SOL    HW1 2494   6.562   7.304   1.095
66885SOL    HW2 2495   6.701   7.320   1.038
66886SOL     OW 2496  10.319  12.766   1.411
66886SOL    HW1 2497  10.288  12.704   1.345
66886SOL    HW2 2498  10.253  12.763   1.480
66887SOL     OW 2499  12.218   0.878   0.204
66887SOL    HW1 2500  12.158   0.803   0.200
66887SOL    HW2 2501  12.172   0.948   0.157
66888SOL     OW 2502   0.139  11.801  12.104
66888SOL    HW1 2503   0.083  11.728  12.130
66888SOL    HW2 2504   0.225  11.779  12.140
66889SOL     OW 2505   2.788   6.901  11.728
66889SOL    HW1 2506   2.850   6.943  11.787
66889SOL    HW2 2507   2.730   6.972  11.700
66890SOL     OW 2508   3.889   5.091   5.370
66890SOL    HW1 2509   3.839   5.027   5.318
66890SOL    HW2 2510   3.976   5.052   5.377
66891SOL     OW 2511   1.961  11.888   0.339
66891SOL    HW1 2512   2.002  11.824   0.397
66891SOL    HW2 2513   2.017  11.965   0.345
66892SOL     OW 2514   3.198   9.802   4.004
66892SOL    HW1 2515   3.113   9.830   4.037
66892SOL    HW2 2516   3.181   9.780   3.912
66893SOL     OW 2517   7.650  10.009   7.980
66893SOL    HW1 2518   7.609   9.979   8.061
66893SOL    HW2 2519   7.610   9.955   7.912
66894SOL     OW 2520   9.824  11.777  13.585
66894SOL    HW1 2521   9.736  11.805  13.564
66894SOL    HW2 2522   9.854  11.730  13.507
66895SOL     OW 2523  10.649  14.182   4.316
66895SOL    HW1 2524  10.606  14.105   4.281
66895SOL    HW2 2525  10.607  14.256   4.271
66896SOL     OW 2526   8.211  12.498   8.993
66896SOL    HW1 2527   8.151  12.546   9.050
66896SOL    HW2 2528   8.293  12.495   9.043
66897SOL     OW 2529   1.362   0.293   4.212
66897SOL    HW1 2530   1.308   0.214   4.211
66897SOL    HW2 2531   1.346   0.332   4.298
66898SOL     OW 2532   0.053  13.517   5.434
66898SOL    HW1 2533   0.030  13.593   5.380
66898SOL    HW2 2534   0.032  13.442   5.379
66899SOL     OW 2535   2.158   5.103   8.888
66899SOL    HW1 2536   2.094   5.032   8.877
66899SOL    HW2 2537   2.107   5.175   8.926
66900SOL     OW 2538   7.576   4.061  10.126
66900SOL    HW1 2539   7.493   4.046  10.171
66900SOL    HW2 2540   7.567   4.015  10.043
66901SOL     OW 2541   5.908   7.302  12.850
66901SOL    HW1 2542   6.002   7.312  12.865
66901SOL    HW2 2543   5.895   7.327  12.759
66902SOL     OW 2544   0.032  11.003  10.838
66902SOL    HW1 2545   0.036  10.984  10.931
66902SOL    HW2 2546   0.100  11.068  10.823
66903SOL     OW 2547   5.685  11.503  12.446
66903SOL    HW1 2548   5.762  11.513  12.501
66903SOL    HW2 2549   5.626  11.573  12.473
66904SOL     OW 2550  14.486   2.486  12.877
66904SOL    HW1 2551  14.447   2.472  12.964
66904SOL    HW2 2552  14.546   2.413  12.866
66905SOL     OW 2553  12.660   6.312   4.987
66905SOL    HW1 2554  12.574   6.280   5.014
66905SOL    HW2 2555  12.721   6.265   5.043
66906SOL     OW 2556  12.852   7.554   1.599
66906SOL    HW1 2557  12.841   7.460   1.614
66906SOL    HW2 2558  12.856   7.563   1.504
66907SOL     OW 2559   4.253  14.007   3.641
66907SOL    HW1 2560   4.211  14.052   3.715
66907SOL    HW2 2561   4.208  14.041   3.564
66908SOL     OW 2562   6.477  12.289   2.821
66908SOL    HW1 2563   6.481  12.381   2.796
66908SOL    HW2 2564   6.385  12.265   2.808
66909SOL     OW 2565  13.762   6.514   4.276
66909SOL    HW1 2566  13.677   6.525   4.317
66909SOL    HW2 2567  13.825   6.540   4.344
66910SOL     OW 2568  13.690  11.602  11.675
66910SOL    HW1 2569  13.659  11.542  11.744
66910SOL    HW2 2570  13.696  11.547  11.597
66911SOL     OW 2571   5.152   8.918   6.980
66911SOL    HW1 2572   5.209   8.843   6.964
66911SOL    HW2 2573   5.064   8.887   6.959
66912SOL     OW 2574  12.258   8.481   4.350
66912SOL    HW1 2575  12.252   8.399   4.399
66912SOL    HW2 2576  12.352   8.495   4.338
66913SOL     OW 2577  10.608   0.264   1.551
66913SOL    HW1 2578  10.684   0.318   1.570
66913SOL    HW2 2579  10.589   0.218   1.633
66914SOL     OW 2580   3.569  10.894   9.334
66914SOL    HW1 2581   3.592  10.974   9.382
66914SOL    HW2 2582   3.541  10.925   9.248
66915SOL     OW 2583   5.777  13.501   8.425
66915SOL    HW1 2584   5.691  13.527   8.460
66915SOL    HW2 2585   5.807  13.432   8.484
66916SOL     OW 2586  12.195   3.356  10.685
66916SOL    HW1 2587  12.216   3.412  10.760
66916SOL    HW2 2588  12.130   3.295  10.719
66917SOL     OW 2589  13.988   6.392   0.954
66917SOL    HW1 2590  13.966   6.476   0.994
66917SOL    HW2 2591  13.957   6.327   1.017
66918SOL     OW 2592   8.028   7.378   2.987
66918SOL    HW1 2593   8.084   7.442   3.032
66918SOL    HW2 2594   8.085   7.302   2.973
66919SOL     OW 2595   3.571  13.990  14.493
66919SOL    HW1 2596   3.550  14.067  14.440
66919SOL    HW2 2597   3.497  13.931  14.482
66920SOL     OW 2598  12.407   4.446  12.653
66920SOL    HW1 2599  12.400   4.494  12.736
66920SOL    HW2 2600  12.423   4.513  12.588
66921SOL     OW 2601   3.593   6.890   0.751
66921SOL    HW1 2602   3.611   6.951   0.680
66921SOL    HW2 2603   3.551   6.943   0.819
66922SOL     OW 2604   0.977   0.365  12.911
66922SOL    HW1 2605   0.994   0.340  13.002
66922SOL    HW2 2606   0.959   0.459  12.915
66923SOL     OW 2607   7.685   1.281   2.154
66923SOL    HW1 2608   7.675   1.317   2.066
66923SOL    HW2 2609   7.776   1.254   2.159
66924SOL     OW 2610   6.327   1.306   6.568
66924SOL    HW1 2611   6.260   1.252   6.608
66924SOL    HW2 2612   6.410   1.266   6.595
66925SOL     OW 2613   8.427  14.494  12.417
66925SOL    HW1 2614   8.502  14.552  12.408
66925SOL    HW2 2615   8.356  14.551  12.445
66926SOL     OW 2616   4.338   8.396   6.421
66926SOL    HW1 2617   4.369   8.344   6.495
66926SOL    HW2 2618   4.350   8.339   6.345
66927SOL     OW 2619   5.587   6.703   4.456
66927SOL    HW1 2620   5.665   6.652   4.475
66927SOL    HW2 2621   5.516   6.654   4.497
66928SOL     OW 2622   8.597  11.232   4.072
66928SOL    HW1 2623   8.556  11.317   4.054
66928SOL    HW2 2624   8.545  11.196   4.145
66929SOL     OW 2625   7.175   6.302   8.153
66929SOL    HW1 2626   7.180   6.397   8.164
66929SOL    HW2 2627   7.170   6.288   8.059
66930SOL     OW 2628  10.256  10.065   7.390
66930SOL    HW1 2629  10.193  10.006   7.347
66930SOL    HW2 2630  10.223  10.153   7.371
66931SOL     OW 2631   9.662   2.098   5.650
66931SOL    HW1 2632   9.716   2.037   5.699
66931SOL    HW2 2633   9.704   2.104   5.564
66932SOL     OW 2634   2.388   6.828   4.547
66932SOL    HW1 2635   2.311   6.826   4.491
66932SOL    HW2 2636   2.354   6.840   4.635
66933SOL     OW 2637   7.643   2.258  10.982
66933SOL    HW1 2638   7.730   2.228  10.958
66933SOL    HW2 2639   7.605   2.185  11.031
66934SOL     OW 2640  11.839   6.674   5.470
66934SOL    HW1 2641  11.753   6.716   5.470
66934SOL    HW2 2642  11.825   6.592   5.518
66935SOL     OW 2643   5.070   6.153   0.117
66935SOL    HW1 2644   5.069   6.189   0.206
66935SOL    HW2 2645   5.003   6.085   0.118
66936SOL     OW 2646   1.191   7.017  11.804
66936SOL    HW1 2647   1.273   7.066  11.811
66936SOL    HW2 2648   1.155   7.044  11.719
66937SOL     OW 2649   0.018  13.394   0.330
66937SOL    HW1 2650   0.048  13.328   0.392
66937SOL    HW2 2651  14.865  13.344   0.255
66938SOL     OW 2652   0.178   5.746   4.113
66938SOL    HW1 2653   0.176   5.654   4.140
66938SOL    HW2 2654   0.132   5.793   4.184
66939SOL     OW 2655   7.539  13.388   7.989
66939SOL    HW1 2656   7.598  13.326   7.946
66939SOL    HW2 2657   7.478  13.334   8.039
66940SOL     OW 2658  10.117   0.792   3.092
66940SOL    HW1 2659  10.167   0.747   3.160
66940SOL    HW2 2660  10.122   0.734   3.016
66941SOL     OW 2661   7.371   2.479  13.530
66941SOL    HW1 2662   7.378   2.436  13.615
66941SOL    HW2 2663   7.366   2.572  13.550
66942SOL     OW 2664   4.125   3.190   9.772
66942SOL    HW1 2665   4.120   3.286   9.765
66942SOL    HW2 2666   4.133   3.173   9.865
66943SOL     OW 2667   0.541  10.570   6.432
66943SOL    HW1 2668   0.485  10.496   6.456
66943SOL    HW2 2669   0.490  10.647   6.457
66944SOL     OW 2670  14.417   5.936   9.468
66944SOL    HW1 2671  14.384   6.008   9.521
66944SOL    HW2 2672  14.488   5.898   9.520
66945SOL     OW 2673   0.122   2.278  11.120
66945SOL    HW1 2674   0.054   2.275  11.187
66945SOL    HW2 2675   0.082   2.325  11.047
66946SOL     OW 2676  12.104   4.734   6.649
66946SOL    HW1 2677  12.179   4.695   6.695
66946SOL    HW2 2678  12.142   4.804   6.596
66947SOL     OW 2679   9.102   8.309  12.038
66947SOL    HW1 2680   9.116   8.397  12.073
66947SOL    HW2 2681   9.145   8.251  12.101
66948SOL     OW 2682   0.599  11.692   4.776
66948SOL    HW1 2683   0.592  11.650   4.862
66948SOL    HW2 2684   0.585  11.621   4.714
66949SOL     OW 2685   3.438   7.415   5.601
66949SOL    HW1 2686   3.506   7.460   5.651
66949SOL    HW2 2687   3.378   7.380   5.667
66950SOL     OW 2688   6.164   1.112  11.053
66950SOL    HW1 2689   6.224   1.183  11.079
66950SOL    HW2 2690   6.096   1.156  11.003
66951SOL     OW 2691   4.256   8.358   2.335
66951SOL    HW1 2692   4.178   8.335   2.285
66951SOL    HW2 2693   4.262   8.292   2.404
66952SOL     OW 2694   8.556  11.416  12.835
66952SOL    HW1 2695   8.554  11.428  12.930
66952SOL    HW2 2696   8.528  11.501  12.799
66953SOL     OW 2697  12.584  11.250  11.638
66953SOL    HW1 2698  12.668  11.210  11.616
66953SOL    HW2 2699  12.595  11.281  11.728
66954SOL     OW 2700   0.026  12.500   3.785
66954SOL    HW1 2701  14.869  12.586   3.805
66954SOL    HW2 2702  14.876  12.444   3.857
66955SOL     OW 2703   0.953   6.426   8.391
66955SOL    HW1 2704   0.923   6.427   8.300
66955SOL    HW2 2705   0.936   6.337   8.421
66956SOL     OW 2706   4.276   0.899  12.539
66956SOL    HW1 2707   4.196   0.932  12.580
66956SOL    HW2 2708   4.248   0.820  12.492
66957SOL     OW 2709   4.487   6.593   2.409
66957SOL    HW1 2710   4.580   6.585   2.386
66957SOL    HW2 2711   4.440   6.578   2.327
66958SOL     OW 2712  11.015  11.809   1.711
66958SOL    HW1 2713  10.988  11.901   1.707
66958SOL    HW2 2714  11.071  11.797   1.635
66959SOL     OW 2715   1.653  11.521  14.487
66959SOL    HW1 2716   1.622  11.611  14.484
66959SOL    HW2 2717   1.746  11.527  14.462
66960SOL     OW 2718   6.645   5.363   6.011
66960SOL    HW1 2719   6.687   5.435   5.964
66960SOL    HW2 2720   6.641   5.393   6.102
66961SOL     OW 2721  13.618   2.832  11.707
66961SOL    HW1 2722  13.656   2.919  11.713
66961SOL    HW2 2723  13.528   2.847  11.676
66962SOL     OW 2724   7.515  14.271   6.607
66962SOL    HW1 2725   7.536  14.364   6.612
66962SOL    HW2 2726   7.480  14.258   6.519
66963SOL     OW 2727  10.555   2.591  12.413
66963SOL    HW1 2728  10.463   2.607  12.394
66963SOL    HW2 2729  10.555   2.547  12.498
66964SOL     OW 2730   4.868   4.883   1.573
66964SOL    HW1 2731   4.902   4.804   1.530
66964SOL    HW2 2732   4.843   4.854   1.660
66965SOL     OW 2733   4.716  11.974  10.191
66965SOL    HW1 2734   4.649  11.931  10.137
66965SOL    HW2 2735   4.789  11.913  10.192
66966SOL     OW 2736   7.973   5.671  14.656
66966SOL    HW1 2737   8.014   5.631  14.579
66966SOL    HW2 2738   7.980   5.765  14.641
66967SOL     OW 2739  12.919   6.980   3.046
66967SOL    HW1 2740  12.905   6.889   3.070
66967SOL    HW2 2741  12.902   7.029   3.126
66968SOL     OW 2742   8.869  12.982  11.871
66968SOL    HW1 2743   8.918  13.008  11.949
66968SOL    HW2 2744   8.861  12.887  11.879
66969SOL     OW 2745  13.841   2.689   1.109
66969SOL    HW1 2746  13.791   2.613   1.139
66969SOL    HW2 2747  13.774   2.749   1.074
66970SOL     OW 2748  10.123   9.833   7.928
66970SOL    HW1 2749  10.057   9.850   7.861
66970SOL    HW2 2750  10.147   9.741   7.916
66971SOL     OW 2751   8.446  12.954  10.020
66971SOL    HW1 2752   8.362  12.990   9.991
66971SOL    HW2 2753   8.447  12.971  10.114
66972SOL     OW 2754   6.115   5.347   0.343
66972SOL    HW1 2755   6.071   5.332   0.427
66972SOL    HW2 2756   6.208   5.340   0.362
66973SOL     OW 2757  10.068   1.985   9.459
66973SOL    HW1 2758  10.152   1.948   9.432
66973SOL    HW2 2759  10.080   2.010   9.550
66974SOL     OW 2760  11.580   0.876  14.247
66974SOL    HW1 2761  11.591   0.836  14.333
66974SOL    HW2 2762  11.532   0.810  14.196
66975SOL     OW 2763   7.064   4.634  10.782
66975SOL    HW1 2764   7.131   4.665  10.843
66975SOL    HW2 2765   6.986   4.686  10.804
66976SOL     OW 2766  11.857  11.841  12.176
66976SOL    HW1 2767  11.767  11.816  12.196
66976SOL    HW2 2768  11.876  11.797  12.093
66977SOL     OW 2769  11.055   3.491   7.428
66977SOL    HW1 2770  10.988   3.513   7.492
66977SOL    HW2 2771  11.016   3.514   7.343
66978SOL     OW 2772   9.774   2.560   9.605
66978SOL    HW1 2773   9.796   2.637   9.553
66978SOL    HW2 2774   9.679   2.560   9.610
66979SOL     OW 2775   3.574  10.863   2.715
66979SOL    HW1 2776   3.628  10.894   2.787
66979SOL    HW2 2777   3.598  10.919   2.640
66980SOL     OW 2778   7.744   8.007   4.493
66980SOL    HW1 2779   7.653   7.998   4.520
66980SOL    HW2 2780   7.792   7.946   4.549
66981SOL     OW 2781  13.243   9.913   2.002
66981SOL    HW1 2782  13.204   9.993   2.037
66981SOL    HW2 2783  13.333   9.914   2.034
66982SOL     OW 2784   7.032   1.115  10.255
66982SOL    HW1 2785   7.034   1.113  10.351
66982SOL    HW2 2786   7.080   1.036  10.229
66983SOL     OW 2787   4.171   0.649   1.640
66983SOL    HW1 2788   4.206   0.640   1.729
66983SOL    HW2 2789   4.159   0.744   1.629
66984SOL     OW 2790  13.360   2.120  12.802
66984SOL    HW1 2791  13.451   2.142  12.782
66984SOL    HW2 2792  13.312   2.203  12.791
66985SOL     OW 2793  14.047   3.501  10.452
66985SOL    HW1 2794  14.042   3.407  10.438
66985SOL    HW2 2795  14.025   3.514  10.544
66986SOL     OW 2796   7.205  11.757   9.404
66986SOL    HW1 2797   7.123  11.726   9.364
66986SOL    HW2 2798   7.240  11.819   9.341
66987SOL     OW 2799   8.608   6.251   5.905
66987SOL    HW1 2800   8.654   6.171   5.879
66987SOL    HW2 2801   8.516   6.230   5.891
66988SOL     OW 2802   7.477  10.105   8.670
66988SOL    HW1 2803   7.431  10.189   8.666
66988SOL    HW2 2804   7.423  10.050   8.725
66989SOL     OW 2805   6.833  14.055   4.296
66989SOL    HW1 2806   6.904  13.991   4.294
66989SOL    HW2 2807   6.860  14.122   4.233
66990SOL     OW 2808   5.587  12.875   7.294
66990SOL    HW1 2809   5.531  12.804   7.326
66990SOL    HW2 2810   5.551  12.954   7.334
66991SOL     OW 2811   3.794  10.002  14.577
66991SOL    HW1 2812   3.717  10.025  14.628
66991SOL    HW2 2813   3.836  10.085  14.558
66992SOL     OW 2814   5.186  14.001   3.104
66992SOL    HW1 2815   5.197  14.094   3.127
66992SOL    HW2 2816   5.244  13.955   3.164
66993SOL     OW 2817   9.342  10.811  10.959
66993SOL    HW1 2818   9.300  10.894  10.936
66993SOL    HW2 2819   9.410  10.836  11.022
66994SOL     OW 2820   2.917   1.940   3.053
66994SOL    HW1 2821   2.850   1.951   3.120
66994SOL    HW2 2822   2.932   2.028   3.019
66995SOL     OW 2823  10.021  12.194   4.532
66995SOL    HW1 2824   9.929  12.186   4.508
66995SOL    HW2 2825  10.042  12.112   4.576
66996SOL     OW 2826   0.702   1.887  12.747
66996SOL    HW1 2827   0.694   1.820  12.815
66996SOL    HW2 2828   0.699   1.838  12.664
66997SOL     OW 2829  14.116   2.356   3.442
66997SOL    HW1 2830  14.180   2.301   3.487
66997SOL    HW2 2831  14.160   2.385   3.362
66998SOL     OW 2832  12.353   3.989  12.944
66998SOL    HW1 2833  12.335   4.079  12.917
66998SOL    HW2 2834  12.369   3.995  13.039
66999SOL     OW 2835   5.495   5.314  11.062
66999SOL    HW1 2836   5.450   5.351  11.137
66999SOL    HW2 2837   5.426   5.273  11.010
67000SOL     OW 2838   7.591   3.664  13.960
67000SOL    HW1 2839   7.555   3.708  13.883
67000SOL    HW2 2840   7.515   3.624  14.003
67001SOL     OW 2841   0.795   3.721  12.106
67001SOL    HW1 2842   0.726   3.665  12.143
67001SOL    HW2 2843   0.872   3.704  12.161
67002SOL     OW 2844   7.649   6.689   8.407
67002SOL    HW1 2845   7.647   6.777   8.369
67002SOL    HW2 2846   7.740   6.678   8.436
67003SOL     OW 2847  13.534   3.172  13.846
67003SOL    HW1 2848  13.474   3.219  13.904
67003SOL    HW2 2849  13.621   3.198  13.876
67004SOL     OW 2850  12.923   9.316  14.140
67004SOL    HW1 2851  12.923   9.392  14.082
67004SOL    HW2 2852  12.927   9.241  14.082
67005SOL     OW 2853  12.818  10.599  11.810
67005SOL    HW1 2854  12.723  10.612  11.802
67005SOL    HW2 2855  12.840  10.540  11.739
67006SOL     OW 2856  13.803   5.800   7.924
67006SOL    HW1 2857  13.877   5.778   7.867
67006SOL    HW2 2858  13.842   5.851   7.995
67007SOL     OW 2859  11.244   3.409   4.564
67007SOL    HW1 2860  11.215   3.341   4.503
67007SOL    HW2 2861  11.266   3.484   4.509
67008SOL     OW 2862   5.691   6.644   1.783
67008SOL    HW1 2863   5.653   6.560   1.808
67008SOL    HW2 2864   5.641   6.671   1.706
67009SOL     OW 2865   1.026   9.352  12.888
67009SOL    HW1 2866   1.076   9.274  12.864
67009SOL    HW2 2867   0.981   9.328  12.969
67010SOL     OW 2868   6.854   2.280  12.998
67010SOL    HW1 2869   6.947   2.256  13.009
67010SOL    HW2 2870   6.808   2.196  13.003
67011SOL     OW 2871   2.382  14.302   3.901
67011SOL    HW1 2872   2.300  14.346   3.883
67011SOL    HW2 2873   2.391  14.306   3.996
67012SOL     OW 2874   7.446   1.357   3.109
67012SOL    HW1 2875   7.479   1.275   3.146
67012SOL    HW2 2876   7.509   1.379   3.040
67013SOL     OW 2877   6.104   8.559   1.928
67013SOL    HW1 2878   6.083   8.513   1.847
67013SOL    HW2 2879   6.027   8.614   1.944
67014SOL     OW 2880   2.456   5.241  14.475
67014SOL    HW1 2881   2.448   5.279  14.388
67014SOL    HW2 2882   2.423   5.308  14.534
67015SOL     OW 2883   5.969   8.650   3.060
67015SOL    HW1 2884   5.889   8.611   3.094
67015SOL    HW2 2885   5.954   8.745   3.066
67016SOL     OW 2886   6.861   8.989   1.874
67016SOL    HW1 2887   6.851   8.896   1.895
67016SOL    HW2 2888   6.807   9.001   1.795
67017SOL     OW 2889   0.059  14.299   7.540
67017SOL    HW1 2890   0.128  14.365   7.532
67017SOL    HW2 2891  14.871  14.340   7.594
67018SOL     OW 2892   6.166   1.870  12.728
67018SOL    HW1 2893   6.131   1.921  12.801
67018SOL    HW2 2894   6.178   1.782  12.764
67019SOL     OW 2895   6.434   8.344   5.664
67019SOL    HW1 2896   6.476   8.361   5.748
67019SOL    HW2 2897   6.443   8.427   5.616
67020SOL     OW 2898   0.695   4.640  13.368
67020SOL    HW1 2899   0.649   4.679  13.442
67020SOL    HW2 2900   0.632   4.581  13.328
67021SOL     OW 2901   1.964   3.625   6.269
67021SOL    HW1 2902   1.952   3.668   6.354
67021SOL    HW2 2903   2.048   3.659   6.237
67022SOL     OW 2904   9.465   2.407  14.522
67022SOL    HW1 2905   9.525   2.481  14.527
67022SOL    HW2 2906   9.521   2.330  14.527
67023SOL     OW 2907   2.753  10.752   6.371
67023SOL    HW1 2908   2.801  10.697   6.310
67023SOL    HW2 2909   2.773  10.716   6.458
67024SOL     OW 2910   7.628   5.652  13.356
67024SOL    HW1 2911   7.545   5.638  13.402
67024SOL    HW2 2912   7.601   5.677  13.267
67025SOL     OW 2913  13.378   1.542   6.825
67025SOL    HW1 2914  13.310   1.534   6.758
67025SOL    HW2 2915  13.456   1.504   6.785
67026SOL     OW 2916   8.529  12.585   0.463
67026SOL    HW1 2917   8.536  12.523   0.536
67026SOL    HW2 2918   8.470  12.542   0.402
67027SOL     OW 2919   7.107   4.138  10.920
67027SOL    HW1 2920   7.124   4.231  10.932
67027SOL    HW2 2921   7.192   4.095  10.937
67028SOL     OW 2922   1.668   7.722   1.890
67028SOL    HW1 2923   1.656   7.697   1.981
67028SOL    HW2 2924   1.682   7.640   1.843
67029SOL     OW 2925   1.054   7.173   7.324
67029SOL    HW1 2926   1.005   7.156   7.404
67029SOL    HW2 2927   0.988   7.187   7.257
67030SOL     OW 2928  11.167   8.983  12.729
67030SOL    HW1 2929  11.145   9.066  12.687
67030SOL    HW2 2930  11.222   9.007  12.803
67031SOL     OW 2931   3.811   5.036   8.054
67031SOL    HW1 2932   3.723   5.049   8.020
67031SOL    HW2 2933   3.868   5.041   7.977
67032SOL     OW 2934   2.471   9.147  14.794
67032SOL    HW1 2935   2.512   9.208  14.733
67032SOL    HW2 2936   2.452   9.199  14.872
67033SOL     OW 2937   1.017  10.477  10.166
67033SOL    HW1 2938   1.068  10.416  10.113
67033SOL    HW2 2939   0.926  10.452  10.152
67034SOL     OW 2940  11.935   1.950   9.083
67034SOL    HW1 2941  11.947   1.899   9.163
67034SOL    HW2 2942  11.987   2.029   9.096
67035SOL     OW 2943   6.578   5.650   6.904
67035SOL    HW1 2944   6.544   5.730   6.943
67035SOL    HW2 2945   6.671   5.667   6.891
67036SOL     OW 2946  11.179   5.423  14.844
67036SOL    HW1 2947  11.096   5.378  14.858
67036SOL    HW2 2948  11.213   5.439   0.053
67037SOL     OW 2949   2.147  13.744   3.903
67037SOL    HW1 2950   2.229  13.752   3.952
67037SOL    HW2 2951   2.085  13.710   3.967
67038SOL     OW 2952   9.649  13.608  13.155
67038SOL    HW1 2953   9.714  13.539  13.172
67038SOL    HW2 2954   9.701  13.684  13.129
67039SOL     OW 2955  13.683  12.917   7.692
67039SOL    HW1 2956  13.702  13.006   7.661
67039SOL    HW2 2957  13.763  12.868   7.674
67040SOL     OW 2958   0.174  12.775   6.243
67040SOL    HW1 2959   0.097  12.832   6.238
67040SOL    HW2 2960   0.192  12.768   6.336
67041SOL     OW 2961   8.755   1.215  13.557
67041SOL    HW1 2962   8.793   1.278  13.497
67041SOL    HW2 2963   8.748   1.262  13.641
67042SOL     OW 2964   7.513  10.964   5.096
67042SOL    HW1 2965   7.429  10.974   5.140
67042SOL    HW2 2966   7.564  10.906   5.153
67043SOL     OW 2967   6.940  13.455   8.793
67043SOL    HW1 2968   6.912  13.445   8.702
67043SOL    HW2 2969   6.862  13.489   8.838
67044SOL     OW 2970  12.580   0.344  10.686
67044SOL    HW1 2971  12.597   0.397  10.609
67044SOL    HW2 2972  12.506   0.387  10.729
67045SOL     OW 2973   3.196   4.280  12.713
67045SOL    HW1 2974   3.281   4.317  12.739
67045SOL    HW2 2975   3.149   4.352  12.671
67046SOL     OW 2976   1.756  11.388   7.587
67046SOL    HW1 2977   1.835  11.345   7.620
67046SOL    HW2 2978   1.684  11.333   7.618
67047SOL     OW 2979   8.076   4.605   0.900
67047SOL    HW1 2980   8.156   4.625   0.852
67047SOL    HW2 2981   8.010   4.661   0.861
67048SOL     OW 2982   7.154  11.157   4.071
67048SOL    HW1 2983   7.165  11.197   3.985
67048SOL    HW2 2984   7.210  11.209   4.129
67049SOL     OW 2985   2.101   0.820   8.895
67049SOL    HW1 2986   2.013   0.823   8.857
67049SOL    HW2 2987   2.111   0.730   8.926
67050SOL     OW 2988   7.344  13.269  14.803
67050SOL    HW1 2989   7.363  13.363  14.799
67050SOL    HW2 2990   7.257  13.264  14.844
67051SOL     OW 2991   1.842  14.478  14.653
67051SOL    HW1 2992   1.892  14.559  14.666
67051SOL    HW2 2993   1.769  14.485  14.714
67052SOL     OW 2994   1.741   1.487   1.529
67052SOL    HW1 2995   1.766   1.462   1.440
67052SOL    HW2 2996   1.649   1.511   1.523
67053SOL     OW 2997   2.638   0.183   5.956
67053SOL    HW1 2998   2.554   0.181   5.909
67053SOL    HW2 2999   2.663   0.275   5.956
67054SOL     OW 3000   9.403   5.482  10.624
67054SOL    HW1 3001   9.332   5.525  10.672
67054SOL    HW2 3002   9.360   5.440  10.550
67055SOL     OW 3003   8.182  12.319   5.056
67055SOL    HW1 3004   8.201  12.280   5.141
67055SOL    HW2 3005   8.206  12.411   5.065
67056SOL     OW 3006  13.745  11.953   5.373
67056SOL    HW1 3007  13.653  11.969   5.393
67056SOL    HW2 3008  13.752  11.858   5.366
67057SOL     OW 3009   6.916   2.300   4.636
67057SOL    HW1 3010   6.889   2.338   4.720
67057SOL    HW2 3011   6.865   2.348   4.571
67058SOL     OW 3012  11.809  14.206  13.204
67058SOL    HW1 3013  11.749  14.149  13.252
67058SOL    HW2 3014  11.805  14.174  13.113
67059SOL     OW 3015   6.347   1.054   4.090
67059SOL    HW1 3016   6.257   1.024   4.076
67059SOL    HW2 3017   6.338   1.133   4.142
67060SOL     OW 3018   4.620  10.169   3.626
67060SOL    HW1 3019   4.558  10.234   3.659
67060SOL    HW2 3020   4.638  10.113   3.701
67061SOL     OW 3021   4.682  11.168   2.543
67061SOL    HW1 3022   4.663  11.116   2.621
67061SOL    HW2 3023   4.765  11.211   2.562
67062SOL     OW 3024  14.797   8.183   0.853
67062SOL    HW1 3025  14.781   8.273   0.883
67062SOL    HW2 3026   0.012   8.178   0.841
67063SOL     OW 3027  11.348   9.657   0.505
67063SOL    HW1 3028  11.409   9.698   0.444
67063SOL    HW2 3029  11.315   9.730   0.558
67064SOL     OW 3030  10.807   9.414  12.414
67064SOL    HW1 3031  10.812   9.341  12.475
67064SOL    HW2 3032  10.721   9.406  12.373
67065SOL     OW 3033   3.725   1.459   2.935
67065SOL    HW1 3034   3.677   1.473   3.017
67065SOL    HW2 3035   3.682   1.383   2.895
67066SOL     OW 3036  11.512   0.864   9.841
67066SOL    HW1 3037  11.457   0.930   9.882
67066SOL    HW2 3038  11.529   0.899   9.753
67067SOL     OW 3039   3.627  12.477   4.252
67067SOL    HW1 3040   3.591  12.431   4.177
67067SOL    HW2 3041   3.683  12.413   4.296
67068SOL     OW 3042  14.494  14.065  10.241
67068SOL    HW1 3043  14.431  14.107  10.183
67068SOL    HW2 3044  14.483  13.971  10.225
67069SOL     OW 3045   0.894  13.870   7.772
67069SOL    HW1 3046   0.815  13.863   7.718
67069SOL    HW2 3047   0.966  13.859   7.710
67070SOL     OW 3048   6.849  13.685   4.458
67070SOL    HW1 3049   6.805  13.713   4.538
67070SOL    HW2 3050   6.919  13.627   4.488
67071SOL     OW 3051   1.889   2.292  11.495
67071SOL    HW1 3052   1.968   2.316  11.543
67071SOL    HW2 3053   1.863   2.374  11.451
67072SOL     OW 3054   4.520  13.645  11.143
67072SOL    HW1 3055   4.507  13.716  11.080
67072SOL    HW2 3056   4.433  13.625  11.176
67073SOL     OW 3057   5.255  12.323   9.887
67073SOL    HW1 3058   5.257  12.227   9.898
67073SOL    HW2 3059   5.316  12.355   9.953
67074SOL     OW 3060   5.115   5.131  14.828
67074SOL    HW1 3061   5.063   5.207  14.855
67074SOL    HW2 3062   5.191   5.169  14.784
67075SOL     OW 3063  11.915  12.725   7.506
67075SOL    HW1 3064  11.886  12.796   7.449
67075SOL    HW2 3065  11.865  12.736   7.586
67076SOL     OW 3066   8.018   1.504  13.214
67076SOL    HW1 3067   8.030   1.579  13.272
67076SOL    HW2 3068   8.077   1.520  13.141
67077SOL     OW 3069   0.654   1.160   1.565
67077SOL    HW1 3070   0.655   1.179   1.658
67077SOL    HW2 3071   0.701   1.232   1.524
67078SOL     OW 3072   9.559  13.294   7.635
67078SOL    HW1 3073   9.635  13.343   7.602
67078SOL    HW2 3074   9.552  13.321   7.727
67079SOL     OW 3075   5.738   1.159   7.032
67079SOL    HW1 3076   5.683   1.214   6.976
67079SOL    HW2 3077   5.726   1.195   7.120
67080SOL     OW 3078   3.030   4.040   1.860
67080SOL    HW1 3079   3.008   4.123   1.902
67080SOL    HW2 3080   2.949   3.988   1.865
67081SOL     OW 3081  11.535   2.139   4.450
67081SOL    HW1 3082  11.492   2.194   4.384
67081SOL    HW2 3083  11.540   2.195   4.528
67082SOL     OW 3084  10.364   4.111   9.926
67082SOL    HW1 3085  10.436   4.051   9.944
67082SOL    HW2 3086  10.285   4.058   9.935
67083SOL     OW 3087  13.176   6.751  12.510
67083SOL    HW1 3088  13.259   6.728  12.468
67083SOL    HW2 3089  13.190   6.734  12.603
67084SOL     OW 3090  13.175   2.749  11.670
67084SOL    HW1 3091  13.182   2.664  11.713
67084SOL    HW2 3092  13.117   2.734  11.595
67085SOL     OW 3093   8.642   5.724   5.742
67085SOL    HW1 3094   8.709   5.709   5.809
67085SOL    HW2 3095   8.629   5.639   5.701
67086SOL     OW 3096   8.429   4.298   3.125
67086SOL    HW1 3097   8.389   4.339   3.202
67086SOL    HW2 3098   8.507   4.254   3.159
67087SOL     OW 3099   7.208   0.117  12.219
67087SOL    HW1 3100   7.143   0.122  12.289
67087SOL    HW2 3101   7.291   0.138  12.262
67088SOL     OW 3102  13.946  14.667   5.618
67088SOL    HW1 3103  13.930  14.573   5.611
67088SOL    HW2 3104  13.930  14.687   5.710
67089SOL     OW 3105  10.401   9.219  11.283
67089SOL    HW1 3106  10.388   9.171  11.365
67089SOL    HW2 3107  10.465   9.286  11.305
67090SOL     OW 3108   2.071   6.034   2.254
67090SOL    HW1 3109   2.159   6.049   2.287
67090SOL    HW2 3110   2.023   5.998   2.328
67091SOL     OW 3111   5.368   4.490   7.617
67091SOL    HW1 3112   5.390   4.485   7.711
67091SOL    HW2 3113   5.280   4.528   7.615
67092SOL     OW 3114   0.213   4.472   1.414
67092SOL    HW1 3115   0.132   4.515   1.441
67092SOL    HW2 3116   0.245   4.429   1.493
67093SOL     OW 3117   9.855   8.957   6.733
67093SOL    HW1 3118   9.831   9.011   6.658
67093SOL    HW2 3119   9.791   8.886   6.733
67094SOL     OW 3120   3.137   7.347   0.540
67094SOL    HW1 3121   3.129   7.441   0.557
67094SOL    HW2 3122   3.099   7.305   0.618
67095SOL     OW 3123   2.366   6.947   7.435
67095SOL    HW1 3124   2.455   6.919   7.411
67095SOL    HW2 3125   2.336   6.879   7.496
67096SOL     OW 3126  10.143   4.601   3.973
67096SOL    HW1 3127  10.220   4.656   3.954
67096SOL    HW2 3128  10.092   4.651   4.036
67097SOL     OW 3129   1.949  10.227   7.696
67097SOL    HW1 3130   1.948  10.284   7.619
67097SOL    HW2 3131   1.908  10.145   7.666
67098SOL     OW 3132   2.778   2.943   2.560
67098SOL    HW1 3133   2.835   2.938   2.483
67098SOL    HW2 3134   2.784   3.035   2.588
67099SOL     OW 3135   9.770   3.482   7.319
67099SOL    HW1 3136   9.685   3.523   7.332
67099SOL    HW2 3137   9.814   3.537   7.254
67100SOL     OW 3138   4.080  12.505  12.871
67100SOL    HW1 3139   4.109  12.470  12.956
67100SOL    HW2 3140   4.008  12.565  12.893
67101SOL     OW 3141   0.459  14.088  10.438
67101SOL    HW1 3142   0.544  14.099  10.394
67101SOL    HW2 3143   0.399  14.065  10.367
67102SOL     OW 3144   2.342   2.779   4.447
67102SOL    HW1 3145   2.317   2.765   4.356
67102SOL    HW2 3146   2.426   2.825   4.441
67103SOL     OW 3147   1.932   5.936   0.924
67103SOL    HW1 3148   1.910   5.851   0.961
67103SOL    HW2 3149   1.956   5.917   0.833
67104SOL     OW 3150   1.863  13.388  10.570
67104SOL    HW1 3151   1.933  13.342  10.616
67104SOL    HW2 3152   1.868  13.478  10.602
67105SOL     OW 3153   4.809   2.410  14.785
67105SOL    HW1 3154   4.826   2.369  14.869
67105SOL    HW2 3155   4.855   2.494  14.789
67106SOL     OW 3156   2.589   7.276   9.489
67106SOL    HW1 3157   2.638   7.324   9.556
67106SOL    HW2 3158   2.569   7.342   9.422
67107SOL     OW 3159  12.272  12.621   9.753
67107SOL    HW1 3160  12.219  12.681   9.805
67107SOL    HW2 3161  12.349  12.672   9.727
67108SOL     OW 3162   5.384   7.772   4.287
67108SOL    HW1 3163   5.397   7.810   4.373
67108SOL    HW2 3164   5.339   7.840   4.237
67109SOL     OW 3165   3.002  14.620   1.762
67109SOL    HW1 3166   2.983  14.660   1.847
67109SOL    HW2 3167   3.017  14.527   1.783
67110SOL     OW 3168   6.674   1.368  11.458
67110SOL    HW1 3169   6.619   1.318  11.398
67110SOL    HW2 3170   6.620   1.442  11.485
67111SOL     OW 3171   8.573   7.863   9.045
67111SOL    HW1 3172   8.570   7.768   9.033
67111SOL    HW2 3173   8.666   7.882   9.058
67112SOL     OW 3174   0.743  11.276   0.377
67112SOL    HW1 3175   0.737  11.209   0.309
67112SOL    HW2 3176   0.652  11.303   0.392
67113SOL     OW 3177  10.326   2.040   3.544
67113SOL    HW1 3178  10.291   1.979   3.479
67113SOL    HW2 3179  10.328   1.990   3.625
67114SOL     OW 3180  12.077   2.033   5.452
67114SOL    HW1 3181  12.038   2.116   5.424
67114SOL    HW2 3182  12.051   2.024   5.543
67115SOL     OW 3183  10.521   2.531  14.622
67115SOL    HW1 3184  10.518   2.526  14.718
67115SOL    HW2 3185  10.430   2.538  14.596
67116SOL     OW 3186   1.553   7.532   1.210
67116SOL    HW1 3187   1.512   7.619   1.205
67116SOL    HW2 3188   1.513   7.482   1.140
67117SOL     OW 3189   9.605   5.534   2.400
67117SOL    HW1 3190   9.598   5.625   2.426
67117SOL    HW2 3191   9.521   5.495   2.424
67118SOL     OW 3192  14.848   8.498   6.269
67118SOL    HW1 3193  14.838   8.455   6.184
67118SOL    HW2 3194  14.843   8.426   6.332
67119SOL     OW 3195   5.180   0.416  14.750
67119SOL    HW1 3196   5.123   0.394  14.824
67119SOL    HW2 3197   5.123   0.412  14.673
67120SOL     OW 3198   3.866   4.159   3.172
67120SOL    HW1 3199   3.890   4.157   3.080
67120SOL    HW2 3200   3.830   4.247   3.186
67121SOL     OW 3201   8.678   1.675  13.915
67121SOL    HW1 3202   8.648   1.639  13.998
67121SOL    HW2 3203   8.768   1.704  13.932
67122SOL     OW 3204   1.265  13.562   1.098
67122SOL    HW1 3205   1.286  13.577   1.190
67122SOL    HW2 3206   1.171  13.581   1.092
67123SOL     OW 3207   7.245   1.517   6.472
67123SOL    HW1 3208   7.284   1.507   6.385
67123SOL    HW2 3209   7.154   1.541   6.454
67124SOL     OW 3210   4.001  10.521   6.116
67124SOL    HW1 3211   4.040  10.602   6.149
67124SOL    HW2 3212   3.983  10.469   6.194
67125SOL     OW 3213  13.870   2.299   2.388
67125SOL    HW1 3214  13.869   2.300   2.484
67125SOL    HW2 3215  13.918   2.219   2.366
67126SOL     OW 3216  10.842  12.212   2.407
67126SOL    HW1 3217  10.855  12.306   2.422
67126SOL    HW2 3218  10.925  12.172   2.433
67127SOL     OW 3219   6.799  12.697  11.305
67127SOL    HW1 3220   6.714  12.690  11.349
67127SOL    HW2 3221   6.804  12.620  11.249
67128SOL     OW 3222  14.193   0.771   2.372
67128SOL    HW1 3223  14.206   0.795   2.463
67128SOL    HW2 3224  14.132   0.697   2.375
67129SOL     OW 3225  12.815  11.693  13.019
67129SOL    HW1 3226  12.782  11.609  13.052
67129SOL    HW2 3227  12.865  11.669  12.941
67130SOL     OW 3228  12.325  13.489   2.343
67130SOL    HW1 3229  12.315  13.535   2.426
67130SOL    HW2 3230  12.237  13.455   2.324
67131SOL     OW 3231   2.359   7.951   8.865
67131SOL    HW1 3232   2.266   7.930   8.875
67131SOL    HW2 3233   2.375   7.947   8.771
67132SOL     OW 3234  14.033  14.299   8.689
67132SOL    HW1 3235  14.075  14.248   8.620
67132SOL    HW2 3236  13.943  14.269   8.691
67133SOL     OW 3237   8.064   1.271   9.394
67133SOL    HW1 3238   8.102   1.288   9.308
67133SOL    HW2 3239   8.013   1.192   9.382
67134SOL     OW 3240   3.404   8.218   4.834
67134SOL    HW1 3241   3.388   8.160   4.908
67134SOL    HW2 3242   3.332   8.282   4.837
67135SOL     OW 3243   4.468   1.159  11.828
67135SOL    HW1 3244   4.431   1.083  11.782
67135SOL    HW2 3245   4.455   1.232  11.768
67136SOL     OW 3246   0.754   1.694  12.551
67136SOL    HW1 3247   0.708   1.628  12.501
67136SOL    HW2 3248   0.815   1.734  12.489
67137SOL     OW 3249  11.686   9.940  13.345
67137SOL    HW1 3250  11.745   9.925  13.272
67137SOL    HW2 3251  11.704   9.868  13.405
67138SOL     OW 3252   0.215   5.387   1.625
67138SOL    HW1 3253   0.248   5.452   1.563
67138SOL    HW2 3254   0.232   5.426   1.711
67139SOL     OW 3255  13.513  14.785   6.947
67139SOL    HW1 3256  13.594  14.803   6.995
67139SOL    HW2 3257  13.470  14.870   6.939
67140SOL     OW 3258   3.703   9.763   6.028
67140SOL    HW1 3259   3.758   9.703   5.979
67140SOL    HW2 3260   3.680   9.831   5.965
67141SOL     OW 3261   1.787   8.171  13.400
67141SOL    HW1 3262   1.736   8.252  13.401
67141SOL    HW2 3263   1.744   8.116  13.466
67142SOL     OW 3264  14.374   8.805   6.282
67142SOL    HW1 3265  14.392   8.843   6.368
67142SOL    HW2 3266  14.446   8.744   6.267
67143SOL     OW 3267   1.829   9.320  10.823
67143SOL    HW1 3268   1.922   9.298  10.814
67143SOL    HW2 3269   1.829   9.401  10.874
67144SOL     OW 3270  12.691  10.691   8.132
67144SOL    HW1 3271  12.730  10.772   8.098
67144SOL    HW2 3272  12.598  10.699   8.111
67145SOL     OW 3273   7.736   8.270   0.359
67145SOL    HW1 3274   7.783   8.188   0.374
67145SOL    HW2 3275   7.778   8.308   0.282
67146SOL     OW 3276   8.380  13.173   7.497
67146SOL    HW1 3277   8.423  13.257   7.515
67146SOL    HW2 3278   8.287  13.195   7.491
67147SOL     OW 3279   7.202   6.300   3.560
67147SOL    HW1 3280   7.176   6.386   3.526
67147SOL    HW2 3281   7.139   6.239   3.520
67148SOL     OW 3282   6.819  11.342   9.140
67148SOL    HW1 3283   6.855  11.341   9.051
67148SOL    HW2 3284   6.729  11.313   9.130
67149SOL     OW 3285   0.192   9.991   0.986
67149SOL    HW1 3286   0.155   9.970   0.901
67149SOL    HW2 3287   0.215  10.084   0.980
67150SOL     OW 3288   6.597   5.205  14.091
67150SOL    HW1 3289   6.624   5.160  14.171
67150SOL    HW2 3290   6.679   5.225  14.046
67151SOL     OW 3291   2.144  12.423   2.106
67151SOL    HW1 3292   2.069  12.437   2.164
67151SOL    HW2 3293   2.214  12.392   2.163
67152SOL     OW 3294   3.319   6.243   3.020
67152SOL    HW1 3295   3.310   6.338   3.007
67152SOL    HW2 3296   3.263   6.225   3.096
67153SOL     OW 3297   4.039  10.171   4.045
67153SOL    HW1 3298   4.073  10.210   3.964
67153SOL    HW2 3299   4.014  10.246   4.099
67154SOL     OW 3300   6.342   3.843   8.561
67154SOL    HW1 3301   6.363   3.749   8.558
67154SOL    HW2 3302   6.419   3.885   8.522
67155SOL     OW 3303   4.682   1.976  12.357
67155SOL    HW1 3304   4.629   1.930  12.292
67155SOL    HW2 3305   4.766   1.930  12.356
67156SOL     OW 3306   7.876   0.525   6.120
67156SOL    HW1 3307   7.812   0.503   6.053
67156SOL    HW2 3308   7.896   0.617   6.105
67157SOL     OW 3309  11.277  10.170  11.617
67157SOL    HW1 3310  11.334  10.125  11.555
67157SOL    HW2 3311  11.188  10.154  11.583
67158SOL     OW 3312   9.463   8.752  11.493
67158SOL    HW1 3313   9.556   8.772  11.506
67158SOL    HW2 3314   9.431   8.825  11.440
67159SOL     OW 3315   7.094  14.835   8.826
67159SOL    HW1 3316   7.152  14.759   8.832
67159SOL    HW2 3317   7.036  14.827   8.902
67160SOL     OW 3318   6.917   1.000   7.451
67160SOL    HW1 3319   6.943   0.939   7.520
67160SOL    HW2 3320   6.821   0.999   7.453
67161SOL     OW 3321   9.348  12.313   9.321
67161SOL    HW1 3322   9.402  12.234   9.313
67161SOL    HW2 3323   9.288  12.294   9.393
67162SOL     OW 3324   5.831  10.638   5.314
67162SOL    HW1 3325   5.880  10.556   5.304
67162SOL    HW2 3326   5.886  10.692   5.370
67163SOL     OW 3327   4.586   9.651  14.180
67163SOL    HW1 3328   4.537   9.569  14.189
67163SOL    HW2 3329   4.626   9.645  14.093
67164SOL     OW 3330   7.057   8.401   7.393
67164SOL    HW1 3331   6.976   8.354   7.413
67164SOL    HW2 3332   7.081   8.444   7.475
67165SOL     OW 3333   3.226   1.213  10.690
67165SOL    HW1 3334   3.304   1.161  10.668
67165SOL    HW2 3335   3.160   1.182  10.628
67166SOL     OW 3336   1.162   5.056  13.786
67166SOL    HW1 3337   1.140   4.981  13.730
67166SOL    HW2 3338   1.079   5.080  13.827
67167SOL     OW 3339  13.180   5.323   3.711
67167SOL    HW1 3340  13.272   5.312   3.688
67167SOL    HW2 3341  13.169   5.418   3.725
67168SOL     OW 3342   7.920   8.207  12.966
67168SOL    HW1 3343   7.885   8.236  13.050
67168SOL    HW2 3344   8.015   8.221  12.973
67169SOL     OW 3345  13.511   0.928  10.274
67169SOL    HW1 3346  13.588   0.981  10.296
67169SOL    HW2 3347  13.505   0.865  10.346
67170SOL     OW 3348   3.061   0.507  13.295
67170SOL    HW1 3349   3.057   0.507  13.391
67170SOL    HW2 3350   3.010   0.584  13.270
67171SOL     OW 3351   2.339   4.691   0.237
67171SOL    HW1 3352   2.266   4.694   0.175
67171SOL    HW2 3353   2.302   4.652   0.316
67172SOL     OW 3354   7.411   6.891   7.926
67172SOL    HW1 3355   7.449   6.964   7.976
67172SOL    HW2 3356   7.413   6.921   7.835
67173SOL     OW 3357   5.132   6.679   1.045
67173SOL    HW1 3358   5.125   6.648   1.136
67173SOL    HW2 3359   5.180   6.762   1.052
67174SOL     OW 3360  13.046   2.105   5.089
67174SOL    HW1 3361  12.967   2.137   5.133
67174SOL    HW2 3362  13.076   2.180   5.037
67175SOL     OW 3363   6.274  12.353  10.914
67175SOL    HW1 3364   6.202  12.401  10.873
67175SOL    HW2 3365   6.330  12.420  10.952
67176SOL     OW 3366   3.927   0.843   5.396
67176SOL    HW1 3367   3.902   0.820   5.485
67176SOL    HW2 3368   3.873   0.919   5.374
67177SOL     OW 3369  12.127   0.606  12.918
67177SOL    HW1 3370  12.141   0.670  12.987
67177SOL    HW2 3371  12.175   0.641  12.843
67178SOL     OW 3372  13.366  12.455   0.215
67178SOL    HW1 3373  13.273  12.458   0.237
67178SOL    HW2 3374  13.405  12.399   0.283
67179SOL     OW 3375   2.700   3.314  13.077
67179SOL    HW1 3376   2.605   3.315  13.064
67179SOL    HW2 3377   2.730   3.399  13.046
67180SOL     OW 3378   2.762   7.212   5.951
67180SOL    HW1 3379   2.712   7.243   5.876
67180SOL    HW2 3380   2.695   7.184   6.014
67181SOL     OW 3381  14.062   9.989   3.513
67181SOL    HW1 3382  14.026   9.927   3.448
67181SOL    HW2 3383  14.049  10.075   3.473
67182SOL     OW 3384   2.129  11.500   2.899
67182SOL    HW1 3385   2.185  11.545   2.962
67182SOL    HW2 3386   2.149  11.407   2.911
67183SOL     OW 3387   3.176   3.815  13.588
67183SOL    HW1 3388   3.215   3.848  13.669
67183SOL    HW2 3389   3.096   3.772  13.616
67184SOL     OW 3390  10.291   0.774  13.127
67184SOL    HW1 3391  10.375   0.798  13.090
67184SOL    HW2 3392  10.227   0.828  13.081
67185SOL     OW 3393   5.696   8.683  11.988
67185SOL    HW1 3394   5.601   8.692  12.002
67185SOL    HW2 3395   5.736   8.717  12.067
67186SOL     OW 3396   8.630  13.327  10.746
67186SOL    HW1 3397   8.694  13.331  10.817
67186SOL    HW2 3398   8.612  13.418  10.725
67187SOL     OW 3399   4.859   9.927   1.441
67187SOL    HW1 3400   4.810   9.893   1.516
67187SOL    HW2 3401   4.920   9.857   1.418
67188SOL     OW 3402   2.633  14.312   0.384
67188SOL    HW1 3403   2.629  14.388   0.326
67188SOL    HW2 3404   2.655  14.349   0.470
67189SOL     OW 3405   8.377   7.337   5.255
67189SOL    HW1 3406   8.420   7.255   5.279
67189SOL    HW2 3407   8.435   7.405   5.289
67190SOL     OW 3408   4.258   0.084   4.989
67190SOL    HW1 3409   4.351   0.064   4.986
67190SOL    HW2 3410   4.253   0.179   4.980
67191SOL     OW 3411   6.370  12.233  13.899
67191SOL    HW1 3412   6.352  12.227  13.805
67191SOL    HW2 3413   6.460  12.266  13.904
67192SOL     OW 3414  12.105   0.919   7.552
67192SOL    HW1 3415  12.141   0.974   7.621
67192SOL    HW2 3416  12.077   0.839   7.596
67193SOL     OW 3417   0.320   9.178  13.738
67193SOL    HW1 3418   0.242   9.153  13.689
67193SOL    HW2 3419   0.361   9.095  13.762
67194SOL     OW 3420  14.109   7.955  12.943
67194SOL    HW1 3421  14.055   8.033  12.954
67194SOL    HW2 3422  14.048   7.886  12.917
67195SOL     OW 3423   6.348   7.440   1.217
67195SOL    HW1 3424   6.292   7.363   1.226
67195SOL    HW2 3425   6.343   7.484   1.302
67196SOL     OW 3426  11.231   1.400   1.546
67196SOL    HW1 3427  11.306   1.384   1.604
67196SOL    HW2 3428  11.189   1.478   1.582
67197SOL     OW 3429   2.820  14.799   6.700
67197SOL    HW1 3430   2.880  14.845   6.640
67197SOL    HW2 3431   2.874  14.782   6.778
67198SOL     OW 3432   9.689   2.067   8.790
67198SOL    HW1 3433   9.626   2.134   8.766
67198SOL    HW2 3434   9.763   2.115   8.827
67199SOL     OW 3435   6.173   6.523  12.611
67199SOL    HW1 3436   6.181   6.517  12.706
67199SOL    HW2 3437   6.081   6.544  12.596
67200SOL     OW 3438   0.389  14.645   0.091
67200SOL    HW1 3439   0.473  14.620   0.130
67200SOL    HW2 3440   0.348  14.701   0.157
67201SOL     OW 3441   4.068   5.583   7.668
67201SOL    HW1 3442   4.029   5.540   7.745
67201SOL    HW2 3443   4.008   5.654   7.648
67202SOL     OW 3444   7.350   8.402   9.436
67202SOL    HW1 3445   7.371   8.420   9.345
67202SOL    HW2 3446   7.264   8.361   9.433
67203SOL     OW 3447  14.750   3.481   8.197
67203SOL    HW1 3448  14.768   3.474   8.291
67203SOL    HW2 3449  14.763   3.573   8.177
67204SOL     OW 3450   8.499   5.187   9.412
67204SOL    HW1 3451   8.423   5.223   9.459
67204SOL    HW2 3452   8.488   5.217   9.322
67205SOL     OW 3453   4.275   9.480   0.969
67205SOL    HW1 3454   4.358   9.468   1.015
67205SOL    HW2 3455   4.299   9.493   0.878
67206SOL     OW 3456   8.473   6.713   5.047
67206SOL    HW1 3457   8.525   6.663   5.110
67206SOL    HW2 3458   8.510   6.801   5.051
67207SOL     OW 3459   3.316   5.744   2.568
67207SOL    HW1 3460   3.362   5.701   2.640
67207SOL    HW2 3461   3.375   5.813   2.539
67208SOL     OW 3462   5.866  13.698   1.928
67208SOL    HW1 3463   5.876  13.788   1.897
67208SOL    HW2 3464   5.811  13.705   2.006
67209SOL     OW 3465   0.900  12.289   3.849
67209SOL    HW1 3466   0.827  12.326   3.800
67209SOL    HW2 3467   0.892  12.327   3.937
67210SOL     OW 3468  13.619   0.366   8.743
67210SOL    HW1 3469  13.577   0.360   8.657
67210SOL    HW2 3470  13.623   0.276   8.774
67211SOL     OW 3471   0.825  12.375   7.341
67211SOL    HW1 3472   0.919  12.364   7.329
67211SOL    HW2 3473   0.786  12.315   7.278
67212SOL     OW 3474   6.780   1.131  14.809
67212SOL    HW1 3475   6.725   1.208  14.796
67212SOL    HW2 3476   6.748   1.092   0.012
67213SOL     OW 3477   4.944  14.113   9.408
67213SOL    HW1 3478   5.030  14.074   9.393
67213SOL    HW2 3479   4.914  14.139   9.321
67214SOL     OW 3480   6.750  11.359   8.030
67214SOL    HW1 3481   6.744  11.452   8.007
67214SOL    HW2 3482   6.696  11.315   7.964
67215SOL     OW 3483   2.440   8.302   3.827
67215SOL    HW1 3484   2.525   8.344   3.842
67215SOL    HW2 3485   2.462   8.217   3.788
67216SOL     OW 3486  12.714   2.547   7.836
67216SOL    HW1 3487  12.641   2.575   7.782
67216SOL    HW2 3488  12.708   2.601   7.915
67217SOL     OW 3489  11.098  14.427  13.645
67217SOL    HW1 3490  11.003  14.423  13.633
67217SOL    HW2 3491  11.111  14.497  13.709
67218SOL     OW 3492   3.790   1.611   9.141
67218SOL    HW1 3493   3.821   1.612   9.231
67218SOL    HW2 3494   3.852   1.553   9.096
67219SOL     OW 3495   6.402   5.330   9.927
67219SOL    HW1 3496   6.411   5.351   9.834
67219SOL    HW2 3497   6.446   5.246   9.937
67220SOL     OW 3498  12.105  13.614  10.808
67220SOL    HW1 3499  12.102  13.706  10.835
67220SOL    HW2 3500  12.122  13.617  10.714
67221SOL     OW 3501   4.687   5.371   2.939
67221SOL    HW1 3502   4.635   5.305   2.985
67221SOL    HW2 3503   4.771   5.327   2.922
67222SOL     OW 3504  14.827   9.307   1.481
67222SOL    HW1 3505  14.817   9.395   1.517
67222SOL    HW2 3506  14.774   9.307   1.401
67223SOL     OW 3507   8.820   8.385   0.259
67223SOL    HW1 3508   8.903   8.356   0.298
67223SOL    HW2 3509   8.845   8.456   0.200
67224SOL     OW 3510   5.379  14.243   2.818
67224SOL    HW1 3511   5.294  14.201   2.811
67224SOL    HW2 3512   5.418  14.206   2.897
67225SOL     OW 3513   4.588   2.052   4.332
67225SOL    HW1 3514   4.542   2.006   4.261
67225SOL    HW2 3515   4.532   2.039   4.409
67226SOL     OW 3516  14.788  14.200  14.166
67226SOL    HW1 3517  14.831  14.174  14.247
67226SOL    HW2 3518  14.715  14.255  14.193
67227SOL     OW 3519   0.582  13.847   2.639
67227SOL    HW1 3520   0.626  13.814   2.717
67227SOL    HW2 3521   0.509  13.787   2.625
67228SOL     OW 3522   1.054   1.409   2.336
67228SOL    HW1 3523   0.965   1.385   2.311
67228SOL    HW2 3524   1.043   1.476   2.403
67229SOL     OW 3525   0.439  11.897   3.174
67229SOL    HW1 3526   0.527  11.915   3.206
67229SOL    HW2 3527   0.424  11.963   3.107
67230SOL     OW 3528   5.841   7.653   5.981
67230SOL    HW1 3529   5.846   7.622   6.071
67230SOL    HW2 3530   5.879   7.582   5.929
67231SOL     OW 3531   2.964   1.216   1.237
67231SOL    HW1 3532   3.008   1.301   1.247
67231SOL    HW2 3533   2.958   1.204   1.142
67232SOL     OW 3534  11.706   8.565  11.879
67232SOL    HW1 3535  11.744   8.502  11.941
67232SOL    HW2 3536  11.653   8.512  11.820
67233SOL     OW 3537   4.094  10.155  13.697
67233SOL    HW1 3538   4.174  10.198  13.730
67233SOL    HW2 3539   4.026  10.180  13.760
67234SOL     OW 3540   9.502   6.724   7.190
67234SOL    HW1 3541   9.499   6.677   7.107
67234SOL    HW2 3542   9.416   6.709   7.229
67235SOL     OW 3543   0.267   9.202  11.840
67235SOL    HW1 3544   0.358   9.182  11.863
67235SOL    HW2 3545   0.216   9.160  11.910
67236SOL     OW 3546   5.764   7.566  13.724
67236SOL    HW1 3547   5.753   7.471  13.724
67236SOL    HW2 3548   5.848   7.580  13.681
67237SOL     OW 3549   3.230  12.818  11.362
67237SOL    HW1 3550   3.201  12.907  11.342
67237SOL    HW2 3551   3.163  12.784  11.422
67238SOL     OW 3552  11.076   8.076   6.233
67238SOL    HW1 3553  11.140   8.044   6.297
67238SOL    HW2 3554  10.991   8.066   6.277
67239SOL     OW 3555   4.457  14.426   7.291
67239SOL    HW1 3556   4.486  14.336   7.278
67239SOL    HW2 3557   4.398  14.443   7.217
67240SOL     OW 3558   5.503  12.612   2.083
67240SOL    HW1 3559   5.469  12.672   2.150
67240SOL    HW2 3560   5.487  12.657   2.000
67241SOL     OW 3561   4.342   5.013   9.706
67241SOL    HW1 3562   4.297   5.045   9.784
67241SOL    HW2 3563   4.272   4.991   9.645
67242SOL     OW 3564   5.853  10.820   4.781
67242SOL    HW1 3565   5.794  10.846   4.710
67242SOL    HW2 3566   5.813  10.741   4.817
67243SOL     OW 3567  10.178   1.027   4.270
67243SOL    HW1 3568  10.249   1.048   4.210
67243SOL    HW2 3569  10.201   0.941   4.306
67244SOL     OW 3570   6.931  11.721  12.992
67244SOL    HW1 3571   7.011  11.766  12.965
67244SOL    HW2 3572   6.918  11.748  13.083
67245SOL     OW 3573   0.806  13.350   2.969
67245SOL    HW1 3574   0.798  13.431   2.918
67245SOL    HW2 3575   0.900  13.332   2.969
67246SOL     OW 3576   7.166   4.786   4.928
67246SOL    HW1 3577   7.241   4.814   4.981
67246SOL    HW2 3578   7.090   4.805   4.983
67247SOL     OW 3579   4.619   6.000  11.074
67247SOL    HW1 3580   4.610   6.084  11.119
67247SOL    HW2 3581   4.704   6.006  11.029
67248SOL     OW 3582   8.900   6.343   6.851
67248SOL    HW1 3583   8.971   6.292   6.890
67248SOL    HW2 3584   8.928   6.360   6.762
67249SOL     OW 3585   0.905   5.317   6.164
67249SOL    HW1 3586   0.873   5.230   6.188
67249SOL    HW2 3587   0.874   5.329   6.074
67250SOL     OW 3588  11.328   9.284   9.196
67250SOL    HW1 3589  11.323   9.254   9.105
67250SOL    HW2 3590  11.398   9.231   9.235
67251SOL     OW 3591  11.601   1.578   1.202
67251SOL    HW1 3592  11.583   1.661   1.158
67251SOL    HW2 3593  11.523   1.525   1.188
67252SOL     OW 3594  10.932   9.597   3.298
67252SOL    HW1 3595  10.861   9.541   3.268
67252SOL    HW2 3596  10.926   9.674   3.242
67253SOL     OW 3597   3.959   9.485  13.114
67253SOL    HW1 3598   3.884   9.505  13.172
67253SOL    HW2 3599   3.935   9.403  13.072
67254SOL     OW 3600   5.928   8.336   4.813
67254SOL    HW1 3601   5.935   8.245   4.840
67254SOL    HW2 3602   5.844   8.366   4.848
67255SOL     OW 3603  12.868  11.851   9.154
67255SOL    HW1 3604  12.854  11.766   9.195
67255SOL    HW2 3605  12.920  11.833   9.076
67256SOL     OW 3606   7.078  11.566   7.530
67256SOL    HW1 3607   7.045  11.515   7.604
67256SOL    HW2 3608   7.126  11.502   7.477
67257SOL     OW 3609   6.246  11.463  13.510
67257SOL    HW1 3610   6.336  11.434  13.523
67257SOL    HW2 3611   6.232  11.456  13.416
67258SOL     OW 3612   5.334   8.347   2.291
67258SOL    HW1 3613   5.407   8.398   2.327
67258SOL    HW2 3614   5.256   8.383   2.333
67259SOL     OW 3615  12.715   9.091   4.877
67259SOL    HW1 3616  12.745   9.070   4.789
67259SOL    HW2 3617  12.745   9.181   4.892
67260SOL     OW 3618   5.100   0.712   1.039
67260SOL    HW1 3619   5.020   0.664   1.016
67260SOL    HW2 3620   5.068   0.794   1.076
67261SOL     OW 3621   7.209  14.190   9.782
67261SOL    HW1 3622   7.283  14.251   9.775
67261SOL    HW2 3623   7.225  14.126   9.712
67262SOL     OW 3624   8.052   7.612  12.493
67262SOL    HW1 3625   8.115   7.676  12.523
67262SOL    HW2 3626   8.100   7.557  12.430
67263SOL     OW 3627  14.024   0.846  14.497
67263SOL    HW1 3628  14.107   0.834  14.451
67263SOL    HW2 3629  14.036   0.800  14.580
67264SOL     OW 3630   2.164   2.531   5.838
67264SOL    HW1 3631   2.202   2.508   5.754
67264SOL    HW2 3632   2.207   2.612   5.863
67265SOL     OW 3633  11.806   5.342   7.337
67265SOL    HW1 3634  11.766   5.311   7.418
67265SOL    HW2 3635  11.753   5.303   7.267
67266SOL     OW 3636   1.738  13.892   3.692
67266SOL    HW1 3637   1.708  13.856   3.776
67266SOL    HW2 3638   1.816  13.942   3.713
67267SOL     OW 3639  13.909   8.763  14.608
67267SOL    HW1 3640  13.996   8.758  14.647
67267SOL    HW2 3641  13.866   8.836  14.652
67268SOL     OW 3642   3.610   7.955  13.063
67268SOL    HW1 3643   3.700   7.985  13.053
67268SOL    HW2 3644   3.616   7.860  13.065
67269SOL     OW 3645   7.198   0.326   9.362
67269SOL    HW1 3646   7.267   0.322   9.296
67269SOL    HW2 3647   7.241   0.301   9.443
67270SOL     OW 3648   6.976  12.888   0.512
67270SOL    HW1 3649   6.962  12.845   0.597
67270SOL    HW2 3650   6.985  12.816   0.450
67271SOL     OW 3651   3.115  11.728   2.745
67271SOL    HW1 3652   3.045  11.786   2.716
67271SOL    HW2 3653   3.149  11.769   2.825
67272SOL     OW 3654  12.158   0.319  12.134
67272SOL    HW1 3655  12.092   0.385  12.111
67272SOL    HW2 3656  12.110   0.255  12.187
67273SOL     OW 3657   3.893  12.628  10.832
67273SOL    HW1 3658   3.842  12.643  10.911
67273SOL    HW2 3659   3.833  12.646  10.760
67274SOL     OW 3660   8.001  12.418  14.065
67274SOL    HW1 3661   7.967  12.352  14.004
67274SOL    HW2 3662   8.076  12.375  14.107
67275SOL     OW 3663   9.680  13.833   9.295
67275SOL    HW1 3664   9.644  13.749   9.322
67275SOL    HW2 3665   9.663  13.891   9.369
67276SOL     OW 3666  14.377   5.734  12.124
67276SOL    HW1 3667  14.294   5.754  12.169
67276SOL    HW2 3668  14.441   5.789  12.168
67277SOL     OW 3669  13.859   7.827   5.394
67277SOL    HW1 3670  13.796   7.757   5.377
67277SOL    HW2 3671  13.832   7.863   5.478
67278SOL     OW 3672  12.837  12.607   7.810
67278SOL    HW1 3673  12.807  12.603   7.901
67278SOL    HW2 3674  12.807  12.693   7.779
67279SOL     OW 3675   6.357  10.584   7.995
67279SOL    HW1 3676   6.278  10.542   7.961
67279SOL    HW2 3677   6.400  10.620   7.917
67280SOL     OW 3678   4.381   7.472   4.072
67280SOL    HW1 3679   4.444   7.407   4.041
67280SOL    HW2 3680   4.364   7.447   4.163
67281SOL     OW 3681   5.196   2.461   8.863
67281SOL    HW1 3682   5.186   2.511   8.944
67281SOL    HW2 3683   5.236   2.378   8.891
67282SOL     OW 3684  12.670   0.362   8.219
67282SOL    HW1 3685  12.640   0.451   8.238
67282SOL    HW2 3686  12.760   0.373   8.188
67283SOL     OW 3687  11.726   2.020  14.146
67283SOL    HW1 3688  11.660   1.987  14.207
67283SOL    HW2 3689  11.759   2.100  14.187
67284SOL     OW 3690   6.104   9.201  14.423
67284SOL    HW1 3691   6.081   9.117  14.384
67284SOL    HW2 3692   6.187   9.185  14.468
67285SOL     OW 3693   0.203   4.204   2.740
67285SOL    HW1 3694   0.116   4.235   2.715
67285SOL    HW2 3695   0.192   4.171   2.830
67286SOL     OW 3696   7.919  12.538  10.003
67286SOL    HW1 3697   8.009  12.513   9.983
67286SOL    HW2 3698   7.922  12.569  10.093
67287SOL     OW 3699   9.251  14.436   4.994
67287SOL    HW1 3700   9.200  14.402   5.068
67287SOL    HW2 3701   9.289  14.517   5.027
67288SOL     OW 3702   4.153  13.306   4.306
67288SOL    HW1 3703   4.125  13.382   4.357
67288SOL    HW2 3704   4.162  13.338   4.216
67289SOL     OW 3705   8.116  12.905  13.243
67289SOL    HW1 3706   8.147  12.843  13.177
67289SOL    HW2 3707   8.138  12.991  13.208
67290SOL     OW 3708  13.757  10.970   9.882
67290SOL    HW1 3709  13.759  10.879   9.853
67290SOL    HW2 3710  13.679  11.007   9.841
67291SOL     OW 3711  13.788   9.046  12.803
67291SOL    HW1 3712  13.812   8.963  12.762
67291SOL    HW2 3713  13.821   9.113  12.742
67292SOL     OW 3714   7.923   1.905   1.817
67292SOL    HW1 3715   7.950   1.814   1.828
67292SOL    HW2 3716   7.951   1.928   1.728
67293SOL     OW 3717   0.450   4.831   7.031
67293SOL    HW1 3718   0.398   4.899   7.072
67293SOL    HW2 3719   0.483   4.778   7.104
67294SOL     OW 3720  12.801   7.572   2.600
67294SOL    HW1 3721  12.761   7.537   2.520
67294SOL    HW2 3722  12.730   7.573   2.664
67295SOL     OW 3723   0.074  10.265  10.760
67295SOL    HW1 3724   0.051  10.357  10.765
67295SOL    HW2 3725   0.073  10.245  10.666
67296SOL     OW 3726  12.638   1.610   3.141
67296SOL    HW1 3727  12.589   1.646   3.067
67296SOL    HW2 3728  12.727   1.598   3.108
67297SOL     OW 3729  11.816   5.843   0.042
67297SOL    HW1 3730  11.778   5.918   0.088
67297SOL    HW2 3731  11.747   5.777   0.043
67298SOL     OW 3732  13.993   5.610   9.316
67298SOL    HW1 3733  13.951   5.683   9.363
67298SOL    HW2 3734  14.083   5.609   9.349
67299SOL     OW 3735   9.637  12.568   8.875
67299SOL    HW1 3736   9.700  12.630   8.840
67299SOL    HW2 3737   9.666  12.483   8.843
67300SOL     OW 3738   9.752   0.567   3.197
67300SOL    HW1 3739   9.787   0.555   3.109
67300SOL    HW2 3740   9.702   0.649   3.192
67301SOL     OW 3741   8.786  12.278   2.363
67301SOL    HW1 3742   8.823  12.333   2.294
67301SOL    HW2 3743   8.826  12.192   2.350
67302SOL     OW 3744   0.391   5.819   3.753
67302SOL    HW1 3745   0.328   5.762   3.709
67302SOL    HW2 3746   0.455   5.841   3.685
67303SOL     OW 3747  13.916   8.350   1.802
67303SOL    HW1 3748  14.000   8.304   1.804
67303SOL    HW2 3749  13.938   8.442   1.791
67304SOL     OW 3750   0.260  14.005  10.234
67304SOL    HW1 3751   0.327  13.937  10.240
67304SOL    HW2 3752   0.208  13.980  10.157
67305SOL     OW 3753  12.191  10.171  10.492
67305SOL    HW1 3754  12.281  10.201  10.508
67305SOL    HW2 3755  12.158  10.231  10.425
67306SOL     OW 3756  12.535   0.865  13.052
67306SOL    HW1 3757  12.527   0.900  13.141
67306SOL    HW2 3758  12.496   0.932  12.996
67307SOL     OW 3759   6.198   9.128  13.625
67307SOL    HW1 3760   6.265   9.108  13.560
67307SOL    HW2 3761   6.247   9.136  13.707
67308SOL     OW 3762   0.006  14.322  11.575
67308SOL    HW1 3763  14.807  14.340  11.522
67308SOL    HW2 3764   0.029  14.407  11.613
67309SOL     OW 3765   9.102  10.883   1.820
67309SOL    HW1 3766   9.025  10.900   1.874
67309SOL    HW2 3767   9.077  10.914   1.733
67310SOL     OW 3768   5.538   5.553   9.923
67310SOL    HW1 3769   5.569   5.641   9.943
67310SOL    HW2 3770   5.539   5.548   9.828
67311SOL     OW 3771   3.778   0.684  14.845
67311SOL    HW1 3772   3.836   0.673  14.770
67311SOL    HW2 3773   3.698   0.723  14.809
67312SOL     OW 3774   1.006   1.602   3.361
67312SOL    HW1 3775   1.075   1.656   3.400
67312SOL    HW2 3776   0.947   1.665   3.319
67313SOL     OW 3777   4.063   0.517   3.178
67313SOL    HW1 3778   4.070   0.571   3.099
67313SOL    HW2 3779   3.990   0.458   3.161
67314SOL     OW 3780  14.562  10.537   7.795
67314SOL    HW1 3781  14.586  10.519   7.886
67314SOL    HW2 3782  14.587  10.459   7.747
67315SOL     OW 3783   9.858  12.314   6.398
67315SOL    HW1 3784   9.928  12.270   6.349
67315SOL    HW2 3785   9.897  12.334   6.483
67316SOL     OW 3786   1.134   8.280  10.529
67316SOL    HW1 3787   1.179   8.350  10.482
67316SOL    HW2 3788   1.163   8.200  10.485
67317SOL     OW 3789  12.481  13.682  13.967
67317SOL    HW1 3790  12.513  13.592  13.965
67317SOL    HW2 3791  12.552  13.735  13.931
67318SOL     OW 3792   1.609  10.412  12.183
67318SOL    HW1 3793   1.536  10.460  12.222
67318SOL    HW2 3794   1.592  10.416  12.088
67319SOL     OW 3795   6.279  12.587   3.971
67319SOL    HW1 3796   6.274  12.533   4.050
67319SOL    HW2 3797   6.323  12.531   3.907
67320SOL     OW 3798  10.043  13.703   5.638
67320SOL    HW1 3799  10.026  13.706   5.732
67320SOL    HW2 3800  10.037  13.794   5.610
67321SOL     OW 3801   6.000   0.215  14.878
67321SOL    HW1 3802   5.968   0.126   0.011
67321SOL    HW2 3803   5.978   0.236  14.788
67322SOL     OW 3804   3.592  13.950   5.410
67322SOL    HW1 3805   3.570  13.907   5.492
67322SOL    HW2 3806   3.609  13.878   5.349
67323SOL     OW 3807   6.745   9.396   0.768
67323SOL    HW1 3808   6.755   9.306   0.800
67323SOL    HW2 3809   6.787   9.449   0.835
67324SOL     OW 3810   0.584   4.993  12.402
67324SOL    HW1 3811   0.513   4.961  12.459
67324SOL    HW2 3812   0.664   4.964  12.446
67325SOL     OW 3813  13.224  11.327   6.632
67325SOL    HW1 3814  13.201  11.276   6.710
67325SOL    HW2 3815  13.282  11.269   6.582
67326SOL     OW 3816   6.934  11.493   4.957
67326SOL    HW1 3817   6.869  11.422   4.961
67326SOL    HW2 3818   6.983  11.476   4.877
67327SOL     OW 3819  12.940   9.555   6.091
67327SOL    HW1 3820  12.929   9.472   6.137
67327SOL    HW2 3821  12.859   9.603   6.108
67328SOL     OW 3822  11.712  14.235   4.696
67328SOL    HW1 3823  11.669  14.318   4.675
67328SOL    HW2 3824  11.802  14.259   4.718
67329SOL     OW 3825   8.669   1.586  14.183
67329SOL    HW1 3826   8.574   1.581  14.179
67329SOL    HW2 3827   8.689   1.603  14.275
67330SOL     OW 3828  13.704  10.536   3.185
67330SOL    HW1 3829  13.688  10.445   3.157
67330SOL    HW2 3830  13.756  10.527   3.265
67331SOL     OW 3831   2.029   2.255   5.596
67331SOL    HW1 3832   2.034   2.220   5.685
67331SOL    HW2 3833   1.935   2.263   5.579
67332SOL     OW 3834  10.033  13.632   1.361
67332SOL    HW1 3835  10.021  13.539   1.343
67332SOL    HW2 3836   9.962  13.675   1.314
67333SOL     OW 3837   5.209   8.371   4.406
67333SOL    HW1 3838   5.301   8.371   4.382
67333SOL    HW2 3839   5.162   8.365   4.323
67334SOL     OW 3840   4.010   5.573   0.453
67334SOL    HW1 3841   3.942   5.607   0.511
67334SOL    HW2 3842   3.962   5.526   0.384
67335SOL     OW 3843   9.643   8.916   2.630
67335SOL    HW1 3844   9.645   8.863   2.550
67335SOL    HW2 3845   9.675   8.858   2.699
67336SOL     OW 3846  10.828  11.037  11.018
67336SOL    HW1 3847  10.768  10.966  10.993
67336SOL    HW2 3848  10.820  11.043  11.113
67337SOL     OW 3849   2.144  14.629  14.527
67337SOL    HW1 3850   2.104  14.549  14.492
67337SOL    HW2 3851   2.149  14.688  14.452
67338SOL     OW 3852   2.198   1.523   2.572
67338SOL    HW1 3853   2.106   1.497   2.572
67338SOL    HW2 3854   2.235   1.478   2.648
67339SOL     OW 3855  11.406   7.336   9.338
67339SOL    HW1 3856  11.465   7.264   9.357
67339SOL    HW2 3857  11.463   7.407   9.308
67340SOL     OW 3858  13.628   2.037   1.965
67340SOL    HW1 3859  13.553   2.092   1.943
67340SOL    HW2 3860  13.590   1.957   2.000
67341SOL     OW 3861   6.086   0.742  12.980
67341SOL    HW1 3862   6.081   0.693  13.062
67341SOL    HW2 3863   6.167   0.793  12.987
67342SOL     OW 3864  13.904  12.795   9.845
67342SOL    HW1 3865  13.920  12.701   9.843
67342SOL    HW2 3866  13.978  12.834   9.798
67343SOL     OW 3867   8.373  10.035   8.504
67343SOL    HW1 3868   8.424  10.110   8.533
67343SOL    HW2 3869   8.401  10.020   8.414
67344SOL     OW 3870   4.797   9.249  10.050
67344SOL    HW1 3871   4.888   9.221  10.054
67344SOL    HW2 3872   4.785   9.278   9.959
67345SOL     OW 3873  11.184  10.197  14.396
67345SOL    HW1 3874  11.267  10.203  14.443
67345SOL    HW2 3875  11.162  10.288  14.375
67346SOL     OW 3876  13.229  14.599   3.532
67346SOL    HW1 3877  13.218  14.624   3.623
67346SOL    HW2 3878  13.319  14.566   3.526
67347SOL     OW 3879   2.942   4.596  10.234
67347SOL    HW1 3880   2.882   4.657  10.192
67347SOL    HW2 3881   3.007   4.652  10.277
67348SOL     OW 3882   3.953   4.434   5.776
67348SOL    HW1 3883   4.020   4.499   5.796
67348SOL    HW2 3884   3.871   4.482   5.784
67349SOL     OW 3885   4.948   6.984  11.361
67349SOL    HW1 3886   4.965   7.078  11.353
67349SOL    HW2 3887   4.973   6.949  11.275
67350SOL     OW 3888   6.744   5.826   4.329
67350SOL    HW1 3889   6.800   5.896   4.364
67350SOL    HW2 3890   6.709   5.862   4.248
67351SOL     OW 3891   4.449   3.982   5.769
67351SOL    HW1 3892   4.513   3.921   5.733
67351SOL    HW2 3893   4.444   4.053   5.705
67352SOL     OW 3894  14.124   3.917   7.085
67352SOL    HW1 3895  14.137   3.886   6.995
67352SOL    HW2 3896  14.081   4.002   7.076
67353SOL     OW 3897  12.731  10.734  14.435
67353SOL    HW1 3898  12.826  10.724  14.433
67353SOL    HW2 3899  12.706  10.752  14.345
67354SOL     OW 3900  12.836   2.219   6.875
67354SOL    HW1 3901  12.898   2.206   6.804
67354SOL    HW2 3902  12.867   2.299   6.919
67355SOL     OW 3903   5.027  10.597   0.573
67355SOL    HW1 3904   4.976  10.616   0.494
67355SOL    HW2 3905   5.115  10.628   0.553
67356SOL     OW 3906   9.855   0.858   2.066
67356SOL    HW1 3907   9.853   0.804   2.144
67356SOL    HW2 3908   9.903   0.937   2.092
67357SOL     OW 3909   5.474  14.767   9.202
67357SOL    HW1 3910   5.492  14.684   9.159
67357SOL    HW2 3911   5.557  14.793   9.242
67358SOL     OW 3912   6.280   4.280  11.087
67358SOL    HW1 3913   6.352   4.341  11.069
67358SOL    HW2 3914   6.201   4.334  11.081
67359SOL     OW 3915   5.124   2.624   9.075
67359SOL    HW1 3916   5.098   2.697   9.020
67359SOL    HW2 3917   5.165   2.665   9.151
67360SOL     OW 3918  12.347   4.844   4.913
67360SOL    HW1 3919  12.271   4.827   4.968
67360SOL    HW2 3920  12.346   4.938   4.898
67361SOL     OW 3921  14.537   3.726  12.040
67361SOL    HW1 3922  14.588   3.806  12.032
67361SOL    HW2 3923  14.507   3.707  11.951
67362SOL     OW 3924  11.429   1.969   6.203
67362SOL    HW1 3925  11.400   1.880   6.185
67362SOL    HW2 3926  11.405   2.019   6.124
67363SOL     OW 3927  11.444   6.009  11.876
67363SOL    HW1 3928  11.355   6.043  11.877
67363SOL    HW2 3929  11.497   6.077  11.919
67364SOL     OW 3930   6.416  14.147   3.038
67364SOL    HW1 3931   6.388  14.091   2.966
67364SOL    HW2 3932   6.369  14.114   3.114
67365SOL     OW 3933  11.611  10.350  13.755
67365SOL    HW1 3934  11.587  10.349  13.847
67365SOL    HW2 3935  11.664  10.429  13.744
67366SOL     OW 3936  13.695   9.239   0.640
67366SOL    HW1 3937  13.617   9.198   0.678
67366SOL    HW2 3938  13.686   9.224   0.546
67367SOL     OW 3939   3.654  13.767  12.907
67367SOL    HW1 3940   3.588  13.713  12.952
67367SOL    HW2 3941   3.713  13.704  12.867
67368SOL     OW 3942   1.596   7.717   0.168
67368SOL    HW1 3943   1.691   7.732   0.162
67368SOL    HW2 3944   1.569   7.696   0.079
67369SOL     OW 3945  12.759  13.089   4.158
67369SOL    HW1 3946  12.848  13.075   4.124
67369SOL    HW2 3947  12.708  13.114   4.081
67370SOL     OW 3948   3.458   4.754   0.129
67370SOL    HW1 3949   3.518   4.804   0.184
67370SOL    HW2 3950   3.456   4.802   0.046
67371SOL     OW 3951   1.551  14.030   2.066
67371SOL    HW1 3952   1.488  13.997   2.002
67371SOL    HW2 3953   1.498  14.062   2.139
67372SOL     OW 3954  14.617  13.039  12.048
67372SOL    HW1 3955  14.689  13.096  12.075
67372SOL    HW2 3956  14.653  12.951  12.056
67373SOL     OW 3957   3.869   0.307  11.556
67373SOL    HW1 3958   3.873   0.309  11.652
67373SOL    HW2 3959   3.848   0.397  11.531
67374SOL     OW 3960  14.185  14.180   6.541
67374SOL    HW1 3961  14.142  14.235   6.475
67374SOL    HW2 3962  14.279  14.188   6.521
67375SOL     OW 3963   5.809  14.618   0.428
67375SOL    HW1 3964   5.821  14.595   0.520
67375SOL    HW2 3965   5.736  14.680   0.427
67376SOL     OW 3966   3.715  13.394  10.880
67376SOL    HW1 3967   3.642  13.451  10.856
67376SOL    HW2 3968   3.790  13.454  10.887
67377SOL     OW 3969  12.984  12.105   5.676
67377SOL    HW1 3970  12.983  12.035   5.611
67377SOL    HW2 3971  12.902  12.095   5.724
67378SOL     OW 3972   9.186   5.170  12.700
67378SOL    HW1 3973   9.123   5.108  12.663
67378SOL    HW2 3974   9.271   5.127  12.690
67379SOL     OW 3975   3.425   0.750   5.779
67379SOL    HW1 3976   3.434   0.754   5.684
67379SOL    HW2 3977   3.351   0.691   5.794
67380SOL     OW 3978   9.542   1.802  11.432
67380SOL    HW1 3979   9.608   1.869  11.416
67380SOL    HW2 3980   9.529   1.804  11.527
67381SOL     OW 3981   0.382   7.913   0.214
67381SOL    HW1 3982   0.398   7.821   0.194
67381SOL    HW2 3983   0.305   7.912   0.272
67382SOL     OW 3984   3.402  13.473  14.134
67382SOL    HW1 3985   3.308  13.469  14.152
67382SOL    HW2 3986   3.407  13.473  14.038
67383SOL     OW 3987   0.764  11.255  12.650
67383SOL    HW1 3988   0.747  11.246  12.743
67383SOL    HW2 3989   0.854  11.287  12.645
67384SOL     OW 3990  11.238   0.791   1.980
67384SOL    HW1 3991  11.158   0.741   1.962
67384SOL    HW2 3992  11.298   0.728   2.019
67385SOL     OW 3993   1.432  10.832   6.583
67385SOL    HW1 3994   1.405  10.872   6.500
67385SOL    HW2 3995   1.356  10.842   6.641
67386SOL     OW 3996  11.246   9.764  13.672
67386SOL    HW1 3997  11.321   9.801  13.625
67386SOL    HW2 3998  11.258   9.792  13.763
67387SOL     OW 3999   7.149   5.792   0.892
67387SOL    HW1 4000   7.236   5.778   0.856
67387SOL    HW2 4001   7.090   5.743   0.835
67388SOL     OW 4002  11.677   9.928   9.165
67388SOL    HW1 4003  11.717   9.852   9.208
67388SOL    HW2 4004  11.621   9.891   9.097
67389SOL     OW 4005  12.496   6.839   9.020
67389SOL    HW1 4006  12.415   6.888   9.032
67389SOL    HW2 4007  12.556   6.874   9.086
67390SOL     OW 4008   7.556   8.119  13.067
67390SOL    HW1 4009   7.572   8.074  12.984
67390SOL    HW2 4010   7.461   8.126  13.072
67391SOL     OW 4011  13.449   4.060  11.287
67391SOL    HW1 4012  13.502   4.012  11.351
67391SOL    HW2 4013  13.358   4.042  11.311
67392SOL     OW 4014  13.846   3.101   2.680
67392SOL    HW1 4015  13.808   3.186   2.658
67392SOL    HW2 4016  13.855   3.104   2.776
67393SOL     OW 4017   2.686   2.513   0.975
67393SOL    HW1 4018   2.592   2.529   0.960
67393SOL    HW2 4019   2.688   2.440   1.036
67394SOL     OW 4020   9.607   4.281   6.956
67394SOL    HW1 4021   9.615   4.258   6.863
67394SOL    HW2 4022   9.601   4.376   6.956
67395SOL     OW 4023  12.254   4.024  10.315
67395SOL    HW1 4024  12.265   3.947  10.259
67395SOL    HW2 4025  12.160   4.040  10.316
67396SOL     OW 4026  11.478   5.766   0.220
67396SOL    HW1 4027  11.543   5.703   0.252
67396SOL    HW2 4028  11.410   5.712   0.181
67397SOL     OW 4029   7.593  10.036   5.270
67397SOL    HW1 4030   7.658  10.031   5.340
67397SOL    HW2 4031   7.616  10.116   5.222
67398SOL     OW 4032   4.261  10.244   0.891
67398SOL    HW1 4033   4.351  10.213   0.883
67398SOL    HW2 4034   4.208  10.174   0.852
67399SOL     OW 4035  14.749   9.068  10.143
67399SOL    HW1 4036  14.714   9.135  10.201
67399SOL    HW2 4037  14.673   9.036  10.095
67400SOL     OW 4038   6.815   6.493  10.590
67400SOL    HW1 4039   6.770   6.425  10.539
67400SOL    HW2 4040   6.802   6.573  10.539
67401SOL     OW 4041  12.917   6.895   8.977
67401SOL    HW1 4042  12.992   6.939   8.937
67401SOL    HW2 4043  12.851   6.894   8.908
67402SOL     OW 4044  12.076   6.085   0.415
67402SOL    HW1 4045  11.981   6.084   0.398
67402SOL    HW2 4046  12.084   6.062   0.508
67403SOL     OW 4047  10.341   1.127   7.015
67403SOL    HW1 4048  10.403   1.192   7.048
67403SOL    HW2 4049  10.354   1.051   7.072
67404SOL     OW 4050   3.077   5.461   8.080
67404SOL    HW1 4051   2.989   5.426   8.068
67404SOL    HW2 4052   3.093   5.454   8.174
67405SOL     OW 4053   5.820   6.306   5.852
67405SOL    HW1 4054   5.863   6.221   5.862
67405SOL    HW2 4055   5.726   6.285   5.848
67406SOL     OW 4056  13.085   3.605  12.288
67406SOL    HW1 4057  13.114   3.601  12.379
67406SOL    HW2 4058  13.100   3.516  12.254
67407SOL     OW 4059   6.807   2.836  12.324
67407SOL    HW1 4060   6.737   2.774  12.306
67407SOL    HW2 4061   6.793   2.863  12.415
67408SOL     OW 4062  12.315   0.691   3.323
67408SOL    HW1 4063  12.221   0.706   3.316
67408SOL    HW2 4064  12.349   0.769   3.366
67409SOL     OW 4065   4.245   5.135  10.677
67409SOL    HW1 4066   4.245   5.140  10.582
67409SOL    HW2 4067   4.316   5.074  10.698
67410SOL     OW 4068   5.666   0.797   7.624
67410SOL    HW1 4069   5.633   0.886   7.617
67410SOL    HW2 4070   5.758   0.803   7.598
67411SOL     OW 4071  10.320   3.177   3.405
67411SOL    HW1 4072  10.354   3.258   3.443
67411SOL    HW2 4073  10.390   3.113   3.419
67412SOL     OW 4074  13.328  13.068   9.409
67412SOL    HW1 4075  13.413  13.057   9.367
67412SOL    HW2 4076  13.306  12.981   9.442
67413SOL     OW 4077  11.374   5.426   2.182
67413SOL    HW1 4078  11.359   5.353   2.242
67413SOL    HW2 4079  11.317   5.496   2.214
67414SOL     OW 4080   9.951   9.569  12.642
67414SOL    HW1 4081  10.022   9.524  12.597
67414SOL    HW2 4082   9.993   9.644  12.684
67415SOL     OW 4083   1.770  10.183  12.536
67415SOL    HW1 4084   1.743  10.118  12.471
67415SOL    HW2 4085   1.818  10.249  12.486
67416SOL     OW 4086  10.611  12.553   3.203
67416SOL    HW1 4087  10.612  12.643   3.236
67416SOL    HW2 4088  10.686  12.549   3.143
67417SOL     OW 4089  12.165  11.448   9.397
67417SOL    HW1 4090  12.089  11.423   9.344
67417SOL    HW2 4091  12.240  11.434   9.339
67418SOL     OW 4092   1.678   5.083  14.291
67418SOL    HW1 4093   1.591   5.088  14.331
67418SOL    HW2 4094   1.703   4.991  14.301
67419SOL     OW 4095   9.776  11.700  13.171
67419SOL    HW1 4096   9.741  11.639  13.236
67419SOL    HW2 4097   9.812  11.644  13.103
67420SOL     OW 4098   3.919   6.978   9.677
67420SOL    HW1 4099   3.856   6.910   9.652
67420SOL    HW2 4100   3.972   6.938   9.746
67421SOL     OW 4101  10.394   4.521  14.426
67421SOL    HW1 4102  10.354   4.434  14.433
67421SOL    HW2 4103  10.327   4.575  14.384
67422SOL     OW 4104  12.664  12.813  10.151
67422SOL    HW1 4105  12.580  12.791  10.191
67422SOL    HW2 4106  12.641  12.850  10.066
67423SOL     OW 4107   4.022   3.038   8.954
67423SOL    HW1 4108   3.968   3.117   8.952
67423SOL    HW2 4109   4.051   3.026   8.864
67424SOL     OW 4110   4.751   3.906  12.164
67424SOL    HW1 4111   4.742   3.988  12.212
67424SOL    HW2 4112   4.779   3.932  12.076
67425SOL     OW 4113   9.379  12.753   7.581
67425SOL    HW1 4114   9.421  12.839   7.591
67425SOL    HW2 4115   9.295  12.762   7.626
67426SOL     OW 4116   8.710   3.926   1.678
67426SOL    HW1 4117   8.683   3.868   1.749
67426SOL    HW2 4118   8.681   4.013   1.706
67427SOL     OW 4119  10.337   8.016   0.240
67427SOL    HW1 4120  10.419   7.973   0.266
67427SOL    HW2 4121  10.276   7.944   0.226
67428SOL     OW 4122   0.934   9.495   4.766
67428SOL    HW1 4123   0.908   9.500   4.674
67428SOL    HW2 4124   0.856   9.520   4.815
67429SOL     OW 4125  14.218  10.451   3.921
67429SOL    HW1 4126  14.151  10.385   3.901
67429SOL    HW2 4127  14.263  10.466   3.837
67430SOL     OW 4128   1.627   9.210  12.920
67430SOL    HW1 4129   1.695   9.151  12.886
67430SOL    HW2 4130   1.553   9.153  12.938
67431SOL     OW 4131   5.995   9.986   1.250
67431SOL    HW1 4132   6.003  10.032   1.334
67431SOL    HW2 4133   5.950  10.049   1.193
67432SOL     OW 4134  10.998  13.746   8.617
67432SOL    HW1 4135  10.942  13.731   8.541
67432SOL    HW2 4136  10.941  13.788   8.681
67433SOL     OW 4137   0.313   3.999   0.721
67433SOL    HW1 4138   0.396   4.029   0.684
67433SOL    HW2 4139   0.270   4.079   0.752
67434SOL     OW 4140  10.806  11.339   1.782
67434SOL    HW1 4141  10.829  11.432   1.786
67434SOL    HW2 4142  10.728  11.331   1.836
67435SOL     OW 4143   4.605  13.959  13.145
67435SOL    HW1 4144   4.647  13.969  13.230
67435SOL    HW2 4145   4.601  14.048  13.110
67436SOL     OW 4146   8.444   3.133  14.240
67436SOL    HW1 4147   8.376   3.081  14.197
67436SOL    HW2 4148   8.526   3.091  14.215
67437SOL     OW 4149  14.353  13.703   4.995
67437SOL    HW1 4150  14.427  13.659   5.036
67437SOL    HW2 4151  14.389  13.787   4.964
67438SOL     OW 4152   2.363   9.544   9.349
67438SOL    HW1 4153   2.269   9.563   9.353
67438SOL    HW2 4154   2.402   9.626   9.320
67439SOL     OW 4155  11.946   6.405   9.975
67439SOL    HW1 4156  11.990   6.457  10.043
67439SOL    HW2 4157  11.910   6.329  10.021
67440SOL     OW 4158  11.131   6.107   6.117
67440SOL    HW1 4159  11.146   6.134   6.026
67440SOL    HW2 4160  11.215   6.124   6.160
67441SOL     OW 4161  14.564  11.099   0.159
67441SOL    HW1 4162  14.490  11.155   0.136
67441SOL    HW2 4163  14.620  11.099   0.081
67442SOL     OW 4164  11.734  12.121   4.717
67442SOL    HW1 4165  11.715  12.067   4.794
67442SOL    HW2 4166  11.650  12.125   4.670
67443SOL     OW 4167   9.766  13.882   2.997
67443SOL    HW1 4168   9.822  13.860   3.071
67443SOL    HW2 4169   9.705  13.947   3.031
67444SOL     OW 4170  10.454   8.112   9.220
67444SOL    HW1 4171  10.487   8.073   9.301
67444SOL    HW2 4172  10.429   8.036   9.166
67445SOL     OW 4173   7.293  10.466   3.753
67445SOL    HW1 4174   7.365  10.486   3.693
67445SOL    HW2 4175   7.327  10.488   3.840
67446SOL     OW 4176  13.742   5.922   4.145
67446SOL    HW1 4177  13.798   5.949   4.072
67446SOL    HW2 4178  13.764   5.830   4.160
67447SOL     OW 4179  14.314   7.203  11.945
67447SOL    HW1 4180  14.373   7.241  12.010
67447SOL    HW2 4181  14.310   7.110  11.968
67448SOL     OW 4182  11.908  12.107   0.429
67448SOL    HW1 4183  11.927  12.023   0.470
67448SOL    HW2 4184  11.895  12.088   0.337
67449SOL     OW 4185  13.795   2.630   5.845
67449SOL    HW1 4186  13.888   2.653   5.845
67449SOL    HW2 4187  13.791   2.543   5.805
67450SOL     OW 4188   2.214  13.368   5.497
67450SOL    HW1 4189   2.249  13.400   5.581
67450SOL    HW2 4190   2.291  13.333   5.451
67451SOL     OW 4191  13.078  13.938   5.902
67451SOL    HW1 4192  13.083  14.033   5.894
67451SOL    HW2 4193  12.992  13.915   5.868
67452SOL     OW 4194   1.378  11.599   6.101
67452SOL    HW1 4195   1.404  11.507   6.090
67452SOL    HW2 4196   1.415  11.625   6.185
67453SOL     OW 4197  10.362  10.499   0.945
67453SOL    HW1 4198  10.426  10.551   0.995
67453SOL    HW2 4199  10.286  10.493   1.003
67454SOL     OW 4200   1.845  11.685  10.166
67454SOL    HW1 4201   1.810  11.623  10.229
67454SOL    HW2 4202   1.848  11.636  10.083
67455SOL     OW 4203   2.847   4.294   0.647
67455SOL    HW1 4204   2.826   4.220   0.703
67455SOL    HW2 4205   2.803   4.275   0.564
67456SOL     OW 4206   5.629  10.258   8.375
67456SOL    HW1 4207   5.627  10.288   8.466
67456SOL    HW2 4208   5.721  10.264   8.349
67457SOL     OW 4209   8.921  14.832   2.373
67457SOL    HW1 4210   8.954   0.019   2.312
67457SOL    HW2 4211   8.886   0.004   2.447
67458SOL     OW 4212   8.227   0.556   5.864
67458SOL    HW1 4213   8.229   0.651   5.859
67458SOL    HW2 4214   8.304   0.528   5.813
67459SOL     OW 4215   9.462   9.943   5.004
67459SOL    HW1 4216   9.479   9.956   4.911
67459SOL    HW2 4217   9.367   9.953   5.012
67460SOL     OW 4218   9.264  14.736  12.960
67460SOL    HW1 4219   9.174  14.750  12.990
67460SOL    HW2 4220   9.267  14.644  12.933
67461SOL     OW 4221  12.082   9.952  12.934
67461SOL    HW1 4222  12.136  10.024  12.967
67461SOL    HW2 4223  12.113   9.875  12.982
67462SOL     OW 4224  13.991  11.316  10.992
67462SOL    HW1 4225  14.061  11.379  10.977
67462SOL    HW2 4226  13.926  11.336  10.924
67463SOL     OW 4227   6.852   7.241   9.342
67463SOL    HW1 4228   6.789   7.250   9.270
67463SOL    HW2 4229   6.937   7.234   9.298
67464SOL     OW 4230   2.869   3.329   1.176
67464SOL    HW1 4231   2.904   3.355   1.091
67464SOL    HW2 4232   2.945   3.298   1.225
67465SOL     OW 4233  11.832   9.050   4.566
67465SOL    HW1 4234  11.743   9.015   4.574
67465SOL    HW2 4235  11.831   9.129   4.620
67466SOL     OW 4236   2.313   2.531   9.901
67466SOL    HW1 4237   2.382   2.570   9.848
67466SOL    HW2 4238   2.239   2.591   9.892
67467SOL     OW 4239   7.577   3.399  12.404
67467SOL    HW1 4240   7.501   3.375  12.457
67467SOL    HW2 4241   7.614   3.315  12.376
67468SOL     OW 4242   0.395   2.201  12.342
67468SOL    HW1 4243   0.370   2.215  12.251
67468SOL    HW2 4244   0.474   2.147  12.338
67469SOL     OW 4245   7.305   0.244   4.541
67469SOL    HW1 4246   7.267   0.169   4.586
67469SOL    HW2 4247   7.245   0.316   4.559
67470SOL     OW 4248   0.287   0.885   6.001
67470SOL    HW1 4249   0.320   0.952   6.060
67470SOL    HW2 4250   0.216   0.928   5.953
67471SOL     OW 4251   7.195   0.055   2.469
67471SOL    HW1 4252   7.282   0.059   2.429
67471SOL    HW2 4253   7.173   0.146   2.489
67472SOL     OW 4254   1.243   6.214   5.065
67472SOL    HW1 4255   1.271   6.231   4.975
67472SOL    HW2 4256   1.279   6.287   5.116
67473SOL     OW 4257  14.572  13.807   7.813
67473SOL    HW1 4258  14.539  13.892   7.841
67473SOL    HW2 4259  14.519  13.743   7.861
67474SOL     OW 4260  10.367  14.845  11.323
67474SOL    HW1 4261  10.333   0.040  11.273
67474SOL    HW2 4262  10.364  14.772  11.262
67475SOL     OW 4263   6.011  11.530  11.480
67475SOL    HW1 4264   5.933  11.580  11.500
67475SOL    HW2 4265   6.071  11.593  11.439
67476SOL     OW 4266   7.771  13.112  12.399
67476SOL    HW1 4267   7.811  13.028  12.422
67476SOL    HW2 4268   7.841  13.176  12.412
67477SOL     OW 4269   1.629   1.487   3.964
67477SOL    HW1 4270   1.671   1.510   4.046
67477SOL    HW2 4271   1.593   1.570   3.931
67478SOL     OW 4272   6.641  12.888  13.908
67478SOL    HW1 4273   6.612  12.825  13.975
67478SOL    HW2 4274   6.559  12.920  13.870
67479SOL     OW 4275   8.308  14.050   8.856
67479SOL    HW1 4276   8.237  13.986   8.850
67479SOL    HW2 4277   8.338  14.062   8.766
67480SOL     OW 4278   7.271   9.311  14.844
67480SOL    HW1 4279   7.302   9.235  14.794
67480SOL    HW2 4280   7.334   9.380  14.824
67481SOL     OW 4281   5.067   9.106   3.816
67481SOL    HW1 4282   5.092   9.135   3.904
67481SOL    HW2 4283   5.050   9.012   3.826
67482SOL     OW 4284   5.687   8.072  11.855
67482SOL    HW1 4285   5.602   8.031  11.873
67482SOL    HW2 4286   5.665   8.159  11.822
67483SOL     OW 4287  10.058   3.997  13.282
67483SOL    HW1 4288  10.119   4.031  13.217
67483SOL    HW2 4289  10.106   4.000  13.364
67484SOL     OW 4290   0.157   4.064   4.937
67484SOL    HW1 4291   0.091   4.133   4.930
67484SOL    HW2 4292   0.134   4.001   4.870
67485SOL     OW 4293   8.269  12.006  10.789
67485SOL    HW1 4294   8.265  12.038  10.878
67485SOL    HW2 4295   8.362  11.987  10.774
67486SOL     OW 4296   1.705   2.023   6.252
67486SOL    HW1 4297   1.653   1.945   6.230
67486SOL    HW2 4298   1.795   1.992   6.252
67487SOL     OW 4299  10.021   9.030  11.574
67487SOL    HW1 4300   9.986   8.961  11.517
67487SOL    HW2 4301   9.944   9.064  11.620
67488SOL     OW 4302   6.786  13.625   5.099
67488SOL    HW1 4303   6.841  13.701   5.119
67488SOL    HW2 4304   6.750  13.598   5.183
67489SOL     OW 4305  14.538   5.491   2.684
67489SOL    HW1 4306  14.460   5.523   2.637
67489SOL    HW2 4307  14.576   5.569   2.723
67490SOL     OW 4308   4.908  11.264   9.427
67490SOL    HW1 4309   4.939  11.231   9.342
67490SOL    HW2 4310   4.887  11.185   9.477
67491SOL     OW 4311   0.130   0.352   0.024
67491SOL    HW1 4312   0.077   0.285   0.066
67491SOL    HW2 4313   0.101   0.352  14.812
67492SOL     OW 4314   9.438   2.663   0.105
67492SOL    HW1 4315   9.458   2.750   0.071
67492SOL    HW2 4316   9.342   2.659   0.107
67493SOL     OW 4317   7.740  13.202   7.841
67493SOL    HW1 4318   7.728  13.206   7.935
67493SOL    HW2 4319   7.663  13.155   7.809
67494SOL     OW 4320  14.599  11.682   7.592
67494SOL    HW1 4321  14.537  11.743   7.553
67494SOL    HW2 4322  14.561  11.661   7.677
67495SOL     OW 4323  10.840  11.120  12.098
67495SOL    HW1 4324  10.926  11.119  12.055
67495SOL    HW2 4325  10.810  11.030  12.093
67496SOL     OW 4326   6.097   4.369   2.260
67496SOL    HW1 4327   6.129   4.288   2.218
67496SOL    HW2 4328   6.012   4.344   2.297
67497SOL     OW 4329  13.457   4.539   7.931
67497SOL    HW1 4330  13.494   4.458   7.965
67497SOL    HW2 4331  13.380   4.555   7.986
67498SOL     OW 4332  10.044   8.359  12.195
67498SOL    HW1 4333   9.993   8.361  12.114
67498SOL    HW2 4334  10.098   8.280  12.188
67499SOL     OW 4335   6.746   9.223   4.485
67499SOL    HW1 4336   6.823   9.268   4.450
67499SOL    HW2 4337   6.780   9.144   4.527
67500SOL     OW 4338  13.178   6.250   4.902
67500SOL    HW1 4339  13.161   6.260   4.995
67500SOL    HW2 4340  13.095   6.271   4.860
67501SOL     OW 4341  10.989   3.600  10.726
67501SOL    HW1 4342  11.033   3.656  10.662
67501SOL    HW2 4343  10.985   3.514  10.684
67502SOL     OW 4344   2.900   6.036   1.834
67502SOL    HW1 4345   2.976   5.993   1.873
67502SOL    HW2 4346   2.937   6.104   1.778
67503SOL     OW 4347   7.314   9.395  12.323
67503SOL    HW1 4348   7.328   9.487  12.348
67503SOL    HW2 4349   7.328   9.346  12.404
67504SOL     OW 4350  11.060  11.985   9.707
67504SOL    HW1 4351  11.108  11.970   9.789
67504SOL    HW2 4352  11.023  12.073   9.717
67505SOL     OW 4353  14.227  12.745   0.300
67505SOL    HW1 4354  14.136  12.762   0.322
67505SOL    HW2 4355  14.223  12.671   0.239
67506SOL     OW 4356  11.302   6.916  13.170
67506SOL    HW1 4357  11.237   6.933  13.102
67506SOL    HW2 4358  11.299   6.821  13.184
67507SOL     OW 4359   7.595   6.505   9.253
67507SOL    HW1 4360   7.503   6.513   9.280
67507SOL    HW2 4361   7.619   6.416   9.277
67508SOL     OW 4362  13.910  11.536  12.525
67508SOL    HW1 4363  13.865  11.540  12.441
67508SOL    HW2 4364  13.990  11.487  12.506
67509SOL     OW 4365  13.907   5.373   2.308
67509SOL    HW1 4366  13.981   5.432   2.296
67509SOL    HW2 4367  13.830   5.430   2.306
67510SOL     OW 4368   2.783   0.472  14.261
67510SOL    HW1 4369   2.866   0.430  14.239
67510SOL    HW2 4370   2.782   0.554  14.211
67511SOL     OW 4371   1.415   9.380   2.275
67511SOL    HW1 4372   1.405   9.285   2.284
67511SOL    HW2 4373   1.326   9.414   2.288
67512SOL     OW 4374  12.122  12.010   0.087
67512SOL    HW1 4375  12.200  11.958   0.103
67512SOL    HW2 4376  12.133  12.043  14.876
67513SOL     OW 4377   7.047   1.448   8.935
67513SOL    HW1 4378   7.120   1.503   8.907
67513SOL    HW2 4379   6.977   1.510   8.957
67514SOL     OW 4380  10.513   5.802  11.846
67514SOL    HW1 4381  10.420   5.783  11.837
67514SOL    HW2 4382  10.556   5.743  11.783
67515SOL     OW 4383  14.014  13.531  12.375
67515SOL    HW1 4384  14.048  13.442  12.382
67515SOL    HW2 4385  13.938  13.532  12.433
67516SOL     OW 4386   0.487  13.548  11.246
67516SOL    HW1 4387   0.490  13.464  11.199
67516SOL    HW2 4388   0.547  13.605  11.197
67517SOL     OW 4389  12.516   6.363   7.302
67517SOL    HW1 4390  12.525   6.306   7.226
67517SOL    HW2 4391  12.493   6.304   7.374
67518SOL     OW 4392   5.951   3.373  11.066
67518SOL    HW1 4393   5.930   3.465  11.050
67518SOL    HW2 4394   5.950   3.365  11.161
67519SOL     OW 4395  10.809  12.608   4.319
67519SOL    HW1 4396  10.808  12.551   4.395
67519SOL    HW2 4397  10.788  12.551   4.245
67520SOL     OW 4398   9.209   7.539   8.501
67520SOL    HW1 4399   9.148   7.610   8.480
67520SOL    HW2 4400   9.293   7.582   8.514
67521SOL     OW 4401   8.868   8.108   1.942
67521SOL    HW1 4402   8.788   8.081   1.898
67521SOL    HW2 4403   8.881   8.043   2.011
67522SOL     OW 4404   8.469   8.774   1.096
67522SOL    HW1 4405   8.460   8.717   1.172
67522SOL    HW2 4406   8.513   8.852   1.130
67523SOL     OW 4407   8.257  13.538   3.108
67523SOL    HW1 4408   8.206  13.590   3.046
67523SOL    HW2 4409   8.327  13.596   3.138
67524SOL     OW 4410   6.795   4.916   3.722
67524SOL    HW1 4411   6.836   4.932   3.637
67524SOL    HW2 4412   6.861   4.869   3.772
67525SOL     OW 4413   6.712  14.125   3.332
67525SOL    HW1 4414   6.795  14.167   3.354
67525SOL    HW2 4415   6.677  14.178   3.260
67526SOL     OW 4416   4.730  14.120   8.120
67526SOL    HW1 4417   4.730  14.086   8.031
67526SOL    HW2 4418   4.822  14.116   8.147
67527SOL     OW 4419  13.041   7.371   4.814
67527SOL    HW1 4420  13.005   7.298   4.864
67527SOL    HW2 4421  13.084   7.426   4.878
67528SOL     OW 4422  13.003   8.166   2.880
67528SOL    HW1 4423  13.077   8.191   2.825
67528SOL    HW2 4424  13.043   8.130   2.959
67529SOL     OW 4425   6.634  11.228   1.996
67529SOL    HW1 4426   6.694  11.201   2.065
67529SOL    HW2 4427   6.656  11.172   1.922
67530SOL     OW 4428  11.285   0.116  10.914
67530SOL    HW1 4429  11.195   0.120  10.879
67530SOL    HW2 4430  11.340   0.112  10.836
67531SOL     OW 4431   1.691   5.600   9.789
67531SOL    HW1 4432   1.753   5.528   9.778
67531SOL    HW2 4433   1.619   5.579   9.730
67532SOL     OW 4434   6.988  13.676   2.173
67532SOL    HW1 4435   7.008  13.637   2.088
67532SOL    HW2 4436   6.894  13.663   2.184
67533SOL     OW 4437   0.292   0.637   5.020
67533SOL    HW1 4438   0.387   0.643   5.024
67533SOL    HW2 4439   0.269   0.570   5.084
67534SOL     OW 4440  13.802   8.841   7.323
67534SOL    HW1 4441  13.815   8.752   7.290
67534SOL    HW2 4442  13.713   8.864   7.296
67535SOL     OW 4443   0.838   8.361   2.329
67535SOL    HW1 4444   0.767   8.331   2.273
67535SOL    HW2 4445   0.794   8.404   2.403
67536SOL     OW 4446   1.009   6.074   2.243
67536SOL    HW1 4447   1.021   6.085   2.148
67536SOL    HW2 4448   0.944   6.005   2.251
67537SOL     OW 4449  13.869   4.227  14.341
67537SOL    HW1 4450  13.900   4.316  14.355
67537SOL    HW2 4451  13.927   4.173  14.395
67538SOL     OW 4452  11.315  13.283  10.472
67538SOL    HW1 4453  11.357  13.278  10.558
67538SOL    HW2 4454  11.365  13.222  10.417
67539SOL     OW 4455   0.162   9.879   0.072
67539SOL    HW1 4456   0.128   9.886   0.162
67539SOL    HW2 4457   0.196   9.966   0.052
67540SOL     OW 4458  12.632  11.763   7.765
67540SOL    HW1 4459  12.713  11.728   7.801
67540SOL    HW2 4460  12.562  11.721   7.816
67541SOL     OW 4461   8.876   6.107   8.864
67541SOL    HW1 4462   8.899   6.017   8.842
67541SOL    HW2 4463   8.821   6.136   8.791
67542SOL     OW 4464   2.659  10.645   8.117
67542SOL    HW1 4465   2.741  10.653   8.165
67542SOL    HW2 4466   2.643  10.551   8.112
67543SOL     OW 4467   5.700  11.165   5.767
67543SOL    HW1 4468   5.742  11.238   5.722
67543SOL    HW2 4469   5.713  11.183   5.860
67544SOL     OW 4470  13.227   1.839   7.094
67544SOL    HW1 4471  13.207   1.906   7.160
67544SOL    HW2 4472  13.177   1.865   7.017
67545SOL     OW 4473   9.297  14.851   9.259
67545SOL    HW1 4474   9.337   0.038   9.317
67545SOL    HW2 4475   9.357  14.776   9.263
67546SOL     OW 4476   4.493   9.712   3.527
67546SOL    HW1 4477   4.563   9.657   3.562
67546SOL    HW2 4478   4.493   9.789   3.583
67547SOL     OW 4479   1.549  13.224  11.013
67547SOL    HW1 4480   1.628  13.172  11.023
67547SOL    HW2 4481   1.498  13.177  10.947
67548SOL     OW 4482   6.266   9.457   5.657
67548SOL    HW1 4483   6.279   9.367   5.687
67548SOL    HW2 4484   6.266   9.509   5.737
67549SOL     OW 4485   8.365   0.982  10.306
67549SOL    HW1 4486   8.270   0.977  10.311
67549SOL    HW2 4487   8.383   1.032  10.227
67550SOL     OW 4488   5.226   6.165   9.984
67550SOL    HW1 4489   5.275   6.162  10.067
67550SOL    HW2 4490   5.160   6.232   9.998
67551SOL     OW 4491   2.634   1.177   2.613
67551SOL    HW1 4492   2.643   1.221   2.697
67551SOL    HW2 4493   2.560   1.220   2.570
67552SOL     OW 4494   9.480  11.880  14.205
67552SOL    HW1 4495   9.455  11.826  14.130
67552SOL    HW2 4496   9.397  11.907  14.244
67553SOL     OW 4497   4.264   1.331   4.123
67553SOL    HW1 4498   4.329   1.273   4.161
67553SOL    HW2 4499   4.315   1.407   4.093
67554SOL     OW 4500   1.763   0.512   0.149
67554SOL    HW1 4501   1.668   0.520   0.145
67554SOL    HW2 4502   1.793   0.546   0.065
67555SOL     OW 4503   4.405   5.225   0.793
67555SOL    HW1 4504   4.397   5.314   0.759
67555SOL    HW2 4505   4.485   5.226   0.845
67556SOL     OW 4506   0.058   1.239  12.117
67556SOL    HW1 4507  14.847   1.261  12.092
67556SOL    HW2 4508   0.111   1.274  12.045
67557SOL     OW 4509   7.321   2.463   5.849
67557SOL    HW1 4510   7.323   2.514   5.930
67557SOL    HW2 4511   7.382   2.392   5.864
67558SOL     OW 4512  14.326   6.189   6.371
67558SOL    HW1 4513  14.360   6.277   6.384
67558SOL    HW2 4514  14.268   6.175   6.446
67559SOL     OW 4515  13.223   6.570   8.176
67559SOL    HW1 4516  13.311   6.588   8.141
67559SOL    HW2 4517  13.176   6.529   8.104
67560SOL     OW 4518  13.691   3.927   0.612
67560SOL    HW1 4519  13.624   3.859   0.625
67560SOL    HW2 4520  13.656   4.004   0.656
67561SOL     OW 4521  11.614   7.709  12.735
67561SOL    HW1 4522  11.630   7.616  12.753
67561SOL    HW2 4523  11.696   7.741  12.699
67562SOL     OW 4524   1.234  13.695   7.357
67562SOL    HW1 4525   1.234  13.644   7.277
67562SOL    HW2 4526   1.215  13.785   7.329
67563SOL     OW 4527   1.430  10.458   4.262
67563SOL    HW1 4528   1.399  10.540   4.298
67563SOL    HW2 4529   1.353  10.420   4.219
67564SOL     OW 4530   5.635   2.790   8.753
67564SOL    HW1 4531   5.592   2.705   8.745
67564SOL    HW2 4532   5.722   2.770   8.787
67565SOL     OW 4533   8.573   6.637  11.912
67565SOL    HW1 4534   8.529   6.705  11.962
67565SOL    HW2 4535   8.558   6.661  11.820
67566SOL     OW 4536   3.774   2.885   4.283
67566SOL    HW1 4537   3.778   2.974   4.318
67566SOL    HW2 4538   3.865   2.864   4.261
67567SOL     OW 4539  11.609  12.991   4.807
67567SOL    HW1 4540  11.639  13.075   4.842
67567SOL    HW2 4541  11.521  12.980   4.844
67568SOL     OW 4542   3.230  11.302   8.209
67568SOL    HW1 4543   3.270  11.387   8.193
67568SOL    HW2 4544   3.196  11.275   8.124
67569SOL     OW 4545   5.571   6.623  11.219
67569SOL    HW1 4546   5.604   6.537  11.193
67569SOL    HW2 4547   5.541   6.663  11.137
67570SOL     OW 4548   3.291   5.044   6.606
67570SOL    HW1 4549   3.377   5.058   6.645
67570SOL    HW2 4550   3.287   4.950   6.588
67571SOL     OW 4551   0.440   7.327  10.020
67571SOL    HW1 4552   0.347   7.305  10.027
67571SOL    HW2 4553   0.445   7.388   9.946
67572SOL     OW 4554   2.272  13.107  14.790
67572SOL    HW1 4555   2.177  13.114  14.791
67572SOL    HW2 4556   2.293  13.078  14.701
67573SOL     OW 4557  11.180  13.662  12.520
67573SOL    HW1 4558  11.260  13.697  12.482
67573SOL    HW2 4559  11.136  13.617  12.448
67574SOL     OW 4560  10.670   0.847   3.090
67574SOL    HW1 4561  10.707   0.780   3.033
67574SOL    HW2 4562  10.728   0.849   3.167
67575SOL     OW 4563   6.469   1.788   7.302
67575SOL    HW1 4564   6.377   1.811   7.286
67575SOL    HW2 4565   6.514   1.812   7.221
67576SOL     OW 4566   6.863   7.571   9.638
67576SOL    HW1 4567   6.864   7.621   9.557
67576SOL    HW2 4568   6.784   7.517   9.633
67577SOL     OW 4569   3.309   7.877  10.288
67577SOL    HW1 4570   3.361   7.958  10.284
67577SOL    HW2 4571   3.267   7.872  10.203
67578SOL     OW 4572   0.050   7.493   1.728
67578SOL    HW1 4573   0.014   7.464   1.812
67578SOL    HW2 4574   0.128   7.544   1.752
67579SOL     OW 4575   0.747   4.609  12.351
67579SOL    HW1 4576   0.663   4.568  12.330
67579SOL    HW2 4577   0.758   4.594  12.445
67580SOL     OW 4578  14.458  14.308   3.802
67580SOL    HW1 4579  14.545  14.346   3.801
67580SOL    HW2 4580  14.413  14.346   3.727
67581SOL     OW 4581  12.429   2.543  11.338
67581SOL    HW1 4582  12.420   2.622  11.285
67581SOL    HW2 4583  12.505   2.560  11.394
67582SOL     OW 4584   5.275   5.518   0.687
67582SOL    HW1 4585   5.230   5.557   0.763
67582SOL    HW2 4586   5.271   5.586   0.620
67583SOL     OW 4587  10.922  12.080   0.163
67583SOL    HW1 4588  10.851  12.141   0.184
67583SOL    HW2 4589  10.935  12.030   0.244
67584SOL     OW 4590  10.665  11.487  13.768
67584SOL    HW1 4591  10.688  11.488  13.676
67584SOL    HW2 4592  10.735  11.437  13.810
67585SOL     OW 4593   3.889  11.580   0.817
67585SOL    HW1 4594   3.943  11.611   0.745
67585SOL    HW2 4595   3.802  11.568   0.779
67586SOL     OW 4596   6.060   7.013   8.152
67586SOL    HW1 4597   5.991   7.009   8.085
67586SOL    HW2 4598   6.140   6.988   8.106
67587SOL     OW 4599  13.733   5.009   3.872
67587SOL    HW1 4600  13.713   5.087   3.924
67587SOL    HW2 4601  13.647   4.976   3.843
67588SOL     OW 4602   0.814   4.285   3.156
67588SOL    HW1 4603   0.846   4.195   3.143
67588SOL    HW2 4604   0.720   4.279   3.141
67589SOL     OW 4605   2.596   8.964   8.807
67589SOL    HW1 4606   2.532   8.975   8.877
67589SOL    HW2 4607   2.625   8.873   8.814
67590SOL     OW 4608   2.705  14.056  11.146
67590SOL    HW1 4609   2.641  14.016  11.087
67590SOL    HW2 4610   2.686  14.018  11.232
67591SOL     OW 4611   4.877  14.277   7.661
67591SOL    HW1 4612   4.931  14.268   7.740
67591SOL    HW2 4613   4.929  14.330   7.601
67592SOL     OW 4614   6.308   2.126  11.475
67592SOL    HW1 4615   6.398   2.154  11.464
67592SOL    HW2 4616   6.261   2.204  11.505
67593SOL     OW 4617  10.939   2.628  12.800
67593SOL    HW1 4618  10.894   2.553  12.838
67593SOL    HW2 4619  10.968   2.598  12.714
67594SOL     OW 4620  13.281  11.314   3.698
67594SOL    HW1 4621  13.331  11.275   3.770
67594SOL    HW2 4622  13.232  11.385   3.738
67595SOL     OW 4623   6.071   9.389   1.431
67595SOL    HW1 4624   6.058   9.376   1.337
67595SOL    HW2 4625   5.984   9.373   1.469
67596SOL     OW 4626   9.434   4.647   6.289
67596SOL    HW1 4627   9.373   4.623   6.359
67596SOL    HW2 4628   9.431   4.572   6.229
67597SOL     OW 4629  10.612   2.460   3.630
67597SOL    HW1 4630  10.563   2.378   3.626
67597SOL    HW2 4631  10.683   2.442   3.692
67598SOL     OW 4632  10.860   2.786   2.358
67598SOL    HW1 4633  10.802   2.727   2.309
67598SOL    HW2 4634  10.948   2.756   2.337
67599SOL     OW 4635   2.251   3.403   9.884
67599SOL    HW1 4636   2.274   3.384   9.793
67599SOL    HW2 4637   2.261   3.319   9.929
67600SOL     OW 4638  14.486   2.987  14.204
67600SOL    HW1 4639  14.471   3.068  14.155
67600SOL    HW2 4640  14.488   2.918  14.137
67601SOL     OW 4641   0.175   0.724   1.303
67601SOL    HW1 4642   0.125   0.763   1.231
67601SOL    HW2 4643   0.137   0.637   1.314
67602SOL     OW 4644   3.922  12.241   8.937
67602SOL    HW1 4645   3.940  12.275   9.024
67602SOL    HW2 4646   3.847  12.184   8.948
67603SOL     OW 4647  13.989   1.687   7.838
67603SOL    HW1 4648  14.031   1.726   7.762
67603SOL    HW2 4649  13.992   1.593   7.822
67604SOL     OW 4650  13.925   0.017  11.315
67604SOL    HW1 4651  13.903  14.841  11.241
67604SOL    HW2 4652  13.898   0.105  11.289
67605SOL     OW 4653  10.477   2.282   0.842
67605SOL    HW1 4654  10.506   2.222   0.911
67605SOL    HW2 4655  10.488   2.369   0.880
67606SOL     OW 4656  12.967   3.522   4.632
67606SOL    HW1 4657  12.876   3.493   4.644
67606SOL    HW2 4658  13.019   3.458   4.679
67607SOL     OW 4659  14.011   6.988  11.931
67607SOL    HW1 4660  14.095   6.955  11.963
67607SOL    HW2 4661  14.030   7.017  11.841
67608SOL     OW 4662  13.119  14.585  13.555
67608SOL    HW1 4663  13.183  14.626  13.614
67608SOL    HW2 4664  13.117  14.493  13.582
67609SOL     OW 4665   3.522   0.735   7.640
67609SOL    HW1 4666   3.615   0.715   7.643
67609SOL    HW2 4667   3.500   0.762   7.729
67610SOL     OW 4668   7.685   3.953  13.805
67610SOL    HW1 4669   7.657   4.009  13.878
67610SOL    HW2 4670   7.608   3.899  13.786
67611SOL     OW 4671   7.186  11.361  13.184
67611SOL    HW1 4672   7.209  11.300  13.253
67611SOL    HW2 4673   7.260  11.421  13.178
67612SOL     OW 4674   6.842  13.668   6.550
67612SOL    HW1 4675   6.834  13.585   6.596
67612SOL    HW2 4676   6.796  13.732   6.604
67613SOL     OW 4677   6.512   3.272   6.933
67613SOL    HW1 4678   6.505   3.325   6.854
67613SOL    HW2 4679   6.428   3.282   6.977
67614SOL     OW 4680   0.863  12.077  13.534
67614SOL    HW1 4681   0.855  11.986  13.564
67614SOL    HW2 4682   0.952  12.083  13.500
67615SOL     OW 4683  13.421  14.354   9.736
67615SOL    HW1 4684  13.382  14.354   9.648
67615SOL    HW2 4685  13.350  14.324   9.793
67616SOL     OW 4686  14.071  14.694   0.647
67616SOL    HW1 4687  14.111  14.770   0.688
67616SOL    HW2 4688  14.128  14.674   0.572
67617SOL     OW 4689  13.808   7.999  12.725
67617SOL    HW1 4690  13.745   8.070  12.740
67617SOL    HW2 4691  13.786   7.934  12.791
67618SOL     OW 4692  14.232   0.024   8.079
67618SOL    HW1 4693  14.166   0.009   8.146
67618SOL    HW2 4694  14.302   0.073   8.123
67619SOL     OW 4695   9.301  10.575  12.592
67619SOL    HW1 4696   9.243  10.602  12.663
67619SOL    HW2 4697   9.255  10.600  12.512
67620SOL     OW 4698  12.259   7.159  11.515
67620SOL    HW1 4699  12.287   7.103  11.443
67620SOL    HW2 4700  12.246   7.099  11.588
67621SOL     OW 4701  13.520  13.393  11.660
67621SOL    HW1 4702  13.447  13.430  11.711
67621SOL    HW2 4703  13.574  13.348  11.724
67622SOL     OW 4704  13.108  14.205   4.588
67622SOL    HW1 4705  13.089  14.229   4.679
67622SOL    HW2 4706  13.028  14.227   4.540
67623SOL     OW 4707   8.199   1.429   5.793
67623SOL    HW1 4708   8.131   1.497   5.785
67623SOL    HW2 4709   8.278   1.471   5.758
67624SOL     OW 4710   0.490   7.318   8.413
67624SOL    HW1 4711   0.483   7.265   8.491
67624SOL    HW2 4712   0.423   7.386   8.424
67625SOL     OW 4713   6.612  11.827  12.788
67625SOL    HW1 4714   6.596  11.879  12.867
67625SOL    HW2 4715   6.618  11.890  12.717
67626SOL     OW 4716   0.273  11.239  12.008
67626SOL    HW1 4717   0.338  11.181  11.968
67626SOL    HW2 4718   0.307  11.257  12.095
67627SOL     OW 4719   9.420   7.398   5.650
67627SOL    HW1 4720   9.431   7.401   5.555
67627SOL    HW2 4721   9.480   7.329   5.679
67628SOL     OW 4722   6.562   9.117   3.213
67628SOL    HW1 4723   6.609   9.198   3.229
67628SOL    HW2 4724   6.470   9.139   3.232
67629SOL     OW 4725   1.479   7.678   7.155
67629SOL    HW1 4726   1.449   7.711   7.070
67629SOL    HW2 4727   1.454   7.585   7.155
67630SOL     OW 4728   3.402   2.432   1.901
67630SOL    HW1 4729   3.385   2.443   1.808
67630SOL    HW2 4730   3.378   2.342   1.919
67631SOL     OW 4731   3.001   9.964   1.267
67631SOL    HW1 4732   2.963   9.941   1.351
67631SOL    HW2 4733   3.065  10.033   1.286
67632SOL     OW 4734   0.097   6.686   1.117
67632SOL    HW1 4735   0.152   6.680   1.195
67632SOL    HW2 4736   0.146   6.742   1.058
67633SOL     OW 4737  13.874  13.276  10.193
67633SOL    HW1 4738  13.815  13.299  10.265
67633SOL    HW2 4739  13.955  13.247  10.235
67634SOL     OW 4740  10.291  10.393   8.842
67634SOL    HW1 4741  10.350  10.363   8.773
67634SOL    HW2 4742  10.335  10.469   8.880
67635SOL     OW 4743   5.054  12.385   8.405
67635SOL    HW1 4744   5.048  12.382   8.500
67635SOL    HW2 4745   5.142  12.419   8.388
67636SOL     OW 4746   9.993   9.123   0.648
67636SOL    HW1 4747   9.977   9.100   0.740
67636SOL    HW2 4748   9.917   9.177   0.624
67637SOL     OW 4749  11.576  10.314   9.714
67637SOL    HW1 4750  11.643  10.378   9.737
67637SOL    HW2 4751  11.586  10.300   9.620
67638SOL     OW 4752   9.318   4.712  10.398
67638SOL    HW1 4753   9.331   4.807  10.406
67638SOL    HW2 4754   9.300   4.699  10.305
67639SOL     OW 4755  10.211  11.230  13.596
67639SOL    HW1 4756  10.246  11.159  13.649
67639SOL    HW2 4757  10.288  11.282  13.572
67640SOL     OW 4758   2.427   8.450  10.128
67640SOL    HW1 4759   2.413   8.430  10.036
67640SOL    HW2 4760   2.340   8.471  10.162
67641SOL     OW 4761  12.531  13.884  10.471
67641SOL    HW1 4762  12.579  13.830  10.408
67641SOL    HW2 4763  12.452  13.834  10.490
67642SOL     OW 4764  11.205  11.348  13.867
67642SOL    HW1 4765  11.259  11.301  13.930
67642SOL    HW2 4766  11.228  11.310  13.782
67643SOL     OW 4767  13.979   3.075   9.814
67643SOL    HW1 4768  14.014   3.164   9.818
67643SOL    HW2 4769  14.055   3.018   9.823
67644SOL     OW 4770  11.564   6.697   5.624
67644SOL    HW1 4771  11.608   6.781   5.608
67644SOL    HW2 4772  11.471   6.720   5.628
67645SOL     OW 4773  11.501   3.536   4.280
67645SOL    HW1 4774  11.469   3.563   4.193
67645SOL    HW2 4775  11.431   3.563   4.340
67646SOL     OW 4776   2.100   7.297  13.960
67646SOL    HW1 4777   2.066   7.386  13.954
67646SOL    HW2 4778   2.172   7.294  13.896
67647SOL     OW 4779   9.619   6.803   2.854
67647SOL    HW1 4780   9.669   6.735   2.809
67647SOL    HW2 4781   9.675   6.829   2.927
67648SOL     OW 4782   9.318   9.165   1.452
67648SOL    HW1 4783   9.306   9.224   1.526
67648SOL    HW2 4784   9.261   9.200   1.383
67649SOL     OW 4785   4.356  13.492   7.891
67649SOL    HW1 4786   4.355  13.587   7.902
67649SOL    HW2 4787   4.389  13.459   7.975
67650SOL     OW 4788   3.306   7.181   1.803
67650SOL    HW1 4789   3.373   7.244   1.829
67650SOL    HW2 4790   3.231   7.236   1.777
67651SOL     OW 4791  12.197   3.728   0.398
67651SOL    HW1 4792  12.181   3.741   0.491
67651SOL    HW2 4793  12.112   3.744   0.356
67652SOL     OW 4794  14.406   6.429   4.298
67652SOL    HW1 4795  14.354   6.488   4.243
67652SOL    HW2 4796  14.450   6.371   4.236
67653SOL     OW 4797   8.142   8.655   2.474
67653SOL    HW1 4798   8.191   8.702   2.406
67653SOL    HW2 4799   8.061   8.629   2.430
67654SOL     OW 4800   8.046   9.148  10.052
67654SOL    HW1 4801   7.964   9.183  10.016
67654SOL    HW2 4802   8.042   9.055  10.032
67655SOL     OW 4803   1.543   7.774  14.761
67655SOL    HW1 4804   1.627   7.803  14.725
67655SOL    HW2 4805   1.537   7.681  14.737
67656SOL     OW 4806   2.312   3.280   6.435
67656SOL    HW1 4807   2.394   3.262   6.389
67656SOL    HW2 4808   2.259   3.201   6.424
67657SOL     OW 4809   4.237   5.463   3.164
67657SOL    HW1 4810   4.166   5.398   3.162
67657SOL    HW2 4811   4.244   5.494   3.073
67658SOL     OW 4812   6.077  13.264  12.056
67658SOL    HW1 4813   5.988  13.297  12.068
67658SOL    HW2 4814   6.096  13.216  12.137
67659SOL     OW 4815  13.839   5.342   8.907
67659SOL    HW1 4816  13.884   5.294   8.976
67659SOL    HW2 4817  13.768   5.285   8.879
67660SOL     OW 4818   5.759   2.666   4.230
67660SOL    HW1 4819   5.781   2.592   4.286
67660SOL    HW2 4820   5.814   2.737   4.262
67661SOL     OW 4821   0.279  13.653   2.217
67661SOL    HW1 4822   0.302  13.654   2.310
67661SOL    HW2 4823   0.289  13.561   2.192
67662SOL     OW 4824   0.546   8.864  13.441
67662SOL    HW1 4825   0.551   8.795  13.375
67662SOL    HW2 4826   0.523   8.818  13.522
67663SOL     OW 4827   2.593  11.620  13.495
67663SOL    HW1 4828   2.519  11.658  13.448
67663SOL    HW2 4829   2.661  11.688  13.492
67664SOL     OW 4830   1.609   3.361   4.180
67664SOL    HW1 4831   1.663   3.293   4.222
67664SOL    HW2 4832   1.652   3.443   4.205
67665SOL     OW 4833  13.250  11.683  14.092
67665SOL    HW1 4834  13.280  11.686  14.001
67665SOL    HW2 4835  13.195  11.605  14.097
67666SOL     OW 4836   9.914   8.349   2.596
67666SOL    HW1 4837   9.942   8.264   2.629
67666SOL    HW2 4838   9.821   8.355   2.620
67667SOL     OW 4839   6.301   1.930  13.956
67667SOL    HW1 4840   6.324   1.837  13.951
67667SOL    HW2 4841   6.290   1.947  14.050
67668SOL     OW 4842   5.732   1.323   5.508
67668SOL    HW1 4843   5.729   1.261   5.580
67668SOL    HW2 4844   5.663   1.387   5.527
67669SOL     OW 4845   1.619   3.255   0.033
67669SOL    HW1 4846   1.605   3.227   0.123
67669SOL    HW2 4847   1.701   3.303   0.035
67670SOL     OW 4848  13.202   8.906   4.639
67670SOL    HW1 4849  13.153   8.920   4.719
67670SOL    HW2 4850  13.202   8.811   4.627
67671SOL     OW 4851  12.611   5.128   0.536
67671SOL    HW1 4852  12.695   5.155   0.498
67671SOL    HW2 4853  12.634   5.088   0.620
67672SOL     OW 4854  11.853   1.892  12.190
67672SOL    HW1 4855  11.817   1.836  12.121
67672SOL    HW2 4856  11.861   1.978  12.149
67673SOL     OW 4857  12.301   9.405   4.429
67673SOL    HW1 4858  12.289   9.430   4.337
67673SOL    HW2 4859  12.345   9.480   4.469
67674SOL     OW 4860   7.685   9.968  10.958
67674SOL    HW1 4861   7.712   9.882  10.990
67674SOL    HW2 4862   7.603   9.987  11.003
67675SOL     OW 4863   3.167   9.284   9.363
67675SOL    HW1 4864   3.158   9.344   9.289
67675SOL    HW2 4865   3.219   9.334   9.427
67676SOL     OW 4866  12.829  10.372   2.474
67676SOL    HW1 4867  12.874  10.418   2.545
67676SOL    HW2 4868  12.777  10.305   2.519
67677SOL     OW 4869   3.035  11.400   7.062
67677SOL    HW1 4870   2.991  11.350   6.994
67677SOL    HW2 4871   3.127  11.401   7.035
67678SOL     OW 4872   2.724   2.368   5.862
67678SOL    HW1 4873   2.635   2.368   5.826
67678SOL    HW2 4874   2.744   2.461   5.875
67679SOL     OW 4875   7.525   8.958  13.946
67679SOL    HW1 4876   7.536   9.053  13.940
67679SOL    HW2 4877   7.587   8.931  14.013
67680SOL     OW 4878  14.215  11.877   7.382
67680SOL    HW1 4879  14.176  11.798   7.345
67680SOL    HW2 4880  14.219  11.860   7.476
67681SOL     OW 4881   9.468   3.986  13.743
67681SOL    HW1 4882   9.534   4.052  13.721
67681SOL    HW2 4883   9.398   3.999  13.678
67682SOL     OW 4884  10.737   0.108  14.239
67682SOL    HW1 4885  10.659   0.130  14.291
67682SOL    HW2 4886  10.706   0.108  14.149
67683SOL     OW 4887   2.691   4.649  12.757
67683SOL    HW1 4888   2.711   4.620  12.846
67683SOL    HW2 4889   2.609   4.606  12.734
67684SOL     OW 4890   4.756  12.384   4.537
67684SOL    HW1 4891   4.702  12.383   4.458
67684SOL    HW2 4892   4.706  12.436   4.600
67685SOL     OW 4893   6.995   5.155   3.773
67685SOL    HW1 4894   7.042   5.138   3.855
67685SOL    HW2 4895   7.008   5.076   3.721
67686SOL     OW 4896  12.922   2.789   9.126
67686SOL    HW1 4897  12.888   2.706   9.159
67686SOL    HW2 4898  12.845   2.839   9.098
67687SOL     OW 4899   7.222  14.594   0.076
67687SOL    HW1 4900   7.265  14.679   0.068
67687SOL    HW2 4901   7.262  14.540   0.008
67688SOL     OW 4902   9.034   4.000  11.312
67688SOL    HW1 4903   9.128   4.004  11.295
67688SOL    HW2 4904   8.994   4.005  11.225
67689SOL     OW 4905   9.722   0.229   1.601
67689SOL    HW1 4906   9.743   0.136   1.608
67689SOL    HW2 4907   9.728   0.248   1.507
67690SOL     OW 4908   0.504   4.927  13.326
67690SOL    HW1 4909   0.414   4.954  13.309
67690SOL    HW2 4910   0.504   4.896  13.416
67691SOL     OW 4911  10.573  13.931   4.172
67691SOL    HW1 4912  10.638  13.940   4.102
67691SOL    HW2 4913  10.575  13.838   4.195
67692SOL     OW 4914   0.740   3.262   8.749
67692SOL    HW1 4915   0.659   3.245   8.796
67692SOL    HW2 4916   0.726   3.347   8.707
67693SOL     OW 4917   0.049  12.241   6.703
67693SOL    HW1 4918  14.855  12.192   6.667
67693SOL    HW2 4919   0.012  12.290   6.776
67694SOL     OW 4920  10.937  11.754  10.944
67694SOL    HW1 4921  11.020  11.793  10.972
67694SOL    HW2 4922  10.927  11.781  10.853
67695SOL     OW 4923   8.496   9.684   8.750
67695SOL    HW1 4924   8.429   9.741   8.786
67695SOL    HW2 4925   8.463   9.595   8.765
67696SOL     OW 4926   1.130   7.227   6.589
67696SOL    HW1 4927   1.122   7.167   6.663
67696SOL    HW2 4928   1.213   7.203   6.547
67697SOL     OW 4929   0.524   6.350   5.492
67697SOL    HW1 4930   0.572   6.432   5.504
67697SOL    HW2 4931   0.588   6.290   5.456
67698SOL     OW 4932   2.161   4.059   5.494
67698SOL    HW1 4933   2.229   4.115   5.457
67698SOL    HW2 4934   2.079   4.095   5.459
67699SOL     OW 4935   4.922   2.348  11.673
67699SOL    HW1 4936   4.867   2.272  11.655
67699SOL    HW2 4937   4.975   2.322  11.749
67700SOL     OW 4938   1.203   9.019   3.939
67700SOL    HW1 4939   1.152   9.056   4.011
67700SOL    HW2 4940   1.247   8.943   3.977
67701SOL     OW 4941  12.366  12.952  14.386
67701SOL    HW1 4942  12.313  13.031  14.392
67701SOL    HW2 4943  12.366  12.929  14.293
67702SOL     OW 4944   6.765  12.660   5.613
67702SOL    HW1 4945   6.810  12.735   5.653
67702SOL    HW2 4946   6.831  12.590   5.612
67703SOL     OW 4947   4.111   7.182   6.517
67703SOL    HW1 4948   4.112   7.274   6.491
67703SOL    HW2 4949   4.134   7.182   6.610
67704SOL     OW 4950   9.890   8.013  11.893
67704SOL    HW1 4951   9.963   8.059  11.935
67704SOL    HW2 4952   9.872   7.939  11.952
67705SOL     OW 4953   2.800   4.355   6.112
67705SOL    HW1 4954   2.759   4.327   6.194
67705SOL    HW2 4955   2.745   4.317   6.044
67706SOL     OW 4956  12.323   2.430  11.006
67706SOL    HW1 4957  12.411   2.427  11.044
67706SOL    HW2 4958  12.337   2.445  10.913
67707SOL     OW 4959   6.682   2.463   0.356
67707SOL    HW1 4960   6.706   2.490   0.267
67707SOL    HW2 4961   6.766   2.441   0.398
67708SOL     OW 4962   1.444   8.921   8.939
67708SOL    HW1 4963   1.451   8.961   9.026
67708SOL    HW2 4964   1.406   8.835   8.955
67709SOL     OW 4965   0.849   4.632   0.879
67709SOL    HW1 4966   0.781   4.580   0.922
67709SOL    HW2 4967   0.921   4.570   0.864
67710SOL     OW 4968  10.381   6.333   1.364
67710SOL    HW1 4969  10.345   6.331   1.452
67710SOL    HW2 4970  10.377   6.242   1.334
67711SOL     OW 4971   0.315  11.478   4.039
67711SOL    HW1 4972   0.240  11.530   4.013
67711SOL    HW2 4973   0.369  11.472   3.960
67712SOL     OW 4974   2.039   0.382  10.488
67712SOL    HW1 4975   2.027   0.375  10.394
67712SOL    HW2 4976   1.965   0.333  10.525
67713SOL     OW 4977   2.660   2.478   3.818
67713SOL    HW1 4978   2.735   2.490   3.876
67713SOL    HW2 4979   2.677   2.394   3.774
67714SOL     OW 4980  10.049   5.386   3.852
67714SOL    HW1 4981  10.139   5.406   3.876
67714SOL    HW2 4982  10.018   5.328   3.922
67715SOL     OW 4983  12.991   3.129   5.198
67715SOL    HW1 4984  13.004   3.050   5.146
67715SOL    HW2 4985  13.080   3.162   5.213
67716SOL     OW 4986   7.006   1.241   0.824
67716SOL    HW1 4987   6.950   1.181   0.872
67716SOL    HW2 4988   7.076   1.186   0.789
67717SOL     OW 4989   2.415  11.274   7.018
67717SOL    HW1 4990   2.384  11.349   7.068
67717SOL    HW2 4991   2.504  11.298   6.991
67718SOL     OW 4992   2.288  11.575   0.347
67718SOL    HW1 4993   2.204  11.529   0.346
67718SOL    HW2 4994   2.285  11.633   0.271
67719SOL     OW 4995  14.578   6.971   5.515
67719SOL    HW1 4996  14.540   7.028   5.582
67719SOL    HW2 4997  14.582   6.885   5.556
67720SOL     OW 4998   9.589   4.329   1.244
67720SOL    HW1 4999   9.512   4.301   1.294
67720SOL    HW2 5000   9.613   4.413   1.283
67721SOL     OW 5001   0.533  12.944   5.481
67721SOL    HW1 5002   0.581  13.021   5.509
67721SOL    HW2 5003   0.496  12.907   5.561
67722SOL     OW 5004  12.935  12.543  13.730
67722SOL    HW1 5005  13.027  12.560  13.709
67722SOL    HW2 5006  12.923  12.583  13.816
67723SOL     OW 5007   9.745   4.829  11.977
67723SOL    HW1 5008   9.721   4.738  11.996
67723SOL    HW2 5009   9.802   4.854  12.050
67724SOL     OW 5010  12.401   6.458  13.295
67724SOL    HW1 5011  12.416   6.530  13.235
67724SOL    HW2 5012  12.454   6.479  13.372
67725SOL     OW 5013   6.356   3.123  13.137
67725SOL    HW1 5014   6.309   3.042  13.157
67725SOL    HW2 5015   6.422   3.097  13.073
67726SOL     OW 5016  10.536  12.184   7.559
67726SOL    HW1 5017  10.459  12.182   7.616
67726SOL    HW2 5018  10.610  12.174   7.618
67727SOL     OW 5019  12.695  13.519  13.314
67727SOL    HW1 5020  12.732  13.607  13.306
67727SOL    HW2 5021  12.619  13.530  13.371
67728SOL     OW 5022  10.748   7.513   0.309
67728SOL    HW1 5023  10.702   7.555   0.236
67728SOL    HW2 5024  10.815   7.576   0.335
67729SOL     OW 5025   2.210   0.616   8.021
67729SOL    HW1 5026   2.176   0.651   7.939
67729SOL    HW2 5027   2.274   0.680   8.051
67730SOL     OW 5028   5.722   6.628   6.514
67730SOL    HW1 5029   5.806   6.673   6.511
67730SOL    HW2 5030   5.709   6.609   6.607
67731SOL     OW 5031   9.312   3.970   1.220
67731SOL    HW1 5032   9.221   3.956   1.191
67731SOL    HW2 5033   9.343   3.882   1.241
67732SOL     OW 5034   4.973  12.557  12.240
67732SOL    HW1 5035   4.976  12.557  12.145
67732SOL    HW2 5036   4.927  12.476  12.263
67733SOL     OW 5037   2.086  10.010   8.172
67733SOL    HW1 5038   2.145   9.935   8.160
67733SOL    HW2 5039   2.144  10.083   8.193
67734SOL     OW 5040   7.347   6.625  14.482
67734SOL    HW1 5041   7.388   6.680  14.415
67734SOL    HW2 5042   7.278   6.681  14.519
67735SOL     OW 5043  14.687   2.353  12.746
67735SOL    HW1 5044  14.766   2.391  12.708
67735SOL    HW2 5045  14.715   2.268  12.779
67736SOL     OW 5046   7.766   7.323   3.001
67736SOL    HW1 5047   7.861   7.323   3.008
67736SOL    HW2 5048   7.738   7.402   3.046
67737SOL     OW 5049  13.677   0.540  10.277
67737SOL    HW1 5050  13.677   0.508  10.186
67737SOL    HW2 5051  13.584   0.555  10.296
67738SOL     OW 5052   2.129  14.026  10.985
67738SOL    HW1 5053   2.058  13.972  11.021
67738SOL    HW2 5054   2.115  14.024  10.890
67739SOL     OW 5055   6.680   8.055  10.712
67739SOL    HW1 5056   6.730   8.088  10.787
67739SOL    HW2 5057   6.746   8.031  10.647
67740SOL     OW 5058  14.573  14.130   7.700
67740SOL    HW1 5059  14.636  14.190   7.660
67740SOL    HW2 5060  14.494  14.183   7.713
67741SOL     OW 5061  13.605   8.462  10.105
67741SOL    HW1 5062  13.544   8.403  10.061
67741SOL    HW2 5063  13.681   8.465  10.047
67742SOL     OW 5064   9.701   8.483   5.299
67742SOL    HW1 5065   9.758   8.410   5.273
67742SOL    HW2 5066   9.654   8.507   5.219
67743SOL     OW 5067   0.289  14.777  12.352
67743SOL    HW1 5068   0.335  14.735  12.278
67743SOL    HW2 5069   0.203  14.799  12.316
67744SOL     OW 5070   2.046   1.202   3.894
67744SOL    HW1 5071   2.103   1.135   3.856
67744SOL    HW2 5072   2.068   1.202   3.987
67745SOL     OW 5073   0.238   8.267   6.752
67745SOL    HW1 5074   0.255   8.320   6.829
67745SOL    HW2 5075   0.186   8.193   6.784
67746SOL     OW 5076   7.325   1.565  14.756
67746SOL    HW1 5077   7.285   1.489  14.715
67746SOL    HW2 5078   7.416   1.539  14.774
67747SOL     OW 5079   2.551   2.902  12.423
67747SOL    HW1 5080   2.501   2.821  12.423
67747SOL    HW2 5081   2.487   2.971  12.409
67748SOL     OW 5082  11.413   1.813   4.887
67748SOL    HW1 5083  11.470   1.740   4.912
67748SOL    HW2 5084  11.337   1.805   4.945
67749SOL     OW 5085  13.467  12.963   8.452
67749SOL    HW1 5086  13.429  12.988   8.367
67749SOL    HW2 5087  13.413  12.890   8.481
67750SOL     OW 5088   4.791  12.230   8.439
67750SOL    HW1 5089   4.860  12.293   8.458
67750SOL    HW2 5090   4.820  12.150   8.483
67751SOL     OW 5091   9.768  11.643   5.810
67751SOL    HW1 5092   9.863  11.651   5.811
67751SOL    HW2 5093   9.746  11.618   5.720
67752SOL     OW 5094   9.467   2.812  14.532
67752SOL    HW1 5095   9.374   2.808  14.551
67752SOL    HW2 5096   9.472   2.825  14.437
67753SOL     OW 5097   4.364   5.158   2.650
67753SOL    HW1 5098   4.433   5.221   2.670
67753SOL    HW2 5099   4.371   5.092   2.720
67754SOL     OW 5100   1.882   1.757  12.539
67754SOL    HW1 5101   1.916   1.685  12.593
67754SOL    HW2 5102   1.956   1.818  12.532
67755SOL     OW 5103   6.093  12.698   7.307
67755SOL    HW1 5104   6.119  12.689   7.398
67755SOL    HW2 5105   5.999  12.679   7.307
67756SOL     OW 5106  10.364  11.150   0.787
67756SOL    HW1 5107  10.390  11.242   0.788
67756SOL    HW2 5108  10.297  11.144   0.719
67757SOL     OW 5109  14.792   9.737   9.712
67757SOL    HW1 5110  14.802   9.817   9.764
67757SOL    HW2 5111  14.772   9.769   9.624
67758SOL     OW 5112  11.669   8.642  11.576
67758SOL    HW1 5113  11.674   8.728  11.617
67758SOL    HW2 5114  11.625   8.657  11.493
67759SOL     OW 5115  13.755   6.018   6.883
67759SOL    HW1 5116  13.664   5.991   6.870
67759SOL    HW2 5117  13.759   6.107   6.847
67760SOL     OW 5118   0.173   8.726   5.327
67760SOL    HW1 5119   0.123   8.666   5.382
67760SOL    HW2 5120   0.108   8.788   5.295
67761SOL     OW 5121   5.908   4.249  12.820
67761SOL    HW1 5122   5.985   4.303  12.801
67761SOL    HW2 5123   5.909   4.239  12.915
67762SOL     OW 5124   7.837   6.605   0.056
67762SOL    HW1 5125   7.755   6.634   0.095
67762SOL    HW2 5126   7.872   6.540   0.117
67763SOL     OW 5127  10.912   3.637   9.590
67763SOL    HW1 5128  10.892   3.703   9.523
67763SOL    HW2 5129  11.003   3.613   9.575
67764SOL     OW 5130   4.350   8.914   9.275
67764SOL    HW1 5131   4.355   8.853   9.201
67764SOL    HW2 5132   4.258   8.914   9.300
67765SOL     OW 5133   2.618   3.588   2.142
67765SOL    HW1 5134   2.568   3.614   2.065
67765SOL    HW2 5135   2.568   3.517   2.181
67766SOL     OW 5136   7.516   8.944   4.751
67766SOL    HW1 5137   7.536   8.961   4.843
67766SOL    HW2 5138   7.529   8.850   4.740
67767SOL     OW 5139  14.706   6.214   3.641
67767SOL    HW1 5140  14.738   6.136   3.596
67767SOL    HW2 5141  14.773   6.280   3.625
67768SOL     OW 5142  10.607   3.614   6.556
67768SOL    HW1 5143  10.515   3.591   6.567
67768SOL    HW2 5144  10.653   3.531   6.563
67769SOL     OW 5145  14.336  11.852   0.411
67769SOL    HW1 5146  14.244  11.858   0.385
67769SOL    HW2 5147  14.335  11.868   0.505
67770SOL     OW 5148  14.201   6.963   1.105
67770SOL    HW1 5149  14.228   6.959   1.013
67770SOL    HW2 5150  14.267   6.913   1.152
67771SOL     OW 5151   0.944   9.500   0.199
67771SOL    HW1 5152   0.980   9.532   0.282
67771SOL    HW2 5153   1.003   9.429   0.173
67772SOL     OW 5154   4.273   5.653   4.672
67772SOL    HW1 5155   4.353   5.601   4.663
67772SOL    HW2 5156   4.233   5.652   4.586
67773SOL     OW 5157  11.760   0.803  12.354
67773SOL    HW1 5158  11.836   0.764  12.310
67773SOL    HW2 5159  11.798   0.862  12.419
67774SOL     OW 5160  13.036  10.506  12.999
67774SOL    HW1 5161  13.118  10.490  12.952
67774SOL    HW2 5162  13.062  10.560  13.074
67775SOL     OW 5163   0.123  13.360   1.570
67775SOL    HW1 5164   0.148  13.333   1.658
67775SOL    HW2 5165   0.076  13.284   1.534
67776SOL     OW 5166   3.471   9.781  14.602
67776SOL    HW1 5167   3.540   9.802  14.665
67776SOL    HW2 5168   3.515   9.727  14.536
67777SOL     OW 5169  13.113  11.883  11.463
67777SOL    HW1 5170  13.187  11.845  11.415
67777SOL    HW2 5171  13.041  11.882  11.401
67778SOL     OW 5172   7.936  12.092  13.058
67778SOL    HW1 5173   7.884  12.105  13.138
67778SOL    HW2 5174   7.871  12.073  12.990
67779SOL     OW 5175  12.747   1.188   4.722
67779SOL    HW1 5176  12.760   1.201   4.628
67779SOL    HW2 5177  12.659   1.150   4.729
67780SOL     OW 5178  13.189   7.931   0.582
67780SOL    HW1 5179  13.129   7.990   0.628
67780SOL    HW2 5180  13.258   7.988   0.549
67781SOL     OW 5181   8.992   2.622  14.656
67781SOL    HW1 5182   8.947   2.609  14.573
67781SOL    HW2 5183   9.068   2.565  14.653
67782SOL     OW 5184   5.432   8.682  11.979
67782SOL    HW1 5185   5.410   8.589  11.976
67782SOL    HW2 5186   5.411   8.708  12.069
67783SOL     OW 5187   1.123   3.880   9.321
67783SOL    HW1 5188   1.124   3.960   9.373
67783SOL    HW2 5189   1.122   3.911   9.230
67784SOL     OW 5190   2.470   8.513  10.975
67784SOL    HW1 5191   2.479   8.547  10.885
67784SOL    HW2 5192   2.544   8.453  10.985
67785SOL     OW 5193   0.785   8.996   4.066
67785SOL    HW1 5194   0.728   9.023   3.994
67785SOL    HW2 5195   0.873   9.011   4.033
67786SOL     OW 5196  13.758   2.879  11.193
67786SOL    HW1 5197  13.792   2.838  11.272
67786SOL    HW2 5198  13.726   2.806  11.139
67787SOL     OW 5199  14.746   9.016  12.853
67787SOL    HW1 5200  14.693   9.095  12.842
67787SOL    HW2 5201  14.750   8.977  12.766
67788SOL     OW 5202   2.915   9.183   9.435
67788SOL    HW1 5203   2.924   9.218   9.524
67788SOL    HW2 5204   3.001   9.197   9.395
67789SOL     OW 5205   3.753  14.421  13.933
67789SOL    HW1 5206   3.735  14.327  13.939
67789SOL    HW2 5207   3.679  14.456  13.884
67790SOL     OW 5208  13.112  11.934   7.391
67790SOL    HW1 5209  13.159  11.854   7.415
67790SOL    HW2 5210  13.021  11.906   7.382
67791SOL     OW 5211  10.718  14.727  11.393
67791SOL    HW1 5212  10.668  14.733  11.474
67791SOL    HW2 5213  10.807  14.752  11.417
67792SOL     OW 5214   8.804   7.944   8.605
67792SOL    HW1 5215   8.774   7.873   8.662
67792SOL    HW2 5216   8.851   8.003   8.663
67793SOL     OW 5217   0.790  13.313   3.875
67793SOL    HW1 5218   0.866  13.297   3.931
67793SOL    HW2 5219   0.722  13.255   3.909
67794SOL     OW 5220   3.750  12.608   0.152
67794SOL    HW1 5221   3.703  12.675   0.103
67794SOL    HW2 5222   3.824  12.585   0.096
67795SOL     OW 5223   8.690  10.243   3.663
67795SOL    HW1 5224   8.600  10.274   3.677
67795SOL    HW2 5225   8.680  10.150   3.645
67796SOL     OW 5226   5.613   7.416   0.544
67796SOL    HW1 5227   5.565   7.481   0.493
67796SOL    HW2 5228   5.550   7.345   0.557
67797SOL     OW 5229   0.393  11.104   9.089
67797SOL    HW1 5230   0.419  11.189   9.053
67797SOL    HW2 5231   0.407  11.113   9.183
67798SOL     OW 5232   8.028   0.764  11.505
67798SOL    HW1 5233   8.077   0.720  11.575
67798SOL    HW2 5234   7.939   0.729  11.514
67799SOL     OW 5235  12.947  11.611   3.002
67799SOL    HW1 5236  13.012  11.576   3.063
67799SOL    HW2 5237  12.999  11.647   2.930
67800SOL     OW 5238   4.994   3.278   0.729
67800SOL    HW1 5239   5.038   3.359   0.754
67800SOL    HW2 5240   4.902   3.303   0.718
67801SOL     OW 5241   6.237  14.655   9.849
67801SOL    HW1 5242   6.202  14.579   9.897
67801SOL    HW2 5243   6.323  14.670   9.888
67802SOL     OW 5244  14.713  14.673   9.454
67802SOL    HW1 5245  14.677  14.631   9.375
67802SOL    HW2 5246  14.786  14.616   9.480
67803SOL     OW 5247   8.836   7.978   7.217
67803SOL    HW1 5248   8.888   7.951   7.293
67803SOL    HW2 5249   8.826   7.899   7.166
67804SOL     OW 5250   0.679   4.360   4.424
67804SOL    HW1 5251   0.717   4.350   4.337
67804SOL    HW2 5252   0.743   4.414   4.472
67805SOL     OW 5253   0.145  14.172   9.682
67805SOL    HW1 5254   0.217  14.192   9.742
67805SOL    HW2 5255   0.113  14.258   9.653
67806SOL     OW 5256  13.044   7.973  14.333
67806SOL    HW1 5257  13.138   7.975  14.318
67806SOL    HW2 5258  13.019   7.882  14.316
67807SOL     OW 5259  12.777   2.969  13.947
67807SOL    HW1 5260  12.723   2.950  14.024
67807SOL    HW2 5261  12.820   2.886  13.928
67808SOL     OW 5262  10.486  10.071  13.848
67808SOL    HW1 5263  10.548  10.072  13.775
67808SOL    HW2 5264  10.436   9.990  13.836
67809SOL     OW 5265   6.643   6.678  14.590
67809SOL    HW1 5266   6.692   6.757  14.568
67809SOL    HW2 5267   6.609   6.646  14.506
67810SOL     OW 5268   8.564   5.358   8.224
67810SOL    HW1 5269   8.624   5.285   8.239
67810SOL    HW2 5270   8.528   5.342   8.137
67811SOL     OW 5271   0.396   1.256   9.270
67811SOL    HW1 5272   0.308   1.218   9.279
67811SOL    HW2 5273   0.382   1.350   9.276
67812SOL     OW 5274   8.373   4.583   6.105
67812SOL    HW1 5275   8.306   4.541   6.052
67812SOL    HW2 5276   8.406   4.514   6.161
67813SOL     OW 5277   8.076   5.999   4.951
67813SOL    HW1 5278   8.012   6.069   4.963
67813SOL    HW2 5279   8.028   5.931   4.903
67814SOL     OW 5280   8.642  13.609  10.358
67814SOL    HW1 5281   8.583  13.664  10.410
67814SOL    HW2 5282   8.685  13.671  10.298
67815SOL     OW 5283   2.689   2.536   0.490
67815SOL    HW1 5284   2.764   2.513   0.543
67815SOL    HW2 5285   2.724   2.592   0.421
67816SOL     OW 5286   9.696  14.335   3.113
67816SOL    HW1 5287   9.663  14.251   3.144
67816SOL    HW2 5288   9.739  14.314   3.030
67817SOL     OW 5289   8.087  14.770  14.588
67817SOL    HW1 5290   7.998  14.747  14.562
67817SOL    HW2 5291   8.097  14.732  14.676
67818SOL     OW 5292  10.942  14.201   8.663
67818SOL    HW1 5293  10.967  14.179   8.573
67818SOL    HW2 5294  10.895  14.124   8.694
67819SOL     OW 5295  10.232   2.167   0.996
67819SOL    HW1 5296  10.201   2.181   0.907
67819SOL    HW2 5297  10.235   2.255   1.035
67820SOL     OW 5298   5.520   0.753   9.773
67820SOL    HW1 5299   5.577   0.800   9.834
67820SOL    HW2 5300   5.468   0.822   9.732
67821SOL     OW 5301   9.731   7.241  13.289
67821SOL    HW1 5302   9.759   7.151  13.275
67821SOL    HW2 5303   9.769   7.266  13.373
67822SOL     OW 5304  11.598   1.582   5.513
67822SOL    HW1 5305  11.670   1.609   5.455
67822SOL    HW2 5306  11.633   1.507   5.561
67823SOL     OW 5307  12.866   4.237  14.367
67823SOL    HW1 5308  12.895   4.146  14.372
67823SOL    HW2 5309  12.864   4.268  14.457
67824SOL     OW 5310   8.997  10.841   8.946
67824SOL    HW1 5311   9.092  10.848   8.955
67824SOL    HW2 5312   8.964  10.862   9.033
67825SOL     OW 5313   9.767   5.750  14.433
67825SOL    HW1 5314   9.838   5.697  14.469
67825SOL    HW2 5315   9.788   5.759  14.340
67826SOL     OW 5316  11.194   4.844   2.337
67826SOL    HW1 5317  11.280   4.849   2.378
67826SOL    HW2 5318  11.185   4.927   2.289
67827SOL     OW 5319   2.261   8.169   4.555
67827SOL    HW1 5320   2.277   8.234   4.486
67827SOL    HW2 5321   2.328   8.102   4.540
67828SOL     OW 5322   5.952   0.939   4.876
67828SOL    HW1 5323   5.944   0.864   4.817
67828SOL    HW2 5324   6.043   0.938   4.904
67829SOL     OW 5325  13.876  14.365   7.320
67829SOL    HW1 5326  13.879  14.329   7.231
67829SOL    HW2 5327  13.783  14.369   7.340
67830SOL     OW 5328   2.141   7.214  11.217
67830SOL    HW1 5329   2.123   7.124  11.240
67830SOL    HW2 5330   2.059   7.261  11.233
67831SOL     OW 5331  13.589   1.214  14.709
67831SOL    HW1 5332  13.646   1.269  14.762
67831SOL    HW2 5333  13.544   1.158  14.772
67832SOL     OW 5334   6.855  12.732   6.896
67832SOL    HW1 5335   6.844  12.654   6.950
67832SOL    HW2 5336   6.812  12.711   6.813
67833SOL     OW 5337   6.579   2.878   5.375
67833SOL    HW1 5338   6.492   2.912   5.353
67833SOL    HW2 5339   6.562   2.790   5.408
67834SOL     OW 5340  12.801  10.559   6.483
67834SOL    HW1 5341  12.895  10.545   6.490
67834SOL    HW2 5342  12.787  10.591   6.394
67835SOL     OW 5343   0.918   6.907   6.941
67835SOL    HW1 5344   1.003   6.887   6.979
67835SOL    HW2 5345   0.911   6.849   6.866
67836SOL     OW 5346   0.340   8.972  10.234
67836SOL    HW1 5347   0.344   9.061  10.199
67836SOL    HW2 5348   0.252   8.966  10.273
67837SOL     OW 5349   0.099  12.523   3.512
67837SOL    HW1 5350   0.134  12.603   3.550
67837SOL    HW2 5351   0.075  12.469   3.588
67838SOL     OW 5352   0.438   2.666   4.483
67838SOL    HW1 5353   0.363   2.703   4.529
67838SOL    HW2 5354   0.448   2.579   4.522
67839SOL     OW 5355   9.614   4.390   7.640
67839SOL    HW1 5356   9.567   4.466   7.607
67839SOL    HW2 5357   9.685   4.427   7.694
67840SOL     OW 5358   1.304  14.175   5.698
67840SOL    HW1 5359   1.354  14.251   5.671
67840SOL    HW2 5360   1.326  14.164   5.791
67841SOL     OW 5361  12.184   2.366   8.650
67841SOL    HW1 5362  12.124   2.315   8.705
67841SOL    HW2 5363  12.253   2.304   8.625
67842SOL     OW 5364  13.308  13.151  14.401
67842SOL    HW1 5365  13.282  13.083  14.464
67842SOL    HW2 5366  13.226  13.175  14.358
67843SOL     OW 5367   0.506   7.589   1.383
67843SOL    HW1 5368   0.567   7.618   1.452
67843SOL    HW2 5369   0.448   7.527   1.427
67844SOL     OW 5370   7.229   5.777  14.645
67844SOL    HW1 5371   7.266   5.697  14.608
67844SOL    HW2 5372   7.135   5.757  14.653
67845SOL     OW 5373  13.187   6.985  12.986
67845SOL    HW1 5374  13.201   7.015  13.076
67845SOL    HW2 5375  13.234   7.049  12.932
67846SOL     OW 5376   6.325  10.863   2.091
67846SOL    HW1 5377   6.332  10.800   2.163
67846SOL    HW2 5378   6.387  10.831   2.026
67847SOL     OW 5379   9.060   8.228   6.425
67847SOL    HW1 5380   9.105   8.202   6.344
67847SOL    HW2 5381   9.045   8.322   6.415
67848SOL     OW 5382  13.134  13.683  12.968
67848SOL    HW1 5383  13.189  13.674  12.891
67848SOL    HW2 5384  13.093  13.769  12.958
67849SOL     OW 5385   6.569   0.920   4.000
67849SOL    HW1 5386   6.591   0.837   4.043
67849SOL    HW2 5387   6.493   0.953   4.049
67850SOL     OW 5388  10.604  12.071   2.476
67850SOL    HW1 5389  10.678  12.132   2.475
67850SOL    HW2 5390  10.644  11.984   2.475
67851SOL     OW 5391  11.000  14.666   2.863
67851SOL    HW1 5392  11.019  14.739   2.804
67851SOL    HW2 5393  10.912  14.637   2.837
67852SOL     OW 5394  11.743   6.919   5.618
67852SOL    HW1 5395  11.741   6.981   5.546
67852SOL    HW2 5396  11.836   6.903   5.634
67853SOL     OW 5397   2.182   0.671   3.848
67853SOL    HW1 5398   2.201   0.751   3.897
67853SOL    HW2 5399   2.088   0.657   3.860
67854SOL     OW 5400  14.619  12.809  11.026
67854SOL    HW1 5401  14.571  12.726  11.035
67854SOL    HW2 5402  14.690  12.803  11.090
67855SOL     OW 5403   7.273   2.409   4.679
67855SOL    HW1 5404   7.341   2.473   4.656
67855SOL    HW2 5405   7.299   2.376   4.765
67856SOL     OW 5406  13.129  10.996   8.721
67856SOL    HW1 5407  13.081  11.078   8.708
67856SOL    HW2 5408  13.203  11.002   8.660
67857SOL     OW 5409  14.579   3.626   1.752
67857SOL    HW1 5410  14.596   3.656   1.663
67857SOL    HW2 5411  14.625   3.688   1.808
67858SOL     OW 5412   0.133   3.960   5.737
67858SOL    HW1 5413   0.087   3.977   5.656
67858SOL    HW2 5414   0.223   3.941   5.710
67859SOL     OW 5415  13.395   9.378   9.766
67859SOL    HW1 5416  13.366   9.400   9.855
67859SOL    HW2 5417  13.345   9.436   9.709
67860SOL     OW 5418   3.773  14.399  12.363
67860SOL    HW1 5419   3.844  14.370  12.306
67860SOL    HW2 5420   3.731  14.470  12.316
67861SOL     OW 5421  10.673  12.811   9.611
67861SOL    HW1 5422  10.652  12.719   9.620
67861SOL    HW2 5423  10.650  12.832   9.520
67862SOL     OW 5424  11.515  13.759   4.747
67862SOL    HW1 5425  11.482  13.828   4.806
67862SOL    HW2 5426  11.599  13.734   4.785
67863SOL     OW 5427  10.180   4.015   8.311
67863SOL    HW1 5428  10.141   4.083   8.256
67863SOL    HW2 5429  10.259   3.988   8.264
67864SOL     OW 5430  10.930   5.752  13.005
67864SOL    HW1 5431  10.933   5.668  12.959
67864SOL    HW2 5432  10.900   5.815  12.939
67865SOL     OW 5433   4.879   5.307  11.861
67865SOL    HW1 5434   4.857   5.397  11.883
67865SOL    HW2 5435   4.800   5.257  11.883
67866SOL     OW 5436   3.265  13.426  11.810
67866SOL    HW1 5437   3.211  13.502  11.794
67866SOL    HW2 5438   3.248  13.368  11.736
67867SOL     OW 5439  13.428  11.554   9.740
67867SOL    HW1 5440  13.504  11.500   9.721
67867SOL    HW2 5441  13.379  11.556   9.658
67868SOL     OW 5442  12.630   9.532  11.839
67868SOL    HW1 5443  12.648   9.603  11.900
67868SOL    HW2 5444  12.581   9.468  11.891
67869SOL     OW 5445  12.285   9.813   7.806
67869SOL    HW1 5446  12.287   9.719   7.825
67869SOL    HW2 5447  12.376   9.839   7.798
67870SOL     OW 5448   1.875  12.120  13.009
67870SOL    HW1 5449   1.790  12.081  12.987
67870SOL    HW2 5450   1.853  12.193  13.068
67871SOL     OW 5451   2.970   6.942   9.055
67871SOL    HW1 5452   2.917   6.972   9.129
67871SOL    HW2 5453   2.962   7.013   8.990
67872SOL     OW 5454  11.772   6.981  12.478
67872SOL    HW1 5455  11.718   7.036  12.535
67872SOL    HW2 5456  11.767   7.023  12.392
67873SOL     OW 5457  11.692   3.670   6.248
67873SOL    HW1 5458  11.627   3.608   6.280
67873SOL    HW2 5459  11.774   3.640   6.286
67874SOL     OW 5460  12.737   4.727   7.579
67874SOL    HW1 5461  12.696   4.752   7.496
67874SOL    HW2 5462  12.826   4.762   7.574
67875SOL     OW 5463  11.454  10.302   1.132
67875SOL    HW1 5464  11.455  10.341   1.220
67875SOL    HW2 5465  11.438  10.376   1.074
67876SOL     OW 5466  12.205  11.399  12.949
67876SOL    HW1 5467  12.238  11.349  13.024
67876SOL    HW2 5468  12.116  11.424  12.975
67877SOL     OW 5469   2.786   5.278   1.820
67877SOL    HW1 5470   2.756   5.234   1.900
67877SOL    HW2 5471   2.715   5.337   1.797
67878SOL     OW 5472   5.400  10.379   4.280
67878SOL    HW1 5473   5.438  10.401   4.195
67878SOL    HW2 5474   5.325  10.323   4.259
67879SOL     OW 5475   5.888   5.118   0.564
67879SOL    HW1 5476   5.919   5.207   0.579
67879SOL    HW2 5477   5.817   5.107   0.628
67880SOL     OW 5478   1.752   4.906   1.962
67880SOL    HW1 5479   1.693   4.830   1.970
67880SOL    HW2 5480   1.751   4.945   2.049
67881SOL     OW 5481  11.911  14.105   7.367
67881SOL    HW1 5482  11.933  14.039   7.432
67881SOL    HW2 5483  11.862  14.172   7.415
67882SOL     OW 5484   8.292  10.731  12.054
67882SOL    HW1 5485   8.354  10.671  12.013
67882SOL    HW2 5486   8.307  10.815  12.012
67883SOL     OW 5487  13.700   0.840  12.248
67883SOL    HW1 5488  13.732   0.928  12.266
67883SOL    HW2 5489  13.775   0.794  12.212
67884SOL     OW 5490   0.476  14.208   8.793
67884SOL    HW1 5491   0.413  14.198   8.864
67884SOL    HW2 5492   0.434  14.169   8.717
67885SOL     OW 5493  14.389   6.326   8.285
67885SOL    HW1 5494  14.435   6.410   8.287
67885SOL    HW2 5495  14.299   6.349   8.260
67886SOL     OW 5496   8.728   6.038   9.331
67886SOL    HW1 5497   8.806   6.052   9.385
67886SOL    HW2 5498   8.753   6.070   9.244
67887SOL     OW 5499  12.545  12.988  13.100
67887SOL    HW1 5500  12.512  12.982  13.189
67887SOL    HW2 5501  12.614  12.921  13.095
67888SOL     OW 5502   6.792  11.904   5.435
67888SOL    HW1 5503   6.728  11.957   5.481
67888SOL    HW2 5504   6.846  11.967   5.388
67889SOL     OW 5505   8.523   0.719   0.169
67889SOL    HW1 5506   8.434   0.686   0.160
67889SOL    HW2 5507   8.534   0.731   0.264
67890SOL     OW 5508  13.415   3.259   8.820
67890SOL    HW1 5509  13.432   3.198   8.892
67890SOL    HW2 5510  13.457   3.219   8.744
67891SOL     OW 5511   7.597  13.716  14.022
67891SOL    HW1 5512   7.643  13.786  13.976
67891SOL    HW2 5513   7.581  13.649  13.956
67892SOL     OW 5514   8.786   4.821  12.390
67892SOL    HW1 5515   8.750   4.738  12.359
67892SOL    HW2 5516   8.712   4.881  12.389
67893SOL     OW 5517   7.239  13.384   1.733
67893SOL    HW1 5518   7.211  13.293   1.741
67893SOL    HW2 5519   7.335  13.380   1.735
67894SOL     OW 5520   0.627   0.523   1.941
67894SOL    HW1 5521   0.622   0.619   1.939
67894SOL    HW2 5522   0.721   0.504   1.938
67895SOL     OW 5523   7.701   6.172   9.924
67895SOL    HW1 5524   7.757   6.250   9.924
67895SOL    HW2 5525   7.661   6.172   9.837
67896SOL     OW 5526   7.249  13.368  10.848
67896SOL    HW1 5527   7.339  13.374  10.816
67896SOL    HW2 5528   7.254  13.401  10.938
67897SOL     OW 5529   1.858  13.379   8.679
67897SOL    HW1 5530   1.935  13.400   8.626
67897SOL    HW2 5531   1.784  13.417   8.631
67898SOL     OW 5532  13.674  14.320   0.567
67898SOL    HW1 5533  13.643  14.392   0.512
67898SOL    HW2 5534  13.728  14.363   0.634
67899SOL     OW 5535   8.715  11.720   2.542
67899SOL    HW1 5536   8.719  11.626   2.560
67899SOL    HW2 5537   8.637  11.730   2.488
67900SOL     OW 5538   4.712   4.628   9.481
67900SOL    HW1 5539   4.735   4.550   9.431
67900SOL    HW2 5540   4.679   4.594   9.565
67901SOL     OW 5541   9.614   6.178   7.915
67901SOL    HW1 5542   9.704   6.205   7.897
67901SOL    HW2 5543   9.560   6.243   7.870
67902SOL     OW 5544   8.131   8.831   8.311
67902SOL    HW1 5545   8.121   8.869   8.398
67902SOL    HW2 5546   8.102   8.900   8.251
67903SOL     OW 5547   3.554   9.061   3.876
67903SOL    HW1 5548   3.527   8.976   3.840
67903SOL    HW2 5549   3.571   9.116   3.800
67904SOL     OW 5550   1.298  10.234   7.037
67904SOL    HW1 5551   1.390  10.208   7.032
67904SOL    HW2 5552   1.295  10.320   6.995
67905SOL     OW 5553   7.995   6.327  11.768
67905SOL    HW1 5554   8.043   6.294  11.692
67905SOL    HW2 5555   8.062   6.340  11.835
67906SOL     OW 5556  13.535   9.123   6.968
67906SOL    HW1 5557  13.509   9.187   7.034
67906SOL    HW2 5558  13.628   9.110   6.982
67907SOL     OW 5559   6.352   2.110   5.940
67907SOL    HW1 5560   6.364   2.015   5.944
67907SOL    HW2 5561   6.271   2.122   5.890
67908SOL     OW 5562   2.519  12.315  14.362
67908SOL    HW1 5563   2.559  12.388  14.410
67908SOL    HW2 5564   2.503  12.351  14.274
67909SOL     OW 5565   7.898  10.629  12.881
67909SOL    HW1 5566   7.810  10.599  12.905
67909SOL    HW2 5567   7.902  10.619  12.786
67910SOL     OW 5568   3.869   5.790   7.639
67910SOL    HW1 5569   3.794   5.788   7.580
67910SOL    HW2 5570   3.912   5.873   7.620
67911SOL     OW 5571   3.829   6.617   5.980
67911SOL    HW1 5572   3.754   6.676   5.973
67911SOL    HW2 5573   3.859   6.606   5.889
67912SOL     OW 5574   6.114   2.114   2.637
67912SOL    HW1 5575   6.129   2.028   2.676
67912SOL    HW2 5576   6.097   2.171   2.712
67913SOL     OW 5577  12.086   0.698  13.960
67913SOL    HW1 5578  12.082   0.764  14.028
67913SOL    HW2 5579  12.178   0.675  13.953
67914SOL     OW 5580  10.770   7.736   5.855
67914SOL    HW1 5581  10.714   7.682   5.799
67914SOL    HW2 5582  10.808   7.800   5.795
67915SOL     OW 5583   1.759  10.859   0.982
67915SOL    HW1 5584   1.746  10.913   0.904
67915SOL    HW2 5585   1.777  10.772   0.948
67916SOL     OW 5586   1.025  11.314   3.709
67916SOL    HW1 5587   0.963  11.381   3.740
67916SOL    HW2 5588   0.969  11.243   3.678
67917SOL     OW 5589  13.092  11.095   4.224
67917SOL    HW1 5590  13.046  11.128   4.300
67917SOL    HW2 5591  13.047  11.134   4.149
67918SOL     OW 5592  13.675  14.461  10.351
67918SOL    HW1 5593  13.670  14.526  10.421
67918SOL    HW2 5594  13.763  14.472  10.314
67919SOL     OW 5595   5.242   7.542  10.961
67919SOL    HW1 5596   5.299   7.586  10.898
67919SOL    HW2 5597   5.156   7.544  10.920
67920SOL     OW 5598   0.626  14.531  12.919
67920SOL    HW1 5599   0.665  14.617  12.905
67920SOL    HW2 5600   0.534  14.543  12.896
67921SOL     OW 5601   0.807   3.394   7.258
67921SOL    HW1 5602   0.863   3.409   7.334
67921SOL    HW2 5603   0.855   3.431   7.184
67922SOL     OW 5604  10.481   6.506   1.604
67922SOL    HW1 5605  10.435   6.422   1.605
67922SOL    HW2 5606  10.464   6.543   1.691
67923SOL     OW 5607  10.434   2.934   7.006
67923SOL    HW1 5608  10.396   2.864   7.060
67923SOL    HW2 5609  10.431   2.900   6.917
67924SOL     OW 5610   9.726   1.356   9.013
67924SOL    HW1 5611   9.694   1.444   9.034
67924SOL    HW2 5612   9.819   1.359   9.033
67925SOL     OW 5613   0.560  10.695   0.208
67925SOL    HW1 5614   0.605  10.699   0.293
67925SOL    HW2 5615   0.490  10.759   0.216
67926SOL     OW 5616  14.116  10.143   0.236
67926SOL    HW1 5617  14.164  10.062   0.249
67926SOL    HW2 5618  14.042  10.119   0.180
67927SOL     OW 5619   1.367   8.680   1.924
67927SOL    HW1 5620   1.356   8.616   1.994
67927SOL    HW2 5621   1.438   8.644   1.870
67928SOL     OW 5622  13.520  11.778   7.293
67928SOL    HW1 5623  13.598  11.727   7.311
67928SOL    HW2 5624  13.461  11.717   7.249
67929SOL     OW 5625  11.476   0.285   8.592
67929SOL    HW1 5626  11.460   0.222   8.662
67929SOL    HW2 5627  11.418   0.359   8.613
67930SOL     OW 5628  13.643   7.239  12.796
67930SOL    HW1 5629  13.650   7.176  12.868
67930SOL    HW2 5630  13.602   7.189  12.724
67931SOL     OW 5631   7.560   4.134   7.944
67931SOL    HW1 5632   7.517   4.167   8.022
67931SOL    HW2 5633   7.624   4.070   7.976
67932SOL     OW 5634   5.205   9.688   7.956
67932SOL    HW1 5635   5.185   9.714   8.046
67932SOL    HW2 5636   5.300   9.700   7.949
67933SOL     OW 5637  10.015  13.108   8.441
67933SOL    HW1 5638  10.069  13.126   8.363
67933SOL    HW2 5639  10.074  13.123   8.514
67934SOL     OW 5640   7.343  13.567  14.578
67934SOL    HW1 5641   7.391  13.521  14.509
67934SOL    HW2 5642   7.252  13.568  14.547
67935SOL     OW 5643  10.170   1.004   9.022
67935SOL    HW1 5644  10.076   1.016   9.015
67935SOL    HW2 5645  10.180   0.924   9.074
67936SOL     OW 5646  12.792  12.769   7.049
67936SOL    HW1 5647  12.763  12.708   6.982
67936SOL    HW2 5648  12.782  12.720   7.131
67937SOL     OW 5649  12.898  14.534   7.697
67937SOL    HW1 5650  12.809  14.499   7.701
67937SOL    HW2 5651  12.934  14.502   7.614
67938SOL     OW 5652   5.167  12.213   8.697
67938SOL    HW1 5653   5.187  12.226   8.790
67938SOL    HW2 5654   5.120  12.293   8.671
67939SOL     OW 5655   1.123  11.578  11.184
67939SOL    HW1 5656   1.090  11.524  11.256
67939SOL    HW2 5657   1.111  11.668  11.216
67940SOL     OW 5658   4.931  13.827   0.805
67940SOL    HW1 5659   4.938  13.735   0.833
67940SOL    HW2 5660   5.016  13.846   0.766
67941SOL     OW 5661   2.295   7.324   1.503
67941SOL    HW1 5662   2.361   7.354   1.566
67941SOL    HW2 5663   2.249   7.253   1.548
67942SOL     OW 5664  10.765   9.316  10.165
67942SOL    HW1 5665  10.733   9.373  10.094
67942SOL    HW2 5666  10.692   9.312  10.227
67943SOL     OW 5667   9.421  12.891   8.604
67943SOL    HW1 5668   9.361  12.959   8.572
67943SOL    HW2 5669   9.390  12.811   8.562
67944SOL     OW 5670   6.770  11.434  11.759
67944SOL    HW1 5671   6.813  11.411  11.842
67944SOL    HW2 5672   6.698  11.371  11.751
67945SOL     OW 5673  11.680   2.473  13.906
67945SOL    HW1 5674  11.675   2.400  13.845
67945SOL    HW2 5675  11.592   2.480  13.943
67946SOL     OW 5676   9.352  10.620   5.172
67946SOL    HW1 5677   9.400  10.541   5.146
67946SOL    HW2 5678   9.261  10.600   5.150
67947SOL     OW 5679   4.368   1.529   5.348
67947SOL    HW1 5680   4.443   1.529   5.288
67947SOL    HW2 5681   4.391   1.591   5.416
67948SOL     OW 5682   4.227   0.214   4.126
67948SOL    HW1 5683   4.166   0.287   4.135
67948SOL    HW2 5684   4.193   0.164   4.051
67949SOL     OW 5685   7.944   0.291  12.933
67949SOL    HW1 5686   7.963   0.199  12.911
67949SOL    HW2 5687   7.894   0.287  13.014
67950SOL     OW 5688   5.669   6.551   8.024
67950SOL    HW1 5689   5.664   6.464   8.064
67950SOL    HW2 5690   5.625   6.609   8.086
67951SOL     OW 5691   0.400  12.245   5.241
67951SOL    HW1 5692   0.466  12.298   5.196
67951SOL    HW2 5693   0.363  12.190   5.173
67952SOL     OW 5694   4.851   9.912  10.348
67952SOL    HW1 5695   4.869  10.004  10.328
67952SOL    HW2 5696   4.937   9.876  10.371
67953SOL     OW 5697  12.643  12.207   3.520
67953SOL    HW1 5698  12.674  12.138   3.461
67953SOL    HW2 5699  12.677  12.288   3.481
67954SOL     OW 5700   4.152   5.265   9.714
67954SOL    HW1 5701   4.157   5.209   9.791
67954SOL    HW2 5702   4.061   5.261   9.687
67955SOL     OW 5703   9.126   2.011   1.534
67955SOL    HW1 5704   9.194   2.079   1.526
67955SOL    HW2 5705   9.147   1.966   1.615
67956SOL     OW 5706   2.712   4.273   3.668
67956SOL    HW1 5707   2.711   4.185   3.704
67956SOL    HW2 5708   2.670   4.265   3.582
67957SOL     OW 5709  10.407   8.346   0.546
67957SOL    HW1 5710  10.462   8.414   0.586
67957SOL    HW2 5711  10.440   8.338   0.457
67958SOL     OW 5712   5.349  13.309   5.953
67958SOL    HW1 5713   5.392  13.323   5.869
67958SOL    HW2 5714   5.379  13.381   6.008
67959SOL     OW 5715   8.244   6.456   2.707
67959SOL    HW1 5716   8.231   6.537   2.756
67959SOL    HW2 5717   8.304   6.480   2.637
67960SOL     OW 5718   0.276   8.571   1.353
67960SOL    HW1 5719   0.225   8.623   1.291
67960SOL    HW2 5720   0.367   8.595   1.336
67961SOL     OW 5721   4.296  14.685   6.458
67961SOL    HW1 5722   4.221  14.724   6.503
67961SOL    HW2 5723   4.274  14.592   6.451
67962SOL     OW 5724   6.483   1.296  11.268
67962SOL    HW1 5725   6.422   1.300  11.341
67962SOL    HW2 5726   6.430   1.318  11.191
67963SOL     OW 5727   6.224   7.547   2.460
67963SOL    HW1 5728   6.271   7.578   2.538
67963SOL    HW2 5729   6.271   7.586   2.387
67964SOL     OW 5730   7.999   1.584   9.285
67964SOL    HW1 5731   7.938   1.525   9.329
67964SOL    HW2 5732   8.084   1.566   9.327
67965SOL     OW 5733  11.158   8.520   3.960
67965SOL    HW1 5734  11.218   8.536   4.033
67965SOL    HW2 5735  11.215   8.505   3.885
67966SOL     OW 5736   7.715   1.425   8.967
67966SOL    HW1 5737   7.697   1.452   8.877
67966SOL    HW2 5738   7.800   1.464   8.987
67967SOL     OW 5739   7.335   6.535   7.665
67967SOL    HW1 5740   7.301   6.571   7.746
67967SOL    HW2 5741   7.396   6.466   7.693
67968SOL     OW 5742   0.180   5.450   1.208
67968SOL    HW1 5743   0.192   5.489   1.122
67968SOL    HW2 5744   0.187   5.524   1.269
67969SOL     OW 5745   4.678   2.717   6.191
67969SOL    HW1 5746   4.636   2.793   6.229
67969SOL    HW2 5747   4.633   2.704   6.107
67970SOL     OW 5748   0.980   5.552  14.368
67970SOL    HW1 5749   0.923   5.487  14.409
67970SOL    HW2 5750   1.015   5.603  14.441
67971SOL     OW 5751   2.544   4.350   3.470
67971SOL    HW1 5752   2.552   4.344   3.375
67971SOL    HW2 5753   2.451   4.334   3.487
67972SOL     OW 5754   9.255  14.452  11.870
67972SOL    HW1 5755   9.242  14.545  11.851
67972SOL    HW2 5756   9.293  14.451  11.958
67973SOL     OW 5757  14.806   6.488   1.151
67973SOL    HW1 5758   0.007   6.540   1.144
67973SOL    HW2 5759  14.818   6.418   1.087
67974SOL     OW 5760  13.588   5.849   9.199
67974SOL    HW1 5761  13.540   5.903   9.137
67974SOL    HW2 5762  13.643   5.793   9.145
67975SOL     OW 5763  14.306   2.573  11.943
67975SOL    HW1 5764  14.394   2.540  11.958
67975SOL    HW2 5765  14.257   2.498  11.908
67976SOL     OW 5766   3.466  10.215  12.112
67976SOL    HW1 5767   3.473  10.306  12.081
67976SOL    HW2 5768   3.476  10.162  12.033
67977SOL     OW 5769   1.454   0.577   7.784
67977SOL    HW1 5770   1.502   0.521   7.845
67977SOL    HW2 5771   1.513   0.586   7.709
67978SOL     OW 5772   4.414   8.057  14.223
67978SOL    HW1 5773   4.450   8.143  14.202
67978SOL    HW2 5774   4.463   8.029  14.301
67979SOL     OW 5775   1.517  12.599  13.300
67979SOL    HW1 5776   1.550  12.633  13.384
67979SOL    HW2 5777   1.426  12.578  13.317
67980SOL     OW 5778  13.533   6.837   4.478
67980SOL    HW1 5779  13.552   6.759   4.425
67980SOL    HW2 5780  13.619   6.864   4.512
67981SOL     OW 5781   2.747   6.438   6.023
67981SOL    HW1 5782   2.823   6.493   6.005
67981SOL    HW2 5783   2.756   6.413   6.115
67982SOL     OW 5784  14.679  11.199  12.341
67982SOL    HW1 5785  14.737  11.232  12.271
67982SOL    HW2 5786  14.690  11.263  12.412
67983SOL     OW 5787   7.233   5.420  10.620
67983SOL    HW1 5788   7.267   5.331  10.617
67983SOL    HW2 5789   7.162   5.422  10.557
67984SOL     OW 5790  11.933   1.594   1.373
67984SOL    HW1 5791  11.886   1.534   1.431
67984SOL    HW2 5792  11.892   1.581   1.287
67985SOL     OW 5793  13.142   0.284   9.870
67985SOL    HW1 5794  13.073   0.260   9.932
67985SOL    HW2 5795  13.120   0.236   9.790
67986SOL     OW 5796   7.682   6.707   2.200
67986SOL    HW1 5797   7.632   6.784   2.225
67986SOL    HW2 5798   7.762   6.712   2.254
67987SOL     OW 5799  12.247   1.680   7.093
67987SOL    HW1 5800  12.165   1.727   7.086
67987SOL    HW2 5801  12.296   1.703   7.014
67988SOL     OW 5802   2.823   8.738   5.947
67988SOL    HW1 5803   2.900   8.685   5.925
67988SOL    HW2 5804   2.845   8.826   5.916
67989SOL     OW 5805   1.347   5.536   0.629
67989SOL    HW1 5806   1.298   5.460   0.594
67989SOL    HW2 5807   1.328   5.535   0.722
67990SOL     OW 5808   4.193  11.343  12.680
67990SOL    HW1 5809   4.233  11.398  12.747
67990SOL    HW2 5810   4.116  11.306  12.723
67991SOL     OW 5811   3.226   2.543   6.682
67991SOL    HW1 5812   3.142   2.503   6.702
67991SOL    HW2 5813   3.251   2.587   6.763
67992SOL     OW 5814  12.152  10.282   8.457
67992SOL    HW1 5815  12.245  10.270   8.480
67992SOL    HW2 5816  12.145  10.376   8.437
67993SOL     OW 5817   7.315  10.600   7.983
67993SOL    HW1 5818   7.296  10.658   7.908
67993SOL    HW2 5819   7.255  10.527   7.972
67994SOL     OW 5820   3.013   9.314   3.790
67994SOL    HW1 5821   3.020   9.271   3.705
67994SOL    HW2 5822   3.072   9.389   3.785
67995SOL     OW 5823   1.341   9.621   7.084
67995SOL    HW1 5824   1.272   9.681   7.112
67995SOL    HW2 5825   1.325   9.542   7.136
67996SOL     OW 5826   3.791   7.342  12.709
67996SOL    HW1 5827   3.825   7.262  12.669
67996SOL    HW2 5828   3.727   7.311  12.773
67997SOL     OW 5829  13.702  11.573   9.511
67997SOL    HW1 5830  13.732  11.486   9.488
67997SOL    HW2 5831  13.731  11.586   9.601
67998SOL     OW 5832   9.886   6.556   5.599
67998SOL    HW1 5833   9.805   6.509   5.581
67998SOL    HW2 5834   9.898   6.614   5.524
67999SOL     OW 5835  14.242   7.994   4.083
67999SOL    HW1 5836  14.176   7.944   4.035
67999SOL    HW2 5837  14.276   8.056   4.018
68000SOL     OW 5838   0.191   8.971   4.943
68000SOL    HW1 5839   0.175   8.970   4.849
68000SOL    HW2 5840   0.283   8.993   4.952
68001SOL     OW 5841   3.411   8.831   0.950
68001SOL    HW1 5842   3.477   8.830   0.881
68001SOL    HW2 5843   3.353   8.759   0.930
68002SOL     OW 5844   6.767  13.309   2.869
68002SOL    HW1 5845   6.727  13.228   2.902
68002SOL    HW2 5846   6.694  13.369   2.858
68003SOL     OW 5847  13.240   8.385   6.984
68003SOL    HW1 5848  13.219   8.353   7.072
68003SOL    HW2 5849  13.227   8.309   6.927
68004SOL     OW 5850   1.614   5.243   2.660
68004SOL    HW1 5851   1.682   5.271   2.722
68004SOL    HW2 5852   1.643   5.158   2.630
68005SOL     OW 5853   8.507   5.103   2.549
68005SOL    HW1 5854   8.488   5.039   2.480
68005SOL    HW2 5855   8.531   5.051   2.625
68006SOL     OW 5856  13.373   3.870   0.220
68006SOL    HW1 5857  13.362   3.836   0.308
68006SOL    HW2 5858  13.346   3.798   0.163
68007SOL     OW 5859  10.529   9.942  13.311
68007SOL    HW1 5860  10.535  10.017  13.370
68007SOL    HW2 5861  10.581   9.967  13.235
68008SOL     OW 5862  10.165  11.928   5.479
68008SOL    HW1 5863  10.090  11.905   5.424
68008SOL    HW2 5864  10.212  11.845   5.490
68009SOL     OW 5865  13.485  10.927  13.527
68009SOL    HW1 5866  13.424  10.979  13.578
68009SOL    HW2 5867  13.453  10.837  13.536
68010SOL     OW 5868  12.457   8.578   1.460
68010SOL    HW1 5869  12.516   8.592   1.385
68010SOL    HW2 5870  12.385   8.527   1.423
68011SOL     OW 5871   5.839   1.607  11.811
68011SOL    HW1 5872   5.819   1.534  11.870
68011SOL    HW2 5873   5.754   1.630  11.772
68012SOL     OW 5874  13.268   4.351   5.170
68012SOL    HW1 5875  13.232   4.296   5.240
68012SOL    HW2 5876  13.200   4.352   5.103
68013SOL     OW 5877   2.244   1.589   9.865
68013SOL    HW1 5878   2.190   1.542   9.802
68013SOL    HW2 5879   2.235   1.681   9.840
68014SOL     OW 5880  12.904   3.689  14.458
68014SOL    HW1 5881  12.885   3.604  14.498
68014SOL    HW2 5882  12.863   3.753  14.515
68015SOL     OW 5883   1.507   2.485   5.203
68015SOL    HW1 5884   1.591   2.456   5.167
68015SOL    HW2 5885   1.524   2.494   5.297
68016SOL     OW 5886   2.733   6.097   6.226
68016SOL    HW1 5887   2.812   6.151   6.223
68016SOL    HW2 5888   2.760   6.017   6.271
68017SOL     OW 5889   2.355  13.893   5.160
68017SOL    HW1 5890   2.362  13.881   5.065
68017SOL    HW2 5891   2.436  13.936   5.185
68018SOL     OW 5892   6.549  14.546  14.131
68018SOL    HW1 5893   6.627  14.591  14.164
68018SOL    HW2 5894   6.564  14.537  14.037
68019SOL     OW 5895  12.371  12.412  10.811
68019SOL    HW1 5896  12.412  12.496  10.789
68019SOL    HW2 5897  12.439  12.364  10.859
68020SOL     OW 5898   7.579   3.679   1.112
68020SOL    HW1 5899   7.594   3.611   1.046
68020SOL    HW2 5900   7.484   3.690   1.113
68021SOL     OW 5901   7.613  11.298   5.818
68021SOL    HW1 5902   7.543  11.278   5.755
68021SOL    HW2 5903   7.596  11.240   5.892
68022SOL     OW 5904   5.234  11.535   0.112
68022SOL    HW1 5905   5.328  11.521   0.115
68022SOL    HW2 5906   5.222  11.626   0.140
68023SOL     OW 5907   1.918   8.989   3.342
68023SOL    HW1 5908   1.830   8.962   3.368
68023SOL    HW2 5909   1.912   9.084   3.331
68024SOL     OW 5910   6.456   6.901  14.778
68024SOL    HW1 5911   6.540   6.924  14.817
68024SOL    HW2 5912   6.438   6.812  14.808
68025SOL     OW 5913   3.762  12.169  12.116
68025SOL    HW1 5914   3.812  12.119  12.180
68025SOL    HW2 5915   3.779  12.123  12.033
68026SOL     OW 5916   3.541  13.178  11.772
68026SOL    HW1 5917   3.572  13.121  11.843
68026SOL    HW2 5918   3.515  13.119  11.702
68027SOL     OW 5919   2.572   5.525  14.445
68027SOL    HW1 5920   2.528   5.487  14.522
68027SOL    HW2 5921   2.662   5.541  14.474
68028SOL     OW 5922  12.322  10.595   7.127
68028SOL    HW1 5923  12.289  10.547   7.050
68028SOL    HW2 5924  12.370  10.530   7.177
68029SOL     OW 5925   6.090  10.111  10.878
68029SOL    HW1 5926   6.156  10.063  10.928
68029SOL    HW2 5927   6.136  10.189  10.845
68030SOL     OW 5928  13.967   5.225   9.121
68030SOL    HW1 5929  13.931   5.138   9.141
68030SOL    HW2 5930  14.052   5.226   9.165
68031SOL     OW 5931   5.311  13.840  11.812
68031SOL    HW1 5932   5.292  13.751  11.843
68031SOL    HW2 5933   5.253  13.851  11.736
68032SOL     OW 5934   0.985   9.694  10.380
68032SOL    HW1 5935   0.893   9.712  10.401
68032SOL    HW2 5936   0.981   9.630  10.308
68033SOL     OW 5937   3.610   7.639   1.816
68033SOL    HW1 5938   3.533   7.654   1.871
68033SOL    HW2 5939   3.575   7.634   1.727
68034SOL     OW 5940  10.739   9.942   7.843
68034SOL    HW1 5941  10.791   9.866   7.818
68034SOL    HW2 5942  10.735   9.939   7.939
68035SOL     OW 5943   4.630   4.545   6.822
68035SOL    HW1 5944   4.622   4.609   6.751
68035SOL    HW2 5945   4.684   4.588   6.887
68036SOL     OW 5946   8.956  10.499  13.631
68036SOL    HW1 5947   9.033  10.546  13.599
68036SOL    HW2 5948   8.991  10.425  13.679
68037SOL     OW 5949   5.342   9.948   4.995
68037SOL    HW1 5950   5.434   9.922   4.986
68037SOL    HW2 5951   5.345  10.029   5.045
68038SOL     OW 5952  13.706  13.312   5.119
68038SOL    HW1 5953  13.783  13.293   5.065
68038SOL    HW2 5954  13.670  13.393   5.084
68039SOL     OW 5955  10.925   9.931   4.976
68039SOL    HW1 5956  10.906   9.920   4.883
68039SOL    HW2 5957  10.851   9.889   5.021
68040SOL     OW 5958   7.300   2.890   5.899
68040SOL    HW1 5959   7.385   2.886   5.943
68040SOL    HW2 5960   7.239   2.919   5.967
68041SOL     OW 5961   3.305  13.994  11.357
68041SOL    HW1 5962   3.251  14.049  11.301
68041SOL    HW2 5963   3.249  13.974  11.432
68042SOL     OW 5964   3.560   3.582   0.038
68042SOL    HW1 5965   3.475   3.557   0.074
68042SOL    HW2 5966   3.591   3.654   0.093
68043SOL     OW 5967   8.138   5.196  13.852
68043SOL    HW1 5968   8.143   5.204  13.756
68043SOL    HW2 5969   8.180   5.112  13.871
68044SOL     OW 5970   4.022   0.659  13.512
68044SOL    HW1 5971   4.024   0.690  13.421
68044SOL    HW2 5972   3.932   0.675  13.541
68045SOL     OW 5973   9.476  10.935   7.826
68045SOL    HW1 5974   9.521  10.920   7.743
68045SOL    HW2 5975   9.502  11.023   7.852
68046SOL     OW 5976   4.920   2.415   9.721
68046SOL    HW1 5977   4.918   2.453   9.634
68046SOL    HW2 5978   5.002   2.366   9.725
68047SOL     OW 5979   4.281  10.808   7.864
68047SOL    HW1 5980   4.252  10.844   7.780
68047SOL    HW2 5981   4.328  10.728   7.841
68048SOL     OW 5982   1.008   5.725  10.467
68048SOL    HW1 5983   0.936   5.708  10.527
68048SOL    HW2 5984   0.965   5.738  10.382
68049SOL     OW 5985   1.408   2.770   6.652
68049SOL    HW1 5986   1.461   2.793   6.728
68049SOL    HW2 5987   1.339   2.835   6.650
68050SOL     OW 5988   4.098   2.489   3.383
68050SOL    HW1 5989   4.021   2.495   3.440
68050SOL    HW2 5990   4.170   2.521   3.437
68051SOL     OW 5991  10.592  12.919   9.302
68051SOL    HW1 5992  10.528  12.915   9.231
68051SOL    HW2 5993  10.673  12.884   9.263
68052SOL     OW 5994  12.466   9.701  12.611
68052SOL    HW1 5995  12.510   9.625  12.650
68052SOL    HW2 5996  12.495   9.701  12.520
68053SOL     OW 5997  11.184   1.485   4.373
68053SOL    HW1 5998  11.171   1.507   4.280
68053SOL    HW2 5999  11.104   1.439   4.398
68054SOL     OW 6000  10.120   4.358   7.862
68054SOL    HW1 6001  10.182   4.285   7.871
68054SOL    HW2 6002  10.070   4.337   7.784
68055SOL     OW 6003   9.857   7.743   9.368
68055SOL    HW1 6004   9.882   7.671   9.310
68055SOL    HW2 6005   9.901   7.820   9.332
68056SOL     OW 6006   9.577   4.891  12.319
68056SOL    HW1 6007   9.667   4.890  12.351
68056SOL    HW2 6008   9.563   4.803  12.283
68057SOL     OW 6009   0.094   6.852  13.358
68057SOL    HW1 6010   0.104   6.822  13.448
68057SOL    HW2 6011   0.174   6.901  13.340
68058SOL     OW 6012   9.083  10.251  12.546
68058SOL    HW1 6013   9.019  10.318  12.570
68058SOL    HW2 6014   9.055  10.221  12.460
68059SOL     OW 6015   7.781  11.244   2.105
68059SOL    HW1 6016   7.730  11.212   2.179
68059SOL    HW2 6017   7.779  11.339   2.115
68060SOL     OW 6018  14.401   1.204  13.999
68060SOL    HW1 6019  14.364   1.286  14.031
68060SOL    HW2 6020  14.373   1.198  13.908
68061SOL     OW 6021  10.755   8.808   3.313
68061SOL    HW1 6022  10.664   8.834   3.302
68061SOL    HW2 6023  10.806   8.878   3.272
68062SOL     OW 6024   6.930  14.384   6.632
68062SOL    HW1 6025   7.001  14.321   6.623
68062SOL    HW2 6026   6.878  14.373   6.552
68063SOL     OW 6027   7.677   8.637  10.437
68063SOL    HW1 6028   7.609   8.570  10.431
68063SOL    HW2 6029   7.636   8.716  10.402
68064SOL     OW 6030   9.777   9.154  13.056
68064SOL    HW1 6031   9.732   9.238  13.055
68064SOL    HW2 6032   9.751   9.114  13.139
68065SOL     OW 6033   6.769  13.773  12.278
68065SOL    HW1 6034   6.740  13.843  12.335
68065SOL    HW2 6035   6.858  13.752  12.308
68066SOL     OW 6036   8.450   9.010  13.469
68066SOL    HW1 6037   8.362   9.047  13.477
68066SOL    HW2 6038   8.440   8.937  13.409
68067SOL     OW 6039  13.252   8.515   8.391
68067SOL    HW1 6040  13.336   8.472   8.374
68067SOL    HW2 6041  13.206   8.512   8.308
68068SOL     OW 6042   1.783   4.333   9.596
68068SOL    HW1 6043   1.795   4.343   9.502
68068SOL    HW2 6044   1.720   4.262   9.606
68069SOL     OW 6045   5.500   6.634   0.795
68069SOL    HW1 6046   5.514   6.556   0.850
68069SOL    HW2 6047   5.418   6.616   0.749
68070SOL     OW 6048  10.611   7.955   5.962
68070SOL    HW1 6049  10.645   7.866   5.951
68070SOL    HW2 6050  10.592   7.984   5.873
68071SOL     OW 6051   1.992   1.976   8.860
68071SOL    HW1 6052   1.951   1.924   8.929
68071SOL    HW2 6053   1.955   2.064   8.872
68072SOL     OW 6054   5.869   7.569   7.481
68072SOL    HW1 6055   5.875   7.580   7.386
68072SOL    HW2 6056   5.831   7.481   7.492
68073SOL     OW 6057   5.291   6.474   2.367
68073SOL    HW1 6058   5.236   6.412   2.320
68073SOL    HW2 6059   5.239   6.553   2.373
68074SOL     OW 6060   8.417  10.955   6.636
68074SOL    HW1 6061   8.353  10.923   6.699
68074SOL    HW2 6062   8.501  10.952   6.682
68075SOL     OW 6063   3.575   0.052   8.996
68075SOL    HW1 6064   3.647   0.115   8.996
68075SOL    HW2 6065   3.497   0.105   8.983
68076SOL     OW 6066   6.270   8.173  11.361
68076SOL    HW1 6067   6.218   8.251  11.340
68076SOL    HW2 6068   6.286   8.179  11.455
68077SOL     OW 6069   5.124   8.314   3.631
68077SOL    HW1 6070   5.111   8.285   3.721
68077SOL    HW2 6071   5.036   8.334   3.598
68078SOL     OW 6072   6.565  11.748   7.680
68078SOL    HW1 6073   6.475  11.773   7.702
68078SOL    HW2 6074   6.559  11.656   7.655
68079SOL     OW 6075  11.765  13.983   9.165
68079SOL    HW1 6076  11.702  14.010   9.232
68079SOL    HW2 6077  11.850  14.008   9.201
68080SOL     OW 6078  11.029   6.149   9.980
68080SOL    HW1 6079  11.073   6.233   9.987
68080SOL    HW2 6080  11.011   6.138   9.887
68081SOL     OW 6081  10.079  12.273   3.277
68081SOL    HW1 6082  10.148  12.210   3.254
68081SOL    HW2 6083  10.096  12.349   3.221
68082SOL     OW 6084   4.155   7.818   1.039
68082SOL    HW1 6085   4.242   7.792   1.008
68082SOL    HW2 6086   4.155   7.794   1.132
68083SOL     OW 6087   6.330   8.768  14.364
68083SOL    HW1 6088   6.415   8.810  14.350
68083SOL    HW2 6089   6.309   8.786  14.456
68084SOL     OW 6090   4.524  12.906   1.291
68084SOL    HW1 6091   4.612  12.892   1.328
68084SOL    HW2 6092   4.485  12.819   1.290
68085SOL     OW 6093   7.340   2.774  13.632
68085SOL    HW1 6094   7.251   2.747  13.608
68085SOL    HW2 6095   7.348   2.750  13.724
68086SOL     OW 6096   9.796   8.664  13.644
68086SOL    HW1 6097   9.740   8.675  13.567
68086SOL    HW2 6098   9.797   8.750  13.686
68087SOL     OW 6099  12.112   1.640   7.328
68087SOL    HW1 6100  12.124   1.734   7.339
68087SOL    HW2 6101  12.182   1.614   7.268
68088SOL     OW 6102  13.441   0.937  12.709
68088SOL    HW1 6103  13.459   0.873  12.777
68088SOL    HW2 6104  13.468   0.895  12.628
68089SOL     OW 6105   9.061   9.538  14.285
68089SOL    HW1 6106   9.110   9.541  14.367
68089SOL    HW2 6107   9.033   9.447  14.277
68090SOL     OW 6108   7.070   3.864   1.568
68090SOL    HW1 6109   7.120   3.904   1.638
68090SOL    HW2 6110   7.104   3.775   1.562
68091SOL     OW 6111   2.259   5.072  10.981
68091SOL    HW1 6112   2.181   5.123  10.999
68091SOL    HW2 6113   2.295   5.052  11.068
68092SOL     OW 6114  12.489   5.524  11.994
68092SOL    HW1 6115  12.466   5.573  11.915
68092SOL    HW2 6116  12.417   5.461  12.004
68093SOL     OW 6117  11.447  10.047  11.465
68093SOL    HW1 6118  11.504   9.977  11.434
68093SOL    HW2 6119  11.476  10.124  11.416
68094SOL     OW 6120   2.134   0.302   6.460
68094SOL    HW1 6121   2.211   0.249   6.440
68094SOL    HW2 6122   2.063   0.262   6.409
68095SOL     OW 6123   1.248   9.944   9.054
68095SOL    HW1 6124   1.236   9.939   8.959
68095SOL    HW2 6125   1.342   9.938   9.067
68096SOL     OW 6126   3.922   9.834   1.440
68096SOL    HW1 6127   3.900   9.754   1.392
68096SOL    HW2 6128   3.913   9.904   1.376
68097SOL     OW 6129   8.081  14.157   6.314
68097SOL    HW1 6130   8.148  14.185   6.377
68097SOL    HW2 6131   8.015  14.113   6.367
68098SOL     OW 6132  12.822  11.442   7.785
68098SOL    HW1 6133  12.833  11.528   7.826
68098SOL    HW2 6134  12.728  11.427   7.784
68099SOL     OW 6135   9.222   7.131   0.953
68099SOL    HW1 6136   9.279   7.094   1.020
68099SOL    HW2 6137   9.249   7.222   0.945
68100SOL     OW 6138   4.838   1.452   0.695
68100SOL    HW1 6139   4.848   1.545   0.675
68100SOL    HW2 6140   4.755   1.428   0.655
68101SOL     OW 6141   4.151   7.704   1.284
68101SOL    HW1 6142   4.132   7.772   1.347
68101SOL    HW2 6143   4.092   7.632   1.306
68102SOL     OW 6144  14.631   2.824   5.156
68102SOL    HW1 6145  14.559   2.802   5.097
68102SOL    HW2 6146  14.649   2.742   5.203
68103SOL     OW 6147  11.542  10.593  12.116
68103SOL    HW1 6148  11.529  10.663  12.053
68103SOL    HW2 6149  11.528  10.635  12.201
68104SOL     OW 6150   4.554  10.011   7.399
68104SOL    HW1 6151   4.604  10.039   7.322
68104SOL    HW2 6152   4.518  10.092   7.435
68105SOL     OW 6153  12.568   4.341  14.637
68105SOL    HW1 6154  12.487   4.367  14.681
68105SOL    HW2 6155  12.560   4.246  14.628
68106SOL     OW 6156   4.553   0.611  13.903
68106SOL    HW1 6157   4.576   0.579  13.816
68106SOL    HW2 6158   4.460   0.590  13.913
68107SOL     OW 6159   4.707  10.934   0.249
68107SOL    HW1 6160   4.681  11.025   0.258
68107SOL    HW2 6161   4.716  10.903   0.339
68108SOL     OW 6162   5.469   8.560   2.404
68108SOL    HW1 6163   5.430   8.637   2.362
68108SOL    HW2 6164   5.488   8.588   2.493
68109SOL     OW 6165   6.683   0.417   8.770
68109SOL    HW1 6166   6.592   0.388   8.778
68109SOL    HW2 6167   6.681   0.480   8.698
68110SOL     OW 6168  14.066   8.499   8.183
68110SOL    HW1 6169  14.160   8.503   8.164
68110SOL    HW2 6170  14.060   8.443   8.261
68111SOL     OW 6171  14.504   8.132   0.661
68111SOL    HW1 6172  14.486   8.105   0.751
68111SOL    HW2 6173  14.493   8.227   0.661
68112SOL     OW 6174   0.298   3.204   5.646
68112SOL    HW1 6175   0.237   3.180   5.576
68112SOL    HW2 6176   0.276   3.294   5.668
68113SOL     OW 6177  14.387  12.970   9.812
68113SOL    HW1 6178  14.422  12.890   9.850
68113SOL    HW2 6179  14.369  12.948   9.721
68114SOL     OW 6180   0.827  12.159   6.382
68114SOL    HW1 6181   0.838  12.124   6.470
68114SOL    HW2 6182   0.916  12.171   6.349
68115SOL     OW 6183  14.089   7.646  13.638
68115SOL    HW1 6184  14.068   7.733  13.603
68115SOL    HW2 6185  14.033   7.586  13.589
68116SOL     OW 6186   7.084  11.609   5.669
68116SOL    HW1 6187   7.164  11.602   5.722
68116SOL    HW2 6188   7.116  11.607   5.579
68117SOL     OW 6189   4.838   7.131   4.907
68117SOL    HW1 6190   4.933   7.124   4.917
68117SOL    HW2 6191   4.826   7.200   4.842
68118SOL     OW 6192   8.812  11.173  13.755
68118SOL    HW1 6193   8.829  11.105  13.820
68118SOL    HW2 6194   8.888  11.231  13.760
68119SOL     OW 6195  12.640   5.818   3.255
68119SOL    HW1 6196  12.619   5.851   3.168
68119SOL    HW2 6197  12.619   5.890   3.315
68120SOL     OW 6198  11.937   0.745   9.548
68120SOL    HW1 6199  11.856   0.761   9.596
68120SOL    HW2 6200  11.922   0.786   9.463
68121SOL     OW 6201   4.023   0.008   8.221
68121SOL    HW1 6202   3.975   0.004   8.304
68121SOL    HW2 6203   4.102   0.058   8.241
68122SOL     OW 6204   7.995   0.540  10.742
68122SOL    HW1 6205   7.920   0.486  10.766
68122SOL    HW2 6206   8.038   0.493  10.671
68123SOL     OW 6207   4.619  14.719   5.269
68123SOL    HW1 6208   4.598  14.651   5.334
68123SOL    HW2 6209   4.712  14.737   5.283
68124SOL     OW 6210   8.755   8.157  10.716
68124SOL    HW1 6211   8.833   8.105  10.736
68124SOL    HW2 6212   8.718   8.116  10.638
68125SOL     OW 6213   6.543   6.679   1.259
68125SOL    HW1 6214   6.606   6.663   1.189
68125SOL    HW2 6215   6.583   6.641   1.337
68126SOL     OW 6216   7.706   1.509   5.165
68126SOL    HW1 6217   7.763   1.586   5.156
68126SOL    HW2 6218   7.618   1.542   5.152
68127SOL     OW 6219  14.074   4.586   4.586
68127SOL    HW1 6220  13.995   4.619   4.542
68127SOL    HW2 6221  14.110   4.663   4.630
68128SOL     OW 6222   5.168   1.040   3.139
68128SOL    HW1 6223   5.076   1.026   3.160
68128SOL    HW2 6224   5.214   1.020   3.221
68129SOL     OW 6225   4.475   6.558  10.953
68129SOL    HW1 6226   4.486   6.630  11.015
68129SOL    HW2 6227   4.510   6.481  10.999
68130SOL     OW 6228   5.976   8.834   1.374
68130SOL    HW1 6229   5.938   8.750   1.348
68130SOL    HW2 6230   5.905   8.881   1.416
68131SOL     OW 6231  13.575   4.508   1.116
68131SOL    HW1 6232  13.511   4.460   1.170
68131SOL    HW2 6233  13.522   4.547   1.046
68132SOL     OW 6234   2.195  10.135  10.800
68132SOL    HW1 6235   2.178  10.226  10.774
68132SOL    HW2 6236   2.253  10.101  10.732
68133SOL     OW 6237  12.774   9.330   2.999
68133SOL    HW1 6238  12.769   9.248   3.048
68133SOL    HW2 6239  12.865   9.358   3.007
68134SOL     OW 6240  11.431   8.624   0.924
68134SOL    HW1 6241  11.452   8.712   0.956
68134SOL    HW2 6242  11.486   8.566   0.978
68135SOL     OW 6243   1.644   8.908   3.978
68135SOL    HW1 6244   1.575   8.921   3.913
68135SOL    HW2 6245   1.725   8.901   3.926
68136SOL     OW 6246   0.055   9.970  13.337
68136SOL    HW1 6247   0.034   9.913  13.263
68136SOL    HW2 6248   0.090   9.911  13.404
68137SOL     OW 6249   8.438   6.329   2.000
68137SOL    HW1 6250   8.416   6.257   2.059
68137SOL    HW2 6251   8.360   6.384   2.000
68138SOL     OW 6252  12.812  13.855  12.257
68138SOL    HW1 6253  12.818  13.808  12.174
68138SOL    HW2 6254  12.796  13.786  12.322
68139SOL     OW 6255   4.258  14.502   5.154
68139SOL    HW1 6256   4.166  14.525   5.139
68139SOL    HW2 6257   4.254  14.421   5.204
68140SOL     OW 6258   4.072   4.964   6.924
68140SOL    HW1 6259   4.159   4.925   6.937
68140SOL    HW2 6260   4.035   4.969   7.012
68141SOL     OW 6261  12.937  10.923   4.715
68141SOL    HW1 6262  12.869  10.990   4.717
68141SOL    HW2 6263  12.927  10.877   4.799
68142SOL     OW 6264   2.527   3.795   5.742
68142SOL    HW1 6265   2.536   3.725   5.807
68142SOL    HW2 6266   2.565   3.759   5.662
68143SOL     OW 6267   6.334   4.591   8.219
68143SOL    HW1 6268   6.256   4.645   8.203
68143SOL    HW2 6269   6.313   4.543   8.299
68144SOL     OW 6270   6.700   7.054  14.780
68144SOL    HW1 6271   6.704   7.091  14.692
68144SOL    HW2 6272   6.701   7.130  14.838
68145SOL     OW 6273  12.794  12.972   2.033
68145SOL    HW1 6274  12.855  13.001   2.101
68145SOL    HW2 6275  12.775  12.881   2.056
68146SOL     OW 6276   5.856   4.071   2.901
68146SOL    HW1 6277   5.859   4.004   2.970
68146SOL    HW2 6278   5.930   4.050   2.844
68147SOL     OW 6279   0.841   4.169   0.071
68147SOL    HW1 6280   0.786   4.135   0.141
68147SOL    HW2 6281   0.831   4.264   0.077
68148SOL     OW 6282   0.657  10.071   4.962
68148SOL    HW1 6283   0.628  10.029   5.042
68148SOL    HW2 6284   0.737  10.118   4.986
68149SOL     OW 6285  12.335  11.020   0.562
68149SOL    HW1 6286  12.316  10.990   0.473
68149SOL    HW2 6287  12.427  10.998   0.576
68150SOL     OW 6288  10.732   8.047  11.785
68150SOL    HW1 6289  10.701   8.001  11.863
68150SOL    HW2 6290  10.705   7.992  11.712
68151SOL     OW 6291   4.584  12.896   4.912
68151SOL    HW1 6292   4.556  12.988   4.916
68151SOL    HW2 6293   4.514  12.852   4.864
68152SOL     OW 6294   8.974  11.004  10.923
68152SOL    HW1 6295   8.919  11.049  10.858
68152SOL    HW2 6296   8.917  10.936  10.959
68153SOL     OW 6297   7.189   8.441   4.162
68153SOL    HW1 6298   7.220   8.381   4.093
68153SOL    HW2 6299   7.094   8.443   4.151
68154SOL     OW 6300   8.525   2.371   3.566
68154SOL    HW1 6301   8.575   2.334   3.492
68154SOL    HW2 6302   8.502   2.459   3.537
68155SOL     OW 6303   8.797   0.746   5.860
68155SOL    HW1 6304   8.765   0.805   5.928
68155SOL    HW2 6305   8.892   0.741   5.875
68156SOL     OW 6306  11.583   7.071   4.080
68156SOL    HW1 6307  11.508   7.130   4.081
68156SOL    HW2 6308  11.603   7.055   4.172
68157SOL     OW 6309  10.918   9.213   1.227
68157SOL    HW1 6310  10.942   9.286   1.284
68157SOL    HW2 6311  10.999   9.192   1.180
68158SOL     OW 6312   9.538   6.628   6.954
68158SOL    HW1 6313   9.610   6.595   6.900
68158SOL    HW2 6314   9.480   6.671   6.892
68159SOL     OW 6315   0.386  13.322   8.177
68159SOL    HW1 6316   0.438  13.383   8.230
68159SOL    HW2 6317   0.451  13.261   8.141
68160SOL     OW 6318   6.552  14.767  12.647
68160SOL    HW1 6319   6.640  14.778  12.683
68160SOL    HW2 6320   6.496  14.754  12.724
68161SOL     OW 6321   7.324  10.583  13.725
68161SOL    HW1 6322   7.411  10.574  13.763
68161SOL    HW2 6323   7.270  10.517  13.770
68162SOL     OW 6324   7.937   1.139   0.373
68162SOL    HW1 6325   8.017   1.165   0.328
68162SOL    HW2 6326   7.946   1.176   0.461
68163SOL     OW 6327  10.023   8.753   2.150
68163SOL    HW1 6328  10.115   8.725   2.153
68163SOL    HW2 6329  10.004   8.762   2.057
68164SOL     OW 6330   6.831   4.640   5.288
68164SOL    HW1 6331   6.835   4.549   5.317
68164SOL    HW2 6332   6.890   4.644   5.213
68165SOL     OW 6333   8.113   7.361  10.553
68165SOL    HW1 6334   8.101   7.438  10.497
68165SOL    HW2 6335   8.030   7.313  10.546
68166SOL     OW 6336   4.275   6.007   9.338
68166SOL    HW1 6337   4.242   6.095   9.353
68166SOL    HW2 6338   4.201   5.949   9.357
68167SOL     OW 6339   3.226   5.361   2.328
68167SOL    HW1 6340   3.200   5.282   2.280
68167SOL    HW2 6341   3.171   5.361   2.406
68168SOL     OW 6342   6.968   6.571   2.809
68168SOL    HW1 6343   7.010   6.547   2.726
68168SOL    HW2 6344   7.002   6.509   2.872
68169SOL     OW 6345   2.541   6.046   0.481
68169SOL    HW1 6346   2.564   6.079   0.395
68169SOL    HW2 6347   2.467   6.100   0.509
68170SOL     OW 6348  13.780  10.621   2.018
68170SOL    HW1 6349  13.723  10.688   2.055
68170SOL    HW2 6350  13.730  10.584   1.945
68171SOL     OW 6351   0.133  11.261   7.618
68171SOL    HW1 6352   0.044  11.263   7.651
68171SOL    HW2 6353   0.148  11.349   7.583
68172SOL     OW 6354   9.243  11.268   1.071
68172SOL    HW1 6355   9.168  11.309   1.115
68172SOL    HW2 6356   9.249  11.315   0.988
68173SOL     OW 6357   4.693   9.709   8.806
68173SOL    HW1 6358   4.702   9.738   8.897
68173SOL    HW2 6359   4.753   9.765   8.757
68174SOL     OW 6360   3.183   8.098  11.821
68174SOL    HW1 6361   3.234   8.176  11.839
68174SOL    HW2 6362   3.132   8.120  11.742
68175SOL     OW 6363  12.206  11.470   1.862
68175SOL    HW1 6364  12.141  11.529   1.824
68175SOL    HW2 6365  12.177  11.383   1.835
68176SOL     OW 6366   6.015   8.362   6.186
68176SOL    HW1 6367   6.086   8.310   6.223
68176SOL    HW2 6368   6.056   8.412   6.115
68177SOL     OW 6369   4.665   0.514   3.435
68177SOL    HW1 6370   4.692   0.596   3.394
68177SOL    HW2 6371   4.570   0.510   3.422
68178SOL     OW 6372   6.705   6.794   7.794
68178SOL    HW1 6373   6.750   6.870   7.832
68178SOL    HW2 6374   6.737   6.719   7.845
68179SOL     OW 6375  13.199   2.488   3.358
68179SOL    HW1 6376  13.255   2.424   3.403
68179SOL    HW2 6377  13.200   2.565   3.414
68180SOL     OW 6378   9.529  13.457  12.468
68180SOL    HW1 6379   9.619  13.437  12.492
68180SOL    HW2 6380   9.525  13.552  12.464
68181SOL     OW 6381   4.442  12.843   3.692
68181SOL    HW1 6382   4.470  12.874   3.779
68181SOL    HW2 6383   4.416  12.922   3.646
68182SOL     OW 6384   1.800   2.834  13.868
68182SOL    HW1 6385   1.707   2.836  13.844
68182SOL    HW2 6386   1.844   2.881  13.796
68183SOL     OW 6387   1.523   6.171   6.768
68183SOL    HW1 6388   1.458   6.114   6.727
68183SOL    HW2 6389   1.474   6.219   6.835
68184SOL     OW 6390  14.478   7.591   6.800
68184SOL    HW1 6391  14.478   7.619   6.708
68184SOL    HW2 6392  14.460   7.497   6.796
68185SOL     OW 6393   9.117   9.423   8.831
68185SOL    HW1 6394   9.043   9.421   8.771
68185SOL    HW2 6395   9.138   9.330   8.847
68186SOL     OW 6396   4.141  13.788  10.982
68186SOL    HW1 6397   4.109  13.830  11.062
68186SOL    HW2 6398   4.234  13.774  10.998
68187SOL     OW 6399   4.138  11.129   4.537
68187SOL    HW1 6400   4.051  11.103   4.506
68187SOL    HW2 6401   4.135  11.225   4.538
68188SOL     OW 6402  13.406  11.113   1.291
68188SOL    HW1 6403  13.406  11.208   1.302
68188SOL    HW2 6404  13.495  11.086   1.312
68189SOL     OW 6405   2.728  14.252  11.378
68189SOL    HW1 6406   2.748  14.221  11.290
68189SOL    HW2 6407   2.811  14.247  11.425
68190SOL     OW 6408  13.979  10.993   6.867
68190SOL    HW1 6409  13.927  10.924   6.825
68190SOL    HW2 6410  13.934  11.074   6.845
68191SOL     OW 6411  10.218  13.984   0.617
68191SOL    HW1 6412  10.245  13.971   0.526
68191SOL    HW2 6413  10.171  14.067   0.615
68192SOL     OW 6414   3.822   9.919  13.840
68192SOL    HW1 6415   3.727   9.904  13.835
68192SOL    HW2 6416   3.853   9.910  13.750
68193SOL     OW 6417   5.946   8.885   9.575
68193SOL    HW1 6418   5.967   8.795   9.550
68193SOL    HW2 6419   5.999   8.902   9.652
68194SOL     OW 6420   9.811   0.966  13.695
68194SOL    HW1 6421   9.850   1.049  13.724
68194SOL    HW2 6422   9.733   0.956  13.749
68195SOL     OW 6423   4.571   3.121   3.471
68195SOL    HW1 6424   4.576   3.155   3.560
68195SOL    HW2 6425   4.647   3.064   3.462
68196SOL     OW 6426  14.450  12.377   0.844
68196SOL    HW1 6427  14.515  12.313   0.875
68196SOL    HW2 6428  14.373  12.324   0.825
68197SOL     OW 6429   7.219   2.739  12.393
68197SOL    HW1 6430   7.170   2.672  12.345
68197SOL    HW2 6431   7.289   2.690  12.437
68198SOL     OW 6432   5.978   2.607  11.276
68198SOL    HW1 6433   5.943   2.642  11.194
68198SOL    HW2 6434   6.018   2.524  11.252
68199SOL     OW 6435   5.016   2.763  11.350
68199SOL    HW1 6436   5.025   2.716  11.432
68199SOL    HW2 6437   5.090   2.734  11.297
68200SOL     OW 6438   0.940   7.329   3.134
68200SOL    HW1 6439   0.954   7.235   3.119
68200SOL    HW2 6440   0.946   7.340   3.229
68201SOL     OW 6441  11.081  13.981   9.543
68201SOL    HW1 6442  11.035  14.062   9.564
68201SOL    HW2 6443  11.012  13.914   9.537
68202SOL     OW 6444   3.589  11.463  12.905
68202SOL    HW1 6445   3.601  11.375  12.869
68202SOL    HW2 6446   3.528  11.451  12.978
68203SOL     OW 6447   6.363   4.272   1.444
68203SOL    HW1 6448   6.395   4.189   1.406
68203SOL    HW2 6449   6.422   4.338   1.409
68204SOL     OW 6450   0.614  10.347  12.667
68204SOL    HW1 6451   0.573  10.415  12.614
68204SOL    HW2 6452   0.585  10.265  12.627
68205SOL     OW 6453   9.127   8.857  13.092
68205SOL    HW1 6454   9.219   8.884  13.098
68205SOL    HW2 6455   9.106   8.864  12.999
68206SOL     OW 6456  10.263   7.484  14.508
68206SOL    HW1 6457  10.294   7.552  14.568
68206SOL    HW2 6458  10.168   7.496  14.505
68207SOL     OW 6459  12.235  14.530   3.147
68207SOL    HW1 6460  12.162  14.474   3.173
68207SOL    HW2 6461  12.202  14.619   3.155
68208SOL     OW 6462   5.111   2.242  11.853
68208SOL    HW1 6463   5.183   2.242  11.916
68208SOL    HW2 6464   5.035   2.211  11.903
68209SOL     OW 6465   8.150  10.645   4.713
68209SOL    HW1 6466   8.062  10.611   4.692
68209SOL    HW2 6467   8.200  10.567   4.738
68210SOL     OW 6468   0.120   6.983   0.774
68210SOL    HW1 6469   0.176   6.909   0.797
68210SOL    HW2 6470   0.035   6.962   0.813
68211SOL     OW 6471   1.985   8.289   8.845
68211SOL    HW1 6472   1.981   8.273   8.751
68211SOL    HW2 6473   2.076   8.270   8.869
68212SOL     OW 6474  11.556  10.239   7.365
68212SOL    HW1 6475  11.512  10.194   7.437
68212SOL    HW2 6476  11.628  10.285   7.407
68213SOL     OW 6477  12.044   0.010   5.787
68213SOL    HW1 6478  12.016   0.099   5.808
68213SOL    HW2 6479  12.078   0.016   5.698
68214SOL     OW 6480   0.392   8.204  14.855
68214SOL    HW1 6481   0.452   8.261  14.806
68214SOL    HW2 6482   0.446   8.129   0.000
68215SOL     OW 6483   5.394   2.730  14.340
68215SOL    HW1 6484   5.374   2.787  14.266
68215SOL    HW2 6485   5.480   2.758  14.370
68216SOL     OW 6486   9.612   9.832  11.283
68216SOL    HW1 6487   9.669   9.798  11.353
68216SOL    HW2 6488   9.661   9.816  11.202
68217SOL     OW 6489   6.194   0.280  13.731
68217SOL    HW1 6490   6.162   0.266  13.820
68217SOL    HW2 6491   6.144   0.218  13.678
68218SOL     OW 6492   5.302   2.638  12.925
68218SOL    HW1 6493   5.339   2.625  13.013
68218SOL    HW2 6494   5.268   2.552  12.901
68219SOL     OW 6495   6.686   9.181  10.733
68219SOL    HW1 6496   6.661   9.254  10.677
68219SOL    HW2 6497   6.604   9.153  10.774
68220SOL     OW 6498  14.174  13.865   8.926
68220SOL    HW1 6499  14.144  13.916   9.002
68220SOL    HW2 6500  14.260  13.901   8.906
68221SOL     OW 6501   8.875   9.265  11.434
68221SOL    HW1 6502   8.835   9.280  11.348
68221SOL    HW2 6503   8.959   9.223  11.413
68222SOL     OW 6504   5.098  13.005   8.755
68222SOL    HW1 6505   5.086  13.095   8.787
68222SOL    HW2 6506   5.192  12.990   8.763
68223SOL     OW 6507  10.078   8.874   0.898
68223SOL    HW1 6508  10.114   8.788   0.921
68223SOL    HW2 6509  10.048   8.864   0.808
68224SOL     OW 6510  10.506  11.346  12.840
68224SOL    HW1 6511  10.570  11.397  12.888
68224SOL    HW2 6512  10.440  11.323  12.905
68225SOL     OW 6513  12.220  14.150   0.856
68225SOL    HW1 6514  12.138  14.148   0.806
68225SOL    HW2 6515  12.226  14.063   0.895
68226SOL     OW 6516   4.673   9.943   6.223
68226SOL    HW1 6517   4.621   9.869   6.191
68226SOL    HW2 6518   4.738   9.903   6.281
68227SOL     OW 6519   7.801   2.398   7.370
68227SOL    HW1 6520   7.753   2.480   7.378
68227SOL    HW2 6521   7.838   2.383   7.457
68228SOL     OW 6522   8.327   9.846   4.611
68228SOL    HW1 6523   8.409   9.820   4.653
68228SOL    HW2 6524   8.337   9.939   4.592
68229SOL     OW 6525   0.028   7.386   7.388
68229SOL    HW1 6526  14.856   7.306   7.403
68229SOL    HW2 6527  14.864   7.429   7.314
68230SOL     OW 6528   2.530   8.738  10.030
68230SOL    HW1 6529   2.453   8.754  10.084
68230SOL    HW2 6530   2.579   8.671  10.076
68231SOL     OW 6531   6.233   5.081   3.112
68231SOL    HW1 6532   6.253   5.174   3.103
68231SOL    HW2 6533   6.312   5.036   3.080
68232SOL     OW 6534   7.848   1.148   6.086
68232SOL    HW1 6535   7.832   1.221   6.027
68232SOL    HW2 6536   7.762   1.111   6.104
68233SOL     OW 6537   2.125   9.339   8.217
68233SOL    HW1 6538   2.090   9.421   8.181
68233SOL    HW2 6539   2.104   9.273   8.151
68234SOL     OW 6540  10.930   5.139  13.847
68234SOL    HW1 6541  10.966   5.200  13.782
68234SOL    HW2 6542  10.942   5.052  13.808
68235SOL     OW 6543   3.139   9.155  11.205
68235SOL    HW1 6544   3.056   9.108  11.206
68235SOL    HW2 6545   3.124   9.232  11.261
68236SOL     OW 6546   0.530   6.604  14.806
68236SOL    HW1 6547   0.619   6.639  14.812
68236SOL    HW2 6548   0.495   6.614   0.015
68237SOL     OW 6549   2.671  10.731   0.485
68237SOL    HW1 6550   2.617  10.697   0.413
68237SOL    HW2 6551   2.608  10.773   0.544
68238SOL     OW 6552  13.630   8.265  11.759
68238SOL    HW1 6553  13.552   8.314  11.783
68238SOL    HW2 6554  13.697   8.332  11.742
68239SOL     OW 6555  13.111   3.003  13.273
68239SOL    HW1 6556  13.196   3.005  13.317
68239SOL    HW2 6557  13.055   2.950  13.330
68240SOL     OW 6558   3.341  10.450  10.947
68240SOL    HW1 6559   3.291  10.505  10.886
68240SOL    HW2 6560   3.377  10.380  10.892
68241SOL     OW 6561  10.977   1.696   5.684
68241SOL    HW1 6562  10.892   1.695   5.729
68241SOL    HW2 6563  10.972   1.624   5.621
68242SOL     OW 6564   8.937  10.511   0.264
68242SOL    HW1 6565   8.984  10.571   0.322
68242SOL    HW2 6566   8.962  10.537   0.176
68243SOL     OW 6567  14.728   9.376   9.623
68243SOL    HW1 6568  14.796   9.315   9.653
68243SOL    HW2 6569  14.715   9.436   9.697
68244SOL     OW 6570  10.111  10.599   6.052
68244SOL    HW1 6571  10.195  10.586   6.008
68244SOL    HW2 6572  10.126  10.569   6.141
68245SOL     OW 6573   7.232   8.894   0.674
68245SOL    HW1 6574   7.257   8.831   0.743
68245SOL    HW2 6575   7.149   8.930   0.705
68246SOL     OW 6576   8.572  10.524   8.564
68246SOL    HW1 6577   8.560  10.618   8.578
68246SOL    HW2 6578   8.524  10.506   8.483
68247SOL     OW 6579  11.916   3.372   0.047
68247SOL    HW1 6580  12.006   3.374   0.016
68247SOL    HW2 6581  11.916   3.308   0.118
68248SOL     OW 6582  10.169   5.888  13.011
68248SOL    HW1 6583  10.076   5.912  13.015
68248SOL    HW2 6584  10.170   5.794  13.028
68249SOL     OW 6585   9.605   0.784   5.658
68249SOL    HW1 6586   9.564   0.741   5.583
68249SOL    HW2 6587   9.578   0.875   5.650
68250SOL     OW 6588   3.030  14.724  14.786
68250SOL    HW1 6589   2.949  14.703  14.833
68250SOL    HW2 6590   3.090  14.755  14.854
68251SOL     OW 6591   1.415   7.338   2.314
68251SOL    HW1 6592   1.482   7.269   2.311
68251SOL    HW2 6593   1.429   7.389   2.235
68252SOL     OW 6594   9.448  12.202   3.407
68252SOL    HW1 6595   9.365  12.199   3.455
68252SOL    HW2 6596   9.466  12.295   3.396
68253SOL     OW 6597   9.430   6.322   9.564
68253SOL    HW1 6598   9.369   6.349   9.634
68253SOL    HW2 6599   9.513   6.363   9.588
68254SOL     OW 6600  11.305   2.861   1.837
68254SOL    HW1 6601  11.250   2.847   1.913
68254SOL    HW2 6602  11.307   2.776   1.792
68255SOL     OW 6603  11.369   7.055  12.731
68255SOL    HW1 6604  11.461   7.035  12.747
68255SOL    HW2 6605  11.365   7.151  12.734
68256SOL     OW 6606   9.834  14.431   1.538
68256SOL    HW1 6607   9.866  14.358   1.485
68256SOL    HW2 6608   9.879  14.508   1.504
68257SOL     OW 6609   6.866  13.416   8.166
68257SOL    HW1 6610   6.879  13.325   8.139
68257SOL    HW2 6611   6.775  13.420   8.194
68258SOL     OW 6612  12.925   1.421   9.281
68258SOL    HW1 6613  12.966   1.335   9.277
68258SOL    HW2 6614  12.888   1.426   9.369
68259SOL     OW 6615   8.170   1.498   9.613
68259SOL    HW1 6616   8.185   1.592   9.618
68259SOL    HW2 6617   8.204   1.473   9.527
68260SOL     OW 6618  12.749   5.145  11.915
68260SOL    HW1 6619  12.687   5.109  11.851
68260SOL    HW2 6620  12.783   5.069  11.961
68261SOL     OW 6621   6.557  10.572   7.478
68261SOL    HW1 6622   6.609  10.624   7.539
68261SOL    HW2 6623   6.569  10.615   7.393
68262SOL     OW 6624  10.649   5.394   1.227
68262SOL    HW1 6625  10.587   5.406   1.299
68262SOL    HW2 6626  10.614   5.320   1.178
68263SOL     OW 6627  10.804   2.110  11.387
68263SOL    HW1 6628  10.812   2.015  11.393
68263SOL    HW2 6629  10.730   2.132  11.445
68264SOL     OW 6630   0.104   3.385   0.005
68264SOL    HW1 6631   0.031   3.429  14.840
68264SOL    HW2 6632   0.092   3.408   0.097
68265SOL     OW 6633   3.573   3.362  13.181
68265SOL    HW1 6634   3.596   3.434  13.122
68265SOL    HW2 6635   3.552   3.405  13.265
68266SOL     OW 6636   5.417   8.417   9.923
68266SOL    HW1 6637   5.333   8.421   9.876
68266SOL    HW2 6638   5.449   8.328   9.907
68267SOL     OW 6639   3.560   3.970   9.046
68267SOL    HW1 6640   3.538   3.991   9.137
68267SOL    HW2 6641   3.590   3.879   9.049
68268SOL     OW 6642   4.510  13.001  13.172
68268SOL    HW1 6643   4.418  12.974  13.171
68268SOL    HW2 6644   4.508  13.096  13.172
68269SOL     OW 6645   5.606   9.635   4.781
68269SOL    HW1 6646   5.694   9.661   4.807
68269SOL    HW2 6647   5.617   9.595   4.694
68270SOL     OW 6648   8.540   1.992   3.402
68270SOL    HW1 6649   8.477   1.931   3.438
68270SOL    HW2 6650   8.561   1.957   3.316
68271SOL     OW 6651  10.634   2.846   1.254
68271SOL    HW1 6652  10.631   2.927   1.305
68271SOL    HW2 6653  10.726   2.839   1.226
68272SOL     OW 6654   1.481   4.770  14.597
68272SOL    HW1 6655   1.416   4.700  14.601
68272SOL    HW2 6656   1.430   4.849  14.581
68273SOL     OW 6657   6.005  14.523   8.871
68273SOL    HW1 6658   5.987  14.573   8.951
68273SOL    HW2 6659   5.932  14.544   8.812
68274SOL     OW 6660   1.058   9.303   6.028
68274SOL    HW1 6661   1.114   9.332   5.957
68274SOL    HW2 6662   1.029   9.383   6.071
68275SOL     OW 6663  11.086   0.830   9.490
68275SOL    HW1 6664  11.132   0.914   9.498
68275SOL    HW2 6665  10.994   0.855   9.479
68276SOL     OW 6666   7.153   3.186   0.688
68276SOL    HW1 6667   7.248   3.174   0.697
68276SOL    HW2 6668   7.114   3.127   0.752
68277SOL     OW 6669   0.942   2.636   3.287
68277SOL    HW1 6670   0.976   2.701   3.226
68277SOL    HW2 6671   1.001   2.642   3.363
68278SOL     OW 6672   6.468   8.060  14.862
68278SOL    HW1 6673   6.411   8.065   0.060
68278SOL    HW2 6674   6.429   8.121  14.799
68279SOL     OW 6675  12.666  11.017   0.417
68279SOL    HW1 6676  12.697  10.929   0.435
68279SOL    HW2 6677  12.725  11.074   0.465
68280SOL     OW 6678  11.783   1.491   8.888
68280SOL    HW1 6679  11.779   1.457   8.798
68280SOL    HW2 6680  11.802   1.584   8.877
68281SOL     OW 6681   6.137  12.875   0.647
68281SOL    HW1 6682   6.132  12.809   0.716
68281SOL    HW2 6683   6.206  12.842   0.588
68282SOL     OW 6684   6.140   2.436  13.392
68282SOL    HW1 6685   6.073   2.480  13.339
68282SOL    HW2 6686   6.220   2.486  13.374
68283SOL     OW 6687  13.717  10.086   2.110
68283SOL    HW1 6688  13.677  10.151   2.168
68283SOL    HW2 6689  13.810  10.089   2.131
68284SOL     OW 6690  12.706   4.021  12.175
68284SOL    HW1 6691  12.624   4.007  12.128
68284SOL    HW2 6692  12.759   4.074  12.115
68285SOL     OW 6693   8.717   2.511   2.041
68285SOL    HW1 6694   8.663   2.526   1.963
68285SOL    HW2 6695   8.659   2.529   2.115
68286SOL     OW 6696   4.078   3.995  10.298
68286SOL    HW1 6697   4.143   3.940  10.339
68286SOL    HW2 6698   4.017   4.017  10.368
68287SOL     OW 6699   5.695  14.093  12.826
68287SOL    HW1 6700   5.743  14.069  12.905
68287SOL    HW2 6701   5.719  14.185  12.811
68288SOL     OW 6702   6.880  11.818   9.686
68288SOL    HW1 6703   6.810  11.754   9.700
68288SOL    HW2 6704   6.837  11.892   9.643
68289SOL     OW 6705   4.712   3.830   0.591
68289SOL    HW1 6706   4.660   3.887   0.648
68289SOL    HW2 6707   4.800   3.833   0.628
68290SOL     OW 6708   7.142  12.465   3.124
68290SOL    HW1 6709   7.113  12.423   3.043
68290SOL    HW2 6710   7.204  12.403   3.163
68291SOL     OW 6711   9.032  11.103   9.428
68291SOL    HW1 6712   8.985  11.098   9.511
68291SOL    HW2 6713   8.988  11.172   9.379
68292SOL     OW 6714  14.012   8.660   4.007
68292SOL    HW1 6715  14.039   8.585   3.953
68292SOL    HW2 6716  13.916   8.658   4.003
68293SOL     OW 6717  13.518   8.171   0.240
68293SOL    HW1 6718  13.428   8.196   0.219
68293SOL    HW2 6719  13.514   8.076   0.253
68294SOL     OW 6720   8.676   0.567  13.418
68294SOL    HW1 6721   8.682   0.653  13.459
68294SOL    HW2 6722   8.608   0.577  13.350
68295SOL     OW 6723   7.090   3.400  14.386
68295SOL    HW1 6724   7.148   3.444  14.448
68295SOL    HW2 6725   7.002   3.411  14.422
68296SOL     OW 6726  11.968   1.871  11.763
68296SOL    HW1 6727  11.902   1.851  11.830
68296SOL    HW2 6728  11.946   1.960  11.734
68297SOL     OW 6729  14.322   3.583  11.507
68297SOL    HW1 6730  14.320   3.488  11.494
68297SOL    HW2 6731  14.254   3.600  11.572
68298SOL     OW 6732  10.874   2.331   6.958
68298SOL    HW1 6733  10.826   2.332   6.875
68298SOL    HW2 6734  10.808   2.356   7.023
68299SOL     OW 6735   0.635   1.543   7.147
68299SOL    HW1 6736   0.677   1.529   7.232
68299SOL    HW2 6737   0.542   1.525   7.162
68300SOL     OW 6738  12.708   7.780  11.745
68300SOL    HW1 6739  12.656   7.830  11.808
68300SOL    HW2 6740  12.652   7.775  11.667
68301SOL     OW 6741   5.722   4.963   8.735
68301SOL    HW1 6742   5.662   4.925   8.800
68301SOL    HW2 6743   5.671   4.966   8.654
68302SOL     OW 6744  13.867   6.333   0.463
68302SOL    HW1 6745  13.808   6.259   0.475
68302SOL    HW2 6746  13.900   6.352   0.551
68303SOL     OW 6747  10.411   0.365   3.695
68303SOL    HW1 6748  10.400   0.412   3.612
68303SOL    HW2 6749  10.453   0.428   3.753
68304SOL     OW 6750   2.968   8.983   3.824
68304SOL    HW1 6751   2.972   9.074   3.851
68304SOL    HW2 6752   3.038   8.940   3.873
68305SOL     OW 6753  13.318  12.334   1.772
68305SOL    HW1 6754  13.316  12.314   1.678
68305SOL    HW2 6755  13.244  12.287   1.808
68306SOL     OW 6756   3.334   0.284  10.361
68306SOL    HW1 6757   3.251   0.246  10.332
68306SOL    HW2 6758   3.363   0.226  10.431
68307SOL     OW 6759   1.287   6.840   6.306
68307SOL    HW1 6760   1.362   6.814   6.253
68307SOL    HW2 6761   1.210   6.820   6.252
68308SOL     OW 6762  13.481   0.064  13.624
68308SOL    HW1 6763  13.486   0.100  13.712
68308SOL    HW2 6764  13.431   0.129  13.574
68309SOL     OW 6765   1.904   9.886   5.587
68309SOL    HW1 6766   1.924   9.931   5.670
68309SOL    HW2 6767   1.983   9.834   5.569
68310SOL     OW 6768   7.669   2.614   1.356
68310SOL    HW1 6769   7.764   2.619   1.361
68310SOL    HW2 6770   7.653   2.545   1.291
68311SOL     OW 6771   4.142   7.152   3.758
68311SOL    HW1 6772   4.068   7.152   3.697
68311SOL    HW2 6773   4.103   7.125   3.842
68312SOL     OW 6774  13.929  12.836  14.865
68312SOL    HW1 6775  13.851  12.863   0.035
68312SOL    HW2 6776  13.949  12.911  14.810
68313SOL     OW 6777   9.107  13.832  12.509
68313SOL    HW1 6778   9.170  13.768  12.541
68313SOL    HW2 6779   9.042  13.839  12.579
68314SOL     OW 6780   2.772   0.118   9.977
68314SOL    HW1 6781   2.821   0.196   9.951
68314SOL    HW2 6782   2.837   0.047   9.977
68315SOL     OW 6783   9.201   3.086   5.885
68315SOL    HW1 6784   9.147   3.161   5.860
68315SOL    HW2 6785   9.221   3.101   5.978
68316SOL     OW 6786   3.006   1.906  11.460
68316SOL    HW1 6787   3.088   1.921  11.412
68316SOL    HW2 6788   2.937   1.935  11.399
68317SOL     OW 6789   6.583   5.429  14.438
68317SOL    HW1 6790   6.529   5.396  14.365
68317SOL    HW2 6791   6.535   5.505  14.470
68318SOL     OW 6792   4.070  12.222  12.395
68318SOL    HW1 6793   4.020  12.147  12.362
68318SOL    HW2 6794   4.004  12.290  12.407
68319SOL     OW 6795   6.211   6.497  12.886
68319SOL    HW1 6796   6.144   6.560  12.912
68319SOL    HW2 6797   6.225   6.444  12.964
68320SOL     OW 6798   8.273  13.277   7.724
68320SOL    HW1 6799   8.207  13.320   7.778
68320SOL    HW2 6800   8.249  13.184   7.725
68321SOL     OW 6801   6.751   6.825   6.487
68321SOL    HW1 6802   6.673   6.852   6.536
68321SOL    HW2 6803   6.757   6.887   6.415
68322SOL     OW 6804   2.986   3.033  12.992
68322SOL    HW1 6805   2.981   2.945  12.955
68322SOL    HW2 6806   2.987   3.091  12.915
68323SOL     OW 6807  12.331  14.162   7.372
68323SOL    HW1 6808  12.388  14.228   7.413
68323SOL    HW2 6809  12.246  14.206   7.364
68324SOL     OW 6810   8.613  14.469   9.666
68324SOL    HW1 6811   8.529  14.458   9.622
68324SOL    HW2 6812   8.646  14.380   9.677
68325SOL     OW 6813  13.241   1.082   7.349
68325SOL    HW1 6814  13.258   1.156   7.290
68325SOL    HW2 6815  13.147   1.090   7.369
68326SOL     OW 6816  14.086  10.808  14.650
68326SOL    HW1 6817  14.168  10.765  14.672
68326SOL    HW2 6818  14.088  10.817  14.554
68327SOL     OW 6819  11.381   4.553   7.704
68327SOL    HW1 6820  11.465   4.578   7.742
68327SOL    HW2 6821  11.396   4.557   7.609
68328SOL     OW 6822  14.783   8.568   0.404
68328SOL    HW1 6823  14.700   8.603   0.436
68328SOL    HW2 6824  14.828   8.538   0.483
68329SOL     OW 6825   3.793  11.866   1.907
68329SOL    HW1 6826   3.879  11.897   1.933
68329SOL    HW2 6827   3.761  11.933   1.847
68330SOL     OW 6828   0.970   9.611  12.460
68330SOL    HW1 6829   0.899   9.571  12.509
68330SOL    HW2 6830   0.961   9.577  12.371
68331SOL     OW 6831   2.738   2.968   0.035
68331SOL    HW1 6832   2.773   3.046  14.872
68331SOL    HW2 6833   2.717   2.909  14.842
68332SOL     OW 6834   3.465   3.220  12.864
68332SOL    HW1 6835   3.502   3.134  12.844
68332SOL    HW2 6836   3.528   3.282  12.828
68333SOL     OW 6837   9.134   5.757   8.599
68333SOL    HW1 6838   9.074   5.830   8.581
68333SOL    HW2 6839   9.100   5.718   8.680
68334SOL     OW 6840   9.116   2.701  13.934
68334SOL    HW1 6841   9.033   2.679  13.976
68334SOL    HW2 6842   9.158   2.617  13.917
68335SOL     OW 6843   6.673  12.641  13.233
68335SOL    HW1 6844   6.611  12.711  13.252
68335SOL    HW2 6845   6.758  12.678  13.258
68336SOL     OW 6846   8.893   8.228  13.108
68336SOL    HW1 6847   8.924   8.258  13.023
68336SOL    HW2 6848   8.850   8.305  13.146
68337SOL     OW 6849   1.945   5.689  12.910
68337SOL    HW1 6850   1.990   5.762  12.866
68337SOL    HW2 6851   1.854   5.717  12.916
68338SOL     OW 6852  14.756  10.617  14.218
68338SOL    HW1 6853  14.804  10.656  14.292
68338SOL    HW2 6854  14.719  10.692  14.172
68339SOL     OW 6855  11.955   6.151   0.937
68339SOL    HW1 6856  12.043   6.148   0.974
68339SOL    HW2 6857  11.968   6.135   0.843
68340SOL     OW 6858  10.144  10.611  11.959
68340SOL    HW1 6859  10.118  10.573  11.875
68340SOL    HW2 6860  10.094  10.692  11.966
68341SOL     OW 6861  11.054   3.146  11.442
68341SOL    HW1 6862  11.081   3.056  11.458
68341SOL    HW2 6863  11.123   3.199  11.482
68342SOL     OW 6864  10.234  11.258  11.642
68342SOL    HW1 6865  10.259  11.166  11.631
68342SOL    HW2 6866  10.285  11.288  11.717
68343SOL     OW 6867  14.045   4.281  11.737
68343SOL    HW1 6868  14.094   4.355  11.772
68343SOL    HW2 6869  14.020   4.308  11.649
68344SOL     OW 6870   3.768   7.757   0.382
68344SOL    HW1 6871   3.768   7.673   0.427
68344SOL    HW2 6872   3.811   7.739   0.298
68345SOL     OW 6873   8.043   3.125   6.754
68345SOL    HW1 6874   7.991   3.188   6.803
68345SOL    HW2 6875   7.979   3.059   6.725
68346SOL     OW 6876  12.371   3.349   9.075
68346SOL    HW1 6877  12.341   3.267   9.114
68346SOL    HW2 6878  12.464   3.355   9.098
68347SOL     OW 6879   2.244  14.129  11.619
68347SOL    HW1 6880   2.319  14.152  11.565
68347SOL    HW2 6881   2.218  14.211  11.661
68348SOL     OW 6882  11.561   5.264  12.174
68348SOL    HW1 6883  11.482   5.224  12.209
68348SOL    HW2 6884  11.532   5.307  12.093
68349SOL     OW 6885   9.362   8.145   8.416
68349SOL    HW1 6886   9.330   8.235   8.426
68349SOL    HW2 6887   9.306   8.107   8.348
68350SOL     OW 6888   6.076   1.480   9.977
68350SOL    HW1 6889   6.065   1.488  10.072
68350SOL    HW2 6890   6.019   1.406   9.953
68351SOL     OW 6891   5.360   4.545  10.905
68351SOL    HW1 6892   5.349   4.640  10.913
68351SOL    HW2 6893   5.397   4.532  10.818
68352SOL     OW 6894   9.135  12.371   5.445
68352SOL    HW1 6895   9.169  12.370   5.534
68352SOL    HW2 6896   9.049  12.413   5.452
68353SOL     OW 6897   3.476   7.146   8.242
68353SOL    HW1 6898   3.509   7.081   8.304
68353SOL    HW2 6899   3.395   7.178   8.281
68354SOL     OW 6900  14.762   0.578   1.897
68354SOL    HW1 6901  14.846   0.553   1.857
68354SOL    HW2 6902  14.780   0.579   1.991
68355SOL     OW 6903   8.030   8.196  13.591
68355SOL    HW1 6904   8.014   8.161  13.678
68355SOL    HW2 6905   7.961   8.160  13.537
68356SOL     OW 6906   0.586   9.119  10.676
68356SOL    HW1 6907   0.682   9.114  10.685
68356SOL    HW2 6908   0.567   9.060  10.603
68357SOL     OW 6909   4.326   7.525  10.455
68357SOL    HW1 6910   4.399   7.569  10.413
68357SOL    HW2 6911   4.252   7.541  10.397
68358SOL     OW 6912  11.449   9.010   9.494
68358SOL    HW1 6913  11.437   8.918   9.469
68358SOL    HW2 6914  11.372   9.030   9.547
68359SOL     OW 6915   2.049  13.813   5.977
68359SOL    HW1 6916   2.139  13.824   5.945
68359SOL    HW2 6917   2.050  13.726   6.018
68360SOL     OW 6918   4.780   2.938  12.914
68360SOL    HW1 6919   4.871   2.912  12.922
68360SOL    HW2 6920   4.731   2.856  12.908
68361SOL     OW 6921   5.040   1.421   1.097
68361SOL    HW1 6922   5.128   1.429   1.134
68361SOL    HW2 6923   4.982   1.426   1.173
68362SOL     OW 6924  11.937  11.787  11.576
68362SOL    HW1 6925  11.964  11.875  11.603
68362SOL    HW2 6926  11.842  11.785  11.590
68363SOL     OW 6927   9.253   1.400   1.551
68363SOL    HW1 6928   9.234   1.492   1.571
68363SOL    HW2 6929   9.168   1.360   1.537
68364SOL     OW 6930   2.952   0.592   3.544
68364SOL    HW1 6931   2.915   0.642   3.472
68364SOL    HW2 6932   3.045   0.616   3.546
68365SOL     OW 6933   7.651  14.310   9.395
68365SOL    HW1 6934   7.634  14.299   9.301
68365SOL    HW2 6935   7.674  14.403   9.404
68366SOL     OW 6936   2.012  10.979   1.591
68366SOL    HW1 6937   1.932  11.032   1.596
68366SOL    HW2 6938   1.989  10.897   1.634
68367SOL     OW 6939   4.559   8.758   7.763
68367SOL    HW1 6940   4.489   8.692   7.764
68367SOL    HW2 6941   4.568   8.781   7.671
68368SOL     OW 6942  10.714  12.926   6.603
68368SOL    HW1 6943  10.765  12.954   6.679
68368SOL    HW2 6944  10.699  12.833   6.617
68369SOL     OW 6945   5.979  14.064   9.038
68369SOL    HW1 6946   6.067  14.031   9.052
68369SOL    HW2 6947   5.924  13.986   9.030
68370SOL     OW 6948  10.938   4.483  10.249
68370SOL    HW1 6949  10.886   4.563  10.253
68370SOL    HW2 6950  11.028   4.513  10.240
68371SOL     OW 6951   3.316   9.800   6.983
68371SOL    HW1 6952   3.234   9.784   6.936
68371SOL    HW2 6953   3.384   9.791   6.916
68372SOL     OW 6954   2.023  10.549  11.445
68372SOL    HW1 6955   2.110  10.516  11.468
68372SOL    HW2 6956   1.970  10.470  11.433
68373SOL     OW 6957  11.529   3.728   5.253
68373SOL    HW1 6958  11.550   3.643   5.214
68373SOL    HW2 6959  11.448   3.713   5.302
68374SOL     OW 6960   9.036   1.355   0.220
68374SOL    HW1 6961   9.021   1.421   0.287
68374SOL    HW2 6962   8.975   1.284   0.242
68375SOL     OW 6963   6.586   8.336   7.538
68375SOL    HW1 6964   6.590   8.415   7.591
68375SOL    HW2 6965   6.615   8.365   7.451
68376SOL     OW 6966   6.688   8.474   5.068
68376SOL    HW1 6967   6.596   8.472   5.095
68376SOL    HW2 6968   6.685   8.501   4.976
68377SOL     OW 6969   1.345   9.065   8.117
68377SOL    HW1 6970   1.303   9.146   8.087
68377SOL    HW2 6971   1.283   9.028   8.180
68378SOL     OW 6972  11.834   0.330   4.321
68378SOL    HW1 6973  11.880   0.252   4.289
68378SOL    HW2 6974  11.761   0.295   4.372
68379SOL     OW 6975   4.745   9.213  10.619
68379SOL    HW1 6976   4.810   9.269  10.662
68379SOL    HW2 6977   4.791   9.176  10.544
68380SOL     OW 6978   5.284  13.559  13.273
68380SOL    HW1 6979   5.203  13.603  13.298
68380SOL    HW2 6980   5.323  13.616  13.207
68381SOL     OW 6981   5.779   9.574  14.863
68381SOL    HW1 6982   5.818   9.543  14.781
68381SOL    HW2 6983   5.813   9.663  14.873
68382SOL     OW 6984   4.690   0.745   3.249
68382SOL    HW1 6985   4.693   0.838   3.273
68382SOL    HW2 6986   4.603   0.733   3.210
68383SOL     OW 6987  12.775   8.491   4.948
68383SOL    HW1 6988  12.744   8.496   5.038
68383SOL    HW2 6989  12.696   8.494   4.895
68384SOL     OW 6990   4.458   5.569   3.877
68384SOL    HW1 6991   4.451   5.484   3.834
68384SOL    HW2 6992   4.442   5.551   3.970
68385SOL     OW 6993   9.696   6.402   8.311
68385SOL    HW1 6994   9.627   6.381   8.374
68385SOL    HW2 6995   9.670   6.487   8.275
68386SOL     OW 6996  14.095   4.181   3.197
68386SOL    HW1 6997  14.000   4.195   3.198
68386SOL    HW2 6998  14.129   4.246   3.259
68387SOL     OW 6999  12.301   2.279   4.197
68387SOL    HW1 7000  12.383   2.233   4.216
68387SOL    HW2 7001  12.277   2.250   4.109
68388SOL     OW 7002   2.921   5.255  14.597
68388SOL    HW1 7003   2.916   5.177  14.653
68388SOL    HW2 7004   3.011   5.256  14.566
68389SOL     OW 7005  12.660  12.393   6.072
68389SOL    HW1 7006  12.628  12.374   5.984
68389SOL    HW2 7007  12.582  12.386   6.128
68390SOL     OW 7008   6.390   7.990   5.725
68390SOL    HW1 7009   6.429   8.025   5.645
68390SOL    HW2 7010   6.299   8.021   5.723
68391SOL     OW 7011   0.971  12.765  10.055
68391SOL    HW1 7012   0.958  12.781   9.962
68391SOL    HW2 7013   1.058  12.724  10.061
68392SOL     OW 7014   4.964   1.649   4.693
68392SOL    HW1 7015   4.902   1.623   4.760
68392SOL    HW2 7016   4.927   1.728   4.654
68393SOL     OW 7017   7.029  13.841   8.210
68393SOL    HW1 7018   7.001  13.932   8.220
68393SOL    HW2 7019   7.022  13.824   8.117
68394SOL     OW 7020   5.286   2.203   8.933
68394SOL    HW1 7021   5.365   2.148   8.940
68394SOL    HW2 7022   5.218   2.151   8.975
68395SOL     OW 7023   5.909   3.978  10.830
68395SOL    HW1 7024   5.894   3.949  10.740
68395SOL    HW2 7025   5.961   3.908  10.869
68396SOL     OW 7026   6.218  14.540   3.899
68396SOL    HW1 7027   6.282  14.559   3.831
68396SOL    HW2 7028   6.270  14.529   3.978
68397SOL     OW 7029   0.824   4.909   4.611
68397SOL    HW1 7030   0.887   4.979   4.630
68397SOL    HW2 7031   0.746   4.934   4.660
68398SOL     OW 7032  11.573  11.257   6.486
68398SOL    HW1 7033  11.585  11.216   6.571
68398SOL    HW2 7034  11.642  11.218   6.431
68399SOL     OW 7035   3.996   7.175   0.687
68399SOL    HW1 7036   4.090   7.192   0.697
68399SOL    HW2 7037   3.973   7.220   0.605
68400SOL     OW 7038  13.287   5.840   5.458
68400SOL    HW1 7039  13.291   5.848   5.363
68400SOL    HW2 7040  13.277   5.746   5.474
68401SOL     OW 7041   2.919   3.272   3.522
68401SOL    HW1 7042   2.959   3.357   3.537
68401SOL    HW2 7043   2.906   3.236   3.610
68402SOL     OW 7044   1.811   1.195  14.210
68402SOL    HW1 7045   1.878   1.263  14.201
68402SOL    HW2 7046   1.848   1.133  14.274
68403SOL     OW 7047   9.343   9.828   2.819
68403SOL    HW1 7048   9.354   9.906   2.872
68403SOL    HW2 7049   9.263   9.844   2.768
68404SOL     OW 7050   0.565   3.364   5.013
68404SOL    HW1 7051   0.651   3.335   4.982
68404SOL    HW2 7052   0.513   3.376   4.934
68405SOL     OW 7053   0.456   3.789   4.215
68405SOL    HW1 7054   0.373   3.789   4.263
68405SOL    HW2 7055   0.437   3.837   4.135
68406SOL     OW 7056  10.183  13.209   7.111
68406SOL    HW1 7057  10.244  13.190   7.182
68406SOL    HW2 7058  10.225  13.280   7.061
68407SOL     OW 7059  14.754   4.124  11.614
68407SOL    HW1 7060  14.708   4.208  11.604
68407SOL    HW2 7061  14.831   4.146  11.666
68408SOL     OW 7062   2.068   7.084   8.781
68408SOL    HW1 7063   2.106   7.015   8.836
68408SOL    HW2 7064   2.100   7.065   8.693
68409SOL     OW 7065   5.154   0.336  10.610
68409SOL    HW1 7066   5.189   0.271  10.672
68409SOL    HW2 7067   5.066   0.355  10.642
68410SOL     OW 7068  11.603   7.275   1.104
68410SOL    HW1 7069  11.593   7.232   1.189
68410SOL    HW2 7070  11.663   7.348   1.121
68411SOL     OW 7071   6.041  11.975   2.309
68411SOL    HW1 7072   6.069  11.883   2.307
68411SOL    HW2 7073   5.950  11.971   2.338
68412SOL     OW 7074  13.205   1.441   1.986
68412SOL    HW1 7075  13.212   1.532   1.957
68412SOL    HW2 7076  13.238   1.442   2.076
68413SOL     OW 7077   7.395  11.718   8.234
68413SOL    HW1 7078   7.437  11.776   8.298
68413SOL    HW2 7079   7.400  11.767   8.151
68414SOL     OW 7080   5.238   7.680   6.228
68414SOL    HW1 7081   5.265   7.589   6.215
68414SOL    HW2 7082   5.206   7.683   6.318
68415SOL     OW 7083   7.974   1.694   7.614
68415SOL    HW1 7084   8.034   1.763   7.640
68415SOL    HW2 7085   8.000   1.619   7.668
68416SOL     OW 7086  11.093   9.884   2.643
68416SOL    HW1 7087  11.140   9.806   2.612
68416SOL    HW2 7088  11.120   9.954   2.582
68417SOL     OW 7089   0.659   0.876  13.862
68417SOL    HW1 7090   0.658   0.921  13.778
68417SOL    HW2 7091   0.652   0.783  13.840
68418SOL     OW 7092  10.761   0.815   8.188
68418SOL    HW1 7093  10.761   0.832   8.282
68418SOL    HW2 7094  10.829   0.748   8.176
68419SOL     OW 7095   0.229   2.946   4.363
68419SOL    HW1 7096   0.167   2.889   4.318
68419SOL    HW2 7097   0.307   2.945   4.307
68420SOL     OW 7098  11.750  13.237  12.655
68420SOL    HW1 7099  11.685  13.290  12.701
68420SOL    HW2 7100  11.834  13.269  12.687
68421SOL     OW 7101   0.436   6.723  13.557
68421SOL    HW1 7102   0.480   6.717  13.472
68421SOL    HW2 7103   0.507   6.726  13.621
68422SOL     OW 7104  13.427   1.839   7.545
68422SOL    HW1 7105  13.378   1.920   7.560
68422SOL    HW2 7106  13.425   1.827   7.450
68423SOL     OW 7107  12.960  13.873   2.241
68423SOL    HW1 7108  13.003  13.802   2.290
68423SOL    HW2 7109  12.887  13.900   2.296
68424SOL     OW 7110   9.015   4.365  11.941
68424SOL    HW1 7111   9.013   4.436  12.006
68424SOL    HW2 7112   8.924   4.353  11.915
68425SOL     OW 7113   3.240   0.124  10.014
68425SOL    HW1 7114   3.181   0.195  10.040
68425SOL    HW2 7115   3.259   0.078  10.096
68426SOL     OW 7116  14.820   1.180  14.145
68426SOL    HW1 7117  14.753   1.179  14.214
68426SOL    HW2 7118   0.021   1.151  14.190
68427SOL     OW 7119   7.744  12.065   2.659
68427SOL    HW1 7120   7.780  12.141   2.613
68427SOL    HW2 7121   7.821  12.021   2.695
68428SOL     OW 7122   3.249  13.299   4.499
68428SOL    HW1 7123   3.184  13.273   4.564
68428SOL    HW2 7124   3.205  13.368   4.448
68429SOL     OW 7125   6.902   5.279   9.497
68429SOL    HW1 7126   6.984   5.302   9.454
68429SOL    HW2 7127   6.924   5.206   9.555
68430SOL     OW 7128   5.854   4.507  14.560
68430SOL    HW1 7129   5.832   4.600  14.564
68430SOL    HW2 7130   5.942   4.502  14.598
68431SOL     OW 7131   9.164   9.328   2.242
68431SOL    HW1 7132   9.213   9.403   2.276
68431SOL    HW2 7133   9.073   9.349   2.260
68432SOL     OW 7134   4.907   6.993   7.322
68432SOL    HW1 7135   4.921   7.018   7.413
68432SOL    HW2 7136   4.964   7.051   7.272
68433SOL     OW 7137  11.444  13.287   5.009
68433SOL    HW1 7138  11.527  13.327   5.036
68433SOL    HW2 7139  11.382  13.313   5.077
68434SOL     OW 7140   1.355   3.332   8.966
68434SOL    HW1 7141   1.399   3.316   8.883
68434SOL    HW2 7142   1.267   3.361   8.941
68435SOL     OW 7143  14.428   2.019   7.919
68435SOL    HW1 7144  14.385   2.082   7.977
68435SOL    HW2 7145  14.512   2.001   7.962
68436SOL     OW 7146   7.966   4.208   2.823
68436SOL    HW1 7147   7.987   4.300   2.833
68436SOL    HW2 7148   8.014   4.164   2.893
68437SOL     OW 7149  14.289   6.693  13.476
68437SOL    HW1 7150  14.197   6.668  13.473
68437SOL    HW2 7151  14.333   6.618  13.516
68438SOL     OW 7152   1.644   4.696  12.965
68438SOL    HW1 7153   1.567   4.731  12.920
68438SOL    HW2 7154   1.704   4.770  12.971
68439SOL     OW 7155   4.486   9.959   8.974
68439SOL    HW1 7156   4.451  10.036   9.018
68439SOL    HW2 7157   4.571   9.986   8.941
68440SOL     OW 7158   2.150   7.838   7.584
68440SOL    HW1 7159   2.104   7.915   7.549
68440SOL    HW2 7160   2.215   7.875   7.645
68441SOL     OW 7161   5.053  11.658  14.344
68441SOL    HW1 7162   4.965  11.651  14.306
68441SOL    HW2 7163   5.041  11.634  14.436
68442SOL     OW 7164  12.274   9.469   0.304
68442SOL    HW1 7165  12.259   9.528   0.231
68442SOL    HW2 7166  12.263   9.381   0.268
68443SOL     OW 7167  12.628   3.557  13.334
68443SOL    HW1 7168  12.567   3.499  13.288
68443SOL    HW2 7169  12.671   3.500  13.399
68444SOL     OW 7170   3.047  11.222   1.925
68444SOL    HW1 7171   3.096  11.148   1.890
68444SOL    HW2 7172   2.958  11.189   1.934
68445SOL     OW 7173   3.563  12.865   8.705
68445SOL    HW1 7174   3.632  12.889   8.642
68445SOL    HW2 7175   3.482  12.896   8.664
68446SOL     OW 7176   2.562   6.776   9.467
68446SOL    HW1 7177   2.551   6.710   9.398
68446SOL    HW2 7178   2.640   6.824   9.440
68447SOL     OW 7179   2.871   4.539   5.913
68447SOL    HW1 7180   2.961   4.564   5.933
68447SOL    HW2 7181   2.847   4.477   5.982
68448SOL     OW 7182  12.484   7.562   7.864
68448SOL    HW1 7183  12.396   7.534   7.890
68448SOL    HW2 7184  12.518   7.609   7.940
68449SOL     OW 7185  13.954   9.068   0.531
68449SOL    HW1 7186  14.029   9.009   0.536
68449SOL    HW2 7187  13.929   9.084   0.622
68450SOL     OW 7188   5.207   3.265  13.008
68450SOL    HW1 7189   5.117   3.291  12.987
68450SOL    HW2 7190   5.260   3.339  12.979
68451SOL     OW 7191   0.620   0.615  13.410
68451SOL    HW1 7192   0.638   0.590  13.501
68451SOL    HW2 7193   0.558   0.688  13.417
68452SOL     OW 7194  12.023   4.347   4.012
68452SOL    HW1 7195  12.042   4.347   3.918
68452SOL    HW2 7196  11.944   4.292   4.020
68453SOL     OW 7197  10.069   7.384   5.273
68453SOL    HW1 7198  10.101   7.296   5.287
68453SOL    HW2 7199   9.974   7.378   5.289
68454SOL     OW 7200  12.638   5.650  12.863
68454SOL    HW1 7201  12.663   5.587  12.931
68454SOL    HW2 7202  12.721   5.676  12.823
68455SOL     OW 7203   4.588  13.123  12.082
68455SOL    HW1 7204   4.558  13.166  12.002
68455SOL    HW2 7205   4.512  13.071  12.111
68456SOL     OW 7206   9.206   0.857  10.284
68456SOL    HW1 7207   9.291   0.879  10.320
68456SOL    HW2 7208   9.192   0.922  10.215
68457SOL     OW 7209  14.514  13.126  10.258
68457SOL    HW1 7210  14.484  13.100  10.345
68457SOL    HW2 7211  14.436  13.120  10.203
68458SOL     OW 7212   1.273   9.516  12.926
68458SOL    HW1 7213   1.241   9.464  13.000
68458SOL    HW2 7214   1.366   9.495  12.919
68459SOL     OW 7215  13.013   3.395   2.313
68459SOL    HW1 7216  13.080   3.363   2.253
68459SOL    HW2 7217  13.054   3.468   2.359
68460SOL     OW 7218  11.366   3.647   6.126
68460SOL    HW1 7219  11.414   3.615   6.201
68460SOL    HW2 7220  11.391   3.590   6.054
68461SOL     OW 7221   3.379  10.824   2.953
68461SOL    HW1 7222   3.437  10.844   2.880
68461SOL    HW2 7223   3.438  10.805   3.026
68462SOL     OW 7224  14.849   6.261   0.983
68462SOL    HW1 7225  14.772   6.282   0.930
68462SOL    HW2 7226  14.851   6.166   0.987
68463SOL     OW 7227   9.425   6.535   6.050
68463SOL    HW1 7228   9.458   6.553   5.962
68463SOL    HW2 7229   9.495   6.564   6.108
68464SOL     OW 7230   5.527  14.474  12.333
68464SOL    HW1 7231   5.618  14.459  12.307
68464SOL    HW2 7232   5.513  14.414  12.406
68465SOL     OW 7233  14.235   3.230   6.067
68465SOL    HW1 7234  14.240   3.288   5.991
68465SOL    HW2 7235  14.153   3.254   6.111
68466SOL     OW 7236   3.930   8.422   0.486
68466SOL    HW1 7237   4.024   8.407   0.498
68466SOL    HW2 7238   3.922   8.516   0.471
68467SOL     OW 7239   0.407   4.413   4.476
68467SOL    HW1 7240   0.401   4.506   4.452
68467SOL    HW2 7241   0.497   4.388   4.452
68468SOL     OW 7242  13.685   4.030   5.169
68468SOL    HW1 7243  13.638   3.947   5.171
68468SOL    HW2 7244  13.768   4.009   5.126
68469SOL     OW 7245   6.760  11.958  11.687
68469SOL    HW1 7246   6.734  12.049  11.679
68469SOL    HW2 7247   6.686  11.915  11.730
68470SOL     OW 7248   2.424  13.715   1.061
68470SOL    HW1 7249   2.360  13.665   1.010
68470SOL    HW2 7250   2.487  13.746   0.996
68471SOL     OW 7251  11.508   7.332   5.806
68471SOL    HW1 7252  11.482   7.393   5.737
68471SOL    HW2 7253  11.600   7.315   5.790
68472SOL     OW 7254   7.537  12.682   6.678
68472SOL    HW1 7255   7.455  12.663   6.723
68472SOL    HW2 7256   7.586  12.600   6.680
68473SOL     OW 7257  11.617   7.019   8.780
68473SOL    HW1 7258  11.547   7.008   8.845
68473SOL    HW2 7259  11.612   6.941   8.726
68474SOL     OW 7260   6.915  10.547   7.898
68474SOL    HW1 7261   6.919  10.628   7.948
68474SOL    HW2 7262   6.869  10.486   7.955
68475SOL     OW 7263   9.563  14.465   1.304
68475SOL    HW1 7264   9.599  14.408   1.371
68475SOL    HW2 7265   9.596  14.552   1.325
68476SOL     OW 7266  13.885   1.297   8.698
68476SOL    HW1 7267  13.832   1.229   8.656
68476SOL    HW2 7268  13.964   1.252   8.725
68477SOL     OW 7269  11.434   8.072   6.182
68477SOL    HW1 7270  11.344   8.075   6.150
68477SOL    HW2 7271  11.427   8.045   6.273
68478SOL     OW 7272  11.650  10.423   6.107
68478SOL    HW1 7273  11.661  10.381   6.023
68478SOL    HW2 7274  11.698  10.368   6.169
68479SOL     OW 7275  14.856  12.910   4.225
68479SOL    HW1 7276  14.879  13.002   4.214
68479SOL    HW2 7277   0.050  12.872   4.273
68480SOL     OW 7278   2.919   6.038   6.897
68480SOL    HW1 7279   2.978   6.009   6.828
68480SOL    HW2 7280   2.940   5.983   6.973
68481SOL     OW 7281   2.053   2.358   7.922
68481SOL    HW1 7282   2.045   2.397   8.009
68481SOL    HW2 7283   2.145   2.332   7.916
68482SOL     OW 7284   3.168  13.221  12.657
68482SOL    HW1 7285   3.086  13.270  12.648
68482SOL    HW2 7286   3.159  13.149  12.594
68483SOL     OW 7287   0.638  10.406  13.227
68483SOL    HW1 7288   0.703  10.473  13.250
68483SOL    HW2 7289   0.632  10.411  13.132
68484SOL     OW 7290   8.048  10.534  14.770
68484SOL    HW1 7291   7.953  10.521  14.775
68484SOL    HW2 7292   8.083  10.446  14.755
68485SOL     OW 7293  10.519   7.275  14.780
68485SOL    HW1 7294  10.506   7.351  14.836
68485SOL    HW2 7295  10.554   7.207  14.838
68486SOL     OW 7296  12.718   9.883   2.768
68486SOL    HW1 7297  12.724   9.839   2.853
68486SOL    HW2 7298  12.669   9.963   2.785
68487SOL     OW 7299   3.957   6.331  10.590
68487SOL    HW1 7300   3.975   6.412  10.543
68487SOL    HW2 7301   3.897   6.283  10.532
68488SOL     OW 7302   2.685  11.628  11.879
68488SOL    HW1 7303   2.781  11.629  11.875
68488SOL    HW2 7304   2.664  11.674  11.960
68489SOL     OW 7305   8.317  13.937   0.783
68489SOL    HW1 7306   8.400  13.977   0.758
68489SOL    HW2 7307   8.251  13.983   0.731
68490SOL     OW 7308   1.637  10.378  11.869
68490SOL    HW1 7309   1.582  10.308  11.836
68490SOL    HW2 7310   1.717  10.374  11.816
68491SOL     OW 7311  13.932  11.802  13.414
68491SOL    HW1 7312  13.910  11.812  13.506
68491SOL    HW2 7313  13.912  11.888  13.376
68492SOL     OW 7314   5.628   9.622   9.117
68492SOL    HW1 7315   5.569   9.613   9.042
68492SOL    HW2 7316   5.649   9.716   9.119
68493SOL     OW 7317   1.127   2.259   0.056
68493SOL    HW1 7318   1.179   2.245  14.856
68493SOL    HW2 7319   1.192   2.270   0.126
68494SOL     OW 7320  11.658  12.693   1.010
68494SOL    HW1 7321  11.679  12.735   0.927
68494SOL    HW2 7322  11.633  12.765   1.068
68495SOL     OW 7323  10.285   6.898   5.871
68495SOL    HW1 7324  10.196   6.895   5.837
68495SOL    HW2 7325  10.292   6.986   5.909
68496SOL     OW 7326   5.847   7.325  12.293
68496SOL    HW1 7327   5.801   7.275  12.226
68496SOL    HW2 7328   5.780   7.343  12.359
68497SOL     OW 7329  10.642   6.537  11.876
68497SOL    HW1 7330  10.596   6.506  11.954
68497SOL    HW2 7331  10.611   6.480  11.805
68498SOL     OW 7332   0.362   0.571   7.753
68498SOL    HW1 7333   0.307   0.591   7.828
68498SOL    HW2 7334   0.337   0.482   7.728
68499SOL     OW 7335  11.850  13.217   9.052
68499SOL    HW1 7336  11.930  13.262   9.027
68499SOL    HW2 7337  11.797  13.214   8.972
68500SOL     OW 7338   2.747   7.700   4.715
68500SOL    HW1 7339   2.843   7.702   4.719
68500SOL    HW2 7340   2.720   7.783   4.754
68501SOL     OW 7341  10.996   0.141   9.417
68501SOL    HW1 7342  11.031   0.107   9.335
68501SOL    HW2 7343  11.069   0.188   9.457
68502SOL     OW 7344  14.870   9.821   7.333
68502SOL    HW1 7345  14.803   9.844   7.269
68502SOL    HW2 7346   0.054   9.768   7.284
68503SOL     OW 7347   8.647  11.895   5.606
68503SOL    HW1 7348   8.632  11.809   5.645
68503SOL    HW2 7349   8.674  11.875   5.516
68504SOL     OW 7350   2.210   4.714   3.846
68504SOL    HW1 7351   2.282   4.662   3.881
68504SOL    HW2 7352   2.144   4.650   3.820
68505SOL     OW 7353   3.189  11.300   2.596
68505SOL    HW1 7354   3.284  11.301   2.606
68505SOL    HW2 7355   3.157  11.361   2.663
68506SOL     OW 7356  13.400   5.917   2.844
68506SOL    HW1 7357  13.492   5.938   2.830
68506SOL    HW2 7358  13.385   5.935   2.937
68507SOL     OW 7359   0.106   4.090   8.462
68507SOL    HW1 7360   0.066   4.068   8.546
68507SOL    HW2 7361   0.079   4.180   8.446
68508SOL     OW 7362   1.093   0.386   1.012
68508SOL    HW1 7363   1.040   0.370   1.090
68508SOL    HW2 7364   1.062   0.321   0.948
68509SOL     OW 7365   6.195   9.467  13.835
68509SOL    HW1 7366   6.262   9.506  13.891
68509SOL    HW2 7367   6.204   9.372  13.850
68510SOL     OW 7368   4.348   5.266  11.120
68510SOL    HW1 7369   4.442   5.260  11.141
68510SOL    HW2 7370   4.313   5.323  11.188
68511SOL     OW 7371   6.828   2.508   8.123
68511SOL    HW1 7372   6.770   2.557   8.182
68511SOL    HW2 7373   6.896   2.570   8.098
68512SOL     OW 7374   6.624   4.682   6.087
68512SOL    HW1 7375   6.631   4.695   5.992
68512SOL    HW2 7376   6.555   4.743   6.114
68513SOL     OW 7377   0.486   9.897   3.930
68513SOL    HW1 7378   0.488   9.945   4.012
68513SOL    HW2 7379   0.398   9.911   3.895
68514SOL     OW 7380   7.979  10.118  13.301
68514SOL    HW1 7381   8.053  10.149  13.353
68514SOL    HW2 7382   7.902  10.135  13.355
68515SOL     OW 7383   6.209   8.165   6.251
68515SOL    HW1 7384   6.173   8.084   6.215
68515SOL    HW2 7385   6.254   8.206   6.177
68516SOL     OW 7386   4.016   5.877   3.257
68516SOL    HW1 7387   3.999   5.826   3.337
68516SOL    HW2 7388   3.962   5.955   3.266
68517SOL     OW 7389  11.104   2.581  11.667
68517SOL    HW1 7390  11.011   2.561  11.673
68517SOL    HW2 7391  11.125   2.574  11.574
68518SOL     OW 7392  13.008   5.314   5.242
68518SOL    HW1 7393  12.928   5.367   5.240
68518SOL    HW2 7394  13.033   5.305   5.151
68519SOL     OW 7395   6.711  12.436  12.511
68519SOL    HW1 7396   6.744  12.410  12.426
68519SOL    HW2 7397   6.784  12.482  12.553
68520SOL     OW 7398  12.851  11.087  12.935
68520SOL    HW1 7399  12.915  11.153  12.909
68520SOL    HW2 7400  12.896  11.004  12.926
68521SOL     OW 7401   7.422   1.243  12.583
68521SOL    HW1 7402   7.383   1.330  12.587
68521SOL    HW2 7403   7.353   1.184  12.613
68522SOL     OW 7404  13.423   5.581   5.602
68522SOL    HW1 7405  13.382   5.568   5.517
68522SOL    HW2 7406  13.396   5.505   5.654
68523SOL     OW 7407   4.521  13.396  10.371
68523SOL    HW1 7408   4.565  13.372  10.453
68523SOL    HW2 7409   4.485  13.313  10.338
68524SOL     OW 7410  13.932   1.239  12.638
68524SOL    HW1 7411  13.913   1.299  12.565
68524SOL    HW2 7412  13.878   1.162  12.620
68525SOL     OW 7413   0.463   3.169  13.018
68525SOL    HW1 7414   0.465   3.085  13.064
68525SOL    HW2 7415   0.476   3.235  13.086
68526SOL     OW 7416   9.508  12.350   6.032
68526SOL    HW1 7417   9.432  12.382   5.983
68526SOL    HW2 7418   9.552  12.289   5.973
68527SOL     OW 7419   3.456   6.822  12.571
68527SOL    HW1 7420   3.546   6.856  12.570
68527SOL    HW2 7421   3.447   6.781  12.657
68528SOL     OW 7422   2.142   5.190   3.569
68528SOL    HW1 7423   2.167   5.099   3.555
68528SOL    HW2 7424   2.189   5.239   3.502
68529SOL     OW 7425   4.433  10.578   4.882
68529SOL    HW1 7426   4.529  10.575   4.879
68529SOL    HW2 7427   4.406  10.489   4.904
68530SOL     OW 7428  10.656   0.179  14.780
68530SOL    HW1 7429  10.592   0.131  14.833
68530SOL    HW2 7430  10.636   0.271  14.795
68531SOL     OW 7431   5.783   9.349   1.506
68531SOL    HW1 7432   5.704   9.338   1.560
68531SOL    HW2 7433   5.763   9.301   1.425
68532SOL     OW 7434   6.970   5.501   8.813
68532SOL    HW1 7435   6.948   5.560   8.885
68532SOL    HW2 7436   6.894   5.507   8.754
68533SOL     OW 7437   6.095  13.095   0.510
68533SOL    HW1 7438   6.108  13.009   0.550
68533SOL    HW2 7439   6.089  13.156   0.584
68534SOL     OW 7440   4.060   7.722   9.674
68534SOL    HW1 7441   3.975   7.755   9.646
68534SOL    HW2 7442   4.096   7.681   9.596
68535SOL     OW 7443   1.899  12.170  13.812
68535SOL    HW1 7444   1.931  12.145  13.899
68535SOL    HW2 7445   1.926  12.261  13.802
68536SOL     OW 7446   0.665   6.271  12.671
68536SOL    HW1 7447   0.704   6.215  12.605
68536SOL    HW2 7448   0.698   6.359  12.650
68537SOL     OW 7449   3.062   2.221  10.493
68537SOL    HW1 7450   3.000   2.220  10.420
68537SOL    HW2 7451   3.106   2.136  10.489
68538SOL     OW 7452   2.201   0.593   3.195
68538SOL    HW1 7453   2.283   0.639   3.175
68538SOL    HW2 7454   2.186   0.609   3.288
68539SOL     OW 7455   0.180   1.519  12.887
68539SOL    HW1 7456   0.117   1.527  12.815
68539SOL    HW2 7457   0.190   1.425  12.900
68540SOL     OW 7458   9.219   5.632   8.852
68540SOL    HW1 7459   9.258   5.701   8.907
68540SOL    HW2 7460   9.227   5.552   8.904
68541SOL     OW 7461  13.292  12.646   4.606
68541SOL    HW1 7462  13.314  12.576   4.666
68541SOL    HW2 7463  13.368  12.703   4.605
68542SOL     OW 7464  10.081  10.970   5.613
68542SOL    HW1 7465  10.012  10.934   5.558
68542SOL    HW2 7466  10.104  10.899   5.672
68543SOL     OW 7467  11.639  13.447  10.521
68543SOL    HW1 7468  11.622  13.440  10.615
68543SOL    HW2 7469  11.627  13.358  10.487
68544SOL     OW 7470   9.965   1.324   0.638
68544SOL    HW1 7471   9.984   1.412   0.608
68544SOL    HW2 7472   9.869   1.322   0.647
68545SOL     OW 7473   4.265   2.482  12.339
68545SOL    HW1 7474   4.355   2.515  12.333
68545SOL    HW2 7475   4.225   2.507  12.256
68546SOL     OW 7476   7.970   9.295   9.005
68546SOL    HW1 7477   7.968   9.199   9.000
68546SOL    HW2 7478   7.880   9.319   9.028
68547SOL     OW 7479   9.981   0.805  10.277
68547SOL    HW1 7480   9.980   0.816  10.372
68547SOL    HW2 7481   9.908   0.858  10.245
68548SOL     OW 7482   1.202   3.491   2.444
68548SOL    HW1 7483   1.287   3.456   2.418
68548SOL    HW2 7484   1.147   3.414   2.456
68549SOL     OW 7485  10.209   1.270   7.755
68549SOL    HW1 7486  10.177   1.221   7.831
68549SOL    HW2 7487  10.132   1.280   7.699
68550SOL     OW 7488   0.437   2.552  12.509
68550SOL    HW1 7489   0.473   2.596  12.432
68550SOL    HW2 7490   0.501   2.483  12.529
68551SOL     OW 7491  13.855   7.993   2.862
68551SOL    HW1 7492  13.935   7.971   2.813
68551SOL    HW2 7493  13.824   8.075   2.823
68552SOL     OW 7494   0.204   2.053   6.034
68552SOL    HW1 7495   0.191   2.042   5.940
68552SOL    HW2 7496   0.282   2.002   6.054
68553SOL     OW 7497  14.249   9.045   9.963
68553SOL    HW1 7498  14.175   9.036   9.902
68553SOL    HW2 7499  14.214   9.096  10.036
68554SOL     OW 7500  14.682   2.968   7.463
68554SOL    HW1 7501  14.649   2.961   7.553
68554SOL    HW2 7502  14.688   3.062   7.446
68555SOL     OW 7503   2.301   0.607   7.397
68555SOL    HW1 7504   2.364   0.538   7.377
68555SOL    HW2 7505   2.330   0.681   7.344
68556SOL     OW 7506  13.092  11.210   0.095
68556SOL    HW1 7507  13.009  11.162   0.098
68556SOL    HW2 7508  13.133  11.193   0.180
68557SOL     OW 7509   3.431   7.849   9.752
68557SOL    HW1 7510   3.475   7.910   9.693
68557SOL    HW2 7511   3.341   7.846   9.721
68558SOL     OW 7512   8.622  14.583   2.208
68558SOL    HW1 7513   8.593  14.630   2.287
68558SOL    HW2 7514   8.541  14.567   2.159
68559SOL     OW 7515   7.336  12.239  12.856
68559SOL    HW1 7516   7.291  12.167  12.811
68559SOL    HW2 7517   7.301  12.318  12.814
68560SOL     OW 7518   6.120   6.975   1.845
68560SOL    HW1 7519   6.070   6.976   1.926
68560SOL    HW2 7520   6.107   6.887   1.809
68561SOL     OW 7521  11.897  10.855   6.909
68561SOL    HW1 7522  11.821  10.827   6.959
68561SOL    HW2 7523  11.970  10.848   6.969
68562SOL     OW 7524  13.687   8.597   0.165
68562SOL    HW1 7525  13.679   8.673   0.108
68562SOL    HW2 7526  13.736   8.628   0.240
68563SOL     OW 7527   6.690  11.334   7.669
68563SOL    HW1 7528   6.781  11.307   7.677
68563SOL    HW2 7529   6.650  11.309   7.753
68564SOL     OW 7530   5.588  12.889   2.436
68564SOL    HW1 7531   5.678  12.870   2.408
68564SOL    HW2 7532   5.533  12.839   2.377
68565SOL     OW 7533   0.276  14.415   1.262
68565SOL    HW1 7534   0.217  14.455   1.326
68565SOL    HW2 7535   0.360  14.410   1.308
68566SOL     OW 7536  12.715   0.626   9.046
68566SOL    HW1 7537  12.735   0.589   9.132
68566SOL    HW2 7538  12.746   0.560   8.984
68567SOL     OW 7539   2.028   3.053   5.934
68567SOL    HW1 7540   2.083   2.987   5.976
68567SOL    HW2 7541   1.938   3.026   5.956
68568SOL     OW 7542  10.142   9.721  12.806
68568SOL    HW1 7543  10.216   9.756  12.756
68568SOL    HW2 7544  10.115   9.793  12.863
68569SOL     OW 7545   6.269  14.097   7.580
68569SOL    HW1 7546   6.278  14.021   7.637
68569SOL    HW2 7547   6.359  14.123   7.559
68570SOL     OW 7548  13.527  12.975  13.428
68570SOL    HW1 7549  13.509  12.893  13.474
68570SOL    HW2 7550  13.442  13.000  13.390
68571SOL     OW 7551  13.435   1.907  11.455
68571SOL    HW1 7552  13.523   1.872  11.445
68571SOL    HW2 7553  13.398   1.906  11.367
68572SOL     OW 7554   0.286   9.205   2.862
68572SOL    HW1 7555   0.279   9.164   2.776
68572SOL    HW2 7556   0.260   9.135   2.923
68573SOL     OW 7557   7.275  10.710   2.836
68573SOL    HW1 7558   7.341  10.661   2.787
68573SOL    HW2 7559   7.211  10.644   2.863
68574SOL     OW 7560  12.910   9.875   7.999
68574SOL    HW1 7561  12.883   9.853   8.088
68574SOL    HW2 7562  12.885   9.800   7.946
68575SOL     OW 7563  11.551   2.231   1.361
68575SOL    HW1 7564  11.578   2.323   1.363
68575SOL    HW2 7565  11.457   2.234   1.342
68576SOL     OW 7566  11.142   5.368   3.546
68576SOL    HW1 7567  11.116   5.286   3.503
68576SOL    HW2 7568  11.067   5.426   3.534
68577SOL     OW 7569   5.163  10.289   0.982
68577SOL    HW1 7570   5.176  10.369   0.931
68577SOL    HW2 7571   5.168  10.219   0.917
68578SOL     OW 7572   7.241   4.976   6.115
68578SOL    HW1 7573   7.203   4.901   6.162
68578SOL    HW2 7574   7.330   4.983   6.149
68579SOL     OW 7575   4.974  12.594  13.445
68579SOL    HW1 7576   4.953  12.675  13.491
68579SOL    HW2 7577   5.061  12.608  13.410
68580SOL     OW 7578  10.915  13.897  10.848
68580SOL    HW1 7579  10.835  13.885  10.899
68580SOL    HW2 7580  10.915  13.826  10.785
68581SOL     OW 7581   5.366   9.002   1.397
68581SOL    HW1 7582   5.415   9.033   1.321
68581SOL    HW2 7583   5.385   8.909   1.402
68582SOL     OW 7584  14.277   9.327   7.432
68582SOL    HW1 7585  14.282   9.291   7.344
68582SOL    HW2 7586  14.230   9.410   7.422
68583SOL     OW 7587   6.701   1.370  13.544
68583SOL    HW1 7588   6.644   1.353  13.470
68583SOL    HW2 7589   6.790   1.369  13.507
68584SOL     OW 7590   2.317  10.742  10.943
68584SOL    HW1 7591   2.379  10.706  11.007
68584SOL    HW2 7592   2.326  10.837  10.954
68585SOL     OW 7593  10.469   2.004  12.929
68585SOL    HW1 7594  10.491   1.960  12.847
68585SOL    HW2 7595  10.385   2.047  12.910
68586SOL     OW 7596  13.841   5.590   7.657
68586SOL    HW1 7597  13.894   5.530   7.605
68586SOL    HW2 7598  13.897   5.615   7.730
68587SOL     OW 7599   1.957  14.640   4.809
68587SOL    HW1 7600   2.003  14.594   4.879
68587SOL    HW2 7601   1.911  14.570   4.762
68588SOL     OW 7602   2.462   2.649   6.594
68588SOL    HW1 7603   2.367   2.662   6.603
68588SOL    HW2 7604   2.492   2.631   6.683
68589SOL     OW 7605  14.104   5.648   6.729
68589SOL    HW1 7606  14.179   5.674   6.676
68589SOL    HW2 7607  14.036   5.713   6.708
68590SOL     OW 7608  11.971  11.372   5.326
68590SOL    HW1 7609  12.005  11.419   5.402
68590SOL    HW2 7610  12.045  11.319   5.295
68591SOL     OW 7611  10.357  13.075   3.481
68591SOL    HW1 7612  10.407  13.010   3.431
68591SOL    HW2 7613  10.423  13.126   3.527
68592SOL     OW 7614   5.724   9.584   7.086
68592SOL    HW1 7615   5.811   9.545   7.085
68592SOL    HW2 7616   5.688   9.563   7.000
68593SOL     OW 7617   8.011  14.667   7.149
68593SOL    HW1 7618   7.931  14.634   7.109
68593SOL    HW2 7619   8.074  14.670   7.077
68594SOL     OW 7620   5.569   2.015  14.210
68594SOL    HW1 7621   5.538   2.103  14.189
68594SOL    HW2 7622   5.490   1.961  14.212
68595SOL     OW 7623   8.912   8.925  14.139
68595SOL    HW1 7624   8.892   8.908  14.231
68595SOL    HW2 7625   8.952   8.843  14.108
68596SOL     OW 7626  12.115   2.111   8.795
68596SOL    HW1 7627  12.168   2.062   8.858
68596SOL    HW2 7628  12.081   2.044   8.735
68597SOL     OW 7629   0.119  13.432  10.034
68597SOL    HW1 7630   0.085  13.520  10.013
68597SOL    HW2 7631   0.204  13.429   9.991
68598SOL     OW 7632  11.608   7.034   7.496
68598SOL    HW1 7633  11.665   6.996   7.563
68598SOL    HW2 7634  11.667   7.071   7.431
68599SOL     OW 7635   7.646  13.012   5.267
68599SOL    HW1 7636   7.618  13.059   5.345
68599SOL    HW2 7637   7.566  13.001   5.215
68600SOL     OW 7638   5.581   5.013  10.437
68600SOL    HW1 7639   5.667   4.998  10.397
68600SOL    HW2 7640   5.594   4.992  10.529
68601SOL     OW 7641   4.341  11.168  13.375
68601SOL    HW1 7642   4.248  11.146  13.383
68601SOL    HW2 7643   4.348  11.255  13.413
68602SOL     OW 7644  11.058  12.745   4.392
68602SOL    HW1 7645  11.108  12.664   4.383
68602SOL    HW2 7646  10.972  12.725   4.355
68603SOL     OW 7647   4.280   9.522   7.385
68603SOL    HW1 7648   4.247   9.472   7.310
68603SOL    HW2 7649   4.249   9.473   7.461
68604SOL     OW 7650   2.010  11.193  11.318
68604SOL    HW1 7651   1.921  11.211  11.350
68604SOL    HW2 7652   2.045  11.279  11.296
68605SOL     OW 7653   1.867   3.688   4.771
68605SOL    HW1 7654   1.807   3.755   4.736
68605SOL    HW2 7655   1.905   3.729   4.849
68606SOL     OW 7656   6.662   5.082   5.115
68606SOL    HW1 7657   6.662   5.096   5.020
68606SOL    HW2 7658   6.721   5.150   5.149
68607SOL     OW 7659   8.710  11.957   9.914
68607SOL    HW1 7660   8.656  12.033   9.937
68607SOL    HW2 7661   8.728  11.914   9.998
68608SOL     OW 7662   6.975   3.802   5.776
68608SOL    HW1 7663   6.917   3.727   5.789
68608SOL    HW2 7664   7.056   3.778   5.819
68609SOL     OW 7665   2.958   2.479   0.856
68609SOL    HW1 7666   2.993   2.438   0.935
68609SOL    HW2 7667   2.864   2.485   0.871
68610SOL     OW 7668  14.173  11.662   8.153
68610SOL    HW1 7669  14.211  11.668   8.241
68610SOL    HW2 7670  14.119  11.741   8.145
68611SOL     OW 7671  14.233   4.865   9.311
68611SOL    HW1 7672  14.282   4.881   9.230
68611SOL    HW2 7673  14.268   4.930   9.373
68612SOL     OW 7674   8.536   0.002   8.756
68612SOL    HW1 7675   8.589   0.000   8.836
68612SOL    HW2 7676   8.527  14.789   8.731
68613SOL     OW 7677   0.910   6.862   0.166
68613SOL    HW1 7678   0.892   6.950   0.134
68613SOL    HW2 7679   0.870   6.860   0.253
68614SOL     OW 7680  10.910  13.710   8.362
68614SOL    HW1 7681  10.887  13.617   8.360
68614SOL    HW2 7682  10.839  13.753   8.315
68615SOL     OW 7683  11.471   0.545   3.819
68615SOL    HW1 7684  11.534   0.524   3.750
68615SOL    HW2 7685  11.471   0.640   3.824
68616SOL     OW 7686   5.406   6.098   6.469
68616SOL    HW1 7687   5.425   6.186   6.440
68616SOL    HW2 7688   5.485   6.048   6.451
68617SOL     OW 7689  11.238  12.285  11.149
68617SOL    HW1 7690  11.154  12.278  11.194
68617SOL    HW2 7691  11.303  12.268  11.216
68618SOL     OW 7692   5.549   1.948   7.788
68618SOL    HW1 7693   5.471   1.967   7.839
68618SOL    HW2 7694   5.594   2.032   7.780
68619SOL     OW 7695   1.585   9.934   1.962
68619SOL    HW1 7696   1.529   9.878   2.016
68619SOL    HW2 7697   1.665   9.945   2.013
68620SOL     OW 7698   1.729   8.124   4.049
68620SOL    HW1 7699   1.810   8.109   4.098
68620SOL    HW2 7700   1.756   8.177   3.974
68621SOL     OW 7701  14.774   0.698  11.154
68621SOL    HW1 7702  14.821   0.637  11.210
68621SOL    HW2 7703  14.832   0.775  11.149
68622SOL     OW 7704   4.089   2.187   0.515
68622SOL    HW1 7705   4.071   2.246   0.588
68622SOL    HW2 7706   4.035   2.221   0.443
68623SOL     OW 7707  11.169   3.858   9.512
68623SOL    HW1 7708  11.180   3.788   9.576
68623SOL    HW2 7709  11.241   3.845   9.451
68624SOL     OW 7710  12.723   7.477   2.347
68624SOL    HW1 7711  12.741   7.385   2.327
68624SOL    HW2 7712  12.758   7.525   2.271
68625SOL     OW 7713   6.939   9.723   5.417
68625SOL    HW1 7714   6.860   9.694   5.462
68625SOL    HW2 7715   6.943   9.670   5.338
68626SOL     OW 7716  14.457   0.736   5.958
68626SOL    HW1 7717  14.521   0.758   6.026
68626SOL    HW2 7718  14.507   0.688   5.892
68627SOL     OW 7719   7.787  11.558   3.669
68627SOL    HW1 7720   7.788  11.578   3.575
68627SOL    HW2 7721   7.701  11.586   3.698
68628SOL     OW 7722  14.294  10.205  13.182
68628SOL    HW1 7723  14.219  10.150  13.158
68628SOL    HW2 7724  14.292  10.277  13.119
68629SOL     OW 7725  10.509  10.556  11.620
68629SOL    HW1 7726  10.572  10.623  11.594
68629SOL    HW2 7727  10.464  10.532  11.539
68630SOL     OW 7728   8.589   4.017   9.527
68630SOL    HW1 7729   8.629   4.004   9.613
68630SOL    HW2 7730   8.623   4.101   9.497
68631SOL     OW 7731  14.206   3.365   6.716
68631SOL    HW1 7732  14.278   3.305   6.736
68631SOL    HW2 7733  14.247   3.437   6.669
68632SOL     OW 7734   3.975  10.536  11.582
68632SOL    HW1 7735   3.906  10.536  11.649
68632SOL    HW2 7736   4.050  10.576  11.626
68633SOL     OW 7737  10.444   0.143   1.364
68633SOL    HW1 7738  10.493   0.171   1.441
68633SOL    HW2 7739  10.372   0.206   1.357
68634SOL     OW 7740   7.569   3.925   8.941
68634SOL    HW1 7741   7.494   3.903   8.887
68634SOL    HW2 7742   7.618   3.843   8.948
68635SOL     OW 7743   9.756   6.336  12.120
68635SOL    HW1 7744   9.793   6.424  12.128
68635SOL    HW2 7745   9.832   6.278  12.114
68636SOL     OW 7746  13.816  11.703  14.771
68636SOL    HW1 7747  13.721  11.692  14.769
68636SOL    HW2 7748  13.836  11.754  14.693
68637SOL     OW 7749  11.632  12.013  14.033
68637SOL    HW1 7750  11.654  11.972  13.950
68637SOL    HW2 7751  11.556  11.964  14.064
68638SOL     OW 7752   9.875  13.200  14.771
68638SOL    HW1 7753   9.913  13.285  14.748
68638SOL    HW2 7754   9.938  13.136  14.738
68639SOL     OW 7755   3.545   7.538  14.310
68639SOL    HW1 7756   3.638   7.547  14.331
68639SOL    HW2 7757   3.543   7.486  14.229
68640SOL     OW 7758  14.479   0.304   4.316
68640SOL    HW1 7759  14.454   0.214   4.296
68640SOL    HW2 7760  14.575   0.304   4.315
68641SOL     OW 7761   1.856   9.677  11.942
68641SOL    HW1 7762   1.789   9.610  11.928
68641SOL    HW2 7763   1.911   9.642  12.012
68642SOL     OW 7764   4.310   9.657   6.417
68642SOL    HW1 7765   4.268   9.705   6.489
68642SOL    HW2 7766   4.259   9.577   6.409
68643SOL     OW 7767  14.136   4.027  10.396
68643SOL    HW1 7768  14.080   4.074  10.333
68643SOL    HW2 7769  14.077   3.964  10.437
68644SOL     OW 7770   2.037   8.732   4.118
68644SOL    HW1 7771   2.129   8.735   4.146
68644SOL    HW2 7772   2.025   8.643   4.084
68645SOL     OW 7773   8.423  12.424   3.631
68645SOL    HW1 7774   8.375  12.384   3.558
68645SOL    HW2 7775   8.443  12.351   3.689
68646SOL     OW 7776  11.008  10.566   5.858
68646SOL    HW1 7777  11.062  10.500   5.814
68646SOL    HW2 7778  10.943  10.515   5.907
68647SOL     OW 7779  12.453  13.776  12.122
68647SOL    HW1 7780  12.486  13.688  12.103
68647SOL    HW2 7781  12.488  13.830  12.051
68648SOL     OW 7782   3.357  10.967   5.220
68648SOL    HW1 7783   3.446  11.001   5.208
68648SOL    HW2 7784   3.302  11.045   5.218
68649SOL     OW 7785  13.194   2.309  10.834
68649SOL    HW1 7786  13.219   2.353  10.915
68649SOL    HW2 7787  13.242   2.356  10.765
68650SOL     OW 7788   8.319   1.988  11.496
68650SOL    HW1 7789   8.242   2.005  11.441
68650SOL    HW2 7790   8.297   2.026  11.581
68651SOL     OW 7791   2.035  14.706  12.070
68651SOL    HW1 7792   2.008  14.614  12.067
68651SOL    HW2 7793   1.954  14.754  12.087
68652SOL     OW 7794   3.772   2.411   4.957
68652SOL    HW1 7795   3.716   2.486   4.977
68652SOL    HW2 7796   3.861   2.445   4.966
68653SOL     OW 7797  13.470   1.380   2.290
68653SOL    HW1 7798  13.436   1.352   2.375
68653SOL    HW2 7799  13.409   1.446   2.260
68654SOL     OW 7800   4.492   5.305  12.420
68654SOL    HW1 7801   4.499   5.234  12.356
68654SOL    HW2 7802   4.457   5.264  12.499
68655SOL     OW 7803   5.833  14.643   9.056
68655SOL    HW1 7804   5.741  14.625   9.040
68655SOL    HW2 7805   5.850  14.609   9.143
68656SOL     OW 7806   8.994   2.443   2.722
68656SOL    HW1 7807   8.901   2.454   2.704
68656SOL    HW2 7808   9.003   2.350   2.743
68657SOL     OW 7809   4.230  12.087  12.556
68657SOL    HW1 7810   4.174  12.128  12.490
68657SOL    HW2 7811   4.296  12.039  12.506
68658SOL     OW 7812   9.632   0.107   5.158
68658SOL    HW1 7813   9.564   0.166   5.124
68658SOL    HW2 7814   9.714   0.146   5.129
68659SOL     OW 7815   4.180  12.759   6.909
68659SOL    HW1 7816   4.275  12.751   6.917
68659SOL    HW2 7817   4.158  12.838   6.958
68660SOL     OW 7818   5.219   0.860   1.999
68660SOL    HW1 7819   5.205   0.787   2.059
68660SOL    HW2 7820   5.203   0.938   2.052
68661SOL     OW 7821   0.457   1.720   1.377
68661SOL    HW1 7822   0.456   1.648   1.441
68661SOL    HW2 7823   0.549   1.746   1.373
68662SOL     OW 7824   7.713   3.531   1.953
68662SOL    HW1 7825   7.641   3.591   1.932
68662SOL    HW2 7826   7.759   3.519   1.870
68663SOL     OW 7827   5.542  11.217  11.824
68663SOL    HW1 7828   5.569  11.288  11.766
68663SOL    HW2 7829   5.462  11.182  11.785
68664SOL     OW 7830  13.095  10.561  12.721
68664SOL    HW1 7831  13.088  10.613  12.640
68664SOL    HW2 7832  13.005  10.532  12.739
68665SOL     OW 7833   5.093   8.352   0.819
68665SOL    HW1 7834   5.179   8.385   0.795
68665SOL    HW2 7835   5.046   8.429   0.851
68666SOL     OW 7836   7.236  10.439   9.310
68666SOL    HW1 7837   7.311  10.419   9.254
68666SOL    HW2 7838   7.176  10.366   9.295
68667SOL     OW 7839  14.349   4.482  11.524
68667SOL    HW1 7840  14.355   4.469  11.619
68667SOL    HW2 7841  14.440   4.493  11.495
68668SOL     OW 7842   7.081   8.119  13.708
68668SOL    HW1 7843   7.001   8.171  13.712
68668SOL    HW2 7844   7.072   8.056  13.779
68669SOL     OW 7845   8.213  14.661   8.562
68669SOL    HW1 7846   8.159  14.719   8.508
68669SOL    HW2 7847   8.153  14.591   8.588
68670SOL     OW 7848   7.810   5.051   4.447
68670SOL    HW1 7849   7.837   5.118   4.383
68670SOL    HW2 7850   7.836   5.087   4.532
68671SOL     OW 7851  11.663   0.983   4.881
68671SOL    HW1 7852  11.667   1.053   4.815
68671SOL    HW2 7853  11.588   0.930   4.855
68672SOL     OW 7854   0.359  12.767   8.488
68672SOL    HW1 7855   0.266  12.756   8.505
68672SOL    HW2 7856   0.372  12.862   8.489
68673SOL     OW 7857  10.712   7.892  10.727
68673SOL    HW1 7858  10.797   7.871  10.689
68673SOL    HW2 7859  10.701   7.828  10.798
68674SOL     OW 7860   7.803   3.700  11.224
68674SOL    HW1 7861   7.870   3.702  11.293
68674SOL    HW2 7862   7.736   3.760  11.254
68675SOL     OW 7863   7.702   1.322   2.916
68675SOL    HW1 7864   7.769   1.361   2.972
68675SOL    HW2 7865   7.707   1.228   2.933
68676SOL     OW 7866   5.520   0.288   0.344
68676SOL    HW1 7867   5.615   0.289   0.331
68676SOL    HW2 7868   5.491   0.209   0.299
68677SOL     OW 7869   8.118   7.849  10.346
68677SOL    HW1 7870   8.043   7.883  10.299
68677SOL    HW2 7871   8.115   7.755  10.332
68678SOL     OW 7872  10.524   0.386   4.624
68678SOL    HW1 7873  10.507   0.480   4.619
68678SOL    HW2 7874  10.486   0.350   4.543
68679SOL     OW 7875   5.333   9.467   9.550
68679SOL    HW1 7876   5.310   9.374   9.542
68679SOL    HW2 7877   5.427   9.470   9.531
68680SOL     OW 7878   0.377   6.450   4.655
68680SOL    HW1 7879   0.346   6.491   4.736
68680SOL    HW2 7880   0.463   6.414   4.678
68681SOL     OW 7881   3.809  11.898  12.893
68681SOL    HW1 7882   3.850  11.864  12.813
68681SOL    HW2 7883   3.715  11.894  12.874
68682SOL     OW 7884  11.267   0.107  12.344
68682SOL    HW1 7885  11.209   0.054  12.289
68682SOL    HW2 7886  11.311   0.044  12.400
68683SOL     OW 7887  10.995  14.555   5.375
68683SOL    HW1 7888  10.932  14.586   5.309
68683SOL    HW2 7889  11.074  14.606   5.359
68684SOL     OW 7890  12.864   7.601  13.385
68684SOL    HW1 7891  12.839   7.646  13.466
68684SOL    HW2 7892  12.906   7.520  13.415
68685SOL     OW 7893  10.586   7.973   1.541
68685SOL    HW1 7894  10.632   7.923   1.474
68685SOL    HW2 7895  10.503   7.998   1.501
68686SOL     OW 7896   3.925   9.826  13.597
68686SOL    HW1 7897   3.910   9.732  13.611
68686SOL    HW2 7898   4.020   9.835  13.601
68687SOL     OW 7899  12.435   7.562   6.521
68687SOL    HW1 7900  12.375   7.551   6.596
68687SOL    HW2 7901  12.385   7.615   6.459
68688SOL     OW 7902   4.247  10.942   6.641
68688SOL    HW1 7903   4.310  11.014   6.638
68688SOL    HW2 7904   4.277  10.886   6.712
68689SOL     OW 7905   3.536   7.309   3.781
68689SOL    HW1 7906   3.604   7.375   3.799
68689SOL    HW2 7907   3.531   7.258   3.862
68690SOL     OW 7908   2.636   7.234  10.193
68690SOL    HW1 7909   2.589   7.197  10.267
68690SOL    HW2 7910   2.596   7.319  10.178
68691SOL     OW 7911  13.585  11.997   2.055
68691SOL    HW1 7912  13.632  11.914   2.044
68691SOL    HW2 7913  13.622  12.055   1.988
68692SOL     OW 7914  12.850  10.566   0.611
68692SOL    HW1 7915  12.852  10.480   0.568
68692SOL    HW2 7916  12.917  10.560   0.679
68693SOL     OW 7917   3.221   7.540   4.884
68693SOL    HW1 7918   3.186   7.482   4.952
68693SOL    HW2 7919   3.211   7.490   4.802
68694SOL     OW 7920   6.076   2.058  12.484
68694SOL    HW1 7921   6.144   2.017  12.431
68694SOL    HW2 7922   6.082   2.013  12.568
68695SOL     OW 7923  11.161  11.607   3.492
68695SOL    HW1 7924  11.111  11.560   3.558
68695SOL    HW2 7925  11.246  11.624   3.532
68696SOL     OW 7926   1.557   6.722  13.716
68696SOL    HW1 7927   1.593   6.792  13.661
68696SOL    HW2 7928   1.499   6.766  13.778
68697SOL     OW 7929   3.755   0.306   9.711
68697SOL    HW1 7930   3.665   0.280   9.734
68697SOL    HW2 7931   3.803   0.224   9.706
68698SOL     OW 7932   7.947  10.322   3.703
68698SOL    HW1 7933   7.897  10.326   3.785
68698SOL    HW2 7934   8.030  10.282   3.727
68699SOL     OW 7935   9.805   2.688   4.179
68699SOL    HW1 7936   9.817   2.596   4.203
68699SOL    HW2 7937   9.887   2.712   4.136
68700SOL     OW 7938  12.291  13.438  11.344
68700SOL    HW1 7939  12.320  13.514  11.394
68700SOL    HW2 7940  12.223  13.473  11.285
68701SOL     OW 7941   8.873  13.157  10.530
68701SOL    HW1 7942   8.789  13.113  10.517
68701SOL    HW2 7943   8.860  13.246  10.498
68702SOL     OW 7944  11.801   7.585  12.986
68702SOL    HW1 7945  11.791   7.679  13.004
68702SOL    HW2 7946  11.895   7.575  12.968
68703SOL     OW 7947   0.397   5.574   1.790
68703SOL    HW1 7948   0.471   5.578   1.850
68703SOL    HW2 7949   0.435   5.591   1.704
68704SOL     OW 7950   5.576   6.977   9.053
68704SOL    HW1 7951   5.502   6.987   8.994
68704SOL    HW2 7952   5.611   6.890   9.034
68705SOL     OW 7953  10.017   8.189   6.964
68705SOL    HW1 7954  10.063   8.146   6.892
68705SOL    HW2 7955   9.931   8.212   6.927
68706SOL     OW 7956   1.980   5.558  14.787
68706SOL    HW1 7957   1.976   5.504  14.709
68706SOL    HW2 7958   1.905   5.617  14.779
68707SOL     OW 7959  11.375   3.777  13.851
68707SOL    HW1 7960  11.412   3.865  13.849
68707SOL    HW2 7961  11.409   3.735  13.772
68708SOL     OW 7962  11.978   7.457   3.861
68708SOL    HW1 7963  12.042   7.515   3.901
68708SOL    HW2 7964  11.935   7.414   3.935
68709SOL     OW 7965   6.221   7.981  14.088
68709SOL    HW1 7966   6.165   7.919  14.041
68709SOL    HW2 7967   6.162   8.030  14.144
68710SOL     OW 7968  12.756   5.831   3.672
68710SOL    HW1 7969  12.811   5.816   3.596
68710SOL    HW2 7970  12.742   5.744   3.710
68711SOL     OW 7971   5.722   9.029   4.188
68711SOL    HW1 7972   5.734   8.934   4.192
68711SOL    HW2 7973   5.784   9.058   4.121
68712SOL     OW 7974   7.992   3.709  10.309
68712SOL    HW1 7975   8.001   3.615  10.295
68712SOL    HW2 7976   7.926   3.717  10.378
68713SOL     OW 7977  11.726   0.478   9.898
68713SOL    HW1 7978  11.744   0.429   9.817
68713SOL    HW2 7979  11.728   0.570   9.871
68714SOL     OW 7980  12.217   8.242   6.143
68714SOL    HW1 7981  12.233   8.196   6.061
68714SOL    HW2 7982  12.189   8.329   6.117
68715SOL     OW 7983  10.727   1.401   0.855
68715SOL    HW1 7984  10.635   1.389   0.833
68715SOL    HW2 7985  10.752   1.319   0.898
68716SOL     OW 7986   2.808   7.405   1.392
68716SOL    HW1 7987   2.766   7.486   1.364
68716SOL    HW2 7988   2.883   7.396   1.333
68717SOL     OW 7989   2.156   7.621   6.032
68717SOL    HW1 7990   2.236   7.625   6.084
68717SOL    HW2 7991   2.177   7.670   5.952
68718SOL     OW 7992   4.468  10.721   0.127
68718SOL    HW1 7993   4.535  10.755   0.186
68718SOL    HW2 7994   4.416  10.798   0.104
68719SOL     OW 7995   1.430   5.315  14.450
68719SOL    HW1 7996   1.410   5.393  14.502
68719SOL    HW2 7997   1.465   5.349  14.368
68720SOL     OW 7998  12.055   0.438   0.712
68720SOL    HW1 7999  12.054   0.487   0.794
68720SOL    HW2 8000  11.973   0.463   0.668
68721SOL     OW 8001   5.615   4.241  10.740
68721SOL    HW1 8002   5.582   4.194  10.664
68721SOL    HW2 8003   5.536   4.271  10.786
68722SOL     OW 8004   0.509  13.701  14.473
68722SOL    HW1 8005   0.588  13.691  14.419
68722SOL    HW2 8006   0.481  13.611  14.490
68723SOL     OW 8007   4.257   4.407   0.487
68723SOL    HW1 8008   4.195   4.343   0.451
68723SOL    HW2 8009   4.322   4.419   0.418
68724SOL     OW 8010   5.008   3.103   7.035
68724SOL    HW1 8011   5.023   3.157   7.112
68724SOL    HW2 8012   5.087   3.116   6.982
68725SOL     OW 8013   0.852   5.393   7.914
68725SOL    HW1 8014   0.822   5.393   8.005
68725SOL    HW2 8015   0.864   5.301   7.892
68726SOL     OW 8016   6.137  12.763   3.154
68726SOL    HW1 8017   6.096  12.826   3.214
68726SOL    HW2 8018   6.149  12.684   3.207
68727SOL     OW 8019   0.156   9.657   9.357
68727SOL    HW1 8020   0.184   9.567   9.341
68727SOL    HW2 8021   0.099   9.677   9.282
68728SOL     OW 8022   3.960   9.079   7.832
68728SOL    HW1 8023   4.043   9.126   7.840
68728SOL    HW2 8024   3.964   9.038   7.746
68729SOL     OW 8025  13.190  12.011  10.138
68729SOL    HW1 8026  13.218  11.941  10.197
68729SOL    HW2 8027  13.122  11.971  10.084
68730SOL     OW 8028  14.802   0.438   6.841
68730SOL    HW1 8029  14.860   0.384   6.787
68730SOL    HW2 8030  14.794   0.520   6.793
68731SOL     OW 8031   5.272   1.242   2.612
68731SOL    HW1 8032   5.275   1.151   2.641
68731SOL    HW2 8033   5.323   1.290   2.678
68732SOL     OW 8034   1.127   0.286  14.827
68732SOL    HW1 8035   1.199   0.235  14.862
68732SOL    HW2 8036   1.060   0.283   0.016
68733SOL     OW 8037   8.419   5.166   2.894
68733SOL    HW1 8038   8.468   5.098   2.848
68733SOL    HW2 8039   8.390   5.124   2.975
68734SOL     OW 8040  12.594   6.889   6.909
68734SOL    HW1 8041  12.668   6.931   6.866
68734SOL    HW2 8042  12.605   6.909   7.002
68735SOL     OW 8043   9.836   2.631   7.279
68735SOL    HW1 8044   9.890   2.566   7.232
68735SOL    HW2 8045   9.894   2.666   7.346
68736SOL     OW 8046   0.366   0.955   1.170
68736SOL    HW1 8047   0.274   0.977   1.155
68736SOL    HW2 8048   0.383   0.983   1.260
68737SOL     OW 8049  10.764  11.658   4.216
68737SOL    HW1 8050  10.690  11.667   4.156
68737SOL    HW2 8051  10.730  11.606   4.289
68738SOL     OW 8052   2.795  13.251  12.060
68738SOL    HW1 8053   2.714  13.262  12.009
68738SOL    HW2 8054   2.859  13.306  12.014
68739SOL     OW 8055   6.098  14.840   2.418
68739SOL    HW1 8056   6.142  14.763   2.454
68739SOL    HW2 8057   6.079  14.817   2.327
68740SOL     OW 8058   6.693   8.303  11.347
68740SOL    HW1 8059   6.695   8.211  11.372
68740SOL    HW2 8060   6.782   8.335  11.365
68741SOL     OW 8061  11.063   4.512   7.044
68741SOL    HW1 8062  10.996   4.572   7.077
68741SOL    HW2 8063  11.112   4.563   6.980
68742SOL     OW 8064   3.341  13.405   4.903
68742SOL    HW1 8065   3.283  13.455   4.847
68742SOL    HW2 8066   3.282  13.352   4.958
68743SOL     OW 8067   9.795   2.539  10.808
68743SOL    HW1 8068   9.774   2.448  10.784
68743SOL    HW2 8069   9.889   2.547  10.792
68744SOL     OW 8070   5.457  11.903   0.119
68744SOL    HW1 8071   5.383  11.904   0.058
68744SOL    HW2 8072   5.514  11.973   0.086
68745SOL     OW 8073  13.131   3.715  12.932
68745SOL    HW1 8074  13.075   3.638  12.933
68745SOL    HW2 8075  13.072   3.788  12.912
68746SOL     OW 8076  10.040  11.314   2.058
68746SOL    HW1 8077   9.963  11.352   2.017
68746SOL    HW2 8078  10.066  11.244   1.998
68747SOL     OW 8079   9.611   1.820  13.307
68747SOL    HW1 8080   9.584   1.767  13.232
68747SOL    HW2 8081   9.676   1.881  13.271
68748SOL     OW 8082   6.289  12.731   1.783
68748SOL    HW1 8083   6.224  12.683   1.733
68748SOL    HW2 8084   6.260  12.822   1.779
68749SOL     OW 8085  13.928  10.443   8.240
68749SOL    HW1 8086  13.994  10.381   8.210
68749SOL    HW2 8087  13.917  10.422   8.333
68750SOL     OW 8088   1.459  14.074  12.860
68750SOL    HW1 8089   1.452  14.135  12.787
68750SOL    HW2 8090   1.378  14.087  12.910
68751SOL     OW 8091   0.145   0.904  13.368
68751SOL    HW1 8092   0.189   0.951  13.296
68751SOL    HW2 8093   0.077   0.853  13.325
68752SOL     OW 8094   6.768  12.862   2.376
68752SOL    HW1 8095   6.701  12.899   2.318
68752SOL    HW2 8096   6.719  12.811   2.440
68753SOL     OW 8097   1.335  11.141   8.591
68753SOL    HW1 8098   1.351  11.051   8.619
68753SOL    HW2 8099   1.246  11.141   8.557
68754SOL     OW 8100  14.805   3.767   0.736
68754SOL    HW1 8101  14.857   3.690   0.714
68754SOL    HW2 8102  14.823   3.782   0.829
68755SOL     OW 8103   5.686   3.680  10.320
68755SOL    HW1 8104   5.772   3.707  10.287
68755SOL    HW2 8105   5.651   3.623  10.251
68756SOL     OW 8106  10.008  13.625   2.757
68756SOL    HW1 8107  10.026  13.664   2.671
68756SOL    HW2 8108  10.086  13.642   2.809
68757SOL     OW 8109   0.442   5.651   8.202
68757SOL    HW1 8110   0.518   5.596   8.181
68757SOL    HW2 8111   0.425   5.633   8.295
68758SOL     OW 8112  14.317   9.533  14.505
68758SOL    HW1 8113  14.233   9.506  14.540
68758SOL    HW2 8114  14.309   9.628  14.494
68759SOL     OW 8115   8.969   3.993   3.290
68759SOL    HW1 8116   8.989   4.086   3.277
68759SOL    HW2 8117   8.947   3.986   3.383
68760SOL     OW 8118   3.018   8.153   8.089
68760SOL    HW1 8119   2.955   8.209   8.134
68760SOL    HW2 8120   2.972   8.069   8.080
68761SOL     OW 8121  11.459   0.682   3.249
68761SOL    HW1 8122  11.372   0.696   3.212
68761SOL    HW2 8123  11.446   0.615   3.315
68762SOL     OW 8124   1.952   8.224   5.655
68762SOL    HW1 8125   1.915   8.216   5.568
68762SOL    HW2 8126   1.938   8.138   5.695
68763SOL     OW 8127   7.398  12.495   5.892
68763SOL    HW1 8128   7.350  12.441   5.830
68763SOL    HW2 8129   7.456  12.550   5.839
68764SOL     OW 8130   8.342   6.419   5.875
68764SOL    HW1 8131   8.315   6.483   5.809
68764SOL    HW2 8132   8.438   6.425   5.876
68765SOL     OW 8133   6.361   3.609   0.916
68765SOL    HW1 8134   6.415   3.669   0.865
68765SOL    HW2 8135   6.350   3.532   0.859
68766SOL     OW 8136   6.908  12.849  11.706
68766SOL    HW1 8137   6.864  12.919  11.659
68766SOL    HW2 8138   6.922  12.781  11.640
68767SOL     OW 8139   6.801  12.466  10.564
68767SOL    HW1 8140   6.883  12.498  10.602
68767SOL    HW2 8141   6.828  12.401  10.500
68768SOL     OW 8142   0.248  12.026  14.384
68768SOL    HW1 8143   0.218  12.027  14.476
68768SOL    HW2 8144   0.276  11.936  14.369
68769SOL     OW 8145   6.137  14.579  11.528
68769SOL    HW1 8146   6.042  14.569  11.521
68769SOL    HW2 8147   6.169  14.561  11.440
68770SOL     OW 8148  11.117   7.274  12.705
68770SOL    HW1 8149  11.054   7.257  12.776
68770SOL    HW2 8150  11.199   7.295  12.751
68771SOL     OW 8151   1.487   7.011   8.854
68771SOL    HW1 8152   1.564   6.977   8.808
68771SOL    HW2 8153   1.421   7.022   8.785
68772SOL     OW 8154   7.804  12.614   1.118
68772SOL    HW1 8155   7.811  12.519   1.120
68772SOL    HW2 8156   7.710  12.631   1.117
68773SOL     OW 8157  13.226   5.787   9.089
68773SOL    HW1 8158  13.291   5.854   9.066
68773SOL    HW2 8159  13.278   5.709   9.109
68774SOL     OW 8160  11.859  11.297  12.013
68774SOL    HW1 8161  11.879  11.313  11.920
68774SOL    HW2 8162  11.942  11.316  12.058
68775SOL     OW 8163   6.870  14.223  10.090
68775SOL    HW1 8164   6.935  14.170  10.043
68775SOL    HW2 8165   6.789  14.171  10.086
68776SOL     OW 8166   2.306   9.208   5.330
68776SOL    HW1 8167   2.399   9.211   5.306
68776SOL    HW2 8168   2.289   9.293   5.370
68777SOL     OW 8169  11.341  10.864   2.161
68777SOL    HW1 8170  11.345  10.791   2.099
68777SOL    HW2 8171  11.247  10.876   2.178
68778SOL     OW 8172   8.420  10.319  10.878
68778SOL    HW1 8173   8.404  10.288  10.967
68778SOL    HW2 8174   8.515  10.323  10.870
68779SOL     OW 8175   6.634   2.480   6.753
68779SOL    HW1 8176   6.553   2.433   6.772
68779SOL    HW2 8177   6.618   2.569   6.782
68780SOL     OW 8178  13.924   2.396   4.859
68780SOL    HW1 8179  13.837   2.381   4.897
68780SOL    HW2 8180  13.935   2.325   4.795
68781SOL     OW 8181   5.865   4.740   3.512
68781SOL    HW1 8182   5.904   4.712   3.595
68781SOL    HW2 8183   5.807   4.812   3.536
68782SOL     OW 8184   3.956   6.726   5.703
68782SOL    HW1 8185   3.999   6.690   5.625
68782SOL    HW2 8186   3.928   6.813   5.677
68783SOL     OW 8187  14.489  12.152   5.093
68783SOL    HW1 8188  14.573  12.193   5.073
68783SOL    HW2 8189  14.444  12.147   5.009
68784SOL     OW 8190  14.238   1.603   2.704
68784SOL    HW1 8191  14.310   1.578   2.761
68784SOL    HW2 8192  14.269   1.584   2.615
68785SOL     OW 8193   2.584   1.817   6.704
68785SOL    HW1 8194   2.599   1.887   6.767
68785SOL    HW2 8195   2.583   1.861   6.619
68786SOL     OW 8196   7.931   8.083   0.414
68786SOL    HW1 8197   7.953   8.176   0.418
68786SOL    HW2 8198   7.997   8.046   0.355
68787SOL     OW 8199  14.725   3.627   1.062
68787SOL    HW1 8200  14.694   3.638   1.152
68787SOL    HW2 8201  14.658   3.572   1.020
68788SOL     OW 8202  14.022   1.283   4.244
68788SOL    HW1 8203  14.104   1.332   4.246
68788SOL    HW2 8204  14.023   1.239   4.158
68789SOL     OW 8205   3.018  13.156   6.626
68789SOL    HW1 8206   2.930  13.171   6.591
68789SOL    HW2 8207   3.062  13.241   6.617
68790SOL     OW 8208   7.684   2.105  12.817
68790SOL    HW1 8209   7.684   2.174  12.750
68790SOL    HW2 8210   7.604   2.121  12.868
68791SOL     OW 8211   2.205   3.592  10.277
68791SOL    HW1 8212   2.182   3.541  10.199
68791SOL    HW2 8213   2.301   3.595  10.276
68792SOL     OW 8214   4.705   9.102   3.803
68792SOL    HW1 8215   4.686   9.052   3.724
68792SOL    HW2 8216   4.748   9.040   3.861
68793SOL     OW 8217   9.315   1.953   9.701
68793SOL    HW1 8218   9.384   2.006   9.740
68793SOL    HW2 8219   9.287   2.004   9.625
68794SOL     OW 8220  10.302  10.787  10.173
68794SOL    HW1 8221  10.293  10.856  10.107
68794SOL    HW2 8222  10.295  10.833  10.256
68795SOL     OW 8223   4.079   0.325   2.922
68795SOL    HW1 8224   4.055   0.292   3.009
68795SOL    HW2 8225   4.174   0.328   2.923
68796SOL     OW 8226   2.936   8.357  10.702
68796SOL    HW1 8227   2.906   8.267  10.712
68796SOL    HW2 8228   3.029   8.349  10.682
68797SOL     OW 8229   8.674  11.384   1.219
68797SOL    HW1 8230   8.713  11.389   1.306
68797SOL    HW2 8231   8.591  11.432   1.226
68798SOL     OW 8232   9.302   3.570   8.398
68798SOL    HW1 8233   9.314   3.597   8.307
68798SOL    HW2 8234   9.305   3.652   8.448
68799SOL     OW 8235   4.962  13.145  13.793
68799SOL    HW1 8236   4.940  13.059  13.826
68799SOL    HW2 8237   4.878  13.192  13.790
68800SOL     OW 8238   6.670   4.644   2.042
68800SOL    HW1 8239   6.623   4.566   2.011
68800SOL    HW2 8240   6.761   4.616   2.047
68801SOL     OW 8241   3.109   7.972  14.650
68801SOL    HW1 8242   3.070   7.944  14.567
68801SOL    HW2 8243   3.079   7.907  14.714
68802SOL     OW 8244   2.498  14.638   3.281
68802SOL    HW1 8245   2.449  14.679   3.210
68802SOL    HW2 8246   2.486  14.697   3.356
68803SOL     OW 8247   5.469   3.551  12.509
68803SOL    HW1 8248   5.536   3.489  12.536
68803SOL    HW2 8249   5.387   3.502  12.513
68804SOL     OW 8250   6.649   3.298   1.912
68804SOL    HW1 8251   6.710   3.258   1.851
68804SOL    HW2 8252   6.563   3.271   1.881
68805SOL     OW 8253   0.409   5.698  14.715
68805SOL    HW1 8254   0.391   5.749  14.794
68805SOL    HW2 8255   0.326   5.698  14.667
68806SOL     OW 8256   2.765  10.144   1.921
68806SOL    HW1 8257   2.819  10.198   1.979
68806SOL    HW2 8258   2.675  10.166   1.945
68807SOL     OW 8259  12.992   7.055   9.569
68807SOL    HW1 8260  12.945   7.092   9.494
68807SOL    HW2 8261  12.937   6.982   9.598
68808SOL     OW 8262   1.141   6.256   6.493
68808SOL    HW1 8263   1.236   6.256   6.483
68808SOL    HW2 8264   1.107   6.232   6.407
68809SOL     OW 8265   5.426  10.383  14.829
68809SOL    HW1 8266   5.400  10.414  14.742
68809SOL    HW2 8267   5.460  10.461  14.873
68810SOL     OW 8268  11.352   6.370  12.390
68810SOL    HW1 8269  11.277   6.415  12.429
68810SOL    HW2 8270  11.331   6.277  12.396
68811SOL     OW 8271   4.136   7.161   3.416
68811SOL    HW1 8272   4.231   7.160   3.412
68811SOL    HW2 8273   4.108   7.134   3.328
68812SOL     OW 8274  14.139   9.937   9.101
68812SOL    HW1 8275  14.212   9.917   9.042
68812SOL    HW2 8276  14.160  10.023   9.137
68813SOL     OW 8277   6.753   4.067   8.906
68813SOL    HW1 8278   6.749   4.151   8.952
68813SOL    HW2 8279   6.776   4.089   8.816
68814SOL     OW 8280  10.182   8.219  13.368
68814SOL    HW1 8281  10.112   8.157  13.389
68814SOL    HW2 8282  10.238   8.172  13.307
68815SOL     OW 8283   4.557   0.693   8.181
68815SOL    HW1 8284   4.599   0.690   8.267
68815SOL    HW2 8285   4.542   0.787   8.164
68816SOL     OW 8286  11.419  11.200   3.024
68816SOL    HW1 8287  11.343  11.257   3.017
68816SOL    HW2 8288  11.384  11.117   3.056
68817SOL     OW 8289   7.007   6.583   7.815
68817SOL    HW1 8290   7.092   6.608   7.852
68817SOL    HW2 8291   7.007   6.619   7.727
68818SOL     OW 8292  10.893   3.734   2.430
68818SOL    HW1 8293  10.850   3.765   2.351
68818SOL    HW2 8294  10.962   3.676   2.398
68819SOL     OW 8295  14.842   5.774   1.716
68819SOL    HW1 8296  14.799   5.779   1.631
68819SOL    HW2 8297  14.795   5.837   1.771
68820SOL     OW 8298   7.650  13.909  13.228
68820SOL    HW1 8299   7.653  13.814  13.221
68820SOL    HW2 8300   7.572  13.934  13.178
68821SOL     OW 8301  13.983   4.939  14.290
68821SOL    HW1 8302  14.023   4.853  14.283
68821SOL    HW2 8303  14.056   4.998  14.311
68822SOL     OW 8304   9.011   1.578  14.266
68822SOL    HW1 8305   8.924   1.598  14.301
68822SOL    HW2 8306   9.070   1.587  14.341
68823SOL     OW 8307   9.507   3.635   4.663
68823SOL    HW1 8308   9.552   3.718   4.681
68823SOL    HW2 8309   9.440   3.658   4.598
68824SOL     OW 8310   3.430  13.568   2.924
68824SOL    HW1 8311   3.512  13.617   2.920
68824SOL    HW2 8312   3.372  13.613   2.863
68825SOL     OW 8313  14.074  11.892   7.014
68825SOL    HW1 8314  14.133  11.817   7.016
68825SOL    HW2 8315  14.053  11.910   7.106
68826SOL     OW 8316   1.547   2.649   4.555
68826SOL    HW1 8317   1.557   2.696   4.638
68826SOL    HW2 8318   1.493   2.573   4.577
68827SOL     OW 8319   6.691   6.317   3.069
68827SOL    HW1 8320   6.694   6.412   3.059
68827SOL    HW2 8321   6.701   6.303   3.164
68828SOL     OW 8322   8.828   4.644   8.182
68828SOL    HW1 8323   8.770   4.709   8.221
68828SOL    HW2 8324   8.777   4.563   8.182
68829SOL     OW 8325   7.758   2.902   6.238
68829SOL    HW1 8326   7.783   2.950   6.159
68829SOL    HW2 8327   7.755   2.968   6.307
68830SOL     OW 8328  13.201  14.300   9.886
68830SOL    HW1 8329  13.263  14.303   9.959
68830SOL    HW2 8330  13.150  14.221   9.900
68831SOL     OW 8331  11.812   3.050   4.874
68831SOL    HW1 8332  11.870   3.071   4.800
68831SOL    HW2 8333  11.757   3.127   4.883
68832SOL     OW 8334   2.971  11.252   3.926
68832SOL    HW1 8335   2.979  11.343   3.955
68832SOL    HW2 8336   2.902  11.215   3.981
68833SOL     OW 8337   8.955  12.759   2.736
68833SOL    HW1 8338   8.977  12.669   2.714
68833SOL    HW2 8339   8.869  12.772   2.696
68834SOL     OW 8340  11.375  14.346   1.898
68834SOL    HW1 8341  11.388  14.426   1.847
68834SOL    HW2 8342  11.450  14.345   1.959
68835SOL     OW 8343   3.183   5.184   1.180
68835SOL    HW1 8344   3.241   5.159   1.251
68835SOL    HW2 8345   3.107   5.224   1.223
68836SOL     OW 8346  13.731  11.655   6.178
68836SOL    HW1 8347  13.715  11.591   6.247
68836SOL    HW2 8348  13.651  11.653   6.125
68837SOL     OW 8349   1.919   7.214   5.934
68837SOL    HW1 8350   1.893   7.269   6.008
68837SOL    HW2 8351   1.863   7.243   5.862
68838SOL     OW 8352   5.023  12.173   1.350
68838SOL    HW1 8353   4.956  12.241   1.345
68838SOL    HW2 8354   5.037  12.161   1.444
68839SOL     OW 8355   8.487   0.346   7.567
68839SOL    HW1 8356   8.431   0.329   7.644
68839SOL    HW2 8357   8.508   0.259   7.533
68840SOL     OW 8358   6.165   2.102   7.004
68840SOL    HW1 8359   6.105   2.072   6.936
68840SOL    HW2 8360   6.180   2.194   6.984
68841SOL     OW 8361   9.407   4.253   0.231
68841SOL    HW1 8362   9.392   4.284   0.321
68841SOL    HW2 8363   9.333   4.195   0.214
68842SOL     OW 8364   5.848  12.759   1.014
68842SOL    HW1 8365   5.842  12.817   0.938
68842SOL    HW2 8366   5.779  12.694   1.000
68843SOL     OW 8367   4.578   6.214  14.637
68843SOL    HW1 8368   4.550   6.251  14.553
68843SOL    HW2 8369   4.641   6.278  14.671
68844SOL     OW 8370   2.091   6.886   9.656
68844SOL    HW1 8371   2.177   6.906   9.618
68844SOL    HW2 8372   2.029   6.934   9.602
68845SOL     OW 8373  10.094   0.851   7.823
68845SOL    HW1 8374  10.000   0.870   7.830
68845SOL    HW2 8375  10.117   0.873   7.733
68846SOL     OW 8376  12.276   4.232  12.780
68846SOL    HW1 8377  12.222   4.308  12.803
68846SOL    HW2 8378  12.330   4.263  12.707
68847SOL     OW 8379   5.417   4.497   7.367
68847SOL    HW1 8380   5.333   4.537   7.342
68847SOL    HW2 8381   5.410   4.486   7.462
68848SOL     OW 8382  14.552   7.694  13.649
68848SOL    HW1 8383  14.486   7.687  13.580
68848SOL    HW2 8384  14.585   7.783  13.641
68849SOL     OW 8385   2.817   9.713  14.566
68849SOL    HW1 8386   2.865   9.739  14.645
68849SOL    HW2 8387   2.729   9.693  14.597
68850SOL     OW 8388   6.775   1.325   1.466
68850SOL    HW1 8389   6.802   1.298   1.554
68850SOL    HW2 8390   6.843   1.386   1.437
68851SOL     OW 8391  10.895   4.852   3.828
68851SOL    HW1 8392  10.933   4.899   3.902
68851SOL    HW2 8393  10.894   4.916   3.757
68852SOL     OW 8394  11.560   3.345   3.894
68852SOL    HW1 8395  11.625   3.303   3.951
68852SOL    HW2 8396  11.513   3.272   3.854
68853SOL     OW 8397   1.266   8.138   0.182
68853SOL    HW1 8398   1.320   8.179   0.250
68853SOL    HW2 8399   1.328   8.100   0.120
68854SOL     OW 8400   0.054   3.150  14.731
68854SOL    HW1 8401   0.075   3.198  14.811
68854SOL    HW2 8402   0.020   3.217  14.672
68855SOL     OW 8403   1.909   0.059   2.384
68855SOL    HW1 8404   1.951   0.124   2.440
68855SOL    HW2 8405   1.819   0.091   2.375
68856SOL     OW 8406   5.379   1.326  14.728
68856SOL    HW1 8407   5.444   1.284  14.671
68856SOL    HW2 8408   5.387   1.419  14.707
68857SOL     OW 8409   1.802  14.723   9.168
68857SOL    HW1 8410   1.832  14.645   9.123
68857SOL    HW2 8411   1.875  14.749   9.224
68858SOL     OW 8412  14.447  13.265  14.454
68858SOL    HW1 8413  14.515  13.318  14.495
68858SOL    HW2 8414  14.478  13.175  14.463
68859SOL     OW 8415  11.870  11.464   8.761
68859SOL    HW1 8416  11.890  11.504   8.676
68859SOL    HW2 8417  11.846  11.537   8.818
68860SOL     OW 8418  10.510   0.457   3.123
68860SOL    HW1 8419  10.435   0.436   3.179
68860SOL    HW2 8420  10.471   0.492   3.043
68861SOL     OW 8421   1.510   4.468   6.989
68861SOL    HW1 8422   1.535   4.383   7.026
68861SOL    HW2 8423   1.524   4.530   7.060
68862SOL     OW 8424   0.538  11.631  11.043
68862SOL    HW1 8425   0.530  11.548  11.090
68862SOL    HW2 8426   0.473  11.625  10.973
68863SOL     OW 8427   5.122   0.140  14.226
68863SOL    HW1 8428   5.178   0.087  14.282
68863SOL    HW2 8429   5.041   0.090  14.219
68864SOL     OW 8430   7.530  11.722   7.566
68864SOL    HW1 8431   7.488  11.652   7.516
68864SOL    HW2 8432   7.602  11.679   7.612
68865SOL     OW 8433   5.868  10.286   5.620
68865SOL    HW1 8434   5.909  10.293   5.706
68865SOL    HW2 8435   5.777  10.312   5.634
68866SOL     OW 8436  11.596   5.604   0.941
68866SOL    HW1 8437  11.559   5.642   1.021
68866SOL    HW2 8438  11.683   5.574   0.966
68867SOL     OW 8439  10.682   9.710  12.206
68867SOL    HW1 8440  10.636   9.685  12.126
68867SOL    HW2 8441  10.695   9.627  12.253
68868SOL     OW 8442   3.071   0.567   8.289
68868SOL    HW1 8443   3.008   0.498   8.268
68868SOL    HW2 8444   3.021   0.648   8.281
68869SOL     OW 8445   0.571  10.424   0.248
68869SOL    HW1 8446   0.650  10.373   0.234
68869SOL    HW2 8447   0.598  10.515   0.232
68870SOL     OW 8448   0.303   7.380   0.310
68870SOL    HW1 8449   0.302   7.422   0.396
68870SOL    HW2 8450   0.375   7.317   0.315
68871SOL     OW 8451  11.283   8.200  13.504
68871SOL    HW1 8452  11.218   8.177  13.437
68871SOL    HW2 8453  11.359   8.145  13.485
68872SOL     OW 8454  10.373   2.250   4.753
68872SOL    HW1 8455  10.449   2.193   4.766
68872SOL    HW2 8456  10.368   2.262   4.658
68873SOL     OW 8457   5.152   7.570  13.912
68873SOL    HW1 8458   5.077   7.514  13.892
68873SOL    HW2 8459   5.145   7.586  14.006
68874SOL     OW 8460   1.945   6.879  14.410
68874SOL    HW1 8461   2.000   6.802  14.417
68874SOL    HW2 8462   1.970   6.933  14.485
68875SOL     OW 8463   3.869   0.478   5.396
68875SOL    HW1 8464   3.848   0.539   5.326
68875SOL    HW2 8465   3.951   0.512   5.433
68876SOL     OW 8466   1.828   2.597   7.535
68876SOL    HW1 8467   1.816   2.505   7.511
68876SOL    HW2 8468   1.743   2.624   7.569
68877SOL     OW 8469   0.061  12.620  12.583
68877SOL    HW1 8470  14.871  12.566  12.545
68877SOL    HW2 8471   0.064  12.595  12.675
68878SOL     OW 8472   5.981   4.834   2.243
68878SOL    HW1 8473   5.944   4.908   2.291
68878SOL    HW2 8474   6.046   4.873   2.184
68879SOL     OW 8475   0.492   9.952   8.388
68879SOL    HW1 8476   0.501   9.947   8.483
68879SOL    HW2 8477   0.437   9.876   8.366
68880SOL     OW 8478   7.446  10.936   5.467
68880SOL    HW1 8479   7.378  10.922   5.533
68880SOL    HW2 8480   7.528  10.936   5.517
68881SOL     OW 8481   1.108  13.553   7.802
68881SOL    HW1 8482   1.175  13.517   7.860
68881SOL    HW2 8483   1.144  13.636   7.772
68882SOL     OW 8484   2.260  11.760   2.946
68882SOL    HW1 8485   2.334  11.764   3.007
68882SOL    HW2 8486   2.189  11.804   2.992
68883SOL     OW 8487  10.064  12.708   3.715
68883SOL    HW1 8488  10.130  12.673   3.775
68883SOL    HW2 8489  10.052  12.798   3.743
68884SOL     OW 8490   3.693   7.136   3.497
68884SOL    HW1 8491   3.619   7.191   3.472
68884SOL    HW2 8492   3.757   7.197   3.533
68885SOL     OW 8493   0.140   3.604  12.880
68885SOL    HW1 8494   0.161   3.530  12.936
68885SOL    HW2 8495   0.131   3.567  12.793
68886SOL     OW 8496  11.911   8.520  13.938
68886SOL    HW1 8497  11.828   8.568  13.931
68886SOL    HW2 8498  11.974   8.576  13.892
68887SOL     OW 8499   3.525   2.433  10.231
68887SOL    HW1 8500   3.552   2.344  10.209
68887SOL    HW2 8501   3.507   2.430  10.325
68888SOL     OW 8502   0.286  12.667   1.599
68888SOL    HW1 8503   0.353  12.644   1.533
68888SOL    HW2 8504   0.204  12.636   1.561
68889SOL     OW 8505   7.000  10.661  12.964
68889SOL    HW1 8506   7.032  10.615  12.886
68889SOL    HW2 8507   7.061  10.637  13.033
68890SOL     OW 8508   0.043  11.692   0.859
68890SOL    HW1 8509   0.024  11.764   0.799
68890SOL    HW2 8510   0.057  11.616   0.803
68891SOL     OW 8511   3.083   9.062   0.646
68891SOL    HW1 8512   3.138   9.119   0.700
68891SOL    HW2 8513   3.085   9.102   0.559
68892SOL     OW 8514  12.579   7.540   7.369
68892SOL    HW1 8515  12.566   7.473   7.436
68892SOL    HW2 8516  12.494   7.547   7.326
68893SOL     OW 8517   0.038   2.420   0.854
68893SOL    HW1 8518   0.009   2.338   0.814
68893SOL    HW2 8519   0.133   2.411   0.861
68894SOL     OW 8520  11.000  14.062   0.438
68894SOL    HW1 8521  11.065  14.025   0.378
68894SOL    HW2 8522  10.917  14.053   0.392
68895SOL     OW 8523  13.162   1.275  13.764
68895SOL    HW1 8524  13.095   1.317  13.818
68895SOL    HW2 8525  13.145   1.181  13.775
68896SOL     OW 8526   1.875   2.541   2.489
68896SOL    HW1 8527   1.796   2.501   2.452
68896SOL    HW2 8528   1.933   2.554   2.414
68897SOL     OW 8529  10.394  12.813   3.388
68897SOL    HW1 8530  10.332  12.740   3.385
68897SOL    HW2 8531  10.436  12.806   3.474
68898SOL     OW 8532   3.005   0.031   5.998
68898SOL    HW1 8533   3.036  14.831   6.042
68898SOL    HW2 8534   2.996   0.005   5.906
68899SOL     OW 8535   6.642   4.977  10.292
68899SOL    HW1 8536   6.619   5.033  10.366
68899SOL    HW2 8537   6.599   4.894  10.311
68900SOL     OW 8538   5.343   2.493  11.369
68900SOL    HW1 8539   5.298   2.409  11.361
68900SOL    HW2 8540   5.434   2.473  11.350
68901SOL     OW 8541  10.213   9.626   7.364
68901SOL    HW1 8542  10.174   9.700   7.317
68901SOL    HW2 8543  10.138   9.581   7.403
68902SOL     OW 8544  14.076   9.389   6.818
68902SOL    HW1 8545  14.083   9.400   6.724
68902SOL    HW2 8546  14.067   9.478   6.852
68903SOL     OW 8547  11.351   6.456  14.221
68903SOL    HW1 8548  11.403   6.533  14.241
68903SOL    HW2 8549  11.299   6.481  14.144
68904SOL     OW 8550  14.364  14.487   6.651
68904SOL    HW1 8551  14.298  14.549   6.683
68904SOL    HW2 8552  14.427  14.541   6.604
68905SOL     OW 8553   4.028   6.127   6.184
68905SOL    HW1 8554   3.989   6.205   6.222
68905SOL    HW2 8555   4.120   6.132   6.208
68906SOL     OW 8556   8.181   0.149   4.929
68906SOL    HW1 8557   8.186   0.220   4.993
68906SOL    HW2 8558   8.272   0.130   4.908
68907SOL     OW 8559   8.757   8.602   1.546
68907SOL    HW1 8560   8.678   8.649   1.571
68907SOL    HW2 8561   8.737   8.567   1.459
68908SOL     OW 8562   0.865   0.103   7.213
68908SOL    HW1 8563   0.910   0.022   7.239
68908SOL    HW2 8564   0.910   0.131   7.133
68909SOL     OW 8565   2.692   8.368  10.804
68909SOL    HW1 8566   2.781   8.392  10.779
68909SOL    HW2 8567   2.702   8.291  10.860
68910SOL     OW 8568   5.661  11.405   2.764
68910SOL    HW1 8569   5.681  11.423   2.856
68910SOL    HW2 8570   5.670  11.310   2.756
68911SOL     OW 8571   0.952  11.180  11.831
68911SOL    HW1 8572   0.911  11.093  11.836
68911SOL    HW2 8573   0.887  11.234  11.786
68912SOL     OW 8574   6.893   6.340   2.434
68912SOL    HW1 8575   6.846   6.423   2.449
68912SOL    HW2 8576   6.913   6.341   2.340
68913SOL     OW 8577   0.355  10.935   3.129
68913SOL    HW1 8578   0.263  10.951   3.110
68913SOL    HW2 8579   0.374  10.987   3.207
68914SOL     OW 8580   9.635   3.976   0.649
68914SOL    HW1 8581   9.649   4.031   0.571
68914SOL    HW2 8582   9.569   4.023   0.700
68915SOL     OW 8583   5.227  11.501   5.088
68915SOL    HW1 8584   5.212  11.414   5.051
68915SOL    HW2 8585   5.147  11.521   5.136
68916SOL     OW 8586  11.731   7.521   1.168
68916SOL    HW1 8587  11.756   7.489   1.255
68916SOL    HW2 8588  11.812   7.518   1.118
68917SOL     OW 8589   5.625  13.256   2.645
68917SOL    HW1 8590   5.631  13.229   2.737
68917SOL    HW2 8591   5.714  13.282   2.622
68918SOL     OW 8592   1.022   3.569   8.580
68918SOL    HW1 8593   0.936   3.603   8.604
68918SOL    HW2 8594   1.052   3.625   8.509
68919SOL     OW 8595   1.540  13.126  11.696
68919SOL    HW1 8596   1.531  13.075  11.776
68919SOL    HW2 8597   1.521  13.064  11.626
68920SOL     OW 8598   6.806  14.177  14.866
68920SOL    HW1 8599   6.765  14.123  14.798
68920SOL    HW2 8600   6.858  14.115   0.039
68921SOL     OW 8601  11.116  14.537  12.491
68921SOL    HW1 8602  11.185  14.538  12.426
68921SOL    HW2 8603  11.036  14.555  12.442
68922SOL     OW 8604   7.615  11.587   8.019
68922SOL    HW1 8605   7.624  11.499   8.057
68922SOL    HW2 8606   7.546  11.578   7.954
68923SOL     OW 8607   0.923   3.273  10.335
68923SOL    HW1 8608   0.857   3.213  10.370
68923SOL    HW2 8609   0.968   3.307  10.412
68924SOL     OW 8610  13.789   5.255   1.135
68924SOL    HW1 8611  13.744   5.220   1.212
68924SOL    HW2 8612  13.877   5.217   1.138
68925SOL     OW 8613   1.966   3.972   1.816
68925SOL    HW1 8614   2.050   3.951   1.857
68925SOL    HW2 8615   1.983   4.050   1.765
68926SOL     OW 8616  11.757   7.845   7.515
68926SOL    HW1 8617  11.815   7.897   7.570
68926SOL    HW2 8618  11.754   7.759   7.558
68927SOL     OW 8619   9.457  11.074   2.264
68927SOL    HW1 8620   9.532  11.095   2.208
68927SOL    HW2 8621   9.406  11.155   2.267
68928SOL     OW 8622  14.066  10.542   0.481
68928SOL    HW1 8623  14.086  10.449   0.482
68928SOL    HW2 8624  14.061  10.567   0.573
68929SOL     OW 8625   4.784   6.939   0.040
68929SOL    HW1 8626   4.705   6.960  14.869
68929SOL    HW2 8627   4.804   7.020   0.087
68930SOL     OW 8628   1.242  14.749   2.394
68930SOL    HW1 8629   1.187  14.699   2.455
68930SOL    HW2 8630   1.321  14.696   2.383
68931SOL     OW 8631  14.397   3.600  14.713
68931SOL    HW1 8632  14.419   3.558  14.630
68931SOL    HW2 8633  14.475   3.587  14.767
68932SOL     OW 8634   6.207   4.597  10.257
68932SOL    HW1 8635   6.161   4.680  10.245
68932SOL    HW2 8636   6.187   4.547  10.178
68933SOL     OW 8637  11.612  10.614   9.354
68933SOL    HW1 8638  11.561  10.627   9.434
68933SOL    HW2 8639  11.589  10.526   9.325
68934SOL     OW 8640  10.079   6.264  10.521
68934SOL    HW1 8641  10.105   6.254  10.429
68934SOL    HW2 8642  10.003   6.322  10.517
68935SOL     OW 8643  13.852  14.582   4.668
68935SOL    HW1 8644  13.842  14.657   4.609
68935SOL    HW2 8645  13.911  14.522   4.622
68936SOL     OW 8646  11.702   4.053  12.044
68936SOL    HW1 8647  11.761   4.107  11.991
68936SOL    HW2 8648  11.694   4.101  12.127
68937SOL     OW 8649   0.919  14.676   8.320
68937SOL    HW1 8650   1.012  14.701   8.319
68937SOL    HW2 8651   0.905  14.639   8.407
68938SOL     OW 8652   7.407  14.268  12.033
68938SOL    HW1 8653   7.480  14.323  12.060
68938SOL    HW2 8654   7.353  14.259  12.112
68939SOL     OW 8655  12.927   5.632  11.789
68939SOL    HW1 8656  12.902   5.540  11.792
68939SOL    HW2 8657  12.854   5.678  11.831
68940SOL     OW 8658   2.469  13.619   4.204
68940SOL    HW1 8659   2.542  13.660   4.159
68940SOL    HW2 8660   2.502  13.603   4.293
68941SOL     OW 8661  13.292   8.317   2.678
68941SOL    HW1 8662  13.347   8.396   2.680
68941SOL    HW2 8663  13.329   8.261   2.747
68942SOL     OW 8664   4.236   3.071   1.796
68942SOL    HW1 8665   4.154   3.027   1.817
68942SOL    HW2 8666   4.218   3.164   1.812
68943SOL     OW 8667   8.198  12.043  14.599
68943SOL    HW1 8668   8.196  11.950  14.617
68943SOL    HW2 8669   8.113  12.076  14.630
68944SOL     OW 8670  14.515  13.696   7.570
68944SOL    HW1 8671  14.564  13.747   7.505
68944SOL    HW2 8672  14.538  13.735   7.654
68945SOL     OW 8673  10.061  10.667   9.614
68945SOL    HW1 8674  10.007  10.745   9.607
68945SOL    HW2 8675  10.140  10.687   9.562
68946SOL     OW 8676  12.952   7.851  10.708
68946SOL    HW1 8677  13.020   7.844  10.640
68946SOL    HW2 8678  12.900   7.926  10.682
68947SOL     OW 8679   1.679   6.513  11.145
68947SOL    HW1 8680   1.640   6.571  11.079
68947SOL    HW2 8681   1.607   6.457  11.173
68948SOL     OW 8682   4.103   8.841   3.878
68948SOL    HW1 8683   4.109   8.806   3.789
68948SOL    HW2 8684   4.168   8.911   3.880
68949SOL     OW 8685  11.645  13.339  12.903
68949SOL    HW1 8686  11.717  13.303  12.954
68949SOL    HW2 8687  11.604  13.403  12.961
68950SOL     OW 8688   9.284   8.046   5.372
68950SOL    HW1 8689   9.258   8.046   5.464
68950SOL    HW2 8690   9.207   8.015   5.325
68951SOL     OW 8691  14.446   9.968   2.794
68951SOL    HW1 8692  14.435   9.976   2.699
68951SOL    HW2 8693  14.530  10.010   2.812
68952SOL     OW 8694   0.561   5.819   1.425
68952SOL    HW1 8695   0.597   5.900   1.389
68952SOL    HW2 8696   0.591   5.817   1.516
68953SOL     OW 8697   0.354   9.765  10.266
68953SOL    HW1 8698   0.340   9.851  10.305
68953SOL    HW2 8699   0.381   9.710  10.340
68954SOL     OW 8700   5.191  10.967   9.212
68954SOL    HW1 8701   5.181  10.997   9.121
68954SOL    HW2 8702   5.107  10.927   9.233
68955SOL     OW 8703   1.570   4.744   4.257
68955SOL    HW1 8704   1.661   4.771   4.249
68955SOL    HW2 8705   1.568   4.653   4.225
68956SOL     OW 8706   5.015  13.748  11.630
68956SOL    HW1 8707   5.027  13.827  11.578
68956SOL    HW2 8708   4.929  13.715  11.604
68957SOL     OW 8709   0.081   0.758   3.090
68957SOL    HW1 8710   0.081   0.790   2.999
68957SOL    HW2 8711   0.110   0.667   3.083
68958SOL     OW 8712   4.209  10.378   8.682
68958SOL    HW1 8713   4.125  10.333   8.690
68958SOL    HW2 8714   4.271  10.309   8.658
68959SOL     OW 8715  13.806  10.082  14.565
68959SOL    HW1 8716  13.735  10.020  14.583
68959SOL    HW2 8717  13.805  10.142  14.640
68960SOL     OW 8718   4.187  13.281   0.178
68960SOL    HW1 8719   4.226  13.368   0.179
68960SOL    HW2 8720   4.259  13.222   0.202
68961SOL     OW 8721  13.498   2.715   1.429
68961SOL    HW1 8722  13.416   2.666   1.433
68961SOL    HW2 8723  13.507   2.753   1.516
68962SOL     OW 8724   7.862  10.539   2.558
68962SOL    HW1 8725   7.791  10.526   2.620
68962SOL    HW2 8726   7.868  10.634   2.547
68963SOL     OW 8727  11.729  10.473   8.797
68963SOL    HW1 8728  11.664  10.426   8.744
68963SOL    HW2 8729  11.677  10.518   8.863
68964SOL     OW 8730   5.108   2.137   1.193
68964SOL    HW1 8731   5.171   2.207   1.202
68964SOL    HW2 8732   5.144   2.079   1.126
68965SOL     OW 8733   4.417   4.833   1.333
68965SOL    HW1 8734   4.496   4.879   1.359
68965SOL    HW2 8735   4.400   4.773   1.405
68966SOL     OW 8736   9.591  14.798   9.855
68966SOL    HW1 8737   9.544  14.750   9.787
68966SOL    HW2 8738   9.634  14.730   9.908
68967SOL     OW 8739  12.956   2.040   8.100
68967SOL    HW1 8740  12.901   2.043   8.178
68967SOL    HW2 8741  12.967   1.947   8.082
68968SOL     OW 8742  13.746   0.631   9.846
68968SOL    HW1 8743  13.822   0.573   9.845
68968SOL    HW2 8744  13.686   0.592   9.910
68969SOL     OW 8745   4.140   2.712  13.122
68969SOL    HW1 8746   4.102   2.785  13.171
68969SOL    HW2 8747   4.157   2.646  13.188
68970SOL     OW 8748  14.104   6.381   2.092
68970SOL    HW1 8749  14.013   6.408   2.084
68970SOL    HW2 8750  14.136   6.379   2.001
68971SOL     OW 8751  12.141  10.834   3.363
68971SOL    HW1 8752  12.230  10.832   3.326
68971SOL    HW2 8753  12.146  10.897   3.435
68972SOL     OW 8754   3.012   4.692   9.623
68972SOL    HW1 8755   2.956   4.674   9.547
68972SOL    HW2 8756   3.101   4.676   9.591
68973SOL     OW 8757   0.861   3.830   0.957
68973SOL    HW1 8758   0.889   3.785   1.037
68973SOL    HW2 8759   0.910   3.912   0.957
68974SOL     OW 8760   8.922  12.963   2.920
68974SOL    HW1 8761   8.868  12.940   2.996
68974SOL    HW2 8762   8.936  12.880   2.875
68975SOL     OW 8763   7.829  13.131   8.829
68975SOL    HW1 8764   7.785  13.053   8.796
68975SOL    HW2 8765   7.762  13.200   8.823
68976SOL     OW 8766   4.424   5.881   0.546
68976SOL    HW1 8767   4.498   5.850   0.599
68976SOL    HW2 8768   4.389   5.802   0.506
68977SOL     OW 8769  14.739  12.041   6.236
68977SOL    HW1 8770  14.712  12.069   6.148
68977SOL    HW2 8771  14.676  11.973   6.261
68978SOL     OW 8772  14.730   5.517   7.986
68978SOL    HW1 8773  14.723   5.456   7.912
68978SOL    HW2 8774  14.791   5.584   7.956
68979SOL     OW 8775   4.561  13.953  10.645
68979SOL    HW1 8776   4.605  13.980  10.564
68979SOL    HW2 8777   4.584  14.021  10.708
68980SOL     OW 8778  11.692  14.471   3.115
68980SOL    HW1 8779  11.645  14.519   3.046
68980SOL    HW2 8780  11.664  14.380   3.104
68981SOL     OW 8781   8.323  10.745  10.303
68981SOL    HW1 8782   8.391  10.678  10.300
68981SOL    HW2 8783   8.254  10.706  10.356
68982SOL     OW 8784  11.695   1.209   5.257
68982SOL    HW1 8785  11.651   1.179   5.337
68982SOL    HW2 8786  11.705   1.131   5.204
68983SOL     OW 8787   2.033   2.702  13.839
68983SOL    HW1 8788   1.952   2.751  13.854
68983SOL    HW2 8789   2.019   2.657  13.755
68984SOL     OW 8790  11.791   5.713  10.345
68984SOL    HW1 8791  11.766   5.726  10.436
68984SOL    HW2 8792  11.774   5.620  10.329
68985SOL     OW 8793  14.833   5.953  13.545
68985SOL    HW1 8794  14.814   5.980  13.455
68985SOL    HW2 8795  14.790   5.868  13.554
68986SOL     OW 8796   4.260   0.525  14.679
68986SOL    HW1 8797   4.352   0.544  14.660
68986SOL    HW2 8798   4.263   0.451  14.740
68987SOL     OW 8799  12.099   1.293   1.139
68987SOL    HW1 8800  12.184   1.288   1.096
68987SOL    HW2 8801  12.114   1.258   1.227
68988SOL     OW 8802   0.191   8.078   1.257
68988SOL    HW1 8803   0.248   8.018   1.305
68988SOL    HW2 8804   0.251   8.128   1.200
68989SOL     OW 8805   0.798  11.637   8.692
68989SOL    HW1 8806   0.750  11.568   8.648
68989SOL    HW2 8807   0.760  11.718   8.658
68990SOL     OW 8808  10.310  10.748  10.926
68990SOL    HW1 8809  10.318  10.742  11.021
68990SOL    HW2 8810  10.310  10.842  10.908
68991SOL     OW 8811   0.518   7.658   5.942
68991SOL    HW1 8812   0.611   7.666   5.919
68991SOL    HW2 8813   0.491   7.574   5.906
68992SOL     OW 8814   1.693  12.616  13.885
68992SOL    HW1 8815   1.755  12.671  13.933
68992SOL    HW2 8816   1.652  12.676  13.822
68993SOL     OW 8817  11.864   8.719   0.056
68993SOL    HW1 8818  11.819   8.640   0.086
68993SOL    HW2 8819  11.802   8.790   0.071
68994SOL     OW 8820  13.758   2.161   9.386
68994SOL    HW1 8821  13.848   2.194   9.385
68994SOL    HW2 8822  13.726   2.176   9.298
68995SOL     OW 8823   1.879   4.498   0.510
68995SOL    HW1 8824   1.804   4.555   0.523
68995SOL    HW2 8825   1.869   4.465   0.421
68996SOL     OW 8826   1.367   4.594   0.405
68996SOL    HW1 8827   1.404   4.553   0.327
68996SOL    HW2 8828   1.362   4.687   0.384
68997SOL     OW 8829   4.791   9.405   4.963
68997SOL    HW1 8830   4.870   9.423   4.913
68997SOL    HW2 8831   4.820   9.350   5.036
68998SOL     OW 8832  11.391  12.526   0.207
68998SOL    HW1 8833  11.371  12.496   0.296
68998SOL    HW2 8834  11.409  12.445   0.159
68999SOL     OW 8835  11.679   5.886   9.819
68999SOL    HW1 8836  11.666   5.962   9.762
68999SOL    HW2 8837  11.637   5.814   9.771
69000SOL     OW 8838   9.078  10.052   2.511
69000SOL    HW1 8839   9.071   9.983   2.577
69000SOL    HW2 8840   9.172  10.059   2.493
69001SOL     OW 8841   3.216   9.894   5.523
69001SOL    HW1 8842   3.225   9.986   5.551
69001SOL    HW2 8843   3.140   9.894   5.465
69002SOL     OW 8844   0.559   5.996   9.903
69002SOL    HW1 8845   0.654   5.993   9.890
69002SOL    HW2 8846   0.527   6.049   9.830
69003SOL     OW 8847   5.720   2.647  13.223
69003SOL    HW1 8848   5.713   2.731  13.177
69003SOL    HW2 8849   5.654   2.591  13.180
69004SOL     OW 8850   9.670   1.223   7.841
69004SOL    HW1 8851   9.675   1.275   7.921
69004SOL    HW2 8852   9.748   1.166   7.845
69005SOL     OW 8853  14.544   4.433  14.339
69005SOL    HW1 8854  14.463   4.386  14.319
69005SOL    HW2 8855  14.515   4.520  14.367
69006SOL     OW 8856   9.069   4.925   1.642
69006SOL    HW1 8857   9.056   4.880   1.725
69006SOL    HW2 8858   9.110   4.860   1.585
69007SOL     OW 8859   3.009  12.318  12.760
69007SOL    HW1 8860   2.954  12.288  12.687
69007SOL    HW2 8861   2.947  12.350  12.825
69008SOL     OW 8862   9.109  10.517  11.647
69008SOL    HW1 8863   9.115  10.540  11.554
69008SOL    HW2 8864   9.199  10.498  11.673
69009SOL     OW 8865  10.041   5.446  11.785
69009SOL    HW1 8866  10.124   5.403  11.765
69009SOL    HW2 8867  10.010   5.477  11.700
69010SOL     OW 8868  14.620  12.010  11.611
69010SOL    HW1 8869  14.666  11.996  11.528
69010SOL    HW2 8870  14.689  12.011  11.677
69011SOL     OW 8871  13.385  13.236   3.784
69011SOL    HW1 8872  13.312  13.259   3.727
69011SOL    HW2 8873  13.438  13.175   3.733
69012SOL     OW 8874   5.579   1.663   8.519
69012SOL    HW1 8875   5.583   1.700   8.431
69012SOL    HW2 8876   5.621   1.578   8.512
69013SOL     OW 8877   0.443   9.217  10.171
69013SOL    HW1 8878   0.526   9.223  10.220
69013SOL    HW2 8879   0.449   9.288  10.107
69014SOL     OW 8880  13.653   8.053   3.766
69014SOL    HW1 8881  13.635   8.061   3.673
69014SOL    HW2 8882  13.684   7.963   3.777
69015SOL     OW 8883  13.519   4.345   0.436
69015SOL    HW1 8884  13.507   4.257   0.473
69015SOL    HW2 8885  13.525   4.331   0.342
69016SOL     OW 8886   3.669   2.100  14.877
69016SOL    HW1 8887   3.755   2.130   0.029
69016SOL    HW2 8888   3.609   2.171   0.022
69017SOL     OW 8889  10.254   1.490   2.658
69017SOL    HW1 8890  10.208   1.491   2.742
69017SOL    HW2 8891  10.314   1.416   2.664
69018SOL     OW 8892   5.811  13.444   9.469
69018SOL    HW1 8893   5.814  13.380   9.399
69018SOL    HW2 8894   5.845  13.398   9.546
69019SOL     OW 8895   4.693   6.467   0.775
69019SOL    HW1 8896   4.598   6.480   0.786
69019SOL    HW2 8897   4.732   6.514   0.848
69020SOL     OW 8898  10.407   1.465  12.370
69020SOL    HW1 8899  10.319   1.429  12.379
69020SOL    HW2 8900  10.459   1.419  12.437
69021SOL     OW 8901  13.357   6.820   1.831
69021SOL    HW1 8902  13.275   6.791   1.792
69021SOL    HW2 8903  13.425   6.783   1.775
69022SOL     OW 8904   5.851  12.691   1.308
69022SOL    HW1 8905   5.828  12.714   1.218
69022SOL    HW2 8906   5.909  12.615   1.299
69023SOL     OW 8907   2.196  12.448  13.201
69023SOL    HW1 8908   2.271  12.506  13.186
69023SOL    HW2 8909   2.122  12.493  13.160
69024SOL     OW 8910  11.105   9.052   7.714
69024SOL    HW1 8911  11.037   9.037   7.779
69024SOL    HW2 8912  11.184   9.015   7.753
69025SOL     OW 8913   8.090   3.127   3.245
69025SOL    HW1 8914   8.143   3.124   3.166
69025SOL    HW2 8915   8.148   3.166   3.311
69026SOL     OW 8916   4.241   3.043   2.151
69026SOL    HW1 8917   4.326   3.079   2.174
69026SOL    HW2 8918   4.193   3.116   2.113
69027SOL     OW 8919   3.208   7.177   1.508
69027SOL    HW1 8920   3.161   7.118   1.448
69027SOL    HW2 8921   3.246   7.119   1.573
69028SOL     OW 8922   2.708   3.038   5.305
69028SOL    HW1 8923   2.757   2.991   5.237
69028SOL    HW2 8924   2.727   3.130   5.290
69029SOL     OW 8925   3.810   3.840   5.164
69029SOL    HW1 8926   3.744   3.873   5.225
69029SOL    HW2 8927   3.859   3.918   5.138
69030SOL     OW 8928  11.611   3.609   5.872
69030SOL    HW1 8929  11.587   3.520   5.896
69030SOL    HW2 8930  11.556   3.629   5.796
69031SOL     OW 8931   2.867   3.905   5.997
69031SOL    HW1 8932   2.943   3.848   5.982
69031SOL    HW2 8933   2.795   3.863   5.950
69032SOL     OW 8934  14.076   7.907  14.312
69032SOL    HW1 8935  14.053   7.942  14.398
69032SOL    HW2 8936  14.026   7.825  14.306
69033SOL     OW 8937   3.318  14.591   7.809
69033SOL    HW1 8938   3.334  14.500   7.834
69033SOL    HW2 8939   3.253  14.586   7.739
69034SOL     OW 8940   9.866   5.594   8.407
69034SOL    HW1 8941   9.830   5.590   8.496
69034SOL    HW2 8942   9.838   5.513   8.366
69035SOL     OW 8943  12.541   3.731   8.908
69035SOL    HW1 8944  12.530   3.695   8.820
69035SOL    HW2 8945  12.616   3.683   8.944
69036SOL     OW 8946   2.386  11.133   3.866
69036SOL    HW1 8947   2.381  11.184   3.947
69036SOL    HW2 8948   2.301  11.090   3.859
69037SOL     OW 8949  12.901   9.232   1.836
69037SOL    HW1 8950  12.899   9.215   1.742
69037SOL    HW2 8951  12.813   9.264   1.857
69038SOL     OW 8952   1.667  10.855  10.945
69038SOL    HW1 8953   1.603  10.795  10.984
69038SOL    HW2 8954   1.730  10.797  10.901
69039SOL     OW 8955   2.475   5.114   6.937
69039SOL    HW1 8956   2.529   5.147   7.009
69039SOL    HW2 8957   2.447   5.027   6.966
69040SOL     OW 8958  10.394  11.096  10.112
69040SOL    HW1 8959  10.441  11.175  10.085
69040SOL    HW2 8960  10.463  11.036  10.141
69041SOL     OW 8961   8.386  10.411   2.089
69041SOL    HW1 8962   8.440  10.342   2.126
69041SOL    HW2 8963   8.420  10.492   2.127
69042SOL     OW 8964  13.867   3.335   4.080
69042SOL    HW1 8965  13.812   3.304   4.007
69042SOL    HW2 8966  13.923   3.402   4.041
69043SOL     OW 8967   3.517   6.704   1.563
69043SOL    HW1 8968   3.525   6.610   1.553
69043SOL    HW2 8969   3.423   6.719   1.574
69044SOL     OW 8970  13.196   7.474   2.913
69044SOL    HW1 8971  13.111   7.454   2.954
69044SOL    HW2 8972  13.249   7.510   2.984
69045SOL     OW 8973   9.008   0.039  13.830
69045SOL    HW1 8974   9.038   0.053  13.920
69045SOL    HW2 8975   8.983  14.826  13.826
69046SOL     OW 8976  13.809   4.009   5.418
69046SOL    HW1 8977  13.765   4.048   5.343
69046SOL    HW2 8978  13.814   4.079   5.483
69047SOL     OW 8979   1.498   6.536   9.165
69047SOL    HW1 8980   1.481   6.626   9.138
69047SOL    HW2 8981   1.577   6.510   9.118
69048SOL     OW 8982  14.618   7.371   1.282
69048SOL    HW1 8983  14.675   7.313   1.332
69048SOL    HW2 8984  14.670   7.450   1.268
69049SOL     OW 8985  13.388   1.322   5.726
69049SOL    HW1 8986  13.359   1.408   5.758
69049SOL    HW2 8987  13.353   1.260   5.789
69050SOL     OW 8988  14.820   0.965   9.367
69050SOL    HW1 8989  14.795   0.979   9.458
69050SOL    HW2 8990  14.738   0.943   9.322
69051SOL     OW 8991   5.913   8.164  10.691
69051SOL    HW1 8992   5.967   8.091  10.723
69051SOL    HW2 8993   5.971   8.213  10.633
69052SOL     OW 8994   2.495   3.918  12.376
69052SOL    HW1 8995   2.566   3.890  12.433
69052SOL    HW2 8996   2.415   3.907  12.428
69053SOL     OW 8997   6.442   3.141   0.190
69053SOL    HW1 8998   6.455   3.121   0.282
69053SOL    HW2 8999   6.488   3.071   0.143
69054SOL     OW 9000   4.253  14.051  12.122
69054SOL    HW1 9001   4.199  14.066  12.200
69054SOL    HW2 9002   4.231  14.122  12.063
69055SOL     OW 9003   8.758   2.072   5.227
69055SOL    HW1 9004   8.741   2.126   5.150
69055SOL    HW2 9005   8.848   2.042   5.216
69056SOL     OW 9006   4.966   5.473   2.464
69056SOL    HW1 9007   4.910   5.540   2.504
69056SOL    HW2 9008   5.013   5.435   2.538
69057SOL     OW 9009   1.506   6.660   2.624
69057SOL    HW1 9010   1.423   6.701   2.646
69057SOL    HW2 9011   1.491   6.567   2.635
69058SOL     OW 9012  13.319   6.128   7.042
69058SOL    HW1 9013  13.236   6.104   7.083
69058SOL    HW2 9014  13.342   6.212   7.082
69059SOL     OW 9015   1.937   5.716   8.870
69059SOL    HW1 9016   1.997   5.773   8.919
69059SOL    HW2 9017   1.992   5.677   8.802
69060SOL     OW 9018   8.552   9.103   2.456
69060SOL    HW1 9019   8.535   9.020   2.412
69060SOL    HW2 9020   8.646   9.118   2.444
69061SOL     OW 9021   0.346   2.621   7.898
69061SOL    HW1 9022   0.359   2.556   7.967
69061SOL    HW2 9023   0.350   2.705   7.943
69062SOL     OW 9024   0.943   9.726  13.367
69062SOL    HW1 9025   1.014   9.683  13.320
69062SOL    HW2 9026   0.921   9.802  13.314
69063SOL     OW 9027   8.138   6.384  10.143
69063SOL    HW1 9028   8.122   6.290  10.133
69063SOL    HW2 9029   8.125   6.420  10.055
69064SOL     OW 9030  13.976  12.955  10.674
69064SOL    HW1 9031  14.012  13.040  10.701
69064SOL    HW2 9032  14.022  12.891  10.729
69065SOL     OW 9033   0.324   8.834   5.611
69065SOL    HW1 9034   0.386   8.884   5.559
69065SOL    HW2 9035   0.362   8.831   5.699
69066SOL     OW 9036   7.769  12.116   1.561
69066SOL    HW1 9037   7.703  12.174   1.524
69066SOL    HW2 9038   7.719  12.053   1.613
69067SOL     OW 9039  11.101  14.553   8.496
69067SOL    HW1 9040  11.032  14.501   8.455
69067SOL    HW2 9041  11.096  14.530   8.589
69068SOL     OW 9042  14.598   7.672   3.540
69068SOL    HW1 9043  14.690   7.691   3.557
69068SOL    HW2 9044  14.596   7.577   3.525
69069SOL     OW 9045  14.878   6.400  12.146
69069SOL    HW1 9046   0.025   6.360  12.063
69069SOL    HW2 9047   0.059   6.473  12.158
69070SOL     OW 9048  12.530  14.374   8.524
69070SOL    HW1 9049  12.592  14.426   8.575
69070SOL    HW2 9050  12.536  14.410   8.435
69071SOL     OW 9051  12.460   3.128   5.906
69071SOL    HW1 9052  12.402   3.064   5.865
69071SOL    HW2 9053  12.444   3.118   6.000
69072SOL     OW 9054   1.695   4.359  10.794
69072SOL    HW1 9055   1.645   4.366  10.713
69072SOL    HW2 9056   1.702   4.449  10.826
69073SOL     OW 9057   9.781  14.167   1.807
69073SOL    HW1 9058   9.692  14.146   1.835
69073SOL    HW2 9059   9.796  14.256   1.839
69074SOL     OW 9060   0.387  13.245   2.873
69074SOL    HW1 9061   0.332  13.168   2.890
69074SOL    HW2 9062   0.476  13.212   2.876
69075SOL     OW 9063   9.524   2.670  12.995
69075SOL    HW1 9064   9.478   2.725  13.057
69075SOL    HW2 9065   9.617   2.687  13.011
69076SOL     OW 9066  12.080  13.354   8.663
69076SOL    HW1 9067  12.172  13.377   8.652
69076SOL    HW2 9068  12.047  13.416   8.728
69077SOL     OW 9069   8.652  14.218   5.836
69077SOL    HW1 9070   8.559  14.227   5.857
69077SOL    HW2 9071   8.688  14.305   5.852
69078SOL     OW 9072   5.573   7.793   0.328
69078SOL    HW1 9073   5.543   7.835   0.247
69078SOL    HW2 9074   5.496   7.745   0.359
69079SOL     OW 9075  11.479   2.326   6.054
69079SOL    HW1 9076  11.532   2.386   6.001
69079SOL    HW2 9077  11.394   2.370   6.062
69080SOL     OW 9078   0.301   7.640   0.858
69080SOL    HW1 9079   0.395   7.655   0.855
69080SOL    HW2 9080   0.263   7.710   0.805
69081SOL     OW 9081  12.566   1.528   8.392
69081SOL    HW1 9082  12.596   1.481   8.314
69081SOL    HW2 9083  12.591   1.472   8.465
69082SOL     OW 9084  12.926  14.219   7.710
69082SOL    HW1 9085  12.869  14.244   7.638
69082SOL    HW2 9086  13.014  14.243   7.681
69083SOL     OW 9087  11.510   6.774   1.832
69083SOL    HW1 9088  11.447   6.739   1.769
69083SOL    HW2 9089  11.483   6.737   1.916
69084SOL     OW 9090   8.070  14.052  14.576
69084SOL    HW1 9091   8.069  13.957  14.588
69084SOL    HW2 9092   8.000  14.070  14.513
69085SOL     OW 9093  14.589   5.177  13.731
69085SOL    HW1 9094  14.622   5.259  13.694
69085SOL    HW2 9095  14.579   5.119  13.655
69086SOL     OW 9096   5.620   7.659  13.463
69086SOL    HW1 9097   5.535   7.704  13.456
69086SOL    HW2 9098   5.652   7.681  13.550
69087SOL     OW 9099   1.278   3.374   1.520
69087SOL    HW1 9100   1.306   3.457   1.481
69087SOL    HW2 9101   1.184   3.386   1.534
69088SOL     OW 9102   1.666   5.911  14.516
69088SOL    HW1 9103   1.608   5.903  14.592
69088SOL    HW2 9104   1.752   5.930  14.553
69089SOL     OW 9105   6.534   2.170   2.670
69089SOL    HW1 9106   6.577   2.085   2.662
69089SOL    HW2 9107   6.571   2.207   2.750
69090SOL     OW 9108   9.521  11.397   0.107
69090SOL    HW1 9109   9.576  11.377   0.031
69090SOL    HW2 9110   9.475  11.315   0.124
69091SOL     OW 9111   3.148   1.032   1.645
69091SOL    HW1 9112   3.081   1.077   1.592
69091SOL    HW2 9113   3.191   1.101   1.694
69092SOL     OW 9114   0.573  10.790  14.152
69092SOL    HW1 9115   0.483  10.817  14.168
69092SOL    HW2 9116   0.615  10.794  14.238
69093SOL     OW 9117   3.766   4.541   7.142
69093SOL    HW1 9118   3.794   4.566   7.054
69093SOL    HW2 9119   3.695   4.601   7.163
69094SOL     OW 9120  10.116  14.674   8.589
69094SOL    HW1 9121  10.029  14.648   8.619
69094SOL    HW2 9122  10.173  14.601   8.614
69095SOL     OW 9123  14.304   0.683   0.633
69095SOL    HW1 9124  14.305   0.592   0.664
69095SOL    HW2 9125  14.234   0.685   0.568
69096SOL     OW 9126   6.748  12.021   9.580
69096SOL    HW1 9127   6.708  12.071   9.651
69096SOL    HW2 9128   6.687  12.030   9.506
69097SOL     OW 9129   5.213   9.163  11.686
69097SOL    HW1 9130   5.183   9.115  11.609
69097SOL    HW2 9131   5.195   9.255  11.665
69098SOL     OW 9132  11.209   1.438   6.177
69098SOL    HW1 9133  11.243   1.476   6.259
69098SOL    HW2 9134  11.280   1.384   6.144
69099SOL     OW 9135   1.186  12.212   0.603
69099SOL    HW1 9136   1.196  12.118   0.589
69099SOL    HW2 9137   1.271  12.240   0.637
69100SOL     OW 9138  11.290   3.253  14.319
69100SOL    HW1 9139  11.350   3.180  14.334
69100SOL    HW2 9140  11.236   3.224  14.245
69101SOL     OW 9141   0.361   6.118   6.806
69101SOL    HW1 9142   0.452   6.106   6.830
69101SOL    HW2 9143   0.325   6.175   6.874
69102SOL     OW 9144  11.428   3.304   8.758
69102SOL    HW1 9145  11.402   3.260   8.839
69102SOL    HW2 9146  11.523   3.315   8.767
69103SOL     OW 9147   9.918   5.424   7.683
69103SOL    HW1 9148  10.010   5.424   7.656
69103SOL    HW2 9149   9.902   5.512   7.716
69104SOL     OW 9150  12.422  10.785   1.641
69104SOL    HW1 9151  12.363  10.848   1.600
69104SOL    HW2 9152  12.506  10.832   1.647
69105SOL     OW 9153   9.100   1.551  10.553
69105SOL    HW1 9154   9.019   1.501  10.552
69105SOL    HW2 9155   9.154   1.509  10.619
69106SOL     OW 9156   9.058  12.413   9.066
69106SOL    HW1 9157   9.040  12.350   9.135
69106SOL    HW2 9158   9.005  12.384   8.992
69107SOL     OW 9159   4.371  10.503   5.443
69107SOL    HW1 9160   4.390  10.410   5.454
69107SOL    HW2 9161   4.446  10.538   5.395
69108SOL     OW 9162  14.110   9.918   7.176
69108SOL    HW1 9163  14.064   9.857   7.117
69108SOL    HW2 9164  14.088   9.886   7.263
69109SOL     OW 9165  13.350   0.786   4.118
69109SOL    HW1 9166  13.263   0.773   4.080
69109SOL    HW2 9167  13.334   0.836   4.198
69110SOL     OW 9168   3.128   2.404   2.431
69110SOL    HW1 9169   3.070   2.479   2.446
69110SOL    HW2 9170   3.139   2.401   2.336
69111SOL     OW 9171   6.854   1.701  12.013
69111SOL    HW1 9172   6.894   1.614  12.023
69111SOL    HW2 9173   6.832   1.707  11.920
69112SOL     OW 9174  10.602   2.252  12.933
69112SOL    HW1 9175  10.586   2.165  12.896
69112SOL    HW2 9176  10.540   2.258  13.007
69113SOL     OW 9177   5.811   3.592   4.926
69113SOL    HW1 9178   5.822   3.546   5.009
69113SOL    HW2 9179   5.723   3.566   4.897
69114SOL     OW 9180   7.343   4.905  12.196
69114SOL    HW1 9181   7.312   4.814  12.196
69114SOL    HW2 9182   7.388   4.915  12.280
69115SOL     OW 9183   2.153   4.557  10.701
69115SOL    HW1 9184   2.155   4.528  10.610
69115SOL    HW2 9185   2.243   4.582  10.721
69116SOL     OW 9186   2.092   2.390   2.615
69116SOL    HW1 9187   2.044   2.464   2.579
69116SOL    HW2 9188   2.042   2.313   2.588
69117SOL     OW 9189  13.273   0.059  11.709
69117SOL    HW1 9190  13.276  14.873  11.638
69117SOL    HW2 9191  13.207   0.026  11.769
69118SOL     OW 9192   3.601  12.924   1.298
69118SOL    HW1 9193   3.520  12.875   1.312
69118SOL    HW2 9194   3.661  12.892   1.366
69119SOL     OW 9195  14.479   2.436  11.422
69119SOL    HW1 9196  14.448   2.519  11.386
69119SOL    HW2 9197  14.439   2.431  11.509
69120SOL     OW 9198  13.607  10.763  13.243
69120SOL    HW1 9199  13.542  10.761  13.313
69120SOL    HW2 9200  13.683  10.806  13.283
69121SOL     OW 9201   6.375   2.924   8.446
69121SOL    HW1 9202   6.386   2.979   8.369
69121SOL    HW2 9203   6.379   2.985   8.520
69122SOL     OW 9204   8.630   8.659   8.389
69122SOL    HW1 9205   8.679   8.728   8.344
69122SOL    HW2 9206   8.570   8.625   8.322
69123SOL     OW 9207   4.056   5.355   1.216
69123SOL    HW1 9208   4.148   5.359   1.189
69123SOL    HW2 9209   4.058   5.371   1.310
69124SOL     OW 9210  12.922   1.312   1.133
69124SOL    HW1 9211  12.998   1.360   1.168
69124SOL    HW2 9212  12.847   1.370   1.151
69125SOL     OW 9213   4.987   4.085   1.707
69125SOL    HW1 9214   4.939   4.058   1.785
69125SOL    HW2 9215   5.032   4.006   1.677
69126SOL     OW 9216   1.728   8.649  10.812
69126SOL    HW1 9217   1.657   8.709  10.835
69126SOL    HW2 9218   1.807   8.691  10.847
69127SOL     OW 9219   6.530  11.424  13.601
69127SOL    HW1 9220   6.576  11.342  13.582
69127SOL    HW2 9221   6.593  11.493  13.581
69128SOL     OW 9222   4.219   1.383  14.600
69128SOL    HW1 9223   4.311   1.403  14.580
69128SOL    HW2 9224   4.224   1.315  14.668
69129SOL     OW 9225  13.423   6.763   9.782
69129SOL    HW1 9226  13.432   6.852   9.750
69129SOL    HW2 9227  13.334   6.758   9.817
69130SOL     OW 9228   7.973   2.755   9.381
69130SOL    HW1 9229   7.928   2.821   9.328
69130SOL    HW2 9230   7.991   2.683   9.320
69131SOL     OW 9231  11.560   0.863  10.282
69131SOL    HW1 9232  11.639   0.915  10.300
69131SOL    HW2 9233  11.593   0.776  10.260
69132SOL     OW 9234   5.005  11.556   3.781
69132SOL    HW1 9235   4.962  11.597   3.856
69132SOL    HW2 9236   5.014  11.464   3.806
69133SOL     OW 9237   5.152  11.347  10.229
69133SOL    HW1 9238   5.120  11.425  10.275
69133SOL    HW2 9239   5.181  11.289  10.299
69134SOL     OW 9240   3.209   4.884   2.435
69134SOL    HW1 9241   3.186   4.891   2.528
69134SOL    HW2 9242   3.303   4.903   2.432
69135SOL     OW 9243   3.687  13.202   1.900
69135SOL    HW1 9244   3.717  13.283   1.860
69135SOL    HW2 9245   3.682  13.221   1.994
69136SOL     OW 9246   3.509  12.793  11.868
69136SOL    HW1 9247   3.503  12.758  11.779
69136SOL    HW2 9248   3.483  12.719  11.924
69137SOL     OW 9249   7.077  14.776   6.987
69137SOL    HW1 9250   7.078  14.835   6.911
69137SOL    HW2 9251   7.107  14.692   6.951
69138SOL     OW 9252   9.078  12.347   4.020
69138SOL    HW1 9253   9.021  12.413   4.061
69138SOL    HW2 9254   9.101  12.288   4.091
69139SOL     OW 9255   9.789  10.262   8.678
69139SOL    HW1 9256   9.704  10.226   8.652
69139SOL    HW2 9257   9.800  10.340   8.624
69140SOL     OW 9258  14.053  14.674   6.148
69140SOL    HW1 9259  14.016  14.762   6.137
69140SOL    HW2 9260  13.998  14.618   6.093
69141SOL     OW 9261   5.544   6.099  13.679
69141SOL    HW1 9262   5.555   6.092  13.774
69141SOL    HW2 9263   5.601   6.031  13.643
69142SOL     OW 9264   1.793   4.485   7.159
69142SOL    HW1 9265   1.799   4.546   7.086
69142SOL    HW2 9266   1.826   4.533   7.235
69143SOL     OW 9267   6.450   6.413   8.599
69143SOL    HW1 9268   6.505   6.434   8.524
69143SOL    HW2 9269   6.491   6.335   8.638
69144SOL     OW 9270   5.331   3.068  12.387
69144SOL    HW1 9271   5.256   3.121  12.359
69144SOL    HW2 9272   5.337   3.085  12.482
69145SOL     OW 9273   2.716  10.702  14.224
69145SOL    HW1 9274   2.749  10.622  14.182
69145SOL    HW2 9275   2.646  10.732  14.166
69146SOL     OW 9276   1.044   0.473  13.197
69146SOL    HW1 9277   1.093   0.443  13.274
69146SOL    HW2 9278   1.106   0.528  13.149
69147SOL     OW 9279   3.901   3.325  14.215
69147SOL    HW1 9280   3.843   3.367  14.151
69147SOL    HW2 9281   3.906   3.388  14.287
69148SOL     OW 9282  12.268  14.600  14.451
69148SOL    HW1 9283  12.218  14.519  14.440
69148SOL    HW2 9284  12.327  14.581  14.524
69149SOL     OW 9285   0.449   4.758   1.602
69149SOL    HW1 9286   0.473   4.805   1.682
69149SOL    HW2 9287   0.359   4.785   1.584
69150SOL     OW 9288   5.136  14.553   0.906
69150SOL    HW1 9289   5.163  14.561   0.997
69150SOL    HW2 9290   5.114  14.461   0.895
69151SOL     OW 9291  13.984   6.580   4.506
69151SOL    HW1 9292  13.990   6.485   4.496
69151SOL    HW2 9293  14.046   6.615   4.441
69152SOL     OW 9294   3.179  10.379   2.163
69152SOL    HW1 9295   3.224  10.343   2.239
69152SOL    HW2 9296   3.180  10.473   2.176
69153SOL     OW 9297   1.666   8.079  11.333
69153SOL    HW1 9298   1.631   7.991  11.319
69153SOL    HW2 9299   1.611   8.136  11.278
69154SOL     OW 9300   3.061   6.278  11.375
69154SOL    HW1 9301   3.147   6.304  11.408
69154SOL    HW2 9302   3.041   6.197  11.422
69155SOL     OW 9303   7.648   5.139   6.315
69155SOL    HW1 9304   7.736   5.124   6.352
69155SOL    HW2 9305   7.632   5.232   6.330
69156SOL     OW 9306   4.835   0.085  11.441
69156SOL    HW1 9307   4.793   0.106  11.358
69156SOL    HW2 9308   4.920   0.048  11.417
69157SOL     OW 9309   9.332   3.714   3.053
69157SOL    HW1 9310   9.405   3.776   3.058
69157SOL    HW2 9311   9.254   3.769   3.057
69158SOL     OW 9312  10.029   0.138  11.268
69158SOL    HW1 9313  10.005   0.146  11.360
69158SOL    HW2 9314  10.045   0.045  11.255
69159SOL     OW 9315  13.426   4.689   4.153
69159SOL    HW1 9316  13.453   4.779   4.135
69159SOL    HW2 9317  13.417   4.685   4.249
69160SOL     OW 9318   6.371   3.890   7.658
69160SOL    HW1 9319   6.349   3.875   7.750
69160SOL    HW2 9320   6.433   3.820   7.637
69161SOL     OW 9321   7.208   7.143  13.528
69161SOL    HW1 9322   7.301   7.146  13.550
69161SOL    HW2 9323   7.204   7.160  13.434
69162SOL     OW 9324  12.517  14.842   2.758
69162SOL    HW1 9325  12.561  14.784   2.696
69162SOL    HW2 9326  12.426  14.811   2.759
69163SOL     OW 9327  14.739  13.512   7.281
69163SOL    HW1 9328  14.816  13.457   7.267
69163SOL    HW2 9329  14.697  13.475   7.359
69164SOL     OW 9330   0.976  14.717  10.900
69164SOL    HW1 9331   0.988  14.622  10.899
69164SOL    HW2 9332   0.979  14.740  10.993
69165SOL     OW 9333   7.672   4.585  14.754
69165SOL    HW1 9334   7.706   4.653  14.812
69165SOL    HW2 9335   7.589   4.558  14.794
69166SOL     OW 9336   2.915  12.474   8.698
69166SOL    HW1 9337   2.883  12.549   8.648
69166SOL    HW2 9338   2.932  12.509   8.785
69167SOL     OW 9339   2.450   1.707   5.597
69167SOL    HW1 9340   2.546   1.709   5.599
69167SOL    HW2 9341   2.425   1.656   5.674
69168SOL     OW 9342   4.226  13.780   5.062
69168SOL    HW1 9343   4.270  13.851   5.014
69168SOL    HW2 9344   4.296  13.722   5.088
69169SOL     OW 9345   8.886   0.012   7.235
69169SOL    HW1 9346   8.819  14.863   7.297
69169SOL    HW2 9347   8.899  14.816   7.177
69170SOL     OW 9348   1.241   9.754   3.306
69170SOL    HW1 9349   1.331   9.736   3.277
69170SOL    HW2 9350   1.186   9.712   3.240
69171SOL     OW 9351   9.077   3.480   9.436
69171SOL    HW1 9352   8.991   3.448   9.463
69171SOL    HW2 9353   9.059   3.543   9.367
69172SOL     OW 9354   9.536  11.329  11.952
69172SOL    HW1 9355   9.493  11.320  12.037
69172SOL    HW2 9356   9.487  11.398  11.907
69173SOL     OW 9357  11.053   4.616  14.750
69173SOL    HW1 9358  11.091   4.577  14.671
69173SOL    HW2 9359  11.050   4.545  14.814
69174SOL     OW 9360  12.293  13.709  12.339
69174SOL    HW1 9361  12.343  13.727  12.418
69174SOL    HW2 9362  12.348  13.741  12.268
69175SOL     OW 9363   4.885   2.068   3.327
69175SOL    HW1 9364   4.948   2.048   3.396
69175SOL    HW2 9365   4.874   1.986   3.279
69176SOL     OW 9366   7.925   7.428   0.555
69176SOL    HW1 9367   7.896   7.337   0.563
69176SOL    HW2 9368   7.985   7.428   0.480
69177SOL     OW 9369   6.133  14.558  12.709
69177SOL    HW1 9370   6.118  14.464  12.706
69177SOL    HW2 9371   6.046  14.597  12.718
69178SOL     OW 9372  12.958  11.698  13.773
69178SOL    HW1 9373  12.952  11.770  13.836
69178SOL    HW2 9374  13.048  11.700  13.743
69179SOL     OW 9375   2.527   5.501  12.452
69179SOL    HW1 9376   2.512   5.554  12.530
69179SOL    HW2 9377   2.557   5.564  12.386
69180SOL     OW 9378   5.069   4.138   5.752
69180SOL    HW1 9379   5.144   4.180   5.710
69180SOL    HW2 9380   5.020   4.210   5.792
69181SOL     OW 9381   5.979  12.327   9.455
69181SOL    HW1 9382   6.061  12.371   9.434
69181SOL    HW2 9383   5.936  12.314   9.370
69182SOL     OW 9384   3.525   1.897   4.642
69182SOL    HW1 9385   3.435   1.919   4.617
69182SOL    HW2 9386   3.534   1.931   4.731
69183SOL     OW 9387   6.172   2.781   6.676
69183SOL    HW1 9388   6.087   2.778   6.720
69183SOL    HW2 9389   6.217   2.702   6.706
69184SOL     OW 9390  10.683  12.806  11.240
69184SOL    HW1 9391  10.771  12.808  11.277
69184SOL    HW2 9392  10.639  12.735  11.286
69185SOL     OW 9393   1.678  14.811   7.711
69185SOL    HW1 9394   1.634  14.771   7.786
69185SOL    HW2 9395   1.647   0.022   7.711
69186SOL     OW 9396   8.052  12.456   5.391
69186SOL    HW1 9397   8.138  12.498   5.397
69186SOL    HW2 9398   8.025  12.471   5.300
69187SOL     OW 9399   0.484   3.612   0.186
69187SOL    HW1 9400   0.415   3.620   0.252
69187SOL    HW2 9401   0.524   3.527   0.203
69188SOL     OW 9402   2.238   6.175   7.521
69188SOL    HW1 9403   2.192   6.105   7.474
69188SOL    HW2 9404   2.172   6.243   7.534
69189SOL     OW 9405  11.572   9.469   9.620
69189SOL    HW1 9406  11.508   9.519   9.570
69189SOL    HW2 9407  11.624   9.536   9.665
69190SOL     OW 9408   0.866   7.497   2.486
69190SOL    HW1 9409   0.946   7.549   2.479
69190SOL    HW2 9410   0.818   7.516   2.405
69191SOL     OW 9411   4.947   2.846  10.546
69191SOL    HW1 9412   4.885   2.900  10.594
69191SOL    HW2 9413   5.014   2.823  10.611
69192SOL     OW 9414   0.520  11.554  10.254
69192SOL    HW1 9415   0.573  11.475  10.265
69192SOL    HW2 9416   0.522  11.572  10.160
69193SOL     OW 9417   2.707   8.455  13.372
69193SOL    HW1 9418   2.802   8.457  13.365
69193SOL    HW2 9419   2.679   8.544  13.351
69194SOL     OW 9420   5.183  13.252   2.470
69194SOL    HW1 9421   5.242  13.260   2.545
69194SOL    HW2 9422   5.109  13.200   2.503
69195SOL     OW 9423  12.844   7.883   2.247
69195SOL    HW1 9424  12.811   7.818   2.185
69195SOL    HW2 9425  12.808   7.857   2.331
69196SOL     OW 9426   2.567  11.902   1.853
69196SOL    HW1 9427   2.583  11.979   1.798
69196SOL    HW2 9428   2.472  11.897   1.860
69197SOL     OW 9429   4.987   1.057   4.751
69197SOL    HW1 9430   5.024   0.974   4.783
69197SOL    HW2 9431   5.064   1.111   4.731
69198SOL     OW 9432   3.335   5.515   0.809
69198SOL    HW1 9433   3.290   5.504   0.893
69198SOL    HW2 9434   3.294   5.450   0.752
69199SOL     OW 9435   4.629   2.473  10.596
69199SOL    HW1 9436   4.565   2.501  10.661
69199SOL    HW2 9437   4.650   2.552  10.547
69200SOL     OW 9438   4.707   4.172   9.430
69200SOL    HW1 9439   4.779   4.206   9.484
69200SOL    HW2 9440   4.731   4.081   9.414
69201SOL     OW 9441   3.669  10.563   6.603
69201SOL    HW1 9442   3.761  10.570   6.577
69201SOL    HW2 9443   3.672  10.529   6.692
69202SOL     OW 9444   5.410  11.547   4.312
69202SOL    HW1 9445   5.387  11.589   4.230
69202SOL    HW2 9446   5.356  11.590   4.378
69203SOL     OW 9447  10.032  10.260  12.590
69203SOL    HW1 9448  10.007  10.352  12.602
69203SOL    HW2 9449   9.983  10.231  12.513
69204SOL     OW 9450  13.866   8.139  12.193
69204SOL    HW1 9451  13.948   8.138  12.144
69204SOL    HW2 9452  13.893   8.136  12.285
69205SOL     OW 9453   7.706  13.225   1.031
69205SOL    HW1 9454   7.719  13.170   0.954
69205SOL    HW2 9455   7.743  13.310   1.006
69206SOL     OW 9456  10.527  12.930   7.378
69206SOL    HW1 9457  10.524  12.982   7.297
69206SOL    HW2 9458  10.542  12.841   7.348
69207SOL     OW 9459   6.174   0.989   7.087
69207SOL    HW1 9460   6.164   1.072   7.134
69207SOL    HW2 9461   6.095   0.940   7.109
69208SOL     OW 9462   1.675  10.452  11.526
69208SOL    HW1 9463   1.589  10.428  11.561
69208SOL    HW2 9464   1.662  10.537  11.486
69209SOL     OW 9465   4.317  11.880   7.030
69209SOL    HW1 9466   4.380  11.935   7.076
69209SOL    HW2 9467   4.370  11.816   6.983
69210SOL     OW 9468   8.817  14.346  12.781
69210SOL    HW1 9469   8.883  14.352  12.850
69210SOL    HW2 9470   8.814  14.433  12.743
69211SOL     OW 9471   8.629  14.706   1.816
69211SOL    HW1 9472   8.615  14.720   1.722
69211SOL    HW2 9473   8.705  14.761   1.838
69212SOL     OW 9474  11.202   9.839   5.021
69212SOL    HW1 9475  11.240   9.846   5.109
69212SOL    HW2 9476  11.116   9.880   5.029
69213SOL     OW 9477  13.477   2.974  14.509
69213SOL    HW1 9478  13.569   2.947  14.516
69213SOL    HW2 9479  13.435   2.903  14.460
69214SOL     OW 9480   9.132  14.452   7.008
69214SOL    HW1 9481   9.110  14.413   7.093
69214SOL    HW2 9482   9.228  14.450   7.004
69215SOL     OW 9483   5.585   8.548   4.309
69215SOL    HW1 9484   5.563   8.596   4.390
69215SOL    HW2 9485   5.670   8.508   4.327
69216SOL     OW 9486  14.280   0.171  11.700
69216SOL    HW1 9487  14.213   0.238  11.717
69216SOL    HW2 9488  14.243   0.117  11.630
69217SOL     OW 9489  10.248   9.230  13.786
69217SOL    HW1 9490  10.265   9.159  13.849
69217SOL    HW2 9491  10.311   9.298  13.810
69218SOL     OW 9492  10.874  14.167  11.746
69218SOL    HW1 9493  10.783  14.176  11.776
69218SOL    HW2 9494  10.897  14.077  11.766
69219SOL     OW 9495  10.429   4.870  14.349
69219SOL    HW1 9496  10.482   4.925  14.290
69219SOL    HW2 9497  10.383   4.810  14.290
69220SOL     OW 9498   7.955   8.941   1.039
69220SOL    HW1 9499   7.937   8.849   1.057
69220SOL    HW2 9500   7.924   8.955   0.950
69221SOL     OW 9501   5.560   8.547   9.719
69221SOL    HW1 9502   5.528   8.637   9.708
69221SOL    HW2 9503   5.504   8.510   9.787
69222SOL     OW 9504   1.881  14.754   6.213
69222SOL    HW1 9505   1.909  14.705   6.291
69222SOL    HW2 9506   1.794  14.719   6.193
69223SOL     OW 9507   2.185  10.774   4.026
69223SOL    HW1 9508   2.259  10.775   4.087
69223SOL    HW2 9509   2.222  10.741   3.944
69224SOL     OW 9510   1.482  12.278  12.960
69224SOL    HW1 9511   1.501  12.368  12.988
69224SOL    HW2 9512   1.423  12.288  12.886
69225SOL     OW 9513   2.250   3.018   6.407
69225SOL    HW1 9514   2.320   2.954   6.408
69225SOL    HW2 9515   2.215   3.015   6.318
69226SOL     OW 9516  11.368  14.378  10.552
69226SOL    HW1 9517  11.464  14.378  10.546
69226SOL    HW2 9518  11.345  14.471  10.561
69227SOL     OW 9519   7.266   7.565  14.219
69227SOL    HW1 9520   7.312   7.534  14.140
69227SOL    HW2 9521   7.321   7.535  14.291
69228SOL     OW 9522   5.506   1.114  12.526
69228SOL    HW1 9523   5.441   1.138  12.460
69228SOL    HW2 9524   5.507   1.018  12.524
69229SOL     OW 9525   8.096   1.129   1.935
69229SOL    HW1 9526   8.168   1.182   1.970
69229SOL    HW2 9527   8.073   1.171   1.853
69230SOL     OW 9528   7.398  12.594   5.385
69230SOL    HW1 9529   7.399  12.683   5.421
69230SOL    HW2 9530   7.323  12.593   5.325
69231SOL     OW 9531   1.796   2.646  14.797
69231SOL    HW1 9532   1.881   2.689  14.798
69231SOL    HW2 9533   1.804   2.577  14.730
69232SOL     OW 9534  10.413   0.186   8.159
69232SOL    HW1 9535  10.418   0.097   8.125
69232SOL    HW2 9536  10.323   0.213   8.145
69233SOL     OW 9537   5.926   9.595   5.706
69233SOL    HW1 9538   5.917   9.522   5.644
69233SOL    HW2 9539   5.955   9.554   5.787
69234SOL     OW 9540  14.056   9.392   8.867
69234SOL    HW1 9541  14.144   9.354   8.867
69234SOL    HW2 9542  14.052   9.443   8.786
69235SOL     OW 9543   5.032  11.026   3.235
69235SOL    HW1 9544   4.972  11.059   3.301
69235SOL    HW2 9545   5.037  11.096   3.170
69236SOL     OW 9546   0.997   7.652  12.505
69236SOL    HW1 9547   1.092   7.659  12.503
69236SOL    HW2 9548   0.971   7.690  12.589
69237SOL     OW 9549  11.521   5.944   5.308
69237SOL    HW1 9550  11.492   6.031   5.283
69237SOL    HW2 9551  11.519   5.944   5.404
69238SOL     OW 9552   3.072   7.416   3.389
69238SOL    HW1 9553   3.104   7.460   3.310
69238SOL    HW2 9554   2.984   7.451   3.402
69239SOL     OW 9555   3.200   7.879   8.779
69239SOL    HW1 9556   3.144   7.822   8.726
69239SOL    HW2 9557   3.281   7.829   8.790
69240SOL     OW 9558  13.149   0.320   5.631
69240SOL    HW1 9559  13.140   0.401   5.580
69240SOL    HW2 9560  13.165   0.252   5.565
69241SOL     OW 9561   0.649   7.106   6.253
69241SOL    HW1 9562   0.648   7.198   6.281
69241SOL    HW2 9563   0.742   7.084   6.246
69242SOL     OW 9564   6.919   3.712   8.658
69242SOL    HW1 9565   6.976   3.731   8.733
69242SOL    HW2 9566   6.950   3.627   8.625
69243SOL     OW 9567   1.332   1.583  10.240
69243SOL    HW1 9568   1.387   1.563  10.316
69243SOL    HW2 9569   1.392   1.587  10.166
69244SOL     OW 9570  12.887  10.273  13.341
69244SOL    HW1 9571  12.856  10.231  13.262
69244SOL    HW2 9572  12.862  10.365  13.332
69245SOL     OW 9573  12.459  14.070   9.796
69245SOL    HW1 9574  12.545  14.035   9.821
69245SOL    HW2 9575  12.401  13.994   9.801
69246SOL     OW 9576  13.109  10.829   8.946
69246SOL    HW1 9577  13.075  10.856   9.031
69246SOL    HW2 9578  13.090  10.903   8.887
69247SOL     OW 9579  14.644   4.868   4.110
69247SOL    HW1 9580  14.711   4.936   4.104
69247SOL    HW2 9581  14.562   4.915   4.125
69248SOL     OW 9582  10.403   5.085   4.400
69248SOL    HW1 9583  10.314   5.120   4.398
69248SOL    HW2 9584  10.451   5.136   4.336
69249SOL     OW 9585   1.659   1.800   9.729
69249SOL    HW1 9586   1.628   1.725   9.779
69249SOL    HW2 9587   1.595   1.869   9.747
69250SOL     OW 9588  12.583   7.643   5.366
69250SOL    HW1 9589  12.673   7.669   5.349
69250SOL    HW2 9590  12.576   7.641   5.462
69251SOL     OW 9591   5.259  13.021   0.230
69251SOL    HW1 9592   5.204  13.039   0.153
69251SOL    HW2 9593   5.346  13.051   0.204
69252SOL     OW 9594  12.185   0.431   6.753
69252SOL    HW1 9595  12.203   0.468   6.839
69252SOL    HW2 9596  12.097   0.395   6.760
69253SOL     OW 9597  11.029  11.216  11.630
69253SOL    HW1 9598  11.020  11.300  11.586
69253SOL    HW2 9599  11.095  11.231  11.698
69254SOL     OW 9600   9.499   0.857   2.401
69254SOL    HW1 9601   9.439   0.928   2.381
69254SOL    HW2 9602   9.585   0.891   2.377
69255SOL     OW 9603   7.507  12.804   0.814
69255SOL    HW1 9604   7.575  12.817   0.748
69255SOL    HW2 9605   7.551  12.813   0.898
69256SOL     OW 9606  11.006  11.037   7.276
69256SOL    HW1 9607  11.046  11.068   7.358
69256SOL    HW2 9608  11.072  11.055   7.210
69257SOL     OW 9609  10.969  14.085   0.701
69257SOL    HW1 9610  10.889  14.033   0.706
69257SOL    HW2 9611  10.994  14.083   0.609
69258SOL     OW 9612   5.925  14.656   6.789
69258SOL    HW1 9613   5.974  14.604   6.726
69258SOL    HW2 9614   5.839  14.669   6.748
69259SOL     OW 9615  13.029   5.648   8.724
69259SOL    HW1 9616  12.958   5.613   8.778
69259SOL    HW2 9617  13.001   5.632   8.634
69260SOL     OW 9618   0.772   7.675   7.143
69260SOL    HW1 9619   0.867   7.678   7.152
69260SOL    HW2 9620   0.758   7.648   7.052
69261SOL     OW 9621   4.958   5.690  14.182
69261SOL    HW1 9622   4.916   5.736  14.109
69261SOL    HW2 9623   4.988   5.759  14.240
69262SOL     OW 9624   4.971   1.714   4.052
69262SOL    HW1 9625   5.054   1.755   4.026
69262SOL    HW2 9626   4.993   1.661   4.129
69263SOL     OW 9627   4.702   9.306   7.535
69263SOL    HW1 9628   4.680   9.397   7.513
69263SOL    HW2 9629   4.789   9.293   7.497
69264SOL     OW 9630   7.258   8.178   6.536
69264SOL    HW1 9631   7.178   8.198   6.487
69264SOL    HW2 9632   7.324   8.234   6.496
69265SOL     OW 9633  10.788   3.776   8.165
69265SOL    HW1 9634  10.882   3.756   8.165
69265SOL    HW2 9635  10.762   3.768   8.256
69266SOL     OW 9636   9.558   5.075   0.943
69266SOL    HW1 9637   9.561   4.979   0.943
69266SOL    HW2 9638   9.495   5.097   0.874
69267SOL     OW 9639  10.034   8.116   2.675
69267SOL    HW1 9640  10.001   8.029   2.698
69267SOL    HW2 9641  10.115   8.099   2.627
69268SOL     OW 9642  12.230   8.196   4.866
69268SOL    HW1 9643  12.179   8.270   4.835
69268SOL    HW2 9644  12.238   8.211   4.961
69269SOL     OW 9645  13.994  13.457   6.668
69269SOL    HW1 9646  13.983  13.520   6.596
69269SOL    HW2 9647  14.013  13.511   6.744
69270SOL     OW 9648  12.870  13.779   2.833
69270SOL    HW1 9649  12.846  13.695   2.872
69270SOL    HW2 9650  12.822  13.844   2.885
69271SOL     OW 9651  12.651  13.168   0.957
69271SOL    HW1 9652  12.712  13.094   0.957
69271SOL    HW2 9653  12.590  13.148   1.028
69272SOL     OW 9654  14.493   3.556   4.147
69272SOL    HW1 9655  14.582   3.574   4.117
69272SOL    HW2 9656  14.505   3.495   4.220
69273SOL     OW 9657  10.235  11.149   7.811
69273SOL    HW1 9658  10.250  11.092   7.886
69273SOL    HW2 9659  10.185  11.096   7.749
69274SOL     OW 9660   9.892   3.736  11.037
69274SOL    HW1 9661   9.888   3.684  11.118
69274SOL    HW2 9662   9.978   3.777  11.040
69275SOL     OW 9663   7.189   3.496   0.920
69275SOL    HW1 9664   7.165   3.505   0.828
69275SOL    HW2 9665   7.153   3.575   0.962
69276SOL     OW 9666   7.710   9.458  13.875
69276SOL    HW1 9667   7.655   9.478  13.951
69276SOL    HW2 9668   7.799   9.473  13.905
69277SOL     OW 9669   2.789   6.778   6.596
69277SOL    HW1 9670   2.720   6.711   6.594
69277SOL    HW2 9671   2.866   6.734   6.560
69278SOL     OW 9672   4.063   9.144  10.312
69278SOL    HW1 9673   4.142   9.197  10.311
69278SOL    HW2 9674   4.067   9.092  10.231
69279SOL     OW 9675  12.468   1.773  13.431
69279SOL    HW1 9676  12.484   1.724  13.513
69279SOL    HW2 9677  12.376   1.798  13.436
69280SOL     OW 9678   5.011   5.047   6.259
69280SOL    HW1 9679   5.028   4.978   6.195
69280SOL    HW2 9680   4.941   5.100   6.220
69281SOL     OW 9681  14.051   2.706   3.254
69281SOL    HW1 9682  14.049   2.769   3.326
69281SOL    HW2 9683  13.971   2.723   3.204
69282SOL     OW 9684  14.743  12.820  12.089
69282SOL    HW1 9685  14.813  12.790  12.148
69282SOL    HW2 9686  14.682  12.746  12.087
69283SOL     OW 9687   3.466   3.170  14.440
69283SOL    HW1 9688   3.527   3.137  14.374
69283SOL    HW2 9689   3.516   3.234  14.490
69284SOL     OW 9690   3.598   3.859  14.211
69284SOL    HW1 9691   3.514   3.897  14.188
69284SOL    HW2 9692   3.608   3.786  14.150
69285SOL     OW 9693  14.162   7.112   2.421
69285SOL    HW1 9694  14.105   7.130   2.346
69285SOL    HW2 9695  14.146   7.020   2.440
69286SOL     OW 9696  13.615   8.516   7.578
69286SOL    HW1 9697  13.695   8.567   7.568
69286SOL    HW2 9698  13.620   8.481   7.667
69287SOL     OW 9699   5.603   3.781  14.307
69287SOL    HW1 9700   5.522   3.741  14.275
69287SOL    HW2 9701   5.657   3.707  14.335
69288SOL     OW 9702  10.607  12.558   5.289
69288SOL    HW1 9703  10.640  12.472   5.316
69288SOL    HW2 9704  10.645  12.572   5.202
69289SOL     OW 9705  12.340  11.230   4.199
69289SOL    HW1 9706  12.271  11.294   4.217
69289SOL    HW2 9707  12.308  11.181   4.123
69290SOL     OW 9708   8.279   5.830   4.533
69290SOL    HW1 9709   8.191   5.803   4.560
69290SOL    HW2 9710   8.321   5.858   4.614
69291SOL     OW 9711  12.044   4.490   6.496
69291SOL    HW1 9712  12.083   4.536   6.421
69291SOL    HW2 9713  12.059   4.549   6.570
69292SOL     OW 9714   4.320   8.103  11.007
69292SOL    HW1 9715   4.273   8.183  11.033
69292SOL    HW2 9716   4.259   8.032  11.028
69293SOL     OW 9717  10.284   5.307  14.732
69293SOL    HW1 9718  10.255   5.360  14.806
69293SOL    HW2 9719  10.378   5.296  14.746
69294SOL     OW 9720  11.352   3.249  10.670
69294SOL    HW1 9721  11.308   3.279  10.591
69294SOL    HW2 9722  11.445   3.249  10.646
69295SOL     OW 9723   4.668  12.091   0.129
69295SOL    HW1 9724   4.678  12.010   0.180
69295SOL    HW2 9725   4.632  12.062   0.045
69296SOL     OW 9726   6.415   9.127  13.379
69296SOL    HW1 9727   6.499   9.112  13.336
69296SOL    HW2 9728   6.350   9.106  13.312
69297SOL     OW 9729   5.767  11.031   6.828
69297SOL    HW1 9730   5.846  11.032   6.774
69297SOL    HW2 9731   5.782  10.962   6.893
69298SOL     OW 9732   0.152   5.938   4.399
69298SOL    HW1 9733   0.076   5.942   4.341
69298SOL    HW2 9734   0.121   5.978   4.481
69299SOL     OW 9735  10.960  11.726   6.750
69299SOL    HW1 9736  11.001  11.720   6.664
69299SOL    HW2 9737  11.031  11.754   6.809
69300SOL     OW 9738   1.993  11.159   2.950
69300SOL    HW1 9739   2.011  11.097   2.878
69300SOL    HW2 9740   1.924  11.216   2.916
69301SOL     OW 9741   1.637   7.452  13.893
69301SOL    HW1 9742   1.592   7.503  13.826
69301SOL    HW2 9743   1.655   7.368  13.850
69302SOL     OW 9744   7.086   8.869  12.662
69302SOL    HW1 9745   6.997   8.851  12.630
69302SOL    HW2 9746   7.134   8.788  12.646
69303SOL     OW 9747  10.421   2.117   7.471
69303SOL    HW1 9748  10.501   2.094   7.424
69303SOL    HW2 9749  10.354   2.121   7.403
69304SOL     OW 9750  10.450   3.726   3.971
69304SOL    HW1 9751  10.501   3.792   3.923
69304SOL    HW2 9752  10.373   3.773   4.002
69305SOL     OW 9753  14.221  14.427   8.027
69305SOL    HW1 9754  14.234  14.373   8.105
69305SOL    HW2 9755  14.260  14.511   8.049
69306SOL     OW 9756   8.399   9.825   6.852
69306SOL    HW1 9757   8.417   9.887   6.781
69306SOL    HW2 9758   8.471   9.838   6.914
69307SOL     OW 9759   5.919  13.438   5.775
69307SOL    HW1 9760   5.923  13.348   5.744
69307SOL    HW2 9761   6.011  13.464   5.784
69308SOL     OW 9762   9.962  14.243   4.008
69308SOL    HW1 9763   9.880  14.290   4.025
69308SOL    HW2 9764   9.947  14.156   4.045
69309SOL     OW 9765   8.779  14.588  12.642
69309SOL    HW1 9766   8.783  14.524  12.571
69309SOL    HW2 9767   8.869  14.619  12.652
69310SOL     OW 9768   8.929   1.330   6.894
69310SOL    HW1 9769   8.862   1.321   6.961
69310SOL    HW2 9770   9.004   1.281   6.927
69311SOL     OW 9771   8.313   2.048  12.642
69311SOL    HW1 9772   8.378   2.038  12.572
69311SOL    HW2 9773   8.310   1.962  12.684
69312SOL     OW 9774   4.893  14.497  12.660
69312SOL    HW1 9775   4.847  14.477  12.578
69312SOL    HW2 9776   4.900  14.413  12.705
69313SOL     OW 9777   9.629   4.258  10.648
69313SOL    HW1 9778   9.569   4.263  10.722
69313SOL    HW2 9779   9.703   4.314  10.673
69314SOL     OW 9780   4.922   6.254  11.173
69314SOL    HW1 9781   4.852   6.256  11.239
69314SOL    HW2 9782   4.985   6.319  11.203
69315SOL     OW 9783   6.555  10.420   1.674
69315SOL    HW1 9784   6.566  10.381   1.588
69315SOL    HW2 9785   6.540  10.513   1.656
69316SOL     OW 9786  10.754   6.521   0.067
69316SOL    HW1 9787  10.813   6.558   0.001
69316SOL    HW2 9788  10.679   6.489   0.016
69317SOL     OW 9789   7.244  11.838  13.855
69317SOL    HW1 9790   7.211  11.817  13.942
69317SOL    HW2 9791   7.330  11.795  13.850
69318SOL     OW 9792   7.682  12.134   7.730
69318SOL    HW1 9793   7.675  12.144   7.825
69318SOL    HW2 9794   7.756  12.190   7.705
69319SOL     OW 9795   7.963   3.076   0.615
69319SOL    HW1 9796   8.038   3.131   0.637
69319SOL    HW2 9797   7.990   2.988   0.641
69320SOL     OW 9798   9.196  13.642  13.105
69320SOL    HW1 9799   9.165  13.724  13.067
69320SOL    HW2 9800   9.165  13.574  13.045
69321SOL     OW 9801  11.102   3.299  12.306
69321SOL    HW1 9802  11.138   3.378  12.266
69321SOL    HW2 9803  11.027   3.330  12.357
69322SOL     OW 9804   3.365   1.008  14.864
69322SOL    HW1 9805   3.446   1.059  14.859
69322SOL    HW2 9806   3.309   1.058   0.045
69323SOL     OW 9807   8.828   9.235   7.796
69323SOL    HW1 9808   8.848   9.329   7.800
69323SOL    HW2 9809   8.733   9.231   7.784
69324SOL     OW 9810   0.869   9.714   3.581
69324SOL    HW1 9811   0.927   9.782   3.615
69324SOL    HW2 9812   0.883   9.715   3.487
69325SOL     OW 9813   4.018  14.537   8.861
69325SOL    HW1 9814   3.969  14.478   8.918
69325SOL    HW2 9815   3.971  14.536   8.778
69326SOL     OW 9816   2.506  13.489  10.983
69326SOL    HW1 9817   2.591  13.475  11.024
69326SOL    HW2 9818   2.453  13.531  11.051
69327SOL     OW 9819   0.776   1.172  10.051
69327SOL    HW1 9820   0.804   1.252  10.095
69327SOL    HW2 9821   0.709   1.135  10.108
69328SOL     OW 9822  12.679   7.583  14.394
69328SOL    HW1 9823  12.591   7.544  14.397
69328SOL    HW2 9824  12.738   7.509  14.409
69329SOL     OW 9825   9.271  11.646   9.122
69329SOL    HW1 9826   9.257  11.707   9.049
69329SOL    HW2 9827   9.285  11.561   9.081
69330SOL     OW 9828   6.272   4.428   3.664
69330SOL    HW1 9829   6.347   4.372   3.644
69330SOL    HW2 9830   6.305   4.517   3.654
69331SOL     OW 9831   2.783  12.546   6.858
69331SOL    HW1 9832   2.871  12.545   6.894
69331SOL    HW2 9833   2.794  12.545   6.763
69332SOL     OW 9834   7.386   9.953   8.873
69332SOL    HW1 9835   7.307   9.899   8.865
69332SOL    HW2 9836   7.420   9.931   8.960
69333SOL     OW 9837   4.641   3.697   2.090
69333SOL    HW1 9838   4.692   3.666   2.165
69333SOL    HW2 9839   4.679   3.783   2.070
69334SOL     OW 9840   2.157   9.031   0.899
69334SOL    HW1 9841   2.155   9.122   0.871
69334SOL    HW2 9842   2.079   8.992   0.860
69335SOL     OW 9843  12.231   3.387  11.182
69335SOL    HW1 9844  12.303   3.352  11.129
69335SOL    HW2 9845  12.256   3.477  11.200
69336SOL     OW 9846   9.386  11.992  10.883
69336SOL    HW1 9847   9.443  12.004  10.807
69336SOL    HW2 9848   9.299  11.977  10.845
69337SOL     OW 9849  12.014   7.680  11.979
69337SOL    HW1 9850  12.092   7.643  11.937
69337SOL    HW2 9851  12.015   7.772  11.952
69338SOL     OW 9852   2.644  13.246  10.390
69338SOL    HW1 9853   2.737  13.269  10.396
69338SOL    HW2 9854   2.643  13.155  10.360
69339SOL     OW 9855   2.219   8.494   3.495
69339SOL    HW1 9856   2.246   8.404   3.476
69339SOL    HW2 9857   2.257   8.546   3.424
69340SOL     OW 9858   0.385   6.131   4.674
69340SOL    HW1 9859   0.453   6.183   4.718
69340SOL    HW2 9860   0.306   6.186   4.678
69341SOL     OW 9861  13.612   7.478   0.172
69341SOL    HW1 9862  13.557   7.401   0.187
69341SOL    HW2 9863  13.608   7.526   0.255
69342SOL     OW 9864  10.779   1.130   3.566
69342SOL    HW1 9865  10.867   1.149   3.533
69342SOL    HW2 9866  10.782   1.037   3.591
69343SOL     OW 9867   5.296   0.980   2.678
69343SOL    HW1 9868   5.334   0.893   2.666
69343SOL    HW2 9869   5.233   0.969   2.750
69344SOL     OW 9870  10.307   1.557   0.665
69344SOL    HW1 9871  10.311   1.644   0.704
69344SOL    HW2 9872  10.344   1.499   0.732
69345SOL     OW 9873  10.214   5.055   0.214
69345SOL    HW1 9874  10.292   5.076   0.163
69345SOL    HW2 9875  10.143   5.099   0.168
69346SOL     OW 9876   4.205   4.271   0.910
69346SOL    HW1 9877   4.187   4.362   0.889
69346SOL    HW2 9878   4.193   4.224   0.827
69347SOL     OW 9879   6.331   2.535   6.757
69347SOL    HW1 9880   6.298   2.471   6.693
69347SOL    HW2 9881   6.312   2.497   6.842
69348SOL     OW 9882   2.448   5.072   4.259
69348SOL    HW1 9883   2.540   5.047   4.260
69348SOL    HW2 9884   2.444   5.149   4.203
69349SOL     OW 9885   9.932   7.713   5.004
69349SOL    HW1 9886  10.011   7.670   5.038
69349SOL    HW2 9887   9.938   7.705   4.909
69350SOL     OW 9888   9.889  11.132   3.888
69350SOL    HW1 9889   9.809  11.105   3.935
69350SOL    HW2 9890   9.945  11.054   3.892
69351SOL     OW 9891  12.737   1.089   9.622
69351SOL    HW1 9892  12.753   1.174   9.663
69351SOL    HW2 9893  12.824   1.059   9.595
69352SOL     OW 9894   6.356   1.439  14.357
69352SOL    HW1 9895   6.265   1.415  14.375
69352SOL    HW2 9896   6.405   1.360  14.378
69353SOL     OW 9897   8.562   6.577  11.084
69353SOL    HW1 9898   8.495   6.534  11.031
69353SOL    HW2 9899   8.576   6.661  11.042
69354SOL     OW 9900   3.412  10.835  12.920
69354SOL    HW1 9901   3.493  10.787  12.939
69354SOL    HW2 9902   3.354  10.815  12.993
69355SOL     OW 9903   4.289  14.277  14.333
69355SOL    HW1 9904   4.225  14.340  14.301
69355SOL    HW2 9905   4.342  14.255  14.256
69356SOL     OW 9906  11.494  10.669   9.583
69356SOL    HW1 9907  11.499  10.743   9.643
69356SOL    HW2 9908  11.401  10.658   9.565
69357SOL     OW 9909   4.392   4.444  11.151
69357SOL    HW1 9910   4.378   4.526  11.199
69357SOL    HW2 9911   4.386   4.376  11.218
69358SOL     OW 9912   8.923   8.132   6.117
69358SOL    HW1 9913   8.957   8.065   6.177
69358SOL    HW2 9914   8.990   8.201   6.119
69359SOL     OW 9915   1.552   2.102   0.289
69359SOL    HW1 9916   1.628   2.074   0.237
69359SOL    HW2 9917   1.478   2.054   0.252
69360SOL     OW 9918  14.360   1.483   2.031
69360SOL    HW1 9919  14.349   1.573   2.003
69360SOL    HW2 9920  14.402   1.440   1.956
69361SOL     OW 9921   7.146  11.807   5.109
69361SOL    HW1 9922   7.200  11.837   5.183
69361SOL    HW2 9923   7.099  11.731   5.143
69362SOL     OW 9924  13.394   0.325   9.317
69362SOL    HW1 9925  13.409   0.295   9.406
69362SOL    HW2 9926  13.358   0.413   9.327
69363SOL     OW 9927   1.491  11.388   3.990
69363SOL    HW1 9928   1.547  11.310   3.984
69363SOL    HW2 9929   1.410  11.363   3.945
69364SOL     OW 9930   1.888   9.249   3.294
69364SOL    HW1 9931   1.981   9.247   3.273
69364SOL    HW2 9932   1.878   9.323   3.354
69365SOL     OW 9933   8.929   2.496  13.713
69365SOL    HW1 9934   8.879   2.479  13.634
69365SOL    HW2 9935   8.863   2.507  13.782
69366SOL     OW 9936   4.330   4.332   7.487
69366SOL    HW1 9937   4.352   4.252   7.439
69366SOL    HW2 9938   4.413   4.359   7.527
69367SOL     OW 9939  11.069   2.249   9.781
69367SOL    HW1 9940  11.062   2.312   9.853
69367SOL    HW2 9941  10.992   2.267   9.726
69368SOL     OW 9942  14.165   9.702   6.342
69368SOL    HW1 9943  14.238   9.763   6.338
69368SOL    HW2 9944  14.117   9.716   6.260
69369SOL     OW 9945   6.899  13.557   0.007
69369SOL    HW1 9946   6.950  13.638   0.012
69369SOL    HW2 9947   6.943  13.506  14.818
69370SOL     OW 9948   2.873   7.920  12.455
69370SOL    HW1 9949   2.968   7.918  12.461
69370SOL    HW2 9950   2.843   7.873  12.533
69371SOL     OW 9951   3.369   8.939  10.623
69371SOL    HW1 9952   3.455   8.965  10.657
69371SOL    HW2 9953   3.364   8.979  10.536
69372SOL     OW 9954   4.509   8.404  10.389
69372SOL    HW1 9955   4.570   8.335  10.415
69372SOL    HW2 9956   4.549   8.443  10.311
69373SOL     OW 9957   1.057  14.596   6.491
69373SOL    HW1 9958   0.993  14.546   6.440
69373SOL    HW2 9959   1.074  14.540   6.567
69374SOL     OW 9960   6.984  12.071   0.310
69374SOL    HW1 9961   6.914  12.015   0.345
69374SOL    HW2 9962   7.054  12.064   0.375
69375SOL     OW 9963   6.242   7.467  11.150
69375SOL    HW1 9964   6.329   7.490  11.181
69375SOL    HW2 9965   6.257   7.406  11.078
69376SOL     OW 9966   7.621   5.620  10.539
69376SOL    HW1 9967   7.543   5.587  10.584
69376SOL    HW2 9968   7.611   5.591  10.449
69377SOL     OW 9969   3.275   4.549   6.185
69377SOL    HW1 9970   3.189   4.513   6.205
69377SOL    HW2 9971   3.328   4.473   6.161
69378SOL     OW 9972  14.232   8.728   9.869
69378SOL    HW1 9973  14.187   8.807   9.839
69378SOL    HW2 9974  14.225   8.731   9.964
69379SOL     OW 9975  13.642  10.759   5.530
69379SOL    HW1 9976  13.592  10.776   5.449
69379SOL    HW2 9977  13.668  10.847   5.560
69380SOL     OW 9978   4.816   0.185  12.091
69380SOL    HW1 9979   4.749   0.251  12.108
69380SOL    HW2 9980   4.781   0.134  12.018
69381SOL     OW 9981  11.645   2.547   7.453
69381SOL    HW1 9982  11.724   2.561   7.401
69381SOL    HW2 9983  11.649   2.454   7.476
69382SOL     OW 9984   2.200  13.850   4.329
69382SOL    HW1 9985   2.274  13.811   4.282
69382SOL    HW2 9986   2.133  13.781   4.330
69383SOL     OW 9987   2.932   3.154   1.592
69383SOL    HW1 9988   2.905   3.130   1.681
69383SOL    HW2 9989   2.856   3.135   1.538
69384SOL     OW 9990  10.359   2.426   8.078
69384SOL    HW1 9991  10.419   2.494   8.109
69384SOL    HW2 9992  10.407   2.344   8.092
69385SOL     OW 9993   8.190   3.241   8.219
69385SOL    HW1 9994   8.226   3.310   8.163
69385SOL    HW2 9995   8.127   3.286   8.276
69386SOL     OW 9996  11.151  13.483  10.329
69386SOL    HW1 9997  11.059  13.455  10.324
69386SOL    HW2 9998  11.197  13.407  10.365
69387SOL     OW 9999   9.425  14.708   1.658
69387SOL    HW110000   9.340  14.743   1.629
69387SOL    HW210001   9.489  14.773   1.628
69388SOL     OW10002  14.113   4.120   7.446
69388SOL    HW110003  14.066   4.056   7.499
69388SOL    HW210004  14.174   4.068   7.394
69389SOL     OW10005   0.785   2.964   3.978
69389SOL    HW110006   0.853   3.032   3.983
69389SOL    HW210007   0.752   2.956   4.067
69390SOL     OW10008   7.793   2.745   9.784
69390SOL    HW110009   7.868   2.704   9.741
69390SOL    HW210010   7.752   2.673   9.832
69391SOL     OW10011   9.163   7.375   4.251
69391SOL    HW110012   9.108   7.398   4.176
69391SOL    HW210013   9.163   7.453   4.307
69392SOL     OW10014  11.008  11.588  13.215
69392SOL    HW110015  11.039  11.613  13.302
69392SOL    HW210016  11.072  11.525  13.184
69393SOL     OW10017   5.423  13.887  14.315
69393SOL    HW110018   5.496  13.885  14.378
69393SOL    HW210019   5.402  13.980  14.307
69394SOL     OW10020  13.465   6.686   3.248
69394SOL    HW110021  13.485   6.777   3.225
69394SOL    HW210022  13.436   6.647   3.165
69395SOL     OW10023   3.970  11.919  14.805
69395SOL    HW110024   4.056  11.944  14.840
69395SOL    HW210025   3.914  11.909   0.003
69396SOL     OW10026  11.623   2.236   3.614
69396SOL    HW110027  11.550   2.263   3.559
69396SOL    HW210028  11.601   2.146   3.640
69397SOL     OW10029   2.447  10.262  13.724
69397SOL    HW110030   2.542  10.266  13.713
69397SOL    HW210031   2.415  10.347  13.694
69398SOL     OW10032   4.371   3.438   5.463
69398SOL    HW110033   4.368   3.530   5.437
69398SOL    HW210034   4.344   3.439   5.555
69399SOL     OW10035   1.652   1.855   2.424
69399SOL    HW110036   1.730   1.799   2.420
69399SOL    HW210037   1.685   1.943   2.406
69400SOL     OW10038   1.011  10.687  10.329
69400SOL    HW110039   1.052  10.671  10.414
69400SOL    HW210040   1.027  10.606  10.280
69401SOL     OW10041   8.771  12.618  12.857
69401SOL    HW110042   8.810  12.571  12.931
69401SOL    HW210043   8.732  12.696  12.897
69402SOL     OW10044   6.386  12.835  12.475
69402SOL    HW110045   6.352  12.921  12.499
69402SOL    HW210046   6.315  12.794  12.426
69403SOL     OW10047  11.696   1.166   4.640
69403SOL    HW110048  11.773   1.182   4.694
69403SOL    HW210049  11.720   1.198   4.553
69404SOL     OW10050  12.321   3.256  12.219
69404SOL    HW110051  12.355   3.228  12.304
69404SOL    HW210052  12.317   3.175  12.167
69405SOL     OW10053   6.783   3.668  13.356
69405SOL    HW110054   6.699   3.677  13.402
69405SOL    HW210055   6.778   3.582  13.314
69406SOL     OW10056   4.880   2.609  14.085
69406SOL    HW110057   4.792   2.616  14.122
69406SOL    HW210058   4.899   2.696  14.050
69407SOL     OW10059   9.403   7.385   2.286
69407SOL    HW110060   9.480   7.328   2.283
69407SOL    HW210061   9.371   7.379   2.376
69408SOL     OW10062  11.819  10.376  11.835
69408SOL    HW110063  11.890  10.428  11.797
69408SOL    HW210064  11.837  10.286  11.805
69409SOL     OW10065   9.634  13.538   9.406
69409SOL    HW110066   9.598  13.519   9.320
69409SOL    HW210067   9.728  13.547   9.390
69410SOL     OW10068  13.565   1.628  12.490
69410SOL    HW110069  13.657   1.608  12.510
69410SOL    HW210070  13.552   1.594  12.401
69411SOL     OW10071   4.989  13.906  10.218
69411SOL    HW110072   5.051  13.950  10.160
69411SOL    HW210073   5.012  13.813  10.211
69412SOL     OW10074   6.251   7.675  13.539
69412SOL    HW110075   6.328   7.728  13.520
69412SOL    HW210076   6.266   7.593  13.493
69413SOL     OW10077  11.961   1.510  10.140
69413SOL    HW110078  11.873   1.488  10.173
69413SOL    HW210079  11.946   1.551  10.055
69414SOL     OW10080   1.655   3.977  13.439
69414SOL    HW110081   1.730   4.027  13.471
69414SOL    HW210082   1.692   3.892  13.413
69415SOL     OW10083   5.297  12.050  14.282
69415SOL    HW110084   5.349  12.114  14.330
69415SOL    HW210085   5.207  12.082  14.290
69416SOL     OW10086   5.718   7.273  11.832
69416SOL    HW110087   5.758   7.358  11.813
69416SOL    HW210088   5.789   7.219  11.865
69417SOL     OW10089  10.807   7.713   0.655
69417SOL    HW110090  10.856   7.725   0.736
69417SOL    HW210091  10.871   7.729   0.585
69418SOL     OW10092  10.986  13.404  13.343
69418SOL    HW110093  10.984  13.474  13.278
69418SOL    HW210094  10.895  13.374  13.348
69419SOL     OW10095  10.623   5.905   7.393
69419SOL    HW110096  10.563   5.980   7.397
69419SOL    HW210097  10.673   5.911   7.475
69420SOL     OW10098   5.372   1.867  14.217
69420SOL    HW110099   5.304   1.828  14.162
69420SOL    HW210100   5.414   1.793  14.260
69421SOL     OW10101   1.103  12.430  10.730
69421SOL    HW110102   1.172  12.485  10.767
69421SOL    HW210103   1.079  12.474  10.648
69422SOL     OW10104   9.909   1.439   2.690
69422SOL    HW110105   9.976   1.406   2.751
69422SOL    HW210106   9.899   1.531   2.712
69423SOL     OW10107  13.191   5.965   6.585
69423SOL    HW110108  13.181   5.972   6.490
69423SOL    HW210109  13.112   5.919   6.614
69424SOL     OW10110   4.776   1.949   6.416
69424SOL    HW110111   4.785   2.044   6.407
69424SOL    HW210112   4.699   1.928   6.363
69425SOL     OW10113   0.989   0.973  10.938
69425SOL    HW110114   1.073   0.970  10.983
69425SOL    HW210115   0.967   1.067  10.936
69426SOL     OW10116  11.318  14.301  13.747
69426SOL    HW110117  11.229  14.323  13.775
69426SOL    HW210118  11.327  14.343  13.661
69427SOL     OW10119   6.261  13.935   9.051
69427SOL    HW110120   6.329  13.962   9.113
69427SOL    HW210121   6.237  13.847   9.079
69428SOL     OW10122  12.574  13.022  11.318
69428SOL    HW110123  12.482  13.049  11.320
69428SOL    HW210124  12.602  13.039  11.228
69429SOL     OW10125  14.433  13.475   2.112
69429SOL    HW110126  14.482  13.426   2.046
69429SOL    HW210127  14.491  13.478   2.188
69430SOL     OW10128  12.410  12.640   7.616
69430SOL    HW110129  12.322  12.653   7.652
69430SOL    HW210130  12.428  12.720   7.567
69431SOL     OW10131   0.628   5.955   6.749
69431SOL    HW110132   0.569   5.882   6.729
69431SOL    HW210133   0.622   6.011   6.671
69432SOL     OW10134  14.157   0.332   3.339
69432SOL    HW110135  14.208   0.413   3.334
69432SOL    HW210136  14.220   0.267   3.371
69433SOL     OW10137  14.063  10.390  13.481
69433SOL    HW110138  14.022  10.315  13.524
69433SOL    HW210139  14.152  10.362  13.462
69434SOL     OW10140   7.827   1.058   8.599
69434SOL    HW110141   7.816   1.093   8.511
69434SOL    HW210142   7.823   0.963   8.587
69435SOL     OW10143   8.580   0.958  11.857
69435SOL    HW110144   8.567   1.021  11.786
69435SOL    HW210145   8.508   0.976  11.918
69436SOL     OW10146   1.459   7.159   1.719
69436SOL    HW110147   1.409   7.210   1.783
69436SOL    HW210148   1.400   7.088   1.693
69437SOL     OW10149  12.203  11.278   5.546
69437SOL    HW110150  12.193  11.371   5.568
69437SOL    HW210151  12.230  11.279   5.454
69438SOL     OW10152  10.640   5.270   6.457
69438SOL    HW110153  10.674   5.325   6.528
69438SOL    HW210154  10.554   5.307   6.438
69439SOL     OW10155   1.387  12.943   7.414
69439SOL    HW110156   1.408  13.019   7.468
69439SOL    HW210157   1.316  12.973   7.357
69440SOL     OW10158   0.616  10.319  10.867
69440SOL    HW110159   0.634  10.405  10.830
69440SOL    HW210160   0.560  10.276  10.803
69441SOL     OW10161   1.740  10.269   9.643
69441SOL    HW110162   1.757  10.233   9.556
69441SOL    HW210163   1.759  10.197   9.703
69442SOL     OW10164   4.537   0.983  12.532
69442SOL    HW110165   4.527   1.070  12.571
69442SOL    HW210166   4.447   0.952  12.521
69443SOL     OW10167   9.477   4.615  10.988
69443SOL    HW110168   9.549   4.672  11.015
69443SOL    HW210169   9.416   4.674  10.944
69444SOL     OW10170  12.079  13.338   1.949
69444SOL    HW110171  12.118  13.305   1.868
69444SOL    HW210172  11.988  13.355   1.928
69445SOL     OW10173  14.100  13.827   9.507
69445SOL    HW110174  14.169  13.891   9.492
69445SOL    HW210175  14.113  13.798   9.598
69446SOL     OW10176   0.529  11.524   0.083
69446SOL    HW110177   0.604  11.563   0.039
69446SOL    HW210178   0.512  11.581   0.157
69447SOL     OW10179   9.233  14.024   4.020
69447SOL    HW110180   9.191  14.081   3.956
69447SOL    HW210181   9.160  13.982   4.066
69448SOL     OW10182  11.740   1.615   6.073
69448SOL    HW110183  11.705   1.639   6.158
69448SOL    HW210184  11.824   1.573   6.092
69449SOL     OW10185   4.545   8.291   0.412
69449SOL    HW110186   4.504   8.210   0.382
69449SOL    HW210187   4.638   8.279   0.395
69450SOL     OW10188   1.062   9.301  13.776
69450SOL    HW110189   1.038   9.307  13.869
69450SOL    HW210190   1.139   9.357  13.767
69451SOL     OW10191   6.855  12.359  11.409
69451SOL    HW110192   6.867  12.303  11.486
69451SOL    HW210193   6.939  12.354  11.363
69452SOL     OW10194   1.485  11.076   2.077
69452SOL    HW110195   1.508  11.035   2.160
69452SOL    HW210196   1.412  11.134   2.098
69453SOL     OW10197   0.827   9.218   2.451
69453SOL    HW110198   0.774   9.155   2.501
69453SOL    HW210199   0.916   9.203   2.481
69454SOL     OW10200  12.318   7.670   1.734
69454SOL    HW110201  12.332   7.748   1.788
69454SOL    HW210202  12.404   7.652   1.696
69455SOL     OW10203  13.033  13.172  14.426
69455SOL    HW110204  13.012  13.247  14.370
69455SOL    HW210205  12.986  13.098  14.386
69456SOL     OW10206   0.917   2.976  12.769
69456SOL    HW110207   0.887   3.003  12.682
69456SOL    HW210208   1.010   2.957  12.757
69457SOL     OW10209  13.150  13.286   1.982
69457SOL    HW110210  13.173  13.354   2.046
69457SOL    HW210211  13.158  13.204   2.031
69458SOL     OW10212   3.919   4.425   1.590
69458SOL    HW110213   3.875   4.476   1.658
69458SOL    HW210214   3.948   4.491   1.527
69459SOL     OW10215  13.229   4.988   0.172
69459SOL    HW110216  13.202   4.913   0.118
69459SOL    HW210217  13.324   4.981   0.177
69460SOL     OW10218   7.062   5.496   8.358
69460SOL    HW110219   7.022   5.414   8.329
69460SOL    HW210220   7.132   5.469   8.417
69461SOL     OW10221   4.186  10.777   9.669
69461SOL    HW110222   4.195  10.847   9.605
69461SOL    HW210223   4.226  10.812   9.748
69462SOL     OW10224   8.038   4.961   3.307
69462SOL    HW110225   8.045   4.940   3.214
69462SOL    HW210226   8.030   4.876   3.351
69463SOL     OW10227   7.518   1.951  10.601
69463SOL    HW110228   7.611   1.966  10.583
69463SOL    HW210229   7.512   1.856  10.611
69464SOL     OW10230  10.230  10.457   5.415
69464SOL    HW110231  10.287  10.399   5.466
69464SOL    HW210232  10.266  10.455   5.327
69465SOL     OW10233   7.064   5.926   5.484
69465SOL    HW110234   7.143   5.955   5.529
69465SOL    HW210235   6.994   5.933   5.549
69466SOL     OW10236   8.309  14.567   1.018
69466SOL    HW110237   8.399  14.592   1.042
69466SOL    HW210238   8.282  14.506   1.087
69467SOL     OW10239   2.897   9.359   4.943
69467SOL    HW110240   2.974   9.392   4.988
69467SOL    HW210241   2.838   9.435   4.939
69468SOL     OW10242   6.056   4.834   5.300
69468SOL    HW110243   5.987   4.814   5.363
69468SOL    HW210244   6.029   4.917   5.261
69469SOL     OW10245   7.125   2.650  13.551
69469SOL    HW110246   7.071   2.723  13.519
69469SOL    HW210247   7.104   2.577  13.493
69470SOL     OW10248   4.179  11.478   5.083
69470SOL    HW110249   4.174  11.493   5.177
69470SOL    HW210250   4.091  11.499   5.050
69471SOL     OW10251   2.533   8.553   5.200
69471SOL    HW110252   2.464   8.619   5.203
69471SOL    HW210253   2.488   8.471   5.221
69472SOL     OW10254   2.810  12.884   7.202
69472SOL    HW110255   2.900  12.883   7.235
69472SOL    HW210256   2.786  12.792   7.197
69473SOL     OW10257   7.390   8.017  10.003
69473SOL    HW110258   7.399   7.974   9.918
69473SOL    HW210259   7.298   8.043  10.008
69474SOL     OW10260  13.980   2.167   3.816
69474SOL    HW110261  13.902   2.150   3.868
69474SOL    HW210262  14.047   2.111   3.855
69475SOL     OW10263  12.686  13.211  13.037
69475SOL    HW110264  12.761  13.219  13.095
69475SOL    HW210265  12.632  13.142  13.076
69476SOL     OW10266  13.603   6.447   5.094
69476SOL    HW110267  13.665   6.499   5.147
69476SOL    HW210268  13.659   6.403   5.030
69477SOL     OW10269   2.997   6.904  13.815
69477SOL    HW110270   2.934   6.965  13.854
69477SOL    HW210271   2.949   6.861  13.745
69478SOL     OW10272  13.438   4.203   3.980
69478SOL    HW110273  13.435   4.127   4.039
69478SOL    HW210274  13.411   4.277   4.034
69479SOL     OW10275  14.075   8.240   4.804
69479SOL    HW110276  14.003   8.287   4.762
69479SOL    HW210277  14.150   8.254   4.746
69480SOL     OW10278   5.902   0.204   2.702
69480SOL    HW110279   5.843   0.172   2.633
69480SOL    HW210280   5.980   0.234   2.655
69481SOL     OW10281   1.433   1.145   5.258
69481SOL    HW110282   1.409   1.084   5.327
69481SOL    HW210283   1.433   1.093   5.177
69482SOL     OW10284   6.686   1.130   9.118
69482SOL    HW110285   6.712   1.064   9.054
69482SOL    HW210286   6.769   1.165   9.150
69483SOL     OW10287   8.852  10.956  13.921
69483SOL    HW110288   8.916  10.906  13.972
69483SOL    HW210289   8.809  10.891  13.866
69484SOL     OW10290   0.817  11.912  14.730
69484SOL    HW110291   0.755  11.963  14.677
69484SOL    HW210292   0.835  11.969  14.805
69485SOL     OW10293   7.498   7.737  13.919
69485SOL    HW110294   7.461   7.652  13.942
69485SOL    HW210295   7.573   7.748  13.977
69486SOL     OW10296   7.551   9.569  13.465
69486SOL    HW110297   7.466   9.537  13.495
69486SOL    HW210298   7.539   9.664  13.456
69487SOL     OW10299   4.226   5.930   7.645
69487SOL    HW110300   4.249   5.838   7.628
69487SOL    HW210301   4.168   5.953   7.573
69488SOL     OW10302  12.549   8.282   5.830
69488SOL    HW110303  12.453   8.279   5.831
69488SOL    HW210304  12.571   8.355   5.889
69489SOL     OW10305   9.481   8.756  13.252
69489SOL    HW110306   9.462   8.718  13.338
69489SOL    HW210307   9.557   8.708  13.221
69490SOL     OW10308   7.364  11.326   2.864
69490SOL    HW110309   7.432  11.379   2.822
69490SOL    HW210310   7.412  11.254   2.904
69491SOL     OW10311  11.498   2.063   5.667
69491SOL    HW110312  11.549   2.038   5.744
69491SOL    HW210313  11.549   2.133   5.627
69492SOL     OW10314   9.509   1.433   1.803
69492SOL    HW110315   9.598   1.460   1.826
69492SOL    HW210316   9.511   1.422   1.708
69493SOL     OW10317  13.211  14.108   9.074
69493SOL    HW110318  13.131  14.108   9.127
69493SOL    HW210319  13.276  14.154   9.127
69494SOL     OW10320  13.859   1.074   7.150
69494SOL    HW110321  13.820   1.009   7.208
69494SOL    HW210322  13.887   1.144   7.209
69495SOL     OW10323   2.023   1.099   7.439
69495SOL    HW110324   1.980   1.178   7.405
69495SOL    HW210325   1.951   1.044   7.470
69496SOL     OW10326   3.857   7.235   7.084
69496SOL    HW110327   3.831   7.177   7.155
69496SOL    HW210328   3.886   7.177   7.014
69497SOL     OW10329   7.451  14.171   5.018
69497SOL    HW110330   7.400  14.129   4.949
69497SOL    HW210331   7.537  14.185   4.978
69498SOL     OW10332   6.109  11.822   4.376
69498SOL    HW110333   6.044  11.871   4.426
69498SOL    HW210334   6.156  11.889   4.326
69499SOL     OW10335  12.273   3.158   4.361
69499SOL    HW110336  12.307   3.225   4.302
69499SOL    HW210337  12.208   3.205   4.414
69500SOL     OW10338   3.665  12.263  14.238
69500SOL    HW110339   3.655  12.297  14.327
69500SOL    HW210340   3.610  12.185  14.236
69501SOL     OW10341  11.725  10.315   9.476
69501SOL    HW110342  11.684  10.319   9.390
69501SOL    HW210343  11.733  10.407   9.503
69502SOL     OW10344   5.460  14.063   8.714
69502SOL    HW110345   5.396  14.057   8.785
69502SOL    HW210346   5.493  14.153   8.718
69503SOL     OW10347   2.812   9.680   6.187
69503SOL    HW110348   2.872   9.648   6.119
69503SOL    HW210349   2.829   9.774   6.191
69504SOL     OW10350   6.317   5.580   2.031
69504SOL    HW110351   6.342   5.633   1.956
69504SOL    HW210352   6.336   5.490   2.004
69505SOL     OW10353   1.334   4.611   5.775
69505SOL    HW110354   1.338   4.561   5.694
69505SOL    HW210355   1.261   4.573   5.824
69506SOL     OW10356  12.031   0.951   0.735
69506SOL    HW110357  11.940   0.978   0.733
69506SOL    HW210358  12.039   0.885   0.666
69507SOL     OW10359   5.455  11.239   7.674
69507SOL    HW110360   5.391  11.228   7.745
69507SOL    HW210361   5.402  11.247   7.595
69508SOL     OW10362  12.559   8.341  14.610
69508SOL    HW110363  12.579   8.247  14.605
69508SOL    HW210364  12.504   8.349  14.688
69509SOL     OW10365  11.511  12.842   5.920
69509SOL    HW110366  11.591  12.794   5.897
69509SOL    HW210367  11.477  12.872   5.836
69510SOL     OW10368  11.591   0.544   9.505
69510SOL    HW110369  11.666   0.548   9.447
69510SOL    HW210370  11.516   0.567   9.450
69511SOL     OW10371  12.127   7.506   4.224
69511SOL    HW110372  12.043   7.469   4.197
69511SOL    HW210373  12.115   7.529   4.316
69512SOL     OW10374   1.875  11.686  11.118
69512SOL    HW110375   1.867  11.608  11.065
69512SOL    HW210376   1.818  11.750  11.075
69513SOL     OW10377   0.560   3.986   6.579
69513SOL    HW110378   0.502   3.995   6.503
69513SOL    HW210379   0.648   3.995   6.543
69514SOL     OW10380  14.288  11.337   4.833
69514SOL    HW110381  14.309  11.258   4.783
69514SOL    HW210382  14.370  11.361   4.875
69515SOL     OW10383   0.868   4.143  13.071
69515SOL    HW110384   0.881   4.063  13.019
69515SOL    HW210385   0.947   4.194  13.056
69516SOL     OW10386   6.455  13.026  14.209
69516SOL    HW110387   6.488  12.964  14.274
69516SOL    HW210388   6.507  13.105  14.221
69517SOL     OW10389  14.789   4.875   2.413
69517SOL    HW110390  14.775   4.936   2.341
69517SOL    HW210391  14.722   4.808   2.401
69518SOL     OW10392   9.523   4.723   7.801
69518SOL    HW110393   9.553   4.731   7.710
69518SOL    HW210394   9.473   4.642   7.802
69519SOL     OW10395  13.050  14.801   6.312
69519SOL    HW110396  13.074  14.719   6.356
69519SOL    HW210397  13.023  14.859   6.383
69520SOL     OW10398  11.153  10.537   6.413
69520SOL    HW110399  11.093  10.573   6.479
69520SOL    HW210400  11.164  10.445   6.437
69521SOL     OW10401  14.369   5.737  11.537
69521SOL    HW110402  14.367   5.641  11.539
69521SOL    HW210403  14.354   5.764  11.627
69522SOL     OW10404   0.830  13.432   0.679
69522SOL    HW110405   0.915  13.397   0.654
69522SOL    HW210406   0.837  13.446   0.774
69523SOL     OW10407  13.940   2.232  11.944
69523SOL    HW110408  13.867   2.175  11.920
69523SOL    HW210409  13.983   2.186  12.017
69524SOL     OW10410   8.140  14.689   5.113
69524SOL    HW110411   8.173  14.758   5.171
69524SOL    HW210412   8.045  14.698   5.117
69525SOL     OW10413   3.461   0.331   1.758
69525SOL    HW110414   3.452   0.422   1.787
69525SOL    HW210415   3.480   0.282   1.838
69526SOL     OW10416  13.866  10.551   5.092
69526SOL    HW110417  13.916  10.470   5.082
69526SOL    HW210418  13.881  10.598   5.009
69527SOL     OW10419   8.065   4.559   1.179
69527SOL    HW110420   8.032   4.579   1.091
69527SOL    HW210421   7.998   4.502   1.217
69528SOL     OW10422  11.066   4.119   3.173
69528SOL    HW110423  11.114   4.197   3.148
69528SOL    HW210424  11.130   4.064   3.217
69529SOL     OW10425  11.096   7.390  13.853
69529SOL    HW110426  11.011   7.410  13.812
69529SOL    HW210427  11.113   7.464  13.911
69530SOL     OW10428   4.775  13.234  11.012
69530SOL    HW110429   4.719  13.305  10.980
69530SOL    HW210430   4.742  13.156  10.969
69531SOL     OW10431   7.481   2.020  11.173
69531SOL    HW110432   7.431   2.090  11.216
69531SOL    HW210433   7.555   2.003  11.233
69532SOL     OW10434   8.205  11.114   9.157
69532SOL    HW110435   8.128  11.154   9.197
69532SOL    HW210436   8.181  11.022   9.144
69533SOL     OW10437  12.757  12.860   7.734
69533SOL    HW110438  12.819  12.928   7.762
69533SOL    HW210439  12.707  12.900   7.664
69534SOL     OW10440   1.689   1.812   1.507
69534SOL    HW110441   1.780   1.840   1.497
69534SOL    HW210442   1.645   1.843   1.428
69535SOL     OW10443   4.484   7.590   4.783
69535SOL    HW110444   4.442   7.606   4.867
69535SOL    HW210445   4.567   7.548   4.806
69536SOL     OW10446   9.824  12.313   7.544
69536SOL    HW110447   9.898  12.300   7.604
69536SOL    HW210448   9.842  12.252   7.472
69537SOL     OW10449  10.317   6.460   0.130
69537SOL    HW110450  10.390   6.478   0.190
69537SOL    HW210451  10.257   6.533   0.143
69538SOL     OW10452  13.728  14.270   9.221
69538SOL    HW110453  13.658  14.241   9.161
69538SOL    HW210454  13.703  14.358   9.246
69539SOL     OW10455   6.807  13.184  10.894
69539SOL    HW110456   6.821  13.090  10.893
69539SOL    HW210457   6.801  13.209  10.802
69540SOL     OW10458  10.563  13.611  11.758
69540SOL    HW110459  10.604  13.697  11.753
69540SOL    HW210460  10.497  13.612  11.690
69541SOL     OW10461   9.209  11.370   0.206
69541SOL    HW110462   9.183  11.300   0.147
69541SOL    HW210463   9.235  11.442   0.147
69542SOL     OW10464  11.366  11.960  13.801
69542SOL    HW110465  11.309  11.925  13.733
69542SOL    HW210466  11.350  12.054  13.800
69543SOL     OW10467   0.430   2.237  12.066
69543SOL    HW110468   0.447   2.331  12.057
69543SOL    HW210469   0.516   2.196  12.057
69544SOL     OW10470  11.658   3.198  12.663
69544SOL    HW110471  11.738   3.234  12.704
69544SOL    HW210472  11.621   3.142  12.731
69545SOL     OW10473  14.030  11.470   5.621
69545SOL    HW110474  14.104  11.414   5.599
69545SOL    HW210475  13.996  11.500   5.537
69546SOL     OW10476   6.231   9.182   5.719
69546SOL    HW110477   6.265   9.112   5.663
69546SOL    HW210478   6.181   9.135   5.786
69547SOL     OW10479   1.544   2.661   3.336
69547SOL    HW110480   1.635   2.677   3.310
69547SOL    HW210481   1.493   2.702   3.267
69548SOL     OW10482   9.418  11.163  12.165
69548SOL    HW110483   9.367  11.114  12.101
69548SOL    HW210484   9.508  11.134  12.152
69549SOL     OW10485   1.284  10.451   0.179
69549SOL    HW110486   1.353  10.422   0.120
69549SOL    HW210487   1.331  10.499   0.248
69550SOL     OW10488   1.113  12.677   8.842
69550SOL    HW110489   1.108  12.628   8.924
69550SOL    HW210490   1.148  12.614   8.779
69551SOL     OW10491  10.118   3.069  11.818
69551SOL    HW110492  10.098   3.163  11.822
69551SOL    HW210493  10.212   3.066  11.799
69552SOL     OW10494   6.684   9.767   7.450
69552SOL    HW110495   6.748   9.838   7.441
69552SOL    HW210496   6.676   9.754   7.544
69553SOL     OW10497  14.752   7.375   6.206
69553SOL    HW110498  14.739   7.282   6.225
69553SOL    HW210499  14.847   7.387   6.209
69554SOL     OW10500   7.093  10.347  10.635
69554SOL    HW110501   7.145  10.349  10.716
69554SOL    HW210502   7.147  10.299  10.573
69555SOL     OW10503   2.193  10.926   8.616
69555SOL    HW110504   2.246  10.848   8.599
69555SOL    HW210505   2.224  10.959   8.700
69556SOL     OW10506   9.411   8.626   3.556
69556SOL    HW110507   9.506   8.629   3.569
69556SOL    HW210508   9.389   8.533   3.568
69557SOL     OW10509   8.753   4.912  14.774
69557SOL    HW110510   8.670   4.865  14.778
69557SOL    HW210511   8.820   4.843  14.773
69558SOL     OW10512  12.308   1.257  13.785
69558SOL    HW110513  12.320   1.192  13.716
69558SOL    HW210514  12.371   1.234  13.852
69559SOL     OW10515   2.836   6.847  10.359
69559SOL    HW110516   2.848   6.867  10.266
69559SOL    HW210517   2.868   6.757  10.368
69560SOL     OW10518  10.362   8.730   9.081
69560SOL    HW110519  10.380   8.641   9.051
69560SOL    HW210520  10.337   8.777   9.001
69561SOL     OW10521   9.769   4.243  12.396
69561SOL    HW110522   9.814   4.278  12.473
69561SOL    HW210523   9.677   4.261  12.413
69562SOL     OW10524   0.760  14.720   3.378
69562SOL    HW110525   0.684  14.681   3.420
69562SOL    HW210526   0.762  14.810   3.411
69563SOL     OW10527   5.071   9.920   5.516
69563SOL    HW110528   5.019   9.941   5.438
69563SOL    HW210529   5.073  10.001   5.566
69564SOL     OW10530  11.710   9.619   9.018
69564SOL    HW110531  11.697   9.603   8.924
69564SOL    HW210532  11.658   9.551   9.061
69565SOL     OW10533   1.019   2.505   5.352
69565SOL    HW110534   1.049   2.536   5.438
69565SOL    HW210535   0.940   2.555   5.335
69566SOL     OW10536   6.410   6.190  13.044
69566SOL    HW110537   6.381   6.202  12.953
69566SOL    HW210538   6.491   6.140  13.037
69567SOL     OW10539   0.668   0.449  11.826
69567SOL    HW110540   0.666   0.525  11.768
69567SOL    HW210541   0.736   0.393  11.788
69568SOL     OW10542   9.377  12.922   4.543
69568SOL    HW110543   9.414  12.840   4.509
69568SOL    HW210544   9.419  12.932   4.629
69569SOL     OW10545   2.479  10.259   8.000
69569SOL    HW110546   2.481  10.170   8.036
69569SOL    HW210547   2.403  10.260   7.942
69570SOL     OW10548   5.884   3.442   7.469
69570SOL    HW110549   5.840   3.479   7.393
69570SOL    HW210550   5.922   3.517   7.514
69571SOL     OW10551   2.939   5.426   7.614
69571SOL    HW110552   2.929   5.434   7.519
69571SOL    HW210553   2.996   5.350   7.626
69572SOL     OW10554   1.195   4.271   1.731
69572SOL    HW110555   1.269   4.216   1.704
69572SOL    HW210556   1.142   4.214   1.787
69573SOL     OW10557  14.118  10.767  10.994
69573SOL    HW110558  14.034  10.768  10.947
69573SOL    HW210559  14.133  10.859  11.017
69574SOL     OW10560  11.325   1.939  11.089
69574SOL    HW110561  11.250   1.885  11.116
69574SOL    HW210562  11.301   2.028  11.116
69575SOL     OW10563  11.242   7.994  14.754
69575SOL    HW110564  11.197   8.033  14.680
69575SOL    HW210565  11.307   8.059  14.781
69576SOL     OW10566   7.745   8.574   6.874
69576SOL    HW110567   7.798   8.542   6.801
69576SOL    HW210568   7.761   8.668   6.876
69577SOL     OW10569   0.840   2.860   7.886
69577SOL    HW110570   0.864   2.898   7.801
69577SOL    HW210571   0.751   2.891   7.903
69578SOL     OW10572   8.322   0.430  10.149
69578SOL    HW110573   8.339   0.510  10.199
69578SOL    HW210574   8.408   0.390  10.138
69579SOL     OW10575  14.666  10.832   7.112
69579SOL    HW110576  14.696  10.787   7.191
69579SOL    HW210577  14.674  10.925   7.132
69580SOL     OW10578  13.712  14.212  10.467
69580SOL    HW110579  13.724  14.301  10.433
69580SOL    HW210580  13.795  14.168  10.449
69581SOL     OW10581   3.817   0.103   6.492
69581SOL    HW110582   3.789   0.176   6.547
69581SOL    HW210583   3.782   0.025   6.536
69582SOL     OW10584   0.263   9.610  11.621
69582SOL    HW110585   0.190   9.671  11.612
69582SOL    HW210586   0.263   9.561  11.539
69583SOL     OW10587   3.228   4.912   9.054
69583SOL    HW110588   3.204   4.826   9.020
69583SOL    HW210589   3.179   4.920   9.136
69584SOL     OW10590   0.308  11.619  13.744
69584SOL    HW110591   0.341  11.689  13.801
69584SOL    HW210592   0.375  11.551  13.748
69585SOL     OW10593  11.143   0.366   8.126
69585SOL    HW110594  11.098   0.451   8.125
69585SOL    HW210595  11.194   0.367   8.207
69586SOL     OW10596  11.325  14.508  10.242
69586SOL    HW110597  11.390  14.447  10.207
69586SOL    HW210598  11.293  14.555  10.164
69587SOL     OW10599   0.398   0.177  12.157
69587SOL    HW110600   0.437   0.251  12.111
69587SOL    HW210601   0.342   0.218  12.224
69588SOL     OW10602   3.720   0.634   1.095
69588SOL    HW110603   3.670   0.561   1.131
69588SOL    HW210604   3.810   0.602   1.093
69589SOL     OW10605  14.834  12.634   5.634
69589SOL    HW110606  14.854  12.597   5.720
69589SOL    HW210607  14.830  12.558   5.576
69590SOL     OW10608   6.407  14.045   9.252
69590SOL    HW110609   6.361  14.115   9.297
69590SOL    HW210610   6.463  14.006   9.319
69591SOL     OW10611  12.854   4.341   6.880
69591SOL    HW110612  12.892   4.412   6.932
69591SOL    HW210613  12.926   4.310   6.825
69592SOL     OW10614   7.665   9.173  11.421
69592SOL    HW110615   7.665   9.122  11.502
69592SOL    HW210616   7.739   9.232  11.431
69593SOL     OW10617   6.003   6.427   8.530
69593SOL    HW110618   6.041   6.412   8.617
69593SOL    HW210619   6.079   6.447   8.474
69594SOL     OW10620   9.439  11.846   1.866
69594SOL    HW110621   9.437  11.753   1.846
69594SOL    HW210622   9.516  11.858   1.921
69595SOL     OW10623  14.142   6.709  10.981
69595SOL    HW110624  14.051   6.679  10.977
69595SOL    HW210625  14.194   6.631  10.961
69596SOL     OW10626   5.071   9.495   3.839
69596SOL    HW110627   5.095   9.430   3.772
69596SOL    HW210628   5.006   9.451   3.893
69597SOL     OW10629  13.861   2.865   4.486
69597SOL    HW110630  13.928   2.857   4.553
69597SOL    HW210631  13.782   2.889   4.534
69598SOL     OW10632  11.394  11.152  10.593
69598SOL    HW110633  11.333  11.119  10.526
69598SOL    HW210634  11.436  11.074  10.628
69599SOL     OW10635   6.556   0.015  11.884
69599SOL    HW110636   6.559   0.105  11.919
69599SOL    HW210637   6.490   0.019  11.814
69600SOL     OW10638   7.596  14.270   2.799
69600SOL    HW110639   7.564  14.299   2.714
69600SOL    HW210640   7.537  14.198   2.824
69601SOL     OW10641  13.447  11.546   8.467
69601SOL    HW110642  13.447  11.632   8.426
69601SOL    HW210643  13.468  11.485   8.396
69602SOL     OW10644  11.525   3.668  11.154
69602SOL    HW110645  11.544   3.605  11.224
69602SOL    HW210646  11.437   3.699  11.173
69603SOL     OW10647  14.684   1.194   8.654
69603SOL    HW110648  14.671   1.119   8.713
69603SOL    HW210649  14.615   1.185   8.588
69604SOL     OW10650  12.588  13.007   5.924
69604SOL    HW110651  12.562  13.092   5.889
69604SOL    HW210652  12.512  12.979   5.975
69605SOL     OW10653   6.535  13.869  14.676
69605SOL    HW110654   6.542  13.856  14.771
69605SOL    HW210655   6.444  13.848  14.656
69606SOL     OW10656   1.367   5.691  12.809
69606SOL    HW110657   1.314   5.637  12.749
69606SOL    HW210658   1.308   5.710  12.882
69607SOL     OW10659  13.757   7.449   2.967
69607SOL    HW110660  13.815   7.520   2.939
69607SOL    HW210661  13.816   7.376   2.987
69608SOL     OW10662  13.266  13.152  12.220
69608SOL    HW110663  13.285  13.101  12.142
69608SOL    HW210664  13.283  13.243  12.194
69609SOL     OW10665   3.091  12.841  10.853
69609SOL    HW110666   3.154  12.891  10.800
69609SOL    HW210667   3.050  12.782  10.791
69610SOL     OW10668   0.143  10.143   9.049
69610SOL    HW110669   0.206  10.215   9.050
69610SOL    HW210670   0.172  10.085   9.118
69611SOL     OW10671   5.026   0.138   3.009
69611SOL    HW110672   4.993   0.128   2.920
69611SOL    HW210673   4.983   0.217   3.042
69612SOL     OW10674   5.104   1.789  14.339
69612SOL    HW110675   5.062   1.792  14.253
69612SOL    HW210676   5.031   1.796  14.401
69613SOL     OW10677  12.029  10.547  11.765
69613SOL    HW110678  12.062  10.547  11.854
69613SOL    HW210679  12.091  10.601  11.716
69614SOL     OW10680   1.404  14.164   7.844
69614SOL    HW110681   1.332  14.227   7.846
69614SOL    HW210682   1.367  14.087   7.800
69615SOL     OW10683  10.617   7.327   1.890
69615SOL    HW110684  10.676   7.399   1.915
69615SOL    HW210685  10.664   7.248   1.916
69616SOL     OW10686  12.768  10.648  10.226
69616SOL    HW110687  12.797  10.740  10.223
69616SOL    HW210688  12.673  10.653  10.235
69617SOL     OW10689  12.470   5.372   2.121
69617SOL    HW110690  12.517   5.306   2.172
69617SOL    HW210691  12.508   5.365   2.033
69618SOL     OW10692   7.227  11.385   1.264
69618SOL    HW110693   7.260  11.300   1.292
69618SOL    HW210694   7.137  11.368   1.236
69619SOL     OW10695   9.002   4.237   1.608
69619SOL    HW110696   8.981   4.182   1.533
69619SOL    HW210697   9.065   4.301   1.574
69620SOL     OW10698  10.168  12.759  11.616
69620SOL    HW110699  10.211  12.719  11.540
69620SOL    HW210700  10.222  12.735  11.690
69621SOL     OW10701  12.851   8.067  12.273
69621SOL    HW110702  12.935   8.098  12.238
69621SOL    HW210703  12.870   8.048  12.365
69622SOL     OW10704  12.587   4.629   0.984
69622SOL    HW110705  12.581   4.654   0.892
69622SOL    HW210706  12.530   4.693   1.029
69623SOL     OW10707   6.418   6.329   9.466
69623SOL    HW110708   6.459   6.344   9.381
69623SOL    HW210709   6.325   6.317   9.446
69624SOL     OW10710  14.815   9.682  14.780
69624SOL    HW110711  14.808   9.766  14.825
69624SOL    HW210712  14.802   9.703  14.688
69625SOL     OW10713   9.442   2.561   5.536
69625SOL    HW110714   9.425   2.468   5.552
69625SOL    HW210715   9.433   2.602   5.622
69626SOL     OW10716   6.220   6.981   0.763
69626SOL    HW110717   6.159   7.020   0.700
69626SOL    HW210718   6.191   6.891   0.773
69627SOL     OW10719   6.506   9.833   4.807
69627SOL    HW110720   6.461   9.776   4.870
69627SOL    HW210721   6.511   9.780   4.727
69628SOL     OW10722  14.335   9.855   3.563
69628SOL    HW110723  14.250   9.891   3.538
69628SOL    HW210724  14.393   9.877   3.490
69629SOL     OW10725   0.109   0.052  13.964
69629SOL    HW110726   0.065   0.022  13.885
69629SOL    HW210727   0.049   0.115  14.003
69630SOL     OW10728   1.146   4.278   5.453
69630SOL    HW110729   1.068   4.295   5.506
69630SOL    HW210730   1.133   4.189   5.420
69631SOL     OW10731   7.764   1.056   1.148
69631SOL    HW110732   7.857   1.040   1.131
69631SOL    HW210733   7.718   0.998   1.087
69632SOL     OW10734  10.524   6.598   5.668
69632SOL    HW110735  10.529   6.674   5.726
69632SOL    HW210736  10.436   6.603   5.630
69633SOL     OW10737   5.888   2.698   5.863
69633SOL    HW110738   5.857   2.607   5.872
69633SOL    HW210739   5.979   2.695   5.893
69634SOL     OW10740   2.245   3.874   7.878
69634SOL    HW110741   2.158   3.840   7.898
69634SOL    HW210742   2.246   3.884   7.783
69635SOL     OW10743   4.788  14.169   7.095
69635SOL    HW110744   4.861  14.127   7.141
69635SOL    HW210745   4.727  14.193   7.164
69636SOL     OW10746   3.282   3.858   2.252
69636SOL    HW110747   3.186   3.858   2.249
69636SOL    HW210748   3.307   3.917   2.181
69637SOL     OW10749  10.398   3.589   8.205
69637SOL    HW110750  10.419   3.681   8.222
69637SOL    HW210751  10.344   3.563   8.280
69638SOL     OW10752   5.404   8.717  12.532
69638SOL    HW110753   5.371   8.629  12.515
69638SOL    HW210754   5.385   8.732  12.625
69639SOL     OW10755   9.407  13.743  13.980
69639SOL    HW110756   9.403  13.650  13.957
69639SOL    HW210757   9.322  13.762  14.018
69640SOL     OW10758   0.855  12.527   3.979
69640SOL    HW110759   0.939  12.518   3.935
69640SOL    HW210760   0.835  12.620   3.973
69641SOL     OW10761   1.210   4.610  10.500
69641SOL    HW110762   1.130   4.566  10.528
69641SOL    HW210763   1.280   4.566  10.548
69642SOL     OW10764  11.875   8.705   7.268
69642SOL    HW110765  11.783   8.681   7.274
69642SOL    HW210766  11.903   8.670   7.183
69643SOL     OW10767   5.358   8.262   5.555
69643SOL    HW110768   5.358   8.199   5.627
69643SOL    HW210769   5.391   8.212   5.480
69644SOL     OW10770   9.690  10.333  11.396
69644SOL    HW110771   9.633  10.332  11.319
69644SOL    HW210772   9.631  10.356  11.468
69645SOL     OW10773   8.582   0.713   3.903
69645SOL    HW110774   8.496   0.672   3.913
69645SOL    HW210775   8.641   0.640   3.882
69646SOL     OW10776   6.147   7.635   6.029
69646SOL    HW110777   6.102   7.712   5.994
69646SOL    HW210778   6.084   7.595   6.089
69647SOL     OW10779   2.740   6.116  13.065
69647SOL    HW110780   2.726   6.208  13.041
69647SOL    HW210781   2.654   6.086  13.093
69648SOL     OW10782  10.058  10.108   8.735
69648SOL    HW110783  10.047  10.016   8.758
69648SOL    HW210784   9.973  10.133   8.698
69649SOL     OW10785  12.406  13.728   6.610
69649SOL    HW110786  12.458  13.757   6.535
69649SOL    HW210787  12.328  13.690   6.571
69650SOL     OW10788   1.499  12.585  14.112
69650SOL    HW110789   1.556  12.563  14.039
69650SOL    HW210790   1.444  12.508  14.125
69651SOL     OW10791  14.244  12.433  12.261
69651SOL    HW110792  14.333  12.398  12.270
69651SOL    HW210793  14.198  12.403  12.340
69652SOL     OW10794   9.362   8.872   2.403
69652SOL    HW110795   9.346   8.946   2.462
69652SOL    HW210796   9.455   8.854   2.412
69653SOL     OW10797   9.403   9.573   1.531
69653SOL    HW110798   9.437   9.626   1.603
69653SOL    HW210799   9.329   9.623   1.497
69654SOL     OW10800   7.863  12.297  11.216
69654SOL    HW110801   7.931  12.278  11.281
69654SOL    HW210802   7.845  12.212  11.175
69655SOL     OW10803   0.570   1.371   4.947
69655SOL    HW110804   0.529   1.407   4.869
69655SOL    HW210805   0.528   1.286   4.959
69656SOL     OW10806   1.658  13.112   4.155
69656SOL    HW110807   1.695  13.039   4.104
69656SOL    HW210808   1.579  13.076   4.194
69657SOL     OW10809   9.198   8.370   8.431
69657SOL    HW110810   9.153   8.301   8.382
69657SOL    HW210811   9.182   8.450   8.380
69658SOL     OW10812   6.821   7.247   5.499
69658SOL    HW110813   6.745   7.237   5.555
69658SOL    HW210814   6.810   7.181   5.430
69659SOL     OW10815   9.158   3.625   5.464
69659SOL    HW110816   9.127   3.592   5.548
69659SOL    HW210817   9.157   3.548   5.406
69660SOL     OW10818   1.059   8.180  12.440
69660SOL    HW110819   0.994   8.182  12.370
69660SOL    HW210820   1.134   8.134  12.402
69661SOL     OW10821   2.073   3.469  12.255
69661SOL    HW110822   2.154   3.492  12.302
69661SOL    HW210823   2.007   3.526  12.293
69662SOL     OW10824   4.682  14.858   0.896
69662SOL    HW110825   4.660  14.827   0.984
69662SOL    HW210826   4.697   0.072   0.906
69663SOL     OW10827   3.207   0.907   5.930
69663SOL    HW110828   3.141   0.839   5.942
69663SOL    HW210829   3.256   0.879   5.852
69664SOL     OW10830   1.279  11.174   1.849
69664SOL    HW110831   1.229  11.093   1.862
69664SOL    HW210832   1.233  11.240   1.901
69665SOL     OW10833   2.271  14.014  13.272
69665SOL    HW110834   2.253  14.104  13.300
69665SOL    HW210835   2.305  14.023  13.183
69666SOL     OW10836  10.942   7.027   0.509
69666SOL    HW110837  10.950   6.952   0.449
69666SOL    HW210838  10.890   7.091   0.460
69667SOL     OW10839   2.426   4.721   8.717
69667SOL    HW110840   2.378   4.689   8.641
69667SOL    HW210841   2.399   4.813   8.726
69668SOL     OW10842  13.276   1.954   5.098
69668SOL    HW110843  13.193   1.999   5.116
69668SOL    HW210844  13.283   1.955   5.002
69669SOL     OW10845   8.321   4.331  13.163
69669SOL    HW110846   8.243   4.326  13.218
69669SOL    HW210847   8.350   4.240  13.154
69670SOL     OW10848   6.780   3.692  12.525
69670SOL    HW110849   6.752   3.752  12.594
69670SOL    HW210850   6.729   3.613  12.538
69671SOL     OW10851  14.787   9.391  14.123
69671SOL    HW110852  14.821   9.351  14.043
69671SOL    HW210853  14.862   9.391  14.183
69672SOL     OW10854   5.064  12.799   9.864
69672SOL    HW110855   5.021  12.870   9.911
69672SOL    HW210856   5.062  12.725   9.925
69673SOL     OW10857   2.009   3.283   6.566
69673SOL    HW110858   1.974   3.296   6.478
69673SOL    HW210859   2.053   3.198   6.562
69674SOL     OW10860   7.800   8.147  10.880
69674SOL    HW110861   7.882   8.174  10.922
69674SOL    HW210862   7.823   8.066  10.833
69675SOL     OW10863   8.463  11.056   5.238
69675SOL    HW110864   8.409  11.044   5.159
69675SOL    HW210865   8.551  11.074   5.204
69676SOL     OW10866   4.056   0.638  14.484
69676SOL    HW110867   4.077   0.731  14.490
69676SOL    HW210868   4.112   0.597  14.550
69677SOL     OW10869  13.337   0.634   4.400
69677SOL    HW110870  13.245   0.636   4.375
69677SOL    HW210871  13.337   0.593   4.486
69678SOL     OW10872   4.853  13.417   0.891
69678SOL    HW110873   4.902  13.391   0.812
69678SOL    HW210874   4.911  13.478   0.936
69679SOL     OW10875   5.732  14.747   5.037
69679SOL    HW110876   5.801  14.788   5.089
69679SOL    HW210877   5.749  14.653   5.043
69680SOL     OW10878   9.621   7.194   5.523
69680SOL    HW110879   9.596   7.189   5.431
69680SOL    HW210880   9.587   7.113   5.562
69681SOL     OW10881  12.785   8.397   2.759
69681SOL    HW110882  12.877   8.410   2.734
69681SOL    HW210883  12.754   8.326   2.703
69682SOL     OW10884   9.059   3.702  12.329
69682SOL    HW110885   9.001   3.775  12.306
69682SOL    HW210886   9.093   3.671  12.245
69683SOL     OW10887   1.612  11.752   2.025
69683SOL    HW110888   1.619  11.837   1.981
69683SOL    HW210889   1.631  11.688   1.957
69684SOL     OW10890  12.623  10.597   9.977
69684SOL    HW110891  12.612  10.691   9.991
69684SOL    HW210892  12.570  10.577   9.900
69685SOL     OW10893   8.886  14.173   2.725
69685SOL    HW110894   8.923  14.219   2.801
69685SOL    HW210895   8.948  14.191   2.654
69686SOL     OW10896  12.335   4.682   4.047
69686SOL    HW110897  12.348   4.632   3.966
69686SOL    HW210898  12.402   4.648   4.107
69687SOL     OW10899  12.626  13.519  10.326
69687SOL    HW110900  12.555  13.455  10.319
69687SOL    HW210901  12.665  13.502  10.411
69688SOL     OW10902  12.407  11.992   5.353
69688SOL    HW110903  12.335  12.008   5.413
69688SOL    HW210904  12.377  12.024   5.269
69689SOL     OW10905   6.200   7.005   8.517
69689SOL    HW110906   6.124   7.050   8.554
69689SOL    HW210907   6.167   6.964   8.437
69690SOL     OW10908  10.378   1.732   2.663
69690SOL    HW110909  10.460   1.729   2.613
69690SOL    HW210910  10.329   1.656   2.632
69691SOL     OW10911  10.412   4.899   5.341
69691SOL    HW110912  10.506   4.880   5.343
69691SOL    HW210913  10.375   4.832   5.283
69692SOL     OW10914  11.126   2.493  10.603
69692SOL    HW110915  11.045   2.456  10.637
69692SOL    HW210916  11.150   2.436  10.530
69693SOL     OW10917   3.243   3.164  14.859
69693SOL    HW110918   3.169   3.136  14.805
69693SOL    HW210919   3.320   3.139  14.808
69694SOL     OW10920   9.334  12.242  14.523
69694SOL    HW110921   9.420  12.242  14.565
69694SOL    HW210922   9.349  12.200  14.438
69695SOL     OW10923   0.348   3.706   0.709
69695SOL    HW110924   0.267   3.694   0.759
69695SOL    HW210925   0.388   3.784   0.747
69696SOL     OW10926   8.707  13.325   3.522
69696SOL    HW110927   8.796  13.348   3.497
69696SOL    HW210928   8.653  13.355   3.448
69697SOL     OW10929  12.408   3.200   4.896
69697SOL    HW110930  12.364   3.118   4.873
69697SOL    HW210931  12.471   3.214   4.825
69698SOL     OW10932   0.901   9.639   5.122
69698SOL    HW110933   0.812   9.657   5.091
69698SOL    HW210934   0.898   9.549   5.154
69699SOL     OW10935  14.012   9.746   1.231
69699SOL    HW110936  13.996   9.833   1.195
69699SOL    HW210937  14.105   9.745   1.253
69700SOL     OW10938   8.623  12.492  14.843
69700SOL    HW110939   8.697  12.501   0.025
69700SOL    HW210940   8.662  12.453  14.765
69701SOL     OW10941  13.025   2.014   9.771
69701SOL    HW110942  13.017   2.107   9.753
69701SOL    HW210943  13.042   1.975   9.685
69702SOL     OW10944   2.408  13.125   9.733
69702SOL    HW110945   2.440  13.215   9.735
69702SOL    HW210946   2.313  13.134   9.721
69703SOL     OW10947   9.276   2.253  12.767
69703SOL    HW110948   9.360   2.289  12.739
69703SOL    HW210949   9.240   2.212  12.688
69704SOL     OW10950  11.005  11.909   5.746
69704SOL    HW110951  10.967  11.824   5.770
69704SOL    HW210952  10.931  11.959   5.711
69705SOL     OW10953   3.008   1.046  14.077
69705SOL    HW110954   3.098   1.016  14.074
69705SOL    HW210955   2.973   1.009  14.159
69706SOL     OW10956   8.216   0.652   9.124
69706SOL    HW110957   8.196   0.734   9.169
69706SOL    HW210958   8.194   0.669   9.032
69707SOL     OW10959  10.032   8.847   2.412
69707SOL    HW110960  10.006   8.812   2.327
69707SOL    HW210961  10.044   8.941   2.396
69708SOL     OW10962   7.641   1.778   7.287
69708SOL    HW110963   7.566   1.793   7.230
69708SOL    HW210964   7.602   1.762   7.373
69709SOL     OW10965   9.025   0.663  10.292
69709SOL    HW110966   8.957   0.703  10.238
69709SOL    HW210967   9.100   0.723  10.284
69710SOL     OW10968  11.240   3.655   0.115
69710SOL    HW110969  11.215   3.589   0.180
69710SOL    HW210970  11.178   3.644   0.044
69711SOL     OW10971   2.562   4.079   2.201
69711SOL    HW110972   2.588   4.081   2.109
69711SOL    HW210973   2.598   3.996   2.234
69712SOL     OW10974   1.491   6.676  11.428
69712SOL    HW110975   1.582   6.705  11.422
69712SOL    HW210976   1.495   6.593  11.475
69713SOL     OW10977   8.998   5.421  14.706
69713SOL    HW110978   8.912   5.435  14.666
69713SOL    HW210979   9.047   5.500  14.684
69714SOL     OW10980  11.945   2.856   9.778
69714SOL    HW110981  12.041   2.858   9.770
69714SOL    HW210982  11.927   2.895   9.863
69715SOL     OW10983  14.340   4.227  13.809
69715SOL    HW110984  14.401   4.280  13.758
69715SOL    HW210985  14.257   4.235  13.762
69716SOL     OW10986   7.299   4.534   6.914
69716SOL    HW110987   7.366   4.516   6.979
69716SOL    HW210988   7.217   4.532   6.963
69717SOL     OW10989  10.556  11.805   7.569
69717SOL    HW110990  10.602  11.725   7.543
69717SOL    HW210991  10.547  11.856   7.489
69718SOL     OW10992  14.454   7.577   9.344
69718SOL    HW110993  14.462   7.596   9.251
69718SOL    HW210994  14.377   7.520   9.350
69719SOL     OW10995   2.506   3.847   3.159
69719SOL    HW110996   2.589   3.825   3.201
69719SOL    HW210997   2.440   3.801   3.210
69720SOL     OW10998   5.700   6.204   2.495
69720SOL    HW110999   5.672   6.114   2.511
69720SOL    HW211000   5.644   6.257   2.552
69721SOL     OW11001  12.871   1.972   3.893
69721SOL    HW111002  12.921   2.019   3.826
69721SOL    HW211003  12.801   1.929   3.846
69722SOL     OW11004   1.255   5.817   8.335
69722SOL    HW111005   1.255   5.722   8.318
69722SOL    HW211006   1.181   5.850   8.285
69723SOL     OW11007   1.939  10.349  12.327
69723SOL    HW111008   1.880  10.369  12.254
69723SOL    HW211009   1.959  10.256  12.316
69724SOL     OW11010   3.314   2.572   5.874
69724SOL    HW111011   3.376   2.635   5.836
69724SOL    HW211012   3.239   2.573   5.815
69725SOL     OW11013  11.412   9.834   5.219
69725SOL    HW111014  11.477   9.819   5.151
69725SOL    HW211015  11.399   9.748   5.259
69726SOL     OW11016  12.616   7.272   1.020
69726SOL    HW111017  12.706   7.259   0.989
69726SOL    HW211018  12.614   7.363   1.049
69727SOL     OW11019  10.420   5.813  12.775
69727SOL    HW111020  10.365   5.750  12.729
69727SOL    HW211021  10.361   5.885  12.797
69728SOL     OW11022   8.532   9.882   9.642
69728SOL    HW111023   8.598   9.814   9.622
69728SOL    HW211024   8.508   9.917   9.557
69729SOL     OW11025   6.101   6.496  14.227
69729SOL    HW111026   6.077   6.473  14.138
69729SOL    HW211027   6.058   6.579  14.244
69730SOL     OW11028  13.615   5.296   9.232
69730SOL    HW111029  13.643   5.361   9.167
69730SOL    HW211030  13.682   5.299   9.300
69731SOL     OW11031   3.127   2.947   8.878
69731SOL    HW111032   3.210   2.901   8.868
69731SOL    HW211033   3.063   2.878   8.896
69732SOL     OW11034   6.230   7.177  13.320
69732SOL    HW111035   6.140   7.152  13.301
69732SOL    HW211036   6.282   7.138  13.249
69733SOL     OW11037  14.595   3.552  14.170
69733SOL    HW111038  14.682   3.593  14.176
69733SOL    HW211039  14.581   3.541  14.076
69734SOL     OW11040   8.645  13.861  13.689
69734SOL    HW111041   8.642  13.956  13.674
69734SOL    HW211042   8.654  13.824  13.601
69735SOL     OW11043   7.456   9.358   2.970
69735SOL    HW111044   7.469   9.412   2.892
69735SOL    HW211045   7.469   9.418   3.044
69736SOL     OW11046   3.813   3.043   9.672
69736SOL    HW111047   3.823   2.956   9.632
69736SOL    HW211048   3.733   3.078   9.634
69737SOL     OW11049  13.119   6.917   4.396
69737SOL    HW111050  13.191   6.854   4.387
69737SOL    HW211051  13.158   7.001   4.370
69738SOL     OW11052   7.846  12.618   4.864
69738SOL    HW111053   7.854  12.568   4.945
69738SOL    HW211054   7.932  12.658   4.851
69739SOL     OW11055   2.657   5.946   8.150
69739SOL    HW111056   2.711   6.024   8.156
69739SOL    HW211057   2.705   5.879   8.199
69740SOL     OW11058   5.208   1.857   1.778
69740SOL    HW111059   5.216   1.862   1.873
69740SOL    HW211060   5.123   1.898   1.758
69741SOL     OW11061  14.585   8.099   8.090
69741SOL    HW111062  14.539   8.018   8.113
69741SOL    HW211063  14.677   8.079   8.109
69742SOL     OW11064   3.984   8.895  13.055
69742SOL    HW111065   4.024   8.894  13.142
69742SOL    HW211066   3.896   8.931  13.070
69743SOL     OW11067   1.850   7.611   5.728
69743SOL    HW111068   1.862   7.521   5.696
69743SOL    HW211069   1.923   7.660   5.690
69744SOL     OW11070  10.591   0.425   9.392
69744SOL    HW111071  10.583   0.391   9.302
69744SOL    HW211072  10.513   0.479   9.404
69745SOL     OW11073   7.002   3.904   4.561
69745SOL    HW111074   6.947   3.868   4.491
69745SOL    HW211075   6.989   3.844   4.635
69746SOL     OW11076   0.564  10.279   7.708
69746SOL    HW111077   0.556  10.244   7.797
69746SOL    HW211078   0.566  10.202   7.651
69747SOL     OW11079  11.598   7.207  10.086
69747SOL    HW111080  11.552   7.123  10.090
69747SOL    HW211081  11.629   7.221  10.176
69748SOL     OW11082   2.791   9.311   1.577
69748SOL    HW111083   2.794   9.232   1.631
69748SOL    HW211084   2.869   9.306   1.523
69749SOL     OW11085   4.625   1.495   4.298
69749SOL    HW111086   4.621   1.433   4.371
69749SOL    HW211087   4.706   1.473   4.253
69750SOL     OW11088   6.205   4.946   8.110
69750SOL    HW111089   6.224   4.888   8.036
69750SOL    HW211090   6.115   4.977   8.093
69751SOL     OW11091  10.311   4.167   0.910
69751SOL    HW111092  10.218   4.160   0.931
69751SOL    HW211093  10.330   4.089   0.857
69752SOL     OW11094   5.681   8.075   1.831
69752SOL    HW111095   5.756   8.083   1.890
69752SOL    HW211096   5.622   8.014   1.875
69753SOL     OW11097   9.281  10.513  14.531
69753SOL    HW111098   9.296  10.602  14.562
69753SOL    HW211099   9.247  10.524  14.442
69754SOL     OW11100   9.965   9.545   7.475
69754SOL    HW111101   9.894   9.607   7.493
69754SOL    HW211102   9.983   9.504   7.560
69755SOL     OW11103   5.856   1.426  10.396
69755SOL    HW111104   5.846   1.416  10.301
69755SOL    HW211105   5.938   1.475  10.406
69756SOL     OW11106  12.470  10.964   6.672
69756SOL    HW111107  12.530  10.898   6.638
69756SOL    HW211108  12.422  10.919   6.742
69757SOL     OW11109  13.798   1.888   7.179
69757SOL    HW111110  13.737   1.937   7.124
69757SOL    HW211111  13.853   1.841   7.116
69758SOL     OW11112  13.305   0.630   9.430
69758SOL    HW111113  13.301   0.725   9.439
69758SOL    HW211114  13.390   0.606   9.468
69759SOL     OW11115   0.264   5.067   2.581
69759SOL    HW111116   0.263   4.976   2.551
69759SOL    HW211117   0.175   5.098   2.568
69760SOL     OW11118  12.841  10.375  12.659
69760SOL    HW111119  12.771  10.438  12.645
69760SOL    HW211120  12.897  10.384  12.583
69761SOL     OW11121   1.853  14.705  10.936
69761SOL    HW111122   1.836  14.797  10.956
69761SOL    HW211123   1.915  14.677  11.003
69762SOL     OW11124   3.038   5.623   4.670
69762SOL    HW111125   3.022   5.575   4.589
69762SOL    HW211126   3.064   5.556   4.733
69763SOL     OW11127  13.069   2.865   9.362
69763SOL    HW111128  13.158   2.884   9.391
69763SOL    HW211129  13.079   2.820   9.278
69764SOL     OW11130   9.636   3.341   1.196
69764SOL    HW111131   9.565   3.277   1.204
69764SOL    HW211132   9.606   3.416   1.248
69765SOL     OW11133   5.120  13.808  10.836
69765SOL    HW111134   5.044  13.857  10.806
69765SOL    HW211135   5.083  13.736  10.888
69766SOL     OW11136   9.214   0.107   9.710
69766SOL    HW111137   9.247   0.018   9.726
69766SOL    HW211138   9.242   0.127   9.621
69767SOL     OW11139  12.926   4.223   8.552
69767SOL    HW111140  12.965   4.210   8.466
69767SOL    HW211141  12.836   4.195   8.542
69768SOL     OW11142   3.469   5.972   2.497
69768SOL    HW111143   3.410   6.029   2.547
69768SOL    HW211144   3.520   6.033   2.443
69769SOL     OW11145  11.879  13.992   4.275
69769SOL    HW111146  11.826  13.931   4.224
69769SOL    HW211147  11.960  13.944   4.292
69770SOL     OW11148  11.722   5.720   1.388
69770SOL    HW111149  11.804   5.672   1.390
69770SOL    HW211150  11.663   5.671   1.446
69771SOL     OW11151   0.456  12.388  14.398
69771SOL    HW111152   0.516  12.431  14.459
69771SOL    HW211153   0.436  12.456  14.333
69772SOL     OW11154   0.160  10.065   5.294
69772SOL    HW111155   0.205  10.051   5.210
69772SOL    HW211156   0.223  10.115   5.346
69773SOL     OW11157  10.005   6.153  14.685
69773SOL    HW111158   9.990   6.061  14.707
69773SOL    HW211159  10.070   6.183  14.748
69774SOL     OW11160   4.555   6.425  13.116
69774SOL    HW111161   4.610   6.475  13.056
69774SOL    HW211162   4.599   6.340  13.124
69775SOL     OW11163  12.401   0.022   5.425
69775SOL    HW111164  12.363  14.837   5.365
69775SOL    HW211165  12.454   0.079   5.369
69776SOL     OW11166   3.951   6.613   7.770
69776SOL    HW111167   3.969   6.555   7.697
69776SOL    HW211168   4.028   6.670   7.776
69777SOL     OW11169  13.730   8.205  11.432
69777SOL    HW111170  13.713   8.182  11.524
69777SOL    HW211171  13.685   8.137  11.382
69778SOL     OW11172  13.742   5.153   1.710
69778SOL    HW111173  13.820   5.183   1.757
69778SOL    HW211174  13.774   5.079   1.657
69779SOL     OW11175  11.227   0.136  13.182
69779SOL    HW111176  11.146   0.137  13.233
69779SOL    HW211177  11.204   0.087  13.103
69780SOL     OW11178  10.060   3.536  13.219
69780SOL    HW111179   9.994   3.589  13.176
69780SOL    HW211180  10.031   3.530  13.310
69781SOL     OW11181  13.068   8.445   5.975
69781SOL    HW111182  13.007   8.424   6.045
69781SOL    HW211183  13.102   8.360   5.946
69782SOL     OW11184   3.857   0.427  14.080
69782SOL    HW111185   3.820   0.513  14.060
69782SOL    HW211186   3.911   0.441  14.158
69783SOL     OW11187   9.912   4.590  10.130
69783SOL    HW111188   9.910   4.681  10.100
69783SOL    HW211189  10.005   4.568  10.133
69784SOL     OW11190   4.951  14.395   8.248
69784SOL    HW111191   4.909  14.430   8.169
69784SOL    HW211192   4.910  14.443   8.320
69785SOL     OW11193  11.836   9.114  14.772
69785SOL    HW111194  11.800   9.182  14.830
69785SOL    HW211195  11.804   9.137  14.685
69786SOL     OW11196   2.400   3.501  10.735
69786SOL    HW111197   2.317   3.546  10.753
69786SOL    HW211198   2.373   3.416  10.700
69787SOL     OW11199   8.958   5.952  10.511
69787SOL    HW111200   8.896   5.907  10.568
69787SOL    HW211201   8.933   6.044  10.517
69788SOL     OW11202   6.352   1.610  11.213
69788SOL    HW111203   6.326   1.618  11.305
69788SOL    HW211204   6.432   1.662  11.205
69789SOL     OW11205   2.487  12.699   9.692
69789SOL    HW111206   2.450  12.661   9.613
69789SOL    HW211207   2.545  12.769   9.660
69790SOL     OW11208  13.457  13.215   8.558
69790SOL    HW111209  13.489  13.134   8.519
69790SOL    HW211210  13.462  13.200   8.653
69791SOL     OW11211   8.956   3.258   2.712
69791SOL    HW111212   8.981   3.195   2.780
69791SOL    HW211213   8.865   3.280   2.733
69792SOL     OW11214  12.786   7.719   0.476
69792SOL    HW111215  12.817   7.774   0.548
69792SOL    HW211216  12.806   7.769   0.397
69793SOL     OW11217   3.580   3.232   2.762
69793SOL    HW111218   3.553   3.181   2.685
69793SOL    HW211219   3.617   3.167   2.822
69794SOL     OW11220   8.576   9.920  14.504
69794SOL    HW111221   8.622   9.996  14.537
69794SOL    HW211222   8.635   9.881  14.440
69795SOL     OW11223   5.604   5.038  11.647
69795SOL    HW111224   5.671   4.998  11.703
69795SOL    HW211225   5.531   5.056  11.706
69796SOL     OW11226   0.907   6.408   7.963
69796SOL    HW111227   0.813   6.394   7.976
69796SOL    HW211228   0.930   6.353   7.889
69797SOL     OW11229   0.068   8.011  12.129
69797SOL    HW111230  14.866   8.062  12.123
69797SOL    HW211231   0.038   7.921  12.143
69798SOL     OW11232   7.096   4.035   3.107
69798SOL    HW111233   7.006   4.009   3.086
69798SOL    HW211234   7.143   3.952   3.115
69799SOL     OW11235   6.589  11.189   7.903
69799SOL    HW111236   6.496  11.181   7.926
69799SOL    HW211237   6.619  11.098   7.893
69800SOL     OW11238  11.405  13.657   3.384
69800SOL    HW111239  11.409  13.561   3.381
69800SOL    HW211240  11.353  13.681   3.308
69801SOL     OW11241   8.177  13.669  14.335
69801SOL    HW111242   8.246  13.669  14.402
69801SOL    HW211243   8.216  13.718  14.262
69802SOL     OW11244  14.818   9.807  13.149
69802SOL    HW111245  14.767   9.878  13.111
69802SOL    HW211246  14.832   9.745  13.077
69803SOL     OW11247   0.922  14.517  10.228
69803SOL    HW111248   0.976  14.530  10.306
69803SOL    HW211249   0.902  14.423  10.228
69804SOL     OW11250  13.277  14.490  12.069
69804SOL    HW111251  13.354  14.460  12.116
69804SOL    HW211252  13.221  14.530  12.136
69805SOL     OW11253  13.549   3.431   2.380
69805SOL    HW111254  13.537   3.472   2.294
69805SOL    HW211255  13.616   3.484   2.423
69806SOL     OW11256  12.927  14.511  14.512
69806SOL    HW111257  12.903  14.495  14.421
69806SOL    HW211258  13.020  14.489  14.518
69807SOL     OW11259   9.718   3.018  12.714
69807SOL    HW111260   9.758   3.021  12.801
69807SOL    HW211261   9.682   2.929  12.708
69808SOL     OW11262   3.108   9.230   3.521
69808SOL    HW111263   3.068   9.143   3.515
69808SOL    HW211264   3.202   9.214   3.507
69809SOL     OW11265   7.336   7.264   7.589
69809SOL    HW111266   7.382   7.309   7.661
69809SOL    HW211267   7.320   7.333   7.525
69810SOL     OW11268   5.558   3.060   4.585
69810SOL    HW111269   5.618   3.055   4.511
69810SOL    HW211270   5.480   3.102   4.550
69811SOL     OW11271   3.479   6.698   9.797
69811SOL    HW111272   3.462   6.791   9.807
69811SOL    HW211273   3.399   6.655   9.828
69812SOL     OW11274   4.250   1.128  14.037
69812SOL    HW111275   4.266   1.033  14.037
69812SOL    HW211276   4.234   1.149  14.129
69813SOL     OW11277   4.903   2.154  12.006
69813SOL    HW111278   4.859   2.069  12.009
69813SOL    HW211279   4.920   2.176  12.097
69814SOL     OW11280  12.565   8.856   0.811
69814SOL    HW111281  12.605   8.913   0.746
69814SOL    HW211282  12.477   8.838   0.778
69815SOL     OW11283  13.010  12.773   8.317
69815SOL    HW111284  13.015  12.681   8.345
69815SOL    HW211285  12.918  12.787   8.294
69816SOL     OW11286   8.440  13.014   2.153
69816SOL    HW111287   8.515  13.062   2.188
69816SOL    HW211288   8.365  13.069   2.173
69817SOL     OW11289   7.212   1.785   3.419
69817SOL    HW111290   7.151   1.780   3.493
69817SOL    HW211291   7.244   1.875   3.420
69818SOL     OW11292   8.214  12.138   3.731
69818SOL    HW111293   8.307  12.160   3.741
69818SOL    HW211294   8.167  12.214   3.765
69819SOL     OW11295   1.444  13.055   6.204
69819SOL    HW111296   1.501  12.992   6.249
69819SOL    HW211297   1.471  13.049   6.112
69820SOL     OW11298   9.893  14.562   5.137
69820SOL    HW111299   9.955  14.623   5.176
69820SOL    HW211300   9.826  14.618   5.097
69821SOL     OW11301   0.662   5.125   2.809
69821SOL    HW111302   0.579   5.124   2.858
69821SOL    HW211303   0.635   5.137   2.718
69822SOL     OW11304   6.310   5.563  11.402
69822SOL    HW111305   6.238   5.501  11.395
69822SOL    HW211306   6.276   5.644  11.366
69823SOL     OW11307   5.151   4.668   9.769
69823SOL    HW111308   5.110   4.582   9.782
69823SOL    HW211309   5.121   4.720   9.843
69824SOL     OW11310   4.706   3.892  12.974
69824SOL    HW111311   4.751   3.808  12.971
69824SOL    HW211312   4.629   3.876  13.029
69825SOL     OW11313   5.755   8.908   0.772
69825SOL    HW111314   5.797   8.921   0.688
69825SOL    HW211315   5.818   8.857   0.823
69826SOL     OW11316  10.942   4.997   2.483
69826SOL    HW111317  10.989   4.985   2.565
69826SOL    HW211318  11.008   5.030   2.422
69827SOL     OW11319  10.380  10.321  11.465
69827SOL    HW111320  10.417  10.271  11.537
69827SOL    HW211321  10.411  10.277  11.386
69828SOL     OW11322   5.008   4.008   0.008
69828SOL    HW111323   5.053   4.052   0.080
69828SOL    HW211324   4.970   3.930   0.049
69829SOL     OW11325   8.829   7.228  13.299
69829SOL    HW111326   8.853   7.137  13.320
69829SOL    HW211327   8.897   7.280  13.340
69830SOL     OW11328   5.868   2.658  11.992
69830SOL    HW111329   5.894   2.632  11.903
69830SOL    HW211330   5.940   2.714  12.022
69831SOL     OW11331  12.179   8.132   4.253
69831SOL    HW111332  12.193   8.088   4.337
69831SOL    HW211333  12.262   8.120   4.206
69832SOL     OW11334   1.300   3.746   8.714
69832SOL    HW111335   1.313   3.758   8.808
69832SOL    HW211336   1.282   3.652   8.704
69833SOL     OW11337   8.696  14.458  10.075
69833SOL    HW111338   8.657  14.539  10.108
69833SOL    HW211339   8.741  14.484   9.995
69834SOL     OW11340   2.889   0.900  11.520
69834SOL    HW111341   2.958   0.842  11.553
69834SOL    HW211342   2.914   0.987  11.551
69835SOL     OW11343  10.240   5.185   9.510
69835SOL    HW111344  10.260   5.277   9.524
69835SOL    HW211345  10.168   5.166   9.571
69836SOL     OW11346  10.208   5.663   7.747
69836SOL    HW111347  10.279   5.723   7.727
69836SOL    HW211348  10.186   5.622   7.663
69837SOL     OW11349   4.843   1.415   4.547
69837SOL    HW111350   4.913   1.436   4.609
69837SOL    HW211351   4.767   1.399   4.603
69838SOL     OW11352   0.671   0.768   6.070
69838SOL    HW111353   0.652   0.804   6.156
69838SOL    HW211354   0.761   0.796   6.051
69839SOL     OW11355   0.338   0.085   5.983
69839SOL    HW111356   0.272   0.074   6.051
69839SOL    HW211357   0.389   0.161   6.011
69840SOL     OW11358  11.475  12.510   9.004
69840SOL    HW111359  11.379  12.506   9.005
69840SOL    HW211360  11.495  12.561   8.926
69841SOL     OW11361  13.498   2.557  12.197
69841SOL    HW111362  13.539   2.598  12.122
69841SOL    HW211363  13.440   2.625  12.233
69842SOL     OW11364   2.174   2.920   2.985
69842SOL    HW111365   2.208   2.841   2.942
69842SOL    HW211366   2.122   2.964   2.918
69843SOL     OW11367   1.231   7.546   3.979
69843SOL    HW111368   1.169   7.494   3.929
69843SOL    HW211369   1.278   7.597   3.913
69844SOL     OW11370   2.366  14.471   6.041
69844SOL    HW111371   2.447  14.479   6.092
69844SOL    HW211372   2.300  14.445   6.104
69845SOL     OW11373  12.386   8.111   9.978
69845SOL    HW111374  12.435   8.101  10.059
69845SOL    HW211375  12.400   8.029   9.931
69846SOL     OW11376  11.323   1.618   5.130
69846SOL    HW111377  11.238   1.573   5.129
69846SOL    HW211378  11.302   1.710   5.143
69847SOL     OW11379   0.530  13.276  12.034
69847SOL    HW111380   0.472  13.222  11.980
69847SOL    HW211381   0.537  13.359  11.986
69848SOL     OW11382   5.770   0.171   4.607
69848SOL    HW111383   5.787   0.109   4.535
69848SOL    HW211384   5.752   0.115   4.683
69849SOL     OW11385  12.958   3.213  12.250
69849SOL    HW111386  13.032   3.155  12.233
69849SOL    HW211387  12.904   3.165  12.313
69850SOL     OW11388   2.078   2.248  13.307
69850SOL    HW111389   2.155   2.283  13.353
69850SOL    HW211390   2.035   2.193  13.372
69851SOL     OW11391   9.931   7.839  13.359
69851SOL    HW111392   9.841   7.810  13.369
69851SOL    HW211393   9.945   7.845  13.264
69852SOL     OW11394   0.076   6.439   0.323
69852SOL    HW111395   0.127   6.476   0.250
69852SOL    HW211396   0.050   6.515   0.375
69853SOL     OW11397   2.799   5.208   3.148
69853SOL    HW111398   2.751   5.159   3.081
69853SOL    HW211399   2.732   5.237   3.210
69854SOL     OW11400  13.397   8.371   4.398
69854SOL    HW111401  13.373   8.448   4.347
69854SOL    HW211402  13.342   8.376   4.476
69855SOL     OW11403   0.597  10.935  13.107
69855SOL    HW111404   0.529  10.876  13.074
69855SOL    HW211405   0.557  10.978  13.182
69856SOL     OW11406   5.167   5.801   1.236
69856SOL    HW111407   5.215   5.723   1.210
69856SOL    HW211408   5.207   5.828   1.318
69857SOL     OW11409   3.953  12.052  14.094
69857SOL    HW111410   3.859  12.052  14.113
69857SOL    HW211411   3.972  11.963  14.068
69858SOL     OW11412   9.396   0.249  12.300
69858SOL    HW111413   9.426   0.294  12.380
69858SOL    HW211414   9.301   0.255  12.304
69859SOL     OW11415  14.198   0.999   1.535
69859SOL    HW111416  14.155   0.985   1.619
69859SOL    HW211417  14.285   0.961   1.546
69860SOL     OW11418  11.611   0.241   3.672
69860SOL    HW111419  11.521   0.255   3.701
69860SOL    HW211420  11.630   0.150   3.698
69861SOL     OW11421   2.624   4.381  14.369
69861SOL    HW111422   2.639   4.475  14.367
69861SOL    HW211423   2.686   4.348  14.433
69862SOL     OW11424   6.535  12.778   9.200
69862SOL    HW111425   6.578  12.836   9.138
69862SOL    HW211426   6.599  12.708   9.217
69863SOL     OW11427   9.610   0.855   0.779
69863SOL    HW111428   9.613   0.871   0.685
69863SOL    HW211429   9.517   0.845   0.799
69864SOL     OW11430   2.495   3.367   6.737
69864SOL    HW111431   2.483   3.392   6.645
69864SOL    HW211432   2.552   3.290   6.734
69865SOL     OW11433   7.301   9.133   2.250
69865SOL    HW111434   7.352   9.195   2.198
69865SOL    HW211435   7.323   9.153   2.340
69866SOL     OW11436   9.065   1.738   9.051
69866SOL    HW111437   9.090   1.767   8.963
69866SOL    HW211438   9.134   1.771   9.108
69867SOL     OW11439   8.575   1.299  13.334
69867SOL    HW111440   8.596   1.217  13.379
69867SOL    HW211441   8.616   1.367  13.388
69868SOL     OW11442  10.624   7.669   7.134
69868SOL    HW111443  10.532   7.646   7.145
69868SOL    HW211444  10.623   7.746   7.076
69869SOL     OW11445  14.633  10.731  10.554
69869SOL    HW111446  14.579  10.716  10.631
69869SOL    HW211447  14.716  10.763  10.588
69870SOL     OW11448   1.341   5.941   5.626
69870SOL    HW111449   1.294   6.022   5.603
69870SOL    HW211450   1.395   5.923   5.550
69871SOL     OW11451  13.674  12.632  12.881
69871SOL    HW111452  13.656  12.549  12.837
69871SOL    HW211453  13.605  12.691  12.850
69872SOL     OW11454   1.792   9.492  10.432
69872SOL    HW111455   1.784   9.584  10.457
69872SOL    HW211456   1.811   9.494  10.338
69873SOL     OW11457   3.330   7.615   0.003
69873SOL    HW111458   3.290   7.616   0.090
69873SOL    HW211459   3.256   7.612  14.822
69874SOL     OW11460   4.559   7.619  11.459
69874SOL    HW111461   4.498   7.599  11.387
69874SOL    HW211462   4.622   7.546  11.457
69875SOL     OW11463   4.947   1.646   8.314
69875SOL    HW111464   4.988   1.584   8.374
69875SOL    HW211465   4.933   1.724   8.366
69876SOL     OW11466   9.649  12.145  14.122
69876SOL    HW111467   9.629  12.104  14.206
69876SOL    HW211468   9.587  12.218  14.115
69877SOL     OW11469   6.271  12.480   8.519
69877SOL    HW111470   6.296  12.515   8.434
69877SOL    HW211471   6.192  12.428   8.501
69878SOL     OW11472   1.091   2.657   9.875
69878SOL    HW111473   1.007   2.652   9.921
69878SOL    HW211474   1.090   2.583   9.815
69879SOL     OW11475   6.870   7.344   0.059
69879SOL    HW111476   6.908   7.270   0.011
69879SOL    HW211477   6.832   7.400  14.870
69880SOL     OW11478   2.551   6.464  10.059
69880SOL    HW111479   2.458   6.461  10.082
69880SOL    HW211480   2.574   6.556  10.066
69881SOL     OW11481   7.977  10.480   0.157
69881SOL    HW111482   7.937  10.396   0.135
69881SOL    HW211483   8.007  10.515   0.073
69882SOL     OW11484  10.716  11.592   9.278
69882SOL    HW111485  10.628  11.603   9.244
69882SOL    HW211486  10.758  11.678   9.267
69883SOL     OW11487   6.228   0.185   3.586
69883SOL    HW111488   6.184   0.261   3.623
69883SOL    HW211489   6.258   0.213   3.500
69884SOL     OW11490   1.194   3.752   1.713
69884SOL    HW111491   1.273   3.792   1.751
69884SOL    HW211492   1.224   3.714   1.631
69885SOL     OW11493   5.405   7.647   7.120
69885SOL    HW111494   5.358   7.730   7.110
69885SOL    HW211495   5.336   7.580   7.117
69886SOL     OW11496   8.382  11.524   7.533
69886SOL    HW111497   8.291  11.492   7.537
69886SOL    HW211498   8.385  11.594   7.599
69887SOL     OW11499  13.613   5.173  13.196
69887SOL    HW111500  13.523   5.151  13.171
69887SOL    HW211501  13.661   5.091  13.188
69888SOL     OW11502   5.676   0.699   5.903
69888SOL    HW111503   5.659   0.745   5.820
69888SOL    HW211504   5.614   0.626   5.902
69889SOL     OW11505   6.840  12.600   0.054
69889SOL    HW111506   6.781  12.526   0.063
69889SOL    HW211507   6.783  12.674   0.033
69890SOL     OW11508  12.937  13.338   3.360
69890SOL    HW111509  12.879  13.338   3.436
69890SOL    HW211510  12.980  13.252   3.364
69891SOL     OW11511  11.461  14.093  14.820
69891SOL    HW111512  11.447  14.083  14.726
69891SOL    HW211513  11.550  14.127  14.827
69892SOL     OW11514   7.567   7.494   6.995
69892SOL    HW111515   7.613   7.483   6.912
69892SOL    HW211516   7.547   7.587   7.000
69893SOL     OW11517   5.452  11.588  10.886
69893SOL    HW111518   5.534  11.635  10.870
69893SOL    HW211519   5.479  11.500  10.911
69894SOL     OW11520   3.243   6.329   9.276
69894SOL    HW111521   3.156   6.329   9.235
69894SOL    HW211522   3.286   6.252   9.241
69895SOL     OW11523  14.851  10.741   4.017
69895SOL    HW111524  14.756  10.736   4.016
69895SOL    HW211525  14.870  10.835   4.019
69896SOL     OW11526   8.543  14.487   1.445
69896SOL    HW111527   8.617  14.447   1.399
69896SOL    HW211528   8.468  14.431   1.424
69897SOL     OW11529   4.471   4.155  10.228
69897SOL    HW111530   4.448   4.213  10.155
69897SOL    HW211531   4.566   4.154  10.229
69898SOL     OW11532   2.557   3.210   2.514
69898SOL    HW111533   2.523   3.298   2.501
69898SOL    HW211534   2.636   3.222   2.568
69899SOL     OW11535   1.436   9.704   4.855
69899SOL    HW111536   1.429   9.796   4.829
69899SOL    HW211537   1.359   9.662   4.816
69900SOL     OW11538   9.849   6.697   5.077
69900SOL    HW111539   9.887   6.657   4.999
69900SOL    HW211540   9.838   6.789   5.055
69901SOL     OW11541  12.479  11.357   0.429
69901SOL    HW111542  12.558  11.328   0.475
69901SOL    HW211543  12.502  11.442   0.392
69902SOL     OW11544   0.836  14.647  12.320
69902SOL    HW111545   0.827  14.647  12.225
69902SOL    HW211546   0.930  14.661  12.335
69903SOL     OW11547   8.573   8.057  13.849
69903SOL    HW111548   8.527   7.978  13.822
69903SOL    HW211549   8.664   8.042  13.824
69904SOL     OW11550   6.995  10.074   4.454
69904SOL    HW111551   6.998  10.032   4.540
69904SOL    HW211552   7.068  10.035   4.406
69905SOL     OW11553   5.020   3.406   0.430
69905SOL    HW111554   5.003   3.406   0.336
69905SOL    HW211555   5.010   3.497   0.456
69906SOL     OW11556  11.545  12.605   9.261
69906SOL    HW111557  11.517  12.583   9.172
69906SOL    HW211558  11.633  12.568   9.269
69907SOL     OW11559  13.347  12.789  10.549
69907SOL    HW111560  13.344  12.808  10.643
69907SOL    HW211561  13.310  12.867  10.507
69908SOL     OW11562   0.720   2.614  14.781
69908SOL    HW111563   0.723   2.638  14.874
69908SOL    HW211564   0.633   2.641  14.752
69909SOL     OW11565   3.819   4.689   6.214
69909SOL    HW111566   3.725   4.710   6.214
69909SOL    HW211567   3.862   4.773   6.195
69910SOL     OW11568   1.460   4.067   6.464
69910SOL    HW111569   1.394   4.136   6.455
69910SOL    HW211570   1.532   4.095   6.407
69911SOL     OW11571   5.180   3.811  10.469
69911SOL    HW111572   5.197   3.795  10.376
69911SOL    HW211573   5.132   3.733  10.499
69912SOL     OW11574  13.622   1.691   3.268
69912SOL    HW111575  13.541   1.647   3.245
69912SOL    HW211576  13.629   1.681   3.363
69913SOL     OW11577   3.776  10.907   3.714
69913SOL    HW111578   3.793  10.895   3.807
69913SOL    HW211579   3.845  10.857   3.670
69914SOL     OW11580   7.857   7.863   2.487
69914SOL    HW111581   7.941   7.893   2.451
69914SOL    HW211582   7.845   7.775   2.451
69915SOL     OW11583   8.218   0.125   9.484
69915SOL    HW111584   8.230   0.109   9.578
69915SOL    HW211585   8.264   0.208   9.469
69916SOL     OW11586   3.532   5.024  12.723
69916SOL    HW111587   3.581   5.004  12.802
69916SOL    HW211588   3.576   5.100  12.685
69917SOL     OW11589   6.331   2.705   3.415
69917SOL    HW111590   6.252   2.720   3.362
69917SOL    HW211591   6.393   2.663   3.355
69918SOL     OW11592   9.525   5.510   9.883
69918SOL    HW111593   9.555   5.421   9.862
69918SOL    HW211594   9.594   5.567   9.850
69919SOL     OW11595   7.903   2.494   1.086
69919SOL    HW111596   7.962   2.486   1.011
69919SOL    HW211597   7.817   2.473   1.051
69920SOL     OW11598   9.624   2.598   4.985
69920SOL    HW111599   9.686   2.668   5.002
69920SOL    HW211600   9.577   2.586   5.067
69921SOL     OW11601   3.906  11.047   7.479
69921SOL    HW111602   3.987  11.023   7.525
69921SOL    HW211603   3.931  11.045   7.386
69922SOL     OW11604   8.924   6.077   9.136
69922SOL    HW111605   8.976   6.149   9.172
69922SOL    HW211606   8.891   6.111   9.053
69923SOL     OW11607   9.597   4.144   1.990
69923SOL    HW111608   9.630   4.065   2.033
69923SOL    HW211609   9.586   4.119   1.898
69924SOL     OW11610   5.536   6.301   7.238
69924SOL    HW111611   5.496   6.387   7.248
69924SOL    HW211612   5.522   6.259   7.323
69925SOL     OW11613   6.516   8.098  11.787
69925SOL    HW111614   6.539   8.187  11.814
69925SOL    HW211615   6.589   8.070  11.731
69926SOL     OW11616  13.114   9.809   6.612
69926SOL    HW111617  13.070   9.876   6.560
69926SOL    HW211618  13.085   9.826   6.702
69927SOL     OW11619   4.092  13.038   6.463
69927SOL    HW111620   4.104  13.108   6.526
69927SOL    HW211621   4.177  13.029   6.419
69928SOL     OW11622   8.464   9.366   7.279
69928SOL    HW111623   8.384   9.378   7.330
69928SOL    HW211624   8.474   9.271   7.272
69929SOL     OW11625   6.547   5.399   4.201
69929SOL    HW111626   6.552   5.380   4.107
69929SOL    HW211627   6.554   5.494   4.207
69930SOL     OW11628  13.481  13.232   5.678
69930SOL    HW111629  13.518  13.314   5.713
69930SOL    HW211630  13.558  13.180   5.654
69931SOL     OW11631   9.424   8.154  13.679
69931SOL    HW111632   9.375   8.236  13.689
69931SOL    HW211633   9.396   8.101  13.754
69932SOL     OW11634   4.005  12.529   0.444
69932SOL    HW111635   4.069  12.522   0.515
69932SOL    HW211636   3.991  12.623   0.434
69933SOL     OW11637   2.978   4.221   4.539
69933SOL    HW111638   3.068   4.198   4.560
69933SOL    HW211639   2.964   4.305   4.584
69934SOL     OW11640   4.780   2.942   9.046
69934SOL    HW111641   4.824   2.929   9.130
69934SOL    HW211642   4.786   3.036   9.030
69935SOL     OW11643  10.541   2.748   4.388
69935SOL    HW111644  10.593   2.725   4.465
69935SOL    HW211645  10.451   2.746   4.418
69936SOL     OW11646   8.671  14.853  10.620
69936SOL    HW111647   8.728  14.776  10.620
69936SOL    HW211648   8.690   0.018  10.702
69937SOL     OW11649   3.905   3.506   8.257
69937SOL    HW111650   3.971   3.463   8.202
69937SOL    HW211651   3.953   3.574   8.303
69938SOL     OW11652  11.823  13.854   2.186
69938SOL    HW111653  11.745  13.871   2.133
69938SOL    HW211654  11.853  13.768   2.157
69939SOL     OW11655   9.201   8.073   0.463
69939SOL    HW111656   9.137   8.092   0.532
69939SOL    HW211657   9.191   7.980   0.445
69940SOL     OW11658  13.577   3.814   6.187
69940SOL    HW111659  13.605   3.735   6.142
69940SOL    HW211660  13.596   3.885   6.126
69941SOL     OW11661   5.469   6.746  13.891
69941SOL    HW111662   5.523   6.680  13.847
69941SOL    HW211663   5.430   6.700  13.965
69942SOL     OW11664   2.400  11.355  14.457
69942SOL    HW111665   2.473  11.388  14.404
69942SOL    HW211666   2.441  11.293  14.518
69943SOL     OW11667   5.728  12.815  11.696
69943SOL    HW111668   5.693  12.750  11.634
69943SOL    HW211669   5.740  12.893  11.643
69944SOL     OW11670   9.103   3.737  13.805
69944SOL    HW111671   9.030   3.674  13.800
69944SOL    HW211672   9.115   3.765  13.715
69945SOL     OW11673  11.968  10.177   9.234
69945SOL    HW111674  12.011  10.103   9.193
69945SOL    HW211675  11.878  10.174   9.202
69946SOL     OW11676  10.070  10.442  12.190
69946SOL    HW111677  10.056  10.353  12.158
69946SOL    HW211678  10.130  10.481  12.126
69947SOL     OW11679  13.252   2.475   3.756
69947SOL    HW111680  13.177   2.534   3.748
69947SOL    HW211681  13.267   2.468   3.850
69948SOL     OW11682   7.654   7.351   0.461
69948SOL    HW111683   7.714   7.393   0.523
69948SOL    HW211684   7.567   7.381   0.487
69949SOL     OW11685   6.823   3.591  10.271
69949SOL    HW111686   6.818   3.682  10.243
69949SOL    HW211687   6.884   3.550  10.209
69950SOL     OW11688  10.793   0.071   6.718
69950SOL    HW111689  10.792   0.165   6.733
69950SOL    HW211690  10.727   0.056   6.651
69951SOL     OW11691   2.561  11.835  11.129
69951SOL    HW111692   2.609  11.753  11.120
69951SOL    HW211693   2.539  11.859  11.039
69952SOL     OW11694   1.554   3.872   9.332
69952SOL    HW111695   1.509   3.789   9.350
69952SOL    HW211696   1.609   3.886   9.410
69953SOL     OW11697  13.847   6.794   3.841
69953SOL    HW111698  13.802   6.728   3.893
69953SOL    HW211699  13.859   6.752   3.755
69954SOL     OW11700   4.833  14.531  11.194
69954SOL    HW111701   4.773  14.482  11.139
69954SOL    HW211702   4.823  14.493  11.281
69955SOL     OW11703   6.008   9.958  11.960
69955SOL    HW111704   6.098   9.986  11.977
69955SOL    HW211705   6.002   9.870  11.996
69956SOL     OW11706   5.458  11.925   5.066
69956SOL    HW111707   5.506  11.968   4.996
69956SOL    HW211708   5.380  11.980   5.080
69957SOL     OW11709  10.097   9.394   6.856
69957SOL    HW111710  10.157   9.350   6.917
69957SOL    HW211711  10.052   9.460   6.910
69958SOL     OW11712   5.123  10.707   6.917
69958SOL    HW111713   5.219  10.701   6.918
69958SOL    HW211714   5.102  10.775   6.981
69959SOL     OW11715  10.105  12.157  13.962
69959SOL    HW111716  10.102  12.061  13.958
69959SOL    HW211717  10.029  12.181  14.015
69960SOL     OW11718   4.168   9.462  12.032
69960SOL    HW111719   4.148   9.388  11.975
69960SOL    HW211720   4.144   9.432  12.120
69961SOL     OW11721   4.166   8.075  13.352
69961SOL    HW111722   4.201   8.158  13.318
69961SOL    HW211723   4.190   8.075  13.444
69962SOL     OW11724  14.515   1.367   0.234
69962SOL    HW111725  14.583   1.427   0.202
69962SOL    HW211726  14.557   1.320   0.306
69963SOL     OW11727   7.144   1.040   4.997
69963SOL    HW111728   7.206   1.009   5.063
69963SOL    HW211729   7.181   1.122   4.965
69964SOL     OW11730   0.814   3.326   4.900
69964SOL    HW111731   0.882   3.390   4.921
69964SOL    HW211732   0.774   3.358   4.820
69965SOL     OW11733   3.457   4.911   0.420
69965SOL    HW111734   3.522   4.961   0.469
69965SOL    HW211735   3.386   4.973   0.403
69966SOL     OW11736  13.893  11.438   0.614
69966SOL    HW111737  13.816  11.424   0.670
69966SOL    HW211738  13.935  11.352   0.609
69967SOL     OW11739   3.591   4.836  13.876
69967SOL    HW111740   3.516   4.882  13.838
69967SOL    HW211741   3.654   4.829  13.803
69968SOL     OW11742   2.203  14.316   7.986
69968SOL    HW111743   2.251  14.288   7.908
69968SOL    HW211744   2.183  14.408   7.970
69969SOL     OW11745   5.949  12.179   1.730
69969SOL    HW111746   6.025  12.238   1.725
69969SOL    HW211747   5.889  12.214   1.664
69970SOL     OW11748   8.722   3.412   9.946
69970SOL    HW111749   8.635   3.373   9.956
69970SOL    HW211750   8.716   3.495   9.993
69971SOL     OW11751   2.385   9.432  12.702
69971SOL    HW111752   2.381   9.358  12.762
69971SOL    HW211753   2.445   9.404  12.633
69972SOL     OW11754   0.584   1.606   3.828
69972SOL    HW111755   0.546   1.581   3.744
69972SOL    HW211756   0.665   1.652   3.805
69973SOL     OW11757   9.589   1.363   9.376
69973SOL    HW111758   9.551   1.443   9.339
69973SOL    HW211759   9.558   1.293   9.318
69974SOL     OW11760   4.189   4.380  12.700
69974SOL    HW111761   4.235   4.415  12.776
69974SOL    HW211762   4.258   4.362  12.636
69975SOL     OW11763  11.003   0.514   2.777
69975SOL    HW111764  11.031   0.606   2.775
69975SOL    HW211765  10.919   0.514   2.731
69976SOL     OW11766   4.430   8.952   0.009
69976SOL    HW111767   4.475   8.897  14.825
69976SOL    HW211768   4.453   9.042  14.862
69977SOL     OW11769   1.284   6.685  12.622
69977SOL    HW111770   1.249   6.600  12.650
69977SOL    HW211771   1.208   6.741  12.614
69978SOL     OW11772   3.944   0.992   0.833
69978SOL    HW111773   3.885   0.984   0.908
69978SOL    HW211774   3.887   1.009   0.759
69979SOL     OW11775  12.274   9.635   8.738
69979SOL    HW111776  12.202   9.691   8.765
69979SOL    HW211777  12.255   9.615   8.646
69980SOL     OW11778  12.777   6.207  11.497
69980SOL    HW111779  12.781   6.279  11.560
69980SOL    HW211780  12.693   6.219  11.452
69981SOL     OW11781   9.577  10.275  13.313
69981SOL    HW111782   9.574  10.238  13.225
69981SOL    HW211783   9.497  10.244  13.355
69982SOL     OW11784  13.310   4.407  11.073
69982SOL    HW111785  13.227   4.451  11.055
69982SOL    HW211786  13.291   4.314  11.062
69983SOL     OW11787   1.374   7.755   1.106
69983SOL    HW111788   1.339   7.741   1.018
69983SOL    HW211789   1.437   7.827   1.095
69984SOL     OW11790  10.634   8.671  10.578
69984SOL    HW111791  10.574   8.632  10.642
69984SOL    HW211792  10.691   8.728  10.630
69985SOL     OW11793   1.425   6.874  12.758
69985SOL    HW111794   1.351   6.910  12.806
69985SOL    HW211795   1.394   6.789  12.726
69986SOL     OW11796  13.388  10.592   5.970
69986SOL    HW111797  13.328  10.525   6.004
69986SOL    HW211798  13.425  10.633   6.047
69987SOL     OW11799   8.952   7.134   1.246
69987SOL    HW111800   8.886   7.077   1.285
69987SOL    HW211801   8.969   7.200   1.313
69988SOL     OW11802   5.189   7.864  14.070
69988SOL    HW111803   5.113   7.833  14.120
69988SOL    HW211804   5.246   7.787  14.063
69989SOL     OW11805   6.126  13.190   5.904
69989SOL    HW111806   6.078  13.231   5.833
69989SOL    HW211807   6.109  13.096   5.894
69990SOL     OW11808   4.762   3.012   1.326
69990SOL    HW111809   4.846   2.967   1.340
69990SOL    HW211810   4.750   3.065   1.405
69991SOL     OW11811  11.274   2.352   2.157
69991SOL    HW111812  11.192   2.378   2.199
69991SOL    HW211813  11.298   2.270   2.201
69992SOL     OW11814   8.307  13.357   7.195
69992SOL    HW111815   8.219  13.394   7.183
69992SOL    HW211816   8.329  13.320   7.109
69993SOL     OW11817   1.517  11.274   1.757
69993SOL    HW111818   1.450  11.213   1.787
69993SOL    HW211819   1.493  11.358   1.797
69994SOL     OW11820   2.358   4.195  14.059
69994SOL    HW111821   2.403   4.165  13.979
69994SOL    HW211822   2.274   4.151  14.057
69995SOL     OW11823  12.562  11.739   8.943
69995SOL    HW111824  12.475  11.700   8.956
69995SOL    HW211825  12.596  11.754   9.031
69996SOL     OW11826  14.841  11.645  12.242
69996SOL    HW111827  14.748  11.666  12.246
69996SOL    HW211828  14.874  11.668  12.329
69997SOL     OW11829   8.626   1.263  10.388
69997SOL    HW111830   8.573   1.327  10.342
69997SOL    HW211831   8.640   1.193  10.325
69998SOL     OW11832   0.628  11.316  10.242
69998SOL    HW111833   0.712  11.270  10.240
69998SOL    HW211834   0.573  11.264  10.300
69999SOL     OW11835   0.086   3.440  13.690
69999SOL    HW111836   0.074   3.390  13.610
69999SOL    HW211837   0.176   3.421  13.717
70000SOL     OW11838   1.075   7.422  13.883
70000SOL    HW111839   1.135   7.363  13.836
70000SOL    HW211840   1.080   7.394  13.974
70001SOL     OW11841   1.020  11.057   6.325
70001SOL    HW111842   1.013  10.966   6.297
70001SOL    HW211843   0.969  11.106   6.261
70002SOL     OW11844   9.572   0.094   4.024
70002SOL    HW111845   9.623   0.030   4.073
70002SOL    HW211846   9.577   0.174   4.077
70003SOL     OW11847   0.390   7.811   4.947
70003SOL    HW111848   0.441   7.857   5.013
70003SOL    HW211849   0.305   7.796   4.988
70004SOL     OW11850   3.273  14.093   1.769
70004SOL    HW111851   3.190  14.104   1.817
70004SOL    HW211852   3.304  14.183   1.755
70005SOL     OW11853   4.931   2.272   8.101
70005SOL    HW111854   4.913   2.195   8.047
70005SOL    HW211855   4.870   2.338   8.068
70006SOL     OW11856  11.117   7.834  13.741
70006SOL    HW111857  11.140   7.742  13.755
70006SOL    HW211858  11.116   7.872  13.829
70007SOL     OW11859   1.303   6.928   2.313
70007SOL    HW111860   1.330   7.016   2.288
70007SOL    HW211861   1.267   6.891   2.232
70008SOL     OW11862   7.548   6.093  10.161
70008SOL    HW111863   7.626   6.040  10.143
70008SOL    HW211864   7.574   6.182  10.137
70009SOL     OW11865   6.039   2.787  10.649
70009SOL    HW111866   6.053   2.864  10.595
70009SOL    HW211867   6.049   2.819  10.739
70010SOL     OW11868   5.254   8.685  11.489
70010SOL    HW111869   5.217   8.751  11.547
70010SOL    HW211870   5.184   8.621  11.477
70011SOL     OW11871   5.456   8.069   3.697
70011SOL    HW111872   5.428   7.999   3.638
70011SOL    HW211873   5.379   8.086   3.751
70012SOL     OW11874   7.897   7.632   7.781
70012SOL    HW111875   7.865   7.544   7.800
70012SOL    HW211876   7.894   7.678   7.865
70013SOL     OW11877   9.865  11.566   5.190
70013SOL    HW111878   9.826  11.499   5.134
70013SOL    HW211879   9.941  11.523   5.229
70014SOL     OW11880   2.737   5.275   4.287
70014SOL    HW111881   2.790   5.202   4.318
70014SOL    HW211882   2.683   5.300   4.363
70015SOL     OW11883  11.983  11.762   1.351
70015SOL    HW111884  12.043  11.688   1.365
70015SOL    HW211885  11.943  11.744   1.266
70016SOL     OW11886   5.607   7.051   6.291
70016SOL    HW111887   5.612   7.080   6.200
70016SOL    HW211888   5.628   6.958   6.288
70017SOL     OW11889   9.120   7.888  14.813
70017SOL    HW111890   9.163   7.915  14.732
70017SOL    HW211891   9.028   7.910  14.799
70018SOL     OW11892   9.037  12.194   9.231
70018SOL    HW111893   9.066  12.219   9.319
70018SOL    HW211894   9.034  12.099   9.233
70019SOL     OW11895  11.991   5.459  14.108
70019SOL    HW111896  12.025   5.411  14.033
70019SOL    HW211897  12.008   5.551  14.087
70020SOL     OW11898   4.496   6.704   8.823
70020SOL    HW111899   4.510   6.799   8.823
70020SOL    HW211900   4.449   6.687   8.904
70021SOL     OW11901   5.273   2.795   6.633
70021SOL    HW111902   5.345   2.771   6.692
70021SOL    HW211903   5.202   2.735   6.655
70022SOL     OW11904   3.816   2.336  13.520
70022SOL    HW111905   3.748   2.395  13.486
70022SOL    HW211906   3.771   2.253  13.536
70023SOL     OW11907  14.589   8.298   6.099
70023SOL    HW111908  14.598   8.275   6.191
70023SOL    HW211909  14.494   8.310   6.086
70024SOL     OW11910   7.583  13.768  11.273
70024SOL    HW111911   7.523  13.834  11.239
70024SOL    HW211912   7.565  13.766  11.367
70025SOL     OW11913   9.453  11.816   6.226
70025SOL    HW111914   9.366  11.779   6.218
70025SOL    HW211915   9.449  11.899   6.178
70026SOL     OW11916   0.517   1.939   8.512
70026SOL    HW111917   0.452   1.937   8.582
70026SOL    HW211918   0.506   1.857   8.465
70027SOL     OW11919   7.782   7.943   8.178
70027SOL    HW111920   7.840   7.944   8.253
70027SOL    HW211921   7.744   8.031   8.175
70028SOL     OW11922   8.911  11.704   9.903
70028SOL    HW111923   8.893  11.610   9.898
70028SOL    HW211924   8.853  11.736   9.972
70029SOL     OW11925   6.021   5.363   0.611
70029SOL    HW111926   5.957   5.429   0.639
70029SOL    HW211927   6.104   5.396   0.644
70030SOL     OW11928   9.319   3.861   6.480
70030SOL    HW111929   9.376   3.833   6.408
70030SOL    HW211930   9.243   3.804   6.473
70031SOL     OW11931  14.191   2.652   3.860
70031SOL    HW111932  14.265   2.598   3.888
70031SOL    HW211933  14.170   2.621   3.772
70032SOL     OW11934   2.697  14.683   7.980
70032SOL    HW111935   2.680  14.619   8.050
70032SOL    HW211936   2.648  14.761   8.007
70033SOL     OW11937   0.593  13.192  13.893
70033SOL    HW111938   0.622  13.117  13.945
70033SOL    HW211939   0.674  13.239  13.872
70034SOL     OW11940  10.927  13.643   6.118
70034SOL    HW111941  10.946  13.681   6.204
70034SOL    HW211942  10.942  13.549   6.129
70035SOL     OW11943   4.762  13.713   1.571
70035SOL    HW111944   4.723  13.762   1.644
70035SOL    HW211945   4.687  13.679   1.522
70036SOL     OW11946   9.675   7.092  14.453
70036SOL    HW111947   9.605   7.061  14.395
70036SOL    HW211948   9.629   7.129  14.528
70037SOL     OW11949  10.546   0.685   7.191
70037SOL    HW111950  10.478   0.743   7.156
70037SOL    HW211951  10.517   0.665   7.280
70038SOL     OW11952   5.320  10.009   7.994
70038SOL    HW111953   5.388   9.958   7.950
70038SOL    HW211954   5.291   9.954   8.066
70039SOL     OW11955  10.339   3.580   6.590
70039SOL    HW111956  10.289   3.575   6.508
70039SOL    HW211957  10.275   3.613   6.654
70040SOL     OW11958  11.184  11.875   2.990
70040SOL    HW111959  11.273  11.899   2.962
70040SOL    HW211960  11.190  11.782   3.010
70041SOL     OW11961  14.684   4.273  12.281
70041SOL    HW111962  14.740   4.326  12.338
70041SOL    HW211963  14.633   4.219  12.341
70042SOL     OW11964   5.562  11.317   3.384
70042SOL    HW111965   5.625  11.246   3.398
70042SOL    HW211966   5.566  11.334   3.289
70043SOL     OW11967   2.414  11.365   5.361
70043SOL    HW111968   2.497  11.330   5.395
70043SOL    HW211969   2.407  11.451   5.401
70044SOL     OW11970   7.465   8.209   0.943
70044SOL    HW111971   7.428   8.194   1.030
70044SOL    HW211972   7.389   8.218   0.885
70045SOL     OW11973   0.240   3.483   3.933
70045SOL    HW111974   0.218   3.429   3.857
70045SOL    HW211975   0.274   3.421   3.997
70046SOL     OW11976   7.514   2.163   7.623
70046SOL    HW111977   7.500   2.231   7.689
70046SOL    HW211978   7.502   2.081   7.671
70047SOL     OW11979   5.914   8.048  13.080
70047SOL    HW111980   5.973   8.037  13.155
70047SOL    HW211981   5.830   8.014  13.110
70048SOL     OW11982   5.723   4.698  10.495
70048SOL    HW111983   5.772   4.736  10.422
70048SOL    HW211984   5.705   4.608  10.468
70049SOL     OW11985   7.219   9.214   6.632
70049SOL    HW111986   7.306   9.252   6.627
70049SOL    HW211987   7.165   9.283   6.671
70050SOL     OW11988   1.256   0.121   9.699
70050SOL    HW111989   1.293   0.175   9.769
70050SOL    HW211990   1.230   0.040   9.742
70051SOL     OW11991   1.493   8.162  11.527
70051SOL    HW111992   1.571   8.213  11.548
70051SOL    HW211993   1.522   8.102  11.458
70052SOL     OW11994   8.805   3.938   5.780
70052SOL    HW111995   8.778   4.001   5.847
70052SOL    HW211996   8.741   3.949   5.710
70053SOL     OW11997   5.073  13.736   7.868
70053SOL    HW111998   5.028  13.707   7.789
70053SOL    HW211999   5.089  13.830   7.854
70054SOL     OW12000   2.434   3.786   1.087
70054SOL    HW112001   2.367   3.722   1.113
70054SOL    HW212002   2.453   3.765   0.996
70055SOL     OW12003   6.621   9.711   7.721
70055SOL    HW112004   6.561   9.709   7.795
70055SOL    HW212005   6.600   9.632   7.671
70056SOL     OW12006   1.087   4.107   3.391
70056SOL    HW112007   1.135   4.087   3.472
70056SOL    HW212008   1.031   4.181   3.414
70057SOL     OW12009  11.688   0.795   6.200
70057SOL    HW112010  11.615   0.736   6.219
70057SOL    HW212011  11.751   0.778   6.270
70058SOL     OW12012   3.763  14.537  12.893
70058SOL    HW112013   3.684  14.564  12.846
70058SOL    HW212014   3.835  14.582  12.847
70059SOL     OW12015  11.783   3.408  13.681
70059SOL    HW112016  11.873   3.386  13.655
70059SOL    HW212017  11.785   3.404  13.776
70060SOL     OW12018   7.162   8.006   8.865
70060SOL    HW112019   7.233   7.998   8.802
70060SOL    HW212020   7.183   8.085   8.915
70061SOL     OW12021  12.057   6.904   3.114
70061SOL    HW112022  12.150   6.921   3.128
70061SOL    HW212023  12.022   6.989   3.087
70062SOL     OW12024   4.143   1.647  10.138
70062SOL    HW112025   4.163   1.592  10.062
70062SOL    HW212026   4.057   1.618  10.168
70063SOL     OW12027  12.913   7.495  14.716
70063SOL    HW112028  12.995   7.545  14.716
70063SOL    HW212029  12.908   7.458  14.804
70064SOL     OW12030   7.287   0.616  11.842
70064SOL    HW112031   7.296   0.674  11.766
70064SOL    HW212032   7.343   0.655  11.909
70065SOL     OW12033   6.166   9.738   7.233
70065SOL    HW112034   6.174   9.725   7.139
70065SOL    HW212035   6.142   9.830   7.243
70066SOL     OW12036   5.802  14.669  14.162
70066SOL    HW112037   5.893  14.696  14.176
70066SOL    HW212038   5.804  14.616  14.083
70067SOL     OW12039   1.412   4.950   0.685
70067SOL    HW112040   1.338   4.968   0.743
70067SOL    HW212041   1.488   4.985   0.732
70068SOL     OW12042   5.422  12.485  12.769
70068SOL    HW112043   5.335  12.504  12.735
70068SOL    HW212044   5.482  12.517  12.701
70069SOL     OW12045   9.166  14.527   8.385
70069SOL    HW112046   9.245  14.572   8.356
70069SOL    HW212047   9.168  14.532   8.480
70070SOL     OW12048  11.295   6.604   5.986
70070SOL    HW112049  11.366   6.611   5.923
70070SOL    HW212050  11.329   6.644   6.066
70071SOL     OW12051   3.586  12.998   8.158
70071SOL    HW112052   3.681  12.989   8.164
70071SOL    HW212053   3.559  12.926   8.101
70072SOL     OW12054   2.645  13.177   7.739
70072SOL    HW112055   2.718  13.119   7.715
70072SOL    HW212056   2.585  13.172   7.664
70073SOL     OW12057   5.258  12.246   8.951
70073SOL    HW112058   5.308  12.293   9.018
70073SOL    HW212059   5.303  12.162   8.941
70074SOL     OW12060   9.041  10.489  11.907
70074SOL    HW112061   8.954  10.450  11.899
70074SOL    HW212062   9.063  10.519  11.819
70075SOL     OW12063   4.456   4.877   4.076
70075SOL    HW112064   4.495   4.845   4.158
70075SOL    HW212065   4.382   4.930   4.103
70076SOL     OW12066   7.060   8.255   0.250
70076SOL    HW112067   6.982   8.310   0.239
70076SOL    HW212068   7.133   8.317   0.254
70077SOL     OW12069   6.630  10.919  13.708
70077SOL    HW112070   6.693  10.848  13.719
70077SOL    HW212071   6.544  10.876  13.714
70078SOL     OW12072   8.098   8.253  14.194
70078SOL    HW112073   8.029   8.319  14.189
70078SOL    HW212074   8.056   8.172  14.165
70079SOL     OW12075  11.030  13.223   5.113
70079SOL    HW112076  10.942  13.244   5.081
70079SOL    HW212077  11.067  13.165   5.046
70080SOL     OW12078   4.842   4.736   3.096
70080SOL    HW112079   4.771   4.679   3.124
70080SOL    HW212080   4.845   4.724   3.001
70081SOL     OW12081   6.662   5.744  11.413
70081SOL    HW112082   6.734   5.727  11.473
70081SOL    HW212083   6.611   5.813  11.454
70082SOL     OW12084  14.844   0.691   7.931
70082SOL    HW112085   0.017   0.726   7.859
70082SOL    HW212086   0.003   0.606   7.950
70083SOL     OW12087   7.828   0.336   6.987
70083SOL    HW112088   7.746   0.379   7.013
70083SOL    HW212089   7.838   0.361   6.895
70084SOL     OW12090   2.490   5.431  10.459
70084SOL    HW112091   2.575   5.468  10.438
70084SOL    HW212092   2.506   5.370  10.531
70085SOL     OW12093   1.313   0.991  10.463
70085SOL    HW112094   1.297   1.002  10.556
70085SOL    HW212095   1.328   1.079  10.430
70086SOL     OW12096  13.642  13.625   7.763
70086SOL    HW112097  13.698  13.567   7.815
70086SOL    HW212098  13.667  13.606   7.672
70087SOL     OW12099  10.878   7.222   7.945
70087SOL    HW112100  10.906   7.307   7.912
70087SOL    HW212101  10.845   7.239   8.033
70088SOL     OW12102   0.694  12.521  11.901
70088SOL    HW112103   0.691  12.440  11.850
70088SOL    HW212104   0.613  12.566  11.878
70089SOL     OW12105   9.662  13.618   9.690
70089SOL    HW112106   9.637  13.591   9.602
70089SOL    HW212107   9.752  13.587   9.700
70090SOL     OW12108   5.677   4.269   3.842
70090SOL    HW112109   5.678   4.237   3.752
70090SOL    HW212110   5.644   4.358   3.836
70091SOL     OW12111  12.066   9.988   2.728
70091SOL    HW112112  12.025  10.040   2.659
70091SOL    HW212113  12.016  10.010   2.807
70092SOL     OW12114  10.725   3.076   9.961
70092SOL    HW112115  10.764   3.048  10.044
70092SOL    HW212116  10.738   3.171   9.959
70093SOL     OW12117   4.541   8.176   0.021
70093SOL    HW112118   4.527   8.270   0.012
70093SOL    HW212119   4.486   8.151   0.095
70094SOL     OW12120   4.925   6.411   2.595
70094SOL    HW112121   4.963   6.421   2.683
70094SOL    HW212122   4.830   6.407   2.611
70095SOL     OW12123  13.775   1.007   8.166
70095SOL    HW112124  13.799   1.003   8.074
70095SOL    HW212125  13.850   1.051   8.208
70096SOL     OW12126   4.493   9.572   8.507
70096SOL    HW112127   4.575   9.532   8.537
70096SOL    HW212128   4.454   9.610   8.585
70097SOL     OW12129   0.387  13.888   7.353
70097SOL    HW112130   0.443  13.859   7.281
70097SOL    HW212131   0.399  13.821   7.420
70098SOL     OW12132  14.622   5.744   8.487
70098SOL    HW112133  14.569   5.778   8.559
70098SOL    HW212134  14.567   5.678   8.445
70099SOL     OW12135  14.328   3.965   7.352
70099SOL    HW112136  14.339   3.880   7.310
70099SOL    HW212137  14.393   4.021   7.311
70100SOL     OW12138   4.997   0.314   6.801
70100SOL    HW112139   4.965   0.270   6.722
70100SOL    HW212140   4.952   0.269   6.873
70101SOL     OW12141   5.901   0.186   7.991
70101SOL    HW112142   5.835   0.155   7.929
70101SOL    HW212143   5.906   0.117   8.057
70102SOL     OW12144   2.579  14.263   1.400
70102SOL    HW112145   2.592  14.353   1.371
70102SOL    HW212146   2.494  14.238   1.363
70103SOL     OW12147  12.656   5.563   1.161
70103SOL    HW112148  12.577   5.526   1.122
70103SOL    HW212149  12.683   5.499   1.226
70104SOL     OW12150  10.765  12.824   1.488
70104SOL    HW112151  10.825  12.754   1.514
70104SOL    HW212152  10.708  12.784   1.423
70105SOL     OW12153   2.043   6.404   4.733
70105SOL    HW112154   2.049   6.408   4.638
70105SOL    HW212155   2.052   6.311   4.754
70106SOL     OW12156   4.394   7.694  10.113
70106SOL    HW112157   4.455   7.707  10.185
70106SOL    HW212158   4.307   7.704  10.153
70107SOL     OW12159   5.875   7.514   7.181
70107SOL    HW112160   5.828   7.595   7.202
70107SOL    HW212161   5.815   7.467   7.123
70108SOL     OW12162   1.206   6.936   3.241
70108SOL    HW112163   1.277   7.000   3.251
70108SOL    HW212164   1.213   6.880   3.318
70109SOL     OW12165   4.193   9.928  13.229
70109SOL    HW112166   4.189   9.994  13.160
70109SOL    HW212167   4.102   9.911  13.252
70110SOL     OW12168   3.427  14.660   2.293
70110SOL    HW112169   3.419  14.752   2.318
70110SOL    HW212170   3.521  14.643   2.296
70111SOL     OW12171   6.559  13.480  12.666
70111SOL    HW112172   6.465  13.469  12.680
70111SOL    HW212173   6.600  13.426  12.734
70112SOL     OW12174  10.250  14.634   9.089
70112SOL    HW112175  10.344  14.651   9.078
70112SOL    HW212176  10.243  14.538   9.094
70113SOL     OW12177   4.172   8.287   6.036
70113SOL    HW112178   4.158   8.195   6.054
70113SOL    HW212179   4.245   8.312   6.092
70114SOL     OW12180  13.938   0.208   6.568
70114SOL    HW112181  13.877   0.222   6.495
70114SOL    HW212182  13.960   0.116   6.563
70115SOL     OW12183   2.498   8.043  10.507
70115SOL    HW112184   2.533   8.126  10.474
70115SOL    HW212185   2.532   8.037  10.597
70116SOL     OW12186   5.255   4.087  13.750
70116SOL    HW112187   5.316   4.044  13.691
70116SOL    HW212188   5.304   4.161  13.786
70117SOL     OW12189  14.599  14.207  12.553
70117SOL    HW112190  14.689  14.198  12.582
70117SOL    HW212191  14.558  14.122  12.573
70118SOL     OW12192   8.563  11.931  12.034
70118SOL    HW112193   8.619  11.867  12.078
70118SOL    HW212194   8.584  11.921  11.941
70119SOL     OW12195   4.607   1.593   9.914
70119SOL    HW112196   4.641   1.682   9.928
70119SOL    HW212197   4.664   1.556   9.847
70120SOL     OW12198   2.869   7.301   7.925
70120SOL    HW112199   2.885   7.387   7.887
70120SOL    HW212200   2.954   7.275   7.961
70121SOL     OW12201  10.362   0.913  12.237
70121SOL    HW112202  10.337   1.002  12.263
70121SOL    HW212203  10.355   0.862  12.318
70122SOL     OW12204   8.506   6.249   4.390
70122SOL    HW112205   8.535   6.304   4.463
70122SOL    HW212206   8.524   6.302   4.312
70123SOL     OW12207  10.484  11.140   5.648
70123SOL    HW112208  10.457  11.203   5.715
70123SOL    HW212209  10.564  11.177   5.610
70124SOL     OW12210   4.594   1.142   9.864
70124SOL    HW112211   4.559   1.053   9.860
70124SOL    HW212212   4.651   1.149   9.787
70125SOL     OW12213   8.202   3.317   4.803
70125SOL    HW112214   8.292   3.337   4.831
70125SOL    HW212215   8.213   3.273   4.719
70126SOL     OW12216   5.658   0.916   9.939
70126SOL    HW112217   5.749   0.935   9.961
70126SOL    HW212218   5.607   0.963  10.004
70127SOL     OW12219   0.854  12.905  11.126
70127SOL    HW112220   0.777  12.955  11.153
70127SOL    HW212221   0.912  12.969  11.086
70128SOL     OW12222  13.706   2.586  14.462
70128SOL    HW112223  13.666   2.538  14.534
70128SOL    HW212224  13.639   2.586  14.393
70129SOL     OW12225  12.897  11.274   8.166
70129SOL    HW112226  12.916  11.208   8.232
70129SOL    HW212227  12.843  11.229   8.101
70130SOL     OW12228  11.818   7.137   6.254
70130SOL    HW112229  11.771   7.176   6.180
70130SOL    HW212230  11.906   7.122   6.220
70131SOL     OW12231   8.250  10.685   5.287
70131SOL    HW112232   8.296  10.603   5.272
70131SOL    HW212233   8.171  10.678   5.232
70132SOL     OW12234   5.846  10.981   1.996
70132SOL    HW112235   5.846  10.886   1.998
70132SOL    HW212236   5.804  11.003   1.912
70133SOL     OW12237  13.758   0.801   3.736
70133SOL    HW112238  13.746   0.807   3.831
70133SOL    HW212239  13.827   0.737   3.725
70134SOL     OW12240   3.883   1.693  10.608
70134SOL    HW112241   3.851   1.748  10.680
70134SOL    HW212242   3.968   1.661  10.639
70135SOL     OW12243   3.616   2.725   8.746
70135SOL    HW112244   3.704   2.761   8.754
70135SOL    HW212245   3.629   2.630   8.743
70136SOL     OW12246   8.399  14.277   2.348
70136SOL    HW112247   8.431  14.269   2.437
70136SOL    HW212248   8.462  14.334   2.304
70137SOL     OW12249   7.916   0.467   5.314
70137SOL    HW112250   7.897   0.521   5.237
70137SOL    HW212251   7.995   0.507   5.352
70138SOL     OW12252   3.847   1.909   4.873
70138SOL    HW112253   3.781   1.974   4.850
70138SOL    HW212254   3.849   1.850   4.797
70139SOL     OW12255   6.339   9.464  12.531
70139SOL    HW112256   6.339   9.369  12.547
70139SOL    HW212257   6.430   9.491  12.542
70140SOL     OW12258   3.418   5.787  14.316
70140SOL    HW112259   3.412   5.868  14.366
70140SOL    HW212260   3.424   5.816  14.225
70141SOL     OW12261   6.749  11.056   1.537
70141SOL    HW112262   6.712  11.040   1.451
70141SOL    HW212263   6.673  11.065   1.595
70142SOL     OW12264  14.007   3.285   6.519
70142SOL    HW112265  13.961   3.202   6.533
70142SOL    HW212266  14.075   3.286   6.587
70143SOL     OW12267  12.702   1.583   5.217
70143SOL    HW112268  12.756   1.644   5.269
70143SOL    HW212269  12.684   1.631   5.137
70144SOL     OW12270   5.706  14.064   4.140
70144SOL    HW112271   5.694  14.002   4.069
70144SOL    HW212272   5.793  14.044   4.175
70145SOL     OW12273   8.966   5.971   0.815
70145SOL    HW112274   9.049   6.004   0.778
70145SOL    HW212275   8.973   5.990   0.908
70146SOL     OW12276   7.343  13.654  10.977
70146SOL    HW112277   7.397  13.687  10.905
70146SOL    HW212278   7.323  13.732  11.029
70147SOL     OW12279  10.205   5.350   5.472
70147SOL    HW112280  10.214   5.283   5.405
70147SOL    HW212281  10.237   5.430   5.431
70148SOL     OW12282   6.901   5.303   4.098
70148SOL    HW112283   6.883   5.397   4.107
70148SOL    HW212284   6.996   5.295   4.106
70149SOL     OW12285   8.354   6.551  10.434
70149SOL    HW112286   8.373   6.457  10.432
70149SOL    HW212287   8.283   6.560  10.496
70150SOL     OW12288  11.918  14.642   3.549
70150SOL    HW112289  11.885  14.710   3.491
70150SOL    HW212290  11.938  14.688   3.631
70151SOL     OW12291   8.808  13.203  13.476
70151SOL    HW112292   8.759  13.139  13.425
70151SOL    HW212293   8.749  13.227  13.548
70152SOL     OW12294   9.390   1.906   5.597
70152SOL    HW112295   9.406   1.875   5.508
70152SOL    HW212296   9.337   1.985   5.586
70153SOL     OW12297  12.153   4.069   8.271
70153SOL    HW112298  12.155   4.024   8.355
70153SOL    HW212299  12.187   4.157   8.290
70154SOL     OW12300   3.000   3.100   5.491
70154SOL    HW112301   3.030   3.032   5.431
70154SOL    HW212302   3.058   3.174   5.476
70155SOL     OW12303   2.730   8.499   7.317
70155SOL    HW112304   2.731   8.483   7.222
70155SOL    HW212305   2.694   8.588   7.325
70156SOL     OW12306   9.454  13.894   8.674
70156SOL    HW112307   9.478  13.980   8.641
70156SOL    HW212308   9.451  13.838   8.596
70157SOL     OW12309   5.168  13.362  11.484
70157SOL    HW112310   5.099  13.355  11.549
70157SOL    HW212311   5.123  13.382  11.402
70158SOL     OW12312  12.201   8.369   0.530
70158SOL    HW112313  12.133   8.365   0.462
70158SOL    HW212314  12.255   8.292   0.513
70159SOL     OW12315   0.371   7.459  10.937
70159SOL    HW112316   0.290   7.490  10.895
70159SOL    HW212317   0.432   7.532  10.929
70160SOL     OW12318   4.167  10.378   5.207
70160SOL    HW112319   4.253  10.342   5.186
70160SOL    HW212320   4.182  10.432   5.284
70161SOL     OW12321   7.088   8.416  13.138
70161SOL    HW112322   7.174   8.385  13.113
70161SOL    HW212323   7.027   8.353  13.100
70162SOL     OW12324  12.137   6.542  12.768
70162SOL    HW112325  12.140   6.473  12.702
70162SOL    HW212326  12.087   6.504  12.840
70163SOL     OW12327   1.919   6.268  12.445
70163SOL    HW112328   1.836   6.234  12.411
70163SOL    HW212329   1.983   6.249  12.377
70164SOL     OW12330  12.575  14.464   0.159
70164SOL    HW112331  12.639  14.509   0.102
70164SOL    HW212332  12.627  14.431   0.232
70165SOL     OW12333   1.876   3.762   3.775
70165SOL    HW112334   1.925   3.765   3.693
70165SOL    HW212335   1.845   3.852   3.789
70166SOL     OW12336  10.435  12.933  12.617
70166SOL    HW112337  10.423  12.851  12.664
70166SOL    HW212338  10.460  12.996  12.685
70167SOL     OW12339   6.061   7.476   8.062
70167SOL    HW112340   6.118   7.553   8.065
70167SOL    HW212341   6.059   7.451   7.969
70168SOL     OW12342   4.646   9.274   0.235
70168SOL    HW112343   4.636   9.231   0.319
70168SOL    HW212344   4.694   9.355   0.254
70169SOL     OW12345   1.222   2.983  12.735
70169SOL    HW112346   1.278   2.915  12.774
70169SOL    HW212347   1.257   2.994  12.647
70170SOL     OW12348  13.734  14.026   8.210
70170SOL    HW112349  13.704  13.966   8.141
70170SOL    HW212350  13.805  13.979   8.253
70171SOL     OW12351   1.274   8.612  14.564
70171SOL    HW112352   1.289   8.635  14.472
70171SOL    HW212353   1.353   8.566  14.591
70172SOL     OW12354   9.740  12.792   8.419
70172SOL    HW112355   9.710  12.837   8.498
70172SOL    HW212356   9.705  12.703   8.428
70173SOL     OW12357   7.066   0.527   5.587
70173SOL    HW112358   7.091   0.551   5.497
70173SOL    HW212359   6.991   0.469   5.576
70174SOL     OW12360   5.484  14.227   3.344
70174SOL    HW112361   5.429  14.303   3.325
70174SOL    HW212362   5.571  14.251   3.309
70175SOL     OW12363  10.926  14.630  13.751
70175SOL    HW112364  10.889  14.706  13.705
70175SOL    HW212365  10.868  14.618  13.827
70176SOL     OW12366  14.261   9.834   2.547
70176SOL    HW112367  14.304   9.920   2.542
70176SOL    HW212368  14.328   9.772   2.518
70177SOL     OW12369   4.534   2.995  11.192
70177SOL    HW112370   4.477   2.926  11.226
70177SOL    HW212371   4.513   3.072  11.244
70178SOL     OW12372  13.289   5.142  10.746
70178SOL    HW112373  13.364   5.194  10.776
70178SOL    HW212374  13.212   5.189  10.780
70179SOL     OW12375  10.295   4.545   2.817
70179SOL    HW112376  10.267   4.524   2.728
70179SOL    HW212377  10.298   4.460   2.862
70180SOL     OW12378  13.677   0.757   6.259
70180SOL    HW112379  13.611   0.785   6.321
70180SOL    HW212380  13.627   0.721   6.185
70181SOL     OW12381   0.058   4.672   8.077
70181SOL    HW112382   0.041   4.711   7.991
70181SOL    HW212383   0.058   4.578   8.061
70182SOL     OW12384   8.543   6.261   6.304
70182SOL    HW112385   8.554   6.345   6.349
70182SOL    HW212386   8.495   6.283   6.224
70183SOL     OW12387  11.500  12.670   8.513
70183SOL    HW112388  11.416  12.703   8.544
70183SOL    HW212389  11.478  12.593   8.460
70184SOL     OW12390  13.985   9.409  11.302
70184SOL    HW112391  13.990   9.449  11.215
70184SOL    HW212392  13.971   9.482  11.362
70185SOL     OW12393   8.606   7.868  10.821
70185SOL    HW112394   8.511   7.873  10.830
70185SOL    HW212395   8.620   7.860  10.727
70186SOL     OW12396   3.591   4.057   5.579
70186SOL    HW112397   3.585   4.152   5.595
70186SOL    HW212398   3.662   4.028   5.637
70187SOL     OW12399   9.875   2.084   2.988
70187SOL    HW112400   9.801   2.112   3.043
70187SOL    HW212401   9.921   2.165   2.967
70188SOL     OW12402   9.347   5.977  13.730
70188SOL    HW112403   9.382   6.001  13.816
70188SOL    HW212404   9.387   5.892  13.711
70189SOL     OW12405   9.125  13.757  10.448
70189SOL    HW112406   9.137  13.725  10.537
70189SOL    HW212407   9.134  13.680  10.393
70190SOL     OW12408  11.868   9.103   3.348
70190SOL    HW112409  11.784   9.073   3.315
70190SOL    HW212410  11.847   9.173   3.410
70191SOL     OW12411  14.734   3.510   9.003
70191SOL    HW112412  14.734   3.424   8.960
70191SOL    HW212413  14.743   3.490   9.096
70192SOL     OW12414  13.360  12.238   8.520
70192SOL    HW112415  13.320  12.155   8.546
70192SOL    HW212416  13.454  12.220   8.517
70193SOL     OW12417  13.794   1.872   7.775
70193SOL    HW112418  13.833   1.940   7.830
70193SOL    HW212419  13.835   1.790   7.805
70194SOL     OW12420  12.606   7.149  13.018
70194SOL    HW112421  12.630   7.130  13.109
70194SOL    HW212422  12.556   7.230  13.023
70195SOL     OW12423   5.150  12.542  12.786
70195SOL    HW112424   5.112  12.464  12.826
70195SOL    HW212425   5.115  12.615  12.837
70196SOL     OW12426   2.521   2.237  11.954
70196SOL    HW112427   2.589   2.219  11.889
70196SOL    HW212428   2.566   2.287  12.023
70197SOL     OW12429   8.048   1.079  14.377
70197SOL    HW112430   8.047   1.007  14.314
70197SOL    HW212431   8.132   1.070  14.422
70198SOL     OW12432  11.605  13.261   7.496
70198SOL    HW112433  11.557  13.283   7.576
70198SOL    HW212434  11.625  13.168   7.504
70199SOL     OW12435   5.521  14.813   0.907
70199SOL    HW112436   5.486  14.848   0.825
70199SOL    HW212437   5.538   0.012   0.961
70200SOL     OW12438   0.255   5.214  13.187
70200SOL    HW112439   0.231   5.134  13.234
70200SOL    HW212440   0.206   5.209  13.105
70201SOL     OW12441   0.245  14.417   7.864
70201SOL    HW112442   0.194  14.482   7.911
70201SOL    HW212443   0.288  14.366   7.932
70202SOL     OW12444  10.533   7.498   0.047
70202SOL    HW112445  10.617   7.543   0.052
70202SOL    HW212446  10.503   7.492   0.137
70203SOL     OW12447  11.592  11.595   7.952
70203SOL    HW112448  11.593  11.584   8.048
70203SOL    HW212449  11.504  11.569   7.926
70204SOL     OW12450   1.767   7.201  10.138
70204SOL    HW112451   1.725   7.119  10.111
70204SOL    HW212452   1.694   7.261  10.153
70205SOL     OW12453  10.022  12.204  12.180
70205SOL    HW112454  10.019  12.116  12.142
70205SOL    HW212455   9.969  12.198  12.259
70206SOL     OW12456  10.934   4.746   2.382
70206SOL    HW112457  11.027   4.725   2.382
70206SOL    HW212458  10.931   4.841   2.399
70207SOL     OW12459   7.233  10.861   9.288
70207SOL    HW112460   7.231  10.929   9.220
70207SOL    HW212461   7.221  10.779   9.240
70208SOL     OW12462  11.784  13.333   5.299
70208SOL    HW112463  11.694  13.321   5.269
70208SOL    HW212464  11.786  13.293   5.386
70209SOL     OW12465   3.746   8.743  11.537
70209SOL    HW112466   3.744   8.653  11.502
70209SOL    HW212467   3.737   8.799  11.460
70210SOL     OW12468  10.671  12.005  11.495
70210SOL    HW112469  10.665  11.947  11.571
70210SOL    HW212470  10.761  11.994  11.464
70211SOL     OW12471   3.977   2.042  11.821
70211SOL    HW112472   3.939   1.955  11.808
70211SOL    HW212473   4.062   2.037  11.777
70212SOL     OW12474   9.082   1.707   6.781
70212SOL    HW112475   9.003   1.723   6.731
70212SOL    HW212476   9.062   1.739   6.869
70213SOL     OW12477  12.340   9.239   8.175
70213SOL    HW112478  12.425   9.281   8.181
70213SOL    HW212479  12.278   9.311   8.169
70214SOL     OW12480   5.061   9.045  10.014
70214SOL    HW112481   4.998   8.982  10.051
70214SOL    HW212482   5.015   9.082   9.938
70215SOL     OW12483   6.145  11.764  12.541
70215SOL    HW112484   6.095  11.711  12.479
70215SOL    HW212485   6.218  11.708  12.567
70216SOL     OW12486   7.906  14.750  11.180
70216SOL    HW112487   7.859  14.793  11.108
70216SOL    HW212488   7.934  14.666  11.143
70217SOL     OW12489  10.025   5.887  11.963
70217SOL    HW112490  10.070   5.833  11.898
70217SOL    HW212491   9.932   5.867  11.950
70218SOL     OW12492   8.983   3.345   1.593
70218SOL    HW112493   9.051   3.401   1.630
70218SOL    HW212494   9.000   3.258   1.630
70219SOL     OW12495  12.848  12.240   6.249
70219SOL    HW112496  12.893  12.324   6.259
70219SOL    HW212497  12.761  12.262   6.216
70220SOL     OW12498   0.901  14.743  10.638
70220SOL    HW112499   0.917  14.757  10.732
70220SOL    HW212500   0.823  14.688  10.636
70221SOL     OW12501   9.246   6.911  10.070
70221SOL    HW112502   9.283   6.836  10.023
70221SOL    HW212503   9.209   6.967  10.003
70222SOL     OW12504  13.898  14.067   6.551
70222SOL    HW112505  13.954  14.142   6.531
70222SOL    HW212506  13.859  14.089   6.636
70223SOL     OW12507   2.019  11.927  12.890
70223SOL    HW112508   1.978  11.850  12.929
70223SOL    HW212509   1.971  12.001  12.925
70224SOL     OW12510  12.836  10.337   4.038
70224SOL    HW112511  12.903  10.269   4.035
70224SOL    HW212512  12.858  10.396   3.966
70225SOL     OW12513   2.288  13.717  13.541
70225SOL    HW112514   2.245  13.644  13.585
70225SOL    HW212515   2.260  13.710  13.450
70226SOL     OW12516  11.340   5.920   8.690
70226SOL    HW112517  11.306   5.831   8.695
70226SOL    HW212518  11.417   5.913   8.633
70227SOL     OW12519   4.778  13.835   7.623
70227SOL    HW112520   4.839  13.762   7.617
70227SOL    HW212521   4.731  13.834   7.540
70228SOL     OW12522  12.538   7.399   4.581
70228SOL    HW112523  12.608   7.463   4.595
70228SOL    HW212524  12.491   7.431   4.505
70229SOL     OW12525   5.099   2.590  13.153
70229SOL    HW112526   5.035   2.546  13.097
70229SOL    HW212527   5.051   2.610  13.233
70230SOL     OW12528   5.098  11.436   6.428
70230SOL    HW112529   5.177  11.410   6.381
70230SOL    HW212530   5.040  11.472   6.360
70231SOL     OW12531  14.389  10.906  14.064
70231SOL    HW112532  14.453  10.851  14.019
70231SOL    HW212533  14.366  10.857  14.143
70232SOL     OW12534  10.965   1.617   1.940
70232SOL    HW112535  10.886   1.666   1.918
70232SOL    HW212536  10.970   1.550   1.873
70233SOL     OW12537   1.668   2.390  12.286
70233SOL    HW112538   1.694   2.314  12.338
70233SOL    HW212539   1.750   2.421  12.247
70234SOL     OW12540   8.997   2.457   4.625
70234SOL    HW112541   8.936   2.525   4.656
70234SOL    HW212542   8.949   2.411   4.556
70235SOL     OW12543   5.090   4.605   1.701
70235SOL    HW112544   5.073   4.512   1.715
70235SOL    HW212545   5.100   4.642   1.789
70236SOL     OW12546   5.536   6.009  11.927
70236SOL    HW112547   5.630   6.005  11.947
70236SOL    HW212548   5.520   6.100  11.904
70237SOL     OW12549   5.505   3.848   1.864
70237SOL    HW112550   5.525   3.806   1.948
70237SOL    HW212551   5.583   3.836   1.811
70238SOL     OW12552  13.729  10.347   0.495
70238SOL    HW112553  13.776  10.406   0.435
70238SOL    HW212554  13.797  10.291   0.532
70239SOL     OW12555   2.279   3.047   9.014
70239SOL    HW112556   2.228   2.999   8.948
70239SOL    HW212557   2.312   3.123   8.967
70240SOL     OW12558   1.657   3.745  10.378
70240SOL    HW112559   1.586   3.683  10.391
70240SOL    HW212560   1.688   3.728  10.289
70241SOL     OW12561  14.428  11.127   6.660
70241SOL    HW112562  14.519  11.096   6.654
70241SOL    HW212563  14.377  11.047   6.671
70242SOL     OW12564   6.346   8.348   4.556
70242SOL    HW112565   6.337   8.393   4.640
70242SOL    HW212566   6.342   8.255   4.577
70243SOL     OW12567   5.134   7.375   1.172
70243SOL    HW112568   5.044   7.349   1.191
70243SOL    HW212569   5.129   7.469   1.157
70244SOL     OW12570   7.132   4.217   3.686
70244SOL    HW112571   7.218   4.250   3.661
70244SOL    HW212572   7.075   4.242   3.613
70245SOL     OW12573   9.709   2.944  14.465
70245SOL    HW112574   9.621   2.930  14.497
70245SOL    HW212575   9.730   3.034  14.489
70246SOL     OW12576  12.601   4.447  14.021
70246SOL    HW112577  12.581   4.539  14.010
70246SOL    HW212578  12.686   4.436  13.978
70247SOL     OW12579  13.845  12.316   4.637
70247SOL    HW112580  13.776  12.339   4.574
70247SOL    HW212581  13.878  12.401   4.667
70248SOL     OW12582   2.916  10.714   4.832
70248SOL    HW112583   2.934  10.712   4.738
70248SOL    HW212584   2.836  10.662   4.841
70249SOL     OW12585  11.590   3.626   9.683
70249SOL    HW112586  11.654   3.561   9.713
70249SOL    HW212587  11.516   3.573   9.653
70250SOL     OW12588   5.859   3.011   4.729
70250SOL    HW112589   5.824   3.053   4.650
70250SOL    HW212590   5.908   2.936   4.696
70251SOL     OW12591   9.755   6.245  13.431
70251SOL    HW112592   9.758   6.297  13.512
70251SOL    HW212593   9.685   6.284  13.379
70252SOL     OW12594  13.348   9.286   0.623
70252SOL    HW112595  13.373   9.195   0.639
70252SOL    HW212596  13.259   9.282   0.589
70253SOL     OW12597  13.895   3.774   5.954
70253SOL    HW112598  13.950   3.823   6.016
70253SOL    HW212599  13.951   3.704   5.923
70254SOL     OW12600   2.056   7.418   5.586
70254SOL    HW112601   2.103   7.489   5.629
70254SOL    HW212602   2.101   7.338   5.615
70255SOL     OW12603   3.833   3.020  12.927
70255SOL    HW112604   3.824   2.940  12.980
70255SOL    HW212605   3.871   2.989  12.844
70256SOL     OW12606  14.878   9.677   4.514
70256SOL    HW112607   0.014   9.707   4.424
70256SOL    HW212608  14.811   9.610   4.506
70257SOL     OW12609  12.149  12.199  13.594
70257SOL    HW112610  12.084  12.186  13.525
70257SOL    HW212611  12.120  12.279  13.639
70258SOL     OW12612  13.762  12.840   4.126
70258SOL    HW112613  13.776  12.758   4.080
70258SOL    HW212614  13.823  12.902   4.085
70259SOL     OW12615   0.833   9.824   0.665
70259SOL    HW112616   0.780   9.754   0.627
70259SOL    HW212617   0.915   9.780   0.689
70260SOL     OW12618   8.186   7.581  14.756
70260SOL    HW112619   8.101   7.545  14.732
70260SOL    HW212620   8.221   7.616  14.673
70261SOL     OW12621  12.818  11.048   7.676
70261SOL    HW112622  12.880  11.083   7.739
70261SOL    HW212623  12.857  10.966   7.647
70262SOL     OW12624   7.720   5.976   3.416
70262SOL    HW112625   7.689   5.959   3.327
70262SOL    HW212626   7.814   5.958   3.413
70263SOL     OW12627   1.197  10.877   9.139
70263SOL    HW112628   1.156  10.963   9.148
70263SOL    HW212629   1.253  10.870   9.217
70264SOL     OW12630   0.617   8.068   1.072
70264SOL    HW112631   0.691   8.050   1.130
70264SOL    HW212632   0.551   8.108   1.129
70265SOL     OW12633  13.041  12.681  13.942
70265SOL    HW112634  13.132  12.705  13.964
70265SOL    HW212635  13.008  12.638  14.022
70266SOL     OW12636  14.438   4.594   7.360
70266SOL    HW112637  14.505   4.542   7.405
70266SOL    HW212638  14.449   4.573   7.268
70267SOL     OW12639   2.784   2.347   2.556
70267SOL    HW112640   2.789   2.440   2.535
70267SOL    HW212641   2.874   2.315   2.542
70268SOL     OW12642   6.351   9.865   3.836
70268SOL    HW112643   6.402   9.817   3.901
70268SOL    HW212644   6.366   9.818   3.754
70269SOL     OW12645   1.763   3.267   5.139
70269SOL    HW112646   1.683   3.275   5.088
70269SOL    HW212647   1.814   3.200   5.094
70270SOL     OW12648  12.574  12.546   9.824
70270SOL    HW112649  12.649  12.559   9.766
70270SOL    HW212650  12.517  12.621   9.808
70271SOL     OW12651   0.748   7.345  14.132
70271SOL    HW112652   0.715   7.433  14.116
70271SOL    HW212653   0.779   7.348  14.223
70272SOL     OW12654   7.715  14.838   9.824
70272SOL    HW112655   7.654   0.029   9.845
70272SOL    HW212656   7.786   0.002   9.776
70273SOL     OW12657   2.651  11.359  12.971
70273SOL    HW112658   2.623  11.425  13.035
70273SOL    HW212659   2.599  11.377  12.893
70274SOL     OW12660  14.058   7.443   3.597
70274SOL    HW112661  14.137   7.459   3.649
70274SOL    HW212662  14.084   7.467   3.508
70275SOL     OW12663   5.110   7.854   6.068
70275SOL    HW112664   5.106   7.926   6.131
70275SOL    HW212665   5.157   7.785   6.115
70276SOL     OW12666  10.262   6.733  10.301
70276SOL    HW112667  10.174   6.764  10.321
70276SOL    HW212668  10.266   6.645  10.338
70277SOL     OW12669   6.693   0.795   5.607
70277SOL    HW112670   6.649   0.789   5.522
70277SOL    HW212671   6.767   0.735   5.599
70278SOL     OW12672   4.116  14.492   7.360
70278SOL    HW112673   4.166  14.418   7.393
70278SOL    HW212674   4.159  14.516   7.278
70279SOL     OW12675   6.728  11.393   9.894
70279SOL    HW112676   6.788  11.346   9.836
70279SOL    HW212677   6.771  11.391   9.979
70280SOL     OW12678  13.453  12.190  13.040
70280SOL    HW112679  13.521  12.256  13.052
70280SOL    HW212680  13.419  12.206  12.952
70281SOL     OW12681  10.127   8.814  14.245
70281SOL    HW112682  10.047   8.784  14.203
70281SOL    HW212683  10.155   8.740  14.299
70282SOL     OW12684  10.266   8.018   8.970
70282SOL    HW112685  10.205   8.091   8.963
70282SOL    HW212686  10.331   8.033   8.901
70283SOL     OW12687   3.544  14.878  12.989
70283SOL    HW112688   3.547   0.090  13.017
70283SOL    HW212689   3.626  14.840  13.021
70284SOL     OW12690   4.321   2.062  10.432
70284SOL    HW112691   4.368   2.103  10.360
70284SOL    HW212692   4.250   2.123  10.451
70285SOL     OW12693  12.778   1.128  12.461
70285SOL    HW112694  12.778   1.180  12.381
70285SOL    HW212695  12.740   1.044  12.436
70286SOL     OW12696  11.650   5.652   3.451
70286SOL    HW112697  11.649   5.746   3.433
70286SOL    HW212698  11.560   5.632   3.475
70287SOL     OW12699   4.982   0.383  12.978
70287SOL    HW112700   5.004   0.445  13.047
70287SOL    HW212701   4.897   0.414  12.944
70288SOL     OW12702  13.059   2.147  13.145
70288SOL    HW112703  13.033   2.144  13.237
70288SOL    HW212704  13.108   2.229  13.137
70289SOL     OW12705   4.645  14.135   1.064
70289SOL    HW112706   4.631  14.060   1.006
70289SOL    HW212707   4.625  14.102   1.152
70290SOL     OW12708  13.198   8.464  12.911
70290SOL    HW112709  13.290   8.439  12.912
70290SOL    HW212710  13.173   8.470  13.003
70291SOL     OW12711   0.247   4.619  10.835
70291SOL    HW112712   0.266   4.595  10.744
70291SOL    HW212713   0.202   4.704  10.828
70292SOL     OW12714   9.676  11.776  14.871
70292SOL    HW112715   9.752  11.739   0.037
70292SOL    HW212716   9.601  11.729   0.029
70293SOL     OW12717  10.522   8.366   7.595
70293SOL    HW112718  10.510   8.271   7.593
70293SOL    HW212719  10.487   8.396   7.512
70294SOL     OW12720   3.532   0.435  13.893
70294SOL    HW112721   3.575   0.485  13.963
70294SOL    HW212722   3.549   0.344  13.914
70295SOL     OW12723   3.515   7.490  13.078
70295SOL    HW112724   3.443   7.489  13.141
70295SOL    HW212725   3.471   7.491  12.993
70296SOL     OW12726  12.570   3.353   6.761
70296SOL    HW112727  12.517   3.431   6.782
70296SOL    HW212728  12.508   3.291   6.724
70297SOL     OW12729   7.634  14.188   5.324
70297SOL    HW112730   7.668  14.156   5.241
70297SOL    HW212731   7.539  14.187   5.314
70298SOL     OW12732  11.797   5.976   8.457
70298SOL    HW112733  11.817   5.885   8.435
70298SOL    HW212734  11.862   6.000   8.523
70299SOL     OW12735   3.201   6.151  12.570
70299SOL    HW112736   3.175   6.220  12.508
70299SOL    HW212737   3.187   6.190  12.656
70300SOL     OW12738  11.021  13.078   5.370
70300SOL    HW112739  11.024  13.169   5.398
70300SOL    HW212740  10.955  13.076   5.301
70301SOL     OW12741   0.292   1.368   9.583
70301SOL    HW112742   0.211   1.316   9.579
70301SOL    HW212743   0.264   1.452   9.618
70302SOL     OW12744   0.863  12.309  12.535
70302SOL    HW112745   0.796  12.247  12.561
70302SOL    HW212746   0.814  12.382  12.496
70303SOL     OW12747   7.234  11.695  14.073
70303SOL    HW112748   7.193  11.609  14.071
70303SOL    HW212749   7.212  11.730  14.160
70304SOL     OW12750   0.616   1.646  14.294
70304SOL    HW112751   0.619   1.593  14.214
70304SOL    HW212752   0.665   1.725  14.274
70305SOL     OW12753   0.798   0.106  11.190
70305SOL    HW112754   0.805   0.159  11.110
70305SOL    HW212755   0.762   0.165  11.255
70306SOL     OW12756  12.856   8.642   2.001
70306SOL    HW112757  12.767   8.647   1.966
70306SOL    HW212758  12.912   8.640   1.923
70307SOL     OW12759   1.870   5.474  12.594
70307SOL    HW112760   1.966   5.469  12.603
70307SOL    HW212761   1.851   5.568  12.600
70308SOL     OW12762   8.330  11.975   8.045
70308SOL    HW112763   8.343  11.913   7.973
70308SOL    HW212764   8.263  11.935   8.099
70309SOL     OW12765  13.181   7.322   2.419
70309SOL    HW112766  13.176   7.252   2.354
70309SOL    HW212767  13.242   7.289   2.485
70310SOL     OW12768   1.006   7.891  10.290
70310SOL    HW112769   0.977   7.891  10.199
70310SOL    HW212770   0.926   7.873  10.340
70311SOL     OW12771  13.991  13.657   7.449
70311SOL    HW112772  14.041  13.724   7.496
70311SOL    HW212773  14.018  13.574   7.490
70312SOL     OW12774   7.100   5.584   3.950
70312SOL    HW112775   7.027   5.526   3.928
70312SOL    HW212776   7.122   5.627   3.868
70313SOL     OW12777  14.282  12.452  12.624
70313SOL    HW112778  14.341  12.526  12.606
70313SOL    HW212779  14.281  12.446  12.720
70314SOL     OW12780   9.879   3.677   4.779
70314SOL    HW112781   9.849   3.609   4.839
70314SOL    HW212782   9.832   3.660   4.698
70315SOL     OW12783   2.830   6.118   1.257
70315SOL    HW112784   2.770   6.137   1.329
70315SOL    HW212785   2.774   6.105   1.181
70316SOL     OW12786  14.086   9.366   7.641
70316SOL    HW112787  14.164   9.417   7.665
70316SOL    HW212788  14.088   9.364   7.545
70317SOL     OW12789  13.148   3.679   8.402
70317SOL    HW112790  13.165   3.585   8.404
70317SOL    HW212791  13.233   3.719   8.386
70318SOL     OW12792  11.342   5.843   0.924
70318SOL    HW112793  11.326   5.831   0.830
70318SOL    HW212794  11.376   5.932   0.931
70319SOL     OW12795   8.489   7.969   7.161
70319SOL    HW112796   8.520   7.895   7.214
70319SOL    HW212797   8.507   7.943   7.071
70320SOL     OW12798  10.144   9.514   8.179
70320SOL    HW112799  10.053   9.510   8.208
70320SOL    HW212800  10.184   9.581   8.235
70321SOL     OW12801   2.808  11.470   7.650
70321SOL    HW112802   2.756  11.549   7.635
70321SOL    HW212803   2.792  11.415   7.573
70322SOL     OW12804   2.341   9.941   6.423
70322SOL    HW112805   2.267   9.979   6.375
70322SOL    HW212806   2.404  10.013   6.430
70323SOL     OW12807   1.661   3.535   6.224
70323SOL    HW112808   1.658   3.550   6.319
70323SOL    HW212809   1.714   3.607   6.190
70324SOL     OW12810  11.542  11.088   6.949
70324SOL    HW112811  11.448  11.076   6.948
70324SOL    HW212812  11.570  11.055   7.035
70325SOL     OW12813   1.988   3.175   1.193
70325SOL    HW112814   1.934   3.097   1.203
70325SOL    HW212815   2.065   3.145   1.144
70326SOL     OW12816   4.307   1.778   1.526
70326SOL    HW112817   4.235   1.716   1.525
70326SOL    HW212818   4.267   1.862   1.501
70327SOL     OW12819  13.175   2.816   3.721
70327SOL    HW112820  13.194   2.756   3.648
70327SOL    HW212821  13.259   2.857   3.740
70328SOL     OW12822   0.187   6.613  12.134
70328SOL    HW112823   0.273   6.621  12.094
70328SOL    HW212824   0.126   6.613  12.060
70329SOL     OW12825   8.774   1.068  10.853
70329SOL    HW112826   8.857   1.059  10.806
70329SOL    HW212827   8.764   1.162  10.866
70330SOL     OW12828  13.370   3.754   5.939
70330SOL    HW112829  13.319   3.694   5.993
70330SOL    HW212830  13.455   3.759   5.983
70331SOL     OW12831  14.504  11.738   0.948
70331SOL    HW112832  14.555  11.661   0.924
70331SOL    HW212833  14.489  11.729   1.042
70332SOL     OW12834   8.686   2.113   4.959
70332SOL    HW112835   8.689   2.018   4.947
70332SOL    HW212836   8.703   2.149   4.872
70333SOL     OW12837   1.954  14.438  12.068
70333SOL    HW112838   1.998  14.424  11.985
70333SOL    HW212839   1.969  14.357  12.117
70334SOL     OW12840   0.867  11.986   3.735
70334SOL    HW112841   0.787  11.936   3.723
70334SOL    HW212842   0.838  12.077   3.744
70335SOL     OW12843  14.071   4.468   6.499
70335SOL    HW112844  14.015   4.456   6.575
70335SOL    HW212845  14.030   4.540   6.450
70336SOL     OW12846  13.989   8.954   3.719
70336SOL    HW112847  14.033   8.965   3.803
70336SOL    HW212848  13.896   8.956   3.740
70337SOL     OW12849  14.723   3.670   2.206
70337SOL    HW112850  14.734   3.621   2.125
70337SOL    HW212851  14.699   3.758   2.178
70338SOL     OW12852  14.778  12.503  13.727
70338SOL    HW112853  14.815  12.500  13.815
70338SOL    HW212854  14.853  12.520  13.669
70339SOL     OW12855  13.684   9.664   8.589
70339SOL    HW112856  13.648   9.669   8.677
70339SOL    HW212857  13.609   9.641   8.533
70340SOL     OW12858   7.850  11.318  11.369
70340SOL    HW112859   7.757  11.340  11.374
70340SOL    HW212860   7.889  11.390  11.320
70341SOL     OW12861   4.196   8.149   9.380
70341SOL    HW112862   4.192   8.061   9.342
70341SOL    HW212863   4.116   8.192   9.350
70342SOL     OW12864   1.569  14.198  10.726
70342SOL    HW112865   1.621  14.152  10.791
70342SOL    HW212866   1.478  14.185  10.754
70343SOL     OW12867  11.761   7.578  13.455
70343SOL    HW112868  11.834   7.624  13.412
70343SOL    HW212869  11.693   7.574  13.388
70344SOL     OW12870   0.671   6.599   8.219
70344SOL    HW112871   0.613   6.675   8.209
70344SOL    HW212872   0.756   6.630   8.189
70345SOL     OW12873  13.800   2.734  11.423
70345SOL    HW112874  13.713   2.695  11.425
70345SOL    HW212875  13.848   2.689  11.493
70346SOL     OW12876   1.342   7.706  12.128
70346SOL    HW112877   1.260   7.693  12.081
70346SOL    HW212878   1.377   7.788  12.092
70347SOL     OW12879   5.371  10.275   1.950
70347SOL    HW112880   5.389  10.290   2.043
70347SOL    HW212881   5.387  10.181   1.938
70348SOL     OW12882   1.614  12.950   4.425
70348SOL    HW112883   1.600  13.044   4.422
70348SOL    HW212884   1.689  12.939   4.483
70349SOL     OW12885   0.927  13.814   8.212
70349SOL    HW112886   0.933  13.719   8.225
70349SOL    HW212887   0.848  13.826   8.159
70350SOL     OW12888  14.217  10.700   3.276
70350SOL    HW112889  14.291  10.710   3.336
70350SOL    HW212890  14.214  10.782   3.228
70351SOL     OW12891  11.849   7.657   9.619
70351SOL    HW112892  11.795   7.594   9.572
70351SOL    HW212893  11.879   7.611   9.697
70352SOL     OW12894   1.005   4.347  12.421
70352SOL    HW112895   0.968   4.421  12.470
70352SOL    HW212896   0.933   4.284  12.415
70353SOL     OW12897   5.955   0.313  10.773
70353SOL    HW112898   5.936   0.268  10.855
70353SOL    HW212899   5.917   0.257  10.706
70354SOL     OW12900   6.135   1.185   6.711
70354SOL    HW112901   6.104   1.232   6.788
70354SOL    HW212902   6.206   1.130   6.742
70355SOL     OW12903   3.286   1.302   3.766
70355SOL    HW112904   3.345   1.342   3.702
70355SOL    HW212905   3.212   1.362   3.773
70356SOL     OW12906  12.495   7.220   0.624
70356SOL    HW112907  12.583   7.241   0.655
70356SOL    HW212908  12.453   7.177   0.699
70357SOL     OW12909  13.696  10.804   4.696
70357SOL    HW112910  13.756  10.842   4.632
70357SOL    HW212911  13.753  10.779   4.769
70358SOL     OW12912   1.356  12.742  12.214
70358SOL    HW112913   1.334  12.738  12.307
70358SOL    HW212914   1.279  12.781  12.173
70359SOL     OW12915   2.406   3.102   4.203
70359SOL    HW112916   2.409   3.049   4.124
70359SOL    HW212917   2.493   3.141   4.209
70360SOL     OW12918   7.542   2.215   2.850
70360SOL    HW112919   7.476   2.163   2.803
70360SOL    HW212920   7.516   2.208   2.942
70361SOL     OW12921  14.789  13.730  11.790
70361SOL    HW112922  14.751  13.668  11.728
70361SOL    HW212923  14.717  13.787  11.816
70362SOL     OW12924   5.106   7.402   2.853
70362SOL    HW112925   5.124   7.430   2.763
70362SOL    HW212926   5.017   7.435   2.871
70363SOL     OW12927   4.655   6.489  12.863
70363SOL    HW112928   4.656   6.404  12.821
70363SOL    HW212929   4.617   6.548  12.798
70364SOL     OW12930   1.119   0.293   2.103
70364SOL    HW112931   1.077   0.253   2.179
70364SOL    HW212932   1.174   0.224   2.067
70365SOL     OW12933   1.311   8.733   5.698
70365SOL    HW112934   1.278   8.678   5.769
70365SOL    HW212935   1.393   8.691   5.671
70366SOL     OW12936   1.669   0.224   4.330
70366SOL    HW112937   1.601   0.194   4.269
70366SOL    HW212938   1.630   0.301   4.371
70367SOL     OW12939   3.643   8.088  12.191
70367SOL    HW112940   3.660   8.016  12.253
70367SOL    HW212941   3.607   8.158  12.246
70368SOL     OW12942  14.223   5.355   4.578
70368SOL    HW112943  14.256   5.307   4.654
70368SOL    HW212944  14.168   5.292   4.532
70369SOL     OW12945  13.350  12.492  12.736
70369SOL    HW112946  13.342  12.583  12.707
70369SOL    HW212947  13.271  12.476  12.788
70370SOL     OW12948  10.995   4.097   4.169
70370SOL    HW112949  11.011   4.191   4.171
70370SOL    HW212950  10.903   4.087   4.193
70371SOL     OW12951   9.660  14.269  10.502
70371SOL    HW112952   9.642  14.263  10.596
70371SOL    HW212953   9.755  14.282  10.497
70372SOL     OW12954   2.822   2.547   1.326
70372SOL    HW112955   2.814   2.534   1.421
70372SOL    HW212956   2.820   2.459   1.289
70373SOL     OW12957   1.018   8.710  11.892
70373SOL    HW112958   1.042   8.706  11.985
70373SOL    HW212959   1.097   8.743  11.848
70374SOL     OW12960   1.624   1.696   1.252
70374SOL    HW112961   1.709   1.669   1.287
70374SOL    HW212962   1.568   1.704   1.329
70375SOL     OW12963  11.046  13.853  10.181
70375SOL    HW112964  11.072  13.810  10.100
70375SOL    HW212965  11.112  13.826  10.245
70376SOL     OW12966  11.220   5.578  11.483
70376SOL    HW112967  11.195   5.560  11.393
70376SOL    HW212968  11.137   5.594  11.528
70377SOL     OW12969  14.738   2.537  14.688
70377SOL    HW112970  14.737   2.461  14.629
70377SOL    HW212971  14.660   2.526  14.742
70378SOL     OW12972  14.294   9.200   3.535
70378SOL    HW112973  14.348   9.279   3.540
70378SOL    HW212974  14.310   9.155   3.618
70379SOL     OW12975   4.448   4.625  13.659
70379SOL    HW112976   4.363   4.640  13.701
70379SOL    HW212977   4.509   4.613  13.732
70380SOL     OW12978   2.335  12.562  13.917
70380SOL    HW112979   2.363  12.627  13.853
70380SOL    HW212980   2.246  12.539  13.891
70381SOL     OW12981   0.958   0.493   3.685
70381SOL    HW112982   0.972   0.583   3.656
70381SOL    HW212983   1.018   0.482   3.759
70382SOL     OW12984   5.848   7.024   8.426
70382SOL    HW112985   5.879   6.968   8.355
70382SOL    HW212986   5.790   7.087   8.383
70383SOL     OW12987  10.844  14.034   6.156
70383SOL    HW112988  10.751  14.038   6.134
70383SOL    HW212989  10.847  14.000   6.245
70384SOL     OW12990  14.186   1.326   6.194
70384SOL    HW112991  14.207   1.307   6.102
70384SOL    HW212992  14.188   1.240   6.237
70385SOL     OW12993  12.462  13.819   1.434
70385SOL    HW112994  12.422  13.809   1.347
70385SOL    HW212995  12.522  13.893   1.425
70386SOL     OW12996  11.788   4.709   3.734
70386SOL    HW112997  11.734   4.642   3.691
70386SOL    HW212998  11.807   4.772   3.665
70387SOL     OW12999   0.640  13.831  12.076
70387SOL    HW113000   0.575  13.761  12.069
70387SOL    HW213001   0.646  13.867  11.987
70388SOL     OW13002   3.849  13.296   3.447
70388SOL    HW113003   3.773  13.319   3.393
70388SOL    HW213004   3.918  13.274   3.384
70389SOL     OW13005  13.404   2.131   1.792
70389SOL    HW113006  13.402   2.085   1.708
70389SOL    HW213007  13.466   2.202   1.778
70390SOL     OW13008   1.087   3.908  11.697
70390SOL    HW113009   0.998   3.939  11.712
70390SOL    HW213010   1.129   3.912  11.783
70391SOL     OW13011  11.517   8.272  14.556
70391SOL    HW113012  11.486   8.205  14.495
70391SOL    HW213013  11.594   8.309  14.514
70392SOL     OW13014   9.596   5.753   2.556
70392SOL    HW113015   9.522   5.784   2.609
70392SOL    HW213016   9.672   5.800   2.591
70393SOL     OW13017   9.483   3.026   3.958
70393SOL    HW113018   9.559   2.968   3.955
70393SOL    HW213019   9.518   3.113   3.939
70394SOL     OW13020  11.804  14.432  14.824
70394SOL    HW113021  11.890  14.446  14.784
70394SOL    HW213022  11.764  14.519  14.826
70395SOL     OW13023  14.348   6.050   1.284
70395SOL    HW113024  14.428   6.077   1.240
70395SOL    HW213025  14.378   6.001   1.361
70396SOL     OW13026  10.144   6.439   5.604
70396SOL    HW113027  10.145   6.347   5.632
70396SOL    HW213028  10.052   6.465   5.612
70397SOL     OW13029   4.540   8.888   9.863
70397SOL    HW113030   4.538   8.951   9.791
70397SOL    HW213031   4.558   8.941   9.941
70398SOL     OW13032  12.693  12.754   2.639
70398SOL    HW113033  12.628  12.713   2.697
70398SOL    HW213034  12.777  12.726   2.674
70399SOL     OW13035  12.524   3.115   5.130
70399SOL    HW113036  12.476   3.164   5.063
70399SOL    HW213037  12.546   3.180   5.197
70400SOL     OW13038   7.834   3.318   1.662
70400SOL    HW113039   7.838   3.288   1.571
70400SOL    HW213040   7.742   3.310   1.686
70401SOL     OW13041   0.685   2.304  10.048
70401SOL    HW113042   0.625   2.250  10.100
70401SOL    HW213043   0.642   2.312   9.963
70402SOL     OW13044  11.328  12.656   5.098
70402SOL    HW113045  11.268  12.695   5.034
70402SOL    HW213046  11.279  12.658   5.181
70403SOL     OW13047   2.965   3.876  10.051
70403SOL    HW113048   2.905   3.946  10.025
70403SOL    HW213049   3.019   3.915  10.120
70404SOL     OW13050  11.119   2.426  10.314
70404SOL    HW113051  11.110   2.405  10.221
70404SOL    HW213052  11.194   2.375  10.343
70405SOL     OW13053  14.264   4.310  10.323
70405SOL    HW113054  14.177   4.302  10.284
70405SOL    HW213055  14.322   4.267  10.260
70406SOL     OW13056   2.309   7.225  14.596
70406SOL    HW113057   2.377   7.252  14.534
70406SOL    HW213058   2.309   7.130  14.591
70407SOL     OW13059   6.112   2.326  10.393
70407SOL    HW113060   6.059   2.388  10.443
70407SOL    HW213061   6.048   2.272  10.346
70408SOL     OW13062  10.441   1.782   9.550
70408SOL    HW113063  10.432   1.859   9.606
70408SOL    HW213064  10.384   1.800   9.475
70409SOL     OW13065   6.563  11.764   8.126
70409SOL    HW113066   6.536  11.699   8.191
70409SOL    HW213067   6.591  11.840   8.177
70410SOL     OW13068   7.608   9.655  12.860
70410SOL    HW113069   7.612   9.590  12.790
70410SOL    HW213070   7.597   9.603  12.940
70411SOL     OW13071  12.166   8.655   5.651
70411SOL    HW113072  12.170   8.591   5.580
70411SOL    HW213073  12.252   8.696   5.653
70412SOL     OW13074  12.169  10.657  12.398
70412SOL    HW113075  12.114  10.730  12.427
70412SOL    HW213076  12.114  10.579  12.410
70413SOL     OW13077  11.539   0.798  11.381
70413SOL    HW113078  11.462   0.855  11.386
70413SOL    HW213079  11.592   0.822  11.458
70414SOL     OW13080   6.293  12.127   6.651
70414SOL    HW113081   6.372  12.148   6.701
70414SOL    HW213082   6.272  12.037   6.674
70415SOL     OW13083  13.090  10.239   3.967
70415SOL    HW113084  13.130  10.151   3.964
70415SOL    HW213085  13.139  10.285   4.035
70416SOL     OW13086   4.062   6.788   0.746
70416SOL    HW113087   4.071   6.692   0.748
70416SOL    HW213088   3.986   6.805   0.801
70417SOL     OW13089   4.288   9.054  12.238
70417SOL    HW113090   4.359   9.108  12.271
70417SOL    HW213091   4.289   8.977  12.295
70418SOL     OW13092   1.148  11.048  14.865
70418SOL    HW113093   1.065  11.094  14.877
70418SOL    HW213094   1.202  11.077   0.060
70419SOL     OW13095   0.712   3.144   3.391
70419SOL    HW113096   0.752   3.219   3.435
70419SOL    HW213097   0.750   3.068   3.435
70420SOL     OW13098  12.957   1.065   1.692
70420SOL    HW113099  12.883   1.055   1.751
70420SOL    HW213100  12.952   0.990   1.633
70421SOL     OW13101   5.407   9.377  12.920
70421SOL    HW113102   5.417   9.394  13.013
70421SOL    HW213103   5.312   9.371  12.906
70422SOL     OW13104   3.482  13.301  14.345
70422SOL    HW113105   3.398  13.278  14.383
70422SOL    HW213106   3.462  13.374  14.286
70423SOL     OW13107  11.399  12.087  12.125
70423SOL    HW113108  11.405  12.075  12.219
70423SOL    HW213109  11.354  12.171  12.115
70424SOL     OW13110   5.223   0.599  10.874
70424SOL    HW113111   5.231   0.551  10.956
70424SOL    HW213112   5.303   0.579  10.826
70425SOL     OW13113   3.607  14.014   2.522
70425SOL    HW113114   3.515  14.036   2.536
70425SOL    HW213115   3.654  14.097   2.534
70426SOL     OW13116   1.738   0.288   3.061
70426SOL    HW113117   1.699   0.274   2.974
70426SOL    HW213118   1.820   0.239   3.059
70427SOL     OW13119  13.648   1.742   9.974
70427SOL    HW113120  13.610   1.817  10.020
70427SOL    HW213121  13.675   1.683  10.044
70428SOL     OW13122   7.972   3.190  10.072
70428SOL    HW113123   8.044   3.129  10.058
70428SOL    HW213124   7.897   3.151  10.027
70429SOL     OW13125  13.914   6.878   4.489
70429SOL    HW113126  13.980   6.904   4.554
70429SOL    HW213127  13.926   6.784   4.479
70430SOL     OW13128   2.396   2.103   0.598
70430SOL    HW113129   2.446   2.184   0.610
70430SOL    HW213130   2.431   2.065   0.518
70431SOL     OW13131   5.916   4.121  14.241
70431SOL    HW113132   5.934   4.069  14.319
70431SOL    HW213133   5.908   4.211  14.273
70432SOL     OW13134   2.041   6.828  13.385
70432SOL    HW113135   2.098   6.902  13.362
70432SOL    HW213136   1.967   6.836  13.325
70433SOL     OW13137  12.377   6.479   3.787
70433SOL    HW113138  12.319   6.494   3.861
70433SOL    HW213139  12.324   6.431   3.724
70434SOL     OW13140   4.394  10.163   9.150
70434SOL    HW113141   4.337  10.233   9.118
70434SOL    HW213142   4.467  10.209   9.191
70435SOL     OW13143  11.372  14.798   9.196
70435SOL    HW113144  11.408   0.005   9.179
70435SOL    HW213145  11.404  14.744   9.124
70436SOL     OW13146   0.622   5.513  10.305
70436SOL    HW113147   0.712   5.493  10.333
70436SOL    HW213148   0.576   5.429  10.310
70437SOL     OW13149  10.031   8.751   9.156
70437SOL    HW113150   9.948   8.732   9.200
70437SOL    HW213151  10.013   8.829   9.104
70438SOL     OW13152   4.221  13.307   4.025
70438SOL    HW113153   4.153  13.257   3.980
70438SOL    HW213154   4.294  13.246   4.034
70439SOL     OW13155   4.990   4.503   0.503
70439SOL    HW113156   4.916   4.443   0.515
70439SOL    HW213157   4.951   4.590   0.505
70440SOL     OW13158   2.139  10.336   8.351
70440SOL    HW113159   2.180  10.250   8.362
70440SOL    HW213160   2.207  10.389   8.309
70441SOL     OW13161  11.551   0.261   4.282
70441SOL    HW113162  11.599   0.325   4.229
70441SOL    HW213163  11.496   0.215   4.219
70442SOL     OW13164   6.399   8.281  12.810
70442SOL    HW113165   6.417   8.290  12.717
70442SOL    HW213166   6.450   8.205  12.838
70443SOL     OW13167   2.463   0.785  12.010
70443SOL    HW113168   2.484   0.820  11.924
70443SOL    HW213169   2.387   0.835  12.039
70444SOL     OW13170   9.998  11.321   5.155
70444SOL    HW113171   9.956  11.282   5.079
70444SOL    HW213172   9.985  11.258   5.226
70445SOL     OW13173  14.212  13.334   3.373
70445SOL    HW113174  14.263  13.337   3.292
70445SOL    HW213175  14.240  13.253   3.416
70446SOL     OW13176   4.682   1.535   2.175
70446SOL    HW113177   4.601   1.487   2.190
70446SOL    HW213178   4.705   1.515   2.084
70447SOL     OW13179   5.466  13.117  13.110
70447SOL    HW113180   5.536  13.115  13.045
70447SOL    HW213181   5.504  13.158  13.187
70448SOL     OW13182  11.885   5.680   7.829
70448SOL    HW113183  11.938   5.627   7.889
70448SOL    HW213184  11.893   5.769   7.862
70449SOL     OW13185  12.577   2.708   7.242
70449SOL    HW113186  12.653   2.712   7.299
70449SOL    HW213187  12.589   2.628   7.191
70450SOL     OW13188   3.615   3.769   4.940
70450SOL    HW113189   3.686   3.704   4.944
70450SOL    HW213190   3.660   3.853   4.953
70451SOL     OW13191   4.027   2.745  14.606
70451SOL    HW113192   3.992   2.673  14.554
70451SOL    HW213193   4.098   2.707  14.656
70452SOL     OW13194  11.139   9.566   2.720
70452SOL    HW113195  11.162   9.473   2.726
70452SOL    HW213196  11.178   9.605   2.798
70453SOL     OW13197  13.969   5.019  11.520
70453SOL    HW113198  13.910   5.050  11.589
70453SOL    HW213199  14.057   5.032  11.555
70454SOL     OW13200  11.823   7.786   9.132
70454SOL    HW113201  11.825   7.711   9.192
70454SOL    HW213202  11.914   7.815   9.126
70455SOL     OW13203  14.750  10.952  13.838
70455SOL    HW113204  14.740  11.014  13.910
70455SOL    HW213205  14.682  10.886  13.854
70456SOL     OW13206   6.344  12.641  13.534
70456SOL    HW113207   6.365  12.591  13.455
70456SOL    HW213208   6.319  12.574  13.598
70457SOL     OW13209   0.827   9.208   7.623
70457SOL    HW113210   0.754   9.221   7.563
70457SOL    HW213211   0.787   9.213   7.710
70458SOL     OW13212  11.649  13.296  14.162
70458SOL    HW113213  11.654  13.391  14.147
70458SOL    HW213214  11.672  13.284  14.254
70459SOL     OW13215   2.692   0.934   5.241
70459SOL    HW113216   2.647   0.992   5.180
70459SOL    HW213217   2.676   0.846   5.206
70460SOL     OW13218   5.715   2.686   9.059
70460SOL    HW113219   5.718   2.781   9.050
70460SOL    HW213220   5.705   2.672   9.154
70461SOL     OW13221   2.263   8.553   1.702
70461SOL    HW113222   2.303   8.638   1.686
70461SOL    HW213223   2.179   8.573   1.744
70462SOL     OW13224  12.345   1.700   8.436
70462SOL    HW113225  12.431   1.665   8.414
70462SOL    HW213226  12.283   1.633   8.406
70463SOL     OW13227   2.875  13.857  12.087
70463SOL    HW113228   2.951  13.817  12.046
70463SOL    HW213229   2.801  13.827  12.036
70464SOL     OW13230   8.182  10.381   8.529
70464SOL    HW113231   8.146  10.349   8.446
70464SOL    HW213232   8.125  10.342   8.596
70465SOL     OW13233  12.083   1.544   5.003
70465SOL    HW113234  12.066   1.545   4.909
70465SOL    HW213235  12.078   1.452   5.027
70466SOL     OW13236  11.105  14.851   1.244
70466SOL    HW113237  11.164   0.044   1.265
70466SOL    HW213238  11.061  14.831   1.327
70467SOL     OW13239  10.332   1.034   9.695
70467SOL    HW113240  10.419   1.047   9.658
70467SOL    HW213241  10.323   1.103   9.760
70468SOL     OW13242  14.261   8.506  11.799
70468SOL    HW113243  14.226   8.450  11.869
70468SOL    HW213244  14.332   8.554  11.841
70469SOL     OW13245   6.466   1.381   0.244
70469SOL    HW113246   6.394   1.424   0.197
70469SOL    HW213247   6.455   1.408   0.335
70470SOL     OW13248  12.373   0.477  12.109
70470SOL    HW113249  12.329   0.559  12.090
70470SOL    HW213250  12.302   0.413  12.114
70471SOL     OW13251   6.046  11.115   3.604
70471SOL    HW113252   5.983  11.043   3.613
70471SOL    HW213253   6.074  11.134   3.694
70472SOL     OW13254   3.370   3.570  10.436
70472SOL    HW113255   3.446   3.576  10.493
70472SOL    HW213256   3.365   3.478  10.412
70473SOL     OW13257   4.727   9.998   4.933
70473SOL    HW113258   4.686  10.024   5.015
70473SOL    HW213259   4.819   9.985   4.955
70474SOL     OW13260   7.298  10.411   0.662
70474SOL    HW113261   7.373  10.421   0.722
70474SOL    HW213262   7.316  10.330   0.615
70475SOL     OW13263   3.824   9.172  11.803
70475SOL    HW113264   3.872   9.208  11.729
70475SOL    HW213265   3.751   9.125  11.764
70476SOL     OW13266   8.792   8.536   7.266
70476SOL    HW113267   8.795   8.543   7.171
70476SOL    HW213268   8.786   8.442   7.283
70477SOL     OW13269  11.153   8.683  10.749
70477SOL    HW113270  11.155   8.588  10.739
70477SOL    HW213271  11.230   8.703  10.802
70478SOL     OW13272   9.707   8.988   8.800
70478SOL    HW113273   9.740   8.916   8.746
70478SOL    HW213274   9.664   8.945   8.874
70479SOL     OW13275   6.432   4.195   4.812
70479SOL    HW113276   6.433   4.289   4.829
70479SOL    HW213277   6.372   4.186   4.737
70480SOL     OW13278  12.236   9.923  10.170
70480SOL    HW113279  12.236   9.855  10.103
70480SOL    HW213280  12.157   9.974  10.153
70481SOL     OW13281   7.364   8.609  10.433
70481SOL    HW113282   7.293   8.646  10.486
70481SOL    HW213283   7.321   8.548  10.374
70482SOL     OW13284  14.826   6.151  11.691
70482SOL    HW113285  14.731   6.164  11.686
70482SOL    HW213286  14.842   6.071  11.641
70483SOL     OW13287   0.400   8.747  11.069
70483SOL    HW113288   0.475   8.691  11.047
70483SOL    HW213289   0.431   8.836  11.054
70484SOL     OW13290  13.958   8.486   3.660
70484SOL    HW113291  14.051   8.509   3.660
70484SOL    HW213292  13.956   8.395   3.689
70485SOL     OW13293   8.162  11.730  13.483
70485SOL    HW113294   8.121  11.660  13.534
70485SOL    HW213295   8.091  11.791  13.464
70486SOL     OW13296   7.124  14.800   7.298
70486SOL    HW113297   7.190  14.749   7.345
70486SOL    HW213298   7.051  14.740   7.287
70487SOL     OW13299   6.172   3.133  10.838
70487SOL    HW113300   6.079   3.155  10.846
70487SOL    HW213301   6.176   3.040  10.860
70488SOL     OW13302   9.383   4.005  11.695
70488SOL    HW113303   9.435   4.036  11.620
70488SOL    HW213304   9.302   3.973  11.656
70489SOL     OW13305   8.231   2.393   0.003
70489SOL    HW113306   8.252   2.300  14.871
70489SOL    HW213307   8.313   2.432   0.033
70490SOL     OW13308   1.180  10.886   4.657
70490SOL    HW113309   1.095  10.860   4.691
70490SOL    HW213310   1.161  10.930   4.574
70491SOL     OW13311   4.667   6.394  13.896
70491SOL    HW113312   4.588   6.420  13.849
70491SOL    HW213313   4.639   6.388  13.988
70492SOL     OW13314  10.565   2.802  13.058
70492SOL    HW113315  10.544   2.712  13.032
70492SOL    HW213316  10.651   2.818  13.017
70493SOL     OW13317   6.694   1.350   9.457
70493SOL    HW113318   6.704   1.423   9.396
70493SOL    HW213319   6.599   1.338   9.465
70494SOL     OW13320   5.757   4.412   5.056
70494SOL    HW113321   5.701   4.471   5.006
70494SOL    HW213322   5.828   4.467   5.087
70495SOL     OW13323  10.535   0.926   9.258
70495SOL    HW113324  10.556   0.998   9.199
70495SOL    HW213325  10.558   0.847   9.209
70496SOL     OW13326   6.220   4.967   0.866
70496SOL    HW113327   6.176   4.984   0.949
70496SOL    HW213328   6.187   4.881   0.839
70497SOL     OW13329   7.875   8.069   2.025
70497SOL    HW113330   7.970   8.066   2.039
70497SOL    HW213331   7.858   8.003   1.958
70498SOL     OW13332  14.539   2.718   1.508
70498SOL    HW113333  14.478   2.765   1.451
70498SOL    HW213334  14.514   2.626   1.499
70499SOL     OW13335   7.548   7.475  12.459
70499SOL    HW113336   7.631   7.524  12.460
70499SOL    HW213337   7.516   7.486  12.370
70500SOL     OW13338   8.223   1.350   3.650
70500SOL    HW113339   8.161   1.397   3.706
70500SOL    HW213340   8.204   1.258   3.664
70501SOL     OW13341  10.923   5.261  10.637
70501SOL    HW113342  10.853   5.315  10.674
70501SOL    HW213343  10.964   5.315  10.570
70502SOL     OW13344   7.392  10.246   5.600
70502SOL    HW113345   7.407  10.156   5.628
70502SOL    HW213346   7.332  10.237   5.525
70503SOL     OW13347   0.927  14.376   3.846
70503SOL    HW113348   0.897  14.312   3.910
70503SOL    HW213349   0.860  14.444   3.846
70504SOL     OW13350   8.041   4.405   7.174
70504SOL    HW113351   7.989   4.344   7.122
70504SOL    HW213352   8.113   4.431   7.116
70505SOL     OW13353   3.746  10.653   0.945
70505SOL    HW113354   3.653  10.669   0.935
70505SOL    HW213355   3.759  10.563   0.913
70506SOL     OW13356   5.735   4.445   6.058
70506SOL    HW113357   5.787   4.474   6.133
70506SOL    HW213358   5.661   4.506   6.054
70507SOL     OW13359   6.451  13.530  10.240
70507SOL    HW113360   6.523  13.493  10.292
70507SOL    HW213361   6.447  13.622  10.267
70508SOL     OW13362   1.872  10.267   4.854
70508SOL    HW113363   1.869  10.360   4.832
70508SOL    HW213364   1.959  10.239   4.826
70509SOL     OW13365   7.972   6.378   5.191
70509SOL    HW113366   7.891   6.364   5.240
70509SOL    HW213367   7.970   6.312   5.122
70510SOL     OW13368   6.262   0.275   2.809
70510SOL    HW113369   6.337   0.287   2.868
70510SOL    HW213370   6.233   0.364   2.789
70511SOL     OW13371   3.402   7.805  14.402
70511SOL    HW113372   3.372   7.737  14.463
70511SOL    HW213373   3.410   7.760  14.318
70512SOL     OW13374   1.506   0.771   6.629
70512SOL    HW113375   1.459   0.816   6.559
70512SOL    HW213376   1.546   0.841   6.681
70513SOL     OW13377   6.310  14.626   5.833
70513SOL    HW113378   6.244  14.625   5.902
70513SOL    HW213379   6.312  14.716   5.803
70514SOL     OW13380   7.731   5.755   6.818
70514SOL    HW113381   7.736   5.819   6.747
70514SOL    HW213382   7.727   5.808   6.898
70515SOL     OW13383   9.999   0.137   1.983
70515SOL    HW113384  10.090   0.151   1.957
70515SOL    HW213385   9.973   0.219   2.025
70516SOL     OW13386  11.961  12.262  11.783
70516SOL    HW113387  12.029  12.330  11.783
70516SOL    HW213388  11.909  12.279  11.861
70517SOL     OW13389   1.479   0.960   4.616
70517SOL    HW113390   1.385   0.965   4.603
70517SOL    HW213391   1.516   0.975   4.529
70518SOL     OW13392   4.550   8.272   5.382
70518SOL    HW113393   4.637   8.252   5.349
70518SOL    HW213394   4.541   8.219   5.460
70519SOL     OW13395   5.241   2.699   0.778
70519SOL    HW113396   5.269   2.778   0.732
70519SOL    HW213397   5.147   2.692   0.761
70520SOL     OW13398   8.905   5.038   7.422
70520SOL    HW113399   8.909   5.054   7.516
70520SOL    HW213400   8.892   5.125   7.384
70521SOL     OW13401  13.900  12.051   8.840
70521SOL    HW113402  13.895  11.957   8.859
70521SOL    HW213403  13.993  12.071   8.841
70522SOL     OW13404  10.559   7.151  14.209
70522SOL    HW113405  10.517   7.227  14.249
70522SOL    HW213406  10.533   7.077  14.264
70523SOL     OW13407  10.015  11.127   6.262
70523SOL    HW113408   9.973  11.074   6.194
70523SOL    HW213409  10.099  11.083   6.278
70524SOL     OW13410   7.366  11.490   0.483
70524SOL    HW113411   7.410  11.406   0.477
70524SOL    HW213412   7.413  11.537   0.553
70525SOL     OW13413  10.320   5.741  12.094
70525SOL    HW113414  10.311   5.834  12.072
70525SOL    HW213415  10.406   5.735  12.137
70526SOL     OW13416   0.944  12.882   9.224
70526SOL    HW113417   0.887  12.806   9.237
70526SOL    HW213418   0.970  12.909   9.312
70527SOL     OW13419  10.411   8.077   7.608
70527SOL    HW113420  10.419   8.031   7.525
70527SOL    HW213421  10.320   8.107   7.610
70528SOL     OW13422   4.241   4.216   5.427
70528SOL    HW113423   4.220   4.168   5.347
70528SOL    HW213424   4.172   4.282   5.434
70529SOL     OW13425   2.882   0.579   0.586
70529SOL    HW113426   2.889   0.669   0.617
70529SOL    HW213427   2.824   0.536   0.649
70530SOL     OW13428   1.408   2.996   9.150
70530SOL    HW113429   1.362   3.041   9.220
70530SOL    HW213430   1.354   3.010   9.072
70531SOL     OW13431   0.888   5.604   0.846
70531SOL    HW113432   0.807   5.561   0.876
70531SOL    HW213433   0.944   5.532   0.818
70532SOL     OW13434   0.126   8.339  13.022
70532SOL    HW113435   0.119   8.367  13.113
70532SOL    HW213436   0.213   8.299  13.016
70533SOL     OW13437   8.078   0.585   7.541
70533SOL    HW113438   8.086   0.510   7.599
70533SOL    HW213439   8.111   0.554   7.457
70534SOL     OW13440   0.821   9.158   2.114
70534SOL    HW113441   0.751   9.189   2.172
70534SOL    HW213442   0.847   9.074   2.152
70535SOL     OW13443   5.415  14.832   3.203
70535SOL    HW113444   5.467   0.022   3.245
70535SOL    HW213445   5.442  14.752   3.247
70536SOL     OW13446  13.329   2.675   6.457
70536SOL    HW113447  13.248   2.673   6.406
70536SOL    HW213448  13.305   2.718   6.539
70537SOL     OW13449   0.411   3.384  12.376
70537SOL    HW113450   0.381   3.372  12.466
70537SOL    HW213451   0.330   3.395  12.325
70538SOL     OW13452  10.118  10.724   4.576
70538SOL    HW113453  10.184  10.660   4.549
70538SOL    HW213454  10.056  10.674   4.629
70539SOL     OW13455   2.517   2.021  11.569
70539SOL    HW113456   2.437   2.069  11.590
70539SOL    HW213457   2.533   1.966  11.646
70540SOL     OW13458   3.153   0.862  11.309
70540SOL    HW113459   3.099   0.842  11.385
70540SOL    HW213460   3.099   0.920  11.256
70541SOL     OW13461   9.981   2.016   6.500
70541SOL    HW113462   9.919   1.955   6.541
70541SOL    HW213463   9.925   2.077   6.450
70542SOL     OW13464  12.556  13.518   9.967
70542SOL    HW113465  12.513  13.450   9.914
70542SOL    HW213466  12.484  13.561  10.013
70543SOL     OW13467  14.030  12.274   5.529
70543SOL    HW113468  14.052  12.222   5.452
70543SOL    HW213469  14.083  12.237   5.600
70544SOL     OW13470   1.750  11.412   8.023
70544SOL    HW113471   1.708  11.457   7.949
70544SOL    HW213472   1.678  11.389   8.081
70545SOL     OW13473  12.464  13.712  11.770
70545SOL    HW113474  12.441  13.621  11.753
70545SOL    HW213475  12.560  13.713  11.771
70546SOL     OW13476   0.509   4.041   6.082
70546SOL    HW113477   0.556   4.122   6.064
70546SOL    HW213478   0.553   3.976   6.027
70547SOL     OW13479   7.985  14.504  10.990
70547SOL    HW113480   7.984  14.462  11.076
70547SOL    HW213481   8.033  14.443  10.934
70548SOL     OW13482   4.034  13.852   9.936
70548SOL    HW113483   4.119  13.818   9.907
70548SOL    HW213484   4.056  13.925   9.994
70549SOL     OW13485   1.082   6.398   6.731
70549SOL    HW113486   1.119   6.486   6.720
70549SOL    HW213487   1.098   6.355   6.647
70550SOL     OW13488  11.560   9.397  10.866
70550SOL    HW113489  11.647   9.384  10.902
70550SOL    HW213490  11.508   9.324  10.900
70551SOL     OW13491   7.007   5.774   1.667
70551SOL    HW113492   7.030   5.683   1.650
70551SOL    HW213493   7.020   5.785   1.761
70552SOL     OW13494   0.338  14.257   9.885
70552SOL    HW113495   0.404  14.208   9.935
70552SOL    HW213496   0.324  14.337   9.936
70553SOL     OW13497  13.167   5.914   0.086
70553SOL    HW113498  13.101   5.892   0.152
70553SOL    HW213499  13.216   5.832   0.074
70554SOL     OW13500   1.599   2.282  13.708
70554SOL    HW113501   1.623   2.254  13.796
70554SOL    HW213502   1.589   2.377  13.714
70555SOL     OW13503   6.530  13.773  12.166
70555SOL    HW113504   6.618  13.744  12.192
70555SOL    HW213505   6.533  13.775  12.070
70556SOL     OW13506   9.777  12.332   5.661
70556SOL    HW113507   9.838  12.392   5.703
70556SOL    HW213508   9.822  12.303   5.582
70557SOL     OW13509  14.798   9.641   8.785
70557SOL    HW113510   0.013   9.631   8.799
70557SOL    HW213511  14.784   9.736   8.783
70558SOL     OW13512  13.456   8.321  13.578
70558SOL    HW113513  13.373   8.351  13.541
70558SOL    HW213514  13.431   8.268  13.653
70559SOL     OW13515   0.117  10.328   0.322
70559SOL    HW113516   0.188  10.325   0.258
70559SOL    HW213517   0.110  10.421   0.345
70560SOL     OW13518   4.612   8.138   5.976
70560SOL    HW113519   4.670   8.198   5.928
70560SOL    HW213520   4.524   8.167   5.955
70561SOL     OW13521   5.765   9.038  14.660
70561SOL    HW113522   5.728   9.095  14.727
70561SOL    HW213523   5.752   9.085  14.578
70562SOL     OW13524  13.742   8.801   0.626
70562SOL    HW113525  13.707   8.716   0.601
70562SOL    HW213526  13.697   8.864   0.570
70563SOL     OW13527  11.479  13.802   5.234
70563SOL    HW113528  11.439  13.885   5.208
70563SOL    HW213529  11.573  13.816   5.223
70564SOL     OW13530   2.218   5.639  13.970
70564SOL    HW113531   2.158   5.646  13.895
70564SOL    HW213532   2.173   5.581  14.032
70565SOL     OW13533   3.506   6.350  12.631
70565SOL    HW113534   3.431   6.385  12.679
70565SOL    HW213535   3.571   6.332  12.699
70566SOL     OW13536   5.095   9.678  12.666
70566SOL    HW113537   5.109   9.765  12.629
70566SOL    HW213538   5.182   9.637  12.666
70567SOL     OW13539  10.212   5.344   7.422
70567SOL    HW113540  10.155   5.270   7.401
70567SOL    HW213541  10.294   5.325   7.376
70568SOL     OW13542  13.841  10.673   8.743
70568SOL    HW113543  13.823  10.582   8.766
70568SOL    HW213544  13.888  10.708   8.818
70569SOL     OW13545   3.145   0.060   6.306
70569SOL    HW113546   3.079   0.127   6.323
70569SOL    HW213547   3.114  14.863   6.356
70570SOL     OW13548   5.773  14.065  10.656
70570SOL    HW113549   5.826  14.013  10.716
70570SOL    HW213550   5.763  14.149  10.700
70571SOL     OW13551  14.013   8.032   3.091
70571SOL    HW113552  13.942   8.084   3.129
70571SOL    HW213553  13.984   8.013   3.002
70572SOL     OW13554   1.236  12.094   7.565
70572SOL    HW113555   1.291  12.022   7.597
70572SOL    HW213556   1.261  12.169   7.619
70573SOL     OW13557   7.251   6.560  13.400
70573SOL    HW113558   7.302   6.541  13.479
70573SOL    HW213559   7.209   6.644  13.418
70574SOL     OW13560   3.071   4.726   1.632
70574SOL    HW113561   3.140   4.662   1.649
70574SOL    HW213562   2.996   4.695   1.683
70575SOL     OW13563   3.202   8.794   3.106
70575SOL    HW113564   3.247   8.787   3.190
70575SOL    HW213565   3.135   8.861   3.119
70576SOL     OW13566   6.258   4.914   9.413
70576SOL    HW113567   6.237   4.927   9.320
70576SOL    HW213568   6.353   4.916   9.417
70577SOL     OW13569   8.006  13.008  10.564
70577SOL    HW113570   8.001  13.073  10.634
70577SOL    HW213571   8.046  13.054  10.491
70578SOL     OW13572   5.651   9.541   4.474
70578SOL    HW113573   5.737   9.501   4.483
70578SOL    HW213574   5.590   9.475   4.505
70579SOL     OW13575   4.469  10.279  10.826
70579SOL    HW113576   4.475  10.250  10.735
70579SOL    HW213577   4.503  10.369  10.825
70580SOL     OW13578   6.881   4.020   9.958
70580SOL    HW113579   6.881   3.953   9.889
70580SOL    HW213580   6.906   4.100   9.913
70581SOL     OW13581   6.226   5.857   8.864
70581SOL    HW113582   6.243   5.921   8.795
70581SOL    HW213583   6.157   5.801   8.828
70582SOL     OW13584   8.301   2.262  11.971
70582SOL    HW113585   8.266   2.233  12.055
70582SOL    HW213586   8.291   2.357  11.972
70583SOL     OW13587   8.440   0.013   0.976
70583SOL    HW113588   8.450  14.859   1.066
70583SOL    HW213589   8.513   0.073   0.964
70584SOL     OW13590  10.801  10.096   6.244
70584SOL    HW113591  10.844  10.131   6.166
70584SOL    HW213592  10.868  10.042   6.286
70585SOL     OW13593   9.168   4.589   6.433
70585SOL    HW113594   9.137   4.612   6.521
70585SOL    HW213595   9.091   4.594   6.377
70586SOL     OW13596   6.154  14.849   4.982
70586SOL    HW113597   6.250  14.845   4.984
70586SOL    HW213598   6.127  14.813   5.067
70587SOL     OW13599  13.072   4.465  14.025
70587SOL    HW113600  13.133   4.457  13.952
70587SOL    HW213601  12.985   4.455  13.986
70588SOL     OW13602  10.848   0.685   6.640
70588SOL    HW113603  10.783   0.627   6.600
70588SOL    HW213604  10.831   0.771   6.602
70589SOL     OW13605  11.751  12.343   3.847
70589SOL    HW113606  11.790  12.289   3.777
70589SOL    HW213607  11.745  12.283   3.922
70590SOL     OW13608   9.964  10.993   0.377
70590SOL    HW113609   9.917  10.950   0.448
70590SOL    HW213610   9.922  10.960   0.297
70591SOL     OW13611   2.530  13.314   6.662
70591SOL    HW113612   2.473  13.272   6.726
70591SOL    HW213613   2.528  13.256   6.586
70592SOL     OW13614  13.605   4.885  11.495
70592SOL    HW113615  13.585   4.968  11.539
70592SOL    HW213616  13.529   4.829  11.513
70593SOL     OW13617   7.162  13.686   3.080
70593SOL    HW113618   7.076  13.644   3.083
70593SOL    HW213619   7.166  13.738   3.161
70594SOL     OW13620   6.117   9.523   9.730
70594SOL    HW113621   6.067   9.515   9.811
70594SOL    HW213622   6.208   9.514   9.757
70595SOL     OW13623   8.304   1.426   4.007
70595SOL    HW113624   8.346   1.505   3.975
70595SOL    HW213625   8.359   1.354   3.976
70596SOL     OW13626   2.568   1.914   0.459
70596SOL    HW113627   2.586   1.831   0.503
70596SOL    HW213628   2.654   1.942   0.426
70597SOL     OW13629   4.792   3.915  14.396
70597SOL    HW113630   4.762   3.887  14.309
70597SOL    HW213631   4.837   3.998  14.379
70598SOL     OW13632  11.481  11.493   8.507
70598SOL    HW113633  11.502  11.424   8.571
70598SOL    HW213634  11.536  11.567   8.533
70599SOL     OW13635   1.398   7.358   6.665
70599SOL    HW113636   1.415   7.316   6.748
70599SOL    HW213637   1.454   7.312   6.602
70600SOL     OW13638   2.834   9.016   4.982
70600SOL    HW113639   2.889   9.036   5.058
70600SOL    HW213640   2.819   9.102   4.942
70601SOL     OW13641   0.878  12.044   8.172
70601SOL    HW113642   0.919  12.109   8.230
70601SOL    HW213643   0.799  12.017   8.218
70602SOL     OW13644  13.154   8.633   7.549
70602SOL    HW113645  13.151   8.685   7.469
70602SOL    HW213646  13.062   8.623   7.575
70603SOL     OW13647  10.561   5.352   9.775
70603SOL    HW113648  10.635   5.414   9.781
70603SOL    HW213649  10.483   5.408   9.781
70604SOL     OW13650   4.436  10.044   6.088
70604SOL    HW113651   4.398   9.964   6.125
70604SOL    HW213652   4.519  10.016   6.051
70605SOL     OW13653   8.451  13.151   1.350
70605SOL    HW113654   8.398  13.140   1.430
70605SOL    HW213655   8.490  13.065   1.335
70606SOL     OW13656   5.680  11.494   4.724
70606SOL    HW113657   5.587  11.517   4.728
70606SOL    HW213658   5.706  11.485   4.816
70607SOL     OW13659   3.390  10.218   8.404
70607SOL    HW113660   3.309  10.191   8.447
70607SOL    HW213661   3.364  10.291   8.348
70608SOL     OW13662   0.498   3.821  11.925
70608SOL    HW113663   0.495   3.805  11.830
70608SOL    HW213664   0.440   3.756  11.962
70609SOL     OW13665   8.898  12.845   4.630
70609SOL    HW113666   8.825  12.899   4.661
70609SOL    HW213667   8.856  12.765   4.597
70610SOL     OW13668  13.902   0.262   8.952
70610SOL    HW113669  13.882   0.316   9.028
70610SOL    HW213670  13.878   0.316   8.876
70611SOL     OW13671   4.163   2.973   5.817
70611SOL    HW113672   4.124   2.976   5.905
70611SOL    HW213673   4.220   3.050   5.814
70612SOL     OW13674  12.085   3.825  12.908
70612SOL    HW113675  12.180   3.814  12.899
70612SOL    HW213676  12.068   3.911  12.868
70613SOL     OW13677   0.743   3.511  12.707
70613SOL    HW113678   0.830   3.483  12.736
70613SOL    HW213679   0.685   3.439  12.732
70614SOL     OW13680   5.816   9.104  13.055
70614SOL    HW113681   5.721   9.103  13.058
70614SOL    HW213682   5.842   9.170  13.120
70615SOL     OW13683   4.519   2.223   8.502
70615SOL    HW113684   4.441   2.216   8.447
70615SOL    HW213685   4.487   2.211   8.592
70616SOL     OW13686   6.664  13.915   1.617
70616SOL    HW113687   6.749  13.907   1.574
70616SOL    HW213688   6.666  14.002   1.657
70617SOL     OW13689  10.696   4.919  13.482
70617SOL    HW113690  10.778   4.961  13.459
70617SOL    HW213691  10.630   4.988  13.476
70618SOL     OW13692   3.448   0.177   3.918
70618SOL    HW113693   3.518   0.162   3.982
70618SOL    HW213694   3.368   0.151   3.964
70619SOL     OW13695  14.874   3.749   8.994
70619SOL    HW113696  14.823   3.805   9.053
70619SOL    HW213697  14.837   3.661   9.007
70620SOL     OW13698  12.226   6.579   8.404
70620SOL    HW113699  12.190   6.564   8.491
70620SOL    HW213700  12.318   6.602   8.420
70621SOL     OW13701   5.320   2.813  14.083
70621SOL    HW113702   5.347   2.793  13.994
70621SOL    HW213703   5.280   2.900  14.078
70622SOL     OW13704   5.132  11.952   1.730
70622SOL    HW113705   5.218  11.909   1.724
70622SOL    HW213706   5.070  11.880   1.734
70623SOL     OW13707  10.668  13.544   9.969
70623SOL    HW113708  10.619  13.550  10.052
70623SOL    HW213709  10.621  13.478   9.919
70624SOL     OW13710   4.088   5.162   8.731
70624SOL    HW113711   4.045   5.079   8.712
70624SOL    HW213712   4.084   5.211   8.648
70625SOL     OW13713  14.754   8.906   9.783
70625SOL    HW113714  14.796   8.833   9.829
70625SOL    HW213715  14.686   8.936   9.842
70626SOL     OW13716   4.527  11.984   4.200
70626SOL    HW113717   4.459  11.917   4.198
70626SOL    HW213718   4.479  12.067   4.200
70627SOL     OW13719   8.385   0.650   6.195
70627SOL    HW113720   8.409   0.726   6.248
70627SOL    HW213721   8.316   0.682   6.137
70628SOL     OW13722  12.717   1.846  11.883
70628SOL    HW113723  12.628   1.844  11.847
70628SOL    HW213724  12.750   1.933  11.861
70629SOL     OW13725   8.046   4.750   9.436
70629SOL    HW113726   8.126   4.699   9.447
70629SOL    HW213727   8.069   4.837   9.470
70630SOL     OW13728   0.367   2.209   8.355
70630SOL    HW113729   0.296   2.227   8.417
70630SOL    HW213730   0.440   2.181   8.410
70631SOL     OW13731  13.924  11.071  12.914
70631SOL    HW113732  13.909  11.164  12.931
70631SOL    HW213733  13.845  11.028  12.945
70632SOL     OW13734  11.308   4.339   6.865
70632SOL    HW113735  11.357   4.268   6.906
70632SOL    HW213736  11.375   4.393   6.823
70633SOL     OW13737  12.210   0.240   1.996
70633SOL    HW113738  12.292   0.191   1.995
70633SOL    HW213739  12.205   0.275   2.085
70634SOL     OW13740   1.323   7.158   6.401
70634SOL    HW113741   1.330   7.063   6.402
70634SOL    HW213742   1.413   7.189   6.415
70635SOL     OW13743  12.282  11.780   8.818
70635SOL    HW113744  12.349  11.803   8.754
70635SOL    HW213745  12.317  11.703   8.862
70636SOL     OW13746   3.034  14.436   0.338
70636SOL    HW113747   3.069  14.489   0.266
70636SOL    HW213748   2.965  14.490   0.377
70637SOL     OW13749   4.202  14.844   1.665
70637SOL    HW113750   4.254  14.764   1.666
70637SOL    HW213751   4.266   0.034   1.681
70638SOL     OW13752   7.103  14.064   2.108
70638SOL    HW113753   7.166  14.125   2.068
70638SOL    HW213754   7.152  13.983   2.120
70639SOL     OW13755   0.187  12.833   2.450
70639SOL    HW113756   0.232  12.907   2.409
70639SOL    HW213757   0.220  12.832   2.540
70640SOL     OW13758   6.555  11.906   6.820
70640SOL    HW113759   6.496  11.864   6.756
70640SOL    HW213760   6.643  11.884   6.789
70641SOL     OW13761   6.613   9.421   1.615
70641SOL    HW113762   6.596   9.337   1.656
70641SOL    HW213763   6.540   9.476   1.643
70642SOL     OW13764   0.946  12.800   2.186
70642SOL    HW113765   1.019  12.844   2.228
70642SOL    HW213766   0.973  12.787   2.096
70643SOL     OW13767  10.399   8.062   6.122
70643SOL    HW113768  10.438   8.149   6.128
70643SOL    HW213769  10.463   8.011   6.072
70644SOL     OW13770  14.390   0.725  14.100
70644SOL    HW113771  14.344   0.718  14.183
70644SOL    HW213772  14.350   0.801  14.056
70645SOL     OW13773   9.948   9.104   1.392
70645SOL    HW113774   9.944   9.068   1.303
70645SOL    HW213775  10.037   9.083   1.422
70646SOL     OW13776   5.742  11.187   4.842
70646SOL    HW113777   5.825  11.141   4.833
70646SOL    HW213778   5.756  11.247   4.915
70647SOL     OW13779  14.433  12.936   1.018
70647SOL    HW113780  14.416  12.851   0.978
70647SOL    HW213781  14.346  12.977   1.025
70648SOL     OW13782   7.939  14.533   3.279
70648SOL    HW113783   7.932  14.444   3.314
70648SOL    HW213784   8.027  14.537   3.241
70649SOL     OW13785   0.647   8.310   8.834
70649SOL    HW113786   0.583   8.377   8.808
70649SOL    HW213787   0.599   8.252   8.893
70650SOL     OW13788   4.242  12.485   4.905
70650SOL    HW113789   4.179  12.454   4.840
70650SOL    HW213790   4.193  12.488   4.987
70651SOL     OW13791  13.675   9.579   3.253
70651SOL    HW113792  13.724   9.512   3.206
70651SOL    HW213793  13.711   9.578   3.341
70652SOL     OW13794   2.448   4.531   5.570
70652SOL    HW113795   2.361   4.526   5.609
70652SOL    HW213796   2.508   4.521   5.644
70653SOL     OW13797   2.082   0.782   6.362
70653SOL    HW113798   2.101   0.690   6.348
70653SOL    HW213799   2.168   0.824   6.365
70654SOL     OW13800   9.914   2.900  14.286
70654SOL    HW113801   9.860   2.859  14.354
70654SOL    HW213802   9.857   2.966  14.247
70655SOL     OW13803   5.254   6.754  10.827
70655SOL    HW113804   5.195   6.823  10.796
70655SOL    HW213805   5.207   6.715  10.901
70656SOL     OW13806   6.219  12.533   2.842
70656SOL    HW113807   6.191  12.490   2.761
70656SOL    HW213808   6.148  12.516   2.904
70657SOL     OW13809   8.923   1.545   2.248
70657SOL    HW113810   8.925   1.536   2.153
70657SOL    HW213811   8.972   1.624   2.267
70658SOL     OW13812   4.183   4.931  10.910
70658SOL    HW113813   4.258   4.940  10.850
70658SOL    HW213814   4.170   5.019  10.946
70659SOL     OW13815   5.939   6.610  14.653
70659SOL    HW113816   5.941   6.527  14.606
70659SOL    HW213817   5.854   6.648  14.632
70660SOL     OW13818   8.722  12.285   1.807
70660SOL    HW113819   8.739  12.363   1.860
70660SOL    HW213820   8.643  12.247   1.845
70661SOL     OW13821  14.279  10.583   7.259
70661SOL    HW113822  14.265  10.514   7.324
70661SOL    HW213823  14.321  10.654   7.308
70662SOL     OW13824  10.611   3.094   2.308
70662SOL    HW113825  10.549   3.026   2.333
70662SOL    HW213826  10.686   3.081   2.366
70663SOL     OW13827   9.904  12.178   4.827
70663SOL    HW113828   9.973  12.224   4.874
70663SOL    HW213829   9.842  12.246   4.802
70664SOL     OW13830   2.877  10.025   9.372
70664SOL    HW113831   2.926   9.946   9.350
70664SOL    HW213832   2.908  10.049   9.460
70665SOL     OW13833   1.279  12.377  12.486
70665SOL    HW113834   1.365  12.417  12.475
70665SOL    HW213835   1.296  12.295  12.532
70666SOL     OW13836   0.303   4.743   2.749
70666SOL    HW113837   0.299   4.769   2.657
70666SOL    HW213838   0.362   4.806   2.789
70667SOL     OW13839  11.156  11.097   0.997
70667SOL    HW113840  11.190  11.026   1.051
70667SOL    HW213841  11.076  11.061   0.957
70668SOL     OW13842   6.836   9.110   2.103
70668SOL    HW113843   6.833   9.073   2.015
70668SOL    HW213844   6.920   9.083   2.138
70669SOL     OW13845   6.420   2.985  10.076
70669SOL    HW113846   6.457   2.996  10.163
70669SOL    HW213847   6.437   2.893  10.054
70670SOL     OW13848  13.385   4.264  13.806
70670SOL    HW113849  13.299   4.236  13.774
70670SOL    HW213850  13.415   4.191  13.860
70671SOL     OW13851   1.428   9.414   0.520
70671SOL    HW113852   1.520   9.395   0.540
70671SOL    HW213853   1.383   9.331   0.534
70672SOL     OW13854   0.900   4.113   2.868
70672SOL    HW113855   0.813   4.084   2.894
70672SOL    HW213856   0.960   4.057   2.918
70673SOL     OW13857   8.922   3.477  11.887
70673SOL    HW113858   8.836   3.457  11.925
70673SOL    HW213859   8.984   3.455  11.957
70674SOL     OW13860  12.760   2.588   1.103
70674SOL    HW113861  12.835   2.528   1.110
70674SOL    HW213862  12.692   2.536   1.059
70675SOL     OW13863   7.172   6.877   8.114
70675SOL    HW113864   7.176   6.971   8.133
70675SOL    HW213865   7.242   6.862   8.050
70676SOL     OW13866   7.803  12.457   1.919
70676SOL    HW113867   7.805  12.500   2.004
70676SOL    HW213868   7.790  12.365   1.938
70677SOL     OW13869   9.117   2.220   5.398
70677SOL    HW113870   9.195   2.266   5.367
70677SOL    HW213871   9.105   2.148   5.336
70678SOL     OW13872  11.504   3.608   9.141
70678SOL    HW113873  11.456   3.550   9.082
70678SOL    HW213874  11.559   3.662   9.082
70679SOL     OW13875   7.850   0.768   3.521
70679SOL    HW113876   7.832   0.826   3.595
70679SOL    HW213877   7.944   0.753   3.525
70680SOL     OW13878   6.022  12.480   1.295
70680SOL    HW113879   6.015  12.389   1.324
70680SOL    HW213880   6.066  12.475   1.210
70681SOL     OW13881   5.644  10.033   1.776
70681SOL    HW113882   5.715  10.096   1.765
70681SOL    HW213883   5.596  10.037   1.693
70682SOL     OW13884   4.864   7.802   2.932
70682SOL    HW113885   4.956   7.778   2.927
70682SOL    HW213886   4.828   7.745   3.001
70683SOL     OW13887   7.756  11.276   1.456
70683SOL    HW113888   7.806  11.225   1.392
70683SOL    HW213889   7.815  11.345   1.484
70684SOL     OW13890   3.001  14.682  10.488
70684SOL    HW113891   2.937  14.752  10.503
70684SOL    HW213892   2.948  14.603  10.480
70685SOL     OW13893  13.039   2.235   7.591
70685SOL    HW113894  13.062   2.324   7.617
70685SOL    HW213895  12.966   2.210   7.648
70686SOL     OW13896   6.564   1.591  11.527
70686SOL    HW113897   6.620   1.669  11.523
70686SOL    HW213898   6.477   1.625  11.548
70687SOL     OW13899   6.748   5.943   5.616
70687SOL    HW113900   6.761   6.025   5.567
70687SOL    HW213901   6.825   5.936   5.672
70688SOL     OW13902   8.630   1.218   7.370
70688SOL    HW113903   8.724   1.233   7.362
70688SOL    HW213904   8.622   1.127   7.399
70689SOL     OW13905  13.735  11.657   4.515
70689SOL    HW113906  13.680  11.735   4.507
70689SOL    HW213907  13.809  11.686   4.569
70690SOL     OW13908   3.383   1.829   6.436
70690SOL    HW113909   3.360   1.812   6.527
70690SOL    HW213910   3.323   1.899   6.409
70691SOL     OW13911  13.089   9.905  12.209
70691SOL    HW113912  13.008   9.912  12.260
70691SOL    HW213913  13.091   9.987  12.158
70692SOL     OW13914   7.923  13.015  11.160
70692SOL    HW113915   7.941  13.085  11.097
70692SOL    HW213916   7.909  13.060  11.242
70693SOL     OW13917  14.841   2.193   0.764
70693SOL    HW113918  14.748   2.185   0.745
70693SOL    HW213919  14.870   2.103   0.781
70694SOL     OW13920  11.426  11.838   6.085
70694SOL    HW113921  11.391  11.883   6.009
70694SOL    HW213922  11.427  11.904   6.154
70695SOL     OW13923   9.852   7.661  10.786
70695SOL    HW113924   9.911   7.693  10.718
70695SOL    HW213925   9.906   7.601  10.837
70696SOL     OW13926  14.309   7.706   8.491
70696SOL    HW113927  14.368   7.633   8.510
70696SOL    HW213928  14.340   7.777   8.547
70697SOL     OW13929  13.277   5.877   0.859
70697SOL    HW113930  13.185   5.901   0.844
70697SOL    HW213931  13.285   5.788   0.824
70698SOL     OW13932   7.649  13.877   7.515
70698SOL    HW113933   7.694  13.918   7.442
70698SOL    HW213934   7.629  13.788   7.486
70699SOL     OW13935   1.360   1.532  10.904
70699SOL    HW113936   1.447   1.494  10.907
70699SOL    HW213937   1.375   1.625  10.886
70700SOL     OW13938   9.638   5.162   2.834
70700SOL    HW113939   9.669   5.222   2.765
70700SOL    HW213940   9.674   5.077   2.809
70701SOL     OW13941  12.317  11.866  14.757
70701SOL    HW113942  12.296  11.774  14.767
70701SOL    HW213943  12.408  11.867  14.727
70702SOL     OW13944   5.139  11.110   3.574
70702SOL    HW113945   5.216  11.137   3.524
70702SOL    HW213946   5.164  11.027   3.615
70703SOL     OW13947  14.278  14.061   1.647
70703SOL    HW113948  14.358  14.091   1.691
70703SOL    HW213949  14.244  13.991   1.702
70704SOL     OW13950   4.180  12.281  10.864
70704SOL    HW113951   4.162  12.364  10.909
70704SOL    HW213952   4.160  12.214  10.929
70705SOL     OW13953  11.396   8.146   8.096
70705SOL    HW113954  11.455   8.176   8.027
70705SOL    HW213955  11.350   8.071   8.057
70706SOL     OW13956   4.904   3.736   7.607
70706SOL    HW113957   4.965   3.797   7.649
70706SOL    HW213958   4.957   3.689   7.543
70707SOL     OW13959   8.995   5.528   7.508
70707SOL    HW113960   9.046   5.592   7.556
70707SOL    HW213961   9.059   5.480   7.456
70708SOL     OW13962   6.634   1.967  14.842
70708SOL    HW113963   6.598   2.011   0.040
70708SOL    HW213964   6.704   1.912  14.876
70709SOL     OW13965   6.949  12.269   6.962
70709SOL    HW113966   6.862  12.231   6.953
70709SOL    HW213967   6.999  12.202   7.009
70710SOL     OW13968  13.864   9.425  13.971
70710SOL    HW113969  13.886   9.514  13.943
70710SOL    HW213970  13.928   9.404  14.039
70711SOL     OW13971  12.764   2.130   2.171
70711SOL    HW113972  12.777   2.043   2.208
70711SOL    HW213973  12.686   2.164   2.214
70712SOL     OW13974   1.784   4.929   7.695
70712SOL    HW113975   1.717   4.979   7.742
70712SOL    HW213976   1.852   4.993   7.675
70713SOL     OW13977   1.603   9.192  12.101
70713SOL    HW113978   1.517   9.184  12.143
70713SOL    HW213979   1.590   9.157  12.013
70714SOL     OW13980   1.150  13.612   9.125
70714SOL    HW113981   1.234  13.581   9.091
70714SOL    HW213982   1.139  13.698   9.084
70715SOL     OW13983   6.419  11.661  10.468
70715SOL    HW113984   6.355  11.708  10.521
70715SOL    HW213985   6.493  11.722  10.460
70716SOL     OW13986   9.982   0.890   0.279
70716SOL    HW113987   9.894   0.923   0.257
70716SOL    HW213988   9.967   0.800   0.308
70717SOL     OW13989   1.790   7.703   9.734
70717SOL    HW113990   1.709   7.654   9.718
70717SOL    HW213991   1.854   7.637   9.758
70718SOL     OW13992   1.217   7.360   5.769
70718SOL    HW113993   1.256   7.382   5.684
70718SOL    HW213994   1.277   7.295   5.807
70719SOL     OW13995   7.878   9.672   8.145
70719SOL    HW113996   7.896   9.728   8.070
70719SOL    HW213997   7.955   9.615   8.151
70720SOL     OW13998   1.244   6.789   9.379
70720SOL    HW113999   1.281   6.807   9.293
70720SOL    HW214000   1.269   6.699   9.398
70721SOL     OW14001   8.741   2.963   2.777
70721SOL    HW114002   8.798   2.968   2.701
70721SOL    HW214003   8.671   3.025   2.760
70722SOL     OW14004  12.364  10.269   3.646
70722SOL    HW114005  12.367  10.351   3.597
70722SOL    HW214006  12.275  10.236   3.632
70723SOL     OW14007  10.691   5.221  14.026
70723SOL    HW114008  10.754   5.236  14.097
70723SOL    HW214009  10.744   5.182  13.955
70724SOL     OW14010   6.486   9.055   8.995
70724SOL    HW114011   6.404   9.032   9.039
70724SOL    HW214012   6.460   9.117   8.927
70725SOL     OW14013   5.030  12.959   4.825
70725SOL    HW114014   5.003  13.051   4.821
70725SOL    HW214015   4.958  12.911   4.784
70726SOL     OW14016   3.708   9.544   3.379
70726SOL    HW114017   3.681   9.456   3.405
70726SOL    HW214018   3.799   9.534   3.351
70727SOL     OW14019  13.104   9.143   2.889
70727SOL    HW114020  13.186   9.102   2.919
70727SOL    HW214021  13.044   9.070   2.876
70728SOL     OW14022   7.725  14.254   3.199
70728SOL    HW114023   7.797  14.191   3.206
70728SOL    HW214024   7.746  14.304   3.119
70729SOL     OW14025   1.467   7.645   2.118
70729SOL    HW114026   1.400   7.618   2.181
70729SOL    HW214027   1.440   7.732   2.090
70730SOL     OW14028  13.018  14.482   4.254
70730SOL    HW114029  12.973  14.420   4.310
70730SOL    HW214030  12.948  14.536   4.217
70731SOL     OW14031  10.351   3.986   4.322
70731SOL    HW114032  10.414   4.059   4.322
70731SOL    HW214033  10.323   3.979   4.231
70732SOL     OW14034  10.664   8.587  10.997
70732SOL    HW114035  10.640   8.581  11.090
70732SOL    HW214036  10.752   8.625  10.998
70733SOL     OW14037   9.591   6.151   3.920
70733SOL    HW114038   9.661   6.192   3.870
70733SOL    HW214039   9.575   6.210   3.994
70734SOL     OW14040  14.401   2.721  11.695
70734SOL    HW114041  14.472   2.658  11.686
70734SOL    HW214042  14.353   2.692  11.772
70735SOL     OW14043  12.274  14.750   3.761
70735SOL    HW114044  12.185  14.758   3.796
70735SOL    HW214045  12.264  14.694   3.684
70736SOL     OW14046  10.415   1.359  14.198
70736SOL    HW114047  10.470   1.382  14.123
70736SOL    HW214048  10.465   1.389  14.274
70737SOL     OW14049   5.762  13.239   7.378
70737SOL    HW114050   5.728  13.301   7.313
70737SOL    HW214051   5.783  13.160   7.328
70738SOL     OW14052   2.109   7.366   3.993
70738SOL    HW114053   2.129   7.296   4.055
70738SOL    HW214054   2.100   7.445   4.046
70739SOL     OW14055   4.413  13.500   1.950
70739SOL    HW114056   4.384  13.497   1.858
70739SOL    HW214057   4.471  13.576   1.954
70740SOL     OW14058  12.329   2.558   5.230
70740SOL    HW114059  12.410   2.532   5.275
70740SOL    HW214060  12.262   2.499   5.266
70741SOL     OW14061   2.935   7.762   3.406
70741SOL    HW114062   2.870   7.820   3.366
70741SOL    HW214063   2.888   7.679   3.418
70742SOL     OW14064  12.668   9.957   5.482
70742SOL    HW114065  12.655   9.972   5.576
70742SOL    HW214066  12.756   9.991   5.465
70743SOL     OW14067   8.663   7.953  11.886
70743SOL    HW114068   8.571   7.955  11.858
70743SOL    HW214069   8.660   7.981  11.978
70744SOL     OW14070   1.643   4.595   7.809
70744SOL    HW114071   1.614   4.682   7.837
70744SOL    HW214072   1.602   4.535   7.871
70745SOL     OW14073   7.511   6.022   7.019
70745SOL    HW114074   7.602   5.993   7.014
70745SOL    HW214075   7.500   6.078   6.942
70746SOL     OW14076  13.273  14.205   5.420
70746SOL    HW114077  13.318  14.125   5.393
70746SOL    HW214078  13.309  14.273   5.364
70747SOL     OW14079   3.345  12.405   0.001
70747SOL    HW114080   3.349  12.478   0.062
70747SOL    HW214081   3.403  12.430  14.808
70748SOL     OW14082   2.993  10.960  11.226
70748SOL    HW114083   3.074  11.001  11.198
70748SOL    HW214084   3.003  10.868  11.201
70749SOL     OW14085  14.401   6.654  14.863
70749SOL    HW114086  14.371   6.569  14.832
70749SOL    HW214087  14.490   6.639   0.014
70750SOL     OW14088  14.128   5.060   5.256
70750SOL    HW114089  14.169   5.010   5.327
70750SOL    HW214090  14.202   5.091   5.203
70751SOL     OW14091   5.762  13.956   1.444
70751SOL    HW114092   5.789  14.041   1.410
70751SOL    HW214093   5.822  13.939   1.517
70752SOL     OW14094   8.780   7.163   5.224
70752SOL    HW114095   8.825   7.139   5.143
70752SOL    HW214096   8.751   7.253   5.209
70753SOL     OW14097   1.525  10.971  13.892
70753SOL    HW114098   1.530  10.884  13.853
70753SOL    HW214099   1.432  10.995  13.886
70754SOL     OW14100   1.307   1.460  11.190
70754SOL    HW114101   1.291   1.553  11.207
70754SOL    HW214102   1.341   1.457  11.101
70755SOL     OW14103  14.646   2.126   2.715
70755SOL    HW114104  14.697   2.080   2.781
70755SOL    HW214105  14.682   2.097   2.631
70756SOL     OW14106  11.312  10.516  12.265
70756SOL    HW114107  11.378  10.456  12.298
70756SOL    HW214108  11.239  10.508  12.327
70757SOL     OW14109   3.501   8.101   9.354
70757SOL    HW114110   3.572   8.159   9.326
70757SOL    HW214111   3.422   8.155   9.348
70758SOL     OW14112   4.985   4.552   5.579
70758SOL    HW114113   5.069   4.555   5.534
70758SOL    HW214114   4.925   4.601   5.522
70759SOL     OW14115  11.864  12.974   9.348
70759SOL    HW114116  11.841  12.939   9.262
70759SOL    HW214117  11.904  12.900   9.394
70760SOL     OW14118  14.633   5.735  11.759
70760SOL    HW114119  14.641   5.762  11.668
70760SOL    HW214120  14.540   5.746  11.780
70761SOL     OW14121  12.308   2.792  10.849
70761SOL    HW114122  12.305   2.780  10.943
70761SOL    HW214123  12.324   2.704  10.814
70762SOL     OW14124   5.729   8.750  13.422
70762SOL    HW114125   5.737   8.700  13.340
70762SOL    HW214126   5.684   8.831  13.397
70763SOL     OW14127   4.382  14.593   5.679
70763SOL    HW114128   4.308  14.535   5.694
70763SOL    HW214129   4.371  14.663   5.744
70764SOL     OW14130  10.728  14.845   4.838
70764SOL    HW114131  10.728  14.821   4.745
70764SOL    HW214132  10.683  14.772   4.881
70765SOL     OW14133   6.351   0.283  10.055
70765SOL    HW114134   6.259   0.258  10.056
70765SOL    HW214135   6.371   0.301  10.147
70766SOL     OW14136   6.674   8.293   8.035
70766SOL    HW114137   6.727   8.246   7.971
70766SOL    HW214138   6.705   8.383   8.031
70767SOL     OW14139   5.439   7.827   4.681
70767SOL    HW114140   5.454   7.740   4.643
70767SOL    HW214141   5.525   7.853   4.715
70768SOL     OW14142   1.529  14.405   2.150
70768SOL    HW114143   1.551  14.408   2.056
70768SOL    HW214144   1.447  14.357   2.154
70769SOL     OW14145   6.994  12.416   1.026
70769SOL    HW114146   6.932  12.433   1.097
70769SOL    HW214147   6.981  12.489   0.966
70770SOL     OW14148   0.191   4.134   3.768
70770SOL    HW114149   0.261   4.093   3.717
70770SOL    HW214150   0.118   4.143   3.706
70771SOL     OW14151  14.052  11.706   4.131
70771SOL    HW114152  14.096  11.763   4.194
70771SOL    HW214153  13.981  11.760   4.095
70772SOL     OW14154  13.456  11.022   2.880
70772SOL    HW114155  13.465  11.063   2.794
70772SOL    HW214156  13.386  11.072   2.923
70773SOL     OW14157   7.635  10.844   9.731
70773SOL    HW114158   7.683  10.915   9.774
70773SOL    HW214159   7.698  10.804   9.672
70774SOL     OW14160   9.803   3.311  11.711
70774SOL    HW114161   9.725   3.302  11.765
70774SOL    HW214162   9.777   3.276  11.625
70775SOL     OW14163  11.727   5.406  13.357
70775SOL    HW114164  11.781   5.330  13.336
70775SOL    HW214165  11.672   5.377  13.430
70776SOL     OW14166   4.513  14.687   9.618
70776SOL    HW114167   4.443  14.739   9.578
70776SOL    HW214168   4.477  14.599   9.624
70777SOL     OW14169  14.337  13.641  13.224
70777SOL    HW114170  14.263  13.587  13.250
70777SOL    HW214171  14.300  13.704  13.161
70778SOL     OW14172   2.494   7.865   8.030
70778SOL    HW114173   2.482   7.798   7.962
70778SOL    HW214174   2.490   7.816   8.112
70779SOL     OW14175   0.175  10.647  13.164
70779SOL    HW114176   0.114  10.669  13.094
70779SOL    HW214177   0.137  10.685  13.242
70780SOL     OW14178  10.586   9.025   6.591
70780SOL    HW114179  10.656   8.987   6.644
70780SOL    HW214180  10.505   9.001   6.637
70781SOL     OW14181   5.076   7.070  13.886
70781SOL    HW114182   5.039   7.148  13.926
70781SOL    HW214183   5.136   7.103  13.819
70782SOL     OW14184  11.085   4.365  12.899
70782SOL    HW114185  11.140   4.307  12.846
70782SOL    HW214186  11.116   4.350  12.989
70783SOL     OW14187  11.048   5.410   7.139
70783SOL    HW114188  11.055   5.505   7.138
70783SOL    HW214189  10.990   5.389   7.066
70784SOL     OW14190   2.596   9.323   6.900
70784SOL    HW114191   2.520   9.374   6.928
70784SOL    HW214192   2.642   9.379   6.838
70785SOL     OW14193  13.175  14.247   6.951
70785SOL    HW114194  13.230  14.179   6.914
70785SOL    HW214195  13.086  14.225   6.921
70786SOL     OW14196   2.586   2.193   7.567
70786SOL    HW114197   2.568   2.160   7.479
70786SOL    HW214198   2.620   2.281   7.553
70787SOL     OW14199   5.514   0.836  12.561
70787SOL    HW114200   5.434   0.795  12.527
70787SOL    HW214201   5.569   0.763  12.588
70788SOL     OW14202   8.420   1.635   2.190
70788SOL    HW114203   8.410   1.574   2.117
70788SOL    HW214204   8.462   1.712   2.151
70789SOL     OW14205   8.075   9.305   7.512
70789SOL    HW114206   8.033   9.372   7.565
70789SOL    HW214207   8.038   9.318   7.424
70790SOL     OW14208  13.927   9.030   5.363
70790SOL    HW114209  13.878   9.018   5.444
70790SOL    HW214210  14.011   8.987   5.379
70791SOL     OW14211   7.757   9.817  11.792
70791SOL    HW114212   7.672   9.818  11.748
70791SOL    HW214213   7.750   9.885  11.860
70792SOL     OW14214   8.742  11.615  14.837
70792SOL    HW114215   8.655  11.606  14.799
70792SOL    HW214216   8.800  11.568  14.777
70793SOL     OW14217  12.178  13.976  11.347
70793SOL    HW114218  12.209  14.066  11.342
70793SOL    HW214219  12.097  13.982  11.399
70794SOL     OW14220   0.643   4.155   7.309
70794SOL    HW114221   0.578   4.089   7.333
70794SOL    HW214222   0.691   4.116   7.236
70795SOL     OW14223   7.953   6.342  13.541
70795SOL    HW114224   7.978   6.250  13.547
70795SOL    HW214225   8.013   6.379  13.476
70796SOL     OW14226   1.079   0.347   8.828
70796SOL    HW114227   0.984   0.355   8.839
70796SOL    HW214228   1.099   0.257   8.854
70797SOL     OW14229   3.638  11.546   3.000
70797SOL    HW114230   3.653  11.555   3.094
70797SOL    HW214231   3.581  11.620   2.978
70798SOL     OW14232   8.827   3.107  14.137
70798SOL    HW114233   8.855   3.055  14.062
70798SOL    HW214234   8.880   3.187  14.132
70799SOL     OW14235   5.694  11.136   2.810
70799SOL    HW114236   5.674  11.065   2.871
70799SOL    HW214237   5.692  11.095   2.723
70800SOL     OW14238   8.225  10.441  12.573
70800SOL    HW114239   8.245  10.350  12.550
70800SOL    HW214240   8.130  10.448  12.558
70801SOL     OW14241   5.307  10.523   4.519
70801SOL    HW114242   5.264  10.451   4.567
70801SOL    HW214243   5.364  10.478   4.457
70802SOL     OW14244  10.312  13.354   3.528
70802SOL    HW114245  10.308  13.303   3.447
70802SOL    HW214246  10.228  13.337   3.571
70803SOL     OW14247   6.154   1.085   3.429
70803SOL    HW114248   6.180   1.062   3.518
70803SOL    HW214249   6.060   1.101   3.435
70804SOL     OW14250   2.446   2.067   4.812
70804SOL    HW114251   2.485   2.050   4.727
70804SOL    HW214252   2.394   1.988   4.830
70805SOL     OW14253   0.706   1.864  11.452
70805SOL    HW114254   0.754   1.945  11.468
70805SOL    HW214255   0.734   1.836  11.365
70806SOL     OW14256   7.359   4.818   7.963
70806SOL    HW114257   7.389   4.738   8.005
70806SOL    HW214258   7.373   4.886   8.028
70807SOL     OW14259   5.703  14.432   5.279
70807SOL    HW114260   5.614  14.459   5.301
70807SOL    HW214261   5.706  14.433   5.184
70808SOL     OW14262   4.099   5.431  11.234
70808SOL    HW114263   4.067   5.344  11.213
70808SOL    HW214264   4.022   5.487  11.230
70809SOL     OW14265   0.040  10.266  12.825
70809SOL    HW114266   0.007  10.337  12.769
70809SOL    HW214267  14.871  10.189  12.798
70810SOL     OW14268   2.644  10.652   4.664
70810SOL    HW114269   2.556  10.657   4.626
70810SOL    HW214270   2.643  10.717   4.734
70811SOL     OW14271   4.328  12.525   1.028
70811SOL    HW114272   4.345  12.431   1.041
70811SOL    HW214273   4.365  12.567   1.105
70812SOL     OW14274  14.153  10.098   9.649
70812SOL    HW114275  14.096  10.023   9.630
70812SOL    HW214276  14.231  10.084   9.596
70813SOL     OW14277   9.231   8.889   1.075
70813SOL    HW114278   9.150   8.921   1.114
70813SOL    HW214279   9.254   8.812   1.126
70814SOL     OW14280   9.655  12.397  12.562
70814SOL    HW114281   9.645  12.349  12.645
70814SOL    HW214282   9.610  12.343  12.497
70815SOL     OW14283  14.302   3.385   5.850
70815SOL    HW114284  14.280   3.322   5.781
70815SOL    HW214285  14.397   3.379   5.859
70816SOL     OW14286  12.653   9.579   8.556
70816SOL    HW114287  12.594   9.503   8.561
70816SOL    HW214288  12.595   9.655   8.562
70817SOL     OW14289  11.465   1.799  10.449
70817SOL    HW114290  11.445   1.885  10.485
70817SOL    HW214291  11.554   1.781  10.478
70818SOL     OW14292   1.825   0.500   9.860
70818SOL    HW114293   1.893   0.567   9.874
70818SOL    HW214294   1.852   0.427   9.916
70819SOL     OW14295  12.679   4.714  12.310
70819SOL    HW114296  12.719   4.793  12.347
70819SOL    HW214297  12.644   4.742  12.225
70820SOL     OW14298  12.438  10.483   8.197
70820SOL    HW114299  12.485  10.431   8.132
70820SOL    HW214300  12.435  10.571   8.159
70821SOL     OW14301  12.877   7.024   1.690
70821SOL    HW114302  12.856   7.117   1.683
70821SOL    HW214303  12.829   6.982   1.618
70822SOL     OW14304   3.956   1.937   1.175
70822SOL    HW114305   3.926   2.007   1.233
70822SOL    HW214306   3.876   1.908   1.130
70823SOL     OW14307   3.140   2.689   1.458
70823SOL    HW114308   3.202   2.619   1.439
70823SOL    HW214309   3.068   2.674   1.397
70824SOL     OW14310  11.036   0.319   4.225
70824SOL    HW114311  10.985   0.360   4.294
70824SOL    HW214312  11.122   0.361   4.230
70825SOL     OW14313   6.828   7.316   7.561
70825SOL    HW114314   6.743   7.358   7.568
70825SOL    HW214315   6.888   7.386   7.534
70826SOL     OW14316  11.503   8.277   1.183
70826SOL    HW114317  11.475   8.325   1.261
70826SOL    HW214318  11.433   8.292   1.120
70827SOL     OW14319   9.187   4.096   7.230
70827SOL    HW114320   9.210   4.178   7.272
70827SOL    HW214321   9.259   4.078   7.169
70828SOL     OW14322  10.020   8.045   4.704
70828SOL    HW114323   9.990   8.020   4.792
70828SOL    HW214324   9.950   8.100   4.670
70829SOL     OW14325  11.558   2.176   0.291
70829SOL    HW114326  11.601   2.212   0.368
70829SOL    HW214327  11.465   2.194   0.305
70830SOL     OW14328   8.953   4.866   2.162
70830SOL    HW114329   8.858   4.877   2.165
70830SOL    HW214330   8.987   4.954   2.149
70831SOL     OW14331   0.929  11.816  13.539
70831SOL    HW114332   0.880  11.738  13.514
70831SOL    HW214333   1.020  11.789  13.539
70832SOL     OW14334  14.378  12.022   2.115
70832SOL    HW114335  14.376  11.979   2.029
70832SOL    HW214336  14.329  12.104   2.101
70833SOL     OW14337   1.413   8.830  14.098
70833SOL    HW114338   1.349   8.846  14.029
70833SOL    HW214339   1.497   8.855  14.061
70834SOL     OW14340   1.329  12.923  12.801
70834SOL    HW114341   1.389  12.976  12.749
70834SOL    HW214342   1.254  12.910  12.744
70835SOL     OW14343   9.608   0.873   8.370
70835SOL    HW114344   9.551   0.921   8.429
70835SOL    HW214345   9.549   0.834   8.306
70836SOL     OW14346   3.806   4.480  14.151
70836SOL    HW114347   3.733   4.540  14.138
70836SOL    HW214348   3.884   4.536  14.147
70837SOL     OW14349   6.440  11.270   0.326
70837SOL    HW114350   6.535  11.256   0.324
70837SOL    HW214351   6.423  11.308   0.413
70838SOL     OW14352   4.052   0.646   4.458
70838SOL    HW114353   3.985   0.593   4.502
70838SOL    HW214354   4.069   0.719   4.517
70839SOL     OW14355  14.317   4.521   6.053
70839SOL    HW114356  14.235   4.530   6.004
70839SOL    HW214357  14.385   4.535   5.988
70840SOL     OW14358  13.054  10.670   4.637
70840SOL    HW114359  13.015  10.747   4.680
70840SOL    HW214360  13.037  10.683   4.544
70841SOL     OW14361   1.650  13.571   6.554
70841SOL    HW114362   1.586  13.608   6.493
70841SOL    HW214363   1.649  13.477   6.535
70842SOL     OW14364  14.171  13.846  13.059
70842SOL    HW114365  14.102  13.780  13.054
70842SOL    HW214366  14.176  13.883  12.971
70843SOL     OW14367   7.784  11.675   9.376
70843SOL    HW114368   7.725  11.741   9.412
70843SOL    HW214369   7.776  11.685   9.281
70844SOL     OW14370   1.659   6.642   5.355
70844SOL    HW114371   1.697   6.573   5.410
70844SOL    HW214372   1.681   6.615   5.266
70845SOL     OW14373   1.145  14.740   9.301
70845SOL    HW114374   1.110  14.686   9.372
70845SOL    HW214375   1.156  14.827   9.340
70846SOL     OW14376  11.489   2.749   6.266
70846SOL    HW114377  11.414   2.774   6.212
70846SOL    HW214378  11.462   2.669   6.310
70847SOL     OW14379  13.333  12.623  11.786
70847SOL    HW114380  13.428  12.624  11.790
70847SOL    HW214381  13.309  12.710  11.754
70848SOL     OW14382  14.399   8.406   0.264
70848SOL    HW114383  14.396   8.501   0.272
70848SOL    HW214384  14.398   8.390   0.169
70849SOL     OW14385   1.795   7.642   6.020
70849SOL    HW114386   1.807   7.550   6.045
70849SOL    HW214387   1.827   7.647   5.930
70850SOL     OW14388   6.217  13.249   4.280
70850SOL    HW114389   6.238  13.168   4.233
70850SOL    HW214390   6.185  13.308   4.212
70851SOL     OW14391  11.798  11.611   5.181
70851SOL    HW114392  11.812  11.685   5.241
70851SOL    HW214393  11.832  11.535   5.228
70852SOL     OW14394  10.515  11.943  11.141
70852SOL    HW114395  10.556  11.861  11.167
70852SOL    HW214396  10.556  12.009  11.199
70853SOL     OW14397  11.615  14.145  11.186
70853SOL    HW114398  11.644  14.126  11.097
70853SOL    HW214399  11.627  14.062  11.234
70854SOL     OW14400  12.757  13.195   0.563
70854SOL    HW114401  12.781  13.103   0.567
70854SOL    HW214402  12.839  13.243   0.571
70855SOL     OW14403   1.920  14.137  13.179
70855SOL    HW114404   2.005  14.106  13.147
70855SOL    HW214405   1.857  14.075  13.144
70856SOL     OW14406   9.212   5.463  10.243
70856SOL    HW114407   9.240   5.415  10.320
70856SOL    HW214408   9.223   5.555  10.266
70857SOL     OW14409   1.618   2.967   2.777
70857SOL    HW114410   1.687   3.000   2.718
70857SOL    HW214411   1.603   2.877   2.748
70858SOL     OW14412   4.042  13.600  14.085
70858SOL    HW114413   4.077  13.651  14.158
70858SOL    HW214414   3.961  13.562  14.119
70859SOL     OW14415   3.266  10.447  13.532
70859SOL    HW114416   3.190  10.444  13.590
70859SOL    HW214417   3.316  10.368  13.554
70860SOL     OW14418  10.518   6.940  11.671
70860SOL    HW114419  10.475   6.986  11.742
70860SOL    HW214420  10.452   6.935  11.602
70861SOL     OW14421  14.329   1.328   3.305
70861SOL    HW114422  14.258   1.366   3.358
70861SOL    HW214423  14.402   1.389   3.318
70862SOL     OW14424  13.612   8.032   9.486
70862SOL    HW114425  13.632   7.992   9.401
70862SOL    HW214426  13.611   8.126   9.467
70863SOL     OW14427  10.292   2.264   0.648
70863SOL    HW114428  10.339   2.239   0.569
70863SOL    HW214429  10.359   2.262   0.717
70864SOL     OW14430  12.091   0.868   3.440
70864SOL    HW114431  12.034   0.917   3.499
70864SOL    HW214432  12.179   0.895   3.465
70865SOL     OW14433   0.437   3.853  13.655
70865SOL    HW114434   0.472   3.859  13.566
70865SOL    HW214435   0.466   3.768  13.687
70866SOL     OW14436   8.599   8.971   2.755
70866SOL    HW114437   8.678   8.970   2.809
70866SOL    HW214438   8.562   9.059   2.768
70867SOL     OW14439   3.259   5.429   6.689
70867SOL    HW114440   3.209   5.367   6.636
70867SOL    HW214441   3.321   5.468   6.628
70868SOL     OW14442   8.954  13.432   2.654
70868SOL    HW114443   8.951  13.441   2.559
70868SOL    HW214444   8.890  13.362   2.674
70869SOL     OW14445   4.131  13.511   4.516
70869SOL    HW114446   4.123  13.531   4.609
70869SOL    HW214447   4.044  13.481   4.490
70870SOL     OW14448   3.520   8.725   5.242
70870SOL    HW114449   3.607   8.691   5.264
70870SOL    HW214450   3.523   8.736   5.147
70871SOL     OW14451  14.742  11.889   1.613
70871SOL    HW114452  14.794  11.853   1.685
70871SOL    HW214453  14.766  11.835   1.537
70872SOL     OW14454   7.709   9.400   7.487
70872SOL    HW114455   7.794   9.419   7.448
70872SOL    HW214456   7.662   9.351   7.420
70873SOL     OW14457  12.596   4.510  14.434
70873SOL    HW114458  12.619   4.453  14.361
70873SOL    HW214459  12.574   4.449  14.506
70874SOL     OW14460  14.688  12.198   6.974
70874SOL    HW114461  14.716  12.282   6.937
70874SOL    HW214462  14.768  12.148   6.982
70875SOL     OW14463   6.357  14.411   4.100
70875SOL    HW114464   6.440  14.442   4.065
70875SOL    HW214465   6.382  14.342   4.162
70876SOL     OW14466  12.134  12.510   5.035
70876SOL    HW114467  12.125  12.530   4.942
70876SOL    HW214468  12.053  12.544   5.074
70877SOL     OW14469   2.586   5.650  13.107
70877SOL    HW114470   2.543   5.569  13.133
70877SOL    HW214471   2.680   5.628  13.105
70878SOL     OW14472   7.734   9.360   0.383
70878SOL    HW114473   7.800   9.308   0.336
70878SOL    HW214474   7.752   9.450   0.358
70879SOL     OW14475   1.236   2.641   9.053
70879SOL    HW114476   1.271   2.683   8.975
70879SOL    HW214477   1.186   2.566   9.020
70880SOL     OW14478  10.148   6.900   9.356
70880SOL    HW114479  10.206   6.837   9.399
70880SOL    HW214480  10.184   6.910   9.268
70881SOL     OW14481   7.593   5.289   8.792
70881SOL    HW114482   7.679   5.323   8.816
70881SOL    HW214483   7.601   5.266   8.700
70882SOL     OW14484  12.765  14.684   9.439
70882SOL    HW114485  12.724  14.600   9.459
70882SOL    HW214486  12.781  14.682   9.345
70883SOL     OW14487   0.954   3.797   1.808
70883SOL    HW114488   1.034   3.784   1.759
70883SOL    HW214489   0.982   3.801   1.900
70884SOL     OW14490  11.648   3.491   3.098
70884SOL    HW114491  11.626   3.475   3.190
70884SOL    HW214492  11.735   3.531   3.101
70885SOL     OW14493   1.210   7.839  14.751
70885SOL    HW114494   1.252   7.831  14.665
70885SOL    HW214495   1.253   7.914  14.792
70886SOL     OW14496  14.025  12.697   5.145
70886SOL    HW114497  13.988  12.704   5.058
70886SOL    HW214498  13.993  12.774   5.192
70887SOL     OW14499  14.590   7.383  13.173
70887SOL    HW114500  14.663   7.383  13.111
70887SOL    HW214501  14.627   7.419  13.254
70888SOL     OW14502  13.899   2.561  10.657
70888SOL    HW114503  13.918   2.597  10.571
70888SOL    HW214504  13.974   2.587  10.711
70889SOL     OW14505  12.647  10.904   8.427
70889SOL    HW114506  12.682  10.988   8.455
70889SOL    HW214507  12.646  10.909   8.331
70890SOL     OW14508  10.309  13.818  12.326
70890SOL    HW114509  10.379  13.756  12.305
70890SOL    HW214510  10.344  13.904  12.302
70891SOL     OW14511   6.675   5.481   1.789
70891SOL    HW114512   6.726   5.527   1.855
70891SOL    HW214513   6.596   5.535   1.778
70892SOL     OW14514  13.930  13.299  11.764
70892SOL    HW114515  14.025  13.297  11.775
70892SOL    HW214516  13.917  13.300  11.669
70893SOL     OW14517   3.968   2.884  13.557
70893SOL    HW114518   3.977   2.966  13.607
70893SOL    HW214519   3.984   2.815  13.621
70894SOL     OW14520  11.447  10.060   3.244
70894SOL    HW114521  11.472  10.020   3.161
70894SOL    HW214522  11.417   9.987   3.298
70895SOL     OW14523   8.526  10.638   1.520
70895SOL    HW114524   8.618  10.660   1.535
70895SOL    HW214525   8.491  10.713   1.471
70896SOL     OW14526   9.764   2.447   3.050
70896SOL    HW114527   9.676   2.429   3.017
70896SOL    HW214528   9.758   2.432   3.144
70897SOL     OW14529   0.799   4.467   7.402
70897SOL    HW114530   0.843   4.391   7.441
70897SOL    HW214531   0.710   4.464   7.436
70898SOL     OW14532   3.584   3.185   5.867
70898SOL    HW114533   3.597   3.118   5.800
70898SOL    HW214534   3.564   3.135   5.946
70899SOL     OW14535   6.892   1.174   8.339
70899SOL    HW114536   6.818   1.232   8.321
70899SOL    HW214537   6.877   1.143   8.428
70900SOL     OW14538  12.736  10.244   4.849
70900SOL    HW114539  12.677  10.253   4.774
70900SOL    HW214540  12.809  10.302   4.828
70901SOL     OW14541  13.382   0.101   4.052
70901SOL    HW114542  13.412   0.064   3.969
70901SOL    HW214543  13.391   0.029   4.114
70902SOL     OW14544   7.096   5.455   5.516
70902SOL    HW114545   7.119   5.536   5.470
70902SOL    HW214546   7.180   5.418   5.544
70903SOL     OW14547   3.120   3.764   4.528
70903SOL    HW114548   3.063   3.687   4.534
70903SOL    HW214549   3.063   3.838   4.546
70904SOL     OW14550   0.021   1.137   6.408
70904SOL    HW114551  14.842   1.140   6.484
70904SOL    HW214552  14.842   1.115   6.335
70905SOL     OW14553   6.114   3.220  10.173
70905SOL    HW114554   6.094   3.181  10.088
70905SOL    HW214555   6.198   3.180  10.199
70906SOL     OW14556   3.216  13.816   5.428
70906SOL    HW114557   3.135  13.802   5.476
70906SOL    HW214558   3.282  13.767   5.477
70907SOL     OW14559  10.501   9.016   9.252
70907SOL    HW114560  10.485   9.057   9.167
70907SOL    HW214561  10.572   8.954   9.236
70908SOL     OW14562  11.899   8.268  10.435
70908SOL    HW114563  11.853   8.265  10.519
70908SOL    HW214564  11.893   8.360  10.407
70909SOL     OW14565   6.912   8.886   4.543
70909SOL    HW114566   6.949   8.941   4.474
70909SOL    HW214567   6.895   8.802   4.500
70910SOL     OW14568  10.105  12.848   4.994
70910SOL    HW114569  10.078  12.757   4.984
70910SOL    HW214570  10.039  12.887   5.051
70911SOL     OW14571   8.304  12.012   2.988
70911SOL    HW114572   8.318  11.937   3.046
70911SOL    HW214573   8.213  12.038   3.003
70912SOL     OW14574  10.421  13.757   9.558
70912SOL    HW114575  10.411  13.850   9.538
70912SOL    HW214576  10.363  13.712   9.496
70913SOL     OW14577   6.629  12.873   1.841
70913SOL    HW114578   6.578  12.800   1.876
70913SOL    HW214579   6.712  12.834   1.813
70914SOL     OW14580   2.477   8.201  10.793
70914SOL    HW114581   2.542   8.265  10.765
70914SOL    HW214582   2.529   8.123  10.816
70915SOL     OW14583   4.966   2.787  10.194
70915SOL    HW114584   5.007   2.769  10.279
70915SOL    HW214585   4.884   2.829  10.216
70916SOL     OW14586  13.526  11.394   4.949
70916SOL    HW114587  13.525  11.298   4.944
70916SOL    HW214588  13.597  11.420   4.890
70917SOL     OW14589   4.624   1.151   2.288
70917SOL    HW114590   4.567   1.076   2.270
70917SOL    HW214591   4.565   1.224   2.306
70918SOL     OW14592  12.988   7.416  14.263
70918SOL    HW114593  12.918   7.420  14.327
70918SOL    HW214594  13.059   7.369  14.307
70919SOL     OW14595  10.709   3.736   7.225
70919SOL    HW114596  10.777   3.791   7.265
70919SOL    HW214597  10.686   3.783   7.144
70920SOL     OW14598   9.181   6.419  12.514
70920SOL    HW114599   9.184   6.514  12.510
70920SOL    HW214600   9.087   6.398  12.514
70921SOL     OW14601  14.461  13.592   8.713
70921SOL    HW114602  14.506  13.509   8.729
70921SOL    HW214603  14.501  13.626   8.633
70922SOL     OW14604   5.268  11.247   1.294
70922SOL    HW114605   5.205  11.175   1.285
70922SOL    HW214606   5.273  11.285   1.206
70923SOL     OW14607   3.601   1.323   3.147
70923SOL    HW114608   3.665   1.375   3.196
70923SOL    HW214609   3.518   1.367   3.164
70924SOL     OW14610   6.414  10.727   7.761
70924SOL    HW114611   6.483  10.665   7.738
70924SOL    HW214612   6.368  10.744   7.678
70925SOL     OW14613  12.952   6.649   4.885
70925SOL    HW114614  12.966   6.638   4.791
70925SOL    HW214615  12.859   6.630   4.898
70926SOL     OW14616   0.412  10.880  14.379
70926SOL    HW114617   0.497  10.923  14.389
70926SOL    HW214618   0.367  10.932  14.312
70927SOL     OW14619   5.240   1.578  14.404
70927SOL    HW114620   5.215   1.578  14.497
70927SOL    HW214621   5.196   1.655  14.368
70928SOL     OW14622   6.601  14.352   7.445
70928SOL    HW114623   6.505  14.355   7.440
70928SOL    HW214624   6.628  14.444   7.449
70929SOL     OW14625  13.137   6.018  11.328
70929SOL    HW114626  13.192   6.053  11.258
70929SOL    HW214627  13.056   5.993  11.283
70930SOL     OW14628   1.324  13.276   5.547
70930SOL    HW114629   1.320  13.290   5.453
70930SOL    HW214630   1.364  13.356   5.581
70931SOL     OW14631   2.751   3.009   4.733
70931SOL    HW114632   2.843   2.995   4.756
70931SOL    HW214633   2.704   2.937   4.777
70932SOL     OW14634  10.915  14.391   9.884
70932SOL    HW114635  11.010  14.390   9.895
70932SOL    HW214636  10.880  14.405   9.972
70933SOL     OW14637   7.083   7.361  10.971
70933SOL    HW114638   7.000   7.317  10.957
70933SOL    HW214639   7.117   7.378  10.883
70934SOL     OW14640   8.912   9.897   4.468
70934SOL    HW114641   8.940   9.814   4.429
70934SOL    HW214642   8.823   9.909   4.435
70935SOL     OW14643   4.838   7.255   7.535
70935SOL    HW114644   4.789   7.310   7.596
70935SOL    HW214645   4.897   7.316   7.490
70936SOL     OW14646  13.846   0.368   2.870
70936SOL    HW114647  13.893   0.357   2.952
70936SOL    HW214648  13.884   0.447   2.831
70937SOL     OW14649  10.420  11.820   4.486
70937SOL    HW114650  10.426  11.733   4.525
70937SOL    HW214651  10.425  11.805   4.391
70938SOL     OW14652  11.989   4.969   6.985
70938SOL    HW114653  11.953   5.033   6.924
70938SOL    HW214654  11.951   4.885   6.957
70939SOL     OW14655  13.983  12.524   7.289
70939SOL    HW114656  13.989  12.528   7.194
70939SOL    HW214657  13.970  12.615   7.316
70940SOL     OW14658   0.270   2.158   0.362
70940SOL    HW114659   0.316   2.194   0.438
70940SOL    HW214660   0.237   2.073   0.392
70941SOL     OW14661   7.421   8.841  12.587
70941SOL    HW114662   7.333   8.806  12.597
70941SOL    HW214663   7.410   8.923  12.539
70942SOL     OW14664   9.476   8.515   1.380
70942SOL    HW114665   9.507   8.424   1.374
70942SOL    HW214666   9.543   8.566   1.334
70943SOL     OW14667  13.649   4.723   7.817
70943SOL    HW114668  13.595   4.650   7.847
70943SOL    HW214669  13.695   4.753   7.895
70944SOL     OW14670   9.553   0.785   2.662
70944SOL    HW114671   9.534   0.795   2.569
70944SOL    HW214672   9.612   0.857   2.682
70945SOL     OW14673   2.646  10.271   2.299
70945SOL    HW114674   2.613  10.253   2.211
70945SOL    HW214675   2.684  10.189   2.328
70946SOL     OW14676  12.079   5.375   6.548
70946SOL    HW114677  12.020   5.350   6.477
70946SOL    HW214678  12.166   5.359   6.512
70947SOL     OW14679   3.679  11.303   8.336
70947SOL    HW114680   3.597  11.336   8.371
70947SOL    HW214681   3.679  11.330   8.244
70948SOL     OW14682   8.325  11.371   7.158
70948SOL    HW114683   8.257  11.437   7.170
70948SOL    HW214684   8.315  11.342   7.067
70949SOL     OW14685   0.838  11.226  13.989
70949SOL    HW114686   0.794  11.216  14.073
70949SOL    HW214687   0.896  11.302  14.001
70950SOL     OW14688   4.462   4.684   3.883
70950SOL    HW114689   4.459   4.749   3.953
70950SOL    HW214690   4.533   4.625   3.908
70951SOL     OW14691  13.411   5.263  14.767
70951SOL    HW114692  13.408   5.167  14.769
70951SOL    HW214693  13.365   5.286  14.686
70952SOL     OW14694   4.794  11.165   4.718
70952SOL    HW114695   4.797  11.075   4.753
70952SOL    HW214696   4.878  11.203   4.746
70953SOL     OW14697   6.527   5.465   5.239
70953SOL    HW114698   6.448   5.511   5.265
70953SOL    HW214699   6.560   5.514   5.163
70954SOL     OW14700  11.374   1.271   1.959
70954SOL    HW114701  11.320   1.192   1.957
70954SOL    HW214702  11.313   1.342   1.944
70955SOL     OW14703  14.102   4.826   6.839
70955SOL    HW114704  14.099   4.910   6.793
70955SOL    HW214705  14.164   4.773   6.788
70956SOL     OW14706   5.260   1.753   7.043
70956SOL    HW114707   5.199   1.726   6.974
70956SOL    HW214708   5.216   1.729   7.124
70957SOL     OW14709  12.269   5.355   6.195
70957SOL    HW114710  12.226   5.276   6.228
70957SOL    HW214711  12.336   5.323   6.135
70958SOL     OW14712  13.898   7.796   3.271
70958SOL    HW114713  13.970   7.776   3.331
70958SOL    HW214714  13.934   7.860   3.210
70959SOL     OW14715   0.330   1.726  12.575
70959SOL    HW114716   0.291   1.784  12.640
70959SOL    HW214717   0.386   1.667  12.626
70960SOL     OW14718   4.868   9.360   6.390
70960SOL    HW114719   4.802   9.293   6.372
70960SOL    HW214720   4.820   9.431   6.432
70961SOL     OW14721   8.915   5.318  14.368
70961SOL    HW114722   8.858   5.302  14.444
70961SOL    HW214723   8.988   5.368  14.403
70962SOL     OW14724  13.674   7.977   0.824
70962SOL    HW114725  13.581   7.955   0.831
70962SOL    HW214726  13.720   7.894   0.836
70963SOL     OW14727   6.307   3.296   8.548
70963SOL    HW114728   6.230   3.338   8.510
70963SOL    HW214729   6.380   3.326   8.493
70964SOL     OW14730  12.187  13.644   1.415
70964SOL    HW114731  12.222  13.722   1.372
70964SOL    HW214732  12.243  13.631   1.491
70965SOL     OW14733   5.220  10.379   2.782
70965SOL    HW114734   5.243  10.305   2.726
70965SOL    HW214735   5.137  10.353   2.824
70966SOL     OW14736   9.735   0.664   3.503
70966SOL    HW114737   9.671   0.607   3.546
70966SOL    HW214738   9.726   0.644   3.410
70967SOL     OW14739   7.731  12.523   2.601
70967SOL    HW114740   7.641  12.555   2.605
70967SOL    HW214741   7.776  12.568   2.672
70968SOL     OW14742   9.231   3.540  10.970
70968SOL    HW114743   9.199   3.451  10.956
70968SOL    HW214744   9.165   3.581  11.026
70969SOL     OW14745  11.192   9.661   6.938
70969SOL    HW114746  11.156   9.575   6.961
70969SOL    HW214747  11.269   9.671   6.994
70970SOL     OW14748   6.082   8.479   5.578
70970SOL    HW114749   6.147   8.519   5.636
70970SOL    HW214750   6.105   8.510   5.491
70971SOL     OW14751   7.037   5.875   8.021
70971SOL    HW114752   6.945   5.850   8.037
70971SOL    HW214753   7.065   5.817   7.950
70972SOL     OW14754   5.752   9.188   8.698
70972SOL    HW114755   5.817   9.200   8.629
70972SOL    HW214756   5.689   9.126   8.661
70973SOL     OW14757  11.802  14.489   6.612
70973SOL    HW114758  11.805  14.460   6.521
70973SOL    HW214759  11.878  14.447   6.653
70974SOL     OW14760   0.156   0.985   3.422
70974SOL    HW114761   0.246   0.993   3.390
70974SOL    HW214762   0.115   0.923   3.362
70975SOL     OW14763  11.967   1.275   9.429
70975SOL    HW114764  12.049   1.322   9.444
70975SOL    HW214765  11.918   1.285   9.511
70976SOL     OW14766  13.457   9.523   0.532
70976SOL    HW114767  13.400   9.575   0.475
70976SOL    HW214768  13.412   9.439   0.540
70977SOL     OW14769  13.821   5.268   2.611
70977SOL    HW114770  13.745   5.258   2.554
70977SOL    HW214771  13.798   5.221   2.691
70978SOL     OW14772   0.864   3.432  10.869
70978SOL    HW114773   0.775   3.402  10.883
70978SOL    HW214774   0.913   3.398  10.943
70979SOL     OW14775   9.708  12.489   3.158
70979SOL    HW114776   9.632  12.499   3.100
70979SOL    HW214777   9.759  12.568   3.143
70980SOL     OW14778  12.591  13.956   6.567
70980SOL    HW114779  12.647  13.938   6.642
70980SOL    HW214780  12.502  13.945   6.600
70981SOL     OW14781   6.003   5.140   3.733
70981SOL    HW114782   5.966   5.085   3.663
70981SOL    HW214783   6.030   5.220   3.689
70982SOL     OW14784   1.100   5.909  12.879
70982SOL    HW114785   1.066   5.915  12.968
70982SOL    HW214786   1.051   5.836  12.840
70983SOL     OW14787   0.103   9.681   8.343
70983SOL    HW114788   0.191   9.719   8.345
70983SOL    HW214789   0.112   9.601   8.290
70984SOL     OW14790   6.656   1.915  13.214
70984SOL    HW114791   6.638   1.964  13.294
70984SOL    HW214792   6.624   1.827  13.233
70985SOL     OW14793   5.875   7.167  11.422
70985SOL    HW114794   5.789   7.150  11.384
70985SOL    HW214795   5.905   7.246  11.378
70986SOL     OW14796   3.099   1.597   8.145
70986SOL    HW114797   3.003   1.595   8.139
70986SOL    HW214798   3.116   1.641   8.228
70987SOL     OW14799   4.021   5.116  13.436
70987SOL    HW114800   3.947   5.153  13.484
70987SOL    HW214801   4.065   5.193  13.398
70988SOL     OW14802  13.751   6.846   0.293
70988SOL    HW114803  13.720   6.786   0.225
70988SOL    HW214804  13.812   6.904   0.248
70989SOL     OW14805   0.670  11.824   8.365
70989SOL    HW114806   0.643  11.892   8.303
70989SOL    HW214807   0.597  11.762   8.365
70990SOL     OW14808  13.372   9.692   0.312
70990SOL    HW114809  13.288   9.729   0.288
70990SOL    HW214810  13.372   9.605   0.271
70991SOL     OW14811  11.288  10.769  13.336
70991SOL    HW114812  11.339  10.832  13.285
70991SOL    HW214813  11.249  10.711  13.271
70992SOL     OW14814   0.554   9.880  12.499
70992SOL    HW114815   0.513   9.800  12.469
70992SOL    HW214816   0.637   9.885  12.451
70993SOL     OW14817   3.989   8.067   7.289
70993SOL    HW114818   3.989   7.981   7.329
70993SOL    HW214819   3.945   8.124   7.352
70994SOL     OW14820  12.667  14.150   3.829
70994SOL    HW114821  12.670  14.245   3.823
70994SOL    HW214822  12.759  14.123   3.825
70995SOL     OW14823   4.715   3.162   5.910
70995SOL    HW114824   4.756   3.216   5.843
70995SOL    HW214825   4.688   3.225   5.977
70996SOL     OW14826   7.584  11.019  11.000
70996SOL    HW114827   7.622  10.981  11.079
70996SOL    HW214828   7.625  10.970  10.928
70997SOL     OW14829   7.843   6.057   7.314
70997SOL    HW114830   7.788   6.128   7.280
70997SOL    HW214831   7.781   5.992   7.347
70998SOL     OW14832  13.798   8.053  10.262
70998SOL    HW114833  13.875   8.098  10.228
70998SOL    HW214834  13.743   8.123  10.298
70999SOL     OW14835   2.544   2.705   2.708
70999SOL    HW114836   2.510   2.617   2.727
70999SOL    HW214837   2.476   2.764   2.740
71000SOL     OW14838   7.482   1.473   1.121
71000SOL    HW114839   7.405   1.508   1.167
71000SOL    HW214840   7.548   1.541   1.130
71001SOL     OW14841  12.626   1.125   1.424
71001SOL    HW114842  12.677   1.173   1.490
71001SOL    HW214843  12.543   1.173   1.419
71002SOL     OW14844   4.570   6.176   0.881
71002SOL    HW114845   4.551   6.099   0.934
71002SOL    HW214846   4.600   6.241   0.944
71003SOL     OW14847   3.710   3.758   1.016
71003SOL    HW114848   3.642   3.795   0.959
71003SOL    HW214849   3.792   3.788   0.978
71004SOL     OW14850   4.698  14.752   9.113
71004SOL    HW114851   4.627  14.809   9.082
71004SOL    HW214852   4.679  14.739   9.206
71005SOL     OW14853  11.673   3.921   6.305
71005SOL    HW114854  11.678   3.833   6.268
71005SOL    HW214855  11.579   3.935   6.321
71006SOL     OW14856   5.154   5.164   1.185
71006SOL    HW114857   5.195   5.078   1.186
71006SOL    HW214858   5.065   5.149   1.215
71007SOL     OW14859   5.528  13.809   7.328
71007SOL    HW114860   5.528  13.900   7.357
71007SOL    HW214861   5.463  13.807   7.257
71008SOL     OW14862   9.028   9.540  11.999
71008SOL    HW114863   9.107   9.588  12.021
71008SOL    HW214864   8.962   9.607  11.982
71009SOL     OW14865   9.528   6.877   8.388
71009SOL    HW114866   9.599   6.873   8.452
71009SOL    HW214867   9.472   6.948   8.419
71010SOL     OW14868   3.768   9.136   6.963
71010SOL    HW114869   3.814   9.053   6.951
71010SOL    HW214870   3.677   9.117   6.942
71011SOL     OW14871   3.807   1.261  12.887
71011SOL    HW114872   3.895   1.227  12.900
71011SOL    HW214873   3.815   1.323  12.815
71012SOL     OW14874  12.060  12.543   1.166
71012SOL    HW114875  12.119  12.618   1.167
71012SOL    HW214876  12.009  12.553   1.085
71013SOL     OW14877   4.101  10.461   1.851
71013SOL    HW114878   4.139  10.478   1.765
71013SOL    HW214879   4.052  10.540   1.872
71014SOL     OW14880  11.616  14.001   1.021
71014SOL    HW114881  11.570  13.921   0.995
71014SOL    HW214882  11.550  14.070   1.012
71015SOL     OW14883   5.222   0.694   5.745
71015SOL    HW114884   5.132   0.690   5.779
71015SOL    HW214885   5.232   0.784   5.714
71016SOL     OW14886   9.170   3.873   3.572
71016SOL    HW114887   9.134   3.933   3.637
71016SOL    HW214888   9.265   3.873   3.589
71017SOL     OW14889   8.008  11.483  14.446
71017SOL    HW114890   8.059  11.558  14.417
71017SOL    HW214891   7.989  11.434  14.367
71018SOL     OW14892   1.788  12.064   7.454
71018SOL    HW114893   1.743  12.046   7.371
71018SOL    HW214894   1.843  12.139   7.436
71019SOL     OW14895   3.942  11.166  10.939
71019SOL    HW114896   4.021  11.194  10.893
71019SOL    HW214897   3.974  11.114  11.013
71020SOL     OW14898   7.533  11.660   2.484
71020SOL    HW114899   7.506  11.727   2.422
71020SOL    HW214900   7.575  11.593   2.430
71021SOL     OW14901  10.590   7.062   4.199
71021SOL    HW114902  10.647   7.138   4.211
71021SOL    HW214903  10.508   7.085   4.241
71022SOL     OW14904   0.741   5.218   8.198
71022SOL    HW114905   0.803   5.264   8.254
71022SOL    HW214906   0.670   5.193   8.257
71023SOL     OW14907   2.704   7.645  14.390
71023SOL    HW114908   2.668   7.644  14.302
71023SOL    HW214909   2.757   7.725  14.393
71024SOL     OW14910   6.016   1.103  12.771
71024SOL    HW114911   6.026   1.013  12.739
71024SOL    HW214912   5.965   1.095  12.851
71025SOL     OW14913  12.987   1.102  11.823
71025SOL    HW114914  12.966   1.011  11.841
71025SOL    HW214915  12.903   1.148  11.829
71026SOL     OW14916   0.048   9.639   1.828
71026SOL    HW114917   0.055   9.614   1.920
71026SOL    HW214918  14.834   9.627   1.807
71027SOL     OW14919   1.091   5.444  10.191
71027SOL    HW114920   1.126   5.531  10.210
71027SOL    HW214921   1.167   5.391  10.171
71028SOL     OW14922  10.663   4.657   4.338
71028SOL    HW114923  10.682   4.645   4.245
71028SOL    HW214924  10.749   4.664   4.380
71029SOL     OW14925   5.884   1.607  10.969
71029SOL    HW114926   5.957   1.669  10.973
71029SOL    HW214927   5.880   1.581  10.877
71030SOL     OW14928   3.620   3.806   4.595
71030SOL    HW114929   3.623   3.832   4.687
71030SOL    HW214930   3.704   3.762   4.581
71031SOL     OW14931   1.926   7.971   5.738
71031SOL    HW114932   1.910   7.936   5.825
71031SOL    HW214933   2.008   7.929   5.710
71032SOL     OW14934   5.810   9.474   2.371
71032SOL    HW114935   5.717   9.452   2.363
71032SOL    HW214936   5.811   9.554   2.424
71033SOL     OW14937  13.292   1.286   4.249
71033SOL    HW114938  13.247   1.351   4.195
71033SOL    HW214939  13.371   1.331   4.279
71034SOL     OW14940   5.968  11.523   4.467
71034SOL    HW114941   5.916  11.510   4.388
71034SOL    HW214942   6.048  11.567   4.437
71035SOL     OW14943   3.829  12.204   6.196
71035SOL    HW114944   3.761  12.271   6.206
71035SOL    HW214945   3.782  12.128   6.162
71036SOL     OW14946   3.280   4.998   2.118
71036SOL    HW114947   3.262   4.971   2.028
71036SOL    HW214948   3.326   4.923   2.156
71037SOL     OW14949   4.775   5.373   8.630
71037SOL    HW114950   4.792   5.345   8.540
71037SOL    HW214951   4.861   5.390   8.667
71038SOL     OW14952  10.568   7.724   3.824
71038SOL    HW114953  10.584   7.691   3.736
71038SOL    HW214954  10.473   7.734   3.830
71039SOL     OW14955   8.139  10.439   9.161
71039SOL    HW114956   8.073  10.419   9.228
71039SOL    HW214957   8.131  10.367   9.098
71040SOL     OW14958   1.005   9.094  14.871
71040SOL    HW114959   1.007   9.007  14.831
71040SOL    HW214960   0.992   9.154  14.798
71041SOL     OW14961   9.780   0.520   5.464
71041SOL    HW114962   9.811   0.586   5.403
71041SOL    HW214963   9.728   0.460   5.411
71042SOL     OW14964   1.050   3.448   1.234
71042SOL    HW114965   1.129   3.395   1.222
71042SOL    HW214966   1.079   3.538   1.215
71043SOL     OW14967   6.946   8.022   7.609
71043SOL    HW114968   6.876   8.058   7.663
71043SOL    HW214969   6.948   7.929   7.631
71044SOL     OW14970  10.132  12.419   5.354
71044SOL    HW114971  10.152  12.386   5.442
71044SOL    HW214972  10.211  12.465   5.327
71045SOL     OW14973   3.359   6.602   6.679
71045SOL    HW114974   3.353   6.650   6.762
71045SOL    HW214975   3.291   6.641   6.624
71046SOL     OW14976   9.291  13.356   3.994
71046SOL    HW114977   9.197  13.359   3.977
71046SOL    HW214978   9.330  13.328   3.912
71047SOL     OW14979   9.038   9.718   6.231
71047SOL    HW114980   9.042   9.764   6.315
71047SOL    HW214981   8.988   9.777   6.174
71048SOL     OW14982  13.276   6.269  13.532
71048SOL    HW114983  13.299   6.331  13.463
71048SOL    HW214984  13.333   6.194  13.517
71049SOL     OW14985   7.986   8.451   9.010
71049SOL    HW114986   8.033   8.533   8.992
71049SOL    HW214987   7.992   8.401   8.928
71050SOL     OW14988  10.253   1.033   0.348
71050SOL    HW114989  10.170   0.989   0.330
71050SOL    HW214990  10.233   1.098   0.415
71051SOL     OW14991   2.630   3.741   6.149
71051SOL    HW114992   2.542   3.739   6.111
71051SOL    HW214993   2.683   3.688   6.089
71052SOL     OW14994  11.148  12.423   6.743
71052SOL    HW114995  11.204  12.487   6.786
71052SOL    HW214996  11.189  12.339   6.762
71053SOL     OW14997   9.634   4.201  13.696
71053SOL    HW114998   9.636   4.297  13.703
71053SOL    HW214999   9.708   4.171  13.747
71054SOL     OW15000   3.009  12.017   0.874
71054SOL    HW115001   3.039  11.937   0.917
71054SOL    HW215002   3.054  12.088   0.920
71055SOL     OW15003  14.567   4.390  10.876
71055SOL    HW115004  14.508   4.460  10.847
71055SOL    HW215005  14.515   4.311  10.873
71056SOL     OW15006   8.174  10.134   5.918
71056SOL    HW115007   8.105  10.102   5.861
71056SOL    HW215008   8.181  10.228   5.898
71057SOL     OW15009   6.649  13.756   0.018
71057SOL    HW115010   6.656  13.688   0.084
71057SOL    HW215011   6.697  13.722  14.822
71058SOL     OW15012   8.999   9.150   1.688
71058SOL    HW115013   8.929   9.145   1.753
71058SOL    HW215014   8.972   9.221   1.629
71059SOL     OW15015   8.805   8.511   8.896
71059SOL    HW115016   8.717   8.495   8.932
71059SOL    HW215017   8.790   8.566   8.819
71060SOL     OW15018  11.969  14.437   4.961
71060SOL    HW115019  11.891  14.492   4.967
71060SOL    HW215020  11.965  14.398   4.874
71061SOL     OW15021   3.378   8.428  13.992
71061SOL    HW115022   3.433   8.350  14.002
71061SOL    HW215023   3.388   8.453  13.901
71062SOL     OW15024   6.499  12.127   3.781
71062SOL    HW115025   6.593  12.141   3.780
71062SOL    HW215026   6.489  12.032   3.786
71063SOL     OW15027   7.086   3.678   8.275
71063SOL    HW115028   7.133   3.708   8.198
71063SOL    HW215029   7.027   3.609   8.242
71064SOL     OW15030   6.697   3.455  13.202
71064SOL    HW115031   6.731   3.386  13.146
71064SOL    HW215032   6.625   3.493  13.151
71065SOL     OW15033   2.244  10.133  12.944
71065SOL    HW115034   2.249  10.074  13.019
71065SOL    HW215035   2.309  10.200  12.962
71066SOL     OW15036  14.000   0.589  11.280
71066SOL    HW115037  13.907   0.568  11.272
71066SOL    HW215038  14.038   0.512  11.322
71067SOL     OW15039   2.876   1.489  13.884
71067SOL    HW115040   2.949   1.459  13.939
71067SOL    HW215041   2.912   1.494  13.796
71068SOL     OW15042  12.129   2.337  10.662
71068SOL    HW115043  12.122   2.277  10.588
71068SOL    HW215044  12.082   2.295  10.733
71069SOL     OW15045   6.046   5.193   8.510
71069SOL    HW115046   6.083   5.109   8.484
71069SOL    HW215047   6.006   5.177   8.595
71070SOL     OW15048  14.035  11.715   1.151
71070SOL    HW115049  13.986  11.784   1.106
71070SOL    HW215050  14.036  11.742   1.242
71071SOL     OW15051   9.873  10.871   6.112
71071SOL    HW115052   9.804  10.808   6.131
71071SOL    HW215053   9.954  10.820   6.114
71072SOL     OW15054   1.418   9.559  11.697
71072SOL    HW115055   1.325   9.536  11.688
71072SOL    HW215056   1.441   9.529  11.785
71073SOL     OW15057   5.304   3.460   1.531
71073SOL    HW115058   5.342   3.462   1.444
71073SOL    HW215059   5.374   3.491   1.589
71074SOL     OW15060   3.319  10.393   0.051
71074SOL    HW115061   3.393  10.363   0.104
71074SOL    HW215062   3.264  10.315   0.043
71075SOL     OW15063  13.907   3.461  11.575
71075SOL    HW115064  13.982   3.431  11.524
71075SOL    HW215065  13.830   3.434  11.525
71076SOL     OW15066  11.020   7.056  10.099
71076SOL    HW115067  11.037   6.963  10.083
71076SOL    HW215068  11.097   7.100  10.063
71077SOL     OW15069   9.316  11.102   6.108
71077SOL    HW115070   9.396  11.153   6.101
71077SOL    HW215071   9.265  11.145   6.176
71078SOL     OW15072   7.413  14.235   3.789
71078SOL    HW115073   7.434  14.309   3.845
71078SOL    HW215074   7.492  14.221   3.736
71079SOL     OW15075   6.956   2.902   8.067
71079SOL    HW115076   6.924   2.865   7.985
71079SOL    HW215077   7.018   2.970   8.040
71080SOL     OW15078   3.546  14.321  12.002
71080SOL    HW115079   3.591  14.376  12.067
71080SOL    HW215080   3.504  14.252  12.054
71081SOL     OW15081   6.597   3.753   7.909
71081SOL    HW115082   6.568   3.737   7.819
71081SOL    HW215083   6.604   3.666   7.948
71082SOL     OW15084   7.293   8.635  11.061
71082SOL    HW115085   7.203   8.658  11.085
71082SOL    HW215086   7.316   8.698  10.993
71083SOL     OW15087   3.824   4.793   9.055
71083SOL    HW115088   3.792   4.828   9.138
71083SOL    HW215089   3.857   4.706   9.076
71084SOL     OW15090  10.614   3.680   1.459
71084SOL    HW115091  10.568   3.753   1.416
71084SOL    HW215092  10.545   3.620   1.486
71085SOL     OW15093   3.990   1.990   8.608
71085SOL    HW115094   3.945   1.978   8.692
71085SOL    HW215095   4.081   2.010   8.632
71086SOL     OW15096   4.744   3.203   9.011
71086SOL    HW115097   4.766   3.275   9.071
71086SOL    HW215098   4.650   3.192   9.020
71087SOL     OW15099   5.975   0.837   6.673
71087SOL    HW115100   5.910   0.849   6.604
71087SOL    HW215101   6.058   0.828   6.627
71088SOL     OW15102   7.035  11.236  12.245
71088SOL    HW115103   7.094  11.182  12.298
71088SOL    HW215104   6.979  11.281  12.310
71089SOL     OW15105  13.776   5.534   1.174
71089SOL    HW115106  13.747   5.443   1.170
71089SOL    HW215107  13.698   5.585   1.151
71090SOL     OW15108   9.028  12.427  11.275
71090SOL    HW115109   8.970  12.354  11.256
71090SOL    HW215110   8.985  12.503  11.236
71091SOL     OW15111   7.577   5.129   5.649
71091SOL    HW115112   7.541   5.058   5.703
71091SOL    HW215113   7.640   5.173   5.707
71092SOL     OW15114   6.522  10.111  13.751
71092SOL    HW115115   6.509  10.075  13.839
71092SOL    HW215116   6.566  10.195  13.766
71093SOL     OW15117  10.195  12.747   2.677
71093SOL    HW115118  10.226  12.818   2.733
71093SOL    HW215119  10.107  12.774   2.651
71094SOL     OW15120   7.611   6.965  13.880
71094SOL    HW115121   7.548   6.949  13.950
71094SOL    HW215122   7.680   6.901  13.895
71095SOL     OW15123   2.431   3.969   3.977
71095SOL    HW115124   2.515   3.948   4.017
71095SOL    HW215125   2.453   4.029   3.905
71096SOL     OW15126   5.209   9.574   2.276
71096SOL    HW115127   5.248   9.543   2.194
71096SOL    HW215128   5.119   9.541   2.273
71097SOL     OW15129  12.711   4.871   8.021
71097SOL    HW115130  12.729   4.944   7.962
71097SOL    HW215131  12.687   4.798   7.963
71098SOL     OW15132   7.036   0.900  13.280
71098SOL    HW115133   6.993   0.968  13.331
71098SOL    HW215134   7.095   0.947  13.221
71099SOL     OW15135   8.413   6.796   4.375
71099SOL    HW115136   8.478   6.803   4.445
71099SOL    HW215137   8.432   6.869   4.316
71100SOL     OW15138   4.408   9.608  10.520
71100SOL    HW115139   4.460   9.530  10.539
71100SOL    HW215140   4.431   9.670  10.589
71101SOL     OW15141  14.039  12.989   4.589
71101SOL    HW115142  14.111  13.041   4.623
71101SOL    HW215143  13.975  13.053   4.558
71102SOL     OW15144   9.639   8.735   2.422
71102SOL    HW115145   9.710   8.711   2.364
71102SOL    HW215146   9.616   8.654   2.467
71103SOL     OW15147  12.586   5.422   7.695
71103SOL    HW115148  12.669   5.447   7.654
71103SOL    HW215149  12.612   5.364   7.767
71104SOL     OW15150  11.965   7.154   1.236
71104SOL    HW115151  12.005   7.070   1.213
71104SOL    HW215152  11.889   7.131   1.289
71105SOL     OW15153  13.099   5.463   7.789
71105SOL    HW115154  13.030   5.417   7.741
71105SOL    HW215155  13.159   5.494   7.721
71106SOL     OW15156   3.219  13.048   0.010
71106SOL    HW115157   3.287  13.080  14.830
71106SOL    HW215158   3.266  12.993   0.073
71107SOL     OW15159  12.634   4.101   9.712
71107SOL    HW115160  12.722   4.070   9.729
71107SOL    HW215161  12.577   4.043   9.763
71108SOL     OW15162  10.347   8.500  10.263
71108SOL    HW115163  10.279   8.449  10.308
71108SOL    HW215164  10.414   8.435  10.241
71109SOL     OW15165   3.826   4.660  11.471
71109SOL    HW115166   3.830   4.678  11.565
71109SOL    HW215167   3.741   4.620  11.457
71110SOL     OW15168   8.549   3.689   0.005
71110SOL    HW115169   8.590   3.763  14.839
71110SOL    HW215170   8.622   3.631   0.027
71111SOL     OW15171   5.484  12.446   4.399
71111SOL    HW115172   5.514  12.441   4.308
71111SOL    HW215173   5.392  12.421   4.396
71112SOL     OW15174   1.729   7.948   2.395
71112SOL    HW115175   1.772   7.970   2.477
71112SOL    HW215176   1.739   7.854   2.386
71113SOL     OW15177  13.943  11.260  13.973
71113SOL    HW115178  13.932  11.315  13.895
71113SOL    HW215179  13.991  11.315  14.034
71114SOL     OW15180   1.612  12.813   7.249
71114SOL    HW115181   1.533  12.804   7.302
71114SOL    HW215182   1.586  12.782   7.162
71115SOL     OW15183   9.780  12.915   0.706
71115SOL    HW115184   9.735  12.831   0.694
71115SOL    HW215185   9.858  12.908   0.650
71116SOL     OW15186   0.629  10.414   6.672
71116SOL    HW115187   0.685  10.480   6.631
71116SOL    HW215188   0.553  10.463   6.703
71117SOL     OW15189   2.984   1.257  13.381
71117SOL    HW115190   2.931   1.240  13.459
71117SOL    HW215191   3.056   1.312  13.412
71118SOL     OW15192   9.547  12.580   9.135
71118SOL    HW115193   9.460  12.539   9.137
71118SOL    HW215194   9.572  12.579   9.043
71119SOL     OW15195   0.769  13.179   1.524
71119SOL    HW115196   0.774  13.274   1.511
71119SOL    HW215197   0.822  13.142   1.454
71120SOL     OW15198   2.924  13.237  12.362
71120SOL    HW115199   3.014  13.256  12.337
71120SOL    HW215200   2.888  13.190  12.287
71121SOL     OW15201   9.384   1.018   7.435
71121SOL    HW115202   9.387   1.001   7.341
71121SOL    HW215203   9.463   0.975   7.469
71122SOL     OW15204   2.783   4.711   1.757
71122SOL    HW115205   2.761   4.685   1.668
71122SOL    HW215206   2.773   4.806   1.758
71123SOL     OW15207   4.117   5.185   6.771
71123SOL    HW115208   4.201   5.219   6.802
71123SOL    HW215209   4.101   5.108   6.826
71124SOL     OW15210   3.359   9.078   9.850
71124SOL    HW115211   3.386   8.991   9.878
71124SOL    HW215212   3.439   9.119   9.818
71125SOL     OW15213  14.016   7.737   9.683
71125SOL    HW115214  13.971   7.787   9.615
71125SOL    HW215215  13.950   7.720   9.750
71126SOL     OW15216   6.726  14.130   1.777
71126SOL    HW115217   6.774  14.089   1.849
71126SOL    HW215218   6.682  14.205   1.817
71127SOL     OW15219   3.600  12.751  14.858
71127SOL    HW115220   3.607  12.707  14.773
71127SOL    HW215221   3.529  12.815  14.846
71128SOL     OW15222  12.881   7.873   1.676
71128SOL    HW115223  12.967   7.902   1.646
71128SOL    HW215224  12.876   7.782   1.649
71129SOL     OW15225   7.686   0.078   5.372
71129SOL    HW115226   7.664   0.077   5.279
71129SOL    HW215227   7.607   0.049   5.416
71130SOL     OW15228   8.207  13.203   6.131
71130SOL    HW115229   8.218  13.121   6.179
71130SOL    HW215230   8.207  13.271   6.199
71131SOL     OW15231   7.650   5.733   5.509
71131SOL    HW115232   7.718   5.788   5.469
71131SOL    HW215233   7.568   5.775   5.485
71132SOL     OW15234   6.832   0.251  14.473
71132SOL    HW115235   6.817   0.301  14.392
71132SOL    HW215236   6.897   0.303  14.521
71133SOL     OW15237   8.120  13.115   1.368
71133SOL    HW115238   8.140  13.036   1.317
71133SOL    HW215239   8.181  13.113   1.442
71134SOL     OW15240  13.855   6.873   3.345
71134SOL    HW115241  13.862   6.969   3.346
71134SOL    HW215242  13.831   6.852   3.255
71135SOL     OW15243   1.422   2.515  14.371
71135SOL    HW115244   1.337   2.516  14.328
71135SOL    HW215245   1.474   2.579  14.323
71136SOL     OW15246   3.193   7.486   8.573
71136SOL    HW115247   3.158   7.576   8.573
71136SOL    HW215248   3.263   7.487   8.508
71137SOL     OW15249   8.576  12.986  11.236
71137SOL    HW115250   8.539  13.014  11.152
71137SOL    HW215251   8.499  12.972  11.292
71138SOL     OW15252   3.683  14.375  14.228
71138SOL    HW115253   3.752  14.396  14.165
71138SOL    HW215254   3.629  14.454  14.231
71139SOL     OW15255   4.765   1.997   9.145
71139SOL    HW115256   4.726   1.975   9.230
71139SOL    HW215257   4.768   1.914   9.098
71140SOL     OW15258   7.949   3.700   9.779
71140SOL    HW115259   7.962   3.661   9.865
71140SOL    HW215260   7.855   3.700   9.767
71141SOL     OW15261   1.033   2.610  14.014
71141SOL    HW115262   0.945   2.586  14.045
71141SOL    HW215263   1.019   2.690  13.963
71142SOL     OW15264  14.155   0.851   0.781
71142SOL    HW115265  14.196   0.856   0.867
71142SOL    HW215266  14.210   0.789   0.732
71143SOL     OW15267  13.507   3.571   3.663
71143SOL    HW115268  13.600   3.567   3.685
71143SOL    HW215269  13.464   3.593   3.745
71144SOL     OW15270  13.871   9.226  13.731
71144SOL    HW115271  13.871   9.262  13.820
71144SOL    HW215272  13.902   9.136  13.742
71145SOL     OW15273   3.478   0.126   7.215
71145SOL    HW115274   3.478   0.110   7.310
71145SOL    HW215275   3.470   0.039   7.176
71146SOL     OW15276   5.226   9.879  10.117
71146SOL    HW115277   5.220   9.949  10.183
71146SOL    HW215278   5.298   9.906  10.060
71147SOL     OW15279  10.360   3.241   6.371
71147SOL    HW115280  10.384   3.307   6.436
71147SOL    HW215281  10.361   3.290   6.288
71148SOL     OW15282   2.822   3.502   6.540
71148SOL    HW115283   2.747   3.560   6.527
71148SOL    HW215284   2.798   3.421   6.495
71149SOL     OW15285  10.203   8.348  11.211
71149SOL    HW115286  10.122   8.321  11.255
71149SOL    HW215287  10.272   8.310  11.265
71150SOL     OW15288   4.511  12.336  10.613
71150SOL    HW115289   4.469  12.401  10.670
71150SOL    HW215290   4.438  12.295  10.566
71151SOL     OW15291  10.884   8.083  13.516
71151SOL    HW115292  10.818   8.146  13.542
71151SOL    HW215293  10.850   7.998  13.545
71152SOL     OW15294  14.509  14.220   2.967
71152SOL    HW115295  14.524  14.138   3.014
71152SOL    HW215296  14.421  14.247   2.994
71153SOL     OW15297   5.365   7.440   6.290
71153SOL    HW115298   5.371   7.400   6.377
71153SOL    HW215299   5.396   7.372   6.230
71154SOL     OW15300  12.031   8.116   5.246
71154SOL    HW115301  11.946   8.159   5.239
71154SOL    HW215302  12.036   8.087   5.337
71155SOL     OW15303  14.839  14.572  11.191
71155SOL    HW115304  14.747  14.580  11.215
71155SOL    HW215305  14.841  14.586  11.096
71156SOL     OW15306   6.519   0.846   7.026
71156SOL    HW115307   6.466   0.908   6.976
71156SOL    HW215308   6.581   0.810   6.962
71157SOL     OW15309   1.938  13.205   1.394
71157SOL    HW115310   1.870  13.242   1.451
71157SOL    HW215311   1.945  13.266   1.321
71158SOL     OW15312   5.929  13.783   7.175
71158SOL    HW115313   5.962  13.856   7.226
71158SOL    HW215314   6.005  13.726   7.162
71159SOL     OW15315   5.788   5.451   5.070
71159SOL    HW115316   5.862   5.511   5.063
71159SOL    HW215317   5.726   5.495   5.128
71160SOL     OW15318   1.696   9.402   0.452
71160SOL    HW115319   1.755   9.327   0.440
71160SOL    HW215320   1.714   9.433   0.541
71161SOL     OW15321   6.949   3.954   1.132
71161SOL    HW115322   6.955   4.024   1.068
71161SOL    HW215323   6.983   3.993   1.213
71162SOL     OW15324  10.183   2.412  11.315
71162SOL    HW115325  10.227   2.347  11.369
71162SOL    HW215326  10.150   2.477  11.378
71163SOL     OW15327   3.268   8.871   7.891
71163SOL    HW115328   3.182   8.911   7.879
71163SOL    HW215329   3.251   8.796   7.948
71164SOL     OW15330  11.385  13.023   1.258
71164SOL    HW115331  11.459  13.019   1.318
71164SOL    HW215332  11.408  13.092   1.196
71165SOL     OW15333  10.442  10.218  11.718
71165SOL    HW115334  10.416  10.308  11.739
71165SOL    HW215335  10.502  10.194  11.788
71166SOL     OW15336  12.909  14.172   3.150
71166SOL    HW115337  12.918  14.076   3.146
71166SOL    HW215338  12.898  14.198   3.059
71167SOL     OW15339   5.154  14.178  11.876
71167SOL    HW115340   5.190  14.120  11.944
71167SOL    HW215341   5.229  14.201  11.822
71168SOL     OW15342   4.493  14.070   4.277
71168SOL    HW115343   4.410  14.046   4.318
71168SOL    HW215344   4.481  14.161   4.249
71169SOL     OW15345   8.111  13.971   7.458
71169SOL    HW115346   8.035  14.029   7.451
71169SOL    HW215347   8.137  13.955   7.367
71170SOL     OW15348   9.937   5.547   1.139
71170SOL    HW115349   9.854   5.501   1.126
71170SOL    HW215350   9.984   5.495   1.204
71171SOL     OW15351   0.044  10.829  13.607
71171SOL    HW115352  14.868  10.809  13.682
71171SOL    HW215353   0.129  10.791  13.630
71172SOL     OW15354   6.670   1.591   9.328
71172SOL    HW115355   6.595   1.597   9.268
71172SOL    HW215356   6.639   1.632   9.409
71173SOL     OW15357   8.523  12.174   3.550
71173SOL    HW115358   8.485  12.128   3.475
71173SOL    HW215359   8.557  12.255   3.513
71174SOL     OW15360   8.047   1.437   7.762
71174SOL    HW115361   8.053   1.382   7.684
71174SOL    HW215362   8.084   1.384   7.832
71175SOL     OW15363   5.232  13.342   3.769
71175SOL    HW115364   5.157  13.338   3.829
71175SOL    HW215365   5.270  13.429   3.785
71176SOL     OW15366   6.570   4.311   9.264
71176SOL    HW115367   6.652   4.262   9.274
71176SOL    HW215368   6.543   4.332   9.353
71177SOL     OW15369  11.039   8.674   2.257
71177SOL    HW115370  10.982   8.640   2.326
71177SOL    HW215371  11.083   8.597   2.222
71178SOL     OW15372   3.959   9.685   7.586
71178SOL    HW115373   4.011   9.668   7.665
71178SOL    HW215374   3.971   9.778   7.569
71179SOL     OW15375   5.823  12.226   8.865
71179SOL    HW115376   5.889  12.232   8.934
71179SOL    HW215377   5.837  12.140   8.825
71180SOL     OW15378  13.837  10.018   4.544
71180SOL    HW115379  13.751  10.057   4.529
71180SOL    HW215380  13.835   9.935   4.498
71181SOL     OW15381   8.176   0.672   8.864
71181SOL    HW115382   8.172   0.577   8.867
71181SOL    HW215383   8.180   0.693   8.770
71182SOL     OW15384  14.711   1.860   5.210
71182SOL    HW115385  14.799   1.898   5.215
71182SOL    HW215386  14.697   1.843   5.117
71183SOL     OW15387   9.687   1.792   6.917
71183SOL    HW115388   9.777   1.820   6.929
71183SOL    HW215389   9.675   1.720   6.979
71184SOL     OW15390  13.987   2.718   9.626
71184SOL    HW115391  13.911   2.670   9.592
71184SOL    HW215392  13.987   2.800   9.576
71185SOL     OW15393   0.537  13.532   6.053
71185SOL    HW115394   0.471  13.595   6.027
71185SOL    HW215395   0.604  13.584   6.097
71186SOL     OW15396   3.863   1.466   1.589
71186SOL    HW115397   3.892   1.428   1.506
71186SOL    HW215398   3.789   1.411   1.616
71187SOL     OW15399  10.152  10.926   3.329
71187SOL    HW115400  10.200  10.881   3.260
71187SOL    HW215401  10.142  11.016   3.298
71188SOL     OW15402   9.747   8.450   1.016
71188SOL    HW115403   9.729   8.367   1.059
71188SOL    HW215404   9.831   8.437   0.972
71189SOL     OW15405  12.338  10.149  14.411
71189SOL    HW115406  12.367  10.175  14.324
71189SOL    HW215407  12.306  10.230  14.451
71190SOL     OW15408   1.540   9.779  11.782
71190SOL    HW115409   1.612   9.811  11.727
71190SOL    HW215410   1.493   9.717  11.727
71191SOL     OW15411  11.620   8.060  12.767
71191SOL    HW115412  11.575   8.030  12.687
71191SOL    HW215413  11.595   8.152  12.774
71192SOL     OW15414   5.098   4.746   6.287
71192SOL    HW115415   5.019   4.756   6.234
71192SOL    HW215416   5.068   4.753   6.377
71193SOL     OW15417  11.860  11.375   3.893
71193SOL    HW115418  11.809  11.334   3.963
71193SOL    HW215419  11.808  11.360   3.814
71194SOL     OW15420  13.330   2.893   8.801
71194SOL    HW115421  13.258   2.890   8.863
71194SOL    HW215422  13.407   2.868   8.852
71195SOL     OW15423   6.276  11.274   6.289
71195SOL    HW115424   6.284  11.322   6.207
71195SOL    HW215425   6.244  11.187   6.262
71196SOL     OW15426   0.446   9.545   5.353
71196SOL    HW115427   0.400   9.547   5.269
71196SOL    HW215428   0.497   9.464   5.351
71197SOL     OW15429   5.739   5.762   5.287
71197SOL    HW115430   5.754   5.852   5.259
71197SOL    HW215431   5.774   5.758   5.376
71198SOL     OW15432   4.309  10.079   6.516
71198SOL    HW115433   4.402  10.086   6.493
71198SOL    HW215434   4.309  10.065   6.610
71199SOL     OW15435   1.997  13.968   0.905
71199SOL    HW115436   2.000  13.873   0.894
71199SOL    HW215437   1.915  13.984   0.951
71200SOL     OW15438   3.048  11.310  14.585
71200SOL    HW115439   3.097  11.382  14.624
71200SOL    HW215440   3.109  11.236  14.584
71201SOL     OW15441   3.377  13.604  11.544
71201SOL    HW115442   3.395  13.547  11.469
71201SOL    HW215443   3.407  13.553  11.620
71202SOL     OW15444  11.390  10.990  10.093
71202SOL    HW115445  11.323  10.921  10.085
71202SOL    HW215446  11.354  11.064  10.044
71203SOL     OW15447  11.411   9.498   3.985
71203SOL    HW115448  11.445   9.408   3.987
71203SOL    HW215449  11.381   9.511   3.896
71204SOL     OW15450   3.351   7.906  11.650
71204SOL    HW115451   3.294   7.945  11.717
71204SOL    HW215452   3.326   7.813  11.649
71205SOL     OW15453   1.327   3.719  11.433
71205SOL    HW115454   1.315   3.682  11.346
71205SOL    HW215455   1.413   3.762  11.429
71206SOL     OW15456  11.346   0.786   8.181
71206SOL    HW115457  11.373   0.703   8.219
71206SOL    HW215458  11.405   0.799   8.106
71207SOL     OW15459  13.696   8.841   1.284
71207SOL    HW115460  13.746   8.819   1.363
71207SOL    HW215461  13.691   8.759   1.236
71208SOL     OW15462   7.637   2.593  12.924
71208SOL    HW115463   7.629   2.658  12.854
71208SOL    HW215464   7.553   2.598  12.970
71209SOL     OW15465  11.968   6.392   3.585
71209SOL    HW115466  11.974   6.486   3.567
71209SOL    HW215467  11.882   6.366   3.552
71210SOL     OW15468   0.117  10.684   6.315
71210SOL    HW115469   0.106  10.765   6.267
71210SOL    HW215470   0.077  10.700   6.401
71211SOL     OW15471   6.514   7.716   8.864
71211SOL    HW115472   6.494   7.708   8.958
71211SOL    HW215473   6.587   7.778   8.861
71212SOL     OW15474   2.571   4.862  12.626
71212SOL    HW115475   2.615   4.799  12.683
71212SOL    HW215476   2.638   4.927  12.606
71213SOL     OW15477   0.753   0.334   8.597
71213SOL    HW115478   0.717   0.420   8.618
71213SOL    HW215479   0.757   0.333   8.501
71214SOL     OW15480   1.402  12.389   2.879
71214SOL    HW115481   1.324  12.411   2.929
71214SOL    HW215482   1.414  12.295   2.891
71215SOL     OW15483   7.213   2.768  14.840
71215SOL    HW115484   7.203   2.817   0.042
71215SOL    HW215485   7.134   2.714  14.835
71216SOL     OW15486   0.615   3.275  12.771
71216SOL    HW115487   0.641   3.206  12.710
71216SOL    HW215488   0.573   3.228  12.843
71217SOL     OW15489  14.708   5.967   9.774
71217SOL    HW115490  14.631   6.003   9.819
71217SOL    HW215491  14.679   5.882   9.741
71218SOL     OW15492   9.813  11.985   8.542
71218SOL    HW115493   9.742  12.017   8.486
71218SOL    HW215494   9.769  11.934   8.610
71219SOL     OW15495  14.438   7.910   9.185
71219SOL    HW115496  14.355   7.923   9.231
71219SOL    HW215497  14.503   7.900   9.255
71220SOL     OW15498   0.335  11.785  13.509
71220SOL    HW115499   0.332  11.716  13.575
71220SOL    HW215500   0.399  11.848  13.543
71221SOL     OW15501   1.773   9.933   5.294
71221SOL    HW115502   1.841  10.001   5.302
71221SOL    HW215503   1.805   9.876   5.224
71222SOL     OW15504   4.906   7.331  14.676
71222SOL    HW115505   4.947   7.248  14.698
71222SOL    HW215506   4.942   7.354  14.590
71223SOL     OW15507  10.244  12.581   4.485
71223SOL    HW115508  10.219  12.673   4.491
71223SOL    HW215509  10.337  12.583   4.460
71224SOL     OW15510  11.835  13.644   3.324
71224SOL    HW115511  11.871  13.659   3.411
71224SOL    HW215512  11.899  13.681   3.264
71225SOL     OW15513   5.200   3.093  14.055
71225SOL    HW115514   5.256   3.082  13.978
71225SOL    HW215515   5.138   3.161  14.030
71226SOL     OW15516   3.117   6.577  11.737
71226SOL    HW115517   3.128   6.631  11.660
71226SOL    HW215518   3.113   6.487  11.704
71227SOL     OW15519   4.798  10.161  10.696
71227SOL    HW115520   4.828  10.211  10.772
71227SOL    HW215521   4.786  10.071  10.729
71228SOL     OW15522   0.676  13.166   7.279
71228SOL    HW115523   0.701  13.086   7.326
71228SOL    HW215524   0.678  13.140   7.187
71229SOL     OW15525   0.764   5.004   9.314
71229SOL    HW115526   0.761   5.005   9.409
71229SOL    HW215527   0.771   5.096   9.289
71230SOL     OW15528   8.064   7.501   7.081
71230SOL    HW115529   8.116   7.581   7.090
71230SOL    HW215530   8.102   7.441   7.145
71231SOL     OW15531   7.715   0.518  10.759
71231SOL    HW115532   7.730   0.481  10.672
71231SOL    HW215533   7.636   0.571  10.750
71232SOL     OW15534   4.646   8.456  10.819
71232SOL    HW115535   4.736   8.446  10.789
71232SOL    HW215536   4.597   8.480  10.740
71233SOL     OW15537   8.012   1.626   5.421
71233SOL    HW115538   8.025   1.620   5.327
71233SOL    HW215539   8.016   1.536   5.452
71234SOL     OW15540   8.529   8.757   1.612
71234SOL    HW115541   8.515   8.847   1.642
71234SOL    HW215542   8.469   8.705   1.665
71235SOL     OW15543   7.181  14.521  14.403
71235SOL    HW115544   7.216  14.521  14.492
71235SOL    HW215545   7.246  14.473  14.351
71236SOL     OW15546  13.531   1.957   4.726
71236SOL    HW115547  13.446   1.998   4.707
71236SOL    HW215548  13.514   1.903   4.804
71237SOL     OW15549   6.408   0.996   4.483
71237SOL    HW115550   6.490   0.996   4.533
71237SOL    HW215551   6.414   0.919   4.427
71238SOL     OW15552   6.130  13.393  13.621
71238SOL    HW115553   6.085  13.342  13.688
71238SOL    HW215554   6.223  13.381  13.640
71239SOL     OW15555  12.384   1.312   2.550
71239SOL    HW115556  12.469   1.268   2.552
71239SOL    HW215557  12.350   1.301   2.639
71240SOL     OW15558   6.999  14.756  12.012
71240SOL    HW115559   7.016  14.769  11.918
71240SOL    HW215560   6.957  14.837  12.040
71241SOL     OW15561   9.242  13.106  12.187
71241SOL    HW115562   9.298  13.169  12.233
71241SOL    HW215563   9.287  13.022  12.198
71242SOL     OW15564   8.143  10.887  10.088
71242SOL    HW115565   8.194  10.841  10.155
71242SOL    HW215566   8.123  10.819  10.023
71243SOL     OW15567   0.503   6.792   2.991
71243SOL    HW115568   0.455   6.865   3.030
71243SOL    HW215569   0.562   6.763   3.060
71244SOL     OW15570   5.807  12.089   3.325
71244SOL    HW115571   5.859  12.169   3.317
71244SOL    HW215572   5.722  12.111   3.289
71245SOL     OW15573   6.299   8.658   9.290
71245SOL    HW115574   6.266   8.744   9.316
71245SOL    HW215575   6.369   8.677   9.228
71246SOL     OW15576  10.057  12.872  14.104
71246SOL    HW115577   9.997  12.799  14.121
71246SOL    HW215578  10.123  12.835  14.045
71247SOL     OW15579   6.412  13.896   1.519
71247SOL    HW115580   6.419  13.876   1.425
71247SOL    HW215581   6.499  13.928   1.543
71248SOL     OW15582   3.879   2.832  10.760
71248SOL    HW115583   3.889   2.800  10.670
71248SOL    HW215584   3.899   2.925  10.754
71249SOL     OW15585  10.747  13.418   8.756
71249SOL    HW115586  10.809  13.354   8.721
71249SOL    HW215587  10.801  13.494   8.776
71250SOL     OW15588  10.241   9.430  10.399
71250SOL    HW115589  10.277   9.342  10.410
71250SOL    HW215590  10.195   9.448  10.481
71251SOL     OW15591  14.452  14.408   7.440
71251SOL    HW115592  14.358  14.399   7.424
71251SOL    HW215593  14.483  14.463   7.369
71252SOL     OW15594   3.338   6.980   6.364
71252SOL    HW115595   3.363   7.071   6.379
71252SOL    HW215596   3.243   6.981   6.364
71253SOL     OW15597  12.471   8.186   6.225
71253SOL    HW115598  12.452   8.137   6.306
71253SOL    HW215599  12.385   8.201   6.186
71254SOL     OW15600  12.802   2.578   9.189
71254SOL    HW115601  12.873   2.534   9.236
71254SOL    HW215602  12.728   2.575   9.250
71255SOL     OW15603  14.710   9.577   2.983
71255SOL    HW115604  14.724   9.655   3.037
71255SOL    HW215605  14.781   9.518   3.008
71256SOL     OW15606  12.997   0.376   2.477
71256SOL    HW115607  13.037   0.362   2.562
71256SOL    HW215608  13.026   0.463   2.451
71257SOL     OW15609  13.070   2.010   7.840
71257SOL    HW115610  13.037   2.036   7.926
71257SOL    HW215611  13.075   1.914   7.845
71258SOL     OW15612  14.865   8.285  13.279
71258SOL    HW115613  14.876   8.379  13.264
71258SOL    HW215614  14.775   8.267  13.253
71259SOL     OW15615  12.975  13.379   1.079
71259SOL    HW115616  12.912  13.388   1.008
71259SOL    HW215617  13.005  13.288   1.073
71260SOL     OW15618   5.087   2.671  13.880
71260SOL    HW115619   5.087   2.603  13.948
71260SOL    HW215620   5.028   2.739  13.913
71261SOL     OW15621   7.624   6.232   9.314
71261SOL    HW115622   7.585   6.157   9.359
71261SOL    HW215623   7.718   6.220   9.323
71262SOL     OW15624  10.362   4.819   1.447
71262SOL    HW115625  10.281   4.804   1.398
71262SOL    HW215626  10.432   4.811   1.382
71263SOL     OW15627   5.036   7.626   9.751
71263SOL    HW115628   5.087   7.684   9.807
71263SOL    HW215629   5.091   7.611   9.675
71264SOL     OW15630   9.905  14.742  14.303
71264SOL    HW115631   9.901  14.651  14.332
71264SOL    HW215632   9.905  14.737  14.207
71265SOL     OW15633   8.115   5.451   0.409
71265SOL    HW115634   8.088   5.363   0.433
71265SOL    HW215635   8.051   5.480   0.345
71266SOL     OW15636   5.071  11.221  13.894
71266SOL    HW115637   5.083  11.151  13.958
71266SOL    HW215638   5.074  11.176  13.809
71267SOL     OW15639   0.431   2.659  12.241
71267SOL    HW115640   0.483   2.727  12.197
71267SOL    HW215641   0.405   2.600  12.170
71268SOL     OW15642  14.684   7.701   2.136
71268SOL    HW115643  14.740   7.626   2.156
71268SOL    HW215644  14.741   7.761   2.088
71269SOL     OW15645   1.325   4.258   6.716
71269SOL    HW115646   1.326   4.350   6.742
71269SOL    HW215647   1.276   4.257   6.634
71270SOL     OW15648   6.598   7.467   7.514
71270SOL    HW115649   6.644   7.529   7.459
71270SOL    HW215650   6.517   7.447   7.467
71271SOL     OW15651  12.174   6.424  13.458
71271SOL    HW115652  12.248   6.427  13.398
71271SOL    HW215653  12.120   6.499  13.434
71272SOL     OW15654  13.085   7.245   9.793
71272SOL    HW115655  13.028   7.178   9.756
71272SOL    HW215656  13.026   7.302   9.843
71273SOL     OW15657  10.772  13.769   3.233
71273SOL    HW115658  10.858  13.810   3.222
71273SOL    HW215659  10.731  13.776   3.147
71274SOL     OW15660   4.587   2.731   4.978
71274SOL    HW115661   4.595   2.641   4.947
71274SOL    HW215662   4.536   2.776   4.910
71275SOL     OW15663   8.666   8.493   6.727
71275SOL    HW115664   8.646   8.483   6.634
71275SOL    HW215665   8.685   8.404   6.757
71276SOL     OW15666   7.646   6.195   4.207
71276SOL    HW115667   7.673   6.121   4.154
71276SOL    HW215668   7.601   6.253   4.146
71277SOL     OW15669   9.077  10.210   7.828
71277SOL    HW115670   9.017  10.271   7.783
71277SOL    HW215671   9.157  10.213   7.777
71278SOL     OW15672   3.972  12.295   5.524
71278SOL    HW115673   3.979  12.241   5.446
71278SOL    HW215674   4.060  12.292   5.563
71279SOL     OW15675   0.074  13.080   1.935
71279SOL    HW115676   0.083  13.020   1.861
71279SOL    HW215677   0.123  13.158   1.909
71280SOL     OW15678  11.582   2.805   0.829
71280SOL    HW115679  11.569   2.898   0.849
71280SOL    HW215680  11.498   2.764   0.851
71281SOL     OW15681   4.820   5.964   5.599
71281SOL    HW115682   4.760   6.016   5.546
71281SOL    HW215683   4.868   6.028   5.651
71282SOL     OW15684   5.974   7.054  10.946
71282SOL    HW115685   5.899   7.010  10.904
71282SOL    HW215686   5.976   7.140  10.904
71283SOL     OW15687  14.156  11.499   1.217
71283SOL    HW115688  14.109  11.424   1.180
71283SOL    HW215689  14.109  11.575   1.184
71284SOL     OW15690  14.070  14.587   7.628
71284SOL    HW115691  14.015  14.509   7.638
71284SOL    HW215692  14.090  14.589   7.534
71285SOL     OW15693   2.042  11.928   6.676
71285SOL    HW115694   2.081  11.979   6.604
71285SOL    HW215695   2.105  11.858   6.692
71286SOL     OW15696   2.848   8.756  10.086
71286SOL    HW115697   2.798   8.817  10.031
71286SOL    HW215698   2.794   8.678  10.091
71287SOL     OW15699   8.832   6.460   9.642
71287SOL    HW115700   8.812   6.513   9.564
71287SOL    HW215701   8.771   6.491   9.708
71288SOL     OW15702  14.112   7.031   8.008
71288SOL    HW115703  14.113   7.041   8.104
71288SOL    HW215704  14.164   6.953   7.992
71289SOL     OW15705   6.231   8.220   7.451
71289SOL    HW115706   6.257   8.288   7.389
71289SOL    HW215707   6.139   8.236   7.468
71290SOL     OW15708   7.138   2.343   8.408
71290SOL    HW115709   7.062   2.290   8.431
71290SOL    HW215710   7.101   2.416   8.357
71291SOL     OW15711   6.095   6.103  12.862
71291SOL    HW115712   6.061   6.164  12.927
71291SOL    HW215713   6.018   6.058  12.828
71292SOL     OW15714  12.948   4.618   8.149
71292SOL    HW115715  12.892   4.674   8.095
71292SOL    HW215716  12.896   4.540   8.165
71293SOL     OW15717   7.571   9.750   8.900
71293SOL    HW115718   7.520   9.827   8.876
71293SOL    HW215719   7.530   9.678   8.852
71294SOL     OW15720  13.305   4.722   8.303
71294SOL    HW115721  13.356   4.789   8.350
71294SOL    HW215722  13.282   4.659   8.370
71295SOL     OW15723   8.514   4.874   6.748
71295SOL    HW115724   8.445   4.811   6.730
71295SOL    HW215725   8.534   4.914   6.663
71296SOL     OW15726   6.908   9.683  14.026
71296SOL    HW115727   6.913   9.610  14.088
71296SOL    HW215728   6.815   9.703  14.020
71297SOL     OW15729   1.143  11.127  13.065
71297SOL    HW115730   1.129  11.164  12.978
71297SOL    HW215731   1.055  11.121  13.103
71298SOL     OW15732  14.379  11.925   4.596
71298SOL    HW115733  14.364  11.879   4.514
71298SOL    HW215734  14.429  11.863   4.650
71299SOL     OW15735   1.674   6.555   0.465
71299SOL    HW115736   1.655   6.501   0.388
71299SOL    HW215737   1.770   6.564   0.465
71300SOL     OW15738   0.047  13.185   2.302
71300SOL    HW115739  14.860  13.155   2.240
71300SOL    HW215740   0.105  13.110   2.313
71301SOL     OW15741   5.308   0.475   4.137
71301SOL    HW115742   5.347   0.514   4.058
71301SOL    HW215743   5.250   0.407   4.103
71302SOL     OW15744   0.459   9.193   9.317
71302SOL    HW115745   0.488   9.282   9.302
71302SOL    HW215746   0.501   9.142   9.247
71303SOL     OW15747  11.441  13.763  12.049
71303SOL    HW115748  11.529  13.731  12.030
71303SOL    HW215749  11.454  13.840  12.103
71304SOL     OW15750   9.796   5.162  12.108
71304SOL    HW115751   9.824   5.205  12.027
71304SOL    HW215752   9.870   5.106  12.131
71305SOL     OW15753   3.078   1.091   9.894
71305SOL    HW115754   3.055   1.100   9.801
71305SOL    HW215755   3.025   1.018   9.925
71306SOL     OW15756   3.524  10.434   2.279
71306SOL    HW115757   3.556  10.345   2.296
71306SOL    HW215758   3.593  10.491   2.312
71307SOL     OW15759  13.257  13.625   8.828
71307SOL    HW115760  13.266  13.704   8.882
71307SOL    HW215761  13.196  13.570   8.875
71308SOL     OW15762   4.888  14.720   5.248
71308SOL    HW115763   4.910  14.627   5.244
71308SOL    HW215764   4.971  14.764   5.265
71309SOL     OW15765   5.130  13.105   9.623
71309SOL    HW115766   5.189  13.112   9.697
71309SOL    HW215767   5.187  13.092   9.547
71310SOL     OW15768   7.926   2.204  10.967
71310SOL    HW115769   7.980   2.198  10.888
71310SOL    HW215770   7.969   2.147  11.030
71311SOL     OW15771   3.580   5.197   8.768
71311SOL    HW115772   3.497   5.151   8.787
71311SOL    HW215773   3.553   5.283   8.737
71312SOL     OW15774   3.102   6.952   4.651
71312SOL    HW115775   3.100   7.030   4.596
71312SOL    HW215776   3.192   6.920   4.643
71313SOL     OW15777  10.903   5.912   6.462
71313SOL    HW115778  10.974   5.929   6.401
71313SOL    HW215779  10.892   5.816   6.461
71314SOL     OW15780   9.434   8.042   9.210
71314SOL    HW115781   9.397   8.093   9.282
71314SOL    HW215782   9.382   7.963   9.207
71315SOL     OW15783  13.077   5.788   8.051
71315SOL    HW115784  13.096   5.858   7.988
71315SOL    HW215785  13.003   5.821   8.102
71316SOL     OW15786  13.490   0.883   6.083
71316SOL    HW115787  13.484   0.790   6.062
71316SOL    HW215788  13.414   0.922   6.039
71317SOL     OW15789   2.337  14.749   6.783
71317SOL    HW115790   2.372  14.661   6.768
71317SOL    HW215791   2.366  14.800   6.708
71318SOL     OW15792   8.365   8.625   8.800
71318SOL    HW115793   8.390   8.534   8.782
71318SOL    HW215794   8.369   8.632   8.896
71319SOL     OW15795  10.642   4.974   7.098
71319SOL    HW115796  10.725   4.944   7.133
71319SOL    HW215797  10.618   4.909   7.032
71320SOL     OW15798  13.088  13.940   8.774
71320SOL    HW115799  13.125  13.854   8.792
71320SOL    HW215800  12.994  13.926   8.768
71321SOL     OW15801  13.872   3.347  13.016
71321SOL    HW115802  13.834   3.385  13.095
71321SOL    HW215803  13.930   3.278  13.048
71322SOL     OW15804  10.173  13.555   8.002
71322SOL    HW115805  10.172  13.589   8.091
71322SOL    HW215806  10.266  13.553   7.977
71323SOL     OW15807   1.353   9.326   7.600
71323SOL    HW115808   1.313   9.245   7.566
71323SOL    HW215809   1.292   9.356   7.667
71324SOL     OW15810   7.616   4.690  12.477
71324SOL    HW115811   7.569   4.628  12.533
71324SOL    HW215812   7.547   4.740  12.434
71325SOL     OW15813   0.228   2.471   4.860
71325SOL    HW115814   0.276   2.554   4.859
71325SOL    HW215815   0.216   2.451   4.953
71326SOL     OW15816   2.987   1.988   8.832
71326SOL    HW115817   2.997   2.071   8.880
71326SOL    HW215818   3.072   1.946   8.840
71327SOL     OW15819  14.245  11.374   7.871
71327SOL    HW115820  14.175  11.439   7.859
71327SOL    HW215821  14.261  11.339   7.784
71328SOL     OW15822  11.370  14.522   7.440
71328SOL    HW115823  11.339  14.595   7.494
71328SOL    HW215824  11.326  14.533   7.356
71329SOL     OW15825   6.668   2.828   3.876
71329SOL    HW115826   6.582   2.819   3.918
71329SOL    HW215827   6.652   2.805   3.785
71330SOL     OW15828   9.595   4.371  14.059
71330SOL    HW115829   9.691   4.374  14.054
71330SOL    HW215830   9.568   4.462  14.067
71331SOL     OW15831   7.096   2.441  12.058
71331SOL    HW115832   7.092   2.495  12.136
71331SOL    HW215833   7.174   2.470  12.011
71332SOL     OW15834   7.101  13.989  11.264
71332SOL    HW115835   7.093  13.951  11.352
71332SOL    HW215836   7.190  14.023  11.260
71333SOL     OW15837   4.511   6.817   2.761
71333SOL    HW115838   4.418   6.813   2.782
71333SOL    HW215839   4.544   6.892   2.810
71334SOL     OW15840   1.843   1.868   7.396
71334SOL    HW115841   1.780   1.940   7.388
71334SOL    HW215842   1.913   1.891   7.335
71335SOL     OW15843  13.104  12.350   7.275
71335SOL    HW115844  13.150  12.267   7.293
71335SOL    HW215845  13.015  12.334   7.304
71336SOL     OW15846   3.696   7.824   2.776
71336SOL    HW115847   3.609   7.838   2.813
71336SOL    HW215848   3.680   7.809   2.683
71337SOL     OW15849   9.292   4.957   1.884
71337SOL    HW115850   9.219   4.897   1.896
71337SOL    HW215851   9.252   5.044   1.886
71338SOL     OW15852   2.205   3.671   0.854
71338SOL    HW115853   2.205   3.765   0.838
71338SOL    HW215854   2.144   3.659   0.926
71339SOL     OW15855  10.084  13.513   3.059
71339SOL    HW115856   9.994  13.535   3.078
71339SOL    HW215857  10.079  13.428   3.014
71340SOL     OW15858   1.038   9.049  14.291
71340SOL    HW115859   0.994   9.133  14.301
71340SOL    HW215860   1.046   9.016  14.381
71341SOL     OW15861  13.759   3.477   0.271
71341SOL    HW115862  13.724   3.398   0.312
71341SOL    HW215863  13.791   3.529   0.344
71342SOL     OW15864  11.155  14.323  12.197
71342SOL    HW115865  11.233  14.377  12.184
71342SOL    HW215866  11.111  14.324  12.113
71343SOL     OW15867   5.666   4.318   7.805
71343SOL    HW115868   5.672   4.397   7.752
71343SOL    HW215869   5.721   4.336   7.881
71344SOL     OW15870   9.195   9.532   4.262
71344SOL    HW115871   9.190   9.450   4.213
71344SOL    HW215872   9.104   9.550   4.289
71345SOL     OW15873  12.596   3.697  11.006
71345SOL    HW115874  12.560   3.719  10.920
71345SOL    HW215875  12.591   3.779  11.056
71346SOL     OW15876   3.632   2.279  12.434
71346SOL    HW115877   3.695   2.324  12.490
71346SOL    HW215878   3.680   2.204  12.399
71347SOL     OW15879   1.593   4.848   0.457
71347SOL    HW115880   1.579   4.906   0.382
71347SOL    HW215881   1.522   4.869   0.517
71348SOL     OW15882   5.785  11.928   6.758
71348SOL    HW115883   5.754  11.873   6.829
71348SOL    HW215884   5.815  11.866   6.691
71349SOL     OW15885   9.460  13.774   2.601
71349SOL    HW115886   9.439  13.792   2.509
71349SOL    HW215887   9.528  13.838   2.623
71350SOL     OW15888   0.969   0.663  12.955
71350SOL    HW115889   0.915   0.692  13.028
71350SOL    HW215890   0.982   0.741  12.902
71351SOL     OW15891   2.949  14.178   0.393
71351SOL    HW115892   3.036  14.138   0.382
71351SOL    HW215893   2.963  14.271   0.378
71352SOL     OW15894   8.807   2.561  12.509
71352SOL    HW115895   8.860   2.526  12.580
71352SOL    HW215896   8.864   2.622  12.463
71353SOL     OW15897   5.112   0.469   0.515
71353SOL    HW115898   5.110   0.486   0.421
71353SOL    HW215899   5.174   0.396   0.525
71354SOL     OW15900   8.567   2.835   5.034
71354SOL    HW115901   8.482   2.813   4.994
71354SOL    HW215902   8.574   2.776   5.109
71355SOL     OW15903   2.633  13.216  12.999
71355SOL    HW115904   2.581  13.161  12.939
71355SOL    HW215905   2.723  13.205  12.968
71356SOL     OW15906   3.310   2.192   1.958
71356SOL    HW115907   3.260   2.140   2.020
71356SOL    HW215908   3.339   2.129   1.892
71357SOL     OW15909   7.814  14.357  14.194
71357SOL    HW115910   7.849  14.272  14.168
71357SOL    HW215911   7.793  14.401  14.111
71358SOL     OW15912   8.669   8.270   0.723
71358SOL    HW115913   8.642   8.289   0.633
71358SOL    HW215914   8.715   8.350   0.751
71359SOL     OW15915  12.704   0.107   0.153
71359SOL    HW115916  12.631   0.064   0.109
71359SOL    HW215917  12.674   0.196   0.170
71360SOL     OW15918  11.576   6.854   3.772
71360SOL    HW115919  11.506   6.918   3.787
71360SOL    HW215920  11.537   6.790   3.713
71361SOL     OW15921  12.608  14.581   7.593
71361SOL    HW115922  12.638  14.591   7.683
71361SOL    HW215923  12.635  14.661   7.549
71362SOL     OW15924   5.807  11.855   5.911
71362SOL    HW115925   5.833  11.930   5.963
71362SOL    HW215926   5.737  11.813   5.962
71363SOL     OW15927   5.503  12.350   9.510
71363SOL    HW115928   5.427  12.373   9.563
71363SOL    HW215929   5.576  12.398   9.549
71364SOL     OW15930   7.655  10.707  13.140
71364SOL    HW115931   7.733  10.667  13.179
71364SOL    HW215932   7.649  10.666  13.053
71365SOL     OW15933  13.860  10.993   8.293
71365SOL    HW115934  13.862  10.901   8.322
71365SOL    HW215935  13.771  11.022   8.314
71366SOL     OW15936  10.850  14.440   9.089
71366SOL    HW115937  10.910  14.365   9.092
71366SOL    HW215938  10.890  14.505   9.147
71367SOL     OW15939  12.451   7.021  11.956
71367SOL    HW115940  12.464   7.100  11.904
71367SOL    HW215941  12.506   6.955  11.915
71368SOL     OW15942   7.089   2.174  13.093
71368SOL    HW115943   7.121   2.096  13.047
71368SOL    HW215944   7.070   2.144  13.182
71369SOL     OW15945   4.365   6.190   1.682
71369SOL    HW115946   4.296   6.175   1.617
71369SOL    HW215947   4.446   6.187   1.632
71370SOL     OW15948   7.730  10.343  13.838
71370SOL    HW115949   7.778  10.265  13.812
71370SOL    HW215950   7.638  10.316  13.838
71371SOL     OW15951   4.562   9.870  12.405
71371SOL    HW115952   4.613   9.795  12.435
71371SOL    HW215953   4.590   9.942  12.461
71372SOL     OW15954   6.207   9.337   0.176
71372SOL    HW115955   6.242   9.249   0.160
71372SOL    HW215956   6.120   9.335   0.136
71373SOL     OW15957   9.596  11.133   3.982
71373SOL    HW115958   9.514  11.148   3.936
71373SOL    HW215959   9.571  11.089   4.063
71374SOL     OW15960   0.607   7.193   4.163
71374SOL    HW115961   0.679   7.247   4.197
71374SOL    HW215962   0.648   7.110   4.140
71375SOL     OW15963   7.130   5.152   8.521
71375SOL    HW115964   7.200   5.216   8.537
71375SOL    HW215965   7.092   5.179   8.438
71376SOL     OW15966   0.414   7.830   8.915
71376SOL    HW115967   0.502   7.794   8.910
71376SOL    HW215968   0.371   7.780   8.984
71377SOL     OW15969   9.322   3.396   5.675
71377SOL    HW115970   9.316   3.308   5.638
71377SOL    HW215971   9.263   3.395   5.750
71378SOL     OW15972   2.988   7.514   6.297
71378SOL    HW115973   3.040   7.489   6.221
71378SOL    HW215974   3.052   7.527   6.367
71379SOL     OW15975   8.175   1.325  11.911
71379SOL    HW115976   8.136   1.238  11.923
71379SOL    HW215977   8.261   1.306  11.872
71380SOL     OW15978   7.970  13.252   4.032
71380SOL    HW115979   7.929  13.258   3.945
71380SOL    HW215980   8.057  13.218   4.015
71381SOL     OW15981   9.221   2.415   4.115
71381SOL    HW115982   9.234   2.373   4.200
71381SOL    HW215983   9.198   2.505   4.136
71382SOL     OW15984   5.438   9.336   7.229
71382SOL    HW115985   5.415   9.411   7.173
71382SOL    HW215986   5.513   9.367   7.280
71383SOL     OW15987   4.983  12.951   3.130
71383SOL    HW115988   4.944  13.034   3.101
71383SOL    HW215989   4.984  12.957   3.225
71384SOL     OW15990   3.472  14.869  13.304
71384SOL    HW115991   3.415   0.064  13.326
71384SOL    HW215992   3.479  14.871  13.209
71385SOL     OW15993   5.208  11.033  10.293
71385SOL    HW115994   5.225  10.952  10.340
71385SOL    HW215995   5.142  11.078  10.347
71386SOL     OW15996  13.179  13.974   4.210
71386SOL    HW115997  13.186  14.070   4.205
71386SOL    HW215998  13.191  13.955   4.303
71387SOL     OW15999   2.152  13.251   8.866
71387SOL    HW116000   2.193  13.337   8.859
71387SOL    HW216001   2.145  13.221   8.775
71388SOL     OW16002   4.222   7.701   1.697
71388SOL    HW116003   4.298   7.646   1.678
71388SOL    HW216004   4.223   7.767   1.627
71389SOL     OW16005   0.746   4.983   1.084
71389SOL    HW116006   0.767   4.933   1.163
71389SOL    HW216007   0.784   4.931   1.012
71390SOL     OW16008   8.184   6.089  14.320
71390SOL    HW116009   8.176   6.148  14.245
71390SOL    HW216010   8.093   6.073  14.347
71391SOL     OW16011   4.937   5.237   5.805
71391SOL    HW116012   4.922   5.331   5.813
71391SOL    HW216013   5.012   5.220   5.862
71392SOL     OW16014   7.974   5.193  12.048
71392SOL    HW116015   7.978   5.118  11.988
71392SOL    HW216016   7.900   5.245  12.016
71393SOL     OW16017   2.903  11.979   2.392
71393SOL    HW116018   2.809  11.984   2.379
71393SOL    HW216019   2.939  12.041   2.328
71394SOL     OW16020  10.596  12.174  12.923
71394SOL    HW116021  10.674  12.219  12.956
71394SOL    HW216022  10.613  12.162  12.829
71395SOL     OW16023   9.250   7.383   4.552
71395SOL    HW116024   9.178   7.441   4.526
71395SOL    HW216025   9.328   7.439   4.548
71396SOL     OW16026   1.235   8.700  13.801
71396SOL    HW116027   1.226   8.649  13.881
71396SOL    HW216028   1.277   8.781  13.830
71397SOL     OW16029  14.434   2.240   3.230
71397SOL    HW116030  14.435   2.289   3.313
71397SOL    HW216031  14.504   2.175   3.241
71398SOL     OW16032   3.055   7.462  12.437
71398SOL    HW116033   3.031   7.507  12.357
71398SOL    HW216034   2.978   7.410  12.460
71399SOL     OW16035  11.354   2.630  10.535
71399SOL    HW116036  11.265   2.611  10.563
71399SOL    HW216037  11.409   2.574  10.591
71400SOL     OW16038   8.020   0.300   3.147
71400SOL    HW116039   8.066   0.218   3.166
71400SOL    HW216040   8.031   0.353   3.226
71401SOL     OW16041   5.887   6.187  11.549
71401SOL    HW116042   5.820   6.221  11.490
71401SOL    HW216043   5.909   6.101  11.514
71402SOL     OW16044   7.907   1.507  11.760
71402SOL    HW116045   7.825   1.555  11.765
71402SOL    HW216046   7.899   1.439  11.827
71403SOL     OW16047  14.779  10.683   0.857
71403SOL    HW116048  14.754  10.647   0.771
71403SOL    HW216049  14.860  10.636   0.880
71404SOL     OW16050  14.414  11.474   4.430
71404SOL    HW116051  14.472  11.416   4.479
71404SOL    HW216052  14.376  11.419   4.362
71405SOL     OW16053   4.848   8.026  14.081
71405SOL    HW116054   4.878   8.022  14.171
71405SOL    HW216055   4.806   8.112  14.074
71406SOL     OW16056   8.684  10.559   4.224
71406SOL    HW116057   8.760  10.580   4.169
71406SOL    HW216058   8.609  10.566   4.165
71407SOL     OW16059  12.667  14.857   5.195
71407SOL    HW116060  12.638   0.068   5.208
71407SOL    HW216061  12.699  14.855   5.105
71408SOL     OW16062  12.665  10.880  10.011
71408SOL    HW116063  12.604  10.872  10.084
71408SOL    HW216064  12.749  10.902  10.052
71409SOL     OW16065   2.830  10.060   8.582
71409SOL    HW116066   2.804   9.992   8.521
71409SOL    HW216067   2.749  10.106   8.603
71410SOL     OW16068   7.276  14.250   0.232
71410SOL    HW116069   7.282  14.185   0.302
71410SOL    HW216070   7.355  14.304   0.243
71411SOL     OW16071   0.105   6.770   6.194
71411SOL    HW116072   0.160   6.838   6.156
71411SOL    HW216073   0.163   6.725   6.256
71412SOL     OW16074   6.697  13.272   6.369
71412SOL    HW116075   6.722  13.180   6.380
71412SOL    HW216076   6.733  13.296   6.284
71413SOL     OW16077   6.954   9.753   0.709
71413SOL    HW116078   6.913   9.839   0.709
71413SOL    HW216079   6.891   9.696   0.666
71414SOL     OW16080   2.266   4.784   6.653
71414SOL    HW116081   2.188   4.743   6.691
71414SOL    HW216082   2.239   4.874   6.634
71415SOL     OW16083   5.039   4.169  11.811
71415SOL    HW116084   4.991   4.248  11.788
71415SOL    HW216085   5.119   4.201  11.853
71416SOL     OW16086  10.248   7.650  12.510
71416SOL    HW116087  10.308   7.578  12.527
71416SOL    HW216088  10.164   7.608  12.491
71417SOL     OW16089  10.643   6.067   5.301
71417SOL    HW116090  10.648   6.105   5.389
71417SOL    HW216091  10.564   6.104   5.263
71418SOL     OW16092   8.433   1.644   6.647
71418SOL    HW116093   8.446   1.739   6.644
71418SOL    HW216094   8.506   1.611   6.699
71419SOL     OW16095   7.045   0.852   8.557
71419SOL    HW116096   7.088   0.891   8.633
71419SOL    HW216097   6.953   0.877   8.566
71420SOL     OW16098   1.587  10.447   1.599
71420SOL    HW116099   1.512  10.491   1.639
71420SOL    HW216100   1.549  10.372   1.552
71421SOL     OW16101   4.043   6.734  14.376
71421SOL    HW116102   3.991   6.660  14.344
71421SOL    HW216103   4.019   6.806  14.319
71422SOL     OW16104   8.587   1.809  10.885
71422SOL    HW116105   8.657   1.824  10.948
71422SOL    HW216106   8.551   1.724  10.910
71423SOL     OW16107   1.578   2.761  14.672
71423SOL    HW116108   1.650   2.725  14.724
71423SOL    HW216109   1.544   2.833  14.725
71424SOL     OW16110   2.762   8.169   8.530
71424SOL    HW116111   2.766   8.076   8.552
71424SOL    HW216112   2.838   8.208   8.574
71425SOL     OW16113  10.464  14.558   0.374
71425SOL    HW116114  10.540  14.600   0.413
71425SOL    HW216115  10.495  14.472   0.346
71426SOL     OW16116   8.660  10.248   1.354
71426SOL    HW116117   8.736  10.274   1.405
71426SOL    HW216118   8.598  10.214   1.419
71427SOL     OW16119   7.602   0.684   3.628
71427SOL    HW116120   7.624   0.629   3.704
71427SOL    HW216121   7.686   0.701   3.586
71428SOL     OW16122   8.762   3.325   9.491
71428SOL    HW116123   8.748   3.282   9.575
71428SOL    HW216124   8.786   3.255   9.432
71429SOL     OW16125  14.644  14.864   3.767
71429SOL    HW116126  14.640   0.068   3.722
71429SOL    HW216127  14.645  14.798   3.697
71430SOL     OW16128   5.410   2.646   3.062
71430SOL    HW116129   5.353   2.722   3.057
71430SOL    HW216130   5.362   2.583   3.117
71431SOL     OW16131   0.919   3.358   6.214
71431SOL    HW116132   0.895   3.330   6.125
71431SOL    HW216133   0.940   3.276   6.259
71432SOL     OW16134  13.729   5.197   7.958
71432SOL    HW116135  13.676   5.274   7.941
71432SOL    HW216136  13.728   5.187   8.054
71433SOL     OW16137   6.718   2.174   9.361
71433SOL    HW116138   6.719   2.078   9.371
71433SOL    HW216139   6.807   2.196   9.335
71434SOL     OW16140   8.718  10.887   9.587
71434SOL    HW116141   8.746  10.810   9.538
71434SOL    HW216142   8.709  10.856   9.677
71435SOL     OW16143   2.964   5.406   7.071
71435SOL    HW116144   2.939   5.323   7.030
71435SOL    HW216145   2.940   5.472   7.006
71436SOL     OW16146   0.130   4.068   5.448
71436SOL    HW116147   0.063   4.120   5.404
71436SOL    HW216148   0.209   4.123   5.444
71437SOL     OW16149   4.594   8.596   9.054
71437SOL    HW116150   4.642   8.655   9.112
71437SOL    HW216151   4.620   8.508   9.082
71438SOL     OW16152  13.405  14.643  11.807
71438SOL    HW116153  13.381  14.701  11.735
71438SOL    HW216154  13.341  14.572  11.801
71439SOL     OW16155   6.614  14.015  10.805
71439SOL    HW116156   6.599  14.086  10.742
71439SOL    HW216157   6.704  13.987  10.789
71440SOL     OW16158   7.285   9.993   2.486
71440SOL    HW116159   7.220  10.053   2.451
71440SOL    HW216160   7.335   9.964   2.410
71441SOL     OW16161   0.250   3.691   7.742
71441SOL    HW116162   0.178   3.644   7.700
71441SOL    HW216163   0.329   3.646   7.712
71442SOL     OW16164   8.009   8.282  10.979
71442SOL    HW116165   8.087   8.301  10.927
71442SOL    HW216166   8.019   8.334  11.058
71443SOL     OW16167  12.339  12.884  10.808
71443SOL    HW116168  12.337  12.890  10.903
71443SOL    HW216169  12.407  12.819  10.790
71444SOL     OW16170   7.349   6.357   5.129
71444SOL    HW116171   7.356   6.294   5.200
71444SOL    HW216172   7.413   6.425   5.150
71445SOL     OW16173   2.873  12.629  11.388
71445SOL    HW116174   2.920  12.597  11.310
71445SOL    HW216175   2.822  12.554  11.417
71446SOL     OW16176   3.223   9.038   9.590
71446SOL    HW116177   3.270   9.052   9.672
71446SOL    HW216178   3.266   9.097   9.528
71447SOL     OW16179  10.610   2.853  10.186
71447SOL    HW116180  10.564   2.937  10.197
71447SOL    HW216181  10.579   2.800  10.259
71448SOL     OW16182  11.584  12.632   8.765
71448SOL    HW116183  11.614  12.542   8.767
71448SOL    HW216184  11.557  12.647   8.674
71449SOL     OW16185   3.843   2.205   4.756
71449SOL    HW116186   3.806   2.281   4.801
71449SOL    HW216187   3.936   2.207   4.778
71450SOL     OW16188   4.036   0.855   3.204
71450SOL    HW116189   4.102   0.805   3.254
71450SOL    HW216190   4.028   0.808   3.121
71451SOL     OW16191   9.250   2.683   5.382
71451SOL    HW116192   9.165   2.644   5.403
71451SOL    HW216193   9.310   2.644   5.446
71452SOL     OW16194   6.743  11.598  13.500
71452SOL    HW116195   6.834  11.605  13.529
71452SOL    HW216196   6.742  11.522  13.441
71453SOL     OW16197  12.572  13.451   8.859
71453SOL    HW116198  12.584  13.360   8.831
71453SOL    HW216199  12.656  13.493   8.843
71454SOL     OW16200   3.486  11.549  13.867
71454SOL    HW116201   3.550  11.480  13.851
71454SOL    HW216202   3.401  11.505  13.858
71455SOL     OW16203   3.348   9.426   6.723
71455SOL    HW116204   3.362   9.475   6.642
71455SOL    HW216205   3.338   9.335   6.694
71456SOL     OW16206  10.203   8.656   1.005
71456SOL    HW116207  10.189   8.594   0.933
71456SOL    HW216208  10.295   8.647   1.027
71457SOL     OW16209  14.175   0.465   1.510
71457SOL    HW116210  14.146   0.511   1.589
71457SOL    HW216211  14.250   0.515   1.479
71458SOL     OW16212   8.864   4.114  13.260
71458SOL    HW116213   8.891   4.085  13.173
71458SOL    HW216214   8.943   4.105  13.313
71459SOL     OW16215   2.652  10.279   9.047
71459SOL    HW116216   2.583  10.342   9.030
71459SOL    HW216217   2.723  10.304   8.988
71460SOL     OW16218   0.185   2.338   5.095
71460SOL    HW116219   0.100   2.300   5.072
71460SOL    HW216220   0.207   2.300   5.180
71461SOL     OW16221  12.822   5.071  14.090
71461SOL    HW116222  12.842   5.052  14.182
71461SOL    HW216223  12.741   5.023  14.073
71462SOL     OW16224   6.355  12.937  12.123
71462SOL    HW116225   6.368  12.842  12.128
71462SOL    HW216226   6.423  12.968  12.064
71463SOL     OW16227   0.220  14.756   9.362
71463SOL    HW116228   0.265  14.838   9.344
71463SOL    HW216229   0.181  14.768   9.449
71464SOL     OW16230   7.352  13.978  13.812
71464SOL    HW116231   7.288  13.933  13.868
71464SOL    HW216232   7.346  13.934  13.728
71465SOL     OW16233   0.976   6.264  14.089
71465SOL    HW116234   0.969   6.265  13.993
71465SOL    HW216235   0.913   6.198  14.117
71466SOL     OW16236   9.479  11.590  12.179
71466SOL    HW116237   9.470  11.661  12.117
71466SOL    HW216238   9.408  11.530  12.158
71467SOL     OW16239   6.151   7.570   1.684
71467SOL    HW116240   6.065   7.604   1.659
71467SOL    HW216241   6.138   7.531   1.770
71468SOL     OW16242   3.718   2.400   6.194
71468SOL    HW116243   3.671   2.316   6.192
71468SOL    HW216244   3.810   2.375   6.209
71469SOL     OW16245  11.372   5.167   0.349
71469SOL    HW116246  11.297   5.148   0.406
71469SOL    HW216247  11.444   5.116   0.387
71470SOL     OW16248   2.099   9.165   7.783
71470SOL    HW116249   2.115   9.077   7.751
71470SOL    HW216250   2.167   9.219   7.742
71471SOL     OW16251   1.991  11.938   5.861
71471SOL    HW116252   2.010  11.886   5.783
71471SOL    HW216253   2.060  11.915   5.923
71472SOL     OW16254   0.286  14.498   4.559
71472SOL    HW116255   0.349  14.506   4.487
71472SOL    HW216256   0.209  14.457   4.519
71473SOL     OW16257   8.905   1.003  13.772
71473SOL    HW116258   8.894   0.956  13.690
71473SOL    HW216259   8.819   0.996  13.815
71474SOL     OW16260   7.283   0.710   5.123
71474SOL    HW116261   7.358   0.766   5.102
71474SOL    HW216262   7.249   0.683   5.038
71475SOL     OW16263  11.577   3.074   7.533
71475SOL    HW116264  11.512   3.097   7.467
71475SOL    HW216265  11.576   3.147   7.595
71476SOL     OW16266   2.041  13.992   4.021
71476SOL    HW116267   2.032  13.937   3.943
71476SOL    HW216268   2.130  14.025   4.017
71477SOL     OW16269   0.815   7.223   2.463
71477SOL    HW116270   0.835   7.313   2.490
71477SOL    HW216271   0.868   7.169   2.521
71478SOL     OW16272   5.388   0.329   4.897
71478SOL    HW116273   5.362   0.402   4.953
71478SOL    HW216274   5.327   0.331   4.823
71479SOL     OW16275   8.422   6.663  13.731
71479SOL    HW116276   8.455   6.654  13.820
71479SOL    HW216277   8.363   6.588  13.720
71480SOL     OW16278   4.922  12.517   2.522
71480SOL    HW116279   4.995  12.507   2.462
71480SOL    HW216280   4.845  12.495   2.470
71481SOL     OW16281  10.674   5.574   2.490
71481SOL    HW116282  10.675   5.585   2.585
71481SOL    HW216283  10.759   5.607   2.461
71482SOL     OW16284  14.129   6.153   4.288
71482SOL    HW116285  14.121   6.065   4.252
71482SOL    HW216286  14.043   6.193   4.275
71483SOL     OW16287  14.846   1.847   3.182
71483SOL    HW116288  14.877   1.772   3.131
71483SOL    HW216289   0.019   1.920   3.151
71484SOL     OW16290   0.994   1.960   7.803
71484SOL    HW116291   1.019   2.036   7.751
71484SOL    HW216292   0.983   1.890   7.738
71485SOL     OW16293   6.088   4.497   4.050
71485SOL    HW116294   6.006   4.459   4.082
71485SOL    HW216295   6.143   4.506   4.128
71486SOL     OW16296   8.539  12.706   5.053
71486SOL    HW116297   8.452  12.719   5.090
71486SOL    HW216298   8.597  12.702   5.129
71487SOL     OW16299  12.307   1.221   6.967
71487SOL    HW116300  12.330   1.154   7.032
71487SOL    HW216301  12.212   1.229   6.975
71488SOL     OW16302   9.552   8.364  10.047
71488SOL    HW116303   9.521   8.448  10.014
71488SOL    HW216304   9.519   8.359  10.137
71489SOL     OW16305   5.707   5.466   3.495
71489SOL    HW116306   5.635   5.449   3.555
71489SOL    HW216307   5.665   5.479   3.410
71490SOL     OW16308   3.424   5.054   6.878
71490SOL    HW116309   3.468   5.050   6.963
71490SOL    HW216310   3.480   5.112   6.826
71491SOL     OW16311   1.267   3.667  13.060
71491SOL    HW116312   1.223   3.722  13.124
71491SOL    HW216313   1.203   3.658  12.989
71492SOL     OW16314   8.617   7.786   2.491
71492SOL    HW116315   8.607   7.697   2.523
71492SOL    HW216316   8.550   7.795   2.423
71493SOL     OW16317   0.480   4.606   3.200
71493SOL    HW116318   0.507   4.529   3.152
71493SOL    HW216319   0.561   4.650   3.225
71494SOL     OW16320   0.544   7.106  14.404
71494SOL    HW116321   0.458   7.065  14.414
71494SOL    HW216322   0.584   7.099  14.491
71495SOL     OW16323   8.962   6.845  14.138
71495SOL    HW116324   8.875   6.837  14.178
71495SOL    HW216325   8.945   6.880  14.051
71496SOL     OW16326   6.507   4.829   1.911
71496SOL    HW116327   6.584   4.774   1.921
71496SOL    HW216328   6.461   4.821   1.995
71497SOL     OW16329   3.338  14.714   0.820
71497SOL    HW116330   3.307  14.746   0.904
71497SOL    HW216331   3.398  14.643   0.842
71498SOL     OW16332   3.450   5.371   7.158
71498SOL    HW116333   3.532   5.367   7.110
71498SOL    HW216334   3.388   5.411   7.096
71499SOL     OW16335   7.753  14.195   5.079
71499SOL    HW116336   7.693  14.187   5.005
71499SOL    HW216337   7.835  14.157   5.048
71500SOL     OW16338   6.480   0.425  14.412
71500SOL    HW116339   6.501   0.448  14.321
71500SOL    HW216340   6.512   0.336  14.423
71501SOL     OW16341  11.959   2.902   1.505
71501SOL    HW116342  11.990   2.914   1.594
71501SOL    HW216343  12.039   2.901   1.452
71502SOL     OW16344   7.373   0.842  13.629
71502SOL    HW116345   7.355   0.936  13.623
71502SOL    HW216346   7.323   0.804  13.557
71503SOL     OW16347  14.676   5.271  11.723
71503SOL    HW116348  14.620   5.329  11.775
71503SOL    HW216349  14.660   5.297  11.633
71504SOL     OW16350   5.903   9.330  11.440
71504SOL    HW116351   5.941   9.301  11.523
71504SOL    HW216352   5.978   9.336  11.381
71505SOL     OW16353   5.512   7.282   3.963
71505SOL    HW116354   5.550   7.335   3.893
71505SOL    HW216355   5.420   7.271   3.939
71506SOL     OW16356   4.909   8.322   9.346
71506SOL    HW116357   4.914   8.356   9.435
71506SOL    HW216358   4.846   8.380   9.302
71507SOL     OW16359   4.327  12.407   4.496
71507SOL    HW116360   4.386  12.426   4.569
71507SOL    HW216361   4.351  12.319   4.467
71508SOL     OW16362   4.941   1.183   9.532
71508SOL    HW116363   4.970   1.218   9.617
71508SOL    HW216364   4.846   1.183   9.536
71509SOL     OW16365   8.149   3.246  12.453
71509SOL    HW116366   8.074   3.249  12.512
71509SOL    HW216367   8.118   3.195  12.378
71510SOL     OW16368   6.530   3.678   8.214
71510SOL    HW116369   6.515   3.656   8.123
71510SOL    HW216370   6.620   3.651   8.231
71511SOL     OW16371  13.329   3.956   7.332
71511SOL    HW116372  13.382   4.028   7.297
71511SOL    HW216373  13.390   3.904   7.384
71512SOL     OW16374   7.084   0.186   9.658
71512SOL    HW116375   7.040   0.195   9.574
71512SOL    HW216376   7.150   0.118   9.644
71513SOL     OW16377  14.844  12.665  13.134
71513SOL    HW116378   0.057  12.647  13.115
71513SOL    HW216379  14.830  12.628  13.221
71514SOL     OW16380   3.291  10.975   6.587
71514SOL    HW116381   3.366  10.973   6.646
71514SOL    HW216382   3.229  11.034   6.629
71515SOL     OW16383   1.611   2.142  13.950
71515SOL    HW116384   1.562   2.198  14.009
71515SOL    HW216385   1.652   2.077  14.007
71516SOL     OW16386  12.722   9.507   4.030
71516SOL    HW116387  12.717   9.570   4.102
71516SOL    HW216388  12.754   9.557   3.955
71517SOL     OW16389   0.952  11.389   0.589
71517SOL    HW116390   1.039  11.423   0.611
71517SOL    HW216391   0.930  11.331   0.662
71518SOL     OW16392   0.558   1.352  10.378
71518SOL    HW116393   0.594   1.279  10.326
71518SOL    HW216394   0.589   1.336  10.467
71519SOL     OW16395   1.314   9.703  12.734
71519SOL    HW116396   1.259   9.638  12.777
71519SOL    HW216397   1.392   9.708  12.789
71520SOL     OW16398   5.841   0.336  11.534
71520SOL    HW116399   5.865   0.319  11.625
71520SOL    HW216400   5.901   0.406  11.506
71521SOL     OW16401  13.372   0.864   8.593
71521SOL    HW116402  13.440   0.907   8.542
71521SOL    HW216403  13.380   0.771   8.571
71522SOL     OW16404   7.799  12.186   4.422
71522SOL    HW116405   7.758  12.247   4.361
71522SOL    HW216406   7.842  12.242   4.487
71523SOL     OW16407  13.946  12.843   9.215
71523SOL    HW116408  13.954  12.770   9.154
71523SOL    HW216409  13.869  12.891   9.186
71524SOL     OW16410   5.940   3.963   8.466
71524SOL    HW116411   6.011   4.017   8.431
71524SOL    HW216412   5.980   3.877   8.479
71525SOL     OW16413  11.085   2.386   7.833
71525SOL    HW116414  11.059   2.458   7.891
71525SOL    HW216415  11.158   2.344   7.879
71526SOL     OW16416   4.674   4.543   3.122
71526SOL    HW116417   4.623   4.576   3.049
71526SOL    HW216418   4.621   4.471   3.158
71527SOL     OW16419   0.911  13.394   8.990
71527SOL    HW116420   0.840  13.397   9.054
71527SOL    HW216421   0.983  13.350   9.036
71528SOL     OW16422  10.434   8.274   0.286
71528SOL    HW116423  10.494   8.302   0.217
71528SOL    HW216424  10.415   8.183   0.265
71529SOL     OW16425   6.158   4.358  10.065
71529SOL    HW116426   6.161   4.337  10.158
71529SOL    HW216427   6.114   4.284  10.024
71530SOL     OW16428   7.168  14.473   1.915
71530SOL    HW116429   7.082  14.441   1.942
71530SOL    HW216430   7.227  14.398   1.926
71531SOL     OW16431  10.400   3.049  11.855
71531SOL    HW116432  10.437   3.062  11.943
71531SOL    HW216433  10.429   2.962  11.829
71532SOL     OW16434  10.955   1.441  11.702
71532SOL    HW116435  10.902   1.363  11.689
71532SOL    HW216436  11.039   1.419  11.662
71533SOL     OW16437   3.221   5.616  12.996
71533SOL    HW116438   3.197   5.635  13.086
71533SOL    HW216439   3.143   5.638  12.945
71534SOL     OW16440   3.666   2.283   3.206
71534SOL    HW116441   3.674   2.350   3.274
71534SOL    HW216442   3.724   2.312   3.136
71535SOL     OW16443   5.983  14.131   4.650
71535SOL    HW116444   5.950  14.174   4.571
71535SOL    HW216445   5.907  14.084   4.685
71536SOL     OW16446   9.701   7.884   7.848
71536SOL    HW116447   9.667   7.960   7.801
71536SOL    HW216448   9.684   7.810   7.790
71537SOL     OW16449  11.544   9.793   0.747
71537SOL    HW116450  11.518   9.842   0.668
71537SOL    HW216451  11.462   9.766   0.786
71538SOL     OW16452   6.712   0.757   1.981
71538SOL    HW116453   6.657   0.701   2.037
71538SOL    HW216454   6.734   0.701   1.906
71539SOL     OW16455   9.778   5.339  10.726
71539SOL    HW116456   9.866   5.329  10.691
71539SOL    HW216457   9.744   5.418  10.684
71540SOL     OW16458  10.786   4.669   4.824
71540SOL    HW116459  10.739   4.665   4.907
71540SOL    HW216460  10.721   4.696   4.760
71541SOL     OW16461   5.315   1.189   9.530
71541SOL    HW116462   5.398   1.144   9.513
71541SOL    HW216463   5.260   1.166   9.455
71542SOL     OW16464   2.732  13.466   2.583
71542SOL    HW116465   2.643  13.485   2.614
71542SOL    HW216466   2.741  13.520   2.504
71543SOL     OW16467   6.335   2.900  12.345
71543SOL    HW116468   6.262   2.844  12.370
71543SOL    HW216469   6.319   2.983  12.391
71544SOL     OW16470   4.766   4.848  13.738
71544SOL    HW116471   4.706   4.909  13.694
71544SOL    HW216472   4.778   4.776  13.676
71545SOL     OW16473   9.389   9.205   9.653
71545SOL    HW116474   9.379   9.280   9.594
71545SOL    HW216475   9.480   9.177   9.642
71546SOL     OW16476   2.720   5.246   0.194
71546SOL    HW116477   2.758   5.185   0.257
71546SOL    HW216478   2.792   5.305   0.170
71547SOL     OW16479  14.273   2.734   5.414
71547SOL    HW116480  14.345   2.785   5.377
71547SOL    HW216481  14.194   2.779   5.385
71548SOL     OW16482  11.956  13.976  14.179
71548SOL    HW116483  11.866  13.973  14.145
71548SOL    HW216484  11.990  13.888  14.162
71549SOL     OW16485   1.782  11.139   9.815
71549SOL    HW116486   1.811  11.048   9.807
71549SOL    HW216487   1.686  11.134   9.809
71550SOL     OW16488   3.772   6.951   8.910
71550SOL    HW116489   3.864   6.930   8.927
71550SOL    HW216490   3.737   6.976   8.996
71551SOL     OW16491   8.149  14.346   2.059
71551SOL    HW116492   8.205  14.287   2.009
71551SOL    HW216493   8.141  14.305   2.145
71552SOL     OW16494  10.765  12.296   0.197
71552SOL    HW116495  10.778  12.358   0.125
71552SOL    HW216496  10.672  12.301   0.217
71553SOL     OW16497   5.187   8.231   8.968
71553SOL    HW116498   5.110   8.208   8.916
71553SOL    HW216499   5.169   8.320   8.999
71554SOL     OW16500   5.454   3.550  13.949
71554SOL    HW116501   5.437   3.498  13.871
71554SOL    HW216502   5.546   3.573  13.943
71555SOL     OW16503   1.626   0.843   1.961
71555SOL    HW116504   1.534   0.821   1.972
71555SOL    HW216505   1.628   0.898   1.882
71556SOL     OW16506   6.894   7.101   3.639
71556SOL    HW116507   6.881   7.182   3.690
71556SOL    HW216508   6.887   7.129   3.548
71557SOL     OW16509   7.576   8.199   2.730
71557SOL    HW116510   7.670   8.185   2.715
71557SOL    HW216511   7.556   8.277   2.677
71558SOL     OW16512  14.749   7.735  12.663
71558SOL    HW116513  14.801   7.769  12.591
71558SOL    HW216514  14.812   7.692  12.720
71559SOL     OW16515   5.629  10.086  11.703
71559SOL    HW116516   5.704  10.124  11.656
71559SOL    HW216517   5.667  10.042  11.778
71560SOL     OW16518  12.182  10.006   1.821
71560SOL    HW116519  12.270  10.039   1.837
71560SOL    HW216520  12.154   9.971   1.905
71561SOL     OW16521   4.692   1.126  10.277
71561SOL    HW116522   4.697   1.215  10.312
71561SOL    HW216523   4.648   1.076  10.346
71562SOL     OW16524  12.012   2.375  12.192
71562SOL    HW116525  11.928   2.420  12.203
71562SOL    HW216526  12.056   2.422  12.122
71563SOL     OW16527   5.649   7.733   4.187
71563SOL    HW116528   5.688   7.696   4.267
71563SOL    HW216529   5.567   7.772   4.216
71564SOL     OW16530  11.335  14.426   8.434
71564SOL    HW116531  11.266  14.486   8.461
71564SOL    HW216532  11.410  14.482   8.415
71565SOL     OW16533   9.930   4.264   7.686
71565SOL    HW116534   9.953   4.182   7.730
71565SOL    HW216535   9.906   4.239   7.597
71566SOL     OW16536  10.286   4.130   7.927
71566SOL    HW116537  10.349   4.126   7.854
71566SOL    HW216538  10.340   4.121   8.005
71567SOL     OW16539   3.168   5.152   7.182
71567SOL    HW116540   3.207   5.195   7.258
71567SOL    HW216541   3.184   5.213   7.110
71568SOL     OW16542   0.318  14.381   1.011
71568SOL    HW116543   0.319  14.394   1.106
71568SOL    HW216544   0.226  14.371   0.989
71569SOL     OW16545   7.358   0.398   7.614
71569SOL    HW116546   7.408   0.473   7.581
71569SOL    HW216547   7.267   0.420   7.595
71570SOL     OW16548   8.335   6.118   6.721
71570SOL    HW116549   8.355   6.202   6.680
71570SOL    HW216550   8.247   6.096   6.688
71571SOL     OW16551   6.063  10.420   3.578
71571SOL    HW116552   6.111  10.474   3.515
71571SOL    HW216553   6.130  10.367   3.620
71572SOL     OW16554   2.928   2.584   5.017
71572SOL    HW116555   3.020   2.596   5.042
71572SOL    HW216556   2.928   2.586   4.922
71573SOL     OW16557  11.299   2.259   0.316
71573SOL    HW116558  11.225   2.289   0.369
71573SOL    HW216559  11.307   2.324   0.246
71574SOL     OW16560  13.405   1.450   9.233
71574SOL    HW116561  13.399   1.373   9.176
71574SOL    HW216562  13.416   1.523   9.173
71575SOL     OW16563   5.689  10.072  14.323
71575SOL    HW116564   5.744  10.150  14.329
71575SOL    HW216565   5.727  10.022  14.251
71576SOL     OW16566   2.747   4.531   0.358
71576SOL    HW116567   2.746   4.618   0.318
71576SOL    HW216568   2.712   4.545   0.446
71577SOL     OW16569  14.058   3.959   2.431
71577SOL    HW116570  13.995   4.030   2.444
71577SOL    HW216571  14.087   3.936   2.519
71578SOL     OW16572  11.718  14.190  14.824
71578SOL    HW116573  11.774  14.138   0.002
71578SOL    HW216574  11.748  14.280  14.834
71579SOL     OW16575   0.043   9.062   5.926
71579SOL    HW116576   0.129   9.104   5.929
71579SOL    HW216577   0.060   8.972   5.954
71580SOL     OW16578   1.169  12.202  11.453
71580SOL    HW116579   1.223  12.276  11.480
71580SOL    HW216580   1.183  12.136  11.521
71581SOL     OW16581  12.154   0.719  10.472
71581SOL    HW116582  12.156   0.661  10.396
71581SOL    HW216583  12.127   0.663  10.545
71582SOL     OW16584   8.304  12.519  11.168
71582SOL    HW116585   8.302  12.516  11.073
71582SOL    HW216586   8.391  12.553  11.190
71583SOL     OW16587  13.206   1.671   7.593
71583SOL    HW116588  13.289   1.696   7.552
71583SOL    HW216589  13.213   1.704   7.682
71584SOL     OW16590  13.795  14.518   3.634
71584SOL    HW116591  13.700  14.517   3.622
71584SOL    HW216592  13.807  14.537   3.726
71585SOL     OW16593   1.471   4.680  11.835
71585SOL    HW116594   1.490   4.773  11.844
71585SOL    HW216595   1.502   4.656  11.748
71586SOL     OW16596  12.083   9.017   2.052
71586SOL    HW116597  12.006   9.013   1.995
71586SOL    HW216598  12.158   9.008   1.992
71587SOL     OW16599   0.343   8.068   8.016
71587SOL    HW116600   0.344   7.990   8.072
71587SOL    HW216601   0.420   8.118   8.043
71588SOL     OW16602  10.316   3.081   9.062
71588SOL    HW116603  10.225   3.051   9.056
71588SOL    HW216604  10.347   3.049   9.147
71589SOL     OW16605  13.546   1.048   3.968
71589SOL    HW116606  13.596   1.054   4.049
71589SOL    HW216607  13.455   1.044   3.996
71590SOL     OW16608   7.405   7.992   8.704
71590SOL    HW116609   7.470   8.060   8.719
71590SOL    HW216610   7.411   7.974   8.610
71591SOL     OW16611   3.952   7.322   4.465
71591SOL    HW116612   4.041   7.316   4.498
71591SOL    HW216613   3.897   7.329   4.543
71592SOL     OW16614   5.481   7.464   5.919
71592SOL    HW116615   5.483   7.560   5.919
71592SOL    HW216616   5.522   7.439   6.001
71593SOL     OW16617  11.248   7.846   5.137
71593SOL    HW116618  11.323   7.903   5.124
71593SOL    HW216619  11.204   7.844   5.053
71594SOL     OW16620   4.771   4.086  12.763
71594SOL    HW116621   4.742   3.995  12.774
71594SOL    HW216622   4.802   4.090  12.672
71595SOL     OW16623   2.114   6.156   3.801
71595SOL    HW116624   2.094   6.091   3.868
71595SOL    HW216625   2.205   6.182   3.819
71596SOL     OW16626   4.731   5.689   7.648
71596SOL    HW116627   4.668   5.618   7.658
71596SOL    HW216628   4.685   5.767   7.677
71597SOL     OW16629  10.539  14.090   6.504
71597SOL    HW116630  10.465  14.102   6.444
71597SOL    HW216631  10.559  14.179   6.534
71598SOL     OW16632   7.352   1.938   5.054
71598SOL    HW116633   7.400   1.977   4.981
71598SOL    HW216634   7.376   1.845   5.051
71599SOL     OW16635   7.900  12.678   7.031
71599SOL    HW116636   7.953  12.705   7.107
71599SOL    HW216637   7.876  12.760   6.989
71600SOL     OW16638   9.045  10.874   0.269
71600SOL    HW116639   9.090  10.866   0.353
71600SOL    HW216640   8.970  10.931   0.287
71601SOL     OW16641   8.741  12.892   9.796
71601SOL    HW116642   8.810  12.957   9.792
71601SOL    HW216643   8.682  12.924   9.865
71602SOL     OW16644   5.777   6.187   3.362
71602SOL    HW116645   5.769   6.241   3.283
71602SOL    HW216646   5.729   6.107   3.341
71603SOL     OW16647  12.187   7.105  10.654
71603SOL    HW116648  12.235   7.024  10.669
71603SOL    HW216649  12.136   7.119  10.733
71604SOL     OW16650   9.972  13.298   2.528
71604SOL    HW116651   9.902  13.364   2.529
71604SOL    HW216652   9.928  13.216   2.552
71605SOL     OW16653   9.223   7.849   8.434
71605SOL    HW116654   9.138   7.891   8.420
71605SOL    HW216655   9.275   7.872   8.357
71606SOL     OW16656   3.031   3.762  11.248
71606SOL    HW116657   3.081   3.793  11.324
71606SOL    HW216658   2.995   3.842  11.209
71607SOL     OW16659   3.004  12.012   1.866
71607SOL    HW116660   3.027  12.039   1.777
71607SOL    HW216661   3.066  11.944   1.888
71608SOL     OW16662  13.265  11.262  10.982
71608SOL    HW116663  13.248  11.340  10.929
71608SOL    HW216664  13.178  11.223  10.996
71609SOL     OW16665  10.412   6.042   6.777
71609SOL    HW116666  10.410   5.989   6.697
71609SOL    HW216667  10.388   6.130   6.747
71610SOL     OW16668   5.420  10.315   3.650
71610SOL    HW116669   5.349  10.367   3.686
71610SOL    HW216670   5.434  10.351   3.562
71611SOL     OW16671   6.153   9.046   8.035
71611SOL    HW116672   6.177   9.134   8.006
71611SOL    HW216673   6.153   9.051   8.131
71612SOL     OW16674   0.962   5.155  13.269
71612SOL    HW116675   1.014   5.151  13.188
71612SOL    HW216676   1.004   5.223  13.321
71613SOL     OW16677   2.753   9.043  10.891
71613SOL    HW116678   2.739   8.954  10.859
71613SOL    HW216679   2.809   9.085  10.826
71614SOL     OW16680   2.674   4.821   4.840
71614SOL    HW116681   2.622   4.761   4.892
71614SOL    HW216682   2.751   4.839   4.893
71615SOL     OW16683   7.468   3.856   2.191
71615SOL    HW116684   7.467   3.792   2.262
71615SOL    HW216685   7.533   3.921   2.218
71616SOL     OW16686   8.180   3.821   6.824
71616SOL    HW116687   8.153   3.731   6.842
71616SOL    HW216688   8.166   3.867   6.907
71617SOL     OW16689   7.747  13.490   7.654
71617SOL    HW116690   7.768  13.478   7.561
71617SOL    HW216691   7.772  13.408   7.695
71618SOL     OW16692  12.265   9.723   9.608
71618SOL    HW116693  12.213   9.648   9.579
71618SOL    HW216694  12.206   9.773   9.665
71619SOL     OW16695   2.662   7.909   3.871
71619SOL    HW116696   2.717   7.832   3.880
71619SOL    HW216697   2.665   7.951   3.957
71620SOL     OW16698   8.473  11.189  10.709
71620SOL    HW116699   8.523  11.208  10.630
71620SOL    HW216700   8.487  11.095  10.723
71621SOL     OW16701  10.430  14.745   5.436
71621SOL    HW116702  10.466  14.710   5.517
71621SOL    HW216703  10.335  14.747   5.451
71622SOL     OW16704   0.187  13.907  14.050
71622SOL    HW116705   0.270  13.903  14.098
71622SOL    HW216706   0.173  14.000  14.034
71623SOL     OW16707  12.391   2.398  12.257
71623SOL    HW116708  12.482   2.400  12.288
71623SOL    HW216709  12.394   2.343  12.178
71624SOL     OW16710   9.250   9.892   8.378
71624SOL    HW116711   9.221   9.864   8.464
71624SOL    HW216712   9.345   9.880   8.379
71625SOL     OW16713   4.584   9.125   5.049
71625SOL    HW116714   4.564   9.067   4.976
71625SOL    HW216715   4.679   9.119   5.059
71626SOL     OW16716   6.324  11.153  10.841
71626SOL    HW116717   6.385  11.129  10.772
71626SOL    HW216718   6.270  11.076  10.854
71627SOL     OW16719   0.639  12.925   0.670
71627SOL    HW116720   0.645  12.997   0.732
71627SOL    HW216721   0.545  12.914   0.654
71628SOL     OW16722   2.677  13.654   6.943
71628SOL    HW116723   2.608  13.625   6.884
71628SOL    HW216724   2.737  13.704   6.887
71629SOL     OW16725   2.495  14.633  10.909
71629SOL    HW116726   2.432  14.704  10.895
71629SOL    HW216727   2.516  14.637  11.002
71630SOL     OW16728   5.904   8.139   2.004
71630SOL    HW116729   5.965   8.130   2.077
71630SOL    HW216730   5.960   8.145   1.927
71631SOL     OW16731   3.908  11.434   0.118
71631SOL    HW116732   3.854  11.355   0.124
71631SOL    HW216733   3.845  11.506   0.117
71632SOL     OW16734   6.049   7.374   8.595
71632SOL    HW116735   5.973   7.421   8.564
71632SOL    HW216736   6.124   7.422   8.560
71633SOL     OW16737   3.215   6.798   2.214
71633SOL    HW116738   3.183   6.749   2.138
71633SOL    HW216739   3.307   6.775   2.221
71634SOL     OW16740   5.063   3.897   4.679
71634SOL    HW116741   5.152   3.862   4.668
71634SOL    HW216742   5.024   3.892   4.592
71635SOL     OW16743   8.190  10.125  10.003
71635SOL    HW116744   8.133  10.067  10.055
71635SOL    HW216745   8.254  10.067   9.963
71636SOL     OW16746   8.753   0.797   6.756
71636SOL    HW116747   8.752   0.861   6.685
71636SOL    HW216748   8.671   0.749   6.747
71637SOL     OW16749   6.678   6.655  12.928
71637SOL    HW116750   6.701   6.565  12.905
71637SOL    HW216751   6.703   6.708  12.853
71638SOL     OW16752   8.006   4.694   3.398
71638SOL    HW116753   7.920   4.652   3.389
71638SOL    HW216754   8.037   4.666   3.484
71639SOL     OW16755   9.828  10.398  12.341
71639SOL    HW116756   9.888  10.422  12.270
71639SOL    HW216757   9.856  10.452  12.415
71640SOL     OW16758   7.325   2.629  11.116
71640SOL    HW116759   7.366   2.686  11.051
71640SOL    HW216760   7.232   2.649  11.109
71641SOL     OW16761  13.631  13.940   7.343
71641SOL    HW116762  13.582  13.858   7.336
71641SOL    HW216763  13.594  13.983   7.420
71642SOL     OW16764   4.030   5.676   3.071
71642SOL    HW116765   3.969   5.606   3.095
71642SOL    HW216766   4.043   5.725   3.152
71643SOL     OW16767   7.380   4.579  13.195
71643SOL    HW116768   7.395   4.510  13.130
71643SOL    HW216769   7.292   4.560  13.229
71644SOL     OW16770   6.797   1.096   5.575
71644SOL    HW116771   6.769   1.016   5.620
71644SOL    HW216772   6.718   1.149   5.567
71645SOL     OW16773   3.660   3.349  13.648
71645SOL    HW116774   3.710   3.431  13.654
71645SOL    HW216775   3.648   3.322  13.739
71646SOL     OW16776   8.710   8.217   7.082
71646SOL    HW116777   8.634   8.225   7.140
71646SOL    HW216778   8.757   8.140   7.114
71647SOL     OW16779   2.239   4.996   1.953
71647SOL    HW116780   2.188   5.065   1.910
71647SOL    HW216781   2.178   4.923   1.962
71648SOL     OW16782  12.798  14.509   2.243
71648SOL    HW116783  12.783  14.428   2.195
71648SOL    HW216784  12.887  14.501   2.277
71649SOL     OW16785  12.490  12.367  11.689
71649SOL    HW116786  12.408  12.400  11.652
71649SOL    HW216787  12.463  12.296  11.748
71650SOL     OW16788   3.075   8.381  11.103
71650SOL    HW116789   3.097   8.448  11.038
71650SOL    HW216790   3.159   8.341  11.126
71651SOL     OW16791  13.953  12.738   0.828
71651SOL    HW116792  13.894  12.787   0.886
71651SOL    HW216793  14.000  12.680   0.887
71652SOL     OW16794  12.635  11.804   6.744
71652SOL    HW116795  12.673  11.748   6.811
71652SOL    HW216796  12.705  11.816   6.680
71653SOL     OW16797   7.735   7.295   7.565
71653SOL    HW116798   7.719   7.353   7.639
71653SOL    HW216799   7.722   7.207   7.600
71654SOL     OW16800  14.197  11.596  11.293
71654SOL    HW116801  14.165  11.583  11.382
71654SOL    HW216802  14.123  11.634  11.246
71655SOL     OW16803   0.450  10.156  14.309
71655SOL    HW116804   0.514  10.085  14.317
71655SOL    HW216805   0.503  10.235  14.318
71656SOL     OW16806   6.107   0.681  11.708
71656SOL    HW116807   6.042   0.729  11.759
71656SOL    HW216808   6.157   0.749  11.663
71657SOL     OW16809   5.541   2.523   6.295
71657SOL    HW116810   5.560   2.601   6.243
71657SOL    HW216811   5.569   2.546   6.384
71658SOL     OW16812   0.857   6.647   1.192
71658SOL    HW116813   0.892   6.680   1.275
71658SOL    HW216814   0.876   6.717   1.129
71659SOL     OW16815   6.077   1.785  13.143
71659SOL    HW116816   6.081   1.726  13.068
71659SOL    HW216817   5.991   1.827  13.136
71660SOL     OW16818   7.546   7.093  13.621
71660SOL    HW116819   7.622   7.125  13.573
71660SOL    HW216820   7.582   7.030  13.684
71661SOL     OW16821   6.905   2.764   4.575
71661SOL    HW116822   6.820   2.765   4.619
71661SOL    HW216823   6.964   2.724   4.639
71662SOL     OW16824  14.798   6.456  11.744
71662SOL    HW116825  14.770   6.383  11.799
71662SOL    HW216826  14.846   6.514  11.804
71663SOL     OW16827   7.258   2.296   6.094
71663SOL    HW116828   7.278   2.382   6.132
71663SOL    HW216829   7.225   2.317   6.007
71664SOL     OW16830  10.175  12.275  13.438
71664SOL    HW116831  10.169  12.370  13.444
71664SOL    HW216832  10.174  12.245  13.529
71665SOL     OW16833   5.131   9.566   5.295
71665SOL    HW116834   5.196   9.637   5.302
71665SOL    HW216835   5.047   9.609   5.313
71666SOL     OW16836   5.583   7.918  10.256
71666SOL    HW116837   5.514   7.965  10.302
71666SOL    HW216838   5.653   7.908  10.320
71667SOL     OW16839   5.601   9.354  12.741
71667SOL    HW116840   5.547   9.372  12.664
71667SOL    HW216841   5.547   9.382  12.815
71668SOL     OW16842   0.344   3.694   1.829
71668SOL    HW116843   0.354   3.789   1.834
71668SOL    HW216844   0.250   3.679   1.822
71669SOL     OW16845   1.621   8.948   2.415
71669SOL    HW116846   1.635   8.947   2.320
71669SOL    HW216847   1.655   8.864   2.445
71670SOL     OW16848  10.873  10.431   7.114
71670SOL    HW116849  10.822  10.425   7.195
71670SOL    HW216850  10.837  10.363   7.057
71671SOL     OW16851   3.130  10.824  11.492
71671SOL    HW116852   3.060  10.801  11.431
71671SOL    HW216853   3.177  10.742  11.507
71672SOL     OW16854  10.370  13.775   1.330
71672SOL    HW116855  10.355  13.688   1.293
71672SOL    HW216856  10.344  13.766   1.422
71673SOL     OW16857   8.901   0.693   5.435
71673SOL    HW116858   8.981   0.722   5.477
71673SOL    HW216859   8.898   0.598   5.450
71674SOL     OW16860   4.294   7.982   8.264
71674SOL    HW116861   4.356   8.034   8.315
71674SOL    HW216862   4.275   8.037   8.188
71675SOL     OW16863   3.532   9.689   3.213
71675SOL    HW116864   3.578   9.714   3.133
71675SOL    HW216865   3.598   9.648   3.268
71676SOL     OW16866   5.846   6.506   0.851
71676SOL    HW116867   5.911   6.471   0.791
71676SOL    HW216868   5.762   6.494   0.806
71677SOL     OW16869  11.644   3.489   3.394
71677SOL    HW116870  11.644   3.498   3.490
71677SOL    HW216871  11.697   3.563   3.364
71678SOL     OW16872  11.858   4.512   7.827
71678SOL    HW116873  11.918   4.506   7.752
71678SOL    HW216874  11.914   4.505   7.904
71679SOL     OW16875   8.148  12.087  12.365
71679SOL    HW116876   8.084  12.072  12.435
71679SOL    HW216877   8.208  12.153  12.401
71680SOL     OW16878  11.205   3.079  14.115
71680SOL    HW116879  11.227   3.126  14.035
71680SOL    HW216880  11.143   3.011  14.086
71681SOL     OW16881   1.544   1.355   3.429
71681SOL    HW116882   1.540   1.450   3.419
71681SOL    HW216883   1.619   1.340   3.486
71682SOL     OW16884   7.388   6.405   3.720
71682SOL    HW116885   7.353   6.417   3.808
71682SOL    HW216886   7.316   6.365   3.671
71683SOL     OW16887   2.859   8.364   3.086
71683SOL    HW116888   2.853   8.457   3.108
71683SOL    HW216889   2.858   8.362   2.991
71684SOL     OW16890  11.450  12.671   6.326
71684SOL    HW116891  11.397  12.741   6.286
71684SOL    HW216892  11.536  12.711   6.339
71685SOL     OW16893   8.526   8.219   1.567
71685SOL    HW116894   8.607   8.258   1.597
71685SOL    HW216895   8.462   8.290   1.568
71686SOL     OW16896  10.838  14.784   0.074
71686SOL    HW116897  10.832  14.875   0.102
71686SOL    HW216898  10.883  14.740   0.146
71687SOL     OW16899   6.259  11.722  13.570
71687SOL    HW116900   6.200  11.746  13.641
71687SOL    HW216901   6.233  11.633  13.547
71688SOL     OW16902   6.934   3.751   2.522
71688SOL    HW116903   6.934   3.689   2.595
71688SOL    HW216904   6.950   3.697   2.445
71689SOL     OW16905   3.354  10.136  13.789
71689SOL    HW116906   3.286  10.123  13.723
71689SOL    HW216907   3.307  10.168  13.866
71690SOL     OW16908   9.124   1.993   2.393
71690SOL    HW116909   9.183   2.035   2.456
71690SOL    HW216910   9.037   2.023   2.419
71691SOL     OW16911   8.611   0.081   5.450
71691SOL    HW116912   8.661   0.007   5.415
71691SOL    HW216913   8.521   0.048   5.454
71692SOL     OW16914  10.246  13.828   4.028
71692SOL    HW116915  10.219  13.778   3.952
71692SOL    HW216916  10.300  13.768   4.079
71693SOL     OW16917   1.913  14.877  14.153
71693SOL    HW116918   1.856  14.799  14.153
71693SOL    HW216919   1.972  14.863  14.079
71694SOL     OW16920  13.870   0.835  11.363
71694SOL    HW116921  13.929   0.909  11.379
71694SOL    HW216922  13.926   0.768  11.323
71695SOL     OW16923   2.366  13.114   0.891
71695SOL    HW116924   2.397  13.025   0.910
71695SOL    HW216925   2.427  13.171   0.938
71696SOL     OW16926   4.467   0.129  11.953
71696SOL    HW116927   4.417   0.059  11.911
71696SOL    HW216928   4.468   0.200  11.889
71697SOL     OW16929   0.702   4.068   0.329
71697SOL    HW116930   0.656   4.141   0.369
71697SOL    HW216931   0.632   4.013   0.292
71698SOL     OW16932   9.340  10.740   3.791
71698SOL    HW116933   9.310  10.761   3.880
71698SOL    HW216934   9.383  10.655   3.800
71699SOL     OW16935   0.745   6.554  10.122
71699SOL    HW116936   0.782   6.558  10.210
71699SOL    HW216937   0.759   6.463  10.095
71700SOL     OW16938  12.214   7.077   5.153
71700SOL    HW116939  12.120   7.095   5.151
71700SOL    HW216940  12.246   7.109   5.069
71701SOL     OW16941   8.660   2.625  12.217
71701SOL    HW116942   8.729   2.687  12.243
71701SOL    HW216943   8.708   2.553  12.176
71702SOL     OW16944   9.192   0.774   4.616
71702SOL    HW116945   9.167   0.754   4.706
71702SOL    HW216946   9.127   0.838   4.586
71703SOL     OW16947   7.591  13.355   4.157
71703SOL    HW116948   7.673  13.312   4.182
71703SOL    HW216949   7.555  13.387   4.240
71704SOL     OW16950   9.989   2.925   5.930
71704SOL    HW116951   9.943   2.855   5.974
71704SOL    HW216952  10.073   2.932   5.976
71705SOL     OW16953   8.550   1.809   5.516
71705SOL    HW116954   8.598   1.843   5.592
71705SOL    HW216955   8.459   1.803   5.546
71706SOL     OW16956   5.876  10.736  14.097
71706SOL    HW116957   5.887  10.739  14.002
71706SOL    HW216958   5.799  10.680  14.110
71707SOL     OW16959   3.756   8.638  14.161
71707SOL    HW116960   3.837   8.600  14.127
71707SOL    HW216961   3.750   8.723  14.117
71708SOL     OW16962   8.392   8.850   3.077
71708SOL    HW116963   8.352   8.812   3.155
71708SOL    HW216964   8.439   8.927   3.109
71709SOL     OW16965  10.366  13.108  14.097
71709SOL    HW116966  10.397  13.063  14.175
71709SOL    HW216967  10.421  13.186  14.091
71710SOL     OW16968   8.336  10.678  12.500
71710SOL    HW116969   8.431  10.677  12.510
71710SOL    HW216970   8.307  10.593  12.533
71711SOL     OW16971   6.644  11.929  14.098
71711SOL    HW116972   6.714  11.986  14.129
71711SOL    HW216973   6.671  11.906  14.009
71712SOL     OW16974   3.959  11.885   3.808
71712SOL    HW116975   3.957  11.925   3.721
71712SOL    HW216976   3.868  11.886   3.837
71713SOL     OW16977   3.232   4.382  14.293
71713SOL    HW116978   3.234   4.340  14.379
71713SOL    HW216979   3.314   4.430  14.287
71714SOL     OW16980   4.778   0.872  13.352
71714SOL    HW116981   4.839   0.946  13.345
71714SOL    HW216982   4.723   0.879  13.274
71715SOL     OW16983   6.470  13.870   3.451
71715SOL    HW116984   6.504  13.870   3.361
71715SOL    HW216985   6.543  13.838   3.504
71716SOL     OW16986  10.632   9.815   1.302
71716SOL    HW116987  10.626   9.835   1.208
71716SOL    HW216988  10.717   9.849   1.329
71717SOL     OW16989  12.546  10.734   0.366
71717SOL    HW116990  12.479  10.772   0.309
71717SOL    HW216991  12.527  10.770   0.453
71718SOL     OW16992   9.324   6.871   8.182
71718SOL    HW116993   9.402   6.868   8.237
71718SOL    HW216994   9.321   6.785   8.140
71719SOL     OW16995   7.668   5.864   7.399
71719SOL    HW116996   7.659   5.848   7.493
71719SOL    HW216997   7.689   5.778   7.363
71720SOL     OW16998   0.041  13.707   2.788
71720SOL    HW116999   0.120  13.674   2.831
71720SOL    HW217000   0.003  13.629   2.746
71721SOL     OW17001  11.011   2.203  12.501
71721SOL    HW117002  11.032   2.215  12.594
71721SOL    HW217003  11.073   2.260  12.455
71722SOL     OW17004   1.388   7.919   7.781
71722SOL    HW117005   1.450   7.958   7.720
71722SOL    HW217006   1.431   7.838   7.810
71723SOL     OW17007   3.976   2.136   0.027
71723SOL    HW117008   4.046   2.198   0.011
71723SOL    HW217009   4.006   2.055  14.866
71724SOL     OW17010  13.029  12.545  10.576
71724SOL    HW117011  13.007  12.452  10.570
71724SOL    HW217012  13.073  12.565  10.493
71725SOL     OW17013   4.671   6.187  11.817
71725SOL    HW117014   4.715   6.269  11.839
71725SOL    HW217015   4.720   6.153  11.743
71726SOL     OW17016   7.121   5.691   3.680
71726SOL    HW117017   7.027   5.706   3.689
71726SOL    HW217018   7.157   5.776   3.655
71727SOL     OW17019   0.181  14.819   7.875
71727SOL    HW117020   0.257  14.863   7.912
71727SOL    HW217021   0.190  14.831   7.780
71728SOL     OW17022  12.242  11.294   5.253
71728SOL    HW117023  12.304  11.327   5.188
71728SOL    HW217024  12.249  11.199   5.247
71729SOL     OW17025  12.201  13.746   2.286
71729SOL    HW117026  12.285  13.754   2.240
71729SOL    HW217027  12.226  13.724   2.376
71730SOL     OW17028   6.863   5.233   5.689
71730SOL    HW117029   6.820   5.192   5.763
71730SOL    HW217030   6.820   5.196   5.612
71731SOL     OW17031  10.498   8.535   3.455
71731SOL    HW117032  10.415   8.489   3.460
71731SOL    HW217033  10.533   8.514   3.369
71732SOL     OW17034   8.468  12.268  14.589
71732SOL    HW117035   8.463  12.234  14.679
71732SOL    HW217036   8.409  12.344  14.590
71733SOL     OW17037   9.295   8.105  14.082
71733SOL    HW117038   9.206   8.071  14.085
71733SOL    HW217039   9.308   8.145  14.168
71734SOL     OW17040   7.169   5.088   7.614
71734SOL    HW117041   7.217   5.170   7.610
71734SOL    HW217042   7.125   5.081   7.530
71735SOL     OW17043  10.916   7.568  10.536
71735SOL    HW117044  10.975   7.564  10.461
71735SOL    HW217045  10.866   7.487  10.531
71736SOL     OW17046   1.916   0.951  13.842
71736SOL    HW117047   1.924   0.857  13.832
71736SOL    HW217048   1.937   0.987  13.756
71737SOL     OW17049  13.153  11.738  13.365
71737SOL    HW117050  13.119  11.654  13.394
71737SOL    HW217051  13.087  11.772  13.304
71738SOL     OW17052   9.731  12.319   9.441
71738SOL    HW117053   9.759  12.409   9.427
71738SOL    HW217054   9.675  12.299   9.366
71739SOL     OW17055   6.556  12.824  11.663
71739SOL    HW117056   6.579  12.731  11.662
71739SOL    HW217057   6.568  12.853  11.573
71740SOL     OW17058  14.703  13.619  14.687
71740SOL    HW117059  14.692  13.676  14.611
71740SOL    HW217060  14.626  13.636  14.742
71741SOL     OW17061   3.033  10.537   5.672
71741SOL    HW117062   3.064  10.455   5.634
71741SOL    HW217063   3.016  10.594   5.597
71742SOL     OW17064  12.288   9.466  14.563
71742SOL    HW117065  12.297   9.424  14.477
71742SOL    HW217066  12.321   9.554  14.549
71743SOL     OW17067  11.625   2.513   4.719
71743SOL    HW117068  11.714   2.545   4.710
71743SOL    HW217069  11.587   2.520   4.631
71744SOL     OW17070   1.397  10.610   7.799
71744SOL    HW117071   1.442  10.572   7.875
71744SOL    HW217072   1.468  10.641   7.743
71745SOL     OW17073   0.003   2.363   8.801
71745SOL    HW117074   0.052   2.441   8.776
71745SOL    HW217075  14.841   2.387   8.885
71746SOL     OW17076  12.638   1.056  12.787
71746SOL    HW117077  12.646   0.987  12.721
71746SOL    HW217078  12.712   1.113  12.771
71747SOL     OW17079  13.672   4.002  14.269
71747SOL    HW117080  13.712   4.086  14.291
71747SOL    HW217081  13.745   3.946  14.245
71748SOL     OW17082   5.800   1.695  13.795
71748SOL    HW117083   5.760   1.668  13.712
71748SOL    HW217084   5.736   1.754  13.834
71749SOL     OW17085  11.081   6.138  10.842
71749SOL    HW117086  11.047   6.085  10.915
71749SOL    HW217087  11.106   6.221  10.883
71750SOL     OW17088   4.997   1.576   2.284
71750SOL    HW117089   4.976   1.619   2.202
71750SOL    HW217090   5.091   1.590   2.296
71751SOL     OW17091   2.974  11.481   3.065
71751SOL    HW117092   2.884  11.491   3.031
71751SOL    HW217093   3.003  11.570   3.083
71752SOL     OW17094   9.351   7.526   8.836
71752SOL    HW117095   9.259   7.530   8.809
71752SOL    HW217096   9.354   7.575   8.918
71753SOL     OW17097   6.489   5.940  13.643
71753SOL    HW117098   6.493   5.849  13.612
71753SOL    HW217099   6.426   5.983  13.586
71754SOL     OW17100   8.051   1.651   4.036
71754SOL    HW117101   8.079   1.579   4.093
71754SOL    HW217102   8.123   1.714   4.040
71755SOL     OW17103  13.293   9.487  10.494
71755SOL    HW117104  13.340   9.511  10.414
71755SOL    HW217105  13.344   9.416  10.531
71756SOL     OW17106   1.185  13.068   3.413
71756SOL    HW117107   1.125  13.066   3.487
71756SOL    HW217108   1.272  13.053   3.450
71757SOL     OW17109   3.713   8.589   3.822
71757SOL    HW117110   3.751   8.676   3.805
71757SOL    HW217111   3.624   8.595   3.787
71758SOL     OW17112   7.075   0.733  10.912
71758SOL    HW117113   7.074   0.721  11.007
71758SOL    HW217114   6.983   0.749  10.889
71759SOL     OW17115  10.891   3.965  10.006
71759SOL    HW117116  10.831   3.958  10.081
71759SOL    HW217117  10.877   3.884   9.957
71760SOL     OW17118   4.350  14.559  10.491
71760SOL    HW117119   4.259  14.562  10.521
71760SOL    HW217120   4.358  14.475  10.446
71761SOL     OW17121   7.735   3.919   1.126
71761SOL    HW117122   7.822   3.888   1.150
71761SOL    HW217123   7.687   3.839   1.104
71762SOL     OW17124  11.544   4.945   5.790
71762SOL    HW117125  11.487   5.013   5.826
71762SOL    HW217126  11.591   4.988   5.719
71763SOL     OW17127   6.961   2.238   6.098
71763SOL    HW117128   6.967   2.188   6.180
71763SOL    HW217129   7.047   2.281   6.090
71764SOL     OW17130  12.016   0.187   9.251
71764SOL    HW117131  12.055   0.225   9.330
71764SOL    HW217132  12.063   0.228   9.179
71765SOL     OW17133  11.494  13.755  13.424
71765SOL    HW117134  11.462  13.802  13.501
71765SOL    HW217135  11.439  13.678  13.417
71766SOL     OW17136   8.415   6.902   9.658
71766SOL    HW117137   8.368   6.985   9.651
71766SOL    HW217138   8.467   6.910   9.738
71767SOL     OW17139   9.602   8.706   8.757
71767SOL    HW117140   9.646   8.621   8.760
71767SOL    HW217141   9.536   8.701   8.826
71768SOL     OW17142  11.849   4.034   9.332
71768SOL    HW117143  11.856   4.129   9.333
71768SOL    HW217144  11.892   4.006   9.413
71769SOL     OW17145   3.113  10.791   2.074
71769SOL    HW117146   3.063  10.825   1.999
71769SOL    HW217147   3.204  10.806   2.051
71770SOL     OW17148  12.611  14.577  12.655
71770SOL    HW117149  12.624  14.573  12.560
71770SOL    HW217150  12.700  14.587  12.690
71771SOL     OW17151  12.408   4.897   4.286
71771SOL    HW117152  12.347   4.830   4.254
71771SOL    HW217153  12.355   4.978   4.288
71772SOL     OW17154   3.930  11.313   4.882
71772SOL    HW117155   3.943  11.219   4.892
71772SOL    HW217156   3.896  11.342   4.967
71773SOL     OW17157  10.694  14.471  12.327
71773SOL    HW117158  10.734  14.412  12.264
71773SOL    HW217159  10.632  14.417  12.375
71774SOL     OW17160   3.396  13.598   1.861
71774SOL    HW117161   3.465  13.549   1.815
71774SOL    HW217162   3.333  13.619   1.792
71775SOL     OW17163   3.743   9.809   1.700
71775SOL    HW117164   3.814   9.800   1.637
71775SOL    HW217165   3.675   9.749   1.670
71776SOL     OW17166   8.888   8.362   3.630
71776SOL    HW117167   8.919   8.441   3.673
71776SOL    HW217168   8.848   8.392   3.549
71777SOL     OW17169   4.557  14.505  13.074
71777SOL    HW117170   4.469  14.542  13.067
71777SOL    HW217171   4.590  14.505  12.984
71778SOL     OW17172  11.668   1.813  12.739
71778SOL    HW117173  11.709   1.897  12.719
71778SOL    HW217174  11.736   1.748  12.718
71779SOL     OW17175   5.293   3.516   5.178
71779SOL    HW117176   5.261   3.462   5.106
71779SOL    HW217177   5.363   3.465   5.219
71780SOL     OW17178  10.409  11.587  14.267
71780SOL    HW117179  10.372  11.657  14.212
71780SOL    HW217180  10.421  11.514  14.206
71781SOL     OW17181   0.328  14.749   6.981
71781SOL    HW117182   0.300  14.756   7.073
71781SOL    HW217183   0.421  14.727   6.986
71782SOL     OW17184   2.689   1.633  11.491
71782SOL    HW117185   2.730   1.618  11.576
71782SOL    HW217186   2.614   1.573  11.490
71783SOL     OW17187  12.863  12.821   5.411
71783SOL    HW117188  12.858  12.775   5.495
71783SOL    HW217189  12.773  12.849   5.394
71784SOL     OW17190   6.467  13.759   0.353
71784SOL    HW117191   6.490  13.785   0.442
71784SOL    HW217192   6.551  13.746   0.309
71785SOL     OW17193   0.031   2.755  11.347
71785SOL    HW117194   0.070   2.667  11.354
71785SOL    HW217195   0.056   2.785  11.259
71786SOL     OW17196  13.382   5.682   4.106
71786SOL    HW117197  13.329   5.605   4.087
71786SOL    HW217198  13.461   5.647   4.148
71787SOL     OW17199   2.969   2.721  14.664
71787SOL    HW117200   2.888   2.740  14.616
71787SOL    HW217201   3.030   2.690  14.597
71788SOL     OW17202   3.933   7.321   5.658
71788SOL    HW117203   3.945   7.317   5.753
71788SOL    HW217204   3.899   7.235   5.634
71789SOL     OW17205  13.619   1.228  13.736
71789SOL    HW117206  13.640   1.176  13.814
71789SOL    HW217207  13.702   1.271  13.714
71790SOL     OW17208   6.324  13.410   9.003
71790SOL    HW117209   6.310  13.410   8.909
71790SOL    HW217210   6.340  13.318   9.025
71791SOL     OW17211   1.468   5.835   0.926
71791SOL    HW117212   1.435   5.921   0.949
71791SOL    HW217213   1.392   5.788   0.891
71792SOL     OW17214   4.330  14.853   4.247
71792SOL    HW117215   4.352  14.868   4.339
71792SOL    HW217216   4.309   0.061   4.213
71793SOL     OW17217   5.439  12.383   9.077
71793SOL    HW117218   5.470  12.422   8.996
71793SOL    HW217219   5.500  12.414   9.144
71794SOL     OW17220  10.572  14.334   0.278
71794SOL    HW117221  10.653  14.334   0.227
71794SOL    HW217222  10.586  14.268   0.346
71795SOL     OW17223  13.751   6.016  10.358
71795SOL    HW117224  13.693   5.975  10.422
71795SOL    HW217225  13.713   5.991  10.273
71796SOL     OW17226   5.920   5.828   4.259
71796SOL    HW117227   5.977   5.904   4.247
71796SOL    HW217228   5.910   5.820   4.354
71797SOL     OW17229  12.200   2.063   0.714
71797SOL    HW117230  12.177   1.989   0.656
71797SOL    HW217231  12.206   2.024   0.801
71798SOL     OW17232  12.696   2.274   4.206
71798SOL    HW117233  12.680   2.325   4.126
71798SOL    HW217234  12.642   2.196   4.196
71799SOL     OW17235   8.002   5.232   4.689
71799SOL    HW117236   7.909   5.252   4.696
71799SOL    HW217237   8.045   5.317   4.682
71800SOL     OW17238  13.367  12.767   7.058
71800SOL    HW117239  13.453  12.737   7.029
71800SOL    HW217240  13.319  12.686   7.076
71801SOL     OW17241   8.414  14.626   7.064
71801SOL    HW117242   8.495  14.651   7.019
71801SOL    HW217243   8.439  14.621   7.156
71802SOL     OW17244   4.049   7.175  14.796
71802SOL    HW117245   4.101   7.254  14.778
71802SOL    HW217246   4.079   7.111  14.732
71803SOL     OW17247  14.616   7.276   9.242
71803SOL    HW117248  14.677   7.346   9.218
71803SOL    HW217249  14.616   7.275   9.337
71804SOL     OW17250   2.737   9.238   3.481
71804SOL    HW117251   2.653   9.205   3.447
71804SOL    HW217252   2.733   9.220   3.575
71805SOL     OW17253  11.333   1.978   3.861
71805SOL    HW117254  11.370   1.989   3.949
71805SOL    HW217255  11.302   1.887   3.860
71806SOL     OW17256  11.904   5.176   3.251
71806SOL    HW117257  11.900   5.160   3.345
71806SOL    HW217258  11.993   5.149   3.225
71807SOL     OW17259   9.823  12.028  11.023
71807SOL    HW117260   9.845  11.935  11.016
71807SOL    HW217261   9.836  12.048  11.116
71808SOL     OW17262   5.928   9.710   7.412
71808SOL    HW117263   5.979   9.681   7.336
71808SOL    HW217264   5.982   9.777   7.453
71809SOL     OW17265   5.479   9.452  12.031
71809SOL    HW117266   5.500   9.385  11.966
71809SOL    HW217267   5.522   9.531  11.998
71810SOL     OW17268   1.836   7.006   1.458
71810SOL    HW117269   1.807   7.075   1.517
71810SOL    HW217270   1.758   6.951   1.446
71811SOL     OW17271   5.060   0.787   2.476
71811SOL    HW117272   5.012   0.865   2.447
71811SOL    HW217273   5.033   0.775   2.567
71812SOL     OW17274   6.133  12.068   4.944
71812SOL    HW117275   6.082  12.083   5.024
71812SOL    HW217276   6.221  12.046   4.976
71813SOL     OW17277  14.088  10.327   1.526
71813SOL    HW117278  14.140  10.262   1.574
71813SOL    HW217279  14.094  10.299   1.434
71814SOL     OW17280   6.511   4.681   8.436
71814SOL    HW117281   6.472   4.624   8.370
71814SOL    HW217282   6.568   4.740   8.386
71815SOL     OW17283  13.067   7.055  11.240
71815SOL    HW117284  13.110   7.125  11.191
71815SOL    HW217285  13.062   7.087  11.330
71816SOL     OW17286   9.423   9.884   4.098
71816SOL    HW117287   9.502   9.855   4.053
71816SOL    HW217288   9.447   9.970   4.134
71817SOL     OW17289  10.886   1.359   8.828
71817SOL    HW117290  10.889   1.391   8.919
71817SOL    HW217291  10.946   1.285   8.828
71818SOL     OW17292   0.632   3.640   6.837
71818SOL    HW117293   0.725   3.631   6.859
71818SOL    HW217294   0.632   3.673   6.747
71819SOL     OW17295   0.338   1.028   8.386
71819SOL    HW117296   0.320   0.945   8.429
71819SOL    HW217297   0.335   1.093   8.457
71820SOL     OW17298   2.865   9.210   2.283
71820SOL    HW117299   2.889   9.210   2.376
71820SOL    HW217300   2.808   9.287   2.274
71821SOL     OW17301   7.212  11.556   3.377
71821SOL    HW117302   7.222  11.499   3.301
71821SOL    HW217303   7.297  11.599   3.386
71822SOL     OW17304  12.603   4.649   2.612
71822SOL    HW117305  12.648   4.573   2.648
71822SOL    HW217306  12.625   4.648   2.518
71823SOL     OW17307   5.416  12.652   9.124
71823SOL    HW117308   5.349  12.583   9.122
71823SOL    HW217309   5.423  12.680   9.032
71824SOL     OW17310   5.186  11.799   8.267
71824SOL    HW117311   5.156  11.769   8.181
71824SOL    HW217312   5.227  11.722   8.307
71825SOL     OW17313   2.535   6.276   5.974
71825SOL    HW117314   2.457   6.322   6.004
71825SOL    HW217315   2.608   6.332   6.000
71826SOL     OW17316   3.818   9.760   5.648
71826SOL    HW117317   3.874   9.730   5.576
71826SOL    HW217318   3.853   9.714   5.725
71827SOL     OW17319   4.031  10.753  10.517
71827SOL    HW117320   4.078  10.791  10.443
71827SOL    HW217321   4.091  10.688  10.552
71828SOL     OW17322   5.993   8.116   2.582
71828SOL    HW117323   5.906   8.144   2.552
71828SOL    HW217324   6.034   8.196   2.614
71829SOL     OW17325   8.480   4.633   8.073
71829SOL    HW117326   8.525   4.713   8.048
71829SOL    HW217327   8.492   4.626   8.167
71830SOL     OW17328  12.135   6.050   3.117
71830SOL    HW117329  12.179   6.067   3.033
71830SOL    HW217330  12.150   5.957   3.134
71831SOL     OW17331  14.529   6.360   0.950
71831SOL    HW117332  14.555   6.444   0.912
71831SOL    HW217333  14.484   6.383   1.031
71832SOL     OW17334   3.498   6.344   2.263
71832SOL    HW117335   3.549   6.279   2.312
71832SOL    HW217336   3.548   6.359   2.183
71833SOL     OW17337   9.064   3.689   2.823
71833SOL    HW117338   9.002   3.664   2.892
71833SOL    HW217339   9.104   3.606   2.796
71834SOL     OW17340   9.161   8.056  13.467
71834SOL    HW117341   9.247   8.056  13.426
71834SOL    HW217342   9.171   8.110  13.545
71835SOL     OW17343   5.776   4.265  13.348
71835SOL    HW117344   5.729   4.349  13.355
71835SOL    HW217345   5.832   4.263  13.425
71836SOL     OW17346  13.448  14.395  13.924
71836SOL    HW117347  13.418  14.484  13.938
71836SOL    HW217348  13.477  14.365  14.010
71837SOL     OW17349   0.495   4.989  10.906
71837SOL    HW117350   0.540   4.928  10.965
71837SOL    HW217351   0.548   5.068  10.907
71838SOL     OW17352   9.650   4.542   6.946
71838SOL    HW117353   9.581   4.587   6.897
71838SOL    HW217354   9.673   4.602   7.017
71839SOL     OW17355   2.742   9.412  14.752
71839SOL    HW117356   2.786   9.385  14.833
71839SOL    HW217357   2.791   9.368  14.683
71840SOL     OW17358   3.079   9.207   8.799
71840SOL    HW117359   3.016   9.168   8.739
71840SOL    HW217360   3.160   9.157   8.784
71841SOL     OW17361  10.033   3.221   6.955
71841SOL    HW117362  10.034   3.129   6.981
71841SOL    HW217363  10.124   3.250   6.963
71842SOL     OW17364   7.794   3.074  11.353
71842SOL    HW117365   7.863   3.038  11.408
71842SOL    HW217366   7.794   3.168  11.372
71843SOL     OW17367   5.816   3.508  14.631
71843SOL    HW117368   5.805   3.519  14.536
71843SOL    HW217369   5.834   3.596  14.663
71844SOL     OW17370   8.111   2.211   4.363
71844SOL    HW117371   8.117   2.123   4.400
71844SOL    HW217372   8.161   2.266   4.423
71845SOL     OW17373   1.020   5.386  12.969
71845SOL    HW117374   0.959   5.427  12.908
71845SOL    HW217375   1.010   5.436  13.050
71846SOL     OW17376  14.123   6.751   3.344
71846SOL    HW117377  14.139   6.842   3.369
71846SOL    HW217378  14.028   6.743   3.342
71847SOL     OW17379  13.945   7.153  14.530
71847SOL    HW117380  13.945   7.132  14.437
71847SOL    HW217381  13.852   7.157  14.553
71848SOL     OW17382   6.724  14.058  14.657
71848SOL    HW117383   6.804  14.018  14.622
71848SOL    HW217384   6.660  13.987  14.654
71849SOL     OW17385  11.255  14.329   6.739
71849SOL    HW117386  11.294  14.400   6.790
71849SOL    HW217387  11.318  14.257   6.746
71850SOL     OW17388   2.973   3.508   0.477
71850SOL    HW117389   2.927   3.568   0.535
71850SOL    HW217390   2.958   3.421   0.515
71851SOL     OW17391   5.691  13.841   8.086
71851SOL    HW117392   5.725  13.765   8.038
71851SOL    HW217393   5.616  13.807   8.135
71852SOL     OW17394   7.282   7.394   4.071
71852SOL    HW117395   7.325   7.447   4.139
71852SOL    HW217396   7.328   7.310   4.073
71853SOL     OW17397   3.911   3.957   6.844
71853SOL    HW117398   3.864   3.946   6.927
71853SOL    HW217399   3.846   3.937   6.777
71854SOL     OW17400   4.229  11.125   7.107
71854SOL    HW117401   4.259  11.057   7.046
71854SOL    HW217402   4.135  11.131   7.091
71855SOL     OW17403  14.819  13.697   2.114
71855SOL    HW117404  14.821  13.793   2.116
71855SOL    HW217405  14.830  13.671   2.205
71856SOL     OW17406   3.776   3.945   5.782
71856SOL    HW117407   3.772   4.029   5.829
71856SOL    HW217408   3.846   3.897   5.826
71857SOL     OW17409   5.758   7.772   5.445
71857SOL    HW117410   5.758   7.696   5.387
71857SOL    HW217411   5.849   7.803   5.445
71858SOL     OW17412   6.032   8.948   8.924
71858SOL    HW117413   6.104   8.887   8.910
71858SOL    HW217414   6.010   8.937   9.017
71859SOL     OW17415   1.180  13.084   7.278
71859SOL    HW117416   1.096  13.101   7.237
71859SOL    HW217417   1.217  13.171   7.293
71860SOL     OW17418   3.156  10.159  13.513
71860SOL    HW117419   3.083  10.208  13.475
71860SOL    HW217420   3.131  10.067  13.501
71861SOL     OW17421   4.991  12.663  14.842
71861SOL    HW117422   4.980  12.578  14.799
71861SOL    HW217423   5.053  12.710  14.786
71862SOL     OW17424   3.815   7.735   1.971
71862SOL    HW117425   3.778   7.671   1.911
71862SOL    HW217426   3.743   7.795   1.991
71863SOL     OW17427  13.987   0.333   4.963
71863SOL    HW117428  13.980   0.374   4.877
71863SOL    HW217429  14.059   0.378   5.006
71864SOL     OW17430   0.374   3.104  10.725
71864SOL    HW117431   0.437   3.174  10.709
71864SOL    HW217432   0.291   3.138  10.691
71865SOL     OW17433  12.738  10.045  10.863
71865SOL    HW117434  12.802  10.074  10.798
71865SOL    HW217435  12.666  10.010  10.810
71866SOL     OW17436   7.362   3.144   7.161
71866SOL    HW117437   7.318   3.081   7.218
71866SOL    HW217438   7.296   3.168   7.096
71867SOL     OW17439   7.608   7.610   9.381
71867SOL    HW117440   7.603   7.517   9.358
71867SOL    HW217441   7.569   7.655   9.306
71868SOL     OW17442  10.836  13.593  14.758
71868SOL    HW117443  10.841  13.595  14.854
71868SOL    HW217444  10.855  13.683  14.731
71869SOL     OW17445   0.393  12.596   0.692
71869SOL    HW117446   0.340  12.592   0.772
71869SOL    HW217447   0.403  12.689   0.675
71870SOL     OW17448  12.023   8.410   6.485
71870SOL    HW117449  12.074   8.409   6.566
71870SOL    HW217450  11.980   8.495   6.485
71871SOL     OW17451   0.525   6.793   3.922
71871SOL    HW117452   0.575   6.712   3.912
71871SOL    HW217453   0.434   6.765   3.934
71872SOL     OW17454   1.767   9.479   5.991
71872SOL    HW117455   1.797   9.469   6.082
71872SOL    HW217456   1.737   9.391   5.967
71873SOL     OW17457  12.439   9.521   3.988
71873SOL    HW117458  12.434   9.574   3.909
71873SOL    HW217459  12.530   9.492   3.992
71874SOL     OW17460   8.920   0.137   4.500
71874SOL    HW117461   8.966   0.062   4.462
71874SOL    HW217462   8.989   0.188   4.543
71875SOL     OW17463   2.597  14.810  10.084
71875SOL    HW117464   2.504  14.826  10.067
71875SOL    HW217465   2.643  14.859  10.015
71876SOL     OW17466  10.871   3.682   1.981
71876SOL    HW117467  10.890   3.722   1.896
71876SOL    HW217468  10.957   3.673   2.023
71877SOL     OW17469   3.332   1.217   7.644
71877SOL    HW117470   3.261   1.196   7.705
71877SOL    HW217471   3.377   1.134   7.630
71878SOL     OW17472  11.269  14.221   9.071
71878SOL    HW117473  11.181  14.195   9.044
71878SOL    HW217474  11.263  14.316   9.080
71879SOL     OW17475   6.869  12.261   1.468
71879SOL    HW117476   6.888  12.294   1.555
71879SOL    HW217477   6.916  12.177   1.463
71880SOL     OW17478   7.097   5.727   8.865
71880SOL    HW117479   7.088   5.778   8.785
71880SOL    HW217480   7.098   5.636   8.836
71881SOL     OW17481   4.410   5.479   0.730
71881SOL    HW117482   4.348   5.541   0.690
71881SOL    HW217483   4.493   5.495   0.685
71882SOL     OW17484  12.801  13.769  13.293
71882SOL    HW117485  12.750  13.838  13.335
71882SOL    HW217486  12.858  13.814  13.231
71883SOL     OW17487   9.393   7.781  14.281
71883SOL    HW117488   9.337   7.756  14.208
71883SOL    HW217489   9.400   7.876  14.275
71884SOL     OW17490   9.739   5.598  13.220
71884SOL    HW117491   9.693   5.559  13.294
71884SOL    HW217492   9.685   5.672  13.193
71885SOL     OW17493  10.885  12.220   8.711
71885SOL    HW117494  10.922  12.307   8.699
71885SOL    HW217495  10.952  12.172   8.758
71886SOL     OW17496   5.926   5.114   5.297
71886SOL    HW117497   5.869   5.051   5.341
71886SOL    HW217498   5.868   5.187   5.274
71887SOL     OW17499   0.963   2.862   1.636
71887SOL    HW117500   0.998   2.773   1.633
71887SOL    HW217501   0.884   2.859   1.583
71888SOL     OW17502   7.560   6.713   3.223
71888SOL    HW117503   7.587   6.695   3.133
71888SOL    HW217504   7.603   6.645   3.275
71889SOL     OW17505   0.155  11.972   2.009
71889SOL    HW117506   0.138  11.903   2.074
71889SOL    HW217507   0.071  12.016   2.000
71890SOL     OW17508  12.549   7.896  13.434
71890SOL    HW117509  12.522   7.980  13.396
71890SOL    HW217510  12.642   7.890  13.414
71891SOL     OW17511   9.690   2.244   6.626
71891SOL    HW117512   9.649   2.264   6.710
71891SOL    HW217513   9.642   2.167   6.594
71892SOL     OW17514   0.173   9.279   6.380
71892SOL    HW117515   0.200   9.334   6.307
71892SOL    HW217516   0.223   9.198   6.369
71893SOL     OW17517   8.989   2.369   9.064
71893SOL    HW117518   8.987   2.432   8.992
71893SOL    HW217519   8.903   2.376   9.105
71894SOL     OW17520   1.382   1.306   2.300
71894SOL    HW117521   1.314   1.259   2.346
71894SOL    HW217522   1.368   1.398   2.324
71895SOL     OW17523   2.239   3.541  12.894
71895SOL    HW117524   2.209   3.462  12.939
71895SOL    HW217525   2.159   3.591  12.877
71896SOL     OW17526  12.707   7.558  13.832
71896SOL    HW117527  12.636   7.595  13.884
71896SOL    HW217528  12.663   7.514  13.759
71897SOL     OW17529   7.286   1.480  12.649
71897SOL    HW117530   7.312   1.572  12.653
71897SOL    HW217531   7.252   1.461  12.736
71898SOL     OW17532  11.370   5.705  10.192
71898SOL    HW117533  11.317   5.784  10.190
71898SOL    HW217534  11.454   5.731  10.156
71899SOL     OW17535   4.795   4.769   6.980
71899SOL    HW117536   4.879   4.779   6.936
71899SOL    HW217537   4.817   4.752   7.071
71900SOL     OW17538   5.639  12.999   8.073
71900SOL    HW117539   5.720  13.004   8.023
71900SOL    HW217540   5.645  13.071   8.135
71901SOL     OW17541   8.051  13.845   2.267
71901SOL    HW117542   8.005  13.925   2.244
71901SOL    HW217543   8.060  13.848   2.362
71902SOL     OW17544  14.875   1.422  13.425
71902SOL    HW117545  14.807   1.364  13.392
71902SOL    HW217546   0.073   1.367  13.435
71903SOL     OW17547   8.775   6.569   1.846
71903SOL    HW117548   8.832   6.510   1.796
71903SOL    HW217549   8.785   6.541   1.937
71904SOL     OW17550  13.178   7.459   3.321
71904SOL    HW117551  13.101   7.488   3.370
71904SOL    HW217552  13.198   7.532   3.262
71905SOL     OW17553   1.455   8.245   9.120
71905SOL    HW117554   1.489   8.243   9.210
71905SOL    HW217555   1.426   8.335   9.107
71906SOL     OW17556   4.785  11.942   4.801
71906SOL    HW117557   4.857  11.993   4.766
71906SOL    HW217558   4.733  11.918   4.724
71907SOL     OW17559  10.889   5.620   5.524
71907SOL    HW117560  10.960   5.664   5.571
71907SOL    HW217561  10.914   5.627   5.432
71908SOL     OW17562   6.344  11.322   3.825
71908SOL    HW117563   6.277  11.254   3.836
71908SOL    HW217564   6.335  11.350   3.734
71909SOL     OW17565   6.123  12.688   4.314
71909SOL    HW117566   6.089  12.657   4.398
71909SOL    HW217567   6.080  12.773   4.300
71910SOL     OW17568   4.944   5.720  11.803
71910SOL    HW117569   4.999   5.649  11.770
71910SOL    HW217570   4.858   5.679  11.817
71911SOL     OW17571   2.042   2.152   1.533
71911SOL    HW117572   1.982   2.186   1.467
71911SOL    HW217573   1.996   2.077   1.570
71912SOL     OW17574  10.683   8.791   4.480
71912SOL    HW117575  10.633   8.798   4.398
71912SOL    HW217576  10.768   8.831   4.459
71913SOL     OW17577   5.612   4.286  14.861
71913SOL    HW117578   5.573   4.225  14.798
71913SOL    HW217579   5.702   4.255  14.872
71914SOL     OW17580   6.188   3.767  11.793
71914SOL    HW117581   6.108   3.731  11.832
71914SOL    HW217582   6.169   3.860  11.781
71915SOL     OW17583  12.965  11.749   8.405
71915SOL    HW117584  12.974  11.751   8.310
71915SOL    HW217585  13.051  11.722   8.437
71916SOL     OW17586  13.850   4.445   5.954
71916SOL    HW117587  13.780   4.400   6.001
71916SOL    HW217588  13.874   4.518   6.012
71917SOL     OW17589   6.831   5.670   6.805
71917SOL    HW117590   6.837   5.731   6.732
71917SOL    HW217591   6.915   5.678   6.850
71918SOL     OW17592  10.663   6.648   0.950
71918SOL    HW117593  10.601   6.579   0.973
71918SOL    HW217594  10.740   6.630   1.004
71919SOL     OW17595  10.066   8.013   0.666
71919SOL    HW117596  10.149   8.057   0.648
71919SOL    HW217597  10.041   7.972   0.583
71920SOL     OW17598   4.495   7.893   9.893
71920SOL    HW117599   4.453   7.808   9.885
71920SOL    HW217600   4.424   7.953   9.918
71921SOL     OW17601   3.603   6.262   6.511
71921SOL    HW117602   3.604   6.355   6.531
71921SOL    HW217603   3.677   6.225   6.560
71922SOL     OW17604  13.032   4.011  10.889
71922SOL    HW117605  12.940   4.011  10.916
71922SOL    HW217606  13.062   4.100  10.909
71923SOL     OW17607  13.327   9.966   0.183
71923SOL    HW117608  13.245  10.006   0.211
71923SOL    HW217609  13.325   9.971   0.088
71924SOL     OW17610   6.868  11.805   1.457
71924SOL    HW117611   6.893  11.803   1.550
71924SOL    HW217612   6.838  11.716   1.439
71925SOL     OW17613   2.273   0.513   5.096
71925SOL    HW117614   2.212   0.440   5.100
71925SOL    HW217615   2.344   0.488   5.155
71926SOL     OW17616   7.888   4.204  10.629
71926SOL    HW117617   7.941   4.223  10.706
71926SOL    HW217618   7.941   4.142  10.578
71927SOL     OW17619   1.635  10.317   2.483
71927SOL    HW117620   1.617  10.391   2.424
71927SOL    HW217621   1.686  10.355   2.554
71928SOL     OW17622  13.539   1.563   7.568
71928SOL    HW117623  13.508   1.653   7.573
71928SOL    HW217624  13.571   1.543   7.656
71929SOL     OW17625   9.151   6.203   2.401
71929SOL    HW117626   9.194   6.160   2.475
71929SOL    HW217627   9.136   6.293   2.430
71930SOL     OW17628  10.094  14.477   9.969
71930SOL    HW117629  10.060  14.501  10.055
71930SOL    HW217630  10.189  14.467   9.982
71931SOL     OW17631   8.220  11.378   6.152
71931SOL    HW117632   8.128  11.371   6.127
71931SOL    HW217633   8.265  11.401   6.072
71932SOL     OW17634   9.721  13.755   2.299
71932SOL    HW117635   9.741  13.688   2.233
71932SOL    HW217636   9.663  13.816   2.253
71933SOL     OW17637   7.743   1.138   7.391
71933SOL    HW117638   7.797   1.213   7.419
71933SOL    HW217639   7.806   1.067   7.380
71934SOL     OW17640   5.756   5.318   5.384
71934SOL    HW117641   5.823   5.364   5.333
71934SOL    HW217642   5.714   5.387   5.435
71935SOL     OW17643  11.898   0.147   4.149
71935SOL    HW117644  11.891   0.054   4.166
71935SOL    HW217645  11.848   0.161   4.068
71936SOL     OW17646   3.797   3.869   0.737
71936SOL    HW117647   3.761   3.785   0.711
71936SOL    HW217648   3.855   3.849   0.811
71937SOL     OW17649   7.747  13.206   8.131
71937SOL    HW117650   7.707  13.220   8.217
71937SOL    HW217651   7.817  13.272   8.126
71938SOL     OW17652  10.159  11.427  10.672
71938SOL    HW117653  10.071  11.406  10.641
71938SOL    HW217654  10.217  11.376  10.616
71939SOL     OW17655   2.937   7.633  12.630
71939SOL    HW117656   3.013   7.613  12.575
71939SOL    HW217657   2.958   7.718  12.669
71940SOL     OW17658  13.412   8.460   2.348
71940SOL    HW117659  13.470   8.417   2.411
71940SOL    HW217660  13.327   8.418   2.362
71941SOL     OW17661   6.714   5.106  14.319
71941SOL    HW117662   6.656   5.076  14.389
71941SOL    HW217663   6.752   5.026  14.283
71942SOL     OW17664  13.970   9.006   7.433
71942SOL    HW117665  13.923   9.028   7.513
71942SOL    HW217666  13.909   8.952   7.382
71943SOL     OW17667   9.808   5.320  11.851
71943SOL    HW117668   9.800   5.280  11.764
71943SOL    HW217669   9.896   5.358  11.852
71944SOL     OW17670   3.444   6.269  10.585
71944SOL    HW117671   3.391   6.230  10.654
71944SOL    HW217672   3.383   6.326  10.538
71945SOL     OW17673   5.379  12.804   0.999
71945SOL    HW117674   5.375  12.872   1.067
71945SOL    HW217675   5.309  12.828   0.938
71946SOL     OW17676   0.981   9.931   0.044
71946SOL    HW117677   0.945   9.948   0.131
71946SOL    HW217678   0.921   9.976  14.863
71947SOL     OW17679  12.820  10.481   5.645
71947SOL    HW117680  12.900  10.446   5.607
71947SOL    HW217681  12.750  10.430   5.605
71948SOL     OW17682  10.545   3.912   9.985
71948SOL    HW117683  10.551   3.816   9.992
71948SOL    HW217684  10.573   3.944  10.070
71949SOL     OW17685  14.830  11.981  12.169
71949SOL    HW117686  14.873  12.026  12.242
71949SOL    HW217687   0.015  11.917  12.138
71950SOL     OW17688  11.102  11.176   6.132
71950SOL    HW117689  11.061  11.168   6.046
71950SOL    HW217690  11.141  11.090   6.149
71951SOL     OW17691   2.976   6.258   1.716
71951SOL    HW117692   3.013   6.336   1.757
71951SOL    HW217693   2.900   6.290   1.667
71952SOL     OW17694   9.587  12.036  11.373
71952SOL    HW117695   9.520  12.042  11.305
71952SOL    HW217696   9.584  12.120  11.418
71953SOL     OW17697   1.977  11.712   9.879
71953SOL    HW117698   2.009  11.624   9.900
71953SOL    HW217699   2.041  11.771   9.919
71954SOL     OW17700   6.041   7.550  13.998
71954SOL    HW117701   6.099   7.595  14.060
71954SOL    HW217702   6.098   7.524  13.926
71955SOL     OW17703   7.543   3.864   7.656
71955SOL    HW117704   7.566   3.813   7.579
71955SOL    HW217705   7.620   3.859   7.712
71956SOL     OW17706  11.098   6.919   8.629
71956SOL    HW117707  11.142   6.931   8.544
71956SOL    HW217708  11.006   6.935   8.610
71957SOL     OW17709   2.182  11.141   8.432
71957SOL    HW117710   2.240  11.103   8.365
71957SOL    HW217711   2.160  11.067   8.488
71958SOL     OW17712  14.355  13.286  10.480
71958SOL    HW117713  14.323  13.353  10.540
71958SOL    HW217714  14.444  13.267  10.510
71959SOL     OW17715  10.008  13.228   4.437
71959SOL    HW117716  10.065  13.180   4.376
71959SOL    HW217717   9.999  13.169   4.512
71960SOL     OW17718  13.275   1.376   5.057
71960SOL    HW117719  13.185   1.408   5.053
71960SOL    HW217720  13.328   1.454   5.044
71961SOL     OW17721   9.252   7.356   5.902
71961SOL    HW117722   9.341   7.367   5.870
71961SOL    HW217723   9.200   7.341   5.822
71962SOL     OW17724   7.383  14.208   8.160
71962SOL    HW117725   7.304  14.185   8.111
71962SOL    HW217726   7.351  14.245   8.242
71963SOL     OW17727   7.544   7.561  11.220
71963SOL    HW117728   7.543   7.548  11.315
71963SOL    HW217729   7.567   7.653  11.208
71964SOL     OW17730   7.203   6.396  11.373
71964SOL    HW117731   7.151   6.460  11.324
71964SOL    HW217732   7.254   6.350  11.306
71965SOL     OW17733  11.884  11.079   4.204
71965SOL    HW117734  11.886  11.067   4.109
71965SOL    HW217735  11.876  10.990   4.240
71966SOL     OW17736  10.950   6.535  11.947
71966SOL    HW117737  10.999   6.593  11.888
71966SOL    HW217738  10.859   6.564  11.938
71967SOL     OW17739   1.786   2.384  14.155
71967SOL    HW117740   1.789   2.379  14.060
71967SOL    HW217741   1.738   2.305  14.182
71968SOL     OW17742   2.950   9.380   4.249
71968SOL    HW117743   2.975   9.333   4.170
71968SOL    HW217744   2.980   9.470   4.234
71969SOL     OW17745   0.644   8.304   1.543
71969SOL    HW117746   0.674   8.213   1.539
71969SOL    HW217747   0.556   8.302   1.506
71970SOL     OW17748   1.736   2.109   2.385
71970SOL    HW117749   1.717   2.198   2.356
71970SOL    HW217750   1.821   2.116   2.430
71971SOL     OW17751  14.717   8.147   9.000
71971SOL    HW117752  14.677   8.108   8.923
71971SOL    HW217753  14.707   8.241   8.988
71972SOL     OW17754   6.220   8.978   6.591
71972SOL    HW117755   6.197   8.994   6.683
71972SOL    HW217756   6.258   8.890   6.591
71973SOL     OW17757  13.953  12.626   6.296
71973SOL    HW117758  13.937  12.549   6.242
71973SOL    HW217759  14.047  12.644   6.286
71974SOL     OW17760   1.103  10.102   1.108
71974SOL    HW117761   1.098  10.007   1.119
71974SOL    HW217762   1.060  10.119   1.025
71975SOL     OW17763   1.275  10.157   5.482
71975SOL    HW117764   1.196  10.190   5.525
71975SOL    HW217765   1.346  10.182   5.541
71976SOL     OW17766   2.386   6.905   5.023
71976SOL    HW117767   2.473   6.871   5.004
71976SOL    HW217768   2.382   6.908   5.119
71977SOL     OW17769  11.880  12.397   5.466
71977SOL    HW117770  11.896  12.450   5.544
71977SOL    HW217771  11.790  12.415   5.441
71978SOL     OW17772  14.411   3.077   9.608
71978SOL    HW117773  14.388   3.156   9.658
71978SOL    HW217774  14.435   3.013   9.674
71979SOL     OW17775  10.815  10.875   9.169
71979SOL    HW117776  10.783  10.898   9.082
71979SOL    HW217777  10.760  10.925   9.229
71980SOL     OW17778   8.300   4.463   1.014
71980SOL    HW117779   8.207   4.489   1.018
71980SOL    HW217780   8.329   4.465   1.105
71981SOL     OW17781  12.592   5.666   7.239
71981SOL    HW117782  12.680   5.632   7.256
71981SOL    HW217783  12.556   5.606   7.173
71982SOL     OW17784  14.418   1.137   9.383
71982SOL    HW117785  14.342   1.192   9.363
71982SOL    HW217786  14.472   1.190   9.441
71983SOL     OW17787  12.529   1.631  13.821
71983SOL    HW117788  12.467   1.702  13.839
71983SOL    HW217789  12.507   1.602  13.732
71984SOL     OW17790  11.811  14.278   7.961
71984SOL    HW117791  11.804  14.232   8.045
71984SOL    HW217792  11.720  14.289   7.933
71985SOL     OW17793   7.956   2.503   9.207
71985SOL    HW117794   7.925   2.467   9.124
71985SOL    HW217795   8.045   2.533   9.188
71986SOL     OW17796   2.104  14.547   8.824
71986SOL    HW117797   2.057  14.547   8.907
71986SOL    HW217798   2.101  14.638   8.795
71987SOL     OW17799   6.863  13.610   3.078
71987SOL    HW117800   6.772  13.584   3.089
71987SOL    HW217801   6.885  13.584   2.989
71988SOL     OW17802  11.936   2.128   1.021
71988SOL    HW117803  11.968   2.041   0.999
71988SOL    HW217804  12.013   2.185   1.013
71989SOL     OW17805  12.552   6.760   6.614
71989SOL    HW117806  12.479   6.751   6.675
71989SOL    HW217807  12.579   6.852   6.623
71990SOL     OW17808   3.514   0.771   2.190
71990SOL    HW117809   3.564   0.703   2.234
71990SOL    HW217810   3.570   0.799   2.117
71991SOL     OW17811   8.775   4.071   6.014
71991SOL    HW117812   8.798   4.031   6.098
71991SOL    HW217813   8.836   4.144   6.004
71992SOL     OW17814  13.146   7.651  14.501
71992SOL    HW117815  13.155   7.641  14.596
71992SOL    HW217816  13.228   7.690  14.473
71993SOL     OW17817   8.251  13.406   9.022
71993SOL    HW117818   8.275  13.319   9.054
71993SOL    HW217819   8.332  13.456   9.024
71994SOL     OW17820  10.300   3.999   1.755
71994SOL    HW117821  10.372   3.940   1.777
71994SOL    HW217822  10.251   3.953   1.687
71995SOL     OW17823  13.890   7.419  10.988
71995SOL    HW117824  13.905   7.387  11.077
71995SOL    HW217825  13.840   7.500  11.000
71996SOL     OW17826   8.940   5.139   7.682
71996SOL    HW117827   8.850   5.167   7.671
71996SOL    HW217828   8.957   5.147   7.776
71997SOL     OW17829  13.521   9.421   7.617
71997SOL    HW117830  13.440   9.371   7.621
71997SOL    HW217831  13.493   9.513   7.612
71998SOL     OW17832  12.513   7.659   5.910
71998SOL    HW117833  12.474   7.715   5.978
71998SOL    HW217834  12.600   7.639   5.944
71999SOL     OW17835  10.331   2.900   3.822
71999SOL    HW117836  10.289   2.971   3.774
71999SOL    HW217837  10.367   2.843   3.754
72000SOL     OW17838   4.241   6.873  10.076
72000SOL    HW117839   4.285   6.851  10.158
72000SOL    HW217840   4.177   6.803  10.063
72001SOL     OW17841  11.069   9.015   2.336
72001SOL    HW117842  11.066   9.007   2.240
72001SOL    HW217843  11.130   9.087   2.352
72002SOL     OW17844   2.009   3.453  14.309
72002SOL    HW117845   2.046   3.419  14.228
72002SOL    HW217846   2.068   3.422  14.377
72003SOL     OW17847   1.476  11.612   2.698
72003SOL    HW117848   1.497  11.687   2.642
72003SOL    HW217849   1.557  11.560   2.699
72004SOL     OW17850  10.752   3.762   8.437
72004SOL    HW117851  10.795   3.704   8.500
72004SOL    HW217852  10.686   3.809   8.488
72005SOL     OW17853  13.708   2.005  14.022
72005SOL    HW117854  13.615   2.016  14.001
72005SOL    HW217855  13.709   1.986  14.116
72006SOL     OW17856  13.265   5.713   2.292
72006SOL    HW117857  13.203   5.685   2.225
72006SOL    HW217858  13.225   5.790   2.332
72007SOL     OW17859   9.254   9.161  14.066
72007SOL    HW117860   9.287   9.096  14.004
72007SOL    HW217861   9.316   9.234  14.059
72008SOL     OW17862   8.295   7.704  11.885
72008SOL    HW117863   8.381   7.663  11.870
72008SOL    HW217864   8.305   7.792  11.849
72009SOL     OW17865   8.713  13.654   1.957
72009SOL    HW117866   8.798  13.667   2.000
72009SOL    HW217867   8.663  13.602   2.020
72010SOL     OW17868  12.506   0.655   1.284
72010SOL    HW117869  12.518   0.617   1.370
72010SOL    HW217870  12.412   0.655   1.269
72011SOL     OW17871   6.856   1.342   9.211
72011SOL    HW117872   6.830   1.367   9.300
72011SOL    HW217873   6.842   1.421   9.159
72012SOL     OW17874   3.697  10.604   8.405
72012SOL    HW117875   3.669  10.694   8.386
72012SOL    HW217876   3.746  10.611   8.488
72013SOL     OW17877  10.784  11.281  11.325
72013SOL    HW117878  10.726  11.352  11.296
72013SOL    HW217879  10.734  11.237  11.394
72014SOL     OW17880  11.651   9.803   9.805
72014SOL    HW117881  11.606   9.866   9.748
72014SOL    HW217882  11.588   9.733   9.819
72015SOL     OW17883  13.384  10.296   4.897
72015SOL    HW117884  13.466  10.343   4.882
72015SOL    HW217885  13.355  10.324   4.983
72016SOL     OW17886   6.802   5.205  12.317
72016SOL    HW117887   6.886   5.244  12.289
72016SOL    HW217888   6.750   5.280  12.344
72017SOL     OW17889   2.102  14.437   2.961
72017SOL    HW117890   2.046  14.514   2.948
72017SOL    HW217891   2.116  14.403   2.873
72018SOL     OW17892   9.305  14.261   3.145
72018SOL    HW117893   9.212  14.278   3.165
72018SOL    HW217894   9.342  14.348   3.130
72019SOL     OW17895  13.755   0.453  11.312
72019SOL    HW117896  13.782   0.368  11.277
72019SOL    HW217897  13.660   0.444  11.325
72020SOL     OW17898  12.222   4.051   3.388
72020SOL    HW117899  12.177   3.967   3.380
72020SOL    HW217900  12.185   4.105   3.319
72021SOL     OW17901  14.766  12.731   2.216
72021SOL    HW117902  14.846  12.777   2.191
72021SOL    HW217903  14.696  12.778   2.173
72022SOL     OW17904   4.768  11.278   0.593
72022SOL    HW117905   4.687  11.274   0.645
72022SOL    HW217906   4.785  11.372   0.583
72023SOL     OW17907   0.712   8.832  12.472
72023SOL    HW117908   0.684   8.763  12.413
72023SOL    HW217909   0.799   8.858  12.441
72024SOL     OW17910   4.147   1.385  14.311
72024SOL    HW117911   4.118   1.462  14.359
72024SOL    HW217912   4.231   1.411  14.273
72025SOL     OW17913  11.661  10.526  11.225
72025SOL    HW117914  11.716  10.460  11.182
72025SOL    HW217915  11.704  10.541  11.310
72026SOL     OW17916  12.676  11.249   5.500
72026SOL    HW117917  12.668  11.196   5.579
72026SOL    HW217918  12.629  11.330   5.521
72027SOL     OW17919  14.070   7.759   3.483
72027SOL    HW117920  14.135   7.815   3.525
72027SOL    HW217921  14.120   7.682   3.454
72028SOL     OW17922   6.802   2.465   3.540
72028SOL    HW117923   6.816   2.559   3.556
72028SOL    HW217924   6.711   2.450   3.564
72029SOL     OW17925   3.239   1.730   7.713
72029SOL    HW117926   3.269   1.641   7.734
72029SOL    HW217927   3.143   1.722   7.709
72030SOL     OW17928   4.912   9.038   8.834
72030SOL    HW117929   4.864   8.976   8.779
72030SOL    HW217930   4.865   9.121   8.824
72031SOL     OW17931  14.201   6.813   6.337
72031SOL    HW117932  14.174   6.901   6.361
72031SOL    HW217933  14.292   6.822   6.308
72032SOL     OW17934  11.335   0.963   5.727
72032SOL    HW117935  11.275   0.914   5.784
72032SOL    HW217936  11.402   0.899   5.703
72033SOL     OW17937   2.996   5.638   5.120
72033SOL    HW117938   2.986   5.574   5.191
72033SOL    HW217939   2.914   5.634   5.071
72034SOL     OW17940   5.337   2.170  13.572
72034SOL    HW117941   5.365   2.166  13.663
72034SOL    HW217942   5.365   2.256  13.541
72035SOL     OW17943  13.310  11.329  13.863
72035SOL    HW117944  13.355  11.393  13.808
72035SOL    HW217945  13.337  11.351  13.952
72036SOL     OW17946   5.469  10.385   6.196
72036SOL    HW117947   5.552  10.431   6.205
72036SOL    HW217948   5.426  10.428   6.123
72037SOL     OW17949  12.999   9.934   9.855
72037SOL    HW117950  12.961  10.019   9.834
72037SOL    HW217951  12.931   9.890   9.907
72038SOL     OW17952   2.828   1.828   4.883
72038SOL    HW117953   2.777   1.868   4.953
72038SOL    HW217954   2.915   1.817   4.920
72039SOL     OW17955   7.165   2.057   1.428
72039SOL    HW117956   7.166   1.979   1.372
72039SOL    HW217957   7.073   2.069   1.450
72040SOL     OW17958   3.772  13.737   5.053
72040SOL    HW117959   3.718  13.663   5.083
72040SOL    HW217960   3.858  13.699   5.039
72041SOL     OW17961   5.391   8.080   4.154
72041SOL    HW117962   5.423   8.168   4.138
72041SOL    HW217963   5.303   8.092   4.189
72042SOL     OW17964   2.247   4.334  13.603
72042SOL    HW117965   2.161   4.355  13.568
72042SOL    HW217966   2.229   4.283  13.682
72043SOL     OW17967  12.572   2.137   8.110
72043SOL    HW117968  12.549   2.224   8.080
72043SOL    HW217969  12.538   2.133   8.199
72044SOL     OW17970  11.240   3.204  13.209
72044SOL    HW117971  11.292   3.258  13.150
72044SOL    HW217972  11.263   3.236  13.296
72045SOL     OW17973   4.047  13.079   1.233
72045SOL    HW117974   3.977  13.015   1.218
72045SOL    HW217975   4.126  13.036   1.202
72046SOL     OW17976   9.503  10.259   1.075
72046SOL    HW117977   9.496  10.169   1.045
72046SOL    HW217978   9.582  10.293   1.032
72047SOL     OW17979   1.888   1.326   7.378
72047SOL    HW117980   1.915   1.405   7.330
72047SOL    HW217981   1.805   1.351   7.420
72048SOL     OW17982  12.002  10.590   0.146
72048SOL    HW117983  11.947  10.635   0.210
72048SOL    HW217984  12.032  10.511   0.192
72049SOL     OW17985   1.087   6.297   4.072
72049SOL    HW117986   1.005   6.250   4.088
72049SOL    HW217987   1.063   6.364   4.008
72050SOL     OW17988   1.914   8.605  14.193
72050SOL    HW117989   1.905   8.685  14.245
72050SOL    HW217990   1.915   8.635  14.102
72051SOL     OW17991   0.612   0.441  14.254
72051SOL    HW117992   0.675   0.499  14.296
72051SOL    HW217993   0.543   0.500  14.223
72052SOL     OW17994   2.575   3.691   0.131
72052SOL    HW117995   2.485   3.679   0.161
72052SOL    HW217996   2.628   3.645   0.196
72053SOL     OW17997   8.092   4.576  10.064
72053SOL    HW117998   8.103   4.618  10.149
72053SOL    HW217999   8.179   4.579  10.024
72054SOL     OW18000   9.150  11.891   8.198
72054SOL    HW118001   9.183  11.973   8.163
72054SOL    HW218002   9.061  11.911   8.227
72055SOL     OW18003   9.834   3.156  10.099
72055SOL    HW118004   9.895   3.186  10.167
72055SOL    HW218005   9.811   3.235  10.051
72056SOL     OW18006   2.235   1.449   8.356
72056SOL    HW118007   2.223   1.479   8.446
72056SOL    HW218008   2.165   1.386   8.342
72057SOL     OW18009   6.391   1.869   8.554
72057SOL    HW118010   6.390   1.898   8.645
72057SOL    HW218011   6.306   1.897   8.519
72058SOL     OW18012   8.341   0.936   7.049
72058SOL    HW118013   8.311   0.907   7.135
72058SOL    HW218014   8.262   0.966   7.005
72059SOL     OW18015   9.957  14.326   0.031
72059SOL    HW118016  10.027  14.358  14.852
72059SOL    HW218017   9.996  14.328   0.118
72060SOL     OW18018  14.191   2.042   6.776
72060SOL    HW118019  14.138   1.964   6.760
72060SOL    HW218020  14.269   2.010   6.821
72061SOL     OW18021   1.542   1.196   7.424
72061SOL    HW118022   1.566   1.166   7.512
72061SOL    HW218023   1.605   1.264   7.404
72062SOL     OW18024  13.213   8.148   1.020
72062SOL    HW118025  13.173   8.082   0.964
72062SOL    HW218026  13.263   8.098   1.084
72063SOL     OW18027   5.132   9.659   8.721
72063SOL    HW118028   5.048   9.614   8.725
72063SOL    HW218029   5.151   9.667   8.627
72064SOL     OW18030   0.943   3.475   4.133
72064SOL    HW118031   0.969   3.493   4.223
72064SOL    HW218032   0.864   3.528   4.120
72065SOL     OW18033   5.833   1.837  13.075
72065SOL    HW118034   5.751   1.824  13.123
72065SOL    HW218035   5.820   1.792  12.992
72066SOL     OW18036  13.273  14.843  13.233
72066SOL    HW118037  13.362  14.835  13.266
72066SOL    HW218038  13.220  14.863  13.310
72067SOL     OW18039   1.742   7.137   9.565
72067SOL    HW118040   1.826   7.160   9.525
72067SOL    HW218041   1.762   7.124   9.658
72068SOL     OW18042  11.085   0.956   9.080
72068SOL    HW118043  11.079   0.927   8.989
72068SOL    HW218044  11.034   1.037   9.083
72069SOL     OW18045   6.596   4.447   6.502
72069SOL    HW118046   6.588   4.449   6.407
72069SOL    HW218047   6.507   4.457   6.534
72070SOL     OW18048  10.806  13.268   5.609
72070SOL    HW118049  10.739  13.336   5.615
72070SOL    HW218050  10.790  13.225   5.526
72071SOL     OW18051   7.337   0.175  12.519
72071SOL    HW118052   7.340   0.083  12.545
72071SOL    HW218053   7.428   0.197  12.498
72072SOL     OW18054   2.691   5.460   1.132
72072SOL    HW118055   2.647   5.393   1.184
72072SOL    HW218056   2.766   5.415   1.093
72073SOL     OW18057   0.959   3.053  14.212
72073SOL    HW118058   0.897   3.125  14.217
72073SOL    HW218059   0.905   2.976  14.193
72074SOL     OW18060  10.991   0.774   7.585
72074SOL    HW118061  11.055   0.785   7.655
72074SOL    HW218062  10.912   0.743   7.630
72075SOL     OW18063  11.677   5.618   3.156
72075SOL    HW118064  11.658   5.652   3.243
72075SOL    HW218065  11.620   5.669   3.098
72076SOL     OW18066   9.664   1.845  11.914
72076SOL    HW118067   9.601   1.913  11.939
72076SOL    HW218068   9.740   1.862  11.969
72077SOL     OW18069   9.385  13.653   0.891
72077SOL    HW118070   9.313  13.650   0.829
72077SOL    HW218071   9.343  13.658   0.977
72078SOL     OW18072   6.550  13.180   1.108
72078SOL    HW118073   6.458  13.185   1.081
72078SOL    HW218074   6.597  13.155   1.029
72079SOL     OW18075   8.425   9.477  14.863
72079SOL    HW118076   8.380   9.412  14.809
72079SOL    HW218077   8.447   9.548  14.802
72080SOL     OW18078  11.721   0.400   8.566
72080SOL    HW118079  11.636   0.360   8.581
72080SOL    HW218080  11.770   0.380   8.646
72081SOL     OW18081   5.065   7.531  11.925
72081SOL    HW118082   5.050   7.438  11.908
72081SOL    HW218083   4.989   7.575  11.886
72082SOL     OW18084   2.851  11.216   1.226
72082SOL    HW118085   2.822  11.223   1.135
72082SOL    HW218086   2.802  11.285   1.272
72083SOL     OW18087   7.241   0.705   6.018
72083SOL    HW118088   7.222   0.711   5.924
72083SOL    HW218089   7.226   0.794   6.051
72084SOL     OW18090   3.701   8.391   8.196
72084SOL    HW118091   3.674   8.454   8.263
72084SOL    HW218092   3.796   8.403   8.189
72085SOL     OW18093  14.680  11.324   5.690
72085SOL    HW118094  14.766  11.341   5.652
72085SOL    HW218095  14.632  11.406   5.676
72086SOL     OW18096   3.315   4.856   8.298
72086SOL    HW118097   3.335   4.914   8.371
72086SOL    HW218098   3.340   4.905   8.220
72087SOL     OW18099   8.059   0.038   1.924
72087SOL    HW118100   8.103  14.839   1.957
72087SOL    HW218101   7.974   0.039   1.969
72088SOL     OW18102   2.285   6.865   2.193
72088SOL    HW118103   2.335   6.943   2.172
72088SOL    HW218104   2.195   6.885   2.166
72089SOL     OW18105  11.187  12.545   4.859
72089SOL    HW118106  11.249  12.568   4.790
72089SOL    HW218107  11.236  12.488   4.917
72090SOL     OW18108   1.648  10.930   6.023
72090SOL    HW118109   1.574  10.880   6.057
72090SOL    HW218110   1.644  10.917   5.928
72091SOL     OW18111   5.804  12.011   2.730
72091SOL    HW118112   5.876  11.964   2.773
72091SOL    HW218113   5.793  11.966   2.646
72092SOL     OW18114  12.073   0.342  12.858
72092SOL    HW118115  12.096   0.425  12.898
72092SOL    HW218116  11.977   0.337  12.867
72093SOL     OW18117  11.827   3.277   7.567
72093SOL    HW118118  11.778   3.319   7.496
72093SOL    HW218119  11.811   3.332   7.644
72094SOL     OW18120  14.057   2.728   5.890
72094SOL    HW118121  14.076   2.687   5.975
72094SOL    HW218122  14.041   2.820   5.912
72095SOL     OW18123   4.631   8.820  14.679
72095SOL    HW118124   4.717   8.817  14.721
72095SOL    HW218125   4.634   8.898  14.624
72096SOL     OW18126   9.037  10.532   2.493
72096SOL    HW118127   9.035  10.459   2.431
72096SOL    HW218128   9.128  10.561   2.493
72097SOL     OW18129   4.104  11.149   5.154
72097SOL    HW118130   4.102  11.187   5.241
72097SOL    HW218131   4.195  11.162   5.125
72098SOL     OW18132   7.604   9.167  10.100
72098SOL    HW118133   7.669   9.107  10.138
72098SOL    HW218134   7.531   9.166  10.163
72099SOL     OW18135  13.616   7.128  10.071
72099SOL    HW118136  13.608   7.206  10.017
72099SOL    HW218137  13.702   7.092  10.050
72100SOL     OW18138  14.076  10.726   1.296
72100SOL    HW118139  14.114  10.676   1.223
72100SOL    HW218140  14.133  10.706   1.370
72101SOL     OW18141   3.451   9.145  12.282
72101SOL    HW118142   3.438   9.056  12.315
72101SOL    HW218143   3.383   9.156  12.216
72102SOL     OW18144  13.639   6.746   0.530
72102SOL    HW118145  13.707   6.704   0.583
72102SOL    HW218146  13.686   6.804   0.471
72103SOL     OW18147   5.646   1.257   6.605
72103SOL    HW118148   5.617   1.249   6.696
72103SOL    HW218149   5.719   1.319   6.608
72104SOL     OW18150   9.420   6.836  13.987
72104SOL    HW118151   9.494   6.780  13.961
72104SOL    HW218152   9.351   6.775  14.012
72105SOL     OW18153   1.414   4.488   0.144
72105SOL    HW118154   1.479   4.512   0.077
72105SOL    HW218155   1.457   4.418   0.194
72106SOL     OW18156   3.031  13.406  13.415
72106SOL    HW118157   3.069  13.478  13.365
72106SOL    HW218158   2.994  13.448  13.493
72107SOL     OW18159   7.125   2.879   5.195
72107SOL    HW118160   7.179   2.839   5.126
72107SOL    HW218161   7.062   2.811   5.219
72108SOL     OW18162   0.404   6.808   6.408
72108SOL    HW118163   0.406   6.712   6.412
72108SOL    HW218164   0.399   6.835   6.500
72109SOL     OW18165  13.514  12.102   3.821
72109SOL    HW118166  13.424  12.071   3.811
72109SOL    HW218167  13.522  12.173   3.757
72110SOL     OW18168   8.088   5.934  12.038
72110SOL    HW118169   8.101   5.839  12.030
72110SOL    HW218170   8.017   5.943  12.102
72111SOL     OW18171   2.517   6.078  11.440
72111SOL    HW118172   2.465   6.005  11.409
72111SOL    HW218173   2.607   6.047  11.435
72112SOL     OW18174   4.671   5.415  10.283
72112SOL    HW118175   4.601   5.462  10.330
72112SOL    HW218176   4.748   5.424  10.339
72113SOL     OW18177   0.914   4.143   7.393
72113SOL    HW118178   0.861   4.146   7.472
72113SOL    HW218179   0.854   4.170   7.323
72114SOL     OW18180   2.981  14.076   0.769
72114SOL    HW118181   2.999  14.070   0.862
72114SOL    HW218182   3.015  13.994   0.733
72115SOL     OW18183   0.844   3.042   9.157
72115SOL    HW118184   0.764   2.989   9.164
72115SOL    HW218185   0.913   2.979   9.139
72116SOL     OW18186  11.159  11.557   4.550
72116SOL    HW118187  11.079  11.542   4.601
72116SOL    HW218188  11.138  11.526   4.462
72117SOL     OW18189  13.918   0.649   4.629
72117SOL    HW118190  13.827   0.655   4.658
72117SOL    HW218191  13.918   0.691   4.543
72118SOL     OW18192  12.661  12.037   9.053
72118SOL    HW118193  12.705  11.977   9.114
72118SOL    HW218194  12.573  12.000   9.042
72119SOL     OW18195   1.191  11.136  12.011
72119SOL    HW118196   1.146  11.217  11.985
72119SOL    HW218197   1.243  11.112  11.934
72120SOL     OW18198   9.904   5.086   7.791
72120SOL    HW118199   9.861   5.167   7.817
72120SOL    HW218200   9.849   5.017   7.828
72121SOL     OW18201   3.727  14.363  14.573
72121SOL    HW118202   3.741  14.354  14.479
72121SOL    HW218203   3.633  14.373  14.583
72122SOL     OW18204   0.158  11.953   8.538
72122SOL    HW118205   0.165  11.938   8.633
72122SOL    HW218206   0.075  11.912   8.514
72123SOL     OW18207  12.696   6.457   7.060
72123SOL    HW118208  12.790   6.475   7.066
72123SOL    HW218209  12.671   6.428   7.147
72124SOL     OW18210   6.561  12.195  14.556
72124SOL    HW118211   6.531  12.226  14.471
72124SOL    HW218212   6.628  12.259  14.582
72125SOL     OW18213   3.656   7.124   7.618
72125SOL    HW118214   3.579   7.084   7.657
72125SOL    HW218215   3.627   7.154   7.532
72126SOL     OW18216   5.947   0.073   5.905
72126SOL    HW118217   5.863   0.108   5.874
72126SOL    HW218218   6.006   0.085   5.830
72127SOL     OW18219  11.324  10.154  11.005
72127SOL    HW118220  11.418  10.139  11.014
72127SOL    HW218221  11.312  10.245  11.032
72128SOL     OW18222   2.140   6.076   1.624
72128SOL    HW118223   2.113   6.078   1.533
72128SOL    HW218224   2.216   6.018   1.626
72129SOL     OW18225  12.081   4.233   8.603
72129SOL    HW118226  12.155   4.203   8.548
72129SOL    HW218227  12.044   4.152   8.638
72130SOL     OW18228   2.277   0.962   6.401
72130SOL    HW118229   2.274   1.058   6.391
72130SOL    HW218230   2.368   0.942   6.419
72131SOL     OW18231   0.541  13.522  11.935
72131SOL    HW118232   0.475  13.554  11.997
72131SOL    HW218233   0.540  13.587  11.865
72132SOL     OW18234  10.210   3.108   9.688
72132SOL    HW118235  10.241   3.076   9.773
72132SOL    HW218236  10.271   3.180   9.667
72133SOL     OW18237  11.999   2.026   1.571
72133SOL    HW118238  12.055   2.016   1.647
72133SOL    HW218239  11.926   2.081   1.601
72134SOL     OW18240   9.938   4.419   8.784
72134SOL    HW118241   9.894   4.490   8.830
72134SOL    HW218242  10.018   4.404   8.834
72135SOL     OW18243  11.393   0.618  13.349
72135SOL    HW118244  11.414   0.530  13.378
72135SOL    HW218245  11.460   0.674  13.388
72136SOL     OW18246   6.358   6.501  14.332
72136SOL    HW118247   6.328   6.482  14.421
72136SOL    HW218248   6.283   6.478  14.276
72137SOL     OW18249   0.637   1.964   3.791
72137SOL    HW118250   0.563   1.937   3.735
72137SOL    HW218251   0.708   1.980   3.729
72138SOL     OW18252   5.230   5.129  12.585
72138SOL    HW118253   5.162   5.066  12.606
72138SOL    HW218254   5.224   5.195  12.655
72139SOL     OW18255   2.378   7.291   1.886
72139SOL    HW118256   2.416   7.336   1.810
72139SOL    HW218257   2.400   7.199   1.872
72140SOL     OW18258  14.104   4.351   2.448
72140SOL    HW118259  14.032   4.302   2.489
72140SOL    HW218260  14.133   4.294   2.377
72141SOL     OW18261   9.765  13.407   6.645
72141SOL    HW118262   9.857  13.401   6.672
72141SOL    HW218263   9.739  13.317   6.628
72142SOL     OW18264   4.424  14.144  10.045
72142SOL    HW118265   4.467  14.069  10.004
72142SOL    HW218266   4.454  14.220   9.995
72143SOL     OW18267   9.821  11.152   5.386
72143SOL    HW118268   9.760  11.079   5.379
72143SOL    HW218269   9.783  11.209   5.453
72144SOL     OW18270   2.421   4.790   2.558
72144SOL    HW118271   2.416   4.716   2.619
72144SOL    HW218272   2.468   4.858   2.607
72145SOL     OW18273   3.851   3.360   9.235
72145SOL    HW118274   3.822   3.368   9.326
72145SOL    HW218275   3.947   3.369   9.240
72146SOL     OW18276  12.783   5.169   8.406
72146SOL    HW118277  12.773   5.172   8.501
72146SOL    HW218278  12.875   5.191   8.391
72147SOL     OW18279   4.333  12.605  14.529
72147SOL    HW118280   4.357  12.685  14.575
72147SOL    HW218281   4.355  12.623  14.437
72148SOL     OW18282   5.898  12.543  14.732
72148SOL    HW118283   5.885  12.620  14.676
72148SOL    HW218284   5.939  12.578  14.812
72149SOL     OW18285   7.931   6.945  13.349
72149SOL    HW118286   7.971   6.858  13.353
72149SOL    HW218287   7.840   6.929  13.323
72150SOL     OW18288   1.506   8.137   5.834
72150SOL    HW118289   1.577   8.197   5.816
72150SOL    HW218290   1.524   8.061   5.778
72151SOL     OW18291   2.744   0.110   2.385
72151SOL    HW118292   2.814   0.046   2.397
72151SOL    HW218293   2.717   0.134   2.474
72152SOL     OW18294   6.659   0.724  12.678
72152SOL    HW118295   6.685   0.639  12.713
72152SOL    HW218296   6.737   0.778  12.685
72153SOL     OW18297   8.340   7.106   5.693
72153SOL    HW118298   8.372   7.190   5.726
72153SOL    HW218299   8.289   7.070   5.766
72154SOL     OW18300   5.077  12.218   9.516
72154SOL    HW118301   5.097  12.205   9.423
72154SOL    HW218302   5.163  12.228   9.557
72155SOL     OW18303   8.456   3.656   4.500
72155SOL    HW118304   8.449   3.564   4.474
72155SOL    HW218305   8.368   3.691   4.488
72156SOL     OW18306   1.580   4.308   2.729
72156SOL    HW118307   1.622   4.227   2.700
72156SOL    HW218308   1.608   4.319   2.820
72157SOL     OW18309  12.009  14.291   8.592
72157SOL    HW118310  12.011  14.216   8.650
72157SOL    HW218311  12.101  14.313   8.576
72158SOL     OW18312   2.139   8.247   1.525
72158SOL    HW118313   2.097   8.285   1.602
72158SOL    HW218314   2.067   8.228   1.465
72159SOL     OW18315  14.018   8.518   6.182
72159SOL    HW118316  14.036   8.429   6.210
72159SOL    HW218317  14.008   8.511   6.087
72160SOL     OW18318   8.297  10.514   3.879
72160SOL    HW118319   8.208  10.500   3.910
72160SOL    HW218320   8.288  10.547   3.790
72161SOL     OW18321  11.421   7.321   8.974
72161SOL    HW118322  11.416   7.281   8.887
72161SOL    HW218323  11.473   7.400   8.961
72162SOL     OW18324  12.561   2.473  11.908
72162SOL    HW118325  12.503   2.443  11.838
72162SOL    HW218326  12.512   2.541  11.953
72163SOL     OW18327   5.915  10.750   9.197
72163SOL    HW118328   5.919  10.770   9.103
72163SOL    HW218329   6.007  10.735   9.222
72164SOL     OW18330   9.163   0.872   7.393
72164SOL    HW118331   9.106   0.932   7.344
72164SOL    HW218332   9.243   0.922   7.409
72165SOL     OW18333  10.213   9.283  11.804
72165SOL    HW118334  10.307   9.269  11.796
72165SOL    HW218335  10.182   9.290  11.714
72166SOL     OW18336   5.986  10.108  10.445
72166SOL    HW118337   5.913  10.148  10.398
72166SOL    HW218338   6.064  10.146  10.405
72167SOL     OW18339   2.165   3.555   8.269
72167SOL    HW118340   2.122   3.595   8.345
72167SOL    HW218341   2.115   3.587   8.194
72168SOL     OW18342   5.441   8.241   4.639
72168SOL    HW118343   5.514   8.303   4.645
72168SOL    HW218344   5.363   8.296   4.631
72169SOL     OW18345  11.851  13.047  10.896
72169SOL    HW118346  11.882  12.989  10.966
72169SOL    HW218347  11.795  12.992  10.842
72170SOL     OW18348   1.964  14.048   7.410
72170SOL    HW118349   1.912  14.052   7.490
72170SOL    HW218350   1.934  13.967   7.367
72171SOL     OW18351   2.735  12.319   8.241
72171SOL    HW118352   2.745  12.224   8.240
72171SOL    HW218353   2.643  12.333   8.262
72172SOL     OW18354   0.826   7.696  14.578
72172SOL    HW118355   0.738   7.717  14.545
72172SOL    HW218356   0.841   7.758  14.649
72173SOL     OW18357  13.374   3.329  11.223
72173SOL    HW118358  13.457   3.373  11.243
72173SOL    HW218359  13.307   3.383  11.265
72174SOL     OW18360   2.861   7.989   1.506
72174SOL    HW118361   2.779   7.946   1.482
72174SOL    HW218362   2.870   7.971   1.600
72175SOL     OW18363   9.116   2.233  14.468
72175SOL    HW118364   9.164   2.151  14.482
72175SOL    HW218365   9.024   2.206  14.465
72176SOL     OW18366   1.054   8.748  10.455
72176SOL    HW118367   1.035   8.680  10.390
72176SOL    HW218368   0.979   8.746  10.514
72177SOL     OW18369  12.626   6.875  13.934
72177SOL    HW118370  12.583   6.863  14.019
72177SOL    HW218371  12.668   6.962  13.940
72178SOL     OW18372   7.520  13.325  12.928
72178SOL    HW118373   7.471  13.245  12.908
72178SOL    HW218374   7.610  13.305  12.903
72179SOL     OW18375  10.924   9.258  11.637
72179SOL    HW118376  10.831   9.277  11.649
72179SOL    HW218377  10.951   9.217  11.719
72180SOL     OW18378   2.513  12.131   1.148
72180SOL    HW118379   2.517  12.119   1.243
72180SOL    HW218380   2.573  12.065   1.113
72181SOL     OW18381   8.457   6.842   6.564
72181SOL    HW118382   8.396   6.863   6.493
72181SOL    HW218383   8.443   6.910   6.629
72182SOL     OW18384   9.553   3.389   2.330
72182SOL    HW118385   9.496   3.354   2.261
72182SOL    HW218386   9.505   3.464   2.364
72183SOL     OW18387  14.801   4.132   6.298
72183SOL    HW118388  14.763   4.096   6.378
72183SOL    HW218389  14.753   4.089   6.227
72184SOL     OW18390  14.352  13.837   3.022
72184SOL    HW118391  14.288  13.866   2.957
72184SOL    HW218392  14.426  13.804   2.970
72185SOL     OW18393   8.358  11.371   2.920
72185SOL    HW118394   8.346  11.463   2.942
72185SOL    HW218395   8.298  11.356   2.846
72186SOL     OW18396  14.286   9.061  11.935
72186SOL    HW118397  14.207   9.115  11.947
72186SOL    HW218398  14.254   8.981  11.895
72187SOL     OW18399   5.458   1.023   8.473
72187SOL    HW118400   5.524   1.006   8.540
72187SOL    HW218401   5.376   0.990   8.510
72188SOL     OW18402   0.504   1.046   6.397
72188SOL    HW118403   0.431   1.008   6.348
72188SOL    HW218404   0.463   1.110   6.455
72189SOL     OW18405  13.986   5.238   6.486
72189SOL    HW118406  13.926   5.313   6.487
72189SOL    HW218407  14.052   5.261   6.420
72190SOL     OW18408  10.671  12.254   9.843
72190SOL    HW118409  10.579  12.242   9.823
72190SOL    HW218410  10.691  12.185   9.906
72191SOL     OW18411  13.376   1.358   1.156
72191SOL    HW118412  13.399   1.437   1.107
72191SOL    HW218413  13.429   1.289   1.117
72192SOL     OW18414  14.079  12.945  12.632
72192SOL    HW118415  13.991  12.959  12.598
72192SOL    HW218416  14.066  12.893  12.712
72193SOL     OW18417   5.730   7.752   4.835
72193SOL    HW118418   5.792   7.708   4.777
72193SOL    HW218419   5.672   7.683   4.865
72194SOL     OW18420   4.895   8.133   9.987
72194SOL    HW118421   4.948   8.083  10.050
72194SOL    HW218422   4.877   8.215  10.032
72195SOL     OW18423   5.533   8.523   8.690
72195SOL    HW118424   5.579   8.577   8.625
72195SOL    HW218425   5.476   8.585   8.735
72196SOL     OW18426   0.736  13.570  12.532
72196SOL    HW118427   0.664  13.545  12.589
72196SOL    HW218428   0.726  13.664  12.520
72197SOL     OW18429   7.305   3.163   4.740
72197SOL    HW118430   7.234   3.137   4.680
72197SOL    HW218431   7.364   3.088   4.742
72198SOL     OW18432   1.931  13.214  13.374
72198SOL    HW118433   2.017  13.255  13.385
72198SOL    HW218434   1.937  13.169  13.289
72199SOL     OW18435   1.742  10.676   1.522
72199SOL    HW118436   1.684  10.718   1.459
72199SOL    HW218437   1.692  10.602   1.556
72200SOL     OW18438   9.650   3.885   6.696
72200SOL    HW118439   9.706   3.862   6.621
72200SOL    HW218440   9.569   3.835   6.681
72201SOL     OW18441  10.527   9.674   5.307
72201SOL    HW118442  10.499   9.664   5.216
72201SOL    HW218443  10.621   9.660   5.305
72202SOL     OW18444   5.778   8.969   1.174
72202SOL    HW118445   5.725   8.889   1.178
72202SOL    HW218446   5.855   8.944   1.122
72203SOL     OW18447   0.106   2.346  13.959
72203SOL    HW118448   0.134   2.255  13.966
72203SOL    HW218449   0.186   2.397  13.973
72204SOL     OW18450   0.743  14.071   4.297
72204SOL    HW118451   0.829  14.029   4.297
72204SOL    HW218452   0.695  14.029   4.226
72205SOL     OW18453   6.276   1.897  13.302
72205SOL    HW118454   6.207   1.846  13.259
72205SOL    HW218455   6.315   1.949  13.233
72206SOL     OW18456  10.149   0.830   9.212
72206SOL    HW118457  10.067   0.833   9.261
72206SOL    HW218458  10.217   0.832   9.278
72207SOL     OW18459   7.521   8.914  14.359
72207SOL    HW118460   7.513   8.848  14.428
72207SOL    HW218461   7.538   8.863  14.279
72208SOL     OW18462   2.942   5.859   3.688
72208SOL    HW118463   3.016   5.797   3.687
72208SOL    HW218464   2.907   5.854   3.599
72209SOL     OW18465  10.133   8.282   8.922
72209SOL    HW118466  10.151   8.312   9.011
72209SOL    HW218467  10.136   8.362   8.869
72210SOL     OW18468   0.001   3.721  11.005
72210SOL    HW118469   0.080   3.748  10.958
72210SOL    HW218470  14.815   3.788  10.981
72211SOL     OW18471  11.836  13.284   7.052
72211SOL    HW118472  11.829  13.301   7.146
72211SOL    HW218473  11.757  13.236   7.029
72212SOL     OW18474   3.744  10.197   7.841
72212SOL    HW118475   3.725  10.126   7.902
72212SOL    HW218476   3.804  10.254   7.889
72213SOL     OW18477   5.754  11.431   9.223
72213SOL    HW118478   5.795  11.381   9.152
72213SOL    HW218479   5.686  11.373   9.257
72214SOL     OW18480  12.217  12.334   6.440
72214SOL    HW118481  12.274  12.358   6.513
72214SOL    HW218482  12.171  12.415   6.419
72215SOL     OW18483   1.920   2.994  13.692
72215SOL    HW118484   1.855   3.057  13.663
72215SOL    HW218485   1.969   2.972  13.613
72216SOL     OW18486   2.677  11.492   9.919
72216SOL    HW118487   2.718  11.437   9.852
72216SOL    HW218488   2.682  11.581   9.883
72217SOL     OW18489   9.014   8.228   8.303
72217SOL    HW118490   8.959   8.187   8.371
72217SOL    HW218491   8.951   8.270   8.244
72218SOL     OW18492   4.599   1.895   9.392
72218SOL    HW118493   4.629   1.906   9.482
72218SOL    HW218494   4.539   1.968   9.377
72219SOL     OW18495   2.209   3.879   3.266
72219SOL    HW118496   2.117   3.876   3.239
72219SOL    HW218497   2.227   3.790   3.298
72220SOL     OW18498  11.150   5.815   6.387
72220SOL    HW118499  11.234   5.837   6.347
72220SOL    HW218500  11.146   5.868   6.466
72221SOL     OW18501  13.832   1.235   7.626
72221SOL    HW118502  13.844   1.140   7.618
72221SOL    HW218503  13.752   1.245   7.678
72222SOL     OW18504  13.710  13.923   1.016
72222SOL    HW118505  13.648  13.970   0.960
72222SOL    HW218506  13.747  13.991   1.072
72223SOL     OW18507  10.781   3.905   6.236
72223SOL    HW118508  10.778   3.894   6.141
72223SOL    HW218509  10.692   3.887   6.265
72224SOL     OW18510  12.094   0.370   2.543
72224SOL    HW118511  12.019   0.312   2.558
72224SOL    HW218512  12.123   0.349   2.454
72225SOL     OW18513  12.514  12.356   3.829
72225SOL    HW118514  12.531  12.442   3.791
72225SOL    HW218515  12.454  12.313   3.768
72226SOL     OW18516   6.422   7.818   6.498
72226SOL    HW118517   6.427   7.857   6.585
72226SOL    HW218518   6.328   7.804   6.483
72227SOL     OW18519   5.839  13.442   9.014
72227SOL    HW118520   5.779  13.375   8.981
72227SOL    HW218521   5.920  13.428   8.965
72228SOL     OW18522   3.835  14.328   5.850
72228SOL    HW118523   3.849  14.233   5.848
72228SOL    HW218524   3.757  14.340   5.904
72229SOL     OW18525   1.219  13.424  11.395
72229SOL    HW118526   1.239  13.336  11.364
72229SOL    HW218527   1.131  13.443  11.362
72230SOL     OW18528   7.613   1.533  13.884
72230SOL    HW118529   7.652   1.556  13.800
72230SOL    HW218530   7.635   1.441  13.896
72231SOL     OW18531  13.859   4.152  10.911
72231SOL    HW118532  13.797   4.084  10.887
72231SOL    HW218533  13.882   4.194  10.829
72232SOL     OW18534   3.902  10.509   1.366
72232SOL    HW118535   3.986  10.554   1.360
72232SOL    HW218536   3.837  10.577   1.349
72233SOL     OW18537   8.847   3.053  11.726
72233SOL    HW118538   8.792   3.104  11.785
72233SOL    HW218539   8.784   3.010  11.666
72234SOL     OW18540  11.914   0.454   3.855
72234SOL    HW118541  11.999   0.420   3.829
72234SOL    HW218542  11.895   0.522   3.791
72235SOL     OW18543  13.916   9.188  14.596
72235SOL    HW118544  13.965   9.132  14.657
72235SOL    HW218545  13.824   9.175  14.621
72236SOL     OW18546   4.001  11.446  13.786
72236SOL    HW118547   3.991  11.496  13.705
72236SOL    HW218548   4.068  11.381  13.766
72237SOL     OW18549   2.882  13.325  10.378
72237SOL    HW118550   2.862  13.341  10.470
72237SOL    HW218551   2.943  13.395  10.354
72238SOL     OW18552   3.806   8.334   8.896
72238SOL    HW118553   3.714   8.313   8.878
72238SOL    HW218554   3.803   8.418   8.941
72239SOL     OW18555   0.955   4.985   7.598
72239SOL    HW118556   0.903   4.950   7.526
72239SOL    HW218557   0.950   4.918   7.666
72240SOL     OW18558   7.815   3.203   5.039
72240SOL    HW118559   7.736   3.179   5.087
72240SOL    HW218560   7.827   3.133   4.975
72241SOL     OW18561  10.012   5.111   8.583
72241SOL    HW118562  10.032   5.120   8.676
72241SOL    HW218563  10.098   5.118   8.540
72242SOL     OW18564   8.740   2.608  13.491
72242SOL    HW118565   8.801   2.679  13.471
72242SOL    HW218566   8.676   2.647  13.550
72243SOL     OW18567  11.606   7.085   3.004
72243SOL    HW118568  11.574   7.005   3.046
72243SOL    HW218569  11.617   7.061   2.912
72244SOL     OW18570  11.386   0.580   9.795
72244SOL    HW118571  11.304   0.618   9.764
72244SOL    HW218572  11.420   0.645   9.857
72245SOL     OW18573  12.986  11.536   7.468
72245SOL    HW118574  12.901  11.494   7.457
72245SOL    HW218575  13.000  11.537   7.563
72246SOL     OW18576  10.348  11.578  11.363
72246SOL    HW118577  10.380  11.550  11.277
72246SOL    HW218578  10.294  11.505  11.394
72247SOL     OW18579  11.085  10.832   4.403
72247SOL    HW118580  11.138  10.910   4.424
72247SOL    HW218581  11.057  10.846   4.313
72248SOL     OW18582  10.786   8.404   0.440
72248SOL    HW118583  10.765   8.401   0.533
72248SOL    HW218584  10.830   8.321   0.422
72249SOL     OW18585  12.388   0.133  14.219
72249SOL    HW118586  12.430   0.161  14.300
72249SOL    HW218587  12.374   0.039  14.231
72250SOL     OW18588   3.236   9.507   8.653
72250SOL    HW118589   3.308   9.446   8.671
72250SOL    HW218590   3.246   9.528   8.560
72251SOL     OW18591   2.347  12.957   7.227
72251SOL    HW118592   2.267  12.924   7.268
72251SOL    HW218593   2.400  12.878   7.213
72252SOL     OW18594  12.024   4.684   3.035
72252SOL    HW118595  12.043   4.662   2.944
72252SOL    HW218596  12.009   4.779   3.034
72253SOL     OW18597   6.891  13.692   0.579
72253SOL    HW118598   6.939  13.611   0.563
72253SOL    HW218599   6.892  13.702   0.674
72254SOL     OW18600   1.979   4.308  12.949
72254SOL    HW118601   1.982   4.327  12.855
72254SOL    HW218602   2.024   4.224  12.958
72255SOL     OW18603  12.276  14.548   5.725
72255SOL    HW118604  12.250  14.524   5.813
72255SOL    HW218605  12.337  14.621   5.737
72256SOL     OW18606   6.361   9.725   8.785
72256SOL    HW118607   6.284   9.747   8.838
72256SOL    HW218608   6.324   9.698   8.700
72257SOL     OW18609   7.848   8.863  13.891
72257SOL    HW118610   7.942   8.880  13.884
72257SOL    HW218611   7.819   8.849  13.800
72258SOL     OW18612  14.841   2.803   7.231
72258SOL    HW118613   0.050   2.771   7.215
72258SOL    HW218614  14.852   2.871   7.298
72259SOL     OW18615   9.340  12.732  13.796
72259SOL    HW118616   9.419  12.776  13.766
72259SOL    HW218617   9.324  12.664  13.730
72260SOL     OW18618   5.657  11.711  14.287
72260SOL    HW118619   5.593  11.702  14.217
72260SOL    HW218620   5.630  11.788  14.336
72261SOL     OW18621   6.497  12.121  13.423
72261SOL    HW118622   6.436  12.052  13.396
72261SOL    HW218623   6.531  12.156  13.340
72262SOL     OW18624   5.537   3.285   3.459
72262SOL    HW118625   5.619   3.253   3.496
72262SOL    HW218626   5.500   3.209   3.414
72263SOL     OW18627  14.737   1.913   4.497
72263SOL    HW118628  14.720   1.916   4.591
72263SOL    HW218629  14.701   1.829   4.469
72264SOL     OW18630   1.869   8.763   1.263
72264SOL    HW118631   1.869   8.733   1.354
72264SOL    HW218632   1.953   8.808   1.252
72265SOL     OW18633   4.024   0.331  10.337
72265SOL    HW118634   4.024   0.346  10.432
72265SOL    HW218635   3.993   0.241  10.328
72266SOL     OW18636   6.729   7.460   4.150
72266SOL    HW118637   6.780   7.537   4.128
72266SOL    HW218638   6.656   7.493   4.202
72267SOL     OW18639   1.415   7.224   6.898
72267SOL    HW118640   1.458   7.153   6.945
72267SOL    HW218641   1.391   7.288   6.965
72268SOL     OW18642  12.718   4.115   0.227
72268SOL    HW118643  12.696   4.082   0.314
72268SOL    HW218644  12.759   4.041   0.182
72269SOL     OW18645   8.310   3.218  11.855
72269SOL    HW118646   8.348   3.131  11.865
72269SOL    HW218647   8.267   3.216  11.770
72270SOL     OW18648   7.038   6.775  12.429
72270SOL    HW118649   7.121   6.732  12.411
72270SOL    HW218650   6.972   6.706  12.420
72271SOL     OW18651  11.908   8.926   1.447
72271SOL    HW118652  11.922   8.980   1.525
72271SOL    HW218653  11.992   8.883   1.432
72272SOL     OW18654  13.266   8.210   9.798
72272SOL    HW118655  13.285   8.267   9.872
72272SOL    HW218656  13.201   8.149   9.831
72273SOL     OW18657  13.149  13.834   0.791
72273SOL    HW118658  13.176  13.865   0.877
72273SOL    HW218659  13.102  13.908   0.753
72274SOL     OW18660   5.156  10.112  10.635
72274SOL    HW118661   5.209  10.035  10.650
72274SOL    HW218662   5.211  10.170  10.581
72275SOL     OW18663   2.865   9.538   9.101
72275SOL    HW118664   2.939   9.479   9.113
72275SOL    HW218665   2.902   9.616   9.059
72276SOL     OW18666   6.758   3.852  10.231
72276SOL    HW118667   6.675   3.848  10.279
72276SOL    HW218668   6.744   3.921  10.166
72277SOL     OW18669   8.197   5.571  11.219
72277SOL    HW118670   8.237   5.509  11.280
72277SOL    HW218671   8.162   5.641  11.275
72278SOL     OW18672   4.814  11.291   7.066
72278SOL    HW118673   4.909  11.300   7.081
72278SOL    HW218674   4.785  11.379   7.045
72279SOL     OW18675   4.643   1.818   6.872
72279SOL    HW118676   4.643   1.788   6.781
72279SOL    HW218677   4.551   1.823   6.896
72280SOL     OW18678  11.204   1.253  13.653
72280SOL    HW118679  11.214   1.269  13.559
72280SOL    HW218680  11.277   1.299  13.694
72281SOL     OW18681   1.110  12.613   7.199
72281SOL    HW118682   1.040  12.643   7.141
72281SOL    HW218683   1.099  12.665   7.278
72282SOL     OW18684  13.760   7.106   0.501
72282SOL    HW118685  13.794   7.019   0.521
72282SOL    HW218686  13.826   7.146   0.446
72283SOL     OW18687   6.143   2.918   5.613
72283SOL    HW118688   6.116   2.856   5.546
72283SOL    HW218689   6.161   2.999   5.566
72284SOL     OW18690  12.402   2.099   1.634
72284SOL    HW118691  12.422   2.015   1.676
72284SOL    HW218692  12.417   2.083   1.541
72285SOL     OW18693  12.234   3.625   0.878
72285SOL    HW118694  12.176   3.660   0.945
72285SOL    HW218695  12.256   3.537   0.909
72286SOL     OW18696  10.797   1.321   5.170
72286SOL    HW118697  10.722   1.378   5.185
72286SOL    HW218698  10.864   1.380   5.134
72287SOL     OW18699   9.084   5.538  14.136
72287SOL    HW118700   9.095   5.532  14.231
72287SOL    HW218701   8.991   5.521  14.122
72288SOL     OW18702   1.355   5.541   3.435
72288SOL    HW118703   1.359   5.491   3.354
72288SOL    HW218704   1.331   5.477   3.502
72289SOL     OW18705   0.273  11.077   6.933
72289SOL    HW118706   0.279  11.168   6.905
72289SOL    HW218707   0.228  11.081   7.018
72290SOL     OW18708   1.750   5.024  13.203
72290SOL    HW118709   1.767   5.116  13.223
72290SOL    HW218710   1.816   4.976  13.254
72291SOL     OW18711   7.110   4.995  13.896
72291SOL    HW118712   7.195   4.984  13.939
72291SOL    HW218713   7.110   5.086  13.866
72292SOL     OW18714   5.452   9.395  10.419
72292SOL    HW118715   5.364   9.432  10.420
72292SOL    HW218716   5.463   9.361  10.330
72293SOL     OW18717   0.162   5.962   8.066
72293SOL    HW118718   0.136   5.997   7.981
72293SOL    HW218719   0.111   6.013   8.130
72294SOL     OW18720  13.707   7.043  11.112
72294SOL    HW118721  13.730   7.028  11.203
72294SOL    HW218722  13.792   7.051  11.067
72295SOL     OW18723   9.952   2.092  11.826
72295SOL    HW118724  10.011   2.093  11.901
72295SOL    HW218725   9.866   2.114  11.862
72296SOL     OW18726   9.465  14.517  14.097
72296SOL    HW118727   9.524  14.520  14.173
72296SOL    HW218728   9.488  14.437  14.052
72297SOL     OW18729   4.996   7.986  11.764
72297SOL    HW118730   4.901   7.978  11.771
72297SOL    HW218731   5.015   7.970  11.672
72298SOL     OW18732   4.523   0.600   1.272
72298SOL    HW118733   4.483   0.606   1.185
72298SOL    HW218734   4.464   0.651   1.329
72299SOL     OW18735   5.621   5.959   2.614
72299SOL    HW118736   5.528   5.957   2.637
72299SOL    HW218737   5.633   5.883   2.557
72300SOL     OW18738   9.812  12.613  10.673
72300SOL    HW118739   9.827  12.609  10.768
72300SOL    HW218740   9.832  12.704  10.650
72301SOL     OW18741  11.723   6.423   4.061
72301SOL    HW118742  11.662   6.350   4.061
72301SOL    HW218743  11.746   6.435   4.153
72302SOL     OW18744   5.763   3.353   5.556
72302SOL    HW118745   5.727   3.417   5.494
72302SOL    HW218746   5.688   3.328   5.610
72303SOL     OW18747   8.440   5.548  10.583
72303SOL    HW118748   8.371   5.550  10.649
72303SOL    HW218749   8.516   5.514  10.629
72304SOL     OW18750   9.720   5.671   9.330
72304SOL    HW118751   9.784   5.739   9.353
72304SOL    HW218752   9.694   5.692   9.241
72305SOL     OW18753  11.719   1.292   0.372
72305SOL    HW118754  11.770   1.267   0.449
72305SOL    HW218755  11.630   1.306   0.406
72306SOL     OW18756   7.758  10.610  11.416
72306SOL    HW118757   7.676  10.573  11.383
72306SOL    HW218758   7.730  10.674  11.482
72307SOL     OW18759  13.270   3.832  11.003
72307SOL    HW118760  13.181   3.868  10.997
72307SOL    HW218761  13.327   3.908  10.991
72308SOL     OW18762  11.419  13.276  11.157
72308SOL    HW118763  11.438  13.255  11.248
72308SOL    HW218764  11.505  13.288  11.117
72309SOL     OW18765  11.064  12.845  14.062
72309SOL    HW118766  11.038  12.762  14.022
72309SOL    HW218767  11.159  12.848  14.053
72310SOL     OW18768   1.982   1.978   1.092
72310SOL    HW118769   1.933   2.058   1.074
72310SOL    HW218770   1.929   1.908   1.055
72311SOL     OW18771   1.215   7.375   3.072
72311SOL    HW118772   1.131   7.350   3.034
72311SOL    HW218773   1.203   7.467   3.098
72312SOL     OW18774  14.385  13.116   4.331
72312SOL    HW118775  14.436  13.166   4.396
72312SOL    HW218776  14.303  13.164   4.323
72313SOL     OW18777  13.645  10.846   7.784
72313SOL    HW118778  13.713  10.848   7.716
72313SOL    HW218779  13.681  10.896   7.857
72314SOL     OW18780   5.736  11.240   0.925
72314SOL    HW118781   5.776  11.272   1.006
72314SOL    HW218782   5.714  11.320   0.877
72315SOL     OW18783  10.837   8.736   2.967
72315SOL    HW118784  10.863   8.695   3.050
72315SOL    HW218785  10.747   8.764   2.982
72316SOL     OW18786  13.420   8.749   6.006
72316SOL    HW118787  13.476   8.795   6.068
72316SOL    HW218788  13.341   8.727   6.055
72317SOL     OW18789  12.573   0.750  14.639
72317SOL    HW118790  12.557   0.716  14.551
72317SOL    HW218791  12.485   0.766  14.674
72318SOL     OW18792   4.566   4.364   3.431
72318SOL    HW118793   4.519   4.315   3.364
72318SOL    HW218794   4.510   4.440   3.449
72319SOL     OW18795  12.099  13.880  13.698
72319SOL    HW118796  12.080  13.924  13.615
72319SOL    HW218797  12.187  13.909  13.721
72320SOL     OW18798  13.518   3.146  13.552
72320SOL    HW118799  13.519   3.112  13.642
72320SOL    HW218800  13.598   3.199  13.546
72321SOL     OW18801  11.241   6.134  13.030
72321SOL    HW118802  11.291   6.105  12.954
72321SOL    HW218803  11.150   6.117  13.006
72322SOL     OW18804   0.600   5.729   5.945
72322SOL    HW118805   0.630   5.639   5.945
72322SOL    HW218806   0.510   5.724   5.913
72323SOL     OW18807  10.776   1.157   3.065
72323SOL    HW118808  10.741   1.161   2.976
72323SOL    HW218809  10.818   1.071   3.070
72324SOL     OW18810   0.547   0.907  12.252
72324SOL    HW118811   0.526   0.823  12.294
72324SOL    HW218812   0.478   0.966  12.282
72325SOL     OW18813   2.853   8.956  10.273
72325SOL    HW118814   2.917   8.950  10.344
72325SOL    HW218815   2.876   8.884  10.214
72326SOL     OW18816   6.185   0.673   3.143
72326SOL    HW118817   6.167   0.752   3.091
72326SOL    HW218818   6.151   0.693   3.230
72327SOL     OW18819   8.989   9.732   4.243
72327SOL    HW118820   9.060   9.753   4.181
72327SOL    HW218821   8.916   9.705   4.187
72328SOL     OW18822   9.504  12.709   0.383
72328SOL    HW118823   9.426  12.738   0.430
72328SOL    HW218824   9.473  12.643   0.321
72329SOL     OW18825   3.798  10.956  14.723
72329SOL    HW118826   3.780  10.938  14.815
72329SOL    HW218827   3.882  11.002  14.723
72330SOL     OW18828  14.414   2.197   5.576
72330SOL    HW118829  14.469   2.234   5.646
72330SOL    HW218830  14.433   2.251   5.499
72331SOL     OW18831   4.033   2.177  13.341
72331SOL    HW118832   4.018   2.136  13.426
72331SOL    HW218833   3.962   2.241  13.332
72332SOL     OW18834   3.202   4.369   6.723
72332SOL    HW118835   3.278   4.419   6.694
72332SOL    HW218836   3.240   4.287   6.757
72333SOL     OW18837   5.709   7.444   8.637
72333SOL    HW118838   5.746   7.429   8.550
72333SOL    HW218839   5.686   7.357   8.668
72334SOL     OW18840  10.175   0.182   3.932
72334SOL    HW118841  10.256   0.156   3.888
72334SOL    HW218842  10.117   0.106   3.921
72335SOL     OW18843   4.968   4.878  14.765
72335SOL    HW118844   4.873   4.889  14.769
72335SOL    HW218845   5.002   4.951  14.817
72336SOL     OW18846  14.860   2.393  14.316
72336SOL    HW118847   0.040   2.456  14.357
72336SOL    HW218848   0.038   2.327  14.279
72337SOL     OW18849  14.623   9.981  13.046
72337SOL    HW118850  14.555   9.919  13.076
72337SOL    HW218851  14.618  10.053  13.108
72338SOL     OW18852   8.898  13.907   7.249
72338SOL    HW118853   8.804  13.922   7.254
72338SOL    HW218854   8.923  13.881   7.338
72339SOL     OW18855  13.991   4.620  14.685
72339SOL    HW118856  13.951   4.537  14.660
72339SOL    HW218857  14.081   4.615  14.651
72340SOL     OW18858   1.387   2.205   5.130
72340SOL    HW118859   1.372   2.149   5.206
72340SOL    HW218860   1.425   2.285   5.165
72341SOL     OW18861  10.299   1.418   7.462
72341SOL    HW118862  10.316   1.398   7.553
72341SOL    HW218863  10.210   1.453   7.461
72342SOL     OW18864  10.665   2.331  14.400
72342SOL    HW118865  10.571   2.316  14.414
72342SOL    HW218866  10.683   2.414  14.444
72343SOL     OW18867   9.160  11.952   4.852
72343SOL    HW118868   9.067  11.953   4.875
72343SOL    HW218869   9.161  11.935   4.758
72344SOL     OW18870   7.510   8.622   2.203
72344SOL    HW118871   7.507   8.581   2.289
72344SOL    HW218872   7.534   8.713   2.222
72345SOL     OW18873   8.312   9.130   7.926
72345SOL    HW118874   8.302   9.175   7.843
72345SOL    HW218875   8.234   9.154   7.976
72346SOL     OW18876  12.049   2.671   3.865
72346SOL    HW118877  12.060   2.590   3.816
72346SOL    HW218878  12.107   2.662   3.940
72347SOL     OW18879   9.983   4.741   4.144
72347SOL    HW118880   9.977   4.707   4.233
72347SOL    HW218881   9.892   4.747   4.114
72348SOL     OW18882  12.043  12.558   4.779
72348SOL    HW118883  12.019  12.642   4.742
72348SOL    HW218884  11.963  12.505   4.772
72349SOL     OW18885  13.422   0.673  10.203
72349SOL    HW118886  13.368   0.611  10.252
72349SOL    HW218887  13.404   0.758  10.243
72350SOL     OW18888  13.722  11.422  12.017
72350SOL    HW118889  13.654  11.468  12.067
72350SOL    HW218890  13.676  11.387  11.941
72351SOL     OW18891   4.758  12.577   7.261
72351SOL    HW118892   4.741  12.649   7.200
72351SOL    HW218893   4.760  12.499   7.206
72352SOL     OW18894   4.451   3.923   2.594
72352SOL    HW118895   4.544   3.902   2.587
72352SOL    HW218896   4.440   4.002   2.541
72353SOL     OW18897  13.309   2.207   2.774
72353SOL    HW118898  13.331   2.230   2.684
72353SOL    HW218899  13.214   2.210   2.777
72354SOL     OW18900  13.233  12.109   7.246
72354SOL    HW118901  13.169  12.067   7.302
72354SOL    HW218902  13.315  12.062   7.262
72355SOL     OW18903   3.722   9.507   6.616
72355SOL    HW118904   3.714   9.439   6.549
72355SOL    HW218905   3.671   9.474   6.690
72356SOL     OW18906  12.684   0.139  14.129
72356SOL    HW118907  12.716   0.083  14.200
72356SOL    HW218908  12.665   0.223  14.170
72357SOL     OW18909   7.001   6.004   9.446
72357SOL    HW118910   7.019   6.026   9.537
72357SOL    HW218911   7.046   6.073   9.396
72358SOL     OW18912   7.334  13.620  11.311
72358SOL    HW118913   7.250  13.618  11.265
72358SOL    HW218914   7.392  13.669  11.253
72359SOL     OW18915   2.668  14.750   2.122
72359SOL    HW118916   2.611  14.702   2.063
72359SOL    HW218917   2.752  14.756   2.075
72360SOL     OW18918  10.541   9.300   1.894
72360SOL    HW118919  10.481   9.374   1.884
72360SOL    HW218920  10.509   9.235   1.831
72361SOL     OW18921   0.002   6.848   6.938
72361SOL    HW118922   0.016   6.855   6.843
72361SOL    HW218923   0.020   6.936   6.971
72362SOL     OW18924   0.375  10.790  13.000
72362SOL    HW118925   0.409  10.702  13.018
72362SOL    HW218926   0.287  10.775  12.964
72363SOL     OW18927   5.499   8.975  14.170
72363SOL    HW118928   5.419   9.004  14.214
72363SOL    HW218929   5.494   9.013  14.083
72364SOL     OW18930   6.137   5.211   4.071
72364SOL    HW118931   6.086   5.248   4.143
72364SOL    HW218932   6.090   5.238   3.992
72365SOL     OW18933  13.940   8.921  13.027
72365SOL    HW118934  13.865   8.916  12.968
72365SOL    HW218935  13.992   8.843  13.007
72366SOL     OW18936   7.445   7.165   2.391
72366SOL    HW118937   7.428   7.132   2.479
72366SOL    HW218938   7.469   7.257   2.404
72367SOL     OW18939  11.935   1.085   0.354
72367SOL    HW118940  11.874   1.099   0.282
72367SOL    HW218941  11.908   1.001   0.391
72368SOL     OW18942  14.545   3.468  13.886
72368SOL    HW118943  14.627   3.515  13.870
72368SOL    HW218944  14.568   3.401  13.950
72369SOL     OW18945   0.823  13.956  12.241
72369SOL    HW118946   0.859  13.867  12.237
72369SOL    HW218947   0.744  13.953  12.188
72370SOL     OW18948   8.164   7.588   3.132
72370SOL    HW118949   8.250   7.622   3.158
72370SOL    HW218950   8.152   7.510   3.186
72371SOL     OW18951  13.423   5.035  10.514
72371SOL    HW118952  13.410   5.045  10.609
72371SOL    HW218953  13.485   5.105  10.491
72372SOL     OW18954   4.647  14.665   6.431
72372SOL    HW118955   4.573  14.724   6.445
72372SOL    HW218956   4.651  14.612   6.510
72373SOL     OW18957   9.388   2.953  12.403
72373SOL    HW118958   9.459   2.987  12.349
72373SOL    HW218959   9.354   3.029  12.449
72374SOL     OW18960  11.767   9.309   3.536
72374SOL    HW118961  11.715   9.308   3.617
72374SOL    HW218962  11.807   9.396   3.535
72375SOL     OW18963   5.785   1.660   2.881
72375SOL    HW118964   5.780   1.566   2.900
72375SOL    HW218965   5.843   1.695   2.949
72376SOL     OW18966   4.241   1.907   7.118
72376SOL    HW118967   4.146   1.914   7.123
72376SOL    HW218968   4.265   1.851   7.193
72377SOL     OW18969  10.671   8.440  14.570
72377SOL    HW118970  10.608   8.371  14.591
72377SOL    HW218971  10.617   8.514  14.542
72378SOL     OW18972   8.486   3.509  11.141
72378SOL    HW118973   8.491   3.593  11.095
72378SOL    HW218974   8.572   3.500  11.183
72379SOL     OW18975   0.501  10.520  14.043
72379SOL    HW118976   0.467  10.605  14.068
72379SOL    HW218977   0.530  10.531  13.953
72380SOL     OW18978  10.685   7.694   3.235
72380SOL    HW118979  10.693   7.603   3.207
72380SOL    HW218980  10.773   7.731   3.223
72381SOL     OW18981   7.564   9.827  10.113
72381SOL    HW118982   7.657   9.820  10.137
72381SOL    HW218983   7.564   9.821  10.018
72382SOL     OW18984   2.748  11.563   0.708
72382SOL    HW118985   2.776  11.595   0.794
72382SOL    HW218986   2.808  11.490   0.689
72383SOL     OW18987   8.263   8.848   9.530
72383SOL    HW118988   8.300   8.926   9.574
72383SOL    HW218989   8.257   8.874   9.438
72384SOL     OW18990   5.635   8.896   6.212
72384SOL    HW118991   5.592   8.912   6.296
72384SOL    HW218992   5.581   8.942   6.148
72385SOL     OW18993   2.748   3.054   5.559
72385SOL    HW118994   2.716   3.049   5.468
72385SOL    HW218995   2.829   3.104   5.553
72386SOL     OW18996  12.683   9.117   5.931
72386SOL    HW118997  12.639   9.047   5.979
72386SOL    HW218998  12.759   9.139   5.984
72387SOL     OW18999  11.797   7.283   2.469
72387SOL    HW119000  11.826   7.194   2.450
72387SOL    HW219001  11.722   7.273   2.528
72388SOL     OW19002   1.199   9.448   5.295
72388SOL    HW119003   1.164   9.444   5.206
72388SOL    HW219004   1.293   9.464   5.284
72389SOL     OW19005  14.345   3.812   3.252
72389SOL    HW119006  14.399   3.822   3.174
72389SOL    HW219007  14.408   3.821   3.325
72390SOL     OW19008  10.232  10.804   6.997
72390SOL    HW119009  10.289  10.849   6.935
72390SOL    HW219010  10.271  10.820   7.082
72391SOL     OW19011   3.995  14.685  11.846
72391SOL    HW119012   3.962  14.746  11.781
72391SOL    HW219013   3.951  14.710  11.927
72392SOL     OW19014   2.774  13.302  14.469
72392SOL    HW119015   2.680  13.308  14.453
72392SOL    HW219016   2.800  13.218  14.432
72393SOL     OW19017   5.054   4.349   5.156
72393SOL    HW119018   5.103   4.273   5.188
72393SOL    HW219019   5.102   4.425   5.190
72394SOL     OW19020  10.402   0.207   9.217
72394SOL    HW119021  10.354   0.126   9.199
72394SOL    HW219022  10.379   0.229   9.307
72395SOL     OW19023   9.795   4.101   7.980
72395SOL    HW119024   9.703   4.083   8.000
72395SOL    HW219025   9.839   4.094   8.065
72396SOL     OW19026  14.783   9.647   6.957
72396SOL    HW119027  14.726   9.693   7.018
72396SOL    HW219028  14.726   9.582   6.914
72397SOL     OW19029   4.826  11.051   4.467
72397SOL    HW119030   4.907  11.034   4.515
72397SOL    HW219031   4.774  11.105   4.526
72398SOL     OW19032   0.425   0.638   5.977
72398SOL    HW119033   0.508   0.648   6.023
72398SOL    HW219034   0.382   0.723   5.986
72399SOL     OW19035   3.306  13.468   4.167
72399SOL    HW119036   3.343  13.542   4.216
72399SOL    HW219037   3.374  13.401   4.169
72400SOL     OW19038   7.916   1.188   8.814
72400SOL    HW119039   7.881   1.125   8.751
72400SOL    HW219040   7.957   1.256   8.761
72401SOL     OW19041   1.695  14.442  10.127
72401SOL    HW119042   1.605  14.409  10.121
72401SOL    HW219043   1.745  14.368  10.162
72402SOL     OW19044   5.754   7.679  14.242
72402SOL    HW119045   5.738   7.640  14.328
72402SOL    HW219046   5.739   7.607  14.180
72403SOL     OW19047   8.750   9.416  14.755
72403SOL    HW119048   8.823   9.358  14.776
72403SOL    HW219049   8.776   9.460  14.675
72404SOL     OW19050   3.485  10.848   1.682
72404SOL    HW119051   3.513  10.922   1.628
72404SOL    HW219052   3.404  10.818   1.642
72405SOL     OW19053   2.436   4.039   0.694
72405SOL    HW119054   2.395   4.115   0.653
72405SOL    HW219055   2.423   3.968   0.632
72406SOL     OW19056   4.599  11.336   4.998
72406SOL    HW119057   4.603  11.408   4.936
72406SOL    HW219058   4.600  11.257   4.944
72407SOL     OW19059  13.094   1.286   3.318
72407SOL    HW119060  13.170   1.227   3.319
72407SOL    HW219061  13.062   1.283   3.228
72408SOL     OW19062  13.057   0.849   2.443
72408SOL    HW119063  13.088   0.903   2.516
72408SOL    HW219064  12.987   0.795   2.481
72409SOL     OW19065   9.181   9.020   8.370
72409SOL    HW119066   9.211   9.110   8.364
72409SOL    HW219067   9.242   8.978   8.432
72410SOL     OW19068  14.413   2.572   7.325
72410SOL    HW119069  14.414   2.602   7.234
72410SOL    HW219070  14.342   2.621   7.365
72411SOL     OW19071   0.433   1.762   3.989
72411SOL    HW119072   0.477   1.845   4.006
72411SOL    HW219073   0.499   1.708   3.947
72412SOL     OW19074   2.883   4.522   0.800
72412SOL    HW119075   2.792   4.532   0.829
72412SOL    HW219076   2.882   4.443   0.745
72413SOL     OW19077   0.018  12.326   8.671
72413SOL    HW119078  14.846  12.292   8.597
72413SOL    HW219079  14.832  12.359   8.732
72414SOL     OW19080   2.156   8.079   1.120
72414SOL    HW119081   2.135   8.006   1.062
72414SOL    HW219082   2.127   8.050   1.206
72415SOL     OW19083   9.877  13.112  11.177
72415SOL    HW119084   9.910  13.178  11.239
72415SOL    HW219085   9.930  13.124  11.099
72416SOL     OW19086  13.215   5.059   9.459
72416SOL    HW119087  13.189   5.151   9.457
72416SOL    HW219088  13.296   5.056   9.409
72417SOL     OW19089  12.652   2.560  11.458
72417SOL    HW119090  12.714   2.563  11.384
72417SOL    HW219091  12.704   2.587  11.534
72418SOL     OW19092   0.892  12.362   0.024
72418SOL    HW119093   0.846  12.382  14.822
72418SOL    HW219094   0.898  12.447   0.068
72419SOL     OW19095   9.265  14.498  10.065
72419SOL    HW119096   9.276  14.580  10.016
72419SOL    HW219097   9.307  14.431  10.011
72420SOL     OW19098  10.097  10.456   1.087
72420SOL    HW119099  10.015  10.466   1.136
72420SOL    HW219100  10.161  10.429   1.153
72421SOL     OW19101   0.776   2.771   2.600
72421SOL    HW119102   0.827   2.846   2.631
72421SOL    HW219103   0.751   2.794   2.510
72422SOL     OW19104   9.830   8.528   5.814
72422SOL    HW119105   9.848   8.527   5.908
72422SOL    HW219106   9.783   8.446   5.798
72423SOL     OW19107  12.809  14.250   2.412
72423SOL    HW119108  12.778  14.332   2.449
72423SOL    HW219109  12.888  14.229   2.463
72424SOL     OW19110   0.163   5.502  10.571
72424SOL    HW119111   0.227   5.507  10.641
72424SOL    HW219112   0.130   5.412  10.575
72425SOL     OW19113  14.072   4.501   2.043
72425SOL    HW119114  14.128   4.506   1.966
72425SOL    HW219115  14.073   4.590   2.079
72426SOL     OW19116  14.130   8.090  14.879
72426SOL    HW119117  14.217   8.120  14.851
72426SOL    HW219118  14.125   8.112   0.092
72427SOL     OW19119   8.569  10.629   6.960
72427SOL    HW119120   8.629  10.678   6.905
72427SOL    HW219121   8.499  10.601   6.900
72428SOL     OW19122  10.715   4.380  12.719
72428SOL    HW119123  10.751   4.292  12.735
72428SOL    HW219124  10.751   4.433  12.790
72429SOL     OW19125   7.228  12.613   5.155
72429SOL    HW119126   7.156  12.555   5.129
72429SOL    HW219127   7.186  12.692   5.187
72430SOL     OW19128  12.133  14.207   5.852
72430SOL    HW119129  12.134  14.128   5.907
72430SOL    HW219130  12.194  14.188   5.781
72431SOL     OW19131   3.255   7.130  11.484
72431SOL    HW119132   3.234   7.200  11.422
72431SOL    HW219133   3.238   7.168  11.570
72432SOL     OW19134  13.497   4.467  12.298
72432SOL    HW119135  13.532   4.407  12.232
72432SOL    HW219136  13.434   4.414  12.347
72433SOL     OW19137   2.484   6.609  12.027
72433SOL    HW119138   2.532   6.534  12.062
72433SOL    HW219139   2.405   6.614  12.080
72434SOL     OW19140   1.557   4.147   8.293
72434SOL    HW119141   1.608   4.223   8.265
72434SOL    HW219142   1.621   4.076   8.302
72435SOL     OW19143   6.239   6.715  13.226
72435SOL    HW119144   6.296   6.674  13.161
72435SOL    HW219145   6.286   6.704  13.309
72436SOL     OW19146   1.732   5.793  14.151
72436SOL    HW119147   1.790   5.795  14.075
72436SOL    HW219148   1.649   5.762  14.116
72437SOL     OW19149   9.732  13.350   8.331
72437SOL    HW119150   9.722  13.255   8.336
72437SOL    HW219151   9.816  13.362   8.286
72438SOL     OW19152  10.702  12.158  10.799
72438SOL    HW119153  10.729  12.200  10.717
72438SOL    HW219154  10.624  12.205  10.826
72439SOL     OW19155   7.573  14.771  13.805
72439SOL    HW119156   7.606  14.852  13.765
72439SOL    HW219157   7.479  14.772  13.785
72440SOL     OW19158   8.169   7.722   6.803
72440SOL    HW119159   8.195   7.723   6.711
72440SOL    HW219160   8.241   7.678   6.848
72441SOL     OW19161   7.091   4.081  10.173
72441SOL    HW119162   7.032   4.035  10.113
72441SOL    HW219163   7.062   4.172  10.172
72442SOL     OW19164  14.416  10.094   2.518
72442SOL    HW119165  14.335  10.143   2.529
72442SOL    HW219166  14.431  10.094   2.423
72443SOL     OW19167  12.347   0.967  13.816
72443SOL    HW119168  12.429   0.943  13.773
72443SOL    HW219169  12.364   0.951  13.909
72444SOL     OW19170  11.728   7.701  14.749
72444SOL    HW119171  11.683   7.654  14.679
72444SOL    HW219172  11.777   7.632  14.795
72445SOL     OW19173   6.627   7.082   8.936
72445SOL    HW119174   6.554   7.131   8.898
72445SOL    HW219175   6.589   7.039   9.013
72446SOL     OW19176   8.897  13.903   8.304
72446SOL    HW119177   8.901  13.962   8.379
72446SOL    HW219178   8.829  13.939   8.248
72447SOL     OW19179   4.793   5.841   4.221
72447SOL    HW119180   4.822   5.788   4.147
72447SOL    HW219181   4.779   5.928   4.184
72448SOL     OW19182  14.838  12.848   4.750
72448SOL    HW119183   0.037  12.889   4.712
72448SOL    HW219184  14.845  12.756   4.726
72449SOL     OW19185   5.260  10.526   3.752
72449SOL    HW119186   5.247  10.543   3.845
72449SOL    HW219187   5.327  10.590   3.726
72450SOL     OW19188   0.574  12.674   6.547
72450SOL    HW119189   0.603  12.588   6.516
72450SOL    HW219190   0.510  12.655   6.616
72451SOL     OW19191  10.142   1.246  12.736
72451SOL    HW119192  10.065   1.198  12.705
72451SOL    HW219193  10.106   1.319  12.785
72452SOL     OW19194   6.111   1.569  11.635
72452SOL    HW119195   6.165   1.582  11.712
72452SOL    HW219196   6.023   1.554  11.670
72453SOL     OW19197  14.504  13.049   5.114
72453SOL    HW119198  14.422  13.000   5.124
72453SOL    HW219199  14.568  12.999   5.165
72454SOL     OW19200   0.008  11.601   7.560
72454SOL    HW119201   0.053  11.633   7.482
72454SOL    HW219202  14.800  11.639   7.555
72455SOL     OW19203   5.125   1.872   2.293
72455SOL    HW119204   5.207   1.855   2.341
72455SOL    HW219205   5.057   1.866   2.360
72456SOL     OW19206   8.767   4.858  11.640
72456SOL    HW119207   8.860   4.875  11.625
72456SOL    HW219208   8.730   4.847  11.553
72457SOL     OW19209   8.056   8.748   7.139
72457SOL    HW119210   8.078   8.792   7.057
72457SOL    HW219211   8.078   8.656   7.125
72458SOL     OW19212  12.198  11.050   4.065
72458SOL    HW119213  12.212  10.987   4.136
72458SOL    HW219214  12.123  11.017   4.017
72459SOL     OW19215   7.409   3.939   7.171
72459SOL    HW119216   7.448   4.006   7.115
72459SOL    HW219217   7.398   3.863   7.113
72460SOL     OW19218   6.689  11.925   7.089
72460SOL    HW119219   6.656  11.850   7.138
72460SOL    HW219220   6.631  11.932   7.013
72461SOL     OW19221   6.655   2.842  10.710
72461SOL    HW119222   6.564   2.845  10.682
72461SOL    HW219223   6.665   2.918  10.767
72462SOL     OW19224   7.683   9.971  13.092
72462SOL    HW119225   7.751   9.920  13.136
72462SOL    HW219226   7.694   9.951  12.999
72463SOL     OW19227  14.311   3.698   2.786
72463SOL    HW119228  14.328   3.787   2.756
72463SOL    HW219229  14.228   3.704   2.833
72464SOL     OW19230   5.470   7.597   5.418
72464SOL    HW119231   5.559   7.580   5.450
72464SOL    HW219232   5.441   7.674   5.467
72465SOL     OW19233  10.584   1.666   7.693
72465SOL    HW119234  10.548   1.744   7.734
72465SOL    HW219235  10.530   1.594   7.727
72466SOL     OW19236   4.249   2.029   5.432
72466SOL    HW119237   4.324   2.024   5.372
72466SOL    HW219238   4.222   2.121   5.429
72467SOL     OW19239   0.897  13.454   7.629
72467SOL    HW119240   0.969  13.486   7.684
72467SOL    HW219241   0.920  13.363   7.610
72468SOL     OW19242  13.258   4.010   6.627
72468SOL    HW119243  13.248   4.074   6.556
72468SOL    HW219244  13.181   3.953   6.618
72469SOL     OW19245   7.424   6.920  13.255
72469SOL    HW119246   7.373   7.000  13.267
72469SOL    HW219247   7.362   6.858  13.216
72470SOL     OW19248   1.373  12.536   9.799
72470SOL    HW119249   1.417  12.451   9.792
72470SOL    HW219250   1.353  12.560   9.709
72471SOL     OW19251   8.793   0.475  13.715
72471SOL    HW119252   8.812   0.419  13.791
72471SOL    HW219253   8.748   0.551  13.753
72472SOL     OW19254  14.516  12.725   4.836
72472SOL    HW119255  14.430  12.721   4.878
72472SOL    HW219256  14.512  12.804   4.783
72473SOL     OW19257   0.088   9.043   4.675
72473SOL    HW119258   0.054   8.959   4.646
72473SOL    HW219259   0.181   9.041   4.650
72474SOL     OW19260  14.246   1.797  14.107
72474SOL    HW119261  14.210   1.880  14.139
72474SOL    HW219262  14.178   1.762  14.049
72475SOL     OW19263   1.653  13.579   5.423
72475SOL    HW119264   1.562  13.573   5.393
72475SOL    HW219265   1.646  13.591   5.517
72476SOL     OW19266  13.122  14.622  13.277
72476SOL    HW119267  13.121  14.631  13.372
72476SOL    HW219268  13.168  14.699  13.245
72477SOL     OW19269   0.034  13.505   3.685
72477SOL    HW119270   0.105  13.567   3.705
72477SOL    HW219271  14.854  13.512   3.760
72478SOL     OW19272   8.149   7.937   0.347
72478SOL    HW119273   8.185   7.947   0.259
72478SOL    HW219274   8.210   7.984   0.404
72479SOL     OW19275   8.796   9.970  13.180
72479SOL    HW119276   8.825   9.952  13.090
72479SOL    HW219277   8.720  10.027  13.169
72480SOL     OW19278  11.308   0.786  12.792
72480SOL    HW119279  11.245   0.717  12.771
72480SOL    HW219280  11.308   0.790  12.888
72481SOL     OW19281   4.829  12.110   6.546
72481SOL    HW119282   4.881  12.035   6.573
72481SOL    HW219283   4.739  12.078   6.546
72482SOL     OW19284   0.439   5.800  11.698
72482SOL    HW119285   0.355   5.822  11.738
72482SOL    HW219286   0.503   5.814  11.767
72483SOL     OW19287  11.283   2.249   7.969
72483SOL    HW119288  11.375   2.262   7.947
72483SOL    HW219289  11.282   2.169   8.021
72484SOL     OW19290   5.789  10.556   2.655
72484SOL    HW119291   5.725  10.623   2.680
72484SOL    HW219292   5.738  10.475   2.649
72485SOL     OW19293   9.390   6.094   6.355
72485SOL    HW119294   9.480   6.101   6.388
72485SOL    HW219295   9.353   6.181   6.367
72486SOL     OW19296  12.902  13.085   8.528
72486SOL    HW119297  12.992  13.093   8.559
72486SOL    HW219298  12.873  13.175   8.515
72487SOL     OW19299   6.236   3.304   6.682
72487SOL    HW119300   6.328   3.308   6.710
72487SOL    HW219301   6.212   3.212   6.692
72488SOL     OW19302   1.748   7.709  10.778
72488SOL    HW119303   1.716   7.636  10.832
72488SOL    HW219304   1.716   7.689  10.690
72489SOL     OW19305   5.623   2.539  14.846
72489SOL    HW119306   5.571   2.565   0.043
72489SOL    HW219307   5.677   2.466  14.878
72490SOL     OW19308   3.753   4.415   0.974
72490SOL    HW119309   3.714   4.328   0.971
72490SOL    HW219310   3.790   4.427   0.887
72491SOL     OW19311   6.644   1.888   6.236
72491SOL    HW119312   6.652   1.882   6.331
72491SOL    HW219313   6.592   1.967   6.221
72492SOL     OW19314   2.746  12.984   0.592
72492SOL    HW119315   2.677  12.974   0.526
72492SOL    HW219316   2.710  12.943   0.671
72493SOL     OW19317   4.404  14.180   2.738
72493SOL    HW119318   4.391  14.272   2.712
72493SOL    HW219319   4.463  14.145   2.672
72494SOL     OW19320   9.421  12.197   2.609
72494SOL    HW119321   9.466  12.231   2.687
72494SOL    HW219322   9.404  12.275   2.556
72495SOL     OW19323   0.318   1.980  13.654
72495SOL    HW119324   0.292   2.072  13.657
72495SOL    HW219325   0.340   1.964  13.562
72496SOL     OW19326  13.941   3.373   9.948
72496SOL    HW119327  13.896   3.362  10.032
72496SOL    HW219328  14.018   3.426   9.968
72497SOL     OW19329   6.045   4.890  14.630
72497SOL    HW119330   6.065   4.821  14.692
72497SOL    HW219331   6.104   4.962  14.653
72498SOL     OW19332   2.403   9.543   2.761
72498SOL    HW119333   2.458   9.512   2.832
72498SOL    HW219334   2.379   9.464   2.712
72499SOL     OW19335   4.745   5.858  10.689
72499SOL    HW119336   4.787   5.916  10.626
72499SOL    HW219337   4.684   5.806  10.636
72500SOL     OW19338   7.559   8.920   7.752
72500SOL    HW119339   7.511   8.879   7.823
72500SOL    HW219340   7.647   8.882   7.757
72501SOL     OW19341   8.851   8.204  14.633
72501SOL    HW119342   8.908   8.193  14.557
72501SOL    HW219343   8.776   8.253  14.600
72502SOL     OW19344   9.103   4.083   8.308
72502SOL    HW119345   9.014   4.096   8.341
72502SOL    HW219346   9.147   4.167   8.323
72503SOL     OW19347   3.897   2.928   9.907
72503SOL    HW119348   3.821   2.905   9.961
72503SOL    HW219349   3.863   2.990   9.842
72504SOL     OW19350  14.562   1.291  13.362
72504SOL    HW119351  14.490   1.241  13.325
72504SOL    HW219352  14.588   1.351  13.292
72505SOL     OW19353  11.787   9.161  13.397
72505SOL    HW119354  11.807   9.114  13.478
72505SOL    HW219355  11.860   9.140  13.338
72506SOL     OW19356   0.937   5.445  13.249
72506SOL    HW119357   0.855   5.397  13.252
72506SOL    HW219358   0.915   5.532  13.282
72507SOL     OW19359   8.607   2.562  14.285
72507SOL    HW119360   8.658   2.482  14.273
72507SOL    HW219361   8.664   2.620  14.335
72508SOL     OW19362   2.002   5.584   7.117
72508SOL    HW119363   2.057   5.577   7.039
72508SOL    HW219364   2.055   5.635   7.179
72509SOL     OW19365  13.163  13.523   9.309
72509SOL    HW119366  13.193  13.452   9.365
72509SOL    HW219367  13.068  13.513   9.306
72510SOL     OW19368  14.235   8.408   8.635
72510SOL    HW119369  14.234   8.314   8.652
72510SOL    HW219370  14.159   8.441   8.683
72511SOL     OW19371   0.889   1.849   9.501
72511SOL    HW119372   0.901   1.919   9.565
72511SOL    HW219373   0.914   1.769   9.547
72512SOL     OW19374   9.560  14.523   5.039
72512SOL    HW119375   9.483  14.560   4.995
72512SOL    HW219376   9.633  14.576   5.009
72513SOL     OW19377   5.843   3.227   3.220
72513SOL    HW119378   5.869   3.178   3.142
72513SOL    HW219379   5.766   3.182   3.253
72514SOL     OW19380   7.450  10.346   9.187
72514SOL    HW119381   7.422  10.268   9.234
72514SOL    HW219382   7.531  10.319   9.142
72515SOL     OW19383   8.626  11.794  10.393
72515SOL    HW119384   8.571  11.716  10.407
72515SOL    HW219385   8.568  11.868  10.408
72516SOL     OW19386   3.291   3.303  11.020
72516SOL    HW119387   3.285   3.357  11.098
72516SOL    HW219388   3.315   3.217  11.052
72517SOL     OW19389   8.546  13.633  13.128
72517SOL    HW119390   8.509  13.667  13.209
72517SOL    HW219391   8.492  13.557  13.106
72518SOL     OW19392   9.251   3.351   4.138
72518SOL    HW119393   9.344   3.351   4.116
72518SOL    HW219394   9.207   3.357   4.053
72519SOL     OW19395   9.284   1.501   0.818
72519SOL    HW119396   9.201   1.453   0.817
72519SOL    HW219397   9.300   1.522   0.726
72520SOL     OW19398   0.985   2.663  10.404
72520SOL    HW119399   0.939   2.727  10.350
72520SOL    HW219400   0.982   2.582  10.353
72521SOL     OW19401   6.297   2.405  11.405
72521SOL    HW119402   6.233   2.451  11.459
72521SOL    HW219403   6.260   2.409  11.317
72522SOL     OW19404  12.087  12.908   5.180
72522SOL    HW119405  12.003  12.952   5.193
72522SOL    HW219406  12.071  12.848   5.106
72523SOL     OW19407   3.117   2.781  10.561
72523SOL    HW119408   3.149   2.692  10.572
72523SOL    HW219409   3.161   2.831  10.630
72524SOL     OW19410  10.768   3.143  10.395
72524SOL    HW119411  10.683   3.165  10.431
72524SOL    HW219412  10.799   3.069  10.448
72525SOL     OW19413   0.464   9.428  12.919
72525SOL    HW119414   0.383   9.411  12.967
72525SOL    HW219415   0.508   9.497  12.969
72526SOL     OW19416  13.371  10.891  11.482
72526SOL    HW119417  13.414  10.977  11.474
72526SOL    HW219418  13.283  10.912  11.513
72527SOL     OW19419   0.016   0.108   4.039
72527SOL    HW119420  14.833   0.095   3.967
72527SOL    HW219421   0.042   0.200   4.032
72528SOL     OW19422   6.340   3.472  10.538
72528SOL    HW119423   6.288   3.403  10.580
72528SOL    HW219424   6.302   3.554  10.570
72529SOL     OW19425   6.147   2.711   9.709
72529SOL    HW119426   6.189   2.791   9.678
72529SOL    HW219427   6.147   2.720   9.804
72530SOL     OW19428  13.485  13.716  14.270
72530SOL    HW119429  13.547  13.788  14.284
72530SOL    HW219430  13.423  13.724  14.343
72531SOL     OW19431   3.875   9.763   9.551
72531SOL    HW119432   3.964   9.790   9.571
72531SOL    HW219433   3.875   9.745   9.457
72532SOL     OW19434   1.344   7.515  10.194
72532SOL    HW119435   1.305   7.601  10.211
72532SOL    HW219436   1.295   7.456  10.251
72533SOL     OW19437  11.518   8.948   5.623
72533SOL    HW119438  11.541   8.892   5.698
72533SOL    HW219439  11.535   9.037   5.653
72534SOL     OW19440  13.165   3.317   2.102
72534SOL    HW119441  13.081   3.304   2.058
72534SOL    HW219442  13.223   3.250   2.066
72535SOL     OW19443   2.384  13.754  14.505
72535SOL    HW119444   2.475  13.770  14.479
72535SOL    HW219445   2.334  13.822  14.460
72536SOL     OW19446   4.172   9.253   2.230
72536SOL    HW119447   4.089   9.274   2.186
72536SOL    HW219448   4.159   9.283   2.320
72537SOL     OW19449   2.166   9.451  11.919
72537SOL    HW119450   2.080   9.416  11.941
72537SOL    HW219451   2.218   9.375  11.894
72538SOL     OW19452  12.687   8.760   0.477
72538SOL    HW119453  12.781   8.768   0.459
72538SOL    HW219454  12.667   8.835   0.533
72539SOL     OW19455  12.088   4.148  13.906
72539SOL    HW119456  12.037   4.212  13.956
72539SOL    HW219457  12.036   4.135  13.826
72540SOL     OW19458  10.166   7.635   5.401
72540SOL    HW119459  10.164   7.554   5.351
72540SOL    HW219460  10.110   7.695   5.353
72541SOL     OW19461   8.777  11.635   6.088
72541SOL    HW119462   8.804  11.572   6.155
72541SOL    HW219463   8.835  11.619   6.014
72542SOL     OW19464   8.064   4.026   3.621
72542SOL    HW119465   8.022   3.950   3.581
72542SOL    HW219466   8.000   4.096   3.614
72543SOL     OW19467  10.619  11.469  14.803
72543SOL    HW119468  10.557  11.397  14.815
72543SOL    HW219469  10.579  11.524  14.736
72544SOL     OW19470   7.429   1.677  11.296
72544SOL    HW119471   7.469   1.614  11.355
72544SOL    HW219472   7.423   1.758  11.347
72545SOL     OW19473   4.778   4.308   7.273
72545SOL    HW119474   4.758   4.401   7.264
72545SOL    HW219475   4.693   4.265   7.268
72546SOL     OW19476  10.124   7.320   0.336
72546SOL    HW119477  10.171   7.248   0.379
72546SOL    HW219478  10.151   7.316   0.244
72547SOL     OW19479   4.400   6.647   5.579
72547SOL    HW119480   4.340   6.693   5.638
72547SOL    HW219481   4.391   6.692   5.495
72548SOL     OW19482   0.544  11.649   1.102
72548SOL    HW119483   0.510  11.628   1.189
72548SOL    HW219484   0.539  11.744   1.096
72549SOL     OW19485   7.428   6.478  12.175
72549SOL    HW119486   7.509   6.426  12.177
72549SOL    HW219487   7.405   6.490  12.267
72550SOL     OW19488   4.498   5.581  14.267
72550SOL    HW119489   4.425   5.601  14.326
72550SOL    HW219490   4.490   5.645  14.196
72551SOL     OW19491  10.084   2.971  12.726
72551SOL    HW119492  10.121   3.044  12.675
72551SOL    HW219493  10.029   2.924  12.663
72552SOL     OW19494   9.827  14.607   9.600
72552SOL    HW119495   9.912  14.564   9.589
72552SOL    HW219496   9.830  14.642   9.689
72553SOL     OW19497   0.627   0.847  11.462
72553SOL    HW119498   0.716   0.882  11.466
72553SOL    HW219499   0.633   0.761  11.502
72554SOL     OW19500  12.800   5.840  12.594
72554SOL    HW119501  12.734   5.821  12.661
72554SOL    HW219502  12.828   5.929  12.613
72555SOL     OW19503   3.754   2.769   9.565
72555SOL    HW119504   3.660   2.773   9.549
72555SOL    HW219505   3.785   2.700   9.506
72556SOL     OW19506   9.764  11.552   5.537
72556SOL    HW119507   9.720  11.534   5.454
72556SOL    HW219508   9.808  11.636   5.523
72557SOL     OW19509   2.946  11.145  13.303
72557SOL    HW119510   2.986  11.061  13.324
72557SOL    HW219511   2.874  11.154  13.365
72558SOL     OW19512   5.753  11.431   1.140
72558SOL    HW119513   5.781  11.509   1.188
72558SOL    HW219514   5.659  11.423   1.158
72559SOL     OW19515  13.582   7.447  12.991
72559SOL    HW119516  13.573   7.360  12.953
72559SOL    HW219517  13.541   7.440  13.077
72560SOL     OW19518  14.154   6.201  10.869
72560SOL    HW119519  14.231   6.158  10.832
72560SOL    HW219520  14.106   6.130  10.912
72561SOL     OW19521  13.644   2.310   4.243
72561SOL    HW119522  13.585   2.376   4.280
72561SOL    HW219523  13.653   2.335   4.151
72562SOL     OW19524  12.470   4.111   0.075
72562SOL    HW119525  12.559   4.106   0.110
72562SOL    HW219526  12.414   4.109   0.152
72563SOL     OW19527  12.931  11.560  10.611
72563SOL    HW119528  12.965  11.613  10.539
72563SOL    HW219529  12.837  11.552  10.592
72564SOL     OW19530  12.232   6.745   0.901
72564SOL    HW119531  12.199   6.682   0.965
72564SOL    HW219532  12.265   6.818   0.953
72565SOL     OW19533   6.447   6.596  13.087
72565SOL    HW119534   6.489   6.605  13.001
72565SOL    HW219535   6.463   6.505  13.112
72566SOL     OW19536  11.135  14.157  13.417
72566SOL    HW119537  11.182  14.132  13.337
72566SOL    HW219538  11.116  14.250  13.404
72567SOL     OW19539  14.061   7.778  10.618
72567SOL    HW119540  13.970   7.750  10.630
72567SOL    HW219541  14.063   7.868  10.650
72568SOL     OW19542   5.980   0.657   7.083
72568SOL    HW119543   5.940   0.722   7.026
72568SOL    HW219544   5.910   0.631   7.143
72569SOL     OW19545   5.119   3.620   6.949
72569SOL    HW119546   5.095   3.531   6.923
72569SOL    HW219547   5.202   3.636   6.903
72570SOL     OW19548   5.390  11.917  13.160
72570SOL    HW119549   5.358  11.833  13.192
72570SOL    HW219550   5.482  11.900  13.138
72571SOL     OW19551  10.460   0.985   3.572
72571SOL    HW119552  10.376   1.010   3.610
72571SOL    HW219553  10.493   1.066   3.531
72572SOL     OW19554   0.825   6.785   3.813
72572SOL    HW119555   0.786   6.760   3.729
72572SOL    HW219556   0.775   6.735   3.877
72573SOL     OW19557   6.584   3.259   4.079
72573SOL    HW119558   6.610   3.350   4.090
72573SOL    HW219559   6.618   3.234   3.993
72574SOL     OW19560   7.801   7.692  10.973
72574SOL    HW119561   7.734   7.659  10.913
72574SOL    HW219562   7.752   7.736  11.042
72575SOL     OW19563   7.014   9.078   9.745
72575SOL    HW119564   6.959   9.154   9.722
72575SOL    HW219565   6.987   9.010   9.683
72576SOL     OW19566  11.035   4.598   7.729
72576SOL    HW119567  11.004   4.647   7.805
72576SOL    HW219568  11.070   4.666   7.671
72577SOL     OW19569  13.270   9.367   4.719
72577SOL    HW119570  13.293   9.300   4.655
72577SOL    HW219571  13.321   9.345   4.797
72578SOL     OW19572  13.881   9.338   5.508
72578SOL    HW119573  13.976   9.334   5.515
72578SOL    HW219574  13.856   9.253   5.473
72579SOL     OW19575   8.216   4.424  12.108
72579SOL    HW119576   8.282   4.390  12.047
72579SOL    HW219577   8.136   4.378  12.084
72580SOL     OW19578   3.267  10.254   0.806
72580SOL    HW119579   3.228  10.284   0.888
72580SOL    HW219580   3.200  10.196   0.768
72581SOL     OW19581   0.773   4.851   1.940
72581SOL    HW119582   0.845   4.821   1.884
72581SOL    HW219583   0.766   4.785   2.008
72582SOL     OW19584   6.664   6.363   8.951
72582SOL    HW119585   6.745   6.317   8.977
72582SOL    HW219586   6.634   6.315   8.874
72583SOL     OW19587   0.951   0.483   9.722
72583SOL    HW119588   0.908   0.402   9.696
72583SOL    HW219589   0.883   0.532   9.769
72584SOL     OW19590   5.431   7.850  10.976
72584SOL    HW119591   5.414   7.784  10.908
72584SOL    HW219592   5.501   7.904  10.940
72585SOL     OW19593   1.731   8.675  12.721
72585SOL    HW119594   1.805   8.727  12.752
72585SOL    HW219595   1.697   8.724  12.646
72586SOL     OW19596   6.178   6.928   3.241
72586SOL    HW119597   6.223   6.990   3.299
72586SOL    HW219598   6.244   6.903   3.176
72587SOL     OW19599   0.454  12.296   1.168
72587SOL    HW119600   0.528  12.239   1.184
72587SOL    HW219601   0.492  12.381   1.146
72588SOL     OW19602   9.972   4.453   0.870
72588SOL    HW119603   9.919   4.524   0.904
72588SOL    HW219604   9.949   4.377   0.924
72589SOL     OW19605   6.340   7.724   3.519
72589SOL    HW119606   6.383   7.655   3.469
72589SOL    HW219607   6.347   7.696   3.610
72590SOL     OW19608   8.761  11.757  12.120
72590SOL    HW119609   8.776  11.726  12.210
72590SOL    HW219610   8.713  11.686  12.078
72591SOL     OW19611   3.695   0.857   0.946
72591SOL    HW119612   3.705   0.776   0.996
72591SOL    HW219613   3.626   0.838   0.882
72592SOL     OW19614  10.819   2.236   0.561
72592SOL    HW119615  10.771   2.200   0.487
72592SOL    HW219616  10.769   2.210   0.638
72593SOL     OW19617   8.980  10.023  10.227
72593SOL    HW119618   8.917  10.032  10.155
72593SOL    HW219619   8.927  10.029  10.307
72594SOL     OW19620  10.044   0.295   6.049
72594SOL    HW119621  10.126   0.249   6.065
72594SOL    HW219622  10.069   0.373   6.000
72595SOL     OW19623  14.528  12.159   4.639
72595SOL    HW119624  14.621  12.151   4.656
72595SOL    HW219625  14.486  12.117   4.714
72596SOL     OW19626  12.383   0.023   8.443
72596SOL    HW119627  12.385  14.808   8.424
72596SOL    HW219628  12.451   0.060   8.387
72597SOL     OW19629  12.247   6.100   2.851
72597SOL    HW119630  12.335   6.126   2.877
72597SOL    HW219631  12.235   6.139   2.765
72598SOL     OW19632  14.478   9.692   0.516
72598SOL    HW119633  14.492   9.741   0.436
72598SOL    HW219634  14.405   9.633   0.496
72599SOL     OW19635   0.408   9.783   1.920
72599SOL    HW119636   0.384   9.873   1.941
72599SOL    HW219637   0.351   9.759   1.847
72600SOL     OW19638   0.434   7.682  10.126
72600SOL    HW119639   0.366   7.633  10.173
72600SOL    HW219640   0.421   7.659  10.034
72601SOL     OW19641   4.038  10.545   9.634
72601SOL    HW119642   4.098  10.618   9.648
72601SOL    HW219643   4.019  10.547   9.541
72602SOL     OW19644   7.224  13.616   9.784
72602SOL    HW119645   7.265  13.625   9.698
72602SOL    HW219646   7.130  13.620   9.765
72603SOL     OW19647   2.432  11.788   5.331
72603SOL    HW119648   2.507  11.782   5.272
72603SOL    HW219649   2.387  11.868   5.305
72604SOL     OW19650  10.057   7.935   8.100
72604SOL    HW119651  10.002   7.905   8.028
72604SOL    HW219652  10.038   8.029   8.107
72605SOL     OW19653   7.382  12.741  12.066
72605SOL    HW119654   7.305  12.698  12.102
72605SOL    HW219655   7.365  12.744  11.971
72606SOL     OW19656   4.375   1.399  10.306
72606SOL    HW119657   4.456   1.355  10.332
72606SOL    HW219658   4.375   1.395  10.210
72607SOL     OW19659   5.110   3.834   2.072
72607SOL    HW119660   5.120   3.901   2.005
72607SOL    HW219661   5.044   3.773   2.036
72608SOL     OW19662   0.756   1.058   3.066
72608SOL    HW119663   0.748   1.038   3.159
72608SOL    HW219664   0.796   0.979   3.028
72609SOL     OW19665   0.756  10.959   2.869
72609SOL    HW119666   0.728  10.898   2.801
72609SOL    HW219667   0.688  10.955   2.936
72610SOL     OW19668  12.997   0.972   3.209
72610SOL    HW119669  12.993   1.061   3.174
72610SOL    HW219670  12.968   0.980   3.300
72611SOL     OW19671   2.318  10.455   6.856
72611SOL    HW119672   2.374  10.394   6.809
72611SOL    HW219673   2.293  10.520   6.790
72612SOL     OW19674   2.630  12.354   1.850
72612SOL    HW119675   2.549  12.369   1.899
72612SOL    HW219676   2.694  12.410   1.893
72613SOL     OW19677  14.136   9.535  12.614
72613SOL    HW119678  14.073   9.606  12.621
72613SOL    HW219679  14.155   9.511  12.705
72614SOL     OW19680   8.937  12.631  14.525
72614SOL    HW119681   8.868  12.641  14.591
72614SOL    HW219682   9.018  12.644  14.574
72615SOL     OW19683   7.163   0.421   1.110
72615SOL    HW119684   7.201   0.418   1.197
72615SOL    HW219685   7.178   0.511   1.080
72616SOL     OW19686  13.438  13.289   2.252
72616SOL    HW119687  13.371  13.246   2.305
72616SOL    HW219688  13.519  13.273   2.301
72617SOL     OW19689   1.608  14.238  12.664
72617SOL    HW119690   1.567  14.279  12.740
72617SOL    HW219691   1.550  14.260  12.591
72618SOL     OW19692   4.563   7.299   3.993
72618SOL    HW119693   4.549   7.217   4.040
72618SOL    HW219694   4.659   7.308   3.988
72619SOL     OW19695   9.952   2.022   5.318
72619SOL    HW119696  10.006   1.969   5.260
72619SOL    HW219697   9.866   2.024   5.277
72620SOL     OW19698  11.667   8.597   3.739
72620SOL    HW119699  11.738   8.538   3.764
72620SOL    HW219700  11.706   8.684   3.741
72621SOL     OW19701  11.869   2.518   7.263
72621SOL    HW119702  11.833   2.482   7.183
72621SOL    HW219703  11.917   2.446   7.303
72622SOL     OW19704   7.584   9.747   0.414
72622SOL    HW119705   7.521   9.694   0.463
72622SOL    HW219706   7.531   9.814   0.370
72623SOL     OW19707   5.988  14.437   6.632
72623SOL    HW119708   5.960  14.345   6.628
72623SOL    HW219709   5.917  14.485   6.590
72624SOL     OW19710  11.334   8.698   6.609
72624SOL    HW119711  11.320   8.629   6.674
72624SOL    HW219712  11.248   8.737   6.595
72625SOL     OW19713  10.775  14.009   5.830
72625SOL    HW119714  10.690  13.997   5.873
72625SOL    HW219715  10.832  13.945   5.872
72626SOL     OW19716   7.897   1.486   6.097
72626SOL    HW119717   7.831   1.479   6.166
72626SOL    HW219718   7.869   1.561   6.044
72627SOL     OW19719   7.699   2.832  10.134
72627SOL    HW119720   7.743   2.755  10.099
72627SOL    HW219721   7.734   2.905  10.082
72628SOL     OW19722  11.736  13.997   9.759
72628SOL    HW119723  11.672  13.964   9.822
72628SOL    HW219724  11.683  14.044   9.695
72629SOL     OW19725  12.831   8.788  11.549
72629SOL    HW119726  12.913   8.759  11.510
72629SOL    HW219727  12.798   8.855  11.488
72630SOL     OW19728   9.396   7.934   6.677
72630SOL    HW119729   9.429   7.856   6.722
72630SOL    HW219730   9.379   7.905   6.587
72631SOL     OW19731  14.825   8.197  12.374
72631SOL    HW119732  14.782   8.112  12.367
72631SOL    HW219733  14.770   8.256  12.322
72632SOL     OW19734   3.684  11.395   6.142
72632SOL    HW119735   3.692  11.391   6.237
72632SOL    HW219736   3.739  11.324   6.110
72633SOL     OW19737  14.565   9.832   7.466
72633SOL    HW119738  14.526   9.744   7.467
72633SOL    HW219739  14.656   9.817   7.443
72634SOL     OW19740   4.937  11.280   8.547
72634SOL    HW119741   4.973  11.365   8.572
72634SOL    HW219742   4.986  11.256   8.468
72635SOL     OW19743  13.269   2.593   9.344
72635SOL    HW119744  13.342   2.555   9.295
72635SOL    HW219745  13.258   2.535   9.419
72636SOL     OW19746   3.575   9.313  12.637
72636SOL    HW119747   3.539   9.393  12.600
72636SOL    HW219748   3.606   9.263  12.562
72637SOL     OW19749   5.271   4.597  11.864
72637SOL    HW119750   5.366   4.582  11.863
72637SOL    HW219751   5.244   4.578  11.954
72638SOL     OW19752  14.649   7.345  11.915
72638SOL    HW119753  14.625   7.270  11.860
72638SOL    HW219754  14.607   7.327  11.999
72639SOL     OW19755   3.632   1.960   8.852
72639SOL    HW119756   3.627   2.055   8.845
72639SOL    HW219757   3.724   1.939   8.839
72640SOL     OW19758  13.947   6.483   9.503
72640SOL    HW119759  13.891   6.427   9.448
72640SOL    HW219760  13.898   6.565   9.510
72641SOL     OW19761   7.624  14.860  12.253
72641SOL    HW119762   7.543  14.810  12.257
72641SOL    HW219763   7.631   0.021  12.340
72642SOL     OW19764   2.328  10.063   8.298
72642SOL    HW119765   2.385  10.015   8.237
72642SOL    HW219766   2.387  10.113   8.352
72643SOL     OW19767   1.469   3.773  14.275
72643SOL    HW119768   1.466   3.752  14.368
72643SOL    HW219769   1.505   3.694  14.234
72644SOL     OW19770   7.417  12.381   2.599
72644SOL    HW119771   7.385  12.313   2.539
72644SOL    HW219772   7.378  12.462   2.566
72645SOL     OW19773   9.970   5.174  12.942
72645SOL    HW119774   9.875   5.166  12.955
72645SOL    HW219775  10.008   5.115  13.007
72646SOL     OW19776   1.163  13.964  10.909
72646SOL    HW119777   1.087  13.908  10.892
72646SOL    HW219778   1.222  13.908  10.959
72647SOL     OW19779   6.329  14.602   4.680
72647SOL    HW119780   6.321  14.560   4.594
72647SOL    HW219781   6.241  14.596   4.718
72648SOL     OW19782   3.033  12.210   3.358
72648SOL    HW119783   3.056  12.230   3.268
72648SOL    HW219784   3.110  12.236   3.409
72649SOL     OW19785   0.328   5.853   9.972
72649SOL    HW119786   0.399   5.914   9.952
72649SOL    HW219787   0.304   5.873  10.063
72650SOL     OW19788   9.564   2.108  10.815
72650SOL    HW119789   9.588   2.029  10.766
72650SOL    HW219790   9.620   2.107  10.892
72651SOL     OW19791   4.068   9.508   8.026
72651SOL    HW119792   4.023   9.474   7.949
72651SOL    HW219793   4.035   9.597   8.036
72652SOL     OW19794  11.568   0.629   1.715
72652SOL    HW119795  11.533   0.697   1.658
72652SOL    HW219796  11.662   0.632   1.700
72653SOL     OW19797   6.967  13.876   1.254
72653SOL    HW119798   7.035  13.941   1.236
72653SOL    HW219799   7.011  13.792   1.241
72654SOL     OW19800   4.536   1.759  10.996
72654SOL    HW119801   4.573   1.720  10.916
72654SOL    HW219802   4.612   1.788  11.046
72655SOL     OW19803  13.226   7.843  12.976
72655SOL    HW119804  13.298   7.857  12.915
72655SOL    HW219805  13.214   7.927  13.020
72656SOL     OW19806   7.390   1.413   0.878
72656SOL    HW119807   7.425   1.452   0.958
72656SOL    HW219808   7.418   1.473   0.808
72657SOL     OW19809  12.359   5.179  12.510
72657SOL    HW119810  12.347   5.164  12.604
72657SOL    HW219811  12.339   5.094  12.470
72658SOL     OW19812  10.633   2.015   2.033
72658SOL    HW119813  10.704   2.053   1.981
72658SOL    HW219814  10.614   2.082   2.099
72659SOL     OW19815   0.432   8.728   7.936
72659SOL    HW119816   0.455   8.660   8.000
72659SOL    HW219817   0.474   8.807   7.970
72660SOL     OW19818   7.995   3.813   1.139
72660SOL    HW119819   8.090   3.817   1.125
72660SOL    HW219820   7.976   3.720   1.149
72661SOL     OW19821   3.761   2.904   3.881
72661SOL    HW119822   3.707   2.831   3.912
72661SOL    HW219823   3.779   2.955   3.960
72662SOL     OW19824  13.083  10.607  12.287
72662SOL    HW119825  13.170  10.648  12.289
72662SOL    HW219826  13.050  10.625  12.200
72663SOL     OW19827  10.279  12.247  11.392
72663SOL    HW119828  10.248  12.158  11.408
72663SOL    HW219829  10.295  12.284  11.479
72664SOL     OW19830  12.996  11.719   0.801
72664SOL    HW119831  13.066  11.726   0.866
72664SOL    HW219832  13.004  11.798   0.748
72665SOL     OW19833  14.826   7.399   2.658
72665SOL    HW119834  14.804   7.455   2.584
72665SOL    HW219835   0.003   7.331   2.620
72666SOL     OW19836   1.771   8.001   3.340
72666SOL    HW119837   1.796   7.998   3.248
72666SOL    HW219838   1.750   8.093   3.356
72667SOL     OW19839   5.108   6.421  11.331
72667SOL    HW119840   5.092   6.462  11.416
72667SOL    HW219841   5.164   6.483  11.285
72668SOL     OW19842   5.187   4.047   8.757
72668SOL    HW119843   5.222   4.119   8.705
72668SOL    HW219844   5.093   4.047   8.737
72669SOL     OW19845  10.064   9.630  13.133
72669SOL    HW119846  10.066   9.715  13.089
72669SOL    HW219847   9.982   9.590  13.104
72670SOL     OW19848   0.465   1.465  10.847
72670SOL    HW119849   0.389   1.493  10.898
72670SOL    HW219850   0.438   1.479  10.756
72671SOL     OW19851  12.776   4.787   2.025
72671SOL    HW119852  12.822   4.831   1.953
72671SOL    HW219853  12.846   4.758   2.084
72672SOL     OW19854   2.598   1.872   9.806
72672SOL    HW119855   2.649   1.796   9.834
72672SOL    HW219856   2.645   1.906   9.730
72673SOL     OW19857   7.988  13.452   0.195
72673SOL    HW119858   7.894  13.452   0.182
72673SOL    HW219859   7.999  13.472   0.288
72674SOL     OW19860  14.278   1.442  13.980
72674SOL    HW119861  14.225   1.521  13.964
72674SOL    HW219862  14.361   1.460  13.937
72675SOL     OW19863   4.734   7.161   5.171
72675SOL    HW119864   4.752   7.146   5.078
72675SOL    HW219865   4.805   7.217   5.200
72676SOL     OW19866   4.205   4.697  11.909
72676SOL    HW119867   4.112   4.677  11.921
72676SOL    HW219868   4.228   4.652  11.828
72677SOL     OW19869   3.786   6.234   7.357
72677SOL    HW119870   3.751   6.249   7.445
72677SOL    HW219871   3.792   6.322   7.319
72678SOL     OW19872   4.130   4.192   1.481
72678SOL    HW119873   4.057   4.234   1.436
72678SOL    HW219874   4.205   4.249   1.464
72679SOL     OW19875   4.179   2.323  10.753
72679SOL    HW119876   4.167   2.383  10.680
72679SOL    HW219877   4.123   2.359  10.823
72680SOL     OW19878   6.973  11.361  13.829
72680SOL    HW119879   6.990  11.435  13.771
72680SOL    HW219880   7.042  11.298  13.808
72681SOL     OW19881   2.879   3.029   6.432
72681SOL    HW119882   2.923   2.991   6.507
72681SOL    HW219883   2.937   3.012   6.358
72682SOL     OW19884   0.237   6.803   0.058
72682SOL    HW119885   0.247   6.868   0.127
72682SOL    HW219886   0.292   6.730   0.086
72683SOL     OW19887  11.519   9.167  14.184
72683SOL    HW119888  11.589   9.230  14.169
72683SOL    HW219889  11.504   9.169  14.278
72684SOL     OW19890   6.709  10.659   9.787
72684SOL    HW119891   6.749  10.586   9.741
72684SOL    HW219892   6.749  10.657   9.874
72685SOL     OW19893   6.286  11.061  11.618
72685SOL    HW119894   6.304  11.085  11.527
72685SOL    HW219895   6.246  11.139  11.656
72686SOL     OW19896   2.101   5.409   0.841
72686SOL    HW119897   2.187   5.448   0.854
72686SOL    HW219898   2.064   5.402   0.929
72687SOL     OW19899   7.552   9.275  14.693
72687SOL    HW119900   7.515   9.190  14.716
72687SOL    HW219901   7.644   9.267  14.716
72688SOL     OW19902   8.967   9.831   6.502
72688SOL    HW119903   8.978   9.926   6.506
72688SOL    HW219904   9.050   9.796   6.536
72689SOL     OW19905  11.869  14.472  10.381
72689SOL    HW119906  11.922  14.411  10.432
72689SOL    HW219907  11.922  14.491  10.304
72690SOL     OW19908   9.625   3.134   0.229
72690SOL    HW119909   9.623   3.082   0.148
72690SOL    HW219910   9.533   3.154   0.245
72691SOL     OW19911   5.442   2.947   5.955
72691SOL    HW119912   5.413   3.019   6.011
72691SOL    HW219913   5.399   2.964   5.871
72692SOL     OW19914   4.579   3.343   0.335
72692SOL    HW119915   4.518   3.303   0.397
72692SOL    HW219916   4.586   3.435   0.363
72693SOL     OW19917   6.869   4.500   9.101
72693SOL    HW119918   6.871   4.575   9.160
72693SOL    HW219919   6.818   4.530   9.025
72694SOL     OW19920  14.023  13.064  11.091
72694SOL    HW119921  14.015  12.969  11.098
72694SOL    HW219922  13.933  13.095  11.085
72695SOL     OW19923   0.698   0.994   3.338
72695SOL    HW119924   0.744   1.020   3.418
72695SOL    HW219925   0.744   0.916   3.307
72696SOL     OW19926   3.807  12.247   7.764
72696SOL    HW119927   3.755  12.167   7.770
72696SOL    HW219928   3.775  12.291   7.685
72697SOL     OW19929   1.960   2.074   5.282
72697SOL    HW119930   1.998   2.033   5.359
72697SOL    HW219931   2.027   2.134   5.250
72698SOL     OW19932   2.121  13.427   5.810
72698SOL    HW119933   2.158  13.344   5.840
72698SOL    HW219934   2.058  13.402   5.742
72699SOL     OW19935   4.885   8.882  14.440
72699SOL    HW119936   4.803   8.930  14.425
72699SOL    HW219937   4.864   8.791  14.417
72700SOL     OW19938  14.102   3.162  10.605
72700SOL    HW119939  14.069   3.187  10.519
72700SOL    HW219940  14.056   3.081  10.626
72701SOL     OW19941   9.630  10.853  13.945
72701SOL    HW119942   9.690  10.801  13.891
72701SOL    HW219943   9.584  10.909  13.882
72702SOL     OW19944   2.806   2.312   3.435
72702SOL    HW119945   2.715   2.287   3.446
72702SOL    HW219946   2.852   2.229   3.423
72703SOL     OW19947   9.536  12.604   2.752
72703SOL    HW119948   9.552  12.686   2.706
72703SOL    HW219949   9.598  12.543   2.712
72704SOL     OW19950  11.020   1.873   9.386
72704SOL    HW119951  10.937   1.859   9.339
72704SOL    HW219952  11.037   1.967   9.376
72705SOL     OW19953   7.278   1.059   3.723
72705SOL    HW119954   7.187   1.028   3.727
72705SOL    HW219955   7.273   1.151   3.749
72706SOL     OW19956  10.158   5.248  13.754
72706SOL    HW119957  10.125   5.246  13.844
72706SOL    HW219958  10.080   5.239  13.699
72707SOL     OW19959   9.135  13.637   0.741
72707SOL    HW119960   9.147  13.713   0.684
72707SOL    HW219961   9.079  13.669   0.812
72708SOL     OW19962   8.128  14.030   7.171
72708SOL    HW119963   8.054  13.991   7.126
72708SOL    HW219964   8.099  14.117   7.196
72709SOL     OW19965  10.804   4.233   6.212
72709SOL    HW119966  10.768   4.162   6.265
72709SOL    HW219967  10.856   4.189   6.145
72710SOL     OW19968  12.337   5.543  10.796
72710SOL    HW119969  12.311   5.604  10.865
72710SOL    HW219970  12.256   5.498  10.771
72711SOL     OW19971   9.377  12.424  10.983
72711SOL    HW119972   9.315  12.468  10.925
72711SOL    HW219973   9.323  12.371  11.042
72712SOL     OW19974   9.853  12.881   9.161
72712SOL    HW119975   9.927  12.913   9.212
72712SOL    HW219976   9.885  12.799   9.122
72713SOL     OW19977  11.942   6.003  14.743
72713SOL    HW119978  11.933   6.080  14.798
72713SOL    HW219979  11.929   5.929  14.803
72714SOL     OW19980  13.056  11.624   5.011
72714SOL    HW119981  13.140  11.584   4.990
72714SOL    HW219982  12.996  11.595   4.941
72715SOL     OW19983   8.470   9.379  10.960
72715SOL    HW119984   8.490   9.467  10.995
72715SOL    HW219985   8.554   9.348  10.926
72716SOL     OW19986  10.655  11.472  11.097
72716SOL    HW119987  10.747  11.472  11.070
72716SOL    HW219988  10.645  11.553  11.147
72717SOL     OW19989   3.097   9.389   1.983
72717SOL    HW119990   3.099   9.320   1.916
72717SOL    HW219991   3.095   9.342   2.066
72718SOL     OW19992   4.016   9.252   9.918
72718SOL    HW119993   3.953   9.274   9.987
72718SOL    HW219994   4.053   9.336   9.892
72719SOL     OW19995   4.118   4.876   0.880
72719SOL    HW119996   4.124   4.782   0.863
72719SOL    HW219997   4.084   4.882   0.969
72720SOL     OW19998   7.245  13.906   5.270
72720SOL    HW119999   7.167  13.884   5.220
72720SOL    HW220000   7.313  13.848   5.236
72721SOL     OW20001  14.583   9.743   7.142
72721SOL    HW120002  14.505   9.779   7.100
72721SOL    HW220003  14.593   9.794   7.223
72722SOL     OW20004   2.794  10.075  12.426
72722SOL    HW120005   2.766   9.989  12.458
72722SOL    HW220006   2.726  10.101  12.365
72723SOL     OW20007   4.155   6.836   4.727
72723SOL    HW120008   4.152   6.743   4.749
72723SOL    HW220009   4.096   6.878   4.790
72724SOL     OW20010   9.140   2.111  12.554
72724SOL    HW120011   9.121   2.018  12.571
72724SOL    HW220012   9.054   2.150  12.540
72725SOL     OW20013   6.573  14.104   7.572
72725SOL    HW120014   6.584  14.196   7.548
72725SOL    HW220015   6.592  14.102   7.666
72726SOL     OW20016   1.772   0.678   3.793
72726SOL    HW120017   1.761   0.618   3.719
72726SOL    HW220018   1.795   0.622   3.866
72727SOL     OW20019   6.709   0.548  10.844
72727SOL    HW120020   6.738   0.628  10.801
72727SOL    HW220021   6.732   0.562  10.936
72728SOL     OW20022   9.326   5.186   6.783
72728SOL    HW120023   9.260   5.136   6.735
72728SOL    HW220024   9.407   5.174   6.733
72729SOL     OW20025   3.348   2.985  13.496
72729SOL    HW120026   3.325   3.013  13.408
72729SOL    HW220027   3.425   2.928  13.484
72730SOL     OW20028  10.348   5.015   8.062
72730SOL    HW120029  10.375   5.072   7.989
72730SOL    HW220030  10.296   5.072   8.118
72731SOL     OW20031   2.152   8.764   6.833
72731SOL    HW120032   2.154   8.676   6.871
72731SOL    HW220033   2.176   8.751   6.741
72732SOL     OW20034   9.131   3.998  11.587
72732SOL    HW120035   9.135   4.009  11.492
72732SOL    HW220036   9.051   3.947  11.601
72733SOL     OW20037   3.193   9.798  11.778
72733SOL    HW120038   3.212   9.891  11.771
72733SOL    HW220039   3.231   9.772  11.862
72734SOL     OW20040   1.463   5.515   9.636
72734SOL    HW120041   1.412   5.586   9.675
72734SOL    HW220042   1.397   5.458   9.596
72735SOL     OW20043  14.319  11.205   7.048
72735SOL    HW120044  14.364  11.181   7.129
72735SOL    HW220045  14.288  11.122   7.012
72736SOL     OW20046   7.839   5.356   3.455
72736SOL    HW120047   7.868   5.278   3.502
72736SOL    HW220048   7.847   5.334   3.363
72737SOL     OW20049   4.655  12.408   2.040
72737SOL    HW120050   4.567  12.446   2.043
72737SOL    HW220051   4.646  12.333   1.982
72738SOL     OW20052   5.196   4.045   9.989
72738SOL    HW120053   5.282   4.022   9.955
72738SOL    HW220054   5.138   3.974   9.961
72739SOL     OW20055  10.667   8.961   7.590
72739SOL    HW120056  10.581   8.932   7.622
72739SOL    HW220057  10.647   9.031   7.527
72740SOL     OW20058  10.737  10.581   6.612
72740SOL    HW120059  10.799  10.521   6.571
72740SOL    HW220060  10.772  10.595   6.700
72741SOL     OW20061   3.292   6.604   7.542
72741SOL    HW120062   3.281   6.667   7.472
72741SOL    HW220063   3.302   6.657   7.621
72742SOL     OW20064   6.644  10.961   8.070
72742SOL    HW120065   6.690  10.911   8.138
72742SOL    HW220066   6.567  10.996   8.114
72743SOL     OW20067   9.562  10.274   2.667
72743SOL    HW120068   9.580  10.277   2.761
72743SOL    HW220069   9.648  10.259   2.627
72744SOL     OW20070   8.212  12.020   1.253
72744SOL    HW120071   8.132  12.053   1.212
72744SOL    HW220072   8.262  12.098   1.275
72745SOL     OW20073  10.822   1.271   2.557
72745SOL    HW120074  10.830   1.212   2.482
72745SOL    HW220075  10.899   1.327   2.552
72746SOL     OW20076   0.295   0.782  11.780
72746SOL    HW120077   0.342   0.705  11.813
72746SOL    HW220078   0.251   0.818  11.856
72747SOL     OW20079  13.995  13.893  11.419
72747SOL    HW120080  14.013  13.927  11.507
72747SOL    HW220081  13.900  13.900  11.410
72748SOL     OW20082   7.000  12.847   6.227
72748SOL    HW120083   6.960  12.823   6.311
72748SOL    HW220084   7.054  12.924   6.247
72749SOL     OW20085  11.535   4.712   4.544
72749SOL    HW120086  11.462   4.744   4.598
72749SOL    HW220087  11.592   4.666   4.605
72750SOL     OW20088   3.075   2.553   3.883
72750SOL    HW120089   3.002   2.610   3.909
72750SOL    HW220090   3.065   2.544   3.788
72751SOL     OW20091   7.624   4.270   3.712
72751SOL    HW120092   7.659   4.335   3.773
72751SOL    HW220093   7.539   4.306   3.684
72752SOL     OW20094   0.404   3.534   6.943
72752SOL    HW120095   0.443   3.520   7.030
72752SOL    HW220096   0.479   3.548   6.886
72753SOL     OW20097  13.400   5.534  12.865
72753SOL    HW120098  13.361   5.448  12.848
72753SOL    HW220099  13.479   5.515  12.917
72754SOL     OW20100   0.395  14.849   5.039
72754SOL    HW120101   0.308  14.832   5.074
72754SOL    HW220102   0.454  14.810   5.103
72755SOL     OW20103   0.767   5.571   8.290
72755SOL    HW120104   0.820   5.621   8.229
72755SOL    HW220105   0.740   5.634   8.356
72756SOL     OW20106  11.705   6.708  10.545
72756SOL    HW120107  11.752   6.789  10.567
72756SOL    HW220108  11.668   6.679  10.629
72757SOL     OW20109   6.589   5.491   1.184
72757SOL    HW120110   6.520   5.435   1.148
72757SOL    HW220111   6.580   5.482   1.279
72758SOL     OW20112   6.547   9.131  13.960
72758SOL    HW120113   6.593   9.051  13.935
72758SOL    HW220114   6.586   9.156  14.043
72759SOL     OW20115   2.876   5.303  13.365
72759SOL    HW120116   2.933   5.353  13.307
72759SOL    HW220117   2.799   5.360  13.378
72760SOL     OW20118   9.637  12.264  10.708
72760SOL    HW120119   9.729  12.292  10.713
72760SOL    HW220120   9.601  12.284  10.794
72761SOL     OW20121  12.131   0.341   3.749
72761SOL    HW120122  12.194   0.269   3.739
72761SOL    HW220123  12.185   0.418   3.764
72762SOL     OW20124   6.780   5.145  13.064
72762SOL    HW120125   6.706   5.085  13.061
72762SOL    HW220126   6.826   5.131  12.981
72763SOL     OW20127  11.893  13.727  12.664
72763SOL    HW120128  11.855  13.711  12.577
72763SOL    HW220129  11.927  13.642  12.691
72764SOL     OW20130  11.710   8.580   1.846
72764SOL    HW120131  11.715   8.531   1.928
72764SOL    HW220132  11.798   8.577   1.810
72765SOL     OW20133   1.206  10.256   5.952
72765SOL    HW120134   1.197  10.246   5.857
72765SOL    HW220135   1.270  10.326   5.964
72766SOL     OW20136   0.699   7.785  13.258
72766SOL    HW120137   0.649   7.812  13.336
72766SOL    HW220138   0.730   7.867  13.220
72767SOL     OW20139  10.098   6.635   3.826
72767SOL    HW120140  10.079   6.624   3.733
72767SOL    HW220141  10.181   6.683   3.828
72768SOL     OW20142   0.730   8.402   1.261
72768SOL    HW120143   0.686   8.318   1.270
72768SOL    HW220144   0.817   8.380   1.227
72769SOL     OW20145   1.803   6.114   2.168
72769SOL    HW120146   1.789   6.208   2.178
72769SOL    HW220147   1.897   6.105   2.152
72770SOL     OW20148  12.608   1.758   9.533
72770SOL    HW120149  12.663   1.720   9.602
72770SOL    HW220150  12.632   1.708   9.455
72771SOL     OW20151   1.763   2.174   4.532
72771SOL    HW120152   1.747   2.093   4.485
72771SOL    HW220153   1.836   2.215   4.486
72772SOL     OW20154  13.133   8.735   0.656
72772SOL    HW120155  13.221   8.696   0.659
72772SOL    HW220156  13.087   8.693   0.728
72773SOL     OW20157   4.268   6.155  13.524
72773SOL    HW120158   4.247   6.096  13.452
72773SOL    HW220159   4.184   6.173  13.566
72774SOL     OW20160  12.888  14.737   6.862
72774SOL    HW120161  12.902  14.644   6.841
72774SOL    HW220162  12.831  14.735   6.938
72775SOL     OW20163   7.011  13.270   9.663
72775SOL    HW120164   6.964  13.309   9.589
72775SOL    HW220165   6.950  13.275   9.736
72776SOL     OW20166   5.684   6.335   0.704
72776SOL    HW120167   5.676   6.293   0.618
72776SOL    HW220168   5.595   6.331   0.740
72777SOL     OW20169  10.406   3.990   5.618
72777SOL    HW120170  10.466   4.060   5.591
72777SOL    HW220171  10.322   4.016   5.581
72778SOL     OW20172   7.974  13.723  12.560
72778SOL    HW120173   7.915  13.674  12.503
72778SOL    HW220174   7.918  13.790  12.600
72779SOL     OW20175  14.482   0.313   6.622
72779SOL    HW120176  14.484   0.291   6.715
72779SOL    HW220177  14.454   0.405   6.619
72780SOL     OW20178  11.787   1.167   3.310
72780SOL    HW120179  11.695   1.194   3.307
72780SOL    HW220180  11.813   1.178   3.401
72781SOL     OW20181   8.635  13.903  11.444
72781SOL    HW120182   8.556  13.887  11.393
72781SOL    HW220183   8.645  13.998  11.445
72782SOL     OW20184   4.845   8.904  14.803
72782SOL    HW120185   4.910   8.836  14.824
72782SOL    HW220186   4.835   8.953   0.005
72783SOL     OW20187   0.642   1.362  13.805
72783SOL    HW120188   0.587   1.372  13.882
72783SOL    HW220189   0.585   1.387  13.732
72784SOL     OW20190   2.816  12.764  14.527
72784SOL    HW120191   2.769  12.821  14.467
72784SOL    HW220192   2.843  12.821  14.599
72785SOL     OW20193   8.457  11.598   3.588
72785SOL    HW120194   8.380  11.654   3.589
72785SOL    HW220195   8.524  11.650   3.544
72786SOL     OW20196   0.360   7.415   1.539
72786SOL    HW120197   0.272   7.386   1.515
72786SOL    HW220198   0.413   7.336   1.538
72787SOL     OW20199   6.944   6.160   1.176
72787SOL    HW120200   7.025   6.184   1.131
72787SOL    HW220201   6.879   6.223   1.144
72788SOL     OW20202   8.921  12.190  11.969
72788SOL    HW120203   8.972  12.236  11.902
72788SOL    HW220204   8.838  12.237  11.972
72789SOL     OW20205  12.869  14.573   5.747
72789SOL    HW120206  12.819  14.492   5.759
72789SOL    HW220207  12.805  14.635   5.712
72790SOL     OW20208   6.230   9.369   8.295
72790SOL    HW120209   6.311   9.418   8.283
72790SOL    HW220210   6.247   9.284   8.254
72791SOL     OW20211   2.544   2.693   1.303
72791SOL    HW120212   2.555   2.783   1.272
72791SOL    HW220213   2.629   2.652   1.289
72792SOL     OW20214   0.435   0.108  12.466
72792SOL    HW120215   0.380   0.185  12.447
72792SOL    HW220216   0.382   0.034  12.437
72793SOL     OW20217   5.219   0.407  13.906
72793SOL    HW120218   5.314   0.414  13.915
72793SOL    HW220219   5.204   0.320  13.869
72794SOL     OW20220   9.105   3.144   7.636
72794SOL    HW120221   9.019   3.125   7.598
72794SOL    HW220222   9.135   3.060   7.671
72795SOL     OW20223   2.637  14.554  12.682
72795SOL    HW120224   2.681  14.537  12.765
72795SOL    HW220225   2.584  14.632  12.699
72796SOL     OW20226   1.659   0.866   0.601
72796SOL    HW120227   1.565   0.883   0.607
72796SOL    HW220228   1.671   0.835   0.511
72797SOL     OW20229  12.389  10.422  12.426
72797SOL    HW120230  12.356  10.369  12.353
72797SOL    HW220231  12.446  10.487  12.384
72798SOL     OW20232   0.360   6.550   1.955
72798SOL    HW120233   0.392   6.533   1.867
72798SOL    HW220234   0.412   6.493   2.011
72799SOL     OW20235  11.008   8.013   5.244
72799SOL    HW120236  11.022   8.079   5.175
72799SOL    HW220237  11.096   7.991   5.274
72800SOL     OW20238   8.839   5.667   5.908
72800SOL    HW120239   8.899   5.632   5.842
72800SOL    HW220240   8.891   5.669   5.989
72801SOL     OW20241  10.695  10.704  13.071
72801SOL    HW120242  10.733  10.616  13.073
72801SOL    HW220243  10.761  10.758  13.027
72802SOL     OW20244  11.779   8.974   9.717
72802SOL    HW120245  11.749   9.064   9.704
72802SOL    HW220246  11.874   8.978   9.701
72803SOL     OW20247   2.427   3.838   5.416
72803SOL    HW120248   2.344   3.849   5.461
72803SOL    HW220249   2.460   3.754   5.447
72804SOL     OW20250   2.605  10.409   9.412
72804SOL    HW120251   2.605  10.466   9.335
72804SOL    HW220252   2.599  10.321   9.377
72805SOL     OW20253  11.263  10.172   3.644
72805SOL    HW120254  11.285  10.082   3.621
72805SOL    HW220255  11.280  10.178   3.738
72806SOL     OW20256  10.306   8.537  13.411
72806SOL    HW120257  10.255   8.552  13.490
72806SOL    HW220258  10.346   8.622  13.392
72807SOL     OW20259   8.829  13.347   6.044
72807SOL    HW120260   8.838  13.252   6.036
72807SOL    HW220261   8.865  13.381   5.962
72808SOL     OW20262  11.672   9.918   1.828
72808SOL    HW120263  11.610   9.927   1.755
72808SOL    HW220264  11.732   9.849   1.799
72809SOL     OW20265   8.132   2.210   9.048
72809SOL    HW120266   8.080   2.193   9.126
72809SOL    HW220267   8.082   2.171   8.976
72810SOL     OW20268   2.964   1.348  11.107
72810SOL    HW120269   2.982   1.414  11.040
72810SOL    HW220270   2.883   1.378  11.149
72811SOL     OW20271   1.406   7.445  14.398
72811SOL    HW120272   1.423   7.539  14.399
72811SOL    HW220273   1.357   7.429  14.479
72812SOL     OW20274   8.962   7.428   2.597
72812SOL    HW120275   8.891   7.395   2.651
72812SOL    HW220276   8.984   7.513   2.636
72813SOL     OW20277  10.631   6.046   4.931
72813SOL    HW120278  10.606   6.127   4.975
72813SOL    HW220279  10.596   6.055   4.842
72814SOL     OW20280   3.197  10.109   6.976
72814SOL    HW120281   3.165  10.021   6.995
72814SOL    HW220282   3.238  10.102   6.890
72815SOL     OW20283  12.721  13.667  11.726
72815SOL    HW120284  12.706  13.572  11.732
72815SOL    HW220285  12.792  13.676  11.663
72816SOL     OW20286   5.570   0.255  10.364
72816SOL    HW120287   5.511   0.202  10.309
72816SOL    HW220288   5.529   0.342  10.364
72817SOL     OW20289   2.888   7.026  14.301
72817SOL    HW120290   2.828   6.958  14.331
72817SOL    HW220291   2.959   7.026  14.366
72818SOL     OW20292   1.511   5.073   7.656
72818SOL    HW120293   1.416   5.069   7.659
72818SOL    HW220294   1.531   5.166   7.651
72819SOL     OW20295   7.304   4.142   4.250
72819SOL    HW120296   7.306   4.048   4.230
72819SOL    HW220297   7.292   4.145   4.345
72820SOL     OW20298   0.269  11.444   4.320
72820SOL    HW120299   0.346  11.395   4.348
72820SOL    HW220300   0.275  11.447   4.225
72821SOL     OW20301   1.427  11.725   5.804
72821SOL    HW120302   1.445  11.646   5.854
72821SOL    HW220303   1.404  11.791   5.870
72822SOL     OW20304   6.540  10.217   0.892
72822SOL    HW120305   6.474  10.278   0.859
72822SOL    HW220306   6.494  10.134   0.902
72823SOL     OW20307   2.751  10.040  14.155
72823SOL    HW120308   2.717  10.112  14.208
72823SOL    HW220309   2.684  10.027  14.088
72824SOL     OW20310   0.257   9.074  14.657
72824SOL    HW120311   0.203   9.086  14.579
72824SOL    HW220312   0.313   9.152  14.660
72825SOL     OW20313   8.923  14.868   2.673
72825SOL    HW120314   8.987  14.820   2.726
72825SOL    HW220315   8.952   0.079   2.678
72826SOL     OW20316   5.527  10.804  11.464
72826SOL    HW120317   5.620  10.814  11.481
72826SOL    HW220318   5.519  10.808  11.368
72827SOL     OW20319   9.596  12.693   0.886
72827SOL    HW120320   9.573  12.679   0.794
72827SOL    HW220321   9.664  12.628   0.903
72828SOL     OW20322  10.827  10.599   4.083
72828SOL    HW120323  10.777  10.549   4.147
72828SOL    HW220324  10.762  10.632   4.021
72829SOL     OW20325  12.493   9.503  11.197
72829SOL    HW120326  12.512   9.550  11.115
72829SOL    HW220327  12.402   9.475  11.189
72830SOL     OW20328   7.351   8.117   2.526
72830SOL    HW120329   7.393   8.190   2.481
72830SOL    HW220330   7.381   8.039   2.478
72831SOL     OW20331   5.776   9.228   8.020
72831SOL    HW120332   5.691   9.189   7.999
72831SOL    HW220333   5.774   9.315   7.980
72832SOL     OW20334   7.659  13.487  14.660
72832SOL    HW120335   7.737  13.433  14.656
72832SOL    HW220336   7.618  13.465  14.744
72833SOL     OW20337  10.626   7.062  10.082
72833SOL    HW120338  10.636   6.973  10.115
72833SOL    HW220339  10.612   7.051   9.988
72834SOL     OW20340   0.434  10.768  12.025
72834SOL    HW120341   0.340  10.780  12.037
72834SOL    HW220342   0.444  10.677  11.997
72835SOL     OW20343   8.726   8.847  10.398
72835SOL    HW120344   8.803   8.881  10.352
72835SOL    HW220345   8.761   8.811  10.479
72836SOL     OW20346   9.576   0.619  13.687
72836SOL    HW120347   9.593   0.537  13.641
72836SOL    HW220348   9.661   0.661  13.694
72837SOL     OW20349   6.577  13.670   5.662
72837SOL    HW120350   6.649  13.658   5.724
72837SOL    HW220351   6.542  13.582   5.648
72838SOL     OW20352  11.860  11.726   6.685
72838SOL    HW120353  11.840  11.786   6.613
72838SOL    HW220354  11.898  11.782   6.753
72839SOL     OW20355   7.599   4.370   8.398
72839SOL    HW120356   7.662   4.430   8.439
72839SOL    HW220357   7.618   4.285   8.437
72840SOL     OW20358   1.335   5.564  13.590
72840SOL    HW120359   1.428   5.572  13.568
72840SOL    HW220360   1.289   5.594  13.512
72841SOL     OW20361  12.098   4.759  14.674
72841SOL    HW120362  12.073   4.703  14.747
72841SOL    HW220363  12.049   4.840  14.688
72842SOL     OW20364   7.671   5.633   2.807
72842SOL    HW120365   7.583   5.606   2.832
72842SOL    HW220366   7.676   5.726   2.830
72843SOL     OW20367  11.601  13.739   4.226
72843SOL    HW120368  11.645  13.719   4.309
72843SOL    HW220369  11.581  13.833   4.232
72844SOL     OW20370   0.572   8.746   8.307
72844SOL    HW120371   0.646   8.710   8.357
72844SOL    HW220372   0.613   8.795   8.236
72845SOL     OW20373   9.803  12.873   4.787
72845SOL    HW120374   9.853  12.817   4.846
72845SOL    HW220375   9.824  12.842   4.699
72846SOL     OW20376   7.720  12.313   4.691
72846SOL    HW120377   7.798  12.354   4.728
72846SOL    HW220378   7.686  12.258   4.761
72847SOL     OW20379   8.010   6.820   0.368
72847SOL    HW120380   8.077   6.876   0.407
72847SOL    HW220381   8.057   6.767   0.304
72848SOL     OW20382   7.556   6.968   2.235
72848SOL    HW120383   7.577   7.010   2.151
72848SOL    HW220384   7.537   7.040   2.294
72849SOL     OW20385  10.662  10.141   7.297
72849SOL    HW120386  10.645  10.235   7.298
72849SOL    HW220387  10.756  10.134   7.309
72850SOL     OW20388   5.902  14.708   7.954
72850SOL    HW120389   5.975  14.717   8.016
72850SOL    HW220390   5.841  14.650   7.998
72851SOL     OW20391   4.529   4.551   8.289
72851SOL    HW120392   4.624   4.547   8.298
72851SOL    HW220393   4.500   4.460   8.297
72852SOL     OW20394   2.226   1.530   4.824
72852SOL    HW120395   2.176   1.535   4.742
72852SOL    HW220396   2.249   1.621   4.843
72853SOL     OW20397  11.008  12.016   0.543
72853SOL    HW120398  11.098  12.008   0.509
72853SOL    HW220399  10.954  11.970   0.479
72854SOL     OW20400   2.911   6.720   6.197
72854SOL    HW120401   2.822   6.711   6.232
72854SOL    HW220402   2.899   6.732   6.103
72855SOL     OW20403   0.200   8.360   6.043
72855SOL    HW120404   0.183   8.298   6.114
72855SOL    HW220405   0.116   8.371   5.999
72856SOL     OW20406  10.932   2.350  10.694
72856SOL    HW120407  10.876   2.362  10.771
72856SOL    HW220408  10.876   2.305  10.630
72857SOL     OW20409  12.859  12.153   2.236
72857SOL    HW120410  12.947  12.180   2.262
72857SOL    HW220411  12.873  12.086   2.170
72858SOL     OW20412   6.052  11.393  10.374
72858SOL    HW120413   5.993  11.449  10.323
72858SOL    HW220414   6.136  11.398  10.327
72859SOL     OW20415   7.655   7.505   6.500
72859SOL    HW120416   7.683   7.482   6.589
72859SOL    HW220417   7.579   7.449   6.484
72860SOL     OW20418  11.164   0.366   9.285
72860SOL    HW120419  11.073   0.395   9.284
72860SOL    HW220420  11.167   0.294   9.222
72861SOL     OW20421   6.313   4.544   9.230
72861SOL    HW120422   6.401   4.570   9.258
72861SOL    HW220423   6.315   4.552   9.134
72862SOL     OW20424   7.455  13.173  10.538
72862SOL    HW120425   7.503  13.256  10.540
72862SOL    HW220426   7.507  13.114  10.593
72863SOL     OW20427   8.422   0.186  12.982
72863SOL    HW120428   8.360   0.147  13.043
72863SOL    HW220429   8.393   0.156  12.896
72864SOL     OW20430   1.149   7.172   6.172
72864SOL    HW120431   1.177   7.148   6.260
72864SOL    HW220432   1.140   7.268   6.176
72865SOL     OW20433   3.831   1.845   5.865
72865SOL    HW120434   3.760   1.782   5.875
72865SOL    HW220435   3.828   1.870   5.773
72866SOL     OW20436  12.381   4.866  11.019
72866SOL    HW120437  12.342   4.781  11.001
72866SOL    HW220438  12.316   4.929  10.988
72867SOL     OW20439  10.904  11.873   3.839
72867SOL    HW120440  10.812  11.846   3.835
72867SOL    HW220441  10.919  11.916   3.755
72868SOL     OW20442   3.442  10.028  11.899
72868SOL    HW120443   3.525   9.982  11.909
72868SOL    HW220444   3.385   9.990  11.966
72869SOL     OW20445  14.407   7.176  10.493
72869SOL    HW120446  14.445   7.220  10.569
72869SOL    HW220447  14.350   7.108  10.530
72870SOL     OW20448  13.854   1.543  10.551
72870SOL    HW120449  13.892   1.459  10.578
72870SOL    HW220450  13.772   1.548  10.599
72871SOL     OW20451   3.209  12.353  13.016
72871SOL    HW120452   3.176  12.268  12.987
72871SOL    HW220453   3.278  12.332  13.079
72872SOL     OW20454   6.104   0.677   0.152
72872SOL    HW120455   6.174   0.650   0.093
72872SOL    HW220456   6.106   0.613   0.223
72873SOL     OW20457   2.551  12.358  10.852
72873SOL    HW120458   2.635  12.312  10.844
72873SOL    HW220459   2.575  12.451  10.855
72874SOL     OW20460  10.097   7.636   1.263
72874SOL    HW120461  10.155   7.702   1.225
72874SOL    HW220462  10.104   7.649   1.358
72875SOL     OW20463   9.004   2.374  14.270
72875SOL    HW120464   9.065   2.341  14.335
72875SOL    HW220465   9.012   2.315  14.196
72876SOL     OW20466   3.102   6.875  10.995
72876SOL    HW120467   3.109   6.932  11.071
72876SOL    HW220468   3.032   6.914  10.942
72877SOL     OW20469   6.660   3.797   2.032
72877SOL    HW120470   6.594   3.808   2.100
72877SOL    HW220471   6.681   3.887   2.005
72878SOL     OW20472   7.794  10.903   2.244
72878SOL    HW120473   7.797  10.992   2.208
72878SOL    HW220474   7.720  10.862   2.199
72879SOL     OW20475  14.385  13.629   6.705
72879SOL    HW120476  14.392  13.613   6.611
72879SOL    HW220477  14.330  13.707   6.712
72880SOL     OW20478   0.484   0.220   3.268
72880SOL    HW120479   0.544   0.278   3.315
72880SOL    HW220480   0.398   0.237   3.307
72881SOL     OW20481  12.726   4.069   2.606
72881SOL    HW120482  12.674   4.148   2.593
72881SOL    HW220483  12.731   4.029   2.519
72882SOL     OW20484   5.943  10.658   1.026
72882SOL    HW120485   5.925  10.690   0.937
72882SOL    HW220486   6.032  10.623   1.021
72883SOL     OW20487   0.418   2.869   0.765
72883SOL    HW120488   0.327   2.882   0.793
72883SOL    HW220489   0.419   2.900   0.674
72884SOL     OW20490   0.035   9.840  11.559
72884SOL    HW120491   0.042   9.781  11.483
72884SOL    HW220492  14.874   9.786  11.627
72885SOL     OW20493   4.098   4.271   9.511
72885SOL    HW120494   4.100   4.357   9.469
72885SOL    HW220495   4.014   4.269   9.558
72886SOL     OW20496   6.397   2.131   3.304
72886SOL    HW120497   6.330   2.196   3.326
72886SOL    HW220498   6.479   2.180   3.301
72887SOL     OW20499   5.325   4.825   8.625
72887SOL    HW120500   5.324   4.778   8.709
72887SOL    HW220501   5.256   4.783   8.575
72888SOL     OW20502   7.274   1.501   8.550
72888SOL    HW120503   7.349   1.478   8.495
72888SOL    HW220504   7.297   1.585   8.589
72889SOL     OW20505   7.183  11.473   8.513
72889SOL    HW120506   7.187  11.473   8.417
72889SOL    HW220507   7.194  11.565   8.537
72890SOL     OW20508   0.158  10.570   7.460
72890SOL    HW120509   0.080  10.565   7.515
72890SOL    HW220510   0.231  10.555   7.519
72891SOL     OW20511  12.150  13.701   6.018
72891SOL    HW120512  12.179  13.613   5.998
72891SOL    HW220513  12.072  13.689   6.073
72892SOL     OW20514   8.026   2.378   0.310
72892SOL    HW120515   8.113   2.388   0.270
72892SOL    HW220516   8.021   2.285   0.332
72893SOL     OW20517   5.828  11.524   3.311
72893SOL    HW120518   5.788  11.528   3.398
72893SOL    HW220519   5.913  11.567   3.322
72894SOL     OW20520   0.639   0.554  10.186
72894SOL    HW120521   0.626   0.608  10.264
72894SOL    HW220522   0.734   0.543  10.181
72895SOL     OW20523   5.203  11.083  13.177
72895SOL    HW120524   5.164  11.117  13.258
72895SOL    HW220525   5.214  10.989  13.193
72896SOL     OW20526   7.323   9.686  14.101
72896SOL    HW120527   7.263   9.757  14.080
72896SOL    HW220528   7.265   9.612  14.122
72897SOL     OW20529   4.343  10.891  12.825
72897SOL    HW120530   4.379  10.977  12.802
72897SOL    HW220531   4.255  10.892  12.788
72898SOL     OW20532   9.571   1.988   2.534
72898SOL    HW120533   9.587   1.906   2.487
72898SOL    HW220534   9.652   2.037   2.526
72899SOL     OW20535   6.947   8.552   9.632
72899SOL    HW120536   6.986   8.611   9.567
72899SOL    HW220537   6.943   8.467   9.588
72900SOL     OW20538   4.325   5.838   3.332
72900SOL    HW120539   4.272   5.865   3.257
72900SOL    HW220540   4.281   5.761   3.366
72901SOL     OW20541   1.179   9.103  11.291
72901SOL    HW120542   1.169   9.069  11.202
72901SOL    HW220543   1.255   9.161  11.286
72902SOL     OW20544  10.730   1.740   1.853
72902SOL    HW120545  10.667   1.784   1.795
72902SOL    HW220546  10.704   1.648   1.852
72903SOL     OW20547   8.029  13.779   7.950
72903SOL    HW120548   8.116  13.754   7.921
72903SOL    HW220549   7.975  13.777   7.870
72904SOL     OW20550   4.144  11.693  11.761
72904SOL    HW120551   4.221  11.723  11.809
72904SOL    HW220552   4.071  11.706  11.822
72905SOL     OW20553   8.963   9.180   3.641
72905SOL    HW120554   8.945   9.164   3.734
72905SOL    HW220555   8.933   9.101   3.597
72906SOL     OW20556   8.450  14.727   4.109
72906SOL    HW120557   8.358  14.707   4.127
72906SOL    HW220558   8.461  14.708   4.016
72907SOL     OW20559   1.093   4.931   4.860
72907SOL    HW120560   1.072   4.999   4.796
72907SOL    HW220561   1.072   4.849   4.816
72908SOL     OW20562   7.958  13.079   4.649
72908SOL    HW120563   7.906  13.153   4.617
72908SOL    HW220564   8.027  13.120   4.701
72909SOL     OW20565   5.722   9.267  14.018
72909SOL    HW120566   5.756   9.350  13.985
72909SOL    HW220567   5.671   9.231  13.945
72910SOL     OW20568   8.220  10.901   6.848
72910SOL    HW120569   8.197  10.815   6.882
72910SOL    HW220570   8.138  10.938   6.816
72911SOL     OW20571   8.499   5.987  14.255
72911SOL    HW120572   8.592   5.966  14.269
72911SOL    HW220573   8.461   5.984  14.342
72912SOL     OW20574   3.074   4.385   8.400
72912SOL    HW120575   3.010   4.376   8.471
72912SOL    HW220576   3.159   4.366   8.441
72913SOL     OW20577   4.346   4.595   7.119
72913SOL    HW120578   4.342   4.502   7.100
72913SOL    HW220579   4.255   4.623   7.124
72914SOL     OW20580   6.770   8.957  12.569
72914SOL    HW120581   6.805   8.993  12.487
72914SOL    HW220582   6.818   9.002  12.638
72915SOL     OW20583  11.416   6.491   8.561
72915SOL    HW120584  11.467   6.411   8.547
72915SOL    HW220585  11.460   6.557   8.507
72916SOL     OW20586   3.359   2.275  12.046
72916SOL    HW120587   3.441   2.292  12.092
72916SOL    HW220588   3.335   2.358  12.006
72917SOL     OW20589  12.263   9.519   4.186
72917SOL    HW120590  12.325   9.539   4.116
72917SOL    HW220591  12.231   9.604   4.215
72918SOL     OW20592  13.525   7.209   1.129
72918SOL    HW120593  13.543   7.148   1.057
72918SOL    HW220594  13.605   7.209   1.181
72919SOL     OW20595   4.892   3.731   3.879
72919SOL    HW120596   4.960   3.667   3.904
72919SOL    HW220597   4.903   3.803   3.942
72920SOL     OW20598  14.117   4.171  11.355
72920SOL    HW120599  14.058   4.136  11.288
72920SOL    HW220600  14.062   4.229  11.408
72921SOL     OW20601  11.649   1.000   6.693
72921SOL    HW120602  11.656   1.053   6.613
72921SOL    HW220603  11.622   1.063   6.760
72922SOL     OW20604  10.744   6.361   8.610
72922SOL    HW120605  10.808   6.292   8.626
72922SOL    HW220606  10.659   6.316   8.615
72923SOL     OW20607   4.292   7.091  12.521
72923SOL    HW120608   4.287   7.162  12.585
72923SOL    HW220609   4.330   7.018  12.569
72924SOL     OW20610  10.765  13.035   3.825
72924SOL    HW120611  10.848  13.033   3.871
72924SOL    HW220612  10.704  12.990   3.883
72925SOL     OW20613  12.289  10.762  13.701
72925SOL    HW120614  12.271  10.692  13.763
72925SOL    HW220615  12.203  10.797  13.677
72926SOL     OW20616   7.847   5.216   7.596
72926SOL    HW120617   7.934   5.208   7.558
72926SOL    HW220618   7.838   5.139   7.653
72927SOL     OW20619   0.722   9.631   4.902
72927SOL    HW120620   0.735   9.715   4.859
72927SOL    HW220621   0.627   9.617   4.901
72928SOL     OW20622   5.892  13.184   0.216
72928SOL    HW120623   5.921  13.167   0.126
72928SOL    HW220624   5.911  13.277   0.230
72929SOL     OW20625  13.237   8.288   5.593
72929SOL    HW120626  13.203   8.199   5.608
72929SOL    HW220627  13.159   8.343   5.591
72930SOL     OW20628   2.720   5.288  10.342
72930SOL    HW120629   2.672   5.268  10.262
72930SOL    HW220630   2.812   5.277  10.318
72931SOL     OW20631  13.387   3.945   8.868
72931SOL    HW120632  13.379   4.007   8.940
72931SOL    HW220633  13.364   3.860   8.907
72932SOL     OW20634   4.367   0.329   1.213
72932SOL    HW120635   4.386   0.412   1.256
72932SOL    HW220636   4.451   0.284   1.211
72933SOL     OW20637  13.087   1.284  14.610
72933SOL    HW120638  12.993   1.295  14.627
72933SOL    HW220639  13.125   1.268  14.697
72934SOL     OW20640   1.809   5.213   6.682
72934SOL    HW120641   1.851   5.233   6.765
72934SOL    HW220642   1.746   5.285   6.669
72935SOL     OW20643  12.188   7.915   4.876
72935SOL    HW120644  12.218   8.006   4.884
72935SOL    HW220645  12.106   7.912   4.926
72936SOL     OW20646  10.908   8.281   6.542
72936SOL    HW120647  10.850   8.328   6.602
72936SOL    HW220648  10.875   8.302   6.455
72937SOL     OW20649   1.770   7.835   3.565
72937SOL    HW120650   1.676   7.819   3.567
72937SOL    HW220651   1.780   7.908   3.503
72938SOL     OW20652  11.832   4.347   0.238
72938SOL    HW120653  11.913   4.394   0.256
72938SOL    HW220654  11.833   4.273   0.299
72939SOL     OW20655   7.629  11.663  11.500
72939SOL    HW120656   7.658  11.583  11.545
72939SOL    HW220657   7.553  11.692  11.551
72940SOL     OW20658  14.232   4.873   6.091
72940SOL    HW120659  14.170   4.820   6.041
72940SOL    HW220660  14.189   4.957   6.102
72941SOL     OW20661   4.390   7.133   1.481
72941SOL    HW120662   4.425   7.215   1.515
72941SOL    HW220663   4.468   7.082   1.457
72942SOL     OW20664   4.621   3.540  14.694
72942SOL    HW120665   4.624   3.619  14.640
72942SOL    HW220666   4.576   3.568  14.774
72943SOL     OW20667  13.571  12.733   2.281
72943SOL    HW120668  13.506  12.691   2.338
72943SOL    HW220669  13.644  12.754   2.340
72944SOL     OW20670  14.323   1.124  11.340
72944SOL    HW120671  14.373   1.114  11.421
72944SOL    HW220672  14.378   1.085  11.273
72945SOL     OW20673  14.684   3.944   7.796
72945SOL    HW120674  14.618   3.999   7.752
72945SOL    HW220675  14.760   3.946   7.737
72946SOL     OW20676   6.512   0.077   3.143
72946SOL    HW120677   6.468   0.059   3.060
72946SOL    HW220678   6.485   0.006   3.201
72947SOL     OW20679   0.952  11.511   9.387
72947SOL    HW120680   0.877  11.538   9.440
72947SOL    HW220681   0.915  11.495   9.300
72948SOL     OW20682   6.739   4.405  13.832
72948SOL    HW120683   6.715   4.447  13.914
72948SOL    HW220684   6.716   4.313  13.844
72949SOL     OW20685  12.620  10.845   3.596
72949SOL    HW120686  12.532  10.854   3.560
72949SOL    HW220687  12.624  10.908   3.668
72950SOL     OW20688   9.336   8.924  13.903
72950SOL    HW120689   9.405   8.980  13.867
72950SOL    HW220690   9.262   8.938  13.844
72951SOL     OW20691   1.885  14.271   2.534
72951SOL    HW120692   1.850  14.305   2.451
72951SOL    HW220693   1.959  14.217   2.508
72952SOL     OW20694  10.214   6.169   0.440
72952SOL    HW120695  10.230   6.125   0.524
72952SOL    HW220696  10.246   6.258   0.453
72953SOL     OW20697  13.320   3.921   1.216
72953SOL    HW120698  13.329   3.852   1.150
72953SOL    HW220699  13.230   3.914   1.246
72954SOL     OW20700  13.226   3.053  13.853
72954SOL    HW120701  13.201   3.106  13.777
72954SOL    HW220702  13.318   3.031  13.837
72955SOL     OW20703  11.796   0.326  13.786
72955SOL    HW120704  11.752   0.301  13.867
72955SOL    HW220705  11.845   0.405  13.808
72956SOL     OW20706   5.450   8.541   6.607
72956SOL    HW120707   5.407   8.615   6.649
72956SOL    HW220708   5.459   8.567   6.515
72957SOL     OW20709   0.494  11.156  10.648
72957SOL    HW120710   0.582  11.189  10.666
72957SOL    HW220711   0.468  11.110  10.728
72958SOL     OW20712  13.142   0.344   0.207
72958SOL    HW120713  13.088   0.409   0.162
72958SOL    HW220714  13.095   0.262   0.195
72959SOL     OW20715   1.251  11.732   5.603
72959SOL    HW120716   1.312  11.746   5.675
72959SOL    HW220717   1.288  11.780   5.529
72960SOL     OW20718   7.131   2.263  12.418
72960SOL    HW120719   7.165   2.194  12.361
72960SOL    HW220720   7.037   2.244  12.424
72961SOL     OW20721  13.250   5.745   6.244
72961SOL    HW120722  13.213   5.832   6.255
72961SOL    HW220723  13.335   5.749   6.288
72962SOL     OW20724  10.890  10.793   6.342
72962SOL    HW120725  10.955  10.796   6.271
72962SOL    HW220726  10.823  10.732   6.310
72963SOL     OW20727  11.028   8.864   3.536
72963SOL    HW120728  10.937   8.845   3.514
72963SOL    HW220729  11.048   8.806   3.610
72964SOL     OW20730  11.299   7.107  13.824
72964SOL    HW120731  11.276   7.187  13.777
72964SOL    HW220732  11.320   7.044  13.756
72965SOL     OW20733   7.117   2.582  13.251
72965SOL    HW120734   7.146   2.494  13.227
72965SOL    HW220735   7.199   2.633  13.259
72966SOL     OW20736   2.912   0.474  13.859
72966SOL    HW120737   2.969   0.526  13.915
72966SOL    HW220738   2.954   0.388  13.854
72967SOL     OW20739  12.990  14.450   7.451
72967SOL    HW120740  12.912  14.395   7.461
72967SOL    HW220741  13.060  14.389   7.429
72968SOL     OW20742   8.529  10.570   4.013
72968SOL    HW120743   8.440  10.599   3.996
72968SOL    HW220744   8.577  10.590   3.932
72969SOL     OW20745  14.755   5.756  12.027
72969SOL    HW120746  14.715   5.740  11.941
72969SOL    HW220747  14.785   5.847  12.023
72970SOL     OW20748   4.692  14.648   5.870
72970SOL    HW120749   4.672  14.673   5.960
72970SOL    HW220750   4.671  14.727   5.819
72971SOL     OW20751   3.773   9.018  13.167
72971SOL    HW120752   3.732   9.095  13.127
72971SOL    HW220753   3.703   8.954  13.171
72972SOL     OW20754  11.029   1.448  14.738
72972SOL    HW120755  11.061   1.482  14.655
72972SOL    HW220756  11.069   1.361  14.744
72973SOL     OW20757   7.517  12.237   0.156
72973SOL    HW120758   7.424  12.259   0.163
72973SOL    HW220759   7.519  12.142   0.162
72974SOL     OW20760   5.772  12.728   2.305
72974SOL    HW120761   5.867  12.735   2.297
72974SOL    HW220762   5.748  12.655   2.247
72975SOL     OW20763   2.002  10.937  10.847
72975SOL    HW120764   2.026  10.870  10.910
72975SOL    HW220765   2.067  10.928  10.777
72976SOL     OW20766   7.301   1.024   7.814
72976SOL    HW120767   7.285   0.940   7.858
72976SOL    HW220768   7.380   1.009   7.762
72977SOL     OW20769  11.532   0.769   7.953
72977SOL    HW120770  11.462   0.809   7.901
72977SOL    HW220771  11.502   0.679   7.968
72978SOL     OW20772  10.880  14.749  12.906
72978SOL    HW120773  10.927  14.829  12.882
72978SOL    HW220774  10.862  14.705  12.823
72979SOL     OW20775   4.893   7.084   2.384
72979SOL    HW120776   4.942   7.030   2.446
72979SOL    HW220777   4.819   7.030   2.357
72980SOL     OW20778   5.326   3.162   9.251
72980SOL    HW120779   5.346   3.098   9.182
72980SOL    HW220780   5.368   3.243   9.222
72981SOL     OW20781   1.879   0.705  11.816
72981SOL    HW120782   1.968   0.690  11.848
72981SOL    HW220783   1.892   0.758  11.737
72982SOL     OW20784   2.374   4.102  14.318
72982SOL    HW120785   2.288   4.129  14.351
72982SOL    HW220786   2.369   4.116  14.224
72983SOL     OW20787  12.863   1.861   8.823
72983SOL    HW120788  12.914   1.782   8.806
72983SOL    HW220789  12.923   1.919   8.869
72984SOL     OW20790   8.063   4.380   9.053
72984SOL    HW120791   8.022   4.463   9.028
72984SOL    HW220792   8.099   4.346   8.971
72985SOL     OW20793   2.824   5.368   6.042
72985SOL    HW120794   2.858   5.420   5.970
72985SOL    HW220795   2.865   5.282   6.031
72986SOL     OW20796   3.335   4.332   7.587
72986SOL    HW120797   3.366   4.317   7.498
72986SOL    HW220798   3.240   4.332   7.580
72987SOL     OW20799  12.336   9.960   8.675
72987SOL    HW120800  12.252   9.998   8.701
72987SOL    HW220801  12.394   9.981   8.748
72988SOL     OW20802   3.858   3.832  13.688
72988SOL    HW120803   3.825   3.892  13.755
72988SOL    HW220804   3.935   3.876  13.653
72989SOL     OW20805   1.599  10.780  12.812
72989SOL    HW120806   1.656  10.706  12.788
72989SOL    HW220807   1.564  10.756  12.898
72990SOL     OW20808   5.853   9.933  11.006
72990SOL    HW120809   5.899   9.855  11.037
72990SOL    HW220810   5.920  10.001  11.002
72991SOL     OW20811   8.811   0.480  12.046
72991SOL    HW120812   8.868   0.552  12.019
72991SOL    HW220813   8.860   0.435  12.114
72992SOL     OW20814  12.195   3.834   2.706
72992SOL    HW120815  12.273   3.784   2.732
72992SOL    HW220816  12.230   3.904   2.650
72993SOL     OW20817  12.940   5.857  10.011
72993SOL    HW120818  13.033   5.864   9.989
72993SOL    HW220819  12.936   5.876  10.105
72994SOL     OW20820   4.025  14.025   8.117
72994SOL    HW120821   3.968  14.063   8.185
72994SOL    HW220822   4.084  14.096   8.093
72995SOL     OW20823  13.667  12.837   5.987
72995SOL    HW120824  13.683  12.749   6.021
72995SOL    HW220825  13.572  12.848   5.993
72996SOL     OW20826  13.933   0.954   5.546
72996SOL    HW120827  13.948   0.867   5.584
72996SOL    HW220828  13.897   0.936   5.459
72997SOL     OW20829   9.983   0.067  13.834
72997SOL    HW120830   9.943   0.057  13.921
72997SOL    HW220831  10.069   0.105  13.852
72998SOL     OW20832   2.790  12.405  14.765
72998SOL    HW120833   2.875  12.445  14.784
72998SOL    HW220834   2.795  12.319  14.806
72999SOL     OW20835   5.019   3.904   4.959
72999SOL    HW120836   5.020   3.917   4.864
72999SOL    HW220837   5.073   3.826   4.974
73000SOL     OW20838   0.702   6.870   7.390
73000SOL    HW120839   0.735   6.861   7.300
73000SOL    HW220840   0.757   6.937   7.430
73001SOL     OW20841   3.576   7.010   8.738
73001SOL    HW120842   3.637   6.979   8.805
73001SOL    HW220843   3.557   7.100   8.762
73002SOL     OW20844   8.814   5.939  11.660
73002SOL    HW120845   8.829   6.033  11.650
73002SOL    HW220846   8.750   5.932  11.730
73003SOL     OW20847   5.217   4.743   5.856
73003SOL    HW120848   5.228   4.792   5.775
73003SOL    HW220849   5.198   4.653   5.828
73004SOL     OW20850   4.350   9.749  13.069
73004SOL    HW120851   4.279   9.802  13.105
73004SOL    HW220852   4.312   9.663  13.056
73005SOL     OW20853  12.555   2.757   2.289
73005SOL    HW120854  12.538   2.668   2.318
73005SOL    HW220855  12.469   2.798   2.283
73006SOL     OW20856   3.063   6.489   6.123
73006SOL    HW120857   3.127   6.536   6.070
73006SOL    HW220858   3.025   6.556   6.181
73007SOL     OW20859   3.102   4.891   8.655
73007SOL    HW120860   3.125   4.907   8.747
73007SOL    HW220861   3.184   4.904   8.607
73008SOL     OW20862   4.021   1.997  13.842
73008SOL    HW120863   4.022   1.915  13.892
73008SOL    HW220864   3.942   2.041  13.870
73009SOL     OW20865   8.082   9.617  13.081
73009SOL    HW120866   8.093   9.528  13.113
73009SOL    HW220867   8.171   9.650  13.070
73010SOL     OW20868  13.355   6.210   6.246
73010SOL    HW120869  13.408   6.230   6.323
73010SOL    HW220870  13.419   6.182   6.180
73011SOL     OW20871   3.434   3.850   7.843
73011SOL    HW120872   3.480   3.853   7.928
73011SOL    HW220873   3.462   3.930   7.798
73012SOL     OW20874   4.101   3.781   0.661
73012SOL    HW120875   4.055   3.704   0.694
73012SOL    HW220876   4.058   3.800   0.578
73013SOL     OW20877   5.718  13.623  10.386
73013SOL    HW120878   5.653  13.661  10.445
73013SOL    HW220879   5.718  13.682  10.310
73014SOL     OW20880  11.877  14.356  11.494
73014SOL    HW120881  11.793  14.385  11.457
73014SOL    HW220882  11.941  14.418  11.459
73015SOL     OW20883   2.194   8.001  10.755
73015SOL    HW120884   2.107   7.965  10.774
73015SOL    HW220885   2.228   8.029  10.840
73016SOL     OW20886   9.365  10.633   1.148
73016SOL    HW120887   9.454  10.659   1.172
73016SOL    HW220888   9.341  10.694   1.079
73017SOL     OW20889  14.801   8.703   9.047
73017SOL    HW120890   0.016   8.705   9.031
73017SOL    HW220891  14.761   8.718   8.962
73018SOL     OW20892  13.158   9.273   0.115
73018SOL    HW120893  13.064   9.289   0.126
73018SOL    HW220894  13.180   9.315   0.032
73019SOL     OW20895   4.556   1.778   8.071
73019SOL    HW120896   4.470   1.745   8.096
73019SOL    HW220897   4.537   1.853   8.014
73020SOL     OW20898   6.410   2.571  14.629
73020SOL    HW120899   6.334   2.513  14.616
73020SOL    HW220900   6.394   2.612  14.714
73021SOL     OW20901  14.677   1.518   1.612
73021SOL    HW120902  14.661   1.610   1.629
73021SOL    HW220903  14.708   1.515   1.521
73022SOL     OW20904  11.247   3.967   8.419
73022SOL    HW120905  11.160   3.997   8.447
73022SOL    HW220906  11.260   3.885   8.466
73023SOL     OW20907   1.526   3.278   1.637
73023SOL    HW120908   1.593   3.345   1.625
73023SOL    HW220909   1.461   3.296   1.569
73024SOL     OW20910   5.239   5.887   6.516
73024SOL    HW120911   5.162   5.906   6.569
73024SOL    HW220912   5.294   5.964   6.524
73025SOL     OW20913   1.672   0.979   6.752
73025SOL    HW120914   1.750   1.034   6.739
73025SOL    HW220915   1.600   1.041   6.758
73026SOL     OW20916   8.353   8.002   3.179
73026SOL    HW120917   8.278   8.061   3.176
73026SOL    HW220918   8.380   8.002   3.271
73027SOL     OW20919   0.150   0.731   7.179
73027SOL    HW120920   0.162   0.704   7.270
73027SOL    HW220921   0.229   0.782   7.159
73028SOL     OW20922  11.311  11.020   7.316
73028SOL    HW120923  11.323  11.032   7.222
73028SOL    HW220924  11.348  10.934   7.335
73029SOL     OW20925   8.411   0.657  10.266
73029SOL    HW120926   8.329   0.682  10.310
73029SOL    HW220927   8.480   0.696  10.320
73030SOL     OW20928   6.449   5.810  12.753
73030SOL    HW120929   6.356   5.797  12.771
73030SOL    HW220930   6.484   5.846  12.835
73031SOL     OW20931   6.226  14.205  10.751
73031SOL    HW120932   6.279  14.144  10.702
73031SOL    HW220933   6.136  14.176  10.737
73032SOL     OW20934   9.098   0.214  12.358
73032SOL    HW120935   9.125   0.234  12.447
73032SOL    HW220936   9.012   0.255  12.349
73033SOL     OW20937   7.520   8.895   3.952
73033SOL    HW120938   7.478   8.817   3.918
73033SOL    HW220939   7.572   8.928   3.879
73034SOL     OW20940  12.575   9.319   9.901
73034SOL    HW120941  12.625   9.392   9.865
73034SOL    HW220942  12.612   9.242   9.858
73035SOL     OW20943  10.164   2.657   9.666
73035SOL    HW120944  10.148   2.610   9.584
73035SOL    HW220945  10.078   2.665   9.706
73036SOL     OW20946   4.087   1.752  13.246
73036SOL    HW120947   4.086   1.660  13.274
73036SOL    HW220948   3.995   1.776  13.236
73037SOL     OW20949   1.365   4.353  11.155
73037SOL    HW120950   1.302   4.424  11.140
73037SOL    HW220951   1.446   4.385  11.115
73038SOL     OW20952   1.245  13.597   9.888
73038SOL    HW120953   1.237  13.563   9.977
73038SOL    HW220954   1.313  13.664   9.894
73039SOL     OW20955   9.004  12.415   9.974
73039SOL    HW120956   8.931  12.353   9.970
73039SOL    HW220957   8.962  12.501   9.979
73040SOL     OW20958  10.292  10.065   1.211
73040SOL    HW120959  10.309   9.982   1.256
73040SOL    HW220960  10.301  10.132   1.279
73041SOL     OW20961   2.938   0.259   2.231
73041SOL    HW120962   2.862   0.230   2.181
73041SOL    HW220963   2.901   0.292   2.313
73042SOL     OW20964   9.347   8.272   0.100
73042SOL    HW120965   9.287   8.259   0.027
73042SOL    HW220966   9.429   8.231   0.071
73043SOL     OW20967  12.103   1.289   3.903
73043SOL    HW120968  12.127   1.197   3.894
73043SOL    HW220969  12.092   1.319   3.813
73044SOL     OW20970  13.149   7.538   3.636
73044SOL    HW120971  13.113   7.450   3.643
73044SOL    HW220972  13.205   7.548   3.713
73045SOL     OW20973   7.260   4.040   0.694
73045SOL    HW120974   7.244   4.116   0.750
73045SOL    HW220975   7.264   4.076   0.605
73046SOL     OW20976   3.274  11.265   2.287
73046SOL    HW120977   3.305  11.335   2.344
73046SOL    HW220978   3.284  11.185   2.339
73047SOL     OW20979   3.298  12.491  13.257
73047SOL    HW120980   3.287  12.556  13.188
73047SOL    HW220981   3.393  12.482  13.267
73048SOL     OW20982  12.554  12.474   2.556
73048SOL    HW120983  12.578  12.495   2.646
73048SOL    HW220984  12.461  12.450   2.562
73049SOL     OW20985  13.239  13.154   8.009
73049SOL    HW120986  13.180  13.222   7.976
73049SOL    HW220987  13.261  13.101   7.933
73050SOL     OW20988   0.625   4.856  11.306
73050SOL    HW120989   0.568   4.786  11.337
73050SOL    HW220990   0.567   4.931  11.294
73051SOL     OW20991  13.419   0.909   6.657
73051SOL    HW120992  13.387   0.878   6.742
73051SOL    HW220993  13.378   0.995   6.645
73052SOL     OW20994   4.422   5.597  13.302
73052SOL    HW120995   4.499   5.648  13.275
73052SOL    HW220996   4.441   5.575  13.394
73053SOL     OW20997  10.348   2.041  12.235
73053SOL    HW120998  10.407   1.969  12.256
73053SOL    HW220999  10.407   2.116  12.219
73054SOL     OW21000  10.329  11.824   5.129
73054SOL    HW121001  10.354  11.916   5.129
73054SOL    HW221002  10.336  11.797   5.037
73055SOL     OW21003   8.158   5.543  10.266
73055SOL    HW121004   8.064   5.551  10.283
73055SOL    HW221005   8.165   5.528  10.172
73056SOL     OW21006   5.358  13.924  10.072
73056SOL    HW121007   5.274  13.967  10.056
73056SOL    HW221008   5.416  13.995  10.101
73057SOL     OW21009   1.009   3.902   8.399
73057SOL    HW121010   1.048   3.939   8.478
73057SOL    HW221011   1.064   3.934   8.327
73058SOL     OW21012  14.197  10.842   5.218
73058SOL    HW121013  14.206  10.783   5.143
73058SOL    HW221014  14.177  10.927   5.180
73059SOL     OW21015   7.619  13.784  14.599
73059SOL    HW121016   7.546  13.784  14.536
73059SOL    HW221017   7.641  13.692  14.609
73060SOL     OW21018   2.001   8.135   9.268
73060SOL    HW121019   2.074   8.153   9.208
73060SOL    HW221020   2.023   8.051   9.308
73061SOL     OW21021  14.285   3.073  11.992
73061SOL    HW121022  14.319   3.114  11.913
73061SOL    HW221023  14.349   3.005  12.013
73062SOL     OW21024   6.955  11.660   5.908
73062SOL    HW121025   6.876  11.704   5.877
73062SOL    HW221026   7.004  11.639   5.829
73063SOL     OW21027   9.986  12.756  14.729
73063SOL    HW121028  10.030  12.716  14.654
73063SOL    HW221029  10.015  12.848  14.727
73064SOL     OW21030   5.419   3.066  10.863
73064SOL    HW121031   5.464   3.023  10.790
73064SOL    HW221032   5.476   3.051  10.938
73065SOL     OW21033   7.089   4.821  13.348
73065SOL    HW121034   7.002   4.858  13.332
73065SOL    HW221035   7.117   4.861  13.430
73066SOL     OW21036   1.559  11.205   4.892
73066SOL    HW121037   1.558  11.213   4.796
73066SOL    HW221038   1.468  11.184   4.915
73067SOL     OW21039  14.130  12.148   5.219
73067SOL    HW121040  14.040  12.160   5.249
73067SOL    HW221041  14.148  12.226   5.166
73068SOL     OW21042   9.805   7.358  11.040
73068SOL    HW121043   9.773   7.335  10.953
73068SOL    HW221044   9.877   7.420  11.024
73069SOL     OW21045   9.055   1.331   5.971
73069SOL    HW121046   9.051   1.282   6.054
73069SOL    HW221047   9.144   1.363   5.966
73070SOL     OW21048   0.072  13.636  12.015
73070SOL    HW121049   0.161  13.658  11.986
73070SOL    HW221050   0.016  13.665  11.943
73071SOL     OW21051   8.236  10.597  12.852
73071SOL    HW121052   8.240  10.562  12.941
73071SOL    HW221053   8.204  10.523  12.799
73072SOL     OW21054   9.045   4.935   7.184
73072SOL    HW121055   9.125   4.986   7.184
73072SOL    HW221056   8.989   4.976   7.250
73073SOL     OW21057  10.662  11.135   7.425
73073SOL    HW121058  10.723  11.155   7.355
73073SOL    HW221059  10.629  11.047   7.405
73074SOL     OW21060  14.717   0.969  13.322
73074SOL    HW121061  14.635   1.018  13.319
73074SOL    HW221062  14.690   0.877  13.316
73075SOL     OW21063   7.018   6.548   3.736
73075SOL    HW121064   7.053   6.595   3.660
73075SOL    HW221065   6.981   6.467   3.700
73076SOL     OW21066   3.917  11.615   1.968
73076SOL    HW121067   3.866  11.684   1.927
73076SOL    HW221068   3.927  11.643   2.059
73077SOL     OW21069   1.472   1.970  11.191
73077SOL    HW121070   1.517   1.887  11.173
73077SOL    HW221071   1.404   1.975  11.123
73078SOL     OW21072   9.752  13.066   3.616
73078SOL    HW121073   9.730  12.981   3.653
73078SOL    HW221074   9.683  13.084   3.552
73079SOL     OW21075   7.303   5.992  14.838
73079SOL    HW121076   7.252   5.953  14.767
73079SOL    HW221077   7.252   6.069  14.864
73080SOL     OW21078   5.506  10.686   9.602
73080SOL    HW121079   5.598  10.709   9.592
73080SOL    HW221080   5.469  10.695   9.514
73081SOL     OW21081   3.192  13.016   2.864
73081SOL    HW121082   3.157  12.929   2.844
73081SOL    HW221083   3.118  13.065   2.900
73082SOL     OW21084  12.454  13.776   9.054
73082SOL    HW121085  12.486  13.863   9.080
73082SOL    HW221086  12.383  13.758   9.115
73083SOL     OW21087   9.846   6.246   7.744
73083SOL    HW121088   9.923   6.249   7.688
73083SOL    HW221089   9.832   6.337   7.771
73084SOL     OW21090   9.354  13.044   2.141
73084SOL    HW121091   9.400  13.093   2.209
73084SOL    HW221092   9.337  12.958   2.180
73085SOL     OW21093  12.194   3.508  10.907
73085SOL    HW121094  12.119   3.523  10.965
73085SOL    HW221095  12.268   3.497  10.966
73086SOL     OW21096   5.242  11.732  10.971
73086SOL    HW121097   5.256  11.825  10.954
73086SOL    HW221098   5.302  11.688  10.911
73087SOL     OW21099   9.588   0.406   7.284
73087SOL    HW121100   9.590   0.419   7.189
73087SOL    HW221101   9.536   0.480   7.317
73088SOL     OW21102   8.393   6.515  12.668
73088SOL    HW121103   8.448   6.538  12.743
73088SOL    HW221104   8.454   6.511  12.594
73089SOL     OW21105  13.993   8.590  13.772
73089SOL    HW121106  13.958   8.570  13.859
73089SOL    HW221107  14.088   8.583  13.783
73090SOL     OW21108   5.330  12.613   7.235
73090SOL    HW121109   5.239  12.583   7.229
73090SOL    HW221110   5.331  12.671   7.312
73091SOL     OW21111   4.917   2.608   5.322
73091SOL    HW121112   4.977   2.539   5.293
73091SOL    HW221113   4.887   2.648   5.241
73092SOL     OW21114  10.267   9.155   6.279
73092SOL    HW121115  10.219   9.144   6.361
73092SOL    HW221116  10.273   9.249   6.267
73093SOL     OW21117   6.526   4.464   5.312
73093SOL    HW121118   6.579   4.495   5.385
73093SOL    HW221119   6.437   4.494   5.333
73094SOL     OW21120  11.126   5.071   2.228
73094SOL    HW121121  11.181   5.146   2.248
73094SOL    HW221122  11.079   5.097   2.148
73095SOL     OW21123   5.525   4.306   5.399
73095SOL    HW121124   5.466   4.264   5.462
73095SOL    HW221125   5.583   4.360   5.453
73096SOL     OW21126  14.414  11.284   5.202
73096SOL    HW121127  14.320  11.266   5.203
73096SOL    HW221128  14.427  11.343   5.128
73097SOL     OW21129   0.035  11.993   7.491
73097SOL    HW121130  14.848  11.924   7.494
73097SOL    HW221131   0.102  11.964   7.553
73098SOL     OW21132   4.016   6.291   6.789
73098SOL    HW121133   3.995   6.289   6.696
73098SOL    HW221134   4.040   6.382   6.807
73099SOL     OW21135   9.971   4.186  10.903
73099SOL    HW121136   9.983   4.178  10.809
73099SOL    HW221137   9.904   4.120  10.924
73100SOL     OW21138   2.446   5.947  12.671
73100SOL    HW121139   2.424   5.984  12.757
73100SOL    HW221140   2.467   6.023  12.617
73101SOL     OW21141   6.651   3.070   0.870
73101SOL    HW121142   6.590   3.135   0.903
73101SOL    HW221143   6.614   2.986   0.897
73102SOL     OW21144   1.157   8.073   2.334
73102SOL    HW121145   1.132   8.146   2.391
73102SOL    HW221146   1.252   8.071   2.337
73103SOL     OW21147   5.968  11.483  14.514
73103SOL    HW121148   5.884  11.452  14.482
73103SOL    HW221149   6.030  11.460  14.444
73104SOL     OW21150  11.845  14.422   0.232
73104SOL    HW121151  11.813  14.379   0.153
73104SOL    HW221152  11.887  14.502   0.201
73105SOL     OW21153   7.170  11.788   7.671
73105SOL    HW121154   7.183  11.721   7.603
73105SOL    HW221155   7.090  11.760   7.716
73106SOL     OW21156  12.702   0.287   0.834
73106SOL    HW121157  12.728   0.199   0.858
73106SOL    HW221158  12.713   0.338   0.914
73107SOL     OW21159  10.193   0.421   7.961
73107SOL    HW121160  10.237   0.401   7.878
73107SOL    HW221161  10.187   0.337   8.006
73108SOL     OW21162   0.392   6.903   8.355
73108SOL    HW121163   0.397   6.870   8.265
73108SOL    HW221164   0.483   6.923   8.378
73109SOL     OW21165   1.829  14.747   6.808
73109SOL    HW121166   1.903  14.786   6.855
73109SOL    HW221167   1.762  14.734   6.875
73110SOL     OW21168   0.386  12.549   7.010
73110SOL    HW121169   0.414  12.633   6.975
73110SOL    HW221170   0.352  12.501   6.934
73111SOL     OW21171   5.175   1.127   3.844
73111SOL    HW121172   5.257   1.174   3.827
73111SOL    HW221173   5.172   1.119   3.939
73112SOL     OW21174  14.878   9.983   8.680
73112SOL    HW121175  14.840   9.927   8.612
73112SOL    HW221176   0.093   9.980   8.664
73113SOL     OW21177   7.103   0.464   1.783
73113SOL    HW121178   7.187   0.506   1.803
73113SOL    HW221179   7.087   0.408   1.859
73114SOL     OW21180  12.532  11.287  13.822
73114SOL    HW121181  12.581  11.261  13.900
73114SOL    HW221182  12.511  11.204  13.778
73115SOL     OW21183   5.328   6.710   5.174
73115SOL    HW121184   5.307   6.617   5.172
73115SOL    HW221185   5.256   6.749   5.224
73116SOL     OW21186   2.478   9.080  11.291
73116SOL    HW121187   2.500   9.011  11.354
73116SOL    HW221188   2.489   9.038  11.206
73117SOL     OW21189   0.110  10.986   3.484
73117SOL    HW121190   0.056  10.991   3.562
73117SOL    HW221191   0.126  10.893   3.471
73118SOL     OW21192   3.290   7.274   6.380
73118SOL    HW121193   3.266   7.256   6.471
73118SOL    HW221194   3.379   7.239   6.371
73119SOL     OW21195   1.997   2.569  14.524
73119SOL    HW121196   2.083   2.555  14.562
73119SOL    HW221197   2.005   2.654  14.479
73120SOL     OW21198   6.277  12.686  11.460
73120SOL    HW121199   6.253  12.774  11.490
73120SOL    HW221200   6.217  12.628  11.506
73121SOL     OW21201   1.883   6.515   7.759
73121SOL    HW121202   1.826   6.528   7.835
73121SOL    HW221203   1.899   6.603   7.726
73122SOL     OW21204  11.876  10.659   1.645
73122SOL    HW121205  11.884  10.754   1.637
73122SOL    HW221206  11.855  10.644   1.737
73123SOL     OW21207   9.641  14.131   4.785
73123SOL    HW121208   9.640  14.214   4.737
73123SOL    HW221209   9.551  14.122   4.816
73124SOL     OW21210   8.411   7.240   6.002
73124SOL    HW121211   8.342   7.174   6.001
73124SOL    HW221212   8.401   7.287   5.919
73125SOL     OW21213   7.710  14.104  10.880
73125SOL    HW121214   7.802  14.079  10.883
73125SOL    HW221215   7.675  14.057  10.804
73126SOL     OW21216   3.462  11.594   3.951
73126SOL    HW121217   3.527  11.641   4.003
73126SOL    HW221218   3.513  11.552   3.881
73127SOL     OW21219  13.762   4.749   9.906
73127SOL    HW121220  13.761   4.781   9.816
73127SOL    HW221221  13.757   4.654   9.899
73128SOL     OW21222   1.712   9.149   4.603
73128SOL    HW121223   1.783   9.208   4.583
73128SOL    HW221224   1.703   9.153   4.699
73129SOL     OW21225  12.116   4.791   5.047
73129SOL    HW121226  12.038   4.780   4.994
73129SOL    HW221227  12.141   4.701   5.071
73130SOL     OW21228  11.217  11.282  10.201
73130SOL    HW121229  11.234  11.374  10.179
73130SOL    HW221230  11.264  11.232  10.134
73131SOL     OW21231  13.947   9.967  10.795
73131SOL    HW121232  13.873  10.022  10.769
73131SOL    HW221233  14.016  10.030  10.819
73132SOL     OW21234   0.469   7.973  11.906
73132SOL    HW121235   0.402   8.001  11.969
73132SOL    HW221236   0.518   7.905  11.952
73133SOL     OW21237  13.040   3.313   9.913
73133SOL    HW121238  13.044   3.408   9.925
73133SOL    HW221239  13.064   3.277   9.998
73134SOL     OW21240   9.090   0.850   0.671
73134SOL    HW121241   9.001   0.818   0.652
73134SOL    HW221242   9.120   0.888   0.588
73135SOL     OW21243   0.171   6.434   2.204
73135SOL    HW121244   0.186   6.527   2.186
73135SOL    HW221245   0.097   6.410   2.148
73136SOL     OW21246   2.794   1.360   9.437
73136SOL    HW121247   2.741   1.430   9.477
73136SOL    HW221248   2.863   1.407   9.390
73137SOL     OW21249   7.849   3.986   8.321
73137SOL    HW121250   7.934   3.959   8.353
73137SOL    HW221251   7.816   4.046   8.387
73138SOL     OW21252  10.278  13.688   3.611
73138SOL    HW121253  10.200  13.743   3.600
73138SOL    HW221254  10.286  13.643   3.527
73139SOL     OW21255  10.670  13.642  14.025
73139SOL    HW121256  10.578  13.625  14.009
73139SOL    HW221257  10.678  13.737  14.020
73140SOL     OW21258   4.325   3.081  10.906
73140SOL    HW121259   4.279   3.051  10.828
73140SOL    HW221260   4.256   3.094  10.971
73141SOL     OW21261   1.807   9.953  14.353
73141SOL    HW121262   1.734   9.957  14.291
73141SOL    HW221263   1.856  10.034  14.338
73142SOL     OW21264   9.035   7.955   3.042
73142SOL    HW121265   8.986   7.954   3.125
73142SOL    HW221266   9.120   7.918   3.065
73143SOL     OW21267   6.728   5.340   8.708
73143SOL    HW121268   6.770   5.357   8.624
73143SOL    HW221269   6.647   5.293   8.686
73144SOL     OW21270  12.542   8.086   7.450
73144SOL    HW121271  12.632   8.118   7.450
73144SOL    HW221272  12.548   7.995   7.421
73145SOL     OW21273   2.011  14.353   1.173
73145SOL    HW121274   2.056  14.286   1.224
73145SOL    HW221275   1.935  14.375   1.226
73146SOL     OW21276  11.289   2.665   3.582
73146SOL    HW121277  11.210   2.646   3.533
73146SOL    HW221278  11.353   2.692   3.516
73147SOL     OW21279   1.151   2.626   3.798
73147SOL    HW121280   1.211   2.622   3.723
73147SOL    HW221281   1.208   2.647   3.872
73148SOL     OW21282  14.430   0.337   6.182
73148SOL    HW121283  14.485   0.408   6.215
73148SOL    HW221284  14.476   0.257   6.210
73149SOL     OW21285   7.833   2.922  10.387
73149SOL    HW121286   7.900   2.862  10.419
73149SOL    HW221287   7.787   2.873  10.319
73150SOL     OW21288   1.692  10.889   8.008
73150SOL    HW121289   1.605  10.855   7.989
73150SOL    HW221290   1.680  10.942   8.087
73151SOL     OW21291   0.551   7.220   7.475
73151SOL    HW121292   0.606   7.295   7.451
73151SOL    HW221293   0.462   7.247   7.457
73152SOL     OW21294   9.032  12.799  14.074
73152SOL    HW121295   9.125  12.810  14.055
73152SOL    HW221296   9.018  12.705  14.068
73153SOL     OW21297   9.535   8.166   0.740
73153SOL    HW121298   9.498   8.250   0.713
73153SOL    HW221299   9.462   8.120   0.781
73154SOL     OW21300   1.735   4.729  10.409
73154SOL    HW121301   1.706   4.745  10.319
73154SOL    HW221302   1.802   4.662  10.402
73155SOL     OW21303   1.831   0.363  10.759
73155SOL    HW121304   1.825   0.347  10.665
73155SOL    HW221305   1.782   0.293  10.800
73156SOL     OW21306   1.681   5.834   4.517
73156SOL    HW121307   1.674   5.927   4.494
73156SOL    HW221308   1.747   5.799   4.457
73157SOL     OW21309   3.349   6.859   7.646
73157SOL    HW121310   3.440   6.829   7.646
73157SOL    HW221311   3.346   6.925   7.577
73158SOL     OW21312   5.261   5.585   4.934
73158SOL    HW121313   5.209   5.565   4.857
73158SOL    HW221314   5.229   5.525   5.002
73159SOL     OW21315   2.432   2.240   2.095
73159SOL    HW121316   2.419   2.219   2.003
73159SOL    HW221317   2.422   2.335   2.101
73160SOL     OW21318   0.999  11.859  12.825
73160SOL    HW121319   0.975  11.790  12.887
73160SOL    HW221320   1.016  11.813  12.743
73161SOL     OW21321  12.489  14.194  13.316
73161SOL    HW121322  12.495  14.183  13.411
73161SOL    HW221323  12.408  14.147  13.292
73162SOL     OW21324   1.646  12.131  14.266
73162SOL    HW121325   1.724  12.086  14.299
73162SOL    HW221326   1.591  12.060  14.232
73163SOL     OW21327   2.371   9.458   6.940
73163SOL    HW121328   2.306   9.508   6.989
73163SOL    HW221329   2.406   9.521   6.877
73164SOL     OW21330   0.720   2.123   0.470
73164SOL    HW121331   0.796   2.069   0.447
73164SOL    HW221332   0.645   2.071   0.441
73165SOL     OW21333   8.512  10.621   8.145
73165SOL    HW121334   8.461  10.696   8.175
73165SOL    HW221335   8.496  10.553   8.211
73166SOL     OW21336   7.961   4.234  12.637
73166SOL    HW121337   7.995   4.255  12.725
73166SOL    HW221338   7.983   4.142  12.625
73167SOL     OW21339   8.942  13.439   5.804
73167SOL    HW121340   8.926  13.533   5.795
73167SOL    HW221341   9.013  13.421   5.743
73168SOL     OW21342   1.765  11.914   0.728
73168SOL    HW121343   1.828  11.973   0.687
73168SOL    HW221344   1.778  11.925   0.822
73169SOL     OW21345  12.450   9.890  14.375
73169SOL    HW121346  12.399   9.827  14.326
73169SOL    HW221347  12.395   9.969  14.378
73170SOL     OW21348   5.205   2.129   3.999
73170SOL    HW121349   5.213   2.201   4.063
73170SOL    HW221350   5.279   2.143   3.940
73171SOL     OW21351   8.886  11.772  10.492
73171SOL    HW121352   8.802  11.770  10.446
73171SOL    HW221353   8.903  11.680  10.516
73172SOL     OW21354  13.983   6.869  12.277
73172SOL    HW121355  14.019   6.953  12.250
73172SOL    HW221356  13.986   6.815  12.198
73173SOL     OW21357  13.203  13.926  10.754
73173SOL    HW121358  13.266  13.961  10.817
73173SOL    HW221359  13.149  14.002  10.731
73174SOL     OW21360   2.017  12.621   3.268
73174SOL    HW121361   2.095  12.593   3.220
73174SOL    HW221362   1.960  12.544   3.267
73175SOL     OW21363  14.141   3.215  13.668
73175SOL    HW121364  14.234   3.196  13.681
73175SOL    HW221365  14.126   3.198  13.575
73176SOL     OW21366  11.248   2.696  13.762
73176SOL    HW121367  11.308   2.757  13.805
73176SOL    HW221368  11.224   2.633  13.831
73177SOL     OW21369  14.083  13.542  13.129
73177SOL    HW121370  14.058  13.457  13.166
73177SOL    HW221371  14.016  13.603  13.159
73178SOL     OW21372  12.494   7.695  13.964
73178SOL    HW121373  12.402   7.668  13.972
73178SOL    HW221374  12.490   7.789  13.946
73179SOL     OW21375   5.726   0.896   3.491
73179SOL    HW121376   5.687   0.900   3.403
73179SOL    HW221377   5.667   0.839   3.541
73180SOL     OW21378   4.541   4.515  10.345
73180SOL    HW121379   4.602   4.457  10.391
73180SOL    HW221380   4.466   4.523  10.403
73181SOL     OW21381  11.701   4.130   8.668
73181SOL    HW121382  11.769   4.070   8.699
73181SOL    HW221383  11.630   4.122   8.733
73182SOL     OW21384   8.624   9.718   0.689
73182SOL    HW121385   8.647   9.725   0.596
73182SOL    HW221386   8.707   9.702   0.733
73183SOL     OW21387  12.097  11.524  10.836
73183SOL    HW121388  12.132  11.447  10.792
73183SOL    HW221389  12.169  11.556  10.890
73184SOL     OW21390   6.055   6.289  14.844
73184SOL    HW121391   5.970   6.252  14.820
73184SOL    HW221392   6.052   6.293   0.061
73185SOL     OW21393   4.767   1.973   7.073
73185SOL    HW121394   4.758   1.905   7.006
73185SOL    HW221395   4.861   1.987   7.080
73186SOL     OW21396   7.908  11.698   1.025
73186SOL    HW121397   7.823  11.655   1.023
73186SOL    HW221398   7.918  11.738   0.939
73187SOL     OW21399  14.100   7.911   2.804
73187SOL    HW121400  14.103   7.886   2.712
73187SOL    HW221401  14.189   7.892   2.836
73188SOL     OW21402   7.567   7.608   3.835
73188SOL    HW121403   7.544   7.681   3.778
73188SOL    HW221404   7.548   7.641   3.924
73189SOL     OW21405  11.216  12.671   8.829
73189SOL    HW121406  11.132  12.680   8.875
73189SOL    HW221407  11.262  12.753   8.847
73190SOL     OW21408   5.259   6.043  12.500
73190SOL    HW121409   5.255   5.997  12.584
73190SOL    HW221410   5.313   5.987  12.445
73191SOL     OW21411   3.747   2.270  11.986
73191SOL    HW121412   3.672   2.258  11.928
73191SOL    HW221413   3.773   2.182  12.012
73192SOL     OW21414   4.548   5.451   7.691
73192SOL    HW121415   4.531   5.401   7.611
73192SOL    HW221416   4.484   5.522   7.689
73193SOL     OW21417   9.307   8.050   0.830
73193SOL    HW121418   9.227   8.049   0.778
73193SOL    HW221419   9.278   8.036   0.920
73194SOL     OW21420   7.985   9.960  13.932
73194SOL    HW121421   7.947   9.873  13.916
73194SOL    HW221422   8.075   9.942  13.959
73195SOL     OW21423   9.406  14.082   0.069
73195SOL    HW121424   9.356  14.115   0.144
73195SOL    HW221425   9.494  14.119   0.082
73196SOL     OW21426   9.018   2.659   2.892
73196SOL    HW121427   9.013   2.571   2.855
73196SOL    HW221428   9.059   2.647   2.978
73197SOL     OW21429   3.304   2.648  12.976
73197SOL    HW121430   3.292   2.674  13.067
73197SOL    HW221431   3.258   2.715  12.925
73198SOL     OW21432  12.306   6.573   8.111
73198SOL    HW121433  12.252   6.589   8.188
73198SOL    HW221434  12.329   6.660   8.079
73199SOL     OW21435  13.273   0.039   8.355
73199SOL    HW121436  13.179   0.034   8.337
73199SOL    HW221437  13.314   0.053   8.270
73200SOL     OW21438  12.966   7.472   5.097
73200SOL    HW121439  12.926   7.400   5.145
73200SOL    HW221440  12.895   7.505   5.041
73201SOL     OW21441   2.589  12.577  12.912
73201SOL    HW121442   2.648  12.518  12.959
73201SOL    HW221443   2.648  12.635  12.864
73202SOL     OW21444  13.333   3.354  10.196
73202SOL    HW121445  13.272   3.289  10.161
73202SOL    HW221446  13.394   3.304  10.249
73203SOL     OW21447   9.332  10.117   3.848
73203SOL    HW121448   9.325  10.027   3.816
73203SOL    HW221449   9.426  10.135   3.846
73204SOL     OW21450  12.657   5.919   5.550
73204SOL    HW121451  12.731   5.892   5.497
73204SOL    HW221452  12.631   6.004   5.513
73205SOL     OW21453   7.909   9.358  12.377
73205SOL    HW121454   7.940   9.306  12.303
73205SOL    HW221455   7.931   9.306  12.454
73206SOL     OW21456   7.313  14.263   5.531
73206SOL    HW121457   7.263  14.183   5.548
73206SOL    HW221458   7.360  14.244   5.450
73207SOL     OW21459   3.316   5.867   4.116
73207SOL    HW121460   3.375   5.936   4.148
73207SOL    HW221461   3.252   5.855   4.186
73208SOL     OW21462   4.260   8.019   7.494
73208SOL    HW121463   4.308   8.093   7.531
73208SOL    HW221464   4.188   8.004   7.555
73209SOL     OW21465   7.650  11.642  14.413
73209SOL    HW121466   7.603  11.631  14.495
73209SOL    HW221467   7.583  11.640  14.346
73210SOL     OW21468   6.168   7.120   4.255
73210SOL    HW121469   6.163   7.113   4.160
73210SOL    HW221470   6.078   7.104   4.285
73211SOL     OW21471  13.776  14.069  14.698
73211SOL    HW121472  13.742  14.093  14.784
73211SOL    HW221473  13.846  14.132  14.681
73212SOL     OW21474   4.048   1.834   9.907
73212SOL    HW121475   4.051   1.829  10.002
73212SOL    HW221476   4.074   1.747   9.877
73213SOL     OW21477   1.574  12.019  13.956
73213SOL    HW121478   1.656  11.969  13.951
73213SOL    HW221479   1.595  12.104  13.919
73214SOL     OW21480   7.873  11.697   5.847
73214SOL    HW121481   7.825  11.624   5.887
73214SOL    HW221482   7.957  11.660   5.821
73215SOL     OW21483   5.698   7.315   5.501
73215SOL    HW121484   5.711   7.395   5.552
73215SOL    HW221485   5.605   7.295   5.512
73216SOL     OW21486   9.277  14.693   2.002
73216SOL    HW121487   9.330  14.752   2.056
73216SOL    HW221488   9.338  14.624   1.976
73217SOL     OW21489  13.827   5.380   3.262
73217SOL    HW121490  13.743   5.427   3.255
73217SOL    HW221491  13.801   5.287   3.269
73218SOL     OW21492  13.031   4.579  12.795
73218SOL    HW121493  13.106   4.548  12.744
73218SOL    HW221494  12.966   4.510  12.785
73219SOL     OW21495   1.044  12.003   5.936
73219SOL    HW121496   0.980  12.013   5.866
73219SOL    HW221497   0.998  11.956   6.006
73220SOL     OW21498  12.937   4.895   5.923
73220SOL    HW121499  13.003   4.829   5.900
73220SOL    HW221500  12.881   4.900   5.845
73221SOL     OW21501   2.613   1.787   0.043
73221SOL    HW121502   2.697   1.794   0.088
73221SOL    HW221503   2.554   1.844   0.093
73222SOL     OW21504   8.971   8.335  10.822
73222SOL    HW121505   8.890   8.385  10.832
73222SOL    HW221506   8.945   8.257  10.772
73223SOL     OW21507   9.255   4.147  12.778
73223SOL    HW121508   9.176   4.128  12.727
73223SOL    HW221509   9.254   4.242  12.789
73224SOL     OW21510   4.276   2.877   8.398
73224SOL    HW121511   4.208   2.940   8.422
73224SOL    HW221512   4.276   2.879   8.302
73225SOL     OW21513   9.506  13.963   1.610
73225SOL    HW121514   9.538  13.876   1.635
73225SOL    HW221515   9.462  13.995   1.689
73226SOL     OW21516   5.034   7.484  10.749
73226SOL    HW121517   5.035   7.458  10.657
73226SOL    HW221518   4.949   7.527  10.761
73227SOL     OW21519   5.251  11.647  10.170
73227SOL    HW121520   5.277  11.555  10.182
73227SOL    HW221521   5.311  11.679  10.102
73228SOL     OW21522   7.274  14.145  10.402
73228SOL    HW121523   7.248  14.057  10.375
73228SOL    HW221524   7.198  14.200  10.381
73229SOL     OW21525  12.497   3.806  11.769
73229SOL    HW121526  12.549   3.726  11.768
73229SOL    HW221527  12.409   3.777  11.794
73230SOL     OW21528  13.597   1.838   1.461
73230SOL    HW121529  13.610   1.745   1.440
73230SOL    HW221530  13.668   1.859   1.521
73231SOL     OW21531  13.670  12.044   4.568
73231SOL    HW121532  13.618  12.053   4.648
73231SOL    HW221533  13.743  11.987   4.593
73232SOL     OW21534   2.616   8.645  13.647
73232SOL    HW121535   2.580   8.561  13.618
73232SOL    HW221536   2.666   8.624  13.725
73233SOL     OW21537  12.163   4.569   9.267
73233SOL    HW121538  12.142   4.632   9.198
73233SOL    HW221539  12.122   4.488   9.238
73234SOL     OW21540   0.419   1.141  10.720
73234SOL    HW121541   0.487   1.203  10.693
73234SOL    HW221542   0.383   1.108  10.637
73235SOL     OW21543  11.423  10.184   5.407
73235SOL    HW121544  11.398  10.246   5.339
73235SOL    HW221545  11.353  10.189   5.472
73236SOL     OW21546   2.357   2.048  13.814
73236SOL    HW121547   2.308   2.057  13.895
73236SOL    HW221548   2.426   2.114  13.819
73237SOL     OW21549  12.289  11.207  11.228
73237SOL    HW121550  12.249  11.290  11.201
73237SOL    HW221551  12.219  11.162  11.274
73238SOL     OW21552  13.075   2.911  10.209
73238SOL    HW121553  12.993   2.911  10.160
73238SOL    HW221554  13.050   2.940  10.296
73239SOL     OW21555   1.245   0.865  14.130
73239SOL    HW121556   1.162   0.829  14.099
73239SOL    HW221557   1.306   0.851  14.057
73240SOL     OW21558   7.448  11.538   6.444
73240SOL    HW121559   7.507  11.540   6.369
73240SOL    HW221560   7.477  11.464   6.497
73241SOL     OW21561   3.406   2.228   0.274
73241SOL    HW121562   3.484   2.227   0.330
73241SOL    HW221563   3.389   2.321   0.258
73242SOL     OW21564  13.381   8.499   5.886
73242SOL    HW121565  13.386   8.577   5.940
73242SOL    HW221566  13.463   8.498   5.836
73243SOL     OW21567   1.055  11.179  13.690
73243SOL    HW121568   1.057  11.274  13.682
73243SOL    HW221569   0.969  11.159  13.726
73244SOL     OW21570   7.179   6.649   4.956
73244SOL    HW121571   7.144   6.589   5.022
73244SOL    HW221572   7.105   6.705   4.934
73245SOL     OW21573   3.437   8.418  13.686
73245SOL    HW121574   3.495   8.491  13.706
73245SOL    HW221575   3.464   8.389  13.599
73246SOL     OW21576   2.690   8.522  11.352
73246SOL    HW121577   2.724   8.545  11.439
73246SOL    HW221578   2.605   8.566  11.347
73247SOL     OW21579  13.340   8.046   5.063
73247SOL    HW121580  13.429   8.076   5.081
73247SOL    HW221581  13.350   7.983   4.991
73248SOL     OW21582   0.356   3.707   1.061
73248SOL    HW121583   0.426   3.734   1.002
73248SOL    HW221584   0.348   3.779   1.123
73249SOL     OW21585  11.855   9.141  11.697
73249SOL    HW121586  11.799   9.208  11.659
73249SOL    HW221587  11.820   9.127  11.785
73250SOL     OW21588  11.589  10.599  11.789
73250SOL    HW121589  11.665  10.545  11.809
73250SOL    HW221590  11.524  10.537  11.756
73251SOL     OW21591  13.661   1.731   1.142
73251SOL    HW121592  13.699   1.655   1.186
73251SOL    HW221593  13.736   1.782   1.114
73252SOL     OW21594   8.795  13.932   0.864
73252SOL    HW121595   8.736  13.983   0.919
73252SOL    HW221596   8.788  13.973   0.777
73253SOL     OW21597   4.592   9.488   3.010
73253SOL    HW121598   4.585   9.500   3.104
73253SOL    HW221599   4.683   9.510   2.989
73254SOL     OW21600   6.094  11.393   9.837
73254SOL    HW121601   6.104  11.339   9.759
73254SOL    HW221602   6.096  11.332   9.910
73255SOL     OW21603   3.855   1.445   2.110
73255SOL    HW121604   3.895   1.404   2.034
73255SOL    HW221605   3.929   1.472   2.164
73256SOL     OW21606   1.274   3.422   9.701
73256SOL    HW121607   1.240   3.334   9.684
73256SOL    HW221608   1.206   3.465   9.753
73257SOL     OW21609   3.030   2.465   5.988
73257SOL    HW121610   2.967   2.532   5.965
73257SOL    HW221611   3.076   2.446   5.906
73258SOL     OW21612   8.166   3.097   5.110
73258SOL    HW121613   8.190   3.151   5.035
73258SOL    HW221614   8.191   3.150   5.186
73259SOL     OW21615   4.373  11.985   8.936
73259SOL    HW121616   4.441  11.993   8.869
73259SOL    HW221617   4.291  11.979   8.887
73260SOL     OW21618  11.976   1.946   5.724
73260SOL    HW121619  12.025   1.868   5.696
73260SOL    HW221620  11.954   1.929   5.815
73261SOL     OW21621  10.906   4.246   8.899
73261SOL    HW121622  10.944   4.328   8.866
73261SOL    HW221623  10.841   4.274   8.963
73262SOL     OW21624   8.401  10.934   0.559
73262SOL    HW121625   8.309  10.946   0.580
73262SOL    HW221626   8.419  10.843   0.581
73263SOL     OW21627   0.830  12.624   9.274
73263SOL    HW121628   0.840  12.653   9.365
73263SOL    HW221629   0.835  12.529   9.278
73264SOL     OW21630  14.223  12.240   2.059
73264SOL    HW121631  14.130  12.262   2.053
73264SOL    HW221632  14.269  12.317   2.024
73265SOL     OW21633   4.302   3.757   4.170
73265SOL    HW121634   4.352   3.839   4.165
73265SOL    HW221635   4.367   3.688   4.158
73266SOL     OW21636   2.969   7.539   8.154
73266SOL    HW121637   3.027   7.464   8.142
73266SOL    HW221638   2.996   7.601   8.086
73267SOL     OW21639   5.319   6.600   0.605
73267SOL    HW121640   5.254   6.609   0.674
73267SOL    HW221641   5.289   6.525   0.553
73268SOL     OW21642   0.785  14.246   5.363
73268SOL    HW121643   0.696  14.237   5.327
73268SOL    HW221644   0.773  14.297   5.443
73269SOL     OW21645   3.861   9.314   6.738
73269SOL    HW121646   3.815   9.288   6.817
73269SOL    HW221647   3.818   9.395   6.710
73270SOL     OW21648   1.153   0.393  13.921
73270SOL    HW121649   1.167   0.451  13.997
73270SOL    HW221650   1.076   0.342  13.944
73271SOL     OW21651  11.958  12.387   8.874
73271SOL    HW121652  11.963  12.474   8.834
73271SOL    HW221653  12.044  12.375   8.915
73272SOL     OW21654   8.287  12.921   5.096
73272SOL    HW121655   8.227  12.867   5.147
73272SOL    HW221656   8.367  12.925   5.148
73273SOL     OW21657   0.125   2.537  14.793
73273SOL    HW121658   0.035   2.540  14.759
73273SOL    HW221659   0.116   2.543   0.008
73274SOL     OW21660   8.943   9.673   2.778
73274SOL    HW121661   8.876   9.620   2.821
73274SOL    HW221662   8.994   9.611   2.726
73275SOL     OW21663  14.067   3.807   7.340
73275SOL    HW121664  14.108   3.836   7.258
73275SOL    HW221665  13.982   3.851   7.341
73276SOL     OW21666   5.534   6.592   2.409
73276SOL    HW121667   5.503   6.681   2.392
73276SOL    HW221668   5.456   6.538   2.402
73277SOL     OW21669   2.278  11.549   8.596
73277SOL    HW121670   2.250  11.458   8.588
73277SOL    HW221671   2.352  11.546   8.656
73278SOL     OW21672   7.879  14.778   1.620
73278SOL    HW121673   7.817  14.778   1.547
73278SOL    HW221674   7.919  14.865   1.617
73279SOL     OW21675  14.107  10.292  11.481
73279SOL    HW121676  14.045  10.361  11.504
73279SOL    HW221677  14.183  10.339  11.446
73280SOL     OW21678  14.364   2.563   5.585
73280SOL    HW121679  14.441   2.533   5.538
73280SOL    HW221680  14.322   2.626   5.527
73281SOL     OW21681   3.554   4.668  13.001
73281SOL    HW121682   3.485   4.734  12.990
73281SOL    HW221683   3.634   4.713  12.975
73282SOL     OW21684  13.116  11.409   4.246
73282SOL    HW121685  13.023  11.421   4.267
73282SOL    HW221686  13.115  11.362   4.162
73283SOL     OW21687   2.733  11.866   4.195
73283SOL    HW121688   2.706  11.956   4.214
73283SOL    HW221689   2.810  11.876   4.139
73284SOL     OW21690  10.606   1.154  13.718
73284SOL    HW121691  10.592   1.067  13.754
73284SOL    HW221692  10.519   1.186  13.696
73285SOL     OW21693  14.473   1.037  11.086
73285SOL    HW121694  14.552   1.087  11.065
73285SOL    HW221695  14.504   0.948  11.104
73286SOL     OW21696   6.985   7.244   6.116
73286SOL    HW121697   7.047   7.172   6.113
73286SOL    HW221698   7.012   7.301   6.044
73287SOL     OW21699  12.054   2.846  14.087
73287SOL    HW121700  12.014   2.786  14.024
73287SOL    HW221701  12.129   2.797  14.121
73288SOL     OW21702  14.020   9.456  13.096
73288SOL    HW121703  13.971   9.376  13.075
73288SOL    HW221704  14.111   9.428  13.100
73289SOL     OW21705   0.205   4.057   3.419
73289SOL    HW121706   0.111   4.046   3.433
73289SOL    HW221707   0.212   4.105   3.336
73290SOL     OW21708   4.530   8.475   2.503
73290SOL    HW121709   4.536   8.466   2.408
73290SOL    HW221710   4.559   8.390   2.537
73291SOL     OW21711   5.907   1.118   3.929
73291SOL    HW121712   5.992   1.078   3.947
73291SOL    HW221713   5.921   1.212   3.941
73292SOL     OW21714   3.589   9.759  12.485
73292SOL    HW121715   3.645   9.735  12.411
73292SOL    HW221716   3.542   9.679  12.506
73293SOL     OW21717   8.445   4.837  13.182
73293SOL    HW121718   8.457   4.868  13.272
73293SOL    HW221719   8.392   4.758  13.191
73294SOL     OW21720   4.146   0.311   0.434
73294SOL    HW121721   4.222   0.255   0.451
73294SOL    HW221722   4.070   0.255   0.451
73295SOL     OW21723   7.396  14.344  10.094
73295SOL    HW121724   7.393  14.386  10.179
73295SOL    HW221725   7.345  14.401  10.036
73296SOL     OW21726   9.418   1.047   5.159
73296SOL    HW121727   9.367   0.967   5.172
73296SOL    HW221728   9.434   1.080   5.248
73297SOL     OW21729   3.283   2.457  14.501
73297SOL    HW121730   3.312   2.510  14.575
73297SOL    HW221731   3.363   2.442  14.450
73298SOL     OW21732   3.493   8.063   1.323
73298SOL    HW121733   3.514   7.976   1.356
73298SOL    HW221734   3.483   8.117   1.402
73299SOL     OW21735   7.997   7.987   3.479
73299SOL    HW121736   7.951   7.925   3.534
73299SOL    HW221737   7.973   8.073   3.513
73300SOL     OW21738  12.037  10.844   0.697
73300SOL    HW121739  12.089  10.826   0.619
73300SOL    HW221740  12.026  10.758   0.739
73301SOL     OW21741  12.799  13.285   7.145
73301SOL    HW121742  12.732  13.298   7.212
73301SOL    HW221743  12.829  13.195   7.158
73302SOL     OW21744   8.520   2.318   4.440
73302SOL    HW121745   8.508   2.361   4.355
73302SOL    HW221746   8.608   2.344   4.468
73303SOL     OW21747   1.268   9.925   3.517
73303SOL    HW121748   1.258   9.868   3.440
73303SOL    HW221749   1.338   9.986   3.492
73304SOL     OW21750  14.490   0.753  11.075
73304SOL    HW121751  14.578   0.721  11.095
73304SOL    HW221752  14.433   0.709  11.139
73305SOL     OW21753   9.597   3.230   4.254
73305SOL    HW121754   9.608   3.271   4.340
73305SOL    HW221755   9.575   3.302   4.195
73306SOL     OW21756   8.613   2.988  12.384
73306SOL    HW121757   8.565   3.030  12.455
73306SOL    HW221758   8.582   3.032  12.305
73307SOL     OW21759  13.663  13.354  12.812
73307SOL    HW121760  13.568  13.343  12.820
73307SOL    HW221761  13.699  13.291  12.874
73308SOL     OW21762   5.762  13.990   6.071
73308SOL    HW121763   5.779  14.000   5.978
73308SOL    HW221764   5.814  14.059   6.113
73309SOL     OW21765   7.931   7.564  13.975
73309SOL    HW121766   7.948   7.492  13.916
73309SOL    HW221767   7.856   7.535  14.027
73310SOL     OW21768   7.597  14.445  12.164
73310SOL    HW121769   7.526  14.438  12.228
73310SOL    HW221770   7.654  14.513  12.199
73311SOL     OW21771   9.141   2.618   7.514
73311SOL    HW121772   9.136   2.553   7.584
73311SOL    HW221773   9.217   2.672   7.536
73312SOL     OW21774   9.251  14.862   4.819
73312SOL    HW121775   9.244  14.875   4.914
73312SOL    HW221776   9.341  14.834   4.805
73313SOL     OW21777   2.119  14.639  12.820
73313SOL    HW121778   2.166  14.573  12.768
73313SOL    HW221779   2.046  14.666  12.764
73314SOL     OW21780  11.195  10.764   7.038
73314SOL    HW121781  11.108  10.792   7.007
73314SOL    HW221782  11.253  10.781   6.963
73315SOL     OW21783  12.420   4.926   7.776
73315SOL    HW121784  12.378   4.930   7.862
73315SOL    HW221785  12.353   4.959   7.715
73316SOL     OW21786   5.462   5.556   7.840
73316SOL    HW121787   5.433   5.554   7.931
73316SOL    HW221788   5.400   5.500   7.794
73317SOL     OW21789   9.092   8.877  13.407
73317SOL    HW121790   9.117   8.849  13.319
73317SOL    HW221791   9.175   8.898  13.450
73318SOL     OW21792   5.507  12.635  10.829
73318SOL    HW121793   5.595  12.616  10.862
73318SOL    HW221794   5.516  12.632  10.734
73319SOL     OW21795   3.001  13.440   0.964
73319SOL    HW121796   3.065  13.433   1.035
73319SOL    HW221797   2.955  13.522   0.982
73320SOL     OW21798   7.985  11.458   9.355
73320SOL    HW121799   8.016  11.480   9.267
73320SOL    HW221800   7.968  11.543   9.396
73321SOL     OW21801   6.677   6.952   2.964
73321SOL    HW121802   6.771   6.963   2.975
73321SOL    HW221803   6.646   7.039   2.937
73322SOL     OW21804   6.420   7.261   2.928
73322SOL    HW121805   6.424   7.357   2.928
73322SOL    HW221806   6.501   7.234   2.884
73323SOL     OW21807   9.386  11.576   8.802
73323SOL    HW121808   9.343  11.648   8.848
73323SOL    HW221809   9.364  11.498   8.853
73324SOL     OW21810  10.118  13.290  13.388
73324SOL    HW121811  10.086  13.380  13.382
73324SOL    HW221812  10.042  13.235  13.370
73325SOL     OW21813  14.356   3.955  14.225
73325SOL    HW121814  14.428   3.904  14.262
73325SOL    HW221815  14.375   3.959  14.131
73326SOL     OW21816   7.840   3.013  10.976
73326SOL    HW121817   7.786   2.939  11.004
73326SOL    HW221818   7.844   3.005  10.881
73327SOL     OW21819   9.773   8.179   1.038
73327SOL    HW121820   9.746   8.088   1.037
73327SOL    HW221821   9.837   8.186   0.967
73328SOL     OW21822  13.584   0.105   8.452
73328SOL    HW121823  13.523   0.037   8.423
73328SOL    HW221824  13.631   0.130   8.373
73329SOL     OW21825   5.270  10.618   2.897
73329SOL    HW121826   5.180  10.642   2.921
73329SOL    HW221827   5.259  10.543   2.838
73330SOL     OW21828   5.772   5.412   1.977
73330SOL    HW121829   5.838   5.346   1.999
73330SOL    HW221830   5.689   5.364   1.974
73331SOL     OW21831   6.589   4.457  10.568
73331SOL    HW121832   6.534   4.387  10.601
73331SOL    HW221833   6.540   4.495  10.495
73332SOL     OW21834  12.461   4.936   1.454
73332SOL    HW121835  12.403   4.929   1.530
73332SOL    HW221836  12.413   4.991   1.392
73333SOL     OW21837   0.836   2.682  11.464
73333SOL    HW121838   0.759   2.684  11.407
73333SOL    HW221839   0.804   2.647  11.547
73334SOL     OW21840  11.970   6.617  12.299
73334SOL    HW121841  11.931   6.659  12.376
73334SOL    HW221842  12.058   6.655  12.293
73335SOL     OW21843   7.423  11.923  14.592
73335SOL    HW121844   7.381  11.961  14.669
73335SOL    HW221845   7.433  11.997  14.532
73336SOL     OW21846   4.893  14.059   6.273
73336SOL    HW121847   4.961  14.070   6.206
73336SOL    HW221848   4.939  14.077   6.356
73337SOL     OW21849  14.244   2.810  10.669
73337SOL    HW121850  14.231   2.715  10.681
73337SOL    HW221851  14.162   2.849  10.700
73338SOL     OW21852  10.315   9.309   3.496
73338SOL    HW121853  10.245   9.312   3.431
73338SOL    HW221854  10.297   9.382   3.554
73339SOL     OW21855  10.135  10.427   4.300
73339SOL    HW121856  10.118  10.511   4.258
73339SOL    HW221857  10.065  10.417   4.364
73340SOL     OW21858   6.364   2.190   9.872
73340SOL    HW121859   6.405   2.258   9.819
73340SOL    HW221860   6.389   2.108   9.829
73341SOL     OW21861  10.193  14.806   2.983
73341SOL    HW121862  10.172  14.746   3.055
73341SOL    HW221863  10.288  14.798   2.972
73342SOL     OW21864   0.434  13.407   7.546
73342SOL    HW121865   0.405  13.498   7.554
73342SOL    HW221866   0.504  13.398   7.610
73343SOL     OW21867   8.360   1.508  13.213
73343SOL    HW121868   8.422   1.436  13.228
73343SOL    HW221869   8.365   1.561  13.293
73344SOL     OW21870  11.799   1.731  12.401
73344SOL    HW121871  11.874   1.681  12.434
73344SOL    HW221872  11.834   1.780  12.327
73345SOL     OW21873   0.212   3.001   9.834
73345SOL    HW121874   0.291   3.033   9.791
73345SOL    HW221875   0.187   3.071   9.894
73346SOL     OW21876   8.183   7.036  14.374
73346SOL    HW121877   8.264   7.030  14.423
73346SOL    HW221878   8.198   6.984  14.295
73347SOL     OW21879  14.395   3.368  13.487
73347SOL    HW121880  14.403   3.342  13.395
73347SOL    HW221881  14.406   3.287  13.537
73348SOL     OW21882   6.862  14.070   0.583
73348SOL    HW121883   6.907  14.129   0.522
73348SOL    HW221884   6.771  14.100   0.583
73349SOL     OW21885   8.170   2.343   4.929
73349SOL    HW121886   8.215   2.412   4.978
73349SOL    HW221887   8.241   2.287   4.895
73350SOL     OW21888   1.762   6.380   1.861
73350SOL    HW121889   1.706   6.384   1.939
73350SOL    HW221890   1.847   6.414   1.891
73351SOL     OW21891  13.841   5.208   4.301
73351SOL    HW121892  13.823   5.114   4.307
73351SOL    HW221893  13.786   5.247   4.369
73352SOL     OW21894  12.353  12.296   9.289
73352SOL    HW121895  12.395  12.312   9.374
73352SOL    HW221896  12.259  12.297   9.309
73353SOL     OW21897   3.919  10.513  10.967
73353SOL    HW121898   3.991  10.571  10.990
73353SOL    HW221899   3.842  10.570  10.964
73354SOL     OW21900   2.253   4.741   5.511
73354SOL    HW121901   2.287   4.699   5.590
73354SOL    HW221902   2.331   4.766   5.462
73355SOL     OW21903   1.670   8.085  10.032
73355SOL    HW121904   1.668   7.995  10.002
73355SOL    HW221905   1.707   8.134   9.959
73356SOL     OW21906   5.096   6.355   1.569
73356SOL    HW121907   5.177   6.403   1.552
73356SOL    HW221908   5.098   6.337   1.663
73357SOL     OW21909   2.157  11.921   9.226
73357SOL    HW121910   2.097  11.948   9.295
73357SOL    HW221911   2.160  11.825   9.233
73358SOL     OW21912   6.090  10.313  12.181
73358SOL    HW121913   6.017  10.284  12.126
73358SOL    HW221914   6.090  10.251  12.255
73359SOL     OW21915  13.884   2.514   7.872
73359SOL    HW121916  13.919   2.460   7.801
73359SOL    HW221917  13.907   2.466   7.952
73360SOL     OW21918   2.835  14.512   6.897
73360SOL    HW121919   2.793  14.519   6.811
73360SOL    HW221920   2.821  14.421   6.923
73361SOL     OW21921   3.240   1.610   2.637
73361SOL    HW121922   3.322   1.566   2.663
73361SOL    HW221923   3.227   1.677   2.704
73362SOL     OW21924   3.546  14.741   7.809
73362SOL    HW121925   3.526  14.825   7.850
73362SOL    HW221926   3.468  14.688   7.822
73363SOL     OW21927   2.132   8.396   9.232
73363SOL    HW121928   2.173   8.310   9.226
73363SOL    HW221929   2.153   8.439   9.149
73364SOL     OW21930   4.063  12.482  12.581
73364SOL    HW121931   4.028  12.538  12.512
73364SOL    HW221932   4.056  12.535  12.661
73365SOL     OW21933   0.725   5.106  13.378
73365SOL    HW121934   0.807   5.099  13.329
73365SOL    HW221935   0.671   5.035  13.343
73366SOL     OW21936   3.876   4.036  14.554
73366SOL    HW121937   3.831   4.089  14.619
73366SOL    HW221938   3.823   4.044  14.474
73367SOL     OW21939   2.520  14.106  12.087
73367SOL    HW121940   2.502  14.133  12.177
73367SOL    HW221941   2.435  14.108  12.043
73368SOL     OW21942   3.307  11.719  14.100
73368SOL    HW121943   3.337  11.810  14.099
73368SOL    HW221944   3.379  11.670  14.141
73369SOL     OW21945   1.489   8.079   9.649
73369SOL    HW121946   1.565   8.069   9.706
73369SOL    HW221947   1.414   8.055   9.704
73370SOL     OW21948   7.214   7.261   7.032
73370SOL    HW121949   7.142   7.208   6.998
73370SOL    HW221950   7.195   7.350   7.002
73371SOL     OW21951   0.140   1.194   2.772
73371SOL    HW121952   0.103   1.282   2.779
73371SOL    HW221953   0.068   1.135   2.790
73372SOL     OW21954   5.063   0.119   6.090
73372SOL    HW121955   4.975   0.135   6.057
73372SOL    HW221956   5.050   0.094   6.182
73373SOL     OW21957   7.398   5.116   8.913
73373SOL    HW121958   7.317   5.167   8.900
73373SOL    HW221959   7.462   5.159   8.857
73374SOL     OW21960   1.120  14.529   5.560
73374SOL    HW121961   1.177  14.587   5.509
73374SOL    HW221962   1.129  14.443   5.519
73375SOL     OW21963   4.415   1.423  12.278
73375SOL    HW121964   4.454   1.383  12.201
73375SOL    HW221965   4.347   1.482  12.244
73376SOL     OW21966   5.511   3.831   7.928
73376SOL    HW121967   5.428   3.812   7.884
73376SOL    HW221968   5.523   3.926   7.917
73377SOL     OW21969  10.287   5.805   9.908
73377SOL    HW121970  10.264   5.868   9.840
73377SOL    HW221971  10.356   5.849   9.958
73378SOL     OW21972   5.103   1.208   6.999
73378SOL    HW121973   5.110   1.192   7.093
73378SOL    HW221974   5.071   1.126   6.963
73379SOL     OW21975   7.915   2.999  13.982
73379SOL    HW121976   7.991   2.958  14.023
73379SOL    HW221977   7.840   2.964  14.028
73380SOL     OW21978  10.757   9.889   5.311
73380SOL    HW121979  10.773   9.796   5.324
73380SOL    HW221980  10.675   9.906   5.357
73381SOL     OW21981  14.581   0.403   5.532
73381SOL    HW121982  14.563   0.488   5.571
73381SOL    HW221983  14.551   0.411   5.442
73382SOL     OW21984  10.643  14.326  10.061
73382SOL    HW121985  10.673  14.417  10.056
73382SOL    HW221986  10.676  14.294  10.145
73383SOL     OW21987   3.390  12.182  13.386
73383SOL    HW121988   3.314  12.208  13.437
73383SOL    HW221989   3.439  12.122  13.443
73384SOL     OW21990   8.982   1.373  10.202
73384SOL    HW121991   8.962   1.361  10.295
73384SOL    HW221992   8.919   1.438  10.172
73385SOL     OW21993   1.048   8.215   2.573
73385SOL    HW121994   1.003   8.258   2.500
73385SOL    HW221995   1.086   8.287   2.623
73386SOL     OW21996  12.760  11.245  14.844
73386SOL    HW121997  12.791  11.173   0.020
73386SOL    HW221998  12.739  11.204  14.760
73387SOL     OW21999   2.363   3.354   5.630
73387SOL    HW122000   2.449   3.384   5.602
73387SOL    HW222001   2.358   3.377   5.723
73388SOL     OW22002   4.554   4.473   7.597
73388SOL    HW122003   4.552   4.536   7.669
73388SOL    HW222004   4.529   4.525   7.520
73389SOL     OW22005   3.625   3.446   9.068
73389SOL    HW122006   3.554   3.381   9.073
73389SOL    HW222007   3.698   3.405   9.114
73390SOL     OW22008   7.961   5.931   7.792
73390SOL    HW122009   7.975   5.995   7.723
73390SOL    HW222010   8.001   5.970   7.869
73391SOL     OW22011   4.908  12.732   2.988
73391SOL    HW122012   4.948  12.802   3.039
73391SOL    HW222013   4.954  12.735   2.904
73392SOL     OW22014   9.846   3.319   6.063
73392SOL    HW122015   9.780   3.383   6.090
73392SOL    HW222016   9.917   3.330   6.126
73393SOL     OW22017   9.331  10.807   4.282
73393SOL    HW122018   9.390  10.731   4.283
73393SOL    HW222019   9.248  10.773   4.314
73394SOL     OW22020   2.084   6.941  11.579
73394SOL    HW122021   2.008   6.993  11.553
73394SOL    HW222022   2.151   7.005  11.602
73395SOL     OW22023   7.245   9.683   9.535
73395SOL    HW122024   7.250   9.648   9.446
73395SOL    HW222025   7.333   9.715   9.553
73396SOL     OW22026  14.510   7.982  13.877
73396SOL    HW122027  14.427   7.997  13.832
73396SOL    HW222028  14.509   8.044  13.950
73397SOL     OW22029   1.161   8.621   5.921
73397SOL    HW122030   1.150   8.715   5.935
73397SOL    HW222031   1.154   8.582   6.008
73398SOL     OW22032   7.123   2.508   3.864
73398SOL    HW122033   7.080   2.510   3.949
73398SOL    HW222034   7.192   2.442   3.874
73399SOL     OW22035   9.757  13.138  11.967
73399SOL    HW122036   9.668  13.133  12.001
73399SOL    HW222037   9.810  13.093  12.033
73400SOL     OW22038   4.805   3.984   1.908
73400SOL    HW122039   4.842   3.896   1.907
73400SOL    HW222040   4.743   3.986   1.835
73401SOL     OW22041   7.177   2.297   6.471
73401SOL    HW122042   7.212   2.382   6.497
73401SOL    HW222043   7.210   2.236   6.537
73402SOL     OW22044   1.387   8.682   9.088
73402SOL    HW122045   1.429   8.692   9.174
73402SOL    HW222046   1.442   8.620   9.041
73403SOL     OW22047  13.721   3.745   3.517
73403SOL    HW122048  13.653   3.781   3.575
73403SOL    HW222049  13.752   3.666   3.561
73404SOL     OW22050   3.813  12.560   8.768
73404SOL    HW122051   3.788  12.646   8.803
73404SOL    HW222052   3.873  12.580   8.697
73405SOL     OW22053   2.060   4.932   0.671
73405SOL    HW122054   1.988   4.916   0.731
73405SOL    HW222055   2.045   5.021   0.639
73406SOL     OW22056  11.071   0.236  14.871
73406SOL    HW122057  11.069   0.197  14.783
73406SOL    HW222058  11.098   0.327  14.856
73407SOL     OW22059   0.418   5.419  14.658
73407SOL    HW122060   0.430   5.510  14.684
73407SOL    HW222061   0.353   5.422  14.588
73408SOL     OW22062  12.029  12.519   1.425
73408SOL    HW122063  12.048  12.517   1.331
73408SOL    HW222064  12.028  12.612   1.447
73409SOL     OW22065   8.177  14.483  12.299
73409SOL    HW122066   8.132  14.399  12.311
73409SOL    HW222067   8.109  14.549  12.310
73410SOL     OW22068   2.040   4.465  14.796
73410SOL    HW122069   1.968   4.409  14.825
73410SOL    HW222070   2.025   4.475  14.702
73411SOL     OW22071   7.395   7.327   5.839
73411SOL    HW122072   7.388   7.390   5.911
73411SOL    HW222073   7.308   7.327   5.798
73412SOL     OW22074   2.096   0.130   9.801
73412SOL    HW122075   2.017   0.129   9.747
73412SOL    HW222076   2.077   0.069   9.872
73413SOL     OW22077   6.844  14.430   0.100
73413SOL    HW122078   6.877  14.475   0.023
73413SOL    HW222079   6.821  14.343   0.070
73414SOL     OW22080  14.535   4.583   6.447
73414SOL    HW122081  14.463   4.623   6.398
73414SOL    HW222082  14.498   4.502   6.482
73415SOL     OW22083   9.306   4.737  10.104
73415SOL    HW122084   9.294   4.823  10.063
73415SOL    HW222085   9.218   4.701  10.112
73416SOL     OW22086   3.717   6.925   8.202
73416SOL    HW122087   3.703   6.958   8.291
73416SOL    HW222088   3.764   6.996   8.158
73417SOL     OW22089   3.824  12.209   4.028
73417SOL    HW122090   3.906  12.257   4.032
73417SOL    HW222091   3.802  12.206   3.935
73418SOL     OW22092   3.476   4.910   5.974
73418SOL    HW122093   3.396   4.924   5.923
73418SOL    HW222094   3.456   4.947   6.060
73419SOL     OW22095  11.829   2.406   9.588
73419SOL    HW122096  11.890   2.375   9.521
73419SOL    HW222097  11.871   2.484   9.624
73420SOL     OW22098   6.813   2.520   4.440
73420SOL    HW122099   6.843   2.606   4.468
73420SOL    HW222100   6.726   2.535   4.403
73421SOL     OW22101   8.533  10.035   1.747
73421SOL    HW122102   8.595   9.965   1.722
73421SOL    HW222103   8.588  10.103   1.784
73422SOL     OW22104  14.032   1.452  13.107
73422SOL    HW122105  14.013   1.453  13.013
73422SOL    HW222106  14.041   1.359  13.128
73423SOL     OW22107   3.345  13.053   6.299
73423SOL    HW122108   3.422  13.072   6.353
73423SOL    HW222109   3.286  13.128   6.314
73424SOL     OW22110   9.404   4.869  14.002
73424SOL    HW122111   9.334   4.921  13.963
73424SOL    HW222112   9.432   4.919  14.079
73425SOL     OW22113  14.022   4.368   7.372
73425SOL    HW122114  14.078   4.418   7.431
73425SOL    HW222115  14.043   4.277   7.391
73426SOL     OW22116  13.647   6.693   2.490
73426SOL    HW122117  13.695   6.630   2.437
73426SOL    HW222118  13.639   6.651   2.576
73427SOL     OW22119   5.663   2.763  14.427
73427SOL    HW122120   5.693   2.854  14.428
73427SOL    HW222121   5.696   2.726  14.509
73428SOL     OW22122  13.012   4.900   1.868
73428SOL    HW122123  13.061   4.979   1.845
73428SOL    HW222124  13.076   4.844   1.911
73429SOL     OW22125   0.067  13.441  12.201
73429SOL    HW122126   0.075  13.498  12.124
73429SOL    HW222127  14.854  13.446  12.224
73430SOL     OW22128  11.496  11.574   5.333
73430SOL    HW122129  11.421  11.604   5.384
73430SOL    HW222130  11.498  11.634   5.257
73431SOL     OW22131   5.612   3.787   0.566
73431SOL    HW122132   5.585   3.696   0.577
73431SOL    HW222133   5.555   3.837   0.624
73432SOL     OW22134   1.522  13.592  10.770
73432SOL    HW122135   1.463  13.551  10.834
73432SOL    HW222136   1.465  13.647  10.716
73433SOL     OW22137  14.540   4.008   9.854
73433SOL    HW122138  14.629   4.043   9.840
73433SOL    HW222139  14.550   3.945   9.925
73434SOL     OW22140  13.628   3.225   1.218
73434SOL    HW122141  13.547   3.249   1.263
73434SOL    HW222142  13.652   3.140   1.254
73435SOL     OW22143   4.140  11.582   0.374
73435SOL    HW122144   4.162  11.665   0.333
73435SOL    HW222145   4.044  11.577   0.368
73436SOL     OW22146   7.872   7.216  13.074
73436SOL    HW122147   7.903   7.136  13.032
73436SOL    HW222148   7.939   7.236  13.140
73437SOL     OW22149   1.998   1.634   6.676
73437SOL    HW122150   2.092   1.651   6.670
73437SOL    HW222151   1.992   1.538   6.680
73438SOL     OW22152   8.684   1.705   0.421
73438SOL    HW122153   8.629   1.724   0.345
73438SOL    HW222154   8.640   1.748   0.494
73439SOL     OW22155   6.623   3.269  13.714
73439SOL    HW122156   6.641   3.269  13.620
73439SOL    HW222157   6.694   3.319  13.752
73440SOL     OW22158   2.357   5.310  14.875
73440SOL    HW122159   2.334   5.349   0.080
73440SOL    HW222160   2.341   5.216   0.008
73441SOL     OW22161   6.883  14.265   2.428
73441SOL    HW122162   6.959  14.206   2.422
73441SOL    HW222163   6.830  14.229   2.499
73442SOL     OW22164   7.595   2.847  14.372
73442SOL    HW122165   7.516   2.867  14.323
73442SOL    HW222166   7.581   2.886  14.458
73443SOL     OW22167  13.690  12.502   4.282
73443SOL    HW122168  13.776  12.513   4.321
73443SOL    HW222169  13.706  12.506   4.188
73444SOL     OW22170   7.526   4.095  11.601
73444SOL    HW122171   7.519   4.001  11.614
73444SOL    HW222172   7.487   4.110  11.514
73445SOL     OW22173   4.999   9.285   4.614
73445SOL    HW122174   5.024   9.206   4.663
73445SOL    HW222175   5.045   9.356   4.660
73446SOL     OW22176   0.628   9.394   2.763
73446SOL    HW122177   0.695   9.418   2.699
73446SOL    HW222178   0.629   9.467   2.826
73447SOL     OW22179   2.006   4.470   3.279
73447SOL    HW122180   1.935   4.513   3.232
73447SOL    HW222181   2.085   4.494   3.231
73448SOL     OW22182   9.523  10.783   6.300
73448SOL    HW122183   9.477  10.817   6.223
73448SOL    HW222184   9.488  10.832   6.374
73449SOL     OW22185   8.233   1.770  14.132
73449SOL    HW122186   8.203   1.802  14.047
73449SOL    HW222187   8.313   1.722  14.112
73450SOL     OW22188  12.743   6.559  12.683
73450SOL    HW122189  12.653   6.592  12.683
73450SOL    HW222190  12.786   6.607  12.612
73451SOL     OW22191   9.391   7.698   5.252
73451SOL    HW122192   9.301   7.711   5.280
73451SOL    HW222193   9.429   7.785   5.252
73452SOL     OW22194   7.350   2.738   2.420
73452SOL    HW122195   7.309   2.806   2.367
73452SOL    HW222196   7.326   2.656   2.378
73453SOL     OW22197   9.775   8.701   9.054
73453SOL    HW122198   9.795   8.666   8.967
73453SOL    HW222199   9.761   8.794   9.041
73454SOL     OW22200  13.491   4.886   9.426
73454SOL    HW122201  13.499   4.791   9.421
73454SOL    HW222202  13.547   4.910   9.500
73455SOL     OW22203   1.940   4.016   9.818
73455SOL    HW122204   1.943   3.921   9.805
73455SOL    HW222205   1.915   4.027   9.910
73456SOL     OW22206   5.417   6.350   7.646
73456SOL    HW122207   5.324   6.337   7.665
73456SOL    HW222208   5.443   6.422   7.705
73457SOL     OW22209  12.849   4.385  10.823
73457SOL    HW122210  12.862   4.477  10.802
73457SOL    HW222211  12.809   4.386  10.910
73458SOL     OW22212   5.316   4.199   4.984
73458SOL    HW122213   5.372   4.155   4.920
73458SOL    HW222214   5.372   4.212   5.060
73459SOL     OW22215   8.323   4.454   7.431
73459SOL    HW122216   8.408   4.409   7.439
73459SOL    HW222217   8.280   4.438   7.514
73460SOL     OW22218   4.339   1.763   8.826
73460SOL    HW122219   4.423   1.803   8.804
73460SOL    HW222220   4.280   1.837   8.840
73461SOL     OW22221   9.987   4.050   7.814
73461SOL    HW122222   9.905   4.057   7.864
73461SOL    HW222223  10.056   4.061   7.880
73462SOL     OW22224  14.004   3.134   9.399
73462SOL    HW122225  14.078   3.083   9.434
73462SOL    HW222226  14.013   3.220   9.440
73463SOL     OW22227  11.172  12.108   5.819
73463SOL    HW122228  11.104  12.045   5.794
73463SOL    HW222229  11.148  12.135   5.908
73464SOL     OW22230   7.302   1.254   7.956
73464SOL    HW122231   7.240   1.268   8.027
73464SOL    HW222232   7.272   1.174   7.912
73465SOL     OW22233   1.454   2.405   7.145
73465SOL    HW122234   1.535   2.381   7.190
73465SOL    HW222235   1.474   2.392   7.052
73466SOL     OW22236   3.662  13.715  11.353
73466SOL    HW122237   3.756  13.698  11.352
73466SOL    HW222238   3.645  13.748  11.442
73467SOL     OW22239   4.510   2.342   9.201
73467SOL    HW122240   4.516   2.380   9.289
73467SOL    HW222241   4.590   2.291   9.192
73468SOL     OW22242   0.207  13.885  11.744
73468SOL    HW122243   0.121  13.904  11.706
73468SOL    HW222244   0.197  13.906  11.837
73469SOL     OW22245  12.425   9.666   1.539
73469SOL    HW122246  12.450   9.750   1.576
73469SOL    HW222247  12.434   9.678   1.444
73470SOL     OW22248  13.475   2.248  11.940
73470SOL    HW122249  13.505   2.197  12.016
73470SOL    HW222250  13.515   2.205  11.865
73471SOL     OW22251   3.849  12.820  10.036
73471SOL    HW122252   3.812  12.742   9.994
73471SOL    HW222253   3.910  12.784  10.101
73472SOL     OW22254   9.307  10.107  14.870
73472SOL    HW122255   9.342  10.036   0.044
73472SOL    HW222256   9.365  10.181   0.008
73473SOL     OW22257   2.900  11.260  12.792
73473SOL    HW122258   2.849  11.182  12.814
73473SOL    HW222259   2.898  11.314  12.871
73474SOL     OW22260   3.247  12.391   1.884
73474SOL    HW122261   3.302  12.386   1.806
73474SOL    HW222262   3.276  12.470   1.930
73475SOL     OW22263  11.953   3.678   2.917
73475SOL    HW122264  11.961   3.653   3.009
73475SOL    HW222265  11.887   3.747   2.917
73476SOL     OW22266   9.151   5.226  13.727
73476SOL    HW122267   9.140   5.223  13.822
73476SOL    HW222268   9.084   5.287  13.697
73477SOL     OW22269   0.135   7.134   2.988
73477SOL    HW122270   0.052   7.121   3.033
73477SOL    HW222271   0.114   7.129   2.895
73478SOL     OW22272  10.172   6.903   9.838
73478SOL    HW122273  10.161   6.951   9.920
73478SOL    HW222274  10.131   6.960   9.772
73479SOL     OW22275   6.639   3.777   3.863
73479SOL    HW122276   6.726   3.817   3.859
73479SOL    HW222277   6.655   3.685   3.881
73480SOL     OW22278   7.496   5.430   4.042
73480SOL    HW122279   7.504   5.335   4.043
73480SOL    HW222280   7.583   5.461   4.018
73481SOL     OW22281  13.082   7.752   2.370
73481SOL    HW122282  13.064   7.666   2.333
73481SOL    HW222283  13.019   7.810   2.328
73482SOL     OW22284   5.660  14.687  13.586
73482SOL    HW122285   5.594  14.618  13.583
73482SOL    HW222286   5.737  14.648  13.545
73483SOL     OW22287   2.538   5.642   3.828
73483SOL    HW122288   2.462   5.584   3.834
73483SOL    HW222289   2.504   5.728   3.855
73484SOL     OW22290  11.419   2.766  11.163
73484SOL    HW122291  11.441   2.673  11.169
73484SOL    HW222292  11.345   2.778  11.221
73485SOL     OW22293   4.134   7.599   8.599
73485SOL    HW122294   4.147   7.693   8.616
73485SOL    HW222295   4.051   7.579   8.642
73486SOL     OW22296  13.316   5.579   3.214
73486SOL    HW122297  13.331   5.658   3.267
73486SOL    HW222298  13.221   5.576   3.204
73487SOL     OW22299  14.357   8.507  13.008
73487SOL    HW122300  14.381   8.594  13.041
73487SOL    HW222301  14.366   8.513  12.913
73488SOL     OW22302  12.186   4.463   8.913
73488SOL    HW122303  12.253   4.398   8.934
73488SOL    HW222304  12.201   4.484   8.820
73489SOL     OW22305   5.133  13.569   8.914
73489SOL    HW122306   5.043  13.582   8.884
73489SOL    HW222307   5.126  13.565   9.010
73490SOL     OW22308   6.310  13.981   6.221
73490SOL    HW122309   6.370  13.948   6.288
73490SOL    HW222310   6.366  14.017   6.153
73491SOL     OW22311  12.136  14.369  14.365
73491SOL    HW122312  12.066  14.305  14.382
73491SOL    HW222313  12.155  14.361  14.272
73492SOL     OW22314   5.455   5.446   3.353
73492SOL    HW122315   5.448   5.367   3.299
73492SOL    HW222316   5.398   5.428   3.429
73493SOL     OW22317   8.872   8.863  14.428
73493SOL    HW122318   8.856   8.948  14.468
73493SOL    HW222319   8.867   8.801  14.502
73494SOL     OW22320   1.427   5.381   7.178
73494SOL    HW122321   1.381   5.367   7.095
73494SOL    HW222322   1.470   5.298   7.195
73495SOL     OW22323  10.881  14.577   2.437
73495SOL    HW122324  10.875  14.521   2.360
73495SOL    HW222325  10.960  14.548   2.482
73496SOL     OW22326  10.652   4.431   4.666
73496SOL    HW122327  10.740   4.463   4.686
73496SOL    HW222328  10.599   4.510   4.659
73497SOL     OW22329   6.293   0.686   9.607
73497SOL    HW122330   6.352   0.618   9.638
73497SOL    HW222331   6.280   0.666   9.514
73498SOL     OW22332   1.243  14.496  13.045
73498SOL    HW122333   1.229  14.543  12.963
73498SOL    HW222334   1.254  14.405  13.019
73499SOL     OW22335   7.222   3.364   8.273
73499SOL    HW122336   7.132   3.339   8.294
73499SOL    HW222337   7.274   3.329   8.345
73500SOL     OW22338  14.107   2.869   1.908
73500SOL    HW122339  14.173   2.867   1.977
73500SOL    HW222340  14.071   2.957   1.912
73501SOL     OW22341  14.633   4.287   1.833
73501SOL    HW122342  14.602   4.347   1.765
73501SOL    HW222343  14.589   4.204   1.813
73502SOL     OW22344   4.377  14.022   1.217
73502SOL    HW122345   4.338  13.943   1.179
73502SOL    HW222346   4.471  14.008   1.209
73503SOL     OW22347   9.314   1.505  14.734
73503SOL    HW122348   9.375   1.565  14.692
73503SOL    HW222349   9.308   1.536  14.825
73504SOL     OW22350  14.045  11.820   2.641
73504SOL    HW122351  14.076  11.884   2.705
73504SOL    HW222352  14.036  11.870   2.560
73505SOL     OW22353  14.814   0.401   8.015
73505SOL    HW122354  14.800   0.306   8.016
73505SOL    HW222355  14.757   0.435   8.084
73506SOL     OW22356   0.734   2.133   7.962
73506SOL    HW122357   0.828   2.120   7.974
73506SOL    HW222358   0.718   2.220   8.000
73507SOL     OW22359  10.667   7.674   4.108
73507SOL    HW122360  10.721   7.750   4.129
73507SOL    HW222361  10.674   7.664   4.013
73508SOL     OW22362  12.552  13.007  14.695
73508SOL    HW122363  12.458  12.988  14.704
73508SOL    HW222364  12.576  12.964  14.613
73509SOL     OW22365   8.815   4.827   9.282
73509SOL    HW122366   8.858   4.866   9.358
73509SOL    HW222367   8.887   4.792   9.229
73510SOL     OW22368  14.117   7.801   9.332
73510SOL    HW122369  14.142   7.722   9.381
73510SOL    HW222370  14.127   7.873   9.394
73511SOL     OW22371  10.998  13.350   5.439
73511SOL    HW122372  10.949  13.332   5.519
73511SOL    HW222373  11.039  13.435   5.455
73512SOL     OW22374  14.593  14.392  11.635
73512SOL    HW122375  14.539  14.408  11.557
73512SOL    HW222376  14.634  14.476  11.654
73513SOL     OW22377  11.908   2.245   1.794
73513SOL    HW122378  11.841   2.230   1.861
73513SOL    HW222379  11.887   2.331   1.758
73514SOL     OW22380  10.429   2.832   1.565
73514SOL    HW122381  10.398   2.906   1.513
73514SOL    HW222382  10.389   2.845   1.651
73515SOL     OW22383   9.677   4.419  11.635
73515SOL    HW122384   9.727   4.492  11.671
73515SOL    HW222385   9.690   4.425  11.540
73516SOL     OW22386   3.901  12.328  14.153
73516SOL    HW122387   3.809  12.307  14.167
73516SOL    HW222388   3.922  12.287  14.068
73517SOL     OW22389   0.985   8.585  14.280
73517SOL    HW122390   0.972   8.617  14.370
73517SOL    HW222391   0.900   8.550  14.255
73518SOL     OW22392   8.617   0.280   2.392
73518SOL    HW122393   8.541   0.337   2.385
73518SOL    HW222394   8.662   0.308   2.471
73519SOL     OW22395   3.303   9.926   6.171
73519SOL    HW122396   3.228   9.983   6.154
73519SOL    HW222397   3.278   9.875   6.248
73520SOL     OW22398  12.968  13.392   1.595
73520SOL    HW122399  13.032  13.431   1.654
73520SOL    HW222400  13.014  13.382   1.512
73521SOL     OW22401   2.214  13.777   6.962
73521SOL    HW122402   2.296  13.805   7.001
73521SOL    HW222403   2.207  13.684   6.984
73522SOL     OW22404   1.392  10.595  13.662
73522SOL    HW122405   1.379  10.503  13.641
73522SOL    HW222406   1.372  10.602  13.755
73523SOL     OW22407   2.023  11.680  13.174
73523SOL    HW122408   1.994  11.676  13.083
73523SOL    HW222409   2.112  11.645  13.174
73524SOL     OW22410  11.692   3.924  12.933
73524SOL    HW122411  11.732   3.979  12.866
73524SOL    HW222412  11.759   3.915  13.001
73525SOL     OW22413   3.052   1.860  10.654
73525SOL    HW122414   2.995   1.785  10.635
73525SOL    HW222415   3.000   1.916  10.711
73526SOL     OW22416   7.091   1.531   4.278
73526SOL    HW122417   7.169   1.501   4.325
73526SOL    HW222418   7.028   1.459   4.288
73527SOL     OW22419  10.054   2.335  13.772
73527SOL    HW122420   9.995   2.373  13.707
73527SOL    HW222421  10.061   2.243  13.746
73528SOL     OW22422  14.377   7.669  13.442
73528SOL    HW122423  14.333   7.754  13.437
73528SOL    HW222424  14.345   7.621  13.365
73529SOL     OW22425   1.582  13.462   6.029
73529SOL    HW122426   1.531  13.438   6.106
73529SOL    HW222427   1.517  13.474   5.960
73530SOL     OW22428   6.708   4.560   7.543
73530SOL    HW122429   6.764   4.512   7.482
73530SOL    HW222430   6.631   4.583   7.492
73531SOL     OW22431  13.153  11.292   8.101
73531SOL    HW122432  13.191  11.204   8.095
73531SOL    HW222433  13.060  11.278   8.114
73532SOL     OW22434   3.204  11.974   3.242
73532SOL    HW122435   3.277  12.035   3.243
73532SOL    HW222436   3.126  12.030   3.235
73533SOL     OW22437  14.808  13.495   0.965
73533SOL    HW122438   0.023  13.511   0.957
73533SOL    HW222439  14.781  13.469   0.877
73534SOL     OW22440   3.095   8.924  11.881
73534SOL    HW122441   3.032   8.992  11.906
73534SOL    HW222442   3.122   8.885  11.964
73535SOL     OW22443   0.911  13.248   5.721
73535SOL    HW122444   0.940  13.197   5.797
73535SOL    HW222445   0.879  13.330   5.758
73536SOL     OW22446  11.962   8.547   1.538
73536SOL    HW122447  12.021   8.479   1.506
73536SOL    HW222448  11.882   8.535   1.487
73537SOL     OW22449  14.105   3.578   6.870
73537SOL    HW122450  14.124   3.495   6.825
73537SOL    HW222451  14.014   3.597   6.848
73538SOL     OW22452   0.641   1.922   6.712
73538SOL    HW122453   0.585   1.848   6.690
73538SOL    HW222454   0.729   1.893   6.691
73539SOL     OW22455   9.167   3.375   3.897
73539SOL    HW122456   9.082   3.344   3.866
73539SOL    HW222457   9.181   3.458   3.850
73540SOL     OW22458   0.412   5.167   5.714
73540SOL    HW122459   0.390   5.224   5.788
73540SOL    HW222460   0.495   5.202   5.681
73541SOL     OW22461   0.599   1.055   2.808
73541SOL    HW122462   0.627   1.056   2.900
73541SOL    HW222463   0.504   1.066   2.813
73542SOL     OW22464   4.538   8.170   9.322
73542SOL    HW122465   4.595   8.156   9.398
73542SOL    HW222466   4.449   8.173   9.359
73543SOL     OW22467   7.539   2.014   8.843
73543SOL    HW122468   7.466   1.957   8.867
73543SOL    HW222469   7.604   1.999   8.912
73544SOL     OW22470   1.626  12.481   8.128
73544SOL    HW122471   1.560  12.489   8.058
73544SOL    HW222472   1.663  12.569   8.136
73545SOL     OW22473   5.258  14.491   8.073
73545SOL    HW122474   5.237  14.419   8.132
73545SOL    HW222475   5.197  14.561   8.098
73546SOL     OW22476   8.931   0.576   2.838
73546SOL    HW122477   8.906   0.513   2.770
73546SOL    HW222478   8.962   0.652   2.789
73547SOL     OW22479   0.980   1.284  11.556
73547SOL    HW122480   0.989   1.258  11.648
73547SOL    HW222481   1.067   1.274  11.520
73548SOL     OW22482  10.394   3.778  11.900
73548SOL    HW122483  10.404   3.868  11.870
73548SOL    HW222484  10.323   3.782  11.964
73549SOL     OW22485  12.208   4.962   8.464
73549SOL    HW122486  12.131   4.972   8.408
73549SOL    HW222487  12.282   4.972   8.404
73550SOL     OW22488   2.738   7.329  12.047
73550SOL    HW122489   2.822   7.304  12.085
73550SOL    HW222490   2.673   7.299  12.110
73551SOL     OW22491   1.745   4.294  11.935
73551SOL    HW122492   1.739   4.309  11.841
73551SOL    HW222493   1.694   4.366  11.974
73552SOL     OW22494  11.448   3.437   1.899
73552SOL    HW122495  11.394   3.457   1.975
73552SOL    HW222496  11.517   3.379   1.932
73553SOL     OW22497  13.348  13.450  10.325
73553SOL    HW122498  13.389  13.449  10.411
73553SOL    HW222499  13.344  13.358  10.298
73554SOL     OW22500   8.388   3.000  12.091
73554SOL    HW122501   8.475   2.985  12.054
73554SOL    HW222502   8.397   3.083  12.138
73555SOL     OW22503   3.310   4.488  13.034
73555SOL    HW122504   3.338   4.450  12.950
73555SOL    HW222505   3.351   4.575  13.035
73556SOL     OW22506   1.799  12.713   4.851
73556SOL    HW122507   1.836  12.658   4.782
73556SOL    HW222508   1.726  12.662   4.885
73557SOL     OW22509   6.300   9.372   3.481
73557SOL    HW122510   6.268   9.453   3.442
73557SOL    HW222511   6.369   9.400   3.542
73558SOL     OW22512  12.510  14.714  14.631
73558SOL    HW122513  12.491  14.621  14.639
73558SOL    HW222514  12.581  14.718  14.566
73559SOL     OW22515   0.846  10.484   0.422
73559SOL    HW122516   0.889  10.465   0.339
73559SOL    HW222517   0.913  10.467   0.488
73560SOL     OW22518   9.184   4.645   8.940
73560SOL    HW122519   9.278   4.629   8.942
73560SOL    HW222520   9.166   4.668   8.848
73561SOL     OW22521   6.716   0.820   1.302
73561SOL    HW122522   6.755   0.742   1.263
73561SOL    HW222523   6.688   0.872   1.226
73562SOL     OW22524   2.139   2.198  13.697
73562SOL    HW122525   2.224   2.154  13.694
73562SOL    HW222526   2.145   2.256  13.773
73563SOL     OW22527  13.896   9.828   9.038
73563SOL    HW122528  13.914   9.846   8.946
73563SOL    HW222529  13.963   9.876   9.086
73564SOL     OW22530   3.155  14.357  14.521
73564SOL    HW122531   3.151  14.399  14.606
73564SOL    HW222532   3.065  14.357  14.489
73565SOL     OW22533   1.084   4.321  12.987
73565SOL    HW122534   1.156   4.272  12.945
73565SOL    HW222535   1.127   4.395  13.028
73566SOL     OW22536  12.530   4.820   9.691
73566SOL    HW122537  12.600   4.867   9.647
73566SOL    HW222538  12.472   4.791   9.621
73567SOL     OW22539   7.423  12.266   2.096
73567SOL    HW122540   7.355  12.332   2.103
73567SOL    HW222541   7.399  12.215   2.018
73568SOL     OW22542  13.889   4.472  13.662
73568SOL    HW122543  13.809   4.470  13.608
73568SOL    HW222544  13.857   4.473  13.752
73569SOL     OW22545  11.273   7.079  12.304
73569SOL    HW122546  11.271   7.144  12.373
73569SOL    HW222547  11.227   7.004  12.340
73570SOL     OW22548   8.499  14.533  13.382
73570SOL    HW122549   8.570  14.523  13.445
73570SOL    HW222550   8.535  14.499  13.300
73571SOL     OW22551   8.597  13.313   0.944
73571SOL    HW122552   8.524  13.253   0.960
73571SOL    HW222553   8.674  13.267   0.976
73572SOL     OW22554   8.062  12.567  12.864
73572SOL    HW122555   7.983  12.614  12.836
73572SOL    HW222556   8.116  12.561  12.785
73573SOL     OW22557   4.269  10.560  10.636
73573SOL    HW122558   4.323  10.526  10.565
73573SOL    HW222559   4.324  10.625  10.679
73574SOL     OW22560   2.629  10.838   7.202
73574SOL    HW122561   2.571  10.913   7.188
73574SOL    HW222562   2.569  10.766   7.224
73575SOL     OW22563   8.095  13.787   1.380
73575SOL    HW122564   8.043  13.859   1.414
73575SOL    HW222565   8.035  13.735   1.327
73576SOL     OW22566   1.822  11.257   4.455
73576SOL    HW122567   1.884  11.310   4.504
73576SOL    HW222568   1.775  11.319   4.400
73577SOL     OW22569  10.472   6.838   8.544
73577SOL    HW122570  10.406   6.770   8.529
73577SOL    HW222571  10.423   6.920   8.541
73578SOL     OW22572   3.741   3.053  14.652
73578SOL    HW122573   3.788   3.130  14.618
73578SOL    HW222574   3.790   3.028  14.731
73579SOL     OW22575   1.916   7.831  10.517
73579SOL    HW122576   1.959   7.915  10.500
73579SOL    HW222577   1.980   7.780  10.566
73580SOL     OW22578   8.339  14.439  10.081
73580SOL    HW122579   8.366  14.400   9.998
73580SOL    HW222580   8.301  14.367  10.131
73581SOL     OW22581  14.524  12.523  14.002
73581SOL    HW122582  14.523  12.545  13.909
73581SOL    HW222583  14.608  12.554  14.034
73582SOL     OW22584   1.896   3.865   6.096
73582SOL    HW122585   1.875   3.839   6.186
73582SOL    HW222586   1.909   3.960   6.101
73583SOL     OW22587   6.624  14.617  11.711
73583SOL    HW122588   6.638  14.712  11.709
73583SOL    HW222589   6.686  14.585  11.777
73584SOL     OW22590   1.991   0.602  10.699
73584SOL    HW122591   1.961   0.547  10.771
73584SOL    HW222592   2.011   0.541  10.628
73585SOL     OW22593  13.019  10.603   3.800
73585SOL    HW122594  13.067  10.531   3.759
73585SOL    HW222595  13.063  10.616   3.884
73586SOL     OW22596   2.831   4.769   1.448
73586SOL    HW122597   2.922   4.760   1.474
73586SOL    HW222598   2.817   4.864   1.440
73587SOL     OW22599   2.886   6.873  11.429
73587SOL    HW122600   2.834   6.904  11.355
73587SOL    HW222601   2.823   6.865  11.501
73588SOL     OW22602   1.818   5.789   9.522
73588SOL    HW122603   1.749   5.832   9.573
73588SOL    HW222604   1.775   5.714   9.481
73589SOL     OW22605   2.809   1.419   6.503
73589SOL    HW122606   2.901   1.415   6.476
73589SOL    HW222607   2.782   1.508   6.480
73590SOL     OW22608   5.291  10.201   1.413
73590SOL    HW122609   5.280  10.244   1.497
73590SOL    HW222610   5.223  10.133   1.410
73591SOL     OW22611   8.587   0.433  11.599
73591SOL    HW122612   8.613   0.400  11.685
73591SOL    HW222613   8.605   0.527  11.603
73592SOL     OW22614   9.431   3.711   9.530
73592SOL    HW122615   9.370   3.659   9.582
73592SOL    HW222616   9.375   3.760   9.470
73593SOL     OW22617   1.648  12.822   8.591
73593SOL    HW122618   1.650  12.855   8.681
73593SOL    HW222619   1.594  12.743   8.595
73594SOL     OW22620   2.297   5.705   5.203
73594SOL    HW122621   2.210   5.743   5.212
73594SOL    HW222622   2.287   5.614   5.231
73595SOL     OW22623   6.679   2.850   8.368
73595SOL    HW122624   6.685   2.760   8.338
73595SOL    HW222625   6.594   2.855   8.413
73596SOL     OW22626   3.664  11.467   4.438
73596SOL    HW122627   3.588  11.516   4.469
73596SOL    HW222628   3.707  11.435   4.517
73597SOL     OW22629  14.145   2.365   5.004
73597SOL    HW122630  14.148   2.441   5.062
73597SOL    HW222631  14.063   2.375   4.956
73598SOL     OW22632  12.022  12.472  12.618
73598SOL    HW122633  12.092  12.482  12.683
73598SOL    HW222634  12.050  12.526  12.544
73599SOL     OW22635   5.613   4.097   1.608
73599SOL    HW122636   5.697   4.124   1.570
73599SOL    HW222637   5.623   4.115   1.702
73600SOL     OW22638  10.523   7.790   5.084
73600SOL    HW122639  10.588   7.787   5.154
73600SOL    HW222640  10.520   7.701   5.049
73601SOL     OW22641  10.464   6.274   8.265
73601SOL    HW122642  10.434   6.283   8.174
73601SOL    HW222643  10.503   6.359   8.286
73602SOL     OW22644   4.648  13.710   1.987
73602SOL    HW122645   4.656  13.778   1.921
73602SOL    HW222646   4.613  13.755   2.064
73603SOL     OW22647   6.756   1.546  10.139
73603SOL    HW122648   6.698   1.535  10.064
73603SOL    HW222649   6.829   1.487  10.122
73604SOL     OW22650   7.678   6.965   8.331
73604SOL    HW122651   7.608   7.030   8.338
73604SOL    HW222652   7.668   6.929   8.242
73605SOL     OW22653   3.768   2.285  14.607
73605SOL    HW122654   3.746   2.222  14.676
73605SOL    HW222655   3.756   2.236  14.525
73606SOL     OW22656   0.219   7.131  14.101
73606SOL    HW122657   0.291   7.128  14.038
73606SOL    HW222658   0.252   7.189  14.171
73607SOL     OW22659  10.685   3.502   1.231
73607SOL    HW122660  10.692   3.456   1.315
73607SOL    HW222661  10.689   3.595   1.254
73608SOL     OW22662   9.719   7.613   6.671
73608SOL    HW122663   9.637   7.638   6.714
73608SOL    HW222664   9.716   7.659   6.587
73609SOL     OW22665  13.698   3.433   8.560
73609SOL    HW122666  13.700   3.414   8.466
73609SOL    HW222667  13.790   3.439   8.586
73610SOL     OW22668   8.412   0.695  10.713
73610SOL    HW122669   8.373   0.756  10.651
73610SOL    HW222670   8.436   0.750  10.789
73611SOL     OW22671   2.613   5.117  13.347
73611SOL    HW122672   2.680   5.061  13.385
73611SOL    HW222673   2.535   5.102  13.402
73612SOL     OW22674   7.801   3.088   9.577
73612SOL    HW122675   7.718   3.039   9.574
73612SOL    HW222676   7.775   3.179   9.587
73613SOL     OW22677  11.731   1.987   9.467
73613SOL    HW122678  11.643   1.984   9.505
73613SOL    HW222679  11.788   1.951   9.535
73614SOL     OW22680   4.016  14.590   7.881
73614SOL    HW122681   4.064  14.594   7.798
73614SOL    HW222682   3.926  14.609   7.857
73615SOL     OW22683   7.046  10.592   8.302
73615SOL    HW122684   7.102  10.526   8.344
73615SOL    HW222685   6.958  10.554   8.304
73616SOL     OW22686   8.000   7.565   8.928
73616SOL    HW122687   7.976   7.614   8.850
73616SOL    HW222688   7.997   7.473   8.901
73617SOL     OW22689   9.464   5.107  12.628
73617SOL    HW122690   9.484   5.199  12.612
73617SOL    HW222691   9.495   5.062  12.549
73618SOL     OW22692   6.463   0.502  11.650
73618SOL    HW122693   6.486   0.491  11.557
73618SOL    HW222694   6.483   0.593  11.669
73619SOL     OW22695  11.567   8.790   9.690
73619SOL    HW122696  11.633   8.859   9.697
73619SOL    HW222697  11.536   8.796   9.600
73620SOL     OW22698   6.609   7.293  12.716
73620SOL    HW122699   6.536   7.355  12.719
73620SOL    HW222700   6.680   7.343  12.676
73621SOL     OW22701   2.843  10.129   4.819
73621SOL    HW122702   2.932  10.164   4.818
73621SOL    HW222703   2.827  10.105   4.910
73622SOL     OW22704   0.956   1.927   2.425
73622SOL    HW122705   1.031   1.986   2.428
73622SOL    HW222706   0.880   1.985   2.422
73623SOL     OW22707   4.690   6.954   2.266
73623SOL    HW122708   4.683   7.026   2.203
73623SOL    HW222709   4.599   6.932   2.287
73624SOL     OW22710  12.252   4.260   5.933
73624SOL    HW122711  12.233   4.297   5.847
73624SOL    HW222712  12.301   4.180   5.915
73625SOL     OW22713  14.490   7.049   4.996
73625SOL    HW122714  14.507   7.051   5.090
73625SOL    HW222715  14.396   7.069   4.988
73626SOL     OW22716  14.533   2.456  13.873
73626SOL    HW122717  14.507   2.366  13.890
73626SOL    HW222718  14.453   2.499  13.842
73627SOL     OW22719  10.676   6.963   9.266
73627SOL    HW122720  10.731   6.944   9.190
73627SOL    HW222721  10.684   7.058   9.278
73628SOL     OW22722   9.923   3.763   8.533
73628SOL    HW122723  10.005   3.765   8.483
73628SOL    HW222724   9.912   3.671   8.557
73629SOL     OW22725  12.073   7.867   9.175
73629SOL    HW122726  12.101   7.949   9.217
73629SOL    HW222727  12.155   7.828   9.144
73630SOL     OW22728   6.821   2.631  11.262
73630SOL    HW122729   6.871   2.684  11.323
73630SOL    HW222730   6.880   2.617  11.188
73631SOL     OW22731   4.851   0.143  12.537
73631SOL    HW122732   4.930   0.092  12.520
73631SOL    HW222733   4.850   0.156  12.632
73632SOL     OW22734   3.181  12.511   4.708
73632SOL    HW122735   3.186  12.526   4.613
73632SOL    HW222736   3.088  12.503   4.726
73633SOL     OW22737  14.832   6.484   6.277
73633SOL    HW122738  14.782   6.403   6.287
73633SOL    HW222739   0.037   6.457   6.241
73634SOL     OW22740   9.500   0.181   9.088
73634SOL    HW122741   9.421   0.230   9.063
73634SOL    HW222742   9.517   0.207   9.178
73635SOL     OW22743  10.171  10.530   9.291
73635SOL    HW122744  10.223  10.504   9.368
73635SOL    HW222745  10.235  10.568   9.231
73636SOL     OW22746  12.725  11.827   5.094
73636SOL    HW122747  12.724  11.845   5.000
73636SOL    HW222748  12.666  11.751   5.105
73637SOL     OW22749   2.829  12.416   2.621
73637SOL    HW122750   2.911  12.412   2.572
73637SOL    HW222751   2.795  12.504   2.605
73638SOL     OW22752   4.505  14.802   0.668
73638SOL    HW122753   4.449  14.802   0.745
73638SOL    HW222754   4.526   0.015   0.652
73639SOL     OW22755   8.644   2.215  10.949
73639SOL    HW122756   8.599   2.294  10.980
73639SOL    HW222757   8.630   2.215  10.855
73640SOL     OW22758  14.316   4.259  13.131
73640SOL    HW122759  14.342   4.340  13.086
73640SOL    HW222760  14.304   4.195  13.060
73641SOL     OW22761   6.334   1.267  11.985
73641SOL    HW122762   6.257   1.214  11.965
73641SOL    HW222763   6.365   1.232  12.069
73642SOL     OW22764   0.326   0.608  13.913
73642SOL    HW122765   0.232   0.625  13.924
73642SOL    HW222766   0.330   0.528  13.861
73643SOL     OW22767   3.945  13.102  11.296
73643SOL    HW122768   4.030  13.134  11.266
73643SOL    HW222769   3.924  13.158  11.371
73644SOL     OW22770   4.871   8.566   6.709
73644SOL    HW122771   4.944   8.504   6.709
73644SOL    HW222772   4.907   8.646   6.670
73645SOL     OW22773  12.724   7.409   6.995
73645SOL    HW122774  12.776   7.455   7.060
73645SOL    HW222775  12.718   7.470   6.921
73646SOL     OW22776  11.472   8.930  11.213
73646SOL    HW122777  11.461   9.016  11.173
73646SOL    HW222778  11.384   8.892  11.213
73647SOL     OW22779   9.755  14.852   8.361
73647SOL    HW122780   9.688  14.789   8.388
73647SOL    HW222781   9.786   0.012   8.442
73648SOL     OW22782   8.478   1.234   2.794
73648SOL    HW122783   8.541   1.170   2.826
73648SOL    HW222784   8.493   1.312   2.848
73649SOL     OW22785   0.884   0.190   9.474
73649SOL    HW122786   0.867   0.284   9.464
73649SOL    HW222787   0.859   0.171   9.565
73650SOL     OW22788   7.324   5.317  11.560
73650SOL    HW122789   7.298   5.310  11.468
73650SOL    HW222790   7.296   5.405  11.587
73651SOL     OW22791  14.014   4.238   1.450
73651SOL    HW122792  14.077   4.208   1.384
73651SOL    HW222793  13.957   4.298   1.402
73652SOL     OW22794  12.724   1.472   0.146
73652SOL    HW122795  12.761   1.414   0.080
73652SOL    HW222796  12.654   1.421   0.187
73653SOL     OW22797  11.791   1.176  13.258
73653SOL    HW122798  11.820   1.211  13.342
73653SOL    HW222799  11.835   1.230  13.193
73654SOL     OW22800   5.489   7.792   8.909
73654SOL    HW122801   5.494   7.759   8.820
73654SOL    HW222802   5.412   7.749   8.947
73655SOL     OW22803   2.371   5.095   2.360
73655SOL    HW122804   2.302   5.030   2.374
73655SOL    HW222805   2.407   5.073   2.274
73656SOL     OW22806  13.505   0.318  11.355
73656SOL    HW122807  13.417   0.349  11.380
73656SOL    HW222808  13.541   0.282  11.436
73657SOL     OW22809   6.162   1.569   5.883
73657SOL    HW122810   6.251   1.555   5.915
73657SOL    HW222811   6.116   1.488   5.904
73658SOL     OW22812   7.770   9.021   3.729
73658SOL    HW122813   7.791   8.934   3.694
73658SOL    HW222814   7.833   9.080   3.687
73659SOL     OW22815   1.503  13.353   9.997
73659SOL    HW122816   1.428  13.390  10.044
73659SOL    HW222817   1.561  13.428   9.981
73660SOL     OW22818  14.389   6.117   2.260
73660SOL    HW122819  14.373   6.044   2.201
73660SOL    HW222820  14.414   6.076   2.343
73661SOL     OW22821   2.814   9.168  12.453
73661SOL    HW122822   2.773   9.188  12.537
73661SOL    HW222823   2.904   9.144  12.474
73662SOL     OW22824  10.358  13.837   7.773
73662SOL    HW122825  10.276  13.886   7.782
73662SOL    HW222826  10.402  13.848   7.858
73663SOL     OW22827  13.663   1.415  12.685
73663SOL    HW122828  13.618   1.386  12.606
73663SOL    HW222829  13.640   1.350  12.752
73664SOL     OW22830  14.525   2.257  12.502
73664SOL    HW122831  14.600   2.198  12.497
73664SOL    HW222832  14.563   2.343  12.523
73665SOL     OW22833  12.943   5.374   8.207
73665SOL    HW122834  12.959   5.280   8.195
73665SOL    HW222835  13.018   5.416   8.164
73666SOL     OW22836  12.238  14.874  12.328
73666SOL    HW122837  12.210  14.812  12.396
73666SOL    HW222838  12.159   0.044  12.307
73667SOL     OW22839   7.880  10.565  10.049
73667SOL    HW122840   7.854  10.557  10.141
73667SOL    HW222841   7.879  10.475  10.016
73668SOL     OW22842   1.959  10.261   2.348
73668SOL    HW122843   1.988  10.176   2.382
73668SOL    HW222844   1.864  10.252   2.340
73669SOL     OW22845  11.503   0.719  13.590
73669SOL    HW122846  11.558   0.714  13.668
73669SOL    HW222847  11.415   0.697  13.622
73670SOL     OW22848   9.911   9.257  14.842
73670SOL    HW122849   9.849   9.253  14.770
73670SOL    HW222850   9.927   9.351  14.855
73671SOL     OW22851   5.333  10.143   2.769
73671SOL    HW122852   5.265  10.083   2.737
73671SOL    HW222853   5.344  10.119   2.861
73672SOL     OW22854   8.017  13.945  10.405
73672SOL    HW122855   8.005  13.854  10.379
73672SOL    HW222856   8.057  13.941  10.492
73673SOL     OW22857   2.243   9.686   0.577
73673SOL    HW122858   2.278   9.775   0.583
73673SOL    HW222859   2.192   9.685   0.497
73674SOL     OW22860   4.357   3.845   7.789
73674SOL    HW122861   4.421   3.914   7.772
73674SOL    HW222862   4.377   3.815   7.877
73675SOL     OW22863   6.792   0.988  10.592
73675SOL    HW122864   6.764   0.953  10.507
73675SOL    HW222865   6.867   1.045  10.571
73676SOL     OW22866  14.526   2.955  11.718
73676SOL    HW122867  14.494   2.869  11.744
73676SOL    HW222868  14.588   2.979  11.787
73677SOL     OW22869  14.520   9.284   2.223
73677SOL    HW122870  14.567   9.201   2.218
73677SOL    HW222871  14.427   9.260   2.219
73678SOL     OW22872  10.903   1.686   2.539
73678SOL    HW122873  10.991   1.671   2.504
73678SOL    HW222874  10.917   1.741   2.616
73679SOL     OW22875   1.787   5.072  12.493
73679SOL    HW122876   1.878   5.102  12.486
73679SOL    HW222877   1.775   5.053  12.586
73680SOL     OW22878   9.044  14.397  11.680
73680SOL    HW122879   9.117  14.400  11.619
73680SOL    HW222880   9.085  14.398  11.767
73681SOL     OW22881  11.894   3.402  11.991
73681SOL    HW122882  11.972   3.381  12.042
73681SOL    HW222883  11.920   3.391  11.900
73682SOL     OW22884   7.967   4.104   1.269
73682SOL    HW122885   8.012   4.029   1.229
73682SOL    HW222886   7.950   4.076   1.359
73683SOL     OW22887   8.477   8.907  12.257
73683SOL    HW122888   8.476   8.969  12.329
73683SOL    HW222889   8.513   8.956  12.183
73684SOL     OW22890   4.884   9.053  12.848
73684SOL    HW122891   4.884   8.984  12.914
73684SOL    HW222892   4.971   9.093  12.854
73685SOL     OW22893   4.742   2.919   1.993
73685SOL    HW122894   4.796   2.889   1.920
73685SOL    HW222895   4.730   2.841   2.048
73686SOL     OW22896   8.173  11.191   6.375
73686SOL    HW122897   8.190  11.265   6.316
73686SOL    HW222898   8.098  11.147   6.336
73687SOL     OW22899   3.867   5.971   5.999
73687SOL    HW122900   3.823   6.045   5.957
73687SOL    HW222901   3.881   6.000   6.089
73688SOL     OW22902   6.873  10.566   6.734
73688SOL    HW122903   6.929  10.489   6.728
73688SOL    HW222904   6.933  10.640   6.720
73689SOL     OW22905   6.001   8.550   7.834
73689SOL    HW122906   5.971   8.641   7.830
73689SOL    HW222907   6.062   8.542   7.761
73690SOL     OW22908  10.160   1.237  13.789
73690SOL    HW122909  10.221   1.263  13.719
73690SOL    HW222910  10.146   1.318  13.839
73691SOL     OW22911  14.575   2.365   8.956
73691SOL    HW122912  14.518   2.327   9.023
73691SOL    HW222913  14.658   2.379   9.001
73692SOL     OW22914  11.734   9.414   6.439
73692SOL    HW122915  11.641   9.409   6.462
73692SOL    HW222916  11.735   9.463   6.357
73693SOL     OW22917   9.306   4.013   0.511
73693SOL    HW122918   9.370   3.956   0.468
73693SOL    HW222919   9.221   3.978   0.484
73694SOL     OW22920   8.729   4.396   2.548
73694SOL    HW122921   8.666   4.410   2.619
73694SOL    HW222922   8.714   4.306   2.520
73695SOL     OW22923   9.562   6.266   7.417
73695SOL    HW122924   9.473   6.235   7.430
73695SOL    HW222925   9.555   6.332   7.348
73696SOL     OW22926   3.562   0.077  10.858
73696SOL    HW122927   3.546   0.161  10.901
73696SOL    HW222928   3.478   0.031  10.864
73697SOL     OW22929   2.567  11.427  13.668
73697SOL    HW122930   2.479  11.451  13.698
73697SOL    HW222931   2.585  11.486  13.596
73698SOL     OW22932   0.317   2.183  13.421
73698SOL    HW122933   0.264   2.261  13.402
73698SOL    HW222934   0.406   2.217  13.432
73699SOL     OW22935   1.127   6.095   2.921
73699SOL    HW122936   1.215   6.058   2.915
73699SOL    HW222937   1.069   6.020   2.932
73700SOL     OW22938   0.617  14.228  12.383
73700SOL    HW122939   0.523  14.243  12.372
73700SOL    HW222940   0.657  14.270  12.306
73701SOL     OW22941   2.808   9.687   8.745
73701SOL    HW122942   2.777   9.763   8.794
73701SOL    HW222943   2.744   9.618   8.765
73702SOL     OW22944   0.875   9.081  10.606
73702SOL    HW122945   0.924   9.013  10.654
73702SOL    HW222946   0.861   9.044  10.519
73703SOL     OW22947   9.176  11.311   5.519
73703SOL    HW122948   9.136  11.397   5.511
73703SOL    HW222949   9.105  11.249   5.501
73704SOL     OW22950  13.394   9.397   2.672
73704SOL    HW122951  13.395   9.369   2.764
73704SOL    HW222952  13.302   9.419   2.655
73705SOL     OW22953  13.933   7.045   9.671
73705SOL    HW122954  13.921   6.972   9.732
73705SOL    HW222955  13.892   7.119   9.714
73706SOL     OW22956   3.104  11.198  10.344
73706SOL    HW122957   3.171  11.181  10.278
73706SOL    HW222958   3.151  11.190  10.427
73707SOL     OW22959   9.447   3.125   7.176
73707SOL    HW122960   9.396   3.113   7.256
73707SOL    HW222961   9.386   3.167   7.115
73708SOL     OW22962   1.609  12.024  12.966
73708SOL    HW122963   1.563  11.992  13.044
73708SOL    HW222964   1.570  12.109  12.948
73709SOL     OW22965   9.975   5.936   5.744
73709SOL    HW122966   9.917   5.883   5.690
73709SOL    HW222967   9.922   5.959   5.820
73710SOL     OW22968  13.225   3.633   7.641
73710SOL    HW122969  13.218   3.725   7.665
73710SOL    HW222970  13.137   3.609   7.610
73711SOL     OW22971  10.005  10.940  12.009
73711SOL    HW122972  10.091  10.933  11.967
73711SOL    HW222973  10.021  10.991  12.088
73712SOL     OW22974   6.504  13.227   7.273
73712SOL    HW122975   6.497  13.144   7.226
73712SOL    HW222976   6.581  13.269   7.236
73713SOL     OW22977  12.408   8.944   9.491
73713SOL    HW122978  12.406   8.910   9.401
73713SOL    HW222979  12.466   8.884   9.537
73714SOL     OW22980   5.396   0.482  12.966
73714SOL    HW122981   5.326   0.537  13.002
73714SOL    HW222982   5.476   0.531  12.983
73715SOL     OW22983   6.722   4.423   3.249
73715SOL    HW122984   6.691   4.376   3.327
73715SOL    HW222985   6.720   4.357   3.180
73716SOL     OW22986   3.383  14.204   2.106
73716SOL    HW122987   3.313  14.153   2.148
73716SOL    HW222988   3.415  14.148   2.036
73717SOL     OW22989   7.364  14.864   0.139
73717SOL    HW122990   7.448  14.855   0.095
73717SOL    HW222991   7.387  14.878   0.231
73718SOL     OW22992   7.455   5.536   9.677
73718SOL    HW122993   7.499   5.609   9.721
73718SOL    HW222994   7.362   5.554   9.690
73719SOL     OW22995   0.554  11.329   2.102
73719SOL    HW122996   0.623  11.366   2.157
73719SOL    HW222997   0.572  11.235   2.101
73720SOL     OW22998  12.905   9.513  13.880
73720SOL    HW122999  12.866   9.431  13.854
73720SOL    HW223000  12.937   9.552  13.799
73721SOL     OW23001  13.114   7.362   5.969
73721SOL    HW123002  13.029   7.347   5.929
73721SOL    HW223003  13.153   7.275   5.977
73722SOL     OW23004  12.352   1.396   7.419
73722SOL    HW123005  12.257   1.401   7.430
73722SOL    HW223006  12.368   1.434   7.333
73723SOL     OW23007   2.055  11.949   1.736
73723SOL    HW123008   2.008  12.024   1.772
73723SOL    HW223009   2.016  11.936   1.649
73724SOL     OW23010   6.556   4.629   9.311
73724SOL    HW123011   6.621   4.588   9.369
73724SOL    HW223012   6.558   4.722   9.334
73725SOL     OW23013   2.211   0.260  11.477
73725SOL    HW123014   2.221   0.197  11.406
73725SOL    HW223015   2.153   0.217  11.540
73726SOL     OW23016  12.875  10.171   9.809
73726SOL    HW123017  12.930  10.240   9.846
73726SOL    HW223018  12.801  10.217   9.770
73727SOL     OW23019  10.335  13.460  12.737
73727SOL    HW123020  10.354  13.366  12.731
73727SOL    HW223021  10.355  13.482  12.828
73728SOL     OW23022  10.133   9.586   9.914
73728SOL    HW123023  10.159   9.599  10.005
73728SOL    HW223024  10.208   9.543   9.873
73729SOL     OW23025  13.379  14.063  12.256
73729SOL    HW123026  13.442  13.994  12.276
73729SOL    HW223027  13.343  14.038  12.171
73730SOL     OW23028  11.162   7.939  14.016
73730SOL    HW123029  11.162   7.963  14.109
73730SOL    HW223030  11.250   7.961  13.986
73731SOL     OW23031   9.832  11.568   1.118
73731SOL    HW123032   9.820  11.588   1.025
73731SOL    HW223033   9.802  11.648   1.163
73732SOL     OW23034   2.382   5.437   6.830
73732SOL    HW123035   2.301   5.485   6.845
73732SOL    HW223036   2.419   5.424   6.917
73733SOL     OW23037   3.586   1.265   2.795
73733SOL    HW123038   3.554   1.220   2.717
73733SOL    HW223039   3.670   1.224   2.814
73734SOL     OW23040   1.144   2.598   4.441
73734SOL    HW123041   1.156   2.693   4.438
73734SOL    HW223042   1.202   2.568   4.511
73735SOL     OW23043   0.031   1.839   1.583
73735SOL    HW123044   0.067   1.815   1.497
73735SOL    HW223045   0.104   1.881   1.628
73736SOL     OW23046  14.018  12.508  11.566
73736SOL    HW123047  14.048  12.417  11.558
73736SOL    HW223048  14.088  12.552  11.614
73737SOL     OW23049   1.156  11.901  12.082
73737SOL    HW123050   1.176  11.973  12.141
73737SOL    HW223051   1.228  11.839  12.093
73738SOL     OW23052  14.223  10.262  12.558
73738SOL    HW123053  14.206  10.199  12.628
73738SOL    HW223054  14.265  10.211  12.489
73739SOL     OW23055   6.630  13.065   5.134
73739SOL    HW123056   6.668  13.081   5.220
73739SOL    HW223057   6.543  13.106   5.137
73740SOL     OW23058   2.053  14.865   3.770
73740SOL    HW123059   2.008   0.021   3.694
73740SOL    HW223060   1.983  14.829   3.825
73741SOL     OW23061  11.986   9.575  12.724
73741SOL    HW123062  12.014   9.484  12.718
73741SOL    HW223063  12.067   9.625  12.716
73742SOL     OW23064  12.090   0.573   5.642
73742SOL    HW123065  12.012   0.629   5.634
73742SOL    HW223066  12.136   0.607   5.719
73743SOL     OW23067   3.748   6.638  14.746
73743SOL    HW123068   3.826   6.693  14.740
73743SOL    HW223069   3.775   6.564  14.799
73744SOL     OW23070  12.428   9.502   2.318
73744SOL    HW123071  12.434   9.408   2.303
73744SOL    HW223072  12.477   9.542   2.247
73745SOL     OW23073   0.415   0.092  11.777
73745SOL    HW123074   0.450   0.059  11.860
73745SOL    HW223075   0.374   0.175  11.799
73746SOL     OW23076  14.259   3.346   7.059
73746SOL    HW123077  14.327   3.306   7.004
73746SOL    HW223078  14.275   3.440   7.052
73747SOL     OW23079   3.871   3.798   2.764
73747SOL    HW123080   3.819   3.736   2.816
73747SOL    HW223081   3.869   3.879   2.815
73748SOL     OW23082   7.703   6.285   7.257
73748SOL    HW123083   7.669   6.342   7.188
73748SOL    HW223084   7.661   6.316   7.337
73749SOL     OW23085   8.853  12.166   5.489
73749SOL    HW123086   8.883  12.079   5.516
73749SOL    HW223087   8.896  12.181   5.405
73750SOL     OW23088  11.437  14.826   6.507
73750SOL    HW123089  11.523  14.851   6.472
73750SOL    HW223090  11.456  14.801   6.598
73751SOL     OW23091   3.860   4.309   0.335
73751SOL    HW123092   3.941   4.279   0.377
73751SOL    HW223093   3.875   4.293   0.241
73752SOL     OW23094   4.107   3.578  10.129
73752SOL    HW123095   4.082   3.670  10.116
73752SOL    HW223096   4.202   3.579  10.138
73753SOL     OW23097  12.849   1.934   2.697
73753SOL    HW123098  12.940   1.940   2.726
73753SOL    HW223099  12.829   1.841   2.700
73754SOL     OW23100   1.284  13.510  10.936
73754SOL    HW123101   1.224  13.446  10.897
73754SOL    HW223102   1.318  13.466  11.014
73755SOL     OW23103   5.351  14.839   7.544
73755SOL    HW123104   5.353   0.052   7.571
73755SOL    HW223105   5.435  14.826   7.500
73756SOL     OW23106   3.181   5.725   8.364
73756SOL    HW123107   3.237   5.730   8.286
73756SOL    HW223108   3.152   5.815   8.379
73757SOL     OW23109  11.999   3.127   5.298
73757SOL    HW123110  12.068   3.113   5.233
73757SOL    HW223111  12.045   3.133   5.381
73758SOL     OW23112   8.545   7.665  12.296
73758SOL    HW123113   8.537   7.628  12.384
73758SOL    HW223114   8.501   7.601  12.239
73759SOL     OW23115   8.436  14.324  14.660
73759SOL    HW123116   8.484  14.281  14.731
73759SOL    HW223117   8.345  14.321  14.689
73760SOL     OW23118  12.170  13.490   8.024
73760SOL    HW123119  12.208  13.543   7.954
73760SOL    HW223120  12.225  13.508   8.100
73761SOL     OW23121  14.833   5.041   0.214
73761SOL    HW123122  14.839   5.129   0.250
73761SOL    HW223123   0.017   5.040   0.142
73762SOL     OW23124  13.822  14.306   8.203
73762SOL    HW123125  13.878  14.325   8.128
73762SOL    HW223126  13.804  14.212   8.196
73763SOL     OW23127  12.885  10.009   3.683
73763SOL    HW123128  12.970   9.989   3.646
73763SOL    HW223129  12.893   9.989   3.776
73764SOL     OW23130  14.059   1.627   1.166
73764SOL    HW123131  14.141   1.594   1.129
73764SOL    HW223132  14.086   1.697   1.226
73765SOL     OW23133  11.934   1.211   4.793
73765SOL    HW123134  11.953   1.119   4.776
73765SOL    HW223135  11.964   1.225   4.883
73766SOL     OW23136   9.320   1.714  12.026
73766SOL    HW123137   9.399   1.677  11.988
73766SOL    HW223138   9.249   1.659  11.995
73767SOL     OW23139   2.372   9.951   1.069
73767SOL    HW123140   2.425   9.918   1.142
73767SOL    HW223141   2.431  10.009   1.021
73768SOL     OW23142   2.049  13.454  11.489
73768SOL    HW123143   1.996  13.475  11.566
73768SOL    HW223144   2.029  13.523  11.426
73769SOL     OW23145  13.757  13.939   0.401
73769SOL    HW123146  13.731  13.858   0.356
73769SOL    HW223147  13.759  13.914   0.494
73770SOL     OW23148   1.031   6.127  11.493
73770SOL    HW123149   1.002   6.218  11.501
73770SOL    HW223150   0.971   6.089  11.429
73771SOL     OW23151   2.948  11.436  13.869
73771SOL    HW123152   3.028  11.427  13.920
73771SOL    HW223153   2.937  11.531  13.858
73772SOL     OW23154   1.466   3.239   8.749
73772SOL    HW123155   1.504   3.254   8.662
73772SOL    HW223156   1.541   3.230   8.807
73773SOL     OW23157   3.962   8.685   5.133
73773SOL    HW123158   4.022   8.615   5.159
73773SOL    HW223159   3.897   8.642   5.078
73774SOL     OW23160   1.153   6.512   0.033
73774SOL    HW123161   1.224   6.561  14.871
73774SOL    HW223162   1.139   6.556   0.117
73775SOL     OW23163   0.405  12.064  13.539
73775SOL    HW123164   0.321  12.103  13.561
73775SOL    HW223165   0.443  12.123  13.474
73776SOL     OW23166   3.241  10.680  12.759
73776SOL    HW123167   3.176  10.664  12.828
73776SOL    HW223168   3.305  10.738  12.800
73777SOL     OW23169   4.331   7.020   8.363
73777SOL    HW123170   4.365   6.945   8.412
73777SOL    HW223171   4.388   7.093   8.388
73778SOL     OW23172   9.001   8.111  14.140
73778SOL    HW123173   8.976   8.201  14.122
73778SOL    HW223174   8.986   8.100  14.234
73779SOL     OW23175   4.068   9.167   0.528
73779SOL    HW123176   4.146   9.209   0.566
73779SOL    HW223177   4.025   9.237   0.480
73780SOL     OW23178   4.158  11.512  10.454
73780SOL    HW123179   4.091  11.470  10.509
73780SOL    HW223180   4.158  11.604  10.482
73781SOL     OW23181   5.472   4.623   1.971
73781SOL    HW123182   5.478   4.709   2.011
73781SOL    HW223183   5.524   4.566   2.028
73782SOL     OW23184  12.284   0.531  14.208
73782SOL    HW123185  12.310   0.581  14.131
73782SOL    HW223186  12.353   0.465  14.219
73783SOL     OW23187  12.080   9.371   1.634
73783SOL    HW123188  12.105   9.463   1.642
73783SOL    HW223189  12.155   9.322   1.668
73784SOL     OW23190   0.697   9.767  10.385
73784SOL    HW123191   0.618   9.722  10.415
73784SOL    HW223192   0.713   9.834  10.452
73785SOL     OW23193   8.705  12.763  13.444
73785SOL    HW123194   8.786  12.769  13.494
73785SOL    HW223195   8.651  12.702  13.493
73786SOL     OW23196   4.661  12.143  10.411
73786SOL    HW123197   4.727  12.212  10.420
73786SOL    HW223198   4.679  12.104  10.326
73787SOL     OW23199   4.529  13.643   9.886
73787SOL    HW123200   4.508  13.560   9.843
73787SOL    HW223201   4.601  13.621   9.946
73788SOL     OW23202   3.620  12.183  13.908
73788SOL    HW123203   3.540  12.223  13.943
73788SOL    HW223204   3.657  12.136  13.982
73789SOL     OW23205  13.308  11.278   1.582
73789SOL    HW123206  13.395  11.304   1.613
73789SOL    HW223207  13.283  11.204   1.638
73790SOL     OW23208  10.381  10.216   7.592
73790SOL    HW123209  10.382  10.173   7.677
73790SOL    HW223210  10.324  10.160   7.538
73791SOL     OW23211   0.612  11.915   6.836
73791SOL    HW123212   0.631  11.894   6.928
73791SOL    HW223213   0.517  11.917   6.830
73792SOL     OW23214   0.136   6.475  12.461
73792SOL    HW123215   0.096   6.546  12.510
73792SOL    HW223216   0.220   6.511  12.431
73793SOL     OW23217   2.750  10.910   2.989
73793SOL    HW123218   2.654  10.910   2.996
73793SOL    HW223219   2.776  10.826   3.026
73794SOL     OW23220   8.747  11.455   2.546
73794SOL    HW123221   8.693  11.387   2.586
73794SOL    HW223222   8.837  11.425   2.559
73795SOL     OW23223   0.502   5.207   2.472
73795SOL    HW123224   0.488   5.300   2.456
73795SOL    HW223225   0.415   5.168   2.465
73796SOL     OW23226   5.116  13.991  10.016
73796SOL    HW123227   5.084  13.922   9.957
73796SOL    HW223228   5.104  14.072   9.967
73797SOL     OW23229   7.372  11.015  10.784
73797SOL    HW123230   7.427  11.033  10.860
73797SOL    HW223231   7.433  11.011  10.710
73798SOL     OW23232  11.850   0.667  11.832
73798SOL    HW123233  11.937   0.629  11.824
73798SOL    HW223234  11.849   0.739  11.769
73799SOL     OW23235  10.779   9.903   2.350
73799SOL    HW123236  10.753   9.995   2.351
73799SOL    HW223237  10.802   9.884   2.441
73800SOL     OW23238   5.545   1.931   6.330
73800SOL    HW123239   5.474   1.967   6.277
73800SOL    HW223240   5.502   1.903   6.411
73801SOL     OW23241   4.886  11.931  11.420
73801SOL    HW123242   4.953  11.874  11.384
73801SOL    HW223243   4.930  12.016  11.432
73802SOL     OW23244   7.049   8.003   3.424
73802SOL    HW123245   7.037   8.092   3.456
73802SOL    HW223246   7.143   7.997   3.406
73803SOL     OW23247   2.084  11.252   9.452
73803SOL    HW123248   2.074  11.269   9.359
73803SOL    HW223249   2.000  11.214   9.479
73804SOL     OW23250   2.815   9.746  12.283
73804SOL    HW123251   2.763   9.671  12.255
73804SOL    HW223252   2.827   9.798  12.204
73805SOL     OW23253  14.150   7.309  14.203
73805SOL    HW123254  14.115   7.266  14.125
73805SOL    HW223255  14.212   7.374  14.170
73806SOL     OW23256   1.925   1.615   1.159
73806SOL    HW123257   1.987   1.687   1.168
73806SOL    HW223258   1.871   1.639   1.084
73807SOL     OW23259  14.085   3.000   5.960
73807SOL    HW123260  14.088   2.974   6.052
73807SOL    HW223261  14.176   3.020   5.938
73808SOL     OW23262   8.214  13.601  10.807
73808SOL    HW123263   8.270  13.670  10.842
73808SOL    HW223264   8.203  13.540  10.880
73809SOL     OW23265   7.878   0.665  13.380
73809SOL    HW123266   7.792   0.658  13.420
73809SOL    HW223267   7.923   0.732  13.431
73810SOL     OW23268   0.465   6.422   8.995
73810SOL    HW123269   0.390   6.465   8.954
73810SOL    HW223270   0.537   6.483   8.983
73811SOL     OW23271   4.644  12.895   2.499
73811SOL    HW123272   4.706  12.852   2.440
73811SOL    HW223273   4.622  12.827   2.564
73812SOL     OW23274  13.076   4.217   3.601
73812SOL    HW123275  13.013   4.239   3.532
73812SOL    HW223276  13.023   4.172   3.667
73813SOL     OW23277   3.533   8.827  10.165
73813SOL    HW123278   3.533   8.825  10.260
73813SOL    HW223279   3.465   8.891  10.142
73814SOL     OW23280  14.562   5.139   5.073
73814SOL    HW123281  14.581   5.227   5.040
73814SOL    HW223282  14.624   5.082   5.026
73815SOL     OW23283   0.913  13.104  13.579
73815SOL    HW123284   0.995  13.056  13.579
73815SOL    HW223285   0.927  13.176  13.518
73816SOL     OW23286  13.636  10.072   5.000
73816SOL    HW123287  13.632  10.014   5.076
73816SOL    HW223288  13.707  10.133   5.020
73817SOL     OW23289  13.958  12.828   1.627
73817SOL    HW123290  13.862  12.823   1.621
73817SOL    HW223291  13.983  12.750   1.676
73818SOL     OW23292  12.359   0.662  11.730
73818SOL    HW123293  12.371   0.754  11.756
73818SOL    HW223294  12.438   0.641  11.680
73819SOL     OW23295  11.218  14.780  11.075
73819SOL    HW123296  11.152  14.795  11.143
73819SOL    HW223297  11.262  14.864  11.066
73820SOL     OW23298   8.241   7.216  10.379
73820SOL    HW123299   8.188   7.143  10.347
73820SOL    HW223300   8.195   7.247  10.457
73821SOL     OW23301   6.027  12.887  13.486
73821SOL    HW123302   6.096  12.840  13.533
73821SOL    HW223303   5.992  12.823  13.425
73822SOL     OW23304   7.284  10.484   8.966
73822SOL    HW123305   7.222  10.422   8.929
73822SOL    HW223306   7.344  10.431   9.018
73823SOL     OW23307   6.933  13.261  11.830
73823SOL    HW123308   6.853  13.303  11.799
73823SOL    HW223309   6.903  13.187  11.883
73824SOL     OW23310   2.857   0.450   3.862
73824SOL    HW123311   2.842   0.479   3.772
73824SOL    HW223312   2.923   0.510   3.897
73825SOL     OW23313  12.926   1.635   9.109
73825SOL    HW123314  12.921   1.560   9.168
73825SOL    HW223315  12.928   1.598   9.021
73826SOL     OW23316  12.435   9.540   6.167
73826SOL    HW123317  12.394   9.574   6.088
73826SOL    HW223318  12.521   9.582   6.170
73827SOL     OW23319   2.411   7.923  12.552
73827SOL    HW123320   2.411   7.848  12.492
73827SOL    HW223321   2.478   7.981  12.516
73828SOL     OW23322   5.217   8.870   6.192
73828SOL    HW123323   5.188   8.862   6.283
73828SOL    HW223324   5.287   8.806   6.184
73829SOL     OW23325  13.775  13.947  12.715
73829SOL    HW123326  13.796  14.027  12.764
73829SOL    HW223327  13.857  13.898  12.714
73830SOL     OW23328  12.337  13.595   6.977
73830SOL    HW123329  12.289  13.668   6.936
73830SOL    HW223330  12.363  13.540   6.904
73831SOL     OW23331   3.044   9.610   4.749
73831SOL    HW123332   3.011   9.700   4.749
73831SOL    HW223333   2.992   9.566   4.682
73832SOL     OW23334  11.474   0.928   7.628
73832SOL    HW123335  11.547   0.975   7.586
73832SOL    HW223336  11.448   0.863   7.563
73833SOL     OW23337   1.445   9.625   6.818
73833SOL    HW123338   1.364   9.620   6.767
73833SOL    HW223339   1.420   9.596   6.906
73834SOL     OW23340   5.142  13.372  10.194
73834SOL    HW123341   5.206  13.384  10.124
73834SOL    HW223342   5.193  13.348  10.271
73835SOL     OW23343   9.258   3.058   0.693
73835SOL    HW123344   9.323   3.091   0.756
73835SOL    HW223345   9.222   2.980   0.735
73836SOL     OW23346   6.360  11.201  10.449
73836SOL    HW123347   6.331  11.209  10.359
73836SOL    HW223348   6.305  11.133  10.487
73837SOL     OW23349  13.026   9.615  14.433
73837SOL    HW123350  13.006   9.703  14.465
73837SOL    HW223351  13.002   9.617  14.340
73838SOL     OW23352   9.071  10.810  13.999
73838SOL    HW123353   9.099  10.850  13.916
73838SOL    HW223354   9.106  10.721  13.995
73839SOL     OW23355  14.527  10.032   3.136
73839SOL    HW123356  14.527  10.097   3.207
73839SOL    HW223357  14.509  10.084   3.057
73840SOL     OW23358   7.442   5.778  14.165
73840SOL    HW123359   7.438   5.754  14.257
73840SOL    HW223360   7.412   5.869  14.163
73841SOL     OW23361   1.367   9.158   4.314
73841SOL    HW123362   1.293   9.196   4.267
73841SOL    HW223363   1.389   9.224   4.380
73842SOL     OW23364   0.804  10.059  12.237
73842SOL    HW123365   0.806  10.027  12.146
73842SOL    HW223366   0.842   9.986  12.287
73843SOL     OW23367  14.472   8.410   4.114
73843SOL    HW123368  14.519   8.438   4.192
73843SOL    HW223369  14.448   8.319   4.131
73844SOL     OW23370   9.921   6.094  12.101
73844SOL    HW123371   9.951   6.014  12.056
73844SOL    HW223372   9.984   6.161  12.075
73845SOL     OW23373   2.646  10.924  13.657
73845SOL    HW123374   2.725  10.878  13.630
73845SOL    HW223375   2.580  10.900  13.592
73846SOL     OW23376  10.472   0.238  10.305
73846SOL    HW123377  10.395   0.280  10.269
73846SOL    HW223378  10.541   0.256  10.241
73847SOL     OW23379   5.057  11.626   1.201
73847SOL    HW123380   4.981  11.672   1.237
73847SOL    HW223381   5.127  11.644   1.263
73848SOL     OW23382   0.259  10.726  10.969
73848SOL    HW123383   0.174  10.709  10.930
73848SOL    HW223384   0.271  10.656  11.033
73849SOL     OW23385   0.881  10.240  10.718
73849SOL    HW123386   0.889  10.170  10.783
73849SOL    HW223387   0.786  10.246  10.701
73850SOL     OW23388   9.923   7.494   0.364
73850SOL    HW123389   9.986   7.423   0.350
73850SOL    HW223390   9.969   7.555   0.422
73851SOL     OW23391   2.833  13.588   0.403
73851SOL    HW123392   2.865  13.645   0.333
73851SOL    HW223393   2.754  13.548   0.367
73852SOL     OW23394   8.998   4.013  14.234
73852SOL    HW123395   9.063   3.981  14.171
73852SOL    HW223396   9.021   3.970  14.316
73853SOL     OW23397   6.873  13.686   7.979
73853SOL    HW123398   6.832  13.603   7.955
73853SOL    HW223399   6.925  13.710   7.903
73854SOL     OW23400   9.971   1.481   5.292
73854SOL    HW123401  10.007   1.455   5.207
73854SOL    HW223402   9.880   1.505   5.273
73855SOL     OW23403  13.009   3.674   6.774
73855SOL    HW123404  12.942   3.636   6.830
73855SOL    HW223405  13.009   3.620   6.695
73856SOL     OW23406   8.537   2.973   0.109
73856SOL    HW123407   8.554   3.029   0.032
73856SOL    HW223408   8.603   2.904   0.103
73857SOL     OW23409   9.179   5.779  11.150
73857SOL    HW123410   9.218   5.862  11.177
73857SOL    HW223411   9.208   5.716  11.215
73858SOL     OW23412   2.962  12.019   3.059
73858SOL    HW123413   2.869  12.016   3.081
73858SOL    HW223414   2.965  12.063   2.974
73859SOL     OW23415  14.427  10.932   4.584
73859SOL    HW123416  14.379  11.000   4.538
73859SOL    HW223417  14.371  10.854   4.579
73860SOL     OW23418   6.016   6.656   4.189
73860SOL    HW123419   6.096   6.647   4.137
73860SOL    HW223420   5.949   6.682   4.125
73861SOL     OW23421   7.309   6.419   4.824
73861SOL    HW123422   7.380   6.376   4.872
73861SOL    HW223423   7.280   6.489   4.883
73862SOL     OW23424   3.991  10.236  12.094
73862SOL    HW123425   3.973  10.175  12.166
73862SOL    HW223426   4.073  10.278  12.120
73863SOL     OW23427   1.900  12.525  14.141
73863SOL    HW123428   1.858  12.578  14.209
73863SOL    HW223429   1.838  12.454  14.124
73864SOL     OW23430   9.346   4.270  14.012
73864SOL    HW123431   9.439   4.291  14.001
73864SOL    HW223432   9.342   4.175  13.999
73865SOL     OW23433  12.636   8.050  11.378
73865SOL    HW123434  12.611   8.099  11.457
73865SOL    HW223435  12.711   8.097  11.343
73866SOL     OW23436   8.790   4.556   3.285
73866SOL    HW123437   8.803   4.514   3.199
73866SOL    HW223438   8.702   4.593   3.281
73867SOL     OW23439   4.276   3.620   9.363
73867SOL    HW123440   4.223   3.551   9.403
73867SOL    HW223441   4.324   3.576   9.293
73868SOL     OW23442   0.100   7.259  10.853
73868SOL    HW123443   0.120   7.339  10.900
73868SOL    HW223444   0.184   7.230  10.817
73869SOL     OW23445   3.938  12.026   1.522
73869SOL    HW123446   3.992  11.953   1.493
73869SOL    HW223447   3.953  12.095   1.457
73870SOL     OW23448   5.832  12.864   2.630
73870SOL    HW123449   5.821  12.918   2.551
73870SOL    HW223450   5.784  12.911   2.698
73871SOL     OW23451   2.501   8.939   2.324
73871SOL    HW123452   2.500   8.944   2.228
73871SOL    HW223453   2.563   8.868   2.343
73872SOL     OW23454  10.329   9.926   8.622
73872SOL    HW123455  10.348  10.013   8.589
73872SOL    HW223456  10.257   9.939   8.684
73873SOL     OW23457   9.942   0.175   9.093
73873SOL    HW123458   9.906   0.229   9.022
73873SOL    HW223459   9.989   0.105   9.047
73874SOL     OW23460   8.650   3.227   9.182
73874SOL    HW123461   8.562   3.209   9.149
73874SOL    HW223462   8.662   3.321   9.169
73875SOL     OW23463   4.845  10.108   2.499
73875SOL    HW123464   4.815  10.197   2.520
73875SOL    HW223465   4.803  10.053   2.565
73876SOL     OW23466   4.719   6.459   6.939
73876SOL    HW123467   4.745   6.367   6.944
73876SOL    HW223468   4.637   6.458   6.889
73877SOL     OW23469  11.248   6.726   4.757
73877SOL    HW123470  11.280   6.793   4.698
73877SOL    HW223471  11.314   6.657   4.753
73878SOL     OW23472   8.924  12.460   6.071
73878SOL    HW123473   8.832  12.444   6.051
73878SOL    HW223474   8.926  12.474   6.166
73879SOL     OW23475   7.823   3.605  13.595
73879SOL    HW123476   7.821   3.700  13.608
73879SOL    HW223477   7.730   3.580  13.589
73880SOL     OW23478   0.717   9.180  11.248
73880SOL    HW123479   0.643   9.239  11.258
73880SOL    HW223480   0.738   9.182  11.155
73881SOL     OW23481   7.902  11.992   6.692
73881SOL    HW123482   7.817  11.976   6.650
73881SOL    HW223483   7.934  11.905   6.714
73882SOL     OW23484   5.354  13.111   3.473
73882SOL    HW123485   5.300  13.081   3.546
73882SOL    HW223486   5.307  13.187   3.438
73883SOL     OW23487  13.153   4.730  13.637
73883SOL    HW123488  13.107   4.766  13.561
73883SOL    HW223489  13.084   4.696  13.693
73884SOL     OW23490  14.493   6.833  14.688
73884SOL    HW123491  14.420   6.855  14.631
73884SOL    HW223492  14.459   6.763  14.744
73885SOL     OW23493   3.499   1.502  10.742
73885SOL    HW123494   3.510   1.567  10.672
73885SOL    HW223495   3.527   1.420  10.702
73886SOL     OW23496   0.784   9.696   2.904
73886SOL    HW123497   0.733   9.762   2.952
73886SOL    HW223498   0.806   9.739   2.821
73887SOL     OW23499   7.710   5.443   3.791
73887SOL    HW123500   7.654   5.367   3.776
73887SOL    HW223501   7.754   5.459   3.708
73888SOL     OW23502  12.671   9.972   4.683
73888SOL    HW123503  12.623  10.055   4.678
73888SOL    HW223504  12.657   9.931   4.597
73889SOL     OW23505   9.673   7.787  13.361
73889SOL    HW123506   9.603   7.838  13.401
73889SOL    HW223507   9.629   7.716  13.315
73890SOL     OW23508  10.909   1.390  12.335
73890SOL    HW123509  10.819   1.356  12.336
73890SOL    HW223510  10.916   1.440  12.416
73891SOL     OW23511   2.932  14.470   2.648
73891SOL    HW123512   2.960  14.557   2.620
73891SOL    HW223513   2.891  14.484   2.733
73892SOL     OW23514  11.807  12.193   9.426
73892SOL    HW123515  11.820  12.207   9.332
73892SOL    HW223516  11.820  12.099   9.438
73893SOL     OW23517   1.559  13.091   7.152
73893SOL    HW123518   1.633  13.045   7.193
73893SOL    HW223519   1.495  13.022   7.136
73894SOL     OW23520   1.116  14.171  10.555
73894SOL    HW123521   1.108  14.156  10.461
73894SOL    HW223522   1.051  14.239  10.574
73895SOL     OW23523   9.535   5.115  13.291
73895SOL    HW123524   9.503   5.107  13.201
73895SOL    HW223525   9.618   5.162  13.284
73896SOL     OW23526   6.738  12.228  14.284
73896SOL    HW123527   6.809  12.292  14.275
73896SOL    HW223528   6.771  12.149  14.239
73897SOL     OW23529  11.749  13.225   8.808
73897SOL    HW123530  11.802  13.253   8.734
73897SOL    HW223531  11.662  13.208   8.771
73898SOL     OW23532   2.718   9.455   8.430
73898SOL    HW123533   2.680   9.446   8.343
73898SOL    HW223534   2.646   9.489   8.484
73899SOL     OW23535   3.354  10.013  12.476
73899SOL    HW123536   3.421  10.081  12.480
73899SOL    HW223537   3.282  10.053  12.428
73900SOL     OW23538   5.863   5.864  13.234
73900SOL    HW123539   5.845   5.956  13.250
73900SOL    HW223540   5.792   5.835  13.177
73901SOL     OW23541   8.499   7.119   5.412
73901SOL    HW123542   8.488   7.025   5.424
73901SOL    HW223543   8.557   7.127   5.337
73902SOL     OW23544   5.845   1.345  14.292
73902SOL    HW123545   5.817   1.421  14.240
73902SOL    HW223546   5.767   1.321  14.342
73903SOL     OW23547   0.036  10.557  11.027
73903SOL    HW123548  14.858  10.484  11.003
73903SOL    HW223549   0.121  10.516  11.042
73904SOL     OW23550   5.206   6.480   0.325
73904SOL    HW123551   5.283   6.428   0.304
73904SOL    HW223552   5.215   6.560   0.274
73905SOL     OW23553   2.106   7.386  12.893
73905SOL    HW123554   2.124   7.445  12.820
73905SOL    HW223555   2.012   7.370  12.889
73906SOL     OW23556   0.709   0.072  12.403
73906SOL    HW123557   0.758  14.876  12.369
73906SOL    HW223558   0.618   0.044  12.402
73907SOL     OW23559   6.205  10.053   0.413
73907SOL    HW123560   6.128  10.068   0.467
73907SOL    HW223561   6.188   9.970   0.368
73908SOL     OW23562   7.286   5.589   2.153
73908SOL    HW123563   7.319   5.501   2.136
73908SOL    HW223564   7.213   5.576   2.214
73909SOL     OW23565  10.462  12.130  14.621
73909SOL    HW123566  10.460  12.034  14.620
73909SOL    HW223567  10.488  12.152  14.711
73910SOL     OW23568   2.783   5.647  12.204
73910SOL    HW123569   2.798   5.732  12.247
73910SOL    HW223570   2.814   5.659  12.115
73911SOL     OW23571  10.352   5.736  13.853
73911SOL    HW123572  10.372   5.791  13.778
73911SOL    HW223573  10.437   5.701  13.880
73912SOL     OW23574   1.954  13.612   1.193
73912SOL    HW123575   1.937  13.696   1.236
73912SOL    HW223576   2.040  13.586   1.224
73913SOL     OW23577   7.810   3.590  12.257
73913SOL    HW123578   7.878   3.564  12.320
73913SOL    HW223579   7.729   3.557  12.294
73914SOL     OW23580  14.505   6.794  12.696
73914SOL    HW123581  14.591   6.754  12.709
73914SOL    HW223582  14.487   6.840  12.778
73915SOL     OW23583  11.758   5.550  12.809
73915SOL    HW123584  11.693   5.483  12.831
73915SOL    HW223585  11.824   5.542  12.877
73916SOL     OW23586   5.859   0.273   6.353
73916SOL    HW123587   5.880   0.257   6.261
73916SOL    HW223588   5.943   0.293   6.394
73917SOL     OW23589  13.373  14.598   0.055
73917SOL    HW123590  13.436  14.557  14.876
73917SOL    HW223591  13.369  14.540   0.131
73918SOL     OW23592   1.490   6.399   2.018
73918SOL    HW123593   1.427   6.449   2.070
73918SOL    HW223594   1.441   6.372   1.941
73919SOL     OW23595  10.163   2.223   3.324
73919SOL    HW123596  10.191   2.131   3.323
73919SOL    HW223597  10.238   2.271   3.358
73920SOL     OW23598   1.636   9.427   6.780
73920SOL    HW123599   1.567   9.494   6.776
73920SOL    HW223600   1.660   9.424   6.873
73921SOL     OW23601   4.404   8.831  13.955
73921SOL    HW123602   4.399   8.850  13.861
73921SOL    HW223603   4.318   8.796  13.977
73922SOL     OW23604   5.547  13.258  10.243
73922SOL    HW123605   5.552  13.297  10.330
73922SOL    HW223606   5.549  13.332  10.182
73923SOL     OW23607  14.337   6.685  12.493
73923SOL    HW123608  14.348   6.716  12.403
73923SOL    HW223609  14.421   6.703  12.535
73924SOL     OW23610   1.440   2.279   9.140
73924SOL    HW123611   1.486   2.236   9.213
73924SOL    HW223612   1.395   2.352   9.181
73925SOL     OW23613  10.393   6.603  12.748
73925SOL    HW123614  10.412   6.638  12.835
73925SOL    HW223615  10.408   6.677  12.689
73926SOL     OW23616   0.209  11.637   5.872
73926SOL    HW123617   0.305  11.638   5.869
73926SOL    HW223618   0.184  11.723   5.838
73927SOL     OW23619  11.711   3.709   1.391
73927SOL    HW123620  11.759   3.720   1.309
73927SOL    HW223621  11.620   3.695   1.365
73928SOL     OW23622  11.123   5.731   4.994
73928SOL    HW123623  11.042   5.727   4.943
73928SOL    HW223624  11.110   5.805   5.053
73929SOL     OW23625  14.459  11.806  11.339
73929SOL    HW123626  14.460  11.897  11.368
73929SOL    HW223627  14.405  11.806  11.259
73930SOL     OW23628   2.314  11.953   1.812
73930SOL    HW123629   2.343  12.044   1.800
73930SOL    HW223630   2.225  11.951   1.775
73931SOL     OW23631   5.141   4.780   1.912
73931SOL    HW123632   5.144   4.860   1.859
73931SOL    HW223633   5.068   4.794   1.972
73932SOL     OW23634   3.688   6.411   3.670
73932SOL    HW123635   3.761   6.466   3.641
73932SOL    HW223636   3.609   6.461   3.646
73933SOL     OW23637   1.551  10.115  10.542
73933SOL    HW123638   1.516  10.049  10.602
73933SOL    HW223639   1.626  10.071  10.501
73934SOL     OW23640  13.378   2.852   7.673
73934SOL    HW123641  13.441   2.781   7.666
73934SOL    HW223642  13.293   2.811   7.658
73935SOL     OW23643  13.144   8.194   3.159
73935SOL    HW123644  13.216   8.134   3.140
73935SOL    HW223645  13.145   8.202   3.254
73936SOL     OW23646   2.632   1.971  13.177
73936SOL    HW123647   2.599   1.977  13.088
73936SOL    HW223648   2.560   2.003  13.232
73937SOL     OW23649   2.861  14.183  14.412
73937SOL    HW123650   2.845  14.168  14.505
73937SOL    HW223651   2.783  14.230  14.381
73938SOL     OW23652  13.079  12.278  10.121
73938SOL    HW123653  13.094  12.185  10.108
73938SOL    HW223654  13.128  12.299  10.201
73939SOL     OW23655   1.538   2.972  14.865
73939SOL    HW123656   1.607   2.936   0.041
73939SOL    HW223657   1.563   3.063  14.851
73940SOL     OW23658   1.443   7.623   4.633
73940SOL    HW123659   1.406   7.701   4.590
73940SOL    HW223660   1.383   7.606   4.706
73941SOL     OW23661   3.592   3.731   7.476
73941SOL    HW123662   3.617   3.813   7.518
73941SOL    HW223663   3.515   3.702   7.525
73942SOL     OW23664  10.556   4.299   3.470
73942SOL    HW123665  10.475   4.348   3.465
73942SOL    HW223666  10.541   4.222   3.415
73943SOL     OW23667  10.433   0.244   6.731
73943SOL    HW123668  10.467   0.167   6.775
73943SOL    HW223669  10.480   0.317   6.770
73944SOL     OW23670  12.278   8.141  14.776
73944SOL    HW123671  12.247   8.203  14.842
73944SOL    HW223672  12.374   8.142  14.786
73945SOL     OW23673  14.405   7.618   4.114
73945SOL    HW123674  14.375   7.552   4.052
73945SOL    HW223675  14.443   7.569   4.186
73946SOL     OW23676   7.131   6.269  14.142
73946SOL    HW123677   7.168   6.247  14.056
73946SOL    HW223678   7.053   6.214  14.150
73947SOL     OW23679   9.044  10.481   3.316
73947SOL    HW123680   9.075  10.401   3.358
73947SOL    HW223681   8.952  10.463   3.295
73948SOL     OW23682  13.255   9.045   0.778
73948SOL    HW123683  13.232   8.964   0.823
73948SOL    HW223684  13.215   9.114   0.830
73949SOL     OW23685  10.469   1.044  10.655
73949SOL    HW123686  10.471   0.981  10.728
73949SOL    HW223687  10.435   0.993  10.581
73950SOL     OW23688  13.951   4.529   3.340
73950SOL    HW123689  14.001   4.496   3.414
73950SOL    HW223690  13.861   4.536   3.373
73951SOL     OW23691   8.143   0.229  10.283
73951SOL    HW123692   8.122   0.157  10.223
73951SOL    HW223693   8.193   0.291  10.230
73952SOL     OW23694   9.859   4.508  12.667
73952SOL    HW123695   9.899   4.428  12.633
73952SOL    HW223696   9.796   4.478  12.731
73953SOL     OW23697   6.741   7.033   0.960
73953SOL    HW123698   6.727   7.117   1.006
73953SOL    HW223699   6.806   6.987   1.013
73954SOL     OW23700  10.572   4.755   7.985
73954SOL    HW123701  10.479   4.741   8.004
73954SOL    HW223702  10.588   4.847   8.008
73955SOL     OW23703  10.925  13.621   7.324
73955SOL    HW123704  10.894  13.691   7.382
73955SOL    HW223705  10.892  13.540   7.365
73956SOL     OW23706   0.030   0.299  10.874
73956SOL    HW123707  14.861   0.313  10.792
73956SOL    HW223708  14.867   0.223  10.914
73957SOL     OW23709  13.740   9.275   5.136
73957SOL    HW123710  13.732   9.181   5.151
73957SOL    HW223711  13.680   9.314   5.199
73958SOL     OW23712   1.115   9.841   0.345
73958SOL    HW123713   1.193   9.790   0.323
73958SOL    HW223714   1.054   9.777   0.381
73959SOL     OW23715   9.122   7.091   7.927
73959SOL    HW123716   9.055   7.137   7.978
73959SOL    HW223717   9.092   7.099   7.836
73960SOL     OW23718   8.299  11.724   9.244
73960SOL    HW123719   8.322  11.757   9.331
73960SOL    HW223720   8.235  11.786   9.210
73961SOL     OW23721  14.112   1.140   2.236
73961SOL    HW123722  14.106   1.233   2.218
73961SOL    HW223723  14.023   1.114   2.262
73962SOL     OW23724   2.510   8.346   7.383
73962SOL    HW123725   2.463   8.414   7.430
73962SOL    HW223726   2.598   8.381   7.370
73963SOL     OW23727   9.466  14.305  13.374
73963SOL    HW123728   9.406  14.313  13.448
73963SOL    HW223729   9.553  14.315  13.412
73964SOL     OW23730   3.375   2.671   7.639
73964SOL    HW123731   3.363   2.579   7.662
73964SOL    HW223732   3.393   2.715   7.723
73965SOL     OW23733  14.458   1.206  14.773
73965SOL    HW123734  14.512   1.285  14.768
73965SOL    HW223735  14.372   1.234  14.740
73966SOL     OW23736  14.435   1.088  14.253
73966SOL    HW123737  14.350   1.054  14.281
73966SOL    HW223738  14.419   1.121  14.164
73967SOL     OW23739   1.452  13.062   5.633
73967SOL    HW123740   1.530  13.045   5.581
73967SOL    HW223741   1.412  13.139   5.593
73968SOL     OW23742   5.880  13.765   2.945
73968SOL    HW123743   5.914  13.854   2.952
73968SOL    HW223744   5.881  13.746   2.851
73969SOL     OW23745   1.249   5.328   7.001
73969SOL    HW123746   1.191   5.286   6.938
73969SOL    HW223747   1.194   5.344   7.078
73970SOL     OW23748   2.967   7.494  12.172
73970SOL    HW123749   3.051   7.517  12.132
73970SOL    HW223750   2.963   7.399  12.168
73971SOL     OW23751   9.067  13.510   6.866
73971SOL    HW123752   9.014  13.585   6.895
73971SOL    HW223753   9.050  13.442   6.931
73972SOL     OW23754   4.023   2.076  10.951
73972SOL    HW123755   4.019   1.982  10.969
73972SOL    HW223756   4.102   2.106  10.996
73973SOL     OW23757   6.621   1.776   3.364
73973SOL    HW123758   6.701   1.820   3.335
73973SOL    HW223759   6.621   1.785   3.459
73974SOL     OW23760   7.687   2.344   0.540
73974SOL    HW123761   7.706   2.377   0.453
73974SOL    HW223762   7.685   2.248   0.530
73975SOL     OW23763   5.880   2.755  13.912
73975SOL    HW123764   5.841   2.733  13.997
73975SOL    HW223765   5.938   2.829  13.931
73976SOL     OW23766   9.743   8.674  11.176
73976SOL    HW123767   9.663   8.624  11.157
73976SOL    HW223768   9.813   8.609  11.171
73977SOL     OW23769   7.155   4.943  12.472
73977SOL    HW123770   7.093   4.871  12.483
73977SOL    HW223771   7.217   4.932  12.544
73978SOL     OW23772  11.803   2.537   8.737
73978SOL    HW123773  11.788   2.518   8.644
73978SOL    HW223774  11.852   2.462   8.770
73979SOL     OW23775  14.270   5.073  11.904
73979SOL    HW123776  14.217   5.001  11.938
73979SOL    HW223777  14.358   5.056  11.936
73980SOL     OW23778  13.268   2.372   7.961
73980SOL    HW123779  13.298   2.282   7.973
73980SOL    HW223780  13.207   2.387   8.034
73981SOL     OW23781   0.897  12.248   6.031
73981SOL    HW123782   0.966  12.287   5.978
73981SOL    HW223783   0.846  12.195   5.969
73982SOL     OW23784   6.463  10.340   1.929
73982SOL    HW123785   6.488  10.358   1.838
73982SOL    HW223786   6.374  10.374   1.936
73983SOL     OW23787   2.282   1.149   4.369
73983SOL    HW123788   2.327   1.067   4.389
73983SOL    HW223789   2.274   1.193   4.454
73984SOL     OW23790  10.186   9.635  10.977
73984SOL    HW123791  10.203   9.546  10.946
73984SOL    HW223792  10.244   9.690  10.924
73985SOL     OW23793   4.353  14.289   8.777
73985SOL    HW123794   4.386  14.279   8.687
73985SOL    HW223795   4.355  14.383   8.793
73986SOL     OW23796   9.462   1.099   5.448
73986SOL    HW123797   9.554   1.075   5.463
73986SOL    HW223798   9.431   1.126   5.534
73987SOL     OW23799   1.832   7.373   0.997
73987SOL    HW123800   1.762   7.341   0.939
73987SOL    HW223801   1.798   7.360   1.085
73988SOL     OW23802   0.440   4.854  14.643
73988SOL    HW123803   0.512   4.813  14.595
73988SOL    HW223804   0.363   4.801  14.622
73989SOL     OW23805   6.736  12.074   3.478
73989SOL    HW123806   6.827  12.093   3.457
73989SOL    HW223807   6.717  12.126   3.555
73990SOL     OW23808  11.922   9.138   1.627
73990SOL    HW123809  11.978   9.214   1.611
73990SOL    HW223810  11.917   9.131   1.722
73991SOL     OW23811   0.139  13.308  13.838
73991SOL    HW123812   0.191  13.354  13.773
73991SOL    HW223813   0.054  13.352  13.837
73992SOL     OW23814   8.039   2.613   1.753
73992SOL    HW123815   8.070   2.565   1.829
73992SOL    HW223816   7.947   2.632   1.772
73993SOL     OW23817  10.583   2.117   5.072
73993SOL    HW123818  10.497   2.076   5.062
73993SOL    HW223819  10.625   2.106   4.986
73994SOL     OW23820  11.788  11.938   7.461
73994SOL    HW123821  11.695  11.961   7.466
73994SOL    HW223822  11.832  12.022   7.446
73995SOL     OW23823   2.821   2.936   7.525
73995SOL    HW123824   2.874   2.861   7.549
73995SOL    HW223825   2.872   3.012   7.554
73996SOL     OW23826   2.562   0.326   5.139
73996SOL    HW123827   2.550   0.304   5.047
73996SOL    HW223828   2.657   0.341   5.148
73997SOL     OW23829   8.144   5.971   1.707
73997SOL    HW123830   8.111   5.956   1.618
73997SOL    HW223831   8.086   6.039   1.742
73998SOL     OW23832   0.051   9.365  12.672
73998SOL    HW123833   0.146   9.370  12.664
73998SOL    HW223834   0.034   9.375  12.766
73999SOL     OW23835   9.309  11.873  11.617
73999SOL    HW123836   9.224  11.838  11.645
73999SOL    HW223837   9.369  11.850  11.688
74000SOL     OW23838   9.069   0.486  14.155
74000SOL    HW123839   9.114   0.568  14.178
74000SOL    HW223840   9.140   0.427  14.130
74001SOL     OW23841   1.036  13.436  14.463
74001SOL    HW123842   1.037  13.467  14.373
74001SOL    HW223843   1.039  13.340  14.456
74002SOL     OW23844  13.859  11.738  11.520
74002SOL    HW123845  13.779  11.702  11.558
74002SOL    HW223846  13.925  11.671  11.536
74003SOL     OW23847   3.334   8.052   6.267
74003SOL    HW123848   3.255   8.034   6.317
74003SOL    HW223849   3.405   8.043   6.330
74004SOL     OW23850   4.738   9.635   4.383
74004SOL    HW123851   4.762   9.695   4.454
74004SOL    HW223852   4.677   9.574   4.424
74005SOL     OW23853   9.954   9.224   2.844
74005SOL    HW123854   9.965   9.130   2.831
74005SOL    HW223855   9.972   9.262   2.758
74006SOL     OW23856   7.034   7.366   1.098
74006SOL    HW123857   7.078   7.448   1.076
74006SOL    HW223858   7.091   7.297   1.062
74007SOL     OW23859  14.323  13.988   5.791
74007SOL    HW123860  14.270  14.057   5.831
74007SOL    HW223861  14.279  13.906   5.816
74008SOL     OW23862  11.578  11.089   5.689
74008SOL    HW123863  11.665  11.129   5.683
74008SOL    HW223864  11.583  11.013   5.631
74009SOL     OW23865   4.879   1.169  10.526
74009SOL    HW123866   4.867   1.203  10.615
74009SOL    HW223867   4.945   1.227  10.488
74010SOL     OW23868  12.710   0.323   1.345
74010SOL    HW123869  12.619   0.346   1.324
74010SOL    HW223870  12.735   0.385   1.413
74011SOL     OW23871   1.576  12.671  14.403
74011SOL    HW123872   1.616  12.589  14.431
74011SOL    HW223873   1.543  12.654  14.315
74012SOL     OW23874   4.319   0.062  10.726
74012SOL    HW123875   4.265   0.029  10.654
74012SOL    HW223876   4.259   0.112  10.781
74013SOL     OW23877   6.626  13.562  11.458
74013SOL    HW123878   6.575  13.535  11.534
74013SOL    HW223879   6.640  13.482  11.408
74014SOL     OW23880  10.854   6.286   6.747
74014SOL    HW123881  10.848   6.381   6.743
74014SOL    HW223882  10.816   6.257   6.664
74015SOL     OW23883   0.316  10.969  12.447
74015SOL    HW123884   0.402  10.972  12.404
74015SOL    HW223885   0.334  10.930  12.532
74016SOL     OW23886   0.717   9.196  10.302
74016SOL    HW123887   0.740   9.127  10.239
74016SOL    HW223888   0.800   9.229  10.334
74017SOL     OW23889   4.468  12.711   6.414
74017SOL    HW123890   4.453  12.718   6.320
74017SOL    HW223891   4.542  12.770   6.430
74018SOL     OW23892   6.199   0.329  12.031
74018SOL    HW123893   6.231   0.376  11.954
74018SOL    HW223894   6.276   0.319  12.086
74019SOL     OW23895   5.871   9.952  14.125
74019SOL    HW123896   5.934   9.965  14.197
74019SOL    HW223897   5.920   9.901  14.060
74020SOL     OW23898  12.826  14.017   9.666
74020SOL    HW123899  12.913  13.992   9.697
74020SOL    HW223900  12.771  14.014   9.744
74021SOL     OW23901  11.410   0.984   3.959
74021SOL    HW123902  11.465   0.909   3.979
74021SOL    HW223903  11.323   0.948   3.943
74022SOL     OW23904   4.905  13.348  14.489
74022SOL    HW123905   4.990  13.304  14.499
74022SOL    HW223906   4.921  13.438  14.517
74023SOL     OW23907   2.058   6.158   5.013
74023SOL    HW123908   1.970   6.185   4.985
74023SOL    HW223909   2.112   6.171   4.935
74024SOL     OW23910   3.390   0.571  12.551
74024SOL    HW123911   3.323   0.638  12.569
74024SOL    HW223912   3.432   0.600  12.470
74025SOL     OW23913   1.507   4.247   0.247
74025SOL    HW123914   1.544   4.196   0.174
74025SOL    HW223915   1.490   4.183   0.315
74026SOL     OW23916  12.278   3.528   5.923
74026SOL    HW123917  12.344   3.563   5.982
74026SOL    HW223918  12.327   3.481   5.857
74027SOL     OW23919  12.922   4.825   4.640
74027SOL    HW123920  13.016   4.841   4.652
74027SOL    HW223921  12.919   4.745   4.587
74028SOL     OW23922   0.570   5.447   3.458
74028SOL    HW123923   0.572   5.474   3.550
74028SOL    HW223924   0.662   5.445   3.433
74029SOL     OW23925   7.739   5.286   0.250
74029SOL    HW123926   7.687   5.251   0.177
74029SOL    HW223927   7.785   5.209   0.285
74030SOL     OW23928  14.686  12.566   9.193
74030SOL    HW123929  14.652  12.647   9.155
74030SOL    HW223930  14.691  12.584   9.287
74031SOL     OW23931   7.047  13.901   5.056
74031SOL    HW123932   7.041  13.831   4.992
74031SOL    HW223933   6.983  13.878   5.124
74032SOL     OW23934  10.317   5.765   4.592
74032SOL    HW123935  10.233   5.787   4.551
74032SOL    HW223936  10.342   5.682   4.552
74033SOL     OW23937   4.056   1.480   4.363
74033SOL    HW123938   4.054   1.534   4.442
74033SOL    HW223939   3.970   1.437   4.362
74034SOL     OW23940  13.070  10.015   4.688
74034SOL    HW123941  13.156   9.975   4.674
74034SOL    HW223942  13.089  10.098   4.732
74035SOL     OW23943   1.556  12.246   9.797
74035SOL    HW123944   1.466  12.231   9.767
74035SOL    HW223945   1.563  12.192   9.876
74036SOL     OW23946   6.973   3.115   2.264
74036SOL    HW123947   6.910   3.044   2.281
74036SOL    HW223948   6.943   3.154   2.182
74037SOL     OW23949   9.601  14.680   0.712
74037SOL    HW123950   9.529  14.664   0.651
74037SOL    HW223951   9.678  14.641   0.670
74038SOL     OW23952   4.445   9.813   5.322
74038SOL    HW123953   4.522   9.862   5.350
74038SOL    HW223954   4.450   9.730   5.369
74039SOL     OW23955   0.259   1.877   0.379
74039SOL    HW123956   0.192   1.894   0.446
74039SOL    HW223957   0.257   1.782   0.367
74040SOL     OW23958   5.507   6.559   7.789
74040SOL    HW123959   5.559   6.627   7.747
74040SOL    HW223960   5.542   6.554   7.878
74041SOL     OW23961  13.490   7.132   2.347
74041SOL    HW123962  13.457   7.052   2.307
74041SOL    HW223963  13.526   7.103   2.431
74042SOL     OW23964   7.874  12.798  10.971
74042SOL    HW123965   7.906  12.726  11.026
74042SOL    HW223966   7.878  12.875  11.028
74043SOL     OW23967  10.969   6.902   4.832
74043SOL    HW123968  11.040   6.889   4.769
74043SOL    HW223969  10.962   6.997   4.842
74044SOL     OW23970   4.098   6.576   5.470
74044SOL    HW123971   4.168   6.623   5.424
74044SOL    HW223972   4.018   6.605   5.426
74045SOL     OW23973   0.951  11.511  13.344
74045SOL    HW123974   0.974  11.477  13.258
74045SOL    HW223975   0.858  11.534  13.337
74046SOL     OW23976   6.046   3.513   4.799
74046SOL    HW123977   5.985   3.537   4.869
74046SOL    HW223978   6.123   3.568   4.815
74047SOL     OW23979  11.068  13.358  10.744
74047SOL    HW123980  11.033  13.306  10.817
74047SOL    HW223981  11.162  13.344  10.748
74048SOL     OW23982  11.828  11.399   6.315
74048SOL    HW123983  11.854  11.328   6.373
74048SOL    HW223984  11.735  11.410   6.330
74049SOL     OW23985   4.882   1.918  12.786
74049SOL    HW123986   4.963   1.918  12.838
74049SOL    HW223987   4.860   1.825  12.778
74050SOL     OW23988   9.046  13.786   2.086
74050SOL    HW123989   9.085  13.829   2.162
74050SOL    HW223990   9.047  13.853   2.017
74051SOL     OW23991   3.156   7.253   0.264
74051SOL    HW123992   3.215   7.180   0.246
74051SOL    HW223993   3.171   7.274   0.356
74052SOL     OW23994   7.966   5.721   3.885
74052SOL    HW123995   8.051   5.724   3.928
74052SOL    HW223996   7.977   5.656   3.816
74053SOL     OW23997   0.401  12.471  10.162
74053SOL    HW123998   0.334  12.404  10.151
74053SOL    HW223999   0.403  12.488  10.256
74054SOL     OW24000   9.288  11.285  10.536
74054SOL    HW124001   9.260  11.205  10.579
74054SOL    HW224002   9.319  11.257  10.450
74055SOL     OW24003   2.443  14.379  10.525
74055SOL    HW124004   2.449  14.325  10.604
74055SOL    HW224005   2.502  14.452  10.541
74056SOL     OW24006  14.645   6.912  10.647
74056SOL    HW124007  14.563   6.954  10.673
74056SOL    HW224008  14.665   6.951  10.561
74057SOL     OW24009   9.312   4.850   1.517
74057SOL    HW124010   9.373   4.797   1.569
74057SOL    HW224011   9.366   4.921   1.482
74058SOL     OW24012   9.816  12.044  13.052
74058SOL    HW124013   9.752  12.066  13.119
74058SOL    HW224014   9.886  12.109  13.064
74059SOL     OW24015   8.495   0.236   6.252
74059SOL    HW124016   8.438   0.285   6.193
74059SOL    HW224017   8.477   0.272   6.339
74060SOL     OW24018   7.353   4.547   8.716
74060SOL    HW124019   7.341   4.631   8.671
74060SOL    HW224020   7.377   4.570   8.805
74061SOL     OW24021   4.934   0.352   6.237
74061SOL    HW124022   4.996   0.280   6.254
74061SOL    HW224023   4.849   0.309   6.229
74062SOL     OW24024   6.533   5.888   7.020
74062SOL    HW124025   6.597   5.955   6.997
74062SOL    HW224026   6.478   5.929   7.087
74063SOL     OW24027   2.012   3.130   5.298
74063SOL    HW124028   2.070   3.115   5.224
74063SOL    HW224029   1.982   3.042   5.322
74064SOL     OW24030   8.037   2.882   7.178
74064SOL    HW124031   7.974   2.810   7.177
74064SOL    HW224032   7.983   2.961   7.178
74065SOL     OW24033   1.853  10.702   9.169
74065SOL    HW124034   1.787  10.656   9.119
74065SOL    HW224035   1.855  10.790   9.131
74066SOL     OW24036  10.482   9.376  13.542
74066SOL    HW124037  10.492   9.400  13.450
74066SOL    HW224038  10.510   9.454  13.590
74067SOL     OW24039   0.664   0.060   0.373
74067SOL    HW124040   0.707   0.124   0.429
74067SOL    HW224041   0.677   0.094   0.284
74068SOL     OW24042   7.504   8.730   8.332
74068SOL    HW124043   7.521   8.795   8.401
74068SOL    HW224044   7.410   8.736   8.316
74069SOL     OW24045   8.955  12.595   9.452
74069SOL    HW124046   9.014  12.625   9.383
74069SOL    HW224047   8.989  12.635   9.532
74070SOL     OW24048  13.358   1.927  13.571
74070SOL    HW124049  13.283   1.954  13.517
74070SOL    HW224050  13.319   1.888  13.649
74071SOL     OW24051   3.831   8.828   3.842
74071SOL    HW124052   3.900   8.894   3.835
74071SOL    HW224053   3.768   8.865   3.903
74072SOL     OW24054  10.987   6.625   1.150
74072SOL    HW124055  10.938   6.550   1.182
74072SOL    HW224056  11.015   6.600   1.062
74073SOL     OW24057  11.131   4.051  10.613
74073SOL    HW124058  11.164   4.102  10.688
74073SOL    HW224059  11.127   4.114  10.541
74074SOL     OW24060   5.100   0.394   0.925
74074SOL    HW124061   5.080   0.319   0.980
74074SOL    HW224062   5.080   0.470   0.979
74075SOL     OW24063   8.645   1.099   2.962
74075SOL    HW124064   8.570   1.100   3.022
74075SOL    HW224065   8.670   1.007   2.956
74076SOL     OW24066   2.433   0.253   3.277
74076SOL    HW124067   2.473   0.263   3.190
74076SOL    HW224068   2.464   0.328   3.327
74077SOL     OW24069   3.462  14.198  13.762
74077SOL    HW124070   3.404  14.241  13.825
74077SOL    HW224071   3.525  14.151  13.817
74078SOL     OW24072   0.675   7.793  11.995
74078SOL    HW124073   0.712   7.853  12.060
74078SOL    HW224074   0.743   7.782  11.929
74079SOL     OW24075   2.257   0.652  13.309
74079SOL    HW124076   2.166   0.669  13.285
74079SOL    HW224077   2.259   0.560  13.334
74080SOL     OW24078   5.340   7.261  11.357
74080SOL    HW124079   5.334   7.298  11.269
74080SOL    HW224080   5.375   7.333  11.411
74081SOL     OW24081   0.730  10.721   0.413
74081SOL    HW124082   0.804  10.780   0.428
74081SOL    HW224083   0.771  10.637   0.391
74082SOL     OW24084   6.895   9.290   9.361
74082SOL    HW124085   6.822   9.246   9.317
74082SOL    HW224086   6.879   9.277   9.454
74083SOL     OW24087   4.023   2.578   2.886
74083SOL    HW124088   3.988   2.499   2.927
74083SOL    HW224089   4.047   2.634   2.959
74084SOL     OW24090   1.703   5.983   9.690
74084SOL    HW124091   1.611   5.982   9.664
74084SOL    HW224092   1.703   5.947   9.779
74085SOL     OW24093  13.160   9.750   1.196
74085SOL    HW124094  13.208   9.819   1.151
74085SOL    HW224095  13.199   9.669   1.164
74086SOL     OW24096  10.433   7.493   0.296
74086SOL    HW124097  10.359   7.550   0.318
74086SOL    HW224098  10.498   7.510   0.364
74087SOL     OW24099  13.612   9.960   2.771
74087SOL    HW124100  13.586   9.987   2.683
74087SOL    HW224101  13.566  10.021   2.829
74088SOL     OW24102   7.355   6.105   1.396
74088SOL    HW124103   7.273   6.117   1.445
74088SOL    HW224104   7.329   6.110   1.304
74089SOL     OW24105   1.249   8.086   1.688
74089SOL    HW124106   1.169   8.061   1.735
74089SOL    HW224107   1.224   8.083   1.595
74090SOL     OW24108   6.437  13.740  10.441
74090SOL    HW124109   6.361  13.761  10.495
74090SOL    HW224110   6.418  13.780  10.356
74091SOL     OW24111   3.640   5.531  14.057
74091SOL    HW124112   3.732   5.550  14.075
74091SOL    HW224113   3.602   5.516  14.144
74092SOL     OW24114  13.437   8.998   7.664
74092SOL    HW124115  13.457   8.905   7.671
74092SOL    HW224116  13.523   9.041   7.668
74093SOL     OW24117  10.192   4.141   5.513
74093SOL    HW124118  10.099   4.160   5.504
74093SOL    HW224119  10.234   4.198   5.448
74094SOL     OW24120   2.268   0.200   6.851
74094SOL    HW124121   2.327   0.253   6.906
74094SOL    HW224122   2.200   0.169   6.911
74095SOL     OW24123   8.661  13.024   4.686
74095SOL    HW124124   8.602  13.062   4.752
74095SOL    HW224125   8.656  13.085   4.612
74096SOL     OW24126   7.619  11.968   7.519
74096SOL    HW124127   7.637  12.013   7.602
74096SOL    HW224128   7.601  11.878   7.545
74097SOL     OW24129  12.344  13.372   8.603
74097SOL    HW124130  12.366  13.459   8.635
74097SOL    HW224131  12.416  13.316   8.632
74098SOL     OW24132   7.486   2.590   7.976
74098SOL    HW124133   7.496   2.511   8.029
74098SOL    HW224134   7.559   2.646   8.002
74099SOL     OW24135  12.869   3.788   3.978
74099SOL    HW124136  12.872   3.723   4.048
74099SOL    HW224137  12.809   3.855   4.010
74100SOL     OW24138   1.108   2.378   9.088
74100SOL    HW124139   1.021   2.348   9.114
74100SOL    HW224140   1.155   2.389   9.171
74101SOL     OW24141  13.534  12.464   8.699
74101SOL    HW124142  13.459  12.406   8.709
74101SOL    HW224143  13.527  12.525   8.772
74102SOL     OW24144  10.953  10.899   8.309
74102SOL    HW124145  10.972  10.806   8.293
74102SOL    HW224146  10.952  10.938   8.221
74103SOL     OW24147   9.381   1.448   3.267
74103SOL    HW124148   9.465   1.408   3.289
74103SOL    HW224149   9.319   1.409   3.329
74104SOL     OW24150   8.497   9.614   7.143
74104SOL    HW124151   8.481   9.534   7.193
74104SOL    HW224152   8.591   9.613   7.126
74105SOL     OW24153  12.569   2.115  10.021
74105SOL    HW124154  12.478   2.090  10.003
74105SOL    HW224155  12.568   2.145  10.112
74106SOL     OW24156  12.877   7.996   7.464
74106SOL    HW124157  12.907   8.037   7.546
74106SOL    HW224158  12.824   7.921   7.492
74107SOL     OW24159   2.314   7.528   8.859
74107SOL    HW124160   2.314   7.443   8.816
74107SOL    HW224161   2.266   7.586   8.799
74108SOL     OW24162   9.756  14.857   1.169
74108SOL    HW124163   9.709  14.863   1.086
74108SOL    HW224164   9.831   0.036   1.159
74109SOL     OW24165   8.324   0.301   2.671
74109SOL    HW124166   8.238   0.259   2.672
74109SOL    HW224167   8.383   0.234   2.706
74110SOL     OW24168  13.020   6.140   2.270
74110SOL    HW124169  12.973   6.125   2.188
74110SOL    HW224170  13.111   6.155   2.244
74111SOL     OW24171   6.243   0.259   3.324
74111SOL    HW124172   6.187   0.210   3.263
74111SOL    HW224173   6.262   0.341   3.278
74112SOL     OW24174   2.281   1.186   0.981
74112SOL    HW124175   2.298   1.280   0.989
74112SOL    HW224176   2.264   1.172   0.888
74113SOL     OW24177   1.407  14.776   1.975
74113SOL    HW124178   1.456  14.728   1.908
74113SOL    HW224179   1.471  14.791   2.045
74114SOL     OW24180   1.998   9.718   6.785
74114SOL    HW124181   1.940   9.725   6.710
74114SOL    HW224182   2.065   9.784   6.770
74115SOL     OW24183   7.751   3.419   9.155
74115SOL    HW124184   7.733   3.422   9.249
74115SOL    HW224185   7.692   3.352   9.121
74116SOL     OW24186  12.519   6.224   4.479
74116SOL    HW124187  12.554   6.140   4.509
74116SOL    HW224188  12.497   6.210   4.387
74117SOL     OW24189  14.692   4.776   9.689
74117SOL    HW124190  14.633   4.847   9.661
74117SOL    HW224191  14.633   4.706   9.716
74118SOL     OW24192  11.418   4.146  13.550
74118SOL    HW124193  11.328   4.135  13.581
74118SOL    HW224194  11.422   4.093  13.470
74119SOL     OW24195   0.788   6.767   9.959
74119SOL    HW124196   0.751   6.730   9.879
74119SOL    HW224197   0.790   6.693  10.020
74120SOL     OW24198  11.935  13.825   9.825
74120SOL    HW124199  11.867  13.886   9.797
74120SOL    HW224200  11.976  13.867   9.900
74121SOL     OW24201  11.709   4.437  11.361
74121SOL    HW124202  11.797   4.405  11.343
74121SOL    HW224203  11.670   4.369  11.417
74122SOL     OW24204   1.574  14.564   8.923
74122SOL    HW124205   1.565  14.512   8.843
74122SOL    HW224206   1.526  14.644   8.905
74123SOL     OW24207  12.491  10.149  11.843
74123SOL    HW124208  12.417  10.205  11.864
74123SOL    HW224209  12.563  10.184  11.896
74124SOL     OW24210  14.024   9.020  11.075
74124SOL    HW124211  13.946   9.044  11.125
74124SOL    HW224212  14.048   8.934  11.109
74125SOL     OW24213   8.374   7.405  14.863
74125SOL    HW124214   8.343   7.316  14.847
74125SOL    HW224215   8.311   7.461  14.817
74126SOL     OW24216   6.835   0.807   0.743
74126SOL    HW124217   6.901   0.758   0.695
74126SOL    HW224218   6.853   0.788   0.835
74127SOL     OW24219   0.024   1.721   7.405
74127SOL    HW124220  14.830   1.729   7.344
74127SOL    HW224221   0.084   1.791   7.379
74128SOL     OW24222  13.762   8.426   3.197
74128SOL    HW124223  13.753   8.421   3.292
74128SOL    HW224224  13.785   8.518   3.180
74129SOL     OW24225   0.842   2.718   5.328
74129SOL    HW124226   0.840   2.724   5.423
74129SOL    HW224227   0.882   2.800   5.299
74130SOL     OW24228  14.753  11.212   4.208
74130SOL    HW124229  14.721  11.299   4.231
74130SOL    HW224230  14.824  11.228   4.146
74131SOL     OW24231   4.000  12.412   3.290
74131SOL    HW124232   4.003  12.413   3.194
74131SOL    HW224233   3.909  12.389   3.310
74132SOL     OW24234   8.143   5.721  14.183
74132SOL    HW124235   8.214   5.780  14.159
74132SOL    HW224236   8.186   5.637  14.200
74133SOL     OW24237   0.530   7.936   2.093
74133SOL    HW124238   0.541   7.885   2.174
74133SOL    HW224239   0.537   8.027   2.121
74134SOL     OW24240   9.741   9.839   2.000
74134SOL    HW124241   9.739   9.866   1.908
74134SOL    HW224242   9.727   9.745   1.998
74135SOL     OW24243  11.416  11.561   4.621
74135SOL    HW124244  11.324  11.534   4.613
74135SOL    HW224245  11.458  11.528   4.542
74136SOL     OW24246   0.450   5.791   6.525
74136SOL    HW124247   0.434   5.709   6.571
74136SOL    HW224248   0.541   5.784   6.495
74137SOL     OW24249  14.499   0.859   4.453
74137SOL    HW124250  14.429   0.912   4.413
74137SOL    HW224251  14.536   0.810   4.380
74138SOL     OW24252   7.284   2.243   3.674
74138SOL    HW124253   7.239   2.230   3.757
74138SOL    HW224254   7.242   2.320   3.636
74139SOL     OW24255   1.776  14.289  10.969
74139SOL    HW124256   1.682  14.291  10.983
74139SOL    HW224257   1.794  14.201  10.938
74140SOL     OW24258  14.313   7.914   3.154
74140SOL    HW124259  14.369   7.870   3.218
74140SOL    HW224260  14.237   7.944   3.204
74141SOL     OW24261  12.185  14.059   0.001
74141SOL    HW124262  12.170  13.966   0.022
74141SOL    HW224263  12.185  14.062  14.785
74142SOL     OW24264   6.281  11.768  13.027
74142SOL    HW124265   6.344  11.704  13.060
74142SOL    HW224266   6.301  11.776  12.934
74143SOL     OW24267  12.842   1.530  14.149
74143SOL    HW124268  12.925   1.576  14.158
74143SOL    HW224269  12.825   1.494  14.236
74144SOL     OW24270   7.623   7.003   0.416
74144SOL    HW124271   7.609   7.046   0.501
74144SOL    HW224272   7.562   7.047   0.357
74145SOL     OW24273  11.490  13.651   1.567
74145SOL    HW124274  11.454  13.623   1.483
74145SOL    HW224275  11.433  13.610   1.632
74146SOL     OW24276   0.673   8.665   5.178
74146SOL    HW124277   0.683   8.621   5.262
74146SOL    HW224278   0.591   8.713   5.185
74147SOL     OW24279  14.063   6.739   1.388
74147SOL    HW124280  14.028   6.657   1.353
74147SOL    HW224281  14.069   6.725   1.482
74148SOL     OW24282   2.819   2.070   7.531
74148SOL    HW124283   2.848   2.157   7.560
74148SOL    HW224284   2.723   2.075   7.532
74149SOL     OW24285   0.431   9.979  10.699
74149SOL    HW124286   0.503  10.039  10.716
74149SOL    HW224287   0.366  10.000  10.766
74150SOL     OW24288  14.258   9.052   1.421
74150SOL    HW124289  14.291   9.032   1.333
74150SOL    HW224290  14.299   9.136   1.444
74151SOL     OW24291   2.570   1.914   6.430
74151SOL    HW124292   2.639   1.980   6.423
74151SOL    HW224293   2.499   1.947   6.375
74152SOL     OW24294  12.653   6.911   7.177
74152SOL    HW124295  12.636   6.818   7.190
74152SOL    HW224296  12.652   6.949   7.265
74153SOL     OW24297  13.760   3.359  10.895
74153SOL    HW124298  13.802   3.356  10.981
74153SOL    HW224299  13.721   3.447  10.890
74154SOL     OW24300   4.958   8.695   1.424
74154SOL    HW124301   4.912   8.774   1.454
74154SOL    HW224302   4.889   8.630   1.410
74155SOL     OW24303   2.323   0.088  11.815
74155SOL    HW124304   2.245   0.051  11.773
74155SOL    HW224305   2.294   0.172  11.850
74156SOL     OW24306  14.473   3.442   3.497
74156SOL    HW124307  14.502   3.533   3.503
74156SOL    HW224308  14.384   3.447   3.462
74157SOL     OW24309   6.286  11.198  12.993
74157SOL    HW124310   6.194  11.191  12.967
74157SOL    HW224311   6.303  11.292  12.994
74158SOL     OW24312   1.741   4.436   5.101
74158SOL    HW124313   1.678   4.377   5.060
74158SOL    HW224314   1.819   4.430   5.046
74159SOL     OW24315   9.237  12.136   1.826
74159SOL    HW124316   9.295  12.129   1.750
74159SOL    HW224317   9.293  12.114   1.901
74160SOL     OW24318   4.884  11.634   5.018
74160SOL    HW124319   4.918  11.607   5.103
74160SOL    HW224320   4.821  11.702   5.037
74161SOL     OW24321   2.329  13.149   1.359
74161SOL    HW124322   2.249  13.104   1.385
74161SOL    HW224323   2.396  13.081   1.359
74162SOL     OW24324   8.797  10.609   7.527
74162SOL    HW124325   8.784  10.517   7.546
74162SOL    HW224326   8.769  10.655   7.606
74163SOL     OW24327  11.344   0.446  12.707
74163SOL    HW124328  11.253   0.430  12.683
74163SOL    HW224329  11.381   0.491  12.631
74164SOL     OW24330  12.977   0.787   1.538
74164SOL    HW124331  13.064   0.750   1.554
74164SOL    HW224332  12.968   0.785   1.443
74165SOL     OW24333   2.538   5.953   2.088
74165SOL    HW124334   2.566   5.974   2.177
74165SOL    HW224335   2.443   5.939   2.095
74166SOL     OW24336   7.044  13.706   0.903
74166SOL    HW124337   7.019  13.791   0.866
74166SOL    HW224338   6.972  13.648   0.879
74167SOL     OW24339   7.537   3.143   5.100
74167SOL    HW124340   7.501   3.083   5.166
74167SOL    HW224341   7.500   3.112   5.017
74168SOL     OW24342  12.751  10.419   3.230
74168SOL    HW124343  12.711  10.341   3.191
74168SOL    HW224344  12.744  10.486   3.162
74169SOL     OW24345  14.121   8.756   8.626
74169SOL    HW124346  14.079   8.823   8.573
74169SOL    HW224347  14.048   8.711   8.669
74170SOL     OW24348   2.950  13.908  10.987
74170SOL    HW124349   2.900  13.831  10.960
74170SOL    HW224350   2.894  13.950  11.053
74171SOL     OW24351  14.306   7.934  10.299
74171SOL    HW124352  14.273   7.949  10.210
74171SOL    HW224353  14.228   7.934  10.354
74172SOL     OW24354  14.617   2.882  12.546
74172SOL    HW124355  14.643   2.828  12.621
74172SOL    HW224356  14.531   2.917  12.570
74173SOL     OW24357   3.723  14.424  10.475
74173SOL    HW124358   3.699  14.517  10.467
74173SOL    HW224359   3.725  14.407  10.569
74174SOL     OW24360   5.990   5.453   5.285
74174SOL    HW124361   6.048   5.482   5.356
74174SOL    HW224362   6.000   5.519   5.217
74175SOL     OW24363   1.991   1.790  14.591
74175SOL    HW124364   1.904   1.818  14.618
74175SOL    HW224365   2.046   1.803  14.668
74176SOL     OW24366   1.419   4.552   2.701
74176SOL    HW124367   1.478   4.479   2.714
74176SOL    HW224368   1.336   4.523   2.740
74177SOL     OW24369  13.572   6.539  11.759
74177SOL    HW124370  13.602   6.504  11.675
74177SOL    HW224371  13.497   6.594  11.737
74178SOL     OW24372   1.507   3.370   5.033
74178SOL    HW124373   1.434   3.310   5.048
74178SOL    HW224374   1.506   3.428   5.110
74179SOL     OW24375   7.822   7.047   9.023
74179SOL    HW124376   7.888   7.104   9.062
74179SOL    HW224377   7.869   6.964   9.007
74180SOL     OW24378   6.012   5.614  11.898
74180SOL    HW124379   6.071   5.560  11.951
74180SOL    HW224380   6.003   5.566  11.816
74181SOL     OW24381   3.944  14.300   9.280
74181SOL    HW124382   4.028  14.255   9.280
74181SOL    HW224383   3.918  14.304   9.188
74182SOL     OW24384   1.488  14.569  13.680
74182SOL    HW124385   1.541  14.520  13.743
74182SOL    HW224386   1.550  14.625  13.635
74183SOL     OW24387   3.022  12.513  11.188
74183SOL    HW124388   3.111  12.498  11.156
74183SOL    HW224389   2.968  12.453  11.135
74184SOL     OW24390   5.885  12.958   2.126
74184SOL    HW124391   5.853  12.948   2.216
74184SOL    HW224392   5.917  12.871   2.102
74185SOL     OW24393   7.155   3.141  11.129
74185SOL    HW124394   7.142   3.193  11.050
74185SOL    HW224395   7.241   3.167  11.161
74186SOL     OW24396   0.763   2.335   7.387
74186SOL    HW124397   0.818   2.382   7.451
74186SOL    HW224398   0.784   2.376   7.303
74187SOL     OW24399   5.663  11.404   7.705
74187SOL    HW124400   5.585  11.349   7.719
74187SOL    HW224401   5.673  11.406   7.610
74188SOL     OW24402   2.941  13.598   1.761
74188SOL    HW124403   2.875  13.636   1.703
74188SOL    HW224404   3.001  13.671   1.780
74189SOL     OW24405  13.769   0.623   9.492
74189SOL    HW124406  13.802   0.533   9.491
74189SOL    HW224407  13.776   0.652   9.401
74190SOL     OW24408   0.830   0.116   1.827
74190SOL    HW124409   0.737   0.136   1.838
74190SOL    HW224410   0.870   0.201   1.804
74191SOL     OW24411  10.036   7.536   0.691
74191SOL    HW124412   9.961   7.554   0.748
74191SOL    HW224413  10.110   7.528   0.750
74192SOL     OW24414   0.193   7.855  11.430
74192SOL    HW124415   0.180   7.802  11.509
74192SOL    HW224416   0.194   7.946  11.461
74193SOL     OW24417   1.825   6.988   5.113
74193SOL    HW124418   1.751   6.973   5.055
74193SOL    HW224419   1.885   6.915   5.095
74194SOL     OW24420   7.790   8.785   1.782
74194SOL    HW124421   7.805   8.757   1.872
74194SOL    HW224422   7.785   8.703   1.732
74195SOL     OW24423  10.193   2.102   2.608
74195SOL    HW124424  10.134   2.175   2.629
74195SOL    HW224425  10.173   2.079   2.517
74196SOL     OW24426   5.189  14.492   0.351
74196SOL    HW124427   5.144  14.501   0.266
74196SOL    HW224428   5.125  14.523   0.415
74197SOL     OW24429   0.280   5.370   2.117
74197SOL    HW124430   0.355   5.352   2.060
74197SOL    HW224431   0.300   5.456   2.155
74198SOL     OW24432   8.682   9.789   3.795
74198SOL    HW124433   8.758   9.831   3.836
74198SOL    HW224434   8.609   9.814   3.851
74199SOL     OW24435  12.587   2.957   6.127
74199SOL    HW124436  12.655   3.024   6.136
74199SOL    HW224437  12.505   3.004   6.140
74200SOL     OW24438   0.122   1.614   1.762
74200SOL    HW124439   0.091   1.690   1.712
74200SOL    HW224440   0.096   1.538   1.710
74201SOL     OW24441  14.238   2.060   2.792
74201SOL    HW124442  14.208   2.064   2.882
74201SOL    HW224443  14.190   1.987   2.754
74202SOL     OW24444   7.193   5.981   2.843
74202SOL    HW124445   7.129   5.912   2.828
74202SOL    HW224446   7.241   5.987   2.760
74203SOL     OW24447  12.591  10.193  12.739
74203SOL    HW124448  12.679  10.230  12.732
74203SOL    HW224449  12.535  10.269  12.755
74204SOL     OW24450   6.332   1.366  11.037
74204SOL    HW124451   6.320   1.458  11.061
74204SOL    HW224452   6.416   1.364  10.992
74205SOL     OW24453   1.535  14.218   5.891
74205SOL    HW124454   1.593  14.223   5.815
74205SOL    HW224455   1.500  14.307   5.900
74206SOL     OW24456   9.145   7.368  10.265
74206SOL    HW124457   9.126   7.357  10.359
74206SOL    HW224458   9.059   7.373  10.224
74207SOL     OW24459   7.489   6.136  14.561
74207SOL    HW124460   7.396   6.158  14.548
74207SOL    HW224461   7.495   6.043  14.540
74208SOL     OW24462   1.115   6.611  10.226
74208SOL    HW124463   1.121   6.548  10.154
74208SOL    HW224464   1.055   6.679  10.194
74209SOL     OW24465   6.810   3.783  12.804
74209SOL    HW124466   6.884   3.723  12.801
74209SOL    HW224467   6.841   3.863  12.761
74210SOL     OW24468   7.255   3.635  11.955
74210SOL    HW124469   7.174   3.658  12.001
74210SOL    HW224470   7.254   3.540  11.950
74211SOL     OW24471   6.591   2.622   8.792
74211SOL    HW124472   6.497   2.612   8.780
74211SOL    HW224473   6.604   2.716   8.808
74212SOL     OW24474   2.317   1.357   5.670
74212SOL    HW124475   2.343   1.266   5.652
74212SOL    HW224476   2.299   1.358   5.764
74213SOL     OW24477   7.207  11.722   1.562
74213SOL    HW124478   7.123  11.742   1.605
74213SOL    HW224479   7.235  11.640   1.602
74214SOL     OW24480   2.200  10.324   5.181
74214SOL    HW124481   2.208  10.355   5.091
74214SOL    HW224482   2.208  10.229   5.175
74215SOL     OW24483   1.682   5.246  10.845
74215SOL    HW124484   1.754   5.186  10.821
74215SOL    HW224485   1.604   5.205  10.807
74216SOL     OW24486  12.214   5.141   5.684
74216SOL    HW124487  12.289   5.098   5.641
74216SOL    HW224488  12.252   5.219   5.725
74217SOL     OW24489   2.057  11.299   0.800
74217SOL    HW124490   1.964  11.291   0.822
74217SOL    HW224491   2.060  11.282   0.706
74218SOL     OW24492  13.049   8.021   9.283
74218SOL    HW124493  13.128   8.048   9.331
74218SOL    HW224494  13.081   7.996   9.196
74219SOL     OW24495   4.355   9.150   2.636
74219SOL    HW124496   4.429   9.125   2.582
74219SOL    HW224497   4.333   9.072   2.686
74220SOL     OW24498   2.195   6.044   5.210
74220SOL    HW124499   2.139   6.084   5.143
74220SOL    HW224500   2.141   5.974   5.247
74221SOL     OW24501   2.787  13.179   0.372
74221SOL    HW124502   2.725  13.166   0.443
74221SOL    HW224503   2.732  13.194   0.295
74222SOL     OW24504   8.704   1.339  10.899
74222SOL    HW124505   8.757   1.409  10.938
74222SOL    HW224506   8.640   1.385  10.844
74223SOL     OW24507   6.477   3.679   9.484
74223SOL    HW124508   6.476   3.742   9.412
74223SOL    HW224509   6.465   3.594   9.442
74224SOL     OW24510   5.417   8.896  12.929
74224SOL    HW124511   5.389   8.812  12.892
74224SOL    HW224512   5.336   8.935  12.962
74225SOL     OW24513  14.181   1.408   1.692
74225SOL    HW124514  14.101   1.406   1.640
74225SOL    HW224515  14.152   1.396   1.782
74226SOL     OW24516   5.938  14.652   4.234
74226SOL    HW124517   5.964  14.677   4.146
74226SOL    HW224518   5.874  14.582   4.221
74227SOL     OW24519  10.684   3.921   0.357
74227SOL    HW124520  10.616   3.870   0.312
74227SOL    HW224521  10.641   4.003   0.380
74228SOL     OW24522  14.671   4.148  13.907
74228SOL    HW124523  14.618   4.227  13.919
74228SOL    HW224524  14.672   4.135  13.812
74229SOL     OW24525  10.463   2.736  14.183
74229SOL    HW124526  10.454   2.797  14.256
74229SOL    HW224527  10.501   2.789  14.113
74230SOL     OW24528  11.576   9.132   0.502
74230SOL    HW124529  11.598   9.224   0.490
74230SOL    HW224530  11.532   9.129   0.587
74231SOL     OW24531  11.218   2.448   3.288
74231SOL    HW124532  11.209   2.398   3.207
74231SOL    HW224533  11.149   2.514   3.284
74232SOL     OW24534   1.552   3.599   7.243
74232SOL    HW124535   1.557   3.695   7.238
74232SOL    HW224536   1.639   3.570   7.216
74233SOL     OW24537  11.489   8.940   7.660
74233SOL    HW124538  11.537   8.982   7.589
74233SOL    HW224539  11.556   8.919   7.725
74234SOL     OW24540  11.856   7.845  13.067
74234SOL    HW124541  11.773   7.881  13.037
74234SOL    HW224542  11.905   7.920  13.098
74235SOL     OW24543   6.444   5.987   6.571
74235SOL    HW124544   6.391   6.049   6.620
74235SOL    HW224545   6.427   5.902   6.612
74236SOL     OW24546   4.832  11.614  10.977
74236SOL    HW124547   4.814  11.684  10.914
74236SOL    HW224548   4.795  11.645  11.059
74237SOL     OW24549   3.546   7.386   7.800
74237SOL    HW124550   3.532   7.400   7.706
74237SOL    HW224551   3.636   7.356   7.806
74238SOL     OW24552  14.413   9.329  14.343
74238SOL    HW124553  14.371   9.396  14.396
74238SOL    HW224554  14.384   9.348  14.253
74239SOL     OW24555  12.657   8.616  13.819
74239SOL    HW124556  12.639   8.545  13.881
74239SOL    HW224557  12.653   8.575  13.733
74240SOL     OW24558   7.686  12.058  11.358
74240SOL    HW124559   7.726  12.039  11.273
74240SOL    HW224560   7.616  11.994  11.366
74241SOL     OW24561   7.711  13.348   9.148
74241SOL    HW124562   7.657  13.422   9.120
74241SOL    HW224563   7.790  13.355   9.095
74242SOL     OW24564  10.864   6.713   0.639
74242SOL    HW124565  10.798   6.745   0.577
74242SOL    HW224566  10.849   6.619   0.644
74243SOL     OW24567   7.059  11.232  14.482
74243SOL    HW124568   7.060  11.153  14.536
74243SOL    HW224569   7.127  11.288  14.518
74244SOL     OW24570  14.838   7.544   9.341
74244SOL    HW124571   0.044   7.548   9.386
74244SOL    HW224572  14.832   7.626   9.293
74245SOL     OW24573  12.243   8.762   4.388
74245SOL    HW124574  12.157   8.769   4.430
74245SOL    HW224575  12.263   8.669   4.391
74246SOL     OW24576  12.999   8.766   0.418
74246SOL    HW124577  13.043   8.750   0.502
74246SOL    HW224578  13.067   8.752   0.352
74247SOL     OW24579   5.046   1.341   7.993
74247SOL    HW124580   5.085   1.322   8.078
74247SOL    HW224581   4.990   1.266   7.974
74248SOL     OW24582   4.944   2.404   1.373
74248SOL    HW124583   5.030   2.432   1.404
74248SOL    HW224584   4.883   2.462   1.418
74249SOL     OW24585   4.716  10.633  14.598
74249SOL    HW124586   4.695  10.583  14.519
74249SOL    HW224587   4.698  10.572  14.670
74250SOL     OW24588  12.821   5.469   7.617
74250SOL    HW124589  12.863   5.546   7.655
74250SOL    HW224590  12.892   5.422   7.574
74251SOL     OW24591   3.668   1.554   1.280
74251SOL    HW124592   3.690   1.607   1.357
74251SOL    HW224593   3.629   1.474   1.317
74252SOL     OW24594  12.177  11.401   2.899
74252SOL    HW124595  12.265  11.375   2.924
74252SOL    HW224596  12.123  11.323   2.917
74253SOL     OW24597   0.119   5.661   0.483
74253SOL    HW124598   0.211   5.663   0.456
74253SOL    HW224599   0.077   5.729   0.430
74254SOL     OW24600  11.921   2.391   8.014
74254SOL    HW124601  11.827   2.375   8.006
74254SOL    HW224602  11.941   2.452   7.943
74255SOL     OW24603  10.011   4.453   6.596
74255SOL    HW124604  10.024   4.447   6.502
74255SOL    HW224605   9.917   4.440   6.608
74256SOL     OW24606   1.307   1.250   6.121
74256SOL    HW124607   1.261   1.183   6.171
74256SOL    HW224608   1.312   1.215   6.032
74257SOL     OW24609  12.346   9.778   7.482
74257SOL    HW124610  12.267   9.821   7.514
74257SOL    HW224611  12.357   9.809   7.393
74258SOL     OW24612   8.807   7.742  11.676
74258SOL    HW124613   8.806   7.795  11.596
74258SOL    HW224614   8.732   7.684  11.668
74259SOL     OW24615   6.764   4.166   3.044
74259SOL    HW124616   6.684   4.207   3.011
74259SOL    HW224617   6.826   4.175   2.972
74260SOL     OW24618  14.320   3.554  12.305
74260SOL    HW124619  14.333   3.502  12.226
74260SOL    HW224620  14.406   3.590  12.324
74261SOL     OW24621  11.900   9.597   9.645
74261SOL    HW124622  11.909   9.688   9.674
74261SOL    HW224623  11.851   9.554   9.714
74262SOL     OW24624   2.703   8.850   3.928
74262SOL    HW124625   2.710   8.859   4.023
74262SOL    HW224626   2.793   8.833   3.900
74263SOL     OW24627   2.716  12.882   8.197
74263SOL    HW124628   2.682  12.934   8.269
74263SOL    HW224629   2.770  12.815   8.239
74264SOL     OW24630  13.014   1.663   0.417
74264SOL    HW124631  12.989   1.662   0.510
74264SOL    HW224632  12.947   1.715   0.374
74265SOL     OW24633  11.745   4.020   4.897
74265SOL    HW124634  11.719   4.096   4.845
74265SOL    HW224635  11.753   3.949   4.833
74266SOL     OW24636   8.542  11.807   3.343
74266SOL    HW124637   8.618  11.766   3.300
74266SOL    HW224638   8.492  11.845   3.270
74267SOL     OW24639   0.713  11.214   4.104
74267SOL    HW124640   0.741  11.140   4.158
74267SOL    HW224641   0.793  11.264   4.088
74268SOL     OW24642   0.468   7.310   2.236
74268SOL    HW124643   0.396   7.285   2.177
74268SOL    HW224644   0.440   7.393   2.275
74269SOL     OW24645   8.506  11.748   7.710
74269SOL    HW124646   8.429  11.791   7.746
74269SOL    HW224647   8.525  11.678   7.772
74270SOL     OW24648   1.726  10.063  13.036
74270SOL    HW124649   1.679  10.072  12.953
74270SOL    HW224650   1.776  10.145  13.044
74271SOL     OW24651   9.457   4.571   8.944
74271SOL    HW124652   9.551   4.563   8.958
74271SOL    HW224653   9.433   4.492   8.897
74272SOL     OW24654   8.777   4.100   0.900
74272SOL    HW124655   8.700   4.136   0.856
74272SOL    HW224656   8.758   4.007   0.908
74273SOL     OW24657   5.513  13.039   7.806
74273SOL    HW124658   5.552  13.097   7.740
74273SOL    HW224659   5.574  13.040   7.879
74274SOL     OW24660   6.150  10.952   6.799
74274SOL    HW124661   6.164  10.947   6.893
74274SOL    HW224662   6.105  10.870   6.777
74275SOL     OW24663   1.074   3.616  14.583
74275SOL    HW124664   1.125   3.536  14.598
74275SOL    HW224665   1.116   3.682  14.638
74276SOL     OW24666   5.347   8.337   6.764
74276SOL    HW124667   5.395   8.402   6.713
74276SOL    HW224668   5.347   8.258   6.710
74277SOL     OW24669  10.250   3.308   1.303
74277SOL    HW124670  10.345   3.302   1.318
74277SOL    HW224671  10.236   3.399   1.276
74278SOL     OW24672   1.177   6.581  10.636
74278SOL    HW124673   1.180   6.669  10.597
74278SOL    HW224674   1.268   6.551  10.633
74279SOL     OW24675  14.879  14.753   4.907
74279SOL    HW124676   0.044  14.686   4.856
74279SOL    HW224677   0.016  14.834   4.859
74280SOL     OW24678  11.103  14.005   6.052
74280SOL    HW124679  11.011  13.995   6.076
74280SOL    HW224680  11.150  13.948   6.113
74281SOL     OW24681  10.987   9.863   1.970
74281SOL    HW124682  10.983   9.951   1.933
74281SOL    HW224683  10.896   9.835   1.975
74282SOL     OW24684   0.380   7.223  13.861
74282SOL    HW124685   0.394   7.292  13.927
74282SOL    HW224686   0.328   7.266  13.793
74283SOL     OW24687   3.515   6.193  11.412
74283SOL    HW124688   3.540   6.138  11.486
74283SOL    HW224689   3.572   6.270  11.419
74284SOL     OW24690   1.287   7.826   4.396
74284SOL    HW124691   1.318   7.866   4.315
74284SOL    HW224692   1.203   7.869   4.414
74285SOL     OW24693  14.057   1.172   4.506
74285SOL    HW124694  14.038   1.206   4.418
74285SOL    HW224695  13.980   1.120   4.529
74286SOL     OW24696   6.857  12.483  10.145
74286SOL    HW124697   6.854  12.519  10.234
74286SOL    HW224698   6.768  12.453  10.129
74287SOL     OW24699   7.867   5.045   3.842
74287SOL    HW124700   7.801   4.998   3.893
74287SOL    HW224701   7.819   5.080   3.767
74288SOL     OW24702   5.745  10.539  13.636
74288SOL    HW124703   5.775  10.458  13.677
74288SOL    HW224704   5.650  10.530  13.632
74289SOL     OW24705   0.935   7.725   1.816
74289SOL    HW124706   0.914   7.646   1.767
74289SOL    HW224707   1.019   7.707   1.857
74290SOL     OW24708   4.118  10.463   4.393
74290SOL    HW124709   4.156  10.410   4.463
74290SOL    HW224710   4.129  10.411   4.314
74291SOL     OW24711  11.372   4.480   0.436
74291SOL    HW124712  11.392   4.457   0.527
74291SOL    HW224713  11.452   4.459   0.388
74292SOL     OW24714   2.290   3.660   9.631
74292SOL    HW124715   2.300   3.729   9.566
74292SOL    HW224716   2.246   3.589   9.585
74293SOL     OW24717  14.252   7.361   6.675
74293SOL    HW124718  14.289   7.346   6.588
74293SOL    HW224719  14.325   7.343   6.735
74294SOL     OW24720   4.595  12.467  11.575
74294SOL    HW124721   4.652  12.438  11.504
74294SOL    HW224722   4.537  12.392  11.590
74295SOL     OW24723   6.397  11.091  11.890
74295SOL    HW124724   6.420  11.032  11.962
74295SOL    HW224725   6.393  11.034  11.813
74296SOL     OW24726  14.246  11.935  13.402
74296SOL    HW124727  14.263  11.919  13.309
74296SOL    HW224728  14.236  12.030  13.409
74297SOL     OW24729   2.078   9.248   2.545
74297SOL    HW124730   2.152   9.277   2.492
74297SOL    HW224731   2.108   9.167   2.587
74298SOL     OW24732   8.666   0.380  11.345
74298SOL    HW124733   8.644   0.372  11.437
74298SOL    HW224734   8.733   0.313  11.330
74299SOL     OW24735   4.714  10.078   9.408
74299SOL    HW124736   4.646  10.078   9.475
74299SOL    HW224737   4.675  10.124   9.334
74300SOL     OW24738   8.344  14.061   5.454
74300SOL    HW124739   8.419  14.001   5.449
74300SOL    HW224740   8.315  14.055   5.545
74301SOL     OW24741   8.220  13.716   1.048
74301SOL    HW124742   8.230  13.662   1.127
74301SOL    HW224743   8.271  13.795   1.067
74302SOL     OW24744  13.562   9.232   0.389
74302SOL    HW124745  13.508   9.296   0.436
74302SOL    HW224746  13.511   9.210   0.312
74303SOL     OW24747   2.552  10.536  12.445
74303SOL    HW124748   2.505  10.461  12.409
74303SOL    HW224749   2.633  10.498  12.481
74304SOL     OW24750  14.359   5.630   3.616
74304SOL    HW124751  14.343   5.688   3.541
74304SOL    HW224752  14.388   5.689   3.685
74305SOL     OW24753   1.918   4.005   1.362
74305SOL    HW124754   1.935   3.921   1.404
74305SOL    HW224755   1.994   4.059   1.383
74306SOL     OW24756   6.564   4.250   5.669
74306SOL    HW124757   6.561   4.181   5.603
74306SOL    HW224758   6.654   4.249   5.701
74307SOL     OW24759   5.380   5.854   0.781
74307SOL    HW124760   5.302   5.801   0.798
74307SOL    HW224761   5.351   5.919   0.717
74308SOL     OW24762  14.365   0.463   9.550
74308SOL    HW124763  14.364   0.409   9.471
74308SOL    HW224764  14.287   0.435   9.599
74309SOL     OW24765  14.828   1.224   6.087
74309SOL    HW124766   0.043   1.237   6.080
74309SOL    HW224767  14.791   1.312   6.087
74310SOL     OW24768   0.691   7.482   0.015
74310SOL    HW124769   0.725   7.532   0.089
74310SOL    HW224770   0.642   7.410   0.054
74311SOL     OW24771   2.912   3.152  11.151
74311SOL    HW124772   2.884   3.198  11.072
74311SOL    HW224773   2.831   3.134  11.198
74312SOL     OW24774  11.233   0.460  14.787
74312SOL    HW124775  11.312   0.413  14.760
74312SOL    HW224776  11.237   0.542  14.737
74313SOL     OW24777   9.679   8.609   1.252
74313SOL    HW124778   9.694   8.681   1.191
74313SOL    HW224779   9.682   8.530   1.196
74314SOL     OW24780  14.614   8.053   0.431
74314SOL    HW124781  14.547   8.076   0.496
74314SOL    HW224782  14.691   8.102   0.458
74315SOL     OW24783   9.300   2.346   6.925
74315SOL    HW124784   9.273   2.274   6.982
74315SOL    HW224785   9.311   2.421   6.983
74316SOL     OW24786  13.892  13.942   8.756
74316SOL    HW124787  13.811  13.972   8.795
74316SOL    HW224788  13.886  13.969   8.664
74317SOL     OW24789   6.073  10.571  13.610
74317SOL    HW124790   6.069  10.663  13.583
74317SOL    HW224791   6.024  10.568  13.692
74318SOL     OW24792  13.358  10.450   2.110
74318SOL    HW124793  13.327  10.404   2.189
74318SOL    HW224794  13.412  10.385   2.065
74319SOL     OW24795  13.117  13.670  14.045
74319SOL    HW124796  13.092  13.746  13.993
74319SOL    HW224797  13.208  13.685  14.068
74320SOL     OW24798  10.031   8.339   1.496
74320SOL    HW124799   9.994   8.415   1.541
74320SOL    HW224800   9.956   8.284   1.476
74321SOL     OW24801  13.620   9.516   4.436
74321SOL    HW124802  13.603   9.424   4.455
74321SOL    HW224803  13.542   9.546   4.389
74322SOL     OW24804   3.913  12.012  12.289
74322SOL    HW124805   3.851  11.961  12.342
74322SOL    HW224806   3.984  11.951  12.270
74323SOL     OW24807   3.415   4.134   7.764
74323SOL    HW124808   3.509   4.128   7.746
74323SOL    HW224809   3.385   4.206   7.709
74324SOL     OW24810   8.169   4.110   9.247
74324SOL    HW124811   8.226   4.185   9.265
74324SOL    HW224812   8.123   4.134   9.167
74325SOL     OW24813   9.133   4.849   1.317
74325SOL    HW124814   9.193   4.840   1.391
74325SOL    HW224815   9.082   4.927   1.338
74326SOL     OW24816   0.394   5.668   7.683
74326SOL    HW124817   0.343   5.664   7.602
74326SOL    HW224818   0.361   5.594   7.735
74327SOL     OW24819  10.228   2.980   5.430
74327SOL    HW124820  10.291   3.028   5.483
74327SOL    HW224821  10.194   3.045   5.368
74328SOL     OW24822   2.806   0.666   7.194
74328SOL    HW124823   2.868   0.684   7.265
74328SOL    HW224824   2.730   0.720   7.215
74329SOL     OW24825   5.236  14.465  11.645
74329SOL    HW124826   5.225  14.552  11.684
74329SOL    HW224827   5.306  14.425  11.697
74330SOL     OW24828  11.435   3.291   1.640
74330SOL    HW124829  11.475   3.214   1.600
74330SOL    HW224830  11.453   3.281   1.734
74331SOL     OW24831   0.976   9.313   6.888
74331SOL    HW124832   0.992   9.383   6.825
74331SOL    HW224833   0.978   9.233   6.836
74332SOL     OW24834   5.276  13.652   4.234
74332SOL    HW124835   5.243  13.735   4.199
74332SOL    HW224836   5.203  13.591   4.222
74333SOL     OW24837   3.287   7.042   1.180
74333SOL    HW124838   3.204   7.032   1.227
74333SOL    HW224839   3.354   7.017   1.243
74334SOL     OW24840  10.333   1.350   9.654
74334SOL    HW124841  10.427   1.359   9.670
74334SOL    HW224842  10.298   1.315   9.736
74335SOL     OW24843   6.515  14.569   1.482
74335SOL    HW124844   6.609  14.556   1.467
74335SOL    HW224845   6.473  14.518   1.413
74336SOL     OW24846   5.575   4.246   1.225
74336SOL    HW124847   5.511   4.215   1.161
74336SOL    HW224848   5.654   4.262   1.174
74337SOL     OW24849  11.139   2.103   1.523
74337SOL    HW124850  11.064   2.095   1.581
74337SOL    HW224851  11.208   2.052   1.566
74338SOL     OW24852   9.838   1.928   7.739
74338SOL    HW124853   9.869   2.005   7.786
74338SOL    HW224854   9.760   1.958   7.691
74339SOL     OW24855   9.674  12.895  12.813
74339SOL    HW124856   9.608  12.858  12.754
74339SOL    HW224857   9.636  12.885  12.900
74340SOL     OW24858   8.172   6.332   3.852
74340SOL    HW124859   8.264   6.318   3.873
74340SOL    HW224860   8.165   6.425   3.833
74341SOL     OW24861   2.050  14.653  14.801
74341SOL    HW124862   2.123  14.671  14.742
74341SOL    HW224863   1.978  14.707  14.767
74342SOL     OW24864  14.431  11.806  12.009
74342SOL    HW124865  14.435  11.887  11.959
74342SOL    HW224866  14.370  11.825  12.081
74343SOL     OW24867   6.045  10.517  14.551
74343SOL    HW124868   5.999  10.489  14.631
74343SOL    HW224869   6.133  10.481  14.560
74344SOL     OW24870   4.109   0.742   1.175
74344SOL    HW124871   4.065   0.665   1.139
74344SOL    HW224872   4.175   0.765   1.110
74345SOL     OW24873   1.559   5.323   7.654
74345SOL    HW124874   1.648   5.350   7.632
74345SOL    HW224875   1.504   5.393   7.620
74346SOL     OW24876   6.062  14.736   3.989
74346SOL    HW124877   6.132  14.680   3.957
74346SOL    HW224878   6.043  14.796   3.917
74347SOL     OW24879  14.877   5.518   4.968
74347SOL    HW124880   0.054   5.525   5.045
74347SOL    HW224881   0.057   5.490   4.897
74348SOL     OW24882   5.082   2.118  13.099
74348SOL    HW124883   5.167   2.156  13.075
74348SOL    HW224884   5.075   2.133  13.194
74349SOL     OW24885   2.190   0.956  12.330
74349SOL    HW124886   2.236   0.883  12.373
74349SOL    HW224887   2.248   1.031  12.343
74350SOL     OW24888  12.947   1.892   1.831
74350SOL    HW124889  13.035   1.905   1.864
74350SOL    HW224890  12.949   1.806   1.789
74351SOL     OW24891   9.206  11.386  13.132
74351SOL    HW124892   9.120  11.347  13.122
74351SOL    HW224893   9.210  11.453  13.063
74352SOL     OW24894  12.897  10.938  10.165
74352SOL    HW124895  12.846  10.996  10.221
74352SOL    HW224896  12.987  10.950  10.194
74353SOL     OW24897  11.599   8.213  10.089
74353SOL    HW124898  11.535   8.150  10.121
74353SOL    HW224899  11.573   8.296  10.129
74354SOL     OW24900   0.208   7.022   1.965
74354SOL    HW124901   0.232   6.999   1.875
74354SOL    HW224902   0.126   6.974   1.980
74355SOL     OW24903  12.817  13.858   8.711
74355SOL    HW124904  12.783  13.894   8.630
74355SOL    HW224905  12.767  13.777   8.724
74356SOL     OW24906  12.134   1.626  12.405
74356SOL    HW124907  12.075   1.590  12.471
74356SOL    HW224908  12.216   1.640  12.451
74357SOL     OW24909   8.568   6.995  14.082
74357SOL    HW124910   8.638   6.941  14.119
74357SOL    HW224911   8.578   6.984  13.987
74358SOL     OW24912   4.550  14.413   3.309
74358SOL    HW124913   4.610  14.340   3.293
74358SOL    HW224914   4.498  14.386   3.384
74359SOL     OW24915   2.332  11.139   5.720
74359SOL    HW124916   2.336  11.089   5.638
74359SOL    HW224917   2.279  11.084   5.779
74360SOL     OW24918   2.864  11.443   0.984
74360SOL    HW124919   2.859  11.477   1.073
74360SOL    HW224920   2.780  11.398   0.971
74361SOL     OW24921   1.440  13.803   9.884
74361SOL    HW124922   1.477  13.807   9.796
74361SOL    HW224923   1.368  13.865   9.883
74362SOL     OW24924   7.231   2.344   7.453
74362SOL    HW124925   7.252   2.279   7.386
74362SOL    HW224926   7.297   2.413   7.441
74363SOL     OW24927   4.783  10.186   6.777
74363SOL    HW124928   4.869  10.215   6.807
74363SOL    HW224929   4.767  10.237   6.698
74364SOL     OW24930  12.570   1.661  12.083
74364SOL    HW124931  12.588   1.715  12.160
74364SOL    HW224932  12.625   1.699  12.014
74365SOL     OW24933  10.967   4.439   5.473
74365SOL    HW124934  11.043   4.497   5.467
74365SOL    HW224935  10.931   4.436   5.384
74366SOL     OW24936  12.935  11.196   0.954
74366SOL    HW124937  12.878  11.140   0.901
74366SOL    HW224938  12.951  11.145   1.034
74367SOL     OW24939   8.281  10.028   7.122
74367SOL    HW124940   8.251  10.101   7.176
74367SOL    HW224941   8.345  10.067   7.062
74368SOL     OW24942  10.524   9.359   8.184
74368SOL    HW124943  10.603   9.335   8.136
74368SOL    HW224944  10.520   9.294   8.255
74369SOL     OW24945   1.794   2.996   3.293
74369SOL    HW124946   1.859   3.066   3.286
74369SOL    HW224947   1.821   2.946   3.370
74370SOL     OW24948  12.013  14.431  14.630
74370SOL    HW124949  12.020  14.451  14.537
74370SOL    HW224950  11.987  14.338  14.633
74371SOL     OW24951   2.351   4.975   8.722
74371SOL    HW124952   2.290   5.016   8.784
74371SOL    HW224953   2.364   5.040   8.653
74372SOL     OW24954  14.697   7.735   8.070
74372SOL    HW124955  14.743   7.786   8.003
74372SOL    HW224956  14.761   7.671   8.099
74373SOL     OW24957  13.190  12.052   5.837
74373SOL    HW124958  13.132  12.040   5.762
74373SOL    HW224959  13.133  12.085   5.907
74374SOL     OW24960   7.488   0.728   6.126
74374SOL    HW124961   7.395   0.737   6.106
74374SOL    HW224962   7.525   0.686   6.048
74375SOL     OW24963   4.382   9.367  14.465
74375SOL    HW124964   4.346   9.446  14.425
74375SOL    HW224965   4.473   9.390  14.485
74376SOL     OW24966   0.706   9.343   8.480
74376SOL    HW124967   0.798   9.336   8.506
74376SOL    HW224968   0.675   9.253   8.478
74377SOL     OW24969  10.588   9.012   5.926
74377SOL    HW124970  10.565   9.070   5.999
74377SOL    HW224971  10.660   9.057   5.881
74378SOL     OW24972   9.282   4.528  14.594
74378SOL    HW124973   9.224   4.576  14.534
74378SOL    HW224974   9.333   4.596  14.638
74379SOL     OW24975  14.318  13.686  12.166
74379SOL    HW124976  14.355  13.636  12.094
74379SOL    HW224977  14.393  13.731  12.205
74380SOL     OW24978  10.762   6.829   1.545
74380SOL    HW124979  10.828   6.810   1.478
74380SOL    HW224980  10.812   6.843   1.625
74381SOL     OW24981   6.365   4.440  13.693
74381SOL    HW124982   6.300   4.492  13.646
74381SOL    HW224983   6.423   4.505  13.734
74382SOL     OW24984   7.834   2.623  12.225
74382SOL    HW124985   7.916   2.613  12.273
74382SOL    HW224986   7.860   2.620  12.133
74383SOL     OW24987   6.207  12.516   6.183
74383SOL    HW124988   6.238  12.433   6.219
74383SOL    HW224989   6.215  12.505   6.088
74384SOL     OW24990   8.987   6.963   7.263
74384SOL    HW124991   8.983   7.002   7.175
74384SOL    HW224992   9.059   6.900   7.258
74385SOL     OW24993   3.183  11.159   4.281
74385SOL    HW124994   3.255  11.100   4.299
74385SOL    HW224995   3.113  11.130   4.339
74386SOL     OW24996   6.903  14.002   1.958
74386SOL    HW124997   6.837  13.994   2.026
74386SOL    HW224998   6.986  14.012   2.005
74387SOL     OW24999   8.547   6.857   9.364
74387SOL    HW125000   8.495   6.881   9.440
74387SOL    HW225001   8.495   6.790   9.319
74388SOL     OW25002   0.519   3.089   6.102
74388SOL    HW125003   0.452   3.133   6.154
74388SOL    HW225004   0.574   3.044   6.166
74389SOL     OW25005   4.596   0.801   6.524
74389SOL    HW125006   4.681   0.844   6.520
74389SOL    HW225007   4.551   0.843   6.597
74390SOL     OW25008   5.325  13.291   7.892
74390SOL    HW125009   5.286  13.203   7.900
74390SOL    HW225010   5.403  13.287   7.947
74391SOL     OW25011   4.619   7.377  12.239
74391SOL    HW125012   4.565   7.299  12.252
74391SOL    HW225013   4.709   7.346  12.248
74392SOL     OW25014   6.443   4.356  12.391
74392SOL    HW125015   6.399   4.366  12.307
74392SOL    HW225016   6.387   4.297  12.441
74393SOL     OW25017   0.455   7.676   7.745
74393SOL    HW125018   0.445   7.739   7.817
74393SOL    HW225019   0.399   7.603   7.769
74394SOL     OW25020   7.304   7.338   4.680
74394SOL    HW125021   7.222   7.387   4.689
74394SOL    HW225022   7.372   7.405   4.678
74395SOL     OW25023   8.288  14.443   9.247
74395SOL    HW125024   8.226  14.443   9.175
74395SOL    HW225025   8.290  14.535   9.276
74396SOL     OW25026  14.661   7.101   0.458
74396SOL    HW125027  14.639   7.141   0.374
74396SOL    HW225028  14.720   7.164   0.500
74397SOL     OW25029  12.384   3.579   4.720
74397SOL    HW125030  12.344   3.656   4.760
74397SOL    HW225031  12.338   3.505   4.759
74398SOL     OW25032   8.361  13.143   1.884
74398SOL    HW125033   8.395  13.077   1.944
74398SOL    HW225034   8.437  13.173   1.835
74399SOL     OW25035  12.690   2.374  10.331
74399SOL    HW125036  12.628   2.303  10.313
74399SOL    HW225037  12.715   2.407  10.245
74400SOL     OW25038   6.230   9.529   9.480
74400SOL    HW125039   6.253   9.617   9.452
74400SOL    HW225040   6.222   9.536   9.576
74401SOL     OW25041   1.763  13.392   0.892
74401SOL    HW125042   1.730  13.330   0.828
74401SOL    HW225043   1.851  13.414   0.861
74402SOL     OW25044   8.902  14.688  13.845
74402SOL    HW125045   8.808  14.671  13.852
74402SOL    HW225046   8.940  14.644  13.921
74403SOL     OW25047   4.183   2.448   1.886
74403SOL    HW125048   4.094   2.478   1.906
74403SOL    HW225049   4.170   2.367   1.838
74404SOL     OW25050   9.851  12.485  11.648
74404SOL    HW125051   9.822  12.482  11.740
74404SOL    HW225052   9.813  12.566  11.614
74405SOL     OW25053   7.041  12.123  14.513
74405SOL    HW125054   6.981  12.140  14.586
74405SOL    HW225055   7.004  12.045  14.470
74406SOL     OW25056  13.723  11.975   9.403
74406SOL    HW125057  13.644  11.985   9.351
74406SOL    HW225058  13.691  11.970   9.493
74407SOL     OW25059   7.221   3.257   9.185
74407SOL    HW125060   7.178   3.313   9.119
74407SOL    HW225061   7.233   3.173   9.141
74408SOL     OW25062  12.833  14.877  11.110
74408SOL    HW125063  12.849   0.081  11.153
74408SOL    HW225064  12.756   0.014  11.055
74409SOL     OW25065   9.281   2.207   2.230
74409SOL    HW125066   9.303   2.300   2.220
74409SOL    HW225067   9.189   2.207   2.254
74410SOL     OW25068   6.646   5.233   1.326
74410SOL    HW125069   6.714   5.288   1.365
74410SOL    HW225070   6.632   5.163   1.390
74411SOL     OW25071  14.165   4.762  10.238
74411SOL    HW125072  14.130   4.689  10.290
74411SOL    HW225073  14.095   4.827  10.238
74412SOL     OW25074   5.914   1.072  14.196
74412SOL    HW125075   5.942   1.035  14.113
74412SOL    HW225076   5.916   1.167  14.182
74413SOL     OW25077   3.378   2.605   3.916
74413SOL    HW125078   3.283   2.612   3.917
74413SOL    HW225079   3.395   2.512   3.900
74414SOL     OW25080   5.579   9.518  14.670
74414SOL    HW125081   5.568   9.598  14.620
74414SOL    HW225082   5.569   9.448  14.605
74415SOL     OW25083   7.679  12.485  13.568
74415SOL    HW125084   7.589  12.501  13.542
74415SOL    HW225085   7.692  12.391  13.554
74416SOL     OW25086  14.271   0.305   1.256
74416SOL    HW125087  14.301   0.395   1.270
74416SOL    HW225088  14.247   0.274   1.344
74417SOL     OW25089   6.859  10.661   5.863
74417SOL    HW125090   6.818  10.579   5.837
74417SOL    HW225091   6.953  10.644   5.856
74418SOL     OW25092   3.132   8.716  10.075
74418SOL    HW125093   3.046   8.735  10.037
74418SOL    HW225094   3.114   8.700  10.168
74419SOL     OW25095  13.768   9.412  10.539
74419SOL    HW125096  13.726   9.487  10.497
74419SOL    HW225097  13.696   9.366  10.583
74420SOL     OW25098  11.313  13.381   8.995
74420SOL    HW125099  11.340  13.466   8.962
74420SOL    HW225100  11.377  13.360   9.063
74421SOL     OW25101  10.247   7.529  11.425
74421SOL    HW125102  10.165   7.489  11.397
74421SOL    HW225103  10.298   7.456  11.461
74422SOL     OW25104   9.333   3.306   9.268
74422SOL    HW125105   9.368   3.328   9.355
74422SOL    HW225106   9.239   3.320   9.276
74423SOL     OW25107   6.502  10.276   5.627
74423SOL    HW125108   6.468  10.283   5.716
74423SOL    HW225109   6.502  10.366   5.594
74424SOL     OW25110   5.469   4.115   9.195
74424SOL    HW125111   5.480   4.184   9.260
74424SOL    HW225112   5.500   4.153   9.113
74425SOL     OW25113   0.097   5.467   7.636
74425SOL    HW125114   0.167   5.416   7.596
74425SOL    HW225115   0.135   5.500   7.718
74426SOL     OW25116   8.230   9.320   9.926
74426SOL    HW125117   8.152   9.270   9.948
74426SOL    HW225118   8.303   9.265   9.952
74427SOL     OW25119   9.863   3.257  13.963
74427SOL    HW125120   9.958   3.256  13.973
74427SOL    HW225121   9.831   3.205  14.037
74428SOL     OW25122   8.771  11.666   8.346
74428SOL    HW125123   8.681  11.664   8.377
74428SOL    HW225124   8.770  11.610   8.268
74429SOL     OW25125   7.180  12.617  13.792
74429SOL    HW125126   7.151  12.531  13.824
74429SOL    HW225127   7.113  12.644  13.730
74430SOL     OW25128  14.472   4.716   3.871
74430SOL    HW125129  14.507   4.804   3.883
74430SOL    HW225130  14.377   4.728   3.865
74431SOL     OW25131   2.458   9.144   8.625
74431SOL    HW125132   2.513   9.088   8.681
74431SOL    HW225133   2.385   9.169   8.680
74432SOL     OW25134  11.578  10.431   5.751
74432SOL    HW125135  11.606  10.345   5.781
74432SOL    HW225136  11.488  10.440   5.784
74433SOL     OW25137   7.526   9.461   1.045
74433SOL    HW125138   7.476   9.462   1.127
74433SOL    HW225139   7.616   9.479   1.072
74434SOL     OW25140  11.344  11.450   8.056
74434SOL    HW125141  11.276  11.385   8.073
74434SOL    HW225142  11.340  11.464   7.961
74435SOL     OW25143   1.381   5.388   1.066
74435SOL    HW125144   1.394   5.357   1.156
74435SOL    HW225145   1.414   5.317   1.011
74436SOL     OW25146  14.780  11.288   7.778
74436SOL    HW125147  14.729  11.367   7.764
74436SOL    HW225148  14.800  11.288   7.872
74437SOL     OW25149   4.172   3.810   7.273
74437SOL    HW125150   4.136   3.722   7.284
74437SOL    HW225151   4.263   3.796   7.248
74438SOL     OW25152   0.511   1.420   0.125
74438SOL    HW125153   0.422   1.398   0.097
74438SOL    HW225154   0.568   1.365   0.071
74439SOL     OW25155  13.444  11.284   8.686
74439SOL    HW125156  13.413  11.356   8.631
74439SOL    HW225157  13.447  11.321   8.774
74440SOL     OW25158   9.549   7.011   9.780
74440SOL    HW125159   9.551   7.075   9.851
74440SOL    HW225160   9.595   7.053   9.707
74441SOL     OW25161   2.020  11.060   7.726
74441SOL    HW125162   1.927  11.045   7.742
74441SOL    HW225163   2.063  11.046   7.810
74442SOL     OW25164   3.090  14.254   5.366
74442SOL    HW125165   3.164  14.198   5.343
74442SOL    HW225166   3.048  14.275   5.283
74443SOL     OW25167  11.152  11.741   2.638
74443SOL    HW125168  11.188  11.726   2.725
74443SOL    HW225169  11.212  11.695   2.579
74444SOL     OW25170   3.898   2.754  14.253
74444SOL    HW125171   3.878   2.696  14.326
74444SOL    HW225172   3.931   2.834  14.294
74445SOL     OW25173   3.974   2.611  10.103
74445SOL    HW125174   3.931   2.526  10.098
74445SOL    HW225175   4.005   2.628  10.014
74446SOL     OW25176  10.127   5.545   7.145
74446SOL    HW125177  10.033   5.553   7.166
74446SOL    HW225178  10.170   5.598   7.212
74447SOL     OW25179   0.478   8.945   6.715
74447SOL    HW125180   0.454   8.913   6.628
74447SOL    HW225181   0.528   9.025   6.697
74448SOL     OW25182  14.077   9.048   7.171
74448SOL    HW125183  14.020   9.118   7.140
74448SOL    HW225184  14.069   9.051   7.266
74449SOL     OW25185  14.784  11.389   6.212
74449SOL    HW125186  14.871  11.381   6.253
74449SOL    HW225187  14.796  11.453   6.142
74450SOL     OW25188   2.645  11.804   6.946
74450SOL    HW125189   2.627  11.852   7.027
74450SOL    HW225190   2.734  11.771   6.957
74451SOL     OW25191  11.702   3.881   5.455
74451SOL    HW125192  11.746   3.910   5.535
74451SOL    HW225193  11.773   3.871   5.391
74452SOL     OW25194  14.158  11.032   7.663
74452SOL    HW125195  14.176  11.103   7.602
74452SOL    HW225196  14.235  11.031   7.721
74453SOL     OW25197   4.241   5.165  12.294
74453SOL    HW125198   4.311   5.124  12.344
74453SOL    HW225199   4.169   5.176  12.356
74454SOL     OW25200  14.044  12.544   8.517
74454SOL    HW125201  13.977  12.503   8.571
74454SOL    HW225202  14.107  12.580   8.579
74455SOL     OW25203   4.776  12.489  10.028
74455SOL    HW125204   4.715  12.557   9.999
74455SOL    HW225205   4.719  12.416  10.054
74456SOL     OW25206  12.292  12.456   7.048
74456SOL    HW125207  12.255  12.384   7.099
74456SOL    HW225208  12.387  12.449   7.061
74457SOL     OW25209  11.205   8.851  11.129
74457SOL    HW125210  11.145   8.926  11.132
74457SOL    HW225211  11.185   8.802  11.209
74458SOL     OW25212   2.915   9.110  11.994
74458SOL    HW125213   2.819   9.105  11.992
74458SOL    HW225214   2.934   9.198  12.028
74459SOL     OW25215  10.082  14.759  11.225
74459SOL    HW125216  10.172  14.731  11.208
74459SOL    HW225217  10.046  14.690  11.280
74460SOL     OW25218  13.865   8.610   7.220
74460SOL    HW125219  13.957   8.583   7.225
74460SOL    HW225220  13.821   8.535   7.181
74461SOL     OW25221  10.085  14.798   4.772
74461SOL    HW125222  10.079  14.712   4.813
74461SOL    HW225223  10.044  14.786   4.686
74462SOL     OW25224  11.735   6.391  12.880
74462SOL    HW125225  11.813   6.351  12.840
74462SOL    HW225226  11.662   6.352  12.832
74463SOL     OW25227  14.871  11.513  11.936
74463SOL    HW125228  14.803  11.581  11.939
74463SOL    HW225229  14.861  11.466  12.019
74464SOL     OW25230   5.628  14.829   4.018
74464SOL    HW125231   5.631  14.867   4.106
74464SOL    HW225232   5.590  14.742   4.031
74465SOL     OW25233   5.070   7.216  12.428
74465SOL    HW125234   5.055   7.206  12.522
74465SOL    HW225235   4.983   7.209  12.388
74466SOL     OW25236   0.135   8.440  14.236
74466SOL    HW125237   0.138   8.500  14.161
74466SOL    HW225238   0.203   8.375  14.217
74467SOL     OW25239   7.804  10.762   0.197
74467SOL    HW125240   7.863  10.816   0.145
74467SOL    HW225241   7.736  10.734   0.135
74468SOL     OW25242  11.409  14.820   4.918
74468SOL    HW125243  11.325  14.811   4.962
74468SOL    HW225244  11.469  14.848   4.986
74469SOL     OW25245   8.178   4.677  12.218
74469SOL    HW125246   8.200   4.585  12.207
74469SOL    HW225247   8.115   4.678  12.290
74470SOL     OW25248  12.943   8.735   5.475
74470SOL    HW125249  12.960   8.826   5.449
74470SOL    HW225250  12.870   8.708   5.419
74471SOL     OW25251   3.403  13.157  10.068
74471SOL    HW125252   3.345  13.218  10.113
74471SOL    HW225253   3.472  13.136  10.132
74472SOL     OW25254   5.277  10.706   9.309
74472SOL    HW125255   5.194  10.731   9.348
74472SOL    HW225256   5.284  10.760   9.230
74473SOL     OW25257  10.685   2.696   2.607
74473SOL    HW125258  10.634   2.629   2.653
74473SOL    HW225259  10.668   2.681   2.515
74474SOL     OW25260   5.289  14.433   9.426
74474SOL    HW125261   5.383  14.443   9.441
74474SOL    HW225262   5.279  14.437   9.331
74475SOL     OW25263  12.665   1.280   8.716
74475SOL    HW125264  12.588   1.338   8.720
74475SOL    HW225265  12.653   1.231   8.635
74476SOL     OW25266  11.722  14.371   2.349
74476SOL    HW125267  11.742  14.352   2.441
74476SOL    HW225268  11.771  14.304   2.300
74477SOL     OW25269   0.314   7.287   8.839
74477SOL    HW125270   0.220   7.291   8.822
74477SOL    HW225271   0.328   7.349   8.910
74478SOL     OW25272   1.311  11.040  13.270
74478SOL    HW125273   1.275  11.086  13.193
74478SOL    HW225274   1.250  11.061  13.340
74479SOL     OW25275   1.591   4.867   5.625
74479SOL    HW125276   1.556   4.924   5.694
74479SOL    HW225277   1.686   4.877   5.630
74480SOL     OW25278   0.050  13.993   3.094
74480SOL    HW125279   0.008  13.908   3.105
74480SOL    HW225280   0.006  14.032   3.019
74481SOL     OW25281   6.476   2.358   2.922
74481SOL    HW125282   6.423   2.414   2.866
74481SOL    HW225283   6.414   2.298   2.962
74482SOL     OW25284  12.287   3.159   7.608
74482SOL    HW125285  12.321   3.210   7.681
74482SOL    HW225286  12.340   3.079   7.608
74483SOL     OW25287  11.190   6.923   8.363
74483SOL    HW125288  11.240   6.846   8.390
74483SOL    HW225289  11.242   6.963   8.293
74484SOL     OW25290   2.999   3.709   6.457
74484SOL    HW125291   3.057   3.732   6.529
74484SOL    HW225292   2.944   3.639   6.491
74485SOL     OW25293   0.858   3.170   0.195
74485SOL    HW125294   0.897   3.082   0.196
74485SOL    HW225295   0.837   3.187   0.287
74486SOL     OW25296  14.535   2.045   1.034
74486SOL    HW125297  14.618   2.019   1.074
74486SOL    HW225298  14.470   1.986   1.072
74487SOL     OW25299   7.455   2.117   1.169
74487SOL    HW125300   7.434   2.160   1.252
74487SOL    HW225301   7.464   2.189   1.106
74488SOL     OW25302   4.413  10.567   3.641
74488SOL    HW125303   4.481  10.521   3.690
74488SOL    HW225304   4.382  10.635   3.701
74489SOL     OW25305   7.470   4.300   2.139
74489SOL    HW125306   7.438   4.339   2.220
74489SOL    HW225307   7.562   4.282   2.155
74490SOL     OW25308   6.954   6.591   7.256
74490SOL    HW125309   6.950   6.511   7.204
74490SOL    HW225310   7.015   6.647   7.209
74491SOL     OW25311  12.152   2.007  10.703
74491SOL    HW125312  12.104   1.974  10.627
74491SOL    HW225313  12.099   1.982  10.778
74492SOL     OW25314   2.417   8.269   2.814
74492SOL    HW125315   2.404   8.362   2.795
74492SOL    HW225316   2.401   8.261   2.908
74493SOL     OW25317   8.444  10.458  14.044
74493SOL    HW125318   8.496  10.507  14.108
74493SOL    HW225319   8.508  10.408  13.994
74494SOL     OW25320   9.617   2.509   7.693
74494SOL    HW125321   9.680   2.561   7.644
74494SOL    HW225322   9.585   2.568   7.761
74495SOL     OW25323   7.933   7.002   8.178
74495SOL    HW125324   7.861   6.999   8.241
74495SOL    HW225325   7.970   6.913   8.180
74496SOL     OW25326  14.155   4.215   9.834
74496SOL    HW125327  14.107   4.165   9.768
74496SOL    HW225328  14.088   4.270   9.875
74497SOL     OW25329   9.317  13.971   3.045
74497SOL    HW125330   9.304  14.058   3.082
74497SOL    HW225331   9.356  13.988   2.959
74498SOL     OW25332   1.618   1.174   7.957
74498SOL    HW125333   1.669   1.250   7.927
74498SOL    HW225334   1.655   1.153   8.043
74499SOL     OW25335   1.240   5.601   4.075
74499SOL    HW125336   1.199   5.517   4.052
74499SOL    HW225337   1.181   5.667   4.039
74500SOL     OW25338  10.214   3.607  12.740
74500SOL    HW125339  10.182   3.667  12.808
74500SOL    HW225340  10.217   3.522  12.783
74501SOL     OW25341   5.816  13.870  11.890
74501SOL    HW125342   5.880  13.806  11.922
74501SOL    HW225343   5.817  13.860  11.795
74502SOL     OW25344   6.888   2.427   0.910
74502SOL    HW125345   6.927   2.402   0.994
74502SOL    HW225346   6.868   2.344   0.867
74503SOL     OW25347   0.086  11.559   3.888
74503SOL    HW125348   0.046  11.525   3.808
74503SOL    HW225349   0.030  11.632   3.914
74504SOL     OW25350  14.409   5.063   6.863
74504SOL    HW125351  14.377   5.153   6.857
74504SOL    HW225352  14.382   5.022   6.781
74505SOL     OW25353   5.987   7.749   7.648
74505SOL    HW125354   5.949   7.671   7.608
74505SOL    HW225355   5.912   7.802   7.675
74506SOL     OW25356   8.537   2.330   5.399
74506SOL    HW125357   8.632   2.336   5.398
74506SOL    HW225358   8.511   2.379   5.477
74507SOL     OW25359   3.862   0.202   5.022
74507SOL    HW125360   3.859   0.209   5.117
74507SOL    HW225361   3.916   0.124   5.006
74508SOL     OW25362  10.863  12.721   3.984
74508SOL    HW125363  10.942  12.775   3.992
74508SOL    HW225364  10.822  12.725   4.071
74509SOL     OW25365   1.571   2.453   4.813
74509SOL    HW125366   1.571   2.374   4.760
74509SOL    HW225367   1.599   2.424   4.900
74510SOL     OW25368   1.771   9.383  11.894
74510SOL    HW125369   1.722   9.307  11.864
74510SOL    HW225370   1.798   9.428  11.814
74511SOL     OW25371  12.024   1.111   8.141
74511SOL    HW125372  11.996   1.203   8.136
74511SOL    HW225373  11.943   1.063   8.162
74512SOL     OW25374   8.661  11.219  11.356
74512SOL    HW125375   8.744  11.172  11.347
74512SOL    HW225376   8.681  11.309  11.332
74513SOL     OW25377   0.058   5.316  11.899
74513SOL    HW125378  14.850   5.314  11.861
74513SOL    HW225379   0.055   5.388  11.963
74514SOL     OW25380  11.322   3.417   9.068
74514SOL    HW125381  11.353   3.328   9.085
74514SOL    HW225382  11.230   3.405   9.045
74515SOL     OW25383  13.586   5.639   1.510
74515SOL    HW125384  13.566   5.725   1.475
74515SOL    HW225385  13.534   5.578   1.458
74516SOL     OW25386  10.690   3.472  14.092
74516SOL    HW125387  10.684   3.462  14.187
74516SOL    HW225388  10.689   3.383  14.058
74517SOL     OW25389   3.867   7.132   5.880
74517SOL    HW125390   3.961   7.116   5.887
74517SOL    HW225391   3.841   7.086   5.800
74518SOL     OW25392   6.806   0.964   2.652
74518SOL    HW125393   6.885   0.917   2.626
74518SOL    HW225394   6.815   0.976   2.746
74519SOL     OW25395   1.719   1.704   8.447
74519SOL    HW125396   1.708   1.722   8.540
74519SOL    HW225397   1.663   1.628   8.430
74520SOL     OW25398  11.788   7.269  14.319
74520SOL    HW125399  11.794   7.188  14.268
74520SOL    HW225400  11.727   7.324  14.269
74521SOL     OW25401   8.107   4.844   7.009
74521SOL    HW125402   8.157   4.765   6.991
74521SOL    HW225403   8.096   4.845   7.104
74522SOL     OW25404  10.022   0.963   6.777
74522SOL    HW125405   9.930   0.969   6.803
74522SOL    HW225406  10.043   1.051   6.744
74523SOL     OW25407   6.619   2.686   1.434
74523SOL    HW125408   6.696   2.659   1.384
74523SOL    HW225409   6.546   2.679   1.372
74524SOL     OW25410   1.689  12.523   3.761
74524SOL    HW125411   1.750  12.596   3.748
74524SOL    HW225412   1.740  12.456   3.806
74525SOL     OW25413   7.704  10.414   4.695
74525SOL    HW125414   7.618  10.452   4.712
74525SOL    HW225415   7.698  10.382   4.605
74526SOL     OW25416  10.810  14.288   5.681
74526SOL    HW125417  10.886  14.297   5.624
74526SOL    HW225418  10.816  14.199   5.716
74527SOL     OW25419   9.444   1.493  11.897
74527SOL    HW125420   9.418   1.425  11.835
74527SOL    HW225421   9.538   1.505  11.882
74528SOL     OW25422   1.183   2.373   7.800
74528SOL    HW125423   1.212   2.459   7.770
74528SOL    HW225424   1.139   2.391   7.883
74529SOL     OW25425  14.226   7.913  11.057
74529SOL    HW125426  14.258   7.943  10.972
74529SOL    HW225427  14.199   7.823  11.042
74530SOL     OW25428  14.541   9.795   8.476
74530SOL    HW125429  14.547   9.780   8.381
74530SOL    HW225430  14.551   9.708   8.515
74531SOL     OW25431   7.943  13.836   3.418
74531SOL    HW125432   7.962  13.751   3.457
74531SOL    HW225433   7.887  13.817   3.343
74532SOL     OW25434   8.826   2.731   3.131
74532SOL    HW125435   8.911   2.762   3.098
74532SOL    HW225436   8.774   2.810   3.140
74533SOL     OW25437   9.753   6.159   0.119
74533SOL    HW125438   9.773   6.229   0.180
74533SOL    HW225439   9.669   6.183   0.081
74534SOL     OW25440   2.700  14.722   9.092
74534SOL    HW125441   2.738  14.703   9.006
74534SOL    HW225442   2.761  14.783   9.132
74535SOL     OW25443   0.521   7.494   9.604
74535SOL    HW125444   0.523   7.527   9.693
74535SOL    HW225445   0.477   7.409   9.610
74536SOL     OW25446   2.996   0.895   1.365
74536SOL    HW125447   2.933   0.840   1.410
74536SOL    HW225448   2.943   0.956   1.315
74537SOL     OW25449   0.827   4.511   1.982
74537SOL    HW125450   0.799   4.443   2.044
74537SOL    HW225451   0.922   4.502   1.978
74538SOL     OW25452   6.484   6.519   5.791
74538SOL    HW125453   6.391   6.502   5.805
74538SOL    HW225454   6.488   6.613   5.772
74539SOL     OW25455   7.859  10.231   5.613
74539SOL    HW125456   7.830  10.251   5.702
74539SOL    HW225457   7.947  10.267   5.607
74540SOL     OW25458  13.658   9.790   9.577
74540SOL    HW125459  13.650   9.785   9.482
74540SOL    HW225460  13.568   9.801   9.608
74541SOL     OW25461  10.190  10.772   2.589
74541SOL    HW125462  10.201  10.775   2.684
74541SOL    HW225463  10.198  10.680   2.566
74542SOL     OW25464  12.712   4.084   0.738
74542SOL    HW125465  12.789   4.094   0.681
74542SOL    HW225466  12.719   4.157   0.799
74543SOL     OW25467   3.778   8.470   1.636
74543SOL    HW125468   3.750   8.554   1.673
74543SOL    HW225469   3.847   8.493   1.574
74544SOL     OW25470   2.892   0.620   1.928
74544SOL    HW125471   2.881   0.630   2.023
74544SOL    HW225472   2.866   0.705   1.893
74545SOL     OW25473   5.386   3.660   6.848
74545SOL    HW125474   5.406   3.656   6.755
74545SOL    HW225475   5.468   3.686   6.890
74546SOL     OW25476   2.432  13.306  10.551
74546SOL    HW125477   2.498  13.281  10.486
74546SOL    HW225478   2.351  13.314  10.502
74547SOL     OW25479  14.477   5.466   4.491
74547SOL    HW125480  14.391   5.437   4.521
74547SOL    HW225481  14.490   5.419   4.408
74548SOL     OW25482   1.813  10.279   6.196
74548SOL    HW125483   1.751  10.333   6.245
74548SOL    HW225484   1.763  10.246   6.122
74549SOL     OW25485   5.217   1.819  14.585
74549SOL    HW125486   5.177   1.745  14.631
74549SOL    HW225487   5.160   1.835  14.511
74550SOL     OW25488   6.876  13.811   6.104
74550SOL    HW125489   6.888  13.855   6.188
74550SOL    HW225490   6.908  13.873   6.039
74551SOL     OW25491  12.090   4.205   6.285
74551SOL    HW125492  12.033   4.278   6.259
74551SOL    HW225493  12.052   4.129   6.242
74552SOL     OW25494  12.455   1.007   2.191
74552SOL    HW125495  12.377   1.011   2.246
74552SOL    HW225496  12.460   1.094   2.151
74553SOL     OW25497   4.932   4.896   5.228
74553SOL    HW125498   4.927   4.815   5.177
74553SOL    HW225499   4.908   4.965   5.167
74554SOL     OW25500   3.999  11.714   7.297
74554SOL    HW125501   4.007  11.726   7.392
74554SOL    HW225502   3.940  11.784   7.269
74555SOL     OW25503  13.222   9.941  11.610
74555SOL    HW125504  13.312   9.973  11.615
74555SOL    HW225505  13.197   9.952  11.519
74556SOL     OW25506  10.754   6.650   4.114
74556SOL    HW125507  10.776   6.732   4.070
74556SOL    HW225508  10.803   6.653   4.195
74557SOL     OW25509  10.409   2.248  14.517
74557SOL    HW125510  10.334   2.297  14.551
74557SOL    HW225511  10.471   2.245  14.590
74558SOL     OW25512   6.224   8.888  10.972
74558SOL    HW125513   6.309   8.913  10.937
74558SOL    HW225514   6.201   8.959  11.031
74559SOL     OW25515   7.154   9.619   7.764
74559SOL    HW125516   7.129   9.542   7.714
74559SOL    HW225517   7.193   9.678   7.700
74560SOL     OW25518   3.250  13.151  10.938
74560SOL    HW125519   3.334  13.136  10.981
74560SOL    HW225520   3.200  13.072  10.956
74561SOL     OW25521   4.941  10.525   6.378
74561SOL    HW125522   5.007  10.552   6.441
74561SOL    HW225523   4.907  10.442   6.413
74562SOL     OW25524   4.208   6.400  10.881
74562SOL    HW125525   4.156   6.476  10.854
74562SOL    HW225526   4.287   6.436  10.919
74563SOL     OW25527   5.391  12.479   4.139
74563SOL    HW125528   5.453  12.552   4.133
74563SOL    HW225529   5.330  12.495   4.067
74564SOL     OW25530   0.181   6.681  10.240
74564SOL    HW125531   0.261   6.629  10.234
74564SOL    HW225532   0.116   6.630  10.191
74565SOL     OW25533   1.453   0.091   7.870
74565SOL    HW125534   1.436   0.143   7.948
74565SOL    HW225535   1.524   0.138   7.826
74566SOL     OW25536  12.695   8.319   4.275
74566SOL    HW125537  12.646   8.238   4.263
74566SOL    HW225538  12.722   8.345   4.187
74567SOL     OW25539   9.138  11.946  10.766
74567SOL    HW125540   9.043  11.948  10.771
74567SOL    HW225541   9.158  11.963  10.674
74568SOL     OW25542  10.385   3.476   7.243
74568SOL    HW125543  10.377   3.566   7.274
74568SOL    HW225544  10.309   3.430   7.280
74569SOL     OW25545   3.442   1.933  11.577
74569SOL    HW125546   3.394   1.867  11.627
74569SOL    HW225547   3.514   1.960  11.636
74570SOL     OW25548   8.210  13.448  11.326
74570SOL    HW125549   8.287  13.491  11.363
74570SOL    HW225550   8.140  13.464  11.389
74571SOL     OW25551   4.098  10.197  14.238
74571SOL    HW125552   4.063  10.229  14.321
74571SOL    HW225553   4.098  10.273  14.181
74572SOL     OW25554   3.254   6.924  14.813
74572SOL    HW125555   3.172   6.879  14.836
74572SOL    HW225556   3.284   6.880  14.734
74573SOL     OW25557   6.833  12.239   4.256
74573SOL    HW125558   6.872  12.158   4.222
74573SOL    HW225559   6.888  12.262   4.331
74574SOL     OW25560   6.547   7.881  13.804
74574SOL    HW125561   6.525   7.902  13.894
74574SOL    HW225562   6.620   7.939  13.783
74575SOL     OW25563  11.147   0.679   9.722
74575SOL    HW125564  11.061   0.672   9.765
74575SOL    HW225565  11.127   0.673   9.629
74576SOL     OW25566   8.971   5.068   8.122
74576SOL    HW125567   9.066   5.070   8.113
74576SOL    HW225568   8.946   4.981   8.090
74577SOL     OW25569  13.626  13.418   0.528
74577SOL    HW125570  13.684  13.403   0.453
74577SOL    HW225571  13.647  13.346   0.588
74578SOL     OW25572   2.738   9.424  14.218
74578SOL    HW125573   2.795   9.365  14.170
74578SOL    HW225574   2.797   9.476  14.272
74579SOL     OW25575  12.757   3.674   2.155
74579SOL    HW125576  12.676   3.724   2.170
74579SOL    HW225577  12.809   3.730   2.098
74580SOL     OW25578  13.974   5.886   6.728
74580SOL    HW125579  13.905   5.939   6.769
74580SOL    HW225580  13.972   5.913   6.636
74581SOL     OW25581   8.253  10.212   0.681
74581SOL    HW125582   8.338  10.187   0.717
74581SOL    HW225583   8.271  10.234   0.589
74582SOL     OW25584   0.482   8.023   6.725
74582SOL    HW125585   0.502   7.932   6.703
74582SOL    HW225586   0.386   8.027   6.724
74583SOL     OW25587   8.583   8.106   3.055
74583SOL    HW125588   8.508   8.053   3.082
74583SOL    HW225589   8.608   8.155   3.133
74584SOL     OW25590   1.450  12.596   9.500
74584SOL    HW125591   1.471  12.688   9.484
74584SOL    HW225592   1.532  12.557   9.530
74585SOL     OW25593  12.597   2.625   3.744
74585SOL    HW125594  12.687   2.597   3.757
74585SOL    HW225595  12.582   2.617   3.650
74586SOL     OW25596   5.130   1.704   4.474
74586SOL    HW125597   5.079   1.654   4.410
74586SOL    HW225598   5.066   1.729   4.541
74587SOL     OW25599   4.096   1.145   1.333
74587SOL    HW125600   4.097   1.144   1.238
74587SOL    HW225601   4.079   1.054   1.358
74588SOL     OW25602   6.142   6.166   7.178
74588SOL    HW125603   6.171   6.075   7.184
74588SOL    HW225604   6.066   6.163   7.119
74589SOL     OW25605  11.930   2.368  14.006
74589SOL    HW125606  11.917   2.303  14.075
74589SOL    HW225607  11.844   2.409  13.995
74590SOL     OW25608   5.698   8.906  12.724
74590SOL    HW125609   5.689   8.824  12.675
74590SOL    HW225610   5.659   8.887  12.809
74591SOL     OW25611   6.849   4.815   6.511
74591SOL    HW125612   6.857   4.807   6.416
74591SOL    HW225613   6.914   4.753   6.545
74592SOL     OW25614   3.917   5.609   1.363
74592SOL    HW125615   3.860   5.678   1.331
74592SOL    HW225616   4.005   5.645   1.355
74593SOL     OW25617  14.448  10.950  11.958
74593SOL    HW125618  14.469  10.857  11.961
74593SOL    HW225619  14.507  10.986  11.892
74594SOL     OW25620  11.241   3.914  12.814
74594SOL    HW125621  11.285   3.847  12.762
74594SOL    HW225622  11.148   3.898  12.801
74595SOL     OW25623   0.229   2.872   9.479
74595SOL    HW125624   0.170   2.902   9.410
74595SOL    HW225625   0.219   2.938   9.549
74596SOL     OW25626   3.054   5.362  12.926
74596SOL    HW125627   3.124   5.349  12.863
74596SOL    HW225628   2.993   5.422  12.882
74597SOL     OW25629  13.014   8.653   3.063
74597SOL    HW125630  12.988   8.564   3.089
74597SOL    HW225631  13.040   8.643   2.971
74598SOL     OW25632   9.942   8.313   0.427
74598SOL    HW125633   9.926   8.224   0.458
74598SOL    HW225634   9.857   8.357   0.437
74599SOL     OW25635  11.724   4.360   7.515
74599SOL    HW125636  11.814   4.360   7.481
74599SOL    HW225637  11.678   4.423   7.460
74600SOL     OW25638  12.766  14.682   9.163
74600SOL    HW125639  12.837  14.663   9.102
74600SOL    HW225640  12.736  14.770   9.139
74601SOL     OW25641   9.508   8.551   5.080
74601SOL    HW125642   9.440   8.544   5.147
74601SOL    HW225643   9.470   8.509   5.003
74602SOL     OW25644   3.854  14.501   9.948
74602SOL    HW125645   3.819  14.444  10.016
74602SOL    HW225646   3.945  14.516   9.974
74603SOL     OW25647   2.271  14.105  11.960
74603SOL    HW125648   2.231  14.069  12.040
74603SOL    HW225649   2.289  14.028  11.906
74604SOL     OW25650   0.748  10.486   7.734
74604SOL    HW125651   0.694  10.560   7.760
74604SOL    HW225652   0.688  10.412   7.730
74605SOL     OW25653   7.328  12.988   1.846
74605SOL    HW125654   7.359  12.948   1.765
74605SOL    HW225655   7.337  12.919   1.912
74606SOL     OW25656  11.326  13.047   9.811
74606SOL    HW125657  11.400  13.081   9.861
74606SOL    HW225658  11.249  13.077   9.858
74607SOL     OW25659   3.962   8.276   9.266
74607SOL    HW125660   3.884   8.222   9.276
74607SOL    HW225661   3.975   8.283   9.172
74608SOL     OW25662  12.089   8.523  13.028
74608SOL    HW125663  12.084   8.560  12.940
74608SOL    HW225664  12.101   8.600  13.084
74609SOL     OW25665   1.329  10.697  12.970
74609SOL    HW125666   1.368  10.666  13.052
74609SOL    HW225667   1.239  10.720  12.993
74610SOL     OW25668   9.036  14.129  10.454
74610SOL    HW125669   8.974  14.137  10.382
74610SOL    HW225670   9.017  14.203  10.511
74611SOL     OW25671   5.997   1.152   7.525
74611SOL    HW125672   6.060   1.155   7.452
74611SOL    HW225673   6.014   1.232   7.574
74612SOL     OW25674   2.095   7.638   3.159
74612SOL    HW125675   2.013   7.592   3.140
74612SOL    HW225676   2.068   7.718   3.205
74613SOL     OW25677   0.081   3.020  11.703
74613SOL    HW125678   0.156   2.960  11.698
74613SOL    HW225679   0.010   2.974  11.659
74614SOL     OW25680   8.024   4.010  10.496
74614SOL    HW125681   7.992   3.984  10.410
74614SOL    HW225682   7.963   3.969  10.557
74615SOL     OW25683  13.971   2.832  12.700
74615SOL    HW125684  13.960   2.771  12.772
74615SOL    HW225685  13.907   2.901  12.717
74616SOL     OW25686  10.508   7.399  13.215
74616SOL    HW125687  10.496   7.438  13.128
74616SOL    HW225688  10.538   7.471  13.270
74617SOL     OW25689   3.242  13.094  14.026
74617SOL    HW125690   3.225  13.128  13.938
74617SOL    HW225691   3.335  13.108  14.040
74618SOL     OW25692   7.731   5.441   5.623
74618SOL    HW125693   7.733   5.382   5.547
74618SOL    HW225694   7.728   5.529   5.585
74619SOL     OW25695   2.074   1.920   5.887
74619SOL    HW125696   2.169   1.914   5.899
74619SOL    HW225697   2.063   1.941   5.794
74620SOL     OW25698   7.303   0.468  12.219
74620SOL    HW125699   7.360   0.392  12.208
74620SOL    HW225700   7.286   0.472  12.313
74621SOL     OW25701   4.067  14.172  14.106
74621SOL    HW125702   4.071  14.266  14.124
74621SOL    HW225703   4.126  14.160  14.031
74622SOL     OW25704  11.315  12.491  10.731
74622SOL    HW125705  11.233  12.505  10.683
74622SOL    HW225706  11.306  12.544  10.810
74623SOL     OW25707   7.698   4.023   2.205
74623SOL    HW125708   7.769   3.990   2.260
74623SOL    HW225709   7.712   4.118   2.202
74624SOL     OW25710   7.156   7.658  10.992
74624SOL    HW125711   7.136   7.655  10.899
74624SOL    HW225712   7.113   7.581  11.028
74625SOL     OW25713   3.624   0.466   6.275
74625SOL    HW125714   3.533   0.450   6.250
74625SOL    HW225715   3.657   0.525   6.207
74626SOL     OW25716   8.827  11.315   9.425
74626SOL    HW125717   8.791  11.364   9.351
74626SOL    HW225718   8.759  11.252   9.447
74627SOL     OW25719   4.812   5.189   3.818
74627SOL    HW125720   4.808   5.265   3.877
74627SOL    HW225721   4.725   5.150   3.824
74628SOL     OW25722   7.681   3.619   3.223
74628SOL    HW125723   7.756   3.646   3.276
74628SOL    HW225724   7.645   3.700   3.188
74629SOL     OW25725   4.710   8.439  11.601
74629SOL    HW125726   4.751   8.492  11.532
74629SOL    HW225727   4.783   8.409  11.655
74630SOL     OW25728  14.517  14.065   1.476
74630SOL    HW125729  14.524  14.143   1.531
74630SOL    HW225730  14.581  14.004   1.514
74631SOL     OW25731   7.602   7.356   4.270
74631SOL    HW125732   7.562   7.423   4.326
74631SOL    HW225733   7.638   7.406   4.196
74632SOL     OW25734  12.262   5.390   4.510
74632SOL    HW125735  12.310   5.351   4.437
74632SOL    HW225736  12.210   5.459   4.470
74633SOL     OW25737   8.037   2.992  13.472
74633SOL    HW125738   8.008   3.059  13.410
74633SOL    HW225739   7.969   2.992  13.540
74634SOL     OW25740   8.694  10.466   7.926
74634SOL    HW125741   8.655  10.513   8.000
74634SOL    HW225742   8.629  10.472   7.857
74635SOL     OW25743   9.217  13.105   5.097
74635SOL    HW125744   9.241  13.020   5.133
74635SOL    HW225745   9.124  13.096   5.076
74636SOL     OW25746   7.883   5.528   0.211
74636SOL    HW125747   7.821   5.455   0.212
74636SOL    HW225748   7.854   5.585   0.282
74637SOL     OW25749   6.204  13.636   7.187
74637SOL    HW125750   6.234  13.724   7.166
74637SOL    HW225751   6.234  13.620   7.276
74638SOL     OW25752  14.269   6.804   7.947
74638SOL    HW125753  14.354   6.799   7.904
74638SOL    HW225754  14.218   6.733   7.908
74639SOL     OW25755  13.110   8.794  10.244
74639SOL    HW125756  13.148   8.708  10.225
74639SOL    HW225757  13.049   8.809  10.172
74640SOL     OW25758  12.632   4.023  12.803
74640SOL    HW125759  12.561   4.002  12.864
74640SOL    HW225760  12.698   4.065  12.857
74641SOL     OW25761   9.608  12.320   1.968
74641SOL    HW125762   9.560  12.240   1.990
74641SOL    HW225763   9.695  12.289   1.941
74642SOL     OW25764  12.835   8.980   7.201
74642SOL    HW125765  12.741   8.967   7.216
74642SOL    HW225766  12.849   9.074   7.219
74643SOL     OW25767   1.718   1.124   0.705
74643SOL    HW125768   1.698   1.031   0.697
74643SOL    HW225769   1.715   1.157   0.616
74644SOL     OW25770   0.234  11.413   3.442
74644SOL    HW125771   0.329  11.398   3.437
74644SOL    HW225772   0.207  11.424   3.351
74645SOL     OW25773   0.593   9.360  10.499
74645SOL    HW125774   0.626   9.301  10.431
74645SOL    HW225775   0.552   9.301  10.563
74646SOL     OW25776  11.615  10.141   3.515
74646SOL    HW125777  11.533  10.168   3.557
74646SOL    HW225778  11.594  10.057   3.475
74647SOL     OW25779   4.285  14.295  11.689
74647SOL    HW125780   4.289  14.274  11.782
74647SOL    HW225781   4.296  14.390  11.686
74648SOL     OW25782   3.145   4.466   2.430
74648SOL    HW125783   3.096   4.548   2.424
74648SOL    HW225784   3.080   4.397   2.419
74649SOL     OW25785   6.891   4.836  10.848
74649SOL    HW125786   6.952   4.895  10.893
74649SOL    HW225787   6.824   4.894  10.811
74650SOL     OW25788   5.846   8.155   1.340
74650SOL    HW125789   5.851   8.151   1.245
74650SOL    HW225790   5.753   8.165   1.359
74651SOL     OW25791   1.869  13.334  11.855
74651SOL    HW125792   1.785  13.346  11.899
74651SOL    HW225793   1.897  13.246  11.880
74652SOL     OW25794   2.266  11.974   3.365
74652SOL    HW125795   2.345  12.019   3.338
74652SOL    HW225796   2.249  12.006   3.454
74653SOL     OW25797   9.484   4.452  13.333
74653SOL    HW125798   9.531   4.461  13.250
74653SOL    HW225799   9.468   4.542  13.361
74654SOL     OW25800  11.815  14.231   3.302
74654SOL    HW125801  11.788  14.322   3.294
74654SOL    HW225802  11.740  14.187   3.341
74655SOL     OW25803  13.383  12.653  14.800
74655SOL    HW125804  13.467  12.610  14.815
74655SOL    HW225805  13.320  12.581  14.792
74656SOL     OW25806   3.594  12.498  10.936
74656SOL    HW125807   3.555  12.580  10.964
74656SOL    HW225808   3.587  12.440  11.012
74657SOL     OW25809   2.690  11.939   9.993
74657SOL    HW125810   2.698  12.023   9.948
74657SOL    HW225811   2.596  11.929  10.009
74658SOL     OW25812   6.410  14.546  12.309
74658SOL    HW125813   6.368  14.618  12.354
74658SOL    HW225814   6.419  14.576  12.218
74659SOL     OW25815  12.002   8.509  12.152
74659SOL    HW125816  11.983   8.587  12.099
74659SOL    HW225817  12.095   8.492  12.137
74660SOL     OW25818   5.719  12.233  14.123
74660SOL    HW125819   5.794  12.185  14.157
74660SOL    HW225820   5.678  12.172  14.061
74661SOL     OW25821  11.730  10.126  10.014
74661SOL    HW125822  11.751  10.037  10.042
74661SOL    HW225823  11.770  10.133   9.927
74662SOL     OW25824  13.445   8.771   2.363
74662SOL    HW125825  13.441   8.691   2.311
74662SOL    HW225826  13.506   8.750   2.434
74663SOL     OW25827   2.603   3.989  11.184
74663SOL    HW125828   2.571   4.030  11.104
74663SOL    HW225829   2.540   3.920  11.202
74664SOL     OW25830   7.203   0.549  11.520
74664SOL    HW125831   7.268   0.480  11.531
74664SOL    HW225832   7.182   0.547  11.426
74665SOL     OW25833   6.452   4.783   6.625
74665SOL    HW125834   6.502   4.850   6.579
74665SOL    HW225835   6.361   4.811   6.617
74666SOL     OW25836  13.900  14.762  10.170
74666SOL    HW125837  13.833  14.699  10.144
74666SOL    HW225838  13.923  14.739  10.260
74667SOL     OW25839   2.768   6.380   1.561
74667SOL    HW125840   2.701   6.448   1.570
74667SOL    HW225841   2.833   6.419   1.502
74668SOL     OW25842   5.284  11.799   6.522
74668SOL    HW125843   5.333  11.881   6.519
74668SOL    HW225844   5.199  11.820   6.484
74669SOL     OW25845   7.504   4.105  11.860
74669SOL    HW125846   7.520   4.116  11.766
74669SOL    HW225847   7.484   4.012  11.870
74670SOL     OW25848   9.990   2.063  13.218
74670SOL    HW125849   9.945   1.980  13.235
74670SOL    HW225850   9.924   2.130  13.236
74671SOL     OW25851   3.979   4.564   6.429
74671SOL    HW125852   3.927   4.614   6.366
74671SOL    HW225853   4.061   4.545   6.382
74672SOL     OW25854  13.405   1.408  13.690
74672SOL    HW125855  13.343   1.337  13.707
74672SOL    HW225856  13.490   1.370  13.711
74673SOL     OW25857   5.072  12.865   6.611
74673SOL    HW125858   5.159  12.828   6.596
74673SOL    HW225859   5.015  12.789   6.623
74674SOL     OW25860  11.812   0.109   8.379
74674SOL    HW125861  11.731   0.095   8.429
74674SOL    HW225862  11.823   0.204   8.376
74675SOL     OW25863   1.498   2.316   2.591
74675SOL    HW125864   1.546   2.317   2.674
74675SOL    HW225865   1.412   2.352   2.612
74676SOL     OW25866   0.757   0.525  10.891
74676SOL    HW125867   0.736   0.618  10.890
74676SOL    HW225868   0.678   0.482  10.856
74677SOL     OW25869   1.557  11.173  14.085
74677SOL    HW125870   1.579  11.109  14.017
74677SOL    HW225871   1.606  11.251  14.060
74678SOL     OW25872   5.035   2.954  12.659
74678SOL    HW125873   5.056   2.905  12.737
74678SOL    HW225874   5.094   2.920  12.592
74679SOL     OW25875  13.113   5.397  12.760
74679SOL    HW125876  13.068   5.374  12.679
74679SOL    HW225877  13.050   5.449  12.809
74680SOL     OW25878  12.998  14.794   2.266
74680SOL    HW125879  13.078  14.741   2.256
74680SOL    HW225880  12.956  14.791   2.180
74681SOL     OW25881   9.958  11.538   0.362
74681SOL    HW125882  10.052  11.524   0.354
74681SOL    HW225883   9.940  11.524   0.455
74682SOL     OW25884   6.185  13.663   4.719
74682SOL    HW125885   6.186  13.759   4.713
74682SOL    HW225886   6.277  13.638   4.712
74683SOL     OW25887  11.816   7.097   4.651
74683SOL    HW125888  11.722   7.114   4.651
74683SOL    HW225889  11.854   7.173   4.695
74684SOL     OW25890  12.161   4.595   9.821
74684SOL    HW125891  12.160   4.666   9.758
74684SOL    HW225892  12.226   4.620   9.886
74685SOL     OW25893  11.756   2.543  10.700
74685SOL    HW125894  11.740   2.564  10.609
74685SOL    HW225895  11.808   2.462  10.697
74686SOL     OW25896   6.261  13.701   1.651
74686SOL    HW125897   6.322  13.774   1.640
74686SOL    HW225898   6.205  13.727   1.724
74687SOL     OW25899  11.609  10.407   3.754
74687SOL    HW125900  11.539  10.444   3.808
74687SOL    HW225901  11.620  10.318   3.788
74688SOL     OW25902   0.134   4.495  14.420
74688SOL    HW125903   0.112   4.404  14.401
74688SOL    HW225904   0.206   4.515  14.360
74689SOL     OW25905   7.946   8.446   8.683
74689SOL    HW125906   7.973   8.451   8.591
74689SOL    HW225907   7.850   8.454   8.680
74690SOL     OW25908   5.056   8.856   8.954
74690SOL    HW125909   5.100   8.882   9.035
74690SOL    HW225910   4.999   8.930   8.932
74691SOL     OW25911   7.749  13.727   2.238
74691SOL    HW125912   7.752  13.635   2.263
74691SOL    HW225913   7.738  13.774   2.320
74692SOL     OW25914  11.601   0.334   5.468
74692SOL    HW125915  11.506   0.322   5.471
74692SOL    HW225916  11.613   0.429   5.472
74693SOL     OW25917   1.781  13.866   5.981
74693SOL    HW125918   1.799  13.953   6.018
74693SOL    HW225919   1.868  13.828   5.967
74694SOL     OW25920  14.065  13.478  12.845
74694SOL    HW125921  14.072  13.477  12.940
74694SOL    HW225922  14.049  13.570  12.822
74695SOL     OW25923  10.975   0.091   2.288
74695SOL    HW125924  10.981   0.085   2.384
74695SOL    HW225925  11.025   0.016   2.257
74696SOL     OW25926   5.446   0.078   7.183
74696SOL    HW125927   5.466   0.027   7.261
74696SOL    HW225928   5.373   0.032   7.142
74697SOL     OW25929  13.516  11.144  10.136
74697SOL    HW125930  13.505  11.052  10.113
74697SOL    HW225931  13.553  11.184  10.057
74698SOL     OW25932   0.108   8.425   4.359
74698SOL    HW125933   0.100   8.358   4.426
74698SOL    HW225934   0.042   8.491   4.383
74699SOL     OW25935   4.636   7.881  11.326
74699SOL    HW125936   4.621   7.933  11.248
74699SOL    HW225937   4.591   7.798  11.308
74700SOL     OW25938  12.972  11.988   0.627
74700SOL    HW125939  12.992  11.932   0.551
74700SOL    HW225940  12.882  12.016   0.612
74701SOL     OW25941   6.054  11.163  13.675
74701SOL    HW125942   5.990  11.092  13.679
74701SOL    HW225943   6.120  11.132  13.613
74702SOL     OW25944   2.625  13.702  11.795
74702SOL    HW125945   2.603  13.760  11.868
74702SOL    HW225946   2.545  13.699  11.742
74703SOL     OW25947   1.396   6.665   6.790
74703SOL    HW125948   1.369   6.712   6.710
74703SOL    HW225949   1.314   6.637   6.830
74704SOL     OW25950  13.232  10.616  11.282
74704SOL    HW125951  13.311  10.652  11.323
74704SOL    HW225952  13.231  10.655  11.195
74705SOL     OW25953   2.668   4.847   9.893
74705SOL    HW125954   2.752   4.804   9.906
74705SOL    HW225955   2.687   4.920   9.834
74706SOL     OW25956   0.434   1.555   5.572
74706SOL    HW125957   0.445   1.485   5.635
74706SOL    HW225958   0.485   1.528   5.496
74707SOL     OW25959   0.624   6.235  14.818
74707SOL    HW125960   0.679   6.182  14.876
74707SOL    HW225961   0.550   6.261  14.872
74708SOL     OW25962   7.198  10.039  14.864
74708SOL    HW125963   7.278  10.027   0.037
74708SOL    HW225964   7.230  10.074  14.780
74709SOL     OW25965   1.657   2.039   4.077
74709SOL    HW125966   1.645   2.126   4.115
74709SOL    HW225967   1.751   2.034   4.059
74710SOL     OW25968   2.358   7.574   4.065
74710SOL    HW125969   2.351   7.593   3.972
74710SOL    HW225970   2.268   7.580   4.097
74711SOL     OW25971   0.241   5.875   7.467
74711SOL    HW125972   0.282   5.940   7.525
74711SOL    HW225973   0.147   5.892   7.475
74712SOL     OW25974   1.847   7.590   5.126
74712SOL    HW125975   1.925   7.627   5.084
74712SOL    HW225976   1.879   7.557   5.210
74713SOL     OW25977   5.049  11.187   8.281
74713SOL    HW125978   5.043  11.167   8.188
74713SOL    HW225979   5.139  11.218   8.293
74714SOL     OW25980   5.163   2.666   1.978
74714SOL    HW125981   5.219   2.739   1.952
74714SOL    HW225982   5.223   2.595   1.999
74715SOL     OW25983   0.362  11.372   9.397
74715SOL    HW125984   0.302  11.376   9.322
74715SOL    HW225985   0.418  11.449   9.386
74716SOL     OW25986  11.591   5.359   4.203
74716SOL    HW125987  11.664   5.409   4.239
74716SOL    HW225988  11.603   5.271   4.237
74717SOL     OW25989   0.658   6.476  11.239
74717SOL    HW125990   0.715   6.446  11.168
74717SOL    HW225991   0.595   6.534  11.196
74718SOL     OW25992   2.927   3.473   9.742
74718SOL    HW125993   2.903   3.502   9.654
74718SOL    HW225994   2.897   3.543   9.800
74719SOL     OW25995   2.960  14.537   9.336
74719SOL    HW125996   2.880  14.576   9.371
74719SOL    HW225997   3.030  14.572   9.391
74720SOL     OW25998  11.006   4.166   0.593
74720SOL    HW125999  11.020   4.254   0.629
74720SOL    HW226000  10.979   4.113   0.669
74721SOL     OW26001   4.364  11.461   1.719
74721SOL    HW126002   4.311  11.464   1.799
74721SOL    HW226003   4.325  11.528   1.663
74722SOL     OW26004  11.068  13.120   9.995
74722SOL    HW126005  10.982  13.152   9.968
74722SOL    HW226006  11.085  13.163  10.079
74723SOL     OW26007  14.124   6.590   9.734
74723SOL    HW126008  14.091   6.533   9.664
74723SOL    HW226009  14.188   6.646   9.691
74724SOL     OW26010  10.574   7.845   7.456
74724SOL    HW126011  10.664   7.845   7.421
74724SOL    HW226012  10.568   7.765   7.507
74725SOL     OW26013   2.818  13.721   9.546
74725SOL    HW126014   2.862  13.743   9.464
74725SOL    HW226015   2.832  13.797   9.602
74726SOL     OW26016   5.775   8.432  12.011
74726SOL    HW126017   5.852   8.443  11.955
74726SOL    HW226018   5.728   8.515  12.003
74727SOL     OW26019  13.670  12.043   6.650
74727SOL    HW126020  13.725  12.044   6.728
74727SOL    HW226021  13.697  11.965   6.602
74728SOL     OW26022   9.171   8.671   2.268
74728SOL    HW126023   9.117   8.617   2.326
74728SOL    HW226024   9.214   8.733   2.326
74729SOL     OW26025   2.274  11.219  11.892
74729SOL    HW126026   2.260  11.263  11.808
74729SOL    HW226027   2.185  11.199  11.923
74730SOL     OW26028   2.328   7.461   5.490
74730SOL    HW126029   2.246   7.415   5.475
74730SOL    HW226030   2.318   7.545   5.444
74731SOL     OW26031   7.063  14.384   4.183
74731SOL    HW126032   6.988  14.387   4.242
74731SOL    HW226033   7.059  14.298   4.141
74732SOL     OW26034   3.370   7.470   8.370
74732SOL    HW126035   3.340   7.525   8.298
74732SOL    HW226036   3.457   7.504   8.391
74733SOL     OW26037   5.607   0.630   3.272
74733SOL    HW126038   5.699   0.634   3.298
74733SOL    HW226039   5.609   0.611   3.178
74734SOL     OW26040   5.206   5.890   1.778
74734SOL    HW126041   5.211   5.932   1.693
74734SOL    HW226042   5.139   5.822   1.768
74735SOL     OW26043  10.274  14.201   8.533
74735SOL    HW126044  10.224  14.123   8.556
74735SOL    HW226045  10.208  14.262   8.500
74736SOL     OW26046  11.360   8.685  10.914
74736SOL    HW126047  11.342   8.605  10.964
74736SOL    HW226048  11.349   8.756  10.978
74737SOL     OW26049  11.949   6.211   3.801
74737SOL    HW126050  11.965   6.278   3.736
74737SOL    HW226051  11.872   6.164   3.770
74738SOL     OW26052  11.542   1.867   5.880
74738SOL    HW126053  11.619   1.811   5.866
74738SOL    HW226054  11.572   1.934   5.941
74739SOL     OW26055  11.287   3.076   2.462
74739SOL    HW126056  11.222   3.048   2.398
74739SOL    HW226057  11.235   3.110   2.535
74740SOL     OW26058   5.545   1.259  11.053
74740SOL    HW126059   5.473   1.195  11.054
74740SOL    HW226060   5.607   1.223  10.990
74741SOL     OW26061  11.550  10.965   1.978
74741SOL    HW126062  11.512  10.894   1.926
74741SOL    HW226063  11.490  10.976   2.051
74742SOL     OW26064  13.075  13.311  13.446
74742SOL    HW126065  13.025  13.278  13.520
74742SOL    HW226066  13.012  13.317  13.374
74743SOL     OW26067  11.466   5.984   0.361
74743SOL    HW126068  11.470   5.901   0.314
74743SOL    HW226069  11.478   6.051   0.293
74744SOL     OW26070   4.344   4.770   8.289
74744SOL    HW126071   4.358   4.851   8.339
74744SOL    HW226072   4.426   4.723   8.297
74745SOL     OW26073   7.582   1.712   8.142
74745SOL    HW126074   7.610   1.691   8.231
74745SOL    HW226075   7.486   1.704   8.145
74746SOL     OW26076  14.725   4.593   4.068
74746SOL    HW126077  14.776   4.674   4.078
74746SOL    HW226078  14.634   4.623   4.061
74747SOL     OW26079   3.740  12.192   5.106
74747SOL    HW126080   3.808  12.127   5.087
74747SOL    HW226081   3.787  12.276   5.106
74748SOL     OW26082   4.545  11.512  13.846
74748SOL    HW126083   4.583  11.584  13.795
74748SOL    HW226084   4.621  11.465  13.882
74749SOL     OW26085  11.434  14.460   3.447
74749SOL    HW126086  11.518  14.464   3.494
74749SOL    HW226087  11.413  14.367   3.443
74750SOL     OW26088   6.480   3.705   2.211
74750SOL    HW126089   6.392   3.742   2.208
74750SOL    HW226090   6.513   3.729   2.298
74751SOL     OW26091   7.900   4.887   6.235
74751SOL    HW126092   7.904   4.856   6.144
74751SOL    HW226093   7.899   4.982   6.227
74752SOL     OW26094   3.557  10.056   6.383
74752SOL    HW126095   3.608  10.135   6.400
74752SOL    HW226096   3.563  10.043   6.288
74753SOL     OW26097  13.517   8.348   7.395
74753SOL    HW126098  13.575   8.282   7.357
74753SOL    HW226099  13.574   8.403   7.449
74754SOL     OW26100  11.601   5.162   9.156
74754SOL    HW126101  11.623   5.157   9.063
74754SOL    HW226102  11.680   5.131   9.201
74755SOL     OW26103   2.068   3.251  10.620
74755SOL    HW126104   2.058   3.170  10.571
74755SOL    HW226105   1.985   3.297  10.607
74756SOL     OW26106   1.233   5.966  10.824
74756SOL    HW126107   1.294   6.002  10.888
74756SOL    HW226108   1.151   5.957  10.871
74757SOL     OW26109  11.318   8.287  11.453
74757SOL    HW126110  11.225   8.268  11.463
74757SOL    HW226111  11.359   8.201  11.443
74758SOL     OW26112   7.767   8.860  14.590
74758SOL    HW126113   7.692   8.885  14.643
74758SOL    HW226114   7.774   8.765  14.602
74759SOL     OW26115   7.467   2.428  12.252
74759SOL    HW126116   7.406   2.446  12.324
74759SOL    HW226117   7.482   2.333  12.257
74760SOL     OW26118   5.206  11.693   2.374
74760SOL    HW126119   5.270  11.622   2.376
74760SOL    HW226120   5.209  11.731   2.462
74761SOL     OW26121   7.027   6.806  14.079
74761SOL    HW126122   6.984   6.768  14.156
74761SOL    HW226123   7.110   6.759  14.072
74762SOL     OW26124   1.469   7.027   3.506
74762SOL    HW126125   1.419   7.076   3.440
74762SOL    HW226126   1.559   7.025   3.471
74763SOL     OW26127   5.661   1.832   9.529
74763SOL    HW126128   5.755   1.820   9.522
74763SOL    HW226129   5.643   1.827   9.623
74764SOL     OW26130   1.046  14.252   6.592
74764SOL    HW126131   0.980  14.185   6.574
74764SOL    HW226132   1.126  14.219   6.552
74765SOL     OW26133  10.858   1.611   1.453
74765SOL    HW126134  10.918   1.639   1.384
74765SOL    HW226135  10.814   1.691   1.481
74766SOL     OW26136   9.092   3.449   7.652
74766SOL    HW126137   9.098   3.358   7.622
74766SOL    HW226138   8.999   3.460   7.673
74767SOL     OW26139   4.736  11.260  10.401
74767SOL    HW126140   4.675  11.312  10.454
74767SOL    HW226141   4.767  11.320  10.334
74768SOL     OW26142   6.170  13.079  11.381
74768SOL    HW126143   6.127  13.164  11.380
74768SOL    HW226144   6.176  13.054  11.288
74769SOL     OW26145   8.078   4.533  12.644
74769SOL    HW126146   7.987   4.561  12.654
74769SOL    HW226147   8.074   4.453  12.591
74770SOL     OW26148  14.441   0.204  10.835
74770SOL    HW126149  14.383   0.218  10.910
74770SOL    HW226150  14.420   0.275  10.775
74771SOL     OW26151   0.558  10.959   6.885
74771SOL    HW126152   0.520  10.987   6.802
74771SOL    HW226153   0.500  10.995   6.951
74772SOL     OW26154  13.124   3.759   8.690
74772SOL    HW126155  13.193   3.697   8.716
74772SOL    HW226156  13.120   3.751   8.594
74773SOL     OW26157   5.879  10.858   3.116
74773SOL    HW126158   5.950  10.910   3.080
74773SOL    HW226159   5.923  10.787   3.163
74774SOL     OW26160   4.389  12.301   5.377
74774SOL    HW126161   4.398  12.244   5.454
74774SOL    HW226162   4.327  12.368   5.405
74775SOL     OW26163   3.782  11.113   0.368
74775SOL    HW126164   3.701  11.163   0.378
74775SOL    HW226165   3.777  11.046   0.435
74776SOL     OW26166   0.446   9.897   7.013
74776SOL    HW126167   0.441   9.803   6.997
74776SOL    HW226168   0.500   9.905   7.091
74777SOL     OW26169   5.614   7.902   7.367
74777SOL    HW126170   5.593   7.928   7.456
74777SOL    HW226171   5.547   7.944   7.313
74778SOL     OW26172   2.324  10.374   6.417
74778SOL    HW126173   2.231  10.356   6.429
74778SOL    HW226174   2.328  10.467   6.398
74779SOL     OW26175  12.103   2.521  11.161
74779SOL    HW126176  12.111   2.610  11.126
74779SOL    HW226177  12.179   2.475  11.124
74780SOL     OW26178   1.903   4.784  14.805
74780SOL    HW126179   1.926   4.872  14.835
74780SOL    HW226180   1.862   4.798  14.720
74781SOL     OW26181   7.852   1.321   1.033
74781SOL    HW126182   7.891   1.235   1.018
74781SOL    HW226183   7.836   1.324   1.127
74782SOL     OW26184   4.774   0.139   6.370
74782SOL    HW126185   4.809   0.182   6.448
74782SOL    HW226186   4.709   0.201   6.336
74783SOL     OW26187  13.451   3.658   7.830
74783SOL    HW126188  13.437   3.750   7.851
74783SOL    HW226189  13.377   3.635   7.774
74784SOL     OW26190   5.776   8.376   9.848
74784SOL    HW126191   5.728   8.410   9.772
74784SOL    HW226192   5.782   8.450   9.908
74785SOL     OW26193  12.493   2.057   4.238
74785SOL    HW126194  12.477   2.013   4.322
74785SOL    HW226195  12.516   1.986   4.178
74786SOL     OW26196  10.338   6.077   1.374
74786SOL    HW126197  10.334   6.084   1.469
74786SOL    HW226198  10.412   6.018   1.358
74787SOL     OW26199  12.595   0.769  11.251
74787SOL    HW126200  12.600   0.818  11.169
74787SOL    HW226201  12.502   0.768  11.274
74788SOL     OW26202   4.924  10.804   0.115
74788SOL    HW126203   4.904  10.785   0.023
74788SOL    HW226204   4.843  10.843   0.149
74789SOL     OW26205   3.179   0.614  14.248
74789SOL    HW126206   3.267   0.644  14.270
74789SOL    HW226207   3.162   0.648  14.161
74790SOL     OW26208   1.436   4.986   2.446
74790SOL    HW126209   1.361   4.950   2.492
74790SOL    HW226210   1.503   4.996   2.513
74791SOL     OW26211   3.375   9.200   4.593
74791SOL    HW126212   3.446   9.137   4.609
74791SOL    HW226213   3.419   9.276   4.556
74792SOL     OW26214   9.171   4.622  13.781
74792SOL    HW126215   9.140   4.683  13.714
74792SOL    HW226216   9.267   4.623  13.772
74793SOL     OW26217   4.052   8.081   7.684
74793SOL    HW126218   3.986   8.151   7.677
74793SOL    HW226219   4.009   8.013   7.736
74794SOL     OW26220  13.542   1.797  13.308
74794SOL    HW126221  13.632   1.809  13.339
74794SOL    HW226222  13.514   1.716  13.350
74795SOL     OW26223  13.214   9.335   3.653
74795SOL    HW126224  13.129   9.329   3.610
74795SOL    HW226225  13.201   9.294   3.739
74796SOL     OW26226  10.744  14.358  14.798
74796SOL    HW126227  10.808  14.367  14.869
74796SOL    HW226228  10.712  14.268  14.805
74797SOL     OW26229  11.149   6.988   1.125
74797SOL    HW126230  11.160   6.968   1.218
74797SOL    HW226231  11.199   6.921   1.079
74798SOL     OW26232   0.695   4.489   6.182
74798SOL    HW126233   0.645   4.548   6.126
74798SOL    HW226234   0.660   4.504   6.270
74799SOL     OW26235   4.473  13.381   1.309
74799SOL    HW126236   4.543  13.386   1.244
74799SOL    HW226237   4.518  13.386   1.393
74800SOL     OW26238   6.317   9.385   1.171
74800SOL    HW126239   6.239   9.440   1.181
74800SOL    HW226240   6.384   9.446   1.138
74801SOL     OW26241   4.121   6.947   2.247
74801SOL    HW126242   4.116   6.881   2.316
74801SOL    HW226243   4.075   6.907   2.173
74802SOL     OW26244   2.515   5.905   2.964
74802SOL    HW126245   2.452   5.875   3.029
74802SOL    HW226246   2.462   5.952   2.899
74803SOL     OW26247  10.041   2.968   0.378
74803SOL    HW126248   9.986   3.029   0.328
74803SOL    HW226249  10.083   3.023   0.445
74804SOL     OW26250   3.913   0.269   3.524
74804SOL    HW126251   3.934   0.327   3.597
74804SOL    HW226252   3.860   0.323   3.465
74805SOL     OW26253   9.144  12.720   3.015
74805SOL    HW126254   9.180  12.784   2.953
74805SOL    HW226255   9.081  12.670   2.964
74806SOL     OW26256   8.620  11.326  10.941
74806SOL    HW126257   8.684  11.306  10.872
74806SOL    HW226258   8.548  11.369  10.895
74807SOL     OW26259   6.532   0.051  10.200
74807SOL    HW126260   6.541   0.143  10.176
74807SOL    HW226261   6.560   0.047  10.291
74808SOL     OW26262  11.389  12.082   3.575
74808SOL    HW126263  11.452  12.062   3.645
74808SOL    HW226264  11.404  12.174   3.555
74809SOL     OW26265   6.739  12.435   2.829
74809SOL    HW126266   6.672  12.374   2.798
74809SOL    HW226267   6.757  12.407   2.919
74810SOL     OW26268   7.245  13.267   5.665
74810SOL    HW126269   7.323  13.248   5.717
74810SOL    HW226270   7.177  13.211   5.703
74811SOL     OW26271   1.073  12.621  11.398
74811SOL    HW126272   1.024  12.597  11.476
74811SOL    HW226273   1.026  12.579  11.326
74812SOL     OW26274   2.936   2.447  12.287
74812SOL    HW126275   2.908   2.404  12.206
74812SOL    HW226276   3.011   2.396  12.317
74813SOL     OW26277   1.078   1.595   2.153
74813SOL    HW126278   0.998   1.646   2.167
74813SOL    HW226279   1.070   1.521   2.212
74814SOL     OW26280   9.866   7.076   2.368
74814SOL    HW126281   9.946   7.109   2.328
74814SOL    HW226282   9.896   7.026   2.444
74815SOL     OW26283  13.214  14.732   1.409
74815SOL    HW126284  13.302  14.763   1.427
74815SOL    HW226285  13.227  14.648   1.365
74816SOL     OW26286  11.464   0.371  13.422
74816SOL    HW126287  11.453   0.279  13.395
74816SOL    HW226288  11.559   0.384  13.423
74817SOL     OW26289   7.574   1.357  10.351
74817SOL    HW126290   7.553   1.264  10.349
74817SOL    HW226291   7.599   1.374  10.442
74818SOL     OW26292   3.443  11.459   8.403
74818SOL    HW126293   3.424  11.543   8.444
74818SOL    HW226294   3.438  11.477   8.309
74819SOL     OW26295  11.125   0.150  11.685
74819SOL    HW126296  11.218   0.167  11.670
74819SOL    HW226297  11.081   0.200  11.616
74820SOL     OW26298  10.094   3.727   8.331
74820SOL    HW126299  10.093   3.793   8.261
74820SOL    HW226300  10.078   3.644   8.286
74821SOL     OW26301   1.542  13.339  10.672
74821SOL    HW126302   1.623  13.307  10.631
74821SOL    HW226303   1.561  13.429  10.698
74822SOL     OW26304   8.746   6.750   0.179
74822SOL    HW126305   8.680   6.795   0.126
74822SOL    HW226306   8.718   6.764   0.269
74823SOL     OW26307   8.818  13.400   2.970
74823SOL    HW126308   8.833  13.438   3.057
74823SOL    HW226309   8.742  13.447   2.936
74824SOL     OW26310  11.843   5.972   7.570
74824SOL    HW126311  11.870   5.921   7.646
74824SOL    HW226312  11.752   5.946   7.555
74825SOL     OW26313   4.544   7.601  12.130
74825SOL    HW126314   4.499   7.592  12.046
74825SOL    HW226315   4.539   7.514  12.169
74826SOL     OW26316  10.874   6.531   1.657
74826SOL    HW126317  10.867   6.588   1.734
74826SOL    HW226318  10.828   6.577   1.588
74827SOL     OW26319   6.543   0.835   5.861
74827SOL    HW126320   6.518   0.928   5.862
74827SOL    HW226321   6.587   0.823   5.777
74828SOL     OW26322   1.782  10.215  14.650
74828SOL    HW126323   1.849  10.168  14.601
74828SOL    HW226324   1.702  10.165  14.634
74829SOL     OW26325   6.069   6.305   7.400
74829SOL    HW126326   6.107   6.245   7.336
74829SOL    HW226327   5.999   6.254   7.441
74830SOL     OW26328   9.487   1.149   0.105
74830SOL    HW126329   9.499   1.188   0.019
74830SOL    HW226330   9.404   1.185   0.136
74831SOL     OW26331  12.402   8.124  12.325
74831SOL    HW126332  12.413   8.036  12.290
74831SOL    HW226333  12.492   8.158  12.332
74832SOL     OW26334  11.278  11.651   3.169
74832SOL    HW126335  11.354  11.691   3.211
74832SOL    HW226336  11.215  11.639   3.240
74833SOL     OW26337  12.527   2.254   6.454
74833SOL    HW126338  12.563   2.274   6.541
74833SOL    HW226339  12.518   2.159   6.453
74834SOL     OW26340   2.402  13.723   6.366
74834SOL    HW126341   2.411  13.628   6.355
74834SOL    HW226342   2.308  13.738   6.364
74835SOL     OW26343   1.876  13.200   6.067
74835SOL    HW126344   1.806  13.137   6.085
74835SOL    HW226345   1.900  13.235   6.153
74836SOL     OW26346   1.686   9.752   4.365
74836SOL    HW126347   1.720   9.685   4.424
74836SOL    HW226348   1.630   9.704   4.304
74837SOL     OW26349   1.989  11.947   7.240
74837SOL    HW126350   1.904  11.941   7.283
74837SOL    HW226351   1.974  11.911   7.152
74838SOL     OW26352  12.566  14.295  14.806
74838SOL    HW126353  12.656  14.271  14.827
74838SOL    HW226354  12.515  14.266   0.002
74839SOL     OW26355   5.619   4.323   3.580
74839SOL    HW126356   5.527   4.342   3.562
74839SOL    HW226357   5.653   4.287   3.498
74840SOL     OW26358   3.089   6.538   2.092
74840SOL    HW126359   3.023   6.507   2.154
74840SOL    HW226360   3.167   6.485   2.113
74841SOL     OW26361   9.707   4.547   6.223
74841SOL    HW126362   9.627   4.557   6.275
74841SOL    HW226363   9.676   4.548   6.132
74842SOL     OW26364  11.683  13.625   2.484
74842SOL    HW126365  11.599  13.654   2.520
74842SOL    HW226366  11.670  13.624   2.389
74843SOL     OW26367   5.322   6.127   0.177
74843SOL    HW126368   5.370   6.127   0.094
74843SOL    HW226369   5.230   6.129   0.151
74844SOL     OW26370  11.585   0.591  12.564
74844SOL    HW126371  11.643   0.609  12.638
74844SOL    HW226372  11.548   0.677  12.542
74845SOL     OW26373  11.050  10.900   2.327
74845SOL    HW126374  10.954  10.898   2.330
74845SOL    HW226375  11.073  10.992   2.341
74846SOL     OW26376   5.816  13.732   2.670
74846SOL    HW126377   5.749  13.668   2.694
74846SOL    HW226378   5.861  13.693   2.595
74847SOL     OW26379  14.183   9.575   7.395
74847SOL    HW126380  14.200   9.582   7.301
74847SOL    HW226381  14.115   9.639   7.413
74848SOL     OW26382   8.599   5.025   5.493
74848SOL    HW126383   8.604   5.072   5.409
74848SOL    HW226384   8.685   4.985   5.504
74849SOL     OW26385   3.271   0.619   0.616
74849SOL    HW126386   3.182   0.598   0.644
74849SOL    HW226387   3.327   0.559   0.665
74850SOL     OW26388   5.903  13.664   4.091
74850SOL    HW126389   5.906  13.689   3.999
74850SOL    HW226390   5.887  13.570   4.090
74851SOL     OW26391   0.647   3.652  13.688
74851SOL    HW126392   0.628   3.595  13.613
74851SOL    HW226393   0.676   3.592  13.757
74852SOL     OW26394  12.496  14.203   8.190
74852SOL    HW126395  12.456  14.146   8.256
74852SOL    HW226396  12.503  14.289   8.233
74853SOL     OW26397   8.517   1.199   9.619
74853SOL    HW126398   8.450   1.186   9.687
74853SOL    HW226399   8.476   1.166   9.539
74854SOL     OW26400   3.775  13.550   2.468
74854SOL    HW126401   3.690  13.508   2.458
74854SOL    HW226402   3.824  13.525   2.390
74855SOL     OW26403   4.351   4.685  10.200
74855SOL    HW126404   4.444   4.688  10.221
74855SOL    HW226405   4.319   4.774  10.218
74856SOL     OW26406   4.914   7.299  13.609
74856SOL    HW126407   4.891   7.206  13.610
74856SOL    HW226408   4.966   7.310  13.530
74857SOL     OW26409   1.014   1.564  13.359
74857SOL    HW126410   0.992   1.643  13.311
74857SOL    HW226411   1.108   1.571  13.375
74858SOL     OW26412  14.126  10.716  13.502
74858SOL    HW126413  14.153  10.624  13.509
74858SOL    HW226414  14.049  10.723  13.558
74859SOL     OW26415   9.750   7.010  12.939
74859SOL    HW126416   9.802   6.941  12.897
74859SOL    HW226417   9.691   6.963  12.999
74860SOL     OW26418   0.610   9.452   8.075
74860SOL    HW126419   0.536   9.502   8.039
74860SOL    HW226420   0.667   9.518   8.114
74861SOL     OW26421   8.050   0.122   9.269
74861SOL    HW126422   8.113   0.155   9.334
74861SOL    HW226423   8.016   0.041   9.307
74862SOL     OW26424  10.442   2.176   2.221
74862SOL    HW126425  10.425   2.256   2.271
74862SOL    HW226426  10.444   2.107   2.287
74863SOL     OW26427  11.730   0.012  11.438
74863SOL    HW126428  11.734   0.108  11.439
74863SOL    HW226429  11.648  14.870  11.483
74864SOL     OW26430  14.719   2.887  10.535
74864SOL    HW126431  14.655   2.819  10.554
74864SOL    HW226432  14.698   2.958  10.595
74865SOL     OW26433   7.478  10.633   9.203
74865SOL    HW126434   7.563  10.676   9.198
74865SOL    HW226435   7.499  10.539   9.208
74866SOL     OW26436  13.409   6.450  14.582
74866SOL    HW126437  13.491   6.499  14.581
74866SOL    HW226438  13.420   6.384  14.514
74867SOL     OW26439   2.952   4.696   9.198
74867SOL    HW126440   2.921   4.606   9.205
74867SOL    HW226441   2.884   4.748   9.241
74868SOL     OW26442   1.348  13.838   1.625
74868SOL    HW126443   1.301  13.842   1.543
74868SOL    HW226444   1.428  13.889   1.610
74869SOL     OW26445   5.369   3.693   2.786
74869SOL    HW126446   5.405   3.680   2.874
74869SOL    HW226447   5.303   3.624   2.776
74870SOL     OW26448   1.593   7.137   2.374
74870SOL    HW126449   1.605   7.074   2.445
74870SOL    HW226450   1.672   7.127   2.320
74871SOL     OW26451   7.792  14.441  10.354
74871SOL    HW126452   7.841  14.361  10.334
74871SOL    HW226453   7.703  14.410  10.370
74872SOL     OW26454   0.612  11.692  14.452
74872SOL    HW126455   0.588  11.633  14.381
74872SOL    HW226456   0.698  11.662  14.481
74873SOL     OW26457  12.932   6.557   6.260
74873SOL    HW126458  12.990   6.626   6.228
74873SOL    HW226459  12.923   6.497   6.186
74874SOL     OW26460  12.315   1.710   9.694
74874SOL    HW126461  12.407   1.695   9.715
74874SOL    HW226462  12.306   1.682   9.603
74875SOL     OW26463  10.557   3.951   3.331
74875SOL    HW126464  10.498   4.017   3.294
74875SOL    HW226465  10.564   3.884   3.263
74876SOL     OW26466   4.906   7.268  11.101
74876SOL    HW126467   4.878   7.231  11.185
74876SOL    HW226468   4.873   7.358  11.103
74877SOL     OW26469   2.754   0.660   6.892
74877SOL    HW126470   2.800   0.662   6.976
74877SOL    HW226471   2.695   0.584   6.899
74878SOL     OW26472   8.444   7.456   3.669
74878SOL    HW126473   8.487   7.388   3.617
74878SOL    HW226474   8.407   7.516   3.604
74879SOL     OW26475   2.978  11.786   9.741
74879SOL    HW126476   3.016  11.869   9.770
74879SOL    HW226477   3.014  11.772   9.653
74880SOL     OW26478  13.194  14.519   9.684
74880SOL    HW126479  13.100  14.538   9.685
74880SOL    HW226480  13.205  14.451   9.750
74881SOL     OW26481   7.303  14.804  12.034
74881SOL    HW126482   7.376  14.765  12.083
74881SOL    HW226483   7.255  14.854  12.100
74882SOL     OW26484   1.445   6.902   1.967
74882SOL    HW126485   1.414   6.959   1.897
74882SOL    HW226486   1.486   6.963   2.029
74883SOL     OW26487   7.511   5.992   1.854
74883SOL    HW126488   7.471   5.910   1.884
74883SOL    HW226489   7.516   5.983   1.759
74884SOL     OW26490   5.417   1.891  12.177
74884SOL    HW126491   5.466   1.864  12.255
74884SOL    HW226492   5.484   1.920  12.115
74885SOL     OW26493   1.214   5.171   7.917
74885SOL    HW126494   1.178   5.175   8.005
74885SOL    HW226495   1.299   5.216   7.924
74886SOL     OW26496  10.572   3.347  13.202
74886SOL    HW126497  10.585   3.315  13.113
74886SOL    HW226498  10.658   3.380  13.229
74887SOL     OW26499  12.582  11.520   5.504
74887SOL    HW126500  12.666  11.563   5.519
74887SOL    HW226501  12.534  11.532   5.585
74888SOL     OW26502   2.187   5.084   7.141
74888SOL    HW126503   2.205   5.110   7.050
74888SOL    HW226504   2.256   5.022   7.162
74889SOL     OW26505  11.596   7.244   5.219
74889SOL    HW126506  11.572   7.319   5.166
74889SOL    HW226507  11.620   7.280   5.304
74890SOL     OW26508   4.130  10.193   7.573
74890SOL    HW126509   4.131  10.226   7.662
74890SOL    HW226510   4.222  10.181   7.550
74891SOL     OW26511  14.642  13.956   1.085
74891SOL    HW126512  14.728  13.974   1.124
74891SOL    HW226513  14.596  14.040   1.089
74892SOL     OW26514   1.415   8.439   2.140
74892SOL    HW126515   1.422   8.517   2.195
74892SOL    HW226516   1.383   8.371   2.199
74893SOL     OW26517   1.228   7.756  10.194
74893SOL    HW126518   1.304   7.805  10.224
74893SOL    HW226519   1.153   7.805  10.228
74894SOL     OW26520   2.403   7.713  12.784
74894SOL    HW126521   2.455   7.774  12.731
74894SOL    HW226522   2.446   7.712  12.869
74895SOL     OW26523   5.927   8.747   7.302
74895SOL    HW126524   5.922   8.831   7.347
74895SOL    HW226525   5.836   8.727   7.279
74896SOL     OW26526  10.707  13.434   6.376
74896SOL    HW126527  10.700  13.408   6.467
74896SOL    HW226528  10.759  13.365   6.335
74897SOL     OW26529  14.331   5.627  13.416
74897SOL    HW126530  14.262   5.687  13.444
74897SOL    HW226531  14.363   5.588  13.497
74898SOL     OW26532  10.971   7.180   9.275
74898SOL    HW126533  11.040   7.241   9.248
74898SOL    HW226534  10.925   7.227   9.345
74899SOL     OW26535  14.092  13.979   0.832
74899SOL    HW126536  14.152  14.022   0.772
74899SOL    HW226537  14.134  13.895   0.853
74900SOL     OW26538  12.793   9.828  10.300
74900SOL    HW126539  12.878   9.822  10.342
74900SOL    HW226540  12.782   9.922  10.282
74901SOL     OW26541   0.617   4.296   0.813
74901SOL    HW126542   0.574   4.365   0.864
74901SOL    HW226543   0.674   4.343   0.753
74902SOL     OW26544  11.281  12.175   5.158
74902SOL    HW126545  11.306  12.251   5.106
74902SOL    HW226546  11.193  12.152   5.127
74903SOL     OW26547   4.710   2.981   8.246
74903SOL    HW126548   4.638   3.043   8.260
74903SOL    HW226549   4.732   2.950   8.334
74904SOL     OW26550  11.118   8.106  10.137
74904SOL    HW126551  11.148   8.033  10.191
74904SOL    HW226552  11.193   8.130  10.083
74905SOL     OW26553  14.403   1.543  10.858
74905SOL    HW126554  14.361   1.599  10.923
74905SOL    HW226555  14.387   1.454  10.889
74906SOL     OW26556   1.208  13.449   6.419
74906SOL    HW126557   1.188  13.542   6.427
74906SOL    HW226558   1.267  13.444   6.344
74907SOL     OW26559  12.817   0.606  12.661
74907SOL    HW126560  12.830   0.584  12.568
74907SOL    HW226561  12.802   0.521  12.703
74908SOL     OW26562   3.614   6.475   0.336
74908SOL    HW126563   3.593   6.568   0.346
74908SOL    HW226564   3.659   6.469   0.252
74909SOL     OW26565   3.849   4.544   0.753
74909SOL    HW126566   3.808   4.627   0.726
74909SOL    HW226567   3.821   4.481   0.687
74910SOL     OW26568   8.729   3.415   0.495
74910SOL    HW126569   8.676   3.469   0.555
74910SOL    HW226570   8.667   3.387   0.428
74911SOL     OW26571   3.784   8.108   3.764
74911SOL    HW126572   3.727   8.117   3.841
74911SOL    HW226573   3.803   8.198   3.738
74912SOL     OW26574  11.109   8.579   8.362
74912SOL    HW126575  11.068   8.596   8.277
74912SOL    HW226576  11.163   8.656   8.379
74913SOL     OW26577  12.669   3.963   0.443
74913SOL    HW126578  12.617   3.992   0.518
74913SOL    HW226579  12.623   3.885   0.412
74914SOL     OW26580   7.045   2.648  11.068
74914SOL    HW126581   6.966   2.686  11.030
74914SOL    HW226582   7.076   2.586  11.003
74915SOL     OW26583  11.638   9.826  11.757
74915SOL    HW126584  11.600   9.911  11.734
74915SOL    HW226585  11.567   9.764  11.743
74916SOL     OW26586  14.876   4.558   0.711
74916SOL    HW126587  14.787   4.577   0.739
74916SOL    HW226588  14.866   4.507   0.630
74917SOL     OW26589  13.567   0.367   5.466
74917SOL    HW126590  13.650   0.336   5.432
74917SOL    HW226591  13.546   0.307   5.538
74918SOL     OW26592   9.632   9.542   3.958
74918SOL    HW126593   9.552   9.506   3.920
74918SOL    HW226594   9.698   9.474   3.944
74919SOL     OW26595  10.879   6.472   9.291
74919SOL    HW126596  10.897   6.520   9.210
74919SOL    HW226597  10.904   6.533   9.361
74920SOL     OW26598   1.992   5.032   0.073
74920SOL    HW126599   2.073   5.004   0.116
74920SOL    HW226600   1.940   5.070   0.144
74921SOL     OW26601   1.745  11.320   0.855
74921SOL    HW126602   1.714  11.391   0.798
74921SOL    HW226603   1.733  11.354   0.944
74922SOL     OW26604   5.659   3.041   2.317
74922SOL    HW126605   5.707   3.040   2.234
74922SOL    HW226606   5.568   3.025   2.292
74923SOL     OW26607   9.353  13.272   3.734
74923SOL    HW126608   9.377  13.340   3.671
74923SOL    HW226609   9.263  13.249   3.711
74924SOL     OW26610  12.267   8.765  11.718
74924SOL    HW126611  12.275   8.814  11.800
74924SOL    HW226612  12.296   8.827  11.651
74925SOL     OW26613   0.560   6.226  11.344
74925SOL    HW126614   0.592   6.301  11.294
74925SOL    HW226615   0.558   6.256  11.435
74926SOL     OW26616   6.776   7.017   4.632
74926SOL    HW126617   6.844   7.071   4.592
74926SOL    HW226618   6.719   6.993   4.560
74927SOL     OW26619   5.344  14.461   3.252
74927SOL    HW126620   5.295  14.486   3.330
74927SOL    HW226621   5.378  14.543   3.217
74928SOL     OW26622   7.477   5.749   6.009
74928SOL    HW126623   7.460   5.711   5.923
74928SOL    HW226624   7.550   5.810   5.995
74929SOL     OW26625   1.699   1.142  11.406
74929SOL    HW126626   1.647   1.128  11.485
74929SOL    HW226627   1.790   1.142  11.436
74930SOL     OW26628   2.078   4.759  12.891
74930SOL    HW126629   2.011   4.692  12.906
74930SOL    HW226630   2.152   4.711  12.854
74931SOL     OW26631   4.407  11.959   8.273
74931SOL    HW126632   4.494  11.994   8.255
74931SOL    HW226633   4.400  11.882   8.216
74932SOL     OW26634   6.867   1.838   0.114
74932SOL    HW126635   6.847   1.745   0.123
74932SOL    HW226636   6.961   1.841   0.093
74933SOL     OW26637   5.734  14.064  12.141
74933SOL    HW126638   5.822  14.099  12.127
74933SOL    HW226639   5.683  14.098  12.068
74934SOL     OW26640  11.066  10.044   4.107
74934SOL    HW126641  11.109  10.127   4.128
74934SOL    HW226642  10.981  10.069   4.072
74935SOL     OW26643   9.710  12.327   0.864
74935SOL    HW126644   9.724  12.308   0.957
74935SOL    HW226645   9.750  12.413   0.851
74936SOL     OW26646   5.182   9.875   5.219
74936SOL    HW126647   5.230   9.864   5.301
74936SOL    HW226648   5.244   9.921   5.162
74937SOL     OW26649   6.544  14.489  13.217
74937SOL    HW126650   6.598  14.422  13.258
74937SOL    HW226651   6.572  14.571  13.258
74938SOL     OW26652   9.819  12.111   0.741
74938SOL    HW126653   9.778  12.041   0.791
74938SOL    HW226654   9.782  12.191   0.778
74939SOL     OW26655  12.658  13.640   3.261
74939SOL    HW126656  12.623  13.729   3.263
74939SOL    HW226657  12.729  13.642   3.326
74940SOL     OW26658   4.793   0.319  13.471
74940SOL    HW126659   4.799   0.395  13.414
74940SOL    HW226660   4.854   0.338  13.543
74941SOL     OW26661   9.817  10.476   5.971
74941SOL    HW126662   9.746  10.431   5.925
74941SOL    HW226663   9.883  10.490   5.903
74942SOL     OW26664  11.261  12.674  10.940
74942SOL    HW126665  11.284  12.705  11.028
74942SOL    HW226666  11.294  12.742  10.881
74943SOL     OW26667   9.656   3.004  11.714
74943SOL    HW126668   9.677   3.054  11.635
74943SOL    HW226669   9.741   2.982  11.752
74944SOL     OW26670   8.706   3.245  12.295
74944SOL    HW126671   8.639   3.311  12.277
74944SOL    HW226672   8.704   3.234  12.390
74945SOL     OW26673  12.701   1.098   7.555
74945SOL    HW126674  12.626   1.076   7.501
74945SOL    HW226675  12.734   1.180   7.518
74946SOL     OW26676   6.080   4.115   4.145
74946SOL    HW126677   6.159   4.152   4.184
74946SOL    HW226678   6.048   4.183   4.086
74947SOL     OW26679  13.699  12.320   9.478
74947SOL    HW126680  13.672  12.309   9.387
74947SOL    HW226681  13.625  12.287   9.529
74948SOL     OW26682   8.462   8.930   8.989
74948SOL    HW126683   8.530   8.997   8.986
74948SOL    HW226684   8.487   8.873   9.061
74949SOL     OW26685   2.486  11.936  13.907
74949SOL    HW126686   2.492  11.971  13.818
74949SOL    HW226687   2.469  12.012  13.962
74950SOL     OW26688  12.940   0.810   7.211
74950SOL    HW126689  12.858   0.762   7.221
74950SOL    HW226690  12.920   0.875   7.143
74951SOL     OW26691   2.610  10.080   1.186
74951SOL    HW126692   2.546  10.132   1.137
74951SOL    HW226693   2.687  10.076   1.129
74952SOL     OW26694  13.622  12.771  14.109
74952SOL    HW126695  13.609  12.676  14.105
74952SOL    HW226696  13.712  12.782  14.137
74953SOL     OW26697   9.056   4.940  11.801
74953SOL    HW126698   9.131   4.893  11.837
74953SOL    HW226699   9.054   4.915  11.708
74954SOL     OW26700  13.385   9.350  13.134
74954SOL    HW126701  13.469   9.314  13.106
74954SOL    HW226702  13.344   9.280  13.185
74955SOL     OW26703   5.314   4.358   3.510
74955SOL    HW126704   5.353   4.421   3.570
74955SOL    HW226705   5.282   4.411   3.436
74956SOL     OW26706  13.001   0.524  10.219
74956SOL    HW126707  13.013   0.619  10.215
74956SOL    HW226708  13.033   0.499  10.306
74957SOL     OW26709   0.793   5.024  12.045
74957SOL    HW126710   0.824   4.962  12.110
74957SOL    HW226711   0.813   4.983  11.961
74958SOL     OW26712  10.661   7.746  12.861
74958SOL    HW126713  10.625   7.670  12.906
74958SOL    HW226714  10.644   7.819  12.921
74959SOL     OW26715  13.534   4.128   7.337
74959SOL    HW126716  13.552   4.095   7.425
74959SOL    HW226717  13.511   4.220   7.351
74960SOL     OW26718   3.007   7.380  14.151
74960SOL    HW126719   3.054   7.301  14.122
74960SOL    HW226720   2.947   7.348  14.219
74961SOL     OW26721  10.848   2.450   3.412
74961SOL    HW126722  10.911   2.522   3.415
74961SOL    HW226723  10.903   2.371   3.412
74962SOL     OW26724  13.294   4.309   3.411
74962SOL    HW126725  13.272   4.372   3.479
74962SOL    HW226726  13.214   4.301   3.359
74963SOL     OW26727   8.452   5.196  14.645
74963SOL    HW126728   8.415   5.276  14.682
74963SOL    HW226729   8.426   5.127  14.706
74964SOL     OW26730  14.693   2.308   3.463
74964SOL    HW126731  14.598   2.306   3.461
74964SOL    HW226732  14.717   2.255   3.539
74965SOL     OW26733   8.454  12.040   9.656
74965SOL    HW126734   8.396  11.995   9.717
74965SOL    HW226735   8.520  11.975   9.634
74966SOL     OW26736  13.355  11.669   2.457
74966SOL    HW126737  13.400  11.669   2.372
74966SOL    HW226738  13.291  11.739   2.450
74967SOL     OW26739  11.907   7.206  13.116
74967SOL    HW126740  11.811   7.210  13.118
74967SOL    HW226741  11.934   7.233  13.203
74968SOL     OW26742   5.786   3.484  13.132
74968SOL    HW126743   5.721   3.497  13.201
74968SOL    HW226744   5.846   3.557  13.142
74969SOL     OW26745   6.328  10.092  12.565
74969SOL    HW126746   6.276  10.150  12.509
74969SOL    HW226747   6.355  10.021  12.507
74970SOL     OW26748   7.551   5.135   7.158
74970SOL    HW126749   7.484   5.196   7.128
74970SOL    HW226750   7.611   5.127   7.084
74971SOL     OW26751   5.782   7.624  10.085
74971SOL    HW126752   5.766   7.549  10.028
74971SOL    HW226753   5.736   7.696  10.043
74972SOL     OW26754  10.338   3.390  14.480
74972SOL    HW126755  10.368   3.480  14.469
74972SOL    HW226756  10.347   3.374  14.574
74973SOL     OW26757  13.712  14.793   1.245
74973SOL    HW126758  13.705  14.698   1.251
74973SOL    HW226759  13.664  14.816   1.165
74974SOL     OW26760   9.174   2.612   3.107
74974SOL    HW126761   9.096   2.564   3.132
74974SOL    HW226762   9.214   2.638   3.190
74975SOL     OW26763  10.086   3.628  14.323
74975SOL    HW126764   9.992   3.648  14.318
74975SOL    HW226765  10.089   3.533  14.338
74976SOL     OW26766  12.399  10.209   8.876
74976SOL    HW126767  12.332  10.223   8.943
74976SOL    HW226768  12.356  10.229   8.793
74977SOL     OW26769   0.784  11.058   0.602
74977SOL    HW126770   0.845  11.054   0.528
74977SOL    HW226771   0.714  11.116   0.572
74978SOL     OW26772  12.945   1.035  13.343
74978SOL    HW126773  12.862   1.062  13.383
74978SOL    HW226774  13.011   1.091  13.384
74979SOL     OW26775  11.503   7.638   0.379
74979SOL    HW126776  11.512   7.655   0.286
74979SOL    HW226777  11.578   7.681   0.419
74980SOL     OW26778   3.665  14.043  13.607
74980SOL    HW126779   3.739  14.051  13.547
74980SOL    HW226780   3.611  14.120  13.588
74981SOL     OW26781   1.566   8.823  11.498
74981SOL    HW126782   1.522   8.750  11.542
74981SOL    HW226783   1.624   8.860  11.565
74982SOL     OW26784  10.871  13.726   2.482
74982SOL    HW126785  10.930  13.763   2.548
74982SOL    HW226786  10.929  13.676   2.424
74983SOL     OW26787   5.178  13.888   4.105
74983SOL    HW126788   5.205  13.902   4.015
74983SOL    HW226789   5.083  13.877   4.101
74984SOL     OW26790   9.145  10.525   9.868
74984SOL    HW126791   9.052  10.544   9.880
74984SOL    HW226792   9.170  10.477   9.947
74985SOL     OW26793  13.541  11.329  12.983
74985SOL    HW126794  13.631  11.308  13.009
74985SOL    HW226795  13.544  11.423  12.964
74986SOL     OW26796  14.027  11.746   0.101
74986SOL    HW126797  14.033  11.652   0.121
74986SOL    HW226798  13.947  11.754   0.049
74987SOL     OW26799  13.474   5.836  14.181
74987SOL    HW126800  13.383   5.839  14.151
74987SOL    HW226801  13.506   5.925  14.171
74988SOL     OW26802   7.466  12.036  10.665
74988SOL    HW126803   7.385  12.000  10.629
74988SOL    HW226804   7.480  11.987  10.746
74989SOL     OW26805   6.612   2.609   1.062
74989SOL    HW126806   6.543   2.633   1.124
74989SOL    HW226807   6.585   2.524   1.028
74990SOL     OW26808  10.105  12.729   5.559
74990SOL    HW126809  10.181  12.671   5.559
74990SOL    HW226810  10.093  12.752   5.467
74991SOL     OW26811   7.345  13.623   8.571
74991SOL    HW126812   7.432  13.640   8.535
74991SOL    HW226813   7.285  13.662   8.508
74992SOL     OW26814  11.740   6.086  14.385
74992SOL    HW126815  11.692   6.164  14.357
74992SOL    HW226816  11.808   6.119  14.443
74993SOL     OW26817   8.417   4.869   9.508
74993SOL    HW126818   8.496   4.885   9.456
74993SOL    HW226819   8.345   4.889   9.448
74994SOL     OW26820  13.289   1.901   9.817
74994SOL    HW126821  13.276   1.808   9.797
74994SOL    HW226822  13.204   1.941   9.802
74995SOL     OW26823   1.183   2.844   8.420
74995SOL    HW126824   1.110   2.864   8.478
74995SOL    HW226825   1.196   2.924   8.369
74996SOL     OW26826   4.266   2.692   0.226
74996SOL    HW126827   4.245   2.785   0.222
74996SOL    HW226828   4.304   2.672   0.140
74997SOL     OW26829  14.436   2.585   3.387
74997SOL    HW126830  14.454   2.551   3.475
74997SOL    HW226831  14.372   2.524   3.350
74998SOL     OW26832   3.929  14.171   7.630
74998SOL    HW126833   3.846  14.128   7.652
74998SOL    HW226834   3.920  14.259   7.666
74999SOL     OW26835   5.848  14.211   8.823
74999SOL    HW126836   5.906  14.278   8.787
74999SOL    HW226837   5.904  14.160   8.882
75000SOL     OW26838  11.547  10.526   0.398
75000SOL    HW126839  11.622  10.470   0.421
75000SOL    HW226840  11.553  10.538   0.304
75001SOL     OW26841   6.637  13.552  12.412
75001SOL    HW126842   6.606  13.640  12.390
75001SOL    HW226843   6.595  13.533  12.496
75002SOL     OW26844   5.398   1.487   0.399
75002SOL    HW126845   5.416   1.511   0.308
75002SOL    HW226846   5.310   1.450   0.397
75003SOL     OW26847   7.223   1.680   3.013
75003SOL    HW126848   7.224   1.647   3.103
75003SOL    HW226849   7.316   1.686   2.989
75004SOL     OW26850   5.378   5.866  11.715
75004SOL    HW126851   5.465   5.904  11.727
75004SOL    HW226852   5.345   5.905  11.634
75005SOL     OW26853   8.079   7.179  12.782
75005SOL    HW126854   8.023   7.180  12.704
75005SOL    HW226855   8.038   7.115  12.840
75006SOL     OW26856   4.261   1.938  13.356
75006SOL    HW126857   4.211   1.857  13.345
75006SOL    HW226858   4.255   1.981  13.270
75007SOL     OW26859   8.443  12.827   8.130
75007SOL    HW126860   8.373  12.767   8.105
75007SOL    HW226861   8.461  12.806   8.222
75008SOL     OW26862   8.094   2.406   0.831
75008SOL    HW126863   8.096   2.499   0.851
75008SOL    HW226864   8.036   2.399   0.755
75009SOL     OW26865  12.346  13.103   6.615
75009SOL    HW126866  12.303  13.033   6.664
75009SOL    HW226867  12.286  13.177   6.621
75010SOL     OW26868   2.054   1.843   7.659
75010SOL    HW126869   2.024   1.761   7.621
75010SOL    HW226870   2.130   1.820   7.712
75011SOL     OW26871   3.829  13.240  11.966
75011SOL    HW126872   3.811  13.170  12.029
75011SOL    HW226873   3.855  13.315  12.019
75012SOL     OW26874  13.762  13.143  11.038
75012SOL    HW126875  13.777  13.212  10.973
75012SOL    HW226876  13.669  13.151  11.060
75013SOL     OW26877  11.877   1.564   6.540
75013SOL    HW126878  11.839   1.575   6.627
75013SOL    HW226879  11.950   1.503   6.552
75014SOL     OW26880   5.546  11.813   3.355
75014SOL    HW126881   5.480  11.755   3.393
75014SOL    HW226882   5.506  11.900   3.360
75015SOL     OW26883   9.811   0.204  11.002
75015SOL    HW126884   9.766   0.193  11.085
75015SOL    HW226885   9.852   0.119  10.985
75016SOL     OW26886   3.278   3.486   6.478
75016SOL    HW126887   3.203   3.455   6.529
75016SOL    HW226888   3.304   3.411   6.425
75017SOL     OW26889   5.266  12.399   9.626
75017SOL    HW126890   5.259  12.492   9.645
75017SOL    HW226891   5.259  12.356   9.711
75018SOL     OW26892   5.177   4.574   5.258
75018SOL    HW126893   5.273   4.571   5.254
75018SOL    HW226894   5.157   4.653   5.308
75019SOL     OW26895   5.304   7.828   3.120
75019SOL    HW126896   5.351   7.911   3.111
75019SOL    HW226897   5.349   7.782   3.191
75020SOL     OW26898   8.081   3.656   3.553
75020SOL    HW126899   8.169   3.684   3.578
75020SOL    HW226900   8.078   3.562   3.571
75021SOL     OW26901   7.769  13.484   6.265
75021SOL    HW126902   7.679  13.513   6.249
75021SOL    HW226903   7.767  13.449   6.354
75022SOL     OW26904   1.886   8.480  10.107
75022SOL    HW126905   1.924   8.392  10.110
75022SOL    HW226906   1.881   8.508  10.198
75023SOL     OW26907   6.462  14.419   1.251
75023SOL    HW126908   6.526  14.348   1.260
75023SOL    HW226909   6.488  14.464   1.171
75024SOL     OW26910   1.014   6.437   9.986
75024SOL    HW126911   0.935   6.401   9.946
75024SOL    HW226912   1.025   6.523   9.944
75025SOL     OW26913   2.370   8.272   1.799
75025SOL    HW126914   2.310   8.345   1.786
75025SOL    HW226915   2.431   8.277   1.726
75026SOL     OW26916   1.026   9.841   4.688
75026SOL    HW126917   0.979   9.897   4.750
75026SOL    HW226918   1.078   9.783   4.743
75027SOL     OW26919   0.955   2.256   8.614
75027SOL    HW126920   1.044   2.228   8.634
75027SOL    HW226921   0.944   2.337   8.664
75028SOL     OW26922   4.704   6.056   2.597
75028SOL    HW126923   4.723   6.093   2.683
75028SOL    HW226924   4.775   6.088   2.541
75029SOL     OW26925  11.382   7.330  14.035
75029SOL    HW126926  11.363   7.424  14.035
75029SOL    HW226927  11.297   7.289  14.052
75030SOL     OW26928  12.737   9.055   4.308
75030SOL    HW126929  12.653   9.015   4.326
75030SOL    HW226930  12.723   9.149   4.322
75031SOL     OW26931   0.442   5.270   3.233
75031SOL    HW126932   0.462   5.208   3.303
75031SOL    HW226933   0.391   5.339   3.276
75032SOL     OW26934  13.078  11.737  10.372
75032SOL    HW126935  13.004  11.718  10.314
75032SOL    HW226936  13.068  11.829  10.396
75033SOL     OW26937   9.339  14.022  13.634
75033SOL    HW126938   9.395  14.085  13.679
75033SOL    HW226939   9.257  14.069  13.618
75034SOL     OW26940   6.836   5.670  12.451
75034SOL    HW126941   6.891   5.749  12.458
75034SOL    HW226942   6.746   5.703  12.454
75035SOL     OW26943   4.732   9.242  10.319
75035SOL    HW126944   4.815   9.197  10.337
75035SOL    HW226945   4.740   9.272  10.228
75036SOL     OW26946   2.826   4.251  14.520
75036SOL    HW126947   2.817   4.225  14.612
75036SOL    HW226948   2.889   4.322  14.521
75037SOL     OW26949   3.223   7.453   9.325
75037SOL    HW126950   3.257   7.389   9.262
75037SOL    HW226951   3.132   7.467   9.299
75038SOL     OW26952   6.354   3.094   6.106
75038SOL    HW126953   6.302   3.119   6.183
75038SOL    HW226954   6.333   3.161   6.041
75039SOL     OW26955   5.988  11.330   6.628
75039SOL    HW126956   6.005  11.236   6.621
75039SOL    HW226957   5.975  11.360   6.538
75040SOL     OW26958  12.639   9.244  13.033
75040SOL    HW126959  12.706   9.181  13.004
75040SOL    HW226960  12.680   9.291  13.105
75041SOL     OW26961   2.331   3.998   7.358
75041SOL    HW126962   2.356   4.089   7.339
75041SOL    HW226963   2.414   3.953   7.373
75042SOL     OW26964   7.387   2.630  13.033
75042SOL    HW126965   7.322   2.659  12.970
75042SOL    HW226966   7.347   2.555  13.077
75043SOL     OW26967   2.330   6.387   2.761
75043SOL    HW126968   2.343   6.481   2.747
75043SOL    HW226969   2.408   6.346   2.724
75044SOL     OW26970   2.611   3.060   8.155
75044SOL    HW126971   2.564   2.986   8.116
75044SOL    HW226972   2.545   3.104   8.209
75045SOL     OW26973   7.951   9.015   8.998
75045SOL    HW126974   8.038   8.981   8.979
75045SOL    HW226975   7.904   8.942   9.039
75046SOL     OW26976  13.965  10.948   3.367
75046SOL    HW126977  13.966  11.043   3.372
75046SOL    HW226978  13.888  10.927   3.315
75047SOL     OW26979   9.678  11.769  14.363
75047SOL    HW126980   9.651  11.679  14.347
75047SOL    HW226981   9.611  11.822  14.320
75048SOL     OW26982   3.454   3.926   6.544
75048SOL    HW126983   3.454   3.873   6.624
75048SOL    HW226984   3.469   4.016   6.575
75049SOL     OW26985   3.986  13.450  11.162
75049SOL    HW126986   3.916  13.387  11.180
75049SOL    HW226987   3.980  13.514  11.232
75050SOL     OW26988   9.766   2.785   6.036
75050SOL    HW126989   9.819   2.724   6.087
75050SOL    HW226990   9.676   2.767   6.063
75051SOL     OW26991   7.735   0.323   9.572
75051SOL    HW126992   7.655   0.336   9.521
75051SOL    HW226993   7.804   0.362   9.518
75052SOL     OW26994   8.067  13.428   2.435
75052SOL    HW126995   8.151  13.465   2.463
75052SOL    HW226996   8.039  13.486   2.364
75053SOL     OW26997  10.266   4.846   7.062
75053SOL    HW126998  10.300   4.935   7.067
75053SOL    HW226999  10.311   4.807   6.987
75054SOL     OW27000  13.135   0.239   7.910
75054SOL    HW127001  13.087   0.234   7.828
75054SOL    HW227002  13.112   0.158   7.956
75055SOL     OW27003   5.400   3.444  10.358
75055SOL    HW127004   5.413   3.525  10.407
75055SOL    HW227005   5.329   3.465  10.297
75056SOL     OW27006   7.237  14.037   7.913
75056SOL    HW127007   7.262  13.980   7.986
75056SOL    HW227008   7.256  13.985   7.835
75057SOL     OW27009   9.408   6.979   1.126
75057SOL    HW127010   9.320   6.952   1.151
75057SOL    HW227011   9.429   7.050   1.186
75058SOL     OW27012  10.198  11.076   5.334
75058SOL    HW127013  10.136  11.079   5.406
75058SOL    HW227014  10.249  10.997   5.349
75059SOL     OW27015   8.267   6.346  11.693
75059SOL    HW127016   8.205   6.328  11.623
75059SOL    HW227017   8.315   6.424  11.663
75060SOL     OW27018   3.020   0.464   0.948
75060SOL    HW127019   2.998   0.403   0.877
75060SOL    HW227020   2.943   0.464   1.005
75061SOL     OW27021   3.144   7.002  11.282
75061SOL    HW127022   3.077   7.069  11.272
75061SOL    HW227023   3.194   7.028  11.359
75062SOL     OW27024   5.786   0.379  12.909
75062SOL    HW127025   5.735   0.451  12.871
75062SOL    HW227026   5.795   0.316  12.837
75063SOL     OW27027   6.611   6.706   6.831
75063SOL    HW127028   6.586   6.656   6.908
75063SOL    HW227029   6.688   6.756   6.858
75064SOL     OW27030   6.213   6.702   5.888
75064SOL    HW127031   6.212   6.793   5.857
75064SOL    HW227032   6.149   6.657   5.832
75065SOL     OW27033   5.029   2.909   8.304
75065SOL    HW127034   4.973   2.855   8.360
75065SOL    HW227035   4.982   2.991   8.294
75066SOL     OW27036  13.056   8.205  12.872
75066SOL    HW127037  13.091   8.294  12.870
75066SOL    HW227038  12.973   8.213  12.919
75067SOL     OW27039  13.291  14.037   7.315
75067SOL    HW127040  13.304  14.124   7.278
75067SOL    HW227041  13.276  13.981   7.239
75068SOL     OW27042   9.440   5.516  11.352
75068SOL    HW127043   9.355   5.471  11.352
75068SOL    HW227044   9.443   5.559  11.438
75069SOL     OW27045   7.847   0.259  14.340
75069SOL    HW127046   7.893   0.180  14.311
75069SOL    HW227047   7.826   0.242  14.432
75070SOL     OW27048   5.890  14.814   6.350
75070SOL    HW127049   5.963  14.811   6.412
75070SOL    HW227050   5.876   0.028   6.334
75071SOL     OW27051   9.528  13.417   8.005
75071SOL    HW127052   9.579  13.343   7.973
75071SOL    HW227053   9.594  13.486   8.018
75072SOL     OW27054   6.794  11.192   8.461
75072SOL    HW127055   6.776  11.098   8.462
75072SOL    HW227056   6.733  11.227   8.396
75073SOL     OW27057   1.221  10.916   9.826
75073SOL    HW127058   1.145  10.866   9.857
75073SOL    HW227059   1.196  11.008   9.839
75074SOL     OW27060   0.800  11.152   3.718
75074SOL    HW127061   0.787  11.088   3.648
75074SOL    HW227062   0.713  11.190   3.732
75075SOL     OW27063  10.546  10.682   0.313
75075SOL    HW127064  10.607  10.651   0.247
75075SOL    HW227065  10.578  10.645   0.395
75076SOL     OW27066   7.658   7.773   5.476
75076SOL    HW127067   7.696   7.698   5.521
75076SOL    HW227068   7.578   7.792   5.525
75077SOL     OW27069   1.064   7.885  12.307
75077SOL    HW127070   1.046   7.836  12.227
75077SOL    HW227071   1.136   7.943  12.284
75078SOL     OW27072   7.451  10.086   8.408
75078SOL    HW127073   7.467  10.078   8.502
75078SOL    HW227074   7.446  10.180   8.393
75079SOL     OW27075   9.421  11.574  11.864
75079SOL    HW127076   9.423  11.660  11.822
75079SOL    HW227077   9.338  11.573  11.913
75080SOL     OW27078   2.538  12.980  12.844
75080SOL    HW127079   2.506  12.997  12.756
75080SOL    HW227080   2.571  12.890  12.841
75081SOL     OW27081   2.047   2.818  12.812
75081SOL    HW127082   2.056   2.830  12.718
75081SOL    HW227083   2.023   2.725  12.822
75082SOL     OW27084   7.841   1.367  11.214
75082SOL    HW127085   7.870   1.449  11.174
75082SOL    HW227086   7.837   1.386  11.308
75083SOL     OW27087  14.343   7.283   6.412
75083SOL    HW127088  14.416   7.221   6.415
75083SOL    HW227089  14.362   7.339   6.337
75084SOL     OW27090   5.917   3.946   5.017
75084SOL    HW127091   6.005   3.908   5.010
75084SOL    HW227092   5.889   3.926   5.106
75085SOL     OW27093   3.066  14.255  12.123
75085SOL    HW127094   3.080  14.177  12.070
75085SOL    HW227095   3.131  14.318  12.092
75086SOL     OW27096   5.706   4.080  12.406
75086SOL    HW127097   5.676   4.142  12.339
75086SOL    HW227098   5.625   4.048  12.446
75087SOL     OW27099   7.247  13.105  10.325
75087SOL    HW127100   7.317  13.143  10.378
75087SOL    HW227101   7.281  13.109  10.235
75088SOL     OW27102   4.260   8.314  13.247
75088SOL    HW127103   4.170   8.340  13.228
75088SOL    HW227104   4.310   8.395  13.244
75089SOL     OW27105   8.917   1.849  12.424
75089SOL    HW127106   8.828   1.820  12.445
75089SOL    HW227107   8.936   1.808  12.339
75090SOL     OW27108   2.241   0.451   1.328
75090SOL    HW127109   2.299   0.502   1.271
75090SOL    HW227110   2.236   0.365   1.287
75091SOL     OW27111  14.610  10.159   3.569
75091SOL    HW127112  14.526  10.156   3.615
75091SOL    HW227113  14.600  10.097   3.497
75092SOL     OW27114   2.237   2.682  13.571
75092SOL    HW127115   2.324   2.643  13.578
75092SOL    HW227116   2.253   2.771  13.539
75093SOL     OW27117   8.989   5.276   5.762
75093SOL    HW127118   9.015   5.356   5.808
75093SOL    HW227119   8.938   5.227   5.826
75094SOL     OW27120   1.817   4.950   8.415
75094SOL    HW127121   1.807   5.045   8.421
75094SOL    HW227122   1.893   4.930   8.470
75095SOL     OW27123  12.650   8.380   7.662
75095SOL    HW127124  12.693   8.297   7.680
75095SOL    HW227125  12.679   8.404   7.574
75096SOL     OW27126   2.680   2.167   5.514
75096SOL    HW127127   2.632   2.250   5.514
75096SOL    HW227128   2.612   2.100   5.527
75097SOL     OW27129   5.950   3.076   9.755
75097SOL    HW127130   5.926   3.092   9.663
75097SOL    HW227131   5.968   3.163   9.790
75098SOL     OW27132  13.347   6.468   2.481
75098SOL    HW127133  13.410   6.437   2.546
75098SOL    HW227134  13.398   6.479   2.401
75099SOL     OW27135   7.895  14.681   6.343
75099SOL    HW127136   7.866  14.769   6.366
75099SOL    HW227137   7.919  14.640   6.426
75100SOL     OW27138   2.568  10.319   5.116
75100SOL    HW127139   2.650  10.368   5.124
75100SOL    HW227140   2.536  10.341   5.028
75101SOL     OW27141   2.327   2.074   9.054
75101SOL    HW127142   2.345   1.982   9.075
75101SOL    HW227143   2.411   2.118   9.067
75102SOL     OW27144  13.988  11.935  10.647
75102SOL    HW127145  13.972  11.987  10.725
75102SOL    HW227146  13.903  11.897  10.625
75103SOL     OW27147   9.615   0.029   7.270
75103SOL    HW127148   9.576  14.836   7.320
75103SOL    HW227149   9.622  14.873   7.181
75104SOL     OW27150   3.017  13.534   2.656
75104SOL    HW127151   3.025  13.601   2.724
75104SOL    HW227152   2.923  13.521   2.647
75105SOL     OW27153   8.172   2.133   3.002
75105SOL    HW127154   8.128   2.164   2.923
75105SOL    HW227155   8.109   2.075   3.044
75106SOL     OW27156   2.409   0.192   4.904
75106SOL    HW127157   2.419   0.132   4.978
75106SOL    HW227158   2.494   0.191   4.861
75107SOL     OW27159   3.166   5.424  11.275
75107SOL    HW127160   3.154   5.358  11.343
75107SOL    HW227161   3.202   5.500  11.321
75108SOL     OW27162  12.349   3.467   5.096
75108SOL    HW127163  12.277   3.458   5.160
75108SOL    HW227164  12.308   3.447   5.012
75109SOL     OW27165  11.018   7.091   3.801
75109SOL    HW127166  11.055   7.049   3.878
75109SOL    HW227167  11.095   7.123   3.752
75110SOL     OW27168   2.966   9.969   3.300
75110SOL    HW127169   2.918   9.909   3.358
75110SOL    HW227170   2.958   9.930   3.213
75111SOL     OW27171   6.218   6.400   6.319
75111SOL    HW127172   6.141   6.452   6.343
75111SOL    HW227173   6.247   6.437   6.236
75112SOL     OW27174  12.120   0.791   2.337
75112SOL    HW127175  12.079   0.711   2.369
75112SOL    HW227176  12.150   0.769   2.248
75113SOL     OW27177   5.347   7.117  12.389
75113SOL    HW127178   5.256   7.142  12.373
75113SOL    HW227179   5.387   7.194  12.429
75114SOL     OW27180   2.049   6.051   8.938
75114SOL    HW127181   2.058   6.001   9.019
75114SOL    HW227182   1.955   6.068   8.931
75115SOL     OW27183  11.103   6.556   4.950
75115SOL    HW127184  11.012   6.583   4.938
75115SOL    HW227185  11.154   6.627   4.911
75116SOL     OW27186  13.739   6.368   4.859
75116SOL    HW127187  13.722   6.279   4.828
75116SOL    HW227188  13.741   6.422   4.780
75117SOL     OW27189  14.138  14.515   4.971
75117SOL    HW127190  14.107  14.591   5.022
75117SOL    HW227191  14.218  14.546   4.929
75118SOL     OW27192  14.036  11.990  12.100
75118SOL    HW127193  14.046  11.965  12.008
75118SOL    HW227194  14.088  11.925  12.148
75119SOL     OW27195  11.605  10.529   7.294
75119SOL    HW127196  11.559  10.446   7.284
75119SOL    HW227197  11.645  10.524   7.380
75120SOL     OW27198  11.608   0.822   4.472
75120SOL    HW127199  11.562   0.881   4.532
75120SOL    HW227200  11.679   0.784   4.525
75121SOL     OW27201  13.795   8.424  13.477
75121SOL    HW127202  13.779   8.478  13.399
75121SOL    HW227203  13.741   8.346  13.463
75122SOL     OW27204   1.623  14.571  11.005
75122SOL    HW127205   1.541  14.580  10.956
75122SOL    HW227206   1.685  14.625  10.956
75123SOL     OW27207   8.585   3.694   2.429
75123SOL    HW127208   8.598   3.708   2.336
75123SOL    HW227209   8.499   3.732   2.448
75124SOL     OW27210   3.853  11.883   5.551
75124SOL    HW127211   3.876  11.841   5.634
75124SOL    HW227212   3.936  11.913   5.515
75125SOL     OW27213  10.781  10.945   2.196
75125SOL    HW127214  10.775  11.033   2.161
75125SOL    HW227215  10.726  10.946   2.274
75126SOL     OW27216  14.766  11.582  14.820
75126SOL    HW127217  14.837  11.533  14.779
75126SOL    HW227218  14.806  11.664  14.848
75127SOL     OW27219  14.311  13.125  13.634
75127SOL    HW127220  14.369  13.187  13.589
75127SOL    HW227221  14.294  13.056  13.570
75128SOL     OW27222  10.514   3.776   0.854
75128SOL    HW127223  10.549   3.688   0.866
75128SOL    HW227224  10.529   3.819   0.938
75129SOL     OW27225  12.690   5.120   5.894
75129SOL    HW127226  12.737   5.181   5.838
75129SOL    HW227227  12.678   5.042   5.840
75130SOL     OW27228   8.424   1.623  12.535
75130SOL    HW127229   8.402   1.684  12.605
75130SOL    HW227230   8.437   1.539  12.580
75131SOL     OW27231   3.821   1.109  12.531
75131SOL    HW127232   3.799   1.103  12.438
75131SOL    HW227233   3.743   1.076  12.576
75132SOL     OW27234   0.549  12.683   9.970
75132SOL    HW127235   0.532  12.622  10.042
75132SOL    HW227236   0.598  12.631   9.905
75133SOL     OW27237   6.120   7.175   9.108
75133SOL    HW127238   6.084   7.176   9.019
75133SOL    HW227239   6.051   7.134   9.160
75134SOL     OW27240   6.590   1.858   6.808
75134SOL    HW127241   6.502   1.823   6.792
75134SOL    HW227242   6.599   1.930   6.747
75135SOL     OW27243  14.698  11.800   5.920
75135SOL    HW127244  14.740  11.830   5.839
75135SOL    HW227245  14.746  11.844   5.990
75136SOL     OW27246   3.681   0.343   7.666
75136SOL    HW127247   3.713   0.302   7.585
75136SOL    HW227248   3.595   0.376   7.643
75137SOL     OW27249   2.799   6.855   9.340
75137SOL    HW127250   2.800   6.942   9.301
75137SOL    HW227251   2.884   6.847   9.384
75138SOL     OW27252   8.751  14.581   5.660
75138SOL    HW127253   8.732  14.674   5.647
75138SOL    HW227254   8.781  14.575   5.751
75139SOL     OW27255  10.346  14.625  12.693
75139SOL    HW127256  10.291  14.599  12.619
75139SOL    HW227257  10.319  14.567  12.764
75140SOL     OW27258   9.847   8.175   0.767
75140SOL    HW127259   9.757   8.149   0.787
75140SOL    HW227260   9.892   8.092   0.749
75141SOL     OW27261   7.197   6.724   2.143
75141SOL    HW127262   7.130   6.792   2.139
75141SOL    HW227263   7.249   6.737   2.064
75142SOL     OW27264   3.625  10.339   6.302
75142SOL    HW127265   3.717  10.313   6.296
75142SOL    HW227266   3.610  10.392   6.224
75143SOL     OW27267   4.035  13.615   2.865
75143SOL    HW127268   4.122  13.646   2.891
75143SOL    HW227269   3.993  13.591   2.948
75144SOL     OW27270  13.138  14.076  11.385
75144SOL    HW127271  13.078  14.041  11.319
75144SOL    HW227272  13.094  14.154  11.418
75145SOL     OW27273  14.001  11.625  12.008
75145SOL    HW127274  14.013  11.710  11.966
75145SOL    HW227275  14.007  11.561  11.937
75146SOL     OW27276  11.958  14.660   9.069
75146SOL    HW127277  12.026  14.594   9.054
75146SOL    HW227278  11.876  14.614   9.050
75147SOL     OW27279  12.259  10.473   6.882
75147SOL    HW127280  12.334  10.445   6.831
75147SOL    HW227281  12.212  10.534   6.825
75148SOL     OW27282  12.202   2.714  10.348
75148SOL    HW127283  12.136   2.647  10.362
75148SOL    HW227284  12.165   2.772  10.281
75149SOL     OW27285   2.901   0.471  12.386
75149SOL    HW127286   2.905   0.405  12.317
75149SOL    HW227287   2.817   0.515  12.373
75150SOL     OW27288  12.753   6.916   8.755
75150SOL    HW127289  12.805   6.869   8.690
75150SOL    HW227290  12.693   6.970   8.704
75151SOL     OW27291   4.448   0.297   8.277
75151SOL    HW127292   4.400   0.373   8.243
75151SOL    HW227293   4.428   0.226   8.215
75152SOL     OW27294  13.713   1.119  10.338
75152SOL    HW127295  13.793   1.094  10.385
75152SOL    HW227296  13.686   1.201  10.378
75153SOL     OW27297   0.262   4.145   1.163
75153SOL    HW127298   0.260   4.235   1.132
75153SOL    HW227299   0.186   4.104   1.120
75154SOL     OW27300   9.390  13.213   1.166
75154SOL    HW127301   9.344  13.173   1.092
75154SOL    HW227302   9.482  13.190   1.153
75155SOL     OW27303  10.395   8.044   2.765
75155SOL    HW127304  10.365   8.025   2.676
75155SOL    HW227305  10.370   7.966   2.815
75156SOL     OW27306  13.577  11.813  12.003
75156SOL    HW127307  13.531  11.887  12.041
75156SOL    HW227308  13.513  11.742  12.003
75157SOL     OW27309  11.565   2.851   3.542
75157SOL    HW127310  11.531   2.877   3.628
75157SOL    HW227311  11.563   2.755   3.543
75158SOL     OW27312   5.595   9.784   9.466
75158SOL    HW127313   5.553   9.763   9.382
75158SOL    HW227314   5.531   9.758   9.532
75159SOL     OW27315  11.168   2.324  13.384
75159SOL    HW127316  11.109   2.324  13.309
75159SOL    HW227317  11.249   2.285  13.352
75160SOL     OW27318   0.717   5.907   6.299
75160SOL    HW127319   0.788   5.963   6.329
75160SOL    HW227320   0.724   5.828   6.353
75161SOL     OW27321   3.149   0.515   3.246
75161SOL    HW127322   3.227   0.543   3.199
75161SOL    HW227323   3.169   0.426   3.274
75162SOL     OW27324  11.054   2.606   7.963
75162SOL    HW127325  11.092   2.683   8.005
75162SOL    HW227326  10.975   2.639   7.920
75163SOL     OW27327   6.405   7.680  11.474
75163SOL    HW127328   6.416   7.727  11.391
75163SOL    HW227329   6.325   7.718  11.512
75164SOL     OW27330   6.130   7.249   5.789
75164SOL    HW127331   6.082   7.187   5.734
75164SOL    HW227332   6.122   7.213   5.877
75165SOL     OW27333   1.740   9.433   8.830
75165SOL    HW127334   1.811   9.370   8.816
75165SOL    HW227335   1.662   9.391   8.793
75166SOL     OW27336   1.550   6.053  10.001
75166SOL    HW127337   1.592   5.977   9.960
75166SOL    HW227338   1.620   6.119  10.004
75167SOL     OW27339   2.322  12.546   9.329
75167SOL    HW127340   2.394  12.483   9.322
75167SOL    HW227341   2.261  12.505   9.391
75168SOL     OW27342   4.002   9.309  14.652
75168SOL    HW127343   4.050   9.340  14.575
75168SOL    HW227344   4.069   9.268  14.707
75169SOL     OW27345   0.173   0.694  10.029
75169SOL    HW127346   0.091   0.678  10.076
75169SOL    HW227347   0.241   0.666  10.091
75170SOL     OW27348   1.083   0.996  11.908
75170SOL    HW127349   1.174   1.011  11.936
75170SOL    HW227350   1.043   0.950  11.982
75171SOL     OW27351   5.615   4.776   6.320
75171SOL    HW127352   5.556   4.706   6.294
75171SOL    HW227353   5.600   4.788   6.413
75172SOL     OW27354   3.470  12.573   8.692
75172SOL    HW127355   3.510  12.656   8.664
75172SOL    HW227356   3.544  12.518   8.716
75173SOL     OW27357   6.217   8.284   0.967
75173SOL    HW127358   6.147   8.341   0.935
75173SOL    HW227359   6.298   8.333   0.949
75174SOL     OW27360   1.753   5.755   5.913
75174SOL    HW127361   1.753   5.682   5.974
75174SOL    HW227362   1.667   5.795   5.923
75175SOL     OW27363   9.823   5.333   1.509
75175SOL    HW127364   9.890   5.363   1.571
75175SOL    HW227365   9.743   5.376   1.537
75176SOL     OW27366  12.274  11.337  10.407
75176SOL    HW127367  12.316  11.285  10.475
75176SOL    HW227368  12.184  11.346  10.435
75177SOL     OW27369  10.170  11.157  12.601
75177SOL    HW127370  10.204  11.243  12.577
75177SOL    HW227371  10.202  11.143  12.690
75178SOL     OW27372   5.596   7.775  13.136
75178SOL    HW127373   5.544   7.769  13.056
75178SOL    HW227374   5.636   7.688  13.146
75179SOL     OW27375   8.391   3.865   5.707
75179SOL    HW127376   8.365   3.842   5.796
75179SOL    HW227377   8.315   3.844   5.653
75180SOL     OW27378   9.799   2.556  13.342
75180SOL    HW127379   9.745   2.628  13.309
75180SOL    HW227380   9.739   2.505  13.397
75181SOL     OW27381   9.275  14.378  14.386
75181SOL    HW127382   9.192  14.361  14.431
75181SOL    HW227383   9.271  14.471  14.364
75182SOL     OW27384   8.925   1.245   7.792
75182SOL    HW127385   8.886   1.330   7.769
75182SOL    HW227386   8.861   1.204   7.849
75183SOL     OW27387   1.633  10.407   2.923
75183SOL    HW127388   1.721  10.394   2.959
75183SOL    HW227389   1.579  10.344   2.970
75184SOL     OW27390   6.677  10.634   9.366
75184SOL    HW127391   6.759  10.651   9.413
75184SOL    HW227392   6.701  10.638   9.274
75185SOL     OW27393  14.820   8.441  13.665
75185SOL    HW127394   0.029   8.462  13.636
75185SOL    HW227395  14.832   8.386  13.743
75186SOL     OW27396  11.537   1.236   3.377
75186SOL    HW127397  11.551   1.229   3.471
75186SOL    HW227398  11.508   1.326   3.363
75187SOL     OW27399   8.252   4.549  10.520
75187SOL    HW127400   8.214   4.553  10.608
75187SOL    HW227401   8.195   4.603  10.466
75188SOL     OW27402   3.218   3.944   0.848
75188SOL    HW127403   3.181   4.031   0.860
75188SOL    HW227404   3.182   3.914   0.765
75189SOL     OW27405   2.252   3.071   7.932
75189SOL    HW127406   2.315   3.142   7.934
75189SOL    HW227407   2.191   3.090   8.004
75190SOL     OW27408   5.630   3.485  12.868
75190SOL    HW127409   5.694   3.489  12.939
75190SOL    HW227410   5.654   3.557  12.810
75191SOL     OW27411   7.265   4.884   7.426
75191SOL    HW127412   7.247   4.790   7.428
75191SOL    HW227413   7.303   4.903   7.512
75192SOL     OW27414   8.080   5.441   5.965
75192SOL    HW127415   8.149   5.500   5.996
75192SOL    HW227416   8.118   5.398   5.888
75193SOL     OW27417   0.946   6.785  11.231
75193SOL    HW127418   1.017   6.725  11.253
75193SOL    HW227419   0.934   6.775  11.137
75194SOL     OW27420   3.994   4.228   7.150
75194SOL    HW127421   3.911   4.256   7.188
75194SOL    HW227422   4.000   4.277   7.067
75195SOL     OW27423  13.018   8.469  11.100
75195SOL    HW127424  12.939   8.438  11.145
75195SOL    HW227425  13.058   8.531  11.162
75196SOL     OW27426   1.021   7.429   5.170
75196SOL    HW127427   1.090   7.495   5.180
75196SOL    HW227428   0.971   7.458   5.094
75197SOL     OW27429   6.572  11.566   4.255
75197SOL    HW127430   6.643  11.615   4.297
75197SOL    HW227431   6.504  11.632   4.239
75198SOL     OW27432   5.467   2.393  13.321
75198SOL    HW127433   5.519   2.317  13.348
75198SOL    HW227434   5.482   2.458  13.389
75199SOL     OW27435   2.916  13.846   3.265
75199SOL    HW127436   2.831  13.816   3.231
75199SOL    HW227437   2.914  13.941   3.253
75200SOL     OW27438   3.974  13.845  11.178
75200SOL    HW127439   3.997  13.873  11.267
75200SOL    HW227440   3.926  13.920  11.142
75201SOL     OW27441   5.151   5.717   5.865
75201SOL    HW127442   5.147   5.634   5.818
75201SOL    HW227443   5.060   5.747   5.867
75202SOL     OW27444  13.319   4.304   7.628
75202SOL    HW127445  13.267   4.343   7.557
75202SOL    HW227446  13.408   4.300   7.593
75203SOL     OW27447  12.281   3.138  10.966
75203SOL    HW127448  12.206   3.131  10.907
75203SOL    HW227449  12.354   3.164  10.910
75204SOL     OW27450  11.671   7.462  12.765
75204SOL    HW127451  11.740   7.396  12.759
75204SOL    HW227452  11.687   7.505  12.849
75205SOL     OW27453   9.021   0.192   2.223
75205SOL    HW127454   8.939   0.227   2.189
75205SOL    HW227455   9.068   0.161   2.146
75206SOL     OW27456  14.341  11.260  10.579
75206SOL    HW127457  14.340  11.276  10.485
75206SOL    HW227458  14.361  11.167  10.587
75207SOL     OW27459   1.705  11.504  13.046
75207SOL    HW127460   1.664  11.552  13.118
75207SOL    HW227461   1.652  11.425  13.036
75208SOL     OW27462  13.763   1.048   8.610
75208SOL    HW127463  13.744   1.069   8.518
75208SOL    HW227464  13.701   0.979   8.633
75209SOL     OW27465   8.556  10.883   6.398
75209SOL    HW127466   8.534  10.952   6.461
75209SOL    HW227467   8.497  10.899   6.324
75210SOL     OW27468  12.278   6.972  14.523
75210SOL    HW127469  12.196   6.928  14.505
75210SOL    HW227470  12.275   6.992  14.617
75211SOL     OW27471   7.278   4.156   5.330
75211SOL    HW127472   7.222   4.231   5.311
75211SOL    HW227473   7.362   4.178   5.289
75212SOL     OW27474   5.613  10.325  11.876
75212SOL    HW127475   5.611  10.232  11.856
75212SOL    HW227476   5.692  10.357  11.831
75213SOL     OW27477   4.142  10.275   9.780
75213SOL    HW127478   4.055  10.263   9.742
75213SOL    HW227479   4.131  10.248   9.872
75214SOL     OW27480   3.879   9.351  10.131
75214SOL    HW127481   3.877   9.447  10.129
75214SOL    HW227482   3.888   9.329  10.224
75215SOL     OW27483   1.066   6.333   2.314
75215SOL    HW127484   1.113   6.372   2.240
75215SOL    HW227485   1.061   6.240   2.293
75216SOL     OW27486   2.034   7.459   1.525
75216SOL    HW127487   2.106   7.401   1.498
75216SOL    HW227488   2.078   7.539   1.552
75217SOL     OW27489   6.100  14.499  13.329
75217SOL    HW127490   6.110  14.472  13.420
75217SOL    HW227491   6.164  14.445  13.282
75218SOL     OW27492  14.405  11.657  10.990
75218SOL    HW127493  14.361  11.613  10.917
75218SOL    HW227494  14.481  11.601  11.010
75219SOL     OW27495   8.098   2.027  11.115
75219SOL    HW127496   8.142   1.946  11.089
75219SOL    HW227497   8.088   2.019  11.210
75220SOL     OW27498  13.327   6.555   8.723
75220SOL    HW127499  13.308   6.603   8.642
75220SOL    HW227500  13.364   6.472   8.694
75221SOL     OW27501   0.112   9.944   0.735
75221SOL    HW127502   0.167  10.006   0.686
75221SOL    HW227503   0.133   9.859   0.696
75222SOL     OW27504   0.428  11.425   7.974
75222SOL    HW127505   0.466  11.363   8.037
75222SOL    HW227506   0.334  11.405   7.974
75223SOL     OW27507   4.821  12.175  11.125
75223SOL    HW127508   4.795  12.097  11.175
75223SOL    HW227509   4.876  12.142  11.054
75224SOL     OW27510  11.681   3.037   4.223
75224SOL    HW127511  11.754   3.058   4.281
75224SOL    HW227512  11.613   3.003   4.281
75225SOL     OW27513   5.895   0.878  14.690
75225SOL    HW127514   5.837   0.805  14.711
75225SOL    HW227515   5.862   0.912  14.606
75226SOL     OW27516  11.020  13.372  11.197
75226SOL    HW127517  11.024  13.464  11.172
75226SOL    HW227518  10.928  13.358  11.219
75227SOL     OW27519   0.215   0.892   4.698
75227SOL    HW127520   0.212   0.967   4.639
75227SOL    HW227521   0.177   0.924   4.780
75228SOL     OW27522   5.182  14.524  12.941
75228SOL    HW127523   5.102  14.554  12.984
75228SOL    HW227524   5.154  14.450  12.887
75229SOL     OW27525  12.014  11.148   4.717
75229SOL    HW127526  12.018  11.151   4.621
75229SOL    HW227527  11.933  11.101   4.736
75230SOL     OW27528   5.517   4.357   2.822
75230SOL    HW127529   5.495   4.446   2.848
75230SOL    HW227530   5.608   4.346   2.849
75231SOL     OW27531  13.000   0.379  13.799
75231SOL    HW127532  13.043   0.464  13.806
75231SOL    HW227533  12.994   0.347  13.889
75232SOL     OW27534   9.111  12.937   4.468
75232SOL    HW127535   9.045  12.907   4.530
75232SOL    HW227536   9.192  12.941   4.519
75233SOL     OW27537   3.695  12.186  12.746
75233SOL    HW127538   3.653  12.163  12.663
75233SOL    HW227539   3.787  12.197  12.724
75234SOL     OW27540  11.155   7.510   8.146
75234SOL    HW127541  11.075   7.556   8.118
75234SOL    HW227542  11.123   7.429   8.184
75235SOL     OW27543  12.752   3.109   8.341
75235SOL    HW127544  12.801   3.105   8.258
75235SOL    HW227545  12.667   3.145   8.316
75236SOL     OW27546  12.798   5.961   8.459
75236SOL    HW127547  12.712   5.942   8.421
75236SOL    HW227548  12.793   5.929   8.549
75237SOL     OW27549   6.011   7.369  11.308
75237SOL    HW127550   6.083   7.412  11.262
75237SOL    HW227551   5.932   7.409  11.272
75238SOL     OW27552   0.088   9.876   5.471
75238SOL    HW127553   0.103   9.959   5.426
75238SOL    HW227554   0.164   9.866   5.528
75239SOL     OW27555   5.787   2.996   5.394
75239SOL    HW127556   5.851   2.944   5.442
75239SOL    HW227557   5.753   3.057   5.459
75240SOL     OW27558   1.449  12.359   9.265
75240SOL    HW127559   1.431  12.430   9.326
75240SOL    HW227560   1.543  12.342   9.274
75241SOL     OW27561   7.317   3.133   2.993
75241SOL    HW127562   7.320   3.124   2.898
75241SOL    HW227563   7.403   3.168   3.017
75242SOL     OW27564  10.162  10.019  12.737
75242SOL    HW127565  10.105  10.021  12.661
75242SOL    HW227566  10.104  10.037  12.811
75243SOL     OW27567   7.459   0.360   9.248
75243SOL    HW127568   7.554   0.369   9.248
75243SOL    HW227569   7.438   0.327   9.161
75244SOL     OW27570   0.158   2.199   7.997
75244SOL    HW127571   0.216   2.159   7.933
75244SOL    HW227572   0.083   2.230   7.945
75245SOL     OW27573   8.859   1.400   9.652
75245SOL    HW127574   8.880   1.444   9.734
75245SOL    HW227575   8.910   1.319   9.654
75246SOL     OW27576   8.350   7.993   1.918
75246SOL    HW127577   8.293   8.040   1.858
75246SOL    HW227578   8.436   8.032   1.906
75247SOL     OW27579   1.252   7.757  11.301
75247SOL    HW127580   1.259   7.686  11.364
75247SOL    HW227581   1.230   7.713  11.218
75248SOL     OW27582  12.047   1.124  13.804
75248SOL    HW127583  12.030   1.055  13.868
75248SOL    HW227584  12.137   1.109  13.776
75249SOL     OW27585   4.605   8.219  13.441
75249SOL    HW127586   4.551   8.140  13.447
75249SOL    HW227587   4.584   8.255  13.355
75250SOL     OW27588  11.344  12.057   1.876
75250SOL    HW127589  11.435  12.030   1.862
75250SOL    HW227590  11.316  12.008   1.953
75251SOL     OW27591   1.133  12.077  13.447
75251SOL    HW127592   1.136  12.053  13.540
75251SOL    HW227593   1.202  12.144  13.438
75252SOL     OW27594   2.655  12.124   1.704
75252SOL    HW127595   2.679  12.202   1.754
75252SOL    HW227596   2.735  12.102   1.656
75253SOL     OW27597   3.489   2.729   8.490
75253SOL    HW127598   3.504   2.734   8.584
75253SOL    HW227599   3.395   2.712   8.482
75254SOL     OW27600   1.896   4.506  10.520
75254SOL    HW127601   1.968   4.444  10.507
75254SOL    HW227602   1.927   4.564  10.589
75255SOL     OW27603  14.111   8.199  13.250
75255SOL    HW127604  14.148   8.259  13.314
75255SOL    HW227605  14.144   8.113  13.276
75256SOL     OW27606  13.280   6.486   7.036
75256SOL    HW127607  13.243   6.544   7.103
75256SOL    HW227608  13.209   6.475   6.972
75257SOL     OW27609  12.284   7.516   0.918
75257SOL    HW127610  12.362   7.569   0.902
75257SOL    HW227611  12.299   7.477   1.004
75258SOL     OW27612   7.809   3.170   1.417
75258SOL    HW127613   7.839   3.217   1.339
75258SOL    HW227614   7.864   3.092   1.421
75259SOL     OW27615   8.305  13.715   4.132
75259SOL    HW127616   8.366  13.679   4.197
75259SOL    HW227617   8.362  13.743   4.060
75260SOL     OW27618  13.430  10.035   4.835
75260SOL    HW127619  13.401  10.126   4.836
75260SOL    HW227620  13.514  10.036   4.880
75261SOL     OW27621   8.045   6.686  14.284
75261SOL    HW127622   7.983   6.696  14.212
75261SOL    HW227623   8.013   6.745  14.352
75262SOL     OW27624  12.819   1.411   7.606
75262SOL    HW127625  12.908   1.427   7.574
75262SOL    HW227626  12.779   1.498   7.609
75263SOL     OW27627  11.945  11.928   7.876
75263SOL    HW127628  11.850  11.919   7.872
75263SOL    HW227629  11.966  11.994   7.810
75264SOL     OW27630   7.022   4.456  14.429
75264SOL    HW127631   7.015   4.367  14.465
75264SOL    HW227632   7.055   4.444  14.340
75265SOL     OW27633   3.218  10.359   2.687
75265SOL    HW127634   3.216  10.454   2.672
75265SOL    HW227635   3.204  10.349   2.781
75266SOL     OW27636   8.703  14.699   5.361
75266SOL    HW127637   8.780  14.644   5.374
75266SOL    HW227638   8.634  14.638   5.335
75267SOL     OW27639   8.541  14.182   9.694
75267SOL    HW127640   8.513  14.109   9.748
75267SOL    HW227641   8.566  14.142   9.610
75268SOL     OW27642  12.046   7.574  14.752
75268SOL    HW127643  12.050   7.646  14.815
75268SOL    HW227644  12.087   7.608  14.673
75269SOL     OW27645   5.049  10.923  14.073
75269SOL    HW127646   5.007  10.873  14.144
75269SOL    HW227647   5.139  10.890  14.070
75270SOL     OW27648   8.560   6.864   7.280
75270SOL    HW127649   8.585   6.771   7.288
75270SOL    HW227650   8.614   6.908   7.346
75271SOL     OW27651  11.566   9.823   7.425
75271SOL    HW127652  11.484   9.871   7.430
75271SOL    HW227653  11.544   9.734   7.453
75272SOL     OW27654   4.925  11.322   2.704
75272SOL    HW127655   5.006  11.366   2.675
75272SOL    HW227656   4.912  11.352   2.794
75273SOL     OW27657  12.751  12.971  12.044
75273SOL    HW127658  12.750  13.064  12.020
75273SOL    HW227659  12.768  12.972  12.139
75274SOL     OW27660   8.824   5.802  12.579
75274SOL    HW127661   8.885   5.733  12.554
75274SOL    HW227662   8.829   5.806  12.675
75275SOL     OW27663  12.158   1.689   3.091
75275SOL    HW127664  12.090   1.640   3.136
75275SOL    HW227665  12.235   1.679   3.147
75276SOL     OW27666  12.349   0.691   9.764
75276SOL    HW127667  12.390   0.773   9.738
75276SOL    HW227668  12.394   0.624   9.713
75277SOL     OW27669   6.320   9.191   7.548
75277SOL    HW127670   6.227   9.194   7.570
75277SOL    HW227671   6.356   9.270   7.587
75278SOL     OW27672  10.157   2.603  11.545
75278SOL    HW127673  10.071   2.621  11.508
75278SOL    HW227674  10.143   2.530  11.605
75279SOL     OW27675   1.331  13.307   9.250
75279SOL    HW127676   1.352  13.366   9.322
75279SOL    HW227677   1.415  13.286   9.211
75280SOL     OW27678   7.826  10.699   9.628
75280SOL    HW127679   7.835  10.697   9.533
75280SOL    HW227680   7.854  10.612   9.656
75281SOL     OW27681  10.279   9.749  11.867
75281SOL    HW127682  10.315   9.662  11.850
75281SOL    HW227683  10.337   9.809  11.820
75282SOL     OW27684  12.530   5.442   8.378
75282SOL    HW127685  12.582   5.521   8.391
75282SOL    HW227686  12.537   5.423   8.285
75283SOL     OW27687   1.973   1.572  14.422
75283SOL    HW127688   1.965   1.484  14.459
75283SOL    HW227689   1.982   1.630  14.498
75284SOL     OW27690   9.602  12.998  14.269
75284SOL    HW127691   9.679  13.005  14.213
75284SOL    HW227692   9.582  12.904  14.271
75285SOL     OW27693   2.554   8.155   7.158
75285SOL    HW127694   2.644   8.135   7.132
75285SOL    HW227695   2.563   8.211   7.235
75286SOL     OW27696   0.263   2.260  13.708
75286SOL    HW127697   0.182   2.297  13.673
75286SOL    HW227698   0.324   2.334  13.710
75287SOL     OW27699  11.943   5.207   2.372
75287SOL    HW127700  11.927   5.259   2.452
75287SOL    HW227701  12.025   5.161   2.390
75288SOL     OW27702   1.228   5.988   3.595
75288SOL    HW127703   1.238   6.079   3.624
75288SOL    HW227704   1.223   5.994   3.500
75289SOL     OW27705   8.794   5.520   3.764
75289SOL    HW127706   8.842   5.589   3.718
75289SOL    HW227707   8.858   5.451   3.779
75290SOL     OW27708   6.843  14.172  10.965
75290SOL    HW127709   6.781  14.183  11.038
75290SOL    HW227710   6.792  14.196  10.887
75291SOL     OW27711   8.828   9.353   8.391
75291SOL    HW127712   8.787   9.267   8.395
75291SOL    HW227713   8.911   9.338   8.346
75292SOL     OW27714  11.718  12.117   5.303
75292SOL    HW127715  11.750  12.094   5.390
75292SOL    HW227716  11.628  12.085   5.301
75293SOL     OW27717   3.919  14.392  11.712
75293SOL    HW127718   3.889  14.352  11.794
75293SOL    HW227719   3.916  14.486  11.730
75294SOL     OW27720   5.220  10.991   1.458
75294SOL    HW127721   5.282  10.918   1.450
75294SOL    HW227722   5.173  10.991   1.375
75295SOL     OW27723   9.043  12.606   5.864
75295SOL    HW127724   8.972  12.570   5.918
75295SOL    HW227725   9.012  12.596   5.774
75296SOL     OW27726  11.888   6.222  12.688
75296SOL    HW127727  11.862   6.270  12.609
75296SOL    HW227728  11.983   6.231  12.692
75297SOL     OW27729   9.673   3.825   6.025
75297SOL    HW127730   9.610   3.853   5.959
75297SOL    HW227731   9.740   3.894   6.024
75298SOL     OW27732  13.800   9.802   4.367
75298SOL    HW127733  13.880   9.786   4.317
75298SOL    HW227734  13.729   9.787   4.304
75299SOL     OW27735  14.268   5.958   8.245
75299SOL    HW127736  14.274   5.981   8.338
75299SOL    HW227737  14.352   5.917   8.225
75300SOL     OW27738   7.857   4.811   2.378
75300SOL    HW127739   7.940   4.844   2.411
75300SOL    HW227740   7.862   4.716   2.393
75301SOL     OW27741   0.727   5.014   7.819
75301SOL    HW127742   0.801   5.027   7.878
75301SOL    HW227743   0.726   5.092   7.764
75302SOL     OW27744   8.335   9.373  11.610
75302SOL    HW127745   8.417   9.331  11.583
75302SOL    HW227746   8.362   9.452  11.657
75303SOL     OW27747   9.765  10.224   0.475
75303SOL    HW127748   9.756  10.310   0.516
75303SOL    HW227749   9.831  10.179   0.527
75304SOL     OW27750   4.040  10.187  11.565
75304SOL    HW127751   4.030  10.229  11.650
75304SOL    HW227752   3.963  10.214  11.515
75305SOL     OW27753  14.340  13.495   3.571
75305SOL    HW127754  14.293  13.462   3.495
75305SOL    HW227755  14.400  13.561   3.535
75306SOL     OW27756   6.643   5.742  12.200
75306SOL    HW127757   6.711   5.790  12.152
75306SOL    HW227758   6.596   5.809  12.249
75307SOL     OW27759   1.882  12.068   4.287
75307SOL    HW127760   1.889  12.017   4.206
75307SOL    HW227761   1.942  12.142   4.274
75308SOL     OW27762   7.746   6.957   8.607
75308SOL    HW127763   7.739   6.934   8.515
75308SOL    HW227764   7.808   7.029   8.609
75309SOL     OW27765   8.480   9.496   7.659
75309SOL    HW127766   8.513   9.515   7.571
75309SOL    HW227767   8.457   9.582   7.694
75310SOL     OW27768  13.368   9.047  11.885
75310SOL    HW127769  13.398   9.138  11.882
75310SOL    HW227770  13.334   9.037  11.974
75311SOL     OW27771  14.319   7.945   7.714
75311SOL    HW127772  14.286   7.986   7.634
75311SOL    HW227773  14.359   8.017   7.763
75312SOL     OW27774  10.018  11.428  11.620
75312SOL    HW127775  10.069  11.489  11.673
75312SOL    HW227776  10.061  11.343  11.633
75313SOL     OW27777  10.279   8.410   2.226
75313SOL    HW127778  10.228   8.378   2.152
75313SOL    HW227779  10.264   8.504   2.227
75314SOL     OW27780   7.232  10.443  12.317
75314SOL    HW127781   7.234  10.411  12.227
75314SOL    HW227782   7.324  10.454  12.340
75315SOL     OW27783   3.255   8.077   4.578
75315SOL    HW127784   3.285   7.986   4.578
75315SOL    HW227785   3.176   8.076   4.632
75316SOL     OW27786   2.216   4.103  12.875
75316SOL    HW127787   2.287   4.165  12.854
75316SOL    HW227788   2.254   4.045  12.941
75317SOL     OW27789   0.586  12.711   2.684
75317SOL    HW127790   0.562  12.691   2.775
75317SOL    HW227791   0.538  12.791   2.663
75318SOL     OW27792   2.701  13.878  13.273
75318SOL    HW127793   2.657  13.962  13.254
75318SOL    HW227794   2.793  13.902  13.284
75319SOL     OW27795  13.757  10.886   3.198
75319SOL    HW127796  13.675  10.851   3.234
75319SOL    HW227797  13.734  10.974   3.167
75320SOL     OW27798   6.302   4.591   5.378
75320SOL    HW127799   6.208   4.579   5.386
75320SOL    HW227800   6.314   4.685   5.370
75321SOL     OW27801   6.550   0.051   6.410
75321SOL    HW127802   6.512   0.023   6.494
75321SOL    HW227803   6.585  14.849   6.372
75322SOL     OW27804   6.108   9.429  13.576
75322SOL    HW127805   6.015   9.410  13.586
75322SOL    HW227806   6.132   9.472  13.658
75323SOL     OW27807   2.957  13.461   8.114
75323SOL    HW127808   2.929  13.520   8.044
75323SOL    HW227809   3.005  13.392   8.069
75324SOL     OW27810   4.693  13.477   0.305
75324SOL    HW127811   4.630  13.531   0.258
75324SOL    HW227812   4.704  13.400   0.249
75325SOL     OW27813  11.700   4.716   5.863
75325SOL    HW127814  11.623   4.663   5.844
75325SOL    HW227815  11.676   4.804   5.834
75326SOL     OW27816  13.473   4.022  13.904
75326SOL    HW127817  13.556   3.978  13.919
75326SOL    HW227818  13.438   3.982  13.824
75327SOL     OW27819   3.001  10.762   9.760
75327SOL    HW127820   3.096  10.755   9.762
75327SOL    HW227821   2.972  10.677   9.727
75328SOL     OW27822   1.165   2.131   8.337
75328SOL    HW127823   1.115   2.061   8.296
75328SOL    HW227824   1.156   2.115   8.431
75329SOL     OW27825   8.003   6.131   0.469
75329SOL    HW127826   8.077   6.177   0.430
75329SOL    HW227827   8.041   6.054   0.511
75330SOL     OW27828   4.741  11.660  13.681
75330SOL    HW127829   4.738  11.571  13.645
75330SOL    HW227830   4.702  11.715  13.614
75331SOL     OW27831   0.417   9.686   5.576
75331SOL    HW127832   0.437   9.645   5.492
75331SOL    HW227833   0.337   9.643   5.606
75332SOL     OW27834   1.488  10.966   7.142
75332SOL    HW127835   1.540  10.911   7.201
75332SOL    HW227836   1.399  10.959   7.176
75333SOL     OW27837   6.556  13.067  13.120
75333SOL    HW127838   6.618  13.127  13.161
75333SOL    HW227839   6.476  13.119  13.111
75334SOL     OW27840  11.843   1.269   4.001
75334SOL    HW127841  11.936   1.254   3.982
75334SOL    HW227842  11.827   1.221   4.083
75335SOL     OW27843   6.852   0.968  12.378
75335SOL    HW127844   6.901   0.899  12.424
75335SOL    HW227845   6.836   1.034  12.444
75336SOL     OW27846   7.435   8.229   1.825
75336SOL    HW127847   7.425   8.302   1.886
75336SOL    HW227848   7.512   8.182   1.857
75337SOL     OW27849   1.242   7.067   8.705
75337SOL    HW127850   1.207   6.986   8.668
75337SOL    HW227851   1.287   7.109   8.631
75338SOL     OW27852   4.783   7.507   0.642
75338SOL    HW127853   4.815   7.591   0.674
75338SOL    HW227854   4.803   7.507   0.548
75339SOL     OW27855   4.590   8.239   6.779
75339SOL    HW127856   4.680   8.211   6.757
75339SOL    HW227857   4.569   8.189   6.858
75340SOL     OW27858  12.188   7.616   9.044
75340SOL    HW127859  12.097   7.604   9.070
75340SOL    HW227860  12.239   7.596   9.123
75341SOL     OW27861  12.141   1.192  10.433
75341SOL    HW127862  12.184   1.113  10.401
75341SOL    HW227863  12.050   1.183  10.404
75342SOL     OW27864   6.945   2.988  12.758
75342SOL    HW127865   7.008   3.008  12.689
75342SOL    HW227866   6.997   2.952  12.829
75343SOL     OW27867   9.230   2.238   0.456
75343SOL    HW127868   9.271   2.307   0.404
75343SOL    HW227869   9.186   2.182   0.392
75344SOL     OW27870   9.037  13.606   0.030
75344SOL    HW127871   9.084  13.620  14.827
75344SOL    HW227872   8.985  13.527   0.015
75345SOL     OW27873   3.583  14.317   7.744
75345SOL    HW127874   3.599  14.226   7.720
75345SOL    HW227875   3.670  14.357   7.746
75346SOL     OW27876   7.889   4.896  10.429
75346SOL    HW127877   7.805   4.882  10.471
75346SOL    HW227878   7.944   4.933  10.498
75347SOL     OW27879   6.316   2.720  11.498
75347SOL    HW127880   6.370   2.777  11.443
75347SOL    HW227881   6.373   2.647  11.520
75348SOL     OW27882   8.139   6.398  12.770
75348SOL    HW127883   8.212   6.460  12.763
75348SOL    HW227884   8.137   6.354  12.684
75349SOL     OW27885  12.816   7.285   1.742
75349SOL    HW127886  12.749   7.349   1.766
75349SOL    HW227887  12.859   7.263   1.824
75350SOL     OW27888  14.250  11.100   7.998
75350SOL    HW127889  14.230  11.132   8.085
75350SOL    HW227890  14.214  11.166   7.939
75351SOL     OW27891   7.262   6.077   7.784
75351SOL    HW127892   7.340   6.113   7.742
75351SOL    HW227893   7.202   6.151   7.791
75352SOL     OW27894   1.670  14.633  10.340
75352SOL    HW127895   1.686  14.550  10.295
75352SOL    HW227896   1.725  14.696  10.294
75353SOL     OW27897  10.504   5.451   5.631
75353SOL    HW127898  10.416   5.420   5.609
75353SOL    HW227899  10.513   5.432   5.724
75354SOL     OW27900   7.505  13.594   7.760
75354SOL    HW127901   7.543  13.575   7.846
75354SOL    HW227902   7.573  13.569   7.698
75355SOL     OW27903  12.170   7.790   1.120
75355SOL    HW127904  12.216   7.752   1.045
75355SOL    HW227905  12.183   7.884   1.110
75356SOL     OW27906  10.798   8.356   1.712
75356SOL    HW127907  10.732   8.371   1.645
75356SOL    HW227908  10.881   8.383   1.671
75357SOL     OW27909  12.923  10.189   1.909
75357SOL    HW127910  12.901  10.283   1.913
75357SOL    HW227911  12.914  10.167   1.816
75358SOL     OW27912  13.317   9.390   3.967
75358SOL    HW127913  13.276   9.373   4.052
75358SOL    HW227914  13.367   9.311   3.948
75359SOL     OW27915  12.125   4.527   0.010
75359SOL    HW127916  12.071   4.500  14.815
75359SOL    HW227917  12.077   4.600   0.050
75360SOL     OW27918   5.207  10.311   0.126
75360SOL    HW127919   5.258  10.315   0.045
75360SOL    HW227920   5.167  10.397   0.134
75361SOL     OW27921  13.597   6.523  14.347
75361SOL    HW127922  13.640   6.578  14.413
75361SOL    HW227923  13.664   6.512  14.278
75362SOL     OW27924   2.743   4.378   5.307
75362SOL    HW127925   2.763   4.285   5.308
75362SOL    HW227926   2.826   4.420   5.284
75363SOL     OW27927   9.285   6.017  13.263
75363SOL    HW127928   9.296   6.059  13.348
75363SOL    HW227929   9.204   5.966  13.271
75364SOL     OW27930  13.583   4.905   2.135
75364SOL    HW127931  13.615   4.994   2.154
75364SOL    HW227932  13.500   4.919   2.090
75365SOL     OW27933   6.398   9.178  10.694
75365SOL    HW127934   6.406   9.083  10.709
75365SOL    HW227935   6.404   9.188  10.599
75366SOL     OW27936   7.783   7.437  10.250
75366SOL    HW127937   7.768   7.372  10.319
75366SOL    HW227938   7.736   7.402  10.174
75367SOL     OW27939   1.787   4.373   4.770
75367SOL    HW127940   1.821   4.381   4.681
75367SOL    HW227941   1.841   4.432   4.822
75368SOL     OW27942   1.535   8.348   1.420
75368SOL    HW127943   1.463   8.409   1.406
75368SOL    HW227944   1.517   8.275   1.360
75369SOL     OW27945   1.137   8.379  11.543
75369SOL    HW127946   1.077   8.401  11.471
75369SOL    HW227947   1.093   8.414  11.621
75370SOL     OW27948   8.810   6.703   4.241
75370SOL    HW127949   8.822   6.659   4.325
75370SOL    HW227950   8.898   6.732   4.216
75371SOL     OW27951   7.635  12.527   8.705
75371SOL    HW127952   7.683  12.552   8.784
75371SOL    HW227953   7.676  12.445   8.676
75372SOL     OW27954  12.656   7.598   6.801
75372SOL    HW127955  12.594   7.602   6.727
75372SOL    HW227956  12.673   7.690   6.822
75373SOL     OW27957   1.665   6.325   7.871
75373SOL    HW127958   1.581   6.279   7.871
75373SOL    HW227959   1.676   6.355   7.961
75374SOL     OW27960   2.403  14.608  14.629
75374SOL    HW127961   2.447  14.643  14.551
75374SOL    HW227962   2.310  14.614  14.608
75375SOL     OW27963   8.563   2.438   0.899
75375SOL    HW127964   8.565   2.366   0.961
75375SOL    HW227965   8.652   2.443   0.865
75376SOL     OW27966  12.399   6.781  10.385
75376SOL    HW127967  12.471   6.751  10.329
75376SOL    HW227968  12.362   6.856  10.338
75377SOL     OW27969   3.892  10.164  11.240
75377SOL    HW127970   3.850  10.178  11.155
75377SOL    HW227971   3.982  10.192  11.227
75378SOL     OW27972   0.059   9.363  10.315
75378SOL    HW127973   0.110   9.361  10.396
75378SOL    HW227974  14.853   9.327  10.339
75379SOL     OW27975   7.834   2.610   3.549
75379SOL    HW127976   7.895   2.639   3.617
75379SOL    HW227977   7.860   2.519   3.532
75380SOL     OW27978   6.129   8.745   5.441
75380SOL    HW127979   6.106   8.748   5.534
75380SOL    HW227980   6.225   8.742   5.440
75381SOL     OW27981  13.407  13.425  12.630
75381SOL    HW127982  13.340  13.379  12.681
75381SOL    HW227983  13.378  13.417  12.539
75382SOL     OW27984   8.638   0.643  11.021
75382SOL    HW127985   8.657   0.686  11.104
75382SOL    HW227986   8.589   0.708  10.971
75383SOL     OW27987   6.556   3.812   0.833
75383SOL    HW127988   6.605   3.883   0.791
75383SOL    HW227989   6.595   3.805   0.920
75384SOL     OW27990   1.416   1.888   6.828
75384SOL    HW127991   1.331   1.923   6.855
75384SOL    HW227992   1.408   1.876   6.733
75385SOL     OW27993   4.373   8.225  13.893
75385SOL    HW127994   4.421   8.276  13.958
75385SOL    HW227995   4.358   8.286  13.821
75386SOL     OW27996  10.034   7.993   1.133
75386SOL    HW127997  10.010   7.981   1.225
75386SOL    HW227998   9.952   8.012   1.089
75387SOL     OW27999  10.904  12.526   4.906
75387SOL    HW128000  10.881  12.572   4.986
75387SOL    HW228001  10.999  12.536   4.899
75388SOL     OW28002   3.516  13.803   4.511
75388SOL    HW128003   3.509  13.756   4.594
75388SOL    HW228004   3.539  13.892   4.536
75389SOL     OW28005  13.944   9.240  10.417
75389SOL    HW128006  13.884   9.287  10.476
75389SOL    HW228007  13.971   9.163  10.467
75390SOL     OW28008   4.938  13.059   0.234
75390SOL    HW128009   4.975  13.120   0.298
75390SOL    HW228010   4.968  13.092   0.150
75391SOL     OW28011   4.772   3.972  10.865
75391SOL    HW128012   4.693   3.981  10.810
75391SOL    HW228013   4.759   4.035  10.936
75392SOL     OW28014   9.916   5.671   7.779
75392SOL    HW128015   9.877   5.742   7.728
75392SOL    HW228016  10.010   5.685   7.771
75393SOL     OW28017  14.210   1.871   1.388
75393SOL    HW128018  14.126   1.900   1.352
75393SOL    HW228019  14.193   1.782   1.419
75394SOL     OW28020  10.631  10.178   0.640
75394SOL    HW128021  10.659  10.236   0.711
75394SOL    HW228022  10.547  10.214   0.612
75395SOL     OW28023  11.309  13.336   3.906
75395SOL    HW128024  11.273  13.287   3.980
75395SOL    HW228025  11.404  13.329   3.917
75396SOL     OW28026   1.477   5.247   9.830
75396SOL    HW128027   1.456   5.338   9.850
75396SOL    HW228028   1.451   5.236   9.738
75397SOL     OW28029   3.888  14.467   0.559
75397SOL    HW128030   3.801  14.457   0.521
75397SOL    HW228031   3.922  14.378   0.565
75398SOL     OW28032   5.627  13.838  10.878
75398SOL    HW128033   5.611  13.916  10.931
75398SOL    HW228034   5.717  13.812  10.898
75399SOL     OW28035  14.126  14.667  12.094
75399SOL    HW128036  14.141  14.699  12.182
75399SOL    HW228037  14.212  14.638  12.063
75400SOL     OW28038   6.084  13.775   5.382
75400SOL    HW128039   6.141  13.796   5.307
75400SOL    HW228040   6.002  13.746   5.342
75401SOL     OW28041  14.042   4.031  14.774
75401SOL    HW128042  13.966   4.005  14.722
75401SOL    HW228043  14.058   3.956  14.831
75402SOL     OW28044   5.655   5.885   4.402
75402SOL    HW128045   5.602   5.890   4.481
75402SOL    HW228046   5.732   5.834   4.428
75403SOL     OW28047   9.708  11.217   7.030
75403SOL    HW128048   9.759  11.178   7.101
75403SOL    HW228049   9.721  11.158   6.955
75404SOL     OW28050  14.497   1.974   4.630
75404SOL    HW128051  14.488   1.993   4.536
75404SOL    HW228052  14.512   2.059   4.670
75405SOL     OW28053   2.689   2.061   8.018
75405SOL    HW128054   2.727   2.000   7.955
75405SOL    HW228055   2.631   2.008   8.071
75406SOL     OW28056   6.563  13.133   9.585
75406SOL    HW128057   6.596  13.046   9.608
75406SOL    HW228058   6.581  13.187   9.662
75407SOL     OW28059   9.554   8.599  13.478
75407SOL    HW128060   9.589   8.512  13.460
75407SOL    HW228061   9.551   8.605  13.573
75408SOL     OW28062  11.474   1.317   6.436
75408SOL    HW128063  11.519   1.241   6.400
75408SOL    HW228064  11.532   1.391   6.416
75409SOL     OW28065   8.313   8.046   5.354
75409SOL    HW128066   8.310   8.136   5.386
75409SOL    HW228067   8.394   8.040   5.303
75410SOL     OW28068   0.046   1.135  10.630
75410SOL    HW128069   0.139   1.126  10.609
75410SOL    HW228070   0.005   1.058  10.591
75411SOL     OW28071   2.386   5.849   7.626
75411SOL    HW128072   2.437   5.783   7.672
75411SOL    HW228073   2.436   5.868   7.547
75412SOL     OW28074   6.236   3.385  12.586
75412SOL    HW128075   6.252   3.474  12.615
75412SOL    HW228076   6.144   3.384  12.561
75413SOL     OW28077   1.126   1.915  10.766
75413SOL    HW128078   1.101   1.849  10.702
75413SOL    HW228079   1.054   1.979  10.765
75414SOL     OW28080   3.639  12.223   9.989
75414SOL    HW128081   3.692  12.299  10.015
75414SOL    HW228082   3.670  12.202   9.901
75415SOL     OW28083   7.548   1.455   6.702
75415SOL    HW128084   7.590   1.387   6.754
75415SOL    HW228085   7.456   1.428   6.697
75416SOL     OW28086   3.579   7.999   9.590
75416SOL    HW128087   3.536   7.987   9.506
75416SOL    HW228088   3.586   8.094   9.600
75417SOL     OW28089  10.548   4.671   8.640
75417SOL    HW128090  10.463   4.628   8.652
75417SOL    HW228091  10.609   4.618   8.691
75418SOL     OW28092  14.351   4.383   8.211
75418SOL    HW128093  14.335   4.289   8.200
75418SOL    HW228094  14.439   4.387   8.248
75419SOL     OW28095   8.451   5.158  11.663
75419SOL    HW128096   8.359   5.136  11.650
75419SOL    HW228097   8.479   5.101  11.736
75420SOL     OW28098   0.759  11.241  10.747
75420SOL    HW128099   0.818  11.298  10.795
75420SOL    HW228100   0.794  11.153  10.761
75421SOL     OW28101   4.615  12.075   7.820
75421SOL    HW128102   4.643  12.018   7.747
75421SOL    HW228103   4.604  12.161   7.780
75422SOL     OW28104   3.591   7.577  13.972
75422SOL    HW128105   3.610   7.650  13.914
75422SOL    HW228106   3.675   7.559  14.015
75423SOL     OW28107   5.023   0.743   9.389
75423SOL    HW128108   4.957   0.779   9.449
75423SOL    HW228109   5.103   0.738   9.441
75424SOL     OW28110  12.511   8.328   5.212
75424SOL    HW128111  12.606   8.340   5.222
75424SOL    HW228112  12.493   8.360   5.123
75425SOL     OW28113   5.505   6.736   8.151
75425SOL    HW128114   5.481   6.792   8.078
75425SOL    HW228115   5.428   6.736   8.207
75426SOL     OW28116   7.143  13.093  10.802
75426SOL    HW128117   7.194  13.033  10.748
75426SOL    HW228118   7.168  13.181  10.772
75427SOL     OW28119  13.452  12.572   9.752
75427SOL    HW128120  13.406  12.564   9.835
75427SOL    HW228121  13.541  12.543   9.771
75428SOL     OW28122   7.212  12.393   9.264
75428SOL    HW128123   7.249  12.472   9.227
75428SOL    HW228124   7.220  12.327   9.195
75429SOL     OW28125   8.043   5.757   1.882
75429SOL    HW128126   8.066   5.702   1.807
75429SOL    HW228127   8.082   5.842   1.862
75430SOL     OW28128   4.573  10.348   8.906
75430SOL    HW128129   4.546  10.437   8.930
75430SOL    HW228130   4.557  10.343   8.812
75431SOL     OW28131   2.940   5.613   6.895
75431SOL    HW128132   2.998   5.650   6.828
75431SOL    HW228133   2.852   5.633   6.864
75432SOL     OW28134   1.052  13.787  14.635
75432SOL    HW128135   0.967  13.805  14.676
75432SOL    HW228136   1.114  13.786  14.708
75433SOL     OW28137  12.815   2.318   4.870
75433SOL    HW128138  12.838   2.337   4.960
75433SOL    HW228139  12.723   2.292   4.874
75434SOL     OW28140   6.949  11.483  11.282
75434SOL    HW128141   6.935  11.500  11.375
75434SOL    HW228142   6.862  11.462  11.248
75435SOL     OW28143  11.104   5.758   5.385
75435SOL    HW128144  11.171   5.748   5.452
75435SOL    HW228145  11.102   5.852   5.366
75436SOL     OW28146  12.104   3.305   2.650
75436SOL    HW128147  12.121   3.359   2.728
75436SOL    HW228148  12.072   3.222   2.686
75437SOL     OW28149   2.711  12.823   0.973
75437SOL    HW128150   2.731  12.774   0.894
75437SOL    HW228151   2.795  12.831   1.019
75438SOL     OW28152   1.330   5.790   4.456
75438SOL    HW128153   1.283   5.813   4.537
75438SOL    HW228154   1.317   5.696   4.447
75439SOL     OW28155  12.676   2.918  11.902
75439SOL    HW128156  12.758   2.892  11.945
75439SOL    HW228157  12.700   2.993  11.848
75440SOL     OW28158  11.949  10.881   5.316
75440SOL    HW128159  11.886  10.815   5.286
75440SOL    HW228160  11.894  10.954   5.346
75441SOL     OW28161   6.848   6.505   8.721
75441SOL    HW128162   6.850   6.475   8.630
75441SOL    HW228163   6.755   6.520   8.739
75442SOL     OW28164   8.925   5.576   7.040
75442SOL    HW128165   8.853   5.521   7.010
75442SOL    HW228166   8.997   5.515   7.056
75443SOL     OW28167   7.681   4.890   2.576
75443SOL    HW128168   7.692   4.985   2.584
75443SOL    HW228169   7.720   4.867   2.492
75444SOL     OW28170  10.851   1.195  11.725
75444SOL    HW128171  10.834   1.173  11.633
75444SOL    HW228172  10.842   1.112  11.772
75445SOL     OW28173  13.490   9.395   5.560
75445SOL    HW128174  13.415   9.337   5.545
75445SOL    HW228175  13.525   9.368   5.645
75446SOL     OW28176   4.909   6.726  11.763
75446SOL    HW128177   4.994   6.760  11.789
75446SOL    HW228178   4.873   6.792  11.704
75447SOL     OW28179   6.687   3.072   3.008
75447SOL    HW128180   6.760   3.011   3.016
75447SOL    HW228181   6.646   3.073   3.094
75448SOL     OW28182   8.662   5.578   6.253
75448SOL    HW128183   8.738   5.533   6.217
75448SOL    HW228184   8.647   5.537   6.338
75449SOL     OW28185   3.198  10.222  11.013
75449SOL    HW128186   3.257  10.176  11.073
75449SOL    HW228187   3.247  10.300  10.987
75450SOL     OW28188  11.697   4.956  13.819
75450SOL    HW128189  11.604   4.948  13.839
75450SOL    HW228190  11.739   4.968  13.904
75451SOL     OW28191   7.693  12.117   0.756
75451SOL    HW128192   7.788  12.129   0.756
75451SOL    HW228193   7.663  12.164   0.834
75452SOL     OW28194   4.660   0.461   9.727
75452SOL    HW128195   4.644   0.370   9.701
75452SOL    HW228196   4.607   0.513   9.667
75453SOL     OW28197   9.049   5.325  12.956
75453SOL    HW128198   9.108   5.311  12.883
75453SOL    HW228199   9.042   5.239  12.998
75454SOL     OW28200  12.425   4.821   1.059
75454SOL    HW128201  12.409   4.769   1.137
75454SOL    HW228202  12.338   4.846   1.028
75455SOL     OW28203   4.589   2.815   1.234
75455SOL    HW128204   4.513   2.868   1.208
75455SOL    HW228205   4.652   2.879   1.267
75456SOL     OW28206  13.383  13.764  10.547
75456SOL    HW128207  13.350  13.851  10.572
75456SOL    HW228208  13.318  13.731  10.485
75457SOL     OW28209  12.674  12.573   7.570
75457SOL    HW128210  12.605  12.627   7.608
75457SOL    HW228211  12.741  12.568   7.639
75458SOL     OW28212   1.555   1.308  14.210
75458SOL    HW128213   1.497   1.233  14.194
75458SOL    HW228214   1.642   1.270  14.216
75459SOL     OW28215   8.009  13.821  13.796
75459SOL    HW128216   7.939  13.791  13.738
75459SOL    HW228217   7.964  13.871  13.865
75460SOL     OW28218   0.224  11.551   5.313
75460SOL    HW128219   0.283  11.496   5.364
75460SOL    HW228220   0.198  11.496   5.239
75461SOL     OW28221   1.301   0.422   9.461
75461SOL    HW128222   1.286   0.511   9.432
75461SOL    HW228223   1.224   0.373   9.432
75462SOL     OW28224  11.263  11.748   7.251
75462SOL    HW128225  11.352  11.714   7.264
75462SOL    HW228226  11.276  11.838   7.223
75463SOL     OW28227   2.214  13.324   2.743
75463SOL    HW128228   2.195  13.418   2.745
75463SOL    HW228229   2.153  13.286   2.807
75464SOL     OW28230   3.088   6.572  14.610
75464SOL    HW128231   3.076   6.518  14.689
75464SOL    HW228232   3.002   6.611  14.595
75465SOL     OW28233  12.351   9.541   7.825
75465SOL    HW128234  12.416   9.472   7.840
75465SOL    HW228235  12.307   9.515   7.744
75466SOL     OW28236  14.876   4.724   9.934
75466SOL    HW128237  14.832   4.722  10.020
75466SOL    HW228238  14.830   4.791   9.885
75467SOL     OW28239   9.549   4.136   6.724
75467SOL    HW128240   9.468   4.124   6.675
75467SOL    HW228241   9.591   4.050   6.721
75468SOL     OW28242  13.071   6.130  13.672
75468SOL    HW128243  13.139   6.184  13.631
75468SOL    HW228244  13.031   6.082  13.599
75469SOL     OW28245  13.788   9.118   1.668
75469SOL    HW128246  13.697   9.093   1.656
75469SOL    HW228247  13.814   9.155   1.584
75470SOL     OW28248  13.784   5.786   8.513
75470SOL    HW128249  13.860   5.745   8.555
75470SOL    HW228250  13.716   5.783   8.580
75471SOL     OW28251   6.913   0.509  11.526
75471SOL    HW128252   6.892   0.526  11.434
75471SOL    HW228253   7.005   0.537  11.535
75472SOL     OW28254  12.364  12.238   5.813
75472SOL    HW128255  12.285  12.248   5.866
75472SOL    HW228256  12.391  12.148   5.827
75473SOL     OW28257   1.765   2.789  11.655
75473SOL    HW128258   1.736   2.841  11.730
75473SOL    HW228259   1.703   2.811  11.585
75474SOL     OW28260   9.189   1.060  11.428
75474SOL    HW128261   9.261   1.037  11.369
75474SOL    HW228262   9.156   0.976  11.459
75475SOL     OW28263  12.463   8.643   8.876
75475SOL    HW128264  12.528   8.654   8.945
75475SOL    HW228265  12.428   8.731   8.861
75476SOL     OW28266   9.634   1.091  12.373
75476SOL    HW128267   9.555   1.141  12.394
75476SOL    HW228268   9.640   1.026  12.443
75477SOL     OW28269   0.884   2.969   5.794
75477SOL    HW128270   0.953   2.954   5.858
75477SOL    HW228271   0.804   2.939   5.837
75478SOL     OW28272   7.182   3.890   2.440
75478SOL    HW128273   7.119   3.933   2.382
75478SOL    HW228274   7.137   3.810   2.468
75479SOL     OW28275  13.850   6.119   0.676
75479SOL    HW128276  13.941   6.112   0.703
75479SOL    HW228277  13.819   6.028   0.672
75480SOL     OW28278   7.368   2.336   4.918
75480SOL    HW128279   7.461   2.356   4.926
75480SOL    HW228280   7.341   2.309   5.005
75481SOL     OW28281   0.775   6.714  14.871
75481SOL    HW128282   0.829   6.771   0.047
75481SOL    HW228283   0.830   6.693  14.796
75482SOL     OW28284  10.041   5.696   3.571
75482SOL    HW128285   9.957   5.660   3.600
75482SOL    HW228286  10.089   5.620   3.538
75483SOL     OW28287  13.522  12.995   0.687
75483SOL    HW128288  13.470  12.950   0.754
75483SOL    HW228289  13.492  12.958   0.604
75484SOL     OW28290  10.519   2.780   9.050
75484SOL    HW128291  10.500   2.789   8.956
75484SOL    HW228292  10.463   2.845   9.092
75485SOL     OW28293  12.276  11.996   9.173
75485SOL    HW128294  12.304  12.033   9.089
75485SOL    HW228295  12.351  11.946   9.204
75486SOL     OW28296   0.433   5.909   8.094
75486SOL    HW128297   0.429   5.836   8.155
75486SOL    HW228298   0.342   5.931   8.076
75487SOL     OW28299   5.352  12.507   8.730
75487SOL    HW128300   5.399  12.473   8.655
75487SOL    HW228301   5.288  12.439   8.751
75488SOL     OW28302  10.283   2.745   7.162
75488SOL    HW128303  10.298   2.653   7.184
75488SOL    HW228304  10.246   2.783   7.241
75489SOL     OW28305  13.611   7.524   4.136
75489SOL    HW128306  13.682   7.588   4.146
75489SOL    HW228307  13.532   7.573   4.159
75490SOL     OW28308   9.914   5.990  10.714
75490SOL    HW128309   9.892   5.925  10.780
75490SOL    HW228310  10.010   5.985  10.706
75491SOL     OW28311  10.650   3.483   4.028
75491SOL    HW128312  10.604   3.537   3.964
75491SOL    HW228313  10.679   3.546   4.095
75492SOL     OW28314   2.273  12.462   9.873
75492SOL    HW128315   2.349  12.449   9.817
75492SOL    HW228316   2.300  12.530   9.935
75493SOL     OW28317   4.913   0.611   2.298
75493SOL    HW128318   4.980   0.642   2.359
75493SOL    HW228319   4.923   0.516   2.298
75494SOL     OW28320   8.653  11.393   1.478
75494SOL    HW128321   8.646  11.478   1.522
75494SOL    HW228322   8.569  11.383   1.432
75495SOL     OW28323   7.861   5.516  13.155
75495SOL    HW128324   7.853   5.509  13.250
75495SOL    HW228325   7.908   5.598  13.140
75496SOL     OW28326  10.092  13.591   3.780
75496SOL    HW128327  10.122  13.548   3.860
75496SOL    HW228328  10.173  13.614   3.735
75497SOL     OW28329   9.577   2.609   8.470
75497SOL    HW128330   9.519   2.659   8.527
75497SOL    HW228331   9.523   2.590   8.393
75498SOL     OW28332  11.364  10.923  13.550
75498SOL    HW128333  11.282  10.927  13.599
75498SOL    HW228334  11.343  10.871  13.473
75499SOL     OW28335   6.082  10.617   2.126
75499SOL    HW128336   6.002  10.597   2.175
75499SOL    HW228337   6.141  10.655   2.191
75500SOL     OW28338   1.081   9.177   6.634
75500SOL    HW128339   1.011   9.125   6.595
75500SOL    HW228340   1.124   9.218   6.559
75501SOL     OW28341  14.601   8.024  11.920
75501SOL    HW128342  14.535   8.038  11.852
75501SOL    HW228343  14.564   7.955  11.976
75502SOL     OW28344   2.481   7.080  14.055
75502SOL    HW128345   2.396   7.109  14.087
75502SOL    HW228346   2.544   7.134  14.101
75503SOL     OW28347   1.615   8.449   4.049
75503SOL    HW128348   1.664   8.431   3.969
75503SOL    HW228349   1.653   8.529   4.083
75504SOL     OW28350   9.293   1.742   2.754
75504SOL    HW128351   9.229   1.752   2.824
75504SOL    HW228352   9.242   1.711   2.679
75505SOL     OW28353   1.372   0.016   1.286
75505SOL    HW128354   1.337  14.809   1.265
75505SOL    HW228355   1.336   0.036   1.373
75506SOL     OW28356   5.511  14.140  14.651
75506SOL    HW128357   5.476  14.229  14.659
75506SOL    HW228358   5.605  14.149  14.666
75507SOL     OW28359  12.253  12.159   7.496
75507SOL    HW128360  12.267  12.185   7.405
75507SOL    HW228361  12.301  12.223   7.547
75508SOL     OW28362  11.914   8.210   3.540
75508SOL    HW128363  11.934   8.180   3.451
75508SOL    HW228364  11.945   8.139   3.596
75509SOL     OW28365  13.998  11.731   9.762
75509SOL    HW128366  14.007  11.794   9.690
75509SOL    HW228367  13.907  11.741   9.790
75510SOL     OW28368   3.462  14.552  14.292
75510SOL    HW128369   3.439  14.532  14.383
75510SOL    HW228370   3.381  14.539  14.243
75511SOL     OW28371   7.474   1.973  13.441
75511SOL    HW128372   7.390   2.006  13.473
75511SOL    HW228373   7.479   2.003  13.351
75512SOL     OW28374  14.270   7.306   7.663
75512SOL    HW128375  14.220   7.262   7.593
75512SOL    HW228376  14.353   7.329   7.622
75513SOL     OW28377   9.651   6.920   6.960
75513SOL    HW128378   9.675   6.854   7.024
75513SOL    HW228379   9.728   6.976   6.953
75514SOL     OW28380  12.998   3.633  10.991
75514SOL    HW128381  13.056   3.565  10.956
75514SOL    HW228382  12.985   3.693  10.918
75515SOL     OW28383   7.979  11.076  11.071
75515SOL    HW128384   7.927  11.055  11.149
75515SOL    HW228385   7.947  11.162  11.044
75516SOL     OW28386  13.638   1.060   6.997
75516SOL    HW128387  13.725   1.066   7.036
75516SOL    HW228388  13.630   1.140   6.944
75517SOL     OW28389   4.503  14.600   2.807
75517SOL    HW128390   4.511  14.516   2.852
75517SOL    HW228391   4.525  14.665   2.873
75518SOL     OW28392  13.386  14.463   7.940
75518SOL    HW128393  13.416  14.379   7.974
75518SOL    HW228394  13.465  14.518   7.938
75519SOL     OW28395   6.083   3.934   0.876
75519SOL    HW128396   6.067   3.846   0.908
75519SOL    HW228397   6.175   3.950   0.895
75520SOL     OW28398  13.314  12.860   8.758
75520SOL    HW128399  13.278  12.800   8.823
75520SOL    HW228400  13.295  12.818   8.674
75521SOL     OW28401   7.281   4.374  12.433
75521SOL    HW128402   7.213   4.386  12.366
75521SOL    HW228403   7.325   4.293  12.408
75522SOL     OW28404   9.810   9.703   6.580
75522SOL    HW128405   9.880   9.750   6.626
75522SOL    HW228406   9.830   9.715   6.487
75523SOL     OW28407   4.606   9.615   5.711
75523SOL    HW128408   4.687   9.655   5.742
75523SOL    HW228409   4.626   9.521   5.706
75524SOL     OW28410   2.023   1.194   5.374
75524SOL    HW128411   2.101   1.144   5.397
75524SOL    HW228412   2.005   1.170   5.283
75525SOL     OW28413   1.354   5.709   3.765
75525SOL    HW128414   1.278   5.710   3.822
75525SOL    HW228415   1.394   5.795   3.776
75526SOL     OW28416  13.428  13.858   4.668
75526SOL    HW128417  13.363  13.847   4.598
75526SOL    HW228418  13.481  13.932   4.639
75527SOL     OW28419  12.408  10.920   9.509
75527SOL    HW128420  12.431  11.002   9.551
75527SOL    HW228421  12.409  10.940   9.415
75528SOL     OW28422  13.931  10.494   0.065
75528SOL    HW128423  13.944  10.555  14.871
75528SOL    HW228424  13.836  10.484   0.071
75529SOL     OW28425   4.982  14.832   1.184
75529SOL    HW128426   4.948  14.743   1.177
75529SOL    HW228427   5.068  14.829   1.142
75530SOL     OW28428  10.842   0.752  11.548
75530SOL    HW128429  10.915   0.709  11.593
75530SOL    HW228430  10.828   0.699  11.470
75531SOL     OW28431  14.772   1.617  12.861
75531SOL    HW128432  14.751   1.611  12.768
75531SOL    HW228433  14.701   1.571  12.905
75532SOL     OW28434   6.761   3.613   5.787
75532SOL    HW128435   6.700   3.656   5.727
75532SOL    HW228436   6.804   3.547   5.733
75533SOL     OW28437   1.389  14.210  10.284
75533SOL    HW128438   1.441  14.132  10.266
75533SOL    HW228439   1.399  14.264  10.206
75534SOL     OW28440   7.508   6.557  10.359
75534SOL    HW128441   7.572   6.542  10.289
75534SOL    HW228442   7.446   6.485  10.351
75535SOL     OW28443   8.870   9.521  12.248
75535SOL    HW128444   8.938   9.558  12.191
75535SOL    HW228445   8.825   9.458  12.192
75536SOL     OW28446  12.928   2.701  14.753
75536SOL    HW128447  12.936   2.695  14.849
75536SOL    HW228448  12.836   2.722  14.739
75537SOL     OW28449  14.227  12.181  12.111
75537SOL    HW128450  14.175  12.262  12.115
75537SOL    HW228451  14.162  12.112  12.098
75538SOL     OW28452   6.286   5.226  13.742
75538SOL    HW128453   6.353   5.177  13.790
75538SOL    HW228454   6.215   5.238  13.806
75539SOL     OW28455   9.136  10.527   5.029
75539SOL    HW128456   9.047  10.546   5.056
75539SOL    HW228457   9.156  10.592   4.962
75540SOL     OW28458  12.063  14.570   8.117
75540SOL    HW128459  11.975  14.537   8.134
75540SOL    HW228460  12.062  14.595   8.025
75541SOL     OW28461  10.191  11.729   1.787
75541SOL    HW128462  10.256  11.784   1.745
75541SOL    HW228463  10.165  11.777   1.865
75542SOL     OW28464   2.442   8.489  13.183
75542SOL    HW128465   2.510   8.556  13.180
75542SOL    HW228466   2.489   8.407  13.195
75543SOL     OW28467   9.969   3.824   5.022
75543SOL    HW128468   9.933   3.810   4.934
75543SOL    HW228469   9.976   3.736   5.059
75544SOL     OW28470   5.823   5.305   1.001
75544SOL    HW128471   5.890   5.237   1.011
75544SOL    HW228472   5.864   5.384   1.036
75545SOL     OW28473   1.564   9.931  11.055
75545SOL    HW128474   1.541  10.003  10.996
75545SOL    HW228475   1.660   9.933  11.060
75546SOL     OW28476  13.720   6.605   7.066
75546SOL    HW128477  13.676   6.524   7.090
75546SOL    HW228478  13.656   6.653   7.013
75547SOL     OW28479   9.093   9.531   7.734
75547SOL    HW128480   8.998   9.543   7.741
75547SOL    HW228481   9.129   9.578   7.810
75548SOL     OW28482  13.264  12.993   4.986
75548SOL    HW128483  13.239  13.067   5.042
75548SOL    HW228484  13.353  13.013   4.959
75549SOL     OW28485   4.550  11.824   0.982
75549SOL    HW128486   4.471  11.864   0.945
75549SOL    HW228487   4.565  11.871   1.063
75550SOL     OW28488  10.136   3.157  14.021
75550SOL    HW128489  10.205   3.203  13.971
75550SOL    HW228490  10.108   3.086  13.962
75551SOL     OW28491  11.250  14.444  12.724
75551SOL    HW128492  11.203  14.495  12.658
75551SOL    HW228493  11.287  14.371  12.675
75552SOL     OW28494  14.128  12.350   0.833
75552SOL    HW128495  14.129  12.255   0.816
75552SOL    HW228496  14.130  12.357   0.928
75553SOL     OW28497   6.601  11.293  12.890
75553SOL    HW128498   6.508  11.304  12.873
75553SOL    HW228499   6.609  11.205  12.927
75554SOL     OW28500   2.029   0.166   9.331
75554SOL    HW128501   2.011   0.190   9.240
75554SOL    HW228502   1.945   0.180   9.376
75555SOL     OW28503   3.817  13.449  14.173
75555SOL    HW128504   3.841  13.395  14.248
75555SOL    HW228505   3.799  13.385  14.103
75556SOL     OW28506   7.519  11.473   1.253
75556SOL    HW128507   7.544  11.504   1.340
75556SOL    HW228508   7.426  11.451   1.261
75557SOL     OW28509   8.847  14.569  11.602
75557SOL    HW128510   8.897  14.496  11.637
75557SOL    HW228511   8.913  14.631  11.570
75558SOL     OW28512  11.925   4.581   5.972
75558SOL    HW128513  11.854   4.634   5.937
75558SOL    HW228514  11.881   4.505   6.010
75559SOL     OW28515   9.173  12.795   3.971
75559SOL    HW128516   9.100  12.779   3.911
75559SOL    HW228517   9.144  12.759   4.055
75560SOL     OW28518  12.275   3.736   0.062
75560SOL    HW128519  12.202   3.693   0.107
75560SOL    HW228520  12.344   3.739   0.128
75561SOL     OW28521  12.112   5.902  14.186
75561SOL    HW128522  12.062   5.827  14.153
75561SOL    HW228523  12.114   5.890  14.281
75562SOL     OW28524  10.110  11.693  14.293
75562SOL    HW128525  10.027  11.706  14.246
75562SOL    HW228526  10.176  11.689  14.225
75563SOL     OW28527   2.080   3.143   8.137
75563SOL    HW128528   2.097   3.099   8.221
75563SOL    HW228529   2.009   3.204   8.156
75564SOL     OW28530  13.671   9.854   8.261
75564SOL    HW128531  13.648   9.946   8.268
75564SOL    HW228532  13.630   9.813   8.337
75565SOL     OW28533   1.760   7.982   1.382
75565SOL    HW128534   1.667   7.998   1.370
75565SOL    HW228535   1.768   7.950   1.472
75566SOL     OW28536   5.937  13.916   4.199
75566SOL    HW128537   5.920  13.837   4.147
75566SOL    HW228538   5.914  13.891   4.288
75567SOL     OW28539  13.640   3.372   3.243
75567SOL    HW128540  13.611   3.456   3.278
75567SOL    HW228541  13.596   3.307   3.297
75568SOL     OW28542   8.140   3.815   5.984
75568SOL    HW128543   8.116   3.738   6.036
75568SOL    HW228544   8.193   3.869   6.042
75569SOL     OW28545   2.393   7.562   4.729
75569SOL    HW128546   2.327   7.507   4.772
75569SOL    HW228547   2.473   7.548   4.779
75570SOL     OW28548   6.998   4.582   5.060
75570SOL    HW128549   6.911   4.568   5.023
75570SOL    HW228550   7.058   4.546   4.994
75571SOL     OW28551  12.561   9.294  10.919
75571SOL    HW128552  12.653   9.318  10.932
75571SOL    HW228553  12.518   9.375  10.892
75572SOL     OW28554  12.881   0.547  11.375
75572SOL    HW128555  12.826   0.536  11.297
75572SOL    HW228556  12.958   0.594  11.343
75573SOL     OW28557  14.754   8.889  12.097
75573SOL    HW128558  14.715   8.976  12.107
75573SOL    HW228559  14.706   8.849  12.024
75574SOL     OW28560   5.240   1.911   0.716
75574SOL    HW128561   5.313   1.971   0.728
75574SOL    HW228562   5.266   1.832   0.763
75575SOL     OW28563  10.541   3.306   4.656
75575SOL    HW128564  10.596   3.269   4.726
75575SOL    HW228565  10.463   3.338   4.702
75576SOL     OW28566   7.019   5.086   5.960
75576SOL    HW128567   7.026   5.169   5.914
75576SOL    HW228568   7.083   5.091   6.031
75577SOL     OW28569   2.076   8.102   7.787
75577SOL    HW128570   2.143   8.144   7.842
75577SOL    HW228571   2.057   8.020   7.832
75578SOL     OW28572   4.584   6.600   9.686
75578SOL    HW128573   4.500   6.634   9.655
75578SOL    HW228574   4.570   6.585   9.780
75579SOL     OW28575   8.322   8.591  13.835
75579SOL    HW128576   8.409   8.624  13.857
75579SOL    HW228577   8.333   8.550  13.749
75580SOL     OW28578   5.170   9.081   0.012
75580SOL    HW128579   5.097   9.044   0.062
75580SOL    HW228580   5.218   9.005  14.859
75581SOL     OW28581   1.888   9.930  10.358
75581SOL    HW128582   1.892   9.927  10.263
75581SOL    HW228583   1.956   9.869  10.387
75582SOL     OW28584  14.685   3.699   6.218
75582SOL    HW128585  14.763   3.645   6.208
75582SOL    HW228586  14.625   3.666   6.151
75583SOL     OW28587   0.610  12.706   8.601
75583SOL    HW128588   0.606  12.801   8.594
75583SOL    HW228589   0.532  12.674   8.556
75584SOL     OW28590  12.500   4.706  13.979
75584SOL    HW128591  12.499   4.759  14.058
75584SOL    HW228592  12.408   4.690  13.960
75585SOL     OW28593   4.793  14.402  12.411
75585SOL    HW128594   4.766  14.310  12.408
75585SOL    HW228595   4.834  14.417  12.326
75586SOL     OW28596   5.044   8.812   0.391
75586SOL    HW128597   5.016   8.786   0.479
75586SOL    HW228598   5.137   8.789   0.387
75587SOL     OW28599   3.342  11.407   7.027
75587SOL    HW128600   3.381  11.327   7.065
75587SOL    HW228601   3.415  11.469   7.022
75588SOL     OW28602  12.477  14.793   7.942
75588SOL    HW128603  12.502  14.878   7.977
75588SOL    HW228604  12.425  14.814   7.864
75589SOL     OW28605  11.895   3.341  12.678
75589SOL    HW128606  11.904   3.342  12.774
75589SOL    HW228607  11.936   3.259  12.651
75590SOL     OW28608  13.502   2.877  10.463
75590SOL    HW128609  13.552   2.885  10.544
75590SOL    HW228610  13.429   2.938  10.473
75591SOL     OW28611   7.589   1.318  11.099
75591SOL    HW128612   7.607   1.272  11.017
75591SOL    HW228613   7.675   1.341  11.134
75592SOL     OW28614   4.024  10.856   4.337
75592SOL    HW128615   3.979  10.930   4.376
75592SOL    HW228616   4.075  10.893   4.265
75593SOL     OW28617   6.641   9.999  13.369
75593SOL    HW128618   6.726   9.990  13.411
75593SOL    HW228619   6.595   9.917  13.388
75594SOL     OW28620   1.633   1.783  10.873
75594SOL    HW128621   1.539   1.786  10.855
75594SOL    HW228622   1.672   1.762  10.788
75595SOL     OW28623   0.401   3.202   0.923
75595SOL    HW128624   0.387   3.279   0.977
75595SOL    HW228625   0.372   3.229   0.835
75596SOL     OW28626  12.695   9.355   8.184
75596SOL    HW128627  12.730   9.287   8.241
75596SOL    HW228628  12.741   9.344   8.101
75597SOL     OW28629   1.044  14.385  14.681
75597SOL    HW128630   1.053  14.304  14.632
75597SOL    HW228631   1.086  14.367  14.765
75598SOL     OW28632  13.813   0.419   5.972
75598SOL    HW128633  13.771   0.430   5.887
75598SOL    HW228634  13.755   0.359   6.020
75599SOL     OW28635   7.961  13.389   8.101
75599SOL    HW128636   8.010  13.395   8.182
75599SOL    HW228637   7.937  13.480   8.080
75600SOL     OW28638   0.305  14.819  13.571
75600SOL    HW128639   0.266  14.732  13.583
75600SOL    HW228640   0.291  14.838  13.478
75601SOL     OW28641   5.092   2.804   3.175
75601SOL    HW128642   5.085   2.771   3.264
75601SOL    HW228643   5.013   2.772   3.132
75602SOL     OW28644  13.025  11.063  14.363
75602SOL    HW128645  13.091  11.132  14.371
75602SOL    HW228646  13.038  11.029  14.274
75603SOL     OW28647   9.299  12.875  14.031
75603SOL    HW128648   9.361  12.941  14.001
75603SOL    HW228649   9.309  12.803  13.968
75604SOL     OW28650  11.834   5.534   9.126
75604SOL    HW128651  11.906   5.529   9.189
75604SOL    HW228652  11.793   5.448   9.129
75605SOL     OW28653   6.470  11.025  14.708
75605SOL    HW128654   6.381  11.060  14.702
75605SOL    HW228655   6.505  11.033  14.619
75606SOL     OW28656   4.625   5.694   8.505
75606SOL    HW128657   4.703   5.691   8.450
75606SOL    HW228658   4.588   5.605   8.499
75607SOL     OW28659  11.059   3.366   1.928
75607SOL    HW128660  11.092   3.289   1.881
75607SOL    HW228661  11.092   3.440   1.878
75608SOL     OW28662   3.409   0.333   0.518
75608SOL    HW128663   3.333   0.302   0.469
75608SOL    HW228664   3.377   0.340   0.608
75609SOL     OW28665  10.750   3.640   4.232
75609SOL    HW128666  10.783   3.730   4.242
75609SOL    HW228667  10.786   3.593   4.307
75610SOL     OW28668   9.708   5.144   2.097
75610SOL    HW128669   9.786   5.147   2.153
75610SOL    HW228670   9.727   5.206   2.027
75611SOL     OW28671   9.194   4.415  12.711
75611SOL    HW128672   9.216   4.481  12.645
75611SOL    HW228673   9.113   4.375  12.679
75612SOL     OW28674   1.247   4.368   3.176
75612SOL    HW128675   1.223   4.405   3.261
75612SOL    HW228676   1.179   4.400   3.116
75613SOL     OW28677   6.889   8.769   0.278
75613SOL    HW128678   6.893   8.848   0.330
75613SOL    HW228679   6.835   8.708   0.328
75614SOL     OW28680   9.560  12.515   7.355
75614SOL    HW128681   9.522  12.467   7.429
75614SOL    HW228682   9.653  12.491   7.356
75615SOL     OW28683  12.039   4.234  11.086
75615SOL    HW128684  12.098   4.264  11.017
75615SOL    HW228685  12.031   4.139  11.071
75616SOL     OW28686   6.776   5.555   0.386
75616SOL    HW128687   6.735   5.490   0.329
75616SOL    HW228688   6.717   5.562   0.461
75617SOL     OW28689   1.073  13.882   5.326
75617SOL    HW128690   1.142  13.927   5.375
75617SOL    HW228691   0.991  13.913   5.364
75618SOL     OW28692   4.761   0.452  13.742
75618SOL    HW128693   4.853   0.454  13.768
75618SOL    HW228694   4.717   0.404  13.813
75619SOL     OW28695   3.275  13.139   3.364
75619SOL    HW128696   3.366  13.166   3.372
75619SOL    HW228697   3.245  13.178   3.283
75620SOL     OW28698  12.166   9.534   3.767
75620SOL    HW128699  12.185   9.495   3.853
75620SOL    HW228700  12.235   9.600   3.755
75621SOL     OW28701  10.169   8.725   5.743
75621SOL    HW128702  10.083   8.766   5.749
75621SOL    HW228703  10.223   8.789   5.696
75622SOL     OW28704  10.637   6.309   1.038
75622SOL    HW128705  10.618   6.384   1.094
75622SOL    HW228706  10.566   6.247   1.057
75623SOL     OW28707   9.071   9.711   8.820
75623SOL    HW128708   9.073   9.616   8.808
75623SOL    HW228709   8.993   9.727   8.873
75624SOL     OW28710  12.469   0.384   2.348
75624SOL    HW128711  12.484   0.445   2.275
75624SOL    HW228712  12.544   0.398   2.406
75625SOL     OW28713  13.342  13.047   5.507
75625SOL    HW128714  13.374  13.136   5.522
75625SOL    HW228715  13.338  13.039   5.412
75626SOL     OW28716  11.311  11.981   9.170
75626SOL    HW128717  11.220  11.979   9.200
75626SOL    HW228718  11.350  12.056   9.215
75627SOL     OW28719   7.946  11.827   8.712
75627SOL    HW128720   7.999  11.755   8.747
75627SOL    HW228721   7.915  11.795   8.627
75628SOL     OW28722   7.839   5.388  13.833
75628SOL    HW128723   7.785   5.342  13.769
75628SOL    HW228724   7.863   5.470  13.791
75629SOL     OW28725  10.377   7.316   0.520
75629SOL    HW128726  10.358   7.325   0.614
75629SOL    HW228727  10.318   7.378   0.478
75630SOL     OW28728   7.251   7.321   1.354
75630SOL    HW128729   7.283   7.314   1.264
75630SOL    HW228730   7.268   7.411   1.379
75631SOL     OW28731   4.519   2.639  13.408
75631SOL    HW128732   4.482   2.713  13.360
75631SOL    HW228733   4.563   2.679  13.483
75632SOL     OW28734   8.392  13.092   8.052
75632SOL    HW128735   8.299  13.073   8.042
75632SOL    HW228736   8.426  13.021   8.106
75633SOL     OW28737  13.359  10.662  12.286
75633SOL    HW128738  13.442  10.663  12.238
75633SOL    HW228739  13.375  10.607  12.362
75634SOL     OW28740   1.499  12.676  13.561
75634SOL    HW128741   1.435  12.744  13.541
75634SOL    HW228742   1.452  12.614  13.616
75635SOL     OW28743   4.372   8.517   2.838
75635SOL    HW128744   4.390   8.610   2.851
75635SOL    HW228745   4.456   8.474   2.857
75636SOL     OW28746   4.618   2.402  12.556
75636SOL    HW128747   4.581   2.372  12.473
75636SOL    HW228748   4.568   2.355  12.623
75637SOL     OW28749   1.279  14.440  10.789
75637SOL    HW128750   1.283  14.453  10.694
75637SOL    HW228751   1.238  14.354  10.800
75638SOL     OW28752   2.010   3.627   3.147
75638SOL    HW128753   2.003   3.556   3.211
75638SOL    HW228754   1.969   3.702   3.189
75639SOL     OW28755   9.827   7.263   8.814
75639SOL    HW128756   9.917   7.281   8.788
75639SOL    HW228757   9.782   7.346   8.803
75640SOL     OW28758   3.085   8.069  13.312
75640SOL    HW128759   3.179   8.081  13.300
75640SOL    HW228760   3.078   8.001  13.379
75641SOL     OW28761  11.770   8.502   4.958
75641SOL    HW128762  11.707   8.569   4.985
75641SOL    HW228763  11.782   8.517   4.864
75642SOL     OW28764  11.460   1.323   7.462
75642SOL    HW128765  11.510   1.318   7.543
75642SOL    HW228766  11.374   1.357   7.489
75643SOL     OW28767   5.281   8.922   7.788
75643SOL    HW128768   5.353   8.972   7.749
75643SOL    HW228769   5.203   8.973   7.768
75644SOL     OW28770  12.556   6.844  10.809
75644SOL    HW128771  12.616   6.857  10.882
75644SOL    HW228772  12.609   6.858  10.731
75645SOL     OW28773   1.418   8.095   2.613
75645SOL    HW128774   1.413   8.001   2.592
75645SOL    HW228775   1.509   8.109   2.638
75646SOL     OW28776   5.414   9.500   7.818
75646SOL    HW128777   5.413   9.451   7.736
75646SOL    HW228778   5.398   9.590   7.792
75647SOL     OW28779   2.498  11.855  14.810
75647SOL    HW128780   2.477  11.767  14.780
75647SOL    HW228781   2.579  11.877  14.765
75648SOL     OW28782  12.823   4.689   7.140
75648SOL    HW128783  12.762   4.721   7.073
75648SOL    HW228784  12.779   4.707   7.223
75649SOL     OW28785  13.365   1.592  10.346
75649SOL    HW128786  13.346   1.684  10.366
75649SOL    HW228787  13.367   1.549  10.432
75650SOL     OW28788  11.350   6.921   0.319
75650SOL    HW128789  11.295   6.995   0.343
75650SOL    HW228790  11.295   6.844   0.335
75651SOL     OW28791  10.690   5.791  10.249
75651SOL    HW128792  10.756   5.783  10.318
75651SOL    HW228793  10.680   5.885  10.236
75652SOL     OW28794   8.860  11.473   7.670
75652SOL    HW128795   8.772  11.504   7.648
75652SOL    HW228796   8.914  11.551   7.669
75653SOL     OW28797  14.063   4.341   5.389
75653SOL    HW128798  14.102   4.378   5.310
75653SOL    HW228799  14.025   4.416   5.435
75654SOL     OW28800  11.846   2.898  13.456
75654SOL    HW128801  11.773   2.909  13.395
75654SOL    HW228802  11.912   2.961  13.427
75655SOL     OW28803   2.640   2.951  14.020
75655SOL    HW128804   2.602   3.039  14.011
75655SOL    HW228805   2.635   2.932  14.114
75656SOL     OW28806   7.889  12.202  13.914
75656SOL    HW128807   7.856  12.220  13.826
75656SOL    HW228808   7.822  12.148  13.954
75657SOL     OW28809   8.306   9.687   1.580
75657SOL    HW128810   8.370   9.754   1.604
75657SOL    HW228811   8.284   9.644   1.662
75658SOL     OW28812   4.238  14.459   7.117
75658SOL    HW128813   4.177  14.388   7.096
75658SOL    HW228814   4.241  14.512   7.037
75659SOL     OW28815  10.103  13.867  14.595
75659SOL    HW128816  10.045  13.880  14.670
75659SOL    HW228817  10.049  13.886  14.518
75660SOL     OW28818   7.014   3.145   0.030
75660SOL    HW128819   6.938   3.199   0.005
75660SOL    HW228820   7.003   3.065  14.859
75661SOL     OW28821   3.138  10.671  12.141
75661SOL    HW128822   3.208  10.717  12.188
75661SOL    HW228823   3.171  10.581  12.132
75662SOL     OW28824   1.473  10.120   8.743
75662SOL    HW128825   1.430  10.044   8.783
75662SOL    HW228826   1.541  10.082   8.687
75663SOL     OW28827  14.673   3.135   0.341
75663SOL    HW128828  14.634   3.059   0.384
75663SOL    HW228829  14.754   3.101   0.303
75664SOL     OW28830  12.649   1.948   7.379
75664SOL    HW128831  12.663   2.013   7.310
75664SOL    HW228832  12.713   1.879   7.360
75665SOL     OW28833   8.727   9.645  14.084
75665SOL    HW128834   8.705   9.615  13.996
75665SOL    HW228835   8.819   9.623  14.095
75666SOL     OW28836   3.619  14.248   2.255
75666SOL    HW128837   3.679  14.236   2.181
75666SOL    HW228838   3.532  14.254   2.214
75667SOL     OW28839   5.499  13.471   7.509
75667SOL    HW128840   5.493  13.486   7.415
75667SOL    HW228841   5.522  13.378   7.517
75668SOL     OW28842  10.973   6.102  12.950
75668SOL    HW128843  10.936   6.176  12.902
75668SOL    HW228844  10.899   6.042  12.961
75669SOL     OW28845   1.500   6.663   6.451
75669SOL    HW128846   1.426   6.710   6.490
75669SOL    HW228847   1.573   6.724   6.459
75670SOL     OW28848   3.386   7.378  10.512
75670SOL    HW128849   3.355   7.468  10.501
75670SOL    HW228850   3.461   7.385  10.571
75671SOL     OW28851   5.080   3.933  11.154
75671SOL    HW128852   4.993   3.972  11.144
75671SOL    HW228853   5.121   3.985  11.224
75672SOL     OW28854   1.900  10.274   8.976
75672SOL    HW128855   1.886  10.364   8.944
75672SOL    HW228856   1.840  10.266   9.051
75673SOL     OW28857   1.061  11.325  14.127
75673SOL    HW128858   1.006  11.402  14.141
75673SOL    HW228859   1.151  11.357  14.134
75674SOL     OW28860  14.718  14.837   3.355
75674SOL    HW128861  14.784  14.806   3.293
75674SOL    HW228862  14.718   0.053   3.343
75675SOL     OW28863   2.737  11.734   0.937
75675SOL    HW128864   2.676  11.783   0.882
75675SOL    HW228865   2.684  11.666   0.978
75676SOL     OW28866   8.175   0.827  12.166
75676SOL    HW128867   8.236   0.799  12.234
75676SOL    HW228868   8.107   0.875  12.212
75677SOL     OW28869  12.146   1.844   0.590
75677SOL    HW128870  12.111   1.845   0.500
75677SOL    HW228871  12.068   1.846   0.645
75678SOL     OW28872  11.498   4.929   7.761
75678SOL    HW128873  11.414   4.910   7.803
75678SOL    HW228874  11.544   4.985   7.824
75679SOL     OW28875   3.786  14.209  10.725
75679SOL    HW128876   3.861  14.252  10.766
75679SOL    HW228877   3.714  14.271  10.737
75680SOL     OW28878   6.734  13.977   5.471
75680SOL    HW128879   6.669  14.006   5.534
75680SOL    HW228880   6.786  13.911   5.518
75681SOL     OW28881  10.558   9.312   1.325
75681SOL    HW128882  10.510   9.242   1.281
75681SOL    HW228883  10.600   9.269   1.399
75682SOL     OW28884   5.716   9.226  10.640
75682SOL    HW128885   5.694   9.134  10.654
75682SOL    HW228886   5.733   9.232  10.546
75683SOL     OW28887  13.608   1.769  13.652
75683SOL    HW128888  13.528   1.818  13.632
75683SOL    HW228889  13.577   1.687  13.689
75684SOL     OW28890   3.168  10.437   7.963
75684SOL    HW128891   3.228  10.461   7.892
75684SOL    HW228892   3.086  10.483   7.942
75685SOL     OW28893   0.910   3.085   2.675
75685SOL    HW128894   0.960   3.167   2.671
75685SOL    HW228895   0.895   3.071   2.768
75686SOL     OW28896  14.544   8.873   3.143
75686SOL    HW128897  14.481   8.929   3.098
75686SOL    HW228898  14.496   8.837   3.218
75687SOL     OW28899   0.659   2.205  13.172
75687SOL    HW128900   0.597   2.249  13.113
75687SOL    HW228901   0.623   2.219  13.259
75688SOL     OW28902   0.656  12.274   5.147
75688SOL    HW128903   0.623  12.364   5.141
75688SOL    HW228904   0.738  12.282   5.195
75689SOL     OW28905   5.352  10.624  12.153
75689SOL    HW128906   5.379  10.694  12.094
75689SOL    HW228907   5.320  10.670  12.231
75690SOL     OW28908   6.871  14.688   8.132
75690SOL    HW128909   6.954  14.653   8.102
75690SOL    HW228910   6.886  14.712   8.224
75691SOL     OW28911   8.014  10.257   4.197
75691SOL    HW128912   7.969  10.180   4.233
75691SOL    HW228913   8.063  10.293   4.270
75692SOL     OW28914  12.800   9.285   7.309
75692SOL    HW128915  12.803   9.330   7.225
75692SOL    HW228916  12.837   9.348   7.371
75693SOL     OW28917   1.233   6.226   4.290
75693SOL    HW128918   1.154   6.206   4.240
75693SOL    HW228919   1.265   6.308   4.253
75694SOL     OW28920   5.998   4.945   3.950
75694SOL    HW128921   5.994   5.013   3.883
75694SOL    HW228922   5.924   4.964   4.008
75695SOL     OW28923  11.758   0.657  12.778
75695SOL    HW128924  11.826   0.647  12.711
75695SOL    HW228925  11.791   0.608  12.853
75696SOL     OW28926  14.721  13.891   2.790
75696SOL    HW128927  14.796  13.837   2.815
75696SOL    HW228928  14.647  13.853   2.839
75697SOL     OW28929  10.869   3.953  11.863
75697SOL    HW128930  10.864   3.886  11.931
75697SOL    HW228931  10.953   3.996  11.878
75698SOL     OW28932  14.701   9.234   9.078
75698SOL    HW128933  14.714   9.168   9.146
75698SOL    HW228934  14.762   9.304   9.101
75699SOL     OW28935   4.073  14.198  11.104
75699SOL    HW128936   4.062  14.278  11.156
75699SOL    HW228937   4.088  14.129  11.169
75700SOL     OW28938  14.159   8.886   4.004
75700SOL    HW128939  14.117   8.947   4.065
75700SOL    HW228940  14.111   8.804   4.016
75701SOL     OW28941   7.395   2.130   6.866
75701SOL    HW128942   7.414   2.206   6.922
75701SOL    HW228943   7.429   2.055   6.915
75702SOL     OW28944  10.935   3.110   6.678
75702SOL    HW128945  10.975   3.114   6.591
75702SOL    HW228946  10.847   3.076   6.663
75703SOL     OW28947   3.824   9.499  13.365
75703SOL    HW128948   3.778   9.448  13.432
75703SOL    HW228949   3.756   9.551  13.323
75704SOL     OW28950   4.939  10.851   6.574
75704SOL    HW128951   4.931  10.926   6.515
75704SOL    HW228952   5.032  10.828   6.573
75705SOL     OW28953   2.024   9.787   5.925
75705SOL    HW128954   2.021   9.882   5.932
75705SOL    HW228955   2.105   9.769   5.877
75706SOL     OW28956  13.394   9.618  12.032
75706SOL    HW128957  13.317   9.646  11.984
75706SOL    HW228958  13.366   9.539  12.079
75707SOL     OW28959   4.605   9.517  12.721
75707SOL    HW128960   4.677   9.517  12.657
75707SOL    HW228961   4.616   9.599  12.769
75708SOL     OW28962  14.032   7.056   5.753
75708SOL    HW128963  13.973   7.031   5.825
75708SOL    HW228964  13.975   7.102   5.691
75709SOL     OW28965   2.972   2.704   9.774
75709SOL    HW128966   2.902   2.722   9.712
75709SOL    HW228967   3.040   2.767   9.753
75710SOL     OW28968   2.794   3.683  14.303
75710SOL    HW128969   2.713   3.638  14.325
75710SOL    HW228970   2.815   3.736  14.380
75711SOL     OW28971  11.690   2.873   1.140
75711SOL    HW128972  11.665   2.845   1.228
75711SOL    HW228973  11.767   2.820   1.119
75712SOL     OW28974   4.774  13.462   3.469
75712SOL    HW128975   4.726  13.425   3.543
75712SOL    HW228976   4.848  13.507   3.510
75713SOL     OW28977   3.092   5.434  10.655
75713SOL    HW128978   3.100   5.529  10.645
75713SOL    HW228979   2.998   5.419  10.662
75714SOL     OW28980   9.023  11.155  14.065
75714SOL    HW128981   9.107  11.117  14.038
75714SOL    HW228982   8.958  11.109  14.013
75715SOL     OW28983   4.581  13.925   5.530
75715SOL    HW128984   4.658  13.974   5.502
75715SOL    HW228985   4.513  13.948   5.467
75716SOL     OW28986   4.592   6.465   7.252
75716SOL    HW128987   4.553   6.377   7.256
75716SOL    HW228988   4.546   6.507   7.179
75717SOL     OW28989  11.689   2.308   6.328
75717SOL    HW128990  11.662   2.335   6.240
75717SOL    HW228991  11.726   2.387   6.367
75718SOL     OW28992   1.390   5.022   4.835
75718SOL    HW128993   1.305   5.059   4.811
75718SOL    HW228994   1.454   5.084   4.799
75719SOL     OW28995  13.328   7.083   3.850
75719SOL    HW128996  13.343   7.157   3.791
75719SOL    HW228997  13.241   7.099   3.887
75720SOL     OW28998  12.581   2.370   6.007
75720SOL    HW128999  12.633   2.297   6.041
75720SOL    HW229000  12.491   2.348   6.030
75721SOL     OW29001   0.118   3.278   3.034
75721SOL    HW129002   0.203   3.269   2.991
75721SOL    HW229003   0.113   3.371   3.058
75722SOL     OW29004  11.470  11.375   1.949
75722SOL    HW129005  11.513  11.460   1.962
75722SOL    HW229006  11.457  11.341   2.038
75723SOL     OW29007   0.141  14.668   3.657
75723SOL    HW129008   0.184  14.717   3.587
75723SOL    HW229009   0.095  14.596   3.612
75724SOL     OW29010  11.741  14.219  11.976
75724SOL    HW129011  11.771  14.129  11.961
75724SOL    HW229012  11.789  14.247  12.054
75725SOL     OW29013   2.434   5.508   2.793
75725SOL    HW129014   2.343   5.529   2.815
75725SOL    HW229015   2.429   5.468   2.706
75726SOL     OW29016   1.969   7.696  12.024
75726SOL    HW129017   2.033   7.633  11.991
75726SOL    HW229018   1.900   7.642  12.062
75727SOL     OW29019   8.567   2.069  11.392
75727SOL    HW129020   8.610   2.034  11.314
75727SOL    HW229021   8.476   2.042  11.384
75728SOL     OW29022   4.433   4.806   5.220
75728SOL    HW129023   4.493   4.764   5.158
75728SOL    HW229024   4.363   4.841   5.164
75729SOL     OW29025  13.992  12.235   8.040
75729SOL    HW129026  14.085  12.255   8.050
75729SOL    HW229027  13.952  12.266   8.121
75730SOL     OW29028   4.840   5.542   0.577
75730SOL    HW129029   4.929   5.549   0.544
75730SOL    HW229030   4.785   5.573   0.506
75731SOL     OW29031   3.930  10.706   2.374
75731SOL    HW129032   3.869  10.773   2.403
75731SOL    HW229033   3.875  10.631   2.352
75732SOL     OW29034  14.836   3.248   6.839
75732SOL    HW129035  14.843   3.192   6.916
75732SOL    HW229036   0.033   3.305   6.842
75733SOL     OW29037   1.375   5.363  11.410
75733SOL    HW129038   1.326   5.368  11.328
75733SOL    HW229039   1.332   5.425  11.468
75734SOL     OW29040   9.504  14.381  13.117
75734SOL    HW129041   9.516  14.476  13.123
75734SOL    HW229042   9.491  14.353  13.207
75735SOL     OW29043   6.517   9.930  12.417
75735SOL    HW129044   6.590   9.883  12.457
75735SOL    HW229045   6.499   9.883  12.336
75736SOL     OW29046   5.534  12.029  12.530
75736SOL    HW129047   5.452  12.052  12.487
75736SOL    HW229048   5.545  12.095  12.599
75737SOL     OW29049  14.753   1.072   2.762
75737SOL    HW129050  14.751   1.118   2.678
75737SOL    HW229051  14.661   1.060   2.785
75738SOL     OW29052  10.034   9.976   2.462
75738SOL    HW129053   9.981   9.962   2.541
75738SOL    HW229054   9.974   9.956   2.390
75739SOL     OW29055   9.859   0.018  14.608
75739SOL    HW129056   9.852   0.101  14.655
75739SOL    HW229057   9.778  14.850  14.630
75740SOL     OW29058  11.333   0.157   5.340
75740SOL    HW129059  11.274   0.211   5.393
75740SOL    HW229060  11.356   0.213   5.265
75741SOL     OW29061   2.813  12.283   9.532
75741SOL    HW129062   2.861  12.276   9.615
75741SOL    HW229063   2.755  12.207   9.532
75742SOL     OW29064   3.904  14.483   6.073
75742SOL    HW129065   3.982  14.493   6.127
75742SOL    HW229066   3.936  14.490   5.983
75743SOL     OW29067   4.798   0.597   5.622
75743SOL    HW129068   4.877   0.626   5.669
75743SOL    HW229069   4.832   0.545   5.549
75744SOL     OW29070   2.937   6.254   7.045
75744SOL    HW129071   2.935   6.170   6.999
75744SOL    HW229072   3.030   6.275   7.053
75745SOL     OW29073   4.280   2.752  12.881
75745SOL    HW129074   4.354   2.692  12.868
75745SOL    HW229075   4.240   2.722  12.963
75746SOL     OW29076  14.783  13.936   8.229
75746SOL    HW129077  14.705  13.960   8.280
75746SOL    HW229078  14.783  13.998   8.156
75747SOL     OW29079   1.305   3.240  13.908
75747SOL    HW129080   1.334   3.234  13.999
75747SOL    HW229081   1.279   3.151  13.885
75748SOL     OW29082  14.757   2.086  10.890
75748SOL    HW129083  14.755   2.182  10.887
75748SOL    HW229084  14.842   2.063  10.854
75749SOL     OW29085   7.083   3.534   3.614
75749SOL    HW129086   7.103   3.440   3.611
75749SOL    HW229087   7.128   3.571   3.538
75750SOL     OW29088   1.129   6.039   0.665
75750SOL    HW129089   1.166   5.956   0.694
75750SOL    HW229090   1.088   6.076   0.743
75751SOL     OW29091   2.029  14.615   9.583
75751SOL    HW129092   2.112  14.571   9.601
75751SOL    HW229093   2.002  14.651   9.668
75752SOL     OW29094   1.655   2.010   1.279
75752SOL    HW129095   1.724   2.075   1.281
75752SOL    HW229096   1.602   2.033   1.204
75753SOL     OW29097   4.290  13.898   1.443
75753SOL    HW129098   4.300  13.946   1.361
75753SOL    HW229099   4.215  13.841   1.429
75754SOL     OW29100   4.668   0.628   2.604
75754SOL    HW129101   4.670   0.724   2.609
75754SOL    HW229102   4.691   0.599   2.692
75755SOL     OW29103  10.931  13.534   9.921
75755SOL    HW129104  10.943  13.517   9.828
75755SOL    HW229105  10.837  13.546   9.931
75756SOL     OW29106   2.581  11.469  10.495
75756SOL    HW129107   2.564  11.554  10.456
75756SOL    HW229108   2.656  11.484  10.554
75757SOL     OW29109   5.104   4.056  10.505
75757SOL    HW129110   5.077   4.083  10.593
75757SOL    HW229111   5.115   3.961  10.511
75758SOL     OW29112   9.337   4.912   4.369
75758SOL    HW129113   9.342   4.974   4.441
75758SOL    HW229114   9.277   4.952   4.306
75759SOL     OW29115  11.242   9.551   4.202
75759SOL    HW129116  11.195   9.634   4.199
75759SOL    HW229117  11.301   9.555   4.127
75760SOL     OW29118   8.726   0.267   4.156
75760SOL    HW129119   8.793   0.322   4.115
75760SOL    HW229120   8.728   0.292   4.248
75761SOL     OW29121  11.881   0.823   2.576
75761SOL    HW129122  11.952   0.810   2.513
75761SOL    HW229123  11.824   0.747   2.563
75762SOL     OW29124   4.146   6.554   0.827
75762SOL    HW129125   4.173   6.554   0.919
75762SOL    HW229126   4.188   6.477   0.789
75763SOL     OW29127   0.316   7.855   0.684
75763SOL    HW129128   0.383   7.837   0.618
75763SOL    HW229129   0.356   7.919   0.743
75764SOL     OW29130  13.727   3.412  12.793
75764SOL    HW129131  13.776   3.399  12.874
75764SOL    HW229132  13.638   3.382  12.813
75765SOL     OW29133   1.198  14.306   1.254
75765SOL    HW129134   1.277  14.251   1.263
75765SOL    HW229135   1.170  14.321   1.344
75766SOL     OW29136   7.824   8.362  14.156
75766SOL    HW129137   7.793   8.406  14.236
75766SOL    HW229138   7.779   8.408  14.085
75767SOL     OW29139  14.059  11.176   0.309
75767SOL    HW129140  14.076  11.098   0.360
75767SOL    HW229141  14.124  11.240   0.340
75768SOL     OW29142   6.472   4.906   7.772
75768SOL    HW129143   6.524   4.845   7.824
75768SOL    HW229144   6.521   4.916   7.690
75769SOL     OW29145   4.799  12.642  14.075
75769SOL    HW129146   4.713  12.604  14.092
75769SOL    HW229147   4.806  12.642  13.979
75770SOL     OW29148  12.757  13.296   3.118
75770SOL    HW129149  12.665  13.314   3.101
75770SOL    HW229150  12.771  13.324   3.208
75771SOL     OW29151   9.563  12.133   7.215
75771SOL    HW129152   9.586  12.177   7.298
75771SOL    HW229153   9.630  12.162   7.154
75772SOL     OW29154   8.306   1.238  12.218
75772SOL    HW129155   8.366   1.313  12.217
75772SOL    HW229156   8.219   1.276  12.223
75773SOL     OW29157   1.264  13.338   7.300
75773SOL    HW129158   1.213  13.398   7.245
75773SOL    HW229159   1.355  13.357   7.277
75774SOL     OW29160   7.615   2.171   1.656
75774SOL    HW129161   7.612   2.261   1.621
75774SOL    HW229162   7.660   2.180   1.740
75775SOL     OW29163   4.447  12.868   0.719
75775SOL    HW129164   4.358  12.833   0.717
75775SOL    HW229165   4.489  12.823   0.791
75776SOL     OW29166   0.852  12.584  12.129
75776SOL    HW129167   0.805  12.554  12.051
75776SOL    HW229168   0.944  12.565  12.110
75777SOL     OW29169   7.247   4.563  13.547
75777SOL    HW129170   7.213   4.484  13.504
75777SOL    HW229171   7.253   4.628  13.476
75778SOL     OW29172   4.527   5.128  14.701
75778SOL    HW129173   4.577   5.072  14.760
75778SOL    HW229174   4.590   5.157  14.635
75779SOL     OW29175   4.404   2.772   0.723
75779SOL    HW129176   4.343   2.783   0.650
75779SOL    HW229177   4.490   2.770   0.682
75780SOL     OW29178  14.701   2.680  14.237
75780SOL    HW129179  14.643   2.603  14.238
75780SOL    HW229180  14.780   2.651  14.281
75781SOL     OW29181  11.908   9.402   6.637
75781SOL    HW129182  11.871   9.434   6.719
75781SOL    HW229183  11.838   9.410   6.573
75782SOL     OW29184  13.359   2.554   3.139
75782SOL    HW129185  13.331   2.505   3.062
75782SOL    HW229186  13.309   2.516   3.212
75783SOL     OW29187  11.623   8.419  10.402
75783SOL    HW129188  11.558   8.480  10.365
75783SOL    HW229189  11.707   8.459  10.381
75784SOL     OW29190  10.820  14.762   8.975
75784SOL    HW129191  10.744  14.784   8.921
75784SOL    HW229192  10.798  14.677   9.014
75785SOL     OW29193   9.676  14.813  14.421
75785SOL    HW129194   9.765  14.796  14.391
75785SOL    HW229195   9.648   0.010  14.370
75786SOL     OW29196   1.236   7.201   5.285
75786SOL    HW129197   1.319   7.182   5.240
75786SOL    HW229198   1.169   7.160   5.230
75787SOL     OW29199   4.513   7.476  14.787
75787SOL    HW129200   4.554   7.491  14.701
75787SOL    HW229201   4.533   7.555  14.837
75788SOL     OW29202   8.896  10.074   8.126
75788SOL    HW129203   8.906  10.058   8.220
75788SOL    HW229204   8.909  10.168   8.116
75789SOL     OW29205   9.491  13.652   7.595
75789SOL    HW129206   9.417  13.679   7.648
75789SOL    HW229207   9.473  13.690   7.508
75790SOL     OW29208   1.000   2.565  14.740
75790SOL    HW129209   0.909   2.552  14.767
75790SOL    HW229210   1.050   2.564  14.822
75791SOL     OW29211   1.329   0.868   3.687
75791SOL    HW129212   1.350   0.776   3.704
75791SOL    HW229213   1.369   0.916   3.759
75792SOL     OW29214  11.284  13.044   0.203
75792SOL    HW129215  11.326  13.056   0.118
75792SOL    HW229216  11.234  12.963   0.195
75793SOL     OW29217   8.227  10.359  10.176
75793SOL    HW129218   8.209  10.271  10.143
75793SOL    HW229219   8.297  10.346  10.241
75794SOL     OW29220   5.086   6.000   3.355
75794SOL    HW129221   5.070   6.034   3.443
75794SOL    HW229222   5.096   5.905   3.368
75795SOL     OW29223   0.886   8.830   9.201
75795SOL    HW129224   0.978   8.855   9.202
75795SOL    HW229225   0.879   8.761   9.268
75796SOL     OW29226   7.967  13.674  14.100
75796SOL    HW129227   8.004  13.624  14.028
75796SOL    HW229228   8.025  13.656  14.174
75797SOL     OW29229   9.254   0.649   2.023
75797SOL    HW129230   9.282   0.588   1.955
75797SOL    HW229231   9.312   0.629   2.097
75798SOL     OW29232   3.095  14.174   0.030
75798SOL    HW129233   3.188  14.152   0.027
75798SOL    HW229234   3.054  14.112  14.850
75799SOL     OW29235   7.192   5.452   2.630
75799SOL    HW129236   7.251   5.527   2.633
75799SOL    HW229237   7.127   5.474   2.563
75800SOL     OW29238  14.148   8.238   5.594
75800SOL    HW129239  14.087   8.268   5.527
75800SOL    HW229240  14.233   8.270   5.565
75801SOL     OW29241   3.259   4.017   5.079
75801SOL    HW129242   3.255   3.991   5.171
75801SOL    HW229243   3.270   3.935   5.031
75802SOL     OW29244  14.311   9.914   8.105
75802SOL    HW129245  14.277   9.903   8.016
75802SOL    HW229246  14.372   9.841   8.116
75803SOL     OW29247   4.469  13.788  12.285
75803SOL    HW129248   4.518  13.711  12.314
75803SOL    HW229249   4.499  13.859  12.341
75804SOL     OW29250   8.810  12.580  12.166
75804SOL    HW129251   8.745  12.643  12.196
75804SOL    HW229252   8.894  12.619  12.187
75805SOL     OW29253   0.117   4.738  13.882
75805SOL    HW129254   0.128   4.784  13.965
75805SOL    HW229255   0.023   4.734  13.869
75806SOL     OW29256   9.695   5.737   0.952
75806SOL    HW129257   9.649   5.698   1.026
75806SOL    HW229258   9.735   5.817   0.987
75807SOL     OW29259   7.047  11.721   7.054
75807SOL    HW129260   6.964  11.675   7.043
75807SOL    HW229261   7.023  11.814   7.059
75808SOL     OW29262   4.285   0.035   8.677
75808SOL    HW129263   4.250   0.035   8.766
75808SOL    HW229264   4.370  14.870   8.685
75809SOL     OW29265  14.440  11.427  12.231
75809SOL    HW129266  14.448  11.350  12.287
75809SOL    HW229267  14.376  11.402  12.164
75810SOL     OW29268   3.491   1.575  12.614
75810SOL    HW129269   3.491   1.631  12.692
75810SOL    HW229270   3.504   1.486  12.648
75811SOL     OW29271   8.523   5.628  14.630
75811SOL    HW129272   8.487   5.710  14.664
75811SOL    HW229273   8.446   5.578  14.603
75812SOL     OW29274   9.876  13.842   3.242
75812SOL    HW129275   9.895  13.753   3.214
75812SOL    HW229276   9.799  13.833   3.299
75813SOL     OW29277   7.973   5.471  14.847
75813SOL    HW129278   7.966   5.545  14.787
75813SOL    HW229279   7.961   5.509   0.055
75814SOL     OW29280  10.507   5.236   8.376
75814SOL    HW129281  10.565   5.309   8.397
75814SOL    HW229282  10.562   5.158   8.388
75815SOL     OW29283   6.473   7.976   7.277
75815SOL    HW129284   6.469   8.060   7.231
75815SOL    HW229285   6.498   7.998   7.366
75816SOL     OW29286   4.447   7.889   7.881
75816SOL    HW129287   4.507   7.962   7.897
75816SOL    HW229288   4.480   7.819   7.937
75817SOL     OW29289   6.057   7.977  13.287
75817SOL    HW129290   6.011   7.970  13.370
75817SOL    HW229291   6.114   7.900  13.284
75818SOL     OW29292   4.501   8.963   3.152
75818SOL    HW129293   4.519   9.055   3.134
75818SOL    HW229294   4.582   8.929   3.188
75819SOL     OW29295   1.751   3.138   5.923
75819SOL    HW129296   1.800   3.170   5.848
75819SOL    HW229297   1.717   3.216   5.966
75820SOL     OW29298   8.325   9.060   1.997
75820SOL    HW129299   8.367   9.044   2.082
75820SOL    HW229300   8.247   9.005   1.998
75821SOL     OW29301   2.312  14.573   2.456
75821SOL    HW129302   2.407  14.574   2.444
75821SOL    HW229303   2.277  14.559   2.368
75822SOL     OW29304   9.234   4.827  11.339
75822SOL    HW129305   9.318   4.857  11.374
75822SOL    HW229306   9.255   4.747  11.291
75823SOL     OW29307   0.854   2.530  10.064
75823SOL    HW129308   0.801   2.464  10.019
75823SOL    HW229309   0.901   2.481  10.132
75824SOL     OW29310   6.650   4.030   6.327
75824SOL    HW129311   6.667   4.042   6.421
75824SOL    HW229312   6.683   4.111   6.287
75825SOL     OW29313   9.180   1.748   0.411
75825SOL    HW129314   9.127   1.731   0.490
75825SOL    HW229315   9.229   1.827   0.432
75826SOL     OW29316  10.767   7.491   9.720
75826SOL    HW129317  10.861   7.474   9.711
75826SOL    HW229318  10.727   7.404   9.713
75827SOL     OW29319   6.526  10.818   2.773
75827SOL    HW129320   6.495  10.891   2.719
75827SOL    HW229321   6.602  10.853   2.821
75828SOL     OW29322   6.315   1.588   3.277
75828SOL    HW129323   6.255   1.559   3.208
75828SOL    HW229324   6.352   1.670   3.244
75829SOL     OW29325  13.473   7.132   4.624
75829SOL    HW129326  13.422   7.052   4.636
75829SOL    HW229327  13.508   7.125   4.535
75830SOL     OW29328   5.811   4.629   7.192
75830SOL    HW129329   5.818   4.535   7.209
75830SOL    HW229330   5.888   4.667   7.234
75831SOL     OW29331  13.529  14.046  11.793
75831SOL    HW129332  13.599  14.003  11.744
75831SOL    HW229333  13.463  14.067  11.727
75832SOL     OW29334   2.379   6.193   3.820
75832SOL    HW129335   2.395   6.211   3.727
75832SOL    HW229336   2.466   6.181   3.858
75833SOL     OW29337   8.926   1.012   9.955
75833SOL    HW129338   8.899   1.055   9.873
75833SOL    HW229339   8.845   0.974   9.989
75834SOL     OW29340   2.672  12.846   8.491
75834SOL    HW129341   2.684  12.941   8.498
75834SOL    HW229342   2.733  12.809   8.556
75835SOL     OW29343  11.369   3.343   9.563
75835SOL    HW129344  11.421   3.339   9.483
75835SOL    HW229345  11.347   3.252   9.582
75836SOL     OW29346  13.183   2.799   2.894
75836SOL    HW129347  13.105   2.779   2.946
75836SOL    HW229348  13.199   2.892   2.910
75837SOL     OW29349   0.242   7.017   6.253
75837SOL    HW129350   0.302   7.042   6.182
75837SOL    HW229351   0.287   6.947   6.300
75838SOL     OW29352  13.310   9.100  12.924
75838SOL    HW129353  13.332   9.104  13.017
75838SOL    HW229354  13.224   9.143  12.918
75839SOL     OW29355  11.772  14.506   1.376
75839SOL    HW129356  11.762  14.411   1.371
75839SOL    HW229357  11.851  14.519   1.429
75840SOL     OW29358   5.141   3.029   9.386
75840SOL    HW129359   5.194   2.989   9.456
75840SOL    HW229360   5.204   3.080   9.335
75841SOL     OW29361   7.067   7.305   1.718
75841SOL    HW129362   7.158   7.305   1.747
75841SOL    HW229363   7.017   7.305   1.799
75842SOL     OW29364   5.122   6.575   9.833
75842SOL    HW129365   5.091   6.615   9.751
75842SOL    HW229366   5.079   6.625   9.902
75843SOL     OW29367   8.424   0.955   8.741
75843SOL    HW129368   8.337   0.967   8.703
75843SOL    HW229369   8.481   0.941   8.666
75844SOL     OW29370  14.856   0.696   9.048
75844SOL    HW129371   0.005   0.610   9.079
75844SOL    HW229372   0.049   0.755   9.070
75845SOL     OW29373   0.069   1.665  10.838
75845SOL    HW129374   0.055   1.657  10.744
75845SOL    HW229375  14.862   1.647  10.877
75846SOL     OW29376   0.378   3.127   6.961
75846SOL    HW129377   0.450   3.076   6.925
75846SOL    HW229378   0.391   3.124   7.055
75847SOL     OW29379  10.943   9.778   7.754
75847SOL    HW129380  10.978   9.805   7.669
75847SOL    HW229381  10.940   9.682   7.749
75848SOL     OW29382   7.409   3.215  11.227
75848SOL    HW129383   7.499   3.194  11.204
75848SOL    HW229384   7.416   3.292  11.284
75849SOL     OW29385   1.566  12.012  12.457
75849SOL    HW129386   1.525  11.929  12.479
75849SOL    HW229387   1.636  12.023  12.522
75850SOL     OW29388   1.766  10.230   8.402
75850SOL    HW129389   1.818  10.269   8.472
75850SOL    HW229390   1.810  10.256   8.321
75851SOL     OW29391   7.003  14.712  14.415
75851SOL    HW129392   7.066  14.642  14.398
75851SOL    HW229393   7.056  14.783  14.453
75852SOL     OW29394  11.927   9.550   3.556
75852SOL    HW129395  11.929   9.645   3.551
75852SOL    HW229396  12.014   9.523   3.526
75853SOL     OW29397   4.491   9.257  14.877
75853SOL    HW129398   4.533   9.327  14.826
75853SOL    HW229399   4.527   9.267   0.086
75854SOL     OW29400   6.375  14.523  14.607
75854SOL    HW129401   6.432  14.470  14.551
75854SOL    HW229402   6.327  14.579  14.547
75855SOL     OW29403   6.672   3.375   5.441
75855SOL    HW129404   6.731   3.305   5.466
75855SOL    HW229405   6.692   3.393   5.349
75856SOL     OW29406   0.591   8.577  11.472
75856SOL    HW129407   0.563   8.653  11.422
75856SOL    HW229408   0.564   8.502  11.420
75857SOL     OW29409   1.823  11.714  11.718
75857SOL    HW129410   1.855  11.653  11.784
75857SOL    HW229411   1.885  11.706  11.646
75858SOL     OW29412  11.604   5.721   0.700
75858SOL    HW129413  11.673   5.786   0.712
75858SOL    HW229414  11.603   5.672   0.782
75859SOL     OW29415   1.819  12.190   5.092
75859SOL    HW129416   1.837  12.254   5.023
75859SOL    HW229417   1.738  12.148   5.065
75860SOL     OW29418  10.823   5.539   7.318
75860SOL    HW129419  10.883   5.567   7.248
75860SOL    HW229420  10.799   5.449   7.295
75861SOL     OW29421   4.163   8.416   2.710
75861SOL    HW129422   4.195   8.355   2.644
75861SOL    HW229423   4.241   8.458   2.744
75862SOL     OW29424   4.355   1.904   5.984
75862SOL    HW129425   4.398   1.871   5.905
75862SOL    HW229426   4.268   1.931   5.954
75863SOL     OW29427   9.316   5.326  14.698
75863SOL    HW129428   9.251   5.282  14.643
75863SOL    HW229429   9.281   5.415  14.708
75864SOL     OW29430   7.460   2.936   2.155
75864SOL    HW129431   7.414   2.985   2.086
75864SOL    HW229432   7.393   2.921   2.222
75865SOL     OW29433   6.713   2.025  11.813
75865SOL    HW129434   6.682   1.976  11.889
75865SOL    HW229435   6.636   2.034  11.758
75866SOL     OW29436   8.295   7.573   2.040
75866SOL    HW129437   8.231   7.502   2.039
75866SOL    HW229438   8.372   7.535   2.083
75867SOL     OW29439   7.795  11.031   3.664
75867SOL    HW129440   7.871  10.989   3.624
75867SOL    HW229441   7.773  10.975   3.738
75868SOL     OW29442   5.585   8.506  13.666
75868SOL    HW129443   5.524   8.523  13.738
75868SOL    HW229444   5.596   8.591  13.624
75869SOL     OW29445   6.561   4.511   9.053
75869SOL    HW129446   6.546   4.427   9.096
75869SOL    HW229447   6.575   4.572   9.125
75870SOL     OW29448  14.091   8.725   4.278
75870SOL    HW129449  14.065   8.674   4.201
75870SOL    HW229450  14.013   8.776   4.300
75871SOL     OW29451  12.965   5.603   3.613
75871SOL    HW129452  12.984   5.587   3.521
75871SOL    HW229453  12.990   5.695   3.627
75872SOL     OW29454   5.520  10.950  13.499
75872SOL    HW129455   5.605  10.940  13.541
75872SOL    HW229456   5.513  10.876  13.440
75873SOL     OW29457   0.121   9.067   5.323
75873SOL    HW129458   0.077   9.025   5.396
75873SOL    HW229459   0.105   9.009   5.249
75874SOL     OW29460   8.034   0.513   0.541
75874SOL    HW129461   7.956   0.490   0.491
75874SOL    HW229462   8.086   0.433   0.542
75875SOL     OW29463   1.620  12.077   3.112
75875SOL    HW129464   1.603  12.168   3.135
75875SOL    HW229465   1.534  12.037   3.104
75876SOL     OW29466   0.133   8.735   6.781
75876SOL    HW129467   0.164   8.676   6.711
75876SOL    HW229468   0.213   8.770   6.820
75877SOL     OW29469   2.743   1.916   2.496
75877SOL    HW129470   2.774   1.827   2.512
75877SOL    HW229471   2.767   1.964   2.575
75878SOL     OW29472  13.615   4.205   3.738
75878SOL    HW129473  13.622   4.291   3.779
75878SOL    HW229474  13.702   4.189   3.700
75879SOL     OW29475   4.664   7.239   4.446
75879SOL    HW129476   4.717   7.280   4.514
75879SOL    HW229477   4.574   7.252   4.475
75880SOL     OW29478   5.150  12.481   6.522
75880SOL    HW129479   5.127  12.564   6.480
75880SOL    HW229480   5.147  12.500   6.616
75881SOL     OW29481   3.010   7.940   4.619
75881SOL    HW129482   3.017   7.856   4.664
75881SOL    HW229483   2.975   8.000   4.685
75882SOL     OW29484   9.881   7.475   8.262
75882SOL    HW129485   9.894   7.444   8.172
75882SOL    HW229486   9.927   7.559   8.265
75883SOL     OW29487   5.085  13.532   6.085
75883SOL    HW129488   5.174  13.516   6.116
75883SOL    HW229489   5.030  13.478   6.143
75884SOL     OW29490   3.044  11.839  11.516
75884SOL    HW129491   3.044  11.931  11.544
75884SOL    HW229492   3.006  11.792  11.590
75885SOL     OW29493   2.033  11.148   2.289
75885SOL    HW129494   2.068  11.101   2.214
75885SOL    HW229495   2.100  11.138   2.357
75886SOL     OW29496   3.025   3.873   2.215
75886SOL    HW129497   2.954   3.928   2.248
75886SOL    HW229498   2.981   3.799   2.173
75887SOL     OW29499   2.124   9.702   2.435
75887SOL    HW129500   2.131   9.640   2.507
75887SOL    HW229501   2.058   9.663   2.376
75888SOL     OW29502   8.612   2.556  12.685
75888SOL    HW129503   8.532   2.606  12.669
75888SOL    HW229504   8.656   2.553  12.601
75889SOL     OW29505  14.460   0.135   2.833
75889SOL    HW129506  14.479   0.055   2.783
75889SOL    HW229507  14.539   0.188   2.824
75890SOL     OW29508  11.583   7.897   4.380
75890SOL    HW129509  11.642   7.826   4.404
75890SOL    HW229510  11.642   7.968   4.354
75891SOL     OW29511  11.742  12.061   3.467
75891SOL    HW129512  11.777  12.068   3.556
75891SOL    HW229513  11.648  12.069   3.478
75892SOL     OW29514  11.526   3.821   7.230
75892SOL    HW129515  11.562   3.849   7.146
75892SOL    HW229516  11.461   3.755   7.207
75893SOL     OW29517  11.877   2.158  12.094
75893SOL    HW129518  11.890   2.175  12.001
75893SOL    HW229519  11.915   2.234  12.138
75894SOL     OW29520   7.010  13.883   3.773
75894SOL    HW129521   7.046  13.796   3.754
75894SOL    HW229522   6.998  13.884   3.868
75895SOL     OW29523   1.759  13.415   1.159
75895SOL    HW129524   1.825  13.485   1.156
75895SOL    HW229525   1.750  13.388   1.068
75896SOL     OW29526   1.572   5.014   0.208
75896SOL    HW129527   1.574   4.972   0.122
75896SOL    HW229528   1.579   5.107   0.189
75897SOL     OW29529   0.346  12.122  10.573
75897SOL    HW129530   0.415  12.062  10.548
75897SOL    HW229531   0.380  12.169  10.649
75898SOL     OW29532   5.345   0.572   1.455
75898SOL    HW129533   5.398   0.498   1.482
75898SOL    HW229534   5.281   0.583   1.526
75899SOL     OW29535   1.101  12.632   5.968
75899SOL    HW129536   1.183  12.628   6.018
75899SOL    HW229537   1.080  12.541   5.948
75900SOL     OW29538   3.809   0.294  12.051
75900SOL    HW129539   3.714   0.288  12.046
75900SOL    HW229540   3.841   0.226  11.992
75901SOL     OW29541   0.284   8.738   2.265
75901SOL    HW129542   0.194   8.750   2.235
75901SOL    HW229543   0.336   8.793   2.207
75902SOL     OW29544  11.086   1.168   7.250
75902SOL    HW129545  11.145   1.130   7.314
75902SOL    HW229546  11.041   1.238   7.297
75903SOL     OW29547   3.254  14.473   5.061
75903SOL    HW129548   3.330  14.420   5.081
75903SOL    HW229549   3.180  14.412   5.065
75904SOL     OW29550   4.868   1.061  10.069
75904SOL    HW129551   4.940   1.039  10.128
75904SOL    HW229552   4.792   1.071  10.127
75905SOL     OW29553   3.309   7.535  13.985
75905SOL    HW129554   3.282   7.566  14.072
75905SOL    HW229555   3.395   7.576  13.972
75906SOL     OW29556   9.292  13.881   6.431
75906SOL    HW129557   9.369  13.898   6.378
75906SOL    HW229558   9.247  13.809   6.387
75907SOL     OW29559   3.758  10.967   7.748
75907SOL    HW129560   3.808  10.937   7.672
75907SOL    HW229561   3.702  11.037   7.713
75908SOL     OW29562  14.146   8.506   1.785
75908SOL    HW129563  14.149   8.412   1.767
75908SOL    HW229564  14.224   8.541   1.740
75909SOL     OW29565   7.051  10.911   3.946
75909SOL    HW129566   7.135  10.891   3.904
75909SOL    HW229567   7.062  11.000   3.979
75910SOL     OW29568   2.016   3.253  10.265
75910SOL    HW129569   1.965   3.219  10.338
75910SOL    HW229570   1.978   3.340  10.248
75911SOL     OW29571  13.762   4.964   1.131
75911SOL    HW129572  13.699   5.036   1.124
75911SOL    HW229573  13.716   4.889   1.093
75912SOL     OW29574  11.873   2.126  11.704
75912SOL    HW129575  11.903   2.191  11.641
75912SOL    HW229576  11.800   2.082  11.660
75913SOL     OW29577   0.874  12.625   0.193
75913SOL    HW129578   0.874  12.721   0.196
75913SOL    HW229579   0.961  12.600   0.225
75914SOL     OW29580   1.603   1.511  13.109
75914SOL    HW129581   1.508   1.504  13.103
75914SOL    HW229582   1.620   1.530  13.202
75915SOL     OW29583   0.659   2.770   4.174
75915SOL    HW129584   0.713   2.844   4.202
75915SOL    HW229585   0.721   2.709   4.133
75916SOL     OW29586   0.330   0.904  11.352
75916SOL    HW129587   0.368   0.974  11.404
75916SOL    HW229588   0.289   0.950  11.278
75917SOL     OW29589   8.246  14.469  13.971
75917SOL    HW129590   8.339  14.464  13.951
75917SOL    HW229591   8.206  14.405  13.912
75918SOL     OW29592  10.899  11.408  12.835
75918SOL    HW129593  10.875  11.494  12.802
75918SOL    HW229594  10.900  11.352  12.757
75919SOL     OW29595   8.916  11.042   2.607
75919SOL    HW129596   8.846  11.095   2.646
75919SOL    HW229597   8.992  11.059   2.663
75920SOL     OW29598  13.980   7.682   4.516
75920SOL    HW129599  14.073   7.660   4.525
75920SOL    HW229600  13.974   7.726   4.432
75921SOL     OW29601   5.832   6.675   3.419
75921SOL    HW129602   5.927   6.684   3.408
75921SOL    HW229603   5.815   6.708   3.507
75922SOL     OW29604   6.697   3.853   1.479
75922SOL    HW129605   6.762   3.913   1.441
75922SOL    HW229606   6.655   3.905   1.548
75923SOL     OW29607   0.230   5.586   4.764
75923SOL    HW129608   0.250   5.514   4.824
75923SOL    HW229609   0.315   5.619   4.735
75924SOL     OW29610   6.843   1.050   0.941
75924SOL    HW129611   6.766   1.005   0.975
75924SOL    HW229612   6.901   0.979   0.911
75925SOL     OW29613  11.750   6.501   0.844
75925SOL    HW129614  11.767   6.545   0.760
75925SOL    HW229615  11.699   6.424   0.819
75926SOL     OW29616   7.585   8.858  14.799
75926SOL    HW129617   7.645   8.890  14.867
75926SOL    HW229618   7.553   8.775  14.833
75927SOL     OW29619  11.928  11.831   6.191
75927SOL    HW129620  11.914  11.913   6.239
75927SOL    HW229621  11.845  11.816   6.144
75928SOL     OW29622   3.836  10.263   1.815
75928SOL    HW129623   3.827  10.246   1.722
75928SOL    HW229624   3.796  10.349   1.828
75929SOL     OW29625  14.741   1.233  11.793
75929SOL    HW129626  14.787   1.152  11.772
75929SOL    HW229627  14.780   1.299  11.736
75930SOL     OW29628   4.204  14.104  10.732
75930SOL    HW129629   4.299  14.115  10.732
75930SOL    HW229630   4.180  14.105  10.825
75931SOL     OW29631   7.361   0.923   4.336
75931SOL    HW129632   7.400   0.990   4.280
75931SOL    HW229633   7.434   0.887   4.386
75932SOL     OW29634   9.852   3.321   1.599
75932SOL    HW129635   9.909   3.270   1.541
75932SOL    HW229636   9.900   3.402   1.615
75933SOL     OW29637   4.955   1.253   2.837
75933SOL    HW129638   4.922   1.307   2.908
75933SOL    HW229639   4.983   1.315   2.770
75934SOL     OW29640   5.409   2.124   8.203
75934SOL    HW129641   5.377   2.108   8.292
75934SOL    HW229642   5.413   2.220   8.197
75935SOL     OW29643   4.952   5.050   5.489
75935SOL    HW129644   4.926   4.970   5.445
75935SOL    HW229645   5.029   5.026   5.540
75936SOL     OW29646  10.650   6.081   6.329
75936SOL    HW129647  10.635   5.986   6.328
75936SOL    HW229648  10.721   6.094   6.267
75937SOL     OW29649  10.670  14.567   4.442
75937SOL    HW129650  10.620  14.548   4.362
75937SOL    HW229651  10.683  14.481   4.482
75938SOL     OW29652  10.076   7.840   1.830
75938SOL    HW129653  10.103   7.760   1.874
75938SOL    HW229654  10.095   7.910   1.893
75939SOL     OW29655   9.640   1.513   6.582
75939SOL    HW129656   9.545   1.500   6.588
75939SOL    HW229657   9.666   1.465   6.503
75940SOL     OW29658  11.210   5.555  12.419
75940SOL    HW129659  11.223   5.648  12.435
75940SOL    HW229660  11.298   5.520  12.408
75941SOL     OW29661   9.242   9.835   9.332
75941SOL    HW129662   9.158   9.796   9.355
75941SOL    HW229663   9.264   9.798   9.246
75942SOL     OW29664   5.927   1.739   7.526
75942SOL    HW129665   6.002   1.763   7.472
75942SOL    HW229666   5.852   1.781   7.484
75943SOL     OW29667   8.536   0.226   1.744
75943SOL    HW129668   8.544   0.267   1.830
75943SOL    HW229669   8.445   0.239   1.719
75944SOL     OW29670   3.561   1.740  14.646
75944SOL    HW129671   3.586   1.754  14.737
75944SOL    HW229672   3.510   1.817  14.622
75945SOL     OW29673   3.745   6.908  11.936
75945SOL    HW129674   3.783   6.912  11.848
75945SOL    HW229675   3.700   6.824  11.938
75946SOL     OW29676   6.055   9.474   8.724
75946SOL    HW129677   5.986   9.527   8.765
75946SOL    HW229678   6.019   9.451   8.638
75947SOL     OW29679  11.075   4.550   3.003
75947SOL    HW129680  11.012   4.536   3.074
75947SOL    HW229681  11.118   4.633   3.025
75948SOL     OW29682   1.569   3.153  13.130
75948SOL    HW129683   1.587   3.195  13.046
75948SOL    HW229684   1.594   3.218  13.196
75949SOL     OW29685   7.274  13.099   9.211
75949SOL    HW129686   7.254  13.117   9.303
75949SOL    HW229687   7.363  13.134   9.199
75950SOL     OW29688   9.015   8.319   1.723
75950SOL    HW129689   9.004   8.403   1.767
75950SOL    HW229690   9.025   8.256   1.795
75951SOL     OW29691   1.971   8.394   0.581
75951SOL    HW129692   1.890   8.438   0.605
75951SOL    HW229693   2.024   8.395   0.661
75952SOL     OW29694  12.383   8.653  10.536
75952SOL    HW129695  12.385   8.567  10.494
75952SOL    HW229696  12.430   8.710  10.475
75953SOL     OW29697   0.355  14.720   5.514
75953SOL    HW129698   0.402  14.656   5.461
75953SOL    HW229699   0.330  14.671   5.593
75954SOL     OW29700   4.430  13.980   0.406
75954SOL    HW129701   4.377  13.977   0.327
75954SOL    HW229702   4.404  13.902   0.455
75955SOL     OW29703  10.843   7.645   9.190
75955SOL    HW129704  10.749   7.660   9.204
75955SOL    HW229705  10.868   7.709   9.123
75956SOL     OW29706  14.232   6.058   3.168
75956SOL    HW129707  14.297   6.118   3.206
75956SOL    HW229708  14.283   5.982   3.141
75957SOL     OW29709   8.626   8.890  13.667
75957SOL    HW129710   8.540   8.931  13.654
75957SOL    HW229711   8.662   8.883  13.578
75958SOL     OW29712   1.281   0.168  10.770
75958SOL    HW129713   1.324   0.254  10.769
75958SOL    HW229714   1.300   0.133  10.857
75959SOL     OW29715  12.400   6.626  14.181
75959SOL    HW129716  12.344   6.649  14.107
75959SOL    HW229717  12.340   6.619  14.255
75960SOL     OW29718   2.208   2.925  10.557
75960SOL    HW129719   2.188   2.945  10.648
75960SOL    HW229720   2.300   2.899  10.558
75961SOL     OW29721   6.677  13.893   3.668
75961SOL    HW129722   6.771  13.891   3.651
75961SOL    HW229723   6.666  13.844   3.750
75962SOL     OW29724   4.854  11.242  10.658
75962SOL    HW129725   4.829  11.231  10.566
75962SOL    HW229726   4.887  11.332  10.664
75963SOL     OW29727  10.516   4.877   3.149
75963SOL    HW129728  10.529   4.845   3.059
75963SOL    HW229729  10.573   4.954   3.155
75964SOL     OW29730   0.590   4.771   2.691
75964SOL    HW129731   0.583   4.807   2.602
75964SOL    HW229732   0.603   4.677   2.678
75965SOL     OW29733  11.904   8.512  11.527
75965SOL    HW129734  11.825   8.561  11.551
75965SOL    HW229735  11.871   8.433  11.485
75966SOL     OW29736  11.676   4.319  14.164
75966SOL    HW129737  11.753   4.302  14.109
75966SOL    HW229738  11.709   4.376  14.234
75967SOL     OW29739   4.545  10.736   8.215
75967SOL    HW129740   4.591  10.672   8.269
75967SOL    HW229741   4.461  10.694   8.195
75968SOL     OW29742   3.271  11.991   3.950
75968SOL    HW129743   3.265  12.064   4.012
75968SOL    HW229744   3.273  12.034   3.864
75969SOL     OW29745   8.608   3.908  12.264
75969SOL    HW129746   8.527   3.859  12.272
75969SOL    HW229747   8.583   3.999  12.280
75970SOL     OW29748   0.684   0.943   6.946
75970SOL    HW129749   0.634   0.950   6.864
75970SOL    HW229750   0.773   0.922   6.918
75971SOL     OW29751  12.893   3.386   7.915
75971SOL    HW129752  12.841   3.425   7.985
75971SOL    HW229753  12.984   3.401   7.942
75972SOL     OW29754   4.944   8.769   9.842
75972SOL    HW129755   4.873   8.770   9.778
75972SOL    HW229756   4.915   8.827   9.912
75973SOL     OW29757   9.135   2.894   7.739
75973SOL    HW129758   9.207   2.851   7.693
75973SOL    HW229759   9.118   2.838   7.815
75974SOL     OW29760   1.550   6.137   3.430
75974SOL    HW129761   1.458   6.121   3.406
75974SOL    HW229762   1.549   6.224   3.469
75975SOL     OW29763   6.299   0.053   6.596
75975SOL    HW129764   6.351   0.132   6.609
75975SOL    HW229765   6.270   0.029   6.684
75976SOL     OW29766  12.857  12.740  12.577
75976SOL    HW129767  12.833  12.831  12.594
75976SOL    HW229768  12.938  12.727  12.626
75977SOL     OW29769  10.724  14.051   3.972
75977SOL    HW129770  10.810  14.080   4.000
75977SOL    HW229771  10.741  13.997   3.894
75978SOL     OW29772   1.850  13.385  13.609
75978SOL    HW129773   1.880  13.332  13.535
75978SOL    HW229774   1.794  13.452  13.571
75979SOL     OW29775   7.488  11.124  13.223
75979SOL    HW129776   7.569  11.173  13.209
75979SOL    HW229777   7.518  11.038  13.254
75980SOL     OW29778   3.239   1.679   5.838
75980SOL    HW129779   3.206   1.613   5.900
75980SOL    HW229780   3.306   1.632   5.787
75981SOL     OW29781   9.289   7.324   9.415
75981SOL    HW129782   9.210   7.342   9.364
75981SOL    HW229783   9.309   7.232   9.398
75982SOL     OW29784  13.580   3.753   1.076
75982SOL    HW129785  13.611   3.740   1.165
75982SOL    HW229786  13.648   3.804   1.034
75983SOL     OW29787   3.103   7.681   9.029
75983SOL    HW129788   3.069   7.770   9.022
75983SOL    HW229789   3.194   7.689   9.000
75984SOL     OW29790   3.264  10.861   8.330
75984SOL    HW129791   3.238  10.864   8.238
75984SOL    HW229792   3.262  10.952   8.359
75985SOL     OW29793  10.850   7.009   2.601
75985SOL    HW129794  10.886   7.037   2.517
75985SOL    HW229795  10.828   7.090   2.646
75986SOL     OW29796   9.675   7.859   2.005
75986SOL    HW129797   9.737   7.859   1.932
75986SOL    HW229798   9.704   7.931   2.062
75987SOL     OW29799  13.331   5.918   1.623
75987SOL    HW129800  13.324   5.831   1.583
75987SOL    HW229801  13.397   5.963   1.571
75988SOL     OW29802   2.738   2.116   1.754
75988SOL    HW129803   2.703   2.090   1.669
75988SOL    HW229804   2.664   2.152   1.801
75989SOL     OW29805  13.419  10.074   7.455
75989SOL    HW129806  13.370  10.021   7.517
75989SOL    HW229807  13.511  10.064   7.481
75990SOL     OW29808   9.270  11.397  11.309
75990SOL    HW129809   9.236  11.438  11.229
75990SOL    HW229810   9.347  11.450  11.331
75991SOL     OW29811  12.797   8.901   8.623
75991SOL    HW129812  12.782   8.990   8.655
75991SOL    HW229813  12.716   8.878   8.577
75992SOL     OW29814  14.413   9.305   9.025
75992SOL    HW129815  14.498   9.268   9.049
75992SOL    HW229816  14.354   9.278   9.095
75993SOL     OW29817  12.673   1.253   3.085
75993SOL    HW129818  12.698   1.320   3.149
75993SOL    HW229819  12.648   1.177   3.138
75994SOL     OW29820   3.810  11.472  14.380
75994SOL    HW129821   3.801  11.567  14.371
75994SOL    HW229822   3.813  11.439  14.290
75995SOL     OW29823   2.680   2.482   5.094
75995SOL    HW129824   2.618   2.497   5.023
75995SOL    HW229825   2.762   2.518   5.062
75996SOL     OW29826   4.669  13.537  10.119
75996SOL    HW129827   4.585  13.495  10.142
75996SOL    HW229828   4.733  13.493  10.174
75997SOL     OW29829   2.702   3.820   2.589
75997SOL    HW129830   2.773   3.764   2.560
75997SOL    HW229831   2.717   3.832   2.683
75998SOL     OW29832   0.972   4.780   0.300
75998SOL    HW129833   0.922   4.767   0.219
75998SOL    HW229834   0.910   4.820   0.360
75999SOL     OW29835   4.844  11.976   8.813
75999SOL    HW129836   4.845  11.997   8.720
75999SOL    HW229837   4.889  11.891   8.819
76000SOL     OW29838  11.109   2.397  14.619
76000SOL    HW129839  11.072   2.351  14.544
76000SOL    HW229840  11.109   2.489  14.595
76001SOL     OW29841   6.512   4.974  12.274
76001SOL    HW129842   6.487   5.066  12.268
76001SOL    HW229843   6.566   4.958  12.197
76002SOL     OW29844  11.280  10.113   9.566
76002SOL    HW129845  11.239  10.130   9.481
76002SOL    HW229846  11.302  10.020   9.563
76003SOL     OW29847   5.564  13.015   9.428
76003SOL    HW129848   5.610  12.939   9.464
76003SOL    HW229849   5.593  13.089   9.481
76004SOL     OW29850  12.486   3.822   7.560
76004SOL    HW129851  12.504   3.843   7.469
76004SOL    HW229852  12.559   3.860   7.608
76005SOL     OW29853   5.190   5.645  13.334
76005SOL    HW129854   5.257   5.713  13.344
76005SOL    HW229855   5.185   5.630  13.240
76006SOL     OW29856   9.425  14.754   2.643
76006SOL    HW129857   9.374  14.765   2.563
76006SOL    HW229858   9.516  14.767   2.615
76007SOL     OW29859   2.287  10.342  14.195
76007SOL    HW129860   2.282  10.428  14.153
76007SOL    HW229861   2.215  10.292  14.156
76008SOL     OW29862  11.801  14.380  10.718
76008SOL    HW129863  11.867  14.443  10.748
76008SOL    HW229864  11.718  14.429  10.722
76009SOL     OW29865   4.533   1.370  12.641
76009SOL    HW129866   4.518   1.459  12.610
76009SOL    HW229867   4.599   1.334  12.581
76010SOL     OW29868   7.094   4.729   6.215
76010SOL    HW129869   7.121   4.668   6.146
76010SOL    HW229870   6.998   4.720   6.218
76011SOL     OW29871   7.258   9.832  10.078
76011SOL    HW129872   7.332   9.772  10.080
76011SOL    HW229873   7.186   9.784  10.118
76012SOL     OW29874   0.093   4.030   6.879
76012SOL    HW129875   0.164   3.996   6.932
76012SOL    HW229876   0.063   4.108   6.925
76013SOL     OW29877   1.263   2.698   1.388
76013SOL    HW129878   1.242   2.782   1.429
76013SOL    HW229879   1.350   2.711   1.350
76014SOL     OW29880   3.828   6.767   4.837
76014SOL    HW129881   3.799   6.769   4.746
76014SOL    HW229882   3.892   6.838   4.844
76015SOL     OW29883  13.059   3.238  11.161
76015SOL    HW129884  12.987   3.275  11.110
76015SOL    HW229885  13.096   3.312  11.208
76016SOL     OW29886  10.832  10.307   8.200
76016SOL    HW129887  10.800  10.342   8.117
76016SOL    HW229888  10.789  10.361   8.267
76017SOL     OW29889   2.890   0.756   6.503
76017SOL    HW129890   2.843   0.803   6.435
76017SOL    HW229891   2.983   0.774   6.486
76018SOL     OW29892   6.005   4.586   3.795
76018SOL    HW129893   6.067   4.565   3.865
76018SOL    HW229894   6.003   4.506   3.742
76019SOL     OW29895   6.869  13.093   5.988
76019SOL    HW129896   6.829  13.006   5.992
76019SOL    HW229897   6.809  13.144   5.934
76020SOL     OW29898   8.233   9.183   4.176
76020SOL    HW129899   8.323   9.183   4.207
76020SOL    HW229900   8.190   9.113   4.225
76021SOL     OW29901   4.287   7.865   9.606
76021SOL    HW129902   4.380   7.883   9.616
76021SOL    HW229903   4.261   7.827   9.690
76022SOL     OW29904  12.022   7.466  12.537
76022SOL    HW129905  11.954   7.452  12.602
76022SOL    HW229906  12.011   7.557  12.510
76023SOL     OW29907  10.366  12.966   5.668
76023SOL    HW129908  10.424  12.918   5.610
76023SOL    HW229909  10.343  13.045   5.619
76024SOL     OW29910   1.568   1.009  14.541
76024SOL    HW129911   1.558   0.915  14.530
76024SOL    HW229912   1.479   1.042  14.551
76025SOL     OW29913  11.254  11.390  13.165
76025SOL    HW129914  11.212  11.374  13.080
76025SOL    HW229915  11.347  11.385  13.146
76026SOL     OW29916   1.373  12.135   3.233
76026SOL    HW129917   1.351  12.192   3.159
76026SOL    HW229918   1.418  12.193   3.295
76027SOL     OW29919  10.820  12.721   6.405
76027SOL    HW129920  10.757  12.782   6.368
76027SOL    HW229921  10.769  12.666   6.465
76028SOL     OW29922   8.175   0.942  10.011
76028SOL    HW129923   8.178   0.964  10.104
76028SOL    HW229924   8.102   0.993   9.976
76029SOL     OW29925   7.061   4.243   2.149
76029SOL    HW129926   7.043   4.182   2.078
76029SOL    HW229927   7.130   4.200   2.200
76030SOL     OW29928  11.501  13.583   0.587
76030SOL    HW129929  11.584  13.536   0.590
76030SOL    HW229930  11.517  13.657   0.530
76031SOL     OW29931   4.091  14.040  11.341
76031SOL    HW129932   4.169  14.013  11.389
76031SOL    HW229933   4.038  14.085  11.406
76032SOL     OW29934   1.794   5.769   4.076
76032SOL    HW129935   1.872   5.757   4.131
76032SOL    HW229936   1.753   5.849   4.108
76033SOL     OW29937  11.767  14.287   1.916
76033SOL    HW129938  11.775  14.382   1.908
76033SOL    HW229939  11.851  14.259   1.952
76034SOL     OW29940   7.976   0.098   6.250
76034SOL    HW129941   8.070   0.087   6.235
76034SOL    HW229942   7.970   0.146   6.333
76035SOL     OW29943  12.188   2.962  11.533
76035SOL    HW129944  12.151   2.901  11.470
76035SOL    HW229945  12.280   2.969  11.510
76036SOL     OW29946   4.353  12.965   2.466
76036SOL    HW129947   4.426  12.903   2.466
76036SOL    HW229948   4.386  13.040   2.515
76037SOL     OW29949   2.008   6.150   3.051
76037SOL    HW129950   1.960   6.230   3.030
76037SOL    HW229951   2.026   6.156   3.145
76038SOL     OW29952  10.887   4.507   8.559
76038SOL    HW129953  10.975   4.506   8.596
76038SOL    HW229954  10.892   4.448   8.484
76039SOL     OW29955   7.282   2.378  13.089
76039SOL    HW129956   7.224   2.311  13.054
76039SOL    HW229957   7.310   2.343  13.174
76040SOL     OW29958   5.732   2.796   7.416
76040SOL    HW129959   5.666   2.727   7.423
76040SOL    HW229960   5.686   2.876   7.442
76041SOL     OW29961   2.096   4.052   2.908
76041SOL    HW129962   2.020   4.020   2.957
76041SOL    HW229963   2.058   4.092   2.829
76042SOL     OW29964  10.223  13.793  12.000
76042SOL    HW129965  10.262  13.850  11.934
76042SOL    HW229966  10.286  13.723  12.012
76043SOL     OW29967   4.423   4.265   9.462
76043SOL    HW129968   4.517   4.248   9.460
76043SOL    HW229969   4.414   4.355   9.428
76044SOL     OW29970   8.858   3.677   6.380
76044SOL    HW129971   8.839   3.621   6.455
76044SOL    HW229972   8.811   3.636   6.307
76045SOL     OW29973  11.777   7.698   6.593
76045SOL    HW129974  11.687   7.666   6.586
76045SOL    HW229975  11.807   7.667   6.678
76046SOL     OW29976   5.362   7.850  12.650
76046SOL    HW129977   5.405   7.870  12.566
76046SOL    HW229978   5.327   7.762  12.638
76047SOL     OW29979   8.246  14.559  13.137
76047SOL    HW129980   8.283  14.481  13.097
76047SOL    HW229981   8.319  14.622  13.140
76048SOL     OW29982   8.907   3.398   7.072
76048SOL    HW129983   8.853   3.454   7.016
76048SOL    HW229984   8.947   3.458   7.135
76049SOL     OW29985   4.996   8.318   5.226
76049SOL    HW129986   5.017   8.325   5.319
76049SOL    HW229987   5.071   8.356   5.182
76050SOL     OW29988   4.748  13.241   3.325
76050SOL    HW129989   4.751  13.327   3.368
76050SOL    HW229990   4.834  13.231   3.284
76051SOL     OW29991  13.977   7.359  11.534
76051SOL    HW129992  13.997   7.269  11.560
76051SOL    HW229993  13.881   7.363  11.537
76052SOL     OW29994   1.709  12.288   6.919
76052SOL    HW129995   1.716  12.224   6.849
76052SOL    HW229996   1.619  12.280   6.950
76053SOL     OW29997   8.144   1.015   3.932
76053SOL    HW129998   8.137   0.945   3.997
76053SOL    HW229999   8.068   1.071   3.948
76054SOL     OW30000   0.454   2.718   7.216
76054SOL    HW130001   0.512   2.662   7.268
76054SOL    HW230002   0.385   2.743   7.277
76055SOL     OW30003   1.946  11.482   4.212
76055SOL    HW130004   2.008  11.470   4.283
76055SOL    HW230005   1.938  11.396   4.172
76056SOL     OW30006   5.626   4.187   8.942
76056SOL    HW130007   5.636   4.099   8.907
76056SOL    HW230008   5.715   4.217   8.958
76057SOL     OW30009   3.376   3.941   8.426
76057SOL    HW130010   3.384   4.033   8.453
76057SOL    HW230011   3.329   3.945   8.343
76058SOL     OW30012   2.198  11.076   6.420
76058SOL    HW130013   2.173  11.123   6.340
76058SOL    HW230014   2.178  11.137   6.491
76059SOL     OW30015  12.912   1.881  13.254
76059SOL    HW130016  12.912   1.904  13.161
76059SOL    HW230017  12.887   1.961  13.299
76060SOL     OW30018   5.295   5.088   5.294
76060SOL    HW130019   5.346   5.037   5.357
76060SOL    HW230020   5.349   5.164   5.274
76061SOL     OW30021   8.840  13.685   4.564
76061SOL    HW130022   8.781  13.710   4.635
76061SOL    HW230023   8.913  13.746   4.571
76062SOL     OW30024  11.351   5.478   5.557
76062SOL    HW130025  11.392   5.564   5.570
76062SOL    HW230026  11.346   5.469   5.462
76063SOL     OW30027   9.053  13.413   6.510
76063SOL    HW130028   9.129  13.428   6.567
76063SOL    HW230029   8.996  13.356   6.561
76064SOL     OW30030   1.697  14.789   3.169
76064SOL    HW130031   1.686  14.815   3.078
76064SOL    HW230032   1.610  14.800   3.208
76065SOL     OW30033   6.592   1.918   5.677
76065SOL    HW130034   6.675   1.884   5.712
76065SOL    HW230035   6.527   1.854   5.705
76066SOL     OW30036   8.796  14.125  12.172
76066SOL    HW130037   8.824  14.035  12.150
76066SOL    HW230038   8.865  14.180  12.135
76067SOL     OW30039   8.111  13.600   0.006
76067SOL    HW130040   8.198  13.565  14.866
76067SOL    HW230041   8.069  13.530   0.056
76068SOL     OW30042   4.118  11.406   4.566
76068SOL    HW130043   4.033  11.413   4.608
76068SOL    HW230044   4.115  11.469   4.494
76069SOL     OW30045   1.555   0.088  11.638
76069SOL    HW130046   1.630   0.030  11.624
76069SOL    HW230047   1.488   0.056  11.578
76070SOL     OW30048   6.716   5.435   3.630
76070SOL    HW130049   6.686   5.350   3.662
76070SOL    HW230050   6.802   5.447   3.671
76071SOL     OW30051  14.600  14.411   4.182
76071SOL    HW130052  14.543  14.471   4.134
76071SOL    HW230053  14.547  14.333   4.197
76072SOL     OW30054  10.518   1.691  13.015
76072SOL    HW130055  10.516   1.784  12.991
76072SOL    HW230056  10.569   1.688  13.096
76073SOL     OW30057  14.731   9.637  13.994
76073SOL    HW130058  14.796   9.567  13.992
76073SOL    HW230059  14.745   9.681  14.078
76074SOL     OW30060  12.702  11.711   2.694
76074SOL    HW130061  12.731  11.636   2.745
76074SOL    HW230062  12.737  11.695   2.606
76075SOL     OW30063   9.065   7.005  10.754
76075SOL    HW130064   8.983   6.961  10.733
76075SOL    HW230065   9.048   7.049  10.837
76076SOL     OW30066  10.808  14.103  12.371
76076SOL    HW130067  10.836  14.186  12.332
76076SOL    HW230068  10.888  14.064  12.405
76077SOL     OW30069   8.173  11.385   4.991
76077SOL    HW130070   8.115  11.410   4.919
76077SOL    HW230071   8.123  11.406   5.070
76078SOL     OW30072  12.847   6.903   4.830
76078SOL    HW130073  12.901   6.915   4.752
76078SOL    HW230074  12.861   6.812   4.855
76079SOL     OW30075   7.672   1.867   0.636
76079SOL    HW130076   7.661   1.881   0.730
76079SOL    HW230077   7.585   1.880   0.599
76080SOL     OW30078  11.802   7.565   3.702
76080SOL    HW130079  11.760   7.505   3.640
76080SOL    HW230080  11.859   7.509   3.755
76081SOL     OW30081   3.588  13.467  11.251
76081SOL    HW130082   3.664  13.432  11.205
76081SOL    HW230083   3.624  13.538  11.305
76082SOL     OW30084  11.177   0.326  13.410
76082SOL    HW130085  11.261   0.334  13.365
76082SOL    HW230086  11.145   0.239  13.386
76083SOL     OW30087   6.454   9.995   9.085
76083SOL    HW130088   6.383  10.052   9.054
76083SOL    HW230089   6.506  10.052   9.142
76084SOL     OW30090   2.883   5.096   9.456
76084SOL    HW130091   2.940   5.020   9.462
76084SOL    HW230092   2.939   5.165   9.419
76085SOL     OW30093   2.913  13.788   2.942
76085SOL    HW130094   2.864  13.786   2.860
76085SOL    HW230095   2.892  13.704   2.984
76086SOL     OW30096  10.953   1.863  14.022
76086SOL    HW130097  10.914   1.888  13.939
76086SOL    HW230098  10.974   1.946  14.065
76087SOL     OW30099  10.484  12.948   4.278
76087SOL    HW130100  10.420  13.017   4.263
76087SOL    HW230101  10.435  12.867   4.262
76088SOL     OW30102   8.621   3.232  10.904
76088SOL    HW130103   8.539   3.212  10.950
76088SOL    HW230104   8.602   3.312  10.855
76089SOL     OW30105  10.375   6.699  14.189
76089SOL    HW130106  10.414   6.647  14.118
76089SOL    HW230107  10.305   6.748  14.147
76090SOL     OW30108   3.393   7.209   7.188
76090SOL    HW130109   3.464   7.258   7.146
76090SOL    HW230110   3.344   7.171   7.116
76091SOL     OW30111   3.405   5.270  10.208
76091SOL    HW130112   3.346   5.308  10.274
76091SOL    HW230113   3.476   5.230  10.258
76092SOL     OW30114   8.880  14.136   8.470
76092SOL    HW130115   8.924  14.128   8.555
76092SOL    HW230116   8.919  14.214   8.431
76093SOL     OW30117   4.996   8.349  10.313
76093SOL    HW130118   5.056   8.371  10.242
76093SOL    HW230119   4.911   8.338  10.269
76094SOL     OW30120   7.127   5.892   3.211
76094SOL    HW130121   7.044   5.864   3.173
76094SOL    HW230122   7.189   5.824   3.184
76095SOL     OW30123  14.222   9.406  12.388
76095SOL    HW130124  14.167   9.434  12.461
76095SOL    HW230125  14.301   9.373  12.429
76096SOL     OW30126  11.958   0.308   3.532
76096SOL    HW130127  12.010   0.353   3.598
76096SOL    HW230128  11.989   0.343   3.448
76097SOL     OW30129   0.362   8.921   6.090
76097SOL    HW130130   0.330   8.902   6.002
76097SOL    HW230131   0.363   8.835   6.134
76098SOL     OW30132   5.353  13.840   2.197
76098SOL    HW130133   5.307  13.923   2.184
76098SOL    HW230134   5.446  13.863   2.187
76099SOL     OW30135  11.200   8.778  11.482
76099SOL    HW130136  11.126   8.720  11.468
76099SOL    HW230137  11.161   8.860  11.513
76100SOL     OW30138  10.406   2.659  11.490
76100SOL    HW130139  10.316   2.626  11.486
76100SOL    HW230140  10.445   2.633  11.407
76101SOL     OW30141   0.765   6.307   9.984
76101SOL    HW130142   0.801   6.282   9.899
76101SOL    HW230143   0.712   6.231  10.010
76102SOL     OW30144   7.989   8.931  12.420
76102SOL    HW130145   7.897   8.909  12.406
76102SOL    HW230146   8.028   8.927  12.333
76103SOL     OW30147   3.894   6.084   9.056
76103SOL    HW130148   3.852   5.998   9.055
76103SOL    HW230149   3.835   6.140   9.106
76104SOL     OW30150   0.573   4.349   9.717
76104SOL    HW130151   0.668   4.342   9.720
76104SOL    HW230152   0.541   4.288   9.784
76105SOL     OW30153   8.763  12.167   6.126
76105SOL    HW130154   8.715  12.087   6.148
76105SOL    HW230155   8.718  12.202   6.050
76106SOL     OW30156   0.677   7.951   9.892
76106SOL    HW130157   0.606   7.921   9.835
76106SOL    HW230158   0.715   8.025   9.846
76107SOL     OW30159   0.111   7.301   4.181
76107SOL    HW130160   0.096   7.217   4.139
76107SOL    HW230161   0.206   7.304   4.196
76108SOL     OW30162   0.739   8.780   0.886
76108SOL    HW130163   0.684   8.704   0.869
76108SOL    HW230164   0.688   8.854   0.853
76109SOL     OW30165  13.729   5.096  11.659
76109SOL    HW130166  13.737   5.030  11.728
76109SOL    HW230167  13.740   5.179  11.704
76110SOL     OW30168   4.660  12.356  14.138
76110SOL    HW130169   4.568  12.330  14.130
76110SOL    HW230170   4.702  12.312  14.064
76111SOL     OW30171  14.148   3.645  11.729
76111SOL    HW130172  14.064   3.626  11.771
76111SOL    HW230173  14.138   3.734  11.694
76112SOL     OW30174  11.226   6.137   0.399
76112SOL    HW130175  11.311   6.094   0.390
76112SOL    HW230176  11.171   6.094   0.333
76113SOL     OW30177   7.946   8.547   0.307
76113SOL    HW130178   7.862   8.569   0.267
76113SOL    HW230179   7.981   8.631   0.337
76114SOL     OW30180   3.671  12.759  11.234
76114SOL    HW130181   3.628  12.757  11.149
76114SOL    HW230182   3.745  12.818  11.222
76115SOL     OW30183  11.398   8.871  14.563
76115SOL    HW130184  11.449   8.836  14.636
76115SOL    HW230185  11.341   8.799  14.536
76116SOL     OW30186  12.372   5.110   1.264
76116SOL    HW130187  12.344   5.195   1.230
76116SOL    HW230188  12.293   5.057   1.267
76117SOL     OW30189   7.085  13.757   7.783
76117SOL    HW130190   7.168  13.772   7.737
76117SOL    HW230191   7.039  13.692   7.729
76118SOL     OW30192  12.130   0.353   3.323
76118SOL    HW130193  12.158   0.262   3.309
76118SOL    HW230194  12.176   0.403   3.256
76119SOL     OW30195   4.763  10.941   7.215
76119SOL    HW130196   4.771  10.853   7.180
76119SOL    HW230197   4.848  10.959   7.256
76120SOL     OW30198   0.324   7.085   8.000
76120SOL    HW130199   0.401   7.118   7.953
76120SOL    HW230200   0.346   7.098   8.092
76121SOL     OW30201  14.560  13.544   5.077
76121SOL    HW130202  14.545  13.535   5.171
76121SOL    HW230203  14.541  13.457   5.042
76122SOL     OW30204   5.406  12.123   5.654
76122SOL    HW130205   5.476  12.079   5.702
76122SOL    HW230206   5.334  12.060   5.655
76123SOL     OW30207  13.260   1.390   7.309
76123SOL    HW130208  13.275   1.424   7.221
76123SOL    HW230209  13.347   1.371   7.343
76124SOL     OW30210   2.356  12.505   2.729
76124SOL    HW130211   2.323  12.513   2.639
76124SOL    HW230212   2.280  12.520   2.784
76125SOL     OW30213   8.774   4.611   6.801
76125SOL    HW130214   8.784   4.574   6.888
76125SOL    HW230215   8.686   4.585   6.773
76126SOL     OW30216   4.131   2.403   8.617
76126SOL    HW130217   4.195   2.471   8.596
76126SOL    HW230218   4.162   2.325   8.570
76127SOL     OW30219   3.856   8.446   2.417
76127SOL    HW130220   3.889   8.520   2.365
76127SOL    HW230221   3.840   8.483   2.504
76128SOL     OW30222   9.713  14.843  12.968
76128SOL    HW130223   9.662   0.007  13.036
76128SOL    HW230224   9.792  14.813  13.013
76129SOL     OW30225  12.677  12.713   0.372
76129SOL    HW130226  12.594  12.677   0.339
76129SOL    HW230227  12.708  12.769   0.301
76130SOL     OW30228   3.569  12.868   7.372
76130SOL    HW130229   3.590  12.926   7.300
76130SOL    HW230230   3.565  12.781   7.333
76131SOL     OW30231  11.869  13.680   6.832
76131SOL    HW130232  11.786  13.728   6.834
76131SOL    HW230233  11.885  13.654   6.922
76132SOL     OW30234  11.895   3.580   5.279
76132SOL    HW130235  11.825   3.515   5.285
76132SOL    HW230236  11.928   3.588   5.368
76133SOL     OW30237  10.322   7.372  10.199
76133SOL    HW130238  10.387   7.433  10.234
76133SOL    HW230239  10.263   7.427  10.147
76134SOL     OW30240   7.117   7.792  11.250
76134SOL    HW130241   7.170   7.871  11.243
76134SOL    HW230242   7.116   7.756  11.161
76135SOL     OW30243   0.745  14.745  13.866
76135SOL    HW130244   0.819  14.752  13.806
76135SOL    HW230245   0.748  14.655  13.897
76136SOL     OW30246  13.197   7.071  10.457
76136SOL    HW130247  13.285   7.036  10.440
76136SOL    HW230248  13.211   7.160  10.489
76137SOL     OW30249  13.216   4.917   4.726
76137SOL    HW130250  13.265   4.906   4.644
76137SOL    HW230251  13.250   4.848   4.783
76138SOL     OW30252   1.191  11.734   0.054
76138SOL    HW130253   1.276  11.741   0.010
76138SOL    HW230254   1.197  11.794   0.128
76139SOL     OW30255   7.440  12.026   3.314
76139SOL    HW130256   7.379  11.956   3.336
76139SOL    HW230257   7.466  12.062   3.399
76140SOL     OW30258  13.176   6.880   2.461
76140SOL    HW130259  13.153   6.789   2.480
76140SOL    HW230260  13.264   6.876   2.424
76141SOL     OW30261   5.066  14.812   6.545
76141SOL    HW130262   5.033  14.723   6.552
76141SOL    HW230263   5.006  14.865   6.598
76142SOL     OW30264   6.720  12.123   6.537
76142SOL    HW130265   6.779  12.173   6.594
76142SOL    HW230266   6.777  12.057   6.497
76143SOL     OW30267   3.948   8.692  13.788
76143SOL    HW130268   3.941   8.640  13.868
76143SOL    HW230269   3.877   8.756  13.795
76144SOL     OW30270   3.716   6.401  11.486
76144SOL    HW130271   3.687   6.408  11.577
76144SOL    HW230272   3.806   6.434  11.487
76145SOL     OW30273   9.834   2.178  14.795
76145SOL    HW130274   9.829   2.199   0.009
76145SOL    HW230275   9.839   2.263  14.752
76146SOL     OW30276   4.969   1.975   0.732
76146SOL    HW130277   5.050   2.005   0.690
76146SOL    HW230278   4.990   1.975   0.826
76147SOL     OW30279   7.700   3.135  13.571
76147SOL    HW130280   7.735   3.069  13.630
76147SOL    HW230281   7.775   3.191  13.549
76148SOL     OW30282   3.889   2.496  11.976
76148SOL    HW130283   3.854   2.409  11.993
76148SOL    HW230284   3.839   2.554  12.034
76149SOL     OW30285  14.309  12.590   3.078
76149SOL    HW130286  14.302  12.621   2.988
76149SOL    HW230287  14.287  12.666   3.132
76150SOL     OW30288  12.523   4.096  10.375
76150SOL    HW130289  12.430   4.091  10.354
76150SOL    HW230290  12.558   4.010  10.352
76151SOL     OW30291  13.993  12.904   7.556
76151SOL    HW130292  13.951  12.866   7.479
76151SOL    HW230293  14.045  12.832   7.593
76152SOL     OW30294   4.397   9.421   3.286
76152SOL    HW130295   4.412   9.417   3.381
76152SOL    HW230296   4.471   9.374   3.248
76153SOL     OW30297   9.472   4.235  10.872
76153SOL    HW130298   9.416   4.249  10.948
76153SOL    HW230299   9.506   4.146  10.883
76154SOL     OW30300   2.213   7.947   7.027
76154SOL    HW130301   2.284   7.990   6.981
76154SOL    HW230302   2.255   7.907   7.103
76155SOL     OW30303   0.865   6.952   4.915
76155SOL    HW130304   0.809   6.912   4.982
76155SOL    HW230305   0.921   6.881   4.884
76156SOL     OW30306  12.748  12.087   9.970
76156SOL    HW130307  12.799  12.166   9.955
76156SOL    HW230308  12.659  12.109   9.941
76157SOL     OW30309   3.429   7.569   6.359
76157SOL    HW130310   3.422   7.646   6.416
76157SOL    HW230311   3.359   7.511   6.389
76158SOL     OW30312  11.194  10.453   5.667
76158SOL    HW130313  11.222  10.531   5.618
76158SOL    HW230314  11.164  10.392   5.599
76159SOL     OW30315  13.123   9.486   8.826
76159SOL    HW130316  13.165   9.558   8.780
76159SOL    HW230317  13.030   9.508   8.825
76160SOL     OW30318   9.035   4.311  10.947
76160SOL    HW130319   8.950   4.323  10.904
76160SOL    HW230320   9.088   4.384  10.915
76161SOL     OW30321   1.194  12.416   3.881
76161SOL    HW130322   1.213  12.356   3.953
76161SOL    HW230323   1.107  12.390   3.851
76162SOL     OW30324  10.949  13.885   0.184
76162SOL    HW130325  11.042  13.903   0.195
76162SOL    HW230326  10.937  13.875   0.089
76163SOL     OW30327  10.079  14.277  10.500
76163SOL    HW130328  10.022  14.348  10.530
76163SOL    HW230329  10.031  14.197  10.522
76164SOL     OW30330  13.575   4.660  10.874
76164SOL    HW130331  13.552   4.668  10.967
76164SOL    HW230332  13.560   4.567  10.854
76165SOL     OW30333  12.429  14.220   1.464
76165SOL    HW130334  12.403  14.247   1.552
76165SOL    HW230335  12.356  14.167   1.432
76166SOL     OW30336   6.522  11.802   3.108
76166SOL    HW130337   6.523  11.894   3.080
76166SOL    HW230338   6.524  11.806   3.203
76167SOL     OW30339   4.707   8.544   6.250
76167SOL    HW130340   4.695   8.634   6.281
76167SOL    HW230341   4.802   8.537   6.234
76168SOL     OW30342  12.812   3.085   1.987
76168SOL    HW130343  12.892   3.034   1.970
76168SOL    HW230344  12.799   3.077   2.082
76169SOL     OW30345  14.024   3.169   8.025
76169SOL    HW130346  14.057   3.098   8.080
76169SOL    HW230347  13.932   3.147   8.010
76170SOL     OW30348   1.759   0.403   4.664
76170SOL    HW130349   1.769   0.461   4.739
76170SOL    HW230350   1.842   0.355   4.659
76171SOL     OW30351  12.663   6.497   5.554
76171SOL    HW130352  12.594   6.516   5.617
76171SOL    HW230353  12.679   6.580   5.509
76172SOL     OW30354   7.807   1.653  12.609
76172SOL    HW130355   7.833   1.602  12.686
76172SOL    HW230356   7.731   1.703  12.637
76173SOL     OW30357  10.337  10.812  14.007
76173SOL    HW130358  10.244  10.833  14.012
76173SOL    HW230359  10.353  10.755  14.082
76174SOL     OW30360  10.238   1.759   5.229
76174SOL    HW130361  10.241   1.673   5.187
76174SOL    HW230362  10.325   1.769   5.268
76175SOL     OW30363   3.614   7.935  13.698
76175SOL    HW130364   3.645   8.023  13.717
76175SOL    HW230365   3.693   7.882  13.688
76176SOL     OW30366   7.602   3.189  14.376
76176SOL    HW130367   7.538   3.159  14.311
76176SOL    HW230368   7.597   3.124  14.446
76177SOL     OW30369  11.702  11.216  12.969
76177SOL    HW130370  11.728  11.158  13.041
76177SOL    HW230371  11.732  11.171  12.890
76178SOL     OW30372   8.394   0.976   1.434
76178SOL    HW130373   8.371   0.885   1.415
76178SOL    HW230374   8.472   0.993   1.381
76179SOL     OW30375   0.131   4.669   5.095
76179SOL    HW130376   0.187   4.705   5.026
76179SOL    HW230377   0.138   4.732   5.167
76180SOL     OW30378   8.028  10.153   0.835
76180SOL    HW130379   8.052  10.080   0.892
76180SOL    HW230380   8.111  10.189   0.806
76181SOL     OW30381   9.869  10.451   8.503
76181SOL    HW130382   9.845  10.435   8.412
76181SOL    HW230383   9.949  10.400   8.517
76182SOL     OW30384  11.071   3.762   8.213
76182SOL    HW130385  11.114   3.752   8.128
76182SOL    HW230386  11.095   3.682   8.261
76183SOL     OW30387   1.922   5.820   0.230
76183SOL    HW130388   1.967   5.891   0.276
76183SOL    HW230389   1.899   5.758   0.298
76184SOL     OW30390  10.743  12.939   5.582
76184SOL    HW130391  10.729  12.993   5.659
76184SOL    HW230392  10.655  12.924   5.547
76185SOL     OW30393  14.161   3.552   9.960
76185SOL    HW130394  14.134   3.600  10.039
76185SOL    HW230395  14.244   3.593   9.934
76186SOL     OW30396   3.911  14.270   7.343
76186SOL    HW130397   4.003  14.293   7.339
76186SOL    HW230398   3.900  14.229   7.429
76187SOL     OW30399   9.128   2.333  13.792
76187SOL    HW130400   9.065   2.400  13.766
76187SOL    HW230401   9.161   2.298  13.709
76188SOL     OW30402  13.009   4.281   4.994
76188SOL    HW130403  13.076   4.222   5.028
76188SOL    HW230404  13.044   4.311   4.910
76189SOL     OW30405   7.780   4.047  10.296
76189SOL    HW130406   7.821   4.133  10.288
76189SOL    HW230407   7.703   4.051  10.241
76190SOL     OW30408   7.561   9.083  12.672
76190SOL    HW130409   7.564   9.027  12.750
76190SOL    HW230410   7.653   9.094  12.647
76191SOL     OW30411   6.118  11.293  11.668
76191SOL    HW130412   6.127  11.304  11.763
76191SOL    HW230413   6.111  11.382  11.634
76192SOL     OW30414  13.855   2.095   6.799
76192SOL    HW130415  13.925   2.149   6.764
76192SOL    HW230416  13.859   2.108   6.894
76193SOL     OW30417   8.167   0.771   1.029
76193SOL    HW130418   8.233   0.808   0.969
76193SOL    HW230419   8.149   0.684   0.994
76194SOL     OW30420  11.145   5.118   8.356
76194SOL    HW130421  11.234   5.095   8.331
76194SOL    HW230422  11.089   5.066   8.297
76195SOL     OW30423   8.257  13.329   3.282
76195SOL    HW130424   8.268  13.382   3.203
76195SOL    HW230425   8.305  13.377   3.350
76196SOL     OW30426   4.320  13.658   7.315
76196SOL    HW130427   4.369  13.675   7.395
76196SOL    HW230428   4.232  13.689   7.334
76197SOL     OW30429   5.305   2.560   2.597
76197SOL    HW130430   5.350   2.635   2.558
76197SOL    HW230431   5.257   2.597   2.671
76198SOL     OW30432  11.497   9.621  14.105
76198SOL    HW130433  11.529   9.708  14.129
76198SOL    HW230434  11.479   9.579  14.190
76199SOL     OW30435   7.313   3.320  11.663
76199SOL    HW130436   7.262   3.262  11.720
76199SOL    HW230437   7.385   3.265  11.631
76200SOL     OW30438   7.361   5.334   6.121
76200SOL    HW130439   7.287   5.283   6.154
76200SOL    HW230440   7.360   5.414   6.174
76201SOL     OW30441  10.664   5.664   9.958
76201SOL    HW130442  10.705   5.610  10.026
76201SOL    HW230443  10.649   5.748  10.001
76202SOL     OW30444  10.220   0.878   3.934
76202SOL    HW130445  10.188   0.790   3.915
76202SOL    HW230446  10.237   0.917   3.848
76203SOL     OW30447   7.549   8.547   3.510
76203SOL    HW130448   7.541   8.563   3.416
76203SOL    HW230449   7.487   8.477   3.528
76204SOL     OW30450   2.347  12.182  10.905
76204SOL    HW130451   2.335  12.156  10.814
76204SOL    HW230452   2.401  12.261  10.900
76205SOL     OW30453  10.538  14.517  10.757
76205SOL    HW130454  10.531  14.606  10.794
76205SOL    HW230455  10.632  14.499  10.757
76206SOL     OW30456   3.093   9.746   6.410
76206SOL    HW130457   3.076   9.686   6.483
76206SOL    HW230458   3.123   9.827   6.452
76207SOL     OW30459   7.697   6.780  14.488
76207SOL    HW130460   7.785   6.813  14.469
76207SOL    HW230461   7.707   6.729  14.568
76208SOL     OW30462   6.493   4.802   3.188
76208SOL    HW130463   6.412   4.752   3.189
76208SOL    HW230464   6.559   4.742   3.221
76209SOL     OW30465   6.340   5.287   3.687
76209SOL    HW130466   6.321   5.333   3.769
76209SOL    HW230467   6.358   5.197   3.713
76210SOL     OW30468   5.555   6.938  10.189
76210SOL    HW130469   5.524   6.848  10.181
76210SOL    HW230470   5.635   6.941  10.137
76211SOL     OW30471   1.447   1.130   3.771
76211SOL    HW130472   1.536   1.098   3.785
76211SOL    HW230473   1.452   1.178   3.688
76212SOL     OW30474  14.279   8.441   5.447
76212SOL    HW130475  14.280   8.512   5.510
76212SOL    HW230476  14.186   8.424   5.431
76213SOL     OW30477   7.656  11.354  10.176
76213SOL    HW130478   7.724  11.404  10.222
76213SOL    HW230479   7.674  11.370  10.083
76214SOL     OW30480   7.950  13.418   8.996
76214SOL    HW130481   7.918  13.414   8.905
76214SOL    HW230482   8.037  13.379   8.993
76215SOL     OW30483   7.206  14.786   8.455
76215SOL    HW130484   7.232  14.773   8.363
76215SOL    HW230485   7.167  14.873   8.456
76216SOL     OW30486  12.079   6.298   4.972
76216SOL    HW130487  12.064   6.280   4.879
76216SOL    HW230488  11.997   6.274   5.014
76217SOL     OW30489   4.049   9.827  14.577
76217SOL    HW130490   3.966   9.868  14.598
76217SOL    HW230491   4.088   9.882  14.510
76218SOL     OW30492   2.199   3.645  12.627
76218SOL    HW130493   2.130   3.672  12.688
76218SOL    HW230494   2.241   3.571  12.669
76219SOL     OW30495   1.826  13.317   7.742
76219SOL    HW130496   1.850  13.407   7.763
76219SOL    HW230497   1.819  13.315   7.646
76220SOL     OW30498  11.116  14.285   3.469
76220SOL    HW130499  11.207  14.285   3.438
76220SOL    HW230500  11.117  14.226   3.545
76221SOL     OW30501   0.506   4.762  11.808
76221SOL    HW130502   0.459   4.823  11.751
76221SOL    HW230503   0.439   4.703  11.842
76222SOL     OW30504   4.354   1.664   2.484
76222SOL    HW130505   4.387   1.574   2.475
76222SOL    HW230506   4.356   1.681   2.579
76223SOL     OW30507   5.827   9.983   3.893
76223SOL    HW130508   5.904   9.986   3.836
76223SOL    HW230509   5.756  10.018   3.839
76224SOL     OW30510  14.081   8.260   9.430
76224SOL    HW130511  14.029   8.199   9.376
76224SOL    HW230512  14.057   8.239   9.520
76225SOL     OW30513   5.233   5.377   5.465
76225SOL    HW130514   5.143   5.350   5.446
76225SOL    HW230515   5.281   5.360   5.385
76226SOL     OW30516  12.432   8.070   4.139
76226SOL    HW130517  12.462   8.079   4.049
76226SOL    HW230518  12.493   8.007   4.179
76227SOL     OW30519  14.344  11.775   7.921
76227SOL    HW130520  14.285  11.733   7.983
76227SOL    HW230521  14.398  11.833   7.975
76228SOL     OW30522   1.622   9.534  14.870
76228SOL    HW130523   1.595   9.540   0.083
76228SOL    HW230524   1.546   9.498  14.825
76229SOL     OW30525   4.491   8.917   5.496
76229SOL    HW130526   4.552   8.853   5.459
76229SOL    HW230527   4.450   8.872   5.569
76230SOL     OW30528  14.425   8.807   3.385
76230SOL    HW130529  14.361   8.735   3.382
76230SOL    HW230530  14.488   8.781   3.452
76231SOL     OW30531   6.593   8.532   3.588
76231SOL    HW130532   6.543   8.477   3.528
76231SOL    HW230533   6.538   8.538   3.667
76232SOL     OW30534   7.118  13.376   2.214
76232SOL    HW130535   7.105  13.425   2.132
76232SOL    HW230536   7.185  13.312   2.192
76233SOL     OW30537   3.907  10.293   0.599
76233SOL    HW130538   3.950  10.337   0.525
76233SOL    HW230539   3.927  10.200   0.586
76234SOL     OW30540   6.292   5.474  12.889
76234SOL    HW130541   6.200   5.449  12.898
76234SOL    HW230542   6.290   5.555  12.839
76235SOL     OW30543   5.214   5.648  11.502
76235SOL    HW130544   5.263   5.730  11.495
76235SOL    HW230545   5.273   5.582  11.464
76236SOL     OW30546   7.745   0.623  11.153
76236SOL    HW130547   7.825   0.635  11.102
76236SOL    HW230548   7.771   0.568  11.226
76237SOL     OW30549  11.637  11.322   9.504
76237SOL    HW130550  11.580  11.399   9.491
76237SOL    HW230551  11.631  11.304   9.597
76238SOL     OW30552  14.040  13.543   9.240
76238SOL    HW130553  14.044  13.502   9.153
76238SOL    HW230554  13.966  13.604   9.234
76239SOL     OW30555  10.780  11.689   6.533
76239SOL    HW130556  10.820  11.755   6.591
76239SOL    HW230557  10.813  11.606   6.565
76240SOL     OW30558   4.311   9.172   7.451
76240SOL    HW130559   4.399   9.150   7.418
76240SOL    HW230560   4.262   9.200   7.374
76241SOL     OW30561  13.732   8.175  11.069
76241SOL    HW130562  13.744   8.188  11.163
76241SOL    HW230563  13.645   8.211  11.051
76242SOL     OW30564   8.699   7.111   1.748
76242SOL    HW130565   8.644   7.186   1.768
76242SOL    HW230566   8.689   7.051   1.822
76243SOL     OW30567   9.302   9.164   6.245
76243SOL    HW130568   9.330   9.139   6.333
76243SOL    HW230569   9.318   9.086   6.192
76244SOL     OW30570   7.752  12.867   6.537
76244SOL    HW130571   7.835  12.823   6.550
76244SOL    HW230572   7.686  12.797   6.542
76245SOL     OW30573   5.104   2.489   7.982
76245SOL    HW130574   5.105   2.466   7.889
76245SOL    HW230575   5.042   2.428   8.021
76246SOL     OW30576  13.823   5.837  14.328
76246SOL    HW130577  13.767   5.906  14.364
76246SOL    HW230578  13.895   5.829  14.391
76247SOL     OW30579   6.112   4.270   3.003
76247SOL    HW130580   6.083   4.187   3.039
76247SOL    HW230581   6.047   4.334   3.032
76248SOL     OW30582   0.803  13.918   6.706
76248SOL    HW130583   0.753  13.925   6.787
76248SOL    HW230584   0.753  13.968   6.642
76249SOL     OW30585  11.963   4.037   1.358
76249SOL    HW130586  12.043   3.991   1.334
76249SOL    HW230587  11.947   4.096   1.284
76250SOL     OW30588   0.801  13.956  14.443
76250SOL    HW130589   0.761  13.933  14.527
76250SOL    HW230590   0.867  13.888  14.428
76251SOL     OW30591   3.097   4.214   0.847
76251SOL    HW130592   3.034   4.215   0.919
76251SOL    HW230593   3.062   4.278   0.785
76252SOL     OW30594   3.776   0.158  10.262
76252SOL    HW130595   3.775   0.074  10.216
76252SOL    HW230596   3.779   0.224  10.192
76253SOL     OW30597   2.436  14.292   6.587
76253SOL    HW130598   2.369  14.355   6.609
76253SOL    HW230599   2.418  14.216   6.643
76254SOL     OW30600  11.351   1.149   8.850
76254SOL    HW130601  11.338   1.196   8.932
76254SOL    HW230602  11.407   1.076   8.873
76255SOL     OW30603   8.610   8.799   2.092
76255SOL    HW130604   8.586   8.892   2.090
76255SOL    HW230605   8.696   8.797   2.049
76256SOL     OW30606   6.930   2.937  14.731
76256SOL    HW130607   6.839   2.954  14.708
76256SOL    HW230608   6.955   2.860  14.679
76257SOL     OW30609   3.105   4.178   8.207
76257SOL    HW130610   3.076   4.239   8.274
76257SOL    HW230611   3.024   4.152   8.162
76258SOL     OW30612   7.541   4.497   9.246
76258SOL    HW130613   7.524   4.426   9.184
76258SOL    HW230614   7.637   4.499   9.255
76259SOL     OW30615   4.520   9.318  12.961
76259SOL    HW130616   4.539   9.359  12.877
76259SOL    HW230617   4.559   9.376  13.026
76260SOL     OW30618   9.211   6.639  14.064
76260SOL    HW130619   9.246   6.594  14.141
76260SOL    HW230620   9.118   6.651  14.083
76261SOL     OW30621  12.491   7.883  14.432
76261SOL    HW130622  12.561   7.858  14.371
76261SOL    HW230623  12.428   7.929  14.377
76262SOL     OW30624  11.360   4.601   3.216
76262SOL    HW130625  11.444   4.556   3.200
76262SOL    HW230626  11.306   4.535   3.259
76263SOL     OW30627  10.917  10.386   6.542
76263SOL    HW130628  10.961  10.316   6.494
76263SOL    HW230629  10.963  10.390   6.626
76264SOL     OW30630  10.030   1.950   4.676
76264SOL    HW130631  10.068   2.017   4.733
76264SOL    HW230632   9.965   1.907   4.731
76265SOL     OW30633  13.703   4.523   4.490
76265SOL    HW130634  13.772   4.464   4.461
76265SOL    HW230635  13.624   4.470   4.488
76266SOL     OW30636   4.420   0.863   3.943
76266SOL    HW130637   4.358   0.918   3.895
76266SOL    HW230638   4.416   0.894   4.033
76267SOL     OW30639   0.786   8.073  10.445
76267SOL    HW130640   0.747   7.999  10.399
76267SOL    HW230641   0.711   8.127  10.471
76268SOL     OW30642  11.080  11.812  12.949
76268SOL    HW130643  11.084  11.795  13.043
76268SOL    HW230644  11.157  11.865  12.930
76269SOL     OW30645   4.829   9.106   7.840
76269SOL    HW130646   4.768   9.172   7.806
76269SOL    HW230647   4.872   9.150   7.914
76270SOL     OW30648   8.271   0.669   0.605
76270SOL    HW130649   8.194   0.617   0.583
76270SOL    HW230650   8.286   0.652   0.698
76271SOL     OW30651   6.710   5.607   5.475
76271SOL    HW130652   6.768   5.604   5.551
76271SOL    HW230653   6.769   5.606   5.399
76272SOL     OW30654   5.612  12.043  13.985
76272SOL    HW130655   5.584  11.952  13.975
76272SOL    HW230656   5.618  12.077  13.896
76273SOL     OW30657   2.846   3.993  12.544
76273SOL    HW130658   2.848   4.088  12.530
76273SOL    HW230659   2.931   3.963  12.515
76274SOL     OW30660   9.665   2.544  14.844
76274SOL    HW130661   9.579   2.584  14.858
76274SOL    HW230662   9.683   2.497   0.046
76275SOL     OW30663   2.281  14.382  13.059
76275SOL    HW130664   2.352  14.363  12.997
76275SOL    HW230665   2.212  14.420  13.006
76276SOL     OW30666  12.201  13.486  14.473
76276SOL    HW130667  12.193  13.422  14.544
76276SOL    HW230668  12.192  13.434  14.393
76277SOL     OW30669  12.410  11.121   4.449
76277SOL    HW130670  12.494  11.077   4.432
76277SOL    HW230671  12.381  11.150   4.362
76278SOL     OW30672   1.260   9.673  13.952
76278SOL    HW130673   1.310   9.596  13.979
76278SOL    HW230674   1.280   9.739  14.018
76279SOL     OW30675   1.712   1.816  13.099
76279SOL    HW130676   1.657   1.799  13.176
76279SOL    HW230677   1.683   1.752  13.034
76280SOL     OW30678   0.166   9.460   0.328
76280SOL    HW130679   0.078   9.479   0.361
76280SOL    HW230680   0.179   9.523   0.258
76281SOL     OW30681   6.230   3.354   1.386
76281SOL    HW130682   6.140   3.335   1.361
76281SOL    HW230683   6.267   3.400   1.311
76282SOL     OW30684   1.408   3.684   0.977
76282SOL    HW130685   1.316   3.679   1.002
76282SOL    HW230686   1.407   3.688   0.882
76283SOL     OW30687   0.736   2.777   3.567
76283SOL    HW130688   0.643   2.778   3.589
76283SOL    HW230689   0.780   2.794   3.651
76284SOL     OW30690   6.182   6.705   6.950
76284SOL    HW130691   6.167   6.633   7.012
76284SOL    HW230692   6.256   6.754   6.988
76285SOL     OW30693   1.668  14.871   1.532
76285SOL    HW130694   1.593   0.049   1.548
76285SOL    HW230695   1.744   0.046   1.553
76286SOL     OW30696   6.935  10.060  13.003
76286SOL    HW130697   6.963  10.012  12.925
76286SOL    HW230698   6.898   9.993  13.061
76287SOL     OW30699   8.302   4.913   8.860
76287SOL    HW130700   8.221   4.957   8.832
76287SOL    HW230701   8.329   4.962   8.938
76288SOL     OW30702  10.306   4.498   1.647
76288SOL    HW130703  10.385   4.546   1.623
76288SOL    HW230704  10.292   4.437   1.575
76289SOL     OW30705   0.496   6.844  13.942
76289SOL    HW130706   0.451   6.775  13.991
76289SOL    HW230707   0.548   6.890  14.008
76290SOL     OW30708   2.971  10.240   3.106
76290SOL    HW130709   3.004  10.197   3.028
76290SOL    HW230710   2.949  10.169   3.166
76291SOL     OW30711   7.819   6.315  10.275
76291SOL    HW130712   7.882   6.387  10.278
76291SOL    HW230713   7.760   6.333  10.349
76292SOL     OW30714   9.394   3.241  12.472
76292SOL    HW130715   9.390   3.264  12.565
76292SOL    HW230716   9.302   3.228  12.447
76293SOL     OW30717  13.390   0.355   9.788
76293SOL    HW130718  13.414   0.299   9.714
76293SOL    HW230719  13.297   0.337   9.803
76294SOL     OW30720   2.567  14.441   9.446
76294SOL    HW130721   2.615  14.504   9.499
76294SOL    HW230722   2.532  14.492   9.373
76295SOL     OW30723   9.582   0.805   6.327
76295SOL    HW130724   9.563   0.713   6.308
76295SOL    HW230725   9.523   0.827   6.400
76296SOL     OW30726  14.433   0.741  10.517
76296SOL    HW130727  14.418   0.835  10.511
76296SOL    HW230728  14.345   0.703  10.521
76297SOL     OW30729  12.414  14.115   0.111
76297SOL    HW130730  12.328  14.101   0.071
76297SOL    HW230731  12.439  14.029   0.143
76298SOL     OW30732   2.354  13.658   5.590
76298SOL    HW130733   2.412  13.697   5.655
76298SOL    HW230734   2.396  13.575   5.566
76299SOL     OW30735  11.932   7.489   7.192
76299SOL    HW130736  11.892   7.415   7.146
76299SOL    HW230737  12.023   7.463   7.204
76300SOL     OW30738   7.777   4.765  11.653
76300SOL    HW130739   7.686   4.783  11.676
76300SOL    HW230740   7.786   4.670  11.660
76301SOL     OW30741   8.911   6.251   2.842
76301SOL    HW130742   8.874   6.255   2.754
76301SOL    HW230743   8.869   6.174   2.882
76302SOL     OW30744  10.211   3.654   6.328
76302SOL    HW130745  10.119   3.654   6.356
76302SOL    HW230746  10.226   3.742   6.296
76303SOL     OW30747   0.942   5.819   7.461
76303SOL    HW130748   1.021   5.773   7.488
76303SOL    HW230749   0.911   5.862   7.542
76304SOL     OW30750   8.911  10.948   1.194
76304SOL    HW130751   8.820  10.918   1.201
76304SOL    HW230752   8.954  10.881   1.142
76305SOL     OW30753  12.660   0.064   8.925
76305SOL    HW130754  12.569   0.054   8.895
76305SOL    HW230755  12.712   0.019   8.859
76306SOL     OW30756   4.475   5.975   4.533
76306SOL    HW130757   4.522   5.893   4.551
76306SOL    HW230758   4.498   5.996   4.443
76307SOL     OW30759   8.791   5.069   2.831
76307SOL    HW130760   8.845   4.998   2.797
76307SOL    HW230761   8.847   5.147   2.827
76308SOL     OW30762  10.699   6.983   8.530
76308SOL    HW130763  10.630   6.917   8.525
76308SOL    HW230764  10.652   7.065   8.548
76309SOL     OW30765   7.454  11.127   6.434
76309SOL    HW130766   7.463  11.218   6.463
76309SOL    HW230767   7.374  11.127   6.381
76310SOL     OW30768   4.003   9.857   3.110
76310SOL    HW130769   4.024   9.949   3.094
76310SOL    HW230770   3.932   9.860   3.175
76311SOL     OW30771  12.350   9.786   3.777
76311SOL    HW130772  12.317   9.840   3.704
76311SOL    HW230773  12.445   9.799   3.775
76312SOL     OW30774   7.435   8.253  12.068
76312SOL    HW130775   7.373   8.279  12.136
76312SOL    HW230776   7.518   8.292  12.094
76313SOL     OW30777   2.386   0.181   6.387
76313SOL    HW130778   2.391   0.249   6.319
76313SOL    HW230779   2.407   0.228   6.468
76314SOL     OW30780   4.663  10.743   6.690
76314SOL    HW130781   4.741  10.749   6.635
76314SOL    HW230782   4.621  10.662   6.663
76315SOL     OW30783   7.111  11.036   6.614
76315SOL    HW130784   7.135  10.984   6.537
76315SOL    HW230785   7.015  11.033   6.616
76316SOL     OW30786  12.402  14.420   4.746
76316SOL    HW130787  12.308  14.412   4.730
76316SOL    HW230788  12.422  14.510   4.721
76317SOL     OW30789  12.141  11.337   9.656
76317SOL    HW130790  12.112  11.410   9.710
76317SOL    HW230791  12.148  11.374   9.568
76318SOL     OW30792   6.744   3.443   8.419
76318SOL    HW130793   6.793   3.449   8.501
76318SOL    HW230794   6.748   3.532   8.382
76319SOL     OW30795  10.518   9.245   7.618
76319SOL    HW130796  10.435   9.200   7.598
76319SOL    HW230797  10.492   9.325   7.664
76320SOL     OW30798  11.090   6.591  12.159
76320SOL    HW130799  11.043   6.565  12.080
76320SOL    HW230800  11.093   6.512  12.212
76321SOL     OW30801   9.218   7.334   0.546
76321SOL    HW130802   9.134   7.342   0.592
76321SOL    HW230803   9.284   7.338   0.615
76322SOL     OW30804   5.429   2.842   7.689
76322SOL    HW130805   5.449   2.890   7.609
76322SOL    HW230806   5.354   2.787   7.665
76323SOL     OW30807   8.484  14.286  13.920
76323SOL    HW130808   8.571  14.283  13.961
76323SOL    HW230809   8.436  14.215  13.962
76324SOL     OW30810   1.788  13.909   4.282
76324SOL    HW130811   1.876  13.924   4.249
76324SOL    HW230812   1.784  13.960   4.363
76325SOL     OW30813   7.571   4.684  11.322
76325SOL    HW130814   7.562   4.616  11.255
76325SOL    HW230815   7.507   4.660  11.390
76326SOL     OW30816   1.698   4.796   5.127
76326SOL    HW130817   1.624   4.738   5.141
76326SOL    HW230818   1.733   4.771   5.042
76327SOL     OW30819   6.423   3.057   8.177
76327SOL    HW130820   6.517   3.040   8.187
76327SOL    HW230821   6.405   3.037   8.085
76328SOL     OW30822   6.689   4.949   9.593
76328SOL    HW130823   6.652   4.981   9.675
76328SOL    HW230824   6.775   4.990   9.587
76329SOL     OW30825  11.031  11.867  11.494
76329SOL    HW130826  11.125  11.885  11.492
76329SOL    HW230827  11.001  11.884  11.405
76330SOL     OW30828   6.376   2.049  13.577
76330SOL    HW130829   6.359   2.002  13.495
76330SOL    HW230830   6.295   2.039  13.628
76331SOL     OW30831   7.677  13.394   5.787
76331SOL    HW130832   7.635  13.329   5.843
76331SOL    HW230833   7.634  13.383   5.701
76332SOL     OW30834   4.287   1.020   1.991
76332SOL    HW130835   4.294   1.064   2.076
76332SOL    HW230836   4.300   0.927   2.011
76333SOL     OW30837  13.821   5.742   2.269
76333SOL    HW130838  13.759   5.682   2.309
76333SOL    HW230839  13.795   5.829   2.300
76334SOL     OW30840  13.447  12.888   5.751
76334SOL    HW130841  13.448  12.972   5.706
76334SOL    HW230842  13.451  12.910   5.844
76335SOL     OW30843  14.137   4.004  11.908
76335SOL    HW130844  14.062   3.953  11.876
76335SOL    HW230845  14.142   4.079  11.848
76336SOL     OW30846  14.462  14.484   8.304
76336SOL    HW130847  14.431  14.560   8.255
76336SOL    HW230848  14.467  14.515   8.395
76337SOL     OW30849   3.435   0.733   4.304
76337SOL    HW130850   3.469   0.778   4.227
76337SOL    HW230851   3.339   0.741   4.297
76338SOL     OW30852   1.650   7.203   0.012
76338SOL    HW130853   1.692   7.274   0.062
76338SOL    HW230854   1.703   7.196  14.812
76339SOL     OW30855  13.179  12.644  12.040
76339SOL    HW130856  13.228  12.651  11.958
76339SOL    HW230857  13.096  12.688  12.023
76340SOL     OW30858   5.491   9.689   4.320
76340SOL    HW130859   5.494   9.622   4.252
76340SOL    HW230860   5.558   9.662   4.383
76341SOL     OW30861   7.026  13.301   5.161
76341SOL    HW130862   6.947  13.247   5.162
76341SOL    HW230863   7.070  13.281   5.243
76342SOL     OW30864   4.016  10.272   9.505
76342SOL    HW130865   4.087  10.306   9.560
76342SOL    HW230866   3.958  10.347   9.493
76343SOL     OW30867   1.717   9.211   7.958
76343SOL    HW130868   1.737   9.187   8.049
76343SOL    HW230869   1.793   9.262   7.929
76344SOL     OW30870  11.853   8.552   2.952
76344SOL    HW130871  11.810   8.618   2.897
76344SOL    HW230872  11.832   8.577   3.041
76345SOL     OW30873   7.369   2.105   0.292
76345SOL    HW130874   7.417   2.181   0.260
76345SOL    HW230875   7.321   2.137   0.368
76346SOL     OW30876   1.631  13.789   7.233
76346SOL    HW130877   1.597  13.781   7.322
76346SOL    HW230878   1.716  13.746   7.236
76347SOL     OW30879   2.867   3.379  12.629
76347SOL    HW130880   2.917   3.451  12.668
76347SOL    HW230881   2.777   3.393  12.660
76348SOL     OW30882  14.349   9.663   4.471
76348SOL    HW130883  14.356   9.607   4.548
76348SOL    HW230884  14.439   9.693   4.455
76349SOL     OW30885  13.520   7.995   3.095
76349SOL    HW130886  13.574   8.071   3.073
76349SOL    HW230887  13.566   7.954   3.169
76350SOL     OW30888  10.673   0.618   3.550
76350SOL    HW130889  10.690   0.538   3.600
76350SOL    HW230890  10.686   0.593   3.459
76351SOL     OW30891   7.668   3.749  12.858
76351SOL    HW130892   7.744   3.749  12.916
76351SOL    HW230893   7.661   3.658  12.828
76352SOL     OW30894   8.897   3.408   1.349
76352SOL    HW130895   8.950   3.393   1.427
76352SOL    HW230896   8.960   3.409   1.277
76353SOL     OW30897   0.819   4.145  12.483
76353SOL    HW130898   0.752   4.206  12.514
76353SOL    HW230899   0.885   4.145  12.552
76354SOL     OW30900  10.553   5.481   8.078
76354SOL    HW130901  10.590   5.443   7.999
76354SOL    HW230902  10.612   5.454   8.148
76355SOL     OW30903   4.401   4.357  12.529
76355SOL    HW130904   4.398   4.298  12.454
76355SOL    HW230905   4.485   4.402  12.521
76356SOL     OW30906   0.010   4.973   5.996
76356SOL    HW130907  14.834   4.933   5.930
76356SOL    HW230908   0.004   5.067   5.979
76357SOL     OW30909   7.269   6.573  12.400
76357SOL    HW130910   7.356   6.557  12.435
76357SOL    HW230911   7.225   6.489  12.406
76358SOL     OW30912   4.029   7.554   4.258
76358SOL    HW130913   4.120   7.549   4.288
76358SOL    HW230914   3.978   7.511   4.327
76359SOL     OW30915   1.667   1.191   5.816
76359SOL    HW130916   1.715   1.192   5.733
76359SOL    HW230917   1.735   1.182   5.883
76360SOL     OW30918   1.557   2.524  11.152
76360SOL    HW130919   1.599   2.487  11.075
76360SOL    HW230920   1.604   2.484  11.226
76361SOL     OW30921   0.996  12.122   3.299
76361SOL    HW130922   1.060  12.085   3.360
76361SOL    HW230923   1.017  12.215   3.297
76362SOL     OW30924  12.840   6.683   0.904
76362SOL    HW130925  12.787   6.669   0.983
76362SOL    HW230926  12.862   6.595   0.874
76363SOL     OW30927  10.869  13.757   5.898
76363SOL    HW130928  10.890  13.701   5.973
76363SOL    HW230929  10.797  13.713   5.854
76364SOL     OW30930   3.350   1.645   9.978
76364SOL    HW130931   3.419   1.600  10.028
76364SOL    HW230932   3.391   1.726   9.949
76365SOL     OW30933  11.611  13.620   9.059
76365SOL    HW130934  11.544  13.689   9.063
76365SOL    HW230935  11.568  13.544   9.098
76366SOL     OW30936   8.885   9.462   8.678
76366SOL    HW130937   8.855   9.415   8.600
76366SOL    HW230938   8.862   9.554   8.661
76367SOL     OW30939   1.227  13.171  11.276
76367SOL    HW130940   1.132  13.161  11.288
76367SOL    HW230941   1.246  13.116  11.200
76368SOL     OW30942   1.983   0.084   4.500
76368SOL    HW130943   1.980   0.131   4.583
76368SOL    HW230944   1.978   0.153   4.433
76369SOL     OW30945   8.596  13.825  14.300
76369SOL    HW130946   8.542  13.852  14.225
76369SOL    HW230947   8.652  13.901  14.316
76370SOL     OW30948   7.255  14.488   4.364
76370SOL    HW130949   7.182  14.462   4.308
76370SOL    HW230950   7.214  14.511   4.447
76371SOL     OW30951  11.278   7.754   8.157
76371SOL    HW130952  11.255   7.792   8.241
76371SOL    HW230953  11.246   7.664   8.162
76372SOL     OW30954   1.473   2.776   9.482
76372SOL    HW130955   1.469   2.711   9.552
76372SOL    HW230956   1.415   2.741   9.414
76373SOL     OW30957  10.481   9.856   3.906
76373SOL    HW130958  10.512   9.820   3.989
76373SOL    HW230959  10.556   9.904   3.871
76374SOL     OW30960   3.938  10.622  12.141
76374SOL    HW130961   4.029  10.626  12.170
76374SOL    HW230962   3.886  10.626  12.221
76375SOL     OW30963  12.268   6.972   9.038
76375SOL    HW130964  12.179   6.994   9.066
76375SOL    HW230965  12.260   6.958   8.944
76376SOL     OW30966   4.223   5.540   1.975
76376SOL    HW130967   4.291   5.581   1.922
76376SOL    HW230968   4.230   5.447   1.956
76377SOL     OW30969   3.713   6.225   9.434
76377SOL    HW130970   3.740   6.233   9.342
76377SOL    HW230971   3.714   6.130   9.451
76378SOL     OW30972   0.842   8.065   4.302
76378SOL    HW130973   0.855   8.152   4.265
76378SOL    HW230974   0.767   8.075   4.361
76379SOL     OW30975  14.459   2.455   3.926
76379SOL    HW130976  14.501   2.390   3.982
76379SOL    HW230977  14.426   2.521   3.987
76380SOL     OW30978  10.166   8.989  10.205
76380SOL    HW130979  10.144   8.918  10.144
76380SOL    HW230980  10.106   9.060  10.182
76381SOL     OW30981   7.132   0.782  11.269
76381SOL    HW130982   7.212   0.830  11.291
76381SOL    HW230983   7.162   0.700  11.230
76382SOL     OW30984  14.103  13.513   4.770
76382SOL    HW130985  14.052  13.594   4.769
76382SOL    HW230986  14.191  13.539   4.742
76383SOL     OW30987  13.355  11.881   1.726
76383SOL    HW130988  13.336  11.839   1.642
76383SOL    HW230989  13.346  11.975   1.707
76384SOL     OW30990  10.863   8.026   6.938
76384SOL    HW130991  10.902   8.029   6.851
76384SOL    HW230992  10.934   7.996   6.995
76385SOL     OW30993   8.125   1.394   0.551
76385SOL    HW130994   8.183   1.391   0.627
76385SOL    HW230995   8.051   1.338   0.574
76386SOL     OW30996  10.405   2.987   4.599
76386SOL    HW130997  10.368   3.005   4.686
76386SOL    HW230998  10.400   3.071   4.553
76387SOL     OW30999   9.299  12.486   9.141
76387SOL    HW131000   9.222  12.445   9.102
76387SOL    HW231001   9.314  12.438   9.223
76388SOL     OW31002  11.593  11.976   2.278
76388SOL    HW131003  11.605  12.057   2.228
76388SOL    HW231004  11.660  11.980   2.347
76389SOL     OW31005   0.673   4.855  10.173
76389SOL    HW131006   0.707   4.939  10.202
76389SOL    HW231007   0.712   4.791  10.233
76390SOL     OW31008   3.247   5.677   8.039
76390SOL    HW131009   3.205   5.747   7.991
76390SOL    HW231010   3.180   5.609   8.048
76391SOL     OW31011  14.874   1.192   1.689
76391SOL    HW131012  14.836   1.124   1.745
76391SOL    HW231013  14.834   1.178   1.603
76392SOL     OW31014   7.314  13.693   5.115
76392SOL    HW131015   7.234  13.649   5.144
76392SOL    HW231016   7.385  13.643   5.155
76393SOL     OW31017  11.065   1.501   5.438
76393SOL    HW131018  11.028   1.449   5.509
76393SOL    HW231019  11.156   1.516   5.465
76394SOL     OW31020   3.053   7.327   4.668
76394SOL    HW131021   3.043   7.304   4.576
76394SOL    HW231022   2.969   7.303   4.708
76395SOL     OW31023   3.404   0.741  11.199
76395SOL    HW131024   3.337   0.745  11.267
76395SOL    HW231025   3.444   0.828  11.200
76396SOL     OW31026  10.198  11.603   2.555
76396SOL    HW131027  10.271  11.599   2.493
76396SOL    HW231028  10.164  11.514   2.557
76397SOL     OW31029   5.414  14.397   3.873
76397SOL    HW131030   5.481  14.440   3.927
76397SOL    HW231031   5.452  14.312   3.850
76398SOL     OW31032   3.248  13.960  12.717
76398SOL    HW131033   3.265  14.010  12.797
76398SOL    HW231034   3.323  13.978  12.661
76399SOL     OW31035   7.477   4.481   7.113
76399SOL    HW131036   7.493   4.475   7.207
76399SOL    HW231037   7.559   4.451   7.074
76400SOL     OW31038   0.003  13.359  13.353
76400SOL    HW131039   0.020  13.446  13.387
76400SOL    HW231040   0.043  13.300  13.417
76401SOL     OW31041  12.379   5.811   2.807
76401SOL    HW131042  12.401   5.790   2.716
76401SOL    HW231043  12.290   5.846   2.802
76402SOL     OW31044   4.513   2.883   5.213
76402SOL    HW131045   4.537   2.863   5.123
76402SOL    HW231046   4.581   2.842   5.266
76403SOL     OW31047   3.053   6.905   5.430
76403SOL    HW131048   2.987   6.878   5.365
76403SOL    HW231049   3.062   6.999   5.417
76404SOL     OW31050  11.118  13.232   8.065
76404SOL    HW131051  11.069  13.159   8.103
76404SOL    HW231052  11.077  13.310   8.101
76405SOL     OW31053   4.035  11.620   4.424
76405SOL    HW131054   3.999  11.584   4.343
76405SOL    HW231055   3.959  11.643   4.476
76406SOL     OW31056  11.149  11.237   8.056
76406SOL    HW131057  11.143  11.141   8.063
76406SOL    HW231058  11.067  11.269   8.096
76407SOL     OW31059   2.514  13.134   4.157
76407SOL    HW131060   2.590  13.192   4.166
76407SOL    HW231061   2.451  13.185   4.107
76408SOL     OW31062  10.551   0.803  12.041
76408SOL    HW131063  10.476   0.842  12.086
76408SOL    HW231064  10.518   0.721  12.005
76409SOL     OW31065  11.785   7.244   3.903
76409SOL    HW131066  11.842   7.267   3.976
76409SOL    HW231067  11.768   7.150   3.915
76410SOL     OW31068   1.275  10.530   3.178
76410SOL    HW131069   1.311  10.595   3.117
76410SOL    HW231070   1.287  10.446   3.133
76411SOL     OW31071   7.687  13.839   1.088
76411SOL    HW131072   7.684  13.880   1.001
76411SOL    HW231073   7.756  13.887   1.134
76412SOL     OW31074   6.952   8.385   8.014
76412SOL    HW131075   7.039   8.375   7.975
76412SOL    HW231076   6.969   8.400   8.107
76413SOL     OW31077  10.991  13.379   6.128
76413SOL    HW131078  10.908  13.349   6.091
76413SOL    HW231079  11.055  13.312   6.103
76414SOL     OW31080   7.338  13.541   3.678
76414SOL    HW131081   7.267  13.500   3.630
76414SOL    HW231082   7.387  13.468   3.717
76415SOL     OW31083  13.380   4.765   8.669
76415SOL    HW131084  13.387   4.799   8.580
76415SOL    HW231085  13.304   4.810   8.706
76416SOL     OW31086   2.003   7.921  13.341
76416SOL    HW131087   2.004   7.981  13.415
76416SOL    HW231088   1.925   7.945  13.291
76417SOL     OW31089   8.029   9.222  13.026
76417SOL    HW131090   8.038   9.262  13.112
76417SOL    HW231091   7.960   9.156  13.037
76418SOL     OW31092  10.976  10.860   1.589
76418SOL    HW131093  11.047  10.811   1.631
76418SOL    HW231094  10.926  10.896   1.661
76419SOL     OW31095  12.209   9.014   8.228
76419SOL    HW131096  12.258   9.086   8.188
76419SOL    HW231097  12.118   9.045   8.230
76420SOL     OW31098   5.753   8.177   3.989
76420SOL    HW131099   5.733   8.133   4.071
76420SOL    HW231100   5.682   8.241   3.979
76421SOL     OW31101   8.958   4.518   9.674
76421SOL    HW131102   9.033   4.459   9.677
76421SOL    HW231103   8.975   4.575   9.599
76422SOL     OW31104   8.486   7.592   5.971
76422SOL    HW131105   8.441   7.600   5.887
76422SOL    HW231106   8.417   7.593   6.037
76423SOL     OW31107  11.441  11.110   5.344
76423SOL    HW131108  11.388  11.086   5.421
76423SOL    HW231109  11.487  11.189   5.371
76424SOL     OW31110   7.390   3.398   1.923
76424SOL    HW131111   7.323   3.444   1.873
76424SOL    HW231112   7.342   3.349   1.989
76425SOL     OW31113  13.452  11.621   1.941
76425SOL    HW131114  13.403  11.541   1.958
76425SOL    HW231115  13.443  11.635   1.846
76426SOL     OW31116   3.153   2.484  10.597
76426SOL    HW131117   3.099   2.418  10.553
76426SOL    HW231118   3.170   2.448  10.684
76427SOL     OW31119  13.000   8.613   3.847
76427SOL    HW131120  12.929   8.559   3.883
76427SOL    HW231121  13.056   8.551   3.801
76428SOL     OW31122  13.473   1.122   2.927
76428SOL    HW131123  13.394   1.177   2.927
76428SOL    HW231124  13.541   1.178   2.964
76429SOL     OW31125  11.985  11.666  12.786
76429SOL    HW131126  12.007  11.705  12.871
76429SOL    HW231127  12.065  11.620  12.760
76430SOL     OW31128   8.330   2.580   3.451
76430SOL    HW131129   8.279   2.576   3.531
76430SOL    HW231130   8.302   2.661   3.408
76431SOL     OW31131   1.648   0.183  10.887
76431SOL    HW131132   1.614   0.100  10.855
76431SOL    HW231133   1.583   0.248  10.860
76432SOL     OW31134   4.107   0.022   5.725
76432SOL    HW131135   4.171  14.842   5.765
76432SOL    HW231136   4.036   0.027   5.789
76433SOL     OW31137   7.735  10.594  14.563
76433SOL    HW131138   7.656  10.542  14.549
76433SOL    HW231139   7.715  10.650  14.638
76434SOL     OW31140  12.582  13.631   1.202
76434SOL    HW131141  12.602  13.594   1.288
76434SOL    HW231142  12.664  13.672   1.174
76435SOL     OW31143   3.525   3.812   6.784
76435SOL    HW131144   3.597   3.808   6.846
76435SOL    HW231145   3.466   3.741   6.811
76436SOL     OW31146   9.936   3.896   2.378
76436SOL    HW131147   9.893   3.855   2.303
76436SOL    HW231148   9.883   3.973   2.397
76437SOL     OW31149   7.428   4.304   5.164
76437SOL    HW131150   7.404   4.330   5.075
76437SOL    HW231151   7.430   4.386   5.213
76438SOL     OW31152   4.013   9.678  14.849
76438SOL    HW131153   4.101   9.643  14.862
76438SOL    HW231154   4.027   9.769  14.822
76439SOL     OW31155   5.769   5.758  12.403
76439SOL    HW131156   5.813   5.842  12.402
76439SOL    HW231157   5.838   5.694  12.385
76440SOL     OW31158   6.962   2.187   4.101
76440SOL    HW131159   6.999   2.135   4.172
76440SOL    HW231160   6.944   2.273   4.140
76441SOL     OW31161  10.358   1.653  10.913
76441SOL    HW131162  10.372   1.582  10.850
76441SOL    HW231163  10.357   1.609  10.998
76442SOL     OW31164   4.662  14.802   7.992
76442SOL    HW131165   4.566  14.797   7.990
76442SOL    HW231166   4.690  14.754   7.914
76443SOL     OW31167   3.627   9.436   8.534
76443SOL    HW131168   3.641   9.525   8.566
76443SOL    HW231169   3.715   9.406   8.509
76444SOL     OW31170   2.191   8.888  12.975
76444SOL    HW131171   2.148   8.968  13.004
76444SOL    HW231172   2.126   8.844  12.920
76445SOL     OW31173   6.485   8.911   9.842
76445SOL    HW131174   6.463   8.818   9.844
76445SOL    HW231175   6.479   8.936   9.750
76446SOL     OW31176   6.943  12.943   1.088
76446SOL    HW131177   6.901  12.860   1.067
76446SOL    HW231178   6.926  12.955   1.182
76447SOL     OW31179   7.769   2.961  10.690
76447SOL    HW131180   7.810   2.888  10.736
76447SOL    HW231181   7.807   2.958  10.602
76448SOL     OW31182   5.196  13.080   3.707
76448SOL    HW131183   5.102  13.095   3.721
76448SOL    HW231184   5.239  13.148   3.759
76449SOL     OW31185   0.781   6.669  10.783
76449SOL    HW131186   0.705   6.670  10.724
76449SOL    HW231187   0.767   6.592  10.838
76450SOL     OW31188  13.116   7.367   1.128
76450SOL    HW131189  13.160   7.285   1.105
76450SOL    HW231190  13.184   7.433   1.118
76451SOL     OW31191  13.710   1.248   9.351
76451SOL    HW131192  13.691   1.154   9.346
76451SOL    HW231193  13.706   1.278   9.260
76452SOL     OW31194   3.432   9.354   8.740
76452SOL    HW131195   3.517   9.360   8.696
76452SOL    HW231196   3.452   9.370   8.833
76453SOL     OW31197   6.914   6.794   0.504
76453SOL    HW131198   6.826   6.811   0.537
76453SOL    HW231199   6.910   6.705   0.469
76454SOL     OW31200  11.640  12.078  12.033
76454SOL    HW131201  11.555  12.064  12.075
76454SOL    HW231202  11.668  11.990  12.007
76455SOL     OW31203   8.043  14.059  13.199
76455SOL    HW131204   8.074  14.113  13.271
76455SOL    HW231205   7.956  14.094  13.178
76456SOL     OW31206   9.286   6.306  10.256
76456SOL    HW131207   9.228   6.382  10.259
76456SOL    HW231208   9.294   6.285  10.163
76457SOL     OW31209   8.363  11.049   9.722
76457SOL    HW131210   8.338  11.004   9.641
76457SOL    HW231211   8.392  10.980   9.780
76458SOL     OW31212   1.162   3.030   4.846
76458SOL    HW131213   1.156   2.958   4.908
76458SOL    HW231214   1.143   3.108   4.898
76459SOL     OW31215   3.721   0.942   8.218
76459SOL    HW131216   3.755   0.991   8.293
76459SOL    HW231217   3.779   0.966   8.146
76460SOL     OW31218   9.607   6.589   6.460
76460SOL    HW131219   9.693   6.617   6.491
76460SOL    HW231220   9.585   6.512   6.513
76461SOL     OW31221   5.774  13.976   9.247
76461SOL    HW131222   5.777  14.021   9.331
76461SOL    HW231223   5.763  13.883   9.270
76462SOL     OW31224   7.633  14.508   7.590
76462SOL    HW131225   7.583  14.505   7.672
76462SOL    HW231226   7.588  14.448   7.532
76463SOL     OW31227   1.224   4.036  14.398
76463SOL    HW131228   1.302   4.017  14.346
76463SOL    HW231229   1.151   4.011  14.340
76464SOL     OW31230   0.817   9.731   8.709
76464SOL    HW131231   0.828   9.737   8.804
76464SOL    HW231232   0.731   9.691   8.697
76465SOL     OW31233   0.393   5.828   0.786
76465SOL    HW131234   0.427   5.747   0.748
76465SOL    HW231235   0.441   5.898   0.742
76466SOL     OW31236  10.683   9.457   3.352
76466SOL    HW131237  10.687   9.461   3.447
76466SOL    HW231238  10.636   9.376   3.333
76467SOL     OW31239  12.148   2.245   4.638
76467SOL    HW131240  12.072   2.299   4.661
76467SOL    HW231241  12.121   2.197   4.560
76468SOL     OW31242   1.130  10.239  11.688
76468SOL    HW131243   1.098  10.149  11.680
76468SOL    HW231244   1.067  10.291  11.638
76469SOL     OW31245   6.937   9.108   8.318
76469SOL    HW131246   6.876   9.062   8.377
76469SOL    HW231247   6.909   9.081   8.230
76470SOL     OW31248   7.666   3.930   3.540
76470SOL    HW131249   7.654   3.889   3.454
76470SOL    HW231250   7.738   3.882   3.580
76471SOL     OW31251  12.472  12.449  14.276
76471SOL    HW131252  12.463  12.439  14.371
76471SOL    HW231253  12.415  12.523  14.255
76472SOL     OW31254  12.039   7.222   6.902
76472SOL    HW131255  12.083   7.228   6.987
76472SOL    HW231256  12.110   7.207   6.840
76473SOL     OW31257  11.917   3.347   3.432
76473SOL    HW131258  11.836   3.392   3.455
76473SOL    HW231259  11.921   3.272   3.492
76474SOL     OW31260   0.017   5.588  14.828
76474SOL    HW131261   0.082   5.574  14.759
76474SOL    HW231262   0.035   5.520   0.013
76475SOL     OW31263  11.862  12.934  11.371
76475SOL    HW131264  11.859  12.915  11.277
76475SOL    HW231265  11.771  12.955  11.394
76476SOL     OW31266   1.154   5.789   5.754
76476SOL    HW131267   1.216   5.731   5.797
76476SOL    HW231268   1.209   5.850   5.705
76477SOL     OW31269   3.254  11.687   0.804
76477SOL    HW131270   3.237  11.635   0.725
76477SOL    HW231271   3.171  11.686   0.852
76478SOL     OW31272   1.674  11.330   5.810
76478SOL    HW131273   1.744  11.265   5.813
76478SOL    HW231274   1.695  11.391   5.881
76479SOL     OW31275  12.733  10.958  14.629
76479SOL    HW131276  12.663  11.012  14.591
76479SOL    HW231277  12.747  10.889  14.564
76480SOL     OW31278  12.813   9.996   2.050
76480SOL    HW131279  12.740  10.046   2.087
76480SOL    HW231280  12.864  10.060   2.000
76481SOL     OW31281  12.267  13.861  12.632
76481SOL    HW131282  12.261  13.879  12.726
76481SOL    HW231283  12.357  13.884  12.609
76482SOL     OW31284  13.178  12.387   6.643
76482SOL    HW131285  13.228  12.323   6.694
76482SOL    HW231286  13.241  12.456   6.622
76483SOL     OW31287  14.104  11.072  13.699
76483SOL    HW131288  14.142  10.998  13.652
76483SOL    HW231289  14.144  11.069  13.785
76484SOL     OW31290  11.652   8.707   2.837
76484SOL    HW131291  11.612   8.692   2.752
76484SOL    HW231292  11.579   8.725   2.896
76485SOL     OW31293   6.343   4.474   6.604
76485SOL    HW131294   6.298   4.425   6.536
76485SOL    HW231295   6.302   4.561   6.603
76486SOL     OW31296   4.890   0.512   0.699
76486SOL    HW131297   4.986   0.516   0.694
76486SOL    HW231298   4.860   0.560   0.622
76487SOL     OW31299   3.022   8.968   3.531
76487SOL    HW131300   3.026   8.873   3.525
76487SOL    HW231301   2.993   8.985   3.621
76488SOL     OW31302   7.770  14.827   3.965
76488SOL    HW131303   7.720  14.792   3.891
76488SOL    HW231304   7.711  14.818   4.040
76489SOL     OW31305   2.916  10.383  10.621
76489SOL    HW131306   2.835  10.332  10.608
76489SOL    HW231307   2.886  10.473  10.631
76490SOL     OW31308  13.750  10.512  12.551
76490SOL    HW131309  13.816  10.576  12.575
76490SOL    HW231310  13.691  10.559  12.492
76491SOL     OW31311   4.560   1.214   7.976
76491SOL    HW131312   4.500   1.246   7.910
76491SOL    HW231313   4.558   1.279   8.046
76492SOL     OW31314   7.816   4.707  14.531
76492SOL    HW131315   7.881   4.672  14.592
76492SOL    HW231316   7.739   4.651  14.544
76493SOL     OW31317   9.530   9.291   1.623
76493SOL    HW131318   9.460   9.356   1.631
76493SOL    HW231319   9.552   9.293   1.530
76494SOL     OW31320   3.724   5.588  14.629
76494SOL    HW131321   3.646   5.552  14.672
76494SOL    HW231322   3.797   5.564  14.688
76495SOL     OW31323   6.807   1.103   9.503
76495SOL    HW131324   6.785   1.190   9.470
76495SOL    HW231325   6.759   1.043   9.446
76496SOL     OW31326  12.998   5.006  10.050
76496SOL    HW131327  13.031   5.088  10.013
76496SOL    HW231328  12.904   5.007  10.032
76497SOL     OW31329   3.818   7.882   5.501
76497SOL    HW131330   3.858   7.866   5.416
76497SOL    HW231331   3.775   7.967   5.492
76498SOL     OW31332  12.053   6.158   7.780
76498SOL    HW131333  12.004   6.076   7.792
76498SOL    HW231334  12.133   6.133   7.736
76499SOL     OW31335  13.255  11.542   0.195
76499SOL    HW131336  13.223  11.546   0.105
76499SOL    HW231337  13.270  11.634   0.219
76500SOL     OW31338   8.097  12.164   1.944
76500SOL    HW131339   8.117  12.100   2.012
76500SOL    HW231340   8.002  12.155   1.930
76501SOL     OW31341   4.363   6.399  12.554
76501SOL    HW131342   4.384   6.314  12.591
76501SOL    HW231343   4.347   6.381  12.461
76502SOL     OW31344   0.877   5.484   2.721
76502SOL    HW131345   0.939   5.510   2.789
76502SOL    HW231346   0.932   5.453   2.649
76503SOL     OW31347  14.766   5.687   7.606
76503SOL    HW131348  14.748   5.721   7.693
76503SOL    HW231349  14.821   5.610   7.620
76504SOL     OW31350  11.057  11.953  12.375
76504SOL    HW131351  11.050  12.034  12.325
76504SOL    HW231352  11.121  11.973  12.443
76505SOL     OW31353  12.923  10.310   7.604
76505SOL    HW131354  12.967  10.371   7.662
76505SOL    HW231355  12.930  10.225   7.648
76506SOL     OW31356   7.910   1.564   2.401
76506SOL    HW131357   7.914   1.512   2.321
76506SOL    HW231358   8.001   1.578   2.425
76507SOL     OW31359  13.172   3.933  14.193
76507SOL    HW131360  13.121   3.965  14.268
76507SOL    HW231361  13.154   3.997  14.123
76508SOL     OW31362   5.864   5.175  11.313
76508SOL    HW131363   5.783   5.214  11.347
76508SOL    HW231364   5.836   5.125  11.237
76509SOL     OW31365   9.753   3.985   3.957
76509SOL    HW131366   9.795   3.990   3.871
76509SOL    HW231367   9.809   4.038   4.014
76510SOL     OW31368   1.170   6.868   4.581
76510SOL    HW131369   1.161   6.962   4.565
76510SOL    HW231370   1.231   6.838   4.513
76511SOL     OW31371  11.110  14.817  10.587
76511SOL    HW131372  11.133  14.740  10.535
76511SOL    HW231373  11.107  14.785  10.677
76512SOL     OW31374   4.437   3.749   3.097
76512SOL    HW131375   4.497   3.681   3.127
76512SOL    HW231376   4.370   3.754   3.165
76513SOL     OW31377   3.679   1.835   1.072
76513SOL    HW131378   3.674   1.764   1.136
76513SOL    HW231379   3.589   1.867   1.064
76514SOL     OW31380   4.687   1.073   3.962
76514SOL    HW131381   4.629   1.031   3.898
76514SOL    HW231382   4.767   1.091   3.913
76515SOL     OW31383  11.747   1.743  11.085
76515SOL    HW131384  11.668   1.706  11.046
76515SOL    HW231385  11.714   1.798  11.157
76516SOL     OW31386   2.251   3.457  11.588
76516SOL    HW131387   2.216   3.538  11.626
76516SOL    HW231388   2.337   3.481  11.556
76517SOL     OW31389   1.475   6.798   2.918
76517SOL    HW131390   1.390   6.840   2.930
76517SOL    HW231391   1.457   6.705   2.927
76518SOL     OW31392   0.609   5.129  14.524
76518SOL    HW131393   0.619   5.111  14.431
76518SOL    HW231394   0.526   5.088  14.548
76519SOL     OW31395   9.423   2.297   5.618
76519SOL    HW131396   9.499   2.308   5.675
76519SOL    HW231397   9.373   2.226   5.659
76520SOL     OW31398   1.070   9.293   4.874
76520SOL    HW131399   1.048   9.385   4.858
76520SOL    HW231400   1.066   9.284   4.969
76521SOL     OW31401   5.075  12.189   6.971
76521SOL    HW131402   5.138  12.207   6.901
76521SOL    HW231403   5.129  12.162   7.045
76522SOL     OW31404   2.516  11.081  12.282
76522SOL    HW131405   2.452  11.050  12.219
76522SOL    HW231406   2.514  11.177  12.274
76523SOL     OW31407   9.391  14.683  12.197
76523SOL    HW131408   9.303  14.719  12.212
76523SOL    HW231409   9.448  14.735  12.253
76524SOL     OW31410   0.476   5.033   8.734
76524SOL    HW131411   0.431   5.107   8.693
76524SOL    HW231412   0.416   5.003   8.802
76525SOL     OW31413  13.495   6.531   1.136
76525SOL    HW131414  13.463   6.580   1.060
76525SOL    HW231415  13.424   6.472   1.159
76526SOL     OW31416  13.962  10.323  11.086
76526SOL    HW131417  14.016  10.253  11.121
76526SOL    HW231418  13.877  10.312  11.130
76527SOL     OW31419   3.405  12.256  14.056
76527SOL    HW131420   3.358  12.293  14.130
76527SOL    HW231421   3.383  12.313  13.982
76528SOL     OW31422  14.291  14.536   5.611
76528SOL    HW131423  14.314  14.489   5.692
76528SOL    HW231424  14.229  14.477   5.567
76529SOL     OW31425  11.899   0.937  11.767
76529SOL    HW131426  11.980   0.937  11.716
76529SOL    HW231427  11.925   0.969  11.853
76530SOL     OW31428   0.598  12.252  10.230
76530SOL    HW131429   0.677  12.285  10.274
76530SOL    HW231430   0.545  12.330  10.217
76531SOL     OW31431  10.464   6.193  11.149
76531SOL    HW131432  10.477   6.171  11.241
76531SOL    HW231433  10.525   6.264  11.133
76532SOL     OW31434  11.230  12.465  12.480
76532SOL    HW131435  11.216  12.545  12.531
76532SOL    HW231436  11.169  12.472  12.407
76533SOL     OW31437   4.754   5.544  11.884
76533SOL    HW131438   4.713   5.493  11.814
76533SOL    HW231439   4.689   5.545  11.954
76534SOL     OW31440   4.272  10.619   4.142
76534SOL    HW131441   4.355  10.656   4.173
76534SOL    HW231442   4.267  10.533   4.183
76535SOL     OW31443   7.011   3.074  10.034
76535SOL    HW131444   7.102   3.085  10.060
76535SOL    HW231445   6.979   3.163  10.019
76536SOL     OW31446  10.079   3.501  11.179
76536SOL    HW131447  10.049   3.514  11.269
76536SOL    HW231448  10.175   3.504  11.185
76537SOL     OW31449  12.785   0.031   0.902
76537SOL    HW131450  12.768  14.824   0.942
76537SOL    HW231451  12.738   0.028   0.819
76538SOL     OW31452   9.896   5.960   7.682
76538SOL    HW131453   9.856   6.047   7.674
76538SOL    HW231454   9.927   5.956   7.772
76539SOL     OW31455  11.355  11.008   3.814
76539SOL    HW131456  11.269  10.979   3.843
76539SOL    HW231457  11.352  11.003   3.719
76540SOL     OW31458  14.826   2.227   5.651
76540SOL    HW131459  14.837   2.213   5.557
76540SOL    HW231460  14.876   2.306   5.670
76541SOL     OW31461  10.892  12.176   3.654
76541SOL    HW131462  10.940  12.209   3.579
76541SOL    HW231463  10.802  12.206   3.640
76542SOL     OW31464  11.577   5.953  14.217
76542SOL    HW131465  11.511   5.915  14.276
76542SOL    HW231466  11.636   6.002  14.275
76543SOL     OW31467  11.498   8.050  10.581
76543SOL    HW131468  11.544   8.135  10.585
76543SOL    HW231469  11.472   8.042  10.489
76544SOL     OW31470   6.943  14.178  12.410
76544SOL    HW131471   7.021  14.190  12.464
76544SOL    HW231472   6.889  14.117  12.460
76545SOL     OW31473  13.103   2.988  11.804
76545SOL    HW131474  13.110   2.973  11.898
76545SOL    HW231475  13.123   2.903  11.765
76546SOL     OW31476   3.758   9.685   9.784
76546SOL    HW131477   3.811   9.719   9.712
76546SOL    HW231478   3.767   9.590   9.778
76547SOL     OW31479   6.143   5.662  10.353
76547SOL    HW131480   6.152   5.711  10.272
76547SOL    HW231481   6.232   5.638  10.378
76548SOL     OW31482   7.192  12.202   2.895
76548SOL    HW131483   7.118  12.185   2.838
76548SOL    HW231484   7.212  12.118   2.936
76549SOL     OW31485   9.675  13.807  12.867
76549SOL    HW131486   9.722  13.807  12.951
76549SOL    HW231487   9.588  13.771  12.889
76550SOL     OW31488  13.831  10.862   0.953
76550SOL    HW131489  13.871  10.821   0.876
76550SOL    HW231490  13.756  10.807   0.973
76551SOL     OW31491   7.011   4.465   1.274
76551SOL    HW131492   7.000   4.381   1.228
76551SOL    HW231493   6.930   4.512   1.257
76552SOL     OW31494  13.702  11.721   2.455
76552SOL    HW131495  13.608  11.731   2.467
76552SOL    HW231496  13.728  11.653   2.518
76553SOL     OW31497  13.014  14.722   7.412
76553SOL    HW131498  13.016  14.627   7.425
76553SOL    HW231499  13.044  14.758   7.495
76554SOL     OW31500  12.399  13.140   4.201
76554SOL    HW131501  12.379  13.089   4.280
76554SOL    HW231502  12.351  13.096   4.131
76555SOL     OW31503  13.283  13.950  12.036
76555SOL    HW131504  13.349  13.897  11.991
76555SOL    HW231505  13.210  13.891  12.049
76556SOL     OW31506  12.392   3.388   6.258
76556SOL    HW131507  12.439   3.454   6.207
76556SOL    HW231508  12.362   3.436   6.336
76557SOL     OW31509   9.198  12.787   6.032
76557SOL    HW131510   9.243  12.860   5.990
76557SOL    HW231511   9.134  12.758   5.968
76558SOL     OW31512   2.156   1.465   3.315
76558SOL    HW131513   2.089   1.443   3.380
76558SOL    HW231514   2.237   1.428   3.350
76559SOL     OW31515  10.884   8.278  14.566
76559SOL    HW131516  10.819   8.348  14.568
76559SOL    HW231517  10.897   8.259  14.473
76560SOL     OW31518   7.765  13.097  14.062
76560SOL    HW131519   7.702  13.085  14.134
76560SOL    HW231520   7.819  13.171  14.090
76561SOL     OW31521   8.147   8.244  13.347
76561SOL    HW131522   8.133   8.185  13.421
76561SOL    HW231523   8.061   8.252  13.306
76562SOL     OW31524   0.100  13.751   0.761
76562SOL    HW131525   0.120  13.658   0.769
76562SOL    HW231526   0.180  13.789   0.723
76563SOL     OW31527   6.943   8.726   5.853
76563SOL    HW131528   6.976   8.657   5.795
76563SOL    HW231529   6.973   8.808   5.812
76564SOL     OW31530   5.015   0.055  14.801
76564SOL    HW131531   5.023   0.150  14.789
76564SOL    HW231532   5.010   0.043   0.016
76565SOL     OW31533   8.013  12.504   9.201
76565SOL    HW131534   7.978  12.417   9.180
76565SOL    HW231535   8.059  12.491   9.284
76566SOL     OW31536  10.918  13.666  10.518
76566SOL    HW131537  10.894  13.602  10.451
76566SOL    HW231538  10.909  13.751  10.475
76567SOL     OW31539  10.829   5.139   5.475
76567SOL    HW131540  10.800   5.115   5.563
76567SOL    HW231541  10.763   5.201   5.445
76568SOL     OW31542  11.892   7.542  12.230
76568SOL    HW131543  11.916   7.454  12.259
76568SOL    HW231544  11.933   7.550  12.143
76569SOL     OW31545   0.804  13.763  11.413
76569SOL    HW131546   0.762  13.826  11.471
76569SOL    HW231547   0.740  13.747  11.345
76570SOL     OW31548  12.307  12.962   1.517
76570SOL    HW131549  12.275  13.036   1.465
76570SOL    HW231550  12.321  13.000   1.604
76571SOL     OW31551   2.781  13.882   8.105
76571SOL    HW131552   2.800  13.834   8.024
76571SOL    HW231553   2.725  13.823   8.155
76572SOL     OW31554   4.688   1.585  12.279
76572SOL    HW131555   4.745   1.580  12.356
76572SOL    HW231556   4.600   1.570  12.312
76573SOL     OW31557   5.206   6.632   5.755
76573SOL    HW131558   5.141   6.590   5.812
76573SOL    HW231559   5.290   6.598   5.787
76574SOL     OW31560   6.311   2.636  12.596
76574SOL    HW131561   6.361   2.626  12.516
76574SOL    HW231562   6.227   2.674  12.568
76575SOL     OW31563   1.100   1.315   2.945
76575SOL    HW131564   1.095   1.378   3.017
76575SOL    HW231565   1.013   1.274   2.943
76576SOL     OW31566  13.963  13.638   8.357
76576SOL    HW131567  13.966  13.624   8.452
76576SOL    HW231568  13.896  13.579   8.325
76577SOL     OW31569   2.883  13.237   2.520
76577SOL    HW131570   2.820  13.302   2.551
76577SOL    HW231571   2.883  13.169   2.588
76578SOL     OW31572   7.715  11.443  13.767
76578SOL    HW131573   7.728  11.349  13.764
76578SOL    HW231574   7.645  11.456  13.831
76579SOL     OW31575   4.312  10.035  12.088
76579SOL    HW131576   4.334  10.104  12.150
76579SOL    HW231577   4.301  10.080  12.004
76580SOL     OW31578   4.523   9.835   6.590
76580SOL    HW131579   4.476   9.806   6.512
76580SOL    HW231580   4.575   9.759   6.616
76581SOL     OW31581  11.843   7.753   7.183
76581SOL    HW131582  11.863   7.663   7.206
76581SOL    HW231583  11.917   7.804   7.217
76582SOL     OW31584  14.811   7.997  13.911
76582SOL    HW131585  14.810   7.989  14.006
76582SOL    HW231586  14.723   7.974  13.883
76583SOL     OW31587   8.972  12.410   3.279
76583SOL    HW131588   9.026  12.429   3.355
76583SOL    HW231589   9.021  12.344   3.230
76584SOL     OW31590   9.983  10.464   5.758
76584SOL    HW131591   9.997  10.414   5.678
76584SOL    HW231592  10.039  10.542   5.748
76585SOL     OW31593  13.852   4.464   4.140
76585SOL    HW131594  13.871   4.451   4.233
76585SOL    HW231595  13.832   4.376   4.108
76586SOL     OW31596  11.255  14.489  11.278
76586SOL    HW131597  11.259  14.560  11.214
76586SOL    HW231598  11.272  14.410  11.226
76587SOL     OW31599   6.589   2.482   5.838
76587SOL    HW131600   6.569   2.401   5.789
76587SOL    HW231601   6.673   2.465   5.880
76588SOL     OW31602   9.627  11.749   5.280
76588SOL    HW131603   9.677  11.713   5.207
76588SOL    HW231604   9.535  11.736   5.255
76589SOL     OW31605  12.102   7.752   5.879
76589SOL    HW131606  12.110   7.678   5.818
76589SOL    HW231607  12.167   7.815   5.848
76590SOL     OW31608   8.614   8.842   9.495
76590SOL    HW131609   8.580   8.925   9.529
76590SOL    HW231610   8.543   8.779   9.512
76591SOL     OW31611  13.177   9.216   6.885
76591SOL    HW131612  13.214   9.287   6.832
76591SOL    HW231613  13.156   9.147   6.821
76592SOL     OW31614   5.737   7.849   2.081
76592SOL    HW131615   5.756   7.912   2.150
76592SOL    HW231616   5.817   7.847   2.028
76593SOL     OW31617  13.444   3.915  10.547
76593SOL    HW131618  13.407   3.845  10.495
76593SOL    HW231619  13.368   3.960  10.584
76594SOL     OW31620   0.571  12.667  14.263
76594SOL    HW131621   0.518  12.649  14.186
76594SOL    HW231622   0.661  12.675  14.230
76595SOL     OW31623   2.954   8.645   4.711
76595SOL    HW131624   2.948   8.633   4.617
76595SOL    HW231625   2.942   8.739   4.724
76596SOL     OW31626   1.187  10.840   9.527
76596SOL    HW131627   1.204  10.870   9.616
76596SOL    HW231628   1.102  10.879   9.504
76597SOL     OW31629  13.608   0.593   1.494
76597SOL    HW131630  13.676   0.547   1.542
76597SOL    HW231631  13.629   0.686   1.505
76598SOL     OW31632   2.838  12.639   4.495
76598SOL    HW131633   2.835  12.664   4.588
76598SOL    HW231634   2.931  12.625   4.477
76599SOL     OW31635  13.602   2.351   2.799
76599SOL    HW131636  13.566   2.371   2.713
76599SOL    HW231637  13.625   2.436   2.836
76600SOL     OW31638   4.714   3.250   7.367
76600SOL    HW131639   4.675   3.260   7.280
76600SOL    HW231640   4.638   3.242   7.426
76601SOL     OW31641   1.092   0.301   3.527
76601SOL    HW131642   1.037   0.363   3.575
76601SOL    HW231643   1.069   0.215   3.564
76602SOL     OW31644   6.886   4.641   8.169
76602SOL    HW131645   6.956   4.682   8.219
76602SOL    HW231646   6.915   4.648   8.078
76603SOL     OW31647   1.154   4.476   1.902
76603SOL    HW131648   1.135   4.434   1.986
76603SOL    HW231649   1.186   4.405   1.846
76604SOL     OW31650   1.938  11.219   8.324
76604SOL    HW131651   1.963  11.310   8.310
76604SOL    HW231652   2.021  11.175   8.345
76605SOL     OW31653   6.431   5.295   3.028
76605SOL    HW131654   6.509   5.309   3.081
76605SOL    HW231655   6.431   5.201   3.009
76606SOL     OW31656   7.582  13.051   5.541
76606SOL    HW131657   7.669  13.046   5.580
76606SOL    HW231658   7.525  13.080   5.612
76607SOL     OW31659  14.518  12.262   6.690
76607SOL    HW131660  14.499  12.198   6.759
76607SOL    HW231661  14.590  12.223   6.640
76608SOL     OW31662  13.734   8.592   1.190
76608SOL    HW131663  13.750   8.537   1.114
76608SOL    HW231664  13.755   8.536   1.265
76609SOL     OW31665   0.136   3.337   7.532
76609SOL    HW131666   0.225   3.312   7.555
76609SOL    HW231667   0.145   3.420   7.486
76610SOL     OW31668  14.144  14.392   5.411
76610SOL    HW131669  14.217  14.330   5.403
76610SOL    HW231670  14.177  14.473   5.372
76611SOL     OW31671  10.387   0.088   3.750
76611SOL    HW131672  10.344   0.040   3.679
76611SOL    HW231673  10.384   0.179   3.722
76612SOL     OW31674   8.211   4.482  11.128
76612SOL    HW131675   8.267   4.482  11.050
76612SOL    HW231676   8.177   4.571  11.133
76613SOL     OW31677   3.414   3.719   4.288
76613SOL    HW131678   3.386   3.640   4.334
76613SOL    HW231679   3.496   3.694   4.246
76614SOL     OW31680   9.026  10.051   9.237
76614SOL    HW131681   9.106  10.103   9.243
76614SOL    HW231682   8.959  10.113   9.211
76615SOL     OW31683   9.199   9.225   0.510
76615SOL    HW131684   9.259   9.293   0.543
76615SOL    HW231685   9.256   9.152   0.486
76616SOL     OW31686   0.286  14.435   1.829
76616SOL    HW131687   0.341  14.506   1.862
76616SOL    HW231688   0.203  14.446   1.875
76617SOL     OW31689  13.203   7.236   8.202
76617SOL    HW131690  13.246   7.316   8.172
76617SOL    HW231691  13.119   7.266   8.237
76618SOL     OW31692   1.319   1.671   2.065
76618SOL    HW131693   1.237   1.635   2.099
76618SOL    HW231694   1.328   1.755   2.110
76619SOL     OW31695   8.658   2.673   7.813
76619SOL    HW131696   8.583   2.632   7.771
76619SOL    HW231697   8.623   2.707   7.896
76620SOL     OW31698  11.678   0.795   2.116
76620SOL    HW131699  11.642   0.781   2.204
76620SOL    HW231700  11.669   0.710   2.073
76621SOL     OW31701   0.789   0.319   8.874
76621SOL    HW131702   0.761   0.237   8.913
76621SOL    HW231703   0.745   0.321   8.789
76622SOL     OW31704   2.827  12.904  12.381
76622SOL    HW131705   2.827  12.812  12.406
76622SOL    HW231706   2.891  12.909  12.310
76623SOL     OW31707  12.470  13.747   7.599
76623SOL    HW131708  12.426  13.808   7.539
76623SOL    HW231709  12.460  13.788   7.686
76624SOL     OW31710   1.029   6.167   6.938
76624SOL    HW131711   1.038   6.174   6.843
76624SOL    HW231712   1.038   6.256   6.971
76625SOL     OW31713   8.840   0.453   6.582
76625SOL    HW131714   8.833   0.375   6.636
76625SOL    HW231715   8.865   0.522   6.643
76626SOL     OW31716  13.575   0.357  11.093
76626SOL    HW131717  13.578   0.450  11.073
76626SOL    HW231718  13.537   0.351  11.181
76627SOL     OW31719   7.259   6.369   1.447
76627SOL    HW131720   7.336   6.313   1.458
76627SOL    HW231721   7.199   6.342   1.517
76628SOL     OW31722  11.770   3.429   7.766
76628SOL    HW131723  11.813   3.509   7.797
76628SOL    HW231724  11.695   3.419   7.824
76629SOL     OW31725   9.930   8.832  11.389
76629SOL    HW131726   9.849   8.799  11.428
76629SOL    HW231727   9.982   8.754  11.371
76630SOL     OW31728  14.154   0.980  10.585
76630SOL    HW131729  14.219   1.050  10.595
76630SOL    HW231730  14.118   0.968  10.673
76631SOL     OW31731   8.234   8.684  13.508
76631SOL    HW131732   8.200   8.597  13.531
76631SOL    HW231733   8.252   8.725  13.592
76632SOL     OW31734   2.777   8.034   5.222
76632SOL    HW131735   2.787   7.966   5.288
76632SOL    HW231736   2.721   8.099   5.262
76633SOL     OW31737   8.435  12.264  10.835
76633SOL    HW131738   8.520  12.261  10.880
76633SOL    HW231739   8.383  12.196  10.878
76634SOL     OW31740   9.813   3.369   9.909
76634SOL    HW131741   9.871   3.359   9.834
76634SOL    HW231742   9.729   3.394   9.872
76635SOL     OW31743   0.350  10.837   9.147
76635SOL    HW131744   0.318  10.869   9.231
76635SOL    HW231745   0.335  10.910   9.087
76636SOL     OW31746  14.647   5.846   4.378
76636SOL    HW131747  14.669   5.798   4.458
76636SOL    HW231748  14.644   5.938   4.405
76637SOL     OW31749   3.624   7.691  11.696
76637SOL    HW131750   3.590   7.708  11.608
76637SOL    HW231751   3.561   7.733  11.755
76638SOL     OW31752   2.818   7.592  12.985
76638SOL    HW131753   2.788   7.682  12.993
76638SOL    HW231754   2.753   7.540  13.032
76639SOL     OW31755  13.086   5.766   1.194
76639SOL    HW131756  13.128   5.681   1.190
76639SOL    HW231757  13.002   5.754   1.150
76640SOL     OW31758  10.713   4.528  13.484
76640SOL    HW131759  10.792   4.499  13.439
76640SOL    HW231760  10.670   4.447  13.511
76641SOL     OW31761   4.851  13.534  12.653
76641SOL    HW131762   4.911  13.469  12.691
76641SOL    HW231763   4.770  13.485  12.636
76642SOL     OW31764  14.312   3.543   8.710
76642SOL    HW131765  14.395   3.536   8.758
76642SOL    HW231766  14.283   3.632   8.725
76643SOL     OW31767  11.176   4.526  11.968
76643SOL    HW131768  11.197   4.455  11.908
76643SOL    HW231769  11.172   4.485  12.054
76644SOL     OW31770  14.122   1.083   3.429
76644SOL    HW131771  14.210   1.119   3.421
76644SOL    HW231772  14.069   1.156   3.460
76645SOL     OW31773  13.205   3.692   0.721
76645SOL    HW131774  13.166   3.722   0.639
76645SOL    HW231775  13.239   3.605   0.701
76646SOL     OW31776   0.873   0.676  12.386
76646SOL    HW131777   0.919   0.668  12.470
76646SOL    HW231778   0.911   0.609  12.330
76647SOL     OW31779  12.566   4.730   4.597
76647SOL    HW131780  12.623   4.806   4.603
76647SOL    HW231781  12.522   4.726   4.682
76648SOL     OW31782   5.114   8.347   5.483
76648SOL    HW131783   5.208   8.344   5.500
76648SOL    HW231784   5.075   8.381   5.564
76649SOL     OW31785   3.853   1.176  10.558
76649SOL    HW131786   3.861   1.245  10.624
76649SOL    HW231787   3.896   1.212  10.480
76650SOL     OW31788  12.192   1.694   1.451
76650SOL    HW131789  12.176   1.617   1.505
76650SOL    HW231790  12.172   1.666   1.362
76651SOL     OW31791  12.127   1.245   2.444
76651SOL    HW131792  12.214   1.272   2.472
76651SOL    HW231793  12.067   1.302   2.491
76652SOL     OW31794  12.873  10.376   2.201
76652SOL    HW131795  12.794  10.332   2.168
76652SOL    HW231796  12.868  10.367   2.296
76653SOL     OW31797   6.234  11.568   4.406
76653SOL    HW131798   6.302  11.539   4.466
76653SOL    HW231799   6.223  11.661   4.425
76654SOL     OW31800   8.301   2.222   1.853
76654SOL    HW131801   8.373   2.240   1.914
76654SOL    HW231802   8.259   2.144   1.888
76655SOL     OW31803   4.635  12.278  10.127
76655SOL    HW131804   4.544  12.274  10.097
76655SOL    HW231805   4.677  12.202  10.087
76656SOL     OW31806  14.240  13.450   5.878
76656SOL    HW131807  14.227  13.446   5.783
76656SOL    HW231808  14.305  13.382   5.897
76657SOL     OW31809   3.848   1.954   3.749
76657SOL    HW131810   3.773   1.978   3.803
76657SOL    HW231811   3.875   1.868   3.782
76658SOL     OW31812  10.771  12.493  14.284
76658SOL    HW131813  10.846  12.486  14.343
76658SOL    HW231814  10.709  12.427  14.315
76659SOL     OW31815  12.919   9.611  14.844
76659SOL    HW131816  12.854   9.636  14.779
76659SOL    HW231817  12.989   9.569  14.794
76660SOL     OW31818   7.991   0.022  14.334
76660SOL    HW131819   7.934  14.837  14.291
76660SOL    HW231820   8.079  14.873  14.312
76661SOL     OW31821   6.187  13.753   5.104
76661SOL    HW131822   6.100  13.716   5.093
76661SOL    HW231823   6.243  13.678   5.124
76662SOL     OW31824   7.599   2.270   9.226
76662SOL    HW131825   7.511   2.233   9.226
76662SOL    HW231826   7.648   2.216   9.288
76663SOL     OW31827   4.697   4.752   4.683
76663SOL    HW131828   4.789   4.772   4.702
76663SOL    HW231829   4.670   4.820   4.622
76664SOL     OW31830  11.206  10.245   5.977
76664SOL    HW131831  11.140  10.269   6.042
76664SOL    HW231832  11.181  10.157   5.948
76665SOL     OW31833  10.006  13.306  12.709
76665SOL    HW131834   9.933  13.362  12.680
76665SOL    HW231835   9.965  13.222  12.729
76666SOL     OW31836  14.809  10.541   8.746
76666SOL    HW131837  14.847  10.481   8.680
76666SOL    HW231838  14.749  10.596   8.696
76667SOL     OW31839  13.366  14.018   3.489
76667SOL    HW131840  13.372  14.016   3.393
76667SOL    HW231841  13.277  13.988   3.508
76668SOL     OW31842  13.428  13.027   6.685
76668SOL    HW131843  13.343  13.057   6.653
76668SOL    HW231844  13.441  12.942   6.644
76669SOL     OW31845  10.028   2.918   1.049
76669SOL    HW131846   9.950   2.973   1.040
76669SOL    HW231847  10.014   2.870   1.131
76670SOL     OW31848   0.305   4.875   8.107
76670SOL    HW131849   0.313   4.887   8.202
76670SOL    HW231850   0.231   4.930   8.083
76671SOL     OW31851  10.440   8.956   8.664
76671SOL    HW131852  10.410   9.027   8.607
76671SOL    HW231853  10.535   8.971   8.671
76672SOL     OW31854   9.816   5.844   2.663
76672SOL    HW131855   9.860   5.788   2.728
76672SOL    HW231856   9.787   5.920   2.714
76673SOL     OW31857  11.573   7.118  14.012
76673SOL    HW131858  11.514   7.051  14.049
76673SOL    HW231859  11.522   7.199  14.016
76674SOL     OW31860  13.140   0.145   7.402
76674SOL    HW131861  13.138   0.065   7.453
76674SOL    HW231862  13.169   0.117   7.315
76675SOL     OW31863   3.112  11.118   9.575
76675SOL    HW131864   3.154  11.092   9.658
76675SOL    HW231865   3.105  11.213   9.581
76676SOL     OW31866   2.115   9.632   9.278
76676SOL    HW131867   2.042   9.662   9.333
76676SOL    HW231868   2.101   9.676   9.194
76677SOL     OW31869   6.488  11.809  14.721
76677SOL    HW131870   6.395  11.789  14.710
76677SOL    HW231871   6.510  11.773  14.808
76678SOL     OW31872   3.207   0.127   9.026
76678SOL    HW131873   3.281   0.183   9.003
76678SOL    HW231874   3.178   0.089   8.943
76679SOL     OW31875   9.066  14.687  11.451
76679SOL    HW131876   9.058  14.774  11.411
76679SOL    HW231877   9.044  14.626  11.381
76680SOL     OW31878   8.535  10.592  10.176
76680SOL    HW131879   8.466  10.592  10.110
76680SOL    HW231880   8.613  10.564  10.129
76681SOL     OW31881   8.286  11.790   1.405
76681SOL    HW131882   8.238  11.846   1.344
76681SOL    HW231883   8.219  11.755   1.463
76682SOL     OW31884   8.112   0.729   5.001
76682SOL    HW131885   8.152   0.650   4.965
76682SOL    HW231886   8.077   0.775   4.924
76683SOL     OW31887   9.295  11.350  13.405
76683SOL    HW131888   9.252  11.434  13.419
76683SOL    HW231889   9.292  11.336  13.311
76684SOL     OW31890   5.204  11.318  11.154
76684SOL    HW131891   5.243  11.383  11.096
76684SOL    HW231892   5.150  11.368  11.215
76685SOL     OW31893  14.838   1.642  14.490
76685SOL    HW131894  14.873   1.721  14.531
76685SOL    HW231895   0.024   1.575  14.508
76686SOL     OW31896   5.674   7.618   1.617
76686SOL    HW131897   5.765   7.644   1.598
76686SOL    HW231898   5.628   7.700   1.630
76687SOL     OW31899   3.978   7.284   0.433
76687SOL    HW131900   4.034   7.206   0.426
76687SOL    HW231901   3.916   7.274   0.361
76688SOL     OW31902   8.604   2.174  13.181
76688SOL    HW131903   8.624   2.256  13.136
76688SOL    HW231904   8.561   2.201  13.262
76689SOL     OW31905   1.881   3.518  13.068
76689SOL    HW131906   1.882   3.487  12.977
76689SOL    HW231907   1.788   3.530  13.088
76690SOL     OW31908   6.774   9.973  14.532
76690SOL    HW131909   6.741   9.946  14.617
76690SOL    HW231910   6.707  10.033  14.499
76691SOL     OW31911   1.349   2.261  11.812
76691SOL    HW131912   1.425   2.223  11.856
76691SOL    HW231913   1.274   2.231  11.863
76692SOL     OW31914   1.229   1.540   9.081
76692SOL    HW131915   1.151   1.533   9.137
76692SOL    HW231916   1.211   1.615   9.024
76693SOL     OW31917   2.572   5.798   2.456
76693SOL    HW131918   2.576   5.803   2.552
76693SOL    HW231919   2.651   5.844   2.426
76694SOL     OW31920   8.897   1.407  11.823
76694SOL    HW131921   8.875   1.359  11.743
76694SOL    HW231922   8.966   1.355  11.864
76695SOL     OW31923   2.876   8.097  10.417
76695SOL    HW131924   2.935   8.164  10.382
76695SOL    HW231925   2.918   8.014  10.393
76696SOL     OW31926   2.139  10.219   2.068
76696SOL    HW131927   2.143  10.123   2.059
76696SOL    HW231928   2.068  10.245   2.010
76697SOL     OW31929   6.993  14.416   3.440
76697SOL    HW131930   6.960  14.415   3.530
76697SOL    HW231931   6.970  14.329   3.406
76698SOL     OW31932   4.974   9.425   9.869
76698SOL    HW131933   4.975   9.410   9.964
76698SOL    HW231934   4.987   9.520   9.861
76699SOL     OW31935   5.227  12.411   0.820
76699SOL    HW131936   5.193  12.471   0.887
76699SOL    HW231937   5.247  12.468   0.745
76700SOL     OW31938   3.777   0.995   3.428
76700SOL    HW131939   3.835   0.934   3.381
76700SOL    HW231940   3.788   1.078   3.382
76701SOL     OW31941   1.809   9.372   6.261
76701SOL    HW131942   1.717   9.358   6.284
76701SOL    HW231943   1.842   9.284   6.240
76702SOL     OW31944  10.700   0.975   6.157
76702SOL    HW131945  10.714   1.039   6.226
76702SOL    HW231946  10.638   0.912   6.195
76703SOL     OW31947  14.859   0.182   2.685
76703SOL    HW131948  14.876   0.180   2.779
76703SOL    HW231949   0.055   0.138   2.646
76704SOL     OW31950   7.555   8.609  14.259
76704SOL    HW131951   7.523   8.549  14.327
76704SOL    HW231952   7.637   8.643  14.294
76705SOL     OW31953  12.482   7.486  10.233
76705SOL    HW131954  12.449   7.562  10.186
76705SOL    HW231955  12.568   7.469  10.194
76706SOL     OW31956  11.238  10.933  11.645
76706SOL    HW131957  11.242  10.904  11.554
76706SOL    HW231958  11.231  10.853  11.696
76707SOL     OW31959   5.600   7.359   2.011
76707SOL    HW131960   5.683   7.320   1.981
76707SOL    HW231961   5.539   7.285   2.013
76708SOL     OW31962   3.327   7.064   0.166
76708SOL    HW131963   3.407   7.028   0.203
76708SOL    HW231964   3.325   7.033   0.076
76709SOL     OW31965   2.455   1.767   5.119
76709SOL    HW131966   2.509   1.843   5.141
76709SOL    HW231967   2.518   1.697   5.102
76710SOL     OW31968  12.541   0.367  13.202
76710SOL    HW131969  12.487   0.405  13.132
76710SOL    HW231970  12.540   0.273  13.184
76711SOL     OW31971   2.294   6.264   2.075
76711SOL    HW131972   2.359   6.332   2.089
76711SOL    HW231973   2.289   6.218   2.159
76712SOL     OW31974  10.467   7.640   1.985
76712SOL    HW131975  10.398   7.604   1.930
76712SOL    HW231976  10.532   7.675   1.924
76713SOL     OW31977   1.633   0.653  12.272
76713SOL    HW131978   1.570   0.683  12.207
76713SOL    HW231979   1.673   0.733  12.306
76714SOL     OW31980  11.106  13.972  12.161
76714SOL    HW131981  11.069  13.959  12.248
76714SOL    HW231982  11.146  14.059  12.164
76715SOL     OW31983   6.363  13.714   2.088
76715SOL    HW131984   6.338  13.805   2.074
76715SOL    HW231985   6.412  13.715   2.170
76716SOL     OW31986   7.075   6.440  10.261
76716SOL    HW131987   7.084   6.422  10.168
76716SOL    HW231988   7.162   6.424  10.298
76717SOL     OW31989   6.953  10.450   9.437
76717SOL    HW131990   7.028  10.430   9.494
76717SOL    HW231991   6.959  10.545   9.423
76718SOL     OW31992   5.741   8.958   3.617
76718SOL    HW131993   5.830   8.964   3.581
76718SOL    HW231994   5.721   9.047   3.646
76719SOL     OW31995   4.862   9.507   7.680
76719SOL    HW131996   4.774   9.469   7.684
76719SOL    HW231997   4.876   9.546   7.766
76720SOL     OW31998   9.904  11.229  13.213
76720SOL    HW131999   9.977  11.224  13.151
76720SOL    HW232000   9.944  11.213  13.298
76721SOL     OW32001   4.575   2.309   1.610
76721SOL    HW132002   4.622   2.352   1.681
76721SOL    HW232003   4.501   2.366   1.592
76722SOL     OW32004  11.088   8.264   5.114
76722SOL    HW132005  11.081   8.230   5.024
76722SOL    HW232006  11.130   8.349   5.104
76723SOL     OW32007   1.433   8.890   4.234
76723SOL    HW132008   1.408   8.972   4.278
76723SOL    HW232009   1.379   8.823   4.274
76724SOL     OW32010   7.021   7.096   0.037
76724SOL    HW132011   7.022   7.032   0.108
76724SOL    HW232012   7.105   7.140   0.043
76725SOL     OW32013  10.205  11.677   4.143
76725SOL    HW132014  10.176  11.655   4.232
76725SOL    HW232015  10.124  11.683   4.092
76726SOL     OW32016   2.361   2.612   6.143
76726SOL    HW132017   2.271   2.599   6.115
76726SOL    HW232018   2.405   2.529   6.122
76727SOL     OW32019   0.257   4.664   9.954
76727SOL    HW132020   0.168   4.698   9.963
76727SOL    HW232021   0.259   4.585  10.007
76728SOL     OW32022   9.222   7.247   5.155
76728SOL    HW132023   9.278   7.281   5.085
76728SOL    HW232024   9.190   7.324   5.200
76729SOL     OW32025   0.578   6.811   1.001
76729SOL    HW132026   0.576   6.718   1.022
76729SOL    HW232027   0.649   6.820   0.938
76730SOL     OW32028   3.684   7.457   8.555
76730SOL    HW132029   3.762   7.463   8.500
76730SOL    HW232030   3.663   7.547   8.578
76731SOL     OW32031   0.248  12.575  14.270
76731SOL    HW132032   0.300  12.540  14.198
76731SOL    HW232033   0.166  12.525  14.268
76732SOL     OW32034   3.560   9.106  14.101
76732SOL    HW132035   3.568   9.097  14.196
76732SOL    HW232036   3.466   9.108  14.084
76733SOL     OW32037   4.505   5.861   5.603
76733SOL    HW132038   4.441   5.871   5.674
76733SOL    HW232039   4.590   5.877   5.646
76734SOL     OW32040   5.116  11.013  12.168
76734SOL    HW132041   5.083  10.969  12.090
76734SOL    HW232042   5.203  10.975  12.181
76735SOL     OW32043  12.683   7.947   2.498
76735SOL    HW132044  12.640   7.935   2.583
76735SOL    HW232045  12.764   7.993   2.518
76736SOL     OW32046   2.436  11.674   3.720
76736SOL    HW132047   2.413  11.581   3.722
76736SOL    HW232048   2.355  11.719   3.747
76737SOL     OW32049  11.459  14.842   4.048
76737SOL    HW132050  11.399  14.862   4.120
76737SOL    HW232051  11.404  14.799   3.983
76738SOL     OW32052   0.723   2.730   8.677
76738SOL    HW132053   0.669   2.800   8.713
76738SOL    HW232054   0.691   2.719   8.587
76739SOL     OW32055   8.634   0.866   9.629
76739SOL    HW132056   8.720   0.851   9.588
76739SOL    HW232057   8.655   0.900   9.716
76740SOL     OW32058   0.853   0.641   1.638
76740SOL    HW132059   0.934   0.692   1.631
76740SOL    HW232060   0.789   0.703   1.671
76741SOL     OW32061   7.631   4.369  13.349
76741SOL    HW132062   7.681   4.296  13.314
76741SOL    HW232063   7.550   4.329  13.382
76742SOL     OW32064   7.813   3.419  12.910
76742SOL    HW132065   7.790   3.390  12.998
76742SOL    HW232066   7.904   3.448  12.917
76743SOL     OW32067   2.216   6.355   4.246
76743SOL    HW132068   2.239   6.362   4.153
76743SOL    HW232069   2.246   6.437   4.285
76744SOL     OW32070  11.817  10.966   9.662
76744SOL    HW132071  11.789  10.994   9.575
76744SOL    HW232072  11.748  10.998   9.720
76745SOL     OW32073  12.620   3.070   9.910
76745SOL    HW132074  12.690   3.120   9.868
76745SOL    HW232075  12.545   3.080   9.851
76746SOL     OW32076   6.076  10.686   4.657
76746SOL    HW132077   5.997  10.714   4.703
76746SOL    HW232078   6.123  10.632   4.721
76747SOL     OW32079   0.720  13.808   9.259
76747SOL    HW132080   0.636  13.770   9.283
76747SOL    HW232081   0.698  13.895   9.227
76748SOL     OW32082  12.414  10.629   6.467
76748SOL    HW132083  12.476  10.570   6.423
76748SOL    HW232084  12.339  10.573   6.487
76749SOL     OW32085  13.134   3.231   4.227
76749SOL    HW132086  13.062   3.207   4.285
76749SOL    HW232087  13.144   3.157   4.168
76750SOL     OW32088   2.920  12.444   0.809
76750SOL    HW132089   2.873  12.523   0.783
76750SOL    HW232090   2.870  12.410   0.884
76751SOL     OW32091   9.478   8.878  11.875
76751SOL    HW132092   9.491   8.789  11.843
76751SOL    HW232093   9.530   8.933  11.817
76752SOL     OW32094  14.779   7.486   3.147
76752SOL    HW132095  14.775   7.438   3.230
76752SOL    HW232096  14.753   7.421   3.081
76753SOL     OW32097   8.395   2.618   2.887
76753SOL    HW132098   8.330   2.548   2.891
76753SOL    HW232099   8.479   2.574   2.901
76754SOL     OW32100  14.595   9.842  10.441
76754SOL    HW132101  14.634   9.789  10.511
76754SOL    HW232102  14.531   9.897  10.485
76755SOL     OW32103   0.597  14.296   3.469
76755SOL    HW132104   0.677  14.324   3.512
76755SOL    HW232105   0.613  14.312   3.376
76756SOL     OW32106   6.100  11.511   5.006
76756SOL    HW132107   6.075  11.568   5.078
76756SOL    HW232108   6.069  11.555   4.927
76757SOL     OW32109   8.581   5.342  11.364
76757SOL    HW132110   8.634   5.419  11.381
76757SOL    HW232111   8.549   5.354  11.274
76758SOL     OW32112   4.870   9.578  14.494
76758SOL    HW132113   4.798   9.538  14.544
76758SOL    HW232114   4.942   9.586  14.556
76759SOL     OW32115   0.715   2.154  11.782
76759SOL    HW132116   0.792   2.210  11.768
76759SOL    HW232117   0.659   2.169  11.706
76760SOL     OW32118   8.120  11.590   8.322
76760SOL    HW132119   8.165  11.505   8.322
76760SOL    HW232120   8.027  11.568   8.326
76761SOL     OW32121  10.301   5.179  11.264
76761SOL    HW132122  10.386   5.151  11.229
76761SOL    HW232123  10.241   5.108  11.239
76762SOL     OW32124   9.294   7.890   8.958
76762SOL    HW132125   9.246   7.959   9.004
76762SOL    HW232126   9.240   7.871   8.881
76763SOL     OW32127   5.030   5.881   1.012
76763SOL    HW132128   5.092   5.860   1.081
76763SOL    HW232129   4.999   5.970   1.034
76764SOL     OW32130  10.538  12.194   6.737
76764SOL    HW132131  10.491  12.215   6.818
76764SOL    HW232132  10.487  12.124   6.697
76765SOL     OW32133  11.994   4.099  12.309
76765SOL    HW132134  11.990   4.016  12.263
76765SOL    HW232135  11.930   4.090  12.380
76766SOL     OW32136   9.474  12.044   7.471
76766SOL    HW132137   9.382  12.039   7.497
76766SOL    HW232138   9.473  12.049   7.376
76767SOL     OW32139  12.388   1.879   4.453
76767SOL    HW132140  12.417   1.940   4.521
76767SOL    HW232141  12.293   1.885   4.454
76768SOL     OW32142  12.919   7.533   3.433
76768SOL    HW132143  12.876   7.608   3.391
76768SOL    HW232144  12.856   7.462   3.425
76769SOL     OW32145   8.931   2.126   9.624
76769SOL    HW132146   8.974   2.068   9.561
76769SOL    HW232147   8.966   2.099   9.709
76770SOL     OW32148   5.648  11.671   9.169
76770SOL    HW132149   5.688  11.591   9.204
76770SOL    HW232150   5.584  11.696   9.236
76771SOL     OW32151   0.970   5.475   7.685
76771SOL    HW132152   0.990   5.381   7.686
76771SOL    HW232153   0.919   5.489   7.764
76772SOL     OW32154   3.078   7.105  10.051
76772SOL    HW132155   2.989   7.111  10.016
76772SOL    HW232156   3.130   7.163   9.996
76773SOL     OW32157   1.252   9.264  13.081
76773SOL    HW132158   1.281   9.245  13.170
76773SOL    HW232159   1.215   9.181  13.049
76774SOL     OW32160  12.263  12.891  13.891
76774SOL    HW132161  12.210  12.964  13.921
76774SOL    HW232162  12.207  12.845  13.828
76775SOL     OW32163  13.805   0.820  13.466
76775SOL    HW132164  13.882   0.806  13.411
76775SOL    HW232165  13.733   0.831  13.403
76776SOL     OW32166   5.144   1.157   9.958
76776SOL    HW132167   5.049   1.160   9.968
76776SOL    HW232168   5.164   1.063   9.950
76777SOL     OW32169   3.471   2.727   6.314
76777SOL    HW132170   3.381   2.700   6.300
76777SOL    HW232171   3.472   2.764   6.402
76778SOL     OW32172   6.059   9.119   9.411
76778SOL    HW132173   5.987   9.168   9.372
76778SOL    HW232174   6.016   9.048   9.459
76779SOL     OW32175   4.233  14.015   7.078
76779SOL    HW132176   4.192  13.943   7.030
76779SOL    HW232177   4.163  14.081   7.086
76780SOL     OW32178   5.424   0.223   2.787
76780SOL    HW132179   5.394   0.167   2.859
76780SOL    HW232180   5.402   0.174   2.708
76781SOL     OW32181   5.561   9.107  13.086
76781SOL    HW132182   5.500   9.179  13.103
76781SOL    HW232183   5.525   9.063  13.009
76782SOL     OW32184   5.363   6.936  14.795
76782SOL    HW132185   5.385   6.858  14.744
76782SOL    HW232186   5.343   6.902   0.003
76783SOL     OW32187   4.538   2.001  11.288
76783SOL    HW132188   4.621   2.048  11.287
76783SOL    HW232189   4.471   2.069  11.297
76784SOL     OW32190   2.465  14.641   9.260
76784SOL    HW132191   2.421  14.644   9.175
76784SOL    HW232192   2.553  14.674   9.241
76785SOL     OW32193   6.255   0.735   8.262
76785SOL    HW132194   6.253   0.640   8.270
76785SOL    HW232195   6.297   0.765   8.343
76786SOL     OW32196   5.047  14.334   7.932
76786SOL    HW132197   5.128  14.309   7.974
76786SOL    HW232198   5.068  14.414   7.883
76787SOL     OW32199  12.922  11.255   2.654
76787SOL    HW132200  12.888  11.312   2.585
76787SOL    HW232201  12.851  11.193   2.672
76788SOL     OW32202   8.231  12.300   4.552
76788SOL    HW132203   8.322  12.286   4.528
76788SOL    HW232204   8.216  12.240   4.625
76789SOL     OW32205   7.899   4.921   1.077
76789SOL    HW132206   7.925   4.845   1.130
76789SOL    HW232207   7.803   4.916   1.074
76790SOL     OW32208   6.650   2.121  14.364
76790SOL    HW132209   6.694   2.200  14.396
76790SOL    HW232210   6.615   2.080  14.443
76791SOL     OW32211   4.425  11.272  12.300
76791SOL    HW132212   4.518  11.253  12.292
76791SOL    HW232213   4.419  11.367  12.292
76792SOL     OW32214  10.765  12.452  12.318
76792SOL    HW132215  10.669  12.449  12.322
76792SOL    HW232216  10.791  12.506  12.393
76793SOL     OW32217  14.633   5.860   7.814
76793SOL    HW132218  14.669   5.948   7.820
76793SOL    HW232219  14.698   5.803   7.855
76794SOL     OW32220  13.339  10.590  12.029
76794SOL    HW132221  13.321  10.586  12.124
76794SOL    HW232222  13.286  10.664  11.998
76795SOL     OW32223  13.911   0.894   2.530
76795SOL    HW132224  13.841   0.828   2.530
76795SOL    HW232225  13.988   0.846   2.560
76796SOL     OW32226   9.415   1.619  11.272
76796SOL    HW132227   9.411   1.678  11.198
76796SOL    HW232228   9.425   1.676  11.348
76797SOL     OW32229  12.613  13.259   2.732
76797SOL    HW132230  12.652  13.193   2.675
76797SOL    HW232231  12.528  13.223   2.756
76798SOL     OW32232   7.392   2.335   0.907
76798SOL    HW132233   7.451   2.408   0.890
76798SOL    HW232234   7.445   2.257   0.890
76799SOL     OW32235  12.180   6.828   1.523
76799SOL    HW132236  12.111   6.853   1.462
76799SOL    HW232237  12.260   6.834   1.472
76800SOL     OW32238   7.857  10.717   3.168
76800SOL    HW132239   7.861  10.813   3.171
76800SOL    HW232240   7.929  10.692   3.110
76801SOL     OW32241   5.430   7.290   5.566
76801SOL    HW132242   5.433   7.336   5.650
76801SOL    HW232243   5.341   7.256   5.560
76802SOL     OW32244   7.715   2.187   6.194
76802SOL    HW132245   7.798   2.193   6.241
76802SOL    HW232246   7.671   2.270   6.213
76803SOL     OW32247   9.197   4.721   5.429
76803SOL    HW132248   9.140   4.718   5.506
76803SOL    HW232249   9.178   4.640   5.382
76804SOL     OW32250   2.504   4.811   5.368
76804SOL    HW132251   2.552   4.736   5.333
76804SOL    HW232252   2.568   4.859   5.421
76805SOL     OW32253  12.595   5.956   4.387
76805SOL    HW132254  12.570   5.964   4.295
76805SOL    HW232255  12.513   5.936   4.432
76806SOL     OW32256  11.680   0.077   5.905
76806SOL    HW132257  11.690   0.142   5.975
76806SOL    HW232258  11.738   0.005   5.930
76807SOL     OW32259  12.087  10.010  13.370
76807SOL    HW132260  12.170  10.041  13.334
76807SOL    HW232261  12.113   9.954  13.444
76808SOL     OW32262   8.314   0.063  12.342
76808SOL    HW132263   8.349   0.023  12.262
76808SOL    HW232264   8.225   0.088  12.320
76809SOL     OW32265   6.132   3.707  12.979
76809SOL    HW132266   6.091   3.703  12.892
76809SOL    HW232267   6.217   3.663  12.967
76810SOL     OW32268   6.452  12.701   1.997
76810SOL    HW132269   6.453  12.607   2.012
76810SOL    HW232270   6.390  12.712   1.924
76811SOL     OW32271   1.339   5.296  14.859
76811SOL    HW132272   1.288   5.313   0.059
76811SOL    HW232273   1.351   5.383  14.819
76812SOL     OW32274  11.228   0.553  11.358
76812SOL    HW132275  11.192   0.642  11.365
76812SOL    HW232276  11.320   0.563  11.381
76813SOL     OW32277   9.591   2.986   8.150
76813SOL    HW132278   9.623   3.060   8.100
76813SOL    HW232279   9.549   3.026   8.227
76814SOL     OW32280   0.654   7.015   8.495
76814SOL    HW132281   0.614   7.087   8.544
76814SOL    HW232282   0.651   6.940   8.555
76815SOL     OW32283   0.059  13.858  13.396
76815SOL    HW132284   0.055  13.865  13.300
76815SOL    HW232285   0.144  13.816  13.413
76816SOL     OW32286  12.173   5.230  10.502
76816SOL    HW132287  12.152   5.317  10.468
76816SOL    HW232288  12.144   5.232  10.593
76817SOL     OW32289   9.121   3.561   0.720
76817SOL    HW132290   9.194   3.618   0.695
76817SOL    HW232291   9.044   3.600   0.678
76818SOL     OW32292   8.372   9.620   6.695
76818SOL    HW132293   8.384   9.688   6.761
76818SOL    HW232294   8.277   9.611   6.687
76819SOL     OW32295  14.335   1.568   4.406
76819SOL    HW132296  14.305   1.614   4.328
76819SOL    HW232297  14.322   1.631   4.477
76820SOL     OW32298   9.393   0.409  11.460
76820SOL    HW132299   9.399   0.480  11.524
76820SOL    HW232300   9.357   0.450  11.382
76821SOL     OW32301  10.855   0.632  13.277
76821SOL    HW132302  10.852   0.726  13.293
76821SOL    HW232303  10.948   0.609  13.286
76822SOL     OW32304  11.792   4.635   4.006
76822SOL    HW132305  11.783   4.661   3.915
76822SOL    HW232306  11.887   4.631   4.020
76823SOL     OW32307   4.662   4.441  10.098
76823SOL    HW132308   4.616   4.456  10.181
76823SOL    HW232309   4.601   4.388  10.047
76824SOL     OW32310   7.989   7.857   9.707
76824SOL    HW132311   8.077   7.891   9.723
76824SOL    HW232312   7.995   7.764   9.732
76825SOL     OW32313   9.690   8.445   6.393
76825SOL    HW132314   9.720   8.534   6.408
76825SOL    HW232315   9.769   8.396   6.371
76826SOL     OW32316  10.844  11.669   1.170
76826SOL    HW132317  10.833  11.592   1.226
76826SOL    HW232318  10.939  11.677   1.157
76827SOL     OW32319  10.062  11.308  12.846
76827SOL    HW132320   9.969  11.301  12.868
76827SOL    HW232321  10.102  11.230  12.887
76828SOL     OW32322  12.161   0.809   2.879
76828SOL    HW132323  12.170   0.844   2.967
76828SOL    HW232324  12.251   0.803   2.846
76829SOL     OW32325   8.768   2.899   7.283
76829SOL    HW132326   8.706   2.835   7.247
76829SOL    HW232327   8.827   2.919   7.210
76830SOL     OW32328   5.515  13.731   8.273
76830SOL    HW132329   5.475  13.672   8.208
76830SOL    HW232330   5.479  13.703   8.357
76831SOL     OW32331   3.897  12.935   7.653
76831SOL    HW132332   3.987  12.949   7.683
76831SOL    HW232333   3.877  12.844   7.678
76832SOL     OW32334   9.029  14.555   9.105
76832SOL    HW132335   9.029  14.630   9.164
76832SOL    HW232336   8.941  14.517   9.114
76833SOL     OW32337   6.533   7.676   1.945
76833SOL    HW132338   6.605   7.736   1.963
76833SOL    HW232339   6.513   7.690   1.852
76834SOL     OW32340   7.356   4.791   5.144
76834SOL    HW132341   7.390   4.720   5.090
76834SOL    HW232342   7.309   4.747   5.215
76835SOL     OW32343  10.448  12.119   6.287
76835SOL    HW132344  10.439  12.025   6.275
76835SOL    HW232345  10.358  12.152   6.283
76836SOL     OW32346   7.164   3.342  13.066
76836SOL    HW132347   7.102   3.351  13.139
76836SOL    HW232348   7.108   3.324  12.990
76837SOL     OW32349  10.485   4.224   4.312
76837SOL    HW132350  10.443   4.306   4.288
76837SOL    HW232351  10.568   4.250   4.351
76838SOL     OW32352   7.468   9.800   4.307
76838SOL    HW132353   7.534   9.761   4.250
76838SOL    HW232354   7.456   9.734   4.376
76839SOL     OW32355  10.142  12.602  12.885
76839SOL    HW132356  10.071  12.660  12.857
76839SOL    HW232357  10.119  12.580  12.975
76840SOL     OW32358  13.569  13.286  14.454
76840SOL    HW132359  13.594  13.347  14.385
76840SOL    HW232360  13.486  13.248  14.423
76841SOL     OW32361  13.783   5.850  12.171
76841SOL    HW132362  13.846   5.779  12.162
76841SOL    HW232363  13.703   5.817  12.129
76842SOL     OW32364   3.530  12.230   4.026
76842SOL    HW132365   3.605  12.184   4.064
76842SOL    HW232366   3.455  12.173   4.044
76843SOL     OW32367  13.511   1.888  12.420
76843SOL    HW132368  13.519   1.802  12.462
76843SOL    HW232369  13.443   1.933  12.469
76844SOL     OW32370  10.206   0.370   8.953
76844SOL    HW132371  10.209   0.373   9.048
76844SOL    HW232372  10.113   0.370   8.931
76845SOL     OW32373  10.227   6.050  11.512
76845SOL    HW132374  10.199   6.122  11.569
76845SOL    HW232375  10.170   5.977  11.537
76846SOL     OW32376   2.092   1.066   9.448
76846SOL    HW132377   2.155   1.080   9.518
76846SOL    HW232378   2.100   0.974   9.425
76847SOL     OW32379   8.777   4.835   1.518
76847SOL    HW132380   8.868   4.810   1.500
76847SOL    HW232381   8.781   4.929   1.532
76848SOL     OW32382   6.925   1.270  14.434
76848SOL    HW132383   6.858   1.339  14.435
76848SOL    HW232384   6.937   1.247  14.526
76849SOL     OW32385  14.090   5.082  12.957
76849SOL    HW132386  14.185   5.073  12.952
76849SOL    HW232387  14.060   5.002  13.001
76850SOL     OW32388   0.927   4.689   6.154
76850SOL    HW132389   0.899   4.604   6.121
76850SOL    HW232390   0.846   4.731   6.182
76851SOL     OW32391   6.927   2.058   0.787
76851SOL    HW132392   6.999   2.122   0.793
76851SOL    HW232393   6.956   1.996   0.721
76852SOL     OW32394   0.719   7.893   9.424
76852SOL    HW132395   0.782   7.881   9.495
76852SOL    HW232396   0.760   7.852   9.348
76853SOL     OW32397   2.876   5.906  12.946
76853SOL    HW132398   2.810   5.865  12.890
76853SOL    HW232399   2.829   5.975  12.993
76854SOL     OW32400   6.653   4.132  13.876
76854SOL    HW132401   6.722   4.107  13.814
76854SOL    HW232402   6.571   4.116  13.828
76855SOL     OW32403   3.769   3.353   3.414
76855SOL    HW132404   3.806   3.363   3.327
76855SOL    HW232405   3.784   3.438   3.456
76856SOL     OW32406  11.174   6.922   2.396
76856SOL    HW132407  11.088   6.880   2.408
76856SOL    HW232408  11.156   7.015   2.409
76857SOL     OW32409   3.223  13.861   2.346
76857SOL    HW132410   3.250  13.807   2.420
76857SOL    HW232411   3.186  13.798   2.283
76858SOL     OW32412   0.309   9.810  14.134
76858SOL    HW132413   0.326   9.719  14.112
76858SOL    HW232414   0.326   9.858  14.053
76859SOL     OW32415   7.756   4.556   3.355
76859SOL    HW132416   7.761   4.460   3.355
76859SOL    HW232417   7.681   4.576   3.299
76860SOL     OW32418   5.335   5.587  10.928
76860SOL    HW132419   5.320   5.581  10.833
76860SOL    HW232420   5.262   5.539  10.967
76861SOL     OW32421   1.002   1.274   8.890
76861SOL    HW132422   0.939   1.345   8.877
76861SOL    HW232423   0.966   1.224   8.964
76862SOL     OW32424   5.827  13.026   2.412
76862SOL    HW132425   5.775  13.082   2.353
76862SOL    HW232426   5.917  13.057   2.400
76863SOL     OW32427   0.988   1.931  10.219
76863SOL    HW132428   1.021   1.984  10.292
76863SOL    HW232429   1.060   1.871  10.199
76864SOL     OW32430  11.287  10.629   4.690
76864SOL    HW132431  11.311  10.537   4.688
76864SOL    HW232432  11.263  10.650   4.600
76865SOL     OW32433  11.846  11.729   9.308
76865SOL    HW132434  11.786  11.684   9.248
76865SOL    HW232435  11.858  11.668   9.380
76866SOL     OW32436   3.764   0.780  13.331
76866SOL    HW132437   3.789   0.738  13.414
76866SOL    HW232438   3.668   0.781  13.333
76867SOL     OW32439   1.743  14.093   4.776
76867SOL    HW132440   1.707  14.114   4.862
76867SOL    HW232441   1.783  14.007   4.787
76868SOL     OW32442   9.964   5.570   4.950
76868SOL    HW132443   9.918   5.647   4.984
76868SOL    HW232444  10.013   5.602   4.874
76869SOL     OW32445   7.557   6.135   9.679
76869SOL    HW132446   7.568   6.199   9.609
76869SOL    HW232447   7.622   6.067   9.659
76870SOL     OW32448  14.723   3.239   1.186
76870SOL    HW132449  14.756   3.149   1.183
76870SOL    HW232450  14.790   3.291   1.141
76871SOL     OW32451  10.618   3.736  11.091
76871SOL    HW132452  10.528   3.713  11.067
76871SOL    HW232453  10.669   3.719  11.011
76872SOL     OW32454  10.561   7.976  11.995
76872SOL    HW132455  10.550   7.881  12.000
76872SOL    HW232456  10.565   8.004  12.086
76873SOL     OW32457  11.769   4.686  12.694
76873SOL    HW132458  11.767   4.627  12.770
76873SOL    HW232459  11.709   4.756  12.717
76874SOL     OW32460  13.204   1.304  12.875
76874SOL    HW132461  13.208   1.218  12.918
76874SOL    HW232462  13.246   1.291  12.791
76875SOL     OW32463   8.911   8.695   8.143
76875SOL    HW132464   8.823   8.728   8.124
76875SOL    HW232465   8.946   8.670   8.058
76876SOL     OW32466   9.598  13.712  12.376
76876SOL    HW132467   9.544  13.767  12.432
76876SOL    HW232468   9.574  13.736  12.287
76877SOL     OW32469  10.868   0.283   8.703
76877SOL    HW132470  10.813   0.225   8.756
76877SOL    HW232471  10.950   0.236   8.692
76878SOL     OW32472   5.776  11.975  10.789
76878SOL    HW132473   5.795  12.039  10.719
76878SOL    HW232474   5.739  11.900  10.743
76879SOL     OW32475   2.061  13.909  11.600
76879SOL    HW132476   2.130  13.975  11.590
76879SOL    HW232477   1.990  13.955  11.644
76880SOL     OW32478   9.237   6.818   3.608
76880SOL    HW132479   9.247   6.841   3.515
76880SOL    HW232480   9.238   6.722   3.609
76881SOL     OW32481  13.261  12.950   3.342
76881SOL    HW132482  13.271  12.953   3.437
76881SOL    HW232483  13.294  12.863   3.317
76882SOL     OW32484  11.862  13.144  10.129
76882SOL    HW132485  11.916  13.092  10.069
76882SOL    HW232486  11.772  13.121  10.107
76883SOL     OW32487   3.582   6.080   7.571
76883SOL    HW132488   3.611   6.075   7.662
76883SOL    HW232489   3.627   6.007   7.528
76884SOL     OW32490  11.504  10.423  10.540
76884SOL    HW132491  11.463  10.509  10.531
76884SOL    HW232492  11.571  10.421  10.472
76885SOL     OW32493   4.543   1.397   5.992
76885SOL    HW132494   4.506   1.385   6.079
76885SOL    HW232495   4.637   1.382   6.003
76886SOL     OW32496   9.690   6.910  14.830
76886SOL    HW132497   9.669   6.991  14.782
76886SOL    HW232498   9.644   6.919   0.034
76887SOL     OW32499  12.263  13.945   8.092
76887SOL    HW132500  12.323  13.896   8.148
76887SOL    HW232501  12.232  14.017   8.147
76888SOL     OW32502   3.602   3.196   3.779
76888SOL    HW132503   3.603   3.178   3.874
76888SOL    HW232504   3.690   3.172   3.750
76889SOL     OW32505   1.123   2.275  11.313
76889SOL    HW132506   1.185   2.287  11.385
76889SOL    HW232507   1.057   2.344  11.327
76890SOL     OW32508  13.867   6.176   7.915
76890SOL    HW132509  13.925   6.152   7.987
76890SOL    HW232510  13.852   6.270   7.927
76891SOL     OW32511   9.027   2.741  11.537
76891SOL    HW132512   9.036   2.833  11.561
76891SOL    HW232513   8.982   2.701  11.611
76892SOL     OW32514  12.340   6.009   6.471
76892SOL    HW132515  12.368   5.919   6.454
76892SOL    HW232516  12.407   6.044   6.529
76893SOL     OW32517  10.151   0.444  13.989
76893SOL    HW132518  10.120   0.410  14.072
76893SOL    HW232519  10.227   0.498  14.012
76894SOL     OW32520   1.126   8.915   4.361
76894SOL    HW132521   1.159   8.832   4.326
76894SOL    HW232522   1.204   8.960   4.393
76895SOL     OW32523   7.629   5.811   9.732
76895SOL    HW132524   7.688   5.868   9.780
76895SOL    HW232525   7.567   5.779   9.798
76896SOL     OW32526   9.966   8.652  11.907
76896SOL    HW132527   9.975   8.643  12.001
76896SOL    HW232528  10.048   8.616  11.871
76897SOL     OW32529  11.052   7.728   4.940
76897SOL    HW132530  10.991   7.743   5.013
76897SOL    HW232531  10.995   7.724   4.862
76898SOL     OW32532  12.178   0.092  10.661
76898SOL    HW132533  12.143   0.178  10.686
76898SOL    HW232534  12.172   0.040  10.741
76899SOL     OW32535   5.438  10.920  12.798
76899SOL    HW132536   5.404  10.998  12.844
76899SOL    HW232537   5.383  10.848  12.829
76900SOL     OW32538   8.201   5.782   3.698
76900SOL    HW132539   8.184   5.754   3.608
76900SOL    HW232540   8.195   5.878   3.694
76901SOL     OW32541   2.115   9.327   9.569
76901SOL    HW132542   2.198   9.297   9.607
76901SOL    HW232543   2.107   9.278   9.487
76902SOL     OW32544   5.530   5.692  11.104
76902SOL    HW132545   5.605   5.655  11.057
76902SOL    HW232546   5.453   5.652  11.062
76903SOL     OW32547  14.503   2.616   0.583
76903SOL    HW132548  14.459   2.623   0.498
76903SOL    HW232549  14.503   2.522   0.602
76904SOL     OW32550  11.604   0.693   8.277
76904SOL    HW132551  11.604   0.787   8.295
76904SOL    HW232552  11.694   0.665   8.295
76905SOL     OW32553   4.874   7.562  14.213
76905SOL    HW132554   4.970   7.563  14.216
76905SOL    HW232555   4.847   7.570  14.305
76906SOL     OW32556   5.669   6.382  11.591
76906SOL    HW132557   5.739   6.437  11.553
76906SOL    HW232558   5.620   6.442  11.647
76907SOL     OW32559   6.880   3.127   9.043
76907SOL    HW132560   6.949   3.062   9.055
76907SOL    HW232561   6.873   3.138   8.948
76908SOL     OW32562  11.575   4.122  14.322
76908SOL    HW132563  11.595   4.194  14.262
76908SOL    HW232564  11.644   4.127  14.388
76909SOL     OW32565   5.538   0.706   0.568
76909SOL    HW132566   5.493   0.786   0.543
76909SOL    HW232567   5.630   0.731   0.576
76910SOL     OW32568   5.916   1.773   9.528
76910SOL    HW132569   5.947   1.738   9.612
76910SOL    HW232570   5.992   1.819   9.492
76911SOL     OW32571   4.105   1.802  11.368
76911SOL    HW132572   4.105   1.706  11.375
76911SOL    HW232573   4.192   1.824  11.334
76912SOL     OW32574   3.865   4.742   2.298
76912SOL    HW132575   3.801   4.795   2.251
76912SOL    HW232576   3.930   4.717   2.231
76913SOL     OW32577  12.947   7.717   1.128
76913SOL    HW132578  13.027   7.666   1.141
76913SOL    HW232579  12.936   7.766   1.209
76914SOL     OW32580   0.696   9.788   4.551
76914SOL    HW132581   0.665   9.819   4.635
76914SOL    HW232582   0.782   9.750   4.569
76915SOL     OW32583  14.646   8.939   5.159
76915SOL    HW132584  14.734   8.935   5.121
76915SOL    HW232585  14.620   8.847   5.169
76916SOL     OW32586  11.493   4.408  12.165
76916SOL    HW132587  11.406   4.418  12.203
76916SOL    HW232588  11.547   4.472  12.210
76917SOL     OW32589   1.973  13.532   6.090
76917SOL    HW132590   1.928  13.496   6.014
76917SOL    HW232591   1.907  13.534   6.159
76918SOL     OW32592   6.094   4.716   9.017
76918SOL    HW132593   6.156   4.642   9.014
76918SOL    HW232594   6.071   4.731   8.926
76919SOL     OW32595   3.585   7.295  10.675
76919SOL    HW132596   3.568   7.213  10.722
76919SOL    HW232597   3.667   7.278  10.627
76920SOL     OW32598  13.934  12.819   1.351
76920SOL    HW132599  13.966  12.811   1.441
76920SOL    HW232600  14.013  12.835   1.299
76921SOL     OW32601   9.812  13.719  13.433
76921SOL    HW132602   9.788  13.715  13.526
76921SOL    HW232603   9.731  13.697  13.387
76922SOL     OW32604   4.452  11.443  14.575
76922SOL    HW132605   4.538  11.461  14.538
76922SOL    HW232606   4.415  11.529  14.595
76923SOL     OW32607  14.026   0.004   9.043
76923SOL    HW132608  13.973   0.084   9.038
76923SOL    HW232609  14.004  14.836   8.963
76924SOL     OW32610   1.077   7.649   5.402
76924SOL    HW132611   1.098   7.630   5.311
76924SOL    HW232612   1.127   7.727   5.423
76925SOL     OW32613   4.213   2.933   7.607
76925SOL    HW132614   4.148   2.970   7.547
76925SOL    HW232615   4.228   3.002   7.672
76926SOL     OW32616   1.265  10.946   5.561
76926SOL    HW132617   1.330  10.968   5.495
76926SOL    HW232618   1.306  10.876   5.613
76927SOL     OW32619  14.266  14.801   5.645
76927SOL    HW132620  14.235  14.840   5.564
76927SOL    HW232621  14.283  14.710   5.623
76928SOL     OW32622   0.814  14.197   5.787
76928SOL    HW132623   0.785  14.138   5.856
76928SOL    HW232624   0.830  14.280   5.831
76929SOL     OW32625   6.790   6.183   1.454
76929SOL    HW132626   6.779   6.276   1.436
76929SOL    HW232627   6.748   6.139   1.381
76930SOL     OW32628  10.751  14.298   9.397
76930SOL    HW132629  10.803  14.299   9.317
76930SOL    HW232630  10.756  14.388   9.430
76931SOL     OW32631   5.793  14.434  12.280
76931SOL    HW132632   5.821  14.355  12.232
76931SOL    HW232633   5.851  14.503  12.248
76932SOL     OW32634  12.287   7.190   6.341
76932SOL    HW132635  12.346   7.215   6.412
76932SOL    HW232636  12.313   7.244   6.267
76933SOL     OW32637   4.019   1.209   9.635
76933SOL    HW132638   4.064   1.207   9.719
76933SOL    HW232639   3.944   1.267   9.650
76934SOL     OW32640  13.156   7.403  13.751
76934SOL    HW132641  13.205   7.401  13.669
76934SOL    HW232642  13.211   7.454  13.811
76935SOL     OW32643   9.076   7.663   2.709
76935SOL    HW132644   9.058   7.657   2.803
76935SOL    HW232645   9.164   7.628   2.698
76936SOL     OW32646   4.984   0.875  12.127
76936SOL    HW132647   4.954   0.960  12.160
76936SOL    HW232648   4.994   0.889  12.033
76937SOL     OW32649   8.389   8.563   1.724
76937SOL    HW132650   8.302   8.531   1.749
76937SOL    HW232651   8.445   8.539   1.797
76938SOL     OW32652   7.179  11.951  13.130
76938SOL    HW132653   7.147  11.916  13.047
76938SOL    HW232654   7.167  12.046  13.123
76939SOL     OW32655   0.258  11.340   1.775
76939SOL    HW132656   0.289  11.250   1.787
76939SOL    HW232657   0.194  11.352   1.846
76940SOL     OW32658   8.361   8.432   1.485
76940SOL    HW132659   8.397   8.478   1.561
76940SOL    HW232660   8.303   8.496   1.444
76941SOL     OW32661  12.285   4.983   6.586
76941SOL    HW132662  12.335   5.050   6.539
76941SOL    HW232663  12.231   5.033   6.647
76942SOL     OW32664   3.306   4.948   2.997
76942SOL    HW132665   3.271   4.892   2.927
76942SOL    HW232666   3.315   4.890   3.073
76943SOL     OW32667  12.273   1.020   5.621
76943SOL    HW132668  12.286   1.086   5.552
76943SOL    HW232669  12.274   1.070   5.702
76944SOL     OW32670   2.845   5.140   2.311
76944SOL    HW132671   2.940   5.131   2.308
76944SOL    HW232672   2.812   5.059   2.273
76945SOL     OW32673   7.415   0.701   9.615
76945SOL    HW132674   7.483   0.722   9.551
76945SOL    HW232675   7.463   0.671   9.692
76946SOL     OW32676   6.240   0.642  14.552
76946SOL    HW132677   6.229   0.735  14.571
76946SOL    HW232678   6.320   0.617  14.597
76947SOL     OW32679   7.662  14.202   4.827
76947SOL    HW132680   7.742  14.242   4.794
76947SOL    HW232681   7.616  14.171   4.748
76948SOL     OW32682  14.191   5.525   2.351
76948SOL    HW132683  14.217   5.433   2.339
76948SOL    HW232684  14.242   5.555   2.426
76949SOL     OW32685  11.753   8.401  12.112
76949SOL    HW132686  11.846   8.422  12.110
76949SOL    HW232687  11.745   8.334  12.181
76950SOL     OW32688   6.481  14.793   9.905
76950SOL    HW132689   6.564  14.746   9.901
76950SOL    HW232690   6.464  14.804   9.999
76951SOL     OW32691  11.315  10.267   8.536
76951SOL    HW132692  11.300  10.327   8.609
76951SOL    HW232693  11.240  10.208   8.537
76952SOL     OW32694  12.848   7.040  12.896
76952SOL    HW132695  12.896   6.978  12.951
76952SOL    HW232696  12.774   7.069  12.950
76953SOL     OW32697   6.207  14.613   4.365
76953SOL    HW132698   6.120  14.591   4.332
76953SOL    HW232699   6.236  14.534   4.412
76954SOL     OW32700  10.790   9.381   5.008
76954SOL    HW132701  10.875   9.399   5.048
76954SOL    HW232702  10.811   9.351   4.920
76955SOL     OW32703  10.296   4.084   2.082
76955SOL    HW132704  10.277   4.132   2.002
76955SOL    HW232705  10.366   4.134   2.123
76956SOL     OW32706   9.927   1.764  10.841
76956SOL    HW132707   9.837   1.738  10.861
76956SOL    HW232708   9.960   1.800  10.924
76957SOL     OW32709   6.280   3.433   8.058
76957SOL    HW132710   6.187   3.438   8.037
76957SOL    HW232711   6.288   3.474   8.144
76958SOL     OW32712  11.474   3.573  10.859
76958SOL    HW132713  11.487   3.598  10.951
76958SOL    HW232714  11.414   3.498  10.864
76959SOL     OW32715   6.500  12.239  13.175
76959SOL    HW132716   6.490  12.330  13.202
76959SOL    HW232717   6.507  12.242  13.080
76960SOL     OW32718   1.798  11.291   2.811
76960SOL    HW132719   1.708  11.288   2.841
76960SOL    HW232720   1.792  11.313   2.718
76961SOL     OW32721   3.862   8.909   9.111
76961SOL    HW132722   3.786   8.869   9.070
76961SOL    HW232723   3.875   8.991   9.063
76962SOL     OW32724  13.300   4.361   8.268
76962SOL    HW132725  13.264   4.376   8.180
76962SOL    HW232726  13.281   4.269   8.285
76963SOL     OW32727   4.256   7.350   8.626
76963SOL    HW132728   4.212   7.434   8.615
76963SOL    HW232729   4.342   7.372   8.661
76964SOL     OW32730  10.313  12.966   5.365
76964SOL    HW132731  10.325  12.970   5.271
76964SOL    HW232732  10.299  13.057   5.392
76965SOL     OW32733   3.436  14.853   5.783
76965SOL    HW132734   3.473   0.056   5.813
76965SOL    HW232735   3.502  14.787   5.805
76966SOL     OW32736   9.272  13.542   7.976
76966SOL    HW132737   9.252  13.529   8.069
76966SOL    HW232738   9.361  13.508   7.966
76967SOL     OW32739  13.422   3.963   4.906
76967SOL    HW132740  13.361   3.919   4.847
76967SOL    HW232741  13.379   3.961   4.991
76968SOL     OW32742  13.042   4.982   6.165
76968SOL    HW132743  13.014   5.072   6.184
76968SOL    HW232744  12.998   4.959   6.083
76969SOL     OW32745  11.250   6.699   7.575
76969SOL    HW132746  11.230   6.611   7.542
76969SOL    HW232747  11.218   6.698   7.666
76970SOL     OW32748  12.825   7.301   7.432
76970SOL    HW132749  12.879   7.279   7.507
76970SOL    HW232750  12.859   7.385   7.402
76971SOL     OW32751  12.562  13.650   6.136
76971SOL    HW132752  12.587  13.707   6.208
76971SOL    HW232753  12.603  13.565   6.158
76972SOL     OW32754  10.525   3.002   8.497
76972SOL    HW132755  10.601   2.994   8.555
76972SOL    HW232756  10.477   3.077   8.532
76973SOL     OW32757   7.189   0.026  11.815
76973SOL    HW132758   7.196   0.119  11.838
76973SOL    HW232759   7.208  14.859  11.897
76974SOL     OW32760   0.897  11.396   7.152
76974SOL    HW132761   0.972  11.362   7.104
76974SOL    HW232762   0.933  11.464   7.208
76975SOL     OW32763  12.874  10.878   4.300
76975SOL    HW132764  12.873  10.797   4.351
76975SOL    HW232765  12.963  10.912   4.311
76976SOL     OW32766   6.036   4.716  12.027
76976SOL    HW132767   5.982   4.794  12.017
76976SOL    HW232768   6.119   4.739  11.985
76977SOL     OW32769  13.397   6.874   4.694
76977SOL    HW132770  13.434   6.844   4.611
76977SOL    HW232771  13.421   6.806   4.757
76978SOL     OW32772   4.893  11.745  10.545
76978SOL    HW132773   4.986  11.764  10.558
76978SOL    HW232774   4.886  11.722  10.452
76979SOL     OW32775   8.200  13.047   2.319
76979SOL    HW132776   8.243  12.991   2.384
76979SOL    HW232777   8.202  12.996   2.238
76980SOL     OW32778   8.247  13.216   9.660
76980SOL    HW132779   8.342  13.219   9.651
76980SOL    HW232780   8.223  13.129   9.628
76981SOL     OW32781   8.618  13.233   2.309
76981SOL    HW132782   8.680  13.185   2.365
76981SOL    HW232783   8.614  13.321   2.349
76982SOL     OW32784  11.712  12.327   7.557
76982SOL    HW132785  11.678  12.373   7.480
76982SOL    HW232786  11.802  12.305   7.534
76983SOL     OW32787   9.689   1.737   2.955
76983SOL    HW132788   9.776   1.728   2.918
76983SOL    HW232789   9.644   1.798   2.896
76984SOL     OW32790  14.464   7.948  10.549
76984SOL    HW132791  14.429   8.017  10.492
76984SOL    HW232792  14.441   7.866  10.504
76985SOL     OW32793   6.877  12.052  12.034
76985SOL    HW132794   6.871  11.977  12.092
76985SOL    HW232795   6.790  12.092  12.038
76986SOL     OW32796   2.475   5.471   8.252
76986SOL    HW132797   2.441   5.554   8.218
76986SOL    HW232798   2.447   5.406   8.187
76987SOL     OW32799   1.313  14.687   7.981
76987SOL    HW132800   1.306  14.777   8.011
76987SOL    HW232801   1.304  14.634   8.060
76988SOL     OW32802  14.014   5.361  11.599
76988SOL    HW132803  14.092   5.369  11.654
76988SOL    HW232804  14.048   5.348  11.511
76989SOL     OW32805  14.782   7.994  11.324
76989SOL    HW132806  14.747   8.054  11.258
76989SOL    HW232807  14.869   7.971  11.292
76990SOL     OW32808  12.414   9.141   3.166
76990SOL    HW132809  12.487   9.129   3.106
76990SOL    HW232810  12.374   9.054   3.173
76991SOL     OW32811   9.186  10.090  10.435
76991SOL    HW132812   9.198  10.047  10.350
76991SOL    HW232813   9.209  10.182  10.419
76992SOL     OW32814   2.683  11.756  12.952
76992SOL    HW132815   2.721  11.829  13.000
76992SOL    HW232816   2.757  11.716  12.907
76993SOL     OW32817  13.554   9.884   2.014
76993SOL    HW132818  13.611   9.960   2.027
76993SOL    HW232819  13.613   9.809   2.008
76994SOL     OW32820  13.359   8.776   3.967
76994SOL    HW132821  13.350   8.865   3.936
76994SOL    HW232822  13.397   8.728   3.894
76995SOL     OW32823  14.766   5.669   5.979
76995SOL    HW132824  14.707   5.601   5.946
76995SOL    HW232825  14.853   5.642   5.951
76996SOL     OW32826   5.072   6.655   1.740
76996SOL    HW132827   4.980   6.646   1.715
76996SOL    HW232828   5.072   6.638   1.835
76997SOL     OW32829  12.013   2.832   4.215
76997SOL    HW132830  11.937   2.826   4.157
76997SOL    HW232831  12.043   2.922   4.206
76998SOL     OW32832   1.928  11.017   0.579
76998SOL    HW132833   1.888  11.012   0.666
76998SOL    HW232834   1.856  11.034   0.519
76999SOL     OW32835   9.677   8.982   3.023
76999SOL    HW132836   9.723   8.961   3.104
76999SOL    HW232837   9.747   9.005   2.962
77000SOL     OW32838   3.386   1.828   3.977
77000SOL    HW132839   3.457   1.785   4.025
77000SOL    HW232840   3.426   1.853   3.893
77001SOL     OW32841   4.365   4.639  12.369
77001SOL    HW132842   4.395   4.604  12.452
77001SOL    HW232843   4.328   4.564  12.323
77002SOL     OW32844   2.713   1.761   9.328
77002SOL    HW132845   2.691   1.727   9.415
77002SOL    HW232846   2.650   1.720   9.269
77003SOL     OW32847  11.022  10.981   8.054
77003SOL    HW132848  11.078  10.934   7.991
77003SOL    HW232849  10.943  11.003   8.004
77004SOL     OW32850   7.483  12.419   8.093
77004SOL    HW132851   7.556  12.439   8.151
77004SOL    HW232852   7.429  12.357   8.143
77005SOL     OW32853   7.894   8.794  12.641
77005SOL    HW132854   7.965   8.825  12.584
77005SOL    HW232855   7.938   8.746  12.710
77006SOL     OW32856   7.652   9.998   7.469
77006SOL    HW132857   7.609  10.083   7.475
77006SOL    HW232858   7.580   9.935   7.461
77007SOL     OW32859  10.094   9.078  12.148
77007SOL    HW132860  10.066   9.026  12.224
77007SOL    HW232861  10.015   9.126  12.122
77008SOL     OW32862  12.392  10.027  11.615
77008SOL    HW132863  12.297  10.024  11.622
77008SOL    HW232864  12.421  10.072  11.694
77009SOL     OW32865   8.526   0.561   2.170
77009SOL    HW132866   8.459   0.591   2.108
77009SOL    HW232867   8.487   0.573   2.256
77010SOL     OW32868   0.200  10.488  14.198
77010SOL    HW132869   0.131  10.503  14.262
77010SOL    HW232870   0.186  10.399  14.167
77011SOL     OW32871   7.908   4.369   1.309
77011SOL    HW132872   7.921   4.387   1.402
77011SOL    HW232873   7.910   4.274   1.303
77012SOL     OW32874   4.867   5.746   8.353
77012SOL    HW132875   4.888   5.762   8.261
77012SOL    HW232876   4.949   5.718   8.393
77013SOL     OW32877   2.751   3.071  13.198
77013SOL    HW132878   2.798   3.013  13.138
77013SOL    HW232879   2.749   3.155  13.153
77014SOL     OW32880  11.025  14.668   9.617
77014SOL    HW132881  11.038  14.715   9.699
77014SOL    HW232882  11.074  14.718   9.552
77015SOL     OW32883   1.021   2.857   9.081
77015SOL    HW132884   0.993   2.843   8.990
77015SOL    HW232885   1.115   2.844   9.079
77016SOL     OW32886  10.045   6.555   1.272
77016SOL    HW132887   9.999   6.639   1.264
77016SOL    HW232888  10.113   6.572   1.338
77017SOL     OW32889   4.794   7.630   8.251
77017SOL    HW132890   4.833   7.572   8.317
77017SOL    HW232891   4.761   7.704   8.302
77018SOL     OW32892  11.088   9.475   8.835
77018SOL    HW132893  11.002   9.501   8.869
77018SOL    HW232894  11.149   9.498   8.906
77019SOL     OW32895   6.682  11.429   0.949
77019SOL    HW132896   6.752  11.493   0.938
77019SOL    HW232897   6.683  11.407   1.042
77020SOL     OW32898   1.840   5.448   5.390
77020SOL    HW132899   1.830   5.542   5.380
77020SOL    HW232900   1.811   5.430   5.479
77021SOL     OW32901   2.125   2.102   4.256
77021SOL    HW132902   2.069   2.030   4.228
77021SOL    HW232903   2.170   2.130   4.176
77022SOL     OW32904   3.028  10.192   7.782
77022SOL    HW132905   3.068  10.277   7.804
77022SOL    HW232906   3.096  10.128   7.802
77023SOL     OW32907   2.449   7.057   1.748
77023SOL    HW132908   2.365   7.013   1.738
77023SOL    HW232909   2.491   7.048   1.663
77024SOL     OW32910   7.021  12.416   5.981
77024SOL    HW132911   7.020  12.504   5.945
77024SOL    HW232912   7.051  12.427   6.071
77025SOL     OW32913   7.874   2.740   6.924
77025SOL    HW132914   7.836   2.662   6.883
77025SOL    HW232915   7.874   2.720   7.018
77026SOL     OW32916  13.726   4.917  11.862
77026SOL    HW132917  13.788   4.962  11.919
77026SOL    HW232918  13.640   4.933  11.902
77027SOL     OW32919  14.363   8.038   2.521
77027SOL    HW132920  14.356   8.130   2.494
77027SOL    HW232921  14.456   8.022   2.531
77028SOL     OW32922   6.225   4.669  11.451
77028SOL    HW132923   6.200   4.576  11.456
77028SOL    HW232924   6.319   4.670  11.470
77029SOL     OW32925  12.189   1.893   7.395
77029SOL    HW132926  12.232   1.917   7.313
77029SOL    HW232927  12.205   1.968   7.453
77030SOL     OW32928   0.483  13.249   8.909
77030SOL    HW132929   0.414  13.244   8.842
77030SOL    HW232930   0.548  13.186   8.880
77031SOL     OW32931  11.160   1.829  11.679
77031SOL    HW132932  11.085   1.771  11.696
77031SOL    HW232933  11.234   1.769  11.668
77032SOL     OW32934   8.231   2.235  14.507
77032SOL    HW132935   8.290   2.302  14.472
77032SOL    HW232936   8.144   2.262  14.476
77033SOL     OW32937   3.427   0.939  12.264
77033SOL    HW132938   3.444   1.033  12.264
77033SOL    HW232939   3.419   0.915  12.356
77034SOL     OW32940   0.726  13.512   5.060
77034SOL    HW132941   0.802  13.547   5.013
77034SOL    HW232942   0.651  13.538   5.007
77035SOL     OW32943  11.284  13.457   2.190
77035SOL    HW132944  11.287  13.363   2.210
77035SOL    HW232945  11.260  13.460   2.097
77036SOL     OW32946   2.413   5.047   5.665
77036SOL    HW132947   2.450   4.977   5.611
77036SOL    HW232948   2.437   5.023   5.755
77037SOL     OW32949   8.050   1.876   8.197
77037SOL    HW132950   8.035   1.802   8.137
77037SOL    HW232951   8.144   1.890   8.194
77038SOL     OW32952   6.689  14.674   7.904
77038SOL    HW132953   6.734  14.669   7.988
77038SOL    HW232954   6.713  14.593   7.859
77039SOL     OW32955   1.061  13.757  11.492
77039SOL    HW132956   1.108  13.772  11.410
77039SOL    HW232957   0.969  13.756  11.468
77040SOL     OW32958   3.786   3.379   2.338
77040SOL    HW132959   3.842   3.453   2.314
77040SOL    HW232960   3.774   3.389   2.433
77041SOL     OW32961   7.961  14.738   4.320
77041SOL    HW132962   7.966  14.748   4.415
77041SOL    HW232963   7.929  14.823   4.289
77042SOL     OW32964   7.410   2.420  14.323
77042SOL    HW132965   7.356   2.369  14.262
77042SOL    HW232966   7.410   2.368  14.404
77043SOL     OW32967   3.646  12.220   7.346
77043SOL    HW132968   3.639  12.250   7.437
77043SOL    HW232969   3.560  12.240   7.308
77044SOL     OW32970   8.255   0.460  11.201
77044SOL    HW132971   8.273   0.464  11.295
77044SOL    HW232972   8.162   0.435  11.196
77045SOL     OW32973   9.540  12.720   4.390
77045SOL    HW132974   9.531  12.781   4.316
77045SOL    HW232975   9.620  12.671   4.370
77046SOL     OW32976  10.606   4.305   1.023
77046SOL    HW132977  10.536   4.347   1.073
77046SOL    HW232978  10.591   4.332   0.933
77047SOL     OW32979   7.942   3.303   3.878
77047SOL    HW132980   7.949   3.211   3.900
77047SOL    HW232981   7.909   3.345   3.957
77048SOL     OW32982   4.202  10.358   9.066
77048SOL    HW132983   4.183  10.432   9.124
77048SOL    HW232984   4.145  10.371   8.991
77049SOL     OW32985   3.041   3.344  12.045
77049SOL    HW132986   2.985   3.378  12.115
77049SOL    HW232987   3.090   3.272  12.085
77050SOL     OW32988   1.631  10.044   0.575
77050SOL    HW132989   1.546  10.083   0.595
77050SOL    HW232990   1.620  10.005   0.488
77051SOL     OW32991   2.023  10.116  11.755
77051SOL    HW132992   2.054  10.204  11.734
77051SOL    HW232993   2.012  10.117  11.850
77052SOL     OW32994   2.107  12.792   8.477
77052SOL    HW132995   2.189  12.840   8.489
77052SOL    HW232996   2.125  12.732   8.405
77053SOL     OW32997  12.778   1.551   6.354
77053SOL    HW132998  12.772   1.516   6.265
77053SOL    HW232999  12.831   1.630   6.346
77054SOL     OW33000   2.442   2.393   4.548
77054SOL    HW133001   2.376   2.450   4.587
77054SOL    HW233002   2.517   2.399   4.608
77055SOL     OW33003   9.510   3.487  11.553
77055SOL    HW133004   9.584   3.467  11.496
77055SOL    HW233005   9.443   3.422  11.530
77056SOL     OW33006   1.430   3.833   6.314
77056SOL    HW133007   1.449   3.901   6.378
77056SOL    HW233008   1.460   3.869   6.231
77057SOL     OW33009   9.684   8.344   0.492
77057SOL    HW133010   9.618   8.350   0.561
77057SOL    HW233011   9.691   8.251   0.473
77058SOL     OW33012   4.095   1.132   1.074
77058SOL    HW133013   4.184   1.137   1.039
77058SOL    HW233014   4.041   1.105   1.000
77059SOL     OW33015   1.068   8.130   7.616
77059SOL    HW133016   1.082   8.036   7.611
77059SOL    HW233017   1.024   8.152   7.534
77060SOL     OW33018   7.970   6.741   9.300
77060SOL    HW133019   8.063   6.766   9.298
77060SOL    HW233020   7.923   6.823   9.316
77061SOL     OW33021   9.490   4.756   4.181
77061SOL    HW133022   9.447   4.806   4.251
77061SOL    HW233023   9.439   4.776   4.102
77062SOL     OW33024  12.915   6.214   6.262
77062SOL    HW133025  12.959   6.231   6.345
77062SOL    HW233026  12.969   6.257   6.196
77063SOL     OW33027   8.021   2.673   8.290
77063SOL    HW133028   8.105   2.636   8.262
77063SOL    HW233029   7.996   2.620   8.366
77064SOL     OW33030  10.146   5.325   4.381
77064SOL    HW133031  10.151   5.364   4.468
77064SOL    HW233032  10.154   5.399   4.320
77065SOL     OW33033  13.890   9.835   0.926
77065SOL    HW133034  13.841   9.753   0.926
77065SOL    HW233035  13.976   9.813   0.959
77066SOL     OW33036  14.821   5.939   8.393
77066SOL    HW133037   0.026   5.897   8.380
77066SOL    HW233038  14.763   5.869   8.423
77067SOL     OW33039   1.540   4.712   7.095
77067SOL    HW133040   1.480   4.768   7.046
77067SOL    HW233041   1.627   4.749   7.077
77068SOL     OW33042   7.639   3.193  13.300
77068SOL    HW133043   7.672   3.104  13.288
77068SOL    HW233044   7.639   3.206  13.395
77069SOL     OW33045   3.300   1.238   0.474
77069SOL    HW133046   3.300   1.334   0.480
77069SOL    HW233047   3.226   1.217   0.418
77070SOL     OW33048   5.339   0.442   2.088
77070SOL    HW133049   5.313   0.403   2.004
77070SOL    HW233050   5.431   0.418   2.098
77071SOL     OW33051   3.014   9.279   9.076
77071SOL    HW133052   2.967   9.203   9.042
77071SOL    HW233053   3.062   9.313   9.000
77072SOL     OW33054   7.361   5.302   0.167
77072SOL    HW133055   7.352   5.393   0.195
77072SOL    HW233056   7.398   5.257   0.243
77073SOL     OW33057   6.044   3.145  14.413
77073SOL    HW133058   6.034   3.198  14.492
77073SOL    HW233059   5.966   3.164  14.362
77074SOL     OW33060   5.207  10.379  12.203
77074SOL    HW133061   5.271  10.307  12.200
77074SOL    HW233062   5.260  10.458  12.199
77075SOL     OW33063   9.743   6.172  10.222
77075SOL    HW133064   9.792   6.154  10.301
77075SOL    HW233065   9.795   6.134  10.151
77076SOL     OW33066   4.358   5.241  13.853
77076SOL    HW133067   4.343   5.247  13.758
77076SOL    HW233068   4.346   5.149  13.873
77077SOL     OW33069  10.773  11.000   7.873
77077SOL    HW133070  10.785  11.000   7.778
77077SOL    HW233071  10.689  11.043   7.886
77078SOL     OW33072  11.107   2.289   2.715
77078SOL    HW133073  11.156   2.370   2.732
77078SOL    HW233074  11.165   2.219   2.744
77079SOL     OW33075  14.496   7.085  10.254
77079SOL    HW133076  14.451   7.119  10.331
77079SOL    HW233077  14.572   7.038  10.289
77080SOL     OW33078   0.679  14.475   4.001
77080SOL    HW133079   0.677  14.451   4.094
77080SOL    HW233080   0.643  14.399   3.956
77081SOL     OW33081  14.728   1.667   8.372
77081SOL    HW133082  14.788   1.686   8.445
77081SOL    HW233083  14.741   1.740   8.311
77082SOL     OW33084  13.921   5.174   5.138
77082SOL    HW133085  13.946   5.267   5.136
77082SOL    HW233086  13.998   5.130   5.175
77083SOL     OW33087   6.920   2.469   1.339
77083SOL    HW133088   6.896   2.539   1.278
77083SOL    HW233089   6.857   2.476   1.410
77084SOL     OW33090   1.056   3.834   2.067
77084SOL    HW133091   1.148   3.806   2.064
77084SOL    HW233092   1.040   3.853   2.160
77085SOL     OW33093   5.628   6.753  11.466
77085SOL    HW133094   5.606   6.712  11.382
77085SOL    HW233095   5.699   6.699  11.501
77086SOL     OW33096   0.936   4.087  11.322
77086SOL    HW133097   0.854   4.097  11.371
77086SOL    HW233098   0.908   4.079  11.231
77087SOL     OW33099   9.485   6.211   0.299
77087SOL    HW133100   9.466   6.123   0.267
77087SOL    HW233101   9.508   6.199   0.391
77088SOL     OW33102   6.385  11.262   3.542
77088SOL    HW133103   6.293  11.268   3.516
77088SOL    HW233104   6.422  11.194   3.486
77089SOL     OW33105   1.485   5.215  13.146
77089SOL    HW133106   1.518   5.224  13.057
77089SOL    HW233107   1.460   5.123  13.154
77090SOL     OW33108   0.280   5.837   5.199
77090SOL    HW133109   0.346   5.889   5.245
77090SOL    HW233110   0.284   5.867   5.108
77091SOL     OW33111   3.441   3.905   9.904
77091SOL    HW133112   3.439   3.950   9.989
77091SOL    HW233113   3.526   3.860   9.903
77092SOL     OW33114   0.751   2.086   8.648
77092SOL    HW133115   0.820   2.149   8.630
77092SOL    HW233116   0.670   2.134   8.630
77093SOL     OW33117   4.251   9.475  13.080
77093SOL    HW133118   4.289   9.406  13.026
77093SOL    HW233119   4.159   9.449  13.089
77094SOL     OW33120   9.030   7.178  12.498
77094SOL    HW133121   9.012   7.093  12.538
77094SOL    HW233122   8.952   7.197  12.446
77095SOL     OW33123   9.919   7.955  11.637
77095SOL    HW133124   9.893   7.985  11.724
77095SOL    HW233125   9.873   7.872  11.625
77096SOL     OW33126   9.923   8.779   5.191
77096SOL    HW133127   9.895   8.809   5.105
77096SOL    HW233128  10.010   8.817   5.203
77097SOL     OW33129   2.904   1.113   8.970
77097SOL    HW133130   2.819   1.147   8.999
77097SOL    HW233131   2.916   1.033   9.021
77098SOL     OW33132   1.430   8.618   4.980
77098SOL    HW133133   1.390   8.705   4.976
77098SOL    HW233134   1.513   8.631   5.026
77099SOL     OW33135   9.338   6.352   1.630
77099SOL    HW133136   9.355   6.264   1.663
77099SOL    HW233137   9.332   6.406   1.709
77100SOL     OW33138   7.885   0.902  12.247
77100SOL    HW133139   7.892   0.994  12.222
77100SOL    HW233140   7.859   0.903  12.339
77101SOL     OW33141   5.350   2.171   0.863
77101SOL    HW133142   5.281   2.237   0.858
77101SOL    HW233143   5.324   2.116   0.937
77102SOL     OW33144   5.639   8.963   8.600
77102SOL    HW133145   5.688   8.917   8.532
77102SOL    HW233146   5.550   8.930   8.592
77103SOL     OW33147   6.349  11.846  13.957
77103SOL    HW133148   6.430  11.810  13.922
77103SOL    HW233149   6.284  11.777  13.943
77104SOL     OW33150   9.510   3.442  11.852
77104SOL    HW133151   9.446   3.387  11.807
77104SOL    HW233152   9.544   3.500  11.784
77105SOL     OW33153   7.586   9.973  14.719
77105SOL    HW133154   7.656   9.955  14.656
77105SOL    HW233155   7.508   9.934  14.679
77106SOL     OW33156   1.443   4.578  12.447
77106SOL    HW133157   1.360   4.562  12.402
77106SOL    HW233158   1.483   4.650  12.400
77107SOL     OW33159   8.805   9.377  12.975
77107SOL    HW133160   8.850   9.387  13.059
77107SOL    HW233161   8.847   9.440  12.917
77108SOL     OW33162   1.475   7.124  10.368
77108SOL    HW133163   1.504   7.143  10.278
77108SOL    HW233164   1.498   7.031  10.381
77109SOL     OW33165  11.596   4.247   1.041
77109SOL    HW133166  11.643   4.297   1.107
77109SOL    HW233167  11.523   4.206   1.088
77110SOL     OW33168   2.405  13.686   0.380
77110SOL    HW133169   2.440  13.599   0.364
77110SOL    HW233170   2.483  13.741   0.389
77111SOL     OW33171   1.592   0.445   4.440
77111SOL    HW133172   1.645   0.427   4.517
77111SOL    HW233173   1.511   0.482   4.475
77112SOL     OW33174  10.480  10.223   2.434
77112SOL    HW133175  10.512  10.245   2.521
77112SOL    HW233176  10.558  10.222   2.379
77113SOL     OW33177   6.881   3.807  12.239
77113SOL    HW133178   6.821   3.742  12.275
77113SOL    HW233179   6.928   3.840  12.315
77114SOL     OW33180   8.040  10.382  12.886
77114SOL    HW133181   8.034  10.478  12.881
77114SOL    HW233182   8.021  10.362  12.978
77115SOL     OW33183  10.411   8.354  12.355
77115SOL    HW133184  10.452   8.439  12.342
77115SOL    HW233185  10.403   8.317  12.267
77116SOL     OW33186  12.823   0.010   4.853
77116SOL    HW133187  12.908   0.005   4.897
77116SOL    HW233188  12.842  14.865   4.762
77117SOL     OW33189   4.130  10.059  12.997
77117SOL    HW133190   4.078  10.138  12.982
77117SOL    HW233191   4.101   9.998  12.929
77118SOL     OW33192   3.116   4.825   9.985
77118SOL    HW133193   3.175   4.794  10.054
77118SOL    HW233194   3.047   4.759   9.980
77119SOL     OW33195   4.428   8.169  10.751
77119SOL    HW133196   4.513   8.137  10.780
77119SOL    HW233197   4.371   8.157  10.827
77120SOL     OW33198  11.715  11.029  10.921
77120SOL    HW133199  11.737  11.049  11.012
77120SOL    HW233200  11.716  11.114  10.877
77121SOL     OW33201   8.124  10.384  14.481
77121SOL    HW133202   8.148  10.337  14.561
77121SOL    HW233203   8.183  10.459  14.479
77122SOL     OW33204   9.085  14.655   6.425
77122SOL    HW133205   9.079  14.626   6.334
77122SOL    HW233206   9.140  14.733   6.422
77123SOL     OW33207  14.114  14.396  13.288
77123SOL    HW133208  14.163  14.436  13.359
77123SOL    HW233209  14.159  14.314  13.271
77124SOL     OW33210  13.244   9.291   9.380
77124SOL    HW133211  13.337   9.281   9.359
77124SOL    HW233212  13.213   9.202   9.395
77125SOL     OW33213  13.568  13.575   0.195
77125SOL    HW133214  13.616  13.657   0.185
77125SOL    HW233215  13.627  13.518   0.244
77126SOL     OW33216  10.569   2.660   0.837
77126SOL    HW133217  10.604   2.749   0.832
77126SOL    HW233218  10.533   2.653   0.925
77127SOL     OW33219   2.619   4.868   9.076
77127SOL    HW133220   2.527   4.885   9.097
77127SOL    HW233221   2.667   4.895   9.154
77128SOL     OW33222   6.443  13.056   0.425
77128SOL    HW133223   6.473  13.129   0.372
77128SOL    HW233224   6.479  13.073   0.512
77129SOL     OW33225  10.123   3.082   4.743
77129SOL    HW133226  10.079   2.997   4.737
77129SOL    HW233227  10.128   3.113   4.652
77130SOL     OW33228   3.725   5.963  14.112
77130SOL    HW133229   3.757   5.920  14.191
77130SOL    HW233230   3.719   5.894  14.047
77131SOL     OW33231  10.851  12.649  12.497
77131SOL    HW133232  10.944  12.667  12.508
77131SOL    HW233233  10.814  12.731  12.463
77132SOL     OW33234  12.609   2.002   9.076
77132SOL    HW133235  12.629   2.044   9.160
77132SOL    HW233236  12.595   2.075   9.015
77133SOL     OW33237   1.365   7.617  10.691
77133SOL    HW133238   1.297   7.553  10.670
77133SOL    HW233239   1.379   7.606  10.785
77134SOL     OW33240   5.580  14.014   1.190
77134SOL    HW133241   5.643  14.053   1.250
77134SOL    HW233242   5.633  13.969   1.125
77135SOL     OW33243   6.742   6.405  12.852
77135SOL    HW133244   6.714   6.319  12.821
77135SOL    HW233245   6.836   6.408  12.834
77136SOL     OW33246  13.943   3.139   8.602
77136SOL    HW133247  13.990   3.198   8.660
77136SOL    HW233248  13.932   3.188   8.520
77137SOL     OW33249  13.626   4.608   2.063
77137SOL    HW133250  13.656   4.646   2.145
77137SOL    HW233251  13.701   4.618   2.004
77138SOL     OW33252  11.008   9.777   6.618
77138SOL    HW133253  11.031   9.721   6.544
77138SOL    HW233254  10.979   9.715   6.685
77139SOL     OW33255   9.656   5.090  13.686
77139SOL    HW133256   9.636   5.156  13.752
77139SOL    HW233257   9.699   5.140  13.616
77140SOL     OW33258   9.006  11.634   7.981
77140SOL    HW133259   8.981  11.695   7.911
77140SOL    HW233260   9.099  11.651   7.996
77141SOL     OW33261  11.167  14.535   0.136
77141SOL    HW133262  11.102  14.588   0.182
77141SOL    HW233263  11.147  14.445   0.162
77142SOL     OW33264   5.218   1.627  13.398
77142SOL    HW133265   5.187   1.714  13.426
77142SOL    HW233266   5.137   1.577  13.383
77143SOL     OW33267  12.167   6.203   8.349
77143SOL    HW133268  12.215   6.245   8.278
77143SOL    HW233269  12.098   6.265   8.371
77144SOL     OW33270  12.522   8.126   6.933
77144SOL    HW133271  12.535   8.221   6.932
77144SOL    HW233272  12.446   8.112   6.877
77145SOL     OW33273  11.450   6.550   4.664
77145SOL    HW133274  11.456   6.455   4.674
77145SOL    HW233275  11.430   6.563   4.571
77146SOL     OW33276   7.735  10.927  14.212
77146SOL    HW133277   7.786  10.982  14.271
77146SOL    HW233278   7.684  10.870  14.270
77147SOL     OW33279   0.128   1.557   6.336
77147SOL    HW133280   0.171   1.623   6.390
77147SOL    HW233281   0.041   1.548   6.373
77148SOL     OW33282   4.979   8.334  11.738
77148SOL    HW133283   4.971   8.274  11.664
77148SOL    HW233284   5.067   8.370  11.730
77149SOL     OW33285  10.887  14.442  10.158
77149SOL    HW133286  10.978  14.473  10.153
77149SOL    HW233287  10.835  14.516  10.126
77150SOL     OW33288  12.653  11.377   6.864
77150SOL    HW133289  12.574  11.396   6.813
77150SOL    HW233290  12.619  11.339   6.946
77151SOL     OW33291   5.220   1.808   1.362
77151SOL    HW133292   5.146   1.748   1.370
77151SOL    HW233293   5.262   1.783   1.280
77152SOL     OW33294  10.008   8.317  12.527
77152SOL    HW133295   9.914   8.302  12.515
77152SOL    HW233296  10.014   8.379  12.599
77153SOL     OW33297   7.434  12.866   5.434
77153SOL    HW133298   7.348  12.900   5.411
77153SOL    HW233299   7.482  12.944   5.465
77154SOL     OW33300  10.520  10.814   1.921
77154SOL    HW133301  10.532  10.896   1.970
77154SOL    HW233302  10.458  10.836   1.852
77155SOL     OW33303   9.865  12.099   3.399
77155SOL    HW133304   9.931  12.163   3.375
77155SOL    HW233305   9.787  12.125   3.350
77156SOL     OW33306   9.831   2.758   7.034
77156SOL    HW133307   9.772   2.707   6.978
77156SOL    HW233308   9.832   2.710   7.117
77157SOL     OW33309  14.446   5.214   6.155
77157SOL    HW133310  14.475   5.246   6.240
77157SOL    HW233311  14.482   5.126   6.148
77158SOL     OW33312   5.858   2.010   7.115
77158SOL    HW133313   5.855   2.099   7.079
77158SOL    HW233314   5.919   2.016   7.188
77159SOL     OW33315  11.318  10.319  10.220
77159SOL    HW133316  11.230  10.282  10.221
77159SOL    HW233317  11.366  10.264  10.158
77160SOL     OW33318   6.576   0.125   1.052
77160SOL    HW133319   6.649   0.071   1.020
77160SOL    HW233320   6.511   0.121   0.982
77161SOL     OW33321   3.601   2.402   7.998
77161SOL    HW133322   3.587   2.445   8.082
77161SOL    HW233323   3.525   2.429   7.945
77162SOL     OW33324   9.624   1.713   9.760
77162SOL    HW133325   9.670   1.634   9.732
77162SOL    HW233326   9.593   1.694   9.848
77163SOL     OW33327   5.347  10.063   6.397
77163SOL    HW133328   5.332  10.157   6.393
77163SOL    HW233329   5.432  10.054   6.440
77164SOL     OW33330  13.439  10.078  11.486
77164SOL    HW133331  13.423  10.169  11.513
77164SOL    HW233332  13.444  10.082  11.391
77165SOL     OW33333  12.888   5.631  12.734
77165SOL    HW133334  12.861   5.686  12.660
77165SOL    HW233335  12.977   5.658  12.753
77166SOL     OW33336   1.693   6.688  11.709
77166SOL    HW133337   1.737   6.636  11.776
77166SOL    HW233338   1.620   6.633  11.680
77167SOL     OW33339  12.201   0.773  13.451
77167SOL    HW133340  12.179   0.706  13.385
77167SOL    HW233341  12.252   0.726  13.517
77168SOL     OW33342  13.590  13.569  14.801
77168SOL    HW133343  13.685  13.561  14.794
77168SOL    HW233344  13.572  13.552   0.014
77169SOL     OW33345  13.557  14.446   8.789
77169SOL    HW133346  13.574  14.369   8.843
77169SOL    HW233347  13.524  14.411   8.706
77170SOL     OW33348   0.152   6.987  10.127
77170SOL    HW133349   0.152   6.898  10.092
77170SOL    HW233350   0.212   6.984  10.201
77171SOL     OW33351   3.612   1.093   7.683
77171SOL    HW133352   3.557   1.085   7.605
77171SOL    HW233353   3.689   1.040   7.664
77172SOL     OW33354   4.041   4.172   6.269
77172SOL    HW133355   3.966   4.230   6.256
77172SOL    HW233356   4.018   4.122   6.347
77173SOL     OW33357   2.548   6.651  14.210
77173SOL    HW133358   2.459   6.637  14.177
77173SOL    HW233359   2.598   6.677  14.132
77174SOL     OW33360   7.863   3.756   2.147
77174SOL    HW133361   7.801   3.779   2.216
77174SOL    HW233362   7.838   3.667   2.121
77175SOL     OW33363   4.410  13.264  13.568
77175SOL    HW133364   4.353  13.193  13.537
77175SOL    HW233365   4.391  13.337  13.509
77176SOL     OW33366  12.906   4.878   0.567
77176SOL    HW133367  12.986   4.825   0.565
77176SOL    HW233368  12.888   4.891   0.660
77177SOL     OW33369   0.227   7.622  14.410
77177SOL    HW133370   0.300   7.575  14.449
77177SOL    HW233371   0.149   7.577  14.443
77178SOL     OW33372   5.886   6.943  14.451
77178SOL    HW133373   5.844   6.973  14.531
77178SOL    HW233374   5.979   6.960  14.465
77179SOL     OW33375  10.247   0.757  14.568
77179SOL    HW133376  10.204   0.732  14.486
77179SOL    HW233377  10.276   0.847  14.553
77180SOL     OW33378  14.793   4.104   1.136
77180SOL    HW133379  14.701   4.129   1.130
77180SOL    HW233380  14.839   4.169   1.084
77181SOL     OW33381   8.864   3.004   6.790
77181SOL    HW133382   8.828   3.080   6.835
77181SOL    HW233383   8.790   2.966   6.743
77182SOL     OW33384   6.867   8.082   9.081
77182SOL    HW133385   6.852   8.083   9.175
77182SOL    HW233386   6.857   7.990   9.056
77183SOL     OW33387   1.441  14.723  10.234
77183SOL    HW133388   1.522  14.712  10.284
77183SOL    HW233389   1.470  14.746  10.146
77184SOL     OW33390  13.167   9.497   4.941
77184SOL    HW133391  13.122   9.576   4.910
77184SOL    HW233392  13.186   9.447   4.862
77185SOL     OW33393   4.066   5.866  10.422
77185SOL    HW133394   4.004   5.893  10.354
77185SOL    HW233395   4.040   5.916  10.499
77186SOL     OW33396  14.094   5.964  11.000
77186SOL    HW133397  14.045   5.882  11.007
77186SOL    HW233398  14.164   5.945  10.938
77187SOL     OW33399   5.312  13.194   9.832
77187SOL    HW133400   5.251  13.268   9.829
77187SOL    HW233401   5.336  13.186   9.924
77188SOL     OW33402   4.849   9.867   9.680
77188SOL    HW133403   4.907   9.941   9.698
77188SOL    HW233404   4.777   9.877   9.742
77189SOL     OW33405   8.371   1.045  12.001
77189SOL    HW133406   8.382   1.123  12.056
77189SOL    HW233407   8.326   0.982  12.056
77190SOL     OW33408   8.166  13.373  10.205
77190SOL    HW133409   8.118  13.290  10.211
77190SOL    HW233410   8.254  13.351  10.234
77191SOL     OW33411   6.016   8.529   4.621
77191SOL    HW133412   5.960   8.472   4.675
77191SOL    HW233413   6.103   8.520   4.660
77192SOL     OW33414  10.333   0.876   7.129
77192SOL    HW133415  10.249   0.881   7.084
77192SOL    HW233416  10.311   0.882   7.222
77193SOL     OW33417  12.196  10.307   9.034
77193SOL    HW133418  12.123  10.368   9.047
77193SOL    HW233419  12.180  10.237   9.097
77194SOL     OW33420   9.909  12.031   6.575
77194SOL    HW133421   9.966  11.978   6.520
77194SOL    HW233422   9.823  12.024   6.534
77195SOL     OW33423   8.091  13.476  11.758
77195SOL    HW133424   8.017  13.513  11.806
77195SOL    HW233425   8.060  13.471  11.667
77196SOL     OW33426  12.738   1.859   4.721
77196SOL    HW133427  12.688   1.886   4.798
77196SOL    HW233428  12.681   1.795   4.677
77197SOL     OW33429   0.593  12.262   0.157
77197SOL    HW133430   0.570  12.355   0.160
77197SOL    HW233431   0.583  12.237   0.066
77198SOL     OW33432   9.902   3.840  10.555
77198SOL    HW133433   9.876   3.820  10.465
77198SOL    HW233434   9.834   3.899  10.587
77199SOL     OW33435   9.208   2.811   5.860
77199SOL    HW133436   9.215   2.906   5.865
77199SOL    HW233437   9.284   2.778   5.909
77200SOL     OW33438  12.383  12.104   3.574
77200SOL    HW133439  12.375  12.027   3.518
77200SOL    HW233440  12.469  12.141   3.552
77201SOL     OW33441   4.306   0.463  10.870
77201SOL    HW133442   4.215   0.481  10.893
77201SOL    HW233443   4.336   0.402  10.937
77202SOL     OW33444   7.075   3.346  10.920
77202SOL    HW133445   6.988   3.349  10.958
77202SOL    HW233446   7.061   3.360  10.827
77203SOL     OW33447  12.497   6.904   8.167
77203SOL    HW133448  12.484   6.889   8.260
77203SOL    HW233449  12.438   6.976   8.145
77204SOL     OW33450   6.525   8.226  10.163
77204SOL    HW133451   6.467   8.266  10.227
77204SOL    HW233452   6.613   8.235  10.200
77205SOL     OW33453   0.722   7.382  13.592
77205SOL    HW133454   0.745   7.338  13.674
77205SOL    HW233455   0.787   7.452  13.584
77206SOL     OW33456  10.881   3.129   0.819
77206SOL    HW133457  10.883   3.143   0.725
77206SOL    HW233458  10.805   3.179   0.850
77207SOL     OW33459   9.220   9.812  12.362
77207SOL    HW133460   9.239   9.867  12.286
77207SOL    HW233461   9.128   9.827  12.381
77208SOL     OW33462   5.759  14.063  14.161
77208SOL    HW133463   5.781  13.974  14.188
77208SOL    HW233464   5.739  14.108  14.243
77209SOL     OW33465   2.910  12.822   2.453
77209SOL    HW133466   2.913  12.885   2.526
77209SOL    HW233467   2.998  12.826   2.415
77210SOL     OW33468   5.092   9.975   4.160
77210SOL    HW133469   5.016   9.920   4.177
77210SOL    HW233470   5.167   9.916   4.167
77211SOL     OW33471   5.321   5.690   3.286
77211SOL    HW133472   5.287   5.724   3.368
77211SOL    HW233473   5.388   5.626   3.313
77212SOL     OW33474   7.058   3.129   6.503
77212SOL    HW133475   6.968   3.096   6.496
77212SOL    HW233476   7.054   3.217   6.465
77213SOL     OW33477   2.326   3.629   3.320
77213SOL    HW133478   2.382   3.572   3.268
77213SOL    HW233479   2.310   3.579   3.401
77214SOL     OW33480   0.446   3.263  14.230
77214SOL    HW133481   0.463   3.175  14.261
77214SOL    HW233482   0.350   3.268  14.224
77215SOL     OW33483   8.630  12.226   7.693
77215SOL    HW133484   8.673  12.187   7.769
77215SOL    HW233485   8.546  12.180   7.687
77216SOL     OW33486   5.143   5.119   1.818
77216SOL    HW133487   5.176   5.105   1.906
77216SOL    HW233488   5.185   5.050   1.766
77217SOL     OW33489   5.031   4.351   1.742
77217SOL    HW133490   4.986   4.339   1.825
77217SOL    HW233491   5.002   4.278   1.687
77218SOL     OW33492   3.204   7.292   9.550
77218SOL    HW133493   3.234   7.352   9.482
77218SOL    HW233494   3.247   7.323   9.630
77219SOL     OW33495   5.490   3.647   3.031
77219SOL    HW133496   5.568   3.703   3.028
77219SOL    HW233497   5.504   3.591   3.108
77220SOL     OW33498   8.389   2.225   7.643
77220SOL    HW133499   8.466   2.226   7.700
77220SOL    HW233500   8.394   2.140   7.598
77221SOL     OW33501   4.930  13.567   3.656
77221SOL    HW133502   4.993  13.622   3.609
77221SOL    HW233503   4.929  13.601   3.745
77222SOL     OW33504  14.743   1.390   1.860
77222SOL    HW133505  14.667   1.423   1.811
77222SOL    HW233506  14.801   1.354   1.793
77223SOL     OW33507   9.454   7.425   1.937
77223SOL    HW133508   9.493   7.339   1.950
77223SOL    HW233509   9.484   7.477   2.011
77224SOL     OW33510   1.931  14.560   8.390
77224SOL    HW133511   1.854  14.519   8.349
77224SOL    HW233512   1.898  14.639   8.431
77225SOL     OW33513   2.850   1.620   7.173
77225SOL    HW133514   2.829   1.547   7.231
77225SOL    HW233515   2.818   1.698   7.219
77226SOL     OW33516  11.627   2.414   9.111
77226SOL    HW133517  11.606   2.508   9.114
77226SOL    HW233518  11.722   2.410   9.123
77227SOL     OW33519   0.129   8.427   4.712
77227SOL    HW133520   0.049   8.478   4.724
77227SOL    HW233521   0.199   8.491   4.719
77228SOL     OW33522   6.520   6.410  11.867
77228SOL    HW133523   6.589   6.474  11.885
77228SOL    HW233524   6.553   6.359  11.793
77229SOL     OW33525  11.401  14.170   1.060
77229SOL    HW133526  11.334  14.182   0.993
77229SOL    HW233527  11.426  14.259   1.085
77230SOL     OW33528  11.240   6.867   5.818
77230SOL    HW133529  11.312   6.927   5.840
77230SOL    HW233530  11.173   6.885   5.884
77231SOL     OW33531  11.571   4.432   0.278
77231SOL    HW133532  11.526   4.439   0.194
77231SOL    HW233533  11.658   4.401   0.256
77232SOL     OW33534   1.804   9.332   9.294
77232SOL    HW133535   1.731   9.273   9.277
77232SOL    HW233536   1.766   9.420   9.287
77233SOL     OW33537   4.780   2.892  12.517
77233SOL    HW133538   4.789   2.802  12.485
77233SOL    HW233539   4.849   2.900  12.583
77234SOL     OW33540  12.725  10.186  13.848
77234SOL    HW133541  12.711  10.158  13.757
77234SOL    HW233542  12.819  10.199  13.855
77235SOL     OW33543   1.577   3.593   8.553
77235SOL    HW133544   1.641   3.522   8.553
77235SOL    HW233545   1.608   3.653   8.621
77236SOL     OW33546   3.354  10.370   4.641
77236SOL    HW133547   3.431  10.323   4.673
77236SOL    HW233548   3.381  10.462   4.638
77237SOL     OW33549   2.278   2.151  11.631
77237SOL    HW133550   2.265   2.217  11.563
77237SOL    HW233551   2.251   2.195  11.712
77238SOL     OW33552   4.326  11.936   8.538
77238SOL    HW133553   4.358  11.956   8.450
77238SOL    HW233554   4.241  11.981   8.543
77239SOL     OW33555   0.064   5.689   4.553
77239SOL    HW133556   0.128   5.687   4.624
77239SOL    HW233557   0.084   5.769   4.504
77240SOL     OW33558   7.852   9.366   1.050
77240SOL    HW133559   7.871   9.341   0.960
77240SOL    HW233560   7.904   9.445   1.065
77241SOL     OW33561   4.084   8.810   5.513
77241SOL    HW133562   4.009   8.865   5.536
77241SOL    HW233563   4.107   8.766   5.595
77242SOL     OW33564   7.201   4.987   0.602
77242SOL    HW133565   7.172   4.925   0.534
77242SOL    HW233566   7.241   4.932   0.669
77243SOL     OW33567   4.987  10.062  11.995
77243SOL    HW133568   4.960  10.135  12.051
77243SOL    HW233569   5.042  10.008  12.051
77244SOL     OW33570   6.004   3.351   0.490
77244SOL    HW133571   6.009   3.381   0.580
77244SOL    HW233572   5.976   3.259   0.496
77245SOL     OW33573   6.067   0.242  10.388
77245SOL    HW133574   6.093   0.261  10.298
77245SOL    HW233575   6.076   0.325  10.434
77246SOL     OW33576   2.109  13.190   5.225
77246SOL    HW133577   2.191  13.234   5.204
77246SOL    HW233578   2.048  13.261   5.244
77247SOL     OW33579   1.738   5.706   5.356
77247SOL    HW133580   1.703   5.752   5.432
77247SOL    HW233581   1.663   5.697   5.297
77248SOL     OW33582  13.950  10.215   2.806
77248SOL    HW133583  13.913  10.127   2.803
77248SOL    HW233584  13.930  10.252   2.720
77249SOL     OW33585   2.654   1.310   6.163
77249SOL    HW133586   2.634   1.223   6.198
77249SOL    HW233587   2.670   1.294   6.070
77250SOL     OW33588   5.916   2.932   6.182
77250SOL    HW133589   5.907   2.845   6.144
77250SOL    HW233590   5.846   2.984   6.142
77251SOL     OW33591  13.302   4.430  10.735
77251SOL    HW133592  13.392   4.425  10.765
77251SOL    HW233593  13.271   4.516  10.763
77252SOL     OW33594   5.519   1.422  13.631
77252SOL    HW133595   5.488   1.331  13.628
77252SOL    HW233596   5.598   1.421  13.577
77253SOL     OW33597   0.956   8.731  14.511
77253SOL    HW133598   0.918   8.676  14.581
77253SOL    HW233599   1.046   8.746  14.539
77254SOL     OW33600  10.460   7.061   6.363
77254SOL    HW133601  10.372   7.046   6.328
77254SOL    HW233602  10.479   6.983   6.414
77255SOL     OW33603  11.114  12.852  14.829
77255SOL    HW133604  11.121  12.757  14.834
77255SOL    HW233605  11.022  12.869  14.810
77256SOL     OW33606   9.232   9.378  13.313
77256SOL    HW133607   9.188   9.364  13.397
77256SOL    HW233608   9.170   9.429  13.261
77257SOL     OW33609  14.310   4.590   5.283
77257SOL    HW133610  14.257   4.531   5.229
77257SOL    HW233611  14.390   4.603   5.233
77258SOL     OW33612   4.710   8.275   4.323
77258SOL    HW133613   4.684   8.189   4.289
77258SOL    HW233614   4.628   8.324   4.330
77259SOL     OW33615   2.963  14.746  13.680
77259SOL    HW133616   2.877  14.703  13.676
77259SOL    HW233617   3.026  14.675  13.672
77260SOL     OW33618   4.520   0.602   2.293
77260SOL    HW133619   4.580   0.660   2.342
77260SOL    HW233620   4.560   0.516   2.300
77261SOL     OW33621   8.563   0.278  10.101
77261SOL    HW133622   8.596   0.245  10.185
77261SOL    HW233623   8.599   0.217  10.036
77262SOL     OW33624   0.254   6.147   8.371
77262SOL    HW133625   0.195   6.165   8.445
77262SOL    HW233626   0.337   6.187   8.397
77263SOL     OW33627  14.299  12.684   5.158
77263SOL    HW133628  14.208  12.670   5.185
77263SOL    HW233629  14.293  12.733   5.076
77264SOL     OW33630   8.562  13.881  14.014
77264SOL    HW133631   8.642  13.829  14.008
77264SOL    HW233632   8.547  13.912  13.925
77265SOL     OW33633   0.954   7.496   4.905
77265SOL    HW133634   0.884   7.506   4.840
77265SOL    HW233635   1.026   7.549   4.871
77266SOL     OW33636   1.758   4.146  13.726
77266SOL    HW133637   1.777   4.072  13.784
77266SOL    HW233638   1.778   4.223  13.779
77267SOL     OW33639  11.220   3.042   9.298
77267SOL    HW133640  11.287   2.977   9.320
77267SOL    HW233641  11.155   3.033   9.367
77268SOL     OW33642   2.313   9.266   1.841
77268SOL    HW133643   2.294   9.296   1.752
77268SOL    HW233644   2.280   9.336   1.897
77269SOL     OW33645   5.508  13.342   1.330
77269SOL    HW133646   5.548  13.255   1.330
77269SOL    HW233647   5.502  13.365   1.423
77270SOL     OW33648   7.040   0.057   4.403
77270SOL    HW133649   6.963   0.068   4.458
77270SOL    HW233650   7.006   0.031   4.318
77271SOL     OW33651   0.906   8.232  13.356
77271SOL    HW133652   0.885   8.205  13.445
77271SOL    HW233653   1.000   8.217  13.347
77272SOL     OW33654  14.337   2.420  13.101
77272SOL    HW133655  14.372   2.460  13.181
77272SOL    HW233656  14.255   2.380  13.128
77273SOL     OW33657  10.601   7.476  10.891
77273SOL    HW133658  10.532   7.471  10.956
77273SOL    HW233659  10.626   7.385  10.875
77274SOL     OW33660   0.815  14.730   6.855
77274SOL    HW133661   0.842  14.695   6.940
77274SOL    HW233662   0.739  14.677   6.831
77275SOL     OW33663  11.320   9.179  11.919
77275SOL    HW133664  11.255   9.118  11.883
77275SOL    HW233665  11.269   9.239  11.973
77276SOL     OW33666  10.390  12.014  10.906
77276SOL    HW133667  10.449  11.975  10.842
77276SOL    HW233668  10.428  11.991  10.991
77277SOL     OW33669   4.451   5.891  14.137
77277SOL    HW133670   4.429   5.973  14.094
77277SOL    HW233671   4.534   5.908  14.182
77278SOL     OW33672   7.773   3.762   7.774
77278SOL    HW133673   7.714   3.730   7.842
77278SOL    HW233674   7.846   3.700   7.773
77279SOL     OW33675   4.090  10.603   8.339
77279SOL    HW133676   4.049  10.670   8.393
77279SOL    HW233677   4.149  10.557   8.399
77280SOL     OW33678  11.719   5.361  10.687
77280SOL    HW133679  11.656   5.290  10.695
77280SOL    HW233680  11.697   5.421  10.758
77281SOL     OW33681   1.568   8.854   5.870
77281SOL    HW133682   1.565   8.764   5.838
77281SOL    HW233683   1.494   8.861   5.930
77282SOL     OW33684   1.269   5.558  11.596
77282SOL    HW133685   1.175   5.567  11.610
77282SOL    HW233686   1.299   5.647  11.578
77283SOL     OW33687   2.744   0.375   7.345
77283SOL    HW133688   2.741   0.279   7.342
77283SOL    HW233689   2.737   0.402   7.253
77284SOL     OW33690   3.756   6.770   9.613
77284SOL    HW133691   3.792   6.698   9.666
77284SOL    HW233692   3.685   6.729   9.564
77285SOL     OW33693   0.854  11.990   9.858
77285SOL    HW133694   0.947  11.982   9.879
77285SOL    HW233695   0.828  12.073   9.898
77286SOL     OW33696   6.160   6.444  13.681
77286SOL    HW133697   6.148   6.428  13.588
77286SOL    HW233698   6.252   6.423  13.697
77287SOL     OW33699   4.545   8.713   6.907
77287SOL    HW133700   4.572   8.637   6.855
77287SOL    HW233701   4.535   8.679   6.996
77288SOL     OW33702  10.172   3.674  13.684
77288SOL    HW133703  10.160   3.768  13.667
77288SOL    HW233704  10.267   3.665  13.696
77289SOL     OW33705  12.951   5.850  13.879
77289SOL    HW133706  12.970   5.926  13.935
77289SOL    HW233707  12.865   5.870  13.841
77290SOL     OW33708  11.329   5.947   9.778
77290SOL    HW133709  11.378   5.866   9.762
77290SOL    HW233710  11.238   5.925   9.757
77291SOL     OW33711   4.003   3.291   8.754
77291SOL    HW133712   3.942   3.276   8.827
77291SOL    HW233713   3.967   3.368   8.709
77292SOL     OW33714   6.099  13.987   8.258
77292SOL    HW133715   6.142  14.027   8.334
77292SOL    HW233716   6.008  13.978   8.284
77293SOL     OW33717   7.061   8.404   1.871
77293SOL    HW133718   7.099   8.462   1.805
77293SOL    HW233719   7.083   8.315   1.841
77294SOL     OW33720  10.922   3.383   6.441
77294SOL    HW133721  10.845   3.327   6.451
77294SOL    HW233722  10.955   3.394   6.531
77295SOL     OW33723   8.851   9.986  11.593
77295SOL    HW133724   8.906   9.926  11.543
77295SOL    HW233725   8.872  10.073  11.558
77296SOL     OW33726   5.919   2.396   8.688
77296SOL    HW133727   5.974   2.341   8.743
77296SOL    HW233728   5.882   2.461   8.748
77297SOL     OW33729   5.835   7.104  10.588
77297SOL    HW133730   5.785   7.024  10.572
77297SOL    HW233731   5.926   7.075  10.594
77298SOL     OW33732   9.372   6.249  12.665
77298SOL    HW133733   9.400   6.313  12.730
77298SOL    HW233734   9.317   6.299  12.605
77299SOL     OW33735   4.359  13.907  12.997
77299SOL    HW133736   4.295  13.968  13.032
77299SOL    HW233737   4.438  13.923  13.048
77300SOL     OW33738   1.119   8.647   2.124
77300SOL    HW133739   1.064   8.606   2.058
77300SOL    HW233740   1.151   8.575   2.178
77301SOL     OW33741   3.151   6.289   7.565
77301SOL    HW133742   3.100   6.215   7.600
77301SOL    HW233743   3.242   6.267   7.584
77302SOL     OW33744  13.487  13.310   8.063
77302SOL    HW133745  13.400  13.274   8.047
77302SOL    HW233746  13.491  13.324   8.158
77303SOL     OW33747   4.649   9.594   5.114
77303SOL    HW133748   4.706   9.667   5.140
77303SOL    HW233749   4.710   9.526   5.083
77304SOL     OW33750  10.886   5.974   1.755
77304SOL    HW133751  10.962   6.013   1.799
77304SOL    HW233752  10.810   6.014   1.798
77305SOL     OW33753  12.846   1.439   2.030
77305SOL    HW133754  12.752   1.455   2.024
77305SOL    HW233755  12.863   1.370   1.965
77306SOL     OW33756   0.462  10.727   1.223
77306SOL    HW133757   0.503  10.676   1.292
77306SOL    HW233758   0.535  10.771   1.179
77307SOL     OW33759  13.412  12.425   0.812
77307SOL    HW133760  13.423  12.503   0.758
77307SOL    HW233761  13.410  12.459   0.902
77308SOL     OW33762   6.060   8.931  12.263
77308SOL    HW133763   6.084   8.855  12.210
77308SOL    HW233764   6.111   8.921  12.344
77309SOL     OW33765   3.298  12.521   5.601
77309SOL    HW133766   3.390  12.530   5.627
77309SOL    HW233767   3.298  12.535   5.506
77310SOL     OW33768  10.330  14.031   1.728
77310SOL    HW133769  10.264  14.002   1.790
77310SOL    HW233770  10.403  13.971   1.741
77311SOL     OW33771   7.218  14.206  13.662
77311SOL    HW133772   7.162  14.178  13.590
77311SOL    HW233773   7.215  14.133  13.724
77312SOL     OW33774  10.175  11.756   0.334
77312SOL    HW133775  10.216  11.786   0.253
77312SOL    HW233776  10.191  11.661   0.335
77313SOL     OW33777   4.720   7.984   3.928
77313SOL    HW133778   4.711   8.027   4.013
77313SOL    HW233779   4.757   8.052   3.871
77314SOL     OW33780  10.999  13.750   1.321
77314SOL    HW133781  11.001  13.671   1.267
77314SOL    HW233782  11.033  13.721   1.406
77315SOL     OW33783  13.637   3.087   4.517
77315SOL    HW133784  13.685   3.125   4.443
77315SOL    HW233785  13.546   3.089   4.490
77316SOL     OW33786   6.917  10.020   2.699
77316SOL    HW133787   6.911   9.935   2.655
77316SOL    HW233788   6.840  10.022   2.757
77317SOL     OW33789  12.052   1.244   5.943
77317SOL    HW133790  12.092   1.321   5.985
77317SOL    HW233791  11.978   1.280   5.894
77318SOL     OW33792   8.616   2.619   1.818
77318SOL    HW133793   8.651   2.702   1.786
77318SOL    HW233794   8.522   2.633   1.826
77319SOL     OW33795   8.499   2.909   4.589
77319SOL    HW133796   8.530   2.952   4.668
77319SOL    HW233797   8.522   2.968   4.517
77320SOL     OW33798   9.594   0.867  11.218
77320SOL    HW133799   9.651   0.790  11.220
77320SOL    HW233800   9.651   0.939  11.245
77321SOL     OW33801   9.106   4.317   8.491
77321SOL    HW133802   9.171   4.333   8.560
77321SOL    HW233803   9.133   4.374   8.419
77322SOL     OW33804   1.955   9.924   0.435
77322SOL    HW133805   1.883   9.911   0.373
77322SOL    HW233806   2.029   9.879   0.394
77323SOL     OW33807   4.901   2.597  11.045
77323SOL    HW133808   4.980   2.641  11.077
77323SOL    HW233809   4.835   2.666  11.042
77324SOL     OW33810   4.115   6.275  14.066
77324SOL    HW133811   4.030   6.253  14.105
77324SOL    HW233812   4.149   6.191  14.035
77325SOL     OW33813   5.959   9.315  12.064
77325SOL    HW133814   5.972   9.410  12.072
77325SOL    HW233815   5.886   9.307  12.003
77326SOL     OW33816  11.045   3.338   8.948
77326SOL    HW133817  11.058   3.259   9.000
77326SOL    HW233818  11.053   3.310   8.858
77327SOL     OW33819   5.379   8.646   9.381
77327SOL    HW133820   5.456   8.591   9.392
77327SOL    HW233821   5.308   8.584   9.364
77328SOL     OW33822   7.750   2.943   0.171
77328SOL    HW133823   7.664   2.935   0.129
77328SOL    HW233824   7.768   2.856   0.205
77329SOL     OW33825   3.548  10.947   5.897
77329SOL    HW133826   3.640  10.922   5.897
77329SOL    HW233827   3.501  10.864   5.903
77330SOL     OW33828  14.855   9.239  11.835
77330SOL    HW133829  14.865   9.198  11.921
77330SOL    HW233830   0.058   9.223  11.790
77331SOL     OW33831   7.593   4.868   4.907
77331SOL    HW133832   7.554   4.785   4.934
77331SOL    HW233833   7.621   4.909   4.989
77332SOL     OW33834  12.374  10.014  10.738
77332SOL    HW133835  12.353   9.969  10.820
77332SOL    HW233836  12.293  10.010  10.688
77333SOL     OW33837  12.193  12.063   6.389
77333SOL    HW133838  12.183  12.157   6.405
77333SOL    HW233839  12.224  12.027   6.472
77334SOL     OW33840   0.089   4.752   2.279
77334SOL    HW133841   0.014   4.798   2.317
77334SOL    HW233842   0.060   4.661   2.272
77335SOL     OW33843  13.010   3.225  10.723
77335SOL    HW133844  13.039   3.138  10.748
77335SOL    HW233845  13.037   3.235  10.632
77336SOL     OW33846   7.271  10.309  13.557
77336SOL    HW133847   7.357  10.315  13.516
77336SOL    HW233848   7.281  10.241  13.623
77337SOL     OW33849   7.590   1.521   1.634
77337SOL    HW133850   7.595   1.429   1.609
77337SOL    HW233851   7.678   1.556   1.615
77338SOL     OW33852   7.141   1.383   2.840
77338SOL    HW133853   7.069   1.337   2.883
77338SOL    HW233854   7.100   1.461   2.802
77339SOL     OW33855   7.029   5.538  12.305
77339SOL    HW133856   6.956   5.580  12.351
77339SOL    HW233857   7.081   5.498  12.375
77340SOL     OW33858  10.368  11.108   4.955
77340SOL    HW133859  10.315  11.029   4.945
77340SOL    HW233860  10.332  11.152   5.032
77341SOL     OW33861   0.029  11.875   6.766
77341SOL    HW133862  14.817  11.845   6.760
77341SOL    HW233863   0.035  11.946   6.703
77342SOL     OW33864   5.868  12.392   4.752
77342SOL    HW133865   5.836  12.387   4.662
77342SOL    HW233866   5.794  12.362   4.805
77343SOL     OW33867   1.042  11.602   8.436
77343SOL    HW133868   1.049  11.581   8.529
77343SOL    HW233869   1.003  11.690   8.434
77344SOL     OW33870   7.368   7.913   7.211
77344SOL    HW133871   7.359   8.007   7.227
77344SOL    HW233872   7.452   7.889   7.251
77345SOL     OW33873   4.099  10.027   2.879
77345SOL    HW133874   4.120   9.936   2.860
77345SOL    HW233875   4.161  10.053   2.947
77346SOL     OW33876   9.534   0.612  13.301
77346SOL    HW133877   9.513   0.528  13.261
77346SOL    HW233878   9.495   0.608  13.388
77347SOL     OW33879   7.148   7.584   1.592
77347SOL    HW133880   7.119   7.498   1.623
77347SOL    HW233881   7.069   7.639   1.598
77348SOL     OW33882   9.684  12.557   5.441
77348SOL    HW133883   9.667  12.651   5.447
77348SOL    HW233884   9.672  12.525   5.530
77349SOL     OW33885  12.657   0.046  11.801
77349SOL    HW133886  12.659   0.132  11.843
77349SOL    HW233887  12.604   0.060  11.722
77350SOL     OW33888   2.149  14.761   5.276
77350SOL    HW133889   2.182  14.672   5.279
77350SOL    HW233890   2.117  14.778   5.364
77351SOL     OW33891   5.405   1.605  13.115
77351SOL    HW133892   5.355   1.564  13.185
77351SOL    HW233893   5.339   1.655  13.066
77352SOL     OW33894   8.004  12.840   9.814
77352SOL    HW133895   8.059  12.800   9.881
77352SOL    HW233896   7.936  12.886   9.862
77353SOL     OW33897   8.894   7.474  14.855
77353SOL    HW133898   8.822   7.410  14.856
77353SOL    HW233899   8.928   7.473   0.066
77354SOL     OW33900   1.229   7.340  10.424
77354SOL    HW133901   1.178   7.377  10.496
77354SOL    HW233902   1.281   7.270  10.464
77355SOL     OW33903   9.035  11.497  11.925
77355SOL    HW133904   8.975  11.439  11.972
77355SOL    HW233905   9.003  11.585  11.943
77356SOL     OW33906  10.773  11.388   2.302
77356SOL    HW133907  10.841  11.399   2.368
77356SOL    HW233908  10.692  11.376   2.352
77357SOL     OW33909   2.579  13.108   4.797
77357SOL    HW133910   2.620  13.023   4.814
77357SOL    HW233911   2.603  13.162   4.872
77358SOL     OW33912   8.724  10.486   0.870
77358SOL    HW133913   8.749  10.437   0.792
77358SOL    HW233914   8.738  10.425   0.942
77359SOL     OW33915   4.511   8.482   4.008
77359SOL    HW133916   4.500   8.387   4.000
77359SOL    HW233917   4.601   8.493   4.038
77360SOL     OW33918  13.566   5.056   6.269
77360SOL    HW133919  13.575   5.025   6.359
77360SOL    HW233920  13.473   5.077   6.260
77361SOL     OW33921   8.954  12.242   8.427
77361SOL    HW133922   8.967  12.147   8.435
77361SOL    HW233923   8.881  12.261   8.486
77362SOL     OW33924  12.574   1.501   4.970
77362SOL    HW133925  12.518   1.467   5.039
77362SOL    HW233926  12.514   1.547   4.911
77363SOL     OW33927   5.419   8.814   7.481
77363SOL    HW133928   5.342   8.871   7.472
77363SOL    HW233929   5.461   8.817   7.395
77364SOL     OW33930   8.654  12.136   4.579
77364SOL    HW133931   8.616  12.061   4.624
77364SOL    HW233932   8.585  12.166   4.519
77365SOL     OW33933   7.551  10.748   6.557
77365SOL    HW133934   7.635  10.719   6.524
77365SOL    HW233935   7.491  10.741   6.482
77366SOL     OW33936  10.484   0.981  14.499
77366SOL    HW133937  10.564   1.027  14.476
77366SOL    HW233938  10.471   1.001  14.592
77367SOL     OW33939   6.479  10.388   3.357
77367SOL    HW133940   6.514  10.473   3.327
77367SOL    HW233941   6.556  10.332   3.363
77368SOL     OW33942   1.999  11.427   1.996
77368SOL    HW133943   1.912  11.408   1.960
77368SOL    HW233944   2.060  11.383   1.937
77369SOL     OW33945  12.646   3.359   8.562
77369SOL    HW133946  12.623   3.273   8.525
77369SOL    HW233947  12.726   3.384   8.516
77370SOL     OW33948   7.774   1.431   6.537
77370SOL    HW133949   7.768   1.499   6.470
77370SOL    HW233950   7.690   1.434   6.583
77371SOL     OW33951   4.919   5.453   5.504
77371SOL    HW133952   4.939   5.546   5.518
77371SOL    HW233953   4.907   5.417   5.593
77372SOL     OW33954  10.896   3.922   5.719
77372SOL    HW133955  10.883   3.836   5.759
77372SOL    HW233956  10.809   3.962   5.718
77373SOL     OW33957   5.837  11.089   3.994
77373SOL    HW133958   5.755  11.052   4.026
77373SOL    HW233959   5.905  11.035   4.035
77374SOL     OW33960   5.388   3.043   7.905
77374SOL    HW133961   5.409   2.975   7.841
77374SOL    HW233962   5.303   3.076   7.878
77375SOL     OW33963   5.044   4.861  12.940
77375SOL    HW133964   5.053   4.769  12.915
77375SOL    HW233965   5.030   4.860  13.034
77376SOL     OW33966  12.488   0.917  10.264
77376SOL    HW133967  12.556   0.859  10.299
77376SOL    HW233968  12.534   0.975  10.204
77377SOL     OW33969   1.177   0.157  12.820
77377SOL    HW133970   1.101   0.213  12.831
77377SOL    HW233971   1.240   0.187  12.886
77378SOL     OW33972   7.065   7.470   9.880
77378SOL    HW133973   7.138   7.489   9.820
77378SOL    HW233974   7.001   7.539   9.863
77379SOL     OW33975  12.912   6.429   3.323
77379SOL    HW133976  12.948   6.481   3.251
77379SOL    HW233977  12.982   6.367   3.345
77380SOL     OW33978  14.357   2.028   4.391
77380SOL    HW133979  14.341   1.945   4.347
77380SOL    HW233980  14.273   2.050   4.433
77381SOL     OW33981  11.335   9.817   3.356
77381SOL    HW133982  11.341   9.776   3.269
77381SOL    HW233983  11.379   9.755   3.414
77382SOL     OW33984  12.448   2.578  13.058
77382SOL    HW133985  12.352   2.586  13.055
77382SOL    HW233986  12.467   2.547  13.146
77383SOL     OW33987  13.224   8.798   3.167
77383SOL    HW133988  13.156   8.733   3.148
77383SOL    HW233989  13.184   8.856   3.232
77384SOL     OW33990  11.933   4.246   8.934
77384SOL    HW133991  11.845   4.212   8.917
77384SOL    HW233992  11.984   4.218   8.858
77385SOL     OW33993   3.787   7.093  11.568
77385SOL    HW133994   3.805   7.146  11.491
77385SOL    HW233995   3.692   7.095  11.578
77386SOL     OW33996   4.805   9.085   9.486
77386SOL    HW133997   4.827   9.173   9.456
77386SOL    HW233998   4.721   9.066   9.444
77387SOL     OW33999   0.946  13.198   7.133
77387SOL    HW134000   0.931  13.249   7.053
77387SOL    HW234001   0.863  13.205   7.181
77388SOL     OW34002   6.283   7.917  13.722
77388SOL    HW134003   6.358   7.896  13.777
77388SOL    HW234004   6.243   7.833  13.702
77389SOL     OW34005   8.610   4.851   1.151
77389SOL    HW134006   8.679   4.795   1.116
77389SOL    HW234007   8.546   4.858   1.079
77390SOL     OW34008   5.056   6.355  12.781
77390SOL    HW134009   5.005   6.435  12.778
77390SOL    HW234010   5.119   6.363  12.709
77391SOL     OW34011   7.432  11.062   9.880
77391SOL    HW134012   7.412  11.143   9.927
77391SOL    HW234013   7.496  11.018   9.935
77392SOL     OW34014  13.732   5.369   6.009
77392SOL    HW134015  13.759   5.448   5.963
77392SOL    HW234016  13.654   5.395   6.057
77393SOL     OW34017   1.504  11.452   9.197
77393SOL    HW134018   1.553  11.424   9.274
77393SOL    HW234019   1.425  11.399   9.198
77394SOL     OW34020   5.059   8.632  13.306
77394SOL    HW134021   5.053   8.543  13.340
77394SOL    HW234022   5.152   8.651  13.306
77395SOL     OW34023   6.356  13.587   2.409
77395SOL    HW134024   6.284  13.574   2.347
77395SOL    HW234025   6.318  13.571   2.495
77396SOL     OW34026   4.150  12.190   3.406
77396SOL    HW134027   4.121  12.118   3.349
77396SOL    HW234028   4.095  12.264   3.379
77397SOL     OW34029   3.775  14.488   3.814
77397SOL    HW134030   3.788  14.562   3.755
77397SOL    HW234031   3.706  14.517   3.874
77398SOL     OW34032  14.682   7.057   6.711
77398SOL    HW134033  14.750   6.994   6.685
77398SOL    HW234034  14.725   7.142   6.705
77399SOL     OW34035  11.931   1.223  13.484
77399SOL    HW134036  11.993   1.155  13.457
77399SOL    HW234037  11.956   1.243  13.575
77400SOL     OW34038   4.866   4.801   5.772
77400SOL    HW134039   4.818   4.732   5.817
77400SOL    HW234040   4.884   4.766   5.685
77401SOL     OW34041  14.316   7.880   8.856
77401SOL    HW134042  14.335   7.957   8.910
77401SOL    HW234043  14.395   7.867   8.803
77402SOL     OW34044   0.218   6.695   5.198
77402SOL    HW134045   0.180   6.731   5.118
77402SOL    HW234046   0.144   6.658   5.246
77403SOL     OW34047  11.410   8.423  11.983
77403SOL    HW134048  11.457   8.462  11.909
77403SOL    HW234049  11.396   8.495  12.044
77404SOL     OW34050   7.570   4.877   8.946
77404SOL    HW134051   7.517   4.954   8.966
77404SOL    HW234052   7.650   4.912   8.907
77405SOL     OW34053   2.415  14.863  13.969
77405SOL    HW134054   2.500  14.825  13.947
77405SOL    HW234055   2.401  14.838  14.061
77406SOL     OW34056   2.533  11.495   6.349
77406SOL    HW134057   2.560  11.559   6.415
77406SOL    HW234058   2.442  11.473   6.373
77407SOL     OW34059   8.281   7.975   1.046
77407SOL    HW134060   8.321   7.921   0.978
77407SOL    HW234061   8.354   8.024   1.084
77408SOL     OW34062   2.974   6.196   4.624
77408SOL    HW134063   2.962   6.255   4.699
77408SOL    HW234064   2.898   6.138   4.626
77409SOL     OW34065   4.801   9.346   3.659
77409SOL    HW134066   4.862   9.319   3.590
77409SOL    HW234067   4.798   9.271   3.718
77410SOL     OW34068  10.031  12.986   6.406
77410SOL    HW134069  10.080  12.904   6.396
77410SOL    HW234070  10.078  13.049   6.351
77411SOL     OW34071  13.735   1.467   7.255
77411SOL    HW134072  13.806   1.406   7.272
77411SOL    HW234073  13.757   1.545   7.305
77412SOL     OW34074   3.533   0.494   8.399
77412SOL    HW134075   3.498   0.511   8.486
77412SOL    HW234076   3.475   0.427   8.362
77413SOL     OW34077  10.908   6.761   7.195
77413SOL    HW134078  10.951   6.692   7.144
77413SOL    HW234079  10.979   6.820   7.221
77414SOL     OW34080  14.692  12.879   0.275
77414SOL    HW134081  14.598  12.897   0.283
77414SOL    HW234082  14.725  12.884   0.365
77415SOL     OW34083   5.710   6.990   0.374
77415SOL    HW134084   5.751   6.943   0.447
77415SOL    HW234085   5.619   6.958   0.374
77416SOL     OW34086   7.896  13.953   1.466
77416SOL    HW134087   7.828  13.902   1.510
77416SOL    HW234088   7.910  14.029   1.523
77417SOL     OW34089   5.519   9.266   6.643
77417SOL    HW134090   5.434   9.265   6.688
77417SOL    HW234091   5.581   9.235   6.709
77418SOL     OW34092   5.534   4.875   5.836
77418SOL    HW134093   5.554   4.844   5.924
77418SOL    HW234094   5.475   4.949   5.849
77419SOL     OW34095   7.090   0.437  10.074
77419SOL    HW134096   7.119   0.526  10.055
77419SOL    HW234097   7.139   0.383  10.012
77420SOL     OW34098   3.332   7.645  12.625
77420SOL    HW134099   3.420   7.649  12.586
77420SOL    HW234100   3.341   7.585  12.699
77421SOL     OW34101   1.041  12.585   9.466
77421SOL    HW134102   1.104  12.541   9.409
77421SOL    HW234103   1.070  12.676   9.468
77422SOL     OW34104   3.270   5.351  14.320
77422SOL    HW134105   3.317   5.424  14.280
77422SOL    HW234106   3.312   5.340  14.405
77423SOL     OW34107   8.824   3.635   8.668
77423SOL    HW134108   8.911   3.656   8.633
77423SOL    HW234109   8.763   3.664   8.600
77424SOL     OW34110   6.097   6.585   8.897
77424SOL    HW134111   6.102   6.516   8.962
77424SOL    HW234112   6.135   6.546   8.818
77425SOL     OW34113   6.979  14.467  14.134
77425SOL    HW134114   7.053  14.506  14.179
77425SOL    HW234115   6.977  14.511  14.049
77426SOL     OW34116  13.908  13.911  11.902
77426SOL    HW134117  13.830  13.932  11.954
77426SOL    HW234118  13.970  13.874  11.966
77427SOL     OW34119   6.001   5.441  12.875
77427SOL    HW134120   5.999   5.358  12.923
77427SOL    HW234121   6.014   5.508  12.942
77428SOL     OW34122   6.858   1.543   1.771
77428SOL    HW134123   6.913   1.569   1.845
77428SOL    HW234124   6.769   1.559   1.800
77429SOL     OW34125   6.491  11.422  11.639
77429SOL    HW134126   6.509  11.427  11.546
77429SOL    HW234127   6.541  11.346  11.669
77430SOL     OW34128   2.303   5.438   1.184
77430SOL    HW134129   2.214   5.448   1.150
77430SOL    HW234130   2.341   5.369   1.130
77431SOL     OW34131   0.936   7.801  14.795
77431SOL    HW134132   1.021   7.832  14.764
77431SOL    HW234133   0.938   7.707  14.782
77432SOL     OW34134   7.065   8.243   3.508
77432SOL    HW134135   7.110   8.285   3.581
77432SOL    HW234136   7.018   8.314   3.464
77433SOL     OW34137   8.358   7.245  13.416
77433SOL    HW134138   8.343   7.200  13.332
77433SOL    HW234139   8.380   7.335  13.391
77434SOL     OW34140   4.732   8.816   5.410
77434SOL    HW134141   4.804   8.802   5.471
77434SOL    HW234142   4.773   8.817   5.324
77435SOL     OW34143  12.634   3.337   9.139
77435SOL    HW134144  12.650   3.428   9.113
77435SOL    HW234145  12.718   3.293   9.124
77436SOL     OW34146   8.283  14.398   7.870
77436SOL    HW134147   8.349  14.426   7.934
77436SOL    HW234148   8.213  14.359   7.924
77437SOL     OW34149  10.115  12.945   2.435
77437SOL    HW134150  10.032  12.925   2.477
77437SOL    HW234151  10.162  12.861   2.433
77438SOL     OW34152   7.261  11.166   4.599
77438SOL    HW134153   7.192  11.099   4.603
77438SOL    HW234154   7.224  11.235   4.544
77439SOL     OW34155  14.280   8.031   0.437
77439SOL    HW134156  14.261   7.938   0.450
77439SOL    HW234157  14.313   8.061   0.522
77440SOL     OW34158   6.079   1.866   3.254
77440SOL    HW134159   6.156   1.830   3.299
77440SOL    HW234160   6.016   1.882   3.325
77441SOL     OW34161  13.036   3.215   6.838
77441SOL    HW134162  12.959   3.217   6.780
77441SOL    HW234163  13.006   3.258   6.918
77442SOL     OW34164   5.342  14.378   8.384
77442SOL    HW134165   5.382  14.420   8.460
77442SOL    HW234166   5.262  14.337   8.418
77443SOL     OW34167   6.792   0.769   6.258
77443SOL    HW134168   6.697   0.777   6.253
77443SOL    HW234169   6.825   0.845   6.209
77444SOL     OW34170   9.863   7.007   1.900
77444SOL    HW134171   9.912   7.048   1.970
77444SOL    HW234172   9.852   6.916   1.927
77445SOL     OW34173  10.406   9.446   4.800
77445SOL    HW134174  10.334   9.508   4.804
77445SOL    HW234175  10.373   9.374   4.745
77446SOL     OW34176  10.198   1.460   8.504
77446SOL    HW134177  10.241   1.537   8.468
77446SOL    HW234178  10.155   1.418   8.430
77447SOL     OW34179   9.238  12.741   3.546
77447SOL    HW134180   9.205  12.807   3.607
77447SOL    HW234181   9.221  12.778   3.459
77448SOL     OW34182   7.436   0.957   8.218
77448SOL    HW134183   7.355   0.971   8.170
77448SOL    HW234184   7.412   0.969   8.310
77449SOL     OW34185   3.856   7.092   7.326
77449SOL    HW134186   3.764   7.114   7.338
77449SOL    HW234187   3.884   7.057   7.410
77450SOL     OW34188   6.598  13.456   1.127
77450SOL    HW134189   6.614  13.363   1.115
77450SOL    HW234190   6.685  13.494   1.146
77451SOL     OW34191   4.387  13.792   6.677
77451SOL    HW134192   4.406  13.804   6.770
77451SOL    HW234193   4.462  13.743   6.644
77452SOL     OW34194   9.526   3.918   5.781
77452SOL    HW134195   9.455   3.962   5.734
77452SOL    HW234196   9.569   3.864   5.715
77453SOL     OW34197  13.990   8.816   1.944
77453SOL    HW134198  13.932   8.852   2.011
77453SOL    HW234199  13.933   8.763   1.888
77454SOL     OW34200   3.819  13.778   7.174
77454SOL    HW134201   3.752  13.731   7.224
77454SOL    HW234202   3.801  13.755   7.083
77455SOL     OW34203  14.534   4.208  12.053
77455SOL    HW134204  14.576   4.261  12.121
77455SOL    HW234205  14.458   4.169  12.097
77456SOL     OW34206   5.390  10.161   9.050
77456SOL    HW134207   5.329  10.235   9.055
77456SOL    HW234208   5.389  10.123   9.138
77457SOL     OW34209   1.302   0.543  13.114
77457SOL    HW134210   1.345   0.591  13.185
77457SOL    HW234211   1.311   0.600  13.037
77458SOL     OW34212   0.393   9.335   0.423
77458SOL    HW134213   0.321   9.373   0.373
77458SOL    HW234214   0.468   9.338   0.363
77459SOL     OW34215   8.923  14.237   1.915
77459SOL    HW134216   8.881  14.315   1.952
77459SOL    HW234217   8.962  14.268   1.833
77460SOL     OW34218  13.497   6.182   8.582
77460SOL    HW134219  13.506   6.135   8.499
77460SOL    HW234220  13.570   6.243   8.584
77461SOL     OW34221   4.127  11.637  12.401
77461SOL    HW134222   4.209  11.649  12.448
77461SOL    HW234223   4.110  11.543  12.405
77462SOL     OW34224   7.830   1.820   2.824
77462SOL    HW134225   7.781   1.740   2.843
77462SOL    HW234226   7.764   1.883   2.796
77463SOL     OW34227   3.360  12.832   4.162
77463SOL    HW134228   3.394  12.826   4.073
77463SOL    HW234229   3.270  12.862   4.151
77464SOL     OW34230  10.178  11.176   3.243
77464SOL    HW134231  10.121  11.240   3.199
77464SOL    HW234232  10.194  11.214   3.329
77465SOL     OW34233   6.300   3.483   3.974
77465SOL    HW134234   6.382   3.473   4.023
77465SOL    HW234235   6.239   3.520   4.037
77466SOL     OW34236   7.521   4.915   3.222
77466SOL    HW134237   7.469   4.876   3.152
77466SOL    HW234238   7.520   4.850   3.292
77467SOL     OW34239  13.734   4.070  10.333
77467SOL    HW134240  13.652   4.049  10.289
77467SOL    HW234241  13.798   4.009  10.296
77468SOL     OW34242   1.359  13.504   3.631
77468SOL    HW134243   1.294  13.469   3.692
77468SOL    HW234244   1.441  13.504   3.681
77469SOL     OW34245   0.179  13.074   8.218
77469SOL    HW134246   0.153  13.087   8.127
77469SOL    HW234247   0.143  13.151   8.264
77470SOL     OW34248   0.866  13.528  14.821
77470SOL    HW134249   0.868  13.580  14.741
77470SOL    HW234250   0.956  13.531  14.854
77471SOL     OW34251   6.199  13.662   0.915
77471SOL    HW134252   6.245  13.685   0.834
77471SOL    HW234253   6.133  13.597   0.888
77472SOL     OW34254   8.753   6.690   6.083
77472SOL    HW134255   8.764   6.775   6.127
77472SOL    HW234256   8.837   6.676   6.039
77473SOL     OW34257  12.674  10.088   4.042
77473SOL    HW134258  12.630  10.114   3.961
77473SOL    HW234259  12.721  10.166   4.070
77474SOL     OW34260   3.865  11.604   0.402
77474SOL    HW134261   3.831  11.531   0.454
77474SOL    HW234262   3.800  11.617   0.334
77475SOL     OW34263   4.015   3.725  12.600
77475SOL    HW134264   4.057   3.708  12.684
77475SOL    HW234265   3.978   3.813  12.608
77476SOL     OW34266   7.679   0.261   1.638
77476SOL    HW134267   7.635   0.337   1.600
77476SOL    HW234268   7.766   0.262   1.600
77477SOL     OW34269   0.649  11.620   2.943
77477SOL    HW134270   0.681  11.707   2.969
77477SOL    HW234271   0.554  11.626   2.950
77478SOL     OW34272   2.097   7.071   1.384
77478SOL    HW134273   2.103   7.157   1.343
77478SOL    HW234274   2.003   7.051   1.384
77479SOL     OW34275  11.730   2.835   1.400
77479SOL    HW134276  11.667   2.847   1.470
77479SOL    HW234277  11.812   2.868   1.435
77480SOL     OW34278   0.377   3.934  12.604
77480SOL    HW134279   0.298   3.897  12.643
77480SOL    HW234280   0.354   3.949  12.512
77481SOL     OW34281   3.087   6.635   5.713
77481SOL    HW134282   3.126   6.595   5.790
77481SOL    HW234283   3.153   6.698   5.683
77482SOL     OW34284   4.640   0.398  11.197
77482SOL    HW134285   4.611   0.430  11.283
77482SOL    HW234286   4.586   0.445  11.134
77483SOL     OW34287   5.997  14.871  14.259
77483SOL    HW134288   5.995   0.035  14.344
77483SOL    HW234289   5.912   0.010  14.220
77484SOL     OW34290   7.047  11.388   3.531
77484SOL    HW134291   6.959  11.424   3.526
77484SOL    HW234292   7.103  11.452   3.487
77485SOL     OW34293   6.235   8.995   2.582
77485SOL    HW134294   6.330   9.005   2.597
77485SOL    HW234295   6.207   8.934   2.650
77486SOL     OW34296   4.007   5.893  12.698
77486SOL    HW134297   4.016   5.972  12.646
77486SOL    HW234298   4.094   5.852  12.696
77487SOL     OW34299   0.471   5.098   9.324
77487SOL    HW134300   0.437   5.140   9.244
77487SOL    HW234301   0.553   5.058   9.296
77488SOL     OW34302  13.772  12.003   1.164
77488SOL    HW134303  13.746  12.006   1.072
77488SOL    HW234304  13.808  11.915   1.176
77489SOL     OW34305   4.410   2.512  12.821
77489SOL    HW134306   4.472   2.440  12.809
77489SOL    HW234307   4.337   2.490  12.763
77490SOL     OW34308   7.440   2.370   8.199
77490SOL    HW134309   7.371   2.322   8.153
77490SOL    HW234310   7.501   2.302   8.228
77491SOL     OW34311  13.180   6.240   0.592
77491SOL    HW134312  13.120   6.193   0.534
77491SOL    HW234313  13.261   6.190   0.588
77492SOL     OW34314   1.330  14.697  13.377
77492SOL    HW134315   1.317  14.616  13.327
77492SOL    HW234316   1.257  14.700  13.438
77493SOL     OW34317   5.349   0.534  10.574
77493SOL    HW134318   5.386   0.571  10.654
77493SOL    HW234319   5.281   0.473  10.604
77494SOL     OW34320  14.007   0.596  12.053
77494SOL    HW134321  13.936   0.553  12.006
77494SOL    HW234322  14.004   0.558  12.141
77495SOL     OW34323   1.807   6.195  11.459
77495SOL    HW134324   1.812   6.138  11.382
77495SOL    HW234325   1.898   6.212  11.482
77496SOL     OW34326  10.034  12.032  14.749
77496SOL    HW134327  10.068  12.049  14.662
77496SOL    HW234328   9.939  12.043  14.741
77497SOL     OW34329   8.992   6.322   6.566
77497SOL    HW134330   8.932   6.336   6.493
77497SOL    HW234331   9.020   6.230   6.557
77498SOL     OW34332   4.362   7.235  12.742
77498SOL    HW134333   4.314   7.288  12.806
77498SOL    HW234334   4.443   7.284  12.726
77499SOL     OW34335   7.158   9.611   3.431
77499SOL    HW134336   7.197   9.683   3.481
77499SOL    HW234337   7.089   9.653   3.379
77500SOL     OW34338  10.950  13.480  14.212
77500SOL    HW134339  10.862  13.508  14.238
77500SOL    HW234340  10.960  13.393  14.251
77501SOL     OW34341   2.167  13.405  14.596
77501SOL    HW134342   2.197  13.485  14.639
77501SOL    HW234343   2.238  13.381  14.537
77502SOL     OW34344   4.577  12.262   5.166
77502SOL    HW134345   4.509  12.279   5.231
77502SOL    HW234346   4.545  12.184   5.119
77503SOL     OW34347   9.112   5.770   0.601
77503SOL    HW134348   9.192   5.787   0.553
77503SOL    HW234349   9.109   5.840   0.667
77504SOL     OW34350   9.001   5.691   1.309
77504SOL    HW134351   9.045   5.639   1.242
77504SOL    HW234352   9.060   5.686   1.385
77505SOL     OW34353  10.099  12.346  11.641
77505SOL    HW134354  10.036  12.418  11.634
77505SOL    HW234355  10.057  12.273  11.596
77506SOL     OW34356   0.033   5.942  11.547
77506SOL    HW134357   0.095   5.888  11.596
77506SOL    HW234358  14.829   5.896  11.552
77507SOL     OW34359   0.995   1.197   7.267
77507SOL    HW134360   1.079   1.241   7.254
77507SOL    HW234361   0.966   1.175   7.179
77508SOL     OW34362   0.888   1.061   4.739
77508SOL    HW134363   0.942   1.027   4.809
77508SOL    HW234364   0.854   1.144   4.773
77509SOL     OW34365  13.345   7.370   7.166
77509SOL    HW134366  13.267   7.361   7.221
77509SOL    HW234367  13.418   7.345   7.223
77510SOL     OW34368  13.829   8.272  13.143
77510SOL    HW134369  13.813   8.363  13.167
77510SOL    HW234370  13.882   8.237  13.214
77511SOL     OW34371  10.453  11.041  14.643
77511SOL    HW134372  10.404  10.995  14.575
77511SOL    HW234373  10.544  11.037  14.615
77512SOL     OW34374   2.894   6.144   0.920
77512SOL    HW134375   2.826   6.183   0.974
77512SOL    HW234376   2.851   6.069   0.878
77513SOL     OW34377   3.549   8.192   7.077
77513SOL    HW134378   3.618   8.126   7.076
77513SOL    HW234379   3.570   8.250   7.004
77514SOL     OW34380   6.106   1.495   0.788
77514SOL    HW134381   6.031   1.452   0.828
77514SOL    HW234382   6.181   1.468   0.840
77515SOL     OW34383   9.878   4.803   4.652
77515SOL    HW134384   9.810   4.773   4.591
77515SOL    HW234385   9.855   4.763   4.736
77516SOL     OW34386   6.060   7.311   1.205
77516SOL    HW134387   6.024   7.234   1.248
77516SOL    HW234388   6.032   7.303   1.114
77517SOL     OW34389   6.705   5.066   7.909
77517SOL    HW134390   6.710   4.994   7.846
77517SOL    HW234391   6.624   5.112   7.887
77518SOL     OW34392  10.607  12.055   1.658
77518SOL    HW134393  10.590  12.132   1.712
77518SOL    HW234394  10.592  12.086   1.568
77519SOL     OW34395   4.058   5.622   4.435
77519SOL    HW134396   4.044   5.549   4.375
77519SOL    HW234397   4.014   5.595   4.516
77520SOL     OW34398  13.656   1.586   7.000
77520SOL    HW134399  13.643   1.520   7.068
77520SOL    HW234400  13.747   1.613   7.010
77521SOL     OW34401  10.425  13.235   1.641
77521SOL    HW134402  10.389  13.148   1.623
77521SOL    HW234403  10.351  13.295   1.627
77522SOL     OW34404   4.022   1.296  11.278
77522SOL    HW134405   4.063   1.349  11.210
77522SOL    HW234406   4.072   1.214  11.279
77523SOL     OW34407   0.263   0.619   5.733
77523SOL    HW134408   0.206   0.555   5.775
77523SOL    HW234409   0.346   0.611   5.778
77524SOL     OW34410  13.945  13.902   3.217
77524SOL    HW134411  14.024  13.955   3.215
77524SOL    HW234412  13.908  13.917   3.304
77525SOL     OW34413   4.137  13.207   7.497
77525SOL    HW134414   4.118  13.298   7.520
77525SOL    HW234415   4.051  13.165   7.491
77526SOL     OW34416   3.921   8.948   8.329
77526SOL    HW134417   3.851   8.979   8.386
77526SOL    HW234418   3.958   9.027   8.291
77527SOL     OW34419   0.530   0.597   6.359
77527SOL    HW134420   0.580   0.676   6.341
77527SOL    HW234421   0.511   0.602   6.453
77528SOL     OW34422   1.976  14.502   0.945
77528SOL    HW134423   2.067  14.510   0.916
77528SOL    HW234424   1.978  14.435   1.013
77529SOL     OW34425  13.286   3.489   8.747
77529SOL    HW134426  13.336   3.507   8.667
77529SOL    HW234427  13.310   3.399   8.770
77530SOL     OW34428   5.685  12.282   9.975
77530SOL    HW134429   5.735  12.231  10.040
77530SOL    HW234430   5.748  12.303   9.907
77531SOL     OW34431   3.699  12.742   4.240
77531SOL    HW134432   3.650  12.778   4.313
77531SOL    HW234433   3.681  12.648   4.243
77532SOL     OW34434   0.744   1.090   0.917
77532SOL    HW134435   0.714   1.032   0.847
77532SOL    HW234436   0.753   1.175   0.876
77533SOL     OW34437   0.821   4.558   3.931
77533SOL    HW134438   0.852   4.521   4.014
77533SOL    HW234439   0.746   4.612   3.956
77534SOL     OW34440   7.939  14.680   3.524
77534SOL    HW134441   7.976  14.611   3.469
77534SOL    HW234442   7.946  14.760   3.471
77535SOL     OW34443   9.491   1.617  13.124
77535SOL    HW134444   9.541   1.545  13.084
77535SOL    HW234445   9.400   1.596  13.105
77536SOL     OW34446  14.324   8.224  14.413
77536SOL    HW134447  14.376   8.151  14.447
77536SOL    HW234448  14.390   8.288  14.383
77537SOL     OW34449   5.420   1.469   6.885
77537SOL    HW134450   5.471   1.531   6.833
77537SOL    HW234451   5.329   1.492   6.869
77538SOL     OW34452  13.488   1.435   4.361
77538SOL    HW134453  13.583   1.425   4.360
77538SOL    HW234454  13.473   1.530   4.360
77539SOL     OW34455   3.820  13.654   1.952
77539SOL    HW134456   3.911  13.673   1.977
77539SOL    HW234457   3.828  13.608   1.869
77540SOL     OW34458   6.517   1.619   9.084
77540SOL    HW134459   6.510   1.620   8.989
77540SOL    HW234460   6.501   1.527   9.108
77541SOL     OW34461   8.575   4.328   8.385
77541SOL    HW134462   8.650   4.302   8.440
77541SOL    HW234463   8.611   4.331   8.296
77542SOL     OW34464   9.615   6.676   8.217
77542SOL    HW134465   9.666   6.725   8.152
77542SOL    HW234466   9.596   6.740   8.286
77543SOL     OW34467   7.004  10.308   7.500
77543SOL    HW134468   7.094  10.321   7.471
77543SOL    HW234469   6.983  10.386   7.550
77544SOL     OW34470   2.600   1.192   7.962
77544SOL    HW134471   2.674   1.182   7.903
77544SOL    HW234472   2.577   1.103   7.988
77545SOL     OW34473  11.409   9.878  14.730
77545SOL    HW134474  11.450   9.928  14.659
77545SOL    HW234475  11.442   9.789  14.718
77546SOL     OW34476   9.971   7.430   8.004
77546SOL    HW134477   9.936   7.390   7.924
77546SOL    HW234478  10.033   7.496   7.972
77547SOL     OW34479  11.539  14.553   2.442
77547SOL    HW134480  11.580  14.633   2.474
77547SOL    HW234481  11.602  14.517   2.379
77548SOL     OW34482   2.717   6.643   2.735
77548SOL    HW134483   2.646   6.684   2.686
77548SOL    HW234484   2.718   6.690   2.819
77549SOL     OW34485  14.612   3.605   1.406
77549SOL    HW134486  14.611   3.510   1.419
77549SOL    HW234487  14.522   3.627   1.384
77550SOL     OW34488   9.865  11.163   9.199
77550SOL    HW134489   9.878  11.253   9.231
77550SOL    HW234490   9.847  11.173   9.105
77551SOL     OW34491   2.036  10.095   1.598
77551SOL    HW134492   1.969  10.159   1.623
77551SOL    HW234493   2.086  10.138   1.528
77552SOL     OW34494   0.629  14.627   1.060
77552SOL    HW134495   0.579  14.567   1.004
77552SOL    HW234496   0.575  14.706   1.064
77553SOL     OW34497   1.965   5.205   5.839
77553SOL    HW134498   1.884   5.250   5.863
77553SOL    HW234499   1.994   5.248   5.759
77554SOL     OW34500  12.307   2.929   6.304
77554SOL    HW134501  12.376   2.886   6.354
77554SOL    HW234502  12.231   2.929   6.362
77555SOL     OW34503   7.214   9.628   8.658
77555SOL    HW134504   7.216   9.649   8.565
77555SOL    HW234505   7.136   9.573   8.669
77556SOL     OW34506   5.501  14.139   3.029
77556SOL    HW134507   5.436  14.127   3.098
77556SOL    HW234508   5.558  14.062   3.037
77557SOL     OW34509   9.181   7.291  11.053
77557SOL    HW134510   9.091   7.321  11.070
77557SOL    HW234511   9.185   7.281  10.958
77558SOL     OW34512   1.267   4.958  11.496
77558SOL    HW134513   1.201   4.940  11.562
77558SOL    HW234514   1.220   4.953  11.413
77559SOL     OW34515   4.276   2.558  10.967
77559SOL    HW134516   4.318   2.640  10.991
77559SOL    HW234517   4.185   2.569  10.993
77560SOL     OW34518  14.134   5.961   0.064
77560SOL    HW134519  14.139   5.995  14.853
77560SOL    HW234520  14.154   5.868   0.055
77561SOL     OW34521  14.306   2.990   4.141
77561SOL    HW134522  14.318   3.072   4.094
77561SOL    HW234523  14.215   2.965   4.125
77562SOL     OW34524   7.822   0.836   3.224
77562SOL    HW134525   7.812   0.818   3.317
77562SOL    HW234526   7.736   0.817   3.186
77563SOL     OW34527   5.595  14.475  12.742
77563SOL    HW134528   5.507  14.506  12.764
77563SOL    HW234529   5.635  14.549  12.696
77564SOL     OW34530   8.378   8.309   6.412
77564SOL    HW134531   8.299   8.318   6.465
77564SOL    HW234532   8.383   8.391   6.363
77565SOL     OW34533   7.864  11.425   0.217
77565SOL    HW134534   7.912  11.480   0.157
77565SOL    HW234535   7.800  11.379   0.162
77566SOL     OW34536   7.468  10.951  13.592
77566SOL    HW134537   7.537  10.934  13.527
77566SOL    HW234538   7.386  10.938  13.544
77567SOL     OW34539  10.590   5.069   1.984
77567SOL    HW134540  10.504   5.097   1.954
77567SOL    HW234541  10.572   5.003   2.051
77568SOL     OW34542  10.659  11.261   2.738
77568SOL    HW134543  10.750  11.291   2.730
77568SOL    HW234544  10.618  11.325   2.796
77569SOL     OW34545   2.058   1.285   4.533
77569SOL    HW134546   2.105   1.369   4.535
77569SOL    HW234547   2.072   1.249   4.621
77570SOL     OW34548   1.234   6.761  13.536
77570SOL    HW134549   1.273   6.687  13.490
77570SOL    HW234550   1.197   6.722  13.616
77571SOL     OW34551   7.518   6.662   0.441
77571SOL    HW134552   7.546   6.686   0.529
77571SOL    HW234553   7.458   6.733   0.415
77572SOL     OW34554   2.789   2.533   1.827
77572SOL    HW134555   2.786   2.493   1.740
77572SOL    HW234556   2.881   2.553   1.841
77573SOL     OW34557   6.707  10.783   1.242
77573SOL    HW134558   6.747  10.858   1.198
77573SOL    HW234559   6.780  10.739   1.285
77574SOL     OW34560   2.764   7.344  10.591
77574SOL    HW134561   2.752   7.409  10.660
77574SOL    HW234562   2.858   7.330  10.587
77575SOL     OW34563  10.081   3.574   3.590
77575SOL    HW134564  10.167   3.592   3.629
77575SOL    HW234565  10.023   3.563   3.666
77576SOL     OW34566   4.340   5.954  10.177
77576SOL    HW134567   4.393   5.938  10.256
77576SOL    HW234568   4.332   6.049  10.173
77577SOL     OW34569  12.462   1.592  11.495
77577SOL    HW134570  12.433   1.566  11.582
77577SOL    HW234571  12.422   1.678  11.481
77578SOL     OW34572   3.261   1.938  13.974
77578SOL    HW134573   3.213   2.004  14.024
77578SOL    HW234574   3.279   1.980  13.890
77579SOL     OW34575   0.552   8.965  13.171
77579SOL    HW134576   0.617   8.955  13.101
77579SOL    HW234577   0.560   8.885  13.223
77580SOL     OW34578   3.754   3.273  12.189
77580SOL    HW134579   3.802   3.243  12.266
77580SOL    HW234580   3.802   3.350  12.159
77581SOL     OW34581  14.723   5.178   1.867
77581SOL    HW134582  14.780   5.222   1.930
77581SOL    HW234583  14.780   5.162   1.791
77582SOL     OW34584   2.178  12.723  13.378
77582SOL    HW134585   2.157  12.713  13.471
77582SOL    HW234586   2.182  12.817  13.364
77583SOL     OW34587  11.968   8.321   4.736
77583SOL    HW134588  11.898   8.269   4.698
77583SOL    HW234589  12.049   8.283   4.700
77584SOL     OW34590  11.695   1.880   8.675
77584SOL    HW134591  11.687   1.975   8.684
77584SOL    HW234592  11.725   1.867   8.585
77585SOL     OW34593   3.804  13.335   6.514
77585SOL    HW134594   3.859  13.336   6.435
77585SOL    HW234595   3.843  13.401   6.571
77586SOL     OW34596   7.058  10.177  10.266
77586SOL    HW134597   6.994  10.148  10.331
77586SOL    HW234598   7.057  10.272  10.271
77587SOL     OW34599  14.389   4.632  10.842
77587SOL    HW134600  14.317   4.650  10.781
77587SOL    HW234601  14.437   4.714  10.849
77588SOL     OW34602   8.777   0.245   3.234
77588SOL    HW134603   8.784   0.229   3.140
77588SOL    HW234604   8.868   0.260   3.262
77589SOL     OW34605   1.506   0.031   4.237
77589SOL    HW134606   1.593   0.009   4.269
77589SOL    HW234607   1.470  14.828   4.205
77590SOL     OW34608  12.145   4.842  10.098
77590SOL    HW134609  12.149   4.916  10.159
77590SOL    HW234610  12.116   4.769  10.153
77591SOL     OW34611   8.857   5.863  13.982
77591SOL    HW134612   8.800   5.813  13.924
77591SOL    HW234613   8.829   5.954  13.970
77592SOL     OW34614   1.944   9.438  13.629
77592SOL    HW134615   1.877   9.450  13.696
77592SOL    HW234616   1.966   9.527  13.601
77593SOL     OW34617   0.838   2.574   1.261
77593SOL    HW134618   0.932   2.578   1.244
77593SOL    HW234619   0.830   2.587   1.356
77594SOL     OW34620   5.093   4.611   6.954
77594SOL    HW134621   5.049   4.548   7.011
77594SOL    HW234622   5.186   4.586   6.958
77595SOL     OW34623   6.968  14.767   5.700
77595SOL    HW134624   6.960  14.845   5.755
77595SOL    HW234625   6.878  14.737   5.688
77596SOL     OW34626   0.899   4.959  12.912
77596SOL    HW134627   0.865   5.015  12.843
77596SOL    HW234628   0.874   5.004  12.993
77597SOL     OW34629   2.550   3.561   9.663
77597SOL    HW134630   2.572   3.550   9.756
77597SOL    HW234631   2.454   3.558   9.661
77598SOL     OW34632   3.695   3.923   3.205
77598SOL    HW134633   3.764   3.985   3.225
77598SOL    HW234634   3.618   3.978   3.189
77599SOL     OW34635   2.374   7.048   0.002
77599SOL    HW134636   2.384   7.143  14.871
77599SOL    HW234637   2.300   7.025  14.826
77600SOL     OW34638   4.392   9.049  10.802
77600SOL    HW134639   4.396   9.144  10.812
77600SOL    HW234640   4.339   9.035  10.723
77601SOL     OW34641  10.552   0.235   9.620
77601SOL    HW134642  10.495   0.169   9.580
77601SOL    HW234643  10.547   0.310   9.560
77602SOL     OW34644   7.544   7.468  12.837
77602SOL    HW134645   7.482   7.448  12.768
77602SOL    HW234646   7.563   7.384  12.878
77603SOL     OW34647   7.980   9.230  14.511
77603SOL    HW134648   7.948   9.165  14.449
77603SOL    HW234649   7.907   9.291  14.522
77604SOL     OW34650   1.321   9.392   5.015
77604SOL    HW134651   1.374   9.431   5.085
77604SOL    HW234652   1.269   9.465   4.982
77605SOL     OW34653  14.602  11.769   9.378
77605SOL    HW134654  14.639  11.784   9.465
77605SOL    HW234655  14.604  11.855   9.335
77606SOL     OW34656   0.338   0.413  13.711
77606SOL    HW134657   0.422   0.375  13.736
77606SOL    HW234658   0.301   0.351  13.647
77607SOL     OW34659   3.478   7.322   9.238
77607SOL    HW134660   3.516   7.382   9.302
77607SOL    HW234661   3.485   7.368   9.155
77608SOL     OW34662   5.699  11.454  13.803
77608SOL    HW134663   5.729  11.424  13.889
77608SOL    HW234664   5.620  11.403  13.786
77609SOL     OW34665   2.698  11.369   1.378
77609SOL    HW134666   2.726  11.458   1.399
77609SOL    HW234667   2.605  11.367   1.402
77610SOL     OW34668   8.171   4.263   0.830
77610SOL    HW134669   8.228   4.305   0.895
77610SOL    HW234670   8.093   4.237   0.880
77611SOL     OW34671   2.376   7.215  11.044
77611SOL    HW134672   2.307   7.211  11.111
77611SOL    HW234673   2.436   7.144  11.068
77612SOL     OW34674   7.488  12.202  11.657
77612SOL    HW134675   7.468  12.199  11.563
77612SOL    HW234676   7.556  12.136  11.670
77613SOL     OW34677  13.405   1.034   1.123
77613SOL    HW134678  13.476   1.089   1.088
77613SOL    HW234679  13.441   0.997   1.204
77614SOL     OW34680  13.006  14.036  12.542
77614SOL    HW134681  13.057  14.105  12.585
77614SOL    HW234682  12.924  14.078  12.518
77615SOL     OW34683   6.158  13.912  13.708
77615SOL    HW134684   6.119  13.826  13.697
77615SOL    HW234685   6.097  13.972  13.665
77616SOL     OW34686   2.095   2.309   8.786
77616SOL    HW134687   2.001   2.300   8.800
77616SOL    HW234688   2.107   2.401   8.764
77617SOL     OW34689   4.035  14.171  11.617
77617SOL    HW134690   3.968  14.239  11.629
77617SOL    HW234691   4.115  14.211  11.649
77618SOL     OW34692   0.432   2.303   0.193
77618SOL    HW134693   0.427   2.290   0.099
77618SOL    HW234694   0.388   2.227   0.231
77619SOL     OW34695   1.404   3.657  10.896
77619SOL    HW134696   1.460   3.734  10.905
77619SOL    HW234697   1.355   3.672  10.815
77620SOL     OW34698   3.081   0.973   0.589
77620SOL    HW134699   3.111   1.063   0.576
77620SOL    HW234700   3.155   0.919   0.562
77621SOL     OW34701   6.790   2.516  12.253
77621SOL    HW134702   6.875   2.539  12.292
77621SOL    HW234703   6.785   2.421  12.261
77622SOL     OW34704  12.670   4.571   0.548
77622SOL    HW134705  12.675   4.612   0.462
77622SOL    HW234706  12.760   4.545   0.567
77623SOL     OW34707   6.079   2.928   8.819
77623SOL    HW134708   6.102   2.951   8.729
77623SOL    HW234709   6.024   3.001   8.849
77624SOL     OW34710   7.436   3.907  10.662
77624SOL    HW134711   7.438   3.827  10.714
77624SOL    HW234712   7.377   3.887  10.589
77625SOL     OW34713   4.378  11.715  13.020
77625SOL    HW134714   4.468  11.747  13.027
77625SOL    HW234715   4.326  11.794  13.004
77626SOL     OW34716   1.119   9.369   2.338
77626SOL    HW134717   1.120   9.304   2.408
77626SOL    HW234718   1.027   9.388   2.323
77627SOL     OW34719   6.676   6.529   3.708
77627SOL    HW134720   6.727   6.450   3.693
77627SOL    HW234721   6.700   6.587   3.636
77628SOL     OW34722  14.122  11.265  14.231
77628SOL    HW134723  14.149  11.279  14.321
77628SOL    HW234724  14.203  11.271  14.180
77629SOL     OW34725  12.350  13.687   7.908
77629SOL    HW134726  12.419  13.746   7.878
77629SOL    HW234727  12.271  13.742   7.910
77630SOL     OW34728   4.077   3.682   7.996
77630SOL    HW134729   4.105   3.712   7.909
77630SOL    HW234730   3.983   3.698   7.998
77631SOL     OW34731  10.091  10.360   5.041
77631SOL    HW134732  10.107  10.364   4.947
77631SOL    HW234733  10.015  10.303   5.050
77632SOL     OW34734   9.285   0.497   2.537
77632SOL    HW134735   9.299   0.515   2.444
77632SOL    HW234736   9.324   0.411   2.551
77633SOL     OW34737   4.087   0.626   5.544
77633SOL    HW134738   4.168   0.662   5.506
77633SOL    HW234739   4.111   0.537   5.570
77634SOL     OW34740  13.689   3.543   7.976
77634SOL    HW134741  13.705   3.512   7.887
77634SOL    HW234742  13.597   3.567   7.978
77635SOL     OW34743  11.345   9.188  11.483
77635SOL    HW134744  11.276   9.159  11.542
77635SOL    HW234745  11.337   9.130  11.407
77636SOL     OW34746  14.644   4.526   2.770
77636SOL    HW134747  14.721   4.471   2.779
77636SOL    HW234748  14.679   4.613   2.748
77637SOL     OW34749   3.226   9.924   2.561
77637SOL    HW134750   3.225  10.009   2.518
77637SOL    HW234751   3.177   9.937   2.642
77638SOL     OW34752   1.067  12.586   2.948
77638SOL    HW134753   1.064  12.513   2.886
77638SOL    HW234754   0.990  12.574   3.003
77639SOL     OW34755   5.885   1.006   4.290
77639SOL    HW134756   5.930   1.054   4.359
77639SOL    HW234757   5.818   0.956   4.336
77640SOL     OW34758   9.120   7.730  10.237
77640SOL    HW134759   9.180   7.700  10.305
77640SOL    HW234760   9.036   7.688  10.258
77641SOL     OW34761   0.947   2.267  11.720
77641SOL    HW134762   0.964   2.281  11.813
77641SOL    HW234763   0.991   2.340  11.676
77642SOL     OW34764   5.248   6.271  12.266
77642SOL    HW134765   5.256   6.223  12.183
77642SOL    HW234766   5.226   6.204  12.330
77643SOL     OW34767  13.454   7.221  14.027
77643SOL    HW134768  13.534   7.189  13.986
77643SOL    HW234769  13.391   7.228  13.955
77644SOL     OW34770   4.654   0.227   1.834
77644SOL    HW134771   4.666   0.133   1.845
77644SOL    HW234772   4.729   0.267   1.877
77645SOL     OW34773   1.025   2.414  10.274
77645SOL    HW134774   1.077   2.357  10.218
77645SOL    HW234775   1.018   2.367  10.357
77646SOL     OW34776   0.725  11.427   2.788
77646SOL    HW134777   0.694  11.462   2.705
77646SOL    HW234778   0.697  11.490   2.854
77647SOL     OW34779   2.252   2.982  12.064
77647SOL    HW134780   2.309   2.941  11.999
77647SOL    HW234781   2.290   3.069  12.078
77648SOL     OW34782  12.348   5.297   6.475
77648SOL    HW134783  12.391   5.274   6.392
77648SOL    HW234784  12.420   5.314   6.536
77649SOL     OW34785   8.040   7.853  12.294
77649SOL    HW134786   8.039   7.760  12.318
77649SOL    HW234787   8.096   7.857  12.217
77650SOL     OW34788  13.824  11.448   8.414
77650SOL    HW134789  13.731  11.444   8.392
77650SOL    HW234790  13.869  11.430   8.331
77651SOL     OW34791  11.751   3.203   8.966
77651SOL    HW134792  11.731   3.269   8.900
77651SOL    HW234793  11.767   3.123   8.915
77652SOL     OW34794   7.713   6.844  13.005
77652SOL    HW134795   7.800   6.884  12.999
77652SOL    HW234796   7.711   6.781  12.932
77653SOL     OW34797  10.984  11.821  14.664
77653SOL    HW134798  11.025  11.738  14.642
77653SOL    HW234799  11.042  11.887  14.626
77654SOL     OW34800   4.208   4.018   9.008
77654SOL    HW134801   4.254   4.025   8.924
77654SOL    HW234802   4.271   4.048   9.073
77655SOL     OW34803   5.272   6.470  10.754
77655SOL    HW134804   5.341   6.445  10.693
77655SOL    HW234805   5.316   6.519  10.822
77656SOL     OW34806   9.048   3.384   3.015
77656SOL    HW134807   8.984   3.456   3.015
77656SOL    HW234808   8.997   3.307   2.991
77657SOL     OW34809   9.962   7.418  10.285
77657SOL    HW134810   9.978   7.476  10.210
77657SOL    HW234811   9.973   7.330  10.249
77658SOL     OW34812   0.600  14.792  11.060
77658SOL    HW134813   0.641  14.856  11.118
77658SOL    HW234814   0.539  14.843  11.007
77659SOL     OW34815   3.492   1.084  14.313
77659SOL    HW134816   3.575   1.131  14.308
77659SOL    HW234817   3.490   1.049  14.403
77660SOL     OW34818  11.049   4.882  12.829
77660SOL    HW134819  11.102   4.897  12.750
77660SOL    HW234820  11.072   4.794  12.857
77661SOL     OW34821   5.688   0.996   7.928
77661SOL    HW134822   5.699   1.073   7.985
77661SOL    HW234823   5.756   1.006   7.861
77662SOL     OW34824  11.202   5.102   0.544
77662SOL    HW134825  11.178   5.024   0.593
77662SOL    HW234826  11.132   5.165   0.563
77663SOL     OW34827   3.963  10.004  13.392
77663SOL    HW134828   3.946   9.942  13.463
77663SOL    HW234829   3.938  10.089  13.428
77664SOL     OW34830   9.800   7.907   3.693
77664SOL    HW134831   9.790   7.981   3.753
77664SOL    HW234832   9.881   7.865   3.720
77665SOL     OW34833   7.157   2.764   0.450
77665SOL    HW134834   7.205   2.828   0.399
77665SOL    HW234835   7.070   2.761   0.410
77666SOL     OW34836   2.873   4.817  14.014
77666SOL    HW134837   2.901   4.761  14.086
77666SOL    HW234838   2.908   4.775  13.935
77667SOL     OW34839   2.832  10.787  12.745
77667SOL    HW134840   2.746  10.751  12.724
77667SOL    HW234841   2.894  10.719  12.717
77668SOL     OW34842   2.486   1.528   0.038
77668SOL    HW134843   2.395   1.551   0.055
77668SOL    HW234844   2.531   1.612   0.029
77669SOL     OW34845   5.929   5.330   3.479
77669SOL    HW134846   5.979   5.384   3.541
77669SOL    HW234847   5.839   5.362   3.486
77670SOL     OW34848   1.072  13.813  13.057
77670SOL    HW134849   1.111  13.844  13.139
77670SOL    HW234850   0.994  13.765  13.084
77671SOL     OW34851  10.004   9.822  13.761
77671SOL    HW134852  10.058   9.748  13.735
77671SOL    HW234853   9.929   9.819  13.703
77672SOL     OW34854   8.277   9.328   2.028
77672SOL    HW134855   8.311   9.245   1.995
77672SOL    HW234856   8.259   9.312   2.121
77673SOL     OW34857   9.606   8.902  14.455
77673SOL    HW134858   9.614   8.968  14.386
77673SOL    HW234859   9.604   8.954  14.536
77674SOL     OW34860   9.833   4.120   7.144
77674SOL    HW134861   9.835   4.170   7.062
77674SOL    HW234862   9.822   4.029   7.115
77675SOL     OW34863   0.741   6.514  12.586
77675SOL    HW134864   0.802   6.543  12.654
77675SOL    HW234865   0.668   6.576  12.592
77676SOL     OW34866   8.343   3.869   9.534
77676SOL    HW134867   8.422   3.924   9.533
77676SOL    HW234868   8.370   3.791   9.582
77677SOL     OW34869   0.595  10.098   1.904
77677SOL    HW134870   0.608  10.068   1.994
77677SOL    HW234871   0.676  10.144   1.882
77678SOL     OW34872  11.784   2.740   2.705
77678SOL    HW134873  11.766   2.804   2.774
77678SOL    HW234874  11.875   2.715   2.719
77679SOL     OW34875   9.774  12.589  13.162
77679SOL    HW134876   9.796  12.509  13.115
77679SOL    HW234877   9.858  12.633  13.175
77680SOL     OW34878  10.132   1.295   8.296
77680SOL    HW134879  10.102   1.221   8.348
77680SOL    HW234880  10.116   1.269   8.205
77681SOL     OW34881   4.592  14.465   1.439
77681SOL    HW134882   4.682  14.465   1.407
77681SOL    HW234883   4.588  14.541   1.497
77682SOL     OW34884   0.813   1.577   1.954
77682SOL    HW134885   0.840   1.668   1.967
77682SOL    HW234886   0.881   1.539   1.899
77683SOL     OW34887  11.009   2.929   3.522
77683SOL    HW134888  10.916   2.905   3.515
77683SOL    HW234889  11.022   2.942   3.616
77684SOL     OW34890   7.161   3.759   3.226
77684SOL    HW134891   7.173   3.681   3.280
77684SOL    HW234892   7.067   3.776   3.228
77685SOL     OW34893   5.188   4.942  14.414
77685SOL    HW134894   5.197   4.882  14.488
77685SOL    HW234895   5.119   4.903  14.360
77686SOL     OW34896  11.791   9.463   5.135
77686SOL    HW134897  11.832   9.382   5.104
77686SOL    HW234898  11.757   9.505   5.056
77687SOL     OW34899   1.253   9.850  12.516
77687SOL    HW134900   1.311   9.810  12.581
77687SOL    HW234901   1.199   9.777  12.484
77688SOL     OW34902   1.732   6.013   4.820
77688SOL    HW134903   1.771   6.022   4.734
77688SOL    HW234904   1.646   5.973   4.804
77689SOL     OW34905   7.695   9.569   9.089
77689SOL    HW134906   7.679   9.617   9.008
77689SOL    HW234907   7.664   9.628   9.158
77690SOL     OW34908   6.102   8.567  12.572
77690SOL    HW134909   6.127   8.609  12.655
77690SOL    HW234910   6.030   8.509  12.596
77691SOL     OW34911   5.259   0.673   3.097
77691SOL    HW134912   5.260   0.600   3.159
77691SOL    HW234913   5.168   0.679   3.068
77692SOL     OW34914   4.547   9.367   4.855
77692SOL    HW134915   4.631   9.350   4.814
77692SOL    HW234916   4.559   9.342   4.947
77693SOL     OW34917   3.342   8.603   8.364
77693SOL    HW134918   3.274   8.614   8.430
77693SOL    HW234919   3.395   8.530   8.396
77694SOL     OW34920  10.061   2.067   1.415
77694SOL    HW134921   9.996   2.120   1.462
77694SOL    HW234922  10.020   1.982   1.404
77695SOL     OW34923   6.722  12.421  13.084
77695SOL    HW134924   6.737  12.359  13.156
77695SOL    HW234925   6.706  12.505  13.128
77696SOL     OW34926   4.032   9.750   9.281
77696SOL    HW134927   4.039   9.838   9.317
77696SOL    HW234928   4.021   9.763   9.187
77697SOL     OW34929   4.525   3.521  10.327
77697SOL    HW134930   4.518   3.542  10.420
77697SOL    HW234931   4.617   3.537  10.306
77698SOL     OW34932  14.005   8.231   3.706
77698SOL    HW134933  14.097   8.204   3.705
77698SOL    HW234934  13.963   8.176   3.639
77699SOL     OW34935   6.328   1.830   5.959
77699SOL    HW134936   6.273   1.811   5.883
77699SOL    HW234937   6.266   1.842   6.031
77700SOL     OW34938   6.394  13.121  10.402
77700SOL    HW134939   6.415  13.048  10.344
77700SOL    HW234940   6.355  13.187  10.345
77701SOL     OW34941  10.267  13.661   7.299
77701SOL    HW134942  10.330  13.645   7.369
77701SOL    HW234943  10.262  13.578   7.252
77702SOL     OW34944   6.094   0.733   3.664
77702SOL    HW134945   6.162   0.776   3.715
77702SOL    HW234946   6.020   0.726   3.724
77703SOL     OW34947  13.879   7.439  11.278
77703SOL    HW134948  13.860   7.532  11.276
77703SOL    HW234949  13.889   7.417  11.371
77704SOL     OW34950  11.097   9.021  11.581
77704SOL    HW134951  11.093   8.976  11.666
77704SOL    HW234952  11.022   9.080  11.581
77705SOL     OW34953   1.049   3.300  14.613
77705SOL    HW134954   1.002   3.325  14.693
77705SOL    HW234955   1.030   3.207  14.602
77706SOL     OW34956   4.661   0.287   9.079
77706SOL    HW134957   4.577   0.328   9.096
77706SOL    HW234958   4.696   0.267   9.166
77707SOL     OW34959   5.251   0.852   7.357
77707SOL    HW134960   5.236   0.944   7.334
77707SOL    HW234961   5.164   0.812   7.358
77708SOL     OW34962  12.479   2.525   3.962
77708SOL    HW134963  12.496   2.431   3.952
77708SOL    HW234964  12.537   2.567   3.898
77709SOL     OW34965   6.200   8.549   8.870
77709SOL    HW134966   6.124   8.524   8.817
77709SOL    HW234967   6.199   8.489   8.944
77710SOL     OW34968  13.328   2.533   7.503
77710SOL    HW134969  13.280   2.503   7.580
77710SOL    HW234970  13.260   2.557   7.440
77711SOL     OW34971  12.842   6.233   1.050
77711SOL    HW134972  12.899   6.212   0.976
77711SOL    HW234973  12.755   6.238   1.012
77712SOL     OW34974  13.254  12.562   9.383
77712SOL    HW134975  13.339  12.537   9.345
77712SOL    HW234976  13.228  12.486   9.435
77713SOL     OW34977  13.814  12.771  13.410
77713SOL    HW134978  13.738  12.758  13.467
77713SOL    HW234979  13.879  12.813  13.467
77714SOL     OW34980   4.394   2.416   2.664
77714SOL    HW134981   4.446   2.352   2.615
77714SOL    HW234982   4.447   2.495   2.663
77715SOL     OW34983   0.210   6.322  12.823
77715SOL    HW134984   0.277   6.265  12.861
77715SOL    HW234985   0.248   6.355  12.742
77716SOL     OW34986   8.080   0.257   0.863
77716SOL    HW134987   8.118   0.331   0.911
77716SOL    HW234988   8.050   0.197   0.932
77717SOL     OW34989   1.433  12.642   4.161
77717SOL    HW134990   1.394  12.629   4.074
77717SOL    HW234991   1.434  12.555   4.201
77718SOL     OW34992   3.429   8.903   2.370
77718SOL    HW134993   3.503   8.963   2.371
77718SOL    HW234994   3.463   8.822   2.406
77719SOL     OW34995  10.263  12.093   2.942
77719SOL    HW134996  10.289  12.182   2.918
77719SOL    HW234997  10.215  12.103   3.024
77720SOL     OW34998  11.481  10.343  12.422
77720SOL    HW134999  11.522  10.415  12.469
77720SOL    HW235000  11.423  10.301  12.486
77721SOL     OW35001  12.474  11.623   6.397
77721SOL    HW135002  12.406  11.630   6.465
77721SOL    HW235003  12.510  11.535   6.408
77722SOL     OW35004  11.087   7.002  12.035
77722SOL    HW135005  11.132   7.006  12.120
77722SOL    HW235006  11.136   7.063  11.979
77723SOL     OW35007  11.515   4.198   1.686
77723SOL    HW135008  11.555   4.112   1.684
77723SOL    HW235009  11.547   4.241   1.606
77724SOL     OW35010   2.601   8.763   7.342
77724SOL    HW135011   2.630   8.832   7.282
77724SOL    HW235012   2.506   8.763   7.334
77725SOL     OW35013  10.526   8.712   6.753
77725SOL    HW135014  10.443   8.719   6.706
77725SOL    HW235015  10.572   8.640   6.709
77726SOL     OW35016   4.888   0.346   1.916
77726SOL    HW135017   4.903   0.376   2.005
77726SOL    HW235018   4.968   0.299   1.892
77727SOL     OW35019   5.273   8.015   1.365
77727SOL    HW135020   5.257   7.947   1.431
77727SOL    HW235021   5.223   8.091   1.396
77728SOL     OW35022  14.363   0.062   4.666
77728SOL    HW135023  14.355   0.145   4.619
77728SOL    HW235024  14.279   0.052   4.712
77729SOL     OW35025   0.173   3.302  12.159
77729SOL    HW135026   0.216   3.255  12.088
77729SOL    HW235027   0.085   3.320  12.126
77730SOL     OW35028  11.160   3.805   7.961
77730SOL    HW135029  11.144   3.840   7.874
77730SOL    HW235030  11.225   3.736   7.948
77731SOL     OW35031  10.907   8.754   0.798
77731SOL    HW135032  10.820   8.753   0.839
77731SOL    HW235033  10.961   8.805   0.858
77732SOL     OW35034   3.104  10.619   0.428
77732SOL    HW135035   3.125  10.705   0.465
77732SOL    HW235036   3.142  10.557   0.490
77733SOL     OW35037   1.646   6.693  12.379
77733SOL    HW135038   1.676   6.745  12.453
77733SOL    HW235039   1.726   6.657  12.341
77734SOL     OW35040  13.405   2.368  14.309
77734SOL    HW135041  13.382   2.393  14.399
77734SOL    HW235042  13.457   2.442  14.277
77735SOL     OW35043   9.768   8.201   9.288
77735SOL    HW135044   9.716   8.230   9.213
77735SOL    HW235045   9.807   8.281   9.322
77736SOL     OW35046  14.778   2.369  11.602
77736SOL    HW135047  14.846   2.363  11.536
77736SOL    HW235048  14.721   2.293  11.585
77737SOL     OW35049   4.804   0.357   5.039
77737SOL    HW135050   4.736   0.335   4.976
77737SOL    HW235051   4.830   0.274   5.078
77738SOL     OW35052   7.142  14.399   2.843
77738SOL    HW135053   7.122  14.411   2.936
77738SOL    HW235054   7.175  14.309   2.837
77739SOL     OW35055   5.813  14.470   6.017
77739SOL    HW135056   5.826  14.558   6.052
77739SOL    HW235057   5.768  14.483   5.934
77740SOL     OW35058  10.755   5.971   6.669
77740SOL    HW135059  10.797   5.960   6.583
77740SOL    HW235060  10.687   6.036   6.655
77741SOL     OW35061  12.822   1.208   0.040
77741SOL    HW135062  12.771   1.128   0.032
77741SOL    HW235063  12.869   1.198   0.123
77742SOL     OW35064   7.624  14.299   9.095
77742SOL    HW135065   7.678  14.305   9.016
77742SOL    HW235066   7.540  14.266   9.065
77743SOL     OW35067   1.100  11.110   7.266
77743SOL    HW135068   1.012  11.077   7.282
77743SOL    HW235069   1.089  11.178   7.199
77744SOL     OW35070   5.959   3.164   0.800
77744SOL    HW135071   6.004   3.082   0.780
77744SOL    HW235072   5.928   3.152   0.890
77745SOL     OW35073   8.188  11.201   7.441
77745SOL    HW135074   8.210  11.233   7.353
77745SOL    HW235075   8.177  11.280   7.494
77746SOL     OW35076  14.841   7.916   7.101
77746SOL    HW135077  14.757   7.890   7.064
77746SOL    HW235078  14.819   7.967   7.179
77747SOL     OW35079  10.853   5.892   0.125
77747SOL    HW135080  10.907   5.870   0.050
77747SOL    HW235081  10.763   5.875   0.096
77748SOL     OW35082   0.691   1.707  12.977
77748SOL    HW135083   0.776   1.668  12.995
77748SOL    HW235084   0.647   1.643  12.922
77749SOL     OW35085  14.368   8.033   0.954
77749SOL    HW135086  14.346   8.047   1.046
77749SOL    HW235087  14.296   7.980   0.920
77750SOL     OW35088  10.996   6.048   6.808
77750SOL    HW135089  10.937   5.989   6.763
77750SOL    HW235090  10.953   6.133   6.804
77751SOL     OW35091   1.021   1.476   7.412
77751SOL    HW135092   1.009   1.383   7.428
77751SOL    HW235093   1.115   1.491   7.422
77752SOL     OW35094   9.280   1.555   6.436
77752SOL    HW135095   9.222   1.513   6.372
77752SOL    HW235096   9.276   1.648   6.414
77753SOL     OW35097  12.514  11.650   5.750
77753SOL    HW135098  12.545  11.692   5.831
77753SOL    HW235099  12.422  11.632   5.767
77754SOL     OW35100  12.870   3.389  13.704
77754SOL    HW135101  12.808   3.346  13.763
77754SOL    HW235102  12.817   3.421  13.631
77755SOL     OW35103   1.502  10.772   9.096
77755SOL    HW135104   1.442  10.750   9.167
77755SOL    HW235105   1.570  10.825   9.137
77756SOL     OW35106   2.509   8.356   3.552
77756SOL    HW135107   2.570   8.389   3.486
77756SOL    HW235108   2.523   8.412   3.628
77757SOL     OW35109  12.958   2.270   9.757
77757SOL    HW135110  12.972   2.306   9.844
77757SOL    HW235111  12.864   2.252   9.753
77758SOL     OW35112   3.191  14.845   3.582
77758SOL    HW135113   3.210   0.044   3.633
77758SOL    HW235114   3.190  14.875   3.491
77759SOL     OW35115  14.195  13.238   9.526
77759SOL    HW135116  14.211  13.320   9.479
77759SOL    HW235117  14.218  13.170   9.463
77760SOL     OW35118  13.235  10.409   5.099
77760SOL    HW135119  13.292  10.340   5.133
77760SOL    HW235120  13.217  10.464   5.175
77761SOL     OW35121   3.605   4.227  13.440
77761SOL    HW135122   3.564   4.312  13.420
77761SOL    HW235123   3.537   4.162  13.422
77762SOL     OW35124   2.231   7.828   0.100
77762SOL    HW135125   2.289   7.752   0.104
77762SOL    HW235126   2.266   7.888   0.166
77763SOL     OW35127  13.961   9.286   9.881
77763SOL    HW135128  14.053   9.296   9.905
77763SOL    HW235129  13.926   9.221   9.941
77764SOL     OW35130   0.468   6.745   7.338
77764SOL    HW135131   0.551   6.791   7.352
77764SOL    HW235132   0.404   6.815   7.323
77765SOL     OW35133   3.878  12.786  12.294
77765SOL    HW135134   3.814  12.784  12.366
77765SOL    HW235135   3.911  12.876  12.294
77766SOL     OW35136   9.477   1.688  10.012
77766SOL    HW135137   9.520   1.630  10.076
77766SOL    HW235138   9.409   1.732  10.062
77767SOL     OW35139  13.823   7.398   7.212
77767SOL    HW135140  13.772   7.425   7.135
77767SOL    HW235141  13.830   7.478   7.264
77768SOL     OW35142   0.621  14.845   2.795
77768SOL    HW135143   0.547   0.025   2.779
77768SOL    HW235144   0.628  14.842   2.891
77769SOL     OW35145   7.459   7.326   1.570
77769SOL    HW135146   7.391   7.303   1.508
77769SOL    HW235147   7.497   7.242   1.597
77770SOL     OW35148  14.838  10.829   2.034
77770SOL    HW135149  14.797  10.787   1.959
77770SOL    HW235150   0.027  10.766   2.062
77771SOL     OW35151   0.008   2.173   3.899
77771SOL    HW135152   0.092   2.128   3.891
77771SOL    HW235153  14.845   2.159   3.814
77772SOL     OW35154   5.482  13.274   9.164
77772SOL    HW135155   5.448  13.339   9.225
77772SOL    HW235156   5.451  13.302   9.078
77773SOL     OW35157  14.128   7.063   6.375
77773SOL    HW135158  14.058   7.119   6.408
77773SOL    HW235159  14.208   7.113   6.391
77774SOL     OW35160  11.738  12.284   6.218
77774SOL    HW135161  11.775  12.309   6.303
77774SOL    HW235162  11.652  12.326   6.215
77775SOL     OW35163  11.847   9.096   1.931
77775SOL    HW135164  11.761   9.056   1.915
77775SOL    HW235165  11.827   9.186   1.956
77776SOL     OW35166   4.747   5.618   9.552
77776SOL    HW135167   4.721   5.610   9.460
77776SOL    HW235168   4.690   5.685   9.588
77777SOL     OW35169   6.106  13.670  14.189
77777SOL    HW135170   6.077  13.749  14.144
77777SOL    HW235171   6.172  13.632  14.131
77778SOL     OW35172   8.957  14.159  11.088
77778SOL    HW135173   8.983  14.130  11.000
77778SOL    HW235174   8.976  14.253  11.089
77779SOL     OW35175   9.862   3.179  14.465
77779SOL    HW135176   9.835   3.163  14.374
77779SOL    HW235177   9.929   3.247  14.457
77780SOL     OW35178   2.734   8.213   4.992
77780SOL    HW135179   2.771   8.288   5.038
77780SOL    HW235180   2.712   8.151   5.062
77781SOL     OW35181  12.007   1.439   2.598
77781SOL    HW135182  12.022   1.447   2.692
77781SOL    HW235183  12.038   1.521   2.561
77782SOL     OW35184  14.378   3.871   7.057
77782SOL    HW135185  14.315   3.939   7.082
77782SOL    HW235186  14.462   3.917   7.052
77783SOL     OW35187   2.796   0.472  10.347
77783SOL    HW135188   2.714   0.497  10.391
77783SOL    HW235189   2.864   0.492  10.411
77784SOL     OW35190   5.365  12.898   1.571
77784SOL    HW135191   5.298  12.957   1.536
77784SOL    HW235192   5.317  12.821   1.600
77785SOL     OW35193  10.834   7.427   8.611
77785SOL    HW135194  10.813   7.518   8.632
77785SOL    HW235195  10.920   7.431   8.569
77786SOL     OW35196   8.706   4.696  13.143
77786SOL    HW135197   8.654   4.688  13.063
77786SOL    HW235198   8.687   4.784  13.176
77787SOL     OW35199  11.558   0.024   5.137
77787SOL    HW135200  11.550   0.026   5.232
77787SOL    HW235201  11.652   0.013   5.122
77788SOL     OW35202   0.122   3.309  12.419
77788SOL    HW135203   0.125   3.284  12.326
77788SOL    HW235204   0.087   3.231  12.463
77789SOL     OW35205  11.813   5.449   5.308
77789SOL    HW135206  11.838   5.538   5.334
77789SOL    HW235207  11.850   5.439   5.220
77790SOL     OW35208  12.219   7.498  11.240
77790SOL    HW135209  12.201   7.591  11.257
77790SOL    HW235210  12.133   7.460  11.226
77791SOL     OW35211  10.745   4.448   9.098
77791SOL    HW135212  10.711   4.514   9.157
77791SOL    HW235213  10.815   4.405   9.147
77792SOL     OW35214  10.814  14.717  10.942
77792SOL    HW135215  10.825  14.628  10.910
77792SOL    HW235216  10.758  14.708  11.019
77793SOL     OW35217   5.228  10.480  12.500
77793SOL    HW135218   5.158  10.427  12.462
77793SOL    HW235219   5.284  10.417  12.544
77794SOL     OW35220  11.712   7.349   0.477
77794SOL    HW135221  11.793   7.399   0.476
77794SOL    HW235222  11.644   7.414   0.457
77795SOL     OW35223   2.521  10.160   2.051
77795SOL    HW135224   2.471  10.225   2.100
77795SOL    HW235225   2.478  10.077   2.071
77796SOL     OW35226   6.401   0.636  11.043
77796SOL    HW135227   6.442   0.692  10.976
77796SOL    HW235228   6.394   0.550  11.001
77797SOL     OW35229   0.972   4.502  13.420
77797SOL    HW135230   1.014   4.528  13.338
77797SOL    HW235231   0.878   4.518  13.405
77798SOL     OW35232   6.077   0.720   6.228
77798SOL    HW135233   6.069   0.630   6.195
77798SOL    HW235234   6.086   0.710   6.323
77799SOL     OW35235  14.254   1.921   0.476
77799SOL    HW135236  14.336   1.971   0.483
77799SOL    HW235237  14.188   1.976   0.517
77800SOL     OW35238   0.433   9.698  14.440
77800SOL    HW135239   0.437   9.732  14.529
77800SOL    HW235240   0.442   9.775  14.384
77801SOL     OW35241   1.148   0.140   9.390
77801SOL    HW135242   1.059   0.160   9.420
77801SOL    HW235243   1.198   0.132   9.471
77802SOL     OW35244   4.969   2.902   4.307
77802SOL    HW135245   4.974   2.957   4.228
77802SOL    HW235246   5.022   2.947   4.372
77803SOL     OW35247   6.398   3.820   1.639
77803SOL    HW135248   6.470   3.882   1.654
77803SOL    HW235249   6.441   3.734   1.632
77804SOL     OW35250   0.604  12.199   5.942
77804SOL    HW135251   0.545  12.274   5.936
77804SOL    HW235252   0.621  12.189   6.036
77805SOL     OW35253   7.005  10.931   4.560
77805SOL    HW135254   6.971  10.844   4.582
77805SOL    HW235255   6.980  10.943   4.468
77806SOL     OW35256   8.566   0.102   9.179
77806SOL    HW135257   8.644   0.052   9.204
77806SOL    HW235258   8.526   0.128   9.262
77807SOL     OW35259   2.702   8.581   9.532
77807SOL    HW135260   2.728   8.493   9.558
77807SOL    HW235261   2.712   8.582   9.436
77808SOL     OW35262   4.558   2.656   1.837
77808SOL    HW135263   4.582   2.569   1.869
77808SOL    HW235264   4.529   2.703   1.914
77809SOL     OW35265   8.163  10.163   3.769
77809SOL    HW135266   8.160  10.153   3.864
77809SOL    HW235267   8.182  10.075   3.735
77810SOL     OW35268   7.155   8.699   9.473
77810SOL    HW135269   7.145   8.723   9.380
77810SOL    HW235270   7.244   8.727   9.495
77811SOL     OW35271  13.661   2.618   9.056
77811SOL    HW135272  13.577   2.572   9.054
77811SOL    HW235273  13.638   2.710   9.067
77812SOL     OW35274  14.822  14.581  11.911
77812SOL    HW135275  14.777  14.586  11.827
77812SOL    HW235276   0.032  14.609  11.892
77813SOL     OW35277   9.166   1.487  10.042
77813SOL    HW135278   9.108   1.435  10.096
77813SOL    HW235279   9.145   1.578  10.065
77814SOL     OW35280   8.666   5.612  13.532
77814SOL    HW135281   8.698   5.543  13.591
77814SOL    HW235282   8.709   5.592  13.448
77815SOL     OW35283   0.643  12.558  10.487
77815SOL    HW135284   0.661  12.470  10.520
77815SOL    HW235285   0.712  12.574  10.423
77816SOL     OW35286  10.904  11.588   8.516
77816SOL    HW135287  10.933  11.673   8.483
77816SOL    HW235288  10.824  11.569   8.467
77817SOL     OW35289   7.785  13.303  10.368
77817SOL    HW135290   7.712  13.327  10.426
77817SOL    HW235291   7.803  13.382  10.318
77818SOL     OW35292  13.653  13.243  11.865
77818SOL    HW135293  13.636  13.230  11.958
77818SOL    HW235294  13.745  13.217  11.854
77819SOL     OW35295   2.020   3.423  11.979
77819SOL    HW135296   2.035   3.329  11.990
77819SOL    HW235297   2.056   3.463  12.058
77820SOL     OW35298   0.042   1.444  12.644
77820SOL    HW135299   0.047   1.423  12.551
77820SOL    HW235300  14.872   1.371  12.682
77821SOL     OW35301  10.026   5.224  12.673
77821SOL    HW135302  10.021   5.131  12.652
77821SOL    HW235303  10.035   5.225  12.769
77822SOL     OW35304  12.059   1.744   6.834
77822SOL    HW135305  12.143   1.724   6.793
77822SOL    HW235306  12.014   1.659   6.837
77823SOL     OW35307   8.459  10.849   7.132
77823SOL    HW135308   8.464  10.785   7.061
77823SOL    HW235309   8.532  10.827   7.190
77824SOL     OW35310  10.012  12.524  10.034
77824SOL    HW135311   9.922  12.535  10.064
77824SOL    HW235312  10.044  12.447  10.082
77825SOL     OW35313   3.945   0.977   4.891
77825SOL    HW135314   3.938   0.920   4.968
77825SOL    HW235315   3.979   0.920   4.822
77826SOL     OW35316   8.498  14.323   6.160
77826SOL    HW135317   8.502  14.409   6.117
77826SOL    HW235318   8.510  14.343   6.253
77827SOL     OW35319   9.509   0.275   0.825
77827SOL    HW135320   9.580   0.334   0.798
77827SOL    HW235321   9.498   0.294   0.919
77828SOL     OW35322  13.418  14.224   4.181
77828SOL    HW135323  13.484  14.244   4.114
77828SOL    HW235324  13.433  14.132   4.202
77829SOL     OW35325  13.742   6.602   3.994
77829SOL    HW135326  13.697   6.525   3.961
77829SOL    HW235327  13.751   6.585   4.088
77830SOL     OW35328   1.158   2.348   6.968
77830SOL    HW135329   1.235   2.294   6.984
77830SOL    HW235330   1.102   2.332   7.044
77831SOL     OW35331   3.874  12.983   0.767
77831SOL    HW135332   3.907  12.894   0.757
77831SOL    HW235333   3.904  13.028   0.688
77832SOL     OW35334  10.000   9.609  10.507
77832SOL    HW135335   9.998   9.693  10.461
77832SOL    HW235336  10.014   9.633  10.599
77833SOL     OW35337   0.211   7.917   7.406
77833SOL    HW135338   0.148   7.989   7.406
77833SOL    HW235339   0.159   7.839   7.421
77834SOL     OW35340   5.410   8.192  14.673
77834SOL    HW135341   5.505   8.181  14.677
77834SOL    HW235342   5.385   8.159  14.586
77835SOL     OW35343   5.910   2.550   7.114
77835SOL    HW135344   5.991   2.535   7.065
77835SOL    HW235345   5.877   2.462   7.134
77836SOL     OW35346   1.346  10.341   7.942
77836SOL    HW135347   1.253  10.359   7.928
77836SOL    HW235348   1.350  10.288   8.021
77837SOL     OW35349  12.704   1.448   7.252
77837SOL    HW135350  12.616   1.441   7.217
77837SOL    HW235351  12.693   1.447   7.347
77838SOL     OW35352   3.292   1.599  11.224
77838SOL    HW135353   3.353   1.652  11.276
77838SOL    HW235354   3.346   1.563  11.153
77839SOL     OW35355   9.326   3.053  11.413
77839SOL    HW135356   9.343   3.143  11.387
77839SOL    HW235357   9.302   3.009  11.332
77840SOL     OW35358   8.112  11.151   3.310
77840SOL    HW135359   8.144  11.138   3.221
77840SOL    HW235360   8.184  11.193   3.356
77841SOL     OW35361   1.249   0.559   8.353
77841SOL    HW135362   1.209   0.528   8.434
77841SOL    HW235363   1.299   0.637   8.379
77842SOL     OW35364   0.784   6.226   4.944
77842SOL    HW135365   0.823   6.279   5.013
77842SOL    HW235366   0.858   6.198   4.890
77843SOL     OW35367  14.740   8.660   2.308
77843SOL    HW135368  14.708   8.626   2.392
77843SOL    HW235369  14.684   8.617   2.243
77844SOL     OW35370   0.868  13.916   5.929
77844SOL    HW135371   0.829  13.876   5.850
77844SOL    HW235372   0.793  13.931   5.987
77845SOL     OW35373  13.446   3.608  13.696
77845SOL    HW135374  13.370   3.588  13.751
77845SOL    HW235375  13.410   3.612  13.607
77846SOL     OW35376   4.309   8.484   1.688
77846SOL    HW135377   4.378   8.541   1.656
77846SOL    HW235378   4.249   8.543   1.734
77847SOL     OW35379   3.470   5.699   2.789
77847SOL    HW135380   3.551   5.740   2.757
77847SOL    HW235381   3.495   5.608   2.807
77848SOL     OW35382   5.940   4.591   1.060
77848SOL    HW135383   5.853   4.591   1.102
77848SOL    HW235384   5.922   4.567   0.969
77849SOL     OW35385  10.823   1.366   6.437
77849SOL    HW135386  10.838   1.414   6.356
77849SOL    HW235387  10.909   1.328   6.459
77850SOL     OW35388   1.669  14.398  12.138
77850SOL    HW135389   1.589  14.450  12.128
77850SOL    HW235390   1.737  14.452  12.098
77851SOL     OW35391   5.020   1.416  12.570
77851SOL    HW135392   5.031   1.325  12.541
77851SOL    HW235393   4.981   1.408  12.657
77852SOL     OW35394  12.329   6.358   9.263
77852SOL    HW135395  12.404   6.301   9.282
77852SOL    HW235396  12.360   6.446   9.284
77853SOL     OW35397  12.287   2.942   3.395
77853SOL    HW135398  12.219   2.995   3.352
77853SOL    HW235399  12.242   2.899   3.467
77854SOL     OW35400  14.079   6.291  12.714
77854SOL    HW135401  14.147   6.332  12.660
77854SOL    HW235402  14.018   6.362  12.733
77855SOL     OW35403  14.103   3.405   3.922
77855SOL    HW135404  14.065   3.343   3.861
77855SOL    HW235405  14.177   3.359   3.962
77856SOL     OW35406   2.047   2.648   7.680
77856SOL    HW135407   2.096   2.574   7.714
77856SOL    HW235408   1.961   2.612   7.657
77857SOL     OW35409  10.906   9.056   8.886
77857SOL    HW135410  10.907   9.086   8.795
77857SOL    HW235411  10.856   8.974   8.884
77858SOL     OW35412  10.289   7.966  14.085
77858SOL    HW135413  10.360   8.006  14.035
77858SOL    HW235414  10.210   7.989  14.037
77859SOL     OW35415   7.529   2.517   9.123
77859SOL    HW135416   7.566   2.438   9.162
77859SOL    HW235417   7.560   2.588   9.180
77860SOL     OW35418  13.574   7.725  11.395
77860SOL    HW135419  13.568   7.657  11.463
77860SOL    HW235420  13.631   7.792  11.432
77861SOL     OW35421   5.856  14.734   6.080
77861SOL    HW135422   5.894  14.799   6.021
77861SOL    HW235423   5.877  14.765   6.168
77862SOL     OW35424   0.362   4.855   3.032
77862SOL    HW135425   0.416   4.787   3.073
77862SOL    HW235426   0.410   4.936   3.047
77863SOL     OW35427   4.097  11.057   8.814
77863SOL    HW135428   4.166  11.122   8.806
77863SOL    HW235429   4.079  11.029   8.725
77864SOL     OW35430   3.595   5.513  10.658
77864SOL    HW135431   3.653   5.467  10.597
77864SOL    HW235432   3.548   5.576  10.604
77865SOL     OW35433  13.057   6.989   7.744
77865SOL    HW135434  13.094   6.906   7.774
77865SOL    HW235435  13.079   6.991   7.650
77866SOL     OW35436   5.520   1.214   4.646
77866SOL    HW135437   5.470   1.157   4.704
77866SOL    HW235438   5.589   1.158   4.611
77867SOL     OW35439   1.659   9.097   6.510
77867SOL    HW135440   1.628   9.069   6.425
77867SOL    HW235441   1.755   9.097   6.502
77868SOL     OW35442   4.379  10.453   7.378
77868SOL    HW135443   4.369  10.424   7.287
77868SOL    HW235444   4.451  10.515   7.376
77869SOL     OW35445   1.746   5.391   5.115
77869SOL    HW135446   1.754   5.300   5.087
77869SOL    HW235447   1.797   5.396   5.196
77870SOL     OW35448   3.809  12.507   7.883
77870SOL    HW135449   3.741  12.442   7.864
77870SOL    HW235450   3.836  12.489   7.973
77871SOL     OW35451   5.931  11.340  13.480
77871SOL    HW135452   6.000  11.291  13.524
77871SOL    HW235453   5.977  11.391  13.413
77872SOL     OW35454  11.574   1.874   9.075
77872SOL    HW135455  11.588   1.945   9.139
77872SOL    HW235456  11.656   1.825   9.076
77873SOL     OW35457   0.414   7.390  12.195
77873SOL    HW135458   0.490   7.419  12.144
77873SOL    HW235459   0.339   7.431  12.153
77874SOL     OW35460   5.444   5.212   8.881
77874SOL    HW135461   5.417   5.241   8.968
77874SOL    HW235462   5.447   5.116   8.887
77875SOL     OW35463   0.306  13.697   5.850
77875SOL    HW135464   0.272  13.722   5.765
77875SOL    HW235465   0.296  13.602   5.854
77876SOL     OW35466  14.879   6.036   8.977
77876SOL    HW135467  14.853   6.039   8.885
77876SOL    HW235468   0.026   5.945   8.992
77877SOL     OW35469   5.437   7.528   9.904
77877SOL    HW135470   5.511   7.497   9.851
77877SOL    HW235471   5.391   7.448   9.930
77878SOL     OW35472   2.349  12.775   1.483
77878SOL    HW135473   2.339  12.856   1.432
77878SOL    HW235474   2.370  12.708   1.418
77879SOL     OW35475   4.853  13.940   0.502
77879SOL    HW135476   4.914  13.942   0.576
77879SOL    HW235477   4.849  13.848   0.477
77880SOL     OW35478   2.742   1.082  13.851
77880SOL    HW135479   2.664   1.030  13.831
77880SOL    HW235480   2.707   1.168  13.876
77881SOL     OW35481   3.273   2.325   1.670
77881SOL    HW135482   3.325   2.256   1.711
77881SOL    HW235483   3.196   2.279   1.635
77882SOL     OW35484  12.420   4.754   5.829
77882SOL    HW135485  12.376   4.679   5.790
77882SOL    HW235486  12.351   4.819   5.840
77883SOL     OW35487  12.530   7.479  13.631
77883SOL    HW135488  12.552   7.523  13.549
77883SOL    HW235489  12.460   7.418  13.607
77884SOL     OW35490  10.497  12.922   1.543
77884SOL    HW135491  10.557  12.977   1.492
77884SOL    HW235492  10.441  12.882   1.477
77885SOL     OW35493   8.887  10.305   9.937
77885SOL    HW135494   8.895  10.270   9.848
77885SOL    HW235495   8.973  10.289   9.977
77886SOL     OW35496   7.716   3.953  12.660
77886SOL    HW135497   7.760   3.983  12.739
77886SOL    HW235498   7.683   3.866  12.682
77887SOL     OW35499   3.499  13.388  12.839
77887SOL    HW135500   3.414  13.360  12.873
77887SOL    HW235501   3.548  13.417  12.917
77888SOL     OW35502   6.786  10.824  12.862
77888SOL    HW135503   6.850  10.764  12.901
77888SOL    HW235504   6.837  10.874  12.798
77889SOL     OW35505  14.056   7.857  12.635
77889SOL    HW135506  14.120   7.876  12.703
77889SOL    HW235507  13.987   7.921  12.648
77890SOL     OW35508  10.356   7.222   2.279
77890SOL    HW135509  10.270   7.263   2.273
77890SOL    HW235510  10.367   7.204   2.372
77891SOL     OW35511  12.616   8.404   7.238
77891SOL    HW135512  12.606   8.490   7.198
77891SOL    HW235513  12.691   8.365   7.194
77892SOL     OW35514  12.077  13.203   4.504
77892SOL    HW135515  12.024  13.201   4.424
77892SOL    HW235516  12.150  13.144   4.486
77893SOL     OW35517   5.757   2.679  14.126
77893SOL    HW135518   5.735   2.650  14.215
77893SOL    HW235519   5.704   2.624  14.069
77894SOL     OW35520   1.562  12.464  14.721
77894SOL    HW135521   1.593  12.373  14.715
77894SOL    HW235522   1.619  12.512  14.661
77895SOL     OW35523   7.820   8.311  14.593
77895SOL    HW135524   7.803   8.247  14.662
77895SOL    HW235525   7.897   8.277  14.547
77896SOL     OW35526   2.182   6.244  13.284
77896SOL    HW135527   2.163   6.159  13.324
77896SOL    HW235528   2.146   6.308  13.347
77897SOL     OW35529  14.744   8.997   7.831
77897SOL    HW135530  14.813   9.022   7.768
77897SOL    HW235531  14.791   8.955   7.903
77898SOL     OW35532   4.748  11.547   7.062
77898SOL    HW135533   4.837  11.575   7.084
77898SOL    HW235534   4.696  11.627   7.069
77899SOL     OW35535  13.555   0.368   2.354
77899SOL    HW135536  13.522   0.324   2.276
77899SOL    HW235537  13.478   0.411   2.392
77900SOL     OW35538   6.912   4.070   7.808
77900SOL    HW135539   6.862   4.108   7.880
77900SOL    HW235540   6.946   4.146   7.760
77901SOL     OW35541  10.265   3.266   3.923
77901SOL    HW135542  10.270   3.227   4.010
77901SOL    HW235543  10.355   3.274   3.894
77902SOL     OW35544   1.357   8.253   6.476
77902SOL    HW135545   1.291   8.293   6.420
77902SOL    HW235546   1.340   8.289   6.563
77903SOL     OW35547   3.442   3.331  12.580
77903SOL    HW135548   3.438   3.378  12.497
77903SOL    HW235549   3.460   3.241  12.555
77904SOL     OW35550   6.471   5.436  10.823
77904SOL    HW135551   6.411   5.388  10.879
77904SOL    HW235552   6.553   5.388  10.828
77905SOL     OW35553   4.619   6.497   8.488
77905SOL    HW135554   4.669   6.423   8.453
77905SOL    HW235555   4.615   6.481   8.582
77906SOL     OW35556  13.130   6.260   2.648
77906SOL    HW135557  13.196   6.310   2.601
77906SOL    HW235558  13.046   6.293   2.613
77907SOL     OW35559   7.664  13.935   4.166
77907SOL    HW135560   7.727  13.953   4.235
77907SOL    HW235561   7.679  13.843   4.144
77908SOL     OW35562   1.226   8.661   4.275
77908SOL    HW135563   1.161   8.598   4.245
77908SOL    HW235564   1.284   8.610   4.332
77909SOL     OW35565  14.408  13.365   8.129
77909SOL    HW135566  14.379  13.292   8.183
77909SOL    HW235567  14.328  13.405   8.096
77910SOL     OW35568   3.202   2.055   4.990
77910SOL    HW135569   3.261   1.997   4.941
77910SOL    HW235570   3.183   2.127   4.930
77911SOL     OW35571   2.338  12.304   2.328
77911SOL    HW135572   2.374  12.259   2.252
77911SOL    HW235573   2.409  12.306   2.392
77912SOL     OW35574   2.085   2.214   5.866
77912SOL    HW135575   2.033   2.151   5.915
77912SOL    HW235576   2.073   2.297   5.914
77913SOL     OW35577   0.870  11.537   6.317
77913SOL    HW135578   0.877  11.565   6.225
77913SOL    HW235579   0.950  11.569   6.358
77914SOL     OW35580   5.537   3.558   2.583
77914SOL    HW135581   5.486   3.602   2.651
77914SOL    HW235582   5.580   3.629   2.536
77915SOL     OW35583   8.298   9.108   7.093
77915SOL    HW135584   8.246   9.187   7.073
77915SOL    HW235585   8.316   9.115   7.187
77916SOL     OW35586   6.714  12.955   4.455
77916SOL    HW135587   6.744  12.903   4.381
77916SOL    HW235588   6.631  12.992   4.427
77917SOL     OW35589  10.395   5.234   1.146
77917SOL    HW135590  10.433   5.240   1.058
77917SOL    HW235591  10.314   5.184   1.133
77918SOL     OW35592   1.720  10.514  10.405
77918SOL    HW135593   1.705  10.528  10.311
77918SOL    HW235594   1.760  10.596  10.435
77919SOL     OW35595   0.322   5.968   4.937
77919SOL    HW135596   0.237   6.011   4.928
77919SOL    HW235597   0.364   5.979   4.852
77920SOL     OW35598   0.295  11.152   5.165
77920SOL    HW135599   0.246  11.130   5.244
77920SOL    HW235600   0.241  11.216   5.120
77921SOL     OW35601   4.295   1.532   8.318
77921SOL    HW135602   4.287   1.584   8.398
77921SOL    HW235603   4.277   1.594   8.247
77922SOL     OW35604   8.615   3.950  14.462
77922SOL    HW135605   8.560   4.026  14.448
77922SOL    HW235606   8.554   3.878  14.477
77923SOL     OW35607   3.355   5.377   3.643
77923SOL    HW135608   3.389   5.344   3.726
77923SOL    HW235609   3.348   5.472   3.655
77924SOL     OW35610   4.090  14.397  11.356
77924SOL    HW135611   3.998  14.395  11.382
77924SOL    HW235612   4.137  14.364  11.432
77925SOL     OW35613   9.796  14.298   5.525
77925SOL    HW135614   9.817  14.383   5.486
77925SOL    HW235615   9.877  14.270   5.567
77926SOL     OW35616  13.638  14.773   0.598
77926SOL    HW135617  13.711  14.768   0.660
77926SOL    HW235618  13.577  14.705   0.627
77927SOL     OW35619  12.053   3.106   4.138
77927SOL    HW135620  12.043   3.139   4.048
77927SOL    HW235621  12.141   3.133   4.163
77928SOL     OW35622  12.139   7.812  12.801
77928SOL    HW135623  12.131   7.722  12.833
77928SOL    HW235624  12.053   7.851  12.815
77929SOL     OW35625   3.707   1.692   1.524
77929SOL    HW135626   3.779   1.748   1.552
77929SOL    HW235627   3.729   1.605   1.559
77930SOL     OW35628   3.154   5.459   5.911
77930SOL    HW135629   3.138   5.547   5.878
77930SOL    HW235630   3.151   5.468   6.007
77931SOL     OW35631   3.989  10.981   7.150
77931SOL    HW135632   3.988  10.889   7.123
77931SOL    HW235633   3.920  11.022   7.099
77932SOL     OW35634  13.650   2.821  13.827
77932SOL    HW135635  13.696   2.787  13.750
77932SOL    HW235636  13.587   2.884  13.791
77933SOL     OW35637  12.446  13.749   2.150
77933SOL    HW135638  12.473  13.738   2.059
77933SOL    HW235639  12.527  13.742   2.200
77934SOL     OW35640   5.348   5.448   5.939
77934SOL    HW135641   5.281   5.453   6.007
77934SOL    HW235642   5.300   5.433   5.858
77935SOL     OW35643   1.291   2.014  14.190
77935SOL    HW135644   1.370   1.962  14.202
77935SOL    HW235645   1.242   2.003  14.271
77936SOL     OW35646  13.248   9.751   6.879
77936SOL    HW135647  13.159   9.725   6.905
77936SOL    HW235648  13.248   9.846   6.885
77937SOL     OW35649   3.376  13.206   2.760
77937SOL    HW135650   3.310  13.141   2.785
77937SOL    HW235651   3.333  13.291   2.774
77938SOL     OW35652  12.981  10.162  12.206
77938SOL    HW135653  13.055  10.142  12.149
77938SOL    HW235654  13.001  10.248  12.243
77939SOL     OW35655  10.756  12.681   4.703
77939SOL    HW135656  10.796  12.767   4.714
77939SOL    HW235657  10.799  12.627   4.769
77940SOL     OW35658  11.244   0.715   6.749
77940SOL    HW135659  11.216   0.778   6.816
77940SOL    HW235660  11.326   0.750   6.715
77941SOL     OW35661   7.205   8.434   1.164
77941SOL    HW135662   7.277   8.496   1.174
77941SOL    HW235663   7.157   8.465   1.087
77942SOL     OW35664   9.440   2.242   6.297
77942SOL    HW135665   9.381   2.294   6.242
77942SOL    HW235666   9.397   2.241   6.383
77943SOL     OW35667  13.377   0.163   4.885
77943SOL    HW135668  13.440   0.120   4.943
77943SOL    HW235669  13.380   0.113   4.804
77944SOL     OW35670   1.054   7.707  12.090
77944SOL    HW135671   1.052   7.752  12.006
77944SOL    HW235672   1.020   7.619  12.071
77945SOL     OW35673  13.503  14.619   3.892
77945SOL    HW135674  13.478  14.710   3.878
77945SOL    HW235675  13.484  14.576   3.809
77946SOL     OW35676   7.260   7.645   2.847
77946SOL    HW135677   7.271   7.630   2.941
77946SOL    HW235678   7.197   7.579   2.819
77947SOL     OW35679  14.501   2.332   9.212
77947SOL    HW135680  14.424   2.356   9.264
77947SOL    HW235681  14.522   2.243   9.240
77948SOL     OW35682   6.003   6.045   0.728
77948SOL    HW135683   5.966   5.998   0.653
77948SOL    HW235684   5.927   6.080   0.774
77949SOL     OW35685   6.413  10.059   6.011
77949SOL    HW135686   6.436  10.014   6.092
77949SOL    HW235687   6.342  10.007   5.973
77950SOL     OW35688   3.580   9.356   5.803
77950SOL    HW135689   3.604   9.344   5.711
77950SOL    HW235690   3.663   9.345   5.850
77951SOL     OW35691   1.546  14.652  13.064
77951SOL    HW135692   1.467  14.600  13.053
77951SOL    HW235693   1.548  14.709  12.987
77952SOL     OW35694   7.397   1.897   0.620
77952SOL    HW135695   7.367   1.860   0.537
77952SOL    HW235696   7.345   1.851   0.687
77953SOL     OW35697   0.585  12.820   6.806
77953SOL    HW135698   0.555  12.796   6.718
77953SOL    HW235699   0.644  12.749   6.831
77954SOL     OW35700  13.003   2.505   5.974
77954SOL    HW135701  12.989   2.579   5.914
77954SOL    HW235702  13.098   2.505   5.989
77955SOL     OW35703   5.004   7.013   5.904
77955SOL    HW135704   5.034   7.019   5.814
77955SOL    HW235705   5.020   7.100   5.941
77956SOL     OW35706   0.452  11.755   0.256
77956SOL    HW135707   0.403  11.778   0.335
77956SOL    HW235708   0.476  11.839   0.217
77957SOL     OW35709   1.950   8.914   8.769
77957SOL    HW135710   1.894   8.912   8.846
77957SOL    HW235711   2.036   8.888   8.802
77958SOL     OW35712  14.557   1.127   3.784
77958SOL    HW135713  14.489   1.190   3.761
77958SOL    HW235714  14.637   1.178   3.788
77959SOL     OW35715   6.783  11.681  11.959
77959SOL    HW135716   6.840  11.748  11.919
77959SOL    HW235717   6.764  11.620  11.887
77960SOL     OW35718   8.299   5.560   6.919
77960SOL    HW135719   8.329   5.559   7.010
77960SOL    HW235720   8.245   5.481   6.910
77961SOL     OW35721   6.442  10.803  10.115
77961SOL    HW135722   6.402  10.726  10.075
77961SOL    HW235723   6.370  10.849  10.157
77962SOL     OW35724   4.717   7.993  11.766
77962SOL    HW135725   4.680   7.963  11.849
77962SOL    HW235726   4.677   8.079  11.751
77963SOL     OW35727   4.115   3.721  13.842
77963SOL    HW135728   4.043   3.660  13.856
77963SOL    HW235729   4.086   3.803  13.880
77964SOL     OW35730   1.221   4.664   1.004
77964SOL    HW135731   1.173   4.618   0.936
77964SOL    HW235732   1.272   4.730   0.957
77965SOL     OW35733   8.869   6.783   3.915
77965SOL    HW135734   8.915   6.747   3.991
77965SOL    HW235735   8.786   6.816   3.950
77966SOL     OW35736   4.122   7.224   8.350
77966SOL    HW135737   4.189   7.169   8.390
77966SOL    HW235738   4.169   7.303   8.322
77967SOL     OW35739   2.211   9.626  13.326
77967SOL    HW135740   2.176   9.592  13.243
77967SOL    HW235741   2.262   9.703  13.301
77968SOL     OW35742   9.009   9.140   7.606
77968SOL    HW135743   8.992   9.197   7.531
77968SOL    HW235744   8.943   9.165   7.671
77969SOL     OW35745   1.190   5.817   0.804
77969SOL    HW135746   1.108   5.850   0.842
77969SOL    HW235747   1.199   5.728   0.838
77970SOL     OW35748   2.049   3.684  13.526
77970SOL    HW135749   1.956   3.663  13.527
77970SOL    HW235750   2.073   3.681  13.434
77971SOL     OW35751   8.562   1.114   5.316
77971SOL    HW135752   8.617   1.036   5.308
77971SOL    HW235753   8.538   1.117   5.409
77972SOL     OW35754  12.039  12.261   8.628
77972SOL    HW135755  12.128  12.249   8.597
77972SOL    HW235756  12.047  12.264   8.724
77973SOL     OW35757   5.755   3.455   3.399
77973SOL    HW135758   5.757   3.397   3.323
77973SOL    HW235759   5.801   3.406   3.467
77974SOL     OW35760   5.210  10.725   4.679
77974SOL    HW135761   5.223  10.686   4.593
77974SOL    HW235762   5.299  10.734   4.715
77975SOL     OW35763  10.296   2.245  14.164
77975SOL    HW135764  10.217   2.288  14.130
77975SOL    HW235765  10.341   2.315  14.213
77976SOL     OW35766   5.453   2.980  10.559
77976SOL    HW135767   5.475   3.017  10.474
77976SOL    HW235768   5.402   3.048  10.602
77977SOL     OW35769   2.730  13.202   3.945
77977SOL    HW135770   2.681  13.260   3.887
77977SOL    HW235771   2.811  13.249   3.963
77978SOL     OW35772   3.112  11.037   2.174
77978SOL    HW135773   3.115  10.948   2.137
77978SOL    HW235774   3.192  11.078   2.141
77979SOL     OW35775   1.908   0.196   8.015
77979SOL    HW135776   1.822   0.182   8.053
77979SOL    HW235777   1.937   0.280   8.051
77980SOL     OW35778   6.179   9.858  11.377
77980SOL    HW135779   6.205   9.880  11.466
77980SOL    HW235780   6.149   9.942  11.340
77981SOL     OW35781   9.020  10.466   5.414
77981SOL    HW135782   9.066  10.515   5.481
77981SOL    HW235783   9.026  10.374   5.442
77982SOL     OW35784   2.028   8.998   4.800
77982SOL    HW135785   1.950   9.052   4.815
77982SOL    HW235786   1.996   8.908   4.799
77983SOL     OW35787   8.138  12.358   2.550
77983SOL    HW135788   8.110  12.347   2.641
77983SOL    HW235789   8.189  12.439   2.550
77984SOL     OW35790   9.204   7.312  10.770
77984SOL    HW135791   9.258   7.365  10.711
77984SOL    HW235792   9.151   7.258  10.711
77985SOL     OW35793   8.575   8.482   0.172
77985SOL    HW135794   8.555   8.440   0.089
77985SOL    HW235795   8.658   8.443   0.200
77986SOL     OW35796   3.854   4.469   7.477
77986SOL    HW135797   3.895   4.510   7.553
77986SOL    HW235798   3.921   4.474   7.409
77987SOL     OW35799   6.474   6.644   2.435
77987SOL    HW135800   6.415   6.573   2.459
77987SOL    HW235801   6.423   6.699   2.376
77988SOL     OW35802   8.405   6.639  14.224
77988SOL    HW135803   8.397   6.728  14.188
77988SOL    HW235804   8.410   6.651  14.318
77989SOL     OW35805   3.177  13.205   9.878
77989SOL    HW135806   3.141  13.292   9.894
77989SOL    HW235807   3.270  13.213   9.898
77990SOL     OW35808   6.672   0.333  12.449
77990SOL    HW135809   6.624   0.258  12.484
77990SOL    HW235810   6.604   0.393  12.419
77991SOL     OW35811   9.206   4.864  14.426
77991SOL    HW135812   9.148   4.925  14.379
77991SOL    HW235813   9.252   4.817  14.357
77992SOL     OW35814  13.587   4.508   9.682
77992SOL    HW135815  13.681   4.527   9.683
77992SOL    HW235816  13.581   4.416   9.705
77993SOL     OW35817  13.803  14.796   2.038
77993SOL    HW135818  13.822  14.732   2.107
77993SOL    HW235819  13.847  14.762   1.960
77994SOL     OW35820   3.599  13.646  14.808
77994SOL    HW135821   3.513  13.690  14.801
77994SOL    HW235822   3.605  13.595  14.727
77995SOL     OW35823   9.333   2.287   5.199
77995SOL    HW135824   9.265   2.348   5.170
77995SOL    HW235825   9.359   2.241   5.119
77996SOL     OW35826   3.975  14.827   8.489
77996SOL    HW135827   4.068  14.828   8.464
77996SOL    HW235828   3.958  14.736   8.513
77997SOL     OW35829  12.738   0.922   7.767
77997SOL    HW135830  12.807   0.858   7.750
77997SOL    HW235831  12.724   0.964   7.682
77998SOL     OW35832   2.631   5.645  13.645
77998SOL    HW135833   2.666   5.692  13.721
77998SOL    HW235834   2.572   5.707  13.603
77999SOL     OW35835   9.987   2.666   3.938
77999SOL    HW135836  10.071   2.709   3.957
77999SOL    HW235837   9.984   2.661   3.843
78000SOL     OW35838   5.574   8.889   6.683
78000SOL    HW135839   5.585   8.933   6.767
78000SOL    HW235840   5.626   8.809   6.691
78001SOL     OW35841  10.065   0.875   7.033
78001SOL    HW135842   9.971   0.887   7.042
78001SOL    HW235843  10.085   0.907   6.945
78002SOL     OW35844   4.712   1.338   7.088
78002SOL    HW135845   4.774   1.287   7.140
78002SOL    HW235846   4.765   1.380   7.020
78003SOL     OW35847   4.037  10.198   1.446
78003SOL    HW135848   3.945  10.180   1.426
78003SOL    HW235849   4.061  10.271   1.388
78004SOL     OW35850   1.049  10.218   5.630
78004SOL    HW135851   1.011  10.286   5.685
78004SOL    HW235852   0.999  10.139   5.651
78005SOL     OW35853  10.418  10.807   8.470
78005SOL    HW135854  10.403  10.895   8.506
78005SOL    HW235855  10.470  10.763   8.537
78006SOL     OW35856  10.775   4.984   1.328
78006SOL    HW135857  10.757   5.050   1.395
78006SOL    HW235858  10.695   4.980   1.276
78007SOL     OW35859   9.959  12.277   9.114
78007SOL    HW135860  10.001  12.191   9.121
78007SOL    HW235861   9.934  12.284   9.022
78008SOL     OW35862  10.458   4.431   0.254
78008SOL    HW135863  10.413   4.499   0.303
78008SOL    HW235864  10.438   4.451   0.162
78009SOL     OW35865  11.464   8.261  13.907
78009SOL    HW135866  11.477   8.348  13.945
78009SOL    HW235867  11.476   8.274  13.812
78010SOL     OW35868   4.121   2.882  14.875
78010SOL    HW135869   4.181   2.828  14.823
78010SOL    HW235870   4.178   2.946   0.039
78011SOL     OW35871   7.297  13.258   5.391
78011SOL    HW135872   7.269  13.273   5.481
78011SOL    HW235873   7.253  13.177   5.365
78012SOL     OW35874   5.518   4.151   7.606
78012SOL    HW135875   5.432   4.169   7.568
78012SOL    HW235876   5.512   4.184   7.696
78013SOL     OW35877   0.601   3.083  10.275
78013SOL    HW135878   0.543   3.125  10.211
78013SOL    HW235879   0.543   3.027  10.326
78014SOL     OW35880   2.030  10.254   6.781
78014SOL    HW135881   2.064  10.178   6.735
78014SOL    HW235882   2.103  10.315   6.786
78015SOL     OW35883  12.438  11.655  10.710
78015SOL    HW135884  12.423  11.567  10.676
78015SOL    HW235885  12.529  11.674  10.688
78016SOL     OW35886  12.202   9.302   8.606
78016SOL    HW135887  12.216   9.240   8.678
78016SOL    HW235888  12.107   9.307   8.597
78017SOL     OW35889  14.642  11.113   1.007
78017SOL    HW135890  14.685  11.033   0.979
78017SOL    HW235891  14.669  11.179   0.943
78018SOL     OW35892   3.576  11.780   7.799
78018SOL    HW135893   3.617  11.773   7.714
78018SOL    HW235894   3.485  11.805   7.780
78019SOL     OW35895   0.921   0.381   1.714
78019SOL    HW135896   0.894   0.470   1.689
78019SOL    HW235897   0.935   0.386   1.809
78020SOL     OW35898   0.006  11.205   1.155
78020SOL    HW135899  14.793  11.183   1.144
78020SOL    HW235900   0.045  11.190   1.069
78021SOL     OW35901   6.151  13.811  10.889
78021SOL    HW135902   6.202  13.773  10.817
78021SOL    HW235903   6.210  13.806  10.965
78022SOL     OW35904   6.279   7.147   6.526
78022SOL    HW135905   6.362   7.141   6.479
78022SOL    HW235906   6.244   7.058   6.524
78023SOL     OW35907   7.732   2.431   9.840
78023SOL    HW135908   7.766   2.365   9.779
78023SOL    HW235909   7.639   2.409   9.850
78024SOL     OW35910   2.390   9.726  14.119
78024SOL    HW135911   2.361   9.636  14.104
78024SOL    HW235912   2.479   9.729  14.084
78025SOL     OW35913   2.231  12.903   3.882
78025SOL    HW135914   2.173  12.905   3.957
78025SOL    HW235915   2.319  12.897   3.920
78026SOL     OW35916   4.902  10.535   6.922
78026SOL    HW135917   4.971  10.601   6.922
78026SOL    HW235918   4.945  10.455   6.951
78027SOL     OW35919   0.395   8.213  12.414
78027SOL    HW135920   0.419   8.121  12.405
78027SOL    HW235921   0.333   8.229  12.342
78028SOL     OW35922   1.826   1.890  13.674
78028SOL    HW135923   1.865   1.838  13.604
78028SOL    HW235924   1.881   1.872  13.751
78029SOL     OW35925  11.455  12.880   2.413
78029SOL    HW135926  11.492  12.893   2.500
78029SOL    HW235927  11.372  12.837   2.429
78030SOL     OW35928   2.665  12.352   7.588
78030SOL    HW135929   2.692  12.386   7.673
78030SOL    HW235930   2.707  12.410   7.525
78031SOL     OW35931  13.951   7.618   0.696
78031SOL    HW135932  13.943   7.558   0.623
78031SOL    HW235933  13.862   7.650   0.712
78032SOL     OW35934  10.094   9.348   1.775
78032SOL    HW135935  10.120   9.440   1.766
78032SOL    HW235936  10.063   9.341   1.865
78033SOL     OW35937   7.839   3.844   4.733
78033SOL    HW135938   7.743   3.849   4.742
78033SOL    HW235939   7.853   3.821   4.641
78034SOL     OW35940   8.664   9.994   0.182
78034SOL    HW135941   8.690   9.907   0.152
78034SOL    HW235942   8.745  10.044   0.182
78035SOL     OW35943   4.928   6.207   8.211
78035SOL    HW135944   4.893   6.136   8.157
78035SOL    HW235945   4.852   6.243   8.256
78036SOL     OW35946   5.087  10.955   4.311
78036SOL    HW135947   5.120  10.989   4.394
78036SOL    HW235948   5.050  10.870   4.332
78037SOL     OW35949   1.433  14.336  12.477
78037SOL    HW135950   1.459  14.422  12.444
78037SOL    HW235951   1.459  14.275  12.408
78038SOL     OW35952   3.253  14.457   8.872
78038SOL    HW135953   3.258  14.538   8.822
78038SOL    HW235954   3.231  14.485   8.961
78039SOL     OW35955   8.060   2.794   6.748
78039SOL    HW135956   8.003   2.854   6.701
78039SOL    HW235957   8.011   2.770   6.827
78040SOL     OW35958  11.053   5.796   4.306
78040SOL    HW135959  11.072   5.724   4.246
78040SOL    HW235960  11.081   5.875   4.259
78041SOL     OW35961   2.050   4.484  13.947
78041SOL    HW135962   2.126   4.463  13.892
78041SOL    HW235963   2.047   4.580  13.947
78042SOL     OW35964   5.747  12.006  12.883
78042SOL    HW135965   5.711  12.094  12.887
78042SOL    HW235966   5.793  12.002  12.799
78043SOL     OW35967   7.832   5.537  12.136
78043SOL    HW135968   7.920   5.520  12.171
78043SOL    HW235969   7.842   5.527  12.041
78044SOL     OW35970   8.490   7.417   4.801
78044SOL    HW135971   8.552   7.352   4.834
78044SOL    HW235972   8.479   7.393   4.709
78045SOL     OW35973  10.085   5.861  10.081
78045SOL    HW135974  10.161   5.849  10.023
78045SOL    HW235975  10.123   5.880  10.166
78046SOL     OW35976  11.164  14.800   2.137
78046SOL    HW135977  11.203  14.720   2.172
78046SOL    HW235978  11.184  14.798   2.044
78047SOL     OW35979   0.709   5.204   3.337
78047SOL    HW135980   0.781   5.267   3.344
78047SOL    HW235981   0.719   5.168   3.249
78048SOL     OW35982  12.610   0.475   4.998
78048SOL    HW135983  12.655   0.394   4.975
78048SOL    HW235984  12.635   0.536   4.928
78049SOL     OW35985  13.052   5.712   1.476
78049SOL    HW135986  13.103   5.690   1.398
78049SOL    HW235987  12.962   5.688   1.453
78050SOL     OW35988   4.740   9.070  11.108
78050SOL    HW135989   4.729   9.114  11.192
78050SOL    HW235990   4.664   9.096  11.057
78051SOL     OW35991   5.187   4.800   4.597
78051SOL    HW135992   5.157   4.772   4.511
78051SOL    HW235993   5.274   4.837   4.582
78052SOL     OW35994  11.999  13.310   2.834
78052SOL    HW135995  11.940  13.377   2.870
78052SOL    HW235996  11.955  13.227   2.852
78053SOL     OW35997  14.001   4.727  13.683
78053SOL    HW135998  13.996   4.734  13.778
78053SOL    HW235999  13.971   4.638  13.665
78054SOL     OW36000   5.355  13.695  13.022
78054SOL    HW136001   5.384  13.634  12.954
78054SOL    HW236002   5.334  13.775  12.975
78055SOL     OW36003   6.629   8.492  14.114
78055SOL    HW136004   6.720   8.498  14.085
78055SOL    HW236005   6.596   8.411  14.075
78056SOL     OW36006  14.646  14.422   2.356
78056SOL    HW136007  14.591  14.401   2.281
78056SOL    HW236008  14.707  14.488   2.324
78057SOL     OW36009   2.619   3.695   4.659
78057SOL    HW136010   2.595   3.785   4.639
78057SOL    HW236011   2.649   3.698   4.750
78058SOL     OW36012   4.210   3.274   5.315
78058SOL    HW136013   4.254   3.347   5.360
78058SOL    HW236014   4.215   3.201   5.376
78059SOL     OW36015  11.784  13.195   4.930
78059SOL    HW136016  11.792  13.153   5.015
78059SOL    HW236017  11.752  13.284   4.950
78060SOL     OW36018   1.015   5.366  11.379
78060SOL    HW136019   1.092   5.362  11.322
78060SOL    HW236020   0.952   5.308  11.337
78061SOL     OW36021   9.760   2.479  13.966
78061SOL    HW136022   9.742   2.474  13.872
78061SOL    HW236023   9.828   2.546  13.974
78062SOL     OW36024  13.058   3.216   5.836
78062SOL    HW136025  12.987   3.229   5.773
78062SOL    HW236026  13.046   3.127   5.869
78063SOL     OW36027   5.714   7.541   5.661
78063SOL    HW136028   5.675   7.521   5.746
78063SOL    HW236029   5.808   7.542   5.678
78064SOL     OW36030  11.778   8.796   0.846
78064SOL    HW136031  11.870   8.803   0.824
78064SOL    HW236032  11.776   8.801   0.942
78065SOL     OW36033   4.988   7.044   4.066
78065SOL    HW136034   4.898   7.016   4.081
78065SOL    HW236035   5.028   6.973   4.017
78066SOL     OW36036  10.333   8.641  12.056
78066SOL    HW136037  10.278   8.668  12.129
78066SOL    HW236038  10.419   8.625  12.094
78067SOL     OW36039   9.291  10.036   2.321
78067SOL    HW136040   9.370  10.087   2.340
78067SOL    HW236041   9.283  10.037   2.226
78068SOL     OW36042   4.790   8.438   4.080
78068SOL    HW136043   4.778   8.374   4.150
78068SOL    HW236044   4.840   8.509   4.120
78069SOL     OW36045  13.899  12.664   5.669
78069SOL    HW136046  13.803  12.664   5.667
78069SOL    HW236047  13.924  12.608   5.595
78070SOL     OW36048  12.048   6.020   6.011
78070SOL    HW136049  12.044   5.987   6.100
78070SOL    HW236050  12.014   5.948   5.957
78071SOL     OW36051  14.412   5.918   8.566
78071SOL    HW136052  14.329   5.960   8.544
78071SOL    HW236053  14.478   5.971   8.523
78072SOL     OW36054  12.139   0.570   6.114
78072SOL    HW136055  12.060   0.584   6.061
78072SOL    HW236056  12.154   0.476   6.111
78073SOL     OW36057  11.676   6.703  14.785
78073SOL    HW136058  11.744   6.714  14.719
78073SOL    HW236059  11.708   6.631  14.840
78074SOL     OW36060   0.739   6.384  14.402
78074SOL    HW136061   0.747   6.289  14.387
78074SOL    HW236062   0.697   6.391  14.487
78075SOL     OW36063   5.300   0.146   9.201
78075SOL    HW136064   5.359   0.088   9.248
78075SOL    HW236065   5.335   0.149   9.112
78076SOL     OW36066   6.596   0.832   3.089
78076SOL    HW136067   6.658   0.904   3.078
78076SOL    HW236068   6.640   0.772   3.150
78077SOL     OW36069   8.227  10.156  13.472
78077SOL    HW136070   8.300  10.195  13.424
78077SOL    HW236071   8.241  10.062  13.465
78078SOL     OW36072   1.088  10.111  12.251
78078SOL    HW136073   1.049  10.174  12.190
78078SOL    HW236074   1.013  10.071  12.295
78079SOL     OW36075   7.818   3.874  13.592
78079SOL    HW136076   7.780   3.924  13.664
78079SOL    HW236077   7.875   3.937  13.547
78080SOL     OW36078  13.101  13.856   4.855
78080SOL    HW136079  13.042  13.902   4.795
78080SOL    HW236080  13.121  13.774   4.809
78081SOL     OW36081   8.387   5.867  11.919
78081SOL    HW136082   8.311   5.910  11.956
78081SOL    HW236083   8.416   5.806  11.986
78082SOL     OW36084   2.935   9.867   4.724
78082SOL    HW136085   2.902   9.940   4.672
78082SOL    HW236086   3.000   9.906   4.782
78083SOL     OW36087  12.530   0.191  14.445
78083SOL    HW136088  12.611   0.157  14.482
78083SOL    HW236089  12.494   0.247  14.514
78084SOL     OW36090   3.018   9.442  13.483
78084SOL    HW136091   2.931   9.408  13.501
78084SOL    HW236092   3.015   9.532  13.515
78085SOL     OW36093   1.195  13.016   0.341
78085SOL    HW136094   1.165  13.079   0.275
78085SOL    HW236095   1.290  13.014   0.331
78086SOL     OW36096   3.446  11.500  14.421
78086SOL    HW136097   3.450  11.410  14.390
78086SOL    HW236098   3.483  11.552  14.349
78087SOL     OW36099  13.467  13.338   8.329
78087SOL    HW136100  13.373  13.340   8.311
78087SOL    HW236101  13.476  13.290   8.411
78088SOL     OW36102   5.418  12.308   7.921
78088SOL    HW136103   5.403  12.394   7.882
78088SOL    HW236104   5.505  12.282   7.889
78089SOL     OW36105  11.195  12.742   3.808
78089SOL    HW136106  11.122  12.779   3.759
78089SOL    HW236107  11.161  12.726   3.896
78090SOL     OW36108  12.395   1.193  11.469
78090SOL    HW136109  12.384   1.104  11.436
78090SOL    HW236110  12.487   1.199  11.493
78091SOL     OW36111   2.578   6.004   8.417
78091SOL    HW136112   2.484   6.019   8.428
78091SOL    HW236113   2.589   5.988   8.323
78092SOL     OW36114  12.601   2.703   8.038
78092SOL    HW136115  12.642   2.788   8.055
78092SOL    HW236116  12.523   2.724   7.987
78093SOL     OW36117  13.313   3.294   8.157
78093SOL    HW136118  13.247   3.322   8.094
78093SOL    HW236119  13.320   3.199   8.143
78094SOL     OW36120   0.802   2.585   4.045
78094SOL    HW136121   0.885   2.566   4.089
78094SOL    HW236122   0.824   2.589   3.952
78095SOL     OW36123  11.527  10.018   8.349
78095SOL    HW136124  11.524   9.967   8.268
78095SOL    HW236125  11.451  10.076   8.344
78096SOL     OW36126  11.484   1.035  10.856
78096SOL    HW136127  11.491   0.961  10.796
78096SOL    HW236128  11.563   1.028  10.911
78097SOL     OW36129  14.159  12.479   5.988
78097SOL    HW136130  14.077  12.498   5.942
78097SOL    HW236131  14.214  12.436   5.922
78098SOL     OW36132   2.379   3.234  12.137
78098SOL    HW136133   2.341   3.317  12.109
78098SOL    HW236134   2.472   3.242  12.117
78099SOL     OW36135  13.059   3.472  13.232
78099SOL    HW136136  13.014   3.482  13.148
78099SOL    HW236137  13.003   3.413  13.282
78100SOL     OW36138  11.299   2.113   2.839
78100SOL    HW136139  11.290   2.023   2.871
78100SOL    HW236140  11.386   2.115   2.798
78101SOL     OW36141   4.817   8.042   6.715
78101SOL    HW136142   4.794   7.984   6.643
78101SOL    HW236143   4.894   8.090   6.684
78102SOL     OW36144  12.984   1.151   7.372
78102SOL    HW136145  12.939   1.146   7.288
78102SOL    HW236146  12.991   1.245   7.390
78103SOL     OW36147  12.723   5.573   3.762
78103SOL    HW136148  12.678   5.496   3.796
78103SOL    HW236149  12.785   5.539   3.698
78104SOL     OW36150   8.615   8.043   2.253
78104SOL    HW136151   8.649   8.037   2.343
78104SOL    HW236152   8.688   8.013   2.199
78105SOL     OW36153  13.047   4.606  11.446
78105SOL    HW136154  13.104   4.534  11.473
78105SOL    HW236155  13.018   4.582  11.358
78106SOL     OW36156   5.416   9.737  13.450
78106SOL    HW136157   5.499   9.746  13.497
78106SOL    HW236158   5.361   9.685  13.509
78107SOL     OW36159   8.082  12.846  10.762
78107SOL    HW136160   8.055  12.902  10.689
78107SOL    HW236161   8.000  12.815  10.800
78108SOL     OW36162   4.011  14.849   4.991
78108SOL    HW136163   4.102  14.876   5.001
78108SOL    HW236164   3.984  14.824   5.080
78109SOL     OW36165  12.326   7.487   6.795
78109SOL    HW136166  12.235   7.465   6.777
78109SOL    HW236167  12.349   7.434   6.872
78110SOL     OW36168   8.215   2.125  14.776
78110SOL    HW136169   8.261   2.185  14.717
78110SOL    HW236170   8.146   2.087  14.721
78111SOL     OW36171  12.175   3.899   9.318
78111SOL    HW136172  12.110   3.828   9.316
78111SOL    HW236173  12.250   3.861   9.364
78112SOL     OW36174   2.383   2.338  11.425
78112SOL    HW136175   2.468   2.380  11.420
78112SOL    HW236176   2.340   2.360  11.342
78113SOL     OW36177   2.711   7.848  13.036
78113SOL    HW136178   2.748   7.917  13.093
78113SOL    HW236179   2.640   7.810  13.088
78114SOL     OW36180   0.294   2.921  13.874
78114SOL    HW136181   0.348   2.961  13.942
78114SOL    HW236182   0.234   2.864  13.921
78115SOL     OW36183   2.369  12.962  11.575
78115SOL    HW136184   2.413  12.920  11.501
78115SOL    HW236185   2.421  13.040  11.594
78116SOL     OW36186  13.133   6.345  12.257
78116SOL    HW136187  13.069   6.274  12.256
78116SOL    HW236188  13.174   6.341  12.171
78117SOL     OW36189   4.911   8.834   1.914
78117SOL    HW136190   4.929   8.782   1.993
78117SOL    HW236191   4.972   8.907   1.920
78118SOL     OW36192   3.658  11.602  12.479
78118SOL    HW136193   3.614  11.528  12.437
78118SOL    HW236194   3.736  11.564  12.519
78119SOL     OW36195  12.868   8.009   8.602
78119SOL    HW136196  12.828   7.931   8.640
78119SOL    HW236197  12.794   8.060   8.568
78120SOL     OW36198  13.752   2.082   3.914
78120SOL    HW136199  13.663   2.117   3.925
78120SOL    HW236200  13.759   2.013   3.979
78121SOL     OW36201   4.423   6.742  10.352
78121SOL    HW136202   4.440   6.688  10.429
78121SOL    HW236203   4.332   6.770  10.361
78122SOL     OW36204   5.268   8.582   3.376
78122SOL    HW136205   5.240   8.492   3.359
78122SOL    HW236206   5.289   8.584   3.469
78123SOL     OW36207   7.484   1.571   2.559
78123SOL    HW136208   7.449   1.498   2.509
78123SOL    HW236209   7.421   1.585   2.629
78124SOL     OW36210   7.347   3.030   0.962
78124SOL    HW136211   7.401   3.070   0.893
78124SOL    HW236212   7.306   2.955   0.919
78125SOL     OW36213   5.984   5.105   1.091
78125SOL    HW136214   5.956   5.126   1.180
78125SOL    HW236215   6.029   5.021   1.098
78126SOL     OW36216   4.231   5.620   5.309
78126SOL    HW136217   4.158   5.666   5.350
78126SOL    HW236218   4.273   5.685   5.253
78127SOL     OW36219  10.918  11.361  13.823
78127SOL    HW136220  11.013  11.347  13.831
78127SOL    HW236221  10.881  11.273  13.834
78128SOL     OW36222   0.279   1.247  12.894
78128SOL    HW136223   0.276   1.184  12.966
78128SOL    HW236224   0.265   1.194  12.815
78129SOL     OW36225  10.975  11.118  10.067
78129SOL    HW136226  11.061  11.155  10.046
78129SOL    HW236227  10.989  11.067  10.146
78130SOL     OW36228   6.305   4.204   2.829
78130SOL    HW136229   6.253   4.273   2.868
78130SOL    HW236230   6.280   4.125   2.877
78131SOL     OW36231  11.202  14.162  10.160
78131SOL    HW136232  11.228  14.122  10.243
78131SOL    HW236233  11.109  14.140  10.151
78132SOL     OW36234  13.154   6.263   2.012
78132SOL    HW136235  13.085   6.315   2.053
78132SOL    HW236236  13.161   6.298   1.923
78133SOL     OW36237  12.830  13.435  10.071
78133SOL    HW136238  12.870  13.510  10.115
78133SOL    HW236239  12.736  13.446  10.084
78134SOL     OW36240  13.198   0.953  14.357
78134SOL    HW136241  13.264   1.004  14.403
78134SOL    HW236242  13.245   0.914  14.283
78135SOL     OW36243   7.335  11.165  12.387
78135SOL    HW136244   7.409  11.116  12.423
78135SOL    HW236245   7.265  11.154  12.451
78136SOL     OW36246  13.021   8.450   5.606
78136SOL    HW136247  12.966   8.468   5.530
78136SOL    HW236248  12.965   8.399   5.665
78137SOL     OW36249   2.131   3.543  10.764
78137SOL    HW136250   2.103   3.456  10.791
78137SOL    HW236251   2.079   3.562  10.686
78138SOL     OW36252   6.018  12.444   0.173
78138SOL    HW136253   6.073  12.427   0.250
78138SOL    HW236254   6.080  12.463   0.103
78139SOL     OW36255   9.043   9.282  11.929
78139SOL    HW136256   9.085   9.282  11.842
78139SOL    HW236257   9.033   9.374  11.950
78140SOL     OW36258   5.651   1.204  11.900
78140SOL    HW136259   5.597   1.131  11.870
78140SOL    HW236260   5.720   1.212  11.834
78141SOL     OW36261   8.345  11.554   3.255
78141SOL    HW136262   8.377  11.625   3.311
78141SOL    HW236263   8.304  11.492   3.315
78142SOL     OW36264  12.362   3.515   9.338
78142SOL    HW136265  12.347   3.530   9.432
78142SOL    HW236266  12.274   3.503   9.302
78143SOL     OW36267  11.081   5.468  12.820
78143SOL    HW136268  11.171   5.485  12.792
78143SOL    HW236269  11.031   5.543  12.787
78144SOL     OW36270   0.059   5.794  10.573
78144SOL    HW136271   0.059   5.816  10.480
78144SOL    HW236272   0.092   5.704  10.576
78145SOL     OW36273   0.159  10.808  12.104
78145SOL    HW136274   0.136  10.870  12.173
78145SOL    HW236275   0.115  10.842  12.025
78146SOL     OW36276  11.443  12.209  11.329
78146SOL    HW136277  11.523  12.253  11.357
78146SOL    HW236278  11.375  12.241  11.389
78147SOL     OW36279  13.195   8.640  12.266
78147SOL    HW136280  13.160   8.565  12.315
78147SOL    HW236281  13.285   8.650  12.297
78148SOL     OW36282  10.285  12.373   7.943
78148SOL    HW136283  10.201  12.334   7.965
78148SOL    HW236284  10.297  12.444   8.006
78149SOL     OW36285   1.048   2.196   9.477
78149SOL    HW136286   1.082   2.280   9.445
78149SOL    HW236287   0.953   2.209   9.478
78150SOL     OW36288  12.199  13.233   7.180
78150SOL    HW136289  12.134  13.165   7.200
78150SOL    HW236290  12.242  13.201   7.101
78151SOL     OW36291   4.653   0.042   5.756
78151SOL    HW136292   4.724   0.050   5.692
78151SOL    HW236293   4.600   0.121   5.743
78152SOL     OW36294   2.502   6.583   8.656
78152SOL    HW136295   2.536   6.559   8.742
78152SOL    HW236296   2.543   6.520   8.596
78153SOL     OW36297   8.269  14.361   4.984
78153SOL    HW136298   8.282  14.455   4.972
78153SOL    HW236299   8.199  14.355   5.049
78154SOL     OW36300   7.965  12.375  13.413
78154SOL    HW136301   7.903  12.445  13.435
78154SOL    HW236302   8.021  12.413  13.344
78155SOL     OW36303   1.196  11.656   6.410
78155SOL    HW136304   1.281  11.631   6.374
78155SOL    HW236305   1.192  11.613   6.495
78156SOL     OW36306  14.716  12.952   0.543
78156SOL    HW136307  14.643  13.013   0.554
78156SOL    HW236308  14.702  12.887   0.612
78157SOL     OW36309   5.501   3.918   0.318
78157SOL    HW136310   5.558   3.937   0.243
78157SOL    HW236311   5.557   3.869   0.378
78158SOL     OW36312   9.922  12.104  13.575
78158SOL    HW136313   9.867  12.053  13.516
78158SOL    HW236314   9.912  12.194  13.545
78159SOL     OW36315   3.054   7.844   2.355
78159SOL    HW136316   3.058   7.787   2.432
78159SOL    HW236317   3.073   7.786   2.281
78160SOL     OW36318  14.290   1.584   1.033
78160SOL    HW136319  14.289   1.632   0.950
78160SOL    HW236320  14.369   1.531   1.029
78161SOL     OW36321   8.348   8.394  13.610
78161SOL    HW136322   8.275   8.393  13.548
78161SOL    HW236323   8.310   8.364  13.692
78162SOL     OW36324  12.548   7.774   3.512
78162SOL    HW136325  12.542   7.763   3.417
78162SOL    HW236326  12.640   7.797   3.528
78163SOL     OW36327   0.703  12.479   2.798
78163SOL    HW136328   0.750  12.485   2.715
78163SOL    HW236329   0.671  12.388   2.801
78164SOL     OW36330  11.863  13.252  10.662
78164SOL    HW136331  11.890  13.192  10.732
78164SOL    HW236332  11.856  13.337  10.705
78165SOL     OW36333   4.125   2.182   5.888
78165SOL    HW136334   4.086   2.248   5.945
78165SOL    HW236335   4.163   2.231   5.816
78166SOL     OW36336  12.161   7.556   7.495
78166SOL    HW136337  12.239   7.531   7.445
78166SOL    HW236338  12.091   7.502   7.458
78167SOL     OW36339   7.450  13.630  14.239
78167SOL    HW136340   7.507  13.559  14.268
78167SOL    HW236341   7.478  13.648  14.149
78168SOL     OW36342   1.863   6.007   5.943
78168SOL    HW136343   1.828   5.918   5.934
78168SOL    HW236344   1.804   6.049   6.006
78169SOL     OW36345   9.100   4.140   6.139
78169SOL    HW136346   9.158   4.166   6.068
78169SOL    HW236347   9.125   4.196   6.212
78170SOL     OW36348  14.755   9.277   3.967
78170SOL    HW136349  14.774   9.313   4.053
78170SOL    HW236350  14.827   9.216   3.951
78171SOL     OW36351   2.956   4.598   2.732
78171SOL    HW136352   2.974   4.505   2.745
78171SOL    HW236353   2.870   4.611   2.772
78172SOL     OW36354  14.741   3.237   4.822
78172SOL    HW136355  14.707   3.152   4.848
78172SOL    HW236356  14.756   3.230   4.728
78173SOL     OW36357  14.119  14.781   2.130
78173SOL    HW136358  14.087  14.839   2.199
78173SOL    HW236359  14.052  14.714   2.121
78174SOL     OW36360   1.857   5.799  13.904
78174SOL    HW136361   1.950   5.818  13.898
78174SOL    HW236362   1.814   5.872  13.860
78175SOL     OW36363  14.224   8.352  13.459
78175SOL    HW136364  14.237   8.326  13.551
78175SOL    HW236365  14.282   8.427  13.448
78176SOL     OW36366   3.337   5.812   1.495
78176SOL    HW136367   3.357   5.885   1.437
78176SOL    HW236368   3.251   5.832   1.532
78177SOL     OW36369  13.836   1.485   3.800
78177SOL    HW136370  13.795   1.399   3.789
78177SOL    HW236371  13.767   1.541   3.835
78178SOL     OW36372   7.394  10.592   4.459
78178SOL    HW136373   7.340  10.670   4.448
78178SOL    HW236374   7.480  10.617   4.428
78179SOL     OW36375   5.375   0.665   1.756
78179SOL    HW136376   5.347   0.726   1.824
78179SOL    HW236377   5.453   0.706   1.719
78180SOL     OW36378   8.150  11.956   9.146
78180SOL    HW136379   8.142  11.916   9.059
78180SOL    HW236380   8.173  12.047   9.129
78181SOL     OW36381   4.780  13.698  13.368
78181SOL    HW136382   4.732  13.770  13.408
78181SOL    HW236383   4.872  13.722  13.380
78182SOL     OW36384  11.329   4.950   3.693
78182SOL    HW136385  11.335   4.897   3.773
78182SOL    HW236386  11.256   5.009   3.709
78183SOL     OW36387   8.183  11.539   6.413
78183SOL    HW136388   8.152  11.496   6.493
78183SOL    HW236389   8.121  11.511   6.346
78184SOL     OW36390  13.503   3.560   3.377
78184SOL    HW136391  13.483   3.549   3.470
78184SOL    HW236392  13.533   3.650   3.369
78185SOL     OW36393   5.151   3.483   2.439
78185SOL    HW136394   5.215   3.428   2.394
78185SOL    HW236395   5.100   3.422   2.492
78186SOL     OW36396  11.945  13.699  13.583
78186SOL    HW136397  12.003  13.747  13.642
78186SOL    HW236398  11.990  13.616  13.568
78187SOL     OW36399   3.567   4.169   5.993
78187SOL    HW136400   3.553   4.082   6.028
78187SOL    HW236401   3.648   4.163   5.943
78188SOL     OW36402   7.024   8.212   4.743
78188SOL    HW136403   7.112   8.185   4.717
78188SOL    HW236404   6.984   8.244   4.662
78189SOL     OW36405   7.380   6.433   6.887
78189SOL    HW136406   7.469   6.447   6.918
78189SOL    HW236407   7.379   6.469   6.799
78190SOL     OW36408   0.237   9.827   1.703
78190SOL    HW136409   0.192   9.911   1.705
78190SOL    HW236410   0.178   9.767   1.748
78191SOL     OW36411   1.647  10.035   6.411
78191SOL    HW136412   1.735  10.014   6.378
78191SOL    HW236413   1.661  10.063   6.501
78192SOL     OW36414   0.683   2.292   4.063
78192SOL    HW136415   0.745   2.238   4.013
78192SOL    HW236416   0.730   2.375   4.076
78193SOL     OW36417  12.813  10.634   1.056
78193SOL    HW136418  12.844  10.543   1.058
78193SOL    HW236419  12.866  10.679   1.122
78194SOL     OW36420   5.001   9.907   0.488
78194SOL    HW136421   5.082   9.863   0.514
78194SOL    HW236422   5.029   9.976   0.428
78195SOL     OW36423   3.987   9.159   8.923
78195SOL    HW136424   3.909   9.202   8.960
78195SOL    HW236425   3.956   9.118   8.843
78196SOL     OW36426   5.344  12.656  11.544
78196SOL    HW136427   5.407  12.711  11.591
78196SOL    HW236428   5.259  12.681  11.580
78197SOL     OW36429   8.887   9.447   4.826
78197SOL    HW136430   8.889   9.419   4.734
78197SOL    HW236431   8.836   9.528   4.824
78198SOL     OW36432  14.225   4.244   6.431
78198SOL    HW136433  14.198   4.333   6.451
78198SOL    HW236434  14.194   4.192   6.505
78199SOL     OW36435  12.929   1.801   6.300
78199SOL    HW136436  12.899   1.812   6.210
78199SOL    HW236437  13.011   1.851   6.304
78200SOL     OW36438   0.985  10.712   4.433
78200SOL    HW136439   1.039  10.759   4.370
78200SOL    HW236440   1.022  10.623   4.434
78201SOL     OW36441   8.304   2.544  11.977
78201SOL    HW136442   8.309   2.593  12.059
78201SOL    HW236443   8.378   2.575  11.925
78202SOL     OW36444  13.042  11.270  12.879
78202SOL    HW136445  13.021  11.341  12.819
78202SOL    HW236446  13.138  11.263  12.876
78203SOL     OW36447   9.446  13.236  13.320
78203SOL    HW136448   9.432  13.159  13.265
78203SOL    HW236449   9.536  13.226  13.352
78204SOL     OW36450   1.163   6.438   4.745
78204SOL    HW136451   1.084   6.488   4.724
78204SOL    HW236452   1.144   6.350   4.714
78205SOL     OW36453   0.693   6.479   5.807
78205SOL    HW136454   0.720   6.528   5.729
78205SOL    HW236455   0.667   6.393   5.773
78206SOL     OW36456   5.193  11.103   0.320
78206SOL    HW136457   5.142  11.023   0.314
78206SOL    HW236458   5.137  11.170   0.279
78207SOL     OW36459  14.253  12.796   4.926
78207SOL    HW136460  14.241  12.884   4.961
78207SOL    HW236461  14.195  12.792   4.850
78208SOL     OW36462  11.279   1.375   3.886
78208SOL    HW136463  11.321   1.432   3.950
78208SOL    HW236464  11.351   1.322   3.850
78209SOL     OW36465   1.648   3.401   5.985
78209SOL    HW136466   1.663   3.474   5.924
78209SOL    HW236467   1.647   3.443   6.071
78210SOL     OW36468   8.047   9.024  14.256
78210SOL    HW136469   8.041   9.114  14.223
78210SOL    HW236470   7.976   9.017  14.321
78211SOL     OW36471   1.614   8.306  13.709
78211SOL    HW136472   1.702   8.334  13.685
78211SOL    HW236473   1.582   8.374  13.768
78212SOL     OW36474  14.638   7.973   5.345
78212SOL    HW136475  14.643   7.972   5.441
78212SOL    HW236476  14.630   8.065   5.322
78213SOL     OW36477  11.119  10.169  12.878
78213SOL    HW136478  11.212  10.191  12.874
78213SOL    HW236479  11.085  10.193  12.792
78214SOL     OW36480   6.851  12.545   0.775
78214SOL    HW136481   6.887  12.478   0.718
78214SOL    HW236482   6.794  12.497   0.836
78215SOL     OW36483   6.014   0.318   7.396
78215SOL    HW136484   6.073   0.270   7.338
78215SOL    HW236485   5.991   0.256   7.464
78216SOL     OW36486   2.254   8.868  11.731
78216SOL    HW136487   2.307   8.941  11.697
78216SOL    HW236488   2.312   8.823  11.792
78217SOL     OW36489   2.701   1.301   9.021
78217SOL    HW136490   2.618   1.340   8.993
78217SOL    HW236491   2.764   1.330   8.955
78218SOL     OW36492   0.729  11.698   6.657
78218SOL    HW136493   0.676  11.733   6.729
78218SOL    HW236494   0.704  11.751   6.582
78219SOL     OW36495   5.751   8.319   2.640
78219SOL    HW136496   5.824   8.329   2.701
78219SOL    HW236497   5.781   8.363   2.560
78220SOL     OW36498   0.162  10.487   5.048
78220SOL    HW136499   0.214  10.551   5.097
78220SOL    HW236500   0.084  10.474   5.101
78221SOL     OW36501   2.052   5.133  12.467
78221SOL    HW136502   2.117   5.101  12.405
78221SOL    HW236503   2.086   5.109  12.553
78222SOL     OW36504  11.239   3.722   8.557
78222SOL    HW136505  11.231   3.689   8.646
78222SOL    HW236506  11.220   3.647   8.501
78223SOL     OW36507   8.235   5.496  10.738
78223SOL    HW136508   8.184   5.423  10.703
78223SOL    HW236509   8.280   5.460  10.814
78224SOL     OW36510   2.666  11.591   8.612
78224SOL    HW136511   2.669  11.511   8.559
78224SOL    HW236512   2.612  11.568   8.688
78225SOL     OW36513   1.813   3.545   8.264
78225SOL    HW136514   1.834   3.589   8.347
78225SOL    HW236515   1.748   3.602   8.223
78226SOL     OW36516   7.416   6.611   6.609
78226SOL    HW136517   7.470   6.657   6.674
78226SOL    HW236518   7.399   6.677   6.542
78227SOL     OW36519   0.186   9.790   5.120
78227SOL    HW136520   0.141   9.752   5.195
78227SOL    HW236521   0.132   9.766   5.044
78228SOL     OW36522   8.844   9.359  11.684
78228SOL    HW136523   8.861   9.317  11.600
78228SOL    HW236524   8.801   9.442  11.661
78229SOL     OW36525  14.074   5.653  14.733
78229SOL    HW136526  13.979   5.646  14.720
78229SOL    HW236527  14.111   5.584  14.679
78230SOL     OW36528   7.837   1.097   5.040
78230SOL    HW136529   7.909   1.072   5.098
78230SOL    HW236530   7.869   1.174   4.993
78231SOL     OW36531   1.729  11.863   8.444
78231SOL    HW136532   1.689  11.792   8.394
78231SOL    HW236533   1.723  11.939   8.386
78232SOL     OW36534   1.129   6.802   4.264
78232SOL    HW136535   1.101   6.787   4.174
78232SOL    HW236536   1.157   6.715   4.295
78233SOL     OW36537  13.517   9.176   8.478
78233SOL    HW136538  13.589   9.175   8.542
78233SOL    HW236539  13.561   9.165   8.394
78234SOL     OW36540   8.089   5.489   6.425
78234SOL    HW136541   7.997   5.501   6.449
78234SOL    HW236542   8.124   5.578   6.418
78235SOL     OW36543   8.500  11.562   4.186
78235SOL    HW136544   8.514  11.498   4.256
78235SOL    HW236545   8.405  11.568   4.178
78236SOL     OW36546   1.633   3.163  10.166
78236SOL    HW136547   1.574   3.091  10.189
78236SOL    HW236548   1.673   3.136  10.083
78237SOL     OW36549   4.198   0.471   1.878
78237SOL    HW136550   4.153   0.405   1.825
78237SOL    HW236551   4.291   0.454   1.865
78238SOL     OW36552   3.655   8.536  12.589
78238SOL    HW136553   3.746   8.563  12.601
78238SOL    HW236554   3.603   8.609  12.622
78239SOL     OW36555   3.093   4.873   4.617
78239SOL    HW136556   3.119   4.856   4.526
78239SOL    HW236557   3.172   4.854   4.668
78240SOL     OW36558   4.993  12.994  11.373
78240SOL    HW136559   5.016  12.910  11.332
78240SOL    HW236560   4.960  12.969  11.459
78241SOL     OW36561   8.624   0.125  11.190
78241SOL    HW136562   8.709   0.128  11.234
78241SOL    HW236563   8.571   0.190  11.235
78242SOL     OW36564   6.994   9.747  14.534
78242SOL    HW136565   6.983   9.785  14.621
78242SOL    HW236566   6.944   9.804  14.476
78243SOL     OW36567   0.066  13.755  10.700
78243SOL    HW136568   0.064  13.764  10.605
78243SOL    HW236569   0.132  13.688  10.717
78244SOL     OW36570   0.491  11.056  10.910
78244SOL    HW136571   0.430  11.033  10.981
78244SOL    HW236572   0.560  11.106  10.952
78245SOL     OW36573   5.458   9.417   3.015
78245SOL    HW136574   5.457   9.372   2.931
78245SOL    HW236575   5.506   9.498   2.999
78246SOL     OW36576   7.828  11.893   2.039
78246SOL    HW136577   7.883  11.821   2.007
78246SOL    HW236578   7.743  11.852   2.056
78247SOL     OW36579   0.946   9.212  12.385
78247SOL    HW136580   0.865   9.260  12.402
78247SOL    HW236581   0.964   9.165  12.467
78248SOL     OW36582  11.889   8.585   8.027
78248SOL    HW136583  11.968   8.587   8.081
78248SOL    HW236584  11.917   8.622   7.943
78249SOL     OW36585   8.874   9.218  14.023
78249SOL    HW136586   8.913   9.133  14.043
78249SOL    HW236587   8.821   9.202  13.945
78250SOL     OW36588  10.300   2.003   3.136
78250SOL    HW136589  10.348   1.922   3.120
78250SOL    HW236590  10.227   1.977   3.191
78251SOL     OW36591  12.325  13.924  13.820
78251SOL    HW136592  12.301  13.875  13.899
78251SOL    HW236593  12.288  14.011  13.833
78252SOL     OW36594   4.145  13.757  12.310
78252SOL    HW136595   4.121  13.784  12.399
78252SOL    HW236596   4.235  13.787  12.300
78253SOL     OW36597   3.047   6.837  13.117
78253SOL    HW136598   2.995   6.810  13.193
78253SOL    HW236599   3.036   6.932  13.113
78254SOL     OW36600   8.282   8.064  10.367
78254SOL    HW136601   8.209   8.122  10.387
78254SOL    HW236602   8.248   7.976  10.388
78255SOL     OW36603   4.523   4.623   2.895
78255SOL    HW136604   4.567   4.672   2.825
78255SOL    HW236605   4.488   4.545   2.853
78256SOL     OW36606   2.431  14.137   0.875
78256SOL    HW136607   2.462  14.198   0.808
78256SOL    HW236608   2.344  14.170   0.899
78257SOL     OW36609   9.363  11.596  11.557
78257SOL    HW136610   9.278  11.566  11.591
78257SOL    HW236611   9.345  11.683  11.522
78258SOL     OW36612   9.372  11.546  12.427
78258SOL    HW136613   9.390  11.616  12.490
78258SOL    HW236614   9.421  11.570  12.349
78259SOL     OW36615   3.392  12.553   1.118
78259SOL    HW136616   3.329  12.578   1.051
78259SOL    HW236617   3.364  12.466   1.146
78260SOL     OW36618  12.646   8.054   9.529
78260SOL    HW136619  12.719   8.112   9.504
78260SOL    HW236620  12.573   8.114   9.543
78261SOL     OW36621   8.298   9.201   6.569
78261SOL    HW136622   8.306   9.126   6.628
78261SOL    HW236623   8.365   9.262   6.599
78262SOL     OW36624   6.808  13.296  14.611
78262SOL    HW136625   6.839  13.279  14.522
78262SOL    HW236626   6.726  13.247  14.617
78263SOL     OW36627   5.953   4.408  13.779
78263SOL    HW136628   5.895   4.410  13.855
78263SOL    HW236629   6.041   4.408  13.816
78264SOL     OW36630  12.055   5.592   8.029
78264SOL    HW136631  12.142   5.629   8.041
78264SOL    HW236632  12.045   5.527   8.098
78265SOL     OW36633   3.429   1.746   1.912
78265SOL    HW136634   3.400   1.737   2.002
78265SOL    HW236635   3.348   1.753   1.861
78266SOL     OW36636  11.720  12.228  14.252
78266SOL    HW136637  11.639  12.184  14.280
78266SOL    HW236638  11.775  12.229  14.330
78267SOL     OW36639  13.498   9.730  14.540
78267SOL    HW136640  13.412   9.753  14.576
78267SOL    HW236641  13.559   9.787  14.586
78268SOL     OW36642  14.431   3.096   8.104
78268SOL    HW136643  14.466   3.037   8.038
78268SOL    HW236644  14.432   3.045   8.185
78269SOL     OW36645   9.357   5.258   9.764
78269SOL    HW136646   9.381   5.330   9.823
78269SOL    HW236647   9.394   5.180   9.806
78270SOL     OW36648   5.587   1.854  13.837
78270SOL    HW136649   5.549   1.846  13.750
78270SOL    HW236650   5.602   1.948  13.848
78271SOL     OW36651   9.899  13.735   0.073
78271SOL    HW136652   9.805  13.726   0.089
78271SOL    HW236653   9.939  13.660   0.118
78272SOL     OW36654  14.135  10.291   5.657
78272SOL    HW136655  14.127  10.311   5.750
78272SOL    HW236656  14.184  10.365   5.621
78273SOL     OW36657   1.726  11.088   1.633
78273SOL    HW136658   1.636  11.089   1.600
78273SOL    HW236659   1.717  11.067   1.726
78274SOL     OW36660   6.595  10.928   2.386
78274SOL    HW136661   6.557  10.938   2.473
78274SOL    HW236662   6.586  11.014   2.346
78275SOL     OW36663  12.753   2.980   5.766
78275SOL    HW136664  12.699   2.908   5.797
78275SOL    HW236665  12.710   3.059   5.800
78276SOL     OW36666   8.244   5.127   7.152
78276SOL    HW136667   8.322   5.145   7.204
78276SOL    HW236668   8.217   5.039   7.178
78277SOL     OW36669  11.471   4.978  12.551
78277SOL    HW136670  11.376   4.975  12.561
78277SOL    HW236671  11.504   4.955  12.638
78278SOL     OW36672   0.567   8.669  13.250
78278SOL    HW136673   0.580   8.673  13.155
78278SOL    HW236674   0.625   8.599  13.279
78279SOL     OW36675   2.331   0.997   2.656
78279SOL    HW136676   2.327   0.953   2.570
78279SOL    HW236677   2.332   1.090   2.635
78280SOL     OW36678  11.660   2.372   0.043
78280SOL    HW136679  11.620   2.305   0.098
78280SOL    HW236680  11.696   2.323  14.848
78281SOL     OW36681   6.739   5.028   0.822
78281SOL    HW136682   6.728   4.953   0.763
78281SOL    HW236683   6.650   5.049   0.850
78282SOL     OW36684   4.641  14.097   5.867
78282SOL    HW136685   4.640  14.099   5.962
78282SOL    HW236686   4.643  14.189   5.841
78283SOL     OW36687   2.014  12.730  10.290
78283SOL    HW136688   1.951  12.798  10.313
78283SOL    HW236689   2.084  12.739  10.355
78284SOL     OW36690  14.047   0.741   6.784
78284SOL    HW136691  14.063   0.696   6.868
78284SOL    HW236692  14.059   0.672   6.718
78285SOL     OW36693  10.719   0.413   0.155
78285SOL    HW136694  10.637   0.458   0.138
78285SOL    HW236695  10.736   0.427   0.248
78286SOL     OW36696   1.432   5.724  11.201
78286SOL    HW136697   1.415   5.639  11.160
78286SOL    HW236698   1.354   5.777  11.179
78287SOL     OW36699   3.206   5.018  11.828
78287SOL    HW136700   3.130   5.075  11.830
78287SOL    HW236701   3.238   5.022  11.738
78288SOL     OW36702   2.429  10.799  11.382
78288SOL    HW136703   2.466  10.884  11.359
78288SOL    HW236704   2.335  10.809  11.370
78289SOL     OW36705   6.854   2.394   5.888
78289SOL    HW136706   6.880   2.360   5.803
78289SOL    HW236707   6.912   2.350   5.950
78290SOL     OW36708   6.123  12.293  12.740
78290SOL    HW136709   6.203  12.240  12.743
78290SOL    HW236710   6.146  12.373  12.787
78291SOL     OW36711  11.349  13.077   6.379
78291SOL    HW136712  11.330  13.162   6.418
78291SOL    HW236713  11.427  13.091   6.325
78292SOL     OW36714  10.166   0.133   6.966
78292SOL    HW136715  10.230   0.081   6.916
78292SOL    HW236716  10.218   0.174   7.035
78293SOL     OW36717  10.247   6.458   1.123
78293SOL    HW136718  10.165   6.491   1.159
78293SOL    HW236719  10.297   6.428   1.199
78294SOL     OW36720   0.538  10.077   1.412
78294SOL    HW136721   0.461  10.109   1.460
78294SOL    HW236722   0.502  10.045   1.329
78295SOL     OW36723   5.890   1.449   7.196
78295SOL    HW136724   5.824   1.402   7.247
78295SOL    HW236725   5.965   1.457   7.255
78296SOL     OW36726   6.027   9.547   5.288
78296SOL    HW136727   6.024   9.470   5.344
78296SOL    HW236728   6.015   9.621   5.347
78297SOL     OW36729   2.386   4.620   8.344
78297SOL    HW136730   2.357   4.711   8.339
78297SOL    HW236731   2.467   4.617   8.293
78298SOL     OW36732   6.522  13.836   5.244
78298SOL    HW136733   6.474  13.848   5.326
78298SOL    HW236734   6.506  13.917   5.196
78299SOL     OW36735  10.292   7.724  10.185
78299SOL    HW136736  10.372   7.724  10.239
78299SOL    HW236737  10.314   7.777  10.109
78300SOL     OW36738  13.290   4.539   2.175
78300SOL    HW136739  13.352   4.522   2.104
78300SOL    HW236740  13.325   4.616   2.220
78301SOL     OW36741   6.410   1.442   1.168
78301SOL    HW136742   6.337   1.421   1.227
78301SOL    HW236743   6.379   1.517   1.117
78302SOL     OW36744   5.699   5.925   9.539
78302SOL    HW136745   5.610   5.958   9.549
78302SOL    HW236746   5.754   5.992   9.581
78303SOL     OW36747  10.438   1.097   0.923
78303SOL    HW136748  10.403   1.097   0.834
78303SOL    HW236749  10.363   1.081   0.979
78304SOL     OW36750   6.839   1.047   1.459
78304SOL    HW136751   6.803   0.970   1.416
78304SOL    HW236752   6.841   1.114   1.390
78305SOL     OW36753   0.136  13.652  14.639
78305SOL    HW136754   0.041  13.646  14.642
78305SOL    HW236755   0.163  13.656  14.731
78306SOL     OW36756  14.721   6.122   7.250
78306SOL    HW136757  14.741   6.052   7.311
78306SOL    HW236758  14.697   6.078   7.169
78307SOL     OW36759  11.908   0.231   7.608
78307SOL    HW136760  11.910   0.303   7.670
78307SOL    HW236761  11.864   0.267   7.530
78308SOL     OW36762   9.246   1.780   0.717
78308SOL    HW136763   9.283   1.771   0.805
78308SOL    HW236764   9.152   1.768   0.728
78309SOL     OW36765  12.806   9.680   4.381
78309SOL    HW136766  12.863   9.728   4.441
78309SOL    HW236767  12.852   9.683   4.297
78310SOL     OW36768   3.010  13.289   3.276
78310SOL    HW136769   3.013  13.375   3.233
78310SOL    HW236770   3.006  13.309   3.369
78311SOL     OW36771  13.443  13.445   9.917
78311SOL    HW136772  13.525  13.447   9.869
78311SOL    HW236773  13.458  13.384   9.990
78312SOL     OW36774   8.324   1.776  12.719
78312SOL    HW136775   8.358   1.762  12.807
78312SOL    HW236776   8.229   1.765  12.728
78313SOL     OW36777  14.784  12.803  13.916
78313SOL    HW136778  14.823  12.889  13.930
78313SOL    HW236779  14.796  12.757  13.999
78314SOL     OW36780  14.417   5.648  10.190
78314SOL    HW136781  14.405   5.684  10.102
78314SOL    HW236782  14.396   5.555  10.181
78315SOL     OW36783  13.556  10.732   3.291
78315SOL    HW136784  13.588  10.712   3.379
78315SOL    HW236785  13.588  10.660   3.237
78316SOL     OW36786   4.192  14.683   2.860
78316SOL    HW136787   4.149  14.743   2.921
78316SOL    HW236788   4.218  14.738   2.787
78317SOL     OW36789   8.099   4.130  11.116
78317SOL    HW136790   8.066   4.161  11.201
78317SOL    HW236791   8.194   4.137  11.123
78318SOL     OW36792   0.865   3.315  12.031
78318SOL    HW136793   0.893   3.388  12.087
78318SOL    HW236794   0.859   3.240  12.089
78319SOL     OW36795   3.007   5.841  11.416
78319SOL    HW136796   3.056   5.764  11.446
78319SOL    HW236797   2.952   5.807  11.345
78320SOL     OW36798  14.797   3.650   2.873
78320SOL    HW136799  14.715   3.601   2.870
78320SOL    HW236800  14.794   3.696   2.957
78321SOL     OW36801   1.892   7.546   8.227
78321SOL    HW136802   1.858   7.500   8.150
78321SOL    HW236803   1.818   7.554   8.286
78322SOL     OW36804   0.117  12.061  11.927
78322SOL    HW136805   0.169  12.129  11.969
78322SOL    HW236806   0.123  11.986  11.987
78323SOL     OW36807  12.950   9.497   9.896
78323SOL    HW136808  12.867   9.532   9.864
78323SOL    HW236809  12.946   9.404   9.873
78324SOL     OW36810   0.455   2.997   5.366
78324SOL    HW136811   0.485   2.967   5.451
78324SOL    HW236812   0.494   2.936   5.303
78325SOL     OW36813   7.336   4.695   5.748
78325SOL    HW136814   7.293   4.637   5.684
78325SOL    HW236815   7.333   4.647   5.830
78326SOL     OW36816   8.964  14.662  12.015
78326SOL    HW136817   8.921  14.690  11.934
78326SOL    HW236818   9.002  14.742  12.050
78327SOL     OW36819  12.777   6.828   9.587
78327SOL    HW136820  12.764   6.794   9.676
78327SOL    HW236821  12.693   6.870   9.566
78328SOL     OW36822   6.065   2.092   2.148
78328SOL    HW136823   6.127   2.026   2.118
78328SOL    HW236824   5.982   2.046   2.157
78329SOL     OW36825  12.581  10.517   2.513
78329SOL    HW136826  12.653  10.455   2.501
78329SOL    HW236827  12.527  10.477   2.581
78330SOL     OW36828  14.187   4.881  13.560
78330SOL    HW136829  14.120   4.814  13.574
78330SOL    HW236830  14.262   4.850  13.611
78331SOL     OW36831  11.175   6.971   6.349
78331SOL    HW136832  11.097   6.926   6.382
78331SOL    HW236833  11.248   6.926   6.393
78332SOL     OW36834   5.341   2.345   6.170
78332SOL    HW136835   5.389   2.412   6.219
78332SOL    HW236836   5.349   2.266   6.223
78333SOL     OW36837  13.754  14.737   3.005
78333SOL    HW136838  13.778  14.772   2.919
78333SOL    HW236839  13.667  14.775   3.023
78334SOL     OW36840   0.341   0.695  13.038
78334SOL    HW136841   0.388   0.617  13.064
78334SOL    HW236842   0.262   0.695  13.092
78335SOL     OW36843   5.894  12.655   3.387
78335SOL    HW136844   5.833  12.671   3.316
78335SOL    HW236845   5.889  12.561   3.403
78336SOL     OW36846   4.221  10.659   2.923
78336SOL    HW136847   4.154  10.676   2.989
78336SOL    HW236848   4.294  10.621   2.972
78337SOL     OW36849   9.943   1.083   4.410
78337SOL    HW136850   9.953   1.019   4.481
78337SOL    HW236851  10.022   1.071   4.357
78338SOL     OW36852   5.325   0.411   6.588
78338SOL    HW136853   5.312   0.347   6.518
78338SOL    HW236854   5.418   0.433   6.583
78339SOL     OW36855   3.037  12.256   5.937
78339SOL    HW136856   3.122  12.257   5.980
78339SOL    HW236857   3.056  12.248   5.844
78340SOL     OW36858   5.186   6.958   9.056
78340SOL    HW136859   5.255   7.021   9.079
78340SOL    HW236860   5.170   6.973   8.963
78341SOL     OW36861   5.014   4.511  13.775
78341SOL    HW136862   5.098   4.544  13.743
78341SOL    HW236863   5.016   4.417  13.757
78342SOL     OW36864   7.885  13.806   4.893
78342SOL    HW136865   7.977  13.789   4.871
78342SOL    HW236866   7.871  13.760   4.976
78343SOL     OW36867  10.046   9.864   4.100
78343SOL    HW136868  10.050   9.943   4.153
78343SOL    HW236869  10.107   9.880   4.028
78344SOL     OW36870  11.851  10.104   9.763
78344SOL    HW136871  11.893  10.028   9.722
78344SOL    HW236872  11.888  10.180   9.718
78345SOL     OW36873   3.643   2.187   5.711
78345SOL    HW136874   3.629   2.281   5.708
78345SOL    HW236875   3.696   2.174   5.790
78346SOL     OW36876  12.466   6.638   8.851
78346SOL    HW136877  12.507   6.711   8.897
78346SOL    HW236878  12.489   6.561   8.903
78347SOL     OW36879  12.329  14.207   2.894
78347SOL    HW136880  12.422  14.199   2.918
78347SOL    HW236881  12.292  14.121   2.913
78348SOL     OW36882   4.350  13.300   3.441
78348SOL    HW136883   4.440  13.284   3.469
78348SOL    HW236884   4.325  13.381   3.485
78349SOL     OW36885   0.523  13.393  12.314
78349SOL    HW136886   0.456  13.458  12.294
78349SOL    HW236887   0.552  13.362  12.228
78350SOL     OW36888  11.282  10.818   6.784
78350SOL    HW136889  11.228  10.773   6.720
78350SOL    HW236890  11.308  10.899   6.741
78351SOL     OW36891   0.767   7.522   3.056
78351SOL    HW136892   0.704   7.509   3.126
78351SOL    HW236893   0.838   7.461   3.076
78352SOL     OW36894   7.953   6.269   5.857
78352SOL    HW136895   8.003   6.261   5.776
78352SOL    HW236896   8.017   6.256   5.926
78353SOL     OW36897   4.286  10.788  10.316
78353SOL    HW136898   4.316  10.835  10.238
78353SOL    HW236899   4.234  10.716  10.281
78354SOL     OW36900   8.148  13.019   6.356
78354SOL    HW136901   8.118  13.108   6.373
78354SOL    HW236902   8.191  12.992   6.438
78355SOL     OW36903   9.258  14.345   4.405
78355SOL    HW136904   9.231  14.379   4.490
78355SOL    HW236905   9.354  14.338   4.411
78356SOL     OW36906   1.968  14.830   7.954
78356SOL    HW136907   1.952   0.045   7.964
78356SOL    HW236908   1.889  14.798   7.911
78357SOL     OW36909   7.130  12.087  10.146
78357SOL    HW136910   7.086  12.076  10.062
78357SOL    HW236911   7.093  12.017  10.201
78358SOL     OW36912   6.860   1.557   0.123
78358SOL    HW136913   6.868   1.529   0.214
78358SOL    HW236914   6.931   1.510   0.078
78359SOL     OW36915  14.796   3.540  14.773
78359SOL    HW136916  14.707   3.534  14.806
78359SOL    HW236917  14.818   3.633  14.777
78360SOL     OW36918  11.817  10.085   5.069
78360SOL    HW136919  11.845  10.172   5.098
78360SOL    HW236920  11.728  10.077   5.101
78361SOL     OW36921  12.742   8.521  10.588
78361SOL    HW136922  12.814   8.572  10.553
78361SOL    HW236923  12.698   8.579  10.650
78362SOL     OW36924   7.797   3.599   2.401
78362SOL    HW136925   7.815   3.520   2.350
78362SOL    HW236926   7.856   3.594   2.476
78363SOL     OW36927   6.312  10.803   0.948
78363SOL    HW136928   6.317  10.811   1.043
78363SOL    HW236929   6.269  10.883   0.919
78364SOL     OW36930   9.049   3.342  13.235
78364SOL    HW136931   9.042   3.438  13.229
78364SOL    HW236932   9.004   3.311  13.156
78365SOL     OW36933   6.810   0.149   6.189
78365SOL    HW136934   6.758   0.146   6.269
78365SOL    HW236935   6.842   0.060   6.177
78366SOL     OW36936  10.537   9.238   6.439
78366SOL    HW136937  10.557   9.164   6.496
78366SOL    HW236938  10.442   9.235   6.428
78367SOL     OW36939   3.479  13.947   9.923
78367SOL    HW136940   3.407  13.928   9.863
78367SOL    HW236941   3.540  13.875   9.910
78368SOL     OW36942  14.025  11.154   1.234
78368SOL    HW136943  13.962  11.085   1.258
78368SOL    HW236944  14.031  11.209   1.311
78369SOL     OW36945  14.686   2.536  11.138
78369SOL    HW136946  14.662   2.590  11.214
78369SOL    HW236947  14.691   2.447  11.172
78370SOL     OW36948   0.175  12.618   2.850
78370SOL    HW136949   0.172  12.560   2.773
78370SOL    HW236950   0.250  12.586   2.900
78371SOL     OW36951   1.339   9.431   1.584
78371SOL    HW136952   1.259   9.483   1.589
78371SOL    HW236953   1.309   9.345   1.555
78372SOL     OW36954  13.090  14.708   0.266
78372SOL    HW136955  13.111  14.752   0.184
78372SOL    HW236956  13.058  14.622   0.239
78373SOL     OW36957   3.994   1.250  11.553
78373SOL    HW136958   4.007   1.245  11.458
78373SOL    HW236959   3.943   1.172  11.574
78374SOL     OW36960   7.688   5.449   0.838
78374SOL    HW136961   7.654   5.494   0.916
78374SOL    HW236962   7.612   5.409   0.797
78375SOL     OW36963   2.210  11.657   9.255
78375SOL    HW136964   2.166  11.592   9.200
78375SOL    HW236965   2.242  11.606   9.330
78376SOL     OW36966  14.348   0.023   0.106
78376SOL    HW136967  14.277  14.849   0.069
78376SOL    HW236968  14.305   0.102   0.137
78377SOL     OW36969   4.111   5.239  11.645
78377SOL    HW136970   4.159   5.220  11.564
78377SOL    HW236971   4.019   5.247  11.616
78378SOL     OW36972  12.111  11.969   3.596
78378SOL    HW136973  12.183  11.940   3.540
78378SOL    HW236974  12.143  11.955   3.685
78379SOL     OW36975   5.319  12.798  10.546
78379SOL    HW136976   5.241  12.849  10.566
78379SOL    HW236977   5.381  12.863  10.512
78380SOL     OW36978   8.880   5.782   7.324
78380SOL    HW136979   8.933   5.839   7.268
78380SOL    HW236980   8.927   5.698   7.324
78381SOL     OW36981  10.118   8.454  13.230
78381SOL    HW136982  10.184   8.520  13.251
78381SOL    HW236983  10.136   8.381  13.289
78382SOL     OW36984   3.691   8.547   5.614
78382SOL    HW136985   3.722   8.637   5.606
78382SOL    HW236986   3.708   8.524   5.705
78383SOL     OW36987  11.410   1.568   4.025
78383SOL    HW136988  11.420   1.506   4.098
78383SOL    HW236989  11.463   1.643   4.049
78384SOL     OW36990   8.621   3.746  10.563
78384SOL    HW136991   8.630   3.706  10.650
78384SOL    HW236992   8.537   3.715  10.531
78385SOL     OW36993   8.622  14.448  13.141
78385SOL    HW136994   8.655  14.509  13.076
78385SOL    HW236995   8.536  14.422  13.107
78386SOL     OW36996   1.971   4.318  10.029
78386SOL    HW136997   2.046   4.258  10.030
78386SOL    HW236998   1.980   4.366   9.947
78387SOL     OW36999   9.361   3.585  13.816
78387SOL    HW137000   9.272   3.621  13.812
78387SOL    HW237001   9.348   3.492  13.831
78388SOL     OW37002   9.927   5.339   8.059
78388SOL    HW137003   9.974   5.416   8.092
78388SOL    HW237004   9.923   5.353   7.964
78389SOL     OW37005   4.866  14.443   5.876
78389SOL    HW137006   4.893  14.404   5.959
78389SOL    HW237007   4.837  14.531   5.899
78390SOL     OW37008   8.658   0.931  10.582
78390SOL    HW137009   8.589   0.961  10.641
78390SOL    HW237010   8.658   0.995  10.511
78391SOL     OW37011   8.080   3.766  12.849
78391SOL    HW137012   8.114   3.789  12.935
78391SOL    HW237013   8.018   3.695  12.866
78392SOL     OW37014   9.531  13.152   3.478
78392SOL    HW137015   9.444  13.136   3.515
78392SOL    HW237016   9.514  13.186   3.390
78393SOL     OW37017   5.643   5.727  14.321
78393SOL    HW137018   5.660   5.697  14.231
78393SOL    HW237019   5.548   5.717  14.332
78394SOL     OW37020   0.397  12.734   7.708
78394SOL    HW137021   0.417  12.823   7.737
78394SOL    HW237022   0.313  12.714   7.749
78395SOL     OW37023   1.926   2.080   2.822
78395SOL    HW137024   1.989   2.121   2.881
78395SOL    HW237025   1.968   1.997   2.796
78396SOL     OW37026  13.654   3.736  10.540
78396SOL    HW137027  13.584   3.795  10.568
78396SOL    HW237028  13.645   3.732  10.445
78397SOL     OW37029   2.242   6.372   0.336
78397SOL    HW137030   2.212   6.416   0.416
78397SOL    HW237031   2.251   6.281   0.361
78398SOL     OW37032   4.506   6.062   4.265
78398SOL    HW137033   4.581   6.108   4.302
78398SOL    HW237034   4.505   6.088   4.173
78399SOL     OW37035   7.519  13.539   4.644
78399SOL    HW137036   7.491  13.496   4.725
78399SOL    HW237037   7.588  13.599   4.671
78400SOL     OW37038   2.410   4.117   1.529
78400SOL    HW137039   2.412   4.065   1.448
78400SOL    HW237040   2.394   4.207   1.499
78401SOL     OW37041  12.430  12.945  12.119
78401SOL    HW137042  12.516  12.975  12.092
78401SOL    HW237043  12.388  12.917  12.038
78402SOL     OW37044   9.925   9.445   7.738
78402SOL    HW137045   9.917   9.470   7.830
78402SOL    HW237046   9.996   9.381   7.736
78403SOL     OW37047  10.073  13.300   2.280
78403SOL    HW137048  10.025  13.290   2.362
78403SOL    HW237049  10.159  13.262   2.299
78404SOL     OW37050  12.233   2.689   1.044
78404SOL    HW137051  12.255   2.599   1.065
78404SOL    HW237052  12.140   2.697   1.068
78405SOL     OW37053   2.101   9.723  11.052
78405SOL    HW137054   2.162   9.771  10.996
78405SOL    HW237055   2.158   9.674  11.112
78406SOL     OW37056  11.962   1.706   8.476
78406SOL    HW137057  11.900   1.764   8.432
78406SOL    HW237058  11.908   1.656   8.538
78407SOL     OW37059   3.014  11.966   9.136
78407SOL    HW137060   2.951  11.893   9.136
78407SOL    HW237061   3.058  11.960   9.051
78408SOL     OW37062   1.190   2.865   5.897
78408SOL    HW137063   1.257   2.928   5.870
78408SOL    HW237064   1.223   2.781   5.865
78409SOL     OW37065   9.068   0.092  14.746
78409SOL    HW137066   9.129   0.022  14.772
78409SOL    HW237067   9.051   0.140  14.827
78410SOL     OW37068  11.048   5.997   9.463
78410SOL    HW137069  11.013   5.928   9.407
78410SOL    HW237070  11.028   6.078   9.417
78411SOL     OW37071   1.804  14.114  14.063
78411SOL    HW137072   1.769  14.034  14.104
78411SOL    HW237073   1.872  14.143  14.123
78412SOL     OW37074   2.724   0.740   8.433
78412SOL    HW137075   2.647   0.794   8.450
78412SOL    HW237076   2.719   0.669   8.498
78413SOL     OW37077   1.851  12.811   1.995
78413SOL    HW137078   1.763  12.776   2.009
78413SOL    HW237079   1.901  12.738   1.958
78414SOL     OW37080   0.933   6.667   4.985
78414SOL    HW137081   0.971   6.685   4.899
78414SOL    HW237082   0.972   6.733   5.043
78415SOL     OW37083   6.721  14.393   3.622
78415SOL    HW137084   6.735  14.426   3.711
78415SOL    HW237085   6.688  14.303   3.635
78416SOL     OW37086   0.580   1.524   1.819
78416SOL    HW137087   0.511   1.568   1.869
78416SOL    HW237088   0.661   1.545   1.867
78417SOL     OW37089  13.291   6.648   6.713
78417SOL    HW137090  13.232   6.580   6.747
78417SOL    HW237091  13.378   6.608   6.715
78418SOL     OW37092   5.376  14.694  13.388
78418SOL    HW137093   5.392  14.622  13.327
78418SOL    HW237094   5.372  14.652  13.474
78419SOL     OW37095   6.127  10.726  12.574
78419SOL    HW137096   6.135  10.668  12.650
78419SOL    HW237097   6.162  10.810  12.604
78420SOL     OW37098  14.376   7.289   9.977
78420SOL    HW137099  14.342   7.204   9.951
78420SOL    HW237100  14.393   7.334   9.895
78421SOL     OW37101   7.924   9.746  11.096
78421SOL    HW137102   7.941   9.669  11.149
78421SOL    HW237103   7.851   9.722  11.040
78422SOL     OW37104  14.860   0.992   5.543
78422SOL    HW137105  14.777   0.964   5.506
78422SOL    HW237106  14.877   1.078   5.504
78423SOL     OW37107   1.124   1.565  14.469
78423SOL    HW137108   1.070   1.593  14.395
78423SOL    HW237109   1.173   1.490  14.436
78424SOL     OW37110  14.530   0.240  14.611
78424SOL    HW137111  14.615   0.195  14.610
78424SOL    HW237112  14.550   0.328  14.579
78425SOL     OW37113  12.703   3.914   7.697
78425SOL    HW137114  12.706   3.834   7.749
78425SOL    HW237115  12.790   3.920   7.658
78426SOL     OW37116   3.398   8.046   8.500
78426SOL    HW137117   3.312   8.025   8.462
78426SOL    HW237118   3.377   8.087   8.584
78427SOL     OW37119   8.967  10.462  12.680
78427SOL    HW137120   9.038  10.525  12.692
78427SOL    HW237121   8.891  10.503  12.722
78428SOL     OW37122   5.966   3.583   1.949
78428SOL    HW137123   6.033   3.532   1.902
78428SOL    HW237124   6.011   3.616   2.026
78429SOL     OW37125  10.570   3.372  10.202
78429SOL    HW137126  10.590   3.280  10.215
78429SOL    HW237127  10.477   3.380  10.224
78430SOL     OW37128   2.401   4.623   2.760
78430SOL    HW137129   2.370   4.533   2.767
78430SOL    HW237130   2.363   4.668   2.836
78431SOL     OW37131   4.273   2.141   6.994
78431SOL    HW137132   4.249   2.064   7.046
78431SOL    HW237133   4.367   2.134   6.983
78432SOL     OW37134   7.812   8.615  13.457
78432SOL    HW137135   7.855   8.655  13.382
78432SOL    HW237136   7.736   8.570  13.420
78433SOL     OW37137   0.931   9.580   0.827
78433SOL    HW137138   0.845   9.555   0.859
78433SOL    HW237139   0.972   9.626   0.900
78434SOL     OW37140   5.437  12.838  12.806
78434SOL    HW137141   5.415  12.902  12.874
78434SOL    HW237142   5.352  12.810  12.771
78435SOL     OW37143  14.070   0.420   9.695
78435SOL    HW137144  14.062   0.334   9.735
78435SOL    HW237145  14.097   0.478   9.766
78436SOL     OW37146   1.736   8.289   3.292
78436SOL    HW137147   1.655   8.286   3.344
78436SOL    HW237148   1.715   8.344   3.217
78437SOL     OW37149  13.015   9.187  10.896
78437SOL    HW137150  12.993   9.268  10.851
78437SOL    HW237151  13.103   9.165  10.865
78438SOL     OW37152  10.171   3.056  13.133
78438SOL    HW137153  10.161   3.068  13.227
78438SOL    HW237154  10.263   3.034  13.121
78439SOL     OW37155   4.200   2.416   0.244
78439SOL    HW137156   4.277   2.365   0.220
78439SOL    HW237157   4.230   2.507   0.246
78440SOL     OW37158  14.602   9.831   8.768
78440SOL    HW137159  14.532   9.770   8.789
78440SOL    HW237160  14.560   9.917   8.766
78441SOL     OW37161   8.998   5.970   7.174
78441SOL    HW137162   8.911   5.982   7.136
78441SOL    HW237163   9.058   6.013   7.113
78442SOL     OW37164   0.135  12.049   3.991
78442SOL    HW137165   0.071  12.090   4.049
78442SOL    HW237166   0.180  12.122   3.949
78443SOL     OW37167   3.788   7.258   3.051
78443SOL    HW137168   3.707   7.309   3.048
78443SOL    HW237169   3.809   7.241   2.959
78444SOL     OW37170   0.885   2.854   4.478
78444SOL    HW137171   0.790   2.843   4.482
78444SOL    HW237172   0.919   2.798   4.548
78445SOL     OW37173  12.772   9.669   9.506
78445SOL    HW137174  12.735   9.757   9.516
78445SOL    HW237175  12.698   9.614   9.481
78446SOL     OW37176  10.000  12.650  13.905
78446SOL    HW137177   9.970  12.672  13.817
78446SOL    HW237178   9.943  12.579  13.933
78447SOL     OW37179  10.231   5.404  11.433
78447SOL    HW137180  10.286   5.355  11.371
78447SOL    HW237181  10.262   5.375  11.519
78448SOL     OW37182  11.377  11.674   3.707
78448SOL    HW137183  11.326  11.728   3.768
78448SOL    HW237184  11.463  11.666   3.749
78449SOL     OW37185  13.344  12.598   4.095
78449SOL    HW137186  13.386  12.684   4.091
78449SOL    HW237187  13.303  12.596   4.181
78450SOL     OW37188   2.302   6.524   7.133
78450SOL    HW137189   2.347   6.604   7.105
78450SOL    HW237190   2.254   6.496   7.055
78451SOL     OW37191   0.159   1.072   7.812
78451SOL    HW137192   0.219   1.049   7.742
78451SOL    HW237193   0.185   1.016   7.885
78452SOL     OW37194  13.177  14.178  11.876
78452SOL    HW137195  13.133  14.170  11.961
78452SOL    HW237196  13.215  14.092  11.859
78453SOL     OW37197   6.084   5.075   1.354
78453SOL    HW137198   6.060   5.110   1.440
78453SOL    HW237199   6.177   5.095   1.345
78454SOL     OW37200  13.929   4.005   7.620
78454SOL    HW137201  13.970   4.047   7.696
78454SOL    HW237202  13.930   3.912   7.642
78455SOL     OW37203   5.025   0.843   1.504
78455SOL    HW137204   5.033   0.801   1.590
78455SOL    HW237205   5.018   0.936   1.524
78456SOL     OW37206  11.004   4.683   6.356
78456SOL    HW137207  10.944   4.610   6.370
78456SOL    HW237208  11.038   4.670   6.268
78457SOL     OW37209   4.828  12.080  11.919
78457SOL    HW137210   4.914  12.101  11.954
78457SOL    HW237211   4.844  12.045  11.832
78458SOL     OW37212   4.165   6.499  11.727
78458SOL    HW137213   4.079   6.518  11.763
78458SOL    HW237214   4.156   6.411  11.689
78459SOL     OW37215   7.086   1.003   4.349
78459SOL    HW137216   7.162   0.948   4.367
78459SOL    HW237217   7.099   1.035   4.260
78460SOL     OW37218   7.908   1.220   0.639
78460SOL    HW137219   7.817   1.248   0.652
78460SOL    HW237220   7.917   1.143   0.695
78461SOL     OW37221  10.910   2.629  14.789
78461SOL    HW137222  10.995   2.653  14.827
78461SOL    HW237223  10.847   2.645  14.860
78462SOL     OW37224  14.558   1.019   9.176
78462SOL    HW137225  14.619   1.080   9.133
78462SOL    HW237226  14.507   1.075   9.235
78463SOL     OW37227   0.745   3.600   5.168
78463SOL    HW137228   0.752   3.643   5.253
78463SOL    HW237229   0.652   3.583   5.157
78464SOL     OW37230  10.878   5.770  13.863
78464SOL    HW137231  10.866   5.725  13.947
78464SOL    HW237232  10.969   5.800  13.865
78465SOL     OW37233   6.395   8.875  12.735
78465SOL    HW137234   6.368   8.798  12.785
78465SOL    HW237235   6.408   8.943  12.801
78466SOL     OW37236   4.953   2.365  12.930
78466SOL    HW137237   4.930   2.349  12.838
78466SOL    HW237238   4.915   2.291  12.977
78467SOL     OW37239  10.336  13.909   3.290
78467SOL    HW137240  10.310  13.822   3.322
78467SOL    HW237241  10.423  13.923   3.327
78468SOL     OW37242  12.423  11.244   3.924
78468SOL    HW137243  12.328  11.250   3.911
78468SOL    HW237244  12.454  11.188   3.853
78469SOL     OW37245  13.864  12.663  10.121
78469SOL    HW137246  13.872  12.751  10.159
78469SOL    HW237247  13.952  12.643  10.089
78470SOL     OW37248   9.616  13.183  11.187
78470SOL    HW137249   9.554  13.118  11.155
78470SOL    HW237250   9.702  13.143  11.174
78471SOL     OW37251  12.532   3.717  12.989
78471SOL    HW137252  12.480   3.660  13.046
78471SOL    HW237253  12.599   3.754  13.047
78472SOL     OW37254  12.426  12.542  11.245
78472SOL    HW137255  12.462  12.516  11.329
78472SOL    HW237256  12.502  12.548  11.187
78473SOL     OW37257   4.126  14.758   2.185
78473SOL    HW137258   4.051  14.786   2.237
78473SOL    HW237259   4.094  14.759   2.094
78474SOL     OW37260  13.796  13.856  13.502
78474SOL    HW137261  13.706  13.829  13.522
78474SOL    HW237262  13.815  13.924  13.567
78475SOL     OW37263   7.966   9.452   3.404
78475SOL    HW137264   8.003   9.398   3.334
78475SOL    HW237265   7.901   9.395   3.447
78476SOL     OW37266  11.092   2.918   5.582
78476SOL    HW137267  11.056   2.917   5.493
78476SOL    HW237268  11.185   2.899   5.571
78477SOL     OW37269   0.947   8.801   0.562
78477SOL    HW137270   0.878   8.737   0.582
78477SOL    HW237271   0.929   8.874   0.621
78478SOL     OW37272   1.181   4.634  11.840
78478SOL    HW137273   1.131   4.560  11.874
78478SOL    HW237274   1.264   4.632  11.889
78479SOL     OW37275   3.754   4.877  13.663
78479SOL    HW137276   3.765   4.971  13.652
78479SOL    HW237277   3.712   4.848  13.582
78480SOL     OW37278   8.190   6.844   5.347
78480SOL    HW137279   8.148   6.780   5.289
78480SOL    HW237280   8.274   6.804   5.369
78481SOL     OW37281   6.942   3.841  11.153
78481SOL    HW137282   6.931   3.935  11.163
78481SOL    HW237283   6.993   3.814  11.230
78482SOL     OW37284   7.074  13.886   2.857
78482SOL    HW137285   6.981  13.876   2.879
78482SOL    HW237286   7.108  13.797   2.856
78483SOL     OW37287   9.486  11.554  11.305
78483SOL    HW137288   9.457  11.609  11.232
78483SOL    HW237289   9.482  11.612  11.382
78484SOL     OW37290   3.499   6.123   3.520
78484SOL    HW137291   3.421   6.068   3.510
78484SOL    HW237292   3.483   6.197   3.461
78485SOL     OW37293   8.124  10.926   0.535
78485SOL    HW137294   8.054  10.989   0.522
78485SOL    HW237295   8.081  10.847   0.566
78486SOL     OW37296   0.443   3.210   3.468
78486SOL    HW137297   0.498   3.158   3.409
78486SOL    HW237298   0.389   3.145   3.513
78487SOL     OW37299   6.423   8.623   7.869
78487SOL    HW137300   6.366   8.662   7.936
78487SOL    HW237301   6.399   8.531   7.867
78488SOL     OW37302  13.844   8.735   7.850
78488SOL    HW137303  13.900   8.808   7.822
78488SOL    HW237304  13.904   8.670   7.884
78489SOL     OW37305   9.700   6.129  11.906
78489SOL    HW137306   9.762   6.087  11.966
78489SOL    HW237307   9.750   6.201  11.867
78490SOL     OW37308  14.580   9.947   3.403
78490SOL    HW137309  14.628   9.870   3.435
78490SOL    HW237310  14.574   9.934   3.309
78491SOL     OW37311  14.787   4.677   1.775
78491SOL    HW137312  14.780   4.753   1.833
78491SOL    HW237313  14.873   4.640   1.795
78492SOL     OW37314   0.928   6.152  12.304
78492SOL    HW137315   0.975   6.145  12.387
78492SOL    HW237316   0.940   6.243  12.277
78493SOL     OW37317  13.751   9.916   6.968
78493SOL    HW137318  13.692   9.982   7.002
78493SOL    HW237319  13.771   9.945   6.879
78494SOL     OW37320   5.020  12.154   7.978
78494SOL    HW137321   4.982  12.242   7.970
78494SOL    HW237322   4.985  12.106   7.904
78495SOL     OW37323  12.516  14.274  11.149
78495SOL    HW137324  12.542  14.356  11.107
78495SOL    HW237325  12.590  14.215  11.133
78496SOL     OW37326   6.621   6.195   5.766
78496SOL    HW137327   6.594   6.158   5.850
78496SOL    HW237328   6.667   6.276   5.790
78497SOL     OW37329   1.215   6.916   0.920
78497SOL    HW137330   1.272   6.871   0.857
78497SOL    HW237331   1.251   7.004   0.926
78498SOL     OW37332   8.248   4.584   9.436
78498SOL    HW137333   8.305   4.548   9.504
78498SOL    HW237334   8.304   4.590   9.358
78499SOL     OW37335   1.969  10.543  13.789
78499SOL    HW137336   2.052  10.517  13.829
78499SOL    HW237337   1.991  10.557  13.697
78500SOL     OW37338  10.365  14.012   0.372
78500SOL    HW137339  10.434  14.073   0.398
78500SOL    HW237340  10.403  13.964   0.298
78501SOL     OW37341   6.082   0.300  10.114
78501SOL    HW137342   6.047   0.385  10.087
78501SOL    HW237343   6.026   0.236  10.070
78502SOL     OW37344   9.418  14.118   1.104
78502SOL    HW137345   9.428  14.063   1.181
78502SOL    HW237346   9.458  14.068   1.033
78503SOL     OW37347   2.022  13.982  12.031
78503SOL    HW137348   1.935  13.957  12.000
78503SOL    HW237349   2.005  14.041  12.104
78504SOL     OW37350   6.729   7.608   6.216
78504SOL    HW137351   6.650   7.660   6.230
78504SOL    HW237352   6.701   7.518   6.227
78505SOL     OW37353   2.722  10.379   8.008
78505SOL    HW137354   2.774  10.307   8.045
78505SOL    HW237355   2.633  10.343   8.002
78506SOL     OW37356   7.231   7.088  12.110
78506SOL    HW137357   7.211   7.003  12.070
78506SOL    HW237358   7.227   7.070  12.204
78507SOL     OW37359  11.181  11.208  12.209
78507SOL    HW137360  11.267  11.176  12.235
78507SOL    HW237361  11.140  11.135  12.164
78508SOL     OW37362   2.136   9.948  13.484
78508SOL    HW137363   2.204   9.927  13.548
78508SOL    HW237364   2.112   9.864  13.446
78509SOL     OW37365   4.334  11.603  11.178
78509SOL    HW137366   4.399  11.547  11.222
78509SOL    HW237367   4.346  11.584  11.085
78510SOL     OW37368   6.476   0.041  13.611
78510SOL    HW137369   6.510   0.072  13.527
78510SOL    HW237370   6.408  14.858  13.587
78511SOL     OW37371   9.153   7.352   2.159
78511SOL    HW137372   9.243   7.379   2.177
78511SOL    HW237373   9.160   7.260   2.132
78512SOL     OW37374  13.241  10.296   0.399
78512SOL    HW137375  13.235  10.290   0.494
78512SOL    HW237376  13.181  10.229   0.367
78513SOL     OW37377  11.989  14.458   1.796
78513SOL    HW137378  11.951  14.370   1.801
78513SOL    HW237379  12.063  14.456   1.857
78514SOL     OW37380   6.941   2.878  10.652
78514SOL    HW137381   6.950   2.788  10.620
78514SOL    HW237382   7.010   2.887  10.717
78515SOL     OW37383   1.027   8.663   2.622
78515SOL    HW137384   0.936   8.646   2.597
78515SOL    HW237385   1.031   8.758   2.635
78516SOL     OW37386   0.122   0.837  13.635
78516SOL    HW137387   0.127   0.871  13.546
78516SOL    HW237388   0.191   0.883  13.683
78517SOL     OW37389   3.918   8.927   6.894
78517SOL    HW137390   3.951   8.847   6.935
78517SOL    HW237391   3.991   8.957   6.840
78518SOL     OW37392   7.236  11.739   8.588
78518SOL    HW137393   7.251  11.815   8.533
78518SOL    HW237394   7.224  11.775   8.676
78519SOL     OW37395   8.884   5.816   6.367
78519SOL    HW137396   8.805   5.775   6.333
78519SOL    HW237397   8.859   5.849   6.454
78520SOL     OW37398   6.180   3.627  14.698
78520SOL    HW137399   6.148   3.669  14.778
78520SOL    HW237400   6.270   3.601  14.720
78521SOL     OW37401   6.831   8.705   6.597
78521SOL    HW137402   6.790   8.790   6.609
78521SOL    HW237403   6.791   8.648   6.663
78522SOL     OW37404  14.133   1.817   6.443
78522SOL    HW137405  14.206   1.778   6.395
78522SOL    HW237406  14.170   1.894   6.485
78523SOL     OW37407   2.130  11.230   0.513
78523SOL    HW137408   2.085  11.148   0.493
78523SOL    HW237409   2.216  11.203   0.543
78524SOL     OW37410   6.587   2.662   4.915
78524SOL    HW137411   6.604   2.638   5.006
78524SOL    HW237412   6.553   2.752   4.920
78525SOL     OW37413  12.482   1.805  11.751
78525SOL    HW137414  12.399   1.852  11.764
78525SOL    HW237415  12.457   1.712  11.751
78526SOL     OW37416   4.585   1.007   8.815
78526SOL    HW137417   4.496   0.973   8.809
78526SOL    HW237418   4.641   0.929   8.816
78527SOL     OW37419  13.561  11.104   5.186
78527SOL    HW137420  13.515  11.182   5.217
78527SOL    HW237421  13.562  11.113   5.091
78528SOL     OW37422   2.053   4.813   5.856
78528SOL    HW137423   1.974   4.780   5.898
78528SOL    HW237424   2.021   4.855   5.776
78529SOL     OW37425   5.352   2.042   2.629
78529SOL    HW137426   5.403   2.116   2.660
78529SOL    HW237427   5.262   2.073   2.627
78530SOL     OW37428   6.306   8.310  13.411
78530SOL    HW137429   6.246   8.284  13.481
78530SOL    HW237430   6.391   8.318  13.453
78531SOL     OW37431   4.313   5.622   1.108
78531SOL    HW137432   4.310   5.527   1.096
78531SOL    HW237433   4.361   5.634   1.190
78532SOL     OW37434   1.221   8.823  11.311
78532SOL    HW137435   1.266   8.777  11.240
78532SOL    HW237436   1.231   8.916  11.291
78533SOL     OW37437   6.200  13.314   6.245
78533SOL    HW137438   6.280  13.272   6.277
78533SOL    HW237439   6.159  13.247   6.190
78534SOL     OW37440  10.700   7.991  10.379
78534SOL    HW137441  10.666   8.027  10.296
78534SOL    HW237442  10.626   7.943  10.416
78535SOL     OW37443   6.500   6.230   8.093
78535SOL    HW137444   6.569   6.197   8.149
78535SOL    HW237445   6.539   6.231   8.005
78536SOL     OW37446   2.589   8.648   6.642
78536SOL    HW137447   2.586   8.735   6.603
78536SOL    HW237448   2.617   8.664   6.733
78537SOL     OW37449   9.728   7.709   8.550
78537SOL    HW137450   9.792   7.721   8.480
78537SOL    HW237451   9.767   7.753   8.626
78538SOL     OW37452  13.740   6.741  10.533
78538SOL    HW137453  13.810   6.799  10.503
78538SOL    HW237454  13.720   6.686  10.458
78539SOL     OW37455   3.812  10.699   2.981
78539SOL    HW137456   3.815  10.705   2.886
78539SOL    HW237457   3.798  10.606   3.000
78540SOL     OW37458   7.313   9.681  10.527
78540SOL    HW137459   7.267   9.761  10.554
78540SOL    HW237460   7.377   9.710  10.462
78541SOL     OW37461  11.406   8.031   7.116
78541SOL    HW137462  11.375   8.027   7.206
78541SOL    HW237463  11.390   8.122   7.089
78542SOL     OW37464  12.418   4.726   5.304
78542SOL    HW137465  12.412   4.630   5.304
78542SOL    HW237466  12.471   4.747   5.228
78543SOL     OW37467   0.187  13.340  13.162
78543SOL    HW137468   0.168  13.405  13.094
78543SOL    HW237469   0.110  13.342  13.219
78544SOL     OW37470   7.148   1.230   9.937
78544SOL    HW137471   7.240   1.240   9.963
78544SOL    HW237472   7.149   1.243   9.842
78545SOL     OW37473   9.961   4.807   3.531
78545SOL    HW137474   9.944   4.718   3.564
78545SOL    HW237475  10.036   4.837   3.582
78546SOL     OW37476  12.487   9.335   8.591
78546SOL    HW137477  12.522   9.251   8.560
78546SOL    HW237478  12.392   9.324   8.586
78547SOL     OW37479   7.975   9.072   0.647
78547SOL    HW137480   7.981   8.988   0.600
78547SOL    HW237481   8.014   9.135   0.586
78548SOL     OW37482   0.493  10.687   7.559
78548SOL    HW137483   0.584  10.714   7.567
78548SOL    HW237484   0.474  10.694   7.466
78549SOL     OW37485  13.049  13.519   1.835
78549SOL    HW137486  13.026  13.564   1.916
78549SOL    HW237487  13.086  13.436   1.863
78550SOL     OW37488   8.240  12.316   3.481
78550SOL    HW137489   8.187  12.368   3.421
78550SOL    HW237490   8.177  12.261   3.527
78551SOL     OW37491  14.336   4.953   4.959
78551SOL    HW137492  14.290   4.886   5.009
78551SOL    HW237493  14.414   4.909   4.926
78552SOL     OW37494   7.600   6.980   6.518
78552SOL    HW137495   7.516   6.989   6.561
78552SOL    HW237496   7.596   7.041   6.444
78553SOL     OW37497   8.830  14.426   5.963
78553SOL    HW137498   8.805  14.350   6.015
78553SOL    HW237499   8.926  14.419   5.955
78554SOL     OW37500   7.389   9.079  14.767
78554SOL    HW137501   7.367   9.037  14.850
78554SOL    HW237502   7.438   9.014  14.718
78555SOL     OW37503   2.496   9.504  14.836
78555SOL    HW137504   2.485   9.432   0.019
78555SOL    HW237505   2.572   9.478  14.783
78556SOL     OW37506   6.836   2.675   5.304
78556SOL    HW137507   6.776   2.741   5.339
78556SOL    HW237508   6.802   2.655   5.217
78557SOL     OW37509  10.679   1.808   9.278
78557SOL    HW137510  10.669   1.754   9.200
78557SOL    HW237511  10.684   1.745   9.350
78558SOL     OW37512  14.786  13.365   6.292
78558SOL    HW137513  14.810  13.276   6.320
78558SOL    HW237514  14.869  13.413   6.291
78559SOL     OW37515   9.428  12.855  12.241
78559SOL    HW137516   9.442  12.903  12.323
78559SOL    HW237517   9.516  12.846  12.203
78560SOL     OW37518   2.844  12.304  10.254
78560SOL    HW137519   2.851  12.303  10.349
78560SOL    HW237520   2.777  12.369  10.235
78561SOL     OW37521  11.248  13.491   0.981
78561SOL    HW137522  11.221  13.409   0.942
78561SOL    HW237523  11.326  13.517   0.931
78562SOL     OW37524   1.812   4.002  10.109
78562SOL    HW137525   1.888   3.951  10.138
78562SOL    HW237526   1.737   3.947  10.128
78563SOL     OW37527   7.118   9.061   4.392
78563SOL    HW137528   7.155   9.148   4.406
78563SOL    HW237529   7.150   9.034   4.306
78564SOL     OW37530   3.070   4.877  12.037
78564SOL    HW137531   3.104   4.830  11.960
78564SOL    HW237532   3.047   4.964  12.004
78565SOL     OW37533   3.351   9.126   9.214
78565SOL    HW137534   3.271   9.131   9.266
78565SOL    HW237535   3.366   9.215   9.184
78566SOL     OW37536  12.745   8.724   2.706
78566SOL    HW137537  12.721   8.632   2.722
78566SOL    HW237538  12.783   8.723   2.618
78567SOL     OW37539   4.896   4.109  13.891
78567SOL    HW137540   4.804   4.084  13.882
78567SOL    HW237541   4.916   4.153  13.808
78568SOL     OW37542   2.324   4.893   3.295
78568SOL    HW137543   2.324   4.978   3.251
78568SOL    HW237544   2.405   4.851   3.268
78569SOL     OW37545   0.767   0.292   8.336
78569SOL    HW137546   0.706   0.248   8.276
78569SOL    HW237547   0.854   0.272   8.301
78570SOL     OW37548   2.124  10.078   3.953
78570SOL    HW137549   2.074  10.133   3.892
78570SOL    HW237550   2.206  10.059   3.906
78571SOL     OW37551  10.987  14.801   6.104
78571SOL    HW137552  11.049  14.825   6.035
78571SOL    HW237553  10.997  14.869   6.170
78572SOL     OW37554   3.635   3.916  10.774
78572SOL    HW137555   3.668   3.850  10.714
78572SOL    HW237556   3.600   3.985  10.718
78573SOL     OW37557   9.784  11.017  12.759
78573SOL    HW137558   9.706  11.023  12.704
78573SOL    HW237559   9.771  11.084  12.826
78574SOL     OW37560   8.491   1.784   2.669
78574SOL    HW137561   8.470   1.739   2.587
78574SOL    HW237562   8.567   1.737   2.703
78575SOL     OW37563   9.967  10.195   6.761
78575SOL    HW137564   9.995  10.119   6.709
78575SOL    HW237565   9.978  10.269   6.701
78576SOL     OW37566  11.605  11.796   5.728
78576SOL    HW137567  11.659  11.788   5.808
78576SOL    HW237568  11.648  11.739   5.665
78577SOL     OW37569   2.604   4.774   0.217
78577SOL    HW137570   2.514   4.757   0.245
78577SOL    HW237571   2.612   4.729   0.133
78578SOL     OW37572  13.698  13.055  14.554
78578SOL    HW137573  13.741  13.084  14.635
78578SOL    HW237574  13.644  13.130  14.529
78579SOL     OW37575   8.931   3.341  14.120
78579SOL    HW137576   9.023   3.365  14.129
78579SOL    HW237577   8.896   3.401  14.055
78580SOL     OW37578   8.383   7.051   7.537
78580SOL    HW137579   8.341   6.986   7.593
78580SOL    HW237580   8.318   7.068   7.468
78581SOL     OW37581   6.662  12.104   4.606
78581SOL    HW137582   6.677  12.058   4.523
78581SOL    HW237583   6.601  12.047   4.653
78582SOL     OW37584   5.655  13.110   2.000
78582SOL    HW137585   5.669  13.117   2.095
78582SOL    HW237586   5.743  13.103   1.963
78583SOL     OW37587  11.959   3.173  11.300
78583SOL    HW137588  11.940   3.246  11.360
78583SOL    HW237589  11.891   3.178  11.234
78584SOL     OW37590   2.289   7.039   8.206
78584SOL    HW137591   2.220   7.027   8.141
78584SOL    HW237592   2.296   7.134   8.217
78585SOL     OW37593   8.783   9.751   9.300
78585SOL    HW137594   8.700   9.715   9.331
78585SOL    HW237595   8.759   9.833   9.257
78586SOL     OW37596  12.293   5.066   8.695
78586SOL    HW137597  12.247   5.030   8.619
78586SOL    HW237598  12.375   5.017   8.700
78587SOL     OW37599   7.484  12.076   3.566
78587SOL    HW137600   7.568  12.063   3.611
78587SOL    HW237601   7.425  12.107   3.634
78588SOL     OW37602  12.720   5.075   9.085
78588SOL    HW137603  12.746   5.011   9.017
78588SOL    HW237604  12.761   5.157   9.057
78589SOL     OW37605   8.429   3.665   9.692
78589SOL    HW137606   8.513   3.623   9.673
78589SOL    HW237607   8.405   3.634   9.779
78590SOL     OW37608   4.073   5.978  12.141
78590SOL    HW137609   4.012   6.049  12.160
78590SOL    HW237610   4.077   5.975  12.045
78591SOL     OW37611  14.226   1.049   0.122
78591SOL    HW137612  14.213   1.140   0.095
78591SOL    HW237613  14.138   1.014   0.133
78592SOL     OW37614   2.626   2.922   6.660
78592SOL    HW137615   2.547   2.962   6.697
78592SOL    HW237616   2.593   2.843   6.616
78593SOL     OW37617  12.526  13.474   1.479
78593SOL    HW137618  12.483  13.436   1.402
78593SOL    HW237619  12.458  13.477   1.546
78594SOL     OW37620  12.917   1.264  11.320
78594SOL    HW137621  13.004   1.285  11.285
78594SOL    HW237622  12.906   1.170  11.301
78595SOL     OW37623  14.428   1.829  14.366
78595SOL    HW137624  14.389   1.779  14.294
78595SOL    HW237625  14.379   1.911  14.367
78596SOL     OW37626   7.952  11.118   6.002
78596SOL    HW137627   7.946  11.211   6.019
78596SOL    HW237628   7.965  11.078   6.088
78597SOL     OW37629   8.496   1.649   4.928
78597SOL    HW137630   8.572   1.705   4.915
78597SOL    HW237631   8.434   1.675   4.860
78598SOL     OW37632  10.198   1.305  13.214
78598SOL    HW137633  10.161   1.256  13.140
78598SOL    HW237634  10.131   1.299  13.282
78599SOL     OW37635   1.079  11.521   7.323
78599SOL    HW137636   1.145  11.589   7.331
78599SOL    HW237637   1.021  11.535   7.397
78600SOL     OW37638   4.617   5.761   2.595
78600SOL    HW137639   4.572   5.752   2.678
78600SOL    HW237640   4.626   5.855   2.583
78601SOL     OW37641  10.575   9.101   8.348
78601SOL    HW137642  10.610   9.152   8.421
78601SOL    HW237643  10.647   9.043   8.323
78602SOL     OW37644  10.368  11.167   7.266
78602SOL    HW137645  10.285  11.204   7.236
78602SOL    HW237646  10.430  11.241   7.263
78603SOL     OW37647   4.634  12.655   5.372
78603SOL    HW137648   4.643  12.712   5.295
78603SOL    HW237649   4.710  12.675   5.426
78604SOL     OW37650   2.724   1.362   0.073
78604SOL    HW137651   2.634   1.396   0.080
78604SOL    HW237652   2.737   1.345  14.859
78605SOL     OW37653   8.669   7.283   9.973
78605SOL    HW137654   8.749   7.236   9.953
78605SOL    HW237655   8.632   7.238  10.049
78606SOL     OW37656   5.340   5.722   3.967
78606SOL    HW137657   5.301   5.698   4.050
78606SOL    HW237658   5.387   5.643   3.939
78607SOL     OW37659   1.468   6.538   2.956
78607SOL    HW137660   1.531   6.467   2.966
78607SOL    HW237661   1.391   6.496   2.917
78608SOL     OW37662  10.814   1.809   3.113
78608SOL    HW137663  10.807   1.900   3.142
78608SOL    HW237664  10.730   1.791   3.070
78609SOL     OW37665   4.661   5.358   1.807
78609SOL    HW137666   4.595   5.363   1.738
78609SOL    HW237667   4.670   5.448   1.839
78610SOL     OW37668   1.006   2.342   0.352
78610SOL    HW137669   0.919   2.376   0.370
78610SOL    HW237670   0.992   2.269   0.291
78611SOL     OW37671   7.962  14.551  13.467
78611SOL    HW137672   8.043  14.591  13.433
78611SOL    HW237673   7.958  14.465  13.424
78612SOL     OW37674   1.756   4.874  11.767
78612SOL    HW137675   1.801   4.954  11.795
78612SOL    HW237676   1.679   4.869  11.823
78613SOL     OW37677   0.575   6.596   7.754
78613SOL    HW137678   0.641   6.664   7.764
78613SOL    HW237679   0.624   6.513   7.759
78614SOL     OW37680   9.105   6.866  10.283
78614SOL    HW137681   9.048   6.943  10.290
78614SOL    HW237682   9.152   6.879  10.201
78615SOL     OW37683  11.781   8.817  12.342
78615SOL    HW137684  11.720   8.748  12.315
78615SOL    HW237685  11.856   8.770  12.378
78616SOL     OW37686   3.124   8.867   8.364
78616SOL    HW137687   3.090   8.939   8.312
78616SOL    HW237688   3.130   8.794   8.302
78617SOL     OW37689   8.528   4.614  11.967
78617SOL    HW137690   8.460   4.676  11.991
78617SOL    HW237691   8.489   4.562  11.896
78618SOL     OW37692   4.449   7.532  12.448
78618SOL    HW137693   4.515   7.518  12.379
78618SOL    HW237694   4.477   7.613  12.491
78619SOL     OW37695   7.259  12.486  12.270
78619SOL    HW137696   7.202  12.554  12.308
78619SOL    HW237697   7.201  12.435  12.213
78620SOL     OW37698   7.239   4.859   9.688
78620SOL    HW137699   7.208   4.933   9.740
78620SOL    HW237700   7.209   4.878   9.599
78621SOL     OW37701   3.685   6.232  11.137
78621SOL    HW137702   3.686   6.144  11.102
78621SOL    HW237703   3.716   6.287  11.065
78622SOL     OW37704   7.849   0.667  14.379
78622SOL    HW137705   7.917   0.654  14.445
78622SOL    HW237706   7.771   0.693  14.429
78623SOL     OW37707   0.617  11.052  10.303
78623SOL    HW137708   0.647  11.040  10.394
78623SOL    HW237709   0.695  11.038  10.250
78624SOL     OW37710   8.671  11.795  13.367
78624SOL    HW137711   8.733  11.842  13.423
78624SOL    HW237712   8.622  11.739  13.428
78625SOL     OW37713   1.731   8.311   3.833
78625SOL    HW137714   1.642   8.311   3.799
78625SOL    HW237715   1.786   8.302   3.755
78626SOL     OW37716   1.644   7.826   1.087
78626SOL    HW137717   1.705   7.894   1.059
78626SOL    HW237718   1.687   7.744   1.064
78627SOL     OW37719  13.548   9.737   1.078
78627SOL    HW137720  13.565   9.799   1.149
78627SOL    HW237721  13.472   9.772   1.033
78628SOL     OW37722  10.316   4.009   0.473
78628SOL    HW137723  10.388   4.053   0.428
78628SOL    HW237724  10.237   4.039   0.427
78629SOL     OW37725   2.507   3.836   6.744
78629SOL    HW137726   2.582   3.896   6.746
78629SOL    HW237727   2.545   3.752   6.719
78630SOL     OW37728   2.101   6.662  13.839
78630SOL    HW137729   2.177   6.634  13.788
78630SOL    HW237730   2.053   6.581  13.857
78631SOL     OW37731  11.357   9.809   2.787
78631SOL    HW137732  11.357   9.714   2.775
78631SOL    HW237733  11.367   9.844   2.698
78632SOL     OW37734  13.836   4.249  13.873
78632SOL    HW137735  13.837   4.322  13.935
78632SOL    HW237736  13.916   4.200  13.892
78633SOL     OW37737  11.811   6.327  12.459
78633SOL    HW137738  11.734   6.377  12.485
78633SOL    HW237739  11.813   6.334  12.364
78634SOL     OW37740  11.724   6.541   0.144
78634SOL    HW137741  11.637   6.574   0.167
78634SOL    HW237742  11.751   6.490   0.220
78635SOL     OW37743   0.679   3.317   6.935
78635SOL    HW137744   0.748   3.306   6.999
78635SOL    HW237745   0.623   3.386   6.971
78636SOL     OW37746   0.099   1.999   5.760
78636SOL    HW137747   0.109   2.004   5.665
78636SOL    HW237748   0.021   2.053   5.778
78637SOL     OW37749   6.792   6.766   9.284
78637SOL    HW137750   6.846   6.729   9.215
78637SOL    HW237751   6.777   6.857   9.257
78638SOL     OW37752   0.298  14.120   7.257
78638SOL    HW137753   0.344  14.044   7.293
78638SOL    HW237754   0.207  14.092   7.249
78639SOL     OW37755  10.492   2.979   7.501
78639SOL    HW137756  10.465   2.976   7.409
78639SOL    HW237757  10.418   3.019   7.546
78640SOL     OW37758  14.031   7.310  11.964
78640SOL    HW137759  13.962   7.244  11.955
78640SOL    HW237760  14.112   7.262  11.952
78641SOL     OW37761   3.307   5.302  10.748
78641SOL    HW137762   3.235   5.360  10.725
78641SOL    HW237763   3.309   5.303  10.844
78642SOL     OW37764   2.192  13.196   8.392
78642SOL    HW137765   2.261  13.134   8.372
78642SOL    HW237766   2.162  13.229   8.307
78643SOL     OW37767   7.983  11.439   5.179
78643SOL    HW137768   7.969  11.442   5.274
78643SOL    HW237769   7.898  11.466   5.142
78644SOL     OW37770   5.812  14.879   8.175
78644SOL    HW137771   5.767   0.080   8.200
78644SOL    HW237772   5.869  14.859   8.249
78645SOL     OW37773  13.033   2.182   4.785
78645SOL    HW137774  12.952   2.204   4.831
78645SOL    HW237775  13.102   2.208   4.846
78646SOL     OW37776   8.539   4.392   1.858
78646SOL    HW137777   8.591   4.466   1.889
78646SOL    HW237778   8.448   4.417   1.877
78647SOL     OW37779   0.803  11.819   5.804
78647SOL    HW137780   0.817  11.908   5.773
78647SOL    HW237781   0.711  11.817   5.830
78648SOL     OW37782  10.129   2.905   2.388
78648SOL    HW137783  10.048   2.855   2.375
78648SOL    HW237784  10.140   2.907   2.483
78649SOL     OW37785   9.704   1.083   1.925
78649SOL    HW137786   9.626   1.130   1.956
78649SOL    HW237787   9.702   1.000   1.972
78650SOL     OW37788   7.496  11.697   4.754
78650SOL    HW137789   7.412  11.664   4.786
78650SOL    HW237790   7.484  11.704   4.659
78651SOL     OW37791   5.112   7.571  13.522
78651SOL    HW137792   5.096   7.518  13.444
78651SOL    HW237793   5.138   7.508  13.589
78652SOL     OW37794   1.184   5.333  14.007
78652SOL    HW137795   1.188   5.237  14.006
78652SOL    HW237796   1.176   5.358  13.915
78653SOL     OW37797  12.153  11.247   6.291
78653SOL    HW137798  12.106  11.164   6.299
78653SOL    HW237799  12.243  11.226   6.316
78654SOL     OW37800  12.461   8.116   4.756
78654SOL    HW137801  12.507   8.199   4.751
78654SOL    HW237802  12.376   8.137   4.795
78655SOL     OW37803   9.191  12.622   4.644
78655SOL    HW137804   9.281  12.628   4.677
78655SOL    HW237805   9.146  12.696   4.685
78656SOL     OW37806   8.111  10.825   7.750
78656SOL    HW137807   8.175  10.826   7.822
78656SOL    HW237808   8.164  10.832   7.671
78657SOL     OW37809   1.354  13.457   8.456
78657SOL    HW137810   1.270  13.428   8.492
78657SOL    HW237811   1.345  13.551   8.445
78658SOL     OW37812  12.266   2.791   2.294
78658SOL    HW137813  12.210   2.731   2.344
78658SOL    HW237814  12.245   2.878   2.328
78659SOL     OW37815   1.646   4.360  11.680
78659SOL    HW137816   1.672   4.414  11.605
78659SOL    HW237817   1.555   4.338  11.663
78660SOL     OW37818   4.954   6.811   0.562
78660SOL    HW137819   5.049   6.810   0.556
78660SOL    HW237820   4.928   6.719   0.550
78661SOL     OW37821   2.528   7.047   9.745
78661SOL    HW137822   2.524   7.129   9.794
78661SOL    HW237823   2.619   7.039   9.718
78662SOL     OW37824   8.461   5.234  10.582
78662SOL    HW137825   8.536   5.203  10.531
78662SOL    HW237826   8.407   5.282  10.518
78663SOL     OW37827   0.337   4.423   6.068
78663SOL    HW137828   0.291   4.340   6.086
78663SOL    HW237829   0.273   4.490   6.089
78664SOL     OW37830   7.650   0.156   2.292
78664SOL    HW137831   7.555   0.166   2.284
78664SOL    HW237832   7.663   0.116   2.378
78665SOL     OW37833  11.791   7.483   3.245
78665SOL    HW137834  11.870   7.471   3.193
78665SOL    HW237835  11.730   7.416   3.211
78666SOL     OW37836   0.532   8.686  14.705
78666SOL    HW137837   0.587   8.627  14.654
78666SOL    HW237838   0.442   8.660  14.683
78667SOL     OW37839   2.798   7.309   2.211
78667SOL    HW137840   2.767   7.359   2.135
78667SOL    HW237841   2.752   7.347   2.286
78668SOL     OW37842   9.607   9.749   0.053
78668SOL    HW137843   9.670   9.729   0.123
78668SOL    HW237844   9.656   9.802  14.870
78669SOL     OW37845   8.850   3.669   8.975
78669SOL    HW137846   8.894   3.587   8.996
78669SOL    HW237847   8.808   3.653   8.890
78670SOL     OW37848   1.959  10.109   2.908
78670SOL    HW137849   1.917  10.169   2.969
78670SOL    HW237850   1.935  10.141   2.821
78671SOL     OW37851  11.429   7.273   6.410
78671SOL    HW137852  11.393   7.281   6.322
78671SOL    HW237853  11.476   7.190   6.410
78672SOL     OW37854   2.963  10.701   8.164
78672SOL    HW137855   2.984  10.617   8.124
78672SOL    HW237856   3.027  10.762   8.127
78673SOL     OW37857  10.671  12.761  14.310
78673SOL    HW137858  10.722  12.681  14.297
78673SOL    HW237859  10.726  12.831  14.275
78674SOL     OW37860   7.374   9.900  14.563
78674SOL    HW137861   7.323   9.978  14.584
78674SOL    HW237862   7.376   9.897  14.467
78675SOL     OW37863   0.972   9.643   0.467
78675SOL    HW137864   0.877   9.632   0.481
78675SOL    HW237865   1.012   9.588   0.534
78676SOL     OW37866   6.849  10.848  14.720
78676SOL    HW137867   6.798  10.923  14.750
78676SOL    HW237868   6.879  10.872  14.632
78677SOL     OW37869   6.269   8.595  10.395
78677SOL    HW137870   6.187   8.643  10.390
78677SOL    HW237871   6.337   8.662  10.386
78678SOL     OW37872  11.778   3.346  14.351
78678SOL    HW137873  11.713   3.410  14.320
78678SOL    HW237874  11.754   3.265  14.306
78679SOL     OW37875  11.783  12.405   1.793
78679SOL    HW137876  11.785  12.391   1.698
78679SOL    HW237877  11.707  12.461   1.808
78680SOL     OW37878   5.365   6.119   3.056
78680SOL    HW137879   5.363   6.169   2.974
78680SOL    HW237880   5.360   6.028   3.029
78681SOL     OW37881   1.230   1.155  11.107
78681SOL    HW137882   1.233   1.060  11.104
78681SOL    HW237883   1.310   1.180  11.155
78682SOL     OW37884   5.795   5.938   8.404
78682SOL    HW137885   5.814   6.020   8.358
78682SOL    HW237886   5.819   5.870   8.342
78683SOL     OW37887   9.758  13.282  12.482
78683SOL    HW137888   9.798  13.255  12.400
78683SOL    HW237889   9.728  13.200  12.522
78684SOL     OW37890  10.198   0.376   4.523
78684SOL    HW137891  10.259   0.307   4.548
78684SOL    HW237892  10.224   0.401   4.435
78685SOL     OW37893  14.794   1.915  13.143
78685SOL    HW137894  14.725   1.849  13.144
78685SOL    HW237895  14.760   1.986  13.197
78686SOL     OW37896   2.352  11.273   2.526
78686SOL    HW137897   2.415  11.252   2.458
78686SOL    HW237898   2.405  11.293   2.603
78687SOL     OW37899  14.514   5.337   3.999
78687SOL    HW137900  14.564   5.315   3.920
78687SOL    HW237901  14.431   5.372   3.966
78688SOL     OW37902   1.531   5.110   3.456
78688SOL    HW137903   1.616   5.068   3.466
78688SOL    HW237904   1.529   5.178   3.524
78689SOL     OW37905   3.585  12.370  13.246
78689SOL    HW137906   3.522  12.303  13.274
78689SOL    HW237907   3.669  12.325  13.248
78690SOL     OW37908  11.768   2.099  10.175
78690SOL    HW137909  11.835   2.042  10.138
78690SOL    HW237910  11.727   2.140  10.099
78691SOL     OW37911  10.249   6.145  11.882
78691SOL    HW137912  10.219   6.205  11.950
78691SOL    HW237913  10.198   6.167  11.805
78692SOL     OW37914  13.754   9.555   4.136
78692SOL    HW137915  13.729   9.493   4.205
78692SOL    HW237916  13.843   9.530   4.112
78693SOL     OW37917  10.337  10.462   5.177
78693SOL    HW137918  10.373  10.540   5.136
78693SOL    HW237919  10.266  10.434   5.118
78694SOL     OW37920   0.174  13.709   3.821
78694SOL    HW137921   0.105  13.775   3.824
78694SOL    HW237922   0.253  13.757   3.797
78695SOL     OW37923   2.472   0.032  10.417
78695SOL    HW137924   2.469   0.102  10.482
78695SOL    HW237925   2.448   0.075  10.335
78696SOL     OW37926   3.312   5.650   6.163
78696SOL    HW137927   3.272   5.737   6.172
78696SOL    HW237928   3.393   5.656   6.214
78697SOL     OW37929   3.706   4.861   5.839
78697SOL    HW137930   3.630   4.889   5.889
78697SOL    HW237931   3.780   4.905   5.880
78698SOL     OW37932   6.176  12.430   3.520
78698SOL    HW137933   6.249  12.368   3.518
78698SOL    HW237934   6.205  12.499   3.579
78699SOL     OW37935   0.329   5.004  12.522
78699SOL    HW137936   0.308   5.093  12.493
78699SOL    HW237937   0.366   5.016  12.609
78700SOL     OW37938   3.010  13.646  14.310
78700SOL    HW137939   2.985  13.732  14.278
78700SOL    HW237940   2.973  13.641  14.398
78701SOL     OW37941  12.269  13.682   2.527
78701SOL    HW137942  12.339  13.663   2.588
78701SOL    HW237943  12.189  13.679   2.579
78702SOL     OW37944  11.276   2.662  10.859
78702SOL    HW137945  11.349   2.678  10.919
78702SOL    HW237946  11.315   2.670  10.772
78703SOL     OW37947  12.340   7.341  10.437
78703SOL    HW137948  12.376   7.378  10.356
78703SOL    HW237949  12.381   7.254  10.443
78704SOL     OW37950   3.054   9.683   9.627
78704SOL    HW137951   3.017   9.648   9.546
78704SOL    HW237952   3.067   9.777   9.609
78705SOL     OW37953   5.172  13.402   2.835
78705SOL    HW137954   5.264  13.387   2.815
78705SOL    HW237955   5.125  13.370   2.758
78706SOL     OW37956   9.880   4.182   2.138
78706SOL    HW137957   9.929   4.107   2.105
78706SOL    HW237958   9.841   4.152   2.220
78707SOL     OW37959  12.889   4.207   3.007
78707SOL    HW137960  12.979   4.176   3.006
78707SOL    HW237961  12.848   4.158   3.078
78708SOL     OW37962   3.606   7.077   1.933
78708SOL    HW137963   3.699   7.059   1.933
78708SOL    HW237964   3.573   7.038   1.852
78709SOL     OW37965   8.820  11.763   3.482
78709SOL    HW137966   8.873  11.748   3.560
78709SOL    HW237967   8.790  11.677   3.455
78710SOL     OW37968  12.542   0.168  13.648
78710SOL    HW137969  12.599   0.178  13.724
78710SOL    HW237970  12.463   0.218  13.669
78711SOL     OW37971  11.540   2.303   2.768
78711SOL    HW137972  11.550   2.372   2.834
78711SOL    HW237973  11.493   2.345   2.696
78712SOL     OW37974   0.609   9.729  10.120
78712SOL    HW137975   0.631   9.745  10.212
78712SOL    HW237976   0.516   9.751  10.114
78713SOL     OW37977   8.661   5.942  11.921
78713SOL    HW137978   8.568   5.942  11.898
78713SOL    HW237979   8.663   5.925  12.015
78714SOL     OW37980   8.732   5.054  11.122
78714SOL    HW137981   8.750   5.075  11.030
78714SOL    HW237982   8.759   5.131  11.170
78715SOL     OW37983   5.108   1.175   1.233
78715SOL    HW137984   5.133   1.198   1.322
78715SOL    HW237985   5.073   1.256   1.196
78716SOL     OW37986   4.439   7.689   6.533
78716SOL    HW137987   4.487   7.770   6.519
78716SOL    HW237988   4.474   7.654   6.615
78717SOL     OW37989   6.774   4.338  12.932
78717SOL    HW137990   6.711   4.410  12.940
78717SOL    HW237991   6.793   4.311  13.022
78718SOL     OW37992   6.774  14.680   6.674
78718SOL    HW137993   6.849  14.625   6.653
78718SOL    HW237994   6.702  14.618   6.688
78719SOL     OW37995   0.181   7.343   9.549
78719SOL    HW137996   0.249   7.308   9.491
78719SOL    HW237997   0.121   7.270   9.563
78720SOL     OW37998   8.612   1.394  11.862
78720SOL    HW137999   8.574   1.342  11.933
78720SOL    HW238000   8.701   1.412  11.890
78721SOL     OW38001   0.167   0.496   2.982
78721SOL    HW138002   0.138   0.509   2.892
78721SOL    HW238003   0.262   0.489   2.976
78722SOL     OW38004   2.613   9.439  10.690
78722SOL    HW138005   2.569   9.524  10.692
78722SOL    HW238006   2.620   9.413  10.782
78723SOL     OW38007   9.634   2.301   9.829
78723SOL    HW138008   9.683   2.266   9.904
78723SOL    HW238009   9.656   2.394   9.827
78724SOL     OW38010   8.705  14.074  10.778
78724SOL    HW138011   8.613  14.054  10.796
78724SOL    HW238012   8.749  14.060  10.862
78725SOL     OW38013  11.615   6.453  13.978
78725SOL    HW138014  11.705   6.424  13.974
78725SOL    HW238015  11.564   6.374  13.997
78726SOL     OW38016   9.080  12.168  10.507
78726SOL    HW138017   8.999  12.118  10.502
78726SOL    HW238018   9.074  12.231  10.435
78727SOL     OW38019  11.818   6.745   4.177
78727SOL    HW138020  11.908   6.728   4.202
78727SOL    HW238021  11.818   6.741   4.081
78728SOL     OW38022   6.702  13.372   0.118
78728SOL    HW138023   6.693  13.419   0.035
78728SOL    HW238024   6.793  13.343   0.121
78729SOL     OW38025  10.325  14.031  13.769
78729SOL    HW138026  10.404  14.055  13.721
78729SOL    HW238027  10.261  14.098  13.746
78730SOL     OW38028   7.130  13.131   3.806
78730SOL    HW138029   7.055  13.171   3.850
78730SOL    HW238030   7.186  13.099   3.877
78731SOL     OW38031  12.053   0.688   0.534
78731SOL    HW138032  12.034   0.603   0.574
78731SOL    HW238033  12.143   0.707   0.560
78732SOL     OW38034  13.043  12.003  10.418
78732SOL    HW138035  13.082  12.022  10.332
78732SOL    HW238036  12.984  12.076  10.434
78733SOL     OW38037   6.589   7.266   2.071
78733SOL    HW138038   6.548   7.332   2.126
78733SOL    HW238039   6.607   7.311   1.988
78734SOL     OW38040   0.512  13.122   5.116
78734SOL    HW138041   0.549  13.210   5.124
78734SOL    HW238042   0.574  13.065   5.160
78735SOL     OW38043  11.139   0.617   5.118
78735SOL    HW138044  11.174   0.667   5.044
78735SOL    HW238045  11.212   0.563   5.147
78736SOL     OW38046  11.358   9.094   8.948
78736SOL    HW138047  11.441   9.048   8.961
78736SOL    HW238048  11.373   9.151   8.873
78737SOL     OW38049  14.843  12.446   6.535
78737SOL    HW138050  14.842  12.411   6.446
78737SOL    HW238051   0.029  12.392   6.581
78738SOL     OW38052   3.075   5.805  13.304
78738SOL    HW138053   3.073   5.900  13.291
78738SOL    HW238054   2.990   5.785  13.343
78739SOL     OW38055   6.377  13.363  10.837
78739SOL    HW138056   6.334  13.431  10.785
78739SOL    HW238057   6.406  13.408  10.916
78740SOL     OW38058   9.317   1.400  11.104
78740SOL    HW138059   9.326   1.315  11.148
78740SOL    HW238060   9.367   1.461  11.158
78741SOL     OW38061   3.160   2.039   3.741
78741SOL    HW138062   3.087   2.020   3.682
78741SOL    HW238063   3.138   1.994   3.822
78742SOL     OW38064   8.352   9.801  11.346
78742SOL    HW138065   8.347   9.708  11.328
78742SOL    HW238066   8.422   9.810  11.411
78743SOL     OW38067   1.685  14.197  11.963
78743SOL    HW138068   1.593  14.177  11.945
78743SOL    HW238069   1.682  14.261  12.034
78744SOL     OW38070  13.489   7.360   5.730
78744SOL    HW138071  13.475   7.290   5.667
78744SOL    HW238072  13.415   7.420   5.716
78745SOL     OW38073   1.455   8.462   0.678
78745SOL    HW138074   1.401   8.521   0.730
78745SOL    HW238075   1.457   8.502   0.591
78746SOL     OW38076  13.926   9.539  13.489
78746SOL    HW138077  13.982   9.462  13.478
78746SOL    HW238078  13.986   9.614  13.481
78747SOL     OW38079   0.194   8.583   7.477
78747SOL    HW138080   0.227   8.662   7.521
78747SOL    HW238081   0.261   8.562   7.413
78748SOL     OW38082  12.307   5.355   5.832
78748SOL    HW138083  12.390   5.339   5.877
78748SOL    HW238084  12.296   5.450   5.835
78749SOL     OW38085  11.041   2.713   0.704
78749SOL    HW138086  11.097   2.686   0.777
78749SOL    HW238087  11.004   2.631   0.671
78750SOL     OW38088   5.571   9.108   0.840
78750SOL    HW138089   5.524   9.059   0.907
78750SOL    HW238090   5.613   9.041   0.786
78751SOL     OW38091   8.019   8.091   4.977
78751SOL    HW138092   7.996   8.021   5.039
78751SOL    HW238093   8.007   8.051   4.891
78752SOL     OW38094   5.550  10.503   9.792
78752SOL    HW138095   5.575  10.435   9.729
78752SOL    HW238096   5.524  10.577   9.739
78753SOL     OW38097  14.323   1.951   2.294
78753SOL    HW138098  14.270   1.973   2.218
78753SOL    HW238099  14.283   1.999   2.366
78754SOL     OW38100   7.408   1.932  10.313
78754SOL    HW138101   7.367   1.951  10.397
78754SOL    HW238102   7.407   1.836  10.307
78755SOL     OW38103   0.935  14.036   6.284
78755SOL    HW138104   1.013  14.072   6.242
78755SOL    HW238105   0.866  14.100   6.264
78756SOL     OW38106   8.704  12.131  12.988
78756SOL    HW138107   8.652  12.114  13.066
78756SOL    HW238108   8.671  12.069  12.923
78757SOL     OW38109  11.826  14.280   6.031
78757SOL    HW138110  11.851  14.322   5.949
78757SOL    HW238111  11.755  14.334   6.065
78758SOL     OW38112   5.493  11.889   7.117
78758SOL    HW138113   5.518  11.809   7.071
78758SOL    HW238114   5.570  11.945   7.111
78759SOL     OW38115   8.657  14.830   6.246
78759SOL    HW138116   8.670   0.045   6.254
78759SOL    HW238117   8.575  14.813   6.292
78760SOL     OW38118   8.851   6.634  13.869
78760SOL    HW138119   8.885   6.571  13.806
78760SOL    HW238120   8.864   6.592  13.954
78761SOL     OW38121   5.356   5.043   0.913
78761SOL    HW138122   5.307   5.061   0.832
78761SOL    HW238123   5.302   5.080   0.983
78762SOL     OW38124  14.382   7.376   3.986
78762SOL    HW138125  14.418   7.362   4.074
78762SOL    HW238126  14.363   7.289   3.953
78763SOL     OW38127   0.582   1.739   2.123
78763SOL    HW138128   0.562   1.670   2.186
78763SOL    HW238129   0.497   1.768   2.090
78764SOL     OW38130   8.176   8.388   8.793
78764SOL    HW138131   8.095   8.390   8.743
78764SOL    HW238132   8.202   8.480   8.802
78765SOL     OW38133   0.670  11.687   9.147
78765SOL    HW138134   0.757  11.716   9.119
78765SOL    HW238135   0.618  11.686   9.067
78766SOL     OW38136   4.988   6.951   9.372
78766SOL    HW138137   4.951   7.034   9.402
78766SOL    HW238138   4.971   6.950   9.277
78767SOL     OW38139  12.796   9.561   8.324
78767SOL    HW138140  12.735   9.504   8.276
78767SOL    HW238141  12.759   9.568   8.411
78768SOL     OW38142  11.700  10.269   5.370
78768SOL    HW138143  11.615  10.236   5.401
78768SOL    HW238144  11.681  10.307   5.284
78769SOL     OW38145   0.501  14.806  14.248
78769SOL    HW138146   0.527  14.837  14.335
78769SOL    HW238147   0.406  14.821  14.245
78770SOL     OW38148   3.184   1.088   3.127
78770SOL    HW138149   3.278   1.073   3.116
78770SOL    HW238150   3.172   1.181   3.109
78771SOL     OW38151   6.682   4.703  10.377
78771SOL    HW138152   6.634   4.737  10.453
78771SOL    HW238153   6.766   4.675  10.412
78772SOL     OW38154   2.927  14.156  11.535
78772SOL    HW138155   2.924  14.076  11.588
78772SOL    HW238156   3.014  14.156  11.496
78773SOL     OW38157   6.177   2.717   2.484
78773SOL    HW138158   6.152   2.764   2.564
78773SOL    HW238159   6.184   2.625   2.512
78774SOL     OW38160  10.672  10.243   4.924
78774SOL    HW138161  10.765  10.267   4.917
78774SOL    HW238162  10.663  10.166   4.868
78775SOL     OW38163  11.964   8.217   8.280
78775SOL    HW138164  11.965   8.138   8.226
78775SOL    HW238165  11.877   8.217   8.320
78776SOL     OW38166  14.094   3.239  13.404
78776SOL    HW138167  14.119   3.179  13.335
78776SOL    HW238168  14.154   3.313  13.395
78777SOL     OW38169   9.262   6.878   2.515
78777SOL    HW138170   9.354   6.870   2.489
78777SOL    HW238171   9.264   6.872   2.610
78778SOL     OW38172   9.305   2.491   2.269
78778SOL    HW138173   9.385   2.484   2.322
78778SOL    HW238174   9.331   2.544   2.194
78779SOL     OW38175  12.067  11.138  14.435
78779SOL    HW138176  12.158  11.108  14.427
78779SOL    HW238177  12.042  11.115  14.524
78780SOL     OW38178   7.237   6.017  12.598
78780SOL    HW138179   7.237   5.974  12.513
78780SOL    HW238180   7.145   6.043  12.611
78781SOL     OW38181  10.278   9.292   8.088
78781SOL    HW138182  10.367   9.324   8.101
78781SOL    HW238183  10.222   9.365   8.116
78782SOL     OW38184   1.568  12.880   8.841
78782SOL    HW138185   1.582  12.815   8.909
78782SOL    HW238186   1.474  12.876   8.822
78783SOL     OW38187   4.561  12.012   6.548
78783SOL    HW138188   4.476  12.046   6.519
78783SOL    HW238189   4.580  11.941   6.487
78784SOL     OW38190   8.614  10.465   7.175
78784SOL    HW138191   8.621  10.538   7.236
78784SOL    HW238192   8.620  10.505   7.089
78785SOL     OW38193   5.121   7.268   4.159
78785SOL    HW138194   5.136   7.246   4.251
78785SOL    HW238195   5.038   7.226   4.137
78786SOL     OW38196   2.030   9.423   1.755
78786SOL    HW138197   2.102   9.470   1.797
78786SOL    HW238198   1.983   9.382   1.828
78787SOL     OW38199   1.526   8.668   3.385
78787SOL    HW138200   1.462   8.731   3.417
78787SOL    HW238201   1.568   8.633   3.464
78788SOL     OW38202  10.270  12.057  10.486
78788SOL    HW138203  10.343  11.996  10.496
78788SOL    HW238204  10.281  12.119  10.559
78789SOL     OW38205   0.501  13.657   9.953
78789SOL    HW138206   0.438  13.585   9.949
78789SOL    HW238207   0.449  13.733   9.981
78790SOL     OW38208   7.763  14.115   7.046
78790SOL    HW138209   7.712  14.145   6.971
78790SOL    HW238210   7.756  14.020   7.043
78791SOL     OW38211   7.576   7.063   8.061
78791SOL    HW138212   7.645   6.998   8.048
78791SOL    HW238213   7.619   7.135   8.108
78792SOL     OW38214   1.612   3.795   1.483
78792SOL    HW138215   1.675   3.801   1.555
78792SOL    HW238216   1.625   3.875   1.432
78793SOL     OW38217   8.007   7.713   6.302
78793SOL    HW138218   8.008   7.708   6.206
78793SOL    HW238219   8.013   7.806   6.321
78794SOL     OW38220   5.260   3.645   9.326
78794SOL    HW138221   5.353   3.661   9.310
78794SOL    HW238222   5.220   3.652   9.240
78795SOL     OW38223   0.763   5.758   5.026
78795SOL    HW138224   0.798   5.819   5.091
78795SOL    HW238225   0.824   5.684   5.026
78796SOL     OW38226   3.278  10.336  13.182
78796SOL    HW138227   3.357  10.375  13.219
78796SOL    HW238228   3.209  10.355  13.245
78797SOL     OW38229  12.596   5.249  12.208
78797SOL    HW138230  12.591   5.311  12.135
78797SOL    HW238231  12.523   5.189  12.193
78798SOL     OW38232   5.786  14.560   7.453
78798SOL    HW138233   5.713  14.536   7.395
78798SOL    HW238234   5.761  14.523   7.538
78799SOL     OW38235  13.897   4.326   4.374
78799SOL    HW138236  13.940   4.280   4.302
78799SOL    HW238237  13.910   4.269   4.450
78800SOL     OW38238   9.152   3.013   1.925
78800SOL    HW138239   9.174   2.991   2.015
78800SOL    HW238240   9.181   3.104   1.914
78801SOL     OW38241   4.278  13.906   3.064
78801SOL    HW138242   4.353  13.894   3.122
78801SOL    HW238243   4.202  13.890   3.119
78802SOL     OW38244  13.685  11.393   4.555
78802SOL    HW138245  13.744  11.461   4.521
78802SOL    HW238246  13.680  11.328   4.484
78803SOL     OW38247   0.631  12.489   0.844
78803SOL    HW138248   0.563  12.486   0.777
78803SOL    HW238249   0.698  12.546   0.806
78804SOL     OW38250   3.081   1.449   1.291
78804SOL    HW138251   3.170   1.440   1.325
78804SOL    HW238252   3.068   1.544   1.283
78805SOL     OW38253  13.662  14.194   9.841
78805SOL    HW138254  13.739  14.193   9.785
78805SOL    HW238255  13.607  14.264   9.806
78806SOL     OW38256   6.612  11.554   7.935
78806SOL    HW138257   6.541  11.491   7.921
78806SOL    HW238258   6.580  11.612   8.004
78807SOL     OW38259   9.047  10.360   7.361
78807SOL    HW138260   9.074  10.434   7.415
78807SOL    HW238261   8.980  10.316   7.413
78808SOL     OW38262  10.701   9.935  10.388
78808SOL    HW138263  10.752  10.016  10.382
78808SOL    HW238264  10.615   9.958  10.351
78809SOL     OW38265   1.913   5.634   2.159
78809SOL    HW138266   1.916   5.708   2.099
78809SOL    HW238267   2.000   5.596   2.154
78810SOL     OW38268  10.658   7.344  11.234
78810SOL    HW138269  10.623   7.433  11.242
78810SOL    HW238270  10.749   7.357  11.208
78811SOL     OW38271  12.912  12.726  11.998
78811SOL    HW138272  12.835  12.763  11.954
78811SOL    HW238273  12.912  12.767  12.084
78812SOL     OW38274   4.074  12.581   1.847
78812SOL    HW138275   3.981  12.603   1.843
78812SOL    HW238276   4.116  12.643   1.789
78813SOL     OW38277   3.332  12.869  14.585
78813SOL    HW138278   3.354  12.821  14.504
78813SOL    HW238279   3.367  12.956  14.572
78814SOL     OW38280   2.646  13.988   1.802
78814SOL    HW138281   2.644  13.979   1.707
78814SOL    HW238282   2.620  14.078   1.819
78815SOL     OW38283  11.427   3.124  13.895
78815SOL    HW138284  11.481   3.131  13.974
78815SOL    HW238285  11.423   3.213  13.861
78816SOL     OW38286   1.168   8.141   0.731
78816SOL    HW138287   1.251   8.137   0.684
78816SOL    HW238288   1.183   8.202   0.803
78817SOL     OW38289   9.733   8.823   2.082
78817SOL    HW138290   9.759   8.907   2.122
78817SOL    HW238291   9.810   8.767   2.093
78818SOL     OW38292  13.169   5.360   1.852
78818SOL    HW138293  13.247   5.401   1.889
78818SOL    HW238294  13.114   5.434   1.824
78819SOL     OW38295  12.177   7.681   7.101
78819SOL    HW138296  12.100   7.693   7.046
78819SOL    HW238297  12.184   7.762   7.151
78820SOL     OW38298   4.622   0.928   1.077
78820SOL    HW138299   4.551   0.967   1.027
78820SOL    HW238300   4.702   0.960   1.034
78821SOL     OW38301   2.530   3.690   8.554
78821SOL    HW138302   2.582   3.621   8.595
78821SOL    HW238303   2.454   3.701   8.612
78822SOL     OW38304   2.766   9.750   7.105
78822SOL    HW138305   2.706   9.755   7.179
78822SOL    HW238306   2.722   9.796   7.034
78823SOL     OW38307   8.071  12.959  14.504
78823SOL    HW138308   8.000  12.985  14.447
78823SOL    HW238309   8.068  13.022  14.577
78824SOL     OW38310   7.943  10.404   7.773
78824SOL    HW138311   7.867  10.459   7.758
78824SOL    HW238312   7.924  10.358   7.855
78825SOL     OW38313  14.539  11.674   6.884
78825SOL    HW138314  14.479  11.677   6.959
78825SOL    HW238315  14.509  11.598   6.833
78826SOL     OW38316   8.391  13.833   4.978
78826SOL    HW138317   8.399  13.902   4.913
78826SOL    HW238318   8.305  13.794   4.961
78827SOL     OW38319   2.930  10.424   8.549
78827SOL    HW138320   2.843  10.388   8.533
78827SOL    HW238321   2.914  10.512   8.583
78828SOL     OW38322  13.456  11.732  12.408
78828SOL    HW138323  13.528  11.792  12.390
78828SOL    HW238324  13.385  11.760  12.351
78829SOL     OW38325   3.715   5.881   9.725
78829SOL    HW138326   3.793   5.826   9.716
78829SOL    HW238327   3.747   5.961   9.767
78830SOL     OW38328  12.830   0.702  12.149
78830SOL    HW138329  12.836   0.640  12.076
78830SOL    HW238330  12.920   0.715  12.177
78831SOL     OW38331   6.450  11.556   8.279
78831SOL    HW138332   6.485  11.470   8.302
78831SOL    HW238333   6.366  11.536   8.237
78832SOL     OW38334  14.677   2.746  14.509
78832SOL    HW138335  14.755   2.745  14.454
78832SOL    HW238336  14.696   2.682  14.578
78833SOL     OW38337  12.287   0.889   1.687
78833SOL    HW138338  12.352   0.884   1.616
78833SOL    HW238339  12.324   0.951   1.749
78834SOL     OW38340   6.789   9.837  11.266
78834SOL    HW138341   6.874   9.793  11.271
78834SOL    HW238342   6.730   9.770  11.232
78835SOL     OW38343   1.035   8.722   4.973
78835SOL    HW138344   1.111   8.663   4.971
78835SOL    HW238345   1.053   8.781   5.045
78836SOL     OW38346  10.052  10.941   8.877
78836SOL    HW138347  10.013  11.029   8.877
78836SOL    HW238348  10.094  10.933   8.792
78837SOL     OW38349   9.692   4.010  10.570
78837SOL    HW138350   9.631   3.990  10.499
78837SOL    HW238351   9.673   4.102  10.592
78838SOL     OW38352   4.529   3.689  10.612
78838SOL    HW138353   4.519   3.784  10.614
78838SOL    HW238354   4.536   3.664  10.704
78839SOL     OW38355  10.357   9.526  11.445
78839SOL    HW138356  10.303   9.579  11.386
78839SOL    HW238357  10.445   9.531  11.408
78840SOL     OW38358  13.824   6.183   1.959
78840SOL    HW138359  13.836   6.194   2.053
78840SOL    HW238360  13.852   6.093   1.942
78841SOL     OW38361  10.397   1.884   2.875
78841SOL    HW138362  10.450   1.824   2.928
78841SOL    HW238363  10.374   1.833   2.797
78842SOL     OW38364   2.205  13.102   4.538
78842SOL    HW138365   2.262  13.080   4.465
78842SOL    HW238366   2.250  13.173   4.584
78843SOL     OW38367   3.655   3.848   5.397
78843SOL    HW138368   3.571   3.821   5.360
78843SOL    HW238369   3.635   3.928   5.446
78844SOL     OW38370   1.906   0.354  13.799
78844SOL    HW138371   1.921   0.264  13.828
78844SOL    HW238372   1.939   0.408  13.871
78845SOL     OW38373   2.982   3.971  13.906
78845SOL    HW138374   2.907   3.947  13.960
78845SOL    HW238375   2.978   4.066  13.900
78846SOL     OW38376   9.623   9.742  12.188
78846SOL    HW138377   9.564   9.677  12.227
78846SOL    HW238378   9.705   9.695  12.175
78847SOL     OW38379  12.283   8.996   6.152
78847SOL    HW138380  12.303   9.041   6.234
78847SOL    HW238381  12.207   9.042   6.116
78848SOL     OW38382   6.065   4.343   9.148
78848SOL    HW138383   6.101   4.426   9.181
78848SOL    HW238384   6.139   4.283   9.148
78849SOL     OW38385  14.010   1.013  10.364
78849SOL    HW138386  14.048   1.084  10.311
78849SOL    HW238387  14.059   1.015  10.446
78850SOL     OW38388   0.111  13.677  11.501
78850SOL    HW138389   0.147  13.679  11.413
78850SOL    HW238390   0.082  13.767  11.518
78851SOL     OW38391   9.570   8.988   9.532
78851SOL    HW138392   9.606   9.074   9.555
78851SOL    HW238393   9.579   8.936   9.612
78852SOL     OW38394  10.303  11.306   1.724
78852SOL    HW138395  10.322  11.297   1.631
78852SOL    HW238396  10.303  11.400   1.740
78853SOL     OW38397  10.438   4.081  11.259
78853SOL    HW138398  10.376   4.053  11.192
78853SOL    HW238399  10.418   4.025  11.335
78854SOL     OW38400   5.251   8.720  14.681
78854SOL    HW138401   5.308   8.794  14.703
78854SOL    HW238402   5.290   8.646  14.726
78855SOL     OW38403   7.382  10.683   6.745
78855SOL    HW138404   7.292  10.683   6.712
78855SOL    HW238405   7.436  10.699   6.668
78856SOL     OW38406   5.116  10.473  11.160
78856SOL    HW138407   5.174  10.545  11.133
78856SOL    HW238408   5.028  10.504  11.137
78857SOL     OW38409   7.303   9.692  12.745
78857SOL    HW138410   7.349   9.746  12.809
78857SOL    HW238411   7.227   9.658  12.793
78858SOL     OW38412   4.273   9.944   1.221
78858SOL    HW138413   4.350   9.950   1.166
78858SOL    HW238414   4.306   9.919   1.307
78859SOL     OW38415  11.587   8.826  11.872
78859SOL    HW138416  11.611   8.852  11.783
78859SOL    HW238417  11.620   8.736  11.880
78860SOL     OW38418  11.481   1.620   8.127
78860SOL    HW138419  11.457   1.538   8.083
78860SOL    HW238420  11.436   1.688   8.078
78861SOL     OW38421   9.084   9.996   0.437
78861SOL    HW138422   9.085   9.965   0.527
78861SOL    HW238423   9.103  10.090   0.444
78862SOL     OW38424   7.503  13.449  11.463
78862SOL    HW138425   7.543  13.388  11.402
78862SOL    HW238426   7.477  13.524  11.409
78863SOL     OW38427  14.509   0.783  14.386
78863SOL    HW138428  14.566   0.851  14.421
78863SOL    HW238429  14.483   0.815  14.300
78864SOL     OW38430  12.111   5.942   4.267
78864SOL    HW138431  12.071   6.007   4.209
78864SOL    HW238432  12.042   5.876   4.278
78865SOL     OW38433  13.636   0.719   6.659
78865SOL    HW138434  13.550   0.755   6.682
78865SOL    HW238435  13.647   0.740   6.566
78866SOL     OW38436   0.059  11.333   8.802
78866SOL    HW138437  14.851  11.329   8.840
78866SOL    HW238438   0.106  11.259   8.842
78867SOL     OW38439   3.835   7.583   6.434
78867SOL    HW138440   3.931   7.579   6.438
78867SOL    HW238441   3.810   7.507   6.382
78868SOL     OW38442   9.017   0.646   1.256
78868SOL    HW138443   9.061   0.621   1.174
78868SOL    HW238444   9.089   0.656   1.319
78869SOL     OW38445   0.780   2.938  14.022
78869SOL    HW138446   0.747   3.028  14.026
78869SOL    HW238447   0.744   2.896  14.101
78870SOL     OW38448   4.126   9.627   8.648
78870SOL    HW138449   4.132   9.595   8.558
78870SOL    HW238450   4.215   9.650   8.673
78871SOL     OW38451   8.175  12.687  14.783
78871SOL    HW138452   8.208  12.682  14.693
78871SOL    HW238453   8.172  12.781  14.802
78872SOL     OW38454   7.778   8.535  11.161
78872SOL    HW138455   7.865   8.493  11.160
78872SOL    HW238456   7.787   8.606  11.224
78873SOL     OW38457   5.454  10.853   6.031
78873SOL    HW138458   5.512  10.777   6.029
78873SOL    HW238459   5.480  10.906   5.955
78874SOL     OW38460   2.757  11.634   3.691
78874SOL    HW138461   2.723  11.723   3.693
78874SOL    HW238462   2.686  11.582   3.654
78875SOL     OW38463  12.190  11.489   4.223
78875SOL    HW138464  12.100  11.459   4.211
78875SOL    HW238465  12.190  11.578   4.188
78876SOL     OW38466   4.777  13.546  12.037
78876SOL    HW138467   4.822  13.514  12.115
78876SOL    HW238468   4.821  13.628  12.016
78877SOL     OW38469   7.462  10.022   6.889
78877SOL    HW138470   7.384  10.077   6.877
78877SOL    HW238471   7.435   9.935   6.860
78878SOL     OW38472  12.525  11.931   2.304
78878SOL    HW138473  12.613  11.968   2.301
78878SOL    HW238474  12.508  11.914   2.397
78879SOL     OW38475  10.382   0.781   6.825
78879SOL    HW138476  10.464   0.827   6.845
78879SOL    HW238477  10.321   0.814   6.891
78880SOL     OW38478  12.405   9.414   7.061
78880SOL    HW138479  12.400   9.321   7.039
78880SOL    HW238480  12.330   9.429   7.118
78881SOL     OW38481   0.534   4.789   7.775
78881SOL    HW138482   0.582   4.870   7.760
78881SOL    HW238483   0.592   4.720   7.744
78882SOL     OW38484   6.556   2.632   4.414
78882SOL    HW138485   6.569   2.706   4.355
78882SOL    HW238486   6.525   2.671   4.496
78883SOL     OW38487   5.885   6.667  12.477
78883SOL    HW138488   5.969   6.709  12.458
78883SOL    HW238489   5.831   6.738  12.514
78884SOL     OW38490   5.858   2.339   4.842
78884SOL    HW138491   5.807   2.341   4.761
78884SOL    HW238492   5.875   2.431   4.862
78885SOL     OW38493   3.621   8.285   9.635
78885SOL    HW138494   3.708   8.252   9.612
78885SOL    HW238495   3.632   8.321   9.723
78886SOL     OW38496   2.225  10.494   4.178
78886SOL    HW138497   2.137  10.493   4.142
78886SOL    HW238498   2.276  10.438   4.119
78887SOL     OW38499  14.445   3.808  13.684
78887SOL    HW138500  14.454   3.865  13.607
78887SOL    HW238501  14.361   3.764  13.673
78888SOL     OW38502  14.384   8.067   1.542
78888SOL    HW138503  14.445   8.016   1.596
78888SOL    HW238504  14.354   8.005   1.475
78889SOL     OW38505  10.014  11.251   8.109
78889SOL    HW138506   9.958  11.314   8.153
78889SOL    HW238507   9.955  11.204   8.049
78890SOL     OW38508   5.729   6.034   5.232
78890SOL    HW138509   5.747   6.011   5.141
78890SOL    HW238510   5.784   6.111   5.248
78891SOL     OW38511   0.315   3.921   7.033
78891SOL    HW138512   0.306   3.830   7.064
78891SOL    HW238513   0.406   3.928   7.004
78892SOL     OW38514   9.804  14.087  14.365
78892SOL    HW138515   9.773  14.034  14.438
78892SOL    HW238516   9.872  14.034  14.323
78893SOL     OW38517   2.464   5.339   3.640
78893SOL    HW138518   2.549   5.345   3.683
78893SOL    HW238519   2.407   5.298   3.705
78894SOL     OW38520   4.415   4.541  14.333
78894SOL    HW138521   4.505   4.509  14.336
78894SOL    HW238522   4.397   4.554  14.240
78895SOL     OW38523   4.869   6.643   7.858
78895SOL    HW138524   4.933   6.581   7.893
78895SOL    HW238525   4.796   6.589   7.829
78896SOL     OW38526  12.778   2.091   3.317
78896SOL    HW138527  12.815   2.161   3.371
78896SOL    HW238528  12.854   2.048   3.278
78897SOL     OW38529   1.498   2.075   2.137
78897SOL    HW138530   1.533   2.158   2.106
78897SOL    HW238531   1.575   2.017   2.141
78898SOL     OW38532   1.669  10.432  12.796
78898SOL    HW138533   1.658  10.479  12.878
78898SOL    HW238534   1.762  10.411  12.791
78899SOL     OW38535   5.703  12.165   5.031
78899SOL    HW138536   5.733  12.252   5.057
78899SOL    HW238537   5.626  12.150   5.086
78900SOL     OW38538   2.809   7.525   3.451
78900SOL    HW138539   2.771   7.457   3.506
78900SOL    HW238540   2.756   7.524   3.371
78901SOL     OW38541   2.289  10.935   6.851
78901SOL    HW138542   2.311  10.914   6.761
78901SOL    HW238543   2.272  11.030   6.850
78902SOL     OW38544   3.572  13.323   4.772
78902SOL    HW138545   3.611  13.272   4.843
78902SOL    HW238546   3.481  13.335   4.800
78903SOL     OW38547   8.650  11.043  14.541
78903SOL    HW138548   8.568  11.023  14.585
78903SOL    HW238549   8.627  11.054  14.449
78904SOL     OW38550   9.568  14.167  12.462
78904SOL    HW138551   9.545  14.087  12.508
78904SOL    HW238552   9.602  14.225  12.530
78905SOL     OW38553  11.461  13.901  12.761
78905SOL    HW138554  11.464  13.831  12.695
78905SOL    HW238555  11.373  13.895  12.798
78906SOL     OW38556   3.238   8.317   1.920
78906SOL    HW138557   3.164   8.280   1.872
78906SOL    HW238558   3.253   8.255   1.991
78907SOL     OW38559   3.629   1.663  11.836
78907SOL    HW138560   3.633   1.575  11.799
78907SOL    HW238561   3.536   1.679  11.851
78908SOL     OW38562  10.959   7.350   1.035
78908SOL    HW138563  10.987   7.345   1.126
78908SOL    HW238564  10.866   7.374   1.040
78909SOL     OW38565   4.832   2.640   8.290
78909SOL    HW138566   4.838   2.709   8.356
78909SOL    HW238567   4.920   2.603   8.285
78910SOL     OW38568   7.177   8.047  14.147
78910SOL    HW138569   7.236   8.002  14.207
78910SOL    HW238570   7.162   7.984  14.076
78911SOL     OW38571  14.082   3.207   3.452
78911SOL    HW138572  14.093   3.302   3.453
78911SOL    HW238573  14.008   3.189   3.510
78912SOL     OW38574   7.253   3.235   1.720
78912SOL    HW138575   7.188   3.215   1.652
78912SOL    HW238576   7.260   3.330   1.720
78913SOL     OW38577   2.048  11.763   9.615
78913SOL    HW138578   2.140  11.788   9.621
78913SOL    HW238579   2.015  11.771   9.705
78914SOL     OW38580  13.345   8.733  11.074
78914SOL    HW138581  13.250   8.719  11.078
78914SOL    HW238582  13.369   8.707  10.985
78915SOL     OW38583   0.914   6.092   6.342
78915SOL    HW138584   0.881   6.175   6.377
78915SOL    HW238585   1.008   6.107   6.330
78916SOL     OW38586   7.419  14.570   0.382
78916SOL    HW138587   7.485  14.518   0.336
78916SOL    HW238588   7.368  14.611   0.313
78917SOL     OW38589   8.084   5.042   7.567
78917SOL    HW138590   8.105   4.968   7.508
78917SOL    HW238591   8.154   5.105   7.551
78918SOL     OW38592   9.749   5.436   5.184
78918SOL    HW138593   9.692   5.459   5.111
78918SOL    HW238594   9.803   5.365   5.150
78919SOL     OW38595   9.560  12.195   5.386
78919SOL    HW138596   9.614  12.122   5.355
78919SOL    HW238597   9.535  12.170   5.475
78920SOL     OW38598  12.380  11.649   7.860
78920SOL    HW138599  12.343  11.561   7.857
78920SOL    HW238600  12.320  11.702   7.808
78921SOL     OW38601   8.615  10.876  11.728
78921SOL    HW138602   8.678  10.812  11.761
78921SOL    HW238603   8.603  10.938  11.800
78922SOL     OW38604   7.778   8.778   8.007
78922SOL    HW138605   7.694   8.823   8.012
78922SOL    HW238606   7.799   8.776   7.914
78923SOL     OW38607  10.830  12.210   7.287
78923SOL    HW138608  10.910  12.166   7.259
78923SOL    HW238609  10.785  12.233   7.205
78924SOL     OW38610   9.063   5.783  10.891
78924SOL    HW138611   9.105   5.791  10.977
78924SOL    HW238612   8.998   5.853  10.890
78925SOL     OW38613  11.142   2.251   6.999
78925SOL    HW138614  11.051   2.278   6.985
78925SOL    HW238615  11.167   2.293   7.081
78926SOL     OW38616   4.556   6.158  13.592
78926SOL    HW138617   4.462   6.144  13.607
78926SOL    HW238618   4.570   6.132  13.501
78927SOL     OW38619   8.876   5.144  10.202
78927SOL    HW138620   8.895   5.238  10.204
78927SOL    HW238621   8.783   5.138  10.182
78928SOL     OW38622  11.509   8.463  11.702
78928SOL    HW138623  11.474   8.402  11.637
78928SOL    HW238624  11.566   8.521  11.652
78929SOL     OW38625   7.396   8.732   0.281
78929SOL    HW138626   7.389   8.716   0.187
78929SOL    HW238627   7.311   8.768   0.305
78930SOL     OW38628  14.491   1.802   6.427
78930SOL    HW138629  14.538   1.780   6.347
78930SOL    HW238630  14.443   1.722   6.449
78931SOL     OW38631  14.083  13.376  14.643
78931SOL    HW138632  14.148  13.391  14.574
78931SOL    HW238633  14.057  13.284  14.631
78932SOL     OW38634  12.599  10.637   4.423
78932SOL    HW138635  12.639  10.586   4.353
78932SOL    HW238636  12.642  10.608   4.503
78933SOL     OW38637  11.764   5.097   7.884
78933SOL    HW138638  11.860   5.097   7.874
78933SOL    HW238639  11.749   5.140   7.968
78934SOL     OW38640   6.997   2.647   9.312
78934SOL    HW138641   6.906   2.676   9.324
78934SOL    HW238642   6.995   2.598   9.229
78935SOL     OW38643  11.732   8.468   1.431
78935SOL    HW138644  11.653   8.451   1.378
78935SOL    HW238645  11.710   8.546   1.481
78936SOL     OW38646   0.348  11.570   8.990
78936SOL    HW138647   0.312  11.545   8.905
78936SOL    HW238648   0.441  11.587   8.972
78937SOL     OW38649   4.859  14.831  14.282
78937SOL    HW138650   4.878  14.742  14.254
78937SOL    HW238651   4.867  14.828  14.378
78938SOL     OW38652  12.146   0.713   2.102
78938SOL    HW138653  12.064   0.748   2.070
78938SOL    HW238654  12.159   0.631   2.053
78939SOL     OW38655  11.864   4.995   1.219
78939SOL    HW138656  11.873   4.946   1.300
78939SOL    HW238657  11.949   4.984   1.175
78940SOL     OW38658   7.448  14.821   7.684
78940SOL    HW138659   7.533  14.779   7.700
78940SOL    HW238660   7.469   0.034   7.669
78941SOL     OW38661   9.071  14.496   2.017
78941SOL    HW138662   8.988  14.537   1.995
78941SOL    HW238663   9.137  14.559   1.988
78942SOL     OW38664   5.373   1.501   8.247
78942SOL    HW138665   5.467   1.482   8.255
78942SOL    HW238666   5.362   1.529   8.156
78943SOL     OW38667   7.616   9.068  11.670
78943SOL    HW138668   7.639   9.119  11.748
78943SOL    HW238669   7.522   9.056  11.676
78944SOL     OW38670   3.780   0.301  10.044
78944SOL    HW138671   3.709   0.270   9.988
78944SOL    HW238672   3.824   0.369   9.992
78945SOL     OW38673  13.351   1.196  11.954
78945SOL    HW138674  13.384   1.248  11.881
78945SOL    HW238675  13.379   1.244  12.032
78946SOL     OW38676   3.107   7.784  11.466
78946SOL    HW138677   3.115   7.724  11.540
78946SOL    HW238678   3.151   7.739  11.394
78947SOL     OW38679   0.134   6.301   7.762
78947SOL    HW138680   0.229   6.293   7.761
78947SOL    HW238681   0.114   6.339   7.847
78948SOL     OW38682  12.918   7.396  12.593
78948SOL    HW138683  12.829   7.402  12.626
78948SOL    HW238684  12.958   7.324  12.641
78949SOL     OW38685   3.619   9.104  10.275
78949SOL    HW138686   3.663   9.045  10.215
78949SOL    HW238687   3.683   9.122  10.343
78950SOL     OW38688  10.494   3.277   1.408
78950SOL    HW138689  10.527   3.188   1.426
78950SOL    HW238690  10.570   3.333   1.421
78951SOL     OW38691  11.469   7.236  11.241
78951SOL    HW138692  11.418   7.156  11.225
78951SOL    HW238693  11.443   7.265  11.328
78952SOL     OW38694   3.104   2.055   5.293
78952SOL    HW138695   3.106   2.051   5.198
78952SOL    HW238696   3.168   1.989   5.321
78953SOL     OW38697  12.720   0.898   5.293
78953SOL    HW138698  12.633   0.925   5.265
78953SOL    HW238699  12.709   0.806   5.319
78954SOL     OW38700   4.222   2.231  11.981
78954SOL    HW138701   4.252   2.317  11.953
78954SOL    HW238702   4.132   2.245  12.009
78955SOL     OW38703  13.446  10.171  14.484
78955SOL    HW138704  13.382  10.127  14.540
78955SOL    HW238705  13.450  10.118  14.405
78956SOL     OW38706   4.314   2.201   2.852
78956SOL    HW138707   4.350   2.254   2.923
78956SOL    HW238708   4.356   2.235   2.773
78957SOL     OW38709   4.669  10.988   5.078
78957SOL    HW138710   4.697  10.934   5.152
78957SOL    HW238711   4.575  10.971   5.071
78958SOL     OW38712   2.657  13.308  13.624
78958SOL    HW138713   2.703  13.349  13.697
78958SOL    HW238714   2.697  13.348  13.546
78959SOL     OW38715   1.512   4.453   4.431
78959SOL    HW138716   1.427   4.457   4.387
78959SOL    HW238717   1.529   4.360   4.441
78960SOL     OW38718  12.894  12.116  11.936
78960SOL    HW138719  12.825  12.181  11.923
78960SOL    HW238720  12.850  12.032  11.919
78961SOL     OW38721   5.648  13.831  10.572
78961SOL    HW138722   5.631  13.825  10.666
78961SOL    HW238723   5.674  13.922  10.558
78962SOL     OW38724   2.456   4.322   8.420
78962SOL    HW138725   2.385   4.366   8.373
78962SOL    HW238726   2.489   4.388   8.481
78963SOL     OW38727   1.764  12.175   0.305
78963SOL    HW138728   1.851  12.134   0.314
78963SOL    HW238729   1.766  12.247   0.368
78964SOL     OW38730  10.296   5.580   2.110
78964SOL    HW138731  10.363   5.566   2.177
78964SOL    HW238732  10.251   5.496   2.103
78965SOL     OW38733   3.133  10.963  12.403
78965SOL    HW138734   3.067  10.896  12.385
78965SOL    HW238735   3.213  10.928  12.365
78966SOL     OW38736   5.022   6.113   5.721
78966SOL    HW138737   4.962   6.185   5.701
78966SOL    HW238738   5.032   6.115   5.816
78967SOL     OW38739   4.859   0.842   4.466
78967SOL    HW138740   4.919   0.799   4.406
78967SOL    HW238741   4.899   0.928   4.482
78968SOL     OW38742   1.719   3.092   8.020
78968SOL    HW138743   1.718   3.000   7.993
78968SOL    HW238744   1.792   3.131   7.972
78969SOL     OW38745   1.566   5.870  11.607
78969SOL    HW138746   1.590   5.871  11.515
78969SOL    HW238747   1.647   5.850  11.654
78970SOL     OW38748  12.328   0.480   1.036
78970SOL    HW138749  12.295   0.513   1.119
78970SOL    HW238750  12.291   0.539   0.970
78971SOL     OW38751  10.886   2.990   1.939
78971SOL    HW138752  10.859   3.076   1.973
78971SOL    HW238753  10.805   2.940   1.934
78972SOL     OW38754   4.875   3.052   0.025
78972SOL    HW138755   4.836   3.069   0.110
78972SOL    HW238756   4.806   3.072  14.841
78973SOL     OW38757  13.362   2.773  12.259
78973SOL    HW138758  13.415   2.833  12.207
78973SOL    HW238759  13.295   2.827  12.299
78974SOL     OW38760   8.599  13.295   4.460
78974SOL    HW138761   8.580  13.327   4.371
78974SOL    HW238762   8.684  13.334   4.481
78975SOL     OW38763  12.035   3.190   6.199
78975SOL    HW138764  11.944   3.204   6.173
78975SOL    HW238765  12.065   3.117   6.144
78976SOL     OW38766  12.608  11.197  12.898
78976SOL    HW138767  12.572  11.134  12.836
78976SOL    HW238768  12.699  11.170  12.909
78977SOL     OW38769  14.695   3.225   7.429
78977SOL    HW138770  14.625   3.259   7.374
78977SOL    HW238771  14.666   3.240   7.519
78978SOL     OW38772   5.303   0.084   7.875
78978SOL    HW138773   5.390   0.047   7.893
78978SOL    HW238774   5.308   0.112   7.783
78979SOL     OW38775  13.485   2.835  12.599
78979SOL    HW138776  13.523   2.792  12.523
78979SOL    HW238777  13.417   2.893  12.563
78980SOL     OW38778   6.884  10.420  11.044
78980SOL    HW138779   6.812  10.430  11.107
78980SOL    HW238780   6.963  10.431  11.097
78981SOL     OW38781  12.709   8.471   4.038
78981SOL    HW138782  12.648   8.490   3.967
78981SOL    HW238783  12.777   8.416   3.998
78982SOL     OW38784  14.778   1.400   6.981
78982SOL    HW138785  14.842   1.452   6.933
78982SOL    HW238786  14.778   1.438   7.069
78983SOL     OW38787  11.234   7.477   8.751
78983SOL    HW138788  11.214   7.394   8.707
78983SOL    HW238789  11.315   7.507   8.709
78984SOL     OW38790   1.307   0.804  13.482
78984SOL    HW138791   1.245   0.856  13.534
78984SOL    HW238792   1.369   0.769  13.547
78985SOL     OW38793   5.091  13.494   1.994
78985SOL    HW138794   5.184  13.492   1.970
78985SOL    HW238795   5.059  13.578   1.961
78986SOL     OW38796   0.411  10.202   8.690
78986SOL    HW138797   0.466  10.216   8.767
78986SOL    HW238798   0.439  10.119   8.654
78987SOL     OW38799  12.914  12.740   4.679
78987SOL    HW138800  12.982  12.774   4.622
78987SOL    HW238801  12.927  12.645   4.678
78988SOL     OW38802   7.096   5.267  10.953
78988SOL    HW138803   7.127   5.352  10.986
78988SOL    HW238804   7.166   5.236  10.896
78989SOL     OW38805   0.837   4.094  12.791
78989SOL    HW138806   0.909   4.066  12.733
78989SOL    HW238807   0.764   4.038  12.766
78990SOL     OW38808  10.986  11.320   0.832
78990SOL    HW138809  10.925  11.389   0.859
78990SOL    HW238810  10.944  11.239   0.860
78991SOL     OW38811  14.786   2.220  10.225
78991SOL    HW138812  14.744   2.153  10.172
78991SOL    HW238813  14.840   2.269  10.163
78992SOL     OW38814   7.247   1.061   0.378
78992SOL    HW138815   7.154   1.055   0.361
78992SOL    HW238816   7.272   1.147   0.343
78993SOL     OW38817  10.293  12.296   8.931
78993SOL    HW138818  10.358  12.336   8.873
78993SOL    HW238819  10.238  12.243   8.872
78994SOL     OW38820   0.788  13.949   8.690
78994SOL    HW138821   0.809  13.976   8.600
78994SOL    HW238822   0.856  13.885   8.712
78995SOL     OW38823  12.963  11.225   4.017
78995SOL    HW138824  12.870  11.251   4.017
78995SOL    HW238825  12.978  11.191   3.929
78996SOL     OW38826   7.209  14.859  11.542
78996SOL    HW138827   7.235   0.051  11.484
78996SOL    HW238828   7.216   0.017  11.630
78997SOL     OW38829   1.932   6.514   6.771
78997SOL    HW138830   1.914   6.441   6.712
78997SOL    HW238831   1.935   6.591   6.714
78998SOL     OW38832   0.739  10.416   2.007
78998SOL    HW138833   0.792  10.337   1.996
78998SOL    HW238834   0.691  10.424   1.924
78999SOL     OW38835   4.948  12.811   5.091
78999SOL    HW138836   4.980  12.803   5.002
78999SOL    HW238837   5.026  12.825   5.144
79000SOL     OW38838   2.478   2.265   1.793
79000SOL    HW138839   2.413   2.321   1.751
79000SOL    HW238840   2.467   2.179   1.751
79001SOL     OW38841   1.607   8.134   5.185
79001SOL    HW138842   1.572   8.223   5.190
79001SOL    HW238843   1.587   8.105   5.096
79002SOL     OW38844  14.304  11.446  11.781
79002SOL    HW138845  14.321  11.432  11.688
79002SOL    HW238846  14.388  11.476  11.817
79003SOL     OW38847   0.347   3.337   5.169
79003SOL    HW138848   0.435   3.332   5.133
79003SOL    HW238849   0.298   3.267   5.125
79004SOL     OW38850   1.077   2.457   8.033
79004SOL    HW138851   1.139   2.496   8.095
79004SOL    HW238852   1.048   2.531   7.978
79005SOL     OW38853  11.650   0.922  11.598
79005SOL    HW138854  11.581   0.956  11.655
79005SOL    HW238855  11.720   0.896  11.658
79006SOL     OW38856   4.522   1.600   9.547
79006SOL    HW138857   4.558   1.687   9.561
79006SOL    HW238858   4.501   1.597   9.454
79007SOL     OW38859   6.123   6.816  12.445
79007SOL    HW138860   6.190   6.783  12.505
79007SOL    HW238861   6.166   6.887  12.397
79008SOL     OW38862   6.689   3.487  11.775
79008SOL    HW138863   6.601   3.454  11.795
79008SOL    HW238864   6.675   3.553  11.708
79009SOL     OW38865   9.129  10.486  12.149
79009SOL    HW138866   9.112  10.476  12.056
79009SOL    HW238867   9.048  10.457  12.191
79010SOL     OW38868  13.338   6.166   4.234
79010SOL    HW138869  13.285   6.088   4.253
79010SOL    HW238870  13.288   6.213   4.168
79011SOL     OW38871  13.967  14.088  10.648
79011SOL    HW138872  13.899  14.043  10.699
79011SOL    HW238873  13.992  14.162  10.704
79012SOL     OW38874   2.262  11.679   7.472
79012SOL    HW138875   2.355  11.672   7.450
79012SOL    HW238876   2.216  11.640   7.398
79013SOL     OW38877   3.925   4.476  12.528
79013SOL    HW138878   3.890   4.562  12.549
79013SOL    HW238879   3.905   4.422  12.604
79014SOL     OW38880   0.876   5.834   4.322
79014SOL    HW138881   0.933   5.857   4.249
79014SOL    HW238882   0.797   5.801   4.281
79015SOL     OW38883  14.292  11.299   4.252
79015SOL    HW138884  14.251  11.363   4.194
79015SOL    HW238885  14.345  11.244   4.194
79016SOL     OW38886  11.025   3.903   1.419
79016SOL    HW138887  11.073   3.833   1.375
79016SOL    HW238888  10.960   3.858   1.473
79017SOL     OW38889   6.331   0.946   5.255
79017SOL    HW138890   6.357   1.010   5.188
79017SOL    HW238891   6.239   0.928   5.235
79018SOL     OW38892   8.145   8.721   8.646
79018SOL    HW138893   8.147   8.682   8.559
79018SOL    HW238894   8.232   8.702   8.682
79019SOL     OW38895   4.454   1.712  12.843
79019SOL    HW138896   4.460   1.732  12.750
79019SOL    HW238897   4.524   1.648  12.859
79020SOL     OW38898   1.750   8.121  14.366
79020SOL    HW138899   1.756   8.026  14.375
79020SOL    HW238900   1.660   8.141  14.392
79021SOL     OW38901   3.282   1.734   4.690
79021SOL    HW138902   3.197   1.700   4.720
79021SOL    HW238903   3.261   1.818   4.649
79022SOL     OW38904   2.736   7.106   9.267
79022SOL    HW138905   2.646   7.108   9.298
79022SOL    HW238906   2.785   7.158   9.330
79023SOL     OW38907  10.735  11.802   2.459
79023SOL    HW138908  10.825  11.777   2.437
79023SOL    HW238909  10.704  11.732   2.517
79024SOL     OW38910   7.649   2.035   8.571
79024SOL    HW138911   7.593   2.059   8.644
79024SOL    HW238912   7.664   2.118   8.524
79025SOL     OW38913   1.125  12.460   6.362
79025SOL    HW138914   1.049  12.477   6.417
79025SOL    HW238915   1.100  12.385   6.308
79026SOL     OW38916  12.409  13.761   8.512
79026SOL    HW138917  12.322  13.769   8.548
79026SOL    HW238918  12.395  13.734   8.421
79027SOL     OW38919  12.086   7.604   4.482
79027SOL    HW138920  12.025   7.543   4.523
79027SOL    HW238921  12.137   7.640   4.555
79028SOL     OW38922   8.625   1.000   0.359
79028SOL    HW138923   8.581   0.963   0.436
79028SOL    HW238924   8.596   1.091   0.356
79029SOL     OW38925   3.379   6.699   6.023
79029SOL    HW138926   3.387   6.780   6.073
79029SOL    HW238927   3.409   6.630   6.082
79030SOL     OW38928   9.951   1.148  10.821
79030SOL    HW138929  10.038   1.189  10.823
79030SOL    HW238930   9.959   1.071  10.877
79031SOL     OW38931  10.580   3.182   5.010
79031SOL    HW138932  10.553   3.260   5.059
79031SOL    HW238933  10.499   3.152   4.968
79032SOL     OW38934   9.276   1.580   9.821
79032SOL    HW138935   9.228   1.524   9.881
79032SOL    HW238936   9.358   1.599   9.865
79033SOL     OW38937  11.949   6.278   1.303
79033SOL    HW138938  11.995   6.247   1.382
79033SOL    HW238939  11.954   6.373   1.308
79034SOL     OW38940  12.638   9.132  11.944
79034SOL    HW138941  12.657   9.158  11.854
79034SOL    HW238942  12.613   9.214  11.988
79035SOL     OW38943  12.090   0.715   9.984
79035SOL    HW138944  12.099   0.641  10.043
79035SOL    HW238945  12.149   0.695   9.911
79036SOL     OW38946   8.337   4.818   4.532
79036SOL    HW138947   8.270   4.884   4.545
79036SOL    HW238948   8.340   4.770   4.615
79037SOL     OW38949  14.445   7.052  14.127
79037SOL    HW138950  14.477   7.065  14.038
79037SOL    HW238951  14.485   7.122  14.178
79038SOL     OW38952   7.014  13.296   5.471
79038SOL    HW138953   7.027  13.247   5.552
79038SOL    HW238954   6.985  13.383   5.500
79039SOL     OW38955  14.775  11.887  11.403
79039SOL    HW138956  14.857  11.936  11.401
79039SOL    HW238957  14.779  11.830  11.326
79040SOL     OW38958   2.829   1.055   3.742
79040SOL    HW138959   2.783   1.001   3.678
79040SOL    HW238960   2.914   1.072   3.702
79041SOL     OW38961   1.709   0.389   6.227
79041SOL    HW138962   1.680   0.299   6.237
79041SOL    HW238963   1.628   0.441   6.227
79042SOL     OW38964  10.560   1.683   3.009
79042SOL    HW138965  10.604   1.623   2.949
79042SOL    HW238966  10.573   1.646   3.096
79043SOL     OW38967  10.518   4.994   6.052
79043SOL    HW138968  10.434   4.990   6.097
79043SOL    HW238969  10.499   4.964   5.963
79044SOL     OW38970   3.079  10.300   5.531
79044SOL    HW138971   3.060  10.343   5.448
79044SOL    HW238972   3.152  10.241   5.512
79045SOL     OW38973   2.692   5.554   9.714
79045SOL    HW138974   2.719   5.627   9.657
79045SOL    HW238975   2.746   5.480   9.686
79046SOL     OW38976   3.817   6.983  12.926
79046SOL    HW138977   3.834   6.992  13.019
79046SOL    HW238978   3.790   6.892  12.914
79047SOL     OW38979  12.201  10.412   8.088
79047SOL    HW138980  12.267  10.416   8.157
79047SOL    HW238981  12.247  10.445   8.010
79048SOL     OW38982   9.537  13.764   4.752
79048SOL    HW138983   9.457  13.806   4.784
79048SOL    HW238984   9.580  13.731   4.831
79049SOL     OW38985   2.179  10.340   5.890
79049SOL    HW138986   2.145  10.424   5.859
79049SOL    HW238987   2.221  10.301   5.813
79050SOL     OW38988  13.423   5.109   9.240
79050SOL    HW138989  13.461   5.025   9.262
79050SOL    HW238990  13.489   5.173   9.265
79051SOL     OW38991   4.479   3.180   9.793
79051SOL    HW138992   4.423   3.254   9.772
79051SOL    HW238993   4.566   3.217   9.805
79052SOL     OW38994   2.947   7.829   6.371
79052SOL    HW138995   2.856   7.855   6.383
79052SOL    HW238996   2.946   7.734   6.374
79053SOL     OW38997   3.184   0.563   2.867
79053SOL    HW138998   3.187   0.621   2.943
79053SOL    HW238999   3.098   0.580   2.828
79054SOL     OW39000  13.816  14.725   4.889
79054SOL    HW139001  13.812  14.813   4.853
79054SOL    HW239002  13.798  14.667   4.815
79055SOL     OW39003   5.782   4.720   3.923
79055SOL    HW139004   5.869   4.686   3.903
79055SOL    HW239005   5.796   4.788   3.988
79056SOL     OW39006   8.271   4.871   6.107
79056SOL    HW139007   8.284   4.776   6.108
79056SOL    HW239008   8.281   4.898   6.198
79057SOL     OW39009  14.387   7.182  11.666
79057SOL    HW139010  14.371   7.224  11.750
79057SOL    HW239011  14.468   7.132  11.679
79058SOL     OW39012   5.147  11.994   8.550
79058SOL    HW139013   5.055  11.974   8.532
79058SOL    HW239014   5.145  12.081   8.590
79059SOL     OW39015  13.667   4.724   7.023
79059SOL    HW139016  13.615   4.644   7.012
79059SOL    HW239017  13.655   4.749   7.115
79060SOL     OW39018   8.088  12.755  12.000
79060SOL    HW139019   8.147  12.802  12.059
79060SOL    HW239020   8.002  12.792  12.017
79061SOL     OW39021   4.694  10.388   4.020
79061SOL    HW139022   4.660  10.436   4.095
79061SOL    HW239023   4.667  10.298   4.035
79062SOL     OW39024   6.184   2.305   3.320
79062SOL    HW139025   6.134   2.364   3.375
79062SOL    HW239026   6.131   2.295   3.241
79063SOL     OW39027   8.883   5.112   3.089
79063SOL    HW139028   8.941   5.042   3.118
79063SOL    HW239029   8.857   5.088   3.000
79064SOL     OW39030   9.541  10.659   5.886
79064SOL    HW139031   9.471  10.638   5.825
79064SOL    HW239032   9.540  10.587   5.949
79065SOL     OW39033   6.055  10.348   0.664
79065SOL    HW139034   6.005  10.405   0.605
79065SOL    HW239035   6.135  10.397   0.681
79066SOL     OW39036  12.331   6.449  13.939
79066SOL    HW139037  12.360   6.527  13.892
79066SOL    HW239038  12.309   6.386  13.871
79067SOL     OW39039   5.756   8.793   0.487
79067SOL    HW139040   5.778   8.874   0.441
79067SOL    HW239041   5.829   8.734   0.468
79068SOL     OW39042  10.721   4.877  11.513
79068SOL    HW139043  10.770   4.835  11.584
79068SOL    HW239044  10.768   4.960  11.498
79069SOL     OW39045   1.069  10.709  12.990
79069SOL    HW139046   1.016  10.788  12.996
79069SOL    HW239047   1.068  10.686  12.897
79070SOL     OW39048   5.640  12.424   8.877
79070SOL    HW139049   5.671  12.513   8.893
79070SOL    HW239050   5.720  12.372   8.869
79071SOL     OW39051   9.294   9.995  11.637
79071SOL    HW139052   9.357  10.030  11.574
79071SOL    HW239053   9.283   9.903  11.611
79072SOL     OW39054   9.389   7.854   3.118
79072SOL    HW139055   9.366   7.783   3.058
79072SOL    HW239056   9.485   7.849   3.125
79073SOL     OW39057  13.462   4.454   5.014
79073SOL    HW139058  13.386   4.416   5.059
79073SOL    HW239059  13.531   4.387   5.023
79074SOL     OW39060   0.501   6.949   2.775
79074SOL    HW139061   0.548   7.031   2.793
79074SOL    HW239062   0.538   6.886   2.836
79075SOL     OW39063   7.202   0.410   6.317
79075SOL    HW139064   7.138   0.389   6.249
79075SOL    HW239065   7.287   0.392   6.276
79076SOL     OW39066   6.453   6.259  13.355
79076SOL    HW139067   6.527   6.319  13.355
79076SOL    HW239068   6.420   6.261  13.265
79077SOL     OW39069  13.014  10.083   7.804
79077SOL    HW139070  13.098  10.122   7.828
79077SOL    HW239071  12.992  10.026   7.878
79078SOL     OW39072  13.709   5.857  10.886
79078SOL    HW139073  13.699   5.764  10.905
79078SOL    HW239074  13.792   5.862  10.837
79079SOL     OW39075  13.023   4.753   7.563
79079SOL    HW139076  13.068   4.711   7.489
79079SOL    HW239077  13.058   4.710   7.640
79080SOL     OW39078   9.412  13.758  12.911
79080SOL    HW139079   9.337  13.717  12.954
79080SOL    HW239080   9.427  13.839  12.960
79081SOL     OW39081   3.513  10.118   8.867
79081SOL    HW139082   3.607  10.131   8.870
79081SOL    HW239083   3.500  10.040   8.813
79082SOL     OW39084   6.764   4.516   4.497
79082SOL    HW139085   6.743   4.607   4.479
79082SOL    HW239086   6.681   4.476   4.523
79083SOL     OW39087   1.803   9.106   0.494
79083SOL    HW139088   1.842   9.022   0.469
79083SOL    HW239089   1.709   9.088   0.498
79084SOL     OW39090  10.203   2.709  10.387
79084SOL    HW139091  10.273   2.650  10.415
79084SOL    HW239092  10.199   2.776  10.455
79085SOL     OW39093   3.401   0.331  14.803
79085SOL    HW139094   3.419   0.425  14.795
79085SOL    HW239095   3.352   0.323   0.005
79086SOL     OW39096   8.235   9.650   5.046
79086SOL    HW139097   8.186   9.678   4.968
79086SOL    HW239098   8.326   9.644   5.016
79087SOL     OW39099   2.258   1.212  14.393
79087SOL    HW139100   2.239   1.300  14.426
79087SOL    HW239101   2.276   1.225  14.300
79088SOL     OW39102   9.879   1.579  13.307
79088SOL    HW139103   9.820   1.580  13.382
79088SOL    HW239104   9.967   1.576  13.345
79089SOL     OW39105   4.444  13.456   3.009
79089SOL    HW139106   4.463  13.550   3.019
79089SOL    HW239107   4.377  13.438   3.076
79090SOL     OW39108  10.013   1.298  12.205
79090SOL    HW139109  10.063   1.337  12.133
79090SOL    HW239110   9.945   1.247  12.161
79091SOL     OW39111  10.693   4.860  13.049
79091SOL    HW139112  10.673   4.889  12.960
79091SOL    HW239113  10.661   4.932  13.105
79092SOL     OW39114  11.160   7.198  14.124
79092SOL    HW139115  11.142   7.223  14.215
79092SOL    HW239116  11.186   7.106  14.129
79093SOL     OW39117   0.414   7.947   8.415
79093SOL    HW139118   0.425   7.917   8.506
79093SOL    HW239119   0.451   8.035   8.414
79094SOL     OW39120  13.086   1.795  12.984
79094SOL    HW139121  13.125   1.782  12.898
79094SOL    HW239122  13.154   1.837  13.036
79095SOL     OW39123   7.456  12.295   7.724
79095SOL    HW139124   7.381  12.257   7.770
79095SOL    HW239125   7.522  12.225   7.724
79096SOL     OW39126   0.044   3.445   1.534
79096SOL    HW139127   0.044   3.473   1.442
79096SOL    HW239128   0.131   3.470   1.566
79097SOL     OW39129   5.824  13.868   9.998
79097SOL    HW139130   5.755  13.862  10.063
79097SOL    HW239131   5.779  13.892   9.917
79098SOL     OW39132   1.502   8.998   3.179
79098SOL    HW139133   1.571   9.007   3.244
79098SOL    HW239134   1.447   9.075   3.191
79099SOL     OW39135  13.345   0.140   5.501
79099SOL    HW139136  13.363   0.140   5.407
79099SOL    HW239137  13.352   0.048   5.526
79100SOL     OW39138   0.579   5.083   1.624
79100SOL    HW139139   0.665   5.122   1.612
79100SOL    HW239140   0.591   5.018   1.693
79101SOL     OW39141   7.416   2.765   4.220
79101SOL    HW139142   7.399   2.737   4.130
79101SOL    HW239143   7.487   2.828   4.212
79102SOL     OW39144  14.650   1.851  12.637
79102SOL    HW139145  14.563   1.879  12.608
79102SOL    HW239146  14.641   1.842  12.732
79103SOL     OW39147   5.165   5.858   7.636
79103SOL    HW139148   5.259   5.841   7.636
79103SOL    HW239149   5.137   5.839   7.547
79104SOL     OW39150   5.717   0.569  11.309
79104SOL    HW139151   5.656   0.634  11.343
79104SOL    HW239152   5.756   0.529  11.387
79105SOL     OW39153   8.057   5.351  13.471
79105SOL    HW139154   8.115   5.427  13.482
79105SOL    HW239155   7.969   5.387  13.481
79106SOL     OW39156  10.586   9.452  11.296
79106SOL    HW139157  10.549   9.454  11.207
79106SOL    HW239158  10.656   9.517  11.294
79107SOL     OW39159  10.406  12.480  10.164
79107SOL    HW139160  10.380  12.388  10.158
79107SOL    HW239161  10.483  12.486  10.108
79108SOL     OW39162   2.282   0.715  10.852
79108SOL    HW139163   2.249   0.626  10.858
79108SOL    HW239164   2.317   0.722  10.763
79109SOL     OW39165   5.524   7.097   2.036
79109SOL    HW139166   5.533   7.100   2.131
79109SOL    HW239167   5.594   7.037   2.008
79110SOL     OW39168   4.583  12.134  12.506
79110SOL    HW139169   4.570  12.077  12.582
79110SOL    HW239170   4.514  12.109  12.445
79111SOL     OW39171   8.927   7.542   7.551
79111SOL    HW139172   8.863   7.599   7.509
79111SOL    HW239173   8.882   7.509   7.629
79112SOL     OW39174   0.003  13.732   4.932
79112SOL    HW139175   0.087  13.729   4.887
79112SOL    HW239176  14.863  13.641   4.954
79113SOL     OW39177   2.006   2.306  14.876
79113SOL    HW139178   1.993   2.269   0.084
79113SOL    HW239179   2.101   2.304  14.863
79114SOL     OW39180   8.487  11.128  11.568
79114SOL    HW139181   8.494  11.036  11.543
79114SOL    HW239182   8.544  11.174  11.507
79115SOL     OW39183   3.950   4.414   2.106
79115SOL    HW139184   3.927   4.490   2.053
79115SOL    HW239185   3.880   4.409   2.172
79116SOL     OW39186   2.832  10.936  10.510
79116SOL    HW139187   2.789  10.968  10.590
79116SOL    HW239188   2.923  10.923  10.535
79117SOL     OW39189  14.661   0.575  11.424
79117SOL    HW139190  14.750   0.590  11.392
79117SOL    HW239191  14.664   0.488  11.463
79118SOL     OW39192   5.979  13.359  13.408
79118SOL    HW139193   6.016  13.389  13.491
79118SOL    HW239194   6.012  13.421  13.343
79119SOL     OW39195  11.297   1.640  14.700
79119SOL    HW139196  11.235   1.698  14.656
79119SOL    HW239197  11.367   1.698  14.730
79120SOL     OW39198   3.544   2.529  12.942
79120SOL    HW139199   3.463   2.579  12.947
79120SOL    HW239200   3.601   2.568  13.007
79121SOL     OW39201  13.801   9.022  13.247
79121SOL    HW139202  13.836   8.949  13.196
79121SOL    HW239203  13.879   9.073  13.270
79122SOL     OW39204   9.748   4.598   8.886
79122SOL    HW139205   9.779   4.677   8.929
79122SOL    HW239206   9.714   4.627   8.802
79123SOL     OW39207  11.879   3.095   0.248
79123SOL    HW139208  11.935   3.029   0.208
79123SOL    HW239209  11.852   3.056   0.331
79124SOL     OW39210   9.600   7.813   5.656
79124SOL    HW139211   9.669   7.871   5.623
79124SOL    HW239212   9.626   7.726   5.625
79125SOL     OW39213  12.935   6.084   2.012
79125SOL    HW139214  12.884   6.161   1.990
79125SOL    HW239215  13.019   6.097   1.968
79126SOL     OW39216   7.223   2.832   9.369
79126SOL    HW139217   7.137   2.797   9.348
79126SOL    HW239218   7.205   2.901   9.434
79127SOL     OW39219   7.082   7.325   8.293
79127SOL    HW139220   6.992   7.352   8.308
79127SOL    HW239221   7.099   7.256   8.357
79128SOL     OW39222   7.783   6.524   3.316
79128SOL    HW139223   7.839   6.460   3.360
79128SOL    HW239224   7.799   6.606   3.363
79129SOL     OW39225  10.302   8.142  14.842
79129SOL    HW139226  10.232   8.086  14.810
79129SOL    HW239227  10.316   8.113   0.053
79130SOL     OW39228   7.932  13.686  10.357
79130SOL    HW139229   7.991  13.632  10.410
79130SOL    HW239230   7.914  13.632  10.280
79131SOL     OW39231   6.628  14.850   2.667
79131SOL    HW139232   6.647  14.777   2.726
79131SOL    HW239233   6.664   0.048   2.711
79132SOL     OW39234   7.487  14.372   1.498
79132SOL    HW139235   7.427  14.312   1.453
79132SOL    HW239236   7.431  14.440   1.534
79133SOL     OW39237   9.123   9.905   4.656
79133SOL    HW139238   9.104   9.989   4.698
79133SOL    HW239239   9.049   9.890   4.598
79134SOL     OW39240   8.192   2.671  10.739
79134SOL    HW139241   8.218   2.644  10.828
79134SOL    HW239242   8.262   2.639  10.683
79135SOL     OW39243   2.671  10.681  13.125
79135SOL    HW139244   2.655  10.588  13.112
79135SOL    HW239245   2.587  10.723  13.104
79136SOL     OW39246  14.190   4.882   8.940
79136SOL    HW139247  14.117   4.944   8.937
79136SOL    HW239248  14.153   4.802   8.978
79137SOL     OW39249   4.128   1.979   8.253
79137SOL    HW139250   4.044   1.936   8.270
79137SOL    HW239251   4.164   1.996   8.340
79138SOL     OW39252   9.543   4.891   3.809
79138SOL    HW139253   9.627   4.851   3.788
79138SOL    HW239254   9.512   4.925   3.725
79139SOL     OW39255  14.382   6.716  13.939
79139SOL    HW139256  14.347   6.629  13.960
79139SOL    HW239257  14.448   6.732  14.007
79140SOL     OW39258  14.501   4.921   6.125
79140SOL    HW139259  14.534   4.852   6.183
79140SOL    HW239260  14.409   4.898   6.110
79141SOL     OW39261   4.828  14.123   7.428
79141SOL    HW139262   4.855  14.035   7.453
79141SOL    HW239263   4.833  14.174   7.509
79142SOL     OW39264  14.877   1.462   4.465
79142SOL    HW139265  14.839   1.392   4.517
79142SOL    HW239266  14.817   1.536   4.476
79143SOL     OW39267   0.238   0.521   0.913
79143SOL    HW139268   0.261   0.610   0.888
79143SOL    HW239269   0.289   0.466   0.854
79144SOL     OW39270   0.549   5.396   9.339
79144SOL    HW139271   0.641   5.370   9.351
79144SOL    HW239272   0.506   5.316   9.309
79145SOL     OW39273   6.374   3.441   2.099
79145SOL    HW139274   6.307   3.469   2.161
79145SOL    HW239275   6.442   3.508   2.104
79146SOL     OW39276   4.152   7.443   7.810
79146SOL    HW139277   4.097   7.486   7.875
79146SOL    HW239278   4.236   7.429   7.855
79147SOL     OW39279   0.709   8.188   2.064
79147SOL    HW139280   0.792   8.142   2.076
79147SOL    HW239281   0.722   8.241   1.985
79148SOL     OW39282  13.450   1.364   1.407
79148SOL    HW139283  13.435   1.361   1.313
79148SOL    HW239284  13.524   1.304   1.422
79149SOL     OW39285   6.542  14.510  10.347
79149SOL    HW139286   6.527  14.419  10.371
79149SOL    HW239287   6.520  14.560  10.425
79150SOL     OW39288  11.422   3.698   3.796
79150SOL    HW139289  11.330   3.724   3.784
79150SOL    HW239290  11.458   3.697   3.708
79151SOL     OW39291   3.351  11.116  11.715
79151SOL    HW139292   3.363  11.042  11.776
79151SOL    HW239293   3.266  11.101  11.675
79152SOL     OW39294  12.656  13.303   1.673
79152SOL    HW139295  12.704  13.267   1.748
79152SOL    HW239296  12.595  13.366   1.712
79153SOL     OW39297  11.629   5.640   9.473
79153SOL    HW139298  11.618   5.638   9.568
79153SOL    HW239299  11.540   5.645   9.439
79154SOL     OW39300   7.113  11.462   4.641
79154SOL    HW139301   7.020  11.469   4.661
79154SOL    HW239302   7.133  11.370   4.652
79155SOL     OW39303   2.520   3.030  13.628
79155SOL    HW139304   2.527   2.954  13.686
79155SOL    HW239305   2.595   3.085  13.653
79156SOL     OW39306   8.793   1.348   5.632
79156SOL    HW139307   8.718   1.354   5.692
79156SOL    HW239308   8.779   1.420   5.570
79157SOL     OW39309   8.185  13.163   5.637
79157SOL    HW139310   8.260  13.208   5.675
79157SOL    HW239311   8.109  13.199   5.682
79158SOL     OW39312  11.547  11.231   6.150
79158SOL    HW139313  11.593  11.284   6.084
79158SOL    HW239314  11.616  11.179   6.191
79159SOL     OW39315   3.012  12.259   9.724
79159SOL    HW139316   3.080  12.305   9.773
79159SOL    HW239317   2.994  12.181   9.776
79160SOL     OW39318  12.878   2.157   3.019
79160SOL    HW139319  12.904   2.073   3.057
79160SOL    HW239320  12.784   2.148   3.003
79161SOL     OW39321  10.451   3.648  12.996
79161SOL    HW139322  10.530   3.664  13.048
79161SOL    HW239323  10.381   3.690  13.046
79162SOL     OW39324   9.054  12.796  12.438
79162SOL    HW139325   9.054  12.747  12.355
79162SOL    HW239326   9.141  12.780  12.475
79163SOL     OW39327   3.971   6.561  12.254
79163SOL    HW139328   3.889   6.611  12.258
79163SOL    HW239329   4.037   6.626  12.229
79164SOL     OW39330   0.292  14.148   0.297
79164SOL    HW139331   0.336  14.122   0.217
79164SOL    HW239332   0.277  14.242   0.286
79165SOL     OW39333   6.440   0.428   5.859
79165SOL    HW139334   6.370   0.363   5.866
79165SOL    HW239335   6.514   0.390   5.906
79166SOL     OW39336   4.583   3.107  12.571
79166SOL    HW139337   4.629   3.023  12.568
79166SOL    HW239338   4.490   3.083  12.569
79167SOL     OW39339   3.068   5.458  10.316
79167SOL    HW139340   3.040   5.528  10.375
79167SOL    HW239341   3.031   5.482  10.231
79168SOL     OW39342  12.705   6.676   0.204
79168SOL    HW139343  12.626   6.728   0.220
79168SOL    HW239344  12.711   6.619   0.280
79169SOL     OW39345   9.196   9.994  10.683
79169SOL    HW139346   9.191  10.014  10.590
79169SOL    HW239347   9.136  10.058  10.724
79170SOL     OW39348   5.881   2.891   5.672
79170SOL    HW139349   5.975   2.885   5.657
79170SOL    HW239350   5.864   2.829   5.742
79171SOL     OW39351   1.135   9.156   4.618
79171SOL    HW139352   1.124   9.082   4.678
79171SOL    HW239353   1.060   9.213   4.636
79172SOL     OW39354   1.358   5.487   8.776
79172SOL    HW139355   1.340   5.576   8.746
79172SOL    HW239356   1.451   5.474   8.757
79173SOL     OW39357   9.282   4.666   3.008
79173SOL    HW139358   9.240   4.597   3.059
79173SOL    HW239359   9.374   4.663   3.036
79174SOL     OW39360  11.207  12.719   8.543
79174SOL    HW139361  11.165  12.710   8.629
79174SOL    HW239362  11.139  12.758   8.487
79175SOL     OW39363  11.743   0.168   2.124
79175SOL    HW139364  11.796   0.179   2.045
79175SOL    HW239365  11.653   0.178   2.094
79176SOL     OW39366  10.534   7.220  12.860
79176SOL    HW139367  10.455   7.223  12.807
79176SOL    HW239368  10.503   7.209  12.950
79177SOL     OW39369  13.861   2.873   9.393
79177SOL    HW139370  13.898   2.958   9.416
79177SOL    HW239371  13.926   2.833   9.335
79178SOL     OW39372   3.219   2.597   3.411
79178SOL    HW139373   3.228   2.601   3.315
79178SOL    HW239374   3.175   2.678   3.435
79179SOL     OW39375   9.022  12.092   3.381
79179SOL    HW139376   9.027  12.034   3.305
79179SOL    HW239377   8.933  12.127   3.378
79180SOL     OW39378   6.799  13.967   9.809
79180SOL    HW139379   6.798  13.935   9.899
79180SOL    HW239380   6.717  14.015   9.799
79181SOL     OW39381   8.855   9.196   4.366
79181SOL    HW139382   8.765   9.172   4.387
79181SOL    HW239383   8.846   9.265   4.299
79182SOL     OW39384   3.770   6.407   2.890
79182SOL    HW139385   3.734   6.431   2.976
79182SOL    HW239386   3.792   6.490   2.849
79183SOL     OW39387   5.988   1.811   2.023
79183SOL    HW139388   5.964   1.782   1.935
79183SOL    HW239389   6.074   1.852   2.012
79184SOL     OW39390  14.296   0.769  11.537
79184SOL    HW139391  14.357   0.823  11.587
79184SOL    HW239392  14.212   0.814  11.543
79185SOL     OW39393   9.418   9.742   7.312
79185SOL    HW139394   9.341   9.685   7.310
79185SOL    HW239395   9.383   9.830   7.301
79186SOL     OW39396   4.446   5.688   7.711
79186SOL    HW139397   4.490   5.772   7.719
79186SOL    HW239398   4.390   5.682   7.788
79187SOL     OW39399   3.514   8.588   6.782
79187SOL    HW139400   3.472   8.654   6.837
79187SOL    HW239401   3.584   8.635   6.737
79188SOL     OW39402  13.300   9.291  11.331
79188SOL    HW139403  13.284   9.197  11.345
79188SOL    HW239404  13.249   9.313  11.253
79189SOL     OW39405   4.790   4.300   6.843
79189SOL    HW139406   4.715   4.278   6.897
79189SOL    HW239407   4.760   4.374   6.789
79190SOL     OW39408   0.814  13.377   5.437
79190SOL    HW139409   0.799  13.293   5.479
79190SOL    HW239410   0.813  13.357   5.343
79191SOL     OW39411  11.071   1.146   0.180
79191SOL    HW139412  11.051   1.240   0.179
79191SOL    HW239413  10.989   1.104   0.205
79192SOL     OW39414   5.713   4.240  11.811
79192SOL    HW139415   5.716   4.334  11.832
79192SOL    HW239416   5.762   4.198  11.882
79193SOL     OW39417   1.785  10.461   2.706
79193SOL    HW139418   1.736  10.435   2.785
79193SOL    HW239419   1.734  10.533   2.669
79194SOL     OW39420  12.304   6.367   8.673
79194SOL    HW139421  12.282   6.331   8.760
79194SOL    HW239422  12.237   6.434   8.658
79195SOL     OW39423   6.053  12.259   5.770
79195SOL    HW139424   6.092  12.199   5.834
79195SOL    HW239425   6.105  12.247   5.691
79196SOL     OW39426   1.173  12.745   5.189
79196SOL    HW139427   1.254  12.748   5.240
79196SOL    HW239428   1.133  12.831   5.203
79197SOL     OW39429   5.006   4.859  13.888
79197SOL    HW139430   4.948   4.865  13.812
79197SOL    HW239431   5.013   4.949  13.920
79198SOL     OW39432   2.628  12.463  13.667
79198SOL    HW139433   2.696  12.529  13.675
79198SOL    HW239434   2.581  12.487  13.587
79199SOL     OW39435   4.016  12.286   7.913
79199SOL    HW139436   4.069  12.207   7.900
79199SOL    HW239437   3.939  12.272   7.858
79200SOL     OW39438   4.770   6.191   4.363
79200SOL    HW139439   4.778   6.199   4.268
79200SOL    HW239440   4.847   6.235   4.398
79201SOL     OW39441  10.011  12.855   7.742
79201SOL    HW139442  10.065  12.776   7.736
79201SOL    HW239443  10.060  12.913   7.800
79202SOL     OW39444  12.574   0.500   8.508
79202SOL    HW139445  12.576   0.555   8.430
79202SOL    HW239446  12.659   0.513   8.550
79203SOL     OW39447   6.797   9.645   9.453
79203SOL    HW139448   6.746   9.598   9.519
79203SOL    HW239449   6.750   9.728   9.441
79204SOL     OW39450   3.890   4.035  12.511
79204SOL    HW139451   3.877   4.093  12.586
79204SOL    HW239452   3.828   3.963  12.525
79205SOL     OW39453   3.801   5.957   4.876
79205SOL    HW139454   3.882   5.994   4.841
79205SOL    HW239455   3.733   6.020   4.850
79206SOL     OW39456   8.360   9.955   9.842
79206SOL    HW139457   8.286   9.935   9.784
79206SOL    HW239458   8.437   9.946   9.785
79207SOL     OW39459   2.668   3.677  11.414
79207SOL    HW139460   2.591   3.627  11.390
79207SOL    HW239461   2.720   3.617  11.469
79208SOL     OW39462  12.628   2.122   0.534
79208SOL    HW139463  12.609   2.216   0.538
79208SOL    HW239464  12.583   2.092   0.456
79209SOL     OW39465  14.409  11.137   0.733
79209SOL    HW139466  14.401  11.082   0.811
79209SOL    HW239467  14.410  11.226   0.767
79210SOL     OW39468   7.277   1.493   7.659
79210SOL    HW139469   7.182   1.484   7.645
79210SOL    HW239470   7.304   1.559   7.596
79211SOL     OW39471  10.023   3.635  11.847
79211SOL    HW139472  10.073   3.712  11.876
79211SOL    HW239473   9.956   3.624  11.914
79212SOL     OW39474   6.746   2.716   3.275
79212SOL    HW139475   6.835   2.735   3.304
79212SOL    HW239476   6.745   2.622   3.259
79213SOL     OW39477  14.454  10.022   7.631
79213SOL    HW139478  14.502   9.961   7.575
79213SOL    HW239479  14.481  10.109   7.602
79214SOL     OW39480  12.717   5.883   6.478
79214SOL    HW139481  12.729   5.954   6.541
79214SOL    HW239482  12.708   5.926   6.394
79215SOL     OW39483   9.349  14.069  13.270
79215SOL    HW139484   9.372  14.158  13.298
79215SOL    HW239485   9.256  14.061  13.289
79216SOL     OW39486   2.932  10.933  11.840
79216SOL    HW139487   2.849  10.962  11.879
79216SOL    HW239488   2.907  10.861  11.782
79217SOL     OW39489   4.444   6.654  14.156
79217SOL    HW139490   4.535   6.681  14.168
79217SOL    HW239491   4.415   6.700  14.077
79218SOL     OW39492   7.201  13.141  12.583
79218SOL    HW139493   7.294  13.116  12.585
79218SOL    HW239494   7.186  13.167  12.493
79219SOL     OW39495   9.534  12.834  11.619
79219SOL    HW139496   9.489  12.775  11.558
79219SOL    HW239497   9.553  12.913  11.568
79220SOL     OW39498   8.037   4.843   0.032
79220SOL    HW139499   7.957   4.791   0.022
79220SOL    HW239500   8.093   4.817  14.838
79221SOL     OW39501  10.996  12.624   5.891
79221SOL    HW139502  11.059  12.694   5.906
79221SOL    HW239503  10.955  12.610   5.977
79222SOL     OW39504   3.313  14.728  11.019
79222SOL    HW139505   3.290  14.635  11.009
79222SOL    HW239506   3.286  14.769  10.938
79223SOL     OW39507  13.948   1.994  11.133
79223SOL    HW139508  13.887   1.956  11.196
79223SOL    HW239509  13.894   2.055  11.082
79224SOL     OW39510   4.060   6.052   1.687
79224SOL    HW139511   4.139   6.041   1.635
79224SOL    HW239512   4.070   5.990   1.760
79225SOL     OW39513   0.176   1.273   0.391
79225SOL    HW139514   0.112   1.308   0.453
79225SOL    HW239515   0.258   1.317   0.413
79226SOL     OW39516  10.038   0.893   0.005
79226SOL    HW139517  10.043   0.884   0.100
79226SOL    HW239518  10.107   0.835  14.851
79227SOL     OW39519   3.412   6.038   1.365
79227SOL    HW139520   3.426   5.986   1.286
79227SOL    HW239521   3.341   6.098   1.342
79228SOL     OW39522   8.568   0.049   2.095
79228SOL    HW139523   8.610  14.842   2.088
79228SOL    HW239524   8.495   0.045   2.033
79229SOL     OW39525   2.298   2.113   1.468
79229SOL    HW139526   2.323   2.183   1.409
79229SOL    HW239527   2.209   2.134   1.495
79230SOL     OW39528   4.761   2.369   1.176
79230SOL    HW139529   4.826   2.366   1.246
79230SOL    HW239530   4.698   2.435   1.205
79231SOL     OW39531   3.694   9.405  14.096
79231SOL    HW139532   3.772   9.388  14.043
79231SOL    HW239533   3.721   9.387  14.186
79232SOL     OW39534   9.884   9.251  12.076
79232SOL    HW139535   9.793   9.271  12.093
79232SOL    HW239536   9.886   9.225  11.983
79233SOL     OW39537   5.528   9.064  13.914
79233SOL    HW139538   5.596   9.008  13.876
79233SOL    HW239539   5.517   9.134  13.850
79234SOL     OW39540  11.347   1.304   9.086
79234SOL    HW139541  11.374   1.393   9.062
79234SOL    HW239542  11.413   1.275   9.149
79235SOL     OW39543   7.673   1.434   5.602
79235SOL    HW139544   7.741   1.400   5.545
79235SOL    HW239545   7.687   1.528   5.603
79236SOL     OW39546   1.526   4.807   1.683
79236SOL    HW139547   1.511   4.884   1.738
79236SOL    HW239548   1.460   4.744   1.711
79237SOL     OW39549  13.932   0.143   8.466
79237SOL    HW139550  13.917   0.140   8.561
79237SOL    HW239551  13.845   0.160   8.430
79238SOL     OW39552   4.853   2.185  10.028
79238SOL    HW139553   4.859   2.136  10.110
79238SOL    HW239554   4.943   2.191   9.996
79239SOL     OW39555  14.640   0.323  14.299
79239SOL    HW139556  14.587   0.400  14.320
79239SOL    HW239557  14.579   0.250  14.301
79240SOL     OW39558  14.001  13.792   2.972
79240SOL    HW139559  13.996  13.842   3.054
79240SOL    HW239560  14.049  13.849   2.912
79241SOL     OW39561   8.614   7.715   0.989
79241SOL    HW139562   8.619   7.664   0.908
79241SOL    HW239563   8.658   7.660   1.054
79242SOL     OW39564  10.700   1.639  13.551
79242SOL    HW139565  10.713   1.729  13.581
79242SOL    HW239566  10.787   1.606  13.532
79243SOL     OW39567   8.934  10.567   8.285
79243SOL    HW139568   8.982  10.614   8.218
79243SOL    HW239569   8.880  10.633   8.329
79244SOL     OW39570   0.288   1.851   9.127
79244SOL    HW139571   0.378   1.866   9.157
79244SOL    HW239572   0.265   1.931   9.079
79245SOL     OW39573   5.564   7.388  14.598
79245SOL    HW139574   5.477   7.362  14.568
79245SOL    HW239575   5.595   7.450  14.532
79246SOL     OW39576   7.684   0.148   4.325
79246SOL    HW139577   7.642   0.188   4.401
79246SOL    HW239578   7.774   0.132   4.353
79247SOL     OW39579   2.394  12.132  14.067
79247SOL    HW139580   2.437  12.201  14.118
79247SOL    HW239581   2.338  12.179  14.006
79248SOL     OW39582   2.312  10.062  10.565
79248SOL    HW139583   2.328   9.976  10.528
79248SOL    HW239584   2.346  10.124  10.500
79249SOL     OW39585   3.291   1.479   8.995
79249SOL    HW139586   3.314   1.566   8.963
79249SOL    HW239587   3.249   1.436   8.920
79250SOL     OW39588   2.557   7.005   2.647
79250SOL    HW139589   2.580   6.980   2.558
79250SOL    HW239590   2.512   6.928   2.683
79251SOL     OW39591   1.588   6.556  12.914
79251SOL    HW139592   1.518   6.574  12.977
79251SOL    HW239593   1.637   6.483  12.953
79252SOL     OW39594  12.935  10.155  10.211
79252SOL    HW139595  12.863  10.095  10.192
79252SOL    HW239596  12.926  10.225  10.147
79253SOL     OW39597  13.362   4.029   2.783
79253SOL    HW139598  13.394   4.083   2.856
79253SOL    HW239599  13.280   4.071   2.757
79254SOL     OW39600   3.858   4.770   0.036
79254SOL    HW139601   3.810   4.752   0.117
79254SOL    HW239602   3.790   4.799  14.854
79255SOL     OW39603   8.774  12.989   0.972
79255SOL    HW139604   8.679  12.998   0.975
79255SOL    HW239605   8.794  12.973   0.880
79256SOL     OW39606  12.781  10.577   5.036
79256SOL    HW139607  12.757  10.546   5.123
79256SOL    HW239608  12.698  10.577   4.987
79257SOL     OW39609   5.838   6.781   8.568
79257SOL    HW139610   5.884   6.724   8.505
79257SOL    HW239611   5.840   6.868   8.527
79258SOL     OW39612   3.174  13.943  10.574
79258SOL    HW139613   3.256  13.962  10.529
79258SOL    HW239614   3.198  13.936  10.666
79259SOL     OW39615   8.884   0.578  13.201
79259SOL    HW139616   8.793   0.608  13.196
79259SOL    HW239617   8.900   0.567  13.295
79260SOL     OW39618  14.576  12.759   9.848
79260SOL    HW139619  14.631  12.826   9.889
79260SOL    HW239620  14.618  12.741   9.764
79261SOL     OW39621  11.506   7.694  11.979
79261SOL    HW139622  11.438   7.677  11.915
79261SOL    HW239623  11.588   7.673  11.934
79262SOL     OW39624   9.020   8.606  11.208
79262SOL    HW139625   9.008   8.528  11.263
79262SOL    HW239626   8.971   8.587  11.129
79263SOL     OW39627   4.896   7.308   9.973
79263SOL    HW139628   4.833   7.236   9.974
79263SOL    HW239629   4.873   7.358   9.894
79264SOL     OW39630   2.256   9.617  10.001
79264SOL    HW139631   2.280   9.709  10.014
79264SOL    HW239632   2.175   9.620   9.950
79265SOL     OW39633   1.097   1.785   5.727
79265SOL    HW139634   1.011   1.812   5.761
79265SOL    HW239635   1.134   1.730   5.796
79266SOL     OW39636  10.993  13.850   3.069
79266SOL    HW139637  11.015  13.943   3.074
79266SOL    HW239638  11.007  13.828   2.977
79267SOL     OW39639   3.840   1.719   6.670
79267SOL    HW139640   3.790   1.638   6.678
79267SOL    HW239641   3.819   1.768   6.749
79268SOL     OW39642   5.639   0.849   4.412
79268SOL    HW139643   5.560   0.796   4.410
79268SOL    HW239644   5.609   0.939   4.407
79269SOL     OW39645   4.011   7.686  12.757
79269SOL    HW139646   4.014   7.599  12.716
79269SOL    HW239647   3.992   7.668  12.849
79270SOL     OW39648  11.315  13.424   1.234
79270SOL    HW139649  11.249  13.471   1.183
79270SOL    HW239650  11.327  13.341   1.186
79271SOL     OW39651   6.022   5.300   6.608
79271SOL    HW139652   5.950   5.253   6.650
79271SOL    HW239653   6.080   5.324   6.681
79272SOL     OW39654   5.830  10.774  11.195
79272SOL    HW139655   5.808  10.857  11.153
79272SOL    HW239656   5.783  10.775  11.278
79273SOL     OW39657   7.124   9.244   4.118
79273SOL    HW139658   7.190   9.192   4.072
79273SOL    HW239659   7.153   9.334   4.111
79274SOL     OW39660   6.844   8.633   1.068
79274SOL    HW139661   6.904   8.651   0.995
79274SOL    HW239662   6.785   8.709   1.070
79275SOL     OW39663  13.074   9.451   1.824
79275SOL    HW139664  12.995   9.466   1.877
79275SOL    HW239665  13.073   9.357   1.806
79276SOL     OW39666   8.980   1.692  13.394
79276SOL    HW139667   8.957   1.751  13.323
79276SOL    HW239668   8.912   1.706  13.460
79277SOL     OW39669   3.122   2.976  11.106
79277SOL    HW139670   3.087   2.907  11.050
79277SOL    HW239671   3.049   3.039  11.114
79278SOL     OW39672   9.688  12.592   5.978
79278SOL    HW139673   9.645  12.534   6.040
79278SOL    HW239674   9.746  12.646   6.032
79279SOL     OW39675  11.935  14.502   4.441
79279SOL    HW139676  11.859  14.521   4.386
79279SOL    HW239677  11.924  14.558   4.518
79280SOL     OW39678   1.116   8.849  14.135
79280SOL    HW139679   1.106   8.907  14.210
79280SOL    HW239680   1.119   8.761  14.172
79281SOL     OW39681   3.667   4.569   9.922
79281SOL    HW139682   3.627   4.526   9.845
79281SOL    HW239683   3.646   4.662   9.911
79282SOL     OW39684   5.255   4.258  11.941
79282SOL    HW139685   5.331   4.247  11.884
79282SOL    HW239686   5.292   4.274  12.028
79283SOL     OW39687   2.281   5.122   1.260
79283SOL    HW139688   2.330   5.163   1.188
79283SOL    HW239689   2.348   5.095   1.322
79284SOL     OW39690   5.738   5.351   9.796
79284SOL    HW139691   5.683   5.287   9.841
79284SOL    HW239692   5.677   5.398   9.739
79285SOL     OW39693   5.766  12.674   7.346
79285SOL    HW139694   5.700  12.740   7.325
79285SOL    HW239695   5.759  12.609   7.276
79286SOL     OW39696  10.343   7.386   1.754
79286SOL    HW139697  10.435   7.377   1.780
79286SOL    HW239698  10.297   7.323   1.810
79287SOL     OW39699  11.932   0.808   0.115
79287SOL    HW139700  11.892   0.731   0.157
79287SOL    HW239701  11.874   0.881   0.139
79288SOL     OW39702  12.416   0.598   1.583
79288SOL    HW139703  12.379   0.686   1.571
79288SOL    HW239704  12.341   0.540   1.588
79289SOL     OW39705   6.208   2.856   6.054
79289SOL    HW139706   6.193   2.948   6.033
79289SOL    HW239707   6.215   2.854   6.149
79290SOL     OW39708   5.583   6.461  14.688
79290SOL    HW139709   5.572   6.393  14.621
79290SOL    HW239710   5.666   6.504  14.664
79291SOL     OW39711   0.892  11.386   4.470
79291SOL    HW139712   0.973  11.336   4.480
79291SOL    HW239713   0.860  11.397   4.560
79292SOL     OW39714  12.673  10.084  10.220
79292SOL    HW139715  12.664  10.022  10.148
79292SOL    HW239716  12.634  10.165  10.188
79293SOL     OW39717  13.587  11.093  14.787
79293SOL    HW139718  13.622  11.084  14.876
79293SOL    HW239719  13.497  11.124  14.800
79294SOL     OW39720   2.298   0.062   9.180
79294SOL    HW139721   2.350   0.136   9.211
79294SOL    HW239722   2.228   0.103   9.128
79295SOL     OW39723  12.019   9.485  13.912
79295SOL    HW139724  12.092   9.546  13.904
79295SOL    HW239725  12.052   9.416  13.971
79296SOL     OW39726   6.476   5.072   0.808
79296SOL    HW139727   6.496   5.014   0.734
79296SOL    HW239728   6.402   5.029   0.851
79297SOL     OW39729  12.471   1.726   5.729
79297SOL    HW139730  12.434   1.815   5.726
79297SOL    HW239731  12.470   1.703   5.822
79298SOL     OW39732   3.274  14.879   5.547
79298SOL    HW139733   3.320   0.001   5.631
79298SOL    HW239734   3.343  14.860   5.483
79299SOL     OW39735   5.538   4.182  13.114
79299SOL    HW139736   5.521   4.156  13.204
79299SOL    HW239737   5.615   4.131  13.088
79300SOL     OW39738   2.529  11.672  12.121
79300SOL    HW139739   2.466  11.721  12.068
79300SOL    HW239740   2.495  11.676  12.210
79301SOL     OW39741   9.900  11.776   9.834
79301SOL    HW139742   9.986  11.744   9.863
79301SOL    HW239743   9.849  11.783   9.915
79302SOL     OW39744   0.672   6.082   1.340
79302SOL    HW139745   0.761   6.058   1.316
79302SOL    HW239746   0.651   6.158   1.286
79303SOL     OW39747   3.457   6.409  13.055
79303SOL    HW139748   3.401   6.486  13.042
79303SOL    HW239749   3.544   6.446  13.074
79304SOL     OW39750   0.269   8.824  13.042
79304SOL    HW139751   0.176   8.804  13.033
79304SOL    HW239752   0.274   8.893  13.108
79305SOL     OW39753  12.729   8.469   8.048
79305SOL    HW139754  12.647   8.427   8.023
79305SOL    HW239755  12.797   8.411   8.014
79306SOL     OW39756   9.856   0.563   5.922
79306SOL    HW139757   9.812   0.521   5.847
79306SOL    HW239758   9.947   0.573   5.894
79307SOL     OW39759   3.573   1.530  13.364
79307SOL    HW139760   3.637   1.465  13.336
79307SOL    HW239761   3.593   1.545  13.457
79308SOL     OW39762  12.345   8.964   1.272
79308SOL    HW139763  12.437   8.972   1.297
79308SOL    HW239764  12.310   9.052   1.279
79309SOL     OW39765   3.118   6.487   1.809
79309SOL    HW139766   3.089   6.488   1.900
79309SOL    HW239767   3.207   6.452   1.812
79310SOL     OW39768   2.045   0.131  11.652
79310SOL    HW139769   1.966   0.176  11.683
79310SOL    HW239770   2.047   0.049  11.701
79311SOL     OW39771   7.547   7.154  13.209
79311SOL    HW139772   7.581   7.181  13.124
79311SOL    HW239773   7.563   7.059  13.212
79312SOL     OW39774  14.001   1.383   6.490
79312SOL    HW139775  14.048   1.326   6.550
79312SOL    HW239776  13.920   1.336   6.470
79313SOL     OW39777   7.250   3.608  12.370
79313SOL    HW139778   7.258   3.526  12.320
79313SOL    HW239779   7.161   3.605  12.406
79314SOL     OW39780  11.301   4.810  11.560
79314SOL    HW139781  11.341   4.765  11.635
79314SOL    HW239782  11.322   4.755  11.485
79315SOL     OW39783   2.324   0.310  12.166
79315SOL    HW139784   2.229   0.298  12.175
79315SOL    HW239785   2.351   0.352  12.247
79316SOL     OW39786  14.648   8.549   2.562
79316SOL    HW139787  14.575   8.593   2.606
79316SOL    HW239788  14.698   8.510   2.633
79317SOL     OW39789   2.098   1.118  12.665
79317SOL    HW139790   2.189   1.094  12.649
79317SOL    HW239791   2.095   1.146  12.756
79318SOL     OW39792   4.197   2.865   7.217
79318SOL    HW139793   4.151   2.818   7.287
79318SOL    HW239794   4.284   2.826   7.215
79319SOL     OW39795   3.352   2.825  13.191
79319SOL    HW139796   3.296   2.902  13.197
79319SOL    HW239797   3.430   2.855  13.144
79320SOL     OW39798   3.063   7.797  10.828
79320SOL    HW139799   2.973   7.788  10.797
79320SOL    HW239800   3.098   7.707  10.825
79321SOL     OW39801   2.484   2.683   9.509
79321SOL    HW139802   2.556   2.702   9.449
79321SOL    HW239803   2.416   2.644   9.452
79322SOL     OW39804   7.322   1.301   1.877
79322SOL    HW139805   7.410   1.337   1.870
79322SOL    HW239806   7.302   1.304   1.970
79323SOL     OW39807  10.527   0.218   2.111
79323SOL    HW139808  10.615   0.183   2.097
79323SOL    HW239809  10.529   0.254   2.200
79324SOL     OW39810   9.565   8.905   9.018
79324SOL    HW139811   9.469   8.898   9.023
79324SOL    HW239812   9.594   8.897   9.108
79325SOL     OW39813  13.690   3.292  10.077
79325SOL    HW139814  13.642   3.374  10.091
79325SOL    HW239815  13.675   3.270   9.986
79326SOL     OW39816   0.776   4.683   5.539
79326SOL    HW139817   0.790   4.763   5.487
79326SOL    HW239818   0.858   4.672   5.588
79327SOL     OW39819   0.643   3.059  13.435
79327SOL    HW139820   0.651   3.076  13.529
79327SOL    HW239821   0.658   2.965  13.426
79328SOL     OW39822   1.826   8.675  11.652
79328SOL    HW139823   1.891   8.745  11.652
79328SOL    HW239824   1.826   8.642  11.562
79329SOL     OW39825   1.745   4.428   7.525
79329SOL    HW139826   1.678   4.495   7.513
79329SOL    HW239827   1.729   4.365   7.455
79330SOL     OW39828  12.556   5.651   9.020
79330SOL    HW139829  12.619   5.638   8.949
79330SOL    HW239830  12.495   5.717   8.986
79331SOL     OW39831   3.148   0.522  11.894
79331SOL    HW139832   3.087   0.453  11.870
79331SOL    HW239833   3.150   0.520  11.990
79332SOL     OW39834   6.042   8.359   3.287
79332SOL    HW139835   6.052   8.450   3.258
79332SOL    HW239836   6.131   8.323   3.285
79333SOL     OW39837  13.578   2.067  11.698
79333SOL    HW139838  13.626   2.055  11.616
79333SOL    HW239839  13.486   2.074  11.671
79334SOL     OW39840   9.299   8.955   6.058
79334SOL    HW139841   9.212   8.960   6.019
79334SOL    HW239842   9.341   8.882   6.013
79335SOL     OW39843  11.027   1.439  14.357
79335SOL    HW139844  11.004   1.513  14.414
79335SOL    HW239845  10.947   1.420  14.308
79336SOL     OW39846   3.477   8.561   0.571
79336SOL    HW139847   3.560   8.526   0.604
79336SOL    HW239848   3.412   8.495   0.595
79337SOL     OW39849   5.756   9.532   0.231
79337SOL    HW139850   5.749   9.538   0.136
79337SOL    HW239851   5.846   9.558   0.250
79338SOL     OW39852   7.597   5.715   9.112
79338SOL    HW139853   7.600   5.794   9.058
79338SOL    HW239854   7.539   5.656   9.063
79339SOL     OW39855   8.294  14.820   2.154
79339SOL    HW139856   8.325  14.761   2.086
79339SOL    HW239857   8.270  14.763   2.227
79340SOL     OW39858   9.251   7.064  11.186
79340SOL    HW139859   9.275   7.130  11.122
79340SOL    HW239860   9.156   7.056  11.177
79341SOL     OW39861   4.159   9.508   6.051
79341SOL    HW139862   4.168   9.602   6.068
79341SOL    HW239863   4.230   9.487   5.991
79342SOL     OW39864  11.045   0.971  12.834
79342SOL    HW139865  11.133   0.982  12.798
79342SOL    HW239866  11.049   0.890  12.884
79343SOL     OW39867   8.418   6.032   7.194
79343SOL    HW139868   8.410   6.112   7.247
79343SOL    HW239869   8.476   5.976   7.245
79344SOL     OW39870  13.658   8.684   9.095
79344SOL    HW139871  13.583   8.626   9.087
79344SOL    HW239872  13.706   8.651   9.172
79345SOL     OW39873   1.754  10.073   2.657
79345SOL    HW139874   1.677  10.085   2.603
79345SOL    HW239875   1.823  10.124   2.614
79346SOL     OW39876   8.590   0.879  11.227
79346SOL    HW139877   8.611   0.804  11.283
79346SOL    HW239878   8.531   0.933  11.280
79347SOL     OW39879   7.688   1.723   2.451
79347SOL    HW139880   7.761   1.662   2.442
79347SOL    HW239881   7.626   1.677   2.508
79348SOL     OW39882   7.441   2.301  14.579
79348SOL    HW139883   7.406   2.213  14.592
79348SOL    HW239884   7.531   2.296  14.612
79349SOL     OW39885   9.203  12.458   9.703
79349SOL    HW139886   9.224  12.456   9.796
79349SOL    HW239887   9.138  12.528   9.694
79350SOL     OW39888   8.783   5.293   3.262
79350SOL    HW139889   8.804   5.250   3.179
79350SOL    HW239890   8.843   5.367   3.266
79351SOL     OW39891   6.494   7.089   8.564
79351SOL    HW139892   6.400   7.084   8.548
79351SOL    HW239893   6.501   7.132   8.649
79352SOL     OW39894   7.032  12.697   0.285
79352SOL    HW139895   7.086  12.638   0.339
79352SOL    HW239896   7.008  12.645   0.209
79353SOL     OW39897  12.381   2.136   6.728
79353SOL    HW139898  12.375   2.144   6.823
79353SOL    HW239899  12.290   2.141   6.698
79354SOL     OW39900  11.118  14.868  12.104
79354SOL    HW139901  11.180  14.856  12.031
79354SOL    HW239902  11.075   0.072  12.086
79355SOL     OW39903   2.508  11.666   7.802
79355SOL    HW139904   2.421  11.704   7.792
79355SOL    HW239905   2.567  11.730   7.761
79356SOL     OW39906   6.351   7.562   3.741
79356SOL    HW139907   6.332   7.518   3.824
79356SOL    HW239908   6.430   7.613   3.759
79357SOL     OW39909   0.241   2.671   7.403
79357SOL    HW139910   0.210   2.757   7.433
79357SOL    HW239911   0.167   2.613   7.416
79358SOL     OW39912   0.697   9.504   9.976
79358SOL    HW139913   0.649   9.576  10.018
79358SOL    HW239914   0.629   9.453   9.932
79359SOL     OW39915   3.492   8.119   7.599
79359SOL    HW139916   3.449   8.141   7.516
79359SOL    HW239917   3.449   8.175   7.663
79360SOL     OW39918   6.400   3.386   7.201
79360SOL    HW139919   6.334   3.449   7.229
79360SOL    HW239920   6.389   3.312   7.260
79361SOL     OW39921   0.256   7.168   0.472
79361SOL    HW139922   0.255   7.215   0.556
79361SOL    HW239923   0.235   7.235   0.407
79362SOL     OW39924  11.448   6.833   7.379
79362SOL    HW139925  11.510   6.901   7.404
79362SOL    HW239926  11.372   6.848   7.435
79363SOL     OW39927   3.328  13.788   3.436
79363SOL    HW139928   3.289  13.801   3.523
79363SOL    HW239929   3.400  13.727   3.452
79364SOL     OW39930   9.929   4.253  12.672
79364SOL    HW139931   9.987   4.190  12.629
79364SOL    HW239932   9.914   4.215  12.759
79365SOL     OW39933   1.590  14.657   5.485
79365SOL    HW139934   1.587  14.747   5.454
79365SOL    HW239935   1.586  14.604   5.405
79366SOL     OW39936  13.158   4.129   7.476
79366SOL    HW139937  13.202   4.049   7.449
79366SOL    HW239938  13.210   4.162   7.549
79367SOL     OW39939   7.053   5.002   4.016
79367SOL    HW139940   7.036   4.918   3.973
79367SOL    HW239941   6.966   5.039   4.032
79368SOL     OW39942   0.519   2.021   4.272
79368SOL    HW139943   0.492   1.951   4.331
79368SOL    HW239944   0.571   1.977   4.204
79369SOL     OW39945  10.395  13.919   8.354
79369SOL    HW139946  10.465  13.974   8.319
79369SOL    HW239947  10.334  13.982   8.395
79370SOL     OW39948   6.876   6.558  12.666
79370SOL    HW139949   6.826   6.613  12.606
79370SOL    HW239950   6.811   6.519  12.724
79371SOL     OW39951  11.839  10.471   1.131
79371SOL    HW139952  11.795  10.390   1.158
79371SOL    HW239953  11.768  10.528   1.102
79372SOL     OW39954  10.346   4.850   8.409
79372SOL    HW139955  10.380   4.774   8.457
79372SOL    HW239956  10.271   4.816   8.361
79373SOL     OW39957   5.860   5.537  11.594
79373SOL    HW139958   5.873   5.603  11.526
79373SOL    HW239959   5.770   5.508  11.582
79374SOL     OW39960  12.442   5.745  11.284
79374SOL    HW139961  12.504   5.702  11.226
79374SOL    HW239962  12.396   5.674  11.328
79375SOL     OW39963   2.370   7.068   4.339
79375SOL    HW139964   2.318   7.076   4.420
79375SOL    HW239965   2.311   7.025   4.277
79376SOL     OW39966   5.307  13.644   1.090
79376SOL    HW139967   5.306  13.731   1.130
79376SOL    HW239968   5.365  13.654   1.014
79377SOL     OW39969  14.018   2.397   2.111
79377SOL    HW139970  14.003   2.491   2.097
79377SOL    HW239971  14.057   2.392   2.198
79378SOL     OW39972   5.586   5.382   6.031
79378SOL    HW139973   5.491   5.390   6.019
79378SOL    HW239974   5.622   5.456   5.983
79379SOL     OW39975  10.477   2.875   8.789
79379SOL    HW139976  10.410   2.933   8.753
79379SOL    HW239977  10.559   2.909   8.753
79380SOL     OW39978   1.822   1.354   4.730
79380SOL    HW139979   1.914   1.329   4.730
79380SOL    HW239980   1.790   1.328   4.816
79381SOL     OW39981   2.312   9.847  13.671
79381SOL    HW139982   2.308   9.910  13.743
79381SOL    HW239983   2.405   9.827  13.663
79382SOL     OW39984  11.120   8.781   8.736
79382SOL    HW139985  11.033   8.749   8.716
79382SOL    HW239986  11.124   8.867   8.694
79383SOL     OW39987   3.638   2.816   8.166
79383SOL    HW139988   3.698   2.798   8.094
79383SOL    HW239989   3.555   2.836   8.124
79384SOL     OW39990  12.229  12.111   0.391
79384SOL    HW139991  12.265  12.026   0.414
79384SOL    HW239992  12.136  12.104   0.413
79385SOL     OW39993   2.960   8.653   3.162
79385SOL    HW139994   3.047   8.624   3.137
79385SOL    HW239995   2.950   8.739   3.121
79386SOL     OW39996   2.746  11.339  12.363
79386SOL    HW139997   2.794  11.320  12.282
79386SOL    HW239998   2.688  11.264  12.374
79387SOL     OW39999   3.931   3.102  11.674
79387SOL    HW140000   4.011   3.096  11.621
79387SOL    HW240001   3.952   3.166  11.742
79388SOL     OW40002   3.163   6.058  10.131
79388SOL    HW140003   3.236   5.996  10.121
79388SOL    HW240004   3.192   6.117  10.200
79389SOL     OW40005   2.015  14.822   8.825
79389SOL    HW140006   1.921  14.801   8.832
79389SOL    HW240007   2.027  14.848   8.734
79390SOL     OW40008   8.277   0.138   7.726
79390SOL    HW140009   8.230   0.060   7.755
79390SOL    HW240010   8.295   0.122   7.633
79391SOL     OW40011  14.463   8.189   9.516
79391SOL    HW140012  14.510   8.237   9.448
79391SOL    HW240013  14.418   8.257   9.566
79392SOL     OW40014  14.209  10.686   6.585
79392SOL    HW140015  14.130  10.737   6.566
79392SOL    HW240016  14.220  10.630   6.508
79393SOL     OW40017   8.747   3.596   9.731
79393SOL    HW140018   8.732   3.648   9.810
79393SOL    HW240019   8.778   3.512   9.763
79394SOL     OW40020   0.512  10.631   7.296
79394SOL    HW140021   0.587  10.665   7.247
79394SOL    HW240022   0.447  10.610   7.229
79395SOL     OW40023   3.728  12.603  14.346
79395SOL    HW140024   3.807  12.641  14.306
79395SOL    HW240025   3.664  12.600  14.275
79396SOL     OW40026  11.836   4.825  10.255
79396SOL    HW140027  11.842   4.873  10.173
79396SOL    HW240028  11.903   4.757  10.249
79397SOL     OW40029  12.029   3.661   0.150
79397SOL    HW140030  11.975   3.690   0.077
79397SOL    HW240031  11.975   3.596   0.196
79398SOL     OW40032   2.467   0.464   0.922
79398SOL    HW140033   2.446   0.539   0.977
79398SOL    HW240034   2.393   0.404   0.933
79399SOL     OW40035   4.022   3.808   5.871
79399SOL    HW140036   4.108   3.829   5.907
79399SOL    HW240037   4.036   3.729   5.819
79400SOL     OW40038  13.804  11.503   7.540
79400SOL    HW140039  13.825  11.419   7.581
79400SOL    HW240040  13.889  11.545   7.527
79401SOL     OW40041   9.433   3.086  13.540
79401SOL    HW140042   9.346   3.108  13.509
79401SOL    HW240043   9.419   3.021  13.608
79402SOL     OW40044   1.768   1.621   5.266
79402SOL    HW140045   1.807   1.648   5.349
79402SOL    HW240046   1.710   1.548   5.289
79403SOL     OW40047   9.445  11.966   5.171
79403SOL    HW140048   9.446  12.042   5.113
79403SOL    HW240049   9.536  11.956   5.200
79404SOL     OW40050   1.531  13.461   0.293
79404SOL    HW140051   1.473  13.420   0.358
79404SOL    HW240052   1.618  13.456   0.331
79405SOL     OW40053  14.833   0.550   2.160
79405SOL    HW140054  14.786   0.488   2.216
79405SOL    HW240055   0.043   0.549   2.192
79406SOL     OW40056   9.386   6.374   5.233
79406SOL    HW140057   9.380   6.469   5.222
79406SOL    HW240058   9.437   6.344   5.157
79407SOL     OW40059  14.301   9.924  11.355
79407SOL    HW140060  14.286   9.947  11.447
79407SOL    HW240061  14.390   9.888  11.354
79408SOL     OW40062   2.817   5.449  12.776
79408SOL    HW140063   2.843   5.395  12.702
79408SOL    HW240064   2.739   5.406  12.811
79409SOL     OW40065  12.504   5.056  14.542
79409SOL    HW140066  12.468   4.972  14.511
79409SOL    HW240067  12.542   5.035  14.628
79410SOL     OW40068   8.530  11.867   8.595
79410SOL    HW140069   8.545  11.773   8.579
79410SOL    HW240070   8.511  11.903   8.509
79411SOL     OW40071   2.737   7.471   8.498
79411SOL    HW140072   2.654   7.475   8.450
79411SOL    HW240073   2.795   7.530   8.451
79412SOL     OW40074   7.002  14.265   3.801
79412SOL    HW140075   7.075  14.256   3.740
79412SOL    HW240076   6.983  14.359   3.802
79413SOL     OW40077   5.897   6.860  13.738
79413SOL    HW140078   5.945   6.937  13.769
79413SOL    HW240079   5.964   6.792  13.730
79414SOL     OW40080   3.325  14.644   9.272
79414SOL    HW140081   3.399  14.585   9.259
79414SOL    HW240082   3.248  14.588   9.264
79415SOL     OW40083  13.104   0.609   3.300
79415SOL    HW140084  13.016   0.642   3.318
79415SOL    HW240085  13.099   0.576   3.210
79416SOL     OW40086  14.439   8.560   0.735
79416SOL    HW140087  14.410   8.487   0.791
79416SOL    HW240088  14.488   8.617   0.794
79417SOL     OW40089  14.371  13.332   0.844
79417SOL    HW140090  14.367  13.263   0.779
79417SOL    HW240091  14.281  13.339   0.877
79418SOL     OW40092  13.402   2.743  13.498
79418SOL    HW140093  13.493   2.773  13.489
79418SOL    HW240094  13.409   2.651  13.523
79419SOL     OW40095   3.397   9.508  10.815
79419SOL    HW140096   3.323   9.559  10.783
79419SOL    HW240097   3.359   9.422  10.837
79420SOL     OW40098   5.015  10.461   2.526
79420SOL    HW140099   5.069  10.540   2.536
79420SOL    HW240100   4.961  10.480   2.450
79421SOL     OW40101   6.677  14.391   0.751
79421SOL    HW140102   6.652  14.332   0.823
79421SOL    HW240103   6.618  14.466   0.760
79422SOL     OW40104  10.011  14.384   3.633
79422SOL    HW140105  10.040  14.369   3.723
79422SOL    HW240106  10.015  14.297   3.592
79423SOL     OW40107  12.836  11.747   6.074
79423SOL    HW140108  12.878  11.823   6.114
79423SOL    HW240109  12.882  11.672   6.112
79424SOL     OW40110   9.907   4.268   0.152
79424SOL    HW140111   9.827   4.309   0.186
79424SOL    HW240112   9.966   4.264   0.227
79425SOL     OW40113   4.773  14.411   7.000
79425SOL    HW140114   4.685  14.439   6.974
79425SOL    HW240115   4.762  14.320   7.028
79426SOL     OW40116   8.350   1.003   6.639
79426SOL    HW140117   8.374   0.939   6.572
79426SOL    HW240118   8.275   0.964   6.684
79427SOL     OW40119   1.857  14.059   7.656
79427SOL    HW140120   1.884  14.126   7.720
79427SOL    HW240121   1.784  14.014   7.699
79428SOL     OW40122  10.341   4.553   8.493
79428SOL    HW140123  10.373   4.533   8.406
79428SOL    HW240124  10.277   4.484   8.513
79429SOL     OW40125   0.248   3.749  14.865
79429SOL    HW140126   0.258   3.732   0.079
79429SOL    HW240127   0.158   3.780  14.856
79430SOL     OW40128  12.674   0.517   1.553
79430SOL    HW140129  12.723   0.568   1.618
79430SOL    HW240130  12.585   0.513   1.589
79431SOL     OW40131   2.275   8.537   5.365
79431SOL    HW140132   2.182   8.550   5.345
79431SOL    HW240133   2.293   8.599   5.435
79432SOL     OW40134   9.755   7.168   1.668
79432SOL    HW140135   9.664   7.140   1.682
79432SOL    HW240136   9.802   7.133   1.744
79433SOL     OW40137   1.099  10.697   7.608
79433SOL    HW140138   1.137  10.758   7.544
79433SOL    HW240139   1.108  10.611   7.567
79434SOL     OW40140   0.755  12.486  12.366
79434SOL    HW140141   0.687  12.422  12.342
79434SOL    HW240142   0.795  12.510  12.283
79435SOL     OW40143   1.614  11.658  13.284
79435SOL    HW140144   1.586  11.736  13.332
79435SOL    HW240145   1.707  11.648  13.307
79436SOL     OW40146   4.517   8.492   6.076
79436SOL    HW140147   4.438   8.486   6.129
79436SOL    HW240148   4.584   8.522   6.137
79437SOL     OW40149  11.324  13.780  10.769
79437SOL    HW140150  11.420  13.781  10.770
79437SOL    HW240151  11.303  13.708  10.709
79438SOL     OW40152  14.568  12.258  11.370
79438SOL    HW140153  14.557  12.228  11.460
79438SOL    HW240154  14.562  12.353  11.377
79439SOL     OW40155   5.086   4.909   3.462
79439SOL    HW140156   5.030   4.887   3.388
79439SOL    HW240157   5.091   5.005   3.461
79440SOL     OW40158   1.990   6.792   3.980
79440SOL    HW140159   1.947   6.865   3.936
79440SOL    HW240160   1.918   6.741   4.018
79441SOL     OW40161  14.269   8.803  13.596
79441SOL    HW140162  14.175   8.798  13.576
79441SOL    HW240163  14.283   8.734  13.660
79442SOL     OW40164   6.459   0.682   2.307
79442SOL    HW140165   6.475   0.773   2.281
79442SOL    HW240166   6.495   0.630   2.236
79443SOL     OW40167  12.267  13.281   7.601
79443SOL    HW140168  12.176  13.304   7.583
79443SOL    HW240169  12.296  13.346   7.666
79444SOL     OW40170   6.790   6.216  13.884
79444SOL    HW140171   6.823   6.191  13.797
79444SOL    HW240172   6.695   6.209  13.876
79445SOL     OW40173   1.890   1.425   8.649
79445SOL    HW140174   1.891   1.416   8.554
79445SOL    HW240175   1.979   1.406   8.677
79446SOL     OW40176   5.625   1.863   9.801
79446SOL    HW140177   5.638   1.945   9.848
79446SOL    HW240178   5.678   1.799   9.847
79447SOL     OW40179   6.990   1.793   9.133
79447SOL    HW140180   7.041   1.852   9.077
79447SOL    HW240181   7.057   1.745   9.183
79448SOL     OW40182   1.076   5.827   5.490
79448SOL    HW140183   1.095   5.809   5.582
79448SOL    HW240184   1.010   5.896   5.492
79449SOL     OW40185   3.767  11.363  10.907
79449SOL    HW140186   3.804  11.411  10.981
79449SOL    HW240187   3.802  11.275  10.916
79450SOL     OW40188   1.015   8.284   1.247
79450SOL    HW140189   1.097   8.244   1.218
79450SOL    HW240190   1.033   8.313   1.336
79451SOL     OW40191   8.927  10.768  14.711
79451SOL    HW140192   8.966  10.700  14.766
79451SOL    HW240193   8.833  10.759  14.726
79452SOL     OW40194   8.187  11.795   0.191
79452SOL    HW140195   8.140  11.749   0.121
79452SOL    HW240196   8.211  11.879   0.153
79453SOL     OW40197   2.639  12.998  13.708
79453SOL    HW140198   2.547  13.001  13.735
79453SOL    HW240199   2.636  12.994  13.613
79454SOL     OW40200   0.418  10.174   4.831
79454SOL    HW140201   0.501  10.132   4.806
79454SOL    HW240202   0.363  10.166   4.752
79455SOL     OW40203  10.083  14.235   0.891
79455SOL    HW140204  10.082  14.140   0.903
79455SOL    HW240205  10.170  14.262   0.920
79456SOL     OW40206  14.638  11.188   5.309
79456SOL    HW140207  14.675  11.269   5.345
79456SOL    HW240208  14.560  11.217   5.261
79457SOL     OW40209  12.283   9.775  14.732
79457SOL    HW140210  12.378   9.785  14.727
79457SOL    HW240211  12.249   9.864  14.733
79458SOL     OW40212   6.682  13.093   4.874
79458SOL    HW140213   6.657  13.083   4.966
79458SOL    HW240214   6.600  13.109   4.828
79459SOL     OW40215  13.211  11.090   9.859
79459SOL    HW140216  13.246  11.040   9.785
79459SOL    HW240217  13.273  11.162   9.871
79460SOL     OW40218   9.530  14.254  14.025
79460SOL    HW140219   9.477  14.248  14.104
79460SOL    HW240220   9.595  14.184  14.033
79461SOL     OW40221   3.259  11.274   4.055
79461SOL    HW140222   3.186  11.288   3.995
79461SOL    HW240223   3.218  11.242   4.136
79462SOL     OW40224   6.879   2.795   8.847
79462SOL    HW140225   6.839   2.882   8.844
79462SOL    HW240226   6.924   2.786   8.763
79463SOL     OW40227   2.799   0.183   4.514
79463SOL    HW140228   2.707   0.157   4.504
79463SOL    HW240229   2.846   0.126   4.453
79464SOL     OW40230   7.491   4.926   6.237
79464SOL    HW140231   7.555   4.997   6.241
79464SOL    HW240232   7.497   4.884   6.323
79465SOL     OW40233   2.440  12.270  10.177
79465SOL    HW140234   2.352  12.232  10.171
79465SOL    HW240235   2.439  12.319  10.259
79466SOL     OW40236   6.833   0.771   4.827
79466SOL    HW140237   6.779   0.832   4.877
79466SOL    HW240238   6.787   0.687   4.832
79467SOL     OW40239   1.952   6.212   0.932
79467SOL    HW140240   1.870   6.222   0.882
79467SOL    HW240241   1.950   6.122   0.964
79468SOL     OW40242   8.994   7.148   0.768
79468SOL    HW140243   9.021   7.078   0.708
79468SOL    HW240244   9.074   7.172   0.815
79469SOL     OW40245   8.349  10.505  11.854
79469SOL    HW140246   8.352  10.591  11.812
79469SOL    HW240247   8.398  10.447  11.796
79470SOL     OW40248   6.532  13.190   2.984
79470SOL    HW140249   6.482  13.145   2.915
79470SOL    HW240250   6.473  13.260   3.014
79471SOL     OW40251   5.187   1.267   7.770
79471SOL    HW140252   5.140   1.301   7.847
79471SOL    HW240253   5.152   1.178   7.758
79472SOL     OW40254   1.510   3.585   5.199
79472SOL    HW140255   1.540   3.562   5.287
79472SOL    HW240256   1.538   3.676   5.187
79473SOL     OW40257   3.773  11.279   3.151
79473SOL    HW140258   3.727  11.353   3.113
79473SOL    HW240259   3.811  11.314   3.232
79474SOL     OW40260   6.967   3.826   0.413
79474SOL    HW140261   7.050   3.784   0.390
79474SOL    HW240262   6.900   3.764   0.385
79475SOL     OW40263   8.484  10.078  10.221
79475SOL    HW140264   8.557  10.104  10.166
79475SOL    HW240265   8.465  10.155  10.275
79476SOL     OW40266  10.892   1.242   4.141
79476SOL    HW140267  10.844   1.212   4.219
79476SOL    HW240268  10.835   1.309   4.103
79477SOL     OW40269  13.974   5.529   3.464
79477SOL    HW140270  13.959   5.500   3.374
79477SOL    HW240271  13.911   5.600   3.477
79478SOL     OW40272   3.922   3.516  12.466
79478SOL    HW140273   3.827   3.523  12.475
79478SOL    HW240274   3.956   3.598  12.501
79479SOL     OW40275   4.818   1.499   3.964
79479SOL    HW140276   4.887   1.444   3.925
79479SOL    HW240277   4.866   1.568   4.010
79480SOL     OW40278  14.456   8.662   2.723
79480SOL    HW140279  14.496   8.749   2.726
79480SOL    HW240280  14.478   8.622   2.807
79481SOL     OW40281   8.772  13.758   5.387
79481SOL    HW140282   8.730  13.823   5.330
79481SOL    HW240283   8.842  13.721   5.333
79482SOL     OW40284   0.580  10.731   5.721
79482SOL    HW140285   0.634  10.654   5.702
79482SOL    HW240286   0.524  10.741   5.644
79483SOL     OW40287   9.906  12.352   1.619
79483SOL    HW140288   9.876  12.266   1.648
79483SOL    HW240289   9.915  12.344   1.525
79484SOL     OW40290  10.880  13.912   5.569
79484SOL    HW140291  10.829  13.938   5.646
79484SOL    HW240292  10.958  13.869   5.606
79485SOL     OW40293  13.038   2.706   8.756
79485SOL    HW140294  13.033   2.726   8.663
79485SOL    HW240295  13.074   2.785   8.796
79486SOL     OW40296  12.129   7.019   8.638
79486SOL    HW140297  12.206   7.039   8.585
79486SOL    HW240298  12.158   6.951   8.699
79487SOL     OW40299   7.075  13.476   9.328
79487SOL    HW140300   7.082  13.394   9.279
79487SOL    HW240301   7.065  13.543   9.261
79488SOL     OW40302   4.113   4.923   5.318
79488SOL    HW140303   4.072   4.842   5.348
79488SOL    HW240304   4.087   4.932   5.226
79489SOL     OW40305  10.685   6.315   1.631
79489SOL    HW140306  10.747   6.342   1.698
79489SOL    HW240307  10.631   6.393   1.615
79490SOL     OW40308   8.733   8.295   5.471
79490SOL    HW140309   8.752   8.383   5.438
79490SOL    HW240310   8.711   8.308   5.563
79491SOL     OW40311   2.807   8.463   8.800
79491SOL    HW140312   2.840   8.512   8.875
79491SOL    HW240313   2.885   8.426   8.759
79492SOL     OW40314   5.239   6.992  12.011
79492SOL    HW140315   5.198   6.977  11.926
79492SOL    HW240316   5.331   6.972  11.997
79493SOL     OW40317  12.415   7.182  11.095
79493SOL    HW140318  12.421   7.277  11.104
79493SOL    HW240319  12.502   7.154  11.065
79494SOL     OW40320   5.910  10.919  14.798
79494SOL    HW140321   5.863  10.918   0.002
79494SOL    HW240322   5.976  10.850  14.807
79495SOL     OW40323   4.502   1.254  13.970
79495SOL    HW140324   4.534   1.259  13.881
79495SOL    HW240325   4.476   1.163  13.982
79496SOL     OW40326   5.188   3.237   5.465
79496SOL    HW140327   5.137   3.231   5.546
79496SOL    HW240328   5.194   3.147   5.433
79497SOL     OW40329  14.041  13.047   0.231
79497SOL    HW140330  14.081  12.986   0.293
79497SOL    HW240331  13.948  13.025   0.231
79498SOL     OW40332   8.169   0.656   3.255
79498SOL    HW140333   8.106   0.588   3.229
79498SOL    HW240334   8.213   0.679   3.173
79499SOL     OW40335  13.622  12.294   9.207
79499SOL    HW140336  13.689  12.272   9.142
79499SOL    HW240337  13.583  12.210   9.231
79500SOL     OW40338   4.249  13.769   0.873
79500SOL    HW140339   4.207  13.846   0.834
79500SOL    HW240340   4.185  13.699   0.862
79501SOL     OW40341   8.351   1.750  14.529
79501SOL    HW140342   8.265   1.736  14.490
79501SOL    HW240343   8.410   1.691  14.481
79502SOL     OW40344  11.117   8.713   4.237
79502SOL    HW140345  11.209   8.702   4.213
79502SOL    HW240346  11.096   8.637   4.291
79503SOL     OW40347   4.899  10.875   1.243
79503SOL    HW140348   4.860  10.825   1.171
79503SOL    HW240349   4.828  10.887   1.306
79504SOL     OW40350   1.347   7.613   0.161
79504SOL    HW140351   1.282   7.681   0.180
79504SOL    HW240352   1.431   7.656   0.177
79505SOL     OW40353  11.866  14.006   0.836
79505SOL    HW140354  11.936  13.941   0.839
79505SOL    HW240355  11.806  13.980   0.906
79506SOL     OW40356  10.937   1.343   7.368
79506SOL    HW140357  10.848   1.312   7.383
79506SOL    HW240358  10.928   1.437   7.353
79507SOL     OW40359   9.263   9.902   9.964
79507SOL    HW140360   9.331   9.918   9.899
79507SOL    HW240361   9.250   9.807   9.962
79508SOL     OW40362   7.394  10.861  10.136
79508SOL    HW140363   7.487  10.838  10.128
79508SOL    HW240364   7.348  10.792  10.088
79509SOL     OW40365  10.722  11.563  10.724
79509SOL    HW140366  10.763  11.570  10.811
79509SOL    HW240367  10.630  11.545  10.743
79510SOL     OW40368  10.653   9.168   8.992
79510SOL    HW140369  10.691   9.191   8.908
79510SOL    HW240370  10.560   9.190   8.982
79511SOL     OW40371   7.793   7.131  14.647
79511SOL    HW140372   7.880   7.089  14.643
79511SOL    HW240373   7.783   7.158  14.738
79512SOL     OW40374   7.032  13.799   6.840
79512SOL    HW140375   7.027  13.870   6.904
79512SOL    HW240376   6.971  13.733   6.874
79513SOL     OW40377   8.258   5.659   6.011
79513SOL    HW140378   8.351   5.645   6.024
79513SOL    HW240379   8.246   5.657   5.916
79514SOL     OW40380  13.025   3.687   4.416
79514SOL    HW140381  13.004   3.633   4.492
79514SOL    HW240382  12.995   3.775   4.439
79515SOL     OW40383  10.435  12.884  13.913
79515SOL    HW140384  10.394  12.810  13.958
79515SOL    HW240385  10.460  12.944  13.983
79516SOL     OW40386   3.837   0.429   0.128
79516SOL    HW140387   3.896   0.472   0.191
79516SOL    HW240388   3.800   0.501   0.077
79517SOL     OW40389   0.899   8.669   6.172
79517SOL    HW140390   0.946   8.588   6.152
79517SOL    HW240391   0.959   8.719   6.227
79518SOL     OW40392   3.409   3.210  11.687
79518SOL    HW140393   3.378   3.275  11.750
79518SOL    HW240394   3.330   3.177  11.646
79519SOL     OW40395  12.689   0.858  10.988
79519SOL    HW140396  12.759   0.796  10.971
79519SOL    HW240397  12.711   0.934  10.934
79520SOL     OW40398   7.785   0.737   7.685
79520SOL    HW140399   7.830   0.655   7.705
79520SOL    HW240400   7.784   0.742   7.590
79521SOL     OW40401  10.043   6.518   7.684
79521SOL    HW140402  10.014   6.443   7.633
79521SOL    HW240403   9.975   6.531   7.750
79522SOL     OW40404   2.924   3.805  11.960
79522SOL    HW140405   2.928   3.770  11.871
79522SOL    HW240406   3.016   3.819  11.983
79523SOL     OW40407  13.320   7.891   4.817
79523SOL    HW140408  13.359   7.804   4.830
79523SOL    HW240409  13.348   7.917   4.729
79524SOL     OW40410  12.057   8.794   0.600
79524SOL    HW140411  11.968   8.826   0.586
79524SOL    HW240412  12.050   8.699   0.594
79525SOL     OW40413  11.652   2.388   8.224
79525SOL    HW140414  11.693   2.450   8.164
79525SOL    HW240415  11.567   2.368   8.184
79526SOL     OW40416   5.092   2.024  14.169
79526SOL    HW140417   5.169   2.033  14.225
79526SOL    HW240418   5.112   1.951  14.111
79527SOL     OW40419   5.458  12.714  13.111
79527SOL    HW140420   5.401  12.643  13.081
79527SOL    HW240421   5.518  12.729  13.038
79528SOL     OW40422   9.001  11.294   7.875
79528SOL    HW140423   9.092  11.317   7.856
79528SOL    HW240424   8.950  11.348   7.814
79529SOL     OW40425   1.305   0.896  12.093
79529SOL    HW140426   1.230   0.883  12.150
79529SOL    HW240427   1.345   0.977  12.126
79530SOL     OW40428   8.932   5.617  11.153
79530SOL    HW140429   9.012   5.669  11.155
79530SOL    HW240430   8.878   5.654  11.222
79531SOL     OW40431   8.305  11.752   0.955
79531SOL    HW140432   8.381  11.706   0.991
79531SOL    HW240433   8.238  11.683   0.946
79532SOL     OW40434   4.964   0.034   4.936
79532SOL    HW140435   5.043  14.861   4.953
79532SOL    HW240436   4.940   0.069   5.022
79533SOL     OW40437  12.476   8.825  13.684
79533SOL    HW140438  12.542   8.875  13.636
79533SOL    HW240439  12.517   8.807  13.768
79534SOL     OW40440   0.940  12.854  12.237
79534SOL    HW140441   0.860  12.882  12.193
79534SOL    HW240442   0.938  12.759  12.233
79535SOL     OW40443   5.310   9.149   3.357
79535SOL    HW140444   5.361   9.229   3.343
79535SOL    HW240445   5.233   9.160   3.300
79536SOL     OW40446   7.470   8.854  11.217
79536SOL    HW140447   7.444   8.764  11.239
79536SOL    HW240448   7.407   8.882  11.152
79537SOL     OW40449   8.347  14.613   3.592
79537SOL    HW140450   8.378  14.688   3.541
79537SOL    HW240451   8.426  14.562   3.609
79538SOL     OW40452   0.810   4.000   8.749
79538SOL    HW140453   0.755   4.074   8.772
79538SOL    HW240454   0.900   4.032   8.758
79539SOL     OW40455  10.242   2.362   1.691
79539SOL    HW140456  10.254   2.451   1.659
79539SOL    HW240457  10.198   2.316   1.620
79540SOL     OW40458   5.357   8.340   0.150
79540SOL    HW140459   5.386   8.410   0.092
79540SOL    HW240460   5.429   8.327   0.211
79541SOL     OW40461  13.210   3.093  12.204
79541SOL    HW140462  13.306   3.094  12.207
79541SOL    HW240463  13.189   3.024  12.141
79542SOL     OW40464   2.752   6.697   9.108
79542SOL    HW140465   2.806   6.705   9.030
79542SOL    HW240466   2.770   6.777   9.158
79543SOL     OW40467  12.225   4.936   3.968
79543SOL    HW140468  12.237   4.859   4.024
79543SOL    HW240469  12.309   4.983   3.974
79544SOL     OW40470  10.611  12.922   0.333
79544SOL    HW140471  10.572  12.969   0.407
79544SOL    HW240472  10.634  12.836   0.369
79545SOL     OW40473   4.960   3.575  13.512
79545SOL    HW140474   5.037   3.528  13.479
79545SOL    HW240475   4.912   3.509  13.562
79546SOL     OW40476   1.608   7.129   2.045
79546SOL    HW140477   1.615   7.224   2.054
79546SOL    HW240478   1.664   7.095   2.115
79547SOL     OW40479   4.443   8.075   0.278
79547SOL    HW140480   4.367   8.121   0.313
79547SOL    HW240481   4.438   7.987   0.314
79548SOL     OW40482  11.444   9.424   0.926
79548SOL    HW140483  11.479   9.465   0.847
79548SOL    HW240484  11.354   9.458   0.932
79549SOL     OW40485   8.774   6.569   3.736
79549SOL    HW140486   8.820   6.623   3.800
79549SOL    HW240487   8.681   6.590   3.750
79550SOL     OW40488   9.751   2.409  11.042
79550SOL    HW140489   9.836   2.379  11.073
79550SOL    HW240490   9.770   2.491  10.997
79551SOL     OW40491   2.602   6.540   8.921
79551SOL    HW140492   2.617   6.623   8.965
79551SOL    HW240493   2.674   6.484   8.950
79552SOL     OW40494   7.976   8.465  13.919
79552SOL    HW140495   7.914   8.499  13.983
79552SOL    HW240496   7.932   8.476  13.834
79553SOL     OW40497   8.016   7.587   4.084
79553SOL    HW140498   8.076   7.628   4.147
79553SOL    HW240499   7.954   7.657   4.062
79554SOL     OW40500   3.298   0.270  13.242
79554SOL    HW140501   3.367   0.329  13.213
79554SOL    HW240502   3.289   0.207  13.170
79555SOL     OW40503   5.128   8.470   0.501
79555SOL    HW140504   5.152   8.515   0.582
79555SOL    HW240505   5.049   8.515   0.471
79556SOL     OW40506   1.597   3.877  10.908
79556SOL    HW140507   1.640   3.816  10.848
79556SOL    HW240508   1.601   3.961  10.863
79557SOL     OW40509  12.181  14.630   9.468
79557SOL    HW140510  12.160  14.699   9.405
79557SOL    HW240511  12.235  14.568   9.418
79558SOL     OW40512  10.043   9.392  13.692
79558SOL    HW140513  10.114   9.342  13.730
79558SOL    HW240514  10.080   9.479  13.676
79559SOL     OW40515   4.083   6.627  10.050
79559SOL    HW140516   4.006   6.586  10.089
79559SOL    HW240517   4.141   6.554  10.030
79560SOL     OW40518   3.451  13.091  11.109
79560SOL    HW140519   3.492  13.115  11.192
79560SOL    HW240520   3.524  13.086  11.047
79561SOL     OW40521  14.149   4.080   6.650
79561SOL    HW140522  14.190   3.998   6.677
79561SOL    HW240523  14.186   4.146   6.709
79562SOL     OW40524   6.550   3.677   7.634
79562SOL    HW140525   6.634   3.657   7.593
79562SOL    HW240526   6.488   3.616   7.594
79563SOL     OW40527   6.175  12.048  14.024
79563SOL    HW140528   6.233  11.973  14.006
79563SOL    HW240529   6.232  12.125  14.015
79564SOL     OW40530   7.537   3.959   3.976
79564SOL    HW140531   7.565   3.969   4.067
79564SOL    HW240532   7.496   4.042   3.954
79565SOL     OW40533   7.227   9.585  10.183
79565SOL    HW140534   7.313   9.547  10.200
79565SOL    HW240535   7.179   9.576  10.266
79566SOL     OW40536   2.363   2.322   6.095
79566SOL    HW140537   2.443   2.275   6.070
79566SOL    HW240538   2.297   2.253   6.104
79567SOL     OW40539   2.056   8.847   2.905
79567SOL    HW140540   2.034   8.826   2.996
79567SOL    HW240541   1.987   8.908   2.877
79568SOL     OW40542   2.050   4.811   2.715
79568SOL    HW140543   2.110   4.885   2.722
79568SOL    HW240544   2.049   4.789   2.622
79569SOL     OW40545  10.946   9.197   2.882
79569SOL    HW140546  10.928   9.261   2.950
79569SOL    HW240547  10.860   9.174   2.846
79570SOL     OW40548   5.797   8.953   1.550
79570SOL    HW140549   5.722   8.978   1.604
79570SOL    HW240550   5.857   9.028   1.556
79571SOL     OW40551   9.321   2.962   9.353
79571SOL    HW140552   9.330   3.013   9.272
79571SOL    HW240553   9.278   3.023   9.414
79572SOL     OW40554   5.777   2.188   9.146
79572SOL    HW140555   5.826   2.270   9.149
79572SOL    HW240556   5.713   2.195   9.216
79573SOL     OW40557   4.484   6.612   1.324
79573SOL    HW140558   4.427   6.674   1.279
79573SOL    HW240559   4.435   6.529   1.323
79574SOL     OW40560   1.178   5.726   2.486
79574SOL    HW140561   1.268   5.700   2.462
79574SOL    HW240562   1.175   5.820   2.468
79575SOL     OW40563  11.488   2.070   4.051
79575SOL    HW140564  11.563   2.124   4.075
79575SOL    HW240565  11.421   2.093   4.114
79576SOL     OW40566  14.247  13.708   9.969
79576SOL    HW140567  14.228  13.645  10.038
79576SOL    HW240568  14.190  13.683   9.897
79577SOL     OW40569  10.155   2.304   5.772
79577SOL    HW140570  10.200   2.225   5.745
79577SOL    HW240571  10.225   2.367   5.790
79578SOL     OW40572  12.553   2.178   2.329
79578SOL    HW140573  12.606   2.188   2.408
79578SOL    HW240574  12.462   2.180   2.361
79579SOL     OW40575   3.897   6.856   2.120
79579SOL    HW140576   3.880   6.923   2.054
79579SOL    HW240577   3.850   6.778   2.088
79580SOL     OW40578   0.138   5.522   0.931
79580SOL    HW140579   0.128   5.447   0.873
79580SOL    HW240580   0.101   5.595   0.882
79581SOL     OW40581   5.232  14.537   4.557
79581SOL    HW140582   5.250  14.475   4.486
79581SOL    HW240583   5.287  14.507   4.629
79582SOL     OW40584   0.142   6.376   2.468
79582SOL    HW140585   0.133   6.463   2.505
79582SOL    HW240586   0.165   6.391   2.377
79583SOL     OW40587   1.926   4.190  13.234
79583SOL    HW140588   1.909   4.193  13.329
79583SOL    HW240589   1.988   4.261  13.219
79584SOL     OW40590   1.214   9.100  13.662
79584SOL    HW140591   1.159   9.161  13.710
79584SOL    HW240592   1.260   9.154  13.597
79585SOL     OW40593   5.834   9.311  10.897
79585SOL    HW140594   5.805   9.311  10.806
79585SOL    HW240595   5.829   9.219  10.924
79586SOL     OW40596   6.019   1.271   4.833
79586SOL    HW140597   5.927   1.244   4.842
79586SOL    HW240598   6.054   1.269   4.922
79587SOL     OW40599   9.410  11.049   6.635
79587SOL    HW140600   9.370  10.983   6.578
79587SOL    HW240601   9.381  11.025   6.723
79588SOL     OW40602   7.580   4.252  14.647
79588SOL    HW140603   7.528   4.216  14.575
79588SOL    HW240604   7.519   4.307  14.696
79589SOL     OW40605  10.560  11.992   4.736
79589SOL    HW140606  10.479  11.995   4.787
79589SOL    HW240607  10.532  11.972   4.647
79590SOL     OW40608   4.604   5.809  13.445
79590SOL    HW140609   4.614   5.904  13.436
79590SOL    HW240610   4.667   5.772  13.384
79591SOL     OW40611   3.836   8.068  11.185
79591SOL    HW140612   3.889   8.121  11.246
79591SOL    HW240613   3.844   7.979  11.218
79592SOL     OW40614   2.811  11.663   9.352
79592SOL    HW140615   2.871  11.648   9.279
79592SOL    HW240616   2.849  11.736   9.400
79593SOL     OW40617  13.812   1.161   6.471
79593SOL    HW140618  13.728   1.119   6.452
79593SOL    HW240619  13.876   1.089   6.468
79594SOL     OW40620  10.158   4.120   0.076
79594SOL    HW140621  10.140   4.084   0.163
79594SOL    HW240622  10.077   4.167   0.052
79595SOL     OW40623   0.634   6.885   3.373
79595SOL    HW140624   0.594   6.967   3.402
79595SOL    HW240625   0.695   6.910   3.304
79596SOL     OW40626   6.597   0.687   9.385
79596SOL    HW140627   6.528   0.631   9.419
79596SOL    HW240628   6.620   0.648   9.301
79597SOL     OW40629  10.901   0.470   9.317
79597SOL    HW140630  10.890   0.565   9.322
79597SOL    HW240631  10.818   0.434   9.350
79598SOL     OW40632   1.354   7.212  13.916
79598SOL    HW140633   1.443   7.190  13.888
79598SOL    HW240634   1.365   7.246  14.005
79599SOL     OW40635   9.488   1.702   6.253
79599SOL    HW140636   9.539   1.751   6.188
79599SOL    HW240637   9.404   1.687   6.210
79600SOL     OW40638  14.787   3.597  14.393
79600SOL    HW140639  14.822   3.650  14.464
79600SOL    HW240640  14.805   3.507  14.419
79601SOL     OW40641   4.577   8.519   6.691
79601SOL    HW140642   4.569   8.431   6.729
79601SOL    HW240643   4.672   8.535   6.690
79602SOL     OW40644   0.927   9.498  13.636
79602SOL    HW140645   0.951   9.435  13.704
79602SOL    HW240646   1.009   9.516  13.590
79603SOL     OW40647   8.705  10.249   3.005
79603SOL    HW140648   8.697  10.154   3.019
79603SOL    HW240649   8.648  10.267   2.930
79604SOL     OW40650   3.896   2.729   8.826
79604SOL    HW140651   3.898   2.784   8.904
79604SOL    HW240652   3.987   2.700   8.815
79605SOL     OW40653  10.778   2.419  10.886
79605SOL    HW140654  10.753   2.506  10.855
79605SOL    HW240655  10.825   2.435  10.968
79606SOL     OW40656   4.473  13.392   9.810
79606SOL    HW140657   4.487  13.331   9.738
79606SOL    HW240658   4.389  13.365   9.848
79607SOL     OW40659   7.678   4.188   6.210
79607SOL    HW140660   7.632   4.235   6.280
79607SOL    HW240661   7.747   4.248   6.183
79608SOL     OW40662  11.418   2.498  13.960
79608SOL    HW140663  11.388   2.588  13.973
79608SOL    HW240664  11.381   2.449  14.034
79609SOL     OW40665   6.311  10.240   3.515
79609SOL    HW140666   6.305  10.158   3.465
79609SOL    HW240667   6.371  10.295   3.464
79610SOL     OW40668  13.841  12.039   4.342
79610SOL    HW140669  13.759  12.057   4.388
79610SOL    HW240670  13.815  12.027   4.251
79611SOL     OW40671   1.261   2.951  12.436
79611SOL    HW140672   1.347   2.976  12.403
79611SOL    HW240673   1.228   2.887  12.373
79612SOL     OW40674   3.791   8.170   2.766
79612SOL    HW140675   3.751   8.185   2.681
79612SOL    HW240676   3.877   8.133   2.746
79613SOL     OW40677   2.432  14.764  11.533
79613SOL    HW140678   2.376  14.810  11.596
79613SOL    HW240679   2.418  14.671  11.552
79614SOL     OW40680   7.499  11.028   0.317
79614SOL    HW140681   7.423  11.003   0.266
79614SOL    HW240682   7.534  10.945   0.351
79615SOL     OW40683   6.843   0.891   8.143
79615SOL    HW140684   6.897   0.958   8.185
79615SOL    HW240685   6.820   0.830   8.213
79616SOL     OW40686   7.224   5.040   6.793
79616SOL    HW140687   7.238   5.031   6.698
79616SOL    HW240688   7.188   4.955   6.819
79617SOL     OW40689  10.018   3.497  14.648
79617SOL    HW140690   9.966   3.565  14.691
79617SOL    HW240691  10.093   3.484  14.706
79618SOL     OW40692   8.322  10.674   8.895
79618SOL    HW140693   8.308  10.643   8.806
79618SOL    HW240694   8.325  10.770   8.887
79619SOL     OW40695   9.434  14.765   3.926
79619SOL    HW140696   9.474  14.844   3.962
79619SOL    HW240697   9.475  14.754   3.840
79620SOL     OW40698   6.951   8.430  14.798
79620SOL    HW140699   6.872   8.403  14.751
79620SOL    HW240700   6.934   8.408   0.010
79621SOL     OW40701   0.919   0.905   6.301
79621SOL    HW140702   0.952   0.819   6.274
79621SOL    HW240703   0.963   0.967   6.242
79622SOL     OW40704   3.479   3.837   8.815
79622SOL    HW140705   3.465   3.747   8.844
79622SOL    HW240706   3.507   3.884   8.894
79623SOL     OW40707   0.482   9.583  12.069
79623SOL    HW140708   0.547   9.627  12.015
79623SOL    HW240709   0.423   9.541  12.006
79624SOL     OW40710   9.076   4.554   2.450
79624SOL    HW140711   9.152   4.508   2.487
79624SOL    HW240712   9.014   4.560   2.523
79625SOL     OW40713   0.748  14.433   0.790
79625SOL    HW140714   0.671  14.415   0.844
79625SOL    HW240715   0.822  14.410   0.845
79626SOL     OW40716   7.367   0.939   5.652
79626SOL    HW140717   7.288   0.922   5.601
79626SOL    HW240718   7.434   0.957   5.587
79627SOL     OW40719  14.331  10.900   9.494
79627SOL    HW140720  14.378  10.954   9.558
79627SOL    HW240721  14.360  10.810   9.512
79628SOL     OW40722   4.213  12.495   1.336
79628SOL    HW140723   4.178  12.476   1.423
79628SOL    HW240724   4.146  12.464   1.275
79629SOL     OW40725   2.115   8.432   0.807
79629SOL    HW140726   2.087   8.502   0.866
79629SOL    HW240727   2.160   8.478   0.736
79630SOL     OW40728   2.972   6.913   1.146
79630SOL    HW140729   2.882   6.943   1.161
79630SOL    HW240730   3.012   6.914   1.233
79631SOL     OW40731   9.367   5.424   2.865
79631SOL    HW140732   9.324   5.338   2.867
79631SOL    HW240733   9.304   5.483   2.906
79632SOL     OW40734  14.394   7.280   5.436
79632SOL    HW140735  14.399   7.286   5.340
79632SOL    HW240736  14.315   7.230   5.453
79633SOL     OW40737   0.300  10.071   0.318
79633SOL    HW140738   0.248   9.991   0.322
79633SOL    HW240739   0.288  10.112   0.404
79634SOL     OW40740   0.408  12.420  12.120
79634SOL    HW140741   0.480  12.370  12.160
79634SOL    HW240742   0.357  12.354  12.073
79635SOL     OW40743   2.176   6.341   1.480
79635SOL    HW140744   2.259   6.354   1.526
79635SOL    HW240745   2.111   6.338   1.550
79636SOL     OW40746   0.845  14.870   7.605
79636SOL    HW140747   0.772  14.818   7.573
79636SOL    HW240748   0.920  14.810   7.604
79637SOL     OW40749   7.928   4.583   4.410
79637SOL    HW140750   8.003   4.633   4.379
79637SOL    HW240751   7.856   4.646   4.410
79638SOL     OW40752   5.497   1.647   0.603
79638SOL    HW140753   5.453   1.595   0.536
79638SOL    HW240754   5.566   1.693   0.556
79639SOL     OW40755   5.595  11.250  12.565
79639SOL    HW140756   5.652  11.325  12.550
79639SOL    HW240757   5.545  11.273  12.643
79640SOL     OW40758   3.772  10.185   8.886
79640SOL    HW140759   3.867  10.171   8.880
79640SOL    HW240760   3.751  10.236   8.808
79641SOL     OW40761  14.156   4.508  13.519
79641SOL    HW140762  14.088   4.484  13.582
79641SOL    HW240763  14.132   4.462  13.439
79642SOL     OW40764   1.674   0.033   5.971
79642SOL    HW140765   1.763   0.055   5.943
79642SOL    HW240766   1.637  14.865   5.896
79643SOL     OW40767   4.050   1.713   1.312
79643SOL    HW140768   4.050   1.760   1.395
79643SOL    HW240769   4.005   1.771   1.251
79644SOL     OW40770   8.403   4.568   0.211
79644SOL    HW140771   8.340   4.636   0.235
79644SOL    HW240772   8.415   4.517   0.291
79645SOL     OW40773  10.530  13.626   2.310
79645SOL    HW140774  10.529  13.575   2.391
79645SOL    HW240775  10.470  13.699   2.328
79646SOL     OW40776   6.559   5.895   0.478
79646SOL    HW140777   6.592   5.835   0.411
79646SOL    HW240778   6.603   5.978   0.460
79647SOL     OW40779   4.494   3.051   6.465
79647SOL    HW140780   4.504   3.007   6.381
79647SOL    HW240781   4.421   3.112   6.451
79648SOL     OW40782   5.911  10.779   8.932
79648SOL    HW140783   5.874  10.852   8.882
79648SOL    HW240784   5.954  10.725   8.866
79649SOL     OW40785  10.037  12.075   8.685
79649SOL    HW140786   9.964  12.043   8.632
79649SOL    HW240787  10.109  12.015   8.666
79650SOL     OW40788  12.651   9.429   3.319
79650SOL    HW140789  12.608   9.350   3.352
79650SOL    HW240790  12.744   9.405   3.312
79651SOL     OW40791   6.516  14.112  14.351
79651SOL    HW140792   6.500  14.205  14.332
79651SOL    HW240793   6.522  14.071  14.264
79652SOL     OW40794   0.312   8.200   1.796
79652SOL    HW140795   0.405   8.192   1.776
79652SOL    HW240796   0.309   8.259   1.872
79653SOL     OW40797  11.363   9.947   6.227
79653SOL    HW140798  11.446   9.901   6.216
79653SOL    HW240799  11.386  10.040   6.221
79654SOL     OW40800   8.149   1.719  10.578
79654SOL    HW140801   8.082   1.682  10.635
79654SOL    HW240802   8.116   1.707  10.490
79655SOL     OW40803  14.607   6.943   1.125
79655SOL    HW140804  14.605   6.848   1.121
79655SOL    HW240805  14.585   6.964   1.216
79656SOL     OW40806   3.940  12.632   3.637
79656SOL    HW140807   3.943  12.549   3.590
79656SOL    HW240808   4.020  12.633   3.689
79657SOL     OW40809   3.438   5.204   3.388
79657SOL    HW140810   3.354   5.157   3.386
79657SOL    HW240811   3.434   5.255   3.469
79658SOL     OW40812   8.159   1.262   0.801
79658SOL    HW140813   8.199   1.249   0.887
79658SOL    HW240814   8.067   1.280   0.820
79659SOL     OW40815   0.180   8.666   3.550
79659SOL    HW140816   0.260   8.628   3.512
79659SOL    HW240817   0.110   8.634   3.493
79660SOL     OW40818  10.098  10.370   3.428
79660SOL    HW140819  10.140  10.307   3.370
79660SOL    HW240820  10.044  10.317   3.487
79661SOL     OW40821   0.598   0.073   7.239
79661SOL    HW140822   0.577   0.004   7.175
79661SOL    HW240823   0.693   0.074   7.243
79662SOL     OW40824   5.542  13.602   9.826
79662SOL    HW140825   5.488  13.681   9.832
79662SOL    HW240826   5.537  13.576   9.734
79663SOL     OW40827   2.273   3.500   6.588
79663SOL    HW140828   2.178   3.504   6.590
79663SOL    HW240829   2.293   3.418   6.542
79664SOL     OW40830   2.397   6.597  14.552
79664SOL    HW140831   2.315   6.550  14.537
79664SOL    HW240832   2.436   6.554  14.628
79665SOL     OW40833   5.155   3.955   6.540
79665SOL    HW140834   5.231   3.986   6.590
79665SOL    HW240835   5.177   3.974   6.449
79666SOL     OW40836   3.182   2.732   4.073
79666SOL    HW140837   3.210   2.752   4.163
79666SOL    HW240838   3.132   2.651   4.082
79667SOL     OW40839  12.383   4.195  11.666
79667SOL    HW140840  12.474   4.174  11.686
79667SOL    HW240841  12.369   4.164  11.577
79668SOL     OW40842  13.312   7.519   9.922
79668SOL    HW140843  13.270   7.514   9.837
79668SOL    HW240844  13.302   7.610   9.949
79669SOL     OW40845   5.191  10.805  10.483
79669SOL    HW140846   5.118  10.756  10.520
79669SOL    HW240847   5.258  10.738  10.464
79670SOL     OW40848   1.176  13.430   4.752
79670SOL    HW140849   1.252  13.421   4.809
79670SOL    HW240850   1.196  13.505   4.696
79671SOL     OW40851  11.556   6.280   8.475
79671SOL    HW140852  11.531   6.228   8.399
79671SOL    HW240853  11.642   6.247   8.499
79672SOL     OW40854   8.850  13.100  11.235
79672SOL    HW140855   8.853  13.190  11.266
79672SOL    HW240856   8.758  13.077  11.234
79673SOL     OW40857   8.267   3.959   0.970
79673SOL    HW140858   8.199   3.984   1.031
79673SOL    HW240859   8.220   3.925   0.894
79674SOL     OW40860   2.297   2.749   0.889
79674SOL    HW140861   2.227   2.814   0.894
79674SOL    HW240862   2.261   2.671   0.931
79675SOL     OW40863   2.330   4.450  12.225
79675SOL    HW140864   2.375   4.524  12.183
79675SOL    HW240865   2.320   4.385  12.156
79676SOL     OW40866  11.593  13.763  10.853
79676SOL    HW140867  11.606  13.857  10.869
79676SOL    HW240868  11.658  13.720  10.909
79677SOL     OW40869   2.836   8.643   9.800
79677SOL    HW140870   2.829   8.626   9.706
79677SOL    HW240871   2.877   8.729   9.806
79678SOL     OW40872   2.917  14.680  14.556
79678SOL    HW140873   2.944  14.733  14.631
79678SOL    HW240874   2.885  14.599  14.595
79679SOL     OW40875   8.108   4.454  10.837
79679SOL    HW140876   8.042   4.494  10.779
79679SOL    HW240877   8.158   4.528  10.871
79680SOL     OW40878  10.915   0.887  10.192
79680SOL    HW140879  10.988   0.943  10.166
79680SOL    HW240880  10.843   0.947  10.208
79681SOL     OW40881   1.320  11.036   0.742
79681SOL    HW140882   1.327  11.076   0.655
79681SOL    HW240883   1.336  11.107   0.803
79682SOL     OW40884   9.416  11.912  14.562
79682SOL    HW140885   9.335  11.964  14.566
79682SOL    HW240886   9.386  11.823  14.543
79683SOL     OW40887  13.930   6.642   8.027
79683SOL    HW140888  13.865   6.582   8.063
79683SOL    HW240889  13.982   6.668   8.103
79684SOL     OW40890   1.153   4.495   7.582
79684SOL    HW140891   1.074   4.474   7.633
79684SOL    HW240892   1.215   4.426   7.604
79685SOL     OW40893   5.722  12.774   0.153
79685SOL    HW140894   5.748  12.778   0.245
79685SOL    HW240895   5.644  12.719   0.152
79686SOL     OW40896   3.178   1.266  11.725
79686SOL    HW140897   3.197   1.300  11.637
79686SOL    HW240898   3.134   1.182  11.710
79687SOL     OW40899   0.414   9.385   2.318
79687SOL    HW140900   0.376   9.442   2.251
79687SOL    HW240901   0.406   9.434   2.399
79688SOL     OW40902   5.877  11.482  13.054
79688SOL    HW140903   5.808  11.425  13.089
79688SOL    HW240904   5.887  11.455  12.963
79689SOL     OW40905  11.300   5.950  10.056
79689SOL    HW140906  11.285   6.038  10.091
79689SOL    HW240907  11.316   5.963   9.963
79690SOL     OW40908   9.320   0.459   6.996
79690SOL    HW140909   9.276   0.543   6.987
79690SOL    HW240910   9.310   0.437   7.089
79691SOL     OW40911   0.732  12.087   8.781
79691SOL    HW140912   0.732  12.012   8.723
79691SOL    HW240913   0.642  12.094   8.812
79692SOL     OW40914  14.228   5.867   6.348
79692SOL    HW140915  14.250   5.818   6.427
79692SOL    HW240916  14.312   5.888   6.308
79693SOL     OW40917   3.872  11.682   3.599
79693SOL    HW140918   3.900  11.599   3.636
79693SOL    HW240919   3.902  11.748   3.661
79694SOL     OW40920   2.010  14.039   3.738
79694SOL    HW140921   2.105  14.032   3.754
79694SOL    HW240922   2.000  14.123   3.693
79695SOL     OW40923   7.349   9.444   3.592
79695SOL    HW140924   7.268   9.428   3.543
79695SOL    HW240925   7.418   9.410   3.535
79696SOL     OW40926   7.700   0.850  11.282
79696SOL    HW140927   7.775   0.901  11.252
79696SOL    HW240928   7.714   0.763  11.246
79697SOL     OW40929  12.842   2.670  13.594
79697SOL    HW140930  12.831   2.576  13.583
79697SOL    HW240931  12.936   2.682  13.607
79698SOL     OW40932   2.919   3.057   7.098
79698SOL    HW140933   2.886   2.993   7.036
79698SOL    HW240934   2.860   3.132   7.090
79699SOL     OW40935  11.988   0.014   7.730
79699SOL    HW140936  11.977   0.093   7.678
79699SOL    HW240937  11.923  14.832   7.695
79700SOL     OW40938   9.260   0.820   5.180
79700SOL    HW140939   9.262   0.727   5.205
79700SOL    HW240940   9.177   0.852   5.214
79701SOL     OW40941   3.321  10.945  14.393
79701SOL    HW140942   3.363  10.864  14.421
79701SOL    HW240943   3.355  10.962  14.306
79702SOL     OW40944   5.566   8.319   7.308
79702SOL    HW140945   5.549   8.400   7.355
79702SOL    HW240946   5.642   8.281   7.353
79703SOL     OW40947   6.822   2.798   7.823
79703SOL    HW140948   6.736   2.781   7.784
79703SOL    HW240949   6.884   2.781   7.752
79704SOL     OW40950   8.320   2.441   0.422
79704SOL    HW140951   8.330   2.419   0.515
79704SOL    HW240952   8.323   2.536   0.420
79705SOL     OW40953   8.890  10.039   3.269
79705SOL    HW140954   8.811  10.092   3.269
79705SOL    HW240955   8.868   9.963   3.216
79706SOL     OW40956   1.327   6.552   2.194
79706SOL    HW140957   1.399   6.581   2.251
79706SOL    HW240958   1.263   6.623   2.198
79707SOL     OW40959  12.270   3.271   3.531
79707SOL    HW140960  12.360   3.257   3.504
79707SOL    HW240961  12.256   3.209   3.602
79708SOL     OW40962   2.213   6.645  10.164
79708SOL    HW140963   2.260   6.571  10.201
79708SOL    HW240964   2.272   6.681  10.098
79709SOL     OW40965   0.113   2.724   2.249
79709SOL    HW140966   0.060   2.671   2.309
79709SOL    HW240967   0.097   2.814   2.277
79710SOL     OW40968   8.360   4.633   1.620
79710SOL    HW140969   8.299   4.700   1.589
79710SOL    HW240970   8.422   4.681   1.674
79711SOL     OW40971   9.513   0.590  10.198
79711SOL    HW140972   9.515   0.543  10.115
79711SOL    HW240973   9.422   0.617  10.209
79712SOL     OW40974  12.163  13.731   6.807
79712SOL    HW140975  12.080  13.776   6.790
79712SOL    HW240976  12.192  13.701   6.720
79713SOL     OW40977  12.401  11.972   4.144
79713SOL    HW140978  12.475  11.974   4.205
79713SOL    HW240979  12.442  11.977   4.058
79714SOL     OW40980   3.654   7.875   7.253
79714SOL    HW140981   3.711   7.801   7.232
79714SOL    HW240982   3.655   7.879   7.349
79715SOL     OW40983  11.070   5.218   1.253
79715SOL    HW140984  11.050   5.296   1.305
79715SOL    HW240985  11.092   5.151   1.318
79716SOL     OW40986   0.531   3.295   5.429
79716SOL    HW140987   0.467   3.306   5.359
79716SOL    HW240988   0.518   3.206   5.461
79717SOL     OW40989   5.796   0.054   7.156
79717SOL    HW140990   5.779   0.064   7.250
79717SOL    HW240991   5.888   0.028   7.150
79718SOL     OW40992  12.516   1.158  13.012
79718SOL    HW140993  12.549   1.140  12.924
79718SOL    HW240994  12.457   1.232  13.001
79719SOL     OW40995  12.623   2.727   5.532
79719SOL    HW140996  12.606   2.687   5.617
79719SOL    HW240997  12.686   2.796   5.550
79720SOL     OW40998   9.636   2.133   7.137
79720SOL    HW140999   9.636   2.039   7.158
79720SOL    HW241000   9.728   2.158   7.141
79721SOL     OW41001  10.166   4.984   3.388
79721SOL    HW141002  10.227   4.911   3.379
79721SOL    HW241003  10.088   4.945   3.428
79722SOL     OW41004  13.345   9.874   2.342
79722SOL    HW141005  13.386   9.808   2.287
79722SOL    HW241006  13.288   9.824   2.401
79723SOL     OW41007   2.274  12.512   3.450
79723SOL    HW141008   2.198  12.564   3.475
79723SOL    HW241009   2.283  12.526   3.355
79724SOL     OW41010   4.124  14.099   4.110
79724SOL    HW141011   4.122  14.134   4.021
79724SOL    HW241012   4.040  14.055   4.120
79725SOL     OW41013   6.481   0.135  10.927
79725SOL    HW141014   6.517   0.076  10.860
79725SOL    HW241015   6.388   0.115  10.928
79726SOL     OW41016   0.152   5.597   5.204
79726SOL    HW141017   0.181   5.689   5.203
79726SOL    HW241018   0.233   5.546   5.205
79727SOL     OW41019  10.579  14.447  10.338
79727SOL    HW141020  10.632  14.368  10.338
79727SOL    HW241021  10.489  14.416  10.348
79728SOL     OW41022   5.574   2.335   8.984
79728SOL    HW141023   5.647   2.360   8.928
79728SOL    HW241024   5.569   2.240   8.978
79729SOL     OW41025  11.109  12.863   5.990
79729SOL    HW141026  11.017  12.850   6.011
79729SOL    HW241027  11.152  12.873   6.075
79730SOL     OW41028   0.271   4.056   9.723
79730SOL    HW141029   0.318   4.134   9.752
79730SOL    HW241030   0.339   3.989   9.716
79731SOL     OW41031   1.052  13.137   0.157
79731SOL    HW141032   1.004  13.164   0.080
79731SOL    HW241033   0.987  13.133   0.227
79732SOL     OW41034  13.415   6.478  12.901
79732SOL    HW141035  13.332   6.469  12.855
79732SOL    HW241036  13.481   6.482  12.831
79733SOL     OW41037   1.356  14.664  10.931
79733SOL    HW141038   1.301  14.598  10.888
79733SOL    HW241039   1.311  14.680  11.014
79734SOL     OW41040  12.107   6.537   1.894
79734SOL    HW141041  12.124   6.529   1.988
79734SOL    HW241042  12.013   6.521   1.884
79735SOL     OW41043   6.548  14.054  14.077
79735SOL    HW141044   6.534  14.048  13.983
79735SOL    HW241045   6.593  14.137  14.090
79736SOL     OW41046   3.989  10.373   2.860
79736SOL    HW141047   4.073  10.327   2.859
79736SOL    HW241048   3.965  10.377   2.952
79737SOL     OW41049   9.449   6.057   0.718
79737SOL    HW141050   9.359   6.086   0.711
79737SOL    HW241051   9.483   6.101   0.796
79738SOL     OW41052   7.578   0.671   3.191
79738SOL    HW141053   7.591   0.580   3.216
79738SOL    HW241054   7.614   0.677   3.102
79739SOL     OW41055   6.067  10.677   9.506
79739SOL    HW141056   6.116  10.693   9.425
79739SOL    HW241057   5.989  10.628   9.477
79740SOL     OW41058   4.319  11.777  10.013
79740SOL    HW141059   4.361  11.827  10.083
79740SOL    HW241060   4.320  11.837   9.938
79741SOL     OW41061   7.111   6.499   2.579
79741SOL    HW141062   7.154   6.530   2.499
79741SOL    HW241063   7.077   6.413   2.557
79742SOL     OW41064   5.993   8.498  10.197
79742SOL    HW141065   5.911   8.483  10.150
79742SOL    HW241066   6.045   8.552  10.138
79743SOL     OW41067   4.033   1.872   2.608
79743SOL    HW141068   4.036   1.880   2.703
79743SOL    HW241069   4.125   1.870   2.581
79744SOL     OW41070   0.709   0.594   8.627
79744SOL    HW141071   0.715   0.638   8.712
79744SOL    HW241072   0.763   0.647   8.568
79745SOL     OW41073   1.147   9.916  12.023
79745SOL    HW141074   1.195   9.982  12.074
79745SOL    HW241075   1.174   9.933  11.933
79746SOL     OW41076   6.781   4.139   2.157
79746SOL    HW141077   6.823   4.109   2.237
79746SOL    HW241078   6.793   4.234   2.158
79747SOL     OW41079  13.759  12.117   2.277
79747SOL    HW141080  13.746  12.211   2.262
79747SOL    HW241081  13.682  12.076   2.239
79748SOL     OW41082  12.024   4.058   4.981
79748SOL    HW141083  12.114   4.083   5.000
79748SOL    HW241084  12.031   3.968   4.947
79749SOL     OW41085   4.440   0.222   5.650
79749SOL    HW141086   4.459   0.315   5.634
79749SOL    HW241087   4.421   0.187   5.563
79750SOL     OW41088   5.135   0.025  13.844
79750SOL    HW141089   5.050  14.861  13.849
79750SOL    HW241090   5.169   0.021  13.934
79751SOL     OW41091   1.158  11.576   2.929
79751SOL    HW141092   1.132  11.533   2.847
79751SOL    HW241093   1.075  11.603   2.969
79752SOL     OW41094   8.508  14.017   2.319
79752SOL    HW141095   8.467  14.099   2.344
79752SOL    HW241096   8.437  13.952   2.326
79753SOL     OW41097  13.062   7.359   7.563
79753SOL    HW141098  13.050   7.446   7.602
79753SOL    HW241099  13.106   7.308   7.631
79754SOL     OW41100   0.261   0.521   6.687
79754SOL    HW141101   0.218   0.436   6.701
79754SOL    HW241102   0.190   0.584   6.692
79755SOL     OW41103   3.545   8.048   1.817
79755SOL    HW141104   3.560   8.002   1.735
79755SOL    HW241105   3.459   8.018   1.846
79756SOL     OW41106   5.498   6.652   3.342
79756SOL    HW141107   5.584   6.657   3.300
79756SOL    HW241108   5.489   6.560   3.367
79757SOL     OW41109   3.034  14.812   4.492
79757SOL    HW141110   3.032  14.762   4.410
79757SOL    HW241111   3.021  14.747   4.561
79758SOL     OW41112   6.922   0.767   5.232
79758SOL    HW141113   6.929   0.851   5.277
79758SOL    HW241114   6.964   0.781   5.147
79759SOL     OW41115   5.392  11.490   2.295
79759SOL    HW141116   5.397  11.403   2.335
79759SOL    HW241117   5.480  11.526   2.306
79760SOL     OW41118  12.633   4.452  12.912
79760SOL    HW141119  12.541   4.472  12.896
79760SOL    HW241120  12.679   4.489  12.837
79761SOL     OW41121   4.689   3.748  13.576
79761SOL    HW141122   4.690   3.728  13.482
79761SOL    HW241123   4.780   3.739  13.603
79762SOL     OW41124  12.012   0.322   5.843
79762SOL    HW141125  11.921   0.350   5.853
79762SOL    HW241126  12.025   0.318   5.748
79763SOL     OW41127   1.934   8.188   1.339
79763SOL    HW141128   1.907   8.239   1.262
79763SOL    HW241129   1.882   8.108   1.335
79764SOL     OW41130  13.039   4.009  11.856
79764SOL    HW141131  12.989   3.992  11.775
79764SOL    HW241132  13.079   3.925  11.877
79765SOL     OW41133  13.475   7.429   1.769
79765SOL    HW141134  13.433   7.365   1.827
79765SOL    HW241135  13.539   7.472   1.825
79766SOL     OW41136   5.349   9.183   2.209
79766SOL    HW141137   5.382   9.102   2.169
79766SOL    HW241138   5.294   9.222   2.141
79767SOL     OW41139   9.116  10.633   2.154
79767SOL    HW141140   9.155  10.546   2.148
79767SOL    HW241141   9.175  10.681   2.213
79768SOL     OW41142   5.908  13.410   2.745
79768SOL    HW141143   5.882  13.424   2.654
79768SOL    HW241144   5.825  13.406   2.793
79769SOL     OW41145  14.112  12.748  12.314
79769SOL    HW141146  14.195  12.794  12.331
79769SOL    HW241147  14.099  12.692  12.390
79770SOL     OW41148   0.006  11.820   3.932
79770SOL    HW141149  14.802  11.865   3.936
79770SOL    HW241150   0.072  11.888   3.947
79771SOL     OW41151   7.063   7.439   0.490
79771SOL    HW141152   6.977   7.475   0.512
79771SOL    HW241153   7.050   7.397   0.405
79772SOL     OW41154  13.116   6.303   7.255
79772SOL    HW141155  13.023   6.282   7.242
79772SOL    HW241156  13.120   6.398   7.252
79773SOL     OW41157   4.571   0.250   0.648
79773SOL    HW141158   4.597   0.249   0.556
79773SOL    HW241159   4.650   0.275   0.695
79774SOL     OW41160   9.243   9.105   5.192
79774SOL    HW141161   9.304   9.061   5.133
79774SOL    HW241162   9.173   9.136   5.135
79775SOL     OW41163   6.406   9.701  10.503
79775SOL    HW141164   6.353   9.622  10.495
79775SOL    HW241165   6.408   9.738  10.415
79776SOL     OW41166   1.593   1.843   0.514
79776SOL    HW141167   1.621   1.762   0.472
79776SOL    HW241168   1.556   1.815   0.598
79777SOL     OW41169   3.433   5.078   7.416
79777SOL    HW141170   3.408   5.170   7.414
79777SOL    HW241171   3.354   5.033   7.447
79778SOL     OW41172   5.751   8.062   4.248
79778SOL    HW141173   5.827   8.120   4.240
79778SOL    HW241174   5.759   8.025   4.336
79779SOL     OW41175  13.359  12.687   1.902
79779SOL    HW141176  13.298  12.644   1.841
79779SOL    HW241177  13.309  12.696   1.983
79780SOL     OW41178   7.429  13.400   4.856
79780SOL    HW141179   7.427  13.320   4.803
79780SOL    HW241180   7.338  13.430   4.856
79781SOL     OW41181  13.975   7.444   8.862
79781SOL    HW141182  13.918   7.515   8.892
79781SOL    HW241183  14.061   7.484   8.854
79782SOL     OW41184  14.675   6.789   8.810
79782SOL    HW141185  14.731   6.715   8.787
79782SOL    HW241186  14.590   6.769   8.771
79783SOL     OW41187   2.376   0.382   1.566
79783SOL    HW141188   2.462   0.376   1.524
79783SOL    HW241189   2.317   0.408   1.495
79784SOL     OW41190   4.372   2.058   9.316
79784SOL    HW141191   4.330   2.140   9.292
79784SOL    HW241192   4.369   2.005   9.236
79785SOL     OW41193  11.031  13.681  11.875
79785SOL    HW141194  11.032  13.697  11.781
79785SOL    HW241195  11.057  13.589  11.884
79786SOL     OW41196   7.251   0.642   4.477
79786SOL    HW141197   7.328   0.697   4.490
79786SOL    HW241198   7.215   0.670   4.393
79787SOL     OW41199   6.180  13.911  11.626
79787SOL    HW141200   6.136  13.993  11.604
79787SOL    HW241201   6.171  13.903  11.720
79788SOL     OW41202  11.925   8.232   1.837
79788SOL    HW141203  11.945   8.212   1.746
79788SOL    HW241204  12.006   8.212   1.885
79789SOL     OW41205   5.952  14.362  10.381
79789SOL    HW141206   6.031  14.402  10.346
79789SOL    HW241207   5.883  14.427  10.363
79790SOL     OW41208  14.493   7.315  12.125
79790SOL    HW141209  14.474   7.408  12.143
79790SOL    HW241210  14.474   7.270  12.207
79791SOL     OW41211   0.528   9.230   0.849
79791SOL    HW141212   0.561   9.314   0.880
79791SOL    HW241213   0.433   9.237   0.856
79792SOL     OW41214  12.843   8.321   7.123
79792SOL    HW141215  12.838   8.226   7.119
79792SOL    HW241216  12.932   8.341   7.095
79793SOL     OW41217  10.059   0.375   3.787
79793SOL    HW141218   9.990   0.314   3.759
79793SOL    HW241219  10.122   0.321   3.834
79794SOL     OW41220  14.755  11.730   4.418
79794SOL    HW141221  14.824  11.773   4.368
79794SOL    HW241222  14.802  11.665   4.471
79795SOL     OW41223   5.845  14.842   4.436
79795SOL    HW141224   5.818  14.776   4.499
79795SOL    HW241225   5.883  14.792   4.364
79796SOL     OW41226   0.899   0.824   5.630
79796SOL    HW141227   0.826   0.764   5.648
79796SOL    HW241228   0.859   0.897   5.583
79797SOL     OW41229   3.690   2.327   9.887
79797SOL    HW141230   3.756   2.344   9.955
79797SOL    HW241231   3.724   2.252   9.839
79798SOL     OW41232   7.620  13.617  13.699
79798SOL    HW141233   7.567  13.588  13.625
79798SOL    HW241234   7.643  13.537  13.745
79799SOL     OW41235   5.376   3.754   7.449
79799SOL    HW141236   5.423   3.713   7.376
79799SOL    HW241237   5.437   3.748   7.523
79800SOL     OW41238   6.220  12.759   5.844
79800SOL    HW141239   6.157  12.818   5.886
79800SOL    HW241240   6.165  12.691   5.804
79801SOL     OW41241  12.494   5.474  10.394
79801SOL    HW141242  12.497   5.413  10.320
79801SOL    HW241243  12.558   5.440  10.456
79802SOL     OW41244   1.916  12.300  14.795
79802SOL    HW141245   1.967  12.234  14.842
79802SOL    HW241246   1.896  12.366  14.862
79803SOL     OW41247   5.759  14.694   1.130
79803SOL    HW141248   5.770  14.641   1.209
79803SOL    HW241249   5.667  14.684   1.106
79804SOL     OW41250   9.650   3.740  11.606
79804SOL    HW141251   9.592   3.665  11.592
79804SOL    HW241252   9.737   3.708  11.580
79805SOL     OW41253  10.393   4.200  14.781
79805SOL    HW141254  10.338   4.151  14.842
79805SOL    HW241255  10.417   4.136  14.714
79806SOL     OW41256   0.026   1.909   9.797
79806SOL    HW141257  14.816   1.933   9.774
79806SOL    HW241258   0.061   1.867   9.719
79807SOL     OW41259   2.223  10.809   7.666
79807SOL    HW141260   2.170  10.826   7.588
79807SOL    HW241261   2.301  10.765   7.632
79808SOL     OW41262   6.884  14.405   2.027
79808SOL    HW141263   6.935  14.403   2.107
79808SOL    HW241264   6.829  14.483   2.035
79809SOL     OW41265   5.014   8.153  14.572
79809SOL    HW141266   4.949   8.121  14.510
79809SOL    HW241267   5.001   8.099  14.650
79810SOL     OW41268  14.205   1.592  13.275
79810SOL    HW141269  14.140   1.529  13.245
79810SOL    HW241270  14.284   1.570  13.226
79811SOL     OW41271   3.855   8.519   9.332
79811SOL    HW141272   3.930   8.578   9.320
79811SOL    HW241273   3.894   8.432   9.334
79812SOL     OW41274   2.903   1.327  10.235
79812SOL    HW141275   2.902   1.372  10.319
79812SOL    HW241276   2.996   1.318  10.214
79813SOL     OW41277   7.590  11.287   8.032
79813SOL    HW141278   7.529  11.223   7.996
79813SOL    HW241279   7.561  11.299   8.122
79814SOL     OW41280  11.560   4.358  13.282
79814SOL    HW141281  11.568   4.311  13.200
79814SOL    HW241282  11.642   4.406  13.291
79815SOL     OW41283   2.276   1.175   2.922
79815SOL    HW141284   2.293   1.089   2.884
79815SOL    HW241285   2.181   1.185   2.915
79816SOL     OW41286  12.012   7.009  14.417
79816SOL    HW141287  11.963   6.996  14.498
79816SOL    HW241288  11.946   7.035  14.353
79817SOL     OW41289  10.012   2.346   7.740
79817SOL    HW141290  10.028   2.285   7.812
79817SOL    HW241291  10.041   2.431   7.774
79818SOL     OW41292   9.024  14.418  11.032
79818SOL    HW141293   8.962  14.490  11.018
79818SOL    HW241294   9.101  14.442  10.980
79819SOL     OW41295   0.458   1.281  13.348
79819SOL    HW141296   0.473   1.305  13.257
79819SOL    HW241297   0.509   1.344  13.399
79820SOL     OW41298   1.576   0.154  13.548
79820SOL    HW141299   1.613   0.243  13.548
79820SOL    HW241300   1.483   0.167  13.567
79821SOL     OW41301  11.661   3.574  12.691
79821SOL    HW141302  11.657   3.655  12.639
79821SOL    HW241303  11.746   3.536  12.670
79822SOL     OW41304   0.943   7.135   5.968
79822SOL    HW141305   1.012   7.151   6.033
79822SOL    HW241306   0.881   7.077   6.013
79823SOL     OW41307  10.021   0.088  13.021
79823SOL    HW141308  10.070   0.169  13.038
79823SOL    HW241309   9.969   0.075  13.100
79824SOL     OW41310   9.699  14.053  10.290
79824SOL    HW141311   9.634  14.015  10.231
79824SOL    HW241312   9.662  14.137  10.316
79825SOL     OW41313  13.824   9.977   3.231
79825SOL    HW141314  13.780   9.898   3.201
79825SOL    HW241315  13.916   9.951   3.238
79826SOL     OW41316  12.454  14.230   2.268
79826SOL    HW141317  12.391  14.207   2.199
79826SOL    HW241318  12.474  14.322   2.252
79827SOL     OW41319   1.636   7.459  10.884
79827SOL    HW141320   1.640   7.374  10.841
79827SOL    HW241321   1.543   7.472  10.903
79828SOL     OW41322   8.514  13.094   6.072
79828SOL    HW141323   8.481  13.070   5.985
79828SOL    HW241324   8.549  13.183   6.061
79829SOL     OW41325   3.163  14.651   2.572
79829SOL    HW141326   3.170  14.725   2.633
79829SOL    HW241327   3.249  14.610   2.574
79830SOL     OW41328  13.177   1.025   6.435
79830SOL    HW141329  13.090   1.034   6.395
79830SOL    HW241330  13.208   0.939   6.405
79831SOL     OW41331  12.758  13.351   1.290
79831SOL    HW141332  12.723  13.262   1.290
79831SOL    HW241333  12.830  13.349   1.228
79832SOL     OW41334   0.920   1.386   8.206
79832SOL    HW141335   0.911   1.431   8.291
79832SOL    HW241336   0.848   1.421   8.153
79833SOL     OW41337  13.600   9.684   2.854
79833SOL    HW141338  13.518   9.666   2.899
79833SOL    HW241339  13.587   9.770   2.814
79834SOL     OW41340  12.876   3.158   7.182
79834SOL    HW141341  12.878   3.231   7.120
79834SOL    HW241342  12.789   3.119   7.171
79835SOL     OW41343  13.883  11.768  10.154
79835SOL    HW141344  13.799  11.795  10.191
79835SOL    HW241345  13.938  11.747  10.230
79836SOL     OW41346   4.026  12.036   1.966
79836SOL    HW141347   4.095  12.003   1.908
79836SOL    HW241348   3.991  12.113   1.920
79837SOL     OW41349   6.815   1.236   5.235
79837SOL    HW141350   6.828   1.241   5.140
79837SOL    HW241351   6.741   1.293   5.252
79838SOL     OW41352   5.880   9.572   8.932
79838SOL    HW141353   5.879   9.477   8.947
79838SOL    HW241354   5.788   9.595   8.918
79839SOL     OW41355   7.727   7.445  13.675
79839SOL    HW141356   7.716   7.369  13.731
79839SOL    HW241357   7.807   7.487  13.706
79840SOL     OW41358   5.641   3.871   3.033
79840SOL    HW141359   5.600   3.941   2.983
79840SOL    HW241360   5.624   3.894   3.125
79841SOL     OW41361   1.949  12.495  14.573
79841SOL    HW141362   1.962  12.462  14.662
79841SOL    HW241363   1.934  12.589  14.583
79842SOL     OW41364   7.952   5.151   6.155
79842SOL    HW141365   8.020   5.184   6.098
79842SOL    HW241366   7.945   5.216   6.225
79843SOL     OW41367   0.404  12.935   1.644
79843SOL    HW141368   0.334  12.961   1.584
79843SOL    HW241369   0.378  12.847   1.674
79844SOL     OW41370   7.449  12.587   0.570
79844SOL    HW141371   7.520  12.524   0.565
79844SOL    HW241372   7.480  12.655   0.630
79845SOL     OW41373   9.409  11.983   1.152
79845SOL    HW141374   9.429  12.046   1.221
79845SOL    HW241375   9.315  11.991   1.139
79846SOL     OW41376  11.911   4.495   8.294
79846SOL    HW141377  11.828   4.537   8.314
79846SOL    HW241378  11.932   4.443   8.372
79847SOL     OW41379  14.272   8.290   0.831
79847SOL    HW141380  14.314   8.208   0.859
79847SOL    HW241381  14.212   8.264   0.761
79848SOL     OW41382   8.207   7.827   7.444
79848SOL    HW141383   8.202   7.907   7.393
79848SOL    HW241384   8.167   7.849   7.528
79849SOL     OW41385   6.132   5.509  13.500
79849SOL    HW141386   6.078   5.583  13.470
79849SOL    HW241387   6.149   5.527  13.592
79850SOL     OW41388  11.852   3.244  13.311
79850SOL    HW141389  11.918   3.202  13.366
79850SOL    HW241390  11.901   3.287  13.242
79851SOL     OW41391  10.337   0.260   9.832
79851SOL    HW141392  10.379   0.345   9.826
79851SOL    HW241393  10.275   0.259   9.759
79852SOL     OW41394   0.497   3.018   1.832
79852SOL    HW141395   0.491   3.112   1.851
79852SOL    HW241396   0.409   2.995   1.802
79853SOL     OW41397  12.859  14.138  11.892
79853SOL    HW141398  12.784  14.190  11.921
79853SOL    HW241399  12.866  14.158  11.798
79854SOL     OW41400   5.847   6.937   9.715
79854SOL    HW141401   5.784   6.879   9.673
79854SOL    HW241402   5.806   7.023   9.713
79855SOL     OW41403   2.244   4.760   2.189
79855SOL    HW141404   2.251   4.666   2.205
79855SOL    HW241405   2.180   4.768   2.118
79856SOL     OW41406   7.080   2.861   9.821
79856SOL    HW141407   7.049   2.930   9.880
79856SOL    HW241408   7.005   2.842   9.766
79857SOL     OW41409   7.206   9.147   3.187
79857SOL    HW141410   7.209   9.137   3.092
79857SOL    HW241411   7.143   9.218   3.201
79858SOL     OW41412  12.138  13.457   3.723
79858SOL    HW141413  12.137  13.551   3.704
79858SOL    HW241414  12.206  13.447   3.789
79859SOL     OW41415  14.562  11.948   3.370
79859SOL    HW141416  14.579  11.926   3.462
79859SOL    HW241417  14.504  12.024   3.374
79860SOL     OW41418  14.023  10.902   6.247
79860SOL    HW141419  14.116  10.883   6.261
79860SOL    HW241420  14.003  10.970   6.311
79861SOL     OW41421  13.264   2.141  12.207
79861SOL    HW141422  13.313   2.223  12.210
79861SOL    HW241423  13.184   2.159  12.256
79862SOL     OW41424  13.934  14.179   1.485
79862SOL    HW141425  13.947  14.127   1.565
79862SOL    HW241426  14.010  14.158   1.431
79863SOL     OW41427   0.926   4.809  10.373
79863SOL    HW141428   0.978   4.812  10.293
79863SOL    HW241429   0.946   4.723  10.411
79864SOL     OW41430  14.817   2.137   6.252
79864SOL    HW141431  14.766   2.102   6.179
79864SOL    HW241432  14.822   2.231   6.235
79865SOL     OW41433  12.215   3.975   4.706
79865SOL    HW141434  12.218   4.067   4.679
79865SOL    HW241435  12.246   3.927   4.629
79866SOL     OW41436   1.206   4.473   1.528
79866SOL    HW141437   1.210   4.392   1.580
79866SOL    HW241438   1.128   4.463   1.474
79867SOL     OW41439  13.768  14.202   0.065
79867SOL    HW141440  13.675  14.224   0.063
79867SOL    HW241441  13.790  14.203   0.158
79868SOL     OW41442   9.810   5.029   9.174
79868SOL    HW141443   9.759   5.063   9.247
79868SOL    HW241444   9.899   5.062   9.189
79869SOL     OW41445   3.965   5.089  10.095
79869SOL    HW141446   3.998   5.000  10.091
79869SOL    HW241447   3.912   5.092  10.175
79870SOL     OW41448   8.477  11.092  10.042
79870SOL    HW141449   8.519  11.159   9.988
79870SOL    HW241450   8.482  11.012   9.989
79871SOL     OW41451   5.492  14.201   1.621
79871SOL    HW141452   5.429  14.200   1.549
79871SOL    HW241453   5.487  14.113   1.659
79872SOL     OW41454   8.473  12.700  12.673
79872SOL    HW141455   8.483  12.623  12.729
79872SOL    HW241456   8.517  12.676  12.592
79873SOL     OW41457  14.689   7.227   7.419
79873SOL    HW141458  14.653   7.312   7.446
79873SOL    HW241459  14.617   7.165   7.434
79874SOL     OW41460  12.223   4.370  11.520
79874SOL    HW141461  12.292   4.343  11.580
79874SOL    HW241462  12.269   4.414  11.448
79875SOL     OW41463   4.358   6.333  12.941
79875SOL    HW141464   4.425   6.368  12.999
79875SOL    HW241465   4.327   6.409  12.892
79876SOL     OW41466   9.869   8.847   4.903
79876SOL    HW141467   9.947   8.807   4.863
79876SOL    HW241468   9.800   8.781   4.892
79877SOL     OW41469   1.301   3.773  10.675
79877SOL    HW141470   1.310   3.847  10.614
79877SOL    HW241471   1.256   3.705  10.624
79878SOL     OW41472   0.307  10.254   9.844
79878SOL    HW141473   0.266  10.188   9.787
79878SOL    HW241474   0.338  10.205   9.920
79879SOL     OW41475   5.846   8.408   2.377
79879SOL    HW141476   5.785   8.471   2.337
79879SOL    HW241477   5.906   8.386   2.306
79880SOL     OW41478   1.981   7.674   6.364
79880SOL    HW141479   2.019   7.759   6.386
79880SOL    HW241480   1.934   7.648   6.443
79881SOL     OW41481   2.910   8.477   2.260
79881SOL    HW141482   2.849   8.549   2.277
79881SOL    HW241483   2.987   8.498   2.313
79882SOL     OW41484   3.865   4.104   4.051
79882SOL    HW141485   3.775   4.116   4.021
79882SOL    HW241486   3.856   4.073   4.141
79883SOL     OW41487  14.250   1.282  10.648
79883SOL    HW141488  14.300   1.265  10.728
79883SOL    HW241489  14.269   1.373  10.626
79884SOL     OW41490   5.341   1.472   7.596
79884SOL    HW141491   5.358   1.564   7.618
79884SOL    HW241492   5.342   1.427   7.680
79885SOL     OW41493  13.706  11.863  12.397
79885SOL    HW141494  13.767  11.795  12.366
79885SOL    HW241495  13.752  11.945  12.379
79886SOL     OW41496  13.543  13.060  10.343
79886SOL    HW141497  13.475  13.043  10.408
79886SOL    HW241498  13.564  12.975  10.306
79887SOL     OW41499   4.159  13.556   9.103
79887SOL    HW141500   4.179  13.530   9.194
79887SOL    HW241501   4.200  13.642   9.094
79888SOL     OW41502  13.124   0.496   9.170
79888SOL    HW141503  13.069   0.421   9.144
79888SOL    HW241504  13.129   0.490   9.265
79889SOL     OW41505   8.940  14.094   2.212
79889SOL    HW141506   8.853  14.135   2.218
79889SOL    HW241507   8.963  14.103   2.119
79890SOL     OW41508  13.186   0.005   0.463
79890SOL    HW141509  13.176  14.829   0.385
79890SOL    HW241510  13.107  14.870   0.514
79891SOL     OW41511   7.694   0.900   6.474
79891SOL    HW141512   7.681   0.981   6.425
79891SOL    HW241513   7.665   0.921   6.563
79892SOL     OW41514   1.480  10.690   0.899
79892SOL    HW141515   1.566  10.725   0.879
79892SOL    HW241516   1.490  10.595   0.891
79893SOL     OW41517  11.621   3.247   1.973
79893SOL    HW141518  11.624   3.193   2.052
79893SOL    HW241519  11.594   3.186   1.904
79894SOL     OW41520   1.786   7.274   4.183
79894SOL    HW141521   1.735   7.205   4.226
79894SOL    HW241522   1.764   7.354   4.230
79895SOL     OW41523   7.857   0.351  13.949
79895SOL    HW141524   7.798   0.410  13.998
79895SOL    HW241525   7.944   0.370  13.984
79896SOL     OW41526  10.570   2.952   2.582
79896SOL    HW141527  10.609   2.874   2.621
79896SOL    HW241528  10.511   2.918   2.514
79897SOL     OW41529   1.886   4.290  10.289
79897SOL    HW141530   1.877   4.385  10.300
79897SOL    HW241531   1.902   4.278  10.195
79898SOL     OW41532   3.302   1.477  12.359
79898SOL    HW141533   3.271   1.543  12.296
79898SOL    HW241534   3.358   1.526  12.420
79899SOL     OW41535   7.093   1.982   8.992
79899SOL    HW141536   7.180   1.955   8.962
79899SOL    HW241537   7.072   2.060   8.940
79900SOL     OW41538   9.656  11.390   7.987
79900SOL    HW141539   9.588  11.402   8.052
79900SOL    HW241540   9.660  11.473   7.939
79901SOL     OW41541   7.894   6.318   1.308
79901SOL    HW141542   7.848   6.387   1.258
79901SOL    HW241543   7.948   6.274   1.243
79902SOL     OW41544   5.861   0.557   0.794
79902SOL    HW141545   5.766   0.542   0.788
79902SOL    HW241546   5.899   0.492   0.734
79903SOL     OW41547   0.861   1.103  11.788
79903SOL    HW141548   0.936   1.065  11.834
79903SOL    HW241549   0.864   1.195  11.811
79904SOL     OW41550   0.261  13.388   4.941
79904SOL    HW141551   0.217  13.352   5.017
79904SOL    HW241552   0.213  13.352   4.866
79905SOL     OW41553   1.365   0.121  11.044
79905SOL    HW141554   1.450   0.083  11.020
79905SOL    HW241555   1.371   0.135  11.139
79906SOL     OW41556   6.015  12.889   5.232
79906SOL    HW141557   6.010  12.801   5.268
79906SOL    HW241558   5.924  12.914   5.217
79907SOL     OW41559   9.634  11.737   4.959
79907SOL    HW141560   9.541  11.752   4.975
79907SOL    HW241561   9.655  11.789   4.882
79908SOL     OW41562   9.665   3.593   0.577
79908SOL    HW141563   9.588   3.643   0.605
79908SOL    HW241564   9.630   3.513   0.538
79909SOL     OW41565   2.946   9.337  12.863
79909SOL    HW141566   2.998   9.274  12.812
79909SOL    HW241567   2.893   9.383  12.798
79910SOL     OW41568   6.161   3.506   9.931
79910SOL    HW141569   6.199   3.549   9.855
79910SOL    HW241570   6.236   3.463   9.974
79911SOL     OW41571  10.765   5.585  13.684
79911SOL    HW141572  10.854   5.551  13.674
79911SOL    HW241573  10.778   5.674  13.719
79912SOL     OW41574   8.820   4.946  11.891
79912SOL    HW141575   8.906   4.955  11.850
79912SOL    HW241576   8.764   4.910  11.822
79913SOL     OW41577  12.905  14.309   3.936
79913SOL    HW141578  12.990  14.315   3.893
79913SOL    HW241579  12.920  14.249   4.009
79914SOL     OW41580   1.091   7.369   3.824
79914SOL    HW141581   1.025   7.313   3.785
79914SOL    HW241582   1.173   7.320   3.815
79915SOL     OW41583   0.415   8.375  11.031
79915SOL    HW141584   0.371   8.320  11.097
79915SOL    HW241585   0.346   8.398  10.969
79916SOL     OW41586  11.407  12.593  10.178
79916SOL    HW141587  11.373  12.562  10.094
79916SOL    HW241588  11.497  12.562  10.180
79917SOL     OW41589  10.607  10.702  12.331
79917SOL    HW141590  10.563  10.654  12.261
79917SOL    HW241591  10.543  10.769  12.356
79918SOL     OW41592   7.697  13.673   4.167
79918SOL    HW141593   7.735  13.637   4.248
79918SOL    HW241594   7.772  13.679   4.107
79919SOL     OW41595   3.719   0.066  13.778
79919SOL    HW141596   3.784  14.875  13.784
79919SOL    HW241597   3.728   0.114  13.861
79920SOL     OW41598   6.193  11.797  10.704
79920SOL    HW141599   6.218  11.865  10.767
79920SOL    HW241600   6.188  11.717  10.755
79921SOL     OW41601  11.582  10.879  13.691
79921SOL    HW141602  11.531  10.874  13.773
79921SOL    HW241603  11.516  10.885  13.622
79922SOL     OW41604   1.447  10.432  14.831
79922SOL    HW141605   1.417  10.480  14.754
79922SOL    HW241606   1.448  10.340  14.804
79923SOL     OW41607   4.812  14.004   5.270
79923SOL    HW141608   4.740  13.957   5.229
79923SOL    HW241609   4.772  14.050   5.344
79924SOL     OW41610  11.581   0.278   1.904
79924SOL    HW141611  11.666   0.299   1.864
79924SOL    HW241612  11.518   0.330   1.854
79925SOL     OW41613   1.096   8.295   0.325
79925SOL    HW141614   1.134   8.266   0.242
79925SOL    HW241615   1.169   8.291   0.387
79926SOL     OW41616   1.814   6.275  11.079
79926SOL    HW141617   1.909   6.269  11.089
79926SOL    HW241618   1.790   6.351  11.133
79927SOL     OW41619  12.551   3.839   4.198
79927SOL    HW141620  12.623   3.877   4.148
79927SOL    HW241621  12.525   3.909   4.259
79928SOL     OW41622  10.629   9.771  11.800
79928SOL    HW141623  10.558   9.821  11.759
79928SOL    HW241624  10.661   9.827  11.870
79929SOL     OW41625   6.988   9.997   3.013
79929SOL    HW141626   6.959   9.998   2.921
79929SOL    HW241627   7.071   9.949   3.011
79930SOL     OW41628   3.012  10.685   9.081
79930SOL    HW141629   2.946  10.633   9.127
79930SOL    HW241630   3.095  10.641   9.100
79931SOL     OW41631   6.465   5.069  13.883
79931SOL    HW141632   6.514   4.989  13.903
79931SOL    HW241633   6.493   5.131  13.950
79932SOL     OW41634   7.981   4.246   3.991
79932SOL    HW141635   7.918   4.190   3.944
79932SOL    HW241636   8.059   4.244   3.937
79933SOL     OW41637   0.337   5.864  13.405
79933SOL    HW141638   0.314   5.875  13.498
79933SOL    HW241639   0.426   5.901  13.399
79934SOL     OW41640   7.503   6.492   2.163
79934SOL    HW141641   7.440   6.539   2.108
79934SOL    HW241642   7.569   6.558   2.185
79935SOL     OW41643   7.012   7.893   6.420
79935SOL    HW141644   6.917   7.899   6.416
79935SOL    HW241645   7.030   7.808   6.460
79936SOL     OW41646  12.920   3.328   1.956
79936SOL    HW141647  12.849   3.380   1.993
79936SOL    HW241648  12.880   3.243   1.936
79937SOL     OW41649   0.396   9.161   4.781
79937SOL    HW141650   0.464   9.128   4.840
79937SOL    HW241651   0.400   9.103   4.705
79938SOL     OW41652   3.745   6.412   6.968
79938SOL    HW141653   3.819   6.471   6.955
79938SOL    HW241654   3.703   6.445   7.048
79939SOL     OW41655   8.114   2.015   8.424
79939SOL    HW141656   8.061   1.951   8.378
79939SOL    HW241657   8.197   2.017   8.376
79940SOL     OW41658   6.176  11.816   3.582
79940SOL    HW141659   6.103  11.851   3.530
79940SOL    HW241660   6.171  11.864   3.665
79941SOL     OW41661   1.460  10.188   6.258
79941SOL    HW141662   1.398  10.116   6.241
79941SOL    HW241663   1.526  10.149   6.316
79942SOL     OW41664   5.737  14.805   3.688
79942SOL    HW141665   5.739  14.866   3.762
79942SOL    HW241666   5.742  14.862   3.610
79943SOL     OW41667   5.830   3.956   0.584
79943SOL    HW141668   5.760   4.021   0.584
79943SOL    HW241669   5.786   3.874   0.604
79944SOL     OW41670   4.305  13.381   5.712
79944SOL    HW141671   4.344  13.389   5.799
79944SOL    HW241672   4.222  13.429   5.718
79945SOL     OW41673   2.364   0.389   8.002
79945SOL    HW141674   2.317   0.472   8.010
79945SOL    HW241675   2.431   0.393   8.070
79946SOL     OW41676  14.391  10.000   8.499
79946SOL    HW141677  14.333   9.992   8.424
79946SOL    HW241678  14.445   9.920   8.497
79947SOL     OW41679  12.098   0.013  12.014
79947SOL    HW141680  12.148  14.813  12.031
79947SOL    HW241681  12.160   0.072  11.971
79948SOL     OW41682  12.864   4.146   5.477
79948SOL    HW141683  12.814   4.073   5.440
79948SOL    HW241684  12.813   4.175   5.552
79949SOL     OW41685   9.138   1.128  13.854
79949SOL    HW141686   9.085   1.198  13.892
79949SOL    HW241687   9.078   1.083  13.794
79950SOL     OW41688   3.631   1.343   1.597
79950SOL    HW141689   3.556   1.307   1.550
79950SOL    HW241690   3.640   1.286   1.673
79951SOL     OW41691   0.817  13.420  12.322
79951SOL    HW141692   0.780  13.458  12.402
79951SOL    HW241693   0.741  13.395  12.270
79952SOL     OW41694   5.005   9.105  10.836
79952SOL    HW141695   4.946   9.176  10.861
79952SOL    HW241696   5.084   9.149  10.803
79953SOL     OW41697   1.792   0.434  12.317
79953SOL    HW141698   1.847   0.446  12.239
79953SOL    HW241699   1.759   0.522  12.336
79954SOL     OW41700   8.577  11.325   5.197
79954SOL    HW141701   8.530  11.377   5.132
79954SOL    HW241702   8.661  11.306   5.156
79955SOL     OW41703   0.223   7.884   6.014
79955SOL    HW141704   0.283   7.917   6.082
79955SOL    HW241705   0.221   7.953   5.948
79956SOL     OW41706   6.616   9.469   9.586
79956SOL    HW141707   6.537   9.516   9.560
79956SOL    HW241708   6.587   9.380   9.604
79957SOL     OW41709   4.281  13.713  14.811
79957SOL    HW141710   4.345  13.656  14.770
79957SOL    HW241711   4.252  13.666   0.010
79958SOL     OW41712   8.123   2.481   1.976
79958SOL    HW141713   8.212   2.487   2.011
79958SOL    HW241714   8.069   2.463   2.053
79959SOL     OW41715   5.996   1.530   6.539
79959SOL    HW141716   5.958   1.500   6.622
79959SOL    HW241717   5.973   1.460   6.477
79960SOL     OW41718   8.935  10.930  12.585
79960SOL    HW141719   8.994  10.937  12.510
79960SOL    HW241720   8.849  10.954  12.551
79961SOL     OW41721  11.391   0.295   3.256
79961SOL    HW141722  11.473   0.339   3.279
79961SOL    HW241723  11.352   0.270   3.339
79962SOL     OW41724  12.630   9.849   3.754
79962SOL    HW141725  12.655   9.941   3.741
79962SOL    HW241726  12.620   9.814   3.665
79963SOL     OW41727   7.835  13.199   1.553
79963SOL    HW141728   7.852  13.260   1.482
79963SOL    HW241729   7.859  13.113   1.517
79964SOL     OW41730   2.484   3.703   1.438
79964SOL    HW141731   2.520   3.639   1.499
79964SOL    HW241732   2.558   3.756   1.412
79965SOL     OW41733  12.344   6.424   0.034
79965SOL    HW141734  12.411   6.425  14.845
79965SOL    HW241735  12.374   6.356   0.095
79966SOL     OW41736   4.607   2.481  11.507
79966SOL    HW141737   4.673   2.512  11.445
79966SOL    HW241738   4.633   2.392  11.529
79967SOL     OW41739   5.888   0.809   2.335
79967SOL    HW141740   5.861   0.877   2.397
79967SOL    HW241741   5.924   0.739   2.390
79968SOL     OW41742   2.644   3.926   1.631
79968SOL    HW141743   2.723   3.938   1.577
79968SOL    HW241744   2.657   3.842   1.674
79969SOL     OW41745   4.365  12.292   3.888
79969SOL    HW141746   4.432  12.224   3.887
79969SOL    HW241747   4.327  12.290   3.800
79970SOL     OW41748  12.360   3.953   2.493
79970SOL    HW141749  12.309   3.920   2.419
79970SOL    HW241750  12.441   3.985   2.453
79971SOL     OW41751  13.034   2.309  12.081
79971SOL    HW141752  13.033   2.246  12.009
79971SOL    HW241753  13.122   2.347  12.078
79972SOL     OW41754  14.124   1.080   6.296
79972SOL    HW141755  14.109   1.095   6.389
79972SOL    HW241756  14.071   1.002   6.276
79973SOL     OW41757   5.799   6.484   1.368
79973SOL    HW141758   5.816   6.509   1.277
79973SOL    HW241759   5.885   6.476   1.408
79974SOL     OW41760  11.640  13.685  13.848
79974SOL    HW141761  11.622  13.597  13.816
79974SOL    HW241762  11.622  13.742  13.774
79975SOL     OW41763  12.078  14.321   2.812
79975SOL    HW141764  12.041  14.336   2.899
79975SOL    HW241765  12.160  14.276   2.828
79976SOL     OW41766  11.783  10.164   1.772
79976SOL    HW141767  11.726  10.240   1.783
79976SOL    HW241768  11.724  10.089   1.776
79977SOL     OW41769   7.788  10.680   5.573
79977SOL    HW141770   7.875  10.642   5.584
79977SOL    HW241771   7.805  10.771   5.548
79978SOL     OW41772   9.406  12.184   3.836
79978SOL    HW141773   9.393  12.154   3.926
79978SOL    HW241774   9.360  12.268   3.832
79979SOL     OW41775  14.550   0.395   0.568
79979SOL    HW141776  14.645   0.389   0.576
79979SOL    HW241777  14.530   0.352   0.485
79980SOL     OW41778  13.294   2.423  10.610
79980SOL    HW141779  13.353   2.476  10.556
79980SOL    HW241780  13.228   2.392  10.548
79981SOL     OW41781   4.953   5.669  11.493
79981SOL    HW141782   4.959   5.763  11.479
79981SOL    HW241783   5.043   5.638  11.489
79982SOL     OW41784   4.442  12.679  11.608
79982SOL    HW141785   4.507  12.619  11.573
79982SOL    HW241786   4.395  12.627  11.674
79983SOL     OW41787  11.382   0.838  12.499
79983SOL    HW141788  11.356   0.880  12.581
79983SOL    HW241789  11.390   0.911  12.437
79984SOL     OW41790   9.760  11.389  11.666
79984SOL    HW141791   9.714  11.471  11.647
79984SOL    HW241792   9.850  11.404  11.635
79985SOL     OW41793  10.306   8.305  12.931
79985SOL    HW141794  10.371   8.363  12.970
79985SOL    HW241795  10.340   8.287  12.843
79986SOL     OW41796   9.367   8.957   4.412
79986SOL    HW141797   9.399   8.914   4.332
79986SOL    HW241798   9.301   9.019   4.381
79987SOL     OW41799   7.409   4.286  12.078
79987SOL    HW141800   7.394   4.206  12.027
79987SOL    HW241801   7.489   4.268  12.127
79988SOL     OW41802  13.259   0.492  14.020
79988SOL    HW141803  13.179   0.505  14.070
79988SOL    HW241804  13.258   0.562  13.955
79989SOL     OW41805  13.199   5.384   8.945
79989SOL    HW141806  13.259   5.443   8.899
79989SOL    HW241807  13.208   5.300   8.898
79990SOL     OW41808   5.132  14.529   7.785
79990SOL    HW141809   5.125  14.516   7.691
79990SOL    HW241810   5.215  14.575   7.797
79991SOL     OW41811   0.351   2.452   8.122
79991SOL    HW141812   0.281   2.462   8.186
79991SOL    HW241813   0.323   2.381   8.065
79992SOL     OW41814   5.662   1.539   2.644
79992SOL    HW141815   5.661   1.596   2.568
79992SOL    HW241816   5.715   1.586   2.709
79993SOL     OW41817  14.845  14.108   5.921
79993SOL    HW141818  14.774  14.125   5.982
79993SOL    HW241819   0.015  14.036   5.962
79994SOL     OW41820   5.735   0.945   3.762
79994SOL    HW141821   5.681   1.023   3.776
79994SOL    HW241822   5.761   0.950   3.670
79995SOL     OW41823   6.227   7.024   4.558
79995SOL    HW141824   6.272   6.946   4.524
79995SOL    HW241825   6.153   7.036   4.500
79996SOL     OW41826  13.712  12.423   3.500
79996SOL    HW141827  13.728  12.508   3.541
79996SOL    HW241828  13.629  12.394   3.538
79997SOL     OW41829  13.277   5.888   4.232
79997SOL    HW141830  13.238   5.822   4.289
79997SOL    HW241831  13.346   5.842   4.185
79998SOL     OW41832  14.801   2.714  12.679
79998SOL    HW141833  14.879   2.661  12.696
79998SOL    HW241834  14.775   2.690  12.590
79999SOL     OW41835  14.419   7.403  14.540
79999SOL    HW141836  14.410   7.496  14.519
79999SOL    HW241837  14.331   7.374  14.564
80000SOL     OW41838   3.579  13.202   9.076
80000SOL    HW141839   3.511  13.250   9.123
80000SOL    HW241840   3.534  13.125   9.041
80001SOL     OW41841  14.627   9.461   4.759
80001SOL    HW141842  14.693   9.524   4.789
80001SOL    HW241843  14.659   9.376   4.788
80002SOL     OW41844   2.813  12.386   6.129
80002SOL    HW141845   2.844  12.474   6.150
80002SOL    HW241846   2.887  12.344   6.086
80003SOL     OW41847   2.774  13.437   7.357
80003SOL    HW141848   2.833  13.365   7.381
80003SOL    HW241849   2.775  13.496   7.432
80004SOL     OW41850  14.798  14.768  14.813
80004SOL    HW141851  14.871  14.822  14.845
80004SOL    HW241852  14.720  14.822  14.826
80005SOL     OW41853   5.660  10.216   8.643
80005SOL    HW141854   5.701  10.263   8.715
80005SOL    HW241855   5.659  10.125   8.671
80006SOL     OW41856  13.577  12.928  12.249
80006SOL    HW141857  13.656  12.878  12.271
80006SOL    HW241858  13.521  12.864  12.205
80007SOL     OW41859   5.081   6.930   3.825
80007SOL    HW141860   5.089   7.007   3.768
80007SOL    HW241861   5.165   6.887   3.818
80008SOL     OW41862   9.255  13.163   8.853
80008SOL    HW141863   9.234  13.097   8.919
80008SOL    HW241864   9.179  13.165   8.795
80009SOL     OW41865   4.281  10.664   8.150
80009SOL    HW141866   4.252  10.656   8.241
80009SOL    HW241867   4.206  10.701   8.105
80010SOL     OW41868   3.506  14.111  11.222
80010SOL    HW141869   3.503  14.087  11.129
80010SOL    HW241870   3.427  14.070  11.259
80011SOL     OW41871   9.090   3.780   2.193
80011SOL    HW141872   9.013   3.726   2.211
80011SOL    HW241873   9.067   3.828   2.113
80012SOL     OW41874   3.751   5.806   1.547
80012SOL    HW141875   3.694   5.730   1.534
80012SOL    HW241876   3.739   5.829   1.639
80013SOL     OW41877   2.724   6.587   5.027
80013SOL    HW141878   2.776   6.533   4.967
80013SOL    HW241879   2.692   6.525   5.093
80014SOL     OW41880  11.461   3.509   8.285
80014SOL    HW141881  11.511   3.431   8.307
80014SOL    HW241882  11.379   3.500   8.333
80015SOL     OW41883   2.411   9.965   5.300
80015SOL    HW141884   2.430   9.955   5.394
80015SOL    HW241885   2.465  10.039   5.273
80016SOL     OW41886  10.965   3.873   8.909
80016SOL    HW141887  11.031   3.824   8.957
80016SOL    HW241888  11.000   3.881   8.820
80017SOL     OW41889  12.802  14.590  13.007
80017SOL    HW141890  12.825  14.661  13.067
80017SOL    HW241891  12.711  14.569  13.029
80018SOL     OW41892  12.500   5.029  13.449
80018SOL    HW141893  12.583   5.003  13.409
80018SOL    HW241894  12.440   5.040  13.375
80019SOL     OW41895   2.930   0.130   9.351
80019SOL    HW141896   2.870   0.059   9.374
80019SOL    HW241897   3.009   0.085   9.319
80020SOL     OW41898  14.716  13.101   1.053
80020SOL    HW141899  14.657  13.176   1.066
80020SOL    HW241900  14.724  13.093   0.958
80021SOL     OW41901   2.338   1.742  13.394
80021SOL    HW141902   2.337   1.821  13.449
80021SOL    HW241903   2.306   1.772  13.309
80022SOL     OW41904   6.064  13.557   0.637
80022SOL    HW141905   6.056  13.522   0.726
80022SOL    HW241906   6.073  13.479   0.582
80023SOL     OW41907   8.606   1.563   5.175
80023SOL    HW141908   8.577   1.591   5.088
80023SOL    HW241909   8.643   1.643   5.214
80024SOL     OW41910   6.723   4.659   3.148
80024SOL    HW141911   6.705   4.583   3.203
80024SOL    HW241912   6.790   4.629   3.086
80025SOL     OW41913  14.646  13.555   0.101
80025SOL    HW141914  14.658  13.471   0.057
80025SOL    HW241915  14.612  13.533   0.187
80026SOL     OW41916  13.773  14.239  14.193
80026SOL    HW141917  13.679  14.253  14.194
80026SOL    HW241918  13.806  14.288  14.268
80027SOL     OW41919  13.150   6.181  14.642
80027SOL    HW141920  13.153   6.220  14.730
80027SOL    HW241921  13.237   6.197  14.606
80028SOL     OW41922  10.777   3.068   9.309
80028SOL    HW141923  10.698   3.118   9.334
80028SOL    HW241924  10.759   3.038   9.220
80029SOL     OW41925  14.481  10.408   0.660
80029SOL    HW141926  14.460  10.372   0.574
80029SOL    HW241927  14.445  10.345   0.722
80030SOL     OW41928  14.419  13.948  13.149
80030SOL    HW141929  14.334  13.922  13.113
80030SOL    HW241930  14.483  13.917  13.084
80031SOL     OW41931   2.228   0.720  12.780
80031SOL    HW141932   2.208   0.705  12.687
80031SOL    HW241933   2.297   0.658  12.801
80032SOL     OW41934  12.150   4.236   0.253
80032SOL    HW141935  12.067   4.189   0.251
80032SOL    HW241936  12.209   4.179   0.301
80033SOL     OW41937   8.317   4.563  14.816
80033SOL    HW141938   8.283   4.651  14.797
80033SOL    HW241939   8.305   4.553   0.031
80034SOL     OW41940   8.537   7.694   7.238
80034SOL    HW141941   8.539   7.652   7.152
80034SOL    HW241942   8.450   7.673   7.272
80035SOL     OW41943   9.636   9.741   0.407
80035SOL    HW141944   9.610   9.833   0.402
80035SOL    HW241945   9.714   9.735   0.351
80036SOL     OW41946   4.050   1.310  12.432
80036SOL    HW141947   4.001   1.229  12.445
80036SOL    HW241948   3.999   1.360  12.369
80037SOL     OW41949   9.486   9.514   1.204
80037SOL    HW141950   9.524   9.550   1.285
80037SOL    HW241951   9.553   9.527   1.138
80038SOL     OW41952   3.942   5.188   4.631
80038SOL    HW141953   4.000   5.262   4.649
80038SOL    HW241954   3.896   5.172   4.714
80039SOL     OW41955   3.763  10.253   6.626
80039SOL    HW141956   3.725  10.316   6.687
80039SOL    HW241957   3.750  10.168   6.668
80040SOL     OW41958   8.094   2.507  13.630
80040SOL    HW141959   8.074   2.488  13.722
80040SOL    HW241960   8.023   2.565  13.602
80041SOL     OW41961   6.513   7.268  10.059
80041SOL    HW141962   6.547   7.346  10.016
80041SOL    HW241963   6.488   7.297  10.146
80042SOL     OW41964  11.769   2.549   3.171
80042SOL    HW141965  11.763   2.470   3.226
80042SOL    HW241966  11.707   2.610   3.210
80043SOL     OW41967   7.090   2.112   7.548
80043SOL    HW141968   7.012   2.089   7.497
80043SOL    HW241969   7.116   2.198   7.514
80044SOL     OW41970   7.071   5.264  13.801
80044SOL    HW141971   7.029   5.268  13.715
80044SOL    HW241972   7.163   5.282  13.784
80045SOL     OW41973  13.949   9.114   8.398
80045SOL    HW141974  14.029   9.148   8.358
80045SOL    HW241975  13.960   9.128   8.492
80046SOL     OW41976   1.830   9.445   3.600
80046SOL    HW141977   1.793   9.521   3.555
80046SOL    HW241978   1.924   9.464   3.606
80047SOL     OW41979   2.318  11.462   7.155
80047SOL    HW141980   2.238  11.451   7.207
80047SOL    HW241981   2.369  11.527   7.203
80048SOL     OW41982   8.860  13.789  10.430
80048SOL    HW141983   8.842  13.813  10.520
80048SOL    HW241984   8.952  13.760  10.431
80049SOL     OW41985   1.427  11.635   8.997
80049SOL    HW141986   1.473  11.589   9.066
80049SOL    HW241987   1.457  11.594   8.916
80050SOL     OW41988   1.054   4.877   0.613
80050SOL    HW141989   1.078   4.923   0.533
80050SOL    HW241990   1.104   4.795   0.610
80051SOL     OW41991   5.588   0.135  13.903
80051SOL    HW141992   5.675   0.100  13.883
80051SOL    HW241993   5.529   0.062  13.886
80052SOL     OW41994   3.784   7.683   5.190
80052SOL    HW141995   3.835   7.762   5.207
80052SOL    HW241996   3.807   7.658   5.101
80053SOL     OW41997   8.984  10.966   0.844
80053SOL    HW141998   8.990  11.061   0.847
80053SOL    HW241999   8.899  10.946   0.883
80054SOL     OW42000   7.088   7.558   7.447
80054SOL    HW142001   7.074   7.605   7.365
80054SOL    HW242002   7.184   7.553   7.456
80055SOL     OW42003   5.331  11.227   5.009
80055SOL    HW142004   5.293  11.226   5.097
80055SOL    HW242005   5.312  11.141   4.973
80056SOL     OW42006  14.867   9.709  10.086
80056SOL    HW142007   0.037   9.631  10.062
80056SOL    HW242008   0.040   9.782  10.052
80057SOL     OW42009   1.539  13.372  13.856
80057SOL    HW142010   1.500  13.302  13.804
80057SOL    HW242011   1.516  13.453  13.809
80058SOL     OW42012  12.977   9.067  11.157
80058SOL    HW142013  12.959   9.139  11.097
80058SOL    HW242014  13.061   9.032  11.127
80059SOL     OW42015   0.895  10.553  13.098
80059SOL    HW142016   0.959  10.600  13.043
80059SOL    HW242017   0.878  10.612  13.171
80060SOL     OW42018   9.614   8.992   6.976
80060SOL    HW142019   9.600   9.053   6.903
80060SOL    HW242020   9.530   8.993   7.024
80061SOL     OW42021   2.515   7.251  14.387
80061SOL    HW142022   2.481   7.209  14.308
80061SOL    HW242023   2.533   7.341  14.359
80062SOL     OW42024  11.205   7.218  11.908
80062SOL    HW142025  11.272   7.188  11.846
80062SOL    HW242026  11.164   7.293  11.864
80063SOL     OW42027   8.232   0.609   3.864
80063SOL    HW142028   8.149   0.644   3.830
80063SOL    HW242029   8.216   0.515   3.873
80064SOL     OW42030   8.933   8.058   1.547
80064SOL    HW142031   8.990   7.995   1.591
80064SOL    HW242032   8.935   8.136   1.602
80065SOL     OW42033  13.408   3.270   1.348
80065SOL    HW142034  13.341   3.275   1.416
80065SOL    HW242035  13.366   3.309   1.271
80066SOL     OW42036   7.979   4.234  11.373
80066SOL    HW142037   8.016   4.322  11.379
80066SOL    HW242038   7.885   4.247  11.365
80067SOL     OW42039   8.602   7.554   0.090
80067SOL    HW142040   8.636   7.469   0.061
80067SOL    HW242041   8.509   7.550   0.067
80068SOL     OW42042  12.160   7.071  12.277
80068SOL    HW142043  12.147   6.984  12.238
80068SOL    HW242044  12.247   7.097  12.247
80069SOL     OW42045   0.070   1.196  13.877
80069SOL    HW142046   0.032   1.152  13.801
80069SOL    HW242047   0.003   1.188  13.945
80070SOL     OW42048   0.500   0.337   5.595
80070SOL    HW142049   0.435   0.291   5.648
80070SOL    HW242050   0.584   0.295   5.618
80071SOL     OW42051   1.728  14.818   8.169
80071SOL    HW142052   1.736  14.799   8.263
80071SOL    HW242053   1.818  14.825   8.138
80072SOL     OW42054   4.340  11.134   2.431
80072SOL    HW142055   4.336  11.115   2.337
80072SOL    HW242056   4.369  11.226   2.435
80073SOL     OW42057   3.007   6.735   3.334
80073SOL    HW142058   3.064   6.755   3.409
80073SOL    HW242059   2.924   6.710   3.374
80074SOL     OW42060   3.552  10.818   8.319
80074SOL    HW142061   3.551  10.913   8.320
80074SOL    HW242062   3.468  10.792   8.357
80075SOL     OW42063  13.534   7.176   2.963
80075SOL    HW142064  13.588   7.099   2.945
80075SOL    HW242065  13.460   7.143   3.013
80076SOL     OW42066  11.461  14.152   6.821
80076SOL    HW142067  11.421  14.159   6.908
80076SOL    HW242068  11.554  14.170   6.835
80077SOL     OW42069   1.874   9.725   7.033
80077SOL    HW142070   1.896   9.722   6.940
80077SOL    HW242071   1.778   9.721   7.035
80078SOL     OW42072  11.991   8.215   3.269
80078SOL    HW142073  12.062   8.155   3.290
80078SOL    HW242074  12.005   8.237   3.177
80079SOL     OW42075   1.432  10.388   9.572
80079SOL    HW142076   1.498  10.444   9.613
80079SOL    HW242077   1.465  10.299   9.585
80080SOL     OW42078   2.097   1.660   2.344
80080SOL    HW142079   2.141   1.654   2.429
80080SOL    HW242080   2.163   1.633   2.281
80081SOL     OW42081   0.042   9.129   0.216
80081SOL    HW142082   0.040   9.166   0.128
80081SOL    HW242083   0.135   9.111   0.232
80082SOL     OW42084   4.535   3.476   5.938
80082SOL    HW142085   4.496   3.527   6.009
80082SOL    HW242086   4.611   3.433   5.978
80083SOL     OW42087   1.548   2.038  13.597
80083SOL    HW142088   1.627   1.986  13.612
80083SOL    HW242089   1.573   2.127  13.620
80084SOL     OW42090   1.903   3.456   3.762
80084SOL    HW142091   1.904   3.551   3.775
80084SOL    HW242092   1.866   3.421   3.843
80085SOL     OW42093  13.289  14.847   0.041
80085SOL    HW142094  13.339   0.034   0.089
80085SOL    HW242095  13.342  14.768   0.047
80086SOL     OW42096   4.177   1.956  11.623
80086SOL    HW142097   4.139   1.874  11.591
80086SOL    HW242098   4.132   2.024  11.572
80087SOL     OW42099   2.316  12.574  10.131
80087SOL    HW142100   2.305  12.666  10.154
80087SOL    HW242101   2.400  12.570  10.085
80088SOL     OW42102   6.386  11.961   0.569
80088SOL    HW142103   6.313  11.954   0.629
80088SOL    HW242104   6.346  11.966   0.482
80089SOL     OW42105   4.144   5.359   4.667
80089SOL    HW142106   4.236   5.358   4.643
80089SOL    HW242107   4.126   5.450   4.690
80090SOL     OW42108   4.311   2.803   3.918
80090SOL    HW142109   4.232   2.828   3.869
80090SOL    HW242110   4.382   2.848   3.873
80091SOL     OW42111  10.364  11.432  11.083
80091SOL    HW142112  10.454  11.445  11.052
80091SOL    HW242113  10.310  11.479  11.019
80092SOL     OW42114   4.195   0.528  10.280
80092SOL    HW142115   4.154   0.445  10.304
80092SOL    HW242116   4.125   0.578  10.236
80093SOL     OW42117   8.351   7.912   2.196
80093SOL    HW142118   8.405   7.985   2.227
80093SOL    HW242119   8.343   7.927   2.102
80094SOL     OW42120   4.429   1.623   9.282
80094SOL    HW142121   4.447   1.717   9.291
80094SOL    HW242122   4.337   1.619   9.256
80095SOL     OW42123   2.151   0.407   0.561
80095SOL    HW142124   2.073   0.436   0.607
80095SOL    HW242125   2.210   0.377   0.630
80096SOL     OW42126   9.169   1.647   7.873
80096SOL    HW142127   9.213   1.675   7.953
80096SOL    HW242128   9.170   1.551   7.877
80097SOL     OW42129   2.096  11.233   7.131
80097SOL    HW142130   2.132  11.238   7.042
80097SOL    HW242131   2.028  11.166   7.126
80098SOL     OW42132  11.007   4.655  12.384
80098SOL    HW142133  10.931   4.703  12.417
80098SOL    HW242134  10.972   4.596  12.317
80099SOL     OW42135   6.590  11.114   5.974
80099SOL    HW142136   6.621  11.024   5.962
80099SOL    HW242137   6.541  11.112   6.056
80100SOL     OW42138   8.334  14.310   1.394
80100SOL    HW142139   8.272  14.378   1.418
80100SOL    HW242140   8.281  14.245   1.346
80101SOL     OW42141  13.548   0.024  10.517
80101SOL    HW142142  13.534   0.077  10.438
80101SOL    HW242143  13.504   0.073  10.587
80102SOL     OW42144   7.679  12.886   8.790
80102SOL    HW142145   7.585  12.892   8.774
80102SOL    HW242146   7.687  12.858   8.881
80103SOL     OW42147   1.486  12.599   8.607
80103SOL    HW142148   1.472  12.565   8.519
80103SOL    HW242149   1.399  12.628   8.636
80104SOL     OW42150  10.301   0.918  10.469
80104SOL    HW142151  10.350   0.900  10.389
80104SOL    HW242152  10.307   0.838  10.520
80105SOL     OW42153   0.598  12.809  13.432
80105SOL    HW142154   0.648  12.864  13.372
80105SOL    HW242155   0.641  12.820  13.516
80106SOL     OW42156   2.612   1.083   3.508
80106SOL    HW142157   2.521   1.109   3.494
80106SOL    HW242158   2.658   1.165   3.527
80107SOL     OW42159   9.468  13.875   2.292
80107SOL    HW142160   9.375  13.885   2.273
80107SOL    HW242161   9.511  13.938   2.234
80108SOL     OW42162  13.121  10.989  12.196
80108SOL    HW142163  13.205  10.963  12.158
80108SOL    HW242164  13.056  10.967  12.130
80109SOL     OW42165   5.361  10.647   5.493
80109SOL    HW142166   5.274  10.650   5.452
80109SOL    HW242167   5.420  10.683   5.426
80110SOL     OW42168  11.480   5.960   7.538
80110SOL    HW142169  11.394   5.940   7.575
80110SOL    HW242170  11.494   6.052   7.559
80111SOL     OW42171   0.558   4.089  13.747
80111SOL    HW142172   0.487   4.028  13.726
80111SOL    HW242173   0.636   4.034  13.753
80112SOL     OW42174  11.111   8.938   1.502
80112SOL    HW142175  11.055   8.913   1.575
80112SOL    HW242176  11.127   9.032   1.516
80113SOL     OW42177   8.052   1.999  11.379
80113SOL    HW142178   8.052   1.917  11.429
80113SOL    HW242179   7.993   2.056  11.428
80114SOL     OW42180  14.579  13.218  12.369
80114SOL    HW142181  14.636  13.142  12.369
80114SOL    HW242182  14.498  13.188  12.328
80115SOL     OW42183  12.851  11.858   0.253
80115SOL    HW142184  12.770  11.831   0.296
80115SOL    HW242185  12.865  11.793   0.185
80116SOL     OW42186  13.698  13.020   8.750
80116SOL    HW142187  13.786  12.982   8.744
80116SOL    HW242188  13.687  13.069   8.669
80117SOL     OW42189   8.205  10.536  13.927
80117SOL    HW142190   8.298  10.517  13.928
80117SOL    HW242191   8.162  10.452  13.944
80118SOL     OW42192   1.461   9.789  12.182
80118SOL    HW142193   1.440   9.823  12.095
80118SOL    HW242194   1.398   9.831  12.240
80119SOL     OW42195   1.705   5.838   0.755
80119SOL    HW142196   1.694   5.912   0.695
80119SOL    HW242197   1.655   5.863   0.833
80120SOL     OW42198   0.827  11.596   7.430
80120SOL    HW142199   0.748  11.585   7.377
80120SOL    HW242200   0.808  11.671   7.486
80121SOL     OW42201   1.923   4.108  13.501
80121SOL    HW142202   1.964   4.025  13.525
80121SOL    HW242203   1.882   4.139  13.581
80122SOL     OW42204   6.441   2.848  11.894
80122SOL    HW142205   6.454   2.756  11.873
80122SOL    HW242206   6.381   2.880  11.826
80123SOL     OW42207  11.212  10.701   6.199
80123SOL    HW142208  11.168  10.661   6.274
80123SOL    HW242209  11.150  10.767   6.167
80124SOL     OW42210  10.676   6.754   6.880
80124SOL    HW142211  10.619   6.807   6.825
80124SOL    HW242212  10.643   6.768   6.969
80125SOL     OW42213  12.212   3.884   7.544
80125SOL    HW142214  12.174   3.870   7.631
80125SOL    HW242215  12.297   3.839   7.548
80126SOL     OW42216  10.437   3.727   7.014
80126SOL    HW142217  10.468   3.648   6.969
80126SOL    HW242218  10.511   3.787   7.011
80127SOL     OW42219   6.034   1.036  11.844
80127SOL    HW142220   6.048   1.039  11.749
80127SOL    HW242221   6.039   1.128  11.871
80128SOL     OW42222   1.153   8.958   9.147
80128SOL    HW142223   1.167   8.868   9.118
80128SOL    HW242224   1.212   8.969   9.221
80129SOL     OW42225  11.390  13.749  14.548
80129SOL    HW142226  11.353  13.666  14.521
80129SOL    HW242227  11.427  13.731  14.635
80130SOL     OW42228  10.777  14.615  12.057
80130SOL    HW142229  10.716  14.570  11.997
80130SOL    HW242230  10.764  14.571  12.141
80131SOL     OW42231   9.196  10.628  11.126
80131SOL    HW142232   9.148  10.701  11.165
80131SOL    HW242233   9.248  10.669  11.056
80132SOL     OW42234   6.683  12.786   8.216
80132SOL    HW142235   6.723  12.710   8.175
80132SOL    HW242236   6.750  12.854   8.211
80133SOL     OW42237  12.949   3.082   4.379
80133SOL    HW142238  12.904   3.006   4.342
80133SOL    HW242239  12.887   3.117   4.443
80134SOL     OW42240   8.495  12.805   3.340
80134SOL    HW142241   8.413  12.829   3.383
80134SOL    HW242242   8.555  12.786   3.411
80135SOL     OW42243  10.170  11.196  10.229
80135SOL    HW142244  10.096  11.135  10.225
80135SOL    HW242245  10.245  11.144  10.201
80136SOL     OW42246   1.893   9.535  11.692
80136SOL    HW142247   1.924   9.501  11.608
80136SOL    HW242248   1.967   9.586  11.726
80137SOL     OW42249  11.294   6.086  12.336
80137SOL    HW142250  11.388   6.066  12.333
80137SOL    HW242251  11.251   6.001  12.326
80138SOL     OW42252   8.319   8.954   5.394
80138SOL    HW142253   8.319   9.028   5.333
80138SOL    HW242254   8.363   8.988   5.472
80139SOL     OW42255   4.179  12.753   1.650
80139SOL    HW142256   4.113  12.739   1.582
80139SOL    HW242257   4.247  12.805   1.607
80140SOL     OW42258   0.991  11.050  11.463
80140SOL    HW142259   0.951  11.092  11.540
80140SOL    HW242260   1.064  10.999  11.499
80141SOL     OW42261  12.015   4.992  12.915
80141SOL    HW142262  12.069   4.967  12.840
80141SOL    HW242263  11.966   4.913  12.936
80142SOL     OW42264   3.360   4.491   6.521
80142SOL    HW142265   3.333   4.417   6.466
80142SOL    HW242266   3.453   4.502   6.502
80143SOL     OW42267   2.407   2.263   9.868
80143SOL    HW142268   2.353   2.341   9.880
80143SOL    HW242269   2.494   2.296   9.848
80144SOL     OW42270   4.791  13.471   1.935
80144SOL    HW142271   4.759  13.549   1.981
80144SOL    HW242272   4.883  13.466   1.958
80145SOL     OW42273  10.577  13.179   3.632
80145SOL    HW142274  10.532  13.246   3.683
80145SOL    HW242275  10.651  13.153   3.688
80146SOL     OW42276   7.484   2.244  13.711
80146SOL    HW142277   7.444   2.193  13.641
80146SOL    HW242278   7.497   2.181  13.783
80147SOL     OW42279  10.153   4.821   7.481
80147SOL    HW142280  10.232   4.836   7.429
80147SOL    HW242281  10.138   4.726   7.475
80148SOL     OW42282   1.439  10.398   5.990
80148SOL    HW142283   1.455  10.344   6.067
80148SOL    HW242284   1.526  10.410   5.950
80149SOL     OW42285  10.661   1.342   8.378
80149SOL    HW142286  10.582   1.289   8.376
80149SOL    HW242287  10.673   1.363   8.471
80150SOL     OW42288  10.274   8.552   5.476
80150SOL    HW142289  10.257   8.482   5.539
80150SOL    HW242290  10.342   8.517   5.419
80151SOL     OW42291   1.487  10.266   1.891
80151SOL    HW142292   1.573  10.246   1.854
80151SOL    HW242293   1.471  10.357   1.865
80152SOL     OW42294   8.301   5.977  12.970
80152SOL    HW142295   8.323   5.968  13.063
80152SOL    HW242296   8.229   6.041  12.969
80153SOL     OW42297   7.091  12.505   7.146
80153SOL    HW142298   7.009  12.525   7.101
80153SOL    HW242299   7.099  12.410   7.141
80154SOL     OW42300   8.043  13.235  13.736
80154SOL    HW142301   8.092  13.255  13.816
80154SOL    HW242302   8.067  13.145  13.715
80155SOL     OW42303   9.908   1.366   3.086
80155SOL    HW142304   9.921   1.441   3.144
80155SOL    HW242305   9.886   1.294   3.145
80156SOL     OW42306  12.496   2.090   3.244
80156SOL    HW142307  12.586   2.081   3.276
80156SOL    HW242308  12.506   2.103   3.150
80157SOL     OW42309   8.966   8.550   0.075
80157SOL    HW142310   8.975   8.471   0.023
80157SOL    HW242311   9.056   8.574   0.098
80158SOL     OW42312   7.365   7.774  13.429
80158SOL    HW142313   7.307   7.847  13.449
80158SOL    HW242314   7.406   7.754  13.513
80159SOL     OW42315   6.279  12.523   4.566
80159SOL    HW142316   6.187  12.548   4.562
80159SOL    HW242317   6.282  12.436   4.526
80160SOL     OW42318  13.874  12.409   4.990
80160SOL    HW142319  13.893  12.315   4.991
80160SOL    HW242320  13.936  12.447   5.052
80161SOL     OW42321   7.706   5.773   2.347
80161SOL    HW142322   7.681   5.686   2.379
80161SOL    HW242323   7.625   5.810   2.311
80162SOL     OW42324  13.924   4.101   7.048
80162SOL    HW142325  13.886   4.189   7.047
80162SOL    HW242326  13.851   4.045   7.074
80163SOL     OW42327   6.069  12.035   1.932
80163SOL    HW142328   6.026  12.083   2.003
80163SOL    HW242329   6.023  12.063   1.853
80164SOL     OW42330  10.459  13.206   8.102
80164SOL    HW142331  10.492  13.121   8.071
80164SOL    HW242332  10.538  13.254   8.126
80165SOL     OW42333  12.299   6.415   9.574
80165SOL    HW142334  12.360   6.434   9.646
80165SOL    HW242335  12.305   6.320   9.562
80166SOL     OW42336   2.095  11.150   6.191
80166SOL    HW142337   2.057  11.223   6.144
80166SOL    HW242338   2.031  11.080   6.182
80167SOL     OW42339  10.129   2.158   8.331
80167SOL    HW142340  10.218   2.161   8.365
80167SOL    HW242341  10.111   2.064   8.318
80168SOL     OW42342  13.352   0.801  11.605
80168SOL    HW142343  13.297   0.847  11.541
80168SOL    HW242344  13.313   0.821  11.689
80169SOL     OW42345   1.689  14.169   3.133
80169SOL    HW142346   1.764  14.129   3.176
80169SOL    HW242347   1.723  14.198   3.048
80170SOL     OW42348   8.840  10.023   7.455
80170SOL    HW142349   8.766  10.061   7.408
80170SOL    HW242350   8.911  10.023   7.391
80171SOL     OW42351   0.733   4.063  10.083
80171SOL    HW142352   0.715   4.006  10.158
80171SOL    HW242353   0.828   4.079  10.088
80172SOL     OW42354   0.578  11.234   2.905
80172SOL    HW142355   0.643  11.298   2.874
80172SOL    HW242356   0.556  11.182   2.827
80173SOL     OW42357  13.623   2.441   3.878
80173SOL    HW142358  13.718   2.444   3.866
80173SOL    HW242359  13.587   2.499   3.811
80174SOL     OW42360   5.192   7.447   7.118
80174SOL    HW142361   5.134   7.439   7.194
80174SOL    HW242362   5.255   7.375   7.128
80175SOL     OW42363  11.742  13.933   0.166
80175SOL    HW142364  11.770  14.023   0.183
80175SOL    HW242365  11.744  13.891   0.253
80176SOL     OW42366   6.953   5.148   7.968
80176SOL    HW142367   6.862   5.120   7.958
80176SOL    HW242368   6.980   5.176   7.880
80177SOL     OW42369  13.546   6.089  13.041
80177SOL    HW142370  13.467   6.065  12.992
80177SOL    HW242371  13.564   6.012  13.096
80178SOL     OW42372  13.218  13.691  10.244
80178SOL    HW142373  13.278  13.622  10.272
80178SOL    HW242374  13.242  13.708  10.153
80179SOL     OW42375  14.749  14.221  10.255
80179SOL    HW142376  14.764  14.216  10.161
80179SOL    HW242377  14.658  14.195  10.266
80180SOL     OW42378  12.087  12.939   6.481
80180SOL    HW142379  12.141  12.924   6.559
80180SOL    HW242380  12.135  13.005   6.431
80181SOL     OW42381   8.777  13.340   7.631
80181SOL    HW142382   8.853  13.384   7.594
80181SOL    HW242383   8.771  13.257   7.582
80182SOL     OW42384   7.038   6.993   0.640
80182SOL    HW142385   7.005   6.938   0.569
80182SOL    HW242386   6.963   7.046   0.667
80183SOL     OW42387  11.392   4.125   1.202
80183SOL    HW142388  11.337   4.186   1.250
80183SOL    HW242389  11.382   4.042   1.248
80184SOL     OW42390  13.653   0.290  10.819
80184SOL    HW142391  13.584   0.227  10.797
80184SOL    HW242392  13.637   0.313  10.910
80185SOL     OW42393   1.046  13.544   2.483
80185SOL    HW142394   1.075  13.465   2.528
80185SOL    HW242395   1.115  13.608   2.499
80186SOL     OW42396   2.611  10.223   0.729
80186SOL    HW142397   2.632  10.200   0.638
80186SOL    HW242398   2.557  10.302   0.721
80187SOL     OW42399   0.743   6.913   0.789
80187SOL    HW142400   0.827   6.899   0.746
80187SOL    HW242401   0.742   7.006   0.812
80188SOL     OW42402   0.051   0.273   3.180
80188SOL    HW142403   0.057   0.368   3.172
80188SOL    HW242404   0.131   0.247   3.226
80189SOL     OW42405   0.030  13.331  12.810
80189SOL    HW142406   0.036  13.398  12.742
80189SOL    HW242407   0.042  13.248  12.765
80190SOL     OW42408   0.341  12.458  13.409
80190SOL    HW142409   0.388  12.499  13.336
80190SOL    HW242410   0.296  12.383  13.368
80191SOL     OW42411  12.616  11.583  12.799
80191SOL    HW142412  12.704  11.621  12.801
80191SOL    HW242413  12.602  11.549  12.887
80192SOL     OW42414   2.317  10.376   0.815
80192SOL    HW142415   2.279  10.455   0.776
80192SOL    HW242416   2.263  10.360   0.892
80193SOL     OW42417  14.861  12.521   9.552
80193SOL    HW142418   0.016  12.434   9.571
80193SOL    HW242419   0.013  12.541   9.464
80194SOL     OW42420   4.020   8.245  12.193
80194SOL    HW142421   3.939   8.277  12.154
80194SOL    HW242422   4.021   8.152  12.174
80195SOL     OW42423  12.573   0.025   4.275
80195SOL    HW142424  12.602  14.826   4.321
80195SOL    HW242425  12.643   0.044   4.213
80196SOL     OW42426  14.511   3.094   8.983
80196SOL    HW142427  14.508   3.111   9.077
80196SOL    HW242428  14.436   3.038   8.966
80197SOL     OW42429   6.480   1.207   7.743
80197SOL    HW142430   6.563   1.160   7.733
80197SOL    HW242431   6.423   1.171   7.676
80198SOL     OW42432  11.219   5.463   6.191
80198SOL    HW142433  11.149   5.519   6.227
80198SOL    HW242434  11.186   5.374   6.203
80199SOL     OW42435   9.209   6.757  11.184
80199SOL    HW142436   9.213   6.715  11.098
80199SOL    HW242437   9.232   6.849  11.166
80200SOL     OW42438  14.218   2.121   3.059
80200SOL    HW142439  14.304   2.151   3.089
80200SOL    HW242440  14.171   2.100   3.139
80201SOL     OW42441   5.292   6.470   4.381
80201SOL    HW142442   5.298   6.544   4.321
80201SOL    HW242443   5.254   6.400   4.330
80202SOL     OW42444   4.480   5.122   6.622
80202SOL    HW142445   4.404   5.064   6.630
80202SOL    HW242446   4.513   5.106   6.534
80203SOL     OW42447   8.083   5.523  12.267
80203SOL    HW142448   8.099   5.543  12.359
80203SOL    HW242449   8.162   5.477  12.238
80204SOL     OW42450  13.894  10.905  12.410
80204SOL    HW142451  13.943  10.977  12.452
80204SOL    HW242452  13.913  10.829  12.464
80205SOL     OW42453  14.423   5.876   8.843
80205SOL    HW142454  14.439   5.866   8.749
80205SOL    HW242455  14.329   5.864   8.853
80206SOL     OW42456   4.730   4.607   5.919
80206SOL    HW142457   4.664   4.589   5.986
80206SOL    HW242458   4.707   4.549   5.847
80207SOL     OW42459  11.777   9.343   2.021
80207SOL    HW142460  11.838   9.411   2.050
80207SOL    HW242461  11.725   9.386   1.953
80208SOL     OW42462   9.519   3.385   4.733
80208SOL    HW142463   9.491   3.400   4.823
80208SOL    HW242464   9.531   3.472   4.696
80209SOL     OW42465   8.259  11.218   0.003
80209SOL    HW142466   8.323  11.230  14.812
80209SOL    HW242467   8.222  11.305   0.017
80210SOL     OW42468  11.186  10.190  13.398
80210SOL    HW142469  11.272  10.202  13.439
80210SOL    HW242470  11.197  10.228  13.310
80211SOL     OW42471   4.946   9.156   0.720
80211SOL    HW142472   4.921   9.195   0.636
80211SOL    HW242473   5.041   9.149   0.716
80212SOL     OW42474   6.531   3.391   6.701
80212SOL    HW142475   6.611   3.345   6.678
80212SOL    HW242476   6.529   3.467   6.643
80213SOL     OW42477   4.462   7.744  11.670
80213SOL    HW142478   4.377   7.775  11.640
80213SOL    HW242479   4.509   7.719  11.590
80214SOL     OW42480   0.480  11.952  14.790
80214SOL    HW142481   0.517  11.945  14.879
80214SOL    HW242482   0.488  12.044  14.768
80215SOL     OW42483   1.850   8.066   4.446
80215SOL    HW142484   1.803   8.142   4.479
80215SOL    HW242485   1.910   8.042   4.517
80216SOL     OW42486   7.531  10.480   5.927
80216SOL    HW142487   7.454  10.444   5.971
80216SOL    HW242488   7.551  10.418   5.857
80217SOL     OW42489   5.722   9.027  10.155
80217SOL    HW142490   5.701   8.989  10.069
80217SOL    HW242491   5.710   8.954  10.216
80218SOL     OW42492   4.936   7.354  12.906
80218SOL    HW142493   4.884   7.311  12.974
80218SOL    HW242494   4.946   7.444  12.935
80219SOL     OW42495   1.134   1.462  10.733
80219SOL    HW142496   1.173   1.409  10.664
80219SOL    HW242497   1.188   1.443  10.810
80220SOL     OW42498  14.604  11.941   5.275
80220SOL    HW142499  14.568  12.013   5.222
80220SOL    HW242500  14.689  11.974   5.305
80221SOL     OW42501   0.061   2.657   2.670
80221SOL    HW142502   0.035   2.748   2.664
80221SOL    HW242503  14.869   2.614   2.717
80222SOL     OW42504   2.442   5.021   9.927
80222SOL    HW142505   2.500   4.949   9.953
80222SOL    HW242506   2.372   4.978   9.878
80223SOL     OW42507   6.234   2.741  13.649
80223SOL    HW142508   6.151   2.720  13.606
80223SOL    HW242509   6.225   2.703  13.737
80224SOL     OW42510   4.392   6.702   9.556
80224SOL    HW142511   4.303   6.704   9.520
80224SOL    HW242512   4.445   6.749   9.491
80225SOL     OW42513   6.633   6.138   4.174
80225SOL    HW142514   6.663   6.222   4.138
80225SOL    HW242515   6.669   6.137   4.263
80226SOL     OW42516  13.588  11.296  13.426
80226SOL    HW142517  13.639  11.316  13.505
80226SOL    HW242518  13.497  11.312  13.451
80227SOL     OW42519  12.049  13.720  11.517
80227SOL    HW142520  12.049  13.809  11.552
80227SOL    HW242521  12.142  13.700  11.504
80228SOL     OW42522  12.183  14.633   5.481
80228SOL    HW142523  12.107  14.585   5.449
80228SOL    HW242524  12.209  14.586   5.560
80229SOL     OW42525   2.813   9.437   7.334
80229SOL    HW142526   2.815   9.500   7.407
80229SOL    HW242527   2.891   9.457   7.283
80230SOL     OW42528  12.254  14.265  12.937
80230SOL    HW142529  12.319  14.237  12.872
80230SOL    HW242530  12.171  14.267  12.889
80231SOL     OW42531   9.074  10.413   4.615
80231SOL    HW142532   9.149  10.465   4.643
80231SOL    HW242533   8.999  10.473   4.622
80232SOL     OW42534   7.053   4.248   5.185
80232SOL    HW142535   7.127   4.187   5.187
80232SOL    HW242536   7.017   4.238   5.096
80233SOL     OW42537   6.584   5.762   1.120
80233SOL    HW142538   6.667   5.806   1.104
80233SOL    HW242539   6.608   5.672   1.144
80234SOL     OW42540  11.710  12.919   3.755
80234SOL    HW142541  11.657  12.942   3.679
80234SOL    HW242542  11.729  12.826   3.743
80235SOL     OW42543   5.230   8.742   5.659
80235SOL    HW142544   5.259   8.795   5.585
80235SOL    HW242545   5.270   8.656   5.644
80236SOL     OW42546   7.003   0.559   6.846
80236SOL    HW142547   6.914   0.531   6.823
80236SOL    HW242548   6.991   0.620   6.919
80237SOL     OW42549   8.809   2.065   2.084
80237SOL    HW142550   8.793   2.058   1.990
80237SOL    HW242551   8.731   2.027   2.124
80238SOL     OW42552  14.788  14.405   4.609
80238SOL    HW142553  14.874  14.440   4.630
80238SOL    HW242554  14.760  14.454   4.531
80239SOL     OW42555  11.724   0.414  12.198
80239SOL    HW142556  11.687   0.461  12.123
80239SOL    HW242557  11.649   0.366  12.235
80240SOL     OW42558   3.470   6.036   4.264
80240SOL    HW142559   3.477   6.129   4.286
80240SOL    HW242560   3.499   5.990   4.343
80241SOL     OW42561   0.947   1.967  14.174
80241SOL    HW142562   0.901   2.022  14.238
80241SOL    HW242563   0.961   2.024  14.099
80242SOL     OW42564   7.145   1.587   9.257
80242SOL    HW142565   7.219   1.621   9.206
80242SOL    HW242566   7.119   1.507   9.211
80243SOL     OW42567   7.746  12.105   3.665
80243SOL    HW142568   7.796  12.046   3.608
80243SOL    HW242569   7.809  12.131   3.733
80244SOL     OW42570  10.402   5.146  14.039
80244SOL    HW142571  10.392   5.116  14.130
80244SOL    HW242572  10.495   5.139  14.021
80245SOL     OW42573   1.760   5.997  12.799
80245SOL    HW142574   1.821   6.052  12.749
80245SOL    HW242575   1.778   6.018  12.891
80246SOL     OW42576  10.547   8.452   4.030
80246SOL    HW142577  10.489   8.465   3.955
80246SOL    HW242578  10.633   8.476   3.998
80247SOL     OW42579   4.767   6.993   7.835
80247SOL    HW142580   4.838   7.057   7.844
80247SOL    HW242581   4.812   6.910   7.821
80248SOL     OW42582   5.994  11.151  14.703
80248SOL    HW142583   5.958  11.179  14.619
80248SOL    HW242584   5.961  11.062  14.715
80249SOL     OW42585   2.145   2.796  14.478
80249SOL    HW142586   2.121   2.862  14.543
80249SOL    HW242587   2.135   2.841  14.393
80250SOL     OW42588  12.208   8.092   4.507
80250SOL    HW142589  12.251   8.038   4.574
80250SOL    HW242590  12.243   8.180   4.521
80251SOL     OW42591  13.719   8.986   0.421
80251SOL    HW142592  13.799   9.020   0.460
80251SOL    HW242593  13.662   9.062   0.411
80252SOL     OW42594   2.601   5.232   4.028
80252SOL    HW142595   2.627   5.141   4.041
80252SOL    HW242596   2.653   5.281   4.091
80253SOL     OW42597  14.755   1.166   9.038
80253SOL    HW142598  14.708   1.115   8.973
80253SOL    HW242599  14.847   1.145   9.022
80254SOL     OW42600   1.180   1.584   8.357
80254SOL    HW142601   1.193   1.536   8.276
80254SOL    HW242602   1.148   1.519   8.419
80255SOL     OW42603   6.149   1.507   5.202
80255SOL    HW142604   6.222   1.569   5.204
80255SOL    HW242605   6.085   1.544   5.263
80256SOL     OW42606  13.896   2.247   4.645
80256SOL    HW142607  13.899   2.299   4.565
80256SOL    HW242608  13.817   2.194   4.637
80257SOL     OW42609   9.909  13.369  10.596
80257SOL    HW142610   9.870  13.350  10.682
80257SOL    HW242611   9.848  13.429  10.555
80258SOL     OW42612  14.460  13.544   1.226
80258SOL    HW142613  14.464  13.469   1.166
80258SOL    HW242614  14.414  13.612   1.177
80259SOL     OW42615   6.665   5.487  12.119
80259SOL    HW142616   6.666   5.583  12.124
80259SOL    HW242617   6.756   5.463  12.102
80260SOL     OW42618  10.406   6.711   5.350
80260SOL    HW142619  10.489   6.746   5.319
80260SOL    HW242620  10.372   6.777   5.410
80261SOL     OW42621   3.180   1.516   4.272
80261SOL    HW142622   3.135   1.484   4.351
80261SOL    HW242623   3.234   1.589   4.304
80262SOL     OW42624  14.748   3.473  13.183
80262SOL    HW142625  14.814   3.481  13.114
80262SOL    HW242626  14.743   3.561  13.222
80263SOL     OW42627  13.106   5.238  10.430
80263SOL    HW142628  13.200   5.255  10.435
80263SOL    HW242629  13.084   5.254  10.338
80264SOL     OW42630   2.593   5.068   4.721
80264SOL    HW142631   2.684   5.069   4.691
80264SOL    HW242632   2.573   4.976   4.736
80265SOL     OW42633   6.404   6.378   4.860
80265SOL    HW142634   6.491   6.399   4.825
80265SOL    HW242635   6.367   6.316   4.797
80266SOL     OW42636  13.901  10.694   5.596
80266SOL    HW142637  13.893  10.599   5.610
80266SOL    HW242638  13.812  10.723   5.579
80267SOL     OW42639   3.386   5.431  12.866
80267SOL    HW142640   3.302   5.445  12.909
80267SOL    HW242641   3.366   5.436  12.772
80268SOL     OW42642  10.371  12.509   9.760
80268SOL    HW142643  10.322  12.569   9.816
80268SOL    HW242644  10.313  12.435   9.747
80269SOL     OW42645  13.287   7.496   3.870
80269SOL    HW142646  13.230   7.517   3.943
80269SOL    HW242647  13.374   7.485   3.909
80270SOL     OW42648   0.479   8.020   5.577
80270SOL    HW142649   0.434   7.962   5.516
80270SOL    HW242650   0.467   7.979   5.663
80271SOL     OW42651  10.874   8.151   0.425
80271SOL    HW142652  10.806   8.131   0.490
80271SOL    HW242653  10.842   8.110   0.344
80272SOL     OW42654   9.414   9.268  12.390
80272SOL    HW142655   9.364   9.210  12.448
80272SOL    HW242656   9.348   9.304  12.331
80273SOL     OW42657  13.181  11.443   8.784
80273SOL    HW142658  13.130  11.363   8.771
80273SOL    HW242659  13.116  11.512   8.794
80274SOL     OW42660  11.992   5.972   6.270
80274SOL    HW142661  11.946   6.045   6.312
80274SOL    HW242662  12.042   5.931   6.340
80275SOL     OW42663   2.385   9.191   4.931
80275SOL    HW142664   2.299   9.149   4.928
80275SOL    HW242665   2.429   9.163   4.850
80276SOL     OW42666   5.961   1.388   9.247
80276SOL    HW142667   5.896   1.329   9.285
80276SOL    HW242668   5.932   1.475   9.274
80277SOL     OW42669   4.128   1.161  10.860
80277SOL    HW142670   4.129   1.079  10.812
80277SOL    HW242671   4.137   1.229  10.792
80278SOL     OW42672  13.714   7.411   4.433
80278SOL    HW142673  13.757   7.494   4.454
80278SOL    HW242674  13.772   7.369   4.370
80279SOL     OW42675   4.187   3.559   1.698
80279SOL    HW142676   4.145   3.558   1.612
80279SOL    HW242677   4.121   3.597   1.756
80280SOL     OW42678   7.108   8.386   3.232
80280SOL    HW142679   7.127   8.292   3.231
80280SOL    HW242680   7.176   8.423   3.288
80281SOL     OW42681  14.660   2.392   7.906
80281SOL    HW142682  14.749   2.384   7.873
80281SOL    HW242683  14.616   2.312   7.877
80282SOL     OW42684   0.317   5.608   9.855
80282SOL    HW142685   0.299   5.687   9.906
80282SOL    HW242686   0.380   5.560   9.907
80283SOL     OW42687   5.941   9.027   3.393
80283SOL    HW142688   5.889   8.959   3.351
80283SOL    HW242689   5.941   9.100   3.330
80284SOL     OW42690  13.694   3.710  12.195
80284SOL    HW142691  13.610   3.665  12.204
80284SOL    HW242692  13.752   3.644  12.157
80285SOL     OW42693   4.359   2.510   3.839
80285SOL    HW142694   4.350   2.604   3.854
80285SOL    HW242695   4.275   2.484   3.800
80286SOL     OW42696  13.092  12.008   1.588
80286SOL    HW142697  13.122  12.039   1.502
80286SOL    HW242698  13.111  11.914   1.587
80287SOL     OW42699   0.832   3.768  12.713
80287SOL    HW142700   0.760   3.818  12.750
80287SOL    HW242701   0.791   3.687  12.680
80288SOL     OW42702   0.801   6.600  13.539
80288SOL    HW142703   0.765   6.684  13.566
80288SOL    HW242704   0.878   6.623  13.487
80289SOL     OW42705  11.634   0.724  14.467
80289SOL    HW142706  11.647   0.629  14.466
80289SOL    HW242707  11.717   0.759  14.501
80290SOL     OW42708   9.714   5.891   7.488
80290SOL    HW142709   9.787   5.911   7.547
80290SOL    HW242710   9.665   5.822   7.533
80291SOL     OW42711   2.551   3.420   3.815
80291SOL    HW142712   2.610   3.428   3.740
80291SOL    HW242713   2.580   3.341   3.860
80292SOL     OW42714  14.470  10.852   1.776
80292SOL    HW142715  14.488  10.830   1.684
80292SOL    HW242716  14.523  10.930   1.792
80293SOL     OW42717   2.994   4.396  10.697
80293SOL    HW142718   2.950   4.321  10.735
80293SOL    HW242719   2.924   4.457  10.674
80294SOL     OW42720   7.536   1.140   8.533
80294SOL    HW142721   7.470   1.078   8.564
80294SOL    HW242722   7.619   1.093   8.542
80295SOL     OW42723  11.719   1.396   9.851
80295SOL    HW142724  11.690   1.461   9.787
80295SOL    HW242725  11.788   1.441   9.900
80296SOL     OW42726   1.835   0.911   2.170
80296SOL    HW142727   1.879   0.923   2.085
80296SOL    HW242728   1.840   0.817   2.187
80297SOL     OW42729   5.881   5.731   5.523
80297SOL    HW142730   5.884   5.775   5.608
80297SOL    HW242731   5.973   5.713   5.502
80298SOL     OW42732  10.643  10.611   5.969
80298SOL    HW142733  10.640  10.594   5.875
80298SOL    HW242734  10.559  10.580   6.002
80299SOL     OW42735   7.151   0.608   3.664
80299SOL    HW142736   7.095   0.535   3.636
80299SOL    HW242737   7.091   0.669   3.707
80300SOL     OW42738   2.728  10.722  12.299
80300SOL    HW142739   2.700  10.792  12.357
80300SOL    HW242740   2.714  10.642  12.348
80301SOL     OW42741   2.641   6.768   3.701
80301SOL    HW142742   2.584   6.787   3.775
80301SOL    HW242743   2.643   6.850   3.651
80302SOL     OW42744   8.195   1.847   7.897
80302SOL    HW142745   8.288   1.871   7.896
80302SOL    HW242746   8.170   1.844   7.805
80303SOL     OW42747   4.112   5.384   8.536
80303SOL    HW142748   4.144   5.397   8.625
80303SOL    HW242749   4.110   5.472   8.498
80304SOL     OW42750  13.233   0.367   4.769
80304SOL    HW142751  13.295   0.316   4.821
80304SOL    HW242752  13.218   0.447   4.820
80305SOL     OW42753   4.913   8.238   6.328
80305SOL    HW142754   4.826   8.228   6.288
80305SOL    HW242755   4.966   8.280   6.260
80306SOL     OW42756   4.556   5.511  13.520
80306SOL    HW142757   4.589   5.556  13.598
80306SOL    HW242758   4.499   5.442  13.555
80307SOL     OW42759   0.126   0.100   6.141
80307SOL    HW142760   0.043   0.090   6.094
80307SOL    HW242761   0.108   0.168   6.206
80308SOL     OW42762   5.284   7.786   1.933
80308SOL    HW142763   5.220   7.765   2.001
80308SOL    HW242764   5.253   7.738   1.856
80309SOL     OW42765  13.148   4.749   0.634
80309SOL    HW142766  13.147   4.712   0.723
80309SOL    HW242767  13.227   4.714   0.594
80310SOL     OW42768  13.141   7.987  10.021
80310SOL    HW142769  13.065   8.013   9.968
80310SOL    HW242770  13.206   7.962   9.956
80311SOL     OW42771   4.108   9.496  12.791
80311SOL    HW142772   4.178   9.470  12.730
80311SOL    HW242773   4.145   9.570  12.839
80312SOL     OW42774  10.275   6.819   4.910
80312SOL    HW142775  10.214   6.864   4.851
80312SOL    HW242776  10.352   6.876   4.913
80313SOL     OW42777   8.774  12.579   0.163
80313SOL    HW142778   8.867  12.569   0.184
80313SOL    HW242779   8.729  12.538   0.236
80314SOL     OW42780  13.627  13.370   1.827
80314SOL    HW142781  13.660  13.369   1.916
80314SOL    HW242782  13.680  13.304   1.781
80315SOL     OW42783   0.901  11.274   0.825
80315SOL    HW142784   0.912  11.348   0.885
80315SOL    HW242785   0.852  11.210   0.876
80316SOL     OW42786  14.572   8.450   3.189
80316SOL    HW142787  14.482   8.420   3.200
80316SOL    HW242788  14.593   8.495   3.271
80317SOL     OW42789   3.393   0.046   2.257
80317SOL    HW142790   3.298   0.048   2.241
80317SOL    HW242791   3.411   0.130   2.300
80318SOL     OW42792  13.098  14.756   3.340
80318SOL    HW142793  13.109  14.683   3.400
80318SOL    HW242794  13.137  14.725   3.258
80319SOL     OW42795   1.519  14.870   2.552
80319SOL    HW142796   1.464   0.047   2.497
80319SOL    HW242797   1.503  14.781   2.520
80320SOL     OW42798  13.838   3.978  11.870
80320SOL    HW142799  13.783   4.006  11.943
80320SOL    HW242800  13.793   4.009  11.792
80321SOL     OW42801   8.568  11.953  10.783
80321SOL    HW142802   8.602  11.872  10.822
80321SOL    HW242803   8.625  12.022  10.818
80322SOL     OW42804   1.806   4.947  11.492
80322SOL    HW142805   1.782   4.912  11.578
80322SOL    HW242806   1.722   4.959  11.447
80323SOL     OW42807   9.736  14.104   4.509
80323SOL    HW142808   9.781  14.036   4.558
80323SOL    HW242809   9.643  14.083   4.517
80324SOL     OW42810   2.300   8.993   3.210
80324SOL    HW142811   2.345   8.980   3.126
80324SOL    HW242812   2.253   8.911   3.225
80325SOL     OW42813   4.849   8.346   1.985
80325SOL    HW142814   4.884   8.266   2.025
80325SOL    HW242815   4.859   8.413   2.053
80326SOL     OW42816   0.052   5.875   9.976
80326SOL    HW142817   0.139   5.886   9.936
80326SOL    HW242818  14.872   5.868   9.902
80327SOL     OW42819   6.743   4.276   1.703
80327SOL    HW142820   6.709   4.348   1.757
80327SOL    HW242821   6.838   4.283   1.711
80328SOL     OW42822  13.406   9.004   5.894
80328SOL    HW142823  13.371   8.985   5.981
80328SOL    HW242824  13.366   8.939   5.836
80329SOL     OW42825  13.579  12.075   7.648
80329SOL    HW142826  13.626  12.137   7.592
80329SOL    HW242827  13.500  12.053   7.599
80330SOL     OW42828  14.391   6.534   1.108
80330SOL    HW142829  14.328   6.464   1.127
80330SOL    HW242830  14.361   6.608   1.161
80331SOL     OW42831   3.102  11.448  11.161
80331SOL    HW142832   3.008  11.457  11.142
80331SOL    HW242833   3.121  11.520  11.221
80332SOL     OW42834   8.675   6.954   1.987
80332SOL    HW142835   8.731   7.018   2.032
80332SOL    HW242836   8.709   6.869   2.015
80333SOL     OW42837   2.863   5.098  11.226
80333SOL    HW142838   2.838   5.123  11.314
80333SOL    HW242839   2.950   5.058  11.236
80334SOL     OW42840   4.786   5.803  10.192
80334SOL    HW142841   4.818   5.722  10.231
80334SOL    HW242842   4.737   5.774  10.115
80335SOL     OW42843   2.628   5.843  14.621
80335SOL    HW142844   2.556   5.834  14.558
80335SOL    HW242845   2.590   5.816  14.705
80336SOL     OW42846  14.580   7.814  11.009
80336SOL    HW142847  14.525   7.804  11.087
80336SOL    HW242848  14.634   7.734  11.008
80337SOL     OW42849   5.757   0.901  13.849
80337SOL    HW142850   5.665   0.893  13.874
80337SOL    HW242851   5.761   0.864  13.761
80338SOL     OW42852   3.776   7.725   7.833
80338SOL    HW142853   3.833   7.704   7.758
80338SOL    HW242854   3.769   7.821   7.831
80339SOL     OW42855   4.441  11.904   7.947
80339SOL    HW142856   4.495  11.967   7.899
80339SOL    HW242857   4.504  11.849   7.994
80340SOL     OW42858  14.665  10.082   4.948
80340SOL    HW142859  14.611  10.040   5.015
80340SOL    HW242860  14.749  10.037   4.953
80341SOL     OW42861   5.149   5.383   3.265
80341SOL    HW142862   5.140   5.362   3.172
80341SOL    HW242863   5.178   5.474   3.266
80342SOL     OW42864   9.259   2.830   2.220
80342SOL    HW142865   9.198   2.850   2.291
80342SOL    HW242866   9.304   2.914   2.204
80343SOL     OW42867   3.532   8.813   4.978
80343SOL    HW142868   3.458   8.868   4.954
80343SOL    HW242869   3.606   8.850   4.929
80344SOL     OW42870   2.206   5.656  10.432
80344SOL    HW142871   2.289   5.703  10.439
80344SOL    HW242872   2.147   5.717  10.389
80345SOL     OW42873   9.685  10.803   5.119
80345SOL    HW142874   9.696  10.857   5.197
80345SOL    HW242875   9.601  10.829   5.083
80346SOL     OW42876  14.601  14.024  10.937
80346SOL    HW142877  14.663  14.050  11.005
80346SOL    HW242878  14.640  13.946  10.897
80347SOL     OW42879   0.377   1.198  12.005
80347SOL    HW142880   0.451   1.167  11.952
80347SOL    HW242881   0.332   1.260  11.949
80348SOL     OW42882   7.984   0.319  11.110
80348SOL    HW142883   7.982   0.302  11.016
80348SOL    HW242884   8.028   0.242  11.147
80349SOL     OW42885  14.512   5.789   4.150
80349SOL    HW142886  14.472   5.705   4.175
80349SOL    HW242887  14.588   5.797   4.208
80350SOL     OW42888  12.897   0.730  14.036
80350SOL    HW142889  12.850   0.782  14.101
80350SOL    HW242890  12.982   0.774  14.028
80351SOL     OW42891   1.859   5.330   8.958
80351SOL    HW142892   1.840   5.423   8.964
80351SOL    HW242893   1.788   5.294   8.904
80352SOL     OW42894   3.235   9.035   6.843
80352SOL    HW142895   3.219   9.056   6.935
80352SOL    HW242896   3.158   8.984   6.817
80353SOL     OW42897  13.224  14.026   0.979
80353SOL    HW142898  13.216  14.118   0.953
80353SOL    HW242899  13.137  14.002   1.010
80354SOL     OW42900  11.810  10.382   4.490
80354SOL    HW142901  11.785  10.473   4.505
80354SOL    HW242902  11.856  10.384   4.406
80355SOL     OW42903   8.589  10.554  14.275
80355SOL    HW142904   8.617  10.602  14.352
80355SOL    HW242905   8.664  10.557  14.215
80356SOL     OW42906  11.981   7.854   4.125
80356SOL    HW142907  12.028   7.862   4.208
80356SOL    HW242908  11.962   7.760   4.118
80357SOL     OW42909   8.393  13.984   8.582
80357SOL    HW142910   8.321  13.962   8.523
80357SOL    HW242911   8.472  13.973   8.529
80358SOL     OW42912  12.153   2.767   3.111
80358SOL    HW142913  12.239   2.807   3.102
80358SOL    HW242914  12.170   2.673   3.110
80359SOL     OW42915   8.297   9.790   0.028
80359SOL    HW142916   8.367   9.740  14.864
80359SOL    HW242917   8.335   9.815   0.112
80360SOL     OW42918   9.568   5.478   9.021
80360SOL    HW142919   9.516   5.534   8.962
80360SOL    HW242920   9.509   5.406   9.043
80361SOL     OW42921   9.774   4.254   8.546
80361SOL    HW142922   9.841   4.186   8.552
80361SOL    HW242923   9.800   4.320   8.610
80362SOL     OW42924   2.306   6.085   7.796
80362SOL    HW142925   2.348   6.055   7.876
80362SOL    HW242926   2.315   6.012   7.735
80363SOL     OW42927  14.342   5.446  11.521
80363SOL    HW142928  14.297   5.383  11.464
80363SOL    HW242929  14.316   5.420  11.610
80364SOL     OW42930  14.358   6.434   4.583
80364SOL    HW142931  14.370   6.405   4.492
80364SOL    HW242932  14.422   6.383   4.633
80365SOL     OW42933  11.101   8.214  13.695
80365SOL    HW142934  11.039   8.144  13.673
80365SOL    HW242935  11.178   8.197  13.641
80366SOL     OW42936  11.400   2.150  13.818
80366SOL    HW142937  11.345   2.073  13.831
80366SOL    HW242938  11.337   2.221  13.801
80367SOL     OW42939   1.462   0.367  10.802
80367SOL    HW142940   1.458   0.450  10.849
80367SOL    HW242941   1.483   0.391  10.712
80368SOL     OW42942  11.273  13.157   7.713
80368SOL    HW142943  11.236  13.083   7.665
80368SOL    HW242944  11.198  13.211   7.737
80369SOL     OW42945   4.668  11.271  10.017
80369SOL    HW142946   4.718  11.340  10.061
80369SOL    HW242947   4.600  11.317   9.969
80370SOL     OW42948   8.687  10.561   6.297
80370SOL    HW142949   8.603  10.563   6.342
80370SOL    HW242950   8.741  10.501   6.349
80371SOL     OW42951   0.998   2.603   0.159
80371SOL    HW142952   1.043   2.559   0.231
80371SOL    HW242953   0.932   2.540   0.130
80372SOL     OW42954   2.663   6.698   0.708
80372SOL    HW142955   2.567   6.695   0.714
80372SOL    HW242956   2.684   6.628   0.646
80373SOL     OW42957   9.607  11.876   9.991
80373SOL    HW142958   9.538  11.821   9.955
80373SOL    HW242959   9.612  11.850  10.083
80374SOL     OW42960   5.796  14.147   0.430
80374SOL    HW142961   5.854  14.073   0.415
80374SOL    HW242962   5.776  14.179   0.342
80375SOL     OW42963   2.195  12.870   7.531
80375SOL    HW142964   2.270  12.851   7.586
80375SOL    HW242965   2.119  12.847   7.584
80376SOL     OW42966  11.015  13.396   8.263
80376SOL    HW142967  10.944  13.404   8.326
80376SOL    HW242968  11.084  13.348   8.310
80377SOL     OW42969   4.353   1.860  10.827
80377SOL    HW142970   4.422   1.852  10.892
80377SOL    HW242971   4.367   1.945  10.785
80378SOL     OW42972   4.326   8.234  10.508
80378SOL    HW142973   4.401   8.281  10.472
80378SOL    HW242974   4.355   8.205  10.594
80379SOL     OW42975  11.184  11.737   7.509
80379SOL    HW142976  11.200  11.647   7.537
80379SOL    HW242977  11.194  11.735   7.413
80380SOL     OW42978  13.017  12.645   7.303
80380SOL    HW142979  13.065  12.659   7.385
80380SOL    HW242980  13.066  12.576   7.258
80381SOL     OW42981   9.385   5.867  11.322
80381SOL    HW142982   9.452   5.804  11.350
80381SOL    HW242983   9.434   5.932  11.271
80382SOL     OW42984   9.989  10.215  12.943
80382SOL    HW142985   9.957  10.185  13.028
80382SOL    HW242986   9.936  10.167  12.879
80383SOL     OW42987  13.697   5.292  14.755
80383SOL    HW142988  13.603   5.300  14.768
80383SOL    HW242989  13.714   5.335  14.672
80384SOL     OW42990   5.768   9.897   0.702
80384SOL    HW142991   5.676   9.912   0.681
80384SOL    HW242992   5.815   9.952   0.639
80385SOL     OW42993  13.790   1.699   6.664
80385SOL    HW142994  13.832   1.661   6.586
80385SOL    HW242995  13.725   1.635   6.690
80386SOL     OW42996  11.563   2.219   1.673
80386SOL    HW142997  11.548   2.134   1.630
80386SOL    HW242998  11.589   2.277   1.601
80387SOL     OW42999   4.002  13.986   1.688
80387SOL    HW143000   3.996  14.042   1.611
80387SOL    HW243001   3.912  13.968   1.713
80388SOL     OW43002   8.468   1.555   9.022
80388SOL    HW143003   8.468   1.649   9.038
80388SOL    HW243004   8.381   1.537   8.986
80389SOL     OW43005  11.418  14.517  12.071
80389SOL    HW143006  11.475  14.526  12.147
80389SOL    HW243007  11.470  14.467  12.008
80390SOL     OW43008   3.257   6.676   6.375
80390SOL    HW143009   3.300   6.762   6.368
80390SOL    HW243010   3.328   6.613   6.360
80391SOL     OW43011  10.740  11.961   9.106
80391SOL    HW143012  10.708  12.015   9.178
80391SOL    HW243013  10.672  11.968   9.039
80392SOL     OW43014   5.033   4.496  12.460
80392SOL    HW143015   4.961   4.498  12.522
80392SOL    HW243016   5.030   4.408  12.423
80393SOL     OW43017   2.460   2.833   8.083
80393SOL    HW143018   2.477   2.762   8.144
80393SOL    HW243019   2.514   2.812   8.007
80394SOL     OW43020   8.597   0.711   6.516
80394SOL    HW143021   8.598   0.617   6.498
80394SOL    HW243022   8.686   0.740   6.496
80395SOL     OW43023  11.007  14.260   9.228
80395SOL    HW143024  11.091  14.261   9.274
80395SOL    HW243025  10.978  14.169   9.234
80396SOL     OW43026   8.075   4.991   2.030
80396SOL    HW143027   7.981   4.984   2.016
80396SOL    HW243028   8.113   4.978   1.943
80397SOL     OW43029   8.808   8.990   2.319
80397SOL    HW143030   8.817   8.913   2.375
80397SOL    HW243031   8.864   9.056   2.361
80398SOL     OW43032   3.800   9.122  13.616
80398SOL    HW143033   3.741   9.086  13.683
80398SOL    HW243034   3.856   9.049  13.592
80399SOL     OW43035   0.715   3.662   2.331
80399SOL    HW143036   0.786   3.670   2.394
80399SOL    HW243037   0.702   3.567   2.322
80400SOL     OW43038   5.583   3.146   6.712
80400SOL    HW143039   5.586   3.215   6.778
80400SOL    HW243040   5.497   3.156   6.671
80401SOL     OW43041   0.030   2.879   5.053
80401SOL    HW143042  14.820   2.873   5.086
80401SOL    HW243043   0.085   2.854   5.127
80402SOL     OW43044  13.012   7.635   9.978
80402SOL    HW143045  13.054   7.643   9.892
80402SOL    HW243046  13.084   7.645  10.041
80403SOL     OW43047   3.927   2.716  11.477
80403SOL    HW143048   3.979   2.742  11.553
80403SOL    HW243049   3.880   2.796  11.452
80404SOL     OW43050   0.324   0.884   5.499
80404SOL    HW143051   0.323   0.881   5.404
80404SOL    HW243052   0.345   0.975   5.520
80405SOL     OW43053   0.567   8.452   4.307
80405SOL    HW143054   0.503   8.396   4.350
80405SOL    HW243055   0.564   8.535   4.355
80406SOL     OW43056   9.672  14.250   2.793
80406SOL    HW143057   9.589  14.208   2.814
80406SOL    HW243058   9.717  14.187   2.737
80407SOL     OW43059   2.960   8.000   3.016
80407SOL    HW143060   3.007   8.076   2.981
80407SOL    HW243061   2.987   7.995   3.108
80408SOL     OW43062  12.302   6.294  13.104
80408SOL    HW143063  12.341   6.346  13.174
80408SOL    HW243064  12.331   6.337  13.023
80409SOL     OW43065   0.099   7.277   0.037
80409SOL    HW143066   0.113   7.343  14.848
80409SOL    HW243067   0.160   7.301   0.107
80410SOL     OW43068   0.364  12.401  14.062
80410SOL    HW143069   0.300  12.333  14.083
80410SOL    HW243070   0.433  12.355  14.014
80411SOL     OW43071   7.610   0.454  12.091
80411SOL    HW143072   7.600   0.505  12.172
80411SOL    HW243073   7.604   0.519  12.021
80412SOL     OW43074   2.387  10.813  10.384
80412SOL    HW143075   2.359  10.856  10.303
80412SOL    HW243076   2.462  10.759  10.358
80413SOL     OW43077   6.260   4.471  10.809
80413SOL    HW143078   6.288   4.560  10.787
80413SOL    HW243079   6.177   4.483  10.856
80414SOL     OW43080   2.073   0.464   5.616
80414SOL    HW143081   2.122   0.448   5.696
80414SOL    HW243082   1.981   0.459   5.642
80415SOL     OW43083   0.389   0.475  12.200
80415SOL    HW143084   0.335   0.446  12.273
80415SOL    HW243085   0.448   0.540  12.238
80416SOL     OW43086  10.437  12.842  13.541
80416SOL    HW143087  10.511  12.826  13.482
80416SOL    HW243088  10.409  12.931  13.519
80417SOL     OW43089   2.923   0.195  12.615
80417SOL    HW143090   2.982   0.269  12.630
80417SOL    HW243091   2.836   0.234  12.613
80418SOL     OW43092  11.932   8.290   4.358
80418SOL    HW143093  12.007   8.231   4.367
80418SOL    HW243094  11.859   8.233   4.336
80419SOL     OW43095  11.810  11.680   6.381
80419SOL    HW143096  11.831  11.587   6.372
80419SOL    HW243097  11.869  11.724   6.321
80420SOL     OW43098   6.918   4.203  11.598
80420SOL    HW143099   6.890   4.115  11.623
80420SOL    HW243100   6.846   4.260  11.624
80421SOL     OW43101   2.071  11.711  12.422
80421SOL    HW143102   2.039  11.748  12.339
80421SOL    HW243103   2.028  11.764  12.489
80422SOL     OW43104   8.221  12.987   0.955
80422SOL    HW143105   8.306  13.027   0.937
80422SOL    HW243106   8.162  13.061   0.965
80423SOL     OW43107   6.698  14.337  14.633
80423SOL    HW143108   6.697  14.404  14.701
80423SOL    HW243109   6.674  14.256  14.678
80424SOL     OW43110   1.581   5.110  11.186
80424SOL    HW143111   1.589   5.201  11.156
80424SOL    HW243112   1.671   5.085  11.209
80425SOL     OW43113   5.983   2.632  14.307
80425SOL    HW143114   5.997   2.726  14.296
80425SOL    HW243115   5.892   2.618  14.280
80426SOL     OW43116  12.019  10.057  10.108
80426SOL    HW143117  11.984  10.006  10.036
80426SOL    HW243118  11.989  10.146  10.092
80427SOL     OW43119  11.398   6.441  10.882
80427SOL    HW143120  11.381   6.527  10.845
80427SOL    HW243121  11.335   6.433  10.953
80428SOL     OW43122  10.834   7.055   7.082
80428SOL    HW143123  10.775   7.034   7.155
80428SOL    HW243124  10.862   6.969   7.049
80429SOL     OW43125  13.818  12.912   7.967
80429SOL    HW143126  13.779  12.997   7.944
80429SOL    HW243127  13.908  12.933   7.992
80430SOL     OW43128  13.860   9.439   8.619
80430SOL    HW143129  13.800   9.513   8.624
80430SOL    HW243130  13.803   9.362   8.631
80431SOL     OW43131  13.047   5.229   8.450
80431SOL    HW143132  13.122   5.288   8.447
80431SOL    HW243133  13.081   5.148   8.489
80432SOL     OW43134   6.385   2.474  10.039
80432SOL    HW143135   6.454   2.411  10.059
80432SOL    HW243136   6.364   2.513  10.124
80433SOL     OW43137  12.375   0.434  11.384
80433SOL    HW143138  12.287   0.408  11.411
80433SOL    HW243139  12.421   0.352  11.366
80434SOL     OW43140   9.646   0.503  12.046
80434SOL    HW143141   9.650   0.552  12.128
80434SOL    HW243142   9.559   0.519  12.012
80435SOL     OW43143  12.012   0.334  13.206
80435SOL    HW143144  12.084   0.295  13.255
80435SOL    HW243145  11.996   0.274  13.133
80436SOL     OW43146   9.550   1.178   6.337
80436SOL    HW143147   9.626   1.138   6.380
80436SOL    HW243148   9.583   1.263   6.306
80437SOL     OW43149   3.066   5.358   1.839
80437SOL    HW143150   3.110   5.288   1.791
80437SOL    HW243151   2.985   5.373   1.791
80438SOL     OW43152  11.487  13.951   1.264
80438SOL    HW143153  11.540  13.996   1.198
80438SOL    HW243154  11.444  13.880   1.216
80439SOL     OW43155  13.716   0.960   5.981
80439SOL    HW143156  13.702   0.902   5.906
80439SOL    HW243157  13.641   0.944   6.039
80440SOL     OW43158   7.117  10.919   0.781
80440SOL    HW143159   7.204  10.947   0.754
80440SOL    HW243160   7.127  10.827   0.805
80441SOL     OW43161  14.311  12.321  12.863
80441SOL    HW143162  14.370  12.245  12.854
80441SOL    HW243163  14.280  12.317  12.954
80442SOL     OW43164   1.852   0.541   4.324
80442SOL    HW143165   1.838   0.552   4.230
80442SOL    HW243166   1.763   0.543   4.361
80443SOL     OW43167   5.593   8.945   8.110
80443SOL    HW143168   5.525   8.928   8.174
80443SOL    HW243169   5.559   9.017   8.056
80444SOL     OW43170  14.266   6.510  11.694
80444SOL    HW143171  14.270   6.590  11.642
80444SOL    HW243172  14.228   6.537  11.777
80445SOL     OW43173  12.849  14.223   1.362
80445SOL    HW143174  12.803  14.140   1.349
80445SOL    HW243175  12.779  14.289   1.362
80446SOL     OW43176  10.700  11.312   3.259
80446SOL    HW143177  10.618  11.262   3.261
80446SOL    HW243178  10.705  11.352   3.346
80447SOL     OW43179   8.268  10.860   3.552
80447SOL    HW143180   8.263  10.902   3.638
80447SOL    HW243181   8.187  10.884   3.508
80448SOL     OW43182   6.911   1.220   7.284
80448SOL    HW143183   6.936   1.127   7.282
80448SOL    HW243184   6.919   1.244   7.377
80449SOL     OW43185   4.066  13.203   9.176
80449SOL    HW143186   4.082  13.221   9.269
80449SOL    HW243187   4.100  13.114   9.163
80450SOL     OW43188  10.436   2.357  12.559
80450SOL    HW143189  10.363   2.317  12.511
80450SOL    HW243190  10.513   2.308  12.531
80451SOL     OW43191   7.213  12.009  14.318
80451SOL    HW143192   7.196  11.915  14.313
80451SOL    HW243193   7.203  12.030  14.411
80452SOL     OW43194   2.715   3.152   0.683
80452SOL    HW143195   2.736   3.106   0.764
80452SOL    HW243196   2.797   3.193   0.656
80453SOL     OW43197   8.975  14.806  10.218
80453SOL    HW143198   8.998  14.849  10.300
80453SOL    HW243199   9.008  14.717  10.227
80454SOL     OW43200   9.192   3.371   0.904
80454SOL    HW143201   9.158   3.432   0.837
80454SOL    HW243202   9.134   3.296   0.899
80455SOL     OW43203   8.194  10.337   9.818
80455SOL    HW143204   8.288  10.343   9.801
80455SOL    HW243205   8.186  10.264   9.880
80456SOL     OW43206   9.778   4.260  13.232
80456SOL    HW143207   9.798   4.168  13.251
80456SOL    HW243208   9.688   4.258  13.200
80457SOL     OW43209   6.095   3.428   2.419
80457SOL    HW143210   6.074   3.365   2.350
80457SOL    HW243211   6.035   3.407   2.491
80458SOL     OW43212  12.313   1.446   2.155
80458SOL    HW143213  12.310   1.493   2.072
80458SOL    HW243214  12.238   1.478   2.204
80459SOL     OW43215  11.826  12.637   8.229
80459SOL    HW143216  11.841  12.546   8.256
80459SOL    HW243217  11.913  12.676   8.231
80460SOL     OW43218   2.041   3.215   4.992
80460SOL    HW143219   2.009   3.305   4.981
80460SOL    HW243220   1.962   3.161   4.992
80461SOL     OW43221  12.836   3.030   2.630
80461SOL    HW143222  12.751   3.053   2.668
80461SOL    HW243223  12.876   3.113   2.607
80462SOL     OW43224  10.361   9.793   6.869
80462SOL    HW143225  10.429   9.775   6.934
80462SOL    HW243226  10.359   9.889   6.863
80463SOL     OW43227   0.354   0.979   9.877
80463SOL    HW143228   0.289   0.908   9.880
80463SOL    HW243229   0.434   0.936   9.848
80464SOL     OW43230   0.286   5.065   0.993
80464SOL    HW143231   0.330   5.067   0.909
80464SOL    HW243232   0.212   5.005   0.980
80465SOL     OW43233   6.729   3.112  11.314
80465SOL    HW143234   6.800   3.160  11.357
80465SOL    HW243235   6.768   3.081  11.232
80466SOL     OW43236   3.379   3.163  14.041
80466SOL    HW143237   3.371   3.186  13.949
80466SOL    HW243238   3.303   3.108  14.058
80467SOL     OW43239   7.875   9.789  13.148
80467SOL    HW143240   7.914   9.703  13.137
80467SOL    HW243241   7.948   9.850  13.139
80468SOL     OW43242   9.737   7.263   8.316
80468SOL    HW143243   9.777   7.349   8.299
80468SOL    HW243244   9.716   7.229   8.230
80469SOL     OW43245   3.391   6.736  12.811
80469SOL    HW143246   3.323   6.798  12.836
80469SOL    HW243247   3.422   6.699  12.894
80470SOL     OW43248  10.192   0.603  12.362
80470SOL    HW143249  10.286   0.621  12.372
80470SOL    HW243250  10.178   0.523  12.412
80471SOL     OW43251  10.964   0.502   3.299
80471SOL    HW143252  10.969   0.407   3.313
80471SOL    HW243253  10.870   0.522   3.302
80472SOL     OW43254  12.646   9.550  10.092
80472SOL    HW143255  12.599   9.612  10.148
80472SOL    HW243256  12.583   9.478  10.079
80473SOL     OW43257  13.746  14.431   8.425
80473SOL    HW143258  13.788  14.416   8.340
80473SOL    HW243259  13.670  14.485   8.406
80474SOL     OW43260  13.505   8.418   8.337
80474SOL    HW143261  13.458   8.338   8.312
80474SOL    HW243262  13.571   8.429   8.269
80475SOL     OW43263  12.802   5.778   2.674
80475SOL    HW143264  12.846   5.780   2.759
80475SOL    HW243265  12.735   5.710   2.683
80476SOL     OW43266  14.585   9.958   9.323
80476SOL    HW143267  14.639   9.908   9.384
80476SOL    HW243268  14.536   9.891   9.274
80477SOL     OW43269   7.573   9.528   1.511
80477SOL    HW143270   7.625   9.460   1.467
80477SOL    HW243271   7.500   9.480   1.551
80478SOL     OW43272   1.794  12.724  12.630
80478SOL    HW143273   1.770  12.637  12.663
80478SOL    HW243274   1.710  12.765  12.609
80479SOL     OW43275   2.319  13.238   0.170
80479SOL    HW143276   2.241  13.292   0.159
80479SOL    HW243277   2.329  13.193   0.086
80480SOL     OW43278   4.979   6.365   0.383
80480SOL    HW143279   5.060   6.416   0.371
80480SOL    HW243280   4.927   6.384   0.305
80481SOL     OW43281   1.536  13.085   9.454
80481SOL    HW143282   1.503  13.175   9.462
80481SOL    HW243283   1.615  13.084   9.507
80482SOL     OW43284   6.533   2.415   7.860
80482SOL    HW143285   6.607   2.354   7.862
80482SOL    HW243286   6.456   2.359   7.871
80483SOL     OW43287   1.065   3.354   5.502
80483SOL    HW143288   1.077   3.297   5.578
80483SOL    HW243289   0.973   3.340   5.476
80484SOL     OW43290   3.717   9.337   5.510
80484SOL    HW143291   3.801   9.368   5.476
80484SOL    HW243292   3.671   9.302   5.434
80485SOL     OW43293  11.402   5.756  12.669
80485SOL    HW143294  11.330   5.816  12.648
80485SOL    HW243295  11.481   5.802  12.640
80486SOL     OW43296   9.170  12.542  13.186
80486SOL    HW143297   9.187  12.485  13.112
80486SOL    HW243298   9.124  12.487  13.249
80487SOL     OW43299   3.322   3.013  12.382
80487SOL    HW143300   3.385   3.026  12.453
80487SOL    HW243301   3.274   2.934  12.406
80488SOL     OW43302   4.569  11.496  12.539
80488SOL    HW143303   4.522  11.520  12.459
80488SOL    HW243304   4.653  11.462  12.509
80489SOL     OW43305   8.219   3.890   3.128
80489SOL    HW143306   8.188   3.825   3.191
80489SOL    HW243307   8.162   3.879   3.052
80490SOL     OW43308  10.241   0.402  10.301
80490SOL    HW143309  10.157   0.446  10.309
80490SOL    HW243310  10.233   0.349  10.222
80491SOL     OW43311  12.004   3.837   3.905
80491SOL    HW143312  12.065   3.776   3.947
80491SOL    HW243313  11.960   3.880   3.978
80492SOL     OW43314   9.877   8.017   3.971
80492SOL    HW143315   9.924   7.938   4.000
80492SOL    HW243316   9.883   8.077   4.046
80493SOL     OW43317   7.060  11.312   0.505
80493SOL    HW143318   7.106  11.376   0.451
80493SOL    HW243319   7.116  11.234   0.503
80494SOL     OW43320   1.193   2.491   7.276
80494SOL    HW143321   1.213   2.444   7.357
80494SOL    HW243322   1.263   2.467   7.216
80495SOL     OW43323   8.205  14.543   6.906
80495SOL    HW143324   8.175  14.621   6.860
80495SOL    HW243325   8.288  14.569   6.945
80496SOL     OW43326   5.391   0.348   9.365
80496SOL    HW143327   5.366   0.288   9.295
80496SOL    HW243328   5.309   0.367   9.411
80497SOL     OW43329  10.046   2.885   2.722
80497SOL    HW143330   9.973   2.929   2.679
80497SOL    HW243331  10.113   2.952   2.730
80498SOL     OW43332   2.401   7.695   6.202
80498SOL    HW143333   2.457   7.731   6.133
80498SOL    HW243334   2.378   7.771   6.256
80499SOL     OW43335  11.351   5.394  13.006
80499SOL    HW143336  11.422   5.428  13.060
80499SOL    HW243337  11.362   5.438  12.922
80500SOL     OW43338  12.711   4.250   3.963
80500SOL    HW143339  12.686   4.281   3.875
80500SOL    HW243340  12.736   4.329   4.010
80501SOL     OW43341   9.533  10.817  10.522
80501SOL    HW143342   9.512  10.767  10.602
80501SOL    HW243343   9.545  10.750  10.455
80502SOL     OW43344   3.276  10.665  13.389
80502SOL    HW143345   3.354  10.713  13.419
80502SOL    HW243346   3.282  10.581  13.433
80503SOL     OW43347   8.340  13.289   6.943
80503SOL    HW143348   8.421  13.280   6.893
80503SOL    HW243349   8.272  13.299   6.877
80504SOL     OW43350   7.897   4.257   0.509
80504SOL    HW143351   7.808   4.272   0.543
80504SOL    HW243352   7.952   4.313   0.564
80505SOL     OW43353   9.456   4.725   5.472
80505SOL    HW143354   9.364   4.744   5.457
80505SOL    HW243355   9.484   4.675   5.396
80506SOL     OW43356  11.811   5.805  12.256
80506SOL    HW143357  11.758   5.805  12.176
80506SOL    HW243358  11.901   5.805  12.224
80507SOL     OW43359  11.660  13.653  12.835
80507SOL    HW143360  11.702  13.576  12.874
80507SOL    HW243361  11.670  13.722  12.901
80508SOL     OW43362   5.875  14.485  12.528
80508SOL    HW143363   5.895  14.573  12.496
80508SOL    HW243364   5.845  14.437  12.450
80509SOL     OW43365   2.949   0.148   8.051
80509SOL    HW143366   3.035   0.182   8.026
80509SOL    HW243367   2.914   0.110   7.971
80510SOL     OW43368   1.559   8.819  14.851
80510SOL    HW143369   1.541   8.726  14.837
80510SOL    HW243370   1.477   8.863  14.827
80511SOL     OW43371   9.005   6.572   2.787
80511SOL    HW143372   8.986   6.532   2.872
80511SOL    HW243373   9.092   6.539   2.764
80512SOL     OW43374   7.225   9.491  11.938
80512SOL    HW143375   7.217   9.455  12.026
80512SOL    HW243376   7.136   9.495  11.905
80513SOL     OW43377  11.357   3.736   6.645
80513SOL    HW143378  11.262   3.728   6.644
80513SOL    HW243379  11.373   3.828   6.621
80514SOL     OW43380   5.175  14.273  11.053
80514SOL    HW143381   5.210  14.185  11.043
80514SOL    HW243382   5.173  14.309  10.964
80515SOL     OW43383   1.077   5.727  14.571
80515SOL    HW143384   1.058   5.804  14.518
80515SOL    HW243385   1.007   5.724  14.636
80516SOL     OW43386  12.385   2.907   7.141
80516SOL    HW143387  12.307   2.873   7.096
80516SOL    HW243388  12.434   2.830   7.167
80517SOL     OW43389   7.395  13.846   8.035
80517SOL    HW143390   7.424  13.756   8.050
80517SOL    HW243391   7.411  13.860   7.941
80518SOL     OW43392   8.043   7.738  11.671
80518SOL    HW143393   8.103   7.693  11.730
80518SOL    HW243394   7.984   7.669  11.640
80519SOL     OW43395  10.831   9.701  11.623
80519SOL    HW143396  10.819   9.722  11.530
80519SOL    HW243397  10.751   9.732  11.665
80520SOL     OW43398  13.773   1.012  12.602
80520SOL    HW143399  13.704   0.946  12.603
80520SOL    HW243400  13.841   0.978  12.660
80521SOL     OW43401   3.580   9.319   5.190
80521SOL    HW143402   3.504   9.290   5.139
80521SOL    HW243403   3.559   9.408   5.217
80522SOL     OW43404   1.286  11.803  13.356
80522SOL    HW143405   1.303  11.781  13.448
80522SOL    HW243406   1.198  11.842  13.356
80523SOL     OW43407   7.452   3.903   5.903
80523SOL    HW143408   7.545   3.890   5.887
80523SOL    HW243409   7.447   3.937   5.992
80524SOL     OW43410  11.770  14.308   5.139
80524SOL    HW143411  11.852  14.307   5.088
80524SOL    HW243412  11.724  14.386   5.109
80525SOL     OW43413  13.838   4.090   1.608
80525SOL    HW143414  13.883   4.010   1.633
80525SOL    HW243415  13.902   4.140   1.558
80526SOL     OW43416  11.025   7.135  14.492
80526SOL    HW143417  11.062   7.123  14.579
80526SOL    HW243418  10.931   7.124  14.504
80527SOL     OW43419  11.257   9.825   1.892
80527SOL    HW143420  11.161   9.821   1.888
80527SOL    HW243421  11.276   9.919   1.883
80528SOL     OW43422   8.847   9.656  13.088
80528SOL    HW143423   8.805   9.726  13.039
80528SOL    HW243424   8.896   9.607  13.022
80529SOL     OW43425   5.748  14.130   2.121
80529SOL    HW143426   5.716  14.119   2.032
80529SOL    HW243427   5.687  14.079   2.175
80530SOL     OW43428   0.565  14.540   5.424
80530SOL    HW143429   0.537  14.468   5.368
80530SOL    HW243430   0.599  14.498   5.503
80531SOL     OW43431   0.918   6.903   1.970
80531SOL    HW143432   1.008   6.886   1.995
80531SOL    HW243433   0.890   6.826   1.921
80532SOL     OW43434   7.911   5.706   8.264
80532SOL    HW143435   7.834   5.725   8.209
80532SOL    HW243436   7.874   5.673   8.346
80533SOL     OW43437   5.472  14.193  10.533
80533SOL    HW143438   5.556  14.238  10.522
80533SOL    HW243439   5.436  14.190  10.444
80534SOL     OW43440  13.223   0.741   3.803
80534SOL    HW143441  13.195   0.832   3.795
80534SOL    HW243442  13.242   0.729   3.896
80535SOL     OW43443  12.740   9.626  13.460
80535SOL    HW143444  12.786   9.560  13.512
80535SOL    HW243445  12.655   9.586  13.440
80536SOL     OW43446   1.346   0.442  11.572
80536SOL    HW143447   1.350   0.470  11.663
80536SOL    HW243448   1.435   0.413  11.551
80537SOL     OW43449   0.721   7.001  12.754
80537SOL    HW143450   0.674   7.084  12.761
80537SOL    HW243451   0.812   7.027  12.741
80538SOL     OW43452  14.716  12.104   6.534
80538SOL    HW143453  14.791  12.099   6.474
80538SOL    HW243454  14.690  12.013   6.549
80539SOL     OW43455  14.635   5.668   4.605
80539SOL    HW143456  14.575   5.616   4.553
80539SOL    HW243457  14.722   5.639   4.578
80540SOL     OW43458   6.310   5.065   9.796
80540SOL    HW143459   6.256   5.089   9.872
80540SOL    HW243460   6.247   5.041   9.728
80541SOL     OW43461  11.299  12.448  11.516
80541SOL    HW143462  11.251  12.487  11.589
80541SOL    HW243463  11.340  12.522  11.473
80542SOL     OW43464   6.158   1.794   5.725
80542SOL    HW143465   6.084   1.855   5.730
80542SOL    HW243466   6.127   1.717   5.773
80543SOL     OW43467   8.336   4.787   7.572
80543SOL    HW143468   8.428   4.813   7.581
80543SOL    HW243469   8.316   4.739   7.652
80544SOL     OW43470  10.185   9.710   0.062
80544SOL    HW143471  10.260   9.651   0.067
80544SOL    HW243472  10.188   9.759   0.143
80545SOL     OW43473  11.952  12.029   3.309
80545SOL    HW143474  12.023  12.030   3.373
80545SOL    HW243475  11.873  12.044   3.360
80546SOL     OW43476  14.671  12.959   3.947
80546SOL    HW143477  14.687  12.876   3.991
80546SOL    HW243478  14.690  13.025   4.014
80547SOL     OW43479   2.734   6.398  11.151
80547SOL    HW143480   2.768   6.487  11.161
80547SOL    HW243481   2.686   6.381  11.232
80548SOL     OW43482   3.868   1.117   8.361
80548SOL    HW143483   3.891   1.200   8.318
80548SOL    HW243484   3.944   1.061   8.346
80549SOL     OW43485  14.694   5.923   1.876
80549SOL    HW143486  14.652   5.994   1.828
80549SOL    HW243487  14.633   5.901   1.946
80550SOL     OW43488   3.587   8.188   6.784
80550SOL    HW143489   3.644   8.264   6.772
80550SOL    HW243490   3.591   8.141   6.700
80551SOL     OW43491  12.828   0.282   9.858
80551SOL    HW143492  12.855   0.196   9.825
80551SOL    HW243493  12.739   0.294   9.823
80552SOL     OW43494   3.104   3.485  14.845
80552SOL    HW143495   3.034   3.538  14.806
80552SOL    HW243496   3.063   3.444   0.041
80553SOL     OW43497   2.404  13.530   9.343
80553SOL    HW143498   2.415  13.625   9.349
80553SOL    HW243499   2.425  13.509   9.253
80554SOL     OW43500   6.087  14.808   3.079
80554SOL    HW143501   6.071   0.023   3.088
80554SOL    HW243502   6.165  14.802   3.024
80555SOL     OW43503  14.392   3.271   2.573
80555SOL    HW143504  14.443   3.201   2.613
80555SOL    HW243505  14.442   3.351   2.593
80556SOL     OW43506   1.763  11.816   8.017
80556SOL    HW143507   1.833  11.851   8.071
80556SOL    HW243508   1.808  11.764   7.950
80557SOL     OW43509   0.254  11.782   4.060
80557SOL    HW143510   0.249  11.877   4.054
80557SOL    HW243511   0.224  11.751   3.975
80558SOL     OW43512  14.266  13.738   3.402
80558SOL    HW143513  14.312  13.822   3.411
80558SOL    HW243514  14.193  13.745   3.464
80559SOL     OW43515  11.752   7.453   9.473
80559SOL    HW143516  11.745   7.357   9.470
80559SOL    HW243517  11.688   7.484   9.409
80560SOL     OW43518   1.445  10.869  11.592
80560SOL    HW143519   1.422  10.921  11.515
80560SOL    HW243520   1.506  10.803  11.559
80561SOL     OW43521   1.576   8.446   6.087
80561SOL    HW143522   1.564   8.434   6.181
80561SOL    HW243523   1.649   8.387   6.064
80562SOL     OW43524   1.206   0.739  12.351
80562SOL    HW143525   1.267   0.666  12.350
80562SOL    HW243526   1.132   0.708  12.402
80563SOL     OW43527  12.754  14.313   7.509
80563SOL    HW143528  12.703  14.359   7.577
80563SOL    HW243529  12.712  14.339   7.427
80564SOL     OW43530   3.520   8.802   3.786
80564SOL    HW143531   3.478   8.732   3.836
80564SOL    HW243532   3.471   8.806   3.704
80565SOL     OW43533   1.845   3.889   6.389
80565SOL    HW143534   1.816   3.979   6.377
80565SOL    HW243535   1.830   3.870   6.481
80566SOL     OW43536  11.104   5.078   3.400
80566SOL    HW143537  11.184   5.027   3.386
80566SOL    HW243538  11.056   5.070   3.318
80567SOL     OW43539  14.472   8.434  14.308
80567SOL    HW143540  14.556   8.422  14.264
80567SOL    HW243541  14.495   8.467  14.395
80568SOL     OW43542   9.329   2.800  10.725
80568SOL    HW143543   9.313   2.707  10.739
80568SOL    HW243544   9.288   2.819  10.640
80569SOL     OW43545   0.241   5.227   5.137
80569SOL    HW143546   0.198   5.280   5.204
80569SOL    HW243547   0.305   5.174   5.185
80570SOL     OW43548   6.870   4.705   3.432
80570SOL    HW143549   6.775   4.710   3.417
80570SOL    HW243550   6.904   4.657   3.357
80571SOL     OW43551   7.821   6.541  13.675
80571SOL    HW143552   7.854   6.472  13.617
80571SOL    HW243553   7.785   6.493  13.750
80572SOL     OW43554   0.148   7.336  12.600
80572SOL    HW143555   0.193   7.296  12.525
80572SOL    HW243556   0.056   7.317  12.585
80573SOL     OW43557  12.756   6.091  10.197
80573SOL    HW143558  12.795   6.012  10.235
80573SOL    HW243559  12.751   6.072  10.103
80574SOL     OW43560   9.630   2.566   3.573
80574SOL    HW143561   9.552   2.620   3.563
80574SOL    HW243562   9.599   2.476   3.559
80575SOL     OW43563  14.795   6.753   1.767
80575SOL    HW143564  14.854   6.687   1.804
80575SOL    HW243565  14.746   6.786   1.842
80576SOL     OW43566   7.979   6.695  14.738
80576SOL    HW143567   8.008   6.619  14.687
80576SOL    HW243568   7.923   6.658  14.806
80577SOL     OW43569   7.617   7.386  10.661
80577SOL    HW143570   7.543   7.341  10.702
80577SOL    HW243571   7.636   7.335  10.582
80578SOL     OW43572  12.634   4.322  11.363
80578SOL    HW143573  12.661   4.388  11.427
80578SOL    HW243574  12.646   4.239  11.409
80579SOL     OW43575   4.417   5.551   9.163
80579SOL    HW143576   4.426   5.644   9.143
80579SOL    HW243577   4.322   5.538   9.170
80580SOL     OW43578  14.424   1.557   2.898
80580SOL    HW143579  14.397   1.629   2.955
80580SOL    HW243580  14.516   1.574   2.879
80581SOL     OW43581   5.199   3.752   4.147
80581SOL    HW143582   5.145   3.720   4.074
80581SOL    HW243583   5.286   3.761   4.110
80582SOL     OW43584   5.434   7.628   8.451
80582SOL    HW143585   5.466   7.718   8.439
80582SOL    HW243586   5.433   7.591   8.363
80583SOL     OW43587   6.777   7.120   0.716
80583SOL    HW143588   6.694   7.164   0.700
80583SOL    HW243589   6.768   7.081   0.803
80584SOL     OW43590  13.788  11.306  13.099
80584SOL    HW143591  13.818  11.290  13.189
80584SOL    HW243592  13.856  11.361  13.061
80585SOL     OW43593   6.878   0.144  12.637
80585SOL    HW143594   6.800   0.200  12.635
80585SOL    HW243595   6.856   0.074  12.698
80586SOL     OW43596   3.486   7.081  13.973
80586SOL    HW143597   3.503   7.048  14.061
80586SOL    HW243598   3.565   7.131  13.950
80587SOL     OW43599   2.345  12.498   1.653
80587SOL    HW143600   2.313  12.573   1.603
80587SOL    HW243601   2.403  12.451   1.592
80588SOL     OW43602   8.662  11.095  14.065
80588SOL    HW143603   8.711  11.049  13.996
80588SOL    HW243604   8.683  11.047  14.145
80589SOL     OW43605   4.701  14.104  14.707
80589SOL    HW143606   4.748  14.154  14.639
80589SOL    HW243607   4.669  14.027  14.661
80590SOL     OW43608  10.819  11.438  12.107
80590SOL    HW143609  10.881  11.507  12.133
80590SOL    HW243610  10.850  11.360  12.154
80591SOL     OW43611   4.484   9.589   5.454
80591SOL    HW143612   4.519   9.612   5.540
80591SOL    HW243613   4.551   9.533   5.416
80592SOL     OW43614  13.666   7.249   8.982
80592SOL    HW143615  13.595   7.296   8.937
80592SOL    HW243616  13.731   7.232   8.914
80593SOL     OW43617   8.936   8.928   8.363
80593SOL    HW143618   9.018   8.977   8.359
80593SOL    HW243619   8.917   8.906   8.272
80594SOL     OW43620   1.836   8.269  12.345
80594SOL    HW143621   1.744   8.291  12.363
80594SOL    HW243622   1.885   8.320  12.409
80595SOL     OW43623  11.766  11.636  14.654
80595SOL    HW143624  11.813  11.718  14.640
80595SOL    HW243625  11.677  11.662  14.675
80596SOL     OW43626   4.231  10.591   0.107
80596SOL    HW143627   4.303  10.654   0.110
80596SOL    HW243628   4.181  10.607   0.187
80597SOL     OW43629   5.320   5.675   8.849
80597SOL    HW143630   5.338   5.652   8.940
80597SOL    HW243631   5.299   5.768   8.851
80598SOL     OW43632  10.807   9.212   6.271
80598SOL    HW143633  10.726   9.256   6.245
80598SOL    HW243634  10.778   9.143   6.331
80599SOL     OW43635   2.828   8.015  11.849
80599SOL    HW143636   2.745   7.993  11.806
80599SOL    HW243637   2.810   8.001  11.942
80600SOL     OW43638   4.648   5.286   3.526
80600SOL    HW143639   4.687   5.262   3.611
80600SOL    HW243640   4.722   5.292   3.467
80601SOL     OW43641   9.623  12.670   0.611
80601SOL    HW143642   9.668  12.586   0.613
80601SOL    HW243643   9.592  12.679   0.521
80602SOL     OW43644   8.146   8.036   7.151
80602SOL    HW143645   8.227   8.044   7.101
80602SOL    HW243646   8.119   8.126   7.168
80603SOL     OW43647  13.238   7.540   0.363
80603SOL    HW143648  13.180   7.465   0.353
80603SOL    HW243649  13.204   7.607   0.304
80604SOL     OW43650   6.962   1.017   5.362
80604SOL    HW143651   6.933   1.023   5.453
80604SOL    HW243652   6.916   1.089   5.318
80605SOL     OW43653   9.693   9.489  13.337
80605SOL    HW143654   9.643   9.443  13.405
80605SOL    HW243655   9.653   9.575  13.332
80606SOL     OW43656  10.759   0.288  13.364
80606SOL    HW143657  10.700   0.227  13.409
80606SOL    HW243658  10.750   0.370  13.413
80607SOL     OW43659  13.224   0.682  13.559
80607SOL    HW143660  13.208   0.614  13.494
80607SOL    HW243661  13.253   0.758  13.508
80608SOL     OW43662   5.201  14.533   1.185
80608SOL    HW143663   5.146  14.538   1.263
80608SOL    HW243664   5.230  14.623   1.170
80609SOL     OW43665  10.852   4.976  11.220
80609SOL    HW143666  10.840   5.019  11.305
80609SOL    HW243667  10.769   4.930  11.206
80610SOL     OW43668   0.516  12.599   4.807
80610SOL    HW143669   0.527  12.682   4.761
80610SOL    HW243670   0.604  12.578   4.840
80611SOL     OW43671   1.646  14.295   7.172
80611SOL    HW143672   1.640  14.327   7.082
80611SOL    HW243673   1.649  14.200   7.164
80612SOL     OW43674  12.904   9.263   4.533
80612SOL    HW143675  12.955   9.219   4.465
80612SOL    HW243676  12.833   9.201   4.553
80613SOL     OW43677  13.905   4.355  14.585
80613SOL    HW143678  13.922   4.334  14.677
80613SOL    HW243679  13.823   4.311  14.565
80614SOL     OW43680   4.459  11.208  11.484
80614SOL    HW143681   4.387  11.181  11.427
80614SOL    HW243682   4.427  11.191  11.573
80615SOL     OW43683  14.721   8.741   6.776
80615SOL    HW143684  14.812   8.762   6.755
80615SOL    HW243685  14.685   8.822   6.812
80616SOL     OW43686   2.779  12.629  12.444
80616SOL    HW143687   2.730  12.550  12.467
80616SOL    HW243688   2.867  12.598  12.423
80617SOL     OW43689  11.320   9.097   5.501
80617SOL    HW143690  11.376   9.109   5.577
80617SOL    HW243691  11.275   9.013   5.517
80618SOL     OW43692   8.646   7.028  10.797
80618SOL    HW143693   8.560   7.055  10.767
80618SOL    HW243694   8.689   6.992  10.719
80619SOL     OW43695   4.384   4.268  11.410
80619SOL    HW143696   4.401   4.243  11.501
80619SOL    HW243697   4.288   4.273  11.404
80620SOL     OW43698   4.605  13.032  10.388
80620SOL    HW143699   4.563  13.105  10.343
80620SOL    HW243700   4.533  12.973  10.410
80621SOL     OW43701  12.899   9.307   0.138
80621SOL    HW143702  12.823   9.348   0.098
80621SOL    HW243703  12.864   9.260   0.214
80622SOL     OW43704   4.673  10.383  14.465
80622SOL    HW143705   4.731  10.312  14.494
80622SOL    HW243706   4.653  10.362  14.374
80623SOL     OW43707   7.019   6.110   3.486
80623SOL    HW143708   7.082   6.039   3.502
80623SOL    HW243709   6.935   6.066   3.475
80624SOL     OW43710   8.697  14.414   1.675
80624SOL    HW143711   8.655  14.328   1.669
80624SOL    HW243712   8.645  14.470   1.618
80625SOL     OW43713  10.993   8.101   4.888
80625SOL    HW143714  11.015   8.036   4.821
80625SOL    HW243715  10.916   8.145   4.854
80626SOL     OW43716   4.853   8.532   0.393
80626SOL    HW143717   4.871   8.564   0.305
80626SOL    HW243718   4.796   8.457   0.381
80627SOL     OW43719   8.579  14.270   5.134
80627SOL    HW143720   8.564  14.203   5.068
80627SOL    HW243721   8.492  14.286   5.172
80628SOL     OW43722   4.229   9.890   6.866
80628SOL    HW143723   4.204   9.845   6.785
80628SOL    HW243724   4.216   9.824   6.935
80629SOL     OW43725   1.136   9.668  13.157
80629SOL    HW143726   1.094   9.596  13.110
80629SOL    HW243727   1.224   9.673  13.121
80630SOL     OW43728   6.397   2.751  12.818
80630SOL    HW143729   6.369   2.713  12.735
80630SOL    HW243730   6.370   2.688  12.884
80631SOL     OW43731   7.310   3.190   4.212
80631SOL    HW143732   7.270   3.262   4.261
80631SOL    HW243733   7.281   3.111   4.258
80632SOL     OW43734   5.357   8.443   3.631
80632SOL    HW143735   5.272   8.400   3.637
80632SOL    HW243736   5.416   8.385   3.679
80633SOL     OW43737   7.564   5.225   6.809
80633SOL    HW143738   7.647   5.272   6.810
80633SOL    HW243739   7.588   5.133   6.797
80634SOL     OW43740   9.901   1.135  12.613
80634SOL    HW143741   9.940   1.096  12.534
80634SOL    HW243742   9.823   1.180  12.581
80635SOL     OW43743   7.000   1.959   5.669
80635SOL    HW143744   7.069   1.925   5.726
80635SOL    HW243745   7.045   1.979   5.587
80636SOL     OW43746  10.720   5.261  13.004
80636SOL    HW143747  10.764   5.210  12.937
80636SOL    HW243748  10.788   5.322  13.035
80637SOL     OW43749  13.871   8.393  14.242
80637SOL    HW143750  13.911   8.351  14.166
80637SOL    HW243751  13.899   8.485  14.235
80638SOL     OW43752  12.319   5.239  13.540
80638SOL    HW143753  12.402   5.192  13.535
80638SOL    HW243754  12.335   5.323  13.496
80639SOL     OW43755   0.071   1.540   6.804
80639SOL    HW143756   0.123   1.620   6.793
80639SOL    HW243757   0.117   1.474   6.753
80640SOL     OW43758   0.985   9.732   7.751
80640SOL    HW143759   0.934   9.660   7.789
80640SOL    HW243760   1.051   9.689   7.696
80641SOL     OW43761  12.845   8.331   8.966
80641SOL    HW143762  12.936   8.306   8.979
80641SOL    HW243763  12.850   8.414   8.917
80642SOL     OW43764  12.535  12.676  13.637
80642SOL    HW143765  12.548  12.607  13.702
80642SOL    HW243766  12.623  12.706  13.616
80643SOL     OW43767  13.259   3.718   5.475
80643SOL    HW143768  13.209   3.794   5.505
80643SOL    HW243769  13.195   3.647   5.472
80644SOL     OW43770  12.687  12.133   7.788
80644SOL    HW143771  12.693  12.151   7.694
80644SOL    HW243772  12.699  12.219   7.829
80645SOL     OW43773   2.821   7.217   9.998
80645SOL    HW143774   2.842   7.305   9.964
80645SOL    HW243775   2.777   7.234  10.081
80646SOL     OW43776   9.351  13.496   8.503
80646SOL    HW143777   9.265  13.453   8.497
80646SOL    HW243778   9.392  13.457   8.580
80647SOL     OW43779  11.879   6.266   9.706
80647SOL    HW143780  11.857   6.297   9.794
80647SOL    HW243781  11.975   6.260   9.707
80648SOL     OW43782  11.880   8.029  13.989
80648SOL    HW143783  11.871   8.053  13.897
80648SOL    HW243784  11.838   8.100  14.037
80649SOL     OW43785  14.593   5.557   8.216
80649SOL    HW143786  14.580   5.470   8.255
80649SOL    HW243787  14.633   5.540   8.131
80650SOL     OW43788  11.468  12.052   0.117
80650SOL    HW143789  11.380  12.014   0.116
80650SOL    HW243790  11.521  11.987   0.164
80651SOL     OW43791   3.982   4.706   4.468
80651SOL    HW143792   3.992   4.782   4.525
80651SOL    HW243793   3.985   4.631   4.528
80652SOL     OW43794  12.929   5.455   5.878
80652SOL    HW143795  12.854   5.432   5.933
80652SOL    HW243796  12.935   5.384   5.814
80653SOL     OW43797  12.390   6.345   5.721
80653SOL    HW143798  12.445   6.364   5.797
80653SOL    HW243799  12.318   6.292   5.756
80654SOL     OW43800  14.231   0.268  10.997
80654SOL    HW143801  14.207   0.234  11.083
80654SOL    HW243802  14.151   0.258  10.945
80655SOL     OW43803   7.524  11.815   0.471
80655SOL    HW143804   7.527  11.788   0.379
80655SOL    HW243805   7.444  11.869   0.477
80656SOL     OW43806  12.712   0.179  13.862
80656SOL    HW143807  12.763   0.259  13.847
80656SOL    HW243808  12.698   0.177  13.956
80657SOL     OW43809   4.839   4.494   8.414
80657SOL    HW143810   4.795   4.530   8.491
80657SOL    HW243811   4.884   4.569   8.376
80658SOL     OW43812   5.969  11.502   5.929
80658SOL    HW143813   6.022  11.571   5.967
80658SOL    HW243814   5.889  11.501   5.982
80659SOL     OW43815   2.792   3.704  12.239
80659SOL    HW143816   2.756   3.784  12.201
80659SOL    HW243817   2.850   3.734  12.309
80660SOL     OW43818   4.821   0.609   9.892
80660SOL    HW143819   4.815   0.530   9.946
80660SOL    HW243820   4.760   0.594   9.820
80661SOL     OW43821  11.304  14.720   3.236
80661SOL    HW143822  11.370  14.720   3.305
80661SOL    HW243823  11.308  14.808   3.199
80662SOL     OW43824   5.602  13.230   7.621
80662SOL    HW143825   5.644  13.286   7.687
80662SOL    HW243826   5.665  13.227   7.549
80663SOL     OW43827   5.452  12.790  12.418
80663SOL    HW143828   5.366  12.822  12.447
80663SOL    HW243829   5.433  12.704  12.380
80664SOL     OW43830   9.390   6.541   5.548
80664SOL    HW143831   9.393   6.537   5.452
80664SOL    HW243832   9.361   6.630   5.568
80665SOL     OW43833   2.246   6.124   8.147
80665SOL    HW143834   2.223   6.182   8.075
80665SOL    HW243835   2.280   6.182   8.215
80666SOL     OW43836   8.430  14.097  10.825
80666SOL    HW143837   8.398  14.180  10.789
80666SOL    HW243838   8.354  14.060  10.869
80667SOL     OW43839   0.766   3.212   1.665
80667SOL    HW143840   0.687   3.248   1.704
80667SOL    HW243841   0.772   3.254   1.579
80668SOL     OW43842  10.778  11.083  13.408
80668SOL    HW143843  10.774  11.159  13.350
80668SOL    HW243844  10.869  11.054  13.404
80669SOL     OW43845   9.942  10.930  13.656
80669SOL    HW143846   9.912  10.903  13.570
80669SOL    HW243847   9.916  10.859  13.715
80670SOL     OW43848   4.238   7.324  13.180
80670SOL    HW143849   4.314   7.267  13.168
80670SOL    HW243850   4.239   7.347  13.273
80671SOL     OW43851  11.388  13.282   1.652
80671SOL    HW143852  11.388  13.187   1.654
80671SOL    HW243853  11.471  13.306   1.611
80672SOL     OW43854   6.058  14.877   7.226
80672SOL    HW143855   6.062  14.878   7.322
80672SOL    HW243856   6.099  14.794   7.201
80673SOL     OW43857   7.080   1.085  14.060
80673SOL    HW143858   7.113   1.081  13.970
80673SOL    HW243859   7.075   0.993  14.087
80674SOL     OW43860   3.009  14.696   9.064
80674SOL    HW143861   3.046  14.752   9.132
80674SOL    HW243862   3.048  14.610   9.080
80675SOL     OW43863  13.522  14.821   1.921
80675SOL    HW143864  13.473  14.870   1.987
80675SOL    HW243865  13.597  14.785   1.969
80676SOL     OW43866  10.658   1.317   7.345
80676SOL    HW143867  10.594   1.305   7.276
80676SOL    HW243868  10.624   1.268   7.420
80677SOL     OW43869   6.772   4.859   0.051
80677SOL    HW143870   6.810   4.806   0.121
80677SOL    HW243871   6.765   4.799  14.856
80678SOL     OW43872  13.875   8.851   4.926
80678SOL    HW143873  13.852   8.925   4.869
80678SOL    HW243874  13.932   8.889   4.992
80679SOL     OW43875   8.153   1.766   9.999
80679SOL    HW143876   8.079   1.708   9.983
80679SOL    HW243877   8.118   1.855   9.987
80680SOL     OW43878   4.871   5.485   1.268
80680SOL    HW143879   4.777   5.467   1.265
80680SOL    HW243880   4.899   5.488   1.177
80681SOL     OW43881   2.206   8.341   1.100
80681SOL    HW143882   2.302   8.348   1.104
80681SOL    HW243883   2.189   8.248   1.114
80682SOL     OW43884   0.728   1.823   1.363
80682SOL    HW143885   0.729   1.774   1.281
80682SOL    HW243886   0.820   1.846   1.378
80683SOL     OW43887   5.345   7.250  14.557
80683SOL    HW143888   5.408   7.186  14.526
80683SOL    HW243889   5.297   7.206  14.626
80684SOL     OW43890  10.831  11.100  13.055
80684SOL    HW143891  10.837  11.162  13.128
80684SOL    HW243892  10.865  11.149  12.980
80685SOL     OW43893  11.776  11.307   4.150
80685SOL    HW143894  11.811  11.227   4.191
80685SOL    HW243895  11.837  11.376   4.176
80686SOL     OW43896   6.874  13.969  10.754
80686SOL    HW143897   6.910  13.953  10.667
80686SOL    HW243898   6.940  14.022  10.798
80687SOL     OW43899   0.258  12.932   7.090
80687SOL    HW143900   0.273  13.016   7.133
80687SOL    HW243901   0.223  12.875   7.159
80688SOL     OW43902  10.561  14.768   3.591
80688SOL    HW143903  10.634  14.715   3.626
80688SOL    HW243904  10.487  14.745   3.646
80689SOL     OW43905   1.364   7.824   2.639
80689SOL    HW143906   1.391   7.753   2.697
80689SOL    HW243907   1.353   7.782   2.554
80690SOL     OW43908  13.583   8.579  11.127
80690SOL    HW143909  13.603   8.592  11.035
80690SOL    HW243910  13.492   8.609  11.136
80691SOL     OW43911  10.691  14.861  11.877
80691SOL    HW143912  10.747   0.058  11.860
80691SOL    HW243913  10.715  14.833  11.966
80692SOL     OW43914   6.488   5.649  13.573
80692SOL    HW143915   6.483   5.597  13.493
80692SOL    HW243916   6.447   5.594  13.640
80693SOL     OW43917  10.359  11.062  10.910
80693SOL    HW143918  10.323  11.068  10.822
80693SOL    HW243919  10.428  11.129  10.913
80694SOL     OW43920   3.551   0.813   6.262
80694SOL    HW143921   3.519   0.869   6.332
80694SOL    HW243922   3.486   0.743   6.255
80695SOL     OW43923   6.666  13.299  13.328
80695SOL    HW143924   6.738  13.237  13.331
80695SOL    HW243925   6.600  13.262  13.386
80696SOL     OW43926   1.804  12.099   5.931
80696SOL    HW143927   1.855  12.019   5.915
80696SOL    HW243928   1.863  12.170   5.905
80697SOL     OW43929   2.731  14.463  12.049
80697SOL    HW143930   2.741  14.554  12.078
80697SOL    HW243931   2.806  14.448  11.992
80698SOL     OW43932   6.945  12.573  12.588
80698SOL    HW143933   6.903  12.659  12.593
80698SOL    HW243934   7.018  12.586  12.528
80699SOL     OW43935   8.415  12.590   0.191
80699SOL    HW143936   8.428  12.656   0.123
80699SOL    HW243937   8.445  12.508   0.150
80700SOL     OW43938  11.514   3.463   5.162
80700SOL    HW143939  11.469   3.429   5.084
80700SOL    HW243940  11.456   3.441   5.235
80701SOL     OW43941  13.205   0.169   6.313
80701SOL    HW143942  13.161   0.205   6.236
80701SOL    HW243943  13.166   0.082   6.324
80702SOL     OW43944  12.247   2.956   5.821
80702SOL    HW143945  12.232   2.883   5.760
80702SOL    HW243946  12.206   2.927   5.902
80703SOL     OW43947   9.637   9.491  11.989
80703SOL    HW143948   9.579   9.421  12.020
80703SOL    HW243949   9.577   9.555  11.949
80704SOL     OW43950   4.785   0.289   1.557
80704SOL    HW143951   4.787   0.352   1.630
80704SOL    HW243952   4.831   0.213   1.591
80705SOL     OW43953   9.052   6.547  11.281
80705SOL    HW143954   8.969   6.547  11.235
80705SOL    HW243955   9.096   6.628  11.253
80706SOL     OW43956   1.694  13.536  11.181
80706SOL    HW143957   1.638  13.471  11.223
80706SOL    HW243958   1.783  13.503  11.195
80707SOL     OW43959   2.085  10.645  12.991
80707SOL    HW143960   2.176  10.628  12.966
80707SOL    HW243961   2.078  10.613  13.081
80708SOL     OW43962  12.989  11.866   1.982
80708SOL    HW143963  13.044  11.942   1.962
80708SOL    HW243964  12.954  11.839   1.897
80709SOL     OW43965   8.983   9.860   9.451
80709SOL    HW143966   8.997   9.939   9.400
80709SOL    HW243967   8.922   9.808   9.399
80710SOL     OW43968   2.196   8.402   8.303
80710SOL    HW143969   2.236   8.488   8.288
80710SOL    HW243970   2.198   8.391   8.398
80711SOL     OW43971   6.309   7.297  10.918
80711SOL    HW143972   6.382   7.252  10.877
80711SOL    HW243973   6.232   7.244  10.894
80712SOL     OW43974   1.568   1.348   9.033
80712SOL    HW143975   1.545   1.416   9.096
80712SOL    HW243976   1.594   1.397   8.954
80713SOL     OW43977  13.442  12.679   0.631
80713SOL    HW143978  13.432  12.758   0.577
80713SOL    HW243979  13.517  12.633   0.593
80714SOL     OW43980   1.718   7.851  12.001
80714SOL    HW143981   1.705   7.880  11.910
80714SOL    HW243982   1.799   7.799  11.997
80715SOL     OW43983  14.271   5.286   6.778
80715SOL    HW143984  14.286   5.316   6.689
80715SOL    HW243985  14.294   5.360   6.833
80716SOL     OW43986   4.496  11.997   7.186
80716SOL    HW143987   4.530  11.991   7.275
80716SOL    HW243988   4.509  12.088   7.161
80717SOL     OW43989  10.500  11.413   5.798
80717SOL    HW143990  10.425  11.448   5.845
80717SOL    HW243991  10.553  11.369   5.865
80718SOL     OW43992  10.694  13.392   3.881
80718SOL    HW143993  10.600  13.391   3.859
80718SOL    HW243994  10.703  13.327   3.950
80719SOL     OW43995  13.501   3.139   9.100
80719SOL    HW143996  13.506   3.109   9.190
80719SOL    HW243997  13.414   3.179   9.092
80720SOL     OW43998  13.820   5.274  12.532
80720SOL    HW143999  13.888   5.228  12.581
80720SOL    HW244000  13.769   5.319  12.600
80721SOL     OW44001   3.289   2.518   9.894
80721SOL    HW144002   3.281   2.505   9.800
80721SOL    HW244003   3.382   2.536   9.909
80722SOL     OW44004   6.468  10.278  10.276
80722SOL    HW144005   6.509  10.294  10.361
80722SOL    HW244006   6.527  10.216  10.233
80723SOL     OW44007  13.775   1.410   3.221
80723SOL    HW144008  13.853   1.438   3.173
80723SOL    HW244009  13.754   1.483   3.279
80724SOL     OW44010   5.531   9.939   0.595
80724SOL    HW144011   5.463   9.871   0.599
80724SOL    HW244012   5.484  10.017   0.564
80725SOL     OW44013   9.110  10.745   5.362
80725SOL    HW144014   9.135  10.653   5.372
80725SOL    HW244015   9.014  10.744   5.372
80726SOL     OW44016   0.153  14.409   0.515
80726SOL    HW144017   0.107  14.455   0.585
80726SOL    HW244018   0.158  14.318   0.545
80727SOL     OW44019   7.339  13.886   8.373
80727SOL    HW144020   7.357  13.792   8.366
80727SOL    HW244021   7.293  13.908   8.293
80728SOL     OW44022   9.681   1.637   7.363
80728SOL    HW144023   9.726   1.592   7.434
80728SOL    HW244024   9.589   1.610   7.372
80729SOL     OW44025   8.023   4.841   8.533
80729SOL    HW144026   8.110   4.876   8.517
80729SOL    HW244027   8.007   4.780   8.461
80730SOL     OW44028  11.991   5.088   4.702
80730SOL    HW144029  12.024   5.096   4.612
80730SOL    HW244030  11.971   5.177   4.729
80731SOL     OW44031   9.498   7.153   2.561
80731SOL    HW144032   9.471   7.245   2.563
80731SOL    HW244033   9.529   7.136   2.650
80732SOL     OW44034   0.967  12.927  12.826
80732SOL    HW144035   1.012  12.902  12.745
80732SOL    HW244036   0.961  13.022  12.822
80733SOL     OW44037   2.933   9.979   5.910
80733SOL    HW144038   2.924   9.901   5.856
80733SOL    HW244039   2.930  10.052   5.848
80734SOL     OW44040   4.628   8.069  10.210
80734SOL    HW144041   4.537   8.078  10.240
80734SOL    HW244042   4.630   7.984  10.166
80735SOL     OW44043   2.361   2.982   7.007
80735SOL    HW144044   2.310   3.062   7.018
80735SOL    HW244045   2.378   2.951   7.095
80736SOL     OW44046   3.356   7.523   6.676
80736SOL    HW144047   3.311   7.485   6.752
80736SOL    HW244048   3.447   7.495   6.685
80737SOL     OW44049  13.429   4.555  13.906
80737SOL    HW144050  13.412   4.471  13.862
80737SOL    HW244051  13.367   4.556  13.979
80738SOL     OW44052  13.327  10.841   3.325
80738SOL    HW144053  13.285  10.762   3.357
80738SOL    HW244054  13.418  10.816   3.308
80739SOL     OW44055   5.081  14.116  12.178
80739SOL    HW144056   5.102  14.024  12.196
80739SOL    HW244057   5.093  14.161  12.262
80740SOL     OW44058   5.650  12.071  13.406
80740SOL    HW144059   5.634  11.981  13.436
80740SOL    HW244060   5.714  12.106  13.467
80741SOL     OW44061   3.459   9.860   8.718
80741SOL    HW144062   3.461   9.803   8.795
80741SOL    HW244063   3.366   9.876   8.703
80742SOL     OW44064   9.945  11.902   8.921
80742SOL    HW144065  10.001  11.966   8.877
80742SOL    HW244066   9.877  11.882   8.857
80743SOL     OW44067   7.248   8.758  13.213
80743SOL    HW144068   7.253   8.708  13.132
80743SOL    HW244069   7.157   8.789  13.216
80744SOL     OW44070   3.944   2.586   1.659
80744SOL    HW144071   3.951   2.592   1.754
80744SOL    HW244072   3.858   2.624   1.639
80745SOL     OW44073   5.204  12.846   3.581
80745SOL    HW144074   5.201  12.931   3.625
80745SOL    HW244075   5.258  12.791   3.640
80746SOL     OW44076   0.267   5.475   7.872
80746SOL    HW144077   0.322   5.397   7.864
80746SOL    HW244078   0.269   5.497   7.965
80747SOL     OW44079   1.999   8.235  14.005
80747SOL    HW144080   2.064   8.283  14.057
80747SOL    HW244081   1.938   8.200  14.069
80748SOL     OW44082  13.430   4.439   1.942
80748SOL    HW144083  13.501   4.499   1.964
80748SOL    HW244084  13.473   4.359   1.912
80749SOL     OW44085  11.229   8.640  12.935
80749SOL    HW144086  11.254   8.556  12.974
80749SOL    HW244087  11.177   8.683  13.002
80750SOL     OW44088   3.081   5.547  13.665
80750SOL    HW144089   3.121   5.530  13.580
80750SOL    HW244090   2.994   5.508  13.659
80751SOL     OW44091  14.180  14.823  14.496
80751SOL    HW144092  14.204  14.733  14.476
80751SOL    HW244093  14.246  14.852  14.559
80752SOL     OW44094  13.459   0.223  10.315
80752SOL    HW144095  13.539   0.236  10.264
80752SOL    HW244096  13.388   0.250  10.256
80753SOL     OW44097  10.262   5.543   6.861
80753SOL    HW144098  10.258   5.639   6.863
80753SOL    HW244099  10.236   5.516   6.949
80754SOL     OW44100  10.518   4.869   4.541
80754SOL    HW144101  10.567   4.853   4.460
80754SOL    HW244102  10.453   4.935   4.517
80755SOL     OW44103  12.800   4.828   5.027
80755SOL    HW144104  12.848   4.750   4.998
80755SOL    HW244105  12.865   4.878   5.078
80756SOL     OW44106   4.993  10.623   7.345
80756SOL    HW144107   5.086  10.601   7.343
80756SOL    HW244108   4.990  10.716   7.365
80757SOL     OW44109  12.706   2.142  14.801
80757SOL    HW144110  12.649   2.199  14.852
80757SOL    HW244111  12.795   2.166  14.829
80758SOL     OW44112   1.228   3.381  11.382
80758SOL    HW144113   1.302   3.352  11.435
80758SOL    HW244114   1.268   3.422  11.305
80759SOL     OW44115   7.616   7.874   7.717
80759SOL    HW144116   7.632   7.819   7.794
80759SOL    HW244117   7.558   7.822   7.662
80760SOL     OW44118  12.183  12.713   2.152
80760SOL    HW144119  12.184  12.709   2.247
80760SOL    HW244120  12.213  12.627   2.124
80761SOL     OW44121   0.829  10.038   4.191
80761SOL    HW144122   0.875  10.119   4.171
80761SOL    HW244123   0.736  10.061   4.191
80762SOL     OW44124   6.599  12.696   2.512
80762SOL    HW144125   6.569  12.638   2.582
80762SOL    HW244126   6.617  12.638   2.438
80763SOL     OW44127  10.621   7.170   4.595
80763SOL    HW144128  10.631   7.253   4.549
80763SOL    HW244129  10.647   7.104   4.531
80764SOL     OW44130  13.911   6.851   2.174
80764SOL    HW144131  13.901   6.806   2.258
80764SOL    HW244132  13.972   6.796   2.124
80765SOL     OW44133   6.284  14.314   6.487
80765SOL    HW144134   6.346  14.382   6.463
80765SOL    HW244135   6.271  14.325   6.581
80766SOL     OW44136   4.900   2.622   2.470
80766SOL    HW144137   4.804   2.626   2.468
80766SOL    HW244138   4.923   2.577   2.388
80767SOL     OW44139   5.633   7.665   3.536
80767SOL    HW144140   5.676   7.690   3.454
80767SOL    HW244141   5.657   7.735   3.598
80768SOL     OW44142   5.942   1.449   3.388
80768SOL    HW144143   5.926   1.527   3.336
80768SOL    HW244144   5.918   1.376   3.330
80769SOL     OW44145   7.606   5.499   0.372
80769SOL    HW144146   7.641   5.419   0.333
80769SOL    HW244147   7.682   5.545   0.406
80770SOL     OW44148   9.059   4.956   4.855
80770SOL    HW144149   9.043   4.883   4.916
80770SOL    HW244150   8.993   5.021   4.879
80771SOL     OW44151   2.891   2.832  11.082
80771SOL    HW144152   2.862   2.838  11.173
80771SOL    HW244153   2.836   2.895  11.035
80772SOL     OW44154   6.455   7.138   3.171
80772SOL    HW144155   6.444   7.047   3.142
80772SOL    HW244156   6.440   7.190   3.092
80773SOL     OW44157   3.462  14.390   3.952
80773SOL    HW144158   3.534  14.443   3.985
80773SOL    HW244159   3.422  14.444   3.884
80774SOL     OW44160  10.417   0.809   1.290
80774SOL    HW144161  10.400   0.882   1.230
80774SOL    HW244162  10.332   0.768   1.302
80775SOL     OW44163  12.385  11.128   1.154
80775SOL    HW144164  12.407  11.069   1.226
80775SOL    HW244165  12.415  11.214   1.183
80776SOL     OW44166   1.210   6.524   8.073
80776SOL    HW144167   1.123   6.500   8.042
80776SOL    HW244168   1.258   6.441   8.077
80777SOL     OW44169   5.973   8.437  14.495
80777SOL    HW144170   5.927   8.506  14.542
80777SOL    HW244171   6.041   8.482  14.444
80778SOL     OW44172   0.695  11.750   7.852
80778SOL    HW144173   0.762  11.750   7.920
80778SOL    HW244174   0.629  11.812   7.881
80779SOL     OW44175  13.119   6.660   0.488
80779SOL    HW144176  13.070   6.586   0.452
80779SOL    HW244177  13.166   6.623   0.563
80780SOL     OW44178   1.438  13.050  10.309
80780SOL    HW144179   1.477  13.053  10.222
80780SOL    HW244180   1.349  13.083  10.297
80781SOL     OW44181  13.282   5.112  13.111
80781SOL    HW144182  13.254   5.023  13.130
80781SOL    HW244183  13.289   5.115  13.015
80782SOL     OW44184   1.576   8.733   9.373
80782SOL    HW144185   1.622   8.782   9.441
80782SOL    HW244186   1.645   8.686   9.326
80783SOL     OW44187   7.043   6.212   3.141
80783SOL    HW144188   7.136   6.204   3.164
80783SOL    HW244189   7.009   6.122   3.147
80784SOL     OW44190   3.086  10.443   5.296
80784SOL    HW144191   3.084  10.429   5.201
80784SOL    HW244192   3.018  10.508   5.312
80785SOL     OW44193   7.151   8.141   9.448
80785SOL    HW144194   7.224   8.115   9.503
80785SOL    HW244195   7.113   8.058   9.417
80786SOL     OW44196   2.428   7.551   5.136
80786SOL    HW144197   2.349   7.500   5.122
80786SOL    HW244198   2.477   7.544   5.054
80787SOL     OW44199   9.678   2.535   4.491
80787SOL    HW144200   9.612   2.596   4.522
80787SOL    HW244201   9.636   2.449   4.499
80788SOL     OW44202   8.615   1.892  14.365
80788SOL    HW144203   8.546   1.923  14.307
80788SOL    HW244204   8.628   1.963  14.428
80789SOL     OW44205   5.516  13.593   4.063
80789SOL    HW144206   5.532  13.688   4.067
80789SOL    HW244207   5.449  13.578   4.130
80790SOL     OW44208  13.589   3.582   4.058
80790SOL    HW144209  13.521   3.623   4.005
80790SOL    HW244210  13.544   3.546   4.133
80791SOL     OW44211   5.418  12.314  12.187
80791SOL    HW144212   5.369  12.234  12.169
80791SOL    HW244213   5.483  12.288  12.253
80792SOL     OW44214  11.005   7.998  10.541
80792SOL    HW144215  11.072   8.025  10.604
80792SOL    HW244216  10.973   8.080  10.503
80793SOL     OW44217  14.536   7.308  13.945
80793SOL    HW144218  14.612   7.260  13.912
80793SOL    HW244219  14.507   7.361  13.871
80794SOL     OW44220   2.040   8.419   3.096
80794SOL    HW144221   2.042   8.328   3.126
80794SOL    HW244222   2.020   8.412   3.002
80795SOL     OW44223   8.451  10.312  10.366
80795SOL    HW144224   8.481  10.403  10.368
80795SOL    HW244225   8.464  10.280  10.455
80796SOL     OW44226   0.125  10.497  13.760
80796SOL    HW144227   0.136  10.414  13.713
80796SOL    HW244228   0.099  10.472  13.848
80797SOL     OW44229   1.609  10.826  12.037
80797SOL    HW144230   1.606  10.743  11.988
80797SOL    HW244231   1.526  10.868  12.018
80798SOL     OW44232   7.953  12.320   4.906
80798SOL    HW144233   7.975  12.252   4.843
80798SOL    HW244234   8.034  12.334   4.956
80799SOL     OW44235   7.512   5.378   8.458
80799SOL    HW144236   7.602   5.410   8.463
80799SOL    HW244237   7.515   5.309   8.392
80800SOL     OW44238   1.795   5.486   1.892
80800SOL    HW144239   1.827   5.536   1.967
80800SOL    HW244240   1.746   5.413   1.931
80801SOL     OW44241   0.539   1.505   4.701
80801SOL    HW144242   0.545   1.598   4.683
80801SOL    HW244243   0.574   1.463   4.623
80802SOL     OW44244   0.875   4.797  12.191
80802SOL    HW144245   0.930   4.753  12.126
80802SOL    HW244246   0.851   4.729  12.253
80803SOL     OW44247   2.143  10.359  13.162
80803SOL    HW144248   2.192  10.385  13.240
80803SOL    HW244249   2.210  10.328  13.101
80804SOL     OW44250   2.536  13.578  11.485
80804SOL    HW144251   2.457  13.543  11.526
80804SOL    HW244252   2.607  13.552  11.544
80805SOL     OW44253   6.778   3.129   5.501
80805SOL    HW144254   6.724   3.077   5.561
80805SOL    HW244255   6.829   3.064   5.453
80806SOL     OW44256   1.803  11.118  10.781
80806SOL    HW144257   1.864  11.053  10.815
80806SOL    HW244258   1.845  11.202  10.800
80807SOL     OW44259   6.643  13.872  14.416
80807SOL    HW144260   6.623  13.859  14.509
80807SOL    HW244261   6.609  13.959  14.396
80808SOL     OW44262   7.933   0.648  11.762
80808SOL    HW144263   7.912   0.736  11.793
80808SOL    HW244264   7.876   0.635  11.686
80809SOL     OW44265  10.701  10.244  12.332
80809SOL    HW144266  10.608  10.263  12.324
80809SOL    HW244267  10.735  10.316  12.386
80810SOL     OW44268   5.024  10.990   2.141
80810SOL    HW144269   5.027  11.080   2.172
80810SOL    HW244270   4.980  10.994   2.056
80811SOL     OW44271   8.570   2.559  14.683
80811SOL    HW144272   8.599   2.468  14.685
80811SOL    HW244273   8.483   2.556  14.642
80812SOL     OW44274   4.375   7.201  14.148
80812SOL    HW144275   4.385   7.289  14.184
80812SOL    HW244276   4.459   7.159  14.166
80813SOL     OW44277  12.760   0.938   3.674
80813SOL    HW144278  12.720   0.864   3.629
80813SOL    HW244279  12.799   0.901   3.753
80814SOL     OW44280   0.518  10.897   6.222
80814SOL    HW144281   0.588  10.833   6.214
80814SOL    HW244282   0.448  10.864   6.167
80815SOL     OW44283   1.996   6.028   5.459
80815SOL    HW144284   1.962   6.058   5.544
80815SOL    HW244285   1.930   6.056   5.396
80816SOL     OW44286   1.940  14.773  10.677
80816SOL    HW144287   1.951  14.696  10.621
80816SOL    HW244288   1.888  14.742  10.751
80817SOL     OW44289   0.402   0.091  13.826
80817SOL    HW144290   0.450   0.012  13.852
80817SOL    HW244291   0.353   0.065  13.748
80818SOL     OW44292  12.197   5.908  12.526
80818SOL    HW144293  12.145   5.937  12.601
80818SOL    HW244294  12.188   5.812  12.526
80819SOL     OW44295   6.084   0.828  12.717
80819SOL    HW144296   6.063   0.800  12.806
80819SOL    HW244297   6.179   0.817  12.710
80820SOL     OW44298  14.521   6.025   3.358
80820SOL    HW144299  14.479   5.982   3.283
80820SOL    HW244300  14.541   6.114   3.326
80821SOL     OW44301   4.108  10.627   8.648
80821SOL    HW144302   4.156  10.552   8.682
80821SOL    HW244303   4.170  10.700   8.652
80822SOL     OW44304   8.646  12.141   4.186
80822SOL    HW144305   8.611  12.068   4.135
80822SOL    HW244306   8.691  12.196   4.123
80823SOL     OW44307   2.162   5.095   7.622
80823SOL    HW144308   2.174   5.002   7.606
80823SOL    HW244309   2.203   5.137   7.546
80824SOL     OW44310  14.606   3.147  10.409
80824SOL    HW144311  14.512   3.134  10.427
80824SOL    HW244312  14.622   3.238  10.432
80825SOL     OW44313  12.567  11.666   3.978
80825SOL    HW144314  12.529  11.595   4.030
80825SOL    HW244315  12.503  11.682   3.909
80826SOL     OW44316  11.924   2.773   8.747
80826SOL    HW144317  11.870   2.694   8.745
80826SOL    HW244318  12.004   2.749   8.701
80827SOL     OW44319   1.666   3.212   2.219
80827SOL    HW144320   1.751   3.257   2.211
80827SOL    HW244321   1.670   3.143   2.153
80828SOL     OW44322  14.202  11.398   8.729
80828SOL    HW144323  14.135  11.339   8.694
80828SOL    HW244324  14.284  11.350   8.722
80829SOL     OW44325   7.712  12.371   9.916
80829SOL    HW144326   7.642  12.388   9.853
80829SOL    HW244327   7.772  12.444   9.905
80830SOL     OW44328  14.391   6.987   1.851
80830SOL    HW144329  14.471   6.955   1.809
80830SOL    HW244330  14.369   6.919   1.914
80831SOL     OW44331   8.416   8.884   0.241
80831SOL    HW144332   8.336   8.832   0.230
80831SOL    HW244333   8.435   8.878   0.335
80832SOL     OW44334   6.130   2.397  13.689
80832SOL    HW144335   6.116   2.388  13.595
80832SOL    HW244336   6.084   2.323  13.728
80833SOL     OW44337   4.950   9.355   8.297
80833SOL    HW144338   4.996   9.355   8.213
80833SOL    HW244339   4.880   9.420   8.285
80834SOL     OW44340   2.621  14.158   4.897
80834SOL    HW144341   2.549  14.146   4.836
80834SOL    HW244342   2.682  14.217   4.852
80835SOL     OW44343   2.612   9.465   8.800
80835SOL    HW144344   2.607   9.465   8.895
80835SOL    HW244345   2.662   9.386   8.779
80836SOL     OW44346   3.744  12.621   9.890
80836SOL    HW144347   3.676  12.688   9.883
80836SOL    HW244348   3.776  12.609   9.801
80837SOL     OW44349   8.008   1.832   6.304
80837SOL    HW144350   8.006   1.815   6.398
80837SOL    HW244351   8.024   1.746   6.264
80838SOL     OW44352   9.735   9.378   6.683
80838SOL    HW144353   9.813   9.406   6.634
80838SOL    HW244354   9.674   9.451   6.674
80839SOL     OW44355  14.826  13.454   5.701
80839SOL    HW144356   0.025  13.508   5.694
80839SOL    HW244357  14.819  13.409   5.617
80840SOL     OW44358   5.690  12.909  12.416
80840SOL    HW144359   5.609  12.859  12.415
80840SOL    HW244360   5.680  12.974  12.346
80841SOL     OW44361   8.967   5.481  10.578
80841SOL    HW144362   8.883   5.438  10.558
80841SOL    HW244363   8.971   5.555  10.518
80842SOL     OW44364  13.718  12.300  13.878
80842SOL    HW144365  13.798  12.248  13.873
80842SOL    HW244366  13.647  12.236  13.885
80843SOL     OW44367  12.032  13.186   0.631
80843SOL    HW144368  12.036  13.276   0.662
80843SOL    HW244369  11.975  13.190   0.554
80844SOL     OW44370   3.537   7.741   4.383
80844SOL    HW144371   3.498   7.777   4.462
80844SOL    HW244372   3.468   7.750   4.316
80845SOL     OW44373  10.659  10.707  14.694
80845SOL    HW144374  10.582  10.671  14.738
80845SOL    HW244375  10.679  10.788  14.743
80846SOL     OW44376   0.571   8.029   7.788
80846SOL    HW144377   0.630   8.091   7.745
80846SOL    HW244378   0.483   8.057   7.760
80847SOL     OW44379   6.954   9.537   8.673
80847SOL    HW144380   6.891   9.527   8.744
80847SOL    HW244381   6.953   9.453   8.628
80848SOL     OW44382   9.103   7.685   0.185
80848SOL    HW144383   9.158   7.759   0.212
80848SOL    HW244384   9.019   7.725   0.162
80849SOL     OW44385   4.591  13.407   5.960
80849SOL    HW144386   4.613  13.366   5.877
80849SOL    HW244387   4.565  13.496   5.938
80850SOL     OW44388  12.964  13.471   5.532
80850SOL    HW144389  12.963  13.393   5.586
80850SOL    HW244390  12.935  13.442   5.445
80851SOL     OW44391   9.220   6.565  12.794
80851SOL    HW144392   9.241   6.658  12.804
80851SOL    HW244393   9.181   6.558  12.707
80852SOL     OW44394   3.099  13.351  13.861
80852SOL    HW144395   3.170  13.409  13.888
80852SOL    HW244396   3.126  13.318  13.775
80853SOL     OW44397   6.009  12.905   5.938
80853SOL    HW144398   5.978  12.942   6.020
80853SOL    HW244399   5.931  12.896   5.884
80854SOL     OW44400   7.311  10.296   1.955
80854SOL    HW144401   7.371  10.239   2.004
80854SOL    HW244402   7.255  10.335   2.023
80855SOL     OW44403   9.630   0.665   9.590
80855SOL    HW144404   9.726   0.675   9.591
80855SOL    HW244405   9.598   0.752   9.612
80856SOL     OW44406  10.464  13.527   1.797
80856SOL    HW144407  10.502  13.440   1.811
80856SOL    HW244408  10.520  13.586   1.847
80857SOL     OW44409  11.454   6.171   8.746
80857SOL    HW144410  11.434   6.200   8.657
80857SOL    HW244411  11.405   6.089   8.756
80858SOL     OW44412  10.026   9.280   7.235
80858SOL    HW144413   9.972   9.237   7.169
80858SOL    HW244414  10.112   9.290   7.194
80859SOL     OW44415   1.104   8.980   0.953
80859SOL    HW144416   1.197   8.956   0.945
80859SOL    HW244417   1.072   8.927   1.025
80860SOL     OW44418  13.209  10.315   9.689
80860SOL    HW144419  13.138  10.264   9.649
80860SOL    HW244420  13.172  10.401   9.704
80861SOL     OW44421  13.474   6.604   4.790
80861SOL    HW144422  13.515   6.522   4.766
80861SOL    HW244423  13.401   6.579   4.847
80862SOL     OW44424   4.352   4.016   9.525
80862SOL    HW144425   4.361   4.111   9.524
80862SOL    HW244426   4.428   3.986   9.575
80863SOL     OW44427   6.764   8.039  12.215
80863SOL    HW144428   6.709   8.057  12.292
80863SOL    HW244429   6.767   8.123  12.169
80864SOL     OW44430  11.492  12.987   2.685
80864SOL    HW144431  11.515  12.982   2.778
80864SOL    HW244432  11.399  13.007   2.684
80865SOL     OW44433   4.685  10.826   1.401
80865SOL    HW144434   4.689  10.757   1.468
80865SOL    HW244435   4.592  10.849   1.398
80866SOL     OW44436   5.315   8.891   5.356
80866SOL    HW144437   5.292   8.981   5.376
80866SOL    HW244438   5.292   8.879   5.264
80867SOL     OW44439   5.638   2.501   7.599
80867SOL    HW144440   5.670   2.426   7.648
80867SOL    HW244441   5.542   2.496   7.606
80868SOL     OW44442   5.038  10.951  13.463
80868SOL    HW144443   5.043  10.902  13.382
80868SOL    HW244444   5.047  10.885  13.532
80869SOL     OW44445   1.540   5.662   1.107
80869SOL    HW144446   1.481   5.587   1.103
80869SOL    HW244447   1.507   5.722   1.041
80870SOL     OW44448   9.680   1.380   0.681
80870SOL    HW144449   9.643   1.322   0.747
80870SOL    HW244450   9.653   1.468   0.709
80871SOL     OW44451   2.810  14.042   4.723
80871SOL    HW144452   2.893  14.087   4.735
80871SOL    HW244453   2.751  14.081   4.788
80872SOL     OW44454   6.435  14.733   3.314
80872SOL    HW144455   6.521  14.723   3.353
80872SOL    HW244456   6.379  14.673   3.363
80873SOL     OW44457   6.298   9.442  10.487
80873SOL    HW144458   6.364   9.383  10.450
80873SOL    HW244459   6.218   9.389  10.489
80874SOL     OW44460   6.480   7.054  11.566
80874SOL    HW144461   6.472   7.026  11.475
80874SOL    HW244462   6.436   7.139  11.569
80875SOL     OW44463   4.219   8.497  12.619
80875SOL    HW144464   4.204   8.434  12.549
80875SOL    HW244465   4.306   8.534  12.601
80876SOL     OW44466   8.890  11.066   4.961
80876SOL    HW144467   8.931  10.984   4.934
80876SOL    HW244468   8.963  11.128   4.970
80877SOL     OW44469  13.860  14.618  12.180
80877SOL    HW144470  13.947  14.606  12.141
80877SOL    HW244471  13.799  14.603  12.108
80878SOL     OW44472  13.063   6.696   6.017
80878SOL    HW144473  13.019   6.724   5.937
80878SOL    HW244474  13.129   6.764   6.033
80879SOL     OW44475   0.045   0.146  13.424
80879SOL    HW144476   0.083   0.074  13.374
80879SOL    HW244477   0.118   0.207  13.439
80880SOL     OW44478  11.620  11.816  11.189
80880SOL    HW144479  11.534  11.857  11.185
80880SOL    HW244480  11.626  11.766  11.108
80881SOL     OW44481   5.560   5.863   5.611
80881SOL    HW144482   5.476   5.868   5.657
80881SOL    HW244483   5.552   5.784   5.557
80882SOL     OW44484   4.290  10.624   3.866
80882SOL    HW144485   4.266  10.631   3.959
80882SOL    HW244486   4.269  10.534   3.843
80883SOL     OW44487   6.369   9.993  12.806
80883SOL    HW144488   6.360  10.015  12.713
80883SOL    HW244489   6.323  10.063  12.852
80884SOL     OW44490  13.830   6.614   6.755
80884SOL    HW144491  13.871   6.658   6.829
80884SOL    HW244492  13.902   6.598   6.693
80885SOL     OW44493  12.831  12.512   1.448
80885SOL    HW144494  12.915  12.556   1.429
80885SOL    HW244495  12.827  12.508   1.543
80886SOL     OW44496  14.027   8.666  12.963
80886SOL    HW144497  13.998   8.582  12.927
80886SOL    HW244498  14.092   8.698  12.900
80887SOL     OW44499   6.858   4.730  11.606
80887SOL    HW144500   6.896   4.749  11.520
80887SOL    HW244501   6.865   4.812  11.654
80888SOL     OW44502   0.533   6.826  11.298
80888SOL    HW144503   0.627   6.818  11.315
80888SOL    HW244504   0.523   6.805  11.206
80889SOL     OW44505   4.744   3.380   6.101
80889SOL    HW144506   4.726   3.474   6.113
80889SOL    HW244507   4.737   3.343   6.189
80890SOL     OW44508   4.632   5.578   6.515
80890SOL    HW144509   4.556   5.533   6.553
80890SOL    HW244510   4.664   5.518   6.448
80891SOL     OW44511   1.777  13.733   3.145
80891SOL    HW144512   1.841  13.788   3.100
80891SOL    HW244513   1.734  13.684   3.075
80892SOL     OW44514   3.269  11.631   7.201
80892SOL    HW144515   3.259  11.546   7.159
80892SOL    HW244516   3.257  11.613   7.295
80893SOL     OW44517   5.312   6.581  14.298
80893SOL    HW144518   5.281   6.588  14.389
80893SOL    HW244519   5.250   6.521  14.257
80894SOL     OW44520   7.543   2.493   8.865
80894SOL    HW144521   7.510   2.404   8.854
80894SOL    HW244522   7.568   2.498   8.957
80895SOL     OW44523   6.780   4.877  14.216
80895SOL    HW144524   6.791   4.787  14.245
80895SOL    HW244525   6.816   4.879  14.127
80896SOL     OW44526   4.536  13.382   6.226
80896SOL    HW144527   4.471  13.311   6.228
80896SOL    HW244528   4.534  13.413   6.135
80897SOL     OW44529   1.990  14.097   5.401
80897SOL    HW144530   2.032  14.178   5.429
80897SOL    HW244531   2.061  14.033   5.399
80898SOL     OW44532  14.747  14.591   6.764
80898SOL    HW144533  14.714  14.585   6.675
80898SOL    HW244534  14.672  14.569   6.819
80899SOL     OW44535  13.532   9.952   0.376
80899SOL    HW144536  13.496   9.990   0.296
80899SOL    HW244537  13.567   9.867   0.349
80900SOL     OW44538   9.717   6.067  12.828
80900SOL    HW144539   9.675   6.001  12.772
80900SOL    HW244540   9.728   6.143  12.770
80901SOL     OW44541  12.473  14.295  12.560
80901SOL    HW144542  12.560  14.260  12.572
80901SOL    HW244543  12.479  14.386  12.590
80902SOL     OW44544   5.039   4.990   0.381
80902SOL    HW144545   5.060   4.904   0.346
80902SOL    HW244546   4.948   4.982   0.412
80903SOL     OW44547   5.312   0.430   4.606
80903SOL    HW144548   5.279   0.456   4.521
80903SOL    HW244549   5.375   0.499   4.630
80904SOL     OW44550   7.823   6.335   0.516
80904SOL    HW144551   7.855   6.257   0.471
80904SOL    HW244552   7.898   6.367   0.567
80905SOL     OW44553  14.386  11.045  14.339
80905SOL    HW144554  14.330  10.968  14.331
80905SOL    HW244555  14.358  11.087  14.421
80906SOL     OW44556   5.092   5.258   0.458
80906SOL    HW144557   5.023   5.211   0.411
80906SOL    HW244558   5.141   5.189   0.504
80907SOL     OW44559   7.147   4.276   0.815
80907SOL    HW144560   7.192   4.274   0.899
80907SOL    HW244561   7.076   4.340   0.827
80908SOL     OW44562   0.478   0.470   9.696
80908SOL    HW144563   0.450   0.392   9.743
80908SOL    HW244564   0.427   0.541   9.735
80909SOL     OW44565  10.558   5.241  14.439
80909SOL    HW144566  10.545   5.205  14.527
80909SOL    HW244567  10.639   5.201  14.409
80910SOL     OW44568   3.810   2.162   4.494
80910SOL    HW144569   3.823   2.191   4.584
80910SOL    HW244570   3.762   2.233   4.452
80911SOL     OW44571   7.204   3.592   9.729
80911SOL    HW144572   7.205   3.669   9.786
80911SOL    HW244573   7.249   3.621   9.650
80912SOL     OW44574   3.777   1.903  10.792
80912SOL    HW144575   3.728   1.846  10.851
80912SOL    HW244576   3.721   1.980  10.781
80913SOL     OW44577  11.314   9.129   7.097
80913SOL    HW144578  11.293   9.099   7.008
80913SOL    HW244579  11.230   9.126   7.143
80914SOL     OW44580  12.135  10.471  11.383
80914SOL    HW144581  12.168  10.547  11.431
80914SOL    HW244582  12.214  10.430  11.346
80915SOL     OW44583  11.216   3.279  10.448
80915SOL    HW144584  11.205   3.334  10.371
80915SOL    HW244585  11.207   3.190  10.416
80916SOL     OW44586  11.903   7.776  13.981
80916SOL    HW144587  11.951   7.771  13.899
80916SOL    HW244588  11.907   7.868  14.006
80917SOL     OW44589  13.601  11.756   4.167
80917SOL    HW144590  13.570  11.808   4.241
80917SOL    HW244591  13.524  11.746   4.110
80918SOL     OW44592   2.114   3.677   8.594
80918SOL    HW144593   2.182   3.661   8.659
80918SOL    HW244594   2.116   3.771   8.579
80919SOL     OW44595   1.605  13.766   3.909
80919SOL    HW144596   1.687  13.749   3.955
80919SOL    HW244597   1.539  13.770   3.979
80920SOL     OW44598  13.086  14.450   0.656
80920SOL    HW144599  13.040  14.531   0.679
80920SOL    HW244600  13.018  14.382   0.660
80921SOL     OW44601  14.031   0.291  11.474
80921SOL    HW144602  13.960   0.313  11.534
80921SOL    HW244603  14.092   0.364  11.482
80922SOL     OW44604  13.878  13.381   6.170
80922SOL    HW144605  13.885  13.465   6.215
80922SOL    HW244606  13.785  13.372   6.149
80923SOL     OW44607  13.664   8.138  13.436
80923SOL    HW144608  13.585   8.158  13.486
80923SOL    HW244609  13.643   8.163  13.346
80924SOL     OW44610   7.097   6.522   3.449
80924SOL    HW144611   7.040   6.498   3.375
80924SOL    HW244612   7.130   6.609   3.426
80925SOL     OW44613   7.623   0.626   2.540
80925SOL    HW144614   7.540   0.624   2.493
80925SOL    HW244615   7.676   0.557   2.498
80926SOL     OW44616   9.062  11.817   4.336
80926SOL    HW144617   8.985  11.869   4.356
80926SOL    HW244618   9.047  11.786   4.246
80927SOL     OW44619  14.533  12.816   7.375
80927SOL    HW144620  14.444  12.840   7.348
80927SOL    HW244621  14.546  12.727   7.342
80928SOL     OW44622   4.163  11.951   7.311
80928SOL    HW144623   4.141  11.858   7.308
80928SOL    HW244624   4.167  11.978   7.220
80929SOL     OW44625   2.055   1.128  11.848
80929SOL    HW144626   1.985   1.106  11.909
80929SOL    HW244627   2.092   1.210  11.882
80930SOL     OW44628  13.231  13.824   9.012
80930SOL    HW144629  13.246  13.800   9.103
80930SOL    HW244630  13.226  13.919   9.013
80931SOL     OW44631   7.647  12.589   0.352
80931SOL    HW144632   7.712  12.659   0.346
80931SOL    HW244633   7.698  12.509   0.341
80932SOL     OW44634   5.498  13.711   6.416
80932SOL    HW144635   5.445  13.733   6.492
80932SOL    HW244636   5.498  13.791   6.363
80933SOL     OW44637   4.109  14.391   4.241
80933SOL    HW144638   4.159  14.311   4.231
80933SOL    HW244639   4.170  14.461   4.220
80934SOL     OW44640  12.412   9.402   4.893
80934SOL    HW144641  12.342   9.399   4.959
80934SOL    HW244642  12.372   9.365   4.814
80935SOL     OW44643   1.462   4.090  14.725
80935SOL    HW144644   1.468   4.091  14.821
80935SOL    HW244645   1.368   4.090  14.707
80936SOL     OW44646   8.652   6.350   7.096
80936SOL    HW144647   8.578   6.316   7.046
80936SOL    HW244648   8.715   6.378   7.030
80937SOL     OW44649   3.587  13.510   5.651
80937SOL    HW144650   3.659  13.569   5.633
80937SOL    HW244651   3.586  13.501   5.747
80938SOL     OW44652   9.426   9.008  10.471
80938SOL    HW144653   9.462   8.956  10.399
80938SOL    HW244654   9.493   9.074  10.488
80939SOL     OW44655   4.546   9.049   9.639
80939SOL    HW144656   4.512   9.064   9.551
80939SOL    HW244657   4.624   9.104   9.645
80940SOL     OW44658   0.612  10.893  13.898
80940SOL    HW144659   0.616  10.810  13.851
80940SOL    HW244660   0.604  10.868  13.990
80941SOL     OW44661   4.625   8.292  13.692
80941SOL    HW144662   4.601   8.267  13.602
80941SOL    HW244663   4.684   8.366  13.681
80942SOL     OW44664   6.219  10.213   9.209
80942SOL    HW144665   6.223  10.168   9.124
80942SOL    HW244666   6.128  10.242   9.216
80943SOL     OW44667  12.172  11.541  11.890
80943SOL    HW144668  12.252  11.488  11.897
80943SOL    HW244669  12.138  11.522  11.803
80944SOL     OW44670   8.355   0.029   5.678
80944SOL    HW144671   8.286  14.844   5.661
80944SOL    HW244672   8.373   0.067   5.592
80945SOL     OW44673   0.833  11.573   1.736
80945SOL    HW144674   0.841  11.597   1.644
80945SOL    HW244675   0.916  11.530   1.757
80946SOL     OW44676  12.063   8.113  12.946
80946SOL    HW144677  12.034   8.057  12.874
80946SOL    HW244678  11.992   8.177  12.956
80947SOL     OW44679  12.518  11.689  14.379
80947SOL    HW144680  12.449  11.635  14.419
80947SOL    HW244681  12.563  11.630  14.319
80948SOL     OW44682  13.577  11.170   7.093
80948SOL    HW144683  13.582  11.244   7.153
80948SOL    HW244684  13.654  11.178   7.037
80949SOL     OW44685  11.150  14.728  12.712
80949SOL    HW144686  11.109  14.712  12.627
80949SOL    HW244687  11.225  14.783  12.692
80950SOL     OW44688   9.634   8.179   8.506
80950SOL    HW144689   9.670   8.100   8.466
80950SOL    HW244690   9.543   8.181   8.477
80951SOL     OW44691   2.643   0.027   9.335
80951SOL    HW144692   2.556   0.004   9.366
80951SOL    HW244693   2.643   0.123   9.334
80952SOL     OW44694   1.470  11.456   5.714
80952SOL    HW144695   1.548  11.413   5.747
80952SOL    HW244696   1.399  11.424   5.771
80953SOL     OW44697  10.831  12.952  14.824
80953SOL    HW144698  10.847  12.931   0.037
80953SOL    HW244699  10.739  12.930  14.811
80954SOL     OW44700   3.662   5.422   0.924
80954SOL    HW144701   3.704   5.426   1.010
80954SOL    HW244702   3.735   5.422   0.861
80955SOL     OW44703   1.675  12.840  14.741
80955SOL    HW144704   1.712  12.901  14.677
80955SOL    HW244705   1.583  12.833  14.717
80956SOL     OW44706   9.825   7.935   7.115
80956SOL    HW144707   9.778   8.000   7.168
80956SOL    HW244708   9.776   7.853   7.129
80957SOL     OW44709   6.898   9.199   3.744
80957SOL    HW144710   6.924   9.222   3.655
80957SOL    HW244711   6.806   9.225   3.749
80958SOL     OW44712  10.903   7.178   1.398
80958SOL    HW144713  10.894   7.124   1.319
80958SOL    HW244714  10.947   7.121   1.461
80959SOL     OW44715   0.914   5.807   1.637
80959SOL    HW144716   0.895   5.727   1.588
80959SOL    HW244717   0.987   5.846   1.590
80960SOL     OW44718  10.126   7.161  10.932
80960SOL    HW144719  10.159   7.075  10.910
80960SOL    HW244720  10.106   7.156  11.026
80961SOL     OW44721   6.543   9.760   1.796
80961SOL    HW144722   6.483   9.687   1.812
80961SOL    HW244723   6.493   9.838   1.819
80962SOL     OW44724   6.269   2.532   2.793
80962SOL    HW144725   6.233   2.545   2.705
80962SOL    HW244726   6.201   2.483   2.839
80963SOL     OW44727  11.449   0.936   3.075
80963SOL    HW144728  11.480   0.874   3.008
80963SOL    HW244729  11.502   1.014   3.061
80964SOL     OW44730  11.656   2.429   1.133
80964SOL    HW144731  11.666   2.334   1.136
80964SOL    HW244732  11.571   2.444   1.091
80965SOL     OW44733   0.308   9.467   5.888
80965SOL    HW144734   0.245   9.536   5.867
80965SOL    HW244735   0.350   9.496   5.969
80966SOL     OW44736  11.085  14.082  12.701
80966SOL    HW144737  11.144  14.032  12.757
80966SOL    HW244738  11.140  14.112  12.628
80967SOL     OW44739   1.077  10.455   4.277
80967SOL    HW144740   1.115  10.390   4.336
80967SOL    HW244741   1.120  10.439   4.193
80968SOL     OW44742  12.065  10.453   1.608
80968SOL    HW144743  12.001  10.523   1.611
80968SOL    HW244744  12.061  10.412   1.695
80969SOL     OW44745  11.443   8.741   3.209
80969SOL    HW144746  11.462   8.794   3.131
80969SOL    HW244747  11.352   8.712   3.197
80970SOL     OW44748   9.015   7.158  14.148
80970SOL    HW144749   9.039   7.251  14.143
80970SOL    HW244750   8.999   7.133  14.057
80971SOL     OW44751   5.517   1.881   0.120
80971SOL    HW144752   5.504   1.824   0.044
80971SOL    HW244753   5.609   1.870   0.142
80972SOL     OW44754  11.665   0.076  13.051
80972SOL    HW144755  11.600   0.115  13.109
80972SOL    HW244756  11.626  14.872  13.024
80973SOL     OW44757   7.731   4.721  12.914
80973SOL    HW144758   7.753   4.677  12.832
80973SOL    HW244759   7.689   4.803  12.886
80974SOL     OW44760   0.965   1.804  13.211
80974SOL    HW144761   1.046   1.819  13.163
80974SOL    HW244762   0.900   1.859  13.167
80975SOL     OW44763  10.628  12.705   1.030
80975SOL    HW144764  10.631  12.692   1.124
80975SOL    HW244765  10.596  12.621   0.995
80976SOL     OW44766   5.253   9.859   0.810
80976SOL    HW144767   5.223   9.848   0.720
80976SOL    HW244768   5.279   9.771   0.837
80977SOL     OW44769   4.681  13.299   6.654
80977SOL    HW144770   4.722  13.217   6.682
80977SOL    HW244771   4.748  13.366   6.672
80978SOL     OW44772  12.779   8.369   5.460
80978SOL    HW144773  12.806   8.288   5.503
80978SOL    HW244774  12.779   8.348   5.367
80979SOL     OW44775   5.015   0.017   8.752
80979SOL    HW144776   5.001   0.092   8.695
80979SOL    HW244777   4.988   0.047   8.839
80980SOL     OW44778   9.705  13.232   4.720
80980SOL    HW144779   9.748  13.284   4.653
80980SOL    HW244780   9.633  13.188   4.674
80981SOL     OW44781  13.655   7.091  10.485
80981SOL    HW144782  13.650   7.023  10.552
80981SOL    HW244783  13.567   7.097  10.449
80982SOL     OW44784   0.789   0.114   3.423
80982SOL    HW144785   0.749   0.172   3.359
80982SOL    HW244786   0.785   0.163   3.505
80983SOL     OW44787   1.828   8.615   5.483
80983SOL    HW144788   1.742   8.607   5.524
80983SOL    HW244789   1.859   8.701   5.511
80984SOL     OW44790   8.686   6.938  12.471
80984SOL    HW144791   8.636   6.859  12.449
80984SOL    HW244792   8.730   6.962  12.389
80985SOL     OW44793   5.241  13.995   0.930
80985SOL    HW144794   5.229  13.975   0.837
80985SOL    HW244795   5.311  13.936   0.958
80986SOL     OW44796  13.086   8.134  11.405
80986SOL    HW144797  13.054   8.050  11.437
80986SOL    HW244798  13.182   8.124  11.404
80987SOL     OW44799   8.019  12.111  14.864
80987SOL    HW144800   7.963  12.044  14.827
80987SOL    HW244801   7.994  12.191  14.818
80988SOL     OW44802  13.460   8.612   6.678
80988SOL    HW144803  13.435   8.576   6.593
80988SOL    HW244804  13.517   8.686   6.658
80989SOL     OW44805  10.777  11.228  10.700
80989SOL    HW144806  10.793  11.267  10.614
80989SOL    HW244807  10.809  11.138  10.692
80990SOL     OW44808   7.608  12.236   1.002
80990SOL    HW144809   7.564  12.161   1.041
80990SOL    HW244810   7.652  12.279   1.076
80991SOL     OW44811  14.502   5.459   7.112
80991SOL    HW144812  14.567   5.395   7.082
80991SOL    HW244813  14.439   5.465   7.040
80992SOL     OW44814   5.487  10.976   0.052
80992SOL    HW144815   5.509  10.959   0.144
80992SOL    HW244816   5.522  10.900   0.005
80993SOL     OW44817   5.828   7.254   6.119
80993SOL    HW144818   5.817   7.212   6.204
80993SOL    HW244819   5.920   7.282   6.119
80994SOL     OW44820   9.499   5.452  12.784
80994SOL    HW144821   9.514   5.447  12.689
80994SOL    HW244822   9.441   5.378  12.803
80995SOL     OW44823   4.001  12.622  11.818
80995SOL    HW144824   3.945  12.673  11.759
80995SOL    HW244825   3.948  12.547  11.843
80996SOL     OW44826   6.519  13.936   7.353
80996SOL    HW144827   6.518  13.993   7.430
80996SOL    HW244828   6.599  13.885   7.362
80997SOL     OW44829   3.242  13.368   7.163
80997SOL    HW144830   3.259  13.435   7.097
80997SOL    HW244831   3.214  13.291   7.114
80998SOL     OW44832   8.853   5.012  13.648
80998SOL    HW144833   8.936   4.992  13.692
80998SOL    HW244834   8.787   4.999  13.716
80999SOL     OW44835   9.151   5.129   2.676
80999SOL    HW144836   9.235   5.092   2.703
80999SOL    HW244837   9.152   5.126   2.580
81000SOL     OW44838   4.241   6.569  13.545
81000SOL    HW144839   4.206   6.648  13.504
81000SOL    HW244840   4.321   6.550  13.496
81001SOL     OW44841   7.788   2.100  13.679
81001SOL    HW144842   7.868   2.144  13.709
81001SOL    HW244843   7.722   2.169  13.675
81002SOL     OW44844  14.699  11.045   6.605
81002SOL    HW144845  14.697  11.087   6.519
81002SOL    HW244846  14.684  10.952   6.586
81003SOL     OW44847   2.439   7.998   2.781
81003SOL    HW144848   2.519   7.959   2.818
81003SOL    HW244849   2.449   8.092   2.795
81004SOL     OW44850   6.877   6.518   4.830
81004SOL    HW144851   6.916   6.431   4.828
81004SOL    HW244852   6.896   6.551   4.918
81005SOL     OW44853  10.551   1.651  12.196
81005SOL    HW144854  10.547   1.576  12.255
81005SOL    HW244855  10.461   1.685  12.194
81006SOL     OW44856   6.169   4.418  11.502
81006SOL    HW144857   6.179   4.336  11.454
81006SOL    HW244858   6.113   4.395  11.577
81007SOL     OW44859   4.897   3.377   2.997
81007SOL    HW144860   4.981   3.409   3.030
81007SOL    HW244861   4.898   3.283   3.016
81008SOL     OW44862  14.481   8.978  13.894
81008SOL    HW144863  14.480   9.012  13.983
81008SOL    HW244864  14.434   9.044  13.843
81009SOL     OW44865   2.835   5.655   5.948
81009SOL    HW144866   2.846   5.630   6.040
81009SOL    HW244867   2.915   5.702   5.927
81010SOL     OW44868  10.987   8.509   9.854
81010SOL    HW144869  10.949   8.444   9.913
81010SOL    HW244870  10.945   8.591   9.878
81011SOL     OW44871   0.696   3.489   6.333
81011SOL    HW144872   0.664   3.544   6.261
81011SOL    HW244873   0.761   3.431   6.292
81012SOL     OW44874   9.268   3.147   8.802
81012SOL    HW144875   9.254   3.081   8.871
81012SOL    HW244876   9.268   3.230   8.848
81013SOL     OW44877   5.511  11.838   4.576
81013SOL    HW144878   5.565  11.785   4.517
81013SOL    HW244879   5.572  11.900   4.615
81014SOL     OW44880   4.434   1.329   7.371
81014SOL    HW144881   4.400   1.399   7.426
81014SOL    HW244882   4.500   1.286   7.426
81015SOL     OW44883  12.819   7.673  10.182
81015SOL    HW144884  12.857   7.593  10.219
81015SOL    HW244885  12.837   7.666  10.088
81016SOL     OW44886  14.225   4.169   3.837
81016SOL    HW144887  14.257   4.096   3.891
81016SOL    HW244888  14.130   4.169   3.850
81017SOL     OW44889  12.683   1.743   0.191
81017SOL    HW144890  12.767   1.780   0.162
81017SOL    HW244891  12.690   1.650   0.169
81018SOL     OW44892   9.793   3.054  12.981
81018SOL    HW144893   9.726   3.077  13.046
81018SOL    HW244894   9.860   3.007  13.030
81019SOL     OW44895   6.801   7.112  12.750
81019SOL    HW144896   6.740   7.179  12.720
81019SOL    HW244897   6.877   7.161  12.782
81020SOL     OW44898   8.256  14.471   2.668
81020SOL    HW144899   8.256  14.545   2.608
81020SOL    HW244900   8.343  14.431   2.659
81021SOL     OW44901   1.150   5.461   2.570
81021SOL    HW144902   1.240   5.427   2.579
81021SOL    HW244903   1.161   5.556   2.564
81022SOL     OW44904   1.576   0.204  13.042
81022SOL    HW144905   1.656   0.153  13.024
81022SOL    HW244906   1.600   0.294  13.021
81023SOL     OW44907   2.194  12.609   0.620
81023SOL    HW144908   2.181  12.609   0.525
81023SOL    HW244909   2.289  12.607   0.632
81024SOL     OW44910   8.666   6.027  11.294
81024SOL    HW144911   8.756   6.057  11.279
81024SOL    HW244912   8.630   6.089  11.357
81025SOL     OW44913   4.387  14.847   5.823
81025SOL    HW144914   4.390   0.022   5.744
81025SOL    HW244915   4.479  14.835   5.848
81026SOL     OW44916   4.338  11.464  11.970
81026SOL    HW144917   4.243  11.462  11.958
81026SOL    HW244918   4.363  11.554  11.949
81027SOL     OW44919  11.452   0.596   5.167
81027SOL    HW144920  11.471   0.683   5.203
81027SOL    HW244921  11.491   0.598   5.079
81028SOL     OW44922  10.055   4.102   5.757
81028SOL    HW144923  10.130   4.141   5.712
81028SOL    HW244924  10.025   4.033   5.698
81029SOL     OW44925   8.313   9.681   9.449
81029SOL    HW144926   8.223   9.665   9.422
81029SOL    HW244927   8.305   9.718   9.537
81030SOL     OW44928  12.396  11.637  13.748
81030SOL    HW144929  12.474  11.684  13.777
81030SOL    HW244930  12.323  11.691  13.780
81031SOL     OW44931  11.613   3.579  14.320
81031SOL    HW144932  11.565   3.586  14.402
81031SOL    HW244933  11.562   3.631  14.258
81032SOL     OW44934   4.357  11.683  14.637
81032SOL    HW144935   4.446  11.703  14.665
81032SOL    HW244936   4.354  11.709  14.545
81033SOL     OW44937   1.280  11.084   0.274
81033SOL    HW144938   1.198  11.086   0.324
81033SOL    HW244939   1.317  11.171   0.286
81034SOL     OW44940   0.631  11.414   6.604
81034SOL    HW144941   0.537  11.431   6.604
81034SOL    HW244942   0.671  11.501   6.607
81035SOL     OW44943   0.381  10.271   9.080
81035SOL    HW144944   0.452  10.253   9.142
81035SOL    HW244945   0.413  10.344   9.028
81036SOL     OW44946  11.411   5.491   1.899
81036SOL    HW144947  11.506   5.503   1.898
81036SOL    HW244948  11.392   5.458   1.986
81037SOL     OW44949   9.863  13.380  13.156
81037SOL    HW144950   9.947  13.425  13.168
81037SOL    HW244951   9.865  13.307  13.218
81038SOL     OW44952   9.438   7.543  12.686
81038SOL    HW144953   9.493   7.539  12.764
81038SOL    HW244954   9.354   7.577  12.718
81039SOL     OW44955   0.354  10.715   9.592
81039SOL    HW144956   0.283  10.750   9.646
81039SOL    HW244957   0.354  10.621   9.611
81040SOL     OW44958   8.757  14.244   6.131
81040SOL    HW144959   8.759  14.160   6.177
81040SOL    HW244960   8.667  14.276   6.145
81041SOL     OW44961   1.959   8.042   4.179
81041SOL    HW144962   2.043   8.065   4.139
81041SOL    HW244963   1.965   8.078   4.267
81042SOL     OW44964   7.784   1.216   4.393
81042SOL    HW144965   7.878   1.214   4.410
81042SOL    HW244966   7.749   1.279   4.456
81043SOL     OW44967   4.069   5.836   5.151
81043SOL    HW144968   4.033   5.923   5.136
81043SOL    HW244969   4.164   5.850   5.155
81044SOL     OW44970   4.458   9.744   1.071
81044SOL    HW144971   4.500   9.667   1.107
81044SOL    HW244972   4.405   9.711   0.998
81045SOL     OW44973  11.355   5.147   5.143
81045SOL    HW144974  11.340   5.241   5.157
81045SOL    HW244975  11.350   5.136   5.048
81046SOL     OW44976   9.871  10.302  11.844
81046SOL    HW144977   9.853  10.278  11.935
81046SOL    HW244978   9.947  10.250  11.820
81047SOL     OW44979  12.592  10.302   4.327
81047SOL    HW144980  12.496  10.308   4.325
81047SOL    HW244981  12.609  10.216   4.365
81048SOL     OW44982   1.363   1.356  13.952
81048SOL    HW144983   1.386   1.434  14.003
81048SOL    HW244984   1.384   1.282  14.009
81049SOL     OW44985  10.543  13.781  12.874
81049SOL    HW144986  10.501  13.714  12.928
81049SOL    HW244987  10.596  13.832  12.935
81050SOL     OW44988   1.853   4.941   2.241
81050SOL    HW144989   1.786   4.882   2.274
81050SOL    HW244990   1.892   4.979   2.321
81051SOL     OW44991  11.436  12.319  12.363
81051SOL    HW144992  11.510  12.380  12.365
81051SOL    HW244993  11.367  12.365  12.411
81052SOL     OW44994   0.128   0.617   3.587
81052SOL    HW144995   0.210   0.663   3.602
81052SOL    HW244996   0.145   0.527   3.617
81053SOL     OW44997  13.988   2.711   8.514
81053SOL    HW144998  14.007   2.631   8.564
81053SOL    HW244999  14.035   2.780   8.560
81054SOL     OW45000   0.403  10.014   6.738
81054SOL    HW145001   0.405   9.991   6.831
81054SOL    HW245002   0.438  10.103   6.735
81055SOL     OW45003  10.012  13.227   4.113
81055SOL    HW145004   9.965  13.284   4.052
81055SOL    HW245005   9.961  13.147   4.115
81056SOL     OW45006   2.116  12.730   9.142
81056SOL    HW145007   2.175  12.781   9.086
81056SOL    HW245008   2.174  12.665   9.183
81057SOL     OW45009  12.765  13.668  11.003
81057SOL    HW145010  12.694  13.604  10.994
81057SOL    HW245011  12.720  13.751  11.016
81058SOL     OW45012   2.472   2.213   8.248
81058SOL    HW145013   2.467   2.255   8.334
81058SOL    HW245014   2.553   2.247   8.210
81059SOL     OW45015   2.522  10.877   2.292
81059SOL    HW145016   2.462  10.861   2.219
81059SOL    HW245017   2.547  10.790   2.322
81060SOL     OW45018   0.323   3.917  13.336
81060SOL    HW145019   0.278   3.850  13.389
81060SOL    HW245020   0.416   3.901  13.351
81061SOL     OW45021   1.296  11.567   9.523
81061SOL    HW145022   1.270  11.590   9.434
81061SOL    HW245023   1.378  11.615   9.537
81062SOL     OW45024   5.798  11.952   1.666
81062SOL    HW145025   5.708  11.957   1.698
81062SOL    HW245026   5.839  12.033   1.695
81063SOL     OW45027   3.143   1.429   3.301
81063SOL    HW145028   3.166   1.410   3.210
81063SOL    HW245029   3.048   1.414   3.305
81064SOL     OW45030  10.001  12.606   4.902
81064SOL    HW145031   9.994  12.569   4.813
81064SOL    HW245032  10.026  12.531   4.956
81065SOL     OW45033   0.531  11.331  14.496
81065SOL    HW145034   0.441  11.346  14.466
81065SOL    HW245035   0.531  11.241  14.528
81066SOL     OW45036   8.390  10.922  13.969
81066SOL    HW145037   8.373  11.013  13.943
81066SOL    HW245038   8.471  10.927  14.020
81067SOL     OW45039   9.627   7.880   0.160
81067SOL    HW145040   9.627   7.784   0.164
81067SOL    HW245041   9.572   7.907   0.234
81068SOL     OW45042   5.070   4.251   4.878
81068SOL    HW145043   5.024   4.271   4.960
81068SOL    HW245044   5.163   4.257   4.901
81069SOL     OW45045   7.823   4.327   5.492
81069SOL    HW145046   7.801   4.420   5.485
81069SOL    HW245047   7.738   4.284   5.508
81070SOL     OW45048  10.306   7.564  14.793
81070SOL    HW145049  10.392   7.558  14.834
81070SOL    HW245050  10.308   7.647  14.744
81071SOL     OW45051  10.089   0.567   2.922
81071SOL    HW145052  10.067   0.607   2.838
81071SOL    HW245053  10.019   0.503   2.938
81072SOL     OW45054   1.032   9.027  13.956
81072SOL    HW145055   1.069   8.965  14.018
81072SOL    HW245056   0.976   8.974  13.900
81073SOL     OW45057   1.690  13.530   9.796
81073SOL    HW145058   1.753  13.567   9.733
81073SOL    HW245059   1.612  13.512   9.743
81074SOL     OW45060   9.073   2.643  11.299
81074SOL    HW145061   9.067   2.698  11.378
81074SOL    HW245062   9.082   2.554  11.332
81075SOL     OW45063   7.838   3.947   2.414
81075SOL    HW145064   7.788   3.894   2.476
81075SOL    HW245065   7.901   3.994   2.468
81076SOL     OW45066   9.040   5.388   8.744
81076SOL    HW145067   9.132   5.370   8.766
81076SOL    HW245068   9.028   5.350   8.657
81077SOL     OW45069   9.191  14.560  13.650
81077SOL    HW145070   9.103  14.589  13.624
81077SOL    HW245071   9.187  14.554  13.745
81078SOL     OW45072  11.231   7.345  13.627
81078SOL    HW145073  11.177   7.276  13.590
81078SOL    HW245074  11.189   7.367  13.710
81079SOL     OW45075   9.090   5.166  11.167
81079SOL    HW145076   9.025   5.233  11.188
81079SOL    HW245077   9.145   5.161  11.245
81080SOL     OW45078  12.503   0.202  11.569
81080SOL    HW145079  12.571   0.242  11.516
81080SOL    HW245080  12.485   0.266  11.638
81081SOL     OW45081   2.808   9.720   8.159
81081SOL    HW145082   2.877   9.678   8.107
81081SOL    HW245083   2.847   9.732   8.246
81082SOL     OW45084   4.900   9.423  12.619
81082SOL    HW145085   4.894   9.467  12.704
81082SOL    HW245086   4.985   9.450  12.584
81083SOL     OW45087  10.847   0.267   1.941
81083SOL    HW145088  10.826   0.222   2.023
81083SOL    HW245089  10.926   0.223   1.909
81084SOL     OW45090  12.978  12.362  11.500
81084SOL    HW145091  12.945  12.422  11.434
81084SOL    HW245092  13.069  12.389  11.513
81085SOL     OW45093   0.849  13.892   3.604
81085SOL    HW145094   0.899  13.845   3.671
81085SOL    HW245095   0.808  13.964   3.652
81086SOL     OW45096   7.712   8.956  10.265
81086SOL    HW145097   7.631   8.905  10.277
81086SOL    HW245098   7.741   8.976  10.354
81087SOL     OW45099  11.255  10.336   0.709
81087SOL    HW145100  11.288  10.391   0.638
81087SOL    HW245101  11.299  10.369   0.787
81088SOL     OW45102   5.099   3.169   5.732
81088SOL    HW145103   5.045   3.242   5.761
81088SOL    HW245104   5.042   3.093   5.738
81089SOL     OW45105   7.408   2.725   3.492
81089SOL    HW145106   7.463   2.670   3.437
81089SOL    HW245107   7.459   2.738   3.572
81090SOL     OW45108   5.923   9.431  13.837
81090SOL    HW145109   6.012   9.456  13.859
81090SOL    HW245110   5.929   9.339  13.810
81091SOL     OW45111  13.441   2.052  13.946
81091SOL    HW145112  13.396   2.098  14.017
81091SOL    HW245113  13.378   1.987  13.915
81092SOL     OW45114   2.954   1.175   1.506
81092SOL    HW145115   2.865   1.145   1.525
81092SOL    HW245116   2.956   1.186   1.411
81093SOL     OW45117   0.533  11.384  13.758
81093SOL    HW145118   0.607  11.444  13.754
81093SOL    HW245119   0.562  11.313  13.815
81094SOL     OW45120   8.986  10.221  11.503
81094SOL    HW145121   8.952  10.310  11.496
81094SOL    HW245122   9.023  10.217  11.592
81095SOL     OW45123  11.095  13.183  10.254
81095SOL    HW145124  11.032  13.156  10.321
81095SOL    HW245125  11.175  13.201  10.302
81096SOL     OW45126   5.051  11.358  12.858
81096SOL    HW145127   5.126  11.395  12.811
81096SOL    HW245128   5.066  11.264  12.857
81097SOL     OW45129  10.197   1.836   8.490
81097SOL    HW145130  10.129   1.776   8.520
81097SOL    HW245131  10.180   1.846   8.396
81098SOL     OW45132   5.898   1.315   0.834
81098SOL    HW145133   5.830   1.268   0.881
81098SOL    HW245134   5.951   1.247   0.793
81099SOL     OW45135   3.803   9.420  10.434
81099SOL    HW145136   3.853   9.341  10.453
81099SOL    HW245137   3.720   9.407  10.481
81100SOL     OW45138   4.579   5.754   9.699
81100SOL    HW145139   4.593   5.802   9.782
81100SOL    HW245140   4.520   5.811   9.649
81101SOL     OW45141   4.223   9.912   0.814
81101SOL    HW145142   4.237   9.946   0.726
81101SOL    HW245143   4.272   9.830   0.817
81102SOL     OW45144   4.268   2.904   4.329
81102SOL    HW145145   4.339   2.948   4.281
81102SOL    HW245146   4.281   2.929   4.420
81103SOL     OW45147   7.315   3.240   3.377
81103SOL    HW145148   7.348   3.156   3.347
81103SOL    HW245149   7.365   3.305   3.328
81104SOL     OW45150   5.332   2.900   3.837
81104SOL    HW145151   5.410   2.921   3.787
81104SOL    HW245152   5.330   2.804   3.839
81105SOL     OW45153  13.039   2.345   0.841
81105SOL    HW145154  12.965   2.380   0.791
81105SOL    HW245155  13.025   2.376   0.930
81106SOL     OW45156   3.435  13.117   2.478
81106SOL    HW145157   3.451  13.187   2.414
81106SOL    HW245158   3.358  13.146   2.527
81107SOL     OW45159   2.239   3.875   7.596
81107SOL    HW145160   2.157   3.887   7.549
81107SOL    HW245161   2.306   3.912   7.538
81108SOL     OW45162   5.651   2.033  12.520
81108SOL    HW145163   5.676   2.045  12.612
81108SOL    HW245164   5.631   2.122  12.489
81109SOL     OW45165   0.806   7.920  11.557
81109SOL    HW145166   0.854   7.979  11.499
81109SOL    HW245167   0.793   7.841  11.505
81110SOL     OW45168   0.832   3.799  10.717
81110SOL    HW145169   0.815   3.725  10.658
81110SOL    HW245170   0.853   3.758  10.801
81111SOL     OW45171   6.216   4.432   2.539
81111SOL    HW145172   6.128   4.443   2.503
81111SOL    HW245173   6.245   4.348   2.506
81112SOL     OW45174  10.115   2.782  13.663
81112SOL    HW145175  10.152   2.694  13.658
81112SOL    HW245176  10.144   2.824  13.582
81113SOL     OW45177   7.649   2.633   7.412
81113SOL    HW145178   7.654   2.718   7.455
81113SOL    HW245179   7.557   2.623   7.390
81114SOL     OW45180  13.189   9.730   9.872
81114SOL    HW145181  13.147   9.661   9.821
81114SOL    HW245182  13.126   9.803   9.870
81115SOL     OW45183  10.497   9.940   4.414
81115SOL    HW145184  10.437   9.928   4.488
81115SOL    HW245185  10.582   9.915   4.449
81116SOL     OW45186   4.934   3.792   0.143
81116SOL    HW145187   4.852   3.743   0.137
81116SOL    HW245188   4.967   3.772   0.231
81117SOL     OW45189   8.314   9.448   9.094
81117SOL    HW145190   8.400   9.479   9.067
81117SOL    HW245191   8.330   9.359   9.127
81118SOL     OW45192   4.451   8.735  11.250
81118SOL    HW145193   4.406   8.783  11.180
81118SOL    HW245194   4.528   8.788  11.269
81119SOL     OW45195  10.456   4.407   9.777
81119SOL    HW145196  10.459   4.322   9.822
81119SOL    HW245197  10.513   4.464   9.830
81120SOL     OW45198   0.938   8.199   9.072
81120SOL    HW145199   1.027   8.169   9.093
81120SOL    HW245200   0.899   8.126   9.024
81121SOL     OW45201   0.250  11.027   1.258
81121SOL    HW145202   0.163  11.031   1.220
81121SOL    HW245203   0.244  11.079   1.338
81122SOL     OW45204   9.176  14.851   9.004
81122SOL    HW145205   9.217  14.844   9.090
81122SOL    HW245206   9.206   0.056   8.969
81123SOL     OW45207   5.730  11.468   4.994
81123SOL    HW145208   5.747  11.442   5.084
81123SOL    HW245209   5.656  11.528   5.001
81124SOL     OW45210   4.906  11.611  14.608
81124SOL    HW145211   4.975  11.582  14.666
81124SOL    HW245212   4.853  11.671  14.661
81125SOL     OW45213   8.071  10.408  11.659
81125SOL    HW145214   8.092  10.464  11.584
81125SOL    HW245215   8.099  10.457  11.735
81126SOL     OW45216   2.635   2.622   6.371
81126SOL    HW145217   2.637   2.702   6.318
81126SOL    HW245218   2.558   2.633   6.427
81127SOL     OW45219  13.869   1.009   2.904
81127SOL    HW145220  13.884   1.040   2.993
81127SOL    HW245221  13.956   1.003   2.866
81128SOL     OW45222   1.004   0.944   3.777
81128SOL    HW145223   0.973   0.970   3.690
81128SOL    HW245224   1.061   1.016   3.804
81129SOL     OW45225   9.066  12.789   8.169
81129SOL    HW145226   9.144  12.752   8.129
81129SOL    HW245227   9.046  12.867   8.116
81130SOL     OW45228  12.981   8.233   1.137
81130SOL    HW145229  13.039   8.283   1.195
81130SOL    HW245230  13.041   8.185   1.080
81131SOL     OW45231   1.168   3.916   4.283
81131SOL    HW145232   1.229   3.845   4.303
81131SOL    HW245233   1.093   3.901   4.340
81132SOL     OW45234  10.623  13.694  11.308
81132SOL    HW145235  10.686  13.726  11.243
81132SOL    HW245236  10.665  13.616  11.345
81133SOL     OW45237   0.225  13.869   2.583
81133SOL    HW145238   0.251  13.897   2.671
81133SOL    HW245239   0.245  13.944   2.527
81134SOL     OW45240   3.360   3.367   7.730
81134SOL    HW145241   3.274   3.325   7.724
81134SOL    HW245242   3.384   3.359   7.822
81135SOL     OW45243  14.429   8.485   8.444
81135SOL    HW145244  14.465   8.402   8.414
81135SOL    HW245245  14.364   8.460   8.510
81136SOL     OW45246   1.813   3.041  10.765
81136SOL    HW145247   1.828   3.072  10.676
81136SOL    HW245248   1.896   3.001  10.792
81137SOL     OW45249  10.571   8.703  14.498
81137SOL    HW145250  10.504   8.764  14.465
81137SOL    HW245251  10.645   8.715  14.438
81138SOL     OW45252   7.222  10.164   1.567
81138SOL    HW145253   7.312  10.134   1.579
81138SOL    HW245254   7.230  10.253   1.534
81139SOL     OW45255  10.752   2.097   5.311
81139SOL    HW145256  10.710   2.052   5.238
81139SOL    HW245257  10.783   2.027   5.368
81140SOL     OW45258   7.368   9.579   0.538
81140SOL    HW145259   7.288   9.598   0.588
81140SOL    HW245260   7.391   9.489   0.563
81141SOL     OW45261   7.358   3.247   6.641
81141SOL    HW145262   7.385   3.156   6.653
81141SOL    HW245263   7.439   3.294   6.621
81142SOL     OW45264   8.063   2.859  10.575
81142SOL    HW145265   8.114   2.912  10.515
81142SOL    HW245266   8.123   2.790  10.604
81143SOL     OW45267  12.908   9.576  10.184
81143SOL    HW145268  12.921   9.520  10.108
81143SOL    HW245269  12.814   9.573  10.200
81144SOL     OW45270   3.153   3.876   2.634
81144SOL    HW145271   3.245   3.896   2.648
81144SOL    HW245272   3.153   3.784   2.607
81145SOL     OW45273   2.806   1.680   1.407
81145SOL    HW145274   2.805   1.708   1.499
81145SOL    HW245275   2.776   1.757   1.358
81146SOL     OW45276   6.886  10.592  12.071
81146SOL    HW145277   6.936  10.519  12.035
81146SOL    HW245278   6.950  10.662  12.081
81147SOL     OW45279  13.470   7.132  12.229
81147SOL    HW145280  13.564   7.118  12.235
81147SOL    HW245281  13.438   7.060  12.174
81148SOL     OW45282  14.003   2.056   4.419
81148SOL    HW145283  14.054   2.060   4.500
81148SOL    HW245284  13.989   2.147   4.395
81149SOL     OW45285   9.945   9.844  10.370
81149SOL    HW145286  10.006   9.903  10.327
81149SOL    HW245287   9.865   9.896  10.382
81150SOL     OW45288   2.212  14.667  13.794
81150SOL    HW145289   2.274  14.678  13.722
81150SOL    HW245290   2.128  14.650  13.751
81151SOL     OW45291   9.018   3.225   0.048
81151SOL    HW145292   8.985   3.265  14.847
81151SOL    HW245293   9.026   3.132   0.026
81152SOL     OW45294   6.260   8.511  14.271
81152SOL    HW145295   6.270   8.597  14.314
81152SOL    HW245296   6.273   8.530  14.178
81153SOL     OW45297   2.881   9.148   7.294
81153SOL    HW145298   2.967   9.117   7.323
81153SOL    HW245299   2.871   9.234   7.335
81154SOL     OW45300   0.275  13.111   4.347
81154SOL    HW145301   0.268  13.063   4.264
81154SOL    HW245302   0.194  13.161   4.353
81155SOL     OW45303  11.827  11.098  13.211
81155SOL    HW145304  11.778  11.042  13.272
81155SOL    HW245305  11.866  11.165  13.267
81156SOL     OW45306  13.278  11.460   2.841
81156SOL    HW145307  13.331  11.436   2.765
81156SOL    HW245308  13.333  11.440   2.916
81157SOL     OW45309   9.568   4.736   7.177
81157SOL    HW145310   9.634   4.738   7.246
81157SOL    HW245311   9.537   4.826   7.170
81158SOL     OW45312  11.749   8.537   0.209
81158SOL    HW145313  11.702   8.453   0.210
81158SOL    HW245314  11.722   8.580   0.290
81159SOL     OW45315   8.294  11.743  11.182
81159SOL    HW145316   8.352  11.814  11.211
81159SOL    HW245317   8.337  11.706  11.105
81160SOL     OW45318   0.921  10.661   1.719
81160SOL    HW145319   0.931  10.755   1.706
81160SOL    HW245320   0.886  10.628   1.637
81161SOL     OW45321   4.530   9.570  14.860
81161SOL    HW145322   4.571   9.636   0.036
81161SOL    HW245323   4.467   9.526   0.038
81162SOL     OW45324  10.250   9.543   2.905
81162SOL    HW145325  10.314   9.487   2.861
81162SOL    HW245326  10.205   9.485   2.967
81163SOL     OW45327   5.679  14.509   0.036
81163SOL    HW145328   5.766  14.548   0.044
81163SOL    HW245329   5.619  14.574   0.071
81164SOL     OW45330  10.851  10.877   4.784
81164SOL    HW145331  10.892  10.952   4.827
81164SOL    HW245332  10.764  10.910   4.758
81165SOL     OW45333   6.372  12.211   6.195
81165SOL    HW145334   6.447  12.243   6.145
81165SOL    HW245335   6.410  12.176   6.276
81166SOL     OW45336  12.197   4.162  14.842
81166SOL    HW145337  12.172   4.253  14.858
81166SOL    HW245338  12.272   4.146   0.020
81167SOL     OW45339   8.112  10.665   9.939
81167SOL    HW145340   8.022  10.655   9.971
81167SOL    HW245341   8.118  10.603   9.866
81168SOL     OW45342  14.022   4.760   5.213
81168SOL    HW145343  13.990   4.850   5.217
81168SOL    HW245344  14.048   4.740   5.304
81169SOL     OW45345  10.445   2.012   1.488
81169SOL    HW145346  10.355   2.041   1.500
81169SOL    HW245347  10.476   2.062   1.413
81170SOL     OW45348  14.564   8.412   7.041
81170SOL    HW145349  14.477   8.373   7.038
81170SOL    HW245350  14.587   8.413   7.134
81171SOL     OW45351   2.785  13.318   5.248
81171SOL    HW145352   2.739  13.402   5.237
81171SOL    HW245353   2.823  13.323   5.335
81172SOL     OW45354   3.259   8.515   7.783
81172SOL    HW145355   3.316   8.591   7.788
81172SOL    HW245356   3.309   8.452   7.731
81173SOL     OW45357  11.035   0.139   0.372
81173SOL    HW145358  10.980   0.146   0.294
81173SOL    HW245359  11.120   0.111   0.339
81174SOL     OW45360   8.808  11.476   0.671
81174SOL    HW145361   8.870  11.540   0.637
81174SOL    HW245362   8.812  11.402   0.609
81175SOL     OW45363  14.630  14.224  11.874
81175SOL    HW145364  14.624  14.299  11.934
81175SOL    HW245365  14.611  14.261  11.788
81176SOL     OW45366   2.682  13.121   8.477
81176SOL    HW145367   2.741  13.158   8.542
81176SOL    HW245368   2.596  13.156   8.499
81177SOL     OW45369  11.265   7.833   1.776
81177SOL    HW145370  11.250   7.842   1.682
81177SOL    HW245371  11.209   7.759   1.802
81178SOL     OW45372   2.258   1.605   0.175
81178SOL    HW145373   2.198   1.590   0.102
81178SOL    HW245374   2.217   1.676   0.225
81179SOL     OW45375  14.348  12.866   6.095
81179SOL    HW145376  14.310  12.946   6.130
81179SOL    HW245377  14.311  12.857   6.008
81180SOL     OW45378   8.516   7.926   9.782
81180SOL    HW145379   8.585   7.990   9.795
81180SOL    HW245380   8.563   7.844   9.762
81181SOL     OW45381  14.547   1.910  11.698
81181SOL    HW145382  14.464   1.862  11.698
81181SOL    HW245383  14.605   1.858  11.642
81182SOL     OW45384   0.444   3.663   5.827
81182SOL    HW145385   0.476   3.642   5.740
81182SOL    HW245386   0.368   3.718   5.812
81183SOL     OW45387  12.885   5.844   5.414
81183SOL    HW145388  12.922   5.784   5.349
81183SOL    HW245389  12.940   5.832   5.492
81184SOL     OW45390   6.798  13.675  10.907
81184SOL    HW145391   6.797  13.757  10.857
81184SOL    HW245392   6.852  13.695  10.984
81185SOL     OW45393  10.931  14.105   5.390
81185SOL    HW145394  10.965  14.182   5.435
81185SOL    HW245395  10.922  14.039   5.458
81186SOL     OW45396   0.070  10.309   6.237
81186SOL    HW145397   0.072  10.404   6.235
81186SOL    HW245398   0.055  10.287   6.329
81187SOL     OW45399  12.190   1.149   6.299
81187SOL    HW145400  12.192   1.124   6.391
81187SOL    HW245401  12.132   1.085   6.258
81188SOL     OW45402   0.415   3.329   4.310
81188SOL    HW145403   0.438   3.416   4.343
81188SOL    HW245404   0.388   3.281   4.388
81189SOL     OW45405   7.737   3.953   8.094
81189SOL    HW145406   7.712   3.863   8.075
81189SOL    HW245407   7.758   3.953   8.188
81190SOL     OW45408  10.147   1.123  13.015
81190SOL    HW145409  10.120   1.151  12.927
81190SOL    HW245410  10.066   1.115  13.064
81191SOL     OW45411   8.416   4.489   2.534
81191SOL    HW145412   8.493   4.471   2.588
81191SOL    HW245413   8.399   4.407   2.489
81192SOL     OW45414   4.152   2.449   1.040
81192SOL    HW145415   4.207   2.391   0.987
81192SOL    HW245416   4.093   2.490   0.977
81193SOL     OW45417   5.289   8.467  12.525
81193SOL    HW145418   5.217   8.417  12.487
81193SOL    HW245419   5.316   8.417  12.602
81194SOL     OW45420  10.617   8.777   9.756
81194SOL    HW145421  10.603   8.846   9.691
81194SOL    HW245422  10.574   8.700   9.719
81195SOL     OW45423  14.648   0.161   8.760
81195SOL    HW145424  14.611   0.211   8.832
81195SOL    HW245425  14.597   0.080   8.759
81196SOL     OW45426   5.477  12.272   2.890
81196SOL    HW145427   5.403  12.322   2.857
81196SOL    HW245428   5.438  12.193   2.928
81197SOL     OW45429   6.208  11.161  14.246
81197SOL    HW145430   6.185  11.254  14.258
81197SOL    HW245431   6.131  11.123  14.204
81198SOL     OW45432   4.818   7.610   5.285
81198SOL    HW145433   4.745   7.671   5.298
81198SOL    HW245434   4.881   7.659   5.233
81199SOL     OW45435   1.394   2.779   2.227
81199SOL    HW145436   1.442   2.711   2.179
81199SOL    HW245437   1.303   2.766   2.202
81200SOL     OW45438  14.747   7.117   3.154
81200SOL    HW145439  14.661   7.112   3.196
81200SOL    HW245440  14.786   7.197   3.189
81201SOL     OW45441  10.479   0.559  13.960
81201SOL    HW145442  10.428   0.540  14.038
81201SOL    HW245443  10.553   0.611  13.992
81202SOL     OW45444   8.337   5.854  10.895
81202SOL    HW145445   8.270   5.799  10.935
81202SOL    HW245446   8.420   5.812  10.920
81203SOL     OW45447  12.271  11.853   0.461
81203SOL    HW145448  12.295  11.895   0.543
81203SOL    HW245449  12.256  11.762   0.484
81204SOL     OW45450   9.740  13.418  12.902
81204SOL    HW145451   9.806  13.370  12.951
81204SOL    HW245452   9.790  13.467  12.836
81205SOL     OW45453  14.840   2.672  10.959
81205SOL    HW145454  14.795   2.618  11.024
81205SOL    HW245455  14.778   2.678  10.886
81206SOL     OW45456   6.335   1.910  10.465
81206SOL    HW145457   6.407   1.849  10.450
81206SOL    HW245458   6.287   1.910  10.382
81207SOL     OW45459   0.368   8.971   0.116
81207SOL    HW145460   0.336   9.004   0.200
81207SOL    HW245461   0.291   8.932   0.075
81208SOL     OW45462  11.235  11.855   8.414
81208SOL    HW145463  11.191  11.937   8.393
81208SOL    HW245464  11.189  11.822   8.491
81209SOL     OW45465   8.267   7.463   9.413
81209SOL    HW145466   8.257   7.522   9.487
81209SOL    HW245467   8.178   7.452   9.378
81210SOL     OW45468   4.678  12.820   5.167
81210SOL    HW145469   4.635  12.869   5.097
81210SOL    HW245470   4.765  12.800   5.133
81211SOL     OW45471   1.511   1.000   0.856
81211SOL    HW145472   1.571   1.072   0.838
81211SOL    HW245473   1.529   0.977   0.948
81212SOL     OW45474   5.285   2.683   9.758
81212SOL    HW145475   5.340   2.621   9.711
81212SOL    HW245476   5.215   2.630   9.796
81213SOL     OW45477   8.669   0.542  12.402
81213SOL    HW145478   8.591   0.574  12.357
81213SOL    HW245479   8.682   0.453  12.369
81214SOL     OW45480  12.488  13.458   1.841
81214SOL    HW145481  12.565  13.485   1.891
81214SOL    HW245482  12.417  13.455   1.906
81215SOL     OW45483  12.856   6.323   3.704
81215SOL    HW145484  12.788   6.329   3.637
81215SOL    HW245485  12.931   6.286   3.659
81216SOL     OW45486   9.733   2.858   9.045
81216SOL    HW145487   9.725   2.942   8.999
81216SOL    HW245488   9.771   2.799   8.980
81217SOL     OW45489   8.951  14.088   8.999
81217SOL    HW145490   8.964  13.993   9.003
81217SOL    HW245491   9.016  14.124   9.060
81218SOL     OW45492   7.853  13.968   4.386
81218SOL    HW145493   7.822  14.058   4.377
81218SOL    HW245494   7.853  13.952   4.480
81219SOL     OW45495   3.979   7.238  10.266
81219SOL    HW145496   4.066   7.229  10.306
81219SOL    HW245497   3.996   7.239  10.172
81220SOL     OW45498  13.279   1.139  12.657
81220SOL    HW145499  13.307   1.163  12.569
81220SOL    HW245500  13.342   1.072  12.685
81221SOL     OW45501   8.608   7.139  10.217
81221SOL    HW145502   8.546   7.073  10.250
81221SOL    HW245503   8.607   7.208  10.283
81222SOL     OW45504   3.810   0.324   0.775
81222SOL    HW145505   3.754   0.334   0.698
81222SOL    HW245506   3.899   0.326   0.740
81223SOL     OW45507   5.427  10.341   3.004
81223SOL    HW145508   5.376  10.368   2.928
81223SOL    HW245509   5.371  10.360   3.079
81224SOL     OW45510  14.106   9.622   3.004
81224SOL    HW145511  14.169   9.571   3.055
81224SOL    HW245512  14.156   9.699   2.976
81225SOL     OW45513   6.476   7.834  13.475
81225SOL    HW145514   6.539   7.782  13.525
81225SOL    HW245515   6.482   7.922  13.513
81226SOL     OW45516   1.737   3.020   1.915
81226SOL    HW145517   1.802   3.084   1.886
81226SOL    HW245518   1.654   3.051   1.878
81227SOL     OW45519   3.838   5.242   5.619
81227SOL    HW145520   3.856   5.211   5.530
81227SOL    HW245521   3.904   5.199   5.673
81228SOL     OW45522   5.507   6.039   3.498
81228SOL    HW145523   5.450   6.077   3.431
81228SOL    HW245524   5.585   6.012   3.449
81229SOL     OW45525   8.608   1.492   2.867
81229SOL    HW145526   8.513   1.483   2.855
81229SOL    HW245527   8.637   1.543   2.792
81230SOL     OW45528  14.031   0.985   1.054
81230SOL    HW145529  13.958   0.982   0.992
81230SOL    HW245530  14.014   0.913   1.115
81231SOL     OW45531  12.171   9.714   3.412
81231SOL    HW145532  12.188   9.785   3.474
81231SOL    HW245533  12.257   9.680   3.389
81232SOL     OW45534   8.372  12.603   2.509
81232SOL    HW145535   8.412  12.576   2.426
81232SOL    HW245536   8.286  12.636   2.485
81233SOL     OW45537   8.369   4.231   5.025
81233SOL    HW145538   8.310   4.302   5.001
81233SOL    HW245539   8.356   4.164   4.958
81234SOL     OW45540   1.572  11.866  13.461
81234SOL    HW145541   1.649  11.844  13.514
81234SOL    HW245542   1.529  11.936  13.510
81235SOL     OW45543  11.685   4.106  10.292
81235SOL    HW145544  11.639   4.186  10.268
81235SOL    HW245545  11.629   4.063  10.356
81236SOL     OW45546   4.514   6.665  10.692
81236SOL    HW145547   4.606   6.655  10.666
81236SOL    HW245548   4.508   6.619  10.776
81237SOL     OW45549   5.794  10.813  11.459
81237SOL    HW145550   5.844  10.890  11.430
81237SOL    HW245551   5.856  10.764  11.513
81238SOL     OW45552  11.755   6.937   7.159
81238SOL    HW145553  11.689   6.997   7.193
81238SOL    HW245554  11.724   6.915   7.071
81239SOL     OW45555   5.401   5.375  13.002
81239SOL    HW145556   5.325   5.324  13.032
81239SOL    HW245557   5.435   5.416  13.082
81240SOL     OW45558   1.439  13.828   4.140
81240SOL    HW145559   1.355  13.791   4.165
81240SOL    HW245560   1.419  13.897   4.078
81241SOL     OW45561   1.427   7.168  12.401
81241SOL    HW145562   1.464   7.221  12.330
81241SOL    HW245563   1.457   7.079  12.383
81242SOL     OW45564  14.823  10.381   4.388
81242SOL    HW145565  14.862  10.420   4.310
81242SOL    HW245566  14.818  10.454   4.450
81243SOL     OW45567   4.598   3.171  11.651
81243SOL    HW145568   4.673   3.207  11.605
81243SOL    HW245569   4.595   3.079  11.626
81244SOL     OW45570  12.922   5.438   2.945
81244SOL    HW145571  12.907   5.348   2.914
81244SOL    HW245572  12.852   5.453   3.008
81245SOL     OW45573   4.377  10.705   6.137
81245SOL    HW145574   4.295  10.669   6.169
81245SOL    HW245575   4.351  10.780   6.083
81246SOL     OW45576   9.163   3.423  13.557
81246SOL    HW145577   9.199   3.404  13.643
81246SOL    HW245578   9.209   3.501  13.527
81247SOL     OW45579   4.011   0.718   3.901
81247SOL    HW145580   3.971   0.723   3.814
81247SOL    HW245581   3.944   0.755   3.960
81248SOL     OW45582   0.371   2.874   7.991
81248SOL    HW145583   0.428   2.937   7.946
81248SOL    HW245584   0.305   2.927   8.035
81249SOL     OW45585   1.633   2.780   4.328
81249SOL    HW145586   1.610   2.730   4.406
81249SOL    HW245587   1.577   2.745   4.259
81250SOL     OW45588  12.994   0.798  13.067
81250SOL    HW145589  13.013   0.790  12.973
81250SOL    HW245590  12.931   0.869  13.073
81251SOL     OW45591   4.488  10.947   2.584
81251SOL    HW145592   4.452  11.027   2.546
81251SOL    HW245593   4.417  10.911   2.637
81252SOL     OW45594   2.866   3.863   0.489
81252SOL    HW145595   2.873   3.881   0.395
81252SOL    HW245596   2.800   3.924   0.521
81253SOL     OW45597   4.179   2.145   7.404
81253SOL    HW145598   4.241   2.169   7.335
81253SOL    HW245599   4.183   2.050   7.408
81254SOL     OW45600  14.183   6.339  13.027
81254SOL    HW145601  14.112   6.342  12.963
81254SOL    HW245602  14.247   6.279  12.989
81255SOL     OW45603   7.738   2.737   3.945
81255SOL    HW145604   7.732   2.659   4.001
81255SOL    HW245605   7.823   2.775   3.967
81256SOL     OW45606   4.264  13.024  14.631
81256SOL    HW145607   4.317  13.104  14.629
81256SOL    HW245608   4.188  13.047  14.684
81257SOL     OW45609   5.050   1.873   5.336
81257SOL    HW145610   5.134   1.866   5.381
81257SOL    HW245611   4.989   1.904   5.404
81258SOL     OW45612   2.169   9.439  12.344
81258SOL    HW145613   2.215   9.477  12.419
81258SOL    HW245614   2.142   9.514  12.292
81259SOL     OW45615   7.090  12.856  11.907
81259SOL    HW145616   7.120  12.945  11.924
81259SOL    HW245617   7.038  12.863  11.827
81260SOL     OW45618   2.369  10.971   9.920
81260SOL    HW145619   2.450  10.971   9.870
81260SOL    HW245620   2.357  11.063   9.947
81261SOL     OW45621   4.143  13.338   6.065
81261SOL    HW145622   4.165  13.247   6.049
81261SOL    HW245623   4.087  13.363   5.991
81262SOL     OW45624   3.444  12.976   4.807
81262SOL    HW145625   3.481  12.907   4.752
81262SOL    HW245626   3.521  13.018   4.847
81263SOL     OW45627   1.947  10.614  14.835
81263SOL    HW145628   1.859  10.616  14.799
81263SOL    HW245629   1.965  10.521  14.850
81264SOL     OW45630   7.685  14.751  12.596
81264SOL    HW145631   7.699  14.714  12.683
81264SOL    HW245632   7.615  14.815  12.608
81265SOL     OW45633   5.453   9.104   7.696
81265SOL    HW145634   5.518   9.041   7.665
81265SOL    HW245635   5.431   9.155   7.618
81266SOL     OW45636  12.176  13.589  12.695
81266SOL    HW145637  12.160  13.683  12.683
81266SOL    HW245638  12.118  13.547  12.632
81267SOL     OW45639   7.291   8.930   8.990
81267SOL    HW145640   7.220   8.993   8.977
81267SOL    HW245641   7.336   8.927   8.905
81268SOL     OW45642   6.606  14.298   6.958
81268SOL    HW145643   6.598  14.263   7.046
81268SOL    HW245644   6.688  14.348   6.959
81269SOL     OW45645   9.457   7.288   0.236
81269SOL    HW145646   9.484   7.345   0.307
81269SOL    HW245647   9.391   7.338   0.189
81270SOL     OW45648   1.432  12.582   1.864
81270SOL    HW145649   1.432  12.545   1.776
81270SOL    HW245650   1.351  12.551   1.903
81271SOL     OW45651  14.194   8.206  13.875
81271SOL    HW145652  14.187   8.122  13.830
81271SOL    HW245653  14.264   8.252  13.829
81272SOL     OW45654  11.964   6.476   2.205
81272SOL    HW145655  11.935   6.563   2.233
81272SOL    HW245656  11.940   6.418   2.278
81273SOL     OW45657  13.399   4.389   2.453
81273SOL    HW145658  13.414   4.303   2.413
81273SOL    HW245659  13.475   4.441   2.427
81274SOL     OW45660  14.078   8.912   5.132
81274SOL    HW145661  14.142   8.983   5.120
81274SOL    HW245662  14.128   8.832   5.118
81275SOL     OW45663  13.754   5.447  13.786
81275SOL    HW145664  13.659   5.450  13.775
81275SOL    HW245665  13.787   5.524  13.740
81276SOL     OW45666   9.730   1.001  11.700
81276SOL    HW145667   9.697   0.947  11.772
81276SOL    HW245668   9.676   1.079  11.701
81277SOL     OW45669   0.738  11.675   0.873
81277SOL    HW145670   0.714  11.651   0.962
81277SOL    HW245671   0.679  11.747   0.850
81278SOL     OW45672  14.765   6.018  13.813
81278SOL    HW145673  14.854   6.011  13.849
81278SOL    HW245674  14.779   6.037  13.720
81279SOL     OW45675  13.165   2.476   5.026
81279SOL    HW145676  13.181   2.554   4.973
81279SOL    HW245677  13.234   2.415   5.000
81280SOL     OW45678   1.607   6.236  13.003
81280SOL    HW145679   1.575   6.259  13.090
81280SOL    HW245680   1.702   6.225  13.014
81281SOL     OW45681   7.682  12.942  11.390
81281SOL    HW145682   7.689  12.864  11.334
81281SOL    HW245683   7.706  13.015  11.333
81282SOL     OW45684   8.904  12.819   5.321
81282SOL    HW145685   8.944  12.870   5.392
81282SOL    HW245686   8.882  12.735   5.362
81283SOL     OW45687  10.217   4.245   3.165
81283SOL    HW145688  10.204   4.290   3.249
81283SOL    HW245689  10.135   4.199   3.149
81284SOL     OW45690  10.943  14.206   1.146
81284SOL    HW145691  10.901  14.139   1.200
81284SOL    HW245692  11.036  14.199   1.168
81285SOL     OW45693  12.044   0.984   5.130
81285SOL    HW145694  12.035   0.926   5.206
81285SOL    HW245695  12.066   0.925   5.058
81286SOL     OW45696   5.264   7.731   9.935
81286SOL    HW145697   5.288   7.769  10.020
81286SOL    HW245698   5.332   7.665   9.919
81287SOL     OW45699   4.077  14.862   6.538
81287SOL    HW145700   4.046  14.830   6.454
81287SOL    HW245701   4.044   0.073   6.543
81288SOL     OW45702   3.991   2.925   6.058
81288SOL    HW145703   3.935   2.943   5.982
81288SOL    HW245704   3.978   3.001   6.115
81289SOL     OW45705   6.836   1.934   0.351
81289SOL    HW145706   6.757   1.881   0.360
81289SOL    HW245707   6.853   1.937   0.257
81290SOL     OW45708  14.732  10.069   8.205
81290SOL    HW145709  14.708  10.139   8.266
81290SOL    HW245710  14.764   9.999   8.262
81291SOL     OW45711   5.013   5.445   8.691
81291SOL    HW145712   5.104   5.437   8.664
81291SOL    HW245713   4.999   5.538   8.704
81292SOL     OW45714   2.221   1.628  14.241
81292SOL    HW145715   2.174   1.704  14.274
81292SOL    HW245716   2.228   1.569  14.316
81293SOL     OW45717   3.417   0.504  11.805
81293SOL    HW145718   3.431   0.474  11.895
81293SOL    HW245719   3.322   0.505  11.795
81294SOL     OW45720   3.189   9.307   4.848
81294SOL    HW145721   3.119   9.372   4.851
81294SOL    HW245722   3.174   9.260   4.766
81295SOL     OW45723   0.273   8.525   9.098
81295SOL    HW145724   0.269   8.480   9.183
81295SOL    HW245725   0.206   8.482   9.045
81296SOL     OW45726  10.912   4.761   5.768
81296SOL    HW145727  10.839   4.701   5.781
81296SOL    HW245728  10.966   4.753   5.847
81297SOL     OW45729   7.706   7.313  10.027
81297SOL    HW145730   7.677   7.332   9.938
81297SOL    HW245731   7.791   7.270  10.017
81298SOL     OW45732   1.870   8.911   3.825
81298SOL    HW145733   1.877   9.004   3.846
81298SOL    HW245734   1.958   8.886   3.795
81299SOL     OW45735   4.794  10.288  11.338
81299SOL    HW145736   4.885  10.258  11.327
81299SOL    HW245737   4.800  10.357  11.404
81300SOL     OW45738  10.048   8.800   8.848
81300SOL    HW145739   9.984   8.838   8.909
81300SOL    HW245740  10.126   8.854   8.859
81301SOL     OW45741   7.407   0.921   0.994
81301SOL    HW145742   7.395   0.998   1.049
81301SOL    HW245743   7.383   0.949   0.906
81302SOL     OW45744   9.022   7.029   5.274
81302SOL    HW145745   8.948   7.090   5.283
81302SOL    HW245746   9.077   7.068   5.206
81303SOL     OW45747   3.902   9.924   9.053
81303SOL    HW145748   3.922   9.990   9.119
81303SOL    HW245749   3.921   9.968   8.970
81304SOL     OW45750   0.581  13.239  11.446
81304SOL    HW145751   0.629  13.237  11.529
81304SOL    HW245752   0.496  13.277  11.468
81305SOL     OW45753  14.817  14.826  13.748
81305SOL    HW145754  14.723  14.815  13.733
81305SOL    HW245755  14.858  14.786  13.672
81306SOL     OW45756  12.870  13.056   9.761
81306SOL    HW145757  12.816  13.134   9.752
81306SOL    HW245758  12.925  13.055   9.683
81307SOL     OW45759   2.128   2.434   6.450
81307SOL    HW145760   2.169   2.518   6.468
81307SOL    HW245761   2.143   2.383   6.530
81308SOL     OW45762   5.031   1.222   1.921
81308SOL    HW145763   5.037   1.315   1.900
81308SOL    HW245764   4.966   1.217   1.991
81309SOL     OW45765   9.924   5.498  14.074
81309SOL    HW145766   9.858   5.528  14.012
81309SOL    HW245767   9.975   5.576  14.094
81310SOL     OW45768   3.286   4.016   5.598
81310SOL    HW145769   3.290   4.070   5.520
81310SOL    HW245770   3.376   4.011   5.630
81311SOL     OW45771   4.217   3.916   6.782
81311SOL    HW145772   4.149   3.964   6.829
81311SOL    HW245773   4.287   3.904   6.846
81312SOL     OW45774   3.919  11.680   2.760
81312SOL    HW145775   3.841  11.672   2.815
81312SOL    HW245776   3.886  11.683   2.670
81313SOL     OW45777  11.650  11.219   2.896
81313SOL    HW145778  11.643  11.128   2.867
81313SOL    HW245779  11.587  11.227   2.968
81314SOL     OW45780   8.975  12.853   7.901
81314SOL    HW145781   8.934  12.930   7.860
81314SOL    HW245782   8.905  12.814   7.954
81315SOL     OW45783  11.294   6.837  11.586
81315SOL    HW145784  11.287   6.795  11.672
81315SOL    HW245785  11.236   6.913  11.592
81316SOL     OW45786   9.326  11.090  10.942
81316SOL    HW145787   9.409  11.134  10.923
81316SOL    HW245788   9.277  11.095  10.860
81317SOL     OW45789   0.665   7.073   7.696
81317SOL    HW145790   0.625   7.117   7.621
81317SOL    HW245791   0.619   7.108   7.772
81318SOL     OW45792   9.753   4.127  10.234
81318SOL    HW145793   9.693   4.139  10.160
81318SOL    HW245794   9.705   4.069  10.294
81319SOL     OW45795   7.091   6.309   2.876
81319SOL    HW145796   7.062   6.283   2.964
81319SOL    HW245797   7.086   6.228   2.825
81320SOL     OW45798  14.729   1.350   2.132
81320SOL    HW145799  14.734   1.350   2.036
81320SOL    HW245800  14.677   1.273   2.154
81321SOL     OW45801  13.655  10.916   3.572
81321SOL    HW145802  13.695  10.834   3.541
81321SOL    HW245803  13.590  10.888   3.636
81322SOL     OW45804   2.888   9.039   8.682
81322SOL    HW145805   2.836   9.036   8.762
81322SOL    HW245806   2.845   9.103   8.627
81323SOL     OW45807   1.631   7.394  13.132
81323SOL    HW145808   1.537   7.386  13.146
81323SOL    HW245809   1.643   7.481  13.095
81324SOL     OW45810  10.623   6.276  14.206
81324SOL    HW145811  10.667   6.336  14.267
81324SOL    HW245812  10.538   6.317  14.189
81325SOL     OW45813   3.670   0.349  11.051
81325SOL    HW145814   3.624   0.431  11.039
81325SOL    HW245815   3.659   0.328  11.144
81326SOL     OW45816   7.029  14.224   9.034
81326SOL    HW145817   7.111  14.241   9.081
81326SOL    HW245818   6.988  14.152   9.082
81327SOL     OW45819   9.172   4.371   6.276
81327SOL    HW145820   9.187   4.430   6.350
81327SOL    HW245821   9.165   4.429   6.201
81328SOL     OW45822   4.984   2.636  14.818
81328SOL    HW145823   5.035   2.607   0.014
81328SOL    HW245824   5.046   2.684  14.764
81329SOL     OW45825   3.244   5.334   7.362
81329SOL    HW145826   3.277   5.360   7.448
81329SOL    HW245827   3.314   5.359   7.301
81330SOL     OW45828   3.536   1.030   0.483
81330SOL    HW145829   3.547   0.962   0.416
81330SOL    HW245830   3.447   1.061   0.470
81331SOL     OW45831  13.755  10.213  11.227
81331SOL    HW145832  13.670  10.214  11.183
81331SOL    HW245833  13.758  10.128  11.271
81332SOL     OW45834   6.225   1.740   2.283
81332SOL    HW145835   6.248   1.800   2.212
81332SOL    HW245836   6.141   1.703   2.257
81333SOL     OW45837   4.294   4.794   9.206
81333SOL    HW145838   4.218   4.828   9.158
81333SOL    HW245839   4.363   4.858   9.190
81334SOL     OW45840  13.699   3.397  11.433
81334SOL    HW145841  13.691   3.307  11.400
81334SOL    HW245842  13.635   3.447  11.383
81335SOL     OW45843   0.210   0.704   1.589
81335SOL    HW145844   0.170   0.760   1.523
81335SOL    HW245845   0.280   0.659   1.542
81336SOL     OW45846  10.972   9.493  13.037
81336SOL    HW145847  10.955   9.565  13.098
81336SOL    HW245848  11.066   9.477  13.044
81337SOL     OW45849   0.096   8.153   8.101
81337SOL    HW145850   0.095   8.244   8.129
81337SOL    HW245851   0.186   8.138   8.073
81338SOL     OW45852   1.350  11.696  14.523
81338SOL    HW145853   1.269  11.684  14.473
81338SOL    HW245854   1.407  11.746  14.464
81339SOL     OW45855   0.037   3.188   5.489
81339SOL    HW145856   0.082   3.267   5.458
81339SOL    HW245857   0.007   3.146   5.409
81340SOL     OW45858  13.735   2.037  11.924
81340SOL    HW145859  13.663   2.024  11.862
81340SOL    HW245860  13.756   1.949  11.956
81341SOL     OW45861   7.203   6.777   3.411
81341SOL    HW145862   7.155   6.828   3.476
81341SOL    HW245863   7.230   6.841   3.345
81342SOL     OW45864   7.422  13.705   4.168
81342SOL    HW145865   7.407  13.730   4.077
81342SOL    HW245866   7.517  13.698   4.176
81343SOL     OW45867   6.883  12.007   2.748
81343SOL    HW145868   6.905  12.100   2.754
81343SOL    HW245869   6.790  12.005   2.727
81344SOL     OW45870  13.337   5.258   7.131
81344SOL    HW145871  13.327   5.352   7.119
81344SOL    HW245872  13.248   5.225   7.136
81345SOL     OW45873   7.805  14.322   6.290
81345SOL    HW145874   7.879  14.367   6.251
81345SOL    HW245875   7.774  14.263   6.221
81346SOL     OW45876   9.050  11.352   3.022
81346SOL    HW145877   9.008  11.344   2.936
81346SOL    HW245878   9.061  11.446   3.034
81347SOL     OW45879   1.340  12.099  14.828
81347SOL    HW145880   1.250  12.118  14.853
81347SOL    HW245881   1.393  12.128   0.023
81348SOL     OW45882   1.602   3.009   0.851
81348SOL    HW145883   1.545   2.987   0.777
81348SOL    HW245884   1.541   3.038   0.919
81349SOL     OW45885   3.405   6.219   5.426
81349SOL    HW145886   3.364   6.304   5.412
81349SOL    HW245887   3.499   6.238   5.430
81350SOL     OW45888   7.947  14.286   3.442
81350SOL    HW145889   8.041  14.268   3.437
81350SOL    HW245890   7.932  14.313   3.533
81351SOL     OW45891   3.639   7.489   4.496
81351SOL    HW145892   3.594   7.420   4.447
81351SOL    HW245893   3.608   7.571   4.456
81352SOL     OW45894   9.779  12.273   7.093
81352SOL    HW145895   9.868  12.255   7.124
81352SOL    HW245896   9.786  12.268   6.998
81353SOL     OW45897   8.126   4.639   2.215
81353SOL    HW145898   8.211   4.618   2.254
81353SOL    HW245899   8.135   4.612   2.123
81354SOL     OW45900   1.722   6.940  11.258
81354SOL    HW145901   1.703   6.854  11.293
81354SOL    HW245902   1.780   6.981  11.322
81355SOL     OW45903   3.677  14.229  13.140
81355SOL    HW145904   3.765  14.200  13.117
81355SOL    HW245905   3.641  14.159  13.195
81356SOL     OW45906  10.028   8.386  14.583
81356SOL    HW145907   9.954   8.445  14.590
81356SOL    HW245908  10.086   8.411  14.654
81357SOL     OW45909   8.946  11.298  13.456
81357SOL    HW145910   8.969  11.317  13.547
81357SOL    HW245911   8.879  11.230  13.463
81358SOL     OW45912  13.658   9.384  14.227
81358SOL    HW145913  13.744   9.426  14.222
81358SOL    HW245914  13.602   9.450  14.269
81359SOL     OW45915  13.340   7.284   3.672
81359SOL    HW145916  13.337   7.373   3.708
81359SOL    HW245917  13.393   7.292   3.593
81360SOL     OW45918  11.482   6.855   9.812
81360SOL    HW145919  11.512   6.826   9.898
81360SOL    HW245920  11.426   6.784   9.781
81361SOL     OW45921   1.006   6.848   0.702
81361SOL    HW145922   1.085   6.875   0.749
81361SOL    HW245923   1.032   6.849   0.610
81362SOL     OW45924   8.609   4.032  11.745
81362SOL    HW145925   8.683   4.066  11.795
81362SOL    HW245926   8.607   3.938  11.766
81363SOL     OW45927  12.283  12.226   7.237
81363SOL    HW145928  12.259  12.198   7.148
81363SOL    HW245929  12.378  12.213   7.241
81364SOL     OW45930   6.360   4.301   6.993
81364SOL    HW145931   6.344   4.273   7.083
81364SOL    HW245932   6.273   4.319   6.957
81365SOL     OW45933   4.181   6.054  14.525
81365SOL    HW145934   4.267   6.019  14.503
81365SOL    HW245935   4.132   5.978  14.558
81366SOL     OW45936   3.521   8.964   7.805
81366SOL    HW145937   3.553   8.996   7.889
81366SOL    HW245938   3.431   8.935   7.823
81367SOL     OW45939   1.572   3.617   2.650
81367SOL    HW145940   1.518   3.696   2.645
81367SOL    HW245941   1.638   3.637   2.717
81368SOL     OW45942   6.524   1.421   2.623
81368SOL    HW145943   6.480   1.442   2.541
81368SOL    HW245944   6.544   1.328   2.617
81369SOL     OW45945   9.697   5.269   2.544
81369SOL    HW145946   9.785   5.260   2.580
81369SOL    HW245947   9.708   5.322   2.465
81370SOL     OW45948   0.147  11.544   7.781
81370SOL    HW145949   0.067  11.570   7.736
81370SOL    HW245950   0.148  11.448   7.774
81371SOL     OW45951   4.512   4.588   2.506
81371SOL    HW145952   4.462   4.543   2.574
81371SOL    HW245953   4.466   4.672   2.494
81372SOL     OW45954  13.246   1.760   2.419
81372SOL    HW145955  13.324   1.763   2.474
81372SOL    HW245956  13.254   1.836   2.362
81373SOL     OW45957   5.737   7.407   9.858
81373SOL    HW145958   5.730   7.498   9.828
81373SOL    HW245959   5.832   7.391   9.862
81374SOL     OW45960   5.438   6.755  14.581
81374SOL    HW145961   5.447   6.838  14.534
81374SOL    HW245962   5.523   6.713  14.572
81375SOL     OW45963  13.865   2.177   0.593
81375SOL    HW145964  13.811   2.201   0.669
81375SOL    HW245965  13.843   2.243   0.527
81376SOL     OW45966  14.335  12.961  10.480
81376SOL    HW145967  14.319  12.953  10.574
81376SOL    HW245968  14.250  12.949  10.440
81377SOL     OW45969   2.474  12.545   1.049
81377SOL    HW145970   2.406  12.519   0.987
81377SOL    HW245971   2.553  12.556   0.996
81378SOL     OW45972   2.403   8.772   9.752
81378SOL    HW145973   2.435   8.752   9.841
81378SOL    HW245974   2.435   8.699   9.699
81379SOL     OW45975   3.259   6.407   5.635
81379SOL    HW145976   3.218   6.430   5.552
81379SOL    HW245977   3.217   6.325   5.660
81380SOL     OW45978   0.449  11.145  14.277
81380SOL    HW145979   0.364  11.149  14.233
81380SOL    HW245980   0.430  11.175  14.367
81381SOL     OW45981  10.364   1.603   2.027
81381SOL    HW145982  10.394   1.513   2.037
81381SOL    HW245983  10.439   1.656   2.053
81382SOL     OW45984   4.576  11.352   4.202
81382SOL    HW145985   4.608  11.425   4.149
81382SOL    HW245986   4.484  11.341   4.177
81383SOL     OW45987   2.734   8.385  14.001
81383SOL    HW145988   2.701   8.330  13.930
81383SOL    HW245989   2.780   8.456  13.957
81384SOL     OW45990   8.069  12.974  12.787
81384SOL    HW145991   8.092  13.054  12.740
81384SOL    HW245992   8.110  12.904  12.737
81385SOL     OW45993  14.203  14.417  11.209
81385SOL    HW145994  14.227  14.362  11.284
81385SOL    HW245995  14.255  14.382  11.137
81386SOL     OW45996   0.123   6.586   5.993
81386SOL    HW145997   0.119   6.663   6.051
81386SOL    HW245998   0.144   6.513   6.052
81387SOL     OW45999   5.643   7.526   2.925
81387SOL    HW146000   5.676   7.505   3.012
81387SOL    HW246001   5.719   7.559   2.878
81388SOL     OW46002   6.953  13.174  13.578
81388SOL    HW146003   6.930  13.092  13.535
81388SOL    HW246004   6.910  13.170  13.663
81389SOL     OW46005  14.499   4.473  14.841
81389SOL    HW146006  14.570   4.412  14.824
81389SOL    HW246007  14.419   4.424  14.820
81390SOL     OW46008   5.622   4.908  10.730
81390SOL    HW146009   5.703   4.890  10.778
81390SOL    HW246010   5.597   4.996  10.758
81391SOL     OW46011   3.695   4.187  14.696
81391SOL    HW146012   3.671   4.258  14.637
81391SOL    HW246013   3.669   4.217  14.783
81392SOL     OW46014   2.231   2.361   1.632
81392SOL    HW146015   2.183   2.293   1.585
81392SOL    HW246016   2.220   2.439   1.578
81393SOL     OW46017   2.932   2.279  11.690
81393SOL    HW146018   2.979   2.210  11.644
81393SOL    HW246019   2.984   2.358  11.674
81394SOL     OW46020  12.305  10.227  14.138
81394SOL    HW146021  12.369  10.195  14.074
81394SOL    HW246022  12.264  10.302  14.095
81395SOL     OW46023   6.373  10.258   3.010
81395SOL    HW146024   6.287  10.222   3.029
81395SOL    HW246025   6.362  10.353   3.014
81396SOL     OW46026  11.947  10.340   4.740
81396SOL    HW146027  11.897  10.261   4.761
81396SOL    HW246028  11.917  10.364   4.652
81397SOL     OW46029   0.480   9.511   0.681
81397SOL    HW146030   0.425   9.588   0.666
81397SOL    HW246031   0.455   9.450   0.611
81398SOL     OW46032   6.017   6.496   2.229
81398SOL    HW146033   5.952   6.457   2.288
81398SOL    HW246034   6.067   6.422   2.195
81399SOL     OW46035   2.023  12.416   1.012
81399SOL    HW146036   1.999  12.337   0.963
81399SOL    HW246037   1.953  12.479   0.993
81400SOL     OW46038  11.211   8.587  14.080
81400SOL    HW146039  11.220   8.646  14.155
81400SOL    HW246040  11.142   8.526  14.106
81401SOL     OW46041   9.574  13.755   5.767
81401SOL    HW146042   9.642  13.721   5.708
81401SOL    HW246043   9.577  13.698   5.843
81402SOL     OW46044   3.627   9.980   5.422
81402SOL    HW146045   3.595   9.919   5.489
81402SOL    HW246046   3.567   9.968   5.348
81403SOL     OW46047   8.963   5.492   0.581
81403SOL    HW146048   8.995   5.508   0.492
81403SOL    HW246049   9.018   5.546   0.637
81404SOL     OW46050   9.018  10.381   4.267
81404SOL    HW146051   8.931  10.381   4.227
81404SOL    HW246052   9.040  10.474   4.277
81405SOL     OW46053   5.666   2.785   6.061
81405SOL    HW146054   5.603   2.845   6.021
81405SOL    HW246055   5.707   2.740   5.988
81406SOL     OW46056   5.083  11.000  14.744
81406SOL    HW146057   5.055  10.909  14.758
81406SOL    HW246058   5.026  11.032  14.674
81407SOL     OW46059   1.766  14.843   8.434
81407SOL    HW146060   1.705  14.803   8.496
81407SOL    HW246061   1.794   0.044   8.476
81408SOL     OW46062   0.862   0.450   9.435
81408SOL    HW146063   0.802   0.499   9.492
81408SOL    HW246064   0.874   0.507   9.359
81409SOL     OW46065   4.784  10.400   1.221
81409SOL    HW146066   4.861  10.442   1.260
81409SOL    HW246067   4.709  10.445   1.260
81410SOL     OW46068  11.730   6.476   6.285
81410SOL    HW146069  11.719   6.561   6.242
81410SOL    HW246070  11.744   6.497   6.377
81411SOL     OW46071   3.337   8.966   4.866
81411SOL    HW146072   3.309   8.921   4.786
81411SOL    HW246073   3.353   9.056   4.839
81412SOL     OW46074   2.588  10.423   3.616
81412SOL    HW146075   2.620  10.409   3.705
81412SOL    HW246076   2.653  10.480   3.576
81413SOL     OW46077   0.855   4.350   4.866
81413SOL    HW146078   0.785   4.379   4.809
81413SOL    HW246079   0.853   4.409   4.941
81414SOL     OW46080   1.718  11.596  12.506
81414SOL    HW146081   1.771  11.602  12.585
81414SOL    HW246082   1.641  11.649  12.525
81415SOL     OW46083   4.984  13.044   0.643
81415SOL    HW146084   4.889  13.044   0.641
81415SOL    HW246085   5.009  12.952   0.636
81416SOL     OW46086   4.956  14.715   8.511
81416SOL    HW146087   4.984  14.782   8.448
81416SOL    HW246088   4.979  14.753   8.597
81417SOL     OW46089   6.418  12.028   1.682
81417SOL    HW146090   6.432  11.959   1.618
81417SOL    HW246091   6.371  11.986   1.753
81418SOL     OW46092   7.176   6.812   0.010
81418SOL    HW146093   7.082   6.826   0.001
81418SOL    HW246094   7.201   6.866   0.085
81419SOL     OW46095   3.514   3.234   3.399
81419SOL    HW146096   3.463   3.222   3.478
81419SOL    HW246097   3.594   3.278   3.428
81420SOL     OW46098   5.503   9.532  13.750
81420SOL    HW146099   5.413   9.519  13.722
81420SOL    HW246100   5.504   9.618  13.791
81421SOL     OW46101  12.341   5.715  10.409
81421SOL    HW146102  12.371   5.625  10.417
81421SOL    HW246103  12.411   5.768  10.447
81422SOL     OW46104   4.228  13.484   9.350
81422SOL    HW146105   4.162  13.419   9.373
81422SOL    HW246106   4.309  13.452   9.391
81423SOL     OW46107   8.949   6.153   4.489
81423SOL    HW146108   8.958   6.086   4.557
81423SOL    HW246109   9.033   6.152   4.443
81424SOL     OW46110   4.579  12.457   9.139
81424SOL    HW146111   4.604  12.462   9.231
81424SOL    HW246112   4.516  12.528   9.127
81425SOL     OW46113   5.726  12.299   0.553
81425SOL    HW146114   5.723  12.359   0.479
81425SOL    HW246115   5.743  12.354   0.629
81426SOL     OW46116   6.510   0.854   1.838
81426SOL    HW146117   6.543   0.797   1.768
81426SOL    HW246118   6.584   0.864   1.898
81427SOL     OW46119  13.880   6.945   6.546
81427SOL    HW146120  13.944   6.928   6.477
81427SOL    HW246121  13.807   6.887   6.525
81428SOL     OW46122   1.480  12.759  10.576
81428SOL    HW146123   1.473  12.748  10.482
81428SOL    HW246124   1.553  12.703  10.602
81429SOL     OW46125   7.632   5.406   6.382
81429SOL    HW146126   7.707   5.428   6.437
81429SOL    HW246127   7.614   5.486   6.333
81430SOL     OW46128   8.823   0.596   8.317
81430SOL    HW146129   8.751   0.596   8.253
81430SOL    HW246130   8.810   0.516   8.368
81431SOL     OW46131  14.468   1.059  10.644
81431SOL    HW146132  14.473   0.992  10.712
81431SOL    HW246133  14.536   1.122  10.667
81432SOL     OW46134   9.582   4.008   9.076
81432SOL    HW146135   9.595   3.958   9.157
81432SOL    HW246136   9.542   4.090   9.106
81433SOL     OW46137   8.838  10.437  11.431
81433SOL    HW146138   8.830  10.513  11.375
81433SOL    HW246139   8.828  10.471  11.520
81434SOL     OW46140   9.101  14.549   0.428
81434SOL    HW146141   9.093  14.508   0.342
81434SOL    HW246142   9.106  14.643   0.411
81435SOL     OW46143   7.388   4.995   5.472
81435SOL    HW146144   7.322   5.047   5.427
81435SOL    HW246145   7.440   5.059   5.520
81436SOL     OW46146   2.608   0.962   9.780
81436SOL    HW146147   2.540   0.936   9.717
81436SOL    HW246148   2.666   1.019   9.729
81437SOL     OW46149   0.563   2.423   8.351
81437SOL    HW146150   0.652   2.404   8.321
81437SOL    HW246151   0.506   2.373   8.293
81438SOL     OW46152  13.842   3.612   4.018
81438SOL    HW146153  13.848   3.657   3.934
81438SOL    HW246154  13.750   3.587   4.026
81439SOL     OW46155  10.632   8.282   0.089
81439SOL    HW146156  10.655   8.335   0.013
81439SOL    HW246157  10.674   8.198   0.075
81440SOL     OW46158  10.374   1.961   1.911
81440SOL    HW146159  10.459   1.961   1.956
81440SOL    HW246160  10.332   2.042   1.940
81441SOL     OW46161   0.509  10.447   0.950
81441SOL    HW146162   0.464  10.520   0.909
81441SOL    HW246163   0.585  10.487   0.994
81442SOL     OW46164   9.367   1.467  14.063
81442SOL    HW146165   9.433   1.490  14.128
81442SOL    HW246166   9.406   1.491  13.979
81443SOL     OW46167   9.683   6.420   0.526
81443SOL    HW146168   9.611   6.476   0.556
81443SOL    HW246169   9.646   6.331   0.527
81444SOL     OW46170  12.065  14.702   6.362
81444SOL    HW146171  12.080  14.655   6.444
81444SOL    HW246172  12.151  14.704   6.320
81445SOL     OW46173   6.317   8.718   4.337
81445SOL    HW146174   6.231   8.759   4.331
81445SOL    HW246175   6.349   8.742   4.424
81446SOL     OW46176   4.850  14.457   1.994
81446SOL    HW146177   4.787  14.386   1.983
81446SOL    HW246178   4.907  14.451   1.917
81447SOL     OW46179   5.094  11.500  14.758
81447SOL    HW146180   5.170  11.455  14.722
81447SOL    HW246181   5.127  11.545  14.835
81448SOL     OW46182   4.183   8.704   4.369
81448SOL    HW146183   4.182   8.798   4.350
81448SOL    HW246184   4.272   8.677   4.351
81449SOL     OW46185   1.298   7.495  13.025
81449SOL    HW146186   1.230   7.561  13.038
81449SOL    HW246187   1.320   7.502  12.932
81450SOL     OW46188   8.051   0.532   4.234
81450SOL    HW146189   7.958   0.537   4.212
81450SOL    HW246190   8.065   0.442   4.262
81451SOL     OW46191   9.115   1.739  11.466
81451SOL    HW146192   9.162   1.811  11.424
81451SOL    HW246193   9.174   1.709  11.536
81452SOL     OW46194  12.015   3.021   7.385
81452SOL    HW146195  11.950   2.951   7.386
81452SOL    HW246196  12.060   3.015   7.469
81453SOL     OW46197   0.728   2.435  11.177
81453SOL    HW146198   0.775   2.361  11.216
81453SOL    HW246199   0.795   2.482  11.127
81454SOL     OW46200  10.416   8.363  14.691
81454SOL    HW146201  10.411   8.278  14.734
81454SOL    HW246202  10.369   8.423  14.749
81455SOL     OW46203   2.811   1.480   4.482
81455SOL    HW146204   2.834   1.425   4.407
81455SOL    HW246205   2.779   1.561   4.444
81456SOL     OW46206   1.891   5.434  10.161
81456SOL    HW146207   1.871   5.471  10.247
81456SOL    HW246208   1.952   5.496  10.121
81457SOL     OW46209   6.455   0.843   7.799
81457SOL    HW146210   6.385   0.819   7.860
81457SOL    HW246211   6.517   0.892   7.853
81458SOL     OW46212   2.833   0.977   5.597
81458SOL    HW146213   2.754   0.954   5.550
81458SOL    HW246214   2.802   1.010   5.681
81459SOL     OW46215  11.826   5.439   3.509
81459SOL    HW146216  11.909   5.484   3.522
81459SOL    HW246217  11.770   5.505   3.467
81460SOL     OW46218   2.596   0.952  14.196
81460SOL    HW146219   2.505   0.943  14.221
81460SOL    HW246220   2.602   1.040  14.157
81461SOL     OW46221   6.010  14.032   4.925
81461SOL    HW146222   5.989  13.962   4.864
81461SOL    HW246223   6.105  14.028   4.934
81462SOL     OW46224   1.370  10.729  14.057
81462SOL    HW146225   1.429  10.782  14.004
81462SOL    HW246226   1.400  10.639  14.045
81463SOL     OW46227   9.476  14.873  11.975
81463SOL    HW146228   9.480  14.810  11.903
81463SOL    HW246229   9.442  14.822  12.049
81464SOL     OW46230   9.755   9.246  11.351
81464SOL    HW146231   9.703   9.176  11.392
81464SOL    HW246232   9.789   9.206  11.271
81465SOL     OW46233   5.803   7.405   2.323
81465SOL    HW146234   5.876   7.426   2.265
81465SOL    HW246235   5.749   7.483   2.324
81466SOL     OW46236   9.408   8.487   9.103
81466SOL    HW146237   9.405   8.529   9.017
81466SOL    HW246238   9.470   8.415   9.093
81467SOL     OW46239   1.348   3.523   2.007
81467SOL    HW146240   1.348   3.619   2.013
81467SOL    HW246241   1.262   3.501   1.973
81468SOL     OW46242   4.346  13.019   3.075
81468SOL    HW146243   4.396  12.994   3.153
81468SOL    HW246244   4.307  12.938   3.043
81469SOL     OW46245   5.471   2.022   5.212
81469SOL    HW146246   5.404   2.041   5.278
81469SOL    HW246247   5.550   2.064   5.246
81470SOL     OW46248   9.516   1.545   1.552
81470SOL    HW146249   9.473   1.499   1.480
81470SOL    HW246250   9.584   1.597   1.510
81471SOL     OW46251   9.829   1.834  12.122
81471SOL    HW146252   9.853   1.741  12.127
81471SOL    HW246253   9.904   1.881  12.158
81472SOL     OW46254   5.428  10.510   8.884
81472SOL    HW146255   5.384  10.583   8.840
81472SOL    HW246256   5.390  10.432   8.844
81473SOL     OW46257   1.071   6.701   8.313
81473SOL    HW146258   1.158   6.670   8.340
81473SOL    HW246259   1.065   6.679   8.220
81474SOL     OW46260   8.133   5.868   0.031
81474SOL    HW146261   8.156   5.786   0.074
81474SOL    HW246262   8.040   5.859   0.010
81475SOL     OW46263  10.987   6.281  11.891
81475SOL    HW146264  10.971   6.375  11.904
81475SOL    HW246265  10.919   6.238  11.944
81476SOL     OW46266  12.294   9.416  11.977
81476SOL    HW146267  12.274   9.509  11.987
81476SOL    HW246268  12.210   9.375  11.959
81477SOL     OW46269  14.202   2.722  14.083
81477SOL    HW146270  14.204   2.814  14.110
81477SOL    HW246271  14.109   2.704  14.068
81478SOL     OW46272   9.182   6.884   1.766
81478SOL    HW146273   9.088   6.896   1.750
81478SOL    HW246274   9.193   6.903   1.859
81479SOL     OW46275  11.957   1.330   0.085
81479SOL    HW146276  11.974   1.302   0.175
81479SOL    HW246277  11.874   1.376   0.090
81480SOL     OW46278   0.483   5.714   2.831
81480SOL    HW146279   0.532   5.777   2.883
81480SOL    HW246280   0.529   5.631   2.845
81481SOL     OW46281   7.945  13.150   9.922
81481SOL    HW146282   7.869  13.123   9.870
81481SOL    HW246283   7.937  13.102  10.004
81482SOL     OW46284  14.378   4.638   9.872
81482SOL    HW146285  14.325   4.666   9.797
81482SOL    HW246286  14.415   4.554   9.845
81483SOL     OW46287  11.438   8.857  13.177
81483SOL    HW146288  11.431   8.931  13.238
81483SOL    HW246289  11.401   8.783  13.226
81484SOL     OW46290   6.816  13.531   2.529
81484SOL    HW146291   6.740  13.486   2.490
81484SOL    HW246292   6.892  13.488   2.489
81485SOL     OW46293  12.772   1.929  12.493
81485SOL    HW146294  12.777   1.868  12.419
81485SOL    HW246295  12.679   1.936  12.513
81486SOL     OW46296   7.287   1.928   4.479
81486SOL    HW146297   7.248   1.902   4.396
81486SOL    HW246298   7.247   2.013   4.498
81487SOL     OW46299  14.709   1.546   2.810
81487SOL    HW146300  14.731   1.639   2.810
81487SOL    HW246301  14.788   1.503   2.840
81488SOL     OW46302   1.005   6.163   8.472
81488SOL    HW146303   0.919   6.127   8.493
81488SOL    HW246304   1.041   6.188   8.557
81489SOL     OW46305  10.402   8.493   2.882
81489SOL    HW146306  10.363   8.572   2.844
81489SOL    HW246307  10.426   8.439   2.807
81490SOL     OW46308   7.245   1.613   1.004
81490SOL    HW146309   7.243   1.529   0.958
81490SOL    HW246310   7.196   1.597   1.085
81491SOL     OW46311   1.224   7.730   0.860
81491SOL    HW146312   1.206   7.795   0.793
81491SOL    HW246313   1.262   7.656   0.813
81492SOL     OW46314  11.375   4.510   4.427
81492SOL    HW146315  11.419   4.479   4.347
81492SOL    HW246316  11.431   4.581   4.459
81493SOL     OW46317   1.690   0.489   8.956
81493SOL    HW146318   1.610   0.443   8.929
81493SOL    HW246319   1.659   0.564   9.006
81494SOL     OW46320   5.429   5.104   9.228
81494SOL    HW146321   5.448   5.092   9.321
81494SOL    HW246322   5.490   5.171   9.199
81495SOL     OW46323  11.178   3.675   1.319
81495SOL    HW146324  11.172   3.627   1.236
81495SOL    HW246325  11.258   3.727   1.311
81496SOL     OW46326   4.952  13.172   2.660
81496SOL    HW146327   4.942  13.267   2.671
81496SOL    HW246328   4.999  13.143   2.738
81497SOL     OW46329   3.899   7.296   3.536
81497SOL    HW146330   3.949   7.347   3.600
81497SOL    HW246331   3.965   7.242   3.491
81498SOL     OW46332  14.139   6.838   2.469
81498SOL    HW146333  14.049   6.807   2.462
81498SOL    HW246334  14.191   6.758   2.482
81499SOL     OW46335   8.662   5.998  10.464
81499SOL    HW146336   8.593   6.064  10.458
81499SOL    HW246337   8.617   5.914  10.449
81500SOL     OW46338   7.407  12.637   8.800
81500SOL    HW146339   7.430  12.730   8.797
81500SOL    HW246340   7.474  12.594   8.746
81501SOL     OW46341   2.548  10.307   2.809
81501SOL    HW146342   2.598  10.231   2.778
81501SOL    HW246343   2.478  10.317   2.745
81502SOL     OW46344  14.179   2.722   4.986
81502SOL    HW146345  14.136   2.804   4.961
81502SOL    HW246346  14.155   2.660   4.916
81503SOL     OW46347   0.652   8.083   7.324
81503SOL    HW146348   0.680   8.034   7.247
81503SOL    HW246349   0.579   8.032   7.359
81504SOL     OW46350  13.264  11.178   3.025
81504SOL    HW146351  13.268  11.168   3.120
81504SOL    HW246352  13.176  11.211   3.007
81505SOL     OW46353   1.307   1.579   7.380
81505SOL    HW146354   1.295   1.662   7.334
81505SOL    HW246355   1.379   1.595   7.441
81506SOL     OW46356   1.945  12.564  13.349
81506SOL    HW146357   1.918  12.552  13.258
81506SOL    HW246358   2.028  12.613  13.344
81507SOL     OW46359   1.410   5.483   2.117
81507SOL    HW146360   1.457   5.415   2.166
81507SOL    HW246361   1.459   5.491   2.035
81508SOL     OW46362   5.979  13.479   1.876
81508SOL    HW146363   5.921  13.547   1.909
81508SOL    HW246364   6.030  13.452   1.953
81509SOL     OW46365  12.666   7.383  13.365
81509SOL    HW146366  12.726   7.454  13.388
81509SOL    HW246367  12.604   7.422  13.303
81510SOL     OW46368   4.434   6.821  13.595
81510SOL    HW146369   4.392   6.781  13.518
81510SOL    HW246370   4.398   6.910  13.598
81511SOL     OW46371  11.546   3.828   8.609
81511SOL    HW146372  11.638   3.850   8.597
81511SOL    HW246373  11.523   3.777   8.532
81512SOL     OW46374  13.416  12.373   3.973
81512SOL    HW146375  13.426  12.298   4.031
81512SOL    HW246376  13.361  12.434   4.021
81513SOL     OW46377  13.893   4.267   8.717
81513SOL    HW146378  13.898   4.173   8.696
81513SOL    HW246379  13.876   4.309   8.633
81514SOL     OW46380   5.082   6.870  14.601
81514SOL    HW146381   4.991   6.843  14.594
81514SOL    HW246382   5.128   6.791  14.630
81515SOL     OW46383   9.944   0.774  11.553
81515SOL    HW146384  10.006   0.777  11.480
81515SOL    HW246385   9.912   0.684  11.554
81516SOL     OW46386   5.017   4.418   0.991
81516SOL    HW146387   5.072   4.378   0.924
81516SOL    HW246388   4.928   4.410   0.957
81517SOL     OW46389   7.488   1.519  11.510
81517SOL    HW146390   7.517   1.583  11.575
81517SOL    HW246391   7.512   1.434  11.547
81518SOL     OW46392   0.738  12.514  12.790
81518SOL    HW146393   0.782  12.597  12.771
81518SOL    HW246394   0.667  12.510  12.726
81519SOL     OW46395   3.895  10.598   4.384
81519SOL    HW146396   3.973  10.543   4.393
81519SOL    HW246397   3.926  10.676   4.339
81520SOL     OW46398   2.470  14.031   3.658
81520SOL    HW146399   2.477  13.966   3.588
81520SOL    HW246400   2.560  14.052   3.681
81521SOL     OW46401  12.253   9.197   0.161
81521SOL    HW146402  12.176   9.233   0.117
81521SOL    HW246403  12.296   9.143   0.094
81522SOL     OW46404  13.146  10.591   4.019
81522SOL    HW146405  13.141  10.667   4.078
81522SOL    HW246406  13.179  10.520   4.074
81523SOL     OW46407   3.045   1.661  11.558
81523SOL    HW146408   3.061   1.628  11.469
81523SOL    HW246409   3.007   1.748  11.544
81524SOL     OW46410   8.308   9.794   8.204
81524SOL    HW146411   8.349   9.874   8.236
81524SOL    HW246412   8.347   9.724   8.257
81525SOL     OW46413   0.450  12.334  13.091
81525SOL    HW146414   0.496  12.318  13.173
81525SOL    HW246415   0.357  12.333  13.115
81526SOL     OW46416  12.618   7.242   3.175
81526SOL    HW146417  12.615   7.316   3.236
81526SOL    HW246418  12.624   7.282   3.089
81527SOL     OW46419  10.300   6.930   2.403
81527SOL    HW146420  10.274   6.893   2.319
81527SOL    HW246421  10.310   6.853   2.460
81528SOL     OW46422   7.549  14.393   0.212
81528SOL    HW146423   7.584  14.462   0.156
81528SOL    HW246424   7.602  14.316   0.191
81529SOL     OW46425   3.395   2.955   8.249
81529SOL    HW146426   3.301   2.952   8.231
81529SOL    HW246427   3.416   2.867   8.282
81530SOL     OW46428   4.983  12.031  10.970
81530SOL    HW146429   4.914  11.986  10.921
81530SOL    HW246430   5.037  12.072  10.902
81531SOL     OW46431   8.454   5.322   6.717
81531SOL    HW146432   8.390   5.315   6.646
81531SOL    HW246433   8.477   5.415   6.719
81532SOL     OW46434  10.811   3.317   5.176
81532SOL    HW146435  10.863   3.356   5.107
81532SOL    HW246436  10.852   3.347   5.257
81533SOL     OW46437  12.807   2.621  10.115
81533SOL    HW146438  12.794   2.716  10.116
81533SOL    HW246439  12.769   2.592  10.032
81534SOL     OW46440  14.196   4.836   0.530
81534SOL    HW146441  14.189   4.929   0.509
81534SOL    HW246442  14.205   4.793   0.445
81535SOL     OW46443   6.159  10.344  14.021
81535SOL    HW146444   6.079  10.359  13.970
81535SOL    HW246445   6.137  10.372  14.109
81536SOL     OW46446  13.695   6.723  12.446
81536SOL    HW146447  13.711   6.678  12.363
81536SOL    HW246448  13.781   6.755  12.473
81537SOL     OW46449   0.213   1.962   8.649
81537SOL    HW146450   0.191   1.889   8.591
81537SOL    HW246451   0.225   2.037   8.591
81538SOL     OW46452   7.028   9.501   9.019
81538SOL    HW146453   6.953   9.483   8.963
81538SOL    HW246454   6.990   9.519   9.105
81539SOL     OW46455  13.052   3.984   9.163
81539SOL    HW146456  13.128   3.995   9.106
81539SOL    HW246457  13.076   3.910   9.220
81540SOL     OW46458   9.716  14.516  10.337
81540SOL    HW146459   9.657  14.591  10.332
81540SOL    HW246460   9.665  14.442  10.305
81541SOL     OW46461   1.567  13.663   2.435
81541SOL    HW146462   1.610  13.741   2.470
81541SOL    HW246463   1.499  13.698   2.377
81542SOL     OW46464   7.475  10.070   0.765
81542SOL    HW146465   7.469  10.155   0.807
81542SOL    HW246466   7.569  10.054   0.755
81543SOL     OW46467   7.606   2.572   4.338
81543SOL    HW146468   7.533   2.632   4.323
81543SOL    HW246469   7.578   2.518   4.412
81544SOL     OW46470   7.205   3.002   7.358
81544SOL    HW146471   7.145   2.960   7.419
81544SOL    HW246472   7.241   2.930   7.306
81545SOL     OW46473   3.486   9.593   4.692
81545SOL    HW146474   3.405   9.620   4.737
81545SOL    HW246475   3.546   9.571   4.763
81546SOL     OW46476   8.346   5.631   3.887
81546SOL    HW146477   8.373   5.702   3.946
81546SOL    HW246478   8.284   5.672   3.827
81547SOL     OW46479  11.122   6.651   4.164
81547SOL    HW146480  11.045   6.644   4.221
81547SOL    HW246481  11.094   6.613   4.081
81548SOL     OW46482   2.429  10.382   1.258
81548SOL    HW146483   2.404  10.458   1.206
81548SOL    HW246484   2.519  10.400   1.285
81549SOL     OW46485   5.945   3.813   0.281
81549SOL    HW146486   5.920   3.760   0.356
81549SOL    HW246487   5.957   3.901   0.318
81550SOL     OW46488   7.534   2.899   8.329
81550SOL    HW146489   7.526   2.805   8.346
81550SOL    HW246490   7.572   2.935   8.408
81551SOL     OW46491  13.660   0.496   5.746
81551SOL    HW146492  13.711   0.448   5.681
81551SOL    HW246493  13.571   0.462   5.737
81552SOL     OW46494  13.427   1.394  11.189
81552SOL    HW146495  13.343   1.423  11.153
81552SOL    HW246496  13.488   1.463  11.164
81553SOL     OW46497   3.721   9.878   0.673
81553SOL    HW146498   3.814   9.858   0.672
81553SOL    HW246499   3.679   9.800   0.709
81554SOL     OW46500   8.869  12.427   5.520
81554SOL    HW146501   8.840  12.461   5.605
81554SOL    HW246502   8.856  12.333   5.526
81555SOL     OW46503   6.255   2.134   5.296
81555SOL    HW146504   6.296   2.179   5.223
81555SOL    HW246505   6.217   2.055   5.257
81556SOL     OW46506  11.323  14.569  11.519
81556SOL    HW146507  11.367  14.653  11.505
81556SOL    HW246508  11.296  14.541  11.432
81557SOL     OW46509  10.645   4.997   1.025
81557SOL    HW146510  10.634   4.943   0.947
81557SOL    HW246511  10.626   5.086   0.997
81558SOL     OW46512   0.361   1.532   6.934
81558SOL    HW146513   0.267   1.533   6.951
81558SOL    HW246514   0.385   1.440   6.930
81559SOL     OW46515   7.857  13.053   0.427
81559SOL    HW146516   7.779  13.098   0.395
81559SOL    HW246517   7.851  12.965   0.390
81560SOL     OW46518  11.880   0.174   3.851
81560SOL    HW146519  11.822   0.194   3.778
81560SOL    HW246520  11.941   0.247   3.854
81561SOL     OW46521   0.566  12.744  11.795
81561SOL    HW146522   0.524  12.830  11.794
81561SOL    HW246523   0.500  12.685  11.761
81562SOL     OW46524   5.927   3.400  12.568
81562SOL    HW146525   5.870   3.352  12.508
81562SOL    HW246526   5.943   3.483  12.525
81563SOL     OW46527   3.460  10.818   0.140
81563SOL    HW146528   3.412  10.900   0.153
81563SOL    HW246529   3.391  10.753   0.125
81564SOL     OW46530   6.947  13.124  11.286
81564SOL    HW146531   7.002  13.073  11.227
81564SOL    HW246532   7.006  13.149  11.358
81565SOL     OW46533   1.069  12.807   3.366
81565SOL    HW146534   1.110  12.721   3.370
81565SOL    HW246535   1.127  12.864   3.417
81566SOL     OW46536   1.752   5.987   6.823
81566SOL    HW146537   1.782   6.020   6.908
81566SOL    HW246538   1.671   6.034   6.806
81567SOL     OW46539  10.248   7.411   7.427
81567SOL    HW146540  10.247   7.413   7.523
81567SOL    HW246541  10.184   7.477   7.401
81568SOL     OW46542  11.049   5.146  10.939
81568SOL    HW146543  11.082   5.089  10.869
81568SOL    HW246544  11.006   5.218  10.893
81569SOL     OW46545   3.834  10.151   5.388
81569SOL    HW146546   3.788  10.206   5.325
81569SOL    HW246547   3.772  10.081   5.408
81570SOL     OW46548   7.102   9.471  11.001
81570SOL    HW146549   7.061   9.396  11.043
81570SOL    HW246550   7.174   9.434  10.950
81571SOL     OW46551   3.068  13.093   3.959
81571SOL    HW146552   2.999  13.028   3.970
81571SOL    HW246553   3.148  13.043   3.950
81572SOL     OW46554   3.108   1.525  10.951
81572SOL    HW146555   3.200   1.504  10.966
81572SOL    HW246556   3.100   1.530  10.856
81573SOL     OW46557   2.669   7.697   9.211
81573SOL    HW146558   2.757   7.681   9.246
81573SOL    HW246559   2.647   7.785   9.240
81574SOL     OW46560  12.251   0.910  14.087
81574SOL    HW146561  12.167   0.934  14.048
81574SOL    HW246562  12.246   0.945  14.176
81575SOL     OW46563   3.016   7.523   5.886
81575SOL    HW146564   3.037   7.608   5.923
81575SOL    HW246565   2.923   7.511   5.904
81576SOL     OW46566   2.845  13.426   4.129
81576SOL    HW146567   2.816  13.460   4.214
81576SOL    HW246568   2.931  13.389   4.146
81577SOL     OW46569   3.464  11.684  13.025
81577SOL    HW146570   3.559  11.685  13.032
81577SOL    HW246571   3.439  11.593  13.040
81578SOL     OW46572   2.247   1.771   4.942
81578SOL    HW146573   2.339   1.767   4.966
81578SOL    HW246574   2.201   1.794   5.023
81579SOL     OW46575   5.234  10.392   9.056
81579SOL    HW146576   5.252  10.485   9.044
81579SOL    HW246577   5.154  10.376   9.005
81580SOL     OW46578  10.663   9.311  14.019
81580SOL    HW146579  10.732   9.316  14.085
81580SOL    HW246580  10.655   9.218  13.998
81581SOL     OW46581  12.318   5.485   2.770
81581SOL    HW146582  12.257   5.451   2.835
81581SOL    HW246583  12.262   5.526   2.704
81582SOL     OW46584   9.178  13.607  11.673
81582SOL    HW146585   9.135  13.691  11.658
81582SOL    HW246586   9.109  13.551  11.709
81583SOL     OW46587  11.044   4.558   4.893
81583SOL    HW146588  10.964   4.609   4.878
81583SOL    HW246589  11.018   4.493   4.959
81584SOL     OW46590   7.839   3.064  12.112
81584SOL    HW146591   7.871   3.090  12.026
81584SOL    HW246592   7.833   2.968  12.108
81585SOL     OW46593   0.317  12.729   0.318
81585SOL    HW146594   0.274  12.756   0.237
81585SOL    HW246595   0.403  12.771   0.315
81586SOL     OW46596  12.388  13.409  14.855
81586SOL    HW146597  12.344  13.481  14.809
81586SOL    HW246598  12.442  13.368  14.787
81587SOL     OW46599   9.228   6.002  12.620
81587SOL    HW146600   9.274   6.085  12.629
81587SOL    HW246601   9.289   5.936  12.652
81588SOL     OW46602   0.788  12.779   8.276
81588SOL    HW146603   0.817  12.736   8.195
81588SOL    HW246604   0.780  12.708   8.339
81589SOL     OW46605   0.601  14.266   0.227
81589SOL    HW146606   0.661  14.284   0.154
81589SOL    HW246607   0.654  14.279   0.305
81590SOL     OW46608  14.860   2.565   2.429
81590SOL    HW146609  14.864   2.622   2.506
81590SOL    HW246610  14.866   2.476   2.465
81591SOL     OW46611   2.945  10.811  13.106
81591SOL    HW146612   2.984  10.865  13.175
81591SOL    HW246613   2.855  10.796  13.136
81592SOL     OW46614   5.623   0.876   5.715
81592SOL    HW146615   5.530   0.890   5.697
81592SOL    HW246616   5.658   0.963   5.734
81593SOL     OW46617  10.178  11.733  12.352
81593SOL    HW146618  10.263  11.729  12.307
81593SOL    HW246619  10.131  11.805  12.310
81594SOL     OW46620   0.378   3.535   6.557
81594SOL    HW146621   0.419   3.487   6.629
81594SOL    HW246622   0.420   3.501   6.478
81595SOL     OW46623  10.256   0.025   5.800
81595SOL    HW146624  10.250   0.038   5.895
81595SOL    HW246625  10.312  14.827   5.789
81596SOL     OW46626   2.276  10.402   8.895
81596SOL    HW146627   2.208  10.452   8.940
81596SOL    HW246628   2.255  10.311   8.914
81597SOL     OW46629   1.424  12.153  11.693
81597SOL    HW146630   1.515  12.183  11.691
81597SOL    HW246631   1.405  12.136  11.785
81598SOL     OW46632  12.668   3.699   2.964
81598SOL    HW146633  12.763   3.692   2.976
81598SOL    HW246634  12.651   3.792   2.955
81599SOL     OW46635   9.388   4.986  14.842
81599SOL    HW146636   9.297   4.979  14.813
81599SOL    HW246637   9.439   4.965  14.764
81600SOL     OW46638  14.381   7.666  10.474
81600SOL    HW146639  14.317   7.683  10.405
81600SOL    HW246640  14.328   7.633  10.547
81601SOL     OW46641   7.714   6.792  12.603
81601SOL    HW146642   7.619   6.804  12.596
81601SOL    HW246643   7.725   6.727  12.673
81602SOL     OW46644   1.275   8.145  11.728
81602SOL    HW146645   1.248   8.217  11.670
81602SOL    HW246646   1.319   8.083  11.669
81603SOL     OW46647  12.774   6.067   9.917
81603SOL    HW146648  12.791   6.080   9.823
81603SOL    HW246649  12.827   5.990   9.940
81604SOL     OW46650   3.436   3.023   9.334
81604SOL    HW146651   3.363   3.085   9.335
81604SOL    HW246652   3.417   2.964   9.261
81605SOL     OW46653   3.749  14.268   2.016
81605SOL    HW146654   3.831  14.220   2.024
81605SOL    HW246655   3.695  14.214   1.957
81606SOL     OW46656  14.739  10.335   2.975
81606SOL    HW146657  14.819  10.282   2.967
81606SOL    HW246658  14.669  10.271   2.984
81607SOL     OW46659  10.921   0.447   7.721
81607SOL    HW146660  10.913   0.543   7.723
81607SOL    HW246661  10.837   0.416   7.755
81608SOL     OW46662   4.886  10.760  14.243
81608SOL    HW146663   4.866  10.670  14.216
81608SOL    HW246664   4.801  10.797  14.269
81609SOL     OW46665   6.766  13.603  11.964
81609SOL    HW146666   6.677  13.639  11.958
81609SOL    HW246667   6.823  13.678  11.948
81610SOL     OW46668   7.699  13.740   6.075
81610SOL    HW146669   7.742  13.675   6.019
81610SOL    HW246670   7.731  13.824   6.042
81611SOL     OW46671   2.433  13.130  11.914
81611SOL    HW146672   2.460  13.066  11.980
81611SOL    HW246673   2.487  13.207  11.931
81612SOL     OW46674  12.436  14.608   3.359
81612SOL    HW146675  12.414  14.553   3.434
81612SOL    HW246676  12.363  14.595   3.298
81613SOL     OW46677   7.924  11.991   5.848
81613SOL    HW146678   7.962  11.904   5.850
81613SOL    HW246679   7.897  12.003   5.756
81614SOL     OW46680   3.494   7.225  13.680
81614SOL    HW146681   3.530   7.227  13.769
81614SOL    HW246682   3.399   7.220  13.693
81615SOL     OW46683  12.469  14.085   7.648
81615SOL    HW146684  12.432  14.173   7.661
81615SOL    HW246685  12.507  14.089   7.560
81616SOL     OW46686   2.368   7.352   0.978
81616SOL    HW146687   2.291   7.296   0.967
81616SOL    HW246688   2.373   7.368   1.072
81617SOL     OW46689  13.508  13.834   8.124
81617SOL    HW146690  13.470  13.902   8.068
81617SOL    HW246691  13.459  13.755   8.102
81618SOL     OW46692   4.665   3.967  13.751
81618SOL    HW146693   4.655   3.907  13.678
81618SOL    HW246694   4.580   4.012  13.757
81619SOL     OW46695  12.094  12.363   3.078
81619SOL    HW146696  12.156  12.310   3.129
81619SOL    HW246697  12.127  12.357   2.988
81620SOL     OW46698   7.669  11.170  13.771
81620SOL    HW146699   7.579  11.192  13.748
81620SOL    HW246700   7.662  11.128  13.857
81621SOL     OW46701   2.063   8.081   0.052
81621SOL    HW146702   2.149   8.119   0.032
81621SOL    HW246703   2.083   7.995   0.089
81622SOL     OW46704   5.011   3.723  12.327
81622SOL    HW146705   5.011   3.628  12.335
81622SOL    HW246706   4.978   3.739  12.238
81623SOL     OW46707   1.916   4.812  12.169
81623SOL    HW146708   1.914   4.718  12.189
81623SOL    HW246709   1.960   4.817  12.085
81624SOL     OW46710   4.707  10.320   2.683
81624SOL    HW146711   4.654  10.271   2.745
81624SOL    HW246712   4.666  10.407   2.680
81625SOL     OW46713   2.036  14.166   8.126
81625SOL    HW146714   2.095  14.211   8.066
81625SOL    HW246715   2.064  14.195   8.213
81626SOL     OW46716   2.715   8.055  13.823
81626SOL    HW146717   2.736   8.032  13.913
81626SOL    HW246718   2.619   8.059  13.821
81627SOL     OW46719   9.034  14.133   3.857
81627SOL    HW146720   9.018  14.051   3.904
81627SOL    HW246721   9.037  14.109   3.765
81628SOL     OW46722   5.307   1.060   0.031
81628SOL    HW146723   5.398   1.040   0.054
81628SOL    HW246724   5.263   0.975   0.030
81629SOL     OW46725   6.208  14.714   8.790
81629SOL    HW146726   6.176  14.642   8.845
81629SOL    HW246727   6.235  14.781   8.853
81630SOL     OW46728   4.391   7.071   3.605
81630SOL    HW146729   4.298   7.091   3.608
81630SOL    HW246730   4.424   7.119   3.529
81631SOL     OW46731   3.369   3.262   6.228
81631SOL    HW146732   3.303   3.244   6.295
81631SOL    HW246733   3.421   3.182   6.223
81632SOL     OW46734  11.445  12.726   7.312
81632SOL    HW146735  11.430  12.813   7.348
81632SOL    HW246736  11.447  12.669   7.389
81633SOL     OW46737  14.488   3.377  11.299
81633SOL    HW146738  14.469   3.407  11.210
81633SOL    HW246739  14.562   3.317  11.289
81634SOL     OW46740  11.447   0.130   2.142
81634SOL    HW146741  11.370   0.186   2.133
81634SOL    HW246742  11.452   0.082   2.060
81635SOL     OW46743  10.939  12.058   2.765
81635SOL    HW146744  10.886  11.980   2.781
81635SOL    HW246745  10.964  12.088   2.853
81636SOL     OW46746   4.408  10.260   5.179
81636SOL    HW146747   4.445  10.287   5.095
81636SOL    HW246748   4.484  10.245   5.235
81637SOL     OW46749   2.159   3.634   0.386
81637SOL    HW146750   2.231   3.594   0.434
81637SOL    HW246751   2.127   3.703   0.444
81638SOL     OW46752   6.105   2.100   9.205
81638SOL    HW146753   6.201   2.097   9.209
81638SOL    HW246754   6.080   2.015   9.171
81639SOL     OW46755   9.511   3.958   8.351
81639SOL    HW146756   9.594   3.913   8.337
81639SOL    HW246757   9.536   4.049   8.371
81640SOL     OW46758   6.011   9.535   0.345
81640SOL    HW146759   5.995   9.605   0.408
81640SOL    HW246760   6.088   9.490   0.379
81641SOL     OW46761   6.369   4.321  12.117
81641SOL    HW146762   6.429   4.297  12.046
81641SOL    HW246763   6.336   4.237  12.150
81642SOL     OW46764   4.981   4.152   7.818
81642SOL    HW146765   4.940   4.239   7.818
81642SOL    HW246766   5.058   4.163   7.874
81643SOL     OW46767   9.742  13.956   1.312
81643SOL    HW146768   9.775  13.994   1.393
81643SOL    HW246769   9.741  14.028   1.249
81644SOL     OW46770   7.372  10.401  12.075
81644SOL    HW146771   7.464  10.388  12.098
81644SOL    HW246772   7.360  10.496  12.072
81645SOL     OW46773   2.379   3.180   2.995
81645SOL    HW146774   2.440   3.126   3.046
81645SOL    HW246775   2.293   3.151   3.024
81646SOL     OW46776   4.362   1.177   0.904
81646SOL    HW146777   4.415   1.247   0.944
81646SOL    HW246778   4.425   1.121   0.859
81647SOL     OW46779   1.999   9.893   1.764
81647SOL    HW146780   1.997   9.979   1.723
81647SOL    HW246781   2.029   9.833   1.696
81648SOL     OW46782   9.247   0.208   9.447
81648SOL    HW146783   9.193   0.245   9.377
81648SOL    HW246784   9.337   0.223   9.419
81649SOL     OW46785  11.128   8.261   9.560
81649SOL    HW146786  11.176   8.237   9.640
81649SOL    HW246787  11.187   8.238   9.489
81650SOL     OW46788  14.564  10.935  14.679
81650SOL    HW146789  14.486  10.945  14.735
81650SOL    HW246790  14.631  10.988  14.723
81651SOL     OW46791  11.679   1.348   3.005
81651SOL    HW146792  11.620   1.274   2.991
81651SOL    HW246793  11.757   1.326   2.953
81652SOL     OW46794  14.667   4.497   4.472
81652SOL    HW146795  14.611   4.431   4.432
81652SOL    HW246796  14.680   4.467   4.562
81653SOL     OW46797   3.279   3.758  12.307
81653SOL    HW146798   3.223   3.735  12.233
81653SOL    HW246799   3.349   3.810  12.268
81654SOL     OW46800  10.120   6.289  12.074
81654SOL    HW146801  10.142   6.280  12.167
81654SOL    HW246802  10.127   6.383  12.057
81655SOL     OW46803   3.084   4.659   4.789
81655SOL    HW146804   3.020   4.725   4.762
81655SOL    HW246805   3.153   4.709   4.834
81656SOL     OW46806   5.010  11.529   0.955
81656SOL    HW146807   5.033  11.546   1.046
81656SOL    HW246808   4.956  11.603   0.929
81657SOL     OW46809   5.536  14.203   3.679
81657SOL    HW146810   5.580  14.213   3.595
81657SOL    HW246811   5.444  14.220   3.660
81658SOL     OW46812   5.386  11.884   1.977
81658SOL    HW146813   5.384  11.848   1.888
81658SOL    HW246814   5.305  11.852   2.017
81659SOL     OW46815   9.803   7.294   6.124
81659SOL    HW146816   9.783   7.331   6.210
81659SOL    HW246817   9.718   7.270   6.087
81660SOL     OW46818  10.367   2.972  13.701
81660SOL    HW146819  10.362   2.905  13.768
81660SOL    HW246820  10.289   3.025  13.714
81661SOL     OW46821   8.715   6.808  11.377
81661SOL    HW146822   8.787   6.866  11.400
81661SOL    HW246823   8.748   6.720  11.397
81662SOL     OW46824   3.218  12.697  11.789
81662SOL    HW146825   3.204  12.602  11.780
81662SOL    HW246826   3.161  12.737  11.724
81663SOL     OW46827  11.551  11.218  10.320
81663SOL    HW146828  11.576  11.190  10.408
81663SOL    HW246829  11.456  11.213  10.319
81664SOL     OW46830   8.212   3.686  14.257
81664SOL    HW146831   8.219   3.754  14.190
81664SOL    HW246832   8.130   3.641  14.237
81665SOL     OW46833   6.969   4.065   0.686
81665SOL    HW146834   6.985   4.144   0.739
81665SOL    HW246835   7.023   4.077   0.608
81666SOL     OW46836   5.137   4.812   3.875
81666SOL    HW146837   5.047   4.782   3.888
81666SOL    HW246838   5.151   4.806   3.780
81667SOL     OW46839   2.349   8.816   7.318
81667SOL    HW146840   2.272   8.768   7.348
81667SOL    HW246841   2.314   8.880   7.256
81668SOL     OW46842  11.105   3.773  11.278
81668SOL    HW146843  11.161   3.847  11.301
81668SOL    HW246844  11.138   3.743  11.193
81669SOL     OW46845   8.730  11.017   4.583
81669SOL    HW146846   8.806  11.072   4.562
81669SOL    HW246847   8.667  11.078   4.622
81670SOL     OW46848   4.595  14.601  10.015
81670SOL    HW146849   4.629  14.643   9.937
81670SOL    HW246850   4.674  14.575  10.064
81671SOL     OW46851   5.104   0.125  12.091
81671SOL    HW146852   5.009   0.131  12.092
81671SOL    HW246853   5.127   0.089  12.177
81672SOL     OW46854   2.639   0.004   8.571
81672SOL    HW146855   2.650  14.878   8.666
81672SOL    HW246856   2.579  14.812   8.549
81673SOL     OW46857   9.881   8.176  14.636
81673SOL    HW146858   9.908   8.165  14.727
81673SOL    HW246859   9.938   8.244  14.602
81674SOL     OW46860   1.144  13.936   0.215
81674SOL    HW146861   1.172  14.025   0.237
81674SOL    HW246862   1.184  13.881   0.282
81675SOL     OW46863  12.223   6.126  13.461
81675SOL    HW146864  12.184   6.213  13.476
81675SOL    HW246865  12.296   6.142  13.401
81676SOL     OW46866   8.839  12.101   8.831
81676SOL    HW146867   8.789  12.042   8.774
81676SOL    HW246868   8.866  12.047   8.905
81677SOL     OW46869  10.192   1.120   1.851
81677SOL    HW146870  10.098   1.142   1.854
81677SOL    HW246871  10.215   1.104   1.942
81678SOL     OW46872   7.141  14.586  13.564
81678SOL    HW146873   7.088  14.507  13.563
81678SOL    HW246874   7.081  14.655  13.592
81679SOL     OW46875   7.563   3.050   1.491
81679SOL    HW146876   7.656   3.073   1.492
81679SOL    HW246877   7.547   3.010   1.576
81680SOL     OW46878   3.206  12.923   5.308
81680SOL    HW146879   3.206  12.852   5.243
81680SOL    HW246880   3.147  12.989   5.272
81681SOL     OW46881  10.491   6.251   5.070
81681SOL    HW146882  10.475   6.332   5.119
81681SOL    HW246883  10.404   6.215   5.055
81682SOL     OW46884  10.130  12.592   1.279
81682SOL    HW146885  10.078  12.628   1.351
81682SOL    HW246886  10.085  12.622   1.200
81683SOL     OW46887   1.386   3.039  10.380
81683SOL    HW146888   1.355   3.034  10.289
81683SOL    HW246889   1.306   3.043  10.432
81684SOL     OW46890  12.630  12.320   7.529
81684SOL    HW146891  12.557  12.336   7.469
81684SOL    HW246892  12.659  12.408   7.555
81685SOL     OW46893   1.269  11.516  12.501
81685SOL    HW146894   1.218  11.592  12.473
81685SOL    HW246895   1.293  11.472  12.419
81686SOL     OW46896  10.491   6.892   3.352
81686SOL    HW146897  10.446   6.877   3.269
81686SOL    HW246898  10.441   6.963   3.394
81687SOL     OW46899   2.006   7.750   7.188
81687SOL    HW146900   2.068   7.794   7.130
81687SOL    HW246901   1.920   7.775   7.154
81688SOL     OW46902  13.651  12.450  11.548
81688SOL    HW146903  13.714  12.479  11.613
81688SOL    HW246904  13.698  12.383  11.498
81689SOL     OW46905   3.693  12.349   8.658
81689SOL    HW146906   3.743  12.283   8.707
81689SOL    HW246907   3.731  12.433   8.686
81690SOL     OW46908   1.518  14.072  14.252
81690SOL    HW146909   1.537  14.011  14.323
81690SOL    HW246910   1.423  14.079  14.251
81691SOL     OW46911   2.982  13.042   1.615
81691SOL    HW146912   2.894  13.065   1.645
81691SOL    HW246913   3.039  13.065   1.689
81692SOL     OW46914  11.157   4.637   9.089
81692SOL    HW146915  11.130   4.698   9.020
81692SOL    HW246916  11.076   4.620   9.139
81693SOL     OW46917   7.288  10.434   1.716
81693SOL    HW146918   7.295  10.363   1.780
81693SOL    HW246919   7.196  10.459   1.718
81694SOL     OW46920  13.211   6.948  14.505
81694SOL    HW146921  13.217   6.933  14.600
81694SOL    HW246922  13.298   6.926  14.472
81695SOL     OW46923  11.088   9.797   7.251
81695SOL    HW146924  11.136   9.756   7.323
81695SOL    HW246925  11.042   9.724   7.209
81696SOL     OW46926   1.550   7.641  11.815
81696SOL    HW146927   1.562   7.629  11.721
81696SOL    HW246928   1.566   7.734  11.830
81697SOL     OW46929  12.658   0.598  14.383
81697SOL    HW146930  12.686   0.687  14.363
81697SOL    HW246931  12.645   0.557  14.298
81698SOL     OW46932   2.445   0.116   0.077
81698SOL    HW146933   2.361   0.084   0.042
81698SOL    HW246934   2.504   0.117   0.001
81699SOL     OW46935   9.676  10.993  10.721
81699SOL    HW146936   9.760  11.020  10.682
81699SOL    HW246937   9.632  10.945  10.652
81700SOL     OW46938  13.462   8.188   2.867
81700SOL    HW146939  13.531   8.126   2.848
81700SOL    HW246940  13.506   8.260   2.913
81701SOL     OW46941   2.902  13.508  13.630
81701SOL    HW146942   2.829  13.524  13.571
81701SOL    HW246943   2.872  13.540  13.715
81702SOL     OW46944   4.445   7.830  12.894
81702SOL    HW146945   4.448   7.917  12.934
81702SOL    HW246946   4.385   7.840  12.821
81703SOL     OW46947   5.767   4.866   5.717
81703SOL    HW146948   5.828   4.910   5.776
81703SOL    HW246949   5.688   4.852   5.769
81704SOL     OW46950   7.235  11.228   8.937
81704SOL    HW146951   7.260  11.143   8.899
81704SOL    HW246952   7.185  11.271   8.868
81705SOL     OW46953  11.937   1.042   7.348
81705SOL    HW146954  11.867   1.085   7.398
81705SOL    HW246955  11.989   0.997   7.414
81706SOL     OW46956  13.315  10.523   4.658
81706SOL    HW146957  13.229  10.555   4.684
81706SOL    HW246958  13.374  10.552   4.727
81707SOL     OW46959  14.744   3.509   4.064
81707SOL    HW146960  14.710   3.420   4.067
81707SOL    HW246961  14.837   3.501   4.085
81708SOL     OW46962   0.934   1.181   8.526
81708SOL    HW146963   0.855   1.149   8.571
81708SOL    HW246964   0.982   1.101   8.504
81709SOL     OW46965   7.674   4.471   8.121
81709SOL    HW146966   7.589   4.450   8.084
81709SOL    HW246967   7.667   4.448   8.213
81710SOL     OW46968  11.663  12.608   5.371
81710SOL    HW146969  11.587  12.554   5.390
81710SOL    HW246970  11.634  12.667   5.302
81711SOL     OW46971   9.300   1.686   6.067
81711SOL    HW146972   9.208   1.678   6.094
81711SOL    HW246973   9.320   1.604   6.023
81712SOL     OW46974   1.452  11.058   8.944
81712SOL    HW146975   1.442  10.974   8.900
81712SOL    HW246976   1.374  11.107   8.919
81713SOL     OW46977   0.489   7.025   4.989
81713SOL    HW146978   0.584   7.031   4.985
81713SOL    HW246979   0.458   7.107   4.950
81714SOL     OW46980   4.041   9.186   1.260
81714SOL    HW146981   4.066   9.234   1.181
81714SOL    HW246982   4.100   9.110   1.262
81715SOL     OW46983   2.732   8.950   7.159
81715SOL    HW146984   2.802   8.999   7.202
81715SOL    HW246985   2.668   9.017   7.133
81716SOL     OW46986   0.915   0.500   6.545
81716SOL    HW146987   0.922   0.428   6.608
81716SOL    HW246988   0.862   0.465   6.474
81717SOL     OW46989  11.435  13.859  12.456
81717SOL    HW146990  11.519  13.879  12.415
81717SOL    HW246991  11.379  13.933  12.433
81718SOL     OW46992   2.638   9.777   7.714
81718SOL    HW146993   2.721   9.825   7.720
81718SOL    HW246994   2.587   9.825   7.649
81719SOL     OW46995   4.283   5.832  11.643
81719SOL    HW146996   4.271   5.742  11.613
81719SOL    HW246997   4.376   5.848  11.634
81720SOL     OW46998   8.687   8.467  10.740
81720SOL    HW146999   8.600   8.500  10.766
81720SOL    HW247000   8.674   8.374  10.724
81721SOL     OW47001  11.312   9.948   7.442
81721SOL    HW147002  11.328  10.011   7.372
81721SOL    HW247003  11.222   9.917   7.426
81722SOL     OW47004   3.860   2.699   4.761
81722SOL    HW147005   3.822   2.690   4.849
81722SOL    HW247006   3.786   2.725   4.706
81723SOL     OW47007  12.135   9.385   3.384
81723SOL    HW147008  12.150   9.326   3.310
81723SOL    HW247009  12.206   9.449   3.379
81724SOL     OW47010  13.409  13.924   1.167
81724SOL    HW147011  13.434  13.832   1.158
81724SOL    HW247012  13.360  13.944   1.087
81725SOL     OW47013  13.762   9.468   1.857
81725SOL    HW147014  13.830   9.485   1.791
81725SOL    HW247015  13.680   9.485   1.811
81726SOL     OW47016   9.090  11.485  14.316
81726SOL    HW147017   9.047  11.435  14.385
81726SOL    HW247018   9.027  11.487  14.244
81727SOL     OW47019   2.566  14.103   3.983
81727SOL    HW147020   2.511  14.172   3.946
81727SOL    HW247021   2.612  14.066   3.908
81728SOL     OW47022  12.786   2.104  11.855
81728SOL    HW147023  12.867   2.131  11.812
81728SOL    HW247024  12.729   2.180  11.848
81729SOL     OW47025  13.281   1.596   1.402
81729SOL    HW147026  13.271   1.619   1.310
81729SOL    HW247027  13.356   1.536   1.404
81730SOL     OW47028   6.301  12.264   4.472
81730SOL    HW147029   6.318  12.203   4.543
81730SOL    HW247030   6.205  12.267   4.465
81731SOL     OW47031   7.091  12.904   9.057
81731SOL    HW147032   7.119  12.817   9.028
81731SOL    HW247033   7.158  12.931   9.119
81732SOL     OW47034  13.701   9.427  11.511
81732SOL    HW147035  13.774   9.489  11.502
81732SOL    HW247036  13.654   9.433  11.428
81733SOL     OW47037   2.187  14.202   2.410
81733SOL    HW147038   2.272  14.190   2.453
81733SOL    HW247039   2.185  14.134   2.343
81734SOL     OW47040   6.778   9.775   4.020
81734SOL    HW147041   6.786   9.680   4.025
81734SOL    HW247042   6.849   9.802   3.961
81735SOL     OW47043  10.730   1.760   6.972
81735SOL    HW147044  10.765   1.838   7.014
81735SOL    HW247045  10.736   1.691   7.038
81736SOL     OW47046   5.645   3.467  11.360
81736SOL    HW147047   5.573   3.481  11.422
81736SOL    HW247048   5.615   3.395  11.304
81737SOL     OW47049   3.671  10.626  10.920
81737SOL    HW147050   3.636  10.540  10.939
81737SOL    HW247051   3.624  10.655  10.842
81738SOL     OW47052   3.032  12.547  12.421
81738SOL    HW147053   3.081  12.536  12.340
81738SOL    HW247054   3.006  12.458  12.446
81739SOL     OW47055   0.257   1.798   8.002
81739SOL    HW147056   0.346   1.812   7.969
81739SOL    HW247057   0.248   1.859   8.074
81740SOL     OW47058   4.833  12.257   4.067
81740SOL    HW147059   4.922  12.292   4.061
81740SOL    HW247060   4.801  12.258   3.976
81741SOL     OW47061   9.483  13.394  12.953
81741SOL    HW147062   9.569  13.407  12.912
81741SOL    HW247063   9.482  13.456  13.026
81742SOL     OW47064  12.362   4.741   2.352
81742SOL    HW147065  12.320   4.815   2.308
81742SOL    HW247066  12.447   4.732   2.310
81743SOL     OW47067   4.574   6.520   2.802
81743SOL    HW147068   4.618   6.501   2.885
81743SOL    HW247069   4.590   6.614   2.788
81744SOL     OW47070  11.719  11.383   2.599
81744SOL    HW147071  11.641  11.424   2.562
81744SOL    HW247072  11.739  11.435   2.676
81745SOL     OW47073  14.867   1.622  13.976
81745SOL    HW147074  14.782   1.648  13.941
81745SOL    HW247075   0.004   1.684  14.048
81746SOL     OW47076   6.057   8.978   6.831
81746SOL    HW147077   6.033   8.923   6.906
81746SOL    HW247078   5.990   9.047   6.830
81747SOL     OW47079   5.870   4.381   2.449
81747SOL    HW147080   5.885   4.395   2.542
81747SOL    HW247081   5.866   4.285   2.440
81748SOL     OW47082   0.762   1.742   5.580
81748SOL    HW147083   0.823   1.699   5.520
81748SOL    HW247084   0.732   1.820   5.533
81749SOL     OW47085  14.257   5.696   4.663
81749SOL    HW147086  14.204   5.650   4.729
81749SOL    HW247087  14.284   5.777   4.706
81750SOL     OW47088   4.087   5.027   9.510
81750SOL    HW147089   4.050   5.046   9.424
81750SOL    HW247090   4.016   4.984   9.558
81751SOL     OW47091   2.743   3.935  13.296
81751SOL    HW147092   2.678   3.866  13.281
81751SOL    HW247093   2.826   3.889  13.301
81752SOL     OW47094   6.644   8.387  10.960
81752SOL    HW147095   6.708   8.322  10.932
81752SOL    HW247096   6.617   8.359  11.047
81753SOL     OW47097   6.107   4.687  12.336
81753SOL    HW147098   6.191   4.702  12.293
81753SOL    HW247099   6.044   4.681  12.263
81754SOL     OW47100  11.431   2.455   0.999
81754SOL    HW147101  11.335   2.450   0.992
81754SOL    HW247102  11.460   2.468   0.908
81755SOL     OW47103   1.690  10.579   6.026
81755SOL    HW147104   1.759  10.563   6.091
81755SOL    HW247105   1.620  10.621   6.075
81756SOL     OW47106  11.616  14.381  11.413
81756SOL    HW147107  11.549  14.314  11.409
81756SOL    HW247108  11.626  14.411  11.323
81757SOL     OW47109   9.178   6.374   4.467
81757SOL    HW147110   9.193   6.280   4.473
81757SOL    HW247111   9.155   6.401   4.556
81758SOL     OW47112  13.890   1.230  10.023
81758SOL    HW147113  13.873   1.280   9.943
81758SOL    HW247114  13.922   1.146   9.993
81759SOL     OW47115   7.946   3.503   4.334
81759SOL    HW147116   7.860   3.498   4.376
81759SOL    HW247117   7.939   3.443   4.260
81760SOL     OW47118   8.456   3.307   0.545
81760SOL    HW147119   8.408   3.249   0.603
81760SOL    HW247120   8.543   3.267   0.535
81761SOL     OW47121   0.821  10.831   5.034
81761SOL    HW147122   0.806  10.917   5.073
81761SOL    HW247123   0.910  10.807   5.061
81762SOL     OW47124   6.306   5.112   8.662
81762SOL    HW147125   6.223   5.072   8.690
81762SOL    HW247126   6.288   5.147   8.575
81763SOL     OW47127  13.926   9.613  11.472
81763SOL    HW147128  13.906   9.675  11.541
81763SOL    HW247129  13.976   9.663  11.408
81764SOL     OW47130   3.706   2.989  12.094
81764SOL    HW147131   3.671   2.923  12.154
81764SOL    HW247132   3.725   3.064  12.151
81765SOL     OW47133  14.040   1.405   7.671
81765SOL    HW147134  13.963   1.351   7.654
81765SOL    HW247135  14.025   1.485   7.621
81766SOL     OW47136   5.609   2.465   3.641
81766SOL    HW147137   5.519   2.439   3.660
81766SOL    HW247138   5.649   2.386   3.603
81767SOL     OW47139   8.145   8.477   7.098
81767SOL    HW147140   8.079   8.407   7.102
81767SOL    HW247141   8.229   8.431   7.100
81768SOL     OW47142   2.830   1.434   4.207
81768SOL    HW147143   2.779   1.362   4.243
81768SOL    HW247144   2.897   1.391   4.153
81769SOL     OW47145  10.386  11.960   2.307
81769SOL    HW147146  10.424  12.005   2.383
81769SOL    HW247147  10.300  12.002   2.296
81770SOL     OW47148   6.795  11.974  10.690
81770SOL    HW147149   6.756  11.957  10.775
81770SOL    HW247150   6.730  12.026  10.643
81771SOL     OW47151   9.731   1.545  10.863
81771SOL    HW147152   9.677   1.564  10.940
81771SOL    HW247153   9.752   1.452  10.870
81772SOL     OW47154   3.916  10.351  13.186
81772SOL    HW147155   3.921  10.343  13.282
81772SOL    HW247156   3.852  10.285  13.160
81773SOL     OW47157  11.706  13.558   5.455
81773SOL    HW147158  11.723  13.481   5.401
81773SOL    HW247159  11.612  13.572   5.447
81774SOL     OW47160   1.787   2.341   5.418
81774SOL    HW147161   1.739   2.420   5.442
81774SOL    HW247162   1.810   2.354   5.326
81775SOL     OW47163   9.371   8.692   8.906
81775SOL    HW147164   9.345   8.774   8.948
81775SOL    HW247165   9.290   8.657   8.871
81776SOL     OW47166   1.574  13.024  13.410
81776SOL    HW147167   1.505  12.972  13.370
81776SOL    HW247168   1.593  13.092  13.345
81777SOL     OW47169   4.986  11.700   1.717
81777SOL    HW147170   5.039  11.638   1.667
81777SOL    HW247171   4.957  11.650   1.794
81778SOL     OW47172  12.859   8.862   3.800
81778SOL    HW147173  12.911   8.784   3.815
81778SOL    HW247174  12.872   8.916   3.878
81779SOL     OW47175   9.863   0.544  10.298
81779SOL    HW147176   9.909   0.460  10.289
81779SOL    HW247177   9.931   0.610  10.285
81780SOL     OW47178   6.813   5.337  10.218
81780SOL    HW147179   6.811   5.298  10.305
81780SOL    HW247180   6.725   5.373  10.204
81781SOL     OW47181  14.338  10.581  11.034
81781SOL    HW147182  14.259  10.622  10.999
81781SOL    HW247183  14.331  10.490  11.006
81782SOL     OW47184   4.911  13.643   8.110
81782SOL    HW147185   4.964  13.702   8.056
81782SOL    HW247186   4.855  13.701   8.161
81783SOL     OW47187  14.176   3.100  11.505
81783SOL    HW147188  14.104   3.098  11.568
81783SOL    HW247189  14.182   3.010  11.473
81784SOL     OW47190   2.050   6.630   6.086
81784SOL    HW147191   2.065   6.650   5.993
81784SOL    HW247192   1.962   6.663   6.104
81785SOL     OW47193   5.533   4.303   9.400
81785SOL    HW147194   5.582   4.371   9.354
81785SOL    HW247195   5.556   4.315   9.492
81786SOL     OW47196   3.690  12.801   3.715
81786SOL    HW147197   3.656  12.789   3.804
81786SOL    HW247198   3.769  12.747   3.712
81787SOL     OW47199  14.626   7.096  13.401
81787SOL    HW147200  14.618   7.075  13.308
81787SOL    HW247201  14.706   7.148  13.408
81788SOL     OW47202   9.757   8.243   6.787
81788SOL    HW147203   9.775   8.187   6.712
81788SOL    HW247204   9.815   8.319   6.775
81789SOL     OW47205   3.436  10.087  13.482
81789SOL    HW147206   3.460  10.030  13.555
81789SOL    HW247207   3.346  10.114  13.501
81790SOL     OW47208   7.289   1.429   8.254
81790SOL    HW147209   7.367   1.405   8.305
81790SOL    HW247210   7.259   1.347   8.215
81791SOL     OW47211   4.560  11.679  10.820
81791SOL    HW147212   4.573  11.682  10.725
81791SOL    HW247213   4.601  11.760  10.852
81792SOL     OW47214  10.593   0.988   1.911
81792SOL    HW147215  10.670   0.931   1.904
81792SOL    HW247216  10.569   1.007   1.821
81793SOL     OW47217   6.566   0.085  13.329
81793SOL    HW147218   6.513   0.078  13.250
81793SOL    HW247219   6.647   0.128  13.300
81794SOL     OW47220  12.789   4.728  14.402
81794SOL    HW147221  12.711   4.674  14.396
81794SOL    HW247222  12.835   4.696  14.479
81795SOL     OW47223   4.514  12.517   7.519
81795SOL    HW147224   4.432  12.547   7.559
81795SOL    HW247225   4.499  12.528   7.425
81796SOL     OW47226   1.761   0.243  14.051
81796SOL    HW147227   1.824   0.310  14.025
81796SOL    HW247228   1.812   0.180  14.101
81797SOL     OW47229   0.049   3.372  10.974
81797SOL    HW147230   0.092   3.292  10.944
81797SOL    HW247231   0.047   3.365  11.069
81798SOL     OW47232   0.769   3.933  11.948
81798SOL    HW147233   0.676   3.948  11.938
81798SOL    HW247234   0.775   3.850  11.994
81799SOL     OW47235  12.375  10.953  11.240
81799SOL    HW147236  12.388  11.047  11.228
81799SOL    HW247237  12.280  10.943  11.246
81800SOL     OW47238  12.809   8.334   5.183
81800SOL    HW147239  12.894   8.378   5.179
81800SOL    HW247240  12.821   8.253   5.135
81801SOL     OW47241   9.858   0.791  12.060
81801SOL    HW147242   9.949   0.770  12.080
81801SOL    HW247243   9.857   0.886  12.046
81802SOL     OW47244   4.321   3.982  12.956
81802SOL    HW147245   4.409   4.021  12.950
81802SOL    HW247246   4.271   4.043  13.010
81803SOL     OW47247   2.548   8.654   5.920
81803SOL    HW147248   2.629   8.678   5.965
81803SOL    HW247249   2.565   8.672   5.828
81804SOL     OW47250   5.903   3.621  11.000
81804SOL    HW147251   5.815   3.615  10.962
81804SOL    HW247252   5.953   3.674  10.938
81805SOL     OW47253   8.726   7.085   6.716
81805SOL    HW147254   8.689   7.173   6.713
81805SOL    HW247255   8.651   7.027   6.726
81806SOL     OW47256  10.934   3.146   1.394
81806SOL    HW147257  10.949   3.196   1.314
81806SOL    HW247258  10.995   3.183   1.458
81807SOL     OW47259   2.195  11.759  10.844
81807SOL    HW147260   2.128  11.707  10.801
81807SOL    HW247261   2.233  11.701  10.910
81808SOL     OW47262   0.191   5.727   6.993
81808SOL    HW147263   0.230   5.774   6.920
81808SOL    HW247264   0.098   5.719   6.970
81809SOL     OW47265   8.344  13.165   9.188
81809SOL    HW147266   8.298  13.146   9.269
81809SOL    HW247267   8.377  13.080   9.158
81810SOL     OW47268   0.003  13.190  10.071
81810SOL    HW147269  14.807  13.244  10.096
81810SOL    HW247270   0.072  13.253  10.052
81811SOL     OW47271  12.621   9.317   0.369
81811SOL    HW147272  12.702   9.292   0.413
81811SOL    HW247273  12.565   9.239   0.376
81812SOL     OW47274   5.135  14.076   8.487
81812SOL    HW147275   5.098  14.100   8.572
81812SOL    HW247276   5.222  14.117   8.487
81813SOL     OW47277   1.860   4.910   5.631
81813SOL    HW147278   1.909   4.991   5.617
81813SOL    HW247279   1.857   4.868   5.545
81814SOL     OW47280   8.588   5.167  10.818
81814SOL    HW147281   8.600   5.074  10.838
81814SOL    HW247282   8.526   5.168  10.745
81815SOL     OW47283   5.453   0.833   9.226
81815SOL    HW147284   5.393   0.906   9.215
81815SOL    HW247285   5.400   0.755   9.208
81816SOL     OW47286   8.248   5.887   3.187
81816SOL    HW147287   8.217   5.972   3.155
81816SOL    HW247288   8.304   5.855   3.117
81817SOL     OW47289  12.613   7.766  14.224
81817SOL    HW147290  12.641   7.691  14.277
81817SOL    HW247291  12.561   7.728  14.154
81818SOL     OW47292   2.514   5.948   1.551
81818SOL    HW147293   2.545   6.023   1.501
81818SOL    HW247294   2.555   5.958   1.637
81819SOL     OW47295   8.994  14.447  12.226
81819SOL    HW147296   9.060  14.436  12.295
81819SOL    HW247297   9.045  14.476  12.149
81820SOL     OW47298  11.370   0.165  11.985
81820SOL    HW147299  11.314   0.220  11.929
81820SOL    HW247300  11.371   0.080  11.941
81821SOL     OW47301  13.973   5.024  13.936
81821SOL    HW147302  13.960   5.065  13.850
81821SOL    HW247303  13.990   5.098  13.995
81822SOL     OW47304   7.705   0.651   2.921
81822SOL    HW147305   7.666   0.579   2.872
81822SOL    HW247306   7.687   0.729   2.867
81823SOL     OW47307  11.180   7.123   0.395
81823SOL    HW147308  11.158   7.211   0.364
81823SOL    HW247309  11.099   7.088   0.431
81824SOL     OW47310   1.595   4.627   5.846
81824SOL    HW147311   1.517   4.576   5.823
81824SOL    HW247312   1.612   4.683   5.770
81825SOL     OW47313  12.108   8.133   1.442
81825SOL    HW147314  12.016   8.112   1.427
81825SOL    HW247315  12.145   8.142   1.354
81826SOL     OW47316   1.740   9.523  13.951
81826SOL    HW147317   1.820   9.546  13.999
81826SOL    HW247318   1.733   9.428  13.962
81827SOL     OW47319  14.305  10.552   3.701
81827SOL    HW147320  14.348  10.619   3.648
81827SOL    HW247321  14.256  10.500   3.637
81828SOL     OW47322   7.236  13.944   3.518
81828SOL    HW147323   7.300  14.004   3.479
81828SOL    HW247324   7.281  13.906   3.593
81829SOL     OW47325   2.395   0.042   8.834
81829SOL    HW147326   2.469   0.103   8.826
81829SOL    HW247327   2.345   0.075   8.909
81830SOL     OW47328   1.048   1.698  10.631
81830SOL    HW147329   0.987   1.671  10.563
81830SOL    HW247330   1.049   1.626  10.694
81831SOL     OW47331   7.481   8.044  14.668
81831SOL    HW147332   7.406   8.089  14.629
81831SOL    HW247333   7.519   8.108  14.728
81832SOL     OW47334   8.562   1.790  12.167
81832SOL    HW147335   8.542   1.836  12.249
81832SOL    HW247336   8.626   1.847  12.124
81833SOL     OW47337  10.278   6.977   0.667
81833SOL    HW147338  10.321   6.891   0.668
81833SOL    HW247339  10.348   7.038   0.641
81834SOL     OW47340   9.120   2.648   4.218
81834SOL    HW147341   9.175   2.711   4.171
81834SOL    HW247342   9.036   2.692   4.228
81835SOL     OW47343  10.650  14.251  14.368
81835SOL    HW147344  10.673  14.237  14.277
81835SOL    HW247345  10.597  14.175  14.391
81836SOL     OW47346   9.312   8.640   6.543
81836SOL    HW147347   9.239   8.607   6.489
81836SOL    HW247348   9.377   8.570   6.539
81837SOL     OW47349  13.202   7.718   1.916
81837SOL    HW147350  13.293   7.733   1.942
81837SOL    HW247351  13.165   7.806   1.907
81838SOL     OW47352   0.823  10.300  13.862
81838SOL    HW147353   0.857  10.228  13.809
81838SOL    HW247354   0.831  10.377  13.805
81839SOL     OW47355   1.767  10.344  10.615
81839SOL    HW147356   1.738  10.404  10.547
81839SOL    HW247357   1.815  10.276  10.568
81840SOL     OW47358  10.936   3.505   0.590
81840SOL    HW147359  10.919   3.522   0.498
81840SOL    HW247360  10.896   3.420   0.606
81841SOL     OW47361  12.232  10.954   6.485
81841SOL    HW147362  12.295  11.024   6.497
81841SOL    HW247363  12.264  10.883   6.541
81842SOL     OW47364  11.065   4.764  13.414
81842SOL    HW147365  11.068   4.817  13.494
81842SOL    HW247366  11.041   4.826  13.345
81843SOL     OW47367  10.239   2.608   5.346
81843SOL    HW147368  10.257   2.515   5.332
81843SOL    HW247369  10.236   2.618   5.441
81844SOL     OW47370  10.153   7.670  14.198
81844SOL    HW147371  10.246   7.689  14.201
81844SOL    HW247372  10.110   7.754  14.213
81845SOL     OW47373   6.258   6.384   3.222
81845SOL    HW147374   6.302   6.373   3.138
81845SOL    HW247375   6.166   6.370   3.203
81846SOL     OW47376   6.841   4.737  12.699
81846SOL    HW147377   6.788   4.816  12.690
81846SOL    HW247378   6.796   4.672  12.646
81847SOL     OW47379   5.504   0.382  13.972
81847SOL    HW147380   5.571   0.433  13.927
81847SOL    HW247381   5.524   0.291  13.949
81848SOL     OW47382   4.109   6.697   8.727
81848SOL    HW147383   4.078   6.688   8.636
81848SOL    HW247384   4.141   6.787   8.733
81849SOL     OW47385  13.205  14.741   5.461
81849SOL    HW147386  13.172  14.702   5.542
81849SOL    HW247387  13.299  14.722   5.461
81850SOL     OW47388   4.469  11.968  10.443
81850SOL    HW147389   4.531  12.040  10.455
81850SOL    HW247390   4.458  11.962  10.348
81851SOL     OW47391   8.685  11.575  10.087
81851SOL    HW147392   8.634  11.594  10.008
81851SOL    HW247393   8.665  11.647  10.147
81852SOL     OW47394  14.240  13.463   0.170
81852SOL    HW147395  14.302  13.474   0.241
81852SOL    HW247396  14.260  13.534   0.109
81853SOL     OW47397  13.330  12.118   1.123
81853SOL    HW147398  13.309  12.186   1.059
81853SOL    HW247399  13.274  12.138   1.198
81854SOL     OW47400   9.310   1.835   3.861
81854SOL    HW147401   9.258   1.790   3.795
81854SOL    HW247402   9.381   1.775   3.882
81855SOL     OW47403  11.910  14.329   3.845
81855SOL    HW147404  11.822  14.294   3.831
81855SOL    HW247405  11.936  14.294   3.930
81856SOL     OW47406  11.803   4.326   6.824
81856SOL    HW147407  11.796   4.258   6.892
81856SOL    HW247408  11.874   4.382   6.855
81857SOL     OW47409   5.972  14.383   3.845
81857SOL    HW147410   5.896  14.436   3.820
81857SOL    HW247411   6.036  14.445   3.879
81858SOL     OW47412   8.013   8.796   2.880
81858SOL    HW147413   8.063   8.721   2.848
81858SOL    HW247414   8.013   8.786   2.975
81859SOL     OW47415   9.704   3.195   7.216
81859SOL    HW147416   9.609   3.193   7.206
81859SOL    HW247417   9.718   3.225   7.306
81860SOL     OW47418   9.254   1.655   5.675
81860SOL    HW147419   9.286   1.611   5.596
81860SOL    HW247420   9.329   1.704   5.708
81861SOL     OW47421   6.277  12.619   5.030
81861SOL    HW147422   6.196  12.594   4.987
81861SOL    HW247423   6.346  12.582   4.975
81862SOL     OW47424   8.817   8.829   8.999
81862SOL    HW147425   8.795   8.813   8.907
81862SOL    HW247426   8.733   8.822   9.045
81863SOL     OW47427   3.152   3.030   3.710
81863SOL    HW147428   3.123   3.008   3.798
81863SOL    HW247429   3.097   2.976   3.653
81864SOL     OW47430  12.205   4.487   8.664
81864SOL    HW147431  12.179   4.399   8.635
81864SOL    HW247432  12.144   4.545   8.620
81865SOL     OW47433  13.818   8.027   4.964
81865SOL    HW147434  13.894   7.974   4.943
81865SOL    HW247435  13.775   8.042   4.879
81866SOL     OW47436   2.607   7.012   9.044
81866SOL    HW147437   2.642   7.019   9.133
81866SOL    HW247438   2.556   7.092   9.032
81867SOL     OW47439   3.194   4.366   0.024
81867SOL    HW147440   3.231   4.306   0.089
81867SOL    HW247441   3.176   4.446   0.073
81868SOL     OW47442  11.912   8.060   7.590
81868SOL    HW147443  11.906   8.131   7.655
81868SOL    HW247444  11.896   8.102   7.506
81869SOL     OW47445  12.623   7.290   5.897
81869SOL    HW147446  12.599   7.221   5.958
81869SOL    HW247447  12.562   7.361   5.914
81870SOL     OW47448   0.155   0.019  10.637
81870SOL    HW147449   0.201  14.826  10.595
81870SOL    HW247450   0.149  14.874  10.729
81871SOL     OW47451  12.487   9.771  13.952
81871SOL    HW147452  12.541   9.772  13.873
81871SOL    HW247453  12.544   9.734  14.019
81872SOL     OW47454  10.947   5.954  14.366
81872SOL    HW147455  10.975   6.027  14.311
81872SOL    HW247456  10.851   5.956  14.362
81873SOL     OW47457  10.677   9.080   2.360
81873SOL    HW147458  10.670   9.095   2.265
81873SOL    HW247459  10.722   8.997   2.368
81874SOL     OW47460   6.454   6.370   7.470
81874SOL    HW147461   6.435   6.401   7.382
81874SOL    HW247462   6.524   6.427   7.502
81875SOL     OW47463   6.677   8.751  11.722
81875SOL    HW147464   6.597   8.755  11.669
81875SOL    HW247465   6.725   8.677  11.687
81876SOL     OW47466   0.065   3.123   0.704
81876SOL    HW147467   0.121   3.073   0.763
81876SOL    HW247468  14.858   3.120   0.745
81877SOL     OW47469   8.766   5.172   2.118
81877SOL    HW147470   8.860   5.155   2.124
81877SOL    HW247471   8.759   5.253   2.069
81878SOL     OW47472   1.091   4.109   2.275
81878SOL    HW147473   1.097   4.022   2.315
81878SOL    HW247474   1.181   4.141   2.272
81879SOL     OW47475   8.448  12.719  13.908
81879SOL    HW147476   8.541  12.699  13.917
81879SOL    HW247477   8.407  12.677  13.984
81880SOL     OW47478   3.592   6.254   1.709
81880SOL    HW147479   3.633   6.231   1.626
81880SOL    HW247480   3.621   6.186   1.770
81881SOL     OW47481  12.108  13.965  13.409
81881SOL    HW147482  12.108  14.045  13.356
81881SOL    HW247483  12.082  13.896  13.349
81882SOL     OW47484  14.513   0.755   5.386
81882SOL    HW147485  14.589   0.814   5.382
81882SOL    HW247486  14.521   0.700   5.308
81883SOL     OW47487   9.847  10.626   1.562
81883SOL    HW147488   9.860  10.533   1.580
81883SOL    HW247489   9.785  10.629   1.490
81884SOL     OW47490  13.717   8.896   4.579
81884SOL    HW147491  13.677   8.957   4.640
81884SOL    HW247492  13.643   8.849   4.540
81885SOL     OW47493  13.672  10.604  11.089
81885SOL    HW147494  13.624  10.684  11.110
81885SOL    HW247495  13.615  10.558  11.028
81886SOL     OW47496  12.779  13.007  13.732
81886SOL    HW147497  12.856  13.008  13.674
81886SOL    HW247498  12.706  13.029  13.674
81887SOL     OW47499   8.928   6.019   7.593
81887SOL    HW147500   8.842   6.061   7.589
81887SOL    HW247501   8.960   6.039   7.682
81888SOL     OW47502   5.077   8.846   3.913
81888SOL    HW147503   5.121   8.802   3.986
81888SOL    HW247504   5.023   8.778   3.873
81889SOL     OW47505   2.739  10.955  11.505
81889SOL    HW147506   2.676  11.007  11.555
81889SOL    HW247507   2.766  10.885  11.565
81890SOL     OW47508   1.053   0.011  11.858
81890SOL    HW147509   1.071   0.105  11.858
81890SOL    HW247510   0.974   0.002  11.805
81891SOL     OW47511  11.883   6.905   1.929
81891SOL    HW147512  11.851   6.861   2.008
81891SOL    HW247513  11.969   6.937   1.952
81892SOL     OW47514   4.910   6.323   7.910
81892SOL    HW147515   4.820   6.300   7.886
81892SOL    HW247516   4.918   6.292   8.001
81893SOL     OW47517   4.733   8.977   7.237
81893SOL    HW147518   4.747   8.882   7.239
81893SOL    HW247519   4.814   9.012   7.199
81894SOL     OW47520  12.606   8.046  12.701
81894SOL    HW147521  12.659   7.973  12.669
81894SOL    HW247522  12.533   8.005  12.746
81895SOL     OW47523   1.347   5.739   7.817
81895SOL    HW147524   1.276   5.701   7.867
81895SOL    HW247525   1.408   5.772   7.883
81896SOL     OW47526   3.203   0.062   4.104
81896SOL    HW147527   3.142   0.074   4.176
81896SOL    HW247528   3.154   0.086   4.026
81897SOL     OW47529   1.598  12.605   6.844
81897SOL    HW147530   1.581  12.574   6.933
81897SOL    HW247531   1.596  12.700   6.851
81898SOL     OW47532  11.437   1.154   1.176
81898SOL    HW147533  11.505   1.172   1.241
81898SOL    HW247534  11.360   1.202   1.207
81899SOL     OW47535  12.883   7.396   6.692
81899SOL    HW147536  12.910   7.408   6.601
81899SOL    HW247537  12.825   7.470   6.710
81900SOL     OW47538   6.361  11.591  12.485
81900SOL    HW147539   6.282  11.577  12.433
81900SOL    HW247540   6.427  11.618  12.421
81901SOL     OW47541   1.372  12.417  11.279
81901SOL    HW147542   1.314  12.386  11.210
81901SOL    HW247543   1.314  12.457  11.344
81902SOL     OW47544   2.596   2.515   8.444
81902SOL    HW147545   2.621   2.599   8.483
81902SOL    HW247546   2.680   2.472   8.424
81903SOL     OW47547   8.751   0.481   1.011
81903SOL    HW147548   8.774   0.535   0.934
81903SOL    HW247549   8.802   0.401   1.000
81904SOL     OW47550   2.212  13.717  13.266
81904SOL    HW147551   2.128  13.701  13.223
81904SOL    HW247552   2.237  13.805  13.239
81905SOL     OW47553  12.659   0.314   9.038
81905SOL    HW147554  12.678   0.229   9.000
81905SOL    HW247555  12.563   0.316   9.045
81906SOL     OW47556   2.683  10.007   2.372
81906SOL    HW147557   2.759   9.991   2.316
81906SOL    HW247558   2.649   9.920   2.392
81907SOL     OW47559   0.983  13.848  11.750
81907SOL    HW147560   0.947  13.763  11.777
81907SOL    HW247561   1.019  13.833  11.663
81908SOL     OW47562  14.628   9.551  13.005
81908SOL    HW147563  14.640   9.607  12.929
81908SOL    HW247564  14.702   9.491  13.003
81909SOL     OW47565   6.158   7.262   2.797
81909SOL    HW147566   6.193   7.196   2.737
81909SOL    HW247567   6.226   7.273   2.863
81910SOL     OW47568  13.818   0.874   5.277
81910SOL    HW147569  13.815   0.926   5.196
81910SOL    HW247570  13.834   0.785   5.247
81911SOL     OW47571   3.878   2.780   2.490
81911SOL    HW147572   3.930   2.719   2.438
81911SOL    HW247573   3.912   2.866   2.467
81912SOL     OW47574  11.291   3.102   4.839
81912SOL    HW147575  11.203   3.125   4.809
81912SOL    HW247576  11.289   3.118   4.934
81913SOL     OW47577   4.430   9.824   7.217
81913SOL    HW147578   4.476   9.876   7.282
81913SOL    HW247579   4.500   9.780   7.168
81914SOL     OW47580   2.098   1.938  14.125
81914SOL    HW147581   2.167   2.001  14.103
81914SOL    HW247582   2.076   1.957  14.216
81915SOL     OW47583   3.424   9.048   4.114
81915SOL    HW147584   3.446   9.073   4.024
81915SOL    HW247585   3.468   8.964   4.127
81916SOL     OW47586   6.122   0.644   4.999
81916SOL    HW147587   6.180   0.676   4.929
81916SOL    HW247588   6.041   0.621   4.953
81917SOL     OW47589   7.446   9.359   6.608
81917SOL    HW147590   7.513   9.296   6.583
81917SOL    HW247591   7.452   9.428   6.541
81918SOL     OW47592   3.484   5.647   7.262
81918SOL    HW147593   3.448   5.564   7.230
81918SOL    HW247594   3.407   5.699   7.285
81919SOL     OW47595   1.021   9.184  11.909
81919SOL    HW147596   1.030   9.263  11.857
81919SOL    HW247597   1.072   9.118  11.862
81920SOL     OW47598   3.251   6.721   5.244
81920SOL    HW147599   3.305   6.799   5.230
81920SOL    HW247600   3.190   6.747   5.313
81921SOL     OW47601   2.659  11.467  11.307
81921SOL    HW147602   2.738  11.520  11.296
81921SOL    HW247603   2.687  11.392  11.360
81922SOL     OW47604   4.534  10.262   6.685
81922SOL    HW147605   4.524  10.178   6.731
81922SOL    HW247606   4.556  10.237   6.595
81923SOL     OW47607   3.784   5.184   8.581
81923SOL    HW147608   3.701   5.213   8.617
81923SOL    HW247609   3.762   5.109   8.527
81924SOL     OW47610   4.158   3.540   8.908
81924SOL    HW147611   4.148   3.518   8.816
81924SOL    HW247612   4.115   3.625   8.918
81925SOL     OW47613   3.765  14.739   5.898
81925SOL    HW147614   3.757  14.737   5.803
81925SOL    HW247615   3.850  14.698   5.916
81926SOL     OW47616   9.432   6.882   7.568
81926SOL    HW147617   9.455   6.867   7.660
81926SOL    HW247618   9.515   6.875   7.521
81927SOL     OW47619  13.188  12.808  11.286
81927SOL    HW147620  13.156  12.781  11.372
81927SOL    HW247621  13.132  12.760  11.224
81928SOL     OW47622   8.198   3.917  14.733
81928SOL    HW147623   8.236   3.871  14.659
81928SOL    HW247624   8.204   3.855  14.806
81929SOL     OW47625   6.965   3.260   8.346
81929SOL    HW147626   6.945   3.179   8.393
81929SOL    HW247627   6.894   3.319   8.369
81930SOL     OW47628  14.492   1.042   2.763
81930SOL    HW147629  14.408   1.011   2.798
81930SOL    HW247630  14.471   1.128   2.725
81931SOL     OW47631   7.392   3.399  14.092
81931SOL    HW147632   7.389   3.479  14.144
81931SOL    HW247633   7.477   3.402  14.048
81932SOL     OW47634   9.788  10.181   8.363
81932SOL    HW147635   9.832  10.097   8.347
81932SOL    HW247636   9.771  10.182   8.457
81933SOL     OW47637  13.192   7.049   6.180
81933SOL    HW147638  13.202   7.144   6.176
81933SOL    HW247639  13.098   7.036   6.191
81934SOL     OW47640  11.727   4.977   8.529
81934SOL    HW147641  11.764   5.042   8.469
81934SOL    HW247642  11.635   5.003   8.539
81935SOL     OW47643  10.724   8.388   0.699
81935SOL    HW147644  10.693   8.342   0.777
81935SOL    HW247645  10.651   8.444   0.673
81936SOL     OW47646  13.778   4.692  14.437
81936SOL    HW147647  13.702   4.681  14.495
81936SOL    HW247648  13.770   4.781  14.404
81937SOL     OW47649   8.206   7.504   2.719
81937SOL    HW147650   8.114   7.524   2.700
81937SOL    HW247651   8.248   7.590   2.727
81938SOL     OW47652   9.836  14.448   1.137
81938SOL    HW147653   9.820  14.432   1.044
81938SOL    HW247654   9.761  14.499   1.166
81939SOL     OW47655   1.735   9.906   4.791
81939SOL    HW147656   1.798   9.933   4.858
81939SOL    HW247657   1.751   9.966   4.719
81940SOL     OW47658   9.442  11.828   2.819
81940SOL    HW147659   9.350  11.828   2.845
81940SOL    HW247660   9.440  11.838   2.724
81941SOL     OW47661  12.484   6.405   9.779
81941SOL    HW147662  12.459   6.313   9.790
81941SOL    HW247663  12.575   6.401   9.749
81942SOL     OW47664   4.032   3.803   6.375
81942SOL    HW147665   4.002   3.779   6.462
81942SOL    HW247666   4.089   3.879   6.389
81943SOL     OW47667   9.524  12.354  14.714
81943SOL    HW147668   9.508  12.267  14.750
81943SOL    HW247669   9.619  12.365  14.723
81944SOL     OW47670  10.677   1.373   3.862
81944SOL    HW147671  10.628   1.379   3.780
81944SOL    HW247672  10.753   1.318   3.841
81945SOL     OW47673   2.347  12.318  14.662
81945SOL    HW147674   2.430  12.301  14.617
81945SOL    HW247675   2.353  12.408  14.691
81946SOL     OW47676   5.072   5.336   6.860
81946SOL    HW147677   4.996   5.394   6.858
81946SOL    HW247678   5.116   5.358   6.943
81947SOL     OW47679  11.892  10.900   8.138
81947SOL    HW147680  11.819  10.886   8.198
81947SOL    HW247681  11.959  10.944   8.190
81948SOL     OW47682  13.999  13.974  10.978
81948SOL    HW147683  13.993  13.879  10.968
81948SOL    HW247684  14.090  13.995  10.956
81949SOL     OW47685  13.294   2.693   3.498
81949SOL    HW147686  13.273   2.761   3.433
81949SOL    HW247687  13.387   2.675   3.485
81950SOL     OW47688   2.206   7.590   2.414
81950SOL    HW147689   2.244   7.663   2.463
81950SOL    HW247690   2.193   7.624   2.326
81951SOL     OW47691   6.217   2.259  11.711
81951SOL    HW147692   6.130   2.288  11.681
81951SOL    HW247693   6.204   2.168  11.735
81952SOL     OW47694   7.078   6.016  12.161
81952SOL    HW147695   7.092   6.022  12.067
81952SOL    HW247696   6.983   6.023  12.171
81953SOL     OW47697   9.792  14.347   9.238
81953SOL    HW147698   9.771  14.383   9.324
81953SOL    HW247699   9.707  14.322   9.201
81954SOL     OW47700  11.580   7.543   4.228
81954SOL    HW147701  11.521   7.616   4.243
81954SOL    HW247702  11.613   7.556   4.139
81955SOL     OW47703   7.228   3.537  11.504
81955SOL    HW147704   7.209   3.609  11.564
81955SOL    HW247705   7.255   3.465  11.561
81956SOL     OW47706   0.583   6.951  13.246
81956SOL    HW147707   0.543   6.997  13.320
81956SOL    HW247708   0.670   6.989  13.239
81957SOL     OW47709   8.228   2.286   1.164
81957SOL    HW147710   8.233   2.236   1.246
81957SOL    HW247711   8.235   2.220   1.096
81958SOL     OW47712   8.538  14.818   2.368
81958SOL    HW147713   8.525  14.855   2.281
81958SOL    HW247714   8.577   0.009   2.419
81959SOL     OW47715  11.707   1.590   9.141
81959SOL    HW147716  11.759   1.669   9.158
81959SOL    HW247717  11.747   1.552   9.062
81960SOL     OW47718   3.053   1.903  12.645
81960SOL    HW147719   2.986   1.870  12.704
81960SOL    HW247720   3.019   1.884  12.557
81961SOL     OW47721   6.724   5.001  10.691
81961SOL    HW147722   6.653   5.015  10.628
81961SOL    HW247723   6.701   5.058  10.765
81962SOL     OW47724   1.384  13.688  11.815
81962SOL    HW147725   1.338  13.766  11.847
81962SOL    HW247726   1.322  13.648  11.754
81963SOL     OW47727   1.213  10.431  13.121
81963SOL    HW147728   1.146  10.480  13.169
81963SOL    HW247729   1.167  10.396  13.045
81964SOL     OW47730  11.180  13.288  11.421
81964SOL    HW147731  11.116  13.322  11.359
81964SOL    HW247732  11.233  13.363  11.445
81965SOL     OW47733  13.703  10.846  11.346
81965SOL    HW147734  13.782  10.855  11.293
81965SOL    HW247735  13.735  10.817  11.432
81966SOL     OW47736   8.117   8.569   1.437
81966SOL    HW147737   8.055   8.642   1.434
81966SOL    HW247738   8.063   8.493   1.462
81967SOL     OW47739   0.943   6.432  13.252
81967SOL    HW147740   0.995   6.402  13.327
81967SOL    HW247741   0.945   6.528  13.259
81968SOL     OW47742   1.367  14.077  11.730
81968SOL    HW147743   1.273  14.078  11.749
81968SOL    HW247744   1.378  14.141  11.661
81969SOL     OW47745  11.687   0.200   2.403
81969SOL    HW147746  11.600   0.235   2.421
81969SOL    HW247747  11.694   0.200   2.307
81970SOL     OW47748   2.572   1.361  11.885
81970SOL    HW147749   2.511   1.323  11.822
81970SOL    HW247750   2.618   1.286  11.922
81971SOL     OW47751  14.868   4.324   6.618
81971SOL    HW147752  14.813   4.256   6.656
81971SOL    HW247753   0.077   4.286   6.619
81972SOL     OW47754   1.459  12.697   7.499
81972SOL    HW147755   1.418  12.783   7.492
81972SOL    HW247756   1.484  12.690   7.591
81973SOL     OW47757   8.413   2.977   5.349
81973SOL    HW147758   8.500   2.995   5.385
81973SOL    HW247759   8.355   3.036   5.398
81974SOL     OW47760   3.900   7.696  12.192
81974SOL    HW147761   3.833   7.680  12.125
81974SOL    HW247762   3.940   7.611  12.207
81975SOL     OW47763   7.147   0.298  12.690
81975SOL    HW147764   7.202   0.226  12.659
81975SOL    HW247765   7.059   0.277  12.656
81976SOL     OW47766  14.801  12.972  13.346
81976SOL    HW147767  14.872  12.933  13.396
81976SOL    HW247768  14.764  12.899  13.296
81977SOL     OW47769   7.501   2.917   0.061
81977SOL    HW147770   7.447   2.974   0.007
81977SOL    HW247771   7.439   2.864   0.111
81978SOL     OW47772   7.634   0.088  11.964
81978SOL    HW147773   7.698   0.155  11.940
81978SOL    HW247774   7.669   0.050  12.045
81979SOL     OW47775   5.101   4.841  11.176
81979SOL    HW147776   5.135   4.875  11.093
81979SOL    HW247777   5.015   4.881  11.185
81980SOL     OW47778   1.558   8.120   2.284
81980SOL    HW147779   1.591   8.042   2.328
81980SOL    HW247780   1.622   8.138   2.215
81981SOL     OW47781   5.178  10.130  10.971
81981SOL    HW147782   5.128  10.060  10.928
81981SOL    HW247783   5.268  10.116  10.941
81982SOL     OW47784   7.743   0.982  13.476
81982SOL    HW147785   7.765   0.960  13.386
81982SOL    HW247786   7.697   0.904  13.509
81983SOL     OW47787   3.627   1.899  12.619
81983SOL    HW147788   3.582   1.873  12.539
81983SOL    HW247789   3.594   1.840  12.686
81984SOL     OW47790   1.883   7.678   0.063
81984SOL    HW147791   1.958   7.715   0.017
81984SOL    HW247792   1.914   7.660   0.151
81985SOL     OW47793  11.355   9.060  10.866
81985SOL    HW147794  11.365   9.126  10.934
81985SOL    HW247795  11.418   8.993  10.887
81986SOL     OW47796   3.953  10.033   8.614
81986SOL    HW147797   3.937   9.964   8.550
81986SOL    HW247798   3.895  10.105   8.587
81987SOL     OW47799   5.891   5.689  12.752
81987SOL    HW147800   5.841   5.671  12.832
81987SOL    HW247801   5.944   5.610  12.739
81988SOL     OW47802   4.335   9.809   9.861
81988SOL    HW147803   4.344   9.870   9.787
81988SOL    HW247804   4.418   9.816   9.908
81989SOL     OW47805   0.312   6.140  11.247
81989SOL    HW147806   0.316   6.045  11.256
81989SOL    HW247807   0.402   6.170  11.260
81990SOL     OW47808   7.043  12.567  11.120
81990SOL    HW147809   7.073  12.520  11.197
81990SOL    HW247810   7.122  12.604  11.082
81991SOL     OW47811   6.608   7.354   3.527
81991SOL    HW147812   6.584   7.279   3.580
81991SOL    HW247813   6.702   7.365   3.542
81992SOL     OW47814   3.831  13.432   7.751
81992SOL    HW147815   3.850  13.347   7.712
81992SOL    HW247816   3.856  13.495   7.684
81993SOL     OW47817   5.173   3.992   6.254
81993SOL    HW147818   5.114   3.943   6.197
81993SOL    HW247819   5.218   4.052   6.196
81994SOL     OW47820   2.387   6.099   1.114
81994SOL    HW147821   2.482   6.108   1.118
81994SOL    HW247822   2.361   6.148   1.036
81995SOL     OW47823  14.096   8.065   9.675
81995SOL    HW147824  14.168   8.020   9.719
81995SOL    HW247825  14.118   8.061   9.582
81996SOL     OW47826  13.678  11.037  12.996
81996SOL    HW147827  13.615  10.986  12.946
81996SOL    HW247828  13.630  11.068  13.073
81997SOL     OW47829  13.338   9.859  13.378
81997SOL    HW147830  13.362   9.947  13.406
81997SOL    HW247831  13.348   9.860  13.283
81998SOL     OW47832  14.173   9.272  11.453
81998SOL    HW147833  14.119   9.290  11.376
81998SOL    HW247834  14.139   9.330  11.521
81999SOL     OW47835  14.573  13.421   5.817
81999SOL    HW147836  14.668  13.406   5.812
81999SOL    HW247837  14.564  13.516   5.816
82000SOL     OW47838   5.711   3.167   8.701
82000SOL    HW147839   5.777   3.143   8.766
82000SOL    HW247840   5.671   3.246   8.735
82001SOL     OW47841   9.130   8.062   7.665
82001SOL    HW147842   9.210   8.044   7.714
82001SOL    HW247843   9.082   7.979   7.666
82002SOL     OW47844  12.715  14.686  14.461
82002SOL    HW147845  12.748  14.605  14.498
82002SOL    HW247846  12.781  14.713  14.398
82003SOL     OW47847   5.820   2.734   2.488
82003SOL    HW147848   5.766   2.719   2.565
82003SOL    HW247849   5.885   2.799   2.517
82004SOL     OW47850  10.213   2.904  12.385
82004SOL    HW147851  10.262   2.977  12.423
82004SOL    HW247852  10.123   2.934  12.382
82005SOL     OW47853   6.093   5.910   2.587
82005SOL    HW147854   6.144   5.965   2.528
82005SOL    HW247855   6.005   5.947   2.583
82006SOL     OW47856   9.865   7.894  12.399
82006SOL    HW147857   9.770   7.889  12.386
82006SOL    HW247858   9.884   7.987  12.403
82007SOL     OW47859   6.800   0.950   6.036
82007SOL    HW147860   6.740   0.915   5.970
82007SOL    HW247861   6.831   1.032   5.999
82008SOL     OW47862  10.844  14.464   8.393
82008SOL    HW147863  10.797  14.543   8.364
82008SOL    HW247864  10.836  14.403   8.321
82009SOL     OW47865   2.068   9.042  14.067
82009SOL    HW147866   2.147   8.991  14.053
82009SOL    HW247867   2.089   9.100  14.141
82010SOL     OW47868   1.509  12.149   0.189
82010SOL    HW147869   1.603  12.168   0.193
82010SOL    HW247870   1.475  12.178   0.274
82011SOL     OW47871  13.009  11.403  10.359
82011SOL    HW147872  13.088  11.356  10.387
82011SOL    HW247873  12.944  11.382  10.427
82012SOL     OW47874   1.989  14.044   4.985
82012SOL    HW147875   1.945  14.100   5.050
82012SOL    HW247876   2.080  14.042   5.013
82013SOL     OW47877   4.553   3.212   2.741
82013SOL    HW147878   4.521   3.185   2.828
82013SOL    HW247879   4.475   3.246   2.697
82014SOL     OW47880  13.256   9.481   6.757
82014SOL    HW147881  13.250   9.563   6.807
82014SOL    HW247882  13.246   9.507   6.666
82015SOL     OW47883   7.113  10.164   0.210
82015SOL    HW147884   7.131  10.121   0.127
82015SOL    HW247885   7.103  10.257   0.188
82016SOL     OW47886   7.772   8.261  11.422
82016SOL    HW147887   7.697   8.286  11.368
82016SOL    HW247888   7.756   8.303  11.506
82017SOL     OW47889   2.891  10.704   4.570
82017SOL    HW147890   2.899  10.763   4.495
82017SOL    HW247891   2.797  10.696   4.585
82018SOL     OW47892   4.226   2.536  13.310
82018SOL    HW147893   4.310   2.502  13.277
82018SOL    HW247894   4.240   2.548  13.404
82019SOL     OW47895  10.695   3.353   6.622
82019SOL    HW147896  10.664   3.263   6.612
82019SOL    HW247897  10.712   3.363   6.715
82020SOL     OW47898  12.880  12.306   9.942
82020SOL    HW147899  12.956  12.290   9.998
82020SOL    HW247900  12.901  12.387   9.895
82021SOL     OW47901  13.732  13.897  13.173
82021SOL    HW147902  13.746  13.972  13.232
82021SOL    HW247903  13.638  13.885  13.172
82022SOL     OW47904   6.445   3.978  12.186
82022SOL    HW147905   6.466   3.914  12.254
82022SOL    HW247906   6.374   3.938  12.136
82023SOL     OW47907   7.118   7.462  10.413
82023SOL    HW147908   7.044   7.507  10.373
82023SOL    HW247909   7.182   7.531  10.429
82024SOL     OW47910  13.220   7.911   8.295
82024SOL    HW147911  13.267   7.911   8.379
82024SOL    HW247912  13.143   7.965   8.311
82025SOL     OW47913  13.464  14.025   9.947
82025SOL    HW147914  13.522  14.089   9.907
82025SOL    HW247915  13.516  13.945   9.953
82026SOL     OW47916  14.300  13.507   6.441
82026SOL    HW147917  14.393  13.487   6.431
82026SOL    HW247918  14.261  13.424   6.471
82027SOL     OW47919   8.314  11.094   3.993
82027SOL    HW147920   8.271  11.029   4.049
82027SOL    HW247921   8.306  11.176   4.040
82028SOL     OW47922   9.620   6.887  13.122
82028SOL    HW147923   9.618   6.793  13.105
82028SOL    HW247924   9.533   6.907  13.157
82029SOL     OW47925  11.671   4.214   6.579
82029SOL    HW147926  11.720   4.235   6.658
82029SOL    HW247927  11.593   4.268   6.584
82030SOL     OW47928   0.261  12.280   3.014
82030SOL    HW147929   0.192  12.303   2.952
82030SOL    HW247930   0.291  12.194   2.986
82031SOL     OW47931   7.240  11.347  11.008
82031SOL    HW147932   7.256  11.362  10.915
82031SOL    HW247933   7.199  11.261  11.012
82032SOL     OW47934   8.837   6.292   2.568
82032SOL    HW147935   8.757   6.249   2.538
82032SOL    HW247936   8.861   6.351   2.497
82033SOL     OW47937  12.378   6.153   8.518
82033SOL    HW147938  12.332   6.154   8.434
82033SOL    HW247939  12.336   6.222   8.570
82034SOL     OW47940  11.950   7.230   8.224
82034SOL    HW147941  11.873   7.286   8.211
82034SOL    HW247942  11.919   7.142   8.199
82035SOL     OW47943   1.711   1.163   5.189
82035SOL    HW147944   1.749   1.142   5.274
82035SOL    HW247945   1.619   1.181   5.207
82036SOL     OW47946  14.259  14.040  10.888
82036SOL    HW147947  14.339  13.990  10.906
82036SOL    HW247948  14.227  14.005  10.805
82037SOL     OW47949  13.624   6.176   1.390
82037SOL    HW147950  13.708   6.168   1.436
82037SOL    HW247951  13.641   6.141   1.303
82038SOL     OW47952   6.157  14.005   3.871
82038SOL    HW147953   6.233  13.948   3.878
82038SOL    HW247954   6.138  14.032   3.961
82039SOL     OW47955   7.316  10.071  10.244
82039SOL    HW147956   7.301   9.992  10.192
82039SOL    HW247957   7.243  10.129  10.221
82040SOL     OW47958   5.715   6.724  14.763
82040SOL    HW147959   5.671   6.659  14.818
82040SOL    HW247960   5.744   6.792  14.823
82041SOL     OW47961   0.505  14.822   2.296
82041SOL    HW147962   0.579  14.846   2.241
82041SOL    HW247963   0.510  14.726   2.302
82042SOL     OW47964   4.731   8.861   7.947
82042SOL    HW147965   4.673   8.829   7.878
82042SOL    HW247966   4.750   8.951   7.923
82043SOL     OW47967   8.945   9.057   9.186
82043SOL    HW147968   8.985   8.971   9.196
82043SOL    HW247969   8.968   9.084   9.097
82044SOL     OW47970   6.305  14.223   5.473
82044SOL    HW147971   6.254  14.304   5.467
82044SOL    HW247972   6.373  14.243   5.537
82045SOL     OW47973   9.453   0.778   8.162
82045SOL    HW147974   9.399   0.711   8.202
82045SOL    HW247975   9.395   0.824   8.102
82046SOL     OW47976   7.665   0.087   6.986
82046SOL    HW147977   7.608   0.103   7.061
82046SOL    HW247978   7.723   0.163   6.983
82047SOL     OW47979   3.476  12.548  10.395
82047SOL    HW147980   3.508  12.612  10.458
82047SOL    HW247981   3.464  12.598  10.314
82048SOL     OW47982   0.119   9.792   4.283
82048SOL    HW147983   0.200   9.835   4.255
82048SOL    HW247984   0.064   9.792   4.205
82049SOL     OW47985   6.694   8.899   9.592
82049SOL    HW147986   6.789   8.893   9.577
82049SOL    HW247987   6.678   8.992   9.604
82050SOL     OW47988   0.226  11.726   8.027
82050SOL    HW147989   0.159  11.671   7.985
82050SOL    HW247990   0.194  11.738   8.117
82051SOL     OW47991   1.750  13.112  14.691
82051SOL    HW147992   1.796  13.122  14.608
82051SOL    HW247993   1.720  13.201  14.713
82052SOL     OW47994  12.860   2.188   1.094
82052SOL    HW147995  12.935   2.244   1.112
82052SOL    HW247996  12.881   2.106   1.139
82053SOL     OW47997   4.820  11.838  10.824
82053SOL    HW147998   4.876  11.804  10.754
82053SOL    HW247999   4.770  11.909  10.783
82054SOL     OW48000   6.143   2.059  12.108
82054SOL    HW148001   6.054   2.085  12.133
82054SOL    HW248002   6.177   2.013  12.185
82055SOL     OW48003   4.502   2.411   7.365
82055SOL    HW148004   4.508   2.487   7.306
82055SOL    HW248005   4.432   2.433   7.426
82056SOL     OW48006   6.597   9.239  10.129
82056SOL    HW148007   6.522   9.294  10.154
82056SOL    HW248008   6.672   9.281  10.171
82057SOL     OW48009  14.272  12.432  13.297
82057SOL    HW148010  14.366  12.425  13.316
82057SOL    HW248011  14.250  12.522  13.321
82058SOL     OW48012   8.142   0.902   2.787
82058SOL    HW148013   8.205   0.872   2.852
82058SOL    HW248014   8.172   0.990   2.762
82059SOL     OW48015   1.608   8.416   8.542
82059SOL    HW148016   1.543   8.487   8.538
82059SOL    HW248017   1.662   8.438   8.618
82060SOL     OW48018   0.271   8.054   5.820
82060SOL    HW148019   0.307   8.035   5.734
82060SOL    HW248020   0.324   8.126   5.853
82061SOL     OW48021   5.847  11.987   8.499
82061SOL    HW148022   5.774  12.044   8.474
82061SOL    HW248023   5.829  11.965   8.591
82062SOL     OW48024   3.966   8.315  12.672
82062SOL    HW148025   3.911   8.286  12.599
82062SOL    HW248026   4.014   8.391  12.637
82063SOL     OW48027  11.631   4.640   7.805
82063SOL    HW148028  11.677   4.712   7.762
82063SOL    HW248029  11.700   4.579   7.830
82064SOL     OW48030   3.161   7.891   1.062
82064SOL    HW148031   3.163   7.922   0.971
82064SOL    HW248032   3.143   7.969   1.114
82065SOL     OW48033   0.470  10.552   3.868
82065SOL    HW148034   0.452  10.611   3.941
82065SOL    HW248035   0.565  10.541   3.869
82066SOL     OW48036   3.648  11.955   8.172
82066SOL    HW148037   3.734  11.914   8.160
82066SOL    HW248038   3.586  11.882   8.167
82067SOL     OW48039  12.653  13.746   6.805
82067SOL    HW148040  12.653  13.715   6.896
82067SOL    HW248041  12.599  13.683   6.758
82068SOL     OW48042   8.961  11.503   4.237
82068SOL    HW148043   8.993  11.585   4.201
82068SOL    HW248044   8.916  11.460   4.164
82069SOL     OW48045   2.602  12.464   3.376
82069SOL    HW148046   2.526  12.457   3.319
82069SOL    HW248047   2.669  12.411   3.334
82070SOL     OW48048   6.548   0.479  13.360
82070SOL    HW148049   6.576   0.408  13.303
82070SOL    HW248050   6.455   0.493  13.338
82071SOL     OW48051   0.449   4.602  13.105
82071SOL    HW148052   0.481   4.524  13.150
82071SOL    HW248053   0.394   4.568  13.034
82072SOL     OW48054   6.862   6.982  11.258
82072SOL    HW148055   6.813   7.034  11.195
82072SOL    HW248056   6.925   7.044  11.296
82073SOL     OW48057   2.974   9.409   2.709
82073SOL    HW148058   2.967   9.498   2.677
82073SOL    HW248059   3.015   9.417   2.795
82074SOL     OW48060   5.652   3.818   6.123
82074SOL    HW148061   5.722   3.840   6.185
82074SOL    HW248062   5.669   3.874   6.047
82075SOL     OW48063   2.019   0.671   5.188
82075SOL    HW148064   2.087   0.604   5.199
82075SOL    HW248065   2.064   0.743   5.142
82076SOL     OW48066   0.760  11.455  14.402
82076SOL    HW148067   0.803  11.462  14.487
82076SOL    HW248068   0.692  11.389  14.415
82077SOL     OW48069   7.630   1.052  12.632
82077SOL    HW148070   7.552   1.091  12.593
82077SOL    HW248071   7.610   1.047  12.726
82078SOL     OW48072   2.078   5.923   9.165
82078SOL    HW148073   2.067   5.829   9.159
82078SOL    HW248074   2.009   5.952   9.225
82079SOL     OW48075  12.287   2.940   4.908
82079SOL    HW148076  12.248   2.913   4.824
82079SOL    HW248077  12.328   2.860   4.941
82080SOL     OW48078  14.713   3.305  14.050
82080SOL    HW148079  14.792   3.329  14.001
82080SOL    HW248080  14.747   3.259  14.127
82081SOL     OW48081   4.623   7.230   8.749
82081SOL    HW148082   4.673   7.211   8.828
82081SOL    HW248083   4.572   7.309   8.771
82082SOL     OW48084  13.983   1.349   9.384
82082SOL    HW148085  13.978   1.360   9.289
82082SOL    HW248086  13.893   1.334   9.412
82083SOL     OW48087   8.597   4.624   7.474
82083SOL    HW148088   8.535   4.583   7.534
82083SOL    HW248089   8.550   4.699   7.439
82084SOL     OW48090   2.405  11.986   1.398
82084SOL    HW148091   2.339  11.961   1.332
82084SOL    HW248092   2.456  11.906   1.412
82085SOL     OW48093   4.126   0.960   9.171
82085SOL    HW148094   4.054   0.990   9.116
82085SOL    HW248095   4.188   0.919   9.110
82086SOL     OW48096  10.086   9.522   5.711
82086SOL    HW148097  10.093   9.455   5.780
82086SOL    HW248098  10.058   9.474   5.634
82087SOL     OW48099   9.204   3.404   6.552
82087SOL    HW148100   9.250   3.339   6.604
82087SOL    HW248101   9.154   3.354   6.487
82088SOL     OW48102   7.954   3.850   1.928
82088SOL    HW148103   7.908   3.822   2.007
82088SOL    HW248104   7.925   3.788   1.861
82089SOL     OW48105   7.161  11.530   7.821
82089SOL    HW148106   7.157  11.489   7.907
82089SOL    HW248107   7.076  11.574   7.811
82090SOL     OW48108  12.812  13.723   6.476
82090SOL    HW148109  12.856  13.642   6.502
82090SOL    HW248110  12.840  13.787   6.542
82091SOL     OW48111   1.687  11.930   6.907
82091SOL    HW148112   1.692  11.993   6.836
82091SOL    HW248113   1.608  11.878   6.888
82092SOL     OW48114   2.339   5.120   9.320
82092SOL    HW148115   2.356   5.212   9.336
82092SOL    HW248116   2.391   5.074   9.386
82093SOL     OW48117  11.681   3.499  11.517
82093SOL    HW148118  11.761   3.453  11.491
82093SOL    HW248119  11.711   3.564  11.580
82094SOL     OW48120   8.274   6.146   9.146
82094SOL    HW148121   8.285   6.052   9.159
82094SOL    HW248122   8.187   6.155   9.107
82095SOL     OW48123   1.552   1.270   0.414
82095SOL    HW148124   1.645   1.291   0.430
82095SOL    HW248125   1.544   1.269   0.319
82096SOL     OW48126   0.580   7.606   5.615
82096SOL    HW148127   0.544   7.535   5.563
82096SOL    HW248128   0.650   7.643   5.560
82097SOL     OW48129   5.719   4.649   8.327
82097SOL    HW148130   5.642   4.596   8.350
82097SOL    HW248131   5.794   4.592   8.349
82098SOL     OW48132   3.239   2.347  13.810
82098SOL    HW148133   3.179   2.342  13.884
82098SOL    HW248134   3.184   2.378  13.737
82099SOL     OW48135   4.248   9.990   8.424
82099SOL    HW148136   4.318   9.927   8.408
82099SOL    HW248137   4.170   9.937   8.442
82100SOL     OW48138   2.691  13.037   6.347
82100SOL    HW148139   2.640  13.022   6.426
82100SOL    HW248140   2.629  13.021   6.275
82101SOL     OW48141  13.147   1.376   3.767
82101SOL    HW148142  13.225   1.423   3.738
82101SOL    HW248143  13.154   1.290   3.726
82102SOL     OW48144   6.956   1.538  13.425
82102SOL    HW148145   6.961   1.614  13.484
82102SOL    HW248146   7.024   1.479  13.458
82103SOL     OW48147   1.852   3.555   9.045
82103SOL    HW148148   1.893   3.471   9.064
82103SOL    HW248149   1.766   3.549   9.086
82104SOL     OW48150   2.955  12.206   6.663
82104SOL    HW148151   3.013  12.202   6.738
82104SOL    HW248152   3.004  12.257   6.598
82105SOL     OW48153  12.199   3.355  14.454
82105SOL    HW148154  12.221   3.434  14.404
82105SOL    HW248155  12.120   3.377  14.502
82106SOL     OW48156   7.943  14.315   7.084
82106SOL    HW148157   7.879  14.244   7.075
82106SOL    HW248158   7.890  14.395   7.085
82107SOL     OW48159   1.855   2.896   7.622
82107SOL    HW148160   1.920   2.842   7.577
82107SOL    HW248161   1.833   2.847   7.701
82108SOL     OW48162  13.735   3.839   6.422
82108SOL    HW148163  13.804   3.774   6.433
82108SOL    HW248164  13.695   3.816   6.338
82109SOL     OW48165   5.737  13.954   3.904
82109SOL    HW148166   5.742  13.878   3.846
82109SOL    HW248167   5.809  14.010   3.874
82110SOL     OW48168   3.391  14.040  11.818
82110SOL    HW148169   3.472  14.020  11.865
82110SOL    HW248170   3.360  13.954  11.787
82111SOL     OW48171   6.243  11.036   5.056
82111SOL    HW148172   6.206  11.006   4.974
82111SOL    HW248173   6.325  10.987   5.065
82112SOL     OW48174   8.652   0.398   2.968
82112SOL    HW148175   8.677   0.457   2.897
82112SOL    HW248176   8.620   0.455   3.038
82113SOL     OW48177   0.159   6.364   9.544
82113SOL    HW148178   0.087   6.314   9.582
82113SOL    HW248179   0.191   6.418   9.616
82114SOL     OW48180   6.979   6.918   3.068
82114SOL    HW148181   6.979   6.915   2.972
82114SOL    HW248182   7.055   6.866   3.094
82115SOL     OW48183   8.771   5.494   7.724
82115SOL    HW148184   8.763   5.585   7.697
82115SOL    HW248185   8.864   5.474   7.714
82116SOL     OW48186   7.946  13.518   2.926
82116SOL    HW148187   7.877  13.581   2.948
82116SOL    HW248188   7.900  13.434   2.922
82117SOL     OW48189  12.900  10.153   8.383
82117SOL    HW148190  12.810  10.146   8.352
82117SOL    HW248191  12.896  10.216   8.455
82118SOL     OW48192  12.678  13.981   1.099
82118SOL    HW148193  12.748  14.025   1.051
82118SOL    HW248194  12.599  14.031   1.078
82119SOL     OW48195  14.021   6.405   3.875
82119SOL    HW148196  13.949   6.349   3.904
82119SOL    HW248197  14.097   6.374   3.924
82120SOL     OW48198   5.717  13.692   3.562
82120SOL    HW148199   5.660  13.676   3.486
82120SOL    HW248200   5.729  13.787   3.563
82121SOL     OW48201   4.389   7.056  11.685
82121SOL    HW148202   4.439   7.043  11.604
82121SOL    HW248203   4.300   7.075  11.655
82122SOL     OW48204  11.280  10.128  13.720
82122SOL    HW148205  11.333  10.092  13.649
82122SOL    HW248206  11.310  10.218  13.730
82123SOL     OW48207   1.254   7.902   8.095
82123SOL    HW148208   1.213   7.914   8.181
82123SOL    HW248209   1.281   7.990   8.069
82124SOL     OW48210  13.651  10.093   5.582
82124SOL    HW148211  13.744  10.110   5.570
82124SOL    HW248212  13.632  10.124   5.671
82125SOL     OW48213   0.895  11.570   3.082
82125SOL    HW148214   0.817  11.603   3.037
82125SOL    HW248215   0.950  11.647   3.094
82126SOL     OW48216  12.674  14.433   3.876
82126SOL    HW148217  12.692  14.482   3.795
82126SOL    HW248218  12.754  14.383   3.892
82127SOL     OW48219   7.695  12.817   7.876
82127SOL    HW148220   7.656  12.740   7.918
82127SOL    HW248221   7.636  12.889   7.898
82128SOL     OW48222   4.438   0.980   7.010
82128SOL    HW148223   4.526   1.014   7.023
82128SOL    HW248224   4.410   0.953   7.098
82129SOL     OW48225   7.984  12.947   3.726
82129SOL    HW148226   7.996  12.989   3.641
82129SOL    HW248227   7.891  12.924   3.729
82130SOL     OW48228  13.308   6.134   2.376
82130SOL    HW148229  13.317   6.196   2.449
82130SOL    HW248230  13.335   6.050   2.413
82131SOL     OW48231  12.482   3.694   1.380
82131SOL    HW148232  12.424   3.702   1.456
82131SOL    HW248233  12.535   3.616   1.398
82132SOL     OW48234   1.570   5.280   0.146
82132SOL    HW148235   1.554   5.335   0.223
82132SOL    HW248236   1.492   5.293   0.091
82133SOL     OW48237  12.499   9.165  12.297
82133SOL    HW148238  12.540   9.251  12.306
82133SOL    HW248239  12.407   9.180  12.322
82134SOL     OW48240  14.875   4.013   0.623
82134SOL    HW148241  14.856   3.935   0.676
82134SOL    HW248242  14.829   3.997   0.540
82135SOL     OW48243   6.451   3.948   1.287
82135SOL    HW148244   6.363   3.967   1.320
82135SOL    HW248245   6.459   3.853   1.291
82136SOL     OW48246  12.280   6.240  11.195
82136SOL    HW148247  12.232   6.240  11.278
82136SOL    HW248248  12.369   6.267  11.219
82137SOL     OW48249   0.671   4.783   6.213
82137SOL    HW148250   0.578   4.793   6.190
82137SOL    HW248251   0.677   4.812   6.304
82138SOL     OW48252   1.625   1.885   2.963
82138SOL    HW148253   1.586   1.948   2.903
82138SOL    HW248254   1.633   1.805   2.911
82139SOL     OW48255   9.206   6.308  11.278
82139SOL    HW148256   9.156   6.390  11.285
82139SOL    HW248257   9.190   6.264  11.361
82140SOL     OW48258   8.596   0.228   3.462
82140SOL    HW148259   8.523   0.289   3.450
82140SOL    HW248260   8.662   0.257   3.398
82141SOL     OW48261  14.138   0.912   8.745
82141SOL    HW148262  14.208   0.853   8.772
82141SOL    HW248263  14.169   0.999   8.769
82142SOL     OW48264   0.122   4.967   2.996
82142SOL    HW148265   0.206   4.921   3.002
82142SOL    HW248266   0.125   5.032   3.067
82143SOL     OW48267  14.449   1.970  12.176
82143SOL    HW148268  14.530   2.020  12.181
82143SOL    HW248269  14.391   2.011  12.241
82144SOL     OW48270  10.410   8.221   5.158
82144SOL    HW148271  10.391   8.135   5.120
82144SOL    HW248272  10.428   8.277   5.083
82145SOL     OW48273  10.414  10.371  12.932
82145SOL    HW148274  10.325  10.367  12.896
82145SOL    HW248275  10.416  10.453  12.981
82146SOL     OW48276  13.512   2.461  11.777
82146SOL    HW148277  13.602   2.482  11.802
82146SOL    HW248278  13.487   2.389  11.835
82147SOL     OW48279   5.390  10.033   9.938
82147SOL    HW148280   5.369  10.126   9.944
82147SOL    HW248281   5.405  10.018   9.845
82148SOL     OW48282  13.532  10.765   1.523
82148SOL    HW148283  13.519  10.746   1.430
82148SOL    HW248284  13.613  10.720   1.545
82149SOL     OW48285   6.604   9.647   2.651
82149SOL    HW148286   6.552   9.627   2.573
82149SOL    HW248287   6.539   9.663   2.719
82150SOL     OW48288   4.859   9.525   8.656
82150SOL    HW148289   4.894   9.562   8.575
82150SOL    HW248290   4.790   9.586   8.682
82151SOL     OW48291  12.632   8.620   7.059
82151SOL    HW148292  12.633   8.696   7.000
82151SOL    HW248293  12.703   8.637   7.121
82152SOL     OW48294   2.788   5.967   5.903
82152SOL    HW148295   2.712   5.974   5.961
82152SOL    HW248296   2.772   5.886   5.853
82153SOL     OW48297   0.486   7.371  14.295
82153SOL    HW148298   0.538   7.300  14.333
82153SOL    HW248299   0.396   7.350  14.320
82154SOL     OW48300   4.370   2.233   4.031
82154SOL    HW148301   4.326   2.262   4.111
82154SOL    HW248302   4.459   2.268   4.040
82155SOL     OW48303  11.356   4.126   3.214
82155SOL    HW148304  11.315   4.165   3.137
82155SOL    HW248305  11.450   4.129   3.196
82156SOL     OW48306   1.681   5.951   2.567
82156SOL    HW148307   1.740   5.883   2.600
82156SOL    HW248308   1.739   6.017   2.529
82157SOL     OW48309   9.588   2.111   4.025
82157SOL    HW148310   9.567   2.204   4.029
82157SOL    HW248311   9.566   2.078   4.112
82158SOL     OW48312   8.915   4.189   9.877
82158SOL    HW148313   8.874   4.145   9.951
82158SOL    HW248314   8.893   4.282   9.889
82159SOL     OW48315   1.820   1.047   3.602
82159SOL    HW148316   1.815   1.101   3.681
82159SOL    HW248317   1.728   1.030   3.579
82160SOL     OW48318   2.457  14.523  11.300
82160SOL    HW148319   2.396  14.508  11.228
82160SOL    HW248320   2.415  14.591  11.353
82161SOL     OW48321  13.303   8.769   5.362
82161SOL    HW148322  13.299   8.842   5.424
82161SOL    HW248323  13.338   8.696   5.413
82162SOL     OW48324   9.478  11.013   1.319
82162SOL    HW148325   9.547  10.992   1.382
82162SOL    HW248326   9.522  11.058   1.247
82163SOL     OW48327  13.934  14.271   5.879
82163SOL    HW148328  13.878  14.194   5.865
82163SOL    HW248329  13.929  14.319   5.797
82164SOL     OW48330   5.400   5.827   9.774
82164SOL    HW148331   5.488   5.804   9.804
82164SOL    HW248332   5.345   5.817   9.852
82165SOL     OW48333   7.196   3.364   6.459
82165SOL    HW148334   7.250   3.355   6.380
82165SOL    HW248335   7.243   3.314   6.526
82166SOL     OW48336   9.673  11.581   2.679
82166SOL    HW148337   9.687  11.495   2.720
82166SOL    HW248338   9.707  11.643   2.743
82167SOL     OW48339  14.801  14.596   2.256
82167SOL    HW148340  14.873  14.649   2.291
82167SOL    HW248341  14.820  14.588   2.163
82168SOL     OW48342   1.721  13.002   0.355
82168SOL    HW148343   1.709  12.955   0.438
82168SOL    HW248344   1.737  12.932   0.291
82169SOL     OW48345  12.957   2.923   9.778
82169SOL    HW148346  12.955   2.829   9.795
82169SOL    HW248347  12.870   2.944   9.745
82170SOL     OW48348  11.918   9.357   4.199
82170SOL    HW148349  11.830   9.375   4.230
82170SOL    HW248350  11.949   9.441   4.165
82171SOL     OW48351   3.896  14.315   8.692
82171SOL    HW148352   3.822  14.280   8.742
82171SOL    HW248353   3.973  14.272   8.731
82172SOL     OW48354   7.170   9.795   2.327
82172SOL    HW148355   7.145   9.828   2.241
82172SOL    HW248356   7.149   9.866   2.388
82173SOL     OW48357   2.893  14.266   3.514
82173SOL    HW148358   2.874  14.291   3.604
82173SOL    HW248359   2.937  14.182   3.520
82174SOL     OW48360   5.299  10.438  14.141
82174SOL    HW148361   5.324  10.403  14.226
82174SOL    HW248362   5.224  10.494  14.159
82175SOL     OW48363  10.442  13.369   3.782
82175SOL    HW148364  10.363  13.344   3.830
82175SOL    HW248365  10.417  13.364   3.690
82176SOL     OW48366  14.850  10.280   5.358
82176SOL    HW148367   0.026  10.215   5.315
82176SOL    HW248368  14.774  10.288   5.302
82177SOL     OW48369   1.854  13.523   3.663
82177SOL    HW148370   1.876  13.463   3.591
82177SOL    HW248371   1.931  13.580   3.670
82178SOL     OW48372   4.409   1.398   1.106
82178SOL    HW148373   4.391   1.435   1.192
82178SOL    HW248374   4.477   1.333   1.122
82179SOL     OW48375  12.506   5.393   5.401
82179SOL    HW148376  12.504   5.435   5.315
82179SOL    HW248377  12.474   5.304   5.384
82180SOL     OW48378  12.126   5.984   4.871
82180SOL    HW148379  12.101   5.892   4.877
82180SOL    HW248380  12.100   6.022   4.954
82181SOL     OW48381   9.977  12.665   1.050
82181SOL    HW148382   9.936  12.585   1.084
82181SOL    HW248383   9.946  12.734   1.109
82182SOL     OW48384  14.388  10.398   4.117
82182SOL    HW148385  14.327  10.422   4.048
82182SOL    HW248386  14.448  10.336   4.076
82183SOL     OW48387   0.265  11.560   6.193
82183SOL    HW148388   0.222  11.496   6.136
82183SOL    HW248389   0.349  11.577   6.152
82184SOL     OW48390   1.665   8.614  13.843
82184SOL    HW148391   1.676   8.636  13.750
82184SOL    HW248392   1.745   8.647  13.885
82185SOL     OW48393  10.419  10.799   3.925
82185SOL    HW148394  10.374  10.865   3.872
82185SOL    HW248395  10.407  10.717   3.876
82186SOL     OW48396   9.899   2.242   3.303
82186SOL    HW148397   9.869   2.327   3.335
82186SOL    HW248398   9.994   2.243   3.316
82187SOL     OW48399   2.351   2.902   9.249
82187SOL    HW148400   2.331   2.935   9.161
82187SOL    HW248401   2.373   2.980   9.299
82188SOL     OW48402  11.234  10.507   9.556
82188SOL    HW148403  11.264  10.434   9.611
82188SOL    HW248404  11.140  10.491   9.544
82189SOL     OW48405   1.321   4.834   6.538
82189SOL    HW148406   1.342   4.764   6.476
82189SOL    HW248407   1.257   4.794   6.597
82190SOL     OW48408   9.348  13.948   7.010
82190SOL    HW148409   9.373  14.013   7.076
82190SOL    HW248410   9.253  13.944   7.015
82191SOL     OW48411  11.601   5.231   2.036
82191SOL    HW148412  11.554   5.264   2.114
82191SOL    HW248413  11.563   5.145   2.021
82192SOL     OW48414   2.989   7.258   2.027
82192SOL    HW148415   3.001   7.164   2.037
82192SOL    HW248416   2.916   7.280   2.085
82193SOL     OW48417  14.484   3.420   1.939
82193SOL    HW148418  14.520   3.494   1.889
82193SOL    HW248419  14.451   3.360   1.872
82194SOL     OW48420   0.466  12.675  13.232
82194SOL    HW148421   0.543  12.677  13.175
82194SOL    HW248422   0.492  12.727  13.308
82195SOL     OW48423   2.206   5.896   6.348
82195SOL    HW148424   2.164   5.911   6.263
82195SOL    HW248425   2.296   5.871   6.326
82196SOL     OW48426   8.472   0.619  12.237
82196SOL    HW148427   8.481   0.715  12.236
82196SOL    HW248428   8.459   0.595  12.145
82197SOL     OW48429  12.908   2.792   3.642
82197SOL    HW148430  12.903   2.810   3.549
82197SOL    HW248431  12.986   2.837   3.672
82198SOL     OW48432  10.148   4.948   7.719
82198SOL    HW148433  10.146   4.929   7.625
82198SOL    HW248434  10.061   4.982   7.739
82199SOL     OW48435   8.165   2.550  13.053
82199SOL    HW148436   8.202   2.545  12.965
82199SOL    HW248437   8.070   2.542  13.039
82200SOL     OW48438   6.799   8.279  10.292
82200SOL    HW148439   6.875   8.272  10.349
82200SOL    HW248440   6.810   8.363  10.248
82201SOL     OW48441   3.170  10.375  11.293
82201SOL    HW148442   3.242  10.314  11.308
82201SOL    HW248443   3.213  10.458  11.272
82202SOL     OW48444   2.905   3.693  13.341
82202SOL    HW148445   2.937   3.607  13.366
82202SOL    HW248446   2.980   3.751  13.350
82203SOL     OW48447   5.287   6.019  14.392
82203SOL    HW148448   5.309   6.028  14.485
82203SOL    HW248449   5.297   6.108  14.357
82204SOL     OW48450  12.779  10.227  13.100
82204SOL    HW148451  12.736  10.312  13.104
82204SOL    HW248452  12.854  10.240  13.043
82205SOL     OW48453   0.095   3.252   2.186
82205SOL    HW148454   0.051   3.313   2.126
82205SOL    HW248455   0.172   3.299   2.216
82206SOL     OW48456  14.076  12.056   8.475
82206SOL    HW148457  14.091  11.973   8.519
82206SOL    HW248458  14.003  12.095   8.523
82207SOL     OW48459  10.260   3.705   5.566
82207SOL    HW148460  10.229   3.774   5.625
82207SOL    HW248461  10.309   3.645   5.622
82208SOL     OW48462   4.196  13.429  12.518
82208SOL    HW148463   4.162  13.457  12.433
82208SOL    HW248464   4.119  13.423  12.574
82209SOL     OW48465   3.828  13.167  13.360
82209SOL    HW148466   3.794  13.131  13.278
82209SOL    HW248467   3.752  13.207  13.401
82210SOL     OW48468   0.022   5.266   2.089
82210SOL    HW148469   0.095   5.327   2.084
82210SOL    HW248470  14.839   5.310   2.147
82211SOL     OW48471  10.768  11.793   7.154
82211SOL    HW148472  10.710  11.793   7.078
82211SOL    HW248473  10.811  11.878   7.152
82212SOL     OW48474  10.340   4.613  13.726
82212SOL    HW148475  10.359   4.630  13.818
82212SOL    HW248476  10.384   4.529  13.708
82213SOL     OW48477   0.326  12.251   0.930
82213SOL    HW148478   0.273  12.172   0.921
82213SOL    HW248479   0.370  12.241   1.015
82214SOL     OW48480   3.776   3.869   6.600
82214SOL    HW148481   3.681   3.855   6.602
82214SOL    HW248482   3.813   3.781   6.610
82215SOL     OW48483   4.425   6.200   5.897
82215SOL    HW148484   4.447   6.216   5.805
82215SOL    HW248485   4.334   6.171   5.895
82216SOL     OW48486  14.629   8.437  11.856
82216SOL    HW148487  14.723   8.434  11.873
82216SOL    HW248488  14.615   8.372  11.788
82217SOL     OW48489   1.850  11.916   0.070
82217SOL    HW148490   1.878  11.913   0.162
82217SOL    HW248491   1.755  11.925   0.075
82218SOL     OW48492   5.440   8.752   1.064
82218SOL    HW148493   5.524   8.753   1.111
82218SOL    HW248494   5.398   8.671   1.093
82219SOL     OW48495   2.007   3.039  12.969
82219SOL    HW148496   2.063   3.007  13.040
82219SOL    HW248497   2.000   2.965  12.909
82220SOL     OW48498   4.591   9.919  10.443
82220SOL    HW148499   4.685   9.934  10.432
82220SOL    HW248500   4.585   9.855  10.514
82221SOL     OW48501   7.871  12.003   5.591
82221SOL    HW148502   7.857  12.098   5.584
82221SOL    HW248503   7.894  11.976   5.501
82222SOL     OW48504   1.086   8.456  12.401
82222SOL    HW148505   1.133   8.456  12.485
82222SOL    HW248506   1.051   8.367  12.394
82223SOL     OW48507   5.791   0.645   9.098
82223SOL    HW148508   5.702   0.610   9.110
82223SOL    HW248509   5.838   0.574   9.053
82224SOL     OW48510   7.699  14.079   7.328
82224SOL    HW148511   7.726  14.028   7.252
82224SOL    HW248512   7.632  14.138   7.295
82225SOL     OW48513   8.344   4.769   0.670
82225SOL    HW148514   8.404   4.806   0.606
82225SOL    HW248515   8.291   4.706   0.621
82226SOL     OW48516  12.608   3.611   7.291
82226SOL    HW148517  12.584   3.696   7.255
82226SOL    HW248518  12.550   3.600   7.366
82227SOL     OW48519   0.567   9.395   6.161
82227SOL    HW148520   0.632   9.394   6.091
82227SOL    HW248521   0.507   9.466   6.137
82228SOL     OW48522   4.733   4.446   1.714
82228SOL    HW148523   4.735   4.501   1.793
82228SOL    HW248524   4.821   4.409   1.709
82229SOL     OW48525  10.671  13.704   1.560
82229SOL    HW148526  10.647  13.780   1.508
82229SOL    HW248527  10.608  13.636   1.535
82230SOL     OW48528  13.008  10.795  14.418
82230SOL    HW148529  13.034  10.885  14.436
82230SOL    HW248530  12.995  10.793  14.323
82231SOL     OW48531  10.145   6.176   9.999
82231SOL    HW148532  10.173   6.257   9.956
82231SOL    HW248533  10.168   6.107   9.936
82232SOL     OW48534   0.217  14.546   7.569
82232SOL    HW148535   0.209  14.627   7.618
82232SOL    HW248536   0.299  14.507   7.598
82233SOL     OW48537   0.256   7.232  12.806
82233SOL    HW148538   0.188   7.234  12.874
82233SOL    HW248539   0.213   7.267  12.728
82234SOL     OW48540   3.035   8.469  12.879
82234SOL    HW148541   2.953   8.519  12.877
82234SOL    HW248542   3.007   8.380  12.899
82235SOL     OW48543   3.341  11.432   8.760
82235SOL    HW148544   3.384  11.375   8.696
82235SOL    HW248545   3.379  11.406   8.844
82236SOL     OW48546   5.403   9.690   5.681
82236SOL    HW148547   5.389   9.761   5.744
82236SOL    HW248548   5.498   9.684   5.674
82237SOL     OW48549  14.143  13.747  11.253
82237SOL    HW148550  14.081  13.799  11.304
82237SOL    HW248551  14.147  13.663  11.298
82238SOL     OW48552  13.148   1.160  13.474
82238SOL    HW148553  13.184   1.177  13.561
82238SOL    HW248554  13.190   1.224  13.417
82239SOL     OW48555   6.766  11.153   7.464
82239SOL    HW148556   6.724  11.170   7.549
82239SOL    HW248557   6.761  11.237   7.418
82240SOL     OW48558   8.686   2.592   5.639
82240SOL    HW148559   8.661   2.662   5.579
82240SOL    HW248560   8.752   2.631   5.696
82241SOL     OW48561  14.025   5.549  12.646
82241SOL    HW148562  14.107   5.504  12.669
82241SOL    HW248563  13.956   5.495  12.684
82242SOL     OW48564  13.134   1.671  11.732
82242SOL    HW148565  13.043   1.664  11.762
82242SOL    HW248566  13.127   1.695  11.639
82243SOL     OW48567  13.991   0.801  11.810
82243SOL    HW148568  13.948   0.787  11.726
82243SOL    HW248569  13.978   0.719  11.858
82244SOL     OW48570   5.378  13.620   5.379
82244SOL    HW148571   5.355  13.702   5.335
82244SOL    HW248572   5.357  13.635   5.471
82245SOL     OW48573  12.912  11.823  10.877
82245SOL    HW148574  12.930  11.809  10.970
82245SOL    HW248575  12.981  11.774  10.832
82246SOL     OW48576   1.799  11.869  13.884
82246SOL    HW148577   1.874  11.844  13.937
82246SOL    HW248578   1.835  11.883  13.796
82247SOL     OW48579  10.077   0.612   7.162
82247SOL    HW148580  10.161   0.578   7.130
82247SOL    HW248581  10.073   0.701   7.129
82248SOL     OW48582   4.934   3.733  13.297
82248SOL    HW148583   4.943   3.691  13.383
82248SOL    HW248584   4.956   3.664  13.234
82249SOL     OW48585   9.270   9.113  11.605
82249SOL    HW148586   9.205   9.057  11.562
82249SOL    HW248587   9.221   9.191  11.630
82250SOL     OW48588   1.188   8.632   9.472
82250SOL    HW148589   1.111   8.579   9.452
82250SOL    HW248590   1.259   8.569   9.482
82251SOL     OW48591  12.302   3.979   1.561
82251SOL    HW148592  12.213   4.005   1.585
82251SOL    HW248593  12.353   4.059   1.568
82252SOL     OW48594   6.819   2.278   2.568
82252SOL    HW148595   6.766   2.327   2.505
82252SOL    HW248596   6.756   2.248   2.634
82253SOL     OW48597  10.498  11.349  10.338
82253SOL    HW148598  10.468  11.292  10.408
82253SOL    HW248599  10.572  11.303  10.298
82254SOL     OW48600   7.060   3.186   3.061
82254SOL    HW148601   7.037   3.094   3.072
82254SOL    HW248602   7.154   3.186   3.043
82255SOL     OW48603   3.039  12.596  14.530
82255SOL    HW148604   2.999  12.517  14.495
82255SOL    HW248605   2.968  12.660  14.531
82256SOL     OW48606   1.922   7.538   7.516
82256SOL    HW148607   2.015   7.528   7.497
82256SOL    HW248608   1.879   7.522   7.432
82257SOL     OW48609   8.966   5.256   0.951
82257SOL    HW148610   8.949   5.257   0.856
82257SOL    HW248611   8.945   5.345   0.980
82258SOL     OW48612   8.282  12.318  14.130
82258SOL    HW148613   8.342  12.275  14.190
82258SOL    HW248614   8.307  12.285  14.043
82259SOL     OW48615   7.644  11.439   3.915
82259SOL    HW148616   7.715  11.376   3.904
82259SOL    HW248617   7.578  11.412   3.851
82260SOL     OW48618  14.277   2.015   6.120
82260SOL    HW148619  14.261   2.062   6.038
82260SOL    HW248620  14.194   1.971   6.139
82261SOL     OW48621   6.127   2.325   8.063
82261SOL    HW148622   6.114   2.348   7.971
82261SOL    HW248623   6.132   2.409   8.108
82262SOL     OW48624   9.245   3.885   6.158
82262SOL    HW148625   9.204   3.835   6.229
82262SOL    HW248626   9.189   3.961   6.147
82263SOL     OW48627   2.606   8.500  12.692
82263SOL    HW148628   2.511   8.485  12.694
82263SOL    HW248629   2.628   8.523  12.782
82264SOL     OW48630   7.344   2.549   0.325
82264SOL    HW148631   7.284   2.479   0.299
82264SOL    HW248632   7.294   2.604   0.385
82265SOL     OW48633   1.613   6.064   1.527
82265SOL    HW148634   1.566   6.002   1.581
82265SOL    HW248635   1.686   6.094   1.582
82266SOL     OW48636   1.593  10.302   0.998
82266SOL    HW148637   1.504  10.267   1.000
82266SOL    HW248638   1.590  10.372   0.932
82267SOL     OW48639   0.785  14.730  14.682
82267SOL    HW148640   0.819  14.648  14.646
82267SOL    HW248641   0.737  14.770  14.610
82268SOL     OW48642  13.209   2.162   4.062
82268SOL    HW148643  13.124   2.168   4.106
82268SOL    HW248644  13.266   2.120   4.126
82269SOL     OW48645   8.211   5.469  13.953
82269SOL    HW148646   8.158   5.398  13.916
82269SOL    HW248647   8.222   5.447  14.045
82270SOL     OW48648  12.660  12.970   5.609
82270SOL    HW148649  12.629  13.036   5.547
82270SOL    HW248650  12.580  12.927   5.640
82271SOL     OW48651   6.562  11.671  13.874
82271SOL    HW148652   6.611  11.619  13.937
82271SOL    HW248653   6.496  11.611  13.839
82272SOL     OW48654   1.248   0.478   6.187
82272SOL    HW148655   1.324   0.435   6.147
82272SOL    HW248656   1.221   0.419   6.257
82273SOL     OW48657  11.155  12.163   5.540
82273SOL    HW148658  11.062  12.185   5.538
82273SOL    HW248659  11.179  12.169   5.632
82274SOL     OW48660   2.960   7.870  11.067
82274SOL    HW148661   3.006   7.861  10.983
82274SOL    HW248662   3.029   7.890  11.130
82275SOL     OW48663   4.640   6.943  13.258
82275SOL    HW148664   4.653   7.011  13.325
82275SOL    HW248665   4.545   6.938  13.248
82276SOL     OW48666  14.522  12.449   9.989
82276SOL    HW148667  14.486  12.423   9.905
82276SOL    HW248668  14.593  12.510   9.967
82277SOL     OW48669  12.440  14.143   3.440
82277SOL    HW148670  12.528  14.168   3.412
82277SOL    HW248671  12.454  14.090   3.518
82278SOL     OW48672   9.277  13.693   9.360
82278SOL    HW148673   9.373  13.698   9.357
82278SOL    HW248674   9.250  13.694   9.269
82279SOL     OW48675   0.433   2.698  14.338
82279SOL    HW148676   0.344   2.662  14.334
82279SOL    HW248677   0.471   2.659  14.417
82280SOL     OW48678  13.080  13.450   5.817
82280SOL    HW148679  13.125  13.535   5.818
82280SOL    HW248680  13.010  13.460   5.881
82281SOL     OW48681   0.054   9.211  13.012
82281SOL    HW148682   0.057   9.298  12.972
82281SOL    HW248683  14.877   9.160  12.954
82282SOL     OW48684  11.812  10.723   3.644
82282SOL    HW148685  11.832  10.657   3.710
82282SOL    HW248686  11.795  10.673   3.564
82283SOL     OW48687   7.514   3.008  10.738
82283SOL    HW148688   7.606   2.990  10.716
82283SOL    HW248689   7.494   2.948  10.810
82284SOL     OW48690  11.950   6.027  10.874
82284SOL    HW148691  11.963   5.940  10.836
82284SOL    HW248692  11.938   6.084  10.798
82285SOL     OW48693   2.562   8.530   2.174
82285SOL    HW148694   2.637   8.589   2.171
82285SOL    HW248695   2.576   8.470   2.101
82286SOL     OW48696  12.100   2.586   5.636
82286SOL    HW148697  12.147   2.510   5.671
82286SOL    HW248698  12.160   2.659   5.649
82287SOL     OW48699   1.019   7.782   9.397
82287SOL    HW148700   1.004   7.695   9.435
82287SOL    HW248701   0.977   7.778   9.311
82288SOL     OW48702   6.587   9.225   4.063
82288SOL    HW148703   6.681   9.210   4.078
82288SOL    HW248704   6.544   9.163   4.122
82289SOL     OW48705  13.576   8.050   5.428
82289SOL    HW148706  13.612   8.038   5.340
82289SOL    HW248707  13.578   8.145   5.442
82290SOL     OW48708   5.549   7.470   0.910
82290SOL    HW148709   5.489   7.528   0.865
82290SOL    HW248710   5.503   7.444   0.990
82291SOL     OW48711   6.673  10.992   0.239
82291SOL    HW148712   6.658  11.025   0.151
82291SOL    HW248713   6.764  11.013   0.258
82292SOL     OW48714  11.364  12.606   2.201
82292SOL    HW148715  11.430  12.639   2.141
82292SOL    HW248716  11.283  12.650   2.175
82293SOL     OW48717   0.537  13.679   8.004
82293SOL    HW148718   0.447  13.645   8.000
82293SOL    HW248719   0.592  13.601   8.010
82294SOL     OW48720   7.046  14.735   3.428
82294SOL    HW148721   7.034  14.783   3.510
82294SOL    HW248722   7.116  14.672   3.447
82295SOL     OW48723   9.106  10.368   8.386
82295SOL    HW148724   9.069  10.443   8.338
82295SOL    HW248725   9.060  10.292   8.350
82296SOL     OW48726  10.460   4.048   4.848
82296SOL    HW148727  10.389   3.987   4.869
82296SOL    HW248728  10.449   4.064   4.754
82297SOL     OW48729   5.623   2.288   0.184
82297SOL    HW148730   5.700   2.249   0.225
82297SOL    HW248731   5.560   2.217   0.178
82298SOL     OW48732  14.374   2.805  13.259
82298SOL    HW148733  14.455   2.807  13.208
82298SOL    HW248734  14.404   2.804  13.350
82299SOL     OW48735   5.740   3.241  12.472
82299SOL    HW148736   5.691   3.169  12.433
82299SOL    HW248737   5.685   3.270  12.545
82300SOL     OW48738   5.359  11.349   8.275
82300SOL    HW148739   5.355  11.401   8.195
82300SOL    HW248740   5.431  11.386   8.325
82301SOL     OW48741   5.181  13.472  12.334
82301SOL    HW148742   5.269  13.446  12.361
82301SOL    HW248743   5.138  13.390  12.310
82302SOL     OW48744  12.167   7.957   7.603
82302SOL    HW148745  12.075   7.973   7.622
82302SOL    HW248746  12.202   7.922   7.685
82303SOL     OW48747   4.439   9.022   3.540
82303SOL    HW148748   4.527   8.995   3.514
82303SOL    HW248749   4.382   8.952   3.510
82304SOL     OW48750   0.061   4.665   9.054
82304SOL    HW148751   0.070   4.692   9.145
82304SOL    HW248752   0.063   4.570   9.057
82305SOL     OW48753   3.967   6.671   6.942
82305SOL    HW148754   3.898   6.672   6.875
82305SOL    HW248755   4.040   6.625   6.901
82306SOL     OW48756  12.766   2.094  10.943
82306SOL    HW148757  12.756   2.172  10.888
82306SOL    HW248758  12.713   2.027  10.900
82307SOL     OW48759   6.742   2.542  13.038
82307SOL    HW148760   6.781   2.580  13.116
82307SOL    HW248761   6.764   2.449  13.043
82308SOL     OW48762   3.036   0.702  10.733
82308SOL    HW148763   3.038   0.728  10.825
82308SOL    HW248764   3.127   0.704  10.705
82309SOL     OW48765   0.245  13.479   0.034
82309SOL    HW148766   0.169  13.534   0.053
82309SOL    HW248767   0.291  13.472   0.118
82310SOL     OW48768   8.305   2.664   5.707
82310SOL    HW148769   8.343   2.751   5.723
82310SOL    HW248770   8.283   2.631   5.794
82311SOL     OW48771   4.396   9.915   2.325
82311SOL    HW148772   4.379   9.965   2.245
82311SOL    HW248773   4.453   9.844   2.298
82312SOL     OW48774   3.512   4.822   4.486
82312SOL    HW148775   3.565   4.833   4.565
82312SOL    HW248776   3.554   4.751   4.438
82313SOL     OW48777  12.926   1.393  13.905
82313SOL    HW148778  12.902   1.409  13.996
82313SOL    HW248779  12.923   1.479  13.864
82314SOL     OW48780   0.940  10.710   2.929
82314SOL    HW148781   0.986  10.784   2.969
82314SOL    HW248782   0.853  10.711   2.969
82315SOL     OW48783  11.982   3.367   0.327
82315SOL    HW148784  11.964   3.277   0.302
82315SOL    HW248785  11.952   3.374   0.418
82316SOL     OW48786   7.536   0.193   7.205
82316SOL    HW148787   7.454   0.178   7.159
82316SOL    HW248788   7.546   0.116   7.262
82317SOL     OW48789  10.866   9.684   7.490
82317SOL    HW148790  10.808   9.703   7.563
82317SOL    HW248791  10.822   9.613   7.442
82318SOL     OW48792   8.838   6.502  12.661
82318SOL    HW148793   8.828   6.459  12.746
82318SOL    HW248794   8.749   6.520  12.632
82319SOL     OW48795   8.807   2.438  12.110
82319SOL    HW148796   8.810   2.349  12.146
82319SOL    HW248797   8.875   2.439  12.043
82320SOL     OW48798   4.384   3.809   0.728
82320SOL    HW148799   4.428   3.724   0.717
82320SOL    HW248800   4.291   3.789   0.721
82321SOL     OW48801  13.871   1.726  11.277
82321SOL    HW148802  13.936   1.667  11.239
82321SOL    HW248803  13.794   1.717  11.222
82322SOL     OW48804   3.036   6.542   0.177
82322SOL    HW148805   3.027   6.478   0.247
82322SOL    HW248806   2.959   6.599   0.185
82323SOL     OW48807  11.625  13.546   7.530
82323SOL    HW148808  11.550  13.533   7.472
82323SOL    HW248809  11.668  13.460   7.532
82324SOL     OW48810  10.454  11.194  12.076
82324SOL    HW148811  10.495  11.118  12.117
82324SOL    HW248812  10.519  11.226  12.014
82325SOL     OW48813   3.836  11.459  12.272
82325SOL    HW148814   3.749  11.428  12.297
82325SOL    HW248815   3.823  11.547  12.239
82326SOL     OW48816   9.976   6.920  10.267
82326SOL    HW148817   9.906   6.898  10.205
82326SOL    HW248818   9.944   6.889  10.352
82327SOL     OW48819   9.981  11.462  11.217
82327SOL    HW148820   9.949  11.394  11.158
82327SOL    HW248821   9.926  11.538  11.198
82328SOL     OW48822  10.089  10.097   1.945
82328SOL    HW148823  10.072  10.126   2.035
82328SOL    HW248824  10.127  10.010   1.954
82329SOL     OW48825   3.319   6.214  13.438
82329SOL    HW148826   3.261   6.152  13.482
82329SOL    HW248827   3.360   6.263  13.509
82330SOL     OW48828   4.916  11.146   3.451
82330SOL    HW148829   4.996  11.136   3.503
82330SOL    HW248830   4.865  11.212   3.497
82331SOL     OW48831   1.009  12.585   1.708
82331SOL    HW148832   1.083  12.548   1.757
82331SOL    HW248833   0.933  12.534   1.738
82332SOL     OW48834   5.134   9.092   3.126
82332SOL    HW148835   5.158   9.116   3.036
82332SOL    HW248836   5.084   9.011   3.117
82333SOL     OW48837   4.376   9.195   6.012
82333SOL    HW148838   4.385   9.291   6.017
82333SOL    HW248839   4.381   9.167   6.104
82334SOL     OW48840  11.518  11.782  10.831
82334SOL    HW148841  11.473  11.865  10.846
82334SOL    HW248842  11.597  11.806  10.782
82335SOL     OW48843   9.660   3.030  12.292
82335SOL    HW148844   9.712   3.100  12.334
82335SOL    HW248845   9.601   3.077  12.233
82336SOL     OW48846   3.960   9.222  13.863
82336SOL    HW148847   4.011   9.216  13.782
82336SOL    HW248848   3.979   9.309  13.897
82337SOL     OW48849   1.658   4.818  14.352
82337SOL    HW148850   1.627   4.761  14.282
82337SOL    HW248851   1.588   4.814  14.418
82338SOL     OW48852  14.782   7.402   5.631
82338SOL    HW148853  14.702   7.407   5.683
82338SOL    HW248854  14.797   7.308   5.619
82339SOL     OW48855   3.286   5.043  14.201
82339SOL    HW148856   3.349   5.081  14.262
82339SOL    HW248857   3.210   5.101  14.205
82340SOL     OW48858  14.030   9.327   1.255
82340SOL    HW148859  14.107   9.329   1.312
82340SOL    HW248860  14.059   9.278   1.178
82341SOL     OW48861   9.093   9.840   8.085
82341SOL    HW148862   9.041   9.917   8.062
82341SOL    HW248863   9.162   9.875   8.143
82342SOL     OW48864   9.899   2.423  11.486
82342SOL    HW148865   9.823   2.402  11.431
82342SOL    HW248866   9.897   2.519  11.492
82343SOL     OW48867   7.211   8.033   7.739
82343SOL    HW148868   7.127   8.059   7.700
82343SOL    HW248869   7.259   7.991   7.668
82344SOL     OW48870   6.418   8.574  12.782
82344SOL    HW148871   6.422   8.483  12.810
82344SOL    HW248872   6.329   8.602  12.801
82345SOL     OW48873  12.931   4.174  14.785
82345SOL    HW148874  12.983   4.097  14.765
82345SOL    HW248875  12.986   4.226  14.843
82346SOL     OW48876  14.549  10.976  13.447
82346SOL    HW148877  14.573  11.023  13.526
82346SOL    HW248878  14.560  10.884  13.468
82347SOL     OW48879  12.162  11.712  13.836
82347SOL    HW148880  12.164  11.804  13.860
82347SOL    HW248881  12.072  11.697  13.805
82348SOL     OW48882   1.615  10.586  13.051
82348SOL    HW148883   1.574  10.534  13.121
82348SOL    HW248884   1.664  10.654  13.098
82349SOL     OW48885  10.798   0.929   2.649
82349SOL    HW148886  10.754   0.868   2.590
82349SOL    HW248887  10.871   0.964   2.598
82350SOL     OW48888   4.333   7.523   9.554
82350SOL    HW148889   4.404   7.585   9.567
82350SOL    HW248890   4.354   7.449   9.612
82351SOL     OW48891  14.279   6.227  13.850
82351SOL    HW148892  14.347   6.216  13.783
82351SOL    HW248893  14.328   6.248  13.930
82352SOL     OW48894  14.644   9.966   6.934
82352SOL    HW148895  14.650   9.874   6.958
82352SOL    HW248896  14.703   9.976   6.859
82353SOL     OW48897  14.671  10.555  13.722
82353SOL    HW148898  14.714  10.551  13.637
82353SOL    HW248899  14.720  10.496  13.778
82354SOL     OW48900   2.880   5.379  13.651
82354SOL    HW148901   2.788   5.390  13.676
82354SOL    HW248902   2.876   5.327  13.570
82355SOL     OW48903  10.261  14.126   1.479
82355SOL    HW148904  10.279  14.107   1.571
82355SOL    HW248905  10.181  14.077   1.460
82356SOL     OW48906  10.266   6.183   1.944
82356SOL    HW148907  10.223   6.157   2.025
82356SOL    HW248908  10.229   6.269   1.923
82357SOL     OW48909   7.623   4.725  10.223
82357SOL    HW148910   7.588   4.731  10.134
82357SOL    HW248911   7.617   4.814  10.257
82358SOL     OW48912   3.387  14.797   5.029
82358SOL    HW148913   3.444  14.741   4.977
82358SOL    HW248914   3.327  14.737   5.074
82359SOL     OW48915   2.117  13.643  11.105
82359SOL    HW148916   2.118  13.663  11.198
82359SOL    HW248917   2.205  13.667  11.074
82360SOL     OW48918   5.215   5.542  11.201
82360SOL    HW148919   5.169   5.459  11.204
82360SOL    HW248920   5.303   5.522  11.233
82361SOL     OW48921   6.549   7.097   2.474
82361SOL    HW148922   6.490   7.172   2.481
82361SOL    HW248923   6.637   7.135   2.472
82362SOL     OW48924   8.244   3.075   4.300
82362SOL    HW148925   8.153   3.071   4.270
82362SOL    HW248926   8.243   3.143   4.368
82363SOL     OW48927   4.853   0.533   1.702
82363SOL    HW148928   4.793   0.607   1.712
82363SOL    HW248929   4.855   0.492   1.788
82364SOL     OW48930   4.551   6.667   3.799
82364SOL    HW148931   4.527   6.593   3.743
82364SOL    HW248932   4.579   6.735   3.737
82365SOL     OW48933   5.116   1.146   2.227
82365SOL    HW148934   5.062   1.225   2.235
82365SOL    HW248935   5.061   1.085   2.178
82366SOL     OW48936   2.626  10.353   6.192
82366SOL    HW148937   2.657  10.300   6.118
82366SOL    HW248938   2.538  10.380   6.166
82367SOL     OW48939   6.710  10.660   1.589
82367SOL    HW148940   6.746  10.639   1.503
82367SOL    HW248941   6.783  10.651   1.650
82368SOL     OW48942   4.547   7.763   5.203
82368SOL    HW148943   4.506   7.808   5.278
82368SOL    HW248944   4.474   7.718   5.160
82369SOL     OW48945  10.197   6.349   3.672
82369SOL    HW148946  10.214   6.265   3.630
82369SOL    HW248947  10.148   6.327   3.751
82370SOL     OW48948   5.461   7.685   1.292
82370SOL    HW148949   5.529   7.618   1.295
82370SOL    HW248950   5.470   7.731   1.376
82371SOL     OW48951   3.083   9.054   1.511
82371SOL    HW148952   3.166   9.011   1.533
82371SOL    HW248953   3.016   8.989   1.532
82372SOL     OW48954  11.386   8.814  10.460
82372SOL    HW148955  11.292   8.828  10.447
82372SOL    HW248956  11.415   8.891  10.509
82373SOL     OW48957   0.371   5.203   7.821
82373SOL    HW148958   0.424   5.190   7.742
82373SOL    HW248959   0.335   5.117   7.839
82374SOL     OW48960   9.349   8.448   2.186
82374SOL    HW148961   9.330   8.542   2.186
82374SOL    HW248962   9.275   8.409   2.139
82375SOL     OW48963   6.515  10.902  12.151
82375SOL    HW148964   6.420  10.911  12.153
82375SOL    HW248965   6.545  10.949  12.229
82376SOL     OW48966  14.641   7.238  12.846
82376SOL    HW148967  14.552   7.216  12.819
82376SOL    HW248968  14.682   7.154  12.867
82377SOL     OW48969   3.301   3.305   5.147
82377SOL    HW148970   3.294   3.213   5.173
82377SOL    HW248971   3.377   3.338   5.196
82378SOL     OW48972   9.035   8.846  12.828
82378SOL    HW148973   9.115   8.812  12.788
82378SOL    HW248974   9.020   8.929  12.783
82379SOL     OW48975  10.104  14.680   9.329
82379SOL    HW148976  10.149  14.659   9.247
82379SOL    HW248977  10.173  14.708   9.388
82380SOL     OW48978   8.174  13.017   4.894
82380SOL    HW148979   8.185  12.989   4.985
82380SOL    HW248980   8.253  13.068   4.876
82381SOL     OW48981   7.477   7.484   0.966
82381SOL    HW148982   7.549   7.422   0.973
82381SOL    HW248983   7.465   7.496   0.872
82382SOL     OW48984  10.677   6.335   9.439
82382SOL    HW148985  10.747   6.367   9.382
82382SOL    HW248986  10.598   6.378   9.407
82383SOL     OW48987   4.052  12.403   1.573
82383SOL    HW148988   4.002  12.484   1.561
82383SOL    HW248989   4.096  12.414   1.657
82384SOL     OW48990  13.223   0.999   9.709
82384SOL    HW148991  13.289   1.050   9.756
82384SOL    HW248992  13.272   0.927   9.670
82385SOL     OW48993   8.096  11.978  12.825
82385SOL    HW148994   8.069  11.889  12.849
82385SOL    HW248995   8.092  12.027  12.907
82386SOL     OW48996   6.927   9.211  10.611
82386SOL    HW148997   6.939   9.306  10.607
82386SOL    HW248998   6.863   9.198  10.681
82387SOL     OW48999  13.940  10.593   0.725
82387SOL    HW149000  13.900  10.515   0.763
82387SOL    HW249001  13.879  10.621   0.657
82388SOL     OW49002  10.889   5.109   7.345
82388SOL    HW149003  10.802   5.078   7.369
82388SOL    HW249004  10.898   5.192   7.392
82389SOL     OW49005   1.469   4.855   3.622
82389SOL    HW149006   1.419   4.933   3.648
82389SOL    HW249007   1.555   4.888   3.596
82390SOL     OW49008   0.538   7.159   0.683
82390SOL    HW149009   0.607   7.182   0.746
82390SOL    HW249010   0.479   7.235   0.684
82391SOL     OW49011   4.632  10.844   9.134
82391SOL    HW149012   4.633  10.928   9.088
82391SOL    HW249013   4.643  10.867   9.226
82392SOL     OW49014  14.632   3.810  10.420
82392SOL    HW149015  14.580   3.730  10.416
82392SOL    HW249016  14.567   3.880  10.434
82393SOL     OW49017   6.286   4.532   2.162
82393SOL    HW149018   6.277   4.535   2.067
82393SOL    HW249019   6.205   4.491   2.193
82394SOL     OW49020   0.741   5.683  13.255
82394SOL    HW149021   0.676   5.629  13.210
82394SOL    HW249022   0.718   5.773  13.230
82395SOL     OW49023   5.165   0.358   9.522
82395SOL    HW149024   5.128   0.273   9.541
82395SOL    HW249025   5.090   0.418   9.521
82396SOL     OW49026   7.197   6.156   4.009
82396SOL    HW149027   7.177   6.100   4.084
82396SOL    HW249028   7.241   6.098   3.947
82397SOL     OW49029   4.531  11.478   0.968
82397SOL    HW149030   4.561  11.414   1.033
82397SOL    HW249031   4.436  11.479   0.976
82398SOL     OW49032   8.999   5.859   4.542
82398SOL    HW149033   8.995   5.778   4.491
82398SOL    HW249034   8.908   5.883   4.557
82399SOL     OW49035   1.150   5.459  13.753
82399SOL    HW149036   1.082   5.442  13.687
82399SOL    HW249037   1.225   5.491  13.703
82400SOL     OW49038   1.806  10.991   1.362
82400SOL    HW149039   1.787  10.997   1.456
82400SOL    HW249040   1.771  10.906   1.336
82401SOL     OW49041  13.615   6.790   5.326
82401SOL    HW149042  13.672   6.714   5.333
82401SOL    HW249043  13.559   6.772   5.250
82402SOL     OW49044   0.278   4.772   6.366
82402SOL    HW149045   0.192   4.810   6.388
82402SOL    HW249046   0.278   4.688   6.412
82403SOL     OW49047   5.518  14.551   0.821
82403SOL    HW149048   5.512  14.638   0.860
82403SOL    HW249049   5.507  14.566   0.727
82404SOL     OW49050   7.741   0.615   8.269
82404SOL    HW149051   7.791   0.637   8.191
82404SOL    HW249052   7.652   0.597   8.238
82405SOL     OW49053  13.652  14.347   4.761
82405SOL    HW149054  13.631  14.436   4.730
82405SOL    HW249055  13.734  14.357   4.809
82406SOL     OW49056   4.807   1.427   1.243
82406SOL    HW149057   4.768   1.513   1.232
82406SOL    HW249058   4.753   1.369   1.189
82407SOL     OW49059  11.503   4.644  14.267
82407SOL    HW149060  11.442   4.625  14.196
82407SOL    HW249061  11.541   4.729  14.244
82408SOL     OW49062  12.423   5.175   0.022
82408SOL    HW149063  12.475   5.149   0.098
82408SOL    HW249064  12.394   5.264   0.042
82409SOL     OW49065   9.657  12.819   8.682
82409SOL    HW149066   9.692  12.865   8.759
82409SOL    HW249067   9.568  12.852   8.673
82410SOL     OW49068  12.111  11.299  12.709
82410SOL    HW149069  12.125  11.205  12.721
82410SOL    HW249070  12.163  11.340  12.778
82411SOL     OW49071   6.239   9.728  12.454
82411SOL    HW149072   6.261   9.638  12.479
82411SOL    HW249073   6.313   9.757  12.400
82412SOL     OW49074   0.609   7.651  13.022
82412SOL    HW149075   0.519   7.677  13.004
82412SOL    HW249076   0.637   7.708  13.093
82413SOL     OW49077   6.148   2.801   8.290
82413SOL    HW149078   6.165   2.872   8.227
82413SOL    HW249079   6.196   2.827   8.368
82414SOL     OW49080  14.482   3.463   5.010
82414SOL    HW149081  14.528   3.510   5.080
82414SOL    HW249082  14.422   3.529   4.973
82415SOL     OW49083  13.220  10.865  14.775
82415SOL    HW149084  13.153  10.926  14.744
82415SOL    HW249085  13.230  10.886  14.868
82416SOL     OW49086   1.347   9.575  14.301
82416SOL    HW149087   1.344   9.650  14.242
82416SOL    HW249088   1.420   9.595  14.361
82417SOL     OW49089  14.166   5.162  13.624
82417SOL    HW149090  14.230   5.190  13.689
82417SOL    HW249091  14.189   5.071  13.605
82418SOL     OW49092   0.321  11.300  11.423
82418SOL    HW149093   0.255  11.235  11.446
82418SOL    HW249094   0.271  11.372  11.384
82419SOL     OW49095   1.151   3.249   2.208
82419SOL    HW149096   1.182   3.190   2.140
82419SOL    HW249097   1.218   3.317   2.213
82420SOL     OW49098   7.613  14.593   0.066
82420SOL    HW149099   7.697  14.591   0.112
82420SOL    HW249100   7.603  14.685   0.039
82421SOL     OW49101   8.841   8.400   8.170
82421SOL    HW149102   8.751   8.376   8.147
82421SOL    HW249103   8.839   8.496   8.178
82422SOL     OW49104   6.032   1.799  10.783
82422SOL    HW149105   5.993   1.886  10.797
82422SOL    HW249106   6.081   1.782  10.863
82423SOL     OW49107   3.958   3.604   5.141
82423SOL    HW149108   3.903   3.675   5.174
82423SOL    HW249109   3.952   3.536   5.208
82424SOL     OW49110   3.790   3.674   8.071
82424SOL    HW149111   3.839   3.639   8.144
82424SOL    HW249112   3.706   3.628   8.073
82425SOL     OW49113  11.062   0.413   3.753
82425SOL    HW149114  11.120   0.446   3.822
82425SOL    HW249115  11.039   0.324   3.781
82426SOL     OW49116   4.526   7.868   3.254
82426SOL    HW149117   4.501   7.913   3.173
82426SOL    HW249118   4.507   7.776   3.238
82427SOL     OW49119   1.625  11.522  11.190
82427SOL    HW149120   1.603  11.530  11.097
82427SOL    HW249121   1.579  11.595  11.232
82428SOL     OW49122   5.629   8.616   8.442
82428SOL    HW149123   5.549   8.633   8.391
82428SOL    HW249124   5.688   8.687   8.418
82429SOL     OW49125   2.364  14.741   5.494
82429SOL    HW149126   2.443  14.771   5.449
82429SOL    HW249127   2.292  14.768   5.437
82430SOL     OW49128   6.875   7.975  10.537
82430SOL    HW149129   6.947   8.035  10.517
82430SOL    HW249130   6.859   7.929  10.455
82431SOL     OW49131  13.283   7.938   5.803
82431SOL    HW149132  13.358   7.907   5.854
82431SOL    HW249133  13.316   7.944   5.714
82432SOL     OW49134   6.534  14.534   9.293
82432SOL    HW149135   6.616  14.486   9.292
82432SOL    HW249136   6.482  14.494   9.223
82433SOL     OW49137   4.278  11.375   6.724
82433SOL    HW149138   4.338  11.313   6.683
82433SOL    HW249139   4.320  11.396   6.808
82434SOL     OW49140   4.701   8.044   2.322
82434SOL    HW149141   4.757   8.092   2.383
82434SOL    HW249142   4.645   7.990   2.378
82435SOL     OW49143   0.278   3.774   1.542
82435SOL    HW149144   0.331   3.820   1.607
82435SOL    HW249145   0.188   3.781   1.577
82436SOL     OW49146   5.946   9.174  12.309
82436SOL    HW149147   5.956   9.224  12.227
82436SOL    HW249148   5.984   9.089  12.290
82437SOL     OW49149   8.816   2.321   1.501
82437SOL    HW149150   8.738   2.335   1.555
82437SOL    HW249151   8.866   2.402   1.508
82438SOL     OW49152   1.047   7.277  12.816
82438SOL    HW149153   0.972   7.336  12.813
82438SOL    HW249154   1.038   7.221  12.739
82439SOL     OW49155   1.676  11.580   7.772
82439SOL    HW149156   1.764  11.586   7.809
82439SOL    HW249157   1.688  11.530   7.691
82440SOL     OW49158   2.462   4.986   3.006
82440SOL    HW149159   2.449   5.059   3.066
82440SOL    HW249160   2.463   5.025   2.919
82441SOL     OW49161   7.497   7.206   0.062
82441SOL    HW149162   7.524   7.295   0.085
82441SOL    HW249163   7.548   7.184  14.864
82442SOL     OW49164   3.512   7.172   2.174
82442SOL    HW149165   3.533   7.125   2.093
82442SOL    HW249166   3.423   7.142   2.196
82443SOL     OW49167   7.006   8.553   6.072
82443SOL    HW149168   6.967   8.610   6.006
82443SOL    HW249169   7.082   8.602   6.104
82444SOL     OW49170   0.239   7.370  13.669
82444SOL    HW149171   0.166   7.404  13.720
82444SOL    HW249172   0.236   7.419  13.587
82445SOL     OW49173   5.997  12.912  11.534
82445SOL    HW149174   6.083  12.944  11.504
82445SOL    HW249175   5.946  12.901  11.454
82446SOL     OW49176   9.986  13.447  11.433
82446SOL    HW149177  10.040  13.391  11.378
82446SOL    HW249178   9.900  13.405  11.434
82447SOL     OW49179   1.846   9.129   9.838
82447SOL    HW149180   1.773   9.074   9.810
82447SOL    HW249181   1.862   9.187   9.764
82448SOL     OW49182   8.441   4.263   2.366
82448SOL    HW149183   8.433   4.311   2.284
82448SOL    HW249184   8.487   4.182   2.342
82449SOL     OW49185  11.261   1.010  12.001
82449SOL    HW149186  11.310   1.070  12.057
82449SOL    HW249187  11.187   1.063  11.969
82450SOL     OW49188   4.275   0.919   0.148
82450SOL    HW149189   4.264   1.011   0.173
82450SOL    HW249190   4.229   0.911   0.064
82451SOL     OW49191  11.200   4.057  11.651
82451SOL    HW149192  11.277   4.005  11.629
82451SOL    HW249193  11.161   4.011  11.726
82452SOL     OW49194   0.314  13.803  11.011
82452SOL    HW149195   0.326  13.742  10.939
82452SOL    HW249196   0.265  13.876  10.973
82453SOL     OW49197   0.761   9.807   3.947
82453SOL    HW149198   0.748   9.755   4.027
82453SOL    HW249199   0.674   9.808   3.906
82454SOL     OW49200   6.920   4.220   9.129
82454SOL    HW149201   6.958   4.199   9.214
82454SOL    HW249202   6.895   4.312   9.135
82455SOL     OW49203   5.600  11.876   7.982
82455SOL    HW149204   5.521  11.855   7.933
82455SOL    HW249205   5.645  11.792   7.992
82456SOL     OW49206  14.600   7.777   3.990
82456SOL    HW149207  14.540   7.753   4.060
82456SOL    HW249208  14.644   7.695   3.967
82457SOL     OW49209  12.853   2.730   7.335
82457SOL    HW149210  12.886   2.782   7.409
82457SOL    HW249211  12.874   2.782   7.258
82458SOL     OW49212   2.926   9.129  10.707
82458SOL    HW149213   2.957   9.215  10.680
82458SOL    HW249214   3.003   9.086  10.745
82459SOL     OW49215   5.428   1.145   7.326
82459SOL    HW149216   5.456   1.220   7.273
82459SOL    HW249217   5.390   1.084   7.264
82460SOL     OW49218   3.485  12.199  12.128
82460SOL    HW149219   3.579  12.184  12.119
82460SOL    HW249220   3.445  12.117  12.098
82461SOL     OW49221   7.722  10.446   9.636
82461SOL    HW149222   7.673  10.374   9.675
82461SOL    HW249223   7.656  10.496   9.588
82462SOL     OW49224   2.533   9.992   9.393
82462SOL    HW149225   2.485  10.026   9.469
82462SOL    HW249226   2.621   9.975   9.426
82463SOL     OW49227   6.369   6.078   3.846
82463SOL    HW149228   6.430   6.144   3.814
82463SOL    HW249229   6.357   6.018   3.772
82464SOL     OW49230   9.977   2.978   7.049
82464SOL    HW149231   9.998   2.961   7.141
82464SOL    HW249232   9.923   2.904   7.023
82465SOL     OW49233   0.582   1.517  12.422
82465SOL    HW149234   0.585   1.421  12.426
82465SOL    HW249235   0.491   1.537  12.401
82466SOL     OW49236  12.713   8.560  14.871
82466SOL    HW149237  12.707   8.646  14.830
82466SOL    HW249238  12.770   8.574   0.068
82467SOL     OW49239  12.836   8.682  10.940
82467SOL    HW149240  12.851   8.601  10.891
82467SOL    HW249241  12.890   8.747  10.895
82468SOL     OW49242   1.357   5.414  10.012
82468SOL    HW149243   1.443   5.406  10.055
82468SOL    HW249244   1.330   5.504  10.029
82469SOL     OW49245  13.352   6.137   1.401
82469SOL    HW149246  13.447   6.136   1.410
82469SOL    HW249247  13.332   6.054   1.358
82470SOL     OW49248   2.424   4.702  13.051
82470SOL    HW149249   2.367   4.667  12.982
82470SOL    HW249250   2.456   4.785  13.016
82471SOL     OW49251  12.834   9.942   4.924
82471SOL    HW149252  12.776   9.939   4.848
82471SOL    HW249253  12.855  10.035   4.934
82472SOL     OW49254  13.910   3.025  11.025
82472SOL    HW149255  13.839   3.036  10.962
82472SOL    HW249256  13.867   2.989  11.103
82473SOL     OW49257   5.281   4.409   8.211
82473SOL    HW149258   5.226   4.370   8.279
82473SOL    HW249259   5.249   4.499   8.203
82474SOL     OW49260   2.337   1.050  12.635
82474SOL    HW149261   2.406   1.060  12.570
82474SOL    HW249262   2.325   0.956  12.644
82475SOL     OW49263   7.740   7.262   4.893
82475SOL    HW149264   7.657   7.233   4.855
82475SOL    HW249265   7.795   7.184   4.892
82476SOL     OW49266  14.347  11.867   4.130
82476SOL    HW149267  14.265  11.896   4.171
82476SOL    HW249268  14.385  11.806   4.193
82477SOL     OW49269  10.486  14.034  14.387
82477SOL    HW149270  10.478  13.976  14.312
82477SOL    HW249271  10.398  14.070  14.399
82478SOL     OW49272  11.533  14.347   6.278
82478SOL    HW149273  11.476  14.378   6.348
82478SOL    HW249274  11.473  14.326   6.206
82479SOL     OW49275   1.967  11.906   1.483
82479SOL    HW149276   1.998  11.819   1.458
82479SOL    HW249277   2.012  11.965   1.423
82480SOL     OW49278  14.658  13.355  14.592
82480SOL    HW149279  14.677  13.442  14.625
82480SOL    HW249280  14.731  13.301  14.622
82481SOL     OW49281   1.796   9.259   5.073
82481SOL    HW149282   1.809   9.352   5.054
82481SOL    HW249283   1.713   9.255   5.121
82482SOL     OW49284   9.962  12.810  12.823
82482SOL    HW149285  10.003  12.896  12.822
82482SOL    HW249286   9.869  12.828  12.837
82483SOL     OW49287  10.897  13.857  14.168
82483SOL    HW149288  10.837  13.787  14.195
82483SOL    HW249289  10.965  13.812  14.118
82484SOL     OW49290  12.998   1.745   6.564
82484SOL    HW149291  12.913   1.748   6.607
82484SOL    HW249292  12.978   1.758   6.471
82485SOL     OW49293   6.021   7.808   5.309
82485SOL    HW149294   5.959   7.781   5.242
82485SOL    HW249295   6.097   7.840   5.261
82486SOL     OW49296  14.459   8.117   3.013
82486SOL    HW149297  14.378   8.136   2.965
82486SOL    HW249298  14.437   8.041   3.067
82487SOL     OW49299   3.681   2.399   2.050
82487SOL    HW149300   3.596   2.387   2.008
82487SOL    HW249301   3.661   2.420   2.141
82488SOL     OW49302   3.560  10.946   7.137
82488SOL    HW149303   3.625  10.909   7.196
82488SOL    HW249304   3.485  10.966   7.194
82489SOL     OW49305  10.897   3.076   2.830
82489SOL    HW149306  10.914   3.071   2.924
82489SOL    HW249307  10.820   3.132   2.823
82490SOL     OW49308  11.380   6.214   1.895
82490SOL    HW149309  11.459   6.163   1.914
82490SOL    HW249310  11.405   6.305   1.912
82491SOL     OW49311   8.193  10.517   1.359
82491SOL    HW149312   8.114  10.488   1.313
82491SOL    HW249313   8.229  10.586   1.304
82492SOL     OW49314  10.085   3.894   9.618
82492SOL    HW149315  10.098   3.989   9.621
82492SOL    HW249316  10.149   3.859   9.680
82493SOL     OW49317   2.586  14.166  13.739
82493SOL    HW149318   2.617  14.184  13.827
82493SOL    HW249319   2.566  14.072  13.739
82494SOL     OW49320   1.950  11.814  12.650
82494SOL    HW149321   1.998  11.841  12.729
82494SOL    HW249322   1.918  11.726  12.671
82495SOL     OW49323   9.153   3.469   2.684
82495SOL    HW149324   9.233   3.422   2.706
82495SOL    HW249325   9.084   3.403   2.686
82496SOL     OW49326  12.185   2.586  10.041
82496SOL    HW149327  12.096   2.583  10.004
82496SOL    HW249328  12.214   2.676  10.027
82497SOL     OW49329  12.375   3.147   6.157
82497SOL    HW149330  12.401   3.228   6.201
82497SOL    HW249331  12.308   3.109   6.214
82498SOL     OW49332  11.987  11.093  10.424
82498SOL    HW149333  11.965  11.080  10.332
82498SOL    HW249334  11.940  11.172  10.449
82499SOL     OW49335   6.290   5.901  14.651
82499SOL    HW149336   6.197   5.881  14.656
82499SOL    HW249337   6.313   5.932  14.739
82500SOL     OW49338   7.451  11.293  10.378
82500SOL    HW149339   7.432  11.200  10.387
82500SOL    HW249340   7.519  11.298  10.311
82501SOL     OW49341  12.541   3.618   9.851
82501SOL    HW149342  12.521   3.691   9.910
82501SOL    HW249343  12.631   3.634   9.823
82502SOL     OW49344  10.918   4.430   5.113
82502SOL    HW149345  10.947   4.353   5.064
82502SOL    HW249346  10.822   4.427   5.108
82503SOL     OW49347  13.230   9.868   8.004
82503SOL    HW149348  13.260   9.784   8.037
82503SOL    HW249349  13.147   9.883   8.048
82504SOL     OW49350  12.093   2.912  10.190
82504SOL    HW149351  12.172   2.966  10.197
82504SOL    HW249352  12.042   2.954  10.121
82505SOL     OW49353   8.367   3.812  12.359
82505SOL    HW149354   8.430   3.802  12.431
82505SOL    HW249355   8.288   3.845  12.401
82506SOL     OW49356  10.579  14.098  11.190
82506SOL    HW149357  10.608  14.171  11.244
82506SOL    HW249358  10.644  14.093  11.119
82507SOL     OW49359  12.924   8.020  13.501
82507SOL    HW149360  12.847   8.076  13.488
82507SOL    HW249361  12.890   7.941  13.542
82508SOL     OW49362   6.151   7.533   4.318
82508SOL    HW149363   6.196   7.451   4.337
82508SOL    HW249364   6.188   7.562   4.235
82509SOL     OW49365   4.366  13.461   6.809
82509SOL    HW149366   4.374  13.449   6.715
82509SOL    HW249367   4.408  13.383   6.847
82510SOL     OW49368   0.887   0.416   6.989
82510SOL    HW149369   0.936   0.497   6.973
82510SOL    HW249370   0.953   0.353   7.018
82511SOL     OW49371   7.238   0.803  11.634
82511SOL    HW149372   7.205   0.867  11.571
82511SOL    HW249373   7.237   0.720  11.585
82512SOL     OW49374   3.521   5.686   0.708
82512SOL    HW149375   3.509   5.591   0.711
82512SOL    HW249376   3.441   5.721   0.747
82513SOL     OW49377  11.017   3.794  12.713
82513SOL    HW149378  10.981   3.729  12.773
82513SOL    HW249379  11.063   3.742  12.647
82514SOL     OW49380   3.756   0.268   9.018
82514SOL    HW149381   3.840   0.240   9.056
82514SOL    HW249382   3.780   0.311   8.936
82515SOL     OW49383  11.318  12.235   1.356
82515SOL    HW149384  11.304  12.289   1.279
82515SOL    HW249385  11.410  12.208   1.351
82516SOL     OW49386   7.978  12.068   8.835
82516SOL    HW149387   7.962  11.983   8.794
82516SOL    HW249388   8.066  12.093   8.806
82517SOL     OW49389   6.186   0.251   1.741
82517SOL    HW149390   6.263   0.265   1.686
82517SOL    HW249391   6.162   0.159   1.726
82518SOL     OW49392   0.821  10.682  11.745
82518SOL    HW149393   0.860  10.603  11.782
82518SOL    HW249394   0.769  10.650  11.671
82519SOL     OW49395   3.795   0.252   1.049
82519SOL    HW149396   3.806   0.282   0.960
82519SOL    HW249397   3.884   0.239   1.082
82520SOL     OW49398   9.298   5.184   5.502
82520SOL    HW149399   9.391   5.165   5.487
82520SOL    HW249400   9.264   5.208   5.416
82521SOL     OW49401   1.948  10.660  10.567
82521SOL    HW149402   1.906  10.658  10.653
82521SOL    HW249403   2.041  10.646  10.586
82522SOL     OW49404   7.190   8.096   2.735
82522SOL    HW149405   7.246   8.111   2.659
82522SOL    HW249406   7.151   8.010   2.719
82523SOL     OW49407   4.716   7.715  12.338
82523SOL    HW149408   4.756   7.781  12.282
82523SOL    HW249409   4.657   7.667  12.280
82524SOL     OW49410   4.847  12.821   9.272
82524SOL    HW149411   4.911  12.810   9.342
82524SOL    HW249412   4.766  12.787   9.308
82525SOL     OW49413   5.181  12.141  10.453
82525SOL    HW149414   5.166  12.190  10.372
82525SOL    HW249415   5.274  12.154  10.471
82526SOL     OW49416  12.284   9.465   0.578
82526SOL    HW149417  12.340   9.538   0.604
82526SOL    HW249418  12.287   9.465   0.483
82527SOL     OW49419   2.983  14.505   8.280
82527SOL    HW149420   3.012  14.508   8.189
82527SOL    HW249421   2.899  14.550   8.280
82528SOL     OW49422   7.849   0.380   4.490
82528SOL    HW149423   7.775   0.334   4.532
82528SOL    HW249424   7.819   0.399   4.402
82529SOL     OW49425   2.801   9.852   3.589
82529SOL    HW149426   2.783   9.777   3.645
82529SOL    HW249427   2.879   9.892   3.627
82530SOL     OW49428   2.094   4.660  14.466
82530SOL    HW149429   2.124   4.602  14.536
82530SOL    HW249430   2.161   4.651  14.398
82531SOL     OW49431  13.519   0.717  13.936
82531SOL    HW149432  13.587   0.651  13.951
82531SOL    HW249433  13.491   0.701  13.846
82532SOL     OW49434   9.945   1.812   8.052
82532SOL    HW149435   9.984   1.727   8.032
82532SOL    HW249436   9.910   1.842   7.969
82533SOL     OW49437  11.301   1.641  10.803
82533SOL    HW149438  11.256   1.562  10.834
82533SOL    HW249439  11.234   1.709  10.807
82534SOL     OW49440   0.235   8.872   8.157
82534SOL    HW149441   0.279   8.857   8.073
82534SOL    HW249442   0.287   8.940   8.199
82535SOL     OW49443  12.762   1.884   1.481
82535SOL    HW149444  12.770   1.977   1.504
82535SOL    HW249445  12.776   1.838   1.564
82536SOL     OW49446  12.838  11.977  14.192
82536SOL    HW149447  12.763  12.002  14.138
82536SOL    HW249448  12.838  12.040  14.264
82537SOL     OW49449   7.192   4.263   7.649
82537SOL    HW149450   7.160   4.219   7.570
82537SOL    HW249451   7.267   4.211   7.677
82538SOL     OW49452  12.249   2.155  10.996
82538SOL    HW149453  12.334   2.118  10.974
82538SOL    HW249454  12.267   2.247  11.018
82539SOL     OW49455   0.911   6.119  10.746
82539SOL    HW149456   0.965   6.095  10.671
82539SOL    HW249457   0.821   6.106  10.715
82540SOL     OW49458   8.913   3.263  13.819
82540SOL    HW149459   8.927   3.218  13.736
82540SOL    HW249460   8.992   3.245  13.870
82541SOL     OW49461   1.126  10.689   6.417
82541SOL    HW149462   1.057  10.723   6.360
82541SOL    HW249463   1.156  10.765   6.467
82542SOL     OW49464  14.473  13.766  10.657
82542SOL    HW149465  14.524  13.778  10.738
82542SOL    HW249466  14.539  13.754  10.589
82543SOL     OW49467  13.296  13.257   7.722
82543SOL    HW149468  13.311  13.347   7.749
82543SOL    HW249469  13.266  13.263   7.631
82544SOL     OW49470   5.065  10.349  10.802
82544SOL    HW149471   5.120  10.304  10.737
82544SOL    HW249472   5.085  10.303  10.885
82545SOL     OW49473  10.340  10.609  14.176
82545SOL    HW149474  10.312  10.529  14.131
82545SOL    HW249475  10.406  10.580  14.238
82546SOL     OW49476   5.336   0.643  11.355
82546SOL    HW149477   5.309   0.611  11.441
82546SOL    HW249478   5.399   0.713  11.373
82547SOL     OW49479   5.671   6.297   5.482
82547SOL    HW149480   5.604   6.246   5.528
82547SOL    HW249481   5.750   6.242   5.486
82548SOL     OW49482   4.475   2.106  11.937
82548SOL    HW149483   4.490   2.095  11.843
82548SOL    HW249484   4.388   2.144  11.943
82549SOL     OW49485   9.955   6.235   6.040
82549SOL    HW149486   9.964   6.287   5.961
82549SOL    HW249487   9.884   6.174   6.020
82550SOL     OW49488   4.156  10.458  14.312
82550SOL    HW149489   4.127  10.541  14.274
82550SOL    HW249490   4.250  10.469  14.326
82551SOL     OW49491   7.353   8.532   5.030
82551SOL    HW149492   7.384   8.532   5.120
82551SOL    HW249493   7.393   8.456   4.990
82552SOL     OW49494   9.054  11.670   0.655
82552SOL    HW149495   9.046  11.666   0.560
82552SOL    HW249496   9.149  11.672   0.671
82553SOL     OW49497   1.674  11.915  11.032
82553SOL    HW149498   1.604  11.890  10.972
82553SOL    HW249499   1.629  11.932  11.115
82554SOL     OW49500  11.912   1.846   9.641
82554SOL    HW149501  11.938   1.765   9.598
82554SOL    HW249502  11.986   1.868   9.698
82555SOL     OW49503   6.638   8.557  13.315
82555SOL    HW149504   6.631   8.534  13.222
82555SOL    HW249505   6.548   8.566  13.344
82556SOL     OW49506   2.671   9.180  13.304
82556SOL    HW149507   2.592   9.132  13.279
82556SOL    HW249508   2.680   9.247  13.237
82557SOL     OW49509   4.090  13.437   6.971
82557SOL    HW149510   4.116  13.421   7.062
82557SOL    HW249511   4.169  13.470   6.929
82558SOL     OW49512   7.787   5.444   7.741
82558SOL    HW149513   7.824   5.374   7.688
82558SOL    HW249514   7.774   5.516   7.680
82559SOL     OW49515   4.660   5.243   0.887
82559SOL    HW149516   4.740   5.192   0.872
82559SOL    HW249517   4.675   5.289   0.969
82560SOL     OW49518  14.858  13.555  14.034
82560SOL    HW149519  14.833  13.492  13.967
82560SOL    HW249520   0.053  13.513  14.079
82561SOL     OW49521   3.339   1.019   2.134
82561SOL    HW149522   3.389   0.940   2.152
82561SOL    HW249523   3.249   0.988   2.118
82562SOL     OW49524   9.259   3.059  12.004
82562SOL    HW149525   9.173   3.095  11.981
82562SOL    HW249526   9.298   3.033  11.921
82563SOL     OW49527  14.821   2.310  12.033
82563SOL    HW149528  14.742   2.318  12.087
82563SOL    HW249529   0.001   2.257  12.085
82564SOL     OW49530  13.909   6.318  10.018
82564SOL    HW149531  13.982   6.328  10.079
82564SOL    HW249532  13.893   6.406   9.983
82565SOL     OW49533  11.376   9.699   3.103
82565SOL    HW149534  11.410   9.775   3.056
82565SOL    HW249535  11.449   9.637   3.103
82566SOL     OW49536  10.236   2.589   0.001
82566SOL    HW149537  10.203   2.656   0.062
82566SOL    HW249538  10.207   2.618  14.794
82567SOL     OW49539   7.155   3.955   7.913
82567SOL    HW149540   7.209   3.919   7.842
82567SOL    HW249541   7.065   3.938   7.886
82568SOL     OW49542   1.038   0.428   0.622
82568SOL    HW149543   1.133   0.430   0.609
82568SOL    HW249544   1.011   0.519   0.609
82569SOL     OW49545   6.909  12.442   3.678
82569SOL    HW149546   6.977  12.470   3.616
82569SOL    HW249547   6.957  12.427   3.760
82570SOL     OW49548  12.584   3.303  10.527
82570SOL    HW149549  12.567   3.392  10.558
82570SOL    HW249550  12.523   3.291  10.454
82571SOL     OW49551   9.936  10.118   5.645
82571SOL    HW149552   9.965  10.181   5.579
82571SOL    HW249553  10.002  10.049   5.642
82572SOL     OW49554   5.322   0.477  11.098
82572SOL    HW149555   5.416   0.471  11.078
82572SOL    HW249556   5.317   0.541  11.169
82573SOL     OW49557   7.026  12.968   4.271
82573SOL    HW149558   7.121  12.978   4.279
82573SOL    HW249559   6.993  13.057   4.257
82574SOL     OW49560  10.605   5.334   6.147
82574SOL    HW149561  10.642   5.246   6.156
82574SOL    HW249562  10.577   5.357   6.236
82575SOL     OW49563   3.137   6.477   7.321
82575SOL    HW149564   3.166   6.483   7.412
82575SOL    HW249565   3.187   6.545   7.275
82576SOL     OW49566   7.172   8.506  13.390
82576SOL    HW149567   7.226   8.583  13.374
82576SOL    HW249568   7.143   8.478  13.303
82577SOL     OW49569  11.718   9.667   4.568
82577SOL    HW149570  11.628   9.652   4.598
82577SOL    HW249571  11.717   9.644   4.475
82578SOL     OW49572   0.610   5.945  13.446
82578SOL    HW149573   0.690   5.994  13.426
82578SOL    HW249574   0.597   5.958  13.540
82579SOL     OW49575   0.072   0.485  12.765
82579SOL    HW149576   0.023   0.426  12.822
82579SOL    HW249577   0.061   0.572  12.804
82580SOL     OW49578  14.195   5.383   0.599
82580SOL    HW149579  14.242   5.425   0.671
82580SOL    HW249580  14.165   5.299   0.636
82581SOL     OW49581  13.697  13.173   7.938
82581SOL    HW149582  13.715  13.253   7.889
82581SOL    HW249583  13.631  13.199   8.002
82582SOL     OW49584   4.462  11.213   1.219
82582SOL    HW149585   4.552  11.207   1.188
82582SOL    HW249586   4.408  11.193   1.142
82583SOL     OW49587   3.731   8.647  14.638
82583SOL    HW149588   3.680   8.566  14.648
82583SOL    HW249589   3.807   8.621  14.586
82584SOL     OW49590   6.641   7.010  13.746
82584SOL    HW149591   6.688   7.015  13.829
82584SOL    HW249592   6.550   7.028  13.770
82585SOL     OW49593   9.192  10.453   2.912
82585SOL    HW149594   9.271  10.444   2.857
82585SOL    HW249595   9.226  10.465   3.001
82586SOL     OW49596   7.187  14.181  14.809
82586SOL    HW149597   7.257  14.164  14.872
82586SOL    HW249598   7.113  14.131  14.841
82587SOL     OW49599  11.722   0.456   0.847
82587SOL    HW149600  11.790   0.490   0.905
82587SOL    HW249601  11.643   0.453   0.901
82588SOL     OW49602   2.016   8.816  10.172
82588SOL    HW149603   1.941   8.840  10.118
82588SOL    HW249604   1.979   8.803  10.259
82589SOL     OW49605   8.761  13.272   6.880
82589SOL    HW149606   8.728  13.350   6.924
82589SOL    HW249607   8.835  13.243   6.934
82590SOL     OW49608   0.745   5.326   1.336
82590SOL    HW149609   0.767   5.269   1.262
82590SOL    HW249610   0.650   5.337   1.329
82591SOL     OW49611  10.929  14.073  14.635
82591SOL    HW149612  10.931  14.167  14.621
82591SOL    HW249613  10.909  14.036  14.549
82592SOL     OW49614  11.094   6.808   5.352
82592SOL    HW149615  11.065   6.729   5.305
82592SOL    HW249616  11.061   6.881   5.298
82593SOL     OW49617  14.401   1.843   1.143
82593SOL    HW149618  14.384   1.755   1.109
82593SOL    HW249619  14.331   1.857   1.207
82594SOL     OW49620  14.834   3.179  14.257
82594SOL    HW149621  14.848   3.084  14.255
82594SOL    HW249622   0.033   3.214  14.300
82595SOL     OW49623   9.811   5.443  10.107
82595SOL    HW149624   9.730   5.494  10.099
82595SOL    HW249625   9.876   5.494  10.058
82596SOL     OW49626   9.207   2.666   6.708
82596SOL    HW149627   9.264   2.594   6.680
82596SOL    HW249628   9.123   2.624   6.728
82597SOL     OW49629   6.571  11.435  12.117
82597SOL    HW149630   6.603  11.493  12.186
82597SOL    HW249631   6.511  11.376  12.162
82598SOL     OW49632   2.345   2.708  11.393
82598SOL    HW149633   2.302   2.686  11.476
82598SOL    HW249634   2.436   2.685  11.407
82599SOL     OW49635   1.652   8.746   7.957
82599SOL    HW149636   1.606   8.773   7.877
82599SOL    HW249637   1.632   8.813   8.021
82600SOL     OW49638  12.022  10.766  13.160
82600SOL    HW149639  12.108  10.727  13.145
82600SOL    HW249640  12.015  10.835  13.094
82601SOL     OW49641  13.480   9.347   6.392
82601SOL    HW149642  13.406   9.288   6.377
82601SOL    HW249643  13.468   9.417   6.327
82602SOL     OW49644  11.866  12.230  12.054
82602SOL    HW149645  11.935  12.197  12.111
82602SOL    HW249646  11.787  12.182  12.081
82603SOL     OW49647   8.687   8.575  12.685
82603SOL    HW149648   8.644   8.659  12.666
82603SOL    HW249649   8.761   8.598  12.742
82604SOL     OW49650   8.970  10.060   1.649
82604SOL    HW149651   8.927  10.092   1.729
82604SOL    HW249652   8.939   9.970   1.640
82605SOL     OW49653  13.328  10.632  11.018
82605SOL    HW149654  13.373  10.576  10.955
82605SOL    HW249655  13.240  10.643  10.982
82606SOL     OW49656  10.861   7.350  14.757
82606SOL    HW149657  10.851   7.287  14.828
82606SOL    HW249658  10.816   7.310  14.682
82607SOL     OW49659   4.260  13.367   1.641
82607SOL    HW149660   4.204  13.330   1.709
82607SOL    HW249661   4.225  13.329   1.560
82608SOL     OW49662  13.003   3.931   9.530
82608SOL    HW149663  13.073   3.975   9.483
82608SOL    HW249664  12.985   3.987   9.606
82609SOL     OW49665   0.610   5.316  14.824
82609SOL    HW149666   0.595   5.223  14.807
82609SOL    HW249667   0.550   5.362  14.765
82610SOL     OW49668   0.084  13.090   1.208
82610SOL    HW149669  14.871  13.084   1.184
82610SOL    HW249670   0.113  13.173   1.171
82611SOL     OW49671   5.346   5.238   8.630
82611SOL    HW149672   5.360   5.333   8.637
82611SOL    HW249673   5.367   5.204   8.717
82612SOL     OW49674   1.677   3.369   7.918
82612SOL    HW149675   1.624   3.295   7.892
82612SOL    HW249676   1.614   3.435   7.948
82613SOL     OW49677   8.804   0.707   8.999
82613SOL    HW149678   8.723   0.717   8.950
82613SOL    HW249679   8.777   0.666   9.082
82614SOL     OW49680  12.819  11.053   6.291
82614SOL    HW149681  12.867  10.972   6.276
82614SOL    HW249682  12.741  11.046   6.236
82615SOL     OW49683  12.642   9.026   0.033
82615SOL    HW149684  12.555   9.066   0.024
82615SOL    HW249685  12.640   8.950  14.854
82616SOL     OW49686   3.933  11.810  13.979
82616SOL    HW149687   3.958  11.729  14.024
82616SOL    HW249688   3.868  11.782  13.914
82617SOL     OW49689  10.300   5.696   3.716
82617SOL    HW149690  10.285   5.618   3.662
82617SOL    HW249691  10.213   5.733   3.730
82618SOL     OW49692   1.348   9.878   8.755
82618SOL    HW149693   1.362   9.890   8.661
82618SOL    HW249694   1.394   9.797   8.776
82619SOL     OW49695   5.229  11.232   1.573
82619SOL    HW149696   5.260  11.278   1.495
82619SOL    HW249697   5.230  11.140   1.548
82620SOL     OW49698  10.754  10.643   2.068
82620SOL    HW149699  10.803  10.712   2.113
82620SOL    HW249700  10.665  10.677   2.061
82621SOL     OW49701  12.951   5.680  11.233
82621SOL    HW149702  12.922   5.644  11.149
82621SOL    HW249703  12.984   5.605  11.281
82622SOL     OW49704   2.922   9.914   2.999
82622SOL    HW149705   2.835   9.906   2.958
82622SOL    HW249706   2.974   9.963   2.935
82623SOL     OW49707   4.353   1.100  13.050
82623SOL    HW149708   4.286   1.058  12.996
82623SOL    HW249709   4.305   1.162  13.105
82624SOL     OW49710   5.392   7.605   0.396
82624SOL    HW149711   5.338   7.536   0.358
82624SOL    HW249712   5.330   7.669   0.429
82625SOL     OW49713   7.697  10.923   9.387
82625SOL    HW149714   7.632  10.932   9.318
82625SOL    HW249715   7.654  10.957   9.465
82626SOL     OW49716   0.347   3.121  14.867
82626SOL    HW149717   0.376   3.128   0.079
82626SOL    HW249718   0.321   3.210  14.844
82627SOL     OW49719   5.649   9.404  11.290
82627SOL    HW149720   5.627   9.487  11.333
82627SOL    HW249721   5.742   9.392  11.309
82628SOL     OW49722   6.890   4.452   2.104
82628SOL    HW149723   6.949   4.527   2.099
82628SOL    HW249724   6.943   4.382   2.142
82629SOL     OW49725   0.174   2.049   4.627
82629SOL    HW149726   0.092   2.056   4.676
82629SOL    HW249727   0.210   2.138   4.629
82630SOL     OW49728  11.677  11.896   9.475
82630SOL    HW149729  11.753  11.926   9.526
82630SOL    HW249730  11.712  11.829   9.416
82631SOL     OW49731  11.909  11.509   4.259
82631SOL    HW149732  11.891  11.592   4.214
82631SOL    HW249733  11.883  11.525   4.350
82632SOL     OW49734  12.772   9.740   1.958
82632SOL    HW149735  12.833   9.691   2.014
82632SOL    HW249736  12.766   9.826   2.000
82633SOL     OW49737   9.048  14.050  10.846
82633SOL    HW149738   9.016  14.122  10.792
82633SOL    HW249739   9.129  14.023  10.803
82634SOL     OW49740   6.295   2.793   4.482
82634SOL    HW149741   6.255   2.708   4.498
82634SOL    HW249742   6.270   2.815   4.392
82635SOL     OW49743  14.840  12.125   4.225
82635SOL    HW149744  14.767  12.099   4.281
82635SOL    HW249745  14.836  12.221   4.223
82636SOL     OW49746   2.108   8.268  12.050
82636SOL    HW149747   2.177   8.203  12.036
82636SOL    HW249748   2.136   8.317  12.127
82637SOL     OW49749  11.420   1.282   7.167
82637SOL    HW149750  11.433   1.372   7.137
82637SOL    HW249751  11.425   1.288   7.262
82638SOL     OW49752  13.275   0.813  12.402
82638SOL    HW149753  13.189   0.842  12.433
82638SOL    HW249754  13.306   0.884  12.347
82639SOL     OW49755   3.072  11.411   5.827
82639SOL    HW149756   3.018  11.474   5.876
82639SOL    HW249757   3.134  11.378   5.892
82640SOL     OW49758   2.136   4.688   0.018
82640SOL    HW149759   2.066   4.744  14.864
82640SOL    HW249760   2.107   4.599   0.000
82641SOL     OW49761   1.288   6.926   1.503
82641SOL    HW149762   1.221   6.868   1.466
82641SOL    HW249763   1.286   7.004   1.447
82642SOL     OW49764   0.576   2.736   3.016
82642SOL    HW149765   0.595   2.763   3.106
82642SOL    HW249766   0.542   2.814   2.973
82643SOL     OW49767  14.822   1.197  12.729
82643SOL    HW149768  14.829   1.190  12.824
82643SOL    HW249769  14.867   1.119  12.696
82644SOL     OW49770   6.734   6.076   0.381
82644SOL    HW149771   6.759   5.992   0.343
82644SOL    HW249772   6.816   6.113   0.413
82645SOL     OW49773  10.627  14.436   2.125
82645SOL    HW149774  10.531  14.440   2.124
82645SOL    HW249775  10.654  14.487   2.049
82646SOL     OW49776   9.161  12.867  14.611
82646SOL    HW149777   9.141  12.857  14.518
82646SOL    HW249778   9.128  12.953  14.634
82647SOL     OW49779   4.334  11.453   8.981
82647SOL    HW149780   4.250  11.498   8.996
82647SOL    HW249781   4.361  11.425   9.068
82648SOL     OW49782  11.756  10.426   3.489
82648SOL    HW149783  11.707  10.405   3.409
82648SOL    HW249784  11.697  10.404   3.560
82649SOL     OW49785   0.441  13.753   6.843
82649SOL    HW149786   0.369  13.807   6.876
82649SOL    HW249787   0.398  13.681   6.798
82650SOL     OW49788   3.779   4.924   8.486
82650SOL    HW149789   3.834   4.927   8.564
82650SOL    HW249790   3.691   4.904   8.519
82651SOL     OW49791   0.676  10.584  12.365
82651SOL    HW149792   0.661  10.664  12.314
82651SOL    HW249793   0.595  10.572  12.415
82652SOL     OW49794  11.287   3.911   8.949
82652SOL    HW149795  11.252   3.994   8.982
82652SOL    HW249796  11.322   3.933   8.863
82653SOL     OW49797  12.274  12.219   2.280
82653SOL    HW149798  12.348  12.275   2.304
82653SOL    HW249799  12.197  12.267   2.310
82654SOL     OW49800   0.111  14.120   5.693
82654SOL    HW149801   0.040  14.089   5.749
82654SOL    HW249802   0.152  14.191   5.742
82655SOL     OW49803   1.379   5.940   2.885
82655SOL    HW149804   1.400   5.902   2.970
82655SOL    HW249805   1.395   5.870   2.822
82656SOL     OW49806   6.533   3.157   2.490
82656SOL    HW149807   6.543   3.187   2.399
82656SOL    HW249808   6.458   3.098   2.488
82657SOL     OW49809   9.325  10.807  14.616
82657SOL    HW149810   9.381  10.881  14.593
82657SOL    HW249811   9.378  10.752  14.673
82658SOL     OW49812  10.535   1.624  11.206
82658SOL    HW149813  10.471   1.634  11.277
82658SOL    HW249814  10.604   1.688  11.226
82659SOL     OW49815   5.743  11.178  13.706
82659SOL    HW149816   5.768  11.245  13.643
82659SOL    HW249817   5.756  11.095  13.660
82660SOL     OW49818   4.160   1.820   7.627
82660SOL    HW149819   4.079   1.871   7.638
82660SOL    HW249820   4.140   1.758   7.557
82661SOL     OW49821   5.496   3.703   5.865
82661SOL    HW149822   5.563   3.650   5.822
82661SOL    HW249823   5.458   3.644   5.930
82662SOL     OW49824   1.286  13.365  11.929
82662SOL    HW149825   1.328  13.449  11.912
82662SOL    HW249826   1.215  13.386  11.990
82663SOL     OW49827  14.678   2.606   6.392
82663SOL    HW149828  14.703   2.579   6.481
82663SOL    HW249829  14.598   2.557   6.374
82664SOL     OW49830   1.578  12.222  11.369
82664SOL    HW149831   1.647  12.244  11.431
82664SOL    HW249832   1.542  12.306  11.341
82665SOL     OW49833   6.571  13.831   4.975
82665SOL    HW149834   6.576  13.758   4.913
82665SOL    HW249835   6.614  13.798   5.054
82666SOL     OW49836   7.507  13.789   3.539
82666SOL    HW149837   7.546  13.763   3.455
82666SOL    HW249838   7.503  13.708   3.589
82667SOL     OW49839  11.818  12.098   1.788
82667SOL    HW149840  11.913  12.085   1.791
82667SOL    HW249841  11.807  12.193   1.781
82668SOL     OW49842   3.259  14.727   8.042
82668SOL    HW149843   3.283  14.689   7.958
82668SOL    HW249844   3.224  14.813   8.021
82669SOL     OW49845   0.346  14.407   2.988
82669SOL    HW149846   0.272  14.449   3.031
82669SOL    HW249847   0.318  14.395   2.897
82670SOL     OW49848   8.959   3.911   8.761
82670SOL    HW149849   8.938   3.818   8.763
82670SOL    HW249850   8.881   3.953   8.725
82671SOL     OW49851  13.255  12.275  14.307
82671SOL    HW149852  13.303  12.331  14.246
82671SOL    HW249853  13.201  12.335  14.357
82672SOL     OW49854  12.346   6.597   4.173
82672SOL    HW149855  12.364   6.687   4.200
82672SOL    HW249856  12.423   6.548   4.203
82673SOL     OW49857   4.081  13.599   8.212
82673SOL    HW149858   3.992  13.569   8.192
82673SOL    HW249859   4.138  13.529   8.180
82674SOL     OW49860   7.881  12.569  10.268
82674SOL    HW149861   7.878  12.485  10.313
82674SOL    HW249862   7.877  12.634  10.339
82675SOL     OW49863   3.489   1.239  10.404
82675SOL    HW149864   3.490   1.252  10.499
82675SOL    HW249865   3.550   1.305  10.370
82676SOL     OW49866   0.791   9.576   9.716
82676SOL    HW149867   0.879   9.555   9.683
82676SOL    HW249868   0.788   9.536   9.803
82677SOL     OW49869   0.494   2.674  13.529
82677SOL    HW149870   0.524   2.727  13.603
82677SOL    HW249871   0.448   2.736  13.473
82678SOL     OW49872  13.628  11.100   8.378
82678SOL    HW149873  13.567  11.098   8.304
82678SOL    HW249874  13.574  11.085   8.455
82679SOL     OW49875   0.414   2.093   5.507
82679SOL    HW149876   0.486   2.157   5.510
82679SOL    HW249877   0.429   2.039   5.584
82680SOL     OW49878  10.007  12.196   7.714
82680SOL    HW149879   9.973  12.198   7.803
82680SOL    HW249880   9.982  12.110   7.680
82681SOL     OW49881   4.203   3.499  13.688
82681SOL    HW149882   4.210   3.578  13.741
82681SOL    HW249883   4.146   3.523  13.615
82682SOL     OW49884   0.232   3.698  11.701
82682SOL    HW149885   0.190   3.616  11.728
82682SOL    HW249886   0.316   3.670  11.664
82683SOL     OW49887   6.738   1.239   0.621
82683SOL    HW149888   6.756   1.235   0.715
82683SOL    HW249889   6.660   1.293   0.614
82684SOL     OW49890   2.511   5.001   3.764
82684SOL    HW149891   2.604   5.024   3.771
82684SOL    HW249892   2.508   4.933   3.698
82685SOL     OW49893   7.751   5.928   2.587
82685SOL    HW149894   7.709   5.886   2.512
82685SOL    HW249895   7.693   5.910   2.660
82686SOL     OW49896   2.393   8.941   5.396
82686SOL    HW149897   2.356   9.029   5.390
82686SOL    HW249898   2.377   8.914   5.486
82687SOL     OW49899   9.789  12.698   2.152
82687SOL    HW149900   9.734  12.656   2.086
82687SOL    HW249901   9.816  12.626   2.209
82688SOL     OW49902   4.377   8.197   6.602
82688SOL    HW149903   4.309   8.176   6.666
82688SOL    HW249904   4.455   8.214   6.655
82689SOL     OW49905   6.043  14.708   0.355
82689SOL    HW149906   6.038  14.695   0.260
82689SOL    HW249907   5.967  14.661   0.390
82690SOL     OW49908   9.522  12.000   5.690
82690SOL    HW149909   9.541  11.948   5.768
82690SOL    HW249910   9.434  12.035   5.706
82691SOL     OW49911   2.624  12.943  13.179
82691SOL    HW149912   2.537  12.968  13.146
82691SOL    HW249913   2.662  13.025  13.210
82692SOL     OW49914   3.295   7.645   8.156
82692SOL    HW149915   3.373   7.659   8.102
82692SOL    HW249916   3.224   7.637   8.093
82693SOL     OW49917   0.989  11.851  11.859
82693SOL    HW149918   1.003  11.908  11.934
82693SOL    HW249919   1.075  11.846  11.817
82694SOL     OW49920   1.862   4.200   1.161
82694SOL    HW149921   1.899   4.220   1.247
82694SOL    HW249922   1.903   4.264   1.102
82695SOL     OW49923   3.513   5.338   5.895
82695SOL    HW149924   3.566   5.340   5.815
82695SOL    HW249925   3.498   5.430   5.916
82696SOL     OW49926   2.193  13.934  14.372
82696SOL    HW149927   2.128  13.879  14.416
82696SOL    HW249928   2.151  13.960  14.290
82697SOL     OW49929   0.946   8.423   7.211
82697SOL    HW149930   0.984   8.381   7.134
82697SOL    HW249931   0.999   8.501   7.225
82698SOL     OW49932  14.197  12.593   0.079
82698SOL    HW149933  14.269  12.530   0.069
82698SOL    HW249934  14.184  12.629  14.871
82699SOL     OW49935   1.904   8.600   3.245
82699SOL    HW149936   1.893   8.571   3.336
82699SOL    HW249937   1.955   8.530   3.205
82700SOL     OW49938   1.802   3.753   0.093
82700SOL    HW149939   1.803   3.832   0.148
82700SOL    HW249940   1.845   3.686   0.146
82701SOL     OW49941   7.466   6.825  12.689
82701SOL    HW149942   7.447   6.732  12.700
82701SOL    HW249943   7.478   6.858  12.779
82702SOL     OW49944   6.611  11.681   6.034
82702SOL    HW149945   6.607  11.592   6.069
82702SOL    HW249946   6.565  11.734   6.099
82703SOL     OW49947   9.856   3.544   4.523
82703SOL    HW149948   9.827   3.610   4.460
82703SOL    HW249949   9.795   3.471   4.512
82704SOL     OW49950  13.909  10.661  12.224
82704SOL    HW149951  13.948  10.718  12.291
82704SOL    HW249952  13.971  10.588  12.216
82705SOL     OW49953  12.925  13.508   6.047
82705SOL    HW149954  12.951  13.452   6.120
82705SOL    HW249955  12.924  13.596   6.083
82706SOL     OW49956   9.382   3.833   0.311
82706SOL    HW149957   9.287   3.848   0.303
82706SOL    HW249958   9.389   3.747   0.353
82707SOL     OW49959   0.794   7.887  10.832
82707SOL    HW149960   0.805   7.916  10.922
82707SOL    HW249961   0.709   7.923  10.806
82708SOL     OW49962  12.858   8.968   9.909
82708SOL    HW149963  12.889   9.057   9.925
82708SOL    HW249964  12.938   8.915   9.901
82709SOL     OW49965   7.055   5.662  11.556
82709SOL    HW149966   7.038   5.597  11.488
82709SOL    HW249967   6.969   5.692  11.583
82710SOL     OW49968  11.572   2.273   7.927
82710SOL    HW149969  11.602   2.360   7.901
82710SOL    HW249970  11.634   2.213   7.884
82711SOL     OW49971   3.882  11.907   8.758
82711SOL    HW149972   3.802  11.865   8.729
82711SOL    HW249973   3.932  11.837   8.800
82712SOL     OW49974  13.837  14.454   0.754
82712SOL    HW149975  13.905  14.503   0.708
82712SOL    HW249976  13.881  14.418   0.831
82713SOL     OW49977  10.085   1.177   7.062
82713SOL    HW149978  10.170   1.162   7.020
82713SOL    HW249979  10.024   1.184   6.989
82714SOL     OW49980  10.872   3.581   7.621
82714SOL    HW149981  10.890   3.674   7.635
82714SOL    HW249982  10.778   3.577   7.602
82715SOL     OW49983  12.108  11.560  13.240
82715SOL    HW149984  12.053  11.483  13.251
82715SOL    HW249985  12.196  11.531  13.265
82716SOL     OW49986  12.393   5.627  12.223
82716SOL    HW149987  12.438   5.573  12.158
82716SOL    HW249988  12.339   5.565  12.272
82717SOL     OW49989   8.343   1.779   7.183
82717SOL    HW149990   8.255   1.790   7.218
82717SOL    HW249991   8.397   1.838   7.236
82718SOL     OW49992   0.823  12.054  12.779
82718SOL    HW149993   0.740  12.010  12.800
82718SOL    HW249994   0.889  11.986  12.789
82719SOL     OW49995   2.134   0.009   0.631
82719SOL    HW149996   2.218   0.055   0.625
82719SOL    HW249997   2.084   0.043   0.557
82720SOL     OW49998   1.214   4.784   1.489
82720SOL    HW149999   1.232   4.700   1.531
82720SOL    HW250000   1.147   4.765   1.423
82721SOL     OW50001   1.773   6.224  10.823
82721SOL    HW150002   1.721   6.144  10.833
82721SOL    HW250003   1.791   6.252  10.912
82722SOL     OW50004   5.457   1.432  13.355
82722SOL    HW150005   5.543   1.412  13.394
82722SOL    HW250006   5.425   1.507  13.404
82723SOL     OW50007   2.358   5.467   9.986
82723SOL    HW150008   2.363   5.385   9.938
82723SOL    HW250009   2.268   5.472  10.018
82724SOL     OW50010   1.839  13.449  13.874
82724SOL    HW150011   1.781  13.445  13.799
82724SOL    HW250012   1.907  13.385  13.855
82725SOL     OW50013   0.402   9.663   7.958
82725SOL    HW150014   0.435   9.620   7.879
82725SOL    HW250015   0.345   9.733   7.925
82726SOL     OW50016  12.075  12.612  14.476
82726SOL    HW150017  11.998  12.665  14.456
82726SOL    HW250018  12.073  12.601  14.571
82727SOL     OW50019  14.137   0.596  13.996
82727SOL    HW150020  14.095   0.516  14.027
82727SOL    HW250021  14.229   0.585  14.020
82728SOL     OW50022  11.365   8.727   8.570
82728SOL    HW150023  11.310   8.770   8.505
82728SOL    HW250024  11.452   8.723   8.530
82729SOL     OW50025  13.476   8.136  13.224
82729SOL    HW150026  13.443   8.183  13.148
82729SOL    HW250027  13.400   8.088  13.257
82730SOL     OW50028  12.108  12.929   2.659
82730SOL    HW150029  12.034  12.968   2.706
82730SOL    HW250030  12.171  12.909   2.727
82731SOL     OW50031  10.770   4.253   2.649
82731SOL    HW150032  10.835   4.286   2.587
82731SOL    HW250033  10.820   4.200   2.711
82732SOL     OW50034  13.294   6.817  10.742
82732SOL    HW150035  13.305   6.722  10.741
82732SOL    HW250036  13.203   6.831  10.768
82733SOL     OW50037  11.973   0.886   1.796
82733SOL    HW150038  11.956   0.873   1.889
82733SOL    HW250039  12.069   0.879   1.788
82734SOL     OW50040   1.772  12.437   6.413
82734SOL    HW150041   1.708  12.394   6.356
82734SOL    HW250042   1.730  12.442   6.498
82735SOL     OW50043  13.484   2.928  10.989
82735SOL    HW150044  13.402   2.921  10.940
82735SOL    HW250045  13.467   2.995  11.055
82736SOL     OW50046   0.040   7.997   9.948
82736SOL    HW150047   0.030   8.030  10.038
82736SOL    HW250048  14.831   7.971   9.922
82737SOL     OW50049   9.592   8.318   8.101
82737SOL    HW150050   9.628   8.271   8.176
82737SOL    HW250051   9.659   8.308   8.033
82738SOL     OW50052   7.903  13.157   7.603
82738SOL    HW150053   7.809  13.154   7.622
82738SOL    HW250054   7.943  13.110   7.677
82739SOL     OW50055   8.052   2.137   3.887
82739SOL    HW150056   7.967   2.098   3.906
82739SOL    HW250057   8.056   2.141   3.791
82740SOL     OW50058   1.285   9.731   1.747
82740SOL    HW150059   1.370   9.696   1.720
82740SOL    HW250060   1.272   9.696   1.835
82741SOL     OW50061   1.476  12.872   1.611
82741SOL    HW150062   1.505  12.908   1.528
82741SOL    HW250063   1.549  12.885   1.671
82742SOL     OW50064   6.306  13.912  12.205
82742SOL    HW150065   6.303  13.944  12.296
82742SOL    HW250066   6.386  13.860  12.201
82743SOL     OW50067  11.811  13.732   1.308
82743SOL    HW150068  11.875  13.662   1.323
82743SOL    HW250069  11.731  13.686   1.282
82744SOL     OW50070   3.035   8.592   6.027
82744SOL    HW150071   3.104   8.580   6.093
82744SOL    HW250072   3.073   8.555   5.947
82745SOL     OW50073  13.613   4.898  10.738
82745SOL    HW150074  13.563   4.911  10.657
82745SOL    HW250075  13.599   4.806  10.760
82746SOL     OW50076   9.105  12.415   7.235
82746SOL    HW150077   9.144  12.499   7.260
82746SOL    HW250078   9.120  12.409   7.141
82747SOL     OW50079  14.480   3.394   4.368
82747SOL    HW150080  14.507   3.310   4.330
82747SOL    HW250081  14.396   3.375   4.411
82748SOL     OW50082  10.191  11.347  14.030
82748SOL    HW150083  10.204  11.366  13.937
82748SOL    HW250084  10.279  11.354  14.068
82749SOL     OW50085   1.046   8.962   6.111
82749SOL    HW150086   1.061   8.922   6.197
82749SOL    HW250087   0.994   9.040   6.130
82750SOL     OW50088   7.614  11.389   7.346
82750SOL    HW150089   7.597  11.336   7.424
82750SOL    HW250090   7.535  11.378   7.293
82751SOL     OW50091   2.290   4.715  11.449
82751SOL    HW150092   2.307   4.744  11.539
82751SOL    HW250093   2.214   4.766  11.422
82752SOL     OW50094   6.508  12.455   4.387
82752SOL    HW150095   6.438  12.446   4.322
82752SOL    HW250096   6.518  12.366   4.422
82753SOL     OW50097   7.954  13.363  12.972
82753SOL    HW150098   7.957  13.423  13.046
82753SOL    HW250099   7.959  13.276  13.010
82754SOL     OW50100   1.995   6.924   5.954
82754SOL    HW150101   2.077   6.944   5.999
82754SOL    HW250102   1.934   6.992   5.985
82755SOL     OW50103  14.659   0.733   9.312
82755SOL    HW150104  14.596   0.663   9.298
82755SOL    HW250105  14.723   0.723   9.242
82756SOL     OW50106   7.483   1.998   3.102
82756SOL    HW150107   7.514   2.018   3.191
82756SOL    HW250108   7.499   1.905   3.091
82757SOL     OW50109   5.900   7.642   2.925
82757SOL    HW150110   5.948   7.670   3.003
82757SOL    HW250111   5.966   7.603   2.869
82758SOL     OW50112   5.823  12.773  10.149
82758SOL    HW150113   5.866  12.702  10.101
82758SOL    HW250114   5.773  12.820  10.084
82759SOL     OW50115   5.135   8.815   2.866
82759SOL    HW150116   5.191   8.879   2.823
82759SOL    HW250117   5.194   8.747   2.897
82760SOL     OW50118   3.181  13.586  12.466
82760SOL    HW150119   3.269  13.561  12.436
82760SOL    HW250120   3.176  13.680  12.451
82761SOL     OW50121   5.937   7.967  11.764
82761SOL    HW150122   5.901   7.925  11.686
82761SOL    HW250123   5.865   8.020  11.799
82762SOL     OW50124  14.026   0.339  13.792
82762SOL    HW150125  14.027   0.418  13.738
82762SOL    HW250126  14.118   0.319  13.808
82763SOL     OW50127   7.919   4.014   3.332
82763SOL    HW150128   7.975   4.019   3.254
82763SOL    HW250129   7.885   4.102   3.343
82764SOL     OW50130  11.143   2.937   1.275
82764SOL    HW150131  11.062   2.910   1.233
82764SOL    HW250132  11.126   2.928   1.369
82765SOL     OW50133   2.603   7.485  11.310
82765SOL    HW150134   2.511   7.508  11.301
82765SOL    HW250135   2.649   7.569  11.314
82766SOL     OW50136  11.047   0.073   9.140
82766SOL    HW150137  10.993  14.875   9.122
82766SOL    HW250138  10.987   0.147   9.136
82767SOL     OW50139   1.182  14.567   1.656
82767SOL    HW150140   1.207  14.558   1.748
82767SOL    HW250141   1.090  14.591   1.659
82768SOL     OW50142   3.890   2.287  11.729
82768SOL    HW150143   3.797   2.298  11.747
82768SOL    HW250144   3.917   2.214  11.785
82769SOL     OW50145  11.642  12.265  10.790
82769SOL    HW150146  11.590  12.288  10.713
82769SOL    HW250147  11.587  12.291  10.864
82770SOL     OW50148   8.223   8.876   7.604
82770SOL    HW150149   8.229   8.812   7.675
82770SOL    HW250150   8.291   8.941   7.624
82771SOL     OW50151   8.220   2.582   9.206
82771SOL    HW150152   8.279   2.658   9.203
82771SOL    HW250153   8.256   2.522   9.140
82772SOL     OW50154  10.125   4.152   9.521
82772SOL    HW150155  10.140   4.128   9.429
82772SOL    HW250156  10.213   4.161   9.557
82773SOL     OW50157  13.209  14.313   7.541
82773SOL    HW150158  13.241  14.260   7.614
82773SOL    HW250159  13.232  14.403   7.565
82774SOL     OW50160   6.551  13.700   7.716
82774SOL    HW150161   6.607  13.624   7.727
82774SOL    HW250162   6.471  13.666   7.675
82775SOL     OW50163   0.247   0.358   6.438
82775SOL    HW150164   0.267   0.402   6.356
82775SOL    HW250165   0.210   0.426   6.494
82776SOL     OW50166   3.730   1.914  13.911
82776SOL    HW150167   3.655   1.888  13.965
82776SOL    HW250168   3.767   1.831  13.881
82777SOL     OW50169   3.626  13.859   7.408
82777SOL    HW150170   3.547  13.845   7.356
82777SOL    HW250171   3.654  13.948   7.385
82778SOL     OW50172   3.074   1.856  13.355
82778SOL    HW150173   3.164   1.827  13.343
82778SOL    HW250174   3.028   1.779  13.390
82779SOL     OW50175  13.676  11.738   2.053
82779SOL    HW150176  13.615  11.686   1.999
82779SOL    HW250177  13.745  11.676   2.076
82780SOL     OW50178   9.340   1.315  13.772
82780SOL    HW150179   9.277   1.243  13.782
82780SOL    HW250180   9.309   1.382  13.833
82781SOL     OW50181   4.645   3.871   1.705
82781SOL    HW150182   4.565   3.822   1.722
82781SOL    HW250183   4.665   3.853   1.613
82782SOL     OW50184   5.849   1.549   0.962
82782SOL    HW150185   5.848   1.482   0.893
82782SOL    HW250186   5.917   1.520   1.022
82783SOL     OW50187   0.108   7.705   7.124
82783SOL    HW150188   0.070   7.793   7.130
82783SOL    HW250189   0.182   7.715   7.063
82784SOL     OW50190   2.229   3.060   4.499
82784SOL    HW150191   2.274   2.976   4.496
82784SOL    HW250192   2.295   3.124   4.474
82785SOL     OW50193  13.032   3.587   9.962
82785SOL    HW150194  13.125   3.572   9.945
82785SOL    HW250195  13.025   3.681   9.977
82786SOL     OW50196   6.825  10.217   9.044
82786SOL    HW150197   6.874  10.293   9.075
82786SOL    HW250198   6.741  10.252   9.016
82787SOL     OW50199  11.801   0.926   2.916
82787SOL    HW150200  11.796   0.984   2.840
82787SOL    HW250201  11.894   0.918   2.935
82788SOL     OW50202  13.623   4.224  14.581
82788SOL    HW150203  13.563   4.287  14.540
82788SOL    HW250204  13.565   4.157  14.619
82789SOL     OW50205   1.855   7.825   7.478
82789SOL    HW150206   1.823   7.799   7.391
82789SOL    HW250207   1.905   7.749   7.509
82790SOL     OW50208   9.185   8.442   7.949
82790SOL    HW150209   9.125   8.515   7.933
82790SOL    HW250210   9.226   8.425   7.864
82791SOL     OW50211   8.211   6.955   7.316
82791SOL    HW150212   8.257   6.881   7.277
82791SOL    HW250213   8.179   7.006   7.241
82792SOL     OW50214   4.097   7.833  13.509
82792SOL    HW150215   4.189   7.815  13.531
82792SOL    HW250216   4.100   7.916  13.460
82793SOL     OW50217  14.004   2.484   0.785
82793SOL    HW150218  13.962   2.570   0.790
82793SOL    HW250219  13.932   2.423   0.771
82794SOL     OW50220   2.183  13.367   6.735
82794SOL    HW150221   2.109  13.330   6.783
82794SOL    HW250222   2.256  13.309   6.755
82795SOL     OW50223   4.981  14.751  10.549
82795SOL    HW150224   4.979  14.674  10.492
82795SOL    HW250225   5.048  14.731  10.615
82796SOL     OW50226   9.131  11.867   7.373
82796SOL    HW150227   9.183  11.909   7.305
82796SOL    HW250228   9.081  11.800   7.327
82797SOL     OW50229   7.449  14.274  13.251
82797SOL    HW150230   7.433  14.329  13.327
82797SOL    HW250231   7.534  14.233  13.268
82798SOL     OW50232   5.271   5.564  10.626
82798SOL    HW150233   5.353   5.515  10.631
82798SOL    HW250234   5.214   5.511  10.571
82799SOL     OW50235   3.274   8.477   9.984
82799SOL    HW150236   3.208   8.518  10.041
82799SOL    HW250237   3.357   8.492  10.030
82800SOL     OW50238   5.393   5.106   5.834
82800SOL    HW150239   5.436   5.190   5.815
82800SOL    HW250240   5.375   5.109   5.927
82801SOL     OW50241   0.478   6.065   8.540
82801SOL    HW150242   0.426   6.091   8.615
82801SOL    HW250243   0.476   5.969   8.541
82802SOL     OW50244  13.810  10.313   1.240
82802SOL    HW150245  13.724  10.286   1.208
82802SOL    HW250246  13.801  10.318   1.335
82803SOL     OW50247  11.742   2.097  13.530
82803SOL    HW150248  11.805   2.046  13.581
82803SOL    HW250249  11.748   2.060  13.442
82804SOL     OW50250   1.931   4.510   8.406
82804SOL    HW150251   1.967   4.557   8.331
82804SOL    HW250252   1.992   4.529   8.478
82805SOL     OW50253   5.815   1.986  11.842
82805SOL    HW150254   5.754   1.962  11.772
82805SOL    HW250255   5.884   1.919  11.837
82806SOL     OW50256   0.056  11.482   2.665
82806SOL    HW150257   0.144  11.479   2.627
82806SOL    HW250258  14.877  11.465   2.591
82807SOL     OW50259  12.101   6.694  10.939
82807SOL    HW150260  12.121   6.738  10.856
82807SOL    HW250261  12.185   6.659  10.969
82808SOL     OW50262   5.425   3.289   3.015
82808SOL    HW150263   5.511   3.282   2.974
82808SOL    HW250264   5.428   3.372   3.064
82809SOL     OW50265   0.075   0.112   9.217
82809SOL    HW150266   0.086   0.061   9.297
82809SOL    HW250267  14.860   0.127   9.211
82810SOL     OW50268   7.225   8.628   6.499
82810SOL    HW150269   7.182   8.640   6.414
82810SOL    HW250270   7.314   8.599   6.476
82811SOL     OW50271  13.169   6.518  12.787
82811SOL    HW150272  13.198   6.610  12.782
82811SOL    HW250273  13.163   6.490  12.696
82812SOL     OW50274  14.705  11.093  12.012
82812SOL    HW150275  14.762  11.019  11.991
82812SOL    HW250276  14.673  11.124  11.928
82813SOL     OW50277   3.597   8.406   3.071
82813SOL    HW150278   3.523   8.462   3.048
82813SOL    HW250279   3.654   8.407   2.994
82814SOL     OW50280  10.272  10.415  13.428
82814SOL    HW150281  10.241  10.332  13.394
82814SOL    HW250282  10.193  10.467  13.443
82815SOL     OW50283   7.127  11.964   8.042
82815SOL    HW150284   7.064  11.895   8.020
82815SOL    HW250285   7.210  11.932   8.008
82816SOL     OW50286  11.544   6.259   7.548
82816SOL    HW150287  11.457   6.298   7.559
82816SOL    HW250288  11.559   6.261   7.453
82817SOL     OW50289   8.596   5.753  12.437
82817SOL    HW150290   8.533   5.784  12.502
82817SOL    HW250291   8.681   5.764  12.480
82818SOL     OW50292   3.571   3.653   2.560
82818SOL    HW150293   3.521   3.653   2.478
82818SOL    HW250294   3.662   3.659   2.532
82819SOL     OW50295  13.167   5.122   0.671
82819SOL    HW150296  13.196   5.121   0.579
82819SOL    HW250297  13.081   5.163   0.668
82820SOL     OW50298   5.025  14.133   3.368
82820SOL    HW150299   5.016  14.228   3.365
82820SOL    HW250300   5.102  14.114   3.314
82821SOL     OW50301   1.546   0.076   1.074
82821SOL    HW150302   1.499   0.066   1.157
82821SOL    HW250303   1.566  14.866   1.047
82822SOL     OW50304   6.818  10.672  10.027
82822SOL    HW150305   6.914  10.666  10.028
82822SOL    HW250306   6.789  10.588  10.063
82823SOL     OW50307   0.517   2.388   4.551
82823SOL    HW150308   0.430   2.348   4.552
82823SOL    HW250309   0.559   2.353   4.472
82824SOL     OW50310   6.522   3.003   7.285
82824SOL    HW150311   6.455   3.069   7.301
82824SOL    HW250312   6.473   2.921   7.272
82825SOL     OW50313   2.099   6.637  10.669
82825SOL    HW150314   2.113   6.566  10.733
82825SOL    HW250315   2.017   6.677  10.696
82826SOL     OW50316  14.480   1.063   0.481
82826SOL    HW150317  14.453   1.031   0.395
82826SOL    HW250318  14.498   0.985   0.532
82827SOL     OW50319   8.241  10.730   0.079
82827SOL    HW150320   8.186  10.807   0.095
82827SOL    HW250321   8.263  10.698   0.167
82828SOL     OW50322   7.029   8.037   7.115
82828SOL    HW150323   7.081   8.022   7.194
82828SOL    HW250324   7.092   8.071   7.051
82829SOL     OW50325   1.015  13.238   4.037
82829SOL    HW150326   0.943  13.219   4.099
82829SOL    HW250327   1.093  13.205   4.081
82830SOL     OW50328   7.396  11.339   4.308
82830SOL    HW150329   7.314  11.385   4.327
82830SOL    HW250330   7.441  11.394   4.244
82831SOL     OW50331   0.605  10.228  11.112
82831SOL    HW150332   0.683  10.174  11.120
82831SOL    HW250333   0.614  10.271  11.027
82832SOL     OW50334   8.432   0.986   1.065
82832SOL    HW150335   8.457   0.920   1.001
82832SOL    HW250336   8.505   0.989   1.127
82833SOL     OW50337   1.446  11.790  10.828
82833SOL    HW150338   1.471  11.752  10.744
82833SOL    HW250339   1.434  11.715  10.886
82834SOL     OW50340   9.242  11.406   3.660
82834SOL    HW150341   9.272  11.496   3.648
82834SOL    HW250342   9.147  11.411   3.654
82835SOL     OW50343  13.028   2.670  14.187
82835SOL    HW150344  13.066   2.743  14.138
82835SOL    HW250345  13.014   2.601  14.122
82836SOL     OW50346  11.322   7.904   9.325
82836SOL    HW150347  11.410   7.899   9.288
82836SOL    HW250348  11.288   7.988   9.297
82837SOL     OW50349   4.757  11.970   6.276
82837SOL    HW150350   4.782  11.923   6.355
82837SOL    HW250351   4.805  11.926   6.206
82838SOL     OW50352  14.027  12.550  11.945
82838SOL    HW150353  14.071  12.539  12.029
82838SOL    HW250354  14.005  12.462  11.917
82839SOL     OW50355   5.151   0.255   1.823
82839SOL    HW150356   5.125   0.209   1.743
82839SOL    HW250357   5.241   0.282   1.806
82840SOL     OW50358  12.237  12.038   5.582
82840SOL    HW150359  12.255  12.015   5.673
82840SOL    HW250360  12.232  12.133   5.582
82841SOL     OW50361   9.859  10.619  10.140
82841SOL    HW150362   9.795  10.556  10.175
82841SOL    HW250363   9.816  10.655  10.063
82842SOL     OW50364   4.749   0.431   8.815
82842SOL    HW150365   4.667   0.419   8.767
82842SOL    HW250366   4.730   0.397   8.902
82843SOL     OW50367  11.555   9.058   7.403
82843SOL    HW150368  11.594   9.133   7.357
82843SOL    HW250369  11.533   8.996   7.334
82844SOL     OW50370   6.421  14.073  10.969
82844SOL    HW150371   6.347  14.067  10.908
82844SOL    HW250372   6.498  14.058  10.915
82845SOL     OW50373   6.440   7.716   9.130
82845SOL    HW150374   6.461   7.789   9.189
82845SOL    HW250375   6.346   7.724   9.113
82846SOL     OW50376   3.558   3.812  11.515
82846SOL    HW150377   3.591   3.736  11.564
82846SOL    HW250378   3.493   3.851  11.574
82847SOL     OW50379   5.962   9.552   4.387
82847SOL    HW150380   5.986   9.578   4.476
82847SOL    HW250381   6.041   9.567   4.335
82848SOL     OW50382   1.126   7.732  13.829
82848SOL    HW150383   1.206   7.717  13.778
82848SOL    HW250384   1.090   7.645  13.844
82849SOL     OW50385   7.609   7.585  10.842
82849SOL    HW150386   7.545   7.542  10.898
82849SOL    HW250387   7.619   7.525  10.767
82850SOL     OW50388   7.374   1.355   5.364
82850SOL    HW150389   7.352   1.438   5.323
82850SOL    HW250390   7.446   1.321   5.310
82851SOL     OW50391  12.278   6.600  12.320
82851SOL    HW150392  12.305   6.521  12.368
82851SOL    HW250393  12.358   6.631  12.277
82852SOL     OW50394  11.942  13.534   6.440
82852SOL    HW150395  11.896  13.616   6.459
82852SOL    HW250396  11.892  13.467   6.488
82853SOL     OW50397   2.200   5.486  12.362
82853SOL    HW150398   2.265   5.416  12.352
82853SOL    HW250399   2.173   5.480  12.454
82854SOL     OW50400   6.473  14.457  10.074
82854SOL    HW150401   6.508  14.522  10.135
82854SOL    HW250402   6.517  14.475   9.991
82855SOL     OW50403   5.596   5.823   3.070
82855SOL    HW150404   5.681   5.802   3.033
82855SOL    HW250405   5.543   5.850   2.995
82856SOL     OW50406   8.646   3.772   0.918
82856SOL    HW150407   8.590   3.807   0.849
82856SOL    HW250408   8.634   3.831   0.992
82857SOL     OW50409  11.462   7.944   4.048
82857SOL    HW150410  11.405   7.991   3.988
82857SOL    HW250411  11.544   7.994   4.047
82858SOL     OW50412   0.118  13.644   0.409
82858SOL    HW150413   0.061  13.574   0.377
82858SOL    HW250414   0.206  13.607   0.408
82859SOL     OW50415   9.848  14.484  12.537
82859SOL    HW150416   9.837  14.502  12.630
82859SOL    HW250417   9.811  14.396  12.525
82860SOL     OW50418   2.209  11.008   5.963
82860SOL    HW150419   2.193  10.925   6.008
82860SOL    HW250420   2.178  11.075   6.024
82861SOL     OW50421  11.172   1.719   6.074
82861SOL    HW150422  11.128   1.634   6.074
82861SOL    HW250423  11.258   1.702   6.111
82862SOL     OW50424   7.235   1.577   3.744
82862SOL    HW150425   7.182   1.646   3.702
82862SOL    HW250426   7.252   1.610   3.832
82863SOL     OW50427  12.515   0.539   9.549
82863SOL    HW150428  12.460   0.482   9.494
82863SOL    HW250429  12.538   0.612   9.492
82864SOL     OW50430   9.900  11.241   0.141
82864SOL    HW150431   9.920  11.305   0.073
82864SOL    HW250432   9.836  11.285   0.197
82865SOL     OW50433   3.693   8.983   6.467
82865SOL    HW150434   3.641   8.997   6.388
82865SOL    HW250435   3.629   8.955   6.533
82866SOL     OW50436   8.552   7.763   0.515
82866SOL    HW150437   8.617   7.752   0.446
82866SOL    HW250438   8.528   7.855   0.512
82867SOL     OW50439   6.841   5.288   2.494
82867SOL    HW150440   6.825   5.306   2.587
82867SOL    HW250441   6.775   5.340   2.448
82868SOL     OW50442   2.492  11.688  10.336
82868SOL    HW150443   2.527  11.774  10.358
82868SOL    HW250444   2.557  11.650  10.277
82869SOL     OW50445  10.733  10.867   5.624
82869SOL    HW150446  10.825  10.842   5.637
82869SOL    HW250447  10.731  10.960   5.645
82870SOL     OW50448  10.374  14.224  11.986
82870SOL    HW150449  10.415  14.181  12.060
82870SOL    HW250450  10.282  14.230  12.009
82871SOL     OW50451  14.515  13.587  13.411
82871SOL    HW150452  14.444  13.595  13.347
82871SOL    HW250453  14.570  13.663  13.396
82872SOL     OW50454   3.858   6.057   3.735
82872SOL    HW150455   3.837   6.145   3.765
82872SOL    HW250456   3.938   6.069   3.683
82873SOL     OW50457  10.807   4.396   0.803
82873SOL    HW150458  10.743   4.328   0.784
82873SOL    HW250459  10.798   4.459   0.732
82874SOL     OW50460   0.460   5.944   9.009
82874SOL    HW150461   0.541   5.985   9.040
82874SOL    HW250462   0.430   6.000   8.938
82875SOL     OW50463  14.295   8.538  12.437
82875SOL    HW150464  14.225   8.561  12.498
82875SOL    HW250465  14.368   8.513  12.493
82876SOL     OW50466   5.248   6.437   9.278
82876SOL    HW150467   5.169   6.385   9.298
82876SOL    HW250468   5.214   6.520   9.247
82877SOL     OW50469   0.388  14.518  13.935
82877SOL    HW150470   0.335  14.587  13.974
82877SOL    HW250471   0.425  14.557  13.855
82878SOL     OW50472  11.216   5.634   5.943
82878SOL    HW150473  11.169   5.696   5.998
82878SOL    HW250474  11.260   5.576   6.005
82879SOL     OW50475  10.458  14.799  14.293
82879SOL    HW150476  10.379  14.835  14.334
82879SOL    HW250477  10.494  14.739  14.358
82880SOL     OW50478   3.755  11.225  13.213
82880SOL    HW150479   3.708  11.184  13.141
82880SOL    HW250480   3.799  11.300  13.174
82881SOL     OW50481   9.953   0.298  10.337
82881SOL    HW150482   9.866   0.260  10.329
82881SOL    HW250483  10.012   0.223  10.344
82882SOL     OW50484   8.578  10.112   5.376
82882SOL    HW150485   8.663  10.072   5.395
82882SOL    HW250486   8.579  10.195   5.425
82883SOL     OW50487  13.820   7.364  13.133
82883SOL    HW150488  13.733   7.374  13.094
82883SOL    HW250489  13.835   7.447  13.178
82884SOL     OW50490   8.944  10.931   5.726
82884SOL    HW150491   8.933  10.837   5.735
82884SOL    HW250492   8.989  10.959   5.806
82885SOL     OW50493  10.440   3.958  13.693
82885SOL    HW150494  10.499   3.970  13.767
82885SOL    HW250495  10.402   4.045  13.678
82886SOL     OW50496   7.281  11.134   6.215
82886SOL    HW150497   7.212  11.200   6.225
82886SOL    HW250498   7.287  11.120   6.121
82887SOL     OW50499   7.653  12.794   0.592
82887SOL    HW150500   7.727  12.745   0.628
82887SOL    HW250501   7.662  12.784   0.497
82888SOL     OW50502   4.395   5.677   2.152
82888SOL    HW150503   4.333   5.627   2.099
82888SOL    HW250504   4.358   5.674   2.240
82889SOL     OW50505   9.620  13.270   2.585
82889SOL    HW150506   9.534  13.294   2.620
82889SOL    HW250507   9.658  13.353   2.556
82890SOL     OW50508   2.234   6.036   0.882
82890SOL    HW150509   2.284   5.955   0.877
82890SOL    HW250510   2.143   6.009   0.870
82891SOL     OW50511   0.148   5.233  13.942
82891SOL    HW150512   0.227   5.183  13.925
82891SOL    HW250513   0.076   5.176  13.914
82892SOL     OW50514   3.946   5.753   2.740
82892SOL    HW150515   4.014   5.711   2.688
82892SOL    HW250516   3.954   5.714   2.827
82893SOL     OW50517  14.661   3.400   5.591
82893SOL    HW150518  14.654   3.399   5.495
82893SOL    HW250519  14.653   3.308   5.616
82894SOL     OW50520   0.740   4.164  11.509
82894SOL    HW150521   0.783   4.102  11.568
82894SOL    HW250522   0.646   4.146  11.520
82895SOL     OW50523   7.686  12.595  10.539
82895SOL    HW150524   7.694  12.622  10.631
82895SOL    HW250525   7.710  12.673  10.489
82896SOL     OW50526   4.563   1.704   4.836
82896SOL    HW150527   4.654   1.690   4.862
82896SOL    HW250528   4.562   1.792   4.798
82897SOL     OW50529   5.126  12.999  10.693
82897SOL    HW150530   5.180  13.052  10.635
82897SOL    HW250531   5.065  13.062  10.732
82898SOL     OW50532   8.512   1.293   0.610
82898SOL    HW150533   8.602   1.306   0.579
82898SOL    HW250534   8.457   1.321   0.537
82899SOL     OW50535   6.555   2.407  10.323
82899SOL    HW150536   6.571   2.367  10.238
82899SOL    HW250537   6.491   2.350  10.366
82900SOL     OW50538  10.068   5.850  11.623
82900SOL    HW150539  10.121   5.820  11.697
82900SOL    HW250540  10.045   5.769  11.576
82901SOL     OW50541   7.795   4.099   3.853
82901SOL    HW150542   7.719   4.062   3.898
82901SOL    HW250543   7.758   4.150   3.781
82902SOL     OW50544  13.418  10.316   5.248
82902SOL    HW150545  13.412  10.244   5.310
82902SOL    HW250546  13.507  10.350   5.257
82903SOL     OW50547   4.249  12.082   7.862
82903SOL    HW150548   4.241  12.121   7.949
82903SOL    HW250549   4.321  12.019   7.870
82904SOL     OW50550   1.601  12.269  13.868
82904SOL    HW150551   1.531  12.329  13.844
82904SOL    HW250552   1.659  12.268  13.792
82905SOL     OW50553   2.556  10.116   8.668
82905SOL    HW150554   2.572  10.034   8.716
82905SOL    HW250555   2.460  10.124   8.667
82906SOL     OW50556   3.990   6.773   9.857
82906SOL    HW150557   4.079   6.764   9.823
82906SOL    HW250558   3.987   6.713   9.931
82907SOL     OW50559   9.268   0.327  14.119
82907SOL    HW150560   9.213   0.253  14.095
82907SOL    HW250561   9.341   0.325  14.057
82908SOL     OW50562   3.517  13.584  10.859
82908SOL    HW150563   3.531  13.646  10.930
82908SOL    HW250564   3.439  13.535  10.884
82909SOL     OW50565   5.550   3.349   5.185
82909SOL    HW150566   5.582   3.307   5.105
82909SOL    HW250567   5.547   3.278   5.249
82910SOL     OW50568  14.756  13.852  10.164
82910SOL    HW150569  14.713  13.774  10.129
82910SOL    HW250570  14.689  13.920  10.162
82911SOL     OW50571   8.599   4.822  11.402
82911SOL    HW150572   8.602   4.907  11.446
82911SOL    HW250573   8.689   4.808  11.372
82912SOL     OW50574   4.310   5.757   2.975
82912SOL    HW150575   4.238   5.696   2.993
82912SOL    HW250576   4.336   5.738   2.885
82913SOL     OW50577   5.889   7.284   4.380
82913SOL    HW150578   5.950   7.315   4.448
82913SOL    HW250579   5.914   7.193   4.364
82914SOL     OW50580   2.313   3.282   1.520
82914SOL    HW150581   2.242   3.220   1.504
82914SOL    HW250582   2.287   3.329   1.600
82915SOL     OW50583  12.046  10.142   8.059
82915SOL    HW150584  12.083  10.083   7.994
82915SOL    HW250585  12.078  10.229   8.034
82916SOL     OW50586  14.066   9.688  14.230
82916SOL    HW150587  14.132   9.621  14.214
82916SOL    HW250588  14.028   9.706  14.143
82917SOL     OW50589   1.856   6.132   1.684
82917SOL    HW150590   1.945   6.105   1.659
82917SOL    HW250591   1.864   6.226   1.703
82918SOL     OW50592   4.908   9.676   8.415
82918SOL    HW150593   4.887   9.653   8.324
82918SOL    HW250594   5.001   9.656   8.423
82919SOL     OW50595   3.564  11.923   5.512
82919SOL    HW150596   3.573  11.832   5.486
82919SOL    HW250597   3.654  11.953   5.526
82920SOL     OW50598  14.030  12.296  10.026
82920SOL    HW150599  14.058  12.302  10.117
82920SOL    HW250600  14.061  12.211   9.996
82921SOL     OW50601  12.247  13.052  12.687
82921SOL    HW150602  12.266  12.971  12.735
82921SOL    HW250603  12.315  13.057  12.620
82922SOL     OW50604   2.302   6.053  14.048
82922SOL    HW150605   2.329   5.966  14.020
82922SOL    HW250606   2.380   6.090  14.090
82923SOL     OW50607   6.902   5.280   5.050
82923SOL    HW150608   6.937   5.366   5.026
82923SOL    HW250609   6.834   5.299   5.115
82924SOL     OW50610   2.144  11.610   3.421
82924SOL    HW150611   2.147  11.545   3.351
82924SOL    HW250612   2.222  11.664   3.409
82925SOL     OW50613   7.476  11.627  14.657
82925SOL    HW150614   7.415  11.587  14.718
82925SOL    HW250615   7.441  11.715  14.642
82926SOL     OW50616   1.711   8.171   2.010
82926SOL    HW150617   1.733   8.212   1.926
82926SOL    HW250618   1.751   8.084   2.005
82927SOL     OW50619  10.262   7.789   1.135
82927SOL    HW150620  10.341   7.842   1.147
82927SOL    HW250621  10.196   7.850   1.104
82928SOL     OW50622  10.963   6.223   9.303
82928SOL    HW150623  10.923   6.171   9.234
82928SOL    HW250624  10.926   6.311   9.293
82929SOL     OW50625  12.982   0.213  14.029
82929SOL    HW150626  12.894   0.180  14.046
82929SOL    HW250627  13.020   0.150  13.967
82930SOL     OW50628   3.842   3.564  13.663
82930SOL    HW150629   3.914   3.545  13.603
82930SOL    HW250630   3.840   3.660  13.667
82931SOL     OW50631   2.388   0.497   9.718
82931SOL    HW150632   2.336   0.464   9.644
82931SOL    HW250633   2.475   0.462   9.703
82932SOL     OW50634   6.991   2.311   1.142
82932SOL    HW150635   6.945   2.359   1.210
82932SOL    HW250636   7.076   2.291   1.181
82933SOL     OW50637  10.837   1.280   8.195
82933SOL    HW150638  10.784   1.217   8.147
82933SOL    HW250639  10.779   1.311   8.265
82934SOL     OW50640   6.265   5.318   2.807
82934SOL    HW150641   6.328   5.343   2.875
82934SOL    HW250642   6.181   5.315   2.852
82935SOL     OW50643  10.088  14.511  11.666
82935SOL    HW150644  10.183  14.510  11.650
82935SOL    HW250645  10.072  14.435  11.722
82936SOL     OW50646  13.159   7.628  14.757
82936SOL    HW150647  13.189   7.578  14.832
82936SOL    HW250648  13.171   7.720  14.782
82937SOL     OW50649  12.849  14.367   5.505
82937SOL    HW150650  12.782  14.322   5.453
82937SOL    HW250651  12.826  14.460   5.498
82938SOL     OW50652   1.748   2.434  14.556
82938SOL    HW150653   1.689   2.500  14.521
82938SOL    HW250654   1.833   2.456  14.520
82939SOL     OW50655   1.306   8.138  10.220
82939SOL    HW150656   1.337   8.050  10.199
82939SOL    HW250657   1.259   8.127  10.303
82940SOL     OW50658   9.930   8.991   6.144
82940SOL    HW150659   9.870   9.036   6.085
82940SOL    HW250660   9.918   8.898   6.126
82941SOL     OW50661   3.946   2.477  10.893
82941SOL    HW150662   3.963   2.559  10.939
82941SOL    HW250663   3.876   2.435  10.942
82942SOL     OW50664  13.340   4.736  10.248
82942SOL    HW150665  13.393   4.657  10.239
82942SOL    HW250666  13.281   4.735  10.173
82943SOL     OW50667  10.745   2.400   2.184
82943SOL    HW150668  10.685   2.329   2.206
82943SOL    HW250669  10.703   2.479   2.217
82944SOL     OW50670  10.886  11.906   8.863
82944SOL    HW150671  10.971  11.940   8.890
82944SOL    HW250672  10.828  11.925   8.937
82945SOL     OW50673   1.336  14.030   9.079
82945SOL    HW150674   1.368  13.986   9.000
82945SOL    HW250675   1.387  14.110   9.084
82946SOL     OW50676  11.038   0.028   5.608
82946SOL    HW150677  11.116  14.871   5.567
82946SOL    HW250678  10.993  14.832   5.647
82947SOL     OW50679   7.863   8.468  10.333
82947SOL    HW150680   7.894   8.492  10.246
82947SOL    HW250681   7.802   8.538  10.357
82948SOL     OW50682   3.542  13.999   7.051
82948SOL    HW150683   3.630  14.036   7.055
82948SOL    HW250684   3.527  13.980   6.959
82949SOL     OW50685   2.194   3.180   0.646
82949SOL    HW150686   2.264   3.118   0.668
82949SOL    HW250687   2.122   3.156   0.704
82950SOL     OW50688   4.794   7.039   9.903
82950SOL    HW150689   4.739   7.052   9.981
82950SOL    HW250690   4.736   6.996   9.840
82951SOL     OW50691   4.053   3.898   7.509
82951SOL    HW150692   4.080   3.988   7.527
82951SOL    HW250693   4.109   3.871   7.435
82952SOL     OW50694   8.082   4.502   5.663
82952SOL    HW150695   7.999   4.545   5.642
82952SOL    HW250696   8.074   4.414   5.628
82953SOL     OW50697   3.331   1.907   5.323
82953SOL    HW150698   3.296   1.819   5.329
82953SOL    HW250699   3.404   1.900   5.261
82954SOL     OW50700   7.475   9.534   9.837
82954SOL    HW150701   7.385   9.517   9.864
82954SOL    HW250702   7.503   9.453   9.793
82955SOL     OW50703  10.481   1.425   3.597
82955SOL    HW150704  10.415   1.491   3.575
82955SOL    HW250705  10.565   1.469   3.584
82956SOL     OW50706  12.077  13.945   2.135
82956SOL    HW150707  11.982  13.933   2.138
82956SOL    HW250708  12.109  13.898   2.213
82957SOL     OW50709   0.485  12.410  13.648
82957SOL    HW150710   0.423  12.483  13.642
82957SOL    HW250711   0.503  12.386  13.557
82958SOL     OW50712   5.222   2.464   7.309
82958SOL    HW150713   5.146   2.498   7.356
82958SOL    HW250714   5.185   2.431   7.227
82959SOL     OW50715  12.207  10.529   3.816
82959SOL    HW150716  12.189  10.574   3.733
82959SOL    HW250717  12.303  10.531   3.823
82960SOL     OW50718   4.982   5.091   5.037
82960SOL    HW150719   5.056   5.031   5.026
82960SOL    HW250720   5.011   5.153   5.104
82961SOL     OW50721   5.514  12.937   6.776
82961SOL    HW150722   5.592  12.945   6.721
82961SOL    HW250723   5.491  13.027   6.799
82962SOL     OW50724  11.913   6.747   2.279
82962SOL    HW150725  11.963   6.826   2.303
82962SOL    HW250726  11.830   6.781   2.247
82963SOL     OW50727   5.223   9.272   9.872
82963SOL    HW150728   5.174   9.351   9.846
82963SOL    HW250729   5.234   9.281   9.967
82964SOL     OW50730  10.913   5.788  14.739
82964SOL    HW150731  10.861   5.724  14.691
82964SOL    HW250732  10.971   5.827  14.673
82965SOL     OW50733   6.977  10.475   9.756
82965SOL    HW150734   7.059  10.450   9.712
82965SOL    HW250735   6.920  10.399   9.746
82966SOL     OW50736   8.640  13.020  13.330
82966SOL    HW150737   8.667  12.935  13.365
82966SOL    HW250738   8.635  13.007  13.236
82967SOL     OW50739   3.625   4.514   6.780
82967SOL    HW150740   3.686   4.586   6.796
82967SOL    HW250741   3.637   4.492   6.688
82968SOL     OW50742   9.595   7.683   9.133
82968SOL    HW150743   9.597   7.751   9.065
82968SOL    HW250744   9.625   7.728   9.212
82969SOL     OW50745   8.233   8.183   1.753
82969SOL    HW150746   8.153   8.230   1.773
82969SOL    HW250747   8.240   8.186   1.657
82970SOL     OW50748   2.105  11.206   2.602
82970SOL    HW150749   2.194  11.188   2.571
82970SOL    HW250750   2.087  11.296   2.572
82971SOL     OW50751  10.455   3.988  12.983
82971SOL    HW150752  10.531   4.042  12.962
82971SOL    HW250753  10.486   3.927  13.050
82972SOL     OW50754   3.161   2.342  13.152
82972SOL    HW150755   3.151   2.248  13.165
82972SOL    HW250756   3.179   2.351  13.058
82973SOL     OW50757   3.518  11.453   5.922
82973SOL    HW150758   3.556  11.439   6.009
82973SOL    HW250759   3.577  11.516   5.880
82974SOL     OW50760   2.960   8.013   3.787
82974SOL    HW150761   2.939   7.924   3.759
82974SOL    HW250762   3.018   8.001   3.862
82975SOL     OW50763   4.649  14.632  12.376
82975SOL    HW150764   4.690  14.657  12.293
82975SOL    HW250765   4.708  14.567  12.413
82976SOL     OW50766   4.283   3.391  14.813
82976SOL    HW150767   4.260   3.413  14.723
82976SOL    HW250768   4.378   3.395  14.815
82977SOL     OW50769   2.116   1.976  14.407
82977SOL    HW150770   2.126   2.065  14.441
82977SOL    HW250771   2.114   1.921  14.485
82978SOL     OW50772   5.853   9.621   6.445
82978SOL    HW150773   5.820   9.589   6.361
82978SOL    HW250774   5.776   9.658   6.488
82979SOL     OW50775  10.138   0.675   0.758
82979SOL    HW150776  10.064   0.633   0.712
82979SOL    HW250777  10.189   0.601   0.792
82980SOL     OW50778  12.908   2.794   2.519
82980SOL    HW150779  12.925   2.874   2.569
82980SOL    HW250780  12.830   2.757   2.560
82981SOL     OW50781   7.597   0.635   7.242
82981SOL    HW150782   7.510   0.618   7.279
82981SOL    HW250783   7.592   0.725   7.209
82982SOL     OW50784   0.394   4.888   4.637
82982SOL    HW150785   0.458   4.866   4.705
82982SOL    HW250786   0.426   4.970   4.600
82983SOL     OW50787   2.032   7.604   7.854
82983SOL    HW150788   2.077   7.567   7.930
82983SOL    HW250789   2.048   7.541   7.784
82984SOL     OW50790  13.030  14.076   2.615
82984SOL    HW150791  13.004  13.986   2.595
82984SOL    HW250792  12.970  14.103   2.685
82985SOL     OW50793   2.229   2.391  12.794
82985SOL    HW150794   2.272   2.449  12.856
82985SOL    HW250795   2.135   2.403  12.811
82986SOL     OW50796  13.843   3.878  14.074
82986SOL    HW150797  13.800   3.796  14.053
82986SOL    HW250798  13.926   3.876  14.025
82987SOL     OW50799   6.617  12.350  10.100
82987SOL    HW150800   6.538  12.338  10.154
82987SOL    HW250801   6.588  12.331  10.011
82988SOL     OW50802   0.625   9.307  13.158
82988SOL    HW150803   0.565   9.233  13.149
82988SOL    HW250804   0.567   9.384  13.163
82989SOL     OW50805   8.261  13.232   8.432
82989SOL    HW150806   8.255  13.144   8.469
82989SOL    HW250807   8.355  13.247   8.423
82990SOL     OW50808  12.016   2.309   3.346
82990SOL    HW150809  12.043   2.228   3.304
82990SOL    HW250810  12.087   2.371   3.328
82991SOL     OW50811   9.080   6.527  10.078
82991SOL    HW150812   8.989   6.505  10.060
82991SOL    HW250813   9.129   6.485  10.007
82992SOL     OW50814   0.426   0.535  12.661
82992SOL    HW150815   0.425   0.476  12.736
82992SOL    HW250816   0.498   0.504  12.607
82993SOL     OW50817   6.018  11.399   2.693
82993SOL    HW150818   6.056  11.328   2.743
82993SOL    HW250819   5.960  11.356   2.630
82994SOL     OW50820  14.269  13.990  12.826
82994SOL    HW150821  14.344  13.978  12.768
82994SOL    HW250822  14.202  14.028  12.769
82995SOL     OW50823   3.041   1.711   3.281
82995SOL    HW150824   3.047   1.694   3.187
82995SOL    HW250825   2.983   1.787   3.287
82996SOL     OW50826  14.784   1.835   9.453
82996SOL    HW150827  14.745   1.912   9.495
82996SOL    HW250828  14.872   1.864   9.428
82997SOL     OW50829  14.175   4.837   2.574
82997SOL    HW150830  14.091   4.860   2.612
82997SOL    HW250831  14.221   4.789   2.643
82998SOL     OW50832   2.048  14.147   9.083
82998SOL    HW150833   1.971  14.192   9.117
82998SOL    HW250834   2.085  14.207   9.019
82999SOL     OW50835   6.847  11.972  12.529
82999SOL    HW150836   6.850  12.062  12.561
82999SOL    HW250837   6.754  11.953  12.520
83000SOL     OW50838   1.943   9.813   4.234
83000SOL    HW150839   1.997   9.817   4.313
83000SOL    HW250840   1.855   9.793   4.266
83001SOL     OW50841   7.927   9.190   8.643
83001SOL    HW150842   7.854   9.154   8.692
83001SOL    HW250843   7.999   9.129   8.659
83002SOL     OW50844   3.462   5.084   9.125
83002SOL    HW150845   3.482   5.134   9.045
83002SOL    HW250846   3.369   5.063   9.117
83003SOL     OW50847   5.353   5.060  11.807
83003SOL    HW150848   5.354   5.050  11.902
83003SOL    HW250849   5.292   4.992  11.777
83004SOL     OW50850   2.681  14.542   1.723
83004SOL    HW150851   2.605  14.559   1.778
83004SOL    HW250852   2.675  14.448   1.703
83005SOL     OW50853   0.717   8.296   3.060
83005SOL    HW150854   0.792   8.310   3.119
83005SOL    HW250855   0.675   8.217   3.094
83006SOL     OW50856  11.211   2.957   5.120
83006SOL    HW150857  11.182   2.899   5.049
83006SOL    HW250858  11.130   2.999   5.151
83007SOL     OW50859  10.773   9.862   4.212
83007SOL    HW150860  10.840   9.830   4.151
83007SOL    HW250861  10.694   9.814   4.188
83008SOL     OW50862   1.304   0.085   7.256
83008SOL    HW150863   1.333   0.150   7.191
83008SOL    HW250864   1.380   0.073   7.313
83009SOL     OW50865  13.545   0.995   0.757
83009SOL    HW150866  13.507   0.927   0.701
83009SOL    HW250867  13.627   1.019   0.713
83010SOL     OW50868  11.494  12.646   3.324
83010SOL    HW150869  11.543  12.642   3.407
83010SOL    HW250870  11.404  12.623   3.349
83011SOL     OW50871   5.977   7.088   1.328
83011SOL    HW150872   5.910   7.055   1.268
83011SOL    HW250873   5.945   7.064   1.415
83012SOL     OW50874   4.857   6.640   9.424
83012SOL    HW150875   4.870   6.653   9.518
83012SOL    HW250876   4.880   6.724   9.385
83013SOL     OW50877  10.648   3.400   2.445
83013SOL    HW150878  10.668   3.451   2.524
83013SOL    HW250879  10.602   3.322   2.478
83014SOL     OW50880   2.029   7.456   6.945
83014SOL    HW150881   2.058   7.410   7.024
83014SOL    HW250882   2.110   7.483   6.902
83015SOL     OW50883   1.223   1.503   1.039
83015SOL    HW150884   1.262   1.536   1.120
83015SOL    HW250885   1.291   1.447   1.001
83016SOL     OW50886  14.446   5.044   4.465
83016SOL    HW150887  14.358   5.027   4.431
83016SOL    HW250888  14.464   4.971   4.524
83017SOL     OW50889   6.109   9.748  14.577
83017SOL    HW150890   6.191   9.704  14.554
83017SOL    HW250891   6.052   9.677  14.609
83018SOL     OW50892  14.555  14.298   3.446
83018SOL    HW150893  14.484  14.354   3.415
83018SOL    HW250894  14.552  14.306   3.541
83019SOL     OW50895   1.384   0.278   0.921
83019SOL    HW150896   1.297   0.250   0.949
83019SOL    HW250897   1.440   0.203   0.937
83020SOL     OW50898  12.436   8.048   2.393
83020SOL    HW150899  12.529   8.033   2.407
83020SOL    HW250900  12.426   8.051   2.298
83021SOL     OW50901   0.704   8.262   4.628
83021SOL    HW150902   0.783   8.211   4.642
83021SOL    HW250903   0.653   8.251   4.708
83022SOL     OW50904   8.244  10.192  11.638
83022SOL    HW150905   8.174  10.257  11.647
83022SOL    HW250906   8.267  10.168  11.728
83023SOL     OW50907   0.498   0.508  13.156
83023SOL    HW150908   0.559   0.542  13.222
83023SOL    HW250909   0.545   0.435  13.116
83024SOL     OW50910   8.687   7.806   5.365
83024SOL    HW150911   8.766   7.780   5.317
83024SOL    HW250912   8.676   7.899   5.346
83025SOL     OW50913   7.980  13.086   3.481
83025SOL    HW150914   8.030  13.095   3.400
83025SOL    HW250915   7.891  13.112   3.457
83026SOL     OW50916   6.759   5.781   6.546
83026SOL    HW150917   6.671   5.771   6.510
83026SOL    HW250918   6.768   5.875   6.561
83027SOL     OW50919   4.397   7.087   9.624
83027SOL    HW150920   4.380   7.166   9.676
83027SOL    HW250921   4.332   7.024   9.656
83028SOL     OW50922  13.103   7.599   6.578
83028SOL    HW150923  13.027   7.589   6.522
83028SOL    HW250924  13.071   7.646   6.655
83029SOL     OW50925   1.264   0.808   8.460
83029SOL    HW150926   1.176   0.843   8.445
83029SOL    HW250927   1.302   0.866   8.526
83030SOL     OW50928   0.952   7.770  12.751
83030SOL    HW150929   1.010   7.845  12.763
83030SOL    HW250930   1.004   7.695  12.781
83031SOL     OW50931   8.455   8.070  13.245
83031SOL    HW150932   8.383   8.130  13.265
83031SOL    HW250933   8.531   8.109  13.288
83032SOL     OW50934   0.307  12.133   1.862
83032SOL    HW150935   0.272  12.078   1.931
83032SOL    HW250936   0.254  12.113   1.785
83033SOL     OW50937   0.960   3.251   1.016
83033SOL    HW150938   0.871   3.221   1.034
83033SOL    HW250939   0.983   3.305   1.092
83034SOL     OW50940   1.093   6.418  12.281
83034SOL    HW150941   1.163   6.360  12.311
83034SOL    HW250942   1.124   6.506  12.300
83035SOL     OW50943   8.221  12.603   3.656
83035SOL    HW150944   8.239  12.686   3.611
83035SOL    HW250945   8.297  12.548   3.636
83036SOL     OW50946   4.073   9.608   0.655
83036SOL    HW150947   4.064   9.701   0.636
83036SOL    HW250948   3.995   9.586   0.706
83037SOL     OW50949  13.963  10.064   7.542
83037SOL    HW150950  14.018  10.125   7.494
83037SOL    HW250951  13.971  10.091   7.634
83038SOL     OW50952   6.603  14.515   9.802
83038SOL    HW150953   6.621  14.446   9.739
83038SOL    HW250954   6.689  14.540   9.836
83039SOL     OW50955   3.629   7.071   0.558
83039SOL    HW150956   3.712   7.085   0.512
83039SOL    HW250957   3.584   7.155   0.552
83040SOL     OW50958   2.812  14.264  12.216
83040SOL    HW150959   2.901  14.249  12.184
83040SOL    HW250960   2.776  14.331  12.157
83041SOL     OW50961   4.087   5.147   2.574
83041SOL    HW150962   4.179   5.147   2.602
83041SOL    HW250963   4.075   5.062   2.532
83042SOL     OW50964   9.041   5.847   9.175
83042SOL    HW150965   9.035   5.857   9.270
83042SOL    HW250966   8.974   5.906   9.140
83043SOL     OW50967   6.205   0.787   2.124
83043SOL    HW150968   6.144   0.834   2.181
83043SOL    HW250969   6.291   0.824   2.146
83044SOL     OW50970   9.852  12.489  12.414
83044SOL    HW150971   9.868  12.583  12.429
83044SOL    HW250972   9.772  12.470  12.464
83045SOL     OW50973   8.829  12.291   7.141
83045SOL    HW150974   8.864  12.375   7.108
83045SOL    HW250975   8.891  12.266   7.210
83046SOL     OW50976   0.673   4.096   9.046
83046SOL    HW150977   0.669   4.133   8.958
83046SOL    HW250978   0.674   4.172   9.104
83047SOL     OW50979   0.249   3.755   5.354
83047SOL    HW150980   0.211   3.806   5.283
83047SOL    HW250981   0.183   3.755   5.423
83048SOL     OW50982   1.468   0.575   0.527
83048SOL    HW150983   1.555   0.567   0.566
83048SOL    HW250984   1.413   0.516   0.578
83049SOL     OW50985   3.769   9.949   2.145
83049SOL    HW150986   3.847   9.986   2.186
83049SOL    HW250987   3.790   9.857   2.133
83050SOL     OW50988  12.804   5.578  10.698
83050SOL    HW150989  12.873   5.605  10.759
83050SOL    HW250990  12.759   5.506  10.743
83051SOL     OW50991  13.124   2.960  10.800
83051SOL    HW150992  13.186   2.892  10.825
83051SOL    HW250993  13.047   2.912  10.770
83052SOL     OW50994   5.226   6.186  11.762
83052SOL    HW150995   5.192   6.102  11.793
83052SOL    HW250996   5.314   6.165  11.730
83053SOL     OW50997   6.354   9.219  14.265
83053SOL    HW150998   6.259   9.227  14.269
83053SOL    HW250999   6.385   9.303  14.230
83054SOL     OW51000  14.829   9.350   3.162
83054SOL    HW151001  14.859   9.332   3.072
83054SOL    HW251002  14.780   9.271   3.186
83055SOL     OW51003   3.070   3.670  14.229
83055SOL    HW151004   2.989   3.665  14.280
83055SOL    HW251005   3.112   3.585  14.242
83056SOL     OW51006   0.388   2.472   7.510
83056SOL    HW151007   0.318   2.534   7.490
83056SOL    HW251008   0.441   2.516   7.577
83057SOL     OW51009  11.637   5.720   3.748
83057SOL    HW151010  11.669   5.673   3.826
83057SOL    HW251011  11.664   5.665   3.674
83058SOL     OW51012   7.060   9.520   3.979
83058SOL    HW151013   6.972   9.486   3.962
83058SOL    HW251014   7.117   9.472   3.918
83059SOL     OW51015  12.450   1.681   2.938
83059SOL    HW151016  12.419   1.628   2.864
83059SOL    HW251017  12.497   1.754   2.897
83060SOL     OW51018   6.510   8.941  14.193
83060SOL    HW151019   6.552   8.881  14.130
83060SOL    HW251020   6.445   8.988  14.141
83061SOL     OW51021   6.069   6.665   9.914
83061SOL    HW151022   6.075   6.614   9.833
83061SOL    HW251023   6.055   6.755   9.885
83062SOL     OW51024   3.836  12.430  11.923
83062SOL    HW151025   3.768  12.364  11.909
83062SOL    HW251026   3.794  12.497  11.977
83063SOL     OW51027   3.289  12.304  12.724
83063SOL    HW151028   3.311  12.344  12.808
83063SOL    HW251029   3.194  12.312  12.718
83064SOL     OW51030   6.159   0.039   7.480
83064SOL    HW151031   6.142  14.861   7.555
83064SOL    HW251032   6.245   0.012   7.449
83065SOL     OW51033  13.767   7.364  10.578
83065SOL    HW151034  13.786   7.272  10.594
83065SOL    HW251035  13.672   7.370  10.579
83066SOL     OW51036  11.904   7.313   4.812
83066SOL    HW151037  11.994   7.324   4.841
83066SOL    HW251038  11.853   7.368   4.870
83067SOL     OW51039   3.383   1.005  14.576
83067SOL    HW151040   3.380   1.032  14.667
83067SOL    HW251041   3.293   0.975  14.557
83068SOL     OW51042   0.869   2.706  13.614
83068SOL    HW151043   0.821   2.700  13.531
83068SOL    HW251044   0.955   2.740  13.589
83069SOL     OW51045   8.156   8.927  13.231
83069SOL    HW151046   8.242   8.968  13.220
83069SOL    HW251047   8.138   8.887  13.146
83070SOL     OW51048  13.551   1.786   0.446
83070SOL    HW151049  13.599   1.824   0.519
83070SOL    HW251050  13.470   1.752   0.485
83071SOL     OW51051  13.580   3.057   3.088
83071SOL    HW151052  13.657   3.011   3.054
83071SOL    HW251053  13.516   2.988   3.104
83072SOL     OW51054   9.176   3.508   1.712
83072SOL    HW151055   9.232   3.488   1.786
83072SOL    HW251056   9.225   3.572   1.660
83073SOL     OW51057   7.546  11.969   2.004
83073SOL    HW151058   7.451  11.962   1.997
83073SOL    HW251059   7.561  12.019   2.085
83074SOL     OW51060   4.510   7.704   4.040
83074SOL    HW151061   4.548   7.673   3.959
83074SOL    HW251062   4.442   7.640   4.062
83075SOL     OW51063  13.700  12.997   2.890
83075SOL    HW151064  13.763  12.980   2.960
83075SOL    HW251065  13.742  13.062   2.834
83076SOL     OW51066  13.779  10.644  14.566
83076SOL    HW151067  13.747  10.554  14.574
83076SOL    HW251068  13.808  10.666  14.654
83077SOL     OW51069   2.620   1.579   4.803
83077SOL    HW151070   2.675   1.501   4.796
83077SOL    HW251071   2.593   1.581   4.895
83078SOL     OW51072  13.721  12.646  10.722
83078SOL    HW151073  13.795  12.587  10.712
83078SOL    HW251074  13.757  12.723  10.766
83079SOL     OW51075   5.190   6.276   4.939
83079SOL    HW151076   5.171   6.295   5.031
83079SOL    HW251077   5.252   6.203   4.942
83080SOL     OW51078   9.330   6.199   9.974
83080SOL    HW151079   9.286   6.122   9.938
83080SOL    HW251080   9.422   6.173   9.983
83081SOL     OW51081   6.864   3.149  14.034
83081SOL    HW151082   6.842   3.217  14.097
83081SOL    HW251083   6.852   3.190  13.948
83082SOL     OW51084   5.664   9.051  11.887
83082SOL    HW151085   5.644   9.144  11.898
83082SOL    HW251086   5.751   9.040  11.925
83083SOL     OW51087  10.878   8.806   5.338
83083SOL    HW151088  10.892   8.714   5.313
83083SOL    HW251089  10.960   8.849   5.317
83084SOL     OW51090   7.974   7.356  13.813
83084SOL    HW151091   7.961   7.261  13.813
83084SOL    HW251092   8.034   7.372  13.740
83085SOL     OW51093   9.035  13.834   0.912
83085SOL    HW151094   9.076  13.920   0.908
83085SOL    HW251095   8.942  13.851   0.896
83086SOL     OW51096   9.067   3.873   5.356
83086SOL    HW151097   9.112   3.792   5.379
83086SOL    HW251098   8.978   3.861   5.389
83087SOL     OW51099  10.127   9.185   6.616
83087SOL    HW151100  10.101   9.276   6.628
83087SOL    HW251101  10.083   9.158   6.536
83088SOL     OW51102   6.975   8.434   4.532
83088SOL    HW151103   6.910   8.503   4.534
83088SOL    HW251104   6.971   8.398   4.444
83089SOL     OW51105   0.263   6.707   3.934
83089SOL    HW151106   0.224   6.788   3.968
83089SOL    HW251107   0.188   6.650   3.916
83090SOL     OW51108   3.908   5.186   3.902
83090SOL    HW151109   3.894   5.214   3.993
83090SOL    HW251110   3.941   5.097   3.910
83091SOL     OW51111  14.527   1.506  10.439
83091SOL    HW151112  14.512   1.495  10.346
83091SOL    HW251113  14.444   1.539  10.473
83092SOL     OW51114  12.204  14.789  10.187
83092SOL    HW151115  12.297  14.781  10.207
83092SOL    HW251116  12.161  14.794  10.272
83093SOL     OW51117  14.332   1.975  10.053
83093SOL    HW151118  14.281   2.056  10.047
83093SOL    HW251119  14.281   1.911  10.003
83094SOL     OW51120   5.962  11.696   9.180
83094SOL    HW151121   5.893  11.630   9.193
83094SOL    HW251122   6.032  11.648   9.136
83095SOL     OW51123  11.631   4.242   0.510
83095SOL    HW151124  11.634   4.278   0.598
83095SOL    HW251125  11.570   4.299   0.462
83096SOL     OW51126   8.515   4.927   0.527
83096SOL    HW151127   8.533   4.971   0.610
83096SOL    HW251128   8.565   4.977   0.462
83097SOL     OW51129   2.127   2.248   7.027
83097SOL    HW151130   2.211   2.279   6.994
83097SOL    HW251131   2.073   2.327   7.034
83098SOL     OW51132   6.545  10.364   0.140
83098SOL    HW151133   6.598  10.431   0.096
83098SOL    HW251134   6.465  10.359   0.088
83099SOL     OW51135   0.428   2.650   2.033
83099SOL    HW151136   0.430   2.644   1.938
83099SOL    HW251137   0.501   2.594   2.062
83100SOL     OW51138   4.760   2.382  11.094
83100SOL    HW151139   4.694   2.377  11.024
83100SOL    HW251140   4.814   2.457  11.070
83101SOL     OW51141   9.352  10.578   0.438
83101SOL    HW151142   9.335  10.662   0.481
83101SOL    HW251143   9.339  10.596   0.345
83102SOL     OW51144  12.356  12.733   5.939
83102SOL    HW151145  12.331  12.717   6.030
83102SOL    HW251146  12.445  12.697   5.932
83103SOL     OW51147   6.409   5.491   2.309
83103SOL    HW151148   6.481   5.479   2.246
83103SOL    HW251149   6.330   5.472   2.259
83104SOL     OW51150   6.029  11.080  14.077
83104SOL    HW151151   6.089  11.029  14.022
83104SOL    HW251152   5.995  11.148  14.019
83105SOL     OW51153   0.043   0.412   7.731
83105SOL    HW151154   0.038   0.412   7.826
83105SOL    HW251155  14.832   0.396   7.703
83106SOL     OW51156   6.110   8.317  10.543
83106SOL    HW151157   6.156   8.392  10.580
83106SOL    HW251158   6.169   8.243  10.555
83107SOL     OW51159   6.109   3.602   5.818
83107SOL    HW151160   6.033   3.631   5.868
83107SOL    HW251161   6.125   3.672   5.755
83108SOL     OW51162  12.013  10.853  11.655
83108SOL    HW151163  11.951  10.883  11.721
83108SOL    HW251164  11.959  10.830  11.580
83109SOL     OW51165  11.493  11.793   6.731
83109SOL    HW151166  11.538  11.716   6.696
83109SOL    HW251167  11.563  11.849   6.763
83110SOL     OW51168   6.439   5.945  11.275
83110SOL    HW151169   6.513   5.889  11.251
83110SOL    HW251170   6.452   6.025  11.224
83111SOL     OW51171   5.711   9.743   5.669
83111SOL    HW151172   5.772   9.674   5.698
83111SOL    HW251173   5.679   9.712   5.584
83112SOL     OW51174   4.944  13.888   3.050
83112SOL    HW151175   5.029  13.925   3.072
83112SOL    HW251176   4.906  13.864   3.134
83113SOL     OW51177   3.835   6.937   7.572
83113SOL    HW151178   3.763   6.988   7.610
83113SOL    HW251179   3.887   6.908   7.647
83114SOL     OW51180   4.451   6.875   2.355
83114SOL    HW151181   4.436   6.795   2.405
83114SOL    HW251182   4.453   6.944   2.421
83115SOL     OW51183  10.363  14.102   6.277
83115SOL    HW151184  10.308  14.023   6.276
83115SOL    HW251185  10.305  14.171   6.310
83116SOL     OW51186   1.479   1.985   9.996
83116SOL    HW151187   1.494   1.893  10.021
83116SOL    HW251188   1.481   1.984   9.901
83117SOL     OW51189  13.161   0.532   5.459
83117SOL    HW151190  13.157   0.562   5.368
83117SOL    HW251191  13.225   0.591   5.500
83118SOL     OW51192   3.133   1.631   0.761
83118SOL    HW151193   3.146   1.569   0.833
83118SOL    HW251194   3.192   1.704   0.780
83119SOL     OW51195   1.235   5.614  10.398
83119SOL    HW151196   1.249   5.525  10.432
83119SOL    HW251197   1.163   5.648  10.451
83120SOL     OW51198   5.471   8.460   8.024
83120SOL    HW151199   5.471   8.488   7.933
83120SOL    HW251200   5.439   8.370   8.022
83121SOL     OW51201   4.488   4.201   2.026
83121SOL    HW151202   4.577   4.176   1.999
83121SOL    HW251203   4.500   4.242   2.112
83122SOL     OW51204   7.334   7.599   1.392
83122SOL    HW151205   7.271   7.617   1.462
83122SOL    HW251206   7.317   7.668   1.327
83123SOL     OW51207  14.758   6.981  12.840
83123SOL    HW151208  14.835   7.009  12.889
83123SOL    HW251209  14.745   6.889  12.865
83124SOL     OW51210   4.660   2.961   4.574
83124SOL    HW151211   4.741   2.922   4.607
83124SOL    HW251212   4.686   3.048   4.542
83125SOL     OW51213   7.533   4.917  11.199
83125SOL    HW151214   7.536   4.896  11.106
83125SOL    HW251215   7.536   4.832  11.243
83126SOL     OW51216  13.646   4.719   8.661
83126SOL    HW151217  13.675   4.763   8.581
83126SOL    HW251218  13.552   4.736   8.665
83127SOL     OW51219  11.306   8.996  12.953
83127SOL    HW151220  11.263   8.961  13.031
83127SOL    HW251221  11.399   8.989  12.971
83128SOL     OW51222  14.337  10.747   8.281
83128SOL    HW151223  14.265  10.776   8.336
83128SOL    HW251224  14.396  10.701   8.341
83129SOL     OW51225  12.942  13.499   8.199
83129SOL    HW151226  13.014  13.484   8.138
83129SOL    HW251227  12.890  13.419   8.195
83130SOL     OW51228   1.875  14.130   8.491
83130SOL    HW151229   1.865  14.045   8.533
83130SOL    HW251230   1.934  14.179   8.549
83131SOL     OW51231   4.192   3.150  12.526
83131SOL    HW151232   4.234   3.066  12.507
83131SOL    HW251233   4.261   3.203  12.564
83132SOL     OW51234   3.858   9.133   2.564
83132SOL    HW151235   3.806   9.106   2.640
83132SOL    HW251236   3.944   9.094   2.579
83133SOL     OW51237   7.237  14.426   0.576
83133SOL    HW151238   7.152  14.467   0.589
83133SOL    HW251239   7.289  14.492   0.529
83134SOL     OW51240   5.136   6.553   1.299
83134SOL    HW151241   5.049   6.529   1.331
83134SOL    HW251242   5.197   6.512   1.361
83135SOL     OW51243   1.484   3.954  11.373
83135SOL    HW151244   1.473   4.049  11.379
83135SOL    HW251245   1.565   3.942  11.324
83136SOL     OW51246   5.614   8.180   5.699
83136SOL    HW151247   5.622   8.179   5.795
83136SOL    HW251248   5.627   8.089   5.673
83137SOL     OW51249  13.260  11.460   1.391
83137SOL    HW151250  13.275  11.385   1.449
83137SOL    HW251251  13.343  11.474   1.347
83138SOL     OW51252  13.158  13.540  14.669
83138SOL    HW151253  13.144  13.579  14.755
83138SOL    HW251254  13.195  13.454  14.687
83139SOL     OW51255  11.416   9.874   6.840
83139SOL    HW151256  11.425   9.801   6.901
83139SOL    HW251257  11.383   9.835   6.759
83140SOL     OW51258  11.144   5.036  11.172
83140SOL    HW151259  11.068   4.986  11.203
83140SOL    HW251260  11.114   5.078  11.091
83141SOL     OW51261   5.488   1.507  11.119
83141SOL    HW151262   5.511   1.421  11.085
83141SOL    HW251263   5.440   1.488  11.200
83142SOL     OW51264   5.597   1.383   4.870
83142SOL    HW151265   5.670   1.345   4.918
83142SOL    HW251266   5.572   1.316   4.807
83143SOL     OW51267   2.304   2.504   5.068
83143SOL    HW151268   2.307   2.530   5.160
83143SOL    HW251269   2.341   2.416   5.066
83144SOL     OW51270  10.353   6.737   8.000
83144SOL    HW151271  10.412   6.712   8.070
83144SOL    HW251272  10.279   6.780   8.044
83145SOL     OW51273  12.720   4.935   4.789
83145SOL    HW151274  12.759   4.890   4.863
83145SOL    HW251275  12.779   4.918   4.716
83146SOL     OW51276   1.995   9.842   3.173
83146SOL    HW151277   1.991   9.936   3.193
83146SOL    HW251278   2.004   9.838   3.078
83147SOL     OW51279   0.708   0.263  13.561
83147SOL    HW151280   0.696   0.331  13.494
83147SOL    HW251281   0.801   0.244  13.560
83148SOL     OW51282   3.126   1.337  10.069
83148SOL    HW151283   3.134   1.395   9.993
83148SOL    HW251284   3.153   1.251  10.037
83149SOL     OW51285   7.196   9.663   0.708
83149SOL    HW151286   7.240   9.743   0.735
83149SOL    HW251287   7.106   9.691   0.690
83150SOL     OW51288   0.807   5.525   1.576
83150SOL    HW151289   0.755   5.474   1.514
83150SOL    HW251290   0.780   5.493   1.662
83151SOL     OW51291  11.306  10.708   5.278
83151SOL    HW151292  11.387  10.661   5.258
83151SOL    HW251293  11.252  10.698   5.199
83152SOL     OW51294   8.002  13.995   8.336
83152SOL    HW151295   8.046  14.069   8.295
83152SOL    HW251296   7.992  14.022   8.428
83153SOL     OW51297   6.882   4.796   8.796
83153SOL    HW151298   6.912   4.795   8.705
83153SOL    HW251299   6.789   4.815   8.791
83154SOL     OW51300  14.141   8.319  12.996
83154SOL    HW151301  14.224   8.364  13.008
83154SOL    HW251302  14.122   8.279  13.081
83155SOL     OW51303  13.154  11.561  10.118
83155SOL    HW151304  13.114  11.554  10.205
83155SOL    HW251305  13.094  11.515  10.060
83156SOL     OW51306  10.293  13.872   8.070
83156SOL    HW151307  10.297  13.868   8.166
83156SOL    HW251308  10.199  13.869   8.051
83157SOL     OW51309  13.594  11.370   3.630
83157SOL    HW151310  13.546  11.331   3.703
83157SOL    HW251311  13.685  11.370   3.657
83158SOL     OW51312  11.445   4.162   4.305
83158SOL    HW151313  11.451   4.242   4.253
83158SOL    HW251314  11.396   4.188   4.383
83159SOL     OW51315   8.232   0.641   6.723
83159SOL    HW151316   8.281   0.681   6.795
83159SOL    HW251317   8.260   0.550   6.723
83160SOL     OW51318   2.267  12.219   0.610
83160SOL    HW151319   2.313  12.245   0.530
83160SOL    HW251320   2.182  12.263   0.604
83161SOL     OW51321   2.185  12.360   4.009
83161SOL    HW151322   2.258  12.319   3.964
83161SOL    HW251323   2.189  12.452   3.982
83162SOL     OW51324   7.932  11.957   3.520
83162SOL    HW151325   7.974  11.892   3.464
83162SOL    HW251326   7.980  11.953   3.602
83163SOL     OW51327  12.086  10.840  14.674
83163SOL    HW151328  12.039  10.800  14.601
83163SOL    HW251329  12.049  10.928  14.681
83164SOL     OW51330   8.787  10.280  12.813
83164SOL    HW151331   8.869  10.322  12.788
83164SOL    HW251332   8.719  10.333  12.771
83165SOL     OW51333  11.330   8.161   9.940
83165SOL    HW151334  11.420   8.166   9.907
83165SOL    HW251335  11.291   8.244   9.914
83166SOL     OW51336   2.900   0.427  10.833
83166SOL    HW151337   2.823   0.432  10.890
83166SOL    HW251338   2.901   0.511  10.786
83167SOL     OW51339   0.034  13.775  12.257
83167SOL    HW151340  14.844  13.769  12.323
83167SOL    HW251341  14.876  13.730  12.181
83168SOL     OW51342   6.215  14.809  10.899
83168SOL    HW151343   6.198   0.023  10.916
83168SOL    HW251344   6.163  14.763  10.965
83169SOL     OW51345   6.231   3.398   5.265
83169SOL    HW151346   6.210   3.331   5.331
83169SOL    HW251347   6.218   3.353   5.181
83170SOL     OW51348  14.499  10.709   5.812
83170SOL    HW151349  14.554  10.679   5.885
83170SOL    HW251350  14.415  10.729   5.853
83171SOL     OW51351   6.999   6.141   7.109
83171SOL    HW151352   7.063   6.176   7.046
83171SOL    HW251353   7.049   6.078   7.161
83172SOL     OW51354  10.290   5.675   6.093
83172SOL    HW151355  10.273   5.719   6.009
83172SOL    HW251356  10.382   5.694   6.112
83173SOL     OW51357   1.173  11.957   8.267
83173SOL    HW151358   1.093  11.947   8.318
83173SOL    HW251359   1.144  11.997   8.185
83174SOL     OW51360   1.049   2.719  10.641
83174SOL    HW151361   1.027   2.700  10.550
83174SOL    HW251362   1.118   2.656  10.663
83175SOL     OW51363   0.012  12.409  14.210
83175SOL    HW151364   0.046  12.342  14.151
83175SOL    HW251365  14.844  12.360  14.278
83176SOL     OW51366   3.034  13.272   1.411
83176SOL    HW151367   2.993  13.232   1.334
83176SOL    HW251368   2.975  13.253   1.483
83177SOL     OW51369   6.523  10.487  13.841
83177SOL    HW151370   6.605  10.537  13.843
83177SOL    HW251371   6.495  10.493  13.750
83178SOL     OW51372  14.215   4.995   0.250
83178SOL    HW151373  14.221   4.900   0.248
83178SOL    HW251374  14.224   5.022   0.158
83179SOL     OW51375   4.150   6.834   7.635
83179SOL    HW151376   4.227   6.781   7.656
83179SOL    HW251377   4.174   6.881   7.555
83180SOL     OW51378   9.083  13.020  10.428
83180SOL    HW151379   9.007  13.062  10.466
83180SOL    HW251380   9.085  12.933  10.468
83181SOL     OW51381  10.888   0.512   2.374
83181SOL    HW151382  10.970   0.466   2.393
83181SOL    HW251383  10.859   0.545   2.460
83182SOL     OW51384  10.062  13.287  13.985
83182SOL    HW151385  10.057  13.245  14.071
83182SOL    HW251386   9.981  13.262  13.941
83183SOL     OW51387   8.729   3.649  11.238
83183SOL    HW151388   8.772   3.593  11.302
83183SOL    HW251389   8.758   3.738  11.260
83184SOL     OW51390   5.098   6.341   6.162
83184SOL    HW151391   5.029   6.375   6.219
83184SOL    HW251392   5.136   6.268   6.211
83185SOL     OW51393   4.366  10.403   8.020
83185SOL    HW151394   4.369  10.341   8.093
83185SOL    HW251395   4.339  10.486   8.060
83186SOL     OW51396   0.478   5.314   0.929
83186SOL    HW151397   0.412   5.336   0.995
83186SOL    HW251398   0.456   5.226   0.901
83187SOL     OW51399   9.210  11.280   7.631
83187SOL    HW151400   9.252  11.279   7.545
83187SOL    HW251401   9.134  11.224   7.622
83188SOL     OW51402   8.611   6.664  10.286
83188SOL    HW151403   8.576   6.623  10.207
83188SOL    HW251404   8.705   6.673  10.269
83189SOL     OW51405   2.738  14.754   8.805
83189SOL    HW151406   2.808  14.690   8.819
83189SOL    HW251407   2.661  14.700   8.787
83190SOL     OW51408   8.565  14.063   2.046
83190SOL    HW151409   8.548  13.973   2.016
83190SOL    HW251410   8.559  14.057   2.141
83191SOL     OW51411  11.311  11.213   1.417
83191SOL    HW151412  11.283  11.275   1.485
83191SOL    HW251413  11.233  11.159   1.401
83192SOL     OW51414   7.588  11.622  11.182
83192SOL    HW151415   7.636  11.687  11.233
83192SOL    HW251416   7.541  11.672  11.116
83193SOL     OW51417   3.586   3.661  10.584
83193SOL    HW151418   3.560   3.648  10.675
83193SOL    HW251419   3.672   3.620  10.577
83194SOL     OW51420   2.905  11.594   1.201
83194SOL    HW151421   2.883  11.622   1.290
83194SOL    HW251422   2.995  11.561   1.208
83195SOL     OW51423   0.523  11.044   2.691
83195SOL    HW151424   0.569  10.963   2.666
83195SOL    HW251425   0.560  11.110   2.633
83196SOL     OW51426  13.075   9.894   5.807
83196SOL    HW151427  13.157   9.888   5.856
83196SOL    HW251428  13.007   9.893   5.875
83197SOL     OW51429   2.569   4.570   4.990
83197SOL    HW151430   2.596   4.609   5.073
83197SOL    HW251431   2.567   4.476   5.008
83198SOL     OW51432   3.191  14.224   8.623
83198SOL    HW151433   3.177  14.277   8.702
83198SOL    HW251434   3.192  14.287   8.551
83199SOL     OW51435   2.800  13.868   5.946
83199SOL    HW151436   2.777  13.787   5.992
83199SOL    HW251437   2.888  13.889   5.978
83200SOL     OW51438  12.358   8.242   0.183
83200SOL    HW151439  12.379   8.291   0.262
83200SOL    HW251440  12.413   8.281   0.115
83201SOL     OW51441   0.317   5.236  14.826
83201SOL    HW151442   0.343   5.260   0.036
83201SOL    HW251443   0.344   5.312  14.773
83202SOL     OW51444   8.768   1.138   9.739
83202SOL    HW151445   8.818   1.145   9.659
83202SOL    HW251446   8.678   1.123   9.710
83203SOL     OW51447   5.255   7.180  11.664
83203SOL    HW151448   5.290   7.121  11.731
83203SOL    HW251449   5.298   7.152  11.583
83204SOL     OW51450  11.094   4.970   9.685
83204SOL    HW151451  11.076   4.877   9.698
83204SOL    HW251452  11.188   4.979   9.700
83205SOL     OW51453   9.145  14.558   3.228
83205SOL    HW151454   9.104  14.475   3.202
83205SOL    HW251455   9.200  14.535   3.303
83206SOL     OW51456   5.146   6.280  10.919
83206SOL    HW151457   5.192   6.326  10.849
83206SOL    HW251458   5.059   6.320  10.920
83207SOL     OW51459   1.872   6.679   4.220
83207SOL    HW151460   1.863   6.624   4.298
83207SOL    HW251461   1.852   6.767   4.251
83208SOL     OW51462  12.649  13.007   7.535
83208SOL    HW151463  12.654  13.005   7.439
83208SOL    HW251464  12.590  13.080   7.554
83209SOL     OW51465  11.966  13.026   1.293
83209SOL    HW151466  11.991  12.970   1.220
83209SOL    HW251467  11.877  12.998   1.315
83210SOL     OW51468   6.573   9.519   5.192
83210SOL    HW151469   6.548   9.519   5.100
83210SOL    HW251470   6.510   9.579   5.233
83211SOL     OW51471  14.382  11.234   1.865
83211SOL    HW151472  14.395  11.328   1.856
83211SOL    HW251473  14.359  11.221   1.957
83212SOL     OW51474  10.363  12.568  13.621
83212SOL    HW151475  10.357  12.549  13.715
83212SOL    HW251476  10.379  12.662  13.617
83213SOL     OW51477   2.516   9.049  10.264
83213SOL    HW151478   2.518   9.133  10.217
83213SOL    HW251479   2.440   9.004  10.227
83214SOL     OW51480  12.228  10.186  12.021
83214SOL    HW151481  12.266  10.274  12.017
83214SOL    HW251482  12.185  10.175  11.936
83215SOL     OW51483   8.580   5.608   5.335
83215SOL    HW151484   8.496   5.631   5.375
83215SOL    HW251485   8.565   5.521   5.297
83216SOL     OW51486   9.503   4.188  13.099
83216SOL    HW151487   9.413   4.219  13.109
83216SOL    HW251488   9.499   4.095  13.122
83217SOL     OW51489   7.230   6.413   6.414
83217SOL    HW151490   7.173   6.387   6.342
83217SOL    HW251491   7.240   6.333   6.467
83218SOL     OW51492   1.931   4.142  14.275
83218SOL    HW151493   1.856   4.098  14.233
83218SOL    HW251494   1.913   4.235  14.263
83219SOL     OW51495   9.588   9.826   4.408
83219SOL    HW151496   9.581   9.732   4.388
83219SOL    HW251497   9.511   9.865   4.366
83220SOL     OW51498   9.241   8.242  14.701
83220SOL    HW151499   9.265   8.151  14.685
83220SOL    HW251500   9.313   8.293  14.664
83221SOL     OW51501   8.534   9.576   9.321
83221SOL    HW151502   8.468   9.618   9.376
83221SOL    HW251503   8.551   9.491   9.364
83222SOL     OW51504   6.546  13.400   3.401
83222SOL    HW151505   6.606  13.334   3.434
83222SOL    HW251506   6.535  13.461   3.474
83223SOL     OW51507   7.379  11.535   7.421
83223SOL    HW151508   7.378  11.559   7.328
83223SOL    HW251509   7.314  11.466   7.429
83224SOL     OW51510  10.533  13.373   6.160
83224SOL    HW151511  10.512  13.466   6.157
83224SOL    HW251512  10.579  13.361   6.243
83225SOL     OW51513   7.523   6.919   3.426
83225SOL    HW151514   7.445   6.959   3.465
83225SOL    HW251515   7.489   6.854   3.364
83226SOL     OW51516   7.110  12.950   2.302
83226SOL    HW151517   7.047  13.016   2.272
83226SOL    HW251518   7.185  13.002   2.333
83227SOL     OW51519  10.849   9.572   2.786
83227SOL    HW151520  10.840   9.542   2.877
83227SOL    HW251521  10.943   9.580   2.773
83228SOL     OW51522  10.641   1.714   4.486
83228SOL    HW151523  10.574   1.661   4.530
83228SOL    HW251524  10.610   1.804   4.496
83229SOL     OW51525   8.644   5.855  12.194
83229SOL    HW151526   8.729   5.893  12.216
83229SOL    HW251527   8.612   5.816  12.275
83230SOL     OW51528  11.907  14.417  12.508
83230SOL    HW151529  11.987  14.364  12.501
83230SOL    HW251530  11.925  14.477  12.581
83231SOL     OW51531  14.393   2.982   8.605
83231SOL    HW151532  14.399   3.077   8.615
83231SOL    HW251533  14.307   2.960   8.640
83232SOL     OW51534  13.307   1.995  13.061
83232SOL    HW151535  13.237   2.055  13.087
83232SOL    HW251536  13.329   2.021  12.971
83233SOL     OW51537  10.119   4.825   4.536
83233SOL    HW151538  10.027   4.833   4.558
83233SOL    HW251539  10.164   4.881   4.599
83234SOL     OW51540   1.668   2.038   4.857
83234SOL    HW151541   1.735   1.977   4.826
83234SOL    HW251542   1.691   2.054   4.949
83235SOL     OW51543   5.902   6.430  10.428
83235SOL    HW151544   5.957   6.369  10.377
83235SOL    HW251545   5.887   6.503  10.369
83236SOL     OW51546   1.935   5.207   1.574
83236SOL    HW151547   1.879   5.172   1.643
83236SOL    HW251548   1.962   5.293   1.605
83237SOL     OW51549   8.098   0.179  13.388
83237SOL    HW151550   8.025   0.239  13.399
83237SOL    HW251551   8.120   0.151  13.477
83238SOL     OW51552   6.635  12.912  13.556
83238SOL    HW151553   6.601  12.881  13.472
83238SOL    HW251554   6.567  12.889  13.619
83239SOL     OW51555   9.850  12.427  12.106
83239SOL    HW151556   9.857  12.466  12.193
83239SOL    HW251557   9.910  12.353  12.107
83240SOL     OW51558  10.354   3.976   7.696
83240SOL    HW151559  10.413   3.912   7.656
83240SOL    HW251560  10.272   3.967   7.647
83241SOL     OW51561   9.197   9.648   5.596
83241SOL    HW151562   9.200   9.557   5.566
83241SOL    HW251563   9.153   9.695   5.526
83242SOL     OW51564   7.265  10.643   5.842
83242SOL    HW151565   7.357  10.635   5.866
83242SOL    HW251566   7.220  10.577   5.895
83243SOL     OW51567   3.575   2.487  13.490
83243SOL    HW151568   3.555   2.577  13.463
83243SOL    HW251569   3.494   2.438  13.472
83244SOL     OW51570   2.657   4.915   2.748
83244SOL    HW151571   2.691   4.827   2.766
83244SOL    HW251572   2.694   4.938   2.663
83245SOL     OW51573  10.125   4.296  12.132
83245SOL    HW151574  10.112   4.212  12.088
83245SOL    HW251575  10.043   4.344  12.116
83246SOL     OW51576   0.225   5.931   6.693
83246SOL    HW151577   0.244   6.020   6.724
83246SOL    HW251578   0.306   5.903   6.650
83247SOL     OW51579  10.276   5.381  13.047
83247SOL    HW151580  10.300   5.339  13.129
83247SOL    HW251581  10.322   5.331  12.980
83248SOL     OW51582   9.796   5.019   4.051
83248SOL    HW151583   9.778   4.932   4.086
83248SOL    HW251584   9.871   5.050   4.103
83249SOL     OW51585   3.039  11.196  12.448
83249SOL    HW151586   3.094  11.120  12.427
83249SOL    HW251587   2.971  11.161  12.505
83250SOL     OW51588   2.774  10.977   0.599
83250SOL    HW151589   2.757  10.885   0.581
83250SOL    HW251590   2.808  11.012   0.517
83251SOL     OW51591   9.317   3.300   4.581
83251SOL    HW151592   9.391   3.293   4.641
83251SOL    HW251593   9.304   3.394   4.571
83252SOL     OW51594   8.659   2.740   0.782
83252SOL    HW151595   8.582   2.695   0.818
83252SOL    HW251596   8.633   2.832   0.778
83253SOL     OW51597   6.128   0.525   2.246
83253SOL    HW151598   6.144   0.617   2.222
83253SOL    HW251599   6.157   0.475   2.169
83254SOL     OW51600  12.769  10.212   7.912
83254SOL    HW151601  12.828  10.213   7.987
83254SOL    HW251602  12.819  10.169   7.842
83255SOL     OW51603  10.665   7.238  14.556
83255SOL    HW151604  10.634   7.256  14.645
83255SOL    HW251605  10.684   7.324  14.519
83256SOL     OW51606   4.092  11.891  13.002
83256SOL    HW151607   4.045  11.820  13.047
83256SOL    HW251608   4.109  11.857  12.915
83257SOL     OW51609   1.311   4.780   8.115
83257SOL    HW151610   1.338   4.855   8.168
83257SOL    HW251611   1.357   4.705   8.154
83258SOL     OW51612   6.382   2.560  14.263
83258SOL    HW151613   6.387   2.608  14.181
83258SOL    HW251614   6.426   2.477  14.245
83259SOL     OW51615   6.180  11.030   6.218
83259SOL    HW151616   6.168  10.964   6.149
83259SOL    HW251617   6.221  10.982   6.290
83260SOL     OW51618  14.802   6.206  14.673
83260SOL    HW151619  14.727   6.148  14.658
83260SOL    HW251620  14.763   6.293  14.685
83261SOL     OW51621   7.689   6.709   8.931
83261SOL    HW151622   7.776   6.670   8.926
83261SOL    HW251623   7.630   6.635   8.943
83262SOL     OW51624   6.113   5.950   9.364
83262SOL    HW151625   6.174   5.918   9.299
83262SOL    HW251626   6.027   5.941   9.323
83263SOL     OW51627  10.170  11.155   1.003
83263SOL    HW151628  10.259  11.133   0.977
83263SOL    HW251629  10.117  11.140   0.924
83264SOL     OW51630   0.293   0.535   6.222
83264SOL    HW151631   0.270   0.600   6.156
83264SOL    HW251632   0.374   0.567   6.261
83265SOL     OW51633   3.165   5.701  14.285
83265SOL    HW151634   3.128   5.743  14.363
83265SOL    HW251635   3.256   5.731  14.282
83266SOL     OW51636   6.198  10.614   9.997
83266SOL    HW151637   6.270  10.567  10.038
83266SOL    HW251638   6.217  10.611   9.903
83267SOL     OW51639   1.624   5.204  13.528
83267SOL    HW151640   1.642   5.279  13.471
83267SOL    HW251641   1.539   5.225  13.568
83268SOL     OW51642   4.966   6.507   3.917
83268SOL    HW151643   4.935   6.588   3.959
83268SOL    HW251644   4.890   6.475   3.868
83269SOL     OW51645   9.588   0.503   9.805
83269SOL    HW151646   9.602   0.542   9.719
83269SOL    HW251647   9.673   0.466   9.829
83270SOL     OW51648  13.234   8.054  13.997
83270SOL    HW151649  13.320   8.021  14.024
83270SOL    HW251650  13.185   7.976  13.974
83271SOL     OW51651   6.883   5.479  13.356
83271SOL    HW151652   6.906   5.571  13.348
83271SOL    HW251653   6.841   5.457  13.273
83272SOL     OW51654   5.288   8.292  11.410
83272SOL    HW151655   5.203   8.254  11.430
83272SOL    HW251656   5.345   8.260  11.480
83273SOL     OW51657   3.763  13.888   3.072
83273SOL    HW151658   3.770  13.973   3.029
83273SOL    HW251659   3.749  13.909   3.164
83274SOL     OW51660   4.233  11.877   3.443
83274SOL    HW151661   4.235  11.940   3.371
83274SOL    HW251662   4.282  11.802   3.411
83275SOL     OW51663   6.190   9.899   9.761
83275SOL    HW151664   6.248   9.972   9.738
83275SOL    HW251665   6.136   9.887   9.684
83276SOL     OW51666   8.063   1.417  14.289
83276SOL    HW151667   8.156   1.431  14.305
83276SOL    HW251668   8.055   1.407  14.194
83277SOL     OW51669   8.921   6.257  12.209
83277SOL    HW151670   8.911   6.272  12.303
83277SOL    HW251671   9.013   6.277  12.191
83278SOL     OW51672   9.615   1.229  13.902
83278SOL    HW151673   9.699   1.261  13.871
83278SOL    HW251674   9.550   1.276  13.849
83279SOL     OW51675  12.874   9.902  13.660
83279SOL    HW151676  12.947   9.884  13.602
83279SOL    HW251677  12.842   9.988  13.633
83280SOL     OW51678   6.143  11.062   3.213
83280SOL    HW151679   6.074  11.122   3.243
83280SOL    HW251680   6.183  11.106   3.139
83281SOL     OW51681   2.957  11.412   6.490
83281SOL    HW151682   3.043  11.431   6.527
83281SOL    HW251683   2.949  11.472   6.416
83282SOL     OW51684   3.433   1.921   3.721
83282SOL    HW151685   3.343   1.940   3.692
83282SOL    HW251686   3.478   2.005   3.718
83283SOL     OW51687  11.736   3.538   2.459
83283SOL    HW151688  11.767   3.463   2.408
83283SOL    HW251689  11.810   3.598   2.461
83284SOL     OW51690  12.570   8.361   3.558
83284SOL    HW151691  12.546   8.362   3.651
83284SOL    HW251692  12.580   8.453   3.534
83285SOL     OW51693   4.545   3.305   9.456
83285SOL    HW151694   4.543   3.211   9.473
83285SOL    HW251695   4.512   3.313   9.366
83286SOL     OW51696  14.559  12.562   7.278
83286SOL    HW151697  14.532  12.580   7.188
83286SOL    HW251698  14.593  12.472   7.275
83287SOL     OW51699   0.756  10.526   9.907
83287SOL    HW151700   0.710  10.536   9.824
83287SOL    HW251701   0.829  10.466   9.887
83288SOL     OW51702   4.066   0.444   3.677
83288SOL    HW151703   4.014   0.524   3.677
83288SOL    HW251704   4.127   0.454   3.750
83289SOL     OW51705  12.788   7.210   4.211
83289SOL    HW151706  12.803   7.298   4.246
83289SOL    HW251707  12.767   7.158   4.288
83290SOL     OW51708   1.257  12.519  13.377
83290SOL    HW151709   1.185  12.524  13.314
83290SOL    HW251710   1.217  12.546  13.460
83291SOL     OW51711  12.125  13.570  14.750
83291SOL    HW151712  12.060  13.588  14.682
83291SOL    HW251713  12.202  13.621  14.724
83292SOL     OW51714  13.520   9.142   2.593
83292SOL    HW151715  13.457   9.212   2.580
83292SOL    HW251716  13.467   9.062   2.599
83293SOL     OW51717   5.346   9.500   2.508
83293SOL    HW151718   5.280   9.442   2.546
83293SOL    HW251719   5.305   9.536   2.430
83294SOL     OW51720  10.320  13.442   8.318
83294SOL    HW151721  10.375  13.407   8.387
83294SOL    HW251722  10.362  13.524   8.293
83295SOL     OW51723   3.771   1.009  12.924
83295SOL    HW151724   3.765   1.103  12.906
83295SOL    HW251725   3.752   0.968  12.840
83296SOL     OW51726   8.691   9.121   5.904
83296SOL    HW151727   8.632   9.053   5.872
83296SOL    HW251728   8.773   9.107   5.857
83297SOL     OW51729   7.310   2.022  10.784
83297SOL    HW151730   7.335   1.989  10.870
83297SOL    HW251731   7.389   2.008  10.730
83298SOL     OW51732   7.724  11.585   3.003
83298SOL    HW151733   7.639  11.616   3.034
83298SOL    HW251734   7.725  11.492   3.023
83299SOL     OW51735   1.930   7.851   7.821
83299SOL    HW151736   1.967   7.762   7.827
83299SOL    HW251737   1.955   7.881   7.733
83300SOL     OW51738   6.137   3.892   6.324
83300SOL    HW151739   6.220   3.938   6.330
83300SOL    HW251740   6.101   3.894   6.412
83301SOL     OW51741   7.423   6.577   9.905
83301SOL    HW151742   7.362   6.578   9.831
83301SOL    HW251743   7.475   6.656   9.894
83302SOL     OW51744   8.641  11.149  10.457
83302SOL    HW151745   8.707  11.084  10.434
83302SOL    HW251746   8.565  11.126  10.405
83303SOL     OW51747  10.450   5.842  13.599
83303SOL    HW151748  10.507   5.890  13.539
83303SOL    HW251749  10.461   5.750  13.575
83304SOL     OW51750   2.899   9.433  11.479
83304SOL    HW151751   2.826   9.465  11.425
83304SOL    HW251752   2.949   9.512  11.500
83305SOL     OW51753   3.124  13.715   9.185
83305SOL    HW151754   3.216  13.738   9.193
83305SOL    HW251755   3.079  13.773   9.246
83306SOL     OW51756   5.725   8.788  12.252
83306SOL    HW151757   5.712   8.876  12.217
83306SOL    HW251758   5.778   8.800  12.331
83307SOL     OW51759   9.423   5.729   1.869
83307SOL    HW151760   9.429   5.720   1.964
83307SOL    HW251761   9.514   5.726   1.839
83308SOL     OW51762   1.909  10.156   5.276
83308SOL    HW151763   1.990  10.152   5.328
83308SOL    HW251764   1.858  10.226   5.318
83309SOL     OW51765   1.016   0.802  13.995
83309SOL    HW151766   0.962   0.732  14.031
83309SOL    HW251767   0.979   0.882  14.031
83310SOL     OW51768   5.418   9.556   5.011
83310SOL    HW151769   5.473   9.632   5.029
83310SOL    HW251770   5.469   9.505   4.948
83311SOL     OW51771   2.334   8.240   8.898
83311SOL    HW151772   2.374   8.155   8.881
83311SOL    HW251773   2.408   8.301   8.896
83312SOL     OW51774  10.320  12.281   0.440
83312SOL    HW151775  10.346  12.348   0.503
83312SOL    HW251776  10.226  12.271   0.452
83313SOL     OW51777  12.922   4.307  11.686
83313SOL    HW151778  12.995   4.293  11.747
83313SOL    HW251779  12.906   4.401  11.690
83314SOL     OW51780  14.178   0.220   0.208
83314SOL    HW151781  14.093   0.213   0.252
83314SOL    HW251782  14.200   0.313   0.212
83315SOL     OW51783   3.835   0.540   9.625
83315SOL    HW151784   3.825   0.450   9.657
83315SOL    HW251785   3.848   0.593   9.703
83316SOL     OW51786   9.315  10.181   9.738
83316SOL    HW151787   9.322  10.100   9.687
83316SOL    HW251788   9.229  10.175   9.780
83317SOL     OW51789   1.911  11.564   1.677
83317SOL    HW151790   1.977  11.618   1.722
83317SOL    HW251791   1.947  11.552   1.589
83318SOL     OW51792   3.071   6.880   7.598
83318SOL    HW151793   3.165   6.877   7.617
83318SOL    HW251794   3.033   6.934   7.667
83319SOL     OW51795  11.996   8.027   5.516
83319SOL    HW151796  11.902   8.026   5.498
83319SOL    HW251797  12.002   8.062   5.605
83320SOL     OW51798  14.862   2.950  12.158
83320SOL    HW151799  14.822   3.008  12.223
83320SOL    HW251800   0.075   2.945  12.184
83321SOL     OW51801   9.392   5.330  13.492
83321SOL    HW151802   9.304   5.362  13.511
83321SOL    HW251803   9.378   5.249  13.443
83322SOL     OW51804   5.588   6.276   3.153
83322SOL    HW151805   5.606   6.303   3.063
83322SOL    HW251806   5.505   6.229   3.148
83323SOL     OW51807  12.445   4.303   4.457
83323SOL    HW151808  12.372   4.300   4.519
83323SOL    HW251809  12.452   4.395   4.433
83324SOL     OW51810  11.659   0.043   4.419
83324SOL    HW151811  11.605   0.115   4.387
83324SOL    HW251812  11.600  14.871   4.475
83325SOL     OW51813   3.316   3.061   5.471
83325SOL    HW151814   3.271   3.140   5.442
83325SOL    HW251815   3.362   3.029   5.394
83326SOL     OW51816   0.194  13.781   3.469
83326SOL    HW151817   0.122  13.818   3.520
83326SOL    HW251818   0.236  13.856   3.427
83327SOL     OW51819   7.940   8.022  11.634
83327SOL    HW151820   7.853   8.010  11.672
83327SOL    HW251821   7.985   7.938  11.648
83328SOL     OW51822   3.755  13.034   6.841
83328SOL    HW151823   3.798  12.957   6.879
83328SOL    HW251824   3.816  13.106   6.857
83329SOL     OW51825   8.741  14.544   9.384
83329SOL    HW151826   8.786  14.529   9.301
83329SOL    HW251827   8.728  14.639   9.387
83330SOL     OW51828   9.802   1.330  10.668
83330SOL    HW151829   9.823   1.261  10.605
83330SOL    HW251830   9.837   1.298  10.751
83331SOL     OW51831   6.303  11.480   2.164
83331SOL    HW151832   6.214  11.459   2.137
83331SOL    HW251833   6.358  11.447   2.093
83332SOL     OW51834   4.866   9.710   5.357
83332SOL    HW151835   4.906   9.788   5.319
83332SOL    HW251836   4.836   9.737   5.444
83333SOL     OW51837   4.886  11.281  14.695
83333SOL    HW151838   4.908  11.242  14.780
83333SOL    HW251839   4.921  11.370  14.700
83334SOL     OW51840   8.498  12.326   4.351
83334SOL    HW151841   8.455  12.389   4.293
83334SOL    HW251842   8.556  12.276   4.293
83335SOL     OW51843   9.773   2.762   1.536
83335SOL    HW151844   9.826   2.823   1.587
83335SOL    HW251845   9.718   2.717   1.600
83336SOL     OW51846   0.039   3.185   3.932
83336SOL    HW151847   0.067   3.247   3.865
83336SOL    HW251848   0.105   3.116   3.930
83337SOL     OW51849  11.200  12.288   1.844
83337SOL    HW151850  11.163  12.282   1.756
83337SOL    HW251851  11.248  12.206   1.856
83338SOL     OW51852  10.742  11.664   3.378
83338SOL    HW151853  10.714  11.586   3.427
83338SOL    HW251854  10.789  11.717   3.443
83339SOL     OW51855   7.288  10.119   0.409
83339SOL    HW151856   7.299  10.024   0.402
83339SOL    HW251857   7.231  10.142   0.335
83340SOL     OW51858  13.372   9.555   3.713
83340SOL    HW151859  13.352   9.530   3.803
83340SOL    HW251860  13.318   9.495   3.660
83341SOL     OW51861   6.357  11.995  10.860
83341SOL    HW151862   6.354  11.958  10.949
83341SOL    HW251863   6.287  12.060  10.859
83342SOL     OW51864  11.285  12.093  11.708
83342SOL    HW151865  11.258  12.055  11.792
83342SOL    HW251866  11.307  12.184  11.729
83343SOL     OW51867  12.462   7.316   7.032
83343SOL    HW151868  12.453   7.245   6.968
83343SOL    HW251869  12.555   7.340   7.029
83344SOL     OW51870  13.769   9.031   9.636
83344SOL    HW151871  13.839   9.096   9.630
83344SOL    HW251872  13.751   9.025   9.730
83345SOL     OW51873   4.590   4.700   8.830
83345SOL    HW151874   4.509   4.745   8.853
83345SOL    HW251875   4.636   4.691   8.913
83346SOL     OW51876   1.283   9.807   5.502
83346SOL    HW151877   1.217   9.869   5.469
83346SOL    HW251878   1.345   9.798   5.429
83347SOL     OW51879   6.406  12.313  11.254
83347SOL    HW151880   6.500  12.292  11.257
83347SOL    HW251881   6.363  12.227  11.247
83348SOL     OW51882   2.639   5.460   1.662
83348SOL    HW151883   2.617   5.537   1.609
83348SOL    HW251884   2.732   5.471   1.683
83349SOL     OW51885  12.292   4.244   2.069
83349SOL    HW151886  12.340   4.317   2.029
83349SOL    HW251887  12.200   4.267   2.056
83350SOL     OW51888   5.137   1.110   7.351
83350SOL    HW151889   5.221   1.152   7.334
83350SOL    HW251890   5.110   1.144   7.436
83351SOL     OW51891   1.513   5.892  14.776
83351SOL    HW151892   1.515   5.924  14.866
83351SOL    HW251893   1.421   5.868  14.762
83352SOL     OW51894   3.307   0.791  10.882
83352SOL    HW151895   3.303   0.717  10.822
83352SOL    HW251896   3.400   0.811  10.889
83353SOL     OW51897   9.996   4.127  10.602
83353SOL    HW151898   9.927   4.062  10.620
83353SOL    HW251899   9.967   4.171  10.522
83354SOL     OW51900  13.562  12.202   7.879
83354SOL    HW151901  13.554  12.293   7.850
83354SOL    HW251902  13.550  12.151   7.799
83355SOL     OW51903   1.514  11.933   8.617
83355SOL    HW151904   1.593  11.888   8.589
83355SOL    HW251905   1.450  11.916   8.547
83356SOL     OW51906  11.165  13.869   1.133
83356SOL    HW151907  11.110  13.830   1.201
83356SOL    HW251908  11.117  13.947   1.106
83357SOL     OW51909   4.328   5.762  12.154
83357SOL    HW151910   4.241   5.747  12.117
83357SOL    HW251911   4.350   5.851  12.126
83358SOL     OW51912   7.390   1.320  11.333
83358SOL    HW151913   7.448   1.357  11.266
83358SOL    HW251914   7.394   1.383  11.405
83359SOL     OW51915   6.364   5.283  14.290
83359SOL    HW151916   6.413   5.262  14.210
83359SOL    HW251917   6.349   5.378  14.285
83360SOL     OW51918  14.716   8.988   0.355
83360SOL    HW151919  14.709   9.032   0.440
83360SOL    HW251920  14.784   9.036   0.308
83361SOL     OW51921   3.062   3.037   9.899
83361SOL    HW151922   3.032   2.990   9.977
83361SOL    HW251923   3.136   2.986   9.867
83362SOL     OW51924  11.130   1.664  12.567
83362SOL    HW151925  11.164   1.690  12.481
83362SOL    HW251926  11.109   1.571  12.557
83363SOL     OW51927   6.537   2.887   0.999
83363SOL    HW151928   6.558   2.796   1.019
83363SOL    HW251929   6.444   2.885   0.976
83364SOL     OW51930  11.048   5.531  13.685
83364SOL    HW151931  11.038   5.596  13.615
83364SOL    HW251932  11.083   5.581  13.759
83365SOL     OW51933  11.166   9.258   7.521
83365SOL    HW151934  11.097   9.266   7.455
83365SOL    HW251935  11.139   9.184   7.575
83366SOL     OW51936   7.080   3.003  14.237
83366SOL    HW151937   6.988   3.024  14.226
83366SOL    HW251938   7.127   3.083  14.213
83367SOL     OW51939  13.431  13.169   7.336
83367SOL    HW151940  13.459  13.254   7.371
83367SOL    HW251941  13.366  13.137   7.399
83368SOL     OW51942  14.338   3.521   7.326
83368SOL    HW151943  14.332   3.579   7.251
83368SOL    HW251944  14.253   3.476   7.328
83369SOL     OW51945  13.440  11.419  10.804
83369SOL    HW151946  13.468  11.498  10.850
83369SOL    HW251947  13.453  11.348  10.867
83370SOL     OW51948   7.060   1.661   0.627
83370SOL    HW151949   7.072   1.682   0.720
83370SOL    HW251950   7.022   1.573   0.627
83371SOL     OW51951   8.104   2.297   9.680
83371SOL    HW151952   8.182   2.351   9.697
83371SOL    HW251953   8.105   2.283   9.586
83372SOL     OW51954  14.653  11.641  14.276
83372SOL    HW151955  14.605  11.723  14.272
83372SOL    HW251956  14.588  11.576  14.303
83373SOL     OW51957   5.614   8.762  11.427
83373SOL    HW151958   5.654   8.848  11.441
83373SOL    HW251959   5.592   8.731  11.516
83374SOL     OW51960   5.000  11.143   2.920
83374SOL    HW151961   4.916  11.137   2.967
83374SOL    HW251962   4.975  11.143   2.828
83375SOL     OW51963   2.986  10.614  12.617
83375SOL    HW151964   3.003  10.666  12.538
83375SOL    HW251965   3.064  10.624  12.670
83376SOL     OW51966   0.397   1.794   1.115
83376SOL    HW151967   0.415   1.750   1.198
83376SOL    HW251968   0.481   1.830   1.088
83377SOL     OW51969  14.238   5.681   5.775
83377SOL    HW151970  14.146   5.664   5.754
83377SOL    HW251971  14.244   5.776   5.782
83378SOL     OW51972   7.949   9.903   8.739
83378SOL    HW151973   7.898   9.826   8.716
83378SOL    HW251974   7.989   9.881   8.823
83379SOL     OW51975   3.031   4.846   6.028
83379SOL    HW151976   3.073   4.839   6.114
83379SOL    HW251977   3.102   4.870   5.969
83380SOL     OW51978   9.091  12.756   6.604
83380SOL    HW151979   9.114  12.710   6.523
83380SOL    HW251980   9.131  12.704   6.674
83381SOL     OW51981   0.327   7.630   2.244
83381SOL    HW151982   0.301   7.722   2.234
83381SOL    HW251983   0.322   7.614   2.338
83382SOL     OW51984   8.194   8.878   1.685
83382SOL    HW151985   8.270   8.931   1.706
83382SOL    HW251986   8.219   8.830   1.606
83383SOL     OW51987   1.914   4.037   4.785
83383SOL    HW151988   1.983   4.101   4.767
83383SOL    HW251989   1.911   4.033   4.881
83384SOL     OW51990   5.910   8.259  13.596
83384SOL    HW151991   5.849   8.319  13.640
83384SOL    HW251992   5.906   8.283  13.504
83385SOL     OW51993   7.773   3.498   0.905
83385SOL    HW151994   7.747   3.571   0.850
83385SOL    HW251995   7.691   3.468   0.945
83386SOL     OW51996  14.162   2.178   7.513
83386SOL    HW151997  14.085   2.121   7.516
83386SOL    HW251998  14.193   2.171   7.423
83387SOL     OW51999  10.417   0.351  11.243
83387SOL    HW152000  10.476   0.311  11.179
83387SOL    HW252001  10.415   0.444  11.218
83388SOL     OW52002   7.161   1.754  14.000
83388SOL    HW152003   7.203   1.676  13.962
83388SOL    HW252004   7.223   1.784  14.066
83389SOL     OW52005  13.826   7.659   8.530
83389SOL    HW152006  13.740   7.688   8.498
83389SOL    HW252007  13.828   7.565   8.509
83390SOL     OW52008  13.486   2.643   1.836
83390SOL    HW152009  13.404   2.617   1.878
83390SOL    HW252010  13.462   2.716   1.779
83391SOL     OW52011   6.868  14.074   1.416
83391SOL    HW152012   6.934  14.086   1.484
83391SOL    HW252013   6.912  14.022   1.349
83392SOL     OW52014   9.837  13.082  10.176
83392SOL    HW152015   9.859  13.133  10.098
83392SOL    HW252016   9.882  13.128  10.247
83393SOL     OW52017  12.971   5.582   4.580
83393SOL    HW152018  12.917   5.653   4.545
83393SOL    HW252019  13.019   5.549   4.504
83394SOL     OW52020  10.424   1.209   8.418
83394SOL    HW152021  10.343   1.217   8.367
83394SOL    HW252022  10.396   1.226   8.508
83395SOL     OW52023   5.093   6.594  13.220
83395SOL    HW152024   5.020   6.647  13.255
83395SOL    HW252025   5.051   6.516  13.184
83396SOL     OW52026  13.443   3.358  12.876
83396SOL    HW152027  13.370   3.328  12.821
83396SOL    HW252028  13.405   3.426  12.931
83397SOL     OW52029   4.108   0.140  10.855
83397SOL    HW152030   4.040   0.073  10.856
83397SOL    HW252031   4.065   0.218  10.891
83398SOL     OW52032  12.537  13.554  10.960
83398SOL    HW152033  12.462  13.538  11.017
83398SOL    HW252034  12.503  13.539  10.871
83399SOL     OW52035   2.303   6.430   6.033
83399SOL    HW152036   2.267   6.514   6.061
83399SOL    HW252037   2.244   6.400   5.964
83400SOL     OW52038   7.563   3.093  13.891
83400SOL    HW152039   7.602   3.008  13.912
83400SOL    HW252040   7.495   3.073  13.827
83401SOL     OW52041  12.841   3.959   6.991
83401SOL    HW152042  12.801   3.983   6.907
83401SOL    HW252043  12.790   4.007   7.056
83402SOL     OW52044  11.380   7.791   0.781
83402SOL    HW152045  11.394   7.767   0.872
83402SOL    HW252046  11.464   7.770   0.738
83403SOL     OW52047  13.015   0.298  14.776
83403SOL    HW152048  12.950   0.332  14.837
83403SOL    HW252049  12.999   0.345  14.695
83404SOL     OW52050   3.657  13.048   0.500
83404SOL    HW152051   3.661  12.953   0.515
83404SOL    HW252052   3.606  13.082   0.573
83405SOL     OW52053   8.372   6.761  10.810
83405SOL    HW152054   8.463   6.790  10.823
83405SOL    HW252055   8.381   6.674  10.769
83406SOL     OW52056   8.887   9.905   3.548
83406SOL    HW152057   8.874   9.811   3.540
83406SOL    HW252058   8.815   9.944   3.499
83407SOL     OW52059   5.700   0.138   7.784
83407SOL    HW152060   5.715   0.110   7.693
83407SOL    HW252061   5.714   0.233   7.782
83408SOL     OW52062   9.254   0.175  13.216
83408SOL    HW152063   9.243   0.095  13.267
83408SOL    HW252064   9.302   0.148  13.138
83409SOL     OW52065   7.028   2.503   5.414
83409SOL    HW152066   6.973   2.430   5.442
83409SOL    HW252067   6.967   2.564   5.372
83410SOL     OW52068   6.094   0.468  10.547
83410SOL    HW152069   6.045   0.412  10.607
83410SOL    HW252070   6.138   0.532  10.604
83411SOL     OW52071   8.596   4.404   4.320
83411SOL    HW152072   8.643   4.322   4.335
83411SOL    HW252073   8.504   4.379   4.319
83412SOL     OW52074   0.645  13.938  10.013
83412SOL    HW152075   0.619  13.846  10.012
83412SOL    HW252076   0.678  13.954   9.925
83413SOL     OW52077   7.184  11.683   3.630
83413SOL    HW152078   7.187  11.648   3.541
83413SOL    HW252079   7.091  11.688   3.651
83414SOL     OW52080   0.124   3.258   8.560
83414SOL    HW152081   0.097   3.176   8.520
83414SOL    HW252082   0.141   3.317   8.486
83415SOL     OW52083   9.641   8.580   9.255
83415SOL    HW152084   9.700   8.631   9.198
83415SOL    HW252085   9.582   8.537   9.194
83416SOL     OW52086   5.692   3.757   2.483
83416SOL    HW152087   5.702   3.852   2.489
83416SOL    HW252088   5.757   3.729   2.419
83417SOL     OW52089   0.964   7.075   5.469
83417SOL    HW152090   0.990   7.081   5.560
83417SOL    HW252091   0.870   7.094   5.469
83418SOL     OW52092  10.046   1.209  14.159
83418SOL    HW152093  10.016   1.134  14.109
83418SOL    HW252094  10.141   1.198  14.164
83419SOL     OW52095   5.777   5.756   2.875
83419SOL    HW152096   5.742   5.685   2.821
83419SOL    HW252097   5.787   5.829   2.815
83420SOL     OW52098   0.222   6.181   0.640
83420SOL    HW152099   0.293   6.206   0.582
83420SOL    HW252100   0.183   6.264   0.668
83421SOL     OW52101   5.980  13.074  10.529
83421SOL    HW152102   5.885  13.065  10.533
83421SOL    HW252103   6.002  13.050  10.439
83422SOL     OW52104   8.317   3.755  14.520
83422SOL    HW152105   8.292   3.709  14.439
83422SOL    HW252106   8.340   3.685  14.581
83423SOL     OW52107  12.182  12.929   0.069
83423SOL    HW152108  12.231  13.011   0.061
83423SOL    HW252109  12.093  12.955   0.088
83424SOL     OW52110   0.883   5.959   3.763
83424SOL    HW152111   0.891   6.023   3.693
83424SOL    HW252112   0.856   5.878   3.718
83425SOL     OW52113   5.440   4.748   3.393
83425SOL    HW152114   5.465   4.769   3.484
83425SOL    HW252115   5.464   4.826   3.343
83426SOL     OW52116   7.639  10.610   9.911
83426SOL    HW152117   7.676  10.645   9.830
83426SOL    HW252118   7.706  10.627   9.977
83427SOL     OW52119  11.569   3.434  14.708
83427SOL    HW152120  11.570   3.340  14.727
83427SOL    HW252121  11.575   3.475  14.794
83428SOL     OW52122  14.595   5.098   0.544
83428SOL    HW152123  14.506   5.115   0.513
83428SOL    HW252124  14.644   5.076   0.465
83429SOL     OW52125   1.769   8.481   2.639
83429SOL    HW152126   1.692   8.435   2.673
83429SOL    HW252127   1.826   8.492   2.715
83430SOL     OW52128   8.858  10.293   1.520
83430SOL    HW152129   8.877  10.341   1.601
83430SOL    HW252130   8.897  10.207   1.534
83431SOL     OW52131  13.094  12.205   2.777
83431SOL    HW152132  13.018  12.150   2.794
83431SOL    HW252133  13.164  12.168   2.830
83432SOL     OW52134   7.967   5.253   7.205
83432SOL    HW152135   7.904   5.196   7.160
83432SOL    HW252136   8.042   5.196   7.222
83433SOL     OW52137   2.092  14.285  14.053
83433SOL    HW152138   2.135  14.364  14.084
83433SOL    HW252139   2.113  14.282  13.959
83434SOL     OW52140  10.203   0.182  12.804
83434SOL    HW152141  10.143   0.141  12.742
83434SOL    HW252142  10.146   0.226  12.867
83435SOL     OW52143   5.858  10.933   3.678
83435SOL    HW152144   5.779  10.985   3.663
83435SOL    HW252145   5.827  10.843   3.676
83436SOL     OW52146   8.231   4.814   5.098
83436SOL    HW152147   8.138   4.833   5.087
83436SOL    HW252148   8.275   4.875   5.040
83437SOL     OW52149  12.030  13.689   4.877
83437SOL    HW152150  12.065  13.602   4.897
83437SOL    HW252151  12.108  13.741   4.855
83438SOL     OW52152   6.815   2.447   4.878
83438SOL    HW152153   6.869   2.526   4.879
83438SOL    HW252154   6.731   2.476   4.916
83439SOL     OW52155   0.636  13.139  12.744
83439SOL    HW152156   0.583  13.204  12.698
83439SOL    HW252157   0.690  13.100  12.676
83440SOL     OW52158   4.670   1.750   3.055
83440SOL    HW152159   4.634   1.815   2.995
83440SOL    HW252160   4.737   1.798   3.104
83441SOL     OW52161   9.794  12.379  11.377
83441SOL    HW152162   9.820  12.412  11.463
83441SOL    HW252163   9.872  12.390  11.323
83442SOL     OW52164  13.798  12.843   4.661
83442SOL    HW152165  13.846  12.916   4.701
83442SOL    HW252166  13.837  12.834   4.574
83443SOL     OW52167   1.968  14.445   0.122
83443SOL    HW152168   2.006  14.533   0.117
83443SOL    HW252169   1.875  14.457   0.102
83444SOL     OW52170  14.762   0.397   6.535
83444SOL    HW152171  14.691   0.337   6.559
83444SOL    HW252172  14.736   0.481   6.573
83445SOL     OW52173   3.545  13.009  12.051
83445SOL    HW152174   3.633  13.018  12.089
83445SOL    HW252175   3.553  12.937  11.989
83446SOL     OW52176   5.477   6.045   5.428
83446SOL    HW152177   5.553   6.054   5.372
83446SOL    HW252178   5.507   5.992   5.502
83447SOL     OW52179   9.898   7.740  11.437
83447SOL    HW152180   9.910   7.774  11.348
83447SOL    HW252181   9.803   7.738  11.450
83448SOL     OW52182  14.696  10.040   9.654
83448SOL    HW152183  14.636  10.092   9.600
83448SOL    HW252184  14.758  10.003   9.591
83449SOL     OW52185   7.241   1.445   6.727
83449SOL    HW152186   7.255   1.468   6.636
83449SOL    HW252187   7.184   1.368   6.724
83450SOL     OW52188  14.845   1.892   6.909
83450SOL    HW152189   0.036   1.955   6.892
83450SOL    HW252190  14.767   1.947   6.920
83451SOL     OW52191   7.595  12.507   3.443
83451SOL    HW152192   7.521  12.446   3.437
83451SOL    HW252193   7.557  12.592   3.423
83452SOL     OW52194  13.413   6.631   9.407
83452SOL    HW152195  13.417   6.667   9.318
83452SOL    HW252196  13.492   6.664   9.449
83453SOL     OW52197   2.311   2.848   7.234
83453SOL    HW152198   2.381   2.886   7.288
83453SOL    HW252199   2.259   2.796   7.295
83454SOL     OW52200   7.868  11.862  12.394
83454SOL    HW152201   7.928  11.923  12.438
83454SOL    HW252202   7.809  11.919  12.345
83455SOL     OW52203   2.827   2.857   1.486
83455SOL    HW152204   2.739   2.866   1.521
83455SOL    HW252205   2.815   2.859   1.391
83456SOL     OW52206   7.555   6.563  10.971
83456SOL    HW152207   7.649   6.566  10.955
83456SOL    HW252208   7.522   6.503  10.904
83457SOL     OW52209   4.297  13.776   0.540
83457SOL    HW152210   4.201  13.777   0.543
83457SOL    HW252211   4.322  13.702   0.595
83458SOL     OW52212   5.476   3.741  12.308
83458SOL    HW152213   5.449   3.667  12.362
83458SOL    HW252214   5.526   3.702  12.237
83459SOL     OW52215  10.220  14.231  11.008
83459SOL    HW152216  10.153  14.175  10.968
83459SOL    HW252217  10.254  14.284  10.936
83460SOL     OW52218  11.208   1.523   9.519
83460SOL    HW152219  11.218   1.585   9.446
83460SOL    HW252220  11.209   1.578   9.597
83461SOL     OW52221   6.107   9.171  12.791
83461SOL    HW152222   6.151   9.159  12.876
83461SOL    HW252223   6.018   9.198  12.815
83462SOL     OW52224   8.942   0.846   3.043
83462SOL    HW152225   9.001   0.793   2.990
83462SOL    HW252226   8.942   0.932   3.001
83463SOL     OW52227  14.382  12.483   1.075
83463SOL    HW152228  14.422  12.443   0.998
83463SOL    HW252229  14.386  12.415   1.142
83464SOL     OW52230   3.275  11.117  14.623
83464SOL    HW152231   3.370  11.131  14.630
83464SOL    HW252232   3.261  11.098  14.530
83465SOL     OW52233   3.119  11.335  11.626
83465SOL    HW152234   3.029  11.366  11.632
83465SOL    HW252235   3.111  11.242  11.604
83466SOL     OW52236   7.714   0.762   8.759
83466SOL    HW152237   7.689   0.749   8.667
83466SOL    HW252238   7.660   0.699   8.807
83467SOL     OW52239   7.238  12.311   0.187
83467SOL    HW152240   7.209  12.336   0.274
83467SOL    HW252241   7.204  12.380   0.129
83468SOL     OW52242   9.255   1.145  14.406
83468SOL    HW152243   9.271   1.119  14.497
83468SOL    HW252244   9.338   1.131  14.362
83469SOL     OW52245   5.874   1.364  13.638
83469SOL    HW152246   5.926   1.419  13.697
83469SOL    HW252247   5.925   1.283  13.630
83470SOL     OW52248   4.715   0.671   1.897
83470SOL    HW152249   4.772   0.744   1.874
83470SOL    HW252250   4.652   0.708   1.959
83471SOL     OW52251   6.134   1.837   2.688
83471SOL    HW152252   6.064   1.814   2.626
83471SOL    HW252253   6.091   1.837   2.773
83472SOL     OW52254  13.288  11.996  13.348
83472SOL    HW152255  13.243  11.920  13.387
83472SOL    HW252256  13.277  11.984  13.254
83473SOL     OW52257   7.643   1.677   0.204
83473SOL    HW152258   7.663   1.765   0.238
83473SOL    HW252259   7.567   1.690   0.148
83474SOL     OW52260  12.055   5.764  11.596
83474SOL    HW152261  12.131   5.802  11.640
83474SOL    HW252262  11.982   5.822  11.619
83475SOL     OW52263   9.114   8.528   1.405
83475SOL    HW152264   9.188   8.472   1.383
83475SOL    HW252265   9.039   8.468   1.405
83476SOL     OW52266   1.677   5.675   2.333
83476SOL    HW152267   1.693   5.616   2.406
83476SOL    HW252268   1.752   5.662   2.274
83477SOL     OW52269  10.276   8.859   0.082
83477SOL    HW152270  10.326   8.833   0.159
83477SOL    HW252271  10.289   8.787   0.020
83478SOL     OW52272   0.330  14.373   7.275
83478SOL    HW152273   0.244  14.415   7.273
83478SOL    HW252274   0.312  14.280   7.269
83479SOL     OW52275  13.216  10.156  13.042
83479SOL    HW152276  13.180  10.107  13.116
83479SOL    HW252277  13.148  10.153  12.975
83480SOL     OW52278   7.034   5.373   0.044
83480SOL    HW152279   7.083   5.299   0.009
83480SOL    HW252280   7.070   5.386   0.132
83481SOL     OW52281   1.363  14.510   4.947
83481SOL    HW152282   1.313  14.555   4.880
83481SOL    HW252283   1.314  14.430   4.965
83482SOL     OW52284   1.085  11.037  14.085
83482SOL    HW152285   1.108  11.019  14.177
83482SOL    HW252286   1.059  11.129  14.084
83483SOL     OW52287   3.326  12.298   9.408
83483SOL    HW152288   3.381  12.307   9.330
83483SOL    HW252289   3.267  12.225   9.388
83484SOL     OW52290  14.600   0.174   4.847
83484SOL    HW152291  14.556   0.091   4.865
83484SOL    HW252292  14.543   0.218   4.784
83485SOL     OW52293  14.127   3.355   1.468
83485SOL    HW152294  14.148   3.448   1.464
83485SOL    HW252295  14.048   3.351   1.523
83486SOL     OW52296   6.346   2.283  13.966
83486SOL    HW152297   6.384   2.219  13.906
83486SOL    HW252298   6.414   2.297  14.032
83487SOL     OW52299   0.431   4.743   6.121
83487SOL    HW152300   0.375   4.770   6.049
83487SOL    HW252301   0.380   4.762   6.200
83488SOL     OW52302   3.596   8.824  13.204
83488SOL    HW152303   3.602   8.834  13.109
83488SOL    HW252304   3.523   8.763  13.218
83489SOL     OW52305   5.759   7.955  12.188
83489SOL    HW152306   5.846   7.980  12.156
83489SOL    HW252307   5.756   7.860  12.177
83490SOL     OW52308   9.339   4.455   3.837
83490SOL    HW152309   9.428   4.489   3.847
83490SOL    HW252310   9.351   4.363   3.812
83491SOL     OW52311   8.017   2.598   2.266
83491SOL    HW152312   8.099   2.646   2.271
83491SOL    HW252313   7.968   2.641   2.196
83492SOL     OW52314  14.812   4.987   2.118
83492SOL    HW152315  14.866   5.065   2.107
83492SOL    HW252316  14.858   4.919   2.069
83493SOL     OW52317  13.208   6.772  11.174
83493SOL    HW152318  13.166   6.715  11.111
83493SOL    HW252319  13.248   6.841  11.121
83494SOL     OW52320  14.268   5.509   6.906
83494SOL    HW152321  14.214   5.510   6.985
83494SOL    HW252322  14.223   5.569   6.846
83495SOL     OW52323   0.122   4.196   0.767
83495SOL    HW152324   0.084   4.126   0.714
83495SOL    HW252325   0.049   4.231   0.817
83496SOL     OW52326   9.588   1.376  13.379
83496SOL    HW152327   9.663   1.408  13.429
83496SOL    HW252328   9.622   1.303  13.328
83497SOL     OW52329   0.467   8.537   8.175
83497SOL    HW152330   0.512   8.592   8.240
83497SOL    HW252331   0.375   8.560   8.184
83498SOL     OW52332  10.860   2.263   0.885
83498SOL    HW152333  10.917   2.299   0.953
83498SOL    HW252334  10.790   2.221   0.933
83499SOL     OW52335   2.648   5.491  10.095
83499SOL    HW152336   2.599   5.409  10.086
83499SOL    HW252337   2.658   5.523  10.006
83500SOL     OW52338   0.309  11.204  13.027
83500SOL    HW152339   0.276  11.134  13.083
83500SOL    HW252340   0.336  11.159  12.946
83501SOL     OW52341  13.118   7.483   0.644
83501SOL    HW152342  13.164   7.473   0.561
83501SOL    HW252343  13.095   7.394   0.670
83502SOL     OW52344   5.644  11.752   2.011
83502SOL    HW152345   5.604  11.670   1.980
83502SOL    HW252346   5.570  11.810   2.028
83503SOL     OW52347   2.045   3.070   0.285
83503SOL    HW152348   2.127   3.118   0.293
83503SOL    HW252349   1.976   3.134   0.303
83504SOL     OW52350  11.908   1.830   1.141
83504SOL    HW152351  11.959   1.868   1.213
83504SOL    HW252352  11.819   1.824   1.175
83505SOL     OW52353   1.302   7.885  11.657
83505SOL    HW152354   1.248   7.891  11.735
83505SOL    HW252355   1.304   7.792  11.636
83506SOL     OW52356   3.123  14.638  10.108
83506SOL    HW152357   3.194  14.580  10.082
83506SOL    HW252358   3.159  14.691  10.179
83507SOL     OW52359  12.837   5.267   5.683
83507SOL    HW152360  12.865   5.206   5.614
83507SOL    HW252361  12.781   5.330   5.637
83508SOL     OW52362   3.113   8.554   8.577
83508SOL    HW152363   3.045   8.620   8.583
83508SOL    HW252364   3.087   8.500   8.503
83509SOL     OW52365   1.544  14.710   0.092
83509SOL    HW152366   1.470  14.739   0.145
83509SOL    HW252367   1.618  14.761   0.124
83510SOL     OW52368   2.560   9.529   3.949
83510SOL    HW152369   2.642   9.480   3.946
83510SOL    HW252370   2.540   9.538   4.043
83511SOL     OW52371   0.311  10.911   5.027
83511SOL    HW152372   0.394  10.931   4.983
83511SOL    HW252373   0.297  10.984   5.086
83512SOL     OW52374  13.666   8.229  12.723
83512SOL    HW152375  13.594   8.257  12.779
83512SOL    HW252376  13.709   8.311  12.696
83513SOL     OW52377  13.836   6.521  14.228
83513SOL    HW152378  13.820   6.427  14.214
83513SOL    HW252379  13.902   6.543  14.162
83514SOL     OW52380   6.030   5.760  13.421
83514SOL    HW152381   6.046   5.838  13.474
83514SOL    HW252382   5.974   5.792  13.349
83515SOL     OW52383   8.778   6.951   7.414
83515SOL    HW152384   8.844   6.967   7.347
83515SOL    HW252385   8.813   6.877   7.465
83516SOL     OW52386   5.691  13.208   2.251
83516SOL    HW152387   5.613  13.253   2.285
83516SOL    HW252388   5.764  13.265   2.276
83517SOL     OW52389   1.584   1.504  12.331
83517SOL    HW152390   1.636   1.454  12.394
83517SOL    HW252391   1.632   1.585  12.318
83518SOL     OW52392   7.161  12.092   9.756
83518SOL    HW152393   7.081  12.071   9.805
83518SOL    HW252394   7.134  12.085   9.664
83519SOL     OW52395   3.851  13.738  11.573
83519SOL    HW152396   3.810  13.717  11.657
83519SOL    HW252397   3.920  13.801  11.595
83520SOL     OW52398   4.029   7.466   9.969
83520SOL    HW152399   4.017   7.372   9.978
83520SOL    HW252400   3.980   7.490   9.890
83521SOL     OW52401   4.185   7.866   0.042
83521SOL    HW152402   4.180   7.953   0.003
83521SOL    HW252403   4.269   7.832   0.012
83522SOL     OW52404  12.475  11.612   9.939
83522SOL    HW152405  12.420  11.629  10.016
83522SOL    HW252406  12.515  11.527   9.957
83523SOL     OW52407  10.940  14.635   0.307
83523SOL    HW152408  10.987  14.647   0.390
83523SOL    HW252409  10.848  14.628   0.332
83524SOL     OW52410   2.550  10.252  14.069
83524SOL    HW152411   2.458  10.277  14.057
83524SOL    HW252412   2.568  10.192  13.997
83525SOL     OW52413  12.674  14.699  12.114
83525SOL    HW152414  12.675  14.789  12.148
83525SOL    HW252415  12.586  14.687  12.080
83526SOL     OW52416  13.822  11.627  12.235
83526SOL    HW152417  13.740  11.594  12.198
83526SOL    HW252418  13.885  11.620  12.163
83527SOL     OW52419  14.621  10.217   2.255
83527SOL    HW152420  14.682  10.211   2.181
83527SOL    HW252421  14.646  10.298   2.299
83528SOL     OW52422  13.187   4.467   8.709
83528SOL    HW152423  13.205   4.494   8.619
83528SOL    HW252424  13.249   4.396   8.726
83529SOL     OW52425   7.393   6.935  14.050
83529SOL    HW152426   7.371   7.003  14.114
83529SOL    HW252427   7.394   6.854  14.102
83530SOL     OW52428   0.065   7.825  13.728
83530SOL    HW152429   0.022   7.890  13.784
83530SOL    HW252430   0.070   7.746  13.782
83531SOL     OW52431   4.231   5.032   4.165
83531SOL    HW152432   4.226   5.127   4.171
83531SOL    HW252433   4.207   5.001   4.252
83532SOL     OW52434  14.574   8.726   3.909
83532SOL    HW152435  14.498   8.758   3.859
83532SOL    HW252436  14.577   8.633   3.889
83533SOL     OW52437   4.033   2.870   4.203
83533SOL    HW152438   4.067   2.854   4.115
83533SOL    HW252439   4.108   2.903   4.252
83534SOL     OW52440   2.494   1.818  14.184
83534SOL    HW152441   2.467   1.726  14.179
83534SOL    HW252442   2.417   1.864  14.218
83535SOL     OW52443  12.781   0.065   4.065
83535SOL    HW152444  12.810  14.854   4.050
83535SOL    HW252445  12.855   0.119   4.034
83536SOL     OW52446  13.198  13.646   5.533
83536SOL    HW152447  13.233  13.650   5.622
83536SOL    HW252448  13.135  13.575   5.534
83537SOL     OW52449   6.251   3.943   9.292
83537SOL    HW152450   6.269   4.005   9.222
83537SOL    HW252451   6.259   3.994   9.373
83538SOL     OW52452   3.651  12.661   1.038
83538SOL    HW152453   3.584  12.619   1.092
83538SOL    HW252454   3.704  12.589   1.005
83539SOL     OW52455  11.890   4.848   9.274
83539SOL    HW152456  11.979   4.818   9.253
83539SOL    HW252457  11.889   4.940   9.244
83540SOL     OW52458   3.922  11.519  13.535
83540SOL    HW152459   3.972  11.493  13.458
83540SOL    HW252460   3.845  11.563  13.500
83541SOL     OW52461   2.502   6.346   5.564
83541SOL    HW152462   2.510   6.305   5.478
83541SOL    HW252463   2.514   6.275   5.626
83542SOL     OW52464   4.347   8.572   7.754
83542SOL    HW152465   4.273   8.633   7.761
83542SOL    HW252466   4.359   8.538   7.843
83543SOL     OW52467  11.646  11.205   1.838
83543SOL    HW152468  11.609  11.136   1.892
83543SOL    HW252469  11.616  11.286   1.878
83544SOL     OW52470   0.839  10.853   9.711
83544SOL    HW152471   0.758  10.802   9.712
83544SOL    HW252472   0.874  10.840   9.622
83545SOL     OW52473  13.698   4.012   4.375
83545SOL    HW152474  13.677   3.919   4.372
83545SOL    HW252475  13.719   4.029   4.467
83546SOL     OW52476  11.353   0.533   2.240
83546SOL    HW152477  11.345   0.438   2.251
83546SOL    HW252478  11.266   0.562   2.213
83547SOL     OW52479   7.376  10.093   9.306
83547SOL    HW152480   7.285  10.117   9.294
83547SOL    HW252481   7.401  10.053   9.222
83548SOL     OW52482   1.893   4.699   8.943
83548SOL    HW152483   1.816   4.706   8.999
83548SOL    HW252484   1.929   4.612   8.960
83549SOL     OW52485   5.249   1.455   6.150
83549SOL    HW152486   5.249   1.550   6.134
83549SOL    HW252487   5.214   1.418   6.069
83550SOL     OW52488   1.764   5.798   8.534
83550SOL    HW152489   1.680   5.753   8.542
83550SOL    HW252490   1.827   5.739   8.575
83551SOL     OW52491   7.434  13.460   8.795
83551SOL    HW152492   7.422  13.419   8.710
83551SOL    HW252493   7.439  13.554   8.776
83552SOL     OW52494  14.796  12.430  14.772
83552SOL    HW152495  14.751  12.473  14.700
83552SOL    HW252496  14.800  12.496  14.841
83553SOL     OW52497   4.479   6.937   3.052
83553SOL    HW152498   4.422   6.887   2.994
83553SOL    HW252499   4.451   7.028   3.043
83554SOL     OW52500   0.573  14.197  10.023
83554SOL    HW152501   0.663  14.231  10.028
83554SOL    HW252502   0.583  14.102  10.027
83555SOL     OW52503   3.497  14.349  12.966
83555SOL    HW152504   3.574  14.305  13.002
83555SOL    HW252505   3.430  14.339  13.033
83556SOL     OW52506   1.181  10.016   7.088
83556SOL    HW152507   1.206  10.109   7.089
83556SOL    HW252508   1.259   9.971   7.056
83557SOL     OW52509   7.026   1.692   4.892
83557SOL    HW152510   7.022   1.611   4.944
83557SOL    HW252511   6.938   1.729   4.900
83558SOL     OW52512  14.773   0.315   9.863
83558SOL    HW152513  14.808   0.305   9.775
83558SOL    HW252514  14.850   0.325   9.919
83559SOL     OW52515   7.911   3.554   7.021
83559SOL    HW152516   7.944   3.636   7.058
83559SOL    HW252517   7.843   3.526   7.082
83560SOL     OW52518  14.592  14.545   5.755
83560SOL    HW152519  14.658  14.475   5.756
83560SOL    HW252520  14.522  14.511   5.699
83561SOL     OW52521  13.775  10.677  11.584
83561SOL    HW152522  13.867  10.655  11.567
83561SOL    HW252523  13.738  10.598  11.624
83562SOL     OW52524   2.090   8.281  14.594
83562SOL    HW152525   2.101   8.362  14.545
83562SOL    HW252526   2.179   8.251  14.612
83563SOL     OW52527   6.798   3.290   6.660
83563SOL    HW152528   6.790   3.236   6.582
83563SOL    HW252529   6.809   3.228   6.732
83564SOL     OW52530   2.900   0.964   6.273
83564SOL    HW152531   2.950   0.926   6.201
83564SOL    HW252532   2.961   1.025   6.315
83565SOL     OW52533  13.178   6.180   1.628
83565SOL    HW152534  13.113   6.111   1.633
83565SOL    HW252535  13.228   6.160   1.548
83566SOL     OW52536   3.886   8.104  13.262
83566SOL    HW152537   3.890   8.187  13.215
83566SOL    HW252538   3.978   8.084  13.282
83567SOL     OW52539   2.098   2.504   6.162
83567SOL    HW152540   2.052   2.421   6.170
83567SOL    HW252541   2.149   2.511   6.242
83568SOL     OW52542   3.368  11.033  12.720
83568SOL    HW152543   3.299  11.099  12.724
83568SOL    HW252544   3.370  10.994  12.807
83569SOL     OW52545  11.623   6.853   5.364
83569SOL    HW152546  11.700   6.867   5.310
83569SOL    HW252547  11.549   6.878   5.308
83570SOL     OW52548  13.409  10.485  12.492
83570SOL    HW152549  13.412  10.448  12.580
83570SOL    HW252550  13.383  10.413  12.436
83571SOL     OW52551   4.667   4.297   6.461
83571SOL    HW152552   4.624   4.271   6.380
83571SOL    HW252553   4.705   4.382   6.442
83572SOL     OW52554   7.213   1.432   1.652
83572SOL    HW152555   7.291   1.397   1.609
83572SOL    HW252556   7.226   1.412   1.745
83573SOL     OW52557  13.162   9.421   5.598
83573SOL    HW152558  13.188   9.400   5.688
83573SOL    HW252559  13.197   9.509   5.583
83574SOL     OW52560   8.204   1.434   1.813
83574SOL    HW152561   8.286   1.447   1.861
83574SOL    HW252562   8.214   1.349   1.771
83575SOL     OW52563  11.032  12.496   9.696
83575SOL    HW152564  11.022  12.570   9.756
83575SOL    HW252565  11.106  12.520   9.640
83576SOL     OW52566   5.486   3.488   1.180
83576SOL    HW152567   5.572   3.453   1.159
83576SOL    HW252568   5.499   3.583   1.186
83577SOL     OW52569  10.593   4.443   7.795
83577SOL    HW152570  10.557   4.356   7.811
83577SOL    HW252571  10.520   4.502   7.809
83578SOL     OW52572  10.838  11.807  12.829
83578SOL    HW152573  10.760  11.820  12.882
83578SOL    HW252574  10.911  11.819  12.890
83579SOL     OW52575   0.145   7.596   4.539
83579SOL    HW152576   0.228   7.601   4.492
83579SOL    HW252577   0.099   7.677   4.515
83580SOL     OW52578   7.829  13.102   3.117
83580SOL    HW152579   7.814  13.025   3.062
83580SOL    HW252580   7.818  13.177   3.058
83581SOL     OW52581   7.118   5.361   1.888
83581SOL    HW152582   7.084   5.299   1.824
83581SOL    HW252583   7.212   5.344   1.891
83582SOL     OW52584   6.930   8.768  13.592
83582SOL    HW152585   6.992   8.741  13.660
83582SOL    HW252586   6.949   8.860  13.577
83583SOL     OW52587   8.658   0.948   9.941
83583SOL    HW152588   8.590   1.016   9.939
83583SOL    HW252589   8.635   0.893  10.016
83584SOL     OW52590  11.550   5.557  13.695
83584SOL    HW152591  11.469   5.530  13.651
83584SOL    HW252592  11.551   5.653  13.689
83585SOL     OW52593  11.390   9.349   2.843
83585SOL    HW152594  11.428   9.429   2.879
83585SOL    HW252595  11.398   9.359   2.748
83586SOL     OW52596   5.355   6.134   5.144
83586SOL    HW152597   5.375   6.106   5.233
83586SOL    HW252598   5.368   6.055   5.091
83587SOL     OW52599   9.746   9.109  12.453
83587SOL    HW152600   9.690   9.095  12.529
83587SOL    HW252601   9.690   9.089  12.377
83588SOL     OW52602   8.554   9.418   8.107
83588SOL    HW152603   8.605   9.369   8.171
83588SOL    HW252604   8.589   9.507   8.113
83589SOL     OW52605   2.169  14.341   7.382
83589SOL    HW152606   2.117  14.390   7.446
83589SOL    HW252607   2.220  14.279   7.435
83590SOL     OW52608  11.594   4.007   5.184
83590SOL    HW152609  11.564   4.033   5.271
83590SOL    HW252610  11.577   3.913   5.180
83591SOL     OW52611   1.449  11.024   8.103
83591SOL    HW152612   1.491  11.039   8.188
83591SOL    HW252613   1.434  10.929   8.101
83592SOL     OW52614   0.211   8.480   0.331
83592SOL    HW152615   0.132   8.529   0.353
83592SOL    HW252616   0.186   8.388   0.337
83593SOL     OW52617  14.434  11.345   2.143
83593SOL    HW152618  14.442  11.440   2.138
83593SOL    HW252619  14.341  11.328   2.130
83594SOL     OW52620   4.020   3.549  12.829
83594SOL    HW152621   3.996   3.457  12.829
83594SOL    HW252622   3.938   3.596  12.844
83595SOL     OW52623   0.043   5.302   6.704
83595SOL    HW152624   0.013   5.236   6.766
83595SOL    HW252625  14.847   5.360   6.692
83596SOL     OW52626  13.109   6.118   3.781
83596SOL    HW152627  13.111   6.115   3.877
83596SOL    HW252628  13.146   6.203   3.759
83597SOL     OW52629   8.662   2.777  13.053
83597SOL    HW152630   8.633   2.688  13.073
83597SOL    HW252631   8.632   2.830  13.126
83598SOL     OW52632   5.627   1.168   3.934
83598SOL    HW152633   5.633   1.260   3.909
83598SOL    HW252634   5.717   1.143   3.953
83599SOL     OW52635   7.442  12.146   6.068
83599SOL    HW152636   7.384  12.081   6.029
83599SOL    HW252637   7.529  12.121   6.038
83600SOL     OW52638   5.999   2.284   4.238
83600SOL    HW152639   6.089   2.257   4.220
83600SOL    HW252640   5.972   2.334   4.161
83601SOL     OW52641  10.109   3.197   4.511
83601SOL    HW152642  10.066   3.168   4.431
83601SOL    HW252643  10.171   3.264   4.481
83602SOL     OW52644  10.705   6.284   3.937
83602SOL    HW152645  10.631   6.344   3.942
83602SOL    HW252646  10.713   6.263   3.844
83603SOL     OW52647   5.079   3.407   9.212
83603SOL    HW152648   5.123   3.430   9.294
83603SOL    HW252649   5.038   3.489   9.183
83604SOL     OW52650  14.737   3.968   6.091
83604SOL    HW152651  14.810   3.934   6.039
83604SOL    HW252652  14.690   3.890   6.120
83605SOL     OW52653   3.837  14.283   4.191
83605SOL    HW152654   3.874  14.331   4.265
83605SOL    HW252655   3.788  14.211   4.231
83606SOL     OW52656  11.332   0.506   8.656
83606SOL    HW152657  11.387   0.584   8.650
83606SOL    HW252658  11.262   0.531   8.717
83607SOL     OW52659   0.936  14.049   5.614
83607SOL    HW152660   0.860  14.036   5.558
83607SOL    HW252661   0.908  14.115   5.677
83608SOL     OW52662   3.857   9.355  12.439
83608SOL    HW152663   3.903   9.326  12.361
83608SOL    HW252664   3.797   9.283  12.460
83609SOL     OW52665   1.665   9.023   5.688
83609SOL    HW152666   1.644   8.979   5.606
83609SOL    HW252667   1.611   8.980   5.753
83610SOL     OW52668   1.171  10.581   7.159
83610SOL    HW152669   1.251  10.570   7.211
83610SOL    HW252670   1.124  10.652   7.202
83611SOL     OW52671   0.388   0.031  10.867
83611SOL    HW152672   0.362   0.108  10.817
83611SOL    HW252673   0.306  14.874  10.900
83612SOL     OW52674  13.630   7.376   0.478
83612SOL    HW152675  13.541   7.340   0.467
83612SOL    HW252676  13.678   7.306   0.523
83613SOL     OW52677   4.359  10.268   2.515
83613SOL    HW152678   4.368  10.345   2.571
83613SOL    HW252679   4.381  10.194   2.572
83614SOL     OW52680   7.545  10.699   2.358
83614SOL    HW152681   7.458  10.694   2.320
83614SOL    HW252682   7.599  10.643   2.302
83615SOL     OW52683   0.170   3.175   6.029
83615SOL    HW152684   0.086   3.219   6.015
83615SOL    HW252685   0.232   3.224   5.975
83616SOL     OW52686  14.150   2.534   1.334
83616SOL    HW152687  14.143   2.598   1.263
83616SOL    HW252688  14.142   2.587   1.414
83617SOL     OW52689   5.787   2.655   0.836
83617SOL    HW152690   5.777   2.750   0.829
83617SOL    HW252691   5.743   2.620   0.759
83618SOL     OW52692   0.321   7.446   6.424
83618SOL    HW152693   0.356   7.521   6.376
83618SOL    HW252694   0.384   7.432   6.495
83619SOL     OW52695  10.490   4.631  10.546
83619SOL    HW152696  10.564   4.657  10.601
83619SOL    HW252697  10.474   4.707  10.490
83620SOL     OW52698   1.905   9.473  13.038
83620SOL    HW152699   1.999   9.490  13.041
83620SOL    HW252700   1.864   9.559  13.048
83621SOL     OW52701  12.693   1.756   6.013
83621SOL    HW152702  12.741   1.807   5.948
83621SOL    HW252703  12.655   1.822   6.071
83622SOL     OW52704   3.325  11.568   0.092
83622SOL    HW152705   3.315  11.663   0.095
83622SOL    HW252706   3.295  11.538   0.178
83623SOL     OW52707   5.041  14.607  13.219
83623SOL    HW152708   5.086  14.691  13.210
83623SOL    HW252709   4.959  14.618  13.171
83624SOL     OW52710  13.442   1.868   6.701
83624SOL    HW152711  13.413   1.795   6.646
83624SOL    HW252712  13.529   1.891   6.667
83625SOL     OW52713  12.428  13.483   8.335
83625SOL    HW152714  12.368  13.441   8.397
83625SOL    HW252715  12.375  13.550   8.293
83626SOL     OW52716   8.661   0.073   4.569
83626SOL    HW152717   8.753   0.077   4.544
83626SOL    HW252718   8.613   0.065   4.487
83627SOL     OW52719   0.780   0.319   7.368
83627SOL    HW152720   0.713   0.281   7.311
83627SOL    HW252721   0.858   0.265   7.353
83628SOL     OW52722  12.576  10.686   9.659
83628SOL    HW152723  12.494  10.736   9.656
83628SOL    HW252724  12.569  10.625   9.586
83629SOL     OW52725   2.791  14.846  11.232
83629SOL    HW152726   2.783  14.751  11.227
83629SOL    HW252727   2.873  14.865  11.186
83630SOL     OW52728   5.963   6.626  13.246
83630SOL    HW152729   5.956   6.700  13.306
83630SOL    HW252730   6.056   6.605  13.245
83631SOL     OW52731  11.904   8.216  13.464
83631SOL    HW152732  11.961   8.290  13.484
83631SOL    HW252733  11.834   8.255  13.411
83632SOL     OW52734   2.727   4.168   4.680
83632SOL    HW152735   2.807   4.194   4.724
83632SOL    HW252736   2.732   4.209   4.593
83633SOL     OW52737   1.544   2.511   8.647
83633SOL    HW152738   1.545   2.440   8.583
83633SOL    HW252739   1.515   2.587   8.598
83634SOL     OW52740   8.097   3.970   4.681
83634SOL    HW152741   8.117   3.903   4.616
83634SOL    HW252742   8.003   3.961   4.697
83635SOL     OW52743   2.773  11.181   3.039
83635SOL    HW152744   2.753  11.095   3.002
83635SOL    HW252745   2.852  11.167   3.091
83636SOL     OW52746  11.480   1.256   6.708
83636SOL    HW152747  11.477   1.285   6.617
83636SOL    HW252748  11.513   1.332   6.756
83637SOL     OW52749  11.123  12.288   2.325
83637SOL    HW152750  11.166  12.373   2.341
83637SOL    HW252751  11.194  12.224   2.333
83638SOL     OW52752   2.446   8.243   7.899
83638SOL    HW152753   2.503   8.278   7.968
83638SOL    HW252754   2.384   8.187   7.946
83639SOL     OW52755   1.726  11.587   5.170
83639SOL    HW152756   1.759  11.513   5.119
83639SOL    HW252757   1.743  11.561   5.261
83640SOL     OW52758   7.092   9.236  14.448
83640SOL    HW152759   7.030   9.309  14.444
83640SOL    HW252760   7.175   9.276  14.473
83641SOL     OW52761   1.157   8.690   0.470
83641SOL    HW152762   1.214   8.715   0.543
83641SOL    HW252763   1.086   8.754   0.473
83642SOL     OW52764   1.721   2.919   9.268
83642SOL    HW152765   1.737   2.882   9.355
83642SOL    HW252766   1.625   2.917   9.259
83643SOL     OW52767  10.231   8.491   3.487
83643SOL    HW152768  10.197   8.403   3.472
83643SOL    HW252769  10.153   8.546   3.492
83644SOL     OW52770   9.870  11.619  10.427
83644SOL    HW152771   9.826  11.541  10.393
83644SOL    HW252772   9.961  11.591  10.440
83645SOL     OW52773   3.898   2.558   3.564
83645SOL    HW152774   3.889   2.651   3.585
83645SOL    HW252775   3.921   2.516   3.647
83646SOL     OW52776   3.013   1.813  14.199
83646SOL    HW152777   2.982   1.756  14.270
83646SOL    HW252778   3.082   1.866  14.239
83647SOL     OW52779  14.531  13.074   1.491
83647SOL    HW152780  14.530  13.048   1.398
83647SOL    HW252781  14.439  13.093   1.511
83648SOL     OW52782   5.756  12.978   8.801
83648SOL    HW152783   5.848  12.966   8.827
83648SOL    HW252784   5.737  13.070   8.821
83649SOL     OW52785  12.719   1.484   2.607
83649SOL    HW152786  12.771   1.479   2.527
83649SOL    HW252787  12.684   1.573   2.608
83650SOL     OW52788  10.591   9.198   5.473
83650SOL    HW152789  10.544   9.260   5.417
83650SOL    HW252790  10.577   9.113   5.433
83651SOL     OW52791  13.908   5.040  12.052
83651SOL    HW152792  13.880   5.118  12.101
83651SOL    HW252793  13.962   4.991  12.113
83652SOL     OW52794   8.300   1.985   8.227
83652SOL    HW152795   8.351   1.910   8.258
83652SOL    HW252796   8.366   2.049   8.201
83653SOL     OW52797   8.129  12.580  14.330
83653SOL    HW152798   8.151  12.487  14.323
83653SOL    HW252799   8.172  12.609  14.410
83654SOL     OW52800   7.238  13.910  12.015
83654SOL    HW152801   7.253  13.891  12.108
83654SOL    HW252802   7.202  13.999  12.014
83655SOL     OW52803   0.377  14.065   4.986
83655SOL    HW152804   0.337  14.024   4.909
83655SOL    HW252805   0.307  14.065   5.052
83656SOL     OW52806  11.698  12.579   2.830
83656SOL    HW152807  11.763  12.514   2.856
83656SOL    HW252808  11.628  12.571   2.896
83657SOL     OW52809   6.845  10.282   0.674
83657SOL    HW152810   6.926  10.316   0.713
83657SOL    HW252811   6.779  10.292   0.742
83658SOL     OW52812  14.263   1.410   8.774
83658SOL    HW152813  14.200   1.466   8.729
83658SOL    HW252814  14.348   1.446   8.752
83659SOL     OW52815   6.547   8.567  10.580
83659SOL    HW152816   6.472   8.627  10.572
83659SOL    HW252817   6.528   8.496  10.519
83660SOL     OW52818  11.851   6.089   8.108
83660SOL    HW152819  11.817   6.059   8.192
83660SOL    HW252820  11.884   6.177   8.125
83661SOL     OW52821  14.588   5.510   8.819
83661SOL    HW152822  14.543   5.434   8.781
83661SOL    HW252823  14.552   5.585   8.773
83662SOL     OW52824   2.876   5.358   5.575
83662SOL    HW152825   2.822   5.313   5.641
83662SOL    HW252826   2.818   5.425   5.539
83663SOL     OW52827   1.388   2.666   9.761
83663SOL    HW152828   1.427   2.754   9.763
83663SOL    HW252829   1.304   2.676   9.806
83664SOL     OW52830   2.970   4.511   6.521
83664SOL    HW152831   3.047   4.486   6.573
83664SOL    HW252832   2.898   4.460   6.557
83665SOL     OW52833   4.391  14.653   0.460
83665SOL    HW152834   4.410  14.702   0.540
83665SOL    HW252835   4.345  14.715   0.404
83666SOL     OW52836   9.550   1.191   0.873
83666SOL    HW152837   9.480   1.137   0.908
83666SOL    HW252838   9.629   1.161   0.918
83667SOL     OW52839   5.274   7.889  14.589
83667SOL    HW152840   5.305   7.965  14.540
83667SOL    HW252841   5.354   7.850  14.626
83668SOL     OW52842   0.764  11.080   9.876
83668SOL    HW152843   0.814  11.027   9.814
83668SOL    HW252844   0.828  11.141   9.912
83669SOL     OW52845   1.438   5.954   9.697
83669SOL    HW152846   1.397   6.013   9.761
83669SOL    HW252847   1.398   5.868   9.714
83670SOL     OW52848  10.330   7.975   5.040
83670SOL    HW152849  10.299   7.959   4.951
83670SOL    HW252850  10.404   7.915   5.050
83671SOL     OW52851  11.293   3.327   1.090
83671SOL    HW152852  11.218   3.272   1.067
83671SOL    HW252853  11.335   3.281   1.163
83672SOL     OW52854  11.050  11.046   9.248
83672SOL    HW152855  11.109  10.975   9.222
83672SOL    HW252856  10.964  11.005   9.250
83673SOL     OW52857   4.573  14.727  11.627
83673SOL    HW152858   4.548  14.794  11.563
83673SOL    HW252859   4.643  14.678  11.584
83674SOL     OW52860  11.028  12.462   3.876
83674SOL    HW152861  11.114  12.431   3.850
83674SOL    HW252862  11.000  12.520   3.805
83675SOL     OW52863   0.477   5.705   0.410
83675SOL    HW152864   0.434   5.779   0.368
83675SOL    HW252865   0.564   5.737   0.432
83676SOL     OW52866   9.454  12.887  10.818
83676SOL    HW152867   9.471  12.908  10.726
83676SOL    HW252868   9.538  12.858  10.852
83677SOL     OW52869  10.194   7.143  11.778
83677SOL    HW152870  10.228   7.089  11.706
83677SOL    HW252871  10.145   7.213  11.734
83678SOL     OW52872   9.629   4.974   2.282
83678SOL    HW152873   9.629   4.880   2.263
83678SOL    HW252874   9.669   5.015   2.205
83679SOL     OW52875  14.188  14.008   3.263
83679SOL    HW152876  14.171  14.095   3.300
83679SOL    HW252877  14.258  13.972   3.317
83680SOL     OW52878   6.094  14.324   4.196
83680SOL    HW152879   6.164  14.386   4.214
83680SOL    HW252880   6.138  14.243   4.171
83681SOL     OW52881   1.591   3.610   3.726
83681SOL    HW152882   1.569   3.520   3.749
83681SOL    HW252883   1.619   3.605   3.635
83682SOL     OW52884   1.234   8.088   9.059
83682SOL    HW152885   1.213   8.056   9.147
83682SOL    HW252886   1.305   8.151   9.071
83683SOL     OW52887  13.976   5.825   2.884
83683SOL    HW152888  13.910   5.803   2.818
83683SOL    HW252889  13.965   5.757   2.951
83684SOL     OW52890   7.137   9.503  10.430
83684SOL    HW152891   7.194   9.559  10.484
83684SOL    HW252892   7.070   9.472  10.491
83685SOL     OW52893   1.348   3.006   5.698
83685SOL    HW152894   1.440   2.987   5.716
83685SOL    HW252895   1.349   3.088   5.648
83686SOL     OW52896  12.160   8.567   0.734
83686SOL    HW152897  12.120   8.511   0.668
83686SOL    HW252898  12.254   8.553   0.724
83687SOL     OW52899  11.672  11.736  13.188
83687SOL    HW152900  11.594  11.774  13.228
83687SOL    HW252901  11.668  11.765  13.097
83688SOL     OW52902   4.948  12.468  12.585
83688SOL    HW152903   5.021  12.505  12.634
83688SOL    HW252904   4.871  12.487  12.640
83689SOL     OW52905   6.376   1.318   4.193
83689SOL    HW152906   6.404   1.404   4.161
83689SOL    HW252907   6.341   1.334   4.280
83690SOL     OW52908  12.063   6.721  14.614
83690SOL    HW152909  12.110   6.667  14.677
83690SOL    HW252910  12.015   6.785  14.667
83691SOL     OW52911   2.300   3.836   1.601
83691SOL    HW152912   2.346   3.916   1.627
83691SOL    HW252913   2.367   3.784   1.556
83692SOL     OW52914   7.615   2.845   9.582
83692SOL    HW152915   7.652   2.838   9.670
83692SOL    HW252916   7.565   2.765   9.570
83693SOL     OW52917   4.651   1.350  14.363
83693SOL    HW152918   4.642   1.258  14.386
83693SOL    HW252919   4.745   1.367  14.370
83694SOL     OW52920   6.133   5.918  10.524
83694SOL    HW152921   6.114   5.846  10.463
83694SOL    HW252922   6.228   5.923  10.527
83695SOL     OW52923   4.344   6.781   9.135
83695SOL    HW152924   4.290   6.722   9.082
83695SOL    HW252925   4.318   6.869   9.108
83696SOL     OW52926   1.925   4.189   8.054
83696SOL    HW152927   1.953   4.143   7.975
83696SOL    HW252928   1.920   4.281   8.029
83697SOL     OW52929  10.578   7.932  11.343
83697SOL    HW152930  10.641   8.003  11.328
83697SOL    HW252931  10.561   7.896  11.257
83698SOL     OW52932   5.877   9.934   5.865
83698SOL    HW152933   5.968   9.922   5.839
83698SOL    HW252934   5.833   9.855   5.836
83699SOL     OW52935   0.605  13.614  13.585
83699SOL    HW152936   0.575  13.646  13.670
83699SOL    HW252937   0.688  13.570  13.604
83700SOL     OW52938   5.941   6.713  11.703
83700SOL    HW152939   5.928   6.808  11.698
83700SOL    HW252940   6.008   6.702  11.771
83701SOL     OW52941   1.070   7.493   9.461
83701SOL    HW152942   1.074   7.464   9.552
83701SOL    HW252943   1.160   7.488   9.430
83702SOL     OW52944   6.907  14.177   4.047
83702SOL    HW152945   6.942  14.217   3.968
83702SOL    HW252946   6.934  14.085   4.042
83703SOL     OW52947   8.052  13.800   9.957
83703SOL    HW152948   8.085  13.738  10.022
83703SOL    HW252949   8.051  13.751   9.875
83704SOL     OW52950   9.961   9.634   2.311
83704SOL    HW152951   9.943   9.541   2.299
83704SOL    HW252952  10.051   9.645   2.279
83705SOL     OW52953   0.077   2.522   1.133
83705SOL    HW152954   0.121   2.438   1.147
83705SOL    HW252955   0.045   2.517   1.043
83706SOL     OW52956   1.883   5.742   8.169
83706SOL    HW152957   1.860   5.700   8.086
83706SOL    HW252958   1.870   5.673   8.235
83707SOL     OW52959  13.179   0.477   7.728
83707SOL    HW152960  13.272   0.495   7.719
83707SOL    HW252961  13.143   0.490   7.640
83708SOL     OW52962   3.479  10.052  13.189
83708SOL    HW152963   3.431  10.124  13.148
83708SOL    HW252964   3.442  10.046  13.277
83709SOL     OW52965   8.073   8.882   5.533
83709SOL    HW152966   8.000   8.850   5.480
83709SOL    HW252967   8.136   8.917   5.469
83710SOL     OW52968   5.448   0.450   8.715
83710SOL    HW152969   5.374   0.507   8.736
83710SOL    HW252970   5.522   0.510   8.705
83711SOL     OW52971   8.122   0.051   1.649
83711SOL    HW152972   8.171   0.133   1.655
83711SOL    HW252973   8.076   0.045   1.733
83712SOL     OW52974   0.964   5.490   8.592
83712SOL    HW152975   0.986   5.509   8.683
83712SOL    HW252976   0.979   5.572   8.546
83713SOL     OW52977   3.113   7.404   5.084
83713SOL    HW152978   3.132   7.430   5.174
83713SOL    HW252979   3.018   7.411   5.077
83714SOL     OW52980  10.944   6.389   7.716
83714SOL    HW152981  10.956   6.482   7.736
83714SOL    HW252982  11.006   6.371   7.646
83715SOL     OW52983   1.272   8.988  14.504
83715SOL    HW152984   1.341   8.960  14.445
83715SOL    HW252985   1.261   9.081  14.486
83716SOL     OW52986   5.815   6.026   2.084
83716SOL    HW152987   5.722   6.004   2.074
83716SOL    HW252988   5.815   6.121   2.102
83717SOL     OW52989   5.465   1.651  14.842
83717SOL    HW152990   5.371   1.664  14.852
83717SOL    HW252991   5.476   1.617  14.753
83718SOL     OW52992   9.240   1.309   1.210
83718SOL    HW152993   9.304   1.305   1.280
83718SOL    HW252994   9.287   1.345   1.135
83719SOL     OW52995   7.942   3.893   5.030
83719SOL    HW152996   7.921   3.981   5.061
83719SOL    HW252997   7.910   3.891   4.940
83720SOL     OW52998   4.931  14.352   4.675
83720SOL    HW152999   4.966  14.267   4.703
83720SOL    HW253000   4.903  14.337   4.584
83721SOL     OW53001  11.371  14.149   1.586
83721SOL    HW153002  11.286  14.105   1.587
83721SOL    HW253003  11.435  14.078   1.588
83722SOL     OW53004  11.532  14.866  12.752
83722SOL    HW153005  11.592  14.792  12.753
83722SOL    HW253006  11.589   0.063  12.740
83723SOL     OW53007   7.239  14.401   0.891
83723SOL    HW153008   7.261  14.424   0.801
83723SOL    HW253009   7.184  14.473   0.921
83724SOL     OW53010   9.929  14.716   2.578
83724SOL    HW153011  10.022  14.704   2.558
83724SOL    HW253012   9.909  14.647   2.642
83725SOL     OW53013  10.758   5.148   5.787
83725SOL    HW153014  10.848   5.156   5.820
83725SOL    HW253015  10.714   5.226   5.822
83726SOL     OW53016   1.420   9.220   3.441
83726SOL    HW153017   1.481   9.286   3.407
83726SOL    HW253018   1.333   9.256   3.425
83727SOL     OW53019   2.902  10.132   5.082
83727SOL    HW153020   2.980  10.087   5.116
83727SOL    HW253021   2.851  10.153   5.160
83728SOL     OW53022  13.485   3.306   2.987
83728SOL    HW153023  13.516   3.231   3.038
83728SOL    HW253024  13.561   3.363   2.981
83729SOL     OW53025  13.750   8.426   9.572
83729SOL    HW153026  13.693   8.466   9.637
83729SOL    HW253027  13.834   8.414   9.617
83730SOL     OW53028   2.409  11.181   9.711
83730SOL    HW153029   2.347  11.119   9.672
83730SOL    HW253030   2.445  11.229   9.637
83731SOL     OW53031  13.999  13.705   5.597
83731SOL    HW153032  14.069  13.714   5.533
83731SOL    HW253033  14.017  13.621   5.640
83732SOL     OW53034   5.948   9.288  13.230
83732SOL    HW153035   5.967   9.234  13.307
83732SOL    HW253036   6.033   9.326  13.206
83733SOL     OW53037   2.819  12.995  13.958
83733SOL    HW153038   2.797  13.023  13.869
83733SOL    HW253039   2.768  13.053  14.015
83734SOL     OW53040   0.542   7.748   6.547
83734SOL    HW153041   0.633   7.767   6.569
83734SOL    HW253042   0.543   7.730   6.453
83735SOL     OW53043   5.111  13.656  12.552
83735SOL    HW153044   5.126  13.629  12.461
83735SOL    HW253045   5.053  13.589  12.587
83736SOL     OW53046  11.044   2.541   7.318
83736SOL    HW153047  11.131   2.561   7.350
83736SOL    HW253048  11.008   2.478   7.381
83737SOL     OW53049  11.991   0.300  10.762
83737SOL    HW153050  12.003   0.253  10.844
83737SOL    HW253051  11.912   0.262  10.723
83738SOL     OW53052   6.978   6.185   8.994
83738SOL    HW153053   7.027   6.105   9.011
83738SOL    HW253054   7.012   6.216   8.910
83739SOL     OW53055   7.363  10.006   4.961
83739SOL    HW153056   7.334   9.941   4.897
83739SOL    HW253057   7.457  10.013   4.949
83740SOL     OW53058   9.339  14.460   3.423
83740SOL    HW153059   9.417  14.511   3.402
83740SOL    HW253060   9.371  14.391   3.481
83741SOL     OW53061  14.576   0.737   0.364
83741SOL    HW153062  14.670   0.748   0.349
83741SOL    HW253063  14.535   0.807   0.313
83742SOL     OW53064  13.908   4.196  13.331
83742SOL    HW153065  13.965   4.121  13.318
83742SOL    HW253066  13.821   4.166  13.303
83743SOL     OW53067   3.252  12.256   3.510
83743SOL    HW153068   3.347  12.258   3.522
83743SOL    HW253069   3.221  12.186   3.567
83744SOL     OW53070  13.170   3.372  12.142
83744SOL    HW153071  13.118   3.293  12.152
83744SOL    HW253072  13.193   3.374  12.049
83745SOL     OW53073  13.086  11.878  14.420
83745SOL    HW153074  13.111  11.787  14.405
83745SOL    HW253075  13.127  11.926  14.348
83746SOL     OW53076   2.710   7.627   0.749
83746SOL    HW153077   2.635   7.633   0.808
83746SOL    HW253078   2.680   7.669   0.668
83747SOL     OW53079   4.830   5.224   6.120
83747SOL    HW153080   4.877   5.290   6.171
83747SOL    HW253081   4.766   5.273   6.069
83748SOL     OW53082   8.692   2.517   9.848
83748SOL    HW153083   8.663   2.445   9.792
83748SOL    HW253084   8.788   2.514   9.843
83749SOL     OW53085  14.678   8.671  14.141
83749SOL    HW153086  14.725   8.740  14.095
83749SOL    HW253087  14.647   8.712  14.221
83750SOL     OW53088   0.633  10.953  11.220
83750SOL    HW153089   0.677  10.979  11.139
83750SOL    HW253090   0.597  11.034  11.255
83751SOL     OW53091   4.860   7.987  14.427
83751SOL    HW153092   4.817   7.927  14.488
83751SOL    HW253093   4.790   8.015  14.368
83752SOL     OW53094   4.388   8.104   5.060
83752SOL    HW153095   4.482   8.086   5.069
83752SOL    HW253096   4.373   8.180   5.115
83753SOL     OW53097   9.076   7.451  14.633
83753SOL    HW153098   8.987   7.447  14.669
83753SOL    HW253099   9.129   7.491  14.702
83754SOL     OW53100   4.968   1.218   0.673
83754SOL    HW153101   4.925   1.304   0.674
83754SOL    HW253102   4.932   1.175   0.596
83755SOL     OW53103   7.553   6.858   9.562
83755SOL    HW153104   7.488   6.808   9.512
83755SOL    HW253105   7.526   6.847   9.653
83756SOL     OW53106   2.628   1.335  14.436
83756SOL    HW153107   2.663   1.394  14.370
83756SOL    HW253108   2.628   1.249  14.394
83757SOL     OW53109  14.144   3.666   5.478
83757SOL    HW153110  14.118   3.758   5.471
83757SOL    HW253111  14.231   3.669   5.518
83758SOL     OW53112   3.103   7.787  12.220
83758SOL    HW153113   3.195   7.807  12.202
83758SOL    HW253114   3.092   7.696  12.194
83759SOL     OW53115   8.161  12.559  10.349
83759SOL    HW153116   8.174  12.639  10.299
83759SOL    HW253117   8.150  12.491  10.283
83760SOL     OW53118   3.378   9.951  14.393
83760SOL    HW153119   3.331  10.016  14.446
83760SOL    HW253120   3.408   9.886  14.457
83761SOL     OW53121   8.199   8.932   8.928
83761SOL    HW153122   8.288   8.903   8.949
83761SOL    HW253123   8.210   8.994   8.856
83762SOL     OW53124   6.844   7.217   4.226
83762SOL    HW153125   6.895   7.177   4.156
83762SOL    HW253126   6.827   7.306   4.195
83763SOL     OW53127  10.288   0.321   0.041
83763SOL    HW153128  10.300   0.233   0.005
83763SOL    HW253129  10.303   0.310   0.135
83764SOL     OW53130  13.903  11.328  11.262
83764SOL    HW153131  13.968  11.264  11.291
83764SOL    HW253132  13.904  11.322  11.167
83765SOL     OW53133  12.325   2.870  12.415
83765SOL    HW153134  12.393   2.803  12.409
83765SOL    HW253135  12.244   2.824  12.392
83766SOL     OW53136   5.330  13.305   4.349
83766SOL    HW153137   5.307  13.297   4.257
83766SOL    HW253138   5.378  13.225   4.369
83767SOL     OW53139   5.989   1.993   7.353
83767SOL    HW153140   5.898   1.976   7.377
83767SOL    HW253141   6.013   2.071   7.403
83768SOL     OW53142  11.650   7.830  14.060
83768SOL    HW153143  11.745   7.833  14.049
83768SOL    HW253144  11.637   7.778  14.139
83769SOL     OW53145   8.317  14.631   2.890
83769SOL    HW153146   8.295  14.599   2.803
83769SOL    HW253147   8.235  14.668   2.923
83770SOL     OW53148   5.342  14.135   9.080
83770SOL    HW153149   5.294  14.080   9.019
83770SOL    HW253150   5.431  14.099   9.080
83771SOL     OW53151   0.363   6.691   7.600
83771SOL    HW153152   0.402   6.682   7.513
83771SOL    HW253153   0.432   6.661   7.660
83772SOL     OW53154   9.572   1.774   5.773
83772SOL    HW153155   9.537   1.789   5.685
83772SOL    HW253156   9.638   1.843   5.784
83773SOL     OW53157   7.235   2.197   2.128
83773SOL    HW153158   7.256   2.206   2.221
83773SOL    HW253159   7.281   2.118   2.100
83774SOL     OW53160   2.911   7.039   7.753
83774SOL    HW153161   2.938   7.000   7.836
83774SOL    HW253162   2.879   7.126   7.777
83775SOL     OW53163   0.990   8.373   1.509
83775SOL    HW153164   0.898   8.400   1.503
83775SOL    HW253165   0.990   8.301   1.571
83776SOL     OW53166  13.477   4.033   0.980
83776SOL    HW153167  13.547   4.087   1.017
83776SOL    HW253168  13.412   4.025   1.050
83777SOL     OW53169   7.129   8.643  13.770
83777SOL    HW153170   7.128   8.560  13.819
83777SOL    HW253171   7.218   8.651  13.737
83778SOL     OW53172   8.681  10.032  10.655
83778SOL    HW153173   8.623   9.957  10.668
83778SOL    HW253174   8.763  10.007  10.697
83779SOL     OW53175   3.599   0.525   9.905
83779SOL    HW153176   3.530   0.539   9.840
83779SOL    HW253177   3.565   0.455   9.962
83780SOL     OW53178   8.047  13.148  11.687
83780SOL    HW153179   8.105  13.125  11.760
83780SOL    HW253180   7.962  13.111  11.712
83781SOL     OW53181   0.615   6.771  12.625
83781SOL    HW153182   0.635   6.814  12.709
83781SOL    HW253183   0.662   6.823  12.560
83782SOL     OW53184  11.611   9.859  11.371
83782SOL    HW153185  11.624   9.765  11.382
83782SOL    HW253186  11.580   9.870  11.281
83783SOL     OW53187   8.226   5.212   2.033
83783SOL    HW153188   8.144   5.164   2.017
83783SOL    HW253189   8.263   5.225   1.945
83784SOL     OW53190  12.628   6.279   3.535
83784SOL    HW153191  12.596   6.265   3.625
83784SOL    HW253192  12.618   6.194   3.492
83785SOL     OW53193   0.461   9.600   0.178
83785SOL    HW153194   0.416   9.569   0.100
83785SOL    HW253195   0.532   9.537   0.191
83786SOL     OW53196   2.333  13.580   0.831
83786SOL    HW153197   2.359  13.490   0.811
83786SOL    HW253198   2.306  13.617   0.747
83787SOL     OW53199  13.485  14.838  12.474
83787SOL    HW153200  13.510  14.782  12.400
83787SOL    HW253201  13.462  14.776  12.543
83788SOL     OW53202  11.134   3.683   6.377
83788SOL    HW153203  11.207   3.629   6.346
83788SOL    HW253204  11.058   3.646   6.333
83789SOL     OW53205  11.076  14.435   8.724
83789SOL    HW153206  11.153  14.379   8.728
83789SOL    HW253207  11.002  14.376   8.739
83790SOL     OW53208   1.971  14.631   9.842
83790SOL    HW153209   1.879  14.604   9.837
83790SOL    HW253210   2.013  14.567   9.898
83791SOL     OW53211   5.634   8.151   0.734
83791SOL    HW153212   5.586   8.205   0.672
83791SOL    HW253213   5.691   8.096   0.680
83792SOL     OW53214   0.322   4.551   3.820
83792SOL    HW153215   0.269   4.476   3.847
83792SOL    HW253216   0.258   4.621   3.805
83793SOL     OW53217  13.847   3.961  14.606
83793SOL    HW153218  13.904   3.923  14.539
83793SOL    HW253219  13.769   3.988  14.558
83794SOL     OW53220   2.736   6.146   9.397
83794SOL    HW153221   2.780   6.204   9.335
83794SOL    HW253222   2.761   6.180   9.483
83795SOL     OW53223  13.072  14.280  10.663
83795SOL    HW153224  13.129  14.310  10.734
83795SOL    HW253225  13.104  14.325  10.585
83796SOL     OW53226   4.885   7.331   3.708
83796SOL    HW153227   4.805   7.284   3.684
83796SOL    HW253228   4.888   7.326   3.803
83797SOL     OW53229  10.527  14.707   9.067
83797SOL    HW153230  10.526  14.752   8.982
83797SOL    HW253231  10.552  14.617   9.045
83798SOL     OW53232  14.196   4.358   4.493
83798SOL    HW153233  14.154   4.273   4.506
83798SOL    HW253234  14.127   4.421   4.511
83799SOL     OW53235   3.335  14.041  12.991
83799SOL    HW153236   3.389  14.119  12.997
83799SOL    HW253237   3.299  14.030  13.080
83800SOL     OW53238   2.310   6.488   7.413
83800SOL    HW153239   2.260   6.425   7.465
83800SOL    HW253240   2.285   6.469   7.323
83801SOL     OW53241   9.295   3.753   8.157
83801SOL    HW153242   9.349   3.832   8.152
83801SOL    HW253243   9.279   3.729   8.066
83802SOL     OW53244   6.351   1.055   1.255
83802SOL    HW153245   6.439   1.074   1.286
83802SOL    HW253246   6.302   1.136   1.269
83803SOL     OW53247  11.812   1.045   1.635
83803SOL    HW153248  11.867   1.004   1.702
83803SOL    HW253249  11.753   1.101   1.684
83804SOL     OW53250   3.078   8.338   7.233
83804SOL    HW153251   3.092   8.266   7.172
83804SOL    HW253252   3.148   8.401   7.212
83805SOL     OW53253   8.511   6.525   2.525
83805SOL    HW153254   8.553   6.606   2.554
83805SOL    HW253255   8.501   6.536   2.430
83806SOL     OW53256   5.882   1.011   1.425
83806SOL    HW153257   5.788   1.011   1.442
83806SOL    HW253258   5.922   1.035   1.509
83807SOL     OW53259   6.351   9.517   1.738
83807SOL    HW153260   6.326   9.524   1.830
83807SOL    HW253261   6.331   9.426   1.715
83808SOL     OW53262  14.117  14.598   9.119
83808SOL    HW153263  14.102  14.525   9.059
83808SOL    HW253264  14.169  14.660   9.069
83809SOL     OW53265  14.421  12.536   6.767
83809SOL    HW153266  14.460  12.452   6.740
83809SOL    HW253267  14.328  12.517   6.779
83810SOL     OW53268  12.511  13.275  14.644
83810SOL    HW153269  12.497  13.254  14.552
83810SOL    HW253270  12.563  13.202  14.678
83811SOL     OW53271  14.066  11.292   9.735
83811SOL    HW153272  14.017  11.247   9.803
83811SOL    HW253273  14.093  11.223   9.674
83812SOL     OW53274   1.053   7.772   3.756
83812SOL    HW153275   1.089   7.835   3.819
83812SOL    HW253276   1.104   7.786   3.676
83813SOL     OW53277  14.118   7.137  11.641
83813SOL    HW153278  14.105   7.044  11.621
83813SOL    HW253279  14.213   7.149  11.636
83814SOL     OW53280   5.674  11.133   4.413
83814SOL    HW153281   5.666  11.059   4.474
83814SOL    HW253282   5.713  11.203   4.465
83815SOL     OW53283   7.925   4.086   8.987
83815SOL    HW153284   7.908   4.171   9.028
83815SOL    HW253285   7.865   4.084   8.912
83816SOL     OW53286   3.788  12.654  12.076
83816SOL    HW153287   3.721  12.602  12.122
83816SOL    HW253288   3.826  12.710  12.144
83817SOL     OW53289  12.367  11.243   0.196
83817SOL    HW153290  12.396  11.334   0.188
83817SOL    HW253291  12.371  11.226   0.290
83818SOL     OW53292   2.289  14.230   2.784
83818SOL    HW153293   2.201  14.204   2.759
83818SOL    HW253294   2.326  14.153   2.827
83819SOL     OW53295   1.967  13.527   2.828
83819SOL    HW153296   1.989  13.543   2.920
83819SOL    HW253297   2.051  13.537   2.782
83820SOL     OW53298   2.681  13.203   5.523
83820SOL    HW153299   2.726  13.197   5.607
83820SOL    HW253300   2.706  13.122   5.477
83821SOL     OW53301   3.132   0.572   7.851
83821SOL    HW153302   3.150   0.665   7.860
83821SOL    HW253303   3.172   0.532   7.928
83822SOL     OW53304   8.308   6.821   3.079
83822SOL    HW153305   8.292   6.881   3.152
83822SOL    HW253306   8.401   6.798   3.087
83823SOL     OW53307   7.444  11.032   3.723
83823SOL    HW153308   7.412  11.122   3.722
83823SOL    HW253309   7.520  11.032   3.666
83824SOL     OW53310   9.592   7.609   8.250
83824SOL    HW153311   9.685   7.625   8.236
83824SOL    HW253312   9.552   7.621   8.164
83825SOL     OW53313   1.279   6.959  14.464
83825SOL    HW153314   1.341   7.005  14.408
83825SOL    HW253315   1.273   6.871  14.426
83826SOL     OW53316   5.201   9.937  11.370
83826SOL    HW153317   5.255   9.880  11.426
83826SOL    HW253318   5.123   9.885  11.351
83827SOL     OW53319  14.359  12.544  14.554
83827SOL    HW153320  14.332  12.471  14.499
83827SOL    HW253321  14.282  12.565  14.607
83828SOL     OW53322  13.468   7.752  12.082
83828SOL    HW153323  13.559   7.760  12.052
83828SOL    HW253324  13.459   7.819  12.150
83829SOL     OW53325   0.007   2.704   1.739
83829SOL    HW153326   0.025   2.637   1.804
83829SOL    HW253327  14.857   2.780   1.790
83830SOL     OW53328   2.230  12.001   5.297
83830SOL    HW153329   2.227  12.096   5.310
83830SOL    HW253330   2.182  11.987   5.215
83831SOL     OW53331   8.434  14.196   2.593
83831SOL    HW153332   8.448  14.198   2.688
83831SOL    HW253333   8.373  14.124   2.580
83832SOL     OW53334  10.123   7.833   3.543
83832SOL    HW153335  10.078   7.820   3.627
83832SOL    HW253336  10.139   7.745   3.510
83833SOL     OW53337   5.619  14.781  12.126
83833SOL    HW153338   5.670  14.843  12.179
83833SOL    HW253339   5.597  14.831  12.047
83834SOL     OW53340   5.658  11.703  10.294
83834SOL    HW153341   5.647  11.611  10.318
83834SOL    HW253342   5.753  11.717  10.294
83835SOL     OW53343  11.090   4.182  11.430
83835SOL    HW153344  11.115   4.142  11.513
83835SOL    HW253345  11.009   4.137  11.405
83836SOL     OW53346  10.996  11.254   4.059
83836SOL    HW153347  11.091  11.263   4.057
83836SOL    HW253348  10.976  11.236   4.151
83837SOL     OW53349   9.659   9.415   7.659
83837SOL    HW153350   9.651   9.320   7.658
83837SOL    HW253351   9.743   9.432   7.702
83838SOL     OW53352   6.684   1.027  11.580
83838SOL    HW153353   6.743   1.083  11.531
83838SOL    HW253354   6.695   1.054  11.671
83839SOL     OW53355  12.253  10.737  14.295
83839SOL    HW153356  12.184  10.672  14.285
83839SOL    HW253357  12.263  10.747  14.389
83840SOL     OW53358   7.783   7.673   0.736
83840SOL    HW153359   7.874   7.683   0.710
83840SOL    HW253360   7.778   7.714   0.822
83841SOL     OW53361   4.995  12.869   9.579
83841SOL    HW153362   5.057  12.929   9.620
83841SOL    HW253363   5.042  12.786   9.575
83842SOL     OW53364   1.135  14.074   4.705
83842SOL    HW153365   1.215  14.126   4.701
83842SOL    HW253366   1.091  14.103   4.784
83843SOL     OW53367   0.790  12.052  11.489
83843SOL    HW153368   0.703  12.085  11.467
83843SOL    HW253369   0.847  12.128  11.479
83844SOL     OW53370   6.995  13.274  14.089
83844SOL    HW153371   6.973  13.321  14.009
83844SOL    HW253372   6.986  13.182  14.066
83845SOL     OW53373   3.089  11.568   2.200
83845SOL    HW153374   3.005  11.575   2.155
83845SOL    HW253375   3.082  11.487   2.250
83846SOL     OW53376   7.862   7.072   4.543
83846SOL    HW153377   7.811   7.106   4.617
83846SOL    HW253378   7.948   7.114   4.553
83847SOL     OW53379  14.488   7.704  13.905
83847SOL    HW153380  14.495   7.798  13.918
83847SOL    HW253381  14.507   7.691  13.812
83848SOL     OW53382  14.598   9.630   9.324
83848SOL    HW153383  14.578   9.558   9.384
83848SOL    HW253384  14.550   9.608   9.244
83849SOL     OW53385  14.573  13.799   2.365
83849SOL    HW153386  14.576  13.704   2.357
83849SOL    HW253387  14.634  13.819   2.436
83850SOL     OW53388   6.711  12.623   6.681
83850SOL    HW153389   6.755  12.539   6.665
83850SOL    HW253390   6.700  12.662   6.595
83851SOL     OW53391   1.946   6.415   9.243
83851SOL    HW153392   2.039   6.414   9.263
83851SOL    HW253393   1.903   6.405   9.328
83852SOL     OW53394   9.744  13.206   2.101
83852SOL    HW153395   9.723  13.145   2.030
83852SOL    HW253396   9.665  13.261   2.109
83853SOL     OW53397   2.885   6.833  10.105
83853SOL    HW153398   2.855   6.866  10.020
83853SOL    HW253399   2.974   6.803  10.089
83854SOL     OW53400   8.363   8.108  10.119
83854SOL    HW153401   8.292   8.083  10.061
83854SOL    HW253402   8.327   8.098  10.207
83855SOL     OW53403  13.812   8.907   7.023
83855SOL    HW153404  13.838   8.997   7.002
83855SOL    HW253405  13.762   8.916   7.105
83856SOL     OW53406   6.375   0.944  11.805
83856SOL    HW153407   6.410   1.021  11.761
83856SOL    HW253408   6.319   0.902  11.740
83857SOL     OW53409  10.188  11.839   0.038
83857SOL    HW153410  10.196  11.760  14.864
83857SOL    HW253411  10.130  11.896  14.866
83858SOL     OW53412   8.499   6.539   4.286
83858SOL    HW153413   8.480   6.629   4.310
83858SOL    HW253414   8.563   6.546   4.215
83859SOL     OW53415   1.044  10.686  11.420
83859SOL    HW153416   0.960  10.731  11.408
83859SOL    HW253417   1.057  10.686  11.515
83860SOL     OW53418  13.012   9.789   7.678
83860SOL    HW153419  13.051   9.866   7.721
83860SOL    HW253420  13.072   9.769   7.606
83861SOL     OW53421   8.954   1.771   1.165
83861SOL    HW153422   8.922   1.780   1.075
83861SOL    HW253423   8.967   1.861   1.195
83862SOL     OW53424  12.187  12.305   1.111
83862SOL    HW153425  12.157  12.394   1.130
83862SOL    HW253426  12.136  12.249   1.170
83863SOL     OW53427   0.374   6.645   0.615
83863SOL    HW153428   0.452   6.593   0.633
83863SOL    HW253429   0.403   6.736   0.623
83864SOL     OW53430   3.505   0.662  12.306
83864SOL    HW153431   3.583   0.629  12.352
83864SOL    HW253432   3.535   0.742  12.263
83865SOL     OW53433   2.337   6.419  10.294
83865SOL    HW153434   2.406   6.402  10.358
83865SOL    HW253435   2.258   6.433  10.346
83866SOL     OW53436   4.373   1.639   4.655
83866SOL    HW153437   4.419   1.680   4.582
83866SOL    HW253438   4.428   1.659   4.731
83867SOL     OW53439  13.466   8.777   4.469
83867SOL    HW153440  13.413   8.849   4.503
83867SOL    HW253441  13.404   8.720   4.425
83868SOL     OW53442   8.797   8.203  11.494
83868SOL    HW153443   8.813   8.108  11.495
83868SOL    HW253444   8.790   8.227  11.587
83869SOL     OW53445   4.794   0.515  11.563
83869SOL    HW153446   4.711   0.545  11.525
83869SOL    HW253447   4.832   0.460  11.494
83870SOL     OW53448   2.425   9.861   2.059
83870SOL    HW153449   2.511   9.833   2.027
83870SOL    HW253450   2.367   9.850   1.984
83871SOL     OW53451   3.828  10.118   2.910
83871SOL    HW153452   3.910  10.069   2.915
83871SOL    HW253453   3.851  10.199   2.864
83872SOL     OW53454   4.216   5.964  13.957
83872SOL    HW153455   4.141   5.911  13.930
83872SOL    HW253456   4.250   5.920  14.035
83873SOL     OW53457   5.986  12.403  13.492
83873SOL    HW153458   6.041  12.383  13.416
83873SOL    HW253459   5.955  12.317  13.522
83874SOL     OW53460   8.234   4.195   2.944
83874SOL    HW153461   8.226   4.264   2.878
83874SOL    HW253462   8.321   4.206   2.981
83875SOL     OW53463   6.545  12.928   2.180
83875SOL    HW153464   6.527  12.844   2.137
83875SOL    HW253465   6.614  12.967   2.127
83876SOL     OW53466   5.020   5.351   3.657
83876SOL    HW153467   5.072   5.280   3.695
83876SOL    HW253468   4.946   5.360   3.716
83877SOL     OW53469  14.874   5.932  12.756
83877SOL    HW153470   0.074   5.944  12.807
83877SOL    HW253471   0.024   5.939  12.665
83878SOL     OW53472   2.574   4.265   7.917
83878SOL    HW153473   2.640   4.273   7.848
83878SOL    HW253474   2.622   4.237   7.994
83879SOL     OW53475  14.228   2.715   8.289
83879SOL    HW153476  14.276   2.782   8.241
83879SOL    HW253477  14.203   2.651   8.222
83880SOL     OW53478  10.039   4.103   0.935
83880SOL    HW153479  10.012   4.072   1.022
83880SOL    HW253480   9.960   4.095   0.882
83881SOL     OW53481  14.334   7.246   7.948
83881SOL    HW153482  14.299   7.281   7.866
83881SOL    HW253483  14.260   7.204   7.990
83882SOL     OW53484  14.262   0.478  10.363
83882SOL    HW153485  14.249   0.555  10.307
83882SOL    HW253486  14.214   0.498  10.443
83883SOL     OW53487  10.495   8.626   1.762
83883SOL    HW153488  10.570   8.572   1.738
83883SOL    HW253489  10.446   8.573   1.825
83884SOL     OW53490   9.732   9.236   3.550
83884SOL    HW153491   9.648   9.213   3.589
83884SOL    HW253492   9.798   9.195   3.606
83885SOL     OW53493  11.402   7.674  13.029
83885SOL    HW153494  11.333   7.621  12.989
83885SOL    HW253495  11.383   7.763  12.999
83886SOL     OW53496  14.315  13.385   2.778
83886SOL    HW153497  14.239  13.440   2.761
83886SOL    HW253498  14.387  13.428   2.732
83887SOL     OW53499   0.502   3.611   9.467
83887SOL    HW153500   0.490   3.658   9.385
83887SOL    HW253501   0.595   3.592   9.471
83888SOL     OW53502  13.668   1.086  14.268
83888SOL    HW153503  13.685   1.013  14.209
83888SOL    HW253504  13.752   1.103  14.310
83889SOL     OW53505   6.640  13.572   2.875
83889SOL    HW153506   6.687  13.616   2.805
83889SOL    HW253507   6.595  13.642   2.922
83890SOL     OW53508   1.400  14.432  13.250
83890SOL    HW153509   1.343  14.456  13.178
83890SOL    HW253510   1.480  14.482  13.236
83891SOL     OW53511  10.197   9.646   6.441
83891SOL    HW153512  10.171   9.732   6.407
83891SOL    HW253513  10.290   9.654   6.460
83892SOL     OW53514  10.578  12.221  11.604
83892SOL    HW153515  10.616  12.137  11.581
83892SOL    HW253516  10.511  12.200  11.669
83893SOL     OW53517   2.242   3.611   2.996
83893SOL    HW153518   2.326   3.575   3.025
83893SOL    HW253519   2.183   3.599   3.070
83894SOL     OW53520   6.059   9.840  10.366
83894SOL    HW153521   5.994   9.787  10.411
83894SOL    HW253522   6.031   9.931  10.381
83895SOL     OW53523   0.912  12.073   9.554
83895SOL    HW153524   0.850  12.016   9.598
83895SOL    HW253525   0.981  12.014   9.523
83896SOL     OW53526   1.065   0.285  10.652
83896SOL    HW153527   1.137   0.230  10.684
83896SOL    HW253528   0.998   0.222  10.626
83897SOL     OW53529   5.889   0.194   0.940
83897SOL    HW153530   5.884   0.224   0.850
83897SOL    HW253531   5.982   0.200   0.963
83898SOL     OW53532  14.604   2.014  14.680
83898SOL    HW153533  14.633   2.037  14.592
83898SOL    HW253534  14.639   1.926  14.695
83899SOL     OW53535   0.474   4.200  14.435
83899SOL    HW153536   0.497   4.131  14.497
83899SOL    HW253537   0.509   4.171  14.351
83900SOL     OW53538  10.333   0.491  14.204
83900SOL    HW153539  10.276   0.533  14.268
83900SOL    HW253540  10.392   0.436  14.256
83901SOL     OW53541   7.400   5.697   2.603
83901SOL    HW153542   7.384   5.652   2.686
83901SOL    HW253543   7.465   5.642   2.558
83902SOL     OW53544   6.899   6.861   8.180
83902SOL    HW153545   6.990   6.858   8.150
83902SOL    HW253546   6.851   6.898   8.105
83903SOL     OW53547   0.261  11.821   4.515
83903SOL    HW153548   0.193  11.850   4.454
83903SOL    HW253549   0.338  11.871   4.490
83904SOL     OW53550  12.756   6.742   5.680
83904SOL    HW153551  12.774   6.757   5.587
83904SOL    HW253552  12.768   6.827   5.721
83905SOL     OW53553  11.658  12.215   2.183
83905SOL    HW153554  11.613  12.284   2.134
83905SOL    HW253555  11.668  12.251   2.271
83906SOL     OW53556   0.688   0.365   6.396
83906SOL    HW153557   0.632   0.430   6.354
83906SOL    HW253558   0.628   0.309   6.445
83907SOL     OW53559   5.802  13.650   7.927
83907SOL    HW153560   5.758  13.625   7.846
83907SOL    HW253561   5.895  13.653   7.905
83908SOL     OW53562  14.488  13.941   6.713
83908SOL    HW153563  14.499  13.984   6.628
83908SOL    HW253564  14.402  13.899   6.707
83909SOL     OW53565   1.435  12.262   3.725
83909SOL    HW153566   1.360  12.269   3.783
83909SOL    HW253567   1.495  12.203   3.770
83910SOL     OW53568   5.897   5.984  12.412
83910SOL    HW153569   5.902   6.048  12.341
83910SOL    HW253570   5.984   5.986  12.452
83911SOL     OW53571   5.737   2.923   6.789
83911SOL    HW153572   5.699   2.997   6.742
83911SOL    HW253573   5.662   2.879   6.829
83912SOL     OW53574  14.365  13.610  12.787
83912SOL    HW153575  14.292  13.647  12.737
83912SOL    HW253576  14.360  13.516  12.770
83913SOL     OW53577   0.984   8.445   2.802
83913SOL    HW153578   1.017   8.517   2.748
83913SOL    HW253579   0.892   8.467   2.817
83914SOL     OW53580  10.714   0.157   9.098
83914SOL    HW153581  10.643   0.220   9.108
83914SOL    HW253582  10.693   0.109   9.018
83915SOL     OW53583   5.808   5.214   7.591
83915SOL    HW153584   5.748   5.288   7.591
83915SOL    HW253585   5.894   5.252   7.573
83916SOL     OW53586   2.428   5.472   9.615
83916SOL    HW153587   2.514   5.495   9.650
83916SOL    HW253588   2.374   5.549   9.632
83917SOL     OW53589   9.045   6.819   4.141
83917SOL    HW153590   9.034   6.908   4.176
83917SOL    HW253591   9.140   6.810   4.130
83918SOL     OW53592  10.224  14.442   2.882
83918SOL    HW153593  10.198  14.350   2.883
83918SOL    HW253594  10.272  14.454   2.964
83919SOL     OW53595  10.039  13.401   0.475
83919SOL    HW153596   9.979  13.331   0.499
83919SOL    HW253597  10.089  13.418   0.555
83920SOL     OW53598   0.670   5.285   0.228
83920SOL    HW153599   0.657   5.305   0.135
83920SOL    HW253600   0.686   5.190   0.230
83921SOL     OW53601   8.825   9.884  12.900
83921SOL    HW153602   8.891   9.933  12.852
83921SOL    HW253603   8.790   9.822  12.836
83922SOL     OW53604   4.456  12.385   0.419
83922SOL    HW153605   4.511  12.321   0.464
83922SOL    HW253606   4.511  12.463   0.412
83923SOL     OW53607   9.792   1.366   2.413
83923SOL    HW153608   9.770   1.298   2.475
83923SOL    HW253609   9.875   1.402   2.445
83924SOL     OW53610  10.845   3.677   5.857
83924SOL    HW153611  10.939   3.669   5.873
83924SOL    HW253612  10.820   3.596   5.813
83925SOL     OW53613  10.078  14.287   1.918
83925SOL    HW153614  10.007  14.236   1.879
83925SOL    HW253615  10.072  14.268   2.012
83926SOL     OW53616   0.314  10.790  14.656
83926SOL    HW153617   0.387  10.760  14.710
83926SOL    HW253618   0.354  10.816  14.574
83927SOL     OW53619   9.122   7.473   6.972
83927SOL    HW153620   9.163   7.387   6.963
83927SOL    HW253621   9.098   7.478   7.065
83928SOL     OW53622   6.442  11.085   3.345
83928SOL    HW153623   6.518  11.096   3.288
83928SOL    HW253624   6.388  11.018   3.303
83929SOL     OW53625   6.305   2.651   3.052
83929SOL    HW153626   6.400   2.660   3.064
83929SOL    HW253627   6.294   2.630   2.960
83930SOL     OW53628   5.245  11.331   3.227
83930SOL    HW153629   5.157  11.362   3.205
83930SOL    HW253630   5.250  11.340   3.322
83931SOL     OW53631   6.100   0.207   2.161
83931SOL    HW153632   6.187   0.178   2.133
83931SOL    HW253633   6.104   0.206   2.257
83932SOL     OW53634  13.287  10.294   7.136
83932SOL    HW153635  13.235  10.216   7.158
83932SOL    HW253636  13.250  10.363   7.190
83933SOL     OW53637   0.998   7.846  10.660
83933SOL    HW153638   0.949   7.803  10.590
83933SOL    HW253639   0.931   7.872  10.723
83934SOL     OW53640  11.419   6.924   8.967
83934SOL    HW153641  11.403   6.849   9.025
83934SOL    HW253642  11.410   7.000   9.025
83935SOL     OW53643   6.298   4.443   8.448
83935SOL    HW153644   6.357   4.370   8.463
83935SOL    HW253645   6.236   4.440   8.521
83936SOL     OW53646   2.001   7.031   4.766
83936SOL    HW153647   1.924   6.981   4.791
83936SOL    HW253648   2.014   7.093   4.838
83937SOL     OW53649  10.734   5.408   1.780
83937SOL    HW153650  10.723   5.346   1.851
83937SOL    HW253651  10.787   5.479   1.817
83938SOL     OW53652   0.060   2.522   7.033
83938SOL    HW153653  14.852   2.504   7.066
83938SOL    HW253654   0.113   2.449   7.065
83939SOL     OW53655  12.960   0.794   0.245
83939SOL    HW153656  12.981   0.762   0.332
83939SOL    HW253657  12.877   0.751   0.223
83940SOL     OW53658   6.012   4.464   6.659
83940SOL    HW153659   6.069   4.533   6.625
83940SOL    HW253660   6.049   4.442   6.744
83941SOL     OW53661   2.095   1.387   1.241
83941SOL    HW153662   2.085   1.424   1.154
83941SOL    HW253663   2.040   1.443   1.297
83942SOL     OW53664   0.757   1.999   5.051
83942SOL    HW153665   0.670   1.958   5.046
83942SOL    HW253666   0.773   2.010   5.145
83943SOL     OW53667   9.721   4.062   1.294
83943SOL    HW153668   9.734   4.148   1.333
83943SOL    HW253669   9.664   4.078   1.219
83944SOL     OW53670   6.304   9.295   0.857
83944SOL    HW153671   6.354   9.298   0.776
83944SOL    HW253672   6.359   9.342   0.920
83945SOL     OW53673  10.610  13.551   9.635
83945SOL    HW153674  10.543  13.611   9.601
83945SOL    HW253675  10.567  13.466   9.635
83946SOL     OW53676   2.426   4.246  10.694
83946SOL    HW153677   2.496   4.181  10.696
83946SOL    HW253678   2.347   4.198  10.719
83947SOL     OW53679   2.267   1.943  13.087
83947SOL    HW153680   2.261   1.994  13.006
83947SOL    HW253681   2.277   2.008  13.156
83948SOL     OW53682  14.591   8.330   5.564
83948SOL    HW153683  14.684   8.327   5.585
83948SOL    HW253684  14.588   8.345   5.469
83949SOL     OW53685   2.786   5.582   6.499
83949SOL    HW153686   2.728   5.516   6.538
83949SOL    HW253687   2.728   5.655   6.478
83950SOL     OW53688  12.298   3.210   0.245
83950SOL    HW153689  12.236   3.231   0.176
83950SOL    HW253690  12.275   3.268   0.317
83951SOL     OW53691   0.170   9.436   7.565
83951SOL    HW153692   0.198   9.528   7.563
83951SOL    HW253693   0.186   9.404   7.476
83952SOL     OW53694   7.103   2.686   8.199
83952SOL    HW153695   7.167   2.745   8.238
83952SOL    HW253696   7.049   2.743   8.143
83953SOL     OW53697   4.830   9.796   4.601
83953SOL    HW153698   4.875   9.844   4.670
83953SOL    HW253699   4.775   9.861   4.558
83954SOL     OW53700   9.736   0.997   6.635
83954SOL    HW153701   9.720   1.091   6.644
83954SOL    HW253702   9.809   0.991   6.574
83955SOL     OW53703  13.549   0.965   4.464
83955SOL    HW153704  13.552   0.870   4.478
83955SOL    HW253705  13.465   0.981   4.422
83956SOL     OW53706   1.451   3.241   7.811
83956SOL    HW153707   1.495   3.237   7.725
83956SOL    HW253708   1.375   3.296   7.797
83957SOL     OW53709  13.779   5.405  12.769
83957SOL    HW153710  13.841   5.359  12.826
83957SOL    HW253711  13.721   5.452  12.829
83958SOL     OW53712   3.407   6.235   8.260
83958SOL    HW153713   3.368   6.158   8.218
83958SOL    HW253714   3.404   6.217   8.353
83959SOL     OW53715   6.278  12.981  10.150
83959SOL    HW153716   6.302  12.906  10.204
83959SOL    HW253717   6.203  13.020  10.196
83960SOL     OW53718   7.642  10.568  10.655
83960SOL    HW153719   7.664  10.475  10.649
83960SOL    HW253720   7.723  10.609  10.686
83961SOL     OW53721   3.914  14.873   4.598
83961SOL    HW153722   3.928   0.063   4.534
83961SOL    HW253723   3.818  14.862   4.600
83962SOL     OW53724   9.422   7.156  11.977
83962SOL    HW153725   9.423   7.239  11.929
83962SOL    HW253726   9.379   7.094  11.918
83963SOL     OW53727   3.735  13.272  14.446
83963SOL    HW153728   3.653  13.303  14.408
83963SOL    HW253729   3.720  13.179  14.464
83964SOL     OW53730   9.611   3.911   3.499
83964SOL    HW153731   9.676   3.842   3.486
83964SOL    HW253732   9.539   3.867   3.544
83965SOL     OW53733  13.877   4.327   1.837
83965SOL    HW153734  13.820   4.253   1.857
83965SOL    HW253735  13.932   4.337   1.915
83966SOL     OW53736  12.752   0.680  12.395
83966SOL    HW153737  12.779   0.703  12.306
83966SOL    HW253738  12.699   0.601  12.384
83967SOL     OW53739  11.224   8.193   1.583
83967SOL    HW153740  11.315   8.163   1.595
83967SOL    HW253741  11.172   8.127   1.629
83968SOL     OW53742   0.468   0.241   6.497
83968SOL    HW153743   0.396   0.297   6.466
83968SOL    HW253744   0.425   0.165   6.534
83969SOL     OW53745   9.000   6.382   8.114
83969SOL    HW153746   9.038   6.359   8.029
83969SOL    HW253747   8.910   6.351   8.110
83970SOL     OW53748  12.458   9.733  12.289
83970SOL    HW153749  12.444   9.825  12.308
83970SOL    HW253750  12.379   9.690  12.321
83971SOL     OW53751   0.942   9.121   1.613
83971SOL    HW153752   0.915   9.150   1.525
83971SOL    HW253753   0.937   9.201   1.666
83972SOL     OW53754  12.632   0.608  13.196
83972SOL    HW153755  12.581   0.683  13.165
83972SOL    HW253756  12.567   0.539  13.208
83973SOL     OW53757   8.878   3.725   4.550
83973SOL    HW153758   8.885   3.759   4.639
83973SOL    HW253759   8.804   3.773   4.512
83974SOL     OW53760   4.187   5.251   9.405
83974SOL    HW153761   4.216   5.323   9.462
83974SOL    HW253762   4.157   5.183   9.466
83975SOL     OW53763   1.798   9.670  13.347
83975SOL    HW153764   1.836   9.719  13.274
83975SOL    HW253765   1.863   9.679  13.417
83976SOL     OW53766   6.566   0.114  11.432
83976SOL    HW153767   6.521   0.030  11.430
83976SOL    HW253768   6.535   0.156  11.512
83977SOL     OW53769   3.612  13.694   3.406
83977SOL    HW153770   3.620  13.662   3.316
83977SOL    HW253771   3.622  13.789   3.398
83978SOL     OW53772   3.957   7.140  11.940
83978SOL    HW153773   3.969   7.057  11.893
83978SOL    HW253774   4.046   7.167  11.964
83979SOL     OW53775   6.407   0.756   8.489
83979SOL    HW153776   6.499   0.776   8.470
83979SOL    HW253777   6.410   0.711   8.574
83980SOL     OW53778   0.310   9.100  12.616
83980SOL    HW153779   0.399   9.068  12.624
83980SOL    HW253780   0.309   9.183  12.665
83981SOL     OW53781   9.340  14.677   5.107
83981SOL    HW153782   9.281  14.655   5.178
83981SOL    HW253783   9.331  14.772   5.096
83982SOL     OW53784   2.310   3.018  14.133
83982SOL    HW153785   2.357   3.080  14.189
83982SOL    HW253786   2.284   3.069  14.056
83983SOL     OW53787  11.851   8.061  11.241
83983SOL    HW153788  11.819   7.988  11.188
83983SOL    HW253789  11.945   8.065  11.222
83984SOL     OW53790  12.128   2.800  13.720
83984SOL    HW153791  12.181   2.723  13.699
83984SOL    HW253792  12.061   2.767  13.780
83985SOL     OW53793  11.410  11.904  13.127
83985SOL    HW153794  11.328  11.856  13.137
83985SOL    HW253795  11.399  11.953  13.045
83986SOL     OW53796  14.840   6.517  10.156
83986SOL    HW153797  14.818   6.456  10.226
83986SOL    HW253798  14.813   6.472  10.076
83987SOL     OW53799   5.320   6.785   0.384
83987SOL    HW153800   5.355   6.860   0.433
83987SOL    HW253801   5.308   6.717   0.449
83988SOL     OW53802  13.395  12.650  13.102
83988SOL    HW153803  13.421  12.673  13.013
83988SOL    HW253804  13.444  12.711  13.158
83989SOL     OW53805   8.074   9.821   6.178
83989SOL    HW153806   8.092   9.770   6.257
83989SOL    HW253807   8.094   9.911   6.202
83990SOL     OW53808   1.639   7.214   0.378
83990SOL    HW153809   1.582   7.160   0.323
83990SOL    HW253810   1.613   7.304   0.358
83991SOL     OW53811   9.754   9.290   4.423
83991SOL    HW153812   9.738   9.382   4.406
83991SOL    HW253813   9.671   9.256   4.458
83992SOL     OW53814  10.555   4.496   2.962
83992SOL    HW153815  10.532   4.413   2.921
83992SOL    HW253816  10.477   4.551   2.952
83993SOL     OW53817  12.627  10.062  14.567
83993SOL    HW153818  12.675  10.071  14.485
83993SOL    HW253819  12.540  10.032  14.540
83994SOL     OW53820   3.947  11.056   4.968
83994SOL    HW153821   3.968  10.970   4.930
83994SOL    HW253822   4.002  11.060   5.047
83995SOL     OW53823   5.071  10.559   6.616
83995SOL    HW153824   5.066  10.565   6.712
83995SOL    HW253825   5.149  10.507   6.600
83996SOL     OW53826  11.500  12.206  14.434
83996SOL    HW153827  11.511  12.237  14.523
83996SOL    HW253828  11.417  12.245  14.405
83997SOL     OW53829   5.350   6.188   1.035
83997SOL    HW153830   5.433   6.206   1.079
83997SOL    HW253831   5.325   6.101   1.064
83998SOL     OW53832   4.290   7.647   6.304
83998SOL    HW153833   4.248   7.733   6.298
83998SOL    HW253834   4.342   7.652   6.385
83999SOL     OW53835  14.420   9.285   7.664
83999SOL    HW153836  14.380   9.363   7.702
83999SOL    HW253837  14.362   9.260   7.592
84000SOL     OW53838   0.912   6.568   4.221
84000SOL    HW153839   0.950   6.569   4.134
84000SOL    HW253840   0.984   6.543   4.279
84001SOL     OW53841   6.057  14.452   8.260
84001SOL    HW153842   6.021  14.389   8.198
84001SOL    HW253843   6.152  14.444   8.252
84002SOL     OW53844   3.607  12.771   5.198
84002SOL    HW153845   3.541  12.782   5.130
84002SOL    HW253846   3.558  12.774   5.280
84003SOL     OW53847  13.684   0.924   9.730
84003SOL    HW153848  13.651   0.955   9.814
84003SOL    HW253849  13.713   0.834   9.748
84004SOL     OW53850   3.764  12.790   8.870
84004SOL    HW153851   3.790  12.864   8.926
84004SOL    HW253852   3.695  12.825   8.815
84005SOL     OW53853   3.963   0.678  12.031
84005SOL    HW153854   3.895   0.714  12.089
84005SOL    HW253855   3.917   0.616  11.975
84006SOL     OW53856   8.563  11.595   5.453
84006SOL    HW153857   8.544  11.616   5.544
84006SOL    HW253858   8.588  11.503   5.454
84007SOL     OW53859   5.594   2.766  11.368
84007SOL    HW153860   5.688   2.786  11.376
84007SOL    HW253861   5.575   2.711  11.444
84008SOL     OW53862   6.455   8.087   7.533
84008SOL    HW153863   6.368   8.112   7.501
84008SOL    HW253864   6.508   8.166   7.524
84009SOL     OW53865   8.401   0.990  11.397
84009SOL    HW153866   8.340   0.924  11.365
84009SOL    HW253867   8.353   1.034  11.468
84010SOL     OW53868  14.836   7.495   5.192
84010SOL    HW153869  14.780   7.430   5.234
84010SOL    HW253870  14.826   7.574   5.246
84011SOL     OW53871  12.876   2.876  13.011
84011SOL    HW153872  12.861   2.842  13.099
84011SOL    HW253873  12.821   2.822  12.954
84012SOL     OW53874   8.448   5.198   5.646
84012SOL    HW153875   8.375   5.140   5.667
84012SOL    HW253876   8.501   5.148   5.584
84013SOL     OW53877   0.025   8.381  12.772
84013SOL    HW153878   0.072   8.362  12.853
84013SOL    HW253879   0.063   8.323  12.707
84014SOL     OW53880   7.535   2.194   2.439
84014SOL    HW153881   7.480   2.121   2.469
84014SOL    HW253882   7.474   2.267   2.427
84015SOL     OW53883   4.129   2.829   4.758
84015SOL    HW153884   4.106   2.862   4.671
84015SOL    HW253885   4.050   2.784   4.788
84016SOL     OW53886  13.486   0.798  14.469
84016SOL    HW153887  13.580   0.798  14.487
84016SOL    HW253888  13.452   0.873  14.517
84017SOL     OW53889   9.424   1.923  10.342
84017SOL    HW153890   9.405   1.831  10.360
84017SOL    HW253891   9.447   1.926  10.249
84018SOL     OW53892   5.873  13.582  11.484
84018SOL    HW153893   5.899  13.507  11.538
84018SOL    HW253894   5.822  13.544  11.413
84019SOL     OW53895   0.078   1.181   9.688
84019SOL    HW153896   0.103   1.184   9.781
84019SOL    HW253897   0.077   1.087   9.667
84020SOL     OW53898   0.058   1.338  11.103
84020SOL    HW153899  14.866   1.275  11.116
84020SOL    HW253900   0.084   1.327  11.012
84021SOL     OW53901  10.788  13.976  10.140
84021SOL    HW153902  10.863  13.936  10.184
84021SOL    HW253903  10.768  13.917  10.067
84022SOL     OW53904   9.550  13.681   1.685
84022SOL    HW153905   9.607  13.682   1.608
84022SOL    HW253906   9.544  13.588   1.709
84023SOL     OW53907  12.369   4.047   4.295
84023SOL    HW153908  12.291   4.056   4.240
84023SOL    HW253909  12.378   4.132   4.339
84024SOL     OW53910   3.841   3.181   6.778
84024SOL    HW153911   3.907   3.134   6.727
84024SOL    HW253912   3.891   3.222   6.849
84025SOL     OW53913  13.819  12.858   0.610
84025SOL    HW153914  13.751  12.797   0.580
84025SOL    HW253915  13.867  12.810   0.677
84026SOL     OW53916   2.676   9.407   4.547
84026SOL    HW153917   2.638   9.441   4.628
84026SOL    HW253918   2.641   9.319   4.539
84027SOL     OW53919  13.201   4.508   9.142
84027SOL    HW153920  13.161   4.422   9.127
84027SOL    HW253921  13.291   4.497   9.113
84028SOL     OW53922   1.496   1.932   2.679
84028SOL    HW153923   1.486   1.845   2.717
84028SOL    HW253924   1.536   1.916   2.593
84029SOL     OW53925   0.049  10.989  12.329
84029SOL    HW153926   0.014  11.074  12.352
84029SOL    HW253927   0.140  10.992  12.358
84030SOL     OW53928   7.594  11.819   3.920
84030SOL    HW153929   7.597  11.893   3.981
84030SOL    HW253930   7.501  11.809   3.899
84031SOL     OW53931   5.435   2.294  11.018
84031SOL    HW153932   5.376   2.368  11.034
84031SOL    HW253933   5.384   2.233  10.966
84032SOL     OW53934  13.851   8.731   2.674
84032SOL    HW153935  13.782   8.761   2.615
84032SOL    HW253936  13.854   8.637   2.661
84033SOL     OW53937   6.261   2.955  11.692
84033SOL    HW153938   6.279   3.047  11.672
84033SOL    HW253939   6.247   2.914  11.607
84034SOL     OW53940   8.112  11.214  13.546
84034SOL    HW153941   8.019  11.202  13.529
84034SOL    HW253942   8.150  11.127  13.535
84035SOL     OW53943   8.453   1.481   4.645
84035SOL    HW153944   8.532   1.434   4.669
84035SOL    HW253945   8.457   1.488   4.550
84036SOL     OW53946   3.513  12.894  14.115
84036SOL    HW153947   3.447  12.950  14.074
84036SOL    HW253948   3.596  12.930  14.085
84037SOL     OW53949   1.172  13.805   3.761
84037SOL    HW153950   1.209  13.884   3.722
84037SOL    HW253951   1.187  13.736   3.696
84038SOL     OW53952   7.279  11.849  10.272
84038SOL    HW153953   7.352  11.865  10.214
84038SOL    HW253954   7.223  11.788  10.224
84039SOL     OW53955   7.882   2.690   4.872
84039SOL    HW153956   7.919   2.695   4.783
84039SOL    HW253957   7.959   2.690   4.929
84040SOL     OW53958   9.926   5.192   5.421
84040SOL    HW153959   9.988   5.170   5.352
84040SOL    HW253960   9.880   5.110   5.439
84041SOL     OW53961   1.416   1.096  11.298
84041SOL    HW153962   1.412   1.034  11.372
84041SOL    HW253963   1.508   1.120  11.292
84042SOL     OW53964   0.540  10.136   6.054
84042SOL    HW153965   0.536  10.164   5.962
84042SOL    HW253966   0.487  10.200   6.100
84043SOL     OW53967  11.965  13.944   2.892
84043SOL    HW153968  11.978  13.898   2.809
84043SOL    HW253969  11.921  14.026   2.868
84044SOL     OW53970   4.390   3.555   2.243
84044SOL    HW153971   4.341   3.524   2.319
84044SOL    HW253972   4.423   3.641   2.269
84045SOL     OW53973  10.231   7.890  12.631
84045SOL    HW153974  10.243   7.804  12.591
84045SOL    HW253975  10.147   7.921  12.596
84046SOL     OW53976  14.386   2.827   1.725
84046SOL    HW153977  14.421   2.753   1.774
84046SOL    HW253978  14.394   2.801   1.633
84047SOL     OW53979   8.002  14.875   5.825
84047SOL    HW153980   7.949  14.819   5.768
84047SOL    HW253981   8.044   0.058   5.765
84048SOL     OW53982  13.060   3.828   1.304
84048SOL    HW153983  13.013   3.819   1.386
84048SOL    HW253984  12.992   3.819   1.236
84049SOL     OW53985  11.365   7.934   8.973
84049SOL    HW153986  11.410   8.016   8.992
84049SOL    HW253987  11.397   7.873   9.040
84050SOL     OW53988   1.736   8.494   0.290
84050SOL    HW153989   1.761   8.567   0.346
84050SOL    HW253990   1.804   8.428   0.304
84051SOL     OW53991   2.756   1.841   7.274
84051SOL    HW153992   2.697   1.842   7.199
84051SOL    HW253993   2.746   1.928   7.314
84052SOL     OW53994   5.237   6.884   6.866
84052SOL    HW153995   5.212   6.972   6.837
84052SOL    HW253996   5.183   6.825   6.814
84053SOL     OW53997   2.169   4.391   1.787
84053SOL    HW153998   2.145   4.484   1.784
84053SOL    HW253999   2.092   4.346   1.753
84054SOL     OW54000   8.036  12.984  14.073
84054SOL    HW154001   8.053  12.894  14.045
84054SOL    HW254002   7.946  13.001  14.047
84055SOL     OW54003   3.567  12.305   8.411
84055SOL    HW154004   3.645  12.312   8.467
84055SOL    HW254005   3.592  12.346   8.329
84056SOL     OW54006   5.011   9.376   2.190
84056SOL    HW154007   5.007   9.283   2.210
84056SOL    HW254008   4.928   9.412   2.221
84057SOL     OW54009   9.378  10.928   9.557
84057SOL    HW154010   9.364  10.891   9.644
84057SOL    HW254011   9.464  10.970   9.561
84058SOL     OW54012   3.692  13.658   7.607
84058SOL    HW154013   3.653  13.719   7.545
84058SOL    HW254014   3.772  13.702   7.636
84059SOL     OW54015   2.805   7.078   4.287
84059SOL    HW154016   2.759   6.994   4.296
84059SOL    HW254017   2.737   7.144   4.295
84060SOL     OW54018  12.618   4.459  13.656
84060SOL    HW154019  12.555   4.459  13.584
84060SOL    HW254020  12.634   4.552  13.674
84061SOL     OW54021  11.831   8.803   6.749
84061SOL    HW154022  11.795   8.819   6.836
84061SOL    HW254023  11.801   8.877   6.697
84062SOL     OW54024   1.191  10.190   4.380
84062SOL    HW154025   1.278  10.169   4.415
84062SOL    HW254026   1.132  10.184   4.455
84063SOL     OW54027   0.712   6.899   7.135
84063SOL    HW154028   0.679   6.812   7.115
84063SOL    HW254029   0.792   6.908   7.083
84064SOL     OW54030   8.487   6.678  14.502
84064SOL    HW154031   8.578   6.669  14.528
84064SOL    HW254032   8.438   6.681  14.584
84065SOL     OW54033  13.438   6.860  10.518
84065SOL    HW154034  13.380   6.879  10.592
84065SOL    HW254035  13.520   6.832  10.558
84066SOL     OW54036   8.984   9.782   5.185
84066SOL    HW154037   9.079   9.777   5.171
84066SOL    HW254038   8.956   9.690   5.183
84067SOL     OW54039  11.891   4.926   5.905
84067SOL    HW154040  11.983   4.940   5.931
84067SOL    HW254041  11.896   4.909   5.811
84068SOL     OW54042  10.122  12.800   5.304
84068SOL    HW154043  10.175  12.726   5.274
84068SOL    HW254044  10.185  12.869   5.321
84069SOL     OW54045  14.489  10.388   9.180
84069SOL    HW154046  14.556  10.438   9.133
84069SOL    HW254047  14.482  10.431   9.265
84070SOL     OW54048   3.668   1.693   3.656
84070SOL    HW154049   3.593   1.712   3.713
84070SOL    HW254050   3.739   1.673   3.716
84071SOL     OW54051   3.583   1.618   8.325
84071SOL    HW154052   3.520   1.614   8.397
84071SOL    HW254053   3.553   1.692   8.271
84072SOL     OW54054   2.601   2.870   1.617
84072SOL    HW154055   2.506   2.858   1.622
84072SOL    HW254056   2.636   2.799   1.671
84073SOL     OW54057  10.111  10.533  11.237
84073SOL    HW154058  10.182  10.582  11.279
84073SOL    HW254059  10.151  10.497  11.158
84074SOL     OW54060  10.410   3.403   3.572
84074SOL    HW154061  10.501   3.384   3.593
84074SOL    HW254062  10.375   3.447   3.650
84075SOL     OW54063  13.147  11.711  11.964
84075SOL    HW154064  13.118  11.752  12.045
84075SOL    HW254065  13.112  11.767  11.894
84076SOL     OW54066   7.388   3.916  14.118
84076SOL    HW154067   7.425   4.000  14.145
84076SOL    HW254068   7.319   3.939  14.056
84077SOL     OW54069   4.398   1.428   1.406
84077SOL    HW154070   4.319   1.393   1.448
84077SOL    HW254071   4.371   1.515   1.375
84078SOL     OW54072  11.327  14.872   1.582
84078SOL    HW154073  11.290  14.802   1.636
84078SOL    HW254074  11.250   0.040   1.550
84079SOL     OW54075   4.917   0.355   4.529
84079SOL    HW154076   4.976   0.287   4.499
84079SOL    HW254077   4.935   0.363   4.622
84080SOL     OW54078  12.702   8.728  14.183
84080SOL    HW154079  12.690   8.678  14.264
84080SOL    HW254080  12.768   8.679  14.134
84081SOL     OW54081  13.002   5.799   7.428
84081SOL    HW154082  12.962   5.824   7.511
84081SOL    HW254083  12.929   5.765   7.376
84082SOL     OW54084   6.777   2.192   6.849
84082SOL    HW154085   6.742   2.171   6.763
84082SOL    HW254086   6.702   2.184   6.908
84083SOL     OW54087   0.717   3.907  14.032
84083SOL    HW154088   0.724   3.814  14.053
84083SOL    HW254089   0.752   3.914  13.943
84084SOL     OW54090   3.413  11.418  13.109
84084SOL    HW154091   3.333  11.368  13.095
84084SOL    HW254092   3.418  11.428  13.204
84085SOL     OW54093   6.813   0.959  14.421
84085SOL    HW154094   6.852   1.045  14.405
84085SOL    HW254095   6.857   0.928  14.500
84086SOL     OW54096   8.453   7.971  12.158
84086SOL    HW154097   8.472   8.030  12.231
84086SOL    HW254098   8.494   7.889  12.182
84087SOL     OW54099   7.019   0.368  13.334
84087SOL    HW154100   7.015   0.457  13.300
84087SOL    HW254101   6.964   0.369  13.413
84088SOL     OW54102   5.803   0.873  11.893
84088SOL    HW154103   5.872   0.932  11.862
84088SOL    HW254104   5.763   0.920  11.967
84089SOL     OW54105   1.021  10.420   0.242
84089SOL    HW154106   0.969  10.410   0.162
84089SOL    HW254107   1.111  10.403   0.214
84090SOL     OW54108  10.160   4.618   6.739
84090SOL    HW154109  10.103   4.558   6.691
84090SOL    HW254110  10.226   4.561   6.780
84091SOL     OW54111   2.117   4.291   6.214
84091SOL    HW154112   2.057   4.366   6.219
84091SOL    HW254113   2.188   4.321   6.157
84092SOL     OW54114   1.356   9.923   4.393
84092SOL    HW154115   1.424   9.920   4.326
84092SOL    HW254116   1.369  10.008   4.436
84093SOL     OW54117   7.045   0.715   0.561
84093SOL    HW154118   7.108   0.687   0.495
84093SOL    HW254119   7.100   0.747   0.633
84094SOL     OW54120   6.618   4.893  12.589
84094SOL    HW154121   6.573   4.976  12.577
84094SOL    HW254122   6.692   4.896  12.528
84095SOL     OW54123   6.415   3.737  10.816
84095SOL    HW154124   6.489   3.725  10.756
84095SOL    HW254125   6.405   3.832  10.823
84096SOL     OW54126   9.627  14.788  14.083
84096SOL    HW154127   9.720  14.770  14.067
84096SOL    HW254128   9.593  14.707  14.123
84097SOL     OW54129   6.063   8.194  12.542
84097SOL    HW154130   6.042   8.269  12.598
84097SOL    HW254131   5.999   8.127  12.566
84098SOL     OW54132   3.483   8.741   9.073
84098SOL    HW154133   3.430   8.709   9.001
84098SOL    HW254134   3.564   8.772   9.032
84099SOL     OW54135   3.336   0.844  12.830
84099SOL    HW154136   3.242   0.835  12.847
84099SOL    HW254137   3.358   0.931  12.864
84100SOL     OW54138  13.833   0.019   2.466
84100SOL    HW154139  13.786   0.101   2.477
84100SOL    HW254140  13.883   0.031   2.385
84101SOL     OW54141  13.280  14.722  11.542
84101SOL    HW154142  13.284  14.631  11.512
84101SOL    HW254143  13.342  14.769  11.485
84102SOL     OW54144   4.549   2.724   8.502
84102SOL    HW154145   4.486   2.765   8.444
84102SOL    HW254146   4.586   2.652   8.451
84103SOL     OW54147   7.996  11.203   4.077
84103SOL    HW154148   7.990  11.107   4.081
84103SOL    HW254149   7.958  11.226   3.992
84104SOL     OW54150   9.303  10.452   2.345
84104SOL    HW154151   9.370  10.383   2.345
84104SOL    HW254152   9.348  10.530   2.376
84105SOL     OW54153   4.652   5.506   4.543
84105SOL    HW154154   4.672   5.475   4.455
84105SOL    HW254155   4.620   5.595   4.531
84106SOL     OW54156   1.548  12.328   1.580
84106SOL    HW154157   1.557  12.264   1.651
84106SOL    HW254158   1.560  12.413   1.623
84107SOL     OW54159   2.474  10.843  13.017
84107SOL    HW154160   2.511  10.927  13.046
84107SOL    HW254161   2.404  10.867  12.957
84108SOL     OW54162  11.715   6.701   6.141
84108SOL    HW154163  11.786   6.765   6.135
84108SOL    HW254164  11.699   6.674   6.050
84109SOL     OW54165   9.137  14.685   9.631
84109SOL    HW154166   9.051  14.667   9.669
84109SOL    HW254167   9.119  14.716   9.542
84110SOL     OW54168  11.623   4.632  11.543
84110SOL    HW154169  11.670   4.576  11.481
84110SOL    HW254170  11.688   4.697  11.571
84111SOL     OW54171  14.396  12.251   7.213
84111SOL    HW154172  14.345  12.308   7.271
84111SOL    HW254173  14.468  12.306   7.182
84112SOL     OW54174   3.893   7.585  10.608
84112SOL    HW154175   3.934   7.502  10.634
84112SOL    HW254176   3.848   7.564  10.526
84113SOL     OW54177   2.660   4.753   7.599
84113SOL    HW154178   2.586   4.787   7.549
84113SOL    HW254179   2.657   4.658   7.584
84114SOL     OW54180  14.168   7.816  14.852
84114SOL    HW154181  14.094   7.756  14.847
84114SOL    HW254182  14.129   7.902  14.866
84115SOL     OW54183   4.715   2.417   1.829
84115SOL    HW154184   4.792   2.474   1.833
84115SOL    HW254185   4.739   2.341   1.881
84116SOL     OW54186   0.087   9.877   0.351
84116SOL    HW154187   0.091   9.835   0.437
84116SOL    HW254188  14.873   9.884   0.331
84117SOL     OW54189   4.094  11.426  13.328
84117SOL    HW154190   4.116  11.358  13.393
84117SOL    HW254191   4.173  11.435  13.275
84118SOL     OW54192   9.645   6.845   7.382
84118SOL    HW154193   9.589   6.818   7.309
84118SOL    HW254194   9.687   6.764   7.411
84119SOL     OW54195   5.456   0.287  13.668
84119SOL    HW154196   5.474   0.264  13.759
84119SOL    HW254197   5.541   0.313  13.632
84120SOL     OW54198   0.664   5.165   0.503
84120SOL    HW154199   0.633   5.251   0.475
84120SOL    HW254200   0.671   5.171   0.598
84121SOL     OW54201   6.068  14.540   9.624
84121SOL    HW154202   6.094  14.523   9.714
84121SOL    HW254203   6.149  14.561   9.579
84122SOL     OW54204   0.894   9.490   7.825
84122SOL    HW154205   0.799   9.496   7.838
84122SOL    HW254206   0.926   9.445   7.903
84123SOL     OW54207  10.642   9.504   9.691
84123SOL    HW154208  10.618   9.427   9.742
84123SOL    HW254209  10.566   9.520   9.635
84124SOL     OW54210   4.360   1.752  11.686
84124SOL    HW154211   4.301   1.827  11.678
84124SOL    HW254212   4.311   1.688  11.737
84125SOL     OW54213   2.464   1.552  13.839
84125SOL    HW154214   2.506   1.638  13.838
84125SOL    HW254215   2.424   1.544  13.752
84126SOL     OW54216  11.244   9.910  13.927
84126SOL    HW154217  11.258   9.995  13.885
84126SOL    HW254218  11.229   9.931  14.019
84127SOL     OW54219   8.835   1.132   0.745
84127SOL    HW154220   8.912   1.136   0.689
84127SOL    HW254221   8.779   1.204   0.715
84128SOL     OW54222  12.928   4.639   0.031
84128SOL    HW154223  12.834   4.659   0.023
84128SOL    HW254224  12.936   4.594   0.115
84129SOL     OW54225   0.049   2.406   4.667
84129SOL    HW154226   0.137   2.426   4.697
84129SOL    HW254227   0.030   2.320   4.704
84130SOL     OW54228   6.569   0.350   0.033
84130SOL    HW154229   6.523   0.268   0.047
84130SOL    HW254230   6.516   0.397  14.848
84131SOL     OW54231   8.792  11.242   6.368
84131SOL    HW154232   8.787  11.161   6.318
84131SOL    HW254233   8.724  11.233   6.435
84132SOL     OW54234   8.167  13.073  11.913
84132SOL    HW154235   8.100  13.060  11.980
84132SOL    HW254236   8.232  13.005  11.931
84133SOL     OW54237   1.219  14.282   4.934
84133SOL    HW154238   1.292  14.230   4.967
84133SOL    HW254239   1.145  14.221   4.931
84134SOL     OW54240   4.751   5.691  11.136
84134SOL    HW154241   4.733   5.632  11.209
84134SOL    HW254242   4.798   5.764  11.175
84135SOL     OW54243   4.676   9.400   2.531
84135SOL    HW154244   4.602   9.444   2.573
84135SOL    HW254245   4.640   9.316   2.502
84136SOL     OW54246   6.700   3.800   5.385
84136SOL    HW154247   6.682   3.770   5.474
84136SOL    HW254248   6.625   3.770   5.333
84137SOL     OW54249  10.609   2.977   4.249
84137SOL    HW154250  10.659   3.024   4.315
84137SOL    HW254251  10.584   2.895   4.292
84138SOL     OW54252   9.544  13.046   6.146
84138SOL    HW154253   9.510  12.958   6.159
84138SOL    HW254254   9.469  13.104   6.156
84139SOL     OW54255  12.572  12.098   0.465
84139SOL    HW154256  12.536  12.156   0.398
84139SOL    HW254257  12.655  12.140   0.490
84140SOL     OW54258   5.609   7.874   9.981
84140SOL    HW154259   5.578   7.878  10.071
84140SOL    HW254260   5.641   7.962   9.962
84141SOL     OW54261  12.962   6.083   4.354
84141SOL    HW154262  13.017   6.007   4.373
84141SOL    HW254263  12.907   6.056   4.281
84142SOL     OW54264   6.596  12.042  12.605
84142SOL    HW154265   6.647  12.123  12.596
84142SOL    HW254266   6.506  12.069  12.590
84143SOL     OW54267   0.680  12.935   5.838
84143SOL    HW154268   0.647  12.967   5.922
84143SOL    HW254269   0.605  12.937   5.780
84144SOL     OW54270   6.364  14.409   8.566
84144SOL    HW154271   6.442  14.461   8.584
84144SOL    HW254272   6.397  14.321   8.547
84145SOL     OW54273   9.991   9.574   2.589
84145SOL    HW154274   9.994   9.581   2.494
84145SOL    HW254275   9.912   9.621   2.614
84146SOL     OW54276  12.153  10.447   5.839
84146SOL    HW154277  12.161  10.382   5.769
84146SOL    HW254278  12.219  10.513   5.817
84147SOL     OW54279  10.017  10.179  12.144
84147SOL    HW154280   9.926  10.188  12.117
84147SOL    HW254281  10.013  10.129  12.225
84148SOL     OW54282  10.684  13.348  13.037
84148SOL    HW154283  10.750  13.379  12.975
84148SOL    HW254284  10.734  13.324  13.115
84149SOL     OW54285  11.042   3.078  11.836
84149SOL    HW154286  11.068   2.996  11.794
84149SOL    HW254287  10.946   3.072  11.841
84150SOL     OW54288   6.035   2.216   8.876
84150SOL    HW154289   6.116   2.187   8.835
84150SOL    HW254290   5.978   2.139   8.875
84151SOL     OW54291  12.515   8.124  13.883
84151SOL    HW154292  12.546   8.067  13.952
84151SOL    HW254293  12.420   8.113  13.884
84152SOL     OW54294  14.440  14.339   4.928
84152SOL    HW154295  14.370  14.274   4.929
84152SOL    HW254296  14.410  14.407   4.988
84153SOL     OW54297  11.207   2.887  14.507
84153SOL    HW154298  11.165   2.973  14.500
84153SOL    HW254299  11.255   2.891  14.590
84154SOL     OW54300  10.059  12.738  14.464
84154SOL    HW154301  10.129  12.674  14.450
84154SOL    HW254302  10.085  12.814  14.412
84155SOL     OW54303   5.017   6.316   4.293
84155SOL    HW154304   5.098   6.322   4.242
84155SOL    HW254305   4.947   6.324   4.228
84156SOL     OW54306   6.997   5.291   9.977
84156SOL    HW154307   6.973   5.366   9.923
84156SOL    HW254308   6.940   5.297  10.054
84157SOL     OW54309   4.552   4.070  14.829
84157SOL    HW154310   4.642   4.039  14.820
84157SOL    HW254311   4.556   4.139   0.016
84158SOL     OW54312   4.573  13.838   1.751
84158SOL    HW154313   4.514  13.777   1.706
84158SOL    HW254314   4.528  13.922   1.749
84159SOL     OW54315   9.995   6.196  14.371
84159SOL    HW154316   9.982   6.172  14.463
84159SOL    HW254317  10.005   6.291  14.373
84160SOL     OW54318  13.880   6.509  11.900
84160SOL    HW154319  13.832   6.453  11.961
84160SOL    HW254320  13.812   6.549  11.846
84161SOL     OW54321   5.644   8.546   9.466
84161SOL    HW154322   5.674   8.637   9.464
84161SOL    HW254323   5.635   8.525   9.559
84162SOL     OW54324  12.423   0.903  11.858
84162SOL    HW154325  12.395   0.990  11.884
84162SOL    HW254326  12.474   0.871  11.933
84163SOL     OW54327   2.092   4.550   2.904
84163SOL    HW154328   2.051   4.606   2.970
84163SOL    HW254329   2.115   4.609   2.832
84164SOL     OW54330  13.766   9.829   5.587
84164SOL    HW154331  13.722   9.909   5.558
84164SOL    HW254332  13.743   9.763   5.522
84165SOL     OW54333  14.124   0.895   2.123
84165SOL    HW154334  14.135   0.989   2.134
84165SOL    HW254335  14.139   0.859   2.211
84166SOL     OW54336   9.729   2.436   9.214
84166SOL    HW154337   9.762   2.462   9.128
84166SOL    HW254338   9.807   2.405   9.261
84167SOL     OW54339  11.433   2.647   5.424
84167SOL    HW154340  11.523   2.614   5.412
84167SOL    HW254341  11.380   2.568   5.437
84168SOL     OW54342   8.662   4.268   5.011
84168SOL    HW154343   8.714   4.228   5.081
84168SOL    HW254344   8.571   4.257   5.039
84169SOL     OW54345  10.986  14.368   2.753
84169SOL    HW154346  10.988  14.425   2.830
84169SOL    HW254347  11.062  14.311   2.763
84170SOL     OW54348  14.349   8.683   0.213
84170SOL    HW154349  14.263   8.722   0.227
84170SOL    HW254350  14.396   8.748   0.160
84171SOL     OW54351  14.406   2.991  14.820
84171SOL    HW154352  14.498   2.982  14.797
84171SOL    HW254353  14.366   3.034  14.744
84172SOL     OW54354   4.263  10.909   0.976
84172SOL    HW154355   4.288  11.000   0.959
84172SOL    HW254356   4.193  10.914   1.041
84173SOL     OW54357   9.763   0.909   2.832
84173SOL    HW154358   9.817   0.902   2.911
84173SOL    HW254359   9.810   0.860   2.766
84174SOL     OW54360  12.476   9.758   5.084
84174SOL    HW154361  12.475   9.804   5.000
84174SOL    HW254362  12.494   9.667   5.062
84175SOL     OW54363   9.403  10.909   8.819
84175SOL    HW154364   9.485  10.861   8.811
84175SOL    HW254365   9.409  10.980   8.755
84176SOL     OW54366   5.566   0.956  11.744
84176SOL    HW154367   5.524   0.880  11.703
84176SOL    HW254368   5.658   0.932  11.750
84177SOL     OW54369  10.872   6.471  12.465
84177SOL    HW154370  10.858   6.543  12.404
84177SOL    HW254371  10.783   6.445  12.491
84178SOL     OW54372   5.319   8.276   6.239
84178SOL    HW154373   5.352   8.198   6.283
84178SOL    HW254374   5.393   8.336   6.237
84179SOL     OW54375   0.242   1.933  11.748
84179SOL    HW154376   0.325   1.914  11.792
84179SOL    HW254377   0.215   2.018  11.785
84180SOL     OW54378   7.463   7.882   9.778
84180SOL    HW154379   7.558   7.885   9.770
84180SOL    HW254380   7.435   7.824   9.707
84181SOL     OW54381   2.498   5.817   5.054
84181SOL    HW154382   2.432   5.862   5.000
84181SOL    HW254383   2.447   5.763   5.114
84182SOL     OW54384   5.324   1.333   4.465
84182SOL    HW154385   5.395   1.315   4.526
84182SOL    HW254386   5.353   1.409   4.415
84183SOL     OW54387  12.163   5.824   1.348
84183SOL    HW154388  12.092   5.846   1.408
84183SOL    HW254389  12.243   5.847   1.395
84184SOL     OW54390  14.141   9.215   5.280
84184SOL    HW154391  14.211   9.224   5.345
84184SOL    HW254392  14.076   9.158   5.321
84185SOL     OW54393   1.891   4.404   5.344
84185SOL    HW154394   1.848   4.441   5.267
84185SOL    HW254395   1.945   4.476   5.377
84186SOL     OW54396  13.189  14.663   3.782
84186SOL    HW154397  13.158  14.676   3.871
84186SOL    HW254398  13.233  14.578   3.784
84187SOL     OW54399  12.655   9.350   1.849
84187SOL    HW154400  12.652   9.436   1.892
84187SOL    HW254401  12.633   9.369   1.758
84188SOL     OW54402   7.132   1.392   3.435
84188SOL    HW154403   7.078   1.389   3.514
84188SOL    HW254404   7.147   1.301   3.412
84189SOL     OW54405   2.152   5.505   3.582
84189SOL    HW154406   2.117   5.481   3.668
84189SOL    HW254407   2.129   5.597   3.571
84190SOL     OW54408  10.188   6.112   3.487
84190SOL    HW154409  10.255   6.141   3.426
84190SOL    HW254410  10.132   6.054   3.436
84191SOL     OW54411   0.606  13.359  10.327
84191SOL    HW154412   0.584  13.269  10.348
84191SOL    HW254413   0.526  13.396  10.290
84192SOL     OW54414   4.830   7.734   6.212
84192SOL    HW154415   4.782   7.799   6.160
84192SOL    HW254416   4.889   7.786   6.267
84193SOL     OW54417   2.345   9.883  14.548
84193SOL    HW154418   2.410   9.885  14.478
84193SOL    HW254419   2.270   9.838  14.510
84194SOL     OW54420   5.415   9.586   2.060
84194SOL    HW154421   5.424   9.679   2.081
84194SOL    HW254422   5.405   9.583   1.965
84195SOL     OW54423   9.430   0.926   3.495
84195SOL    HW154424   9.369   0.883   3.554
84195SOL    HW254425   9.505   0.951   3.550
84196SOL     OW54426   2.374   8.298   5.214
84196SOL    HW154427   2.314   8.344   5.273
84196SOL    HW254428   2.349   8.206   5.222
84197SOL     OW54429  14.015  12.909  13.521
84197SOL    HW154430  14.032  12.933  13.612
84197SOL    HW254431  14.098  12.925  13.476
84198SOL     OW54432  10.013  14.618   0.431
84198SOL    HW154433  10.011  14.711   0.452
84198SOL    HW254434  10.081  14.582   0.488
84199SOL     OW54435   9.167   2.838   0.827
84199SOL    HW154436   9.252   2.796   0.838
84199SOL    HW254437   9.124   2.789   0.758
84200SOL     OW54438   3.499   3.381   9.617
84200SOL    HW154439   3.485   3.412   9.706
84200SOL    HW254440   3.430   3.423   9.565
84201SOL     OW54441   6.168   5.345   1.131
84201SOL    HW154442   6.115   5.269   1.155
84201SOL    HW254443   6.133   5.417   1.184
84202SOL     OW54444  14.216   8.618   3.628
84202SOL    HW154445  14.286   8.553   3.633
84202SOL    HW254446  14.226   8.669   3.709
84203SOL     OW54447   9.769   0.681   7.696
84203SOL    HW154448   9.783   0.668   7.790
84203SOL    HW254449   9.781   0.595   7.657
84204SOL     OW54450  11.238   2.123   7.404
84204SOL    HW154451  11.272   2.186   7.468
84204SOL    HW254452  11.145   2.113   7.428
84205SOL     OW54453  10.076   3.654   5.356
84205SOL    HW154454  10.165   3.620   5.352
84205SOL    HW254455  10.075   3.708   5.435
84206SOL     OW54456   0.600   9.522   0.959
84206SOL    HW154457   0.601   9.603   1.010
84206SOL    HW254458   0.555   9.544   0.878
84207SOL     OW54459   1.022   1.858  12.789
84207SOL    HW154460   0.973   1.831  12.711
84207SOL    HW254461   1.003   1.789  12.853
84208SOL     OW54462   2.070   5.004   9.322
84208SOL    HW154463   2.133   5.066   9.286
84208SOL    HW254464   2.082   4.924   9.271
84209SOL     OW54465  12.307   2.634   7.472
84209SOL    HW154466  12.306   2.597   7.383
84209SOL    HW254467  12.252   2.575   7.523
84210SOL     OW54468   3.864  10.501  14.200
84210SOL    HW154469   3.911  10.564  14.254
84210SOL    HW254470   3.821  10.555  14.133
84211SOL     OW54471   5.404   3.362  13.753
84211SOL    HW154472   5.445   3.355  13.667
84211SOL    HW254473   5.328   3.420  13.739
84212SOL     OW54474   1.631  10.736  13.797
84212SOL    HW154475   1.619  10.648  13.833
84212SOL    HW254476   1.717  10.763  13.829
84213SOL     OW54477   9.792  13.745   5.457
84213SOL    HW154478   9.861  13.700   5.505
84213SOL    HW254479   9.820  13.837   5.455
84214SOL     OW54480  14.414   0.812   8.338
84214SOL    HW154481  14.488   0.866   8.311
84214SOL    HW254482  14.362   0.868   8.395
84215SOL     OW54483   1.120   9.419   2.058
84215SOL    HW154484   1.177   9.357   2.014
84215SOL    HW254485   1.148   9.418   2.149
84216SOL     OW54486   2.092  11.534   7.279
84216SOL    HW154487   2.027  11.550   7.348
84216SOL    HW254488   2.040  11.521   7.200
84217SOL     OW54489  14.131   4.900   3.127
84217SOL    HW154490  14.087   4.926   3.046
84217SOL    HW254491  14.223   4.924   3.112
84218SOL     OW54492   6.740   1.144  13.707
84218SOL    HW154493   6.760   1.137  13.801
84218SOL    HW254494   6.745   1.238  13.689
84219SOL     OW54495   0.237   5.455   7.069
84219SOL    HW154496   0.166   5.434   7.129
84219SOL    HW254497   0.233   5.551   7.060
84220SOL     OW54498   1.394   2.213   7.884
84220SOL    HW154499   1.357   2.143   7.938
84220SOL    HW254500   1.319   2.252   7.840
84221SOL     OW54501  12.409  10.552   1.141
84221SOL    HW154502  12.362  10.552   1.224
84221SOL    HW254503  12.473  10.482   1.149
84222SOL     OW54504  10.423  13.883   2.018
84222SOL    HW154505  10.367  13.811   2.047
84222SOL    HW254506  10.456  13.856   1.933
84223SOL     OW54507   1.645  13.391  12.009
84223SOL    HW154508   1.687  13.429  12.086
84223SOL    HW254509   1.588  13.323  12.045
84224SOL     OW54510   5.677   4.744   8.066
84224SOL    HW154511   5.676   4.698   8.149
84224SOL    HW254512   5.708   4.832   8.087
84225SOL     OW54513  12.323   0.555   7.696
84225SOL    HW154514  12.390   0.615   7.730
84225SOL    HW254515  12.297   0.503   7.771
84226SOL     OW54516   0.274   6.995  14.434
84226SOL    HW154517   0.252   6.953  14.517
84226SOL    HW254518   0.208   6.963  14.372
84227SOL     OW54519   4.949  11.597   8.278
84227SOL    HW154520   5.011  11.645   8.223
84227SOL    HW254521   4.926  11.520   8.226
84228SOL     OW54522   3.411   2.743   5.456
84228SOL    HW154523   3.478   2.755   5.388
84228SOL    HW254524   3.376   2.656   5.438
84229SOL     OW54525   7.265  12.337  14.732
84229SOL    HW154526   7.221  12.391  14.798
84229SOL    HW254527   7.352  12.377  14.722
84230SOL     OW54528   0.401   3.391  13.150
84230SOL    HW154529   0.323   3.361  13.103
84230SOL    HW254530   0.433   3.466  13.099
84231SOL     OW54531   4.027   1.171  13.182
84231SOL    HW154532   4.033   1.176  13.087
84231SOL    HW254533   3.959   1.106  13.199
84232SOL     OW54534  10.470   9.304   2.205
84232SOL    HW154535  10.524   9.367   2.253
84232SOL    HW254536  10.530   9.266   2.141
84233SOL     OW54537  11.323  11.655   0.731
84233SOL    HW154538  11.404  11.630   0.776
84233SOL    HW254539  11.348  11.659   0.639
84234SOL     OW54540   6.164   2.450   7.302
84234SOL    HW154541   6.144   2.533   7.345
84234SOL    HW254542   6.203   2.475   7.218
84235SOL     OW54543   3.536   7.058  11.779
84235SOL    HW154544   3.510   7.147  11.755
84235SOL    HW254545   3.618   7.069  11.827
84236SOL     OW54546   7.420   5.767   0.769
84236SOL    HW154547   7.496   5.819   0.743
84236SOL    HW254548   7.454   5.703   0.832
84237SOL     OW54549   8.921   1.732  12.154
84237SOL    HW154550   8.886   1.647  12.128
84237SOL    HW254551   8.943   1.775  12.072
84238SOL     OW54552  11.974  13.226   9.483
84238SOL    HW154553  11.959  13.161   9.415
84238SOL    HW254554  12.055  13.270   9.458
84239SOL     OW54555   6.010   4.367   0.458
84239SOL    HW154556   5.974   4.437   0.513
84239SOL    HW254557   6.088   4.337   0.506
84240SOL     OW54558  10.839   3.742  11.672
84240SOL    HW154559  10.854   3.660  11.718
84240SOL    HW254560  10.857   3.810  11.737
84241SOL     OW54561  11.212  10.102   0.148
84241SOL    HW154562  11.256  10.175   0.192
84241SOL    HW254563  11.122  10.106   0.178
84242SOL     OW54564   2.870   2.285  12.023
84242SOL    HW154565   2.865   2.329  11.938
84242SOL    HW254566   2.939   2.220  12.012
84243SOL     OW54567   9.248  12.088  10.141
84243SOL    HW154568   9.337  12.091  10.175
84243SOL    HW254569   9.240  12.170  10.091
84244SOL     OW54570   2.502   4.512  13.256
84244SOL    HW154571   2.421   4.479  13.294
84244SOL    HW254572   2.475   4.578  13.193
84245SOL     OW54573  12.003   3.365   7.041
84245SOL    HW154574  11.978   3.313   7.117
84245SOL    HW254575  12.099   3.360   7.038
84246SOL     OW54576   3.833  13.957  14.524
84246SOL    HW154577   3.868  14.046  14.523
84246SOL    HW254578   3.738  13.969  14.526
84247SOL     OW54579   2.948  10.871   3.796
84247SOL    HW154580   2.979  10.913   3.876
84247SOL    HW254581   2.930  10.781   3.822
84248SOL     OW54582   5.438  11.238   0.338
84248SOL    HW154583   5.355  11.192   0.327
84248SOL    HW254584   5.414  11.326   0.366
84249SOL     OW54585  10.162  11.458   8.931
84249SOL    HW154586  10.195  11.543   8.958
84249SOL    HW254587  10.224  11.395   8.969
84250SOL     OW54588  10.944  12.795  10.207
84250SOL    HW154589  11.009  12.807  10.138
84250SOL    HW254590  10.862  12.822  10.167
84251SOL     OW54591   2.300   6.094   9.220
84251SOL    HW154592   2.261   6.149   9.152
84251SOL    HW254593   2.242   6.018   9.226
84252SOL     OW54594  12.235   8.243   5.136
84252SOL    HW154595  12.148   8.221   5.170
84252SOL    HW254596  12.244   8.337   5.152
84253SOL     OW54597  12.221  13.579   6.488
84253SOL    HW154598  12.253  13.524   6.416
84253SOL    HW254599  12.126  13.580   6.476
84254SOL     OW54600   2.468   6.670   2.095
84254SOL    HW154601   2.385   6.715   2.109
84254SOL    HW254602   2.533   6.726   2.135
84255SOL     OW54603  11.717   5.238   7.069
84255SOL    HW154604  11.654   5.302   7.035
84255SOL    HW254605  11.687   5.154   7.033
84256SOL     OW54606  11.239  14.247   9.429
84256SOL    HW154607  11.222  14.154   9.440
84256SOL    HW254608  11.252  14.280   9.518
84257SOL     OW54609   5.796  10.926  13.609
84257SOL    HW154610   5.848  10.900  13.534
84257SOL    HW254611   5.830  10.873  13.682
84258SOL     OW54612   2.291   4.680   3.532
84258SOL    HW154613   2.282   4.585   3.529
84258SOL    HW254614   2.373   4.698   3.486
84259SOL     OW54615   7.937   7.301   8.845
84259SOL    HW154616   7.929   7.260   8.931
84259SOL    HW254617   7.847   7.318   8.818
84260SOL     OW54618   0.455   9.553   4.850
84260SOL    HW154619   0.505   9.501   4.787
84260SOL    HW254620   0.374   9.575   4.804
84261SOL     OW54621   0.442  10.927  13.630
84261SOL    HW154622   0.419  10.844  13.671
84261SOL    HW254623   0.380  10.990  13.667
84262SOL     OW54624   6.951  11.034  11.581
84262SOL    HW154625   6.909  10.957  11.543
84262SOL    HW254626   6.915  11.039  11.670
84263SOL     OW54627   3.197   4.996  11.557
84263SOL    HW154628   3.244   4.929  11.507
84263SOL    HW254629   3.106   4.987  11.529
84264SOL     OW54630  11.810   6.851   7.545
84264SOL    HW154631  11.791   6.816   7.633
84264SOL    HW254632  11.814   6.773   7.489
84265SOL     OW54633  10.774  13.958   6.407
84265SOL    HW154634  10.757  13.880   6.459
84265SOL    HW254635  10.695  14.012   6.417
84266SOL     OW54636  10.341  10.402  11.968
84266SOL    HW154637  10.277  10.449  11.915
84266SOL    HW254638  10.300  10.318  11.989
84267SOL     OW54639   0.154   4.305  13.271
84267SOL    HW154640   0.063   4.282  13.289
84267SOL    HW254641   0.192   4.321  13.357
84268SOL     OW54642   1.507   5.424  14.216
84268SOL    HW154643   1.486   5.517  14.208
84268SOL    HW254644   1.504   5.391  14.126
84269SOL     OW54645   3.569  11.656  14.236
84269SOL    HW154646   3.594  11.669  14.145
84269SOL    HW254647   3.642  11.694  14.286
84270SOL     OW54648   4.709  13.756  12.770
84270SOL    HW154649   4.771  13.696  12.729
84270SOL    HW254650   4.625  13.735  12.729
84271SOL     OW54651  13.670  14.650  10.550
84271SOL    HW154652  13.632  14.734  10.576
84271SOL    HW254653  13.730  14.628  10.621
84272SOL     OW54654   8.774  12.874   7.503
84272SOL    HW154655   8.784  12.807   7.570
84272SOL    HW254656   8.686  12.858   7.467
84273SOL     OW54657   0.915  13.696  12.297
84273SOL    HW154658   0.991  13.639  12.294
84273SOL    HW254659   0.840  13.638  12.283
84274SOL     OW54660   6.060  10.075  11.281
84274SOL    HW154661   5.965  10.073  11.292
84274SOL    HW254662   6.075  10.133  11.206
84275SOL     OW54663   2.968   0.820   8.297
84275SOL    HW154664   3.017   0.892   8.338
84275SOL    HW254665   2.892   0.808   8.354
84276SOL     OW54666   0.189  11.812   0.451
84276SOL    HW154667   0.134  11.763   0.389
84276SOL    HW254668   0.195  11.900   0.414
84277SOL     OW54669  10.169   5.201   6.888
84277SOL    HW154670  10.175   5.191   6.983
84277SOL    HW254671  10.258   5.188   6.856
84278SOL     OW54672  10.928  12.715   6.835
84278SOL    HW154673  10.868  12.692   6.764
84278SOL    HW254674  10.934  12.635   6.887
84279SOL     OW54675   1.772   5.937   8.903
84279SOL    HW154676   1.839   5.875   8.873
84279SOL    HW254677   1.689   5.893   8.887
84280SOL     OW54678  14.848   2.207   5.028
84280SOL    HW154679  14.761   2.172   5.048
84280SOL    HW254680   0.029   2.141   5.063
84281SOL     OW54681  10.191   7.141   7.426
84281SOL    HW154682  10.208   7.233   7.404
84281SOL    HW254683  10.154   7.103   7.346
84282SOL     OW54684  11.475   4.349   5.477
84282SOL    HW154685  11.495   4.255   5.488
84282SOL    HW254686  11.462   4.380   5.567
84283SOL     OW54687  14.151   1.623  14.774
84283SOL    HW154688  14.193   1.606  14.690
84283SOL    HW254689  14.115   1.538  14.801
84284SOL     OW54690  13.027   5.541   1.688
84284SOL    HW154691  12.947   5.590   1.706
84284SOL    HW254692  13.070   5.590   1.618
84285SOL     OW54693   9.726   2.853   5.590
84285SOL    HW154694   9.673   2.914   5.642
84285SOL    HW254695   9.809   2.899   5.578
84286SOL     OW54696  14.739  10.248  11.281
84286SOL    HW154697  14.778  10.164  11.306
84286SOL    HW254698  14.806  10.313  11.302
84287SOL     OW54699   0.965   6.157   8.981
84287SOL    HW154700   0.871   6.174   8.984
84287SOL    HW254701   0.988   6.133   9.071
84288SOL     OW54702  11.198   9.305  12.373
84288SOL    HW154703  11.127   9.344  12.321
84288SOL    HW254704  11.233   9.236  12.318
84289SOL     OW54705  11.766   3.462   1.488
84289SOL    HW154706  11.702   3.440   1.556
84289SOL    HW254707  11.751   3.555   1.470
84290SOL     OW54708   2.964  14.842  14.216
84290SOL    HW154709   3.021  14.875  14.286
84290SOL    HW254710   2.885  14.813  14.261
84291SOL     OW54711   6.806   7.444   7.992
84291SOL    HW154712   6.861   7.427   7.915
84291SOL    HW254713   6.794   7.539   7.992
84292SOL     OW54714   1.225   2.398   8.393
84292SOL    HW154715   1.206   2.318   8.345
84292SOL    HW254716   1.311   2.383   8.432
84293SOL     OW54717  12.784   2.836  12.311
84293SOL    HW154718  12.710   2.778  12.331
84293SOL    HW254719  12.861   2.788  12.340
84294SOL     OW54720  11.270   6.563  12.739
84294SOL    HW154721  11.229   6.525  12.662
84294SOL    HW254722  11.300   6.650  12.711
84295SOL     OW54723   5.714   2.730  12.369
84295SOL    HW154724   5.773   2.804  12.352
84295SOL    HW254725   5.668   2.716  12.286
84296SOL     OW54726   9.616   3.346   6.735
84296SOL    HW154727   9.676   3.337   6.810
84296SOL    HW254728   9.625   3.264   6.688
84297SOL     OW54729   4.923   5.562   3.458
84297SOL    HW154730   4.908   5.613   3.538
84297SOL    HW254731   4.942   5.474   3.490
84298SOL     OW54732  12.323   6.131   9.561
84298SOL    HW154733  12.366   6.164   9.640
84298SOL    HW254734  12.328   6.036   9.568
84299SOL     OW54735   2.984  11.381   2.445
84299SOL    HW154736   2.920  11.388   2.516
84299SOL    HW254737   3.068  11.365   2.489
84300SOL     OW54738   3.643  12.158  11.670
84300SOL    HW154739   3.558  12.136  11.630
84300SOL    HW254740   3.708  12.131  11.605
84301SOL     OW54741   7.786   9.375   9.377
84301SOL    HW154742   7.746   9.300   9.332
84301SOL    HW254743   7.864   9.394   9.326
84302SOL     OW54744  11.685   7.122   1.852
84302SOL    HW154745  11.763   7.072   1.876
84302SOL    HW254746  11.619   7.093   1.915
84303SOL     OW54747   2.667   8.009   1.988
84303SOL    HW154748   2.661   7.977   2.078
84303SOL    HW254749   2.755   8.044   1.980
84304SOL     OW54750  12.534   1.206   4.316
84304SOL    HW154751  12.443   1.211   4.284
84304SOL    HW254752  12.568   1.294   4.304
84305SOL     OW54753   5.880   9.785   8.752
84305SOL    HW154754   5.873   9.773   8.657
84305SOL    HW254755   5.862   9.699   8.788
84306SOL     OW54756   7.118   2.355  10.257
84306SOL    HW154757   7.167   2.415  10.202
84306SOL    HW254758   7.072   2.412  10.319
84307SOL     OW54759   1.111   6.416   2.053
84307SOL    HW154760   1.091   6.379   1.967
84307SOL    HW254761   1.057   6.495   2.058
84308SOL     OW54762   5.431  11.994   8.957
84308SOL    HW154763   5.407  11.913   9.002
84308SOL    HW254764   5.525  12.004   8.976
84309SOL     OW54765   3.796   5.650  10.778
84309SOL    HW154766   3.730   5.597  10.733
84309SOL    HW254767   3.745   5.718  10.821
84310SOL     OW54768   0.300  10.236  12.889
84310SOL    HW154769   0.212  10.245  12.852
84310SOL    HW254770   0.288  10.180  12.965
84311SOL     OW54771  14.106   1.261   1.962
84311SOL    HW154772  14.176   1.319   1.990
84311SOL    HW254773  14.147   1.174   1.959
84312SOL     OW54774  10.910  12.209   5.649
84312SOL    HW154775  10.831  12.175   5.607
84312SOL    HW254776  10.880  12.287   5.696
84313SOL     OW54777   8.417   3.171  13.140
84313SOL    HW154778   8.435   3.245  13.198
84313SOL    HW254779   8.324   3.179  13.118
84314SOL     OW54780   4.816   4.114   0.943
84314SOL    HW154781   4.762   4.092   0.868
84314SOL    HW254782   4.793   4.205   0.963
84315SOL     OW54783   4.698   8.034   7.352
84315SOL    HW154784   4.735   8.101   7.409
84315SOL    HW254785   4.670   7.965   7.413
84316SOL     OW54786   1.151   7.382   0.209
84316SOL    HW154787   1.199   7.464   0.223
84316SOL    HW254788   1.219   7.315   0.202
84317SOL     OW54789  13.125  11.244   2.371
84317SOL    HW154790  13.208  11.200   2.389
84317SOL    HW254791  13.118  11.311   2.439
84318SOL     OW54792   8.760   4.446  13.277
84318SOL    HW154793   8.740   4.527  13.232
84318SOL    HW254794   8.728   4.377  13.219
84319SOL     OW54795   7.905   6.848   2.287
84319SOL    HW154796   7.880   6.855   2.379
84319SOL    HW254797   7.900   6.938   2.254
84320SOL     OW54798   7.010   5.975   8.293
84320SOL    HW154799   7.043   5.955   8.206
84320SOL    HW254800   7.048   5.909   8.350
84321SOL     OW54801  11.581   4.638   7.001
84321SOL    HW154802  11.504   4.652   7.056
84321SOL    HW254803  11.651   4.685   7.045
84322SOL     OW54804   7.813   2.632   0.112
84322SOL    HW154805   7.754   2.693   0.068
84322SOL    HW254806   7.896   2.680   0.120
84323SOL     OW54807  12.977   0.552   6.240
84323SOL    HW154808  12.925   0.498   6.180
84323SOL    HW254809  13.067   0.543   6.208
84324SOL     OW54810   1.967  10.935   4.049
84324SOL    HW154811   2.046  10.882   4.037
84324SOL    HW254812   1.895  10.873   4.038
84325SOL     OW54813  12.218  13.152   5.214
84325SOL    HW154814  12.172  13.088   5.160
84325SOL    HW254815  12.161  13.229   5.216
84326SOL     OW54816   2.641   3.849   2.881
84326SOL    HW154817   2.655   3.852   2.975
84326SOL    HW254818   2.551   3.816   2.871
84327SOL     OW54819   9.174  10.977   8.134
84327SOL    HW154820   9.264  10.972   8.167
84327SOL    HW254821   9.161  11.070   8.113
84328SOL     OW54822  11.412   8.061   6.806
84328SOL    HW154823  11.357   8.113   6.748
84328SOL    HW254824  11.400   8.101   6.893
84329SOL     OW54825   9.269  14.143  12.210
84329SOL    HW154826   9.345  14.085  12.210
84329SOL    HW254827   9.240  14.143  12.301
84330SOL     OW54828   4.978   5.680   3.708
84330SOL    HW154829   4.990   5.759   3.761
84330SOL    HW254830   4.922   5.624   3.762
84331SOL     OW54831  13.603  13.266  14.838
84331SOL    HW154832  13.634  13.345  14.792
84331SOL    HW254833  13.678  13.237   0.010
84332SOL     OW54834   1.905   2.811   0.352
84332SOL    HW154835   1.899   2.724   0.390
84332SOL    HW254836   1.982   2.808   0.296
84333SOL     OW54837  12.421  10.814   3.264
84333SOL    HW154838  12.435  10.845   3.175
84333SOL    HW254839  12.498  10.760   3.283
84334SOL     OW54840   7.814  11.627   6.977
84334SOL    HW154841   7.786  11.644   7.067
84334SOL    HW254842   7.756  11.680   6.923
84335SOL     OW54843   7.258  14.335   8.760
84335SOL    HW154844   7.266  14.383   8.842
84335SOL    HW254845   7.344  14.296   8.745
84336SOL     OW54846   7.873   9.741   2.410
84336SOL    HW154847   7.928   9.663   2.408
84336SOL    HW254848   7.787   9.712   2.380
84337SOL     OW54849   4.358   3.503   0.994
84337SOL    HW154850   4.443   3.508   0.950
84337SOL    HW254851   4.333   3.594   1.009
84338SOL     OW54852  11.360   8.255   4.270
84338SOL    HW154853  11.419   8.233   4.198
84338SOL    HW254854  11.287   8.301   4.228
84339SOL     OW54855   3.505   9.708   8.930
84339SOL    HW154856   3.583   9.693   8.983
84339SOL    HW254857   3.435   9.725   8.993
84340SOL     OW54858   8.567   9.287   7.821
84340SOL    HW154859   8.574   9.307   7.914
84340SOL    HW254860   8.550   9.371   7.780
84341SOL     OW54861  14.316   7.346   9.255
84341SOL    HW154862  14.401   7.302   9.258
84341SOL    HW254863  14.309   7.379   9.166
84342SOL     OW54864   4.171   1.070  11.293
84342SOL    HW154865   4.227   1.021  11.233
84342SOL    HW254866   4.190   1.032  11.379
84343SOL     OW54867   0.715  11.881  12.492
84343SOL    HW154868   0.706  11.975  12.478
84343SOL    HW254869   0.625  11.847  12.486
84344SOL     OW54870   1.786  14.043  10.834
84344SOL    HW154871   1.877  14.046  10.806
84344SOL    HW254872   1.782  13.969  10.896
84345SOL     OW54873   4.658   5.333  10.884
84345SOL    HW154874   4.606   5.362  10.809
84345SOL    HW254875   4.724   5.402  10.896
84346SOL     OW54876  12.110   5.892  10.425
84346SOL    HW154877  12.116   5.937  10.341
84346SOL    HW254878  12.189   5.839  10.430
84347SOL     OW54879   9.120  12.797  11.183
84347SOL    HW154880   9.109  12.859  11.255
84347SOL    HW254881   9.180  12.841  11.122
84348SOL     OW54882   9.361   6.546  13.322
84348SOL    HW154883   9.322   6.586  13.400
84348SOL    HW254884   9.303   6.572  13.250
84349SOL     OW54885   9.086   8.430  14.119
84349SOL    HW154886   9.057   8.395  14.034
84349SOL    HW254887   9.099   8.523  14.103
84350SOL     OW54888  14.221   0.064   5.358
84350SOL    HW154889  14.296   0.027   5.311
84350SOL    HW254890  14.178   0.121   5.294
84351SOL     OW54891   4.105  11.848  12.206
84351SOL    HW154892   4.095  11.755  12.226
84351SOL    HW254893   4.199  11.865  12.218
84352SOL     OW54894  11.611   8.394   2.809
84352SOL    HW154895  11.646   8.481   2.790
84352SOL    HW254896  11.659   8.366   2.887
84353SOL     OW54897  10.679   6.679  11.212
84353SOL    HW154898  10.698   6.719  11.296
84353SOL    HW254899  10.760   6.689  11.161
84354SOL     OW54900   8.700  12.749  12.503
84354SOL    HW154901   8.663  12.792  12.426
84354SOL    HW254902   8.740  12.819  12.554
84355SOL     OW54903   4.728   2.082   9.595
84355SOL    HW154904   4.714   2.112   9.685
84355SOL    HW254905   4.730   2.162   9.543
84356SOL     OW54906   3.460  11.037   0.859
84356SOL    HW154907   3.549  11.035   0.894
84356SOL    HW254908   3.416  11.104   0.910
84357SOL     OW54909   2.221  13.881   3.479
84357SOL    HW154910   2.220  13.977   3.482
84357SOL    HW254911   2.312  13.857   3.499
84358SOL     OW54912   3.496  11.436   4.942
84358SOL    HW154913   3.473  11.398   4.857
84358SOL    HW254914   3.591  11.429   4.946
84359SOL     OW54915   9.533   0.819   6.730
84359SOL    HW154916   9.588   0.877   6.679
84359SOL    HW254917   9.551   0.732   6.694
84360SOL     OW54918  13.317   1.001  13.119
84360SOL    HW154919  13.249   1.033  13.060
84360SOL    HW254920  13.270   0.952  13.186
84361SOL     OW54921   9.808   2.889  10.242
84361SOL    HW154922   9.826   2.979  10.214
84361SOL    HW254923   9.881   2.838  10.209
84362SOL     OW54924  14.371  12.867  12.352
84362SOL    HW154925  14.428  12.846  12.427
84362SOL    HW254926  14.412  12.823  12.278
84363SOL     OW54927  13.348   6.455  13.759
84363SOL    HW154928  13.315   6.395  13.692
84363SOL    HW254929  13.328   6.411  13.842
84364SOL     OW54930   8.884  11.717   0.403
84364SOL    HW154931   8.827  11.657   0.355
84364SOL    HW254932   8.971  11.699   0.368
84365SOL     OW54933  10.538   0.634   0.125
84365SOL    HW154934  10.454   0.663   0.088
84365SOL    HW254935  10.524   0.634   0.219
84366SOL     OW54936  12.585   9.289  11.548
84366SOL    HW154937  12.493   9.314  11.557
84366SOL    HW254938  12.592   9.207  11.596
84367SOL     OW54939   1.857   5.370   0.151
84367SOL    HW154940   1.766   5.341   0.148
84367SOL    HW254941   1.895   5.339   0.068
84368SOL     OW54942   1.293  13.438   1.477
84368SOL    HW154943   1.320  13.423   1.568
84368SOL    HW254944   1.224  13.503   1.484
84369SOL     OW54945   4.437   1.079  10.512
84369SOL    HW154946   4.412   1.079  10.419
84369SOL    HW254947   4.397   0.999  10.547
84370SOL     OW54948  12.037   5.526  11.420
84370SOL    HW154949  12.044   5.594  11.487
84370SOL    HW254950  11.949   5.536  11.384
84371SOL     OW54951   5.267   4.243   6.136
84371SOL    HW154952   5.312   4.305   6.078
84371SOL    HW254953   5.181   4.231   6.096
84372SOL     OW54954   6.548  14.428   0.124
84372SOL    HW154955   6.530  14.503   0.067
84372SOL    HW254956   6.619  14.458   0.181
84373SOL     OW54957   1.328   0.312  14.562
84373SOL    HW154958   1.239   0.324  14.596
84373SOL    HW254959   1.316   0.279  14.473
84374SOL     OW54960  11.781   2.848   4.506
84374SOL    HW154961  11.701   2.892   4.480
84374SOL    HW254962  11.783   2.768   4.453
84375SOL     OW54963   1.144  11.599   9.734
84375SOL    HW154964   1.185  11.544   9.800
84375SOL    HW254965   1.199  11.588   9.656
84376SOL     OW54966  13.619   4.758  12.480
84376SOL    HW154967  13.650   4.849  12.480
84376SOL    HW254968  13.581   4.746  12.393
84377SOL     OW54969  11.082  10.538  12.435
84377SOL    HW154970  11.015  10.576  12.491
84377SOL    HW254971  11.044  10.457  12.402
84378SOL     OW54972  14.127  10.628   9.933
84378SOL    HW154973  14.210  10.614   9.887
84378SOL    HW254974  14.149  10.690  10.002
84379SOL     OW54975   6.795  10.722  10.325
84379SOL    HW154976   6.847  10.785  10.275
84379SOL    HW254977   6.770  10.656  10.260
84380SOL     OW54978   3.472   4.217   6.596
84380SOL    HW154979   3.517   4.201   6.679
84380SOL    HW254980   3.543   4.228   6.532
84381SOL     OW54981  14.626  11.561   8.820
84381SOL    HW154982  14.708  11.607   8.837
84381SOL    HW254983  14.614  11.503   8.896
84382SOL     OW54984   9.450   2.418   7.204
84382SOL    HW154985   9.477   2.479   7.273
84382SOL    HW254986   9.468   2.331   7.241
84383SOL     OW54987  10.312   0.529   7.037
84383SOL    HW154988  10.406   0.541   7.051
84383SOL    HW254989  10.301   0.537   6.943
84384SOL     OW54990  13.712  14.616  10.081
84384SOL    HW154991  13.702  14.521  10.079
84384SOL    HW254992  13.719  14.641   9.988
84385SOL     OW54993  13.393   1.138   9.869
84385SOL    HW154994  13.322   1.191   9.906
84385SOL    HW254995  13.457   1.130   9.941
84386SOL     OW54996   0.830   5.165   6.721
84386SOL    HW154997   0.821   5.153   6.815
84386SOL    HW254998   0.786   5.088   6.683
84387SOL     OW54999   2.519   0.946   2.893
84387SOL    HW155000   2.516   0.955   2.798
84387SOL    HW255001   2.609   0.966   2.917
84388SOL     OW55002  12.337   1.103   7.698
84388SOL    HW155003  12.267   1.047   7.731
84388SOL    HW255004  12.404   1.100   7.766
84389SOL     OW55005  13.619   1.607  11.174
84389SOL    HW155006  13.588   1.675  11.234
84389SOL    HW255007  13.605   1.644  11.087
84390SOL     OW55008   9.641   1.619   0.816
84390SOL    HW155009   9.651   1.699   0.765
84390SOL    HW255010   9.656   1.646   0.907
84391SOL     OW55011  12.520   5.263  14.132
84391SOL    HW155012  12.603   5.309  14.149
84391SOL    HW255013  12.514   5.260  14.037
84392SOL     OW55014   0.198   5.599  12.287
84392SOL    HW155015   0.127   5.593  12.351
84392SOL    HW255016   0.258   5.665  12.323
84393SOL     OW55017   6.108   0.256   6.455
84393SOL    HW155018   6.201   0.241   6.440
84393SOL    HW255019   6.090   0.217   6.541
84394SOL     OW55020  14.082   4.201   4.239
84394SOL    HW155021  14.157   4.141   4.242
84394SOL    HW255022  14.048   4.192   4.150
84395SOL     OW55023   6.688  12.838  13.003
84395SOL    HW155024   6.702  12.810  13.093
84395SOL    HW255025   6.621  12.907  13.009
84396SOL     OW55026   0.213   6.903   5.596
84396SOL    HW155027   0.290   6.852   5.570
84396SOL    HW255028   0.198   6.963   5.522
84397SOL     OW55029   2.440   3.940  11.975
84397SOL    HW155030   2.535   3.944  11.972
84397SOL    HW255031   2.421   3.880  12.047
84398SOL     OW55032   7.097   8.693   5.124
84398SOL    HW155033   7.046   8.652   5.194
84398SOL    HW255034   7.149   8.760   5.168
84399SOL     OW55035   4.941   2.692   7.808
84399SOL    HW155036   4.950   2.688   7.903
84399SOL    HW255037   4.868   2.751   7.793
84400SOL     OW55038   1.723   9.652   3.473
84400SOL    HW155039   1.816   9.647   3.452
84400SOL    HW255040   1.706   9.745   3.488
84401SOL     OW55041   3.913   0.542  10.211
84401SOL    HW155042   3.874   0.526  10.125
84401SOL    HW255043   3.937   0.455  10.243
84402SOL     OW55044  12.577   2.995   3.267
84402SOL    HW155045  12.551   2.916   3.314
84402SOL    HW255046  12.498   3.048   3.264
84403SOL     OW55047   1.047   5.765   1.135
84403SOL    HW155048   1.006   5.681   1.154
84403SOL    HW255049   1.095   5.788   1.214
84404SOL     OW55050   4.115   1.654   5.778
84404SOL    HW155051   4.184   1.712   5.747
84404SOL    HW255052   4.097   1.683   5.867
84405SOL     OW55053  14.002   5.042   2.160
84405SOL    HW155054  14.084   5.083   2.187
84405SOL    HW255055  13.945   5.116   2.138
84406SOL     OW55056   0.215  12.656  13.066
84406SOL    HW155057   0.267  12.720  13.017
84406SOL    HW255058   0.261  12.646  13.149
84407SOL     OW55059   2.680  11.812   5.168
84407SOL    HW155060   2.754  11.871   5.185
84407SOL    HW255061   2.691  11.740   5.229
84408SOL     OW55062   6.627   4.123  12.336
84408SOL    HW155063   6.568   4.181  12.384
84408SOL    HW255064   6.568   4.064  12.288
84409SOL     OW55065  14.109  13.279  11.235
84409SOL    HW155066  14.065  13.349  11.186
84409SOL    HW255067  14.082  13.199  11.191
84410SOL     OW55068   5.778   7.540   5.297
84410SOL    HW155069   5.738   7.477   5.357
84410SOL    HW255070   5.872   7.525   5.306
84411SOL     OW55071   1.248   4.815   5.632
84411SOL    HW155072   1.304   4.748   5.671
84411SOL    HW255073   1.235   4.879   5.702
84412SOL     OW55074   5.829  12.867   3.717
84412SOL    HW155075   5.768  12.803   3.682
84412SOL    HW255076   5.877  12.899   3.641
84413SOL     OW55077  11.685  10.197   5.842
84413SOL    HW155078  11.695  10.127   5.777
84413SOL    HW255079  11.773  10.232   5.854
84414SOL     OW55080  13.839   3.819  10.724
84414SOL    HW155081  13.778   3.778  10.663
84414SOL    HW255082  13.789   3.888  10.766
84415SOL     OW55083   6.697  14.127   8.034
84415SOL    HW155084   6.665  14.163   7.951
84415SOL    HW255085   6.666  14.036   8.033
84416SOL     OW55086   9.685   3.303   4.531
84416SOL    HW155087   9.656   3.353   4.607
84416SOL    HW255088   9.655   3.214   4.548
84417SOL     OW55089   5.465   6.660   2.056
84417SOL    HW155090   5.560   6.652   2.052
84417SOL    HW255091   5.450   6.727   2.124
84418SOL     OW55092   5.592  10.974  12.588
84418SOL    HW155093   5.610  11.067  12.572
84418SOL    HW255094   5.540  10.973  12.668
84419SOL     OW55095   6.278   4.366   3.932
84419SOL    HW155096   6.189   4.374   3.966
84419SOL    HW255097   6.269   4.375   3.837
84420SOL     OW55098   6.456  14.146   2.529
84420SOL    HW155099   6.391  14.209   2.560
84420SOL    HW255100   6.426  14.122   2.441
84421SOL     OW55101   0.528   0.839   1.011
84421SOL    HW155102   0.463   0.877   1.070
84421SOL    HW255103   0.477   0.808   0.936
84422SOL     OW55104   1.561   6.539   7.716
84422SOL    HW155105   1.563   6.443   7.723
84422SOL    HW255106   1.627   6.569   7.779
84423SOL     OW55107   2.444   3.142  10.397
84423SOL    HW155108   2.367   3.103  10.356
84423SOL    HW255109   2.516   3.117  10.339
84424SOL     OW55110   6.631  12.519  11.792
84424SOL    HW155111   6.711  12.478  11.758
84424SOL    HW255112   6.663  12.590  11.848
84425SOL     OW55113   5.018   3.461   5.424
84425SOL    HW155114   4.942   3.404   5.440
84425SOL    HW255115   5.094   3.404   5.438
84426SOL     OW55116  12.662  10.198  11.612
84426SOL    HW155117  12.755  10.192  11.630
84426SOL    HW255118  12.624  10.120  11.652
84427SOL     OW55119  14.796  11.907   8.409
84427SOL    HW155120  14.738  11.844   8.452
84427SOL    HW255121  14.775  11.991   8.450
84428SOL     OW55122   2.868   8.843   6.190
84428SOL    HW155123   2.956   8.873   6.168
84428SOL    HW255124   2.840   8.793   6.113
84429SOL     OW55125   8.336   4.359   6.961
84429SOL    HW155126   8.375   4.322   7.041
84429SOL    HW255127   8.272   4.294   6.933
84430SOL     OW55128   5.016   8.712  12.765
84430SOL    HW155129   5.010   8.774  12.692
84430SOL    HW255130   4.963   8.637  12.737
84431SOL     OW55131  12.683   3.419   2.030
84431SOL    HW155132  12.696   3.376   2.114
84431SOL    HW255133  12.683   3.513   2.050
84432SOL     OW55134  14.555   7.413   3.483
84432SOL    HW155135  14.587   7.331   3.444
84432SOL    HW255136  14.473   7.388   3.526
84433SOL     OW55137   2.264  11.703   5.769
84433SOL    HW155138   2.281  11.690   5.863
84433SOL    HW255139   2.271  11.797   5.756
84434SOL     OW55140   4.524  11.004   8.459
84434SOL    HW155141   4.582  11.015   8.384
84434SOL    HW255142   4.447  10.959   8.423
84435SOL     OW55143   6.861   6.432   5.231
84435SOL    HW155144   6.889   6.479   5.310
84435SOL    HW255145   6.939   6.429   5.176
84436SOL     OW55146   9.592   3.337  13.794
84436SOL    HW155147   9.684   3.314  13.781
84436SOL    HW255148   9.589   3.376  13.881
84437SOL     OW55149   5.899  10.937   6.557
84437SOL    HW155150   5.970  10.997   6.581
84437SOL    HW255151   5.866  10.971   6.474
84438SOL     OW55152   7.615   5.888   3.174
84438SOL    HW155153   7.524   5.869   3.151
84438SOL    HW255154   7.660   5.804   3.162
84439SOL     OW55155  12.333   0.647  11.208
84439SOL    HW155156  12.354   0.575  11.268
84439SOL    HW255157  12.242   0.631  11.183
84440SOL     OW55158   2.748   2.545  13.436
84440SOL    HW155159   2.742   2.548  13.340
84440SOL    HW255160   2.800   2.621  13.459
84441SOL     OW55161  11.930   6.860  11.861
84441SOL    HW155162  11.906   6.789  11.802
84441SOL    HW255163  12.010   6.831  11.904
84442SOL     OW55164   6.960   1.296   3.602
84442SOL    HW155165   6.945   1.201   3.604
84442SOL    HW255166   6.877   1.332   3.570
84443SOL     OW55167  14.643   7.002  12.558
84443SOL    HW155168  14.684   6.923  12.524
84443SOL    HW255169  14.573   6.971  12.615
84444SOL     OW55170  11.134  13.849   8.274
84444SOL    HW155171  11.052  13.823   8.314
84444SOL    HW255172  11.153  13.780   8.210
84445SOL     OW55173   2.455   4.747   9.308
84445SOL    HW155174   2.542   4.721   9.339
84445SOL    HW255175   2.439   4.691   9.232
84446SOL     OW55176   8.911  13.612   4.880
84446SOL    HW155177   8.889  13.538   4.937
84446SOL    HW255178   8.988  13.652   4.921
84447SOL     OW55179  10.104   8.326   9.734
84447SOL    HW155180  10.065   8.413   9.743
84447SOL    HW255181  10.037   8.267   9.769
84448SOL     OW55182   4.398   2.308   6.538
84448SOL    HW155183   4.481   2.355   6.546
84448SOL    HW255184   4.401   2.242   6.607
84449SOL     OW55185   7.003   7.494   4.597
84449SOL    HW155186   6.951   7.569   4.568
84449SOL    HW255187   6.952   7.418   4.568
84450SOL     OW55188   3.225   2.411   4.123
84450SOL    HW155189   3.225   2.317   4.104
84450SOL    HW255190   3.197   2.452   4.041
84451SOL     OW55191   9.518   8.855   8.358
84451SOL    HW155192   9.458   8.865   8.431
84451SOL    HW255193   9.603   8.838   8.399
84452SOL     OW55194   6.930  14.863   7.503
84452SOL    HW155195   6.949   0.066   7.548
84452SOL    HW255196   7.014  14.836   7.467
84453SOL     OW55197   2.091   0.039   1.252
84453SOL    HW155198   2.018   0.085   1.295
84453SOL    HW255199   2.049  14.843   1.208
84454SOL     OW55200  12.158   1.535   4.015
84454SOL    HW155201  12.140   1.444   3.993
84454SOL    HW255202  12.095   1.585   3.964
84455SOL     OW55203   5.125  10.432  14.444
84455SOL    HW155204   5.046  10.435  14.391
84455SOL    HW255205   5.103  10.374  14.516
84456SOL     OW55206   1.589  12.547   4.949
84456SOL    HW155207   1.552  12.591   5.025
84456SOL    HW255208   1.639  12.474   4.986
84457SOL     OW55209  14.396  10.642   9.534
84457SOL    HW155210  14.422  10.631   9.625
84457SOL    HW255211  14.339  10.567   9.516
84458SOL     OW55212  12.577   9.380   7.861
84458SOL    HW155213  12.574   9.290   7.894
84458SOL    HW255214  12.654   9.382   7.804
84459SOL     OW55215   4.724   3.467  11.516
84459SOL    HW155216   4.722   3.527  11.441
84459SOL    HW255217   4.652   3.406  11.500
84460SOL     OW55218  12.850   2.196   6.593
84460SOL    HW155219  12.870   2.235   6.508
84460SOL    HW255220  12.822   2.107   6.573
84461SOL     OW55221   9.955   4.136  11.397
84461SOL    HW155222   9.883   4.077  11.380
84461SOL    HW255223   9.971   4.181  11.314
84462SOL     OW55224   0.521  11.180   9.331
84462SOL    HW155225   0.600  11.198   9.382
84462SOL    HW255226   0.460  11.249   9.356
84463SOL     OW55227   1.366   9.259  14.309
84463SOL    HW155228   1.321   9.238  14.227
84463SOL    HW255229   1.367   9.355  14.311
84464SOL     OW55230   1.222   0.601   0.932
84464SOL    HW155231   1.187   0.524   0.976
84464SOL    HW255232   1.313   0.578   0.913
84465SOL     OW55233   2.317  10.687   3.817
84465SOL    HW155234   2.340  10.723   3.731
84465SOL    HW255235   2.320  10.592   3.804
84466SOL     OW55236   3.073   1.102  13.806
84466SOL    HW155237   3.050   1.079  13.896
84466SOL    HW255238   2.988   1.120  13.764
84467SOL     OW55239   7.221  13.394  14.178
84467SOL    HW155240   7.139  13.395  14.129
84467SOL    HW255241   7.200  13.347  14.259
84468SOL     OW55242  11.862   0.877   0.521
84468SOL    HW155243  11.936   0.816   0.520
84468SOL    HW255244  11.815   0.855   0.601
84469SOL     OW55245  14.508   8.902  11.894
84469SOL    HW155246  14.483   8.811  11.909
84469SOL    HW255247  14.435   8.953  11.930
84470SOL     OW55248   2.901  11.759   5.484
84470SOL    HW155249   2.990  11.781   5.512
84470SOL    HW255250   2.899  11.664   5.481
84471SOL     OW55251  13.763   5.546   2.913
84471SOL    HW155252  13.780   5.603   2.837
84471SOL    HW255253  13.850   5.517   2.940
84472SOL     OW55254   0.799  10.508   4.264
84472SOL    HW155255   0.891  10.481   4.265
84472SOL    HW255256   0.793  10.574   4.333
84473SOL     OW55257  13.134   6.393   9.504
84473SOL    HW155258  13.157   6.477   9.542
84473SOL    HW255259  13.209   6.336   9.521
84474SOL     OW55260  10.274   8.925   6.095
84474SOL    HW155261  10.239   8.961   6.014
84474SOL    HW255262  10.270   8.997   6.158
84475SOL     OW55263   8.640   3.438   6.119
84475SOL    HW155264   8.573   3.492   6.075
84475SOL    HW255265   8.640   3.469   6.209
84476SOL     OW55266   9.165  13.161   2.688
84476SOL    HW155267   9.139  13.118   2.606
84476SOL    HW255268   9.091  13.217   2.710
84477SOL     OW55269   3.037  13.545   7.410
84477SOL    HW155270   3.123  13.585   7.397
84477SOL    HW255271   3.052  13.452   7.393
84478SOL     OW55272  12.638   3.994   5.908
84478SOL    HW155273  12.634   3.905   5.944
84478SOL    HW255274  12.672   4.047   5.980
84479SOL     OW55275   9.916   3.657   5.669
84479SOL    HW155276   9.923   3.565   5.643
84479SOL    HW255277   9.950   3.658   5.759
84480SOL     OW55278   4.432   5.621  14.752
84480SOL    HW155279   4.505   5.560  14.750
84480SOL    HW255280   4.362   5.574  14.797
84481SOL     OW55281   3.258  10.965  10.690
84481SOL    HW155282   3.332  10.919  10.650
84481SOL    HW255283   3.287  11.056  10.696
84482SOL     OW55284   3.893   3.061   1.876
84482SOL    HW155285   3.927   3.114   1.948
84482SOL    HW255286   3.824   3.114   1.838
84483SOL     OW55287   0.785   5.281   2.440
84483SOL    HW155288   0.785   5.275   2.344
84483SOL    HW255289   0.693   5.268   2.464
84484SOL     OW55290   5.218   9.110   8.158
84484SOL    HW155291   5.158   9.062   8.101
84484SOL    HW255292   5.287   9.047   8.179
84485SOL     OW55293  11.559   7.392  12.505
84485SOL    HW155294  11.493   7.458  12.483
84485SOL    HW255295  11.595   7.421  12.589
84486SOL     OW55296   3.977   4.796  10.712
84486SOL    HW155297   4.042   4.755  10.770
84486SOL    HW255298   3.898   4.801  10.765
84487SOL     OW55299   0.579   4.394   7.527
84487SOL    HW155300   0.602   4.303   7.506
84487SOL    HW255301   0.568   4.394   7.622
84488SOL     OW55302   5.886   4.109   3.906
84488SOL    HW155303   5.809   4.146   3.862
84488SOL    HW255304   5.858   4.021   3.932
84489SOL     OW55305  10.061  11.636   5.750
84489SOL    HW155306  10.079  11.730   5.746
84489SOL    HW255307  10.128  11.601   5.808
84490SOL     OW55308  13.942   9.738   7.034
84490SOL    HW155309  13.872   9.802   7.027
84490SOL    HW255310  13.897   9.655   7.050
84491SOL     OW55311  12.984   1.355   0.780
84491SOL    HW155312  13.053   1.402   0.827
84491SOL    HW255313  13.031   1.297   0.720
84492SOL     OW55314   6.840  12.412   9.525
84492SOL    HW155315   6.865  12.325   9.493
84492SOL    HW255316   6.903  12.431   9.595
84493SOL     OW55317   6.058  11.359   2.129
84493SOL    HW155318   6.041  11.403   2.212
84493SOL    HW255319   6.013  11.275   2.136
84494SOL     OW55320   8.023   9.481   0.397
84494SOL    HW155321   7.954   9.543   0.373
84494SOL    HW255322   8.088   9.489   0.327
84495SOL     OW55323  11.214   6.140  11.919
84495SOL    HW155324  11.123   6.156  11.892
84495SOL    HW255325  11.239   6.219  11.967
84496SOL     OW55326   1.367   8.985   7.001
84496SOL    HW155327   1.324   9.002   7.085
84496SOL    HW255328   1.429   9.058   6.991
84497SOL     OW55329   4.156  14.031   5.703
84497SOL    HW155330   4.146  14.077   5.787
84497SOL    HW255331   4.242  13.991   5.708
84498SOL     OW55332   5.291   8.348   2.740
84498SOL    HW155333   5.337   8.429   2.721
84498SOL    HW255334   5.345   8.280   2.700
84499SOL     OW55335   1.621   6.472  13.774
84499SOL    HW155336   1.605   6.564  13.756
84499SOL    HW255337   1.592   6.458  13.864
84500SOL     OW55338   1.267   7.737   9.570
84500SOL    HW155339   1.188   7.754   9.518
84500SOL    HW255340   1.289   7.646   9.550
84501SOL     OW55341   4.833   8.607   4.898
84501SOL    HW155342   4.877   8.691   4.884
84501SOL    HW255343   4.877   8.547   4.839
84502SOL     OW55344   6.536   9.987   2.583
84502SOL    HW155345   6.494  10.072   2.599
84502SOL    HW255346   6.584  10.000   2.501
84503SOL     OW55347  14.675   6.060   8.738
84503SOL    HW155348  14.664   6.085   8.646
84503SOL    HW255349  14.618   6.120   8.786
84504SOL     OW55350  10.664   5.077  12.035
84504SOL    HW155351  10.684   5.161  11.994
84504SOL    HW255352  10.749   5.044  12.065
84505SOL     OW55353   2.464   0.679  14.539
84505SOL    HW155354   2.398   0.687  14.609
84505SOL    HW255355   2.540   0.640  14.582
84506SOL     OW55356  11.348   4.905   4.679
84506SOL    HW155357  11.296   4.912   4.599
84506SOL    HW255358  11.422   4.965   4.664
84507SOL     OW55359   1.552   1.672   2.768
84507SOL    HW155360   1.523   1.586   2.798
84507SOL    HW255361   1.560   1.663   2.673
84508SOL     OW55362   7.522   2.277   5.874
84508SOL    HW155363   7.507   2.182   5.869
84508SOL    HW255364   7.596   2.292   5.816
84509SOL     OW55365   5.593   2.299  12.879
84509SOL    HW155366   5.574   2.392  12.867
84509SOL    HW255367   5.676   2.285  12.832
84510SOL     OW55368   5.072  13.546   1.000
84510SOL    HW155369   5.079  13.455   1.028
84510SOL    HW255370   5.145  13.590   1.043
84511SOL     OW55371   5.713   7.708   9.038
84511SOL    HW155372   5.626   7.716   9.000
84511SOL    HW255373   5.758   7.647   8.980
84512SOL     OW55374   3.879   1.499  14.832
84512SOL    HW155375   3.843   1.563  14.770
84512SOL    HW255376   3.913   1.429  14.777
84513SOL     OW55377  12.862   6.313   4.478
84513SOL    HW155378  12.945   6.360   4.482
84513SOL    HW255379  12.887   6.223   4.457
84514SOL     OW55380   5.445  11.442   1.155
84514SOL    HW155381   5.458  11.501   1.081
84514SOL    HW255382   5.416  11.360   1.115
84515SOL     OW55383  10.440   6.005   5.565
84515SOL    HW155384  10.491   5.954   5.501
84515SOL    HW255385  10.356   6.021   5.521
84516SOL     OW55386  14.059   4.017   3.448
84516SOL    HW155387  14.117   4.062   3.386
84516SOL    HW255388  14.118   3.965   3.503
84517SOL     OW55389  11.318   0.491  12.284
84517SOL    HW155390  11.380   0.554  12.323
84517SOL    HW255391  11.374   0.426  12.242
84518SOL     OW55392  10.593   1.873   7.400
84518SOL    HW155393  10.590   1.917   7.314
84518SOL    HW255394  10.628   1.786   7.381
84519SOL     OW55395  11.416   8.999   2.744
84519SOL    HW155396  11.456   9.073   2.698
84519SOL    HW255397  11.323   9.024   2.752
84520SOL     OW55398   0.822   6.060   0.619
84520SOL    HW155399   0.911   6.031   0.638
84520SOL    HW255400   0.831   6.151   0.591
84521SOL     OW55401   4.907   3.709   1.898
84521SOL    HW155402   4.930   3.682   1.810
84521SOL    HW255403   4.882   3.628   1.942
84522SOL     OW55404   2.973   8.649  14.370
84522SOL    HW155405   3.043   8.630  14.307
84522SOL    HW255406   3.011   8.713  14.430
84523SOL     OW55407   0.391   4.882   6.770
84523SOL    HW155408   0.390   4.978   6.770
84523SOL    HW255409   0.433   4.858   6.853
84524SOL     OW55410   2.538   1.762   1.506
84524SOL    HW155411   2.548   1.703   1.580
84524SOL    HW255412   2.519   1.705   1.432
84525SOL     OW55413   3.866  11.274  11.329
84525SOL    HW155414   3.798  11.230  11.279
84525SOL    HW255415   3.867  11.228  11.413
84526SOL     OW55416   8.615   0.625   2.772
84526SOL    HW155417   8.634   0.637   2.678
84526SOL    HW255418   8.523   0.602   2.775
84527SOL     OW55419   3.440   5.286   5.468
84527SOL    HW155420   3.373   5.333   5.518
84527SOL    HW255421   3.477   5.223   5.531
84528SOL     OW55422  10.976  14.517   4.992
84528SOL    HW155423  10.898  14.518   5.047
84528SOL    HW255424  10.960  14.446   4.930
84529SOL     OW55425   0.969   0.008  12.630
84529SOL    HW155426   1.013  14.823  12.574
84529SOL    HW255427   0.935   0.073  12.569
84530SOL     OW55428  11.866  12.887   9.085
84530SOL    HW155429  11.920  12.817   9.122
84530SOL    HW255430  11.925  12.962   9.078
84531SOL     OW55431  14.186  12.944   1.761
84531SOL    HW155432  14.162  12.908   1.676
84531SOL    HW255433  14.120  12.911   1.821
84532SOL     OW55434   9.566  14.308   3.825
84532SOL    HW155435   9.566  14.213   3.838
84532SOL    HW255436   9.638  14.324   3.764
84533SOL     OW55437   2.209   6.268   9.028
84533SOL    HW155438   2.169   6.202   8.971
84533SOL    HW255439   2.204   6.349   8.978
84534SOL     OW55440   3.650  10.939   1.194
84534SOL    HW155441   3.689  11.001   1.132
84534SOL    HW255442   3.571  10.906   1.150
84535SOL     OW55443   2.170   1.080   3.523
84535SOL    HW155444   2.125   1.029   3.590
84535SOL    HW255445   2.222   1.015   3.475
84536SOL     OW55446   8.051   8.434  11.205
84536SOL    HW155447   8.066   8.414  11.298
84536SOL    HW255448   8.131   8.479  11.177
84537SOL     OW55449  11.379   7.122   0.600
84537SOL    HW155450  11.312   7.170   0.650
84537SOL    HW255451  11.332   7.088   0.524
84538SOL     OW55452   0.450  14.310  13.451
84538SOL    HW155453   0.529  14.291  13.402
84538SOL    HW255454   0.420  14.225  13.483
84539SOL     OW55455   2.505  12.969  10.317
84539SOL    HW155456   2.422  12.949  10.276
84539SOL    HW255457   2.568  12.911  10.275
84540SOL     OW55458   4.604   2.106  13.884
84540SOL    HW155459   4.654   2.025  13.886
84540SOL    HW255460   4.546   2.096  13.809
84541SOL     OW55461  11.331   3.669   5.473
84541SOL    HW155462  11.263   3.732   5.497
84541SOL    HW255463  11.294   3.584   5.498
84542SOL     OW55464  12.492  14.123   4.908
84542SOL    HW155465  12.461  14.045   4.955
84542SOL    HW255466  12.488  14.193   4.973
84543SOL     OW55467   9.033  11.872  10.189
84543SOL    HW155468   9.113  11.919  10.214
84543SOL    HW255469   9.042  11.786  10.229
84544SOL     OW55470  10.528   6.588  13.954
84544SOL    HW155471  10.613   6.546  13.936
84544SOL    HW255472  10.524   6.661  13.893
84545SOL     OW55473   7.858   5.944   0.005
84545SOL    HW155474   7.870   5.987   0.090
84545SOL    HW255475   7.773   5.900   0.012
84546SOL     OW55476   2.232   6.140  12.774
84546SOL    HW155477   2.236   6.123  12.680
84546SOL    HW255478   2.210   6.233  12.780
84547SOL     OW55479   2.642   9.317  12.262
84547SOL    HW155480   2.643   9.274  12.177
84547SOL    HW255481   2.697   9.262  12.318
84548SOL     OW55482  11.990   8.541   1.818
84548SOL    HW155483  12.033   8.456   1.825
84548SOL    HW255484  11.995   8.563   1.725
84549SOL     OW55485   8.652  12.335   3.268
84549SOL    HW155486   8.568  12.329   3.221
84549SOL    HW255487   8.689  12.247   3.262
84550SOL     OW55488  13.517   0.452   3.808
84550SOL    HW155489  13.459   0.388   3.849
84550SOL    HW255490  13.600   0.405   3.796
84551SOL     OW55491  13.749   6.432   7.861
84551SOL    HW155492  13.709   6.513   7.829
84551SOL    HW255493  13.788   6.393   7.783
84552SOL     OW55494   1.644   8.543   2.980
84552SOL    HW155495   1.571   8.561   3.040
84552SOL    HW255496   1.611   8.476   2.921
84553SOL     OW55497   3.842   9.419  11.174
84553SOL    HW155498   3.752   9.390  11.185
84553SOL    HW255499   3.836   9.505  11.132
84554SOL     OW55500   4.735   2.073  12.955
84554SOL    HW155501   4.796   2.018  12.905
84554SOL    HW255502   4.659   2.016  12.970
84555SOL     OW55503   1.626   5.445   6.758
84555SOL    HW155504   1.591   5.533   6.769
84555SOL    HW255505   1.600   5.399   6.838
84556SOL     OW55506  12.013  13.924   6.669
84556SOL    HW155507  11.987  13.927   6.577
84556SOL    HW255508  12.108  13.937   6.668
84557SOL     OW55509  12.226   5.546   0.742
84557SOL    HW155510  12.138   5.538   0.706
84557SOL    HW255511  12.279   5.485   0.690
84558SOL     OW55512   8.541  14.584  10.422
84558SOL    HW155513   8.564  14.497  10.389
84558SOL    HW255514   8.556  14.578  10.517
84559SOL     OW55515   2.102   8.545   6.977
84559SOL    HW155516   2.153   8.539   7.057
84559SOL    HW255517   2.023   8.494   6.996
84560SOL     OW55518   1.388  14.520   8.210
84560SOL    HW155519   1.475  14.481   8.222
84560SOL    HW255520   1.327  14.446   8.218
84561SOL     OW55521   2.482   7.753   3.438
84561SOL    HW155522   2.428   7.818   3.393
84561SOL    HW255523   2.465   7.671   3.392
84562SOL     OW55524  13.431   2.448  14.568
84562SOL    HW155525  13.363   2.406  14.619
84562SOL    HW255526  13.466   2.516  14.626
84563SOL     OW55527   8.970  10.088   5.005
84563SOL    HW155528   9.036  10.139   5.051
84563SOL    HW255529   8.977  10.116   4.913
84564SOL     OW55530   0.280   9.028   7.901
84564SOL    HW155531   0.288   9.087   7.827
84564SOL    HW255532   0.269   9.086   7.977
84565SOL     OW55533   7.701   3.417  10.945
84565SOL    HW155534   7.683   3.423  10.851
84565SOL    HW255535   7.797   3.414  10.951
84566SOL     OW55536   3.514   8.031   4.501
84566SOL    HW155537   3.590   8.055   4.555
84566SOL    HW255538   3.447   8.005   4.564
84567SOL     OW55539   4.415  12.579   6.723
84567SOL    HW155540   4.322  12.561   6.731
84567SOL    HW255541   4.421  12.645   6.654
84568SOL     OW55542  12.184   9.650  13.346
84568SOL    HW155543  12.193   9.664  13.440
84568SOL    HW255544  12.122   9.578  13.338
84569SOL     OW55545   8.525   9.798   4.219
84569SOL    HW155546   8.498   9.717   4.262
84569SOL    HW255547   8.569   9.848   4.287
84570SOL     OW55548   3.295  13.657   1.596
84570SOL    HW155549   3.229  13.616   1.540
84570SOL    HW255550   3.378  13.640   1.553
84571SOL     OW55551  11.459   3.955  13.325
84571SOL    HW155552  11.526   3.934  13.261
84571SOL    HW255553  11.385   3.986  13.273
84572SOL     OW55554   8.849   5.436   4.193
84572SOL    HW155555   8.800   5.389   4.260
84572SOL    HW255556   8.789   5.445   4.120
84573SOL     OW55557   9.182   5.289   5.274
84573SOL    HW155558   9.095   5.251   5.271
84573SOL    HW255559   9.220   5.270   5.187
84574SOL     OW55560   7.252   4.416   0.078
84574SOL    HW155561   7.250   4.330   0.121
84574SOL    HW255562   7.248   4.396  14.864
84575SOL     OW55563   9.062  11.720  12.508
84575SOL    HW155564   9.097  11.723  12.597
84575SOL    HW255565   9.085  11.804  12.470
84576SOL     OW55566   8.369   7.326   0.286
84576SOL    HW155567   8.288   7.372   0.306
84576SOL    HW255568   8.360   7.300   0.194
84577SOL     OW55569   6.299   5.041   4.604
84577SOL    HW155570   6.363   5.109   4.625
84577SOL    HW255571   6.333   4.999   4.526
84578SOL     OW55572  13.698   0.066   5.602
84578SOL    HW155573  13.618   0.017   5.582
84578SOL    HW255574  13.752   0.057   5.523
84579SOL     OW55575   1.543   9.168   6.856
84579SOL    HW155576   1.598   9.224   6.801
84579SOL    HW255577   1.453   9.191   6.834
84580SOL     OW55578   6.991   5.781   9.709
84580SOL    HW155579   7.079   5.773   9.744
84580SOL    HW255580   7.003   5.820   9.622
84581SOL     OW55581  11.979   9.794   6.458
84581SOL    HW155582  11.900   9.801   6.511
84581SOL    HW255583  12.029   9.722   6.497
84582SOL     OW55584   8.116   6.823   4.579
84582SOL    HW155585   8.188   6.825   4.642
84582SOL    HW255586   8.039   6.803   4.632
84583SOL     OW55587   1.581   2.153  11.900
84583SOL    HW155588   1.645   2.197  11.844
84583SOL    HW255589   1.593   2.060  11.880
84584SOL     OW55590   4.229   1.388   5.689
84584SOL    HW155591   4.201   1.469   5.731
84584SOL    HW255592   4.165   1.374   5.619
84585SOL     OW55593   5.823   6.145   7.390
84585SOL    HW155594   5.889   6.080   7.416
84585SOL    HW255595   5.740   6.104   7.411
84586SOL     OW55596   2.327   0.157   4.626
84586SOL    HW155597   2.318   0.191   4.715
84586SOL    HW255598   2.281   0.073   4.627
84587SOL     OW55599   8.141   2.954   8.846
84587SOL    HW155600   8.118   2.879   8.900
84587SOL    HW255601   8.179   2.916   8.766
84588SOL     OW55602  10.009  14.529  11.380
84588SOL    HW155603  10.035  14.469  11.310
84588SOL    HW255604  10.064  14.504  11.454
84589SOL     OW55605   7.517  13.827   2.848
84589SOL    HW155606   7.446  13.811   2.786
84589SOL    HW255607   7.493  13.909   2.891
84590SOL     OW55608  11.745  12.465  14.574
84590SOL    HW155609  11.818  12.517  14.607
84590SOL    HW255610  11.671  12.488  14.630
84591SOL     OW55611   9.540  10.266   0.245
84591SOL    HW155612   9.595  10.342   0.264
84591SOL    HW255613   9.482  10.295   0.175
84592SOL     OW55614   9.784   1.257   8.764
84592SOL    HW155615   9.770   1.278   8.857
84592SOL    HW255616   9.709   1.202   8.741
84593SOL     OW55617   8.162   6.745   2.384
84593SOL    HW155618   8.187   6.809   2.451
84593SOL    HW255619   8.130   6.799   2.311
84594SOL     OW55620  12.787   7.184   0.137
84594SOL    HW155621  12.781   7.273   0.100
84594SOL    HW255622  12.714   7.180   0.199
84595SOL     OW55623   6.243   8.091  10.550
84595SOL    HW155624   6.338   8.103  10.544
84595SOL    HW255625   6.223   8.027  10.482
84596SOL     OW55626   5.385   4.500   1.098
84596SOL    HW155627   5.358   4.457   1.017
84596SOL    HW255628   5.324   4.573   1.107
84597SOL     OW55629   3.001   4.306   2.812
84597SOL    HW155630   3.044   4.253   2.745
84597SOL    HW255631   2.919   4.261   2.830
84598SOL     OW55632   9.491   5.423   0.889
84598SOL    HW155633   9.429   5.451   0.821
84598SOL    HW255634   9.440   5.364   0.945
84599SOL     OW55635   5.653   9.086   0.162
84599SOL    HW155636   5.575   9.112   0.212
84599SOL    HW255637   5.659   9.152   0.093
84600SOL     OW55638   9.766   3.116   5.907
84600SOL    HW155639   9.800   3.178   5.971
84600SOL    HW255640   9.842   3.064   5.880
84601SOL     OW55641   3.505   6.113   3.161
84601SOL    HW155642   3.439   6.061   3.205
84601SOL    HW255643   3.455   6.181   3.115
84602SOL     OW55644   0.534   8.086   3.954
84602SOL    HW155645   0.554   8.176   3.980
84602SOL    HW255646   0.613   8.036   3.976
84603SOL     OW55647  13.802  10.986   1.622
84603SOL    HW155648  13.719  11.002   1.667
84603SOL    HW255649  13.777  10.965   1.532
84604SOL     OW55650  10.858   5.506  12.050
84604SOL    HW155651  10.802   5.580  12.074
84604SOL    HW255652  10.946   5.532  12.077
84605SOL     OW55653  10.332   0.417   3.405
84605SOL    HW155654  10.238   0.408   3.418
84605SOL    HW255655  10.348   0.511   3.410
84606SOL     OW55656   9.365   4.969   1.169
84606SOL    HW155657   9.408   5.052   1.145
84606SOL    HW255658   9.292   4.996   1.224
84607SOL     OW55659   3.519   3.425  13.423
84607SOL    HW155660   3.438   3.465  13.453
84607SOL    HW255661   3.560   3.390  13.502
84608SOL     OW55662   7.998   0.703   1.356
84608SOL    HW155663   8.091   0.720   1.346
84608SOL    HW255664   7.956   0.759   1.290
84609SOL     OW55665   6.048   6.035   3.235
84609SOL    HW155666   6.019   5.965   3.176
84609SOL    HW255667   5.973   6.095   3.239
84610SOL     OW55668  10.101  12.989   3.375
84610SOL    HW155669  10.176  13.045   3.393
84610SOL    HW255670  10.136  12.916   3.323
84611SOL     OW55671   2.449  10.034   4.751
84611SOL    HW155672   2.394   9.964   4.785
84611SOL    HW255673   2.475  10.005   4.664
84612SOL     OW55674  14.606  11.853   6.693
84612SOL    HW155675  14.527  11.907   6.701
84612SOL    HW255676  14.596  11.787   6.762
84613SOL     OW55677   6.822   4.744  13.750
84613SOL    HW155678   6.799   4.832  13.719
84613SOL    HW255679   6.740   4.694  13.742
84614SOL     OW55680  13.091   3.479   5.609
84614SOL    HW155681  13.092   3.561   5.660
84614SOL    HW255682  13.020   3.428   5.648
84615SOL     OW55683  13.384   1.970   3.135
84615SOL    HW155684  13.443   1.958   3.209
84615SOL    HW255685  13.426   2.037   3.081
84616SOL     OW55686  13.295   1.579  12.574
84616SOL    HW155687  13.250   1.570  12.489
84616SOL    HW255688  13.387   1.563  12.554
84617SOL     OW55689  11.713   5.409   8.626
84617SOL    HW155690  11.707   5.492   8.675
84617SOL    HW255691  11.659   5.423   8.549
84618SOL     OW55692  13.625  10.626  12.175
84618SOL    HW155693  13.712  10.659  12.198
84618SOL    HW255694  13.615  10.647  12.082
84619SOL     OW55695   2.530   1.055  10.459
84619SOL    HW155696   2.605   1.010  10.497
84619SOL    HW255697   2.557   1.147  10.455
84620SOL     OW55698   3.378   4.367  10.507
84620SOL    HW155699   3.303   4.423  10.487
84620SOL    HW255700   3.441   4.426  10.550
84621SOL     OW55701  10.263  11.994   8.953
84621SOL    HW155702  10.255  11.899   8.962
84621SOL    HW255703  10.321  12.006   8.878
84622SOL     OW55704  10.500  14.110   3.725
84622SOL    HW155705  10.521  14.125   3.817
84622SOL    HW255706  10.494  14.015   3.717
84623SOL     OW55707  12.046   9.041  13.262
84623SOL    HW155708  12.041   8.960  13.312
84623SOL    HW255709  11.994   9.023  13.183
84624SOL     OW55710   6.218   8.115   1.172
84624SOL    HW155711   6.211   8.027   1.133
84624SOL    HW255712   6.214   8.174   1.097
84625SOL     OW55713   4.655   5.210  13.443
84625SOL    HW155714   4.634   5.246  13.357
84625SOL    HW255715   4.592   5.252  13.502
84626SOL     OW55716   3.076  11.950   0.612
84626SOL    HW155717   3.041  11.974   0.698
84626SOL    HW255718   3.064  11.855   0.607
84627SOL     OW55719   0.937   6.445   4.524
84627SOL    HW155720   0.869   6.513   4.523
84627SOL    HW255721   0.889   6.363   4.528
84628SOL     OW55722  13.400   8.179   4.208
84628SOL    HW155723  13.377   8.249   4.270
84628SOL    HW255724  13.494   8.189   4.194
84629SOL     OW55725   4.202   5.444  13.247
84629SOL    HW155726   4.264   5.516  13.248
84629SOL    HW255727   4.256   5.366  13.236
84630SOL     OW55728   7.990   9.955   9.005
84630SOL    HW155729   7.933  10.005   9.063
84630SOL    HW255730   7.979   9.865   9.033
84631SOL     OW55731   6.289   3.272  12.195
84631SOL    HW155732   6.294   3.247  12.287
84631SOL    HW255733   6.315   3.193  12.147
84632SOL     OW55734  12.843   5.524   7.189
84632SOL    HW155735  12.777   5.455   7.196
84632SOL    HW255736  12.927   5.478   7.194
84633SOL     OW55737   4.924   3.042   9.848
84633SOL    HW155738   4.989   2.985   9.807
84633SOL    HW255739   4.840   3.008   9.817
84634SOL     OW55740   5.572  13.729  11.895
84634SOL    HW155741   5.651  13.778  11.914
84634SOL    HW255742   5.506  13.796  11.876
84635SOL     OW55743   2.664   4.937   4.103
84635SOL    HW155744   2.598   4.875   4.075
84635SOL    HW255745   2.686   4.911   4.192
84636SOL     OW55746  12.386   2.968  14.098
84636SOL    HW155747  12.366   2.937  14.186
84636SOL    HW255748  12.472   3.010  14.107
84637SOL     OW55749   6.913   6.597   9.458
84637SOL    HW155750   6.849   6.646   9.407
84637SOL    HW255751   6.931   6.652   9.534
84638SOL     OW55752   9.477   5.952  11.078
84638SOL    HW155753   9.448   5.884  11.017
84638SOL    HW255754   9.439   6.033  11.044
84639SOL     OW55755   1.215   7.170  11.303
84639SOL    HW155756   1.287   7.119  11.267
84639SOL    HW255757   1.196   7.235  11.236
84640SOL     OW55758   6.314  10.299   4.773
84640SOL    HW155759   6.399  10.258   4.790
84640SOL    HW255760   6.283  10.258   4.692
84641SOL     OW55761   3.273   1.973  13.021
84641SOL    HW155762   3.235   1.987  13.108
84641SOL    HW255763   3.303   2.060  12.994
84642SOL     OW55764  11.984   5.138   5.570
84642SOL    HW155765  12.057   5.153   5.629
84642SOL    HW255766  11.989   5.209   5.506
84643SOL     OW55767   3.650  14.125  12.231
84643SOL    HW155768   3.560  14.155  12.244
84643SOL    HW255769   3.641  14.033  12.206
84644SOL     OW55770   1.514   5.487   4.138
84644SOL    HW155771   1.438   5.452   4.090
84644SOL    HW255772   1.570   5.411   4.153
84645SOL     OW55773   9.171   7.775   7.147
84645SOL    HW155774   9.192   7.800   7.057
84645SOL    HW255775   9.256   7.756   7.187
84646SOL     OW55776  14.110  14.611   7.002
84646SOL    HW155777  14.134  14.690   7.051
84646SOL    HW255778  14.030  14.635   6.956
84647SOL     OW55779   7.687  13.942  12.168
84647SOL    HW155780   7.729  14.021  12.203
84647SOL    HW255781   7.688  13.954  12.073
84648SOL     OW55782  12.855   0.726   3.155
84648SOL    HW155783  12.773   0.747   3.200
84648SOL    HW255784  12.909   0.804   3.165
84649SOL     OW55785   9.252   1.700   4.235
84649SOL    HW155786   9.189   1.755   4.188
84649SOL    HW255787   9.260   1.742   4.321
84650SOL     OW55788   4.458   1.335   9.073
84650SOL    HW155789   4.441   1.429   9.063
84650SOL    HW255790   4.552   1.330   9.094
84651SOL     OW55791  10.270   6.049   9.462
84651SOL    HW155792  10.179   6.078   9.456
84651SOL    HW255793  10.309   6.077   9.380
84652SOL     OW55794   2.697   3.504   6.875
84652SOL    HW155795   2.622   3.468   6.829
84652SOL    HW255796   2.736   3.566   6.812
84653SOL     OW55797   2.768   7.057   9.627
84653SOL    HW155798   2.820   6.987   9.585
84653SOL    HW255799   2.791   7.136   9.577
84654SOL     OW55800   5.136   7.369  14.409
84654SOL    HW155801   5.201   7.392  14.341
84654SOL    HW255802   5.187   7.321  14.474
84655SOL     OW55803   2.561   3.472   8.982
84655SOL    HW155804   2.543   3.566   8.984
84655SOL    HW255805   2.657   3.466   8.980
84656SOL     OW55806  12.794  13.509   6.944
84656SOL    HW155807  12.884  13.535   6.927
84656SOL    HW255808  12.800  13.446   7.016
84657SOL     OW55809   9.233  12.015   6.788
84657SOL    HW155810   9.293  11.953   6.830
84657SOL    HW255811   9.172  12.040   6.858
84658SOL     OW55812  11.522   0.181   7.068
84658SOL    HW155813  11.544   0.274   7.065
84658SOL    HW255814  11.478   0.165   6.984
84659SOL     OW55815   2.506  13.862   3.417
84659SOL    HW155816   2.575  13.819   3.467
84659SOL    HW255817   2.525  13.840   3.326
84660SOL     OW55818   8.666   9.105   9.017
84660SOL    HW155819   8.758   9.081   9.012
84660SOL    HW255820   8.662   9.195   8.985
84661SOL     OW55821  13.623  12.297   1.953
84661SOL    HW155822  13.543  12.297   2.005
84661SOL    HW255823  13.643  12.389   1.939
84662SOL     OW55824  10.541   2.361  10.741
84662SOL    HW155825  10.600   2.395  10.808
84662SOL    HW255826  10.524   2.271  10.768
84663SOL     OW55827   5.952  14.221   1.079
84663SOL    HW155828   6.022  14.285   1.069
84663SOL    HW255829   5.891  14.241   1.007
84664SOL     OW55830  14.578  13.289   5.553
84664SOL    HW155831  14.541  13.213   5.598
84664SOL    HW255832  14.627  13.336   5.621
84665SOL     OW55833   4.335   7.599   3.194
84665SOL    HW155834   4.284   7.538   3.248
84665SOL    HW255835   4.271   7.662   3.161
84666SOL     OW55836  14.853   4.898   4.629
84666SOL    HW155837   0.044   4.909   4.565
84666SOL    HW255838  14.850   4.980   4.678
84667SOL     OW55839  10.002   8.414  10.830
84667SOL    HW155840   9.919   8.457  10.810
84667SOL    HW255841  10.069   8.472  10.793
84668SOL     OW55842   2.760   7.368   0.717
84668SOL    HW155843   2.854   7.384   0.707
84668SOL    HW255844   2.727   7.446   0.762
84669SOL     OW55845   4.256   8.110   5.430
84669SOL    HW155846   4.250   8.188   5.375
84669SOL    HW255847   4.175   8.111   5.481
84670SOL     OW55848   0.552  11.636   1.739
84670SOL    HW155849   0.641  11.640   1.704
84670SOL    HW255850   0.507  11.574   1.682
84671SOL     OW55851   1.185   6.453  11.498
84671SOL    HW155852   1.247   6.383  11.521
84671SOL    HW255853   1.102   6.424  11.535
84672SOL     OW55854   4.176   9.754  14.131
84672SOL    HW155855   4.081   9.755  14.117
84672SOL    HW255856   4.212   9.796  14.053
84673SOL     OW55857   6.179  13.955   2.383
84673SOL    HW155858   6.176  13.942   2.478
84673SOL    HW255859   6.195  14.049   2.373
84674SOL     OW55860   5.775  12.750   1.948
84674SOL    HW155861   5.772  12.738   1.853
84674SOL    HW255862   5.707  12.816   1.967
84675SOL     OW55863   0.142  14.051   7.656
84675SOL    HW155864   0.118  14.136   7.619
84675SOL    HW255865   0.237  14.048   7.649
84676SOL     OW55866   9.315   9.063   7.853
84676SOL    HW155867   9.303   8.974   7.820
84676SOL    HW255868   9.253   9.116   7.803
84677SOL     OW55869   8.839  14.010   3.184
84677SOL    HW155870   8.932  13.992   3.173
84677SOL    HW255871   8.823  14.087   3.129
84678SOL     OW55872   5.940  13.253   1.218
84678SOL    HW155873   5.948  13.347   1.236
84678SOL    HW255874   6.018  13.215   1.259
84679SOL     OW55875   6.105   7.925   6.184
84679SOL    HW155876   6.137   7.927   6.094
84679SOL    HW255877   6.017   7.888   6.177
84680SOL     OW55878   6.157  12.451  12.064
84680SOL    HW155879   6.105  12.475  12.141
84680SOL    HW255880   6.114  12.497  11.992
84681SOL     OW55881   7.678   7.704   8.706
84681SOL    HW155882   7.621   7.636   8.670
84681SOL    HW255883   7.655   7.709   8.799
84682SOL     OW55884   5.158  10.662   5.117
84682SOL    HW155885   5.243  10.619   5.130
84682SOL    HW255886   5.165  10.702   5.030
84683SOL     OW55887  14.828   0.356   0.569
84683SOL    HW155888  14.878   0.434   0.592
84683SOL    HW255889  14.822   0.359   0.473
84684SOL     OW55890   3.448   6.422   0.597
84684SOL    HW155891   3.427   6.377   0.678
84684SOL    HW255892   3.524   6.477   0.619
84685SOL     OW55893   7.140   6.804   6.039
84685SOL    HW155894   7.073   6.759   5.988
84685SOL    HW255895   7.109   6.798   6.130
84686SOL     OW55896   1.055   0.824   9.270
84686SOL    HW155897   1.054   0.772   9.350
84686SOL    HW255898   0.994   0.779   9.211
84687SOL     OW55899   7.900   3.390   9.637
84687SOL    HW155900   7.954   3.469   9.637
84687SOL    HW255901   7.862   3.387   9.725
84688SOL     OW55902   5.857  13.133  14.809
84688SOL    HW155903   5.800  13.059  14.831
84688SOL    HW255904   5.803  13.188  14.751
84689SOL     OW55905   2.568   0.280   0.246
84689SOL    HW155906   2.656   0.243   0.232
84689SOL    HW255907   2.510   0.221   0.198
84690SOL     OW55908  10.691   2.161   6.749
84690SOL    HW155909  10.650   2.099   6.688
84690SOL    HW255910  10.784   2.140   6.745
84691SOL     OW55911   1.134   4.041   8.219
84691SOL    HW155912   1.202   3.981   8.187
84691SOL    HW255913   1.181   4.121   8.240
84692SOL     OW55914  10.177   3.844   5.867
84692SOL    HW155915  10.102   3.785   5.869
84692SOL    HW255916  10.140   3.931   5.850
84693SOL     OW55917  11.583  13.295   2.515
84693SOL    HW155918  11.518  13.249   2.461
84693SOL    HW255919  11.532  13.340   2.582
84694SOL     OW55920   4.949   7.509  11.383
84694SOL    HW155921   5.004   7.557  11.321
84694SOL    HW255922   4.910   7.577  11.438
84695SOL     OW55923  10.596   9.149   7.317
84695SOL    HW155924  10.545   9.229   7.329
84695SOL    HW255925  10.647   9.164   7.238
84696SOL     OW55926  11.513  10.280  12.162
84696SOL    HW155927  11.522  10.372  12.136
84696SOL    HW255928  11.513  10.283  12.257
84697SOL     OW55929  14.609   6.916   2.459
84697SOL    HW155930  14.603   6.821   2.465
84697SOL    HW255931  14.527   6.948   2.497
84698SOL     OW55932   7.556  14.385  11.763
84698SOL    HW155933   7.622  14.391  11.832
84698SOL    HW255934   7.568  14.465  11.711
84699SOL     OW55935  12.974   2.058  12.884
84699SOL    HW155936  12.986   2.082  12.976
84699SOL    HW255937  12.972   1.962  12.884
84700SOL     OW55938   2.670  14.796  14.214
84700SOL    HW155939   2.688   0.005  14.247
84700SOL    HW255940   2.661  14.808  14.119
84701SOL     OW55941   2.530   9.870  11.086
84701SOL    HW155942   2.616   9.899  11.055
84701SOL    HW255943   2.549   9.789  11.134
84702SOL     OW55944   9.747   1.330   4.023
84702SOL    HW155945   9.806   1.324   4.099
84702SOL    HW255946   9.682   1.262   4.037
84703SOL     OW55947   9.777   5.402   4.817
84703SOL    HW155948   9.694   5.416   4.863
84703SOL    HW255949   9.844   5.433   4.878
84704SOL     OW55950   3.259   2.080  13.729
84704SOL    HW155951   3.256   2.174  13.743
84704SOL    HW255952   3.193   2.063  13.662
84705SOL     OW55953   0.445   5.329  13.610
84705SOL    HW155954   0.434   5.408  13.557
84705SOL    HW255955   0.358   5.290  13.613
84706SOL     OW55956  12.619  14.316  11.620
84706SOL    HW155957  12.557  14.378  11.581
84706SOL    HW255958  12.629  14.346  11.711
84707SOL     OW55959   3.077   0.181  10.284
84707SOL    HW155960   2.985   0.183  10.258
84707SOL    HW255961   3.105   0.091  10.263
84708SOL     OW55962   2.028  12.219   7.270
84708SOL    HW155963   2.046  12.127   7.285
84708SOL    HW255964   2.038  12.260   7.356
84709SOL     OW55965   3.920  13.810  13.363
84709SOL    HW155966   3.935  13.857  13.445
84709SOL    HW255967   3.978  13.734  13.367
84710SOL     OW55968   9.169   4.070   3.759
84710SOL    HW155969   9.218   4.086   3.840
84710SOL    HW255970   9.221   4.114   3.691
84711SOL     OW55971   2.183  10.800   8.895
84711SOL    HW155972   2.168  10.872   8.955
84711SOL    HW255973   2.277  10.800   8.879
84712SOL     OW55974   5.366   5.753   5.266
84712SOL    HW155975   5.384   5.737   5.358
84712SOL    HW255976   5.270   5.756   5.261
84713SOL     OW55977  10.041   0.853  11.210
84713SOL    HW155978  10.129   0.827  11.238
84713SOL    HW255979  10.037   0.947  11.226
84714SOL     OW55980   8.821  14.349   9.173
84714SOL    HW155981   8.841  14.268   9.221
84714SOL    HW255982   8.819  14.323   9.081
84715SOL     OW55983  13.674   4.113  12.362
84715SOL    HW155984  13.613   4.115  12.435
84715SOL    HW255985  13.720   4.029  12.370
84716SOL     OW55986   0.387  10.659   5.882
84716SOL    HW155987   0.468  10.692   5.844
84716SOL    HW255988   0.363  10.723   5.949
84717SOL     OW55989  12.443  10.605   7.640
84717SOL    HW155990  12.459  10.691   7.602
84717SOL    HW255991  12.429  10.547   7.565
84718SOL     OW55992   1.515   7.170  13.572
84718SOL    HW155993   1.498   7.236  13.505
84718SOL    HW255994   1.450   7.101  13.556
84719SOL     OW55995   2.872  10.224  12.684
84719SOL    HW155996   2.780  10.214  12.659
84719SOL    HW255997   2.917  10.159  12.630
84720SOL     OW55998   5.466   4.012   6.152
84720SOL    HW155999   5.544   3.957   6.150
84720SOL    HW256000   5.399   3.959   6.108
84721SOL     OW56001   5.111  12.978  11.831
84721SOL    HW156002   5.145  12.982  11.920
84721SOL    HW256003   5.097  13.069  11.806
84722SOL     OW56004   3.977  12.731   1.469
84722SOL    HW156005   3.900  12.787   1.481
84722SOL    HW256006   3.994  12.732   1.375
84723SOL     OW56007   9.298   6.037  14.332
84723SOL    HW156008   9.273   6.048  14.240
84723SOL    HW256009   9.337   5.950  14.336
84724SOL     OW56010   8.475   4.317   0.872
84724SOL    HW156011   8.427   4.378   0.927
84724SOL    HW256012   8.479   4.360   0.786
84725SOL     OW56013   5.415   4.794  14.720
84725SOL    HW156014   5.331   4.767  14.682
84725SOL    HW256015   5.460   4.711  14.740
84726SOL     OW56016  14.440  14.631   0.715
84726SOL    HW156017  14.381  14.679   0.772
84726SOL    HW256018  14.504  14.696   0.686
84727SOL     OW56019   7.748   9.865   0.600
84727SOL    HW156020   7.695   9.852   0.679
84727SOL    HW256021   7.699   9.821   0.531
84728SOL     OW56022  12.652   1.885   8.069
84728SOL    HW156023  12.627   1.977   8.077
84728SOL    HW256024  12.650   1.853   8.159
84729SOL     OW56025  13.264   2.964   7.329
84729SOL    HW156026  13.231   2.998   7.412
84729SOL    HW256027  13.359   2.962   7.341
84730SOL     OW56028  13.042   0.664   2.793
84730SOL    HW156029  13.045   0.684   2.887
84730SOL    HW256030  12.948   0.655   2.774
84731SOL     OW56031   1.507   0.112   9.326
84731SOL    HW156032   1.559   0.184   9.361
84731SOL    HW256033   1.437   0.154   9.276
84732SOL     OW56034   2.460   4.680  13.942
84732SOL    HW156035   2.404   4.604  13.957
84732SOL    HW256036   2.399   4.752  13.923
84733SOL     OW56037  10.199  10.517  14.833
84733SOL    HW156038  10.133  10.464  14.877
84733SOL    HW256039  10.243  10.456  14.774
84734SOL     OW56040   5.839   8.261  12.226
84734SOL    HW156041   5.804   8.301  12.147
84734SOL    HW256042   5.763   8.219  12.267
84735SOL     OW56043   4.451   4.400  10.890
84735SOL    HW156044   4.534   4.443  10.912
84735SOL    HW256045   4.416   4.372  10.975
84736SOL     OW56046   4.490   0.671   9.228
84736SOL    HW156047   4.584   0.652   9.231
84736SOL    HW256048   4.475   0.730   9.302
84737SOL     OW56049   1.162  14.597   2.602
84737SOL    HW156050   1.212  14.640   2.671
84737SOL    HW256051   1.187  14.504   2.609
84738SOL     OW56052   9.108  10.048  14.663
84738SOL    HW156053   9.014  10.065  14.663
84738SOL    HW256054   9.139  10.083  14.748
84739SOL     OW56055   3.570   0.313   2.937
84739SOL    HW156056   3.535   0.254   3.003
84739SOL    HW256057   3.628   0.258   2.884
84740SOL     OW56058  13.189  10.097  11.304
84740SOL    HW156059  13.105  10.062  11.274
84740SOL    HW256060  13.202  10.176  11.253
84741SOL     OW56061   6.340   3.119  14.349
84741SOL    HW156062   6.254   3.137  14.386
84741SOL    HW256063   6.334   3.030  14.316
84742SOL     OW56064   6.130  10.855   1.409
84742SOL    HW156065   6.164  10.853   1.498
84742SOL    HW256066   6.037  10.833   1.418
84743SOL     OW56067  12.542   8.564   5.495
84743SOL    HW156068  12.635   8.539   5.498
84743SOL    HW256069  12.541   8.644   5.442
84744SOL     OW56070   1.195   0.527  11.323
84744SOL    HW156071   1.260   0.523  11.253
84744SOL    HW256072   1.248   0.525  11.404
84745SOL     OW56073   4.716   4.385  13.000
84745SOL    HW156074   4.697   4.400  13.093
84745SOL    HW256075   4.799   4.338  13.000
84746SOL     OW56076   5.337   2.360   3.611
84746SOL    HW156077   5.333   2.296   3.540
84746SOL    HW256078   5.247   2.368   3.642
84747SOL     OW56079   3.212  14.783   0.390
84747SOL    HW156080   3.176  14.743   0.470
84747SOL    HW256081   3.306  14.765   0.394
84748SOL     OW56082   8.385   4.702  12.596
84748SOL    HW156083   8.323   4.727  12.528
84748SOL    HW256084   8.403   4.783  12.643
84749SOL     OW56085  10.312   5.055  10.630
84749SOL    HW156086  10.374   4.999  10.585
84749SOL    HW256087  10.253   4.995  10.675
84750SOL     OW56088   1.022   9.634  12.879
84750SOL    HW156089   1.108   9.657  12.842
84750SOL    HW256090   1.022   9.538  12.880
84751SOL     OW56091   2.001  13.258   2.111
84751SOL    HW156092   1.912  13.272   2.079
84751SOL    HW256093   2.057  13.287   2.038
84752SOL     OW56094  13.044  11.085   9.581
84752SOL    HW156095  13.055  11.173   9.617
84752SOL    HW256096  12.949  11.075   9.572
84753SOL     OW56097  14.006   2.974   4.191
84753SOL    HW156098  13.964   3.038   4.133
84753SOL    HW256099  13.968   2.992   4.277
84754SOL     OW56100  10.175  13.544  13.973
84754SOL    HW156101  10.229  13.513  13.900
84754SOL    HW256102  10.096  13.491  13.968
84755SOL     OW56103  11.569  12.958   9.234
84755SOL    HW156104  11.604  12.923   9.152
84755SOL    HW256105  11.489  13.004   9.208
84756SOL     OW56106   7.792   1.289   7.797
84756SOL    HW156107   7.843   1.368   7.776
84756SOL    HW256108   7.734   1.316   7.868
84757SOL     OW56109  12.144  10.402  13.620
84757SOL    HW156110  12.125  10.329  13.679
84757SOL    HW256111  12.070  10.404  13.559
84758SOL     OW56112   2.653   4.012  10.371
84758SOL    HW156113   2.655   3.966  10.287
84758SOL    HW256114   2.672   4.103  10.348
84759SOL     OW56115  11.947   7.573   6.276
84759SOL    HW156116  12.001   7.530   6.343
84759SOL    HW256117  11.865   7.524   6.277
84760SOL     OW56118   4.585  14.026  12.705
84760SOL    HW156119   4.636  13.962  12.755
84760SOL    HW256120   4.501  13.983  12.689
84761SOL     OW56121   1.402   3.402   2.244
84761SOL    HW156122   1.400   3.456   2.165
84761SOL    HW256123   1.495   3.397   2.267
84762SOL     OW56124   5.621   6.836   1.393
84762SOL    HW156125   5.686   6.865   1.328
84762SOL    HW256126   5.637   6.892   1.469
84763SOL     OW56127   2.634   9.189   7.628
84763SOL    HW156128   2.566   9.122   7.636
84763SOL    HW256129   2.614   9.233   7.545
84764SOL     OW56130   1.762   4.212   1.627
84764SOL    HW156131   1.732   4.155   1.697
84764SOL    HW256132   1.724   4.174   1.547
84765SOL     OW56133  14.815  13.128  11.384
84765SOL    HW156134   0.024  13.104  11.411
84765SOL    HW256135  14.808  13.221  11.407
84766SOL     OW56136  14.033  13.621   6.416
84766SOL    HW156137  14.028  13.682   6.342
84766SOL    HW256138  14.123  13.588   6.414
84767SOL     OW56139   4.431  10.287   4.889
84767SOL    HW156140   4.386  10.204   4.904
84767SOL    HW256141   4.521  10.263   4.870
84768SOL     OW56142  10.085   9.620   8.925
84768SOL    HW156143  10.146   9.596   8.994
84768SOL    HW256144  10.074   9.540   8.873
84769SOL     OW56145  14.066   9.576   7.987
84769SOL    HW156146  14.029   9.601   8.072
84769SOL    HW256147  14.101   9.488   8.001
84770SOL     OW56148   7.182   1.406  13.500
84770SOL    HW156149   7.160   1.389  13.409
84770SOL    HW256150   7.260   1.462  13.497
84771SOL     OW56151   3.648  10.778  14.532
84771SOL    HW156152   3.681  10.697  14.569
84771SOL    HW256153   3.683  10.847  14.588
84772SOL     OW56154   4.855  12.397   6.614
84772SOL    HW156155   4.848  12.409   6.709
84772SOL    HW256156   4.845  12.302   6.602
84773SOL     OW56157   0.981  12.309  11.765
84773SOL    HW156158   0.932  12.232  11.793
84773SOL    HW256159   1.005  12.353  11.847
84774SOL     OW56160   5.213   4.719  10.468
84774SOL    HW156161   5.272   4.754  10.536
84774SOL    HW256162   5.173   4.796  10.429
84775SOL     OW56163   1.259   6.073   5.332
84775SOL    HW156164   1.268   6.148   5.390
84775SOL    HW256165   1.301   6.101   5.250
84776SOL     OW56166   0.358   1.088   6.819
84776SOL    HW156167   0.396   1.003   6.799
84776SOL    HW256168   0.354   1.133   6.734
84777SOL     OW56169   9.697   9.629   1.037
84777SOL    HW156170   9.680   9.717   1.003
84777SOL    HW256171   9.690   9.573   0.960
84778SOL     OW56172   3.188   4.190  10.716
84778SOL    HW156173   3.144   4.273  10.696
84778SOL    HW256174   3.124   4.123  10.690
84779SOL     OW56175   8.135   9.433   4.254
84779SOL    HW156176   8.161   9.343   4.231
84779SOL    HW256177   8.218   9.479   4.264
84780SOL     OW56178   6.430   6.416   4.513
84780SOL    HW156179   6.419   6.491   4.455
84780SOL    HW256180   6.482   6.449   4.586
84781SOL     OW56181   3.582  11.595   2.211
84781SOL    HW156182   3.522  11.547   2.268
84781SOL    HW256183   3.535  11.603   2.128
84782SOL     OW56184  14.524  12.054   3.990
84782SOL    HW156185  14.556  12.134   4.032
84782SOL    HW256186  14.475  12.009   4.059
84783SOL     OW56187   9.660  12.682   9.714
84783SOL    HW156188   9.648  12.776   9.725
84783SOL    HW256189   9.731  12.659   9.773
84784SOL     OW56190   2.224  12.811   8.870
84784SOL    HW156191   2.298  12.773   8.823
84784SOL    HW256192   2.149  12.760   8.841
84785SOL     OW56193   3.270  10.038   7.867
84785SOL    HW156194   3.326  10.116   7.877
84785SOL    HW256195   3.292  10.004   7.781
84786SOL     OW56196  11.963   5.153   8.558
84786SOL    HW156197  11.969   5.215   8.630
84786SOL    HW256198  11.913   5.079   8.594
84787SOL     OW56199   3.900   4.495  11.748
84787SOL    HW156200   3.847   4.475  11.826
84787SOL    HW256201   3.930   4.585  11.762
84788SOL     OW56202   5.364   5.947  12.730
84788SOL    HW156203   5.328   5.858  12.739
84788SOL    HW256204   5.425   5.941  12.657
84789SOL     OW56205   8.601   5.763   5.068
84789SOL    HW156206   8.643   5.745   5.152
84789SOL    HW256207   8.557   5.847   5.081
84790SOL     OW56208   5.074   2.172   0.485
84790SOL    HW156209   5.156   2.208   0.451
84790SOL    HW256210   5.079   2.079   0.465
84791SOL     OW56211  12.414   1.089  10.564
84791SOL    HW156212  12.373   1.030  10.500
84791SOL    HW256213  12.356   1.165  10.567
84792SOL     OW56214  14.779   4.253  13.344
84792SOL    HW156215  14.712   4.235  13.278
84792SOL    HW256216  14.749   4.207  13.422
84793SOL     OW56217  11.659  11.904   7.928
84793SOL    HW156218  11.644  11.933   8.018
84793SOL    HW256219  11.603  11.827   7.918
84794SOL     OW56220   1.451   2.330   8.107
84794SOL    HW156221   1.413   2.417   8.112
84794SOL    HW256222   1.427   2.299   8.019
84795SOL     OW56223   8.196   3.395   4.323
84795SOL    HW156224   8.116   3.445   4.342
84795SOL    HW256225   8.196   3.384   4.228
84796SOL     OW56226   7.866   4.094  14.110
84796SOL    HW156227   7.833   4.006  14.132
84796SOL    HW256228   7.800   4.130  14.051
84797SOL     OW56229   7.060   4.334   8.774
84797SOL    HW156230   7.085   4.361   8.862
84797SOL    HW256231   7.043   4.415   8.727
84798SOL     OW56232  10.035  13.995  12.161
84798SOL    HW156233  10.086  13.922  12.126
84798SOL    HW256234  10.062  14.001  12.252
84799SOL     OW56235  10.006   0.740   3.461
84799SOL    HW156236   9.987   0.832   3.440
84799SOL    HW256237   9.925   0.706   3.497
84800SOL     OW56238  10.046   1.535  14.370
84800SOL    HW156239  10.089   1.532  14.285
84800SOL    HW256240  10.055   1.626  14.398
84801SOL     OW56241  14.368   0.912   3.264
84801SOL    HW156242  14.439   0.849   3.256
84801SOL    HW256243  14.388   0.961   3.343
84802SOL     OW56244   6.181  11.663  13.847
84802SOL    HW156245   6.096  11.621  13.830
84802SOL    HW256246   6.245  11.592  13.836
84803SOL     OW56247   4.169  12.716  10.547
84803SOL    HW156248   4.092  12.662  10.526
84803SOL    HW256249   4.223  12.711  10.468
84804SOL     OW56250   6.612   9.851   8.914
84804SOL    HW156251   6.569   9.903   8.982
84804SOL    HW256252   6.541   9.806   8.869
84805SOL     OW56253  10.801  12.979  13.067
84805SOL    HW156254  10.736  12.987  13.138
84805SOL    HW256255  10.867  13.045  13.088
84806SOL     OW56256  12.722  10.484  13.560
84806SOL    HW156257  12.639  10.439  13.545
84806SOL    HW256258  12.704  10.544  13.632
84807SOL     OW56259  10.572   9.749   2.230
84807SOL    HW156260  10.640   9.787   2.285
84807SOL    HW256261  10.499   9.810   2.236
84808SOL     OW56262   0.521   5.404   6.377
84808SOL    HW156263   0.576   5.408   6.455
84808SOL    HW256264   0.447   5.349   6.402
84809SOL     OW56265  10.593   9.483   2.331
84809SOL    HW156266  10.681   9.463   2.365
84809SOL    HW256267  10.605   9.561   2.277
84810SOL     OW56268  13.396  13.198   5.221
84810SOL    HW156269  13.372  13.237   5.137
84810SOL    HW256270  13.456  13.262   5.260
84811SOL     OW56271   9.184  13.175  14.810
84811SOL    HW156272   9.205  13.090  14.849
84811SOL    HW256273   9.123  13.214  14.872
84812SOL     OW56274  11.190   7.580  12.846
84812SOL    HW156275  11.188   7.662  12.797
84812SOL    HW256276  11.109   7.581  12.897
84813SOL     OW56277  11.359  10.885  14.733
84813SOL    HW156278  11.347  10.801  14.689
84813SOL    HW256279  11.400  10.941  14.666
84814SOL     OW56280   9.254   0.576   5.280
84814SOL    HW156281   9.276   0.526   5.201
84814SOL    HW256282   9.213   0.511   5.338
84815SOL     OW56283   1.547   4.742  12.261
84815SOL    HW156284   1.617   4.792  12.219
84815SOL    HW256285   1.478   4.807  12.277
84816SOL     OW56286   5.575   2.257   5.697
84816SOL    HW156287   5.518   2.275   5.771
84816SOL    HW256288   5.551   2.169   5.668
84817SOL     OW56289   5.944  12.011  14.297
84817SOL    HW156290   6.001  11.946  14.338
84817SOL    HW256291   6.002  12.059  14.237
84818SOL     OW56292   2.446  12.857   0.856
84818SOL    HW156293   2.439  12.772   0.812
84818SOL    HW256294   2.526  12.851   0.908
84819SOL     OW56295   4.759   9.376  11.190
84819SOL    HW156296   4.767   9.470  11.205
84819SOL    HW256297   4.675   9.366  11.145
84820SOL     OW56298  11.537   6.118   0.597
84820SOL    HW156299  11.497   6.055   0.537
84820SOL    HW256300  11.618   6.076   0.626
84821SOL     OW56301   2.698   7.798  11.473
84821SOL    HW156302   2.602   7.794  11.469
84821SOL    HW256303   2.722   7.866  11.411
84822SOL     OW56304   9.758   1.448  13.571
84822SOL    HW156305   9.846   1.463  13.607
84822SOL    HW256306   9.699   1.463  13.645
84823SOL     OW56307  11.143   2.396   8.639
84823SOL    HW156308  11.064   2.411   8.588
84823SOL    HW256309  11.114   2.403   8.730
84824SOL     OW56310   3.661   4.559  13.301
84824SOL    HW156311   3.651   4.525  13.213
84824SOL    HW256312   3.574   4.554  13.340
84825SOL     OW56313  13.218   4.879   2.284
84825SOL    HW156314  13.278   4.953   2.276
84825SOL    HW256315  13.276   4.803   2.294
84826SOL     OW56316  10.642   3.619   1.835
84826SOL    HW156317  10.629   3.697   1.780
84826SOL    HW256318  10.696   3.649   1.908
84827SOL     OW56319   7.357   2.051  14.654
84827SOL    HW156320   7.421   2.020  14.718
84827SOL    HW256321   7.304   1.974  14.633
84828SOL     OW56322   0.464  12.522  11.665
84828SOL    HW156323   0.521  12.489  11.596
84828SOL    HW256324   0.412  12.446  11.691
84829SOL     OW56325   6.683   5.165   5.477
84829SOL    HW156326   6.588   5.157   5.483
84829SOL    HW256327   6.698   5.229   5.408
84830SOL     OW56328   2.824   4.851   1.099
84830SOL    HW156329   2.898   4.903   1.065
84830SOL    HW256330   2.839   4.846   1.193
84831SOL     OW56331  14.750  14.651   8.461
84831SOL    HW156332  14.832  14.659   8.413
84831SOL    HW256333  14.764  14.702   8.541
84832SOL     OW56334   9.403   3.341   9.945
84832SOL    HW156335   9.461   3.407   9.907
84832SOL    HW256336   9.346   3.391  10.004
84833SOL     OW56337  13.984   1.712   2.411
84833SOL    HW156338  14.012   1.699   2.502
84833SOL    HW256339  13.920   1.643   2.396
84834SOL     OW56340  14.535   2.002   3.551
84834SOL    HW156341  14.451   2.045   3.567
84834SOL    HW256342  14.545   2.003   3.455
84835SOL     OW56343  11.557   6.078   8.244
84835SOL    HW156344  11.534   6.059   8.153
84835SOL    HW256345  11.498   6.024   8.296
84836SOL     OW56346   1.330   4.985  13.517
84836SOL    HW156347   1.327   4.978  13.422
84836SOL    HW256348   1.413   4.945  13.542
84837SOL     OW56349  13.536   3.342   4.583
84837SOL    HW156350  13.621   3.305   4.608
84837SOL    HW256351  13.484   3.267   4.555
84838SOL     OW56352   0.608   8.256   6.371
84838SOL    HW156353   0.653   8.201   6.435
84838SOL    HW256354   0.568   8.326   6.423
84839SOL     OW56355   9.819  11.170   7.920
84839SOL    HW156356   9.829  11.147   7.827
84839SOL    HW256357   9.769  11.251   7.919
84840SOL     OW56358   3.202   7.603   2.223
84840SOL    HW156359   3.190   7.584   2.317
84840SOL    HW256360   3.213   7.517   2.183
84841SOL     OW56361  14.364   5.977  14.464
84841SOL    HW156362  14.329   6.027  14.391
84841SOL    HW256363  14.415   5.907  14.422
84842SOL     OW56364  10.060   0.547   4.102
84842SOL    HW156365  10.091   0.457   4.099
84842SOL    HW256366   9.994   0.548   4.170
84843SOL     OW56367  12.794   4.261  13.639
84843SOL    HW156368  12.794   4.206  13.561
84843SOL    HW256369  12.729   4.329  13.621
84844SOL     OW56370  13.299   4.194   4.559
84844SOL    HW156371  13.316   4.110   4.517
84844SOL    HW256372  13.379   4.213   4.608
84845SOL     OW56373  11.068  10.104   9.739
84845SOL    HW156374  11.068  10.189   9.783
84845SOL    HW256375  11.131  10.113   9.667
84846SOL     OW56376  13.814   1.832  13.858
84846SOL    HW156377  13.746   1.785  13.809
84846SOL    HW256378  13.774   1.917  13.876
84847SOL     OW56379  12.106   4.780   9.638
84847SOL    HW156380  12.134   4.841   9.569
84847SOL    HW256381  12.021   4.748   9.608
84848SOL     OW56382   7.089  12.727  14.693
84848SOL    HW156383   7.034  12.794  14.734
84848SOL    HW256384   7.162  12.776  14.657
84849SOL     OW56385  14.166  12.662  11.743
84849SOL    HW156386  14.147  12.608  11.819
84849SOL    HW256387  14.261  12.668  11.741
84850SOL     OW56388  12.621   9.162   6.478
84850SOL    HW156389  12.639   9.214   6.400
84850SOL    HW256390  12.688   9.187   6.541
84851SOL     OW56391  13.577   0.895  13.240
84851SOL    HW156392  13.608   0.967  13.184
84851SOL    HW256393  13.482   0.893  13.225
84852SOL     OW56394   2.688   0.939   7.175
84852SOL    HW156395   2.673   0.996   7.250
84852SOL    HW256396   2.770   0.971   7.137
84853SOL     OW56397   8.385   1.926   4.436
84853SOL    HW156398   8.302   1.969   4.420
84853SOL    HW256399   8.419   1.967   4.516
84854SOL     OW56400   8.228   9.746  10.188
84854SOL    HW156401   8.203   9.687  10.117
84854SOL    HW256402   8.316   9.776  10.164
84855SOL     OW56403  11.664  10.607   4.802
84855SOL    HW156404  11.736  10.604   4.865
84855SOL    HW256405  11.599  10.665   4.843
84856SOL     OW56406  11.118   5.112   3.835
84856SOL    HW156407  11.052   5.117   3.766
84856SOL    HW256408  11.068   5.105   3.916
84857SOL     OW56409   0.564   8.171  13.814
84857SOL    HW156410   0.649   8.169  13.858
84857SOL    HW256411   0.505   8.124  13.874
84858SOL     OW56412   8.236  11.446  12.164
84858SOL    HW156413   8.166  11.494  12.208
84858SOL    HW256414   8.305  11.439  12.231
84859SOL     OW56415  11.584   5.642   5.423
84859SOL    HW156416  11.648   5.591   5.472
84859SOL    HW256417  11.603   5.733   5.447
84860SOL     OW56418  10.713  10.451   4.250
84860SOL    HW156419  10.677  10.508   4.319
84860SOL    HW256420  10.681  10.363   4.273
84861SOL     OW56421  11.860   6.913  11.311
84861SOL    HW156422  11.924   6.890  11.243
84861SOL    HW256423  11.786   6.855  11.294
84862SOL     OW56424   3.882   7.495  12.927
84862SOL    HW156425   3.849   7.440  12.998
84862SOL    HW256426   3.862   7.444  12.848
84863SOL     OW56427   0.943   9.744   1.593
84863SOL    HW156428   0.995   9.807   1.643
84863SOL    HW256429   0.871   9.795   1.556
84864SOL     OW56430   9.986   2.336   2.909
84864SOL    HW156431   9.917   2.393   2.944
84864SOL    HW256432  10.050   2.330   2.980
84865SOL     OW56433   8.157  11.411   2.007
84865SOL    HW156434   8.107  11.332   1.985
84865SOL    HW256435   8.223  11.382   2.069
84866SOL     OW56436  14.778  10.175   0.580
84866SOL    HW156437  14.809  10.164   0.490
84866SOL    HW256438  14.835  10.242   0.618
84867SOL     OW56439  10.805  14.745   8.354
84867SOL    HW156440  10.842  14.780   8.435
84867SOL    HW256441  10.725  14.796   8.341
84868SOL     OW56442  10.199   2.299   3.053
84868SOL    HW156443  10.201   2.279   3.146
84868SOL    HW256444  10.272   2.250   3.015
84869SOL     OW56445   9.867  10.066   0.812
84869SOL    HW156446   9.923  10.119   0.870
84869SOL    HW256447   9.912  10.067   0.728
84870SOL     OW56448   9.424  14.022   8.298
84870SOL    HW156449   9.476  13.942   8.300
84870SOL    HW256450   9.333  13.992   8.304
84871SOL     OW56451   1.894   9.990  13.358
84871SOL    HW156452   1.894  10.085  13.349
84871SOL    HW256453   1.916   9.974  13.450
84872SOL     OW56454  13.833   0.501   0.182
84872SOL    HW156455  13.815   0.459   0.265
84872SOL    HW256456  13.753   0.550   0.161
84873SOL     OW56457  11.039  13.523   7.953
84873SOL    HW156458  11.054  13.579   8.029
84873SOL    HW256459  11.053  13.581   7.878
84874SOL     OW56460   1.258   1.127   5.886
84874SOL    HW156461   1.308   1.087   5.815
84874SOL    HW256462   1.211   1.199   5.844
84875SOL     OW56463  14.737   4.666  13.757
84875SOL    HW156464  14.751   4.707  13.671
84875SOL    HW256465  14.756   4.574  13.743
84876SOL     OW56466  14.835   0.610  13.606
84876SOL    HW156467  14.835   0.549  13.679
84876SOL    HW256468  14.877   0.689  13.640
84877SOL     OW56469  10.084  11.218   9.947
84877SOL    HW156470  10.140  11.277   9.998
84877SOL    HW256471  10.016  11.275   9.911
84878SOL     OW56472   7.608  12.507   7.672
84878SOL    HW156473   7.547  12.435   7.694
84878SOL    HW256474   7.594  12.522   7.579
84879SOL     OW56475  10.997   6.116   1.556
84879SOL    HW156476  10.952   6.057   1.617
84879SOL    HW256477  11.007   6.198   1.605
84880SOL     OW56478  10.212   9.075  14.360
84880SOL    HW156479  10.158   9.001  14.331
84880SOL    HW256480  10.240   9.050  14.449
84881SOL     OW56481   1.016  10.226   3.548
84881SOL    HW156482   1.012  10.134   3.522
84881SOL    HW256483   0.949  10.269   3.496
84882SOL     OW56484   1.179   3.031   5.401
84882SOL    HW156485   1.236   3.066   5.469
84882SOL    HW256486   1.185   2.936   5.411
84883SOL     OW56487   3.355   7.745   9.996
84883SOL    HW156488   3.366   7.783   9.909
84883SOL    HW256489   3.265   7.714   9.999
84884SOL     OW56490   7.214   0.190   5.604
84884SOL    HW156491   7.161   0.152   5.533
84884SOL    HW256492   7.299   0.149   5.594
84885SOL     OW56493  10.855   3.402  12.435
84885SOL    HW156494  10.797   3.447  12.497
84885SOL    HW256495  10.832   3.310  12.444
84886SOL     OW56496   9.855  14.093   3.587
84886SOL    HW156497   9.813  14.169   3.628
84886SOL    HW256498   9.783  14.032   3.571
84887SOL     OW56499   6.629   7.602   2.621
84887SOL    HW156500   6.700   7.538   2.625
84887SOL    HW256501   6.632   7.637   2.532
84888SOL     OW56502  10.226   6.968  12.067
84888SOL    HW156503  10.179   6.894  12.104
84888SOL    HW256504  10.160   7.018  12.019
84889SOL     OW56505   3.221  12.526   7.548
84889SOL    HW156506   3.268  12.475   7.614
84889SOL    HW256507   3.240  12.617   7.570
84890SOL     OW56508  10.193   4.243   4.433
84890SOL    HW156509  10.201   4.226   4.339
84890SOL    HW256510  10.208   4.337   4.442
84891SOL     OW56511  10.215   1.390   4.616
84891SOL    HW156512  10.268   1.325   4.570
84891SOL    HW256513  10.150   1.417   4.551
84892SOL     OW56514   3.468   8.613   1.928
84892SOL    HW156515   3.524   8.616   2.005
84892SOL    HW256516   3.521   8.567   1.862
84893SOL     OW56517   5.344   5.749   1.987
84893SOL    HW156518   5.268   5.772   2.040
84893SOL    HW256519   5.329   5.791   1.903
84894SOL     OW56520  14.397   6.508  12.865
84894SOL    HW156521  14.391   6.482  12.773
84894SOL    HW256522  14.328   6.458  12.909
84895SOL     OW56523  10.063  12.520   2.230
84895SOL    HW156524  10.074  12.489   2.140
84895SOL    HW256525   9.975  12.491   2.254
84896SOL     OW56526  10.144   4.629   9.348
84896SOL    HW156527  10.173   4.538   9.345
84896SOL    HW256528  10.089   4.639   9.270
84897SOL     OW56529  11.374   7.565   3.842
84897SOL    HW156530  11.436   7.492   3.836
84897SOL    HW256531  11.297   7.528   3.884
84898SOL     OW56532   9.194   4.973  10.009
84898SOL    HW156533   9.106   4.938   9.997
84898SOL    HW256534   9.180   5.064  10.037
84899SOL     OW56535   4.127   3.210   3.953
84899SOL    HW156536   4.116   3.244   4.041
84899SOL    HW256537   4.064   3.258   3.900
84900SOL     OW56538   4.725   3.369  13.290
84900SOL    HW156539   4.786   3.443  13.288
84900SOL    HW256540   4.704   3.353  13.198
84901SOL     OW56541  12.990   5.065  13.602
84901SOL    HW156542  12.934   5.041  13.676
84901SOL    HW256543  13.065   5.110  13.642
84902SOL     OW56544   2.375  14.107   4.380
84902SOL    HW156545   2.329  14.071   4.456
84902SOL    HW256546   2.332  14.066   4.305
84903SOL     OW56547   4.786  10.281   6.470
84903SOL    HW156548   4.867  10.263   6.421
84903SOL    HW256549   4.731  10.205   6.454
84904SOL     OW56550   0.843   5.969   7.823
84904SOL    HW156551   0.791   6.007   7.752
84904SOL    HW256552   0.931   6.006   7.811
84905SOL     OW56553  11.576  11.303   1.480
84905SOL    HW156554  11.575  11.397   1.465
84905SOL    HW256555  11.517  11.267   1.413
84906SOL     OW56556   7.615   0.468  11.747
84906SOL    HW156557   7.540   0.414  11.771
84906SOL    HW256558   7.670   0.410  11.695
84907SOL     OW56559   0.523  13.004   7.544
84907SOL    HW156560   0.450  13.057   7.515
84907SOL    HW256561   0.508  12.918   7.505
84908SOL     OW56562   5.856   9.725   6.721
84908SOL    HW156563   5.805   9.783   6.664
84908SOL    HW256564   5.843   9.761   6.809
84909SOL     OW56565  10.097   9.341   8.919
84909SOL    HW156566  10.173   9.310   8.869
84909SOL    HW256567  10.022   9.308   8.871
84910SOL     OW56568   9.936   2.684   5.770
84910SOL    HW156569   9.850   2.722   5.751
84910SOL    HW256570   9.980   2.751   5.823
84911SOL     OW56571   7.876   1.211   9.074
84911SOL    HW156572   7.896   1.192   8.983
84911SOL    HW256573   7.821   1.289   9.072
84912SOL     OW56574   3.523   3.282   6.949
84912SOL    HW156575   3.460   3.225   6.907
84912SOL    HW256576   3.608   3.254   6.915
84913SOL     OW56577   7.035   3.398   3.243
84913SOL    HW156578   6.941   3.388   3.257
84913SOL    HW256579   7.057   3.327   3.183
84914SOL     OW56580   2.183  14.524   9.306
84914SOL    HW156581   2.204  14.533   9.214
84914SOL    HW256582   2.170  14.613   9.337
84915SOL     OW56583   4.224   0.686   0.297
84915SOL    HW156584   4.303   0.633   0.283
84915SOL    HW256585   4.229   0.755   0.230
84916SOL     OW56586   3.306   9.662   5.601
84916SOL    HW156587   3.394   9.641   5.633
84916SOL    HW256588   3.315   9.748   5.560
84917SOL     OW56589  10.109   3.104   9.322
84917SOL    HW156590  10.156   3.187   9.331
84917SOL    HW256591  10.178   3.038   9.312
84918SOL     OW56592   1.832   9.848   6.123
84918SOL    HW156593   1.741   9.819   6.115
84918SOL    HW256594   1.879   9.796   6.058
84919SOL     OW56595  10.642   8.587   7.309
84919SOL    HW156596  10.650   8.679   7.282
84919SOL    HW256597  10.724   8.567   7.354
84920SOL     OW56598  10.492   3.378  12.498
84920SOL    HW156599  10.560   3.391  12.565
84920SOL    HW256600  10.531   3.411  12.418
84921SOL     OW56601  14.154  10.245   8.246
84921SOL    HW156602  14.163  10.162   8.293
84921SOL    HW256603  14.169  10.312   8.312
84922SOL     OW56604   0.550   7.141   0.315
84922SOL    HW156605   0.591   7.179   0.393
84922SOL    HW256606   0.555   7.046   0.330
84923SOL     OW56607   7.273  12.859  14.463
84923SOL    HW156608   7.276  12.948  14.499
84923SOL    HW256609   7.209  12.863  14.393
84924SOL     OW56610   0.126   2.800   1.523
84924SOL    HW156611   0.086   2.761   1.601
84924SOL    HW256612   0.051   2.826   1.468
84925SOL     OW56613   0.168   3.896  11.363
84925SOL    HW156614   0.074   3.901  11.377
84925SOL    HW256615   0.178   3.890  11.268
84926SOL     OW56616   4.013   1.343   0.171
84926SOL    HW156617   3.953   1.395   0.117
84926SOL    HW256618   4.006   1.381   0.258
84927SOL     OW56619   6.676   3.219  14.477
84927SOL    HW156620   6.754   3.269  14.452
84927SOL    HW256621   6.603   3.279  14.460
84928SOL     OW56622  12.376   6.924   5.843
84928SOL    HW156623  12.398   6.844   5.795
84928SOL    HW256624  12.347   6.985   5.776
84929SOL     OW56625   1.324   8.701   2.775
84929SOL    HW156626   1.344   8.691   2.868
84929SOL    HW256627   1.282   8.619   2.749
84930SOL     OW56628  11.047   7.330   0.299
84930SOL    HW156629  10.958   7.296   0.308
84930SOL    HW256630  11.056   7.394   0.369
84931SOL     OW56631   0.451   0.457   4.745
84931SOL    HW156632   0.404   0.400   4.806
84931SOL    HW256633   0.524   0.403   4.715
84932SOL     OW56634   7.382   5.940   3.854
84932SOL    HW156635   7.415   5.868   3.908
84932SOL    HW256636   7.449   6.008   3.862
84933SOL     OW56637   5.292  10.716   3.942
84933SOL    HW156638   5.343  10.670   4.009
84933SOL    HW256639   5.222  10.760   3.991
84934SOL     OW56640   6.268   9.896   1.552
84934SOL    HW156641   6.358   9.913   1.523
84934SOL    HW256642   6.256   9.802   1.538
84935SOL     OW56643   0.565   0.348   2.694
84935SOL    HW156644   0.649   0.333   2.651
84935SOL    HW256645   0.517   0.404   2.632
84936SOL     OW56646   1.753   3.424   4.778
84936SOL    HW156647   1.738   3.434   4.872
84936SOL    HW256648   1.810   3.498   4.755
84937SOL     OW56649  12.077   7.206   7.755
84937SOL    HW156650  12.146   7.227   7.692
84937SOL    HW256651  12.009   7.164   7.704
84938SOL     OW56652  13.536   6.388   7.041
84938SOL    HW156653  13.511   6.354   7.126
84938SOL    HW256654  13.453   6.412   6.999
84939SOL     OW56655   5.252  11.784  14.754
84939SOL    HW156656   5.338  11.745  14.742
84939SOL    HW256657   5.245  11.850  14.686
84940SOL     OW56658  13.574   1.727   7.967
84940SOL    HW156659  13.493   1.768   7.937
84940SOL    HW256660  13.572   1.640   7.929
84941SOL     OW56661  14.729   6.519   4.860
84941SOL    HW156662  14.734   6.423   4.856
84941SOL    HW256663  14.651   6.537   4.912
84942SOL     OW56664  14.756  10.386   8.298
84942SOL    HW156665  14.688  10.343   8.350
84942SOL    HW256666  14.833  10.330   8.308
84943SOL     OW56667  14.669   0.272   2.864
84943SOL    HW156668  14.709   0.313   2.940
84943SOL    HW256669  14.693   0.328   2.791
84944SOL     OW56670  12.753   4.890   3.023
84944SOL    HW156671  12.779   4.837   2.947
84944SOL    HW256672  12.658   4.876   3.031
84945SOL     OW56673   2.867  10.562   3.539
84945SOL    HW156674   2.933  10.545   3.606
84945SOL    HW256675   2.915  10.563   3.457
84946SOL     OW56676   9.310   8.442  11.235
84946SOL    HW156677   9.312   8.537  11.231
84946SOL    HW256678   9.323   8.421  11.328
84947SOL     OW56679  10.008   3.429   7.922
84947SOL    HW156680  10.096   3.459   7.945
84947SOL    HW256681   9.984   3.368   7.991
84948SOL     OW56682   2.909  12.059   8.871
84948SOL    HW156683   2.993  12.087   8.834
84948SOL    HW256684   2.845  12.082   8.804
84949SOL     OW56685   2.658   2.599   3.126
84949SOL    HW156686   2.645   2.673   3.186
84949SOL    HW256687   2.619   2.525   3.172
84950SOL     OW56688   0.432  11.712  14.659
84950SOL    HW156689   0.442  11.796  14.703
84950SOL    HW256690   0.498  11.712  14.590
84951SOL     OW56691   8.483   1.472   7.017
84951SOL    HW156692   8.394   1.465   7.052
84951SOL    HW256693   8.476   1.440   6.927
84952SOL     OW56694   0.271   9.885   3.692
84952SOL    HW156695   0.181   9.869   3.721
84952SOL    HW256696   0.317   9.803   3.710
84953SOL     OW56697  10.840   6.195   7.313
84953SOL    HW156698  10.868   6.276   7.270
84953SOL    HW256699  10.901   6.185   7.386
84954SOL     OW56700   4.042  13.630   4.754
84954SOL    HW156701   3.961  13.672   4.727
84954SOL    HW256702   4.021  13.586   4.837
84955SOL     OW56703  11.069   9.938   3.500
84955SOL    HW156704  11.160   9.908   3.491
84955SOL    HW256705  11.019   9.859   3.519
84956SOL     OW56706   2.376   4.818  10.591
84956SOL    HW156707   2.318   4.893  10.576
84956SOL    HW256708   2.363   4.797  10.684
84957SOL     OW56709   6.140   5.600  14.414
84957SOL    HW156710   6.046   5.617  14.426
84957SOL    HW256711   6.166   5.551  14.492
84958SOL     OW56712   0.482  10.635   8.595
84958SOL    HW156713   0.399  10.674   8.567
84958SOL    HW256714   0.539  10.643   8.519
84959SOL     OW56715  12.767   7.563   6.041
84959SOL    HW156716  12.835   7.587   5.978
84959SOL    HW256717  12.787   7.472   6.064
84960SOL     OW56718  13.136   4.265   9.065
84960SOL    HW156719  13.070   4.204   9.031
84960SOL    HW256720  13.218   4.216   9.059
84961SOL     OW56721   1.739  11.683   0.288
84961SOL    HW156722   1.752  11.692   0.382
84961SOL    HW256723   1.814  11.728   0.249
84962SOL     OW56724   8.374  13.374  13.675
84962SOL    HW156725   8.315  13.361  13.601
84962SOL    HW256726   8.382  13.469  13.684
84963SOL     OW56727   0.367  12.670   8.187
84963SOL    HW156728   0.443  12.719   8.157
84963SOL    HW256729   0.338  12.717   8.266
84964SOL     OW56730   5.015   4.345   8.778
84964SOL    HW156731   4.977   4.287   8.712
84964SOL    HW256732   4.940   4.381   8.825
84965SOL     OW56733  10.136   9.150   5.524
84965SOL    HW156734  10.057   9.124   5.571
84965SOL    HW256735  10.112   9.146   5.432
84966SOL     OW56736  13.640  13.538  10.279
84966SOL    HW156737  13.565  13.484  10.305
84966SOL    HW256738  13.707  13.518  10.344
84967SOL     OW56739  10.942  14.761   8.582
84967SOL    HW156740  11.023  14.713   8.564
84967SOL    HW256741  10.966  14.853   8.574
84968SOL     OW56742   6.140  13.009  13.822
84968SOL    HW156743   6.135  12.913  13.813
84968SOL    HW256744   6.187  13.022  13.904
84969SOL     OW56745   9.033   7.482   6.006
84969SOL    HW156746   9.125   7.462   6.025
84969SOL    HW256747   8.985   7.445   6.080
84970SOL     OW56748   0.664  10.456  12.958
84970SOL    HW156749   0.661  10.450  12.863
84970SOL    HW256750   0.740  10.510  12.977
84971SOL     OW56751  11.240   7.130   8.791
84971SOL    HW156752  11.183   7.074   8.738
84971SOL    HW256753  11.196   7.135   8.876
84972SOL     OW56754   9.197   3.943  12.464
84972SOL    HW156755   9.120   3.911  12.418
84972SOL    HW256756   9.171   4.028  12.498
84973SOL     OW56757  12.098   7.961  13.597
84973SOL    HW156758  12.037   8.016  13.548
84973SOL    HW256759  12.143   8.021  13.656
84974SOL     OW56760   9.121   5.255   2.913
84974SOL    HW156761   9.031   5.288   2.910
84974SOL    HW256762   9.144   5.240   2.821
84975SOL     OW56763   6.618   7.333  13.379
84975SOL    HW156764   6.585   7.303  13.464
84975SOL    HW256765   6.644   7.253  13.334
84976SOL     OW56766   2.986   9.697  12.866
84976SOL    HW156767   2.987   9.615  12.817
84976SOL    HW256768   2.938   9.758  12.810
84977SOL     OW56769  11.451  10.155   2.572
84977SOL    HW156770  11.409  10.197   2.648
84977SOL    HW256771  11.532  10.118   2.608
84978SOL     OW56772  12.028  13.595   2.726
84978SOL    HW156773  11.974  13.662   2.684
84978SOL    HW256774  11.968  13.523   2.743
84979SOL     OW56775  14.680  14.090   7.961
84979SOL    HW156776  14.651  14.105   7.871
84979SOL    HW256777  14.753  14.151   7.973
84980SOL     OW56778  14.875   8.433  11.657
84980SOL    HW156779   0.089   8.423  11.675
84980SOL    HW256780  14.852   8.356  11.605
84981SOL     OW56781   0.887   4.749  11.545
84981SOL    HW156782   0.794   4.734  11.563
84981SOL    HW256783   0.919   4.665  11.515
84982SOL     OW56784   5.942   3.227   6.095
84982SOL    HW156785   5.957   3.176   6.174
84982SOL    HW256786   6.012   3.200   6.036
84983SOL     OW56787   6.294   8.889   0.778
84983SOL    HW156788   6.258   8.972   0.748
84983SOL    HW256789   6.339   8.911   0.860
84984SOL     OW56790  11.247   1.204   0.553
84984SOL    HW156791  11.309   1.145   0.596
84984SOL    HW256792  11.162   1.160   0.560
84985SOL     OW56793  10.942   9.320  11.354
84985SOL    HW156794  10.907   9.409  11.347
84985SOL    HW256795  10.954   9.307  11.448
84986SOL     OW56796   3.538   2.885  11.105
84986SOL    HW156797   3.548   2.792  11.126
84986SOL    HW256798   3.555   2.890  11.011
84987SOL     OW56799  11.317  10.300   9.747
84987SOL    HW156800  11.411  10.309   9.760
84987SOL    HW256801  11.308  10.222   9.691
84988SOL     OW56802   7.237   6.486   5.676
84988SOL    HW156803   7.158   6.536   5.695
84988SOL    HW256804   7.303   6.521   5.734
84989SOL     OW56805   2.305   2.914   1.301
84989SOL    HW156806   2.393   2.938   1.274
84989SOL    HW256807   2.316   2.875   1.388
84990SOL     OW56808   7.675  12.452  13.163
84990SOL    HW156809   7.590  12.491  13.141
84990SOL    HW256810   7.657  12.358  13.166
84991SOL     OW56811  13.924  11.515   6.017
84991SOL    HW156812  13.898  11.575   6.087
84991SOL    HW256813  13.980  11.567   5.960
84992SOL     OW56814   4.605   3.933   2.946
84992SOL    HW156815   4.553   3.897   3.017
84992SOL    HW256816   4.655   3.859   2.912
84993SOL     OW56817   9.675   5.658   3.763
84993SOL    HW156818   9.691   5.633   3.671
84993SOL    HW256819   9.677   5.753   3.762
84994SOL     OW56820   3.464  14.667   7.525
84994SOL    HW156821   3.483  14.759   7.505
84994SOL    HW256822   3.490  14.657   7.617
84995SOL     OW56823  10.679  12.164  11.885
84995SOL    HW156824  10.692  12.122  11.800
84995SOL    HW256825  10.768  12.173  11.920
84996SOL     OW56826   0.909   8.345   8.011
84996SOL    HW156827   0.903   8.269   8.068
84996SOL    HW256828   0.820   8.360   7.980
84997SOL     OW56829   9.363   7.603   6.028
84997SOL    HW156830   9.332   7.529   5.976
84997SOL    HW256831   9.458   7.590   6.033
84998SOL     OW56832  10.466   2.772  11.764
84998SOL    HW156833  10.420   2.764  11.681
84998SOL    HW256834  10.434   2.697  11.816
84999SOL     OW56835   9.662  10.118   3.954
84999SOL    HW156836   9.734  10.161   3.907
84999SOL    HW256837   9.658  10.030   3.915
85000SOL     OW56838   4.161  13.694  13.008
85000SOL    HW156839   4.232  13.756  12.989
85000SOL    HW256840   4.101  13.743  13.065
85001SOL     OW56841   4.317  14.119   4.938
85001SOL    HW156842   4.347  14.058   4.871
85001SOL    HW256843   4.397  14.148   4.982
85002SOL     OW56844   0.124  10.738   5.606
85002SOL    HW156845   0.137  10.674   5.677
85002SOL    HW256846   0.053  10.794   5.637
85003SOL     OW56847   8.934   6.471  14.090
85003SOL    HW156848   9.014   6.419  14.096
85003SOL    HW256849   8.864   6.414  14.122
85004SOL     OW56850   3.323   8.819   8.585
85004SOL    HW156851   3.350   8.759   8.515
85004SOL    HW256852   3.270   8.885   8.541
85005SOL     OW56853   3.613   6.972   1.661
85005SOL    HW156854   3.702   6.966   1.627
85005SOL    HW256855   3.579   6.883   1.652
85006SOL     OW56856   8.783  12.552   5.739
85006SOL    HW156857   8.766  12.640   5.773
85006SOL    HW256858   8.765  12.494   5.813
85007SOL     OW56859  11.326   1.718   9.341
85007SOL    HW156860  11.286   1.777   9.404
85007SOL    HW256861  11.339   1.772   9.262
85008SOL     OW56862   6.079  12.459  14.033
85008SOL    HW156863   6.018  12.425  13.967
85008SOL    HW256864   6.047  12.423  14.116
85009SOL     OW56865   1.842   8.380  13.028
85009SOL    HW156866   1.861   8.336  13.111
85009SOL    HW256867   1.927   8.390  12.985
85010SOL     OW56868   1.216   8.660   5.415
85010SOL    HW156869   1.289   8.722   5.424
85010SOL    HW256870   1.182   8.650   5.504
85011SOL     OW56871  10.462  11.042   9.761
85011SOL    HW156872  10.518  10.977   9.718
85011SOL    HW256873  10.518  11.119   9.771
85012SOL     OW56874   9.515   7.214  13.111
85012SOL    HW156875   9.459   7.142  13.139
85012SOL    HW256876   9.585   7.217  13.176
85013SOL     OW56877  13.309   6.762   6.479
85013SOL    HW156878  13.308   6.680   6.430
85013SOL    HW256879  13.300   6.736   6.571
85014SOL     OW56880  13.484   3.609   5.347
85014SOL    HW156881  13.506   3.531   5.397
85014SOL    HW256882  13.426   3.659   5.404
85015SOL     OW56883   2.691   0.443   6.007
85015SOL    HW156884   2.686   0.427   6.101
85015SOL    HW256885   2.776   0.484   5.993
85016SOL     OW56886   6.676  12.103   5.200
85016SOL    HW156887   6.645  12.170   5.261
85016SOL    HW256888   6.771  12.114   5.199
85017SOL     OW56889   2.849   1.495   8.032
85017SOL    HW156890   2.759   1.469   8.048
85017SOL    HW256891   2.901   1.417   8.051
85018SOL     OW56892  10.371  10.169   7.872
85018SOL    HW156893  10.326  10.108   7.930
85018SOL    HW256894  10.303  10.233   7.848
85019SOL     OW56895   9.582   8.828   3.821
85019SOL    HW156896   9.507   8.805   3.876
85019SOL    HW256897   9.614   8.744   3.788
85020SOL     OW56898  12.814   5.154   2.903
85020SOL    HW156899  12.782   5.089   2.966
85020SOL    HW256900  12.858   5.102   2.835
85021SOL     OW56901   6.241  12.698  10.616
85021SOL    HW156902   6.209  12.783  10.645
85021SOL    HW256903   6.324  12.717  10.572
85022SOL     OW56904   0.023   8.379  10.543
85022SOL    HW156905  14.815   8.341  10.542
85022SOL    HW256906   0.009   8.472  10.561
85023SOL     OW56907   9.271  12.684  12.570
85023SOL    HW156908   9.211  12.666  12.642
85023SOL    HW256909   9.358  12.684  12.610
85024SOL     OW56910  10.635  13.266   1.814
85024SOL    HW156911  10.562  13.252   1.754
85024SOL    HW256912  10.651  13.180   1.853
85025SOL     OW56913   4.507   6.909  12.678
85025SOL    HW156914   4.586   6.954  12.707
85025SOL    HW256915   4.538   6.826  12.643
85026SOL     OW56916   4.377  11.987  10.199
85026SOL    HW156917   4.384  12.062  10.139
85026SOL    HW256918   4.284  11.965  10.200
85027SOL     OW56919   1.155   2.861   4.445
85027SOL    HW156920   1.062   2.885   4.452
85027SOL    HW256921   1.199   2.914   4.511
85028SOL     OW56922   4.423   4.447   6.440
85028SOL    HW156923   4.509   4.406   6.449
85028SOL    HW256924   4.367   4.379   6.404
85029SOL     OW56925  11.588   0.707  11.015
85029SOL    HW156926  11.645   0.784  11.017
85029SOL    HW256927  11.511   0.732  11.065
85030SOL     OW56928  11.335   4.906   3.439
85030SOL    HW156929  11.424   4.874   3.424
85030SOL    HW256930  11.331   4.923   3.533
85031SOL     OW56931   0.813  11.792   0.256
85031SOL    HW156932   0.766  11.739   0.191
85031SOL    HW256933   0.881  11.734   0.290
85032SOL     OW56934   9.155   2.663   0.029
85032SOL    HW156935   9.076   2.680  14.857
85032SOL    HW256936   9.131   2.591   0.087
85033SOL     OW56937  11.149   1.026   3.709
85033SOL    HW156938  11.208   1.044   3.782
85033SOL    HW256939  11.175   1.088   3.641
85034SOL     OW56940  12.452   4.569  10.213
85034SOL    HW156941  12.436   4.634  10.144
85034SOL    HW256942  12.537   4.531  10.191
85035SOL     OW56943   3.067  11.667  10.287
85035SOL    HW156944   3.046  11.743  10.233
85035SOL    HW256945   2.997  11.604  10.270
85036SOL     OW56946   3.476   7.792  10.726
85036SOL    HW156947   3.474   7.874  10.675
85036SOL    HW256948   3.437   7.727  10.668
85037SOL     OW56949  10.656  12.041   3.001
85037SOL    HW156950  10.721  12.019   2.935
85037SOL    HW256951  10.580  11.986   2.980
85038SOL     OW56952  10.169   9.181  13.474
85038SOL    HW156953  10.244   9.153  13.422
85038SOL    HW256954  10.205   9.244  13.536
85039SOL     OW56955  11.721  11.640   5.508
85039SOL    HW156956  11.773  11.706   5.463
85039SOL    HW256957  11.649  11.621   5.448
85040SOL     OW56958   0.752   7.134  10.377
85040SOL    HW156959   0.717   7.069  10.437
85040SOL    HW256960   0.678   7.192  10.358
85041SOL     OW56961   2.190   9.644   7.035
85041SOL    HW156962   2.152   9.693   7.108
85041SOL    HW256963   2.211   9.710   6.969
85042SOL     OW56964  10.142   1.934   9.112
85042SOL    HW156965  10.191   1.926   9.030
85042SOL    HW256966  10.210   1.948   9.179
85043SOL     OW56967   9.654   2.400   0.885
85043SOL    HW156968   9.579   2.399   0.824
85043SOL    HW256969   9.701   2.480   0.863
85044SOL     OW56970   2.225   9.317   2.290
85044SOL    HW156971   2.241   9.223   2.281
85044SOL    HW256972   2.286   9.357   2.229
85045SOL     OW56973   2.476   2.928   5.142
85045SOL    HW156974   2.523   2.990   5.197
85045SOL    HW256975   2.385   2.955   5.147
85046SOL     OW56976  10.288  10.004   3.715
85046SOL    HW156977  10.361   9.991   3.655
85046SOL    HW256978  10.326   9.995   3.803
85047SOL     OW56979  14.110   0.131   4.786
85047SOL    HW156980  14.057   0.053   4.770
85047SOL    HW256981  14.050   0.193   4.829
85048SOL     OW56982   9.060  14.344   2.916
85048SOL    HW156983   9.026  14.398   2.846
85048SOL    HW256984   9.149  14.376   2.931
85049SOL     OW56985   5.459   9.122   1.152
85049SOL    HW156986   5.394   9.078   1.098
85049SOL    HW256987   5.504   9.182   1.093
85050SOL     OW56988  10.945   1.300   3.849
85050SOL    HW156989  10.963   1.243   3.774
85050SOL    HW256990  10.965   1.388   3.817
85051SOL     OW56991  14.724   3.934  14.105
85051SOL    HW156992  14.716   4.009  14.046
85051SOL    HW256993  14.699   3.859  14.052
85052SOL     OW56994   4.046   7.350   5.911
85052SOL    HW156995   4.002   7.403   5.978
85052SOL    HW256996   4.068   7.268   5.955
85053SOL     OW56997   2.184   4.734   6.952
85053SOL    HW156998   2.142   4.819   6.937
85053SOL    HW256999   2.129   4.672   6.904
85054SOL     OW57000   1.250  12.387  13.921
85054SOL    HW157001   1.182  12.336  13.877
85054SOL    HW257002   1.279  12.332  13.994
85055SOL     OW57003   2.842  10.513   6.240
85055SOL    HW157004   2.775  10.453   6.209
85055SOL    HW257005   2.908  10.457   6.281
85056SOL     OW57006   1.107  14.812   9.839
85056SOL    HW157007   1.129  14.831   9.930
85056SOL    HW257008   1.014  14.831   9.832
85057SOL     OW57009   9.009   0.264   0.452
85057SOL    HW157010   9.028   0.218   0.533
85057SOL    HW257011   9.091   0.306   0.428
85058SOL     OW57012   1.770  14.621   2.299
85058SOL    HW157013   1.779  14.533   2.263
85058SOL    HW257014   1.845  14.632   2.356
85059SOL     OW57015  14.604   3.870  14.638
85059SOL    HW157016  14.566   3.886  14.551
85059SOL    HW257017  14.657   3.947  14.655
85060SOL     OW57018   8.429   4.480  13.646
85060SOL    HW157019   8.515   4.448  13.620
85060SOL    HW257020   8.442   4.574  13.662
85061SOL     OW57021   9.860  10.751   4.905
85061SOL    HW157022   9.801  10.708   4.843
85061SOL    HW257023   9.803  10.777   4.978
85062SOL     OW57024  11.180   2.116  13.052
85062SOL    HW157025  11.234   2.169  12.993
85062SOL    HW257026  11.151   2.043  12.999
85063SOL     OW57027  14.628   5.412  11.462
85063SOL    HW157028  14.551   5.444  11.510
85063SOL    HW257029  14.614   5.440  11.372
85064SOL     OW57030   8.643   2.530   3.196
85064SOL    HW157031   8.614   2.509   3.108
85064SOL    HW257032   8.703   2.603   3.185
85065SOL     OW57033  10.601   5.834   8.176
85065SOL    HW157034  10.685   5.794   8.153
85065SOL    HW257035  10.536   5.784   8.127
85066SOL     OW57036   7.903   1.130   3.992
85066SOL    HW157037   7.867   1.171   3.914
85066SOL    HW257038   7.828   1.118   4.051
85067SOL     OW57039  12.194   7.545   6.121
85067SOL    HW157040  12.169   7.613   6.184
85067SOL    HW257041  12.111   7.514   6.086
85068SOL     OW57042   7.335   9.966   5.285
85068SOL    HW157043   7.430   9.979   5.281
85068SOL    HW257044   7.303  10.000   5.202
85069SOL     OW57045  14.165   3.077  10.166
85069SOL    HW157046  14.130   2.988  10.160
85069SOL    HW257047  14.244   3.068  10.219
85070SOL     OW57048   6.203   4.103  13.475
85070SOL    HW157049   6.121   4.149  13.491
85070SOL    HW257050   6.234   4.138  13.392
85071SOL     OW57051   7.607   4.747   7.480
85071SOL    HW157052   7.686   4.746   7.534
85071SOL    HW257053   7.571   4.659   7.488
85072SOL     OW57054   4.230  14.596  11.714
85072SOL    HW157055   4.143  14.623  11.745
85072SOL    HW257056   4.291  14.642  11.772
85073SOL     OW57057   2.538   0.901  11.788
85073SOL    HW157058   2.590   0.830  11.752
85073SOL    HW257059   2.479   0.926  11.717
85074SOL     OW57060   4.402   0.716  10.962
85074SOL    HW157061   4.493   0.687  10.968
85074SOL    HW257062   4.360   0.651  10.904
85075SOL     OW57063   3.341  11.866   7.028
85075SOL    HW157064   3.301  11.780   7.044
85075SOL    HW257065   3.416  11.869   7.088
85076SOL     OW57066   7.056   8.617   0.702
85076SOL    HW157067   7.063   8.537   0.650
85076SOL    HW257068   6.962   8.634   0.706
85077SOL     OW57069   6.511   7.716   7.921
85077SOL    HW157070   6.596   7.674   7.937
85077SOL    HW257071   6.532   7.807   7.903
85078SOL     OW57072  14.242   5.766   9.390
85078SOL    HW157073  14.161   5.788   9.437
85078SOL    HW257074  14.303   5.837   9.412
85079SOL     OW57075   0.049   8.195   2.613
85079SOL    HW157076   0.044   8.105   2.580
85079SOL    HW257077   0.101   8.242   2.548
85080SOL     OW57078  12.981   2.615   0.137
85080SOL    HW157079  12.925   2.538   0.145
85080SOL    HW257080  13.064   2.588   0.176
85081SOL     OW57081   6.526  10.241  13.479
85081SOL    HW157082   6.436  10.224  13.508
85081SOL    HW257083   6.552  10.161  13.433
85082SOL     OW57084  10.600  14.219  11.800
85082SOL    HW157085  10.550  14.236  11.880
85082SOL    HW257086  10.533  14.203  11.734
85083SOL     OW57087  13.167   5.788  13.674
85083SOL    HW157088  13.125   5.784  13.588
85083SOL    HW257089  13.096   5.809  13.735
85084SOL     OW57090   0.090  10.974  14.702
85084SOL    HW157091   0.164  10.920  14.674
85084SOL    HW257092   0.106  10.989  14.795
85085SOL     OW57093   4.932  10.202   9.515
85085SOL    HW157094   4.874  10.154   9.456
85085SOL    HW257095   4.873  10.241   9.580
85086SOL     OW57096   5.152   6.940   6.474
85086SOL    HW157097   5.183   7.003   6.408
85086SOL    HW257098   5.141   6.993   6.553
85087SOL     OW57099   0.976   9.332  10.352
85087SOL    HW157100   1.015   9.389  10.417
85087SOL    HW257101   0.942   9.391  10.285
85088SOL     OW57102   0.873   1.783   8.630
85088SOL    HW157103   0.961   1.820   8.634
85088SOL    HW257104   0.815   1.858   8.645
85089SOL     OW57105  13.977   4.541   0.775
85089SOL    HW157106  13.933   4.583   0.849
85089SOL    HW257107  13.961   4.600   0.701
85090SOL     OW57108   2.749   9.267  10.540
85090SOL    HW157109   2.803   9.211  10.595
85090SOL    HW257110   2.723   9.339  10.597
85091SOL     OW57111  14.298   4.311   9.632
85091SOL    HW157112  14.290   4.273   9.719
85091SOL    HW257113  14.216   4.288   9.588
85092SOL     OW57114   1.553   9.464   4.741
85092SOL    HW157115   1.478   9.426   4.785
85092SOL    HW257116   1.547   9.558   4.760
85093SOL     OW57117   2.803   6.221   8.200
85093SOL    HW157118   2.718   6.265   8.205
85093SOL    HW257119   2.855   6.275   8.141
85094SOL     OW57120   5.782  11.709   1.196
85094SOL    HW157121   5.863  11.753   1.169
85094SOL    HW257122   5.734  11.775   1.246
85095SOL     OW57123   3.773   6.640  12.592
85095SOL    HW157124   3.850   6.584  12.598
85095SOL    HW257125   3.762   6.655  12.498
85096SOL     OW57126   1.072  14.756   7.823
85096SOL    HW157127   1.133  14.707   7.877
85096SOL    HW257128   1.038  14.692   7.761
85097SOL     OW57129  10.400   0.791  10.254
85097SOL    HW157130  10.474   0.800  10.193
85097SOL    HW257131  10.416   0.709  10.300
85098SOL     OW57132  11.309   7.756   6.262
85098SOL    HW157133  11.389   7.734   6.213
85098SOL    HW257134  11.284   7.674   6.304
85099SOL     OW57135   2.818   4.097   2.868
85099SOL    HW157136   2.734   4.068   2.904
85099SOL    HW257137   2.872   4.018   2.865
85100SOL     OW57138   6.840   4.295  13.214
85100SOL    HW157139   6.747   4.309  13.231
85100SOL    HW257140   6.880   4.382  13.223
85101SOL     OW57141   5.527   4.617   0.447
85101SOL    HW157142   5.444   4.610   0.494
85101SOL    HW257143   5.503   4.618   0.355
85102SOL     OW57144   8.747   5.338   9.325
85102SOL    HW157145   8.677   5.276   9.345
85102SOL    HW257146   8.767   5.323   9.233
85103SOL     OW57147  13.346  10.312  10.903
85103SOL    HW157148  13.407  10.369  10.855
85103SOL    HW257149  13.320  10.246  10.839
85104SOL     OW57150   4.189   0.003   3.960
85104SOL    HW157151   4.267  14.831   3.937
85104SOL    HW257152   4.116  14.829   3.928
85105SOL     OW57153  13.939  13.169   6.759
85105SOL    HW157154  13.932  13.260   6.731
85105SOL    HW257155  13.849  13.137   6.756
85106SOL     OW57156  12.092  11.017   8.866
85106SOL    HW157157  12.063  10.926   8.863
85106SOL    HW257158  12.011  11.068   8.876
85107SOL     OW57159   1.102   7.702  14.518
85107SOL    HW157160   1.079   7.612  14.539
85107SOL    HW257161   1.176   7.695  14.459
85108SOL     OW57162   3.398  13.668  13.011
85108SOL    HW157163   3.329  13.703  12.954
85108SOL    HW257164   3.361  13.588  13.048
85109SOL     OW57165  12.886   3.673  11.384
85109SOL    HW157166  12.859   3.635  11.300
85109SOL    HW257167  12.837   3.623  11.449
85110SOL     OW57168   5.526  14.373  11.139
85110SOL    HW157169   5.513  14.323  11.058
85110SOL    HW257170   5.489  14.460  11.120
85111SOL     OW57171   5.304   8.227   1.919
85111SOL    HW157172   5.267   8.295   1.976
85111SOL    HW257173   5.327   8.156   1.979
85112SOL     OW57174   3.261   2.128   4.361
85112SOL    HW157175   3.206   2.162   4.290
85112SOL    HW257176   3.329   2.077   4.316
85113SOL     OW57177  14.421   3.192  12.746
85113SOL    HW157178  14.340   3.230  12.712
85113SOL    HW257179  14.479   3.268  12.758
85114SOL     OW57180  12.705   8.663  13.370
85114SOL    HW157181  12.679   8.718  13.295
85114SOL    HW257182  12.782   8.707  13.405
85115SOL     OW57183   8.025   5.782   4.668
85115SOL    HW157184   8.001   5.768   4.760
85115SOL    HW257185   7.952   5.834   4.633
85116SOL     OW57186   6.843  14.152   6.073
85116SOL    HW157187   6.788  14.092   6.023
85116SOL    HW257188   6.855  14.227   6.015
85117SOL     OW57189  10.227   0.798  11.919
85117SOL    HW157190  10.182   0.727  11.967
85117SOL    HW257191  10.159   0.835  11.863
85118SOL     OW57192   1.821  12.191  10.714
85118SOL    HW157193   1.751  12.208  10.777
85118SOL    HW257194   1.901  12.195  10.766
85119SOL     OW57195  10.409   2.436  13.451
85119SOL    HW157196  10.448   2.522  13.435
85119SOL    HW257197  10.441   2.411  13.537
85120SOL     OW57198   2.978   2.347  12.701
85120SOL    HW157199   3.035   2.278  12.667
85120SOL    HW257200   3.028   2.386  12.773
85121SOL     OW57201   1.997   8.046  13.010
85121SOL    HW157202   2.002   8.091  13.094
85121SOL    HW257203   2.022   8.112  12.946
85122SOL     OW57204   6.072   3.894   6.606
85122SOL    HW157205   6.150   3.839   6.601
85122SOL    HW257206   6.097   3.967   6.663
85123SOL     OW57207  13.857   0.944  10.168
85123SOL    HW157208  13.927   0.967  10.229
85123SOL    HW257209  13.784   1.001  10.193
85124SOL     OW57210  11.620  11.668   2.462
85124SOL    HW157211  11.697  11.709   2.423
85124SOL    HW257212  11.576  11.739   2.509
85125SOL     OW57213   6.595   8.450  13.772
85125SOL    HW157214   6.539   8.450  13.694
85125SOL    HW257215   6.628   8.540  13.777
85126SOL     OW57216   6.764   0.980   0.537
85126SOL    HW157217   6.780   1.074   0.547
85126SOL    HW257218   6.807   0.940   0.612
85127SOL     OW57219   3.998  11.974   2.585
85127SOL    HW157220   3.959  11.959   2.499
85127SOL    HW257221   3.993  12.068   2.598
85128SOL     OW57222  14.580   4.531  11.164
85128SOL    HW157223  14.487   4.511  11.168
85128SOL    HW257224  14.590   4.583  11.084
85129SOL     OW57225  13.816   2.367   8.830
85129SOL    HW157226  13.908   2.357   8.854
85129SOL    HW257227  13.795   2.458   8.852
85130SOL     OW57228   7.650   1.904   3.602
85130SOL    HW157229   7.614   1.970   3.661
85130SOL    HW257230   7.577   1.844   3.586
85131SOL     OW57231   4.331   5.285  10.199
85131SOL    HW157232   4.253   5.312  10.152
85131SOL    HW257233   4.372   5.220  10.142
85132SOL     OW57234   1.792   2.042   0.162
85132SOL    HW157235   1.820   2.117   0.111
85132SOL    HW257236   1.768   1.976   0.096
85133SOL     OW57237  11.683   1.094   6.427
85133SOL    HW157238  11.745   1.164   6.408
85133SOL    HW257239  11.729   1.014   6.401
85134SOL     OW57240  12.494   3.221  10.801
85134SOL    HW157241  12.452   3.232  10.716
85134SOL    HW257242  12.518   3.128  10.804
85135SOL     OW57243   6.285  14.745   0.499
85135SOL    HW157244   6.260  14.730   0.590
85135SOL    HW257245   6.201  14.746   0.451
85136SOL     OW57246   4.605   5.538   5.813
85136SOL    HW157247   4.575   5.488   5.737
85136SOL    HW257248   4.536   5.602   5.828
85137SOL     OW57249   6.269   9.276   7.928
85137SOL    HW157250   6.361   9.268   7.952
85137SOL    HW257251   6.254   9.370   7.920
85138SOL     OW57252   6.222   3.952   1.435
85138SOL    HW157253   6.242   3.901   1.513
85138SOL    HW257254   6.128   3.941   1.423
85139SOL     OW57255  11.954   4.028   0.005
85139SOL    HW157256  12.034   4.048  14.836
85139SOL    HW257257  11.942   3.933  14.872
85140SOL     OW57258  12.250   2.168  11.321
85140SOL    HW157259  12.314   2.224  11.276
85140SOL    HW257260  12.280   2.079  11.302
85141SOL     OW57261  14.590   1.355   6.308
85141SOL    HW157262  14.654   1.413   6.349
85141SOL    HW257263  14.588   1.382   6.216
85142SOL     OW57264   1.421   2.678   0.794
85142SOL    HW157265   1.475   2.739   0.744
85142SOL    HW257266   1.481   2.607   0.819
85143SOL     OW57267   1.494   7.156   4.059
85143SOL    HW157268   1.453   7.238   4.035
85143SOL    HW257269   1.436   7.117   4.125
85144SOL     OW57270   1.953   2.287   1.968
85144SOL    HW157271   1.985   2.343   2.039
85144SOL    HW257272   1.945   2.200   2.006
85145SOL     OW57273  11.530   9.569   7.501
85145SOL    HW157274  11.614   9.533   7.530
85145SOL    HW257275  11.468   9.496   7.513
85146SOL     OW57276   5.899  10.264  12.005
85146SOL    HW157277   5.959  10.293  11.937
85146SOL    HW257278   5.890  10.170  11.990
85147SOL     OW57279   4.717  13.377   4.922
85147SOL    HW157280   4.770  13.354   4.846
85147SOL    HW257281   4.749  13.463   4.948
85148SOL     OW57282  11.773   2.683  11.884
85148SOL    HW157283  11.765   2.655  11.793
85148SOL    HW257284  11.857   2.730  11.887
85149SOL     OW57285   9.542   8.106   3.735
85149SOL    HW157286   9.586   8.191   3.729
85149SOL    HW257287   9.563   8.074   3.823
85150SOL     OW57288  13.589  13.902  12.243
85150SOL    HW157289  13.610  13.936  12.156
85150SOL    HW257290  13.627  13.965  12.304
85151SOL     OW57291   8.953   4.912   6.600
85151SOL    HW157292   8.880   4.948   6.651
85151SOL    HW257293   8.922   4.910   6.510
85152SOL     OW57294   3.885  11.928   2.344
85152SOL    HW157295   3.892  11.836   2.317
85152SOL    HW257296   3.793  11.950   2.330
85153SOL     OW57297   8.590   6.357   2.722
85153SOL    HW157298   8.534   6.410   2.665
85153SOL    HW257299   8.679   6.387   2.704
85154SOL     OW57300  11.721   8.114   6.856
85154SOL    HW157301  11.637   8.081   6.824
85154SOL    HW257302  11.759   8.160   6.781
85155SOL     OW57303   6.248   5.888   9.143
85155SOL    HW157304   6.312   5.959   9.135
85155SOL    HW257305   6.218   5.873   9.053
85156SOL     OW57306   4.692   2.633  12.791
85156SOL    HW157307   4.735   2.614  12.707
85156SOL    HW257308   4.601   2.608  12.778
85157SOL     OW57309   6.548   9.206   1.792
85157SOL    HW157310   6.457   9.224   1.767
85157SOL    HW257311   6.551   9.110   1.800
85158SOL     OW57312  10.913   2.782   2.713
85158SOL    HW157313  10.858   2.740   2.647
85158SOL    HW257314  10.862   2.778   2.793
85159SOL     OW57315  12.756  10.634   8.405
85159SOL    HW157316  12.738  10.727   8.418
85159SOL    HW257317  12.757  10.622   8.311
85160SOL     OW57318   5.274   8.795   1.974
85160SOL    HW157319   5.325   8.851   1.915
85160SOL    HW257320   5.316   8.709   1.968
85161SOL     OW57321   1.029   7.369  13.307
85161SOL    HW157322   1.048   7.343  13.217
85161SOL    HW257323   0.948   7.420  13.300
85162SOL     OW57324  14.838   5.199   2.845
85162SOL    HW157325  14.835   5.116   2.797
85162SOL    HW257326  14.747   5.229   2.849
85163SOL     OW57327   9.096  10.707   4.378
85163SOL    HW157328   9.054  10.764   4.442
85163SOL    HW257329   9.026  10.685   4.316
85164SOL     OW57330   0.916   7.250   9.490
85164SOL    HW157331   0.872   7.241   9.574
85164SOL    HW257332   0.946   7.341   9.488
85165SOL     OW57333   2.706   8.528  10.209
85165SOL    HW157334   2.612   8.509  10.199
85165SOL    HW257335   2.712   8.576  10.292
85166SOL     OW57336   3.496  13.164  14.072
85166SOL    HW157337   3.583  13.192  14.043
85166SOL    HW257338   3.476  13.220  14.147
85167SOL     OW57339  10.187   3.225   3.167
85167SOL    HW157340  10.221   3.210   3.255
85167SOL    HW257341  10.187   3.138   3.127
85168SOL     OW57342   0.118   9.900   1.397
85168SOL    HW157343   0.186   9.840   1.428
85168SOL    HW257344   0.038   9.872   1.443
85169SOL     OW57345   6.729   5.582   3.976
85169SOL    HW157346   6.686   5.502   3.944
85169SOL    HW257347   6.768   5.620   3.897
85170SOL     OW57348   8.060  10.855   1.544
85170SOL    HW157349   8.025  10.848   1.633
85170SOL    HW257350   8.142  10.905   1.554
85171SOL     OW57351   2.430  14.122   4.703
85171SOL    HW157352   2.456  14.202   4.658
85171SOL    HW257353   2.336  14.115   4.689
85172SOL     OW57354   5.413  14.458  13.897
85172SOL    HW157355   5.369  14.381  13.935
85172SOL    HW257356   5.478  14.421  13.837
85173SOL     OW57357   4.163  11.344  10.865
85173SOL    HW157358   4.244  11.391  10.848
85173SOL    HW257359   4.105  11.367  10.792
85174SOL     OW57360   6.945  13.068   7.503
85174SOL    HW157361   6.879  13.133   7.476
85174SOL    HW257362   6.934  12.996   7.441
85175SOL     OW57363   9.359   2.282  11.872
85175SOL    HW157364   9.267   2.267  11.894
85175SOL    HW257365   9.361   2.373  11.841
85176SOL     OW57366   2.821   2.015   4.387
85176SOL    HW157367   2.727   2.019   4.368
85176SOL    HW257368   2.851   1.934   4.347
85177SOL     OW57369  14.031   0.597   6.031
85177SOL    HW157370  14.022   0.678   5.982
85177SOL    HW257371  13.949   0.550   6.014
85178SOL     OW57372   6.402   9.905  11.236
85178SOL    HW157373   6.349   9.849  11.292
85178SOL    HW257374   6.342   9.936  11.168
85179SOL     OW57375   0.252   6.492   9.858
85179SOL    HW157376   0.204   6.420   9.899
85179SOL    HW257377   0.337   6.491   9.901
85180SOL     OW57378   0.775  12.349   9.072
85180SOL    HW157379   0.680  12.353   9.081
85180SOL    HW257380   0.806  12.331   9.161
85181SOL     OW57381   8.219  10.881   1.822
85181SOL    HW157382   8.230  10.788   1.802
85181SOL    HW257383   8.125  10.891   1.838
85182SOL     OW57384  14.739   4.224   9.791
85182SOL    HW157385  14.808   4.227   9.858
85182SOL    HW257386  14.703   4.313   9.790
85183SOL     OW57387   4.764  10.742   1.889
85183SOL    HW157388   4.774  10.837   1.884
85183SOL    HW257389   4.711  10.728   1.968
85184SOL     OW57390   9.263   2.450   6.260
85184SOL    HW157391   9.174   2.474   6.234
85184SOL    HW257392   9.317   2.477   6.186
85185SOL     OW57393  13.363   0.676   1.396
85185SOL    HW157394  13.441   0.625   1.420
85185SOL    HW257395  13.291   0.634   1.444
85186SOL     OW57396   4.276   4.958  11.685
85186SOL    HW157397   4.303   5.048  11.670
85186SOL    HW257398   4.235   4.959  11.772
85187SOL     OW57399   3.206   8.813   3.894
85187SOL    HW157400   3.260   8.737   3.914
85187SOL    HW257401   3.267   8.878   3.861
85188SOL     OW57402  13.021  10.392  10.030
85188SOL    HW157403  13.108  10.411  10.064
85188SOL    HW257404  12.991  10.474   9.992
85189SOL     OW57405   9.628  13.698   0.066
85189SOL    HW157406   9.553  13.687   0.124
85189SOL    HW257407   9.630  13.618   0.013
85190SOL     OW57408  13.851   3.418   3.050
85190SOL    HW157409  13.812   3.401   3.135
85190SOL    HW257410  13.915   3.488   3.066
85191SOL     OW57411   1.929   2.318   9.248
85191SOL    HW157412   1.918   2.228   9.279
85191SOL    HW257413   2.020   2.323   9.218
85192SOL     OW57414   4.627  14.800   2.952
85192SOL    HW157415   4.695  14.859   2.983
85192SOL    HW257416   4.558  14.806   3.018
85193SOL     OW57417   8.080   8.678   8.931
85193SOL    HW157418   8.141   8.752   8.931
85193SOL    HW257419   8.001   8.711   8.889
85194SOL     OW57420   0.811  10.385   9.207
85194SOL    HW157421   0.899  10.404   9.175
85194SOL    HW257422   0.758  10.380   9.127
85195SOL     OW57423  10.614  14.657  14.535
85195SOL    HW157424  10.575  14.741  14.558
85195SOL    HW257425  10.701  14.659  14.576
85196SOL     OW57426   8.662  12.812  12.178
85196SOL    HW157427   8.631  12.837  12.091
85196SOL    HW257428   8.722  12.883  12.203
85197SOL     OW57429  11.192   1.993   7.126
85197SOL    HW157430  11.199   2.042   7.208
85197SOL    HW257431  11.181   2.060   7.058
85198SOL     OW57432   6.990   4.800   1.436
85198SOL    HW157433   7.072   4.815   1.388
85198SOL    HW257434   6.951   4.724   1.394
85199SOL     OW57435   5.597  14.838  14.695
85199SOL    HW157436   5.682  14.869  14.728
85199SOL    HW257437   5.607  14.837  14.600
85200SOL     OW57438   3.505   1.098   8.199
85200SOL    HW157439   3.540   1.186   8.182
85200SOL    HW257440   3.582   1.041   8.192
85201SOL     OW57441  13.330   1.240  13.251
85201SOL    HW157442  13.345   1.153  13.215
85201SOL    HW257443  13.405   1.292  13.222
85202SOL     OW57444   4.397  11.662  12.651
85202SOL    HW157445   4.456  11.602  12.605
85202SOL    HW257446   4.359  11.609  12.721
85203SOL     OW57447   5.509   7.551   4.689
85203SOL    HW157448   5.568   7.507   4.750
85203SOL    HW257449   5.467   7.479   4.640
85204SOL     OW57450  14.616   1.748   6.183
85204SOL    HW157451  14.709   1.768   6.175
85204SOL    HW257452  14.573   1.810   6.124
85205SOL     OW57453   3.773  12.271   3.331
85205SOL    HW157454   3.727  12.267   3.247
85205SOL    HW257455   3.712  12.231   3.393
85206SOL     OW57456  10.814   9.451   8.991
85206SOL    HW157457  10.750   9.522   8.999
85206SOL    HW257458  10.817   9.412   9.079
85207SOL     OW57459  12.208   0.859  13.043
85207SOL    HW157460  12.178   0.925  13.105
85207SOL    HW257461  12.296   0.837  13.073
85208SOL     OW57462   3.749  14.632   6.407
85208SOL    HW157463   3.778  14.678   6.486
85208SOL    HW257464   3.704  14.554   6.440
85209SOL     OW57465   5.891  11.640   6.323
85209SOL    HW157466   5.900  11.706   6.254
85209SOL    HW257467   5.801  11.608   6.314
85210SOL     OW57468  13.954  13.736  14.372
85210SOL    HW157469  13.975  13.821  14.333
85210SOL    HW257470  13.967  13.749  14.466
85211SOL     OW57471   0.114   3.797   2.060
85211SOL    HW157472   0.144   3.884   2.084
85211SOL    HW257473   0.157   3.738   2.122
85212SOL     OW57474  13.296   9.418   0.311
85212SOL    HW157475  13.265   9.364   0.238
85212SOL    HW257476  13.239   9.394   0.384
85213SOL     OW57477   7.239  10.843   8.074
85213SOL    HW157478   7.148  10.824   8.051
85213SOL    HW257479   7.284  10.759   8.066
85214SOL     OW57480  11.269  10.567  13.129
85214SOL    HW157481  11.321  10.515  13.191
85214SOL    HW257482  11.210  10.503  13.089
85215SOL     OW57483   2.094   7.529  13.153
85215SOL    HW157484   2.127   7.460  13.095
85215SOL    HW257485   2.020   7.489  13.199
85216SOL     OW57486  13.535   8.265   4.805
85216SOL    HW157487  13.584   8.287   4.885
85216SOL    HW257488  13.573   8.183   4.775
85217SOL     OW57489   0.397   9.608   6.914
85217SOL    HW157490   0.341   9.644   6.845
85217SOL    HW257491   0.364   9.518   6.926
85218SOL     OW57492   7.895   2.366   5.545
85218SOL    HW157493   7.836   2.439   5.527
85218SOL    HW257494   7.978   2.407   5.569
85219SOL     OW57495   2.535  10.549  11.397
85219SOL    HW157496   2.629  10.555  11.379
85219SOL    HW257497   2.505  10.640  11.400
85220SOL     OW57498  11.796  13.380  12.283
85220SOL    HW157499  11.792  13.353  12.191
85220SOL    HW257500  11.706  13.376  12.313
85221SOL     OW57501   1.208  14.715   8.286
85221SOL    HW157502   1.248  14.799   8.308
85221SOL    HW257503   1.281  14.653   8.283
85222SOL     OW57504   3.640   5.822   7.452
85222SOL    HW157505   3.588   5.835   7.373
85222SOL    HW257506   3.583   5.773   7.511
85223SOL     OW57507   2.561  11.406   7.871
85223SOL    HW157508   2.542  11.499   7.855
85223SOL    HW257509   2.545  11.364   7.787
85224SOL     OW57510  12.152   6.289  11.425
85224SOL    HW157511  12.089   6.357  11.447
85224SOL    HW257512  12.111   6.207  11.453
85225SOL     OW57513  14.820   4.541   9.444
85225SOL    HW157514  14.775   4.570   9.524
85225SOL    HW257515   0.014   4.490   9.476
85226SOL     OW57516   0.266   4.418  14.110
85226SOL    HW157517   0.313   4.371  14.042
85226SOL    HW257518   0.174   4.395  14.095
85227SOL     OW57519   1.339  10.172   0.608
85227SOL    HW157520   1.370  10.155   0.697
85227SOL    HW257521   1.245  10.153   0.611
85228SOL     OW57522  12.821  13.578   3.749
85228SOL    HW157523  12.910  13.561   3.780
85228SOL    HW257524  12.793  13.655   3.799
85229SOL     OW57525   4.669  11.406  10.923
85229SOL    HW157526   4.748  11.448  10.956
85229SOL    HW257527   4.624  11.475  10.875
85230SOL     OW57528   2.997   4.373   1.683
85230SOL    HW157529   2.965   4.350   1.770
85230SOL    HW257530   3.069   4.434   1.700
85231SOL     OW57531   3.782   7.581   8.271
85231SOL    HW157532   3.862   7.577   8.322
85231SOL    HW257533   3.761   7.490   8.250
85232SOL     OW57534  13.015  14.028  11.647
85232SOL    HW157535  13.052  13.994  11.728
85232SOL    HW257536  13.061  14.110  11.632
85233SOL     OW57537  12.328  13.192   8.034
85233SOL    HW157538  12.277  13.212   8.113
85233SOL    HW257539  12.323  13.272   7.981
85234SOL     OW57540   2.332   5.169   0.630
85234SOL    HW157541   2.365   5.132   0.548
85234SOL    HW257542   2.394   5.240   0.650
85235SOL     OW57543   2.405   9.293   0.153
85235SOL    HW157544   2.403   9.375   0.202
85235SOL    HW257545   2.374   9.227   0.216
85236SOL     OW57546  13.479   6.499  10.856
85236SOL    HW157547  13.487   6.567  10.923
85236SOL    HW257548  13.407   6.529  10.800
85237SOL     OW57549   2.764   7.937   4.832
85237SOL    HW157550   2.751   8.030   4.816
85237SOL    HW257551   2.800   7.932   4.920
85238SOL     OW57552   5.304  13.974  10.976
85238SOL    HW157553   5.291  14.025  10.896
85238SOL    HW257554   5.243  13.900  10.966
85239SOL     OW57555   8.363  13.137   3.791
85239SOL    HW157556   8.344  13.118   3.699
85239SOL    HW257557   8.278  13.163   3.827
85240SOL     OW57558  12.131   7.929   0.843
85240SOL    HW157559  12.166   8.004   0.796
85240SOL    HW257560  12.153   7.853   0.789
85241SOL     OW57561   2.560  14.423   7.183
85241SOL    HW157562   2.638  14.421   7.237
85241SOL    HW257563   2.536  14.331   7.171
85242SOL     OW57564   0.497   1.141   9.698
85242SOL    HW157565   0.446   1.074   9.744
85242SOL    HW257566   0.453   1.223   9.718
85243SOL     OW57567   8.811  12.103   3.720
85243SOL    HW157568   8.804  12.158   3.642
85243SOL    HW257569   8.891  12.052   3.707
85244SOL     OW57570   0.445   2.992  14.293
85244SOL    HW157571   0.489   2.987  14.378
85244SOL    HW257572   0.408   2.904  14.280
85245SOL     OW57573  14.184  12.930  13.994
85245SOL    HW157574  14.210  12.839  13.983
85245SOL    HW257575  14.193  12.946  14.088
85246SOL     OW57576   9.810   7.626  12.723
85246SOL    HW157577   9.727   7.675  12.725
85246SOL    HW257578   9.785   7.536  12.704
85247SOL     OW57579   9.222  12.140   8.087
85247SOL    HW157580   9.207  12.222   8.133
85247SOL    HW257581   9.299  12.157   8.032
85248SOL     OW57582   3.322   1.466   7.737
85248SOL    HW157583   3.328   1.380   7.693
85248SOL    HW257584   3.285   1.446   7.823
85249SOL     OW57585  13.220   5.945  14.118
85249SOL    HW157586  13.135   5.919  14.083
85249SOL    HW257587  13.201   5.972  14.208
85250SOL     OW57588   8.850   5.860   4.991
85250SOL    HW157589   8.851   5.949   5.027
85250SOL    HW257590   8.760   5.830   5.003
85251SOL     OW57591   2.210  10.333   7.064
85251SOL    HW157592   2.253  10.374   6.989
85251SOL    HW257593   2.258  10.251   7.078
85252SOL     OW57594  12.830   3.926  14.052
85252SOL    HW157595  12.740   3.947  14.077
85252SOL    HW257596  12.854   3.852  14.108
85253SOL     OW57597  13.230  13.551   4.593
85253SOL    HW157598  13.167  13.615   4.559
85253SOL    HW257599  13.204  13.469   4.552
85254SOL     OW57600   9.605  11.907   5.940
85254SOL    HW157601   9.603  11.813   5.958
85254SOL    HW257602   9.694  11.934   5.966
85255SOL     OW57603  11.537   3.606  13.221
85255SOL    HW157604  11.458   3.560  13.249
85255SOL    HW257605  11.505   3.681  13.171
85256SOL     OW57606  12.995   2.479   1.777
85256SOL    HW157607  12.972   2.435   1.859
85256SOL    HW257608  12.912   2.490   1.731
85257SOL     OW57609  13.298  14.620  12.687
85257SOL    HW157610  13.286  14.682  12.759
85257SOL    HW257611  13.227  14.641  12.626
85258SOL     OW57612  13.302  13.562   6.331
85258SOL    HW157613  13.328  13.639   6.382
85258SOL    HW257614  13.363  13.494   6.358
85259SOL     OW57615   1.752   9.837   1.353
85259SOL    HW157616   1.836   9.881   1.339
85259SOL    HW257617   1.768   9.776   1.425
85260SOL     OW57618   7.237   0.714   5.742
85260SOL    HW157619   7.311   0.763   5.708
85260SOL    HW257620   7.200   0.670   5.666
85261SOL     OW57621   9.938  14.013   6.041
85261SOL    HW157622   9.890  13.990   5.962
85261SOL    HW257623   9.897  14.094   6.071
85262SOL     OW57624  14.414   4.609   0.622
85262SOL    HW157625  14.455   4.620   0.537
85262SOL    HW257626  14.362   4.688   0.635
85263SOL     OW57627   4.356  14.646  13.580
85263SOL    HW157628   4.290  14.713  13.595
85263SOL    HW257629   4.410  14.647  13.658
85264SOL     OW57630  12.344   3.996  12.328
85264SOL    HW157631  12.307   4.032  12.247
85264SOL    HW257632  12.437   3.982  12.307
85265SOL     OW57633   4.434   1.980   6.660
85265SOL    HW157634   4.390   1.916   6.715
85265SOL    HW257635   4.460   1.931   6.582
85266SOL     OW57636  10.294  12.084  13.296
85266SOL    HW157637  10.351  12.143  13.246
85266SOL    HW257638  10.249  12.141  13.358
85267SOL     OW57639   3.035   2.736   6.389
85267SOL    HW157640   3.028   2.781   6.305
85267SOL    HW257641   3.066   2.648   6.367
85268SOL     OW57642  12.424   6.250   1.454
85268SOL    HW157643  12.378   6.294   1.525
85268SOL    HW257644  12.517   6.270   1.469
85269SOL     OW57645  12.859  10.116  11.827
85269SOL    HW157646  12.907  10.034  11.840
85269SOL    HW257647  12.916  10.183  11.865
85270SOL     OW57648  13.434   1.230   9.473
85270SOL    HW157649  13.481   1.303   9.513
85270SOL    HW257650  13.466   1.153   9.520
85271SOL     OW57651   8.788   8.006   9.876
85271SOL    HW157652   8.864   8.000   9.934
85271SOL    HW257653   8.824   8.038   9.793
85272SOL     OW57654   3.993   0.758   0.650
85272SOL    HW157655   3.912   0.710   0.669
85272SOL    HW257656   3.983   0.841   0.697
85273SOL     OW57657   8.057  14.317  12.898
85273SOL    HW157658   8.103  14.244  12.856
85273SOL    HW257659   8.014  14.363  12.826
85274SOL     OW57660  10.604   0.079   6.531
85274SOL    HW157661  10.623   0.105   6.442
85274SOL    HW257662  10.510   0.091   6.541
85275SOL     OW57663   1.003   2.181  14.426
85275SOL    HW157664   1.035   2.267  14.453
85275SOL    HW257665   0.973   2.140  14.508
85276SOL     OW57666  14.242   7.046  10.107
85276SOL    HW157667  14.169   7.092  10.147
85276SOL    HW257668  14.316   7.063  10.166
85277SOL     OW57669   2.362   1.406   9.336
85277SOL    HW157670   2.347   1.311   9.329
85277SOL    HW257671   2.421   1.416   9.411
85278SOL     OW57672  10.822   2.528  11.645
85278SOL    HW157673  10.786   2.612  11.616
85278SOL    HW257674  10.850   2.485  11.565
85279SOL     OW57675   2.831   3.315   8.344
85279SOL    HW157676   2.754   3.370   8.331
85279SOL    HW257677   2.830   3.293   8.437
85280SOL     OW57678  11.160   3.791  11.742
85280SOL    HW157679  11.114   3.720  11.787
85280SOL    HW257680  11.251   3.782  11.768
85281SOL     OW57681  14.626   6.790   8.517
85281SOL    HW157682  14.643   6.875   8.558
85281SOL    HW257683  14.703   6.775   8.463
85282SOL     OW57684  12.366   0.307   9.075
85282SOL    HW157685  12.294   0.367   9.097
85282SOL    HW257686  12.336   0.260   8.998
85283SOL     OW57687   5.903   1.972   1.241
85283SOL    HW157688   5.886   2.040   1.175
85283SOL    HW257689   5.982   2.003   1.286
85284SOL     OW57690   8.066   9.580  14.737
85284SOL    HW157691   8.027   9.624  14.812
85284SOL    HW257692   8.108   9.502  14.774
85285SOL     OW57693  11.438   3.109   8.105
85285SOL    HW157694  11.368   3.154   8.058
85285SOL    HW257695  11.397   3.029   8.138
85286SOL     OW57696   1.338   0.920   9.297
85286SOL    HW157697   1.381   1.004   9.282
85286SOL    HW257698   1.251   0.930   9.258
85287SOL     OW57699  14.865   0.486   7.146
85287SOL    HW157700   0.021   0.413   7.095
85287SOL    HW257701   0.042   0.560   7.123
85288SOL     OW57702   3.301  12.266   4.706
85288SOL    HW157703   3.249  12.346   4.714
85288SOL    HW257704   3.385  12.288   4.747
85289SOL     OW57705   2.270  11.676   8.053
85289SOL    HW157706   2.186  11.629   8.059
85289SOL    HW257707   2.280  11.719   8.138
85290SOL     OW57708   4.141   9.653  11.132
85290SOL    HW157709   4.184   9.626  11.213
85290SOL    HW257710   4.162   9.583  11.069
85291SOL     OW57711   7.763   6.458   5.910
85291SOL    HW157712   7.837   6.399   5.908
85291SOL    HW257713   7.745   6.473   6.003
85292SOL     OW57714  10.987   9.389  10.885
85292SOL    HW157715  11.009   9.468  10.934
85292SOL    HW257716  10.956   9.328  10.951
85293SOL     OW57717   2.614   8.364   5.956
85293SOL    HW157718   2.660   8.341   5.875
85293SOL    HW257719   2.587   8.455   5.944
85294SOL     OW57720  14.164  13.256  10.285
85294SOL    HW157721  14.200  13.210  10.209
85294SOL    HW257722  14.223  13.232  10.357
85295SOL     OW57723   7.164  12.343  13.894
85295SOL    HW157724   7.153  12.306  13.982
85295SOL    HW257725   7.167  12.267  13.836
85296SOL     OW57726  10.188   6.220  10.948
85296SOL    HW157727  10.108   6.177  10.978
85296SOL    HW257728  10.231   6.250  11.028
85297SOL     OW57729  13.386   2.177  14.841
85297SOL    HW157730  13.342   2.223  14.769
85297SOL    HW257731  13.416   2.095  14.802
85298SOL     OW57732   1.404  11.571   3.108
85298SOL    HW157733   1.326  11.594   3.058
85298SOL    HW257734   1.371  11.546   3.194
85299SOL     OW57735   5.743   9.517   8.174
85299SOL    HW157736   5.762   9.577   8.246
85299SOL    HW257737   5.827   9.504   8.131
85300SOL     OW57738   3.074  10.380   6.375
85300SOL    HW157739   3.112  10.467   6.361
85300SOL    HW257740   3.147  10.328   6.410
85301SOL     OW57741   6.722  13.154   3.343
85301SOL    HW157742   6.629  13.132   3.351
85301SOL    HW257743   6.768  13.079   3.379
85302SOL     OW57744   0.386   9.468   6.508
85302SOL    HW157745   0.425   9.552   6.482
85302SOL    HW257746   0.453   9.403   6.487
85303SOL     OW57747   3.873   8.645   6.974
85303SOL    HW157748   3.834   8.581   7.033
85303SOL    HW257749   3.960   8.609   6.954
85304SOL     OW57750  13.841  10.317   9.778
85304SOL    HW157751  13.755  10.311   9.736
85304SOL    HW257752  13.868  10.226   9.791
85305SOL     OW57753   4.956   7.250  14.206
85305SOL    HW157754   5.032   7.283  14.253
85305SOL    HW257755   4.941   7.314  14.137
85306SOL     OW57756   0.591   2.865   8.254
85306SOL    HW157757   0.687   2.868   8.250
85306SOL    HW257758   0.567   2.803   8.185
85307SOL     OW57759   8.637   4.152   2.958
85307SOL    HW157760   8.634   4.153   3.054
85307SOL    HW257761   8.725   4.120   2.937
85308SOL     OW57762  11.942   0.075  13.104
85308SOL    HW157763  11.961   0.029  13.186
85308SOL    HW257764  11.849   0.057  13.089
85309SOL     OW57765   0.710  11.584  13.703
85309SOL    HW157766   0.699  11.642  13.628
85309SOL    HW257767   0.786  11.530  13.681
85310SOL     OW57768  10.339   0.945   4.680
85310SOL    HW157769  10.362   0.986   4.764
85310SOL    HW257770  10.310   0.857   4.704
85311SOL     OW57771  14.038   5.834  12.697
85311SOL    HW157772  14.055   5.741  12.677
85311SOL    HW257773  13.974   5.832  12.767
85312SOL     OW57774   2.698   0.817   6.184
85312SOL    HW157775   2.693   0.841   6.092
85312SOL    HW257776   2.773   0.868   6.217
85313SOL     OW57777   9.944   9.715  10.872
85313SOL    HW157778   9.933   9.806  10.901
85313SOL    HW257779  10.032   9.691  10.901
85314SOL     OW57780   3.047   7.948   7.225
85314SOL    HW157781   3.044   8.036   7.186
85314SOL    HW257782   3.139   7.921   7.217
85315SOL     OW57783   3.520   7.145   4.243
85315SOL    HW157784   3.532   7.064   4.193
85315SOL    HW257785   3.564   7.212   4.191
85316SOL     OW57786  12.133   9.320   3.971
85316SOL    HW157787  12.130   9.371   4.052
85316SOL    HW257788  12.050   9.272   3.971
85317SOL     OW57789  12.285   6.839   3.749
85317SOL    HW157790  12.225   6.908   3.722
85317SOL    HW257791  12.229   6.775   3.793
85318SOL     OW57792  14.667  12.186  12.079
85318SOL    HW157793  14.717  12.207  11.999
85318SOL    HW257794  14.724  12.126  12.127
85319SOL     OW57795   0.150   1.929   9.396
85319SOL    HW157796   0.191   1.844   9.411
85319SOL    HW257797   0.154   1.941   9.301
85320SOL     OW57798   4.796   2.153   3.696
85320SOL    HW157799   4.820   2.116   3.780
85320SOL    HW257800   4.814   2.083   3.633
85321SOL     OW57801   7.507   7.831  10.847
85321SOL    HW157802   7.440   7.811  10.781
85321SOL    HW257803   7.565   7.755  10.845
85322SOL     OW57804   6.536   1.250   1.820
85322SOL    HW157805   6.512   1.253   1.913
85322SOL    HW257806   6.630   1.268   1.819
85323SOL     OW57807   0.784  13.770   1.257
85323SOL    HW157808   0.729  13.731   1.325
85323SOL    HW257809   0.724  13.787   1.184
85324SOL     OW57810   0.290   9.110  11.230
85324SOL    HW157811   0.320   9.051  11.299
85324SOL    HW257812   0.195   9.112  11.239
85325SOL     OW57813  12.544   5.427   8.678
85325SOL    HW157814  12.531   5.391   8.590
85325SOL    HW257815  12.505   5.515   8.673
85326SOL     OW57816  11.098   9.862   1.123
85326SOL    HW157817  11.035   9.794   1.149
85326SOL    HW257818  11.067   9.893   1.038
85327SOL     OW57819   2.504   8.898   2.922
85327SOL    HW157820   2.445   8.972   2.908
85327SOL    HW257821   2.582   8.936   2.961
85328SOL     OW57822  11.109   6.378   9.543
85328SOL    HW157823  11.171   6.307   9.525
85328SOL    HW257824  11.146   6.454   9.500
85329SOL     OW57825   8.294   4.659   4.338
85329SOL    HW157826   8.308   4.726   4.404
85329SOL    HW257827   8.230   4.698   4.278
85330SOL     OW57828   4.143   8.333   9.058
85330SOL    HW157829   4.230   8.357   9.025
85330SOL    HW257830   4.093   8.414   9.053
85331SOL     OW57831   7.871  12.760  11.754
85331SOL    HW157832   7.776  12.760  11.748
85331SOL    HW257833   7.900  12.832  11.699
85332SOL     OW57834  13.902   9.778   4.012
85332SOL    HW157835  13.975   9.716   4.018
85332SOL    HW257836  13.934   9.857   4.056
85333SOL     OW57837  10.012   4.823  13.515
85333SOL    HW157838  10.098   4.860  13.536
85333SOL    HW257839   9.952   4.867  13.575
85334SOL     OW57840  13.874   7.906  13.221
85334SOL    HW157841  13.827   7.950  13.293
85334SOL    HW257842  13.820   7.924  13.144
85335SOL     OW57843   7.832   8.191  12.498
85335SOL    HW157844   7.851   8.097  12.496
85335SOL    HW257845   7.835   8.213  12.591
85336SOL     OW57846   5.162   3.877   1.426
85336SOL    HW157847   5.237   3.936   1.427
85336SOL    HW257848   5.103   3.913   1.360
85337SOL     OW57849   9.630  11.393   2.195
85337SOL    HW157850   9.688  11.422   2.265
85337SOL    HW257851   9.542  11.396   2.234
85338SOL     OW57852  12.838   2.137   1.805
85338SOL    HW157853  12.874   2.205   1.863
85338SOL    HW257854  12.875   2.055   1.838
85339SOL     OW57855   8.070  10.226   6.558
85339SOL    HW157856   7.989  10.263   6.522
85339SOL    HW257857   8.079  10.141   6.516
85340SOL     OW57858   2.393   5.512   5.515
85340SOL    HW157859   2.362   5.444   5.454
85340SOL    HW257860   2.438   5.463   5.584
85341SOL     OW57861   4.968  10.594  12.201
85341SOL    HW157862   4.987  10.521  12.142
85341SOL    HW257863   5.053  10.637  12.213
85342SOL     OW57864   1.147  12.462   4.412
85342SOL    HW157865   1.115  12.545   4.377
85342SOL    HW257866   1.213  12.488   4.477
85343SOL     OW57867   6.961  10.719   1.878
85343SOL    HW157868   6.946  10.723   1.972
85343SOL    HW257869   6.943  10.808   1.847
85344SOL     OW57870   1.297   2.762   5.396
85344SOL    HW157871   1.372   2.821   5.397
85344SOL    HW257872   1.317   2.697   5.328
85345SOL     OW57873   1.596   9.677   7.457
85345SOL    HW157874   1.571   9.713   7.542
85345SOL    HW257875   1.661   9.739   7.422
85346SOL     OW57876   0.572   3.555  10.870
85346SOL    HW157877   0.610   3.642  10.864
85346SOL    HW257878   0.478   3.570  10.878
85347SOL     OW57879   1.903   0.821  12.115
85347SOL    HW157880   1.822   0.793  12.073
85347SOL    HW257881   1.972   0.781  12.062
85348SOL     OW57882   5.480  10.199  10.970
85348SOL    HW157883   5.464  10.159  11.056
85348SOL    HW257884   5.490  10.124  10.911
85349SOL     OW57885   3.340   9.237  10.871
85349SOL    HW157886   3.370   9.175  10.937
85349SOL    HW257887   3.262   9.196  10.833
85350SOL     OW57888   4.758   2.879  14.577
85350SOL    HW157889   4.804   2.928  14.509
85350SOL    HW257890   4.784   2.788  14.562
85351SOL     OW57891   4.020   1.612   6.034
85351SOL    HW157892   3.991   1.541   6.091
85351SOL    HW257893   3.996   1.692   6.080
85352SOL     OW57894  10.987   9.394   6.950
85352SOL    HW157895  10.947   9.308   6.956
85352SOL    HW257896  11.080   9.379   6.971
85353SOL     OW57897  12.885   4.564  11.780
85353SOL    HW157898  12.852   4.627  11.716
85353SOL    HW257899  12.880   4.609  11.864
85354SOL     OW57900   2.376   0.446   0.340
85354SOL    HW157901   2.453   0.390   0.348
85354SOL    HW257902   2.369   0.489   0.425
85355SOL     OW57903   1.919   3.354   2.218
85355SOL    HW157904   1.938   3.418   2.287
85355SOL    HW257905   1.902   3.407   2.140
85356SOL     OW57906   1.303   0.770   2.945
85356SOL    HW157907   1.251   0.763   2.865
85356SOL    HW257908   1.284   0.690   2.994
85357SOL     OW57909   9.735  14.737   7.063
85357SOL    HW157910   9.713  14.752   6.971
85357SOL    HW257911   9.811  14.793   7.080
85358SOL     OW57912   9.414   6.007   7.509
85358SOL    HW157913   9.509   6.008   7.520
85358SOL    HW257914   9.398   5.938   7.444
85359SOL     OW57915   3.675   3.896   8.333
85359SOL    HW157916   3.713   3.927   8.415
85359SOL    HW257917   3.582   3.886   8.351
85360SOL     OW57918   1.394   9.543   0.956
85360SOL    HW157919   1.467   9.494   0.994
85360SOL    HW257920   1.361   9.486   0.886
85361SOL     OW57921  12.197   3.385   9.720
85361SOL    HW157922  12.241   3.461   9.682
85361SOL    HW257923  12.161   3.338   9.645
85362SOL     OW57924  12.902  13.283   2.858
85362SOL    HW157925  12.837  13.319   2.919
85362SOL    HW257926  12.953  13.222   2.911
85363SOL     OW57927  14.810   7.304   0.551
85363SOL    HW157928  14.759   7.359   0.610
85363SOL    HW257929  14.834   7.361   0.478
85364SOL     OW57930   2.482   2.446   3.294
85364SOL    HW157931   2.438   2.523   3.331
85364SOL    HW257932   2.417   2.407   3.236
85365SOL     OW57933   7.371   7.418  13.548
85365SOL    HW157934   7.325   7.486  13.597
85365SOL    HW257935   7.302   7.359  13.518
85366SOL     OW57936   1.158   8.169   8.543
85366SOL    HW157937   1.131   8.259   8.558
85366SOL    HW257938   1.181   8.137   8.631
85367SOL     OW57939   0.736  14.448   4.278
85367SOL    HW157940   0.779  14.533   4.271
85367SOL    HW257941   0.725  14.434   4.372
85368SOL     OW57942   4.615   7.454  12.698
85368SOL    HW157943   4.698   7.421  12.731
85368SOL    HW257944   4.636   7.491  12.612
85369SOL     OW57945   9.724   1.691  11.125
85369SOL    HW157946   9.779   1.754  11.171
85369SOL    HW257947   9.668   1.654  11.193
85370SOL     OW57948  12.184   5.406   0.298
85370SOL    HW157949  12.233   5.399   0.380
85370SOL    HW257950  12.148   5.319   0.284
85371SOL     OW57951   7.254  11.679   4.906
85371SOL    HW157952   7.197  11.731   4.962
85371SOL    HW257953   7.260  11.594   4.950
85372SOL     OW57954   7.845  11.745   7.972
85372SOL    HW157955   7.910  11.678   7.993
85372SOL    HW257956   7.761  11.701   7.980
85373SOL     OW57957  10.305   6.009   7.930
85373SOL    HW157958  10.230   6.054   7.892
85373SOL    HW257959  10.269   5.959   8.003
85374SOL     OW57960  11.901  10.115  11.464
85374SOL    HW157961  11.880  10.166  11.542
85374SOL    HW257962  11.873  10.026  11.485
85375SOL     OW57963   5.343   7.553   8.214
85375SOL    HW157964   5.367   7.479   8.159
85375SOL    HW257965   5.369   7.630   8.163
85376SOL     OW57966   7.165  11.620  13.622
85376SOL    HW157967   7.104  11.662  13.683
85376SOL    HW257968   7.238  11.592  13.677
85377SOL     OW57969   3.116   9.117  13.874
85377SOL    HW157970   3.142   9.029  13.846
85377SOL    HW257971   3.086   9.159  13.794
85378SOL     OW57972   3.353   4.871  12.395
85378SOL    HW157973   3.441   4.854  12.431
85378SOL    HW257974   3.363   4.856  12.301
85379SOL     OW57975  11.719  10.395  10.076
85379SOL    HW157976  11.691  10.314  10.035
85379SOL    HW257977  11.810  10.380  10.099
85380SOL     OW57978  13.712  10.305   8.112
85380SOL    HW157979  13.768  10.267   8.043
85380SOL    HW257980  13.772  10.361   8.162
85381SOL     OW57981  10.755   3.289   7.550
85381SOL    HW157982  10.697   3.251   7.484
85381SOL    HW257983  10.726   3.380   7.558
85382SOL     OW57984   9.288  14.103  10.152
85382SOL    HW157985   9.205  14.144  10.176
85382SOL    HW257986   9.325  14.074  10.236
85383SOL     OW57987   2.844   7.521   7.753
85383SOL    HW157988   2.906   7.475   7.696
85383SOL    HW257989   2.897   7.579   7.806
85384SOL     OW57990   2.562  10.981   2.676
85384SOL    HW157991   2.517  11.056   2.714
85384SOL    HW257992   2.638  11.019   2.631
85385SOL     OW57993   4.921   2.054   7.526
85385SOL    HW157994   4.887   1.996   7.458
85385SOL    HW257995   4.947   1.995   7.597
85386SOL     OW57996  11.771  14.126   8.183
85386SOL    HW157997  11.695  14.068   8.181
85386SOL    HW257998  11.769  14.164   8.271
85387SOL     OW57999   1.171   9.644  12.030
85387SOL    HW158000   1.198   9.600  11.949
85387SOL    HW258001   1.177   9.737  12.010
85388SOL     OW58002  13.047  11.329   2.891
85388SOL    HW158003  13.021  11.313   2.800
85388SOL    HW258004  13.125  11.383   2.884
85389SOL     OW58005  12.952   0.446  12.452
85389SOL    HW158006  13.031   0.399  12.479
85389SOL    HW258007  12.982   0.507  12.384
85390SOL     OW58008   2.064   1.948  10.595
85390SOL    HW158009   2.146   1.995  10.607
85390SOL    HW258010   2.067   1.916  10.505
85391SOL     OW58011  12.324   7.339   0.443
85391SOL    HW158012  12.394   7.290   0.486
85391SOL    HW258013  12.354   7.430   0.444
85392SOL     OW58014  13.295   3.053   8.586
85392SOL    HW158015  13.315   2.997   8.661
85392SOL    HW258016  13.374   3.107   8.575
85393SOL     OW58017   6.558  12.839   4.674
85393SOL    HW158018   6.533  12.929   4.693
85393SOL    HW258019   6.641  12.847   4.627
85394SOL     OW58020   5.320   3.275   4.227
85394SOL    HW158021   5.233   3.314   4.222
85394SOL    HW258022   5.359   3.292   4.141
85395SOL     OW58023   4.033   4.401  14.472
85395SOL    HW158024   4.083   4.331  14.514
85395SOL    HW258025   4.066   4.403  14.382
85396SOL     OW58026  13.200   2.873   3.295
85396SOL    HW158027  13.198   2.966   3.274
85396SOL    HW258028  13.240   2.831   3.218
85397SOL     OW58029   8.846   0.089  12.702
85397SOL    HW158030   8.813   0.091  12.792
85397SOL    HW258031   8.910   0.018  12.702
85398SOL     OW58032  14.543   0.831   0.628
85398SOL    HW158033  14.570   0.786   0.548
85398SOL    HW258034  14.458   0.793   0.649
85399SOL     OW58035  13.526   4.916  11.105
85399SOL    HW158036  13.551   4.824  11.114
85399SOL    HW258037  13.457   4.915  11.039
85400SOL     OW58038   9.600   4.806  13.824
85400SOL    HW158039   9.535   4.848  13.880
85400SOL    HW258040   9.639   4.738  13.879
85401SOL     OW58041   8.202   1.200   3.063
85401SOL    HW158042   8.131   1.142   3.089
85401SOL    HW258043   8.200   1.200   2.968
85402SOL     OW58044   7.394   4.175  14.449
85402SOL    HW158045   7.306   4.201  14.475
85402SOL    HW258046   7.419   4.238  14.381
85403SOL     OW58047  13.723   5.892  12.712
85403SOL    HW158048  13.674   5.810  12.720
85403SOL    HW258049  13.755   5.892  12.622
85404SOL     OW58050   6.523   8.843  12.491
85404SOL    HW158051   6.606   8.888  12.505
85404SOL    HW258052   6.479   8.846  12.576
85405SOL     OW58053   3.325  14.764   1.125
85405SOL    HW158054   3.391  14.714   1.174
85405SOL    HW258055   3.372  14.841   1.093
85406SOL     OW58056   2.820   7.912   8.258
85406SOL    HW158057   2.825   7.924   8.163
85406SOL    HW258058   2.727   7.919   8.278
85407SOL     OW58059   7.601  14.879   0.003
85407SOL    HW158060   7.629   0.015  14.792
85407SOL    HW258061   7.668   0.044   0.056
85408SOL     OW58062   5.028  14.286   2.793
85408SOL    HW158063   4.934  14.270   2.788
85408SOL    HW258064   5.064  14.204   2.828
85409SOL     OW58065   3.917  11.931   7.585
85409SOL    HW158066   3.946  11.840   7.587
85409SOL    HW258067   3.940  11.965   7.671
85410SOL     OW58068   8.949   7.601   8.326
85410SOL    HW158069   8.973   7.628   8.238
85410SOL    HW258070   8.920   7.682   8.368
85411SOL     OW58071   8.350  11.740  12.080
85411SOL    HW158072   8.398  11.823  12.085
85411SOL    HW258073   8.277  11.757  12.021
85412SOL     OW58074  10.958   3.238   0.371
85412SOL    HW158075  10.945   3.175   0.300
85412SOL    HW258076  10.884   3.223   0.430
85413SOL     OW58077   5.253   9.007   9.769
85413SOL    HW158078   5.185   9.068   9.800
85413SOL    HW258079   5.327   9.063   9.746
85414SOL     OW58080  12.128  13.363   6.870
85414SOL    HW158081  12.214  13.347   6.830
85414SOL    HW258082  12.148  13.416   6.948
85415SOL     OW58083   4.205  12.516   7.063
85415SOL    HW158084   4.233  12.584   7.001
85415SOL    HW258085   4.163  12.450   7.009
85416SOL     OW58086   4.890  11.512  11.360
85416SOL    HW158087   4.879  11.421  11.332
85416SOL    HW258088   4.974  11.538  11.323
85417SOL     OW58089  10.479  12.549  14.227
85417SOL    HW158090  10.476  12.455  14.212
85417SOL    HW258091  10.572  12.568  14.244
85418SOL     OW58092   2.311  14.507  10.234
85418SOL    HW158093   2.289  14.591  10.274
85418SOL    HW258094   2.401  14.490  10.262
85419SOL     OW58095   3.053   5.958   1.309
85419SOL    HW158096   2.977   6.012   1.286
85419SOL    HW258097   3.090   6.000   1.387
85420SOL     OW58098   0.765  10.769  10.291
85420SOL    HW158099   0.855  10.736  10.288
85420SOL    HW258100   0.758  10.812  10.376
85421SOL     OW58101   7.363   8.207   1.207
85421SOL    HW158102   7.389   8.187   1.297
85421SOL    HW258103   7.292   8.271   1.217
85422SOL     OW58104   4.063   5.053  12.472
85422SOL    HW158105   4.083   4.960  12.466
85422SOL    HW258106   4.073   5.074  12.565
85423SOL     OW58107   7.675   1.454   4.498
85423SOL    HW158108   7.616   1.529   4.496
85423SOL    HW258109   7.727   1.466   4.578
85424SOL     OW58110   3.208   1.233  11.457
85424SOL    HW158111   3.218   1.268  11.368
85424SOL    HW258112   3.119   1.199  11.460
85425SOL     OW58113   2.257   1.634  14.688
85425SOL    HW158114   2.231   1.706  14.746
85425SOL    HW258115   2.184   1.572  14.693
85426SOL     OW58116   4.391   9.171   6.291
85426SOL    HW158117   4.333   9.131   6.354
85426SOL    HW258118   4.457   9.217   6.344
85427SOL     OW58119   3.222   9.472  12.656
85427SOL    HW158120   3.253   9.468  12.746
85427SOL    HW258121   3.183   9.386  12.640
85428SOL     OW58122  14.838  14.854   6.851
85428SOL    HW158123  14.743  14.867   6.849
85428SOL    HW258124  14.851  14.767   6.814
85429SOL     OW58125   0.878  12.666  13.595
85429SOL    HW158126   0.832  12.746  13.574
85429SOL    HW258127   0.814  12.612  13.642
85430SOL     OW58128   4.153   8.342   1.495
85430SOL    HW158129   4.184   8.404   1.561
85430SOL    HW258130   4.100   8.279   1.544
85431SOL     OW58131  10.635   7.761   1.791
85431SOL    HW158132  10.588   7.785   1.710
85431SOL    HW258133  10.681   7.841   1.816
85432SOL     OW58134   6.786   1.008   2.903
85432SOL    HW158135   6.814   1.099   2.913
85432SOL    HW258136   6.695   1.007   2.932
85433SOL     OW58137   5.081   2.179  13.444
85433SOL    HW158138   5.158   2.177  13.502
85433SOL    HW258139   5.011   2.212  13.500
85434SOL     OW58140   0.658   1.096   3.719
85434SOL    HW158141   0.690   1.045   3.644
85434SOL    HW258142   0.737   1.130   3.761
85435SOL     OW58143   8.057   5.878   4.301
85435SOL    HW158144   8.137   5.930   4.293
85435SOL    HW258145   8.008   5.899   4.222
85436SOL     OW58146   8.494   5.845   2.366
85436SOL    HW158147   8.492   5.834   2.271
85436SOL    HW258148   8.403   5.865   2.390
85437SOL     OW58149   2.683  10.573  11.108
85437SOL    HW158150   2.756  10.571  11.045
85437SOL    HW258151   2.701  10.650  11.162
85438SOL     OW58152   1.648   6.226   4.250
85438SOL    HW158153   1.644   6.149   4.195
85438SOL    HW258154   1.579   6.213   4.315
85439SOL     OW58155  14.054  13.333   0.931
85439SOL    HW158156  14.035  13.382   0.851
85439SOL    HW258157  14.100  13.395   0.988
85440SOL     OW58158   8.770   7.962   6.802
85440SOL    HW158159   8.831   7.977   6.730
85440SOL    HW258160   8.824   7.972   6.881
85441SOL     OW58161   7.863   7.903  12.520
85441SOL    HW158162   7.900   7.915  12.433
85441SOL    HW258163   7.802   7.830  12.511
85442SOL     OW58164  10.669  14.694   7.735
85442SOL    HW158165  10.618  14.623   7.696
85442SOL    HW258166  10.743  14.707   7.675
85443SOL     OW58167   8.020  10.850   4.967
85443SOL    HW158168   7.967  10.822   4.892
85443SOL    HW258169   8.048  10.938   4.945
85444SOL     OW58170  13.467   9.214  14.354
85444SOL    HW158171  13.526   9.266  14.301
85444SOL    HW258172  13.387   9.266  14.360
85445SOL     OW58173   5.424  14.571   2.571
85445SOL    HW158174   5.348  14.517   2.594
85445SOL    HW258175   5.462  14.597   2.655
85446SOL     OW58176   3.223   3.971   0.411
85446SOL    HW158177   3.196   3.896   0.357
85446SOL    HW258178   3.204   4.048   0.357
85447SOL     OW58179   0.192   8.797   7.748
85447SOL    HW158180   0.133   8.854   7.699
85447SOL    HW258181   0.253   8.857   7.790
85448SOL     OW58182  13.275   7.322   6.232
85448SOL    HW158183  13.259   7.410   6.198
85448SOL    HW258184  13.370   7.313   6.234
85449SOL     OW58185  11.715   8.642   3.187
85449SOL    HW158186  11.622   8.665   3.187
85449SOL    HW258187  11.718   8.552   3.218
85450SOL     OW58188   7.313   1.840   0.302
85450SOL    HW158189   7.321   1.817   0.209
85450SOL    HW258190   7.339   1.932   0.306
85451SOL     OW58191   8.824   6.535  11.127
85451SOL    HW158192   8.840   6.485  11.047
85451SOL    HW258193   8.744   6.584  11.110
85452SOL     OW58194   2.787   1.907  10.141
85452SOL    HW158195   2.820   1.823  10.109
85452SOL    HW258196   2.825   1.915  10.229
85453SOL     OW58197  13.301  11.887   2.789
85453SOL    HW158198  13.299  11.979   2.763
85453SOL    HW258199  13.337  11.888   2.878
85454SOL     OW58200   6.845   1.772  14.370
85454SOL    HW158201   6.872   1.792  14.460
85454SOL    HW258202   6.755   1.740  14.379
85455SOL     OW58203  10.411   3.379   8.831
85455SOL    HW158204  10.323   3.361   8.798
85455SOL    HW258205  10.397   3.420   8.916
85456SOL     OW58206   6.774   1.459   4.937
85456SOL    HW158207   6.736   1.494   5.017
85456SOL    HW258208   6.869   1.461   4.952
85457SOL     OW58209   0.574  10.082   5.397
85457SOL    HW158210   0.582  10.018   5.326
85457SOL    HW258211   0.656  10.075   5.445
85458SOL     OW58212   2.111  10.079   9.235
85458SOL    HW158213   2.016  10.077   9.240
85458SOL    HW258214   2.135  10.167   9.263
85459SOL     OW58215  13.235   5.407   6.865
85459SOL    HW158216  13.184   5.428   6.787
85459SOL    HW258217  13.278   5.324   6.843
85460SOL     OW58218   8.024   4.203  10.853
85460SOL    HW158219   8.078   4.280  10.838
85460SOL    HW258220   8.051   4.170  10.938
85461SOL     OW58221   1.674   7.383   3.605
85461SOL    HW158222   1.631   7.365   3.688
85461SOL    HW258223   1.766   7.399   3.628
85462SOL     OW58224   2.743   7.641   1.284
85462SOL    HW158225   2.778   7.703   1.220
85462SOL    HW258226   2.683   7.692   1.337
85463SOL     OW58227   0.107   8.110   3.249
85463SOL    HW158228   0.148   8.025   3.235
85463SOL    HW258229   0.014   8.091   3.262
85464SOL     OW58230   3.543  14.492  14.839
85464SOL    HW158231   3.592  14.410  14.846
85464SOL    HW258232   3.611  14.559  14.837
85465SOL     OW58233   3.331   9.485   7.733
85465SOL    HW158234   3.351   9.492   7.640
85465SOL    HW258235   3.328   9.575   7.765
85466SOL     OW58236   5.836   1.551  14.696
85466SOL    HW158237   5.805   1.618  14.635
85466SOL    HW258238   5.926   1.578  14.717
85467SOL     OW58239   9.698   1.679   7.764
85467SOL    HW158240   9.751   1.757   7.751
85467SOL    HW258241   9.760   1.606   7.758
85468SOL     OW58242  10.906   6.423   0.567
85468SOL    HW158243  10.986   6.375   0.544
85468SOL    HW258244  10.852   6.418   0.488
85469SOL     OW58245  10.723   6.442  11.483
85469SOL    HW158246  10.672   6.376  11.529
85469SOL    HW258247  10.680   6.525  11.503
85470SOL     OW58248  13.826   8.234   1.550
85470SOL    HW158249  13.859   8.252   1.639
85470SOL    HW258250  13.880   8.162   1.519
85471SOL     OW58251   0.381   8.950  11.436
85471SOL    HW158252   0.471   8.929  11.459
85471SOL    HW258253   0.351   8.875  11.384
85472SOL     OW58254  13.082   6.549   5.388
85472SOL    HW158255  13.081   6.595   5.304
85472SOL    HW258256  13.175   6.540   5.410
85473SOL     OW58257   2.692   5.311  12.003
85473SOL    HW158258   2.738   5.306  12.086
85473SOL    HW258259   2.723   5.392  11.963
85474SOL     OW58260   9.710  10.498  10.735
85474SOL    HW158261   9.624  10.530  10.706
85474SOL    HW258262   9.693  10.457  10.820
85475SOL     OW58263   9.413   6.559   4.270
85475SOL    HW158264   9.390   6.473   4.306
85475SOL    HW258265   9.505   6.550   4.244
85476SOL     OW58266   4.747  14.549  13.845
85476SOL    HW158267   4.799  14.478  13.885
85476SOL    HW258268   4.805  14.588  13.780
85477SOL     OW58269   5.162   1.215   0.863
85477SOL    HW158270   5.099   1.236   0.932
85477SOL    HW258271   5.112   1.221   0.782
85478SOL     OW58272  10.053  11.057  13.855
85478SOL    HW158273  10.090  11.143  13.838
85478SOL    HW258274  10.012  11.031  13.773
85479SOL     OW58275   0.535  10.270  14.808
85479SOL    HW158276   0.522  10.193  14.752
85479SOL    HW258277   0.547  10.235   0.017
85480SOL     OW58278  14.318   1.819   4.244
85480SOL    HW158279  14.392   1.817   4.184
85480SOL    HW258280  14.249   1.769   4.199
85481SOL     OW58281   4.618   5.831  11.915
85481SOL    HW158282   4.705   5.827  11.955
85481SOL    HW258283   4.612   5.753  11.861
85482SOL     OW58284  11.212   5.916   7.781
85482SOL    HW158285  11.121   5.935   7.804
85482SOL    HW258286  11.236   5.845   7.841
85483SOL     OW58287   8.262  14.085  14.867
85483SOL    HW158288   8.328  14.027   0.027
85483SOL    HW258289   8.232  14.037  14.789
85484SOL     OW58290   9.097  14.333   4.201
85484SOL    HW158291   9.164  14.348   4.268
85484SOL    HW258292   9.048  14.257   4.231
85485SOL     OW58293   4.940   0.192   8.579
85485SOL    HW158294   4.987   0.210   8.498
85485SOL    HW258295   4.848   0.191   8.554
85486SOL     OW58296   7.483   7.384   8.276
85486SOL    HW158297   7.445   7.386   8.188
85486SOL    HW258298   7.551   7.452   8.274
85487SOL     OW58299  14.132  14.480  14.242
85487SOL    HW158300  14.080  14.557  14.220
85487SOL    HW258301  14.210  14.515  14.285
85488SOL     OW58302   2.787  12.338  11.405
85488SOL    HW158303   2.856  12.326  11.341
85488SOL    HW258304   2.718  12.277  11.378
85489SOL     OW58305   8.999   0.106   6.539
85489SOL    HW158306   9.091   0.084   6.521
85489SOL    HW258307   8.958   0.110   6.452
85490SOL     OW58308  12.865  13.779  14.494
85490SOL    HW158309  12.784  13.730  14.507
85490SOL    HW258310  12.873  13.790  14.400
85491SOL     OW58311   1.345  14.047   8.109
85491SOL    HW158312   1.331  14.140   8.127
85491SOL    HW258313   1.301  14.032   8.025
85492SOL     OW58314   1.810   6.248   4.945
85492SOL    HW158315   1.741   6.314   4.954
85492SOL    HW258316   1.778   6.190   4.875
85493SOL     OW58317  10.851   5.940  10.460
85493SOL    HW158318  10.903   5.970  10.385
85493SOL    HW258319  10.857   6.012  10.523
85494SOL     OW58320  12.678   0.437   0.260
85494SOL    HW158321  12.596   0.425   0.307
85494SOL    HW258322  12.726   0.502   0.312
85495SOL     OW58323   2.670   4.307   2.725
85495SOL    HW158324   2.580   4.276   2.734
85495SOL    HW258325   2.724   4.230   2.742
85496SOL     OW58326   3.433  14.407   9.569
85496SOL    HW158327   3.527  14.405   9.587
85496SOL    HW258328   3.427  14.431   9.476
85497SOL     OW58329   2.695   2.228   4.884
85497SOL    HW158330   2.631   2.157   4.879
85497SOL    HW258331   2.663   2.293   4.821
85498SOL     OW58332   2.116   8.460   7.566
85498SOL    HW158333   2.041   8.447   7.624
85498SOL    HW258334   2.109   8.389   7.502
85499SOL     OW58335   7.962   3.872  12.418
85499SOL    HW158336   7.967   3.919  12.501
85499SOL    HW258337   7.972   3.780  12.442
85500SOL     OW58338   5.519  13.108   0.124
85500SOL    HW158339   5.553  13.048   0.058
85500SOL    HW258340   5.498  13.188   0.076
85501SOL     OW58341  12.799  14.507   6.188
85501SOL    HW158342  12.733  14.440   6.169
85501SOL    HW258343  12.814  14.500   6.283
85502SOL     OW58344  10.782   7.224   1.664
85502SOL    HW158345  10.819   7.300   1.709
85502SOL    HW258346  10.695   7.214   1.701
85503SOL     OW58347   4.038   3.848  10.084
85503SOL    HW158348   4.047   3.904  10.006
85503SOL    HW258349   4.061   3.905  10.157
85504SOL     OW58350   9.139   5.490   4.622
85504SOL    HW158351   9.052   5.529   4.613
85504SOL    HW258352   9.128   5.400   4.590
85505SOL     OW58353  13.547   2.297   9.492
85505SOL    HW158354  13.500   2.316   9.410
85505SOL    HW258355  13.633   2.269   9.463
85506SOL     OW58356   8.830   1.306   2.776
85506SOL    HW158357   8.794   1.273   2.694
85506SOL    HW258358   8.772   1.378   2.801
85507SOL     OW58359   9.214   9.847  13.031
85507SOL    HW158360   9.184   9.856  13.121
85507SOL    HW258361   9.134   9.824  12.982
85508SOL     OW58362   0.322  10.480   3.420
85508SOL    HW158363   0.416  10.470   3.432
85508SOL    HW258364   0.288  10.497   3.507
85509SOL     OW58365   2.121  14.760   2.793
85509SOL    HW158366   2.156  14.823   2.730
85509SOL    HW258367   2.190  14.695   2.803
85510SOL     OW58368  12.097   7.606   7.775
85510SOL    HW158369  12.117   7.573   7.688
85510SOL    HW258370  12.049   7.687   7.760
85511SOL     OW58371   0.901   2.082  10.715
85511SOL    HW158372   0.825   2.028  10.691
85511SOL    HW258373   0.871   2.135  10.788
85512SOL     OW58374  13.878   2.807  12.431
85512SOL    HW158375  13.922   2.803  12.516
85512SOL    HW258376  13.790   2.772  12.447
85513SOL     OW58377   2.125   2.585   1.481
85513SOL    HW158378   2.067   2.604   1.555
85513SOL    HW258379   2.073   2.606   1.403
85514SOL     OW58380   6.253   7.811   1.654
85514SOL    HW158381   6.231   7.718   1.654
85514SOL    HW258382   6.338   7.816   1.697
85515SOL     OW58383   3.420  11.040   7.494
85515SOL    HW158384   3.480  11.104   7.532
85515SOL    HW258385   3.422  10.966   7.555
85516SOL     OW58386   5.699   1.735  12.140
85516SOL    HW158387   5.687   1.786  12.220
85516SOL    HW258388   5.792   1.712  12.140
85517SOL     OW58389   4.673   5.488  14.807
85517SOL    HW158390   4.751   5.511  14.756
85517SOL    HW258391   4.701   5.494   0.019
85518SOL     OW58392   9.789  11.096   5.982
85518SOL    HW158393   9.748  11.068   5.901
85518SOL    HW258394   9.804  11.016   6.031
85519SOL     OW58395   7.060   9.695  12.226
85519SOL    HW158396   7.146   9.728  12.250
85519SOL    HW258397   7.001   9.734  12.291
85520SOL     OW58398   4.066   2.236   2.498
85520SOL    HW158399   4.083   2.309   2.557
85520SOL    HW258400   4.098   2.266   2.413
85521SOL     OW58401   1.837   5.383   9.746
85521SOL    HW158402   1.925   5.362   9.776
85521SOL    HW258403   1.846   5.396   9.651
85522SOL     OW58404   0.399   4.798  10.188
85522SOL    HW158405   0.375   4.801  10.095
85522SOL    HW258406   0.481   4.847  10.193
85523SOL     OW58407   3.892  10.400   2.279
85523SOL    HW158408   3.844  10.320   2.301
85523SOL    HW258409   3.983  10.380   2.302
85524SOL     OW58410  10.185  12.463   9.135
85524SOL    HW158411  10.217  12.392   9.079
85524SOL    HW258412  10.110  12.426   9.180
85525SOL     OW58413   9.222  10.168  14.068
85525SOL    HW158414   9.203  10.076  14.047
85525SOL    HW258415   9.259  10.164  14.156
85526SOL     OW58416   6.925  11.830  13.254
85526SOL    HW158417   7.018  11.840  13.275
85526SOL    HW258418   6.908  11.737  13.264
85527SOL     OW58419  12.208   2.135   3.204
85527SOL    HW158420  12.253   2.212   3.171
85527SOL    HW258421  12.202   2.076   3.128
85528SOL     OW58422   1.586  11.632   0.919
85528SOL    HW158423   1.569  11.712   0.969
85528SOL    HW258424   1.510  11.576   0.938
85529SOL     OW58425  14.108   0.300   8.057
85529SOL    HW158426  14.153   0.276   8.138
85529SOL    HW258427  14.063   0.382   8.077
85530SOL     OW58428   7.628   0.467  14.019
85530SOL    HW158429   7.599   0.375  14.016
85530SOL    HW258430   7.607   0.496  14.107
85531SOL     OW58431   9.821   3.677  14.752
85531SOL    HW158432   9.782   3.761  14.776
85531SOL    HW258433   9.769   3.646  14.678
85532SOL     OW58434  10.124   3.104   0.602
85532SOL    HW158435  10.098   3.114   0.693
85532SOL    HW258436  10.102   3.188   0.561
85533SOL     OW58437  12.007  14.443   6.796
85533SOL    HW158438  12.072  14.390   6.750
85533SOL    HW258439  11.965  14.383   6.857
85534SOL     OW58440   3.237  14.256  14.220
85534SOL    HW158441   3.152  14.231  14.184
85534SOL    HW258442   3.228  14.349  14.240
85535SOL     OW58443  10.043   5.396   1.355
85535SOL    HW158444  10.094   5.354   1.424
85535SOL    HW258445   9.952   5.379   1.379
85536SOL     OW58446  10.724   6.598   8.736
85536SOL    HW158447  10.738   6.517   8.687
85536SOL    HW258448  10.677   6.571   8.815
85537SOL     OW58449   4.385   4.303   4.493
85537SOL    HW158450   4.347   4.379   4.537
85537SOL    HW258451   4.381   4.324   4.400
85538SOL     OW58452   6.261   3.691  10.196
85538SOL    HW158453   6.316   3.701  10.273
85538SOL    HW258454   6.204   3.617  10.217
85539SOL     OW58455   7.074  13.074   4.554
85539SOL    HW158456   7.009  13.045   4.618
85539SOL    HW258457   7.040  13.042   4.470
85540SOL     OW58458   9.895  10.739  11.233
85540SOL    HW158459   9.971  10.686  11.257
85540SOL    HW258460   9.917  10.827  11.263
85541SOL     OW58461  10.397   2.591   6.052
85541SOL    HW158462  10.308   2.612   6.081
85541SOL    HW258463  10.386   2.520   5.989
85542SOL     OW58464  12.218  11.800   5.033
85542SOL    HW158465  12.216  11.739   5.107
85542SOL    HW258466  12.127  11.803   5.002
85543SOL     OW58467   1.924  11.006   6.870
85543SOL    HW158468   1.950  10.946   6.940
85543SOL    HW258469   1.844  11.047   6.903
85544SOL     OW58470   5.333   7.647   6.667
85544SOL    HW158471   5.418   7.604   6.672
85544SOL    HW258472   5.279   7.602   6.731
85545SOL     OW58473  14.371   1.949   6.966
85545SOL    HW158474  14.371   1.868   6.915
85545SOL    HW258475  14.367   1.921   7.057
85546SOL     OW58476   1.554   5.530   8.123
85546SOL    HW158477   1.561   5.604   8.063
85546SOL    HW258478   1.637   5.528   8.170
85547SOL     OW58479  11.440  13.169  14.840
85547SOL    HW158480  11.371  13.156  14.776
85547SOL    HW258481  11.473  13.257  14.823
85548SOL     OW58482  13.891   7.274   8.131
85548SOL    HW158483  13.959   7.317   8.183
85548SOL    HW258484  13.881   7.188   8.171
85549SOL     OW58485  13.560  14.786   9.329
85549SOL    HW158486  13.540  14.794   9.422
85549SOL    HW258487  13.479  14.813   9.285
85550SOL     OW58488  12.133   9.153   5.440
85550SOL    HW158489  12.106   9.062   5.455
85550SOL    HW258490  12.080   9.204   5.500
85551SOL     OW58491   3.698   4.270   8.392
85551SOL    HW158492   3.762   4.336   8.364
85551SOL    HW258493   3.745   4.187   8.385
85552SOL     OW58494   7.580  13.170   7.315
85552SOL    HW158495   7.497  13.145   7.275
85552SOL    HW258496   7.636  13.094   7.304
85553SOL     OW58497   3.897  12.760   4.754
85553SOL    HW158498   3.893  12.675   4.800
85553SOL    HW258499   3.979  12.799   4.784
85554SOL     OW58500   7.873   7.038  10.282
85554SOL    HW158501   7.965   7.021  10.301
85554SOL    HW258502   7.834   6.952  10.269
85555SOL     OW58503   7.674   5.994   5.443
85555SOL    HW158504   7.644   6.078   5.478
85555SOL    HW258505   7.593   5.948   5.419
85556SOL     OW58506  10.409   8.818   1.970
85556SOL    HW158507  10.449   8.748   1.919
85556SOL    HW258508  10.482   8.858   2.018
85557SOL     OW58509   4.777   2.258   7.456
85557SOL    HW158510   4.692   2.232   7.421
85557SOL    HW258511   4.808   2.182   7.505
85558SOL     OW58512   3.679   2.607  11.447
85558SOL    HW158513   3.770   2.624  11.469
85558SOL    HW258514   3.681   2.525  11.397
85559SOL     OW58515   5.677   3.637  12.164
85559SOL    HW158516   5.663   3.694  12.088
85559SOL    HW258517   5.769   3.608  12.155
85560SOL     OW58518  11.915  13.844   8.825
85560SOL    HW158519  11.924  13.799   8.909
85560SOL    HW258520  11.829  13.886   8.831
85561SOL     OW58521   9.016   8.593   3.735
85561SOL    HW158522   9.104   8.626   3.751
85561SOL    HW258523   8.958   8.656   3.778
85562SOL     OW58524  10.745   0.180   4.474
85562SOL    HW158525  10.714   0.093   4.496
85562SOL    HW258526  10.778   0.215   4.557
85563SOL     OW58527   1.434  10.229   3.069
85563SOL    HW158528   1.340  10.213   3.080
85563SOL    HW258529   1.475  10.147   3.097
85564SOL     OW58530  13.999   0.079  12.330
85564SOL    HW158531  14.038   0.078  12.418
85564SOL    HW258532  13.931   0.012  12.334
85565SOL     OW58533   0.484  10.808   0.537
85565SOL    HW158534   0.541  10.764   0.474
85565SOL    HW258535   0.544  10.862   0.589
85566SOL     OW58536   9.001   7.265  10.543
85566SOL    HW158537   8.943   7.244  10.616
85566SOL    HW258538   8.992   7.359  10.532
85567SOL     OW58539   4.507   1.982   4.630
85567SOL    HW158540   4.426   2.027   4.655
85567SOL    HW258541   4.476   1.904   4.583
85568SOL     OW58542   9.612   8.838   0.711
85568SOL    HW158543   9.618   8.775   0.783
85568SOL    HW258544   9.613   8.785   0.632
85569SOL     OW58545  12.090   5.732   1.614
85569SOL    HW158546  12.023   5.686   1.665
85569SOL    HW258547  12.043   5.806   1.574
85570SOL     OW58548   3.274   8.805   3.370
85570SOL    HW158549   3.364   8.785   3.398
85570SOL    HW258550   3.219   8.770   3.440
85571SOL     OW58551   0.702   4.810   5.228
85571SOL    HW158552   0.645   4.852   5.163
85571SOL    HW258553   0.659   4.727   5.247
85572SOL     OW58554  10.723   9.870   6.771
85572SOL    HW158555  10.734   9.856   6.866
85572SOL    HW258556  10.781   9.805   6.731
85573SOL     OW58557   4.207  14.749  12.852
85573SOL    HW158558   4.123  14.725  12.813
85573SOL    HW258559   4.262  14.775  12.778
85574SOL     OW58560   7.996   4.377  12.402
85574SOL    HW158561   8.050   4.322  12.345
85574SOL    HW258562   7.955   4.315  12.463
85575SOL     OW58563  13.560   6.363  13.100
85575SOL    HW158564  13.576   6.272  13.075
85575SOL    HW258565  13.510   6.399  13.027
85576SOL     OW58566   4.506   9.177   1.986
85576SOL    HW158567   4.507   9.271   1.972
85576SOL    HW258568   4.576   9.143   1.930
85577SOL     OW58569   3.252   6.460  10.108
85577SOL    HW158570   3.343   6.454  10.135
85577SOL    HW258571   3.204   6.414  10.177
85578SOL     OW58572   2.596  14.369  11.687
85578SOL    HW158573   2.589  14.291  11.743
85578SOL    HW258574   2.637  14.338  11.607
85579SOL     OW58575   1.190   1.781  13.077
85579SOL    HW158576   1.195   1.861  13.128
85579SOL    HW258577   1.229   1.803  12.992
85580SOL     OW58578   6.392   9.171  10.430
85580SOL    HW158579   6.317   9.144  10.377
85580SOL    HW258580   6.463   9.114  10.402
85581SOL     OW58581  13.667   9.735   0.665
85581SOL    HW158582  13.643   9.713   0.576
85581SOL    HW258583  13.620   9.671   0.719
85582SOL     OW58584   5.542   7.469  10.722
85582SOL    HW158585   5.580   7.384  10.697
85582SOL    HW258586   5.555   7.474  10.817
85583SOL     OW58587  12.744   7.037   7.390
85583SOL    HW158588  12.715   6.991   7.468
85583SOL    HW258589  12.759   7.127   7.419
85584SOL     OW58590   1.714  10.797  11.445
85584SOL    HW158591   1.757  10.852  11.379
85584SOL    HW258592   1.760  10.818  11.527
85585SOL     OW58593  14.382  12.384   8.500
85585SOL    HW158594  14.415  12.302   8.537
85585SOL    HW258595  14.358  12.436   8.577
85586SOL     OW58596  14.562   1.509   9.607
85586SOL    HW158597  14.554   1.501   9.702
85586SOL    HW258598  14.507   1.584   9.584
85587SOL     OW58599  14.030  11.126  12.555
85587SOL    HW158600  14.111  11.076  12.570
85587SOL    HW258601  14.025  11.185  12.630
85588SOL     OW58602   8.358  12.715   7.463
85588SOL    HW158603   8.291  12.658   7.426
85588SOL    HW258604   8.423  12.656   7.499
85589SOL     OW58605   7.415   4.874  13.212
85589SOL    HW158606   7.479   4.872  13.141
85589SOL    HW258607   7.373   4.788  13.209
85590SOL     OW58608   1.960   6.109  14.670
85590SOL    HW158609   1.989   6.082  14.583
85590SOL    HW258610   1.951   6.027  14.719
85591SOL     OW58611   1.708   6.589  12.678
85591SOL    HW158612   1.689   6.682  12.666
85591SOL    HW258613   1.661   6.565  12.758
85592SOL     OW58614   8.449   9.428   6.936
85592SOL    HW158615   8.409   9.409   7.021
85592SOL    HW258616   8.423   9.518   6.916
85593SOL     OW58617   9.565   2.775   3.780
85593SOL    HW158618   9.480   2.778   3.824
85593SOL    HW258619   9.603   2.691   3.807
85594SOL     OW58620   5.061   3.455   5.811
85594SOL    HW158621   5.130   3.490   5.754
85594SOL    HW258622   5.103   3.447   5.897
85595SOL     OW58623   4.161   0.901   0.453
85595SOL    HW158624   4.184   0.829   0.394
85595SOL    HW258625   4.106   0.860   0.520
85596SOL     OW58626   5.610   9.503   9.497
85596SOL    HW158627   5.639   9.465   9.414
85596SOL    HW258628   5.677   9.567   9.519
85597SOL     OW58629   7.852  10.376   2.061
85597SOL    HW158630   7.935  10.381   2.109
85597SOL    HW258631   7.849  10.287   2.028
85598SOL     OW58632   1.934   0.558   0.698
85598SOL    HW158633   1.957   0.502   0.772
85598SOL    HW258634   1.972   0.643   0.720
85599SOL     OW58635  11.158  12.782  12.915
85599SOL    HW158636  11.207  12.792  12.833
85599SOL    HW258637  11.156  12.687  12.930
85600SOL     OW58638   2.262  10.121   0.686
85600SOL    HW158639   2.215  10.066   0.749
85600SOL    HW258640   2.263  10.208   0.726
85601SOL     OW58641   5.527  11.299  12.811
85601SOL    HW158642   5.616  11.283  12.843
85601SOL    HW258643   5.475  11.226  12.846
85602SOL     OW58644  12.172   5.528   5.159
85602SOL    HW158645  12.228   5.451   5.165
85602SOL    HW258646  12.195   5.580   5.236
85603SOL     OW58647   0.955   0.010   1.487
85603SOL    HW158648   0.915   0.088   1.449
85603SOL    HW258649   0.886  14.850   1.539
85604SOL     OW58650   5.454  12.783   1.832
85604SOL    HW158651   5.427  12.693   1.816
85604SOL    HW258652   5.448  12.825   1.746
85605SOL     OW58653  12.125   4.839  13.481
85605SOL    HW158654  12.119   4.905  13.413
85605SOL    HW258655  12.050   4.782  13.466
85606SOL     OW58656  14.134  13.768   2.506
85606SOL    HW158657  14.142  13.689   2.558
85606SOL    HW258658  14.217  13.814   2.519
85607SOL     OW58659  12.127  12.016   2.401
85607SOL    HW158660  12.048  12.068   2.387
85607SOL    HW258661  12.198  12.073   2.375
85608SOL     OW58662  13.582   9.702   3.563
85608SOL    HW158663  13.549   9.692   3.474
85608SOL    HW258664  13.512   9.666   3.618
85609SOL     OW58665  10.094   4.018   3.048
85609SOL    HW158666  10.169   3.975   3.089
85609SOL    HW258667  10.024   4.010   3.113
85610SOL     OW58668   7.946   6.362   3.601
85610SOL    HW158669   8.040   6.362   3.583
85610SOL    HW258670   7.920   6.271   3.587
85611SOL     OW58671  12.094   6.095  14.000
85611SOL    HW158672  12.163   6.084  13.935
85611SOL    HW258673  12.107   6.023  14.062
85612SOL     OW58674  12.725   1.321   9.082
85612SOL    HW158675  12.675   1.244   9.109
85612SOL    HW258676  12.809   1.312   9.129
85613SOL     OW58677  13.383  12.029  12.346
85613SOL    HW158678  13.423  12.031  12.259
85613SOL    HW258679  13.309  11.970  12.338
85614SOL     OW58680   7.913   2.963   5.348
85614SOL    HW158681   7.983   3.017   5.383
85614SOL    HW258682   7.832   3.009   5.371
85615SOL     OW58683   5.517   5.365  10.653
85615SOL    HW158684   5.486   5.348  10.564
85615SOL    HW258685   5.590   5.426  10.641
85616SOL     OW58686   7.765   9.268   4.305
85616SOL    HW158687   7.796   9.356   4.326
85616SOL    HW258688   7.789   9.256   4.213
85617SOL     OW58689  10.622   6.355   4.235
85617SOL    HW158690  10.706   6.359   4.189
85617SOL    HW258691  10.609   6.262   4.254
85618SOL     OW58692  12.211   5.768   3.146
85618SOL    HW158693  12.122   5.734   3.143
85618SOL    HW258694  12.263   5.702   3.100
85619SOL     OW58695   3.205   2.595   3.132
85619SOL    HW158696   3.138   2.601   3.064
85619SOL    HW258697   3.288   2.604   3.084
85620SOL     OW58698   8.525  10.554  13.515
85620SOL    HW158699   8.456  10.557  13.449
85620SOL    HW258700   8.523  10.641  13.555
85621SOL     OW58701   0.223   9.845   3.275
85621SOL    HW158702   0.280   9.903   3.325
85621SOL    HW258703   0.265   9.838   3.189
85622SOL     OW58704   8.667  12.995   9.532
85622SOL    HW158705   8.685  12.954   9.617
85622SOL    HW258706   8.750  13.038   9.509
85623SOL     OW58707  12.750   4.114  13.428
85623SOL    HW158708  12.743   4.135  13.335
85623SOL    HW258709  12.833   4.068  13.437
85624SOL     OW58710  14.172  13.572   7.108
85624SOL    HW158711  14.118  13.615   7.042
85624SOL    HW258712  14.110  13.519   7.159
85625SOL     OW58713   0.571   8.913   9.437
85625SOL    HW158714   0.583   8.893   9.530
85625SOL    HW258715   0.529   8.999   9.436
85626SOL     OW58716  11.464   1.330   0.471
85626SOL    HW158717  11.406   1.254   0.468
85626SOL    HW258718  11.410   1.402   0.440
85627SOL     OW58719  11.086   1.375  12.544
85627SOL    HW158720  11.028   1.317  12.594
85627SOL    HW258721  11.174   1.350  12.572
85628SOL     OW58722  11.428   0.457  12.961
85628SOL    HW158723  11.432   0.370  13.001
85628SOL    HW258724  11.365   0.448  12.890
85629SOL     OW58725   2.565   5.216   6.119
85629SOL    HW158726   2.652   5.245   6.093
85629SOL    HW258727   2.572   5.203   6.214
85630SOL     OW58728   2.384   8.943  14.639
85630SOL    HW158729   2.334   8.985  14.569
85630SOL    HW258730   2.420   9.017  14.690
85631SOL     OW58731  14.302   4.069   4.706
85631SOL    HW158732  14.272   3.978   4.697
85631SOL    HW258733  14.360   4.082   4.631
85632SOL     OW58734   2.061  13.591  12.831
85632SOL    HW158735   2.131  13.527  12.818
85632SOL    HW258736   2.006  13.583  12.753
85633SOL     OW58737  10.633   4.843   8.316
85633SOL    HW158738  10.538   4.839   8.312
85633SOL    HW258739  10.659   4.755   8.343
85634SOL     OW58740   4.177   8.155   6.784
85634SOL    HW158741   4.164   8.062   6.802
85634SOL    HW258742   4.196   8.194   6.869
85635SOL     OW58743   8.811  14.268   6.570
85635SOL    HW158744   8.858  14.229   6.497
85635SOL    HW258745   8.880  14.303   6.628
85636SOL     OW58746  11.701   6.080   0.088
85636SOL    HW158747  11.776   6.132   0.059
85636SOL    HW258748  11.652   6.061   0.007
85637SOL     OW58749   2.221   7.439   4.906
85637SOL    HW158750   2.143   7.467   4.858
85637SOL    HW258751   2.189   7.412   4.992
85638SOL     OW58752   0.901  13.414   1.425
85638SOL    HW158753   0.968  13.376   1.482
85638SOL    HW258754   0.930  13.504   1.410
85639SOL     OW58755  12.947   3.868  11.138
85639SOL    HW158756  12.945   3.797  11.074
85639SOL    HW258757  12.966   3.825  11.222
85640SOL     OW58758   7.835   5.708   8.543
85640SOL    HW158759   7.856   5.747   8.627
85640SOL    HW258760   7.787   5.776   8.496
85641SOL     OW58761   5.835   8.890   5.428
85641SOL    HW158762   5.849   8.806   5.472
85641SOL    HW258763   5.751   8.880   5.384
85642SOL     OW58764   8.752   0.136  10.850
85642SOL    HW158765   8.763   0.053  10.897
85642SOL    HW258766   8.714   0.196  10.915
85643SOL     OW58767   8.923   4.822   8.002
85643SOL    HW158768   8.949   4.800   7.912
85643SOL    HW258769   8.907   4.738   8.044
85644SOL     OW58770  11.730   8.943   7.803
85644SOL    HW158771  11.773   9.027   7.785
85644SOL    HW258772  11.801   8.887   7.835
85645SOL     OW58773   5.905   8.425  11.732
85645SOL    HW158774   5.952   8.382  11.803
85645SOL    HW258775   5.827   8.371  11.718
85646SOL     OW58776   3.875   5.135   5.950
85646SOL    HW158777   3.953   5.083   5.967
85646SOL    HW258778   3.907   5.211   5.901
85647SOL     OW58779  14.179   1.977   4.953
85647SOL    HW158780  14.241   2.047   4.933
85647SOL    HW258781  14.104   2.022   4.993
85648SOL     OW58782  12.358  13.396  13.724
85648SOL    HW158783  12.356  13.370  13.815
85648SOL    HW258784  12.344  13.315  13.675
85649SOL     OW58785  11.092   6.474   7.468
85649SOL    HW158786  11.017   6.530   7.450
85649SOL    HW258787  11.111   6.430   7.385
85650SOL     OW58788  14.348   0.490  12.061
85650SOL    HW158789  14.300   0.515  11.982
85650SOL    HW258790  14.364   0.396  12.051
85651SOL     OW58791   6.254  11.548  10.088
85651SOL    HW158792   6.308  11.556  10.009
85651SOL    HW258793   6.274  11.461  10.122
85652SOL     OW58794   6.365   2.226   0.201
85652SOL    HW158795   6.419   2.147   0.197
85652SOL    HW258796   6.391   2.268   0.282
85653SOL     OW58797  12.404   1.988  12.241
85653SOL    HW158798  12.333   2.017  12.298
85653SOL    HW258799  12.391   2.038  12.160
85654SOL     OW58800  14.810  14.258   9.314
85654SOL    HW158801  14.810  14.249   9.219
85654SOL    HW258802  14.758  14.184   9.345
85655SOL     OW58803  12.934   5.509   0.983
85655SOL    HW158804  12.887   5.589   1.004
85655SOL    HW258805  12.948   5.512   0.888
85656SOL     OW58806   6.655  11.080   4.896
85656SOL    HW158807   6.580  11.023   4.911
85656SOL    HW258808   6.617  11.165   4.873
85657SOL     OW58809   3.414  11.130   8.329
85657SOL    HW158810   3.474  11.149   8.257
85657SOL    HW258811   3.338  11.186   8.313
85658SOL     OW58812  12.777   1.756   3.341
85658SOL    HW158813  12.838   1.809   3.290
85658SOL    HW258814  12.719   1.716   3.276
85659SOL     OW58815   6.144   8.586   9.968
85659SOL    HW158816   6.226   8.609   9.924
85659SOL    HW258817   6.149   8.491   9.979
85660SOL     OW58818   7.133  10.442  11.160
85660SOL    HW158819   7.135  10.532  11.193
85660SOL    HW258820   7.225  10.415  11.160
85661SOL     OW58821   4.199  10.399  12.216
85661SOL    HW158822   4.178  10.491  12.229
85661SOL    HW258823   4.287  10.399  12.179
85662SOL     OW58824  12.662   1.212  13.256
85662SOL    HW158825  12.661   1.306  13.238
85662SOL    HW258826  12.616   1.173  13.181
85663SOL     OW58827   0.742   1.867  11.846
85663SOL    HW158828   0.730   1.952  11.804
85663SOL    HW258829   0.654   1.833  11.860
85664SOL     OW58830   4.324   4.006   2.112
85664SOL    HW158831   4.376   4.084   2.089
85664SOL    HW258832   4.233   4.032   2.094
85665SOL     OW58833   1.047  11.885   2.063
85665SOL    HW158834   0.984  11.957   2.055
85665SOL    HW258835   1.005  11.812   2.018
85666SOL     OW58836   3.205   6.112   7.824
85666SOL    HW158837   3.277   6.072   7.774
85666SOL    HW258838   3.241   6.195   7.856
85667SOL     OW58839   1.189   4.854   2.534
85667SOL    HW158840   1.097   4.879   2.525
85667SOL    HW258841   1.211   4.877   2.624
85668SOL     OW58842  14.217  14.866  10.773
85668SOL    HW158843  14.182   0.067  10.735
85668SOL    HW258844  14.246   0.012  10.860
85669SOL     OW58845   2.686   4.329   4.459
85669SOL    HW158846   2.750   4.399   4.442
85669SOL    HW258847   2.611   4.374   4.498
85670SOL     OW58848   9.991   1.754   2.430
85670SOL    HW158849  10.031   1.817   2.490
85670SOL    HW258850  10.001   1.670   2.475
85671SOL     OW58851   5.820   3.118  13.903
85671SOL    HW158852   5.896   3.061  13.908
85671SOL    HW258853   5.851   3.203  13.933
85672SOL     OW58854   6.341   8.282   8.939
85672SOL    HW158855   6.436   8.292   8.940
85672SOL    HW258856   6.326   8.203   8.887
85673SOL     OW58857  13.297   4.189   2.191
85673SOL    HW158858  13.283   4.282   2.175
85673SOL    HW258859  13.214   4.148   2.165
85674SOL     OW58860   9.475   6.450   0.210
85674SOL    HW158861   9.487   6.358   0.233
85674SOL    HW258862   9.562   6.489   0.220
85675SOL     OW58863   1.955  14.811   2.129
85675SOL    HW158864   1.929  14.856   2.209
85675SOL    HW258865   1.982   0.001   2.069
85676SOL     OW58866   7.246  12.863   0.156
85676SOL    HW158867   7.154  12.869   0.181
85676SOL    HW258868   7.263  12.769   0.151
85677SOL     OW58869  10.034   5.589  13.699
85677SOL    HW158870  10.093   5.519  13.726
85677SOL    HW258871  10.003   5.562  13.613
85678SOL     OW58872  14.183  11.736  13.593
85678SOL    HW158873  14.089  11.715  13.590
85678SOL    HW258874  14.193  11.808  13.531
85679SOL     OW58875   7.986   7.398   6.828
85679SOL    HW158876   8.055   7.332   6.818
85679SOL    HW258877   8.015   7.451   6.903
85680SOL     OW58878   2.474   2.595   8.220
85680SOL    HW158879   2.458   2.520   8.162
85680SOL    HW258880   2.497   2.556   8.304
85681SOL     OW58881   3.701   6.973   9.196
85681SOL    HW158882   3.674   7.016   9.277
85681SOL    HW258883   3.658   6.887   9.199
85682SOL     OW58884   1.578  11.479  11.769
85682SOL    HW158885   1.514  11.534  11.724
85682SOL    HW258886   1.598  11.526  11.850
85683SOL     OW58887   5.298   1.652   0.823
85683SOL    HW158888   5.216   1.603   0.828
85683SOL    HW258889   5.359   1.593   0.779
85684SOL     OW58890   3.613   2.723   4.024
85684SOL    HW158891   3.551   2.670   3.974
85684SOL    HW258892   3.613   2.685   4.112
85685SOL     OW58893  14.067   7.531   6.399
85685SOL    HW158894  14.141   7.498   6.348
85685SOL    HW258895  14.009   7.570   6.333
85686SOL     OW58896  13.838   3.605   6.791
85686SOL    HW158897  13.803   3.537   6.848
85686SOL    HW258898  13.784   3.682   6.810
85687SOL     OW58899  14.280   8.287  12.299
85687SOL    HW158900  14.269   8.382  12.291
85687SOL    HW258901  14.215   8.261  12.364
85688SOL     OW58902   5.281   0.273  13.465
85688SOL    HW158903   5.358   0.255  13.519
85688SOL    HW258904   5.317   0.283  13.376
85689SOL     OW58905   0.704  12.139   4.899
85689SOL    HW158906   0.627  12.083   4.887
85689SOL    HW258907   0.683  12.194   4.974
85690SOL     OW58908  14.160   5.497   7.591
85690SOL    HW158909  14.190   5.416   7.632
85690SOL    HW258910  14.111   5.468   7.514
85691SOL     OW58911  10.858  12.537   7.867
85691SOL    HW158912  10.842  12.463   7.926
85691SOL    HW258913  10.929  12.507   7.809
85692SOL     OW58914   6.135   5.016   2.117
85692SOL    HW158915   6.223   5.050   2.131
85692SOL    HW258916   6.083   5.053   2.188
85693SOL     OW58917   1.938   2.535   8.829
85693SOL    HW158918   1.910   2.476   8.898
85693SOL    HW258919   1.857   2.564   8.787
85694SOL     OW58920   5.796   8.841   8.852
85694SOL    HW158921   5.888   8.868   8.857
85694SOL    HW258922   5.766   8.871   8.766
85695SOL     OW58923   7.502   4.629   4.997
85695SOL    HW158924   7.507   4.556   4.935
85695SOL    HW258925   7.527   4.591   5.081
85696SOL     OW58926   6.991  10.121   3.787
85696SOL    HW158927   6.951  10.129   3.700
85696SOL    HW258928   7.001  10.027   3.800
85697SOL     OW58929  11.552  11.028  14.564
85697SOL    HW158930  11.642  11.004  14.542
85697SOL    HW258931  11.533  11.104  14.508
85698SOL     OW58932   8.784   6.546   6.649
85698SOL    HW158933   8.711   6.589   6.692
85698SOL    HW258934   8.849   6.615   6.637
85699SOL     OW58935   3.796   5.534   4.041
85699SOL    HW158936   3.803   5.603   3.975
85699SOL    HW258937   3.705   5.537   4.070
85700SOL     OW58938   5.349   2.596   3.797
85700SOL    HW158939   5.335   2.521   3.741
85700SOL    HW258940   5.378   2.559   3.881
85701SOL     OW58941   9.069  12.706   9.709
85701SOL    HW158942   9.033  12.692   9.797
85701SOL    HW258943   9.164  12.709   9.723
85702SOL     OW58944   8.382   6.216   5.584
85702SOL    HW158945   8.448   6.284   5.596
85702SOL    HW258946   8.298   6.264   5.584
85703SOL     OW58947  13.404   7.648   7.724
85703SOL    HW158948  13.323   7.668   7.771
85703SOL    HW258949  13.376   7.634   7.634
85704SOL     OW58950   3.223   5.871   9.023
85704SOL    HW158951   3.300   5.857   9.078
85704SOL    HW258952   3.208   5.965   9.027
85705SOL     OW58953   6.111   2.564   8.144
85705SOL    HW158954   6.025   2.528   8.167
85705SOL    HW258955   6.131   2.625   8.215
85706SOL     OW58956   4.836  12.330   6.876
85706SOL    HW158957   4.796  12.325   6.963
85706SOL    HW258958   4.914  12.275   6.882
85707SOL     OW58959   7.886   7.307  11.465
85707SOL    HW158960   7.973   7.296  11.428
85707SOL    HW258961   7.826   7.299  11.390
85708SOL     OW58962  13.285   3.400   2.528
85708SOL    HW158963  13.366   3.415   2.479
85708SOL    HW258964  13.311   3.343   2.600
85709SOL     OW58965  14.047   8.722   9.177
85709SOL    HW158966  14.074   8.809   9.207
85709SOL    HW258967  14.031   8.673   9.257
85710SOL     OW58968  14.668   3.047  14.756
85710SOL    HW158969  14.761   3.070  14.758
85710SOL    HW258970  14.645   3.050  14.663
85711SOL     OW58971   8.668   3.059   5.401
85711SOL    HW158972   8.717   3.051   5.320
85711SOL    HW258973   8.704   3.137   5.443
85712SOL     OW58974  13.540   4.648  14.590
85712SOL    HW158975  13.533   4.605  14.675
85712SOL    HW258976  13.449   4.663  14.564
85713SOL     OW58977  11.381  12.947   7.448
85713SOL    HW158978  11.303  12.946   7.505
85713SOL    HW258979  11.372  13.028   7.397
85714SOL     OW58980  11.611   7.207   6.068
85714SOL    HW158981  11.521   7.241   6.063
85714SOL    HW258982  11.623   7.161   5.984
85715SOL     OW58983   3.690   8.262   2.067
85715SOL    HW158984   3.615   8.214   2.104
85715SOL    HW258985   3.739   8.292   2.143
85716SOL     OW58986  13.019   9.829  12.956
85716SOL    HW158987  12.935   9.800  12.921
85716SOL    HW258988  13.041   9.907  12.905
85717SOL     OW58989   0.822   4.773   0.076
85717SOL    HW158990   0.882   4.724   0.020
85717SOL    HW258991   0.735   4.746   0.047
85718SOL     OW58992   0.826   1.234   3.874
85718SOL    HW158993   0.865   1.198   3.954
85718SOL    HW258994   0.773   1.307   3.904
85719SOL     OW58995   7.835   7.645   7.131
85719SOL    HW158996   7.901   7.578   7.149
85719SOL    HW258997   7.880   7.707   7.073
85720SOL     OW58998  11.681   3.318   2.837
85720SOL    HW158999  11.598   3.272   2.852
85720SOL    HW259000  11.673   3.399   2.887
85721SOL     OW59001   2.186   8.370   8.594
85721SOL    HW159002   2.277   8.341   8.595
85721SOL    HW259003   2.135   8.290   8.581
85722SOL     OW59004   7.263   8.578   3.017
85722SOL    HW159005   7.174   8.601   3.043
85722SOL    HW259006   7.257   8.488   2.988
85723SOL     OW59007   6.020  11.727   0.620
85723SOL    HW159008   5.984  11.661   0.561
85723SOL    HW259009   5.945  11.780   0.645
85724SOL     OW59010  11.991   8.358   2.766
85724SOL    HW159011  11.935   8.359   2.689
85724SOL    HW259012  11.983   8.446   2.803
85725SOL     OW59013  14.454   3.223   0.665
85725SOL    HW159014  14.522   3.280   0.700
85725SOL    HW259015  14.457   3.145   0.720
85726SOL     OW59016   8.653   2.557   9.015
85726SOL    HW159017   8.651   2.491   8.945
85726SOL    HW259018   8.588   2.622   8.988
85727SOL     OW59019   3.675   8.398   0.945
85727SOL    HW159020   3.651   8.429   0.858
85727SOL    HW259021   3.675   8.302   0.938
85728SOL     OW59022   3.491   4.099  11.396
85728SOL    HW159023   3.508   4.193  11.402
85728SOL    HW259024   3.453   4.076  11.481
85729SOL     OW59025   8.398   2.398   9.471
85729SOL    HW159026   8.302   2.398   9.460
85729SOL    HW259027   8.424   2.308   9.450
85730SOL     OW59028   7.303  13.563   5.493
85730SOL    HW159029   7.241  13.561   5.420
85730SOL    HW259030   7.359  13.487   5.479
85731SOL     OW59031   1.590   3.114   2.457
85731SOL    HW159032   1.609   3.188   2.514
85731SOL    HW259033   1.604   3.147   2.368
85732SOL     OW59034   6.419  11.695   7.114
85732SOL    HW159035   6.380  11.677   7.028
85732SOL    HW259036   6.494  11.636   7.118
85733SOL     OW59037  10.432   9.513  12.511
85733SOL    HW159038  10.390   9.438  12.554
85733SOL    HW259039  10.413   9.501  12.418
85734SOL     OW59040   2.816  13.634   1.336
85734SOL    HW159041   2.825  13.649   1.242
85734SOL    HW259042   2.750  13.565   1.343
85735SOL     OW59043  13.390   1.262   0.519
85735SOL    HW159044  13.351   1.347   0.537
85735SOL    HW259045  13.465   1.256   0.579
85736SOL     OW59046   5.341   5.924   0.376
85736SOL    HW159047   5.339   5.992   0.309
85736SOL    HW259048   5.310   5.967   0.456
85737SOL     OW59049   8.983   1.843  10.557
85737SOL    HW159050   8.937   1.892  10.625
85737SOL    HW259051   9.031   1.775  10.604
85738SOL     OW59052   2.732   4.694   2.351
85738SOL    HW159053   2.669   4.701   2.279
85738SOL    HW259054   2.732   4.601   2.373
85739SOL     OW59055   6.389   2.015   9.421
85739SOL    HW159056   6.440   1.967   9.356
85739SOL    HW259057   6.403   2.107   9.399
85740SOL     OW59058   1.501   2.590   3.045
85740SOL    HW159059   1.576   2.593   2.986
85740SOL    HW259060   1.513   2.510   3.096
85741SOL     OW59061   9.034   7.632   8.705
85741SOL    HW159062   9.096   7.700   8.679
85741SOL    HW259063   9.056   7.613   8.796
85742SOL     OW59064   8.554  14.436   8.387
85742SOL    HW159065   8.643  14.405   8.368
85742SOL    HW259066   8.498  14.366   8.354
85743SOL     OW59067  14.089  13.312  13.764
85743SOL    HW159068  14.155  13.276  13.823
85743SOL    HW259069  14.130  13.310  13.678
85744SOL     OW59070  14.675   2.722   9.596
85744SOL    HW159071  14.742   2.772   9.643
85744SOL    HW259072  14.724   2.666   9.536
85745SOL     OW59073   7.336   1.372  10.730
85745SOL    HW159074   7.329   1.298  10.790
85745SOL    HW259075   7.316   1.448  10.784
85746SOL     OW59076  11.180  11.812   4.455
85746SOL    HW159077  11.170  11.719   4.474
85746SOL    HW259078  11.097  11.838   4.416
85747SOL     OW59079   3.363  11.790   9.991
85747SOL    HW159080   3.297  11.722  10.005
85747SOL    HW259081   3.362  11.841  10.073
85748SOL     OW59082   4.535  12.372   2.764
85748SOL    HW159083   4.572  12.330   2.687
85748SOL    HW259084   4.443  12.385   2.742
85749SOL     OW59085   1.323   6.837   6.572
85749SOL    HW159086   1.260   6.863   6.640
85749SOL    HW259087   1.274   6.846   6.490
85750SOL     OW59088   1.385   0.025   0.268
85750SOL    HW159089   1.393  14.833   0.331
85750SOL    HW259090   1.472   0.065   0.267
85751SOL     OW59091   9.232  12.728  10.113
85751SOL    HW159092   9.297  12.716  10.045
85751SOL    HW259093   9.282  12.730  10.195
85752SOL     OW59094  10.012  10.729   8.451
85752SOL    HW159095   9.943  10.699   8.510
85752SOL    HW259096  10.023  10.657   8.389
85753SOL     OW59097  11.157   4.124   9.970
85753SOL    HW159098  11.146   4.218   9.961
85753SOL    HW259099  11.081   4.086   9.926
85754SOL     OW59100  14.208   3.489  13.230
85754SOL    HW159101  14.279   3.424  13.226
85754SOL    HW259102  14.168   3.485  13.144
85755SOL     OW59103  13.703   9.658   2.063
85755SOL    HW159104  13.752   9.622   2.137
85755SOL    HW259105  13.724   9.600   1.990
85756SOL     OW59106   5.236  14.722   3.595
85756SOL    HW159107   5.140  14.722   3.601
85756SOL    HW259108   5.259  14.813   3.578
85757SOL     OW59109   0.443  13.464   6.379
85757SOL    HW159110   0.423  13.406   6.306
85757SOL    HW259111   0.431  13.410   6.457
85758SOL     OW59112   7.742   0.825   9.109
85758SOL    HW159113   7.741   0.729   9.118
85758SOL    HW259114   7.807   0.841   9.040
85759SOL     OW59115  11.751   9.824   2.822
85759SOL    HW159116  11.665   9.783   2.818
85759SOL    HW259117  11.750   9.889   2.751
85760SOL     OW59118  10.413   9.616   9.495
85760SOL    HW159119  10.429   9.705   9.463
85760SOL    HW259120  10.482   9.563   9.454
85761SOL     OW59121   2.948   6.097  13.496
85761SOL    HW159122   2.918   6.186  13.513
85761SOL    HW259123   2.955   6.092  13.400
85762SOL     OW59124  11.333   1.712   3.318
85762SOL    HW159125  11.252   1.662   3.311
85762SOL    HW259126  11.330   1.752   3.405
85763SOL     OW59127  13.267   3.427   8.394
85763SOL    HW159128  13.223   3.353   8.435
85763SOL    HW259129  13.292   3.395   8.307
85764SOL     OW59130   3.283   7.643  11.708
85764SOL    HW159131   3.279   7.703  11.783
85764SOL    HW259132   3.283   7.555  11.748
85765SOL     OW59133   0.076   0.993   5.234
85765SOL    HW159134   0.020   1.061   5.272
85765SOL    HW259135   0.157   1.039   5.212
85766SOL     OW59136   0.393   6.162   5.137
85766SOL    HW159137   0.486   6.141   5.136
85766SOL    HW259138   0.352   6.094   5.083
85767SOL     OW59139   2.641  11.836   8.451
85767SOL    HW159140   2.553  11.874   8.454
85767SOL    HW259141   2.634  11.753   8.497
85768SOL     OW59142  12.233  13.787   5.761
85768SOL    HW159143  12.243  13.709   5.705
85768SOL    HW259144  12.198  13.753   5.843
85769SOL     OW59145   5.661  14.239   6.890
85769SOL    HW159146   5.666  14.274   6.801
85769SOL    HW259147   5.686  14.146   6.880
85770SOL     OW59148  13.308  10.857   8.157
85770SOL    HW159149  13.323  10.776   8.206
85770SOL    HW259150  13.213  10.866   8.153
85771SOL     OW59151   1.185  14.353   9.218
85771SOL    HW159152   1.261  14.383   9.168
85771SOL    HW259153   1.153  14.431   9.263
85772SOL     OW59154   9.167  10.408  14.771
85772SOL    HW159155   9.239  10.447  14.721
85772SOL    HW259156   9.110  10.370  14.705
85773SOL     OW59157  14.217  13.871   6.731
85773SOL    HW159158  14.189  13.908   6.814
85773SOL    HW259159  14.137  13.860   6.680
85774SOL     OW59160   8.473   7.176   2.118
85774SOL    HW159161   8.517   7.096   2.149
85774SOL    HW259162   8.397   7.186   2.175
85775SOL     OW59163   1.927   6.518  11.805
85775SOL    HW159164   1.917   6.520  11.900
85775SOL    HW259165   1.965   6.604  11.783
85776SOL     OW59166   1.622  11.421  10.918
85776SOL    HW159167   1.616  11.328  10.941
85776SOL    HW259168   1.532  11.452  10.922
85777SOL     OW59169   6.149  14.427  14.223
85777SOL    HW159170   6.093  14.456  14.295
85777SOL    HW259171   6.105  14.350  14.187
85778SOL     OW59172   9.461  10.251  10.792
85778SOL    HW159173   9.406  10.174  10.809
85778SOL    HW259174   9.510  10.264  10.874
85779SOL     OW59175   9.486  11.092  12.465
85779SOL    HW159176   9.465  11.098  12.372
85779SOL    HW259177   9.430  11.157  12.507
85780SOL     OW59178   9.999   3.027  11.175
85780SOL    HW159179   9.906   3.044  11.190
85780SOL    HW259180  10.043   3.103  11.214
85781SOL     OW59181   8.609  14.464   7.779
85781SOL    HW159182   8.570  14.503   7.701
85781SOL    HW259183   8.702  14.486   7.773
85782SOL     OW59184   4.949   6.111   9.270
85782SOL    HW159185   4.975   6.201   9.290
85782SOL    HW259186   5.026   6.059   9.292
85783SOL     OW59187   4.626   0.677   4.252
85783SOL    HW159188   4.672   0.678   4.168
85783SOL    HW259189   4.686   0.633   4.312
85784SOL     OW59190   5.666   6.045   5.887
85784SOL    HW159191   5.600   5.993   5.935
85784SOL    HW259192   5.738   6.056   5.950
85785SOL     OW59193   7.867   3.512   6.546
85785SOL    HW159194   7.884   3.561   6.465
85785SOL    HW259195   7.918   3.432   6.537
85786SOL     OW59196   5.602  11.077   0.518
85786SOL    HW159197   5.663  11.147   0.541
85786SOL    HW259198   5.548  11.116   0.448
85787SOL     OW59199   3.038   6.798   0.032
85787SOL    HW159200   3.095   6.771   0.104
85787SOL    HW259201   2.964   6.842   0.075
85788SOL     OW59202   9.416   3.138   8.320
85788SOL    HW159203   9.327   3.144   8.284
85788SOL    HW259204   9.404   3.093   8.404
85789SOL     OW59205   4.762  11.195   6.386
85789SOL    HW159206   4.823  11.129   6.352
85789SOL    HW259207   4.784  11.203   6.478
85790SOL     OW59208   3.638   7.067   2.627
85790SOL    HW159209   3.548   7.098   2.616
85790SOL    HW259210   3.687   7.106   2.554
85791SOL     OW59211  13.975   2.752   8.045
85791SOL    HW159212  13.916   2.696   7.996
85791SOL    HW259213  14.009   2.815   7.981
85792SOL     OW59214  11.035   9.393   0.142
85792SOL    HW159215  11.021   9.302   0.167
85792SOL    HW259216  11.065   9.435   0.222
85793SOL     OW59217  11.864   4.595   5.505
85793SOL    HW159218  11.801   4.640   5.449
85793SOL    HW259219  11.891   4.661   5.569
85794SOL     OW59220   3.364  10.069   2.870
85794SOL    HW159221   3.397   9.989   2.829
85794SOL    HW259222   3.442  10.121   2.888
85795SOL     OW59223  14.521  14.235   0.215
85795SOL    HW159224  14.563  14.200   0.293
85795SOL    HW259225  14.430  14.246   0.239
85796SOL     OW59226   7.001  13.592   3.781
85796SOL    HW159227   7.042  13.556   3.860
85796SOL    HW259228   7.045  13.549   3.708
85797SOL     OW59229  12.045   5.884   2.217
85797SOL    HW159230  11.971   5.833   2.183
85797SOL    HW259231  12.008   5.968   2.242
85798SOL     OW59232   7.162  13.265   9.986
85798SOL    HW159233   7.212  13.277   9.906
85798SOL    HW259234   7.159  13.352  10.026
85799SOL     OW59235  14.862  10.432  10.450
85799SOL    HW159236   0.031  10.507  10.485
85799SOL    HW259237  14.835  10.460  10.363
85800SOL     OW59238   8.121   1.846  14.355
85800SOL    HW159239   8.036   1.803  14.352
85800SOL    HW259240   8.169   1.812  14.280
85801SOL     OW59241  13.344   0.473   2.468
85801SOL    HW159242  13.343   0.524   2.549
85801SOL    HW259243  13.279   0.515   2.411
85802SOL     OW59244   5.764  12.430  12.817
85802SOL    HW159245   5.759  12.466  12.729
85802SOL    HW259246   5.726  12.342  12.809
85803SOL     OW59247   9.042  13.715  11.347
85803SOL    HW159248   9.118  13.730  11.403
85803SOL    HW259249   8.975  13.775  11.381
85804SOL     OW59250  14.269  14.383  12.822
85804SOL    HW159251  14.180  14.352  12.835
85804SOL    HW259252  14.286  14.367  12.729
85805SOL     OW59253  10.586  12.852   5.175
85805SOL    HW159254  10.493  12.874   5.177
85805SOL    HW259255  10.588  12.757   5.169
85806SOL     OW59256   9.109   6.751   8.893
85806SOL    HW159257   9.113   6.827   8.836
85806SOL    HW259258   9.076   6.681   8.837
85807SOL     OW59259   3.968  12.344   3.613
85807SOL    HW159260   4.057  12.309   3.624
85807SOL    HW259261   3.913  12.283   3.663
85808SOL     OW59262   6.494  13.774   2.585
85808SOL    HW159263   6.470  13.685   2.559
85808SOL    HW259264   6.411  13.813   2.614
85809SOL     OW59265   4.866  11.047   9.556
85809SOL    HW159266   4.943  10.991   9.565
85809SOL    HW259267   4.825  11.045   9.642
85810SOL     OW59268   9.931   7.096   7.669
85810SOL    HW159269   9.886   7.076   7.587
85810SOL    HW259270  10.018   7.059   7.658
85811SOL     OW59271   7.727   8.355   3.745
85811SOL    HW159272   7.637   8.367   3.718
85811SOL    HW259273   7.721   8.328   3.837
85812SOL     OW59274   2.069   3.549   7.659
85812SOL    HW159275   2.016   3.538   7.737
85812SOL    HW259276   2.059   3.641   7.635
85813SOL     OW59277  11.845   3.538   0.728
85813SOL    HW159278  11.906   3.607   0.700
85813SOL    HW259279  11.881   3.458   0.691
85814SOL     OW59280   1.477  10.121   3.500
85814SOL    HW159281   1.560  10.124   3.547
85814SOL    HW259282   1.445  10.211   3.503
85815SOL     OW59283   1.344   8.449   0.065
85815SOL    HW159284   1.433   8.413   0.060
85815SOL    HW259285   1.349   8.518   0.131
85816SOL     OW59286   7.145   6.554   6.668
85816SOL    HW159287   7.167   6.494   6.597
85816SOL    HW259288   7.219   6.615   6.672
85817SOL     OW59289   6.845   6.683  14.259
85817SOL    HW159290   6.756   6.681  14.296
85817SOL    HW259291   6.866   6.591  14.244
85818SOL     OW59292  12.907   1.252   6.131
85818SOL    HW159293  12.895   1.206   6.048
85818SOL    HW259294  12.861   1.335   6.119
85819SOL     OW59295  10.781  13.554   3.410
85819SOL    HW159296  10.695  13.519   3.389
85819SOL    HW259297  10.791  13.630   3.352
85820SOL     OW59298   3.662   4.550   6.476
85820SOL    HW159299   3.724   4.555   6.404
85820SOL    HW259300   3.661   4.639   6.513
85821SOL     OW59301   0.671   6.600   9.742
85821SOL    HW159302   0.624   6.534   9.793
85821SOL    HW259303   0.717   6.550   9.675
85822SOL     OW59304   5.054   3.309   7.225
85822SOL    HW159305   5.019   3.398   7.218
85822SOL    HW259306   5.071   3.297   7.319
85823SOL     OW59307   1.989  11.285   7.945
85823SOL    HW159308   1.895  11.304   7.950
85823SOL    HW259309   2.023  11.350   7.883
85824SOL     OW59310  14.238   0.019  13.899
85824SOL    HW159311  14.234   0.044  13.807
85824SOL    HW259312  14.281  14.812  13.898
85825SOL     OW59313   2.572  14.501   7.787
85825SOL    HW159314   2.563  14.408   7.809
85825SOL    HW259315   2.573  14.546   7.872
85826SOL     OW59316  13.815  10.359  11.459
85826SOL    HW159317  13.796  10.297  11.388
85826SOL    HW259318  13.835  10.441  11.415
85827SOL     OW59319   4.549   0.564  11.432
85827SOL    HW159320   4.499   0.579  11.512
85827SOL    HW259321   4.530   0.639  11.377
85828SOL     OW59322  13.950   8.272  13.661
85828SOL    HW159323  13.930   8.343  13.601
85828SOL    HW259324  13.994   8.314  13.734
85829SOL     OW59325   9.825   1.956   1.007
85829SOL    HW159326   9.845   2.016   1.078
85829SOL    HW259327   9.734   1.975   0.984
85830SOL     OW59328   5.712   8.762   4.191
85830SOL    HW159329   5.662   8.730   4.116
85830SOL    HW259330   5.713   8.688   4.252
85831SOL     OW59331  12.069   8.984   2.970
85831SOL    HW159332  12.106   9.070   2.949
85831SOL    HW259333  11.995   8.975   2.909
85832SOL     OW59334   8.407   9.053   9.641
85832SOL    HW159335   8.396   9.142   9.608
85832SOL    HW259336   8.471   9.061   9.712
85833SOL     OW59337   8.628  11.665  11.132
85833SOL    HW159338   8.548  11.715  11.144
85833SOL    HW259339   8.607  11.577  11.164
85834SOL     OW59340  14.239  13.110   4.044
85834SOL    HW159341  14.277  13.032   4.084
85834SOL    HW259342  14.184  13.148   4.113
85835SOL     OW59343   5.949   6.961   1.029
85835SOL    HW159344   5.977   6.891   1.087
85835SOL    HW259345   5.891   6.918   0.966
85836SOL     OW59346  11.467   5.369  11.864
85836SOL    HW159347  11.384   5.416  11.850
85836SOL    HW259348  11.498   5.348  11.776
85837SOL     OW59349  10.388   2.363  10.131
85837SOL    HW159350  10.380   2.294  10.066
85837SOL    HW259351  10.299   2.393  10.146
85838SOL     OW59352   6.727  11.920   4.423
85838SOL    HW159353   6.711  11.912   4.329
85838SOL    HW259354   6.645  11.891   4.464
85839SOL     OW59355  11.472   6.273   0.265
85839SOL    HW159356  11.495   6.347   0.209
85839SOL    HW259357  11.411   6.309   0.330
85840SOL     OW59358  10.220   2.072  14.806
85840SOL    HW159359  10.183   2.034   0.007
85840SOL    HW259360  10.249   2.159  14.832
85841SOL     OW59361  11.914   1.557  13.884
85841SOL    HW159362  12.009   1.557  13.902
85841SOL    HW259363  11.882   1.637  13.927
85842SOL     OW59364  11.211  14.032  11.702
85842SOL    HW159365  11.225  14.127  11.709
85842SOL    HW259366  11.147  14.012  11.770
85843SOL     OW59367   1.901   0.947  10.253
85843SOL    HW159368   1.825   0.895  10.227
85843SOL    HW259369   1.870   1.037  10.254
85844SOL     OW59370   1.675   3.752   5.650
85844SOL    HW159371   1.603   3.708   5.696
85844SOL    HW259372   1.633   3.792   5.574
85845SOL     OW59373  12.028  11.392  14.271
85845SOL    HW159374  11.972  11.444  14.329
85845SOL    HW259375  12.052  11.316  14.323
85846SOL     OW59376   5.869   9.297   5.702
85846SOL    HW159377   5.897   9.206   5.699
85846SOL    HW259378   5.909   9.332   5.781
85847SOL     OW59379  14.473  10.412  13.806
85847SOL    HW159380  14.540  10.472  13.772
85847SOL    HW259381  14.521  10.353  13.864
85848SOL     OW59382   6.004   7.153  10.283
85848SOL    HW159383   6.015   7.090  10.212
85848SOL    HW259384   6.091   7.160  10.323
85849SOL     OW59385   9.626   7.543  10.660
85849SOL    HW159386   9.711   7.583  10.681
85849SOL    HW259387   9.626   7.460  10.707
85850SOL     OW59388   1.165   0.743   2.722
85850SOL    HW159389   1.079   0.766   2.688
85850SOL    HW259390   1.225   0.751   2.647
85851SOL     OW59391   0.846   8.765   5.505
85851SOL    HW159392   0.861   8.670   5.501
85851SOL    HW259393   0.919   8.798   5.558
85852SOL     OW59394   8.695   0.635  11.341
85852SOL    HW159395   8.681   0.544  11.314
85852SOL    HW259396   8.784   0.654  11.311
85853SOL     OW59397   4.980  13.164  10.840
85853SOL    HW159398   5.053  13.225  10.849
85853SOL    HW259399   4.938  13.162  10.926
85854SOL     OW59400   4.127   6.988  14.609
85854SOL    HW159401   4.090   7.022  14.528
85854SOL    HW259402   4.218   6.968  14.588
85855SOL     OW59403   9.525  13.402   5.788
85855SOL    HW159404   9.560  13.391   5.700
85855SOL    HW259405   9.471  13.324   5.802
85856SOL     OW59406   8.658   7.261   6.392
85856SOL    HW159407   8.720   7.333   6.380
85856SOL    HW259408   8.604   7.289   6.466
85857SOL     OW59409  10.979   3.923  13.175
85857SOL    HW159410  10.961   3.942  13.083
85857SOL    HW259411  10.896   3.941  13.219
85858SOL     OW59412   8.895   2.095  13.535
85858SOL    HW159413   8.862   2.183  13.520
85858SOL    HW259414   8.948   2.075  13.457
85859SOL     OW59415   1.226   3.048   1.730
85859SOL    HW159416   1.302   3.094   1.766
85859SOL    HW259417   1.152   3.104   1.752
85860SOL     OW59418   4.913  10.936  10.585
85860SOL    HW159419   4.951  11.018  10.553
85860SOL    HW259420   4.819  10.946  10.571
85861SOL     OW59421  12.556   6.010  12.939
85861SOL    HW159422  12.497   6.064  12.886
85861SOL    HW259423  12.499   5.943  12.977
85862SOL     OW59424  10.914   0.083  11.059
85862SOL    HW159425  10.937   0.117  10.973
85862SOL    HW259426  10.890  14.871  11.043
85863SOL     OW59427   1.987   1.943   3.481
85863SOL    HW159428   2.082   1.943   3.489
85863SOL    HW259429   1.958   2.013   3.539
85864SOL     OW59430  10.430   0.584  10.441
85864SOL    HW159431  10.456   0.548  10.526
85864SOL    HW259432  10.382   0.513  10.398
85865SOL     OW59433   6.766   5.973   3.414
85865SOL    HW159434   6.704   6.038   3.447
85865SOL    HW259435   6.724   5.889   3.432
85866SOL     OW59436   3.751  12.774   7.935
85866SOL    HW159437   3.767  12.689   7.894
85866SOL    HW259438   3.664  12.765   7.975
85867SOL     OW59439   3.908   5.599   2.411
85867SOL    HW159440   3.841   5.664   2.433
85867SOL    HW259441   3.862   5.515   2.415
85868SOL     OW59442  13.819   0.815   7.276
85868SOL    HW159443  13.889   0.752   7.292
85868SOL    HW259444  13.743   0.761   7.253
85869SOL     OW59445   9.689  14.041  14.110
85869SOL    HW159446   9.723  14.091  14.184
85869SOL    HW259447   9.767  14.001  14.071
85870SOL     OW59448   1.616   7.862   7.629
85870SOL    HW159449   1.698   7.899   7.597
85870SOL    HW259450   1.548   7.905   7.577
85871SOL     OW59451   0.038   6.877   6.658
85871SOL    HW159452  14.877   6.805   6.609
85871SOL    HW259453   0.123   6.890   6.617
85872SOL     OW59454   0.438   1.229   7.920
85872SOL    HW159455   0.400   1.199   8.003
85872SOL    HW259456   0.496   1.157   7.893
85873SOL     OW59457  10.682   7.522  14.391
85873SOL    HW159458  10.756   7.548  14.447
85873SOL    HW259459  10.641   7.605  14.366
85874SOL     OW59460   8.813   6.648   7.236
85874SOL    HW159461   8.850   6.660   7.148
85874SOL    HW259462   8.885   6.669   7.295
85875SOL     OW59463   9.385   5.105   2.185
85875SOL    HW159464   9.459   5.053   2.218
85875SOL    HW259465   9.426   5.179   2.141
85876SOL     OW59466  10.775  10.190   2.360
85876SOL    HW159467  10.827  10.241   2.421
85876SOL    HW259468  10.767  10.246   2.282
85877SOL     OW59469  13.074   9.882   4.326
85877SOL    HW159470  13.128   9.961   4.315
85877SOL    HW259471  13.110   9.838   4.403
85878SOL     OW59472   6.298   3.207   7.379
85878SOL    HW159473   6.307   3.158   7.461
85878SOL    HW259474   6.205   3.227   7.373
85879SOL     OW59475   8.638   5.723   0.766
85879SOL    HW159476   8.706   5.764   0.712
85879SOL    HW259477   8.559   5.774   0.747
85880SOL     OW59478   4.798   7.214   8.080
85880SOL    HW159479   4.891   7.195   8.065
85880SOL    HW259480   4.758   7.128   8.093
85881SOL     OW59481  12.398  13.409   6.791
85881SOL    HW159482  12.416  13.343   6.858
85881SOL    HW259483  12.484  13.436   6.759
85882SOL     OW59484  12.549   1.966  12.632
85882SOL    HW159485  12.572   2.042  12.686
85882SOL    HW259486  12.460   1.984  12.602
85883SOL     OW59487   1.340   9.163   9.822
85883SOL    HW159488   1.366   9.212   9.899
85883SOL    HW259489   1.246   9.149   9.833
85884SOL     OW59490  13.902  10.880  10.127
85884SOL    HW159491  13.998  10.880  10.120
85884SOL    HW259492  13.873  10.936  10.055
85885SOL     OW59493  12.992   8.446   4.763
85885SOL    HW159494  12.927   8.488   4.821
85885SOL    HW259495  13.031   8.377   4.817
85886SOL     OW59496  11.729   9.812   3.539
85886SOL    HW159497  11.707   9.784   3.450
85886SOL    HW259498  11.685   9.749   3.596
85887SOL     OW59499  11.930  13.808  10.393
85887SOL    HW159500  11.888  13.882  10.436
85887SOL    HW259501  11.914  13.822  10.299
85888SOL     OW59502   7.898   9.340   8.260
85888SOL    HW159503   7.866   9.373   8.175
85888SOL    HW259504   7.868   9.405   8.323
85889SOL     OW59505   8.837  11.993   0.209
85889SOL    HW159506   8.863  11.920   0.266
85889SOL    HW259507   8.914  12.010   0.156
85890SOL     OW59508  12.619  11.149   7.512
85890SOL    HW159509  12.683  11.101   7.566
85890SOL    HW259510  12.580  11.212   7.572
85891SOL     OW59511  13.655   4.740   3.180
85891SOL    HW159512  13.641   4.660   3.129
85891SOL    HW259513  13.654   4.711   3.271
85892SOL     OW59514   8.515   9.251  11.207
85892SOL    HW159515   8.528   9.157  11.197
85892SOL    HW259516   8.458   9.275  11.133
85893SOL     OW59517   4.603   8.052   4.850
85893SOL    HW159518   4.670   8.083   4.788
85893SOL    HW259519   4.531   8.113   4.840
85894SOL     OW59520  10.707   4.718  13.664
85894SOL    HW159521  10.706   4.641  13.608
85894SOL    HW259522  10.701   4.793  13.604
85895SOL     OW59523  13.293   4.495   1.540
85895SOL    HW159524  13.371   4.441   1.555
85895SOL    HW259525  13.222   4.433   1.528
85896SOL     OW59526   1.447  14.294   8.485
85896SOL    HW159527   1.441  14.207   8.524
85896SOL    HW259528   1.360  14.311   8.450
85897SOL     OW59529   4.354  10.158   1.414
85897SOL    HW159530   4.404  10.080   1.438
85897SOL    HW259531   4.272  10.123   1.378
85898SOL     OW59532  10.599   7.357   9.395
85898SOL    HW159533  10.693   7.373   9.385
85898SOL    HW259534  10.576   7.399   9.478
85899SOL     OW59535   5.819   1.623   6.221
85899SOL    HW159536   5.775   1.571   6.154
85899SOL    HW259537   5.912   1.604   6.209
85900SOL     OW59538  12.121   1.960   3.387
85900SOL    HW159539  12.161   2.027   3.332
85900SOL    HW259540  12.036   1.943   3.346
85901SOL     OW59541  10.437  11.251  13.818
85901SOL    HW159542  10.408  11.163  13.793
85901SOL    HW259543  10.493  11.279  13.746
85902SOL     OW59544   7.310  14.813   1.646
85902SOL    HW159545   7.369  14.865   1.701
85902SOL    HW259546   7.336  14.722   1.663
85903SOL     OW59547   1.891  14.192  14.354
85903SOL    HW159548   1.801  14.182  14.384
85903SOL    HW259549   1.926  14.103  14.352
85904SOL     OW59550  10.175   5.815   7.313
85904SOL    HW159551  10.149   5.769   7.393
85904SOL    HW259552  10.120   5.893   7.311
85905SOL     OW59553   4.845   0.418  12.514
85905SOL    HW159554   4.784   0.468  12.569
85905SOL    HW259555   4.842   0.330  12.550
85906SOL     OW59556  13.311  13.674   2.721
85906SOL    HW159557  13.249  13.702   2.789
85906SOL    HW259558  13.262  13.684   2.639
85907SOL     OW59559   0.616   8.213   0.284
85907SOL    HW159560   0.581   8.302   0.286
85907SOL    HW259561   0.573   8.170   0.358
85908SOL     OW59562  11.434  12.845  12.792
85908SOL    HW159563  11.437  12.895  12.873
85908SOL    HW259564  11.479  12.900  12.728
85909SOL     OW59565   6.268  11.735   1.266
85909SOL    HW159566   6.185  11.700   1.298
85909SOL    HW259567   6.274  11.706   1.175
85910SOL     OW59568   3.394   0.183   5.060
85910SOL    HW159569   3.388   0.087   5.053
85910SOL    HW259570   3.373   0.215   4.973
85911SOL     OW59571   6.549  12.338   9.826
85911SOL    HW159572   6.594  12.408   9.779
85911SOL    HW259573   6.459  12.370   9.836
85912SOL     OW59574   1.902   1.819   0.316
85912SOL    HW159575   1.971   1.828   0.250
85912SOL    HW259576   1.843   1.893   0.298
85913SOL     OW59577  10.828   4.964  12.661
85913SOL    HW159578  10.911   4.971  12.707
85913SOL    HW259579  10.762   4.988  12.726
85914SOL     OW59580   6.085  14.550  12.262
85914SOL    HW159581   6.118  14.465  12.290
85914SOL    HW259582   6.092  14.549  12.167
85915SOL     OW59583   8.977  13.050  13.923
85915SOL    HW159584   8.891  13.023  13.891
85915SOL    HW259585   9.003  12.980  13.983
85916SOL     OW59586  13.343   7.819  12.377
85916SOL    HW159587  13.410   7.872  12.333
85916SOL    HW259588  13.294   7.778  12.307
85917SOL     OW59589  12.724  14.091  11.247
85917SOL    HW159590  12.658  14.040  11.200
85917SOL    HW259591  12.728  14.051  11.334
85918SOL     OW59592   2.500   8.442   6.508
85918SOL    HW159593   2.552   8.365   6.532
85918SOL    HW259594   2.550   8.516   6.542
85919SOL     OW59595  10.955   0.961   3.022
85919SOL    HW159596  11.044   0.978   3.053
85919SOL    HW259597  10.967   0.903   2.946
85920SOL     OW59598   0.708   3.916   9.826
85920SOL    HW159599   0.718   3.983   9.893
85920SOL    HW259600   0.620   3.930   9.790
85921SOL     OW59601   9.114   2.988   1.198
85921SOL    HW159602   9.166   2.972   1.120
85921SOL    HW259603   9.023   2.988   1.167
85922SOL     OW59604   3.977  13.429  13.023
85922SOL    HW159605   4.002  13.337  13.014
85922SOL    HW259606   3.974  13.443  13.118
85923SOL     OW59607   6.757  11.566   1.495
85923SOL    HW159608   6.834  11.511   1.509
85923SOL    HW259609   6.692  11.534   1.558
85924SOL     OW59610   9.824   8.558   0.638
85924SOL    HW159611   9.743   8.529   0.680
85924SOL    HW259612   9.892   8.505   0.680
85925SOL     OW59613  13.653   3.714   4.338
85925SOL    HW159614  13.682   3.649   4.402
85925SOL    HW259615  13.671   3.674   4.253
85926SOL     OW59616   7.222   4.526   7.727
85926SOL    HW159617   7.263   4.584   7.662
85926SOL    HW259618   7.207   4.444   7.678
85927SOL     OW59619   4.581  12.876  13.959
85927SOL    HW159620   4.501  12.929  13.960
85927SOL    HW259621   4.551  12.787  13.942
85928SOL     OW59622   6.126  10.312   4.271
85928SOL    HW159623   6.031  10.311   4.270
85928SOL    HW259624   6.149  10.279   4.358
85929SOL     OW59625   5.389  13.488   9.294
85929SOL    HW159626   5.317  13.505   9.356
85929SOL    HW259627   5.394  13.569   9.242
85930SOL     OW59628   0.144  12.827   6.580
85930SOL    HW159629   0.048  12.831   6.579
85930SOL    HW259630   0.163  12.749   6.633
85931SOL     OW59631  11.532   5.380  10.425
85931SOL    HW159632  11.548   5.339  10.510
85931SOL    HW259633  11.480   5.458  10.446
85932SOL     OW59634  10.619  13.607   4.071
85932SOL    HW159635  10.682  13.578   4.137
85932SOL    HW259636  10.621  13.538   4.004
85933SOL     OW59637  11.204   8.920   9.852
85933SOL    HW159638  11.173   8.861   9.784
85933SOL    HW259639  11.189   9.008   9.816
85934SOL     OW59640   5.270  14.010   6.510
85934SOL    HW159641   5.271  14.005   6.415
85934SOL    HW259642   5.305  13.925   6.539
85935SOL     OW59643   7.305  11.838   7.016
85935SOL    HW159644   7.358  11.840   7.096
85935SOL    HW259645   7.234  11.777   7.036
85936SOL     OW59646   8.792   6.762   5.518
85936SOL    HW159647   8.793   6.778   5.612
85936SOL    HW259648   8.813   6.669   5.509
85937SOL     OW59649  12.469   2.730  11.922
85937SOL    HW159650  12.442   2.740  11.831
85937SOL    HW259651  12.527   2.805  11.938
85938SOL     OW59652   2.694   6.861   5.486
85938SOL    HW159653   2.758   6.795   5.511
85938SOL    HW259654   2.742   6.944   5.492
85939SOL     OW59655   0.177   9.097   6.933
85939SOL    HW159656   0.251   9.037   6.921
85939SOL    HW259657   0.126   9.089   6.853
85940SOL     OW59658   3.919  14.636  10.369
85940SOL    HW159659   3.909  14.562  10.309
85940SOL    HW259660   3.919  14.596  10.456
85941SOL     OW59661   9.767  10.054   3.519
85941SOL    HW159662   9.679  10.065   3.555
85941SOL    HW259663   9.817  10.127   3.556
85942SOL     OW59664   1.505   6.272  13.303
85942SOL    HW159665   1.422   6.225  13.292
85942SOL    HW259666   1.512   6.288  13.397
85943SOL     OW59667  13.160   6.922   6.754
85943SOL    HW159668  13.216   6.981   6.703
85943SOL    HW259669  13.204   6.837   6.750
85944SOL     OW59670   6.326   6.147  13.839
85944SOL    HW159671   6.356   6.234  13.814
85944SOL    HW259672   6.272   6.162  13.916
85945SOL     OW59673   1.717  10.403  13.565
85945SOL    HW159674   1.770  10.482  13.562
85945SOL    HW259675   1.774  10.334  13.531
85946SOL     OW59676  10.862  13.616   0.173
85946SOL    HW159677  10.777  13.583   0.145
85946SOL    HW259678  10.850  13.711   0.178
85947SOL     OW59679   4.744   1.994   2.421
85947SOL    HW159680   4.781   2.082   2.435
85947SOL    HW259681   4.815   1.934   2.445
85948SOL     OW59682   1.794   3.501  12.775
85948SOL    HW159683   1.772   3.493  12.683
85948SOL    HW259684   1.827   3.415  12.800
85949SOL     OW59685   9.775   1.305   4.683
85949SOL    HW159686   9.837   1.238   4.712
85949SOL    HW259687   9.697   1.256   4.658
85950SOL     OW59688   8.315   3.140   5.600
85950SOL    HW159689   8.227   3.176   5.593
85950SOL    HW259690   8.368   3.213   5.631
85951SOL     OW59691   2.510  14.307   2.633
85951SOL    HW159692   2.539  14.242   2.569
85951SOL    HW259693   2.441  14.262   2.683
85952SOL     OW59694   9.068   0.336  10.086
85952SOL    HW159695   9.006   0.406  10.071
85952SOL    HW259696   9.029   0.284  10.157
85953SOL     OW59697  12.042  14.710   8.773
85953SOL    HW159698  11.977  14.741   8.710
85953SOL    HW259699  12.039  14.775   8.843
85954SOL     OW59700   9.173   8.868   6.946
85954SOL    HW159701   9.237   8.897   7.011
85954SOL    HW259702   9.193   8.920   6.868
85955SOL     OW59703   0.806  12.175   7.138
85955SOL    HW159704   0.893  12.134   7.136
85955SOL    HW259705   0.768  12.156   7.053
85956SOL     OW59706   9.299  12.393  12.668
85956SOL    HW159707   9.222  12.435  12.704
85956SOL    HW259708   9.275  12.372  12.577
85957SOL     OW59709   8.936   3.869  11.909
85957SOL    HW159710   8.979   3.915  11.837
85957SOL    HW259711   8.978   3.784  11.911
85958SOL     OW59712   3.647   7.923   2.074
85958SOL    HW159713   3.578   7.986   2.094
85958SOL    HW259714   3.719   7.947   2.133
85959SOL     OW59715   1.595   0.982  13.524
85959SOL    HW159716   1.599   0.949  13.614
85959SOL    HW259717   1.598   1.077  13.533
85960SOL     OW59718   9.266   8.270   2.436
85960SOL    HW159719   9.259   8.344   2.376
85960SOL    HW259720   9.301   8.307   2.517
85961SOL     OW59721  13.002   1.393   1.809
85961SOL    HW159722  13.073   1.410   1.870
85961SOL    HW259723  13.040   1.337   1.742
85962SOL     OW59724   7.246   8.249   0.775
85962SOL    HW159725   7.269   8.325   0.721
85962SOL    HW259726   7.230   8.179   0.713
85963SOL     OW59727   7.186  10.157   8.936
85963SOL    HW159728   7.155  10.144   8.847
85963SOL    HW259729   7.266  10.105   8.943
85964SOL     OW59730   0.137   5.149   5.521
85964SOL    HW159731   0.149   5.243   5.505
85964SOL    HW259732   0.218   5.122   5.564
85965SOL     OW59733   2.877   4.318  11.286
85965SOL    HW159734   2.963   4.309  11.326
85965SOL    HW259735   2.815   4.319  11.359
85966SOL     OW59736  10.774  14.823   3.848
85966SOL    HW159737  10.773  14.749   3.787
85966SOL    HW259738  10.810  14.786   3.929
85967SOL     OW59739  13.553   9.298   8.997
85967SOL    HW159740  13.635   9.319   8.954
85967SOL    HW259741  13.510   9.382   9.010
85968SOL     OW59742  13.046   2.869   0.835
85968SOL    HW159743  13.072   2.824   0.755
85968SOL    HW259744  12.955   2.842   0.849
85969SOL     OW59745   6.049   2.715   5.466
85969SOL    HW159746   6.054   2.718   5.371
85969SOL    HW259747   6.111   2.648   5.492
85970SOL     OW59748   5.549   8.824   2.497
85970SOL    HW159749   5.588   8.859   2.577
85970SOL    HW259750   5.455   8.840   2.508
85971SOL     OW59751  10.034   9.460   6.591
85971SOL    HW159752  10.059   9.466   6.683
85971SOL    HW259753  10.078   9.534   6.549
85972SOL     OW59754   2.821   6.130   9.009
85972SOL    HW159755   2.725   6.129   9.009
85972SOL    HW259756   2.845   6.136   8.917
85973SOL     OW59757   1.674  10.771   2.074
85973SOL    HW159758   1.676  10.796   2.166
85973SOL    HW259759   1.741  10.702   2.066
85974SOL     OW59760   9.791  14.700   8.693
85974SOL    HW159761   9.755  14.678   8.779
85974SOL    HW259762   9.802  14.795   8.695
85975SOL     OW59763   5.563  13.416  10.464
85975SOL    HW159764   5.620  13.407  10.540
85975SOL    HW259765   5.606  13.481  10.408
85976SOL     OW59766   9.658   0.456   9.427
85976SOL    HW159767   9.636   0.522   9.493
85976SOL    HW259768   9.718   0.502   9.367
85977SOL     OW59769   0.204   8.570   6.570
85977SOL    HW159770   0.272   8.509   6.541
85977SOL    HW259771   0.197   8.633   6.498
85978SOL     OW59772  10.072   5.227   0.788
85978SOL    HW159773  10.085   5.250   0.696
85978SOL    HW259774   9.982   5.255   0.807
85979SOL     OW59775   9.921   3.165   6.645
85979SOL    HW159776   9.829   3.138   6.653
85979SOL    HW259777   9.954   3.161   6.734
85980SOL     OW59778   7.618   8.274   9.522
85980SOL    HW159779   7.531   8.311   9.509
85980SOL    HW259780   7.676   8.330   9.469
85981SOL     OW59781   9.100   5.561   6.637
85981SOL    HW159782   9.094   5.649   6.673
85981SOL    HW259783   9.156   5.513   6.699
85982SOL     OW59784  13.094  11.243   0.525
85982SOL    HW159785  13.153  11.258   0.599
85982SOL    HW259786  13.108  11.318   0.467
85983SOL     OW59787  14.796   3.358   9.786
85983SOL    HW159788  14.868   3.415   9.759
85983SOL    HW259789  14.815   3.338   9.877
85984SOL     OW59790   4.804   6.940  11.600
85984SOL    HW159791   4.724   6.985  11.572
85984SOL    HW259792   4.870   6.965  11.536
85985SOL     OW59793   4.207   2.670   6.706
85985SOL    HW159794   4.124   2.718   6.698
85985SOL    HW259795   4.227   2.642   6.617
85986SOL     OW59796  12.221  12.773   1.113
85986SOL    HW159797  12.154  12.840   1.099
85986SOL    HW259798  12.254  12.754   1.025
85987SOL     OW59799   1.102   6.942   8.161
85987SOL    HW159800   1.029   6.998   8.186
85987SOL    HW259801   1.116   6.886   8.238
85988SOL     OW59802  13.032  13.470   3.105
85988SOL    HW159803  12.952  13.508   3.069
85988SOL    HW259804  13.013  13.456   3.198
85989SOL     OW59805   0.202   2.257   7.564
85989SOL    HW159806   0.245   2.337   7.532
85989SOL    HW259807   0.268   2.189   7.555
85990SOL     OW59808  10.000   8.468   5.266
85990SOL    HW159809  10.064   8.518   5.214
85990SOL    HW259810  10.043   8.383   5.281
85991SOL     OW59811   0.884   0.092  10.861
85991SOL    HW159812   0.929   0.136  10.933
85991SOL    HW259813   0.899  14.878  10.877
85992SOL     OW59814  13.385   2.518  11.471
85992SOL    HW159815  13.316   2.455  11.448
85992SOL    HW259816  13.380   2.526  11.566
85993SOL     OW59817   2.956  13.201  11.379
85993SOL    HW159818   3.027  13.237  11.432
85993SOL    HW259819   2.902  13.277  11.356
85994SOL     OW59820   7.356  12.557   1.126
85994SOL    HW159821   7.339  12.465   1.105
85994SOL    HW259822   7.313  12.605   1.055
85995SOL     OW59823   8.334   1.655  13.453
85995SOL    HW159824   8.379   1.649  13.537
85995SOL    HW259825   8.241   1.656  13.476
85996SOL     OW59826   2.805   4.397   2.194
85996SOL    HW159827   2.730   4.426   2.246
85996SOL    HW259828   2.822   4.471   2.135
85997SOL     OW59829   3.063  14.268   6.438
85997SOL    HW159830   3.109  14.352   6.433
85997SOL    HW259831   3.070  14.232   6.349
85998SOL     OW59832  13.026   1.445   5.098
85998SOL    HW159833  12.990   1.534   5.089
85998SOL    HW259834  13.011   1.423   5.190
85999SOL     OW59835  11.533   7.102   4.640
85999SOL    HW159836  11.448   7.144   4.625
85999SOL    HW259837  11.518   7.043   4.714
86000SOL     OW59838   4.030   9.444   1.088
86000SOL    HW159839   4.105   9.468   1.033
86000SOL    HW259840   4.006   9.526   1.131
86001SOL     OW59841   7.834   8.140   8.626
86001SOL    HW159842   7.776   8.132   8.702
86001SOL    HW259843   7.906   8.195   8.657
86002SOL     OW59844   3.686  13.633  11.799
86002SOL    HW159845   3.639  13.570  11.744
86002SOL    HW259846   3.692  13.590  11.885
86003SOL     OW59847  14.417  14.686  12.764
86003SOL    HW159848  14.431  14.639  12.681
86003SOL    HW259849  14.411  14.617  12.830
86004SOL     OW59850   2.604   9.085   6.777
86004SOL    HW159851   2.573   9.174   6.796
86004SOL    HW259852   2.524   9.037   6.755
86005SOL     OW59853   1.038   4.714  14.391
86005SOL    HW159854   1.037   4.777  14.463
86005SOL    HW259855   1.130   4.690  14.382
86006SOL     OW59856   0.760  14.109   0.792
86006SOL    HW159857   0.692  14.114   0.859
86006SOL    HW259858   0.719  14.062   0.720
86007SOL     OW59859   5.982   1.499   4.445
86007SOL    HW159860   5.893   1.528   4.426
86007SOL    HW259861   5.994   1.421   4.392
86008SOL     OW59862  13.443   1.848   9.414
86008SOL    HW159863  13.434   1.752   9.417
86008SOL    HW259864  13.501   1.868   9.487
86009SOL     OW59865   1.459   9.888   7.667
86009SOL    HW159866   1.416   9.966   7.702
86009SOL    HW259867   1.537   9.877   7.721
86010SOL     OW59868  10.886   7.130  12.442
86010SOL    HW159869  10.913   7.190  12.511
86010SOL    HW259870  10.953   7.061  12.443
86011SOL     OW59871   8.727   3.672  13.493
86011SOL    HW159872   8.797   3.614  13.464
86011SOL    HW259873   8.762   3.714  13.572
86012SOL     OW59874   7.638   9.379   0.650
86012SOL    HW159875   7.609   9.467   0.673
86012SOL    HW259876   7.667   9.386   0.558
86013SOL     OW59877   5.523  11.491   5.369
86013SOL    HW159878   5.544  11.398   5.373
86013SOL    HW259879   5.502  11.507   5.277
86014SOL     OW59880   1.643   9.882   3.818
86014SOL    HW159881   1.588   9.807   3.796
86014SOL    HW259882   1.613   9.910   3.904
86015SOL     OW59883  13.707   9.329   4.882
86015SOL    HW159884  13.620   9.370   4.882
86015SOL    HW259885  13.733   9.327   4.974
86016SOL     OW59886  10.566   4.178   7.780
86016SOL    HW159887  10.661   4.192   7.780
86016SOL    HW259888  10.553   4.106   7.719
86017SOL     OW59889   2.048  14.053   4.283
86017SOL    HW159890   2.021  14.056   4.192
86017SOL    HW259891   2.121  13.991   4.285
86018SOL     OW59892   2.433  14.610   6.507
86018SOL    HW159893   2.475  14.696   6.507
86018SOL    HW259894   2.460  14.570   6.590
86019SOL     OW59895   5.530  13.669   0.227
86019SOL    HW159896   5.506  13.588   0.183
86019SOL    HW259897   5.592  13.712   0.167
86020SOL     OW59898   4.508   2.043   3.657
86020SOL    HW159899   4.427   2.085   3.686
86020SOL    HW259900   4.575   2.109   3.671
86021SOL     OW59901   2.768  14.297   8.960
86021SOL    HW159902   2.715  14.251   8.895
86021SOL    HW259903   2.858  14.280   8.933
86022SOL     OW59904  12.458   7.105   0.888
86022SOL    HW159905  12.517   7.170   0.927
86022SOL    HW259906  12.498   7.021   0.910
86023SOL     OW59907   4.762   5.938   3.647
86023SOL    HW159908   4.763   5.852   3.690
86023SOL    HW259909   4.769   5.917   3.553
86024SOL     OW59910   4.270  14.194   2.264
86024SOL    HW159911   4.332  14.216   2.333
86024SOL    HW259912   4.258  14.100   2.271
86025SOL     OW59913  14.133   3.841   0.641
86025SOL    HW159914  14.208   3.797   0.680
86025SOL    HW259915  14.057   3.805   0.687
86026SOL     OW59916   0.307   9.033   6.352
86026SOL    HW159917   0.363   8.967   6.393
86026SOL    HW259918   0.327   9.028   6.259
86027SOL     OW59919  12.883   8.854  12.529
86027SOL    HW159920  12.945   8.911  12.574
86027SOL    HW259921  12.833   8.912  12.472
86028SOL     OW59922   8.539   7.265  12.289
86028SOL    HW159923   8.634   7.261  12.300
86028SOL    HW259924   8.518   7.188  12.237
86029SOL     OW59925   2.008   1.480  13.589
86029SOL    HW159926   1.990   1.561  13.540
86029SOL    HW259927   1.954   1.414  13.547
86030SOL     OW59928  14.321   7.770  12.227
86030SOL    HW159929  14.345   7.852  12.270
86030SOL    HW259930  14.252   7.794  12.166
86031SOL     OW59931   2.108  12.497   1.276
86031SOL    HW159932   2.088  12.456   1.192
86031SOL    HW259933   2.192  12.458   1.303
86032SOL     OW59934   6.426   1.801  10.843
86032SOL    HW159935   6.420   1.881  10.790
86032SOL    HW259936   6.517   1.799  10.872
86033SOL     OW59937  11.852  12.018  14.777
86033SOL    HW159938  11.925  12.074  14.749
86033SOL    HW259939  11.858  11.941  14.720
86034SOL     OW59940   2.096  10.495  13.553
86034SOL    HW159941   2.189  10.494  13.573
86034SOL    HW259942   2.089  10.539  13.468
86035SOL     OW59943  12.368   3.430  11.670
86035SOL    HW159944  12.432   3.374  11.624
86035SOL    HW259945  12.295   3.437  11.608
86036SOL     OW59946   0.063   2.101  14.184
86036SOL    HW159947   0.070   2.063  14.097
86036SOL    HW259948   0.139   2.066  14.232
86037SOL     OW59949   8.112   2.539   7.292
86037SOL    HW159950   8.152   2.475   7.351
86037SOL    HW259951   8.066   2.600   7.350
86038SOL     OW59952   7.011   7.904   8.106
86038SOL    HW159953   7.005   7.810   8.124
86038SOL    HW259954   6.929   7.924   8.059
86039SOL     OW59955   0.162  14.112   7.936
86039SOL    HW159956   0.098  14.183   7.922
86039SOL    HW259957   0.174  14.073   7.849
86040SOL     OW59958   0.772   3.376  11.694
86040SOL    HW159959   0.769   3.361  11.789
86040SOL    HW259960   0.723   3.303  11.657
86041SOL     OW59961   2.080   8.033  10.507
86041SOL    HW159962   2.126   8.038  10.591
86041SOL    HW259963   2.009   8.097  10.514
86042SOL     OW59964   7.152   3.475   6.799
86042SOL    HW159965   7.093   3.473   6.723
86042SOL    HW259966   7.190   3.562   6.797
86043SOL     OW59967  10.622  10.692  14.060
86043SOL    HW159968  10.551  10.712  14.121
86043SOL    HW259969  10.682  10.637  14.110
86044SOL     OW59970   3.536   4.294   3.449
86044SOL    HW159971   3.609   4.332   3.400
86044SOL    HW259972   3.573   4.221   3.497
86045SOL     OW59973  14.716   9.523   9.860
86045SOL    HW159974  14.763   9.517   9.943
86045SOL    HW259975  14.748   9.604   9.820
86046SOL     OW59976   9.411   4.669  13.655
86046SOL    HW159977   9.402   4.717  13.573
86046SOL    HW259978   9.466   4.725  13.710
86047SOL     OW59979   0.198  13.036  10.484
86047SOL    HW159980   0.113  12.999  10.508
86047SOL    HW259981   0.247  12.962  10.448
86048SOL     OW59982  10.794  13.338   2.793
86048SOL    HW159983  10.707  13.346   2.754
86048SOL    HW259984  10.849  13.395   2.740
86049SOL     OW59985  13.446   0.710   5.835
86049SOL    HW159986  13.486   0.659   5.905
86049SOL    HW259987  13.520   0.753   5.792
86050SOL     OW59988   4.924   9.211   7.398
86050SOL    HW159989   5.000   9.177   7.447
86050SOL    HW259990   4.943   9.189   7.307
86051SOL     OW59991   0.807   7.402  12.759
86051SOL    HW159992   0.783   7.494  12.748
86051SOL    HW259993   0.742   7.355  12.706
86052SOL     OW59994   2.874   5.736   3.213
86052SOL    HW159995   2.914   5.728   3.127
86052SOL    HW259996   2.801   5.674   3.211
86053SOL     OW59997  12.837   5.954   4.110
86053SOL    HW159998  12.839   6.004   4.028
86053SOL    HW259999  12.817   5.864   4.082
86054SOL     OW60000   0.846  13.070   2.537
86054SOL    HW160001   0.921  13.098   2.590
86054SOL    HW260002   0.851  12.975   2.538
86055SOL     OW60003   8.698   4.778   3.712
86055SOL    HW160004   8.622   4.742   3.758
86055SOL    HW260005   8.769   4.718   3.732
86056SOL     OW60006   1.539   9.510   0.247
86056SOL    HW160007   1.607   9.465   0.297
86056SOL    HW260008   1.479   9.544   0.312
86057SOL     OW60009   4.280   8.613   5.166
86057SOL    HW160010   4.278   8.698   5.210
86057SOL    HW260011   4.294   8.633   5.074
86058SOL     OW60012  10.771  10.447  10.734
86058SOL    HW160013  10.676  10.444  10.743
86058SOL    HW260014  10.801  10.363  10.770
86059SOL     OW60015   2.900  12.105   7.270
86059SOL    HW160016   2.949  12.052   7.334
86059SOL    HW260017   2.872  12.042   7.203
86060SOL     OW60018  11.067   8.419  11.675
86060SOL    HW160019  11.086   8.356  11.606
86060SOL    HW260020  11.037   8.365  11.749
86061SOL     OW60021   7.826   5.937   9.866
86061SOL    HW160022   7.906   5.939   9.918
86061SOL    HW260023   7.779   6.016   9.892
86062SOL     OW60024   3.911   9.279   7.515
86062SOL    HW160025   3.873   9.244   7.435
86062SOL    HW260026   3.837   9.310   7.567
86063SOL     OW60027  13.468  13.866   8.566
86063SOL    HW160028  13.482  13.819   8.484
86063SOL    HW260029  13.534  13.831   8.626
86064SOL     OW60030  13.378   8.071  14.568
86064SOL    HW160031  13.468   8.050  14.545
86064SOL    HW260032  13.384   8.145  14.628
86065SOL     OW60033  12.306  13.196  13.550
86065SOL    HW160034  12.330  13.104  13.562
86065SOL    HW260035  12.343  13.219  13.465
86066SOL     OW60036   3.597  14.836   1.005
86066SOL    HW160037   3.669  14.836   1.068
86066SOL    HW260038   3.638  14.867   0.924
86067SOL     OW60039   8.815   1.992  11.544
86067SOL    HW160040   8.740   2.041  11.513
86067SOL    HW260041   8.838   1.933  11.472
86068SOL     OW60042   8.523  13.537   0.034
86068SOL    HW160043   8.573  13.456   0.028
86068SOL    HW260044   8.520  13.570  14.823
86069SOL     OW60045   2.104  12.628   1.562
86069SOL    HW160046   2.077  12.597   1.475
86069SOL    HW260047   2.177  12.688   1.544
86070SOL     OW60048   2.557   6.266   0.737
86070SOL    HW160049   2.510   6.202   0.683
86070SOL    HW260050   2.588   6.216   0.812
86071SOL     OW60051  11.116   8.057  12.804
86071SOL    HW160052  11.188   8.112  12.772
86071SOL    HW260053  11.069   8.113  12.865
86072SOL     OW60054  11.605   4.377   5.991
86072SOL    HW160055  11.568   4.379   5.902
86072SOL    HW260056  11.551   4.313   6.037
86073SOL     OW60057   9.441   8.757   3.293
86073SOL    HW160058   9.418   8.686   3.233
86073SOL    HW260059   9.408   8.729   3.378
86074SOL     OW60060   9.286   5.699   3.317
86074SOL    HW160061   9.261   5.607   3.304
86074SOL    HW260062   9.382   5.696   3.322
86075SOL     OW60063   2.086   8.768   9.272
86075SOL    HW160064   2.068   8.752   9.364
86075SOL    HW260065   2.029   8.841   9.249
86076SOL     OW60066   7.916   9.320  11.268
86076SOL    HW160067   7.853   9.391  11.254
86076SOL    HW260068   7.937   9.325  11.361
86077SOL     OW60069   0.416   0.005  10.115
86077SOL    HW160070   0.465   0.087  10.118
86077SOL    HW260071   0.333   0.026  10.158
86078SOL     OW60072  10.032  11.076  10.927
86078SOL    HW160073  10.054  11.075  11.020
86078SOL    HW260074   9.971  11.003  10.917
86079SOL     OW60075   8.023  10.048  12.485
86079SOL    HW160076   8.090  10.077  12.546
86079SOL    HW260077   8.051  10.083  12.400
86080SOL     OW60078   5.653   9.522   1.163
86080SOL    HW160079   5.723   9.553   1.221
86080SOL    HW260080   5.682   9.434   1.136
86081SOL     OW60081   3.596   6.603   5.312
86081SOL    HW160082   3.594   6.512   5.282
86081SOL    HW260083   3.583   6.654   5.232
86082SOL     OW60084   2.582   0.858   2.351
86082SOL    HW160085   2.554   0.941   2.312
86082SOL    HW260086   2.630   0.884   2.429
86083SOL     OW60087   7.414   1.745   0.055
86083SOL    HW160088   7.382   1.679  14.873
86083SOL    HW260089   7.453   1.813   0.000
86084SOL     OW60090   9.982  10.743   2.371
86084SOL    HW160091  10.019  10.784   2.449
86084SOL    HW260092   9.920  10.679   2.405
86085SOL     OW60093   6.838   5.020  13.772
86085SOL    HW160094   6.922   5.058  13.746
86085SOL    HW260095   6.794   5.090  13.820
86086SOL     OW60096  12.540   4.053  14.709
86086SOL    HW160097  12.500   4.075  14.793
86086SOL    HW260098  12.516   3.962  14.694
86087SOL     OW60099   9.990  13.080   4.697
86087SOL    HW160100   9.901  13.112   4.710
86087SOL    HW260101   9.994  12.999   4.748
86088SOL     OW60102   3.687   5.637   0.125
86088SOL    HW160103   3.663   5.712   0.069
86088SOL    HW260104   3.689   5.674   0.214
86089SOL     OW60105  11.958   4.163   5.278
86089SOL    HW160106  11.917   4.171   5.364
86089SOL    HW260107  11.987   4.252   5.257
86090SOL     OW60108  12.509   9.817   8.497
86090SOL    HW160109  12.456   9.838   8.575
86090SOL    HW260110  12.445   9.805   8.427
86091SOL     OW60111   8.965   4.160   4.816
86091SOL    HW160112   8.947   4.226   4.883
86091SOL    HW260113   9.060   4.166   4.803
86092SOL     OW60114   8.514  10.395   1.664
86092SOL    HW160115   8.524  10.482   1.623
86092SOL    HW260116   8.423  10.371   1.646
86093SOL     OW60117  10.764   6.635   9.654
86093SOL    HW160118  10.851   6.648   9.618
86093SOL    HW260119  10.706   6.683   9.596
86094SOL     OW60120  10.714  12.071  10.102
86094SOL    HW160121  10.721  11.987  10.056
86094SOL    HW260122  10.687  12.047  10.191
86095SOL     OW60123   5.630   0.980  13.491
86095SOL    HW160124   5.612   1.013  13.403
86095SOL    HW260125   5.592   1.047  13.549
86096SOL     OW60126   8.085   0.225  11.495
86096SOL    HW160127   8.076   0.201  11.403
86096SOL    HW260128   8.058   0.146  11.543
86097SOL     OW60129   2.897  13.019   2.697
86097SOL    HW160130   2.925  13.062   2.777
86097SOL    HW260131   2.811  12.983   2.717
86098SOL     OW60132  14.669   0.949   6.750
86098SOL    HW160133  14.745   0.926   6.805
86098SOL    HW260134  14.607   0.989   6.811
86099SOL     OW60135   8.115   8.278   6.080
86099SOL    HW160136   8.027   8.247   6.058
86099SOL    HW260137   8.145   8.218   6.149
86100SOL     OW60138   5.922  12.424   8.686
86100SOL    HW160139   5.980  12.360   8.646
86100SOL    HW260140   5.897  12.385   8.770
86101SOL     OW60141   5.517   1.246   3.245
86101SOL    HW160142   5.425   1.247   3.219
86101SOL    HW260143   5.544   1.338   3.245
86102SOL     OW60144  11.531  11.142  11.219
86102SOL    HW160145  11.530  11.202  11.293
86102SOL    HW260146  11.621  11.148  11.185
86103SOL     OW60147   1.946   9.507   6.443
86103SOL    HW160148   2.031   9.526   6.404
86103SOL    HW260149   1.900   9.455   6.376
86104SOL     OW60150   7.114  11.168   3.112
86104SOL    HW160151   7.081  11.135   3.196
86104SOL    HW260152   7.161  11.093   3.075
86105SOL     OW60153  10.473  11.832   1.968
86105SOL    HW160154  10.465  11.789   2.053
86105SOL    HW260155  10.470  11.926   1.987
86106SOL     OW60156   5.164   4.668   1.001
86106SOL    HW160157   5.100   4.709   1.059
86106SOL    HW260158   5.140   4.576   1.000
86107SOL     OW60159   5.242   8.542   6.332
86107SOL    HW160160   5.193   8.463   6.311
86107SOL    HW260161   5.334   8.516   6.327
86108SOL     OW60162   2.470  10.198   1.692
86108SOL    HW160163   2.452  10.226   1.782
86108SOL    HW260164   2.413  10.123   1.679
86109SOL     OW60165  14.345   7.989   7.115
86109SOL    HW160166  14.275   7.923   7.112
86109SOL    HW260167  14.316   8.056   7.053
86110SOL     OW60168  11.004  10.776   9.720
86110SOL    HW160169  10.936  10.843   9.733
86110SOL    HW260170  11.045  10.800   9.638
86111SOL     OW60171  11.638   7.678   0.723
86111SOL    HW160172  11.707   7.669   0.658
86111SOL    HW260173  11.594   7.592   0.724
86112SOL     OW60174   8.378   6.053  14.508
86112SOL    HW160175   8.294   6.059  14.464
86112SOL    HW260176   8.418   6.140  14.497
86113SOL     OW60177  14.091   9.733  11.011
86113SOL    HW160178  14.031   9.738  10.937
86113SOL    HW260179  14.162   9.792  10.988
86114SOL     OW60180  10.564   0.296   3.426
86114SOL    HW160181  10.573   0.215   3.476
86114SOL    HW260182  10.471   0.317   3.430
86115SOL     OW60183  13.830   7.377  13.975
86115SOL    HW160184  13.901   7.330  14.020
86115SOL    HW260185  13.854   7.375  13.883
86116SOL     OW60186   8.473   2.094   5.293
86116SOL    HW160187   8.471   2.179   5.337
86116SOL    HW260188   8.564   2.065   5.300
86117SOL     OW60189  13.400  10.154  10.485
86117SOL    HW160190  13.434  10.157  10.396
86117SOL    HW260191  13.378  10.245  10.506
86118SOL     OW60192   5.258  13.317   0.877
86118SOL    HW160193   5.337  13.271   0.907
86118SOL    HW260194   5.231  13.370   0.951
86119SOL     OW60195   0.108  12.563   9.315
86119SOL    HW160196   0.075  12.631   9.256
86119SOL    HW260197   0.131  12.490   9.256
86120SOL     OW60198   4.206   7.212   2.647
86120SOL    HW160199   4.152   7.269   2.702
86120SOL    HW260200   4.143   7.168   2.590
86121SOL     OW60201  11.901   2.097   2.039
86121SOL    HW160202  11.915   2.004   2.060
86121SOL    HW260203  11.918   2.103   1.945
86122SOL     OW60204   0.650   7.799   6.858
86122SOL    HW160205   0.723   7.744   6.828
86122SOL    HW260206   0.688   7.887   6.866
86123SOL     OW60207   5.803   8.662  14.514
86123SOL    HW160208   5.746   8.681  14.439
86123SOL    HW260209   5.755   8.696  14.590
86124SOL     OW60210   1.758  14.459   1.604
86124SOL    HW160211   1.800  14.542   1.629
86124SOL    HW260212   1.772  14.401   1.679
86125SOL     OW60213   1.812  11.390   2.557
86125SOL    HW160214   1.882  11.451   2.582
86125SOL    HW260215   1.790  11.414   2.467
86126SOL     OW60216  10.158   9.846   5.357
86126SOL    HW160217  10.231   9.894   5.317
86126SOL    HW260218  10.104   9.818   5.283
86127SOL     OW60219   9.884  13.163   1.673
86127SOL    HW160220   9.854  13.107   1.745
86127SOL    HW260221   9.967  13.199   1.703
86128SOL     OW60222   0.043  11.776   6.075
86128SOL    HW160223   0.135  11.755   6.092
86128SOL    HW260224   0.020  11.719   6.001
86129SOL     OW60225  12.083   5.942   7.388
86129SOL    HW160226  11.997   5.959   7.350
86129SOL    HW260227  12.068   5.870   7.449
86130SOL     OW60228  14.364   2.302  14.229
86130SOL    HW160229  14.438   2.242  14.221
86130SOL    HW260230  14.396   2.384  14.192
86131SOL     OW60231   9.645   4.022   8.805
86131SOL    HW160232   9.698   3.946   8.784
86131SOL    HW260233   9.625   4.013   8.898
86132SOL     OW60234   0.801  11.115   4.393
86132SOL    HW160235   0.716  11.081   4.420
86132SOL    HW260236   0.803  11.205   4.426
86133SOL     OW60237  13.898  12.484   2.520
86133SOL    HW160238  13.883  12.445   2.605
86133SOL    HW260239  13.993  12.476   2.507
86134SOL     OW60240   6.818  10.131  11.214
86134SOL    HW160241   6.849  10.127  11.124
86134SOL    HW260242   6.818  10.040  11.244
86135SOL     OW60243  13.146   5.503   1.305
86135SOL    HW160244  13.210   5.489   1.375
86135SOL    HW260245  13.169   5.439   1.238
86136SOL     OW60246   5.064   2.478  14.528
86136SOL    HW160247   5.017   2.556  14.558
86136SOL    HW260248   5.026   2.460  14.441
86137SOL     OW60249   0.357  13.851   0.538
86137SOL    HW160250   0.404  13.812   0.465
86137SOL    HW260251   0.394  13.939   0.547
86138SOL     OW60252   7.637   1.870   5.394
86138SOL    HW160253   7.584   1.818   5.333
86138SOL    HW260254   7.671   1.806   5.456
86139SOL     OW60255  13.249   3.786   1.742
86139SOL    HW160256  13.295   3.756   1.820
86139SOL    HW260257  13.261   3.717   1.677
86140SOL     OW60258  11.165  14.294   2.377
86140SOL    HW160259  11.155  14.199   2.369
86140SOL    HW260260  11.150  14.327   2.288
86141SOL     OW60261  11.206  11.057  13.120
86141SOL    HW160262  11.201  11.118  13.047
86141SOL    HW260263  11.295  11.021  13.115
86142SOL     OW60264   5.007   9.145   2.723
86142SOL    HW160265   4.929   9.142   2.778
86142SOL    HW260266   4.997   9.070   2.664
86143SOL     OW60267   5.150   1.216   6.719
86143SOL    HW160268   5.232   1.169   6.707
86143SOL    HW260269   5.140   1.224   6.814
86144SOL     OW60270  12.800  14.391   8.143
86144SOL    HW160271  12.859  14.459   8.109
86144SOL    HW260272  12.820  14.314   8.090
86145SOL     OW60273   6.238   5.923  14.197
86145SOL    HW160274   6.168   5.866  14.230
86145SOL    HW260275   6.309   5.911  14.259
86146SOL     OW60276  11.345   5.038   7.122
86146SOL    HW160277  11.419   5.064   7.067
86146SOL    HW260278  11.332   5.113   7.181
86147SOL     OW60279   6.596  10.131   9.811
86147SOL    HW160280   6.615  10.042   9.840
86147SOL    HW260281   6.502  10.130   9.791
86148SOL     OW60282   8.998   7.712  13.978
86148SOL    HW160283   9.015   7.717  14.072
86148SOL    HW260284   9.053   7.780  13.940
86149SOL     OW60285   0.248  11.062   5.589
86149SOL    HW160286   0.308  11.105   5.651
86149SOL    HW260287   0.182  11.020   5.645
86150SOL     OW60288   6.322  12.031   5.710
86150SOL    HW160289   6.312  12.095   5.640
86150SOL    HW260290   6.396  11.977   5.683
86151SOL     OW60291  11.387   3.460  12.660
86151SOL    HW160292  11.480   3.476  12.651
86151SOL    HW260293  11.354   3.533  12.712
86152SOL     OW60294   7.191  12.943   2.966
86152SOL    HW160295   7.167  12.985   2.884
86152SOL    HW260296   7.110  12.940   3.017
86153SOL     OW60297  12.667  12.748   8.801
86153SOL    HW160298  12.704  12.833   8.776
86153SOL    HW260299  12.721  12.719   8.874
86154SOL     OW60300   9.529  12.352  10.108
86154SOL    HW160301   9.456  12.390  10.157
86154SOL    HW260302   9.487  12.300  10.039
86155SOL     OW60303   7.289   9.015   0.385
86155SOL    HW160304   7.261   9.105   0.399
86155SOL    HW260305   7.238   8.964   0.449
86156SOL     OW60306  12.907   4.156  11.155
86156SOL    HW160307  12.914   4.063  11.177
86156SOL    HW260308  12.823   4.164  11.110
86157SOL     OW60309   0.106   1.888  12.249
86157SOL    HW160310   0.102   1.842  12.333
86157SOL    HW260311   0.073   1.824  12.186
86158SOL     OW60312  12.237  12.527  11.042
86158SOL    HW160313  12.304  12.560  11.102
86158SOL    HW260314  12.276  12.448  11.004
86159SOL     OW60315   8.127   3.264   9.522
86159SOL    HW160316   8.170   3.201   9.579
86159SOL    HW260317   8.046   3.287   9.569
86160SOL     OW60318   3.982  11.106   6.610
86160SOL    HW160319   4.050  11.061   6.659
86160SOL    HW260320   3.901  11.059   6.631
86161SOL     OW60321   7.080   1.163   7.752
86161SOL    HW160322   7.156   1.107   7.768
86161SOL    HW260323   7.007   1.116   7.793
86162SOL     OW60324   6.396   4.443   4.821
86162SOL    HW160325   6.444   4.492   4.887
86162SOL    HW260326   6.304   4.459   4.841
86163SOL     OW60327   2.272  12.477   0.886
86163SOL    HW160328   2.185  12.486   0.925
86163SOL    HW260329   2.263  12.513   0.797
86164SOL     OW60330   7.777   1.171  14.394
86164SOL    HW160331   7.855   1.118  14.410
86164SOL    HW260332   7.769   1.225  14.472
86165SOL     OW60333   8.004   5.769  10.489
86165SOL    HW160334   8.086   5.723  10.475
86165SOL    HW260335   7.940   5.722  10.435
86166SOL     OW60336   9.366   4.678   5.936
86166SOL    HW160337   9.378   4.748   5.999
86166SOL    HW260338   9.454   4.644   5.920
86167SOL     OW60339   1.070  11.101   2.251
86167SOL    HW160340   1.008  11.151   2.305
86167SOL    HW260341   1.084  11.020   2.299
86168SOL     OW60342   5.532   3.890   3.300
86168SOL    HW160343   5.446   3.933   3.301
86168SOL    HW260344   5.519   3.809   3.349
86169SOL     OW60345   8.954   3.588  10.762
86169SOL    HW160346   9.048   3.569  10.772
86169SOL    HW260347   8.936   3.654  10.829
86170SOL     OW60348   7.207   5.759  13.213
86170SOL    HW160349   7.289   5.775  13.259
86170SOL    HW260350   7.192   5.665  13.221
86171SOL     OW60351   7.120  10.822  13.743
86171SOL    HW160352   7.094  10.810  13.652
86171SOL    HW260353   7.203  10.775  13.751
86172SOL     OW60354   5.921   3.581  10.043
86172SOL    HW160355   5.942   3.544  10.129
86172SOL    HW260356   5.996   3.555   9.988
86173SOL     OW60357   7.362   4.331  13.076
86173SOL    HW160358   7.444   4.308  13.032
86173SOL    HW260359   7.293   4.297  13.018
86174SOL     OW60360   0.840   3.361  13.152
86174SOL    HW160361   0.849   3.283  13.098
86174SOL    HW260362   0.787   3.333  13.226
86175SOL     OW60363   8.489   8.095  14.783
86175SOL    HW160364   8.494   8.100  14.688
86175SOL    HW260365   8.529   8.011  14.805
86176SOL     OW60366  11.000   6.791  14.632
86176SOL    HW160367  11.077   6.744  14.664
86176SOL    HW260368  10.992   6.867  14.690
86177SOL     OW60369   0.157   0.911   4.970
86177SOL    HW160370   0.203   0.828   4.978
86177SOL    HW260371   0.113   0.922   5.055
86178SOL     OW60372   0.906  10.652  12.119
86178SOL    HW160373   0.911  10.616  12.208
86178SOL    HW260374   0.828  10.708  12.121
86179SOL     OW60375   8.474   5.891  12.796
86179SOL    HW160376   8.487   5.802  12.827
86179SOL    HW260377   8.415   5.930  12.860
86180SOL     OW60378   2.969  11.085   4.430
86180SOL    HW160379   2.960  11.055   4.521
86180SOL    HW260380   2.903  11.154   4.422
86181SOL     OW60381   6.961  10.623   0.795
86181SOL    HW160382   6.989  10.647   0.884
86181SOL    HW260383   6.997  10.535   0.782
86182SOL     OW60384   4.368   6.816   0.274
86182SOL    HW160385   4.318   6.785   0.349
86182SOL    HW260386   4.445   6.759   0.271
86183SOL     OW60387   8.766   2.652  10.580
86183SOL    HW160388   8.824   2.632  10.507
86183SOL    HW260389   8.685   2.681  10.538
86184SOL     OW60390  12.893   6.711  12.511
86184SOL    HW160391  12.986   6.728  12.495
86184SOL    HW260392  12.848   6.788  12.477
86185SOL     OW60393   1.891  10.557   4.241
86185SOL    HW160394   1.954  10.582   4.173
86185SOL    HW260395   1.865  10.468   4.218
86186SOL     OW60396  11.631   1.286  12.442
86186SOL    HW160397  11.605   1.350  12.509
86186SOL    HW260398  11.576   1.306  12.367
86187SOL     OW60399   9.478   0.218   1.101
86187SOL    HW160400   9.474   0.215   1.196
86187SOL    HW260401   9.551   0.277   1.082
86188SOL     OW60402   3.883  13.541  13.613
86188SOL    HW160403   3.910  13.568  13.701
86188SOL    HW260404   3.800  13.586  13.598
86189SOL     OW60405   4.918   3.755  13.712
86189SOL    HW160406   4.980   3.734  13.642
86189SOL    HW260407   4.967   3.814  13.770
86190SOL     OW60408   8.305   2.931  14.060
86190SOL    HW160409   8.268   2.867  14.000
86190SOL    HW260410   8.302   3.014  14.012
86191SOL     OW60411   3.562  10.983   8.079
86191SOL    HW160412   3.653  10.998   8.052
86191SOL    HW260413   3.565  10.903   8.130
86192SOL     OW60414  13.591   9.548  13.854
86192SOL    HW160415  13.667   9.498  13.882
86192SOL    HW260416  13.619   9.591  13.773
86193SOL     OW60417   2.779   9.530   5.851
86193SOL    HW160418   2.729   9.523   5.932
86193SOL    HW260419   2.717   9.505   5.782
86194SOL     OW60420   5.529   1.093   4.355
86194SOL    HW160421   5.543   1.176   4.308
86194SOL    HW260422   5.462   1.047   4.304
86195SOL     OW60423  11.519   0.164   0.620
86195SOL    HW160424  11.609   0.138   0.642
86195SOL    HW260425  11.529   0.222   0.544
86196SOL     OW60426   2.100   3.112   1.450
86196SOL    HW160427   2.066   3.141   1.366
86196SOL    HW260428   2.146   3.031   1.431
86197SOL     OW60429   2.095  14.335   6.480
86197SOL    HW160430   2.086  14.335   6.575
86197SOL    HW260431   2.078  14.426   6.455
86198SOL     OW60432   9.461   5.039  10.015
86198SOL    HW160433   9.373   5.002  10.014
86198SOL    HW260434   9.504   5.001   9.939
86199SOL     OW60435  12.804   7.383  11.138
86199SOL    HW160436  12.886   7.384  11.089
86199SOL    HW260437  12.758   7.305  11.107
86200SOL     OW60438   6.533   7.209  11.911
86200SOL    HW160439   6.470   7.138  11.897
86200SOL    HW260440   6.604   7.168  11.960
86201SOL     OW60441   7.949   3.472  11.866
86201SOL    HW160442   7.943   3.487  11.772
86201SOL    HW260443   7.969   3.559  11.902
86202SOL     OW60444   5.810  12.104   8.007
86202SOL    HW160445   5.897  12.065   8.008
86202SOL    HW260446   5.751  12.031   8.027
86203SOL     OW60447   6.730   4.500  12.236
86203SOL    HW160448   6.641   4.471  12.216
86203SOL    HW260449   6.786   4.446  12.180
86204SOL     OW60450   5.806  12.651  12.431
86204SOL    HW160451   5.886  12.671  12.478
86204SOL    HW260452   5.760  12.735  12.424
86205SOL     OW60453   7.399   2.071  10.048
86205SOL    HW160454   7.398   2.015  10.126
86205SOL    HW260455   7.323   2.042   9.997
86206SOL     OW60456   7.894  10.647  12.593
86206SOL    HW160457   7.876  10.570  12.539
86206SOL    HW260458   7.889  10.721  12.532
86207SOL     OW60459   6.648  11.638   6.456
86207SOL    HW160460   6.669  11.546   6.444
86207SOL    HW260461   6.617  11.645   6.546
86208SOL     OW60462  12.679  12.411   5.563
86208SOL    HW160463  12.772  12.419   5.587
86208SOL    HW260464  12.679  12.352   5.488
86209SOL     OW60465  11.037   0.520  11.680
86209SOL    HW160466  11.043   0.494  11.773
86209SOL    HW260467  11.109   0.581  11.668
86210SOL     OW60468   3.803  10.102  10.319
86210SOL    HW160469   3.795  10.036  10.250
86210SOL    HW260470   3.893  10.133  10.311
86211SOL     OW60471  12.477  11.454   4.093
86211SOL    HW160472  12.476  11.394   4.167
86211SOL    HW260473  12.460  11.399   4.016
86212SOL     OW60474   1.910   6.103   3.567
86212SOL    HW160475   1.857   6.181   3.580
86212SOL    HW260476   1.992   6.121   3.614
86213SOL     OW60477   2.786   8.967   6.594
86213SOL    HW160478   2.780   9.055   6.557
86213SOL    HW260479   2.745   8.974   6.680
86214SOL     OW60480   3.805   4.132   6.571
86214SOL    HW160481   3.791   4.037   6.570
86214SOL    HW260482   3.762   4.161   6.651
86215SOL     OW60483  12.284  12.401   5.359
86215SOL    HW160484  12.195  12.388   5.326
86215SOL    HW260485  12.285  12.353   5.442
86216SOL     OW60486   0.592  11.990   0.162
86216SOL    HW160487   0.662  11.940   0.205
86216SOL    HW260488   0.570  12.058   0.226
86217SOL     OW60489  10.842   5.734   8.039
86217SOL    HW160490  10.819   5.675   7.967
86217SOL    HW260491  10.923   5.697   8.075
86218SOL     OW60492  11.828   5.346  11.674
86218SOL    HW160493  11.779   5.406  11.618
86218SOL    HW260494  11.910   5.331  11.627
86219SOL     OW60495   4.643   3.449   4.441
86219SOL    HW160496   4.645   3.451   4.537
86219SOL    HW260497   4.615   3.537   4.416
86220SOL     OW60498   7.801   5.666  11.273
86220SOL    HW160499   7.850   5.663  11.355
86220SOL    HW260500   7.807   5.577  11.237
86221SOL     OW60501   1.042  13.531  14.209
86221SOL    HW160502   1.106  13.492  14.148
86221SOL    HW260503   0.963  13.479  14.197
86222SOL     OW60504   0.008   9.076   8.740
86222SOL    HW160505   0.027   9.071   8.834
86222SOL    HW260506  14.822   9.145   8.732
86223SOL     OW60507   6.958   4.067   0.227
86223SOL    HW160508   6.866   4.052   0.206
86223SOL    HW260509   6.977   4.007   0.298
86224SOL     OW60510   6.400  11.458   7.316
86224SOL    HW160511   6.433  11.436   7.229
86224SOL    HW260512   6.331  11.521   7.301
86225SOL     OW60513  14.693   0.506  10.668
86225SOL    HW160514  14.762   0.540  10.724
86225SOL    HW260515  14.729   0.426  10.629
86226SOL     OW60516  11.637   0.540   5.850
86226SOL    HW160517  11.631   0.516   5.943
86226SOL    HW260518  11.680   0.465   5.809
86227SOL     OW60519   0.290   7.467   8.526
86227SOL    HW160520   0.258   7.379   8.547
86227SOL    HW260521   0.229   7.526   8.570
86228SOL     OW60522   1.371   8.915   0.909
86228SOL    HW160523   1.421   8.854   0.964
86228SOL    HW260524   1.397   9.002   0.941
86229SOL     OW60525   2.135   6.445  10.474
86229SOL    HW160526   2.080   6.381  10.518
86229SOL    HW260527   2.105   6.530  10.507
86230SOL     OW60528  12.720  13.997   5.210
86230SOL    HW160529  12.738  14.082   5.251
86230SOL    HW260530  12.792  13.985   5.149
86231SOL     OW60531  10.505   1.156   0.257
86231SOL    HW160532  10.517   1.162   0.162
86231SOL    HW260533  10.428   1.102   0.269
86232SOL     OW60534   2.831   2.341   8.808
86232SOL    HW160535   2.903   2.365   8.867
86232SOL    HW260536   2.828   2.413   8.744
86233SOL     OW60537  10.468  13.563   2.858
86233SOL    HW160538  10.377  13.591   2.869
86233SOL    HW260539  10.493  13.596   2.771
86234SOL     OW60540   5.787  14.581   0.728
86234SOL    HW160541   5.713  14.569   0.786
86234SOL    HW260542   5.792  14.499   0.678
86235SOL     OW60543  11.686  10.825  14.874
86235SOL    HW160544  11.736  10.879   0.056
86235SOL    HW260545  11.599  10.866  14.871
86236SOL     OW60546   6.233   3.853  13.213
86236SOL    HW160547   6.201   3.794  13.145
86236SOL    HW260548   6.328   3.859  13.197
86237SOL     OW60549  14.184   3.846   7.927
86237SOL    HW160550  14.243   3.784   7.884
86237SOL    HW260551  14.125   3.792   7.979
86238SOL     OW60552   1.785   0.167   6.766
86238SOL    HW160553   1.770   0.099   6.700
86238SOL    HW260554   1.811   0.244   6.715
86239SOL     OW60555  14.800   1.529  11.283
86239SOL    HW160556  14.806   1.594  11.213
86239SOL    HW260557   0.009   1.493  11.289
86240SOL     OW60558   5.234   9.337   8.535
86240SOL    HW160559   5.276   9.307   8.455
86240SOL    HW260560   5.161   9.277   8.547
86241SOL     OW60561   8.366  11.508  13.720
86241SOL    HW160562   8.388  11.442  13.785
86241SOL    HW260563   8.357  11.589  13.770
86242SOL     OW60564   7.941  13.966   6.452
86242SOL    HW160565   7.869  13.904   6.437
86242SOL    HW260566   8.020  13.917   6.426
86243SOL     OW60567   9.193   1.069   9.316
86243SOL    HW160568   9.269   1.106   9.271
86243SOL    HW260569   9.119   1.120   9.284
86244SOL     OW60570  11.769   2.497  12.206
86244SOL    HW160571  11.727   2.582  12.192
86244SOL    HW260572  11.697   2.437  12.222
86245SOL     OW60573  11.994  10.480   4.263
86245SOL    HW160574  12.037  10.514   4.185
86245SOL    HW260575  12.036  10.395   4.279
86246SOL     OW60576  13.208  11.828  12.832
86246SOL    HW160577  13.184  11.751  12.884
86246SOL    HW260578  13.291  11.805  12.790
86247SOL     OW60579  11.034   9.504   0.701
86247SOL    HW160580  10.978   9.440   0.745
86247SOL    HW260581  11.004   9.503   0.610
86248SOL     OW60582   4.462  13.878   3.255
86248SOL    HW160583   4.544  13.863   3.208
86248SOL    HW260584   4.485  13.873   3.347
86249SOL     OW60585   9.083   5.894   0.312
86249SOL    HW160586   9.141   5.948   0.364
86249SOL    HW260587   9.064   5.817   0.366
86250SOL     OW60588   0.145   4.681   1.151
86250SOL    HW160589   0.221   4.693   1.207
86250SOL    HW260590   0.090   4.758   1.167
86251SOL     OW60591  10.554   4.305  11.126
86251SOL    HW160592  10.620   4.252  11.081
86251SOL    HW260593  10.516   4.246  11.191
86252SOL     OW60594  10.038   1.928  14.259
86252SOL    HW160595  10.124   1.953  14.223
86252SOL    HW260596   9.989   1.896  14.184
86253SOL     OW60597   5.784   6.115  13.300
86253SOL    HW160598   5.849   6.184  13.288
86253SOL    HW260599   5.700   6.158  13.280
86254SOL     OW60600   6.143   4.530   7.724
86254SOL    HW160601   6.193   4.520   7.643
86254SOL    HW260602   6.055   4.554   7.695
86255SOL     OW60603   7.971  10.508   3.496
86255SOL    HW160604   7.967  10.448   3.570
86255SOL    HW260605   7.953  10.453   3.420
86256SOL     OW60606   3.544   3.611   8.395
86256SOL    HW160607   3.570   3.524   8.364
86256SOL    HW260608   3.481   3.642   8.330
86257SOL     OW60609  13.913   9.776   8.562
86257SOL    HW160610  13.878   9.859   8.531
86257SOL    HW260611  13.836   9.727   8.591
86258SOL     OW60612   4.162   5.156   0.862
86258SOL    HW160613   4.249   5.177   0.827
86258SOL    HW260614   4.154   5.061   0.849
86259SOL     OW60615   6.866  10.107  10.027
86259SOL    HW160616   6.883  10.078   9.938
86259SOL    HW260617   6.952  10.130  10.062
86260SOL     OW60618   4.009  13.854   2.701
86260SOL    HW160619   3.930  13.860   2.647
86260SOL    HW260620   4.002  13.768   2.744
86261SOL     OW60621  13.591   2.057   7.546
86261SOL    HW160622  13.550   1.970   7.553
86261SOL    HW260623  13.526   2.110   7.500
86262SOL     OW60624   0.048   7.661  10.550
86262SOL    HW160625   0.051   7.757  10.551
86262SOL    HW260626  14.839   7.640  10.580
86263SOL     OW60627  13.127  10.998  14.095
86263SOL    HW160628  13.113  11.085  14.057
86263SOL    HW260629  13.068  10.940  14.047
86264SOL     OW60630   1.354   9.131   9.530
86264SOL    HW160631   1.327   9.040   9.538
86264SOL    HW260632   1.353   9.165   9.619
86265SOL     OW60633  12.891  13.288   2.583
86265SOL    HW160634  12.826  13.219   2.577
86265SOL    HW260635  12.903  13.302   2.677
86266SOL     OW60636   5.465   6.789   2.746
86266SOL    HW160637   5.556   6.818   2.745
86266SOL    HW260638   5.437   6.799   2.837
86267SOL     OW60639   0.593  10.850   4.288
86267SOL    HW160640   0.676  10.888   4.259
86267SOL    HW260641   0.551  10.919   4.340
86268SOL     OW60642   9.819   6.526   4.497
86268SOL    HW160643   9.733   6.498   4.466
86268SOL    HW260644   9.820   6.504   4.590
86269SOL     OW60645   3.517  12.564   5.913
86269SOL    HW160646   3.552  12.504   5.980
86269SOL    HW260647   3.591  12.580   5.855
86270SOL     OW60648   9.409  14.137   7.997
86270SOL    HW160649   9.394  14.047   7.967
86270SOL    HW260650   9.372  14.141   8.085
86271SOL     OW60651   4.590   3.704  11.307
86271SOL    HW160652   4.635   3.788  11.317
86271SOL    HW260653   4.497   3.725  11.310
86272SOL     OW60654  13.144   4.056   5.044
86272SOL    HW160655  13.084   3.984   5.022
86272SOL    HW260656  13.173   4.036   5.133
86273SOL     OW60657   4.606   0.805   0.076
86273SOL    HW160658   4.566   0.856   0.006
86273SOL    HW260659   4.568   0.839   0.156
86274SOL     OW60660   3.444   7.885  13.505
86274SOL    HW160661   3.514   7.868  13.441
86274SOL    HW260662   3.490   7.899  13.588
86275SOL     OW60663   7.370   4.685   4.724
86275SOL    HW160664   7.302   4.702   4.659
86275SOL    HW260665   7.323   4.654   4.801
86276SOL     OW60666   5.739  12.349   2.458
86276SOL    HW160667   5.651  12.368   2.427
86276SOL    HW260668   5.731  12.348   2.554
86277SOL     OW60669   7.492   9.207  10.382
86277SOL    HW160670   7.555   9.265  10.340
86277SOL    HW260671   7.541   9.164  10.452
86278SOL     OW60672   9.416   7.312  13.997
86278SOL    HW160673   9.392   7.295  13.905
86278SOL    HW260674   9.501   7.269  14.007
86279SOL     OW60675  14.069   3.923   5.424
86279SOL    HW160676  14.116   3.979   5.486
86279SOL    HW260677  13.977   3.950   5.433
86280SOL     OW60678  13.643   0.198   5.133
86280SOL    HW160679  13.697   0.178   5.209
86280SOL    HW260680  13.677   0.282   5.101
86281SOL     OW60681   4.673  12.491   2.389
86281SOL    HW160682   4.624  12.572   2.374
86281SOL    HW260683   4.606  12.425   2.407
86282SOL     OW60684   9.101   9.289  13.671
86282SOL    HW160685   9.106   9.335  13.755
86282SOL    HW260686   9.068   9.355  13.610
86283SOL     OW60687   5.704   5.556  10.620
86283SOL    HW160688   5.704   5.639  10.573
86283SOL    HW260689   5.795   5.526  10.619
86284SOL     OW60690   2.422  11.456   4.303
86284SOL    HW160691   2.433  11.470   4.397
86284SOL    HW260692   2.454  11.536   4.262
86285SOL     OW60693   4.262   6.916   0.952
86285SOL    HW160694   4.274   7.010   0.969
86285SOL    HW260695   4.209   6.913   0.873
86286SOL     OW60696   9.804  10.751  13.492
86286SOL    HW160697   9.791  10.760  13.398
86286SOL    HW260698   9.858  10.673  13.502
86287SOL     OW60699   5.660  10.992   5.389
86287SOL    HW160700   5.749  10.977   5.423
86287SOL    HW260701   5.621  10.905   5.384
86288SOL     OW60702   1.961   0.203   5.850
86288SOL    HW160703   1.976   0.125   5.904
86288SOL    HW260704   1.908   0.260   5.906
86289SOL     OW60705   3.073  10.605   2.426
86289SOL    HW160706   3.160  10.610   2.386
86289SOL    HW260707   3.031  10.687   2.400
86290SOL     OW60708   9.878   3.351   2.143
86290SOL    HW160709   9.935   3.279   2.119
86290SOL    HW260710   9.792   3.326   2.108
86291SOL     OW60711   6.080   5.481   3.648
86291SOL    HW160712   6.166   5.478   3.605
86291SOL    HW260713   6.101   5.494   3.741
86292SOL     OW60714  13.025   6.568  13.792
86292SOL    HW160715  12.943   6.616  13.805
86292SOL    HW260716  13.005   6.508  13.719
86293SOL     OW60717   0.135   3.492  11.863
86293SOL    HW160718   0.057   3.491  11.919
86293SOL    HW260719   0.133   3.407  11.818
86294SOL     OW60720   5.778   1.233  10.557
86294SOL    HW160721   5.823   1.285  10.490
86294SOL    HW260722   5.835   1.157  10.570
86295SOL     OW60723   2.590   3.731  13.201
86295SOL    HW160724   2.524   3.687  13.253
86295SOL    HW260725   2.598   3.677  13.122
86296SOL     OW60726   2.836  14.000   9.588
86296SOL    HW160727   2.769  13.994   9.520
86296SOL    HW260728   2.858  14.093   9.592
86297SOL     OW60729  13.706   7.720   5.654
86297SOL    HW160730  13.617   7.721   5.689
86297SOL    HW260731  13.756   7.666   5.715
86298SOL     OW60732  11.950   8.121   6.041
86298SOL    HW160733  11.863   8.131   6.082
86298SOL    HW260734  11.933   8.131   5.947
86299SOL     OW60735   1.266   8.323   4.426
86299SOL    HW160736   1.183   8.369   4.416
86299SOL    HW260737   1.332   8.393   4.424
86300SOL     OW60738   9.255   1.581  12.390
86300SOL    HW160739   9.321   1.548  12.329
86300SOL    HW260740   9.270   1.675  12.394
86301SOL     OW60741   6.974   0.236   2.568
86301SOL    HW160742   6.893   0.230   2.617
86301SOL    HW260743   7.021   0.309   2.608
86302SOL     OW60744   8.092   0.630  14.508
86302SOL    HW160745   8.132   0.549  14.478
86302SOL    HW260746   8.154   0.698  14.483
86303SOL     OW60747   2.477   6.068   2.761
86303SOL    HW160748   2.464   6.094   2.670
86303SOL    HW260749   2.549   6.122   2.792
86304SOL     OW60750   5.670   5.844  11.300
86304SOL    HW160751   5.728   5.841  11.223
86304SOL    HW260752   5.591   5.798  11.271
86305SOL     OW60753   3.568   5.766   5.630
86305SOL    HW160754   3.504   5.773   5.701
86305SOL    HW260755   3.587   5.672   5.625
86306SOL     OW60756   4.139   5.675   2.542
86306SOL    HW160757   4.200   5.645   2.475
86306SOL    HW260758   4.052   5.656   2.505
86307SOL     OW60759   3.459   5.212   0.539
86307SOL    HW160760   3.550   5.230   0.517
86307SOL    HW260761   3.458   5.199   0.633
86308SOL     OW60762   6.533   8.074  12.914
86308SOL    HW160763   6.561   8.066  13.005
86308SOL    HW260764   6.463   8.010  12.904
86309SOL     OW60765  13.233   8.314  11.142
86309SOL    HW160766  13.141   8.324  11.120
86309SOL    HW260767  13.243   8.361  11.225
86310SOL     OW60768   0.773   7.819   8.445
86310SOL    HW160769   0.856   7.773   8.455
86310SOL    HW260770   0.710   7.751   8.424
86311SOL     OW60771   9.478   7.124   9.323
86311SOL    HW160772   9.505   7.165   9.241
86311SOL    HW260773   9.401   7.072   9.299
86312SOL     OW60774  10.776  12.957   4.686
86312SOL    HW160775  10.759  12.990   4.774
86312SOL    HW260776  10.705  12.994   4.632
86313SOL     OW60777   4.603   3.508   1.757
86313SOL    HW160778   4.576   3.420   1.729
86313SOL    HW260779   4.535   3.566   1.722
86314SOL     OW60780   0.305   6.888   4.714
86314SOL    HW160781   0.396   6.860   4.704
86314SOL    HW260782   0.305   6.981   4.690
86315SOL     OW60783  12.717   0.316  12.413
86315SOL    HW160784  12.810   0.337  12.428
86315SOL    HW260785  12.699   0.244  12.474
86316SOL     OW60786   6.916  11.527  14.424
86316SOL    HW160787   6.864  11.447  14.423
86316SOL    HW260788   6.880  11.581  14.353
86317SOL     OW60789   1.858  10.363   8.176
86317SOL    HW160790   1.807  10.443   8.191
86317SOL    HW260791   1.949  10.391   8.184
86318SOL     OW60792  14.111   8.547  12.669
86318SOL    HW160793  14.162   8.467  12.662
86318SOL    HW260794  14.171   8.610  12.711
86319SOL     OW60795   8.524  13.866  14.855
86319SOL    HW160796   8.467  13.843  14.781
86319SOL    HW260797   8.476  13.835   0.053
86320SOL     OW60798   4.914   8.924   4.828
86320SOL    HW160799   5.004   8.947   4.804
86320SOL    HW260800   4.888   8.991   4.891
86321SOL     OW60801   8.473   3.960   6.034
86321SOL    HW160802   8.479   3.887   6.096
86321SOL    HW260803   8.555   3.959   5.986
86322SOL     OW60804  12.666   5.103   1.090
86322SOL    HW160805  12.581   5.097   1.133
86322SOL    HW260806  12.668   5.191   1.053
86323SOL     OW60807   0.720   5.682  13.824
86323SOL    HW160808   0.640   5.679  13.876
86323SOL    HW260809   0.762   5.598  13.840
86324SOL     OW60810  14.154   2.581  13.639
86324SOL    HW160811  14.060   2.566  13.629
86324SOL    HW260812  14.177   2.533  13.719
86325SOL     OW60813   2.632  14.665   4.694
86325SOL    HW160814   2.620  14.661   4.789
86325SOL    HW260815   2.544  14.652   4.658
86326SOL     OW60816   5.084  11.006   0.925
86326SOL    HW160817   4.992  10.988   0.907
86326SOL    HW260818   5.130  10.981   0.844
86327SOL     OW60819  14.270  10.884   2.209
86327SOL    HW160820  14.217  10.869   2.132
86327SOL    HW260821  14.218  10.944   2.263
86328SOL     OW60822   1.952   2.350  12.894
86328SOL    HW160823   1.980   2.286  12.960
86328SOL    HW260824   1.858   2.361  12.910
86329SOL     OW60825   1.684  14.728   7.437
86329SOL    HW160826   1.715  14.645   7.401
86329SOL    HW260827   1.703  14.721   7.531
86330SOL     OW60828   7.685   0.833   9.698
86330SOL    HW160829   7.676   0.919   9.656
86330SOL    HW260830   7.647   0.844   9.785
86331SOL     OW60831   7.403   9.576   1.282
86331SOL    HW160832   7.356   9.659   1.291
86331SOL    HW260833   7.477   9.585   1.342
86332SOL     OW60834  12.176  12.704   6.209
86332SOL    HW160835  12.112  12.634   6.194
86332SOL    HW260836  12.173  12.719   6.304
86333SOL     OW60837   2.726  10.375   6.532
86333SOL    HW160838   2.788  10.447   6.542
86333SOL    HW260839   2.732  10.327   6.614
86334SOL     OW60840  10.357   2.406   3.862
86334SOL    HW160841  10.431   2.366   3.908
86334SOL    HW260842  10.383   2.403   3.770
86335SOL     OW60843  10.761  12.621   9.955
86335SOL    HW160844  10.767  12.605   9.860
86335SOL    HW260845  10.744  12.715   9.962
86336SOL     OW60846  13.277   4.138   1.772
86336SOL    HW160847  13.331   4.093   1.707
86336SOL    HW260848  13.289   4.231   1.752
86337SOL     OW60849   5.473  14.289   8.012
86337SOL    HW160850   5.427  14.349   8.070
86337SOL    HW260851   5.427  14.205   8.022
86338SOL     OW60852   1.080  13.244   2.999
86338SOL    HW160853   1.061  13.183   3.070
86338SOL    HW260854   1.165  13.282   3.023
86339SOL     OW60855   5.692   4.630   4.159
86339SOL    HW160856   5.714   4.587   4.076
86339SOL    HW260857   5.775   4.635   4.206
86340SOL     OW60858   4.248  14.149   9.292
86340SOL    HW160859   4.166  14.119   9.333
86340SOL    HW260860   4.267  14.083   9.225
86341SOL     OW60861   0.982   4.235  11.859
86341SOL    HW160862   1.005   4.223  11.767
86341SOL    HW260863   0.926   4.312  11.860
86342SOL     OW60864  13.569  10.498   4.953
86342SOL    HW160865  13.530  10.582   4.929
86342SOL    HW260866  13.598  10.510   5.043
86343SOL     OW60867  11.120   1.873  13.251
86343SOL    HW160868  11.119   1.886  13.156
86343SOL    HW260869  11.210   1.848  13.271
86344SOL     OW60870   9.014  11.252   0.799
86344SOL    HW160871   8.949  11.277   0.733
86344SOL    HW260872   8.994  11.308   0.874
86345SOL     OW60873   0.964   5.323   6.527
86345SOL    HW160874   0.914   5.318   6.446
86345SOL    HW260875   0.947   5.239   6.571
86346SOL     OW60876   1.877   3.256  12.859
86346SOL    HW160877   1.942   3.188  12.878
86346SOL    HW260878   1.800   3.208  12.830
86347SOL     OW60879  11.189   5.997   5.618
86347SOL    HW160880  11.267   5.963   5.661
86347SOL    HW260881  11.215   6.010   5.527
86348SOL     OW60882  14.341   4.030   8.941
86348SOL    HW160883  14.421   4.032   8.888
86348SOL    HW260884  14.367   4.072   9.023
86349SOL     OW60885   6.498   4.220  11.492
86349SOL    HW160886   6.514   4.271  11.413
86349SOL    HW260887   6.402   4.213  11.497
86350SOL     OW60888   6.256   4.723   2.921
86350SOL    HW160889   6.282   4.687   2.836
86350SOL    HW260890   6.244   4.816   2.906
86351SOL     OW60891   7.228   9.904   4.270
86351SOL    HW160892   7.320   9.881   4.275
86351SOL    HW260893   7.182   9.821   4.262
86352SOL     OW60894   1.133   0.093  14.044
86352SOL    HW160895   1.154   0.036  13.970
86352SOL    HW260896   1.215   0.102  14.092
86353SOL     OW60897   3.055  14.689   2.941
86353SOL    HW160898   3.105  14.651   3.013
86353SOL    HW260899   3.122  14.722   2.880
86354SOL     OW60900   1.018   7.628  10.879
86354SOL    HW160901   1.017   7.538  10.849
86354SOL    HW260902   0.948   7.671  10.829
86355SOL     OW60903   3.329  11.466   3.332
86355SOL    HW160904   3.291  11.548   3.301
86355SOL    HW260905   3.290  11.399   3.276
86356SOL     OW60906   7.098  10.378   4.610
86356SOL    HW160907   7.093  10.390   4.515
86356SOL    HW260908   7.175  10.322   4.623
86357SOL     OW60909  10.345   4.893   6.263
86357SOL    HW160910  10.349   4.921   6.354
86357SOL    HW260911  10.425   4.841   6.250
86358SOL     OW60912  13.213  13.385   2.802
86358SOL    HW160913  13.139  13.372   2.743
86358SOL    HW260914  13.277  13.435   2.751
86359SOL     OW60915   3.735  10.547   1.838
86359SOL    HW160916   3.642  10.558   1.858
86359SOL    HW260917   3.750  10.605   1.763
86360SOL     OW60918  11.369  14.237   7.556
86360SOL    HW160919  11.278  14.229   7.528
86360SOL    HW260920  11.389  14.330   7.547
86361SOL     OW60921   2.459   2.455  10.188
86361SOL    HW160922   2.418   2.535  10.219
86361SOL    HW260923   2.511   2.483  10.112
86362SOL     OW60924  13.170  13.342  13.007
86362SOL    HW160925  13.101  13.405  12.985
86362SOL    HW260926  13.212  13.378  13.085
86363SOL     OW60927  10.911   9.947  13.750
86363SOL    HW160928  10.938  10.016  13.689
86363SOL    HW260929  10.939   9.866  13.708
86364SOL     OW60930  13.298  12.254  14.673
86364SOL    HW160931  13.217  12.218  14.637
86364SOL    HW260932  13.273  12.341  14.706
86365SOL     OW60933   8.036  11.329  10.577
86365SOL    HW160934   8.118  11.308  10.621
86365SOL    HW260935   8.055  11.321  10.483
86366SOL     OW60936   4.294   6.529   2.846
86366SOL    HW160937   4.387   6.506   2.848
86366SOL    HW260938   4.279   6.561   2.757
86367SOL     OW60939  13.855   4.673  10.502
86367SOL    HW160940  13.866   4.647  10.594
86367SOL    HW260941  13.808   4.756  10.506
86368SOL     OW60942   4.192   0.084   8.951
86368SOL    HW160943   4.251   0.089   9.026
86368SOL    HW260944   4.107   0.061   8.990
86369SOL     OW60945  11.685   9.031   0.175
86369SOL    HW160946  11.618   9.034   0.244
86369SOL    HW260947  11.718   9.120   0.170
86370SOL     OW60948  12.672  14.293  10.701
86370SOL    HW160949  12.697  14.226  10.638
86370SOL    HW260950  12.721  14.371  10.675
86371SOL     OW60951   7.361   8.977   7.340
86371SOL    HW160952   7.297   9.027   7.390
86371SOL    HW260953   7.314   8.949   7.262
86372SOL     OW60954   7.830   4.804   4.707
86372SOL    HW160955   7.759   4.837   4.761
86372SOL    HW260956   7.809   4.832   4.619
86373SOL     OW60957   4.090  11.687   9.891
86373SOL    HW160958   4.182  11.698   9.915
86373SOL    HW260959   4.051  11.641   9.965
86374SOL     OW60960   6.627  14.825  12.223
86374SOL    HW160961   6.568  14.755  12.194
86374SOL    HW260962   6.695  14.829  12.156
86375SOL     OW60963  14.716   9.008   0.806
86375SOL    HW160964  14.730   9.025   0.899
86375SOL    HW260965  14.622   8.995   0.797
86376SOL     OW60966   8.183  10.757   5.988
86376SOL    HW160967   8.121  10.752   6.060
86376SOL    HW260968   8.130  10.786   5.913
86377SOL     OW60969  14.542  12.799  10.411
86377SOL    HW160970  14.472  12.861  10.433
86377SOL    HW260971  14.613  12.819  10.471
86378SOL     OW60972   6.201  13.139   1.260
86378SOL    HW160973   6.284  13.092   1.265
86378SOL    HW260974   6.224  13.230   1.276
86379SOL     OW60975  14.094   2.574   4.740
86379SOL    HW160976  14.137   2.511   4.683
86379SOL    HW260977  14.028   2.524   4.788
86380SOL     OW60978  12.526   3.331   7.273
86380SOL    HW160979  12.589   3.364   7.208
86380SOL    HW260980  12.490   3.410   7.313
86381SOL     OW60981   5.150   6.790   8.181
86381SOL    HW160982   5.222   6.837   8.139
86381SOL    HW260983   5.192   6.739   8.251
86382SOL     OW60984  13.021  12.299   1.473
86382SOL    HW160985  12.941  12.276   1.425
86382SOL    HW260986  12.997  12.292   1.565
86383SOL     OW60987   6.633   3.346  13.437
86383SOL    HW160988   6.608   3.258  13.411
86383SOL    HW260989   6.644   3.394  13.355
86384SOL     OW60990  11.686   4.710  13.713
86384SOL    HW160991  11.691   4.783  13.774
86384SOL    HW260992  11.709   4.633  13.765
86385SOL     OW60993   4.802   2.275   9.244
86385SOL    HW160994   4.863   2.313   9.182
86385SOL    HW260995   4.795   2.183   9.218
86386SOL     OW60996   5.044  10.249   1.872
86386SOL    HW160997   5.075  10.237   1.961
86386SOL    HW260998   4.985  10.324   1.877
86387SOL     OW60999   0.664   4.420   2.194
86387SOL    HW161000   0.580   4.436   2.236
86387SOL    HW261001   0.728   4.462   2.251
86388SOL     OW61002   2.935   5.110  10.098
86388SOL    HW161003   2.978   5.144  10.176
86388SOL    HW261004   2.993   5.041  10.066
86389SOL     OW61005  11.117  12.672  12.629
86389SOL    HW161006  11.076  12.757  12.642
86389SOL    HW261007  11.074  12.615  12.693
86390SOL     OW61008   3.864   4.537  13.029
86390SOL    HW161009   3.827   4.625  13.023
86390SOL    HW261010   3.790   4.482  13.053
86391SOL     OW61011   3.625   2.639   4.457
86391SOL    HW161012   3.548   2.610   4.408
86391SOL    HW261013   3.687   2.666   4.389
86392SOL     OW61014   2.304   9.349   6.459
86392SOL    HW161015   2.264   9.395   6.533
86392SOL    HW261016   2.238   9.284   6.433
86393SOL     OW61017   4.492   8.617   8.801
86393SOL    HW161018   4.562   8.599   8.863
86393SOL    HW261019   4.480   8.712   8.805
86394SOL     OW61020   0.945  12.784   4.636
86394SOL    HW161021   1.039  12.785   4.617
86394SOL    HW261022   0.920  12.692   4.627
86395SOL     OW61023   9.722   1.053   5.503
86395SOL    HW161024   9.763   1.069   5.588
86395SOL    HW261025   9.756   0.968   5.476
86396SOL     OW61026   2.083   9.132   3.644
86396SOL    HW161027   2.136   9.056   3.619
86396SOL    HW261028   2.067   9.178   3.562
86397SOL     OW61029   8.314  10.080  11.872
86397SOL    HW161030   8.325  10.163  11.918
86397SOL    HW261031   8.234  10.042  11.908
86398SOL     OW61032   0.649  14.539   6.785
86398SOL    HW161033   0.567  14.511   6.825
86398SOL    HW261034   0.687  14.459   6.749
86399SOL     OW61035   8.888   8.522   5.324
86399SOL    HW161036   8.973   8.480   5.343
86399SOL    HW261037   8.911   8.612   5.301
86400SOL     OW61038   4.551   2.322   7.717
86400SOL    HW161039   4.582   2.359   7.635
86400SOL    HW261040   4.519   2.234   7.694
86401SOL     OW61041   0.087   7.796   1.137
86401SOL    HW161042   0.111   7.882   1.172
86401SOL    HW261043   0.166   7.743   1.148
86402SOL     OW61044   7.763   5.138   8.566
86402SOL    HW161045   7.691   5.093   8.522
86402SOL    HW261046   7.818   5.171   8.494
86403SOL     OW61047  11.660   2.571   7.991
86403SOL    HW161048  11.629   2.595   7.903
86403SOL    HW261049  11.713   2.646   8.019
86404SOL     OW61050   1.565  14.128   4.097
86404SOL    HW161051   1.612  14.068   4.155
86404SOL    HW261052   1.634  14.180   4.055
86405SOL     OW61053   9.248   3.044   6.181
86405SOL    HW161054   9.208   3.057   6.267
86405SOL    HW261055   9.268   3.133   6.150
86406SOL     OW61056   4.992   8.828  11.486
86406SOL    HW161057   5.068   8.860  11.536
86406SOL    HW261058   4.944   8.907  11.462
86407SOL     OW61059   0.811   5.758  11.089
86407SOL    HW161060   0.839   5.667  11.088
86407SOL    HW261061   0.770   5.770  11.174
86408SOL     OW61062  10.843   5.256  11.129
86408SOL    HW161063  10.831   5.161  11.131
86408SOL    HW261064  10.913   5.273  11.193
86409SOL     OW61065   3.677   1.394   5.751
86409SOL    HW161066   3.668   1.321   5.691
86409SOL    HW261067   3.747   1.447   5.714
86410SOL     OW61068  14.468   7.710   7.702
86410SOL    HW161069  14.431   7.652   7.636
86410SOL    HW261070  14.399   7.773   7.721
86411SOL     OW61071  10.148  12.087   9.184
86411SOL    HW161072  10.227  12.100   9.237
86411SOL    HW261073  10.181  12.060   9.099
86412SOL     OW61074  12.190   3.633  13.911
86412SOL    HW161075  12.162   3.667  13.826
86412SOL    HW261076  12.278   3.669  13.924
86413SOL     OW61077   9.047   6.009   6.566
86413SOL    HW161078   8.953   6.025   6.561
86413SOL    HW261079   9.074   5.997   6.474
86414SOL     OW61080   7.520   3.642   7.178
86414SOL    HW161081   7.426   3.624   7.182
86414SOL    HW261082   7.535   3.704   7.249
86415SOL     OW61083   6.023   7.893   3.282
86415SOL    HW161084   6.054   7.826   3.222
86415SOL    HW261085   6.069   7.973   3.255
86416SOL     OW61086   9.818   8.473  10.024
86416SOL    HW161087   9.850   8.437  10.106
86416SOL    HW261088   9.723   8.458  10.026
86417SOL     OW61089  11.665   1.840   6.282
86417SOL    HW161090  11.646   1.866   6.372
86417SOL    HW261091  11.604   1.891   6.229
86418SOL     OW61092   3.856   0.691  13.075
86418SOL    HW161093   3.768   0.711  13.043
86418SOL    HW261094   3.851   0.705  13.170
86419SOL     OW61095   7.053   2.223   8.759
86419SOL    HW161096   6.977   2.201   8.705
86419SOL    HW261097   7.029   2.305   8.802
86420SOL     OW61098   1.722   4.627  13.291
86420SOL    HW161099   1.809   4.590  13.305
86420SOL    HW261100   1.715   4.698  13.354
86421SOL     OW61101   7.483  13.475   6.246
86421SOL    HW161102   7.415  13.431   6.296
86421SOL    HW261103   7.448  13.563   6.230
86422SOL     OW61104   7.292   7.193  13.269
86422SOL    HW161105   7.268   7.262  13.207
86422SOL    HW261106   7.387   7.188  13.264
86423SOL     OW61107  12.903   6.054  13.437
86423SOL    HW161108  12.889   6.114  13.363
86423SOL    HW261109  12.829   6.071  13.495
86424SOL     OW61110  12.531   6.450   9.017
86424SOL    HW161111  12.492   6.470   9.102
86424SOL    HW261112  12.613   6.405   9.038
86425SOL     OW61113  11.627   7.436  11.168
86425SOL    HW161114  11.648   7.502  11.234
86425SOL    HW261115  11.571   7.373  11.214
86426SOL     OW61116   8.317  14.600  14.467
86426SOL    HW161117   8.246  14.662  14.484
86426SOL    HW261118   8.288  14.551  14.390
86427SOL     OW61119  13.714  14.014   4.967
86427SOL    HW161120  13.675  13.997   4.881
86427SOL    HW261121  13.693  13.937   5.018
86428SOL     OW61122  10.401   5.892   7.196
86428SOL    HW161123  10.323   5.858   7.238
86428SOL    HW261124  10.473   5.841   7.234
86429SOL     OW61125   9.303   5.871   3.893
86429SOL    HW161126   9.213   5.839   3.889
86429SOL    HW261127   9.354   5.803   3.848
86430SOL     OW61128   8.839  13.189   8.602
86430SOL    HW161129   8.790  13.144   8.534
86430SOL    HW261130   8.773  13.233   8.655
86431SOL     OW61131  13.646  14.799  14.394
86431SOL    HW161132  13.683  14.729  14.448
86431SOL    HW261133  13.559  14.814  14.431
86432SOL     OW61134   2.010  11.519   8.119
86432SOL    HW161135   1.945  11.451   8.099
86432SOL    HW261136   1.993  11.540   8.211
86433SOL     OW61137   5.878  14.189  12.500
86433SOL    HW161138   5.806  14.250  12.511
86433SOL    HW261139   5.944  14.219  12.564
86434SOL     OW61140   9.979  11.023  10.258
86434SOL    HW161141   9.919  10.996  10.188
86434SOL    HW261142  10.008  10.941  10.297
86435SOL     OW61143   6.825   7.709   7.914
86435SOL    HW161144   6.868   7.730   7.831
86435SOL    HW261145   6.830   7.790   7.965
86436SOL     OW61146   9.190   9.760   6.827
86436SOL    HW161147   9.235   9.786   6.907
86436SOL    HW261148   9.097   9.763   6.850
86437SOL     OW61149   9.605  11.944   3.535
86437SOL    HW161150   9.609  11.949   3.440
86437SOL    HW261151   9.516  11.916   3.554
86438SOL     OW61152  11.716   5.383   6.264
86438SOL    HW161153  11.785   5.446   6.246
86438SOL    HW261154  11.762   5.301   6.283
86439SOL     OW61155  12.160   8.417   8.446
86439SOL    HW161156  12.157   8.512   8.461
86439SOL    HW261157  12.069   8.389   8.452
86440SOL     OW61158  10.040   8.030   2.004
86440SOL    HW161159  10.036   7.984   2.088
86440SOL    HW261160  10.070   8.118   2.026
86441SOL     OW61161   1.870   0.924  12.672
86441SOL    HW161162   1.825   0.963  12.747
86441SOL    HW261163   1.933   0.991  12.644
86442SOL     OW61164   3.621   0.860   8.679
86442SOL    HW161165   3.621   0.951   8.652
86442SOL    HW261166   3.623   0.810   8.598
86443SOL     OW61167   9.850  13.835   7.416
86443SOL    HW161168   9.787  13.813   7.347
86443SOL    HW261169   9.936  13.828   7.373
86444SOL     OW61170  14.485  12.093  12.932
86444SOL    HW161171  14.428  12.019  12.954
86444SOL    HW261172  14.528  12.115  13.015
86445SOL     OW61173   3.701   5.230  12.652
86445SOL    HW161174   3.774   5.291  12.667
86445SOL    HW261175   3.670   5.251  12.564
86446SOL     OW61176   8.880   9.219  12.172
86446SOL    HW161177   8.964   9.197  12.132
86446SOL    HW261178   8.859   9.145  12.229
86447SOL     OW61179   4.758   5.063  14.387
86447SOL    HW161180   4.728   5.153  14.377
86447SOL    HW261181   4.678   5.010  14.384
86448SOL     OW61182   2.159   3.523  14.836
86448SOL    HW161183   2.186   3.587   0.023
86448SOL    HW261184   2.222   3.451  14.846
86449SOL     OW61185  12.287  13.579   4.699
86449SOL    HW161186  12.262  13.567   4.791
86449SOL    HW261187  12.327  13.666   4.696
86450SOL     OW61188   7.242   0.680  10.064
86450SOL    HW161189   7.320   0.731  10.087
86450SOL    HW261190   7.227   0.699   9.971
86451SOL     OW61191  10.130  10.148   7.047
86451SOL    HW161192  10.213  10.102   7.046
86451SOL    HW261193  10.064  10.080   7.030
86452SOL     OW61194   7.919   8.538  11.895
86452SOL    HW161195   7.917   8.537  11.800
86452SOL    HW261196   8.001   8.493  11.918
86453SOL     OW61197  14.272   9.786   5.785
86453SOL    HW161198  14.256   9.880   5.796
86453SOL    HW261199  14.364   9.775   5.810
86454SOL     OW61200   3.936   2.388   1.261
86454SOL    HW161201   3.948   2.384   1.356
86454SOL    HW261202   4.024   2.406   1.226
86455SOL     OW61203   8.058   6.770  11.469
86455SOL    HW161204   8.009   6.748  11.549
86455SOL    HW261205   8.020   6.714  11.402
86456SOL     OW61206  10.098   5.407   2.840
86456SOL    HW161207  10.034   5.445   2.900
86456SOL    HW261208  10.061   5.421   2.753
86457SOL     OW61209  13.800   1.010   4.515
86457SOL    HW161210  13.838   0.940   4.463
86457SOL    HW261211  13.705   0.997   4.508
86458SOL     OW61212   5.063   6.885  10.681
86458SOL    HW161213   5.101   6.823  10.618
86458SOL    HW261214   5.029   6.956  10.627
86459SOL     OW61215   9.127   8.776  10.901
86459SOL    HW161216   9.185   8.818  10.837
86459SOL    HW261217   9.158   8.685  10.906
86460SOL     OW61218   8.550   0.734   9.421
86460SOL    HW161219   8.500   0.792   9.363
86460SOL    HW261220   8.569   0.788   9.498
86461SOL     OW61221   9.630  13.289   1.032
86461SOL    HW161222   9.624  13.368   1.087
86461SOL    HW261223   9.563  13.302   0.965
86462SOL     OW61224  13.515  10.701  14.770
86462SOL    HW161225  13.457  10.777  14.773
86462SOL    HW261226  13.540  10.693  14.678
86463SOL     OW61227  10.277  14.718   7.124
86463SOL    HW161228  10.301  14.627   7.142
86463SOL    HW261229  10.286  14.763   7.208
86464SOL     OW61230   4.988   8.995  13.697
86464SOL    HW161231   4.900   9.014  13.664
86464SOL    HW261232   5.046   9.011  13.623
86465SOL     OW61233   2.481   7.451   1.672
86465SOL    HW161234   2.410   7.489   1.723
86465SOL    HW261235   2.497   7.515   1.602
86466SOL     OW61236  11.722   7.354   8.197
86466SOL    HW161237  11.683   7.324   8.115
86466SOL    HW261238  11.678   7.303   8.265
86467SOL     OW61239  13.803   5.401   3.841
86467SOL    HW161240  13.887   5.417   3.797
86467SOL    HW261241  13.746   5.470   3.809
86468SOL     OW61242  11.061   3.443   0.236
86468SOL    HW161243  10.986   3.499   0.215
86468SOL    HW261244  11.021   3.367   0.279
86469SOL     OW61245   8.575  13.547  14.648
86469SOL    HW161246   8.656  13.551  14.699
86469SOL    HW261247   8.604  13.535  14.558
86470SOL     OW61248  10.242   3.846   7.939
86470SOL    HW161249  10.267   3.927   7.894
86470SOL    HW261250  10.307   3.837   8.009
86471SOL     OW61251   7.096  14.201   5.027
86471SOL    HW161252   7.124  14.256   4.955
86471SOL    HW261253   7.137  14.116   5.009
86472SOL     OW61254   8.497  10.147  14.142
86472SOL    HW161255   8.572  10.089  14.158
86472SOL    HW261256   8.527  10.206  14.073
86473SOL     OW61257   8.491  11.385   4.376
86473SOL    HW161258   8.495  11.305   4.324
86473SOL    HW261259   8.487  11.355   4.466
86474SOL     OW61260  11.128   1.015  13.738
86474SOL    HW161261  11.142   1.106  13.713
86474SOL    HW261262  11.215   0.975  13.736
86475SOL     OW61263   5.762   0.998   5.332
86475SOL    HW161264   5.780   0.905   5.346
86475SOL    HW261265   5.746   1.033   5.419
86476SOL     OW61266   5.250   9.539  13.604
86476SOL    HW161267   5.181   9.551  13.670
86476SOL    HW261268   5.213   9.475  13.543
86477SOL     OW61269   0.853   9.064   6.501
86477SOL    HW161270   0.769   9.086   6.543
86477SOL    HW261271   0.861   9.127   6.429
86478SOL     OW61272  12.101  14.127   8.238
86478SOL    HW161273  12.022  14.083   8.209
86478SOL    HW261274  12.114  14.095   8.328
86479SOL     OW61275   6.984   0.127  12.394
86479SOL    HW161276   6.947   0.128  12.483
86479SOL    HW261277   6.953   0.045  12.356
86480SOL     OW61278   5.528   0.507   8.285
86480SOL    HW161279   5.463   0.498   8.216
86480SOL    HW261280   5.530   0.601   8.305
86481SOL     OW61281   0.142  10.643  12.727
86481SOL    HW161282   0.082  10.624  12.654
86481SOL    HW261283   0.229  10.636  12.688
86482SOL     OW61284   9.193   5.295  11.622
86482SOL    HW161285   9.172   5.384  11.595
86482SOL    HW261286   9.215   5.249  11.540
86483SOL     OW61287   3.025  13.110   1.912
86483SOL    HW161288   2.930  13.109   1.920
86483SOL    HW261289   3.054  13.172   1.979
86484SOL     OW61290   8.756  13.361  11.282
86484SOL    HW161291   8.781  13.452  11.301
86484SOL    HW261292   8.684  13.343  11.343
86485SOL     OW61293   7.544   4.158  12.586
86485SOL    HW161294   7.598   4.090  12.626
86485SOL    HW261295   7.500   4.113  12.513
86486SOL     OW61296   4.060  13.634   4.113
86486SOL    HW161297   4.006  13.555   4.108
86486SOL    HW261298   4.026  13.691   4.044
86487SOL     OW61299  10.051   3.213   3.452
86487SOL    HW161300  10.015   3.125   3.443
86487SOL    HW261301  10.144   3.204   3.430
86488SOL     OW61302  13.296   1.769  10.937
86488SOL    HW161303  13.270   1.812  10.855
86488SOL    HW261304  13.381   1.809  10.958
86489SOL     OW61305  10.709   7.814   1.023
86489SOL    HW161306  10.738   7.740   1.075
86489SOL    HW261307  10.790   7.860   0.998
86490SOL     OW61308  14.744   6.300   2.411
86490SOL    HW161309  14.762   6.211   2.383
86490SOL    HW261310  14.826   6.330   2.450
86491SOL     OW61311  10.222   4.453  10.798
86491SOL    HW161312  10.229   4.539  10.756
86491SOL    HW261313  10.225   4.391  10.725
86492SOL     OW61314   2.098   9.705   1.556
86492SOL    HW161315   2.092   9.634   1.492
86492SOL    HW261316   2.167   9.762   1.523
86493SOL     OW61317   8.797  14.419  12.412
86493SOL    HW161318   8.804  14.325  12.425
86493SOL    HW261319   8.861  14.439  12.344
86494SOL     OW61320  11.165   4.285   1.251
86494SOL    HW161321  11.173   4.332   1.334
86494SOL    HW261322  11.163   4.353   1.184
86495SOL     OW61323  14.792   7.224  12.629
86495SOL    HW161324  14.734   7.150  12.608
86495SOL    HW261325  14.762   7.254  12.715
86496SOL     OW61326   9.557  11.928   4.271
86496SOL    HW161327   9.557  11.913   4.365
86496SOL    HW261328   9.608  11.855   4.235
86497SOL     OW61329   4.426  10.438  10.470
86497SOL    HW161330   4.482  10.435  10.392
86497SOL    HW261331   4.448  10.358  10.518
86498SOL     OW61332   4.777   5.890   3.259
86498SOL    HW161333   4.691   5.888   3.218
86498SOL    HW261334   4.825   5.819   3.217
86499SOL     OW61335   2.991  14.421   8.560
86499SOL    HW161336   2.899  14.397   8.554
86499SOL    HW261337   3.013  14.453   8.473
86500SOL     OW61338   2.891   9.721  10.230
86500SOL    HW161339   2.954   9.650  10.243
86500SOL    HW261340   2.808   9.677  10.213
86501SOL     OW61341  14.766   6.908   0.876
86501SOL    HW161342  14.716   6.908   0.958
86501SOL    HW261343  14.704   6.940   0.810
86502SOL     OW61344  14.683  10.261  10.272
86502SOL    HW161345  14.730  10.333  10.230
86502SOL    HW261346  14.654  10.297  10.355
86503SOL     OW61347   8.322  11.624   5.296
86503SOL    HW161348   8.402  11.595   5.339
86503SOL    HW261349   8.260  11.638   5.368
86504SOL     OW61350  12.952   9.561  13.185
86504SOL    HW161351  13.038   9.563  13.228
86504SOL    HW261352  12.965   9.506  13.108
86505SOL     OW61353  12.170   9.301   6.551
86505SOL    HW161354  12.094   9.329   6.602
86505SOL    HW261355  12.161   9.345   6.467
86506SOL     OW61356   4.048   3.136   8.356
86506SOL    HW161357   3.968   3.128   8.408
86506SOL    HW261358   4.081   3.224   8.375
86507SOL     OW61359   6.328   7.416  10.213
86507SOL    HW161360   6.292   7.365  10.140
86507SOL    HW261361   6.291   7.503  10.202
86508SOL     OW61362  12.966  13.836   5.505
86508SOL    HW161363  12.997  13.909   5.452
86508SOL    HW261364  13.028  13.765   5.486
86509SOL     OW61365   4.089   2.289   4.856
86509SOL    HW161366   4.094   2.381   4.829
86509SOL    HW261367   4.087   2.292   4.952
86510SOL     OW61368   7.599   1.390   1.911
86510SOL    HW161369   7.658   1.442   1.856
86510SOL    HW261370   7.635   1.301   1.908
86511SOL     OW61371   1.672  14.376  11.745
86511SOL    HW161372   1.736  14.343  11.808
86511SOL    HW261373   1.607  14.306  11.737
86512SOL     OW61374   1.176   7.726  13.093
86512SOL    HW161375   1.101   7.687  13.049
86512SOL    HW261376   1.152   7.818  13.104
86513SOL     OW61377  11.576  10.320   1.838
86513SOL    HW161378  11.514  10.256   1.873
86513SOL    HW261379  11.523  10.397   1.820
86514SOL     OW61380  11.038   8.005   7.496
86514SOL    HW161381  10.988   8.060   7.556
86514SOL    HW261382  11.072   7.934   7.551
86515SOL     OW61383   4.011  11.684   7.578
86515SOL    HW161384   4.055  11.662   7.660
86515SOL    HW261385   3.978  11.601   7.544
86516SOL     OW61386  11.277  12.335  12.026
86516SOL    HW161387  11.273  12.422  11.987
86516SOL    HW261388  11.281  12.350  12.120
86517SOL     OW61389   2.058   0.522   3.524
86517SOL    HW161390   2.013   0.587   3.469
86517SOL    HW261391   1.988   0.475   3.568
86518SOL     OW61392   9.581  11.007   4.237
86518SOL    HW161393   9.600  10.913   4.234
86518SOL    HW261394   9.500  11.014   4.287
86519SOL     OW61395   1.877   8.962   9.217
86519SOL    HW161396   1.846   8.898   9.153
86519SOL    HW261397   1.801   8.979   9.273
86520SOL     OW61398   8.437   7.630   5.673
86520SOL    HW161399   8.467   7.554   5.623
86520SOL    HW261400   8.491   7.702   5.642
86521SOL     OW61401  14.251  13.224   9.821
86521SOL    HW161402  14.223  13.258   9.736
86521SOL    HW261403  14.285  13.137   9.802
86522SOL     OW61404  14.281  12.934  13.438
86522SOL    HW161405  14.320  13.001  13.382
86522SOL    HW261406  14.318  12.852  13.406
86523SOL     OW61407  13.550  10.843   5.267
86523SOL    HW161408  13.563  10.935   5.247
86523SOL    HW261409  13.609  10.796   5.208
86524SOL     OW61410   2.275   2.481   6.852
86524SOL    HW161411   2.260   2.570   6.884
86524SOL    HW261412   2.323   2.438   6.923
86525SOL     OW61413  13.061   2.763   0.582
86525SOL    HW161414  13.101   2.800   0.503
86525SOL    HW261415  13.089   2.671   0.581
86526SOL     OW61416   8.403   2.556  11.647
86526SOL    HW161417   8.434   2.467  11.629
86526SOL    HW261418   8.446   2.580  11.730
86527SOL     OW61419  11.415  14.031   0.758
86527SOL    HW161420  11.367  14.113   0.767
86527SOL    HW261421  11.356  13.964   0.794
86528SOL     OW61422   7.614  10.231   4.135
86528SOL    HW161423   7.636  10.178   4.211
86528SOL    HW261424   7.529  10.197   4.106
86529SOL     OW61425   4.575  14.588   4.137
86529SOL    HW161426   4.624  14.507   4.122
86529SOL    HW261427   4.637  14.644   4.185
86530SOL     OW61428   7.575   3.083   1.218
86530SOL    HW161429   7.566   3.058   1.310
86530SOL    HW261430   7.487   3.076   1.183
86531SOL     OW61431   4.826  10.311   9.771
86531SOL    HW161432   4.769  10.387   9.765
86531SOL    HW261433   4.799  10.266   9.851
86532SOL     OW61434  10.493   0.373  12.438
86532SOL    HW161435  10.495   0.453  12.490
86532SOL    HW261436  10.568   0.381  12.379
86533SOL     OW61437  14.490  11.604   8.218
86533SOL    HW161438  14.433  11.679   8.233
86533SOL    HW261439  14.578  11.641   8.216
86534SOL     OW61440  13.130  11.021  10.295
86534SOL    HW161441  13.184  11.084  10.248
86534SOL    HW261442  13.144  11.041  10.387
86535SOL     OW61443   7.432   0.835  11.316
86535SOL    HW161444   7.527   0.848  11.321
86535SOL    HW261445   7.420   0.742  11.332
86536SOL     OW61446   6.827   9.436   3.002
86536SOL    HW161447   6.911   9.416   2.961
86536SOL    HW261448   6.772   9.468   2.931
86537SOL     OW61449   8.226   1.768  12.371
86537SOL    HW161450   8.155   1.706  12.389
86537SOL    HW261451   8.304   1.726  12.408
86538SOL     OW61452   8.391   3.563   1.479
86538SOL    HW161453   8.351   3.636   1.526
86538SOL    HW261454   8.318   3.507   1.453
86539SOL     OW61455   9.595  11.835   2.134
86539SOL    HW161456   9.518  11.804   2.182
86539SOL    HW261457   9.655  11.865   2.202
86540SOL     OW61458   1.905   0.395  12.559
86540SOL    HW161459   1.941   0.484  12.556
86540SOL    HW261460   1.856   0.387  12.477
86541SOL     OW61461   5.769   1.232   4.207
86541SOL    HW161462   5.848   1.286   4.212
86541SOL    HW261463   5.800   1.143   4.221
86542SOL     OW61464  11.614  13.767   7.110
86542SOL    HW161465  11.706  13.742   7.116
86542SOL    HW261466  11.594  13.805   7.195
86543SOL     OW61467   9.787   8.191   1.895
86543SOL    HW161468   9.834   8.128   1.949
86543SOL    HW261469   9.744   8.249   1.959
86544SOL     OW61470  14.261  10.362   4.346
86544SOL    HW161471  14.330  10.369   4.280
86544SOL    HW261472  14.203  10.293   4.313
86545SOL     OW61473  11.549   6.435  13.262
86545SOL    HW161474  11.491   6.454  13.188
86545SOL    HW261475  11.491   6.403  13.331
86546SOL     OW61476   9.627   1.186   0.402
86546SOL    HW161477   9.561   1.192   0.332
86546SOL    HW261478   9.690   1.255   0.381
86547SOL     OW61479  14.874   2.999  13.392
86547SOL    HW161480  14.801   3.027  13.336
86547SOL    HW261481  14.832   2.965  13.471
86548SOL     OW61482  10.816   8.251  11.599
86548SOL    HW161483  10.782   8.196  11.670
86548SOL    HW261484  10.884   8.198  11.558
86549SOL     OW61485   8.385   1.065   3.770
86549SOL    HW161486   8.406   0.975   3.747
86549SOL    HW261487   8.300   1.060   3.814
86550SOL     OW61488  11.924  11.059   0.097
86550SOL    HW161489  11.973  11.026   0.173
86550SOL    HW261490  11.855  11.112   0.135
86551SOL     OW61491   7.699   5.996   6.139
86551SOL    HW161492   7.756   5.936   6.186
86551SOL    HW261493   7.701   5.966   6.048
86552SOL     OW61494  14.581   4.535   8.559
86552SOL    HW161495  14.488   4.552   8.544
86552SOL    HW261496  14.582   4.468   8.628
86553SOL     OW61497  14.177   1.907   9.114
86553SOL    HW161498  14.160   1.956   9.195
86553SOL    HW261499  14.272   1.907   9.105
86554SOL     OW61500  14.260  11.068   4.423
86554SOL    HW161501  14.295  11.145   4.378
86554SOL    HW261502  14.169  11.061   4.393
86555SOL     OW61503   9.125   6.275  14.216
86555SOL    HW161504   9.093   6.259  14.304
86555SOL    HW261505   9.210   6.318  14.229
86556SOL     OW61506   6.473   0.049   1.736
86556SOL    HW161507   6.455   0.142   1.724
86556SOL    HW261508   6.439   0.008   1.657
86557SOL     OW61509   1.184   9.518   6.772
86557SOL    HW161510   1.122   9.558   6.711
86557SOL    HW261511   1.161   9.556   6.857
86558SOL     OW61512  11.701   6.142   9.979
86558SOL    HW161513  11.763   6.070   9.987
86558SOL    HW261514  11.664   6.132   9.891
86559SOL     OW61515   2.909  12.835   9.384
86559SOL    HW161516   2.983  12.883   9.422
86559SOL    HW261517   2.854  12.813   9.459
86560SOL     OW61518  11.454  13.015   8.501
86560SOL    HW161519  11.527  12.958   8.525
86560SOL    HW261520  11.494  13.101   8.487
86561SOL     OW61521   1.989  10.431   9.680
86561SOL    HW161522   2.005  10.390   9.765
86561SOL    HW261523   1.909  10.390   9.648
86562SOL     OW61524  13.978   3.284   0.359
86562SOL    HW161525  14.026   3.308   0.280
86562SOL    HW261526  13.898   3.243   0.328
86563SOL     OW61527  14.069   2.612  10.877
86563SOL    HW161528  14.135   2.658  10.930
86563SOL    HW261529  14.055   2.529  10.923
86564SOL     OW61530   1.816   3.283   2.670
86564SOL    HW161531   1.734   3.309   2.627
86564SOL    HW261532   1.816   3.331   2.753
86565SOL     OW61533   5.530   9.415   7.576
86565SOL    HW161534   5.588   9.478   7.533
86565SOL    HW261535   5.583   9.336   7.586
86566SOL     OW61536  12.779   1.313  14.644
86566SOL    HW161537  12.731   1.350  14.719
86566SOL    HW261538  12.806   1.226  14.674
86567SOL     OW61539  13.711  14.749  12.652
86567SOL    HW161540  13.655  14.674  12.667
86567SOL    HW261541  13.667  14.822  12.696
86568SOL     OW61542   8.633   6.893   0.411
86568SOL    HW161543   8.579   6.966   0.380
86568SOL    HW261544   8.712   6.934   0.445
86569SOL     OW61545   3.809   5.033   9.378
86569SOL    HW161546   3.794   5.083   9.298
86569SOL    HW261547   3.750   4.958   9.371
86570SOL     OW61548   5.228   9.276  10.776
86570SOL    HW161549   5.286   9.261  10.852
86570SOL    HW261550   5.257   9.360  10.740
86571SOL     OW61551   4.903   7.624   5.801
86571SOL    HW161552   4.874   7.700   5.750
86571SOL    HW261553   4.973   7.585   5.749
86572SOL     OW61554   3.222   8.828   1.316
86572SOL    HW161555   3.219   8.744   1.269
86572SOL    HW261556   3.163   8.885   1.267
86573SOL     OW61557   6.068  11.366   8.394
86573SOL    HW161558   6.092  11.301   8.329
86573SOL    HW261559   5.984  11.402   8.364
86574SOL     OW61560   5.699   5.027   2.533
86574SOL    HW161561   5.771   4.974   2.565
86574SOL    HW261562   5.701   5.105   2.588
86575SOL     OW61563   8.254  11.146   8.555
86575SOL    HW161564   8.198  11.190   8.618
86575SOL    HW261565   8.206  11.067   8.530
86576SOL     OW61566   2.974   7.952   9.028
86576SOL    HW161567   2.905   7.910   8.977
86576SOL    HW261568   2.973   8.043   8.998
86577SOL     OW61569   3.439   9.289   8.381
86577SOL    HW161570   3.482   9.336   8.452
86577SOL    HW261571   3.404   9.358   8.325
86578SOL     OW61572   3.131   6.167   0.302
86578SOL    HW161573   3.219   6.204   0.309
86578SOL    HW261574   3.102   6.157   0.392
86579SOL     OW61575   3.213   8.063   0.361
86579SOL    HW161576   3.143   8.113   0.320
86579SOL    HW261577   3.242   8.002   0.294
86580SOL     OW61578   4.391  14.108  10.471
86580SOL    HW161579   4.430  14.194  10.483
86580SOL    HW261580   4.297  14.125  10.463
86581SOL     OW61581   0.183  11.903   8.821
86581SOL    HW161582   0.259  11.962   8.822
86581SOL    HW261583   0.178  11.867   8.909
86582SOL     OW61584  12.190  13.250   3.038
86582SOL    HW161585  12.144  13.219   2.960
86582SOL    HW261586  12.123  13.252   3.106
86583SOL     OW61587  13.608  11.801  13.391
86583SOL    HW161588  13.666  11.741  13.344
86583SOL    HW261589  13.597  11.876  13.332
86584SOL     OW61590   6.303  10.865   6.399
86584SOL    HW161591   6.296  10.776   6.365
86584SOL    HW261592   6.309  10.855   6.494
86585SOL     OW61593   2.753  14.493   2.397
86585SOL    HW161594   2.830  14.462   2.349
86585SOL    HW261595   2.776  14.481   2.489
86586SOL     OW61596   4.947   5.393   2.198
86586SOL    HW161597   4.927   5.372   2.289
86586SOL    HW261598   5.005   5.469   2.204
86587SOL     OW61599   7.492   9.893  11.207
86587SOL    HW161600   7.450   9.947  11.274
86587SOL    HW261601   7.526   9.818  11.255
86588SOL     OW61602   5.807  10.905   0.179
86588SOL    HW161603   5.867  10.862   0.239
86588SOL    HW261604   5.720  10.889   0.214
86589SOL     OW61605   4.803   3.384  14.556
86589SOL    HW161606   4.852   3.457  14.519
86589SOL    HW261607   4.719   3.421  14.583
86590SOL     OW61608  14.183  11.234   2.814
86590SOL    HW161609  14.184  11.151   2.766
86590SOL    HW261610  14.261  11.231   2.869
86591SOL     OW61611   4.983   5.907   9.565
86591SOL    HW161612   4.992   5.812   9.568
86591SOL    HW261613   4.964   5.932   9.655
86592SOL     OW61614   4.499  12.144  12.856
86592SOL    HW161615   4.450  12.194  12.792
86592SOL    HW261616   4.458  12.164  12.940
86593SOL     OW61617  11.051  10.374  14.720
86593SOL    HW161618  10.974  10.344  14.769
86593SOL    HW261619  11.015  10.412  14.640
86594SOL     OW61620   0.105   2.761  13.265
86594SOL    HW161621   0.081   2.854  13.259
86594SOL    HW261622   0.078   2.736  13.353
86595SOL     OW61623   7.383   9.841   5.842
86595SOL    HW161624   7.290   9.820   5.840
86595SOL    HW261625   7.404   9.849   5.935
86596SOL     OW61626  10.825   5.825   9.782
86596SOL    HW161627  10.807   5.913   9.816
86596SOL    HW261628  10.766   5.768   9.832
86597SOL     OW61629   9.632  11.437   9.016
86597SOL    HW161630   9.708  11.488   9.045
86597SOL    HW261631   9.597  11.399   9.097
86598SOL     OW61632   3.335   2.731  12.083
86598SOL    HW161633   3.274   2.706  12.152
86598SOL    HW261634   3.281   2.771  12.016
86599SOL     OW61635   9.750  12.338   6.786
86599SOL    HW161636   9.692  12.285   6.732
86599SOL    HW261637   9.777  12.410   6.730
86600SOL     OW61638   2.558  12.987  12.075
86600SOL    HW161639   2.647  13.022  12.081
86600SOL    HW261640   2.554  12.921  12.145
86601SOL     OW61641   8.465   1.947  10.347
86601SOL    HW161642   8.506   1.933  10.432
86601SOL    HW261643   8.373   1.926  10.360
86602SOL     OW61644   2.339   0.065  10.055
86602SOL    HW161645   2.333   0.156  10.085
86602SOL    HW261646   2.248   0.040  10.037
86603SOL     OW61647   3.874  12.448   9.396
86603SOL    HW161648   3.905  12.358   9.405
86603SOL    HW261649   3.859  12.458   9.302
86604SOL     OW61650   7.244  14.060   8.560
86604SOL    HW161651   7.293  13.991   8.515
86604SOL    HW261652   7.222  14.023   8.645
86605SOL     OW61653   3.838   6.423   0.020
86605SOL    HW161654   3.857   6.362   0.091
86605SOL    HW261655   3.898   6.497   0.034
86606SOL     OW61656  10.640   2.648   2.259
86606SOL    HW161657  10.565   2.661   2.318
86606SOL    HW261658  10.620   2.702   2.183
86607SOL     OW61659   3.664   0.359  12.624
86607SOL    HW161660   3.744   0.351  12.677
86607SOL    HW261661   3.593   0.348  12.688
86608SOL     OW61662   8.191   0.691  13.475
86608SOL    HW161663   8.139   0.767  13.502
86608SOL    HW261664   8.267   0.729  13.430
86609SOL     OW61665   0.215  12.642   5.893
86609SOL    HW161666   0.192  12.549   5.888
86609SOL    HW261667   0.278  12.647   5.965
86610SOL     OW61668   4.291   5.303   5.872
86610SOL    HW161669   4.305   5.380   5.817
86610SOL    HW261670   4.232   5.248   5.820
86611SOL     OW61671  14.094   3.541   8.506
86611SOL    HW161672  14.106   3.479   8.435
86611SOL    HW261673  14.155   3.512   8.574
86612SOL     OW61674   4.883   5.780   5.873
86612SOL    HW161675   4.847   5.836   5.942
86612SOL    HW261676   4.843   5.813   5.792
86613SOL     OW61677   2.625   3.401  12.767
86613SOL    HW161678   2.591   3.465  12.830
86613SOL    HW261679   2.575   3.321  12.784
86614SOL     OW61680   3.832   5.960   0.642
86614SOL    HW161681   3.816   6.001   0.727
86614SOL    HW261682   3.773   6.005   0.582
86615SOL     OW61683   8.705   4.121   2.526
86615SOL    HW161684   8.657   4.074   2.457
86615SOL    HW261685   8.791   4.079   2.527
86616SOL     OW61686   0.234  12.739   5.622
86616SOL    HW161687   0.160  12.713   5.566
86616SOL    HW261688   0.207  12.713   5.710
86617SOL     OW61689   3.454   4.322   1.851
86617SOL    HW161690   3.416   4.235   1.842
86617SOL    HW261691   3.412   4.359   1.928
86618SOL     OW61692  13.395   3.804   2.941
86618SOL    HW161693  13.341   3.726   2.930
86618SOL    HW261694  13.351   3.871   2.888
86619SOL     OW61695   7.770  12.965   7.306
86619SOL    HW161696   7.759  12.941   7.398
86619SOL    HW261697   7.737  12.889   7.258
86620SOL     OW61698   0.548   7.899   2.859
86620SOL    HW161699   0.575   7.841   2.930
86620SOL    HW261700   0.588   7.984   2.880
86621SOL     OW61701   6.993   7.620   6.265
86621SOL    HW161702   7.001   7.675   6.187
86621SOL    HW261703   6.899   7.608   6.276
86622SOL     OW61704   6.727  13.673   0.311
86622SOL    HW161705   6.778  13.594   0.294
86622SOL    HW261706   6.762  13.706   0.394
86623SOL     OW61707  13.153   5.380   0.371
86623SOL    HW161708  13.158   5.413   0.281
86623SOL    HW261709  13.157   5.458   0.426
86624SOL     OW61710   7.365   0.112   3.603
86624SOL    HW161711   7.425   0.058   3.552
86624SOL    HW261712   7.328   0.173   3.540
86625SOL     OW61713   1.008   0.648   6.215
86625SOL    HW161714   0.961   0.615   6.137
86625SOL    HW261715   1.093   0.604   6.211
86626SOL     OW61716   6.814  14.665   0.553
86626SOL    HW161717   6.774  14.731   0.609
86626SOL    HW261718   6.886  14.711   0.509
86627SOL     OW61719  11.799   5.859  14.495
86627SOL    HW161720  11.842   5.900  14.570
86627SOL    HW261721  11.761   5.932  14.446
86628SOL     OW61722  11.074   6.268   1.034
86628SOL    HW161723  11.097   6.334   1.099
86628SOL    HW261724  11.146   6.270   0.971
86629SOL     OW61725   7.719  11.989   4.585
86629SOL    HW161726   7.662  12.036   4.646
86629SOL    HW261727   7.750  12.056   4.524
86630SOL     OW61728  14.176   7.127   0.273
86630SOL    HW161729  14.215   7.182   0.341
86630SOL    HW261730  14.177   7.038   0.310
86631SOL     OW61731   0.689   6.872  12.038
86631SOL    HW161732   0.607   6.871  11.989
86631SOL    HW261733   0.721   6.782  12.034
86632SOL     OW61734   5.897   2.976   2.787
86632SOL    HW161735   5.834   2.991   2.717
86632SOL    HW261736   5.891   2.882   2.804
86633SOL     OW61737   0.610  12.527   0.206
86633SOL    HW161738   0.609  12.523   0.301
86633SOL    HW261739   0.692  12.572   0.185
86634SOL     OW61740   5.976   5.199   9.288
86634SOL    HW161741   5.974   5.105   9.268
86634SOL    HW261742   6.056   5.231   9.246
86635SOL     OW61743   7.570   4.268   5.888
86635SOL    HW161744   7.515   4.202   5.846
86635SOL    HW261745   7.591   4.230   5.973
86636SOL     OW61746   4.405   3.621   6.129
86636SOL    HW161747   4.411   3.681   6.204
86636SOL    HW261748   4.315   3.590   6.130
86637SOL     OW61749  14.870   5.869   0.364
86637SOL    HW161750  14.843   5.837   0.278
86637SOL    HW261751  14.794   5.916   0.397
86638SOL     OW61752   5.942   2.135   3.227
86638SOL    HW161753   5.848   2.142   3.239
86638SOL    HW261754   5.971   2.076   3.297
86639SOL     OW61755  10.031   3.413   4.216
86639SOL    HW161756  10.037   3.487   4.276
86639SOL    HW261757  10.058   3.448   4.131
86640SOL     OW61758   6.340   6.787   4.424
86640SOL    HW161759   6.247   6.764   4.427
86640SOL    HW261760   6.381   6.713   4.379
86641SOL     OW61761  13.946   6.009   7.640
86641SOL    HW161762  13.860   5.974   7.620
86641SOL    HW261763  13.947   6.017   7.736
86642SOL     OW61764  12.709   3.422   8.112
86642SOL    HW161765  12.761   3.472   8.176
86642SOL    HW261766  12.636   3.387   8.164
86643SOL     OW61767   7.737   0.925  10.719
86643SOL    HW161768   7.825   0.899  10.745
86643SOL    HW261769   7.681   0.893  10.789
86644SOL     OW61770  13.538   9.254   4.516
86644SOL    HW161771  13.452   9.217   4.494
86644SOL    HW261772  13.583   9.183   4.563
86645SOL     OW61773   0.426   5.184  14.159
86645SOL    HW161774   0.350   5.127  14.170
86645SOL    HW261775   0.499   5.125  14.139
86646SOL     OW61776   9.539  14.724  13.469
86646SOL    HW161777   9.593  14.736  13.547
86646SOL    HW261778   9.600  14.735  13.396
86647SOL     OW61779   9.113   5.640   6.355
86647SOL    HW161780   9.033   5.692   6.351
86647SOL    HW261781   9.113   5.605   6.445
86648SOL     OW61782   6.874  13.388   0.689
86648SOL    HW161783   6.877  13.344   0.774
86648SOL    HW261784   6.793  13.438   0.691
86649SOL     OW61785  13.249   1.121   8.244
86649SOL    HW161786  13.258   1.026   8.251
86649SOL    HW261787  13.324   1.149   8.192
86650SOL     OW61788   9.485   6.695   2.107
86650SOL    HW161789   9.507   6.703   2.014
86650SOL    HW261790   9.479   6.786   2.137
86651SOL     OW61791   2.966   9.419  13.855
86651SOL    HW161792   2.917   9.374  13.787
86651SOL    HW261793   2.928   9.387  13.937
86652SOL     OW61794   9.628   4.725   4.506
86652SOL    HW161795   9.641   4.814   4.471
86652SOL    HW261796   9.535   4.721   4.528
86653SOL     OW61797  14.709   9.213   4.798
86653SOL    HW161798  14.770   9.175   4.861
86653SOL    HW261799  14.671   9.138   4.752
86654SOL     OW61800  11.568  13.295   3.938
86654SOL    HW161801  11.646  13.257   3.899
86654SOL    HW261802  11.599  13.337   4.018
86655SOL     OW61803   5.711   5.291  14.476
86655SOL    HW161804   5.624   5.266  14.444
86655SOL    HW261805   5.693   5.338  14.558
86656SOL     OW61806   7.737  13.301   9.438
86656SOL    HW161807   7.752  13.327   9.347
86656SOL    HW261808   7.825  13.299   9.476
86657SOL     OW61809   0.364  10.721  11.640
86657SOL    HW161810   0.415  10.644  11.668
86657SOL    HW261811   0.426  10.771  11.586
86658SOL     OW61812   9.151   3.174   5.534
86658SOL    HW161813   9.143   3.162   5.439
86658SOL    HW261814   9.118   3.092   5.571
86659SOL     OW61815  14.281   5.293   7.293
86659SOL    HW161816  14.219   5.356   7.258
86659SOL    HW261817  14.359   5.302   7.237
86660SOL     OW61818   2.966   2.305   7.651
86660SOL    HW161819   2.875   2.334   7.656
86660SOL    HW261820   3.015   2.383   7.622
86661SOL     OW61821   4.092   4.649   0.507
86661SOL    HW161822   4.128   4.731   0.474
86661SOL    HW261823   4.163   4.586   0.496
86662SOL     OW61824  11.981   6.091   4.052
86662SOL    HW161825  11.940   6.136   4.125
86662SOL    HW261826  11.969   6.149   3.977
86663SOL     OW61827  13.611   7.302  11.788
86663SOL    HW161828  13.539   7.352  11.826
86663SOL    HW261829  13.678   7.301  11.856
86664SOL     OW61830  13.023   1.385   2.220
86664SOL    HW161831  12.979   1.313   2.265
86664SOL    HW261832  12.977   1.393   2.137
86665SOL     OW61833   8.609   0.645  11.970
86665SOL    HW161834   8.631   0.692  11.890
86665SOL    HW261835   8.692   0.609  12.000
86666SOL     OW61836  12.444  10.505   5.141
86666SOL    HW161837  12.404  10.519   5.055
86666SOL    HW261838  12.432  10.588   5.187
86667SOL     OW61839   8.828   7.660  11.172
86667SOL    HW161840   8.739   7.653  11.139
86667SOL    HW261841   8.857   7.747  11.146
86668SOL     OW61842   5.505   6.541  11.770
86668SOL    HW161843   5.501   6.608  11.702
86668SOL    HW261844   5.521   6.589  11.851
86669SOL     OW61845   1.638   6.923   1.127
86669SOL    HW161846   1.614   6.867   1.200
86669SOL    HW261847   1.596   6.883   1.051
86670SOL     OW61848   9.231   7.119  12.312
86670SOL    HW161849   9.177   7.085  12.240
86670SOL    HW261850   9.168   7.141  12.380
86671SOL     OW61851   8.879   2.322   3.879
86671SOL    HW161852   8.964   2.288   3.908
86671SOL    HW261853   8.883   2.415   3.899
86672SOL     OW61854   3.632   9.591  13.860
86672SOL    HW161855   3.567   9.659  13.879
86672SOL    HW261856   3.639   9.542  13.942
86673SOL     OW61857   1.575   0.373   9.389
86673SOL    HW161858   1.618   0.454   9.363
86673SOL    HW261859   1.482   0.395   9.393
86674SOL     OW61860   7.466  10.341   9.732
86674SOL    HW161861   7.463  10.415   9.793
86674SOL    HW261862   7.454  10.264   9.788
86675SOL     OW61863  10.305   1.259   9.917
86675SOL    HW161864  10.380   1.309   9.949
86675SOL    HW261865  10.255   1.238   9.995
86676SOL     OW61866   5.029   3.631  14.190
86676SOL    HW161867   5.099   3.669  14.137
86676SOL    HW261868   4.965   3.599  14.125
86677SOL     OW61869  14.828   5.632   7.316
86677SOL    HW161870  14.837   5.654   7.409
86677SOL    HW261871   0.017   5.567   7.301
86678SOL     OW61872   4.389  13.251   7.336
86678SOL    HW161873   4.479  13.268   7.365
86678SOL    HW261874   4.338  13.248   7.416
86679SOL     OW61875   9.899   5.290   7.443
86679SOL    HW161876   9.858   5.354   7.502
86679SOL    HW261877   9.929   5.342   7.368
86680SOL     OW61878  11.105  14.542  10.899
86680SOL    HW161879  11.125  14.449  10.886
86680SOL    HW261880  11.191  14.584  10.905
86681SOL     OW61881  12.348   4.575   5.617
86681SOL    HW161882  12.273   4.604   5.566
86681SOL    HW261883  12.400   4.523   5.556
86682SOL     OW61884   8.070  12.182   5.973
86682SOL    HW161885   8.071  12.150   6.063
86682SOL    HW261886   8.015  12.120   5.925
86683SOL     OW61887  11.209  11.981   7.648
86683SOL    HW161888  11.269  11.948   7.715
86683SOL    HW261889  11.187  11.903   7.596
86684SOL     OW61890   8.734  13.653  13.832
86684SOL    HW161891   8.821  13.639  13.795
86684SOL    HW261892   8.709  13.741  13.801
86685SOL     OW61893   4.030   0.802   2.726
86685SOL    HW161894   3.935   0.800   2.716
86685SOL    HW261895   4.062   0.742   2.659
86686SOL     OW61896   9.686   9.066   8.411
86686SOL    HW161897   9.756   9.012   8.446
86686SOL    HW261898   9.616   9.005   8.391
86687SOL     OW61899   1.568   9.065  13.633
86687SOL    HW161900   1.542   8.989  13.582
86687SOL    HW261901   1.664   9.065  13.628
86688SOL     OW61902  14.844   0.459   5.006
86688SOL    HW161903   0.036   0.453   5.069
86688SOL    HW261904  14.801   0.542   5.027
86689SOL     OW61905   3.573   7.117   5.251
86689SOL    HW161906   3.658   7.128   5.207
86689SOL    HW261907   3.572   7.184   5.319
86690SOL     OW61908   1.069  11.668  14.411
86690SOL    HW161909   1.029  11.632  14.333
86690SOL    HW261910   1.009  11.645  14.482
86691SOL     OW61911   8.615   9.948   8.026
86691SOL    HW161912   8.582   9.974   7.940
86691SOL    HW261913   8.649  10.030   8.064
86692SOL     OW61914   7.998   3.098  12.847
86692SOL    HW161915   8.003   3.158  12.773
86692SOL    HW261916   7.907   3.068  12.848
86693SOL     OW61917   2.401   9.776   7.900
86693SOL    HW161918   2.487   9.732   7.905
86693SOL    HW261919   2.353   9.727   7.833
86694SOL     OW61920   7.218   0.958   6.155
86694SOL    HW161921   7.219   0.961   6.059
86694SOL    HW261922   7.197   1.048   6.181
86695SOL     OW61923   2.156   0.007   3.122
86695SOL    HW161924   2.174   0.101   3.128
86695SOL    HW261925   2.109  14.875   3.039
86696SOL     OW61926   9.820   3.416  12.815
86696SOL    HW161927   9.901   3.377  12.782
86696SOL    HW261928   9.750   3.370  12.768
86697SOL     OW61929  10.249  11.036  14.417
86697SOL    HW161930  10.281  11.024  14.328
86697SOL    HW261931  10.267  10.953  14.461
86698SOL     OW61932   9.023  13.314   9.516
86698SOL    HW161933   9.071  13.330   9.597
86698SOL    HW261934   9.018  13.399   9.474
86699SOL     OW61935   3.656  11.098   9.134
86699SOL    HW161936   3.752  11.098   9.128
86699SOL    HW261937   3.636  11.152   9.211
86700SOL     OW61938  14.000  13.344   0.100
86700SOL    HW161939  14.080  13.395   0.092
86700SOL    HW261940  14.030  13.253   0.102
86701SOL     OW61941   6.007  11.249  10.761
86701SOL    HW161942   5.968  11.210  10.683
86701SOL    HW261943   6.101  11.246  10.746
86702SOL     OW61944   2.889   5.684  10.873
86702SOL    HW161945   2.946   5.691  10.796
86702SOL    HW261946   2.944   5.715  10.945
86703SOL     OW61947  13.492   8.692   0.972
86703SOL    HW161948  13.467   8.615   1.024
86703SOL    HW261949  13.578   8.717   1.006
86704SOL     OW61950   3.219  12.406   9.825
86704SOL    HW161951   3.268  12.419   9.906
86704SOL    HW261952   3.280  12.356   9.769
86705SOL     OW61953  12.426   7.848   1.964
86705SOL    HW161954  12.521   7.841   1.957
86705SOL    HW261955  12.412   7.928   2.015
86706SOL     OW61956   7.139   9.863  14.291
86706SOL    HW161957   7.141   9.875  14.196
86706SOL    HW261958   7.147   9.768  14.304
86707SOL     OW61959   0.381   1.357   7.451
86707SOL    HW161960   0.363   1.270   7.416
86707SOL    HW261961   0.476   1.366   7.445
86708SOL     OW61962  13.516   4.779  10.464
86708SOL    HW161963  13.465   4.722  10.406
86708SOL    HW261964  13.475   4.865  10.455
86709SOL     OW61965  11.600   6.642  11.845
86709SOL    HW161966  11.617   6.660  11.752
86709SOL    HW261967  11.521   6.692  11.865
86710SOL     OW61968   9.638   7.668   7.681
86710SOL    HW161969   9.609   7.580   7.706
86710SOL    HW261970   9.649   7.664   7.586
86711SOL     OW61971  14.873   8.815  12.962
86711SOL    HW161972  14.813   8.876  12.920
86711SOL    HW261973   0.035   8.767  12.890
86712SOL     OW61974   8.878   3.402   3.585
86712SOL    HW161975   8.922   3.391   3.500
86712SOL    HW261976   8.881   3.497   3.601
86713SOL     OW61977  12.316  14.573   1.574
86713SOL    HW161978  12.369  14.592   1.497
86713SOL    HW261979  12.332  14.647   1.633
86714SOL     OW61980   6.805  14.262  14.398
86714SOL    HW161981   6.801  14.171  14.426
86714SOL    HW261982   6.775  14.312  14.474
86715SOL     OW61983   3.194   0.371   2.173
86715SOL    HW161984   3.222   0.285   2.205
86715SOL    HW261985   3.105   0.381   2.205
86716SOL     OW61986  14.322  13.560   9.647
86716SOL    HW161987  14.304  13.513   9.565
86716SOL    HW261988  14.235  13.584   9.679
86717SOL     OW61989   9.883  13.619   9.016
86717SOL    HW161990   9.846  13.707   9.017
86717SOL    HW261991   9.940  13.617   8.939
86718SOL     OW61992   2.183   2.789  12.249
86718SOL    HW161993   2.254   2.730  12.224
86718SOL    HW261994   2.192   2.864  12.189
86719SOL     OW61995   7.894   0.071   2.731
86719SOL    HW161996   7.809   0.068   2.686
86719SOL    HW261997   7.952   0.116   2.669
86720SOL     OW61998   5.681   5.241   4.969
86720SOL    HW161999   5.749   5.183   4.934
86720SOL    HW262000   5.729   5.309   5.016
86721SOL     OW62001   8.056   3.123   9.111
86721SOL    HW162002   8.079   3.141   9.019
86721SOL    HW262003   8.086   3.201   9.158
86722SOL     OW62004  11.062   7.023   7.922
86722SOL    HW162005  10.991   7.087   7.924
86722SOL    HW262006  11.069   6.999   7.829
86723SOL     OW62007   0.492   3.333   0.630
86723SOL    HW162008   0.481   3.416   0.675
86723SOL    HW262009   0.583   3.333   0.601
86724SOL     OW62010   3.118  13.000   9.422
86724SOL    HW162011   3.127  13.084   9.378
86724SOL    HW262012   3.208  12.968   9.433
86725SOL     OW62013   9.543   3.945  10.350
86725SOL    HW162014   9.499   4.023  10.314
86725SOL    HW262015   9.502   3.872  10.303
86726SOL     OW62016   9.663   3.701  10.737
86726SOL    HW162017   9.748   3.658  10.743
86726SOL    HW262018   9.604   3.645  10.786
86727SOL     OW62019   9.390   4.124   3.211
86727SOL    HW162020   9.379   4.086   3.124
86727SOL    HW262021   9.303   4.155   3.236
86728SOL     OW62022  10.469   1.859   7.994
86728SOL    HW162023  10.446   1.909   7.916
86728SOL    HW262024  10.562   1.838   7.982
86729SOL     OW62025  11.983   5.816  10.704
86729SOL    HW162026  11.999   5.724  10.728
86729SOL    HW262027  12.032   5.828  10.623
86730SOL     OW62028   4.423   5.952   8.719
86730SOL    HW162029   4.442   5.861   8.741
86730SOL    HW262030   4.433   5.956   8.624
86731SOL     OW62031  12.736   7.024  12.190
86731SOL    HW162032  12.764   7.113  12.168
86731SOL    HW262033  12.769   7.010  12.279
86732SOL     OW62034   2.043   3.955  12.713
86732SOL    HW162035   2.087   4.013  12.775
86732SOL    HW262036   2.005   4.014  12.648
86733SOL     OW62037   4.338   9.877  13.933
86733SOL    HW162038   4.273   9.938  13.898
86733SOL    HW262039   4.362   9.822  13.858
86734SOL     OW62040   1.056   5.048  14.177
86734SOL    HW162041   1.011   4.970  14.145
86734SOL    HW262042   1.148   5.033  14.157
86735SOL     OW62043   6.184   5.718   3.339
86735SOL    HW162044   6.229   5.713   3.255
86735SOL    HW262045   6.120   5.647   3.337
86736SOL     OW62046  13.888  12.061  12.660
86736SOL    HW162047  13.938  12.084  12.738
86736SOL    HW262048  13.953  12.027  12.598
86737SOL     OW62049   8.152  14.356  14.582
86737SOL    HW162050   8.235  14.366  14.535
86737SOL    HW262051   8.113  14.277  14.544
86738SOL     OW62052  10.655  10.012   7.052
86738SOL    HW162053  10.643  10.061   7.133
86738SOL    HW262054  10.734   9.961   7.067
86739SOL     OW62055   1.935   3.268   5.759
86739SOL    HW162056   1.976   3.216   5.828
86739SOL    HW262057   1.969   3.230   5.678
86740SOL     OW62058   2.464   4.598  11.814
86740SOL    HW162059   2.451   4.626  11.904
86740SOL    HW262060   2.477   4.503  11.819
86741SOL     OW62061  13.499  10.330  13.831
86741SOL    HW162062  13.553  10.308  13.755
86741SOL    HW262063  13.413  10.292  13.811
86742SOL     OW62064   1.403   5.278  13.679
86742SOL    HW162065   1.325   5.282  13.623
86742SOL    HW262066   1.380   5.330  13.756
86743SOL     OW62067   0.676   1.620   2.783
86743SOL    HW162068   0.763   1.615   2.822
86743SOL    HW262069   0.693   1.625   2.688
86744SOL     OW62070   5.020   5.492   1.046
86744SOL    HW162071   5.107   5.455   1.061
86744SOL    HW262072   5.000   5.471   0.955
86745SOL     OW62073  13.242   0.111   6.609
86745SOL    HW162074  13.154   0.095   6.575
86745SOL    HW262075  13.252   0.206   6.605
86746SOL     OW62076   3.514   4.562   0.906
86746SOL    HW162077   3.575   4.490   0.889
86746SOL    HW262078   3.431   4.533   0.867
86747SOL     OW62079   1.487   4.537   8.872
86747SOL    HW162080   1.412   4.490   8.909
86747SOL    HW262081   1.539   4.563   8.948
86748SOL     OW62082   7.180   9.520   9.918
86748SOL    HW162083   7.156   9.431   9.942
86748SOL    HW262084   7.204   9.561  10.001
86749SOL     OW62085   9.986   6.595   5.838
86749SOL    HW162086   9.910   6.608   5.781
86749SOL    HW262087  10.043   6.669   5.819
86750SOL     OW62088   6.641   4.425   2.898
86750SOL    HW162089   6.698   4.486   2.944
86750SOL    HW262090   6.554   4.441   2.935
86751SOL     OW62091   8.166   9.212   5.385
86751SOL    HW162092   8.127   9.261   5.457
86751SOL    HW262093   8.209   9.279   5.331
86752SOL     OW62094   5.695   9.291   1.011
86752SOL    HW162095   5.685   9.242   0.929
86752SOL    HW262096   5.781   9.332   1.004
86753SOL     OW62097  13.302   3.531  11.937
86753SOL    HW162098  13.245   3.600  11.969
86753SOL    HW262099  13.277   3.519  11.846
86754SOL     OW62100  14.708   6.300   4.296
86754SOL    HW162101  14.799   6.275   4.310
86754SOL    HW262102  14.670   6.304   4.384
86755SOL     OW62103   7.780  12.777  10.002
86755SOL    HW162104   7.812  12.688   9.986
86755SOL    HW262105   7.696  12.781   9.957
86756SOL     OW62106   6.539   0.407   7.761
86756SOL    HW162107   6.487   0.454   7.826
86756SOL    HW262108   6.508   0.440   7.677
86757SOL     OW62109   1.629   3.695   9.807
86757SOL    HW162110   1.578   3.628   9.762
86757SOL    HW262111   1.564   3.761   9.834
86758SOL     OW62112   7.735   5.086   0.489
86758SOL    HW162113   7.698   5.114   0.573
86758SOL    HW262114   7.827   5.067   0.509
86759SOL     OW62115   1.011   6.035   1.931
86759SOL    HW162116   1.033   5.943   1.944
86759SOL    HW262117   0.921   6.033   1.899
86760SOL     OW62118  13.550  13.360   2.930
86760SOL    HW162119  13.578  13.277   2.967
86760SOL    HW262120  13.493  13.398   2.996
86761SOL     OW62121  13.594   3.425   8.299
86761SOL    HW162122  13.506   3.392   8.280
86761SOL    HW262123  13.652   3.366   8.252
86762SOL     OW62124  11.211  13.706   0.532
86762SOL    HW162125  11.143  13.639   0.535
86762SOL    HW262126  11.212  13.743   0.621
86763SOL     OW62127   3.522  11.249   0.395
86763SOL    HW162128   3.449  11.227   0.338
86763SOL    HW262129   3.491  11.230   0.483
86764SOL     OW62130  12.354   9.955   6.622
86764SOL    HW162131  12.417   9.981   6.554
86764SOL    HW262132  12.319   9.871   6.593
86765SOL     OW62133   3.732  11.322   9.899
86765SOL    HW162134   3.720  11.402   9.951
86765SOL    HW262135   3.692  11.253   9.951
86766SOL     OW62136  13.831   6.189  12.417
86766SOL    HW162137  13.840   6.112  12.473
86766SOL    HW262138  13.774   6.160  12.346
86767SOL     OW62139  12.286   2.035  12.584
86767SOL    HW162140  12.193   2.015  12.577
86767SOL    HW262141  12.294   2.127  12.560
86768SOL     OW62142   9.532   3.587   8.623
86768SOL    HW162143   9.560   3.541   8.544
86768SOL    HW262144   9.518   3.677   8.595
86769SOL     OW62145   9.750   2.944   9.946
86769SOL    HW162146   9.668   2.977   9.910
86769SOL    HW262147   9.792   3.021   9.984
86770SOL     OW62148   3.766  14.794  11.716
86770SOL    HW162149   3.719  14.724  11.671
86770SOL    HW262150   3.710  14.871  11.705
86771SOL     OW62151   7.816  13.880   5.222
86771SOL    HW162152   7.740  13.826   5.240
86771SOL    HW262153   7.814  13.948   5.289
86772SOL     OW62154   3.170   9.797   5.807
86772SOL    HW162155   3.211   9.778   5.723
86772SOL    HW262156   3.083   9.757   5.801
86773SOL     OW62157   4.614   9.504   6.242
86773SOL    HW162158   4.555   9.433   6.218
86773SOL    HW262159   4.629   9.493   6.336
86774SOL     OW62160  10.573   1.904   8.925
86774SOL    HW162161  10.518   1.839   8.967
86774SOL    HW262162  10.592   1.868   8.839
86775SOL     OW62163   4.108  14.610   0.765
86775SOL    HW162164   4.131  14.540   0.704
86775SOL    HW262165   4.064  14.675   0.710
86776SOL     OW62166  12.174   0.388  12.448
86776SOL    HW162167  12.123   0.386  12.367
86776SOL    HW262168  12.158   0.302  12.488
86777SOL     OW62169   1.388   8.408  11.393
86777SOL    HW162170   1.420   8.330  11.439
86777SOL    HW262171   1.293   8.405  11.405
86778SOL     OW62172   2.645  12.226   2.356
86778SOL    HW162173   2.686  12.235   2.442
86778SOL    HW262174   2.672  12.304   2.308
86779SOL     OW62175   5.122   0.802   4.771
86779SOL    HW162176   5.139   0.719   4.816
86779SOL    HW262177   5.183   0.801   4.697
86780SOL     OW62178   2.224   1.744   3.182
86780SOL    HW162179   2.214   1.663   3.233
86780SOL    HW262180   2.184   1.812   3.237
86781SOL     OW62181   7.020   1.188  14.678
86781SOL    HW162182   7.055   1.106  14.643
86781SOL    HW262183   6.941   1.162  14.725
86782SOL     OW62184   7.252   4.115   7.351
86782SOL    HW162185   7.297   4.037   7.319
86782SOL    HW262186   7.159   4.092   7.347
86783SOL     OW62187  12.906   5.216  13.406
86783SOL    HW162188  12.989   5.253  13.375
86783SOL    HW262189  12.929   5.166  13.484
86784SOL     OW62190  10.327   9.648   5.492
86784SOL    HW162191  10.408   9.657   5.443
86784SOL    HW262192  10.269   9.715   5.455
86785SOL     OW62193  11.905   8.776  12.981
86785SOL    HW162194  11.993   8.814  12.980
86785SOL    HW262195  11.900   8.725  12.901
86786SOL     OW62196   2.070   7.767   8.124
86786SOL    HW162197   2.052   7.857   8.097
86786SOL    HW262198   1.985   7.723   8.116
86787SOL     OW62199   7.649  12.216  13.519
86787SOL    HW162200   7.675  12.167  13.597
86787SOL    HW262201   7.566  12.177  13.493
86788SOL     OW62202  13.358   8.985  12.196
86788SOL    HW162203  13.265   8.971  12.210
86788SOL    HW262204  13.401   8.912  12.240
86789SOL     OW62205   6.522   0.132   5.525
86789SOL    HW162206   6.604   0.144   5.573
86789SOL    HW262207   6.549   0.094   5.441
86790SOL     OW62208  11.684  11.964   9.922
86790SOL    HW162209  11.749  11.914   9.971
86790SOL    HW262210  11.731  12.042   9.892
86791SOL     OW62211  13.808   1.656   5.968
86791SOL    HW162212  13.815   1.686   6.059
86791SOL    HW262213  13.833   1.732   5.916
86792SOL     OW62214  12.786   7.714   7.926
86792SOL    HW162215  12.811   7.730   8.017
86792SOL    HW262216  12.767   7.621   7.922
86793SOL     OW62217   2.609   6.088  11.701
86793SOL    HW162218   2.601   6.128  11.615
86793SOL    HW262219   2.682   6.132  11.743
86794SOL     OW62220   8.922  13.726   2.520
86794SOL    HW162221   8.919  13.740   2.614
86794SOL    HW262222   8.877  13.802   2.483
86795SOL     OW62223   8.077   0.080   4.671
86795SOL    HW162224   7.999   0.023   4.665
86795SOL    HW262225   8.099   0.080   4.764
86796SOL     OW62226  10.197   2.325   2.355
86796SOL    HW162227  10.241   2.335   2.439
86796SOL    HW262228  10.154   2.239   2.360
86797SOL     OW62229   4.475   5.635  10.298
86797SOL    HW162230   4.392   5.613  10.340
86797SOL    HW262231   4.452   5.658  10.208
86798SOL     OW62232   6.023   2.996  10.459
86798SOL    HW162233   6.015   3.067  10.395
86798SOL    HW262234   5.936   2.957  10.463
86799SOL     OW62235   9.688   5.265   3.688
86799SOL    HW162236   9.609   5.285   3.638
86799SOL    HW262237   9.657   5.217   3.764
86800SOL     OW62238   2.187  11.273   6.597
86800SOL    HW162239   2.270  11.321   6.593
86800SOL    HW262240   2.193  11.221   6.677
86801SOL     OW62241   1.543   8.493   8.937
86801SOL    HW162242   1.623   8.507   8.887
86801SOL    HW262243   1.489   8.439   8.879
86802SOL     OW62244   9.541   1.417   1.283
86802SOL    HW162245   9.636   1.406   1.278
86802SOL    HW262246   9.518   1.456   1.198
86803SOL     OW62247   0.594   8.834   1.809
86803SOL    HW162248   0.555   8.823   1.722
86803SOL    HW262249   0.591   8.746   1.847
86804SOL     OW62250  11.263  11.963   0.468
86804SOL    HW162251  11.288  11.980   0.559
86804SOL    HW262252  11.298  11.875   0.450
86805SOL     OW62253   8.794   4.117  10.128
86805SOL    HW162254   8.884   4.135  10.155
86805SOL    HW262255   8.741   4.179  10.180
86806SOL     OW62256   5.798  14.282  11.247
86806SOL    HW162257   5.705  14.292  11.225
86806SOL    HW262258   5.799  14.271  11.342
86807SOL     OW62259   8.381  14.871   1.861
86807SOL    HW162260   8.345  14.833   1.781
86807SOL    HW262261   8.473  14.843   1.862
86808SOL     OW62262  11.880   2.662   2.027
86808SOL    HW162263  11.857   2.753   2.048
86808SOL    HW262264  11.866   2.614   2.109
86809SOL     OW62265  12.222   1.331  12.713
86809SOL    HW162266  12.190   1.242  12.728
86809SOL    HW262267  12.275   1.351  12.790
86810SOL     OW62268   9.096  12.225   2.144
86810SOL    HW162269   9.052  12.256   2.065
86810SOL    HW262270   9.077  12.131   2.147
86811SOL     OW62271  14.299   3.655   1.784
86811SOL    HW162272  14.393   3.648   1.768
86811SOL    HW262273  14.291   3.712   1.860
86812SOL     OW62274   2.135   6.145   4.745
86812SOL    HW162275   2.229   6.145   4.764
86812SOL    HW262276   2.125   6.082   4.674
86813SOL     OW62277   4.585   0.078   7.194
86813SOL    HW162278   4.676   0.057   7.173
86813SOL    HW262279   4.574   0.169   7.166
86814SOL     OW62280  12.022   4.938   9.878
86814SOL    HW162281  12.052   4.887   9.803
86814SOL    HW262282  12.067   4.898   9.953
86815SOL     OW62283   3.266   8.083   8.957
86815SOL    HW162284   3.279   8.042   9.042
86815SOL    HW262285   3.242   8.011   8.899
86816SOL     OW62286  10.932   3.217   4.338
86816SOL    HW162287  10.904   3.217   4.246
86816SOL    HW262288  10.850   3.220   4.387
86817SOL     OW62289   7.979  11.726  12.914
86817SOL    HW162290   8.008  11.635  12.921
86817SOL    HW262291   8.035  11.774  12.975
86818SOL     OW62292   8.683   9.623   7.498
86818SOL    HW162293   8.683   9.643   7.405
86818SOL    HW262294   8.681   9.709   7.541
86819SOL     OW62295   0.214   3.741  10.369
86819SOL    HW162296   0.175   3.781  10.447
86819SOL    HW262297   0.300   3.782  10.362
86820SOL     OW62298   5.943  14.233   5.898
86820SOL    HW162299   6.026  14.247   5.853
86820SOL    HW262300   5.905  14.321   5.905
86821SOL     OW62301  11.424   2.695   3.987
86821SOL    HW162302  11.380   2.712   4.070
86821SOL    HW262303  11.515   2.722   4.003
86822SOL     OW62304   5.910   8.848   6.236
86822SOL    HW162305   5.947   8.930   6.269
86822SOL    HW262306   5.825   8.873   6.200
86823SOL     OW62307  12.096   1.081   0.036
86823SOL    HW162308  12.066   1.013  14.856
86823SOL    HW262309  12.016   1.118   0.074
86824SOL     OW62310   5.596   9.630   5.412
86824SOL    HW162311   5.633   9.544   5.434
86824SOL    HW262312   5.606   9.637   5.317
86825SOL     OW62313  11.190   9.485   3.402
86825SOL    HW162314  11.101   9.494   3.368
86825SOL    HW262315  11.178   9.467   3.495
86826SOL     OW62316   7.435  11.739   3.412
86826SOL    HW162317   7.502  11.715   3.476
86826SOL    HW262318   7.364  11.775   3.465
86827SOL     OW62319   5.994   1.010   1.665
86827SOL    HW162320   5.997   0.917   1.688
86827SOL    HW262321   5.991   1.055   1.750
86828SOL     OW62322  12.770   4.784   3.291
86828SOL    HW162323  12.771   4.810   3.198
86828SOL    HW262324  12.749   4.691   3.289
86829SOL     OW62325   7.485  12.432   9.718
86829SOL    HW162326   7.449  12.384   9.643
86829SOL    HW262327   7.433  12.401   9.793
86830SOL     OW62328   9.809   1.700   9.362
86830SOL    HW162329   9.777   1.766   9.301
86830SOL    HW262330   9.800   1.617   9.314
86831SOL     OW62331  13.194   9.330   5.872
86831SOL    HW162332  13.164   9.243   5.899
86831SOL    HW262333  13.124   9.389   5.899
86832SOL     OW62334  11.727  13.706   0.929
86832SOL    HW162335  11.766  13.753   1.003
86832SOL    HW262336  11.795  13.705   0.863
86833SOL     OW62337   8.529   6.248  10.028
86833SOL    HW162338   8.510   6.308   9.955
86833SOL    HW262339   8.483   6.286  10.103
86834SOL     OW62340   0.886   7.523   9.844
86834SOL    HW162341   0.933   7.569   9.913
86834SOL    HW262342   0.844   7.449   9.889
86835SOL     OW62343  13.736   8.379   3.494
86835SOL    HW162344  13.772   8.452   3.544
86835SOL    HW262345  13.782   8.302   3.527
86836SOL     OW62346   3.965   1.397   8.789
86836SOL    HW162347   3.902   1.357   8.730
86836SOL    HW262348   4.049   1.391   8.743
86837SOL     OW62349   6.008   4.078   0.410
86837SOL    HW162350   5.966   4.164   0.404
86837SOL    HW262351   5.969   4.038   0.487
86838SOL     OW62352   4.688   5.407   4.287
86838SOL    HW162353   4.608   5.356   4.276
86838SOL    HW262354   4.744   5.379   4.215
86839SOL     OW62355  13.726   8.259   9.326
86839SOL    HW162356  13.744   8.328   9.390
86839SOL    HW262357  13.672   8.302   9.260
86840SOL     OW62358   7.966  11.060   6.267
86840SOL    HW162359   7.940  10.978   6.309
86840SOL    HW262360   7.884  11.104   6.249
86841SOL     OW62361   3.908   2.877   5.079
86841SOL    HW162362   3.936   2.922   5.159
86841SOL    HW262363   3.907   2.946   5.012
86842SOL     OW62364   6.670  12.943  14.567
86842SOL    HW162365   6.622  13.025  14.579
86842SOL    HW262366   6.608  12.885  14.523
86843SOL     OW62367   5.737   7.640   9.498
86843SOL    HW162368   5.740   7.561   9.444
86843SOL    HW262369   5.654   7.682   9.474
86844SOL     OW62370  10.538   9.710   2.888
86844SOL    HW162371  10.492   9.748   2.813
86844SOL    HW262372  10.630   9.710   2.862
86845SOL     OW62373   5.803   6.927   0.080
86845SOL    HW162374   5.887   6.945   0.038
86845SOL    HW262375   5.825   6.913   0.172
86846SOL     OW62376   0.355   6.248   2.620
86846SOL    HW162377   0.282   6.272   2.562
86846SOL    HW262378   0.395   6.172   2.578
86847SOL     OW62379  13.697   7.701   8.080
86847SOL    HW162380  13.693   7.721   7.987
86847SOL    HW262381  13.738   7.615   8.084
86848SOL     OW62382  10.592   7.584  12.633
86848SOL    HW162383  10.556   7.665  12.670
86848SOL    HW262384  10.674   7.571  12.680
86849SOL     OW62385   8.932  10.837   7.331
86849SOL    HW162386   8.975  10.843   7.416
86849SOL    HW262387   8.845  10.803   7.350
86850SOL     OW62388   0.133   7.884  14.087
86850SOL    HW162389   0.088   7.919  14.163
86850SOL    HW262390   0.113   7.946  14.016
86851SOL     OW62391   6.416  11.274   1.373
86851SOL    HW162392   6.358  11.207   1.408
86851SOL    HW262393   6.482  11.225   1.324
86852SOL     OW62394  10.806  13.984   7.772
86852SOL    HW162395  10.774  14.074   7.772
86852SOL    HW262396  10.900  13.992   7.758
86853SOL     OW62397   7.595   1.429  11.891
86853SOL    HW162398   7.510   1.422  11.935
86853SOL    HW262399   7.591   1.365  11.820
86854SOL     OW62400  11.224   9.457  11.529
86854SOL    HW162401  11.197   9.445  11.621
86854SOL    HW262402  11.219   9.369  11.491
86855SOL     OW62403  11.425  14.356   4.754
86855SOL    HW162404  11.478  14.370   4.833
86855SOL    HW262405  11.479  14.389   4.682
86856SOL     OW62406   7.457  11.410  13.307
86856SOL    HW162407   7.425  11.333  13.260
86856SOL    HW262408   7.540  11.431  13.265
86857SOL     OW62409   4.942   0.166   9.977
86857SOL    HW162410   4.908   0.254   9.993
86857SOL    HW262411   4.921   0.149   9.885
86858SOL     OW62412   4.267   5.207   3.874
86858SOL    HW162413   4.232   5.228   3.961
86858SOL    HW262414   4.190   5.196   3.819
86859SOL     OW62415   2.307   3.199   3.818
86859SOL    HW162416   2.257   3.161   3.891
86859SOL    HW262417   2.240   3.227   3.756
86860SOL     OW62418   3.173   3.762   0.232
86860SOL    HW162419   3.092   3.734   0.190
86860SOL    HW262420   3.228   3.793   0.160
86861SOL     OW62421  11.649   2.227   0.567
86861SOL    HW162422  11.666   2.216   0.660
86861SOL    HW262423  11.595   2.306   0.561
86862SOL     OW62424   5.232  12.196   7.415
86862SOL    HW162425   5.261  12.128   7.476
86862SOL    HW262426   5.149  12.227   7.452
86863SOL     OW62427  12.357   2.801   3.776
86863SOL    HW162428  12.423   2.732   3.767
86863SOL    HW262429  12.304   2.774   3.851
86864SOL     OW62430  11.966   7.620   8.372
86864SOL    HW162431  11.970   7.591   8.281
86864SOL    HW262432  12.006   7.707   8.371
86865SOL     OW62433   3.880   9.633   8.788
86865SOL    HW162434   3.802   9.642   8.734
86865SOL    HW262435   3.952   9.663   8.732
86866SOL     OW62436  14.145   5.844  13.511
86866SOL    HW162437  14.122   5.801  13.593
86866SOL    HW262438  14.067   5.836  13.456
86867SOL     OW62439   8.121   3.667  11.348
86867SOL    HW162440   8.069   3.624  11.416
86867SOL    HW262441   8.108   3.761  11.364
86868SOL     OW62442  14.764   8.315   0.204
86868SOL    HW162443  14.840   8.340   0.256
86868SOL    HW262444  14.689   8.339   0.258
86869SOL     OW62445  11.217  10.790   8.277
86869SOL    HW162446  11.165  10.866   8.302
86869SOL    HW262447  11.162  10.740   8.217
86870SOL     OW62448  14.563   9.785  11.467
86870SOL    HW162449  14.621   9.734  11.523
86870SOL    HW262450  14.562   9.872  11.507
86871SOL     OW62451   1.455   5.650   5.678
86871SOL    HW162452   1.501   5.721   5.635
86871SOL    HW262453   1.398   5.613   5.610
86872SOL     OW62454  10.592   3.792   5.575
86872SOL    HW162455  10.665   3.832   5.527
86872SOL    HW262456  10.528   3.862   5.586
86873SOL     OW62457  11.615  11.514   5.915
86873SOL    HW162458  11.616  11.546   6.005
86873SOL    HW262459  11.705  11.525   5.885
86874SOL     OW62460   6.672  11.607   9.686
86874SOL    HW162461   6.684  11.532   9.744
86874SOL    HW262462   6.584  11.597   9.652
86875SOL     OW62463   2.985   3.857   2.871
86875SOL    HW162464   3.045   3.857   2.945
86875SOL    HW262465   3.041   3.855   2.793
86876SOL     OW62466   1.208   5.757   3.274
86876SOL    HW162467   1.282   5.766   3.334
86876SOL    HW262468   1.173   5.669   3.292
86877SOL     OW62469   6.954   1.728   9.455
86877SOL    HW162470   7.011   1.671   9.404
86877SOL    HW262471   6.944   1.683   9.540
86878SOL     OW62472   5.738   7.189   6.774
86878SOL    HW162473   5.727   7.141   6.691
86878SOL    HW262474   5.808   7.252   6.756
86879SOL     OW62475   7.550   0.883  14.572
86879SOL    HW162476   7.487   0.919  14.635
86879SOL    HW262477   7.519   0.913  14.487
86880SOL     OW62478  12.894  14.265  13.816
86880SOL    HW162479  12.854  14.349  13.841
86880SOL    HW262480  12.970  14.258  13.874
86881SOL     OW62481   2.454   2.907  11.898
86881SOL    HW162482   2.449   2.980  11.836
86881SOL    HW262483   2.535   2.922  11.946
86882SOL     OW62484   1.156   9.515  13.476
86882SOL    HW162485   1.195   9.601  13.465
86882SOL    HW262486   1.224   9.463  13.518
86883SOL     OW62487  10.116   1.661  10.359
86883SOL    HW162488  10.094   1.572  10.387
86883SOL    HW262489  10.060   1.717  10.413
86884SOL     OW62490   7.111  10.438  13.156
86884SOL    HW162491   7.155  10.445  13.071
86884SOL    HW262492   7.028  10.394  13.136
86885SOL     OW62493  10.961   1.999   5.700
86885SOL    HW162494  10.949   1.922   5.645
86885SOL    HW262495  11.054   2.022   5.690
86886SOL     OW62496   8.665   0.701   5.616
86886SOL    HW162497   8.708   0.714   5.700
86886SOL    HW262498   8.736   0.706   5.552
86887SOL     OW62499   3.617   1.257   6.613
86887SOL    HW162500   3.692   1.210   6.578
86887SOL    HW262501   3.593   1.320   6.545
86888SOL     OW62502   6.528   4.432   4.567
86888SOL    HW162503   6.454   4.465   4.515
86888SOL    HW262504   6.494   4.427   4.656
86889SOL     OW62505  14.832   6.446  13.792
86889SOL    HW162506  14.842   6.538  13.765
86889SOL    HW262507  14.846   6.397  13.711
86890SOL     OW62508  10.683   6.918   4.440
86890SOL    HW162509  10.617   6.889   4.503
86890SOL    HW262510  10.651   6.884   4.356
86891SOL     OW62511   6.489  13.756   6.735
86891SOL    HW162512   6.574  13.799   6.732
86891SOL    HW262513   6.501  13.676   6.684
86892SOL     OW62514   3.626   5.496   1.719
86892SOL    HW162515   3.656   5.493   1.810
86892SOL    HW262516   3.585   5.583   1.711
86893SOL     OW62517   0.649   1.204   5.693
86893SOL    HW162518   0.642   1.121   5.742
86893SOL    HW262519   0.676   1.268   5.759
86894SOL     OW62520   2.652   7.567   4.504
86894SOL    HW162521   2.686   7.603   4.586
86894SOL    HW262522   2.715   7.596   4.437
86895SOL     OW62523   6.076  12.239   8.549
86895SOL    HW162524   6.030  12.169   8.503
86895SOL    HW262525   6.124  12.195   8.618
86896SOL     OW62526   8.721   4.921   5.271
86896SOL    HW162527   8.659   4.927   5.344
86896SOL    HW262528   8.800   4.884   5.310
86897SOL     OW62529  11.429  13.146  10.043
86897SOL    HW162530  11.433  13.238  10.068
86897SOL    HW262531  11.520  13.124  10.020
86898SOL     OW62532  11.452   1.962   2.587
86898SOL    HW162533  11.495   1.905   2.651
86898SOL    HW262534  11.525   2.005   2.541
86899SOL     OW62535  13.042   8.798   3.541
86899SOL    HW162536  13.023   8.713   3.581
86899SOL    HW262537  12.966   8.852   3.561
86900SOL     OW62538   7.268  13.562  12.756
86900SOL    HW162539   7.362  13.547  12.742
86900SOL    HW262540   7.232  13.567  12.667
86901SOL     OW62541   9.549   9.411   8.090
86901SOL    HW162542   9.515   9.372   8.010
86901SOL    HW262543   9.610   9.346   8.125
86902SOL     OW62544  13.459   8.440  12.850
86902SOL    HW162545  13.521   8.513  12.855
86902SOL    HW262546  13.429   8.441  12.758
86903SOL     OW62547  10.921   4.118   1.285
86903SOL    HW162548  10.953   4.034   1.316
86903SOL    HW262549  10.996   4.177   1.294
86904SOL     OW62550  11.848  13.400   2.542
86904SOL    HW162551  11.802  13.480   2.518
86904SOL    HW262552  11.784  13.350   2.593
86905SOL     OW62553   7.497   9.958  13.640
86905SOL    HW162554   7.495   9.927  13.550
86905SOL    HW262555   7.419   9.919  13.680
86906SOL     OW62556  13.046   3.116  12.583
86906SOL    HW162557  13.036   3.195  12.531
86906SOL    HW262558  13.012   3.140  12.670
86907SOL     OW62559   2.136  10.991   3.319
86907SOL    HW162560   2.216  10.986   3.372
86907SOL    HW262561   2.160  10.950   3.236
86908SOL     OW62562   4.155  11.628  10.720
86908SOL    HW162563   4.077  11.573  10.731
86908SOL    HW262564   4.129  11.714  10.751
86909SOL     OW62565   9.479  10.807  12.618
86909SOL    HW162566   9.418  10.744  12.580
86909SOL    HW262567   9.501  10.866  12.546
86910SOL     OW62568   2.507   8.215  11.913
86910SOL    HW162569   2.514   8.124  11.883
86910SOL    HW262570   2.547   8.214  12.000
86911SOL     OW62571  12.831   5.600   8.106
86911SOL    HW162572  12.877   5.520   8.133
86911SOL    HW262573  12.861   5.667   8.168
86912SOL     OW62574  11.316   5.256   3.724
86912SOL    HW162575  11.251   5.222   3.786
86912SOL    HW262576  11.265   5.310   3.663
86913SOL     OW62577   1.435   3.840   9.882
86913SOL    HW162578   1.452   3.933   9.870
86913SOL    HW262579   1.350   3.836   9.925
86914SOL     OW62580   1.817  10.215   0.287
86914SOL    HW162581   1.742  10.258   0.327
86914SOL    HW262582   1.885  10.215   0.355
86915SOL     OW62583   4.893   5.854   7.230
86915SOL    HW162584   4.837   5.920   7.271
86915SOL    HW262585   4.976   5.861   7.276
86916SOL     OW62586   9.624   4.653   9.452
86916SOL    HW162587   9.613   4.601   9.372
86916SOL    HW262588   9.712   4.630   9.483
86917SOL     OW62589  14.031   2.303  10.733
86917SOL    HW162590  14.040   2.354  10.813
86917SOL    HW262591  13.978   2.358  10.675
86918SOL     OW62592   4.864   7.739   0.980
86918SOL    HW162593   4.904   7.668   0.930
86918SOL    HW262594   4.783   7.701   1.015
86919SOL     OW62595   8.509   9.222  11.933
86919SOL    HW162596   8.570   9.295  11.948
86919SOL    HW262597   8.557   9.145  11.963
86920SOL     OW62598   7.572   0.835  13.801
86920SOL    HW162599   7.488   0.849  13.758
86920SOL    HW262600   7.583   0.740  13.803
86921SOL     OW62601   4.504   0.394  13.379
86921SOL    HW162602   4.596   0.368  13.385
86921SOL    HW262603   4.478   0.372  13.289
86922SOL     OW62604   5.786   4.009   7.213
86922SOL    HW162605   5.812   3.921   7.239
86922SOL    HW262606   5.729   4.039   7.284
86923SOL     OW62607  13.908   9.945   9.577
86923SOL    HW162608  13.915   9.970   9.669
86923SOL    HW262609  13.831   9.889   9.574
86924SOL     OW62610   1.109   1.624   5.244
86924SOL    HW162611   1.202   1.601   5.241
86924SOL    HW262612   1.105   1.714   5.211
86925SOL     OW62613   0.750   1.407   0.901
86925SOL    HW162614   0.740   1.386   0.994
86925SOL    HW262615   0.842   1.388   0.881
86926SOL     OW62616   0.313   5.940  13.667
86926SOL    HW162617   0.381   6.005  13.647
86926SOL    HW262618   0.233   5.992  13.673
86927SOL     OW62619   1.149   7.884   0.204
86927SOL    HW162620   1.062   7.903   0.169
86927SOL    HW262621   1.196   7.967   0.200
86928SOL     OW62622   9.094  14.384   7.280
86928SOL    HW162623   9.053  14.299   7.292
86928SOL    HW262624   9.131  14.405   7.366
86929SOL     OW62625   4.019   5.190  11.193
86929SOL    HW162626   4.074   5.129  11.243
86929SOL    HW262627   3.937   5.192  11.242
86930SOL     OW62628   5.183   6.217   8.963
86930SOL    HW162629   5.269   6.246   8.930
86930SOL    HW262630   5.204   6.155   9.033
86931SOL     OW62631   5.451   9.706   8.330
86931SOL    HW162632   5.514   9.775   8.352
86931SOL    HW262633   5.488   9.627   8.369
86932SOL     OW62634   2.800   4.080   9.993
86932SOL    HW162635   2.707   4.080   9.969
86932SOL    HW262636   2.842   4.129   9.922
86933SOL     OW62637   1.989   1.130   2.854
86933SOL    HW162638   2.021   1.040   2.860
86933SOL    HW262639   1.917   1.125   2.791
86934SOL     OW62640  10.467   3.570   7.765
86934SOL    HW162641  10.532   3.633   7.798
86934SOL    HW262642  10.398   3.570   7.832
86935SOL     OW62643   0.217   1.619   3.622
86935SOL    HW162644   0.302   1.578   3.605
86935SOL    HW262645   0.164   1.597   3.546
86936SOL     OW62646  13.657  13.124   3.951
86936SOL    HW162647  13.608  13.065   3.894
86936SOL    HW262648  13.743  13.083   3.960
86937SOL     OW62649   4.674  11.216  11.089
86937SOL    HW162650   4.675  11.134  11.040
86937SOL    HW262651   4.683  11.284  11.022
86938SOL     OW62652   1.813   7.743  12.713
86938SOL    HW162653   1.868   7.722  12.788
86938SOL    HW262654   1.799   7.659  12.669
86939SOL     OW62655  14.308   3.548  13.779
86939SOL    HW162656  14.382   3.507  13.823
86939SOL    HW262657  14.275   3.479  13.720
86940SOL     OW62658  13.433   7.904  10.762
86940SOL    HW162659  13.353   7.954  10.779
86940SOL    HW262660  13.426   7.828  10.820
86941SOL     OW62661   0.545   0.964   5.823
86941SOL    HW162662   0.479   0.944   5.890
86941SOL    HW262663   0.540   0.890   5.762
86942SOL     OW62664   9.571   2.087  13.131
86942SOL    HW162665   9.641   2.023  13.120
86942SOL    HW262666   9.616   2.168  13.156
86943SOL     OW62667   2.943   9.065  12.937
86943SOL    HW162668   3.030   9.046  12.901
86943SOL    HW262669   2.956   9.145  12.988
86944SOL     OW62670   3.469  13.932   3.056
86944SOL    HW162671   3.545  13.922   3.113
86944SOL    HW262672   3.402  13.971   3.113
86945SOL     OW62673  10.693  10.796   3.924
86945SOL    HW162674  10.757  10.862   3.895
86945SOL    HW262675  10.609  10.841   3.918
86946SOL     OW62676   9.721   7.348   7.494
86946SOL    HW162677   9.635   7.354   7.534
86946SOL    HW262678   9.740   7.254   7.491
86947SOL     OW62679  11.857  11.845   5.325
86947SOL    HW162680  11.806  11.910   5.278
86947SOL    HW262681  11.946  11.879   5.324
86948SOL     OW62682   6.447   6.635  13.747
86948SOL    HW162683   6.531   6.650  13.704
86948SOL    HW262684   6.423   6.719  13.785
86949SOL     OW62685  14.017  12.137   9.724
86949SOL    HW162686  14.109  12.111   9.721
86949SOL    HW262687  13.982  12.092   9.801
86950SOL     OW62688  11.188   8.280   4.558
86950SOL    HW162689  11.107   8.230   4.566
86950SOL    HW262690  11.253   8.215   4.529
86951SOL     OW62691   5.566   6.367   1.738
86951SOL    HW162692   5.486   6.380   1.790
86951SOL    HW262693   5.547   6.407   1.653
86952SOL     OW62694  11.574   7.053   2.376
86952SOL    HW162695  11.492   7.021   2.340
86952SOL    HW262696  11.567   7.148   2.373
86953SOL     OW62697   8.393   3.341   2.360
86953SOL    HW162698   8.321   3.342   2.297
86953SOL    HW262699   8.362   3.285   2.431
86954SOL     OW62700   4.137   2.211  14.567
86954SOL    HW162701   4.080   2.163  14.507
86954SOL    HW262702   4.163   2.289  14.517
86955SOL     OW62703   5.735   8.396   1.734
86955SOL    HW162704   5.709   8.323   1.678
86955SOL    HW262705   5.823   8.419   1.703
86956SOL     OW62706   6.847  13.099   5.325
86956SOL    HW162707   6.883  13.011   5.315
86956SOL    HW262708   6.909  13.144   5.382
86957SOL     OW62709   6.881   2.855   9.594
86957SOL    HW162710   6.800   2.813   9.621
86957SOL    HW262711   6.853   2.938   9.555
86958SOL     OW62712   3.877   2.615   9.387
86958SOL    HW162713   3.843   2.677   9.322
86958SOL    HW262714   3.970   2.609   9.369
86959SOL     OW62715   9.948   2.137   7.064
86959SOL    HW162716   9.978   2.048   7.082
86959SOL    HW262717   9.931   2.138   6.969
86960SOL     OW62718  14.876   5.351   5.956
86960SOL    HW162719  14.796   5.333   5.907
86960SOL    HW262720   0.048   5.407   5.898
86961SOL     OW62721  13.072  10.554  10.902
86961SOL    HW162722  13.083  10.587  10.813
86961SOL    HW262723  13.069  10.459  10.893
86962SOL     OW62724   8.279  10.959  11.926
86962SOL    HW162725   8.321  11.045  11.919
86962SOL    HW262726   8.267  10.931  11.835
86963SOL     OW62727  11.807   5.622  13.621
86963SOL    HW162728  11.721   5.587  13.644
86963SOL    HW262729  11.863   5.545  13.616
86964SOL     OW62730  13.901   8.878  11.711
86964SOL    HW162731  13.863   8.925  11.786
86964SOL    HW262732  13.829   8.824  11.678
86965SOL     OW62733  12.930   9.431   1.143
86965SOL    HW162734  12.865   9.360   1.144
86965SOL    HW262735  12.999   9.401   1.203
86966SOL     OW62736  13.348  10.987   9.607
86966SOL    HW162737  13.272  11.019   9.558
86966SOL    HW262738  13.396  10.933   9.544
86967SOL     OW62739   0.230   7.280  14.327
86967SOL    HW162740   0.142   7.316  14.334
86967SOL    HW262741   0.226   7.197  14.375
86968SOL     OW62742  14.037  11.551   7.845
86968SOL    HW162743  14.066  11.623   7.902
86968SOL    HW262744  13.982  11.497   7.902
86969SOL     OW62745   6.393  10.790   6.706
86969SOL    HW162746   6.347  10.801   6.789
86969SOL    HW262747   6.466  10.733   6.726
86970SOL     OW62748   2.252  13.545  14.250
86970SOL    HW162749   2.278  13.634  14.224
86970SOL    HW262750   2.164  13.554  14.284
86971SOL     OW62751  10.438   6.186   5.941
86971SOL    HW162752  10.418   6.230   5.858
86971SOL    HW262753  10.418   6.093   5.924
86972SOL     OW62754   7.573  10.688   0.062
86972SOL    HW162755   7.529  10.634   0.129
86972SOL    HW262756   7.501  10.729   0.014
86973SOL     OW62757  12.850   1.261   1.537
86973SOL    HW162758  12.924   1.305   1.496
86973SOL    HW262759  12.889   1.203   1.603
86974SOL     OW62760   7.805   9.905  11.359
86974SOL    HW162761   7.825   9.815  11.336
86974SOL    HW262762   7.854   9.958  11.296
86975SOL     OW62763   1.190  12.674   1.503
86975SOL    HW162764   1.128  12.665   1.575
86975SOL    HW262765   1.264  12.721   1.541
86976SOL     OW62766   1.857   3.405  10.570
86976SOL    HW162767   1.921   3.454  10.517
86976SOL    HW262768   1.792   3.375  10.507
86977SOL     OW62769  14.284   7.039   8.803
86977SOL    HW162770  14.314   6.994   8.882
86977SOL    HW262771  14.202   6.995   8.779
86978SOL     OW62772   6.872  12.113   0.706
86978SOL    HW162773   6.777  12.101   0.707
86978SOL    HW262774   6.907  12.042   0.759
86979SOL     OW62775   3.351  12.158   5.904
86979SOL    HW162776   3.390  12.190   5.823
86979SOL    HW262777   3.368  12.227   5.968
86980SOL     OW62778   6.970   5.836   3.985
86980SOL    HW162779   6.905   5.804   3.922
86980SOL    HW262780   7.041   5.771   3.982
86981SOL     OW62781  10.279   5.365   8.272
86981SOL    HW162782  10.357   5.309   8.276
86981SOL    HW262783  10.206   5.303   8.258
86982SOL     OW62784  13.961  12.281   2.009
86982SOL    HW162785  13.960  12.359   2.064
86982SOL    HW262786  13.873  12.243   2.019
86983SOL     OW62787  10.211  12.730   8.247
86983SOL    HW162788  10.152  12.655   8.255
86983SOL    HW262789  10.188  12.787   8.320
86984SOL     OW62790  14.602   1.556  11.693
86984SOL    HW162791  14.655   1.600  11.627
86984SOL    HW262792  14.598   1.465  11.664
86985SOL     OW62793   7.074  10.349   0.811
86985SOL    HW162794   7.146  10.374   0.754
86985SOL    HW262795   7.115  10.302   0.883
86986SOL     OW62796  12.688   6.187  11.129
86986SOL    HW162797  12.688   6.129  11.205
86986SOL    HW262798  12.687   6.275  11.167
86987SOL     OW62799   2.447  10.191  14.369
86987SOL    HW162800   2.429  10.107  14.326
86987SOL    HW262801   2.417  10.257  14.306
86988SOL     OW62802   8.133  13.726   6.119
86988SOL    HW162803   8.080  13.647   6.133
86988SOL    HW262804   8.133  13.769   6.205
86989SOL     OW62805   8.614   0.219   0.147
86989SOL    HW162806   8.592   0.140   0.196
86989SOL    HW262807   8.616   0.191   0.055
86990SOL     OW62808  13.913  14.415  11.121
86990SOL    HW162809  13.996  14.368  11.130
86990SOL    HW262810  13.856  14.377  11.187
86991SOL     OW62811   4.385   0.946  14.500
86991SOL    HW162812   4.419   0.975  14.585
86991SOL    HW262813   4.457   0.961  14.439
86992SOL     OW62814   3.053  10.129  12.382
86992SOL    HW162815   2.961  10.101  12.377
86992SOL    HW262816   3.063  10.189  12.308
86993SOL     OW62817   3.605   7.840   2.505
86993SOL    HW162818   3.510   7.839   2.495
86993SOL    HW262819   3.638   7.794   2.428
86994SOL     OW62820   8.553  14.423   3.289
86994SOL    HW162821   8.536  14.461   3.202
86994SOL    HW262822   8.636  14.462   3.316
86995SOL     OW62823   2.015   2.142   2.494
86995SOL    HW162824   1.998   2.098   2.578
86995SOL    HW262825   2.100   2.108   2.466
86996SOL     OW62826   4.816   7.038  13.623
86996SOL    HW162827   4.766   6.973  13.573
86996SOL    HW262828   4.883   6.987  13.669
86997SOL     OW62829   1.566   9.315  10.519
86997SOL    HW162830   1.642   9.364  10.487
86997SOL    HW262831   1.491   9.356  10.477
86998SOL     OW62832   3.699   3.447   7.887
86998SOL    HW162833   3.742   3.371   7.847
86998SOL    HW262834   3.749   3.522   7.855
86999SOL     OW62835   9.921   3.622   3.137
86999SOL    HW162836   9.912   3.528   3.150
86999SOL    HW262837   9.835   3.651   3.106
87000SOL     OW62838   2.107   4.601   0.373
87000SOL    HW162839   2.033   4.564   0.422
87000SOL    HW262840   2.067   4.659   0.308
87001SOL     OW62841   1.847   0.704  10.451
87001SOL    HW162842   1.874   0.792  10.427
87001SOL    HW262843   1.885   0.689  10.538
87002SOL     OW62844   4.799  11.983  12.640
87002SOL    HW162845   4.862  11.960  12.708
87002SOL    HW262846   4.718  11.938  12.665
87003SOL     OW62847  11.905  14.607   1.027
87003SOL    HW162848  11.861  14.542   0.972
87003SOL    HW262849  11.837  14.637   1.087
87004SOL     OW62850   4.857   7.442   0.379
87004SOL    HW162851   4.826   7.512   0.322
87004SOL    HW262852   4.785   7.379   0.382
87005SOL     OW62853   7.437   1.505   6.016
87005SOL    HW162854   7.503   1.468   6.075
87005SOL    HW262855   7.367   1.534   6.074
87006SOL     OW62856   9.592  12.937   9.779
87006SOL    HW162857   9.676  12.980   9.794
87006SOL    HW262858   9.535  13.007   9.747
87007SOL     OW62859  12.129   4.914  11.901
87007SOL    HW162860  12.056   4.972  11.882
87007SOL    HW262861  12.100   4.860  11.974
87008SOL     OW62862   9.806  14.065  13.208
87008SOL    HW162863   9.872  14.120  13.251
87008SOL    HW262864   9.742  14.046  13.278
87009SOL     OW62865   2.564   9.711   1.703
87009SOL    HW162866   2.640   9.655   1.720
87009SOL    HW262867   2.495   9.651   1.676
87010SOL     OW62868   7.100   5.262   6.179
87010SOL    HW162869   7.054   5.198   6.233
87010SOL    HW262870   7.058   5.346   6.198
87011SOL     OW62871   4.649  14.678  13.314
87011SOL    HW162872   4.716  14.727  13.266
87011SOL    HW262873   4.607  14.624  13.247
87012SOL     OW62874   4.806  12.702   9.748
87012SOL    HW162875   4.877  12.766   9.752
87012SOL    HW262876   4.843  12.622   9.785
87013SOL     OW62877  12.485  11.834  11.374
87013SOL    HW162878  12.563  11.884  11.398
87013SOL    HW262879  12.519  11.751  11.341
87014SOL     OW62880  10.061   4.426  11.828
87014SOL    HW162881  10.106   4.504  11.859
87014SOL    HW262882  10.131   4.366  11.802
87015SOL     OW62883   2.775   8.753   1.895
87015SOL    HW162884   2.850   8.745   1.954
87015SOL    HW262885   2.741   8.841   1.910
87016SOL     OW62886   9.036   2.364   7.236
87016SOL    HW162887   9.132   2.368   7.233
87016SOL    HW262888   9.017   2.311   7.313
87017SOL     OW62889  11.198  14.877   8.919
87017SOL    HW162890  11.157   0.024   9.002
87017SOL    HW262891  11.156  14.794   8.897
87018SOL     OW62892   4.463   5.076  14.304
87018SOL    HW162893   4.480   5.158  14.257
87018SOL    HW262894   4.451   5.011  14.234
87019SOL     OW62895   6.845   0.551   3.536
87019SOL    HW162896   6.779   0.611   3.503
87019SOL    HW262897   6.896   0.526   3.459
87020SOL     OW62898   8.603   3.539   3.961
87020SOL    HW162899   8.525   3.575   4.003
87020SOL    HW262900   8.663   3.614   3.954
87021SOL     OW62901   4.938   3.754  12.907
87021SOL    HW162902   5.002   3.744  12.837
87021SOL    HW262903   4.981   3.809  12.972
87022SOL     OW62904  11.515   2.576  14.845
87022SOL    HW162905  11.566   2.495  14.847
87022SOL    HW262906  11.520   2.604  14.753
87023SOL     OW62907   1.631   3.341   5.655
87023SOL    HW162908   1.625   3.300   5.742
87023SOL    HW262909   1.673   3.275   5.600
87024SOL     OW62910   7.946  12.781   0.380
87024SOL    HW162911   7.996  12.756   0.457
87024SOL    HW262912   7.987  12.732   0.308
87025SOL     OW62913   6.183   2.308   9.459
87025SOL    HW162914   6.174   2.399   9.429
87025SOL    HW262915   6.274   2.285   9.440
87026SOL     OW62916   9.991  13.575   5.901
87026SOL    HW162917   9.981  13.563   5.996
87026SOL    HW262918   9.907  13.546   5.865
87027SOL     OW62919  14.366  14.661   2.144
87027SOL    HW162920  14.291  14.715   2.117
87027SOL    HW262921  14.342  14.629   2.231
87028SOL     OW62922  11.227   2.066  14.403
87028SOL    HW162923  11.264   2.071  14.315
87028SOL    HW262924  11.167   2.140  14.408
87029SOL     OW62925   7.927   7.709   1.673
87029SOL    HW162926   7.953   7.621   1.648
87029SOL    HW262927   7.963   7.765   1.604
87030SOL     OW62928   7.481   9.883   0.193
87030SOL    HW162929   7.565   9.851   0.162
87030SOL    HW262930   7.473   9.970   0.153
87031SOL     OW62931   3.343  13.445  11.324
87031SOL    HW162932   3.432  13.464  11.294
87031SOL    HW262933   3.287  13.470  11.251
87032SOL     OW62934  11.091   9.754   5.409
87032SOL    HW162935  11.087   9.846   5.435
87032SOL    HW262936  11.001   9.722   5.421
87033SOL     OW62937   2.723   5.083  13.767
87033SOL    HW162938   2.713   5.174  13.742
87033SOL    HW262939   2.688   5.078  13.856
87034SOL     OW62940  13.537   0.491  12.054
87034SOL    HW162941  13.534   0.512  12.148
87034SOL    HW262942  13.494   0.566  12.012
87035SOL     OW62943   8.456  14.739   1.481
87035SOL    HW162944   8.475  14.646   1.470
87035SOL    HW262945   8.361  14.743   1.492
87036SOL     OW62946  13.402   9.137   0.195
87036SOL    HW162947  13.406   9.044   0.217
87036SOL    HW262948  13.309   9.156   0.188
87037SOL     OW62949   2.012   3.033   2.755
87037SOL    HW162950   1.935   3.010   2.702
87037SOL    HW262951   2.084   3.038   2.693
87038SOL     OW62952   6.830   2.006  14.198
87038SOL    HW162953   6.755   2.036  14.248
87038SOL    HW262954   6.845   1.916  14.228
87039SOL     OW62955   5.703   3.720   9.838
87039SOL    HW162956   5.766   3.663   9.794
87039SOL    HW262957   5.755   3.795   9.867
87040SOL     OW62958   1.586   0.335   6.572
87040SOL    HW162959   1.514   0.371   6.623
87040SOL    HW262960   1.547   0.316   6.486
87041SOL     OW62961   6.517   1.685   0.113
87041SOL    HW162962   6.568   1.692   0.032
87041SOL    HW262963   6.457   1.613   0.097
87042SOL     OW62964   3.804  12.720  10.536
87042SOL    HW162965   3.814  12.811  10.510
87042SOL    HW262966   3.709  12.707  10.543
87043SOL     OW62967   3.450   6.360   1.042
87043SOL    HW162968   3.424   6.450   1.058
87043SOL    HW262969   3.390   6.308   1.095
87044SOL     OW62970   5.185   9.244   2.889
87044SOL    HW162971   5.273   9.262   2.853
87044SOL    HW262972   5.139   9.200   2.818
87045SOL     OW62973  10.962   3.382   7.099
87045SOL    HW162974  10.901   3.414   7.166
87045SOL    HW262975  11.005   3.461   7.067
87046SOL     OW62976   0.117   1.205   9.948
87046SOL    HW162977   0.188   1.229  10.008
87046SOL    HW262978   0.040   1.251   9.982
87047SOL     OW62979  13.297  11.044  13.198
87047SOL    HW162980  13.308  10.957  13.161
87047SOL    HW262981  13.383  11.085  13.188
87048SOL     OW62982   9.582  10.549   7.000
87048SOL    HW162983   9.644  10.495   6.950
87048SOL    HW262984   9.549  10.490   7.069
87049SOL     OW62985   3.912   4.599  10.312
87049SOL    HW162986   3.885   4.507  10.319
87049SOL    HW262987   3.968   4.613  10.388
87050SOL     OW62988   1.292   8.875   9.373
87050SOL    HW162989   1.372   8.843   9.332
87050SOL    HW262990   1.251   8.797   9.412
87051SOL     OW62991   3.271   6.015   3.552
87051SOL    HW162992   3.265   6.007   3.648
87051SOL    HW262993   3.204   6.079   3.530
87052SOL     OW62994   3.963  11.189   5.795
87052SOL    HW162995   4.057  11.172   5.781
87052SOL    HW262996   3.936  11.122   5.858
87053SOL     OW62997   5.348  12.823   4.799
87053SOL    HW162998   5.423  12.769   4.776
87053SOL    HW262999   5.338  12.883   4.726
87054SOL     OW63000   0.356  10.444   4.862
87054SOL    HW163001   0.384  10.353   4.861
87054SOL    HW263002   0.295  10.450   4.935
87055SOL     OW63003   9.862   2.104   9.340
87055SOL    HW163004   9.934   2.052   9.377
87055SOL    HW263005   9.906   2.176   9.295
87056SOL     OW63006   2.784  10.628   0.980
87056SOL    HW163007   2.689  10.612   0.976
87056SOL    HW263008   2.819  10.548   1.020
87057SOL     OW63009   0.854   4.378  12.824
87057SOL    HW163010   0.823   4.292  12.795
87057SOL    HW263011   0.928   4.358  12.882
87058SOL     OW63012  13.960   5.560   3.091
87058SOL    HW163013  14.050   5.569   3.124
87058SOL    HW263014  13.921   5.491   3.145
87059SOL     OW63015   7.801   3.146   6.447
87059SOL    HW163016   7.845   3.222   6.409
87059SOL    HW263017   7.710   3.173   6.457
87060SOL     OW63018   3.304   0.242   6.481
87060SOL    HW163019   3.386   0.234   6.531
87060SOL    HW263020   3.311   0.174   6.413
87061SOL     OW63021   0.937  13.016   6.606
87061SOL    HW163022   0.963  12.928   6.578
87061SOL    HW263023   0.978  13.075   6.544
87062SOL     OW63024   5.381  13.767  10.401
87062SOL    HW163025   5.451  13.803  10.455
87062SOL    HW263026   5.314  13.835  10.401
87063SOL     OW63027   0.274  13.851   8.801
87063SOL    HW163028   0.289  13.760   8.774
87063SOL    HW263029   0.331  13.863   8.878
87064SOL     OW63030   8.786   0.361   1.703
87064SOL    HW163031   8.777   0.412   1.783
87064SOL    HW263032   8.717   0.295   1.709
87065SOL     OW63033   9.872   3.584   8.911
87065SOL    HW163034   9.955   3.625   8.937
87065SOL    HW263035   9.859   3.514   8.974
87066SOL     OW63036   9.237  13.610   1.402
87066SOL    HW163037   9.171  13.541   1.411
87066SOL    HW263038   9.188  13.687   1.373
87067SOL     OW63039   5.771  11.994   9.429
87067SOL    HW163040   5.781  11.947   9.347
87067SOL    HW263041   5.691  12.046   9.418
87068SOL     OW63042  12.249   4.898   7.087
87068SOL    HW163043  12.177   4.940   7.041
87068SOL    HW263044  12.216   4.811   7.110
87069SOL     OW63045   0.172  10.515   5.947
87069SOL    HW163046   0.179  10.442   5.886
87069SOL    HW263047   0.233  10.580   5.914
87070SOL     OW63048  14.534  11.379  13.709
87070SOL    HW163049  14.454  11.349  13.752
87070SOL    HW263050  14.586  11.300  13.696
87071SOL     OW63051   1.416   2.530   2.386
87071SOL    HW163052   1.444   2.524   2.477
87071SOL    HW263053   1.375   2.617   2.379
87072SOL     OW63054  11.160   6.567   8.619
87072SOL    HW163055  11.251   6.537   8.625
87072SOL    HW263056  11.154   6.610   8.534
87073SOL     OW63057   1.600  13.401   2.429
87073SOL    HW163058   1.685  13.395   2.473
87073SOL    HW263059   1.590  13.494   2.410
87074SOL     OW63060  10.564   1.665   1.305
87074SOL    HW163061  10.518   1.724   1.245
87074SOL    HW263062  10.656   1.672   1.279
87075SOL     OW63063  14.616   0.069  14.866
87075SOL    HW163064  14.662   0.143   0.026
87075SOL    HW263065  14.523   0.094  14.869
87076SOL     OW63066   7.701  10.419   5.448
87076SOL    HW163067   7.750  10.347   5.488
87076SOL    HW263068   7.757  10.496   5.460
87077SOL     OW63069   4.885  11.984   8.497
87077SOL    HW163070   4.797  11.951   8.515
87077SOL    HW263071   4.900  11.963   8.405
87078SOL     OW63072   6.793  10.126   3.213
87078SOL    HW163073   6.866  10.086   3.166
87078SOL    HW263074   6.716  10.106   3.160
87079SOL     OW63075   8.029  11.908  14.291
87079SOL    HW163076   8.075  11.850  14.230
87079SOL    HW263077   7.964  11.954  14.238
87080SOL     OW63078   4.612   1.424  13.447
87080SOL    HW163079   4.642   1.468  13.368
87080SOL    HW263080   4.516   1.422  13.440
87081SOL     OW63081  13.983   2.650  13.929
87081SOL    HW163082  13.974   2.571  13.981
87081SOL    HW263083  13.921   2.712  13.968
87082SOL     OW63084  12.907   3.070   3.524
87082SOL    HW163085  12.912   2.998   3.461
87082SOL    HW263086  12.900   3.149   3.471
87083SOL     OW63087   4.554   9.409   9.625
87083SOL    HW163088   4.537   9.504   9.631
87083SOL    HW263089   4.509   9.382   9.545
87084SOL     OW63090   6.933  10.743   3.083
87084SOL    HW163091   6.896  10.739   3.171
87084SOL    HW263092   6.861  10.771   3.027
87085SOL     OW63093   0.309  10.376   8.471
87085SOL    HW163094   0.390  10.325   8.468
87085SOL    HW263095   0.314  10.426   8.552
87086SOL     OW63096   4.797  12.259   3.792
87086SOL    HW163097   4.797  12.182   3.736
87086SOL    HW263098   4.881  12.302   3.774
87087SOL     OW63099   3.132  13.306   3.788
87087SOL    HW163100   3.121  13.242   3.858
87087SOL    HW263101   3.226  13.307   3.771
87088SOL     OW63102   7.563   8.909   2.233
87088SOL    HW163103   7.617   8.976   2.275
87088SOL    HW263104   7.512   8.957   2.167
87089SOL     OW63105   9.085  13.115   2.431
87089SOL    HW163106   9.156  13.165   2.392
87089SOL    HW263107   9.106  13.023   2.411
87090SOL     OW63108  11.735   8.518   2.261
87090SOL    HW163109  11.780   8.581   2.317
87090SOL    HW263110  11.730   8.562   2.176
87091SOL     OW63111   4.771  12.661   1.874
87091SOL    HW163112   4.688  12.625   1.905
87091SOL    HW263113   4.762  12.663   1.779
87092SOL     OW63114   6.237   0.804   8.012
87092SOL    HW163115   6.272   0.893   8.019
87092SOL    HW263116   6.238   0.771   8.102
87093SOL     OW63117  11.181   3.632   5.106
87093SOL    HW163118  11.151   3.588   5.186
87093SOL    HW263119  11.233   3.567   5.060
87094SOL     OW63120   3.590   3.522  10.866
87094SOL    HW163121   3.672   3.523  10.916
87094SOL    HW263122   3.526   3.563  10.924
87095SOL     OW63123   7.772  13.640   1.563
87095SOL    HW163124   7.820  13.616   1.642
87095SOL    HW263125   7.745  13.730   1.578
87096SOL     OW63126   5.042  13.208  12.545
87096SOL    HW163127   5.083  13.125  12.568
87096SOL    HW263128   5.069  13.224  12.454
87097SOL     OW63129  13.038  14.278  11.541
87097SOL    HW163130  12.945  14.291  11.524
87097SOL    HW263131  13.075  14.366  11.540
87098SOL     OW63132   1.332  14.582   3.154
87098SOL    HW163133   1.353  14.673   3.174
87098SOL    HW263134   1.344  14.536   3.236
87099SOL     OW63135  11.380   1.363  13.413
87099SOL    HW163136  11.364   1.304  13.340
87099SOL    HW263137  11.466   1.337  13.447
87100SOL     OW63138   1.485   6.722   2.346
87100SOL    HW163139   1.419   6.790   2.334
87100SOL    HW263140   1.501   6.721   2.441
87101SOL     OW63141   7.934  12.784  11.430
87101SOL    HW163142   7.951  12.795  11.336
87101SOL    HW263143   7.858  12.840  11.447
87102SOL     OW63144   8.425   9.745  12.036
87102SOL    HW163145   8.332   9.722  12.046
87102SOL    HW263146   8.466   9.664  12.006
87103SOL     OW63147   5.592   8.855   5.307
87103SOL    HW163148   5.579   8.769   5.346
87103SOL    HW263149   5.511   8.902   5.325
87104SOL     OW63150   8.824   1.531   9.898
87104SOL    HW163151   8.820   1.554   9.991
87104SOL    HW263152   8.827   1.616   9.853
87105SOL     OW63153   8.931   9.421   1.975
87105SOL    HW163154   8.898   9.342   1.932
87105SOL    HW263155   8.864   9.442   2.040
87106SOL     OW63156   7.190  12.934   8.218
87106SOL    HW163157   7.160  12.852   8.258
87106SOL    HW263158   7.283  12.919   8.201
87107SOL     OW63159  14.441   3.582   9.004
87107SOL    HW163160  14.406   3.654   9.056
87107SOL    HW263161  14.535   3.582   9.022
87108SOL     OW63162  11.674   2.007   1.475
87108SOL    HW163163  11.633   2.087   1.442
87108SOL    HW263164  11.602   1.946   1.487
87109SOL     OW63165  10.058  11.876   6.408
87109SOL    HW163166  10.145  11.874   6.449
87109SOL    HW263167  10.054  11.795   6.357
87110SOL     OW63168   8.058   6.916  12.092
87110SOL    HW163169   8.129   6.911  12.028
87110SOL    HW263170   8.007   6.837  12.077
87111SOL     OW63171   1.938   8.298   6.812
87111SOL    HW163172   1.878   8.335   6.876
87111SOL    HW263173   1.942   8.363   6.742
87112SOL     OW63174  14.412   6.204   2.660
87112SOL    HW163175  14.443   6.218   2.749
87112SOL    HW263176  14.332   6.151   2.670
87113SOL     OW63177  12.550  13.751  10.232
87113SOL    HW163178  12.584  13.665  10.256
87113SOL    HW263179  12.458  13.736  10.211
87114SOL     OW63180   3.846  13.645   1.155
87114SOL    HW163181   3.908  13.610   1.090
87114SOL    HW263182   3.770  13.671   1.104
87115SOL     OW63183   7.717   6.234   0.142
87115SOL    HW163184   7.773   6.168   0.185
87115SOL    HW263185   7.773   6.311   0.132
87116SOL     OW63186  10.365  12.164   7.757
87116SOL    HW163187  10.316  12.211   7.825
87116SOL    HW263188  10.433  12.117   7.805
87117SOL     OW63189   1.298   9.263   9.279
87117SOL    HW163190   1.285   9.221   9.364
87117SOL    HW263191   1.211   9.267   9.240
87118SOL     OW63192  14.094   1.700   2.122
87118SOL    HW163193  14.121   1.786   2.090
87118SOL    HW263194  14.083   1.712   2.217
87119SOL     OW63195  10.324   0.437   2.633
87119SOL    HW163196  10.261   0.375   2.671
87119SOL    HW263197  10.269   0.506   2.595
87120SOL     OW63198  12.161   0.861   4.509
87120SOL    HW163199  12.157   0.946   4.466
87120SOL    HW263200  12.254   0.837   4.508
87121SOL     OW63201   2.698   1.484  12.807
87121SOL    HW163202   2.753   1.418  12.848
87121SOL    HW263203   2.609   1.451  12.814
87122SOL     OW63204  12.226   5.358   8.663
87122SOL    HW163205  12.247   5.288   8.725
87122SOL    HW263206  12.258   5.326   8.579
87123SOL     OW63207   8.387  10.554   6.782
87123SOL    HW163208   8.317  10.609   6.748
87123SOL    HW263209   8.353  10.465   6.775
87124SOL     OW63210  10.197  10.738  13.383
87124SOL    HW163211  10.283  10.699  13.365
87124SOL    HW263212  10.136  10.691  13.326
87125SOL     OW63213   5.160   0.661  12.922
87125SOL    HW163214   5.229   0.712  12.879
87125SOL    HW263215   5.157   0.579  12.873
87126SOL     OW63216   4.767  13.724  11.452
87126SOL    HW163217   4.751  13.639  11.491
87126SOL    HW263218   4.681  13.767  11.451
87127SOL     OW63219  14.426  11.433   1.442
87127SOL    HW163220  14.427  11.422   1.347
87127SOL    HW263221  14.458  11.349   1.476
87128SOL     OW63222  13.876   6.978   5.949
87128SOL    HW163223  13.796   7.028   5.968
87128SOL    HW263224  13.929   6.986   6.028
87129SOL     OW63225   8.971   4.433   8.841
87129SOL    HW163226   9.007   4.519   8.819
87129SOL    HW263227   9.049   4.378   8.856
87130SOL     OW63228  11.547  14.334   4.378
87130SOL    HW163229  11.457  14.301   4.380
87130SOL    HW263230  11.568  14.339   4.284
87131SOL     OW63231   6.799   8.889   4.102
87131SOL    HW163232   6.830   8.862   4.016
87131SOL    HW263233   6.705   8.907   4.090
87132SOL     OW63234   3.225   4.469   5.213
87132SOL    HW163235   3.301   4.515   5.250
87132SOL    HW263236   3.262   4.407   5.151
87133SOL     OW63237  12.027   9.316  11.902
87133SOL    HW163238  12.009   9.306  11.808
87133SOL    HW263239  11.948   9.357  11.937
87134SOL     OW63240   1.610   0.021  11.300
87134SOL    HW163241   1.535   0.065  11.339
87134SOL    HW263242   1.587  14.807  11.301
87135SOL     OW63243   2.111   4.254   3.974
87135SOL    HW163244   2.142   4.164   3.963
87135SOL    HW263245   2.122   4.272   4.067
87136SOL     OW63246   9.037   3.922  14.487
87136SOL    HW163247   9.004   3.837  14.513
87136SOL    HW263248   8.967   3.983  14.510
87137SOL     OW63249  10.103  12.825  10.714
87137SOL    HW163250  10.119  12.731  10.704
87137SOL    HW263251  10.061  12.851  10.632
87138SOL     OW63252   2.122   5.778   3.572
87138SOL    HW163253   2.064   5.848   3.600
87138SOL    HW263254   2.209   5.819   3.571
87139SOL     OW63255   3.789  14.622   1.629
87139SOL    HW163256   3.717  14.671   1.668
87139SOL    HW263257   3.832  14.684   1.570
87140SOL     OW63258   0.030   5.489  11.519
87140SOL    HW163259   0.080   5.411  11.543
87140SOL    HW263260  14.822   5.456  11.498
87141SOL     OW63261   2.989   7.614   2.795
87141SOL    HW163262   2.926   7.583   2.730
87141SOL    HW263263   3.062   7.552   2.787
87142SOL     OW63264  14.507  12.633   0.235
87142SOL    HW163265  14.433  12.651   0.293
87142SOL    HW263266  14.581  12.681   0.274
87143SOL     OW63267   6.353   2.270   1.984
87143SOL    HW163268   6.410   2.308   2.052
87143SOL    HW263269   6.384   2.180   1.975
87144SOL     OW63270   8.537   9.549   5.011
87144SOL    HW163271   8.568   9.472   5.057
87144SOL    HW263272   8.530   9.522   4.919
87145SOL     OW63273   9.272   0.454  12.778
87145SOL    HW163274   9.182   0.463  12.810
87145SOL    HW263275   9.327   0.477  12.853
87146SOL     OW63276   3.770  12.896   6.595
87146SOL    HW163277   3.808  12.980   6.621
87146SOL    HW263278   3.844  12.835   6.595
87147SOL     OW63279  13.307  12.075  12.753
87147SOL    HW163280  13.260  12.139  12.806
87147SOL    HW263281  13.270  11.991  12.779
87148SOL     OW63282   0.300   1.356   4.797
87148SOL    HW163283   0.358   1.432   4.802
87148SOL    HW263284   0.348   1.293   4.744
87149SOL     OW63285  13.743   0.272  14.057
87149SOL    HW163286  13.690   0.257  13.979
87149SOL    HW263287  13.695   0.228  14.128
87150SOL     OW63288   2.972   4.269   3.684
87150SOL    HW163289   2.995   4.256   3.592
87150SOL    HW263290   2.877   4.280   3.684
87151SOL     OW63291   7.384   6.216  13.217
87151SOL    HW163292   7.376   6.278  13.289
87151SOL    HW263293   7.476   6.192  13.216
87152SOL     OW63294   7.031  13.873  11.530
87152SOL    HW163295   6.947  13.881  11.574
87152SOL    HW263296   7.094  13.862  11.601
87153SOL     OW63297   7.033   8.721   1.279
87153SOL    HW163298   6.996   8.679   1.202
87153SOL    HW263299   7.067   8.805   1.247
87154SOL     OW63300   9.344   7.487  12.264
87154SOL    HW163301   9.305   7.556  12.210
87154SOL    HW263302   9.342   7.409  12.209
87155SOL     OW63303  13.362   3.115   4.472
87155SOL    HW163304  13.295   3.048   4.461
87155SOL    HW263305  13.355   3.169   4.394
87156SOL     OW63306  11.354   0.623   0.254
87156SOL    HW163307  11.268   0.645   0.290
87156SOL    HW263308  11.416   0.665   0.314
87157SOL     OW63309   5.726   7.951  11.519
87157SOL    HW163310   5.801   7.900  11.487
87157SOL    HW263311   5.750   8.042  11.501
87158SOL     OW63312  11.895  11.219   6.532
87158SOL    HW163313  11.933  11.138   6.499
87158SOL    HW263314  11.832  11.190   6.599
87159SOL     OW63315  14.112   3.628  10.216
87159SOL    HW163316  14.119   3.588  10.302
87159SOL    HW263317  14.197   3.669  10.201
87160SOL     OW63318  13.313   3.000   1.597
87160SOL    HW163319  13.252   2.949   1.651
87160SOL    HW263320  13.291   3.091   1.616
87161SOL     OW63321  14.547   5.738   2.240
87161SOL    HW163322  14.606   5.739   2.316
87161SOL    HW263323  14.541   5.645   2.216
87162SOL     OW63324   0.039   3.699   1.699
87162SOL    HW163325  14.878   3.627   1.651
87162SOL    HW263326  14.860   3.715   1.773
87163SOL     OW63327   1.153   5.288   5.144
87163SOL    HW163328   1.247   5.305   5.141
87163SOL    HW263329   1.119   5.350   5.208
87164SOL     OW63330   6.006   4.232   5.161
87164SOL    HW163331   5.931   4.238   5.102
87164SOL    HW263332   6.079   4.269   5.110
87165SOL     OW63333  13.996   1.254   6.941
87165SOL    HW163334  13.943   1.220   7.013
87165SOL    HW263335  14.026   1.339   6.972
87166SOL     OW63336   1.295   4.331  10.307
87166SOL    HW163337   1.208   4.353  10.274
87166SOL    HW263338   1.346   4.312  10.229
87167SOL     OW63339   2.945   0.971   2.476
87167SOL    HW163340   3.001   0.895   2.495
87167SOL    HW263341   3.006   1.043   2.460
87168SOL     OW63342   8.877   9.656   0.745
87168SOL    HW163343   8.897   9.580   0.690
87168SOL    HW263344   8.954   9.712   0.738
87169SOL     OW63345   0.944  13.944   9.386
87169SOL    HW163346   0.876  13.921   9.324
87169SOL    HW263347   1.011  13.988   9.334
87170SOL     OW63348   6.173  10.623   0.790
87170SOL    HW163349   6.106  10.680   0.751
87170SOL    HW263350   6.244  10.683   0.814
87171SOL     OW63351   8.618   6.406   1.313
87171SOL    HW163352   8.599   6.474   1.378
87171SOL    HW263353   8.709   6.422   1.287
87172SOL     OW63354   3.960   5.876   6.761
87172SOL    HW163355   3.967   5.794   6.811
87172SOL    HW263356   3.980   5.945   6.824
87173SOL     OW63357   5.226  13.008  12.066
87173SOL    HW163358   5.260  12.939  12.123
87173SOL    HW263359   5.297  13.071  12.059
87174SOL     OW63360   7.407  14.735   1.225
87174SOL    HW163361   7.437  14.712   1.313
87174SOL    HW263362   7.373  14.824   1.234
87175SOL     OW63363  11.796  10.564  14.261
87175SOL    HW163364  11.800  10.559  14.166
87175SOL    HW263365  11.710  10.529  14.283
87176SOL     OW63366   6.133   5.592   9.993
87176SOL    HW163367   6.211   5.573   9.941
87176SOL    HW263368   6.103   5.677   9.961
87177SOL     OW63369   0.560  14.404  10.510
87177SOL    HW163370   0.469  14.411  10.537
87177SOL    HW263371   0.556  14.387  10.416
87178SOL     OW63372   2.447   5.785   4.146
87178SOL    HW163373   2.404   5.705   4.177
87178SOL    HW263374   2.536   5.780   4.182
87179SOL     OW63375  13.980  12.224   3.623
87179SOL    HW163376  13.992  12.319   3.628
87179SOL    HW263377  13.939  12.201   3.707
87180SOL     OW63378   4.790   7.794  14.686
87180SOL    HW163379   4.871   7.788  14.737
87180SOL    HW263380   4.763   7.886  14.695
87181SOL     OW63381  13.539   1.216   2.596
87181SOL    HW163382  13.597   1.166   2.653
87181SOL    HW263383  13.485   1.150   2.553
87182SOL     OW63384   6.416   4.281   0.978
87182SOL    HW163385   6.401   4.373   0.958
87182SOL    HW263386   6.483   4.282   1.046
87183SOL     OW63387   3.135   8.120   0.067
87183SOL    HW163388   3.206   8.159   0.016
87183SOL    HW263389   3.163   8.030   0.083
87184SOL     OW63390   2.361   3.408   8.157
87184SOL    HW163391   2.331   3.417   8.066
87184SOL    HW263392   2.286   3.438   8.210
87185SOL     OW63393  10.519  14.560   5.236
87185SOL    HW163394  10.498  14.468   5.249
87185SOL    HW263395  10.467  14.606   5.302
87186SOL     OW63396   5.886   1.262   9.907
87186SOL    HW163397   5.947   1.200   9.866
87186SOL    HW263398   5.800   1.238   9.872
87187SOL     OW63399  10.754   9.923   4.494
87187SOL    HW163400  10.828   9.945   4.551
87187SOL    HW263401  10.794   9.905   4.409
87188SOL     OW63402  12.549   7.454   8.822
87188SOL    HW163403  12.577   7.540   8.851
87188SOL    HW263404  12.455   7.463   8.804
87189SOL     OW63405  11.277  13.828   0.891
87189SOL    HW163406  11.234  13.836   0.976
87189SOL    HW263407  11.293  13.735   0.880
87190SOL     OW63408   2.505  11.434  10.806
87190SOL    HW163409   2.429  11.407  10.754
87190SOL    HW263410   2.577  11.380  10.773
87191SOL     OW63411   6.005  10.440  12.974
87191SOL    HW163412   6.000  10.354  13.016
87191SOL    HW263413   5.933  10.489  13.014
87192SOL     OW63414   3.539  10.234  12.379
87192SOL    HW163415   3.599  10.159  12.386
87192SOL    HW263416   3.519  10.241  12.286
87193SOL     OW63417  11.078  11.421  11.433
87193SOL    HW163418  11.150  11.392  11.377
87193SOL    HW263419  11.026  11.479  11.378
87194SOL     OW63420   2.749   3.886   7.138
87194SOL    HW163421   2.676   3.937   7.104
87194SOL    HW263422   2.719   3.795   7.135
87195SOL     OW63423   2.851  11.387  11.672
87195SOL    HW163424   2.888  11.324  11.734
87195SOL    HW263425   2.762  11.355  11.656
87196SOL     OW63426   6.086   3.493  10.309
87196SOL    HW163427   6.068   3.406  10.274
87196SOL    HW263428   6.131   3.477  10.392
87197SOL     OW63429  14.367   3.933  13.146
87197SOL    HW163430  14.399   3.906  13.060
87197SOL    HW263431  14.357   3.852  13.195
87198SOL     OW63432  13.828   3.256   4.635
87198SOL    HW163433  13.843   3.290   4.723
87198SOL    HW263434  13.801   3.165   4.649
87199SOL     OW63435  13.887  11.152  10.380
87199SOL    HW163436  13.965  11.122  10.333
87199SOL    HW263437  13.822  11.165  10.311
87200SOL     OW63438   3.156  12.544  10.800
87200SOL    HW163439   3.131  12.592  10.721
87200SOL    HW263440   3.249  12.524  10.787
87201SOL     OW63441  13.229  12.866  14.868
87201SOL    HW163442  13.305  12.812  14.847
87201SOL    HW263443  13.159  12.804   0.006
87202SOL     OW63444   9.190   4.666   3.532
87202SOL    HW163445   9.276   4.668   3.491
87202SOL    HW263446   9.154   4.754   3.518
87203SOL     OW63447   1.192   5.333   3.574
87203SOL    HW163448   1.126   5.316   3.506
87203SOL    HW263449   1.162   5.413   3.617
87204SOL     OW63450   2.982   7.137   7.262
87204SOL    HW163451   2.939   7.181   7.188
87204SOL    HW263452   3.044   7.202   7.296
87205SOL     OW63453   8.098   9.725  11.684
87205SOL    HW163454   8.062   9.710  11.597
87205SOL    HW263455   8.084   9.818  11.701
87206SOL     OW63456   0.038  12.136  10.238
87206SOL    HW163457  14.879  12.135  10.151
87206SOL    HW263458   0.014  12.220  10.275
87207SOL     OW63459  10.581   5.702   6.159
87207SOL    HW163460  10.638   5.771   6.125
87207SOL    HW263461  10.635   5.623   6.156
87208SOL     OW63462   6.159   5.934  13.848
87208SOL    HW163463   6.173   5.923  13.942
87208SOL    HW263464   6.220   6.003  13.823
87209SOL     OW63465  11.081  12.685  10.414
87209SOL    HW163466  11.023  12.723  10.349
87209SOL    HW263467  11.041  12.600  10.436
87210SOL     OW63468   3.771  11.416   1.529
87210SOL    HW163469   3.862  11.388   1.541
87210SOL    HW263470   3.720  11.341   1.559
87211SOL     OW63471  14.096   1.077   0.446
87211SOL    HW163472  14.042   1.120   0.380
87211SOL    HW263473  14.172   1.134   0.455
87212SOL     OW63474   8.336   3.787   1.766
87212SOL    HW163475   8.425   3.800   1.798
87212SOL    HW263476   8.280   3.823   1.835
87213SOL     OW63477  11.237  10.168   7.293
87213SOL    HW163478  11.203  10.257   7.304
87213SOL    HW263479  11.196  10.137   7.212
87214SOL     OW63480   9.666  14.214   0.076
87214SOL    HW163481   9.677  14.246   0.165
87214SOL    HW263482   9.720  14.135   0.072
87215SOL     OW63483   0.633  13.074   6.168
87215SOL    HW163484   0.721  13.056   6.136
87215SOL    HW263485   0.644  13.145   6.231
87216SOL     OW63486   3.586   6.029  14.671
87216SOL    HW163487   3.630   6.114  14.668
87216SOL    HW263488   3.538   6.024  14.588
87217SOL     OW63489  13.819  14.650   8.546
87217SOL    HW163490  13.731  14.644   8.582
87217SOL    HW263491  13.829  14.570   8.495
87218SOL     OW63492   3.974   4.968  11.388
87218SOL    HW163493   3.904   5.018  11.430
87218SOL    HW263494   3.929   4.913  11.325
87219SOL     OW63495   6.389   8.750   1.532
87219SOL    HW163496   6.478   8.785   1.533
87219SOL    HW263497   6.335   8.823   1.503
87220SOL     OW63498   7.967  13.446   1.748
87220SOL    HW163499   7.930  13.385   1.683
87220SOL    HW263500   8.026  13.391   1.801
87221SOL     OW63501   7.645   0.552   3.859
87221SOL    HW163502   7.564   0.505   3.881
87221SOL    HW263503   7.655   0.616   3.929
87222SOL     OW63504   4.538  10.930  11.338
87222SOL    HW163505   4.481  10.890  11.404
87222SOL    HW263506   4.491  11.009  11.312
87223SOL     OW63507   3.931  10.864  12.976
87223SOL    HW163508   3.916  10.788  13.031
87223SOL    HW263509   3.982  10.924  13.031
87224SOL     OW63510   6.238  10.514   2.884
87224SOL    HW163511   6.216  10.490   2.794
87224SOL    HW263512   6.175  10.583   2.907
87225SOL     OW63513   5.635  11.626  11.421
87225SOL    HW163514   5.713  11.676  11.444
87225SOL    HW263515   5.668  11.549  11.375
87226SOL     OW63516   6.571   6.654  14.310
87226SOL    HW163517   6.538   6.727  14.257
87226SOL    HW263518   6.497   6.595  14.318
87227SOL     OW63519   3.220  10.760   1.319
87227SOL    HW163520   3.133  10.802   1.323
87227SOL    HW263521   3.235  10.727   1.407
87228SOL     OW63522  11.983   7.934   5.043
87228SOL    HW163523  12.010   7.983   5.122
87228SOL    HW263524  11.923   7.993   4.998
87229SOL     OW63525   1.593   9.004   9.762
87229SOL    HW163526   1.512   9.026   9.716
87229SOL    HW263527   1.572   8.923   9.808
87230SOL     OW63528  14.433   8.461   5.771
87230SOL    HW163529  14.499   8.417   5.718
87230SOL    HW263530  14.373   8.392   5.799
87231SOL     OW63531  13.766   8.772   6.165
87231SOL    HW163532  13.790   8.802   6.077
87231SOL    HW263533  13.850   8.769   6.212
87232SOL     OW63534   0.016   2.091   7.171
87232SOL    HW163535  14.877   2.117   7.080
87232SOL    HW263536  14.815   2.112   7.218
87233SOL     OW63537   7.150   0.003   1.077
87233SOL    HW163538   7.245   0.012   1.081
87233SOL    HW263539   7.120   0.084   1.035
87234SOL     OW63540   3.001  10.691   9.369
87234SOL    HW163541   3.018  10.709   9.277
87234SOL    HW263542   2.994  10.778   9.410
87235SOL     OW63543  10.851   2.213   0.066
87235SOL    HW163544  10.786   2.254   0.008
87235SOL    HW263545  10.917   2.281   0.079
87236SOL     OW63546   3.545   1.018  13.429
87236SOL    HW163547   3.559   1.066  13.511
87236SOL    HW263548   3.473   1.065  13.386
87237SOL     OW63549   1.535   8.095   6.806
87237SOL    HW163550   1.548   8.075   6.713
87237SOL    HW263551   1.586   8.029   6.852
87238SOL     OW63552   0.159   7.600   2.003
87238SOL    HW163553   0.203   7.605   2.088
87238SOL    HW263554   0.229   7.589   1.939
87239SOL     OW63555   5.030  12.206  13.888
87239SOL    HW163556   5.041  12.206  13.983
87239SOL    HW263557   5.045  12.297  13.862
87240SOL     OW63558  13.661   1.156   1.371
87240SOL    HW163559  13.752   1.129   1.384
87240SOL    HW263560  13.611   1.075   1.375
87241SOL     OW63561  13.870  11.796   1.374
87241SOL    HW163562  13.785  11.838   1.386
87241SOL    HW263563  13.882  11.745   1.454
87242SOL     OW63564  13.247   5.705  14.373
87242SOL    HW163565  13.285   5.635  14.426
87242SOL    HW263566  13.249   5.670  14.283
87243SOL     OW63567   7.535  10.168   9.507
87243SOL    HW163568   7.466  10.137   9.448
87243SOL    HW263569   7.490  10.226   9.568
87244SOL     OW63570   0.149   8.220   1.558
87244SOL    HW163571   0.193   8.216   1.643
87244SOL    HW263572   0.099   8.138   1.553
87245SOL     OW63573  11.998   2.989   7.044
87245SOL    HW163574  12.044   2.908   7.021
87245SOL    HW263575  12.065   3.042   7.088
87246SOL     OW63576  14.384  13.276   4.736
87246SOL    HW163577  14.460  13.294   4.680
87246SOL    HW263578  14.327  13.351   4.724
87247SOL     OW63579  14.027   8.597   1.227
87247SOL    HW163580  13.936   8.600   1.198
87247SOL    HW263581  14.069   8.535   1.167
87248SOL     OW63582   5.389   4.332  12.199
87248SOL    HW163583   5.382   4.291  12.285
87248SOL    HW263584   5.482   4.322  12.176
87249SOL     OW63585   8.730   7.915   5.757
87249SOL    HW163586   8.649   7.920   5.706
87249SOL    HW263587   8.703   7.927   5.847
87250SOL     OW63588   4.513   2.096  10.227
87250SOL    HW163589   4.538   2.176  10.181
87250SOL    HW263590   4.444   2.058  10.173
87251SOL     OW63591  13.906  10.100   4.120
87251SOL    HW163592  13.965  10.171   4.146
87251SOL    HW263593  13.830  10.110   4.178
87252SOL     OW63594  10.544   5.517  12.452
87252SOL    HW163595  10.575   5.437  12.411
87252SOL    HW263596  10.459   5.493  12.490
87253SOL     OW63597   5.402  11.225   2.450
87253SOL    HW163598   5.318  11.179   2.459
87253SOL    HW263599   5.417  11.262   2.537
87254SOL     OW63600   9.060   7.451  14.050
87254SOL    HW163601   9.083   7.535  14.010
87254SOL    HW263602   8.964   7.454  14.057
87255SOL     OW63603   9.796   5.894   9.125
87255SOL    HW163604   9.866   5.902   9.190
87255SOL    HW263605   9.822   5.820   9.070
87256SOL     OW63606  11.949   7.350   0.168
87256SOL    HW163607  12.007   7.281   0.138
87256SOL    HW263608  11.980   7.371   0.256
87257SOL     OW63609   1.188   1.141   3.826
87257SOL    HW163610   1.277   1.123   3.798
87257SOL    HW263611   1.196   1.209   3.893
87258SOL     OW63612   1.661  13.106   6.898
87258SOL    HW163613   1.601  13.032   6.899
87258SOL    HW263614   1.681  13.122   6.990
87259SOL     OW63615   0.018  12.321   1.026
87259SOL    HW163616   0.023  12.226   1.018
87259SOL    HW263617  14.818  12.345   0.977
87260SOL     OW63618  12.480   8.395   7.946
87260SOL    HW163619  12.479   8.369   7.853
87260SOL    HW263620  12.415   8.338   7.987
87261SOL     OW63621   9.500   2.929   0.016
87261SOL    HW163622   9.435   2.997   0.002
87261SOL    HW263623   9.524   2.899  14.808
87262SOL     OW63624   9.408  13.399   9.860
87262SOL    HW163625   9.479  13.409   9.923
87262SOL    HW263626   9.385  13.489   9.835
87263SOL     OW63627   4.405   0.500   2.639
87263SOL    HW163628   4.373   0.437   2.575
87263SOL    HW263629   4.484   0.537   2.600
87264SOL     OW63630   1.256   2.260  12.439
87264SOL    HW163631   1.238   2.231  12.529
87264SOL    HW263632   1.232   2.353  12.439
87265SOL     OW63633   8.492  12.501  13.089
87265SOL    HW163634   8.581  12.517  13.120
87265SOL    HW263635   8.503  12.444  13.013
87266SOL     OW63636   6.362   7.171   9.341
87266SOL    HW163637   6.379   7.087   9.298
87266SOL    HW263638   6.269   7.188   9.325
87267SOL     OW63639   2.525   3.630   0.433
87267SOL    HW163640   2.511   3.560   0.369
87267SOL    HW263641   2.588   3.594   0.496
87268SOL     OW63642  10.344   0.377   6.063
87268SOL    HW163643  10.311   0.464   6.088
87268SOL    HW263644  10.436   0.393   6.039
87269SOL     OW63645   0.983  10.042   4.880
87269SOL    HW163646   0.942  10.111   4.933
87269SOL    HW263647   1.077  10.054   4.893
87270SOL     OW63648  10.401  10.167   3.436
87270SOL    HW163649  10.308  10.187   3.446
87270SOL    HW263650  10.403  10.097   3.371
87271SOL     OW63651   3.218  11.171  11.253
87271SOL    HW163652   3.283  11.133  11.312
87271SOL    HW263653   3.227  11.266  11.265
87272SOL     OW63654   2.908  10.475   7.668
87272SOL    HW163655   2.993  10.512   7.644
87272SOL    HW263656   2.896  10.401   7.610
87273SOL     OW63657   2.637   6.271   1.049
87273SOL    HW163658   2.669   6.342   0.993
87273SOL    HW263659   2.599   6.316   1.125
87274SOL     OW63660   1.742  14.592   0.804
87274SOL    HW163661   1.687  14.521   0.773
87274SOL    HW263662   1.822  14.549   0.835
87275SOL     OW63663   2.244  13.851   2.122
87275SOL    HW163664   2.299  13.798   2.180
87275SOL    HW263665   2.248  13.806   2.037
87276SOL     OW63666   9.072  12.075   7.862
87276SOL    HW163667   9.111  12.084   7.949
87276SOL    HW263668   9.145  12.047   7.806
87277SOL     OW63669   5.164   0.386   5.719
87277SOL    HW163670   5.191   0.465   5.766
87277SOL    HW263671   5.172   0.315   5.783
87278SOL     OW63672  10.221   2.158  13.144
87278SOL    HW163673  10.152   2.106  13.184
87278SOL    HW263674  10.201   2.157  13.050
87279SOL     OW63675   6.072  14.604   8.512
87279SOL    HW163676   6.138  14.601   8.581
87279SOL    HW263677   6.114  14.561   8.437
87280SOL     OW63678   0.836   4.526   3.251
87280SOL    HW163679   0.829   4.431   3.240
87280SOL    HW263680   0.788   4.543   3.333
87281SOL     OW63681  10.606  11.187   9.038
87281SOL    HW163682  10.559  11.247   8.980
87281SOL    HW263683  10.604  11.230   9.123
87282SOL     OW63684   5.087  14.679  12.589
87282SOL    HW163685   5.136  14.630  12.524
87282SOL    HW263686   5.020  14.616  12.619
87283SOL     OW63687   4.012  10.577  11.881
87283SOL    HW163688   3.997  10.570  11.976
87283SOL    HW263689   4.019  10.487  11.851
87284SOL     OW63690   5.004  10.201   6.335
87284SOL    HW163691   5.071  10.268   6.321
87284SOL    HW263692   5.045  10.137   6.393
87285SOL     OW63693  12.309   9.431   5.706
87285SOL    HW163694  12.339   9.382   5.783
87285SOL    HW263695  12.328   9.373   5.632
87286SOL     OW63696   3.776   8.552   4.991
87286SOL    HW163697   3.831   8.479   5.020
87286SOL    HW263698   3.694   8.512   4.964
87287SOL     OW63699   1.267   9.308   8.029
87287SOL    HW163700   1.348   9.328   7.983
87287SOL    HW263701   1.198   9.341   7.971
87288SOL     OW63702  11.710   9.292  14.604
87288SOL    HW163703  11.761   9.371  14.589
87288SOL    HW263704  11.631   9.322  14.650
87289SOL     OW63705   9.939   5.304  10.441
87289SOL    HW163706   9.860   5.277  10.395
87289SOL    HW263707  10.009   5.295  10.377
87290SOL     OW63708  11.205   1.043   3.060
87290SOL    HW163709  11.283   0.987   3.063
87290SOL    HW263710  11.233   1.125   3.101
87291SOL     OW63711   8.881   4.494   4.994
87291SOL    HW163712   8.912   4.408   5.022
87291SOL    HW263713   8.786   4.484   4.987
87292SOL     OW63714   7.187  14.250   6.561
87292SOL    HW163715   7.233  14.307   6.623
87292SOL    HW263716   7.255  14.223   6.499
87293SOL     OW63717   3.151  14.582  11.523
87293SOL    HW163718   3.104  14.520  11.578
87293SOL    HW263719   3.200  14.527  11.461
87294SOL     OW63720   8.610  11.703   9.225
87294SOL    HW163721   8.569  11.772   9.174
87294SOL    HW263722   8.599  11.731   9.316
87295SOL     OW63723   0.774  14.126  10.708
87295SOL    HW163724   0.832  14.202  10.697
87295SOL    HW263725   0.770  14.086  10.621
87296SOL     OW63726   2.604  12.579   2.834
87296SOL    HW163727   2.654  12.573   2.753
87296SOL    HW263728   2.515  12.553   2.809
87297SOL     OW63729   5.505  10.783  10.690
87297SOL    HW163730   5.588  10.736  10.676
87297SOL    HW263731   5.531  10.867  10.727
87298SOL     OW63732   8.184   1.411  11.619
87298SOL    HW163733   8.188   1.481  11.554
87298SOL    HW263734   8.142   1.451  11.695
87299SOL     OW63735   0.367   7.736   3.501
87299SOL    HW163736   0.444   7.770   3.547
87299SOL    HW263737   0.335   7.665   3.555
87300SOL     OW63738   4.329   9.140   6.976
87300SOL    HW163739   4.414   9.098   6.991
87300SOL    HW263740   4.312   9.127   6.882
87301SOL     OW63741  10.875   4.210   1.023
87301SOL    HW163742  10.783   4.233   1.012
87301SOL    HW263743  10.883   4.184   1.115
87302SOL     OW63744   8.369   8.893   4.403
87302SOL    HW163745   8.333   8.873   4.489
87302SOL    HW263746   8.339   8.821   4.347
87303SOL     OW63747   0.787  13.644   2.787
87303SOL    HW163748   0.861  13.587   2.810
87303SOL    HW263749   0.767  13.621   2.696
87304SOL     OW63750   2.620  14.362  10.260
87304SOL    HW163751   2.578  14.346  10.344
87304SOL    HW263752   2.673  14.441  10.274
87305SOL     OW63753  12.857   2.418   8.383
87305SOL    HW163754  12.928   2.421   8.319
87305SOL    HW263755  12.901   2.404   8.467
87306SOL     OW63756  14.305  10.872   0.661
87306SOL    HW163757  14.393  10.853   0.628
87306SOL    HW263758  14.320  10.932   0.735
87307SOL     OW63759   6.665   4.716   2.323
87307SOL    HW163760   6.667   4.623   2.345
87307SOL    HW263761   6.636   4.719   2.232
87308SOL     OW63762  11.498  13.949   5.492
87308SOL    HW163763  11.478  13.888   5.421
87308SOL    HW263764  11.553  14.016   5.451
87309SOL     OW63765   7.240   8.646   6.153
87309SOL    HW163766   7.269   8.581   6.089
87309SOL    HW263767   7.283   8.727   6.126
87310SOL     OW63768   7.656   9.146   3.976
87310SOL    HW163769   7.744   9.125   4.006
87310SOL    HW263770   7.661   9.139   3.880
87311SOL     OW63771   1.304   9.362   4.735
87311SOL    HW163772   1.288   9.281   4.687
87311SOL    HW263773   1.248   9.356   4.812
87312SOL     OW63774   6.235   0.422   8.507
87312SOL    HW163775   6.159   0.478   8.527
87312SOL    HW263776   6.245   0.429   8.412
87313SOL     OW63777   9.014  13.243  11.564
87313SOL    HW163778   9.092  13.292  11.590
87313SOL    HW263779   9.026  13.156  11.603
87314SOL     OW63780   2.990   1.980  11.706
87314SOL    HW163781   2.937   1.904  11.730
87314SOL    HW263782   3.013   1.966  11.614
87315SOL     OW63783  11.384   1.068  14.005
87315SOL    HW163784  11.339   1.083  13.922
87315SOL    HW263785  11.420   1.154  14.028
87316SOL     OW63786  11.601   2.516   2.892
87316SOL    HW163787  11.656   2.504   2.969
87316SOL    HW263788  11.578   2.609   2.893
87317SOL     OW63789  11.765   9.197   1.279
87317SOL    HW163790  11.752   9.162   1.190
87317SOL    HW263791  11.784   9.120   1.332
87318SOL     OW63792   6.500  13.292   0.289
87318SOL    HW163793   6.580  13.304   0.238
87318SOL    HW263794   6.499  13.367   0.349
87319SOL     OW63795  10.442   2.068  11.254
87319SOL    HW163796  10.495   2.086  11.177
87319SOL    HW263797  10.488   2.113  11.326
87320SOL     OW63798   1.191   0.554  14.797
87320SOL    HW163799   1.240   0.578  14.876
87320SOL    HW263800   1.170   0.462  14.809
87321SOL     OW63801   0.771  14.237   2.282
87321SOL    HW163802   0.746  14.205   2.369
87321SOL    HW263803   0.754  14.162   2.224
87322SOL     OW63804   9.796   2.030   4.913
87322SOL    HW163805   9.754   2.051   4.829
87322SOL    HW263806   9.764   2.097   4.973
87323SOL     OW63807  13.610  14.572   2.684
87323SOL    HW163808  13.537  14.539   2.736
87323SOL    HW263809  13.657  14.494   2.656
87324SOL     OW63810   7.963  10.624  12.284
87324SOL    HW163811   7.908  10.665  12.217
87324SOL    HW263812   8.026  10.692  12.309
87325SOL     OW63813  11.089  13.037   2.404
87325SOL    HW163814  10.993  13.041   2.405
87325SOL    HW263815  11.112  13.043   2.312
87326SOL     OW63816   6.713  14.488   2.528
87326SOL    HW163817   6.725  14.393   2.528
87326SOL    HW263818   6.780  14.521   2.587
87327SOL     OW63819   3.692   7.624  12.011
87327SOL    HW163820   3.639   7.686  11.961
87327SOL    HW263821   3.636   7.547  12.020
87328SOL     OW63822   1.777  12.369  10.509
87328SOL    HW163823   1.790  12.335  10.421
87328SOL    HW263824   1.786  12.292  10.566
87329SOL     OW63825   8.487   6.650   6.155
87329SOL    HW163826   8.432   6.706   6.101
87329SOL    HW263827   8.573   6.652   6.112
87330SOL     OW63828   6.982  12.700   2.407
87330SOL    HW163829   7.032  12.780   2.391
87330SOL    HW263830   6.899  12.713   2.361
87331SOL     OW63831   7.783   2.459   9.439
87331SOL    HW163832   7.839   2.535   9.426
87331SOL    HW263833   7.741   2.446   9.354
87332SOL     OW63834   0.455   8.987   2.189
87332SOL    HW163835   0.444   8.969   2.095
87332SOL    HW263836   0.481   9.079   2.193
87333SOL     OW63837  11.621  14.694   7.056
87333SOL    HW163838  11.660  14.662   7.137
87333SOL    HW263839  11.695  14.706   6.997
87334SOL     OW63840   2.570   4.631  10.999
87334SOL    HW163841   2.546   4.661  10.912
87334SOL    HW263842   2.507   4.562  11.019
87335SOL     OW63843  12.586   2.316   7.009
87335SOL    HW163844  12.624   2.399   7.037
87335SOL    HW263845  12.632   2.294   6.928
87336SOL     OW63846   9.148   1.833   7.163
87336SOL    HW163847   9.244   1.837   7.158
87336SOL    HW263848   9.127   1.742   7.143
87337SOL     OW63849   3.684   2.346   1.781
87337SOL    HW163850   3.662   2.432   1.745
87337SOL    HW263851   3.715   2.364   1.869
87338SOL     OW63852  12.982   5.613   5.306
87338SOL    HW163853  12.914   5.581   5.247
87338SOL    HW263854  12.968   5.565   5.388
87339SOL     OW63855   4.991   3.641   5.614
87339SOL    HW163856   4.985   3.580   5.687
87339SOL    HW263857   4.977   3.587   5.536
87340SOL     OW63858  14.832   6.583   3.914
87340SOL    HW163859  14.820   6.620   3.827
87340SOL    HW263860  14.753   6.533   3.931
87341SOL     OW63861   8.796   2.935   1.153
87341SOL    HW163862   8.782   3.024   1.187
87341SOL    HW263863   8.713   2.890   1.168
87342SOL     OW63864   0.200  12.307  13.166
87342SOL    HW163865   0.164  12.218  13.158
87342SOL    HW263866   0.130  12.358  13.206
87343SOL     OW63867   0.810   0.135   5.244
87343SOL    HW163868   0.818   0.111   5.151
87343SOL    HW263869   0.723   0.172   5.251
87344SOL     OW63870   6.340   6.191   3.431
87344SOL    HW163871   6.271   6.125   3.432
87344SOL    HW263872   6.309   6.257   3.368
87345SOL     OW63873   4.208  10.428  13.564
87345SOL    HW163874   4.229  10.499  13.504
87345SOL    HW263875   4.289  10.415  13.614
87346SOL     OW63876   8.260   2.483  11.325
87346SOL    HW163877   8.262   2.445  11.413
87346SOL    HW263878   8.322   2.429  11.275
87347SOL     OW63879   2.981   6.076   7.625
87347SOL    HW163880   3.004   6.040   7.711
87347SOL    HW263881   2.885   6.083   7.628
87348SOL     OW63882  13.068   5.007   0.916
87348SOL    HW163883  12.976   5.002   0.890
87348SOL    HW263884  13.115   5.031   0.836
87349SOL     OW63885  10.092   7.133   0.844
87349SOL    HW163886  10.082   7.112   0.937
87349SOL    HW263887  10.187   7.140   0.831
87350SOL     OW63888   6.225   6.932   5.696
87350SOL    HW163889   6.237   6.909   5.603
87350SOL    HW263890   6.146   6.987   5.697
87351SOL     OW63891  11.441   0.421   1.000
87351SOL    HW163892  11.416   0.339   0.957
87351SOL    HW263893  11.474   0.394   1.085
87352SOL     OW63894   9.442   7.730   1.935
87352SOL    HW163895   9.433   7.695   2.024
87352SOL    HW263896   9.513   7.793   1.941
87353SOL     OW63897  13.806  12.254  12.897
87353SOL    HW163898  13.727  12.250  12.842
87353SOL    HW263899  13.811  12.167  12.937
87354SOL     OW63900   1.078   9.065   3.142
87354SOL    HW163901   1.020   9.101   3.075
87354SOL    HW263902   1.128   8.997   3.097
87355SOL     OW63903   5.696   9.882   6.601
87355SOL    HW163904   5.653   9.840   6.526
87355SOL    HW263905   5.630   9.939   6.639
87356SOL     OW63906   1.819   3.219  11.615
87356SOL    HW163907   1.867   3.300  11.598
87356SOL    HW263908   1.887   3.151  11.617
87357SOL     OW63909  10.860   2.091   8.601
87357SOL    HW163910  10.877   2.066   8.691
87357SOL    HW263911  10.941   2.133   8.572
87358SOL     OW63912   5.521   1.987   7.492
87358SOL    HW163913   5.427   1.996   7.478
87358SOL    HW263914   5.531   1.980   7.587
87359SOL     OW63915  14.295   8.982   9.525
87359SOL    HW163916  14.353   9.056   9.541
87359SOL    HW263917  14.353   8.912   9.497
87360SOL     OW63918  13.067   7.051   4.038
87360SOL    HW163919  13.086   7.110   4.110
87360SOL    HW263920  12.977   7.071   4.014
87361SOL     OW63921  11.444   9.260   1.536
87361SOL    HW163922  11.488   9.302   1.462
87361SOL    HW263923  11.416   9.333   1.592
87362SOL     OW63924   4.975   0.732   3.056
87362SOL    HW163925   4.957   0.809   3.110
87362SOL    HW263926   4.915   0.740   2.982
87363SOL     OW63927   6.519   5.168  13.573
87363SOL    HW163928   6.431   5.177  13.611
87363SOL    HW263929   6.577   5.210  13.636
87364SOL     OW63930   7.201   3.553   1.782
87364SOL    HW163931   7.238   3.602   1.709
87364SOL    HW263932   7.150   3.617   1.832
87365SOL     OW63933  14.125   7.003   4.626
87365SOL    HW163934  14.216   6.993   4.598
87365SOL    HW263935  14.113   6.933   4.690
87366SOL     OW63936   4.907   7.944  11.375
87366SOL    HW163937   4.843   7.943  11.304
87366SOL    HW263938   4.878   7.875  11.435
87367SOL     OW63939  13.332   2.106   7.962
87367SOL    HW163940  13.412   2.069   7.924
87367SOL    HW263941  13.262   2.073   7.906
87368SOL     OW63942   8.484   0.483   4.177
87368SOL    HW163943   8.428   0.483   4.099
87368SOL    HW263944   8.556   0.424   4.155
87369SOL     OW63945  12.311   3.059   4.007
87369SOL    HW163946  12.241   3.035   3.946
87369SOL    HW263947  12.382   3.090   3.951
87370SOL     OW63948  12.798   1.707   7.209
87370SOL    HW163949  12.886   1.703   7.245
87370SOL    HW263950  12.761   1.620   7.225
87371SOL     OW63951  13.245  13.573   7.329
87371SOL    HW163952  13.222  13.490   7.373
87371SOL    HW263953  13.236  13.554   7.236
87372SOL     OW63954  14.654   8.820   1.318
87372SOL    HW163955  14.620   8.896   1.269
87372SOL    HW263956  14.639   8.843   1.410
87373SOL     OW63957   2.411  14.360   4.184
87373SOL    HW163958   2.399  14.280   4.235
87373SOL    HW263959   2.324  14.400   4.182
87374SOL     OW63960   9.859  14.516   9.062
87374SOL    HW163961   9.857  14.455   9.136
87374SOL    HW263962   9.834  14.600   9.099
87375SOL     OW63963  12.835   5.819   2.956
87375SOL    HW163964  12.858   5.907   2.985
87375SOL    HW263965  12.745   5.807   2.988
87376SOL     OW63966  10.872   4.426   1.290
87376SOL    HW163967  10.947   4.436   1.232
87376SOL    HW263968  10.852   4.516   1.318
87377SOL     OW63969  11.691   9.112   2.664
87377SOL    HW163970  11.728   9.050   2.727
87377SOL    HW263971  11.736   9.194   2.682
87378SOL     OW63972  10.104  14.428   4.224
87378SOL    HW163973  10.177  14.474   4.184
87378SOL    HW263974  10.073  14.368   4.156
87379SOL     OW63975   7.572   5.648  13.945
87379SOL    HW163976   7.541   5.726  13.991
87379SOL    HW263977   7.550   5.575  14.005
87380SOL     OW63978   6.940   9.495  10.638
87380SOL    HW163979   6.868   9.540  10.593
87380SOL    HW263980   6.934   9.525  10.729
87381SOL     OW63981  11.150  11.277  10.451
87381SOL    HW163982  11.156  11.263  10.356
87381SOL    HW263983  11.195  11.360  10.466
87382SOL     OW63984   6.198   8.693  11.257
87382SOL    HW163985   6.109   8.726  11.271
87382SOL    HW263986   6.253   8.748  11.313
87383SOL     OW63987   1.750   8.581   9.212
87383SOL    HW163988   1.811   8.589   9.139
87383SOL    HW263989   1.778   8.502   9.259
87384SOL     OW63990   9.879   9.312   9.484
87384SOL    HW163991   9.950   9.258   9.519
87384SOL    HW263992   9.923   9.385   9.441
87385SOL     OW63993   9.527   2.843   7.495
87385SOL    HW163994   9.548   2.836   7.402
87385SOL    HW263995   9.564   2.927   7.521
87386SOL     OW63996   8.019  13.919  12.271
87386SOL    HW163997   7.956  13.912  12.342
87386SOL    HW263998   8.104  13.900  12.311
87387SOL     OW63999   4.522  11.136   1.463
87387SOL    HW164000   4.473  11.158   1.383
87387SOL    HW264001   4.455  11.137   1.532
87388SOL     OW64002   0.959  14.189   9.044
87388SOL    HW164003   0.984  14.249   9.114
87388SOL    HW264004   0.899  14.127   9.085
87389SOL     OW64005  13.846   0.184  12.844
87389SOL    HW164006  13.767   0.130  12.840
87389SOL    HW264007  13.860   0.212  12.754
87390SOL     OW64008   8.092   0.932  14.685
87390SOL    HW164009   8.001   0.910  14.702
87390SOL    HW264010   8.136   0.917  14.769
87391SOL     OW64011  10.503   1.230   2.731
87391SOL    HW164012  10.580   1.206   2.782
87391SOL    HW264013  10.471   1.148   2.695
87392SOL     OW64014  12.415   3.295   5.355
87392SOL    HW164015  12.398   3.267   5.445
87392SOL    HW264016  12.330   3.323   5.322
87393SOL     OW64017  10.748   8.409  13.383
87393SOL    HW164018  10.771   8.477  13.319
87393SOL    HW264019  10.663   8.376  13.354
87394SOL     OW64020   0.463   3.071   6.629
87394SOL    HW164021   0.411   2.997   6.596
87394SOL    HW264022   0.511   3.035   6.703
87395SOL     OW64023   8.480   4.063   2.026
87395SOL    HW164024   8.388   4.054   2.003
87395SOL    HW264025   8.527   4.024   1.953
87396SOL     OW64026  14.716   5.437  10.007
87396SOL    HW164027  14.644   5.463   9.949
87396SOL    HW264028  14.767   5.374   9.957
87397SOL     OW64029   8.600   7.238   8.327
87397SOL    HW164030   8.679   7.186   8.343
87397SOL    HW264031   8.554   7.239   8.411
87398SOL     OW64032   3.679   2.929  11.376
87398SOL    HW164033   3.645   2.905  11.290
87398SOL    HW264034   3.603   2.924  11.434
87399SOL     OW64035   4.815  12.774   0.567
87399SOL    HW164036   4.781  12.754   0.480
87399SOL    HW264037   4.773  12.857   0.590
87400SOL     OW64038   0.551   4.516   6.399
87400SOL    HW164039   0.548   4.558   6.485
87400SOL    HW264040   0.459   4.505   6.375
87401SOL     OW64041   6.442   7.369  13.064
87401SOL    HW164042   6.526   7.406  13.037
87401SOL    HW264043   6.436   7.389  13.157
87402SOL     OW64044   0.961   8.527  10.717
87402SOL    HW164045   0.946   8.458  10.653
87402SOL    HW264046   1.053   8.518  10.742
87403SOL     OW64047   5.189  14.549   3.823
87403SOL    HW164048   5.276  14.528   3.856
87403SOL    HW264049   5.204  14.598   3.743
87404SOL     OW64050  12.740  10.294  12.309
87404SOL    HW164051  12.700  10.214  12.341
87404SOL    HW264052  12.812  10.312  12.370
87405SOL     OW64053   2.133  14.613   1.207
87405SOL    HW164054   2.057  14.665   1.181
87405SOL    HW264055   2.108  14.523   1.186
87406SOL     OW64056   8.714   4.871   7.266
87406SOL    HW164057   8.714   4.936   7.197
87406SOL    HW264058   8.805   4.866   7.295
87407SOL     OW64059  14.780  13.559  10.965
87407SOL    HW164060  14.842  13.551  11.037
87407SOL    HW264061  14.820  13.510  10.893
87408SOL     OW64062   0.547   1.793   4.674
87408SOL    HW164063   0.639   1.805   4.696
87408SOL    HW264064   0.500   1.812   4.755
87409SOL     OW64065  12.863  12.600   8.952
87409SOL    HW164066  12.902  12.561   9.030
87409SOL    HW264067  12.817  12.527   8.909
87410SOL     OW64068   4.681   2.031  10.452
87410SOL    HW164069   4.667   2.088  10.528
87410SOL    HW264070   4.635   2.075  10.380
87411SOL     OW64071  11.416  10.652   8.398
87411SOL    HW164072  11.345  10.706   8.363
87411SOL    HW264073  11.418  10.576   8.340
87412SOL     OW64074   7.814   8.283   2.617
87412SOL    HW164075   7.903   8.284   2.653
87412SOL    HW264076   7.812   8.357   2.557
87413SOL     OW64077  13.215   9.348  11.603
87413SOL    HW164078  13.205   9.330  11.510
87413SOL    HW264079  13.209   9.443  11.610
87414SOL     OW64080   6.568   9.521   7.312
87414SOL    HW164081   6.625   9.597   7.301
87414SOL    HW264082   6.488   9.545   7.265
87415SOL     OW64083  10.162   1.628  11.966
87415SOL    HW164084  10.153   1.719  11.938
87415SOL    HW264085  10.226   1.590  11.906
87416SOL     OW64086   7.904  11.634  13.698
87416SOL    HW164087   7.868  11.587  13.773
87416SOL    HW264088   7.959  11.569  13.653
87417SOL     OW64089   7.047   9.707  11.527
87417SOL    HW164090   7.050   9.803  11.521
87417SOL    HW264091   7.070   9.678  11.439
87418SOL     OW64092   8.455   2.339  11.227
87418SOL    HW164093   8.543   2.319  11.258
87418SOL    HW264094   8.438   2.275  11.158
87419SOL     OW64095  13.870   2.336   4.375
87419SOL    HW164096  13.789   2.312   4.330
87419SOL    HW264097  13.934   2.348   4.305
87420SOL     OW64098   9.899   0.672  14.435
87420SOL    HW164099   9.888   0.613  14.510
87420SOL    HW264100   9.810   0.691  14.407
87421SOL     OW64101  12.393   5.246   2.621
87421SOL    HW164102  12.450   5.314   2.584
87421SOL    HW264103  12.353   5.288   2.697
87422SOL     OW64104   3.261   5.530   1.785
87422SOL    HW164105   3.188   5.487   1.830
87422SOL    HW264106   3.324   5.548   1.854
87423SOL     OW64107   6.152   9.219  10.773
87423SOL    HW164108   6.102   9.213  10.691
87423SOL    HW264109   6.243   9.221  10.745
87424SOL     OW64110   3.023   2.314   1.885
87424SOL    HW164111   3.024   2.396   1.836
87424SOL    HW264112   3.044   2.247   1.820
87425SOL     OW64113   2.969   7.788  11.842
87425SOL    HW164114   2.918   7.869  11.833
87425SOL    HW264115   2.924   7.739  11.911
87426SOL     OW64116   6.986   8.157   5.133
87426SOL    HW164117   6.917   8.176   5.197
87426SOL    HW264118   7.030   8.080   5.168
87427SOL     OW64119   2.297   7.510   9.845
87427SOL    HW164120   2.275   7.588   9.895
87427SOL    HW264121   2.236   7.510   9.771
87428SOL     OW64122  10.342  11.726   6.273
87428SOL    HW164123  10.290  11.647   6.284
87428SOL    HW264124  10.325  11.777   6.352
87429SOL     OW64125   7.412   0.838  10.296
87429SOL    HW164126   7.320   0.821  10.316
87429SOL    HW264127   7.420   0.933  10.295
87430SOL     OW64128   6.110  10.239  10.021
87430SOL    HW164129   6.079  10.293  10.094
87430SOL    HW264130   6.038  10.243   9.957
87431SOL     OW64131   4.334   1.984  13.969
87431SOL    HW164132   4.286   2.049  13.918
87431SOL    HW264133   4.295   1.900  13.945
87432SOL     OW64134   9.349   4.478   8.517
87432SOL    HW164135   9.435   4.464   8.557
87432SOL    HW264136   9.364   4.547   8.452
87433SOL     OW64137  12.384   2.865  10.529
87433SOL    HW164138  12.417   2.777  10.548
87433SOL    HW264139  12.314   2.851  10.466
87434SOL     OW64140   2.612  13.865   8.547
87434SOL    HW164141   2.690  13.915   8.520
87434SOL    HW264142   2.548  13.881   8.478
87435SOL     OW64143  14.661   1.845  10.687
87435SOL    HW164144  14.574   1.855  10.649
87435SOL    HW264145  14.648   1.785  10.760
87436SOL     OW64146   8.080   8.633   6.094
87436SOL    HW164147   7.998   8.588   6.116
87436SOL    HW264148   8.065   8.724   6.120
87437SOL     OW64149  14.851   1.209   5.391
87437SOL    HW164150  14.787   1.274   5.361
87437SOL    HW264151   0.048   1.260   5.416
87438SOL     OW64152   2.907  10.249   6.709
87438SOL    HW164153   2.918  10.166   6.662
87438SOL    HW264154   2.996  10.280   6.725
87439SOL     OW64155  11.742  14.664   4.323
87439SOL    HW164156  11.803  14.701   4.260
87439SOL    HW264157  11.706  14.739   4.370
87440SOL     OW64158   4.668   1.351   4.725
87440SOL    HW164159   4.578   1.384   4.717
87440SOL    HW264160   4.658   1.256   4.733
87441SOL     OW64161  13.627  11.767  14.038
87441SOL    HW164162  13.692  11.714  13.991
87441SOL    HW264163  13.669  11.852  14.048
87442SOL     OW64164   2.663   2.186  10.589
87442SOL    HW164165   2.727   2.256  10.603
87442SOL    HW264166   2.612   2.184  10.670
87443SOL     OW64167  12.464   8.681   8.016
87443SOL    HW164168  12.444   8.588   8.005
87443SOL    HW264169  12.550   8.693   7.977
87444SOL     OW64170   0.398   5.078   5.282
87444SOL    HW164171   0.466   5.080   5.350
87444SOL    HW264172   0.425   5.009   5.222
87445SOL     OW64173  14.054   9.769   4.305
87445SOL    HW164174  14.114   9.781   4.379
87445SOL    HW264175  14.092   9.821   4.234
87446SOL     OW64176   1.850   2.022  10.756
87446SOL    HW164177   1.909   1.986  10.690
87446SOL    HW264178   1.775   2.054  10.705
87447SOL     OW64179  13.250   9.144   5.429
87447SOL    HW164180  13.336   9.102   5.424
87447SOL    HW264181  13.237   9.161   5.522
87448SOL     OW64182   4.856  12.504   5.692
87448SOL    HW164183   4.831  12.412   5.699
87448SOL    HW264184   4.777  12.552   5.719
87449SOL     OW64185  13.201  14.490  14.251
87449SOL    HW164186  13.234  14.487  14.341
87449SOL    HW264187  13.106  14.486  14.261
87450SOL     OW64188   7.918  12.581  11.220
87450SOL    HW164189   7.905  12.490  11.194
87450SOL    HW264190   7.947  12.576  11.311
87451SOL     OW64191  13.334   4.251   8.774
87451SOL    HW164192  13.415   4.200   8.775
87451SOL    HW264193  13.266   4.188   8.797
87452SOL     OW64194  13.037   7.612   8.871
87452SOL    HW164195  12.989   7.577   8.946
87452SOL    HW264196  13.125   7.577   8.879
87453SOL     OW64197   9.247  14.286   1.962
87453SOL    HW164198   9.153  14.304   1.969
87453SOL    HW264199   9.286  14.335   2.034
87454SOL     OW64200  13.714   1.152   9.029
87454SOL    HW164201  13.774   1.093   8.982
87454SOL    HW264202  13.684   1.213   8.961
87455SOL     OW64203   7.124  10.032   4.713
87455SOL    HW164204   7.095  10.065   4.798
87455SOL    HW264205   7.158   9.944   4.732
87456SOL     OW64206  13.683  11.859  10.325
87456SOL    HW164207  13.729  11.941  10.306
87456SOL    HW264208  13.602  11.865  10.275
87457SOL     OW64209  14.775   4.024   8.039
87457SOL    HW164210  14.846   4.073   7.999
87457SOL    HW264211  14.715   4.005   7.966
87458SOL     OW64212   8.744   7.511  12.928
87458SOL    HW164213   8.756   7.426  12.970
87458SOL    HW264214   8.704   7.491  12.844
87459SOL     OW64215   6.830   6.037  10.764
87459SOL    HW164216   6.735   6.029  10.756
87459SOL    HW264217   6.843   6.113  10.820
87460SOL     OW64218   4.177  11.901   1.405
87460SOL    HW164219   4.261  11.938   1.380
87460SOL    HW264220   4.118  11.924   1.332
87461SOL     OW64221  11.953   2.606   7.592
87461SOL    HW164222  11.974   2.540   7.526
87461SOL    HW264223  11.897   2.669   7.546
87462SOL     OW64224  13.676  13.621   6.685
87462SOL    HW164225  13.726  13.661   6.613
87462SOL    HW264226  13.685  13.527   6.671
87463SOL     OW64227   1.532  14.543   3.810
87463SOL    HW164228   1.454  14.597   3.827
87463SOL    HW264229   1.499  14.454   3.806
87464SOL     OW64230   5.751  13.054  10.318
87464SOL    HW164231   5.811  13.051  10.243
87464SOL    HW264232   5.711  13.141  10.314
87465SOL     OW64233   6.559   6.138  14.498
87465SOL    HW164234   6.464   6.149  14.487
87465SOL    HW264235   6.574   6.151  14.591
87466SOL     OW64236   5.769   4.955   7.544
87466SOL    HW164237   5.756   5.049   7.539
87466SOL    HW264238   5.748   4.923   7.457
87467SOL     OW64239   7.814   8.609  11.640
87467SOL    HW164240   7.806   8.700  11.669
87467SOL    HW264241   7.724   8.579  11.629
87468SOL     OW64242  12.453   1.517   1.710
87468SOL    HW164243  12.516   1.589   1.710
87468SOL    HW264244  12.449   1.488   1.619
87469SOL     OW64245   9.048  13.433  12.031
87469SOL    HW164246   8.987  13.443  11.958
87469SOL    HW264247   9.119  13.494  12.012
87470SOL     OW64248   4.907  10.391   7.197
87470SOL    HW164249   4.961  10.313   7.206
87470SOL    HW264250   4.949  10.457   7.253
87471SOL     OW64251   1.878  10.425   4.495
87471SOL    HW164252   1.783  10.413   4.493
87471SOL    HW264253   1.895  10.495   4.431
87472SOL     OW64254  11.595   7.605   5.050
87472SOL    HW164255  11.528   7.621   5.115
87472SOL    HW264256  11.593   7.683   4.994
87473SOL     OW64257   8.883   0.836   9.488
87473SOL    HW164258   8.956   0.889   9.522
87473SOL    HW264259   8.925   0.767   9.437
87474SOL     OW64260  14.252  13.205  14.263
87474SOL    HW164261  14.308  13.266  14.310
87474SOL    HW264262  14.298  13.121  14.269
87475SOL     OW64263   2.427   2.496  14.470
87475SOL    HW164264   2.401   2.443  14.395
87475SOL    HW264265   2.509   2.456  14.500
87476SOL     OW64266   7.811   3.905   6.228
87476SOL    HW164267   7.733   3.916   6.283
87476SOL    HW264268   7.851   3.991   6.227
87477SOL     OW64269   3.497   3.177   0.315
87477SOL    HW164270   3.402   3.189   0.306
87477SOL    HW264271   3.521   3.123   0.240
87478SOL     OW64272  12.598   9.497   5.079
87478SOL    HW164273  12.539   9.480   5.006
87478SOL    HW264274  12.684   9.471   5.048
87479SOL     OW64275   9.990  14.768  12.461
87479SOL    HW164276  10.035  14.769  12.546
87479SOL    HW264277   9.958  14.678  12.452
87480SOL     OW64278   3.225   1.933  11.308
87480SOL    HW164279   3.222   1.890  11.223
87480SOL    HW264280   3.319   1.939  11.328
87481SOL     OW64281   6.453  12.283   0.841
87481SOL    HW164282   6.469  12.254   0.931
87481SOL    HW264283   6.515  12.233   0.789
87482SOL     OW64284  10.372  13.284   1.298
87482SOL    HW164285  10.457  13.242   1.312
87482SOL    HW264286  10.312  13.212   1.278
87483SOL     OW64287   1.004   6.483   3.274
87483SOL    HW164288   1.033   6.517   3.359
87483SOL    HW264289   1.025   6.553   3.212
87484SOL     OW64290  14.114   5.892  10.156
87484SOL    HW164291  14.149   5.951  10.223
87484SOL    HW264292  14.150   5.926  10.074
87485SOL     OW64293   8.805   2.020  10.211
87485SOL    HW164294   8.866   2.049  10.280
87485SOL    HW264295   8.819   2.083  10.140
87486SOL     OW64296   4.064   3.986   1.692
87486SOL    HW164297   3.975   4.023   1.690
87486SOL    HW264298   4.105   4.018   1.612
87487SOL     OW64299   5.837   6.375   6.226
87487SOL    HW164300   5.823   6.294   6.177
87487SOL    HW264301   5.851   6.346   6.316
87488SOL     OW64302  12.236   2.812  12.998
87488SOL    HW164303  12.179   2.739  13.022
87488SOL    HW264304  12.177   2.879  12.964
87489SOL     OW64305   0.410   3.634   5.152
87489SOL    HW164306   0.350   3.659   5.222
87489SOL    HW264307   0.405   3.539   5.148
87490SOL     OW64308   3.627  10.467  13.288
87490SOL    HW164309   3.722  10.456  13.298
87490SOL    HW264310   3.590  10.426  13.366
87491SOL     OW64311   6.962   6.605   5.400
87491SOL    HW164312   6.933   6.626   5.489
87491SOL    HW264313   7.051   6.639   5.396
87492SOL     OW64314   6.909   8.018   1.786
87492SOL    HW164315   6.939   7.957   1.719
87492SOL    HW264316   6.984   8.076   1.802
87493SOL     OW64317   6.372  14.420   3.151
87493SOL    HW164318   6.437  14.466   3.098
87493SOL    HW264319   6.423  14.357   3.202
87494SOL     OW64320  13.431   4.213   2.974
87494SOL    HW164321  13.372   4.287   2.960
87494SOL    HW264322  13.383   4.155   3.032
87495SOL     OW64323  12.095   6.753   4.243
87495SOL    HW164324  12.173   6.699   4.254
87495SOL    HW264325  12.127   6.833   4.201
87496SOL     OW64326   9.871  10.390  11.179
87496SOL    HW164327   9.916  10.473  11.162
87496SOL    HW264328   9.832  10.400  11.265
87497SOL     OW64329  10.424  11.597  10.460
87497SOL    HW164330  10.392  11.569  10.545
87497SOL    HW264331  10.453  11.517  10.417
87498SOL     OW64332   6.872   9.229   4.016
87498SOL    HW164333   6.890   9.191   3.930
87498SOL    HW264334   6.959   9.242   4.054
87499SOL     OW64335   2.463   2.639   1.853
87499SOL    HW164336   2.532   2.614   1.914
87499SOL    HW264337   2.474   2.580   1.778
87500SOL     OW64338   8.726   1.479   2.410
87500SOL    HW164339   8.692   1.437   2.331
87500SOL    HW264340   8.817   1.499   2.390
87501SOL     OW64341   5.138   5.485  12.462
87501SOL    HW164342   5.228   5.480  12.430
87501SOL    HW264343   5.088   5.516  12.386
87502SOL     OW64344  14.746   8.306   1.486
87502SOL    HW164345  14.840   8.307   1.505
87502SOL    HW264346  14.724   8.396   1.463
87503SOL     OW64347  11.409  14.255   4.105
87503SOL    HW164348  11.378  14.219   4.188
87503SOL    HW264349  11.395  14.185   4.041
87504SOL     OW64350  10.201  14.154   3.536
87504SOL    HW164351  10.198  14.105   3.618
87504SOL    HW264352  10.147  14.103   3.476
87505SOL     OW64353   4.465   3.253   6.151
87505SOL    HW164354   4.409   3.176   6.142
87505SOL    HW264355   4.440   3.310   6.079
87506SOL     OW64356  13.015   1.770   8.111
87506SOL    HW164357  13.073   1.778   8.187
87506SOL    HW264358  13.005   1.676   8.099
87507SOL     OW64359  13.149   8.878   6.436
87507SOL    HW164360  13.189   8.894   6.351
87507SOL    HW264361  13.056   8.865   6.417
87508SOL     OW64362   1.849   1.297   0.170
87508SOL    HW164363   1.770   1.263   0.128
87508SOL    HW264364   1.834   1.392   0.175
87509SOL     OW64365   5.232  13.437  13.609
87509SOL    HW164366   5.286  13.512  13.634
87509SOL    HW264367   5.145  13.458  13.642
87510SOL     OW64368   5.038   7.763  13.237
87510SOL    HW164369   4.950   7.728  13.256
87510SOL    HW264370   5.059   7.818  13.312
87511SOL     OW64371   8.423  11.220  12.721
87511SOL    HW164372   8.463  11.303  12.746
87511SOL    HW264373   8.343  11.215  12.772
87512SOL     OW64374   9.438   9.637   4.240
87512SOL    HW164375   9.349   9.603   4.253
87512SOL    HW264376   9.428   9.705   4.174
87513SOL     OW64377  12.218   5.557  14.275
87513SOL    HW164378  12.134   5.517  14.252
87513SOL    HW264379  12.241   5.517  14.359
87514SOL     OW64380  10.049   3.877   5.585
87514SOL    HW164381  10.011   3.801   5.630
87514SOL    HW264382   9.999   3.883   5.503
87515SOL     OW64383   6.555   3.994   2.588
87515SOL    HW164384   6.544   4.085   2.614
87515SOL    HW264385   6.595   3.952   2.664
87516SOL     OW64386   6.267   7.435  13.894
87516SOL    HW164387   6.277   7.391  13.810
87516SOL    HW264388   6.309   7.378  13.957
87517SOL     OW64389   2.041  12.557  10.572
87517SOL    HW164390   2.003  12.644  10.558
87517SOL    HW264391   1.985  12.499  10.521
87518SOL     OW64392  14.467   9.575   7.490
87518SOL    HW164393  14.374   9.563   7.469
87518SOL    HW264394  14.500   9.486   7.503
87519SOL     OW64395  14.662  12.879   8.832
87519SOL    HW164396  14.730  12.813   8.848
87519SOL    HW264397  14.698  12.934   8.763
87520SOL     OW64398  12.483   5.750  12.620
87520SOL    HW164399  12.497   5.681  12.685
87520SOL    HW264400  12.395   5.734  12.586
87521SOL     OW64401   3.121  14.401   3.613
87521SOL    HW164402   3.068  14.469   3.655
87521SOL    HW264403   3.067  14.371   3.540
87522SOL     OW64404  13.394   2.213   7.425
87522SOL    HW164405  13.432   2.235   7.341
87522SOL    HW264406  13.384   2.297   7.470
87523SOL     OW64407  11.422   3.563   1.558
87523SOL    HW164408  11.411   3.468   1.562
87523SOL    HW264409  11.494   3.581   1.618
87524SOL     OW64410   6.444  12.596   0.787
87524SOL    HW164411   6.505  12.666   0.768
87524SOL    HW264412   6.496  12.528   0.830
87525SOL     OW64413   1.663   7.390   8.302
87525SOL    HW164414   1.746   7.361   8.339
87525SOL    HW264415   1.600   7.380   8.374
87526SOL     OW64416   1.494   5.998   1.249
87526SOL    HW164417   1.564   6.030   1.192
87526SOL    HW264418   1.539   5.952   1.319
87527SOL     OW64419  11.910   7.468   9.834
87527SOL    HW164420  11.870   7.381   9.841
87527SOL    HW264421  11.928   7.493   9.925
87528SOL     OW64422  10.373   0.379  12.928
87528SOL    HW164423  10.305   0.316  12.954
87528SOL    HW264424  10.328   0.441  12.871
87529SOL     OW64425   3.620  10.028   1.948
87529SOL    HW164426   3.682  10.020   1.875
87529SOL    HW264427   3.673  10.016   2.027
87530SOL     OW64428   1.075   8.384   5.351
87530SOL    HW164429   1.061   8.377   5.257
87530SOL    HW264430   1.170   8.387   5.362
87531SOL     OW64431   3.237  13.651  14.652
87531SOL    HW164432   3.223  13.742  14.628
87531SOL    HW264433   3.311  13.623  14.598
87532SOL     OW64434   6.734  11.510   5.391
87532SOL    HW164435   6.762  11.589   5.345
87532SOL    HW264436   6.715  11.447   5.323
87533SOL     OW64437  11.151   3.545  12.017
87533SOL    HW164438  11.107   3.469  11.978
87533SOL    HW264439  11.098   3.566  12.094
87534SOL     OW64440   9.676   8.868   1.074
87534SOL    HW164441   9.668   8.955   1.034
87534SOL    HW264442   9.650   8.807   1.004
87535SOL     OW64443   1.603   0.087   8.722
87535SOL    HW164444   1.683   0.112   8.677
87535SOL    HW264445   1.551   0.043   8.655
87536SOL     OW64446   4.410   8.713   2.568
87536SOL    HW164447   4.465   8.644   2.531
87536SOL    HW264448   4.350   8.736   2.497
87537SOL     OW64449   5.414  13.233  12.094
87537SOL    HW164450   5.497  13.209  12.053
87537SOL    HW264451   5.419  13.328  12.102
87538SOL     OW64452   0.542   1.584  12.711
87538SOL    HW164453   0.526   1.490  12.722
87538SOL    HW264454   0.621   1.588  12.656
87539SOL     OW64455   7.079   4.253   8.347
87539SOL    HW164456   7.149   4.317   8.358
87539SOL    HW264457   7.015   4.276   8.414
87540SOL     OW64458   8.022  10.937   3.491
87540SOL    HW164459   7.963  10.897   3.427
87540SOL    HW264460   8.034  11.026   3.461
87541SOL     OW64461   4.989   8.033   3.391
87541SOL    HW164462   4.895   8.031   3.406
87541SOL    HW264463   4.999   8.018   3.297
87542SOL     OW64464   8.424   1.721  12.962
87542SOL    HW164465   8.515   1.746  12.973
87542SOL    HW264466   8.402   1.675  13.044
87543SOL     OW64467   0.492   5.840  10.563
87543SOL    HW164468   0.451   5.796  10.489
87543SOL    HW264469   0.420   5.858  10.624
87544SOL     OW64470  10.171   7.601   8.434
87544SOL    HW164471  10.243   7.642   8.482
87544SOL    HW264472  10.214   7.555   8.361
87545SOL     OW64473  12.428  14.396  10.269
87545SOL    HW164474  12.479  14.321  10.239
87545SOL    HW264475  12.440  14.462  10.200
87546SOL     OW64476   6.478   5.843   5.658
87546SOL    HW164477   6.569   5.874   5.655
87546SOL    HW264478   6.469   5.787   5.581
87547SOL     OW64479  12.395   2.141  13.658
87547SOL    HW164480  12.405   2.226  13.615
87547SOL    HW264481  12.310   2.109  13.629
87548SOL     OW64482   9.269   9.047   4.063
87548SOL    HW164483   9.268   8.952   4.068
87548SOL    HW264484   9.271   9.066   3.969
87549SOL     OW64485   0.720   3.609  13.330
87549SOL    HW164486   0.709   3.519  13.361
87549SOL    HW264487   0.809   3.610  13.294
87550SOL     OW64488   7.150   8.591   0.955
87550SOL    HW164489   7.121   8.604   0.864
87550SOL    HW264490   7.217   8.658   0.969
87551SOL     OW64491  11.755  12.041  11.671
87551SOL    HW164492  11.823  12.108  11.673
87551SOL    HW264493  11.704  12.061  11.593
87552SOL     OW64494   0.220  13.276  12.404
87552SOL    HW164495   0.306  13.234  12.398
87552SOL    HW264496   0.217  13.336  12.330
87553SOL     OW64497  11.274   6.031  14.157
87553SOL    HW164498  11.365   6.009  14.134
87553SOL    HW264499  11.238   5.949  14.191
87554SOL     OW64500  13.827   9.021  14.852
87554SOL    HW164501  13.886   9.029   0.048
87554SOL    HW264502  13.776   9.102  14.854
87555SOL     OW64503   7.889   4.105   7.030
87555SOL    HW164504   7.841   4.138   7.106
87555SOL    HW264505   7.880   4.175   6.965
87556SOL     OW64506   4.367   3.008  14.675
87556SOL    HW164507   4.426   2.947  14.631
87556SOL    HW264508   4.308   3.038  14.606
87557SOL     OW64509  14.430  10.632   9.833
87557SOL    HW164510  14.446  10.697   9.902
87557SOL    HW264511  14.499  10.566   9.846
87558SOL     OW64512   7.796   8.571  14.602
87558SOL    HW164513   7.808   8.477  14.608
87558SOL    HW264514   7.710   8.582  14.561
87559SOL     OW64515   4.360  12.990   6.464
87559SOL    HW164516   4.355  13.013   6.557
87559SOL    HW264517   4.374  12.895   6.464
87560SOL     OW64518   4.821   1.171   7.916
87560SOL    HW164519   4.832   1.089   7.965
87560SOL    HW264520   4.731   1.197   7.933
87561SOL     OW64521  12.737   8.556   8.307
87561SOL    HW164522  12.738   8.505   8.226
87561SOL    HW264523  12.692   8.637   8.284
87562SOL     OW64524   5.893  12.370   8.020
87562SOL    HW164525   5.983  12.377   7.987
87562SOL    HW264526   5.883  12.277   8.042
87563SOL     OW64527  11.493   7.116   7.227
87563SOL    HW164528  11.533   7.197   7.260
87563SOL    HW264529  11.403   7.118   7.261
87564SOL     OW64530  10.429   6.294   5.706
87564SOL    HW164531  10.444   6.388   5.695
87564SOL    HW264532  10.479   6.254   5.635
87565SOL     OW64533   0.178   9.815  14.671
87565SOL    HW164534   0.218   9.893  14.634
87565SOL    HW264535   0.178   9.830  14.766
87566SOL     OW64536   9.348  10.918   5.431
87566SOL    HW164537   9.317  10.933   5.520
87566SOL    HW264538   9.287  10.853   5.395
87567SOL     OW64539  14.080  14.000  13.291
87567SOL    HW164540  14.069  13.979  13.198
87567SOL    HW264541  13.991  14.003  13.325
87568SOL     OW64542   5.471   7.178  10.140
87568SOL    HW164543   5.516   7.095  10.158
87568SOL    HW264544   5.480   7.228  10.220
87569SOL     OW64545   1.946  13.093   7.852
87569SOL    HW164546   1.886  13.155   7.811
87569SOL    HW264547   1.901  13.066   7.932
87570SOL     OW64548   9.212   9.456   7.210
87570SOL    HW164549   9.121   9.458   7.181
87570SOL    HW264550   9.207   9.467   7.305
87571SOL     OW64551   6.031   8.818   8.544
87571SOL    HW164552   6.032   8.741   8.601
87571SOL    HW264553   6.060   8.890   8.601
87572SOL     OW64554   5.771  12.059   7.113
87572SOL    HW164555   5.837  12.091   7.175
87572SOL    HW264556   5.816  11.990   7.064
87573SOL     OW64557   1.573   8.202  13.101
87573SOL    HW164558   1.518   8.175  13.174
87573SOL    HW264559   1.625   8.275  13.137
87574SOL     OW64560   7.272  12.927   6.874
87574SOL    HW164561   7.364  12.903   6.862
87574SOL    HW264562   7.227  12.890   6.798
87575SOL     OW64563   3.036   8.029  13.862
87575SOL    HW164564   3.068   7.966  13.798
87575SOL    HW264565   3.043   7.984  13.946
87576SOL     OW64566   3.113  14.706  13.257
87576SOL    HW164567   3.083  14.617  13.277
87576SOL    HW264568   3.032  14.755  13.242
87577SOL     OW64569   1.300   4.849  10.456
87577SOL    HW164570   1.262   4.870  10.371
87577SOL    HW264571   1.255   4.769  10.484
87578SOL     OW64572  11.775  13.694   4.432
87578SOL    HW164573  11.780  13.599   4.442
87578SOL    HW264574  11.806  13.728   4.516
87579SOL     OW64575   9.813   6.251   6.641
87579SOL    HW164576   9.789   6.163   6.672
87579SOL    HW264577   9.732   6.287   6.606
87580SOL     OW64578  14.413  14.814   1.493
87580SOL    HW164579  14.485  14.776   1.544
87580SOL    HW264580  14.452   0.007   1.445
87581SOL     OW64581   8.184  13.540  10.534
87581SOL    HW164582   8.274  13.530  10.501
87581SOL    HW264583   8.194  13.548  10.629
87582SOL     OW64584   0.674   9.888   2.167
87582SOL    HW164585   0.755   9.855   2.206
87582SOL    HW264586   0.660   9.833   2.090
87583SOL     OW64587   3.907   9.354   4.373
87583SOL    HW164588   3.970   9.389   4.436
87583SOL    HW264589   3.830   9.410   4.384
87584SOL     OW64590   2.071  12.277  11.047
87584SOL    HW164591   2.056  12.315  10.960
87584SOL    HW264592   2.122  12.198  11.029
87585SOL     OW64593   9.572   3.934   4.968
87585SOL    HW164594   9.633   3.904   4.900
87585SOL    HW264595   9.562   3.859   5.026
87586SOL     OW64596   4.682   7.470   6.194
87586SOL    HW164597   4.721   7.411   6.129
87586SOL    HW264598   4.727   7.553   6.180
87587SOL     OW64599   6.432   7.291  14.091
87587SOL    HW164600   6.447   7.345  14.169
87587SOL    HW264601   6.377   7.220  14.123
87588SOL     OW64602   3.528   1.365   6.352
87588SOL    HW164603   3.512   1.272   6.364
87588SOL    HW264604   3.484   1.386   6.269
87589SOL     OW64605  12.220   3.385   7.476
87589SOL    HW164606  12.303   3.429   7.495
87589SOL    HW264607  12.228   3.299   7.518
87590SOL     OW64608   2.672  14.488  12.935
87590SOL    HW164609   2.624  14.545  12.995
87590SOL    HW264610   2.760  14.483  12.972
87591SOL     OW64611  12.720   7.580  11.299
87591SOL    HW164612  12.755   7.503  11.255
87591SOL    HW264613  12.635   7.552  11.334
87592SOL     OW64614   5.266  12.934  13.119
87592SOL    HW164615   5.310  12.883  13.187
87592SOL    HW264616   5.335  12.990  13.083
87593SOL     OW64617   2.318   7.553  14.670
87593SOL    HW164618   2.263   7.602  14.730
87593SOL    HW264619   2.399   7.605  14.665
87594SOL     OW64620  13.119   1.606   5.482
87594SOL    HW164621  13.208   1.572   5.476
87594SOL    HW264622  13.113   1.671   5.413
87595SOL     OW64623   3.744   5.870   8.484
87595SOL    HW164624   3.838   5.871   8.464
87595SOL    HW264625   3.702   5.879   8.399
87596SOL     OW64626   9.254   1.435   9.308
87596SOL    HW164627   9.330   1.469   9.260
87596SOL    HW264628   9.219   1.366   9.251
87597SOL     OW64629   6.342   9.098  14.574
87597SOL    HW164630   6.384   9.018  14.606
87597SOL    HW264631   6.415   9.157  14.552
87598SOL     OW64632  13.269   3.432   9.401
87598SOL    HW164633  13.231   3.477   9.326
87598SOL    HW264634  13.216   3.352   9.410
87599SOL     OW64635   3.480   4.300   9.997
87599SOL    HW164636   3.432   4.269  10.074
87599SOL    HW264637   3.422   4.364   9.957
87600SOL     OW64638  14.019   8.156  10.066
87600SOL    HW164639  14.038   8.080  10.011
87600SOL    HW264640  14.102   8.202  10.075
87601SOL     OW64641  13.332   7.896   9.845
87601SOL    HW164642  13.402   7.961   9.835
87601SOL    HW264643  13.330   7.851   9.760
87602SOL     OW64644   9.417   6.531   2.318
87602SOL    HW164645   9.441   6.582   2.241
87602SOL    HW264646   9.497   6.483   2.341
87603SOL     OW64647  11.070   4.229   8.181
87603SOL    HW164648  11.081   4.315   8.141
87603SOL    HW264649  11.039   4.247   8.270
87604SOL     OW64650  12.318   4.575  13.391
87604SOL    HW164651  12.224   4.569  13.405
87604SOL    HW264652  12.350   4.626  13.466
87605SOL     OW64653   2.020   1.244   6.985
87605SOL    HW164654   1.948   1.266   7.045
87605SOL    HW264655   1.976   1.218   6.903
87606SOL     OW64656   7.802   1.221   3.764
87606SOL    HW164657   7.882   1.216   3.711
87606SOL    HW264658   7.731   1.223   3.700
87607SOL     OW64659  14.789   9.878   8.379
87607SOL    HW164660  14.715   9.839   8.425
87607SOL    HW264661  14.850   9.806   8.366
87608SOL     OW64662  11.281   6.935  14.246
87608SOL    HW164663  11.344   6.868  14.272
87608SOL    HW264664  11.244   6.903  14.164
87609SOL     OW64665   1.770   7.901  14.635
87609SOL    HW164666   1.856   7.943  14.628
87609SOL    HW264667   1.752   7.870  14.547
87610SOL     OW64668   9.620   5.487  14.491
87610SOL    HW164669   9.695   5.534  14.454
87610SOL    HW264670   9.638   5.481  14.585
87611SOL     OW64671   3.367   9.216  14.346
87611SOL    HW164672   3.440   9.174  14.393
87611SOL    HW264673   3.334   9.148  14.288
87612SOL     OW64674   5.905  14.285   9.222
87612SOL    HW164675   5.819  14.254   9.251
87612SOL    HW264676   5.949  14.207   9.189
87613SOL     OW64677  13.769  14.785   6.320
87613SOL    HW164678  13.725  14.704   6.297
87613SOL    HW264679  13.808  14.815   6.238
87614SOL     OW64680  11.670   9.325  13.058
87614SOL    HW164681  11.662   9.417  13.084
87614SOL    HW264682  11.596   9.310  12.999
87615SOL     OW64683   6.346  14.002  13.172
87615SOL    HW164684   6.348  13.914  13.210
87615SOL    HW264685   6.253  14.020  13.160
87616SOL     OW64686   9.404   3.531   9.116
87616SOL    HW164687   9.355   3.473   9.175
87616SOL    HW264688   9.344   3.603   9.098
87617SOL     OW64689   0.495   8.236  11.549
87617SOL    HW164690   0.528   8.180  11.620
87617SOL    HW264691   0.562   8.231  11.481
87618SOL     OW64692   7.063   9.944   7.959
87618SOL    HW164693   7.050   9.894   8.040
87618SOL    HW264694   6.991   9.917   7.903
87619SOL     OW64695   9.267  13.080  10.127
87619SOL    HW164696   9.249  12.989  10.152
87619SOL    HW264697   9.348  13.074  10.075
87620SOL     OW64698   4.463  11.205   5.728
87620SOL    HW164699   4.533  11.222   5.665
87620SOL    HW264700   4.502  11.147   5.793
87621SOL     OW64701   5.460   5.686  13.528
87621SOL    HW164702   5.405   5.764  13.530
87621SOL    HW264703   5.523   5.703  13.458
87622SOL     OW64704   7.640  10.611   3.683
87622SOL    HW164705   7.638  10.534   3.626
87622SOL    HW264706   7.713  10.594   3.743
87623SOL     OW64707  12.783  13.115   4.804
87623SOL    HW164708  12.734  13.085   4.880
87623SOL    HW264709  12.874  13.089   4.822
87624SOL     OW64710   3.109  10.394   0.991
87624SOL    HW164711   3.158  10.433   1.063
87624SOL    HW264712   3.019  10.388   1.022
87625SOL     OW64713   0.100  10.591   0.328
87625SOL    HW164714   0.170  10.623   0.271
87625SOL    HW264715   0.089  10.659   0.394
87626SOL     OW64716  10.985   2.452   2.537
87626SOL    HW164717  11.037   2.387   2.584
87626SOL    HW264718  11.016   2.446   2.446
87627SOL     OW64719   3.254  10.264   4.239
87627SOL    HW164720   3.231  10.239   4.328
87627SOL    HW264721   3.172  10.259   4.190
87628SOL     OW64722   3.328   7.704   9.354
87628SOL    HW164723   3.416   7.668   9.344
87628SOL    HW264724   3.270   7.627   9.353
87629SOL     OW64725   0.031   8.548  13.189
87629SOL    HW164726   0.014   8.578  13.099
87629SOL    HW264727   0.061   8.626  13.235
87630SOL     OW64728   6.630   6.113  12.897
87630SOL    HW164729   6.722   6.107  12.922
87630SOL    HW264730   6.593   6.028  12.922
87631SOL     OW64731   6.484   3.590   7.037
87631SOL    HW164732   6.451   3.509   7.076
87631SOL    HW264733   6.418   3.614   6.972
87632SOL     OW64734  12.282   4.755   2.014
87632SOL    HW164735  12.231   4.692   2.064
87632SOL    HW264736  12.259   4.840   2.050
87633SOL     OW64737   4.795   2.718   7.224
87633SOL    HW164738   4.755   2.700   7.309
87633SOL    HW264739   4.722   2.740   7.167
87634SOL     OW64740   2.110   9.731   5.226
87634SOL    HW164741   2.062   9.744   5.144
87634SOL    HW264742   2.052   9.675   5.278
87635SOL     OW64743   0.231   8.123   8.731
87635SOL    HW164744   0.281   8.067   8.791
87635SOL    HW264745   0.298   8.163   8.675
87636SOL     OW64746  10.618  10.184   5.577
87636SOL    HW164747  10.651  10.193   5.487
87636SOL    HW264748  10.582  10.095   5.581
87637SOL     OW64749   4.441   4.782  11.534
87637SOL    HW164750   4.386   4.846  11.580
87637SOL    HW264751   4.477   4.727  11.604
87638SOL     OW64752   9.790  13.286   0.140
87638SOL    HW164753   9.733  13.338   0.083
87638SOL    HW264754   9.845  13.236   0.079
87639SOL     OW64755   5.209   7.961   9.076
87639SOL    HW164756   5.303   7.972   9.063
87639SOL    HW264757   5.170   8.036   9.032
87640SOL     OW64758   5.779   7.104  14.630
87640SOL    HW164759   5.828   7.187  14.638
87640SOL    HW264760   5.720   7.104  14.706
87641SOL     OW64761   0.047  10.746   9.232
87641SOL    HW164762   0.117  10.804   9.263
87641SOL    HW264763   0.085  10.658   9.238
87642SOL     OW64764   4.234  14.504  13.034
87642SOL    HW164765   4.250  14.558  12.957
87642SOL    HW264766   4.167  14.550  13.083
87643SOL     OW64767   3.458  10.178   9.145
87643SOL    HW164768   3.527  10.173   9.078
87643SOL    HW264769   3.395  10.240   9.108
87644SOL     OW64770  13.339   0.092   7.747
87644SOL    HW164771  13.432   0.102   7.769
87644SOL    HW264772  13.302   0.179   7.762
87645SOL     OW64773  11.769   3.440   9.765
87645SOL    HW164774  11.792   3.427   9.673
87645SOL    HW264775  11.821   3.375   9.812
87646SOL     OW64776   6.855  11.226  12.757
87646SOL    HW164777   6.924  11.251  12.819
87646SOL    HW264778   6.774  11.254  12.799
87647SOL     OW64779   7.360   7.481   7.409
87647SOL    HW164780   7.407   7.546   7.461
87647SOL    HW264781   7.423   7.451   7.345
87648SOL     OW64782  12.051   7.208  13.359
87648SOL    HW164783  12.135   7.236  13.324
87648SOL    HW264784  12.056   7.230  13.452
87649SOL     OW64785   2.328   7.806   9.981
87649SOL    HW164786   2.365   7.803  10.070
87649SOL    HW264787   2.246   7.854   9.991
87650SOL     OW64788   6.225  12.053   0.356
87650SOL    HW164789   6.275  12.130   0.328
87650SOL    HW264790   6.148  12.053   0.300
87651SOL     OW64791  12.907   3.306   3.390
87651SOL    HW164792  12.987   3.357   3.402
87651SOL    HW264793  12.872   3.336   3.306
87652SOL     OW64794   8.350   5.613   9.692
87652SOL    HW164795   8.377   5.676   9.625
87652SOL    HW264796   8.263   5.644   9.719
87653SOL     OW64797   5.964   2.541  10.217
87653SOL    HW164798   5.924   2.575  10.297
87653SOL    HW264799   6.057   2.558  10.227
87654SOL     OW64800   9.787   6.353   4.688
87654SOL    HW164801   9.699   6.330   4.658
87654SOL    HW264802   9.831   6.268   4.698
87655SOL     OW64803  10.592   4.469  14.625
87655SOL    HW164804  10.552   4.530  14.564
87655SOL    HW264805  10.537   4.390  14.619
87656SOL     OW64806  14.306   8.223  10.756
87656SOL    HW164807  14.306   8.138  10.800
87656SOL    HW264808  14.350   8.206  10.672
87657SOL     OW64809   6.330   3.334   3.725
87657SOL    HW164810   6.330   3.381   3.808
87657SOL    HW264811   6.267   3.263   3.738
87658SOL     OW64812   3.043   6.654  10.438
87658SOL    HW164813   3.026   6.623  10.527
87658SOL    HW264814   3.009   6.584  10.382
87659SOL     OW64815   5.486   7.330   9.553
87659SOL    HW164816   5.538   7.272   9.498
87659SOL    HW264817   5.479   7.285   9.637
87660SOL     OW64818   2.907   7.658   0.283
87660SOL    HW164819   2.999   7.655   0.257
87660SOL    HW264820   2.882   7.750   0.273
87661SOL     OW64821  10.258   7.833  11.242
87661SOL    HW164822  10.345   7.834  11.203
87661SOL    HW264823  10.273   7.825  11.336
87662SOL     OW64824   8.324  11.249   3.451
87662SOL    HW164825   8.408  11.209   3.474
87662SOL    HW264826   8.304  11.307   3.524
87663SOL     OW64827  14.312   9.661  13.694
87663SOL    HW164828  14.350   9.744  13.723
87663SOL    HW264829  14.387   9.610  13.663
87664SOL     OW64830   3.371   0.905  12.524
87664SOL    HW164831   3.354   0.983  12.577
87664SOL    HW264832   3.284   0.871  12.503
87665SOL     OW64833   9.351   1.837  12.420
87665SOL    HW164834   9.417   1.897  12.455
87665SOL    HW264835   9.284   1.834  12.488
87666SOL     OW64836  13.568   6.130   6.443
87666SOL    HW164837  13.513   6.191   6.492
87666SOL    HW264838  13.560   6.047   6.491
87667SOL     OW64839  10.351   6.288  10.638
87667SOL    HW164840  10.256   6.296  10.626
87667SOL    HW264841  10.361   6.245  10.722
87668SOL     OW64842  13.003  14.240   5.140
87668SOL    HW164843  13.098  14.243   5.135
87668SOL    HW264844  12.976  14.332   5.133
87669SOL     OW64845   1.756  10.109   4.601
87669SOL    HW164846   1.731  10.195   4.634
87669SOL    HW264847   1.708  10.100   4.519
87670SOL     OW64848   7.098   5.109  12.262
87670SOL    HW164849   7.120   5.042  12.326
87670SOL    HW264850   7.074   5.061  12.183
87671SOL     OW64851  14.639   7.256  11.127
87671SOL    HW164852  14.545   7.246  11.145
87671SOL    HW264853  14.668   7.325  11.187
87672SOL     OW64854  12.071   1.869   8.697
87672SOL    HW164855  12.124   1.817   8.757
87672SOL    HW264856  12.041   1.806   8.631
87673SOL     OW64857   0.306   3.205  12.658
87673SOL    HW164858   0.388   3.167  12.688
87673SOL    HW264859   0.239   3.162  12.711
87674SOL     OW64860   2.163  12.044   0.392
87674SOL    HW164861   2.250  12.031   0.427
87674SOL    HW264862   2.134  12.128   0.429
87675SOL     OW64863   9.407   8.314  10.710
87675SOL    HW164864   9.479   8.262  10.746
87675SOL    HW264865   9.395   8.280  10.621
87676SOL     OW64866   4.011  11.782  14.540
87676SOL    HW164867   3.984  11.845  14.606
87676SOL    HW264868   4.051  11.834  14.471
87677SOL     OW64869   4.192   6.042   7.377
87677SOL    HW164870   4.162   5.964   7.331
87677SOL    HW264871   4.137   6.112   7.343
87678SOL     OW64872   3.903  12.354  14.428
87678SOL    HW164873   3.893  12.341  14.333
87678SOL    HW264874   3.876  12.270  14.466
87679SOL     OW64875   5.681   3.207   3.788
87679SOL    HW164876   5.709   3.267   3.856
87679SOL    HW264877   5.669   3.123   3.833
87680SOL     OW64878   9.535   8.846  10.262
87680SOL    HW164879   9.524   8.783  10.191
87680SOL    HW264880   9.585   8.799  10.329
87681SOL     OW64881   8.190   1.212  11.402
87681SOL    HW164882   8.166   1.266  11.477
87681SOL    HW264883   8.116   1.152  11.392
87682SOL     OW64884  12.103  13.108   8.760
87682SOL    HW164885  12.076  13.195   8.730
87682SOL    HW264886  12.166  13.125   8.830
87683SOL     OW64887   7.579   6.364   3.995
87683SOL    HW164888   7.634   6.385   3.920
87683SOL    HW264889   7.505   6.424   3.989
87684SOL     OW64890   1.854   6.221  14.307
87684SOL    HW164891   1.787   6.243  14.242
87684SOL    HW264892   1.900   6.147  14.268
87685SOL     OW64893   4.311   6.287  13.282
87685SOL    HW164894   4.299   6.267  13.375
87685SOL    HW264895   4.331   6.203  13.241
87686SOL     OW64896  10.391   5.695  13.248
87686SOL    HW164897  10.374   5.614  13.295
87686SOL    HW264898  10.304   5.728  13.225
87687SOL     OW64899  13.432  12.488   9.178
87687SOL    HW164900  13.507  12.435   9.205
87687SOL    HW264901  13.454  12.518   9.090
87688SOL     OW64902   1.791  13.774   8.042
87688SOL    HW164903   1.714  13.818   8.007
87688SOL    HW264904   1.835  13.841   8.095
87689SOL     OW64905   0.412  11.994  12.287
87689SOL    HW164906   0.440  11.926  12.348
87689SOL    HW264907   0.422  11.954  12.200
87690SOL     OW64908   2.639   4.626  10.496
87690SOL    HW164909   2.710   4.564  10.509
87690SOL    HW264910   2.639   4.644  10.402
87691SOL     OW64911   1.306  10.322  10.879
87691SOL    HW164912   1.212  10.306  10.874
87691SOL    HW264913   1.313  10.417  10.889
87692SOL     OW64914   8.693   8.747  13.055
87692SOL    HW164915   8.769   8.706  13.013
87692SOL    HW264916   8.658   8.805  12.988
87693SOL     OW64917   9.564  12.064  13.182
87693SOL    HW164918   9.517  12.139  13.147
87693SOL    HW264919   9.528  11.989  13.134
87694SOL     OW64920   9.689   3.061   8.690
87694SOL    HW164921   9.627   2.989   8.701
87694SOL    HW264922   9.701   3.095   8.778
87695SOL     OW64923   5.479  10.179   0.924
87695SOL    HW164924   5.433  10.127   0.990
87695SOL    HW264925   5.559  10.129   0.906
87696SOL     OW64926   5.955   6.207   4.588
87696SOL    HW164927   5.953   6.119   4.626
87696SOL    HW264928   5.895   6.202   4.514
87697SOL     OW64929   7.489   0.074   8.207
87697SOL    HW164930   7.518   0.087   8.297
87697SOL    HW264931   7.508   0.157   8.163
87698SOL     OW64932  10.294   8.670   6.606
87698SOL    HW164933  10.212   8.709   6.637
87698SOL    HW264934  10.287   8.577   6.627
87699SOL     OW64935   0.470   9.910   9.488
87699SOL    HW164936   0.390   9.939   9.532
87699SOL    HW264937   0.524   9.872   9.557
87700SOL     OW64938  11.719  10.625   2.793
87700SOL    HW164939  11.736  10.616   2.887
87700SOL    HW264940  11.788  10.683   2.761
87701SOL     OW64941   0.929   6.385   6.345
87701SOL    HW164942   0.873   6.461   6.326
87701SOL    HW264943   1.011   6.423   6.375
87702SOL     OW64944   0.513  11.628   9.979
87702SOL    HW164945   0.593  11.582   9.955
87702SOL    HW264946   0.533  11.721   9.966
87703SOL     OW64947   9.362   0.005  14.224
87703SOL    HW164948   9.364   0.052  14.307
87703SOL    HW264949   9.454   0.001  14.197
87704SOL     OW64950  11.000   6.363   7.995
87704SOL    HW164951  10.981   6.348   7.902
87704SOL    HW264952  11.066   6.297   8.017
87705SOL     OW64953   9.638  12.205   5.850
87705SOL    HW164954   9.608  12.148   5.780
87705SOL    HW264955   9.698  12.266   5.808
87706SOL     OW64956   0.803  12.510   6.126
87706SOL    HW164957   0.804  12.426   6.081
87706SOL    HW264958   0.768  12.572   6.062
87707SOL     OW64959  10.476   6.039  11.373
87707SOL    HW164960  10.513   5.951  11.370
87707SOL    HW264961  10.388   6.028  11.409
87708SOL     OW64962  11.701  11.048   3.285
87708SOL    HW164963  11.634  11.104   3.246
87708SOL    HW264964  11.711  10.975   3.223
87709SOL     OW64965   7.558   7.911   0.741
87709SOL    HW164966   7.466   7.888   0.726
87709SOL    HW264967   7.590   7.935   0.654
87710SOL     OW64968   8.904   3.498  13.465
87710SOL    HW164969   8.955   3.450  13.531
87710SOL    HW264970   8.950   3.484  13.383
87711SOL     OW64971   6.303  11.941   2.004
87711SOL    HW164972   6.213  11.945   1.972
87711SOL    HW264973   6.313  12.019   2.057
87712SOL     OW64974  14.062  13.640  10.687
87712SOL    HW164975  14.020  13.698  10.623
87712SOL    HW264976  14.050  13.685  10.771
87713SOL     OW64977  12.608  14.213   6.509
87713SOL    HW164978  12.607  14.119   6.528
87713SOL    HW264979  12.536  14.225   6.446
87714SOL     OW64980   5.758  12.352   6.103
87714SOL    HW164981   5.767  12.360   6.008
87714SOL    HW264982   5.830  12.405   6.138
87715SOL     OW64983   7.582   4.940  11.757
87715SOL    HW164984   7.538   4.966  11.676
87715SOL    HW264985   7.510   4.921  11.817
87716SOL     OW64986  10.051   1.232   0.238
87716SOL    HW164987  10.025   1.171   0.168
87716SOL    HW264988  10.113   1.292   0.196
87717SOL     OW64989  11.663  14.744  13.955
87717SOL    HW164990  11.756  14.725  13.968
87717SOL    HW264991  11.641  14.700  13.872
87718SOL     OW64992   7.393  11.274   1.660
87718SOL    HW164993   7.421  11.287   1.569
87718SOL    HW264994   7.362  11.360   1.689
87719SOL     OW64995  10.910  13.315   4.716
87719SOL    HW164996  10.925  13.359   4.799
87719SOL    HW264997  10.972  13.242   4.716
87720SOL     OW64998   1.175   6.516  12.822
87720SOL    HW164999   1.172   6.606  12.857
87720SOL    HW265000   1.246   6.475  12.871
87721SOL     OW65001   0.008  11.350  14.665
87721SOL    HW165002   0.066  11.426  14.666
87721SOL    HW265003  14.846  11.352  14.579
87722SOL     OW65004   6.158  14.602   9.161
87722SOL    HW165005   6.073  14.585   9.203
87722SOL    HW265006   6.209  14.523   9.179
87723SOL     OW65007  11.770   6.400   0.387
87723SOL    HW165008  11.712   6.434   0.455
87723SOL    HW265009  11.774   6.305   0.404
87724SOL     OW65010   0.563  10.016   8.962
87724SOL    HW165011   0.581  10.110   8.968
87724SOL    HW265012   0.602   9.979   9.041
87725SOL     OW65013  13.838   2.921   4.841
87725SOL    HW165014  13.890   2.958   4.913
87725SOL    HW265015  13.748   2.922   4.873
87726SOL     OW65016   9.750  13.052   2.693
87726SOL    HW165017   9.713  13.139   2.676
87726SOL    HW265018   9.693  13.015   2.760
87727SOL     OW65019   6.624   4.148   1.353
87727SOL    HW165020   6.705   4.122   1.397
87727SOL    HW265021   6.570   4.068   1.354
87728SOL     OW65022   2.448  14.190   8.057
87728SOL    HW165023   2.358  14.220   8.057
87728SOL    HW265024   2.448  14.110   8.110
87729SOL     OW65025   5.964  13.533   6.878
87729SOL    HW165026   5.870  13.517   6.883
87729SOL    HW265027   6.001  13.452   6.842
87730SOL     OW65028  13.884  11.415   8.048
87730SOL    HW165029  13.841  11.492   8.083
87730SOL    HW265030  13.967  11.409   8.097
87731SOL     OW65031   5.915   9.931   4.147
87731SOL    HW165032   5.998   9.884   4.141
87731SOL    HW265033   5.885   9.938   4.056
87732SOL     OW65034  14.261  12.502  13.781
87732SOL    HW165035  14.351  12.490  13.751
87732SOL    HW265036  14.264  12.579  13.838
87733SOL     OW65037   8.404   9.992   6.632
87733SOL    HW165038   8.323   9.966   6.588
87733SOL    HW265039   8.472   9.981   6.566
87734SOL     OW65040   1.063   5.275   6.825
87734SOL    HW165041   0.996   5.340   6.847
87734SOL    HW265042   1.013   5.193   6.816
87735SOL     OW65043   2.398  14.310   1.990
87735SOL    HW165044   2.464  14.282   2.053
87735SOL    HW265045   2.388  14.236   1.930
87736SOL     OW65046   1.215   4.707   4.628
87736SOL    HW165047   1.129   4.724   4.667
87736SOL    HW265048   1.272   4.687   4.702
87737SOL     OW65049   9.769   9.619  10.221
87737SOL    HW165050   9.825   9.678  10.272
87737SOL    HW265051   9.705   9.677  10.179
87738SOL     OW65052   6.855   2.320   8.300
87738SOL    HW165053   6.872   2.403   8.256
87738SOL    HW265054   6.834   2.259   8.229
87739SOL     OW65055  11.618  12.032   0.571
87739SOL    HW165056  11.692  11.986   0.610
87739SOL    HW265057  11.596  12.100   0.634
87740SOL     OW65058  14.029   9.943  14.612
87740SOL    HW165059  13.962  10.002  14.577
87740SOL    HW265060  13.992   9.912  14.695
87741SOL     OW65061   8.356  12.532  10.857
87741SOL    HW165062   8.420  12.597  10.828
87741SOL    HW265063   8.399  12.448  10.845
87742SOL     OW65064   6.822  12.677   9.405
87742SOL    HW165065   6.829  12.601   9.462
87742SOL    HW265066   6.802  12.640   9.318
87743SOL     OW65067  14.538   1.406  12.594
87743SOL    HW165068  14.628   1.388  12.567
87743SOL    HW265069  14.498   1.447  12.517
87744SOL     OW65070   0.165   9.551   2.786
87744SOL    HW165071   0.188   9.508   2.704
87744SOL    HW265072   0.164   9.645   2.766
87745SOL     OW65073  14.368   4.413   4.720
87745SOL    HW165074  14.420   4.335   4.702
87745SOL    HW265075  14.293   4.406   4.662
87746SOL     OW65076   4.644   8.809   2.658
87746SOL    HW165077   4.563   8.763   2.637
87746SOL    HW265078   4.687   8.754   2.723
87747SOL     OW65079   4.493  12.033   6.247
87747SOL    HW165080   4.583  12.002   6.236
87747SOL    HW265081   4.441  11.975   6.191
87748SOL     OW65082   6.532   5.674   4.168
87748SOL    HW165083   6.467   5.659   4.099
87748SOL    HW265084   6.556   5.767   4.158
87749SOL     OW65085   6.509  12.573   5.959
87749SOL    HW165086   6.454  12.495   5.963
87749SOL    HW265087   6.490  12.612   5.874
87750SOL     OW65088   6.653   0.214   7.048
87750SOL    HW165089   6.630   0.129   7.009
87750SOL    HW265090   6.748   0.212   7.057
87751SOL     OW65091  13.240   0.373   8.946
87751SOL    HW165092  13.331   0.348   8.960
87751SOL    HW265093  13.214   0.416   9.027
87752SOL     OW65094   5.248   8.650   7.702
87752SOL    HW165095   5.340   8.628   7.701
87752SOL    HW265096   5.245   8.740   7.737
87753SOL     OW65097   1.524  13.819   4.407
87753SOL    HW165098   1.618  13.836   4.400
87753SOL    HW265099   1.494  13.815   4.316
87754SOL     OW65100   6.949   0.540   3.196
87754SOL    HW165101   7.025   0.597   3.187
87754SOL    HW265102   6.969   0.485   3.272
87755SOL     OW65103   8.415  11.674   2.891
87755SOL    HW165104   8.467  11.753   2.871
87755SOL    HW265105   8.390  11.641   2.805
87756SOL     OW65106   1.886  11.627  13.421
87756SOL    HW165107   1.953  11.636  13.353
87756SOL    HW265108   1.905  11.543  13.462
87757SOL     OW65109   0.835   2.395   7.790
87757SOL    HW165110   0.842   2.320   7.849
87757SOL    HW265111   0.751   2.435   7.813
87758SOL     OW65112  10.921   2.361   8.458
87758SOL    HW165113  10.940   2.425   8.390
87758SOL    HW265114  10.826   2.366   8.471
87759SOL     OW65115   4.340  11.906   9.772
87759SOL    HW165116   4.325  12.001   9.768
87759SOL    HW265117   4.357  11.881   9.681
87760SOL     OW65118   0.655   5.477  10.746
87760SOL    HW165119   0.627   5.396  10.703
87760SOL    HW265120   0.749   5.465  10.760
87761SOL     OW65121   9.917   0.177   3.682
87761SOL    HW165122   9.862   0.239   3.634
87761SOL    HW265123   9.979   0.146   3.617
87762SOL     OW65124  12.092   0.428   9.406
87762SOL    HW165125  12.183   0.418   9.433
87762SOL    HW265126  12.043   0.439   9.487
87763SOL     OW65127  10.567   6.579   4.682
87763SOL    HW165128  10.526   6.493   4.682
87763SOL    HW265129  10.587   6.596   4.590
87764SOL     OW65130   3.391   3.199   2.982
87764SOL    HW165131   3.456   3.135   3.010
87764SOL    HW265132   3.438   3.282   2.979
87765SOL     OW65133   1.371  11.730  13.065
87765SOL    HW165134   1.395  11.814  13.103
87765SOL    HW265135   1.370  11.669  13.139
87766SOL     OW65136   7.242   9.641  14.514
87766SOL    HW165137   7.150   9.667  14.518
87766SOL    HW265138   7.290   9.719  14.540
87767SOL     OW65139   9.307   0.119  14.499
87767SOL    HW165140   9.343   0.049  14.553
87767SOL    HW265141   9.341   0.199  14.537
87768SOL     OW65142   5.235   1.588  10.598
87768SOL    HW165143   5.300   1.572  10.531
87768SOL    HW265144   5.240   1.511  10.656
87769SOL     OW65145   3.111   2.233   2.753
87769SOL    HW165146   3.054   2.220   2.677
87769SOL    HW265147   3.187   2.278   2.717
87770SOL     OW65148   6.514   0.232   2.396
87770SOL    HW165149   6.498   0.139   2.408
87770SOL    HW265150   6.568   0.257   2.471
87771SOL     OW65151  14.425   9.900  14.648
87771SOL    HW165152  14.500   9.942  14.606
87771SOL    HW265153  14.367   9.972  14.671
87772SOL     OW65154   7.631   8.470  12.816
87772SOL    HW165155   7.538   8.452  12.830
87772SOL    HW265156   7.632   8.559  12.782
87773SOL     OW65157   7.666   0.335  10.962
87773SOL    HW165158   7.753   0.360  10.991
87773SOL    HW265159   7.666   0.352  10.868
87774SOL     OW65160   8.348  12.594  14.125
87774SOL    HW165161   8.331  12.500  14.130
87774SOL    HW265162   8.279  12.633  14.180
87775SOL     OW65163   9.496   0.068   8.812
87775SOL    HW165164   9.510   0.159   8.787
87775SOL    HW265165   9.504   0.069   8.908
87776SOL     OW65166   9.228   1.748  13.516
87776SOL    HW165167   9.249   1.812  13.448
87776SOL    HW265168   9.137   1.723  13.499
87777SOL     OW65169   1.598   5.473   8.688
87777SOL    HW165170   1.605   5.381   8.713
87777SOL    HW265171   1.668   5.516   8.737
87778SOL     OW65172   9.549   6.532  12.370
87778SOL    HW165173   9.533   6.446  12.332
87778SOL    HW265174   9.518   6.594  12.304
87779SOL     OW65175   4.041   0.225   3.185
87779SOL    HW165176   3.958   0.235   3.231
87779SOL    HW265177   4.105   0.265   3.244
87780SOL     OW65178   9.103   5.113  14.287
87780SOL    HW165179   9.018   5.157  14.293
87780SOL    HW265180   9.166   5.182  14.269
87781SOL     OW65181  10.690  10.371   1.529
87781SOL    HW165182  10.639  10.397   1.452
87781SOL    HW265183  10.694  10.276   1.524
87782SOL     OW65184   6.984   7.641  12.842
87782SOL    HW165185   7.033   7.633  12.923
87782SOL    HW265186   6.948   7.730  12.844
87783SOL     OW65187   5.179   6.467   8.552
87783SOL    HW165188   5.123   6.396   8.583
87783SOL    HW265189   5.130   6.509   8.482
87784SOL     OW65190  12.151   1.111   4.393
87784SOL    HW165191  12.188   1.187   4.347
87784SOL    HW265192  12.059   1.132   4.404
87785SOL     OW65193   0.205   5.220   4.701
87785SOL    HW165194   0.117   5.185   4.717
87785SOL    HW265195   0.201   5.253   4.611
87786SOL     OW65196   3.100   2.506   7.504
87786SOL    HW165197   3.161   2.458   7.561
87786SOL    HW265198   3.157   2.558   7.447
87787SOL     OW65199   2.903   1.644   5.940
87787SOL    HW165200   2.990   1.618   5.971
87787SOL    HW265201   2.868   1.698   6.011
87788SOL     OW65202   3.619  14.289  12.590
87788SOL    HW165203   3.657  14.343  12.520
87788SOL    HW265204   3.553  14.346  12.630
87789SOL     OW65205  14.439  10.653   3.431
87789SOL    HW165206  14.532  10.644   3.411
87789SOL    HW265207  14.436  10.719   3.501
87790SOL     OW65208   5.115   6.173  13.792
87790SOL    HW165209   5.094   6.134  13.707
87790SOL    HW265210   5.032   6.171  13.840
87791SOL     OW65211   8.857   0.266  14.638
87791SOL    HW165212   8.897   0.281  14.552
87791SOL    HW265213   8.899   0.330  14.695
87792SOL     OW65214  12.430   5.415   9.129
87792SOL    HW165215  12.472   5.359   9.063
87792SOL    HW265216  12.454   5.504   9.104
87793SOL     OW65217   3.177   1.454   9.844
87793SOL    HW165218   3.131   1.503   9.776
87793SOL    HW265219   3.221   1.521   9.897
87794SOL     OW65220   7.241   4.033  13.856
87794SOL    HW165221   7.217   3.973  13.785
87794SOL    HW265222   7.320   4.077  13.825
87795SOL     OW65223   0.923   2.100  12.865
87795SOL    HW165224   0.834   2.076  12.889
87795SOL    HW265225   0.960   2.019  12.829
87796SOL     OW65226   0.309  12.441  12.474
87796SOL    HW165227   0.242  12.404  12.531
87796SOL    HW265228   0.260  12.475  12.399
87797SOL     OW65229  11.619   0.479   6.133
87797SOL    HW165230  11.633   0.495   6.227
87797SOL    HW265231  11.525   0.463   6.126
87798SOL     OW65232  10.748  10.159  14.520
87798SOL    HW165233  10.800  10.110  14.584
87798SOL    HW265234  10.765  10.115  14.436
87799SOL     OW65235  14.582   1.315   0.513
87799SOL    HW165236  14.525   1.238   0.507
87799SOL    HW265237  14.524   1.389   0.497
87800SOL     OW65238   7.570   2.251   7.372
87800SOL    HW165239   7.553   2.226   7.462
87800SOL    HW265240   7.649   2.305   7.377
87801SOL     OW65241   9.486   9.095   9.892
87801SOL    HW165242   9.539   9.031   9.846
87801SOL    HW265243   9.428   9.132   9.825
87802SOL     OW65244   3.665   3.680   1.279
87802SOL    HW165245   3.631   3.749   1.336
87802SOL    HW265246   3.663   3.718   1.192
87803SOL     OW65247  10.617   8.541   7.964
87803SOL    HW165248  10.522   8.543   7.958
87803SOL    HW265249  10.635   8.491   8.043
87804SOL     OW65250  12.440   6.733   5.472
87804SOL    HW165251  12.347   6.738   5.497
87804SOL    HW265252  12.448   6.648   5.430
87805SOL     OW65253  10.355   3.578   3.348
87805SOL    HW165254  10.446   3.551   3.339
87805SOL    HW265255  10.324   3.533   3.427
87806SOL     OW65256   1.384   5.633   7.301
87806SOL    HW165257   1.410   5.544   7.274
87806SOL    HW265258   1.436   5.691   7.246
87807SOL     OW65259   0.359   8.058  12.657
87807SOL    HW165260   0.420   8.131  12.645
87807SOL    HW265261   0.362   8.039  12.751
87808SOL     OW65262   5.004   7.467  10.438
87808SOL    HW165263   4.980   7.387  10.391
87808SOL    HW265264   5.099   7.467  10.439
87809SOL     OW65265  11.979   2.151   0.003
87809SOL    HW165266  12.024   2.098   0.069
87809SOL    HW265267  11.995   2.103  14.800
87810SOL     OW65268   2.307  12.005   7.644
87810SOL    HW165269   2.246  11.985   7.573
87810SOL    HW265270   2.275  11.954   7.719
87811SOL     OW65271   7.591   4.376   1.126
87811SOL    HW165272   7.555   4.289   1.140
87811SOL    HW265273   7.578   4.421   1.210
87812SOL     OW65274   9.483   0.915  12.167
87812SOL    HW165275   9.440   0.922  12.253
87812SOL    HW265276   9.488   1.005  12.135
87813SOL     OW65277   3.416  11.057   7.847
87813SOL    HW165278   3.348  11.125   7.848
87813SOL    HW265279   3.473  11.079   7.920
87814SOL     OW65280   6.602   6.270   0.639
87814SOL    HW165281   6.687   6.310   0.620
87814SOL    HW265282   6.617   6.176   0.634
87815SOL     OW65283   5.507   3.200   5.413
87815SOL    HW165284   5.521   3.244   5.497
87815SOL    HW265285   5.425   3.152   5.425
87816SOL     OW65286   0.671   6.059   2.633
87816SOL    HW165287   0.712   6.067   2.547
87816SOL    HW265288   0.600   5.996   2.620
87817SOL     OW65289   1.379   7.054   9.237
87817SOL    HW165290   1.370   7.143   9.203
87817SOL    HW265291   1.469   7.029   9.216
87818SOL     OW65292   2.964   1.628   7.777
87818SOL    HW165293   2.950   1.553   7.720
87818SOL    HW265294   2.952   1.594   7.865
87819SOL     OW65295   6.233   8.928   3.007
87819SOL    HW165296   6.316   8.883   3.015
87819SOL    HW265297   6.183   8.876   2.944
87820SOL     OW65298   1.987   5.927   0.651
87820SOL    HW165299   2.017   5.978   0.576
87820SOL    HW265300   1.906   5.886   0.620
87821SOL     OW65301  12.784   8.750  12.265
87821SOL    HW165302  12.839   8.780  12.338
87821SOL    HW265303  12.759   8.830  12.219
87822SOL     OW65304  13.837  10.548   0.331
87822SOL    HW165305  13.850  10.519   0.241
87822SOL    HW265306  13.926  10.560   0.365
87823SOL     OW65307   7.345   6.631   5.312
87823SOL    HW165308   7.342   6.699   5.245
87823SOL    HW265309   7.350   6.679   5.395
87824SOL     OW65310   4.327   0.409   6.689
87824SOL    HW165311   4.419   0.434   6.678
87824SOL    HW265312   4.298   0.457   6.767
87825SOL     OW65313  11.011   8.794  14.603
87825SOL    HW165314  11.053   8.864  14.553
87825SOL    HW265315  11.079   8.728  14.614
87826SOL     OW65316   1.891   3.109  14.874
87826SOL    HW165317   1.886   3.060   0.077
87826SOL    HW265318   1.890   3.201   0.022
87827SOL     OW65319  10.661  11.453   8.839
87827SOL    HW165320  10.743  11.432   8.884
87827SOL    HW265321  10.683  11.526   8.782
87828SOL     OW65322   0.445   1.989  12.986
87828SOL    HW165323   0.402   2.038  13.056
87828SOL    HW265324   0.379   1.927  12.955
87829SOL     OW65325   4.763  11.935   3.207
87829SOL    HW165326   4.689  11.965   3.259
87829SOL    HW265327   4.724  11.882   3.138
87830SOL     OW65328  12.600   3.071   2.802
87830SOL    HW165329  12.525   3.011   2.801
87830SOL    HW265330  12.603   3.104   2.892
87831SOL     OW65331   9.520  12.713   3.544
87831SOL    HW165332   9.429  12.738   3.532
87831SOL    HW265333   9.530  12.633   3.493
87832SOL     OW65334   1.088   3.007  14.835
87832SOL    HW165335   1.051   2.977   0.039
87832SOL    HW265336   1.150   3.075  14.860
87833SOL     OW65337   1.997  12.196   6.289
87833SOL    HW165338   1.908  12.233   6.290
87833SOL    HW265339   2.049  12.261   6.242
87834SOL     OW65340   5.308   2.741   5.083
87834SOL    HW165341   5.368   2.668   5.097
87834SOL    HW265342   5.240   2.706   5.026
87835SOL     OW65343   8.972   6.951   6.790
87835SOL    HW165344   8.974   6.888   6.718
87835SOL    HW265345   8.915   7.021   6.759
87836SOL     OW65346  12.860   1.919   9.114
87836SOL    HW165347  12.901   1.834   9.096
87836SOL    HW265348  12.768   1.907   9.090
87837SOL     OW65349  12.051   3.257   2.382
87837SOL    HW165350  12.081   3.283   2.469
87837SOL    HW265351  11.956   3.260   2.387
87838SOL     OW65352  11.763   8.687   4.307
87838SOL    HW165353  11.838   8.641   4.347
87838SOL    HW265354  11.791   8.778   4.300
87839SOL     OW65355  12.398   7.416   2.293
87839SOL    HW165356  12.421   7.364   2.369
87839SOL    HW265357  12.459   7.490   2.295
87840SOL     OW65358   6.263   4.861   3.944
87840SOL    HW165359   6.169   4.882   3.937
87840SOL    HW265360   6.293   4.912   4.019
87841SOL     OW65361   2.944   5.777   1.537
87841SOL    HW165362   2.994   5.802   1.615
87841SOL    HW265363   2.969   5.842   1.472
87842SOL     OW65364   1.726   6.252  14.569
87842SOL    HW165365   1.788   6.211  14.630
87842SOL    HW265366   1.767   6.241  14.483
87843SOL     OW65367   8.272   2.933  13.616
87843SOL    HW165368   8.191   2.942  13.566
87843SOL    HW265369   8.298   3.023  13.636
87844SOL     OW65370   6.767   3.049   8.203
87844SOL    HW165371   6.742   2.993   8.277
87844SOL    HW265372   6.838   3.001   8.160
87845SOL     OW65373   3.446  12.493  14.581
87845SOL    HW165374   3.528  12.542  14.589
87845SOL    HW265375   3.387  12.552  14.536
87846SOL     OW65376   6.890  10.424  10.485
87846SOL    HW165377   6.922  10.452  10.399
87846SOL    HW265378   6.970  10.402  10.534
87847SOL     OW65379   7.517   2.111   0.832
87847SOL    HW165380   7.530   2.030   0.882
87847SOL    HW265381   7.504   2.080   0.742
87848SOL     OW65382   9.298  11.996  10.464
87848SOL    HW165383   9.259  11.909  10.465
87848SOL    HW265384   9.224  12.056  10.474
87849SOL     OW65385   6.495   6.114   6.033
87849SOL    HW165386   6.427   6.118   5.966
87849SOL    HW265387   6.461   6.053   6.098
87850SOL     OW65388   3.666  14.268   9.650
87850SOL    HW165389   3.662  14.174   9.634
87850SOL    HW265390   3.753  14.293   9.620
87851SOL     OW65391  14.082   9.323   0.753
87851SOL    HW165392  14.042   9.410   0.755
87851SOL    HW265393  14.070   9.289   0.842
87852SOL     OW65394  11.729  14.309   2.685
87852SOL    HW165395  11.651  14.357   2.712
87852SOL    HW265396  11.719  14.223   2.725
87853SOL     OW65397   3.423  10.284   6.996
87853SOL    HW165398   3.475  10.257   7.071
87853SOL    HW265399   3.339  10.239   7.007
87854SOL     OW65400  14.228   0.277   1.721
87854SOL    HW165401  14.144   0.307   1.755
87854SOL    HW265402  14.235   0.318   1.634
87855SOL     OW65403   1.976  12.757   4.282
87855SOL    HW165404   1.889  12.720   4.266
87855SOL    HW265405   1.971  12.793   4.371
87856SOL     OW65406  13.088   5.966   4.784
87856SOL    HW165407  13.017   6.001   4.730
87856SOL    HW265408  13.096   6.027   4.856
87857SOL     OW65409   5.853   8.784   4.535
87857SOL    HW165410   5.857   8.840   4.612
87857SOL    HW265411   5.871   8.696   4.567
87858SOL     OW65412  10.831  12.896   5.095
87858SOL    HW165413  10.736  12.885   5.095
87858SOL    HW265414  10.860  12.853   5.176
87859SOL     OW65415   9.194  13.560   2.612
87859SOL    HW165416   9.104  13.536   2.633
87859SOL    HW265417   9.192  13.655   2.603
87860SOL     OW65418  12.723  14.639   5.357
87860SOL    HW165419  12.812  14.606   5.346
87860SOL    HW265420  12.718  14.716   5.301
87861SOL     OW65421  11.805   3.760   1.625
87861SOL    HW165422  11.775   3.758   1.534
87861SOL    HW265423  11.787   3.672   1.658
87862SOL     OW65424   3.961   7.513   7.346
87862SOL    HW165425   4.056   7.518   7.337
87862SOL    HW265426   3.947   7.480   7.435
87863SOL     OW65427   0.404   3.346   2.594
87863SOL    HW165428   0.411   3.260   2.552
87863SOL    HW265429   0.494   3.366   2.621
87864SOL     OW65430  10.857   9.010  14.382
87864SOL    HW165431  10.877   9.024  14.475
87864SOL    HW265432  10.804   9.086  14.357
87865SOL     OW65433  12.911  10.090   1.625
87865SOL    HW165434  12.836  10.112   1.569
87865SOL    HW265435  12.926   9.997   1.610
87866SOL     OW65436   6.160   2.404   6.585
87866SOL    HW165437   6.075   2.372   6.617
87866SOL    HW265438   6.137   2.476   6.526
87867SOL     OW65439   0.306  10.978  11.099
87867SOL    HW165440   0.296  10.883  11.100
87867SOL    HW265441   0.219  11.012  11.081
87868SOL     OW65442  11.764  13.544   3.619
87868SOL    HW165443  11.800  13.460   3.648
87868SOL    HW265444  11.837  13.605   3.627
87869SOL     OW65445  11.520   8.298   6.427
87869SOL    HW165446  11.428   8.323   6.416
87869SOL    HW265447  11.517   8.217   6.477
87870SOL     OW65448   1.001   1.679   1.071
87870SOL    HW165449   1.073   1.632   1.030
87870SOL    HW265450   1.035   1.705   1.157
87871SOL     OW65451  12.823   3.523  14.055
87871SOL    HW165452  12.835   3.464  13.980
87871SOL    HW265453  12.730   3.545  14.053
87872SOL     OW65454  13.797  14.657   7.290
87872SOL    HW165455  13.726  14.643   7.353
87872SOL    HW265456  13.869  14.602   7.322
87873SOL     OW65457   0.006   9.936   9.875
87873SOL    HW165458   0.090   9.968   9.907
87873SOL    HW265459  14.839  10.015   9.847
87874SOL     OW65460   0.736   7.177   0.868
87874SOL    HW165461   0.827   7.200   0.848
87874SOL    HW265462   0.708   7.244   0.930
87875SOL     OW65463   2.292   7.676   8.524
87875SOL    HW165464   2.255   7.736   8.459
87875SOL    HW265465   2.217   7.643   8.572
87876SOL     OW65466  12.714   2.208  14.315
87876SOL    HW165467  12.656   2.221  14.390
87876SOL    HW265468  12.775   2.139  14.342
87877SOL     OW65469   9.845  12.751  12.516
87877SOL    HW165470   9.879  12.752  12.605
87877SOL    HW265471   9.804  12.836  12.504
87878SOL     OW65472  11.611   7.436  14.173
87878SOL    HW165473  11.524   7.399  14.159
87878SOL    HW265474  11.649   7.441  14.086
87879SOL     OW65475   5.483   9.151   9.677
87879SOL    HW165476   5.566   9.110   9.651
87879SOL    HW265477   5.439   9.169   9.594
87880SOL     OW65478  11.535   5.102   0.113
87880SOL    HW165479  11.496   5.149   0.186
87880SOL    HW265480  11.524   5.161   0.038
87881SOL     OW65481   3.985   9.400   9.521
87881SOL    HW165482   3.930   9.437   9.590
87881SOL    HW265483   4.073   9.396   9.559
87882SOL     OW65484   0.177   5.578  10.317
87882SOL    HW165485   0.178   5.543  10.406
87882SOL    HW265486   0.193   5.501  10.261
87883SOL     OW65487   1.862   1.669   4.039
87883SOL    HW165488   1.893   1.622   4.115
87883SOL    HW265489   1.890   1.617   3.964
87884SOL     OW65490   3.559  14.579   8.774
87884SOL    HW165491   3.547  14.604   8.682
87884SOL    HW265492   3.550  14.484   8.775
87885SOL     OW65493  14.716   0.482  14.794
87885SOL    HW165494  14.787   0.439  14.747
87885SOL    HW265495  14.721   0.574  14.768
87886SOL     OW65496   9.158   3.103   4.202
87886SOL    HW165497   9.185   3.195   4.195
87886SOL    HW265498   9.157   3.072   4.111
87887SOL     OW65499  11.864   7.992   0.716
87887SOL    HW165500  11.938   8.051   0.714
87887SOL    HW265501  11.893   7.919   0.770
87888SOL     OW65502  13.484   4.495  10.286
87888SOL    HW165503  13.566   4.447  10.278
87888SOL    HW265504  13.431   4.442  10.346
87889SOL     OW65505  10.159   5.142   1.022
87889SOL    HW165506  10.202   5.062   0.992
87889SOL    HW265507  10.139   5.191   0.942
87890SOL     OW65508   9.823   1.675  12.853
87890SOL    HW165509   9.802   1.622  12.931
87890SOL    HW265510   9.913   1.702  12.866
87891SOL     OW65511   4.256  10.227  13.934
87891SOL    HW165512   4.205  10.169  13.991
87891SOL    HW265513   4.347  10.208  13.957
87892SOL     OW65514   3.147  12.743  12.972
87892SOL    HW165515   3.217  12.790  13.017
87892SOL    HW265516   3.186  12.718  12.888
87893SOL     OW65517   2.409  10.789   6.108
87893SOL    HW165518   2.496  10.750   6.099
87893SOL    HW265519   2.420  10.855   6.177
87894SOL     OW65520   5.745   3.793  14.710
87894SOL    HW165521   5.662   3.809  14.664
87894SOL    HW265522   5.719   3.755  14.793
87895SOL     OW65523  11.014   0.945   4.817
87895SOL    HW165524  10.959   0.881   4.772
87895SOL    HW265525  10.956   0.986   4.882
87896SOL     OW65526   1.248   9.993  10.359
87896SOL    HW165527   1.180   9.938  10.322
87896SOL    HW265528   1.208  10.033  10.436
87897SOL     OW65529   4.665   6.369   5.249
87897SOL    HW165530   4.618   6.451   5.266
87897SOL    HW265531   4.604   6.318   5.196
87898SOL     OW65532  11.019   6.999   4.251
87898SOL    HW165533  10.998   7.049   4.330
87898SOL    HW265534  10.966   7.041   4.182
87899SOL     OW65535   1.589  11.361  14.764
87899SOL    HW165536   1.612  11.413  14.687
87899SOL    HW265537   1.564  11.276  14.728
87900SOL     OW65538  11.315  13.056   7.972
87900SOL    HW165539  11.287  13.119   8.038
87900SOL    HW265540  11.301  13.100   7.888
87901SOL     OW65541  14.202   8.791   7.816
87901SOL    HW165542  14.204   8.695   7.809
87901SOL    HW265543  14.288   8.814   7.852
87902SOL     OW65544   7.370   4.771   1.059
87902SOL    HW165545   7.309   4.756   1.132
87902SOL    HW265546   7.392   4.683   1.029
87903SOL     OW65547   0.511   9.118   8.671
87903SOL    HW165548   0.456   9.195   8.657
87903SOL    HW265549   0.570   9.116   8.595
87904SOL     OW65550   2.938  10.233   0.496
87904SOL    HW165551   2.880  10.158   0.482
87904SOL    HW265552   2.880  10.309   0.494
87905SOL     OW65553  10.366   7.991   7.311
87905SOL    HW165554  10.423   7.918   7.335
87905SOL    HW265555  10.296   7.952   7.260
87906SOL     OW65556   8.530  13.483   6.818
87906SOL    HW165557   8.605  13.541   6.801
87906SOL    HW265558   8.515  13.489   6.912
87907SOL     OW65559   9.123   3.730   6.342
87907SOL    HW165560   9.032   3.746   6.369
87907SOL    HW265561   9.126   3.636   6.325
87908SOL     OW65562  10.950   1.859   6.648
87908SOL    HW165563  10.941   1.953   6.665
87908SOL    HW265564  10.933   1.817   6.732
87909SOL     OW65565   9.381   0.658  11.578
87909SOL    HW165566   9.392   0.645  11.672
87909SOL    HW265567   9.457   0.710  11.551
87910SOL     OW65568   1.585   6.562   4.526
87910SOL    HW165569   1.592   6.657   4.540
87910SOL    HW265570   1.671   6.536   4.492
87911SOL     OW65571   3.920   5.402  10.976
87911SOL    HW165572   4.002   5.352  10.978
87911SOL    HW265573   3.940   5.483  11.022
87912SOL     OW65574   6.752   1.443   7.772
87912SOL    HW165575   6.667   1.468   7.810
87912SOL    HW265576   6.734   1.430   7.679
87913SOL     OW65577   4.725   2.840   7.750
87913SOL    HW165578   4.702   2.860   7.840
87913SOL    HW265579   4.653   2.877   7.698
87914SOL     OW65580   1.551   7.913   5.330
87914SOL    HW165581   1.638   7.936   5.298
87914SOL    HW265582   1.508   7.873   5.254
87915SOL     OW65583   0.817   4.482   0.304
87915SOL    HW165584   0.906   4.451   0.319
87915SOL    HW265585   0.804   4.473   0.210
87916SOL     OW65586   7.541   0.425   6.490
87916SOL    HW165587   7.563   0.457   6.402
87916SOL    HW265588   7.527   0.504   6.542
87917SOL     OW65589  14.696  11.557   0.921
87917SOL    HW165590  14.712  11.475   0.872
87917SOL    HW265591  14.777  11.606   0.912
87918SOL     OW65592   7.385  12.293  13.606
87918SOL    HW165593   7.348  12.367  13.557
87918SOL    HW265594   7.439  12.334  13.673
87919SOL     OW65595   2.604   5.210   5.385
87919SOL    HW165596   2.655   5.282   5.349
87919SOL    HW265597   2.601   5.227   5.479
87920SOL     OW65598   6.245  12.858   2.926
87920SOL    HW165599   6.204  12.807   2.857
87920SOL    HW265600   6.203  12.829   3.007
87921SOL     OW65601  14.737  13.633   1.850
87921SOL    HW165602  14.771  13.661   1.935
87921SOL    HW265603  14.773  13.545   1.837
87922SOL     OW65604   9.752   5.075   4.710
87922SOL    HW165605   9.657   5.082   4.703
87922SOL    HW265606   9.784   5.096   4.622
87923SOL     OW65607   7.285   9.832  12.253
87923SOL    HW165608   7.315   9.816  12.164
87923SOL    HW265609   7.359   9.876  12.296
87924SOL     OW65610   1.259  13.594   9.391
87924SOL    HW165611   1.290  13.678   9.357
87924SOL    HW265612   1.218  13.551   9.316
87925SOL     OW65613   5.939   9.640   2.804
87925SOL    HW165614   5.885   9.699   2.751
87925SOL    HW265615   5.965   9.694   2.879
87926SOL     OW65616   9.519   5.225  11.298
87926SOL    HW165617   9.502   5.319  11.295
87926SOL    HW265618   9.522   5.198  11.206
87927SOL     OW65619  14.064   2.010   2.436
87927SOL    HW165620  14.059   1.961   2.518
87927SOL    HW265621  14.026   1.951   2.371
87928SOL     OW65622   8.369   7.543  12.839
87928SOL    HW165623   8.288   7.539  12.789
87928SOL    HW265624   8.379   7.455  12.876
87929SOL     OW65625  10.472  11.200   3.311
87929SOL    HW165626  10.408  11.233   3.248
87929SOL    HW265627  10.422  11.184   3.391
87930SOL     OW65628  10.823  14.497   9.593
87930SOL    HW165629  10.827  14.470   9.685
87930SOL    HW265630  10.902  14.549   9.579
87931SOL     OW65631   1.177   8.679   1.068
87931SOL    HW165632   1.093   8.680   1.113
87931SOL    HW265633   1.228   8.748   1.109
87932SOL     OW65634  10.518   1.450  14.736
87932SOL    HW165635  10.547   1.536  14.765
87932SOL    HW265636  10.436   1.435  14.783
87933SOL     OW65637  12.588   6.159  10.392
87933SOL    HW165638  12.657   6.142  10.328
87933SOL    HW265639  12.625   6.133  10.476
87934SOL     OW65640   8.887  13.471   0.615
87934SOL    HW165641   8.942  13.515   0.550
87934SOL    HW265642   8.831  13.540   0.650
87935SOL     OW65643  14.620   3.122   2.019
87935SOL    HW165644  14.680   3.055   1.984
87935SOL    HW265645  14.559   3.138   1.947
87936SOL     OW65646  12.669  12.906   9.549
87936SOL    HW165647  12.747  12.918   9.603
87936SOL    HW265648  12.636  12.994   9.532
87937SOL     OW65649   8.575   7.419   2.233
87937SOL    HW165650   8.550   7.330   2.210
87937SOL    HW265651   8.524   7.438   2.312
87938SOL     OW65652  14.119   1.033   2.819
87938SOL    HW165653  14.124   1.121   2.782
87938SOL    HW265654  14.181   1.034   2.892
87939SOL     OW65655   5.964   3.619   0.979
87939SOL    HW165656   5.971   3.642   1.072
87939SOL    HW265657   6.032   3.554   0.965
87940SOL     OW65658   6.757  13.863   6.755
87940SOL    HW165659   6.727  13.954   6.756
87940SOL    HW265660   6.808  13.854   6.835
87941SOL     OW65661   6.430  13.159   4.768
87941SOL    HW165662   6.407  13.250   4.753
87941SOL    HW265663   6.345  13.113   4.770
87942SOL     OW65664   2.244   1.130   1.577
87942SOL    HW165665   2.190   1.110   1.501
87942SOL    HW265666   2.269   1.044   1.612
87943SOL     OW65667   2.846   9.214  13.637
87943SOL    HW165668   2.873   9.191  13.548
87943SOL    HW265669   2.756   9.245  13.627
87944SOL     OW65670  13.261   3.284   9.125
87944SOL    HW165671  13.193   3.223   9.154
87944SOL    HW265672  13.220   3.336   9.057
87945SOL     OW65673   7.147  13.631   2.635
87945SOL    HW165674   7.134  13.585   2.718
87945SOL    HW265675   7.116  13.571   2.569
87946SOL     OW65676   3.550   9.444   8.967
87946SOL    HW165677   3.641   9.470   8.978
87946SOL    HW265678   3.503   9.526   8.950
87947SOL     OW65679   8.106   3.771  11.623
87947SOL    HW165680   8.129   3.723  11.702
87947SOL    HW265681   8.048   3.841  11.653
87948SOL     OW65682  12.257   0.966  12.473
87948SOL    HW165683  12.206   0.951  12.553
87948SOL    HW265684  12.298   0.882  12.455
87949SOL     OW65685  10.650   6.188  10.575
87949SOL    HW165686  10.643   6.195  10.670
87949SOL    HW265687  10.615   6.101  10.555
87950SOL     OW65688  10.060   1.562   5.530
87950SOL    HW165689  10.126   1.494   5.547
87950SOL    HW265690  10.014   1.531   5.452
87951SOL     OW65691  10.012   7.245   4.708
87951SOL    HW165692  10.073   7.279   4.642
87951SOL    HW265693   9.957   7.183   4.660
87952SOL     OW65694   7.981   5.618  12.813
87952SOL    HW165695   7.949   5.706  12.797
87952SOL    HW265696   8.063   5.613  12.764
87953SOL     OW65697   7.131  12.460   6.451
87953SOL    HW165698   7.143  12.525   6.521
87953SOL    HW265699   7.176  12.382   6.483
87954SOL     OW65700   7.601   5.217   3.781
87954SOL    HW165701   7.653   5.189   3.856
87954SOL    HW265702   7.620   5.152   3.713
87955SOL     OW65703   2.397   0.615   2.042
87955SOL    HW165704   2.360   0.528   2.061
87955SOL    HW265705   2.340   0.650   1.973
87956SOL     OW65706   3.958   0.645   1.907
87956SOL    HW165707   3.887   0.609   1.961
87956SOL    HW265708   4.024   0.576   1.904
87957SOL     OW65709   1.831  11.988  11.411
87957SOL    HW165710   1.879  11.921  11.363
87957SOL    HW265711   1.813  12.055  11.345
87958SOL     OW65712  11.272  12.055   6.204
87958SOL    HW165713  11.231  11.992   6.263
87958SOL    HW265714  11.199  12.088   6.150
87959SOL     OW65715   0.453   9.571  12.509
87959SOL    HW165716   0.362   9.568  12.481
87959SOL    HW265717   0.502   9.594  12.430
87960SOL     OW65718  10.882  11.059   3.880
87960SOL    HW165719  10.929  11.118   3.939
87960SOL    HW265720  10.835  11.116   3.821
87961SOL     OW65721   5.744  10.483  13.092
87961SOL    HW165722   5.764  10.400  13.135
87961SOL    HW265723   5.655  10.472  13.059
87962SOL     OW65724   6.622  13.487  14.683
87962SOL    HW165725   6.681  13.427  14.637
87962SOL    HW265726   6.537  13.473  14.641
87963SOL     OW65727   3.537  10.192  14.651
87963SOL    HW165728   3.597  10.247  14.701
87963SOL    HW265729   3.491  10.254  14.593
87964SOL     OW65730   9.396  10.878   2.074
87964SOL    HW165731   9.428  10.950   2.127
87964SOL    HW265732   9.344  10.824   2.135
87965SOL     OW65733   6.331  14.036  10.575
87965SOL    HW165734   6.270  13.966  10.551
87965SOL    HW265735   6.410  14.018  10.524
87966SOL     OW65736   9.697  12.795  10.937
87966SOL    HW165737   9.663  12.749  11.013
87966SOL    HW265738   9.791  12.804  10.953
87967SOL     OW65739   2.140   7.855   8.380
87967SOL    HW165740   2.103   7.802   8.309
87967SOL    HW265741   2.085   7.933   8.383
87968SOL     OW65742   5.831   7.385  14.669
87968SOL    HW165743   5.739   7.382  14.644
87968SOL    HW265744   5.870   7.448  14.607
87969SOL     OW65745  13.441   8.232  14.763
87969SOL    HW165746  13.483   8.287  14.830
87969SOL    HW265747  13.456   8.142  14.792
87970SOL     OW65748   7.359   7.770   4.666
87970SOL    HW165749   7.408   7.837   4.617
87970SOL    HW265750   7.353   7.806   4.755
87971SOL     OW65751  10.773   7.062   6.431
87971SOL    HW165752  10.785   7.148   6.471
87971SOL    HW265753  10.678   7.050   6.425
87972SOL     OW65754   2.441   3.065   0.679
87972SOL    HW165755   2.532   3.078   0.655
87972SOL    HW265756   2.427   2.971   0.670
87973SOL     OW65757  12.333   3.014  10.283
87973SOL    HW165758  12.428   3.004  10.289
87973SOL    HW265759  12.311   3.072  10.356
87974SOL     OW65760   8.931   5.188  11.722
87974SOL    HW165761   8.955   5.111  11.773
87974SOL    HW265762   9.015   5.222  11.690
87975SOL     OW65763   4.586   4.298   4.144
87975SOL    HW165764   4.515   4.331   4.198
87975SOL    HW265765   4.647   4.258   4.206
87976SOL     OW65766   6.818  14.492  12.403
87976SOL    HW165767   6.728  14.499  12.436
87976SOL    HW265768   6.848  14.407  12.435
87977SOL     OW65769   1.487   7.785   8.425
87977SOL    HW165770   1.503   7.792   8.331
87977SOL    HW265771   1.432   7.861   8.445
87978SOL     OW65772  11.215   0.199   4.468
87978SOL    HW165773  11.143   0.262   4.459
87978SOL    HW265774  11.207   0.166   4.557
87979SOL     OW65775  14.310   8.913   2.265
87979SOL    HW165776  14.305   8.915   2.360
87979SOL    HW265777  14.263   8.833   2.240
87980SOL     OW65778   6.375   7.218   4.986
87980SOL    HW165779   6.469   7.220   5.005
87980SOL    HW265780   6.342   7.301   5.021
87981SOL     OW65781   2.332  10.634   6.338
87981SOL    HW165782   2.265  10.691   6.376
87981SOL    HW265783   2.375  10.688   6.271
87982SOL     OW65784   1.291   4.244   9.244
87982SOL    HW165785   1.376   4.269   9.280
87982SOL    HW265786   1.251   4.189   9.312
87983SOL     OW65787  14.794  11.351   9.142
87983SOL    HW165788  14.763  11.439   9.125
87983SOL    HW265789  14.726  11.294   9.107
87984SOL     OW65790   9.422   9.030   0.703
87984SOL    HW165791   9.372   9.015   0.623
87984SOL    HW265792   9.479   8.954   0.710
87985SOL     OW65793   7.227  11.560   0.843
87985SOL    HW165794   7.211  11.466   0.834
87985SOL    HW265795   7.185  11.583   0.926
87986SOL     OW65796   8.148   5.979   7.212
87986SOL    HW165797   8.108   5.999   7.127
87986SOL    HW265798   8.241   5.965   7.192
87987SOL     OW65799  12.964   5.608  11.527
87987SOL    HW165800  12.959   5.597  11.622
87987SOL    HW265801  12.878   5.580  11.495
87988SOL     OW65802  10.345  14.437   6.115
87988SOL    HW165803  10.260  14.394   6.125
87988SOL    HW265804  10.377  14.448   6.204
87989SOL     OW65805   7.045   6.509  13.083
87989SOL    HW165806   7.004   6.436  13.131
87989SOL    HW265807   6.986   6.582  13.096
87990SOL     OW65808   7.039   0.049   1.628
87990SOL    HW165809   7.011   0.046   1.719
87990SOL    HW265810   7.126   0.010   1.628
87991SOL     OW65811  11.382  13.067   4.035
87991SOL    HW165812  11.381  12.999   4.102
87991SOL    HW265813  11.454  13.125   4.059
87992SOL     OW65814  14.793   7.198   7.718
87992SOL    HW165815  14.861   7.220   7.782
87992SOL    HW265816  14.781   7.279   7.667
87993SOL     OW65817   3.605  11.592   0.710
87993SOL    HW165818   3.581  11.666   0.765
87993SOL    HW265819   3.521  11.553   0.684
87994SOL     OW65820  10.880   7.665   3.888
87994SOL    HW165821  10.956   7.645   3.942
87994SOL    HW265822  10.883   7.761   3.878
87995SOL     OW65823  14.109   5.272   5.834
87995SOL    HW165824  14.101   5.326   5.755
87995SOL    HW265825  14.087   5.183   5.805
87996SOL     OW65826  10.082   5.265  14.048
87996SOL    HW165827  10.009   5.328  14.055
87996SOL    HW265828  10.160   5.319  14.058
87997SOL     OW65829   7.060   8.790   7.800
87997SOL    HW165830   7.088   8.802   7.890
87997SOL    HW265831   7.140   8.794   7.748
87998SOL     OW65832   7.244   1.958   1.086
87998SOL    HW165833   7.324   2.005   1.107
87998SOL    HW265834   7.230   1.898   1.159
87999SOL     OW65835   3.983   5.875   4.695
87999SOL    HW165836   4.063   5.898   4.648
87999SOL    HW265837   3.913   5.886   4.631
88000SOL     OW65838   4.266  13.982   8.477
88000SOL    HW165839   4.178  13.975   8.515
88000SOL    HW265840   4.252  13.964   8.384
88001SOL     OW65841   0.118   1.117   3.702
88001SOL    HW165842   0.130   1.098   3.609
88001SOL    HW265843   0.202   1.153   3.730
88002SOL     OW65844   1.952  10.328   1.891
88002SOL    HW165845   1.993  10.414   1.881
88002SOL    HW265846   1.912  10.311   1.806
88003SOL     OW65847   5.789   9.715  12.877
88003SOL    HW165848   5.781   9.700  12.972
88003SOL    HW265849   5.881   9.699  12.859
88004SOL     OW65850   5.970   4.011   9.624
88004SOL    HW165851   5.974   4.102   9.594
88004SOL    HW265852   5.966   4.018   9.719
88005SOL     OW65853  11.949   9.141   7.184
88005SOL    HW165854  11.930   9.224   7.139
88005SOL    HW265855  12.043   9.130   7.175
88006SOL     OW65856   9.330  10.135   0.719
88006SOL    HW165857   9.420  10.168   0.725
88006SOL    HW265858   9.284  10.200   0.667
88007SOL     OW65859   0.339   8.964   1.940
88007SOL    HW165860   0.357   8.916   1.859
88007SOL    HW265861   0.288   9.040   1.912
88008SOL     OW65862  13.414   9.287   4.939
88008SOL    HW165863  13.382   9.347   5.007
88008SOL    HW265864  13.437   9.207   4.987
88009SOL     OW65865   2.602  11.506   2.426
88009SOL    HW165866   2.664  11.580   2.429
88009SOL    HW265867   2.516  11.547   2.437
88010SOL     OW65868  10.106   6.245   6.665
88010SOL    HW165869  10.111   6.179   6.734
88010SOL    HW265870  10.013   6.247   6.641
88011SOL     OW65871  12.734   4.004  14.540
88011SOL    HW165872  12.681   3.969  14.468
88011SOL    HW265873  12.677   4.067  14.582
88012SOL     OW65874   2.645   0.600   3.031
88012SOL    HW165875   2.645   0.645   2.946
88012SOL    HW265876   2.733   0.614   3.066
88013SOL     OW65877   2.433   0.633   6.077
88013SOL    HW165878   2.476   0.703   6.026
88013SOL    HW265879   2.444   0.661   6.168
88014SOL     OW65880   6.196   6.111  11.804
88014SOL    HW165881   6.248   6.153  11.736
88014SOL    HW265882   6.228   6.149  11.886
88015SOL     OW65883   1.188   7.289   3.465
88015SOL    HW165884   1.116   7.227   3.459
88015SOL    HW265885   1.216   7.285   3.556
88016SOL     OW65886   6.836  11.208   8.809
88016SOL    HW165887   6.927  11.232   8.788
88016SOL    HW265888   6.843  11.117   8.840
88017SOL     OW65889   4.706   1.431   9.680
88017SOL    HW165890   4.680   1.348   9.639
88017SOL    HW265891   4.646   1.495   9.642
88018SOL     OW65892   1.750   7.564  13.363
88018SOL    HW165893   1.721   7.653  13.386
88018SOL    HW265894   1.675   7.525  13.319
88019SOL     OW65895   0.956   8.574   4.072
88019SOL    HW165896   0.937   8.611   4.158
88019SOL    HW265897   0.890   8.613   4.014
88020SOL     OW65898  12.100   1.574   2.260
88020SOL    HW165899  12.076   1.599   2.350
88020SOL    HW265900  12.017   1.552   2.218
88021SOL     OW65901   1.298   6.260   3.573
88021SOL    HW165902   1.344   6.239   3.492
88021SOL    HW265903   1.246   6.338   3.551
88022SOL     OW65904   1.178   8.216  13.244
88022SOL    HW165905   1.228   8.280  13.193
88022SOL    HW265906   1.242   8.150  13.269
88023SOL     OW65907   0.748   8.924   7.867
88023SOL    HW165908   0.664   8.898   7.830
88023SOL    HW265909   0.746   9.020   7.867
88024SOL     OW65910  12.866   3.219  14.297
88024SOL    HW165911  12.916   3.219  14.215
88024SOL    HW265912  12.784   3.176  14.275
88025SOL     OW65913  12.951   5.534   9.578
88025SOL    HW165914  12.860   5.521   9.553
88025SOL    HW265915  12.951   5.617   9.626
88026SOL     OW65916  13.373   0.410   3.424
88026SOL    HW165917  13.284   0.392   3.394
88026SOL    HW265918  13.368   0.499   3.459
88027SOL     OW65919  14.126  14.642   7.326
88027SOL    HW165920  14.190  14.584   7.286
88027SOL    HW265921  14.094  14.697   7.254
88028SOL     OW65922   7.463   6.669   0.737
88028SOL    HW165923   7.494   6.750   0.777
88028SOL    HW265924   7.541   6.615   0.729
88029SOL     OW65925  12.717  14.452   1.491
88029SOL    HW165926  12.646  14.435   1.554
88029SOL    HW265927  12.795  14.460   1.545
88030SOL     OW65928  14.047   6.415   0.674
88030SOL    HW165929  14.030   6.411   0.768
88030SOL    HW265930  14.136   6.381   0.664
88031SOL     OW65931   4.877   6.814   4.330
88031SOL    HW165932   4.827   6.733   4.339
88031SOL    HW265933   4.828   6.878   4.382
88032SOL     OW65934   5.674  10.501   1.039
88032SOL    HW165935   5.729  10.579   1.045
88032SOL    HW265936   5.693  10.465   0.953
88033SOL     OW65937  13.673  14.322   7.681
88033SOL    HW165938  13.692  14.285   7.767
88033SOL    HW265939  13.584  14.293   7.662
88034SOL     OW65940  10.614  12.804  13.347
88034SOL    HW165941  10.690  12.746  13.358
88034SOL    HW265942  10.585  12.788  13.257
88035SOL     OW65943  12.159  13.043   2.221
88035SOL    HW165944  12.179  13.068   2.312
88035SOL    HW265945  12.094  12.973   2.229
88036SOL     OW65946  14.566   2.114   4.223
88036SOL    HW165947  14.648   2.126   4.271
88036SOL    HW265948  14.499   2.115   4.291
88037SOL     OW65949   3.887  13.617   5.379
88037SOL    HW165950   3.851  13.605   5.291
88037SOL    HW265951   3.969  13.664   5.364
88038SOL     OW65952  11.190   0.631   6.319
88038SOL    HW165953  11.152   0.614   6.405
88038SOL    HW265954  11.275   0.670   6.337
88039SOL     OW65955   4.218  11.852  13.956
88039SOL    HW165956   4.129  11.884  13.941
88039SOL    HW265957   4.254  11.912  14.021
88040SOL     OW65958  11.327  11.859   4.172
88040SOL    HW165959  11.303  11.848   4.264
88040SOL    HW265960  11.319  11.953   4.157
88041SOL     OW65961  13.326   3.351   3.201
88041SOL    HW165962  13.341   3.438   3.238
88041SOL    HW265963  13.373   3.352   3.118
88042SOL     OW65964  11.259  10.372   7.543
88042SOL    HW165965  11.304  10.288   7.548
88042SOL    HW265966  11.196  10.361   7.472
88043SOL     OW65967  10.568  12.879   4.016
88043SOL    HW165968  10.531  12.799   4.052
88043SOL    HW265969  10.632  12.907   4.081
88044SOL     OW65970  13.351   4.111   3.652
88044SOL    HW165971  13.424   4.171   3.665
88044SOL    HW265972  13.276   4.167   3.634
88045SOL     OW65973   0.349  13.363   3.175
88045SOL    HW165974   0.327  13.270   3.184
88045SOL    HW265975   0.445  13.365   3.181
88046SOL     OW65976   8.118  12.670   0.606
88046SOL    HW165977   8.188  12.722   0.566
88046SOL    HW265978   8.164  12.602   0.656
88047SOL     OW65979   7.373   4.763   1.959
88047SOL    HW165980   7.315   4.786   1.886
88047SOL    HW265981   7.461   4.777   1.925
88048SOL     OW65982   7.655   5.245   5.116
88048SOL    HW165983   7.608   5.162   5.127
88048SOL    HW265984   7.590   5.304   5.078
88049SOL     OW65985   4.103   3.415   2.842
88049SOL    HW165986   4.085   3.418   2.748
88049SOL    HW265987   4.074   3.328   2.870
88050SOL     OW65988   1.476  13.395   9.681
88050SOL    HW165989   1.456  13.322   9.740
88050SOL    HW265990   1.397  13.449   9.681
88051SOL     OW65991   8.781   9.549   7.751
88051SOL    HW165992   8.686   9.536   7.754
88051SOL    HW265993   8.795   9.605   7.675
88052SOL     OW65994   7.907  10.072   0.589
88052SOL    HW165995   7.950  10.090   0.673
88052SOL    HW265996   7.842  10.005   0.609
88053SOL     OW65997   0.132   2.503   3.878
88053SOL    HW165998   0.110   2.464   3.962
88053SOL    HW265999   0.182   2.435   3.832
88054SOL     OW66000   6.291   8.535   2.246
88054SOL    HW166001   6.362   8.592   2.275
88054SOL    HW266002   6.220   8.595   2.222
88055SOL     OW66003  11.657  11.133  14.789
88055SOL    HW166004  11.612  11.102  14.710
88055SOL    HW266005  11.710  11.207  14.760
88056SOL     OW66006   3.239   3.359  12.729
88056SOL    HW166007   3.325   3.342  12.692
88056SOL    HW266008   3.198   3.421  12.668
88057SOL     OW66009  13.065  11.383   8.397
88057SOL    HW166010  13.115  11.305   8.422
88057SOL    HW266011  12.999  11.350   8.336
88058SOL     OW66012  11.329   8.543   8.809
88058SOL    HW166013  11.292   8.485   8.743
88058SOL    HW266014  11.359   8.620   8.760
88059SOL     OW66015   0.739  11.062   7.917
88059SOL    HW166016   0.710  11.083   7.829
88059SOL    HW266017   0.744  10.966   7.919
88060SOL     OW66018   5.876   8.035   7.902
88060SOL    HW166019   5.950   8.074   7.854
88060SOL    HW266020   5.918   7.982   7.970
88061SOL     OW66021   6.020  12.815   8.174
88061SOL    HW166022   5.958  12.857   8.115
88061SOL    HW266023   6.026  12.874   8.249
88062SOL     OW66024  11.430   4.805   0.584
88062SOL    HW166025  11.431   4.876   0.649
88062SOL    HW266026  11.395   4.730   0.631
88063SOL     OW66027  11.247  11.098   7.056
88063SOL    HW166028  11.223  11.066   6.969
88063SOL    HW266029  11.265  11.191   7.044
88064SOL     OW66030   0.316   8.515   8.603
88064SOL    HW166031   0.401   8.515   8.648
88064SOL    HW266032   0.318   8.594   8.548
88065SOL     OW66033   6.846  14.621  11.400
88065SOL    HW166034   6.912  14.565  11.441
88065SOL    HW266035   6.763  14.574  11.413
88066SOL     OW66036  14.496   5.509   9.554
88066SOL    HW166037  14.510   5.434   9.496
88066SOL    HW266038  14.453   5.574   9.499
88067SOL     OW66039   3.506   3.776   9.590
88067SOL    HW166040   3.576   3.738   9.537
88067SOL    HW266041   3.490   3.711   9.659
88068SOL     OW66042   8.405   2.355   5.990
88068SOL    HW166043   8.466   2.288   5.959
88068SOL    HW266044   8.329   2.347   5.932
88069SOL     OW66045   5.432   5.551  10.169
88069SOL    HW166046   5.466   5.538  10.080
88069SOL    HW266047   5.460   5.640  10.192
88070SOL     OW66048  14.548   2.590   9.254
88070SOL    HW166049  14.621   2.588   9.315
88070SOL    HW266050  14.526   2.498   9.239
88071SOL     OW66051  10.723   1.127   6.366
88071SOL    HW166052  10.749   1.087   6.449
88071SOL    HW266053  10.771   1.210   6.364
88072SOL     OW66054   8.712  14.185   7.225
88072SOL    HW166055   8.673  14.199   7.139
88072SOL    HW266056   8.678  14.101   7.254
88073SOL     OW66057  13.512  12.036  13.947
88073SOL    HW166058  13.588  12.042  14.005
88073SOL    HW266059  13.547  12.008  13.863
88074SOL     OW66060  10.274  14.618  12.276
88074SOL    HW166061  10.293  14.696  12.329
88074SOL    HW266062  10.308  14.639  12.189
88075SOL     OW66063   2.532   3.723   7.696
88075SOL    HW166064   2.500   3.637   7.721
88075SOL    HW266065   2.512   3.779   7.771
88076SOL     OW66066  12.508   2.500  13.337
88076SOL    HW166067  12.534   2.584  13.376
88076SOL    HW266068  12.459   2.455  13.406
88077SOL     OW66069  11.822   5.684   6.567
88077SOL    HW166070  11.896   5.731   6.528
88077SOL    HW266071  11.749   5.700   6.507
88078SOL     OW66072   4.431  10.468  11.118
88078SOL    HW166073   4.392  10.534  11.174
88078SOL    HW266074   4.365  10.450  11.051
88079SOL     OW66075   9.065  10.203  11.255
88079SOL    HW166076   9.025  10.190  11.341
88079SOL    HW266077   9.159  10.208  11.272
88080SOL     OW66078  10.232   8.991   0.590
88080SOL    HW166079  10.147   9.028   0.613
88080SOL    HW266080  10.212   8.902   0.560
88081SOL     OW66081   1.432   1.868  14.811
88081SOL    HW166082   1.405   1.869   0.024
88081SOL    HW266083   1.438   1.960  14.787
88082SOL     OW66084   7.749   6.001  13.414
88082SOL    HW166085   7.822   5.940  13.417
88082SOL    HW266086   7.697   5.980  13.491
88083SOL     OW66087  14.244   4.776   5.690
88083SOL    HW166088  14.323   4.796   5.739
88083SOL    HW266089  14.246   4.681   5.677
88084SOL     OW66090   5.765   2.337   3.865
88084SOL    HW166091   5.814   2.284   3.802
88084SOL    HW266092   5.700   2.383   3.812
88085SOL     OW66093  10.344   0.257   7.121
88085SOL    HW166094  10.413   0.256   7.188
88085SOL    HW266095  10.334   0.350   7.100
88086SOL     OW66096   0.574   0.134   1.859
88086SOL    HW166097   0.512   0.116   1.929
88086SOL    HW266098   0.520   0.141   1.780
88087SOL     OW66099   7.992   8.621   7.631
88087SOL    HW166100   8.072   8.605   7.682
88087SOL    HW266101   8.024   8.639   7.542
88088SOL     OW66102   8.397  13.190  10.626
88088SOL    HW166103   8.492  13.183  10.629
88088SOL    HW266104   8.380  13.280  10.598
88089SOL     OW66105  12.965   3.738   6.091
88089SOL    HW166106  12.946   3.783   6.009
88089SOL    HW266107  12.975   3.646   6.066
88090SOL     OW66108   7.520  10.080   9.826
88090SOL    HW166109   7.536  10.074   9.732
88090SOL    HW266110   7.527   9.990   9.858
88091SOL     OW66111   6.261  14.380   4.512
88091SOL    HW166112   6.209  14.301   4.500
88091SOL    HW266113   6.336  14.351   4.564
88092SOL     OW66114   8.027   5.425  14.502
88092SOL    HW166115   8.031   5.355  14.567
88092SOL    HW266116   8.107   5.416  14.451
88093SOL     OW66117   3.395   4.433  11.919
88093SOL    HW166118   3.346   4.413  11.999
88093SOL    HW266119   3.465   4.368  11.916
88094SOL     OW66120  13.212   5.100  13.827
88094SOL    HW166121  13.155   5.056  13.891
88094SOL    HW266122  13.283   5.037  13.812
88095SOL     OW66123   0.749   3.609   5.871
88095SOL    HW166124   0.706   3.548   5.811
88095SOL    HW266125   0.797   3.669   5.813
88096SOL     OW66126   0.989   2.204  12.043
88096SOL    HW166127   1.002   2.193  12.138
88096SOL    HW266128   0.950   2.291  12.035
88097SOL     OW66129  14.439   5.624   6.189
88097SOL    HW166130  14.505   5.559   6.165
88097SOL    HW266131  14.365   5.605   6.132
88098SOL     OW66132   5.625   9.754  14.114
88098SOL    HW166133   5.684   9.830  14.112
88098SOL    HW266134   5.606   9.736  14.022
88099SOL     OW66135   3.325  14.035   0.062
88099SOL    HW166136   3.341  13.951   0.105
88099SOL    HW266137   3.402  14.048   0.007
88100SOL     OW66138   7.121   8.382  14.578
88100SOL    HW166139   7.072   8.392  14.496
88100SOL    HW266140   7.056   8.400  14.646
88101SOL     OW66141   6.384   7.759  12.140
88101SOL    HW166142   6.405   7.752  12.233
88101SOL    HW266143   6.469   7.749  12.096
88102SOL     OW66144   3.408   2.147   6.680
88102SOL    HW166145   3.482   2.104   6.638
88102SOL    HW266146   3.344   2.159   6.610
88103SOL     OW66147   2.499   1.234   9.539
88103SOL    HW166148   2.585   1.199   9.561
88103SOL    HW266149   2.472   1.183   9.462
88104SOL     OW66150  10.783  10.593   3.755
88104SOL    HW166151  10.720  10.522   3.744
88104SOL    HW266152  10.731  10.664   3.793
88105SOL     OW66153   2.909  14.149   2.709
88105SOL    HW166154   3.002  14.171   2.708
88105SOL    HW266155   2.864  14.232   2.690
88106SOL     OW66156  13.034  11.347  10.823
88106SOL    HW166157  12.999  11.258  10.808
88106SOL    HW266158  12.956  11.400  10.836
88107SOL     OW66159   7.911   3.547   8.700
88107SOL    HW166160   7.946   3.531   8.788
88107SOL    HW266161   7.976   3.603   8.657
88108SOL     OW66162  10.830   9.535   1.956
88108SOL    HW166163  10.880   9.453   1.946
88108SOL    HW266164  10.873   9.580   2.029
88109SOL     OW66165  12.628  10.623  13.791
88109SOL    HW166166  12.614  10.692  13.857
88109SOL    HW266167  12.566  10.644  13.721
88110SOL     OW66168   8.237  10.599   3.632
88110SOL    HW166169   8.253  10.688   3.599
88110SOL    HW266170   8.179  10.560   3.568
88111SOL     OW66171  11.967  10.645   1.291
88111SOL    HW166172  11.949  10.643   1.385
88111SOL    HW266173  11.907  10.581   1.253
88112SOL     OW66174  11.456   3.280  11.093
88112SOL    HW166175  11.467   3.185  11.088
88112SOL    HW266176  11.474   3.301  11.185
88113SOL     OW66177   3.722  12.130  14.850
88113SOL    HW166178   3.775  12.121   0.051
88113SOL    HW266179   3.785  12.154  14.782
88114SOL     OW66180   4.114   6.459   9.240
88114SOL    HW166181   4.203   6.464   9.207
88114SOL    HW266182   4.068   6.530   9.196
88115SOL     OW66183   4.341   6.626  11.929
88115SOL    HW166184   4.266   6.685  11.938
88115SOL    HW266185   4.315   6.565  11.860
88116SOL     OW66186   0.036   4.014   2.913
88116SOL    HW166187  14.859   4.057   2.849
88116SOL    HW266188  14.865   4.018   2.995
88117SOL     OW66189  13.652  12.122  13.535
88117SOL    HW166190  13.717  12.093  13.471
88117SOL    HW266191  13.659  12.218  13.534
88118SOL     OW66192   7.692   1.026   8.126
88118SOL    HW166193   7.698   0.997   8.035
88118SOL    HW266194   7.608   0.990   8.157
88119SOL     OW66195   6.864   7.332   3.796
88119SOL    HW166196   6.930   7.357   3.861
88119SOL    HW266197   6.857   7.409   3.739
88120SOL     OW66198  12.247  12.149  11.342
88120SOL    HW166199  12.215  12.235  11.368
88120SOL    HW266200  12.298  12.118  11.417
88121SOL     OW66201   8.642  12.646  10.323
88121SOL    HW166202   8.598  12.562  10.338
88121SOL    HW266203   8.619  12.700  10.399
88122SOL     OW66204  14.711   0.627   4.466
88122SOL    HW166205  14.750   0.655   4.549
88122SOL    HW266206  14.618   0.614   4.487
88123SOL     OW66207  11.540  12.321   0.082
88123SOL    HW166208  11.523  12.231   0.109
88123SOL    HW266209  11.632  12.336   0.103
88124SOL     OW66210   6.348   8.452  11.474
88124SOL    HW166211   6.352   8.364  11.511
88124SOL    HW266212   6.284   8.445  11.403
88125SOL     OW66213   3.729  10.322   1.478
88125SOL    HW166214   3.810  10.361   1.444
88125SOL    HW266215   3.672  10.397   1.496
88126SOL     OW66216   5.540   3.537   1.992
88126SOL    HW166217   5.627   3.564   2.021
88126SOL    HW266218   5.481   3.604   2.027
88127SOL     OW66219   6.124  13.544   9.813
88127SOL    HW166220   6.033  13.571   9.827
88127SOL    HW266221   6.117  13.465   9.759
88128SOL     OW66222  10.963   2.554   4.656
88128SOL    HW166223  10.940   2.539   4.747
88128SOL    HW266224  10.931   2.476   4.610
88129SOL     OW66225   1.872   0.808   5.369
88129SOL    HW166226   1.956   0.806   5.416
88129SOL    HW266227   1.882   0.741   5.301
88130SOL     OW66228  14.628   4.179   6.733
88130SOL    HW166229  14.602   4.155   6.644
88130SOL    HW266230  14.661   4.097   6.771
88131SOL     OW66231   2.154   3.270  11.324
88131SOL    HW166232   2.084   3.217  11.286
88131SOL    HW266233   2.111   3.353  11.346
88132SOL     OW66234  10.573   5.366  11.739
88132SOL    HW166235  10.537   5.287  11.698
88132SOL    HW266236  10.661   5.341  11.766
88133SOL     OW66237   1.810   2.791  12.262
88133SOL    HW166238   1.802   2.879  12.225
88133SOL    HW266239   1.803   2.804  12.356
88134SOL     OW66240   9.144  11.679   0.334
88134SOL    HW166241   9.211  11.617   0.304
88134SOL    HW266242   9.190  11.763   0.341
88135SOL     OW66243  10.848   2.555   5.506
88135SOL    HW166244  10.906   2.533   5.578
88135SOL    HW266245  10.776   2.604   5.546
88136SOL     OW66246   8.406   9.088   7.366
88136SOL    HW166247   8.318   9.054   7.384
88136SOL    HW266248   8.453   9.078   7.449
88137SOL     OW66249   4.996   5.758   8.678
88137SOL    HW166250   5.054   5.764   8.601
88137SOL    HW266251   4.948   5.840   8.678
88138SOL     OW66252   8.729   6.868   9.158
88138SOL    HW166253   8.673   6.892   9.232
88138SOL    HW266254   8.668   6.840   9.090
88139SOL     OW66255  11.131  10.420   5.280
88139SOL    HW166256  11.135  10.497   5.224
88139SOL    HW266257  11.046  10.426   5.324
88140SOL     OW66258  13.123   5.645  12.941
88140SOL    HW166259  13.173   5.567  12.918
88140SOL    HW266260  13.155   5.712  12.881
88141SOL     OW66261   3.986   7.293  13.580
88141SOL    HW166262   4.038   7.348  13.523
88141SOL    HW266263   3.895   7.315  13.560
88142SOL     OW66264  10.358   3.921  12.346
88142SOL    HW166265  10.281   3.910  12.290
88142SOL    HW266266  10.346   3.856  12.416
88143SOL     OW66267  10.934   9.041   3.181
88143SOL    HW166268  11.003   9.028   3.116
88143SOL    HW266269  10.980   9.070   3.260
88144SOL     OW66270   1.651   0.522   8.550
88144SOL    HW166271   1.616   0.524   8.461
88144SOL    HW266272   1.737   0.482   8.541
88145SOL     OW66273   3.479   3.713  13.312
88145SOL    HW166274   3.565   3.716  13.355
88145SOL    HW266275   3.425   3.662  13.372
88146SOL     OW66276  13.069   6.998  10.251
88146SOL    HW166277  13.110   7.025  10.333
88146SOL    HW266278  13.050   6.906  10.263
88147SOL     OW66279   9.348  12.859   1.453
88147SOL    HW166280   9.328  12.935   1.399
88147SOL    HW266281   9.272  12.801   1.441
88148SOL     OW66282  10.863  11.082  12.382
88148SOL    HW166283  10.863  11.062  12.288
88148SOL    HW266284  10.790  11.031  12.417
88149SOL     OW66285   4.250   0.648  11.892
88149SOL    HW166286   4.205   0.647  11.977
88149SOL    HW266287   4.188   0.606  11.832
88150SOL     OW66288   7.773   0.782   5.506
88150SOL    HW166289   7.781   0.688   5.521
88150SOL    HW266290   7.857   0.808   5.468
88151SOL     OW66291  12.134  13.988   1.171
88151SOL    HW166292  12.159  13.895   1.163
88151SOL    HW266293  12.164  14.013   1.258
88152SOL     OW66294   0.943   0.737   6.722
88152SOL    HW166295   0.912   0.656   6.682
88152SOL    HW266296   0.918   0.730   6.814
88153SOL     OW66297   5.971   0.231   6.119
88153SOL    HW166298   5.959   0.166   6.049
88153SOL    HW266299   5.999   0.310   6.073
88154SOL     OW66300  10.418   9.452   9.111
88154SOL    HW166301  10.485   9.450   9.178
88154SOL    HW266302  10.340   9.486   9.155
88155SOL     OW66303   2.684  14.095  12.700
88155SOL    HW166304   2.715  14.004  12.706
88155SOL    HW266305   2.698  14.119  12.609
88156SOL     OW66306   6.656   6.263   6.789
88156SOL    HW166307   6.586   6.292   6.731
88156SOL    HW266308   6.688   6.343   6.831
88157SOL     OW66309  14.401  12.065   7.971
88157SOL    HW166310  14.493  12.050   7.992
88157SOL    HW266311  14.388  12.159   7.984
88158SOL     OW66312   7.330   2.682   9.778
88158SOL    HW166313   7.382   2.719   9.849
88158SOL    HW266314   7.252   2.738   9.773
88159SOL     OW66315  10.985   1.565   0.715
88159SOL    HW166316  11.036   1.515   0.778
88159SOL    HW266317  11.001   1.523   0.631
88160SOL     OW66318   8.711   3.857   9.347
88160SOL    HW166319   8.686   3.774   9.388
88160SOL    HW266320   8.655   3.922   9.389
88161SOL     OW66321   6.213  12.966   9.508
88161SOL    HW166322   6.232  13.056   9.535
88161SOL    HW266323   6.272  12.950   9.435
88162SOL     OW66324  14.177  11.737   6.618
88162SOL    HW166325  14.096  11.757   6.570
88162SOL    HW266326  14.153  11.746   6.710
88163SOL     OW66327  12.863   1.119  10.098
88163SOL    HW166328  12.944   1.138  10.144
88163SOL    HW266329  12.887   1.116  10.006
88164SOL     OW66330   4.879  14.153  10.317
88164SOL    HW166331   4.787  14.135  10.338
88164SOL    HW266332   4.906  14.080  10.261
88165SOL     OW66333   5.818  14.347  12.767
88165SOL    HW166334   5.738  14.400  12.761
88165SOL    HW266335   5.882  14.395  12.715
88166SOL     OW66336   7.400  10.800   9.481
88166SOL    HW166337   7.338  10.812   9.409
88166SOL    HW266338   7.415  10.888   9.514
88167SOL     OW66339  12.256   0.865  10.730
88167SOL    HW166340  12.283   0.835  10.643
88167SOL    HW266341  12.302   0.948  10.742
88168SOL     OW66342   8.660   9.044  11.686
88168SOL    HW166343   8.733   9.080  11.736
88168SOL    HW266344   8.609   8.994  11.750
88169SOL     OW66345   4.021   2.561  11.254
88169SOL    HW166346   3.988   2.623  11.319
88169SOL    HW266347   4.018   2.609  11.172
88170SOL     OW66348   2.273   8.724   4.267
88170SOL    HW166349   2.365   8.710   4.291
88170SOL    HW266350   2.225   8.714   4.349
88171SOL     OW66351  11.596  14.419  13.894
88171SOL    HW166352  11.602  14.490  13.829
88171SOL    HW266353  11.614  14.339  13.844
88172SOL     OW66354   2.852  12.964  14.714
88172SOL    HW166355   2.939  12.936  14.684
88172SOL    HW266356   2.870  13.025  14.785
88173SOL     OW66357  13.783  11.692   5.354
88173SOL    HW166358  13.723  11.672   5.282
88173SOL    HW266359  13.758  11.631   5.423
88174SOL     OW66360   8.987   1.712   0.818
88174SOL    HW166361   8.978   1.622   0.849
88174SOL    HW266362   8.929   1.763   0.874
88175SOL     OW66363   2.674   4.660   5.216
88175SOL    HW166364   2.692   4.574   5.255
88175SOL    HW266365   2.759   4.690   5.183
88176SOL     OW66366   6.461  11.320   9.789
88176SOL    HW166367   6.502  11.390   9.840
88176SOL    HW266368   6.488  11.240   9.834
88177SOL     OW66369  11.022   0.479  11.189
88177SOL    HW166370  11.084   0.497  11.260
88177SOL    HW266371  11.075   0.436  11.122
88178SOL     OW66372  11.301   4.893   2.903
88178SOL    HW166373  11.290   4.988   2.903
88178SOL    HW266374  11.289   4.867   2.994
88179SOL     OW66375  10.544   7.054   1.550
88179SOL    HW166376  10.613   6.987   1.549
88179SOL    HW266377  10.575   7.120   1.488
88180SOL     OW66378   4.292  13.951   9.106
88180SOL    HW166379   4.323  13.863   9.127
88180SOL    HW266380   4.334  13.972   9.022
88181SOL     OW66381   3.078  13.262   5.853
88181SOL    HW166382   3.172  13.261   5.836
88181SOL    HW266383   3.066  13.195   5.921
88182SOL     OW66384   1.456   2.089   5.617
88182SOL    HW166385   1.548   2.087   5.593
88182SOL    HW266386   1.430   2.181   5.608
88183SOL     OW66387  12.504   5.978   4.063
88183SOL    HW166388  12.568   5.921   4.021
88183SOL    HW266389  12.424   5.967   4.011
88184SOL     OW66390   6.163  14.213  13.765
88184SOL    HW166391   6.084  14.175  13.805
88184SOL    HW266392   6.228  14.143  13.770
88185SOL     OW66393   8.877   3.626   6.914
88185SOL    HW166394   8.905   3.718   6.911
88185SOL    HW266395   8.933   3.582   6.850
88186SOL     OW66396  11.053  14.131  11.472
88186SOL    HW166397  11.108  14.072  11.523
88186SOL    HW266398  11.060  14.215  11.517
88187SOL     OW66399  11.780   9.226   0.826
88187SOL    HW166400  11.849   9.182   0.777
88187SOL    HW266401  11.705   9.228   0.767
88188SOL     OW66402   8.269   2.952   4.007
88188SOL    HW166403   8.317   2.881   3.962
88188SOL    HW266404   8.265   3.022   3.942
88189SOL     OW66405   1.397   0.703   4.980
88189SOL    HW166406   1.438   0.649   4.913
88189SOL    HW266407   1.329   0.752   4.934
88190SOL     OW66408   6.567  12.428   7.151
88190SOL    HW166409   6.507  12.482   7.203
88190SOL    HW266410   6.540  12.444   7.060
88191SOL     OW66411   4.218   1.491   7.485
88191SOL    HW166412   4.159   1.463   7.415
88191SOL    HW266413   4.160   1.517   7.557
88192SOL     OW66414   1.023  14.723   3.503
88192SOL    HW166415   1.089  14.654   3.508
88192SOL    HW266416   0.954  14.686   3.448
88193SOL     OW66417   5.485   8.923   3.131
88193SOL    HW166418   5.437   8.944   3.211
88193SOL    HW266419   5.476   8.829   3.121
88194SOL     OW66420   9.708   8.186   5.198
88194SOL    HW166421   9.623   8.185   5.242
88194SOL    HW266422   9.688   8.186   5.105
88195SOL     OW66423   3.251   7.588  13.655
88195SOL    HW166424   3.232   7.504  13.612
88195SOL    HW266425   3.330   7.620  13.611
88196SOL     OW66426  10.312   4.152   3.886
88196SOL    HW166427  10.274   4.239   3.869
88196SOL    HW266428  10.297   4.104   3.805
88197SOL     OW66429   2.333   8.458   9.866
88197SOL    HW166430   2.260   8.519   9.865
88197SOL    HW266431   2.395   8.492   9.801
88198SOL     OW66432   4.702  13.696  14.038
88198SOL    HW166433   4.705  13.750  14.117
88198SOL    HW266434   4.785  13.649  14.038
88199SOL     OW66435   0.211   9.807   7.823
88199SOL    HW166436   0.126   9.801   7.778
88199SOL    HW266437   0.262   9.869   7.771
88200SOL     OW66438   4.051  12.389  13.451
88200SOL    HW166439   4.052  12.445  13.529
88200SOL    HW266440   4.034  12.301  13.485
88201SOL     OW66441  10.651   6.445   6.286
88201SOL    HW166442  10.572   6.412   6.243
88201SOL    HW266443  10.716   6.375   6.275
88202SOL     OW66444   7.178  11.947   3.000
88202SOL    HW166445   7.213  11.862   2.974
88202SOL    HW266446   7.120  11.928   3.074
88203SOL     OW66447  12.306  13.557   1.650
88203SOL    HW166448  12.376  13.539   1.713
88203SOL    HW266449  12.235  13.593   1.704
88204SOL     OW66450  10.023   9.276  14.381
88204SOL    HW166451  10.096   9.220  14.353
88204SOL    HW266452   9.950   9.215  14.392
88205SOL     OW66453   8.372  12.143   3.323
88205SOL    HW166454   8.319  12.199   3.379
88205SOL    HW266455   8.403  12.200   3.252
88206SOL     OW66456   6.018   0.536  11.507
88206SOL    HW166457   6.083   0.558  11.440
88206SOL    HW266458   6.039   0.593  11.580
88207SOL     OW66459   5.436   9.422  12.519
88207SOL    HW166460   5.350   9.389  12.495
88207SOL    HW266461   5.485   9.425  12.437
88208SOL     OW66462  10.073  14.397   6.106
88208SOL    HW166463  10.010  14.367   6.041
88208SOL    HW266464  10.095  14.486   6.080
88209SOL     OW66465   5.589  12.685   4.318
88209SOL    HW166466   5.542  12.612   4.357
88209SOL    HW266467   5.519  12.746   4.291
88210SOL     OW66468  13.184  11.118   0.839
88210SOL    HW166469  13.202  11.029   0.808
88210SOL    HW266470  13.095  11.113   0.875
88211SOL     OW66471   1.871   8.328  10.402
88211SOL    HW166472   1.842   8.251  10.353
88211SOL    HW266473   1.822   8.325  10.484
88212SOL     OW66474   7.384   7.020  11.224
88212SOL    HW166475   7.442   6.945  11.233
88212SOL    HW266476   7.435   7.094  11.257
88213SOL     OW66477  13.457  10.772   1.051
88213SOL    HW166478  13.393  10.795   0.983
88213SOL    HW266479  13.529  10.731   1.004
88214SOL     OW66480  11.538   0.263  13.720
88214SOL    HW166481  11.467   0.326  13.708
88214SOL    HW266482  11.614   0.317  13.743
88215SOL     OW66483   0.281   0.097  12.755
88215SOL    HW166484   0.216   0.062  12.816
88215SOL    HW266485   0.301   0.024  12.697
88216SOL     OW66486   0.597  11.599   5.628
88216SOL    HW166487   0.693  11.594   5.621
88216SOL    HW266488   0.575  11.687   5.596
88217SOL     OW66489   9.456   2.873   1.144
88217SOL    HW166490   9.437   2.786   1.108
88217SOL    HW266491   9.499   2.856   1.228
88218SOL     OW66492   7.540  12.196  11.007
88218SOL    HW166493   7.451  12.222  11.030
88218SOL    HW266494   7.533  12.103  10.984
88219SOL     OW66495  12.514  12.920   2.013
88219SOL    HW166496  12.602  12.943   1.983
88219SOL    HW266497  12.467  13.003   2.017
88220SOL     OW66498   4.405   8.808  14.276
88220SOL    HW166499   4.452   8.884  14.241
88220SOL    HW266500   4.454   8.733  14.244
88221SOL     OW66501  10.781   0.102  13.676
88221SOL    HW166502  10.782   0.030  13.612
88221SOL    HW266503  10.872   0.113  13.701
88222SOL     OW66504   6.008   0.597   8.579
88222SOL    HW166505   5.968   0.583   8.493
88222SOL    HW266506   6.038   0.688   8.576
88223SOL     OW66507   7.949   1.545   9.018
88223SOL    HW166508   7.966   1.623   8.965
88223SOL    HW266509   7.942   1.577   9.107
88224SOL     OW66510   5.674   4.307  12.205
88224SOL    HW166511   5.666   4.400  12.224
88224SOL    HW266512   5.768   4.294  12.190
88225SOL     OW66513   0.343   9.451  11.148
88225SOL    HW166514   0.278   9.424  11.213
88225SOL    HW266515   0.384   9.369  11.120
88226SOL     OW66516  14.126  11.960   6.172
88226SOL    HW166517  14.038  11.954   6.134
88226SOL    HW266518  14.184  11.923   6.106
88227SOL     OW66519   0.487  14.145   9.349
88227SOL    HW166520   0.501  14.229   9.394
88227SOL    HW266521   0.446  14.089   9.415
88228SOL     OW66522   1.602   1.123   7.135
88228SOL    HW166523   1.543   1.064   7.089
88228SOL    HW266524   1.586   1.106   7.228
88229SOL     OW66525   0.481   9.610  13.366
88229SOL    HW166526   0.436   9.530  13.396
88229SOL    HW266527   0.560   9.614  13.419
88230SOL     OW66528   1.704  13.573   4.328
88230SOL    HW166529   1.695  13.501   4.265
88230SOL    HW266530   1.620  13.574   4.374
88231SOL     OW66531   4.706  12.441  12.199
88231SOL    HW166532   4.715  12.377  12.129
88231SOL    HW266533   4.726  12.391  12.279
88232SOL     OW66534  13.248  12.793  13.684
88232SOL    HW166535  13.275  12.870  13.634
88232SOL    HW266536  13.272  12.815  13.774
88233SOL     OW66537   5.018   4.430   6.253
88233SOL    HW166538   4.966   4.403   6.178
88233SOL    HW266539   5.061   4.510   6.226
88234SOL     OW66540   8.600  14.720  11.053
88234SOL    HW166541   8.624  14.798  11.104
88234SOL    HW266542   8.510  14.736  11.025
88235SOL     OW66543  11.521   8.823  12.683
88235SOL    HW166544  11.437   8.780  12.673
88235SOL    HW266545  11.540   8.859  12.596
88236SOL     OW66546  13.552  10.336   1.190
88236SOL    HW166547  13.543  10.245   1.220
88236SOL    HW266548  13.463  10.370   1.190
88237SOL     OW66549   3.436   8.826   7.159
88237SOL    HW166550   3.529   8.806   7.154
88237SOL    HW266551   3.409   8.799   7.247
88238SOL     OW66552   2.313   2.841  12.727
88238SOL    HW166553   2.401   2.803  12.719
88238SOL    HW266554   2.279   2.807  12.809
88239SOL     OW66555  13.338   3.208   9.825
88239SOL    HW166556  13.308   3.138   9.767
88239SOL    HW266557  13.261   3.232   9.876
88240SOL     OW66558   5.212   5.097  10.663
88240SOL    HW166559   5.192   5.022  10.606
88240SOL    HW266560   5.303   5.082  10.690
88241SOL     OW66561   6.260   4.189  11.363
88241SOL    HW166562   6.275   4.233  11.280
88241SOL    HW266563   6.239   4.099  11.340
88242SOL     OW66564   1.493   4.224   3.648
88242SOL    HW166565   1.459   4.267   3.726
88242SOL    HW266566   1.446   4.140   3.644
88243SOL     OW66567   9.000   2.736   8.222
88243SOL    HW166568   9.052   2.657   8.206
88243SOL    HW266569   9.000   2.746   8.317
88244SOL     OW66570   8.543  10.992   3.905
88244SOL    HW166571   8.462  11.024   3.946
88244SOL    HW266572   8.613  11.026   3.961
88245SOL     OW66573   9.518   5.484   6.488
88245SOL    HW166574   9.591   5.538   6.458
88245SOL    HW266575   9.451   5.494   6.421
88246SOL     OW66576   0.988   9.777   6.359
88246SOL    HW166577   1.023   9.800   6.445
88246SOL    HW266578   0.907   9.829   6.351
88247SOL     OW66579   3.879   2.417  14.285
88247SOL    HW166580   3.828   2.341  14.314
88247SOL    HW266581   3.955   2.380  14.241
88248SOL     OW66582  13.929   8.943   2.385
88248SOL    HW166583  13.838   8.962   2.407
88248SOL    HW266584  13.925   8.877   2.316
88249SOL     OW66585  11.346   4.617  10.446
88249SOL    HW166586  11.431   4.599  10.486
88249SOL    HW266587  11.366   4.668  10.368
88250SOL     OW66588  11.045   9.835   8.103
88250SOL    HW166589  11.009   9.761   8.151
88250SOL    HW266590  10.969   9.887   8.077
88251SOL     OW66591   3.953   3.957   5.581
88251SOL    HW166592   3.929   4.047   5.558
88251SOL    HW266593   3.908   3.941   5.664
88252SOL     OW66594   1.704   7.934   6.961
88252SOL    HW166595   1.681   7.848   6.925
88252SOL    HW266596   1.792   7.951   6.927
88253SOL     OW66597   3.182   3.838   4.190
88253SOL    HW166598   3.235   3.762   4.214
88253SOL    HW266599   3.106   3.833   4.248
88254SOL     OW66600   7.177   5.373   9.400
88254SOL    HW166601   7.136   5.374   9.314
88254SOL    HW266602   7.269   5.351   9.383
88255SOL     OW66603   3.343  14.487   1.988
88255SOL    HW166604   3.334  14.460   1.897
88255SOL    HW266605   3.391  14.415   2.030
88256SOL     OW66606   2.123  13.327   0.882
88256SOL    HW166607   2.195  13.270   0.854
88256SOL    HW266608   2.082  13.356   0.800
88257SOL     OW66609  12.733  13.280   9.805
88257SOL    HW166610  12.684  13.213   9.852
88257SOL    HW266611  12.666  13.340   9.771
88258SOL     OW66612   6.546   4.840   5.860
88258SOL    HW166613   6.575   4.925   5.895
88258SOL    HW266614   6.576   4.840   5.769
88259SOL     OW66615   6.955  10.712   9.378
88259SOL    HW166616   6.926  10.794   9.339
88259SOL    HW266617   7.036  10.735   9.424
88260SOL     OW66618   0.767   8.697  12.022
88260SOL    HW166619   0.715   8.653  11.955
88260SOL    HW266620   0.854   8.706  11.984
88261SOL     OW66621  12.610   0.045  10.928
88261SOL    HW166622  12.626   0.057  10.834
88261SOL    HW266623  12.572  14.836  10.935
88262SOL     OW66624  11.077   7.846   0.523
88262SOL    HW166625  11.144   7.789   0.560
88262SOL    HW266626  11.027   7.788   0.465
88263SOL     OW66627   2.061  12.192   8.120
88263SOL    HW166628   1.988  12.132   8.138
88263SOL    HW266629   2.058  12.205   8.025
88264SOL     OW66630   7.236   4.508   5.592
88264SOL    HW166631   7.163   4.551   5.546
88264SOL    HW266632   7.196   4.433   5.636
88265SOL     OW66633  12.015   7.965  10.935
88265SOL    HW166634  12.100   7.965  10.891
88265SOL    HW266635  11.986   8.056  10.929
88266SOL     OW66636   7.445  13.727   6.152
88266SOL    HW166637   7.530  13.716   6.111
88266SOL    HW266638   7.457  13.800   6.213
88267SOL     OW66639   9.388   0.869  12.885
88267SOL    HW166640   9.361   0.790  12.934
88267SOL    HW266641   9.482   0.859  12.874
88268SOL     OW66642   9.535  12.798   7.039
88268SOL    HW166643   9.535  12.890   7.014
88268SOL    HW266644   9.485  12.796   7.121
88269SOL     OW66645   0.556  11.075   7.733
88269SOL    HW166646   0.478  11.032   7.700
88269SOL    HW266647   0.534  11.168   7.733
88270SOL     OW66648   2.199   6.219   6.874
88270SOL    HW166649   2.272   6.199   6.816
88270SOL    HW266650   2.157   6.135   6.890
88271SOL     OW66651   3.499   2.876  13.783
88271SOL    HW166652   3.459   2.941  13.724
88271SOL    HW266653   3.593   2.890  13.771
88272SOL     OW66654   8.077   1.851   4.755
88272SOL    HW166655   8.087   1.921   4.690
88272SOL    HW266656   8.164   1.810   4.759
88273SOL     OW66657   3.816   7.734   4.165
88273SOL    HW166658   3.900   7.690   4.177
88273SOL    HW266659   3.766   7.711   4.243
88274SOL     OW66660   1.870  12.103   2.993
88274SOL    HW166661   1.789  12.089   3.042
88274SOL    HW266662   1.847  12.085   2.902
88275SOL     OW66663  12.452   8.585   8.634
88275SOL    HW166664  12.428   8.493   8.629
88275SOL    HW266665  12.450   8.605   8.728
88276SOL     OW66666   0.163  10.345   8.759
88276SOL    HW166667   0.202  10.272   8.711
88276SOL    HW266668   0.224  10.361   8.831
88277SOL     OW66669  12.231   6.083   0.050
88277SOL    HW166670  12.321   6.086   0.081
88277SOL    HW266671  12.185   6.149   0.102
88278SOL     OW66672   6.204   1.374   1.712
88278SOL    HW166673   6.257   1.372   1.791
88278SOL    HW266674   6.238   1.302   1.658
88279SOL     OW66675   6.337   9.757   4.408
88279SOL    HW166676   6.275   9.691   4.375
88279SOL    HW266677   6.371   9.799   4.329
88280SOL     OW66678   0.932   7.109   8.370
88280SOL    HW166679   0.868   7.171   8.404
88280SOL    HW266680   0.944   7.045   8.440
88281SOL     OW66681   6.339  11.254   5.359
88281SOL    HW166682   6.337  11.158   5.355
88281SOL    HW266683   6.318  11.281   5.269
88282SOL     OW66684   2.368  13.274   4.703
88282SOL    HW166685   2.376  13.326   4.783
88282SOL    HW266686   2.452  13.228   4.696
88283SOL     OW66687  12.691  13.602  11.277
88283SOL    HW166688  12.712  13.579  11.186
88283SOL    HW266689  12.683  13.519  11.322
88284SOL     OW66690  12.234   0.065   9.557
88284SOL    HW166691  12.296   0.004   9.518
88284SOL    HW266692  12.264   0.076   9.647
88285SOL     OW66693  12.112   2.344  10.138
88285SOL    HW166694  12.113   2.433  10.103
88285SOL    HW266695  12.031   2.340  10.190
88286SOL     OW66696  10.605   0.818   3.776
88286SOL    HW166697  10.641   0.757   3.712
88286SOL    HW266698  10.564   0.887   3.724
88287SOL     OW66699   4.937   9.919  13.831
88287SOL    HW166700   4.906   9.902  13.920
88287SOL    HW266701   4.859   9.950  13.784
88288SOL     OW66702   6.775   9.576   5.583
88288SOL    HW166703   6.703   9.539   5.531
88288SOL    HW266704   6.827   9.499   5.609
88289SOL     OW66705   2.765  11.286  11.042
88289SOL    HW166706   2.783  11.380  11.042
88289SOL    HW266707   2.790  11.256  11.130
88290SOL     OW66708  11.783   2.174   8.351
88290SOL    HW166709  11.732   2.220   8.285
88290SOL    HW266710  11.872   2.209   8.342
88291SOL     OW66711   4.689  12.140   2.571
88291SOL    HW166712   4.633  12.179   2.503
88291SOL    HW266713   4.733  12.067   2.527
88292SOL     OW66714   4.420  11.946   2.112
88292SOL    HW166715   4.424  11.880   2.042
88292SOL    HW266716   4.385  12.024   2.069
88293SOL     OW66717  13.856  11.358  12.716
88293SOL    HW166718  13.761  11.356  12.701
88293SOL    HW266719  13.889  11.420  12.651
88294SOL     OW66720   3.949   4.274   2.614
88294SOL    HW166721   3.899   4.324   2.677
88294SOL    HW266722   3.898   4.279   2.533
88295SOL     OW66723  13.880   5.934   1.853
88295SOL    HW166724  13.898   5.854   1.902
88295SOL    HW266725  13.790   5.924   1.822
88296SOL     OW66726  13.331   2.689  11.941
88296SOL    HW166727  13.426   2.698  11.937
88296SOL    HW266728  13.310   2.622  11.877
88297SOL     OW66729   2.791   8.581   4.229
88297SOL    HW166730   2.868   8.565   4.176
88297SOL    HW266731   2.745   8.497   4.232
88298SOL     OW66732   8.244   7.829   1.426
88298SOL    HW166733   8.248   7.762   1.357
88298SOL    HW266734   8.323   7.880   1.415
88299SOL     OW66735   3.378   1.275  14.011
88299SOL    HW166736   3.314   1.302  14.077
88299SOL    HW266737   3.458   1.323  14.035
88300SOL     OW66738   7.445  11.069   4.296
88300SOL    HW166739   7.418  11.161   4.305
88300SOL    HW266740   7.480  11.063   4.207
88301SOL     OW66741   2.315  14.197   7.776
88301SOL    HW166742   2.340  14.196   7.684
88301SOL    HW266743   2.265  14.116   7.788
88302SOL     OW66744   2.689   9.210  14.437
88302SOL    HW166745   2.726   9.258  14.363
88302SOL    HW266746   2.765   9.188  14.491
88303SOL     OW66747  10.812   6.160   0.215
88303SOL    HW166748  10.802   6.162   0.120
88303SOL    HW266749  10.875   6.090   0.231
88304SOL     OW66750   1.151   9.932   2.358
88304SOL    HW166751   1.118   9.916   2.269
88304SOL    HW266752   1.210  10.007   2.349
88305SOL     OW66753   4.565  12.626   8.264
88305SOL    HW166754   4.640  12.649   8.318
88305SOL    HW266755   4.537  12.540   8.295
88306SOL     OW66756   0.192   0.404  13.193
88306SOL    HW166757   0.277   0.426  13.155
88306SOL    HW266758   0.213   0.353  13.271
88307SOL     OW66759   3.072   7.790   6.027
88307SOL    HW166760   3.162   7.762   6.042
88307SOL    HW266761   3.040   7.815   6.113
88308SOL     OW66762   8.289   9.514   2.733
88308SOL    HW166763   8.316   9.478   2.817
88308SOL    HW266764   8.322   9.604   2.733
88309SOL     OW66765   6.897   8.475  14.053
88309SOL    HW166766   6.931   8.404  13.999
88309SOL    HW266767   6.937   8.462  14.139
88310SOL     OW66768   7.714   4.243   7.754
88310SOL    HW166769   7.673   4.206   7.676
88310SOL    HW266770   7.656   4.220   7.826
88311SOL     OW66771  14.199   4.428  12.715
88311SOL    HW166772  14.103   4.427  12.721
88311SOL    HW266773  14.223   4.335  12.712
88312SOL     OW66774   6.283   9.273   9.310
88312SOL    HW166775   6.281   9.368   9.326
88312SOL    HW266776   6.210   9.239   9.361
88313SOL     OW66777   5.719   0.843   2.103
88313SOL    HW166778   5.781   0.815   2.170
88313SOL    HW266779   5.668   0.913   2.144
88314SOL     OW66780   6.446   6.736   3.478
88314SOL    HW166781   6.437   6.739   3.383
88314SOL    HW266782   6.540   6.740   3.494
88315SOL     OW66783   9.624   9.878   5.628
88315SOL    HW166784   9.582   9.821   5.692
88315SOL    HW266785   9.560   9.886   5.557
88316SOL     OW66786   5.363  10.815  13.217
88316SOL    HW166787   5.386  10.756  13.288
88316SOL    HW266788   5.447  10.842  13.180
88317SOL     OW66789   4.342   6.390   1.309
88317SOL    HW166790   4.300   6.326   1.367
88317SOL    HW266791   4.403   6.339   1.256
88318SOL     OW66792  12.969  13.049   3.365
88318SOL    HW166793  12.923  13.021   3.444
88318SOL    HW266794  13.060  13.021   3.379
88319SOL     OW66795   1.170  11.126  14.451
88319SOL    HW166796   1.208  11.059  14.395
88319SOL    HW266797   1.154  11.200  14.392
88320SOL     OW66798  14.743   2.574   5.183
88320SOL    HW166799  14.818   2.562   5.241
88320SOL    HW266800  14.772   2.540   5.098
88321SOL     OW66801   7.094   1.152   9.462
88321SOL    HW166802   7.077   1.092   9.389
88321SOL    HW266803   7.011   1.157   9.509
88322SOL     OW66804  12.597   2.250  14.562
88322SOL    HW166805  12.641   2.222  14.642
88322SOL    HW266806  12.505   2.233  14.578
88323SOL     OW66807  11.532   7.751   8.050
88323SOL    HW166808  11.439   7.766   8.069
88323SOL    HW266809  11.574   7.750   8.136
88324SOL     OW66810   5.783   6.344   9.998
88324SOL    HW166811   5.813   6.422   9.950
88324SOL    HW266812   5.703   6.373  10.042
88325SOL     OW66813   9.698  10.403   6.805
88325SOL    HW166814   9.730  10.487   6.772
88325SOL    HW266815   9.721  10.340   6.737
88326SOL     OW66816   2.134   4.089   3.590
88326SOL    HW166817   2.081   4.068   3.667
88326SOL    HW266818   2.200   4.020   3.586
88327SOL     OW66819  10.292   4.375   6.272
88327SOL    HW166820  10.299   4.449   6.332
88327SOL    HW266821  10.299   4.414   6.185
88328SOL     OW66822   1.669  13.098  10.424
88328SOL    HW166823   1.692  13.078  10.515
88328SOL    HW266824   1.575  13.080  10.419
88329SOL     OW66825   3.531  11.769  14.703
88329SOL    HW166826   3.581  11.691  14.677
88329SOL    HW266827   3.441  11.738  14.712
88330SOL     OW66828   4.498   7.140   6.438
88330SOL    HW166829   4.586   7.138   6.477
88330SOL    HW266830   4.483   7.232   6.417
88331SOL     OW66831   5.973   1.939   4.411
88331SOL    HW166832   5.889   1.984   4.419
88331SOL    HW266833   5.998   1.950   4.320
88332SOL     OW66834  12.938   2.444  14.056
88332SOL    HW166835  12.991   2.424  14.134
88332SOL    HW266836  12.876   2.372  14.050
88333SOL     OW66837   7.789   0.867  14.665
88333SOL    HW166838   7.804   0.786  14.715
88333SOL    HW266839   7.695   0.866  14.647
88334SOL     OW66840   6.878  13.144   7.191
88334SOL    HW166841   6.795  13.099   7.205
88334SOL    HW266842   6.945  13.075   7.195
88335SOL     OW66843   3.276  13.422  10.871
88335SOL    HW166844   3.278  13.329  10.895
88335SOL    HW266845   3.220  13.427  10.794
88336SOL     OW66846   5.140  14.076   6.115
88336SOL    HW166847   5.181  14.060   6.030
88336SOL    HW266848   5.197  14.139   6.159
88337SOL     OW66849  12.276  14.134   2.064
88337SOL    HW166850  12.323  14.097   1.990
88337SOL    HW266851  12.219  14.064   2.094
88338SOL     OW66852   3.370   1.667  10.371
88338SOL    HW166853   3.412   1.751  10.390
88338SOL    HW266854   3.423   1.629  10.301
88339SOL     OW66855   0.124   0.169   2.923
88339SOL    HW166856   0.214   0.185   2.894
88339SOL    HW266857   0.103   0.243   2.981
88340SOL     OW66858  13.087   4.350   6.683
88340SOL    HW166859  13.054   4.410   6.616
88340SOL    HW266860  13.146   4.403   6.736
88341SOL     OW66861   2.588   9.882  11.989
88341SOL    HW166862   2.512   9.933  11.961
88341SOL    HW266863   2.658   9.946  12.000
88342SOL     OW66864   8.937   6.294  12.478
88342SOL    HW166865   8.929   6.206  12.515
88342SOL    HW266866   8.893   6.351  12.541
88343SOL     OW66867   4.651   3.401   0.964
88343SOL    HW166868   4.675   3.359   1.046
88343SOL    HW266869   4.623   3.329   0.907
88344SOL     OW66870  10.551  12.304  11.366
88344SOL    HW166871  10.582  12.283  11.454
88344SOL    HW266872  10.486  12.236  11.347
88345SOL     OW66873  10.613   5.798  11.297
88345SOL    HW166874  10.670   5.723  11.317
88345SOL    HW266875  10.531   5.758  11.269
88346SOL     OW66876   8.694   1.333   8.714
88346SOL    HW166877   8.644   1.411   8.689
88346SOL    HW266878   8.726   1.352   8.802
88347SOL     OW66879  12.256   0.222   2.358
88347SOL    HW166880  12.317   0.294   2.349
88347SOL    HW266881  12.273   0.166   2.282
88348SOL     OW66882   4.990   0.122   2.142
88348SOL    HW166883   5.057   0.062   2.112
88348SOL    HW266884   4.918   0.066   2.171
88349SOL     OW66885   9.966   0.820  10.574
88349SOL    HW166886  10.007   0.900  10.605
88349SOL    HW266887   9.892   0.805  10.633
88350SOL     OW66888   8.993   3.386   7.992
88350SOL    HW166889   9.086   3.410   7.988
88350SOL    HW266890   8.993   3.291   7.998
88351SOL     OW66891  14.204   5.493  12.398
88351SOL    HW166892  14.109   5.485  12.405
88351SOL    HW266893  14.230   5.532  12.481
88352SOL     OW66894   9.874   6.600   6.515
88352SOL    HW166895   9.918   6.547   6.449
88352SOL    HW266896   9.944   6.627   6.575
88353SOL     OW66897  14.040   2.215   9.378
88353SOL    HW166898  14.107   2.194   9.314
88353SOL    HW266899  14.088   2.255   9.451
88354SOL     OW66900   0.036  12.660  11.154
88354SOL    HW166901   0.027  12.741  11.203
88354SOL    HW266902   0.099  12.608  11.204
88355SOL     OW66903   0.374  12.985   7.867
88355SOL    HW166904   0.347  13.037   7.791
88355SOL    HW266905   0.414  13.049   7.926
88356SOL     OW66906   1.219   9.854  14.796
88356SOL    HW166907   1.127   9.867  14.820
88356SOL    HW266908   1.268   9.876  14.875
88357SOL     OW66909   3.451   5.739   7.657
88357SOL    HW166910   3.426   5.647   7.655
88357SOL    HW266911   3.384   5.783   7.604
88358SOL     OW66912   7.241   5.979   7.072
88358SOL    HW166913   7.225   5.952   7.163
88358SOL    HW266914   7.336   5.972   7.062
88359SOL     OW66915  12.393   2.638   8.465
88359SOL    HW166916  12.483   2.626   8.437
88359SOL    HW266917  12.390   2.728   8.499
88360SOL     OW66918   6.755   0.450  14.250
88360SOL    HW166919   6.754   0.516  14.320
88360SOL    HW266920   6.787   0.497  14.173
88361SOL     OW66921  14.443   4.908   9.035
88361SOL    HW166922  14.356   4.897   8.996
88361SOL    HW266923  14.504   4.896   8.962
88362SOL     OW66924  11.810  10.901   6.013
88362SOL    HW166925  11.714  10.896   6.015
88362SOL    HW266926  11.833  10.885   5.922
88363SOL     OW66927   9.294   2.926  11.178
88363SOL    HW166928   9.301   3.001  11.118
88363SOL    HW266929   9.231   2.868  11.136
88364SOL     OW66930   5.073   4.502   7.604
88364SOL    HW166931   5.039   4.420   7.569
88364SOL    HW266932   4.995   4.554   7.622
88365SOL     OW66933   5.818   5.893   1.662
88365SOL    HW166934   5.896   5.848   1.693
88365SOL    HW266935   5.747   5.857   1.714
88366SOL     OW66936  12.042  13.253   4.209
88366SOL    HW166937  12.024  13.245   4.115
88366SOL    HW266938  12.072  13.166   4.236
88367SOL     OW66939   4.789   9.016  11.776
88367SOL    HW166940   4.782   8.922  11.761
88367SOL    HW266941   4.743   9.031  11.859
88368SOL     OW66942  11.848  11.902   0.679
88368SOL    HW166943  11.840  11.986   0.725
88368SOL    HW266944  11.886  11.843   0.744
88369SOL     OW66945   9.019   6.059   4.844
88369SOL    HW166946   8.994   5.968   4.860
88369SOL    HW266947   9.033   6.064   4.749
88370SOL     OW66948   3.792  11.768  10.242
88370SOL    HW166949   3.807  11.694  10.184
88370SOL    HW266950   3.761  11.838  10.185
88371SOL     OW66951  14.831  14.145  12.169
88371SOL    HW166952  14.819  14.095  12.250
88371SOL    HW266953  14.809  14.083  12.100
88372SOL     OW66954  10.076   0.080  12.187
88372SOL    HW166955  10.114   0.091  12.099
88372SOL    HW266956  10.105  14.872  12.215
88373SOL     OW66957   3.408  12.687   2.327
88373SOL    HW166958   3.418  12.775   2.292
88373SOL    HW266959   3.416  12.630   2.250
88374SOL     OW66960   5.900   4.004   5.323
88374SOL    HW166961   5.954   4.018   5.401
88374SOL    HW266962   5.895   4.090   5.281
88375SOL     OW66963   5.236  12.013   0.882
88375SOL    HW166964   5.145  12.011   0.913
88375SOL    HW266965   5.266  11.923   0.888
88376SOL     OW66966  11.601  12.513  13.208
88376SOL    HW166967  11.663  12.505  13.136
88376SOL    HW266968  11.520  12.544  13.168
88377SOL     OW66969   4.491   0.789   1.835
88377SOL    HW166970   4.522   0.704   1.803
88377SOL    HW266971   4.419   0.767   1.894
88378SOL     OW66972   6.367  10.266  12.217
88378SOL    HW166973   6.405  10.329  12.279
88378SOL    HW266974   6.275  10.293  12.210
88379SOL     OW66975   8.757  13.786   2.950
88379SOL    HW166976   8.730  13.873   2.919
88379SOL    HW266977   8.836  13.766   2.900
88380SOL     OW66978  12.821   7.937   6.647
88380SOL    HW166979  12.767   7.880   6.592
88380SOL    HW266980  12.783   7.929   6.734
88381SOL     OW66981  10.234   6.313   4.402
88381SOL    HW166982  10.285   6.364   4.340
88381SOL    HW266983  10.145   6.315   4.368
88382SOL     OW66984   8.467   1.114  10.093
88382SOL    HW166985   8.397   1.164  10.052
88382SOL    HW266986   8.548   1.157  10.064
88383SOL     OW66987   5.949  13.206   1.763
88383SOL    HW166988   5.930  13.189   1.670
88383SOL    HW266989   5.962  13.301   1.767
88384SOL     OW66990   7.524   7.158  12.278
88384SOL    HW166991   7.454   7.126  12.334
88384SOL    HW266992   7.595   7.180  12.339
88385SOL     OW66993   4.598  10.035  10.958
88385SOL    HW166994   4.512  10.006  10.988
88385SOL    HW266995   4.583  10.124  10.927
88386SOL     OW66996   0.484   9.239   8.920
88386SOL    HW166997   0.500   9.175   8.850
88386SOL    HW266998   0.565   9.291   8.924
88387SOL     OW66999  12.150  13.926  12.317
88387SOL    HW167000  12.224  13.866  12.330
88387SOL    HW267001  12.123  13.950  12.406
88388SOL     OW67002   7.158   5.539   7.822
88388SOL    HW167003   7.244   5.510   7.854
88388SOL    HW267004   7.172   5.629   7.793
88389SOL     OW67005   9.727   0.506   2.541
88389SOL    HW167006   9.696   0.523   2.630
88389SOL    HW267007   9.680   0.427   2.513
88390SOL     OW67008   8.706  11.337   6.141
88390SOL    HW167009   8.685  11.332   6.234
88390SOL    HW267010   8.638  11.285   6.098
88391SOL     OW67011   6.157   5.089   5.410
88391SOL    HW167012   6.071   5.114   5.379
88391SOL    HW267013   6.169   4.999   5.380
88392SOL     OW67014   2.593   1.139   5.063
88392SOL    HW167015   2.627   1.213   5.114
88392SOL    HW267016   2.560   1.179   4.982
88393SOL     OW67017   6.585   5.983   0.721
88393SOL    HW167018   6.676   5.953   0.728
88393SOL    HW267019   6.556   5.950   0.636
88394SOL     OW67020   0.775  11.375   2.281
88394SOL    HW167021   0.837  11.357   2.211
88394SOL    HW267022   0.778  11.470   2.292
88395SOL     OW67023   8.530  13.873   6.575
88395SOL    HW167024   8.504  13.922   6.497
88395SOL    HW267025   8.457  13.813   6.591
88396SOL     OW67026   6.237  13.029  13.289
88396SOL    HW167027   6.206  13.038  13.199
88396SOL    HW267028   6.175  12.968  13.330
88397SOL     OW67029  14.559   5.036   5.694
88397SOL    HW167030  14.644   5.006   5.659
88397SOL    HW267031  14.524   4.960   5.739
88398SOL     OW67032   9.454  10.388   5.089
88398SOL    HW167033   9.433  10.318   5.152
88398SOL    HW267034   9.414  10.360   5.007
88399SOL     OW67035   6.428   9.987   9.429
88399SOL    HW167036   6.494  10.033   9.378
88399SOL    HW267037   6.379  10.056   9.473
88400SOL     OW67038   1.577   1.589  14.776
88400SOL    HW167039   1.537   1.569  14.861
88400SOL    HW267040   1.522   1.659  14.740
88401SOL     OW67041   2.900  12.732   7.650
88401SOL    HW167042   2.838  12.771   7.712
88401SOL    HW267043   2.846  12.681   7.590
88402SOL     OW67044  11.562   1.426  14.358
88402SOL    HW167045  11.533   1.337  14.336
88402SOL    HW267046  11.549   1.476  14.277
88403SOL     OW67047  10.877  10.647   7.734
88403SOL    HW167048  10.969  10.659   7.712
88403SOL    HW267049  10.878  10.626   7.828
88404SOL     OW67050  10.464   9.752  14.472
88404SOL    HW167051  10.389   9.759  14.531
88404SOL    HW267052  10.447   9.674  14.420
88405SOL     OW67053  13.375   5.499   9.550
88405SOL    HW167054  13.325   5.465   9.476
88405SOL    HW267055  13.429   5.569   9.514
88406SOL     OW67056   4.299   2.326   5.727
88406SOL    HW167057   4.323   2.340   5.636
88406SOL    HW267058   4.254   2.407   5.753
88407SOL     OW67059  14.028   6.481   3.473
88407SOL    HW167060  13.988   6.551   3.525
88407SOL    HW267061  14.122   6.503   3.472
88408SOL     OW67062   1.317   4.631   1.748
88408SOL    HW167063   1.290   4.579   1.673
88408SOL    HW267064   1.253   4.610   1.816
88409SOL     OW67065  11.202  10.265   2.825
88409SOL    HW167066  11.254  10.259   2.905
88409SOL    HW267067  11.125  10.211   2.842
88410SOL     OW67068   2.760  12.433   4.095
88410SOL    HW167069   2.677  12.464   4.129
88410SOL    HW267070   2.739  12.397   4.009
88411SOL     OW67071   9.391   4.359  11.682
88411SOL    HW167072   9.415   4.275  11.641
88411SOL    HW267073   9.396   4.422  11.611
88412SOL     OW67074  12.172   1.311   5.303
88412SOL    HW167075  12.219   1.394   5.317
88412SOL    HW267076  12.234   1.244   5.331
88413SOL     OW67077   0.044   4.461   3.115
88413SOL    HW167078   0.029   4.511   3.034
88413SOL    HW267079   0.118   4.507   3.157
88414SOL     OW67080   7.002   2.157   9.276
88414SOL    HW167081   6.989   2.116   9.190
88414SOL    HW267082   7.051   2.093   9.326
88415SOL     OW67083   0.612   2.882   6.324
88415SOL    HW167084   0.544   2.920   6.379
88415SOL    HW267085   0.567   2.811   6.277
88416SOL     OW67086  14.490   7.521   0.014
88416SOL    HW167087  14.445   7.537   0.097
88416SOL    HW267088  14.579   7.497   0.039
88417SOL     OW67089   8.574   4.015  11.458
88417SOL    HW167090   8.492   3.974  11.483
88417SOL    HW267091   8.620   4.030  11.541
88418SOL     OW67092  12.525  11.246  12.100
88418SOL    HW167093  12.601  11.188  12.093
88418SOL    HW267094  12.473  11.209  12.172
88419SOL     OW67095  13.207   6.142   8.591
88419SOL    HW167096  13.187   6.219   8.537
88419SOL    HW267097  13.302   6.135   8.590
88420SOL     OW67098   5.462   1.330   8.504
88420SOL    HW167099   5.479   1.237   8.514
88420SOL    HW267100   5.494   1.351   8.417
88421SOL     OW67101   3.987   2.716   6.429
88421SOL    HW167102   3.948   2.646   6.480
88421SOL    HW267103   3.919   2.783   6.424
88422SOL     OW67104  14.558   6.996   0.695
88422SOL    HW167105  14.616   7.011   0.621
88422SOL    HW267106  14.511   6.916   0.673
88423SOL     OW67107  11.744   6.271   1.702
88423SOL    HW167108  11.774   6.334   1.767
88423SOL    HW267109  11.713   6.325   1.629
88424SOL     OW67110   0.904   2.505   7.553
88424SOL    HW167111   0.886   2.477   7.642
88424SOL    HW267112   0.992   2.542   7.557
88425SOL     OW67113   5.662   5.663  14.055
88425SOL    HW167114   5.632   5.649  13.965
88425SOL    HW267115   5.684   5.575  14.086
88426SOL     OW67116   8.998   8.355  11.378
88426SOL    HW167117   9.065   8.301  11.337
88426SOL    HW267118   8.936   8.293  11.414
88427SOL     OW67119  14.494   7.531   3.239
88427SOL    HW167120  14.473   7.620   3.266
88427SOL    HW267121  14.528   7.489   3.319
88428SOL     OW67122   7.280   2.406  13.870
88428SOL    HW167123   7.215   2.349  13.912
88428SOL    HW267124   7.343   2.347  13.831
88429SOL     OW67125   8.561   8.666  12.187
88429SOL    HW167126   8.549   8.755  12.220
88429SOL    HW267127   8.495   8.656  12.118
88430SOL     OW67128  12.210   7.682   2.353
88430SOL    HW167129  12.298   7.650   2.375
88430SOL    HW267130  12.183   7.731   2.431
88431SOL     OW67131   4.097   5.968   2.980
88431SOL    HW167132   4.047   5.923   3.049
88431SOL    HW267133   4.156   5.900   2.946
88432SOL     OW67134  12.660  11.377  11.881
88432SOL    HW167135  12.588  11.363  11.942
88432SOL    HW267136  12.648  11.466  11.849
88433SOL     OW67137   5.075   8.579   5.770
88433SOL    HW167138   5.092   8.580   5.864
88433SOL    HW267139   5.123   8.654   5.735
88434SOL     OW67140   9.437   2.906   0.574
88434SOL    HW167141   9.470   2.900   0.485
88434SOL    HW267142   9.403   2.995   0.581
88435SOL     OW67143   0.271  14.354  10.589
88435SOL    HW167144   0.273  14.268  10.630
88435SOL    HW267145   0.203  14.348  10.523
88436SOL     OW67146  13.747   2.044   8.295
88436SOL    HW167147  13.751   1.951   8.272
88436SOL    HW267148  13.728   2.044   8.389
88437SOL     OW67149   4.887   8.312  10.734
88437SOL    HW167150   4.940   8.243  10.774
88437SOL    HW267151   4.935   8.393  10.752
88438SOL     OW67152   3.037   2.707   0.961
88438SOL    HW167153   3.107   2.691   1.023
88438SOL    HW267154   3.033   2.628   0.908
88439SOL     OW67155   2.500   6.326   7.140
88439SOL    HW167156   2.425   6.383   7.124
88439SOL    HW267157   2.470   6.267   7.209
88440SOL     OW67158   7.097  14.133  12.036
88440SOL    HW167159   7.076  14.223  12.060
88440SOL    HW267160   7.014  14.086  12.042
88441SOL     OW67161   1.129   6.854  10.551
88441SOL    HW167162   1.170   6.878  10.468
88441SOL    HW267163   1.060   6.919  10.563
88442SOL     OW67164  11.077  14.026  13.071
88442SOL    HW167165  11.030  14.105  13.043
88442SOL    HW267166  11.157  14.060  13.112
88443SOL     OW67167   1.481  14.333  14.223
88443SOL    HW167168   1.549  14.384  14.267
88443SOL    HW267169   1.518  14.245  14.214
88444SOL     OW67170   8.388   5.473   7.527
88444SOL    HW167171   8.385   5.417   7.605
88444SOL    HW267172   8.481   5.490   7.514
88445SOL     OW67173   3.247   5.741   5.037
88445SOL    HW167174   3.174   5.687   5.068
88445SOL    HW267175   3.324   5.705   5.082
88446SOL     OW67176   9.428   2.647   7.058
88446SOL    HW167177   9.486   2.712   7.097
88446SOL    HW267178   9.427   2.575   7.122
88447SOL     OW67179   5.894   5.731   8.266
88447SOL    HW167180   5.887   5.722   8.171
88447SOL    HW267181   5.984   5.704   8.286
88448SOL     OW67182   2.155  13.618  13.929
88448SOL    HW167183   2.061  13.606  13.946
88448SOL    HW267184   2.161  13.621  13.834
88449SOL     OW67185  11.705  12.135   4.018
88449SOL    HW167186  11.644  12.062   4.014
88449SOL    HW267187  11.781  12.100   4.064
88450SOL     OW67188   3.788  11.472   5.497
88450SOL    HW167189   3.862  11.477   5.557
88450SOL    HW267190   3.715  11.509   5.546
88451SOL     OW67191  13.316  14.839   9.158
88451SOL    HW167192  13.378  14.871   9.093
88451SOL    HW267193  13.246   0.026   9.158
88452SOL     OW67194  10.465   1.143  13.043
88452SOL    HW167195  10.489   1.065  13.094
88452SOL    HW267196  10.369   1.141  13.042
88453SOL     OW67197   4.172   0.121  14.091
88453SOL    HW167198   4.119   0.180  14.038
88453SOL    HW267199   4.196   0.049  14.032
88454SOL     OW67200   9.278   1.671   1.578
88454SOL    HW167201   9.278   1.703   1.669
88454SOL    HW267202   9.369   1.648   1.561
88455SOL     OW67203   4.389   9.461   0.283
88455SOL    HW167204   4.397   9.369   0.258
88455SOL    HW267205   4.306   9.466   0.330
88456SOL     OW67206   8.689   5.716  13.830
88456SOL    HW167207   8.729   5.652  13.772
88456SOL    HW267208   8.596   5.713  13.808
88457SOL     OW67209   0.394  11.656   3.050
88457SOL    HW167210   0.397  11.740   3.096
88457SOL    HW267211   0.301  11.634   3.044
88458SOL     OW67212   2.751  10.246  10.887
88458SOL    HW167213   2.737  10.239  10.792
88458SOL    HW267214   2.839  10.211  10.901
88459SOL     OW67215   2.449   0.379   7.630
88459SOL    HW167216   2.471   0.334   7.548
88459SOL    HW267217   2.488   0.466   7.621
88460SOL     OW67218   8.412  12.507  13.377
88460SOL    HW167219   8.410  12.601  13.399
88460SOL    HW267220   8.424  12.504  13.283
88461SOL     OW67221  10.140   7.294   4.047
88461SOL    HW167222  10.068   7.302   3.985
88461SOL    HW267223  10.216   7.327   4.001
88462SOL     OW67224  13.539   1.888  10.923
88462SOL    HW167225  13.513   1.980  10.912
88462SOL    HW267226  13.573   1.862  10.838
88463SOL     OW67227   1.480  10.321   3.823
88463SOL    HW167228   1.476  10.345   3.731
88463SOL    HW267229   1.417  10.250   3.833
88464SOL     OW67230  14.724  13.118   9.251
88464SOL    HW167231  14.806  13.074   9.275
88464SOL    HW267232  14.744  13.211   9.262
88465SOL     OW67233  10.452  14.061  12.744
88465SOL    HW167234  10.525  14.061  12.681
88465SOL    HW267235  10.425  13.969  12.749
88466SOL     OW67236   4.173  14.753   2.537
88466SOL    HW167237   4.229  14.811   2.588
88466SOL    HW267238   4.212  14.752   2.450
88467SOL     OW67239   9.265   7.916  12.835
88467SOL    HW167240   9.224   7.844  12.787
88467SOL    HW267241   9.358   7.896  12.832
88468SOL     OW67242   1.555  13.873   5.074
88468SOL    HW167243   1.574  13.784   5.043
88468SOL    HW267244   1.569  13.870   5.168
88469SOL     OW67245  11.712   8.390   0.702
88469SOL    HW167246  11.710   8.336   0.781
88469SOL    HW267247  11.654   8.463   0.722
88470SOL     OW67248  10.388   0.553   2.882
88470SOL    HW167249  10.384   0.496   2.805
88470SOL    HW267250  10.296   0.574   2.900
88471SOL     OW67251   1.782   0.636   2.071
88471SOL    HW167252   1.741   0.711   2.028
88471SOL    HW267253   1.720   0.611   2.140
88472SOL     OW67254   1.226   2.702  11.721
88472SOL    HW167255   1.301   2.702  11.781
88472SOL    HW267256   1.180   2.783  11.741
88473SOL     OW67257   3.635  11.154   3.834
88473SOL    HW167258   3.675  11.105   3.762
88473SOL    HW267259   3.573  11.092   3.873
88474SOL     OW67260   1.775   8.254   1.738
88474SOL    HW167261   1.682   8.233   1.732
88474SOL    HW267262   1.789   8.320   1.670
88475SOL     OW67263  14.444   5.392  10.583
88475SOL    HW167264  14.530   5.431  10.596
88475SOL    HW267265  14.463   5.300  10.563
88476SOL     OW67266   5.695   1.543   4.400
88476SOL    HW167267   5.682   1.531   4.494
88476SOL    HW267268   5.626   1.490   4.360
88477SOL     OW67269   5.326   0.596   9.238
88477SOL    HW167270   5.281   0.630   9.315
88477SOL    HW267271   5.354   0.508   9.263
88478SOL     OW67272   4.240   9.816   4.061
88478SOL    HW167273   4.162   9.852   4.018
88478SOL    HW267274   4.233   9.722   4.049
88479SOL     OW67275   0.909   5.816  11.803
88479SOL    HW167276   0.815   5.816  11.787
88479SOL    HW267277   0.944   5.751  11.742
88480SOL     OW67278  10.746   1.165  11.464
88480SOL    HW167279  10.658   1.202  11.472
88480SOL    HW267280  10.760   1.159  11.370
88481SOL     OW67281  11.101   9.565   8.407
88481SOL    HW167282  11.183   9.541   8.365
88481SOL    HW267283  11.051   9.608   8.338
88482SOL     OW67284   0.279  13.379   2.159
88482SOL    HW167285   0.345  13.373   2.227
88482SOL    HW267286   0.206  13.326   2.191
88483SOL     OW67287   9.402   8.751   5.907
88483SOL    HW167288   9.361   8.665   5.910
88483SOL    HW267289   9.421   8.765   5.814
88484SOL     OW67290   4.687   7.172  14.133
88484SOL    HW167291   4.770   7.171  14.181
88484SOL    HW267292   4.713   7.169  14.041
88485SOL     OW67293   9.735   3.437  13.109
88485SOL    HW167294   9.791   3.362  13.130
88485SOL    HW267295   9.796   3.506  13.083
88486SOL     OW67296   2.626   2.978   3.775
88486SOL    HW167297   2.551   3.006   3.723
88486SOL    HW267298   2.650   2.893   3.739
88487SOL     OW67299   1.355  10.655   5.085
88487SOL    HW167300   1.386  10.656   5.176
88487SOL    HW267301   1.407  10.587   5.043
88488SOL     OW67302   1.852   4.672   2.443
88488SOL    HW167303   1.782   4.729   2.410
88488SOL    HW267304   1.900   4.646   2.365
88489SOL     OW67305  13.693  10.532   6.651
88489SOL    HW167306  13.677  10.504   6.561
88489SOL    HW267307  13.708  10.451   6.699
88490SOL     OW67308  10.280   2.986   0.898
88490SOL    HW167309  10.307   2.936   0.975
88490SOL    HW267310  10.252   3.070   0.933
88491SOL     OW67311   7.409   1.336   7.358
88491SOL    HW167312   7.319   1.329   7.326
88491SOL    HW267313   7.412   1.276   7.433
88492SOL     OW67314   2.684   2.511  13.851
88492SOL    HW167315   2.645   2.500  13.938
88492SOL    HW267316   2.644   2.591  13.817
88493SOL     OW67317  12.626   7.986  14.071
88493SOL    HW167318  12.720   7.996  14.054
88493SOL    HW267319  12.619   7.902  14.115
88494SOL     OW67320  14.345  11.648   5.151
88494SOL    HW167321  14.265  11.696   5.130
88494SOL    HW267322  14.320  11.592   5.225
88495SOL     OW67323   1.370  13.328  14.596
88495SOL    HW167324   1.437  13.358  14.658
88495SOL    HW267325   1.419  13.276  14.532
88496SOL     OW67326   3.401  10.081   7.249
88496SOL    HW167327   3.358   9.998   7.272
88496SOL    HW267328   3.451  10.061   7.170
88497SOL     OW67329   5.913  13.002   8.006
88497SOL    HW167330   5.949  12.986   7.919
88497SOL    HW267331   5.970  13.070   8.043
88498SOL     OW67332   0.346  13.483   0.526
88498SOL    HW167333   0.346  13.443   0.439
88498SOL    HW267334   0.433  13.523   0.535
88499SOL     OW67335   3.079  10.735   5.920
88499SOL    HW167336   3.051  10.649   5.889
88499SOL    HW267337   3.004  10.792   5.902
88500SOL     OW67338  11.292   5.163  12.198
88500SOL    HW167339  11.244   5.246  12.193
88500SOL    HW267340  11.253   5.116  12.271
88501SOL     OW67341   9.022   9.844   5.738
88501SOL    HW167342   9.013   9.759   5.697
88501SOL    HW267343   9.117   9.856   5.748
88502SOL     OW67344   1.538   9.480   9.702
88502SOL    HW167345   1.603   9.509   9.766
88502SOL    HW267346   1.459   9.464   9.753
88503SOL     OW67347   7.756   0.141   0.176
88503SOL    HW167348   7.717   0.125   0.262
88503SOL    HW267349   7.786   0.232   0.180
88504SOL     OW67350  10.624  13.211   3.360
88504SOL    HW167351  10.704  13.162   3.343
88504SOL    HW267352  10.617  13.213   3.455
88505SOL     OW67353  13.510   0.942   7.195
88505SOL    HW167354  13.567   0.978   7.128
88505SOL    HW267355  13.461   1.017   7.228
88506SOL     OW67356   5.102   0.824   0.071
88506SOL    HW167357   5.161   0.752   0.048
88506SOL    HW267358   5.020   0.802   0.028
88507SOL     OW67359   0.158  12.767  13.455
88507SOL    HW167360   0.092  12.791  13.520
88507SOL    HW267361   0.207  12.848  13.440
88508SOL     OW67362  14.754   4.423   0.511
88508SOL    HW167363  14.731   4.467   0.429
88508SOL    HW267364  14.670   4.400   0.550
88509SOL     OW67365  10.213  13.007   1.056
88509SOL    HW167366  10.280  12.944   1.030
88509SOL    HW267367  10.179  13.042   0.974
88510SOL     OW67368   9.229   9.542  12.420
88510SOL    HW167369   9.229   9.508  12.331
88510SOL    HW267370   9.237   9.637  12.410
88511SOL     OW67371   9.641   0.497   7.025
88511SOL    HW167372   9.584   0.485   6.949
88511SOL    HW267373   9.730   0.489   6.990
88512SOL     OW67374  12.463  14.567   5.394
88512SOL    HW167375  12.557  14.585   5.395
88512SOL    HW267376  12.452  14.497   5.458
88513SOL     OW67377   8.670  10.705  11.482
88513SOL    HW167378   8.705  10.641  11.543
88513SOL    HW267379   8.684  10.789  11.525
88514SOL     OW67380   6.426   6.363  13.729
88514SOL    HW167381   6.513   6.348  13.692
88514SOL    HW267382   6.426   6.455  13.754
88515SOL     OW67383  13.541   8.562  13.712
88515SOL    HW167384  13.584   8.519  13.787
88515SOL    HW267385  13.520   8.490  13.653
88516SOL     OW67386  13.867  12.827   4.392
88516SOL    HW167387  13.816  12.848   4.314
88516SOL    HW267388  13.915  12.748   4.369
88517SOL     OW67389   7.021  13.863   4.316
88517SOL    HW167390   6.973  13.795   4.363
88517SOL    HW267391   7.060  13.916   4.385
88518SOL     OW67392   5.253   6.384  13.679
88518SOL    HW167393   5.221   6.312  13.732
88518SOL    HW267394   5.183   6.448  13.680
88519SOL     OW67395   9.553   9.461   2.553
88519SOL    HW167396   9.511   9.525   2.611
88519SOL    HW267397   9.606   9.407   2.612
88520SOL     OW67398  11.532  13.860  13.675
88520SOL    HW167399  11.493  13.917  13.742
88520SOL    HW267400  11.582  13.920  13.619
88521SOL     OW67401  10.061   1.939  10.251
88521SOL    HW167402   9.971   1.963  10.270
88521SOL    HW267403  10.068   1.847  10.278
88522SOL     OW67404   0.221  12.862  14.650
88522SOL    HW167405   0.273  12.869  14.570
88522SOL    HW267406   0.149  12.803  14.628
88523SOL     OW67407   9.890   9.775   4.908
88523SOL    HW167408   9.915   9.852   4.857
88523SOL    HW267409   9.803   9.752   4.875
88524SOL     OW67410   6.390  10.056   5.491
88524SOL    HW167411   6.384   9.994   5.563
88524SOL    HW267412   6.426  10.135   5.531
88525SOL     OW67413   8.747   7.999   2.567
88525SOL    HW167414   8.814   7.961   2.624
88525SOL    HW267415   8.697   7.923   2.536
88526SOL     OW67416   9.265   1.767  12.884
88526SOL    HW167417   9.323   1.795  12.813
88526SOL    HW267418   9.260   1.842  12.942
88527SOL     OW67419   4.268   5.224  11.413
88527SOL    HW167420   4.343   5.272  11.446
88527SOL    HW267421   4.248   5.265  11.328
88528SOL     OW67422   8.268   2.178  13.891
88528SOL    HW167423   8.267   2.255  13.835
88528SOL    HW267424   8.357   2.175  13.927
88529SOL     OW67425   4.936   6.858   8.030
88529SOL    HW167426   4.905   6.779   7.986
88529SOL    HW267427   5.017   6.831   8.074
88530SOL     OW67428   7.975   9.622   8.930
88530SOL    HW167429   7.968   9.659   9.018
88530SOL    HW267430   7.899   9.564   8.922
88531SOL     OW67431  12.524   1.612  14.290
88531SOL    HW167432  12.607   1.592  14.246
88531SOL    HW267433  12.548   1.672  14.360
88532SOL     OW67434   1.587   9.349   0.891
88532SOL    HW167435   1.665   9.349   0.837
88532SOL    HW267436   1.617   9.325   0.978
88533SOL     OW67437   6.402   1.449  13.360
88533SOL    HW167438   6.389   1.364  13.401
88533SOL    HW267439   6.337   1.507  13.401
88534SOL     OW67440   0.764   2.762   1.848
88534SOL    HW167441   0.821   2.757   1.771
88534SOL    HW267442   0.702   2.832   1.828
88535SOL     OW67443  14.117   7.033   6.067
88535SOL    HW167444  14.117   7.072   6.155
88535SOL    HW267445  14.128   6.939   6.083
88536SOL     OW67446   2.380   6.232   4.874
88536SOL    HW167447   2.365   6.305   4.934
88536SOL    HW267448   2.470   6.245   4.843
88537SOL     OW67449  12.826   4.491   2.993
88537SOL    HW167450  12.866   4.405   2.986
88537SOL    HW267451  12.880   4.547   2.937
88538SOL     OW67452   6.364   0.468   3.205
88538SOL    HW167453   6.303   0.528   3.162
88538SOL    HW267454   6.439   0.523   3.228
88539SOL     OW67455  11.452   4.735   5.607
88539SOL    HW167456  11.411   4.781   5.534
88539SOL    HW267457  11.510   4.800   5.647
88540SOL     OW67458  11.219   0.554   3.912
88540SOL    HW167459  11.185   0.643   3.909
88540SOL    HW267460  11.306   0.561   3.871
88541SOL     OW67461   3.424   6.368  13.649
88541SOL    HW167462   3.412   6.374  13.743
88541SOL    HW267463   3.413   6.458  13.617
88542SOL     OW67464   1.352   6.604  14.752
88542SOL    HW167465   1.413   6.549  14.703
88542SOL    HW267466   1.407   6.673  14.789
88543SOL     OW67467   5.300  13.840   3.840
88543SOL    HW167468   5.362  13.902   3.878
88543SOL    HW267469   5.314  13.846   3.746
88544SOL     OW67470  12.701   4.367   5.788
88544SOL    HW167471  12.692   4.443   5.846
88544SOL    HW267472  12.795   4.357   5.775
88545SOL     OW67473   3.262   7.830   8.335
88545SOL    HW167474   3.283   7.764   8.269
88545SOL    HW267475   3.269   7.913   8.288
88546SOL     OW67476   3.315   3.063   2.063
88546SOL    HW167477   3.243   3.003   2.045
88546SOL    HW267478   3.393   3.014   2.040
88547SOL     OW67479   0.320   7.178  11.939
88547SOL    HW167480   0.294   7.267  11.963
88547SOL    HW267481   0.333   7.181  11.844
88548SOL     OW67482  11.296   9.608   5.322
88548SOL    HW167483  11.227   9.667   5.353
88548SOL    HW267484  11.287   9.530   5.376
88549SOL     OW67485   8.925   4.650  12.708
88549SOL    HW167486   8.834   4.644  12.679
88549SOL    HW267487   8.976   4.647  12.628
88550SOL     OW67488  13.916   7.773  13.897
88550SOL    HW167489  13.850   7.725  13.947
88550SOL    HW267490  13.874   7.789  13.812
88551SOL     OW67491   9.895  13.651  14.533
88551SOL    HW167492   9.918  13.735  14.575
88551SOL    HW267493   9.889  13.672  14.440
88552SOL     OW67494  10.433  13.995   5.348
88552SOL    HW167495  10.497  14.062   5.374
88552SOL    HW267496  10.439  13.928   5.417
88553SOL     OW67497   9.474  11.126   9.047
88553SOL    HW167498   9.494  11.209   9.089
88553SOL    HW267499   9.535  11.120   8.974
88554SOL     OW67500   9.564   4.095  11.539
88554SOL    HW167501   9.628   4.157  11.574
88554SOL    HW267502   9.615   4.039  11.480
88555SOL     OW67503   1.583   2.856   0.600
88555SOL    HW167504   1.675   2.873   0.617
88555SOL    HW267505   1.582   2.802   0.521
88556SOL     OW67506   7.548   0.216  14.021
88556SOL    HW167507   7.517   0.179  13.939
88556SOL    HW267508   7.550   0.142  14.082
88557SOL     OW67509   7.674   0.013  14.625
88557SOL    HW167510   7.739  14.832  14.588
88557SOL    HW267511   7.596   0.001  14.571
88558SOL     OW67512   1.740   1.619   4.738
88558SOL    HW167513   1.786   1.535   4.731
88558SOL    HW267514   1.748   1.643   4.830
88559SOL     OW67515   1.342   5.325  11.949
88559SOL    HW167516   1.272   5.363  12.003
88559SOL    HW267517   1.373   5.399  11.896
88560SOL     OW67518  14.247   9.530   0.580
88560SOL    HW167519  14.278   9.494   0.663
88560SOL    HW267520  14.156   9.555   0.597
88561SOL     OW67521   2.875   6.758   8.151
88561SOL    HW167522   2.841   6.776   8.239
88561SOL    HW267523   2.899   6.665   8.154
88562SOL     OW67524  11.423  14.058  10.949
88562SOL    HW167525  11.347  14.019  10.905
88562SOL    HW267526  11.396  14.064  11.041
88563SOL     OW67527  10.460  10.847   6.646
88563SOL    HW167528  10.455  10.900   6.725
88563SOL    HW267529  10.486  10.908   6.577
88564SOL     OW67530   4.584  10.742  13.461
88564SOL    HW167531   4.589  10.825  13.414
88564SOL    HW267532   4.544  10.764  13.545
88565SOL     OW67533   4.798   4.332   0.582
88565SOL    HW167534   4.842   4.249   0.600
88565SOL    HW267535   4.705   4.312   0.587
88566SOL     OW67536   9.263   3.706  12.849
88566SOL    HW167537   9.310   3.788  12.837
88566SOL    HW267538   9.331   3.639  12.855
88567SOL     OW67539   0.348  11.201   6.632
88567SOL    HW167540   0.254  11.212   6.620
88567SOL    HW267541   0.373  11.270   6.694
88568SOL     OW67542   8.410   8.016   8.156
88568SOL    HW167543   8.362   8.042   8.234
88568SOL    HW267544   8.347   7.969   8.102
88569SOL     OW67545   2.030   2.699   2.888
88569SOL    HW167546   1.980   2.693   2.807
88569SOL    HW267547   2.003   2.782   2.928
88570SOL     OW67548   5.632   2.206   7.375
88570SOL    HW167549   5.630   2.160   7.459
88570SOL    HW267550   5.705   2.268   7.382
88571SOL     OW67551   8.395   0.331   9.341
88571SOL    HW167552   8.462   0.322   9.408
88571SOL    HW267553   8.438   0.383   9.272
88572SOL     OW67554   7.888  13.934  13.493
88572SOL    HW167555   7.885  13.839  13.487
88572SOL    HW267556   7.828  13.965  13.424
88573SOL     OW67557  12.633   0.279   4.048
88573SOL    HW167558  12.604   0.308   3.961
88573SOL    HW267559  12.677   0.195   4.032
88574SOL     OW67560  14.781  14.682  10.936
88574SOL    HW167561  14.735  14.612  10.889
88574SOL    HW267562  14.717  14.754  10.940
88575SOL     OW67563   8.117  12.351   8.773
88575SOL    HW167564   8.177  12.417   8.809
88575SOL    HW267565   8.164  12.315   8.697
88576SOL     OW67566  13.240  11.648   5.772
88576SOL    HW167567  13.183  11.574   5.792
88576SOL    HW267568  13.251  11.693   5.855
88577SOL     OW67569  12.443   1.055   0.264
88577SOL    HW167570  12.399   1.018   0.188
88577SOL    HW267571  12.373   1.089   0.319
88578SOL     OW67572   8.728  12.679  13.885
88578SOL    HW167573   8.770  12.729  13.815
88578SOL    HW267574   8.753  12.588  13.868
88579SOL     OW67575  12.890   9.434   2.306
88579SOL    HW167576  12.906   9.527   2.323
88579SOL    HW267577  12.955   9.389   2.360
88580SOL     OW67578   7.129   4.896   9.425
88580SOL    HW167579   7.145   4.915   9.332
88580SOL    HW267580   7.110   4.802   9.427
88581SOL     OW67581   1.838   9.278  11.445
88581SOL    HW167582   1.877   9.359  11.412
88581SOL    HW267583   1.873   9.209  11.390
88582SOL     OW67584   4.129  10.532  13.935
88582SOL    HW167585   4.169  10.448  13.955
88582SOL    HW267586   4.055  10.511  13.879
88583SOL     OW67587  13.374   3.665   8.936
88583SOL    HW167588  13.457   3.631   8.969
88583SOL    HW267589  13.340   3.596   8.879
88584SOL     OW67590   5.063  13.940  13.849
88584SOL    HW167591   5.090  13.855  13.886
88584SOL    HW267592   4.984  13.921  13.800
88585SOL     OW67593  13.887   4.884   3.546
88585SOL    HW167594  13.943   4.894   3.469
88585SOL    HW267595  13.947   4.853   3.615
88586SOL     OW67596   2.865   7.925  12.116
88586SOL    HW167597   2.956   7.900  12.126
88586SOL    HW267598   2.818   7.870  12.179
88587SOL     OW67599   1.838   7.423  10.408
88587SOL    HW167600   1.749   7.410  10.441
88587SOL    HW267601   1.886   7.346  10.438
88588SOL     OW67602   2.618  11.408  14.279
88588SOL    HW167603   2.587  11.446  14.197
88588SOL    HW267604   2.667  11.330  14.252
88589SOL     OW67605  10.163  10.427   0.653
88589SOL    HW167606  10.234  10.367   0.676
88589SOL    HW267607  10.169  10.497   0.718
88590SOL     OW67608   4.609   2.745   9.551
88590SOL    HW167609   4.636   2.678   9.614
88590SOL    HW267610   4.679   2.746   9.485
88591SOL     OW67611   9.438  10.270   7.230
88591SOL    HW167612   9.414  10.362   7.240
88591SOL    HW267613   9.496  10.269   7.154
88592SOL     OW67614   5.608   5.599   0.453
88592SOL    HW167615   5.662   5.645   0.517
88592SOL    HW267616   5.519   5.610   0.485
88593SOL     OW67617   4.720   7.381  11.407
88593SOL    HW167618   4.720   7.372  11.502
88593SOL    HW267619   4.812   7.395  11.384
88594SOL     OW67620  11.025   3.240   3.962
88594SOL    HW167621  10.957   3.263   4.026
88594SOL    HW267622  11.020   3.308   3.896
88595SOL     OW67623  12.628  12.387  13.072
88595SOL    HW167624  12.688  12.327  13.117
88595SOL    HW267625  12.544  12.342  13.072
88596SOL     OW67626  13.351   0.635   8.448
88596SOL    HW167627  13.332   0.607   8.538
88596SOL    HW267628  13.310   0.569   8.393
88597SOL     OW67629   5.162   1.024   0.559
88597SOL    HW167630   5.126   1.104   0.596
88597SOL    HW267631   5.102   1.001   0.488
88598SOL     OW67632   9.464   3.432   8.115
88598SOL    HW167633   9.511   3.504   8.074
88598SOL    HW267634   9.381   3.428   8.067
88599SOL     OW67635  14.385  13.745  11.065
88599SOL    HW167636  14.463  13.796  11.088
88599SOL    HW267637  14.327  13.755  11.141
88600SOL     OW67638  14.400  10.081   1.096
88600SOL    HW167639  14.466  10.013   1.108
88600SOL    HW267640  14.391  10.121   1.183
88601SOL     OW67641   5.256   1.761   5.520
88601SOL    HW167642   5.274   1.687   5.461
88601SOL    HW267643   5.163   1.753   5.541
88602SOL     OW67644  13.309   9.696   4.039
88602SOL    HW167645  13.302   9.601   4.041
88602SOL    HW267646  13.403   9.713   4.033
88603SOL     OW67647  11.909  10.760  11.408
88603SOL    HW167648  11.828  10.803  11.377
88603SOL    HW267649  11.878  10.681  11.451
88604SOL     OW67650   2.177   6.861   8.882
88604SOL    HW167651   2.246   6.806   8.920
88604SOL    HW267652   2.145   6.810   8.807
88605SOL     OW67653   0.406  11.148  10.107
88605SOL    HW167654   0.474  11.108  10.161
88605SOL    HW267655   0.360  11.208  10.167
88606SOL     OW67656   4.784   3.650  10.007
88606SOL    HW167657   4.870   3.627   9.971
88606SOL    HW267658   4.787   3.621  10.098
88607SOL     OW67659  13.111   8.413   1.328
88607SOL    HW167660  13.107   8.435   1.421
88607SOL    HW267661  13.193   8.452   1.297
88608SOL     OW67662   6.675  14.283   9.259
88608SOL    HW167663   6.693  14.218   9.327
88608SOL    HW267664   6.581  14.276   9.244
88609SOL     OW67665  10.918   7.553  14.524
88609SOL    HW167666  10.996   7.515  14.483
88609SOL    HW267667  10.931   7.538  14.618
88610SOL     OW67668  11.571   8.318  12.722
88610SOL    HW167669  11.579   8.364  12.806
88610SOL    HW267670  11.523   8.379  12.666
88611SOL     OW67671   0.687  12.386   7.797
88611SOL    HW167672   0.725  12.459   7.748
88611SOL    HW267673   0.760  12.354   7.851
88612SOL     OW67674   0.198   0.831  11.035
88612SOL    HW167675   0.153   0.863  10.957
88612SOL    HW267676   0.204   0.907  11.093
88613SOL     OW67677   5.516  12.157  11.782
88613SOL    HW167678   5.568  12.122  11.854
88613SOL    HW267679   5.433  12.110  11.786
88614SOL     OW67680   9.001   9.708  11.017
88614SOL    HW167681   9.072   9.730  10.957
88614SOL    HW267682   9.037   9.726  11.104
88615SOL     OW67683   9.262  14.187   9.619
88615SOL    HW167684   9.237  14.102   9.583
88615SOL    HW267685   9.297  14.167   9.706
88616SOL     OW67686   6.615   9.376  11.928
88616SOL    HW167687   6.546   9.316  11.957
88616SOL    HW267688   6.572   9.432  11.863
88617SOL     OW67689   8.811   2.280   2.513
88617SOL    HW167690   8.845   2.266   2.424
88617SOL    HW267691   8.738   2.218   2.520
88618SOL     OW67692  12.411   3.174   6.629
88618SOL    HW167693  12.352   3.204   6.560
88618SOL    HW267694  12.435   3.085   6.603
88619SOL     OW67695  13.805  13.205   0.951
88619SOL    HW167696  13.873  13.266   0.924
88619SOL    HW267697  13.753  13.254   1.015
88620SOL     OW67698   4.954   2.446   9.437
88620SOL    HW167699   4.992   2.365   9.404
88620SOL    HW267700   5.026   2.509   9.434
88621SOL     OW67701   2.683  13.077   9.976
88621SOL    HW167702   2.693  13.079   9.881
88621SOL    HW267703   2.729  13.155  10.007
88622SOL     OW67704  11.447   1.994   1.966
88622SOL    HW167705  11.449   2.089   1.953
88622SOL    HW267706  11.374   1.980   2.027
88623SOL     OW67707   0.971   4.948   8.306
88623SOL    HW167708   0.978   5.041   8.285
88623SOL    HW267709   0.878   4.935   8.327
88624SOL     OW67710   3.683   2.760   6.133
88624SOL    HW167711   3.752   2.700   6.162
88624SOL    HW267712   3.612   2.746   6.195
88625SOL     OW67713  14.813   7.499   7.167
88625SOL    HW167714  14.870   7.575   7.163
88625SOL    HW267715  14.726   7.532   7.144
88626SOL     OW67716  13.835   8.256   5.777
88626SOL    HW167717  13.844   8.204   5.857
88626SOL    HW267718  13.848   8.192   5.706
88627SOL     OW67719   8.829   8.495   0.887
88627SOL    HW167720   8.915   8.523   0.918
88627SOL    HW267721   8.771   8.569   0.906
88628SOL     OW67722  10.673  13.839  10.957
88628SOL    HW167723  10.619  13.909  10.922
88628SOL    HW267724  10.619  13.760  10.948
88629SOL     OW67725   5.467   4.651   0.190
88629SOL    HW167726   5.547   4.691   0.155
88629SOL    HW267727   5.425   4.611   0.114
88630SOL     OW67728   0.721   0.209   9.699
88630SOL    HW167729   0.752   0.131   9.744
88630SOL    HW267730   0.627   0.211   9.715
88631SOL     OW67731  12.955   1.176  10.538
88631SOL    HW167732  13.032   1.153  10.486
88631SOL    HW267733  12.978   1.260  10.578
88632SOL     OW67734   7.883  11.803  14.497
88632SOL    HW167735   7.811  11.751  14.460
88632SOL    HW267736   7.923  11.845  14.421
88633SOL     OW67737   7.339   9.131  13.689
88633SOL    HW167738   7.403   9.111  13.621
88633SOL    HW267739   7.385   9.187  13.751
88634SOL     OW67740  12.219   5.409   1.536
88634SOL    HW167741  12.234   5.500   1.514
88634SOL    HW267742  12.220   5.406   1.632
88635SOL     OW67743  10.855  12.016  10.985
88635SOL    HW167744  10.796  12.064  10.926
88635SOL    HW267745  10.867  11.931  10.943
88636SOL     OW67746   0.236   2.265   1.118
88636SOL    HW167747   0.269   2.255   1.207
88636SOL    HW267748   0.188   2.184   1.101
88637SOL     OW67749   7.572   8.234  10.016
88637SOL    HW167750   7.508   8.164  10.005
88637SOL    HW267751   7.520   8.313  10.029
88638SOL     OW67752   5.418   5.039   8.449
88638SOL    HW167753   5.405   4.952   8.488
88638SOL    HW267754   5.369   5.098   8.506
88639SOL     OW67755  12.785   5.662   1.628
88639SOL    HW167756  12.736   5.743   1.613
88639SOL    HW267757  12.788   5.620   1.542
88640SOL     OW67758   0.152   5.365  12.858
88640SOL    HW167759   0.092   5.431  12.892
88640SOL    HW267760   0.222   5.416  12.816
88641SOL     OW67761   7.975  14.542   2.743
88641SOL    HW167762   8.065  14.509   2.741
88641SOL    HW267763   7.983  14.628   2.786
88642SOL     OW67764   4.165  12.447   6.765
88642SOL    HW167765   4.184  12.415   6.677
88642SOL    HW267766   4.083  12.405   6.790
88643SOL     OW67767   5.472  13.948   1.694
88643SOL    HW167768   5.394  13.908   1.732
88643SOL    HW267769   5.501  13.886   1.626
88644SOL     OW67770   5.872   6.016   8.060
88644SOL    HW167771   5.866   6.065   8.142
88644SOL    HW267772   5.961   5.983   8.058
88645SOL     OW67773   8.841   5.071  10.547
88645SOL    HW167774   8.788   5.134  10.498
88645SOL    HW267775   8.776   5.011  10.585
88646SOL     OW67776  14.686  10.046  13.403
88646SOL    HW167777  14.778  10.018  13.395
88646SOL    HW267778  14.669  10.095  13.323
88647SOL     OW67779   7.495   8.799  10.269
88647SOL    HW167780   7.454   8.832  10.189
88647SOL    HW267781   7.445   8.720  10.291
88648SOL     OW67782   6.008   5.057  12.869
88648SOL    HW167783   5.943   5.066  12.800
88648SOL    HW267784   6.092   5.061  12.824
88649SOL     OW67785   5.101  11.505  10.896
88649SOL    HW167786   5.009  11.519  10.917
88649SOL    HW267787   5.146  11.581  10.933
88650SOL     OW67788   8.383  12.748  13.138
88650SOL    HW167789   8.312  12.737  13.075
88650SOL    HW267790   8.439  12.671  13.126
88651SOL     OW67791   6.910  11.342   1.903
88651SOL    HW167792   6.976  11.272   1.906
88651SOL    HW267793   6.844  11.315   1.967
88652SOL     OW67794   4.303   9.932   0.562
88652SOL    HW167795   4.251   9.859   0.529
88652SOL    HW267796   4.393   9.899   0.561
88653SOL     OW67797   8.431  12.379   1.063
88653SOL    HW167798   8.482  12.306   1.028
88653SOL    HW267799   8.489  12.454   1.056
88654SOL     OW67800   7.857  14.702   5.649
88654SOL    HW167801   7.907  14.679   5.570
88654SOL    HW267802   7.784  14.755   5.616
88655SOL     OW67803   0.030   5.406   4.505
88655SOL    HW167804  14.861   5.377   4.583
88655SOL    HW267805   0.034   5.502   4.514
88656SOL     OW67806   6.619  14.598   4.050
88656SOL    HW167807   6.664  14.571   3.970
88656SOL    HW267808   6.556  14.664   4.021
88657SOL     OW67809   0.079   1.447   2.901
88657SOL    HW167810   0.106   1.535   2.874
88657SOL    HW267811   0.042   1.459   2.988
88658SOL     OW67812   3.484   8.953  13.451
88658SOL    HW167813   3.493   9.048  13.447
88658SOL    HW267814   3.519   8.922  13.368
88659SOL     OW67815   6.066   7.724   2.057
88659SOL    HW167816   6.149   7.771   2.055
88659SOL    HW267817   6.020   7.753   1.977
88660SOL     OW67818   3.379  14.573  13.151
88660SOL    HW167819   3.411  14.588  13.062
88660SOL    HW267820   3.292  14.612  13.152
88661SOL     OW67821   4.324  14.556   8.835
88661SOL    HW167822   4.230  14.573   8.831
88661SOL    HW267823   4.363  14.642   8.854
88662SOL     OW67824   7.257  10.662  12.511
88662SOL    HW167825   7.234  10.581  12.465
88662SOL    HW267826   7.349  10.677  12.489
88663SOL     OW67827   6.538   7.433   5.349
88663SOL    HW167828   6.481   7.357   5.361
88663SOL    HW267829   6.614   7.400   5.301
88664SOL     OW67830   1.458  11.975  13.212
88664SOL    HW167831   1.475  11.931  13.295
88664SOL    HW267832   1.365  11.995  13.214
88665SOL     OW67833  11.733   1.726   2.467
88665SOL    HW167834  11.734   1.632   2.450
88665SOL    HW267835  11.664   1.760   2.410
88666SOL     OW67836   6.546  13.759   0.619
88666SOL    HW167837   6.457  13.758   0.654
88666SOL    HW267838   6.595  13.813   0.681
88667SOL     OW67839  13.060   2.118   3.453
88667SOL    HW167840  13.085   2.044   3.398
88667SOL    HW267841  13.138   2.174   3.453
88668SOL     OW67842   4.446  14.784   3.931
88668SOL    HW167843   4.468  14.730   4.007
88668SOL    HW267844   4.519  14.772   3.870
88669SOL     OW67845  14.878   2.520   5.418
88669SOL    HW167846  14.863   2.429   5.392
88669SOL    HW267847  14.858   2.521   5.512
88670SOL     OW67848   7.528  13.977   6.329
88670SOL    HW167849   7.454  13.951   6.383
88670SOL    HW267850   7.523  14.073   6.326
88671SOL     OW67851   0.725   5.226  10.978
88671SOL    HW167852   0.751   5.219  10.886
88671SOL    HW267853   0.783   5.166  11.024
88672SOL     OW67854  13.839   5.696   2.706
88672SOL    HW167855  13.901   5.644   2.655
88672SOL    HW267856  13.786   5.741   2.640
88673SOL     OW67857   7.475  11.344  13.016
88673SOL    HW167858   7.478  11.249  13.005
88673SOL    HW267859   7.528  11.378  12.943
88674SOL     OW67860   4.560   5.817  12.316
88674SOL    HW167861   4.487   5.856  12.267
88674SOL    HW267862   4.535   5.725  12.325
88675SOL     OW67863   6.308  11.518   5.466
88675SOL    HW167864   6.282  11.537   5.556
88675SOL    HW267865   6.323  11.423   5.465
88676SOL     OW67866   5.329  10.414   2.424
88676SOL    HW167867   5.270  10.427   2.499
88676SOL    HW267868   5.366  10.501   2.407
88677SOL     OW67869  10.898   5.813  11.970
88677SOL    HW167870  10.918   5.776  11.884
88677SOL    HW267871  10.980   5.855  11.997
88678SOL     OW67872  13.006  13.853  11.299
88678SOL    HW167873  13.039  13.776  11.252
88678SOL    HW267874  13.045  13.847  11.386
88679SOL     OW67875   7.121   3.093  11.402
88679SOL    HW167876   7.204   3.051  11.423
88679SOL    HW267877   7.120   3.097  11.306
88680SOL     OW67878   9.698   2.711   0.576
88680SOL    HW167879   9.641   2.787   0.585
88680SOL    HW267880   9.727   2.713   0.485
88681SOL     OW67881   6.409  13.225  13.403
88681SOL    HW167882   6.378  13.313  13.381
88681SOL    HW267883   6.345  13.166  13.362
88682SOL     OW67884  12.410   8.305   8.355
88682SOL    HW167885  12.322   8.306   8.392
88682SOL    HW267886  12.466   8.337   8.425
88683SOL     OW67887  11.899   8.521   8.424
88683SOL    HW167888  11.825   8.525   8.364
88683SOL    HW267889  11.873   8.577   8.497
88684SOL     OW67890  13.095   4.043   4.740
88684SOL    HW167891  13.140   3.971   4.785
88684SOL    HW267892  13.166   4.095   4.702
88685SOL     OW67893  12.232  11.303   8.798
88685SOL    HW167894  12.225  11.385   8.846
88685SOL    HW267895  12.157  11.303   8.739
88686SOL     OW67896   9.584   4.461   5.974
88686SOL    HW167897   9.522   4.448   5.902
88686SOL    HW267898   9.560   4.394   6.038
88687SOL     OW67899   6.045  13.166  11.797
88687SOL    HW167900   6.066  13.225  11.725
88687SOL    HW267901   6.092  13.202  11.872
88688SOL     OW67902  12.297   6.340   5.129
88688SOL    HW167903  12.353   6.267   5.102
88688SOL    HW267904  12.218   6.331   5.077
88689SOL     OW67905   2.233  14.057   5.927
88689SOL    HW167906   2.174  14.048   6.002
88689SOL    HW267907   2.313  14.094   5.964
88690SOL     OW67908   8.836   4.129  11.963
88690SOL    HW167909   8.858   4.162  11.877
88690SOL    HW267910   8.867   4.038  11.963
88691SOL     OW67911  14.370   3.355   7.656
88691SOL    HW167912  14.336   3.439   7.625
88691SOL    HW267913  14.304   3.291   7.626
88692SOL     OW67914   7.072   5.473   0.944
88692SOL    HW167915   7.015   5.538   0.984
88692SOL    HW267916   7.054   5.479   0.850
88693SOL     OW67917  11.879   0.939   9.889
88693SOL    HW167918  11.828   0.870   9.931
88693SOL    HW267919  11.852   0.937   9.798
88694SOL     OW67920  11.445  12.453   4.224
88694SOL    HW167921  11.535  12.476   4.247
88694SOL    HW267922  11.454  12.393   4.150
88695SOL     OW67923  11.881   9.401   4.700
88695SOL    HW167924  11.910   9.386   4.610
88695SOL    HW267925  11.938   9.471   4.732
88696SOL     OW67926   9.077   7.318   6.567
88696SOL    HW167927   9.143   7.259   6.605
88696SOL    HW267928   9.028   7.350   6.643
88697SOL     OW67929  14.470   1.381   8.258
88697SOL    HW167930  14.422   1.315   8.307
88697SOL    HW267931  14.433   1.465   8.287
88698SOL     OW67932  13.232   8.899   7.044
88698SOL    HW167933  13.283   8.915   6.965
88698SOL    HW267934  13.181   8.979   7.055
88699SOL     OW67935   0.709   3.840   9.124
88699SOL    HW167936   0.766   3.844   9.200
88699SOL    HW267937   0.714   3.928   9.086
88700SOL     OW67938   7.506   6.353   5.839
88700SOL    HW167939   7.493   6.273   5.889
88700SOL    HW267940   7.598   6.375   5.851
88701SOL     OW67941   1.689   4.926   3.875
88701SOL    HW167942   1.768   4.980   3.882
88701SOL    HW267943   1.683   4.904   3.782
88702SOL     OW67944   5.467  11.617   5.099
88702SOL    HW167945   5.386  11.568   5.082
88702SOL    HW267946   5.449  11.705   5.065
88703SOL     OW67947   4.494  13.788   5.006
88703SOL    HW167948   4.562  13.767   5.070
88703SOL    HW267949   4.540  13.838   4.938
88704SOL     OW67950  14.503   3.841   1.251
88704SOL    HW167951  14.477   3.925   1.289
88704SOL    HW267952  14.598   3.847   1.241
88705SOL     OW67953   1.712  10.893   3.648
88705SOL    HW167954   1.625  10.869   3.616
88705SOL    HW267955   1.710  10.871   3.741
88706SOL     OW67956  13.570   8.543   0.512
88706SOL    HW167957  13.655   8.499   0.505
88706SOL    HW267958  13.540   8.549   0.421
88707SOL     OW67959  13.308  14.539   7.653
88707SOL    HW167960  13.375  14.604   7.672
88707SOL    HW267961  13.260  14.529   7.736
88708SOL     OW67962  10.653   8.801  13.192
88708SOL    HW167963  10.689   8.792  13.280
88708SOL    HW267964  10.727   8.830  13.139
88709SOL     OW67965   1.660   2.355   7.539
88709SOL    HW167966   1.702   2.335   7.622
88709SOL    HW267967   1.598   2.425   7.560
88710SOL     OW67968  10.162   2.742   6.061
88710SOL    HW167969  10.189   2.767   6.149
88710SOL    HW267970  10.085   2.686   6.075
88711SOL     OW67971  12.405   5.227  10.942
88711SOL    HW167972  12.464   5.156  10.917
88711SOL    HW267973  12.451   5.272  11.013
88712SOL     OW67974  13.418   2.288   3.289
88712SOL    HW167975  13.510   2.313   3.302
88712SOL    HW267976  13.409   2.279   3.194
88713SOL     OW67977   9.782   6.998   7.884
88713SOL    HW167978   9.855   6.970   7.939
88713SOL    HW267979   9.820   7.012   7.798
88714SOL     OW67980   5.986  11.296   5.468
88714SOL    HW167981   6.033  11.223   5.508
88714SOL    HW267982   5.971  11.268   5.377
88715SOL     OW67983   2.332   4.301   6.007
88715SOL    HW167984   2.416   4.254   6.002
88715SOL    HW267985   2.354   4.384   6.049
88716SOL     OW67986   1.767  12.106   9.175
88716SOL    HW167987   1.842  12.165   9.171
88716SOL    HW267988   1.739  12.109   9.266
88717SOL     OW67989   2.608   1.671  13.257
88717SOL    HW167990   2.514   1.674  13.278
88717SOL    HW267991   2.630   1.760  13.233
88718SOL     OW67992   2.495   8.005  11.183
88718SOL    HW167993   2.512   8.064  11.256
88718SOL    HW267994   2.429   8.049  11.130
88719SOL     OW67995   1.574   2.545   3.726
88719SOL    HW167996   1.487   2.506   3.728
88719SOL    HW267997   1.559   2.639   3.724
88720SOL     OW67998  13.767   9.204  10.836
88720SOL    HW167999  13.766   9.120  10.881
88720SOL    HW268000  13.693   9.252  10.873
88721SOL     OW68001  13.117  13.240  13.733
88721SOL    HW168002  13.091  13.220  13.823
88721SOL    HW268003  13.205  13.278  13.742
88722SOL     OW68004   3.095   7.905   7.755
88722SOL    HW168005   3.142   7.988   7.753
88722SOL    HW268006   3.013   7.922   7.710
88723SOL     OW68007   7.737  10.339   4.456
88723SOL    HW168008   7.817  10.287   4.465
88723SOL    HW268009   7.683  10.287   4.396
88724SOL     OW68010  13.038   4.382   5.993
88724SOL    HW168011  13.070   4.450   5.932
88724SOL    HW268012  13.044   4.423   6.079
88725SOL     OW68013  12.664  12.461  13.776
88725SOL    HW168014  12.748  12.446  13.733
88725SOL    HW268015  12.685  12.458  13.870
88726SOL     OW68016   7.096   0.389   2.765
88726SOL    HW168017   7.163   0.346   2.817
88726SOL    HW268018   7.024   0.404   2.826
88727SOL     OW68019   5.813  12.649   8.557
88727SOL    HW168020   5.867  12.573   8.580
88727SOL    HW268021   5.877  12.719   8.542
88728SOL     OW68022  13.340   4.548  11.998
88728SOL    HW168023  13.295   4.489  12.058
88728SOL    HW268024  13.383   4.489  11.935
88729SOL     OW68025   4.893   0.903   9.822
88729SOL    HW168026   4.810   0.920   9.865
88729SOL    HW268027   4.957   0.954   9.872
88730SOL     OW68028   7.080   3.841  12.051
88730SOL    HW168029   7.046   3.923  12.014
88730SOL    HW268030   7.003   3.801  12.092
88731SOL     OW68031  11.627   7.951   2.952
88731SOL    HW168032  11.665   8.035   2.978
88731SOL    HW268033  11.584   7.919   3.031
88732SOL     OW68034  11.125   8.641   0.144
88732SOL    HW168035  11.214   8.641   0.107
88732SOL    HW268036  11.109   8.550   0.168
88733SOL     OW68037   4.236   1.708   0.272
88733SOL    HW168038   4.211   1.745   0.188
88733SOL    HW268039   4.153   1.682   0.313
88734SOL     OW68040  13.255   9.481   7.788
88734SOL    HW168041  13.257   9.562   7.839
88734SOL    HW268042  13.314   9.422   7.834
88735SOL     OW68043  13.587   7.880  14.396
88735SOL    HW168044  13.615   7.921  14.478
88735SOL    HW268045  13.642   7.921  14.329
88736SOL     OW68046  10.497   6.992   4.913
88736SOL    HW168047  10.549   6.964   4.837
88736SOL    HW268048  10.542   6.954   4.988
88737SOL     OW68049   7.417   4.404   3.342
88737SOL    HW168050   7.334   4.363   3.318
88737SOL    HW268051   7.473   4.332   3.369
88738SOL     OW68052   5.022   3.239   9.579
88738SOL    HW168053   5.093   3.215   9.640
88738SOL    HW268054   5.035   3.181   9.504
88739SOL     OW68055  14.521   6.147  10.149
88739SOL    HW168056  14.457   6.134  10.218
88739SOL    HW268057  14.589   6.202  10.189
88740SOL     OW68058  12.153  10.197  11.760
88740SOL    HW168059  12.100  10.135  11.709
88740SOL    HW268060  12.141  10.281  11.715
88741SOL     OW68061  10.529   7.154  13.323
88741SOL    HW168062  10.520   7.229  13.265
88741SOL    HW268063  10.439   7.125  13.338
88742SOL     OW68064   1.216   5.644  11.867
88742SOL    HW168065   1.150   5.713  11.860
88742SOL    HW268066   1.190   5.595  11.945
88743SOL     OW68067   0.038   9.144  13.275
88743SOL    HW168068   0.066   9.182  13.192
88743SOL    HW268069   0.110   9.163  13.336
88744SOL     OW68070   3.926  12.588  10.290
88744SOL    HW168071   3.880  12.646  10.351
88744SOL    HW268072   3.985  12.537  10.345
88745SOL     OW68073   9.780   0.424   5.719
88745SOL    HW168074   9.781   0.469   5.634
88745SOL    HW268075   9.745   0.337   5.700
88746SOL     OW68076   9.925  12.078   7.356
88746SOL    HW168077   9.908  12.011   7.422
88746SOL    HW268078   9.952  12.029   7.278
88747SOL     OW68079   5.738   9.737   2.511
88747SOL    HW168080   5.657   9.731   2.563
88747SOL    HW268081   5.717   9.798   2.441
88748SOL     OW68082   8.627   9.215   5.538
88748SOL    HW168083   8.547   9.267   5.548
88748SOL    HW268084   8.604   9.129   5.574
88749SOL     OW68085   3.762   3.869   7.032
88749SOL    HW168086   3.682   3.875   7.085
88749SOL    HW268087   3.833   3.884   7.094
88750SOL     OW68088   1.216   2.159   8.654
88750SOL    HW168089   1.288   2.105   8.621
88750SOL    HW268090   1.256   2.244   8.672
88751SOL     OW68091   8.424   6.194  12.060
88751SOL    HW168092   8.403   6.286  12.042
88751SOL    HW268093   8.514   6.196  12.094
88752SOL     OW68094   9.628  13.595  11.471
88752SOL    HW168095   9.615  13.548  11.553
88752SOL    HW268096   9.662  13.528  11.411
88753SOL     OW68097   1.501   5.596  12.424
88753SOL    HW168098   1.529   5.552  12.505
88753SOL    HW268099   1.492   5.525  12.361
88754SOL     OW68100   7.295  12.644   9.763
88754SOL    HW168101   7.352  12.573   9.733
88754SOL    HW268102   7.301  12.641   9.858
88755SOL     OW68103   0.158   5.028   0.017
88755SOL    HW168104   0.209   4.968   0.071
88755SOL    HW268105   0.220   5.097  14.872
88756SOL     OW68106   3.370   5.314   6.296
88756SOL    HW168107   3.414   5.378   6.352
88756SOL    HW268108   3.284   5.352   6.279
88757SOL     OW68109  13.009   4.360   1.550
88757SOL    HW168110  12.923   4.319   1.543
88757SOL    HW268111  12.994   4.440   1.600
88758SOL     OW68112   9.184   5.248   6.313
88758SOL    HW168113   9.226   5.208   6.237
88758SOL    HW268114   9.206   5.190   6.386
88759SOL     OW68115   1.528   3.774   4.655
88759SOL    HW168116   1.515   3.696   4.709
88759SOL    HW268117   1.555   3.842   4.716
88760SOL     OW68118   2.543   3.623  13.888
88760SOL    HW168119   2.605   3.695  13.872
88760SOL    HW268120   2.463   3.650  13.845
88761SOL     OW68121   6.797   0.309   4.776
88761SOL    HW168122   6.874   0.259   4.804
88761SOL    HW268123   6.737   0.304   4.850
88762SOL     OW68124   3.250   1.991   4.598
88762SOL    HW168125   3.189   2.056   4.634
88762SOL    HW268126   3.279   2.029   4.515
88763SOL     OW68127  14.340   7.617   7.204
88763SOL    HW168128  14.270   7.622   7.138
88763SOL    HW268129  14.354   7.524   7.218
88764SOL     OW68130   8.291   4.181   0.597
88764SOL    HW168131   8.233   4.109   0.572
88764SOL    HW268132   8.253   4.215   0.679
88765SOL     OW68133   4.829   0.761  13.024
88765SOL    HW168134   4.791   0.804  12.947
88765SOL    HW268135   4.888   0.827  13.061
88766SOL     OW68136   1.097  12.133   2.644
88766SOL    HW168137   1.138  12.055   2.682
88766SOL    HW268138   1.112  12.125   2.550
88767SOL     OW68139   0.198   1.249  13.427
88767SOL    HW168140   0.286   1.268  13.395
88767SOL    HW268141   0.211   1.214  13.515
88768SOL     OW68142  10.760   5.303   0.474
88768SOL    HW168143  10.767   5.377   0.415
88768SOL    HW268144  10.729   5.340   0.557
88769SOL     OW68145  10.327   8.977   7.335
88769SOL    HW168146  10.315   9.050   7.395
88769SOL    HW268147  10.291   8.901   7.380
88770SOL     OW68148   6.512   3.201   2.235
88770SOL    HW168149   6.535   3.110   2.214
88770SOL    HW268150   6.470   3.233   2.156
88771SOL     OW68151   1.565   5.309  12.289
88771SOL    HW168152   1.651   5.339  12.319
88771SOL    HW268153   1.571   5.313  12.194
88772SOL     OW68154   0.108   6.194   8.592
88772SOL    HW168155   0.159   6.223   8.667
88772SOL    HW268156   0.087   6.102   8.610
88773SOL     OW68157   4.538  10.071  13.839
88773SOL    HW168158   4.588  10.035  13.765
88773SOL    HW268159   4.563  10.017  13.914
88774SOL     OW68160   8.603   9.462   5.962
88774SOL    HW168161   8.593   9.556   5.949
88774SOL    HW268162   8.681   9.439   5.912
88775SOL     OW68163   1.090   0.437   3.300
88775SOL    HW168164   1.120   0.518   3.342
88775SOL    HW268165   1.095   0.371   3.368
88776SOL     OW68166   2.524   7.112   4.850
88776SOL    HW168167   2.557   7.027   4.880
88776SOL    HW268168   2.473   7.145   4.924
88777SOL     OW68169   3.087  12.156   8.337
88777SOL    HW168170   3.014  12.133   8.280
88777SOL    HW268171   3.122  12.072   8.367
88778SOL     OW68172  10.001   0.370   0.511
88778SOL    HW168173   9.927   0.369   0.572
88778SOL    HW268174   9.962   0.348   0.426
88779SOL     OW68175   6.888   2.470  13.975
88779SOL    HW168176   6.845   2.542  13.928
88779SOL    HW268177   6.823   2.443  14.040
88780SOL     OW68178   7.476   4.532   3.988
88780SOL    HW168179   7.480   4.459   4.050
88780SOL    HW268180   7.566   4.545   3.961
88781SOL     OW68181   9.080  11.468   7.366
88781SOL    HW168182   9.021  11.400   7.398
88781SOL    HW268183   9.027  11.520   7.307
88782SOL     OW68184  10.654  10.589  13.671
88782SOL    HW168185  10.567  10.576  13.710
88782SOL    HW268186  10.650  10.676  13.632
88783SOL     OW68187   4.102   4.723  11.451
88783SOL    HW168188   4.103   4.817  11.430
88783SOL    HW268189   4.010   4.703  11.467
88784SOL     OW68190   9.800   6.045   5.924
88784SOL    HW168191   9.740   6.068   5.852
88784SOL    HW268192   9.747   5.992   5.983
88785SOL     OW68193   3.387   9.640   2.223
88785SOL    HW168194   3.458   9.630   2.285
88785SOL    HW268195   3.419   9.704   2.159
88786SOL     OW68196   0.958  14.863   4.798
88786SOL    HW168197   0.944   0.069   4.839
88786SOL    HW268198   0.957  14.801   4.871
88787SOL     OW68199  10.249  11.033   9.591
88787SOL    HW168200  10.256  10.944   9.557
88787SOL    HW268201  10.314  11.038   9.661
88788SOL     OW68202   4.354  10.239   3.683
88788SOL    HW168203   4.377  10.215   3.593
88788SOL    HW268204   4.316  10.160   3.720
88789SOL     OW68205  14.706   6.838   5.121
88789SOL    HW168206  14.702   6.783   5.199
88789SOL    HW268207  14.661   6.918   5.146
88790SOL     OW68208   7.483   1.225   2.780
88790SOL    HW168209   7.481   1.131   2.759
88790SOL    HW268210   7.571   1.239   2.815
88791SOL     OW68211  12.807   3.414  14.503
88791SOL    HW168212  12.724   3.438  14.461
88791SOL    HW268213  12.851   3.359  14.439
88792SOL     OW68214   2.675  11.757   2.098
88792SOL    HW168215   2.654  11.826   2.160
88792SOL    HW268216   2.632  11.784   2.017
88793SOL     OW68217  11.441   3.873   3.280
88793SOL    HW168218  11.399   3.955   3.254
88793SOL    HW268219  11.462   3.829   3.198
88794SOL     OW68220   5.327  13.558   1.861
88794SOL    HW168221   5.304  13.526   1.774
88794SOL    HW268222   5.410  13.604   1.849
88795SOL     OW68223  10.241   5.788   9.546
88795SOL    HW168224  10.237   5.883   9.556
88795SOL    HW268225  10.326   5.771   9.507
88796SOL     OW68226   0.515   4.291   3.335
88796SOL    HW168227   0.518   4.330   3.423
88796SOL    HW268228   0.484   4.202   3.350
88797SOL     OW68229   9.777   6.583  10.299
88797SOL    HW168230   9.847   6.566  10.362
88797SOL    HW268231   9.708   6.522  10.323
88798SOL     OW68232  12.853   9.129   0.435
88798SOL    HW168233  12.826   9.064   0.370
88798SOL    HW268234  12.891   9.077   0.506
88799SOL     OW68235   4.167   1.805   3.381
88799SOL    HW168236   4.260   1.828   3.388
88799SOL    HW268237   4.167   1.725   3.328
88800SOL     OW68238  14.503   1.953   5.684
88800SOL    HW168239  14.437   1.884   5.692
88800SOL    HW268240  14.458   2.024   5.638
88801SOL     OW68241  13.508   7.797  13.878
88801SOL    HW168242  13.422   7.811  13.837
88801SOL    HW268243  13.512   7.702  13.893
88802SOL     OW68244   5.446   5.752   9.286
88802SOL    HW168245   5.396   5.711   9.357
88802SOL    HW268246   5.536   5.725   9.302
88803SOL     OW68247  10.044   0.009   0.531
88803SOL    HW168248  10.122   0.012   0.587
88803SOL    HW268249   9.978   0.059   0.579
88804SOL     OW68250   7.310   3.566   1.296
88804SOL    HW168251   7.309   3.656   1.263
88804SOL    HW268252   7.402   3.541   1.293
88805SOL     OW68253   0.635   7.603   2.172
88805SOL    HW168254   0.561   7.659   2.195
88805SOL    HW268255   0.604   7.550   2.099
88806SOL     OW68256   1.442   7.171   4.504
88806SOL    HW168257   1.368   7.135   4.553
88806SOL    HW268258   1.418   7.262   4.488
88807SOL     OW68259   5.422  14.147   6.970
88807SOL    HW168260   5.503  14.181   6.933
88807SOL    HW268261   5.359  14.219   6.959
88808SOL     OW68262   1.339   8.270   3.015
88808SOL    HW168263   1.390   8.198   2.981
88808SOL    HW268264   1.401   8.322   3.066
88809SOL     OW68265   9.788   3.661  13.955
88809SOL    HW168266   9.855   3.607  13.913
88809SOL    HW268267   9.716   3.664  13.892
88810SOL     OW68268  12.851  11.718   2.425
88810SOL    HW168269  12.821  11.741   2.337
88810SOL    HW268270  12.905  11.793   2.452
88811SOL     OW68271  13.699   4.839   8.407
88811SOL    HW168272  13.762   4.793   8.352
88811SOL    HW268273  13.742   4.921   8.430
88812SOL     OW68274   2.032   8.000   9.854
88812SOL    HW168275   2.037   7.930   9.789
88812SOL    HW268276   2.020   7.954   9.938
88813SOL     OW68277   1.142   5.275  10.740
88813SOL    HW168278   1.125   5.185  10.712
88813SOL    HW268279   1.156   5.269  10.834
88814SOL     OW68280  14.591   7.592  12.487
88814SOL    HW168281  14.674   7.561  12.450
88814SOL    HW268282  14.613   7.676  12.528
88815SOL     OW68283  13.427  13.219   6.096
88815SOL    HW168284  13.379  13.257   6.170
88815SOL    HW268285  13.368  13.230   6.022
88816SOL     OW68286   0.022   7.939  10.565
88816SOL    HW168287   0.075   8.015  10.542
88816SOL    HW268288  14.813   7.973  10.576
88817SOL     OW68289  10.790   4.863  14.695
88817SOL    HW168290  10.765   4.798  14.629
88817SOL    HW268291  10.738   4.840  14.772
88818SOL     OW68292  14.083   7.701   8.023
88818SOL    HW168293  14.087   7.639   8.096
88818SOL    HW268294  14.116   7.783   8.060
88819SOL     OW68295   4.417  11.451   3.094
88819SOL    HW168296   4.359  11.375   3.088
88819SOL    HW268297   4.428  11.480   3.003
88820SOL     OW68298   8.567   4.103  11.180
88820SOL    HW168299   8.593   4.085  11.270
88820SOL    HW268300   8.477   4.137  11.187
88821SOL     OW68301   1.455   1.575  11.481
88821SOL    HW168302   1.517   1.575  11.409
88821SOL    HW268303   1.374   1.610  11.443
88822SOL     OW68304   7.840  13.411   0.886
88822SOL    HW168305   7.906  13.451   0.942
88822SOL    HW268306   7.783  13.484   0.860
88823SOL     OW68307   8.408   2.939   6.191
88823SOL    HW168308   8.370   2.934   6.104
88823SOL    HW268309   8.351   2.884   6.246
88824SOL     OW68310   4.388   4.630  14.047
88824SOL    HW168311   4.417   4.542  14.024
88824SOL    HW268312   4.307   4.643  13.996
88825SOL     OW68313  12.683   3.532   4.727
88825SOL    HW168314  12.604   3.574   4.693
88825SOL    HW268315  12.734   3.603   4.766
88826SOL     OW68316   2.828   7.165   5.508
88826SOL    HW168317   2.733   7.158   5.511
88826SOL    HW268318   2.856   7.132   5.593
88827SOL     OW68319   9.681   2.500  12.418
88827SOL    HW168320   9.727   2.419  12.399
88827SOL    HW268321   9.670   2.542  12.332
88828SOL     OW68322   6.934   8.294   9.569
88828SOL    HW168323   6.847   8.253   9.566
88828SOL    HW268324   6.986   8.244   9.507
88829SOL     OW68325   1.853   1.220   0.913
88829SOL    HW168326   1.944   1.244   0.896
88829SOL    HW268327   1.818   1.198   0.826
88830SOL     OW68328   0.572  13.970   0.221
88830SOL    HW168329   0.525  14.025   0.158
88830SOL    HW268330   0.662  13.967   0.189
88831SOL     OW68331  14.186  13.010   8.990
88831SOL    HW168332  14.164  13.084   8.933
88831SOL    HW268333  14.255  12.964   8.943
88832SOL     OW68334   0.818   1.979   3.100
88832SOL    HW168335   0.851   2.037   3.169
88832SOL    HW268336   0.805   1.895   3.144
88833SOL     OW68337  10.545   4.821  12.714
88833SOL    HW168338  10.451   4.807  12.708
88833SOL    HW268339  10.583   4.748  12.664
88834SOL     OW68340   5.775  14.785  13.858
88834SOL    HW168341   5.797  14.733  13.781
88834SOL    HW268342   5.694  14.745  13.892
88835SOL     OW68343   9.788   5.373   8.273
88835SOL    HW168344   9.782   5.289   8.320
88835SOL    HW268345   9.842   5.353   8.196
88836SOL     OW68346   4.307   1.578  14.006
88836SOL    HW168347   4.355   1.526  14.070
88836SOL    HW268348   4.335   1.544  13.921
88837SOL     OW68349   3.651   9.163   8.275
88837SOL    HW168350   3.576   9.222   8.286
88837SOL    HW268351   3.727   9.222   8.269
88838SOL     OW68352   1.939   9.110  11.017
88838SOL    HW168353   1.987   9.080  10.940
88838SOL    HW268354   1.996   9.177  11.056
88839SOL     OW68355   8.328   6.247   1.059
88839SOL    HW168356   8.348   6.340   1.048
88839SOL    HW268357   8.379   6.221   1.135
88840SOL     OW68358   8.994   0.795   8.182
88840SOL    HW168359   8.931   0.750   8.238
88840SOL    HW268360   9.079   0.762   8.211
88841SOL     OW68361  10.148  13.293   7.663
88841SOL    HW168362  10.121  13.221   7.720
88841SOL    HW268363  10.183  13.359   7.723
88842SOL     OW68364  13.071   9.443  12.049
88842SOL    HW168365  13.097   9.525  12.008
88842SOL    HW268366  13.046   9.387  11.975
88843SOL     OW68367   5.101   8.625   8.464
88843SOL    HW168368   5.109   8.657   8.554
88843SOL    HW268369   5.148   8.542   8.465
88844SOL     OW68370  11.948   3.365  12.284
88844SOL    HW168371  12.013   3.416  12.332
88844SOL    HW268372  11.989   3.281  12.268
88845SOL     OW68373   8.897   9.533   0.252
88845SOL    HW168374   8.938   9.447   0.252
88845SOL    HW268375   8.815   9.521   0.301
88846SOL     OW68376   0.513   1.854   7.310
88846SOL    HW168377   0.589   1.841   7.252
88846SOL    HW268378   0.539   1.813   7.392
88847SOL     OW68379  10.024   5.155   9.897
88847SOL    HW168380   9.964   5.093   9.857
88847SOL    HW268381  10.011   5.236   9.848
88848SOL     OW68382   5.169  10.787  13.672
88848SOL    HW168383   5.253  10.746  13.693
88848SOL    HW268384   5.111  10.763  13.744
88849SOL     OW68385  10.291   7.839   9.194
88849SOL    HW168386  10.228   7.864   9.262
88849SOL    HW268387  10.267   7.893   9.118
88850SOL     OW68388   3.855   6.935  11.296
88850SOL    HW168389   3.825   6.848  11.270
88850SOL    HW268390   3.781   6.992  11.277
88851SOL     OW68391   4.583   8.451   4.646
88851SOL    HW168392   4.579   8.506   4.725
88851SOL    HW268393   4.546   8.367   4.675
88852SOL     OW68394  13.325   9.950   7.717
88852SOL    HW168395  13.319   9.893   7.793
88852SOL    HW268396  13.400  10.006   7.735
88853SOL     OW68397  10.954   7.802   9.961
88853SOL    HW168398  11.027   7.847   9.920
88853SOL    HW268399  10.952   7.835  10.051
88854SOL     OW68400   7.593   1.433  10.605
88854SOL    HW168401   7.650   1.390  10.669
88854SOL    HW268402   7.506   1.398  10.624
88855SOL     OW68403   7.927   5.424  14.111
88855SOL    HW168404   8.003   5.366  14.110
88855SOL    HW268405   7.897   5.427  14.020
88856SOL     OW68406   8.046   3.631   9.536
88856SOL    HW168407   8.136   3.607   9.559
88856SOL    HW268408   8.013   3.677   9.613
88857SOL     OW68409   6.195   0.900  11.591
88857SOL    HW168410   6.259   0.966  11.562
88857SOL    HW268411   6.135   0.891  11.517
88858SOL     OW68412   3.255  10.303   6.084
88858SOL    HW168413   3.231  10.382   6.132
88858SOL    HW268414   3.181  10.244   6.096
88859SOL     OW68415   8.687   5.457   6.965
88859SOL    HW168416   8.626   5.403   7.015
88859SOL    HW268417   8.631   5.502   6.901
88860SOL     OW68418   5.319  14.660  11.429
88860SOL    HW168419   5.306  14.665  11.523
88860SOL    HW268420   5.249  14.602  11.398
88861SOL     OW68421   4.805  13.238  13.403
88861SOL    HW168422   4.763  13.317  13.438
88861SOL    HW268423   4.860  13.269  13.332
88862SOL     OW68424  13.907   6.620   4.824
88862SOL    HW168425  13.943   6.556   4.884
88862SOL    HW268426  13.982   6.652   4.774
88863SOL     OW68427   6.316   5.422   0.133
88863SOL    HW168428   6.374   5.365   0.184
88863SOL    HW268429   6.296   5.371   0.055
88864SOL     OW68430   3.758   5.331  10.192
88864SOL    HW168431   3.739   5.239  10.211
88864SOL    HW268432   3.800   5.329  10.105
88865SOL     OW68433   6.323   3.644  12.642
88865SOL    HW168434   6.277   3.723  12.670
88865SOL    HW268435   6.392   3.632  12.706
88866SOL     OW68436   0.932  10.404  11.628
88866SOL    HW168437   0.934  10.422  11.722
88866SOL    HW268438   0.840  10.382  11.610
88867SOL     OW68439  10.045   3.617   0.502
88867SOL    HW168440  10.069   3.621   0.409
88867SOL    HW268441   9.974   3.681   0.510
88868SOL     OW68442   5.696  11.054  10.338
88868SOL    HW168443   5.604  11.072  10.318
88868SOL    HW268444   5.711  10.965  10.307
88869SOL     OW68445   3.563  13.144  12.700
88869SOL    HW168446   3.491  13.128  12.639
88869SOL    HW268447   3.536  13.222  12.749
88870SOL     OW68448   5.845  11.601   1.935
88870SOL    HW168449   5.916  11.651   1.895
88870SOL    HW268450   5.784  11.667   1.967
88871SOL     OW68451   0.167  11.309   2.903
88871SOL    HW168452   0.134  11.370   2.836
88871SOL    HW268453   0.251  11.279   2.868
88872SOL     OW68454   8.771   2.606  11.556
88872SOL    HW168455   8.699   2.647  11.508
88872SOL    HW268456   8.777   2.657  11.637
88873SOL     OW68457   1.071   0.225   7.061
88873SOL    HW168458   1.046   0.157   6.998
88873SOL    HW268459   1.163   0.243   7.041
88874SOL     OW68460  14.727   0.996   9.642
88874SOL    HW168461  14.668   1.071   9.635
88874SOL    HW268462  14.765   1.004   9.730
88875SOL     OW68463   0.248   7.849  14.721
88875SOL    HW168464   0.154   7.867  14.720
88875SOL    HW268465   0.257   7.772  14.776
88876SOL     OW68466   1.534   9.950   4.132
88876SOL    HW168467   1.549   9.859   4.108
88876SOL    HW268468   1.444   9.968   4.105
88877SOL     OW68469   4.954   9.913   7.645
88877SOL    HW168470   5.023   9.965   7.602
88877SOL    HW268471   4.944   9.836   7.589
88878SOL     OW68472   5.152   6.715   7.116
88878SOL    HW168473   5.173   6.779   7.048
88878SOL    HW268474   5.156   6.630   7.072
88879SOL     OW68475  13.090   7.937   6.637
88879SOL    HW168476  12.994   7.937   6.629
88879SOL    HW268477  13.115   7.845   6.632
88880SOL     OW68478  11.125   8.883  13.979
88880SOL    HW168479  11.121   8.921  14.066
88880SOL    HW268480  11.066   8.808  13.982
88881SOL     OW68481   8.951  10.506   7.067
88881SOL    HW168482   8.933  10.596   7.095
88881SOL    HW268483   8.944  10.454   7.147
88882SOL     OW68484   5.765   6.024  12.965
88882SOL    HW168485   5.675   5.994  12.979
88882SOL    HW268486   5.787   5.993  12.877
88883SOL     OW68487  12.040   3.455  14.037
88883SOL    HW168488  12.095   3.522  13.996
88883SOL    HW268489  11.961   3.503  14.064
88884SOL     OW68490  14.331  13.140  12.254
88884SOL    HW168491  14.300  13.154  12.164
88884SOL    HW268492  14.355  13.047  12.256
88885SOL     OW68493   6.271   6.288  14.642
88885SOL    HW168494   6.348   6.305  14.696
88885SOL    HW268495   6.197   6.293  14.702
88886SOL     OW68496   4.990   5.822  13.091
88886SOL    HW168497   4.991   5.835  12.996
88886SOL    HW268498   5.072   5.774  13.109
88887SOL     OW68499   9.919   6.924  12.428
88887SOL    HW168500   9.892   6.987  12.495
88887SOL    HW268501   9.936   6.978  12.351
88888SOL     OW68502   8.618  13.306   8.688
88888SOL    HW168503   8.561  13.328   8.614
88888SOL    HW268504   8.560  13.263   8.751
88889SOL     OW68505   7.890  12.486  14.502
88889SOL    HW168506   7.934  12.497  14.417
88889SOL    HW268507   7.853  12.572  14.521
88890SOL     OW68508   9.429  10.876   5.032
88890SOL    HW168509   9.364  10.930   5.077
88890SOL    HW268510   9.394  10.787   5.038
88891SOL     OW68511   5.723  12.615   1.542
88891SOL    HW168512   5.635  12.583   1.522
88891SOL    HW268513   5.763  12.631   1.456
88892SOL     OW68514  12.068   0.440   1.394
88892SOL    HW168515  12.100   0.388   1.320
88892SOL    HW268516  11.977   0.457   1.373
88893SOL     OW68517   4.546   2.058   0.228
88893SOL    HW168518   4.453   2.082   0.228
88893SOL    HW268519   4.561   2.021   0.315
88894SOL     OW68520   6.923   5.272   7.004
88894SOL    HW168521   6.934   5.309   6.916
88894SOL    HW268522   7.001   5.217   7.016
88895SOL     OW68523  10.960   4.197   7.835
88895SOL    HW168524  10.973   4.131   7.902
88895SOL    HW268525  11.043   4.244   7.831
88896SOL     OW68526   4.876  11.468   4.549
88896SOL    HW168527   4.912  11.412   4.618
88896SOL    HW268528   4.870  11.411   4.472
88897SOL     OW68529   0.585  12.822  10.550
88897SOL    HW168530   0.612  12.733  10.527
88897SOL    HW268531   0.624  12.837  10.636
88898SOL     OW68532   7.697  14.429   8.276
88898SOL    HW168533   7.653  14.511   8.254
88898SOL    HW268534   7.632  14.380   8.327
88899SOL     OW68535   1.027   0.143   5.621
88899SOL    HW168536   1.029   0.170   5.529
88899SOL    HW268537   1.081   0.065   5.625
88900SOL     OW68538   7.898   5.157  11.544
88900SOL    HW168539   7.893   5.114  11.630
88900SOL    HW268540   7.809   5.149  11.509
88901SOL     OW68541  10.292  11.059   2.352
88901SOL    HW168542  10.220  11.088   2.408
88901SOL    HW268543  10.332  10.987   2.400
88902SOL     OW68544   1.199  10.638   0.007
88902SOL    HW168545   1.213  10.576   0.078
88902SOL    HW268546   1.234  10.594  14.808
88903SOL     OW68547   8.818   6.023   2.995
88903SOL    HW168548   8.775   5.955   2.942
88903SOL    HW268549   8.860   5.974   3.066
88904SOL     OW68550   8.532   6.709  12.382
88904SOL    HW168551   8.598   6.649  12.346
88904SOL    HW268552   8.459   6.652  12.404
88905SOL     OW68553   4.039   4.835  10.046
88905SOL    HW168554   4.006   4.745  10.040
88905SOL    HW268555   4.119   4.835   9.994
88906SOL     OW68556   7.427   2.694  11.861
88906SOL    HW168557   7.385   2.608  11.869
88906SOL    HW268558   7.508   2.677  11.814
88907SOL     OW68559  12.871  14.754   3.860
88907SOL    HW168560  12.867  14.671   3.813
88907SOL    HW268561  12.832  14.817   3.800
88908SOL     OW68562   1.820   4.125   4.173
88908SOL    HW168563   1.894   4.077   4.211
88908SOL    HW268564   1.852   4.215   4.165
88909SOL     OW68565   8.656   2.746   8.522
88909SOL    HW168566   8.660   2.838   8.497
88909SOL    HW268567   8.572   2.715   8.489
88910SOL     OW68568  13.378   0.899   8.028
88910SOL    HW168569  13.388   0.822   7.972
88910SOL    HW268570  13.426   0.876   8.108
88911SOL     OW68571   1.624   7.834   9.932
88911SOL    HW168572   1.688   7.820   9.862
88911SOL    HW268573   1.540   7.812   9.893
88912SOL     OW68574   6.048   1.251  10.255
88912SOL    HW168575   6.045   1.227  10.347
88912SOL    HW268576   6.077   1.343  10.255
88913SOL     OW68577   4.584   0.092   2.429
88913SOL    HW168578   4.562   0.007   2.467
88913SOL    HW268579   4.676   0.105   2.449
88914SOL     OW68580   0.175   0.230   1.640
88914SOL    HW168581   0.176   0.304   1.701
88914SOL    HW268582   0.246   0.249   1.578
88915SOL     OW68583  14.406   7.670   2.226
88915SOL    HW168584  14.429   7.578   2.216
88915SOL    HW268585  14.489   7.717   2.218
88916SOL     OW68586   4.173  10.363   3.868
88916SOL    HW168587   4.213  10.309   3.799
88916SOL    HW268588   4.112  10.420   3.822
88917SOL     OW68589   1.372   7.473   5.391
88917SOL    HW168590   1.304   7.417   5.426
88917SOL    HW268591   1.392   7.436   5.305
88918SOL     OW68592   1.568  12.596   0.109
88918SOL    HW168593   1.549  12.570   0.018
88918SOL    HW268594   1.498  12.657   0.131
88919SOL     OW68595  13.512   6.985  13.256
88919SOL    HW168596  13.510   6.899  13.216
88919SOL    HW268597  13.441   7.033  13.213
88920SOL     OW68598   8.849  13.328  13.122
88920SOL    HW168599   8.830  13.240  13.155
88920SOL    HW268600   8.852  13.383  13.201
88921SOL     OW68601   9.318   5.918   5.476
88921SOL    HW168602   9.307   5.994   5.420
88921SOL    HW268603   9.261   5.935   5.551
88922SOL     OW68604  13.208   8.761  13.515
88922SOL    HW168605  13.234   8.763  13.608
88922SOL    HW268606  13.208   8.853  13.489
88923SOL     OW68607   2.410   5.995  12.270
88923SOL    HW168608   2.476   5.943  12.224
88923SOL    HW268609   2.461   6.064  12.313
88924SOL     OW68610  11.037   1.864   4.704
88924SOL    HW168611  11.078   1.821   4.628
88924SOL    HW268612  11.052   1.957   4.690
88925SOL     OW68613  13.130  10.749   5.626
88925SOL    HW168614  13.069  10.812   5.587
88925SOL    HW268615  13.217  10.785   5.606
88926SOL     OW68616   1.471   8.856  12.505
88926SOL    HW168617   1.452   8.932  12.560
88926SOL    HW268618   1.540   8.886  12.445
88927SOL     OW68619   9.575   4.117   6.316
88927SOL    HW168620   9.558   4.023   6.320
88927SOL    HW268621   9.539   4.151   6.398
88928SOL     OW68622   6.078   7.608   3.916
88928SOL    HW168623   6.090   7.608   3.821
88928SOL    HW268624   5.992   7.648   3.929
88929SOL     OW68625   4.930  12.197  10.160
88929SOL    HW168626   4.870  12.258  10.203
88929SOL    HW268627   4.880  12.162  10.087
88930SOL     OW68628  13.480   1.062   7.493
88930SOL    HW168629  13.391   1.049   7.461
88930SOL    HW268630  13.506   1.147   7.457
88931SOL     OW68631   5.674   8.836   9.927
88931SOL    HW168632   5.594   8.833   9.875
88931SOL    HW268633   5.744   8.855   9.864
88932SOL     OW68634   4.890   4.959   3.217
88932SOL    HW168635   4.856   4.902   3.148
88932SOL    HW268636   4.833   4.942   3.292
88933SOL     OW68637   7.919   7.673   6.037
88933SOL    HW168638   7.842   7.640   6.084
88933SOL    HW268639   7.884   7.711   5.957
88934SOL     OW68640  13.905  14.223   1.863
88934SOL    HW168641  13.860  14.143   1.836
88934SOL    HW268642  13.837  14.276   1.904
88935SOL     OW68643   5.985  13.226  10.849
88935SOL    HW168644   6.077  13.199  10.856
88935SOL    HW268645   5.987  13.319  10.870
88936SOL     OW68646  10.021   6.903   0.182
88936SOL    HW168647  10.022   6.973   0.248
88936SOL    HW268648  10.030   6.949   0.098
88937SOL     OW68649   6.448  11.827   1.443
88937SOL    HW168650   6.384  11.828   1.372
88937SOL    HW268651   6.529  11.857   1.402
88938SOL     OW68652  13.622   4.351   6.071
88938SOL    HW168653  13.591   4.266   6.103
88938SOL    HW268654  13.575   4.364   5.989
88939SOL     OW68655   1.399   0.640   3.825
88939SOL    HW168656   1.388   0.588   3.905
88939SOL    HW268657   1.372   0.581   3.754
88940SOL     OW68658  14.655  14.663   3.564
88940SOL    HW168659  14.674  14.730   3.498
88940SOL    HW268660  14.710  14.589   3.540
88941SOL     OW68661  12.114   3.937   5.296
88941SOL    HW168662  12.209   3.926   5.296
88941SOL    HW268663  12.099   4.026   5.264
88942SOL     OW68664  12.954   1.774  10.943
88942SOL    HW168665  13.009   1.852  10.946
88942SOL    HW268666  12.908   1.779  10.859
88943SOL     OW68667  10.637  10.648   1.742
88943SOL    HW168668  10.699  10.596   1.793
88943SOL    HW268669  10.594  10.704   1.807
88944SOL     OW68670   2.098  13.703   3.314
88944SOL    HW168671   2.154  13.754   3.373
88944SOL    HW268672   2.012  13.746   3.320
88945SOL     OW68673  11.441   9.419   3.382
88945SOL    HW168674  11.428   9.338   3.433
88945SOL    HW268675  11.353   9.457   3.375
88946SOL     OW68676  14.274  12.461   7.359
88946SOL    HW168677  14.302  12.548   7.328
88946SOL    HW268678  14.179  12.462   7.346
88947SOL     OW68679  12.098   1.769   1.868
88947SOL    HW168680  12.125   1.861   1.865
88947SOL    HW268681  12.043   1.758   1.791
88948SOL     OW68682   9.526   1.679  14.642
88948SOL    HW168683   9.542   1.764  14.683
88948SOL    HW268684   9.613   1.641  14.630
88949SOL     OW68685   3.840   6.617   2.002
88949SOL    HW168686   3.925   6.610   2.046
88949SOL    HW268687   3.858   6.670   1.925
88950SOL     OW68688  10.925   2.910  11.587
88950SOL    HW168689  11.014   2.913  11.552
88950SOL    HW268690  10.871   2.949  11.518
88951SOL     OW68691  13.982  10.855  11.274
88951SOL    HW168692  14.059  10.800  11.288
88951SOL    HW268693  13.983  10.875  11.181
88952SOL     OW68694   8.469   0.837   4.458
88952SOL    HW168695   8.408   0.766   4.438
88952SOL    HW268696   8.520   0.805   4.532
88953SOL     OW68697   9.419   8.687  12.350
88953SOL    HW168698   9.358   8.645  12.411
88953SOL    HW268699   9.389   8.658  12.264
88954SOL     OW68700   4.931   0.937  13.613
88954SOL    HW168701   4.906   1.029  13.602
88954SOL    HW268702   4.890   0.892  13.539
88955SOL     OW68703   8.428   7.396  10.695
88955SOL    HW168704   8.364   7.468  10.699
88955SOL    HW268705   8.504   7.429  10.743
88956SOL     OW68706   1.325  11.549  13.281
88956SOL    HW168707   1.359  11.510  13.362
88956SOL    HW268708   1.311  11.641  13.303
88957SOL     OW68709  14.174  12.448   3.292
88957SOL    HW168710  14.113  12.382   3.258
88957SOL    HW268711  14.227  12.473   3.216
88958SOL     OW68712   7.987   5.940  14.645
88958SOL    HW168713   7.916   5.949  14.708
88958SOL    HW268714   8.055   6.000  14.678
88959SOL     OW68715  10.369   1.219   5.859
88959SOL    HW168716  10.308   1.205   5.786
88959SOL    HW268717  10.382   1.313   5.862
88960SOL     OW68718   4.796   9.646  10.663
88960SOL    HW168719   4.808   9.569  10.719
88960SOL    HW268720   4.779   9.610  10.576
88961SOL     OW68721   1.119   0.247  11.314
88961SOL    HW168722   1.045   0.280  11.366
88961SOL    HW268723   1.177   0.323  11.303
88962SOL     OW68724  13.254  13.817   7.888
88962SOL    HW168725  13.204  13.737   7.872
88962SOL    HW268726  13.206  13.861   7.958
88963SOL     OW68727   2.017   4.144   7.824
88963SOL    HW168728   1.973   4.224   7.797
88963SOL    HW268729   2.103   4.148   7.781
88964SOL     OW68730  10.518   4.901  14.874
88964SOL    HW168731  10.560   4.822   0.027
88964SOL    HW268732  10.426   4.877  14.861
88965SOL     OW68733   5.690   5.638   2.131
88965SOL    HW168734   5.759   5.703   2.144
88965SOL    HW268735   5.730   5.572   2.073
88966SOL     OW68736  11.526   8.919   7.175
88966SOL    HW168737  11.469   8.845   7.151
88966SOL    HW268738  11.476   8.996   7.148
88967SOL     OW68739   0.318  12.279   2.711
88967SOL    HW168740   0.293  12.189   2.729
88967SOL    HW268741   0.242  12.331   2.737
88968SOL     OW68742  14.575  10.247  12.110
88968SOL    HW168743  14.549  10.325  12.159
88968SOL    HW268744  14.492  10.203  12.090
88969SOL     OW68745   6.991   2.626   9.983
88969SOL    HW168746   7.004   2.719   9.963
88969SOL    HW268747   6.935   2.594   9.913
88970SOL     OW68748   0.928   5.863  13.821
88970SOL    HW168749   0.976   5.799  13.873
88970SOL    HW268750   0.839   5.829  13.817
88971SOL     OW68751   6.231   4.986   6.500
88971SOL    HW168752   6.305   5.036   6.534
88971SOL    HW268753   6.155   5.041   6.515
88972SOL     OW68754  14.319   0.446  13.298
88972SOL    HW168755  14.361   0.371  13.256
88972SOL    HW268756  14.276   0.493  13.227
88973SOL     OW68757  10.611  13.063   2.047
88973SOL    HW168758  10.621  12.969   2.033
88973SOL    HW268759  10.523  13.083   2.013
88974SOL     OW68760   5.139   8.932  14.511
88974SOL    HW168761   5.047   8.924  14.488
88974SOL    HW268762   5.157   8.854  14.564
88975SOL     OW68763   9.563   5.257  12.244
88975SOL    HW168764   9.491   5.227  12.189
88975SOL    HW268765   9.642   5.238  12.193
88976SOL     OW68766   7.593   0.974   5.477
88976SOL    HW168767   7.641   1.048   5.512
88976SOL    HW268768   7.658   0.904   5.470
88977SOL     OW68769   3.034   4.124  12.923
88977SOL    HW168770   3.089   4.183  12.872
88977SOL    HW268771   3.016   4.172  13.004
88978SOL     OW68772   4.760   6.442   6.593
88978SOL    HW168773   4.767   6.533   6.624
88978SOL    HW268774   4.667   6.431   6.573
88979SOL     OW68775   6.739   9.347   3.236
88979SOL    HW168776   6.676   9.419   3.237
88979SOL    HW268777   6.797   9.366   3.163
88980SOL     OW68778   1.573   0.412   3.664
88980SOL    HW168779   1.484   0.447   3.662
88980SOL    HW268780   1.626   0.479   3.619
88981SOL     OW68781   3.057   6.949   6.346
88981SOL    HW168782   3.023   6.967   6.434
88981SOL    HW268783   3.025   6.861   6.326
88982SOL     OW68784  12.731   5.565   0.320
88982SOL    HW168785  12.648   5.612   0.316
88982SOL    HW268786  12.733   5.513   0.239
88983SOL     OW68787   6.937   6.127   8.494
88983SOL    HW168788   7.018   6.177   8.505
88983SOL    HW268789   6.957   6.064   8.425
88984SOL     OW68790  10.013  11.412  13.637
88984SOL    HW168791  10.028  11.496  13.593
88984SOL    HW268792  10.094  11.364  13.626
88985SOL     OW68793  13.401   6.323  11.197
88985SOL    HW168794  13.346   6.374  11.257
88985SOL    HW268795  13.438   6.254  11.252
88986SOL     OW68796   0.235   9.203   8.986
88986SOL    HW168797   0.326   9.216   8.961
88986SOL    HW268798   0.195   9.289   8.976
88987SOL     OW68799   1.819   0.982   1.501
88987SOL    HW168800   1.863   1.067   1.491
88987SOL    HW268801   1.884   0.927   1.545
88988SOL     OW68802  11.561  14.360  11.877
88988SOL    HW168803  11.525  14.296  11.815
88988SOL    HW268804  11.636  14.316  11.916
88989SOL     OW68805  14.618   0.156   2.140
88989SOL    HW168806  14.548   0.143   2.204
88989SOL    HW268807  14.604   0.246   2.108
88990SOL     OW68808  13.776   0.859   1.469
88990SOL    HW168809  13.767   0.933   1.529
88990SOL    HW268810  13.818   0.790   1.521
88991SOL     OW68811  13.377   8.610  11.680
88991SOL    HW168812  13.318   8.537  11.701
88991SOL    HW268813  13.391   8.654  11.763
88992SOL     OW68814  11.243   4.067   7.429
88992SOL    HW168815  11.248   3.997   7.364
88992SOL    HW268816  11.332   4.075   7.462
88993SOL     OW68817  12.225   0.817   8.374
88993SOL    HW168818  12.308   0.846   8.414
88993SOL    HW268819  12.171   0.790   8.449
88994SOL     OW68820  10.239   7.030   1.553
88994SOL    HW168821  10.326   7.008   1.586
88994SOL    HW268822  10.180   7.008   1.626
88995SOL     OW68823   5.811   0.812   6.281
88995SOL    HW168824   5.788   0.729   6.324
88995SOL    HW268825   5.900   0.797   6.248
88996SOL     OW68826  10.532   4.793   6.583
88996SOL    HW168827  10.610   4.819   6.534
88996SOL    HW268828  10.536   4.697   6.584
88997SOL     OW68829  12.301   7.003  11.259
88997SOL    HW168830  12.344   7.073  11.210
88997SOL    HW268831  12.228   6.976  11.203
88998SOL     OW68832  13.258   1.642   4.272
88998SOL    HW168833  13.183   1.701   4.281
88998SOL    HW268834  13.333   1.695   4.300
88999SOL     OW68835   7.748   0.201  11.459
88999SOL    HW168836   7.771   0.114  11.491
88999SOL    HW268837   7.652   0.202  11.458
89000SOL     OW68838   5.015   6.532   3.183
89000SOL    HW168839   5.060   6.493   3.258
89000SOL    HW268840   4.994   6.621   3.211
89001SOL     OW68841  14.826   6.003  11.924
89001SOL    HW168842   0.014   6.019  11.989
89001SOL    HW268843  14.856   6.050  11.846
89002SOL     OW68844   4.980  11.891  12.808
89002SOL    HW168845   4.984  11.805  12.851
89002SOL    HW268846   5.033  11.948  12.864
89003SOL     OW68847  14.719   4.211   5.550
89003SOL    HW168848  14.780   4.187   5.620
89003SOL    HW268849  14.776   4.232   5.476
89004SOL     OW68850   8.710   1.806  12.905
89004SOL    HW168851   8.718   1.894  12.868
89004SOL    HW268852   8.728   1.747  12.832
89005SOL     OW68853  10.995  11.695   4.038
89005SOL    HW168854  10.925  11.662   4.095
89005SOL    HW268855  10.952  11.758   3.980
89006SOL     OW68856   1.540  13.869   0.974
89006SOL    HW168857   1.535  13.791   0.917
89006SOL    HW268858   1.455  13.872   1.018
89007SOL     OW68859   4.362  11.161   1.707
89007SOL    HW168860   4.422  11.130   1.775
89007SOL    HW268861   4.347  11.253   1.729
89008SOL     OW68862   4.380   5.211  12.677
89008SOL    HW168863   4.408   5.273  12.744
89008SOL    HW268864   4.285   5.206  12.687
89009SOL     OW68865  10.169   1.872   5.973
89009SOL    HW168866  10.113   1.825   6.035
89009SOL    HW268867  10.244   1.900   6.026
89010SOL     OW68868   7.180   8.153   1.859
89010SOL    HW168869   7.199   8.109   1.942
89010SOL    HW268870   7.263   8.149   1.811
89011SOL     OW68871   8.310  11.700   9.702
89011SOL    HW168872   8.299  11.780   9.753
89011SOL    HW268873   8.220  11.668   9.688
89012SOL     OW68874  12.973   7.228  13.216
89012SOL    HW168875  13.057   7.182  13.221
89012SOL    HW268876  12.910   7.161  13.191
89013SOL     OW68877  11.600   8.271  13.667
89013SOL    HW168878  11.610   8.177  13.654
89013SOL    HW268879  11.689   8.307  13.663
89014SOL     OW68880   0.797  11.634   2.348
89014SOL    HW168881   0.794  11.669   2.436
89014SOL    HW268882   0.798  11.711   2.291
89015SOL     OW68883   3.444   5.975  11.174
89015SOL    HW168884   3.371   6.019  11.131
89015SOL    HW268885   3.467   6.032  11.247
89016SOL     OW68886   9.868   6.656  14.224
89016SOL    HW168887   9.950   6.685  14.183
89016SOL    HW268888   9.801   6.712  14.185
89017SOL     OW68889   7.380   2.582   1.547
89017SOL    HW168890   7.286   2.594   1.556
89017SOL    HW268891   7.405   2.636   1.472
89018SOL     OW68892  12.549   3.342  13.026
89018SOL    HW168893  12.469   3.311  12.983
89018SOL    HW268894  12.549   3.437  13.012
89019SOL     OW68895   7.720   2.339  12.114
89019SOL    HW168896   7.680   2.321  12.029
89019SOL    HW268897   7.669   2.413  12.149
89020SOL     OW68898  13.887  13.816   7.260
89020SOL    HW168899  13.793  13.798   7.254
89020SOL    HW268900  13.914  13.778   7.343
89021SOL     OW68901   6.521  12.202  10.759
89021SOL    HW168902   6.487  12.290  10.775
89021SOL    HW268903   6.464  12.146  10.812
89022SOL     OW68904  12.920   4.785   9.040
89022SOL    HW168905  12.951   4.803   9.129
89022SOL    HW268906  12.997   4.756   8.992
89023SOL     OW68907  10.428  10.562   1.979
89023SOL    HW168908  10.451  10.576   2.071
89023SOL    HW268909  10.452  10.643   1.935
89024SOL     OW68910  11.670  11.806  11.819
89024SOL    HW168911  11.703  11.877  11.764
89024SOL    HW268912  11.575  11.815  11.814
89025SOL     OW68913  13.458   2.581   2.661
89025SOL    HW168914  13.467   2.526   2.583
89025SOL    HW268915  13.520   2.653   2.647
89026SOL     OW68916   3.794   1.944  14.275
89026SOL    HW168917   3.754   1.871  14.227
89026SOL    HW268918   3.883   1.913  14.296
89027SOL     OW68919   1.794   2.969   9.897
89027SOL    HW168920   1.884   2.975   9.929
89027SOL    HW268921   1.769   3.059   9.876
89028SOL     OW68922  10.931  10.159  13.206
89028SOL    HW168923  10.842  10.189  13.223
89028SOL    HW268924  10.927  10.122  13.117
89029SOL     OW68925   6.778  10.537   5.233
89029SOL    HW168926   6.852  10.479   5.255
89029SOL    HW268927   6.750  10.573   5.317
89030SOL     OW68928   0.451  14.659   8.878
89030SOL    HW168929   0.457  14.703   8.963
89030SOL    HW268930   0.432  14.567   8.900
89031SOL     OW68931   0.579   8.269  10.203
89031SOL    HW168932   0.535   8.256  10.287
89031SOL    HW268933   0.534   8.209  10.143
89032SOL     OW68934   8.089   5.765   6.975
89032SOL    HW168935   8.153   5.735   6.910
89032SOL    HW268936   8.033   5.826   6.926
89033SOL     OW68937   3.099   5.328  14.073
89033SOL    HW168938   3.115   5.391  14.002
89033SOL    HW268939   3.176   5.335  14.129
89034SOL     OW68940   4.880   5.360   4.097
89034SOL    HW168941   4.943   5.409   4.149
89034SOL    HW268942   4.912   5.270   4.100
89035SOL     OW68943   6.849   3.475  14.499
89035SOL    HW168944   6.762   3.509  14.480
89035SOL    HW268945   6.893   3.546  14.547
89036SOL     OW68946  12.826  11.291   3.052
89036SOL    HW168947  12.855  11.272   3.141
89036SOL    HW268948  12.906  11.295   3.000
89037SOL     OW68949  14.572  12.505   1.759
89037SOL    HW168950  14.589  12.475   1.848
89037SOL    HW268951  14.658  12.526   1.724
89038SOL     OW68952   9.491   0.716  11.015
89038SOL    HW168953   9.517   0.628  11.043
89038SOL    HW268954   9.537   0.774  11.076
89039SOL     OW68955   8.531   3.722  12.531
89039SOL    HW168956   8.573   3.654  12.583
89039SOL    HW268957   8.595   3.794  12.529
89040SOL     OW68958  13.841  13.283   5.806
89040SOL    HW168959  13.771  13.261   5.868
89040SOL    HW268960  13.809  13.252   5.722
89041SOL     OW68961   7.610   6.143  13.985
89041SOL    HW168962   7.640   6.073  14.043
89041SOL    HW268963   7.552   6.197  14.040
89042SOL     OW68964   8.506   5.907   7.540
89042SOL    HW168965   8.548   5.827   7.508
89042SOL    HW268966   8.568   5.977   7.520
89043SOL     OW68967   9.307  14.316   1.510
89043SOL    HW168968   9.403  14.314   1.513
89043SOL    HW268969   9.284  14.257   1.438
89044SOL     OW68970   3.336   2.489   5.398
89044SOL    HW168971   3.334   2.410   5.344
89044SOL    HW268972   3.306   2.459   5.484
89045SOL     OW68973   0.560  12.081   1.953
89045SOL    HW168974   0.561  12.086   2.049
89045SOL    HW268975   0.478  12.121   1.928
89046SOL     OW68976  12.008   6.196  12.018
89046SOL    HW168977  11.957   6.236  11.949
89046SOL    HW268978  12.008   6.260  12.089
89047SOL     OW68979   3.848   4.459   3.080
89047SOL    HW168980   3.940   4.431   3.086
89047SOL    HW268981   3.832   4.466   2.985
89048SOL     OW68982   3.693  11.976  14.112
89048SOL    HW168983   3.680  11.934  14.197
89048SOL    HW268984   3.661  11.911  14.048
89049SOL     OW68985  14.159  11.398  13.683
89049SOL    HW168986  14.069  11.367  13.679
89049SOL    HW268987  14.189  11.396  13.592
89050SOL     OW68988   8.862  13.426  10.419
89050SOL    HW168989   8.794  13.465  10.364
89050SOL    HW268990   8.855  13.472  10.502
89051SOL     OW68991   7.190  14.436  14.715
89051SOL    HW168992   7.285  14.436  14.709
89051SOL    HW268993   7.168  14.348  14.747
89052SOL     OW68994   1.709  13.127  13.811
89052SOL    HW168995   1.773  13.063  13.780
89052SOL    HW268996   1.755  13.211  13.806
89053SOL     OW68997   0.149   9.966  14.290
89053SOL    HW168998   0.088   9.922  14.349
89053SOL    HW268999   0.181   9.896  14.232
89054SOL     OW69000   8.493   6.337  14.412
89054SOL    HW169001   8.577   6.332  14.366
89054SOL    HW269002   8.471   6.431  14.410
89055SOL     OW69003  14.208   5.358   9.813
89055SOL    HW169004  14.273   5.298   9.848
89055SOL    HW269005  14.162   5.392   9.890
89056SOL     OW69006   4.113  13.058  10.247
89056SOL    HW169007   4.171  13.056  10.171
89056SOL    HW269008   4.068  12.974  10.246
89057SOL     OW69009   2.990   1.935   6.074
89057SOL    HW169010   3.077   1.894   6.063
89057SOL    HW269011   2.999   2.021   6.033
89058SOL     OW69012   8.936   9.506   7.102
89058SOL    HW169013   8.992   9.477   7.030
89058SOL    HW269014   8.848   9.509   7.065
89059SOL     OW69015   2.705   3.399   0.186
89059SOL    HW169016   2.712   3.341   0.262
89059SOL    HW269017   2.611   3.418   0.180
89060SOL     OW69018   4.199   7.862  13.860
89060SOL    HW169019   4.272   7.847  13.920
89060SOL    HW269020   4.152   7.779  13.857
89061SOL     OW69021   4.770   8.475   1.013
89061SOL    HW169022   4.718   8.530   1.071
89061SOL    HW269023   4.761   8.387   1.049
89062SOL     OW69024   3.858   9.656  11.023
89062SOL    HW169025   3.836   9.727  10.962
89062SOL    HW269026   3.953   9.665  11.036
89063SOL     OW69027   4.937   4.874   0.975
89063SOL    HW169028   4.951   4.844   1.065
89063SOL    HW269029   4.862   4.822   0.944
89064SOL     OW69030   8.763   8.771   8.722
89064SOL    HW169031   8.694   8.820   8.676
89064SOL    HW269032   8.842   8.788   8.672
89065SOL     OW69033   3.687   3.471  14.105
89065SOL    HW169034   3.609   3.511  14.144
89065SOL    HW269035   3.668   3.377  14.106
89066SOL     OW69036  11.120   8.419  14.546
89066SOL    HW169037  11.161   8.426  14.632
89066SOL    HW269038  11.058   8.347  14.555
89067SOL     OW69039  13.578   6.927   1.385
89067SOL    HW169040  13.575   6.881   1.302
89067SOL    HW269041  13.665   6.967   1.388
89068SOL     OW69042  14.207   3.924   5.168
89068SOL    HW169043  14.167   3.924   5.255
89068SOL    HW269044  14.151   3.866   5.116
89069SOL     OW69045   5.495   3.505  13.211
89069SOL    HW169046   5.418   3.462  13.249
89069SOL    HW269047   5.473   3.516  13.119
89070SOL     OW69048   5.898   8.432  10.459
89070SOL    HW169049   5.932   8.464  10.375
89070SOL    HW269050   5.966   8.374  10.492
89071SOL     OW69051   8.261   3.966   6.199
89071SOL    HW169052   8.252   4.059   6.219
89071SOL    HW269053   8.326   3.962   6.130
89072SOL     OW69054  14.853   6.125  10.922
89072SOL    HW169055  14.878   6.091  11.007
89072SOL    HW269056  14.823   6.049  10.873
89073SOL     OW69057   6.895   7.999   4.936
89073SOL    HW169058   6.838   8.054   4.883
89073SOL    HW269059   6.950   8.061   4.984
89074SOL     OW69060  12.729  12.227   5.397
89074SOL    HW169061  12.730  12.134   5.416
89074SOL    HW269062  12.728  12.232   5.301
89075SOL     OW69063  10.723   1.029   4.288
89075SOL    HW169064  10.680   0.950   4.255
89075SOL    HW269065  10.726   1.016   4.383
89076SOL     OW69066  10.608   1.836  14.393
89076SOL    HW169067  10.528   1.885  14.375
89076SOL    HW269068  10.641   1.872  14.475
89077SOL     OW69069   5.005   0.429  14.519
89077SOL    HW169070   5.014   0.492  14.447
89077SOL    HW269071   4.912   0.405  14.519
89078SOL     OW69072  12.381  11.411   6.834
89078SOL    HW169073  12.309  11.452   6.787
89078SOL    HW269074  12.341  11.335   6.877
89079SOL     OW69075   9.984   0.706   5.278
89079SOL    HW169076   9.940   0.738   5.356
89079SOL    HW269077  10.074   0.692   5.305
89080SOL     OW69078   5.458   6.554   5.797
89080SOL    HW169079   5.511   6.478   5.821
89080SOL    HW269080   5.515   6.606   5.741
89081SOL     OW69081  11.263   8.371   1.025
89081SOL    HW169082  11.215   8.452   1.044
89081SOL    HW269083  11.302   8.386   0.939
89082SOL     OW69084   7.684   3.479   0.471
89082SOL    HW169085   7.681   3.549   0.537
89082SOL    HW269086   7.654   3.521   0.390
89083SOL     OW69087   7.156   4.451   8.995
89083SOL    HW169088   7.075   4.431   9.041
89083SOL    HW269089   7.173   4.543   9.015
89084SOL     OW69090  14.214  13.007  12.914
89084SOL    HW169091  14.304  13.028  12.891
89084SOL    HW269092  14.163  13.028  12.836
89085SOL     OW69093  12.716   5.440  13.060
89085SOL    HW169094  12.701   5.366  13.118
89085SOL    HW269095  12.812   5.451  13.058
89086SOL     OW69096   0.928  10.508   2.306
89086SOL    HW169097   0.937  10.430   2.360
89086SOL    HW269098   0.988  10.495   2.233
89087SOL     OW69099   0.141  10.465   9.979
89087SOL    HW169100   0.179  10.388   9.935
89087SOL    HW269101   0.217  10.518  10.003
89088SOL     OW69102   1.638  14.267   5.429
89088SOL    HW169103   1.675  14.181   5.451
89088SOL    HW269104   1.628  14.311   5.514
89089SOL     OW69105   9.379   9.424   3.955
89089SOL    HW169106   9.375   9.386   3.867
89089SOL    HW269107   9.336   9.509   3.946
89090SOL     OW69108   5.756  13.341  14.064
89090SOL    HW169109   5.758  13.365  14.157
89090SOL    HW269110   5.811  13.263  14.059
89091SOL     OW69111   6.944   6.732  13.841
89091SOL    HW169112   7.029   6.777  13.838
89091SOL    HW269113   6.919   6.735  13.933
89092SOL     OW69114   4.319   2.889   2.597
89092SOL    HW169115   4.389   2.878   2.532
89092SOL    HW269116   4.257   2.819   2.577
89093SOL     OW69117   2.973  14.679   6.170
89093SOL    HW169118   2.978  14.733   6.248
89093SOL    HW269119   3.052  14.625   6.172
89094SOL     OW69120   5.881   4.563   1.947
89094SOL    HW169121   5.907   4.541   2.036
89094SOL    HW269122   5.790   4.591   1.955
89095SOL     OW69123  11.638  14.706  10.512
89095SOL    HW169124  11.652  14.615  10.484
89095SOL    HW269125  11.662  14.758  10.436
89096SOL     OW69126   9.418   0.369   8.062
89096SOL    HW169127   9.398   0.297   8.121
89096SOL    HW269128   9.456   0.328   7.985
89097SOL     OW69129   2.291   3.405   5.917
89097SOL    HW169130   2.345   3.417   5.995
89097SOL    HW269131   2.216   3.463   5.931
89098SOL     OW69132  10.216   3.709   9.928
89098SOL    HW169133  10.146   3.672   9.982
89098SOL    HW269134  10.190   3.801   9.916
89099SOL     OW69135   0.476   6.224  10.725
89099SOL    HW169136   0.435   6.233  10.640
89099SOL    HW269137   0.482   6.314  10.759
89100SOL     OW69138   8.249   4.268   3.862
89100SOL    HW169139   8.252   4.175   3.883
89100SOL    HW269140   8.335   4.301   3.888
89101SOL     OW69141   8.900  14.108   9.396
89101SOL    HW169142   8.834  14.177   9.401
89101SOL    HW269143   8.918  14.085   9.487
89102SOL     OW69144   4.558  13.159   4.904
89102SOL    HW169145   4.520  13.200   4.826
89102SOL    HW269146   4.625  13.221   4.932
89103SOL     OW69147   0.397   6.066  10.941
89103SOL    HW169148   0.430   6.111  10.863
89103SOL    HW269149   0.476   6.030  10.982
89104SOL     OW69150   7.326   4.611   3.761
89104SOL    HW169151   7.376   4.578   3.836
89104SOL    HW269152   7.306   4.701   3.783
89105SOL     OW69153   4.987   7.210   3.034
89105SOL    HW169154   5.031   7.133   2.997
89105SOL    HW269155   5.004   7.280   2.971
89106SOL     OW69156   6.687   5.480   4.925
89106SOL    HW169157   6.736   5.523   4.855
89106SOL    HW269158   6.664   5.551   4.985
89107SOL     OW69159  10.549   2.944   8.246
89107SOL    HW169160  10.634   2.916   8.214
89107SOL    HW269161  10.563   2.963   8.339
89108SOL     OW69162   0.857  11.203   9.236
89108SOL    HW169163   0.792  11.264   9.203
89108SOL    HW269164   0.825  11.179   9.323
89109SOL     OW69165   5.844  12.261   5.334
89109SOL    HW169166   5.833  12.338   5.389
89109SOL    HW269167   5.755  12.225   5.325
89110SOL     OW69168   0.229   3.942   0.421
89110SOL    HW169169   0.208   3.963   0.512
89110SOL    HW269170   0.278   4.018   0.390
89111SOL     OW69171   5.481   2.747   3.588
89111SOL    HW169172   5.509   2.713   3.503
89111SOL    HW269173   5.501   2.677   3.650
89112SOL     OW69174   6.097  13.812   7.549
89112SOL    HW169175   6.094  13.877   7.479
89112SOL    HW269176   6.162  13.846   7.611
89113SOL     OW69177   2.408  10.091  11.940
89113SOL    HW169178   2.457  10.173  11.934
89113SOL    HW269179   2.349  10.103  12.014
89114SOL     OW69180  10.270   9.333   7.080
89114SOL    HW169181  10.320   9.371   7.152
89114SOL    HW269182  10.305   9.245   7.069
89115SOL     OW69183   6.125  12.889  11.799
89115SOL    HW169184   6.074  12.866  11.721
89115SOL    HW269185   6.108  12.983  11.812
89116SOL     OW69186  10.890   7.373   7.278
89116SOL    HW169187  10.816   7.433   7.291
89116SOL    HW269188  10.905   7.373   7.183
89117SOL     OW69189   1.653   3.509   0.532
89117SOL    HW169190   1.743   3.540   0.544
89117SOL    HW269191   1.621   3.491   0.620
89118SOL     OW69192   0.860  13.480   9.582
89118SOL    HW169193   0.771  13.446   9.589
89118SOL    HW269194   0.850  13.575   9.590
89119SOL     OW69195   9.151   9.022  13.737
89119SOL    HW169196   9.147   9.117  13.729
89119SOL    HW269197   9.064   8.991  13.713
89120SOL     OW69198   9.462   1.145   2.043
89120SOL    HW169199   9.434   1.065   2.086
89120SOL    HW269200   9.465   1.211   2.113
89121SOL     OW69201  14.250  10.625   0.275
89121SOL    HW169202  14.200  10.607   0.355
89121SOL    HW269203  14.257  10.540   0.232
89122SOL     OW69204   8.836   1.136   6.095
89122SOL    HW169205   8.831   1.173   6.007
89122SOL    HW269206   8.888   1.056   6.085
89123SOL     OW69207  12.848   4.355  12.631
89123SOL    HW169208  12.761   4.315  12.641
89123SOL    HW269209  12.852   4.381  12.539
89124SOL     OW69210  11.183  12.256   2.838
89124SOL    HW169211  11.141  12.335   2.804
89124SOL    HW269212  11.277  12.277   2.838
89125SOL     OW69213   9.271   4.851   9.545
89125SOL    HW169214   9.182   4.876   9.523
89125SOL    HW269215   9.263   4.766   9.588
89126SOL     OW69216  11.409   4.398  14.579
89126SOL    HW169217  11.333   4.364  14.626
89126SOL    HW269218  11.388   4.386  14.486
89127SOL     OW69219   9.451   9.483  11.584
89127SOL    HW169220   9.381   9.499  11.521
89127SOL    HW269221   9.530   9.476  11.531
89128SOL     OW69222   9.211  12.159   3.549
89128SOL    HW169223   9.143  12.146   3.484
89128SOL    HW269224   9.166  12.197   3.625
89129SOL     OW69225   1.537   8.863  10.904
89129SOL    HW169226   1.593   8.902  10.971
89129SOL    HW269227   1.475   8.931  10.881
89130SOL     OW69228  10.814   6.889   3.989
89130SOL    HW169229  10.886   6.916   3.932
89130SOL    HW269230  10.804   6.962   4.050
89131SOL     OW69231   7.049   6.767  11.825
89131SOL    HW169232   7.075   6.717  11.903
89131SOL    HW269233   7.020   6.701  11.763
89132SOL     OW69234   3.185   9.287  11.934
89132SOL    HW169235   3.123   9.254  11.869
89132SOL    HW269236   3.155   9.376  11.953
89133SOL     OW69237   8.280   5.698   2.543
89133SOL    HW169238   8.275   5.610   2.507
89133SOL    HW269239   8.238   5.753   2.477
89134SOL     OW69240  10.591  12.355   9.257
89134SOL    HW169241  10.575  12.279   9.202
89134SOL    HW269242  10.526  12.349   9.327
89135SOL     OW69243  11.315   8.961   7.907
89135SOL    HW169244  11.376   9.034   7.915
89135SOL    HW269245  11.370   8.883   7.916
89136SOL     OW69246  11.966  11.418   2.455
89136SOL    HW169247  12.007  11.356   2.516
89136SOL    HW269248  11.874  11.392   2.454
89137SOL     OW69249   1.260   5.649   1.726
89137SOL    HW169250   1.186   5.612   1.678
89137SOL    HW269251   1.228   5.657   1.816
89138SOL     OW69252  11.240   1.586   2.061
89138SOL    HW169253  11.160   1.624   2.024
89138SOL    HW269254  11.209   1.512   2.113
89139SOL     OW69255  12.368  14.431   2.701
89139SOL    HW169256  12.402  14.358   2.752
89139SOL    HW269257  12.390  14.509   2.752
89140SOL     OW69258   0.567  14.602  12.424
89140SOL    HW169259   0.656  14.570  12.409
89140SOL    HW269260   0.562  14.616  12.518
89141SOL     OW69261  10.659   8.018   2.774
89141SOL    HW169262  10.580   8.028   2.827
89141SOL    HW269263  10.666   7.923   2.760
89142SOL     OW69264   2.988   0.954   6.689
89142SOL    HW169265   2.945   0.893   6.628
89142SOL    HW269266   2.917   0.983   6.747
89143SOL     OW69267   2.414   2.414  12.606
89143SOL    HW169268   2.483   2.419  12.672
89143SOL    HW269269   2.334   2.398  12.657
89144SOL     OW69270   8.449  11.128   3.182
89144SOL    HW169271   8.427  11.221   3.194
89144SOL    HW269272   8.514  11.110   3.249
89145SOL     OW69273   6.817  11.873  12.243
89145SOL    HW169274   6.780  11.785  12.247
89145SOL    HW269275   6.743  11.932  12.258
89146SOL     OW69276   7.689  10.996   1.875
89146SOL    HW169277   7.683  11.048   1.955
89146SOL    HW269278   7.671  11.058   1.805
89147SOL     OW69279   7.067   0.373  12.071
89147SOL    HW169280   7.101   0.454  12.109
89147SOL    HW269281   7.115   0.304  12.115
89148SOL     OW69282   3.586  10.791  14.230
89148SOL    HW169283   3.648  10.734  14.183
89148SOL    HW269284   3.616  10.791  14.320
89149SOL     OW69285  10.160  14.346  11.245
89149SOL    HW169286  10.232  14.332  11.307
89149SOL    HW269287  10.183  14.292  11.169
89150SOL     OW69288  12.607   2.001   1.900
89150SOL    HW169289  12.673   2.046   1.847
89150SOL    HW269290  12.550   2.070   1.933
89151SOL     OW69291   8.498  11.050  14.774
89151SOL    HW169292   8.506  11.142  14.749
89151SOL    HW269293   8.467  11.051  14.864
89152SOL     OW69294   0.052   9.879   6.117
89152SOL    HW169295   0.089   9.888   6.029
89152SOL    HW269296   0.028   9.967   6.143
89153SOL     OW69297   4.601   6.535  14.554
89153SOL    HW169298   4.521   6.585  14.563
89153SOL    HW269299   4.574   6.455  14.508
89154SOL     OW69300   1.439   5.129   1.351
89154SOL    HW169301   1.489   5.110   1.430
89154SOL    HW269302   1.388   5.207   1.373
89155SOL     OW69303  13.804   8.161   3.196
89155SOL    HW169304  13.804   8.144   3.291
89155SOL    HW269305  13.809   8.257   3.189
89156SOL     OW69306   4.317   0.980  12.064
89156SOL    HW169307   4.364   1.053  12.023
89156SOL    HW269308   4.378   0.947  12.130
89157SOL     OW69309   3.791   1.670   4.316
89157SOL    HW169310   3.821   1.746   4.367
89157SOL    HW269311   3.731   1.624   4.374
89158SOL     OW69312  14.814  12.586   0.122
89158SOL    HW169313  14.823  12.518   0.189
89158SOL    HW269314  14.821  12.669   0.170
89159SOL     OW69315  14.101  11.617   0.570
89159SOL    HW169316  14.115  11.661   0.486
89159SOL    HW269317  14.008  11.630   0.589
89160SOL     OW69318   3.467   8.348   8.441
89160SOL    HW169319   3.453   8.360   8.535
89160SOL    HW269320   3.488   8.255   8.432
89161SOL     OW69321  11.122   6.073  10.333
89161SOL    HW169322  11.184   6.089  10.262
89161SOL    HW269323  11.170   6.098  10.412
89162SOL     OW69324  12.683   5.695  13.277
89162SOL    HW169325  12.711   5.619  13.225
89162SOL    HW269326  12.691   5.769  13.216
89163SOL     OW69327  11.867  12.844   0.347
89163SOL    HW169328  11.862  12.901   0.271
89163SOL    HW269329  11.958  12.852   0.377
89164SOL     OW69330   9.842   6.312  11.736
89164SOL    HW169331   9.859   6.405  11.722
89164SOL    HW269332   9.793   6.284  11.659
89165SOL     OW69333   9.366   5.416   1.388
89165SOL    HW169334   9.374   5.322   1.402
89165SOL    HW269335   9.272   5.433   1.393
89166SOL     OW69336  12.008  11.220   8.608
89166SOL    HW169337  11.942  11.201   8.675
89166SOL    HW269338  12.062  11.141   8.606
89167SOL     OW69339  14.709   5.742   2.450
89167SOL    HW169340  14.795   5.710   2.479
89167SOL    HW269341  14.718   5.837   2.449
89168SOL     OW69342   0.162   1.088  11.207
89168SOL    HW169343   0.219   1.153  11.166
89168SOL    HW269344   0.142   1.125  11.293
89169SOL     OW69345   6.908   2.961   5.793
89169SOL    HW169346   6.981   2.931   5.739
89169SOL    HW269347   6.848   2.886   5.795
89170SOL     OW69348   0.595   8.756   0.091
89170SOL    HW169349   0.530   8.779   0.157
89170SOL    HW269350   0.544   8.722   0.018
89171SOL     OW69351  13.998  14.315   3.761
89171SOL    HW169352  13.952  14.315   3.845
89171SOL    HW269353  13.930  14.335   3.696
89172SOL     OW69354   9.994   2.298   2.640
89172SOL    HW169355   9.973   2.297   2.733
89172SOL    HW269356  10.005   2.391   2.619
89173SOL     OW69357   2.180  10.800  14.849
89173SOL    HW169358   2.178  10.878   0.026
89173SOL    HW269359   2.088  10.782  14.831
89174SOL     OW69360   1.302   2.258  13.777
89174SOL    HW169361   1.301   2.338  13.829
89174SOL    HW269362   1.395   2.238  13.765
89175SOL     OW69363   1.402   4.054   1.676
89175SOL    HW169364   1.461   4.110   1.625
89175SOL    HW269365   1.459   4.013   1.741
89176SOL     OW69366   8.628  14.053   9.174
89176SOL    HW169367   8.649  13.972   9.221
89176SOL    HW269368   8.712  14.085   9.142
89177SOL     OW69369   9.159  11.897   4.582
89177SOL    HW169370   9.128  11.880   4.493
89177SOL    HW269371   9.190  11.988   4.579
89178SOL     OW69372   7.188  13.839  13.994
89178SOL    HW169373   7.174  13.754  14.034
89178SOL    HW269374   7.215  13.896  14.065
89179SOL     OW69375  10.743   3.112   4.520
89179SOL    HW169376  10.718   3.021   4.538
89179SOL    HW269377  10.671   3.164   4.557
89180SOL     OW69378   3.463   7.468   5.114
89180SOL    HW169379   3.414   7.473   5.196
89180SOL    HW269380   3.540   7.522   5.128
89181SOL     OW69381  11.862  11.120   7.784
89181SOL    HW169382  11.873  11.200   7.837
89181SOL    HW269383  11.948  11.105   7.746
89182SOL     OW69384  13.154   0.832  13.997
89182SOL    HW169385  13.237   0.836  14.045
89182SOL    HW269386  13.127   0.924  13.989
89183SOL     OW69387  14.696  10.460   2.370
89183SOL    HW169388  14.777  10.504   2.393
89183SOL    HW269389  14.631  10.496   2.431
89184SOL     OW69390  13.378   6.499   3.532
89184SOL    HW169391  13.451   6.557   3.510
89184SOL    HW269392  13.311   6.520   3.468
89185SOL     OW69393   0.506   2.296   9.845
89185SOL    HW169394   0.493   2.358   9.773
89185SOL    HW269395   0.472   2.213   9.811
89186SOL     OW69396   7.989  14.630   4.852
89186SOL    HW169397   7.988  14.564   4.921
89186SOL    HW269398   7.980  14.714   4.898
89187SOL     OW69399  10.456   3.713   7.338
89187SOL    HW169400  10.539   3.706   7.290
89187SOL    HW269401  10.476   3.772   7.411
89188SOL     OW69402   6.494   8.324   6.706
89188SOL    HW169403   6.463   8.414   6.715
89188SOL    HW269404   6.559   8.327   6.637
89189SOL     OW69405   7.649   8.502   2.959
89189SOL    HW169406   7.728   8.448   2.953
89189SOL    HW269407   7.577   8.441   2.945
89190SOL     OW69408  13.423  10.308   1.777
89190SOL    HW169409  13.331  10.298   1.753
89190SOL    HW269410  13.432  10.259   1.859
89191SOL     OW69411   8.531   9.986  12.029
89191SOL    HW169412   8.492   9.899  12.028
89191SOL    HW269413   8.471  10.041  11.979
89192SOL     OW69414  14.359   4.613   4.911
89192SOL    HW169415  14.364   4.562   4.830
89192SOL    HW269416  14.339   4.548   4.979
89193SOL     OW69417   2.885  10.085  11.814
89193SOL    HW169418   2.853  10.159  11.763
89193SOL    HW269419   2.981  10.093  11.809
89194SOL     OW69420  13.233  13.977  11.040
89194SOL    HW169421  13.164  13.915  11.014
89194SOL    HW269422  13.200  14.062  11.011
89195SOL     OW69423   9.705   5.472  13.884
89195SOL    HW169424   9.684   5.560  13.854
89195SOL    HW269425   9.639   5.417  13.843
89196SOL     OW69426   9.134   6.710   6.388
89196SOL    HW169427   9.136   6.635   6.329
89196SOL    HW269428   9.160   6.784   6.334
89197SOL     OW69429  10.598   1.671  10.639
89197SOL    HW169430  10.550   1.699  10.562
89197SOL    HW269431  10.667   1.736  10.649
89198SOL     OW69432   0.119   2.844   7.622
89198SOL    HW169433   0.139   2.768   7.678
89198SOL    HW269434   0.037   2.879   7.658
89199SOL     OW69435  12.610   5.891  13.590
89199SOL    HW169436  12.635   5.970  13.638
89199SOL    HW269437  12.555   5.842  13.651
89200SOL     OW69438  14.499   2.953   7.676
89200SOL    HW169439  14.433   2.884   7.670
89200SOL    HW269440  14.455   3.031   7.641
89201SOL     OW69441   4.942  13.857   7.217
89201SOL    HW169442   5.002  13.899   7.279
89201SOL    HW269443   4.973  13.767   7.212
89202SOL     OW69444   7.431   3.251  10.846
89202SOL    HW169445   7.525   3.268  10.842
89202SOL    HW269446   7.420   3.167  10.802
89203SOL     OW69447   5.878   4.025  12.634
89203SOL    HW169448   5.874   4.110  12.678
89203SOL    HW269449   5.852   4.044  12.544
89204SOL     OW69450   1.211   7.671   6.304
89204SOL    HW169451   1.194   7.671   6.398
89204SOL    HW269452   1.285   7.730   6.294
89205SOL     OW69453  14.341   0.784   1.609
89205SOL    HW169454  14.368   0.705   1.563
89205SOL    HW269455  14.412   0.800   1.671
89206SOL     OW69456   8.714  12.353  12.060
89206SOL    HW169457   8.710  12.313  12.147
89206SOL    HW269458   8.768  12.431  12.071
89207SOL     OW69459   5.118  14.314  10.789
89207SOL    HW169460   5.084  14.397  10.822
89207SOL    HW269461   5.045  14.274  10.742
89208SOL     OW69462   0.743   1.354   3.584
89208SOL    HW169463   0.719   1.279   3.639
89208SOL    HW269464   0.838   1.360   3.592
89209SOL     OW69465   0.100   1.163   8.717
89209SOL    HW169466   0.061   1.238   8.762
89209SOL    HW269467   0.025   1.110   8.690
89210SOL     OW69468   7.556  14.086  11.873
89210SOL    HW169469   7.541  14.093  11.779
89210SOL    HW269470   7.504  14.157  11.911
89211SOL     OW69471   3.280   2.576   8.738
89211SOL    HW169472   3.243   2.603   8.654
89211SOL    HW269473   3.297   2.483   8.729
89212SOL     OW69474   9.981   2.567   2.583
89212SOL    HW169475   9.926   2.603   2.652
89212SOL    HW269476   9.943   2.602   2.502
89213SOL     OW69477   1.662  10.581   0.092
89213SOL    HW169478   1.654  10.553   0.001
89213SOL    HW269479   1.597  10.650   0.102
89214SOL     OW69480   7.140   6.201  13.822
89214SOL    HW169481   7.088   6.159  13.753
89214SOL    HW269482   7.106   6.290  13.827
89215SOL     OW69483  11.337  10.959   6.501
89215SOL    HW169484  11.412  10.980   6.557
89215SOL    HW269485  11.364  10.880   6.454
89216SOL     OW69486   2.936  10.237   5.782
89216SOL    HW169487   2.988  10.309   5.818
89216SOL    HW269488   2.963  10.231   5.690
89217SOL     OW69489   7.862  11.485   6.353
89217SOL    HW169490   7.808  11.562   6.335
89217SOL    HW269491   7.857  11.474   6.448
89218SOL     OW69492   6.818   7.944   6.951
89218SOL    HW169493   6.868   7.994   7.016
89218SOL    HW269494   6.741   7.998   6.933
89219SOL     OW69495   3.742   4.102  10.140
89219SOL    HW169496   3.819   4.130  10.090
89219SOL    HW269497   3.766   4.119  10.231
89220SOL     OW69498  11.259   0.710  11.712
89220SOL    HW169499  11.322   0.649  11.750
89220SOL    HW269500  11.208   0.741  11.786
89221SOL     OW69501   0.923   3.537   4.434
89221SOL    HW169502   1.015   3.528   4.461
89221SOL    HW269503   0.891   3.447   4.430
89222SOL     OW69504   6.380  10.391   2.655
89222SOL    HW169505   6.446  10.343   2.705
89222SOL    HW269506   6.315  10.325   2.631
89223SOL     OW69507   1.719   4.999   2.595
89223SOL    HW169508   1.811   4.977   2.580
89223SOL    HW269509   1.679   4.918   2.628
89224SOL     OW69510   8.264   1.933   2.685
89224SOL    HW169511   8.343   1.880   2.674
89224SOL    HW269512   8.211   1.884   2.748
89225SOL     OW69513  14.455  13.857   6.074
89225SOL    HW169514  14.511  13.801   6.127
89225SOL    HW269515  14.387  13.798   6.041
89226SOL     OW69516  12.638  11.212  14.584
89226SOL    HW169517  12.695  11.235  14.510
89226SOL    HW269518  12.549  11.223  14.550
89227SOL     OW69519   2.723  11.472   6.691
89227SOL    HW169520   2.735  11.552   6.639
89227SOL    HW269521   2.780  11.408   6.649
89228SOL     OW69522  12.707   1.943  13.789
89228SOL    HW169523  12.692   2.001  13.864
89228SOL    HW269524  12.639   1.876  13.797
89229SOL     OW69525   3.525  10.881   0.644
89229SOL    HW169526   3.491  10.932   0.717
89229SOL    HW269527   3.530  10.792   0.678
89230SOL     OW69528   9.762   0.694  14.015
89230SOL    HW169529   9.770   0.678  13.921
89230SOL    HW269530   9.694   0.761  14.022
89231SOL     OW69531   9.331   3.579   7.031
89231SOL    HW169532   9.392   3.539   6.969
89231SOL    HW269533   9.307   3.662   6.990
89232SOL     OW69534  10.930  13.243  14.346
89232SOL    HW169535  10.935  13.148  14.356
89232SOL    HW269536  10.945  13.278  14.434
89233SOL     OW69537   7.652  10.733  10.158
89233SOL    HW169538   7.610  10.666  10.213
89233SOL    HW269539   7.745  10.727  10.180
89234SOL     OW69540  12.840   7.559   4.611
89234SOL    HW169541  12.874   7.504   4.681
89234SOL    HW269542  12.823   7.643   4.653
89235SOL     OW69543   6.209   9.631   1.537
89235SOL    HW169544   6.168   9.563   1.484
89235SOL    HW269545   6.260   9.583   1.602
89236SOL     OW69546  11.579   4.865  12.772
89236SOL    HW169547  11.619   4.949  12.795
89236SOL    HW269548  11.551   4.828  12.855
89237SOL     OW69549   5.888   0.172  14.608
89237SOL    HW169550   5.799   0.181  14.573
89237SOL    HW269551   5.938   0.242  14.567
89238SOL     OW69552   2.001   9.803   7.840
89238SOL    HW169553   1.969   9.876   7.893
89238SOL    HW269554   2.052   9.844   7.770
89239SOL     OW69555   6.753  10.630  13.775
89239SOL    HW169556   6.805  10.555  13.745
89239SOL    HW269557   6.818  10.693  13.807
89240SOL     OW69558  12.285   3.860   3.989
89240SOL    HW169559  12.232   3.780   3.993
89240SOL    HW269560  12.345   3.853   4.063
89241SOL     OW69561  14.134   4.923   4.568
89241SOL    HW169562  14.101   4.890   4.651
89241SOL    HW269563  14.082   4.876   4.502
89242SOL     OW69564   4.366  10.542   8.457
89242SOL    HW169565   4.460  10.539   8.442
89242SOL    HW269566   4.356  10.597   8.535
89243SOL     OW69567  14.070   8.661   2.848
89243SOL    HW169568  14.120   8.731   2.890
89243SOL    HW269569  14.002   8.707   2.798
89244SOL     OW69570   9.467   3.416   7.428
89244SOL    HW169571   9.399   3.480   7.405
89244SOL    HW269572   9.507   3.394   7.344
89245SOL     OW69573   5.654  12.272  10.798
89245SOL    HW169574   5.659  12.187  10.842
89245SOL    HW269575   5.649  12.335  10.870
89246SOL     OW69576   3.447   4.332  12.363
89246SOL    HW169577   3.442   4.376  12.448
89246SOL    HW269578   3.487   4.397  12.305
89247SOL     OW69579   7.549   8.836   9.823
89247SOL    HW169580   7.616   8.867   9.762
89247SOL    HW269581   7.561   8.741   9.826
89248SOL     OW69582   0.411  14.072  11.467
89248SOL    HW169583   0.458  14.126  11.404
89248SOL    HW269584   0.319  14.091  11.451
89249SOL     OW69585   6.250   4.086  14.451
89249SOL    HW169586   6.218   4.128  14.531
89249SOL    HW269587   6.170   4.063  14.404
89250SOL     OW69588   9.725   1.587  11.846
89250SOL    HW169589   9.773   1.588  11.763
89250SOL    HW269590   9.710   1.679  11.867
89251SOL     OW69591   5.568   7.022  12.970
89251SOL    HW169592   5.563   6.996  12.878
89251SOL    HW269593   5.488   6.986  13.009
89252SOL     OW69594   9.499   7.556   6.425
89252SOL    HW169595   9.407   7.577   6.405
89252SOL    HW269596   9.540   7.640   6.442
89253SOL     OW69597  12.475  10.030   1.028
89253SOL    HW169598  12.500  10.120   1.007
89253SOL    HW269599  12.556   9.979   1.019
89254SOL     OW69600   3.389  13.077   8.603
89254SOL    HW169601   3.472  13.122   8.585
89254SOL    HW269602   3.325  13.148   8.608
89255SOL     OW69603   4.243   6.466   7.958
89255SOL    HW169604   4.232   6.560   7.973
89255SOL    HW269605   4.197   6.424   8.030
89256SOL     OW69606   1.903   4.034  14.822
89256SOL    HW169607   1.899   3.978  14.745
89256SOL    HW269608   1.974   3.998  14.875
89257SOL     OW69609  14.079   8.999  14.465
89257SOL    HW169610  14.020   8.983  14.391
89257SOL    HW269611  14.037   9.068  14.515
89258SOL     OW69612   2.591   5.895   7.360
89258SOL    HW169613   2.629   5.812   7.331
89258SOL    HW269614   2.641   5.962   7.313
89259SOL     OW69615  10.604   7.345   8.228
89259SOL    HW169616  10.606   7.266   8.174
89259SOL    HW269617  10.585   7.313   8.316
89260SOL     OW69618   4.548   2.135   7.302
89260SOL    HW169619   4.545   2.128   7.206
89260SOL    HW269620   4.505   2.218   7.322
89261SOL     OW69621  14.427   2.782   4.925
89261SOL    HW169622  14.354   2.767   4.985
89261SOL    HW269623  14.410   2.724   4.851
89262SOL     OW69624   7.348   9.293   1.315
89262SOL    HW169625   7.390   9.274   1.399
89262SOL    HW269626   7.364   9.386   1.300
89263SOL     OW69627   1.774   6.926  11.526
89263SOL    HW169628   1.777   6.835  11.554
89263SOL    HW269629   1.815   6.974  11.598
89264SOL     OW69630  14.038   4.220   0.470
89264SOL    HW169631  13.946   4.220   0.442
89264SOL    HW269632  14.056   4.312   0.490
89265SOL     OW69633   9.472  12.381   6.967
89265SOL    HW169634   9.492  12.305   7.021
89265SOL    HW269635   9.442  12.345   6.883
89266SOL     OW69636   3.678   1.192   0.856
89266SOL    HW169637   3.667   1.212   0.949
89266SOL    HW269638   3.658   1.099   0.850
89267SOL     OW69639   2.275   1.307  13.139
89267SOL    HW169640   2.233   1.301  13.225
89267SOL    HW269641   2.331   1.229  13.134
89268SOL     OW69642   7.274   0.277  14.123
89268SOL    HW169643   7.363   0.271  14.090
89268SOL    HW269644   7.218   0.254  14.049
89269SOL     OW69645   6.307  11.817   2.631
89269SOL    HW169646   6.380  11.827   2.692
89269SOL    HW269647   6.295  11.723   2.622
89270SOL     OW69648   5.570   6.047  10.303
89270SOL    HW169649   5.642   6.090  10.257
89270SOL    HW269650   5.585   6.069  10.395
89271SOL     OW69651   3.820   5.366   4.473
89271SOL    HW169652   3.727   5.345   4.462
89271SOL    HW269653   3.850   5.309   4.544
89272SOL     OW69654   2.441   1.498  10.686
89272SOL    HW169655   2.378   1.555  10.730
89272SOL    HW269656   2.425   1.411  10.725
89273SOL     OW69657   7.948   5.040   0.228
89273SOL    HW169658   7.876   4.985   0.260
89273SOL    HW269659   8.017   4.979   0.204
89274SOL     OW69660   4.459   8.226  12.833
89274SOL    HW169661   4.366   8.206  12.839
89274SOL    HW269662   4.492   8.215  12.922
89275SOL     OW69663   3.858   1.605   2.752
89275SOL    HW169664   3.809   1.572   2.827
89275SOL    HW269665   3.896   1.688   2.782
89276SOL     OW69666   8.628   3.242   7.277
89276SOL    HW169667   8.553   3.183   7.270
89276SOL    HW269668   8.686   3.216   7.205
89277SOL     OW69669  14.179  14.644   9.565
89277SOL    HW169670  14.126  14.706   9.614
89277SOL    HW269671  14.269  14.674   9.577
89278SOL     OW69672   5.195   4.893   2.390
89278SOL    HW169673   5.259   4.945   2.438
89278SOL    HW269674   5.221   4.802   2.405
89279SOL     OW69675  11.512   1.208   9.709
89279SOL    HW169676  11.538   1.122   9.677
89279SOL    HW269677  11.534   1.207   9.802
89280SOL     OW69678   5.336   5.272  11.605
89280SOL    HW169679   5.248   5.305  11.620
89280SOL    HW269680   5.324   5.181  11.578
89281SOL     OW69681   5.280   4.211   8.538
89281SOL    HW169682   5.209   4.264   8.501
89281SOL    HW269683   5.277   4.130   8.487
89282SOL     OW69684   0.804   7.505   8.595
89282SOL    HW169685   0.722   7.553   8.608
89282SOL    HW269686   0.829   7.476   8.683
89283SOL     OW69687   1.916  12.974  11.391
89283SOL    HW169688   1.824  12.990  11.372
89283SOL    HW269689   1.942  13.048  11.446
89284SOL     OW69690  13.316  13.155  13.195
89284SOL    HW169691  13.347  13.097  13.126
89284SOL    HW269692  13.233  13.191  13.161
89285SOL     OW69693  13.160   8.592   2.824
89285SOL    HW169694  13.117   8.538   2.758
89285SOL    HW269695  13.189   8.670   2.776
89286SOL     OW69696  13.286   2.543   2.866
89286SOL    HW169697  13.260   2.635   2.872
89286SOL    HW269698  13.350   2.542   2.795
89287SOL     OW69699   1.540   8.970   3.708
89287SOL    HW169700   1.583   8.896   3.665
89287SOL    HW269701   1.572   9.047   3.661
89288SOL     OW69702   0.635  14.642   4.817
89288SOL    HW169703   0.661  14.651   4.909
89288SOL    HW269704   0.589  14.559   4.813
89289SOL     OW69705   4.419   3.577   8.409
89289SOL    HW169706   4.366   3.596   8.332
89289SOL    HW269707   4.502   3.545   8.374
89290SOL     OW69708  13.773  14.811   8.082
89290SOL    HW169709  13.828  14.790   8.158
89290SOL    HW269710  13.809   0.014   8.049
89291SOL     OW69711  11.283  10.329   2.189
89291SOL    HW169712  11.326  10.414   2.195
89291SOL    HW269713  11.193  10.349   2.164
89292SOL     OW69714   9.909   0.858   7.561
89292SOL    HW169715   9.849   0.789   7.590
89292SOL    HW269716   9.891   0.931   7.620
89293SOL     OW69717   6.128  14.749   8.141
89293SOL    HW169718   6.153  14.691   8.213
89293SOL    HW269719   6.163  14.834   8.166
89294SOL     OW69720   0.442   2.620   3.512
89294SOL    HW169721   0.351   2.595   3.496
89294SOL    HW269722   0.489   2.591   3.434
89295SOL     OW69723   7.249   0.681   4.182
89295SOL    HW169724   7.180   0.643   4.129
89295SOL    HW269725   7.262   0.769   4.146
89296SOL     OW69726  14.284   7.996   5.005
89296SOL    HW169727  14.315   7.942   5.078
89296SOL    HW269728  14.242   8.071   5.047
89297SOL     OW69729  12.647   9.758  13.713
89297SOL    HW169730  12.702   9.835  13.725
89297SOL    HW269731  12.696   9.701  13.654
89298SOL     OW69732   8.097  13.124   3.203
89298SOL    HW169733   8.023  13.165   3.158
89298SOL    HW269734   8.159  13.196   3.217
89299SOL     OW69735  14.824   1.219   2.481
89299SOL    HW169736   0.028   1.266   2.486
89299SOL    HW269737  14.844   1.138   2.435
89300SOL     OW69738   7.303   3.444   3.863
89300SOL    HW169739   7.335   3.517   3.917
89300SOL    HW269740   7.211   3.467   3.845
89301SOL     OW69741   6.695   4.869   5.353
89301SOL    HW169742   6.743   4.795   5.317
89301SOL    HW269743   6.751   4.945   5.333
89302SOL     OW69744   8.929  13.559  14.470
89302SOL    HW169745   8.940  13.654  14.468
89302SOL    HW269746   8.986  13.527  14.400
89303SOL     OW69747   3.955  11.347   1.941
89303SOL    HW169748   3.895  11.327   1.869
89303SOL    HW269749   3.943  11.440   1.957
89304SOL     OW69750   1.461   1.728   6.586
89304SOL    HW169751   1.419   1.646   6.611
89304SOL    HW269752   1.531   1.739   6.650
89305SOL     OW69753  14.304  11.356  10.335
89305SOL    HW169754  14.247  11.344  10.259
89305SOL    HW269755  14.327  11.449  10.333
89306SOL     OW69756  10.555   1.344  12.572
89306SOL    HW169757  10.613   1.271  12.550
89306SOL    HW269758  10.523   1.325  12.660
89307SOL     OW69759  10.091   5.797   1.800
89307SOL    HW169760  10.122   5.747   1.725
89307SOL    HW269761  10.011   5.751   1.828
89308SOL     OW69762   6.889   8.047  11.167
89308SOL    HW169763   6.922   8.112  11.229
89308SOL    HW269764   6.801   8.025  11.199
89309SOL     OW69765   6.591   3.908  14.639
89309SOL    HW169766   6.521   3.859  14.683
89309SOL    HW269767   6.569   3.901  14.546
89310SOL     OW69768  11.976  13.471  12.534
89310SOL    HW169769  12.002  13.381  12.514
89310SOL    HW269770  11.889  13.480  12.494
89311SOL     OW69771  11.226  12.973   5.778
89311SOL    HW169772  11.151  12.966   5.718
89311SOL    HW269773  11.195  12.937   5.860
89312SOL     OW69774  12.396  14.187  14.504
89312SOL    HW169775  12.328  14.134  14.546
89312SOL    HW269776  12.398  14.156  14.414
89313SOL     OW69777  11.785  10.849   7.897
89313SOL    HW169778  11.822  10.858   7.985
89313SOL    HW269779  11.774  10.939   7.865
89314SOL     OW69780   3.494   7.818   5.165
89314SOL    HW169781   3.472   7.796   5.256
89314SOL    HW269782   3.585   7.792   5.156
89315SOL     OW69783  11.033   7.003  14.795
89315SOL    HW169784  11.102   7.066  14.817
89315SOL    HW269785  10.961   7.024  14.855
89316SOL     OW69786  13.674   3.936  11.430
89316SOL    HW169787  13.720   3.865  11.476
89316SOL    HW269788  13.711   3.935  11.342
89317SOL     OW69789  11.764  14.231   7.564
89317SOL    HW169790  11.707  14.155   7.576
89317SOL    HW269791  11.806  14.243   7.650
89318SOL     OW69792   2.137   3.946   0.078
89318SOL    HW169793   2.112   3.999   0.153
89318SOL    HW269794   2.191   4.003   0.024
89319SOL     OW69795   5.622   4.193   5.145
89319SOL    HW169796   5.682   4.263   5.117
89319SOL    HW269797   5.576   4.231   5.221
89320SOL     OW69798   4.640   6.206   7.902
89320SOL    HW169799   4.632   6.164   7.987
89320SOL    HW269800   4.563   6.262   7.895
89321SOL     OW69801  11.456   8.531  12.555
89321SOL    HW169802  11.504   8.580  12.489
89321SOL    HW269803  11.382   8.587  12.578
89322SOL     OW69804   8.566   4.964  13.802
89322SOL    HW169805   8.542   4.882  13.759
89322SOL    HW269806   8.608   4.936  13.884
89323SOL     OW69807   5.369   1.335   8.779
89323SOL    HW169808   5.393   1.337   8.686
89323SOL    HW269809   5.349   1.426   8.800
89324SOL     OW69810   8.781  10.311   0.379
89324SOL    HW169811   8.838  10.377   0.341
89324SOL    HW269812   8.699  10.318   0.330
89325SOL     OW69813   3.348   1.791  11.773
89325SOL    HW169814   3.334   1.748  11.857
89325SOL    HW269815   3.317   1.881  11.786
89326SOL     OW69816   8.196   4.972   1.773
89326SOL    HW169817   8.214   5.044   1.712
89326SOL    HW269818   8.130   4.919   1.729
89327SOL     OW69819  12.595  13.466   7.204
89327SOL    HW169820  12.548  13.508   7.131
89327SOL    HW269821  12.551  13.499   7.282
89328SOL     OW69822   1.820   6.779   4.478
89328SOL    HW169823   1.802   6.804   4.569
89328SOL    HW269824   1.892   6.836   4.451
89329SOL     OW69825   4.290  11.258   4.185
89329SOL    HW169826   4.271  11.240   4.277
89329SOL    HW269827   4.228  11.326   4.161
89330SOL     OW69828   9.040   3.637   8.521
89330SOL    HW169829   9.076   3.554   8.493
89330SOL    HW269830   9.091   3.703   8.473
89331SOL     OW69831   1.543   1.212   5.531
89331SOL    HW169832   1.613   1.149   5.513
89331SOL    HW269833   1.481   1.164   5.586
89332SOL     OW69834   2.301   6.788   5.919
89332SOL    HW169835   2.372   6.795   5.856
89332SOL    HW269836   2.270   6.878   5.930
89333SOL     OW69837  12.007   5.974  11.846
89333SOL    HW169838  12.013   6.047  11.908
89333SOL    HW269839  11.941   6.001  11.782
89334SOL     OW69840   4.283   0.475  13.735
89334SOL    HW169841   4.234   0.548  13.697
89334SOL    HW269842   4.371   0.485  13.700
89335SOL     OW69843  13.003  10.672  11.575
89335SOL    HW169844  12.999  10.686  11.480
89335SOL    HW269845  12.979  10.580  11.586
89336SOL     OW69846   4.658   3.917   0.335
89336SOL    HW169847   4.699   4.003   0.323
89336SOL    HW269848   4.690   3.887   0.420
89337SOL     OW69849   0.515   9.360  11.410
89337SOL    HW169850   0.511   9.288  11.473
89337SOL    HW269851   0.424   9.379  11.388
89338SOL     OW69852   2.756  14.616   9.561
89338SOL    HW169853   2.754  14.707   9.589
89338SOL    HW269854   2.786  14.568   9.638
89339SOL     OW69855  10.049  12.358   6.158
89339SOL    HW169856   9.984  12.426   6.176
89339SOL    HW269857  10.106  12.397   6.092
89340SOL     OW69858   0.630  10.140   6.640
89340SOL    HW169859   0.664  10.230   6.635
89340SOL    HW269860   0.630  10.109   6.550
89341SOL     OW69861  12.870  14.463   8.679
89341SOL    HW169862  12.858  14.432   8.589
89341SOL    HW269863  12.909  14.389   8.725
89342SOL     OW69864   2.275   0.405  13.798
89342SOL    HW169865   2.280   0.310  13.811
89342SOL    HW269866   2.205   0.417  13.733
89343SOL     OW69867   8.835   4.406   2.985
89343SOL    HW169868   8.837   4.311   2.997
89343SOL    HW269869   8.875   4.420   2.899
89344SOL     OW69870  14.286   5.199   5.084
89344SOL    HW169871  14.286   5.130   5.019
89344SOL    HW269872  14.379   5.214   5.103
89345SOL     OW69873   5.235   6.620  12.266
89345SOL    HW169874   5.261   6.700  12.311
89345SOL    HW269875   5.317   6.574  12.250
89346SOL     OW69876   4.997  13.016  13.442
89346SOL    HW169877   4.915  13.063  13.458
89346SOL    HW269878   5.065  13.075  13.476
89347SOL     OW69879  10.898  11.471  10.963
89347SOL    HW169880  10.922  11.562  10.952
89347SOL    HW269881  10.957  11.423  10.904
89348SOL     OW69882   3.223   7.388   3.874
89348SOL    HW169883   3.234   7.294   3.862
89348SOL    HW269884   3.144   7.409   3.824
89349SOL     OW69885   0.640  14.716  11.786
89349SOL    HW169886   0.661  14.766  11.707
89349SOL    HW269887   0.588  14.777  11.839
89350SOL     OW69888  14.116  13.214  12.072
89350SOL    HW169889  14.090  13.305  12.080
89350SOL    HW269890  14.041  13.171  12.031
89351SOL     OW69891   4.374   3.833   0.024
89351SOL    HW169892   4.283   3.829  14.873
89351SOL    HW269893   4.408   3.914  14.865
89352SOL     OW69894   9.254   0.890   3.286
89352SOL    HW169895   9.318   0.880   3.356
89352SOL    HW269896   9.171   0.905   3.331
89353SOL     OW69897  14.134  12.633   1.039
89353SOL    HW169898  14.215  12.585   1.021
89353SOL    HW269899  14.082  12.573   1.093
89354SOL     OW69900  14.174   5.167   2.763
89354SOL    HW169901  14.133   5.248   2.794
89354SOL    HW269902  14.158   5.167   2.669
89355SOL     OW69903   3.633  12.032   8.438
89355SOL    HW169904   3.645  11.981   8.358
89355SOL    HW269905   3.566  12.097   8.416
89356SOL     OW69906  11.320   5.456   3.159
89356SOL    HW169907  11.276   5.444   3.074
89356SOL    HW269908  11.312   5.550   3.176
89357SOL     OW69909   8.523   5.697   8.168
89357SOL    HW169910   8.539   5.750   8.090
89357SOL    HW269911   8.552   5.609   8.143
89358SOL     OW69912   0.085   7.389  10.480
89358SOL    HW169913   0.066   7.481  10.495
89358SOL    HW269914   0.005   7.343  10.505
89359SOL     OW69915   9.672   8.776   6.834
89359SOL    HW169916   9.608   8.711   6.864
89359SOL    HW269917   9.663   8.849   6.895
89360SOL     OW69918   6.978   6.154   7.992
89360SOL    HW169919   6.997   6.191   7.906
89360SOL    HW269920   7.014   6.065   7.989
89361SOL     OW69921   3.553   2.799   7.481
89361SOL    HW169922   3.489   2.860   7.445
89361SOL    HW269923   3.501   2.733   7.527
89362SOL     OW69924  10.000  11.196   2.311
89362SOL    HW169925   9.977  11.250   2.236
89362SOL    HW269926   9.949  11.116   2.300
89363SOL     OW69927   0.912   8.905   8.449
89363SOL    HW169928   0.923   8.813   8.476
89363SOL    HW269929   0.954   8.955   8.518
89364SOL     OW69930   3.789  14.019   6.807
89364SOL    HW169931   3.781  14.057   6.895
89364SOL    HW269932   3.814  13.928   6.823
89365SOL     OW69933   9.162   2.094  10.785
89365SOL    HW169934   9.148   2.188  10.788
89365SOL    HW269935   9.214   2.080  10.706
89366SOL     OW69936   3.847   5.670  12.768
89366SOL    HW169937   3.799   5.687  12.849
89366SOL    HW269938   3.887   5.754  12.745
89367SOL     OW69939   1.819  12.989  13.508
89367SOL    HW169940   1.732  12.976  13.471
89367SOL    HW269941   1.859  13.057  13.453
89368SOL     OW69942  10.802  10.271   9.405
89368SOL    HW169943  10.806  10.303   9.495
89368SOL    HW269944  10.756  10.188   9.411
89369SOL     OW69945   2.289   2.352   3.110
89369SOL    HW169946   2.278   2.257   3.115
89369SOL    HW269947   2.245   2.377   3.029
89370SOL     OW69948   8.409   3.228   5.980
89370SOL    HW169949   8.378   3.138   5.975
89370SOL    HW269950   8.419   3.245   6.074
89371SOL     OW69951  12.156   8.028  14.039
89371SOL    HW169952  12.061   8.042  14.045
89371SOL    HW269953  12.181   8.073  13.958
89372SOL     OW69954   9.799   6.975  13.291
89372SOL    HW169955   9.797   6.905  13.356
89372SOL    HW269956   9.740   6.945  13.222
89373SOL     OW69957   4.507  11.444  11.701
89373SOL    HW169958   4.472  11.357  11.723
89373SOL    HW269959   4.537  11.480  11.784
89374SOL     OW69960   3.693  11.298   1.846
89374SOL    HW169961   3.607  11.309   1.806
89374SOL    HW269962   3.718  11.208   1.824
89375SOL     OW69963   1.941   0.742   6.850
89375SOL    HW169964   1.967   0.833   6.860
89375SOL    HW269965   1.877   0.727   6.920
89376SOL     OW69966  14.597  11.253   7.528
89376SOL    HW169967  14.539  11.191   7.484
89376SOL    HW269968  14.629  11.205   7.605
89377SOL     OW69969   3.845  14.593   0.187
89377SOL    HW169970   3.856  14.672   0.241
89377SOL    HW269971   3.819  14.627   0.101
89378SOL     OW69972  14.407   6.775  12.974
89378SOL    HW169973  14.408   6.687  12.935
89378SOL    HW269974  14.452   6.764  13.058
89379SOL     OW69975   3.419   1.495   5.735
89379SOL    HW169976   3.501   1.447   5.747
89379SOL    HW269977   3.352   1.428   5.723
89380SOL     OW69978   0.935  12.240   2.347
89380SOL    HW169979   0.997  12.283   2.288
89380SOL    HW269980   0.896  12.312   2.397
89381SOL     OW69981   7.394  14.397   9.738
89381SOL    HW169982   7.440  14.467   9.783
89381SOL    HW269983   7.342  14.442   9.671
89382SOL     OW69984  13.107   9.042  13.433
89382SOL    HW169985  13.014   9.060  13.446
89382SOL    HW269986  13.151   9.096  13.500
89383SOL     OW69987   8.437   7.510   5.041
89383SOL    HW169988   8.402   7.439   5.094
89383SOL    HW269989   8.441   7.475   4.952
89384SOL     OW69990  13.989   3.069   3.227
89384SOL    HW169991  14.025   3.091   3.313
89384SOL    HW269992  14.063   3.083   3.167
89385SOL     OW69993  10.657   6.617   6.494
89385SOL    HW169994  10.688   6.580   6.577
89385SOL    HW269995  10.678   6.549   6.429
89386SOL     OW69996   2.439   4.752  12.382
89386SOL    HW169997   2.381   4.713  12.447
89386SOL    HW269998   2.522   4.765  12.428
89387SOL     OW69999  10.551   7.716   9.207
89387SOL    HW170000  10.464   7.755   9.220
89387SOL    HW270001  10.533   7.629   9.171
89388SOL     OW70002  10.463  13.278  10.238
89388SOL    HW170003  10.461  13.287  10.143
89388SOL    HW270004  10.556  13.278  10.260
89389SOL     OW70005   3.338  13.601   0.806
89389SOL    HW170006   3.249  13.619   0.838
89389SOL    HW270007   3.347  13.657   0.729
89390SOL     OW70008   6.897  12.429   8.716
89390SOL    HW170009   6.877  12.512   8.760
89390SOL    HW270010   6.874  12.445   8.624
89391SOL     OW70011  13.941   8.431  12.461
89391SOL    HW170012  13.996   8.503  12.493
89391SOL    HW270013  13.865   8.430  12.520
89392SOL     OW70014  14.501   8.943   7.940
89392SOL    HW170015  14.581   8.960   7.891
89392SOL    HW270016  14.505   8.850   7.962
89393SOL     OW70017  10.677  10.282  12.937
89393SOL    HW170018  10.590  10.318  12.956
89393SOL    HW270019  10.681  10.202  12.989
89394SOL     OW70020  10.334  10.044  14.746
89394SOL    HW170021  10.279   9.988  14.690
89394SOL    HW270022  10.301  10.030  14.834
89395SOL     OW70023   0.526  12.537   5.919
89395SOL    HW170024   0.597  12.599   5.903
89395SOL    HW270025   0.475  12.575   5.990
89396SOL     OW70026   8.109  10.025   6.787
89396SOL    HW170027   8.183  10.074   6.751
89396SOL    HW270028   8.037  10.088   6.789
89397SOL     OW70029  11.470   2.493   0.735
89397SOL    HW170030  11.559   2.528   0.746
89397SOL    HW270031  11.463   2.476   0.641
89398SOL     OW70032   1.283  12.972  11.093
89398SOL    HW170033   1.345  12.987  11.022
89398SOL    HW270034   1.248  12.884  11.076
89399SOL     OW70035   1.501   9.608   5.904
89399SOL    HW170036   1.492   9.663   5.827
89399SOL    HW270037   1.590   9.572   5.897
89400SOL     OW70038   9.528   8.581  11.046
89400SOL    HW170039   9.484   8.498  11.026
89400SOL    HW270040   9.457   8.640  11.073
89401SOL     OW70041  14.020  12.481   3.513
89401SOL    HW170042  13.934  12.460   3.476
89401SOL    HW270043  14.082  12.455   3.445
89402SOL     OW70044   3.190  14.667  14.424
89402SOL    HW170045   3.231  14.590  14.463
89402SOL    HW270046   3.104  14.672  14.466
89403SOL     OW70047  14.412   0.087   2.365
89403SOL    HW170048  14.492   0.036   2.374
89403SOL    HW270049  14.377   0.094   2.453
89404SOL     OW70050  12.282   0.379  11.768
89404SOL    HW170051  12.303   0.471  11.755
89404SOL    HW270052  12.251   0.374  11.859
89405SOL     OW70053  12.506  11.384   3.286
89405SOL    HW170054  12.455  11.305   3.266
89405SOL    HW270055  12.523  11.423   3.200
89406SOL     OW70056  11.313  10.187  12.564
89406SOL    HW170057  11.267  10.139  12.495
89406SOL    HW270058  11.366  10.121  12.608
89407SOL     OW70059  11.398   7.054  14.750
89407SOL    HW170060  11.435   7.124  14.804
89407SOL    HW270061  11.416   6.973  14.798
89408SOL     OW70062   2.281   8.831  13.231
89408SOL    HW170063   2.246   8.831  13.142
89408SOL    HW270064   2.210   8.797  13.285
89409SOL     OW70065   6.207  10.601   3.949
89409SOL    HW170066   6.221  10.598   4.043
89409SOL    HW270067   6.286  10.562   3.911
89410SOL     OW70068  10.103  10.289   6.245
89410SOL    HW170069  10.138  10.203   6.268
89410SOL    HW270070  10.179  10.345   6.238
89411SOL     OW70071   1.747   1.419  12.525
89411SOL    HW170072   1.823   1.369  12.495
89411SOL    HW270073   1.691   1.354  12.569
89412SOL     OW70074   5.085   8.700   5.355
89412SOL    HW170075   5.160   8.757   5.371
89412SOL    HW270076   5.115   8.638   5.288
89413SOL     OW70077   8.182   6.439   4.819
89413SOL    HW170078   8.200   6.444   4.725
89413SOL    HW270079   8.163   6.530   4.844
89414SOL     OW70080  13.995  13.757   0.069
89414SOL    HW170081  14.060  13.716   0.012
89414SOL    HW270082  14.042  13.829   0.110
89415SOL     OW70083   3.510  12.811   9.184
89415SOL    HW170084   3.461  12.729   9.181
89415SOL    HW270085   3.461  12.870   9.126
89416SOL     OW70086  13.084   5.898   9.462
89416SOL    HW170087  13.016   5.844   9.422
89416SOL    HW270088  13.049   5.922   9.548
89417SOL     OW70089  10.327  13.086  13.475
89417SOL    HW170090  10.261  13.063  13.540
89417SOL    HW270091  10.283  13.147  13.416
89418SOL     OW70092   2.326   4.837  10.856
89418SOL    HW170093   2.278   4.779  10.916
89418SOL    HW270094   2.294   4.925  10.876
89419SOL     OW70095   2.772   7.086   8.225
89419SOL    HW170096   2.807   7.152   8.284
89419SOL    HW270097   2.774   7.005   8.275
89420SOL     OW70098  13.590  10.188   0.076
89420SOL    HW170099  13.506  10.230   0.060
89420SOL    HW270100  13.594  10.178   0.171
89421SOL     OW70101   5.687   8.698   1.209
89421SOL    HW170102   5.711   8.606   1.201
89421SOL    HW270103   5.650   8.705   1.297
89422SOL     OW70104  11.952   9.329   6.993
89422SOL    HW170105  11.936   9.337   6.899
89422SOL    HW270106  12.048   9.330   7.001
89423SOL     OW70107   0.943   0.031   1.072
89423SOL    HW170108   0.927   0.036   0.978
89423SOL    HW270109   1.035   0.053   1.083
89424SOL     OW70110   1.350   2.055   5.364
89424SOL    HW170111   1.263   2.024   5.387
89424SOL    HW270112   1.405   2.035   5.440
89425SOL     OW70113  10.274  12.046   6.031
89425SOL    HW170114  10.230  12.087   5.957
89425SOL    HW270115  10.219  11.970   6.052
89426SOL     OW70116   5.335   8.376  13.290
89426SOL    HW170117   5.262   8.352  13.233
89426SOL    HW270118   5.311   8.340  13.376
89427SOL     OW70119   1.443   0.652   9.283
89427SOL    HW170120   1.392   0.731   9.299
89427SOL    HW270121   1.492   0.671   9.203
89428SOL     OW70122   0.468   1.547  12.110
89428SOL    HW170123   0.427   1.529  12.195
89428SOL    HW270124   0.419   1.493  12.048
89429SOL     OW70125   5.376  11.207   1.030
89429SOL    HW170126   5.400  11.115   1.040
89429SOL    HW270127   5.322  11.209   0.950
89430SOL     OW70128   2.372   4.302   3.187
89430SOL    HW170129   2.285   4.334   3.163
89430SOL    HW270130   2.389   4.231   3.124
89431SOL     OW70131   6.402   6.897   7.816
89431SOL    HW170132   6.491   6.870   7.791
89431SOL    HW270133   6.346   6.830   7.777
89432SOL     OW70134   4.702   6.784  13.554
89432SOL    HW170135   4.610   6.802  13.574
89432SOL    HW270136   4.732   6.728  13.626
89433SOL     OW70137  10.702   0.307   3.011
89433SOL    HW170138  10.660   0.273   2.932
89433SOL    HW270139  10.632   0.351   3.058
89434SOL     OW70140   9.398  12.687   9.908
89434SOL    HW170141   9.384  12.742   9.831
89434SOL    HW270142   9.489  12.660   9.901
89435SOL     OW70143  12.262   9.028   5.695
89435SOL    HW170144  12.231   9.065   5.777
89435SOL    HW270145  12.208   9.070   5.628
89436SOL     OW70146   1.665   2.458   0.090
89436SOL    HW170147   1.725   2.522   0.052
89436SOL    HW270148   1.686   2.375   0.047
89437SOL     OW70149   1.050   6.775  12.821
89437SOL    HW170150   1.026   6.795  12.730
89437SOL    HW270151   1.071   6.861  12.859
89438SOL     OW70152   0.154   3.069  11.420
89438SOL    HW170153   0.075   3.050  11.471
89438SOL    HW270154   0.196   3.141  11.466
89439SOL     OW70155   0.824   8.755   4.550
89439SOL    HW170156   0.845   8.843   4.519
89439SOL    HW270157   0.728   8.753   4.553
89440SOL     OW70158   7.470   1.720   3.527
89440SOL    HW170159   7.486   1.626   3.529
89440SOL    HW270160   7.392   1.730   3.473
89441SOL     OW70161   5.422  12.027   8.179
89441SOL    HW170162   5.371  12.031   8.098
89441SOL    HW270163   5.478  11.950   8.167
89442SOL     OW70164   2.174   7.156   3.213
89442SOL    HW170165   2.093   7.106   3.225
89442SOL    HW270166   2.145   7.248   3.212
89443SOL     OW70167   3.322   2.683   2.060
89443SOL    HW170168   3.413   2.674   2.087
89443SOL    HW270169   3.304   2.605   2.008
89444SOL     OW70170   5.923   7.131   0.302
89444SOL    HW170171   5.851   7.095   0.355
89444SOL    HW270172   5.951   7.209   0.349
89445SOL     OW70173  10.430   1.328   8.740
89445SOL    HW170174  10.336   1.345   8.741
89445SOL    HW270175  10.451   1.302   8.830
89446SOL     OW70176   4.910   3.791  12.569
89446SOL    HW170177   4.946   3.759  12.486
89446SOL    HW270178   4.985   3.795  12.628
89447SOL     OW70179   6.841   7.768   6.723
89447SOL    HW170180   6.828   7.846   6.778
89447SOL    HW270181   6.789   7.785   6.644
89448SOL     OW70182   6.120  14.829  12.303
89448SOL    HW170183   6.176  14.825  12.381
89448SOL    HW270184   6.113  14.739  12.273
89449SOL     OW70185   0.383   4.103   9.165
89449SOL    HW170186   0.411   4.018   9.130
89449SOL    HW270187   0.321   4.081   9.235
89450SOL     OW70188  13.045   3.881   3.796
89450SOL    HW170189  13.009   3.844   3.876
89450SOL    HW270190  12.990   3.957   3.777
89451SOL     OW70191   2.511   7.106   3.683
89451SOL    HW170192   2.444   7.079   3.620
89451SOL    HW270193   2.508   7.039   3.751
89452SOL     OW70194   2.916   0.876   3.925
89452SOL    HW170195   2.968   0.818   3.870
89452SOL    HW270196   2.887   0.946   3.866
89453SOL     OW70197  12.507   7.159   1.240
89453SOL    HW170198  12.541   7.209   1.166
89453SOL    HW270199  12.415   7.187   1.247
89454SOL     OW70200   4.076   5.334  10.060
89454SOL    HW170201   4.060   5.245  10.092
89454SOL    HW270202   4.006   5.350   9.997
89455SOL     OW70203   8.410  12.685  11.930
89455SOL    HW170204   8.477  12.667  11.996
89455SOL    HW270205   8.350  12.610  11.934
89456SOL     OW70206   1.298  10.031   6.508
89456SOL    HW170207   1.298  10.039   6.413
89456SOL    HW270208   1.314  10.120   6.540
89457SOL     OW70209   6.775   3.664   8.295
89457SOL    HW170210   6.804   3.633   8.209
89457SOL    HW270211   6.856   3.686   8.341
89458SOL     OW70212   1.808  12.772   5.910
89458SOL    HW170213   1.890  12.734   5.940
89458SOL    HW270214   1.791  12.845   5.969
89459SOL     OW70215  14.803   6.318  12.766
89459SOL    HW170216  14.791   6.228  12.796
89459SOL    HW270217   0.013   6.340  12.791
89460SOL     OW70218   7.068   3.812   0.037
89460SOL    HW170219   7.016   3.841   0.112
89460SOL    HW270220   7.159   3.823   0.065
89461SOL     OW70221  10.028  10.898   3.576
89461SOL    HW170222  10.067  10.906   3.488
89461SOL    HW270223   9.997  10.808   3.580
89462SOL     OW70224   6.309  13.645   2.833
89462SOL    HW170225   6.253  13.641   2.910
89462SOL    HW270226   6.346  13.557   2.825
89463SOL     OW70227  13.356  12.566   6.569
89463SOL    HW170228  13.444  12.537   6.542
89463SOL    HW270229  13.360  12.662   6.565
89464SOL     OW70230   7.284  10.161  10.532
89464SOL    HW170231   7.274  10.158  10.437
89464SOL    HW270232   7.375  10.137  10.548
89465SOL     OW70233   6.789   6.110  11.990
89465SOL    HW170234   6.771   6.115  12.084
89465SOL    HW270235   6.704   6.093  11.950
89466SOL     OW70236   8.571  11.972   3.716
89466SOL    HW170237   8.551  12.049   3.662
89466SOL    HW270238   8.666  11.975   3.729
89467SOL     OW70239   9.873   8.233   4.164
89467SOL    HW170240   9.872   8.327   4.183
89467SOL    HW270241   9.850   8.191   4.246
89468SOL     OW70242   9.622  13.940   3.521
89468SOL    HW170243   9.581  13.928   3.607
89468SOL    HW270244   9.556  13.909   3.459
89469SOL     OW70245   4.207   2.045   8.834
89469SOL    HW170246   4.191   2.138   8.816
89469SOL    HW270247   4.168   2.030   8.920
89470SOL     OW70248  13.128   3.730  14.030
89470SOL    HW170249  13.158   3.779  14.107
89470SOL    HW270250  13.117   3.641  14.061
89471SOL     OW70251   8.382   5.205   0.975
89471SOL    HW170252   8.443   5.168   0.911
89471SOL    HW270253   8.310   5.240   0.923
89472SOL     OW70254   0.931   5.162   2.890
89472SOL    HW170255   0.847   5.179   2.849
89472SOL    HW270256   0.970   5.092   2.836
89473SOL     OW70257   0.223   7.372   8.136
89473SOL    HW170258   0.215   7.293   8.189
89473SOL    HW270259   0.316   7.376   8.114
89474SOL     OW70260   1.893   5.290   3.807
89474SOL    HW170261   1.816   5.346   3.795
89474SOL    HW270262   1.964   5.350   3.829
89475SOL     OW70263   3.401  10.282  14.262
89475SOL    HW170264   3.473  10.334  14.299
89475SOL    HW270265   3.378  10.221  14.332
89476SOL     OW70266   4.160   2.806   1.505
89476SOL    HW170267   4.232   2.782   1.564
89476SOL    HW270268   4.082   2.767   1.546
89477SOL     OW70269  12.210   1.845  11.504
89477SOL    HW170270  12.151   1.794  11.558
89477SOL    HW270271  12.171   1.844  11.417
89478SOL     OW70272   3.318   8.365  14.383
89478SOL    HW170273   3.349   8.444  14.426
89478SOL    HW270274   3.398   8.315  14.364
89479SOL     OW70275   5.055  11.796   0.069
89479SOL    HW170276   5.079  11.876   0.116
89479SOL    HW270277   5.111  11.796  14.871
89480SOL     OW70278   8.091   6.366   9.851
89480SOL    HW170279   8.125   6.277   9.842
89480SOL    HW270280   8.074   6.395   9.761
89481SOL     OW70281   3.544  13.033  13.028
89481SOL    HW170282   3.638  13.036  13.049
89481SOL    HW270283   3.540  13.000  12.938
89482SOL     OW70284   1.381   0.225   4.689
89482SOL    HW170285   1.342   0.141   4.713
89482SOL    HW270286   1.476   0.211   4.698
89483SOL     OW70287   8.563  12.631  11.681
89483SOL    HW170288   8.502  12.655  11.611
89483SOL    HW270289   8.511  12.635  11.761
89484SOL     OW70290  13.081   4.745   7.289
89484SOL    HW170291  12.993   4.728   7.256
89484SOL    HW270292  13.113   4.817   7.235
89485SOL     OW70293   2.270  11.528   9.780
89485SOL    HW170294   2.280  11.500   9.871
89485SOL    HW270295   2.352  11.571   9.758
89486SOL     OW70296   5.786   7.319   9.026
89486SOL    HW170297   5.803   7.403   8.983
89486SOL    HW270298   5.828   7.254   8.971
89487SOL     OW70299   7.056   7.228   6.401
89487SOL    HW170300   7.149   7.207   6.385
89487SOL    HW270301   7.026   7.268   6.319
89488SOL     OW70302   2.137  10.551  10.065
89488SOL    HW170303   2.227  10.567  10.091
89488SOL    HW270304   2.091  10.633  10.087
89489SOL     OW70305   7.017   0.597   6.393
89489SOL    HW170306   7.057   0.642   6.468
89489SOL    HW270307   7.086   0.540   6.360
89490SOL     OW70308  11.884  13.492   8.078
89490SOL    HW170309  11.886  13.587   8.086
89490SOL    HW270310  11.976  13.467   8.070
89491SOL     OW70311  12.638  10.485   3.609
89491SOL    HW170312  12.703  10.432   3.655
89491SOL    HW270313  12.680  10.570   3.597
89492SOL     OW70314   5.268   6.703   7.786
89492SOL    HW170315   5.223   6.667   7.862
89492SOL    HW270316   5.344   6.646   7.774
89493SOL     OW70317   9.752   7.402  13.055
89493SOL    HW170318   9.716   7.348  13.126
89493SOL    HW270319   9.792   7.477  13.100
89494SOL     OW70320  11.292   4.581  12.590
89494SOL    HW170321  11.383   4.591  12.562
89494SOL    HW270322  11.255   4.517  12.530
89495SOL     OW70323  11.995   6.490  13.775
89495SOL    HW170324  12.003   6.484  13.870
89495SOL    HW270325  11.920   6.433  13.754
89496SOL     OW70326   8.092  14.689  14.051
89496SOL    HW170327   8.148  14.612  14.047
89496SOL    HW270328   8.101  14.729  13.964
89497SOL     OW70329   4.040   8.305   4.729
89497SOL    HW170330   4.085   8.388   4.745
89497SOL    HW270331   4.017   8.309   4.636
89498SOL     OW70332  11.703  12.587  11.096
89498SOL    HW170333  11.751  12.511  11.063
89498SOL    HW270334  11.639  12.606  11.028
89499SOL     OW70335   9.851   4.356   9.997
89499SOL    HW170336   9.778   4.323  10.049
89499SOL    HW270337   9.888   4.427  10.051
89500SOL     OW70338   8.170   3.552   6.908
89500SOL    HW170339   8.219   3.593   6.980
89500SOL    HW270340   8.098   3.506   6.950
89501SOL     OW70341   1.863  12.666  14.786
89501SOL    HW170342   1.796  12.732  14.767
89501SOL    HW270343   1.944  12.716  14.796
89502SOL     OW70344   1.894  10.892  10.425
89502SOL    HW170345   1.894  10.797  10.437
89502SOL    HW270346   1.971  10.923  10.472
89503SOL     OW70347  11.557  11.796  12.272
89503SOL    HW170348  11.474  11.752  12.291
89503SOL    HW270349  11.545  11.885  12.305
89504SOL     OW70350   9.057  14.546   5.708
89504SOL    HW170351   9.063  14.486   5.634
89504SOL    HW270352   9.052  14.488   5.785
89505SOL     OW70353  10.424   2.822   6.758
89505SOL    HW170354  10.425   2.752   6.693
89505SOL    HW270355  10.406   2.901   6.707
89506SOL     OW70356  10.104   7.123   5.267
89506SOL    HW170357  10.010   7.106   5.276
89506SOL    HW270358  10.143   7.036   5.258
89507SOL     OW70359   1.685   0.652   7.598
89507SOL    HW170360   1.731   0.570   7.582
89507SOL    HW270361   1.635   0.668   7.518
89508SOL     OW70362   9.263   6.753  10.514
89508SOL    HW170363   9.186   6.767  10.460
89508SOL    HW270364   9.293   6.841  10.537
89509SOL     OW70365   5.308   5.918  13.527
89509SOL    HW170366   5.220   5.952  13.545
89509SOL    HW270367   5.366   5.974  13.580
89510SOL     OW70368   2.667   9.888   8.882
89510SOL    HW170369   2.695   9.943   8.956
89510SOL    HW270370   2.584   9.849   8.912
89511SOL     OW70371   9.241   5.012   4.635
89511SOL    HW170372   9.192   5.086   4.601
89511SOL    HW270373   9.197   4.987   4.716
89512SOL     OW70374  11.139   9.113  11.309
89512SOL    HW170375  11.075   9.184  11.311
89512SOL    HW270376  11.112   9.054  11.379
89513SOL     OW70377  10.492   0.540  11.713
89513SOL    HW170378  10.547   0.462  11.725
89513SOL    HW270379  10.426   0.513  11.649
89514SOL     OW70380   3.725  14.496   7.454
89514SOL    HW170381   3.639  14.497   7.412
89514SOL    HW270382   3.772  14.425   7.411
89515SOL     OW70383   1.635  13.688   9.404
89515SOL    HW170384   1.674  13.754   9.347
89515SOL    HW270385   1.708  13.655   9.456
89516SOL     OW70386   2.494   2.834   5.509
89516SOL    HW170387   2.558   2.893   5.469
89516SOL    HW270388   2.410   2.868   5.479
89517SOL     OW70389   9.514   1.129   1.158
89517SOL    HW170390   9.533   1.219   1.185
89517SOL    HW270391   9.461   1.094   1.230
89518SOL     OW70392  13.141  12.331   5.606
89518SOL    HW170393  13.200  12.291   5.541
89518SOL    HW270394  13.076  12.263   5.623
89519SOL     OW70395   3.728   6.030   6.712
89519SOL    HW170396   3.725   6.058   6.804
89519SOL    HW270397   3.789   5.956   6.711
89520SOL     OW70398   1.326  13.871  12.249
89520SOL    HW170399   1.260  13.930  12.211
89520SOL    HW270400   1.397  13.872  12.185
89521SOL     OW70401   0.191   7.814   4.146
89521SOL    HW170402   0.133   7.769   4.086
89521SOL    HW270403   0.223   7.890   4.096
89522SOL     OW70404  11.240  11.720   6.904
89522SOL    HW170405  11.268  11.662   6.975
89522SOL    HW270406  11.312  11.716   6.841
89523SOL     OW70407   9.954   8.611  12.179
89523SOL    HW170408   9.880   8.609  12.241
89523SOL    HW270409  10.007   8.535  12.204
89524SOL     OW70410   1.594   9.695   7.116
89524SOL    HW170411   1.504   9.660   7.114
89524SOL    HW270412   1.630   9.662   7.199
89525SOL     OW70413  10.687  13.115   1.012
89525SOL    HW170414  10.721  13.202   0.990
89525SOL    HW270415  10.713  13.101   1.103
89526SOL     OW70416   3.141   3.142   7.205
89526SOL    HW170417   3.109   3.213   7.260
89526SOL    HW270418   3.066   3.116   7.152
89527SOL     OW70419  14.283   5.963   5.739
89527SOL    HW170420  14.377   5.948   5.746
89527SOL    HW270421  14.264   6.028   5.806
89528SOL     OW70422   7.941   7.172   8.605
89528SOL    HW170423   7.961   7.184   8.698
89528SOL    HW270424   7.974   7.252   8.564
89529SOL     OW70425  11.723   7.675   7.850
89529SOL    HW170426  11.642   7.696   7.897
89529SOL    HW270427  11.694   7.627   7.772
89530SOL     OW70428  11.112   2.739   1.049
89530SOL    HW170429  11.118   2.652   1.009
89530SOL    HW270430  11.022   2.745   1.079
89531SOL     OW70431  10.980   0.067   6.327
89531SOL    HW170432  11.069   0.037   6.345
89531SOL    HW270433  10.975   0.152   6.369
89532SOL     OW70434  10.109  11.873  13.899
89532SOL    HW170435  10.143  11.881  13.810
89532SOL    HW270436  10.015  11.887  13.890
89533SOL     OW70437   7.846  10.559   0.417
89533SOL    HW170438   7.888  10.559   0.331
89533SOL    HW270439   7.822  10.468   0.433
89534SOL     OW70440   5.654   0.070  13.149
89534SOL    HW170441   5.612   0.027  13.223
89534SOL    HW270442   5.671   0.159  13.179
89535SOL     OW70443  12.900   9.906   0.494
89535SOL    HW170444  12.859   9.921   0.579
89535SOL    HW270445  12.827   9.890   0.435
89536SOL     OW70446  12.559   2.802   4.964
89536SOL    HW170447  12.480   2.748   4.970
89536SOL    HW270448  12.618   2.765   5.029
89537SOL     OW70449   3.559  12.208   3.514
89537SOL    HW170450   3.567  12.153   3.591
89537SOL    HW270451   3.551  12.297   3.549
89538SOL     OW70452   1.310  13.119   3.751
89538SOL    HW170453   1.299  13.162   3.836
89538SOL    HW270454   1.221  13.094   3.724
89539SOL     OW70455   6.939   0.181  14.108
89539SOL    HW170456   6.939   0.246  14.178
89539SOL    HW270457   6.879   0.217  14.043
89540SOL     OW70458   8.956  11.679   7.231
89540SOL    HW170459   8.866  11.685   7.199
89540SOL    HW270460   9.008  11.720   7.162
89541SOL     OW70461   9.536   2.186  13.423
89541SOL    HW170462   9.524   2.188  13.328
89541SOL    HW270463   9.584   2.266  13.443
89542SOL     OW70464   3.214   6.205   9.905
89542SOL    HW170465   3.245   6.287   9.942
89542SOL    HW270466   3.185   6.154   9.981
89543SOL     OW70467  10.731   6.082   7.868
89543SOL    HW170468  10.709   6.089   7.961
89543SOL    HW270469  10.703   6.165   7.830
89544SOL     OW70470   7.734  12.884   1.766
89544SOL    HW170471   7.694  12.970   1.749
89544SOL    HW270472   7.734  12.877   1.862
89545SOL     OW70473   5.100   1.305  10.438
89545SOL    HW170474   5.131   1.337  10.353
89545SOL    HW270475   5.081   1.385  10.487
89546SOL     OW70476   9.988   8.255   2.914
89546SOL    HW170477  10.080   8.258   2.941
89546SOL    HW270478   9.990   8.211   2.829
89547SOL     OW70479  14.054   9.914  12.772
89547SOL    HW170480  14.104   9.838  12.804
89547SOL    HW270481  13.994   9.877  12.708
89548SOL     OW70482  12.256  12.956   3.603
89548SOL    HW170483  12.330  12.910   3.562
89548SOL    HW270484  12.265  13.047   3.572
89549SOL     OW70485   5.456  14.176   2.096
89549SOL    HW170486   5.510  14.122   2.040
89549SOL    HW270487   5.509  14.254   2.114
89550SOL     OW70488  13.670   7.012   4.091
89550SOL    HW170489  13.662   7.108   4.094
89550SOL    HW270490  13.730   6.991   4.162
89551SOL     OW70491  13.601   8.338   0.070
89551SOL    HW170492  13.641   8.410   0.120
89551SOL    HW270493  13.565   8.280   0.137
89552SOL     OW70494   7.378  11.846   5.692
89552SOL    HW170495   7.343  11.925   5.651
89552SOL    HW270496   7.454  11.876   5.743
89553SOL     OW70497   1.921   0.560   8.826
89553SOL    HW170498   1.901   0.653   8.830
89553SOL    HW270499   1.872   0.521   8.899
89554SOL     OW70500   2.444  12.607  11.356
89554SOL    HW170501   2.431  12.587  11.449
89554SOL    HW270502   2.477  12.697  11.356
89555SOL     OW70503  10.263   6.771   6.237
89555SOL    HW170504  10.183   6.720   6.245
89555SOL    HW270505  10.237   6.861   6.257
89556SOL     OW70506   0.925   3.333  13.556
89556SOL    HW170507   0.843   3.318  13.509
89556SOL    HW270508   0.975   3.252  13.543
89557SOL     OW70509   1.005  10.443  10.857
89557SOL    HW170510   0.968  10.368  10.809
89557SOL    HW270511   0.988  10.424  10.949
89558SOL     OW70512   7.925  10.769  13.138
89558SOL    HW170513   7.889  10.851  13.105
89558SOL    HW270514   7.933  10.713  13.060
89559SOL     OW70515  14.464  12.840  13.675
89559SOL    HW170516  14.382  12.860  13.629
89559SOL    HW270517  14.480  12.917  13.730
89560SOL     OW70518   0.945  11.868   2.601
89560SOL    HW170519   0.979  11.882   2.513
89560SOL    HW270520   0.850  11.874   2.591
89561SOL     OW70521   8.879   7.392  10.205
89561SOL    HW170522   8.865   7.481  10.238
89561SOL    HW270523   8.802   7.374  10.151
89562SOL     OW70524   2.945  14.872   2.622
89562SOL    HW170525   3.015  14.842   2.680
89562SOL    HW270526   2.916   0.076   2.660
89563SOL     OW70527   6.531   3.486   2.953
89563SOL    HW170528   6.569   3.420   2.895
89563SOL    HW270529   6.450   3.511   2.909
89564SOL     OW70530   9.974   7.227   0.603
89564SOL    HW170531  10.004   7.200   0.690
89564SOL    HW270532   9.982   7.322   0.604
89565SOL     OW70533   5.685   2.049  11.050
89565SOL    HW170534   5.619   1.981  11.064
89565SOL    HW270535   5.696   2.054  10.955
89566SOL     OW70536   1.322   3.424   7.276
89566SOL    HW170537   1.289   3.449   7.190
89566SOL    HW270538   1.416   3.441   7.271
89567SOL     OW70539  10.547   5.553   0.931
89567SOL    HW170540  10.600   5.622   0.971
89567SOL    HW270541  10.457   5.575   0.953
89568SOL     OW70542   2.501  13.666   9.956
89568SOL    HW170543   2.582  13.718   9.955
89568SOL    HW270544   2.525  13.586  10.002
89569SOL     OW70545   2.873  14.260   9.493
89569SOL    HW170546   2.861  14.324   9.563
89569SOL    HW270547   2.842  14.304   9.414
89570SOL     OW70548  11.638  13.239  11.721
89570SOL    HW170549  11.720  13.284  11.738
89570SOL    HW270550  11.650  13.151  11.755
89571SOL     OW70551   8.695   3.504  10.307
89571SOL    HW170552   8.790   3.498  10.292
89571SOL    HW270553   8.672   3.592  10.275
89572SOL     OW70554  10.825   3.876   2.647
89572SOL    HW170555  10.847   3.829   2.566
89572SOL    HW270556  10.898   3.936   2.661
89573SOL     OW70557   8.996  11.877  11.273
89573SOL    HW170558   9.062  11.937  11.306
89573SOL    HW270559   9.035  11.791  11.281
89574SOL     OW70560   4.880  14.272   9.611
89574SOL    HW170561   4.892  14.214   9.536
89574SOL    HW270562   4.933  14.349   9.591
89575SOL     OW70563  11.331   2.205  11.201
89575SOL    HW170564  11.339   2.187  11.294
89575SOL    HW270565  11.236   2.216  11.187
89576SOL     OW70566   6.525   9.063   8.217
89576SOL    HW170567   6.545   9.067   8.310
89576SOL    HW270568   6.526   8.970   8.195
89577SOL     OW70569   2.747   6.183   2.814
89577SOL    HW170570   2.775   6.125   2.885
89577SOL    HW270571   2.827   6.203   2.766
89578SOL     OW70572  10.935  14.678   9.275
89578SOL    HW170573  10.857  14.719   9.312
89578SOL    HW270574  11.005  14.698   9.338
89579SOL     OW70575   5.181   2.728  11.132
89579SOL    HW170576   5.156   2.787  11.061
89579SOL    HW270577   5.266   2.762  11.162
89580SOL     OW70578   7.290  13.618  13.806
89580SOL    HW170579   7.249  13.702  13.826
89580SOL    HW270580   7.219  13.554  13.814
89581SOL     OW70581   4.147  12.974  11.535
89581SOL    HW170582   4.163  13.020  11.452
89581SOL    HW270583   4.102  12.893  11.509
89582SOL     OW70584  12.552   8.521   1.708
89582SOL    HW170585  12.611   8.528   1.633
89582SOL    HW270586  12.465   8.519   1.668
89583SOL     OW70587  10.727   2.236   4.067
89583SOL    HW170588  10.782   2.192   4.002
89583SOL    HW270589  10.731   2.180   4.145
89584SOL     OW70590   9.113   5.789   2.102
89584SOL    HW170591   9.113   5.884   2.118
89584SOL    HW270592   9.086   5.751   2.185
89585SOL     OW70593  12.831   3.218   0.611
89585SOL    HW170594  12.798   3.219   0.521
89585SOL    HW270595  12.837   3.125   0.633
89586SOL     OW70596  11.112   5.785   1.095
89586SOL    HW170597  11.178   5.812   1.032
89586SOL    HW270598  11.087   5.865   1.141
89587SOL     OW70599  12.174   9.475  13.623
89587SOL    HW170600  12.099   9.532  13.608
89587SOL    HW270601  12.245   9.535  13.648
89588SOL     OW70602   3.377  10.063   0.390
89588SOL    HW170603   3.426  10.048   0.472
89588SOL    HW270604   3.443  10.097   0.329
89589SOL     OW70605   8.382   1.162   2.253
89589SOL    HW170606   8.316   1.098   2.279
89589SOL    HW270607   8.394   1.216   2.331
89590SOL     OW70608  12.822  14.128   2.798
89590SOL    HW170609  12.747  14.184   2.776
89590SOL    HW270610  12.787  14.064   2.860
89591SOL     OW70611   9.800   6.243  14.166
89591SOL    HW170612   9.734   6.175  14.178
89591SOL    HW270613   9.861   6.231  14.239
89592SOL     OW70614   0.763   1.368   1.416
89592SOL    HW170615   0.819   1.344   1.342
89592SOL    HW270616   0.822   1.410   1.479
89593SOL     OW70617  10.540   5.935  10.555
89593SOL    HW170618  10.529   5.902  10.644
89593SOL    HW270619  10.535   5.857  10.500
89594SOL     OW70620   3.405  12.026   2.364
89594SOL    HW170621   3.418  11.944   2.317
89594SOL    HW270622   3.314  12.022   2.393
89595SOL     OW70623   6.491   7.719   5.031
89595SOL    HW170624   6.586   7.722   5.037
89595SOL    HW270625   6.472   7.730   4.938
89596SOL     OW70626   4.103   5.722   5.555
89596SOL    HW170627   4.023   5.748   5.602
89596SOL    HW270628   4.174   5.756   5.610
89597SOL     OW70629  10.389   7.187  10.377
89597SOL    HW170630  10.333   7.231  10.312
89597SOL    HW270631  10.478   7.212  10.353
89598SOL     OW70632   2.384   2.495   2.096
89598SOL    HW170633   2.402   2.520   2.187
89598SOL    HW270634   2.313   2.553   2.069
89599SOL     OW70635   4.986   5.423   0.799
89599SOL    HW170636   4.951   5.441   0.712
89599SOL    HW270637   5.036   5.342   0.788
89600SOL     OW70638  12.467  10.160   5.467
89600SOL    HW170639  12.410  10.088   5.496
89600SOL    HW270640  12.549  10.118   5.444
89601SOL     OW70641  13.019   3.551  14.237
89601SOL    HW170642  12.952   3.532  14.170
89601SOL    HW270643  12.972   3.598  14.305
89602SOL     OW70644  13.884   8.129   5.277
89602SOL    HW170645  13.837   8.083   5.208
89602SOL    HW270646  13.925   8.060   5.329
89603SOL     OW70647   8.612   2.398   8.801
89603SOL    HW170648   8.524   2.362   8.788
89603SOL    HW270649   8.670   2.333   8.762
89604SOL     OW70650  11.405  12.911   3.085
89604SOL    HW170651  11.325  12.920   3.138
89604SOL    HW270652  11.448  12.833   3.120
89605SOL     OW70653   4.425  14.876  13.073
89605SOL    HW170654   4.484   0.024  13.143
89605SOL    HW270655   4.366  14.813  13.114
89606SOL     OW70656   6.354  11.450  13.837
89606SOL    HW170657   6.405  11.418  13.762
89606SOL    HW270658   6.305  11.374  13.867
89607SOL     OW70659   3.562   2.467   6.403
89607SOL    HW170660   3.521   2.545   6.366
89607SOL    HW270661   3.636   2.449   6.345
89608SOL     OW70662  13.333   3.929   3.457
89608SOL    HW170663  13.303   3.855   3.510
89608SOL    HW270664  13.342   4.001   3.519
89609SOL     OW70665  13.542  12.576   3.828
89609SOL    HW170666  13.597  12.574   3.907
89609SOL    HW270667  13.482  12.503   3.839
89610SOL     OW70668  11.094  10.201   3.425
89610SOL    HW170669  11.060  10.116   3.453
89610SOL    HW270670  11.186  10.199   3.451
89611SOL     OW70671  14.692  11.424   8.032
89611SOL    HW170672  14.754  11.463   8.095
89611SOL    HW270673  14.661  11.345   8.076
89612SOL     OW70674  11.789   5.127  13.640
89612SOL    HW170675  11.875   5.131  13.680
89612SOL    HW270676  11.739   5.067  13.695
89613SOL     OW70677   4.324  12.874  14.392
89613SOL    HW170678   4.323  12.957  14.441
89613SOL    HW270679   4.415  12.863  14.366
89614SOL     OW70680   7.516   5.848   4.826
89614SOL    HW170681   7.554   5.920   4.775
89614SOL    HW270682   7.424   5.848   4.801
89615SOL     OW70683  12.543   7.666   5.632
89615SOL    HW170684  12.519   7.692   5.721
89615SOL    HW270685  12.588   7.583   5.642
89616SOL     OW70686  10.852   5.348  10.069
89616SOL    HW170687  10.823   5.429  10.110
89616SOL    HW270688  10.849   5.367   9.975
89617SOL     OW70689   3.269   1.488   0.948
89617SOL    HW170690   3.328   1.554   0.986
89617SOL    HW270691   3.328   1.423   0.910
89618SOL     OW70692  11.595   4.506   2.763
89618SOL    HW170693  11.665   4.531   2.823
89618SOL    HW270694  11.580   4.583   2.709
89619SOL     OW70695   0.771   3.497  12.435
89619SOL    HW170696   0.721   3.579  12.430
89619SOL    HW270697   0.768   3.473  12.528
89620SOL     OW70698  14.483   0.938  12.266
89620SOL    HW170699  14.452   0.864  12.214
89620SOL    HW270700  14.527   0.995  12.203
89621SOL     OW70701  14.102   4.774   4.783
89621SOL    HW170702  14.156   4.708   4.827
89621SOL    HW270703  14.021   4.775   4.835
89622SOL     OW70704   8.389   6.440   0.462
89622SOL    HW170705   8.408   6.466   0.552
89622SOL    HW270706   8.424   6.512   0.409
89623SOL     OW70707   0.149   8.922  12.476
89623SOL    HW170708   0.194   8.871  12.409
89623SOL    HW270709   0.208   8.995  12.495
89624SOL     OW70710   5.861   7.647  11.234
89624SOL    HW170711   5.771   7.639  11.202
89624SOL    HW270712   5.903   7.708  11.174
89625SOL     OW70713   2.410   8.789   1.857
89625SOL    HW170714   2.479   8.723   1.853
89625SOL    HW270715   2.433   8.851   1.787
89626SOL     OW70716   3.546   8.913  11.198
89626SOL    HW170717   3.564   8.854  11.126
89626SOL    HW270718   3.629   8.918  11.246
89627SOL     OW70719   6.126   4.596   5.149
89627SOL    HW170720   6.118   4.691   5.158
89627SOL    HW270721   6.071   4.560   5.218
89628SOL     OW70722   3.641  14.588  11.606
89628SOL    HW170723   3.603  14.615  11.522
89628SOL    HW270724   3.584  14.518  11.637
89629SOL     OW70725   2.930  10.965   8.009
89629SOL    HW170726   2.892  11.044   7.971
89629SOL    HW270727   2.919  10.898   7.941
89630SOL     OW70728  11.841   4.310  13.937
89630SOL    HW170729  11.873   4.400  13.928
89630SOL    HW270730  11.768   4.304  13.877
89631SOL     OW70731   6.062   5.212  12.080
89631SOL    HW170732   6.029   5.278  12.141
89631SOL    HW270733   6.133   5.256  12.034
89632SOL     OW70734  11.705   0.034   8.148
89632SOL    HW170735  11.766   0.066   8.214
89632SOL    HW270736  11.666  14.835   8.187
89633SOL     OW70737   8.984   3.498   5.644
89633SOL    HW170738   8.934   3.573   5.677
89633SOL    HW270739   8.960   3.493   5.551
89634SOL     OW70740   0.597   5.486   2.864
89634SOL    HW170741   0.676   5.456   2.819
89634SOL    HW270742   0.527   5.432   2.827
89635SOL     OW70743  10.307   7.090  14.099
89635SOL    HW170744  10.282   7.055  14.185
89635SOL    HW270745  10.401   7.106  14.107
89636SOL     OW70746   9.801   1.156   5.744
89636SOL    HW170747   9.837   1.237   5.781
89636SOL    HW270748   9.877   1.100   5.732
89637SOL     OW70749  11.867   0.295  10.347
89637SOL    HW170750  11.827   0.259  10.268
89637SOL    HW270751  11.954   0.255  10.349
89638SOL     OW70752  10.014   0.980   5.750
89638SOL    HW170753  10.055   0.900   5.716
89638SOL    HW270754  10.053   0.991   5.836
89639SOL     OW70755  12.429   3.471   4.058
89639SOL    HW170756  12.493   3.512   4.118
89639SOL    HW270757  12.475   3.466   3.975
89640SOL     OW70758  14.270  10.176  11.707
89640SOL    HW170759  14.224  10.236  11.648
89640SOL    HW270760  14.201  10.119  11.741
89641SOL     OW70761   4.514  12.106   3.703
89641SOL    HW170762   4.599  12.061   3.697
89641SOL    HW270763   4.502  12.147   3.617
89642SOL     OW70764   2.304   7.658   1.814
89642SOL    HW170765   2.245   7.700   1.876
89642SOL    HW270766   2.308   7.718   1.739
89643SOL     OW70767  10.923   8.993  10.945
89643SOL    HW170768  10.993   9.013  10.883
89643SOL    HW270769  10.885   9.078  10.966
89644SOL     OW70770   0.632   8.241  14.674
89644SOL    HW170771   0.716   8.199  14.654
89644SOL    HW270772   0.651   8.299  14.747
89645SOL     OW70773   1.581   7.226   6.489
89645SOL    HW170774   1.641   7.284   6.441
89645SOL    HW270775   1.637   7.174   6.546
89646SOL     OW70776  10.959   6.218   9.005
89646SOL    HW170777  10.957   6.313   8.988
89646SOL    HW270778  11.040   6.188   8.963
89647SOL     OW70779  11.538  14.601   2.925
89647SOL    HW170780  11.521  14.531   2.863
89647SOL    HW270781  11.467  14.664   2.912
89648SOL     OW70782   3.520  14.582  13.854
89648SOL    HW170783   3.478  14.666  13.873
89648SOL    HW270784   3.574  14.598  13.777
89649SOL     OW70785  11.084   3.921   9.223
89649SOL    HW170786  11.135   3.977   9.165
89649SOL    HW270787  11.043   3.982   9.284
89650SOL     OW70788   7.141   0.654   9.552
89650SOL    HW170789   7.087   0.725   9.587
89650SOL    HW270790   7.226   0.664   9.594
89651SOL     OW70791   1.938   5.325   8.700
89651SOL    HW170792   1.997   5.253   8.676
89651SOL    HW270793   1.934   5.323   8.795
89652SOL     OW70794   7.208  10.476   9.589
89652SOL    HW170795   7.300  10.479   9.613
89652SOL    HW270796   7.206  10.487   9.494
89653SOL     OW70797   6.057  11.645   1.755
89653SOL    HW170798   6.128  11.709   1.761
89653SOL    HW270799   6.100  11.560   1.766
89654SOL     OW70800  13.881   4.879  10.691
89654SOL    HW170801  13.854   4.953  10.638
89654SOL    HW270802  13.817   4.877  10.763
89655SOL     OW70803   1.809   4.630   0.855
89655SOL    HW170804   1.842   4.698   0.914
89655SOL    HW270805   1.753   4.677   0.793
89656SOL     OW70806   5.244  14.285   0.728
89656SOL    HW170807   5.260  14.261   0.637
89656SOL    HW270808   5.150  14.301   0.732
89657SOL     OW70809  14.389   1.887   7.561
89657SOL    HW170810  14.449   1.818   7.589
89657SOL    HW270811  14.350   1.853   7.480
89658SOL     OW70812   3.131  10.640  14.400
89658SOL    HW170813   3.130  10.583  14.323
89658SOL    HW270814   3.088  10.721  14.370
89659SOL     OW70815  14.283   6.189   0.083
89659SOL    HW170816  14.265   6.237   0.165
89659SOL    HW270817  14.230   6.109   0.090
89660SOL     OW70818   7.213   6.899   7.547
89660SOL    HW170819   7.126   6.882   7.584
89660SOL    HW270820   7.223   6.833   7.478
89661SOL     OW70821   2.051   8.333   2.790
89661SOL    HW170822   2.099   8.313   2.709
89661SOL    HW270823   2.023   8.424   2.778
89662SOL     OW70824  11.680   2.916   2.538
89662SOL    HW170825  11.738   2.862   2.593
89662SOL    HW270826  11.710   3.005   2.552
89663SOL     OW70827   6.174  11.339  11.301
89663SOL    HW170828   6.120  11.381  11.367
89663SOL    HW270829   6.112  11.306  11.236
89664SOL     OW70830   3.195   9.597   2.894
89664SOL    HW170831   3.246   9.558   2.965
89664SOL    HW270832   3.255   9.600   2.819
89665SOL     OW70833  12.374   8.914   2.684
89665SOL    HW170834  12.419   8.995   2.660
89665SOL    HW270835  12.430   8.873   2.749
89666SOL     OW70836   7.033   4.294   5.626
89666SOL    HW170837   7.011   4.201   5.633
89666SOL    HW270838   6.995   4.321   5.542
89667SOL     OW70839   7.688   6.212   0.732
89667SOL    HW170840   7.780   6.236   0.741
89667SOL    HW270841   7.659   6.258   0.653
89668SOL     OW70842   5.036   9.389  11.278
89668SOL    HW170843   4.946   9.359  11.268
89668SOL    HW270844   5.032   9.458  11.344
89669SOL     OW70845  12.737   7.795   9.511
89669SOL    HW170846  12.731   7.773   9.604
89669SOL    HW270847  12.701   7.883   9.505
89670SOL     OW70848   4.870   7.060   5.602
89670SOL    HW170849   4.800   7.016   5.554
89670SOL    HW270850   4.945   7.001   5.593
89671SOL     OW70851   2.083  13.156   2.570
89671SOL    HW170852   2.152  13.211   2.608
89671SOL    HW270853   2.078  13.080   2.627
89672SOL     OW70854   4.019  13.212   2.303
89672SOL    HW170855   4.106  13.183   2.276
89672SOL    HW270856   3.993  13.149   2.371
89673SOL     OW70857   0.638   7.258   3.861
89673SOL    HW170858   0.544   7.241   3.870
89673SOL    HW270859   0.654   7.332   3.920
89674SOL     OW70860  12.884   6.678  11.544
89674SOL    HW170861  12.937   6.754  11.567
89674SOL    HW270862  12.796   6.713  11.527
89675SOL     OW70863   3.632   9.052   2.405
89675SOL    HW170864   3.723   9.075   2.428
89675SOL    HW270865   3.579   9.119   2.448
89676SOL     OW70866   0.512   4.169   9.916
89676SOL    HW170867   0.597   4.152   9.957
89676SOL    HW270868   0.449   4.166   9.988
89677SOL     OW70869  11.911   7.796   8.040
89677SOL    HW170870  12.005   7.785   8.024
89677SOL    HW270871  11.871   7.715   8.008
89678SOL     OW70872  12.492  11.484   2.439
89678SOL    HW170873  12.463  11.561   2.489
89678SOL    HW270874  12.412  11.446   2.405
89679SOL     OW70875  11.993   5.563   7.357
89679SOL    HW170876  11.962   5.473   7.360
89679SOL    HW270877  11.925   5.610   7.308
89680SOL     OW70878  12.288  14.216  11.349
89680SOL    HW170879  12.298  14.281  11.419
89680SOL    HW270880  12.358  14.239  11.287
89681SOL     OW70881  11.453   6.648   3.955
89681SOL    HW170882  11.488   6.664   4.043
89681SOL    HW270883  11.529   6.618   3.905
89682SOL     OW70884   3.612   7.993   3.220
89682SOL    HW170885   3.612   8.061   3.153
89682SOL    HW270886   3.523   7.959   3.219
89683SOL     OW70887  14.551  10.518   1.232
89683SOL    HW170888  14.511  10.499   1.147
89683SOL    HW270889  14.642  10.492   1.222
89684SOL     OW70890   4.119   1.635   3.160
89684SOL    HW170891   4.113   1.542   3.180
89684SOL    HW270892   4.151   1.638   3.070
89685SOL     OW70893   6.359   2.669   2.265
89685SOL    HW170894   6.340   2.762   2.259
89685SOL    HW270895   6.329   2.643   2.353
89686SOL     OW70896   8.947   3.686   0.515
89686SOL    HW170897   8.949   3.778   0.487
89686SOL    HW270898   8.859   3.673   0.551
89687SOL     OW70899   9.064   1.963   2.067
89687SOL    HW170900   9.135   1.999   2.121
89687SOL    HW270901   8.986   2.010   2.096
89688SOL     OW70902   3.755  13.055   8.585
89688SOL    HW170903   3.841  13.013   8.584
89688SOL    HW270904   3.765  13.127   8.648
89689SOL     OW70905   7.842   0.702   7.409
89689SOL    HW170906   7.781   0.673   7.341
89689SOL    HW270907   7.916   0.642   7.402
89690SOL     OW70908   1.096  14.539   4.780
89690SOL    HW170909   1.043  14.545   4.701
89690SOL    HW270910   1.139  14.453   4.774
89691SOL     OW70911  11.487   2.771   7.361
89691SOL    HW170912  11.555   2.716   7.400
89691SOL    HW270913  11.409   2.755   7.415
89692SOL     OW70914  13.337   7.533   2.644
89692SOL    HW170915  13.301   7.526   2.733
89692SOL    HW270916  13.337   7.443   2.611
89693SOL     OW70917   8.069   8.248  14.474
89693SOL    HW170918   8.089   8.159  14.500
89693SOL    HW270919   8.073   8.247  14.378
89694SOL     OW70920   2.593   9.514   2.960
89694SOL    HW170921   2.589   9.602   2.997
89694SOL    HW270922   2.639   9.524   2.877
89695SOL     OW70923   6.892  12.186  14.746
89695SOL    HW170924   6.842  12.268  14.739
89695SOL    HW270925   6.832  12.125  14.788
89696SOL     OW70926   1.120  11.449   2.167
89696SOL    HW170927   1.164  11.508   2.105
89696SOL    HW270928   1.125  11.494   2.251
89697SOL     OW70929  11.039   2.917  13.974
89697SOL    HW170930  11.018   2.826  13.953
89697SOL    HW270931  10.954   2.959  13.987
89698SOL     OW70932   4.605   3.994   0.810
89698SOL    HW170933   4.570   4.027   0.893
89698SOL    HW270934   4.540   3.930   0.780
89699SOL     OW70935   6.184  11.363   7.609
89699SOL    HW170936   6.242  11.420   7.559
89699SOL    HW270937   6.095  11.391   7.586
89700SOL     OW70938   1.451   3.850   4.395
89700SOL    HW170939   1.480   3.811   4.478
89700SOL    HW270940   1.525   3.837   4.335
89701SOL     OW70941   8.039   5.169  12.827
89701SOL    HW170942   8.093   5.174  12.906
89701SOL    HW270943   7.957   5.211  12.851
89702SOL     OW70944   0.207   4.989  13.332
89702SOL    HW170945   0.162   4.954  13.409
89702SOL    HW270946   0.194   4.923  13.264
89703SOL     OW70947  13.130  11.184   4.784
89703SOL    HW170948  13.040  11.210   4.763
89703SOL    HW270949  13.163  11.254   4.840
89704SOL     OW70950   9.963   1.821  10.540
89704SOL    HW170951   9.917   1.897  10.577
89704SOL    HW270952   9.968   1.759  10.612
89705SOL     OW70953   0.882   8.944  14.652
89705SOL    HW170954   0.804   8.980  14.610
89705SOL    HW270955   0.896   8.860  14.609
89706SOL     OW70956   5.990  12.300   2.109
89706SOL    HW170957   5.951  12.385   2.131
89706SOL    HW270958   5.919  12.237   2.121
89707SOL     OW70959   8.018   0.469   1.196
89707SOL    HW170960   8.006   0.549   1.247
89707SOL    HW270961   7.930   0.449   1.163
89708SOL     OW70962   7.622   6.773   9.204
89708SOL    HW170963   7.624   6.678   9.213
89708SOL    HW270964   7.620   6.788   9.110
89709SOL     OW70965  13.944   1.775   9.000
89709SOL    HW170966  13.891   1.824   9.062
89709SOL    HW270967  14.033   1.809   9.011
89710SOL     OW70968  12.767   1.812   7.807
89710SOL    HW170969  12.742   1.825   7.899
89710SOL    HW270970  12.764   1.899   7.768
89711SOL     OW70971  12.324   7.063   4.429
89711SOL    HW170972  12.247   7.022   4.469
89711SOL    HW270973  12.288   7.127   4.368
89712SOL     OW70974  11.731   3.577   1.138
89712SOL    HW170975  11.728   3.514   1.067
89712SOL    HW270976  11.794   3.643   1.109
89713SOL     OW70977   0.113  11.109   5.356
89713SOL    HW170978   0.071  11.023   5.351
89713SOL    HW270979   0.164  11.107   5.437
89714SOL     OW70980   7.991   8.001  14.118
89714SOL    HW170981   8.004   7.913  14.153
89714SOL    HW270982   7.898   8.018  14.131
89715SOL     OW70983   4.631  14.230   0.788
89715SOL    HW170984   4.634  14.145   0.832
89715SOL    HW270985   4.550  14.270   0.819
89716SOL     OW70986   9.209  11.031  10.709
89716SOL    HW170987   9.147  11.010  10.779
89716SOL    HW270988   9.162  11.009  10.628
89717SOL     OW70989   8.076   5.519   0.914
89717SOL    HW170990   8.127   5.583   0.865
89717SOL    HW270991   7.995   5.566   0.937
89718SOL     OW70992   9.707   5.818  11.841
89718SOL    HW170993   9.706   5.729  11.876
89718SOL    HW270994   9.621   5.854  11.863
89719SOL     OW70995   6.037   2.367   7.751
89719SOL    HW170996   6.125   2.348   7.719
89719SOL    HW270997   6.011   2.446   7.703
89720SOL     OW70998  10.386   4.318  13.687
89720SOL    HW170999  10.465   4.296  13.736
89720SOL    HW271000  10.318   4.330  13.754
89721SOL     OW71001  11.346   2.144  13.281
89721SOL    HW171002  11.435   2.147  13.247
89721SOL    HW271003  11.290   2.131  13.204
89722SOL     OW71004   8.456   8.304   0.909
89722SOL    HW171005   8.429   8.396   0.907
89722SOL    HW271006   8.509   8.292   0.830
89723SOL     OW71007   8.493   6.300   4.659
89723SOL    HW171008   8.479   6.394   4.666
89723SOL    HW271009   8.588   6.290   4.666
89724SOL     OW71010   6.600   9.127   1.325
89724SOL    HW171011   6.583   9.044   1.282
89724SOL    HW271012   6.679   9.111   1.378
89725SOL     OW71013   0.143   8.714   2.867
89725SOL    HW171014   0.106   8.801   2.853
89725SOL    HW271015   0.102   8.683   2.947
89726SOL     OW71016   7.955  10.790   6.372
89726SOL    HW171017   7.919  10.754   6.291
89726SOL    HW271018   7.921  10.733   6.441
89727SOL     OW71019   0.835  12.390   5.337
89727SOL    HW171020   0.770  12.460   5.335
89727SOL    HW271021   0.919  12.436   5.347
89728SOL     OW71022  12.329  10.546   2.983
89728SOL    HW171023  12.286  10.631   2.971
89728SOL    HW271024  12.271  10.484   2.938
89729SOL     OW71025   7.607   0.023   7.378
89729SOL    HW171026   7.660  14.827   7.404
89729SOL    HW271027   7.587   0.068   7.460
89730SOL     OW71028   1.934   4.928   8.832
89730SOL    HW171029   1.856   4.980   8.851
89730SOL    HW271030   1.918   4.843   8.873
89731SOL     OW71031  10.974   2.254   5.055
89731SOL    HW171032  10.969   2.268   5.150
89731SOL    HW271033  11.054   2.203   5.042
89732SOL     OW71034  14.299   7.469  11.344
89732SOL    HW171035  14.226   7.526  11.368
89732SOL    HW271036  14.377   7.519  11.366
89733SOL     OW71037   3.937  11.217   8.322
89733SOL    HW171038   3.973  11.202   8.235
89733SOL    HW271039   3.854  11.262   8.306
89734SOL     OW71040   7.306   5.587   4.130
89734SOL    HW171041   7.233   5.586   4.068
89734SOL    HW271042   7.358   5.510   4.108
89735SOL     OW71043   3.301   6.150  10.771
89735SOL    HW171044   3.294   6.062  10.734
89735SOL    HW271045   3.318   6.136  10.864
89736SOL     OW71046   2.989  12.963   4.423
89736SOL    HW171047   2.984  12.888   4.364
89736SOL    HW271048   3.081  12.965   4.451
89737SOL     OW71049  12.175   5.037   5.953
89737SOL    HW171050  12.195   5.130   5.954
89737SOL    HW271051  12.152   5.018   5.862
89738SOL     OW71052   6.346  12.792   0.430
89738SOL    HW171053   6.291  12.754   0.361
89738SOL    HW271054   6.403  12.854   0.384
89739SOL     OW71055  11.165   1.704   2.452
89739SOL    HW171056  11.169   1.629   2.393
89739SOL    HW271057  11.209   1.774   2.405
89740SOL     OW71058   2.518   4.792  13.454
89740SOL    HW171059   2.452   4.850  13.417
89740SOL    HW271060   2.477   4.705  13.451
89741SOL     OW71061  13.281  12.881   6.471
89741SOL    HW171062  13.253  12.895   6.380
89741SOL    HW271063  13.376  12.871   6.465
89742SOL     OW71064  13.720   6.765  11.564
89742SOL    HW171065  13.668   6.784  11.642
89742SOL    HW271066  13.752   6.851  11.535
89743SOL     OW71067  12.411   0.636   6.071
89743SOL    HW171068  12.318   0.620   6.083
89743SOL    HW271069  12.416   0.715   6.018
89744SOL     OW71070   1.425  10.902   8.658
89744SOL    HW171071   1.364  10.857   8.716
89744SOL    HW271072   1.507  10.854   8.667
89745SOL     OW71073   6.499   1.173   8.834
89745SOL    HW171074   6.586   1.205   8.855
89745SOL    HW271075   6.439   1.236   8.873
89746SOL     OW71076   5.052   0.114   4.488
89746SOL    HW171077   5.000   0.115   4.408
89746SOL    HW271078   5.070   0.021   4.504
89747SOL     OW71079   3.791  12.440   0.942
89747SOL    HW171080   3.722  12.385   0.905
89747SOL    HW271081   3.866  12.427   0.884
89748SOL     OW71082   9.127  13.604   3.852
89748SOL    HW171083   9.077  13.577   3.929
89748SOL    HW271084   9.077  13.571   3.777
89749SOL     OW71085   7.038   1.970  13.358
89749SOL    HW171086   7.008   1.879  13.353
89749SOL    HW271087   6.981   2.010  13.424
89750SOL     OW71088   8.500  14.542   5.907
89750SOL    HW171089   8.553  14.581   5.977
89750SOL    HW271090   8.411  14.545   5.941
89751SOL     OW71091  13.487   8.009  14.065
89751SOL    HW171092  13.561   8.023  14.124
89751SOL    HW271093  13.521   7.951  13.997
89752SOL     OW71094   9.329  12.697   1.875
89752SOL    HW171095   9.330  12.601   1.874
89752SOL    HW271096   9.394  12.722   1.810
89753SOL     OW71097   0.899   8.503   5.503
89753SOL    HW171098   0.945   8.451   5.438
89753SOL    HW271099   0.949   8.489   5.584
89754SOL     OW71100   8.081   2.577   6.585
89754SOL    HW171101   8.062   2.570   6.491
89754SOL    HW271102   8.073   2.670   6.605
89755SOL     OW71103  13.547   2.608   3.334
89755SOL    HW171104  13.554   2.703   3.347
89755SOL    HW271105  13.475   2.597   3.272
89756SOL     OW71106  14.127   1.312   5.252
89756SOL    HW171107  14.083   1.289   5.333
89756SOL    HW271108  14.187   1.239   5.235
89757SOL     OW71109   9.213  12.383   1.691
89757SOL    HW171110   9.262  12.393   1.772
89757SOL    HW271111   9.186  12.292   1.690
89758SOL     OW71112   5.582   8.776  13.655
89758SOL    HW171113   5.637   8.763  13.578
89758SOL    HW271114   5.639   8.819  13.718
89759SOL     OW71115  13.763   6.479   6.147
89759SOL    HW171116  13.852   6.444   6.159
89759SOL    HW271117  13.727   6.481   6.236
89760SOL     OW71118   5.326   4.277   1.898
89760SOL    HW171119   5.235   4.249   1.890
89760SOL    HW271120   5.320   4.361   1.943
89761SOL     OW71121  12.852  12.847  10.781
89761SOL    HW171122  12.830  12.836  10.688
89761SOL    HW271123  12.933  12.797  10.793
89762SOL     OW71124   1.143  13.795   3.265
89762SOL    HW171125   1.163  13.769   3.355
89762SOL    HW271126   1.141  13.712   3.217
89763SOL     OW71127   7.460  14.415  14.793
89763SOL    HW171128   7.501  14.331  14.815
89763SOL    HW271129   7.506  14.479  14.849
89764SOL     OW71130   9.197   9.716   4.832
89764SOL    HW171131   9.281   9.687   4.796
89764SOL    HW271132   9.168   9.787   4.773
89765SOL     OW71133   1.108   3.624   5.387
89765SOL    HW171134   1.018   3.637   5.415
89765SOL    HW271135   1.130   3.536   5.417
89766SOL     OW71136   0.437   0.765   2.154
89766SOL    HW171137   0.506   0.832   2.155
89766SOL    HW271138   0.453   0.713   2.232
89767SOL     OW71139  14.159   3.066   8.371
89767SOL    HW171140  14.163   2.999   8.439
89767SOL    HW271141  14.075   3.053   8.327
89768SOL     OW71142   3.524   0.918   4.108
89768SOL    HW171143   3.598   0.938   4.049
89768SOL    HW271144   3.449   0.960   4.066
89769SOL     OW71145   0.004   6.573   1.550
89769SOL    HW171146   0.088   6.598   1.511
89769SOL    HW271147  14.853   6.652   1.594
89770SOL     OW71148   1.305   9.011   5.321
89770SOL    HW171149   1.281   9.092   5.366
89770SOL    HW271150   1.356   9.040   5.246
89771SOL     OW71151   0.102   1.400   0.155
89771SOL    HW171152   0.116   1.329   0.093
89771SOL    HW271153   0.126   1.363   0.240
89772SOL     OW71154   4.543   0.678   9.583
89772SOL    HW171155   4.538   0.757   9.529
89772SOL    HW271156   4.502   0.610   9.530
89773SOL     OW71157  11.066   5.555   6.814
89773SOL    HW171158  10.995   5.519   6.867
89773SOL    HW271159  11.023   5.614   6.753
89774SOL     OW71160  13.502   2.668   5.125
89774SOL    HW171161  13.412   2.656   5.154
89774SOL    HW271162  13.548   2.701   5.203
89775SOL     OW71163  14.877   1.559   8.719
89775SOL    HW171164  14.860   1.646   8.683
89775SOL    HW271165  14.879   1.501   8.643
89776SOL     OW71166  10.314   4.354   5.055
89776SOL    HW171167  10.276   4.300   4.987
89776SOL    HW271168  10.260   4.433   5.057
89777SOL     OW71169   6.439   9.298   0.608
89777SOL    HW171170   6.459   9.216   0.564
89777SOL    HW271171   6.478   9.365   0.552
89778SOL     OW71172   4.077  14.448  14.245
89778SOL    HW171173   4.058  14.472  14.335
89778SOL    HW271174   4.023  14.508  14.192
89779SOL     OW71175   1.053   1.136  12.870
89779SOL    HW171176   1.033   1.045  12.848
89779SOL    HW271177   1.020   1.146  12.959
89780SOL     OW71178  12.203   0.113   7.859
89780SOL    HW171179  12.274   0.099   7.796
89780SOL    HW271180  12.124   0.086   7.813
89781SOL     OW71181   8.516   6.679   7.626
89781SOL    HW171182   8.447   6.739   7.653
89781SOL    HW271183   8.526   6.693   7.532
89782SOL     OW71184  10.062   8.864   0.276
89782SOL    HW171185  10.128   8.809   0.318
89782SOL    HW271186  10.104   8.895   0.196
89783SOL     OW71187   0.505  14.325  10.248
89783SOL    HW171188   0.517  14.276  10.167
89783SOL    HW271189   0.411  14.339  10.254
89784SOL     OW71190  14.683   4.489   9.223
89784SOL    HW171191  14.594   4.526   9.218
89784SOL    HW271192  14.714   4.513   9.311
89785SOL     OW71193   1.029  10.854   0.928
89785SOL    HW171194   1.065  10.943   0.925
89785SOL    HW271195   1.093  10.801   0.881
89786SOL     OW71196   5.003   6.922   1.716
89786SOL    HW171197   5.049   6.838   1.719
89786SOL    HW271198   5.047   6.976   1.782
89787SOL     OW71199   1.757   0.241  11.737
89787SOL    HW171200   1.668   0.220  11.707
89787SOL    HW271201   1.774   0.328  11.702
89788SOL     OW71202   5.280   6.083   9.167
89788SOL    HW171203   5.248   6.044   9.249
89788SOL    HW271204   5.375   6.091   9.181
89789SOL     OW71205   5.031  14.551   2.440
89789SOL    HW171206   4.948  14.536   2.485
89789SOL    HW271207   5.093  14.493   2.483
89790SOL     OW71208   9.298  13.047   7.257
89790SOL    HW171209   9.365  12.979   7.263
89790SOL    HW271210   9.273  13.064   7.348
89791SOL     OW71211   6.285   7.571   4.080
89791SOL    HW171212   6.349   7.637   4.052
89791SOL    HW271213   6.209   7.586   4.023
89792SOL     OW71214   9.282   8.889   9.072
89792SOL    HW171215   9.278   8.934   9.157
89792SOL    HW271216   9.203   8.918   9.026
89793SOL     OW71217   6.354  10.049   1.312
89793SOL    HW171218   6.409  10.121   1.282
89793SOL    HW271219   6.288  10.091   1.367
89794SOL     OW71220   2.982   3.400   2.219
89794SOL    HW171221   2.933   3.319   2.209
89794SOL    HW271222   3.073   3.375   2.206
89795SOL     OW71223  14.580  10.758   6.784
89795SOL    HW171224  14.673  10.738   6.771
89795SOL    HW271225  14.573  10.783   6.876
89796SOL     OW71226   4.241   3.417   0.226
89796SOL    HW171227   4.224   3.348   0.291
89796SOL    HW271228   4.288   3.372   0.155
89797SOL     OW71229  10.961   5.949   5.151
89797SOL    HW171230  10.890   5.899   5.190
89797SOL    HW271231  11.004   5.992   5.225
89798SOL     OW71232   8.246   6.324   5.120
89798SOL    HW171233   8.180   6.282   5.175
89798SOL    HW271234   8.196   6.359   5.046
89799SOL     OW71235  10.367   6.094  13.008
89799SOL    HW171236  10.292   6.041  12.983
89799SOL    HW271237  10.411   6.043  13.077
89800SOL     OW71238  10.350   7.944   1.976
89800SOL    HW171239  10.294   7.921   2.050
89800SOL    HW271240  10.391   7.862   1.950
89801SOL     OW71241   3.907   5.526   9.167
89801SOL    HW171242   3.934   5.508   9.077
89801SOL    HW271243   3.980   5.576   9.204
89802SOL     OW71244   2.257   4.527  12.832
89802SOL    HW171245   2.325   4.524  12.765
89802SOL    HW271246   2.183   4.480  12.794
89803SOL     OW71247   5.165   8.829   8.054
89803SOL    HW171248   5.207   8.852   7.971
89803SOL    HW271249   5.236   8.794   8.107
89804SOL     OW71250  12.600   7.782  11.475
89804SOL    HW171251  12.640   7.736  11.401
89804SOL    HW271252  12.624   7.874  11.462
89805SOL     OW71253   8.524   7.288   9.498
89805SOL    HW171254   8.490   7.312   9.411
89805SOL    HW271255   8.527   7.370   9.546
89806SOL     OW71256   8.105  11.763   3.333
89806SOL    HW171257   8.102  11.668   3.329
89806SOL    HW271258   8.031  11.792   3.280
89807SOL     OW71259   5.366  11.223   2.729
89807SOL    HW171260   5.329  11.136   2.716
89807SOL    HW271261   5.344  11.245   2.820
89808SOL     OW71262  13.776  13.213   2.748
89808SOL    HW171263  13.754  13.303   2.769
89808SOL    HW271264  13.858  13.219   2.698
89809SOL     OW71265   8.519  10.109   9.014
89809SOL    HW171266   8.431  10.073   9.020
89809SOL    HW271267   8.516  10.167   8.938
89810SOL     OW71268  10.297  12.549  13.908
89810SOL    HW171269  10.215  12.581  13.945
89810SOL    HW271270  10.306  12.460  13.943
89811SOL     OW71271   9.326   1.558   7.592
89811SOL    HW171272   9.372   1.485   7.633
89811SOL    HW271273   9.279   1.601   7.664
89812SOL     OW71274  13.872   5.559   0.251
89812SOL    HW171275  13.918   5.480   0.224
89812SOL    HW271276  13.908   5.628   0.195
89813SOL     OW71277   3.474   1.033   9.771
89813SOL    HW171278   3.435   1.092   9.706
89813SOL    HW271279   3.405   1.023   9.837
89814SOL     OW71280   8.760  10.338   8.899
89814SOL    HW171281   8.670  10.362   8.921
89814SOL    HW271282   8.784  10.397   8.828
89815SOL     OW71283  13.275   0.127   7.158
89815SOL    HW171284  13.263   0.131   7.063
89815SOL    HW271285  13.361   0.164   7.174
89816SOL     OW71286   7.147   7.550   3.255
89816SOL    HW171287   7.226   7.599   3.279
89816SOL    HW271288   7.075   7.609   3.278
89817SOL     OW71289  13.440   4.744   6.592
89817SOL    HW171290  13.447   4.740   6.497
89817SOL    HW271291  13.529   4.724   6.623
89818SOL     OW71292  14.446   4.062   7.649
89818SOL    HW171293  14.410   4.043   7.735
89818SOL    HW271294  14.372   4.096   7.599
89819SOL     OW71295   2.638   4.122   9.365
89819SOL    HW171296   2.722   4.168   9.364
89819SOL    HW271297   2.638   4.074   9.448
89820SOL     OW71298   9.434  14.645   2.312
89820SOL    HW171299   9.453  14.597   2.393
89820SOL    HW271300   9.355  14.695   2.332
89821SOL     OW71301   9.902  10.568   0.128
89821SOL    HW171302   9.946  10.484   0.144
89821SOL    HW271303   9.867  10.560   0.039
89822SOL     OW71304   5.182  11.852   3.868
89822SOL    HW171305   5.245  11.785   3.895
89822SOL    HW271306   5.220  11.889   3.788
89823SOL     OW71307   5.222  13.501   9.510
89823SOL    HW171308   5.163  13.452   9.453
89823SOL    HW271309   5.258  13.436   9.570
89824SOL     OW71310  10.182  12.740   6.017
89824SOL    HW171311  10.266  12.784   6.033
89824SOL    HW271312  10.143  12.789   5.944
89825SOL     OW71313   6.811   6.566   0.807
89825SOL    HW171314   6.860   6.648   0.817
89825SOL    HW271315   6.860   6.503   0.860
89826SOL     OW71316  10.928  14.290   5.172
89826SOL    HW171317  10.911  14.204   5.211
89826SOL    HW271318  10.926  14.351   5.247
89827SOL     OW71319   4.659  10.390   5.984
89827SOL    HW171320   4.576  10.386   6.034
89827SOL    HW271321   4.703  10.308   6.006
89828SOL     OW71322   7.705  10.537   7.737
89828SOL    HW171323   7.678  10.627   7.717
89828SOL    HW271324   7.686  10.526   7.831
89829SOL     OW71325  11.737   8.015   5.491
89829SOL    HW171326  11.700   7.993   5.576
89829SOL    HW271327  11.670   8.068   5.448
89830SOL     OW71328   3.583  12.337   7.618
89830SOL    HW171329   3.494  12.302   7.629
89830SOL    HW271330   3.572  12.432   7.625
89831SOL     OW71331  10.908  12.974   4.416
89831SOL    HW171332  10.973  12.905   4.404
89831SOL    HW271333  10.875  12.960   4.505
89832SOL     OW71334   8.499   6.614   0.304
89832SOL    HW171335   8.497   6.709   0.317
89832SOL    HW271336   8.473   6.602   0.213
89833SOL     OW71337   5.552   7.167   7.171
89833SOL    HW171338   5.465   7.158   7.132
89833SOL    HW271339   5.595   7.083   7.154
89834SOL     OW71340   8.220  13.059  12.378
89834SOL    HW171341   8.201  13.138  12.328
89834SOL    HW271342   8.308  13.073  12.413
89835SOL     OW71343  12.384   3.270  11.930
89835SOL    HW171344  12.316   3.313  11.983
89835SOL    HW271345  12.380   3.314  11.845
89836SOL     OW71346   9.973   7.474   1.770
89836SOL    HW171347   9.888   7.513   1.792
89836SOL    HW271348   9.953   7.409   1.703
89837SOL     OW71349   6.532   9.425  13.350
89837SOL    HW171350   6.605   9.377  13.310
89837SOL    HW271351   6.525   9.390  13.439
89838SOL     OW71352   4.719  11.810  11.949
89838SOL    HW171353   4.744  11.830  11.859
89838SOL    HW271354   4.737  11.890  11.998
89839SOL     OW71355   1.925   5.189   7.726
89839SOL    HW171356   1.894   5.270   7.686
89839SOL    HW271357   2.010   5.173   7.685
89840SOL     OW71358   7.954   1.251  13.309
89840SOL    HW171359   7.949   1.198  13.229
89840SOL    HW271360   7.976   1.339  13.278
89841SOL     OW71361  12.851   5.449   2.513
89841SOL    HW171362  12.784   5.415   2.571
89841SOL    HW271363  12.918   5.485   2.571
89842SOL     OW71364   2.079   1.257   7.829
89842SOL    HW171365   2.112   1.265   7.739
89842SOL    HW271366   2.032   1.174   7.830
89843SOL     OW71367  12.814   1.243  13.697
89843SOL    HW171368  12.848   1.254  13.608
89843SOL    HW271369  12.855   1.314  13.747
89844SOL     OW71370  12.389   8.813   5.638
89844SOL    HW171371  12.330   8.884   5.661
89844SOL    HW271372  12.447   8.804   5.714
89845SOL     OW71373   5.293  11.870   5.356
89845SOL    HW171374   5.213  11.922   5.366
89845SOL    HW271375   5.329  11.897   5.272
89846SOL     OW71376  14.134   2.919   1.188
89846SOL    HW171377  14.194   2.850   1.159
89846SOL    HW271378  14.143   2.988   1.122
89847SOL     OW71379  14.145   1.579   5.722
89847SOL    HW171380  14.119   1.487   5.728
89847SOL    HW271381  14.194   1.595   5.802
89848SOL     OW71382   6.952   5.950   5.785
89848SOL    HW171383   6.897   5.955   5.863
89848SOL    HW271384   7.036   5.917   5.817
89849SOL     OW71385  10.551   6.530  12.144
89849SOL    HW171386  10.553   6.626  12.143
89849SOL    HW271387  10.492   6.508  12.216
89850SOL     OW71388  10.381   1.767   3.252
89850SOL    HW171389  10.330   1.758   3.332
89850SOL    HW271390  10.451   1.702   3.260
89851SOL     OW71391  10.186   4.182   7.348
89851SOL    HW171392  10.248   4.202   7.278
89851SOL    HW271393  10.222   4.225   7.426
89852SOL     OW71394   1.283   8.547   3.583
89852SOL    HW171395   1.191   8.568   3.601
89852SOL    HW271396   1.330   8.629   3.598
89853SOL     OW71397  14.606   1.645   4.461
89853SOL    HW171398  14.617   1.673   4.370
89853SOL    HW271399  14.530   1.587   4.459
89854SOL     OW71400   0.812  10.841  11.408
89854SOL    HW171401   0.739  10.887  11.366
89854SOL    HW271402   0.872  10.911  11.433
89855SOL     OW71403   7.500   5.755   4.032
89855SOL    HW171404   7.572   5.694   4.044
89855SOL    HW271405   7.422   5.705   4.056
89856SOL     OW71406   0.982   5.136   4.100
89856SOL    HW171407   0.954   5.195   4.170
89856SOL    HW271408   0.904   5.084   4.081
89857SOL     OW71409  11.274   2.736   7.508
89857SOL    HW171410  11.236   2.789   7.577
89857SOL    HW271411  11.263   2.646   7.537
89858SOL     OW71412   6.027  10.151   2.327
89858SOL    HW171413   6.083  10.123   2.399
89858SOL    HW271414   5.942  10.166   2.367
89859SOL     OW71415   5.357   5.177   0.595
89859SOL    HW171416   5.412   5.233   0.540
89859SOL    HW271417   5.366   5.089   0.557
89860SOL     OW71418   1.779   7.963   1.696
89860SOL    HW171419   1.690   7.956   1.732
89860SOL    HW271420   1.806   8.053   1.715
89861SOL     OW71421  12.314   7.424  12.600
89861SOL    HW171422  12.223   7.405  12.577
89861SOL    HW271423  12.364   7.354  12.559
89862SOL     OW71424  14.264   4.481   2.617
89862SOL    HW171425  14.195   4.439   2.566
89862SOL    HW271426  14.300   4.411   2.672
89863SOL     OW71427  11.446   1.326  14.063
89863SOL    HW171428  11.352   1.343  14.067
89863SOL    HW271429  11.487   1.412  14.072
89864SOL     OW71430   0.429  12.911   5.713
89864SOL    HW171431   0.388  12.824   5.715
89864SOL    HW271432   0.369  12.967   5.762
89865SOL     OW71433   6.561  14.789   9.544
89865SOL    HW171434   6.531  14.727   9.611
89865SOL    HW271435   6.481  14.834   9.516
89866SOL     OW71436  10.422   6.959   9.695
89866SOL    HW171437  10.348   6.932   9.750
89866SOL    HW271438  10.498   6.955   9.754
89867SOL     OW71439  13.824   9.509   6.219
89867SOL    HW171440  13.897   9.479   6.273
89867SOL    HW271441  13.863   9.528   6.134
89868SOL     OW71442   8.916  12.564   6.333
89868SOL    HW171443   8.945  12.485   6.379
89868SOL    HW271444   8.996  12.606   6.303
89869SOL     OW71445   4.598   8.716   0.131
89869SOL    HW171446   4.522   8.773   0.121
89869SOL    HW271447   4.565   8.639   0.176
89870SOL     OW71448  13.382   8.574  13.297
89870SOL    HW171449  13.341   8.584  13.382
89870SOL    HW271450  13.459   8.520  13.313
89871SOL     OW71451   3.286   9.430   7.286
89871SOL    HW171452   3.332   9.459   7.207
89871SOL    HW271453   3.295   9.335   7.286
89872SOL     OW71454   3.415  14.224   8.947
89872SOL    HW171455   3.358  14.301   8.944
89872SOL    HW271456   3.357  14.152   8.974
89873SOL     OW71457  13.360   1.608  14.529
89873SOL    HW171458  13.327   1.533  14.480
89873SOL    HW271459  13.301   1.616  14.603
89874SOL     OW71460  11.939  14.015  11.468
89874SOL    HW171461  11.939  14.103  11.506
89874SOL    HW271462  11.846  13.992  11.460
89875SOL     OW71463   3.344   6.559   3.987
89875SOL    HW171464   3.353   6.465   3.971
89875SOL    HW271465   3.354   6.568   4.082
89876SOL     OW71466   6.785   3.532   4.821
89876SOL    HW171467   6.712   3.488   4.778
89876SOL    HW271468   6.824   3.466   4.878
89877SOL     OW71469  14.320   3.943   3.954
89877SOL    HW171470  14.404   3.965   3.994
89877SOL    HW271471  14.305   3.852   3.978
89878SOL     OW71472   5.981   2.605  13.229
89878SOL    HW171473   5.888   2.627  13.230
89878SOL    HW271474   6.010   2.622  13.139
89879SOL     OW71475  13.140  11.659  13.010
89879SOL    HW171476  13.171  11.694  13.094
89879SOL    HW271477  13.088  11.582  13.034
89880SOL     OW71478   2.750   8.473  14.798
89880SOL    HW171479   2.791   8.559  14.789
89880SOL    HW271480   2.822   8.411  14.787
89881SOL     OW71481   5.606   1.619   6.727
89881SOL    HW171482   5.657   1.612   6.647
89881SOL    HW271483   5.669   1.603   6.797
89882SOL     OW71484   5.022   5.391   6.244
89882SOL    HW171485   4.959   5.434   6.302
89882SOL    HW271486   5.086   5.459   6.223
89883SOL     OW71487   8.436   9.163   6.792
89883SOL    HW171488   8.406   9.153   6.882
89883SOL    HW271489   8.465   9.254   6.785
89884SOL     OW71490   6.814   8.502  11.634
89884SOL    HW171491   6.808   8.517  11.540
89884SOL    HW271492   6.906   8.519  11.656
89885SOL     OW71493  13.967   8.899   3.206
89885SOL    HW171494  14.061   8.919   3.199
89885SOL    HW271495  13.939   8.943   3.286
89886SOL     OW71496   3.797   9.660   2.113
89886SOL    HW171497   3.703   9.664   2.095
89886SOL    HW271498   3.838   9.689   2.031
89887SOL     OW71499   5.686   0.910   2.517
89887SOL    HW171500   5.665   0.828   2.561
89887SOL    HW271501   5.648   0.901   2.429
89888SOL     OW71502   9.660   2.365   2.218
89888SOL    HW171503   9.755   2.368   2.221
89888SOL    HW271504   9.631   2.378   2.308
89889SOL     OW71505   3.932   8.544  12.037
89889SOL    HW171506   3.989   8.620  12.027
89889SOL    HW271507   3.916   8.538  12.131
89890SOL     OW71508   7.815   0.168   2.974
89890SOL    HW171509   7.886   0.213   3.020
89890SOL    HW271510   7.855   0.141   2.891
89891SOL     OW71511   4.562   3.317   3.686
89891SOL    HW171512   4.498   3.387   3.695
89891SOL    HW271513   4.640   3.350   3.731
89892SOL     OW71514  10.578  11.161   4.095
89892SOL    HW171515  10.610  11.100   4.161
89892SOL    HW271516  10.587  11.247   4.136
89893SOL     OW71517   5.794   6.141   0.885
89893SOL    HW171518   5.755   6.222   0.854
89893SOL    HW271519   5.843   6.166   0.963
89894SOL     OW71520   2.663   4.936  10.849
89894SOL    HW171521   2.583   4.884  10.860
89894SOL    HW271522   2.645   5.018  10.896
89895SOL     OW71523  10.050   5.138  14.401
89895SOL    HW171524  10.063   5.228  14.432
89895SOL    HW271525   9.959   5.117  14.426
89896SOL     OW71526  13.573  11.125   4.613
89896SOL    HW171527  13.491  11.165   4.582
89896SOL    HW271528  13.642  11.179   4.575
89897SOL     OW71529   4.528   4.164  14.245
89897SOL    HW171530   4.565   4.221  14.312
89897SOL    HW271531   4.582   4.085  14.247
89898SOL     OW71532  12.606  11.972   0.038
89898SOL    HW171533  12.626  11.891  14.870
89898SOL    HW271534  12.545  11.945   0.106
89899SOL     OW71535  11.309   7.839   4.702
89899SOL    HW171536  11.354   7.923   4.709
89899SOL    HW271537  11.219   7.861   4.677
89900SOL     OW71538   7.669  13.147   6.923
89900SOL    HW171539   7.735  13.180   6.862
89900SOL    HW271540   7.651  13.221   6.980
89901SOL     OW71541  13.706   9.205   8.699
89901SOL    HW171542  13.680   9.156   8.778
89901SOL    HW271543  13.796   9.179   8.683
89902SOL     OW71544  12.095   8.477   9.150
89902SOL    HW171545  12.005   8.505   9.162
89902SOL    HW271546  12.089   8.382   9.133
89903SOL     OW71547   5.642  10.606   0.280
89903SOL    HW171548   5.627  10.602   0.374
89903SOL    HW271549   5.660  10.515   0.255
89904SOL     OW71550   8.090  13.697   9.706
89904SOL    HW171551   8.054  13.681   9.618
89904SOL    HW271552   8.185  13.695   9.694
89905SOL     OW71553   5.910   8.649   9.196
89905SOL    HW171554   5.822   8.670   9.166
89905SOL    HW271555   5.914   8.686   9.285
89906SOL     OW71556   4.058  10.343   8.220
89906SOL    HW171557   4.062  10.418   8.280
89906SOL    HW271558   4.140  10.346   8.172
89907SOL     OW71559   7.056  11.584  11.040
89907SOL    HW171560   7.029  11.539  10.960
89907SOL    HW271561   7.040  11.520  11.110
89908SOL     OW71562  10.898  10.591   6.853
89908SOL    HW171563  10.910  10.682   6.881
89908SOL    HW271564  10.879  10.544   6.934
89909SOL     OW71565   3.221   9.484   6.987
89909SOL    HW171566   3.156   9.415   7.001
89909SOL    HW271567   3.277   9.451   6.917
89910SOL     OW71568   1.600  10.813  14.651
89910SOL    HW171569   1.623  10.722  14.665
89910SOL    HW271570   1.518  10.825  14.700
89911SOL     OW71571   5.438   7.481  13.294
89911SOL    HW171572   5.481   7.558  13.330
89911SOL    HW271573   5.347   7.508  13.282
89912SOL     OW71574   0.932   8.993   7.046
89912SOL    HW171575   0.983   9.074   7.056
89912SOL    HW271576   0.991   8.933   7.001
89913SOL     OW71577  12.186   7.515   9.940
89913SOL    HW171578  12.249   7.547  10.005
89913SOL    HW271579  12.102   7.547   9.970
89914SOL     OW71580   3.551  11.804   1.959
89914SOL    HW171581   3.516  11.719   1.932
89914SOL    HW271582   3.642  11.803   1.929
89915SOL     OW71583  11.019   8.075   2.928
89915SOL    HW171584  10.980   8.142   2.871
89915SOL    HW271585  10.982   7.993   2.895
89916SOL     OW71586   8.424   1.350   6.753
89916SOL    HW171587   8.426   1.400   6.671
89916SOL    HW271588   8.332   1.328   6.766
89917SOL     OW71589   5.408   6.470   3.694
89917SOL    HW171590   5.440   6.558   3.674
89917SOL    HW271591   5.424   6.419   3.615
89918SOL     OW71592  13.896  11.724  12.722
89918SOL    HW171593  13.866  11.660  12.658
89918SOL    HW271594  13.988  11.740  12.701
89919SOL     OW71595   2.794   5.738   8.283
89919SOL    HW171596   2.798   5.643   8.285
89919SOL    HW271597   2.835   5.766   8.365
89920SOL     OW71598  12.713   8.620  12.884
89920SOL    HW171599  12.748   8.660  12.804
89920SOL    HW271600  12.631   8.665  12.900
89921SOL     OW71601   1.875   6.836   8.208
89921SOL    HW171602   1.857   6.905   8.145
89921SOL    HW271603   1.965   6.809   8.189
89922SOL     OW71604   5.904   7.179   9.495
89922SOL    HW171605   5.884   7.214   9.582
89922SOL    HW271606   5.995   7.206   9.479
89923SOL     OW71607   3.459  10.999   3.975
89923SOL    HW171608   3.519  10.982   4.048
89923SOL    HW271609   3.375  11.017   4.018
89924SOL     OW71610   0.021  14.131   7.329
89924SOL    HW171611   0.047  14.151   7.418
89924SOL    HW271612  14.815  14.088   7.338
89925SOL     OW71613   9.942  12.085  11.285
89925SOL    HW171614  10.019  12.030  11.301
89925SOL    HW271615   9.932  12.136  11.365
89926SOL     OW71616   4.633   9.992  11.768
89926SOL    HW171617   4.713   9.942  11.756
89926SOL    HW271618   4.565   9.926  11.780
89927SOL     OW71619  14.108  12.811   2.967
89927SOL    HW171620  14.030  12.829   3.019
89927SOL    HW271621  14.088  12.850   2.881
89928SOL     OW71622   8.338   1.802   3.771
89928SOL    HW171623   8.335   1.879   3.828
89928SOL    HW271624   8.373   1.732   3.826
89929SOL     OW71625  13.413  14.523   3.036
89929SOL    HW171626  13.366  14.494   2.957
89929SOL    HW271627  13.387  14.615   3.046
89930SOL     OW71628   9.753   5.595   9.726
89930SOL    HW171629   9.808   5.585   9.649
89930SOL    HW271630   9.809   5.638   9.791
89931SOL     OW71631  11.566  12.427   2.043
89931SOL    HW171632  11.502  12.466   2.102
89931SOL    HW271633  11.520  12.420   1.959
89932SOL     OW71634   9.352   4.713   4.546
89932SOL    HW171635   9.335   4.776   4.476
89932SOL    HW271636   9.267   4.702   4.589
89933SOL     OW71637  12.366   2.876   4.198
89933SOL    HW171638  12.380   2.934   4.123
89933SOL    HW271639  12.333   2.934   4.267
89934SOL     OW71640   6.273   2.091   6.313
89934SOL    HW171641   6.348   2.130   6.269
89934SOL    HW271642   6.198   2.117   6.260
89935SOL     OW71643  11.407  11.740   0.435
89935SOL    HW171644  11.427  11.647   0.424
89935SOL    HW271645  11.480  11.785   0.392
89936SOL     OW71646   1.930   3.480   9.663
89936SOL    HW171647   1.930   3.482   9.567
89936SOL    HW271648   1.982   3.403   9.686
89937SOL     OW71649   9.681   6.548   1.116
89937SOL    HW171650   9.621   6.536   1.043
89937SOL    HW271651   9.766   6.566   1.076
89938SOL     OW71652   7.706  14.008   7.883
89938SOL    HW171653   7.675  14.076   7.823
89938SOL    HW271654   7.665  14.029   7.967
89939SOL     OW71655   3.541   6.493   7.501
89939SOL    HW171656   3.515   6.404   7.524
89939SOL    HW271657   3.467   6.547   7.528
89940SOL     OW71658   2.639  10.571  12.865
89940SOL    HW171659   2.669  10.637  12.927
89940SOL    HW271660   2.600  10.621  12.793
89941SOL     OW71661   3.870   2.342  10.104
89941SOL    HW171662   3.810   2.327  10.177
89941SOL    HW271663   3.934   2.271  10.111
89942SOL     OW71664   7.662   4.013   4.961
89942SOL    HW171665   7.617   3.957   4.899
89942SOL    HW271666   7.616   4.000   5.044
89943SOL     OW71667   4.521   3.960  11.468
89943SOL    HW171668   4.478   4.009  11.538
89943SOL    HW271669   4.601   4.009  11.450
89944SOL     OW71670   9.210   3.075  13.866
89944SOL    HW171671   9.129   3.036  13.898
89944SOL    HW271672   9.272   3.003  13.862
89945SOL     OW71673   3.005   1.695   1.213
89945SOL    HW171674   2.950   1.710   1.136
89945SOL    HW271675   2.946   1.704   1.288
89946SOL     OW71676   0.884   4.808   3.163
89946SOL    HW171677   0.826   4.746   3.208
89946SOL    HW271678   0.840   4.825   3.079
89947SOL     OW71679   4.416   1.201   1.803
89947SOL    HW171680   4.498   1.153   1.793
89947SOL    HW271681   4.366   1.148   1.866
89948SOL     OW71682   1.072   3.832   7.652
89948SOL    HW171683   0.983   3.807   7.628
89948SOL    HW271684   1.112   3.861   7.571
89949SOL     OW71685   6.461   7.639   8.249
89949SOL    HW171686   6.539   7.663   8.200
89949SOL    HW271687   6.480   7.551   8.284
89950SOL     OW71688  10.901   6.179  13.928
89950SOL    HW171689  10.839   6.113  13.898
89950SOL    HW271690  10.847   6.250  13.962
89951SOL     OW71691   2.502   0.480  14.357
89951SOL    HW171692   2.597   0.470  14.355
89951SOL    HW271693   2.485   0.532  14.436
89952SOL     OW71694  11.124   9.611   4.862
89952SOL    HW171695  11.130   9.702   4.890
89952SOL    HW271696  11.109   9.615   4.767
89953SOL     OW71697   4.824   2.598   3.477
89953SOL    HW171698   4.731   2.581   3.493
89953SOL    HW271699   4.850   2.527   3.418
89954SOL     OW71700  10.902   2.080   8.110
89954SOL    HW171701  10.897   2.171   8.140
89954SOL    HW271702  10.921   2.030   8.189
89955SOL     OW71703  11.961   0.872   1.033
89955SOL    HW171704  11.970   0.901   0.943
89955SOL    HW271705  11.875   0.831   1.037
89956SOL     OW71706   9.986  11.081  14.521
89956SOL    HW171707   9.961  11.056  14.610
89956SOL    HW271708  10.078  11.057  14.513
89957SOL     OW71709   2.278   6.273  14.310
89957SOL    HW171710   2.225   6.269  14.231
89957SOL    HW271711   2.338   6.198  14.303
89958SOL     OW71712   9.038  12.131   6.118
89958SOL    HW171713   9.097  12.124   6.043
89958SOL    HW271714   8.953  12.152   6.078
89959SOL     OW71715   9.510   5.843  13.942
89959SOL    HW171716   9.474   5.794  14.016
89959SOL    HW271717   9.604   5.845  13.958
89960SOL     OW71718   8.911   1.644   8.148
89960SOL    HW171719   8.939   1.729   8.183
89960SOL    HW271720   8.990   1.606   8.111
89961SOL     OW71721  14.122   7.270  11.266
89961SOL    HW171722  14.183   7.325  11.314
89961SOL    HW271723  14.038   7.284  11.308
89962SOL     OW71724   5.513   7.237   7.835
89962SOL    HW171725   5.563   7.301   7.783
89962SOL    HW271726   5.554   7.153   7.816
89963SOL     OW71727   8.708   0.046   5.887
89963SOL    HW171728   8.797   0.049   5.850
89963SOL    HW271729   8.722   0.055   5.981
89964SOL     OW71730   8.275   0.067   6.597
89964SOL    HW171731   8.371   0.069   6.598
89964SOL    HW271732   8.251   0.128   6.526
89965SOL     OW71733   3.697   4.238  14.200
89965SOL    HW171734   3.604   4.239  14.177
89965SOL    HW271735   3.730   4.323  14.172
89966SOL     OW71736   9.682   9.747  10.989
89966SOL    HW171737   9.643   9.702  10.914
89966SOL    HW271738   9.776   9.748  10.971
89967SOL     OW71739   3.747   7.323   8.170
89967SOL    HW171740   3.688   7.282   8.107
89967SOL    HW271741   3.805   7.252   8.198
89968SOL     OW71742   8.109   8.528   6.440
89968SOL    HW171743   8.106   8.451   6.496
89968SOL    HW271744   8.028   8.524   6.388
89969SOL     OW71745   2.066  13.846   9.554
89969SOL    HW171746   2.142  13.903   9.548
89969SOL    HW271747   2.003  13.884   9.493
89970SOL     OW71748  14.289  14.533   1.757
89970SOL    HW171749  14.228  14.470   1.718
89970SOL    HW271750  14.367  14.529   1.701
89971SOL     OW71751  13.701   9.789   3.096
89971SOL    HW171752  13.689   9.726   3.167
89971SOL    HW271753  13.675   9.741   3.017
89972SOL     OW71754  10.965   5.578   3.824
89972SOL    HW171755  11.008   5.496   3.848
89972SOL    HW271756  10.974   5.583   3.729
89973SOL     OW71757   6.620  14.840  10.739
89973SOL    HW171758   6.682  14.855  10.668
89973SOL    HW271759   6.656  14.764  10.786
89974SOL     OW71760   4.244   8.581   6.235
89974SOL    HW171761   4.268   8.518   6.303
89974SOL    HW271762   4.226   8.662   6.282
89975SOL     OW71763   8.824  14.020   7.947
89975SOL    HW171764   8.830  14.041   7.854
89975SOL    HW271765   8.868  13.936   7.956
89976SOL     OW71766  12.318   9.274   4.679
89976SOL    HW171767  12.282   9.185   4.673
89976SOL    HW271768  12.313   9.307   4.589
89977SOL     OW71769   8.918   4.132   3.000
89977SOL    HW171770   8.988   4.179   3.046
89977SOL    HW271771   8.959   4.104   2.918
89978SOL     OW71772   0.683   1.337   8.885
89978SOL    HW171773   0.603   1.388   8.899
89978SOL    HW271774   0.751   1.404   8.871
89979SOL     OW71775   0.032   4.352   8.346
89979SOL    HW171776   0.010   4.443   8.368
89979SOL    HW271777   0.038   4.351   8.251
89980SOL     OW71778   6.157   2.394  11.142
89980SOL    HW171779   6.220   2.326  11.117
89980SOL    HW271780   6.154   2.451  11.065
89981SOL     OW71781  14.641   7.502   7.847
89981SOL    HW171782  14.715   7.486   7.788
89981SOL    HW271783  14.591   7.571   7.803
89982SOL     OW71784   4.719   5.937  12.942
89982SOL    HW171785   4.682   5.860  12.984
89982SOL    HW271786   4.700   5.925  12.849
89983SOL     OW71787   2.844  12.075   4.468
89983SOL    HW171788   2.806  12.081   4.380
89983SOL    HW271789   2.769  12.064   4.526
89984SOL     OW71790  11.222  14.520   5.152
89984SOL    HW171791  11.144  14.535   5.099
89984SOL    HW271792  11.222  14.591   5.217
89985SOL     OW71793  14.428   5.554   4.819
89985SOL    HW171794  14.423   5.638   4.775
89985SOL    HW271795  14.389   5.492   4.758
89986SOL     OW71796   0.636   6.708   1.984
89986SOL    HW171797   0.612   6.631   2.035
89986SOL    HW271798   0.691   6.760   2.043
89987SOL     OW71799   2.521   9.746   9.262
89987SOL    HW171800   2.536   9.772   9.172
89987SOL    HW271801   2.510   9.828   9.310
89988SOL     OW71802   7.413   2.933  12.547
89988SOL    HW171803   7.454   2.850  12.572
89988SOL    HW271804   7.449   2.952  12.460
89989SOL     OW71805   8.056   1.469  14.582
89989SOL    HW171806   8.043   1.448  14.489
89989SOL    HW271807   8.083   1.387  14.622
89990SOL     OW71808   2.873   2.545   2.955
89990SOL    HW171809   2.806   2.573   3.017
89990SOL    HW271810   2.851   2.590   2.874
89991SOL     OW71811   4.320  10.910   5.939
89991SOL    HW171812   4.292  10.905   5.848
89991SOL    HW271813   4.393  10.972   5.939
89992SOL     OW71814   4.564   0.093   0.373
89992SOL    HW171815   4.606   0.013   0.406
89992SOL    HW271816   4.576   0.089   0.278
89993SOL     OW71817  10.402  14.335   0.065
89993SOL    HW171818  10.462  14.403   0.034
89993SOL    HW271819  10.459  14.269   0.105
89994SOL     OW71820   7.726   7.385   7.885
89994SOL    HW171821   7.798   7.403   7.946
89994SOL    HW271822   7.725   7.290   7.877
89995SOL     OW71823  13.660  13.149   6.738
89995SOL    HW171824  13.577  13.107   6.717
89995SOL    HW271825  13.687  13.109   6.821
89996SOL     OW71826   8.304   3.967   3.550
89996SOL    HW171827   8.224   3.995   3.593
89996SOL    HW271828   8.317   3.877   3.579
89997SOL     OW71829   9.127   7.902   3.493
89997SOL    HW171830   9.096   7.840   3.559
89997SOL    HW271831   9.220   7.882   3.482
89998SOL     OW71832  10.672   5.337  12.261
89998SOL    HW171833  10.746   5.293  12.304
89998SOL    HW271834  10.712   5.383  12.187
89999SOL     OW71835   3.248  14.267  11.719
89999SOL    HW171836   3.316  14.279  11.653
89999SOL    HW271837   3.289  14.213  11.786
90000SOL     OW71838   3.662   4.894  11.828
90000SOL    HW171839   3.611   4.813  11.831
90000SOL    HW271840   3.633   4.943  11.905
90001SOL     OW71841   7.030   5.922  11.875
90001SOL    HW171842   7.064   5.990  11.817
90001SOL    HW271843   7.080   5.844  11.851
90002SOL     OW71844   5.771  13.832  12.265
90002SOL    HW171845   5.753  13.910  12.213
90002SOL    HW271846   5.859  13.804  12.237
90003SOL     OW71847   7.138   3.433  13.935
90003SOL    HW171848   7.089   3.473  14.007
90003SOL    HW271849   7.207   3.383  13.978
90004SOL     OW71850  12.862  12.851  12.285
90004SOL    HW171851  12.934  12.908  12.313
90004SOL    HW271852  12.858  12.784  12.353
90005SOL     OW71853   2.251   4.552  13.767
90005SOL    HW171854   2.198   4.615  13.718
90005SOL    HW271855   2.266   4.481  13.706
90006SOL     OW71856  10.969   3.164  13.836
90006SOL    HW171857  11.027   3.108  13.889
90006SOL    HW271858  11.029   3.214  13.781
90007SOL     OW71859   7.227   3.769   6.988
90007SOL    HW171860   7.135   3.763   6.964
90007SOL    HW271861   7.272   3.795   6.908
90008SOL     OW71862  12.971  14.119  10.868
90008SOL    HW171863  12.972  14.176  10.791
90008SOL    HW271864  12.936  14.036  10.836
90009SOL     OW71865   4.017  12.824  12.745
90009SOL    HW171866   4.019  12.918  12.727
90009SOL    HW271867   3.928  12.806  12.773
90010SOL     OW71868   4.827   0.045   5.527
90010SOL    HW171869   4.882   0.123   5.517
90010SOL    HW271870   4.869  14.873   5.595
90011SOL     OW71871   0.086  11.242   9.392
90011SOL    HW171872   0.181  11.252   9.388
90011SOL    HW271873   0.054  11.287   9.314
90012SOL     OW71874  11.200   4.333  11.779
90012SOL    HW171875  11.176   4.251  11.735
90012SOL    HW271876  11.276   4.365  11.730
90013SOL     OW71877   8.242   7.643   9.599
90013SOL    HW171878   8.225   7.735   9.620
90013SOL    HW271879   8.253   7.600   9.684
90014SOL     OW71880   7.733  14.202   4.320
90014SOL    HW171881   7.734  14.296   4.337
90014SOL    HW271882   7.640  14.183   4.304
90015SOL     OW71883   1.154   2.263   1.661
90015SOL    HW171884   1.124   2.213   1.736
90015SOL    HW271885   1.247   2.244   1.654
90016SOL     OW71886   8.532   6.682   1.769
90016SOL    HW171887   8.608   6.630   1.796
90016SOL    HW271888   8.466   6.618   1.745
90017SOL     OW71889  10.706   6.254   4.531
90017SOL    HW171890  10.708   6.211   4.446
90017SOL    HW271891  10.745   6.340   4.516
90018SOL     OW71892   5.968  10.096   0.600
90018SOL    HW171893   5.909  10.110   0.526
90018SOL    HW271894   5.988  10.184   0.632
90019SOL     OW71895  11.111   1.409   3.624
90019SOL    HW171896  11.077   1.498   3.637
90019SOL    HW271897  11.168   1.395   3.700
90020SOL     OW71898  14.728   8.349   8.024
90020SOL    HW171899  14.790   8.375   8.092
90020SOL    HW271900  14.673   8.283   8.066
90021SOL     OW71901  10.948   3.474   4.996
90021SOL    HW171902  10.923   3.538   5.063
90021SOL    HW271903  10.934   3.520   4.913
90022SOL     OW71904  10.618   2.654  13.446
90022SOL    HW171905  10.663   2.642  13.529
90022SOL    HW271906  10.569   2.735  13.457
90023SOL     OW71907   3.939  14.479   4.421
90023SOL    HW171908   4.011  14.457   4.481
90023SOL    HW271909   3.962  14.436   4.339
90024SOL     OW71910   7.028  10.458   4.362
90024SOL    HW171911   6.955  10.403   4.333
90024SOL    HW271912   7.068  10.489   4.281
90025SOL     OW71913  12.276   6.341   1.216
90025SOL    HW171914  12.340   6.307   1.278
90025SOL    HW271915  12.218   6.266   1.198
90026SOL     OW71916  13.016   5.586   0.132
90026SOL    HW171917  12.958   5.662   0.124
90026SOL    HW271918  13.016   5.547   0.045
90027SOL     OW71919  13.942  12.586   1.779
90027SOL    HW171920  13.998  12.509   1.790
90027SOL    HW271921  13.869  12.571   1.839
90028SOL     OW71922  14.486   5.812   9.090
90028SOL    HW171923  14.399   5.775   9.103
90028SOL    HW271924  14.477   5.867   9.012
90029SOL     OW71925  11.934   4.900   2.099
90029SOL    HW171926  11.891   4.975   2.139
90029SOL    HW271927  11.875   4.826   2.117
90030SOL     OW71928   5.130  10.029   5.834
90030SOL    HW171929   5.167  10.079   5.907
90030SOL    HW271930   5.203   9.975   5.803
90031SOL     OW71931   7.328   6.154   8.315
90031SOL    HW171932   7.300   6.204   8.239
90031SOL    HW271933   7.292   6.067   8.302
90032SOL     OW71934   7.739   5.868  10.214
90032SOL    HW171935   7.727   5.892  10.306
90032SOL    HW271936   7.685   5.790  10.202
90033SOL     OW71937   4.752   7.153   6.552
90033SOL    HW171938   4.811   7.084   6.521
90033SOL    HW271939   4.782   7.232   6.507
90034SOL     OW71940   2.493   3.109   0.969
90034SOL    HW171941   2.473   3.070   0.884
90034SOL    HW271942   2.586   3.130   0.963
90035SOL     OW71943   3.329  11.469   0.636
90035SOL    HW171944   3.234  11.463   0.626
90035SOL    HW271945   3.356  11.380   0.660
90036SOL     OW71946   2.275  11.502   4.728
90036SOL    HW171947   2.344  11.528   4.789
90036SOL    HW271948   2.211  11.573   4.732
90037SOL     OW71949   6.559   1.983  14.582
90037SOL    HW171950   6.562   1.890  14.559
90037SOL    HW271951   6.591   1.986  14.672
90038SOL     OW71952  14.550  13.127   3.105
90038SOL    HW171953  14.539  13.104   3.013
90038SOL    HW271954  14.514  13.216   3.112
90039SOL     OW71955   5.907   1.746  14.365
90039SOL    HW171956   5.859   1.779  14.289
90039SOL    HW271957   5.842   1.747  14.436
90040SOL     OW71958   5.079  10.862  11.946
90040SOL    HW171959   5.077  10.918  11.869
90040SOL    HW271960   5.170  10.832  11.951
90041SOL     OW71961  12.628  14.104   1.993
90041SOL    HW171962  12.626  14.027   2.049
90041SOL    HW271963  12.545  14.102   1.946
90042SOL     OW71964   2.357   3.500  12.015
90042SOL    HW171965   2.330   3.562  12.084
90042SOL    HW271966   2.287   3.506  11.950
90043SOL     OW71967   0.088   0.952   1.120
90043SOL    HW171968   0.013   0.930   1.064
90043SOL    HW271969   0.049   0.974   1.205
90044SOL     OW71970   6.852   3.612   6.313
90044SOL    HW171971   6.876   3.638   6.402
90044SOL    HW271972   6.844   3.517   6.317
90045SOL     OW71973   0.054   7.469  13.875
90045SOL    HW171974  14.862   7.533  13.874
90045SOL    HW271975   0.100   7.487  13.957
90046SOL     OW71976   0.774  10.558   5.139
90046SOL    HW171977   0.754  10.651   5.148
90046SOL    HW271978   0.832  10.553   5.063
90047SOL     OW71979  11.336   5.672   7.079
90047SOL    HW171980  11.402   5.742   7.086
90047SOL    HW271981  11.257   5.717   7.050
90048SOL     OW71982   6.903   9.547  10.193
90048SOL    HW171983   6.963   9.570  10.265
90048SOL    HW271984   6.899   9.626  10.139
90049SOL     OW71985  13.036  10.109   0.338
90049SOL    HW171986  12.960  10.165   0.347
90049SOL    HW271987  13.009  10.025   0.376
90050SOL     OW71988   1.894   6.132   5.669
90050SOL    HW171989   1.799   6.127   5.658
90050SOL    HW271990   1.911   6.085   5.750
90051SOL     OW71991   4.805   3.166  11.463
90051SOL    HW171992   4.790   3.084  11.416
90051SOL    HW271993   4.900   3.175  11.467
90052SOL     OW71994   2.475   0.676   3.241
90052SOL    HW171995   2.503   0.618   3.311
90052SOL    HW271996   2.537   0.660   3.170
90053SOL     OW71997  11.416  13.891   9.673
90053SOL    HW171998  11.422  13.844   9.756
90053SOL    HW271999  11.344  13.953   9.685
90054SOL     OW72000   6.113   8.809   2.790
90054SOL    HW172001   6.031   8.790   2.744
90054SOL    HW272002   6.134   8.729   2.837
90055SOL     OW72003  10.376  12.066   0.132
90055SOL    HW172004  10.345  11.977   0.116
90055SOL    HW272005  10.416  12.062   0.219
90056SOL     OW72006   1.681   6.447   9.967
90056SOL    HW172007   1.620   6.490  10.026
90056SOL    HW272008   1.722   6.519   9.919
90057SOL     OW72009   0.262  13.774  10.458
90057SOL    HW172010   0.318  13.752  10.384
90057SOL    HW272011   0.323  13.802  10.526
90058SOL     OW72012   3.757   4.142  13.219
90058SOL    HW172013   3.831   4.190  13.184
90058SOL    HW272014   3.721   4.199  13.287
90059SOL     OW72015   7.973   2.280  12.271
90059SOL    HW172016   7.909   2.341  12.232
90059SOL    HW272017   7.922   2.231  12.336
90060SOL     OW72018  13.804   9.380  13.321
90060SOL    HW172019  13.836   9.459  13.365
90060SOL    HW272020  13.746   9.339  13.385
90061SOL     OW72021   1.481   4.640  14.212
90061SOL    HW172022   1.403   4.685  14.179
90061SOL    HW272023   1.447   4.578  14.276
90062SOL     OW72024   4.642  12.934   0.066
90062SOL    HW172025   4.680  12.917  14.859
90062SOL    HW272026   4.571  12.996   0.049
90063SOL     OW72027   1.936   8.496   6.655
90063SOL    HW172028   1.988   8.519   6.578
90063SOL    HW272029   1.913   8.581   6.693
90064SOL     OW72030   1.414   6.028   3.778
90064SOL    HW172031   1.357   6.063   3.846
90064SOL    HW272032   1.355   5.991   3.713
90065SOL     OW72033   7.958   8.102   1.713
90065SOL    HW172034   7.867   8.099   1.681
90065SOL    HW272035   8.008   8.052   1.649
90066SOL     OW72036   5.987   9.450   5.975
90066SOL    HW172037   6.019   9.538   5.997
90066SOL    HW272038   6.024   9.393   6.043
90067SOL     OW72039   0.563  10.228   2.383
90067SOL    HW172040   0.605  10.290   2.325
90067SOL    HW272041   0.582  10.260   2.471
90068SOL     OW72042   9.220   0.671  14.797
90068SOL    HW172043   9.295   0.651  14.742
90068SOL    HW272044   9.233   0.763  14.822
90069SOL     OW72045   3.216   5.040   3.866
90069SOL    HW172046   3.134   5.007   3.829
90069SOL    HW272047   3.255   5.091   3.795
90070SOL     OW72048   8.054   9.566   1.074
90070SOL    HW172049   8.109   9.605   1.143
90070SOL    HW272050   8.110   9.567   0.996
90071SOL     OW72051   7.443   6.698   3.830
90071SOL    HW172052   7.446   6.630   3.764
90071SOL    HW272053   7.490   6.772   3.792
90072SOL     OW72054   9.352   0.813  14.479
90072SOL    HW172055   9.258   0.809  14.465
90072SOL    HW272056   9.378   0.898  14.443
90073SOL     OW72057   2.553   7.562  12.048
90073SOL    HW172058   2.601   7.584  12.128
90073SOL    HW272059   2.519   7.474  12.064
90074SOL     OW72060   0.561   1.528   1.549
90074SOL    HW172061   0.644   1.501   1.511
90074SOL    HW272062   0.562   1.493   1.638
90075SOL     OW72063  12.152  10.941   1.576
90075SOL    HW172064  12.109  10.914   1.657
90075SOL    HW272065  12.080  10.962   1.517
90076SOL     OW72066   3.816   1.337  13.397
90076SOL    HW172067   3.821   1.242  13.383
90076SOL    HW272068   3.807   1.346  13.492
90077SOL     OW72069   3.312  10.523   5.772
90077SOL    HW172070   3.231  10.569   5.749
90077SOL    HW272071   3.360  10.515   5.689
90078SOL     OW72072  12.386   3.138   9.774
90078SOL    HW172073  12.399   3.133   9.679
90078SOL    HW272074  12.299   3.100   9.788
90079SOL     OW72075   3.281  13.631   0.062
90079SOL    HW172076   3.211  13.569   0.084
90079SOL    HW272077   3.279  13.637  14.846
90080SOL     OW72078  13.949   6.116   5.628
90080SOL    HW172079  14.037   6.153   5.614
90080SOL    HW272080  13.955   6.027   5.595
90081SOL     OW72081  10.945   5.701  11.100
90081SOL    HW172082  10.968   5.680  11.191
90081SOL    HW272083  10.884   5.632  11.075
90082SOL     OW72084   2.262  11.717   0.116
90082SOL    HW172085   2.343  11.683   0.077
90082SOL    HW272086   2.278  11.810   0.126
90083SOL     OW72087  10.439   9.165  14.217
90083SOL    HW172088  10.422   9.235  14.155
90083SOL    HW272089  10.360   9.163  14.273
90084SOL     OW72090   5.503   8.475   6.267
90084SOL    HW172091   5.512   8.542   6.199
90084SOL    HW272092   5.590   8.470   6.307
90085SOL     OW72093   7.935  11.488   1.521
90085SOL    HW172094   8.003  11.549   1.550
90085SOL    HW272095   7.904  11.525   1.439
90086SOL     OW72096   0.381   8.521   7.290
90086SOL    HW172097   0.462   8.561   7.261
90086SOL    HW272098   0.409   8.450   7.349
90087SOL     OW72099  10.923  10.424   4.613
90087SOL    HW172100  10.942  10.437   4.706
90087SOL    HW272101  10.922  10.512   4.576
90088SOL     OW72102   9.655   0.654  11.814
90088SOL    HW172103   9.667   0.602  11.893
90088SOL    HW272104   9.692   0.601  11.744
90089SOL     OW72105  12.243   1.197   2.051
90089SOL    HW172106  12.237   1.138   2.126
90089SOL    HW272107  12.273   1.280   2.088
90090SOL     OW72108   8.126   0.035   3.190
90090SOL    HW172109   8.217   0.011   3.205
90090SOL    HW272110   8.083   0.018   3.274
90091SOL     OW72111  12.463  13.861   5.014
90091SOL    HW172112  12.438  13.770   5.030
90091SOL    HW272113  12.546  13.856   4.967
90092SOL     OW72114  12.426  11.148   1.769
90092SOL    HW172115  12.423  11.217   1.835
90092SOL    HW272116  12.416  11.194   1.686
90093SOL     OW72117   5.882  12.595   9.080
90093SOL    HW172118   5.922  12.577   8.995
90093SOL    HW272119   5.841  12.681   9.069
90094SOL     OW72120   2.976   9.239   6.415
90094SOL    HW172121   3.052   9.186   6.393
90094SOL    HW272122   3.002   9.329   6.391
90095SOL     OW72123   1.406  11.830   8.333
90095SOL    HW172124   1.463  11.835   8.257
90095SOL    HW272125   1.325  11.873   8.305
90096SOL     OW72126   5.770   1.266   2.666
90096SOL    HW172127   5.757   1.361   2.666
90096SOL    HW272128   5.727   1.236   2.586
90097SOL     OW72129   6.826  12.737   7.572
90097SOL    HW172130   6.828  12.668   7.506
90097SOL    HW272131   6.902  12.792   7.551
90098SOL     OW72132   4.077   6.196   8.350
90098SOL    HW172133   4.068   6.291   8.351
90098SOL    HW272134   4.064   6.169   8.441
90099SOL     OW72135  14.774   7.458  12.968
90099SOL    HW172136  14.809   7.513  12.898
90099SOL    HW272137  14.727   7.388  12.923
90100SOL     OW72138   7.205   6.830   8.404
90100SOL    HW172139   7.196   6.830   8.309
90100SOL    HW272140   7.273   6.766   8.421
90101SOL     OW72141  10.579  14.736   3.318
90101SOL    HW172142  10.595  14.643   3.304
90101SOL    HW272143  10.579  14.748   3.413
90102SOL     OW72144  13.136   3.882   9.897
90102SOL    HW172145  13.155   3.902   9.805
90102SOL    HW272146  13.216   3.906   9.943
90103SOL     OW72147  13.186   3.123   3.177
90103SOL    HW172148  13.241   3.131   3.099
90103SOL    HW272149  13.175   3.213   3.208
90104SOL     OW72150   8.495   7.720   9.479
90104SOL    HW172151   8.540   7.635   9.484
90104SOL    HW272152   8.405   7.701   9.503
90105SOL     OW72153  10.157  11.720   8.545
90105SOL    HW172154  10.086  11.695   8.486
90105SOL    HW272155  10.166  11.814   8.535
90106SOL     OW72156   8.530   7.409   3.292
90106SOL    HW172157   8.505   7.345   3.359
90106SOL    HW272158   8.505   7.494   3.330
90107SOL     OW72159   8.998   7.769   1.958
90107SOL    HW172160   8.908   7.798   1.950
90107SOL    HW272161   8.994   7.673   1.951
90108SOL     OW72162   8.746  13.552   4.136
90108SOL    HW172163   8.651  13.541   4.140
90108SOL    HW272164   8.776  13.538   4.226
90109SOL     OW72165   4.888   7.253   9.498
90109SOL    HW172166   4.911   7.336   9.457
90109SOL    HW272167   4.958   7.236   9.561
90110SOL     OW72168   3.580   9.112   9.644
90110SOL    HW172169   3.633   9.046   9.599
90110SOL    HW272170   3.623   9.123   9.729
90111SOL     OW72171  12.539   4.806   2.156
90111SOL    HW172172  12.476   4.779   2.088
90111SOL    HW272173  12.624   4.793   2.115
90112SOL     OW72174   4.443  12.836  12.631
90112SOL    HW172175   4.522  12.794  12.664
90112SOL    HW272176   4.375  12.810  12.693
90113SOL     OW72177  13.297  10.415   6.275
90113SOL    HW172178  13.365  10.351   6.250
90113SOL    HW272179  13.294  10.476   6.201
90114SOL     OW72180   7.533  12.918   9.223
90114SOL    HW172181   7.457  12.875   9.183
90114SOL    HW272182   7.609  12.875   9.183
90115SOL     OW72183  12.566   2.004  11.588
90115SOL    HW172184  12.574   2.079  11.647
90115SOL    HW272185  12.533   1.933  11.643
90116SOL     OW72186   2.669   7.836  12.319
90116SOL    HW172187   2.753   7.851  12.364
90116SOL    HW272188   2.612   7.905  12.352
90117SOL     OW72189   1.433   6.370   9.829
90117SOL    HW172190   1.477   6.383   9.745
90117SOL    HW272191   1.504   6.372   9.894
90118SOL     OW72192   2.236   6.469   9.827
90118SOL    HW172193   2.155   6.420   9.835
90118SOL    HW272194   2.212   6.559   9.847
90119SOL     OW72195   7.424   9.195  12.942
90119SOL    HW172196   7.458   9.177  12.855
90119SOL    HW272197   7.366   9.121  12.961
90120SOL     OW72198   4.030   0.944  11.034
90120SOL    HW172199   4.023   1.026  10.986
90120SOL    HW272200   4.124   0.932  11.047
90121SOL     OW72201  14.587   2.128   5.296
90121SOL    HW172202  14.599   2.036   5.318
90121SOL    HW272203  14.498   2.134   5.263
90122SOL     OW72204  11.597   2.871   7.719
90122SOL    HW172205  11.560   2.922   7.647
90122SOL    HW272206  11.635   2.794   7.676
90123SOL     OW72207   2.396   5.345  14.226
90123SOL    HW172208   2.318   5.398  14.241
90123SOL    HW272209   2.464   5.407  14.201
90124SOL     OW72210  10.557  11.529   1.072
90124SOL    HW172211  10.533  11.594   1.138
90124SOL    HW272212  10.609  11.464   1.120
90125SOL     OW72213   6.398   1.287   9.441
90125SOL    HW172214   6.369   1.374   9.468
90125SOL    HW272215   6.330   1.257   9.381
90126SOL     OW72216   1.119   2.311   4.474
90126SOL    HW172217   1.033   2.272   4.493
90126SOL    HW272218   1.101   2.405   4.466
90127SOL     OW72219  14.462   4.417  12.500
90127SOL    HW172220  14.526   4.486  12.516
90127SOL    HW272221  14.479   4.351  12.568
90128SOL     OW72222   0.051   8.735  10.399
90128SOL    HW172223   0.018   8.819  10.364
90128SOL    HW272224   0.098   8.696  10.325
90129SOL     OW72225  10.513   8.204   8.481
90129SOL    HW172226  10.485   8.229   8.393
90129SOL    HW272227  10.589   8.148   8.468
90130SOL     OW72228   6.107   7.452  11.760
90130SOL    HW172229   6.139   7.416  11.843
90130SOL    HW272230   6.158   7.406  11.694
90131SOL     OW72231  13.320   4.750  11.501
90131SOL    HW172232  13.362   4.665  11.513
90131SOL    HW272233  13.227   4.730  11.493
90132SOL     OW72234   3.276   8.753   9.515
90132SOL    HW172235   3.263   8.709   9.599
90132SOL    HW272236   3.256   8.845   9.533
90133SOL     OW72237   9.375   2.573   8.296
90133SOL    HW172238   9.429   2.556   8.219
90133SOL    HW272239   9.355   2.666   8.292
90134SOL     OW72240   1.876   0.735   9.542
90134SOL    HW172241   1.845   0.756   9.453
90134SOL    HW272242   1.949   0.795   9.556
90135SOL     OW72243  10.755   1.391   6.962
90135SOL    HW172244  10.840   1.348   6.973
90135SOL    HW272245  10.753   1.414   6.869
90136SOL     OW72246   5.635   7.397   4.384
90136SOL    HW172247   5.727   7.371   4.393
90136SOL    HW272248   5.635   7.490   4.405
90137SOL     OW72249   8.638   8.301  12.805
90137SOL    HW172250   8.688   8.220  12.793
90137SOL    HW272251   8.648   8.347  12.722
90138SOL     OW72252   0.053  10.048   4.977
90138SOL    HW172253   0.123   9.983   4.971
90138SOL    HW272254   0.086  10.113   5.038
90139SOL     OW72255   0.797   6.474   6.747
90139SOL    HW172256   0.863   6.411   6.775
90139SOL    HW272257   0.717   6.447   6.792
90140SOL     OW72258   2.609  13.242   5.052
90140SOL    HW172259   2.677  13.256   5.118
90140SOL    HW272260   2.546  13.185   5.094
90141SOL     OW72261   0.967   4.825  14.072
90141SOL    HW172262   0.986   4.798  13.982
90141SOL    HW272263   0.911   4.756  14.107
90142SOL     OW72264   2.040  12.659   8.707
90142SOL    HW172265   2.089  12.701   8.636
90142SOL    HW272266   1.976  12.725   8.733
90143SOL     OW72267   8.567   7.630  11.902
90143SOL    HW172268   8.642   7.677  11.939
90143SOL    HW272269   8.564   7.548  11.952
90144SOL     OW72270   6.854  14.501  11.815
90144SOL    HW172271   6.854  14.437  11.743
90144SOL    HW272272   6.918  14.566  11.788
90145SOL     OW72273   3.896   1.845   3.390
90145SOL    HW172274   3.851   1.792   3.456
90145SOL    HW272275   3.989   1.830   3.406
90146SOL     OW72276  10.954   7.163  13.926
90146SOL    HW172277  11.028   7.197  13.977
90146SOL    HW272278  10.880   7.164  13.986
90147SOL     OW72279  11.226  12.854  12.388
90147SOL    HW172280  11.321  12.860  12.400
90147SOL    HW272281  11.193  12.817  12.470
90148SOL     OW72282  11.498   3.569   2.886
90148SOL    HW172283  11.540   3.538   2.967
90148SOL    HW272284  11.568   3.566   2.821
90149SOL     OW72285   1.563   7.046   7.045
90149SOL    HW172286   1.544   6.952   7.051
90149SOL    HW272287   1.653   7.055   7.078
90150SOL     OW72288  10.512   5.782  10.811
90150SOL    HW172289  10.519   5.846  10.882
90150SOL    HW272290  10.461   5.711  10.848
90151SOL     OW72291  13.723   3.104  11.733
90151SOL    HW172292  13.757   3.145  11.813
90151SOL    HW272293  13.666   3.170  11.694
90152SOL     OW72294  13.926   5.478   7.432
90152SOL    HW172295  13.873   5.413   7.385
90152SOL    HW272296  13.933   5.551   7.372
90153SOL     OW72297  13.406  12.249   7.484
90153SOL    HW172298  13.398  12.171   7.429
90153SOL    HW272299  13.500  12.263   7.491
90154SOL     OW72300  13.256   8.572   4.293
90154SOL    HW172301  13.175   8.525   4.314
90154SOL    HW272302  13.254   8.583   4.198
90155SOL     OW72303  14.801  10.571   5.226
90155SOL    HW172304  14.740  10.508   5.186
90155SOL    HW272305  14.800  10.549   5.319
90156SOL     OW72306   6.048   7.262  10.794
90156SOL    HW172307   6.030   7.335  10.852
90156SOL    HW272308   6.093   7.301  10.719
90157SOL     OW72309   7.092   0.189   6.133
90157SOL    HW172310   7.113   0.268   6.083
90157SOL    HW272311   7.001   0.202   6.160
90158SOL     OW72312   1.118   2.221   0.882
90158SOL    HW172313   1.051   2.198   0.818
90158SOL    HW272314   1.200   2.191   0.843
90159SOL     OW72315   0.753   3.997   6.383
90159SOL    HW172316   0.841   4.033   6.371
90159SOL    HW272317   0.750   3.922   6.324
90160SOL     OW72318  12.067   8.057  14.432
90160SOL    HW172319  12.053   8.128  14.495
90160SOL    HW272320  11.980   8.019  14.418
90161SOL     OW72321  10.060   8.810   2.689
90161SOL    HW172322  10.025   8.821   2.600
90161SOL    HW272323  10.129   8.745   2.678
90162SOL     OW72324  11.060  10.487   3.436
90162SOL    HW172325  11.054  10.393   3.453
90162SOL    HW272326  11.049  10.528   3.522
90163SOL     OW72327   1.700   4.589  14.021
90163SOL    HW172328   1.748   4.549  14.094
90163SOL    HW272329   1.611   4.598  14.053
90164SOL     OW72330   3.732  13.815   3.667
90164SOL    HW172331   3.672  13.767   3.609
90164SOL    HW272332   3.819  13.800   3.629
90165SOL     OW72333   9.551   9.826   8.686
90165SOL    HW172334   9.470   9.775   8.690
90165SOL    HW272335   9.562   9.845   8.593
90166SOL     OW72336   3.987  14.334  12.213
90166SOL    HW172337   4.065  14.369  12.170
90166SOL    HW272338   3.925  14.317  12.142
90167SOL     OW72339  14.450   9.531  11.318
90167SOL    HW172340  14.458   9.495  11.406
90167SOL    HW272341  14.455   9.626  11.330
90168SOL     OW72342  11.792   2.925   5.356
90168SOL    HW172343  11.750   2.921   5.270
90168SOL    HW272344  11.869   2.979   5.343
90169SOL     OW72345  10.063   3.866  14.556
90169SOL    HW172346   9.999   3.801  14.525
90169SOL    HW272347  10.125   3.815  14.608
90170SOL     OW72348   9.783   0.341   3.509
90170SOL    HW172349   9.704   0.392   3.526
90170SOL    HW272350   9.770   0.305   3.421
90171SOL     OW72351   2.792   4.201  13.637
90171SOL    HW172352   2.700   4.221  13.620
90171SOL    HW272353   2.810   4.237  13.724
90172SOL     OW72354  11.500   0.862   0.048
90172SOL    HW172355  11.479   0.881   0.139
90172SOL    HW272356  11.517   0.768   0.046
90173SOL     OW72357   8.397  12.874   2.417
90173SOL    HW172358   8.440  12.872   2.331
90173SOL    HW272359   8.390  12.782   2.442
90174SOL     OW72360   7.603  11.369  11.346
90174SOL    HW172361   7.568  11.314  11.275
90174SOL    HW272362   7.563  11.455  11.331
90175SOL     OW72363   3.859   0.921   7.320
90175SOL    HW172364   3.898   0.946   7.236
90175SOL    HW272365   3.765   0.935   7.309
90176SOL     OW72366   9.697   2.982   5.303
90176SOL    HW172367   9.602   2.988   5.291
90176SOL    HW272368   9.710   2.996   5.397
90177SOL     OW72369   2.323   2.141   9.608
90177SOL    HW172370   2.334   2.048   9.591
90177SOL    HW272371   2.361   2.155   9.695
90178SOL     OW72372   7.515  11.251   0.506
90178SOL    HW172373   7.482  11.187   0.442
90178SOL    HW272374   7.547  11.197   0.578
90179SOL     OW72375   5.092  14.863   8.325
90179SOL    HW172376   5.055  14.871   8.238
90179SOL    HW272377   5.130  14.776   8.328
90180SOL     OW72378   9.409   9.960  14.668
90180SOL    HW172379   9.391   9.878  14.714
90180SOL    HW272380   9.376  10.028  14.727
90181SOL     OW72381   6.005   6.033   5.887
90181SOL    HW172382   6.004   6.033   5.983
90181SOL    HW272383   6.095   6.010   5.865
90182SOL     OW72384   3.370   6.029  11.726
90182SOL    HW172385   3.463   6.028  11.705
90182SOL    HW272386   3.327   6.043  11.641
90183SOL     OW72387   9.938   1.888  12.649
90183SOL    HW172388  10.017   1.834  12.644
90183SOL    HW272389   9.868   1.825  12.663
90184SOL     OW72390  13.825   2.284   0.183
90184SOL    HW172391  13.836   2.294   0.277
90184SOL    HW272392  13.901   2.234   0.155
90185SOL     OW72393   3.293   0.026  14.343
90185SOL    HW172394   3.289   0.075  14.425
90185SOL    HW272395   3.251  14.821  14.364
90186SOL     OW72396  13.535  11.059   2.623
90186SOL    HW172397  13.555  10.966   2.630
90186SOL    HW272398  13.618  11.103   2.644
90187SOL     OW72399  10.285   3.470   7.978
90187SOL    HW172400  10.289   3.375   7.990
90187SOL    HW272401  10.318   3.506   8.060
90188SOL     OW72402  13.254  10.942   4.889
90188SOL    HW172403  13.202  10.974   4.816
90188SOL    HW272404  13.198  10.955   4.966
90189SOL     OW72405   6.391  12.766   8.608
90189SOL    HW172406   6.376  12.672   8.613
90189SOL    HW272407   6.471  12.781   8.658
90190SOL     OW72408   2.534  13.845  13.608
90190SOL    HW172409   2.446  13.808  13.597
90190SOL    HW272410   2.591  13.786  13.559
90191SOL     OW72411   8.551  12.544  14.395
90191SOL    HW172412   8.493  12.543  14.471
90191SOL    HW272413   8.576  12.452  14.384
90192SOL     OW72414   9.034   7.050   3.797
90192SOL    HW172415   9.060   7.116   3.733
90192SOL    HW272416   8.983   7.099   3.862
90193SOL     OW72417   2.827  13.753   0.602
90193SOL    HW172418   2.913  13.795   0.594
90193SOL    HW272419   2.826  13.687   0.533
90194SOL     OW72420   1.409   5.481   6.535
90194SOL    HW172421   1.486   5.446   6.580
90194SOL    HW272422   1.336   5.430   6.569
90195SOL     OW72423   4.676   4.181   4.998
90195SOL    HW172424   4.722   4.123   4.936
90195SOL    HW272425   4.602   4.215   4.949
90196SOL     OW72426  12.475   7.768   0.941
90196SOL    HW172427  12.473   7.788   1.035
90196SOL    HW272428  12.505   7.849   0.900
90197SOL     OW72429  11.470   8.206   1.890
90197SOL    HW172430  11.399   8.151   1.855
90197SOL    HW272431  11.462   8.197   1.985
90198SOL     OW72432  13.608   5.434   0.372
90198SOL    HW172433  13.671   5.364   0.389
90198SOL    HW272434  13.528   5.388   0.347
90199SOL     OW72435  14.843  11.051   9.514
90199SOL    HW172436  14.832  11.070   9.607
90199SOL    HW272437   0.022  11.120   9.482
90200SOL     OW72438   1.963   8.165   6.548
90200SOL    HW172439   2.043   8.195   6.590
90200SOL    HW272440   1.901   8.151   6.619
90201SOL     OW72441   7.301   8.843   0.963
90201SOL    HW172442   7.393   8.849   0.990
90201SOL    HW272443   7.261   8.923   0.998
90202SOL     OW72444   9.435  12.226   0.411
90202SOL    HW172445   9.479  12.187   0.336
90202SOL    HW272446   9.500  12.221   0.482
90203SOL     OW72447   5.611   2.561  12.839
90203SOL    HW172448   5.677   2.586  12.774
90203SOL    HW272449   5.577   2.644  12.872
90204SOL     OW72450   4.356   0.898   8.767
90204SOL    HW172451   4.292   0.969   8.759
90204SOL    HW272452   4.324   0.846   8.841
90205SOL     OW72453   9.260  12.623  11.777
90205SOL    HW172454   9.312  12.543  11.766
90205SOL    HW272455   9.238  12.650  11.688
90206SOL     OW72456  13.302   5.436   1.533
90206SOL    HW172457  13.386   5.417   1.575
90206SOL    HW272458  13.237   5.406   1.596
90207SOL     OW72459   4.062   6.057   8.599
90207SOL    HW172460   4.121   6.118   8.643
90207SOL    HW272461   3.982   6.059   8.651
90208SOL     OW72462   3.640   9.953   5.863
90208SOL    HW172463   3.562  10.007   5.851
90208SOL    HW272464   3.711  10.003   5.823
90209SOL     OW72465   6.221   9.636  10.258
90209SOL    HW172466   6.149   9.620  10.318
90209SOL    HW272467   6.202   9.721  10.219
90210SOL     OW72468   1.383   2.297   4.398
90210SOL    HW172469   1.421   2.315   4.484
90210SOL    HW272470   1.292   2.275   4.416
90211SOL     OW72471  13.364   8.565   9.291
90211SOL    HW172472  13.424   8.555   9.365
90211SOL    HW272473  13.280   8.535   9.324
90212SOL     OW72474   5.916   2.018   8.304
90212SOL    HW172475   5.824   2.000   8.281
90212SOL    HW272476   5.955   2.050   8.223
90213SOL     OW72477   8.372   5.202   4.797
90213SOL    HW172478   8.323   5.276   4.763
90213SOL    HW272479   8.458   5.238   4.820
90214SOL     OW72480   4.921   7.751  10.758
90214SOL    HW172481   4.929   7.762  10.853
90214SOL    HW272482   4.903   7.839  10.726
90215SOL     OW72483   3.319  12.478  11.203
90215SOL    HW172484   3.318  12.555  11.147
90215SOL    HW272485   3.328  12.404  11.143
90216SOL     OW72486  10.264   9.407  14.105
90216SOL    HW172487  10.170   9.411  14.085
90216SOL    HW272488  10.306   9.407  14.019
90217SOL     OW72489   4.032  12.781   5.373
90217SOL    HW172490   4.012  12.869   5.343
90217SOL    HW272491   3.999  12.777   5.462
90218SOL     OW72492   7.028   4.460   4.568
90218SOL    HW172493   7.077   4.458   4.486
90218SOL    HW272494   6.936   4.456   4.542
90219SOL     OW72495   1.338   6.054   1.031
90219SOL    HW172496   1.369   6.062   1.121
90219SOL    HW272497   1.300   6.139   1.010
90220SOL     OW72498   0.311   1.401   5.290
90220SOL    HW172499   0.301   1.314   5.251
90220SOL    HW272500   0.305   1.386   5.384
90221SOL     OW72501  14.525   2.404  11.970
90221SOL    HW172502  14.571   2.440  12.046
90221SOL    HW272503  14.547   2.311  11.970
90222SOL     OW72504   8.358   0.027   7.458
90222SOL    HW172505   8.365   0.005   7.365
90222SOL    HW272506   8.404  14.836   7.504
90223SOL     OW72507   5.712   6.163   0.110
90223SOL    HW172508   5.682   6.130   0.195
90223SOL    HW272509   5.797   6.202   0.128
90224SOL     OW72510  10.332   3.294  13.896
90224SOL    HW172511  10.347   3.309  13.803
90224SOL    HW272512  10.321   3.381  13.933
90225SOL     OW72513   3.024  12.421   2.925
90225SOL    HW172514   2.997  12.347   2.870
90225SOL    HW272515   2.972  12.494   2.892
90226SOL     OW72516   6.705   3.493   2.422
90226SOL    HW172517   6.787   3.518   2.380
90226SOL    HW272518   6.656   3.575   2.429
90227SOL     OW72519   4.656   3.700   4.342
90227SOL    HW172520   4.597   3.729   4.411
90227SOL    HW272521   4.652   3.768   4.275
90228SOL     OW72522  13.116   8.322  14.039
90228SOL    HW172523  13.150   8.237  14.011
90228SOL    HW272524  13.063   8.302  14.116
90229SOL     OW72525   0.969   1.666  12.959
90229SOL    HW172526   1.007   1.667  13.047
90229SOL    HW272527   1.001   1.584  12.921
90230SOL     OW72528   1.040  13.264   8.179
90230SOL    HW172529   0.994  13.188   8.215
90230SOL    HW272530   1.133  13.240   8.182
90231SOL     OW72531   1.216   2.531  13.014
90231SOL    HW172532   1.131   2.522  12.971
90231SOL    HW272533   1.196   2.521  13.107
90232SOL     OW72534   8.225   8.228  12.928
90232SOL    HW172535   8.192   8.208  12.840
90232SOL    HW272536   8.231   8.143  12.971
90233SOL     OW72537   9.319  13.790   5.885
90233SOL    HW172538   9.281  13.878   5.877
90233SOL    HW272539   9.396  13.793   5.829
90234SOL     OW72540  11.069   8.114  11.505
90234SOL    HW172541  11.119   8.071  11.574
90234SOL    HW272542  11.056   8.046  11.439
90235SOL     OW72543   0.935   7.493  12.239
90235SOL    HW172544   0.964   7.493  12.330
90235SOL    HW272545   0.982   7.419  12.200
90236SOL     OW72546   3.031   1.542  11.320
90236SOL    HW172547   2.983   1.589  11.252
90236SOL    HW272548   3.122   1.539  11.289
90237SOL     OW72549  10.943   9.896   0.531
90237SOL    HW172550  10.939   9.989   0.508
90237SOL    HW272551  10.916   9.850   0.451
90238SOL     OW72552   7.409  11.569   9.462
90238SOL    HW172553   7.345  11.638   9.446
90238SOL    HW272554   7.369  11.513   9.529
90239SOL     OW72555   6.396   9.740  12.928
90239SOL    HW172556   6.404   9.832  12.902
90239SOL    HW272557   6.359   9.696  12.851
90240SOL     OW72558   9.331   1.606   6.703
90240SOL    HW172559   9.249   1.646   6.732
90240SOL    HW272560   9.316   1.584   6.611
90241SOL     OW72561  10.843   6.159   0.943
90241SOL    HW172562  10.771   6.222   0.948
90241SOL    HW272563  10.920   6.209   0.969
90242SOL     OW72564  12.964   7.105  14.535
90242SOL    HW172565  13.032   7.060  14.486
90242SOL    HW272566  13.009   7.145  14.609
90243SOL     OW72567   6.801   8.912   8.487
90243SOL    HW172568   6.726   8.933   8.543
90243SOL    HW272569   6.846   8.842   8.533
90244SOL     OW72570   8.301  12.274  10.550
90244SOL    HW172571   8.237  12.342  10.567
90244SOL    HW272572   8.332  12.247  10.637
90245SOL     OW72573   3.198   7.021   2.770
90245SOL    HW172574   3.253   7.016   2.848
90245SOL    HW272575   3.124   6.963   2.788
90246SOL     OW72576  13.868   8.714  13.589
90246SOL    HW172577  13.804   8.660  13.543
90246SOL    HW272578  13.897   8.659  13.662
90247SOL     OW72579   6.797   9.508   4.167
90247SOL    HW172580   6.861   9.447   4.204
90247SOL    HW272581   6.723   9.503   4.228
90248SOL     OW72582   4.362  13.101   5.880
90248SOL    HW172583   4.449  13.065   5.898
90248SOL    HW272584   4.378  13.172   5.818
90249SOL     OW72585   2.811   9.836   4.418
90249SOL    HW172586   2.748   9.778   4.462
90249SOL    HW272587   2.815   9.914   4.474
90250SOL     OW72588  13.570   2.758   4.051
90250SOL    HW172589  13.651   2.712   4.029
90250SOL    HW272590  13.574   2.772   4.145
90251SOL     OW72591   9.422   9.737   4.652
90251SOL    HW172592   9.510   9.765   4.630
90251SOL    HW272593   9.407   9.658   4.600
90252SOL     OW72594  11.735   2.724  12.490
90252SOL    HW172595  11.764   2.633  12.478
90252SOL    HW272596  11.640   2.718  12.493
90253SOL     OW72597   6.192  12.653   0.819
90253SOL    HW172598   6.282  12.623   0.811
90253SOL    HW272599   6.139  12.576   0.799
90254SOL     OW72600   3.189   1.979  10.452
90254SOL    HW172601   3.176   1.941  10.365
90254SOL    HW272602   3.155   1.913  10.512
90255SOL     OW72603  12.979   8.913  11.970
90255SOL    HW172604  13.036   8.854  11.921
90255SOL    HW272605  12.897   8.914  11.921
90256SOL     OW72606  10.139   4.535  12.573
90256SOL    HW172607  10.207   4.528  12.641
90256SOL    HW272608  10.062   4.567  12.619
90257SOL     OW72609   9.601   7.464   0.633
90257SOL    HW172610   9.654   7.385   0.622
90257SOL    HW272611   9.637   7.506   0.711
90258SOL     OW72612   2.350  12.275   9.601
90258SOL    HW172613   2.280  12.339   9.588
90258SOL    HW272614   2.344  12.217   9.524
90259SOL     OW72615   5.850   2.688   2.986
90259SOL    HW172616   5.886   2.773   3.009
90259SOL    HW272617   5.787   2.669   3.056
90260SOL     OW72618   9.779  11.082   7.646
90260SOL    HW172619   9.824  11.085   7.562
90260SOL    HW272620   9.716  11.154   7.642
90261SOL     OW72621   8.611   6.898   2.888
90261SOL    HW172622   8.606   6.846   2.969
90261SOL    HW272623   8.652   6.980   2.915
90262SOL     OW72624  11.426   0.768  12.013
90262SOL    HW172625  11.359   0.836  12.022
90262SOL    HW272626  11.431   0.728  12.100
90263SOL     OW72627   1.797   1.218   6.517
90263SOL    HW172628   1.761   1.149   6.461
90263SOL    HW272629   1.720   1.261   6.555
90264SOL     OW72630  14.297  10.999  12.573
90264SOL    HW172631  14.289  11.024  12.665
90264SOL    HW272632  14.385  10.962  12.566
90265SOL     OW72633  14.512   4.402  13.653
90265SOL    HW172634  14.546   4.435  13.736
90265SOL    HW272635  14.473   4.479  13.611
90266SOL     OW72636  12.110   8.066   1.704
90266SOL    HW172637  12.120   8.069   1.609
90266SOL    HW272638  12.198   8.084   1.738
90267SOL     OW72639   7.184   6.260  14.860
90267SOL    HW172640   7.115   6.326  14.854
90267SOL    HW272641   7.265   6.308  14.844
90268SOL     OW72642   8.762   9.606  14.557
90268SOL    HW172643   8.778   9.649  14.473
90268SOL    HW272644   8.789   9.671  14.622
90269SOL     OW72645   7.217   1.068   1.745
90269SOL    HW172646   7.224   1.150   1.793
90269SOL    HW272647   7.306   1.032   1.746
90270SOL     OW72648  10.595   8.441   1.557
90270SOL    HW172649  10.502   8.434   1.538
90270SOL    HW272650  10.638   8.412   1.477
90271SOL     OW72651  10.523   7.401  11.655
90271SOL    HW172652  10.583   7.473  11.639
90271SOL    HW272653  10.579   7.324  11.661
90272SOL     OW72654   7.276  10.280   8.206
90272SOL    HW172655   7.191  10.257   8.168
90272SOL    HW272656   7.339  10.260   8.138
90273SOL     OW72657   0.989  10.744   3.373
90273SOL    HW172658   0.900  10.722   3.401
90273SOL    HW272659   1.002  10.834   3.404
90274SOL     OW72660   4.682   9.877   7.691
90274SOL    HW172661   4.650   9.895   7.603
90274SOL    HW272662   4.770   9.914   7.694
90275SOL     OW72663   7.179   4.717   4.507
90275SOL    HW172664   7.093   4.743   4.474
90275SOL    HW272665   7.186   4.624   4.485
90276SOL     OW72666   9.305  10.993   5.699
90276SOL    HW172667   9.376  11.038   5.747
90276SOL    HW272668   9.226  11.039   5.726
90277SOL     OW72669   0.114   5.909   3.912
90277SOL    HW172670   0.139   5.996   3.943
90277SOL    HW272671   0.138   5.850   3.984
90278SOL     OW72672   3.911   4.087  11.636
90278SOL    HW172673   3.854   4.053  11.567
90278SOL    HW272674   3.884   4.039  11.714
90279SOL     OW72675  10.191  14.581   7.957
90279SOL    HW172676  10.112  14.628   7.982
90279SOL    HW272677  10.208  14.608   7.867
90280SOL     OW72678   5.479   3.273   5.686
90280SOL    HW172679   5.520   3.291   5.771
90280SOL    HW272680   5.451   3.181   5.693
90281SOL     OW72681  13.662  10.815   2.156
90281SOL    HW172682  13.664  10.911   2.150
90281SOL    HW272683  13.572  10.795   2.182
90282SOL     OW72684  10.484   2.594   9.507
90282SOL    HW172685  10.521   2.569   9.591
90282SOL    HW272686  10.557   2.635   9.460
90283SOL     OW72687  11.593   3.241   0.241
90283SOL    HW172688  11.563   3.231   0.331
90283SOL    HW272689  11.667   3.181   0.234
90284SOL     OW72690  10.037   9.909  14.858
90284SOL    HW172691  10.070   9.985   0.028
90284SOL    HW272692  10.095   9.837   0.004
90285SOL     OW72693   0.516   0.641   3.739
90285SOL    HW172694   0.462   0.696   3.795
90285SOL    HW272695   0.512   0.554   3.780
90286SOL     OW72696   3.296   9.701   1.007
90286SOL    HW172697   3.311   9.782   0.957
90286SOL    HW272698   3.330   9.632   0.951
90287SOL     OW72699   8.423   6.347   6.610
90287SOL    HW172700   8.365   6.420   6.632
90287SOL    HW272701   8.481   6.383   6.543
90288SOL     OW72702  10.765  11.811   4.601
90288SOL    HW172703  10.841  11.851   4.559
90288SOL    HW272704  10.694  11.874   4.587
90289SOL     OW72705   7.969   2.490  10.928
90289SOL    HW172706   8.060   2.470  10.906
90289SOL    HW272707   7.939   2.413  10.977
90290SOL     OW72708  11.128  14.849   9.822
90290SOL    HW172709  11.151   0.062   9.826
90290SOL    HW272710  11.032  14.848   9.814
90291SOL     OW72711   7.244  10.784  10.901
90291SOL    HW172712   7.252  10.822  10.989
90291SOL    HW272713   7.285  10.848  10.843
90292SOL     OW72714  10.358   3.397  12.061
90292SOL    HW172715  10.424   3.459  12.092
90292SOL    HW272716  10.339   3.342  12.137
90293SOL     OW72717  13.304   5.121   4.160
90293SOL    HW172718  13.389   5.091   4.128
90293SOL    HW272719  13.250   5.043   4.160
90294SOL     OW72720  12.165   9.379   9.061
90294SOL    HW172721  12.132   9.461   9.024
90294SOL    HW272722  12.100   9.355   9.127
90295SOL     OW72723   8.844  11.331   4.597
90295SOL    HW172724   8.799  11.341   4.681
90295SOL    HW272725   8.850  11.419   4.562
90296SOL     OW72726   6.042   8.760   0.727
90296SOL    HW172727   6.137   8.750   0.737
90296SOL    HW272728   6.028   8.760   0.633
90297SOL     OW72729   2.952   6.164   7.916
90297SOL    HW172730   3.028   6.218   7.894
90297SOL    HW272731   2.877   6.213   7.884
90298SOL     OW72732   9.373   1.202   5.954
90298SOL    HW172733   9.445   1.142   5.971
90298SOL    HW272734   9.302   1.171   6.011
90299SOL     OW72735   8.844  11.998   6.467
90299SOL    HW172736   8.811  11.986   6.378
90299SOL    HW272737   8.936  12.022   6.455
90300SOL     OW72738  13.299   6.467   6.117
90300SOL    HW172739  13.270   6.511   6.197
90300SOL    HW272740  13.343   6.388   6.148
90301SOL     OW72741   0.050   6.630   2.909
90301SOL    HW172742   0.028   6.660   2.997
90301SOL    HW272743   0.138   6.662   2.893
90302SOL     OW72744   4.664   3.118  12.156
90302SOL    HW172745   4.658   3.025  12.181
90302SOL    HW272746   4.602   3.128  12.085
90303SOL     OW72747   3.096   5.768   9.293
90303SOL    HW172748   3.060   5.778   9.205
90303SOL    HW272749   3.039   5.820   9.349
90304SOL     OW72750   0.754  10.532  11.011
90304SOL    HW172751   0.812  10.609  11.012
90304SOL    HW272752   0.813  10.458  11.027
90305SOL     OW72753  14.330   1.244  12.743
90305SOL    HW172754  14.265   1.222  12.676
90305SOL    HW272755  14.409   1.266  12.693
90306SOL     OW72756   0.246   7.087   1.075
90306SOL    HW172757   0.158   7.069   1.107
90306SOL    HW272758   0.268   7.173   1.110
90307SOL     OW72759  13.760   2.140   5.870
90307SOL    HW172760  13.690   2.117   5.809
90307SOL    HW272761  13.715   2.180   5.945
90308SOL     OW72762   3.610   2.663  11.972
90308SOL    HW172763   3.631   2.647  11.880
90308SOL    HW272764   3.519   2.692  11.972
90309SOL     OW72765   9.852   0.953   7.835
90309SOL    HW172766   9.763   0.919   7.834
90309SOL    HW272767   9.860   0.998   7.919
90310SOL     OW72768  12.617  14.366  12.282
90310SOL    HW172769  12.524  14.376  12.302
90310SOL    HW272770  12.628  14.272  12.267
90311SOL     OW72771  12.162  11.776  14.465
90311SOL    HW172772  12.239  11.736  14.506
90311SOL    HW272773  12.199  11.837  14.401
90312SOL     OW72774   9.323   8.107   6.860
90312SOL    HW172775   9.253   8.168   6.836
90312SOL    HW272776   9.318   8.038   6.794
90313SOL     OW72777  14.150   6.281   8.755
90313SOL    HW172778  14.107   6.364   8.734
90313SOL    HW272779  14.196   6.257   8.674
90314SOL     OW72780  13.601   2.087   7.094
90314SOL    HW172781  13.566   2.023   7.032
90314SOL    HW272782  13.524   2.118   7.142
90315SOL     OW72783   4.388  10.453   4.606
90315SOL    HW172784   4.314  10.393   4.616
90315SOL    HW272785   4.386  10.507   4.685
90316SOL     OW72786   1.446   7.465   7.461
90316SOL    HW172787   1.371   7.410   7.482
90316SOL    HW272788   1.470   7.505   7.545
90317SOL     OW72789   9.209  13.650   2.923
90317SOL    HW172790   9.290  13.617   2.884
90317SOL    HW272791   9.190  13.588   2.993
90318SOL     OW72792  11.250  11.593  11.078
90318SOL    HW172793  11.296  11.510  11.092
90318SOL    HW272794  11.257  11.609  10.984
90319SOL     OW72795   8.573   5.737   4.790
90319SOL    HW172796   8.609   5.743   4.879
90319SOL    HW272797   8.490   5.785   4.795
90320SOL     OW72798  10.267   1.645   3.467
90320SOL    HW172799  10.175   1.651   3.492
90320SOL    HW272800  10.313   1.698   3.533
90321SOL     OW72801   9.105   0.371  12.013
90321SOL    HW172802   9.193   0.338  12.034
90321SOL    HW272803   9.081   0.424  12.089
90322SOL     OW72804   4.349   1.375   2.842
90322SOL    HW172805   4.304   1.350   2.923
90322SOL    HW272806   4.354   1.293   2.793
90323SOL     OW72807   5.947   4.524   9.889
90323SOL    HW172808   5.855   4.498   9.886
90323SOL    HW272809   5.988   4.458   9.944
90324SOL     OW72810  14.011   9.199   7.838
90324SOL    HW172811  14.018   9.264   7.769
90324SOL    HW272812  14.096   9.156   7.839
90325SOL     OW72813   7.637   3.660   9.288
90325SOL    HW172814   7.652   3.591   9.352
90325SOL    HW272815   7.675   3.739   9.328
90326SOL     OW72816   7.311  11.975   8.441
90326SOL    HW172817   7.250  12.049   8.442
90326SOL    HW272818   7.397  12.015   8.433
90327SOL     OW72819  13.682   9.821   7.393
90327SOL    HW172820  13.743   9.751   7.417
90327SOL    HW272821  13.731   9.901   7.409
90328SOL     OW72822   8.010   4.629   2.544
90328SOL    HW172823   8.100   4.657   2.528
90328SOL    HW272824   7.982   4.681   2.620
90329SOL     OW72825   6.240  11.066   0.812
90329SOL    HW172826   6.221  11.137   0.874
90329SOL    HW272827   6.283  11.110   0.739
90330SOL     OW72828   9.461   2.842   8.708
90330SOL    HW172829   9.450   2.874   8.797
90330SOL    HW272830   9.429   2.752   8.711
90331SOL     OW72831   4.124   9.117  12.546
90331SOL    HW172832   4.138   9.178  12.474
90331SOL    HW272833   4.197   9.135  12.606
90332SOL     OW72834   9.920  12.954   4.050
90332SOL    HW172835   9.836  12.911   4.065
90332SOL    HW272836   9.924  12.967   3.956
90333SOL     OW72837  10.607  10.098   8.588
90333SOL    HW172838  10.546  10.171   8.599
90333SOL    HW272839  10.682  10.121   8.643
90334SOL     OW72840  10.875   7.723   7.474
90334SOL    HW172841  10.890   7.755   7.386
90334SOL    HW272842  10.962   7.716   7.513
90335SOL     OW72843  12.169  12.341   0.588
90335SOL    HW172844  12.185  12.273   0.523
90335SOL    HW272845  12.155  12.294   0.670
90336SOL     OW72846  13.233   7.829   3.948
90336SOL    HW172847  13.318   7.864   3.975
90336SOL    HW272848  13.179   7.907   3.935
90337SOL     OW72849   6.948  12.074   8.198
90337SOL    HW172850   7.022  12.035   8.153
90337SOL    HW272851   6.887  12.002   8.212
90338SOL     OW72852   6.072  12.914  14.405
90338SOL    HW172853   6.140  12.912  14.472
90338SOL    HW272854   6.097  12.845  14.344
90339SOL     OW72855   1.201  10.304   6.306
90339SOL    HW172856   1.183  10.391   6.270
90339SOL    HW272857   1.297  10.297   6.305
90340SOL     OW72858   1.941   2.688   5.866
90340SOL    HW172859   2.002   2.614   5.862
90340SOL    HW272860   1.962   2.732   5.949
90341SOL     OW72861  11.241   2.594   6.870
90341SOL    HW172862  11.178   2.568   6.938
90341SOL    HW272863  11.217   2.684   6.848
90342SOL     OW72864   8.138  13.624   0.735
90342SOL    HW172865   8.173  13.545   0.777
90342SOL    HW272866   8.189  13.696   0.773
90343SOL     OW72867   8.777   6.020   5.959
90343SOL    HW172868   8.850   6.022   5.898
90343SOL    HW272869   8.808   5.966   6.032
90344SOL     OW72870   6.581   6.431  11.238
90344SOL    HW172871   6.505   6.471  11.281
90344SOL    HW272872   6.644   6.417  11.308
90345SOL     OW72873  12.048   9.637  14.283
90345SOL    HW172874  12.011   9.570  14.225
90345SOL    HW272875  11.990   9.712  14.272
90346SOL     OW72876   9.886   8.562   2.371
90346SOL    HW172877   9.978   8.577   2.349
90346SOL    HW272878   9.888   8.498   2.442
90347SOL     OW72879  10.649   4.986  10.891
90347SOL    HW172880  10.581   4.921  10.873
90347SOL    HW272881  10.701   4.988  10.811
90348SOL     OW72882   7.737   9.810   0.093
90348SOL    HW172883   7.826   9.833   0.120
90348SOL    HW272884   7.721   9.862   0.014
90349SOL     OW72885  12.834   2.771   0.300
90349SOL    HW172886  12.857   2.858   0.268
90349SOL    HW272887  12.879   2.711   0.240
90350SOL     OW72888  11.594   7.360   4.910
90350SOL    HW172889  11.610   7.442   4.957
90350SOL    HW272890  11.532   7.384   4.841
90351SOL     OW72891  13.080   7.170   1.370
90351SOL    HW172892  13.095   7.265   1.361
90351SOL    HW272893  13.150   7.131   1.317
90352SOL     OW72894   9.909   4.209   3.767
90352SOL    HW172895   9.985   4.249   3.724
90352SOL    HW272896   9.946   4.133   3.814
90353SOL     OW72897  12.404   4.222   8.665
90353SOL    HW172898  12.343   4.154   8.692
90353SOL    HW272899  12.409   4.282   8.739
90354SOL     OW72900   5.068  11.587   2.847
90354SOL    HW172901   5.097  11.659   2.902
90354SOL    HW272902   5.148  11.538   2.827
90355SOL     OW72903   4.458   6.227   5.629
90355SOL    HW172904   4.405   6.251   5.554
90355SOL    HW272905   4.510   6.306   5.649
90356SOL     OW72906   8.467   2.845   7.112
90356SOL    HW172907   8.380   2.815   7.085
90356SOL    HW272908   8.527   2.806   7.048
90357SOL     OW72909   0.682  11.869  11.220
90357SOL    HW172910   0.640  11.942  11.265
90357SOL    HW272911   0.613  11.804  11.210
90358SOL     OW72912   3.017  11.783  10.577
90358SOL    HW172913   2.998  11.877  10.576
90358SOL    HW272914   3.024  11.759  10.485
90359SOL     OW72915   3.547   8.363   8.798
90359SOL    HW172916   3.483   8.429   8.771
90359SOL    HW272917   3.519   8.337   8.886
90360SOL     OW72918   3.381  14.775  12.418
90360SOL    HW172919   3.442  14.795  12.489
90360SOL    HW272920   3.305  14.832  12.435
90361SOL     OW72921  13.932  14.288   7.050
90361SOL    HW172922  14.013  14.322   7.089
90361SOL    HW272923  13.960  14.252   6.966
90362SOL     OW72924  14.879   6.570   4.213
90362SOL    HW172925  14.808   6.626   4.242
90362SOL    HW272926  14.876   6.575   4.117
90363SOL     OW72927   2.569   2.168   0.104
90363SOL    HW172928   2.639   2.132   0.159
90363SOL    HW272929   2.503   2.099   0.101
90364SOL     OW72930  12.450   8.566   6.159
90364SOL    HW172931  12.419   8.568   6.068
90364SOL    HW272932  12.374   8.594   6.210
90365SOL     OW72933   5.034  12.387   3.688
90365SOL    HW172934   5.032  12.483   3.686
90365SOL    HW272935   5.073  12.362   3.604
90366SOL     OW72936   4.540   5.617   3.488
90366SOL    HW172937   4.497   5.680   3.430
90366SOL    HW272938   4.550   5.538   3.434
90367SOL     OW72939   3.177   8.013  11.204
90367SOL    HW172940   3.239   7.961  11.256
90367SOL    HW272941   3.135   8.070  11.268
90368SOL     OW72942   7.632  12.469   5.424
90368SOL    HW172943   7.673  12.555   5.420
90368SOL    HW272944   7.539  12.486   5.407
90369SOL     OW72945   8.732   9.985   2.935
90369SOL    HW172946   8.794   9.919   2.965
90369SOL    HW272947   8.655   9.936   2.906
90370SOL     OW72948   6.512   3.116  13.375
90370SOL    HW172949   6.475   3.038  13.416
90370SOL    HW272950   6.477   3.115  13.286
90371SOL     OW72951  13.086   2.394   9.014
90371SOL    HW172952  13.078   2.466   9.076
90371SOL    HW272953  12.998   2.357   9.009
90372SOL     OW72954   2.580   3.705  10.490
90372SOL    HW172955   2.565   3.752  10.408
90372SOL    HW272956   2.675   3.688  10.490
90373SOL     OW72957   7.402   1.217   4.336
90373SOL    HW172958   7.416   1.311   4.327
90373SOL    HW272959   7.333   1.209   4.402
90374SOL     OW72960   3.310  10.953   9.143
90374SOL    HW172961   3.299  10.862   9.170
90374SOL    HW272962   3.262  11.003   9.209
90375SOL     OW72963  12.407   7.278  12.406
90375SOL    HW172964  12.459   7.200  12.388
90375SOL    HW272965  12.446   7.346  12.352
90376SOL     OW72966   7.957  13.382  11.551
90376SOL    HW172967   7.904  13.337  11.485
90376SOL    HW272968   8.002  13.312  11.598
90377SOL     OW72969  11.061   3.219   9.758
90377SOL    HW172970  11.011   3.225   9.677
90377SOL    HW272971  11.079   3.310   9.782
90378SOL     OW72972   9.480  10.673  10.739
90378SOL    HW172973   9.556  10.688  10.794
90378SOL    HW272974   9.411  10.727  10.778
90379SOL     OW72975   2.610   2.034  10.378
90379SOL    HW172976   2.613   2.098  10.449
90379SOL    HW272977   2.686   1.977  10.394
90380SOL     OW72978   4.778  10.771   2.603
90380SOL    HW172979   4.766  10.708   2.532
90380SOL    HW272980   4.692  10.813   2.612
90381SOL     OW72981  12.298  12.576   3.033
90381SOL    HW172982  12.273  12.565   2.941
90381SOL    HW272983  12.215  12.589   3.079
90382SOL     OW72984  12.655   0.267   7.193
90382SOL    HW172985  12.733   0.243   7.244
90382SOL    HW272986  12.690   0.298   7.110
90383SOL     OW72987  11.145   5.564  10.867
90383SOL    HW172988  11.056   5.554  10.901
90383SOL    HW272989  11.150   5.655  10.839
90384SOL     OW72990   5.055   1.498   1.833
90384SOL    HW172991   5.107   1.505   1.752
90384SOL    HW272992   5.014   1.584   1.842
90385SOL     OW72993  10.599   9.432  12.237
90385SOL    HW172994  10.630   9.379  12.163
90385SOL    HW272995  10.533   9.490  12.198
90386SOL     OW72996  10.453   7.032   2.107
90386SOL    HW172997  10.417   6.947   2.136
90386SOL    HW272998  10.421   7.094   2.173
90387SOL     OW72999   2.426  14.526  13.504
90387SOL    HW173000   2.412  14.456  13.568
90387SOL    HW273001   2.414  14.484  13.419
90388SOL     OW73002   4.796   8.616  10.334
90388SOL    HW173003   4.804   8.567  10.252
90388SOL    HW273004   4.837   8.559  10.400
90389SOL     OW73005   5.445   6.605   1.213
90389SOL    HW173006   5.490   6.586   1.296
90389SOL    HW273007   5.402   6.689   1.228
90390SOL     OW73008   4.083   2.604   5.303
90390SOL    HW173009   4.108   2.688   5.340
90390SOL    HW273010   4.102   2.611   5.210
90391SOL     OW73011  14.538  10.605   5.548
90391SOL    HW173012  14.500  10.668   5.610
90391SOL    HW273013  14.630  10.600   5.572
90392SOL     OW73014   8.128   9.593   1.789
90392SOL    HW173015   8.129   9.497   1.793
90392SOL    HW273016   8.045   9.617   1.831
90393SOL     OW73017   1.341  11.934   2.605
90393SOL    HW173018   1.360  11.851   2.561
90393SOL    HW273019   1.423  11.983   2.601
90394SOL     OW73020  14.279  12.936   8.207
90394SOL    HW173021  14.245  13.022   8.233
90394SOL    HW273022  14.349  12.956   8.145
90395SOL     OW73023  14.211  14.589  13.620
90395SOL    HW173024  14.156  14.648  13.568
90395SOL    HW273025  14.262  14.541  13.556
90396SOL     OW73026  11.799   9.710   1.716
90396SOL    HW173027  11.871   9.739   1.660
90396SOL    HW273028  11.792   9.616   1.699
90397SOL     OW73029  12.979   0.744   8.785
90397SOL    HW173030  12.915   0.809   8.814
90397SOL    HW273031  13.039   0.734   8.859
90398SOL     OW73032  11.621   4.312  13.764
90398SOL    HW173033  11.567   4.388  13.783
90398SOL    HW273034  11.648   4.325  13.673
90399SOL     OW73035   0.264   1.416  14.291
90399SOL    HW173036   0.188   1.384  14.341
90399SOL    HW273037   0.235   1.416  14.200
90400SOL     OW73038   0.955  13.982   2.648
90400SOL    HW173039   0.926  13.930   2.723
90400SOL    HW273040   1.048  13.996   2.663
90401SOL     OW73041  11.727   3.047  11.554
90401SOL    HW173042  11.691   3.128  11.590
90401SOL    HW273043  11.705   2.980  11.618
90402SOL     OW73044   7.179   9.240   9.910
90402SOL    HW173045   7.275   9.244   9.915
90402SOL    HW273046   7.161   9.158   9.864
90403SOL     OW73047   7.278   1.772   4.791
90403SOL    HW173048   7.265   1.866   4.800
90403SOL    HW273049   7.211   1.733   4.847
90404SOL     OW73050  13.410   8.002   1.147
90404SOL    HW173051  13.423   7.915   1.108
90404SOL    HW273052  13.421   7.988   1.241
90405SOL     OW73053  10.910   7.149   8.436
90405SOL    HW173054  10.823   7.150   8.475
90405SOL    HW273055  10.920   7.060   8.400
90406SOL     OW73056  12.777   6.207   6.593
90406SOL    HW173057  12.685   6.182   6.586
90406SOL    HW273058  12.783   6.293   6.551
90407SOL     OW73059   4.163   9.177   1.746
90407SOL    HW173060   4.071   9.150   1.741
90407SOL    HW273061   4.192   9.148   1.832
90408SOL     OW73062  10.167   9.478  14.570
90408SOL    HW173063  10.096   9.431  14.527
90408SOL    HW273064  10.165   9.447  14.660
90409SOL     OW73065   2.701  14.496   3.132
90409SOL    HW173066   2.658  14.568   3.177
90409SOL    HW273067   2.686  14.420   3.189
90410SOL     OW73068   7.631   4.910  10.510
90410SOL    HW173069   7.626   4.993  10.556
90410SOL    HW273070   7.543   4.873  10.518
90411SOL     OW73071   6.628   9.744   3.158
90411SOL    HW173072   6.713   9.759   3.200
90411SOL    HW273073   6.591   9.669   3.205
90412SOL     OW73074  12.437   7.016   4.077
90412SOL    HW173075  12.450   7.106   4.046
90412SOL    HW273076  12.343   7.011   4.094
90413SOL     OW73077   3.082   9.795   2.324
90413SOL    HW173078   3.107   9.717   2.274
90413SOL    HW273079   3.157   9.811   2.381
90414SOL     OW73080   2.551  14.811  11.874
90414SOL    HW173081   2.479  14.860  11.835
90414SOL    HW273082   2.522  14.720  11.870
90415SOL     OW73083   1.566   6.399   8.144
90415SOL    HW173084   1.652   6.371   8.175
90415SOL    HW273085   1.551   6.482   8.188
90416SOL     OW73086   8.546   9.000   8.432
90416SOL    HW173087   8.513   8.926   8.482
90416SOL    HW273088   8.472   9.062   8.430
90417SOL     OW73089  13.770   8.542   2.079
90417SOL    HW173090  13.752   8.456   2.118
90417SOL    HW273091  13.795   8.522   1.989
90418SOL     OW73092   3.535   7.459  10.909
90418SOL    HW173093   3.504   7.389  10.966
90418SOL    HW273094   3.550   7.417  10.824
90419SOL     OW73095  14.859   1.447   8.005
90419SOL    HW173096  14.805   1.525   8.014
90419SOL    HW273097   0.069   1.476   8.026
90420SOL     OW73098  13.072   9.607   5.197
90420SOL    HW173099  13.051   9.525   5.240
90420SOL    HW273100  13.096   9.582   5.108
90421SOL     OW73101   9.526   9.604  14.633
90421SOL    HW173102   9.507   9.664  14.705
90421SOL    HW273103   9.508   9.517  14.670
90422SOL     OW73104   8.047   1.739  12.781
90422SOL    HW173105   8.022   1.651  12.810
90422SOL    HW273106   7.990   1.798  12.831
90423SOL     OW73107   9.116  12.470   0.721
90423SOL    HW173108   9.166  12.534   0.772
90423SOL    HW273109   9.178  12.436   0.657
90424SOL     OW73110   4.150   9.597   4.990
90424SOL    HW173111   4.185   9.508   4.982
90424SOL    HW273112   4.107   9.613   4.906
90425SOL     OW73113  13.251   8.849   1.031
90425SOL    HW173114  13.181   8.807   0.980
90425SOL    HW273115  13.330   8.800   1.008
90426SOL     OW73116   9.989   7.701   2.259
90426SOL    HW173117   9.957   7.611   2.258
90426SOL    HW273118   9.992   7.724   2.352
90427SOL     OW73119  11.692  12.076  10.204
90427SOL    HW173120  11.646  12.133  10.143
90427SOL    HW273121  11.629  12.007  10.224
90428SOL     OW73122  13.409   4.577   0.515
90428SOL    HW173123  13.411   4.629   0.435
90428SOL    HW273124  13.422   4.487   0.485
90429SOL     OW73125   2.561  11.244   0.710
90429SOL    HW173126   2.623  11.264   0.641
90429SOL    HW273127   2.528  11.330   0.738
90430SOL     OW73128   1.355   4.193  12.956
90430SOL    HW173129   1.398   4.275  12.931
90430SOL    HW273130   1.415   4.153  13.019
90431SOL     OW73131   8.536   4.455   7.864
90431SOL    HW173132   8.625   4.480   7.888
90431SOL    HW273133   8.480   4.513   7.915
90432SOL     OW73134  11.366   0.951   7.858
90432SOL    HW173135  11.407   0.948   7.771
90432SOL    HW273136  11.273   0.937   7.840
90433SOL     OW73137   7.469   6.368   3.355
90433SOL    HW173138   7.455   6.443   3.413
90433SOL    HW273139   7.478   6.406   3.268
90434SOL     OW73140   7.777   3.958  14.726
90434SOL    HW173141   7.834   4.002  14.662
90434SOL    HW273142   7.748   3.879  14.682
90435SOL     OW73143   7.156  13.983  12.719
90435SOL    HW173144   7.157  13.919  12.790
90435SOL    HW273145   7.215  14.053  12.748
90436SOL     OW73146   9.085   3.643   2.500
90436SOL    HW173147   9.001   3.645   2.545
90436SOL    HW273148   9.139   3.583   2.551
90437SOL     OW73149  10.877   0.971   2.085
90437SOL    HW173150  10.838   0.885   2.096
90437SOL    HW273151  10.865   0.992   1.993
90438SOL     OW73152  14.769   9.796   3.607
90438SOL    HW173153  14.679   9.797   3.640
90438SOL    HW273154  14.820   9.756   3.676
90439SOL     OW73155   0.990   0.445   2.657
90439SOL    HW173156   1.055   0.424   2.724
90439SOL    HW273157   0.934   0.511   2.698
90440SOL     OW73158   8.269   3.525   6.139
90440SOL    HW173159   8.178   3.551   6.129
90440SOL    HW273160   8.276   3.494   6.229
90441SOL     OW73161  10.159  14.622   2.503
90441SOL    HW173162  10.188  14.665   2.422
90441SOL    HW273163  10.211  14.665   2.572
90442SOL     OW73164  12.742   2.846   3.133
90442SOL    HW173165  12.691   2.823   3.054
90442SOL    HW273166  12.682   2.900   3.184
90443SOL     OW73167  11.871  12.248   9.146
90443SOL    HW173168  11.845  12.156   9.142
90443SOL    HW273169  11.922  12.262   9.066
90444SOL     OW73170  13.544  10.525  10.829
90444SOL    HW173171  13.602  10.449  10.835
90444SOL    HW273172  13.589  10.585  10.769
90445SOL     OW73173   2.779  11.412   2.255
90445SOL    HW173174   2.863  11.396   2.299
90445SOL    HW273175   2.726  11.455   2.321
90446SOL     OW73176  11.243   3.527  12.891
90446SOL    HW173177  11.335   3.530  12.916
90446SOL    HW273178  11.217   3.436  12.904
90447SOL     OW73179   9.406  12.999   8.119
90447SOL    HW173180   9.497  12.972   8.133
90447SOL    HW273181   9.376  13.027   8.206
90448SOL     OW73182   1.099   1.184   8.201
90448SOL    HW173183   1.020   1.236   8.190
90448SOL    HW273184   1.136   1.177   8.112
90449SOL     OW73185  12.466   4.856   2.844
90449SOL    HW173186  12.519   4.820   2.916
90449SOL    HW273187  12.530   4.890   2.782
90450SOL     OW73188   5.569  11.935   1.081
90450SOL    HW173189   5.558  12.025   1.111
90450SOL    HW273190   5.503  11.885   1.128
90451SOL     OW73191  11.800  13.408   4.437
90451SOL    HW173192  11.893  13.387   4.435
90451SOL    HW273193  11.763  13.346   4.500
90452SOL     OW73194   6.436  14.791  10.534
90452SOL    HW173195   6.371  14.861  10.542
90452SOL    HW273196   6.517  14.835  10.513
90453SOL     OW73197  12.136   8.353  12.725
90453SOL    HW173198  12.129   8.387  12.635
90453SOL    HW273199  12.178   8.267  12.715
90454SOL     OW73200   8.488   3.542  14.376
90454SOL    HW173201   8.431   3.608  14.336
90454SOL    HW273202   8.429   3.490  14.431
90455SOL     OW73203   2.055   4.869   8.586
90455SOL    HW173204   2.011   4.891   8.668
90455SOL    HW273205   2.083   4.778   8.597
90456SOL     OW73206   1.700   6.842   9.399
90456SOL    HW173207   1.676   6.852   9.307
90456SOL    HW273208   1.711   6.931   9.432
90457SOL     OW73209   4.008   9.139   6.580
90457SOL    HW173210   4.028   9.199   6.508
90457SOL    HW273211   3.957   9.191   6.642
90458SOL     OW73212   0.235   8.995   3.734
90458SOL    HW173213   0.283   8.938   3.674
90458SOL    HW273214   0.255   9.084   3.703
90459SOL     OW73215   1.637  10.445   5.256
90459SOL    HW173216   1.667  10.470   5.344
90459SOL    HW273217   1.713  10.401   5.217
90460SOL     OW73218  11.302   9.380   5.484
90460SOL    HW173219  11.206   9.378   5.483
90460SOL    HW273220  11.328   9.289   5.469
90461SOL     OW73221   2.603  14.303   9.769
90461SOL    HW173222   2.548  14.367   9.814
90461SOL    HW273223   2.554  14.281   9.690
90462SOL     OW73224  10.583   0.795   6.421
90462SOL    HW173225  10.494   0.778   6.452
90462SOL    HW273226  10.626   0.710   6.426
90463SOL     OW73227   8.027   7.918  12.761
90463SOL    HW173228   7.958   7.882  12.705
90463SOL    HW273229   7.993   7.908  12.850
90464SOL     OW73230  13.607   5.263   7.090
90464SOL    HW173231  13.514   5.279   7.110
90464SOL    HW273232  13.633   5.192   7.149
90465SOL     OW73233   5.532   7.351  12.410
90465SOL    HW173234   5.441   7.379  12.426
90465SOL    HW273235   5.585   7.413  12.460
90466SOL     OW73236   5.630   0.406  14.657
90466SOL    HW173237   5.630   0.497  14.688
90466SOL    HW273238   5.669   0.410  14.569
90467SOL     OW73239   0.196  11.184   0.464
90467SOL    HW173240   0.223  11.127   0.536
90467SOL    HW273241   0.277  11.200   0.415
90468SOL     OW73242   8.223   3.673  10.573
90468SOL    HW173243   8.239   3.665  10.667
90468SOL    HW273244   8.136   3.633  10.561
90469SOL     OW73245  12.442   7.742   8.585
90469SOL    HW173246  12.378   7.700   8.643
90469SOL    HW273247  12.413   7.833   8.580
90470SOL     OW73248   0.917  13.058  11.684
90470SOL    HW173249   0.883  12.970  11.702
90470SOL    HW273250   0.999  13.062  11.732
90471SOL     OW73251  13.721   0.651   1.893
90471SOL    HW173252  13.778   0.645   1.970
90471SOL    HW273253  13.661   0.723   1.914
90472SOL     OW73254   4.070  14.626   5.909
90472SOL    HW173255   4.159  14.593   5.899
90472SOL    HW273256   4.077  14.696   5.974
90473SOL     OW73257   8.909   9.128   0.565
90473SOL    HW173258   8.992   9.133   0.518
90473SOL    HW273259   8.905   9.210   0.616
90474SOL     OW73260   8.271   6.792   5.930
90474SOL    HW173261   8.194   6.751   5.970
90474SOL    HW273262   8.313   6.839   6.002
90475SOL     OW73263   6.111   5.840  11.662
90475SOL    HW173264   6.023   5.871  11.640
90475SOL    HW273265   6.134   5.888  11.741
90476SOL     OW73266   2.245  10.773  11.978
90476SOL    HW173267   2.160  10.774  12.022
90476SOL    HW273268   2.308  10.784  12.049
90477SOL     OW73269   2.694  11.792  14.053
90477SOL    HW173270   2.672  11.701  14.072
90477SOL    HW273271   2.615  11.827  14.012
90478SOL     OW73272   7.300   5.462  13.948
90478SOL    HW173273   7.230   5.519  13.979
90478SOL    HW273274   7.322   5.407  14.024
90479SOL     OW73275   5.065   0.495   7.417
90479SOL    HW173276   4.993   0.555   7.398
90479SOL    HW273277   5.107   0.481   7.332
90480SOL     OW73278  14.095   8.796   0.265
90480SOL    HW173279  14.070   8.725   0.206
90480SOL    HW273280  14.039   8.869   0.239
90481SOL     OW73281  13.298  13.670   6.066
90481SOL    HW173282  13.214  13.698   6.105
90481SOL    HW273283  13.352  13.646   6.142
90482SOL     OW73284  13.567   7.032  12.625
90482SOL    HW173285  13.639   7.008  12.566
90482SOL    HW273286  13.547   6.951  12.672
90483SOL     OW73287   5.070   6.107   5.232
90483SOL    HW173288   5.154   6.103   5.186
90483SOL    HW273289   5.005   6.110   5.163
90484SOL     OW73290   9.423   1.455   9.024
90484SOL    HW173291   9.353   1.520   9.031
90484SOL    HW273292   9.478   1.486   8.951
90485SOL     OW73293   1.199   0.838   4.869
90485SOL    HW173294   1.151   0.912   4.835
90485SOL    HW273295   1.132   0.773   4.890
90486SOL     OW73296  11.240   9.490  14.220
90486SOL    HW173297  11.322   9.510  14.266
90486SOL    HW273298  11.177   9.554  14.253
90487SOL     OW73299   9.606   1.323  14.406
90487SOL    HW173300   9.673   1.317  14.474
90487SOL    HW273301   9.636   1.263  14.338
90488SOL     OW73302  13.667   0.568   9.139
90488SOL    HW173303  13.737   0.514   9.174
90488SOL    HW273304  13.712   0.638   9.092
90489SOL     OW73305  14.239  12.237   3.007
90489SOL    HW173306  14.301  12.246   3.079
90489SOL    HW273307  14.160  12.203   3.049
90490SOL     OW73308   4.983  12.147  14.270
90490SOL    HW173309   5.005  12.228  14.225
90490SOL    HW273310   4.921  12.103  14.212
90491SOL     OW73311  13.852   9.315  11.982
90491SOL    HW173312  13.793   9.252  12.024
90491SOL    HW273313  13.798   9.358  11.916
90492SOL     OW73314   8.856   4.483   1.274
90492SOL    HW173315   8.817   4.396   1.274
90492SOL    HW273316   8.833   4.520   1.189
90493SOL     OW73317   6.086   3.812   2.462
90493SOL    HW173318   6.158   3.765   2.504
90493SOL    HW273319   6.007   3.782   2.508
90494SOL     OW73320  12.323   3.978   0.594
90494SOL    HW173321  12.348   3.898   0.641
90494SOL    HW273322  12.345   4.049   0.655
90495SOL     OW73323  11.981   4.190   5.960
90495SOL    HW173324  12.071   4.220   5.971
90495SOL    HW273325  11.972   4.176   5.865
90496SOL     OW73326   0.643   0.406   4.160
90496SOL    HW173327   0.736   0.427   4.166
90496SOL    HW273328   0.639   0.311   4.149
90497SOL     OW73329   1.875  12.823   9.516
90497SOL    HW173330   1.851  12.910   9.549
90497SOL    HW273331   1.971  12.822   9.517
90498SOL     OW73332   6.519  14.627   2.820
90498SOL    HW173333   6.540  14.590   2.906
90498SOL    HW273334   6.454  14.567   2.783
90499SOL     OW73335   2.634   9.117  12.066
90499SOL    HW173336   2.553   9.072  12.088
90499SOL    HW273337   2.616   9.163  11.984
90500SOL     OW73338   1.750   8.830  10.018
90500SOL    HW173339   1.698   8.802  10.093
90500SOL    HW273340   1.703   8.795   9.942
90501SOL     OW73341   8.103  10.592   7.228
90501SOL    HW173342   8.177  10.530   7.229
90501SOL    HW273343   8.141  10.674   7.259
90502SOL     OW73344   3.812   4.406  12.270
90502SOL    HW173345   3.875   4.439  12.335
90502SOL    HW273346   3.823   4.311  12.274
90503SOL     OW73347   9.905   1.016   8.977
90503SOL    HW173348   9.813   1.032   9.000
90503SOL    HW273349   9.905   1.012   8.882
90504SOL     OW73350   0.490  13.037   4.860
90504SOL    HW173351   0.510  13.043   4.954
90504SOL    HW273352   0.397  13.057   4.854
90505SOL     OW73353   5.066  10.583  13.518
90505SOL    HW173354   5.117  10.655  13.555
90505SOL    HW273355   4.979  10.592  13.557
90506SOL     OW73356  12.136  11.941  12.509
90506SOL    HW173357  12.231  11.939  12.522
90506SOL    HW273358  12.125  11.933  12.414
90507SOL     OW73359  10.114  11.469  13.210
90507SOL    HW173360  10.194  11.515  13.184
90507SOL    HW273361  10.053  11.486  13.138
90508SOL     OW73362   0.638   4.076   2.957
90508SOL    HW173363   0.601   4.162   2.977
90508SOL    HW273364   0.588   4.015   3.011
90509SOL     OW73365  10.112  11.789  10.430
90509SOL    HW173366  10.152  11.863  10.475
90509SOL    HW273367  10.020  11.813  10.421
90510SOL     OW73368   4.289   5.614   7.467
90510SOL    HW173369   4.218   5.642   7.525
90510SOL    HW273370   4.347   5.690   7.462
90511SOL     OW73371   8.880   0.476   9.410
90511SOL    HW173372   8.916   0.462   9.498
90511SOL    HW273373   8.931   0.549   9.375
90512SOL     OW73374   1.033   3.550   8.111
90512SOL    HW173375   0.974   3.558   8.186
90512SOL    HW273376   1.051   3.456   8.104
90513SOL     OW73377   6.872  10.946   8.895
90513SOL    HW173378   6.800  10.884   8.888
90513SOL    HW273379   6.882  10.961   8.990
90514SOL     OW73380   2.814   2.863   9.613
90514SOL    HW173381   2.774   2.835   9.531
90514SOL    HW273382   2.833   2.956   9.600
90515SOL     OW73383   7.022  10.391  12.530
90515SOL    HW173384   7.072  10.366  12.452
90515SOL    HW273385   6.985  10.309  12.563
90516SOL     OW73386   1.316   0.060   4.017
90516SOL    HW173387   1.395   0.079   4.068
90516SOL    HW273388   1.244   0.089   4.073
90517SOL     OW73389   8.733   5.312   5.347
90517SOL    HW173390   8.673   5.382   5.372
90517SOL    HW273391   8.765   5.278   5.431
90518SOL     OW73392   4.461   4.058   1.048
90518SOL    HW173393   4.373   4.022   1.040
90518SOL    HW273394   4.491   4.029   1.134
90519SOL     OW73395   5.151   8.228   7.785
90519SOL    HW173396   5.130   8.322   7.787
90519SOL    HW273397   5.210   8.215   7.859
90520SOL     OW73398  12.840   8.772   5.718
90520SOL    HW173399  12.847   8.719   5.639
90520SOL    HW273400  12.883   8.854   5.696
90521SOL     OW73401  11.653  11.912   4.275
90521SOL    HW173402  11.668  11.878   4.363
90521SOL    HW273403  11.609  11.996   4.289
90522SOL     OW73404  12.418   3.706   3.784
90522SOL    HW173405  12.408   3.735   3.693
90522SOL    HW273406  12.378   3.777   3.836
90523SOL     OW73407  14.841   8.864   4.195
90523SOL    HW173408   0.055   8.872   4.216
90523SOL    HW273409  14.840   8.838   4.103
90524SOL     OW73410   7.586  13.658  10.188
90524SOL    HW173411   7.630  13.719  10.130
90524SOL    HW273412   7.520  13.615  10.134
90525SOL     OW73413  12.033  14.620   6.993
90525SOL    HW173414  11.940  14.641   6.984
90525SOL    HW273415  12.052  14.563   6.918
90526SOL     OW73416   5.994   8.636  11.568
90526SOL    HW173417   5.956   8.564  11.619
90526SOL    HW273418   6.080   8.650  11.608
90527SOL     OW73419   3.515  14.630  11.314
90527SOL    HW173420   3.578  14.635  11.242
90527SOL    HW273421   3.466  14.550  11.298
90528SOL     OW73422  10.003   3.625   5.911
90528SOL    HW173423  10.077   3.586   5.957
90528SOL    HW273424   9.955   3.673   5.979
90529SOL     OW73425  13.044   2.802   6.034
90529SOL    HW173426  12.957   2.826   6.002
90529SOL    HW273427  13.036   2.807   6.129
90530SOL     OW73428  13.292  12.821   1.616
90530SOL    HW173429  13.237  12.887   1.658
90530SOL    HW273430  13.329  12.772   1.690
90531SOL     OW73431   6.367  13.070   2.806
90531SOL    HW173432   6.309  13.013   2.857
90531SOL    HW273433   6.384  13.022   2.725
90532SOL     OW73434   5.113   7.959   8.012
90532SOL    HW173435   5.194   7.956   7.961
90532SOL    HW273436   5.097   7.868   8.036
90533SOL     OW73437  10.121   1.890  11.766
90533SOL    HW173438  10.187   1.892  11.836
90533SOL    HW273439  10.074   1.972  11.774
90534SOL     OW73440   3.970   3.967   7.197
90534SOL    HW173441   4.050   3.921   7.222
90534SOL    HW273442   3.994   4.059   7.198
90535SOL     OW73443  14.170   4.579   1.407
90535SOL    HW173444  14.089   4.560   1.455
90535SOL    HW273445  14.142   4.590   1.316
90536SOL     OW73446   5.315   7.318  11.101
90536SOL    HW173447   5.287   7.399  11.058
90536SOL    HW273448   5.298   7.250  11.036
90537SOL     OW73449   1.647   7.908  11.733
90537SOL    HW173450   1.588   7.981  11.715
90537SOL    HW273451   1.714   7.914  11.665
90538SOL     OW73452   9.493   2.740  11.225
90538SOL    HW173453   9.460   2.685  11.155
90538SOL    HW273454   9.428   2.810  11.234
90539SOL     OW73455   7.940   7.555   1.095
90539SOL    HW173456   7.963   7.481   1.150
90539SOL    HW273457   7.981   7.536   1.010
90540SOL     OW73458   7.835  11.743   9.782
90540SOL    HW173459   7.748  11.760   9.746
90540SOL    HW273460   7.826  11.763   9.876
90541SOL     OW73461  13.480   8.112  10.339
90541SOL    HW173462  13.560   8.164  10.344
90541SOL    HW273463  13.456   8.114  10.246
90542SOL     OW73464  10.466  11.024   8.834
90542SOL    HW173465  10.558  11.005   8.814
90542SOL    HW273466  10.469  11.086   8.906
90543SOL     OW73467   2.177   6.631   2.046
90543SOL    HW173468   2.213   6.600   2.129
90543SOL    HW273469   2.149   6.721   2.064
90544SOL     OW73470   1.579  11.474   0.701
90544SOL    HW173471   1.601  11.534   0.630
90544SOL    HW273472   1.562  11.531   0.776
90545SOL     OW73473   4.578   9.054   9.341
90545SOL    HW173474   4.539   9.141   9.333
90545SOL    HW273475   4.509   8.994   9.315
90546SOL     OW73476   0.693   9.333   7.379
90546SOL    HW173477   0.737   9.294   7.303
90546SOL    HW273478   0.733   9.420   7.388
90547SOL     OW73479  12.824   6.997   7.874
90547SOL    HW173480  12.833   6.903   7.889
90547SOL    HW273481  12.901   7.021   7.823
90548SOL     OW73482  13.063   1.667   8.761
90548SOL    HW173483  13.125   1.614   8.810
90548SOL    HW273484  13.114   1.743   8.732
90549SOL     OW73485   2.698   2.817   2.295
90549SOL    HW173486   2.781   2.803   2.342
90549SOL    HW273487   2.692   2.745   2.233
90550SOL     OW73488  11.440  10.453   1.388
90550SOL    HW173489  11.345  10.446   1.382
90550SOL    HW273490  11.455  10.528   1.445
90551SOL     OW73491   0.262   4.316  13.532
90551SOL    HW173492   0.233   4.244  13.588
90551SOL    HW273493   0.358   4.310  13.533
90552SOL     OW73494   1.081   5.546   6.688
90552SOL    HW173495   1.017   5.564   6.757
90552SOL    HW273496   1.064   5.456   6.663
90553SOL     OW73497   3.946   1.010   8.973
90553SOL    HW173498   3.854   1.037   8.974
90553SOL    HW273499   3.966   0.995   8.880
90554SOL     OW73500   3.719   5.423   7.778
90554SOL    HW173501   3.806   5.435   7.815
90554SOL    HW273502   3.714   5.329   7.760
90555SOL     OW73503   2.295  11.462   1.170
90555SOL    HW173504   2.228  11.405   1.209
90555SOL    HW273505   2.257  11.489   1.086
90556SOL     OW73506   8.965   5.089  12.370
90556SOL    HW173507   9.057   5.100  12.345
90556SOL    HW273508   8.918   5.085  12.287
90557SOL     OW73509   3.607  12.154   2.524
90557SOL    HW173510   3.542  12.126   2.460
90557SOL    HW273511   3.589  12.247   2.538
90558SOL     OW73512   5.883  12.087   7.410
90558SOL    HW173513   5.810  12.135   7.448
90558SOL    HW273514   5.854  11.995   7.411
90559SOL     OW73515   5.103   8.120  10.445
90559SOL    HW173516   5.074   8.210  10.433
90559SOL    HW273517   5.038   8.067  10.398
90560SOL     OW73518   2.375  12.926  12.529
90560SOL    HW173519   2.377  12.840  12.486
90560SOL    HW273520   2.467  12.947  12.544
90561SOL     OW73521   2.362   3.021   5.753
90561SOL    HW173522   2.410   3.049   5.831
90561SOL    HW273523   2.430   2.987   5.694
90562SOL     OW73524   5.068   1.658  11.754
90562SOL    HW173525   5.059   1.745  11.714
90562SOL    HW273526   4.984   1.616  11.740
90563SOL     OW73527   6.355  10.790   5.275
90563SOL    HW173528   6.446  10.769   5.297
90563SOL    HW273529   6.331  10.857   5.339
90564SOL     OW73530   9.283  10.716   7.017
90564SOL    HW173531   9.313  10.625   7.015
90564SOL    HW273532   9.247  10.728   7.105
90565SOL     OW73533   8.013   6.512   7.394
90565SOL    HW173534   8.018   6.458   7.315
90565SOL    HW273535   7.997   6.600   7.361
90566SOL     OW73536   6.380   3.032   7.897
90566SOL    HW173537   6.413   2.968   7.834
90566SOL    HW273538   6.305   3.072   7.853
90567SOL     OW73539  10.801   6.544   4.470
90567SOL    HW173540  10.868   6.583   4.414
90567SOL    HW273541  10.719   6.557   4.422
90568SOL     OW73542   1.673  14.418   2.666
90568SOL    HW173543   1.600  14.376   2.619
90568SOL    HW273544   1.751  14.374   2.632
90569SOL     OW73545   2.132   1.939   5.494
90569SOL    HW173546   2.209   1.893   5.460
90569SOL    HW273547   2.093   1.877   5.556
90570SOL     OW73548   6.910  12.417   5.615
90570SOL    HW173549   6.830  12.413   5.667
90570SOL    HW273550   6.922  12.327   5.583
90571SOL     OW73551   5.906   3.406  11.328
90571SOL    HW173552   5.946   3.397  11.414
90571SOL    HW273553   5.814   3.426  11.345
90572SOL     OW73554   6.585   4.194   5.220
90572SOL    HW173555   6.663   4.174   5.272
90572SOL    HW273556   6.548   4.272   5.260
90573SOL     OW73557  11.590   3.669   8.825
90573SOL    HW173558  11.573   3.749   8.775
90573SOL    HW273559  11.509   3.619   8.820
90574SOL     OW73560   8.734   0.854   7.940
90574SOL    HW173561   8.692   0.844   7.854
90574SOL    HW273562   8.663   0.842   8.003
90575SOL     OW73563   3.822  11.566   4.842
90575SOL    HW173564   3.870  11.484   4.854
90575SOL    HW273565   3.814  11.601   4.931
90576SOL     OW73566   8.780  10.472  13.421
90576SOL    HW173567   8.688  10.477  13.448
90576SOL    HW273568   8.830  10.492  13.500
90577SOL     OW73569   1.432   5.015   1.858
90577SOL    HW173570   1.450   5.097   1.813
90577SOL    HW273571   1.426   5.038   1.950
90578SOL     OW73572   7.340   8.711   2.756
90578SOL    HW173573   7.308   8.647   2.820
90578SOL    HW273574   7.262   8.758   2.727
90579SOL     OW73575   7.574  14.011   8.185
90579SOL    HW173576   7.520  13.934   8.167
90579SOL    HW273577   7.513  14.084   8.186
90580SOL     OW73578   3.268  11.516   6.489
90580SOL    HW173579   3.319  11.592   6.460
90580SOL    HW273580   3.295  11.502   6.580
90581SOL     OW73581  12.088   1.363   7.426
90581SOL    HW173582  12.046   1.301   7.366
90581SOL    HW273583  12.066   1.449   7.391
90582SOL     OW73584  14.875  10.391   3.434
90582SOL    HW173585   0.069  10.348   3.480
90582SOL    HW273586  14.815  10.417   3.504
90583SOL     OW73587   8.001  14.630   0.476
90583SOL    HW173588   8.007  14.671   0.562
90583SOL    HW273589   8.012  14.702   0.414
90584SOL     OW73590   6.468   7.999  10.012
90584SOL    HW173591   6.381   7.975  10.044
90584SOL    HW273592   6.489   8.079  10.061
90585SOL     OW73593  11.301   8.315   5.371
90585SOL    HW173594  11.338   8.372   5.439
90585SOL    HW273595  11.207   8.331   5.375
90586SOL     OW73596  14.387  11.847   8.504
90586SOL    HW173597  14.403  11.937   8.535
90586SOL    HW273598  14.297  11.829   8.531
90587SOL     OW73599  11.268  10.720  12.775
90587SOL    HW173600  11.182  10.716  12.817
90587SOL    HW273601  11.290  10.629  12.757
90588SOL     OW73602   0.275  10.294   1.604
90588SOL    HW173603   0.266  10.249   1.520
90588SOL    HW273604   0.334  10.238   1.655
90589SOL     OW73605   3.164  13.352  14.856
90589SOL    HW173606   3.185  13.269   0.020
90589SOL    HW273607   3.108  13.327  14.783
90590SOL     OW73608  12.258   0.647   7.025
90590SOL    HW173609  12.269   0.686   7.112
90590SOL    HW273610  12.298   0.711   6.966
90591SOL     OW73611   0.229   5.786  12.047
90591SOL    HW173612   0.209   5.836  12.125
90591SOL    HW273613   0.231   5.695  12.077
90592SOL     OW73614   1.823   0.436   6.610
90592SOL    HW173615   1.736   0.402   6.590
90592SOL    HW273616   1.823   0.524   6.571
90593SOL     OW73617   0.705   7.655  12.767
90593SOL    HW173618   0.661   7.673  12.851
90593SOL    HW273619   0.785   7.708  12.771
90594SOL     OW73620  12.470   5.467   3.554
90594SOL    HW173621  12.558   5.482   3.519
90594SOL    HW273622  12.422   5.546   3.532
90595SOL     OW73623   9.156   1.811   4.773
90595SOL    HW173624   9.116   1.777   4.853
90595SOL    HW273625   9.211   1.884   4.804
90596SOL     OW73626   2.319  12.913  14.271
90596SOL    HW173627   2.230  12.903  14.238
90596SOL    HW273628   2.375  12.879  14.201
90597SOL     OW73629  14.518  12.507   4.671
90597SOL    HW173630  14.503  12.565   4.746
90597SOL    HW273631  14.487  12.556   4.595
90598SOL     OW73632   4.354   9.550  10.130
90598SOL    HW173633   4.442   9.523  10.104
90598SOL    HW273634   4.366   9.636  10.169
90599SOL     OW73635   8.604   9.835   2.208
90599SOL    HW173636   8.619   9.926   2.181
90599SOL    HW273637   8.590   9.788   2.126
90600SOL     OW73638   3.293  13.766  11.031
90600SOL    HW173639   3.257  13.703  11.094
90600SOL    HW273640   3.387  13.764  11.047
90601SOL     OW73641  11.381   4.240   4.806
90601SOL    HW173642  11.324   4.313   4.779
90601SOL    HW273643  11.348   4.215   4.892
90602SOL     OW73644   4.036  13.053   4.237
90602SOL    HW173645   4.071  13.142   4.244
90602SOL    HW273646   4.032  13.022   4.328
90603SOL     OW73647   4.207   4.723  14.424
90603SOL    HW173648   4.250   4.639  14.437
90603SOL    HW273649   4.277   4.788  14.434
90604SOL     OW73650  10.958   2.196  13.778
90604SOL    HW173651  10.948   2.207  13.872
90604SOL    HW273652  10.929   2.106  13.761
90605SOL     OW73653   6.666   3.855   4.622
90605SOL    HW173654   6.730   3.908   4.671
90605SOL    HW273655   6.636   3.913   4.552
90606SOL     OW73656   8.837   4.898   5.547
90606SOL    HW173657   8.929   4.901   5.572
90606SOL    HW273658   8.799   4.831   5.603
90607SOL     OW73659   6.825   5.016   9.283
90607SOL    HW173660   6.847   5.099   9.325
90607SOL    HW273661   6.870   5.019   9.198
90608SOL     OW73662   5.045   1.460   3.709
90608SOL    HW173663   5.012   1.468   3.620
90608SOL    HW273664   5.110   1.390   3.705
90609SOL     OW73665   7.550  13.577   1.839
90609SOL    HW173666   7.643  13.589   1.861
90609SOL    HW273667   7.507  13.653   1.877
90610SOL     OW73668  10.899  14.757  14.313
90610SOL    HW173669  10.850  14.831  14.278
90610SOL    HW273670  10.865  14.745  14.402
90611SOL     OW73671   9.779   0.289  14.762
90611SOL    HW173672   9.712   0.346  14.801
90611SOL    HW273673   9.793   0.221  14.827
90612SOL     OW73674  13.641  10.387   5.469
90612SOL    HW173675  13.699  10.412   5.541
90612SOL    HW273676  13.684  10.312   5.428
90613SOL     OW73677   6.837   7.482   0.966
90613SOL    HW173678   6.781   7.524   1.031
90613SOL    HW273679   6.907   7.441   1.017
90614SOL     OW73680  14.776   3.802   1.299
90614SOL    HW173681  14.752   3.731   1.359
90614SOL    HW273682  14.848   3.848   1.343
90615SOL     OW73683   2.036  14.222  12.195
90615SOL    HW173684   1.983  14.195  12.269
90615SOL    HW273685   2.102  14.280  12.233
90616SOL     OW73686   2.322   9.684  12.179
90616SOL    HW173687   2.249   9.692  12.117
90616SOL    HW273688   2.399   9.666  12.123
90617SOL     OW73689   9.911   8.891  13.029
90617SOL    HW173690   9.888   8.983  13.012
90617SOL    HW273691   9.972   8.895  13.102
90618SOL     OW73692   1.103   3.127  10.008
90618SOL    HW173693   1.126   3.163   9.922
90618SOL    HW273694   1.126   3.035  10.002
90619SOL     OW73695   4.208  14.637   6.923
90619SOL    HW173696   4.123  14.660   6.884
90619SOL    HW273697   4.272  14.683   6.869
90620SOL     OW73698  12.489  10.525   3.861
90620SOL    HW173699  12.577  10.549   3.890
90620SOL    HW273700  12.500  10.503   3.768
90621SOL     OW73701   4.349   8.461   8.028
90621SOL    HW173702   4.424   8.486   8.082
90621SOL    HW273703   4.285   8.425   8.090
90622SOL     OW73704   2.140  12.723   6.731
90622SOL    HW173705   2.207  12.759   6.674
90622SOL    HW273706   2.140  12.779   6.808
90623SOL     OW73707   1.752   3.752  13.313
90623SOL    HW173708   1.696   3.713  13.246
90623SOL    HW273709   1.812   3.809  13.265
90624SOL     OW73710   6.840  14.186  11.260
90624SOL    HW173711   6.895  14.118  11.301
90624SOL    HW273712   6.753  14.170  11.297
90625SOL     OW73713   2.364   0.726   4.971
90625SOL    HW173714   2.332   0.651   5.021
90625SOL    HW273715   2.379   0.794   5.037
90626SOL     OW73716   3.858  13.670  14.549
90626SOL    HW173717   3.843  13.764  14.557
90626SOL    HW273718   3.953  13.660  14.560
90627SOL     OW73719   8.430   4.892   5.286
90627SOL    HW173720   8.390   4.970   5.324
90627SOL    HW273721   8.372   4.868   5.215
90628SOL     OW73722   4.344   8.876  12.644
90628SOL    HW173723   4.299   8.835  12.719
90628SOL    HW273724   4.370   8.962  12.676
90629SOL     OW73725  10.071   7.578   7.329
90629SOL    HW173726   9.979   7.554   7.321
90629SOL    HW273727  10.071   7.674   7.330
90630SOL     OW73728  12.100  12.133   9.846
90630SOL    HW173729  12.174  12.107   9.902
90630SOL    HW273730  12.134  12.124   9.757
90631SOL     OW73731   7.638   1.939   7.988
90631SOL    HW173732   7.648   2.017   8.042
90631SOL    HW273733   7.635   1.867   8.050
90632SOL     OW73734   1.904  11.404  10.722
90632SOL    HW173735   1.867  11.490  10.709
90632SOL    HW273736   1.975  11.398  10.659
90633SOL     OW73737   6.092   3.786  10.881
90633SOL    HW173738   6.142   3.816  10.957
90633SOL    HW273739   6.149   3.805  10.806
90634SOL     OW73740  11.715  13.201   4.618
90634SOL    HW173741  11.620  13.194   4.616
90634SOL    HW273742  11.739  13.186   4.709
90635SOL     OW73743   7.177  14.445   6.274
90635SOL    HW173744   7.268  14.464   6.253
90635SOL    HW273745   7.145  14.525   6.317
90636SOL     OW73746   2.538  12.098   8.470
90636SOL    HW173747   2.465  12.093   8.532
90636SOL    HW273748   2.518  12.175   8.416
90637SOL     OW73749  13.342   1.892   9.177
90637SOL    HW173750  13.412   1.872   9.116
90637SOL    HW273751  13.383   1.888   9.264
90638SOL     OW73752   7.003   4.462   6.983
90638SOL    HW173753   7.053   4.388   7.016
90638SOL    HW273754   6.915   4.450   7.020
90639SOL     OW73755   6.759   5.124  10.956
90639SOL    HW173756   6.828   5.084  11.009
90639SOL    HW273757   6.763   5.217  10.978
90640SOL     OW73758  10.373  10.984   4.510
90640SOL    HW173759  10.318  11.048   4.465
90640SOL    HW273760  10.312  10.932   4.561
90641SOL     OW73761   8.425  10.191   5.720
90641SOL    HW173762   8.380  10.149   5.793
90641SOL    HW273763   8.517  10.197   5.748
90642SOL     OW73764  11.887   5.740   8.380
90642SOL    HW173765  11.964   5.699   8.420
90642SOL    HW273766  11.818   5.673   8.386
90643SOL     OW73767   0.460  13.763   9.061
90643SOL    HW173768   0.411  13.835   9.099
90643SOL    HW273769   0.394  13.697   9.040
90644SOL     OW73770  10.025   3.532  13.846
90644SOL    HW173771  10.091   3.536  13.916
90644SOL    HW273772  10.065   3.581  13.774
90645SOL     OW73773   7.901   9.498   7.051
90645SOL    HW173774   7.921   9.575   6.998
90645SOL    HW273775   7.821   9.462   7.012
90646SOL     OW73776  11.472   6.739  14.284
90646SOL    HW173777  11.516   6.772  14.363
90646SOL    HW273778  11.536   6.753  14.214
90647SOL     OW73779   1.285  12.420  14.832
90647SOL    HW173780   1.266  12.432   0.046
90647SOL    HW273781   1.380  12.414  14.828
90648SOL     OW73782  11.094   0.156  13.777
90648SOL    HW173783  11.116   0.246  13.751
90648SOL    HW273784  11.119   0.151  13.869
90649SOL     OW73785   8.890   7.072  10.348
90649SOL    HW173786   8.837   7.102  10.274
90649SOL    HW273787   8.929   7.152  10.382
90650SOL     OW73788   9.504  14.234   1.842
90650SOL    HW173789   9.443  14.266   1.909
90650SOL    HW273790   9.497  14.298   1.771
90651SOL     OW73791   5.754   6.150  11.264
90651SOL    HW173792   5.676   6.095  11.274
90651SOL    HW273793   5.822   6.105  11.315
90652SOL     OW73794  10.056  14.036  10.933
90652SOL    HW173795  10.010  14.039  11.017
90652SOL    HW273796  10.001  13.979  10.878
90653SOL     OW73797   6.116   9.795  12.220
90653SOL    HW173798   6.179   9.859  12.186
90653SOL    HW273799   6.146   9.778  12.309
90654SOL     OW73800   9.238   2.219   9.911
90654SOL    HW173801   9.294   2.225   9.833
90654SOL    HW273802   9.173   2.153   9.888
90655SOL     OW73803  12.175   2.557  12.563
90655SOL    HW173804  12.171   2.590  12.473
90655SOL    HW273805  12.265   2.525  12.572
90656SOL     OW73806  13.996  13.192   3.307
90656SOL    HW173807  14.031  13.103   3.300
90656SOL    HW273808  14.066  13.243   3.347
90657SOL     OW73809  13.496   4.444  14.794
90657SOL    HW173810  13.420   4.429  14.738
90657SOL    HW273811  13.563   4.384  14.762
90658SOL     OW73812   1.300   9.677   7.810
90658SOL    HW173813   1.254   9.685   7.726
90658SOL    HW273814   1.389   9.706   7.792
90659SOL     OW73815   1.955   4.266  11.595
90659SOL    HW173816   1.866   4.235  11.610
90659SOL    HW273817   1.945   4.360  11.577
90660SOL     OW73818  13.511   9.517   0.096
90660SOL    HW173819  13.567   9.484   0.026
90660SOL    HW273820  13.490   9.439   0.148
90661SOL     OW73821   0.953  13.159   1.056
90661SOL    HW173822   0.908  13.084   1.018
90661SOL    HW273823   1.002  13.123   1.130
90662SOL     OW73824   8.868   6.997   0.055
90662SOL    HW173825   8.916   6.925   0.095
90662SOL    HW273826   8.935   7.049   0.010
90663SOL     OW73827   9.571   0.304   4.195
90663SOL    HW173828   9.585   0.397   4.211
90663SOL    HW273829   9.494   0.282   4.248
90664SOL     OW73830  10.422   6.915   1.233
90664SOL    HW173831  10.456   6.850   1.294
90664SOL    HW273832  10.329   6.923   1.255
90665SOL     OW73833   0.140   6.294   8.853
90665SOL    HW173834   0.047   6.303   8.830
90665SOL    HW273835   0.175   6.383   8.849
90666SOL     OW73836   8.517  14.536   4.405
90666SOL    HW173837   8.455  14.599   4.442
90666SOL    HW273838   8.538  14.477   4.477
90667SOL     OW73839   6.229  10.410   3.224
90667SOL    HW173840   6.194  10.436   3.310
90667SOL    HW273841   6.322  10.394   3.241
90668SOL     OW73842   4.968  11.030   6.322
90668SOL    HW173843   4.961  10.997   6.233
90668SOL    HW273844   5.055  11.071   6.326
90669SOL     OW73845  12.268   2.480   2.073
90669SOL    HW173846  12.314   2.411   2.026
90669SOL    HW273847  12.231   2.535   2.004
90670SOL     OW73848   8.789   3.972   6.258
90670SOL    HW173849   8.859   3.993   6.320
90670SOL    HW273850   8.795   3.877   6.247
90671SOL     OW73851   7.110   9.156   8.981
90671SOL    HW173852   7.027   9.143   9.026
90671SOL    HW273853   7.093   9.229   8.921
90672SOL     OW73854   9.451   2.353   2.462
90672SOL    HW173855   9.429   2.378   2.551
90672SOL    HW273856   9.414   2.266   2.451
90673SOL     OW73857   9.591  11.765   1.087
90673SOL    HW173858   9.514  11.822   1.093
90673SOL    HW273859   9.562  11.691   1.033
90674SOL     OW73860   1.716   2.092   0.542
90674SOL    HW173861   1.684   2.003   0.526
90674SOL    HW273862   1.668   2.146   0.479
90675SOL     OW73863  12.339  13.451   0.475
90675SOL    HW173864  12.433  13.461   0.486
90675SOL    HW273865  12.327  13.358   0.455
90676SOL     OW73866   5.788  13.973   1.024
90676SOL    HW173867   5.807  13.928   0.942
90676SOL    HW273868   5.859  14.037   1.033
90677SOL     OW73869  12.268   3.660  11.195
90677SOL    HW173870  12.223   3.705  11.266
90677SOL    HW273871  12.324   3.727  11.155
90678SOL     OW73872   6.320   9.311   4.442
90678SOL    HW173873   6.241   9.346   4.401
90678SOL    HW273874   6.315   9.217   4.429
90679SOL     OW73875   6.223   0.847   2.382
90679SOL    HW173876   6.288   0.788   2.342
90679SOL    HW273877   6.256   0.935   2.365
90680SOL     OW73878   0.949   2.032  14.664
90680SOL    HW173879   0.872   1.976  14.660
90680SOL    HW273880   0.967   2.043  14.758
90681SOL     OW73881  14.230   5.746   1.197
90681SOL    HW173882  14.292   5.675   1.214
90681SOL    HW273883  14.190   5.723   1.113
90682SOL     OW73884   9.126   1.717   2.983
90682SOL    HW173885   9.211   1.706   3.024
90682SOL    HW273886   9.075   1.641   3.012
90683SOL     OW73887  11.672  11.352   3.684
90683SOL    HW173888  11.606  11.417   3.661
90683SOL    HW273889  11.623  11.271   3.695
90684SOL     OW73890  13.239   8.983  11.092
90684SOL    HW173891  13.252   9.033  11.011
90684SOL    HW273892  13.297   8.907  11.083
90685SOL     OW73893   9.613   2.747  12.246
90685SOL    HW173894   9.632   2.840  12.246
90685SOL    HW273895   9.634   2.719  12.156
90686SOL     OW73896  10.244  10.334   3.838
90686SOL    HW173897  10.185  10.258   3.842
90686SOL    HW273898  10.278  10.342   3.927
90687SOL     OW73899   6.429   8.427  14.489
90687SOL    HW173900   6.385   8.378  14.559
90687SOL    HW273901   6.359   8.449  14.427
90688SOL     OW73902   3.940   7.413   8.467
90688SOL    HW173903   3.929   7.320   8.450
90688SOL    HW273904   4.032   7.431   8.447
90689SOL     OW73905  14.803   4.101  10.832
90689SOL    HW173906  14.807   4.173  10.895
90689SOL    HW273907  14.758   4.031  10.879
90690SOL     OW73908  10.749   1.992   9.089
90690SOL    HW173909  10.743   1.940   9.169
90690SOL    HW273910  10.676   1.962   9.035
90691SOL     OW73911  11.276  10.452   7.890
90691SOL    HW173912  11.295  10.437   7.983
90691SOL    HW273913  11.275  10.364   7.852
90692SOL     OW73914   1.495   6.847   9.802
90692SOL    HW173915   1.471   6.851   9.895
90692SOL    HW273916   1.566   6.911   9.793
90693SOL     OW73917   3.787   8.192   1.728
90693SOL    HW173918   3.741   8.145   1.797
90693SOL    HW273919   3.761   8.283   1.740
90694SOL     OW73920   8.833  12.405   9.606
90694SOL    HW173921   8.772  12.477   9.623
90694SOL    HW273922   8.888  12.437   9.534
90695SOL     OW73923  10.279   8.155  13.775
90695SOL    HW173924  10.224   8.219  13.730
90695SOL    HW273925  10.307   8.095  13.706
90696SOL     OW73926   7.655   6.143  13.196
90696SOL    HW173927   7.695   6.120  13.279
90696SOL    HW273928   7.701   6.221  13.167
90697SOL     OW73929   8.762  14.467   1.940
90697SOL    HW173930   8.725  14.552   1.964
90697SOL    HW273931   8.746  14.459   1.846
90698SOL     OW73932   4.368   1.377   3.165
90698SOL    HW173933   4.344   1.358   3.256
90698SOL    HW273934   4.353   1.471   3.156
90699SOL     OW73935  14.815   8.875   3.142
90699SOL    HW173936  14.720   8.879   3.134
90699SOL    HW273937  14.847   8.908   3.059
90700SOL     OW73938   3.264  10.628   8.445
90700SOL    HW173939   3.254  10.717   8.412
90700SOL    HW273940   3.300  10.579   8.371
90701SOL     OW73941   1.059   6.037   6.601
90701SOL    HW173942   0.970   6.019   6.569
90701SOL    HW273943   1.073   6.130   6.580
90702SOL     OW73944   1.407   1.131   6.396
90702SOL    HW173945   1.495   1.096   6.383
90702SOL    HW273946   1.416   1.226   6.384
90703SOL     OW73947   8.714   5.469   8.444
90703SOL    HW173948   8.693   5.562   8.437
90703SOL    HW273949   8.682   5.431   8.362
90704SOL     OW73950  10.482   4.629   3.633
90704SOL    HW173951  10.527   4.700   3.589
90704SOL    HW273952  10.420   4.596   3.568
90705SOL     OW73953   2.907   0.779  12.306
90705SOL    HW173954   2.923   0.870  12.333
90705SOL    HW273955   2.825   0.783  12.257
90706SOL     OW73956  10.620   5.521  11.419
90706SOL    HW173957  10.612   5.452  11.353
90706SOL    HW273958  10.549   5.582  11.399
90707SOL     OW73959   7.661  14.549  13.302
90707SOL    HW173960   7.720  14.474  13.316
90707SOL    HW273961   7.649  14.586  13.389
90708SOL     OW73962  10.499   7.126   7.104
90708SOL    HW173963  10.531   7.044   7.140
90708SOL    HW273964  10.448   7.101   7.027
90709SOL     OW73965  11.980   4.502   2.425
90709SOL    HW173966  11.994   4.422   2.374
90709SOL    HW273967  12.011   4.480   2.513
90710SOL     OW73968  14.040   0.089   0.818
90710SOL    HW173969  14.067   0.152   0.752
90710SOL    HW273970  14.059   0.132   0.902
90711SOL     OW73971   9.213   3.936   4.907
90711SOL    HW173972   9.226   3.842   4.923
90711SOL    HW273973   9.165   3.967   4.984
90712SOL     OW73974   1.035  12.609  10.532
90712SOL    HW173975   0.953  12.610  10.483
90712SOL    HW273976   1.099  12.648  10.473
90713SOL     OW73977   2.672   0.633   8.876
90713SOL    HW173978   2.759   0.617   8.910
90713SOL    HW273979   2.676   0.721   8.837
90714SOL     OW73980   4.478   7.961   2.968
90714SOL    HW173981   4.395   8.007   2.980
90714SOL    HW273982   4.479   7.939   2.874
90715SOL     OW73983   3.042   7.586  10.448
90715SOL    HW173984   3.064   7.548  10.533
90715SOL    HW273985   3.123   7.580  10.397
90716SOL     OW73986  11.648   5.091  11.048
90716SOL    HW173987  11.697   5.012  11.071
90716SOL    HW273988  11.563   5.080  11.090
90717SOL     OW73989   6.125  14.506   3.099
90717SOL    HW173990   6.132  14.601   3.106
90717SOL    HW273991   6.215  14.474   3.110
90718SOL     OW73992  10.567   7.923  13.651
90718SOL    HW173993  10.534   7.841  13.615
90718SOL    HW273994  10.499   7.987  13.631
90719SOL     OW73995   7.996   7.320  14.174
90719SOL    HW173996   8.035   7.400  14.140
90719SOL    HW273997   7.902   7.329  14.156
90720SOL     OW73998   3.325   7.035   7.453
90720SOL    HW173999   3.377   7.015   7.375
90720SOL    HW274000   3.295   7.125   7.441
90721SOL     OW74001  14.449  12.073  10.202
90721SOL    HW174002  14.527  12.130  10.205
90721SOL    HW274003  14.447  12.032  10.289
90722SOL     OW74004   6.286  14.535   3.444
90722SOL    HW174005   6.290  14.507   3.352
90722SOL    HW274006   6.303  14.455   3.494
90723SOL     OW74007  13.883   1.873  14.488
90723SOL    HW174008  13.788   1.874  14.504
90723SOL    HW274009  13.914   1.956  14.522
90724SOL     OW74010   3.880   9.363   0.385
90724SOL    HW174011   3.804   9.319   0.424
90724SOL    HW274012   3.896   9.315   0.304
90725SOL     OW74013  10.710   1.688   5.812
90725SOL    HW174014  10.626   1.725   5.839
90725SOL    HW274015  10.697   1.593   5.819
90726SOL     OW74016   9.926   0.578   3.853
90726SOL    HW174017   9.969   0.501   3.817
90726SOL    HW274018   9.957   0.584   3.943
90727SOL     OW74019   3.404   7.062   7.941
90727SOL    HW174020   3.447   6.976   7.938
90727SOL    HW274021   3.395   7.080   8.034
90728SOL     OW74022   5.205  11.292  13.428
90728SOL    HW174023   5.162  11.352  13.490
90728SOL    HW274024   5.213  11.210  13.477
90729SOL     OW74025   1.081   4.491   0.806
90729SOL    HW174026   1.101   4.398   0.812
90729SOL    HW274027   1.118   4.518   0.722
90730SOL     OW74028  12.265  10.879   0.301
90730SOL    HW174029  12.245  10.871   0.208
90730SOL    HW274030  12.180  10.893   0.343
90731SOL     OW74031   0.940  11.339  10.944
90731SOL    HW174032   0.904  11.426  10.962
90731SOL    HW274033   1.027  11.341  10.983
90732SOL     OW74034  12.952  12.194   1.738
90732SOL    HW174035  13.006  12.196   1.817
90732SOL    HW274036  12.987  12.120   1.687
90733SOL     OW74037  14.155   5.336   6.313
90733SOL    HW174038  14.123   5.425   6.297
90733SOL    HW274039  14.131   5.288   6.234
90734SOL     OW74040  10.510   4.847   0.823
90734SOL    HW174041  10.439   4.893   0.778
90734SOL    HW274042  10.467   4.774   0.867
90735SOL     OW74043   6.122   4.817   6.749
90735SOL    HW174044   6.035   4.792   6.780
90735SOL    HW274045   6.109   4.901   6.705
90736SOL     OW74046   1.200   7.542  12.336
90736SOL    HW174047   1.242   7.623  12.366
90736SOL    HW274048   1.134   7.572  12.273
90737SOL     OW74049  10.333   2.303   4.497
90737SOL    HW174050  10.273   2.257   4.438
90737SOL    HW274051  10.278   2.366   4.544
90738SOL     OW74052  14.704  12.640   8.277
90738SOL    HW174053  14.797  12.620   8.288
90738SOL    HW274054  14.681  12.601   8.193
90739SOL     OW74055   1.506   8.409  14.432
90739SOL    HW174056   1.479   8.360  14.510
90739SOL    HW274057   1.452   8.373  14.361
90740SOL     OW74058   7.743  10.670  14.043
90740SOL    HW174059   7.810  10.607  14.021
90740SOL    HW274060   7.780  10.755  14.019
90741SOL     OW74061   3.494  10.456  10.201
90741SOL    HW174062   3.448  10.419  10.276
90741SOL    HW274063   3.442  10.430  10.125
90742SOL     OW74064  12.422   6.137   4.783
90742SOL    HW174065  12.440   6.212   4.726
90742SOL    HW274066  12.354   6.168   4.843
90743SOL     OW74067   8.124   7.810   8.919
90743SOL    HW174068   8.187   7.755   8.872
90743SOL    HW274069   8.074   7.749   8.972
90744SOL     OW74070   8.298   5.337  10.970
90744SOL    HW174071   8.336   5.417  11.008
90744SOL    HW274072   8.359   5.268  10.995
90745SOL     OW74073   9.948  14.599   3.119
90745SOL    HW174074   9.971  14.574   3.208
90745SOL    HW274075   9.854  14.613   3.120
90746SOL     OW74076   0.487   8.260   5.437
90746SOL    HW174077   0.491   8.196   5.509
90746SOL    HW274078   0.407   8.309   5.453
90747SOL     OW74079   0.971  11.964   8.680
90747SOL    HW174080   1.049  11.926   8.720
90747SOL    HW274081   0.927  12.008   8.752
90748SOL     OW74082  14.733   4.497  14.122
90748SOL    HW174083  14.800   4.431  14.104
90748SOL    HW274084  14.683   4.461  14.195
90749SOL     OW74085  11.214   5.925  11.670
90749SOL    HW174086  11.287   5.919  11.608
90749SOL    HW274087  11.233   6.003  11.722
90750SOL     OW74088  12.457   4.441   2.003
90750SOL    HW174089  12.486   4.510   1.944
90750SOL    HW274090  12.538   4.407   2.041
90751SOL     OW74091   8.517  10.828  13.567
90751SOL    HW174092   8.441  10.818  13.623
90751SOL    HW274093   8.496  10.905  13.513
90752SOL     OW74094  12.257  13.398   9.611
90752SOL    HW174095  12.227  13.387   9.521
90752SOL    HW274096  12.227  13.320   9.656
90753SOL     OW74097   0.916   4.403   7.699
90753SOL    HW174098   0.882   4.316   7.676
90753SOL    HW274099   0.877   4.423   7.784
90754SOL     OW74100  12.711   6.870  10.610
90754SOL    HW174101  12.713   6.916  10.526
90754SOL    HW274102  12.800   6.833  10.618
90755SOL     OW74103   1.698   2.818  13.559
90755SOL    HW174104   1.613   2.774  13.564
90755SOL    HW274105   1.762   2.748  13.569
90756SOL     OW74106  12.775   3.944   2.379
90756SOL    HW174107  12.849   3.884   2.382
90756SOL    HW274108  12.709   3.898   2.327
90757SOL     OW74109  10.354   1.926   0.741
90757SOL    HW174110  10.275   1.915   0.793
90757SOL    HW274111  10.331   1.893   0.654
90758SOL     OW74112   8.025  11.052  13.005
90758SOL    HW174113   8.078  11.009  12.939
90758SOL    HW274114   8.071  11.037  13.087
90759SOL     OW74115  12.282   2.914   8.566
90759SOL    HW174116  12.318   2.895   8.653
90759SOL    HW274117  12.231   2.994   8.579
90760SOL     OW74118  13.134  10.485   6.040
90760SOL    HW174119  13.133  10.505   5.946
90760SOL    HW274120  13.093  10.399   6.046
90761SOL     OW74121   2.494  12.623   4.751
90761SOL    HW174122   2.414  12.616   4.802
90761SOL    HW274123   2.467  12.613   4.660
90762SOL     OW74124   3.253   6.251   1.233
90762SOL    HW174125   3.228   6.291   1.317
90762SOL    HW274126   3.177   6.266   1.177
90763SOL     OW74127   9.096  12.179   4.280
90763SOL    HW174128   9.165  12.151   4.341
90763SOL    HW274129   9.023  12.206   4.336
90764SOL     OW74130   9.948   2.374   7.477
90764SOL    HW174131   9.966   2.340   7.564
90764SOL    HW274132  10.006   2.450   7.468
90765SOL     OW74133   5.459   4.837   7.568
90765SOL    HW174134   5.520   4.769   7.540
90765SOL    HW274135   5.429   4.877   7.486
90766SOL     OW74136  13.304   7.194   2.601
90766SOL    HW174137  13.258   7.139   2.664
90766SOL    HW274138  13.395   7.192   2.628
90767SOL     OW74139   0.779   3.744   8.083
90767SOL    HW174140   0.837   3.668   8.093
90767SOL    HW274141   0.745   3.736   7.994
90768SOL     OW74142  14.835   9.535  11.978
90768SOL    HW174143  14.855   9.454  11.932
90768SOL    HW274144  14.740   9.531  11.993
90769SOL     OW74145  14.643   7.522  10.990
90769SOL    HW174146  14.556   7.500  11.024
90769SOL    HW274147  14.674   7.441  10.950
90770SOL     OW74148   2.962   4.711  13.477
90770SOL    HW174149   2.904   4.691  13.403
90770SOL    HW274150   2.922   4.788  13.518
90771SOL     OW74151   0.463   9.591   4.047
90771SOL    HW174152   0.504   9.608   4.132
90771SOL    HW274153   0.440   9.678   4.014
90772SOL     OW74154  13.596   1.860  14.304
90772SOL    HW174155  13.586   1.808  14.384
90772SOL    HW274156  13.668   1.818  14.257
90773SOL     OW74157  14.033   2.116   5.430
90773SOL    HW174158  14.054   2.118   5.337
90773SOL    HW274159  14.053   2.205   5.461
90774SOL     OW74160   1.053   1.409   6.771
90774SOL    HW174161   1.081   1.323   6.801
90774SOL    HW274162   0.995   1.441   6.840
90775SOL     OW74163  13.268   8.738   8.774
90775SOL    HW174164  13.357   8.772   8.770
90775SOL    HW274165  13.258   8.705   8.863
90776SOL     OW74166  11.115  11.716   2.005
90776SOL    HW174167  11.070  11.658   2.066
90776SOL    HW274168  11.049  11.736   1.938
90777SOL     OW74169  14.371   2.686  10.165
90777SOL    HW174170  14.312   2.611  10.177
90777SOL    HW274171  14.407   2.675  10.077
90778SOL     OW74172  13.903   6.506   9.188
90778SOL    HW174173  13.984   6.541   9.227
90778SOL    HW274174  13.834   6.565   9.219
90779SOL     OW74175  11.967   7.944  10.091
90779SOL    HW174176  11.902   7.990  10.144
90779SOL    HW274177  12.015   7.889  10.153
90780SOL     OW74178   2.044   1.428   0.508
90780SOL    HW174179   2.130   1.388   0.525
90780SOL    HW274180   2.057   1.521   0.524
90781SOL     OW74181   7.934   4.795  13.125
90781SOL    HW174182   7.864   4.754  13.074
90781SOL    HW274183   7.962   4.728  13.187
90782SOL     OW74184   6.304   5.922   2.986
90782SOL    HW174185   6.282   6.004   2.942
90782SOL    HW274186   6.393   5.937   3.020
90783SOL     OW74187   5.372   7.303  12.758
90783SOL    HW174188   5.378   7.207  12.762
90783SOL    HW274189   5.288   7.320  12.715
90784SOL     OW74190  10.164  13.599   8.735
90784SOL    HW174191  10.114  13.517   8.738
90784SOL    HW274192  10.113  13.655   8.677
90785SOL     OW74193   1.006  11.728   3.700
90785SOL    HW174194   0.975  11.813   3.732
90785SOL    HW274195   1.012  11.738   3.605
90786SOL     OW74196   2.356  11.564  11.252
90786SOL    HW174197   2.331  11.604  11.335
90786SOL    HW274198   2.452  11.567  11.252
90787SOL     OW74199   5.250  13.148   6.196
90787SOL    HW174200   5.259  13.201   6.116
90787SOL    HW274201   5.321  13.178   6.252
90788SOL     OW74202   3.616  13.204  12.353
90788SOL    HW174203   3.571  13.120  12.344
90788SOL    HW274204   3.551  13.261  12.394
90789SOL     OW74205   1.805   1.096   2.647
90789SOL    HW174206   1.836   1.113   2.558
90789SOL    HW274207   1.726   1.149   2.655
90790SOL     OW74208   0.812   9.084   6.006
90790SOL    HW174209   0.885   9.137   5.974
90790SOL    HW274210   0.834   8.995   5.978
90791SOL     OW74211  14.740  13.546   8.375
90791SOL    HW174212  14.815  13.576   8.324
90791SOL    HW274213  14.664  13.574   8.323
90792SOL     OW74214  12.173  12.334   5.612
90792SOL    HW174215  12.083  12.367   5.620
90792SOL    HW274216  12.203  12.322   5.702
90793SOL     OW74217   5.043  13.308   0.709
90793SOL    HW174218   5.031  13.219   0.677
90793SOL    HW274219   5.099  13.298   0.786
90794SOL     OW74220   5.132  12.949   4.563
90794SOL    HW174221   5.126  12.959   4.658
90794SOL    HW274222   5.225  12.941   4.545
90795SOL     OW74223   5.020   5.254   8.904
90795SOL    HW174224   5.045   5.307   8.828
90795SOL    HW274225   5.087   5.272   8.969
90796SOL     OW74226   0.618   9.294   3.373
90796SOL    HW174227   0.674   9.292   3.451
90796SOL    HW274228   0.640   9.213   3.326
90797SOL     OW74229   5.612  11.630   6.284
90797SOL    HW174230   5.599  11.686   6.360
90797SOL    HW274231   5.541  11.653   6.224
90798SOL     OW74232   8.528   4.339  12.131
90798SOL    HW174233   8.534   4.256  12.084
90798SOL    HW274234   8.490   4.400  12.067
90799SOL     OW74235   0.692   7.439  11.275
90799SOL    HW174236   0.733   7.409  11.194
90799SOL    HW274237   0.651   7.522  11.252
90800SOL     OW74238  12.091   8.082  12.179
90800SOL    HW174239  12.185   8.068  12.191
90800SOL    HW274240  12.077   8.076  12.085
90801SOL     OW74241   4.088   4.692   8.187
90801SOL    HW174242   4.167   4.695   8.241
90801SOL    HW274243   4.027   4.751   8.230
90802SOL     OW74244  10.508   9.746   4.194
90802SOL    HW174245  10.449   9.688   4.242
90802SOL    HW274246  10.519   9.822   4.251
90803SOL     OW74247  14.859   1.165   7.985
90803SOL    HW174248  14.877   1.258   7.973
90803SOL    HW274249   0.024   1.122   7.912
90804SOL     OW74250   8.541   8.364  14.816
90804SOL    HW174251   8.499   8.418  14.749
90804SOL    HW274252   8.502   8.277  14.803
90805SOL     OW74253  14.788   4.371  11.221
90805SOL    HW174254  14.717   4.434  11.226
90805SOL    HW274255  14.754   4.293  11.264
90806SOL     OW74256  12.569   6.666   2.335
90806SOL    HW174257  12.632   6.601   2.366
90806SOL    HW274258  12.520   6.691   2.413
90807SOL     OW74259   6.241   7.206   7.474
90807SOL    HW174260   6.194   7.279   7.433
90807SOL    HW274261   6.172   7.145   7.501
90808SOL     OW74262   6.396  11.396   7.850
90808SOL    HW174263   6.329  11.384   7.918
90808SOL    HW274264   6.348  11.389   7.767
90809SOL     OW74265   7.949  10.726  11.712
90809SOL    HW174266   8.029  10.777  11.707
90809SOL    HW274267   7.903  10.746  11.630
90810SOL     OW74268  11.663  11.474  13.317
90810SOL    HW174269  11.600  11.478  13.389
90810SOL    HW274270  11.680  11.565  13.294
90811SOL     OW74271   8.918   1.744   7.754
90811SOL    HW174272   8.994   1.746   7.813
90811SOL    HW274273   8.873   1.662   7.775
90812SOL     OW74274   7.960   0.616   0.140
90812SOL    HW174275   7.884   0.653   0.186
90812SOL    HW274276   7.937   0.620   0.048
90813SOL     OW74277   8.920   0.387   8.811
90813SOL    HW174278   8.985   0.389   8.742
90813SOL    HW274279   8.875   0.303   8.800
90814SOL     OW74280   3.339   5.706  13.303
90814SOL    HW174281   3.376   5.741  13.385
90814SOL    HW274282   3.247   5.730  13.305
90815SOL     OW74283   8.993   4.954  13.292
90815SOL    HW174284   8.922   5.015  13.274
90815SOL    HW274285   9.045   4.997  13.360
90816SOL     OW74286   8.397  12.551  14.598
90816SOL    HW174287   8.336  12.616  14.563
90816SOL    HW274288   8.439  12.594  14.673
90817SOL     OW74289   8.521   9.136   6.352
90817SOL    HW174290   8.597   9.136   6.293
90817SOL    HW274291   8.474   9.056   6.331
90818SOL     OW74292  11.610  11.595   1.457
90818SOL    HW174293  11.571  11.667   1.507
90818SOL    HW274294  11.700  11.589   1.489
90819SOL     OW74295   1.079  12.347  13.085
90819SOL    HW174296   1.038  12.363  13.170
90819SOL    HW274297   1.006  12.327  13.026
90820SOL     OW74298   1.404  11.206   9.860
90820SOL    HW174299   1.471  11.210   9.929
90820SOL    HW274300   1.437  11.139   9.800
90821SOL     OW74301   5.592   9.026  13.349
90821SOL    HW174302   5.605   9.093  13.415
90821SOL    HW274303   5.628   9.063  13.269
90822SOL     OW74304   7.835   8.771  12.031
90822SOL    HW174305   7.915   8.821  12.049
90822SOL    HW274306   7.866   8.687  11.999
90823SOL     OW74307   9.295   0.204  11.312
90823SOL    HW174308   9.346   0.247  11.243
90823SOL    HW274309   9.320   0.249  11.393
90824SOL     OW74310   2.626   1.195  11.522
90824SOL    HW174311   2.710   1.228  11.489
90824SOL    HW274312   2.625   1.103  11.494
90825SOL     OW74313  13.498  13.928   6.867
90825SOL    HW174314  13.556  13.964   6.935
90825SOL    HW274315  13.463  14.005   6.822
90826SOL     OW74316   1.013  10.509   5.673
90826SOL    HW174317   1.041  10.540   5.759
90826SOL    HW274318   1.030  10.581   5.613
90827SOL     OW74319  12.820   3.242  13.935
90827SOL    HW174320  12.906   3.234  13.977
90827SOL    HW274321  12.791   3.152  13.921
90828SOL     OW74322  12.159  13.478   4.973
90828SOL    HW174323  12.113  13.463   5.056
90828SOL    HW274324  12.141  13.400   4.921
90829SOL     OW74325   1.827   9.987   8.206
90829SOL    HW174326   1.828   9.965   8.299
90829SOL    HW274327   1.919  10.005   8.185
90830SOL     OW74328  12.095  14.688  14.192
90830SOL    HW174329  12.161  14.707  14.126
90830SOL    HW274330  12.137  14.708  14.275
90831SOL     OW74331   8.836   0.054   3.996
90831SOL    HW174332   8.826  14.846   4.034
90831SOL    HW274333   8.787   0.112   4.056
90832SOL     OW74334   9.745   2.869  13.312
90832SOL    HW174335   9.671   2.864  13.373
90832SOL    HW274336   9.778   2.958  13.321
90833SOL     OW74337  12.683   4.923   6.668
90833SOL    HW174338  12.610   4.876   6.628
90833SOL    HW274339  12.659   5.016   6.660
90834SOL     OW74340   2.543  10.568  13.842
90834SOL    HW174341   2.483  10.543  13.912
90834SOL    HW274342   2.606  10.627  13.884
90835SOL     OW74343  13.216   0.953   6.055
90835SOL    HW174344  13.143   0.917   6.004
90835SOL    HW274345  13.210   0.908   6.140
90836SOL     OW74346   9.612   0.360  14.074
90836SOL    HW174347   9.561   0.427  14.028
90836SOL    HW274348   9.688   0.407  14.108
90837SOL     OW74349   6.438  12.779   4.401
90837SOL    HW174350   6.468  12.868   4.385
90837SOL    HW274351   6.356  12.772   4.352
90838SOL     OW74352   1.374  13.313   6.216
90838SOL    HW174353   1.389  13.219   6.206
90838SOL    HW274354   1.314  13.335   6.145
90839SOL     OW74355   4.387   5.418  11.845
90839SOL    HW174356   4.308   5.449  11.800
90839SOL    HW274357   4.411   5.489  11.904
90840SOL     OW74358   3.588   0.941  11.743
90840SOL    HW174359   3.533   0.972  11.816
90840SOL    HW274360   3.527   0.925  11.672
90841SOL     OW74361   2.427   6.695   6.969
90841SOL    HW174362   2.521   6.693   6.953
90841SOL    HW274363   2.390   6.736   6.891
90842SOL     OW74364   1.444  13.050   5.897
90842SOL    HW174365   1.432  13.081   5.807
90842SOL    HW274366   1.446  12.954   5.889
90843SOL     OW74367   7.322   9.536   5.509
90843SOL    HW174368   7.286   9.621   5.535
90843SOL    HW274369   7.280   9.473   5.566
90844SOL     OW74370   5.909   7.232  13.481
90844SOL    HW174371   5.929   7.164  13.416
90844SOL    HW274372   5.859   7.298  13.432
90845SOL     OW74373   2.464   6.320  10.641
90845SOL    HW174374   2.496   6.401  10.602
90845SOL    HW274375   2.447   6.262  10.567
90846SOL     OW74376   9.212  12.789   6.920
90846SOL    HW174377   9.118  12.770   6.921
90846SOL    HW274378   9.254  12.703   6.911
90847SOL     OW74379   8.655   4.901  14.112
90847SOL    HW174380   8.664   4.833  14.178
90847SOL    HW274381   8.689   4.980  14.154
90848SOL     OW74382   6.907   2.540   2.674
90848SOL    HW174383   6.989   2.546   2.625
90848SOL    HW274384   6.882   2.448   2.668
90849SOL     OW74385   8.285  13.157   1.575
90849SOL    HW174386   8.247  13.197   1.653
90849SOL    HW274387   8.358  13.104   1.608
90850SOL     OW74388   1.139  11.972   4.257
90850SOL    HW174389   1.107  12.050   4.301
90850SOL    HW274390   1.113  11.984   4.165
90851SOL     OW74391  11.552  10.510   7.938
90851SOL    HW174392  11.560  10.602   7.910
90851SOL    HW274393  11.500  10.469   7.869
90852SOL     OW74394   3.105   3.851   0.617
90852SOL    HW174395   3.016   3.839   0.585
90852SOL    HW274396   3.142   3.919   0.561
90853SOL     OW74397   0.534   5.827  11.155
90853SOL    HW174398   0.572   5.860  11.236
90853SOL    HW274399   0.444   5.859  11.156
90854SOL     OW74400   8.031  12.979   8.542
90854SOL    HW174401   8.056  13.026   8.622
90854SOL    HW274402   8.114  12.959   8.499
90855SOL     OW74403   4.795   6.089  11.569
90855SOL    HW174404   4.764   6.127  11.487
90855SOL    HW274405   4.871   6.037  11.544
90856SOL     OW74406   1.826   6.513   7.456
90856SOL    HW174407   1.894   6.520   7.389
90856SOL    HW274408   1.803   6.604   7.477
90857SOL     OW74409   3.798   4.014  14.276
90857SOL    HW174410   3.763   4.100  14.253
90857SOL    HW274411   3.743   3.952  14.229
90858SOL     OW74412   3.604  11.135  14.624
90858SOL    HW174413   3.663  11.066  14.654
90858SOL    HW274414   3.639  11.215  14.662
90859SOL     OW74415   3.191   0.072  12.468
90859SOL    HW174416   3.139   0.061  12.547
90859SOL    HW274417   3.235   0.156  12.479
90860SOL     OW74418   9.747   1.434   7.558
90860SOL    HW174419   9.666   1.406   7.599
90860SOL    HW274420   9.779   1.357   7.512
90861SOL     OW74421   9.289   3.309   9.689
90861SOL    HW174422   9.335   3.291   9.771
90861SOL    HW274423   9.256   3.399   9.700
90862SOL     OW74424   7.003   2.596   7.429
90862SOL    HW174425   7.097   2.587   7.448
90862SOL    HW274426   6.998   2.593   7.333
90863SOL     OW74427  13.137   8.172   6.825
90863SOL    HW174428  13.118   8.090   6.779
90863SOL    HW274429  13.066   8.230   6.799
90864SOL     OW74430   7.105  12.216  14.172
90864SOL    HW174431   7.141  12.300  14.200
90864SOL    HW274432   7.154  12.151  14.221
90865SOL     OW74433   0.158   4.034   2.218
90865SOL    HW174434   0.076   4.075   2.191
90865SOL    HW274435   0.202   4.101   2.270
90866SOL     OW74436   4.067   2.996   8.656
90866SOL    HW174437   4.045   2.927   8.594
90866SOL    HW274438   4.003   3.065   8.640
90867SOL     OW74439  10.566   2.277   4.321
90867SOL    HW174440  10.614   2.347   4.276
90867SOL    HW274441  10.554   2.311   4.410
90868SOL     OW74442   5.206   6.652   2.719
90868SOL    HW174443   5.185   6.626   2.629
90868SOL    HW274444   5.296   6.684   2.714
90869SOL     OW74445   0.244  12.193  14.130
90869SOL    HW174446   0.246  12.151  14.216
90869SOL    HW274447   0.262  12.121  14.069
90870SOL     OW74448   1.056   6.276  14.405
90870SOL    HW174449   0.962   6.265  14.417
90870SOL    HW274450   1.070   6.259  14.312
90871SOL     OW74451  11.625   3.181   3.525
90871SOL    HW174452  11.652   3.264   3.563
90871SOL    HW274453  11.703   3.148   3.480
90872SOL     OW74454   0.780   9.713   5.607
90872SOL    HW174455   0.830   9.644   5.564
90872SOL    HW274456   0.727   9.752   5.538
90873SOL     OW74457   2.959  12.069  14.520
90873SOL    HW174458   3.043  12.101  14.554
90873SOL    HW274459   2.960  12.093  14.427
90874SOL     OW74460   3.653   6.605   8.175
90874SOL    HW174461   3.587   6.555   8.127
90874SOL    HW274462   3.704   6.649   8.107
90875SOL     OW74463   3.789   4.300   9.895
90875SOL    HW174464   3.705   4.329   9.929
90875SOL    HW274465   3.846   4.376   9.906
90876SOL     OW74466   1.146   3.350   8.579
90876SOL    HW174467   1.169   3.322   8.668
90876SOL    HW274468   1.091   3.428   8.591
90877SOL     OW74469   0.986  11.765   6.637
90877SOL    HW174470   0.898  11.727   6.637
90877SOL    HW274471   1.045  11.691   6.640
90878SOL     OW74472  10.936   4.751  13.809
90878SOL    HW174473  10.867   4.706  13.761
90878SOL    HW274474  10.971   4.815  13.747
90879SOL     OW74475  12.908  10.415  11.632
90879SOL    HW174476  12.905  10.394  11.538
90879SOL    HW274477  12.937  10.334  11.674
90880SOL     OW74478   2.165  11.612   2.362
90880SOL    HW174479   2.190  11.704   2.366
90880SOL    HW274480   2.192  11.583   2.275
90881SOL     OW74481   3.523   9.203   3.601
90881SOL    HW174482   3.487   9.275   3.654
90881SOL    HW274483   3.446   9.160   3.564
90882SOL     OW74484   5.046   0.844   4.059
90882SOL    HW174485   5.053   0.928   4.103
90882SOL    HW274486   5.106   0.849   3.985
90883SOL     OW74487   9.681   4.868  10.418
90883SOL    HW174488   9.713   4.904  10.335
90883SOL    HW274489   9.691   4.773  10.409
90884SOL     OW74490  12.086   3.601  11.707
90884SOL    HW174491  11.996   3.634  11.709
90884SOL    HW274492  12.077   3.507  11.717
90885SOL     OW74493  14.211  14.378   7.102
90885SOL    HW174494  14.175  14.458   7.064
90885SOL    HW274495  14.299  14.372   7.064
90886SOL     OW74496  14.869   5.263   1.261
90886SOL    HW174497   0.065   5.320   1.249
90886SOL    HW274498  14.819   5.304   1.331
90887SOL     OW74499   4.456  10.871   4.585
90887SOL    HW174500   4.425  10.946   4.634
90887SOL    HW274501   4.378  10.819   4.568
90888SOL     OW74502   9.791   9.868  10.688
90888SOL    HW174503   9.837   9.936  10.737
90888SOL    HW274504   9.773   9.908  10.603
90889SOL     OW74505   3.375  14.395  11.223
90889SOL    HW174506   3.355  14.310  11.262
90889SOL    HW274507   3.306  14.410  11.158
90890SOL     OW74508  10.139   5.877   3.062
90890SOL    HW174509  10.192   5.949   3.097
90890SOL    HW274510  10.082   5.853   3.135
90891SOL     OW74511   8.684   3.817   7.958
90891SOL    HW174512   8.649   3.822   7.869
90891SOL    HW274513   8.732   3.735   7.960
90892SOL     OW74514   9.771  12.405   7.818
90892SOL    HW174515   9.802  12.413   7.727
90892SOL    HW274516   9.701  12.470   7.825
90893SOL     OW74517   5.808   0.337  10.471
90893SOL    HW174518   5.733   0.285  10.443
90893SOL    HW274519   5.884   0.282  10.455
90894SOL     OW74520   4.778   3.945   7.887
90894SOL    HW174521   4.827   4.016   7.847
90894SOL    HW274522   4.692   3.983   7.906
90895SOL     OW74523  13.701  12.471   9.831
90895SOL    HW174524  13.709  12.379   9.807
90895SOL    HW274525  13.792  12.502   9.835
90896SOL     OW74526   2.015   2.420   4.074
90896SOL    HW174527   2.024   2.507   4.037
90896SOL    HW274528   1.958   2.432   4.150
90897SOL     OW74529   5.105  10.904   7.106
90897SOL    HW174530   5.156  10.985   7.096
90897SOL    HW274531   5.112  10.883   7.200
90898SOL     OW74532   4.734   6.444   9.085
90898SOL    HW174533   4.684   6.385   9.028
90898SOL    HW274534   4.734   6.400   9.170
90899SOL     OW74535   3.526   6.879   7.259
90899SOL    HW174536   3.578   6.822   7.316
90899SOL    HW274537   3.582   6.894   7.183
90900SOL     OW74538   3.278   8.509  12.702
90900SOL    HW174539   3.207   8.482  12.761
90900SOL    HW274540   3.283   8.604  12.712
90901SOL     OW74541  13.120   0.417   6.642
90901SOL    HW174542  13.157   0.504   6.661
90901SOL    HW274543  13.126   0.370   6.725
90902SOL     OW74544   2.074   1.865   2.720
90902SOL    HW174545   2.118   1.805   2.780
90902SOL    HW274546   2.143   1.895   2.660
90903SOL     OW74547  12.719  11.367   2.482
90903SOL    HW174548  12.713  11.314   2.403
90903SOL    HW274549  12.645  11.428   2.477
90904SOL     OW74550   4.013   0.173  12.799
90904SOL    HW174551   4.094   0.200  12.757
90904SOL    HW274552   4.038   0.153  12.889
90905SOL     OW74553   1.121   7.605   6.959
90905SOL    HW174554   1.206   7.634   6.926
90905SOL    HW274555   1.106   7.657   7.038
90906SOL     OW74556  14.694   9.454   6.089
90906SOL    HW174557  14.635   9.477   6.161
90906SOL    HW274558  14.730   9.370   6.113
90907SOL     OW74559  10.465   5.563   9.265
90907SOL    HW174560  10.500   5.595   9.349
90907SOL    HW274561  10.370   5.566   9.276
90908SOL     OW74562  14.508   1.602  11.285
90908SOL    HW174563  14.576   1.668  11.300
90908SOL    HW274564  14.516   1.542  11.359
90909SOL     OW74565   8.500   4.764  13.632
90909SOL    HW174566   8.479   4.820  13.557
90909SOL    HW274567   8.587   4.730  13.613
90910SOL     OW74568   9.739   0.460   8.116
90910SOL    HW174569   9.763   0.504   8.034
90910SOL    HW274570   9.751   0.367   8.098
90911SOL     OW74571   1.881   4.092  11.327
90911SOL    HW174572   1.922   4.157  11.270
90911SOL    HW274573   1.800   4.067  11.282
90912SOL     OW74574  10.171   3.595   7.010
90912SOL    HW174575  10.211   3.543   7.080
90912SOL    HW274576  10.243   3.644   6.972
90913SOL     OW74577   2.825  10.487   0.546
90913SOL    HW174578   2.793  10.577   0.537
90913SOL    HW274579   2.877  10.489   0.627
90914SOL     OW74580  11.850   4.351   8.530
90914SOL    HW174581  11.813   4.267   8.505
90914SOL    HW274582  11.934   4.329   8.571
90915SOL     OW74583  13.269   2.069   7.637
90915SOL    HW174584  13.270   2.139   7.572
90915SOL    HW274585  13.180   2.071   7.673
90916SOL     OW74586  10.278   3.032   1.397
90916SOL    HW174587  10.221   3.016   1.472
90916SOL    HW274588  10.258   3.122   1.371
90917SOL     OW74589  11.370  11.229   5.089
90917SOL    HW174590  11.386  11.201   5.179
90917SOL    HW274591  11.456  11.223   5.046
90918SOL     OW74592   5.922   5.031  11.541
90918SOL    HW174593   5.934   5.074  11.456
90918SOL    HW274594   5.888   5.099  11.599
90919SOL     OW74595  13.229  11.187  11.449
90919SOL    HW174596  13.198  11.266  11.493
90919SOL    HW274597  13.182  11.116  11.491
90920SOL     OW74598   4.251   3.847  11.438
90920SOL    HW174599   4.265   3.780  11.371
90920SOL    HW274600   4.316   3.915  11.419
90921SOL     OW74601  12.104  11.395   1.393
90921SOL    HW174602  12.178  11.399   1.333
90921SOL    HW274603  12.143  11.393   1.480
90922SOL     OW74604  10.966   2.434  13.167
90922SOL    HW174605  10.887   2.408  13.120
90922SOL    HW274606  10.950   2.525  13.192
90923SOL     OW74607   2.168   7.339   4.441
90923SOL    HW174608   2.238   7.404   4.447
90923SOL    HW274609   2.192   7.271   4.505
90924SOL     OW74610   3.720   6.019  12.430
90924SOL    HW174611   3.730   6.023  12.526
90924SOL    HW274612   3.631   6.050  12.414
90925SOL     OW74613   8.875  12.985   0.252
90925SOL    HW174614   8.893  13.079   0.244
90925SOL    HW274615   8.779  12.979   0.250
90926SOL     OW74616   9.978  11.900   8.312
90926SOL    HW174617   9.933  11.935   8.389
90926SOL    HW274618   9.975  11.805   8.323
90927SOL     OW74619   2.995  12.877   0.164
90927SOL    HW174620   2.976  12.788   0.137
90927SOL    HW274621   2.968  12.880   0.256
90928SOL     OW74622   7.209   2.150   3.927
90928SOL    HW174623   7.137   2.175   3.986
90928SOL    HW274624   7.268   2.099   3.982
90929SOL     OW74625  14.440   7.616   8.060
90929SOL    HW174626  14.451   7.580   7.972
90929SOL    HW274627  14.515   7.674   8.072
90930SOL     OW74628  14.570   8.170   6.391
90930SOL    HW174629  14.645   8.179   6.449
90930SOL    HW274630  14.572   8.079   6.362
90931SOL     OW74631   9.021  11.193   5.273
90931SOL    HW174632   8.948  11.131   5.280
90931SOL    HW274633   9.095  11.139   5.244
90932SOL     OW74634   5.144  10.122   3.928
90932SOL    HW174635   5.101  10.207   3.925
90932SOL    HW274636   5.135  10.093   4.018
90933SOL     OW74637  12.788  13.343  13.570
90933SOL    HW174638  12.707  13.383  13.538
90933SOL    HW274639  12.779  13.250  13.548
90934SOL     OW74640   2.248   2.457   9.300
90934SOL    HW174641   2.224   2.406   9.222
90934SOL    HW274642   2.307   2.399   9.349
90935SOL     OW74643  11.998   2.800  11.755
90935SOL    HW174644  11.941   2.756  11.691
90935SOL    HW274645  11.990   2.893  11.734
90936SOL     OW74646  14.192   1.732  13.658
90936SOL    HW174647  14.279   1.754  13.627
90936SOL    HW274648  14.164   1.659  13.603
90937SOL     OW74649   3.933   9.307   7.127
90937SOL    HW174650   3.877   9.267   7.060
90937SOL    HW274651   3.925   9.401   7.112
90938SOL     OW74652   0.794   8.185   5.022
90938SOL    HW174653   0.742   8.193   5.102
90938SOL    HW274654   0.731   8.157   4.956
90939SOL     OW74655   9.944   4.937  12.636
90939SOL    HW174656   9.918   4.898  12.553
90939SOL    HW274657   9.960   4.862  12.694
90940SOL     OW74658   0.422   2.646   4.219
90940SOL    HW174659   0.496   2.691   4.180
90940SOL    HW274660   0.427   2.666   4.313
90941SOL     OW74661   1.061  12.687  12.911
90941SOL    HW174662   1.064  12.649  12.823
90941SOL    HW274663   1.055  12.781  12.897
90942SOL     OW74664   7.536  14.577  13.567
90942SOL    HW174665   7.479  14.648  13.596
90942SOL    HW274666   7.477  14.513  13.528
90943SOL     OW74667   5.372   1.091   5.234
90943SOL    HW174668   5.416   1.036   5.298
90943SOL    HW274669   5.442   1.120   5.175
90944SOL     OW74670   6.777  11.529  14.004
90944SOL    HW174671   6.845  11.551  13.940
90944SOL    HW274672   6.746  11.443  13.976
90945SOL     OW74673   4.100  13.857   3.260
90945SOL    HW174674   4.134  13.872   3.348
90945SOL    HW274675   4.097  13.762   3.251
90946SOL     OW74676   1.334   3.364   0.867
90946SOL    HW174677   1.303   3.274   0.883
90946SOL    HW274678   1.255   3.412   0.843
90947SOL     OW74679  12.693  10.538   4.186
90947SOL    HW174680  12.743  10.541   4.105
90947SOL    HW274681  12.682  10.445   4.204
90948SOL     OW74682   0.511   4.400   0.278
90948SOL    HW174683   0.594   4.445   0.296
90948SOL    HW274684   0.443   4.460   0.310
90949SOL     OW74685   4.736   4.429   9.290
90949SOL    HW174686   4.707   4.413   9.201
90949SOL    HW274687   4.758   4.342   9.324
90950SOL     OW74688   5.279   6.316   4.158
90950SOL    HW174689   5.373   6.298   4.155
90950SOL    HW274690   5.264   6.375   4.084
90951SOL     OW74691  13.534  10.739   8.476
90951SOL    HW174692  13.444  10.741   8.443
90951SOL    HW274693  13.588  10.742   8.396
90952SOL     OW74694  11.640   1.126  13.753
90952SOL    HW174695  11.580   1.188  13.713
90952SOL    HW274696  11.687   1.177  13.819
90953SOL     OW74697  10.855   1.789  12.992
90953SOL    HW174698  10.846   1.694  12.997
90953SOL    HW274699  10.771   1.823  13.024
90954SOL     OW74700   9.556  10.875  11.139
90954SOL    HW174701   9.571  10.835  11.224
90954SOL    HW274702   9.578  10.967  11.151
90955SOL     OW74703  11.548   6.798  13.600
90955SOL    HW174704  11.573   6.780  13.691
90955SOL    HW274705  11.630   6.794  13.551
90956SOL     OW74706   0.360   0.765   3.963
90956SOL    HW174707   0.360   0.674   3.994
90956SOL    HW274708   0.402   0.813   4.034
90957SOL     OW74709   5.510   7.672   3.971
90957SOL    HW174710   5.473   7.760   3.963
90957SOL    HW274711   5.560   7.673   4.053
90958SOL     OW74712  12.813   1.816  10.726
90958SOL    HW174713  12.725   1.843  10.752
90958SOL    HW274714  12.799   1.759  10.650
90959SOL     OW74715  13.078   0.090   5.367
90959SOL    HW174716  13.001   0.053   5.411
90959SOL    HW274717  13.142   0.019   5.366
90960SOL     OW74718   1.479   1.944  10.484
90960SOL    HW174719   1.428   1.878  10.532
90960SOL    HW274720   1.533   1.893  10.424
90961SOL     OW74721   5.930   7.790   4.087
90961SOL    HW174722   5.924   7.864   4.027
90961SOL    HW274723   5.840   7.779   4.120
90962SOL     OW74724   9.969   5.124   1.834
90962SOL    HW174725  10.002   5.204   1.874
90962SOL    HW274726   9.991   5.133   1.741
90963SOL     OW74727   8.090   9.458   9.227
90963SOL    HW174728   8.064   9.404   9.153
90963SOL    HW274729   8.180   9.484   9.207
90964SOL     OW74730  12.659   8.020   1.328
90964SOL    HW174731  12.607   8.044   1.251
90964SOL    HW274732  12.741   7.986   1.292
90965SOL     OW74733   1.950   0.672  13.063
90965SOL    HW174734   2.020   0.726  13.028
90965SOL    HW274735   1.882   0.735  13.089
90966SOL     OW74736   4.113   9.314  13.629
90966SOL    HW174737   4.142   9.404  13.642
90966SOL    HW274738   4.185   9.261  13.664
90967SOL     OW74739   1.039   1.547   9.259
90967SOL    HW174740   0.950   1.550   9.225
90967SOL    HW274741   1.036   1.597   9.341
90968SOL     OW74742   3.158  13.399   1.696
90968SOL    HW174743   3.219  13.445   1.639
90968SOL    HW274744   3.089  13.463   1.715
90969SOL     OW74745   7.946  11.580  12.521
90969SOL    HW174746   7.888  11.656  12.514
90969SOL    HW274747   7.960  11.552  12.431
90970SOL     OW74748   1.776  12.106   1.569
90970SOL    HW174749   1.838  12.049   1.524
90970SOL    HW274750   1.818  12.192   1.567
90971SOL     OW74751   0.624  11.956   3.459
90971SOL    HW174752   0.598  12.044   3.488
90971SOL    HW274753   0.627  11.904   3.540
90972SOL     OW74754  13.933   6.281   3.638
90972SOL    HW174755  13.986   6.326   3.572
90972SOL    HW274756  13.942   6.336   3.716
90973SOL     OW74757   0.374  12.479   1.384
90973SOL    HW174758   0.418  12.437   1.309
90973SOL    HW274759   0.433  12.463   1.458
90974SOL     OW74760   4.497   6.208   3.996
90974SOL    HW174761   4.525   6.291   4.033
90974SOL    HW274762   4.527   6.211   3.905
90975SOL     OW74763   8.320   9.177   0.232
90975SOL    HW174764   8.284   9.094   0.263
90975SOL    HW274765   8.412   9.159   0.213
90976SOL     OW74766   9.087   4.574   1.321
90976SOL    HW174767   8.996   4.551   1.304
90976SOL    HW274768   9.089   4.669   1.319
90977SOL     OW74769  12.552  10.810   7.815
90977SOL    HW174770  12.644  10.799   7.839
90977SOL    HW274771  12.549  10.785   7.723
90978SOL     OW74772   5.794   2.530   1.667
90978SOL    HW174773   5.793   2.494   1.578
90978SOL    HW274774   5.741   2.609   1.662
90979SOL     OW74775   6.010  10.287   3.987
90979SOL    HW174776   6.081  10.287   3.923
90979SOL    HW274777   6.055  10.290   4.072
90980SOL     OW74778   5.439   7.610  12.037
90980SOL    HW174779   5.462   7.687  11.986
90980SOL    HW274780   5.435   7.539  11.973
90981SOL     OW74781   8.964  13.831   8.990
90981SOL    HW174782   8.875  13.796   8.988
90981SOL    HW274783   9.006  13.795   8.912
90982SOL     OW74784   3.785  13.706   4.309
90982SOL    HW174785   3.820  13.769   4.372
90982SOL    HW274786   3.847  13.633   4.311
90983SOL     OW74787   6.974   1.677   9.916
90983SOL    HW174788   7.025   1.643   9.842
90983SOL    HW274789   7.005   1.627   9.991
90984SOL     OW74790   3.132   2.848   2.877
90984SOL    HW174791   3.221   2.863   2.909
90984SOL    HW274792   3.126   2.904   2.800
90985SOL     OW74793  12.196   9.761  10.651
90985SOL    HW174794  12.102   9.761  10.672
90985SOL    HW274795  12.201   9.808  10.568
90986SOL     OW74796  12.884  14.728   2.008
90986SOL    HW174797  12.895  14.648   1.956
90986SOL    HW274798  12.894  14.800   1.946
90987SOL     OW74799   1.489   7.839   9.027
90987SOL    HW174800   1.457   7.929   9.023
90987SOL    HW274801   1.495   7.811   8.936
90988SOL     OW74802   3.047  11.115   5.871
90988SOL    HW174803   3.125  11.165   5.848
90988SOL    HW274804   2.999  11.171   5.931
90989SOL     OW74805   5.830   6.636   8.832
90989SOL    HW174806   5.830   6.685   8.749
90989SOL    HW274807   5.923   6.623   8.852
90990SOL     OW74808  14.297   9.879   3.004
90990SOL    HW174809  14.365   9.887   3.070
90990SOL    HW274810  14.330   9.931   2.930
90991SOL     OW74811  10.344  14.048   9.580
90991SOL    HW174812  10.436  14.071   9.592
90991SOL    HW274813  10.306  14.057   9.668
90992SOL     OW74814   0.587  12.118   2.243
90992SOL    HW174815   0.550  12.074   2.320
90992SOL    HW274816   0.551  12.206   2.246
90993SOL     OW74817   8.066   6.094  10.854
90993SOL    HW174818   8.032   6.060  10.771
90993SOL    HW274819   8.030   6.036  10.921
90994SOL     OW74820   1.513   6.211   8.557
90994SOL    HW174821   1.525   6.116   8.555
90994SOL    HW274822   1.434   6.226   8.506
90995SOL     OW74823   0.098  14.264   2.449
90995SOL    HW174824   0.029  14.250   2.386
90995SOL    HW274825   0.064  14.332   2.508
90996SOL     OW74826   0.293  11.047  10.464
90996SOL    HW174827   0.364  11.096  10.506
90996SOL    HW274828   0.336  10.970  10.427
90997SOL     OW74829   9.141   5.341   8.137
90997SOL    HW174830   9.218   5.396   8.156
90997SOL    HW274831   9.176   5.252   8.133
90998SOL     OW74832  14.863   4.064   8.715
90998SOL    HW174833   0.043   3.991   8.732
90998SOL    HW274834  14.815   4.075   8.797
90999SOL     OW74835   0.853   1.161   5.484
90999SOL    HW174836   0.846   1.160   5.389
90999SOL    HW274837   0.765   1.182   5.514
91000SOL     OW74838  11.859  11.265  10.652
91000SOL    HW174839  11.769  11.244  10.675
91000SOL    HW274840  11.854  11.351  10.610
91001SOL     OW74841  10.457  11.767   4.212
91001SOL    HW174842  10.368  11.741   4.185
91001SOL    HW274843  10.485  11.828   4.144
91002SOL     OW74844  13.572  13.652   6.928
91002SOL    HW174845  13.547  13.744   6.926
91002SOL    HW274846  13.601  13.633   6.839
91003SOL     OW74847  13.181  12.574   1.740
91003SOL    HW174848  13.090  12.556   1.720
91003SOL    HW274849  13.223  12.487   1.741
91004SOL     OW74850   1.783  10.305   4.184
91004SOL    HW174851   1.828  10.233   4.141
91004SOL    HW274852   1.720  10.263   4.243
91005SOL     OW74853   6.229  14.227   3.754
91005SOL    HW174854   6.176  14.302   3.781
91005SOL    HW274855   6.214  14.161   3.821
91006SOL     OW74856  12.918   8.342   6.226
91006SOL    HW174857  13.002   8.304   6.251
91006SOL    HW274858  12.907   8.417   6.284
91007SOL     OW74859  13.668  12.965   5.337
91007SOL    HW174860  13.634  13.025   5.271
91007SOL    HW274861  13.614  12.886   5.329
91008SOL     OW74862  12.304   5.714   4.120
91008SOL    HW174863  12.272   5.782   4.180
91008SOL    HW274864  12.280   5.745   4.033
91009SOL     OW74865   0.568   7.279  12.475
91009SOL    HW174866   0.541   7.369  12.456
91009SOL    HW274867   0.516   7.254  12.551
91010SOL     OW74868  13.089   9.898   3.551
91010SOL    HW174869  13.126   9.845   3.621
91010SOL    HW274870  13.155   9.897   3.482
91011SOL     OW74871   8.059   1.467   7.225
91011SOL    HW174872   7.977   1.451   7.178
91011SOL    HW274873   8.060   1.561   7.242
91012SOL     OW74874   4.635   6.792   0.486
91012SOL    HW174875   4.717   6.749   0.510
91012SOL    HW274876   4.641   6.803   0.391
91013SOL     OW74877   3.604  11.461  14.634
91013SOL    HW174878   3.680  11.435  14.581
91013SOL    HW274879   3.535  11.478  14.570
91014SOL     OW74880   0.273  13.411  13.588
91014SOL    HW174881   0.294  13.457  13.507
91014SOL    HW274882   0.357  13.396  13.630
91015SOL     OW74883   7.668   1.368   9.335
91015SOL    HW174884   7.710   1.290   9.371
91015SOL    HW274885   7.615   1.336   9.262
91016SOL     OW74886   4.289  12.872  11.757
91016SOL    HW174887   4.245  12.927  11.692
91016SOL    HW274888   4.341  12.811  11.706
91017SOL     OW74889   0.261   5.735   6.276
91017SOL    HW174890   0.199   5.698   6.339
91017SOL    HW274891   0.344   5.740   6.324
91018SOL     OW74892   7.644   7.909   5.222
91018SOL    HW174893   7.549   7.908   5.207
91018SOL    HW274894   7.653   7.905   5.317
91019SOL     OW74895   7.421   1.347   5.641
91019SOL    HW174896   7.419   1.348   5.545
91019SOL    HW274897   7.514   1.341   5.663
91020SOL     OW74898   1.835   7.926   9.478
91020SOL    HW174899   1.796   7.838   9.478
91020SOL    HW274900   1.817   7.960   9.566
91021SOL     OW74901  13.994   6.519  11.241
91021SOL    HW174902  13.936   6.445  11.261
91021SOL    HW274903  13.960   6.553  11.158
91022SOL     OW74904   1.561  10.566  10.859
91022SOL    HW174905   1.571  10.630  10.788
91022SOL    HW274906   1.466  10.559  10.871
91023SOL     OW74907   8.503   3.422  10.095
91023SOL    HW174908   8.424   3.420  10.148
91023SOL    HW274909   8.575   3.429  10.158
91024SOL     OW74910   0.229   4.495   0.349
91024SOL    HW174911   0.248   4.421   0.291
91024SOL    HW274912   0.244   4.461   0.437
91025SOL     OW74913  13.578   2.934   8.925
91025SOL    HW174914  13.658   2.959   8.880
91025SOL    HW274915  13.563   3.003   8.989
91026SOL     OW74916   7.083   4.744   8.336
91026SOL    HW174917   7.111   4.797   8.261
91026SOL    HW274918   7.135   4.777   8.409
91027SOL     OW74919  12.103   8.178   9.930
91027SOL    HW174920  12.184   8.126   9.933
91027SOL    HW274921  12.041   8.128   9.984
91028SOL     OW74922   9.893   5.142   4.460
91028SOL    HW174923   9.964   5.110   4.404
91028SOL    HW274924   9.857   5.217   4.413
91029SOL     OW74925   4.465   7.711  14.517
91029SOL    HW174926   4.392   7.720  14.578
91029SOL    HW274927   4.465   7.618  14.493
91030SOL     OW74928   1.169   6.345   2.975
91030SOL    HW174929   1.108   6.405   2.933
91030SOL    HW274930   1.145   6.259   2.942
91031SOL     OW74931  13.690  11.883  12.752
91031SOL    HW174932  13.752  11.811  12.738
91031SOL    HW274933  13.727  11.956  12.704
91032SOL     OW74934  12.570  14.037   9.144
91032SOL    HW174935  12.539  14.103   9.082
91032SOL    HW274936  12.658  14.066   9.168
91033SOL     OW74937   7.719  10.956   7.855
91033SOL    HW174938   7.668  10.935   7.933
91033SOL    HW274939   7.679  10.904   7.786
91034SOL     OW74940   4.687   3.378   3.389
91034SOL    HW174941   4.775   3.370   3.428
91034SOL    HW274942   4.628   3.383   3.464
91035SOL     OW74943   0.738  14.579   5.046
91035SOL    HW174944   0.740  14.483   5.048
91035SOL    HW274945   0.829  14.605   5.034
91036SOL     OW74946  13.529   3.132   2.371
91036SOL    HW174947  13.609   3.130   2.425
91036SOL    HW274948  13.520   3.223   2.345
91037SOL     OW74949   8.670   4.253   1.510
91037SOL    HW174950   8.660   4.217   1.598
91037SOL    HW274951   8.677   4.347   1.524
91038SOL     OW74952   7.776   5.726   1.698
91038SOL    HW174953   7.793   5.758   1.786
91038SOL    HW274954   7.863   5.707   1.662
91039SOL     OW74955  12.371  14.878   0.719
91039SOL    HW174956  12.327   0.057   0.780
91039SOL    HW274957  12.320  14.797   0.722
91040SOL     OW74958   5.011  14.132   8.248
91040SOL    HW174959   4.999  14.226   8.245
91040SOL    HW274960   5.054  14.115   8.332
91041SOL     OW74961  12.319   0.298   0.084
91041SOL    HW174962  12.258   0.255   0.024
91041SOL    HW274963  12.354   0.226   0.138
91042SOL     OW74964  13.906   3.322  14.812
91042SOL    HW174965  13.815   3.300  14.791
91042SOL    HW274966  13.942   3.242  14.849
91043SOL     OW74967   8.308   1.084  14.455
91043SOL    HW174968   8.254   1.147  14.503
91043SOL    HW274969   8.350   1.031  14.522
91044SOL     OW74970  12.196  14.393  13.507
91044SOL    HW174971  12.246  14.466  13.469
91044SOL    HW274972  12.263  14.332  13.538
91045SOL     OW74973  12.718   9.745   2.990
91045SOL    HW174974  12.658   9.685   2.946
91045SOL    HW274975  12.689   9.745   3.081
91046SOL     OW74976  10.538   1.620   1.584
91046SOL    HW174977  10.552   1.660   1.498
91046SOL    HW274978  10.516   1.693   1.642
91047SOL     OW74979   1.070   3.840   2.339
91047SOL    HW174980   1.146   3.783   2.334
91047SOL    HW274981   1.028   3.818   2.422
91048SOL     OW74982   7.422   8.899   1.298
91048SOL    HW174983   7.327   8.886   1.294
91048SOL    HW274984   7.440   8.909   1.392
91049SOL     OW74985   9.230  12.149   5.026
91049SOL    HW174986   9.174  12.204   4.970
91049SOL    HW274987   9.229  12.063   4.985
91050SOL     OW74988   9.164  12.934  13.314
91050SOL    HW174989   9.146  13.013  13.364
91050SOL    HW274990   9.259  12.935  13.300
91051SOL     OW74991   8.210   7.358   7.258
91051SOL    HW174992   8.158   7.282   7.284
91051SOL    HW274993   8.300   7.334   7.279
91052SOL     OW74994  11.560  13.628   2.984
91052SOL    HW174995  11.530  13.539   3.002
91052SOL    HW274996  11.490  13.684   3.017
91053SOL     OW74997   2.955  13.286  10.897
91053SOL    HW174998   3.035  13.234  10.906
91053SOL    HW274999   2.884  13.224  10.917
91054SOL     OW75000   2.785   0.250   4.017
91054SOL    HW175001   2.820   0.316   3.956
91054SOL    HW275002   2.847   0.177   4.010
91055SOL     OW75003   3.312  14.145  14.565
91055SOL    HW175004   3.383  14.152  14.501
91055SOL    HW275005   3.250  14.213  14.538
91056SOL     OW75006   5.494  14.200  10.917
91056SOL    HW175007   5.538  14.134  10.970
91056SOL    HW275008   5.448  14.150  10.850
91057SOL     OW75009  13.394   2.998   8.178
91057SOL    HW175010  13.426   2.908   8.191
91057SOL    HW275011  13.378   3.003   8.083
91058SOL     OW75012   7.444  12.787  11.154
91058SOL    HW175013   7.380  12.731  11.110
91058SOL    HW275014   7.466  12.739  11.234
91059SOL     OW75015   1.253   0.540  12.691
91059SOL    HW175016   1.341   0.554  12.657
91059SOL    HW275017   1.258   0.565  12.783
91060SOL     OW75018   2.631   8.627   8.240
91060SOL    HW175019   2.645   8.710   8.285
91060SOL    HW275020   2.710   8.614   8.188
91061SOL     OW75021   5.531  13.299   8.093
91061SOL    HW175022   5.498  13.386   8.119
91061SOL    HW275023   5.586  13.271   8.166
91062SOL     OW75024   4.403   0.257  13.135
91062SOL    HW175025   4.344   0.223  13.202
91062SOL    HW275026   4.388   0.200  13.059
91063SOL     OW75027   1.792  12.727  13.627
91063SOL    HW175028   1.749  12.650  13.587
91063SOL    HW275029   1.787  12.794  13.559
91064SOL     OW75030   0.317  13.168   7.486
91064SOL    HW175031   0.356  13.254   7.501
91064SOL    HW275032   0.303  13.164   7.391
91065SOL     OW75033   6.295   7.367  14.763
91065SOL    HW175034   6.375   7.419  14.761
91065SOL    HW275035   6.229   7.426  14.800
91066SOL     OW75036   3.612   2.239   8.839
91066SOL    HW175037   3.696   2.285   8.833
91066SOL    HW275038   3.585   2.251   8.930
91067SOL     OW75039   5.861   6.158   1.606
91067SOL    HW175040   5.851   6.068   1.637
91067SOL    HW275041   5.938   6.155   1.549
91068SOL     OW75042   7.586   5.078  13.899
91068SOL    HW175043   7.679   5.086  13.878
91068SOL    HW275044   7.543   5.141  13.841
91069SOL     OW75045  11.453   2.514  12.307
91069SOL    HW175046  11.490   2.574  12.241
91069SOL    HW275047  11.448   2.567  12.386
91070SOL     OW75048   2.969   8.388  13.367
91070SOL    HW175049   2.953   8.392  13.461
91070SOL    HW275050   2.943   8.299  13.342
91071SOL     OW75051  13.259  14.690  10.657
91071SOL    HW175052  13.191  14.689  10.589
91071SOL    HW275053  13.332  14.641  10.620
91072SOL     OW75054   3.230   1.955   9.041
91072SOL    HW175055   3.160   2.002   9.087
91072SOL    HW275056   3.306   2.013   9.048
91073SOL     OW75057   6.529  11.085   1.210
91073SOL    HW175058   6.489  11.004   1.180
91073SOL    HW275059   6.619  11.082   1.177
91074SOL     OW75060   9.715   8.316  12.135
91074SOL    HW175061   9.625   8.312  12.103
91074SOL    HW275062   9.720   8.400  12.180
91075SOL     OW75063  13.589  12.867   1.891
91075SOL    HW175064  13.497  12.847   1.874
91075SOL    HW275065  13.588  12.920   1.971
91076SOL     OW75066  10.786   3.534   2.656
91076SOL    HW175067  10.844   3.589   2.604
91076SOL    HW275068  10.730   3.597   2.702
91077SOL     OW75069   8.425   1.946  13.374
91077SOL    HW175070   8.344   1.896  13.383
91077SOL    HW275071   8.478   1.894  13.313
91078SOL     OW75072   8.950   4.009   1.778
91078SOL    HW175073   8.978   4.086   1.729
91078SOL    HW275074   8.870   3.981   1.734
91079SOL     OW75075  10.457   0.035  11.748
91079SOL    HW175076  10.537  14.875  11.784
91079SOL    HW275077  10.404   0.056  11.824
91080SOL     OW75078  11.035  12.088   4.966
91080SOL    HW175079  11.097  12.078   4.894
91080SOL    HW275080  10.964  12.027   4.946
91081SOL     OW75081  10.281  14.511   3.161
91081SOL    HW175082  10.301  14.475   3.248
91081SOL    HW275083  10.186  14.521   3.161
91082SOL     OW75084   7.277  10.766   8.587
91082SOL    HW175085   7.325  10.696   8.542
91082SOL    HW275086   7.192  10.727   8.608
91083SOL     OW75087  11.998  10.981   0.341
91083SOL    HW175088  11.971  11.047   0.405
91083SOL    HW275089  11.935  10.910   0.353
91084SOL     OW75090  12.695   0.288  12.875
91084SOL    HW175091  12.718   0.329  12.958
91084SOL    HW275092  12.612   0.244  12.892
91085SOL     OW75093   7.685   8.198   8.133
91085SOL    HW175094   7.719   8.278   8.095
91085SOL    HW275095   7.591   8.214   8.145
91086SOL     OW75096   3.418   3.798   2.726
91086SOL    HW175097   3.483   3.756   2.669
91086SOL    HW275098   3.362   3.727   2.756
91087SOL     OW75099  10.178   2.179  10.535
91087SOL    HW175100  10.132   2.183  10.618
91087SOL    HW275101  10.220   2.265  10.527
91088SOL     OW75102   9.366   5.589  12.359
91088SOL    HW175103   9.296   5.638  12.403
91088SOL    HW275104   9.445   5.639  12.378
91089SOL     OW75105   1.789   4.910   6.660
91089SOL    HW175106   1.744   4.904   6.744
91089SOL    HW275107   1.838   4.992   6.666
91090SOL     OW75108   5.462   1.053  13.225
91090SOL    HW175109   5.535   1.114  13.216
91090SOL    HW275110   5.416   1.058  13.141
91091SOL     OW75111  12.286  13.891   1.642
91091SOL    HW175112  12.267  13.819   1.702
91091SOL    HW275113  12.326  13.850   1.566
91092SOL     OW75114   3.613   2.924  14.109
91092SOL    HW175115   3.519   2.907  14.102
91092SOL    HW275116   3.642   2.870  14.183
91093SOL     OW75117   4.502   2.026  13.650
91093SOL    HW175118   4.439   1.956  13.668
91093SOL    HW275119   4.448   2.100  13.624
91094SOL     OW75120   7.214   5.440  12.472
91094SOL    HW175121   7.282   5.386  12.433
91094SOL    HW275122   7.252   5.471  12.554
91095SOL     OW75123   9.640  13.186   7.926
91095SOL    HW175124   9.729  13.200   7.895
91095SOL    HW275125   9.614  13.102   7.890
91096SOL     OW75126  11.245   4.909   4.097
91096SOL    HW175127  11.295   4.847   4.044
91096SOL    HW275128  11.174   4.857   4.135
91097SOL     OW75129  13.913  13.032   3.965
91097SOL    HW175130  13.937  13.043   3.873
91097SOL    HW275131  13.996  13.022   4.011
91098SOL     OW75132  11.356  10.130   4.447
91098SOL    HW175133  11.428  10.186   4.419
91098SOL    HW275134  11.293  10.190   4.487
91099SOL     OW75135   9.391  13.301  10.846
91099SOL    HW175136   9.389  13.225  10.904
91099SOL    HW275137   9.423  13.266  10.763
91100SOL     OW75138  13.146   5.960  14.390
91100SOL    HW175139  13.074   5.971  14.452
91100SOL    HW275140  13.165   5.866  14.392
91101SOL     OW75141   1.181  11.321   3.092
91101SOL    HW175142   1.149  11.404   3.058
91101SOL    HW275143   1.166  11.258   3.021
91102SOL     OW75144   9.219  12.004   2.656
91102SOL    HW175145   9.142  11.992   2.600
91102SOL    HW275146   9.273  12.068   2.609
91103SOL     OW75147  11.925  11.665  10.077
91103SOL    HW175148  11.938  11.754  10.111
91103SOL    HW275149  11.933  11.609  10.154
91104SOL     OW75150  14.819  12.071   7.811
91104SOL    HW175151  14.728  12.051   7.834
91104SOL    HW275152  14.863  11.986   7.811
91105SOL     OW75153  10.487   3.780   2.251
91105SOL    HW175154  10.420   3.759   2.185
91105SOL    HW275155  10.564   3.806   2.200
91106SOL     OW75156   8.747  14.188  10.003
91106SOL    HW175157   8.692  14.112  10.021
91106SOL    HW275158   8.692  14.264  10.027
91107SOL     OW75159   9.064   9.002   8.938
91107SOL    HW175160   9.026   8.942   8.874
91107SOL    HW275161   9.113   9.066   8.886
91108SOL     OW75162   0.703   1.501   7.408
91108SOL    HW175163   0.798   1.512   7.403
91108SOL    HW275164   0.678   1.545   7.488
91109SOL     OW75165   9.906   8.518   8.395
91109SOL    HW175166   9.981   8.481   8.442
91109SOL    HW275167   9.830   8.498   8.450
91110SOL     OW75168   3.753   5.796   8.974
91110SOL    HW175169   3.766   5.808   8.880
91110SOL    HW275170   3.769   5.703   8.989
91111SOL     OW75171  14.475   9.464   9.535
91111SOL    HW175172  14.555   9.412   9.536
91111SOL    HW275173  14.473   9.507   9.621
91112SOL     OW75174  11.041   9.646  10.956
91112SOL    HW175175  11.079   9.678  10.875
91112SOL    HW275176  11.047   9.719  11.017
91113SOL     OW75177   7.326   4.644   9.143
91113SOL    HW175178   7.390   4.584   9.182
91113SOL    HW275179   7.242   4.616   9.179
91114SOL     OW75180   9.724   5.099   0.090
91114SOL    HW175181   9.761   5.023   0.045
91114SOL    HW275182   9.800   5.141   0.132
91115SOL     OW75183   5.521   2.450  11.821
91115SOL    HW175184   5.441   2.405  11.848
91115SOL    HW275185   5.591   2.403  11.867
91116SOL     OW75186   3.764  13.168   4.617
91116SOL    HW175187   3.687  13.220   4.642
91116SOL    HW275188   3.733  13.078   4.618
91117SOL     OW75189  12.424  13.434   3.677
91117SOL    HW175190  12.489  13.490   3.720
91117SOL    HW275191  12.406  13.477   3.593
91118SOL     OW75192   6.027   8.148   5.563
91118SOL    HW175193   6.075   8.206   5.503
91118SOL    HW275194   5.954   8.202   5.594
91119SOL     OW75195  12.586   9.944   5.738
91119SOL    HW175196  12.624   9.912   5.820
91119SOL    HW275197  12.510   9.889   5.723
91120SOL     OW75198  13.989   8.780   9.530
91120SOL    HW175199  14.044   8.834   9.474
91120SOL    HW275200  14.008   8.690   9.505
91121SOL     OW75201   9.452  11.658   0.095
91121SOL    HW175202   9.502  11.585   0.131
91121SOL    HW275203   9.388  11.617   0.037
91122SOL     OW75204   8.451   0.263  14.607
91122SOL    HW175205   8.367   0.220  14.594
91122SOL    HW275206   8.450   0.338  14.548
91123SOL     OW75207  13.971   2.259   2.842
91123SOL    HW175208  13.897   2.227   2.791
91123SOL    HW275209  14.012   2.326   2.787
91124SOL     OW75210   4.654  11.886   8.577
91124SOL    HW175211   4.667  11.792   8.590
91124SOL    HW275212   4.567  11.903   8.613
91125SOL     OW75213   5.699   5.002   3.566
91125SOL    HW175214   5.689   5.075   3.628
91125SOL    HW275215   5.686   5.042   3.480
91126SOL     OW75216   9.278   0.174   6.789
91126SOL    HW175217   9.198   0.205   6.831
91126SOL    HW275218   9.264   0.080   6.778
91127SOL     OW75219   0.310   1.785  14.307
91127SOL    HW175220   0.362   1.819  14.234
91127SOL    HW275221   0.356   1.705  14.334
91128SOL     OW75222   6.952   5.035   9.634
91128SOL    HW175223   6.999   5.043   9.717
91128SOL    HW275224   7.010   4.983   9.578
91129SOL     OW75225  10.753   0.716   1.671
91129SOL    HW175226  10.803   0.779   1.619
91129SOL    HW275227  10.669   0.709   1.627
91130SOL     OW75228   5.471   5.135  10.803
91130SOL    HW175229   5.383   5.145  10.837
91130SOL    HW275230   5.483   5.210  10.744
91131SOL     OW75231   4.532  14.753  13.793
91131SOL    HW175232   4.577  14.832  13.763
91131SOL    HW275233   4.601  14.699  13.831
91132SOL     OW75234   2.583  10.741   9.710
91132SOL    HW175235   2.506  10.748   9.653
91132SOL    HW275236   2.644  10.687   9.660
91133SOL     OW75237   7.571   5.457  14.204
91133SOL    HW175238   7.617   5.384  14.246
91133SOL    HW275239   7.641   5.518  14.180
91134SOL     OW75240   2.209   3.035   5.091
91134SOL    HW175241   2.175   3.105   5.035
91134SOL    HW275242   2.185   2.954   5.044
91135SOL     OW75243   8.899   0.549   6.119
91135SOL    HW175244   8.990   0.528   6.100
91135SOL    HW275245   8.884   0.515   6.207
91136SOL     OW75246   4.829   7.707  11.889
91136SOL    HW175247   4.744   7.731  11.927
91136SOL    HW275248   4.893   7.731  11.955
91137SOL     OW75249   3.394   0.727  14.044
91137SOL    HW175250   3.377   0.661  13.977
91137SOL    HW275251   3.349   0.806  14.013
91138SOL     OW75252   8.826   3.644   2.592
91138SOL    HW175253   8.759   3.575   2.590
91138SOL    HW275254   8.805   3.700   2.518
91139SOL     OW75255  12.375   9.334  12.546
91139SOL    HW175256  12.322   9.282  12.484
91139SOL    HW275257  12.317   9.349  12.620
91140SOL     OW75258   7.761   0.377  10.190
91140SOL    HW175259   7.729   0.376  10.100
91140SOL    HW275260   7.714   0.305  10.233
91141SOL     OW75261  10.234   5.052  10.924
91141SOL    HW175262  10.284   5.132  10.939
91141SOL    HW275263  10.301   4.985  10.909
91142SOL     OW75264   5.920   6.176  11.815
91142SOL    HW175265   6.015   6.170  11.809
91142SOL    HW275266   5.891   6.197  11.726
91143SOL     OW75267   8.674  14.068   1.362
91143SOL    HW175268   8.616  14.039   1.433
91143SOL    HW275269   8.756  14.020   1.377
91144SOL     OW75270  11.545   3.424   9.365
91144SOL    HW175271  11.586   3.355   9.312
91144SOL    HW275272  11.518   3.490   9.301
91145SOL     OW75273  10.982   4.501   8.855
91145SOL    HW175274  11.050   4.509   8.789
91145SOL    HW275275  10.992   4.580   8.910
91146SOL     OW75276   9.061   0.801   9.040
91146SOL    HW175277   9.102   0.853   8.972
91146SOL    HW275278   8.970   0.792   9.012
91147SOL     OW75279   6.030   7.365   3.452
91147SOL    HW175280   6.001   7.417   3.527
91147SOL    HW275281   6.117   7.335   3.476
91148SOL     OW75282   0.247   5.977   5.708
91148SOL    HW175283   0.172   5.992   5.650
91148SOL    HW275284   0.227   6.030   5.786
91149SOL     OW75285   9.436   0.193  11.646
91149SOL    HW175286   9.351   0.148  11.649
91149SOL    HW275287   9.425   0.258  11.576
91150SOL     OW75288  11.568  12.907  13.878
91150SOL    HW175289  11.629  12.927  13.948
91150SOL    HW275290  11.536  12.992  13.849
91151SOL     OW75291   7.735   0.906  13.150
91151SOL    HW175292   7.656   0.872  13.193
91151SOL    HW275293   7.786   0.827  13.128
91152SOL     OW75294  13.524  10.347   7.419
91152SOL    HW175295  13.577  10.268   7.434
91152SOL    HW275296  13.450  10.338   7.479
91153SOL     OW75297   6.411   5.412   9.651
91153SOL    HW175298   6.362   5.368   9.580
91153SOL    HW275299   6.503   5.407   9.623
91154SOL     OW75300   7.443  11.491  11.834
91154SOL    HW175301   7.472  11.526  11.918
91154SOL    HW275302   7.523  11.455  11.795
91155SOL     OW75303   1.119   6.834  12.007
91155SOL    HW175304   1.165   6.903  11.959
91155SOL    HW275305   1.178   6.759  12.002
91156SOL     OW75306  13.656   5.513  13.446
91156SOL    HW175307  13.628   5.585  13.502
91156SOL    HW275308  13.579   5.457  13.439
91157SOL     OW75309   3.975  12.219   9.778
91157SOL    HW175310   3.950  12.140   9.826
91157SOL    HW275311   3.900  12.238   9.722
91158SOL     OW75312   4.372  13.628   8.345
91158SOL    HW175313   4.409  13.601   8.261
91158SOL    HW275314   4.278  13.629   8.330
91159SOL     OW75315   7.620  10.962   6.266
91159SOL    HW175316   7.594  10.873   6.290
91159SOL    HW275317   7.558  11.019   6.312
91160SOL     OW75318   7.545   2.692   3.713
91160SOL    HW175319   7.554   2.603   3.747
91160SOL    HW275320   7.631   2.732   3.724
91161SOL     OW75321   6.953   4.254   9.859
91161SOL    HW175322   7.040   4.291   9.843
91161SOL    HW275323   6.903   4.326   9.897
91162SOL     OW75324   1.581   7.346   3.852
91162SOL    HW175325   1.541   7.390   3.927
91162SOL    HW275326   1.615   7.264   3.887
91163SOL     OW75327   4.269  12.331   3.634
91163SOL    HW175328   4.255  12.409   3.580
91163SOL    HW275329   4.257  12.258   3.574
91164SOL     OW75330  14.841   5.289  14.771
91164SOL    HW175331  14.870   5.324  14.687
91164SOL    HW275332   0.034   5.309  14.831
91165SOL     OW75333   1.093   2.173   8.905
91165SOL    HW175334   1.094   2.266   8.926
91165SOL    HW275335   1.147   2.165   8.826
91166SOL     OW75336   5.625   7.775  13.849
91166SOL    HW175337   5.700   7.729  13.812
91166SOL    HW275338   5.554   7.710  13.845
91167SOL     OW75339   1.196   8.072   8.788
91167SOL    HW175340   1.201   7.976   8.786
91167SOL    HW275341   1.208   8.095   8.880
91168SOL     OW75342   0.868  11.697  11.343
91168SOL    HW175343   0.796  11.754  11.316
91168SOL    HW275344   0.947  11.749  11.329
91169SOL     OW75345  11.645   4.180   8.403
91169SOL    HW175346  11.552   4.196   8.394
91169SOL    HW275347  11.655   4.139   8.489
91170SOL     OW75348   1.886   4.702   7.794
91170SOL    HW175349   1.856   4.782   7.751
91170SOL    HW275350   1.817   4.638   7.776
91171SOL     OW75351   7.731   1.614   6.329
91171SOL    HW175352   7.638   1.593   6.327
91171SOL    HW275353   7.735   1.708   6.310
91172SOL     OW75354  10.636   0.796   8.871
91172SOL    HW175355  10.631   0.746   8.953
91172SOL    HW275356  10.697   0.867   8.890
91173SOL     OW75357   2.562   1.026   0.647
91173SOL    HW175358   2.606   0.952   0.690
91173SOL    HW275359   2.620   1.100   0.663
91174SOL     OW75360   9.720  12.724   1.847
91174SOL    HW175361   9.742  12.765   1.763
91174SOL    HW275362   9.672  12.792   1.894
91175SOL     OW75363   7.080   4.627   6.618
91175SOL    HW175364   7.026   4.549   6.631
91175SOL    HW275365   7.103   4.655   6.707
91176SOL     OW75366   4.653   1.368   2.886
91176SOL    HW175367   4.621   1.280   2.904
91176SOL    HW275368   4.577   1.424   2.898
91177SOL     OW75369   2.253   4.964   9.721
91177SOL    HW175370   2.322   4.997   9.664
91177SOL    HW275371   2.176   5.017   9.699
91178SOL     OW75372   7.696  13.790   2.614
91178SOL    HW175373   7.656  13.714   2.572
91178SOL    HW275374   7.641  13.806   2.691
91179SOL     OW75375  14.877   8.980   8.055
91179SOL    HW175376   0.084   8.943   8.076
91179SOL    HW275377  14.834   8.989   8.140
91180SOL     OW75378   0.476   0.986   1.435
91180SOL    HW175379   0.454   0.989   1.528
91180SOL    HW275380   0.489   1.078   1.410
91181SOL     OW75381   6.176  11.758   7.492
91181SOL    HW175382   6.215  11.843   7.474
91181SOL    HW275383   6.233  11.695   7.448
91182SOL     OW75384   1.433   1.238  10.318
91182SOL    HW175385   1.502   1.303  10.334
91182SOL    HW275386   1.353   1.289  10.309
91183SOL     OW75387   1.447   9.334   8.755
91183SOL    HW175388   1.388   9.289   8.695
91183SOL    HW275389   1.494   9.264   8.800
91184SOL     OW75390   9.611   3.338  11.169
91184SOL    HW175391   9.681   3.313  11.109
91184SOL    HW275392   9.535   3.288  11.139
91185SOL     OW75393   4.882   2.150  14.259
91185SOL    HW175394   4.950   2.103  14.211
91185SOL    HW275395   4.892   2.120  14.350
91186SOL     OW75396   3.200   3.160   1.535
91186SOL    HW175397   3.111   3.157   1.570
91186SOL    HW275398   3.239   3.078   1.562
91187SOL     OW75399   0.090   2.003   5.175
91187SOL    HW175400   0.115   1.939   5.108
91187SOL    HW275401   0.172   2.047   5.198
91188SOL     OW75402   1.312  12.844  13.060
91188SOL    HW175403   1.358  12.761  13.047
91188SOL    HW275404   1.330  12.894  12.980
91189SOL     OW75405   9.884  14.172  12.634
91189SOL    HW175406   9.922  14.097  12.588
91189SOL    HW275407   9.802  14.139  12.671
91190SOL     OW75408   5.434   5.246   3.166
91190SOL    HW175409   5.391   5.190   3.102
91190SOL    HW275410   5.480   5.312   3.113
91191SOL     OW75411   0.290   6.694   2.815
91191SOL    HW175412   0.358   6.740   2.864
91191SOL    HW275413   0.333   6.614   2.784
91192SOL     OW75414   9.008   7.690  11.953
91192SOL    HW175415   9.008   7.638  11.872
91192SOL    HW275416   8.920   7.679  11.989
91193SOL     OW75417  13.328   3.253   7.200
91193SOL    HW175418  13.335   3.173   7.149
91193SOL    HW275419  13.247   3.242   7.250
91194SOL     OW75420  11.073   9.984  11.454
91194SOL    HW175421  11.111   9.910  11.501
91194SOL    HW275422  11.029   9.944  11.379
91195SOL     OW75423   4.384   0.395   7.477
91195SOL    HW175424   4.396   0.300   7.473
91195SOL    HW275425   4.292   0.407   7.504
91196SOL     OW75426   0.829  10.018  14.264
91196SOL    HW175427   0.872  10.103  14.264
91196SOL    HW275428   0.849   9.982  14.177
91197SOL     OW75429   1.031  12.688   4.283
91197SOL    HW175430   0.962  12.735   4.329
91197SOL    HW275431   1.052  12.742   4.208
91198SOL     OW75432   4.002   5.022   1.229
91198SOL    HW175433   4.000   5.113   1.200
91198SOL    HW275434   3.952   4.974   1.162
91199SOL     OW75435   0.478   6.825   5.455
91199SOL    HW175436   0.460   6.733   5.436
91199SOL    HW275437   0.424   6.873   5.392
91200SOL     OW75438  14.694   4.854   8.478
91200SOL    HW175439  14.697   4.939   8.521
91200SOL    HW275440  14.602   4.840   8.459
91201SOL     OW75441  12.935   8.898  10.496
91201SOL    HW175442  12.955   8.911  10.404
91201SOL    HW275443  12.914   8.805  10.503
91202SOL     OW75444   3.186   4.089   6.206
91202SOL    HW175445   3.164   4.011   6.156
91202SOL    HW275446   3.176   4.161   6.144
91203SOL     OW75447  12.820   3.890   9.047
91203SOL    HW175448  12.897   3.936   9.079
91203SOL    HW275449  12.752   3.910   9.111
91204SOL     OW75450   3.595  11.129   2.553
91204SOL    HW175451   3.622  11.209   2.508
91204SOL    HW275452   3.524  11.094   2.499
91205SOL     OW75453  14.606   8.419   1.870
91205SOL    HW175454  14.647   8.332   1.879
91205SOL    HW275455  14.542   8.408   1.800
91206SOL     OW75456   5.584   6.589  13.383
91206SOL    HW175457   5.513   6.624  13.328
91206SOL    HW275458   5.571   6.631  13.468
91207SOL     OW75459   7.071  12.667   6.625
91207SOL    HW175460   7.006  12.601   6.648
91207SOL    HW275461   7.020  12.741   6.593
91208SOL     OW75462  11.539   8.782   2.271
91208SOL    HW175463  11.449   8.790   2.302
91208SOL    HW275464  11.540   8.701   2.220
91209SOL     OW75465   8.640   4.720   2.759
91209SOL    HW175466   8.715   4.727   2.699
91209SOL    HW275467   8.649   4.632   2.797
91210SOL     OW75468  13.174   2.118   9.000
91210SOL    HW175469  13.152   2.200   8.957
91210SOL    HW275470  13.170   2.139   9.094
91211SOL     OW75471  11.321   1.003   1.424
91211SOL    HW175472  11.244   1.047   1.458
91211SOL    HW275473  11.387   1.072   1.416
91212SOL     OW75474   3.683   3.676   2.944
91212SOL    HW175475   3.755   3.675   3.008
91212SOL    HW275476   3.611   3.718   2.990
91213SOL     OW75477   6.128  13.513   5.477
91213SOL    HW175478   6.185  13.512   5.554
91213SOL    HW275479   6.136  13.602   5.443
91214SOL     OW75480   3.200   6.496   4.268
91214SOL    HW175481   3.171   6.587   4.259
91214SOL    HW275482   3.119   6.446   4.280
91215SOL     OW75483   8.836   2.868   4.967
91215SOL    HW175484   8.896   2.805   5.008
91215SOL    HW275485   8.749   2.837   4.992
91216SOL     OW75486   7.683   3.481   3.613
91216SOL    HW175487   7.760   3.536   3.629
91216SOL    HW275488   7.634   3.527   3.545
91217SOL     OW75489   4.737   4.489   8.029
91217SOL    HW175490   4.742   4.411   8.085
91217SOL    HW275491   4.776   4.559   8.083
91218SOL     OW75492   5.944   6.899   2.874
91218SOL    HW175493   5.922   6.944   2.955
91218SOL    HW275494   6.039   6.895   2.874
91219SOL     OW75495   8.107   2.204  10.753
91219SOL    HW175496   8.105   2.124  10.701
91219SOL    HW275497   8.181   2.254  10.718
91220SOL     OW75498   0.675   3.317   8.333
91220SOL    HW175499   0.684   3.359   8.419
91220SOL    HW275500   0.731   3.240   8.338
91221SOL     OW75501  13.223   0.890  10.427
91221SOL    HW175502  13.168   0.889  10.348
91221SOL    HW275503  13.239   0.983  10.443
91222SOL     OW75504   3.668   7.841  12.324
91222SOL    HW175505   3.705   7.822  12.410
91222SOL    HW275506   3.727   7.798  12.262
91223SOL     OW75507  10.540   5.856   2.144
91223SOL    HW175508  10.458   5.846   2.194
91223SOL    HW275509  10.601   5.898   2.205
91224SOL     OW75510   6.064   2.082   1.776
91224SOL    HW175511   5.985   2.100   1.725
91224SOL    HW275512   6.086   2.166   1.817
91225SOL     OW75513  13.583   9.177   6.016
91225SOL    HW175514  13.627   9.112   6.071
91225SOL    HW275515  13.522   9.126   5.963
91226SOL     OW75516  10.648  13.667   1.959
91226SOL    HW175517  10.679  13.596   2.015
91226SOL    HW275518  10.668  13.747   2.007
91227SOL     OW75519  11.410  12.423   2.880
91227SOL    HW175520  11.362  12.505   2.880
91227SOL    HW275521  11.473  12.431   2.951
91228SOL     OW75522   3.372   8.443   0.217
91228SOL    HW175523   3.367   8.505   0.290
91228SOL    HW275524   3.443   8.383   0.242
91229SOL     OW75525   6.163   2.349   6.904
91229SOL    HW175526   6.095   2.338   6.838
91229SOL    HW275527   6.155   2.440   6.933
91230SOL     OW75528  12.016  13.234  12.750
91230SOL    HW175529  12.088  13.198  12.698
91230SOL    HW275530  12.003  13.170  12.820
91231SOL     OW75531   8.723  12.264  12.327
91231SOL    HW175532   8.714  12.178  12.367
91231SOL    HW275533   8.818  12.278  12.323
91232SOL     OW75534   9.973  10.031   0.571
91232SOL    HW175535   9.958   9.967   0.501
91232SOL    HW275536  10.067  10.031   0.584
91233SOL     OW75537   3.113  14.856   4.835
91233SOL    HW175538   3.064  14.799   4.775
91233SOL    HW275539   3.204  14.844   4.809
91234SOL     OW75540   7.748  13.815  10.035
91234SOL    HW175541   7.702  13.823   9.952
91234SOL    HW275542   7.837  13.846  10.016
91235SOL     OW75543   9.421   2.984   1.600
91235SOL    HW175544   9.473   2.952   1.527
91235SOL    HW275545   9.331   2.957   1.580
91236SOL     OW75546   2.667   6.509  14.420
91236SOL    HW175547   2.631   6.534  14.505
91236SOL    HW275548   2.626   6.569  14.357
91237SOL     OW75549   1.928   6.978   6.922
91237SOL    HW175550   1.957   6.887   6.923
91237SOL    HW275551   1.881   6.989   7.005
91238SOL     OW75552  13.195   4.528   3.598
91238SOL    HW175553  13.174   4.598   3.536
91238SOL    HW275554  13.120   4.527   3.658
91239SOL     OW75555  14.770   2.373  10.917
91239SOL    HW175556  14.694   2.430  10.906
91239SOL    HW275557  14.826   2.393  10.842
91240SOL     OW75558  12.810  12.100  10.824
91240SOL    HW175559  12.840  12.016  10.791
91240SOL    HW275560  12.790  12.084  10.916
91241SOL     OW75561   0.192   8.869   1.726
91241SOL    HW175562   0.158   8.928   1.659
91241SOL    HW275563   0.143   8.788   1.713
91242SOL     OW75564   4.534   7.870   7.159
91242SOL    HW175565   4.449   7.878   7.201
91242SOL    HW275566   4.595   7.909   7.221
91243SOL     OW75567  14.515  13.683  11.442
91243SOL    HW175568  14.438  13.722  11.483
91243SOL    HW275569  14.567  13.650  11.516
91244SOL     OW75570   6.291   6.419  12.397
91244SOL    HW175571   6.271   6.479  12.469
91244SOL    HW275572   6.385   6.429  12.384
91245SOL     OW75573   5.027  10.852   0.345
91245SOL    HW175574   5.003  10.825   0.256
91245SOL    HW275575   4.944  10.872   0.387
91246SOL     OW75576   7.780   0.176  13.756
91246SOL    HW175577   7.703   0.214  13.713
91246SOL    HW275578   7.798   0.235  13.829
91247SOL     OW75579   8.229   2.809   9.521
91247SOL    HW175580   8.203   2.859   9.599
91247SOL    HW275581   8.155   2.817   9.462
91248SOL     OW75582   2.920   9.483   7.722
91248SOL    HW175583   2.888   9.524   7.641
91248SOL    HW275584   2.844   9.434   7.754
91249SOL     OW75585  14.558   2.134  11.860
91249SOL    HW175586  14.652   2.119  11.850
91249SOL    HW275587  14.517   2.064  11.809
91250SOL     OW75588   0.998  11.283   4.080
91250SOL    HW175589   0.985  11.202   4.030
91250SOL    HW275590   1.025  11.347   4.014
91251SOL     OW75591   6.964   3.196   4.302
91251SOL    HW175592   7.003   3.275   4.265
91251SOL    HW275593   6.883   3.227   4.344
91252SOL     OW75594   1.628   6.791   8.506
91252SOL    HW175595   1.703   6.738   8.481
91252SOL    HW275596   1.553   6.732   8.501
91253SOL     OW75597   3.706   7.312   9.793
91253SOL    HW175598   3.677   7.400   9.769
91253SOL    HW275599   3.729   7.318   9.886
91254SOL     OW75600   1.972   8.724   4.802
91254SOL    HW175601   2.042   8.684   4.853
91254SOL    HW275602   1.968   8.671   4.722
91255SOL     OW75603  12.791   0.640   2.889
91255SOL    HW175604  12.803   0.679   2.976
91255SOL    HW275605  12.702   0.604   2.892
91256SOL     OW75606  12.613   2.916  14.502
91256SOL    HW175607  12.658   2.995  14.534
91256SOL    HW275608  12.680   2.870  14.451
91257SOL     OW75609  10.738  12.947  10.825
91257SOL    HW175610  10.674  12.964  10.755
91257SOL    HW275611  10.808  12.899  10.782
91258SOL     OW75612   6.039   5.555   2.964
91258SOL    HW175613   6.035   5.617   2.892
91258SOL    HW275614   6.124   5.573   3.006
91259SOL     OW75615   2.371  14.218   7.152
91259SOL    HW175616   2.355  14.311   7.136
91259SOL    HW275617   2.289  14.175   7.125
91260SOL     OW75618   6.697   7.387   9.824
91260SOL    HW175619   6.756   7.446   9.869
91260SOL    HW275620   6.752   7.314   9.796
91261SOL     OW75621   9.993   2.407   1.001
91261SOL    HW175622   9.984   2.429   0.908
91261SOL    HW275623  10.087   2.417   1.019
91262SOL     OW75624   5.833   7.619  10.338
91262SOL    HW175625   5.817   7.636  10.245
91262SOL    HW275626   5.840   7.524  10.344
91263SOL     OW75627  13.373  12.291  11.879
91263SOL    HW175628  13.402  12.230  11.811
91263SOL    HW275629  13.283  12.267  11.898
91264SOL     OW75630  14.271  12.045   6.923
91264SOL    HW175631  14.206  11.988   6.963
91264SOL    HW275632  14.355  12.003   6.944
91265SOL     OW75633   7.247   5.469  14.720
91265SOL    HW175634   7.159   5.501  14.742
91265SOL    HW275635   7.238   5.373  14.721
91266SOL     OW75636   3.729   9.244   3.143
91266SOL    HW175637   3.732   9.255   3.238
91266SOL    HW275638   3.775   9.321   3.108
91267SOL     OW75639   4.460   3.216   8.923
91267SOL    HW175640   4.395   3.258   8.867
91267SOL    HW275641   4.439   3.123   8.919
91268SOL     OW75642   7.085   0.931  14.618
91268SOL    HW175643   7.119   0.857  14.669
91268SOL    HW275644   7.163   0.978  14.589
91269SOL     OW75645   8.834  11.205   8.418
91269SOL    HW175646   8.751  11.185   8.374
91269SOL    HW275647   8.875  11.119   8.430
91270SOL     OW75648   2.393   9.457   0.637
91270SOL    HW175649   2.333   9.519   0.595
91270SOL    HW275650   2.456   9.435   0.568
91271SOL     OW75651   5.650   7.995   0.968
91271SOL    HW175652   5.589   7.972   1.038
91271SOL    HW275653   5.603   8.060   0.916
91272SOL     OW75654  14.605  12.394   5.486
91272SOL    HW175655  14.540  12.333   5.452
91272SOL    HW275656  14.590  12.475   5.436
91273SOL     OW75657   1.275   9.869   8.062
91273SOL    HW175658   1.300   9.803   8.127
91273SOL    HW275659   1.283   9.824   7.978
91274SOL     OW75660   5.294   5.565  11.969
91274SOL    HW175661   5.238   5.583  11.893
91274SOL    HW275662   5.360   5.504  11.936
91275SOL     OW75663   3.926   8.339   1.000
91275SOL    HW175664   3.836   8.371   0.993
91275SOL    HW275665   3.937   8.317   1.093
91276SOL     OW75666   5.951   2.322   6.757
91276SOL    HW175667   5.876   2.363   6.800
91276SOL    HW275668   5.918   2.239   6.724
91277SOL     OW75669  14.871   8.106  10.215
91277SOL    HW175670  14.861   8.199  10.240
91277SOL    HW275671  14.799   8.062  10.260
91278SOL     OW75672  14.166  10.077   3.770
91278SOL    HW175673  14.196  10.023   3.844
91278SOL    HW275674  14.145  10.014   3.701
91279SOL     OW75675   7.670  12.946   0.187
91279SOL    HW175676   7.589  12.972   0.143
91279SOL    HW275677   7.716  12.891   0.124
91280SOL     OW75678   3.259  14.221   3.728
91280SOL    HW175679   3.206  14.284   3.680
91280SOL    HW275680   3.196  14.168   3.777
91281SOL     OW75681   9.587  12.979   5.217
91281SOL    HW175682   9.682  12.985   5.226
91281SOL    HW275683   9.554  12.993   5.305
91282SOL     OW75684  12.748   2.770  12.769
91282SOL    HW175685  12.683   2.703  12.793
91282SOL    HW275686  12.809   2.724  12.712
91283SOL     OW75687  11.668  13.612  11.943
91283SOL    HW175688  11.680  13.518  11.957
91283SOL    HW275689  11.700  13.628  11.854
91284SOL     OW75690   6.827   5.721   3.757
91284SOL    HW175691   6.807   5.815   3.750
91284SOL    HW275692   6.812   5.687   3.669
91285SOL     OW75693   4.821   6.441   1.924
91285SOL    HW175694   4.815   6.509   1.856
91285SOL    HW275695   4.877   6.480   1.991
91286SOL     OW75696  10.467   5.932   5.835
91286SOL    HW175697  10.457   5.938   5.740
91286SOL    HW275698  10.393   5.879   5.864
91287SOL     OW75699   5.726   8.568   5.129
91287SOL    HW175700   5.648   8.595   5.178
91287SOL    HW275701   5.796   8.566   5.194
91288SOL     OW75702  10.173  12.974  14.331
91288SOL    HW175703  10.161  12.953  14.239
91288SOL    HW275704  10.166  13.070  14.335
91289SOL     OW75705   8.053   7.693  14.208
91289SOL    HW175706   8.000   7.670  14.132
91289SOL    HW275707   8.143   7.675  14.180
91290SOL     OW75708  10.909  12.294   5.078
91290SOL    HW175709  10.964  12.217   5.061
91290SOL    HW275710  10.921  12.349   5.001
91291SOL     OW75711   5.296  11.058  13.640
91291SOL    HW175712   5.359  11.019  13.580
91291SOL    HW275713   5.240  10.985  13.667
91292SOL     OW75714   5.375   5.219   4.933
91292SOL    HW175715   5.343   5.296   4.980
91292SOL    HW275716   5.471   5.223   4.942
91293SOL     OW75717  12.702  12.768  11.343
91293SOL    HW175718  12.664  12.852  11.317
91293SOL    HW275719  12.694  12.767  11.439
91294SOL     OW75720  14.414   3.825   6.686
91294SOL    HW175721  14.485   3.889   6.685
91294SOL    HW275722  14.396   3.808   6.594
91295SOL     OW75723   0.128   6.630   8.032
91295SOL    HW175724   0.142   6.722   8.009
91295SOL    HW275725   0.182   6.582   7.969
91296SOL     OW75726   1.466   7.486  12.029
91296SOL    HW175727   1.508   7.532  11.956
91296SOL    HW275728   1.417   7.554  12.075
91297SOL     OW75729  10.811   1.076   5.029
91297SOL    HW175730  10.804   1.166   5.061
91297SOL    HW275731  10.881   1.037   5.081
91298SOL     OW75732   8.635   2.231   9.120
91298SOL    HW175733   8.669   2.309   9.164
91298SOL    HW275734   8.713   2.186   9.088
91299SOL     OW75735   4.786  10.265  10.060
91299SOL    HW175736   4.819  10.341  10.109
91299SOL    HW275737   4.861  10.205  10.056
91300SOL     OW75738  10.281  11.763  14.097
91300SOL    HW175739  10.206  11.790  14.045
91300SOL    HW275740  10.349  11.744  14.033
91301SOL     OW75741   7.537   9.253  13.960
91301SOL    HW175742   7.495   9.255  14.046
91301SOL    HW275743   7.586   9.335  13.956
91302SOL     OW75744   8.038   7.142   3.685
91302SOL    HW175745   8.050   7.057   3.729
91302SOL    HW275746   7.959   7.131   3.633
91303SOL     OW75747   2.141  10.222   4.745
91303SOL    HW175748   2.236  10.205   4.748
91303SOL    HW275749   2.128  10.270   4.663
91304SOL     OW75750  13.868   2.410  13.236
91304SOL    HW175751  13.792   2.354  13.220
91304SOL    HW275752  13.935   2.351  13.270
91305SOL     OW75753   1.340  13.417   4.165
91305SOL    HW175754   1.317  13.393   4.075
91305SOL    HW275755   1.435  13.407   4.168
91306SOL     OW75756   7.015   1.905   1.770
91306SOL    HW175757   6.972   1.871   1.692
91306SOL    HW275758   7.095   1.946   1.738
91307SOL     OW75759   8.683   9.571  11.589
91307SOL    HW175760   8.695   9.545  11.497
91307SOL    HW275761   8.599   9.616  11.590
91308SOL     OW75762   1.003   3.476   3.655
91308SOL    HW175763   0.985   3.392   3.699
91308SOL    HW275764   1.064   3.521   3.713
91309SOL     OW75765  13.659   6.097  12.211
91309SOL    HW175766  13.585   6.068  12.157
91309SOL    HW275767  13.721   6.024  12.208
91310SOL     OW75768  13.628   8.148   6.904
91310SOL    HW175769  13.534   8.149   6.890
91310SOL    HW275770  13.659   8.231   6.868
91311SOL     OW75771   5.901  14.178   2.683
91311SOL    HW175772   5.928  14.270   2.686
91311SOL    HW275773   5.806  14.181   2.696
91312SOL     OW75774  14.694   9.096   1.970
91312SOL    HW175775  14.782   9.063   1.954
91312SOL    HW275776  14.659   9.040   2.039
91313SOL     OW75777  14.293   1.640   9.269
91313SOL    HW175778  14.317   1.593   9.349
91313SOL    HW275779  14.338   1.593   9.199
91314SOL     OW75780   8.593   2.574  13.256
91314SOL    HW175781   8.660   2.573  13.325
91314SOL    HW275782   8.510   2.570  13.303
91315SOL     OW75783  12.520  10.304   4.653
91315SOL    HW175784  12.530  10.357   4.574
91315SOL    HW275785  12.427  10.311   4.676
91316SOL     OW75786  10.409  11.007  11.619
91316SOL    HW175787  10.367  10.921  11.616
91316SOL    HW275788  10.464  11.003  11.698
91317SOL     OW75789   1.717   4.790   2.873
91317SOL    HW175790   1.757   4.707   2.848
91317SOL    HW275791   1.697   4.779   2.966
91318SOL     OW75792   6.261   8.068   5.272
91318SOL    HW175793   6.342   8.114   5.249
91318SOL    HW275794   6.205   8.136   5.310
91319SOL     OW75795  10.808   2.420   1.880
91319SOL    HW175796  10.807   2.444   1.973
91319SOL    HW275797  10.828   2.326   1.880
91320SOL     OW75798  12.356   7.298  13.535
91320SOL    HW175799  12.272   7.262  13.565
91320SOL    HW275800  12.351   7.296  13.440
91321SOL     OW75801   1.857  11.290   8.658
91321SOL    HW175802   1.822  11.208   8.693
91321SOL    HW275803   1.780  11.346   8.646
91322SOL     OW75804   2.160  11.002   3.735
91322SOL    HW175805   2.079  11.046   3.707
91322SOL    HW275806   2.132  10.942   3.803
91323SOL     OW75807  13.539  13.310   7.123
91323SOL    HW175808  13.495  13.244   7.070
91323SOL    HW275809  13.538  13.275   7.212
91324SOL     OW75810   6.211   8.232   5.775
91324SOL    HW175811   6.125   8.255   5.739
91324SOL    HW275812   6.273   8.281   5.720
91325SOL     OW75813   0.374   8.311   1.415
91325SOL    HW175814   0.341   8.400   1.427
91325SOL    HW275815   0.313   8.256   1.464
91326SOL     OW75816   7.259  12.723   7.754
91326SOL    HW175817   7.202  12.653   7.724
91326SOL    HW275818   7.238  12.733   7.847
91327SOL     OW75819  13.363   4.812   9.898
91327SOL    HW175820  13.332   4.833   9.810
91327SOL    HW275821  13.394   4.896   9.932
91328SOL     OW75822   6.159   6.791  14.622
91328SOL    HW175823   6.152   6.802  14.527
91328SOL    HW275824   6.092   6.726  14.643
91329SOL     OW75825  10.938   4.583   3.782
91329SOL    HW175826  10.878   4.543   3.846
91329SOL    HW275827  10.936   4.676   3.803
91330SOL     OW75828   8.057   3.435   8.363
91330SOL    HW175829   7.962   3.449   8.365
91330SOL    HW275830   8.086   3.455   8.452
91331SOL     OW75831   7.001   5.549  10.137
91331SOL    HW175832   6.928   5.497  10.172
91331SOL    HW275833   7.031   5.499  10.061
91332SOL     OW75834  13.156  12.790   5.122
91332SOL    HW175835  13.190  12.872   5.086
91332SOL    HW275836  13.122  12.813   5.208
91333SOL     OW75837   4.934   2.405  10.406
91333SOL    HW175838   4.896   2.407  10.319
91333SOL    HW275839   4.986   2.485  10.412
91334SOL     OW75840  12.640   7.144   7.996
91334SOL    HW175841  12.560   7.136   7.946
91334SOL    HW275842  12.700   7.080   7.957
91335SOL     OW75843   0.597   3.193  12.365
91335SOL    HW175844   0.569   3.282  12.347
91335SOL    HW275845   0.516   3.143  12.373
91336SOL     OW75846   3.774  12.945   1.961
91336SOL    HW175847   3.859  12.926   1.921
91336SOL    HW275848   3.754  13.035   1.933
91337SOL     OW75849   2.463   5.022   0.437
91337SOL    HW175850   2.446   4.928   0.433
91337SOL    HW275851   2.548   5.033   0.395
91338SOL     OW75852   3.329   3.688   6.069
91338SOL    HW175853   3.352   3.606   6.026
91338SOL    HW275854   3.361   3.677   6.159
91339SOL     OW75855   8.934  14.694  10.625
91339SOL    HW175856   9.008  14.683  10.686
91339SOL    HW275857   8.942  14.619  10.566
91340SOL     OW75858   8.078   1.699   8.446
91340SOL    HW175859   8.153   1.671   8.498
91340SOL    HW275860   8.028   1.618   8.430
91341SOL     OW75861   1.245   6.277  10.389
91341SOL    HW175862   1.175   6.317  10.338
91341SOL    HW275863   1.202   6.211  10.443
91342SOL     OW75864   2.173   8.911   9.606
91342SOL    HW175865   2.262   8.903   9.640
91342SOL    HW275866   2.184   8.912   9.511
91343SOL     OW75867   2.541  14.850   6.570
91343SOL    HW175868   2.621  14.859   6.519
91343SOL    HW275869   2.480   0.034   6.533
91344SOL     OW75870   6.198  11.010   4.178
91344SOL    HW175871   6.250  10.967   4.246
91344SOL    HW275872   6.257  11.015   4.103
91345SOL     OW75873  10.500   3.399   1.768
91345SOL    HW175874  10.548   3.477   1.797
91345SOL    HW275875  10.566   3.345   1.724
91346SOL     OW75876  11.753  12.030   5.996
91346SOL    HW175877  11.819  12.076   6.048
91346SOL    HW275878  11.674  12.082   6.005
91347SOL     OW75879   2.213  10.082   3.447
91347SOL    HW175880   2.183  10.103   3.535
91347SOL    HW275881   2.304  10.112   3.445
91348SOL     OW75882   5.843  12.023  14.726
91348SOL    HW175883   5.933  12.047  14.705
91348SOL    HW275884   5.849  11.933  14.759
91349SOL     OW75885   4.314   0.098   0.475
91349SOL    HW175886   4.403   0.085   0.442
91349SOL    HW275887   4.260   0.041   0.420
91350SOL     OW75888  10.602   6.203  11.558
91350SOL    HW175889  10.558   6.134  11.509
91350SOL    HW275890  10.614   6.166  11.646
91351SOL     OW75891   0.904  12.354   1.908
91351SOL    HW175892   0.988  12.371   1.951
91351SOL    HW275893   0.843  12.341   1.980
91352SOL     OW75894  13.336  10.435  10.499
91352SOL    HW175895  13.368  10.473  10.417
91352SOL    HW275896  13.244  10.414  10.481
91353SOL     OW75897   8.026  10.353  14.049
91353SOL    HW175898   8.066  10.284  14.102
91353SOL    HW275899   7.952  10.310  14.007
91354SOL     OW75900   5.877   0.683   3.823
91354SOL    HW175901   5.831   0.599   3.826
91354SOL    HW275902   5.807   0.748   3.820
91355SOL     OW75903   1.888   0.088  12.438
91355SOL    HW175904   1.911   0.124  12.523
91355SOL    HW275905   1.821   0.147  12.403
91356SOL     OW75906  13.386   3.192   7.497
91356SOL    HW175907  13.387   3.214   7.404
91356SOL    HW275908  13.477   3.204   7.525
91357SOL     OW75909   5.322   0.248   5.391
91357SOL    HW175910   5.338   0.340   5.370
91357SOL    HW275911   5.385   0.200   5.337
91358SOL     OW75912   9.596  12.610  12.929
91358SOL    HW175913   9.529  12.637  12.992
91358SOL    HW275914   9.678  12.614  12.978
91359SOL     OW75915  10.216   8.633  10.602
91359SOL    HW175916  10.216   8.728  10.596
91359SOL    HW275917  10.287   8.612  10.662
91360SOL     OW75918   0.037  11.595   4.186
91360SOL    HW175919   0.076  11.679   4.161
91360SOL    HW275920   0.098  11.558   4.250
91361SOL     OW75921   5.863   4.680  10.236
91361SOL    HW175922   5.922   4.699  10.163
91361SOL    HW275923   5.910   4.617  10.290
91362SOL     OW75924   4.772  14.659  12.138
91362SOL    HW175925   4.839  14.727  12.135
91362SOL    HW275926   4.764  14.629  12.047
91363SOL     OW75927  14.878  10.222   2.153
91363SOL    HW175928   0.009  10.224   2.248
91363SOL    HW275929   0.054  10.149   2.125
91364SOL     OW75930   7.026  10.688  14.384
91364SOL    HW175931   7.024  10.660  14.292
91364SOL    HW275932   6.934  10.692  14.410
91365SOL     OW75933  13.387  10.478   5.699
91365SOL    HW175934  13.458  10.415   5.683
91365SOL    HW275935  13.415  10.526   5.776
91366SOL     OW75936   7.937  10.667   6.719
91366SOL    HW175937   7.972  10.676   6.808
91366SOL    HW275938   7.878  10.592   6.724
91367SOL     OW75939   4.529  11.916  12.685
91367SOL    HW175940   4.474  11.952  12.754
91367SOL    HW275941   4.502  11.824  12.679
91368SOL     OW75942  13.643   2.046   4.298
91368SOL    HW175943  13.642   2.001   4.214
91368SOL    HW275944  13.636   2.139   4.276
91369SOL     OW75945   4.870   0.476   7.814
91369SOL    HW175946   4.852   0.437   7.899
91369SOL    HW275947   4.798   0.446   7.758
91370SOL     OW75948   7.564  10.751   1.275
91370SOL    HW175949   7.526  10.677   1.228
91370SOL    HW275950   7.635  10.713   1.327
91371SOL     OW75951   5.427   0.050   0.627
91371SOL    HW175952   5.374  14.863   0.581
91371SOL    HW275953   5.365   0.121   0.645
91372SOL     OW75954  14.730   6.855   6.287
91372SOL    HW175955  14.802   6.819   6.236
91372SOL    HW275956  14.753   6.836   6.378
91373SOL     OW75957   6.665  12.864   6.526
91373SOL    HW175958   6.580  12.828   6.552
91373SOL    HW275959   6.651  12.896   6.437
91374SOL     OW75960  10.872   0.731   0.728
91374SOL    HW175961  10.817   0.804   0.756
91374SOL    HW275962  10.819   0.653   0.744
91375SOL     OW75963   3.077  10.985   7.704
91375SOL    HW175964   2.997  11.018   7.663
91375SOL    HW275965   3.049  10.909   7.755
91376SOL     OW75966   4.149  13.730   5.314
91376SOL    HW175967   4.165  13.811   5.363
91376SOL    HW275968   4.169  13.752   5.223
91377SOL     OW75969   9.251   5.519   9.953
91377SOL    HW175970   9.259   5.516  10.048
91377SOL    HW275971   9.340   5.506   9.921
91378SOL     OW75972   0.186   7.672   2.598
91378SOL    HW175973   0.117   7.628   2.549
91378SOL    HW275974   0.265   7.624   2.576
91379SOL     OW75975   8.069   5.796  11.271
91379SOL    HW175976   8.148   5.845  11.251
91379SOL    HW275977   8.016   5.801  11.192
91380SOL     OW75978   5.138   1.547  14.669
91380SOL    HW175979   5.173   1.568  14.756
91380SOL    HW275980   5.044   1.538  14.683
91381SOL     OW75981   6.977   6.635   6.853
91381SOL    HW175982   7.031   6.596   6.784
91381SOL    HW275983   6.913   6.567   6.874
91382SOL     OW75984   9.901   9.944   7.008
91382SOL    HW175985   9.860   9.869   6.965
91382SOL    HW275986   9.849   9.957   7.087
91383SOL     OW75987  13.250   8.552  10.193
91383SOL    HW175988  13.159   8.525  10.206
91383SOL    HW275989  13.300   8.470  10.197
91384SOL     OW75990   7.907  14.450  12.726
91384SOL    HW175991   7.833  14.443  12.788
91384SOL    HW275992   7.866  14.449  12.640
91385SOL     OW75993   5.465   3.806   3.751
91385SOL    HW175994   5.448   3.774   3.840
91385SOL    HW275995   5.554   3.841   3.755
91386SOL     OW75996   8.032  11.283  10.307
91386SOL    HW175997   8.081  11.236  10.240
91386SOL    HW275998   7.980  11.348  10.259
91387SOL     OW75999   2.858  14.250   1.100
91387SOL    HW176000   2.819  14.191   1.166
91387SOL    HW276001   2.784  14.280   1.048
91388SOL     OW76002   2.578   4.743   2.127
91388SOL    HW176003   2.539   4.680   2.066
91388SOL    HW276004   2.509   4.809   2.139
91389SOL     OW76005   2.110  12.956   2.769
91389SOL    HW176006   2.031  12.904   2.782
91389SOL    HW276007   2.169  12.928   2.839
91390SOL     OW76008  13.678   0.773   5.738
91390SOL    HW176009  13.680   0.677   5.746
91390SOL    HW276010  13.701   0.790   5.646
91391SOL     OW76011   8.897  10.878  12.861
91391SOL    HW176012   8.982  10.920  12.870
91391SOL    HW276013   8.871  10.897  12.771
91392SOL     OW76014  10.568  12.415   7.284
91392SOL    HW176015  10.636  12.416   7.218
91392SOL    HW276016  10.565  12.324   7.314
91393SOL     OW76017   5.317   2.950   3.177
91393SOL    HW176018   5.238   2.896   3.180
91393SOL    HW276019   5.285   3.036   3.150
91394SOL     OW76020   4.060  11.556   3.740
91394SOL    HW176021   4.144  11.588   3.772
91394SOL    HW276022   4.062  11.462   3.759
91395SOL     OW76023   4.030   3.821   3.743
91395SOL    HW176024   4.076   3.868   3.813
91395SOL    HW276025   4.063   3.860   3.662
91396SOL     OW76026   6.226   7.196  11.456
91396SOL    HW176027   6.243   7.274  11.510
91396SOL    HW276028   6.134   7.205  11.431
91397SOL     OW76029   5.645  14.714   5.629
91397SOL    HW176030   5.562  14.748   5.595
91397SOL    HW276031   5.706  14.725   5.556
91398SOL     OW76032   9.854   8.486   1.893
91398SOL    HW176033   9.798   8.486   1.815
91398SOL    HW276034   9.802   8.442   1.960
91399SOL     OW76035   1.775   1.970   1.779
91399SOL    HW176036   1.847   1.944   1.722
91399SOL    HW276037   1.721   1.892   1.787
91400SOL     OW76038   0.475  12.365   2.312
91400SOL    HW176039   0.474  12.412   2.396
91400SOL    HW276040   0.486  12.434   2.246
91401SOL     OW76041   9.142   5.523  13.151
91401SOL    HW176042   9.129   5.453  13.087
91401SOL    HW276043   9.220   5.497  13.200
91402SOL     OW76044   2.256   1.296   5.197
91402SOL    HW176045   2.227   1.369   5.251
91402SOL    HW276046   2.324   1.253   5.249
91403SOL     OW76047  10.020   1.118   8.481
91403SOL    HW176048  10.032   1.157   8.568
91403SOL    HW276049   9.969   1.038   8.497
91404SOL     OW76050  10.877   3.777  10.421
91404SOL    HW176051  10.859   3.733  10.338
91404SOL    HW276052  10.973   3.782  10.426
91405SOL     OW76053   4.398  13.998   4.005
91405SOL    HW176054   4.419  14.010   4.098
91405SOL    HW276055   4.385  14.087   3.972
91406SOL     OW76056   3.471   2.269  14.220
91406SOL    HW176057   3.446   2.361  14.217
91406SOL    HW276058   3.426   2.233  14.296
91407SOL     OW76059   6.323   0.292  11.397
91407SOL    HW176060   6.289   0.271  11.484
91407SOL    HW276061   6.379   0.369  11.412
91408SOL     OW76062  10.667   2.421   7.108
91408SOL    HW176063  10.590   2.371   7.080
91408SOL    HW276064  10.667   2.498   7.052
91409SOL     OW76065   4.290   1.620   1.246
91409SOL    HW176066   4.201   1.656   1.253
91409SOL    HW276067   4.318   1.643   1.157
91410SOL     OW76068   0.592   8.401   4.945
91410SOL    HW176069   0.681   8.374   4.968
91410SOL    HW276070   0.600   8.435   4.856
91411SOL     OW76071   7.325  10.750   7.327
91411SOL    HW176072   7.293  10.719   7.412
91411SOL    HW276073   7.280  10.833   7.313
91412SOL     OW76074   1.216   4.672  11.280
91412SOL    HW176075   1.179   4.660  11.368
91412SOL    HW276076   1.311   4.678  11.295
91413SOL     OW76077   9.616  12.026   2.508
91413SOL    HW176078   9.573  11.941   2.501
91413SOL    HW276079   9.551  12.083   2.547
91414SOL     OW76080   7.981   7.614  13.325
91414SOL    HW176081   8.076   7.607  13.318
91414SOL    HW276082   7.947   7.556  13.256
91415SOL     OW76083   3.401   6.294   3.997
91415SOL    HW176084   3.329   6.232   4.005
91415SOL    HW276085   3.448   6.267   3.919
91416SOL     OW76086   4.372   8.847  12.065
91416SOL    HW176087   4.453   8.897  12.058
91416SOL    HW276088   4.325   8.887  12.139
91417SOL     OW76089   8.030   3.020   2.583
91417SOL    HW176090   8.003   3.009   2.674
91417SOL    HW276091   8.027   2.931   2.546
91418SOL     OW76092  13.133   9.356   2.392
91418SOL    HW176093  13.224   9.358   2.362
91418SOL    HW276094  13.114   9.263   2.404
91419SOL     OW76095   2.878  14.857   3.123
91419SOL    HW176096   2.789  14.863   3.087
91419SOL    HW276097   2.925  14.802   3.060
91420SOL     OW76098   0.737   1.310   1.788
91420SOL    HW176099   0.671   1.379   1.787
91420SOL    HW276100   0.700   1.244   1.847
91421SOL     OW76101   3.235   8.586   1.800
91421SOL    HW176102   3.196   8.504   1.832
91421SOL    HW276103   3.308   8.602   1.860
91422SOL     OW76104   9.507  12.864   1.670
91422SOL    HW176105   9.592  12.828   1.647
91422SOL    HW276106   9.447  12.827   1.606
91423SOL     OW76107   7.536   8.526   0.879
91423SOL    HW176108   7.449   8.486   0.875
91423SOL    HW276109   7.581   8.493   0.801
91424SOL     OW76110   1.265   0.350   2.558
91424SOL    HW176111   1.175   0.381   2.555
91424SOL    HW276112   1.318   0.426   2.534
91425SOL     OW76113  13.298   3.460   0.614
91425SOL    HW176114  13.339   3.476   0.529
91425SOL    HW276115  13.251   3.377   0.603
91426SOL     OW76116  10.573   7.589   6.037
91426SOL    HW176117  10.611   7.530   6.102
91426SOL    HW276118  10.506   7.536   5.993
91427SOL     OW76119   9.299   8.304  14.293
91427SOL    HW176120   9.235   8.353  14.240
91427SOL    HW276121   9.322   8.363  14.364
91428SOL     OW76122  10.078   6.564  13.617
91428SOL    HW176123  10.125   6.500  13.565
91428SOL    HW276124  10.140   6.635  13.630
91429SOL     OW76125   6.739  11.416   3.682
91429SOL    HW176126   6.671  11.390   3.745
91429SOL    HW276127   6.695  11.477   3.623
91430SOL     OW76128   9.411  14.582  10.704
91430SOL    HW176129   9.459  14.594  10.786
91430SOL    HW276130   9.398  14.487  10.697
91431SOL     OW76131  11.137  13.891   3.777
91431SOL    HW176132  11.164  13.878   3.686
91431SOL    HW276133  11.143  13.805   3.817
91432SOL     OW76134   4.771  10.461  14.823
91432SOL    HW176135   4.748  10.369  14.819
91432SOL    HW276136   4.759  10.485   0.035
91433SOL     OW76137   6.478   8.333  12.541
91433SOL    HW176138   6.438   8.382  12.469
91433SOL    HW276139   6.449   8.243  12.527
91434SOL     OW76140   2.206   1.821   8.977
91434SOL    HW176141   2.200   1.900   8.923
91434SOL    HW276142   2.145   1.836   9.049
91435SOL     OW76143   1.378   5.381   6.121
91435SOL    HW176144   1.420   5.304   6.085
91435SOL    HW276145   1.306   5.347   6.175
91436SOL     OW76146   4.057  11.553   1.303
91436SOL    HW176147   4.065  11.601   1.221
91436SOL    HW276148   4.145  11.518   1.319
91437SOL     OW76149   0.447   5.541   0.740
91437SOL    HW176150   0.366   5.517   0.695
91437SOL    HW276151   0.449   5.485   0.817
91438SOL     OW76152  14.371   4.237  13.442
91438SOL    HW176153  14.427   4.314  13.443
91438SOL    HW276154  14.283   4.271  13.429
91439SOL     OW76155   9.425   2.569   3.027
91439SOL    HW176156   9.331   2.582   3.033
91439SOL    HW276157   9.435   2.485   2.981
91440SOL     OW76158  13.335  10.303  12.267
91440SOL    HW176159  13.422  10.268  12.248
91440SOL    HW276160  13.281  10.226  12.282
91441SOL     OW76161  13.931   7.495   1.784
91441SOL    HW176162  13.906   7.497   1.692
91441SOL    HW276163  14.009   7.439   1.786
91442SOL     OW76164   0.308   6.998   9.575
91442SOL    HW176165   0.346   6.941   9.509
91442SOL    HW276166   0.368   6.992   9.650
91443SOL     OW76167  13.831  11.193   7.369
91443SOL    HW176168  13.808  11.214   7.460
91443SOL    HW276169  13.859  11.276   7.332
91444SOL     OW76170   0.588   9.139  11.856
91444SOL    HW176171   0.661   9.158  11.797
91444SOL    HW276172   0.618   9.065  11.909
91445SOL     OW76173   7.904  12.190   3.875
91445SOL    HW176174   7.925  12.182   3.968
91445SOL    HW276175   7.967  12.254   3.841
91446SOL     OW76176   7.847   5.519   4.668
91446SOL    HW176177   7.874   5.566   4.590
91446SOL    HW276178   7.930   5.495   4.711
91447SOL     OW76179   5.213   7.643   1.091
91447SOL    HW176180   5.216   7.722   1.038
91447SOL    HW276181   5.287   7.652   1.151
91448SOL     OW76182   9.090  12.296   3.741
91448SOL    HW176183   8.997  12.311   3.728
91448SOL    HW276184   9.104  12.308   3.835
91449SOL     OW76185  10.288   9.485   9.718
91449SOL    HW176186  10.254   9.409   9.670
91449SOL    HW276187  10.298   9.553   9.651
91450SOL     OW76188  13.833  10.698   8.238
91450SOL    HW176189  13.863  10.611   8.213
91450SOL    HW276190  13.741  10.700   8.211
91451SOL     OW76191  12.581   3.489  14.369
91451SOL    HW176192  12.555   3.569  14.324
91451SOL    HW276193  12.556   3.419  14.309
91452SOL     OW76194   8.114   0.781   7.220
91452SOL    HW176195   8.147   0.693   7.239
91452SOL    HW276196   8.052   0.768   7.149
91453SOL     OW76197   2.569   8.232  13.255
91453SOL    HW176198   2.517   8.153  13.243
91453SOL    HW276199   2.648   8.202  13.299
91454SOL     OW76200   6.186   6.007   8.313
91454SOL    HW176201   6.179   5.934   8.251
91454SOL    HW276202   6.222   6.079   8.261
91455SOL     OW76203  14.069   3.054   8.902
91455SOL    HW176204  14.064   3.037   8.997
91455SOL    HW276205  14.163   3.054   8.883
91456SOL     OW76206   7.849   3.023   6.026
91456SOL    HW176207   7.854   3.035   5.931
91456SOL    HW276208   7.920   3.079   6.060
91457SOL     OW76209   4.565   4.796  14.357
91457SOL    HW176210   4.501   4.725  14.359
91457SOL    HW276211   4.516   4.873  14.385
91458SOL     OW76212   2.979  10.124  10.868
91458SOL    HW176213   3.002  10.075  10.789
91458SOL    HW276214   3.063  10.142  10.910
91459SOL     OW76215   3.304   2.588   6.145
91459SOL    HW176216   3.275   2.679   6.136
91459SOL    HW276217   3.335   2.564   6.058
91460SOL     OW76218   4.816   4.222   6.127
91460SOL    HW176219   4.724   4.239   6.151
91460SOL    HW276220   4.848   4.165   6.196
91461SOL     OW76221   5.418  13.479   6.895
91461SOL    HW176222   5.400  13.393   6.856
91461SOL    HW276223   5.510  13.495   6.875
91462SOL     OW76224  14.479   3.815   0.534
91462SOL    HW176225  14.549   3.881   0.537
91462SOL    HW276226  14.493   3.770   0.450
91463SOL     OW76227   6.568   2.851  14.270
91463SOL    HW176228   6.477   2.832  14.247
91463SOL    HW276229   6.572   2.836  14.364
91464SOL     OW76230  13.500  10.862   4.217
91464SOL    HW176231  13.455  10.807   4.280
91464SOL    HW276232  13.581  10.889   4.261
91465SOL     OW76233   6.769  10.997  11.816
91465SOL    HW176234   6.762  10.963  11.905
91465SOL    HW276235   6.759  10.920  11.760
91466SOL     OW76236   8.278   6.992  13.537
91466SOL    HW176237   8.186   6.967  13.549
91466SOL    HW276238   8.277   7.051  13.462
91467SOL     OW76239   3.622   3.701   9.132
91467SOL    HW176240   3.645   3.609   9.119
91467SOL    HW276241   3.705   3.747   9.127
91468SOL     OW76242   8.794   8.450  13.271
91468SOL    HW176243   8.729   8.519  13.260
91468SOL    HW276244   8.875   8.488  13.238
91469SOL     OW76245  10.826   8.720  11.767
91469SOL    HW176246  10.749   8.761  11.807
91469SOL    HW276247  10.799   8.630  11.751
91470SOL     OW76248   5.775   6.857   8.171
91470SOL    HW176249   5.679   6.861   8.176
91470SOL    HW276250   5.800   6.943   8.136
91471SOL     OW76251  11.957  11.694   7.071
91471SOL    HW176252  11.904  11.674   7.149
91471SOL    HW276253  11.986  11.608   7.040
91472SOL     OW76254   9.482   0.828   4.884
91472SOL    HW176255   9.389   0.808   4.877
91472SOL    HW276256   9.485   0.908   4.936
91473SOL     OW76257   1.074   1.562  11.602
91473SOL    HW176258   0.980   1.576  11.584
91473SOL    HW276259   1.087   1.468  11.590
91474SOL     OW76260   5.915   4.693   0.427
91474SOL    HW176261   5.984   4.760   0.418
91474SOL    HW276262   5.839   4.742   0.458
91475SOL     OW76263   8.190  10.879  12.830
91475SOL    HW176264   8.211  10.786  12.826
91475SOL    HW276265   8.162  10.902  12.742
91476SOL     OW76266   9.896  14.559   7.817
91476SOL    HW176267   9.833  14.622   7.781
91476SOL    HW276268   9.867  14.474   7.782
91477SOL     OW76269   2.798   5.860   3.440
91477SOL    HW176270   2.842   5.816   3.367
91477SOL    HW276271   2.738   5.921   3.397
91478SOL     OW76272   9.509  10.932   0.934
91478SOL    HW176273   9.519  10.920   0.840
91478SOL    HW276274   9.414  10.927   0.949
91479SOL     OW76275  14.353  12.715  13.311
91479SOL    HW176276  14.344  12.745  13.220
91479SOL    HW276277  14.438  12.670  13.313
91480SOL     OW76278   0.343  10.884   0.984
91480SOL    HW176279   0.358  10.915   1.074
91480SOL    HW276280   0.275  10.943   0.950
91481SOL     OW76281   3.022   8.342   8.418
91481SOL    HW176282   3.036   8.251   8.445
91481SOL    HW276283   2.931   8.344   8.388
91482SOL     OW76284   8.027   2.584  10.216
91482SOL    HW176285   7.956   2.585  10.151
91482SOL    HW276286   7.985   2.614  10.297
91483SOL     OW76287  14.547   9.181   4.382
91483SOL    HW176288  14.641   9.194   4.394
91483SOL    HW276289  14.506   9.248   4.437
91484SOL     OW76290   1.354   3.160   1.377
91484SOL    HW176291   1.279   3.101   1.380
91484SOL    HW276292   1.329   3.232   1.435
91485SOL     OW76293   1.999   5.563   3.821
91485SOL    HW176294   1.971   5.539   3.909
91485SOL    HW276295   1.972   5.654   3.811
91486SOL     OW76296   8.305  13.625  11.958
91486SOL    HW176297   8.354  13.552  11.921
91486SOL    HW276298   8.272  13.673  11.881
91487SOL     OW76299   9.684   6.455   7.214
91487SOL    HW176300   9.733   6.497   7.143
91487SOL    HW276301   9.710   6.505   7.292
91488SOL     OW76302   7.240  12.222   9.050
91488SOL    HW176303   7.179  12.198   8.980
91488SOL    HW276304   7.289  12.142   9.067
91489SOL     OW76305  12.369   8.113  10.345
91489SOL    HW176306  12.283   8.154  10.338
91489SOL    HW276307  12.415   8.163  10.412
91490SOL     OW76308   0.376   2.187   4.116
91490SOL    HW176309   0.394   2.140   4.198
91490SOL    HW276310   0.459   2.186   4.069
91491SOL     OW76311  11.524   8.429   7.943
91491SOL    HW176312  11.528   8.488   7.868
91491SOL    HW276313  11.604   8.376   7.937
91492SOL     OW76314  11.112  12.891   0.919
91492SOL    HW176315  11.200  12.855   0.933
91492SOL    HW276316  11.055  12.835   0.972
91493SOL     OW76317   0.734   3.624   4.008
91493SOL    HW176318   0.641   3.645   4.007
91493SOL    HW276319   0.752   3.589   3.921
91494SOL     OW76320   2.833   4.764   7.852
91494SOL    HW176321   2.796   4.683   7.817
91494SOL    HW276322   2.864   4.741   7.939
91495SOL     OW76323  13.930   9.691  12.161
91495SOL    HW176324  13.962   9.622  12.102
91495SOL    HW276325  13.870   9.645  12.220
91496SOL     OW76326   8.525  11.699   2.106
91496SOL    HW176327   8.559  11.614   2.079
91496SOL    HW276328   8.572  11.763   2.052
91497SOL     OW76329   9.717   3.132   8.951
91497SOL    HW176330   9.785   3.163   9.011
91497SOL    HW276331   9.648   3.198   8.957
91498SOL     OW76332   8.718   1.099   8.864
91498SOL    HW176333   8.697   1.156   8.791
91498SOL    HW276334   8.700   1.011   8.833
91499SOL     OW76335   3.350   4.351   3.909
91499SOL    HW176336   3.376   4.425   3.964
91499SOL    HW276337   3.432   4.310   3.883
91500SOL     OW76338   7.009  11.310   0.201
91500SOL    HW176339   7.034  11.393   0.241
91500SOL    HW276340   6.994  11.331   0.109
91501SOL     OW76341  12.308   3.235  10.456
91501SOL    HW176342  12.265   3.284  10.526
91501SOL    HW276343  12.309   3.294  10.381
91502SOL     OW76344   3.982   5.485   2.077
91502SOL    HW176345   4.058   5.511   2.024
91502SOL    HW276346   4.016   5.479   2.166
91503SOL     OW76347   3.873   3.664   7.432
91503SOL    HW176348   3.782   3.670   7.462
91503SOL    HW276349   3.898   3.755   7.414
91504SOL     OW76350  13.640  11.449   2.535
91504SOL    HW176351  13.706  11.437   2.604
91504SOL    HW276352  13.683  11.418   2.455
91505SOL     OW76353   0.470  14.319   6.556
91505SOL    HW176354   0.442  14.348   6.643
91505SOL    HW276355   0.537  14.383   6.529
91506SOL     OW76356  10.333   8.398   6.312
91506SOL    HW176357  10.258   8.455   6.300
91506SOL    HW276358  10.401   8.435   6.256
91507SOL     OW76359  10.673   5.112   9.786
91507SOL    HW176360  10.634   5.064   9.713
91507SOL    HW276361  10.627   5.196   9.787
91508SOL     OW76362   0.021   9.119   3.481
91508SOL    HW176363   0.091   9.072   3.435
91508SOL    HW276364  14.830   9.127   3.417
91509SOL     OW76365  13.031   0.788   5.937
91509SOL    HW176366  13.052   0.697   5.957
91509SOL    HW276367  13.041   0.793   5.842
91510SOL     OW76368   7.523   5.254   1.153
91510SOL    HW176369   7.497   5.343   1.179
91510SOL    HW276370   7.444   5.202   1.166
91511SOL     OW76371  13.590   4.865   5.515
91511SOL    HW176372  13.510   4.837   5.469
91511SOL    HW276373  13.577   4.959   5.529
91512SOL     OW76374   9.425   0.314   2.310
91512SOL    HW176375   9.355   0.254   2.335
91512SOL    HW276376   9.505   0.260   2.311
91513SOL     OW76377   3.490  14.312   2.624
91513SOL    HW176378   3.462  14.238   2.570
91513SOL    HW276379   3.451  14.388   2.580
91514SOL     OW76380  11.322  14.035  11.230
91514SOL    HW176381  11.301  13.953  11.274
91514SOL    HW276382  11.366  14.088  11.296
91515SOL     OW76383  11.290   1.353  10.869
91515SOL    HW176384  11.266   1.275  10.919
91515SOL    HW276385  11.384   1.343  10.852
91516SOL     OW76386   6.347  10.641   5.798
91516SOL    HW176387   6.420  10.701   5.783
91516SOL    HW276388   6.381  10.577   5.860
91517SOL     OW76389  14.654  10.621   6.015
91517SOL    HW176390  14.642  10.673   6.094
91517SOL    HW276391  14.677  10.533   6.047
91518SOL     OW76392  10.372   5.110   1.793
91518SOL    HW176393  10.299   5.143   1.741
91518SOL    HW276394  10.371   5.015   1.779
91519SOL     OW76395  14.767  13.014   0.056
91519SOL    HW176396  14.725  12.947   0.002
91519SOL    HW276397  14.752  12.984   0.146
91520SOL     OW76398  11.056   0.197   7.072
91520SOL    HW176399  11.016   0.111   7.081
91520SOL    HW276400  11.093   0.216   7.158
91521SOL     OW76401   6.988   7.199   5.710
91521SOL    HW176402   7.062   7.260   5.704
91521SOL    HW276403   6.946   7.203   5.624
91522SOL     OW76404   1.059  13.268   0.529
91522SOL    HW176405   1.015  13.188   0.560
91522SOL    HW276406   1.125  13.285   0.596
91523SOL     OW76407   5.610  13.626   0.955
91523SOL    HW176408   5.625  13.557   0.891
91523SOL    HW276409   5.646  13.592   1.036
91524SOL     OW76410   6.386  11.605   0.257
91524SOL    HW176411   6.454  11.660   0.218
91524SOL    HW276412   6.304  11.651   0.239
91525SOL     OW76413   9.482  13.562   6.390
91525SOL    HW176414   9.516  13.606   6.468
91525SOL    HW276415   9.558  13.520   6.351
91526SOL     OW76416   3.457   6.858   6.917
91526SOL    HW176417   3.403   6.930   6.949
91526SOL    HW276418   3.525   6.847   6.983
91527SOL     OW76419   5.729   3.530  13.927
91527SOL    HW176420   5.785   3.603  13.953
91527SOL    HW276421   5.762   3.503  13.841
91528SOL     OW76422   9.939   8.933  11.871
91528SOL    HW176423   9.926   8.839  11.885
91528SOL    HW276424  10.023   8.952  11.915
91529SOL     OW76425  10.459   8.630  10.794
91529SOL    HW176426  10.534   8.607  10.849
91529SOL    HW276427  10.382   8.605  10.846
91530SOL     OW76428   6.829   1.967   7.201
91530SOL    HW176429   6.859   1.978   7.111
91530SOL    HW276430   6.848   2.051   7.243
91531SOL     OW76431   1.613   9.612   7.969
91531SOL    HW176432   1.576   9.619   8.057
91531SOL    HW276433   1.587   9.524   7.940
91532SOL     OW76434   2.295   8.632   3.289
91532SOL    HW176435   2.221   8.659   3.235
91532SOL    HW276436   2.352   8.583   3.230
91533SOL     OW76437   0.814  12.954  14.456
91533SOL    HW176438   0.842  12.869  14.490
91533SOL    HW276439   0.720  12.943  14.443
91534SOL     OW76440   7.851  14.401   2.966
91534SOL    HW176441   7.861  14.483   3.014
91534SOL    HW276442   7.877  14.422   2.876
91535SOL     OW76443   3.849  12.478   2.479
91535SOL    HW176444   3.771  12.528   2.504
91535SOL    HW276445   3.841  12.395   2.526
91536SOL     OW76446   8.492   6.106   3.554
91536SOL    HW176447   8.441   6.046   3.608
91536SOL    HW276448   8.463   6.193   3.582
91537SOL     OW76449   6.404   1.433  10.571
91537SOL    HW176450   6.374   1.445  10.480
91537SOL    HW276451   6.461   1.356  10.568
91538SOL     OW76452   5.494   6.195  14.818
91538SOL    HW176453   5.575   6.190  14.868
91538SOL    HW276454   5.467   6.287  14.825
91539SOL     OW76455   1.210   8.100   1.437
91539SOL    HW176456   1.247   8.017   1.408
91539SOL    HW276457   1.247   8.165   1.376
91540SOL     OW76458  14.192   1.309  14.626
91540SOL    HW176459  14.121   1.250  14.600
91540SOL    HW276460  14.211   1.359  14.547
91541SOL     OW76461   8.721   6.081   7.116
91541SOL    HW176462   8.750   6.153   7.172
91541SOL    HW276463   8.644   6.046   7.160
91542SOL     OW76464   4.163  10.678   2.514
91542SOL    HW176465   4.077  10.674   2.473
91542SOL    HW276466   4.225  10.683   2.441
91543SOL     OW76467   7.728  12.121   6.213
91543SOL    HW176468   7.821  12.115   6.235
91543SOL    HW276469   7.726  12.109   6.118
91544SOL     OW76470   0.961   6.120   4.247
91544SOL    HW176471   0.902   6.097   4.175
91544SOL    HW276472   0.906   6.169   4.308
91545SOL     OW76473   1.389  13.392  11.148
91545SOL    HW176474   1.461  13.336  11.121
91545SOL    HW276475   1.329  13.334  11.194
91546SOL     OW76476   0.479   2.658  11.532
91546SOL    HW176477   0.520   2.655  11.446
91546SOL    HW276478   0.531   2.600  11.586
91547SOL     OW76479   3.984  10.072   2.238
91547SOL    HW176480   4.023  10.149   2.196
91547SOL    HW276481   4.059  10.015   2.258
91548SOL     OW76482  12.097   1.414   0.494
91548SOL    HW176483  12.066   1.363   0.569
91548SOL    HW276484  12.144   1.488   0.534
91549SOL     OW76485   2.326  10.688   8.587
91549SOL    HW176486   2.386  10.656   8.520
91549SOL    HW276487   2.287  10.609   8.624
91550SOL     OW76488   5.054   7.724   9.039
91550SOL    HW176489   5.024   7.702   9.128
91550SOL    HW276490   5.095   7.810   9.049
91551SOL     OW76491  12.624   0.582   4.718
91551SOL    HW176492  12.680   0.659   4.708
91551SOL    HW276493  12.684   0.508   4.717
91552SOL     OW76494   9.611  13.299   4.456
91552SOL    HW176495   9.576  13.351   4.528
91552SOL    HW276496   9.536  13.251   4.422
91553SOL     OW76497  12.156  10.886   7.585
91553SOL    HW176498  12.231  10.936   7.616
91553SOL    HW276499  12.190  10.833   7.513
91554SOL     OW76500  14.664   0.516   8.221
91554SOL    HW176501  14.681   0.606   8.196
91554SOL    HW276502  14.569   0.511   8.232
91555SOL     OW76503   0.515   9.257   6.381
91555SOL    HW176504   0.533   9.311   6.303
91555SOL    HW276505   0.517   9.167   6.348
91556SOL     OW76506   2.378   8.368   1.431
91556SOL    HW176507   2.289   8.344   1.458
91556SOL    HW276508   2.366   8.450   1.382
91557SOL     OW76509   4.980   6.797   8.860
91557SOL    HW176510   4.994   6.784   8.954
91557SOL    HW276511   4.958   6.710   8.827
91558SOL     OW76512  13.068   5.105  11.599
91558SOL    HW176513  13.071   5.083  11.506
91558SOL    HW276514  13.157   5.089  11.630
91559SOL     OW76515   8.166  12.148   5.577
91559SOL    HW176516   8.218  12.138   5.656
91559SOL    HW276517   8.117  12.230   5.590
91560SOL     OW76518   0.936   6.640   7.334
91560SOL    HW176519   0.974   6.723   7.362
91560SOL    HW276520   0.879   6.614   7.407
91561SOL     OW76521   9.204   6.256   4.158
91561SOL    HW176522   9.114   6.284   4.144
91561SOL    HW276523   9.231   6.218   4.074
91562SOL     OW76524  10.580   8.854   2.998
91562SOL    HW176525  10.518   8.907   2.949
91562SOL    HW276526  10.557   8.867   3.089
91563SOL     OW76527   6.589  13.613   9.462
91563SOL    HW176528   6.579  13.562   9.542
91563SOL    HW276529   6.618  13.699   9.492
91564SOL     OW76530   1.201   9.879  11.180
91564SOL    HW176531   1.168   9.792  11.204
91564SOL    HW276532   1.276   9.893  11.237
91565SOL     OW76533   3.997   6.981  11.715
91565SOL    HW176534   4.056   6.951  11.647
91565SOL    HW276535   3.916   7.004  11.669
91566SOL     OW76536   3.258  10.263   8.874
91566SOL    HW176537   3.245  10.316   8.796
91566SOL    HW276538   3.340  10.216   8.858
91567SOL     OW76539  11.789   1.534  14.818
91567SOL    HW176540  11.709   1.529  14.870
91567SOL    HW276541  11.827   1.619  14.842
91568SOL     OW76542  14.267   3.479   2.152
91568SOL    HW176543  14.298   3.495   2.241
91568SOL    HW276544  14.346   3.456   2.103
91569SOL     OW76545  12.821   2.476   6.186
91569SOL    HW176546  12.753   2.539   6.163
91569SOL    HW276547  12.880   2.475   6.110
91570SOL     OW76548   5.852   6.798   5.778
91570SOL    HW176549   5.931   6.778   5.728
91570SOL    HW276550   5.873   6.774   5.868
91571SOL     OW76551   3.464  13.983   6.789
91571SOL    HW176552   3.487  13.890   6.783
91571SOL    HW276553   3.438  14.006   6.700
91572SOL     OW76554   7.130   7.859   4.854
91572SOL    HW176555   7.178   7.849   4.937
91572SOL    HW276556   7.050   7.906   4.879
91573SOL     OW76557   1.762   5.413   5.651
91573SOL    HW176558   1.721   5.382   5.732
91573SOL    HW276559   1.855   5.395   5.663
91574SOL     OW76560   1.741   3.596   6.873
91574SOL    HW176561   1.781   3.538   6.809
91574SOL    HW276562   1.753   3.552   6.957
91575SOL     OW76563  13.021   5.786   4.314
91575SOL    HW176564  13.073   5.706   4.312
91575SOL    HW276565  13.020   5.815   4.223
91576SOL     OW76566   1.547  13.284   4.775
91576SOL    HW176567   1.502  13.365   4.801
91576SOL    HW276568   1.640  13.303   4.787
91577SOL     OW76569  12.953  14.829   0.602
91577SOL    HW176570  12.867  14.870   0.592
91577SOL    HW276571  12.941  14.765   0.672
91578SOL     OW76572   2.021   3.937   4.249
91578SOL    HW176573   2.037   3.920   4.156
91578SOL    HW276574   2.048   3.857   4.293
91579SOL     OW76575  13.893   9.886   2.847
91579SOL    HW176576  13.801   9.899   2.821
91579SOL    HW276577  13.890   9.812   2.907
91580SOL     OW76578   9.172  13.044   7.011
91580SOL    HW176579   9.213  13.043   7.097
91580SOL    HW276580   9.186  12.956   6.977
91581SOL     OW76581   7.998   1.799  11.552
91581SOL    HW176582   8.060   1.726  11.545
91581SOL    HW276583   8.002   1.826  11.643
91582SOL     OW76584   4.738   6.842   2.561
91582SOL    HW176585   4.794   6.910   2.599
91582SOL    HW276586   4.658   6.845   2.613
91583SOL     OW76587   6.977   8.667  13.065
91583SOL    HW176588   7.003   8.578  13.089
91583SOL    HW276589   6.897   8.682  13.115
91584SOL     OW76590   0.532   1.104   4.231
91584SOL    HW176591   0.552   1.016   4.199
91584SOL    HW276592   0.466   1.091   4.298
91585SOL     OW76593   3.317  13.794  11.734
91585SOL    HW176594   3.327  13.730  11.663
91585SOL    HW276595   3.370  13.759  11.805
91586SOL     OW76596   9.379   8.104   9.889
91586SOL    HW176597   9.429   8.121   9.810
91586SOL    HW276598   9.420   8.026   9.927
91587SOL     OW76599   3.233  14.722   6.811
91587SOL    HW176600   3.178  14.797   6.837
91587SOL    HW276601   3.206  14.652   6.870
91588SOL     OW76602   8.332   7.853   2.540
91588SOL    HW176603   8.273   7.928   2.550
91588SOL    HW276604   8.371   7.841   2.627
91589SOL     OW76605   4.172   1.922  12.981
91589SOL    HW176606   4.174   1.985  13.053
91589SOL    HW276607   4.224   1.962  12.912
91590SOL     OW76608   1.516   4.735   0.903
91590SOL    HW176609   1.602   4.713   0.866
91590SOL    HW276610   1.519   4.829   0.919
91591SOL     OW76611   2.123   6.606  14.516
91591SOL    HW176612   2.131   6.527  14.463
91591SOL    HW276613   2.034   6.601  14.553
91592SOL     OW76614   7.623  14.773   5.867
91592SOL    HW176615   7.559  14.822   5.919
91592SOL    HW276616   7.702  14.772   5.921
91593SOL     OW76617   1.886  12.850   4.515
91593SOL    HW176618   1.938  12.913   4.565
91593SOL    HW276619   1.902  12.766   4.557
91594SOL     OW76620  13.245   2.728  14.798
91594SOL    HW176621  13.294   2.754  14.720
91594SOL    HW276622  13.153   2.744  14.776
91595SOL     OW76623   3.586  14.847   8.342
91595SOL    HW176624   3.589  14.773   8.282
91595SOL    HW276625   3.619   0.042   8.291
91596SOL     OW76626  14.429   4.150   3.636
91596SOL    HW176627  14.357   4.155   3.700
91596SOL    HW276628  14.504   4.188   3.682
91597SOL     OW76629   1.244  11.940  10.719
91597SOL    HW176630   1.328  11.905  10.748
91597SOL    HW276631   1.259  12.033  10.706
91598SOL     OW76632   3.459   6.061   8.492
91598SOL    HW176633   3.367   6.037   8.485
91598SOL    HW276634   3.506   5.983   8.463
91599SOL     OW76635   6.197   2.354  11.976
91599SOL    HW176636   6.158   2.281  12.025
91599SOL    HW276637   6.166   2.341  11.886
91600SOL     OW76638  10.455   9.923  12.065
91600SOL    HW176639  10.453   9.933  12.161
91600SOL    HW276640  10.405   9.843  12.049
91601SOL     OW76641   8.298   3.995  12.660
91601SOL    HW176642   8.313   4.081  12.701
91601SOL    HW276643   8.375   3.944  12.683
91602SOL     OW76644  10.499   7.936   1.154
91602SOL    HW176645  10.555   7.885   1.095
91602SOL    HW276646  10.559   7.973   1.219
91603SOL     OW76647   1.516   6.487   6.961
91603SOL    HW176648   1.458   6.552   6.921
91603SOL    HW276649   1.461   6.410   6.973
91604SOL     OW76650   7.817  14.493   4.319
91604SOL    HW176651   7.867  14.575   4.323
91604SOL    HW276652   7.869  14.437   4.261
91605SOL     OW76653  14.558   8.836   8.847
91605SOL    HW176654  14.491   8.768   8.836
91605SOL    HW276655  14.629   8.809   8.789
91606SOL     OW76656  13.373  10.185   2.608
91606SOL    HW176657  13.302  10.167   2.670
91606SOL    HW276658  13.421  10.258   2.647
91607SOL     OW76659   3.412  14.007  10.477
91607SOL    HW176660   3.448  13.970  10.396
91607SOL    HW276661   3.486  14.006  10.538
91608SOL     OW76662   7.007   3.533  10.062
91608SOL    HW176663   7.033   3.624  10.071
91608SOL    HW276664   7.090   3.485  10.051
91609SOL     OW76665   7.483  12.247   3.801
91609SOL    HW176666   7.470  12.226   3.893
91609SOL    HW276667   7.566  12.293   3.798
91610SOL     OW76668  13.173   2.158   1.941
91610SOL    HW176669  13.259   2.134   1.905
91610SOL    HW276670  13.190   2.237   1.991
91611SOL     OW76671  14.354  10.511  12.072
91611SOL    HW176672  14.423  10.448  12.053
91611SOL    HW276673  14.285  10.460  12.114
91612SOL     OW76674   6.494   0.089  12.466
91612SOL    HW176675   6.533   0.045  12.390
91612SOL    HW276676   6.534   0.047  12.542
91613SOL     OW76677   2.402   6.291   3.514
91613SOL    HW176678   2.317   6.321   3.546
91613SOL    HW276679   2.461   6.364   3.529
91614SOL     OW76680   4.071  13.597   0.595
91614SOL    HW176681   4.120  13.523   0.631
91614SOL    HW276682   4.033  13.563   0.513
91615SOL     OW76683   2.678   7.382   8.957
91615SOL    HW176684   2.662   7.319   9.027
91615SOL    HW276685   2.747   7.439   8.991
91616SOL     OW76686   4.325  13.878  10.294
91616SOL    HW176687   4.243  13.900  10.250
91616SOL    HW276688   4.372  13.962  10.301
91617SOL     OW76689   5.369   6.260  14.240
91617SOL    HW176690   5.302   6.329  14.230
91617SOL    HW276691   5.419   6.264  14.159
91618SOL     OW76692  13.350  11.429  13.568
91618SOL    HW176693  13.320  11.347  13.607
91618SOL    HW276694  13.297  11.439  13.489
91619SOL     OW76695   5.776   6.219  14.696
91619SOL    HW176696   5.680   6.215  14.696
91619SOL    HW276697   5.804   6.128  14.688
91620SOL     OW76698  11.034   9.647  10.089
91620SOL    HW176699  11.011   9.624  10.179
91620SOL    HW276700  11.044   9.742  10.091
91621SOL     OW76701  10.993   3.035  12.254
91621SOL    HW176702  11.033   2.999  12.175
91621SOL    HW276703  11.028   3.124  12.261
91622SOL     OW76704   6.454  14.206  12.552
91622SOL    HW176705   6.508  14.284  12.567
91622SOL    HW276706   6.366  14.241  12.537
91623SOL     OW76707  12.167  14.276   0.208
91623SOL    HW176708  12.202  14.360   0.178
91623SOL    HW276709  12.193  14.213   0.141
91624SOL     OW76710   3.506   2.909   4.344
91624SOL    HW176711   3.497   3.001   4.323
91624SOL    HW276712   3.597   2.888   4.321
91625SOL     OW76713   9.038  10.545   9.212
91625SOL    HW176714   9.124  10.556   9.253
91625SOL    HW276715   9.059  10.521   9.121
91626SOL     OW76716   0.253  11.484   2.486
91626SOL    HW176717   0.292  11.397   2.479
91626SOL    HW276718   0.226  11.505   2.397
91627SOL     OW76719  10.822  10.616   8.904
91627SOL    HW176720  10.904  10.586   8.943
91627SOL    HW276721  10.836  10.710   8.889
91628SOL     OW76722  10.279   5.626   0.996
91628SOL    HW176723  10.196   5.589   0.963
91628SOL    HW276724  10.262   5.642   1.089
91629SOL     OW76725   9.977   3.608   9.463
91629SOL    HW176726  10.050   3.607   9.525
91629SOL    HW276727  10.011   3.566   9.385
91630SOL     OW76728  11.380   6.552   1.259
91630SOL    HW176729  11.296   6.571   1.216
91630SOL    HW276730  11.390   6.623   1.323
91631SOL     OW76731  12.366   2.889  14.875
91631SOL    HW176732  12.354   2.913  14.783
91631SOL    HW276733  12.435   2.822  14.873
91632SOL     OW76734   8.693   2.979   5.729
91632SOL    HW176735   8.689   3.074   5.743
91632SOL    HW276736   8.756   2.948   5.794
91633SOL     OW76737   7.787  13.287   4.500
91633SOL    HW176738   7.821  13.279   4.411
91633SOL    HW276739   7.699  13.249   4.495
91634SOL     OW76740   7.621   8.688   2.774
91634SOL    HW176741   7.638   8.636   2.853
91634SOL    HW276742   7.528   8.709   2.778
91635SOL     OW76743   1.392  10.956  12.705
91635SOL    HW176744   1.452  10.920  12.771
91635SOL    HW276745   1.360  10.880  12.658
91636SOL     OW76746   3.388   6.537   8.426
91636SOL    HW176747   3.415   6.447   8.444
91636SOL    HW276748   3.450   6.591   8.475
91637SOL     OW76749  12.888  12.373   2.874
91637SOL    HW176750  12.902  12.373   2.969
91637SOL    HW276751  12.970  12.339   2.838
91638SOL     OW76752   7.669  10.845   6.789
91638SOL    HW176753   7.712  10.925   6.758
91638SOL    HW276754   7.610  10.820   6.718
91639SOL     OW76755  10.750   5.279   2.036
91639SOL    HW176756  10.717   5.325   2.113
91639SOL    HW276757  10.684   5.212   2.017
91640SOL     OW76758   2.818   0.645   4.979
91640SOL    HW176759   2.770   0.631   4.897
91640SOL    HW276760   2.871   0.566   4.989
91641SOL     OW76761   3.161   6.634   9.145
91641SOL    HW176762   3.209   6.712   9.119
91641SOL    HW276763   3.171   6.630   9.240
91642SOL     OW76764   3.914  14.147   4.566
91642SOL    HW176765   3.906  14.242   4.555
91642SOL    HW276766   3.954  14.136   4.652
91643SOL     OW76767   1.117   4.457   5.263
91643SOL    HW176768   1.144   4.540   5.304
91643SOL    HW276769   1.132   4.391   5.331
91644SOL     OW76770   2.635   6.653   6.265
91644SOL    HW176771   2.612   6.738   6.228
91644SOL    HW276772   2.606   6.658   6.356
91645SOL     OW76773  10.420   8.436   7.343
91645SOL    HW176774  10.354   8.503   7.329
91645SOL    HW276775  10.503   8.478   7.318
91646SOL     OW76776  13.623  10.442  11.639
91646SOL    HW176777  13.689  10.407  11.580
91646SOL    HW276778  13.596  10.368  11.693
91647SOL     OW76779   7.914   7.094  13.767
91647SOL    HW176780   7.988   7.037  13.791
91647SOL    HW276781   7.857   7.037  13.716
91648SOL     OW76782   6.372  14.777  11.419
91648SOL    HW176783   6.334  14.697  11.381
91648SOL    HW276784   6.365  14.764  11.514
91649SOL     OW76785  13.121   9.766   8.497
91649SOL    HW176786  13.182   9.784   8.568
91649SOL    HW276787  13.041   9.737   8.540
91650SOL     OW76788   9.788  11.517   1.728
91650SOL    HW176789   9.809  11.482   1.815
91650SOL    HW276790   9.821  11.452   1.667
91651SOL     OW76791   0.909   1.355   7.689
91651SOL    HW176792   0.819   1.353   7.721
91651SOL    HW276793   0.962   1.334   7.766
91652SOL     OW76794   6.661  11.334   5.152
91652SOL    HW176795   6.621  11.247   5.156
91652SOL    HW276796   6.632  11.369   5.068
91653SOL     OW76797   4.490  10.087  10.258
91653SOL    HW176798   4.516  10.015  10.315
91653SOL    HW276799   4.394  10.086  10.260
91654SOL     OW76800  14.691   0.061   7.158
91654SOL    HW176801  14.640   0.028   7.084
91654SOL    HW276802  14.780   0.031   7.140
91655SOL     OW76803  10.807  11.387   7.876
91655SOL    HW176804  10.775  11.366   7.788
91655SOL    HW276805  10.729  11.383   7.931
91656SOL     OW76806  10.648   5.771   1.065
91656SOL    HW176807  10.554   5.787   1.054
91656SOL    HW276808  10.661   5.773   1.160
91657SOL     OW76809   2.543   1.982  11.266
91657SOL    HW176810   2.611   1.915  11.270
91657SOL    HW276811   2.540   2.019  11.354
91658SOL     OW76812   4.189  10.521   7.591
91658SOL    HW176813   4.264  10.553   7.641
91658SOL    HW276814   4.223  10.510   7.502
91659SOL     OW76815  14.644   7.335   4.184
91659SOL    HW176816  14.730   7.352   4.222
91659SOL    HW276817  14.655   7.253   4.136
91660SOL     OW76818   9.844   4.596  14.590
91660SOL    HW176819   9.865   4.580  14.682
91660SOL    HW276820   9.927   4.619  14.550
91661SOL     OW76821  14.753  12.407  11.560
91661SOL    HW176822  14.720  12.488  11.597
91661SOL    HW276823  14.729  12.339  11.623
91662SOL     OW76824  10.160  11.377  11.384
91662SOL    HW176825  10.102  11.378  11.460
91662SOL    HW276826  10.106  11.409  11.312
91663SOL     OW76827   5.218  10.728   1.001
91663SOL    HW176828   5.276  10.697   1.071
91663SOL    HW276829   5.202  10.820   1.022
91664SOL     OW76830   2.523  11.063  11.280
91664SOL    HW176831   2.483  11.104  11.203
91664SOL    HW276832   2.536  11.135  11.342
91665SOL     OW76833  10.022  13.432  10.128
91665SOL    HW176834   9.966  13.457  10.201
91665SOL    HW276835  10.105  13.406  10.169
91666SOL     OW76836   9.969   5.279   4.085
91666SOL    HW176837   9.902   5.346   4.100
91666SOL    HW276838   9.978   5.235   4.170
91667SOL     OW76839  14.382   1.842  11.164
91667SOL    HW176840  14.442   1.774  11.195
91667SOL    HW276841  14.439   1.914  11.138
91668SOL     OW76842  14.433   8.010   0.191
91668SOL    HW176843  14.441   8.049   0.278
91668SOL    HW276844  14.395   8.079   0.137
91669SOL     OW76845   7.783  12.745  14.588
91669SOL    HW176846   7.814  12.802  14.518
91669SOL    HW276847   7.689  12.733  14.569
91670SOL     OW76848   1.452  11.591  10.304
91670SOL    HW176849   1.408  11.598  10.220
91670SOL    HW276850   1.525  11.531  10.289
91671SOL     OW76851   5.084  14.239  12.408
91671SOL    HW176852   5.098  14.331  12.384
91671SOL    HW276853   5.047  14.244  12.496
91672SOL     OW76854  12.490  11.066  10.951
91672SOL    HW176855  12.428  10.995  10.932
91672SOL    HW276856  12.576  11.026  10.940
91673SOL     OW76857   4.701   7.779   1.862
91673SOL    HW176858   4.759   7.837   1.912
91673SOL    HW276859   4.694   7.700   1.915
91674SOL     OW76860   0.424   6.719   9.955
91674SOL    HW176861   0.463   6.802   9.927
91674SOL    HW276862   0.455   6.656   9.890
91675SOL     OW76863  10.977   1.636   5.198
91675SOL    HW176864  11.018   1.589   5.270
91675SOL    HW276865  10.963   1.570   5.130
91676SOL     OW76866  13.860   7.691  10.135
91676SOL    HW176867  13.771   7.702  10.169
91676SOL    HW276868  13.889   7.608  10.172
91677SOL     OW76869  11.132   7.375  10.340
91677SOL    HW176870  11.132   7.397  10.247
91677SOL    HW276871  11.076   7.297  10.345
91678SOL     OW76872   7.401   7.709   9.236
91678SOL    HW176873   7.337   7.640   9.252
91678SOL    HW276874   7.431   7.695   9.147
91679SOL     OW76875   2.263   1.721   5.324
91679SOL    HW176876   2.343   1.712   5.273
91679SOL    HW276877   2.236   1.630   5.342
91680SOL     OW76878  11.012   2.455   8.860
91680SOL    HW176879  10.930   2.456   8.810
91680SOL    HW276880  11.014   2.541   8.902
91681SOL     OW76881  12.738   0.476   7.511
91681SOL    HW176882  12.673   0.440   7.571
91681SOL    HW276883  12.693   0.547   7.466
91682SOL     OW76884  12.177  10.751   8.108
91682SOL    HW176885  12.165  10.810   8.182
91682SOL    HW276886  12.092  10.707   8.098
91683SOL     OW76887   0.742   3.892   0.645
91683SOL    HW176888   0.801   3.824   0.678
91683SOL    HW276889   0.761   3.898   0.551
91684SOL     OW76890   6.160   8.695  12.150
91684SOL    HW176891   6.126   8.707  12.061
91684SOL    HW276892   6.102   8.629  12.189
91685SOL     OW76893  11.635  14.755   0.136
91685SOL    HW176894  11.606  14.845   0.150
91685SOL    HW276895  11.615  14.738   0.044
91686SOL     OW76896   2.983   0.482   6.119
91686SOL    HW176897   2.989   0.465   6.213
91686SOL    HW276898   3.025   0.406   6.078
91687SOL     OW76899  12.820  13.531   8.742
91687SOL    HW176900  12.868  13.496   8.666
91687SOL    HW276901  12.748  13.581   8.703
91688SOL     OW76902   1.125  14.007   8.359
91688SOL    HW176903   1.053  13.958   8.319
91688SOL    HW276904   1.198  13.996   8.299
91689SOL     OW76905  12.109   1.105   2.833
91689SOL    HW176906  12.154   1.030   2.795
91689SOL    HW276907  12.173   1.176   2.830
91690SOL     OW76908  14.674   0.244   2.495
91690SOL    HW176909  14.656   0.155   2.463
91690SOL    HW276910  14.745   0.233   2.558
91691SOL     OW76911   4.113  13.631   1.456
91691SOL    HW176912   4.167  13.610   1.380
91691SOL    HW276913   4.029  13.588   1.438
91692SOL     OW76914  13.512   7.629   2.048
91692SOL    HW176915  13.502   7.680   2.128
91692SOL    HW276916  13.473   7.544   2.068
91693SOL     OW76917   7.789  13.250   5.405
91693SOL    HW176918   7.858  13.270   5.468
91693SOL    HW276919   7.833  13.200   5.336
91694SOL     OW76920   2.882   1.533   8.334
91694SOL    HW176921   2.918   1.450   8.304
91694SOL    HW276922   2.789   1.515   8.350
91695SOL     OW76923   9.333  10.424  10.617
91695SOL    HW176924   9.365  10.364  10.684
91695SOL    HW276925   9.372  10.509  10.640
91696SOL     OW76926   4.517   4.095  12.634
91696SOL    HW176927   4.588   4.125  12.691
91696SOL    HW276928   4.447   4.158  12.647
91697SOL     OW76929  13.017   3.202   3.723
91697SOL    HW176930  12.981   3.150   3.651
91697SOL    HW276931  12.963   3.180   3.799
91698SOL     OW76932  11.573  12.003   3.744
91698SOL    HW176933  11.534  11.937   3.801
91698SOL    HW276934  11.660  12.019   3.781
91699SOL     OW76935  12.699  14.771   2.558
91699SOL    HW176936  12.777  14.823   2.578
91699SOL    HW276937  12.709  14.748   2.465
91700SOL     OW76938   2.715   7.997   5.595
91700SOL    HW176939   2.656   7.961   5.529
91700SOL    HW276940   2.658   8.030   5.664
91701SOL     OW76941  11.621   4.134   5.810
91701SOL    HW176942  11.629   4.144   5.905
91701SOL    HW276943  11.708   4.158   5.776
91702SOL     OW76944   0.504   0.034  13.054
91702SOL    HW176945   0.496  14.871  12.968
91702SOL    HW276946   0.434  14.874  13.106
91703SOL     OW76947   3.101   3.246  11.354
91703SOL    HW176948   3.132   3.322  11.304
91703SOL    HW276949   3.048   3.197  11.291
91704SOL     OW76950   5.065  13.641  10.292
91704SOL    HW176951   5.101  13.645  10.381
91704SOL    HW276952   5.082  13.551  10.263
91705SOL     OW76953   5.354   8.028  13.137
91705SOL    HW176954   5.422   7.981  13.184
91705SOL    HW276955   5.302   7.959  13.095
91706SOL     OW76956  13.506   0.499   7.020
91706SOL    HW176957  13.509   0.474   7.113
91706SOL    HW276958  13.564   0.575   7.015
91707SOL     OW76959   6.545  10.320   0.415
91707SOL    HW176960   6.558  10.328   0.320
91707SOL    HW276961   6.611  10.378   0.453
91708SOL     OW76962   3.109   9.648  11.568
91708SOL    HW176963   3.151   9.694  11.640
91708SOL    HW276964   3.181   9.609  11.519
91709SOL     OW76965   3.654   3.129   6.245
91709SOL    HW176966   3.669   3.042   6.208
91709SOL    HW276967   3.708   3.130   6.325
91710SOL     OW76968   8.252   2.736  13.832
91710SOL    HW176969   8.177   2.688  13.796
91710SOL    HW276970   8.270   2.804  13.768
91711SOL     OW76971  11.432   8.345   5.129
91711SOL    HW176972  11.490   8.415   5.158
91711SOL    HW276973  11.361   8.345   5.192
91712SOL     OW76974   7.221   8.530  12.000
91712SOL    HW176975   7.279   8.523  11.924
91712SOL    HW276976   7.280   8.536  12.075
91713SOL     OW76977  13.062   0.938  11.115
91713SOL    HW176978  12.982   0.977  11.078
91713SOL    HW276979  13.133   0.993  11.082
91714SOL     OW76980  14.725   9.107  14.249
91714SOL    HW176981  14.640   9.065  14.263
91714SOL    HW276982  14.704   9.197  14.225
91715SOL     OW76983   1.376   0.446  13.780
91715SOL    HW176984   1.306   0.402  13.828
91715SOL    HW276985   1.436   0.376  13.756
91716SOL     OW76986  10.625  10.861   3.251
91716SOL    HW176987  10.619  10.947   3.292
91716SOL    HW276988  10.618  10.799   3.324
91717SOL     OW76989   6.823   8.892   3.018
91717SOL    HW176990   6.743   8.928   2.980
91717SOL    HW276991   6.878   8.968   3.036
91718SOL     OW76992   0.032   1.909  10.630
91718SOL    HW176993   0.071   1.872  10.551
91718SOL    HW276994  14.818   1.889  10.623
91719SOL     OW76995   0.720   3.184   5.668
91719SOL    HW176996   0.655   3.142   5.725
91719SOL    HW276997   0.804   3.148   5.697
91720SOL     OW76998   7.714   9.836  14.209
91720SOL    HW176999   7.731   9.745  14.235
91720SOL    HW277000   7.794   9.882  14.234
91721SOL     OW77001   7.511   4.914  10.893
91721SOL    HW177002   7.466   4.925  10.809
91721SOL    HW277003   7.556   4.998  10.907
91722SOL     OW77004   3.145   1.153  14.368
91722SOL    HW177005   3.195   1.147  14.286
91722SOL    HW277006   3.195   1.100  14.430
91723SOL     OW77007   7.665  12.654  11.312
91723SOL    HW177008   7.639  12.571  11.272
91723SOL    HW277009   7.756  12.666  11.285
91724SOL     OW77010  13.429  14.510   7.077
91724SOL    HW177011  13.517  14.531   7.047
91724SOL    HW277012  13.377  14.588   7.058
91725SOL     OW77013   7.012  11.280  12.965
91725SOL    HW177014   7.020  11.375  12.975
91725SOL    HW277015   7.092  11.245  13.005
91726SOL     OW77016   4.268   8.379  13.668
91726SOL    HW177017   4.189   8.412  13.627
91726SOL    HW277018   4.336   8.441  13.642
91727SOL     OW77019   8.554  13.947   3.181
91727SOL    HW177020   8.649  13.960   3.177
91727SOL    HW277021   8.517  14.029   3.148
91728SOL     OW77022   1.595   2.237  13.124
91728SOL    HW177023   1.618   2.211  13.213
91728SOL    HW277024   1.625   2.164  13.070
91729SOL     OW77025  11.579   5.034   0.466
91729SOL    HW177026  11.661   4.986   0.452
91729SOL    HW277027  11.515   4.967   0.487
91730SOL     OW77028   4.289   8.201   2.583
91730SOL    HW177029   4.281   8.116   2.541
91730SOL    HW277030   4.383   8.221   2.579
91731SOL     OW77031   5.756   0.053   2.921
91731SOL    HW177032   5.703   0.035   2.844
91731SOL    HW277033   5.836   0.092   2.887
91732SOL     OW77034   8.611   8.533   6.443
91732SOL    HW177035   8.612   8.628   6.459
91732SOL    HW277036   8.678   8.519   6.377
91733SOL     OW77037   3.675  10.310   0.438
91733SOL    HW177038   3.637  10.228   0.469
91733SOL    HW277039   3.724  10.344   0.513
91734SOL     OW77040   1.317   0.663   5.295
91734SOL    HW177041   1.329   0.682   5.201
91734SOL    HW277042   1.397   0.697   5.336
91735SOL     OW77043  12.781  13.286   5.254
91735SOL    HW177044  12.803  13.193   5.254
91735SOL    HW277045  12.693  13.290   5.217
91736SOL     OW77046   0.099   4.218   9.932
91736SOL    HW177047   0.163   4.233   9.862
91736SOL    HW277048   0.124   4.134   9.970
91737SOL     OW77049  12.432  14.770   5.668
91737SOL    HW177050  12.391  14.806   5.589
91737SOL    HW277051  12.526  14.786   5.655
91738SOL     OW77052   9.619   2.717   8.105
91738SOL    HW177053   9.627   2.812   8.111
91738SOL    HW277054   9.709   2.685   8.107
91739SOL     OW77055   8.285  12.138  11.068
91739SOL    HW177056   8.221  12.077  11.106
91739SOL    HW277057   8.310  12.195  11.141
91740SOL     OW77058  11.709   7.180  14.872
91740SOL    HW177059  11.761   7.236   0.050
91740SOL    HW277060  11.637   7.149   0.048
91741SOL     OW77061   9.638   6.221  11.141
91741SOL    HW177062   9.693   6.265  11.075
91741SOL    HW277063   9.570   6.285  11.162
91742SOL     OW77064   6.818   3.588   0.298
91742SOL    HW177065   6.754   3.640   0.249
91742SOL    HW277066   6.769   3.510   0.326
91743SOL     OW77067   6.356  10.378  14.339
91743SOL    HW177068   6.378  10.460  14.383
91743SOL    HW277069   6.263  10.387  14.317
91744SOL     OW77070   9.132  14.067   5.572
91744SOL    HW177071   9.140  13.973   5.560
91744SOL    HW277072   9.041  14.081   5.598
91745SOL     OW77073   2.811  13.301   1.667
91745SOL    HW177074   2.747  13.315   1.737
91745SOL    HW277075   2.868  13.378   1.671
91746SOL     OW77076  14.025  14.173  12.458
91746SOL    HW177077  14.028  14.171  12.362
91746SOL    HW277078  13.987  14.258  12.479
91747SOL     OW77079   6.418   6.575   2.786
91747SOL    HW177080   6.464   6.510   2.732
91747SOL    HW277081   6.483   6.644   2.800
91748SOL     OW77082   8.202  12.307   7.949
91748SOL    HW177083   8.285  12.353   7.943
91748SOL    HW277084   8.146  12.348   7.883
91749SOL     OW77085   1.209  11.082   9.350
91749SOL    HW177086   1.229  11.007   9.406
91749SOL    HW277087   1.266  11.151   9.382
91750SOL     OW77088   0.256  14.226  12.477
91750SOL    HW177089   0.248  14.198  12.568
91750SOL    HW277090   0.239  14.147  12.426
91751SOL     OW77091   8.396   6.477   3.202
91751SOL    HW177092   8.474   6.506   3.248
91751SOL    HW277093   8.427   6.452   3.115
91752SOL     OW77094   5.302   3.054  11.131
91752SOL    HW177095   5.367   3.033  11.063
91752SOL    HW277096   5.344   3.025  11.212
91753SOL     OW77097   5.115   3.661  14.861
91753SOL    HW177098   5.082   3.572  14.846
91753SOL    HW277099   5.050   3.701   0.039
91754SOL     OW77100   0.150  13.522  11.735
91754SOL    HW177101   0.090  13.581  11.688
91754SOL    HW277102   0.237  13.550  11.708
91755SOL     OW77103   6.837   8.635   8.335
91755SOL    HW177104   6.802   8.551   8.366
91755SOL    HW277105   6.760   8.691   8.326
91756SOL     OW77106   9.041   8.004  13.217
91756SOL    HW177107   9.064   8.033  13.305
91756SOL    HW277108   8.975   8.066  13.188
91757SOL     OW77109   8.987   5.984   9.692
91757SOL    HW177110   8.957   6.028   9.772
91757SOL    HW277111   8.958   6.042   9.621
91758SOL     OW77112   8.750  10.994   8.177
91758SOL    HW177113   8.816  11.009   8.109
91758SOL    HW277114   8.670  11.033   8.141
91759SOL     OW77115   7.221   9.033  12.467
91759SOL    HW177116   7.237   9.122  12.498
91759SOL    HW277117   7.182   8.987  12.541
91760SOL     OW77118   4.999  13.014  10.048
91760SOL    HW177119   5.062  13.025  10.119
91760SOL    HW277120   4.931  12.957  10.084
91761SOL     OW77121   6.823   6.728  11.275
91761SOL    HW177122   6.747   6.711  11.219
91761SOL    HW277123   6.832   6.823  11.276
91762SOL     OW77124   0.536  14.498  12.078
91762SOL    HW177125   0.577  14.561  12.137
91762SOL    HW277126   0.443  14.522  12.079
91763SOL     OW77127   6.557  12.354   1.238
91763SOL    HW177128   6.557  12.347   1.333
91763SOL    HW277129   6.578  12.265   1.207
91764SOL     OW77130   6.345   9.985  12.125
91764SOL    HW177131   6.339  10.075  12.159
91764SOL    HW277132   6.377   9.995  12.036
91765SOL     OW77133   8.060   6.033   8.011
91765SOL    HW177134   8.146   6.010   8.046
91765SOL    HW277135   8.007   6.050   8.089
91766SOL     OW77136  14.871   3.600  11.404
91766SOL    HW177137  14.792   3.651  11.389
91766SOL    HW277138   0.048   3.658  11.456
91767SOL     OW77139   2.527   8.186  11.439
91767SOL    HW177140   2.597   8.229  11.489
91767SOL    HW277141   2.463   8.159  11.504
91768SOL     OW77142  14.588   9.670   0.974
91768SOL    HW177143  14.599   9.670   0.879
91768SOL    HW277144  14.499   9.637   0.988
91769SOL     OW77145  12.776  13.702  13.855
91769SOL    HW177146  12.743  13.722  13.767
91769SOL    HW277147  12.832  13.777  13.877
91770SOL     OW77148   5.570  10.137   4.841
91770SOL    HW177149   5.609  10.122   4.927
91770SOL    HW277150   5.577  10.052   4.797
91771SOL     OW77151   7.054  13.249   9.113
91771SOL    HW177152   7.098  13.310   9.053
91771SOL    HW277153   7.125  13.194   9.146
91772SOL     OW77154  13.421   0.050   8.112
91772SOL    HW177155  13.515   0.066   8.118
91772SOL    HW277156  13.397   0.079   8.024
91773SOL     OW77157   7.898   8.989   3.356
91773SOL    HW177158   7.810   9.026   3.346
91773SOL    HW277159   7.901   8.957   3.447
91774SOL     OW77160  10.395   4.313  12.079
91774SOL    HW177161  10.303   4.286  12.082
91774SOL    HW277162  10.392   4.408  12.092
91775SOL     OW77163   6.431  14.769   7.139
91775SOL    HW177164   6.367  14.822   7.092
91775SOL    HW277165   6.413  14.679   7.112
91776SOL     OW77166   2.814   4.774   5.748
91776SOL    HW177167   2.881   4.757   5.813
91776SOL    HW277168   2.752   4.702   5.757
91777SOL     OW77169   4.768  12.210   4.921
91777SOL    HW177170   4.695  12.241   4.974
91777SOL    HW277171   4.732  12.137   4.871
91778SOL     OW77172   8.649   5.611  14.363
91778SOL    HW177173   8.691   5.578  14.442
91778SOL    HW277174   8.650   5.706  14.373
91779SOL     OW77175  10.169   7.797   0.169
91779SOL    HW177176  10.156   7.706   0.143
91779SOL    HW277177  10.093   7.843   0.133
91780SOL     OW77178   9.548   6.323   6.597
91780SOL    HW177179   9.480   6.337   6.531
91780SOL    HW277180   9.504   6.337   6.680
91781SOL     OW77181   0.241   2.177   1.814
91781SOL    HW177182   0.253   2.169   1.909
91781SOL    HW277183   0.179   2.249   1.804
91782SOL     OW77184   6.313   2.482   8.860
91782SOL    HW177185   6.329   2.408   8.801
91782SOL    HW277186   6.224   2.510   8.839
91783SOL     OW77187  12.194   9.615   1.671
91783SOL    HW177188  12.277   9.601   1.625
91783SOL    HW277189  12.172   9.706   1.653
91784SOL     OW77190   7.822   6.856   3.248
91784SOL    HW177191   7.729   6.840   3.233
91784SOL    HW277192   7.828   6.877   3.341
91785SOL     OW77193   2.139   5.189   4.841
91785SOL    HW177194   2.073   5.239   4.793
91785SOL    HW277195   2.127   5.215   4.932
91786SOL     OW77196  13.140   0.459   5.879
91786SOL    HW177197  13.124   0.426   5.790
91786SOL    HW277198  13.112   0.388   5.936
91787SOL     OW77199  10.264   3.448  14.777
91787SOL    HW177200  10.276   3.355  14.800
91787SOL    HW277201  10.314   3.495  14.843
91788SOL     OW77202   3.277   0.785   0.380
91788SOL    HW177203   3.363   0.768   0.341
91788SOL    HW277204   3.261   0.711   0.438
91789SOL     OW77205   4.639   0.267  11.498
91789SOL    HW177206   4.585   0.244  11.422
91789SOL    HW277207   4.720   0.217  11.487
91790SOL     OW77208   1.507   1.727  10.034
91790SOL    HW177209   1.588   1.708  10.081
91790SOL    HW277210   1.487   1.646   9.986
91791SOL     OW77211  14.552   3.749   0.274
91791SOL    HW177212  14.462   3.718   0.279
91791SOL    HW277213  14.565   3.772   0.182
91792SOL     OW77214  11.156   5.011   7.418
91792SOL    HW177215  11.203   5.091   7.392
91792SOL    HW277216  11.074   5.015   7.369
91793SOL     OW77217   6.425   9.104   4.742
91793SOL    HW177218   6.489   9.053   4.792
91793SOL    HW277219   6.459   9.193   4.743
91794SOL     OW77220  14.342  11.035  12.866
91794SOL    HW177221  14.276  10.980  12.906
91794SOL    HW277222  14.425  10.992  12.887
91795SOL     OW77223   0.393   9.828   5.944
91795SOL    HW177224   0.448   9.857   5.871
91795SOL    HW277225   0.322   9.893   5.947
91796SOL     OW77226  10.462  14.859   2.001
91796SOL    HW177227  10.511   0.060   2.014
91796SOL    HW277228  10.391  14.863   2.066
91797SOL     OW77229   0.624  11.997   9.691
91797SOL    HW177230   0.661  11.944   9.762
91797SOL    HW277231   0.641  12.088   9.718
91798SOL     OW77232   5.130   7.945  13.450
91798SOL    HW177233   5.061   8.005  13.476
91798SOL    HW277234   5.181   7.930  13.530
91799SOL     OW77235   2.876   9.912  10.419
91799SOL    HW177236   2.883   9.839  10.358
91799SOL    HW277237   2.924   9.984  10.378
91800SOL     OW77238   5.353   6.948   5.778
91800SOL    HW177239   5.324   7.038   5.791
91800SOL    HW277240   5.400   6.949   5.695
91801SOL     OW77241  13.099   5.388  11.098
91801SOL    HW177242  13.155   5.456  11.134
91801SOL    HW277243  13.023   5.386  11.157
91802SOL     OW77244   4.134  14.175  10.475
91802SOL    HW177245   4.134  14.159  10.570
91802SOL    HW277246   4.085  14.101  10.439
91803SOL     OW77247   5.138   6.690   9.199
91803SOL    HW177248   5.157   6.737   9.280
91803SOL    HW277249   5.155   6.753   9.129
91804SOL     OW77250   0.451  11.317   0.417
91804SOL    HW177251   0.460  11.410   0.437
91804SOL    HW277252   0.456  11.273   0.502
91805SOL     OW77253   7.868   6.624   6.907
91805SOL    HW177254   7.878   6.711   6.945
91805SOL    HW277255   7.944   6.575   6.939
91806SOL     OW77256  14.318   1.268  10.927
91806SOL    HW177257  14.228   1.276  10.958
91806SOL    HW277258  14.357   1.201  10.983
91807SOL     OW77259   8.226   8.692   7.791
91807SOL    HW177260   8.237   8.738   7.874
91807SOL    HW277261   8.265   8.606   7.807
91808SOL     OW77262   0.468   4.429   3.603
91808SOL    HW177263   0.410   4.481   3.659
91808SOL    HW277264   0.491   4.353   3.656
91809SOL     OW77265   8.546   9.929  12.833
91809SOL    HW177266   8.593   9.976  12.902
91809SOL    HW277267   8.603   9.855  12.812
91810SOL     OW77268   9.060   8.153   9.466
91810SOL    HW177269   8.972   8.190   9.459
91810SOL    HW277270   9.054   8.069   9.421
91811SOL     OW77271   3.869  14.047   6.082
91811SOL    HW177272   3.890  14.013   6.169
91811SOL    HW277273   3.807  13.984   6.046
91812SOL     OW77274  12.588   8.724   9.635
91812SOL    HW177275  12.555   8.639   9.605
91812SOL    HW277276  12.681   8.723   9.612
91813SOL     OW77277   8.217   5.737   0.765
91813SOL    HW177278   8.264   5.694   0.694
91813SOL    HW277279   8.180   5.816   0.725
91814SOL     OW77280  11.469   9.393   6.355
91814SOL    HW177281  11.461   9.351   6.269
91814SOL    HW277282  11.430   9.480   6.343
91815SOL     OW77283   2.094  10.857   0.420
91815SOL    HW177284   2.060  10.915   0.489
91815SOL    HW277285   2.034  10.870   0.346
91816SOL     OW77286  10.778   4.157  14.222
91816SOL    HW177287  10.689   4.169  14.252
91816SOL    HW277288  10.802   4.068  14.251
91817SOL     OW77289   7.077  10.579   2.386
91817SOL    HW177290   7.002  10.528   2.354
91817SOL    HW277291   7.038  10.646   2.443
91818SOL     OW77292   6.494   6.293  14.822
91818SOL    HW177293   6.583   6.260  14.820
91818SOL    HW277294   6.474   6.305   0.036
91819SOL     OW77295   7.190   8.925  13.588
91819SOL    HW177296   7.259   8.986  13.616
91819SOL    HW277297   7.221   8.839  13.615
91820SOL     OW77298   0.558   7.394   0.926
91820SOL    HW177299   0.616   7.405   1.001
91820SOL    HW277300   0.471   7.380   0.965
91821SOL     OW77301  13.200   5.610   9.763
91821SOL    HW177302  13.153   5.676   9.712
91821SOL    HW277303  13.274   5.584   9.708
91822SOL     OW77304   0.312   0.866   4.231
91822SOL    HW177305   0.270   0.796   4.280
91822SOL    HW277306   0.286   0.946   4.276
91823SOL     OW77307  11.768   3.731   3.728
91823SOL    HW177308  11.838   3.791   3.754
91823SOL    HW277309  11.707   3.785   3.677
91824SOL     OW77310  14.560   1.963   4.006
91824SOL    HW177311  14.535   2.026   4.074
91824SOL    HW277312  14.648   1.934   4.030
91825SOL     OW77313  10.565  13.910  12.431
91825SOL    HW177314  10.620  13.910  12.510
91825SOL    HW277315  10.578  13.823  12.393
91826SOL     OW77316  13.426   0.011  11.369
91826SOL    HW177317  13.389   0.066  11.300
91826SOL    HW277318  13.519   0.031  11.368
91827SOL     OW77319   8.306  12.148   5.819
91827SOL    HW177320   8.385  12.133   5.871
91827SOL    HW277321   8.235  12.151   5.883
91828SOL     OW77322   1.930   4.490   6.162
91828SOL    HW177323   1.871   4.521   6.231
91828SOL    HW277324   1.907   4.544   6.086
91829SOL     OW77325   7.310   0.949  13.930
91829SOL    HW177326   7.350   0.867  13.956
91829SOL    HW277327   7.370   1.017  13.961
91830SOL     OW77328   2.296   1.747   7.739
91830SOL    HW177329   2.355   1.721   7.810
91830SOL    HW277330   2.350   1.740   7.660
91831SOL     OW77331   9.324   4.033  13.516
91831SOL    HW177332   9.257   4.014  13.451
91831SOL    HW277333   9.400   4.061  13.465
91832SOL     OW77334   4.694   4.223   7.620
91832SOL    HW177335   4.663   4.294   7.564
91832SOL    HW277336   4.734   4.268   7.695
91833SOL     OW77337   0.231   5.859   1.102
91833SOL    HW177338   0.312   5.817   1.133
91833SOL    HW277339   0.244   5.870   1.008
91834SOL     OW77340   5.897  14.277   4.428
91834SOL    HW177341   5.935  14.313   4.348
91834SOL    HW277342   5.825  14.337   4.449
91835SOL     OW77343  13.744   6.622   9.632
91835SOL    HW177344  13.689   6.688   9.588
91835SOL    HW277345  13.687   6.546   9.642
91836SOL     OW77346   5.544   9.178   0.472
91836SOL    HW177347   5.633   9.213   0.477
91836SOL    HW277348   5.490   9.254   0.451
91837SOL     OW77349   2.486  14.370  10.862
91837SOL    HW177350   2.470  14.463  10.881
91837SOL    HW277351   2.400  14.329  10.869
91838SOL     OW77352   2.068  13.017  10.763
91838SOL    HW177353   2.039  12.941  10.712
91838SOL    HW277354   2.159  13.030  10.737
91839SOL     OW77355  13.991   9.653   4.660
91839SOL    HW177356  14.059   9.587   4.677
91839SOL    HW277357  14.026   9.733   4.700
91840SOL     OW77358  11.613   6.322  14.332
91840SOL    HW177359  11.629   6.411  14.300
91840SOL    HW277360  11.547   6.287  14.273
91841SOL     OW77361  14.325   5.439   0.034
91841SOL    HW177362  14.405   5.491   0.035
91841SOL    HW277363  14.341   5.371  14.849
91842SOL     OW77364  14.863   3.062   4.508
91842SOL    HW177365   0.022   3.042   4.593
91842SOL    HW277366  14.818   2.982   4.482
91843SOL     OW77367  12.554   7.057   6.021
91843SOL    HW177368  12.590   7.020   6.102
91843SOL    HW277369  12.510   6.984   5.979
91844SOL     OW77370   9.796   0.468  10.918
91844SOL    HW177371   9.770   0.384  10.954
91844SOL    HW277372   9.729   0.488  10.852
91845SOL     OW77373   2.674  11.101   3.876
91845SOL    HW177374   2.605  11.035   3.871
91845SOL    HW277375   2.645  11.163   3.942
91846SOL     OW77376   1.438   4.118   8.565
91846SOL    HW177377   1.435   4.211   8.590
91846SOL    HW277378   1.460   4.119   8.472
91847SOL     OW77379   9.399   3.115   9.098
91847SOL    HW177380   9.482   3.155   9.069
91847SOL    HW277381   9.349   3.188   9.135
91848SOL     OW77382   6.447   8.274   8.406
91848SOL    HW177383   6.425   8.188   8.370
91848SOL    HW277384   6.399   8.336   8.352
91849SOL     OW77385  12.516  10.991  12.715
91849SOL    HW177386  12.514  11.000  12.619
91849SOL    HW277387  12.560  10.908  12.730
91850SOL     OW77388   5.516   1.791   1.543
91850SOL    HW177389   5.572   1.846   1.489
91850SOL    HW277390   5.427   1.818   1.520
91851SOL     OW77391   7.596  13.005   4.635
91851SOL    HW177392   7.682  12.962   4.633
91851SOL    HW277393   7.584  13.032   4.726
91852SOL     OW77394  13.266   3.078  12.844
91852SOL    HW177395  13.236   3.124  12.922
91852SOL    HW277396  13.251   3.139  12.772
91853SOL     OW77397   3.443  10.934  10.215
91853SOL    HW177398   3.445  10.853  10.162
91853SOL    HW277399   3.351  10.944  10.238
91854SOL     OW77400   4.098   1.807  11.025
91854SOL    HW177401   4.161   1.808  10.953
91854SOL    HW277402   4.151   1.796  11.104
91855SOL     OW77403   6.233  12.651   5.286
91855SOL    HW177404   6.265  12.652   5.196
91855SOL    HW277405   6.138  12.645   5.278
91856SOL     OW77406   9.317  11.487   6.857
91856SOL    HW177407   9.399  11.448   6.885
91856SOL    HW277408   9.250  11.446   6.912
91857SOL     OW77409   0.503  11.898   9.997
91857SOL    HW177410   0.493  11.927  10.087
91857SOL    HW277411   0.448  11.958   9.946
91858SOL     OW77412   3.027   0.125   5.135
91858SOL    HW177413   3.087   0.117   5.209
91858SOL    HW277414   3.083   0.117   5.058
91859SOL     OW77415  11.858  11.181   8.859
91859SOL    HW177416  11.838  11.274   8.856
91859SOL    HW277417  11.813  11.149   8.937
91860SOL     OW77418   0.595   4.535  10.034
91860SOL    HW177419   0.564   4.613   9.988
91860SOL    HW277420   0.627   4.568  10.118
91861SOL     OW77421   2.696   3.969   4.035
91861SOL    HW177422   2.693   4.057   4.073
91861SOL    HW277423   2.730   3.914   4.105
91862SOL     OW77424   4.385  12.291  11.200
91862SOL    HW177425   4.466  12.322  11.238
91862SOL    HW277426   4.318  12.308  11.267
91863SOL     OW77427   6.175   6.398   7.839
91863SOL    HW177428   6.228   6.431   7.912
91863SOL    HW277429   6.089   6.439   7.851
91864SOL     OW77430   7.238   1.799  14.624
91864SOL    HW177431   7.198   1.768  14.543
91864SOL    HW277432   7.269   1.720  14.668
91865SOL     OW77433  12.149   0.944  11.687
91865SOL    HW177434  12.189   1.001  11.753
91865SOL    HW277435  12.167   0.986  11.604
91866SOL     OW77436  14.530   6.960   6.895
91866SOL    HW177437  14.586   6.983   6.821
91866SOL    HW277438  14.580   6.894   6.943
91867SOL     OW77439  14.256  14.832  10.464
91867SOL    HW177440  14.216  14.879  10.537
91867SOL    HW277441  14.270   0.019  10.397
91868SOL     OW77442   2.784   6.658   7.198
91868SOL    HW177443   2.829   6.658   7.283
91868SOL    HW277444   2.836   6.599   7.144
91869SOL     OW77445  12.479  13.206  10.920
91869SOL    HW177446  12.557  13.228  10.972
91869SOL    HW277447  12.411  13.264  10.954
91870SOL     OW77448  10.175  11.028  10.679
91870SOL    HW177449  10.132  11.036  10.764
91870SOL    HW277450  10.143  11.103  10.629
91871SOL     OW77451   7.160  11.625   1.106
91871SOL    HW177452   7.192  11.713   1.125
91871SOL    HW277453   7.194  11.571   1.178
91872SOL     OW77454  14.099   6.642   7.582
91872SOL    HW177455  14.164   6.672   7.518
91872SOL    HW277456  14.031   6.708   7.580
91873SOL     OW77457   2.481  10.939   5.252
91873SOL    HW177458   2.474  10.969   5.161
91873SOL    HW277459   2.574  10.953   5.274
91874SOL     OW77460   8.799  13.413  12.349
91874SOL    HW177461   8.816  13.374  12.263
91874SOL    HW277462   8.704  13.405  12.361
91875SOL     OW77463  12.005   3.701   9.015
91875SOL    HW177464  12.085   3.752   9.033
91875SOL    HW277465  12.021   3.660   8.930
91876SOL     OW77466  11.852   8.406   3.762
91876SOL    HW177467  11.947   8.415   3.771
91876SOL    HW277468  11.841   8.329   3.705
91877SOL     OW77469  12.917   9.645  11.085
91877SOL    HW177470  12.947   9.711  11.022
91877SOL    HW277471  12.852   9.690  11.138
91878SOL     OW77472   0.277   5.934  10.698
91878SOL    HW177473   0.183   5.917  10.692
91878SOL    HW277474   0.300   5.910  10.788
91879SOL     OW77475  11.462  13.328   6.022
91879SOL    HW177476  11.405  13.283   6.085
91879SOL    HW277477  11.441  13.288   5.938
91880SOL     OW77478   8.952  10.706   8.643
91880SOL    HW177479   9.045  10.718   8.665
91880SOL    HW277480   8.935  10.773   8.577
91881SOL     OW77481   6.332  13.614   7.603
91881SOL    HW177482   6.303  13.547   7.540
91881SOL    HW277483   6.255  13.629   7.658
91882SOL     OW77484   7.409   6.316  12.653
91882SOL    HW177485   7.319   6.319  12.623
91882SOL    HW277486   7.423   6.224  12.678
91883SOL     OW77487   9.292  10.589   6.466
91883SOL    HW177488   9.296  10.624   6.554
91883SOL    HW277489   9.365  10.526   6.461
91884SOL     OW77490   8.009   5.654   9.549
91884SOL    HW177491   7.916   5.663   9.570
91884SOL    HW277492   8.036   5.743   9.527
91885SOL     OW77493   7.412   3.645   4.026
91885SOL    HW177494   7.478   3.609   4.086
91885SOL    HW277495   7.461   3.707   3.972
91886SOL     OW77496  12.459   7.204   1.660
91886SOL    HW177497  12.494   7.259   1.730
91886SOL    HW277498  12.501   7.119   1.672
91887SOL     OW77499   1.442  12.846   9.431
91887SOL    HW177500   1.348  12.864   9.421
91887SOL    HW277501   1.481  12.933   9.444
91888SOL     OW77502   9.071   2.392   5.884
91888SOL    HW177503   9.112   2.313   5.920
91888SOL    HW277504   9.052   2.370   5.793
91889SOL     OW77505   9.113  10.209   7.134
91889SOL    HW177506   9.107  10.278   7.201
91889SOL    HW277507   9.206  10.207   7.110
91890SOL     OW77508   8.827   8.506   3.411
91890SOL    HW177509   8.764   8.518   3.339
91890SOL    HW277510   8.792   8.559   3.483
91891SOL     OW77511  11.381   2.044   8.749
91891SOL    HW177512  11.469   2.065   8.717
91891SOL    HW277513  11.365   2.108   8.818
91892SOL     OW77514  11.616   5.441   0.159
91892SOL    HW177515  11.657   5.457   0.244
91892SOL    HW277516  11.522   5.446   0.176
91893SOL     OW77517   2.018  13.243   4.380
91893SOL    HW177518   2.082  13.188   4.424
91893SOL    HW277519   2.009  13.204   4.293
91894SOL     OW77520  10.755  11.392   1.247
91894SOL    HW177521  10.804  11.309   1.240
91894SOL    HW277522  10.749  11.408   1.341
91895SOL     OW77523  13.754  14.291  10.861
91895SOL    HW177524  13.702  14.367  10.836
91895SOL    HW277525  13.769  14.302  10.955
91896SOL     OW77526   0.493  14.349   3.828
91896SOL    HW177527   0.458  14.302   3.753
91896SOL    HW277528   0.449  14.434   3.827
91897SOL     OW77529  13.779  10.571   7.804
91897SOL    HW177530  13.715  10.641   7.818
91897SOL    HW277531  13.860  10.604   7.843
91898SOL     OW77532  12.396   4.490  11.345
91898SOL    HW177533  12.487   4.463  11.360
91898SOL    HW277534  12.388   4.496  11.250
91899SOL     OW77535  13.991   7.134   3.623
91899SOL    HW177536  13.973   7.188   3.546
91899SOL    HW277537  13.950   7.182   3.696
91900SOL     OW77538  10.576   7.470   2.191
91900SOL    HW177539  10.542   7.385   2.160
91900SOL    HW277540  10.547   7.532   2.124
91901SOL     OW77541   8.958  11.739   4.065
91901SOL    HW177542   8.867  11.724   4.039
91901SOL    HW277543   8.974  11.831   4.043
91902SOL     OW77544  10.790  12.973   8.596
91902SOL    HW177545  10.799  13.006   8.685
91902SOL    HW277546  10.764  13.049   8.544
91903SOL     OW77547   6.823   1.644   4.008
91903SOL    HW177548   6.908   1.640   4.051
91903SOL    HW277549   6.843   1.629   3.915
91904SOL     OW77550  14.147   2.942   8.680
91904SOL    HW177551  14.125   2.899   8.762
91904SOL    HW277552  14.080   3.010   8.669
91905SOL     OW77553  10.245   7.159   6.993
91905SOL    HW177554  10.269   7.251   7.005
91905SOL    HW277555  10.185   7.140   7.064
91906SOL     OW77556   7.988   2.487   4.553
91906SOL    HW177557   7.992   2.561   4.493
91906SOL    HW277558   8.076   2.448   4.548
91907SOL     OW77559   6.882   0.496   5.220
91907SOL    HW177560   6.872   0.464   5.309
91907SOL    HW277561   6.870   0.591   5.227
91908SOL     OW77562  11.052   9.960  10.224
91908SOL    HW177563  11.094   9.953  10.309
91908SOL    HW277564  11.114   9.921  10.163
91909SOL     OW77565   9.543   2.015   3.049
91909SOL    HW177566   9.514   1.999   2.959
91909SOL    HW277567   9.546   1.928   3.088
91910SOL     OW77568   0.864   3.055  14.611
91910SOL    HW177569   0.929   2.985  14.606
91910SOL    HW277570   0.829   3.048  14.700
91911SOL     OW77571   9.271   6.853   3.901
91911SOL    HW177572   9.296   6.800   3.976
91911SOL    HW277573   9.353   6.897   3.874
91912SOL     OW77574   8.918   3.206  10.298
91912SOL    HW177575   9.013   3.211  10.306
91912SOL    HW277576   8.885   3.279  10.350
91913SOL     OW77577  11.434   3.170   9.165
91913SOL    HW177578  11.509   3.178   9.225
91913SOL    HW277579  11.374   3.112   9.211
91914SOL     OW77580  12.564  11.814  14.622
91914SOL    HW177581  12.626  11.755  14.665
91914SOL    HW277582  12.557  11.782  14.533
91915SOL     OW77583   9.525  13.626   3.372
91915SOL    HW177584   9.613  13.644   3.404
91915SOL    HW277585   9.491  13.711   3.345
91916SOL     OW77586   8.965   6.838   9.511
91916SOL    HW177587   9.056   6.820   9.536
91916SOL    HW277588   8.963   6.824   9.416
91917SOL     OW77589   1.590  14.202   8.100
91917SOL    HW177590   1.620  14.123   8.144
91917SOL    HW277591   1.545  14.169   8.021
91918SOL     OW77592   2.906   6.422   3.471
91918SOL    HW177593   2.865   6.489   3.526
91918SOL    HW277594   2.856   6.424   3.389
91919SOL     OW77595   9.469   6.674  11.936
91919SOL    HW177596   9.519   6.593  11.939
91919SOL    HW277597   9.445   6.692  12.027
91920SOL     OW77598   8.035   9.368   1.435
91920SOL    HW177599   8.053   9.340   1.346
91920SOL    HW277600   7.972   9.304   1.469
91921SOL     OW77601   7.715  11.753  13.004
91921SOL    HW177602   7.696  11.845  12.986
91921SOL    HW277603   7.808  11.743  12.982
91922SOL     OW77604  11.526  10.441   4.102
91922SOL    HW177605  11.514  10.488   4.184
91922SOL    HW277606  11.619  10.418   4.101
91923SOL     OW77607  10.650   7.457  11.932
91923SOL    HW177608  10.674   7.497  11.848
91923SOL    HW277609  10.731   7.413  11.961
91924SOL     OW77610   9.006   4.739   5.020
91924SOL    HW177611   8.968   4.773   5.101
91924SOL    HW277612   8.974   4.648   5.015
91925SOL     OW77613  14.353   5.190   0.396
91925SOL    HW177614  14.295   5.125   0.358
91925SOL    HW277615  14.294   5.257   0.431
91926SOL     OW77616   5.929   5.561   1.069
91926SOL    HW177617   5.958   5.570   1.160
91926SOL    HW277618   5.980   5.626   1.021
91927SOL     OW77619  11.367   0.621  10.744
91927SOL    HW177620  11.397   0.710  10.725
91927SOL    HW277621  11.301   0.604  10.677
91928SOL     OW77622  12.632  12.404  14.738
91928SOL    HW177623  12.624  12.309  14.747
91928SOL    HW277624  12.664  12.434  14.824
91929SOL     OW77625  11.014   2.945   5.323
91929SOL    HW177626  11.002   2.850   5.319
91929SOL    HW277627  10.935   2.981   5.283
91930SOL     OW77628   3.791   5.755   3.889
91930SOL    HW177629   3.714   5.786   3.842
91930SOL    HW277630   3.864   5.803   3.849
91931SOL     OW77631   9.475   5.346  12.514
91931SOL    HW177632   9.511   5.337  12.426
91931SOL    HW277633   9.423   5.427  12.511
91932SOL     OW77634   6.611   3.766   2.451
91932SOL    HW177635   6.685   3.809   2.407
91932SOL    HW277636   6.594   3.821   2.528
91933SOL     OW77637   0.472   0.621   2.378
91933SOL    HW177638   0.422   0.549   2.415
91933SOL    HW277639   0.559   0.584   2.363
91934SOL     OW77640   6.883   5.801  12.073
91934SOL    HW177641   6.948   5.763  12.133
91934SOL    HW277642   6.934   5.853  12.012
91935SOL     OW77643   8.064   0.712  13.911
91935SOL    HW177644   8.121   0.638  13.890
91935SOL    HW277645   7.975   0.674  13.910
91936SOL     OW77646   2.399   5.155   3.214
91936SOL    HW177647   2.410   5.250   3.206
91936SOL    HW277648   2.425   5.135   3.304
91937SOL     OW77649   0.666  13.908  10.830
91937SOL    HW177650   0.615  13.946  10.903
91937SOL    HW277651   0.725  13.979  10.804
91938SOL     OW77652  14.413  14.065   8.057
91938SOL    HW177653  14.359  14.005   8.005
91938SOL    HW277654  14.500  14.057   8.020
91939SOL     OW77655   7.718   1.925  14.351
91939SOL    HW177656   7.735   1.907  14.258
91939SOL    HW277657   7.774   2.000  14.371
91940SOL     OW77658  10.678  11.767  12.185
91940SOL    HW177659  10.652  11.675  12.196
91940SOL    HW277660  10.700  11.796  12.273
91941SOL     OW77661   2.838  10.817   8.898
91941SOL    HW177662   2.917  10.775   8.932
91941SOL    HW277663   2.870  10.879   8.832
91942SOL     OW77664   7.699   2.391  13.673
91942SOL    HW177665   7.729   2.419  13.760
91942SOL    HW277666   7.609   2.363  13.687
91943SOL     OW77667   8.564  13.447   0.705
91943SOL    HW177668   8.587  13.396   0.783
91943SOL    HW277669   8.503  13.514   0.737
91944SOL     OW77670   6.626   5.656   9.290
91944SOL    HW177671   6.532   5.637   9.293
91944SOL    HW277672   6.659   5.632   9.376
91945SOL     OW77673  14.852   4.730   7.787
91945SOL    HW177674  14.843   4.815   7.829
91945SOL    HW277675  14.769   4.717   7.741
91946SOL     OW77676   1.822  11.589  14.145
91946SOL    HW177677   1.799  11.534  14.220
91946SOL    HW277678   1.914  11.609  14.158
91947SOL     OW77679   7.123  10.087  12.176
91947SOL    HW177680   7.048  10.101  12.234
91947SOL    HW277681   7.191  10.052  12.234
91948SOL     OW77682  12.909  11.448   0.770
91948SOL    HW177683  12.935  11.540   0.778
91948SOL    HW277684  12.895  11.419   0.860
91949SOL     OW77685   2.888  10.909  14.327
91949SOL    HW177686   2.885  10.907  14.422
91949SOL    HW277687   2.834  10.834  14.300
91950SOL     OW77688   6.219  10.667  10.625
91950SOL    HW177689   6.209  10.628  10.712
91950SOL    HW277690   6.143  10.636  10.575
91951SOL     OW77691   4.490  12.709  13.724
91951SOL    HW177692   4.424  12.767  13.687
91951SOL    HW277693   4.440  12.646  13.777
91952SOL     OW77694   2.728   6.794   2.148
91952SOL    HW177695   2.744   6.703   2.125
91952SOL    HW277696   2.813   6.837   2.139
91953SOL     OW77697   8.803   2.933   9.560
91953SOL    HW177698   8.842   2.987   9.492
91953SOL    HW277699   8.729   2.984   9.592
91954SOL     OW77700   7.339   5.501   6.672
91954SOL    HW177701   7.277   5.429   6.687
91954SOL    HW277702   7.422   5.470   6.708
91955SOL     OW77703   3.940   1.977   7.594
91955SOL    HW177704   3.855   2.016   7.611
91955SOL    HW277705   3.927   1.925   7.514
91956SOL     OW77706  12.625  13.942  13.453
91956SOL    HW177707  12.537  13.937  13.415
91956SOL    HW277708  12.610  13.950  13.547
91957SOL     OW77709   0.874  12.700  12.573
91957SOL    HW177710   0.835  12.622  12.533
91957SOL    HW277711   0.955  12.668  12.613
91958SOL     OW77712   6.160  11.248  11.955
91958SOL    HW177713   6.166  11.281  12.044
91958SOL    HW277714   6.238  11.193  11.944
91959SOL     OW77715  12.430   5.773   3.712
91959SOL    HW177716  12.380   5.854   3.717
91959SOL    HW277717  12.503   5.793   3.654
91960SOL     OW77718   4.717   5.900   0.475
91960SOL    HW177719   4.703   5.939   0.562
91960SOL    HW277720   4.673   5.960   0.415
91961SOL     OW77721  12.202   1.107  13.204
91961SOL    HW177722  12.125   1.165  13.209
91961SOL    HW277723  12.273   1.158  13.244
91962SOL     OW77724   7.408  13.928   3.178
91962SOL    HW177725   7.332  13.876   3.205
91962SOL    HW277726   7.438  13.969   3.259
91963SOL     OW77727   9.681   3.877   5.279
91963SOL    HW177728   9.654   3.854   5.368
91963SOL    HW277729   9.776   3.877   5.282
91964SOL     OW77730   0.734   0.582   8.265
91964SOL    HW177731   0.729   0.576   8.170
91964SOL    HW277732   0.762   0.495   8.293
91965SOL     OW77733   3.789   6.614   1.271
91965SOL    HW177734   3.858   6.617   1.205
91965SOL    HW277735   3.739   6.694   1.257
91966SOL     OW77736   5.614   1.658  10.908
91966SOL    HW177737   5.695   1.624  10.945
91966SOL    HW277738   5.546   1.598  10.941
91967SOL     OW77739   5.829   5.723   3.356
91967SOL    HW177740   5.799   5.683   3.437
91967SOL    HW277741   5.832   5.651   3.292
91968SOL     OW77742  14.681   5.712  13.606
91968SOL    HW177743  14.605   5.745  13.556
91968SOL    HW277744  14.643   5.666  13.681
91969SOL     OW77745  12.932   6.637  12.909
91969SOL    HW177746  13.002   6.586  12.870
91969SOL    HW277747  12.863   6.639  12.843
91970SOL     OW77748  10.335  10.879   1.752
91970SOL    HW177749  10.252  10.830   1.749
91970SOL    HW277750  10.344  10.916   1.664
91971SOL     OW77751  12.797  11.926   4.834
91971SOL    HW177752  12.868  11.989   4.845
91971SOL    HW277753  12.833  11.859   4.776
91972SOL     OW77754   2.679   8.260   6.583
91972SOL    HW177755   2.652   8.176   6.621
91972SOL    HW277756   2.763   8.242   6.542
91973SOL     OW77757   1.537  14.350  14.613
91973SOL    HW177758   1.527  14.258  14.589
91973SOL    HW277759   1.614  14.352  14.669
91974SOL     OW77760  12.183   1.764   5.794
91974SOL    HW177761  12.226   1.762   5.879
91974SOL    HW277762  12.193   1.675   5.760
91975SOL     OW77763   5.156   6.989   3.423
91975SOL    HW177764   5.247   6.961   3.413
91975SOL    HW277765   5.152   7.024   3.512
91976SOL     OW77766   2.624   0.296   1.448
91976SOL    HW177767   2.641   0.294   1.353
91976SOL    HW277768   2.668   0.219   1.482
91977SOL     OW77769   9.642   0.561   2.806
91977SOL    HW177770   9.569   0.547   2.867
91977SOL    HW277771   9.643   0.656   2.791
91978SOL     OW77772   1.335   2.540  14.645
91978SOL    HW177773   1.299   2.622  14.609
91978SOL    HW277774   1.412   2.522  14.592
91979SOL     OW77775  11.944   5.542  12.611
91979SOL    HW177776  11.915   5.611  12.552
91979SOL    HW277777  11.885   5.547  12.686
91980SOL     OW77778   5.503   3.767   2.144
91980SOL    HW177779   5.570   3.771   2.212
91980SOL    HW277780   5.428   3.814   2.180
91981SOL     OW77781   3.431   0.089  13.935
91981SOL    HW177782   3.512   0.120  13.977
91981SOL    HW277783   3.453   0.085  13.842
91982SOL     OW77784   7.048  14.552   1.540
91982SOL    HW177785   7.025  14.645   1.531
91982SOL    HW277786   6.967  14.510   1.569
91983SOL     OW77787   5.535   6.110   9.251
91983SOL    HW177788   5.512   6.198   9.280
91983SOL    HW277789   5.511   6.053   9.324
91984SOL     OW77790   3.966  14.728   3.851
91984SOL    HW177791   3.915  14.807   3.867
91984SOL    HW277792   3.949  14.672   3.927
91985SOL     OW77793   4.951  10.196  14.008
91985SOL    HW177794   4.943  10.109  14.048
91985SOL    HW277795   4.865  10.235  14.016
91986SOL     OW77796  12.863  10.349   1.077
91986SOL    HW177797  12.900  10.299   1.005
91986SOL    HW277798  12.881  10.297   1.155
91987SOL     OW77799   1.151  14.077   9.266
91987SOL    HW177800   1.165  14.172   9.265
91987SOL    HW277801   1.221  14.042   9.211
91988SOL     OW77802   7.342  14.441   5.021
91988SOL    HW177803   7.331  14.471   4.931
91988SOL    HW277804   7.378  14.353   5.013
91989SOL     OW77805  14.687   6.000  10.451
91989SOL    HW177806  14.770   6.013  10.406
91989SOL    HW277807  14.643   5.931  10.400
91990SOL     OW77808   6.872   6.431  14.155
91990SOL    HW177809   6.949   6.378  14.132
91990SOL    HW277810   6.806   6.368  14.181
91991SOL     OW77811  11.431   9.216   1.923
91991SOL    HW177812  11.491   9.288   1.904
91991SOL    HW277813  11.353   9.259   1.957
91992SOL     OW77814  12.099   4.957   1.134
91992SOL    HW177815  12.145   4.902   1.071
91992SOL    HW277816  12.124   4.921   1.219
91993SOL     OW77817   3.370  13.280   0.358
91993SOL    HW177818   3.385  13.331   0.278
91993SOL    HW277819   3.358  13.346   0.426
91994SOL     OW77820   3.562  12.431   8.167
91994SOL    HW177821   3.553  12.362   8.102
91994SOL    HW277822   3.475  12.438   8.207
91995SOL     OW77823   9.487   3.015   2.788
91995SOL    HW177824   9.563   2.971   2.749
91995SOL    HW277825   9.412   2.963   2.759
91996SOL     OW77826   9.823   7.904   6.101
91996SOL    HW177827   9.901   7.890   6.047
91996SOL    HW277828   9.754   7.854   6.057
91997SOL     OW77829   9.297   5.497   7.170
91997SOL    HW177830   9.248   5.576   7.145
91997SOL    HW277831   9.384   5.510   7.133
91998SOL     OW77832   3.144   8.675  11.074
91998SOL    HW177833   3.163   8.768  11.064
91998SOL    HW277834   3.224   8.630  11.047
91999SOL     OW77835  10.739   6.918   0.965
91999SOL    HW177836  10.721   6.825   0.951
91999SOL    HW277837  10.726   6.958   0.879
92000SOL     OW77838   9.881  14.875  11.811
92000SOL    HW177839   9.845  14.802  11.760
92000SOL    HW277840   9.849  14.860  11.900
92001SOL     OW77841   1.683   7.626  13.012
92001SOL    HW177842   1.750   7.646  13.077
92001SOL    HW277843   1.649   7.711  12.984
92002SOL     OW77844   6.630   0.318   1.792
92002SOL    HW177845   6.651   0.225   1.800
92002SOL    HW277846   6.700   0.363   1.839
92003SOL     OW77847  10.441   7.485   8.715
92003SOL    HW177848  10.456   7.515   8.626
92003SOL    HW277849  10.346   7.474   8.721
92004SOL     OW77850  11.502   9.424   4.750
92004SOL    HW177851  11.521   9.330   4.753
92004SOL    HW277852  11.407   9.429   4.753
92005SOL     OW77853   4.989  10.839   6.096
92005SOL    HW177854   4.921  10.784   6.060
92005SOL    HW277855   5.063  10.780   6.112
92006SOL     OW77856  14.269  11.149  11.790
92006SOL    HW177857  14.296  11.103  11.870
92006SOL    HW277858  14.284  11.241  11.809
92007SOL     OW77859   0.618  11.048   2.358
92007SOL    HW177860   0.607  10.955   2.380
92007SOL    HW277861   0.624  11.049   2.262
92008SOL     OW77862  14.272   1.469  14.418
92008SOL    HW177863  14.220   1.549  14.429
92008SOL    HW277864  14.305   1.475  14.328
92009SOL     OW77865  11.737   6.761   0.674
92009SOL    HW177866  11.756   6.824   0.743
92009SOL    HW277867  11.657   6.794   0.633
92010SOL     OW77868  10.174   5.564   3.289
92010SOL    HW177869  10.080   5.549   3.278
92010SOL    HW277870  10.194   5.526   3.375
92011SOL     OW77871  14.104   0.557   6.546
92011SOL    HW177872  14.178   0.588   6.494
92011SOL    HW277873  14.028   0.602   6.509
92012SOL     OW77874   8.593   6.696   8.712
92012SOL    HW177875   8.544   6.779   8.706
92012SOL    HW277876   8.598   6.664   8.622
92013SOL     OW77877  11.903  12.260  14.449
92013SOL    HW177878  11.958  12.244  14.526
92013SOL    HW277879  11.846  12.332  14.475
92014SOL     OW77880   8.031   9.352  13.501
92014SOL    HW177881   8.023   9.312  13.588
92014SOL    HW277882   7.970   9.426  13.503
92015SOL     OW77883   2.233  14.001  12.403
92015SOL    HW177884   2.180  14.030  12.476
92015SOL    HW277885   2.180  13.936  12.358
92016SOL     OW77886   6.430   0.645  10.533
92016SOL    HW177887   6.448   0.556  10.563
92016SOL    HW277888   6.516   0.680  10.509
92017SOL     OW77889  12.746   6.431  10.446
92017SOL    HW177890  12.815   6.364  10.443
92017SOL    HW277891  12.665   6.381  10.452
92018SOL     OW77892  12.633   4.133   8.170
92018SOL    HW177893  12.572   4.111   8.240
92018SOL    HW277894  12.660   4.223   8.188
92019SOL     OW77895  11.631   2.717  10.403
92019SOL    HW177896  11.593   2.630  10.390
92019SOL    HW277897  11.568   2.761  10.461
92020SOL     OW77898  10.872   1.019   0.648
92020SOL    HW177899  10.852   1.092   0.589
92020SOL    HW277900  10.787   0.983   0.670
92021SOL     OW77901   6.998   9.488   8.065
92021SOL    HW177902   6.988   9.573   8.022
92021SOL    HW277903   7.088   9.462   8.045
92022SOL     OW77904   2.296   1.791   1.028
92022SOL    HW177905   2.253   1.842   0.960
92022SOL    HW277906   2.282   1.842   1.108
92023SOL     OW77907   1.431   3.435   3.392
92023SOL    HW177908   1.391   3.519   3.370
92023SOL    HW277909   1.365   3.391   3.446
92024SOL     OW77910  11.614   1.931   8.037
92024SOL    HW177911  11.534   1.950   8.086
92024SOL    HW277912  11.585   1.882   7.960
92025SOL     OW77913  13.306   8.977   8.510
92025SOL    HW177914  13.392   9.013   8.490
92025SOL    HW277915  13.263   8.969   8.424
92026SOL     OW77916   6.253   9.666  11.924
92026SOL    HW177917   6.257   9.714  11.841
92026SOL    HW277918   6.166   9.629  11.927
92027SOL     OW77919   4.049   7.824   7.105
92027SOL    HW177920   4.030   7.734   7.080
92027SOL    HW277921   4.083   7.865   7.025
92028SOL     OW77922   9.103   8.202   9.763
92028SOL    HW177923   9.067   8.178   9.678
92028SOL    HW277924   9.197   8.184   9.756
92029SOL     OW77925   6.014   4.789  11.620
92029SOL    HW177926   6.034   4.750  11.534
92029SOL    HW277927   5.968   4.870  11.598
92030SOL     OW77928  10.813  14.100   0.224
92030SOL    HW177929  10.786  14.128   0.137
92030SOL    HW277930  10.868  14.024   0.209
92031SOL     OW77931   6.414   3.776   3.720
92031SOL    HW177932   6.503   3.777   3.758
92031SOL    HW277933   6.357   3.800   3.793
92032SOL     OW77934   7.163   2.466   6.920
92032SOL    HW177935   7.177   2.518   6.841
92032SOL    HW277936   7.097   2.401   6.894
92033SOL     OW77937   8.657   3.249  11.832
92033SOL    HW177938   8.634   3.293  11.750
92033SOL    HW277939   8.686   3.320  11.890
92034SOL     OW77940   4.197   9.423   7.631
92034SOL    HW177941   4.200   9.330   7.655
92034SOL    HW277942   4.147   9.464   7.702
92035SOL     OW77943  12.661  13.404   7.978
92035SOL    HW177944  12.664  13.406   8.073
92035SOL    HW277945  12.653  13.497   7.953
92036SOL     OW77946   6.134   8.386   8.433
92036SOL    HW177947   6.071   8.448   8.471
92036SOL    HW277948   6.203   8.442   8.398
92037SOL     OW77949  12.376   1.646   3.275
92037SOL    HW177950  12.427   1.590   3.216
92037SOL    HW277951  12.441   1.679   3.338
92038SOL     OW77952   7.951  14.425   5.033
92038SOL    HW177953   7.872  14.449   5.081
92038SOL    HW277954   8.012  14.394   5.099
92039SOL     OW77955  11.407   3.542  12.117
92039SOL    HW177956  11.320   3.538  12.075
92039SOL    HW277957  11.394   3.598  12.193
92040SOL     OW77958  10.949   0.666   3.807
92040SOL    HW177959  10.891   0.590   3.802
92040SOL    HW277960  11.002   0.661   3.728
92041SOL     OW77961  14.844   4.293   1.597
92041SOL    HW177962   0.052   4.325   1.619
92041SOL    HW277963  14.836   4.211   1.646
92042SOL     OW77964   4.214   4.633   3.798
92042SOL    HW177965   4.171   4.705   3.751
92042SOL    HW277966   4.300   4.669   3.821
92043SOL     OW77967   7.468   0.420   3.265
92043SOL    HW177968   7.450   0.444   3.356
92043SOL    HW277969   7.560   0.391   3.267
92044SOL     OW77970   9.916   3.348   9.666
92044SOL    HW177971   9.904   3.403   9.588
92044SOL    HW277972   9.957   3.268   9.633
92045SOL     OW77973   8.272  12.413   8.508
92045SOL    HW177974   8.248  12.344   8.446
92045SOL    HW277975   8.244  12.494   8.465
92046SOL     OW77976   8.110  11.949  11.165
92046SOL    HW177977   8.080  11.961  11.255
92046SOL    HW277978   8.169  11.873  11.170
92047SOL     OW77979   2.821   3.875   1.941
92047SOL    HW177980   2.765   3.823   1.884
92047SOL    HW277981   2.870   3.811   1.992
92048SOL     OW77982   8.970   0.421   7.407
92048SOL    HW177983   8.889   0.409   7.457
92048SOL    HW277984   9.015   0.336   7.413
92049SOL     OW77985   3.123   5.250   6.537
92049SOL    HW177986   3.187   5.180   6.549
92049SOL    HW277987   3.082   5.232   6.452
92050SOL     OW77988   3.720   9.031   8.489
92050SOL    HW177989   3.691   9.091   8.420
92050SOL    HW277990   3.647   8.970   8.501
92051SOL     OW77991   0.810   7.961  11.093
92051SOL    HW177992   0.833   8.049  11.123
92051SOL    HW277993   0.893   7.925  11.061
92052SOL     OW77994   0.735   2.538   2.304
92052SOL    HW177995   0.762   2.600   2.237
92052SOL    HW277996   0.666   2.486   2.261
92053SOL     OW77997  13.323   8.303  10.082
92053SOL    HW177998  13.235   8.266  10.077
92053SOL    HW277999  13.381   8.226  10.086
92054SOL     OW78000   4.980  13.921  12.509
92054SOL    HW178001   5.022  13.925  12.423
92054SOL    HW278002   5.042  13.872  12.563
92055SOL     OW78003  13.454   6.222  11.583
92055SOL    HW178004  13.408   6.304  11.567
92055SOL    HW278005  13.488   6.196  11.497
92056SOL     OW78006  12.321   8.950  11.520
92056SOL    HW178007  12.324   8.930  11.427
92056SOL    HW278008  12.247   9.011  11.529
92057SOL     OW78009  13.989   1.963   1.249
92057SOL    HW178010  14.002   1.942   1.157
92057SOL    HW278011  13.911   2.019   1.250
92058SOL     OW78012  10.335  13.874   4.643
92058SOL    HW178013  10.273  13.893   4.573
92058SOL    HW278014  10.378  13.957   4.661
92059SOL     OW78015   5.336   9.598  12.713
92059SOL    HW178016   5.384   9.537  12.658
92059SOL    HW278017   5.399   9.665  12.737
92060SOL     OW78018  12.799   7.148   9.918
92060SOL    HW178019  12.738   7.172   9.849
92060SOL    HW278020  12.783   7.054   9.932
92061SOL     OW78021   7.164   1.218   7.011
92061SOL    HW178022   7.111   1.170   7.076
92061SOL    HW278023   7.109   1.222   6.933
92062SOL     OW78024   0.330  11.784   4.781
92062SOL    HW178025   0.307  11.807   4.691
92062SOL    HW278026   0.406  11.728   4.773
92063SOL     OW78027   0.902   6.804   1.425
92063SOL    HW178028   0.809   6.821   1.441
92063SOL    HW278029   0.936   6.888   1.396
92064SOL     OW78030   6.390   6.039   0.003
92064SOL    HW178031   6.483   6.027   0.021
92064SOL    HW278032   6.384   6.127  14.845
92065SOL     OW78033  11.363   6.458   6.283
92065SOL    HW178034  11.419   6.535   6.272
92065SOL    HW278035  11.363   6.416   6.196
92066SOL     OW78036   0.592   6.393   6.926
92066SOL    HW178037   0.501   6.403   6.953
92066SOL    HW278038   0.608   6.298   6.927
92067SOL     OW78039   0.654   6.638   7.085
92067SOL    HW178040   0.726   6.580   7.060
92067SOL    HW278041   0.578   6.581   7.088
92068SOL     OW78042   9.891  13.441   5.395
92068SOL    HW178043   9.817  13.412   5.342
92068SOL    HW278044   9.922  13.520   5.351
92069SOL     OW78045  13.556  14.106   0.672
92069SOL    HW178046  13.492  14.061   0.617
92069SOL    HW278047  13.586  14.180   0.619
92070SOL     OW78048   0.148   7.220   8.599
92070SOL    HW178049   0.192   7.146   8.640
92070SOL    HW278050   0.055   7.201   8.608
92071SOL     OW78051  10.741  13.679   4.487
92071SOL    HW178052  10.767  13.744   4.422
92071SOL    HW278053  10.766  13.717   4.571
92072SOL     OW78054  11.128   6.865   9.706
92072SOL    HW178055  11.184   6.942   9.716
92072SOL    HW278056  11.186   6.791   9.724
92073SOL     OW78057  11.953  10.525   6.220
92073SOL    HW178058  11.904  10.443   6.235
92073SOL    HW278059  12.039  10.496   6.191
92074SOL     OW78060  13.541   4.828   6.037
92074SOL    HW178061  13.583   4.755   6.083
92074SOL    HW278062  13.601   4.902   6.049
92075SOL     OW78063   2.058   8.837  11.529
92075SOL    HW178064   2.131   8.869  11.582
92075SOL    HW278065   2.098   8.776  11.467
92076SOL     OW78066   3.571  12.614  13.947
92076SOL    HW178067   3.519  12.618  14.027
92076SOL    HW278068   3.581  12.705  13.920
92077SOL     OW78069  11.826   9.411   5.398
92077SOL    HW178070  11.826   9.429   5.304
92077SOL    HW278071  11.886   9.475   5.435
92078SOL     OW78072   8.663  12.420   5.975
92078SOL    HW178073   8.586  12.387   5.929
92078SOL    HW278074   8.632  12.438   6.064
92079SOL     OW78075   4.663   2.922  11.560
92079SOL    HW178076   4.732   2.863  11.591
92079SOL    HW278077   4.674   2.924  11.465
92080SOL     OW78078   8.810   4.574   5.767
92080SOL    HW178079   8.775   4.554   5.853
92080SOL    HW278080   8.736   4.608   5.718
92081SOL     OW78081   3.802   4.447   5.138
92081SOL    HW178082   3.715   4.467   5.103
92081SOL    HW278083   3.785   4.389   5.212
92082SOL     OW78084   6.894   6.075  12.970
92082SOL    HW178085   6.945   6.133  13.027
92082SOL    HW278086   6.949   5.998  12.960
92083SOL     OW78087  13.192   1.995   7.350
92083SOL    HW178088  13.209   2.088   7.341
92083SOL    HW278089  13.138   1.987   7.428
92084SOL     OW78090   2.953   8.459  10.186
92084SOL    HW178091   2.861   8.479  10.201
92084SOL    HW278092   2.960   8.445  10.091
92085SOL     OW78093   0.497   2.406   7.054
92085SOL    HW178094   0.435   2.415   7.126
92085SOL    HW278095   0.549   2.328   7.077
92086SOL     OW78096   3.571   9.185   7.288
92086SOL    HW178097   3.568   9.193   7.384
92086SOL    HW278098   3.662   9.163   7.269
92087SOL     OW78099   8.201   5.053   6.364
92087SOL    HW178100   8.164   4.999   6.434
92087SOL    HW278101   8.131   5.057   6.298
92088SOL     OW78102   4.061  10.218   4.869
92088SOL    HW178103   4.004  10.245   4.941
92088SOL    HW278104   4.129  10.164   4.909
92089SOL     OW78105  13.206   8.489   1.000
92089SOL    HW178106  13.220   8.395   1.008
92089SOL    HW278107  13.230   8.524   1.086
92090SOL     OW78108   1.903  14.855  13.389
92090SOL    HW178109   1.838  14.800  13.344
92090SOL    HW278110   1.922  14.807  13.470
92091SOL     OW78111  10.399   8.052   6.776
92091SOL    HW178112  10.310   8.024   6.756
92091SOL    HW278113  10.434   7.983   6.832
92092SOL     OW78114  14.252  10.890   0.176
92092SOL    HW178115  14.269  10.944   0.254
92092SOL    HW278116  14.287  10.804   0.199
92093SOL     OW78117   8.104   7.581  10.380
92093SOL    HW178118   8.172   7.578  10.313
92093SOL    HW278119   8.024   7.553  10.335
92094SOL     OW78120   5.955   3.742  10.277
92094SOL    HW178121   6.014   3.673  10.307
92094SOL    HW278122   5.945   3.727  10.183
92095SOL     OW78123  12.119  14.269   1.130
92095SOL    HW178124  12.093  14.321   1.053
92095SOL    HW278125  12.134  14.181   1.095
92096SOL     OW78126   3.397  12.585   9.192
92096SOL    HW178127   3.427  12.515   9.135
92096SOL    HW278128   3.382  12.542   9.276
92097SOL     OW78129   0.003   3.397   2.543
92097SOL    HW178130  14.809   3.339   2.565
92097SOL    HW278131  14.843   3.472   2.500
92098SOL     OW78132   0.932   2.464   1.819
92098SOL    HW178133   0.954   2.371   1.814
92098SOL    HW278134   0.866   2.470   1.887
92099SOL     OW78135   8.682  11.009  12.418
92099SOL    HW178136   8.600  11.003  12.466
92099SOL    HW278137   8.674  10.944  12.348
92100SOL     OW78138   1.472  11.018   1.538
92100SOL    HW178139   1.417  11.078   1.487
92100SOL    HW278140   1.412  10.981   1.603
92101SOL     OW78141   1.418  11.346   8.794
92101SOL    HW178142   1.410  11.292   8.716
92101SOL    HW278143   1.332  11.340   8.836
92102SOL     OW78144  12.015   1.556  10.796
92102SOL    HW178145  12.109   1.570  10.785
92102SOL    HW278146  11.987   1.515  10.714
92103SOL     OW78147   5.698   1.163  13.224
92103SOL    HW178148   5.768   1.171  13.288
92103SOL    HW278149   5.700   1.245  13.174
92104SOL     OW78150   0.745  11.545   0.644
92104SOL    HW178151   0.817  11.486   0.622
92104SOL    HW278152   0.773  11.586   0.726
92105SOL     OW78153  11.548  13.533   6.278
92105SOL    HW178154  11.546  13.623   6.243
92105SOL    HW278155  11.616  13.490   6.227
92106SOL     OW78156   3.142  10.144  11.721
92106SOL    HW178157   3.231  10.176  11.730
92106SOL    HW278158   3.133  10.124  11.627
92107SOL     OW78159   7.845   9.686   8.562
92107SOL    HW178160   7.781   9.616   8.557
92107SOL    HW278161   7.927   9.642   8.584
92108SOL     OW78162  12.539   0.861   9.011
92108SOL    HW178163  12.586   0.778   9.013
92108SOL    HW278164  12.594   0.919   8.958
92109SOL     OW78165  10.260   2.335   5.219
92109SOL    HW178166  10.272   2.243   5.241
92109SOL    HW278167  10.344   2.363   5.183
92110SOL     OW78168  12.351   7.840   3.723
92110SOL    HW178169  12.287   7.787   3.676
92110SOL    HW278170  12.415   7.865   3.657
92111SOL     OW78171  11.794  10.763   2.463
92111SOL    HW178172  11.729  10.831   2.449
92111SOL    HW278173  11.791  10.710   2.383
92112SOL     OW78174   4.259   0.778   0.942
92112SOL    HW178175   4.243   0.755   0.851
92112SOL    HW278176   4.322   0.713   0.972
92113SOL     OW78177  11.928  12.628   5.225
92113SOL    HW178178  11.834  12.615   5.237
92113SOL    HW278179  11.966  12.605   5.310
92114SOL     OW78180   5.840   8.335   6.682
92114SOL    HW178181   5.849   8.411   6.738
92114SOL    HW278182   5.853   8.369   6.593
92115SOL     OW78183   5.688  13.397   0.804
92115SOL    HW178184   5.641  13.339   0.864
92115SOL    HW278185   5.693  13.348   0.723
92116SOL     OW78186   8.394   7.679  10.509
92116SOL    HW178187   8.340   7.736  10.454
92116SOL    HW278188   8.341   7.668  10.589
92117SOL     OW78189   1.662  11.733   7.194
92117SOL    HW178190   1.654  11.685   7.111
92117SOL    HW278191   1.745  11.702   7.231
92118SOL     OW78192   8.034  14.105   9.382
92118SOL    HW178193   8.056  14.116   9.289
92118SOL    HW278194   8.092  14.035   9.412
92119SOL     OW78195   5.564   1.038   2.955
92119SOL    HW178196   5.537   0.947   2.967
92119SOL    HW278197   5.645   1.031   2.904
92120SOL     OW78198   4.886   7.343   2.313
92120SOL    HW178199   4.894   7.254   2.346
92120SOL    HW278200   4.807   7.341   2.259
92121SOL     OW78201   1.411  14.673  11.380
92121SOL    HW178202   1.443  14.584  11.366
92121SOL    HW278203   1.347  14.687  11.309
92122SOL     OW78204   5.691   4.901  11.031
92122SOL    HW178205   5.601   4.873  11.018
92122SOL    HW278206   5.695   4.988  10.991
92123SOL     OW78207   2.767   5.199   7.337
92123SOL    HW178208   2.751   5.130   7.401
92123SOL    HW278209   2.853   5.234   7.359
92124SOL     OW78210   6.909  12.908  13.594
92124SOL    HW178211   6.921  12.884  13.685
92124SOL    HW278212   6.814  12.905  13.580
92125SOL     OW78213  14.614   6.613   2.027
92125SOL    HW178214  14.521   6.630   2.015
92125SOL    HW278215  14.629   6.530   1.981
92126SOL     OW78216   8.499   2.242   9.956
92126SOL    HW178217   8.526   2.170  10.013
92126SOL    HW278218   8.425   2.283  10.001
92127SOL     OW78219   3.564   0.343  12.311
92127SOL    HW178220   3.540   0.395  12.234
92127SOL    HW278221   3.657   0.325  12.300
92128SOL     OW78222   2.455   2.641  11.958
92128SOL    HW178223   2.425   2.730  11.936
92128SOL    HW278224   2.498   2.610  11.879
92129SOL     OW78225   8.562   8.483   9.048
92129SOL    HW178226   8.573   8.465   9.141
92129SOL    HW278227   8.513   8.409   9.014
92130SOL     OW78228   1.193  10.913   5.860
92130SOL    HW178229   1.235  10.833   5.831
92130SOL    HW278230   1.264  10.967   5.896
92131SOL     OW78231   0.556  14.808  12.809
92131SOL    HW178232   0.632  14.765  12.770
92131SOL    HW278233   0.481  14.772  12.762
92132SOL     OW78234  14.417   2.560  14.101
92132SOL    HW178235  14.482   2.565  14.031
92132SOL    HW278236  14.343   2.611  14.070
92133SOL     OW78237   4.325  13.315   8.862
92133SOL    HW178238   4.332  13.386   8.798
92133SOL    HW278239   4.248  13.337   8.914
92134SOL     OW78240  14.383   0.116  10.273
92134SOL    HW178241  14.428   0.072  10.201
92134SOL    HW278242  14.437   0.192  10.292
92135SOL     OW78243   3.199   1.675   5.340
92135SOL    HW178244   3.227   1.658   5.430
92135SOL    HW278245   3.203   1.589   5.298
92136SOL     OW78246  12.995  10.196   5.079
92136SOL    HW178247  13.045  10.172   5.001
92136SOL    HW278248  13.015  10.288   5.093
92137SOL     OW78249   5.195  14.729   9.584
92137SOL    HW178250   5.287  14.744   9.564
92137SOL    HW278251   5.149  14.751   9.503
92138SOL     OW78252   3.596  13.436   5.931
92138SOL    HW178253   3.628  13.449   6.020
92138SOL    HW278254   3.502  13.419   5.941
92139SOL     OW78255   3.431   1.185   0.210
92139SOL    HW178256   3.371   1.237   0.156
92139SOL    HW278257   3.389   1.182   0.296
92140SOL     OW78258   7.701   6.331   6.762
92140SOL    HW178259   7.626   6.329   6.702
92140SOL    HW278260   7.661   6.339   6.849
92141SOL     OW78261  13.114   5.813   3.953
92141SOL    HW178262  13.192   5.827   4.006
92141SOL    HW278263  13.041   5.815   4.015
92142SOL     OW78264  13.733   2.402  10.122
92142SOL    HW178265  13.689   2.467  10.067
92142SOL    HW278266  13.785   2.455  10.184
92143SOL     OW78267   4.078   1.301   9.881
92143SOL    HW178268   4.111   1.388   9.901
92143SOL    HW278269   4.155   1.244   9.890
92144SOL     OW78270  13.826  10.214  11.714
92144SOL    HW178271  13.849  10.190  11.624
92144SOL    HW278272  13.878  10.292  11.732
92145SOL     OW78273  14.544   8.822   5.411
92145SOL    HW178274  14.511   8.902   5.370
92145SOL    HW278275  14.558   8.762   5.338
92146SOL     OW78276   7.669  12.735  10.777
92146SOL    HW178277   7.738  12.769  10.835
92146SOL    HW278278   7.633  12.660  10.824
92147SOL     OW78279   2.857  13.529   0.032
92147SOL    HW178280   2.781  13.515   0.089
92147SOL    HW278281   2.823  13.519  14.823
92148SOL     OW78282   3.555   3.131   8.124
92148SOL    HW178283   3.638   3.084   8.116
92148SOL    HW278284   3.497   3.070   8.169
92149SOL     OW78285   3.587   9.258   7.543
92149SOL    HW178286   3.623   9.344   7.563
92149SOL    HW278287   3.576   9.216   7.628
92150SOL     OW78288   0.805   3.211   1.398
92150SOL    HW178289   0.822   3.119   1.380
92150SOL    HW278290   0.754   3.241   1.323
92151SOL     OW78291   3.255   4.851   6.203
92151SOL    HW178292   3.320   4.912   6.239
92151SOL    HW278293   3.305   4.771   6.185
92152SOL     OW78294   3.620   2.861  12.601
92152SOL    HW178295   3.695   2.802  12.603
92152SOL    HW278296   3.550   2.810  12.561
92153SOL     OW78297   7.918   0.788  12.881
92153SOL    HW178298   7.899   0.747  12.966
92153SOL    HW278299   7.982   0.856  12.902
92154SOL     OW78300  12.305   7.520  10.641
92154SOL    HW178301  12.259   7.494  10.561
92154SOL    HW278302  12.313   7.439  10.691
92155SOL     OW78303   1.912  10.080  10.766
92155SOL    HW178304   2.007  10.074  10.770
92155SOL    HW278305   1.894  10.109  10.676
92156SOL     OW78306   9.731  11.471  12.170
92156SOL    HW178307   9.773  11.503  12.090
92156SOL    HW278308   9.645  11.514  12.171
92157SOL     OW78309  13.800   3.265  14.344
92157SOL    HW178310  13.785   3.313  14.425
92157SOL    HW278311  13.862   3.319  14.294
92158SOL     OW78312   6.935   3.282  12.594
92158SOL    HW178313   6.865   3.231  12.553
92158SOL    HW278314   7.012   3.265  12.540
92159SOL     OW78315   0.363   6.618   8.465
92159SOL    HW178316   0.304   6.551   8.431
92159SOL    HW278317   0.326   6.701   8.432
92160SOL     OW78318   3.471   4.018  10.195
92160SOL    HW178319   3.549   4.054  10.154
92160SOL    HW278320   3.419   4.095  10.219
92161SOL     OW78321   0.329   8.616   4.750
92161SOL    HW178322   0.397   8.548   4.746
92161SOL    HW278323   0.373   8.692   4.786
92162SOL     OW78324   9.807  13.561   2.168
92162SOL    HW178325   9.731  13.518   2.129
92162SOL    HW278326   9.879  13.543   2.107
92163SOL     OW78327   1.897  10.917   6.575
92163SOL    HW178328   1.866  10.939   6.663
92163SOL    HW278329   1.969  10.857   6.589
92164SOL     OW78330   6.651   5.864   4.712
92164SOL    HW178331   6.592   5.921   4.663
92164SOL    HW278332   6.598   5.831   4.785
92165SOL     OW78333   8.008   6.929   4.022
92165SOL    HW178334   7.981   6.855   3.967
92165SOL    HW278335   8.100   6.911   4.042
92166SOL     OW78336   6.714   9.880  13.959
92166SOL    HW178337   6.784   9.908  14.018
92166SOL    HW278338   6.638   9.932  13.986
92167SOL     OW78339   8.904   1.677   3.784
92167SOL    HW178340   8.858   1.650   3.864
92167SOL    HW278341   8.890   1.771   3.778
92168SOL     OW78342  11.758   0.347   5.728
92168SOL    HW178343  11.769   0.253   5.745
92168SOL    HW278344  11.742   0.352   5.633
92169SOL     OW78345   7.722  11.425  14.278
92169SOL    HW178346   7.726  11.366  14.353
92169SOL    HW278347   7.694  11.509  14.315
92170SOL     OW78348  11.342  12.721  10.437
92170SOL    HW178349  11.392  12.675  10.370
92170SOL    HW278350  11.251  12.696  10.420
92171SOL     OW78351   0.099   2.986   2.275
92171SOL    HW178352   0.095   3.033   2.359
92171SOL    HW278353   0.112   3.055   2.210
92172SOL     OW78354  13.941   9.251   9.565
92172SOL    HW178355  13.896   9.322   9.611
92172SOL    HW278356  14.031   9.256   9.595
92173SOL     OW78357  10.939  11.743   8.059
92173SOL    HW178358  10.993  11.674   8.098
92173SOL    HW278359  10.920  11.712   7.971
92174SOL     OW78360  12.011   3.952   1.611
92174SOL    HW178361  11.994   3.985   1.523
92174SOL    HW278362  11.941   3.888   1.627
92175SOL     OW78363   9.130   2.869   5.208
92175SOL    HW178364   9.066   2.817   5.159
92175SOL    HW278365   9.164   2.809   5.274
92176SOL     OW78366   9.143   3.447  10.061
92176SOL    HW178367   9.148   3.542  10.044
92176SOL    HW278368   9.095   3.413   9.986
92177SOL     OW78369   8.683   5.269   4.352
92177SOL    HW178370   8.667   5.235   4.439
92177SOL    HW278371   8.653   5.200   4.293
92178SOL     OW78372   4.266   8.115  13.610
92178SOL    HW178373   4.301   8.084  13.694
92178SOL    HW278374   4.277   8.210  13.613
92179SOL     OW78375   6.503  13.794   2.953
92179SOL    HW178376   6.504  13.889   2.950
92179SOL    HW278377   6.421  13.769   2.910
92180SOL     OW78378   9.719  14.833   7.988
92180SOL    HW178379   9.647  14.773   8.008
92180SOL    HW278380   9.738  14.818   7.895
92181SOL     OW78381  10.268   6.120   4.958
92181SOL    HW178382  10.268   6.120   4.862
92181SOL    HW278383  10.177   6.103   4.982
92182SOL     OW78384  10.709   6.694   0.305
92182SOL    HW178385  10.736   6.634   0.236
92182SOL    HW278386  10.681   6.773   0.258
92183SOL     OW78387  11.356  11.166  13.368
92183SOL    HW178388  11.394  11.105  13.304
92183SOL    HW278389  11.328  11.241  13.316
92184SOL     OW78390   6.466   8.572   8.825
92184SOL    HW178391   6.373   8.561   8.840
92184SOL    HW278392   6.486   8.514   8.751
92185SOL     OW78393  11.191  14.712  13.359
92185SOL    HW178394  11.177  14.743  13.449
92185SOL    HW278395  11.113  14.742  13.312
92186SOL     OW78396  10.266  13.197  12.652
92186SOL    HW178397  10.186  13.246  12.672
92186SOL    HW278398  10.273  13.201  12.557
92187SOL     OW78399   6.890   2.220  10.972
92187SOL    HW178400   6.916   2.184  10.887
92187SOL    HW278401   6.875   2.143  11.027
92188SOL     OW78402   8.246   0.582   1.772
92188SOL    HW178403   8.168   0.625   1.736
92188SOL    HW278404   8.318   0.640   1.750
92189SOL     OW78405   5.565  14.857   2.396
92189SOL    HW178406   5.527   0.014   2.316
92189SOL    HW278407   5.620  14.785   2.367
92190SOL     OW78408  14.632   1.242  14.354
92190SOL    HW178409  14.595   1.330  14.360
92190SOL    HW278410  14.564   1.190  14.311
92191SOL     OW78411  12.748  14.038   9.402
92191SOL    HW178412  12.753  13.949   9.368
92191SOL    HW278413  12.768  14.029   9.495
92192SOL     OW78414   8.191   8.558  14.073
92192SOL    HW178415   8.114   8.515  14.035
92192SOL    HW278416   8.257   8.554  14.004
92193SOL     OW78417   7.758   2.758   0.920
92193SOL    HW178418   7.808   2.800   0.850
92193SOL    HW278419   7.777   2.811   0.997
92194SOL     OW78420   1.949   2.507   1.211
92194SOL    HW178421   1.955   2.560   1.131
92194SOL    HW278422   1.890   2.555   1.268
92195SOL     OW78423   3.069   4.114   1.588
92195SOL    HW178424   3.082   4.062   1.668
92195SOL    HW278425   3.053   4.203   1.620
92196SOL     OW78426   3.501  11.378  10.874
92196SOL    HW178427   3.465  11.432  10.944
92196SOL    HW278428   3.593  11.365  10.899
92197SOL     OW78429   0.280  14.157   8.961
92197SOL    HW178430   0.195  14.126   8.928
92197SOL    HW278431   0.304  14.092   9.028
92198SOL     OW78432   5.376  13.190   8.708
92198SOL    HW178433   5.298  13.234   8.742
92198SOL    HW278434   5.392  13.119   8.770
92199SOL     OW78435  11.139   4.317   3.862
92199SOL    HW178436  11.163   4.225   3.873
92199SOL    HW278437  11.044   4.319   3.875
92200SOL     OW78438   2.505   8.300   1.042
92200SOL    HW178439   2.480   8.211   1.019
92200SOL    HW278440   2.587   8.290   1.091
92201SOL     OW78441   7.108  10.181   2.390
92201SOL    HW178442   7.034  10.234   2.419
92201SOL    HW278443   7.121  10.206   2.299
92202SOL     OW78444   4.030   1.168   7.625
92202SOL    HW178445   4.001   1.248   7.581
92202SOL    HW278446   3.961   1.104   7.608
92203SOL     OW78447   5.981   3.609  14.215
92203SOL    HW178448   6.009   3.670  14.147
92203SOL    HW278449   6.045   3.620  14.285
92204SOL     OW78450   7.631  10.863   3.849
92204SOL    HW178451   7.564  10.876   3.782
92204SOL    HW278452   7.662  10.774   3.835
92205SOL     OW78453   0.371   0.081   0.319
92205SOL    HW178454   0.337  14.876   0.349
92205SOL    HW278455   0.454   0.091   0.365
92206SOL     OW78456   4.193   5.349   9.149
92206SOL    HW178457   4.108   5.316   9.177
92206SOL    HW278458   4.251   5.335   9.223
92207SOL     OW78459  14.617   1.463  10.724
92207SOL    HW178460  14.552   1.519  10.767
92207SOL    HW278461  14.586   1.456  10.633
92208SOL     OW78462   3.863   2.124   1.373
92208SOL    HW178463   3.809   2.122   1.452
92208SOL    HW278464   3.833   2.202   1.326
92209SOL     OW78465   9.390   9.130  13.591
92209SOL    HW178466   9.305   9.174  13.594
92209SOL    HW278467   9.373   9.047  13.547
92210SOL     OW78468  10.770   4.767  12.476
92210SOL    HW178469  10.792   4.836  12.538
92210SOL    HW278470  10.721   4.812  12.406
92211SOL     OW78471   6.962  14.585  14.791
92211SOL    HW178472   7.048  14.551  14.765
92211SOL    HW278473   6.937  14.644  14.720
92212SOL     OW78474   4.466   8.507  11.018
92212SOL    HW178475   4.486   8.588  11.066
92212SOL    HW278476   4.532   8.503  10.949
92213SOL     OW78477   2.612   3.737   6.450
92213SOL    HW178478   2.639   3.762   6.362
92213SOL    HW278479   2.632   3.813   6.504
92214SOL     OW78480  10.040   5.454   1.916
92214SOL    HW178481  10.010   5.541   1.943
92214SOL    HW278482  10.095   5.424   1.988
92215SOL     OW78483   6.217  10.869   0.225
92215SOL    HW178484   6.285  10.909   0.280
92215SOL    HW278485   6.201  10.934   0.156
92216SOL     OW78486   8.739   1.241  14.456
92216SOL    HW178487   8.718   1.266  14.366
92216SOL    HW278488   8.832   1.261  14.466
92217SOL     OW78489   7.693  13.434   6.633
92217SOL    HW178490   7.601  13.446   6.657
92217SOL    HW278491   7.689  13.383   6.551
92218SOL     OW78492   3.159   8.526   5.091
92218SOL    HW178493   3.208   8.492   5.166
92218SOL    HW278494   3.196   8.612   5.074
92219SOL     OW78495   5.211   3.075  10.324
92219SOL    HW178496   5.251   3.136  10.385
92219SOL    HW278497   5.226   2.989  10.363
92220SOL     OW78498   6.275   4.500   8.965
92220SOL    HW178499   6.347   4.519   8.904
92220SOL    HW278500   6.212   4.450   8.913
92221SOL     OW78501   6.052  12.748   2.293
92221SOL    HW178502   6.097  12.795   2.223
92221SOL    HW278503   6.117  12.686   2.327
92222SOL     OW78504  14.055   9.606   9.491
92222SOL    HW178505  14.052   9.594   9.586
92222SOL    HW278506  14.003   9.685   9.475
92223SOL     OW78507   7.995   0.318   9.048
92223SOL    HW178508   8.021   0.311   9.140
92223SOL    HW278509   8.078   0.322   8.999
92224SOL     OW78510  12.522  12.471   0.550
92224SOL    HW178511  12.465  12.396   0.533
92224SOL    HW278512  12.520  12.521   0.468
92225SOL     OW78513   5.521  11.520   0.098
92225SOL    HW178514   5.543  11.427   0.101
92225SOL    HW278515   5.499  11.537   0.007
92226SOL     OW78516  11.156  10.707  11.106
92226SOL    HW178517  11.132  10.775  11.043
92226SOL    HW278518  11.115  10.734  11.188
92227SOL     OW78519  11.900   9.971  13.166
92227SOL    HW178520  11.936   9.912  13.100
92227SOL    HW278521  11.958   9.962  13.241
92228SOL     OW78522   8.615   8.056   7.851
92228SOL    HW178523   8.522   8.067   7.868
92228SOL    HW278524   8.631   8.106   7.771
92229SOL     OW78525   3.713  14.741  13.408
92229SOL    HW178526   3.648  14.798  13.367
92229SOL    HW278527   3.706  14.659  13.360
92230SOL     OW78528   6.728   3.315   4.399
92230SOL    HW178529   6.735   3.409   4.410
92230SOL    HW278530   6.633   3.298   4.398
92231SOL     OW78531   4.904  12.503   8.221
92231SOL    HW178532   4.961  12.464   8.287
92231SOL    HW278533   4.837  12.437   8.205
92232SOL     OW78534  11.454  10.308  11.260
92232SOL    HW178535  11.537  10.325  11.305
92232SOL    HW278536  11.430  10.393  11.223
92233SOL     OW78537   0.443   7.068  11.689
92233SOL    HW178538   0.523   7.105  11.727
92233SOL    HW278539   0.414   7.133  11.625
92234SOL     OW78540  11.332  14.093  12.397
92234SOL    HW178541  11.403  14.153  12.374
92234SOL    HW278542  11.268  14.148  12.442
92235SOL     OW78543   2.742   9.595   6.443
92235SOL    HW178544   2.832   9.587   6.475
92235SOL    HW278545   2.751   9.625   6.353
92236SOL     OW78546   1.587  10.535   7.261
92236SOL    HW178547   1.618  10.467   7.201
92236SOL    HW278548   1.504  10.502   7.295
92237SOL     OW78549  11.385   6.188   5.372
92237SOL    HW178550  11.367   6.276   5.339
92237SOL    HW278551  11.362   6.193   5.465
92238SOL     OW78552  12.460   3.076   2.182
92238SOL    HW178553  12.462   3.170   2.195
92238SOL    HW278554  12.432   3.065   2.091
92239SOL     OW78555   0.257  10.833   4.544
92239SOL    HW178556   0.339  10.825   4.594
92239SOL    HW278557   0.208  10.901   4.591
92240SOL     OW78558  14.852  13.043   4.511
92240SOL    HW178559   0.053  12.999   4.539
92240SOL    HW278560   0.002  13.112   4.452
92241SOL     OW78561  10.945  11.807   8.345
92241SOL    HW178562  10.933  11.756   8.265
92241SOL    HW278563  11.013  11.871   8.323
92242SOL     OW78564   1.011   0.902   7.187
92242SOL    HW178565   1.092   0.918   7.237
92242SOL    HW278566   0.945   0.883   7.253
92243SOL     OW78567  10.275  10.516   1.724
92243SOL    HW178568  10.305  10.469   1.802
92243SOL    HW278569  10.234  10.596   1.759
92244SOL     OW78570   5.447   9.380   3.292
92244SOL    HW178571   5.453   9.382   3.196
92244SOL    HW278572   5.403   9.461   3.316
92245SOL     OW78573   6.523   2.128   8.255
92245SOL    HW178574   6.460   2.143   8.184
92245SOL    HW278575   6.490   2.050   8.300
92246SOL     OW78576   1.085  11.918   2.352
92246SOL    HW178577   1.120  11.829   2.352
92246SOL    HW278578   1.034  11.924   2.271
92247SOL     OW78579  12.312  10.187   2.499
92247SOL    HW178580  12.300  10.271   2.453
92247SOL    HW278581  12.250  10.128   2.457
92248SOL     OW78582   9.161   2.303   3.884
92248SOL    HW178583   9.187   2.212   3.869
92248SOL    HW278584   9.192   2.322   3.972
92249SOL     OW78585   4.725   6.268   8.361
92249SOL    HW178586   4.715   6.177   8.387
92249SOL    HW278587   4.640   6.292   8.323
92250SOL     OW78588  10.355   5.596   0.351
92250SOL    HW178589  10.266   5.614   0.379
92250SOL    HW278590  10.363   5.639   0.266
92251SOL     OW78591   8.944   7.500   2.029
92251SOL    HW178592   9.005   7.439   2.070
92251SOL    HW278593   8.896   7.540   2.102
92252SOL     OW78594  12.282  13.029   4.429
92252SOL    HW178595  12.286  13.006   4.522
92252SOL    HW278596  12.274  12.944   4.385
92253SOL     OW78597   8.046   1.231   9.668
92253SOL    HW178598   8.037   1.320   9.700
92253SOL    HW278599   8.073   1.240   9.577
92254SOL     OW78600   7.942  13.111  13.413
92254SOL    HW178601   7.925  13.028  13.369
92254SOL    HW278602   7.863  13.129  13.463
92255SOL     OW78603   5.477   2.789   6.886
92255SOL    HW178604   5.500   2.826   6.972
92255SOL    HW278605   5.399   2.736   6.903
92256SOL     OW78606   7.580   2.584   6.966
92256SOL    HW178607   7.524   2.527   7.019
92256SOL    HW278608   7.652   2.527   6.939
92257SOL     OW78609  14.436   6.762   4.508
92257SOL    HW178610  14.448   6.739   4.600
92257SOL    HW278611  14.346   6.737   4.488
92258SOL     OW78612  11.485   5.843  12.215
92258SOL    HW178613  11.542   5.831  12.290
92258SOL    HW278614  11.537   5.815  12.140
92259SOL     OW78615   9.996   9.603   3.661
92259SOL    HW178616  10.005   9.685   3.710
92259SOL    HW278617   9.941   9.625   3.586
92260SOL     OW78618   3.048   4.363   7.791
92260SOL    HW178619   3.129   4.334   7.832
92260SOL    HW278620   3.050   4.323   7.704
92261SOL     OW78621   3.153  10.364  13.787
92261SOL    HW178622   3.151  10.421  13.863
92261SOL    HW278623   3.078  10.305  13.799
92262SOL     OW78624   4.587  12.678   7.770
92262SOL    HW178625   4.542  12.600   7.738
92262SOL    HW278626   4.629  12.715   7.692
92263SOL     OW78627   1.315   9.206  12.114
92263SOL    HW178628   1.231   9.179  12.077
92263SOL    HW278629   1.294   9.234  12.203
92264SOL     OW78630   9.440  10.170  11.067
92264SOL    HW178631   9.400  10.221  11.138
92264SOL    HW278632   9.369  10.114  11.035
92265SOL     OW78633  14.824  10.233  11.681
92265SOL    HW178634   0.007  10.167  11.712
92265SOL    HW278635  14.783  10.266  11.761
92266SOL     OW78636  11.239   4.253   9.399
92266SOL    HW178637  11.287   4.178   9.363
92266SOL    HW278638  11.255   4.324   9.337
92267SOL     OW78639  10.505  13.801   0.532
92267SOL    HW178640  10.521  13.724   0.478
92267SOL    HW278641  10.450  13.858   0.477
92268SOL     OW78642   2.804  10.713  14.833
92268SOL    HW178643   2.874  10.650  14.816
92268SOL    HW278644   2.801  10.722   0.049
92269SOL     OW78645   1.101  13.164   2.170
92269SOL    HW178646   1.187  13.201   2.148
92269SOL    HW278647   1.119  13.072   2.188
92270SOL     OW78648   8.842   3.025   6.303
92270SOL    HW178649   8.793   2.964   6.358
92270SOL    HW278650   8.875   2.971   6.231
92271SOL     OW78651   5.697  12.742  12.915
92271SOL    HW178652   5.613  12.751  12.870
92271SOL    HW278653   5.737  12.664  12.875
92272SOL     OW78654   4.213  13.192  11.878
92272SOL    HW178655   4.146  13.257  11.855
92272SOL    HW278656   4.170  13.133  11.939
92273SOL     OW78657   9.844  10.355   1.618
92273SOL    HW178658   9.797  10.277   1.588
92273SOL    HW278659   9.798  10.382   1.697
92274SOL     OW78660   1.485   2.878  13.192
92274SOL    HW178661   1.468   2.814  13.123
92274SOL    HW278662   1.515   2.956  13.146
92275SOL     OW78663   1.946   5.540  10.876
92275SOL    HW178664   1.885   5.501  10.938
92275SOL    HW278665   1.972   5.469  10.819
92276SOL     OW78666   6.323   9.676   0.679
92276SOL    HW178667   6.355   9.764   0.661
92276SOL    HW278668   6.256   9.688   0.746
92277SOL     OW78669  10.884  13.214  10.945
92277SOL    HW178670  10.905  13.241  11.035
92277SOL    HW278671  10.910  13.122  10.941
92278SOL     OW78672  10.847  11.296   9.234
92278SOL    HW178673  10.863  11.370   9.293
92278SOL    HW278674  10.820  11.225   9.291
92279SOL     OW78675   8.697   0.835   2.924
92279SOL    HW178676   8.785   0.826   2.960
92279SOL    HW278677   8.680   0.751   2.882
92280SOL     OW78678   5.410   9.241   4.335
92280SOL    HW178679   5.446   9.199   4.257
92280SOL    HW278680   5.349   9.306   4.302
92281SOL     OW78681   8.041   4.621   6.163
92281SOL    HW178682   8.092   4.577   6.096
92281SOL    HW278683   8.021   4.707   6.126
92282SOL     OW78684  14.635   8.984   6.865
92282SOL    HW178685  14.560   9.040   6.841
92282SOL    HW278686  14.605   8.938   6.943
92283SOL     OW78687   1.589   9.049  14.059
92283SOL    HW178688   1.544   9.069  13.977
92283SOL    HW278689   1.680   9.071  14.043
92284SOL     OW78690   9.081   6.318   9.187
92284SOL    HW178691   9.118   6.277   9.265
92284SOL    HW278692   9.145   6.301   9.118
92285SOL     OW78693   2.097   4.955  13.138
92285SOL    HW178694   2.094   4.896  13.062
92285SOL    HW278695   2.061   5.037  13.105
92286SOL     OW78696   2.729   2.393  14.131
92286SOL    HW178697   2.825   2.396  14.122
92286SOL    HW278698   2.714   2.420  14.222
92287SOL     OW78699   1.569   9.786   6.148
92287SOL    HW178700   1.506   9.721   6.118
92287SOL    HW278701   1.547   9.801   6.240
92288SOL     OW78702   3.983  14.021   3.835
92288SOL    HW178703   3.961  14.104   3.878
92288SOL    HW278704   3.977  13.955   3.905
92289SOL     OW78705   4.589   1.243  12.984
92289SOL    HW178706   4.608   1.244  13.077
92289SOL    HW278707   4.510   1.188  12.976
92290SOL     OW78708   4.050  10.328  12.945
92290SOL    HW178709   4.037  10.383  13.022
92290SOL    HW278710   4.001  10.372  12.876
92291SOL     OW78711   0.333  12.570  14.776
92291SOL    HW178712   0.287  12.607  14.701
92291SOL    HW278713   0.341  12.477  14.755
92292SOL     OW78714  12.128   4.593   2.174
92292SOL    HW178715  12.103   4.507   2.141
92292SOL    HW278716  12.085   4.601   2.258
92293SOL     OW78717   3.971   2.539   8.372
92293SOL    HW178718   4.048   2.583   8.410
92293SOL    HW278719   4.008   2.479   8.308
92294SOL     OW78720  12.324   4.669  10.813
92294SOL    HW178721  12.246   4.724  10.812
92294SOL    HW278722  12.306   4.601  10.749
92295SOL     OW78723   3.693  11.235   0.110
92295SOL    HW178724   3.630  11.196   0.170
92295SOL    HW278725   3.644  11.303   0.064
92296SOL     OW78726   0.512  14.230   4.428
92296SOL    HW178727   0.576  14.287   4.471
92296SOL    HW278728   0.558  14.193   4.353
92297SOL     OW78729  10.290   6.130   7.234
92297SOL    HW178730  10.210   6.102   7.189
92297SOL    HW278731  10.343   6.051   7.241
92298SOL     OW78732  10.691   1.449   1.894
92298SOL    HW178733  10.726   1.410   1.814
92298SOL    HW278734  10.660   1.375   1.945
92299SOL     OW78735  14.112   8.958   9.306
92299SOL    HW178736  14.154   8.972   9.391
92299SOL    HW278737  14.118   9.042   9.262
92300SOL     OW78738  12.887   5.368  11.887
92300SOL    HW178739  12.959   5.374  11.949
92300SOL    HW278740  12.862   5.276  11.887
92301SOL     OW78741   6.296  11.858   9.216
92301SOL    HW178742   6.224  11.843   9.278
92301SOL    HW278743   6.375  11.850   9.269
92302SOL     OW78744   9.513  13.464   4.639
92302SOL    HW178745   9.534  13.550   4.676
92302SOL    HW278746   9.423  13.448   4.665
92303SOL     OW78747   6.181   3.225   4.077
92303SOL    HW178748   6.164   3.272   4.158
92303SOL    HW278749   6.259   3.173   4.095
92304SOL     OW78750   9.299   8.599   8.611
92304SOL    HW178751   9.270   8.529   8.670
92304SOL    HW278752   9.327   8.554   8.532
92305SOL     OW78753  10.799   5.869   6.080
92305SOL    HW178754  10.894   5.856   6.082
92305SOL    HW278755  10.784   5.913   5.996
92306SOL     OW78756  14.301   2.831   3.086
92306SOL    HW178757  14.303   2.912   3.136
92306SOL    HW278758  14.241   2.774   3.134
92307SOL     OW78759   2.165   5.176  14.574
92307SOL    HW178760   2.259   5.158  14.580
92307SOL    HW278761   2.127   5.091  14.553
92308SOL     OW78762   0.841  10.057   3.796
92308SOL    HW178763   0.816   9.998   3.867
92308SOL    HW278764   0.923  10.020   3.762
92309SOL     OW78765  13.725  14.322  10.080
92309SOL    HW178766  13.786  14.271  10.133
92309SOL    HW278767  13.699  14.263  10.010
92310SOL     OW78768  11.053   1.189  13.006
92310SOL    HW178769  11.028   1.115  13.062
92310SOL    HW278770  10.976   1.202  12.950
92311SOL     OW78771   7.002  11.996   4.964
92311SOL    HW178772   6.925  11.942   4.980
92311SOL    HW278773   7.072  11.953   5.012
92312SOL     OW78774  13.253  14.691   8.110
92312SOL    HW178775  13.271  14.662   8.020
92312SOL    HW278776  13.332  14.737   8.137
92313SOL     OW78777  14.095   7.339   8.269
92313SOL    HW178778  14.181   7.348   8.228
92313SOL    HW278779  14.079   7.424   8.310
92314SOL     OW78780   5.682   4.772   6.047
92314SOL    HW178781   5.681   4.768   6.143
92314SOL    HW278782   5.767   4.812   6.026
92315SOL     OW78783  10.645   3.070   6.660
92315SOL    HW178784  10.636   3.032   6.747
92315SOL    HW278785  10.558   3.064   6.621
92316SOL     OW78786  14.208   9.455   1.455
92316SOL    HW178787  14.239   9.448   1.545
92316SOL    HW278788  14.273   9.509   1.410
92317SOL     OW78789   2.656   1.870  10.847
92317SOL    HW178790   2.658   1.775  10.847
92317SOL    HW278791   2.583   1.893  10.904
92318SOL     OW78792  10.556   0.310   4.320
92318SOL    HW178793  10.631   0.280   4.371
92318SOL    HW278794  10.514   0.230   4.290
92319SOL     OW78795  11.620  12.060   6.773
92319SOL    HW178796  11.598  12.061   6.866
92319SOL    HW278797  11.595  12.147   6.741
92320SOL     OW78798  10.031   9.650   1.312
92320SOL    HW178799   9.938   9.674   1.313
92320SOL    HW278800  10.030   9.555   1.319
92321SOL     OW78801  11.755   9.130   5.360
92321SOL    HW178802  11.773   9.222   5.380
92321SOL    HW278803  11.785   9.083   5.438
92322SOL     OW78804  14.456   0.889   9.440
92322SOL    HW178805  14.439   0.974   9.400
92322SOL    HW278806  14.515   0.845   9.380
92323SOL     OW78807  13.548   1.113   6.307
92323SOL    HW178808  13.562   1.130   6.214
92323SOL    HW278809  13.546   1.200   6.347
92324SOL     OW78810  13.271   6.336   7.617
92324SOL    HW178811  13.287   6.321   7.710
92324SOL    HW278812  13.323   6.413   7.596
92325SOL     OW78813   4.584  10.553  11.670
92325SOL    HW178814   4.627  10.487  11.725
92325SOL    HW278815   4.504  10.576  11.718
92326SOL     OW78816  12.858   8.365  11.941
92326SOL    HW178817  12.801   8.297  11.977
92326SOL    HW278818  12.798   8.426  11.899
92327SOL     OW78819   4.096   7.763   1.957
92327SOL    HW178820   4.131   7.722   1.878
92327SOL    HW278821   4.002   7.747   1.952
92328SOL     OW78822   6.729   3.355   7.687
92328SOL    HW178823   6.785   3.365   7.610
92328SOL    HW278824   6.673   3.433   7.686
92329SOL     OW78825   4.054   2.977   2.412
92329SOL    HW178826   4.008   3.044   2.462
92329SOL    HW278827   4.119   3.025   2.361
92330SOL     OW78828  13.217  11.977  10.701
92330SOL    HW178829  13.184  12.008  10.617
92330SOL    HW278830  13.205  12.051  10.761
92331SOL     OW78831   6.720   2.220   1.054
92331SOL    HW178832   6.750   2.140   1.098
92331SOL    HW278833   6.800   2.264   1.026
92332SOL     OW78834  14.084   8.537   9.386
92332SOL    HW178835  14.076   8.442   9.388
92332SOL    HW278836  14.179   8.553   9.384
92333SOL     OW78837  12.669  12.076  13.988
92333SOL    HW178838  12.624  12.137  13.930
92333SOL    HW278839  12.723  12.023  13.930
92334SOL     OW78840   8.635   8.861  12.573
92334SOL    HW178841   8.547   8.890  12.549
92334SOL    HW278842   8.684   8.863  12.491
92335SOL     OW78843  11.302  11.106   5.574
92335SOL    HW178844  11.316  11.069   5.662
92335SOL    HW278845  11.282  11.198   5.590
92336SOL     OW78846  14.285   7.569   4.953
92336SOL    HW178847  14.234   7.593   5.030
92336SOL    HW278848  14.375   7.594   4.975
92337SOL     OW78849   3.114  12.693   0.406
92337SOL    HW178850   3.044  12.639   0.370
92337SOL    HW278851   3.069  12.763   0.452
92338SOL     OW78852   8.087   5.297   2.993
92338SOL    HW178853   8.101   5.235   2.921
92338SOL    HW278854   7.998   5.328   2.981
92339SOL     OW78855  12.628   8.219  14.237
92339SOL    HW178856  12.598   8.136  14.200
92339SOL    HW278857  12.552   8.251  14.287
92340SOL     OW78858   1.728   5.978  13.768
92340SOL    HW178859   1.644   6.002  13.806
92340SOL    HW278860   1.707   5.937  13.684
92341SOL     OW78861   0.205   6.477  14.291
92341SOL    HW178862   0.237   6.434  14.371
92341SOL    HW278863   0.224   6.570  14.305
92342SOL     OW78864   9.362   3.398   0.210
92342SOL    HW178865   9.278   3.439   0.190
92342SOL    HW278866   9.347   3.305   0.193
92343SOL     OW78867   6.341   6.457   1.535
92343SOL    HW178868   6.326   6.462   1.630
92343SOL    HW278869   6.256   6.480   1.497
92344SOL     OW78870  13.634   5.937  10.123
92344SOL    HW178871  13.572   5.872  10.091
92344SOL    HW278872  13.617   6.014  10.068
92345SOL     OW78873   2.132   5.504  14.215
92345SOL    HW178874   2.053   5.552  14.239
92345SOL    HW278875   2.202   5.546  14.265
92346SOL     OW78876   9.386   8.457  14.489
92346SOL    HW178877   9.381   8.551  14.478
92346SOL    HW278878   9.477   8.440  14.515
92347SOL     OW78879   3.282  13.650  13.715
92347SOL    HW178880   3.292  13.705  13.793
92347SOL    HW278881   3.194  13.669  13.683
92348SOL     OW78882  12.959  13.131  12.914
92348SOL    HW178883  13.008  13.206  12.947
92348SOL    HW278884  13.016  13.056  12.930
92349SOL     OW78885   3.092  10.358  11.923
92349SOL    HW178886   3.099  10.293  11.853
92349SOL    HW278887   3.165  10.339  11.981
92350SOL     OW78888   3.987   8.950   5.117
92350SOL    HW178889   3.899   8.976   5.144
92350SOL    HW278890   3.984   8.855   5.114
92351SOL     OW78891  11.893   5.583   2.458
92351SOL    HW178892  11.934   5.582   2.372
92351SOL    HW278893  11.809   5.627   2.445
92352SOL     OW78894   9.494   1.720   4.720
92352SOL    HW178895   9.463   1.695   4.633
92352SOL    HW278896   9.556   1.651   4.745
92353SOL     OW78897   3.991   9.544   3.441
92353SOL    HW178898   4.041   9.490   3.503
92353SOL    HW278899   4.017   9.634   3.461
92354SOL     OW78900   8.018   1.437   1.441
92354SOL    HW178901   7.993   1.388   1.363
92354SOL    HW278902   8.095   1.487   1.414
92355SOL     OW78903   2.730  14.377   8.531
92355SOL    HW178904   2.664  14.429   8.577
92355SOL    HW278905   2.690  14.291   8.521
92356SOL     OW78906  10.988   2.714   8.688
92356SOL    HW178907  11.005   2.806   8.709
92356SOL    HW278908  10.912   2.716   8.631
92357SOL     OW78909  11.129  13.803   9.206
92357SOL    HW178910  11.055  13.743   9.216
92357SOL    HW278911  11.167  13.810   9.293
92358SOL     OW78912  12.357  12.355   7.701
92358SOL    HW178913  12.379  12.343   7.793
92358SOL    HW278914  12.401  12.436   7.676
92359SOL     OW78915  12.957  14.860   2.529
92359SOL    HW178916  12.965  14.871   2.434
92359SOL    HW278917  13.032  14.805   2.553
92360SOL     OW78918   3.408   4.600   4.075
92360SOL    HW178919   3.320   4.610   4.112
92360SOL    HW278920   3.409   4.660   4.001
92361SOL     OW78921  12.393   4.041   2.760
92361SOL    HW178922  12.383   4.017   2.667
92361SOL    HW278923  12.399   4.136   2.759
92362SOL     OW78924   6.710   4.533  11.662
92362SOL    HW178925   6.632   4.579  11.632
92362SOL    HW278926   6.780   4.599  11.658
92363SOL     OW78927   1.583  10.184  12.747
92363SOL    HW178928   1.626  10.174  12.662
92363SOL    HW278929   1.596  10.277  12.770
92364SOL     OW78930   2.106  12.995  13.930
92364SOL    HW178931   2.105  12.921  13.990
92364SOL    HW278932   2.073  12.959  13.848
92365SOL     OW78933   2.321   1.039   0.258
92365SOL    HW178934   2.295   0.955   0.222
92365SOL    HW278935   2.329   1.097   0.181
92366SOL     OW78936   8.715  11.023   2.875
92366SOL    HW178937   8.761  10.951   2.919
92366SOL    HW278938   8.651  10.979   2.819
92367SOL     OW78939   1.997   2.257   4.431
92367SOL    HW178940   2.058   2.280   4.501
92367SOL    HW278941   2.051   2.210   4.367
92368SOL     OW78942   6.090   2.743  12.473
92368SOL    HW178943   6.043   2.673  12.428
92368SOL    HW278944   6.036   2.821  12.462
92369SOL     OW78945  13.867  14.574   0.320
92369SOL    HW178946  13.887  14.509   0.387
92369SOL    HW278947  13.772  14.577   0.318
92370SOL     OW78948  12.137   5.575   8.513
92370SOL    HW178949  12.171   5.646   8.566
92370SOL    HW278950  12.166   5.495   8.557
92371SOL     OW78951   8.220   6.067  10.224
92371SOL    HW178952   8.136   6.042  10.186
92371SOL    HW278953   8.276   5.990  10.215
92372SOL     OW78954  11.559   7.745   7.250
92372SOL    HW178955  11.641   7.782   7.215
92372SOL    HW278956  11.490   7.789   7.199
92373SOL     OW78957  13.909  13.322   4.896
92373SOL    HW178958  13.932  13.229   4.896
92373SOL    HW278959  13.989  13.367   4.924
92374SOL     OW78960   3.990   0.501  11.327
92374SOL    HW178961   3.918   0.519  11.389
92374SOL    HW278962   4.069   0.527  11.374
92375SOL     OW78963   9.407  12.247   6.734
92375SOL    HW178964   9.373  12.158   6.719
92375SOL    HW278965   9.469  12.261   6.662
92376SOL     OW78966   9.948   6.281   1.865
92376SOL    HW178967   9.946   6.274   1.961
92376SOL    HW278968  10.016   6.219   1.838
92377SOL     OW78969  13.820  12.168   3.394
92377SOL    HW178970  13.738  12.204   3.428
92377SOL    HW278971  13.883  12.180   3.465
92378SOL     OW78972   4.874   3.108   1.573
92378SOL    HW178973   4.942   3.173   1.556
92378SOL    HW278974   4.852   3.120   1.666
92379SOL     OW78975   2.141  10.047   6.232
92379SOL    HW178976   2.221  10.092   6.206
92379SOL    HW278977   2.096  10.028   6.149
92380SOL     OW78978   3.779   0.985   0.599
92380SOL    HW178979   3.698   1.025   0.569
92380SOL    HW278980   3.770   0.892   0.575
92381SOL     OW78981  14.034  11.288   1.492
92381SOL    HW178982  14.095  11.361   1.506
92381SOL    HW278983  14.046  11.233   1.569
92382SOL     OW78984   8.387   1.956   5.073
92382SOL    HW178985   8.425   1.870   5.052
92382SOL    HW278986   8.443   1.991   5.142
92383SOL     OW78987  12.539   7.201   9.199
92383SOL    HW178988  12.511   7.206   9.108
92383SOL    HW278989  12.592   7.280   9.212
92384SOL     OW78990  13.602   4.229   1.779
92384SOL    HW178991  13.682   4.206   1.733
92384SOL    HW278992  13.534   4.173   1.741
92385SOL     OW78993  14.760  10.414  12.669
92385SOL    HW178994  14.731  10.361  12.595
92385SOL    HW278995  14.786  10.498  12.629
92386SOL     OW78996   4.209   2.539   3.121
92386SOL    HW178997   4.175   2.535   3.210
92386SOL    HW278998   4.241   2.450   3.104
92387SOL     OW78999   6.282   7.448   9.878
92387SOL    HW179000   6.314   7.514   9.939
92387SOL    HW279001   6.317   7.474   9.793
92388SOL     OW79002  10.574  14.222  13.184
92388SOL    HW179003  10.513  14.225  13.111
92388SOL    HW279004  10.563  14.307  13.228
92389SOL     OW79005   5.240   4.662   0.508
92389SOL    HW179006   5.222   4.710   0.427
92389SOL    HW279007   5.171   4.595   0.511
92390SOL     OW79008  13.031   6.579  11.041
92390SOL    HW179009  13.044   6.484  11.037
92390SOL    HW279010  13.008   6.596  11.132
92391SOL     OW79011   1.882   5.392   0.554
92391SOL    HW179012   1.861   5.444   0.631
92391SOL    HW279013   1.942   5.325   0.585
92392SOL     OW79014   1.425   0.279   9.877
92392SOL    HW179015   1.508   0.236   9.855
92392SOL    HW279016   1.448   0.371   9.890
92393SOL     OW79017   3.854   8.274  12.935
92393SOL    HW179018   3.836   8.182  12.951
92393SOL    HW279019   3.867   8.280  12.841
92394SOL     OW79020   8.750   5.126  14.251
92394SOL    HW179021   8.788   5.211  14.275
92394SOL    HW279022   8.740   5.080  14.334
92395SOL     OW79023   3.028   1.033   5.369
92395SOL    HW179024   2.999   1.008   5.281
92395SOL    HW279025   2.959   0.999   5.427
92396SOL     OW79026   8.368   2.172   0.817
92396SOL    HW179027   8.295   2.138   0.766
92396SOL    HW279028   8.342   2.262   0.839
92397SOL     OW79029  10.864  10.493  14.005
92397SOL    HW179030  10.921  10.461  13.935
92397SOL    HW279031  10.804  10.553  13.962
92398SOL     OW79032  14.136   7.669  11.038
92398SOL    HW179033  14.168   7.585  11.006
92398SOL    HW279034  14.040   7.660  11.037
92399SOL     OW79035   6.422   1.773   2.975
92399SOL    HW179036   6.481   1.698   2.984
92399SOL    HW279037   6.470   1.846   3.013
92400SOL     OW79038   2.043  10.846   2.016
92400SOL    HW179039   2.012  10.838   1.926
92400SOL    HW279040   1.992  10.781   2.065
92401SOL     OW79041  14.060   0.057   2.750
92401SOL    HW179042  14.081   0.105   2.830
92401SOL    HW279043  13.968   0.033   2.760
92402SOL     OW79044   4.840   0.914   1.890
92402SOL    HW179045   4.902   0.950   1.827
92402SOL    HW279046   4.757   0.954   1.867
92403SOL     OW79047   7.078   7.272   3.386
92403SOL    HW179048   7.141   7.237   3.323
92403SOL    HW279049   7.119   7.353   3.418
92404SOL     OW79050   2.020  14.000   5.764
92404SOL    HW179051   2.010  13.915   5.808
92404SOL    HW279052   2.112  14.024   5.778
92405SOL     OW79053  12.001   6.666  10.472
92405SOL    HW179054  11.939   6.603  10.508
92405SOL    HW279055  11.967   6.751  10.500
92406SOL     OW79056   2.851   9.411   6.691
92406SOL    HW179057   2.838   9.452   6.776
92406SOL    HW279058   2.771   9.433   6.642
92407SOL     OW79059   1.958   0.851   3.724
92407SOL    HW179060   1.917   0.891   3.648
92407SOL    HW279061   1.895   0.784   3.752
92408SOL     OW79062  12.018   8.611   2.123
92408SOL    HW179063  12.048   8.595   2.033
92408SOL    HW279064  11.942   8.668   2.113
92409SOL     OW79065   3.650   2.576   0.900
92409SOL    HW179066   3.661   2.541   0.989
92409SOL    HW279067   3.584   2.645   0.910
92410SOL     OW79068  10.599   7.516   1.587
92410SOL    HW179069  10.645   7.575   1.647
92410SOL    HW279070  10.661   7.445   1.571
92411SOL     OW79071   8.730   8.358   1.667
92411SOL    HW179072   8.813   8.351   1.713
92411SOL    HW279073   8.734   8.442   1.622
92412SOL     OW79074  13.844   9.875   5.900
92412SOL    HW179075  13.882   9.829   5.826
92412SOL    HW279076  13.866   9.967   5.885
92413SOL     OW79077   7.014  10.921   2.424
92413SOL    HW179078   7.031  10.864   2.499
92413SOL    HW279079   7.061  11.002   2.446
92414SOL     OW79080   6.621  12.364   4.649
92414SOL    HW179081   6.632  12.284   4.597
92414SOL    HW279082   6.710  12.396   4.662
92415SOL     OW79083  14.276  14.348   4.642
92415SOL    HW179084  14.340  14.415   4.621
92415SOL    HW279085  14.301  14.318   4.730
92416SOL     OW79086   8.105  14.304   5.216
92416SOL    HW179087   8.182  14.248   5.222
92416SOL    HW279088   8.075  14.313   5.307
92417SOL     OW79089  13.066   1.646   2.626
92417SOL    HW179090  13.127   1.686   2.564
92417SOL    HW279091  12.985   1.634   2.576
92418SOL     OW79092   5.237   9.166  10.512
92418SOL    HW179093   5.257   9.199  10.600
92418SOL    HW279094   5.318   9.123  10.485
92419SOL     OW79095  13.663   4.299  11.076
92419SOL    HW179096  13.743   4.266  11.037
92419SOL    HW279097  13.692   4.367  11.136
92420SOL     OW79098   1.929   8.073  11.048
92420SOL    HW179099   1.932   7.986  11.007
92420SOL    HW279100   1.958   8.133  10.979
92421SOL     OW79101  10.357   4.499   7.165
92421SOL    HW179102  10.285   4.489   7.102
92421SOL    HW279103  10.322   4.561   7.230
92422SOL     OW79104  14.166  12.781   5.655
92422SOL    HW179105  14.243  12.735   5.689
92422SOL    HW279106  14.096  12.715   5.660
92423SOL     OW79107   2.960   0.122  13.752
92423SOL    HW179108   2.940   0.138  13.844
92423SOL    HW279109   2.958   0.026  13.744
92424SOL     OW79110   2.583   0.591  13.233
92424SOL    HW179111   2.563   0.685  13.230
92424SOL    HW279112   2.623   0.579  13.319
92425SOL     OW79113   1.317  12.403  11.574
92425SOL    HW179114   1.352  12.319  11.605
92425SOL    HW279115   1.253  12.429  11.640
92426SOL     OW79116  10.158   3.497   7.667
92426SOL    HW179117  10.086   3.475   7.727
92426SOL    HW279118  10.147   3.590   7.650
92427SOL     OW79119   2.699   3.496   0.902
92427SOL    HW179120   2.653   3.441   0.966
92427SOL    HW279121   2.791   3.483   0.922
92428SOL     OW79122  11.949   4.160   6.535
92428SOL    HW179123  11.858   4.184   6.517
92428SOL    HW279124  11.997   4.188   6.458
92429SOL     OW79125   7.285  12.714   4.173
92429SOL    HW179126   7.269  12.808   4.185
92429SOL    HW279127   7.339  12.690   4.248
92430SOL     OW79128  14.617  13.121   3.398
92430SOL    HW179129  14.609  13.110   3.303
92430SOL    HW279130  14.655  13.208   3.409
92431SOL     OW79131   6.724  11.602   8.826
92431SOL    HW179132   6.768  11.607   8.741
92431SOL    HW279133   6.690  11.513   8.829
92432SOL     OW79134   5.342   9.741  11.521
92432SOL    HW179135   5.257   9.710  11.553
92432SOL    HW279136   5.371   9.804  11.588
92433SOL     OW79137   7.090  13.008   7.955
92433SOL    HW179138   7.131  12.990   8.040
92433SOL    HW279139   7.161  13.042   7.900
92434SOL     OW79140   5.460   8.591   1.904
92434SOL    HW179141   5.497   8.527   1.964
92434SOL    HW279142   5.534   8.646   1.878
92435SOL     OW79143   9.840   7.410   2.248
92435SOL    HW179144   9.801   7.465   2.180
92435SOL    HW279145   9.768   7.357   2.281
92436SOL     OW79146  12.674   5.734   5.917
92436SOL    HW179147  12.634   5.711   6.001
92436SOL    HW279148  12.732   5.808   5.938
92437SOL     OW79149   3.041   4.142  14.373
92437SOL    HW179150   3.010   4.206  14.308
92437SOL    HW279151   2.978   4.149  14.445
92438SOL     OW79152   2.110  11.879  11.220
92438SOL    HW179153   2.184  11.901  11.163
92438SOL    HW279154   2.062  11.812  11.172
92439SOL     OW79155   9.110   3.412   5.312
92439SOL    HW179156   9.097   3.431   5.219
92439SOL    HW279157   9.159   3.330   5.314
92440SOL     OW79158  10.493  11.181   9.377
92440SOL    HW179159  10.403  11.182   9.345
92440SOL    HW279160  10.504  11.267   9.418
92441SOL     OW79161  11.421  10.239  14.514
92441SOL    HW179162  11.458  10.151  14.511
92441SOL    HW279163  11.377  10.244  14.599
92442SOL     OW79164   7.328   1.530  14.241
92442SOL    HW179165   7.263   1.588  14.281
92442SOL    HW279166   7.405   1.538  14.297
92443SOL     OW79167   2.734   1.743   7.542
92443SOL    HW179168   2.744   1.672   7.478
92443SOL    HW279169   2.804   1.805   7.520
92444SOL     OW79170   3.641   0.398   1.225
92444SOL    HW179171   3.636   0.361   1.313
92444SOL    HW279172   3.688   0.333   1.174
92445SOL     OW79173   8.573  11.102  11.893
92445SOL    HW179174   8.534  11.188  11.879
92445SOL    HW279175   8.582  11.095  11.988
92446SOL     OW79176   1.988   6.520   6.371
92446SOL    HW179177   2.014   6.564   6.290
92446SOL    HW279178   1.984   6.590   6.436
92447SOL     OW79179  12.576  10.253   1.257
92447SOL    HW179180  12.554  10.266   1.164
92447SOL    HW279181  12.502  10.204   1.292
92448SOL     OW79182   8.773   3.808   3.183
92448SOL    HW179183   8.686   3.848   3.175
92448SOL    HW279184   8.828   3.878   3.218
92449SOL     OW79185   8.405  14.647   5.139
92449SOL    HW179186   8.315  14.671   5.117
92449SOL    HW279187   8.404  14.630   5.233
92450SOL     OW79188   8.462   7.308  13.034
92450SOL    HW179189   8.499   7.243  12.975
92450SOL    HW279190   8.535   7.332  13.092
92451SOL     OW79191   7.788   8.100   1.479
92451SOL    HW179192   7.852   8.033   1.504
92451SOL    HW279193   7.727   8.055   1.421
92452SOL     OW79194   0.300   9.505   1.652
92452SOL    HW179195   0.334   9.416   1.659
92452SOL    HW279196   0.225   9.507   1.711
92453SOL     OW79197   0.011   4.298  14.000
92453SOL    HW179198   0.010   4.332  13.910
92453SOL    HW279199  14.814   4.240  14.004
92454SOL     OW79200  10.715   4.725  10.663
92454SOL    HW179201  10.791   4.685  10.621
92454SOL    HW279202  10.731   4.819  10.659
92455SOL     OW79203   9.766   2.688  11.795
92455SOL    HW179204   9.821   2.766  11.802
92455SOL    HW279205   9.685   2.711  11.841
92456SOL     OW79206  14.314   9.588   0.957
92456SOL    HW179207  14.221   9.562   0.959
92456SOL    HW279208  14.320   9.647   0.882
92457SOL     OW79209   6.508   8.676   4.899
92457SOL    HW179210   6.456   8.668   4.979
92457SOL    HW279211   6.544   8.764   4.902
92458SOL     OW79212   2.294   0.524   8.430
92458SOL    HW179213   2.288   0.602   8.375
92458SOL    HW279214   2.384   0.493   8.419
92459SOL     OW79215  13.256  11.489   4.691
92459SOL    HW179216  13.190  11.554   4.717
92459SOL    HW279217  13.340  11.532   4.709
92460SOL     OW79218   5.644   3.489   8.905
92460SOL    HW179219   5.729   3.469   8.945
92460SOL    HW279220   5.622   3.576   8.936
92461SOL     OW79221  10.436  11.414   9.005
92461SOL    HW179222  10.492  11.423   8.928
92461SOL    HW279223  10.458  11.489   9.060
92462SOL     OW79224  12.843   2.558  13.146
92462SOL    HW179225  12.816   2.494  13.212
92462SOL    HW279226  12.935   2.575  13.167
92463SOL     OW79227   5.432   9.809   3.839
92463SOL    HW179228   5.508   9.752   3.851
92463SOL    HW279229   5.382   9.768   3.769
92464SOL     OW79230   7.575   2.822   6.499
92464SOL    HW179231   7.523   2.767   6.558
92464SOL    HW279232   7.575   2.909   6.540
92465SOL     OW79233  10.127   4.089  13.998
92465SOL    HW179234  10.092   4.098  14.087
92465SOL    HW279235  10.182   4.011  14.002
92466SOL     OW79236   2.649   0.019   8.184
92466SOL    HW179237   2.669   0.053   8.097
92466SOL    HW279238   2.717  14.831   8.199
92467SOL     OW79239   0.404  13.798  12.548
92467SOL    HW179240   0.407  13.801  12.644
92467SOL    HW279241   0.495  13.806  12.521
92468SOL     OW79242  12.789   7.835   4.659
92468SOL    HW179243  12.743   7.836   4.743
92468SOL    HW279244  12.791   7.927   4.632
92469SOL     OW79245   1.172  13.136  11.791
92469SOL    HW179246   1.204  13.212  11.839
92469SOL    HW279247   1.201  13.151  11.701
92470SOL     OW79248  13.338  10.302   8.874
92470SOL    HW179249  13.269  10.288   8.939
92470SOL    HW279250  13.295  10.348   8.802
92471SOL     OW79251   2.777  10.349  14.843
92471SOL    HW179252   2.863  10.392  14.849
92471SOL    HW279253   2.746  10.368  14.755
92472SOL     OW79254  13.926   8.551   0.918
92472SOL    HW179255  13.940   8.587   0.830
92472SOL    HW279256  14.011   8.557   0.960
92473SOL     OW79257   0.265   1.720   9.551
92473SOL    HW179258   0.315   1.727   9.632
92473SOL    HW279259   0.181   1.683   9.577
92474SOL     OW79260   6.359  11.289  10.198
92474SOL    HW179261   6.403  11.226  10.140
92474SOL    HW279262   6.425  11.310  10.264
92475SOL     OW79263   9.971  12.778  11.814
92475SOL    HW179264   9.911  12.708  11.840
92475SOL    HW279265   9.986  12.763  11.721
92476SOL     OW79266  14.175   4.550   8.084
92476SOL    HW179267  14.222   4.481   8.131
92476SOL    HW279268  14.213   4.548   7.996
92477SOL     OW79269   3.465   5.740   3.943
92477SOL    HW179270   3.447   5.747   4.037
92477SOL    HW279271   3.494   5.827   3.917
92478SOL     OW79272   4.676   1.251   1.042
92478SOL    HW179273   4.743   1.185   1.057
92478SOL    HW279274   4.707   1.299   0.965
92479SOL     OW79275  14.122   9.226   3.330
92479SOL    HW179276  14.047   9.180   3.368
92479SOL    HW279277  14.187   9.228   3.400
92480SOL     OW79278   5.099  13.050  14.878
92480SOL    HW179279   5.053  13.012  14.803
92480SOL    HW279280   5.185  13.009  14.876
92481SOL     OW79281   9.322   2.992   3.687
92481SOL    HW179282   9.380   2.976   3.761
92481SOL    HW279283   9.375   3.043   3.625
92482SOL     OW79284   9.156   3.943  14.018
92482SOL    HW179285   9.161   3.854  13.982
92482SOL    HW279286   9.149   4.000  13.941
92483SOL     OW79287   9.463   4.318  11.341
92483SOL    HW179288   9.451   4.290  11.250
92483SOL    HW279289   9.558   4.325  11.351
92484SOL     OW79290   6.012   4.095   8.070
92484SOL    HW179291   6.070   4.054   8.135
92484SOL    HW279292   5.935   4.038   8.067
92485SOL     OW79293   2.416   5.308   1.736
92485SOL    HW179294   2.472   5.378   1.702
92485SOL    HW279295   2.354   5.291   1.665
92486SOL     OW79296   5.656   9.186   2.243
92486SOL    HW179297   5.603   9.265   2.226
92486SOL    HW279298   5.739   9.204   2.201
92487SOL     OW79299   7.737   7.331  11.231
92487SOL    HW179300   7.798   7.345  11.158
92487SOL    HW279301   7.696   7.416  11.245
92488SOL     OW79302   2.283   7.515   9.129
92488SOL    HW179303   2.231   7.594   9.147
92488SOL    HW279304   2.273   7.502   9.034
92489SOL     OW79305   5.122  13.166   5.414
92489SOL    HW179306   5.098  13.246   5.368
92489SOL    HW279307   5.039  13.123   5.433
92490SOL     OW79308   4.365  10.948  11.067
92490SOL    HW179309   4.329  10.942  10.978
92490SOL    HW279310   4.459  10.939  11.056
92491SOL     OW79311   8.551   7.175  13.600
92491SOL    HW179312   8.526   7.251  13.548
92491SOL    HW279313   8.470   7.125  13.610
92492SOL     OW79314   2.910  12.651   2.853
92492SOL    HW179315   2.877  12.722   2.908
92492SOL    HW279316   2.853  12.652   2.776
92493SOL     OW79317   7.867  13.257  11.313
92493SOL    HW179318   7.774  13.268  11.295
92493SOL    HW279319   7.910  13.324  11.259
92494SOL     OW79320   7.862   3.317   6.890
92494SOL    HW179321   7.854   3.403   6.933
92494SOL    HW279322   7.783   3.270   6.918
92495SOL     OW79323  12.897   8.557   8.819
92495SOL    HW179324  12.864   8.546   8.730
92495SOL    HW279325  12.913   8.651   8.828
92496SOL     OW79326  11.752   5.815  14.020
92496SOL    HW179327  11.692   5.840  14.090
92496SOL    HW279328  11.755   5.892  13.963
92497SOL     OW79329   8.779   1.846   6.001
92497SOL    HW179330   8.707   1.828   6.062
92497SOL    HW279331   8.858   1.841   6.055
92498SOL     OW79332   2.488  11.332  13.362
92498SOL    HW179333   2.553  11.294  13.421
92498SOL    HW279334   2.533  11.408  13.323
92499SOL     OW79335  13.488  14.121   2.790
92499SOL    HW179336  13.561  14.059   2.793
92499SOL    HW279337  13.428  14.084   2.726
92500SOL     OW79338  11.950  13.986  12.151
92500SOL    HW179339  11.909  14.071  12.165
92500SOL    HW279340  12.032  13.990  12.200
92501SOL     OW79341   1.853   9.504   8.532
92501SOL    HW179342   1.849   9.408   8.532
92501SOL    HW279343   1.945   9.524   8.552
92502SOL     OW79344   4.865  14.469   1.398
92502SOL    HW179345   4.939  14.508   1.444
92502SOL    HW279346   4.879  14.374   1.405
92503SOL     OW79347  13.114  10.074   7.233
92503SOL    HW179348  13.175  10.001   7.245
92503SOL    HW279349  13.073  10.058   7.148
92504SOL     OW79350   4.810  10.385  10.896
92504SOL    HW179351   4.883  10.340  10.854
92504SOL    HW279352   4.849  10.434  10.968
92505SOL     OW79353  10.534   3.814   3.607
92505SOL    HW179354  10.619   3.838   3.644
92505SOL    HW279355  10.540   3.835   3.514
92506SOL     OW79356  14.258   3.572  12.608
92506SOL    HW179357  14.279   3.576  12.515
92506SOL    HW279358  14.210   3.490  12.619
92507SOL     OW79359   7.182   3.747   9.316
92507SOL    HW179360   7.161   3.838   9.337
92507SOL    HW279361   7.151   3.734   9.227
92508SOL     OW79362  13.076  12.058  14.618
92508SOL    HW179363  13.066  12.007  14.538
92508SOL    HW279364  13.065  11.995  14.689
92509SOL     OW79365   3.748   0.657   6.110
92509SOL    HW179366   3.821   0.689   6.057
92509SOL    HW279367   3.716   0.735   6.156
92510SOL     OW79368   1.551  12.686   7.788
92510SOL    HW179369   1.476  12.738   7.815
92510SOL    HW279370   1.606  12.680   7.866
92511SOL     OW79371  12.571   5.776   4.692
92511SOL    HW179372  12.660   5.766   4.727
92511SOL    HW279373  12.540   5.860   4.726
92512SOL     OW79374   0.077   0.060   7.077
92512SOL    HW179375   0.157   0.113   7.080
92512SOL    HW279376   0.068   0.035   6.985
92513SOL     OW79377   9.701  13.473  11.694
92513SOL    HW179378   9.791  13.439  11.700
92513SOL    HW279379   9.685  13.514  11.779
92514SOL     OW79380   4.781   6.636  10.318
92514SOL    HW179381   4.813   6.715  10.276
92514SOL    HW279382   4.697   6.618  10.275
92515SOL     OW79383   4.871  13.989  11.749
92515SOL    HW179384   4.906  14.032  11.827
92515SOL    HW279385   4.912  13.903  11.748
92516SOL     OW79386   3.727   9.683  14.749
92516SOL    HW179387   3.672   9.690  14.828
92516SOL    HW279388   3.816   9.676  14.783
92517SOL     OW79389  12.144   5.171   6.721
92517SOL    HW179390  12.149   5.254   6.674
92517SOL    HW279391  12.063   5.176   6.771
92518SOL     OW79392   1.624   7.727   4.090
92518SOL    HW179393   1.704   7.780   4.087
92518SOL    HW279394   1.553   7.791   4.087
92519SOL     OW79395   7.001   4.352  13.750
92519SOL    HW179396   6.912   4.386  13.756
92519SOL    HW279397   7.056   4.430  13.762
92520SOL     OW79398  11.868  12.198   4.465
92520SOL    HW179399  11.837  12.164   4.549
92520SOL    HW279400  11.957  12.227   4.483
92521SOL     OW79401  11.166  10.685   7.298
92521SOL    HW179402  11.194  10.720   7.213
92521SOL    HW279403  11.247  10.678   7.349
92522SOL     OW79404   9.512  13.862   9.603
92522SOL    HW179405   9.536  13.777   9.639
92522SOL    HW279406   9.467  13.907   9.675
92523SOL     OW79407   0.857   7.928  12.484
92523SOL    HW179408   0.934   7.920  12.428
92523SOL    HW279409   0.865   7.857  12.547
92524SOL     OW79410  13.925   9.835   6.398
92524SOL    HW179411  13.933   9.802   6.487
92524SOL    HW279412  13.945   9.928   6.405
92525SOL     OW79413  13.059  13.127   5.548
92525SOL    HW179414  13.132  13.077   5.513
92525SOL    HW279415  13.098  13.188   5.610
92526SOL     OW79416  11.528   5.433   7.552
92526SOL    HW179417  11.562   5.469   7.470
92526SOL    HW279418  11.547   5.500   7.618
92527SOL     OW79419  11.518   7.953   7.513
92527SOL    HW179420  11.607   7.923   7.493
92527SOL    HW279421  11.531   8.037   7.557
92528SOL     OW79422   4.102   3.648   0.191
92528SOL    HW179423   4.158   3.571   0.191
92528SOL    HW279424   4.122   3.693   0.109
92529SOL     OW79425   5.926   5.543   7.747
92529SOL    HW179426   6.004   5.584   7.712
92529SOL    HW279427   5.860   5.553   7.678
92530SOL     OW79428  14.303   9.578   5.371
92530SOL    HW179429  14.299   9.511   5.303
92530SOL    HW279430  14.395   9.583   5.395
92531SOL     OW79431  10.792   4.886   6.459
92531SOL    HW179432  10.809   4.831   6.382
92531SOL    HW279433  10.814   4.975   6.430
92532SOL     OW79434   5.513  12.951  12.033
92532SOL    HW179435   5.462  12.877  12.066
92532SOL    HW279436   5.584  12.961  12.097
92533SOL     OW79437  12.899   5.818  12.312
92533SOL    HW179438  12.853   5.816  12.396
92533SOL    HW279439  12.862   5.745  12.263
92534SOL     OW79440   9.359   0.165   0.635
92534SOL    HW179441   9.399   0.213   0.707
92534SOL    HW279442   9.269   0.149   0.663
92535SOL     OW79443  14.513   4.544   5.847
92535SOL    HW179444  14.523   4.491   5.768
92535SOL    HW279445  14.602   4.550   5.883
92536SOL     OW79446   2.774   9.674   0.817
92536SOL    HW179447   2.798   9.676   0.910
92536SOL    HW279448   2.678   9.673   0.817
92537SOL     OW79449   2.087   3.962  11.729
92537SOL    HW179450   2.005   3.969  11.681
92537SOL    HW279451   2.149   4.014  11.678
92538SOL     OW79452  14.862   5.063  12.610
92538SOL    HW179453  14.776   5.098  12.635
92538SOL    HW279454   0.045   5.127  12.643
92539SOL     OW79455  11.962   9.167   2.289
92539SOL    HW179456  12.003   9.134   2.208
92539SOL    HW279457  11.870   9.144   2.280
92540SOL     OW79458   2.381  13.833   7.280
92540SOL    HW179459   2.436  13.905   7.310
92540SOL    HW279460   2.399  13.825   7.187
92541SOL     OW79461  14.054  14.808   9.297
92541SOL    HW179462  14.046  14.817   9.202
92541SOL    HW279463  14.141  14.770   9.310
92542SOL     OW79464   6.239  13.010   4.526
92542SOL    HW179465   6.323  13.015   4.480
92542SOL    HW279466   6.186  12.951   4.473
92543SOL     OW79467  10.628   7.943   8.861
92543SOL    HW179468  10.568   7.891   8.915
92543SOL    HW279469  10.701   7.962   8.920
92544SOL     OW79470   0.150   8.952   1.049
92544SOL    HW179471   0.094   8.880   1.078
92544SOL    HW279472   0.218   8.909   0.996
92545SOL     OW79473   4.606   5.018   3.855
92545SOL    HW179474   4.637   4.954   3.791
92545SOL    HW279475   4.545   4.969   3.910
92546SOL     OW79476   6.835  14.166   5.087
92546SOL    HW179477   6.804  14.235   5.028
92546SOL    HW279478   6.930  14.164   5.072
92547SOL     OW79479   7.953   8.981   1.696
92547SOL    HW179480   8.043   8.950   1.687
92547SOL    HW279481   7.903   8.904   1.722
92548SOL     OW79482  13.837   3.025  10.197
92548SOL    HW179483  13.771   3.069  10.144
92548SOL    HW279484  13.877   2.962  10.137
92549SOL     OW79485  14.770  14.232   3.779
92549SOL    HW179486  14.710  14.207   3.849
92549SOL    HW279487  14.837  14.284   3.823
92550SOL     OW79488  10.418   1.196  11.193
92550SOL    HW179489  10.356   1.245  11.247
92550SOL    HW279490  10.366   1.164  11.120
92551SOL     OW79491   9.777   4.143   2.373
92551SOL    HW179492   9.696   4.134   2.424
92551SOL    HW279493   9.825   4.214   2.416
92552SOL     OW79494  10.487   6.211   8.653
92552SOL    HW179495  10.421   6.279   8.641
92552SOL    HW279496  10.447   6.132   8.619
92553SOL     OW79497  10.203   8.397  14.287
92553SOL    HW179498  10.251   8.449  14.352
92553SOL    HW279499  10.247   8.312  14.287
92554SOL     OW79500  10.882   5.464  10.954
92554SOL    HW179501  10.891   5.384  11.006
92554SOL    HW279502  10.825   5.440  10.882
92555SOL     OW79503   1.460   9.934   4.719
92555SOL    HW179504   1.434   9.942   4.627
92555SOL    HW279505   1.538   9.989   4.727
92556SOL     OW79506   4.579   4.723   7.773
92556SOL    HW179507   4.571   4.754   7.864
92556SOL    HW279508   4.546   4.796   7.721
92557SOL     OW79509  12.217  12.308   1.491
92557SOL    HW179510  12.308  12.332   1.509
92557SOL    HW279511  12.175  12.391   1.468
92558SOL     OW79512   1.034   3.439  11.079
92558SOL    HW179513   1.099   3.507  11.097
92558SOL    HW279514   1.085   3.365  11.045
92559SOL     OW79515   8.474  12.175   1.902
92559SOL    HW179516   8.398  12.141   1.856
92559SOL    HW279517   8.440  12.208   1.985
92560SOL     OW79518   4.833  10.155  14.548
92560SOL    HW179519   4.898  10.147  14.478
92560SOL    HW279520   4.885  10.168  14.627
92561SOL     OW79521   5.755   0.467  10.886
92561SOL    HW179522   5.782   0.515  10.807
92561SOL    HW279523   5.809   0.388  10.885
92562SOL     OW79524   4.305  14.728   5.333
92562SOL    HW179525   4.274  14.649   5.288
92562SOL    HW279526   4.384  14.700   5.379
92563SOL     OW79527   9.067   4.576   5.638
92563SOL    HW179528   8.996   4.608   5.694
92563SOL    HW279529   9.030   4.499   5.595
92564SOL     OW79530   0.634   4.707  12.631
92564SOL    HW179531   0.686   4.759  12.570
92564SOL    HW279532   0.685   4.706  12.712
92565SOL     OW79533   5.418  13.174  11.073
92565SOL    HW179534   5.334  13.184  11.117
92565SOL    HW279535   5.406  13.097  11.016
92566SOL     OW79536   7.403   4.970  11.957
92566SOL    HW179537   7.344   5.041  11.929
92566SOL    HW279538   7.387   4.962  12.051
92567SOL     OW79539  12.843   1.583   3.526
92567SOL    HW179540  12.818   1.617   3.612
92567SOL    HW279541  12.813   1.650   3.465
92568SOL     OW79542   8.642  10.845   1.186
92568SOL    HW179543   8.578  10.853   1.257
92568SOL    HW279544   8.653  10.751   1.176
92569SOL     OW79545  13.174   4.318   2.923
92569SOL    HW179546  13.168   4.252   2.855
92569SOL    HW279547  13.124   4.393   2.890
92570SOL     OW79548   9.084   3.396   9.149
92570SOL    HW179549   9.024   3.349   9.092
92570SOL    HW279550   9.027   3.454   9.200
92571SOL     OW79551   9.855   3.368  10.631
92571SOL    HW179552   9.896   3.417  10.702
92571SOL    HW279553   9.888   3.410  10.551
92572SOL     OW79554  10.230   1.140  10.997
92572SOL    HW179555  10.242   1.065  10.940
92572SOL    HW279556  10.234   1.216  10.939
92573SOL     OW79557   0.288   1.066   1.952
92573SOL    HW179558   0.251   1.094   2.035
92573SOL    HW279559   0.215   1.024   1.906
92574SOL     OW79560   9.814  12.000  12.381
92574SOL    HW179561   9.861  12.081  12.402
92574SOL    HW279562   9.882  11.941  12.347
92575SOL     OW79563  12.818   7.362   3.845
92575SOL    HW179564  12.843   7.336   3.934
92575SOL    HW279565  12.898   7.353   3.794
92576SOL     OW79566   3.257   2.877   6.060
92576SOL    HW179567   3.243   2.897   5.968
92576SOL    HW279568   3.188   2.924   6.106
92577SOL     OW79569  13.619   3.954   3.843
92577SOL    HW179570  13.592   4.044   3.825
92577SOL    HW279571  13.714   3.959   3.854
92578SOL     OW79572   0.707   9.267   9.477
92578SOL    HW179573   0.764   9.206   9.524
92578SOL    HW279574   0.707   9.235   9.387
92579SOL     OW79575   2.469   8.114   1.378
92579SOL    HW179576   2.457   8.206   1.401
92579SOL    HW279577   2.421   8.103   1.295
92580SOL     OW79578   6.410   1.044  12.521
92580SOL    HW179579   6.387   0.966  12.572
92580SOL    HW279580   6.426   1.011  12.432
92581SOL     OW79581  10.231   8.122   0.941
92581SOL    HW179582  10.276   8.041   0.918
92581SOL    HW279583  10.183   8.101   1.021
92582SOL     OW79584   2.681   7.191  11.637
92582SOL    HW179585   2.624   7.200  11.561
92582SOL    HW279586   2.673   7.274  11.684
92583SOL     OW79587  14.246  13.608  13.704
92583SOL    HW179588  14.163  13.597  13.658
92583SOL    HW279589  14.262  13.702  13.702
92584SOL     OW79590  11.514   0.807   0.681
92584SOL    HW179591  11.468   0.748   0.741
92584SOL    HW279592  11.461   0.805   0.601
92585SOL     OW79593   8.824   7.533   5.331
92585SOL    HW179594   8.784   7.475   5.267
92585SOL    HW279595   8.848   7.611   5.281
92586SOL     OW79596   9.026   9.457  10.563
92586SOL    HW179597   8.993   9.532  10.513
92586SOL    HW279598   8.992   9.471  10.652
92587SOL     OW79599   9.397   6.376   7.185
92587SOL    HW179600   9.385   6.290   7.225
92587SOL    HW279601   9.492   6.385   7.175
92588SOL     OW79602   9.871  10.470   3.295
92588SOL    HW179603   9.956  10.444   3.330
92588SOL    HW279604   9.816  10.392   3.305
92589SOL     OW79605   8.778  14.738   0.694
92589SOL    HW179606   8.755  14.713   0.604
92589SOL    HW279607   8.706  14.704   0.747
92590SOL     OW79608   3.548  13.847   8.582
92590SOL    HW179609   3.472  13.895   8.548
92590SOL    HW279610   3.596  13.821   8.503
92591SOL     OW79611  14.706   9.637  11.673
92591SOL    HW179612  14.675   9.645  11.763
92591SOL    HW279613  14.659   9.561  11.638
92592SOL     OW79614   4.363   9.941  12.810
92592SOL    HW179615   4.338   9.968  12.722
92592SOL    HW279616   4.287   9.892  12.843
92593SOL     OW79617  13.984  10.431   5.943
92593SOL    HW179618  14.074  10.459   5.928
92593SOL    HW279619  13.943  10.503   5.990
92594SOL     OW79620   7.398   7.313  10.799
92594SOL    HW179621   7.309   7.330  10.767
92594SOL    HW279622   7.416   7.386  10.858
92595SOL     OW79623  14.819  11.380   1.367
92595SOL    HW179624   0.014  11.413   1.418
92595SOL    HW279625  14.859  11.324   1.301
92596SOL     OW79626  12.873   4.664  13.221
92596SOL    HW179627  12.885   4.753  13.254
92596SOL    HW279628  12.898   4.669  13.128
92597SOL     OW79629   7.648   0.691  13.521
92597SOL    HW179630   7.556   0.719  13.518
92597SOL    HW279631   7.655   0.642  13.603
92598SOL     OW79632   7.535   0.471   8.603
92598SOL    HW179633   7.520   0.509   8.690
92598SOL    HW279634   7.605   0.407   8.617
92599SOL     OW79635   1.743   2.245  13.368
92599SOL    HW179636   1.766   2.333  13.396
92599SOL    HW279637   1.799   2.188  13.420
92600SOL     OW79638   7.209  10.913  12.669
92600SOL    HW179639   7.250  10.834  12.635
92600SOL    HW279640   7.227  10.911  12.763
92601SOL     OW79641   1.449   6.503  10.563
92601SOL    HW179642   1.456   6.408  10.574
92601SOL    HW279643   1.533   6.529  10.524
92602SOL     OW79644   7.266   8.868   6.654
92602SOL    HW179645   7.313   8.824   6.726
92602SOL    HW279646   7.243   8.798   6.594
92603SOL     OW79647  12.059   1.233  14.391
92603SOL    HW179648  12.017   1.260  14.473
92603SOL    HW279649  12.137   1.288  14.385
92604SOL     OW79650  10.048   3.085  11.525
92604SOL    HW179651  10.105   3.009  11.534
92604SOL    HW279652  10.104   3.160  11.543
92605SOL     OW79653   3.498   5.554   8.884
92605SOL    HW179654   3.499   5.640   8.842
92605SOL    HW279655   3.406   5.531   8.891
92606SOL     OW79656  12.699  12.871   3.280
92606SOL    HW179657  12.707  12.935   3.209
92606SOL    HW279658  12.670  12.922   3.356
92607SOL     OW79659  11.227   8.655  10.213
92607SOL    HW179660  11.155   8.593  10.204
92607SOL    HW279661  11.196   8.733  10.167
92608SOL     OW79662   5.571   3.343   5.954
92608SOL    HW179663   5.642   3.278   5.962
92608SOL    HW279664   5.615   3.423   5.928
92609SOL     OW79665   6.074   2.675   0.785
92609SOL    HW179666   5.985   2.656   0.815
92609SOL    HW279667   6.104   2.594   0.745
92610SOL     OW79668  13.275   1.258   8.672
92610SOL    HW179669  13.296   1.167   8.691
92610SOL    HW279670  13.185   1.256   8.641
92611SOL     OW79671  13.018   5.438   9.143
92611SOL    HW179672  12.946   5.458   9.083
92611SOL    HW279673  13.084   5.398   9.087
92612SOL     OW79674   1.866  14.582   1.983
92612SOL    HW179675   1.901  14.652   2.038
92612SOL    HW279676   1.894  14.605   1.895
92613SOL     OW79677   5.575   0.858   6.102
92613SOL    HW179678   5.645   0.857   6.167
92613SOL    HW279679   5.608   0.805   6.030
92614SOL     OW79680   8.183  14.032   0.434
92614SOL    HW179681   8.252  13.966   0.436
92614SOL    HW279682   8.112  13.994   0.486
92615SOL     OW79683  10.375   2.255   9.723
92615SOL    HW179684  10.413   2.342   9.726
92615SOL    HW279685  10.287   2.266   9.757
92616SOL     OW79686   1.291   1.571  14.132
92616SOL    HW179687   1.345   1.639  14.092
92616SOL    HW279688   1.235   1.619  14.193
92617SOL     OW79689   4.495  14.128   6.577
92617SOL    HW179690   4.506  14.072   6.500
92617SOL    HW279691   4.553  14.202   6.561
92618SOL     OW79692   2.494   5.415   5.939
92618SOL    HW179693   2.494   5.325   5.970
92618SOL    HW279694   2.517   5.467   6.016
92619SOL     OW79695   8.761  12.180   5.137
92619SOL    HW179696   8.854  12.176   5.155
92619SOL    HW279697   8.749  12.260   5.086
92620SOL     OW79698   4.627   0.741   7.136
92620SOL    HW179699   4.549   0.781   7.097
92620SOL    HW279700   4.690   0.736   7.064
92621SOL     OW79701  12.087   3.723   1.144
92621SOL    HW179702  12.010   3.761   1.102
92621SOL    HW279703  12.112   3.788   1.210
92622SOL     OW79704   9.883   1.081   9.438
92622SOL    HW179705   9.836   1.106   9.517
92622SOL    HW279706   9.975   1.088   9.461
92623SOL     OW79707  11.957   6.942  13.306
92623SOL    HW179708  11.999   7.023  13.337
92623SOL    HW279709  11.887   6.972  13.248
92624SOL     OW79710   1.823   4.029   2.967
92624SOL    HW179711   1.788   3.972   2.898
92624SOL    HW279712   1.756   4.028   3.035
92625SOL     OW79713   8.584  12.045  12.753
92625SOL    HW179714   8.545  11.966  12.716
92625SOL    HW279715   8.650  12.072  12.689
92626SOL     OW79716   4.545   6.803   9.338
92626SOL    HW179717   4.490   6.818   9.261
92626SOL    HW279718   4.564   6.891   9.371
92627SOL     OW79719  10.757   0.602   2.940
92627SOL    HW179720  10.710   0.519   2.941
92627SOL    HW279721  10.850   0.578   2.938
92628SOL     OW79722  14.372   6.934   2.779
92628SOL    HW179723  14.442   6.947   2.843
92628SOL    HW279724  14.376   6.841   2.758
92629SOL     OW79725   5.591  13.350  10.966
92629SOL    HW179726   5.538  13.296  11.026
92629SOL    HW279727   5.572  13.440  10.991
92630SOL     OW79728   3.265  12.111   4.399
92630SOL    HW179729   3.252  12.186   4.457
92630SOL    HW279730   3.258  12.035   4.457
92631SOL     OW79731  13.674   0.257   1.641
92631SOL    HW179732  13.701   0.166   1.652
92631SOL    HW279733  13.581   0.253   1.620
92632SOL     OW79734   5.401   8.544   7.414
92632SOL    HW179735   5.399   8.591   7.330
92632SOL    HW279736   5.389   8.612   7.480
92633SOL     OW79737  14.153  14.042   9.145
92633SOL    HW179738  14.155  14.068   9.237
92633SOL    HW279739  14.074  14.085   9.110
92634SOL     OW79740   3.917   1.693  14.226
92634SOL    HW179741   3.985   1.669  14.290
92634SOL    HW279742   3.966   1.732  14.153
92635SOL     OW79743   6.092   7.816   4.844
92635SOL    HW179744   6.131   7.779   4.765
92635SOL    HW279745   6.163   7.818   4.908
92636SOL     OW79746   9.473   4.348   8.107
92636SOL    HW179747   9.503   4.258   8.100
92636SOL    HW279748   9.378   4.341   8.117
92637SOL     OW79749   0.736   0.611  11.532
92637SOL    HW179750   0.762   0.622  11.623
92637SOL    HW279751   0.818   0.615  11.483
92638SOL     OW79752  14.710  11.103   8.046
92638SOL    HW179753  14.658  11.108   8.126
92638SOL    HW279754  14.789  11.056   8.071
92639SOL     OW79755   9.093   2.963   6.670
92639SOL    HW179756   9.105   2.868   6.673
92639SOL    HW279757   9.016   2.979   6.724
92640SOL     OW79758   7.385   3.128  14.795
92640SOL    HW179759   7.296   3.162  14.784
92640SOL    HW279760   7.431   3.197  14.844
92641SOL     OW79761  11.842  13.534   4.016
92641SOL    HW179762  11.804  13.459   4.062
92641SOL    HW279763  11.899  13.576   4.082
92642SOL     OW79764   7.842  12.144   3.364
92642SOL    HW179765   7.806  12.093   3.291
92642SOL    HW279766   7.863  12.079   3.431
92643SOL     OW79767   2.991   7.475   3.118
92643SOL    HW179768   2.927   7.546   3.122
92643SOL    HW279769   2.940   7.395   3.131
92644SOL     OW79770   4.777   5.179   9.225
92644SOL    HW179771   4.803   5.128   9.301
92644SOL    HW279772   4.694   5.220   9.250
92645SOL     OW79773  13.163   7.978   1.885
92645SOL    HW179774  13.155   8.020   1.800
92645SOL    HW279775  13.159   8.051   1.948
92646SOL     OW79776   6.521  14.111   9.775
92646SOL    HW179777   6.439  14.124   9.727
92646SOL    HW279778   6.508  14.028   9.822
92647SOL     OW79779  13.750   7.115  12.280
92647SOL    HW179780  13.813   7.187  12.285
92647SOL    HW279781  13.761   7.068  12.363
92648SOL     OW79782   0.909   6.113   8.213
92648SOL    HW179783   0.945   6.147   8.295
92648SOL    HW279784   0.842   6.176   8.189
92649SOL     OW79785  11.353   2.046   9.389
92649SOL    HW179786  11.273   2.097   9.386
92649SOL    HW279787  11.357   2.001   9.305
92650SOL     OW79788   4.102  12.393   0.161
92650SOL    HW179789   4.170  12.338   0.199
92650SOL    HW279790   4.056  12.430   0.237
92651SOL     OW79791   7.727  11.803  12.663
92651SOL    HW179792   7.795  11.839  12.606
92651SOL    HW279793   7.750  11.833  12.751
92652SOL     OW79794   4.415  12.135   1.414
92652SOL    HW179795   4.399  12.200   1.482
92652SOL    HW279796   4.499  12.095   1.439
92653SOL     OW79797   1.665   8.959  12.310
92653SOL    HW179798   1.721   8.973  12.234
92653SOL    HW279799   1.679   9.036  12.365
92654SOL     OW79800   0.396  13.558   9.563
92654SOL    HW179801   0.304  13.536   9.555
92654SOL    HW279802   0.427  13.567   9.473
92655SOL     OW79803   2.340  11.026   3.521
92655SOL    HW179804   2.284  11.011   3.597
92655SOL    HW279805   2.405  10.956   3.525
92656SOL     OW79806   6.567   1.744   4.627
92656SOL    HW179807   6.661   1.730   4.618
92656SOL    HW279808   6.540   1.682   4.694
92657SOL     OW79809   5.078   6.443   8.284
92657SOL    HW179810   5.005   6.500   8.308
92657SOL    HW279811   5.037   6.366   8.244
92658SOL     OW79812   8.747  10.187   4.224
92658SOL    HW179813   8.687  10.220   4.157
92658SOL    HW279814   8.798  10.119   4.179
92659SOL     OW79815   5.649   2.698   6.492
92659SOL    HW179816   5.723   2.743   6.534
92659SOL    HW279817   5.619   2.635   6.557
92660SOL     OW79818   3.347  14.373   1.715
92660SOL    HW179819   3.325  14.464   1.692
92660SOL    HW279820   3.425  14.353   1.664
92661SOL     OW79821  12.187   8.113   9.599
92661SOL    HW179822  12.129   8.188   9.618
92661SOL    HW279823  12.138   8.038   9.633
92662SOL     OW79824   4.587   0.253  10.475
92662SOL    HW179825   4.648   0.325  10.484
92662SOL    HW279826   4.516   0.273  10.536
92663SOL     OW79827   1.703   5.600   8.935
92663SOL    HW179828   1.782   5.653   8.926
92663SOL    HW279829   1.631   5.663   8.926
92664SOL     OW79830  10.763   0.514  13.514
92664SOL    HW179831  10.705   0.586  13.536
92664SOL    HW279832  10.815   0.546  13.440
92665SOL     OW79833   0.375   1.980   7.542
92665SOL    HW179834   0.364   1.929   7.461
92665SOL    HW279835   0.440   2.047   7.520
92666SOL     OW79836   5.376   6.864  12.329
92666SOL    HW179837   5.430   6.835  12.402
92666SOL    HW279838   5.358   6.957  12.348
92667SOL     OW79839  14.204  13.209   7.529
92667SOL    HW179840  14.273  13.274   7.544
92667SOL    HW279841  14.221  13.175   7.441
92668SOL     OW79842  13.854  12.782   6.853
92668SOL    HW179843  13.833  12.870   6.886
92668SOL    HW279844  13.877  12.795   6.761
92669SOL     OW79845   7.038   9.773  11.225
92669SOL    HW179846   7.130   9.778  11.199
92669SOL    HW279847   6.992   9.747  11.146
92670SOL     OW79848  10.623  12.737   2.762
92670SOL    HW179849  10.548  12.750   2.820
92670SOL    HW279850  10.629  12.642   2.752
92671SOL     OW79851   0.217   6.954   0.290
92671SOL    HW179852   0.145   6.922   0.345
92671SOL    HW279853   0.254   7.027   0.340
92672SOL     OW79854   6.864  13.440   9.480
92672SOL    HW179855   6.820  13.369   9.432
92672SOL    HW279856   6.942  13.459   9.429
92673SOL     OW79857  10.813   3.493   7.311
92673SOL    HW179858  10.748   3.438   7.355
92673SOL    HW279859  10.777   3.582   7.316
92674SOL     OW79860   2.649  12.670   7.783
92674SOL    HW179861   2.596  12.713   7.851
92674SOL    HW279862   2.655  12.579   7.812
92675SOL     OW79863   2.750   6.262  12.663
92675SOL    HW179864   2.775   6.172  12.643
92675SOL    HW279865   2.654   6.259  12.665
92676SOL     OW79866  12.582   3.560   2.337
92676SOL    HW179867  12.656   3.620   2.336
92676SOL    HW279868  12.621   3.473   2.332
92677SOL     OW79869   1.897   3.167  14.016
92677SOL    HW179870   1.948   3.168  14.097
92677SOL    HW279871   1.806   3.175  14.044
92678SOL     OW79872   8.921   6.438  13.612
92678SOL    HW179873   8.993   6.383  13.644
92678SOL    HW279874   8.965   6.506  13.561
92679SOL     OW79875   1.151   5.129  10.970
92679SOL    HW179876   1.217   5.060  10.979
92679SOL    HW279877   1.067   5.083  10.973
92680SOL     OW79878   9.698   6.788   5.776
92680SOL    HW179879   9.744   6.803   5.693
92680SOL    HW279880   9.731   6.856   5.834
92681SOL     OW79881   5.440   4.752  12.229
92681SOL    HW179882   5.470   4.661  12.226
92681SOL    HW279883   5.361   4.749  12.283
92682SOL     OW79884   9.028   2.586   5.505
92682SOL    HW179885   9.061   2.500   5.532
92682SOL    HW279886   8.986   2.621   5.584
92683SOL     OW79887   4.997   3.495   9.546
92683SOL    HW179888   5.007   3.401   9.561
92683SOL    HW279889   4.917   3.502   9.494
92684SOL     OW79890   6.026   2.614   6.414
92684SOL    HW179891   6.061   2.688   6.365
92684SOL    HW279892   5.994   2.653   6.495
92685SOL     OW79893   2.517  11.902   9.435
92685SOL    HW179894   2.524  11.933   9.344
92685SOL    HW279895   2.530  11.808   9.429
92686SOL     OW79896   9.850   5.478   2.311
92686SOL    HW179897   9.760   5.502   2.332
92686SOL    HW279898   9.885   5.553   2.263
92687SOL     OW79899   8.832   9.265  10.177
92687SOL    HW179900   8.818   9.346  10.226
92687SOL    HW279901   8.826   9.291  10.085
92688SOL     OW79902  14.674  13.285   0.028
92688SOL    HW179903  14.585  13.250   0.022
92688SOL    HW279904  14.731  13.208   0.021
92689SOL     OW79905   4.895   3.690   8.001
92689SOL    HW179906   4.862   3.777   7.977
92689SOL    HW279907   4.866   3.633   7.929
92690SOL     OW79908  13.391  11.120   9.062
92690SOL    HW179909  13.326  11.130   8.993
92690SOL    HW279910  13.469  11.087   9.018
92691SOL     OW79911   4.061   1.812   9.264
92691SOL    HW179912   4.082   1.798   9.356
92691SOL    HW279913   4.089   1.730   9.221
92692SOL     OW79914  13.836  10.290  12.046
92692SOL    HW179915  13.856  10.208  12.001
92692SOL    HW279916  13.834  10.355  11.976
92693SOL     OW79917  13.085   7.679  13.670
92693SOL    HW179918  12.999   7.721  13.658
92693SOL    HW279919  13.064   7.590  13.698
92694SOL     OW79920   0.634  14.017   6.071
92694SOL    HW179921   0.637  14.111   6.089
92694SOL    HW279922   0.544  14.000   6.043
92695SOL     OW79923   4.991   1.892   2.543
92695SOL    HW179924   4.984   1.820   2.606
92695SOL    HW279925   5.045   1.958   2.587
92696SOL     OW79926   8.615   5.376  13.843
92696SOL    HW179927   8.588   5.337  13.760
92696SOL    HW279928   8.584   5.315  13.910
92697SOL     OW79929   4.945  11.102   0.668
92697SOL    HW179930   4.899  11.176   0.629
92697SOL    HW279931   4.884  11.066   0.733
92698SOL     OW79932   7.090   3.469   5.315
92698SOL    HW179933   7.140   3.443   5.392
92698SOL    HW279934   7.147   3.530   5.269
92699SOL     OW79935   4.216   5.532  10.707
92699SOL    HW179936   4.134   5.487  10.687
92699SOL    HW279937   4.246   5.493  10.789
92700SOL     OW79938   7.830  10.740  12.079
92700SOL    HW179939   7.787  10.716  11.997
92700SOL    HW279940   7.858  10.830  12.066
92701SOL     OW79941   7.888   2.570  12.550
92701SOL    HW179942   7.956   2.601  12.491
92701SOL    HW279943   7.904   2.617  12.632
92702SOL     OW79944   3.865   3.688   5.509
92702SOL    HW179945   3.890   3.775   5.539
92702SOL    HW279946   3.792   3.703   5.449
92703SOL     OW79947  12.793   8.164  14.821
92703SOL    HW179948  12.780   8.158   0.036
92703SOL    HW279949  12.843   8.085  14.799
92704SOL     OW79950  11.546  14.166  10.651
92704SOL    HW179951  11.540  14.233  10.720
92704SOL    HW279952  11.605  14.203  10.586
92705SOL     OW79953   3.087   1.500   3.832
92705SOL    HW179954   3.111   1.550   3.754
92705SOL    HW279955   2.992   1.513   3.840
92706SOL     OW79956  14.604   3.392   7.964
92706SOL    HW179957  14.637   3.477   7.936
92706SOL    HW279958  14.636   3.383   8.054
92707SOL     OW79959   2.636   9.644  14.020
92707SOL    HW179960   2.664   9.603  14.102
92707SOL    HW279961   2.625   9.571  13.960
92708SOL     OW79962   6.530   7.194   4.284
92708SOL    HW179963   6.524   7.112   4.334
92708SOL    HW279964   6.624   7.210   4.278
92709SOL     OW79965  13.381   4.572  13.572
92709SOL    HW179966  13.323   4.504  13.539
92709SOL    HW279967  13.324   4.647  13.590
92710SOL     OW79968  13.781   8.740   8.533
92710SOL    HW179969  13.806   8.789   8.611
92710SOL    HW279970  13.810   8.651   8.550
92711SOL     OW79971   2.434   6.376   3.029
92711SOL    HW179972   2.385   6.356   2.949
92711SOL    HW279973   2.450   6.470   3.024
92712SOL     OW79974  11.273   7.647   0.543
92712SOL    HW179975  11.326   7.646   0.623
92712SOL    HW279976  11.335   7.631   0.472
92713SOL     OW79977  13.634   4.052   2.322
92713SOL    HW179978  13.649   4.144   2.303
92713SOL    HW279979  13.700   4.005   2.270
92714SOL     OW79980   8.666   8.896   7.783
92714SOL    HW179981   8.616   8.815   7.777
92714SOL    HW279982   8.676   8.925   7.692
92715SOL     OW79983   1.186   2.232   9.749
92715SOL    HW179984   1.251   2.302   9.749
92715SOL    HW279985   1.190   2.196   9.661
92716SOL     OW79986   1.277   8.102   3.686
92716SOL    HW179987   1.282   8.180   3.631
92716SOL    HW279988   1.362   8.099   3.731
92717SOL     OW79989   4.960   4.270   7.487
92717SOL    HW179990   4.899   4.243   7.555
92717SOL    HW279991   4.916   4.250   7.405
92718SOL     OW79992   3.764   7.758   6.841
92718SOL    HW179993   3.775   7.748   6.935
92718SOL    HW279994   3.815   7.836   6.819
92719SOL     OW79995   1.157   1.114   9.775
92719SOL    HW179996   1.197   1.029   9.793
92719SOL    HW279997   1.086   1.095   9.713
92720SOL     OW79998  13.557   8.734   2.627
92720SOL    HW179999  13.514   8.809   2.668
92720SOL    HW280000  13.502   8.659   2.650
92721SOL     OW80001   3.701   5.209  11.002
92721SOL    HW180002   3.746   5.290  10.980
92721SOL    HW280003   3.759   5.140  10.969
92722SOL     OW80004   8.712   0.575   2.510
92722SOL    HW180005   8.724   0.547   2.420
92722SOL    HW280006   8.714   0.670   2.507
92723SOL     OW80007   3.746  12.460  10.099
92723SOL    HW180008   3.801  12.509  10.160
92723SOL    HW280009   3.731  12.520  10.026
92724SOL     OW80010  11.581   6.028  14.730
92724SOL    HW180011  11.545   6.086  14.663
92724SOL    HW280012  11.542   5.943  14.712
92725SOL     OW80013   5.928  12.708  13.063
92725SOL    HW180014   5.843  12.726  13.022
92725SOL    HW280015   5.938  12.613  13.055
92726SOL     OW80016   3.480   7.382  11.352
92726SOL    HW180017   3.566   7.348  11.326
92726SOL    HW280018   3.492   7.477  11.360
92727SOL     OW80019   9.183   2.980  14.249
92727SOL    HW180020   9.201   2.946  14.162
92727SOL    HW280021   9.211   3.072  14.246
92728SOL     OW80022   5.029   5.619   9.636
92728SOL    HW180023   4.937   5.596   9.652
92728SOL    HW280024   5.075   5.589   9.713
92729SOL     OW80025   1.034  13.043  10.535
92729SOL    HW180026   1.101  12.990  10.579
92729SOL    HW280027   1.002  13.102  10.603
92730SOL     OW80028   4.055   5.140   1.963
92730SOL    HW180029   4.046   5.103   1.875
92730SOL    HW280030   4.127   5.202   1.955
92731SOL     OW80031   0.531   5.980   6.101
92731SOL    HW180032   0.524   5.900   6.048
92731SOL    HW280033   0.600   5.960   6.164
92732SOL     OW80034   5.769   7.248   3.483
92732SOL    HW180035   5.820   7.315   3.529
92732SOL    HW280036   5.685   7.291   3.464
92733SOL     OW80037  12.459   4.336  10.506
92733SOL    HW180038  12.411   4.333  10.423
92733SOL    HW280039  12.507   4.419  10.503
92734SOL     OW80040  12.158   0.398   4.621
92734SOL    HW180041  12.063   0.408   4.619
92734SOL    HW280042  12.172   0.306   4.642
92735SOL     OW80043  14.545   5.728  10.724
92735SOL    HW180044  14.562   5.765  10.637
92735SOL    HW280045  14.462   5.680  10.714
92736SOL     OW80046   6.936   5.704  14.373
92736SOL    HW180047   6.966   5.619  14.404
92736SOL    HW280048   7.017   5.750  14.348
92737SOL     OW80049  11.339   2.817   0.632
92737SOL    HW180050  11.244   2.824   0.628
92737SOL    HW280051  11.364   2.863   0.712
92738SOL     OW80052  11.159   7.352   1.574
92738SOL    HW180053  11.079   7.306   1.549
92738SOL    HW280054  11.218   7.284   1.605
92739SOL     OW80055   4.853  13.403   8.273
92739SOL    HW180056   4.928  13.343   8.262
92739SOL    HW280057   4.855  13.457   8.194
92740SOL     OW80058   8.979   8.342   8.758
92740SOL    HW180059   8.938   8.364   8.674
92740SOL    HW280060   8.929   8.392   8.823
92741SOL     OW80061   5.574   8.213   2.235
92741SOL    HW180062   5.485   8.250   2.238
92741SOL    HW280063   5.562   8.128   2.192
92742SOL     OW80064   5.998   6.738   1.151
92742SOL    HW180065   5.984   6.643   1.146
92742SOL    HW280066   6.092   6.747   1.165
92743SOL     OW80067   7.294   5.330   0.502
92743SOL    HW180068   7.204   5.298   0.498
92743SOL    HW280069   7.292   5.413   0.455
92744SOL     OW80070   6.469  11.415  13.313
92744SOL    HW180071   6.551  11.448  13.350
92744SOL    HW280072   6.456  11.331  13.358
92745SOL     OW80073   0.379   4.211   8.719
92745SOL    HW180074   0.452   4.184   8.664
92745SOL    HW280075   0.305   4.219   8.660
92746SOL     OW80076   4.914   1.903  14.855
92746SOL    HW180077   4.976   1.957  14.807
92746SOL    HW280078   4.950   1.897   0.064
92747SOL     OW80079   8.588  11.008   5.510
92747SOL    HW180080   8.522  11.070   5.541
92747SOL    HW280081   8.541  10.951   5.449
92748SOL     OW80082   3.711  13.376   0.697
92748SOL    HW180083   3.717  13.327   0.779
92748SOL    HW280084   3.644  13.330   0.646
92749SOL     OW80085  13.705   6.790   5.809
92749SOL    HW180086  13.773   6.822   5.868
92749SOL    HW280087  13.659   6.723   5.859
92750SOL     OW80088  11.087   7.655   1.156
92750SOL    HW180089  11.131   7.728   1.201
92750SOL    HW280090  11.126   7.577   1.196
92751SOL     OW80091   1.937  12.402   8.757
92751SOL    HW180092   1.851  12.410   8.716
92751SOL    HW280093   1.980  12.486   8.740
92752SOL     OW80094   3.598   4.153   7.049
92752SOL    HW180095   3.605   4.068   7.091
92752SOL    HW280096   3.656   4.210   7.099
92753SOL     OW80097   1.834   5.299  12.802
92753SOL    HW180098   1.781   5.354  12.859
92753SOL    HW280099   1.841   5.348  12.720
92754SOL     OW80100  11.758  12.790  12.368
92754SOL    HW180101  11.788  12.874  12.402
92754SOL    HW280102  11.780  12.727  12.437
92755SOL     OW80103   9.445   4.166  10.229
92755SOL    HW180104   9.489   4.179  10.145
92755SOL    HW280105   9.412   4.253  10.253
92756SOL     OW80106   4.799   5.516   3.223
92756SOL    HW180107   4.727   5.465   3.258
92756SOL    HW280108   4.847   5.546   3.300
92757SOL     OW80109   7.209   4.034   1.273
92757SOL    HW180110   7.276   4.018   1.340
92757SOL    HW280111   7.168   4.116   1.299
92758SOL     OW80112  11.587   4.969   5.400
92758SOL    HW180113  11.569   5.056   5.365
92758SOL    HW280114  11.647   4.984   5.473
92759SOL     OW80115   1.837  11.735  12.960
92759SOL    HW180116   1.780  11.758  12.887
92759SOL    HW280117   1.795  11.659  13.000
92760SOL     OW80118   7.406   4.279   6.372
92760SOL    HW180119   7.456   4.360   6.365
92760SOL    HW280120   7.349   4.293   6.448
92761SOL     OW80121   5.500   4.302   0.255
92761SOL    HW180122   5.529   4.265   0.171
92761SOL    HW280123   5.544   4.387   0.260
92762SOL     OW80124   1.365  10.901   7.731
92762SOL    HW180125   1.361  10.858   7.646
92762SOL    HW280126   1.357  10.830   7.794
92763SOL     OW80127   9.636   4.097   3.306
92763SOL    HW180128   9.545   4.120   3.288
92763SOL    HW280129   9.631   4.019   3.362
92764SOL     OW80130   9.107   4.768  13.538
92764SOL    HW180131   9.017   4.744  13.516
92764SOL    HW280132   9.127   4.842  13.480
92765SOL     OW80133   7.575  12.100   2.240
92765SOL    HW180134   7.526  12.170   2.197
92765SOL    HW280135   7.618  12.143   2.314
92766SOL     OW80136  12.340   9.317  11.357
92766SOL    HW180137  12.429   9.315  11.321
92766SOL    HW280138  12.336   9.399  11.406
92767SOL     OW80139  11.280   7.189   9.684
92767SOL    HW180140  11.320   7.209   9.769
92767SOL    HW280141  11.247   7.274   9.653
92768SOL     OW80142  13.085   8.067   3.930
92768SOL    HW180143  13.097   8.112   3.846
92768SOL    HW280144  13.105   8.134   3.996
92769SOL     OW80145  12.877   9.924   3.944
92769SOL    HW180146  12.899   9.854   4.005
92769SOL    HW280147  12.796   9.962   3.978
92770SOL     OW80148  14.144  12.000   7.880
92770SOL    HW180149  14.235  12.007   7.911
92770SOL    HW280150  14.119  12.089   7.857
92771SOL     OW80151  14.559   0.046   5.516
92771SOL    HW180152  14.486   0.081   5.567
92771SOL    HW280153  14.612  14.877   5.580
92772SOL     OW80154   7.665   1.778   3.304
92772SOL    HW180155   7.655   1.774   3.399
92772SOL    HW280156   7.718   1.856   3.288
92773SOL     OW80157   8.264   5.479  12.463
92773SOL    HW180158   8.359   5.480  12.471
92773SOL    HW280159   8.236   5.415  12.528
92774SOL     OW80160   5.661  14.876   8.486
92774SOL    HW180161   5.756  14.872   8.475
92774SOL    HW280162   5.629   0.041   8.407
92775SOL     OW80163  12.272   8.809   5.307
92775SOL    HW180164  12.327   8.880   5.273
92775SOL    HW280165  12.330   8.760   5.366
92776SOL     OW80166  11.448  13.804  13.145
92776SOL    HW180167  11.479  13.758  13.223
92776SOL    HW280168  11.359  13.772  13.132
92777SOL     OW80169   5.948   9.087   5.073
92777SOL    HW180170   5.945   9.076   4.978
92777SOL    HW280171   6.006   9.017   5.103
92778SOL     OW80172   0.061  10.229   7.080
92778SOL    HW180173   0.021  10.145   7.102
92778SOL    HW280174   0.089  10.265   7.164
92779SOL     OW80175  14.868  13.290   9.638
92779SOL    HW180176  14.827  13.204   9.647
92779SOL    HW280177  14.859  13.313   9.546
92780SOL     OW80178   0.798   1.137  11.264
92780SOL    HW180179   0.863   1.197  11.300
92780SOL    HW280180   0.762   1.184  11.189
92781SOL     OW80181   1.868  12.632   7.231
92781SOL    HW180182   1.899  12.584   7.155
92781SOL    HW280183   1.774  12.644   7.216
92782SOL     OW80184   3.106  13.281   9.325
92782SOL    HW180185   3.078  13.325   9.405
92782SOL    HW280186   3.039  13.303   9.260
92783SOL     OW80187   1.659  12.098  10.005
92783SOL    HW180188   1.752  12.077  10.016
92783SOL    HW280189   1.613  12.033  10.058
92784SOL     OW80190   9.691   1.376  12.514
92784SOL    HW180191   9.617   1.408  12.565
92784SOL    HW280192   9.660   1.377  12.423
92785SOL     OW80193  12.709   1.154  11.790
92785SOL    HW180194  12.646   1.125  11.724
92785SOL    HW280195  12.745   1.235  11.754
92786SOL     OW80196   0.583  11.259   5.249
92786SOL    HW180197   0.548  11.305   5.326
92786SOL    HW280198   0.514  11.197   5.226
92787SOL     OW80199   8.463  10.473  10.610
92787SOL    HW180200   8.391  10.417  10.638
92787SOL    HW280201   8.538  10.444  10.662
92788SOL     OW80202   6.437   1.650   1.761
92788SOL    HW180203   6.373   1.688   1.700
92788SOL    HW280204   6.474   1.576   1.714
92789SOL     OW80205   0.409   1.642   2.856
92789SOL    HW180206   0.398   1.718   2.914
92789SOL    HW280207   0.504   1.637   2.841
92790SOL     OW80208   4.764  12.171  13.941
92790SOL    HW180209   4.843  12.206  13.900
92790SOL    HW280210   4.796  12.115  14.012
92791SOL     OW80211  11.667   2.112   1.123
92791SOL    HW180212  11.760   2.116   1.101
92791SOL    HW280213  11.662   2.137   1.215
92792SOL     OW80214  12.401   9.202  14.453
92792SOL    HW180215  12.419   9.130  14.514
92792SOL    HW280216  12.477   9.259  14.460
92793SOL     OW80217  14.619   2.454   6.942
92793SOL    HW180218  14.531   2.477   6.912
92793SOL    HW280219  14.644   2.526   6.999
92794SOL     OW80220   3.197   9.314  13.632
92794SOL    HW180221   3.186   9.345  13.723
92794SOL    HW280222   3.129   9.360  13.583
92795SOL     OW80223   1.182   9.827   2.619
92795SOL    HW180224   1.196   9.875   2.701
92795SOL    HW280225   1.240   9.870   2.556
92796SOL     OW80226   1.956  13.526   6.905
92796SOL    HW180227   1.866  13.512   6.874
92796SOL    HW280228   1.994  13.438   6.907
92797SOL     OW80229   0.356   5.718   5.820
92797SOL    HW180230   0.334   5.810   5.808
92797SOL    HW280231   0.356   5.682   5.731
92798SOL     OW80232  14.395   9.315   5.704
92798SOL    HW180233  14.433   9.390   5.751
92798SOL    HW280234  14.346   9.268   5.772
92799SOL     OW80235  10.413   5.022   2.458
92799SOL    HW180236  10.349   4.956   2.485
92799SOL    HW280237  10.498   4.981   2.474
92800SOL     OW80238  10.509  14.861  10.243
92800SOL    HW180239  10.483   0.016  10.157
92800SOL    HW280240  10.519   0.059  10.298
92801SOL     OW80241   1.916  13.826   9.868
92801SOL    HW180242   1.995  13.812   9.815
92801SOL    HW280243   1.854  13.867   9.808
92802SOL     OW80244  11.540   5.578  13.085
92802SOL    HW180245  11.610   5.522  13.053
92802SOL    HW280246  11.573   5.612  13.169
92803SOL     OW80247  13.941  12.485  13.980
92803SOL    HW180248  13.910  12.486  13.889
92803SOL    HW280249  13.940  12.578  14.006
92804SOL     OW80250   0.228   9.186   8.631
92804SOL    HW180251   0.185   9.108   8.665
92804SOL    HW280252   0.158   9.237   8.592
92805SOL     OW80253   0.637   7.124  14.644
92805SOL    HW180254   0.675   7.205  14.679
92805SOL    HW280255   0.565   7.104  14.704
92806SOL     OW80256  12.838   7.695  12.036
92806SOL    HW180257  12.836   7.746  12.117
92806SOL    HW280258  12.821   7.759  11.967
92807SOL     OW80259  13.504  11.869  11.522
92807SOL    HW180260  13.586  11.890  11.566
92807SOL    HW280261  13.530  11.840  11.434
92808SOL     OW80262   4.982   4.738   9.114
92808SOL    HW180263   4.917   4.745   9.184
92808SOL    HW280264   5.066   4.729   9.159
92809SOL     OW80265   5.234   6.805  12.700
92809SOL    HW180266   5.287   6.750  12.758
92809SOL    HW280267   5.194   6.744  12.639
92810SOL     OW80268   9.096   6.587   0.798
92810SOL    HW180269   9.141   6.637   0.866
92810SOL    HW280270   9.022   6.642   0.773
92811SOL     OW80271   0.025   9.249   7.997
92811SOL    HW180272  14.878   9.160   8.019
92811SOL    HW280273  14.852   9.305   8.055
92812SOL     OW80274   5.601   8.310   6.545
92812SOL    HW180275   5.640   8.284   6.628
92812SOL    HW280276   5.570   8.399   6.560
92813SOL     OW80277  13.899   1.438  14.866
92813SOL    HW180278  13.929   1.495   0.058
92813SOL    HW280279  13.851   1.367   0.031
92814SOL     OW80280   8.470   9.015   0.007
92814SOL    HW180281   8.403   8.988  14.824
92814SOL    HW280282   8.454   8.962   0.085
92815SOL     OW80283   1.105   3.562  11.827
92815SOL    HW180284   1.072   3.520  11.747
92815SOL    HW280285   1.028   3.606  11.863
92816SOL     OW80286   2.419   1.677   3.558
92816SOL    HW180287   2.485   1.644   3.498
92816SOL    HW280288   2.424   1.618   3.634
92817SOL     OW80289  13.544   2.709  11.404
92817SOL    HW180290  13.497   2.630  11.430
92817SOL    HW280291  13.543   2.764  11.482
92818SOL     OW80292  10.552   5.802  12.369
92818SOL    HW180293  10.534   5.715  12.403
92818SOL    HW280294  10.600   5.787  12.288
92819SOL     OW80295   6.348   3.636   8.909
92819SOL    HW180296   6.254   3.622   8.899
92819SOL    HW280297   6.386   3.548   8.909
92820SOL     OW80298  13.498   5.314  11.729
92820SOL    HW180299  13.589   5.318  11.760
92820SOL    HW280300  13.504   5.338  11.636
92821SOL     OW80301   6.715  14.622   7.358
92821SOL    HW180302   6.722  14.672   7.277
92821SOL    HW280303   6.771  14.669   7.420
92822SOL     OW80304   3.166   7.345   8.011
92822SOL    HW180305   3.220   7.412   7.970
92822SOL    HW280306   3.228   7.289   8.058
92823SOL     OW80307  11.753   8.323   0.441
92823SOL    HW180308  11.676   8.375   0.418
92823SOL    HW280309  11.752   8.320   0.537
92824SOL     OW80310  10.818  12.427   4.064
92824SOL    HW180311  10.821  12.351   4.006
92824SOL    HW280312  10.842  12.501   4.009
92825SOL     OW80313  11.851  11.444   9.150
92825SOL    HW180314  11.760  11.416   9.160
92825SOL    HW280315  11.902  11.376   9.192
92826SOL     OW80316   2.335  10.796   9.613
92826SOL    HW180317   2.251  10.762   9.582
92826SOL    HW280318   2.333  10.889   9.587
92827SOL     OW80319   4.724   8.510   5.170
92827SOL    HW180320   4.801   8.457   5.190
92827SOL    HW280321   4.739   8.542   5.081
92828SOL     OW80322   2.183   6.796   4.351
92828SOL    HW180323   2.106   6.840   4.387
92828SOL    HW280324   2.202   6.844   4.270
92829SOL     OW80325   3.765  13.223  14.008
92829SOL    HW180326   3.794  13.218  13.917
92829SOL    HW280327   3.764  13.132  14.038
92830SOL     OW80328   5.887  11.480   9.590
92830SOL    HW180329   5.896  11.566   9.548
92830SOL    HW280330   5.962  11.431   9.558
92831SOL     OW80331   7.337   5.773   8.991
92831SOL    HW180332   7.257   5.789   8.942
92831SOL    HW280333   7.317   5.802   9.080
92832SOL     OW80334   6.379   8.942   1.061
92832SOL    HW180335   6.326   9.020   1.077
92832SOL    HW280336   6.420   8.923   1.146
92833SOL     OW80337   2.543   8.338   2.379
92833SOL    HW180338   2.544   8.265   2.317
92833SOL    HW280339   2.521   8.415   2.326
92834SOL     OW80340  13.539   7.364   4.966
92834SOL    HW180341  13.618   7.316   4.940
92834SOL    HW280342  13.470   7.327   4.910
92835SOL     OW80343   8.781  10.975   0.271
92835SOL    HW180344   8.731  10.896   0.249
92835SOL    HW280345   8.723  11.025   0.329
92836SOL     OW80346   0.906  13.418   6.626
92836SOL    HW180347   0.859  13.496   6.594
92836SOL    HW280348   0.926  13.368   6.547
92837SOL     OW80349   4.575   6.008   5.131
92837SOL    HW180350   4.504   5.982   5.190
92837SOL    HW280351   4.558   6.100   5.113
92838SOL     OW80352   6.243  12.899  14.860
92838SOL    HW180353   6.189  12.859  14.792
92838SOL    HW280354   6.305  12.953  14.813
92839SOL     OW80355  10.875   8.549   9.052
92839SOL    HW180356  10.832   8.577   9.133
92839SOL    HW280357  10.968   8.561   9.068
92840SOL     OW80358  10.055  10.922   3.914
92840SOL    HW180359  10.112  10.898   3.841
92840SOL    HW280360  10.113  10.966   3.976
92841SOL     OW80361   1.280  12.206  10.705
92841SOL    HW180362   1.337  12.282  10.693
92841SOL    HW280363   1.195  12.243  10.727
92842SOL     OW80364  11.803   0.833   7.994
92842SOL    HW180365  11.772   0.913   8.037
92842SOL    HW280366  11.725   0.797   7.952
92843SOL     OW80367  14.575   7.986   7.261
92843SOL    HW180368  14.553   8.065   7.310
92843SOL    HW280369  14.500   7.972   7.203
92844SOL     OW80370   7.671   8.434  11.896
92844SOL    HW180371   7.747   8.491  11.887
92844SOL    HW280372   7.665   8.415  11.989
92845SOL     OW80373   6.629  12.741   1.299
92845SOL    HW180374   6.551  12.686   1.299
92845SOL    HW280375   6.665  12.732   1.211
92846SOL     OW80376   7.866   1.729   9.733
92846SOL    HW180377   7.813   1.783   9.792
92846SOL    HW280378   7.847   1.764   9.646
92847SOL     OW80379   1.888  12.164  13.404
92847SOL    HW180380   1.878  12.097  13.336
92847SOL    HW280381   1.947  12.124  13.467
92848SOL     OW80382   5.403  10.003   1.904
92848SOL    HW180383   5.349   9.983   1.827
92848SOL    HW280384   5.493  10.000   1.871
92849SOL     OW80385   3.567   1.713   4.123
92849SOL    HW180386   3.565   1.630   4.076
92849SOL    HW280387   3.598   1.690   4.211
92850SOL     OW80388   8.961  14.528  11.266
92850SOL    HW180389   8.969  14.454  11.205
92850SOL    HW280390   8.869  14.528  11.292
92851SOL     OW80391   3.596   9.229  10.739
92851SOL    HW180392   3.518   9.250  10.789
92851SOL    HW280393   3.621   9.311  10.697
92852SOL     OW80394   1.651   7.989   9.284
92852SOL    HW180395   1.710   7.956   9.352
92852SOL    HW280396   1.563   7.967   9.317
92853SOL     OW80397   5.499   3.222  11.548
92853SOL    HW180398   5.483   3.150  11.609
92853SOL    HW280399   5.481   3.301  11.599
92854SOL     OW80400   7.191  14.536  13.174
92854SOL    HW180401   7.233  14.622  13.182
92854SOL    HW280402   7.259  14.474  13.202
92855SOL     OW80403   2.777   7.444  11.095
92855SOL    HW180404   2.725   7.396  11.160
92855SOL    HW280405   2.759   7.536  11.114
92856SOL     OW80406   9.579   3.608   1.962
92856SOL    HW180407   9.557   3.684   1.908
92856SOL    HW280408   9.621   3.645   2.040
92857SOL     OW80409  11.598  11.353  12.355
92857SOL    HW180410  11.608  11.334  12.449
92857SOL    HW280411  11.528  11.296  12.326
92858SOL     OW80412   6.081  10.213   2.055
92858SOL    HW180413   6.118  10.129   2.027
92858SOL    HW280414   6.056  10.199   2.146
92859SOL     OW80415   8.674   0.957  13.907
92859SOL    HW180416   8.725   0.947  13.988
92859SOL    HW280417   8.590   0.992  13.936
92860SOL     OW80418   2.902   7.690   8.377
92860SOL    HW180419   2.921   7.631   8.304
92860SOL    HW280420   2.863   7.767   8.337
92861SOL     OW80421   2.428   3.157   8.333
92861SOL    HW180422   2.419   3.233   8.390
92861SOL    HW280423   2.341   3.117   8.332
92862SOL     OW80424  14.783  14.194  14.695
92862SOL    HW180425  14.742  14.148  14.768
92862SOL    HW280426  14.767  14.286  14.712
92863SOL     OW80427   4.182  12.033   1.738
92863SOL    HW180428   4.093  12.045   1.704
92863SOL    HW280429   4.212  11.952   1.697
92864SOL     OW80430  10.063   1.160   8.745
92864SOL    HW180431  10.118   1.235   8.769
92864SOL    HW280432   9.974   1.189   8.764
92865SOL     OW80433   2.904   6.186   8.741
92865SOL    HW180434   2.865   6.139   8.667
92865SOL    HW280435   2.962   6.250   8.701
92866SOL     OW80436   0.427   9.345   7.163
92866SOL    HW180437   0.480   9.266   7.177
92866SOL    HW280438   0.486   9.417   7.186
92867SOL     OW80439   9.499   3.959  14.004
92867SOL    HW180440   9.564   4.029  14.014
92867SOL    HW280441   9.482   3.957  13.909
92868SOL     OW80442   4.284   1.765   8.126
92868SOL    HW180443   4.245   1.847   8.155
92868SOL    HW280444   4.287   1.772   8.031
92869SOL     OW80445  10.307   0.370   1.395
92869SOL    HW180446  10.214   0.391   1.391
92869SOL    HW280447  10.336   0.403   1.480
92870SOL     OW80448  12.585   5.397  10.788
92870SOL    HW180449  12.501   5.439  10.773
92870SOL    HW280450  12.577   5.310  10.748
92871SOL     OW80451  12.541  12.126  10.255
92871SOL    HW180452  12.547  12.162  10.166
92871SOL    HW280453  12.583  12.040  10.248
92872SOL     OW80454  14.781  13.126   8.363
92872SOL    HW180455  14.852  13.085   8.314
92872SOL    HW280456  14.741  13.187   8.301
92873SOL     OW80457   9.070   2.465   8.173
92873SOL    HW180458   9.053   2.490   8.082
92873SOL    HW280459   9.138   2.398   8.167
92874SOL     OW80460   7.453   1.236   9.653
92874SOL    HW180461   7.460   1.205   9.562
92874SOL    HW280462   7.530   1.199   9.696
92875SOL     OW80463  14.722   6.582  12.663
92875SOL    HW180464  14.809   6.622  12.660
92875SOL    HW280465  14.739   6.490  12.687
92876SOL     OW80466   3.592   2.696   2.127
92876SOL    HW180467   3.609   2.619   2.181
92876SOL    HW280468   3.647   2.684   2.050
92877SOL     OW80469   3.852   7.768  13.695
92877SOL    HW180470   3.788   7.716  13.647
92877SOL    HW280471   3.919   7.790  13.630
92878SOL     OW80472   2.437   9.949   7.143
92878SOL    HW180473   2.426   9.911   7.056
92878SOL    HW280474   2.512   9.903   7.180
92879SOL     OW80475  11.526   2.025   7.663
92879SOL    HW180476  11.578   1.999   7.587
92879SOL    HW280477  11.560   1.970   7.734
92880SOL     OW80478   5.956  13.456   3.593
92880SOL    HW180479   5.956  13.371   3.636
92880SOL    HW280480   6.036  13.499   3.625
92881SOL     OW80481   5.462   0.661   0.125
92881SOL    HW180482   5.484   0.650   0.218
92881SOL    HW280483   5.489   0.751   0.105
92882SOL     OW80484  12.661   9.525  12.563
92882SOL    HW180485  12.753   9.549  12.563
92882SOL    HW280486  12.648   9.481  12.647
92883SOL     OW80487   2.424  13.170  12.421
92883SOL    HW180488   2.517  13.191  12.434
92883SOL    HW280489   2.414  13.084  12.460
92884SOL     OW80490   2.928   2.750   0.672
92884SOL    HW180491   2.989   2.824   0.675
92884SOL    HW280492   2.889   2.748   0.760
92885SOL     OW80493   2.311   4.276   6.416
92885SOL    HW180494   2.267   4.232   6.488
92885SOL    HW280495   2.241   4.297   6.354
92886SOL     OW80496   1.596  10.388   0.268
92886SOL    HW180497   1.602  10.450   0.196
92886SOL    HW280498   1.550  10.312   0.231
92887SOL     OW80499   4.289   7.037  13.438
92887SOL    HW180500   4.206   6.998  13.466
92887SOL    HW280501   4.311   6.991  13.357
92888SOL     OW80502   9.164   0.454   3.275
92888SOL    HW180503   9.224   0.386   3.307
92888SOL    HW280504   9.169   0.448   3.180
92889SOL     OW80505   8.095   8.706   7.411
92889SOL    HW180506   8.126   8.778   7.466
92889SOL    HW280507   8.134   8.722   7.325
92890SOL     OW80508   7.752   4.983  14.591
92890SOL    HW180509   7.717   5.039  14.522
92890SOL    HW280510   7.768   4.899  14.547
92891SOL     OW80511   9.485   6.141   2.414
92891SOL    HW180512   9.551   6.181   2.357
92891SOL    HW280513   9.510   6.168   2.503
92892SOL     OW80514   4.763   8.618   8.471
92892SOL    HW180515   4.756   8.667   8.553
92892SOL    HW280516   4.722   8.675   8.406
92893SOL     OW80517   9.741   9.891   5.317
92893SOL    HW180518   9.814   9.850   5.364
92893SOL    HW280519   9.672   9.825   5.317
92894SOL     OW80520   5.998  13.782   5.918
92894SOL    HW180521   6.030  13.775   6.008
92894SOL    HW280522   5.964  13.871   5.911
92895SOL     OW80523  11.773   2.087   4.792
92895SOL    HW180524  11.691   2.125   4.761
92895SOL    HW280525  11.778   2.111   4.884
92896SOL     OW80526   9.614  13.771   9.934
92896SOL    HW180527   9.583  13.717   9.862
92896SOL    HW280528   9.663  13.710   9.991
92897SOL     OW80529  10.077  10.133  13.414
92897SOL    HW180530  10.165  10.145  13.378
92897SOL    HW280531  10.069  10.038  13.426
92898SOL     OW80532   2.343  10.542   9.431
92898SOL    HW180533   2.268  10.597   9.452
92898SOL    HW280534   2.416  10.579   9.481
92899SOL     OW80535   3.163  12.264   5.688
92899SOL    HW180536   3.146  12.343   5.637
92899SOL    HW280537   3.259  12.260   5.695
92900SOL     OW80538   5.596  14.344   4.471
92900SOL    HW180539   5.541  14.300   4.536
92900SOL    HW280540   5.590  14.288   4.394
92901SOL     OW80541   7.564   2.902   5.998
92901SOL    HW180542   7.640   2.950   6.031
92901SOL    HW280543   7.594   2.861   5.918
92902SOL     OW80544   8.792  14.021   4.554
92902SOL    HW180545   8.793  14.071   4.636
92902SOL    HW280546   8.720  13.959   4.565
92903SOL     OW80547  11.729   6.246   6.148
92903SOL    HW180548  11.722   6.337   6.177
92903SOL    HW280549  11.729   6.195   6.228
92904SOL     OW80550  13.375   4.177   6.880
92904SOL    HW180551  13.450   4.136   6.837
92904SOL    HW280552  13.305   4.173   6.816
92905SOL     OW80553   4.856   5.580   9.076
92905SOL    HW180554   4.908   5.653   9.044
92905SOL    HW280555   4.792   5.564   9.007
92906SOL     OW80556  11.135  11.159   2.334
92906SOL    HW180557  11.176  11.243   2.353
92906SOL    HW280558  11.112  11.165   2.241
92907SOL     OW80559   9.742   6.384  13.851
92907SOL    HW180560   9.766   6.416  13.764
92907SOL    HW280561   9.825   6.354  13.889
92908SOL     OW80562   3.628  12.145  11.376
92908SOL    HW180563   3.550  12.117  11.425
92908SOL    HW280564   3.594  12.208  11.313
92909SOL     OW80565   9.476  14.787   7.777
92909SOL    HW180566   9.406  14.774   7.712
92909SOL    HW280567   9.430  14.798   7.860
92910SOL     OW80568   8.346  13.563   1.844
92910SOL    HW180569   8.408  13.501   1.882
92910SOL    HW280570   8.356  13.551   1.750
92911SOL     OW80571  10.328  11.364  12.627
92911SOL    HW180572  10.289  11.451  12.620
92911SOL    HW280573  10.392  11.372  12.698
92912SOL     OW80574   7.156  13.354  13.791
92912SOL    HW180575   7.158  13.323  13.700
92912SOL    HW280576   7.153  13.274  13.843
92913SOL     OW80577  13.462   9.041  13.453
92913SOL    HW180578  13.484   8.966  13.508
92913SOL    HW280579  13.546   9.079  13.429
92914SOL     OW80580  11.120   5.729   0.111
92914SOL    HW180581  11.046   5.670   0.097
92914SOL    HW280582  11.147   5.713   0.201
92915SOL     OW80583   1.330   3.132  10.700
92915SOL    HW180584   1.420   3.142  10.670
92915SOL    HW280585   1.314   3.037  10.698
92916SOL     OW80586   9.383   7.926  10.470
92916SOL    HW180587   9.437   7.950  10.546
92916SOL    HW280588   9.444   7.885  10.409
92917SOL     OW80589   9.050  13.990   1.887
92917SOL    HW180590   9.038  14.080   1.919
92917SOL    HW280591   9.035  13.995   1.793
92918SOL     OW80592   0.031   2.509   7.420
92918SOL    HW180593  14.855   2.506   7.497
92918SOL    HW280594  14.849   2.518   7.347
92919SOL     OW80595   3.008   2.386  14.151
92919SOL    HW180596   3.028   2.479  14.165
92919SOL    HW280597   2.990   2.352  14.239
92920SOL     OW80598   0.855   3.960   5.564
92920SOL    HW180599   0.764   3.985   5.549
92920SOL    HW280600   0.906   4.038   5.542
92921SOL     OW80601   2.286   7.339   5.937
92921SOL    HW180602   2.259   7.275   5.872
92921SOL    HW280603   2.216   7.405   5.937
92922SOL     OW80604   4.021   9.234  13.353
92922SOL    HW180605   4.035   9.268  13.441
92922SOL    HW280606   3.937   9.272  13.326
92923SOL     OW80607   5.481   1.907   6.597
92923SOL    HW180608   5.501   1.970   6.666
92923SOL    HW280609   5.481   1.822   6.641
92924SOL     OW80610  11.989   3.178   9.590
92924SOL    HW180611  11.907   3.227   9.581
92924SOL    HW280612  11.965   3.088   9.568
92925SOL     OW80613   4.972   5.924  11.439
92925SOL    HW180614   4.943   5.920  11.348
92925SOL    HW280615   5.059   5.964  11.435
92926SOL     OW80616  11.282   9.569  12.433
92926SOL    HW180617  11.366   9.555  12.476
92926SOL    HW280618  11.247   9.482  12.418
92927SOL     OW80619  13.406   1.601   5.637
92927SOL    HW180620  13.474   1.624   5.701
92927SOL    HW280621  13.434   1.516   5.603
92928SOL     OW80622   9.524   6.944   5.436
92928SOL    HW180623   9.492   6.958   5.525
92928SOL    HW280624   9.467   6.998   5.382
92929SOL     OW80625   5.271   9.177  13.643
92929SOL    HW180626   5.288   9.093  13.600
92929SOL    HW280627   5.220   9.226  13.579
92930SOL     OW80628   1.831   7.059   8.063
92930SOL    HW180629   1.833   7.123   8.133
92930SOL    HW280630   1.833   7.111   7.982
92931SOL     OW80631  14.182   1.332   2.785
92931SOL    HW180632  14.184   1.336   2.690
92931SOL    HW280633  14.272   1.353   2.811
92932SOL     OW80634   1.019   9.298   9.221
92932SOL    HW180635   0.958   9.352   9.270
92932SOL    HW280636   0.995   9.310   9.129
92933SOL     OW80637   2.232  11.864   1.216
92933SOL    HW180638   2.217  11.779   1.257
92933SOL    HW280639   2.168  11.868   1.145
92934SOL     OW80640   2.099   9.790   7.488
92934SOL    HW180641   2.117   9.866   7.544
92934SOL    HW280642   2.138   9.813   7.403
92935SOL     OW80643   3.379  12.615   7.217
92935SOL    HW180644   3.466  12.609   7.256
92935SOL    HW280645   3.341  12.528   7.229
92936SOL     OW80646  13.194  13.160   1.274
92936SOL    HW180647  13.276  13.117   1.250
92936SOL    HW280648  13.192  13.156   1.370
92937SOL     OW80649  12.458   5.707   8.645
92937SOL    HW180650  12.467   5.793   8.687
92937SOL    HW280651  12.369   5.706   8.611
92938SOL     OW80652   3.792   0.311   8.743
92938SOL    HW180653   3.788   0.387   8.686
92938SOL    HW280654   3.874   0.268   8.721
92939SOL     OW80655  11.527   9.555   2.707
92939SOL    HW180656  11.571   9.587   2.629
92939SOL    HW280657  11.598   9.532   2.767
92940SOL     OW80658  13.022  13.948  12.918
92940SOL    HW180659  13.047  14.039  12.937
92940SOL    HW280660  12.936  13.955  12.878
92941SOL     OW80661   7.577  10.010   4.611
92941SOL    HW180662   7.667  10.000   4.642
92941SOL    HW280663   7.529   9.939   4.654
92942SOL     OW80664  12.390   2.302   3.399
92942SOL    HW180665  12.440   2.308   3.481
92942SOL    HW280666  12.424   2.224   3.355
92943SOL     OW80667   6.716  11.425   8.612
92943SOL    HW180668   6.708  11.398   8.703
92943SOL    HW280669   6.734  11.344   8.564
92944SOL     OW80670  11.666   2.101   2.155
92944SOL    HW180671  11.757   2.107   2.126
92944SOL    HW280672  11.617   2.148   2.087
92945SOL     OW80673   4.163  12.776   9.862
92945SOL    HW180674   4.111  12.842   9.817
92945SOL    HW280675   4.142  12.787   9.954
92946SOL     OW80676   2.740  10.517   5.130
92946SOL    HW180677   2.733  10.603   5.089
92946SOL    HW280678   2.823  10.482   5.098
92947SOL     OW80679   9.911   5.570   3.227
92947SOL    HW180680   9.863   5.652   3.228
92947SOL    HW280681   9.904   5.539   3.136
92948SOL     OW80682   8.991  11.238  12.265
92948SOL    HW180683   9.083  11.261  12.252
92948SOL    HW280684   8.968  11.274  12.350
92949SOL     OW80685   2.102   8.636   6.490
92949SOL    HW180686   2.163   8.563   6.480
92949SOL    HW280687   2.154   8.706   6.530
92950SOL     OW80688  13.913   0.652  14.717
92950SOL    HW180689  13.860   0.577  14.744
92950SOL    HW280690  13.860   0.728  14.738
92951SOL     OW80691   2.327   5.581  12.834
92951SOL    HW180692   2.297   5.659  12.879
92951SOL    HW280693   2.408   5.609  12.790
92952SOL     OW80694  12.099   3.510   9.253
92952SOL    HW180695  12.066   3.570   9.319
92952SOL    HW280696  12.063   3.544   9.170
92953SOL     OW80697   2.184   9.618   7.741
92953SOL    HW180698   2.109   9.661   7.784
92953SOL    HW280699   2.162   9.621   7.648
92954SOL     OW80700   8.903   7.263   0.308
92954SOL    HW180701   8.866   7.351   0.296
92954SOL    HW280702   8.997   7.278   0.319
92955SOL     OW80703   4.606  11.859  12.968
92955SOL    HW180704   4.579  11.947  12.942
92955SOL    HW280705   4.666  11.874  13.042
92956SOL     OW80706  14.150   9.191   5.577
92956SOL    HW180707  14.226   9.249   5.587
92956SOL    HW280708  14.177   9.109   5.618
92957SOL     OW80709  11.471   8.271  11.049
92957SOL    HW180710  11.403   8.335  11.072
92957SOL    HW280711  11.552   8.323  11.047
92958SOL     OW80712   4.512   6.584   5.250
92958SOL    HW180713   4.446   6.630   5.304
92958SOL    HW280714   4.499   6.619   5.162
92959SOL     OW80715   3.165   9.033   4.231
92959SOL    HW180716   3.131   8.944   4.218
92959SOL    HW280717   3.253   9.031   4.194
92960SOL     OW80718   1.843  11.205   0.178
92960SOL    HW180719   1.772  11.261   0.148
92960SOL    HW280720   1.814  11.172   0.263
92961SOL     OW80721   8.577   1.539   0.109
92961SOL    HW180722   8.487   1.553   0.137
92961SOL    HW280723   8.576   1.552   0.014
92962SOL     OW80724  14.280  14.163  13.319
92962SOL    HW180725  14.346  14.116  13.268
92962SOL    HW280726  14.202  14.108  13.317
92963SOL     OW80727   3.612   8.105   4.750
92963SOL    HW180728   3.616   8.016   4.786
92963SOL    HW280729   3.527   8.138   4.777
92964SOL     OW80730   9.594  14.363  12.644
92964SOL    HW180731   9.540  14.432  12.606
92964SOL    HW280732   9.633  14.403  12.722
92965SOL     OW80733   5.490   8.367  12.004
92965SOL    HW180734   5.564   8.356  12.063
92965SOL    HW280735   5.452   8.279  11.996
92966SOL     OW80736   0.780   5.258   9.179
92966SOL    HW180737   0.727   5.223   9.108
92966SOL    HW280738   0.862   5.285   9.136
92967SOL     OW80739  14.111   3.307   7.276
92967SOL    HW180740  14.150   3.307   7.188
92967SOL    HW280741  14.048   3.379   7.274
92968SOL     OW80742  14.398  12.664   2.232
92968SOL    HW180743  14.315  12.689   2.271
92968SOL    HW280744  14.435  12.745   2.197
92969SOL     OW80745   4.123   1.263   8.293
92969SOL    HW180746   4.180   1.339   8.279
92969SOL    HW280747   4.075   1.254   8.211
92970SOL     OW80748   4.766   5.521  12.743
92970SOL    HW180749   4.766   5.502  12.649
92970SOL    HW280750   4.846   5.479  12.775
92971SOL     OW80751   5.156  10.655   3.326
92971SOL    HW180752   5.104  10.670   3.247
92971SOL    HW280753   5.217  10.585   3.301
92972SOL     OW80754  14.828   7.070  13.197
92972SOL    HW180755  14.835   7.132  13.270
92972SOL    HW280756   0.010   7.000  13.219
92973SOL     OW80757   6.429   0.474  12.412
92973SOL    HW180758   6.373   0.514  12.478
92973SOL    HW280759   6.446   0.544  12.349
92974SOL     OW80760   6.844  14.559   4.708
92974SOL    HW180761   6.859  14.599   4.793
92974SOL    HW280762   6.761  14.597   4.678
92975SOL     OW80763   6.787  12.306  12.286
92975SOL    HW180764   6.769  12.311  12.193
92975SOL    HW280765   6.735  12.233  12.318
92976SOL     OW80766   7.590  10.078   1.130
92976SOL    HW180767   7.621  10.115   1.213
92976SOL    HW280768   7.616  10.141   1.064
92977SOL     OW80769  13.505   5.295   8.634
92977SOL    HW180770  13.464   5.269   8.551
92977SOL    HW280771  13.595   5.317   8.610
92978SOL     OW80772   9.367   7.680   5.562
92978SOL    HW180773   9.440   7.742   5.555
92978SOL    HW280774   9.407   7.600   5.595
92979SOL     OW80775   7.774  13.617   5.586
92979SOL    HW180776   7.723  13.558   5.641
92979SOL    HW280777   7.708  13.660   5.530
92980SOL     OW80778  13.830  13.867   4.713
92980SOL    HW180779  13.922  13.849   4.733
92980SOL    HW280780  13.829  13.959   4.686
92981SOL     OW80781   9.126   5.081   4.248
92981SOL    HW180782   9.097   5.051   4.162
92981SOL    HW280783   9.128   5.177   4.240
92982SOL     OW80784  12.750   7.894   0.223
92982SOL    HW180785  12.786   7.857   0.143
92982SOL    HW280786  12.787   7.982   0.228
92983SOL     OW80787  13.615   9.671  11.912
92983SOL    HW180788  13.623   9.587  11.868
92983SOL    HW280789  13.528   9.670  11.952
92984SOL     OW80790  13.680   1.237   6.052
92984SOL    HW180791  13.719   1.300   5.991
92984SOL    HW280792  13.705   1.152   6.018
92985SOL     OW80793  10.432   9.070  10.129
92985SOL    HW180794  10.446   8.983  10.093
92985SOL    HW280795  10.342   9.067  10.162
92986SOL     OW80796   4.742   9.752   9.449
92986SOL    HW180797   4.788   9.787   9.525
92986SOL    HW280798   4.768   9.810   9.377
92987SOL     OW80799   5.755  13.931  13.058
92987SOL    HW180800   5.689  13.878  13.103
92987SOL    HW280801   5.728  14.021  13.074
92988SOL     OW80802   8.393   1.098   8.008
92988SOL    HW180803   8.476   1.140   8.026
92988SOL    HW280804   8.411   1.004   8.020
92989SOL     OW80805  10.892  10.895  14.111
92989SOL    HW180806  10.825  10.842  14.066
92989SOL    HW280807  10.843  10.945  14.177
92990SOL     OW80808  12.008   9.808   8.048
92990SOL    HW180809  11.952   9.879   8.079
92990SOL    HW280810  12.096   9.846   8.044
92991SOL     OW80811   1.531   1.887   8.872
92991SOL    HW180812   1.519   1.978   8.901
92991SOL    HW280813   1.495   1.834   8.942
92992SOL     OW80814  11.788   5.039  14.052
92992SOL    HW180815  11.760   5.131  14.051
92992SOL    HW280816  11.875   5.041  14.093
92993SOL     OW80817   9.319   4.507   7.760
92993SOL    HW180818   9.304   4.415   7.738
92993SOL    HW280819   9.285   4.515   7.849
92994SOL     OW80820  12.735  10.905  11.786
92994SOL    HW180821  12.753  10.812  11.772
92994SOL    HW280822  12.641  10.907  11.808
92995SOL     OW80823  14.667   6.000   2.188
92995SOL    HW180824  14.631   5.912   2.201
92995SOL    HW280825  14.761   5.986   2.179
92996SOL     OW80826  11.022   4.669   0.807
92996SOL    HW180827  10.985   4.617   0.736
92996SOL    HW280828  10.946   4.700   0.856
92997SOL     OW80829   9.500  11.510   0.549
92997SOL    HW180830   9.487  11.548   0.462
92997SOL    HW280831   9.470  11.420   0.541
92998SOL     OW80832  11.286  12.139   4.120
92998SOL    HW180833  11.226  12.197   4.167
92998SOL    HW280834  11.338  12.198   4.064
92999SOL     OW80835   8.775  14.387   7.504
92999SOL    HW180836   8.702  14.408   7.446
92999SOL    HW280837   8.840  14.346   7.447
93000SOL     OW80838  13.063   8.233   3.692
93000SOL    HW180839  13.140   8.179   3.675
93000SOL    HW280840  13.004   8.216   3.618
93001SOL     OW80841   3.115   0.956   8.524
93001SOL    HW180842   3.191   1.014   8.535
93001SOL    HW280843   3.136   0.879   8.576
93002SOL     OW80844   7.103  13.719  10.861
93002SOL    HW180845   7.039  13.777  10.904
93002SOL    HW280846   7.142  13.669  10.933
93003SOL     OW80847   3.875   8.414  10.045
93003SOL    HW180848   3.883   8.507  10.023
93003SOL    HW280849   3.929   8.403  10.123
93004SOL     OW80850   5.802   4.775  14.572
93004SOL    HW180851   5.886   4.817  14.591
93004SOL    HW280852   5.748   4.845  14.535
93005SOL     OW80853  13.216   2.344   6.595
93005SOL    HW180854  13.239   2.251   6.590
93005SOL    HW280855  13.192   2.358   6.686
93006SOL     OW80856   8.040   1.378   8.560
93006SOL    HW180857   8.119   1.338   8.598
93006SOL    HW280858   8.061   1.389   8.468
93007SOL     OW80859   2.684   0.627  11.260
93007SOL    HW180860   2.627   0.608  11.185
93007SOL    HW280861   2.696   0.722  11.257
93008SOL     OW80862   1.350  13.547  13.113
93008SOL    HW180863   1.306  13.589  13.039
93008SOL    HW280864   1.294  13.473  13.135
93009SOL     OW80865   1.685   2.593  11.822
93009SOL    HW180866   1.731   2.510  11.831
93009SOL    HW280867   1.724   2.634  11.744
93010SOL     OW80868  12.498   7.620   4.811
93010SOL    HW180869  12.489   7.525   4.803
93010SOL    HW280870  12.476   7.654   4.725
93011SOL     OW80871   3.942   4.359   4.327
93011SOL    HW180872   3.874   4.299   4.358
93011SOL    HW280873   3.979   4.396   4.407
93012SOL     OW80874   8.951  13.375  12.560
93012SOL    HW180875   8.881  13.410  12.504
93012SOL    HW280876   8.966  13.286  12.527
93013SOL     OW80877  11.237   9.932   6.467
93013SOL    HW180878  11.156   9.981   6.477
93013SOL    HW280879  11.296   9.993   6.423
93014SOL     OW80880   4.881   5.322  13.567
93014SOL    HW180881   4.946   5.254  13.586
93014SOL    HW280882   4.817   5.278  13.511
93015SOL     OW80883   4.094   6.329  12.334
93015SOL    HW180884   4.059   6.410  12.298
93015SOL    HW280885   4.184   6.326  12.302
93016SOL     OW80886  11.253  11.445   8.386
93016SOL    HW180887  11.332  11.467   8.435
93016SOL    HW280888  11.186  11.429   8.453
93017SOL     OW80889   2.870  13.729   7.888
93017SOL    HW180890   2.931  13.697   7.822
93017SOL    HW280891   2.790  13.678   7.874
93018SOL     OW80892   5.424   9.973  14.082
93018SOL    HW180893   5.346   9.920  14.066
93018SOL    HW280894   5.492   9.931  14.030
93019SOL     OW80895   4.249   5.792   9.677
93019SOL    HW180896   4.319   5.798   9.612
93019SOL    HW280897   4.245   5.699   9.699
93020SOL     OW80898   7.289  13.203   4.676
93020SOL    HW180899   7.212  13.168   4.632
93020SOL    HW280900   7.308  13.141   4.746
93021SOL     OW80901   0.599   6.842   8.764
93021SOL    HW180902   0.550   6.910   8.810
93021SOL    HW280903   0.536   6.770   8.754
93022SOL     OW80904   7.770  14.352  10.716
93022SOL    HW180905   7.692  14.395  10.753
93022SOL    HW280906   7.741  14.320  10.631
93023SOL     OW80907   5.033   4.278  12.842
93023SOL    HW180908   5.126   4.267  12.864
93023SOL    HW280909   4.993   4.196  12.870
93024SOL     OW80910   5.842  10.834  14.354
93024SOL    HW180911   5.932  10.863  14.364
93024SOL    HW280912   5.829  10.831  14.259
93025SOL     OW80913   8.682   5.060  13.060
93025SOL    HW180914   8.716   5.145  13.088
93025SOL    HW280915   8.754   5.022  13.009
93026SOL     OW80916  11.641  13.801   6.067
93026SOL    HW180917  11.608  13.874   6.015
93026SOL    HW280918  11.580  13.729   6.050
93027SOL     OW80919   2.037   0.094  14.364
93027SOL    HW180920   1.974   0.154  14.405
93027SOL    HW280921   1.994   0.064  14.284
93028SOL     OW80922   5.795   9.665   0.846
93028SOL    HW180923   5.777   9.723   0.772
93028SOL    HW280924   5.854   9.715   0.902
93029SOL     OW80925   1.429   0.366   2.261
93029SOL    HW180926   1.366   0.422   2.216
93029SOL    HW280927   1.376   0.302   2.307
93030SOL     OW80928   8.750   9.349   8.892
93030SOL    HW180929   8.821   9.390   8.842
93030SOL    HW280930   8.699   9.423   8.926
93031SOL     OW80931  12.142   6.321   5.581
93031SOL    HW180932  12.232   6.352   5.594
93031SOL    HW280933  12.089   6.377   5.638
93032SOL     OW80934  13.430  13.021   1.240
93032SOL    HW180935  13.485  13.095   1.214
93032SOL    HW280936  13.489  12.963   1.288
93033SOL     OW80937   0.233   0.559   8.010
93033SOL    HW180938   0.271   0.471   8.009
93033SOL    HW280939   0.245   0.589   8.100
93034SOL     OW80940   7.443  10.362   2.832
93034SOL    HW180941   7.365  10.319   2.868
93034SOL    HW280942   7.408  10.431   2.775
93035SOL     OW80943   2.264  13.945  14.739
93035SOL    HW180944   2.181  13.899  14.747
93035SOL    HW280945   2.329  13.876  14.728
93036SOL     OW80946  12.837  13.584   3.466
93036SOL    HW180947  12.822  13.589   3.561
93036SOL    HW280948  12.902  13.514   3.456
93037SOL     OW80949  14.474  13.593   7.982
93037SOL    HW180950  14.487  13.636   8.066
93037SOL    HW280951  14.486  13.500   8.001
93038SOL     OW80952   2.247   2.761   8.378
93038SOL    HW180953   2.309   2.729   8.313
93038SOL    HW280954   2.296   2.761   8.460
93039SOL     OW80955   9.284   1.255   1.861
93039SOL    HW180956   9.359   1.291   1.815
93039SOL    HW280957   9.322   1.193   1.924
93040SOL     OW80958   9.066   6.713  14.615
93040SOL    HW180959   9.044   6.778  14.548
93040SOL    HW280960   8.989   6.709  14.671
93041SOL     OW80961   9.483  13.891  12.535
93041SOL    HW180962   9.398  13.859  12.564
93041SOL    HW280963   9.522  13.930  12.613
93042SOL     OW80964  13.127   3.664   5.827
93042SOL    HW180965  13.213   3.705   5.835
93042SOL    HW280966  13.068   3.725   5.871
93043SOL     OW80967   1.528   6.430  14.422
93043SOL    HW180968   1.462   6.366  14.396
93043SOL    HW280969   1.611   6.382  14.418
93044SOL     OW80970   6.412   8.384   1.241
93044SOL    HW180971   6.316   8.377   1.241
93044SOL    HW280972   6.435   8.383   1.334
93045SOL     OW80973   0.093   4.134   4.099
93045SOL    HW180974   0.048   4.119   4.016
93045SOL    HW280975   0.051   4.074   4.161
93046SOL     OW80976  13.643  10.021   6.463
93046SOL    HW180977  13.610  10.024   6.373
93046SOL    HW280978  13.596   9.947   6.503
93047SOL     OW80979   1.045   7.375  12.532
93047SOL    HW180980   1.128   7.361  12.576
93047SOL    HW280981   1.048   7.466  12.503
93048SOL     OW80982  12.306   5.636   3.392
93048SOL    HW180983  12.253   5.707   3.356
93048SOL    HW280984  12.345   5.594   3.316
93049SOL     OW80985   6.510   0.061   0.609
93049SOL    HW180986   6.447   0.013   0.555
93049SOL    HW280987   6.550   0.123   0.548
93050SOL     OW80988   0.382   0.297   8.812
93050SOL    HW180989   0.410   0.224   8.868
93050SOL    HW280990   0.297   0.322   8.847
93051SOL     OW80991  14.828  10.471  10.186
93051SOL    HW180992   0.023  10.443  10.131
93051SOL    HW280993  14.811  10.561  10.158
93052SOL     OW80994  14.307   9.323   8.784
93052SOL    HW180995  14.336   9.303   8.873
93052SOL    HW280996  14.311   9.239   8.738
93053SOL     OW80997  14.154   9.865   0.284
93053SOL    HW180998  14.086   9.830   0.341
93053SOL    HW280999  14.216   9.793   0.272
93054SOL     OW81000   3.453   0.110  11.805
93054SOL    HW181001   3.453   0.021  11.842
93054SOL    HW281002   3.362   0.125  11.780
93055SOL     OW81003   6.082   1.148  14.647
93055SOL    HW181004   6.027   1.224  14.623
93055SOL    HW281005   6.019   1.078  14.662
93056SOL     OW81006   8.008   1.134  10.511
93056SOL    HW181007   8.036   1.123  10.420
93056SOL    HW281008   7.918   1.100  10.513
93057SOL     OW81009   8.189   8.598  11.751
93057SOL    HW181010   8.243   8.520  11.740
93057SOL    HW281011   8.234   8.666  11.701
93058SOL     OW81012   3.923   9.342   2.169
93058SOL    HW181013   3.847   9.309   2.218
93058SOL    HW281014   3.890   9.357   2.081
93059SOL     OW81015  11.594  10.078   0.091
93059SOL    HW181016  11.690  10.079   0.096
93059SOL    HW281017  11.565  10.117   0.174
93060SOL     OW81018   6.671   0.035   3.992
93060SOL    HW181019   6.688   0.096   4.064
93060SOL    HW281020   6.576   0.023   3.993
93061SOL     OW81021  14.066   4.249   2.157
93061SOL    HW181022  14.033   4.338   2.144
93061SOL    HW281023  13.995   4.193   2.125
93062SOL     OW81024   1.478   6.507  12.510
93062SOL    HW181025   1.554   6.555  12.476
93062SOL    HW281026   1.416   6.575  12.535
93063SOL     OW81027   9.763  11.459   2.441
93063SOL    HW181028   9.852  11.466   2.409
93063SOL    HW281029   9.755  11.528   2.507
93064SOL     OW81030  10.128   3.841  11.993
93064SOL    HW181031  10.111   3.860  12.085
93064SOL    HW281032  10.120   3.926  11.949
93065SOL     OW81033   0.044   3.522   5.615
93065SOL    HW181034  14.838   3.478   5.606
93065SOL    HW281035   0.094   3.491   5.539
93066SOL     OW81036   5.935   9.894  13.796
93066SOL    HW181037   5.957   9.954  13.725
93066SOL    HW281038   6.017   9.848  13.815
93067SOL     OW81039  11.347   7.012  11.232
93067SOL    HW181040  11.289   6.983  11.303
93067SOL    HW281041  11.380   6.931  11.193
93068SOL     OW81042   6.855  14.525  13.537
93068SOL    HW181043   6.842  14.430  13.549
93068SOL    HW281044   6.769  14.563  13.551
93069SOL     OW81045   1.034  12.935  10.901
93069SOL    HW181046   1.088  12.859  10.922
93069SOL    HW281047   1.002  12.918  10.812
93070SOL     OW81048  13.958   6.331   8.408
93070SOL    HW181049  13.998   6.366   8.487
93070SOL    HW281050  13.927   6.244   8.433
93071SOL     OW81051   5.415  12.599  14.471
93071SOL    HW181052   5.420  12.617  14.377
93071SOL    HW281053   5.496  12.636  14.507
93072SOL     OW81054   7.783   7.890  14.702
93072SOL    HW181055   7.851   7.870  14.639
93072SOL    HW281056   7.720   7.818  14.694
93073SOL     OW81057  10.596   2.519  10.109
93073SOL    HW181058  10.514   2.470  10.110
93073SOL    HW281059  10.575   2.597  10.057
93074SOL     OW81060   4.045   4.915   5.922
93074SOL    HW181061   4.115   4.851   5.937
93074SOL    HW281062   4.004   4.926   6.007
93075SOL     OW81063   1.052  13.944   3.000
93075SOL    HW181064   1.051  13.872   3.062
93075SOL    HW281065   1.044  14.023   3.054
93076SOL     OW81066   4.714  10.221  13.464
93076SOL    HW181067   4.686  10.311  13.449
93076SOL    HW281068   4.649  10.167  13.418
93077SOL     OW81069   0.515  13.301  13.015
93077SOL    HW181070   0.535  13.271  12.926
93077SOL    HW281071   0.526  13.223  13.069
93078SOL     OW81072  12.904  13.527  10.825
93078SOL    HW181073  12.869  13.591  10.887
93078SOL    HW281074  12.991  13.560  10.802
93079SOL     OW81075  10.225   0.175   7.787
93079SOL    HW181076  10.268   0.217   7.713
93079SOL    HW281077  10.270   0.090   7.795
93080SOL     OW81078   2.429   7.625   1.471
93080SOL    HW181079   2.333   7.630   1.476
93080SOL    HW281080   2.458   7.716   1.467
93081SOL     OW81081   3.875  12.494   4.899
93081SOL    HW181082   3.914  12.440   4.830
93081SOL    HW281083   3.927  12.474   4.977
93082SOL     OW81084   2.204   7.391   9.402
93082SOL    HW181085   2.248   7.411   9.320
93082SOL    HW281086   2.263   7.332   9.448
93083SOL     OW81087   0.699   5.871   7.304
93083SOL    HW181088   0.765   5.916   7.252
93083SOL    HW281089   0.749   5.808   7.357
93084SOL     OW81090   9.865   2.454  13.007
93084SOL    HW181091   9.825   2.537  13.032
93084SOL    HW281092   9.958   2.465  13.027
93085SOL     OW81093   9.654   2.745  12.553
93085SOL    HW181094   9.695   2.662  12.529
93085SOL    HW281095   9.623   2.781  12.470
93086SOL     OW81096   1.693  12.800   0.524
93086SOL    HW181097   1.600  12.776   0.519
93086SOL    HW281098   1.739  12.718   0.510
93087SOL     OW81099   4.895   8.554   7.004
93087SOL    HW181100   4.840   8.479   7.030
93087SOL    HW281101   4.859   8.581   6.919
93088SOL     OW81102   0.876   1.051   3.525
93088SOL    HW181103   0.901   1.139   3.554
93088SOL    HW281104   0.929   1.035   3.446
93089SOL     OW81105   9.649  11.389   3.036
93089SOL    HW181106   9.612  11.477   3.034
93089SOL    HW281107   9.691  11.382   3.122
93090SOL     OW81108   4.201   6.323   0.689
93090SOL    HW181109   4.156   6.285   0.613
93090SOL    HW281110   4.264   6.257   0.716
93091SOL     OW81111   0.276   2.328  14.397
93091SOL    HW181112   0.304   2.293  14.312
93091SOL    HW281113   0.294   2.258  14.459
93092SOL     OW81114   7.389   5.519   5.156
93092SOL    HW181115   7.403   5.522   5.250
93092SOL    HW281116   7.342   5.437   5.141
93093SOL     OW81117  11.184   6.538  13.578
93093SOL    HW181118  11.208   6.454  13.617
93093SOL    HW281119  11.131   6.515  13.502
93094SOL     OW81120  14.413   9.404   8.546
93094SOL    HW181121  14.383   9.379   8.633
93094SOL    HW281122  14.486   9.464   8.563
93095SOL     OW81123   0.988   5.241  10.035
93095SOL    HW181124   1.075   5.206  10.017
93095SOL    HW281125   1.003   5.306  10.104
93096SOL     OW81126  10.935   8.586   5.833
93096SOL    HW181127  10.898   8.669   5.804
93096SOL    HW281128  11.003   8.611   5.896
93097SOL     OW81129  13.860   4.421   1.334
93097SOL    HW181130  13.785   4.448   1.388
93097SOL    HW281131  13.838   4.451   1.246
93098SOL     OW81132  13.556  14.780  10.824
93098SOL    HW181133  13.533  14.802  10.914
93098SOL    HW281134  13.499  14.834  10.770
93099SOL     OW81135   1.917  13.472   9.218
93099SOL    HW181136   1.979  13.419   9.268
93099SOL    HW281137   1.885  13.414   9.149
93100SOL     OW81138  11.294  14.253   9.695
93100SOL    HW181139  11.249  14.185   9.744
93100SOL    HW281140  11.342  14.302   9.762
93101SOL     OW81141  10.575  12.996   0.780
93101SOL    HW181142  10.598  13.054   0.853
93101SOL    HW281143  10.652  12.941   0.768
93102SOL     OW81144   4.054   1.636  13.719
93102SOL    HW181145   4.102   1.719  13.715
93102SOL    HW281146   4.115   1.575  13.761
93103SOL     OW81147   4.927   8.430  12.124
93103SOL    HW181148   4.892   8.401  12.209
93103SOL    HW281149   4.981   8.357  12.095
93104SOL     OW81150   8.421   2.712   0.182
93104SOL    HW181151   8.506   2.741   0.217
93104SOL    HW281152   8.433   2.619   0.164
93105SOL     OW81153   9.496   9.698   5.190
93105SOL    HW181154   9.405   9.683   5.166
93105SOL    HW281155   9.521   9.777   5.141
93106SOL     OW81156   5.981   5.466   8.605
93106SOL    HW181157   6.005   5.383   8.563
93106SOL    HW281158   5.899   5.491   8.563
93107SOL     OW81159   1.403   1.213   2.022
93107SOL    HW181160   1.382   1.246   2.108
93107SOL    HW281161   1.482   1.160   2.035
93108SOL     OW81162  11.502  12.292   4.004
93108SOL    HW181163  11.551  12.354   3.950
93108SOL    HW281164  11.554  12.212   4.001
93109SOL     OW81165   8.310   4.735   6.614
93109SOL    HW181166   8.225   4.732   6.571
93109SOL    HW281167   8.346   4.647   6.603
93110SOL     OW81168   7.704   3.618  14.840
93110SOL    HW181169   7.796   3.607  14.816
93110SOL    HW281170   7.669   3.675  14.771
93111SOL     OW81171   5.367  14.262   1.368
93111SOL    HW181172   5.443  14.302   1.327
93111SOL    HW281173   5.322  14.216   1.297
93112SOL     OW81174   0.995   5.646   4.489
93112SOL    HW181175   0.967   5.705   4.419
93112SOL    HW281176   1.069   5.598   4.451
93113SOL     OW81177   4.285   5.218  14.820
93113SOL    HW181178   4.375   5.186  14.819
93113SOL    HW281179   4.293   5.313  14.822
93114SOL     OW81180   8.191  10.192   0.166
93114SOL    HW181181   8.266  10.138   0.190
93114SOL    HW281182   8.120  10.163   0.224
93115SOL     OW81183   1.771  13.910   2.811
93115SOL    HW181184   1.821  13.866   2.880
93115SOL    HW281185   1.684  13.922   2.849
93116SOL     OW81186   6.426   5.178   7.865
93116SOL    HW181187   6.375   5.244   7.818
93116SOL    HW281188   6.400   5.095   7.823
93117SOL     OW81189  10.524  12.345  12.642
93117SOL    HW181190  10.604  12.388  12.671
93117SOL    HW281191  10.505  12.385  12.557
93118SOL     OW81192  12.613   0.755   2.496
93118SOL    HW181193  12.669   0.773   2.572
93118SOL    HW281194  12.544   0.698   2.531
93119SOL     OW81195   5.094   7.703   8.756
93119SOL    HW181196   5.182   7.681   8.786
93119SOL    HW281197   5.039   7.695   8.834
93120SOL     OW81198   4.141   5.443   3.605
93120SOL    HW181199   4.059   5.404   3.636
93120SOL    HW281200   4.200   5.369   3.594
93121SOL     OW81201   0.610   3.786  11.618
93121SOL    HW181202   0.658   3.737  11.551
93121SOL    HW281203   0.526   3.807  11.577
93122SOL     OW81204   0.218   4.368  11.515
93122SOL    HW181205   0.260   4.293  11.473
93122SOL    HW281206   0.178   4.332  11.594
93123SOL     OW81207   8.391  14.600   2.032
93123SOL    HW181208   8.409  14.607   1.938
93123SOL    HW281209   8.307  14.554   2.036
93124SOL     OW81210   7.071   7.149   2.445
93124SOL    HW181211   7.002   7.116   2.504
93124SOL    HW281212   7.151   7.106   2.475
93125SOL     OW81213   2.602  11.096  14.034
93125SOL    HW181214   2.658  11.106  14.111
93125SOL    HW281215   2.631  11.165  13.974
93126SOL     OW81216   8.088  12.047  10.553
93126SOL    HW181217   8.026  12.116  10.575
93126SOL    HW281218   8.143  12.038  10.631
93127SOL     OW81219  14.581  11.538  11.354
93127SOL    HW181220  14.627  11.565  11.435
93127SOL    HW281221  14.526  11.614  11.332
93128SOL     OW81222  12.383   8.093  11.774
93128SOL    HW181223  12.358   8.004  11.747
93128SOL    HW281224  12.374   8.145  11.695
93129SOL     OW81225   4.291  10.189  11.843
93129SOL    HW181226   4.374  10.220  11.881
93129SOL    HW281227   4.315  10.160  11.755
93130SOL     OW81228  11.517   4.864   1.277
93130SOL    HW181229  11.452   4.856   1.206
93130SOL    HW281230  11.595   4.900   1.234
93131SOL     OW81231   4.285   0.621   5.954
93131SOL    HW181232   4.314   0.637   5.864
93131SOL    HW281233   4.268   0.708   5.990
93132SOL     OW81234   6.477   0.613  12.152
93132SOL    HW181235   6.544   0.649  12.210
93132SOL    HW281236   6.515   0.622  12.064
93133SOL     OW81237   6.933   9.276   8.558
93133SOL    HW181238   6.883   9.219   8.617
93133SOL    HW281239   6.912   9.243   8.470
93134SOL     OW81240   4.375  12.671  10.901
93134SOL    HW181241   4.440  12.653  10.968
93134SOL    HW281242   4.413  12.637  10.820
93135SOL     OW81243   6.849   7.214   9.026
93135SOL    HW181244   6.901   7.196   8.948
93135SOL    HW281245   6.763   7.177   9.006
93136SOL     OW81246  12.420   6.614   9.226
93136SOL    HW181247  12.390   6.669   9.154
93136SOL    HW281248  12.442   6.675   9.296
93137SOL     OW81249  13.182   7.900  14.737
93137SOL    HW181250  13.184   7.950  14.818
93137SOL    HW281251  13.227   7.955  14.673
93138SOL     OW81252   7.168   2.945   1.158
93138SOL    HW181253   7.220   2.947   1.238
93138SOL    HW281254   7.218   2.997   1.095
93139SOL     OW81255   0.871   2.611  10.804
93139SOL    HW181256   0.795   2.668  10.808
93139SOL    HW281257   0.940   2.665  10.765
93140SOL     OW81258  10.238   7.942   6.326
93140SOL    HW181259  10.311   7.983   6.280
93140SOL    HW281260  10.265   7.851   6.337
93141SOL     OW81261   2.292  10.675   9.843
93141SOL    HW181262   2.282  10.743   9.910
93141SOL    HW281263   2.308  10.723   9.762
93142SOL     OW81264  13.300  13.528   0.218
93142SOL    HW181265  13.395  13.535   0.211
93142SOL    HW281266  13.283  13.434   0.219
93143SOL     OW81267   2.030  13.698  14.787
93143SOL    HW181268   2.113  13.654  14.773
93143SOL    HW281269   2.027  13.713   0.002
93144SOL     OW81270   2.023   1.335   6.345
93144SOL    HW181271   1.944   1.320   6.397
93144SOL    HW281272   1.990   1.367   6.260
93145SOL     OW81273  12.506  12.889  13.359
93145SOL    HW181274  12.513  12.794  13.368
93145SOL    HW281275  12.414  12.908  13.376
93146SOL     OW81276   0.570   7.121   7.173
93146SOL    HW181277   0.575   7.125   7.269
93146SOL    HW281278   0.623   7.045   7.150
93147SOL     OW81279   4.824  11.968  14.106
93147SOL    HW181280   4.769  11.930  14.174
93147SOL    HW281281   4.841  11.896  14.045
93148SOL     OW81282   5.778   2.616  12.606
93148SOL    HW181283   5.872   2.602  12.595
93148SOL    HW281284   5.749   2.653  12.523
93149SOL     OW81285   0.103   2.617   7.754
93149SOL    HW181286   0.067   2.543   7.802
93149SOL    HW281287   0.198   2.611   7.768
93150SOL     OW81288   4.540   7.038   7.941
93150SOL    HW181289   4.562   6.991   8.021
93150SOL    HW281290   4.620   7.037   7.889
93151SOL     OW81291   1.647  14.126   5.019
93151SOL    HW181292   1.597  14.069   5.078
93151SOL    HW281293   1.729  14.142   5.066
93152SOL     OW81294   1.718   7.661  11.334
93152SOL    HW181295   1.761   7.722  11.274
93152SOL    HW281296   1.655   7.715  11.382
93153SOL     OW81297   4.812   4.981  13.195
93153SOL    HW181298   4.781   4.898  13.159
93153SOL    HW281299   4.766   4.989  13.279
93154SOL     OW81300   8.621  13.735   5.145
93154SOL    HW181301   8.554  13.790   5.105
93154SOL    HW281302   8.591  13.722   5.235
93155SOL     OW81303  12.424   5.609   3.041
93155SOL    HW181304  12.444   5.542   2.975
93155SOL    HW281305  12.482   5.682   3.020
93156SOL     OW81306  13.845   1.766  12.277
93156SOL    HW181307  13.908   1.786  12.208
93156SOL    HW281308  13.792   1.845  12.284
93157SOL     OW81309   0.133   6.989  13.757
93157SOL    HW181310   0.044   6.975  13.787
93157SOL    HW281311   0.179   7.023  13.834
93158SOL     OW81312  10.970  14.517  11.187
93158SOL    HW181313  11.044  14.537  11.244
93158SOL    HW281314  10.997  14.550  11.101
93159SOL     OW81315   9.073   7.724  13.558
93159SOL    HW181316   9.102   7.764  13.476
93159SOL    HW281317   9.147   7.670  13.585
93160SOL     OW81318   2.013  12.288   0.478
93160SOL    HW181319   2.052  12.300   0.392
93160SOL    HW281320   1.956  12.364   0.490
93161SOL     OW81321  13.087   9.331   9.686
93161SOL    HW181322  13.012   9.367   9.639
93161SOL    HW281323  13.158   9.394   9.671
93162SOL     OW81324   0.266  11.537  11.885
93162SOL    HW181325   0.173  11.546  11.904
93162SOL    HW281326   0.289  11.450  11.918
93163SOL     OW81327   6.589  13.309  14.258
93163SOL    HW181328   6.620  13.310  14.168
93163SOL    HW281329   6.498  13.338  14.253
93164SOL     OW81330   5.339   1.074  11.032
93164SOL    HW181331   5.291   1.100  11.111
93164SOL    HW281332   5.292   0.996  11.001
93165SOL     OW81333  11.898   5.816   5.876
93165SOL    HW181334  11.825   5.754   5.867
93165SOL    HW281335  11.954   5.799   5.800
93166SOL     OW81336  14.172   8.013   6.110
93166SOL    HW181337  14.159   7.918   6.113
93166SOL    HW281338  14.253   8.025   6.061
93167SOL     OW81339   3.609  10.480   5.538
93167SOL    HW181340   3.681  10.529   5.497
93167SOL    HW281341   3.653  10.416   5.594
93168SOL     OW81342  11.310   9.737  11.231
93168SOL    HW181343  11.358   9.660  11.200
93168SOL    HW281344  11.367   9.811  11.212
93169SOL     OW81345   2.921  10.958   9.428
93169SOL    HW181346   2.955  11.013   9.498
93169SOL    HW281347   2.827  10.969   9.432
93170SOL     OW81348  10.699   6.084   1.966
93170SOL    HW181349  10.660   6.171   1.961
93170SOL    HW281350  10.625   6.025   1.983
93171SOL     OW81351   1.031   1.920   6.380
93171SOL    HW181352   1.049   2.006   6.416
93171SOL    HW281353   1.094   1.910   6.308
93172SOL     OW81354   8.741   6.309   2.015
93172SOL    HW181355   8.647   6.326   2.020
93172SOL    HW281356   8.753   6.255   1.938
93173SOL     OW81357   9.245  11.581   9.988
93173SOL    HW181358   9.154  11.606  10.006
93173SOL    HW281359   9.280  11.557  10.074
93174SOL     OW81360  12.704   4.512   4.622
93174SOL    HW181361  12.764   4.518   4.547
93174SOL    HW281362  12.651   4.592   4.616
93175SOL     OW81363  10.000  10.416   7.635
93175SOL    HW181364  10.078  10.406   7.581
93175SOL    HW281365   9.946  10.480   7.589
93176SOL     OW81366  13.993   9.801   7.499
93176SOL    HW181367  13.961   9.765   7.582
93176SOL    HW281368  13.984   9.896   7.510
93177SOL     OW81369   8.902  10.058   2.094
93177SOL    HW181370   8.839  10.113   2.049
93177SOL    HW281371   8.979  10.057   2.037
93178SOL     OW81372   3.702   9.404   2.852
93178SOL    HW181373   3.773   9.465   2.867
93178SOL    HW281374   3.683   9.412   2.758
93179SOL     OW81375   1.855   3.374   2.945
93179SOL    HW181376   1.912   3.382   3.022
93179SOL    HW281377   1.801   3.297   2.963
93180SOL     OW81378  12.624  10.369   6.564
93180SOL    HW181379  12.669  10.451   6.542
93180SOL    HW281380  12.611  10.325   6.480
93181SOL     OW81381  13.140  14.671   2.641
93181SOL    HW181382  13.142  14.579   2.617
93181SOL    HW281383  13.122  14.671   2.735
93182SOL     OW81384   5.875  14.212   1.334
93182SOL    HW181385   5.818  14.289   1.335
93182SOL    HW281386   5.907  14.207   1.244
93183SOL     OW81387   3.253  11.410   5.071
93183SOL    HW181388   3.344  11.434   5.057
93183SOL    HW281389   3.209  11.492   5.094
93184SOL     OW81390   2.481   1.772   8.977
93184SOL    HW181391   2.476   1.732   8.890
93184SOL    HW281392   2.390   1.778   9.006
93185SOL     OW81393   6.174   3.388   0.288
93185SOL    HW181394   6.226   3.451   0.338
93185SOL    HW281395   6.109   3.355   0.350
93186SOL     OW81396   0.236   2.021  14.450
93186SOL    HW181397   0.254   1.929  14.465
93186SOL    HW281398   0.322   2.062  14.439
93187SOL     OW81399  14.361   0.974   7.587
93187SOL    HW181400  14.299   0.917   7.542
93187SOL    HW281401  14.441   0.923   7.593
93188SOL     OW81402   0.446   9.778   2.679
93188SOL    HW181403   0.358   9.790   2.715
93188SOL    HW281404   0.488   9.863   2.690
93189SOL     OW81405   1.899   1.225   1.456
93189SOL    HW181406   1.983   1.215   1.410
93189SOL    HW281407   1.843   1.271   1.394
93190SOL     OW81408  13.736   7.877  12.476
93190SOL    HW181409  13.787   7.957  12.462
93190SOL    HW281410  13.707   7.883  12.567
93191SOL     OW81411   6.808   9.317  10.278
93191SOL    HW181412   6.859   9.254  10.227
93191SOL    HW281413   6.846   9.402  10.257
93192SOL     OW81414   2.843  11.548  11.094
93192SOL    HW181415   2.768  11.585  11.048
93192SOL    HW281416   2.901  11.623  11.109
93193SOL     OW81417   4.744  13.517   6.322
93193SOL    HW181418   4.808  13.446   6.332
93193SOL    HW281419   4.666  13.473   6.287
93194SOL     OW81420  13.590   1.319  10.118
93194SOL    HW181421  13.589   1.414  10.131
93194SOL    HW281422  13.683   1.297  10.111
93195SOL     OW81423   1.842   4.458   0.257
93195SOL    HW181424   1.816   4.537   0.209
93195SOL    HW281425   1.863   4.394   0.189
93196SOL     OW81426   9.935   0.561   9.988
93196SOL    HW181427   9.872   0.491  10.000
93196SOL    HW281428  10.002   0.524   9.930
93197SOL     OW81429   1.738  12.514   1.373
93197SOL    HW181430   1.811  12.474   1.421
93197SOL    HW281431   1.680  12.549   1.441
93198SOL     OW81432  12.065   5.865   6.547
93198SOL    HW181433  12.103   5.802   6.608
93198SOL    HW281434  12.124   5.940   6.549
93199SOL     OW81435   1.863   9.110   0.094
93199SOL    HW181436   1.949   9.147   0.117
93199SOL    HW281437   1.831   9.073   0.176
93200SOL     OW81438   9.570   0.185  13.377
93200SOL    HW181439   9.540   0.240  13.305
93200SOL    HW281440   9.493   0.135  13.403
93201SOL     OW81441   8.273   7.392   5.535
93201SOL    HW181442   8.215   7.461   5.506
93201SOL    HW281443   8.254   7.318   5.477
93202SOL     OW81444   3.395   7.262   0.637
93202SOL    HW181445   3.336   7.311   0.580
93202SOL    HW281446   3.339   7.200   0.683
93203SOL     OW81447   2.467  13.343   5.401
93203SOL    HW181448   2.527  13.407   5.362
93203SOL    HW281449   2.524  13.279   5.443
93204SOL     OW81450   7.532   6.503   8.992
93204SOL    HW181451   7.528   6.500   9.088
93204SOL    HW281452   7.443   6.483   8.964
93205SOL     OW81453  12.536   3.903  11.197
93205SOL    HW181454  12.527   3.856  11.281
93205SOL    HW281455  12.449   3.938  11.179
93206SOL     OW81456   7.997   9.150   3.589
93206SOL    HW181457   8.046   9.142   3.507
93206SOL    HW281458   8.059   9.125   3.657
93207SOL     OW81459   9.657   2.963   6.294
93207SOL    HW181460   9.682   2.951   6.203
93207SOL    HW281461   9.619   3.051   6.297
93208SOL     OW81462  14.195   7.604  12.630
93208SOL    HW181463  14.137   7.538  12.593
93208SOL    HW281464  14.148   7.687  12.617
93209SOL     OW81465   8.788  10.213   6.641
93209SOL    HW181466   8.696  10.205   6.666
93209SOL    HW281467   8.825  10.273   6.705
93210SOL     OW81468   5.194   3.378  14.586
93210SOL    HW181469   5.157   3.331  14.511
93210SOL    HW281470   5.257   3.317  14.624
93211SOL     OW81471   9.336   0.539  10.641
93211SOL    HW181472   9.330   0.484  10.563
93211SOL    HW281473   9.328   0.629  10.608
93212SOL     OW81474   8.576   7.536  11.092
93212SOL    HW181475   8.586   7.612  11.148
93212SOL    HW281476   8.481   7.530  11.076
93213SOL     OW81477  10.161   9.793   2.854
93213SOL    HW181478  10.209   9.711   2.867
93213SOL    HW281479  10.184   9.820   2.765
93214SOL     OW81480   0.179   4.820  10.550
93214SOL    HW181481   0.244   4.768  10.503
93214SOL    HW281482   0.230   4.869  10.615
93215SOL     OW81483   2.361   7.029  11.703
93215SOL    HW181484   2.401   7.102  11.751
93215SOL    HW281485   2.354   6.959  11.768
93216SOL     OW81486  11.056  12.965   1.742
93216SOL    HW181487  10.963  12.974   1.719
93216SOL    HW281488  11.067  13.022   1.818
93217SOL     OW81489  10.017   6.307   0.807
93217SOL    HW181490  10.081   6.283   0.875
93217SOL    HW281491   9.967   6.227   0.792
93218SOL     OW81492   2.534   3.292   2.053
93218SOL    HW181493   2.471   3.321   2.120
93218SOL    HW281494   2.570   3.211   2.088
93219SOL     OW81495   3.032  12.874  12.156
93219SOL    HW181496   3.082  12.792  12.158
93219SOL    HW281497   3.088  12.935  12.107
93220SOL     OW81498   2.446   3.854  11.425
93220SOL    HW181499   2.519   3.794  11.410
93220SOL    HW281500   2.436   3.856  11.520
93221SOL     OW81501  12.697  12.532  14.040
93221SOL    HW181502  12.659  12.542  14.128
93221SOL    HW281503  12.760  12.461  14.050
93222SOL     OW81504   8.367  12.561   3.187
93222SOL    HW181505   8.396  12.629   3.248
93222SOL    HW281506   8.291  12.522   3.229
93223SOL     OW81507  14.617   8.446   7.294
93223SOL    HW181508  14.555   8.518   7.302
93223SOL    HW281509  14.686   8.467   7.357
93224SOL     OW81510   5.632   1.201   5.999
93224SOL    HW181511   5.544   1.167   6.017
93224SOL    HW281512   5.691   1.141   6.044
93225SOL     OW81513  14.390  12.283   1.275
93225SOL    HW181514  14.336  12.205   1.261
93225SOL    HW281515  14.348  12.328   1.348
93226SOL     OW81516  10.321   0.212  12.002
93226SOL    HW181517  10.254   0.269  11.964
93226SOL    HW281518  10.317   0.228  12.096
93227SOL     OW81519  11.793   3.675   4.022
93227SOL    HW181520  11.703   3.659   4.048
93227SOL    HW281521  11.788   3.700   3.930
93228SOL     OW81522  11.488  14.623   0.966
93228SOL    HW181523  11.562  14.684   0.968
93228SOL    HW281524  11.512  14.554   1.029
93229SOL     OW81525  12.333   8.767   4.828
93229SOL    HW181526  12.280   8.817   4.890
93229SOL    HW281527  12.387   8.833   4.784
93230SOL     OW81528   0.537   0.658   9.094
93230SOL    HW181529   0.474   0.621   9.032
93230SOL    HW281530   0.499   0.640   9.180
93231SOL     OW81531   7.691   4.416  12.147
93231SOL    HW181532   7.743   4.486  12.187
93231SOL    HW281533   7.662   4.363  12.222
93232SOL     OW81534  14.606   6.201  13.487
93232SOL    HW181535  14.696   6.233  13.493
93232SOL    HW281536  14.572   6.240  13.407
93233SOL     OW81537   5.085  14.614   1.477
93233SOL    HW181538   5.096  14.706   1.500
93233SOL    HW281539   5.162  14.570   1.514
93234SOL     OW81540  12.865   0.583   7.012
93234SOL    HW181541  12.823   0.501   6.989
93234SOL    HW281542  12.889   0.573   7.104
93235SOL     OW81543   8.391   2.199   5.746
93235SOL    HW181544   8.386   2.292   5.723
93235SOL    HW281545   8.474   2.170   5.708
93236SOL     OW81546  10.221   9.954  14.184
93236SOL    HW181547  10.279   9.979  14.256
93236SOL    HW281548  10.161   9.890  14.222
93237SOL     OW81549  12.203  13.356   9.056
93237SOL    HW181550  12.267  13.416   9.018
93237SOL    HW281551  12.229  13.270   9.024
93238SOL     OW81552   1.972   3.137  14.300
93238SOL    HW181553   1.989   3.219  14.346
93238SOL    HW281554   1.880   3.117  14.320
93239SOL     OW81555   3.167  11.243   7.619
93239SOL    HW181556   3.193  11.236   7.527
93239SOL    HW281557   3.182  11.155   7.654
93240SOL     OW81558   5.272   4.851  10.164
93240SOL    HW181559   5.307   4.763  10.178
93240SOL    HW281560   5.314   4.905  10.231
93241SOL     OW81561   5.056   3.443  11.123
93241SOL    HW181562   5.109   3.424  11.200
93241SOL    HW281563   4.967   3.423  11.150
93242SOL     OW81564   3.307   9.042  12.849
93242SOL    HW181565   3.274   9.002  12.930
93242SOL    HW281566   3.385   9.090  12.876
93243SOL     OW81567   3.076  13.741   6.993
93243SOL    HW181568   3.019  13.818   6.993
93243SOL    HW281569   3.027  13.676   7.043
93244SOL     OW81570  14.345   5.733  11.837
93244SOL    HW181571  14.357   5.754  11.929
93244SOL    HW281572  14.257   5.764  11.816
93245SOL     OW81573   2.565   7.672  14.629
93245SOL    HW181574   2.612   7.657  14.547
93245SOL    HW281575   2.629   7.657  14.697
93246SOL     OW81576   4.259   9.043   6.516
93246SOL    HW181577   4.260   9.021   6.609
93246SOL    HW281578   4.201   9.119   6.510
93247SOL     OW81579   4.107   1.695   0.832
93247SOL    HW181580   4.127   1.681   0.739
93247SOL    HW281581   4.129   1.612   0.874
93248SOL     OW81582   5.856   7.832   1.214
93248SOL    HW181583   5.860   7.900   1.147
93248SOL    HW281584   5.776   7.783   1.194
93249SOL     OW81585  12.500   3.580  10.562
93249SOL    HW181586  12.410   3.586  10.528
93249SOL    HW281587  12.496   3.622  10.647
93250SOL     OW81588   5.372  11.600   3.416
93250SOL    HW181589   5.333  11.594   3.502
93250SOL    HW281590   5.423  11.519   3.407
93251SOL     OW81591   0.402  12.690   4.502
93251SOL    HW181592   0.441  12.743   4.572
93251SOL    HW281593   0.342  12.631   4.547
93252SOL     OW81594   1.836   8.970   2.868
93252SOL    HW181595   1.815   9.039   2.931
93252SOL    HW281596   1.792   8.892   2.901
93253SOL     OW81597   1.611  13.183   1.199
93253SOL    HW181598   1.638  13.118   1.134
93253SOL    HW281599   1.660  13.262   1.175
93254SOL     OW81600   4.112   3.232  12.114
93254SOL    HW181601   4.063   3.226  12.196
93254SOL    HW281602   4.118   3.141  12.083
93255SOL     OW81603   2.523   2.216   0.914
93255SOL    HW181604   2.455   2.183   0.855
93255SOL    HW281605   2.480   2.287   0.961
93256SOL     OW81606   4.873   3.260   9.272
93256SOL    HW181607   4.957   3.303   9.255
93256SOL    HW281608   4.831   3.316   9.338
93257SOL     OW81609  13.462   0.020   0.429
93257SOL    HW181610  13.372   0.038   0.458
93257SOL    HW281611  13.506  14.866   0.506
93258SOL     OW81612   4.611   3.970   8.967
93258SOL    HW181613   4.544   3.992   8.903
93258SOL    HW281614   4.654   4.053   8.986
93259SOL     OW81615   9.731   5.465   0.141
93259SOL    HW181616   9.804   5.491   0.197
93259SOL    HW281617   9.653   5.482   0.193
93260SOL     OW81618   6.601   0.638   5.125
93260SOL    HW181619   6.595   0.706   5.058
93260SOL    HW281620   6.612   0.685   5.207
93261SOL     OW81621  14.047   1.922   6.184
93261SOL    HW181622  14.064   1.909   6.277
93261SOL    HW281623  13.989   1.849   6.160
93262SOL     OW81624  11.664   7.901  13.306
93262SOL    HW181625  11.751   7.902  13.346
93262SOL    HW281626  11.676   7.945  13.221
93263SOL     OW81627  11.090   9.165   9.044
93263SOL    HW181628  11.157   9.097   9.040
93263SOL    HW281629  11.027   9.142   8.977
93264SOL     OW81630   3.019   3.618   6.146
93264SOL    HW181631   3.091   3.678   6.126
93264SOL    HW281632   2.997   3.636   6.237
93265SOL     OW81633  11.159   6.910   3.425
93265SOL    HW181634  11.098   6.840   3.449
93265SOL    HW281635  11.228   6.867   3.375
93266SOL     OW81636   7.015  12.434   5.179
93266SOL    HW181637   6.932  12.452   5.222
93266SOL    HW281638   6.991  12.381   5.103
93267SOL     OW81639   5.905   9.603   9.566
93267SOL    HW181640   5.958   9.658   9.508
93267SOL    HW281641   5.965   9.578   9.636
93268SOL     OW81642  10.775  13.749   4.756
93268SOL    HW181643  10.810  13.692   4.824
93268SOL    HW281644  10.681  13.749   4.771
93269SOL     OW81645   0.994   5.856   2.740
93269SOL    HW181646   1.052   5.781   2.729
93269SOL    HW281647   0.975   5.886   2.651
93270SOL     OW81648  14.505   9.528   8.062
93270SOL    HW181649  14.533   9.569   7.980
93270SOL    HW281650  14.439   9.465   8.035
93271SOL     OW81651  14.532   1.319   2.692
93271SOL    HW181652  14.531   1.307   2.597
93271SOL    HW281653  14.569   1.406   2.705
93272SOL     OW81654   2.615   0.920  11.446
93272SOL    HW181655   2.703   0.914  11.483
93272SOL    HW281656   2.572   0.838  11.472
93273SOL     OW81657  11.857   6.053   3.405
93273SOL    HW181658  11.852   5.992   3.479
93273SOL    HW281659  11.795   6.123   3.427
93274SOL     OW81660   3.514   7.637  11.363
93274SOL    HW181661   3.603   7.643  11.329
93274SOL    HW281662   3.504   7.714  11.418
93275SOL     OW81663  13.958   9.537   4.366
93275SOL    HW181664  14.006   9.469   4.320
93275SOL    HW281665  14.002   9.619   4.341
93276SOL     OW81666  13.025   7.194  12.760
93276SOL    HW181667  13.042   7.130  12.691
93276SOL    HW281668  12.959   7.152  12.815
93277SOL     OW81669   6.602   9.102  14.810
93277SOL    HW181670   6.549   9.022  14.811
93277SOL    HW281671   6.692   9.072  14.800
93278SOL     OW81672   5.128   1.873  13.448
93278SOL    HW181673   5.201   1.934  13.436
93278SOL    HW281674   5.053   1.917  13.408
93279SOL     OW81675  10.439   8.172   2.297
93279SOL    HW181676  10.495   8.246   2.319
93279SOL    HW281677  10.483   8.096   2.334
93280SOL     OW81678   8.281  13.933   8.352
93280SOL    HW181679   8.186  13.931   8.364
93280SOL    HW281680   8.298  13.869   8.283
93281SOL     OW81681   8.153  13.572  12.337
93281SOL    HW181682   8.074  13.601  12.383
93281SOL    HW281683   8.225  13.601  12.394
93282SOL     OW81684  13.788   6.229   9.253
93282SOL    HW181685  13.730   6.160   9.221
93282SOL    HW281686  13.804   6.285   9.176
93283SOL     OW81687  10.963   1.843   1.303
93283SOL    HW181688  10.990   1.931   1.275
93283SOL    HW281689  10.881   1.827   1.257
93284SOL     OW81690   1.962  10.289   3.770
93284SOL    HW181691   1.884  10.254   3.728
93284SOL    HW281692   2.019  10.315   3.697
93285SOL     OW81693  11.737   0.963   9.108
93285SOL    HW181694  11.743   1.055   9.133
93285SOL    HW281695  11.646   0.951   9.080
93286SOL     OW81696   8.457   9.419   2.533
93286SOL    HW181697   8.405   9.495   2.560
93286SOL    HW281698   8.430   9.349   2.593
93287SOL     OW81699   6.967  13.449  12.902
93287SOL    HW181700   6.953  13.426  12.811
93287SOL    HW281701   7.056  13.421  12.922
93288SOL     OW81702   1.583  11.143  10.964
93288SOL    HW181703   1.622  11.058  10.944
93288SOL    HW281704   1.508  11.150  10.906
93289SOL     OW81705  10.409   8.576  12.877
93289SOL    HW181706  10.361   8.612  12.802
93289SOL    HW281707  10.473   8.516  12.838
93290SOL     OW81708   3.305  12.384   8.325
93290SOL    HW181709   3.341  12.323   8.388
93290SOL    HW281710   3.217  12.404   8.357
93291SOL     OW81711  12.155   0.502   3.076
93291SOL    HW181712  12.116   0.569   3.131
93291SOL    HW281713  12.243   0.490   3.112
93292SOL     OW81714   6.946  13.833   5.603
93292SOL    HW181715   7.037  13.835   5.574
93292SOL    HW281716   6.950  13.847   5.697
93293SOL     OW81717  10.951   2.940   8.415
93293SOL    HW181718  10.902   3.018   8.440
93293SOL    HW281719  11.037   2.973   8.389
93294SOL     OW81720   7.675   8.929  12.881
93294SOL    HW181721   7.716   8.978  12.952
93294SOL    HW281722   7.721   8.845  12.881
93295SOL     OW81723  14.787  11.264   0.804
93295SOL    HW181724  14.861  11.312   0.769
93295SOL    HW281725  14.740  11.231   0.727
93296SOL     OW81726  14.214   3.381  11.882
93296SOL    HW181727  14.252   3.314  11.824
93296SOL    HW281728  14.214   3.461  11.829
93297SOL     OW81729   0.910  13.032  14.217
93297SOL    HW181730   0.879  12.994  14.299
93297SOL    HW281731   0.988  12.982  14.196
93298SOL     OW81732  11.682   1.968   0.178
93298SOL    HW181733  11.668   2.057   0.209
93298SOL    HW281734  11.623   1.914   0.231
93299SOL     OW81735   2.098   7.605   4.161
93299SOL    HW181736   2.127   7.690   4.193
93299SOL    HW281737   2.027   7.580   4.221
93300SOL     OW81738  14.682   1.790   8.119
93300SOL    HW181739  14.595   1.752   8.107
93300SOL    HW281740  14.730   1.766   8.039
93301SOL     OW81741   6.338  13.187   5.729
93301SOL    HW181742   6.314  13.169   5.820
93301SOL    HW281743   6.364  13.103   5.694
93302SOL     OW81744   6.766   9.892  12.208
93302SOL    HW181745   6.724   9.849  12.133
93302SOL    HW281746   6.805   9.972  12.171
93303SOL     OW81747   0.216   8.436   1.035
93303SOL    HW181748   0.218   8.432   0.939
93303SOL    HW281749   0.258   8.519   1.056
93304SOL     OW81750   0.723  13.675   8.963
93304SOL    HW181751   0.663  13.601   8.954
93304SOL    HW281752   0.666  13.751   8.976
93305SOL     OW81753   9.445  13.744   8.408
93305SOL    HW181754   9.364  13.763   8.361
93305SOL    HW281755   9.426  13.664   8.457
93306SOL     OW81756   3.293   1.329   0.039
93306SOL    HW181757   3.210   1.287   0.019
93306SOL    HW281758   3.270   1.419   0.062
93307SOL     OW81759   1.701   3.916  13.896
93307SOL    HW181760   1.765   3.855  13.860
93307SOL    HW281761   1.645   3.862  13.952
93308SOL     OW81762   2.451  12.838   4.037
93308SOL    HW181763   2.393  12.830   4.112
93308SOL    HW281764   2.537  12.857   4.075
93309SOL     OW81765  14.027   5.704   7.296
93309SOL    HW181766  13.940   5.740   7.278
93309SOL    HW281767  14.074   5.775   7.338
93310SOL     OW81768   4.184  12.700  12.295
93310SOL    HW181769   4.204  12.749  12.375
93310SOL    HW281770   4.089  12.711  12.283
93311SOL     OW81771   5.716   5.156  10.943
93311SOL    HW181772   5.674   5.228  10.991
93311SOL    HW281773   5.783   5.199  10.889
93312SOL     OW81774   0.706   5.108  10.261
93312SOL    HW181775   0.638   5.164  10.297
93312SOL    HW281776   0.763   5.087  10.335
93313SOL     OW81777   9.561   7.071  10.380
93313SOL    HW181778   9.564   6.980  10.352
93313SOL    HW281779   9.482   7.106  10.338
93314SOL     OW81780  10.807   9.325   1.764
93314SOL    HW181781  10.760   9.365   1.837
93314SOL    HW281782  10.850   9.399   1.720
93315SOL     OW81783   1.725   2.794  13.042
93315SOL    HW181784   1.745   2.750  12.960
93315SOL    HW281785   1.638   2.762  13.066
93316SOL     OW81786   2.029   3.380   8.781
93316SOL    HW181787   2.118   3.389   8.746
93316SOL    HW281788   2.029   3.295   8.824
93317SOL     OW81789   1.833   9.118  13.388
93317SOL    HW181790   1.758   9.161  13.346
93317SOL    HW281791   1.907   9.141  13.332
93318SOL     OW81792   8.261   1.985   6.820
93318SOL    HW181793   8.336   1.988   6.762
93318SOL    HW281794   8.280   1.914   6.882
93319SOL     OW81795   4.655  11.186   7.280
93319SOL    HW181796   4.683  11.095   7.286
93319SOL    HW281797   4.718  11.228   7.222
93320SOL     OW81798   7.447   8.624  11.383
93320SOL    HW181799   7.357   8.619  11.417
93320SOL    HW281800   7.499   8.658  11.456
93321SOL     OW81801  12.888   2.963   6.573
93321SOL    HW181802  12.912   3.053   6.598
93321SOL    HW281803  12.794   2.967   6.556
93322SOL     OW81804   5.615   3.599  11.750
93322SOL    HW181805   5.703   3.579  11.717
93322SOL    HW281806   5.563   3.612  11.671
93323SOL     OW81807   6.037  12.417   0.707
93323SOL    HW181808   6.054  12.382   0.794
93323SOL    HW281809   6.058  12.345   0.647
93324SOL     OW81810   4.078   7.645  10.950
93324SOL    HW181811   4.126   7.644  10.867
93324SOL    HW281812   3.990   7.615  10.927
93325SOL     OW81813   6.653   1.894   0.664
93325SOL    HW181814   6.735   1.857   0.697
93325SOL    HW281815   6.627   1.833   0.594
93326SOL     OW81816   9.116  13.202   7.712
93326SOL    HW181817   9.063  13.208   7.791
93326SOL    HW281818   9.201  13.239   7.737
93327SOL     OW81819  13.941   1.852   3.666
93327SOL    HW181820  14.009   1.878   3.604
93327SOL    HW281821  13.862   1.896   3.634
93328SOL     OW81822  14.320   8.457   2.292
93328SOL    HW181823  14.245   8.506   2.325
93328SOL    HW281824  14.293   8.428   2.205
93329SOL     OW81825  12.683   4.071  11.028
93329SOL    HW181826  12.650   4.006  11.091
93329SOL    HW281827  12.688   4.024  10.945
93330SOL     OW81828   5.077   1.984   6.684
93330SOL    HW181829   5.142   2.038   6.639
93330SOL    HW281830   5.097   1.894   6.657
93331SOL     OW81831   0.908   7.853  13.977
93331SOL    HW181832   0.879   7.792  14.045
93331SOL    HW281833   0.984   7.810  13.938
93332SOL     OW81834  11.651   3.076   2.193
93332SOL    HW181835  11.604   3.107   2.270
93332SOL    HW281836  11.606   2.996   2.168
93333SOL     OW81837  11.042   5.607   4.124
93333SOL    HW181838  10.969   5.655   4.086
93333SOL    HW281839  11.057   5.534   4.064
93334SOL     OW81840   2.396   6.596  11.668
93334SOL    HW181841   2.480   6.570  11.707
93334SOL    HW281842   2.420   6.655  11.597
93335SOL     OW81843  11.057   5.775   9.652
93335SOL    HW181844  11.065   5.843   9.584
93335SOL    HW281845  10.971   5.791   9.692
93336SOL     OW81846   3.399   7.542   7.493
93336SOL    HW181847   3.322   7.510   7.539
93336SOL    HW281848   3.364   7.595   7.421
93337SOL     OW81849   0.820  13.897  10.421
93337SOL    HW181850   0.821  13.990  10.443
93337SOL    HW281851   0.871  13.856  10.491
93338SOL     OW81852   1.196   1.985   1.511
93338SOL    HW181853   1.238   2.072   1.513
93338SOL    HW281854   1.243   1.935   1.578
93339SOL     OW81855   5.242  12.705   8.537
93339SOL    HW181856   5.289  12.703   8.454
93339SOL    HW281857   5.289  12.645   8.593
93340SOL     OW81858   4.593   2.070  14.194
93340SOL    HW181859   4.661   2.118  14.241
93340SOL    HW281860   4.602   2.100  14.103
93341SOL     OW81861   5.964   7.623   9.687
93341SOL    HW181862   5.874   7.607   9.660
93341SOL    HW281863   5.963   7.711   9.725
93342SOL     OW81864   0.729   7.094   4.563
93342SOL    HW181865   0.693   7.158   4.625
93342SOL    HW281866   0.815   7.129   4.541
93343SOL     OW81867   0.887   8.337   4.209
93343SOL    HW181868   0.934   8.405   4.162
93343SOL    HW281869   0.796   8.367   4.210
93344SOL     OW81870   3.232   7.129   3.854
93344SOL    HW181871   3.192   7.056   3.901
93344SOL    HW281872   3.279   7.088   3.782
93345SOL     OW81873   8.918   7.968  11.976
93345SOL    HW181874   8.837   7.960  11.926
93345SOL    HW281875   8.957   7.880  11.974
93346SOL     OW81876   7.582   2.681   0.381
93346SOL    HW181877   7.576   2.683   0.477
93346SOL    HW281878   7.499   2.643   0.352
93347SOL     OW81879  14.109   3.765   3.159
93347SOL    HW181880  14.044   3.769   3.230
93347SOL    HW281881  14.193   3.775   3.204
93348SOL     OW81882   4.125   3.359   8.174
93348SOL    HW181883   4.090   3.348   8.086
93348SOL    HW281884   4.188   3.287   8.184
93349SOL     OW81885  12.767  10.106   0.130
93349SOL    HW181886  12.721  10.028   0.162
93349SOL    HW281887  12.779  10.090   0.037
93350SOL     OW81888   6.443   6.979  14.353
93350SOL    HW181889   6.397   7.033  14.417
93350SOL    HW281890   6.536   6.998  14.369
93351SOL     OW81891  10.200   5.600   8.626
93351SOL    HW181892  10.270   5.541   8.599
93351SOL    HW281893  10.224   5.626   8.715
93352SOL     OW81894  13.416   9.310  11.854
93352SOL    HW181895  13.354   9.357  11.797
93352SOL    HW281896  13.381   9.322  11.942
93353SOL     OW81897  14.341   6.648   5.202
93353SOL    HW181898  14.392   6.568   5.216
93353SOL    HW281899  14.324   6.682   5.290
93354SOL     OW81900   6.259  11.213   9.675
93354SOL    HW181901   6.325  11.249   9.734
93354SOL    HW281902   6.232  11.131   9.718
93355SOL     OW81903  10.256   3.817   2.749
93355SOL    HW181904  10.198   3.776   2.813
93355SOL    HW281905  10.207   3.816   2.667
93356SOL     OW81906   2.150  10.323  13.909
93356SOL    HW181907   2.144  10.306  13.815
93356SOL    HW281908   2.151  10.236  13.949
93357SOL     OW81909   4.560   7.862   9.614
93357SOL    HW181910   4.542   7.876   9.707
93357SOL    HW281911   4.653   7.883   9.604
93358SOL     OW81912  13.820  13.182  12.983
93358SOL    HW181913  13.798  13.181  13.076
93358SOL    HW281914  13.818  13.090  12.957
93359SOL     OW81915   8.918   6.291   0.379
93359SOL    HW181916   8.850   6.350   0.410
93359SOL    HW281917   8.983   6.348   0.338
93360SOL     OW81918   2.045   3.884  14.222
93360SOL    HW181919   2.074   3.838  14.300
93360SOL    HW281920   2.000   3.962  14.255
93361SOL     OW81921   4.095   7.612   6.718
93361SOL    HW181922   4.024   7.563   6.758
93361SOL    HW281923   4.159   7.546   6.692
93362SOL     OW81924  10.708  11.246   5.873
93362SOL    HW181925  10.744  11.230   5.786
93362SOL    HW281926  10.781  11.227   5.933
93363SOL     OW81927   3.515   4.195   0.671
93363SOL    HW181928   3.484   4.110   0.641
93363SOL    HW281929   3.450   4.222   0.737
93364SOL     OW81930   0.420   7.422   5.446
93364SOL    HW181931   0.420   7.484   5.373
93364SOL    HW281932   0.331   7.424   5.480
93365SOL     OW81933  11.764   0.658   6.600
93365SOL    HW181934  11.789   0.731   6.543
93365SOL    HW281935  11.821   0.665   6.676
93366SOL     OW81936  10.123   7.477   4.823
93366SOL    HW181937  10.049   7.535   4.806
93366SOL    HW281938  10.087   7.389   4.813
93367SOL     OW81939   6.113   8.439   7.034
93367SOL    HW181940   6.198   8.423   6.994
93367SOL    HW281941   6.131   8.447   7.127
93368SOL     OW81942  13.999   1.535  12.720
93368SOL    HW181943  13.968   1.445  12.733
93368SOL    HW281944  13.949   1.567  12.646
93369SOL     OW81945  11.243   7.461   4.206
93369SOL    HW181946  11.169   7.522   4.214
93369SOL    HW281947  11.320   7.517   4.213
93370SOL     OW81948   9.749  12.951   4.360
93370SOL    HW181949   9.718  13.041   4.367
93370SOL    HW281950   9.690  12.909   4.298
93371SOL     OW81951   7.179   4.477   8.021
93371SOL    HW181952   7.188   4.492   7.927
93371SOL    HW281953   7.196   4.383   8.031
93372SOL     OW81954   7.038   4.520  10.011
93372SOL    HW181955   7.031   4.605  10.053
93372SOL    HW281956   7.093   4.536   9.934
93373SOL     OW81957   4.761   8.515  13.645
93373SOL    HW181958   4.810   8.568  13.707
93373SOL    HW281959   4.804   8.531  13.561
93374SOL     OW81960  14.545  13.592  12.030
93374SOL    HW181961  14.496  13.520  11.991
93374SOL    HW281962  14.599  13.551  12.097
93375SOL     OW81963   1.759   5.619  13.555
93375SOL    HW181964   1.753   5.576  13.469
93375SOL    HW281965   1.700   5.694  13.548
93376SOL     OW81966  13.423  13.415   3.365
93376SOL    HW181967  13.391  13.499   3.333
93376SOL    HW281968  13.385  13.350   3.305
93377SOL     OW81969   9.684   6.868  14.177
93377SOL    HW181970   9.644   6.831  14.255
93377SOL    HW281971   9.611   6.882  14.117
93378SOL     OW81972   4.351   8.092  10.258
93378SOL    HW181973   4.328   8.140  10.337
93378SOL    HW281974   4.281   8.112  10.196
93379SOL     OW81975  12.502   3.464  12.129
93379SOL    HW181976  12.452   3.387  12.100
93379SOL    HW281977  12.502   3.458  12.224
93380SOL     OW81978   6.378  11.477   0.525
93380SOL    HW181979   6.469  11.504   0.536
93380SOL    HW281980   6.361  11.486   0.431
93381SOL     OW81981  12.492   8.839  14.293
93381SOL    HW181982  12.432   8.767  14.309
93381SOL    HW281983  12.563   8.800  14.243
93382SOL     OW81984   8.457  10.727   3.398
93382SOL    HW181985   8.543  10.770   3.396
93382SOL    HW281986   8.401  10.790   3.445
93383SOL     OW81987  12.170  14.466   9.097
93383SOL    HW181988  12.209  14.409   9.030
93383SOL    HW281989  12.244  14.498   9.148
93384SOL     OW81990   0.496   5.167   6.784
93384SOL    HW181991   0.425   5.186   6.845
93384SOL    HW281992   0.576   5.188   6.832
93385SOL     OW81993   9.928   7.444   5.939
93385SOL    HW181994   9.885   7.385   6.001
93385SOL    HW281995  10.017   7.410   5.930
93386SOL     OW81996   7.115  13.567   5.285
93386SOL    HW181997   7.049  13.602   5.345
93386SOL    HW281998   7.078  13.483   5.257
93387SOL     OW81999  10.021   6.970   8.495
93387SOL    HW182000   9.979   7.055   8.484
93387SOL    HW282001  10.114   6.991   8.504
93388SOL     OW82002  13.153   2.490   0.664
93388SOL    HW182003  13.243   2.504   0.693
93388SOL    HW282004  13.117   2.426   0.725
93389SOL     OW82005   1.991   0.663  12.582
93389SOL    HW182006   1.987   0.684  12.488
93389SOL    HW282007   1.964   0.744  12.625
93390SOL     OW82008   5.422  14.155  12.897
93390SOL    HW182009   5.511  14.151  12.861
93390SOL    HW282010   5.432  14.126  12.988
93391SOL     OW82011  10.864  12.989   0.215
93391SOL    HW182012  10.775  12.989   0.249
93391SOL    HW282013  10.919  12.970   0.291
93392SOL     OW82014   0.799   2.527   0.467
93392SOL    HW182015   0.742   2.601   0.446
93392SOL    HW282016   0.870   2.564   0.519
93393SOL     OW82017   0.913  14.244  10.216
93393SOL    HW182018   0.999  14.205  10.225
93393SOL    HW282019   0.885  14.222  10.127
93394SOL     OW82020   9.167   5.725   7.101
93394SOL    HW182021   9.177   5.806   7.051
93394SOL    HW282022   9.087   5.686   7.067
93395SOL     OW82023   3.194   5.122  13.090
93395SOL    HW182024   3.147   5.149  13.011
93395SOL    HW282025   3.124   5.098  13.151
93396SOL     OW82026   5.959   6.848  13.456
93396SOL    HW182027   5.934   6.931  13.414
93396SOL    HW282028   5.879   6.818  13.499
93397SOL     OW82029   3.256   5.612  11.061
93397SOL    HW182030   3.303   5.630  11.143
93397SOL    HW282031   3.321   5.569  11.005
93398SOL     OW82032   8.744   7.502  13.495
93398SOL    HW182033   8.717   7.504  13.403
93398SOL    HW282034   8.753   7.595  13.519
93399SOL     OW82035   5.586  14.587   3.088
93399SOL    HW182036   5.589  14.529   3.164
93399SOL    HW282037   5.672  14.628   3.084
93400SOL     OW82038  13.571   5.623  10.996
93400SOL    HW182039  13.632   5.561  10.958
93400SOL    HW282040  13.604   5.639  11.084
93401SOL     OW82041   5.725  11.569  12.777
93401SOL    HW182042   5.771  11.490  12.745
93401SOL    HW282043   5.780  11.642  12.747
93402SOL     OW82044   4.467   4.259   4.853
93402SOL    HW182045   4.414   4.194   4.808
93402SOL    HW282046   4.411   4.289   4.925
93403SOL     OW82047   8.187  12.703  13.489
93403SOL    HW182048   8.265  12.757  13.475
93403SOL    HW282049   8.120  12.743  13.433
93404SOL     OW82050  11.620   4.792   9.984
93404SOL    HW182051  11.565   4.756   9.915
93404SOL    HW282052  11.660   4.870   9.946
93405SOL     OW82053   5.801   6.052  10.902
93405SOL    HW182054   5.864   5.982  10.918
93405SOL    HW282055   5.719   6.020  10.940
93406SOL     OW82056   7.760   4.510  13.108
93406SOL    HW182057   7.748   4.561  13.028
93406SOL    HW282058   7.705   4.554  13.173
93407SOL     OW82059  12.544   4.948   8.787
93407SOL    HW182060  12.489   4.883   8.830
93407SOL    HW282061  12.634   4.921   8.806
93408SOL     OW82062   6.738   7.853   6.482
93408SOL    HW182063   6.673   7.827   6.417
93408SOL    HW282064   6.699   7.929   6.526
93409SOL     OW82065  13.616   5.193  10.427
93409SOL    HW182066  13.652   5.281  10.415
93409SOL    HW282067  13.689   5.142  10.463
93410SOL     OW82068   4.121  12.996   0.195
93410SOL    HW182069   4.029  13.005   0.174
93410SOL    HW282070   4.128  13.022   0.287
93411SOL     OW82071   1.002   6.991  13.469
93411SOL    HW182072   0.945   7.043  13.413
93411SOL    HW282073   1.035   6.922  13.411
93412SOL     OW82074  11.096   1.483   7.065
93412SOL    HW182075  11.015   1.533   7.061
93412SOL    HW282076  11.154   1.526   7.002
93413SOL     OW82077   5.513   6.527  14.121
93413SOL    HW182078   5.453   6.475  14.068
93413SOL    HW282079   5.462   6.554  14.197
93414SOL     OW82080   5.345  10.011   9.297
93414SOL    HW182081   5.378   9.927   9.265
93414SOL    HW282082   5.250   9.999   9.302
93415SOL     OW82083  14.100   7.665  11.432
93415SOL    HW182084  14.141   7.740  11.476
93415SOL    HW282085  14.032   7.636  11.493
93416SOL     OW82086   4.893  14.314  13.904
93416SOL    HW182087   4.881  14.265  13.823
93416SOL    HW282088   4.979  14.355  13.895
93417SOL     OW82089   4.431  12.478  13.438
93417SOL    HW182090   4.495  12.538  13.476
93417SOL    HW282091   4.483  12.405  13.406
93418SOL     OW82092  12.692   1.506   0.535
93418SOL    HW182093  12.667   1.594   0.507
93418SOL    HW282094  12.614   1.453   0.519
93419SOL     OW82095   4.550  10.807  12.542
93419SOL    HW182096   4.551  10.880  12.481
93419SOL    HW282097   4.459  10.799  12.569
93420SOL     OW82098   5.630   4.251   8.153
93420SOL    HW182099   5.717   4.287   8.137
93420SOL    HW282100   5.643   4.183   8.219
93421SOL     OW82101  14.486   5.289   4.246
93421SOL    HW182102  14.401   5.245   4.252
93421SOL    HW282103  14.499   5.302   4.152
93422SOL     OW82104   2.141   6.164   2.768
93422SOL    HW182105   2.102   6.178   2.855
93422SOL    HW282106   2.195   6.242   2.754
93423SOL     OW82107  14.284   7.923   3.551
93423SOL    HW182108  14.332   7.875   3.484
93423SOL    HW282109  14.321   8.011   3.549
93424SOL     OW82110   5.799  11.405   5.249
93424SOL    HW182111   5.816  11.462   5.324
93424SOL    HW282112   5.726  11.349   5.279
93425SOL     OW82113   6.953  11.231   9.712
93425SOL    HW182114   6.935  11.194   9.626
93425SOL    HW282115   6.930  11.162   9.774
93426SOL     OW82116   1.084   8.568   6.939
93426SOL    HW182117   1.050   8.605   7.021
93426SOL    HW282118   1.013   8.580   6.876
93427SOL     OW82119   9.060   2.548   3.812
93427SOL    HW182120   8.997   2.579   3.877
93427SOL    HW282121   9.084   2.460   3.842
93428SOL     OW82122  14.802   3.272   6.028
93428SOL    HW182123  14.742   3.282   5.954
93428SOL    HW282124  14.754   3.308   6.102
93429SOL     OW82125   5.877  12.818  13.773
93429SOL    HW182126   5.967  12.810  13.804
93429SOL    HW282127   5.872  12.762  13.696
93430SOL     OW82128   3.703   8.712   1.751
93430SOL    HW182129   3.624   8.732   1.801
93430SOL    HW282130   3.678   8.727   1.660
93431SOL     OW82131   8.144   6.444   8.155
93431SOL    HW182132   8.078   6.395   8.204
93431SOL    HW282133   8.137   6.409   8.066
93432SOL     OW82134  13.038   0.555   7.472
93432SOL    HW182135  12.949   0.535   7.443
93432SOL    HW282136  13.079   0.597   7.396
93433SOL     OW82137   4.380  12.527   5.550
93433SOL    HW182138   4.462  12.562   5.515
93433SOL    HW282139   4.333  12.605   5.581
93434SOL     OW82140   3.997   5.675   6.964
93434SOL    HW182141   4.056   5.603   6.982
93434SOL    HW282142   3.922   5.660   7.022
93435SOL     OW82143   6.841   7.768  14.501
93435SOL    HW182144   6.899   7.804  14.434
93435SOL    HW282145   6.836   7.674  14.481
93436SOL     OW82146   1.245  12.915   1.771
93436SOL    HW182147   1.196  12.990   1.739
93436SOL    HW282148   1.293  12.883   1.695
93437SOL     OW82149   8.428  10.582   6.399
93437SOL    HW182150   8.346  10.574   6.448
93437SOL    HW282151   8.457  10.672   6.415
93438SOL     OW82152   4.076   3.481  12.220
93438SOL    HW182153   4.093   3.391  12.191
93438SOL    HW282154   4.035   3.470  12.306
93439SOL     OW82155  12.135   8.446   5.983
93439SOL    HW182156  12.166   8.426   5.895
93439SOL    HW282157  12.126   8.542   5.984
93440SOL     OW82158  13.751   4.754   2.917
93440SOL    HW182159  13.843   4.733   2.934
93440SOL    HW282160  13.707   4.737   3.001
93441SOL     OW82161   4.703   3.532   2.565
93441SOL    HW182162   4.608   3.520   2.569
93441SOL    HW282163   4.737   3.462   2.622
93442SOL     OW82164   8.724   1.982  12.080
93442SOL    HW182165   8.785   1.994  12.153
93442SOL    HW282166   8.779   1.993  12.002
93443SOL     OW82167   5.746   1.370  12.790
93443SOL    HW182168   5.697   1.398  12.867
93443SOL    HW282169   5.716   1.280  12.774
93444SOL     OW82170   3.498   2.186  13.461
93444SOL    HW182171   3.419   2.182  13.515
93444SOL    HW282172   3.570   2.173  13.523
93445SOL     OW82173  10.887   8.894  10.394
93445SOL    HW182174  10.860   8.941  10.316
93445SOL    HW282175  10.819   8.913  10.458
93446SOL     OW82176  13.859   4.823  14.765
93446SOL    HW182177  13.889   4.742  14.723
93446SOL    HW282178  13.856   4.887  14.693
93447SOL     OW82179   8.557   3.650  12.948
93447SOL    HW182180   8.606   3.706  12.888
93447SOL    HW282181   8.574   3.561  12.917
93448SOL     OW82182   5.121   8.465   9.050
93448SOL    HW182183   5.194   8.526   9.051
93448SOL    HW282184   5.043   8.520   9.061
93449SOL     OW82185   0.240   5.277   4.443
93449SOL    HW182186   0.167   5.340   4.448
93449SOL    HW282187   0.312   5.327   4.404
93450SOL     OW82188  11.491  10.108   9.345
93450SOL    HW182189  11.491  10.093   9.440
93450SOL    HW282190  11.533  10.030   9.309
93451SOL     OW82191   5.092   6.451   7.251
93451SOL    HW182192   5.067   6.359   7.264
93451SOL    HW282193   5.048   6.498   7.322
93452SOL     OW82194   7.362   5.243  12.720
93452SOL    HW182195   7.383   5.336  12.728
93452SOL    HW282196   7.436   5.205  12.672
93453SOL     OW82197  13.880   0.430   1.645
93453SOL    HW182198  13.807   0.368   1.644
93453SOL    HW282199  13.957   0.376   1.661
93454SOL     OW82200  10.011   9.092  14.077
93454SOL    HW182201   9.985   9.003  14.052
93454SOL    HW282202  10.105   9.095  14.061
93455SOL     OW82203   0.702   0.844   1.515
93455SOL    HW182204   0.639   0.890   1.459
93455SOL    HW282205   0.650   0.812   1.589
93456SOL     OW82206   0.551  14.680   3.030
93456SOL    HW182207   0.621  14.626   2.993
93456SOL    HW282208   0.471  14.630   3.015
93457SOL     OW82209   5.525  12.924   3.422
93457SOL    HW182210   5.459  12.991   3.440
93457SOL    HW282211   5.482  12.864   3.361
93458SOL     OW82212   4.730   3.584  12.555
93458SOL    HW182213   4.643   3.621  12.545
93458SOL    HW282214   4.789   3.659  12.551
93459SOL     OW82215  13.012   2.903   7.185
93459SOL    HW182216  13.105   2.912   7.207
93459SOL    HW282217  12.975   2.990   7.200
93460SOL     OW82218   6.474  11.513  14.346
93460SOL    HW182219   6.434  11.523  14.260
93460SOL    HW282220   6.534  11.588  14.353
93461SOL     OW82221   3.326  11.759   6.322
93461SOL    HW182222   3.288  11.786   6.238
93461SOL    HW282223   3.416  11.736   6.301
93462SOL     OW82224   0.364   0.939   1.700
93462SOL    HW182225   0.369   0.944   1.795
93462SOL    HW282226   0.293   0.876   1.683
93463SOL     OW82227   3.312  12.096   0.542
93463SOL    HW182228   3.235  12.047   0.571
93463SOL    HW282229   3.283  12.188   0.542
93464SOL     OW82230  14.051   9.579   1.015
93464SOL    HW182231  13.957   9.571   1.029
93464SOL    HW282232  14.084   9.621   1.095
93465SOL     OW82233   0.013   3.223   8.168
93465SOL    HW182234   0.021   3.317   8.183
93465SOL    HW282235  14.823   3.194   8.227
93466SOL     OW82236   3.604   8.780  10.446
93466SOL    HW182237   3.673   8.714  10.434
93466SOL    HW282238   3.633   8.830  10.523
93467SOL     OW82239  11.610  10.068   6.810
93467SOL    HW182240  11.642  10.110   6.891
93467SOL    HW282241  11.559   9.993   6.841
93468SOL     OW82242  11.601   8.826  10.881
93468SOL    HW182243  11.694   8.805  10.871
93468SOL    HW282244  11.558   8.777  10.811
93469SOL     OW82245  14.126   4.491   7.161
93469SOL    HW182246  14.171   4.423   7.111
93469SOL    HW282247  14.085   4.444   7.234
93470SOL     OW82248   0.787   4.460  12.572
93470SOL    HW182249   0.692   4.446  12.576
93470SOL    HW282250   0.819   4.432  12.657
93471SOL     OW82251  13.662   9.542  13.580
93471SOL    HW182252  13.664   9.447  13.583
93471SOL    HW282253  13.733   9.565  13.520
93472SOL     OW82254  11.591   9.928   1.319
93472SOL    HW182255  11.643   9.876   1.257
93472SOL    HW282256  11.502   9.926   1.284
93473SOL     OW82257   1.352  12.530  12.053
93473SOL    HW182258   1.367  12.613  12.098
93473SOL    HW282259   1.423  12.473  12.083
93474SOL     OW82260  10.555   6.461   3.727
93474SOL    HW182261  10.582   6.547   3.760
93474SOL    HW282262  10.461   6.458   3.742
93475SOL     OW82263  10.366   9.849   5.128
93475SOL    HW182264  10.383   9.919   5.065
93475SOL    HW282265  10.343   9.773   5.074
93476SOL     OW82266  14.299   2.122  13.815
93476SOL    HW182267  14.344   2.103  13.897
93476SOL    HW282268  14.237   2.050  13.805
93477SOL     OW82269   1.557   9.536  12.239
93477SOL    HW182270   1.646   9.567  12.256
93477SOL    HW282271   1.505   9.615  12.228
93478SOL     OW82272   5.405   7.051   8.853
93478SOL    HW182273   5.404   7.030   8.760
93478SOL    HW282274   5.384   7.144   8.857
93479SOL     OW82275   5.680   8.949   9.556
93479SOL    HW182276   5.663   8.898   9.476
93479SOL    HW282277   5.774   8.942   9.570
93480SOL     OW82278  14.468  13.537   2.574
93480SOL    HW182279  14.536  13.566   2.513
93480SOL    HW282280  14.430  13.459   2.534
93481SOL     OW82281   8.338  14.079  13.430
93481SOL    HW182282   8.416  14.094  13.376
93481SOL    HW282283   8.271  14.135  13.390
93482SOL     OW82284   3.956  14.730   0.556
93482SOL    HW182285   4.026  14.742   0.492
93482SOL    HW282286   3.945  14.635   0.562
93483SOL     OW82287   8.671   5.773   2.559
93483SOL    HW182288   8.608   5.756   2.629
93483SOL    HW282289   8.618   5.802   2.485
93484SOL     OW82290  13.760   9.486   7.259
93484SOL    HW182291  13.754   9.504   7.166
93484SOL    HW282292  13.692   9.540   7.299
93485SOL     OW82293   8.031   7.346   5.985
93485SOL    HW182294   8.093   7.275   5.967
93485SOL    HW282295   8.085   7.425   5.987
93486SOL     OW82296  12.551   6.886  14.199
93486SOL    HW182297  12.540   6.794  14.224
93486SOL    HW282298  12.542   6.935  14.281
93487SOL     OW82299   9.458   0.060  13.066
93487SOL    HW182300   9.413   0.004  13.003
93487SOL    HW282301   9.496   0.131  13.013
93488SOL     OW82302   0.102   0.703   5.542
93488SOL    HW182303   0.165   0.669   5.606
93488SOL    HW282304   0.137   0.789   5.518
93489SOL     OW82305  14.074   2.370   5.554
93489SOL    HW182306  14.123   2.373   5.636
93489SOL    HW282307  14.098   2.450   5.509
93490SOL     OW82308   3.591   5.931   3.839
93490SOL    HW182309   3.570   6.021   3.867
93490SOL    HW282310   3.651   5.943   3.765
93491SOL     OW82311   3.272  10.877   3.475
93491SOL    HW182312   3.326  10.956   3.472
93491SOL    HW282313   3.182  10.909   3.476
93492SOL     OW82314  11.002  10.212   3.699
93492SOL    HW182315  11.015  10.246   3.788
93492SOL    HW282316  11.091  10.192   3.668
93493SOL     OW82317   7.621   2.149   8.170
93493SOL    HW182318   7.670   2.078   8.211
93493SOL    HW282319   7.684   2.220   8.161
93494SOL     OW82320   9.094   9.907   2.740
93494SOL    HW182321   9.027   9.839   2.744
93494SOL    HW282322   9.067   9.972   2.806
93495SOL     OW82323  12.462   8.454   4.964
93495SOL    HW182324  12.417   8.487   4.886
93495SOL    HW282325  12.488   8.533   5.012
93496SOL     OW82326  13.854   4.955  12.716
93496SOL    HW182327  13.864   4.927  12.625
93496SOL    HW282328  13.898   5.041  12.719
93497SOL     OW82329   3.389  11.401  13.540
93497SOL    HW182330   3.466  11.413  13.484
93497SOL    HW282331   3.348  11.321  13.507
93498SOL     OW82332   3.088  11.658   1.710
93498SOL    HW182333   3.004  11.703   1.702
93498SOL    HW282334   3.126  11.691   1.792
93499SOL     OW82335   8.320   6.440   7.141
93499SOL    HW182336   8.369   6.419   7.220
93499SOL    HW282337   8.338   6.367   7.082
93500SOL     OW82338   1.122  10.039   8.735
93500SOL    HW182339   1.144  10.083   8.653
93500SOL    HW282340   1.187   9.969   8.743
93501SOL     OW82341   5.509   4.414   8.360
93501SOL    HW182342   5.569   4.361   8.308
93501SOL    HW282343   5.426   4.409   8.312
93502SOL     OW82344   4.697  11.455  12.306
93502SOL    HW182345   4.725  11.494  12.223
93502SOL    HW282346   4.779  11.441  12.354
93503SOL     OW82347  13.998  12.601  12.560
93503SOL    HW182348  13.980  12.687  12.600
93503SOL    HW282349  14.005  12.542  12.635
93504SOL     OW82350   4.376   7.603   5.021
93504SOL    HW182351   4.353   7.534   5.084
93504SOL    HW282352   4.307   7.598   4.954
93505SOL     OW82353   9.659   0.177  11.259
93505SOL    HW182354   9.626   0.258  11.298
93505SOL    HW282355   9.682   0.122  11.333
93506SOL     OW82356   3.306   3.762   8.607
93506SOL    HW182357   3.380   3.766   8.667
93506SOL    HW282358   3.340   3.795   8.524
93507SOL     OW82359   6.823  10.323   4.567
93507SOL    HW182360   6.885  10.394   4.549
93507SOL    HW282361   6.870  10.243   4.546
93508SOL     OW82362   1.908   0.238  14.713
93508SOL    HW182363   1.830   0.269  14.667
93508SOL    HW282364   1.979   0.294  14.680
93509SOL     OW82365   9.854   9.261   8.788
93509SOL    HW182366   9.799   9.182   8.787
93509SOL    HW282367   9.823   9.313   8.714
93510SOL     OW82368   9.343   0.061   0.179
93510SOL    HW182369   9.375   0.138   0.132
93510SOL    HW282370   9.414  14.876   0.172
93511SOL     OW82371   9.622  13.662   6.606
93511SOL    HW182372   9.654  13.578   6.640
93511SOL    HW282373   9.695  13.695   6.553
93512SOL     OW82374   5.739   3.678  12.678
93512SOL    HW182375   5.731   3.721  12.593
93512SOL    HW282376   5.782   3.742  12.734
93513SOL     OW82377   8.950   5.782  14.451
93513SOL    HW182378   8.905   5.730  14.518
93513SOL    HW282379   9.023   5.727  14.423
93514SOL     OW82380  10.360   0.709   6.552
93514SOL    HW182381  10.300   0.638   6.575
93514SOL    HW282382  10.386   0.746   6.637
93515SOL     OW82383   2.568  14.848   6.970
93515SOL    HW182384   2.618  14.842   6.889
93515SOL    HW282385   2.478  14.830   6.944
93516SOL     OW82386   1.427   7.087   9.527
93516SOL    HW182387   1.452   7.063   9.438
93516SOL    HW282388   1.431   7.006   9.576
93517SOL     OW82389   1.504  11.660   1.616
93517SOL    HW182390   1.554  11.630   1.692
93517SOL    HW282391   1.455  11.736   1.648
93518SOL     OW82392  11.897   8.343   5.348
93518SOL    HW182393  11.839   8.410   5.385
93518SOL    HW282394  11.850   8.310   5.272
93519SOL     OW82395  11.851  13.708  14.336
93519SOL    HW182396  11.797  13.760  14.396
93519SOL    HW282397  11.790  13.677  14.269
93520SOL     OW82398   6.790   9.427   7.727
93520SOL    HW182399   6.881   9.437   7.700
93520SOL    HW282400   6.739   9.442   7.648
93521SOL     OW82401   2.222   0.672   9.406
93521SOL    HW182402   2.308   0.632   9.393
93521SOL    HW282403   2.166   0.599   9.432
93522SOL     OW82404   5.411   8.577  13.879
93522SOL    HW182405   5.369   8.661  13.898
93522SOL    HW282406   5.394   8.524  13.957
93523SOL     OW82407   8.001   6.729  13.536
93523SOL    HW182408   8.078   6.676  13.517
93523SOL    HW282409   7.937   6.667  13.570
93524SOL     OW82410   8.900   3.031   7.520
93524SOL    HW182411   8.924   2.959   7.462
93524SOL    HW282412   8.859   2.987   7.596
93525SOL     OW82413  10.608   7.266   3.914
93525SOL    HW182414  10.682   7.294   3.860
93525SOL    HW282415  10.589   7.177   3.885
93526SOL     OW82416   3.182   4.947   7.488
93526SOL    HW182417   3.100   4.983   7.454
93526SOL    HW282418   3.155   4.885   7.556
93527SOL     OW82419  12.378  10.404   3.221
93527SOL    HW182420  12.351  10.481   3.172
93527SOL    HW282421  12.323  10.405   3.300
93528SOL     OW82422   0.561   2.524   9.081
93528SOL    HW182423   0.500   2.548   9.011
93528SOL    HW282424   0.586   2.434   9.061
93529SOL     OW82425   9.358   7.606  13.990
93529SOL    HW182426   9.325   7.571  13.908
93529SOL    HW282427   9.348   7.533  14.052
93530SOL     OW82428  13.774   2.162   2.694
93530SOL    HW182429  13.732   2.082   2.727
93530SOL    HW282430  13.715   2.233   2.721
93531SOL     OW82431  10.611   8.355   4.581
93531SOL    HW182432  10.520   8.341   4.554
93531SOL    HW282433  10.639   8.433   4.534
93532SOL     OW82434   1.378   3.102   2.160
93532SOL    HW182435   1.383   3.012   2.192
93532SOL    HW282436   1.406   3.155   2.234
93533SOL     OW82437   3.356   7.867  13.923
93533SOL    HW182438   3.394   7.927  13.860
93533SOL    HW282439   3.426   7.849  13.985
93534SOL     OW82440   0.123   7.020   2.452
93534SOL    HW182441   0.064   6.956   2.413
93534SOL    HW282442   0.207   7.005   2.407
93535SOL     OW82443   3.022   0.154   4.274
93535SOL    HW182444   2.954   0.088   4.263
93535SOL    HW282445   2.984   0.233   4.235
93536SOL     OW82446   9.852   8.228  13.184
93536SOL    HW182447   9.889   8.285  13.252
93536SOL    HW282448   9.895   8.258  13.103
93537SOL     OW82449   6.245  14.501   1.378
93537SOL    HW182450   6.327  14.461   1.351
93537SOL    HW282451   6.205  14.531   1.297
93538SOL     OW82452   4.816   1.523  10.992
93538SOL    HW182453   4.879   1.457  11.018
93538SOL    HW282454   4.811   1.516  10.897
93539SOL     OW82455   2.330  11.975   8.652
93539SOL    HW182456   2.262  11.928   8.604
93539SOL    HW282457   2.307  12.067   8.641
93540SOL     OW82458   3.082   7.003   6.791
93540SOL    HW182459   3.048   6.920   6.826
93540SOL    HW282460   3.006   7.061   6.788
93541SOL     OW82461   9.218  14.705  11.702
93541SOL    HW182462   9.189  14.796  11.696
93541SOL    HW282463   9.168  14.660  11.635
93542SOL     OW82464  13.898  14.598   2.241
93542SOL    HW182465  13.945  14.520   2.271
93542SOL    HW282466  13.843  14.623   2.315
93543SOL     OW82467  10.945   5.522   8.222
93543SOL    HW182468  10.983   5.451   8.171
93543SOL    HW282469  10.850   5.509   8.214
93544SOL     OW82470   0.409  12.376   9.816
93544SOL    HW182471   0.469  12.416   9.879
93544SOL    HW282472   0.323  12.385   9.856
93545SOL     OW82473   0.871  14.108   4.594
93545SOL    HW182474   0.967  14.109   4.588
93545SOL    HW282475   0.841  14.141   4.509
93546SOL     OW82476   8.330   7.098  12.788
93546SOL    HW182477   8.250   7.127  12.744
93546SOL    HW282478   8.342   7.008  12.757
93547SOL     OW82479   7.948   7.189   9.978
93547SOL    HW182480   8.027   7.140   9.954
93547SOL    HW282481   7.951   7.193  10.073
93548SOL     OW82482  13.082  11.908   0.387
93548SOL    HW182483  12.999  11.923   0.342
93548SOL    HW282484  13.139  11.870   0.321
93549SOL     OW82485   9.114  14.289   5.372
93549SOL    HW182486   9.167  14.210   5.381
93549SOL    HW282487   9.032  14.267   5.416
93550SOL     OW82488   3.373   2.407   8.998
93550SOL    HW182489   3.401   2.444   9.082
93550SOL    HW282490   3.299   2.462   8.971
93551SOL     OW82491   0.551   0.070   7.721
93551SOL    HW182492   0.603  14.870   7.707
93551SOL    HW282493   0.539   0.107   7.633
93552SOL     OW82494  12.593  10.914   4.363
93552SOL    HW182495  12.580  10.829   4.406
93552SOL    HW282496  12.686  10.917   4.342
93553SOL     OW82497   7.588   4.381   1.880
93553SOL    HW182498   7.674   4.413   1.909
93553SOL    HW282499   7.568   4.308   1.938
93554SOL     OW82500   3.831   2.178  13.920
93554SOL    HW182501   3.774   2.246  13.886
93554SOL    HW282502   3.775   2.101  13.929
93555SOL     OW82503   6.966   5.603   6.521
93555SOL    HW182504   6.908   5.529   6.541
93555SOL    HW282505   6.907   5.677   6.508
93556SOL     OW82506  14.074   7.987   7.851
93556SOL    HW182507  14.011   7.959   7.785
93556SOL    HW282508  14.156   7.943   7.827
93557SOL     OW82509   1.455   1.915   0.892
93557SOL    HW182510   1.404   1.916   0.973
93557SOL    HW282511   1.448   1.825   0.860
93558SOL     OW82512   7.412   8.544  13.074
93558SOL    HW182513   7.400   8.625  13.024
93558SOL    HW282514   7.505   8.543  13.097
93559SOL     OW82515   3.861  11.907   1.043
93559SOL    HW182516   3.793  11.963   1.008
93559SOL    HW282517   3.822  11.867   1.121
93560SOL     OW82518   1.133  12.869   4.098
93560SOL    HW182519   1.167  12.952   4.132
93560SOL    HW282520   1.196  12.843   4.030
93561SOL     OW82521   9.563  13.435   2.084
93561SOL    HW182522   9.496  13.474   2.141
93561SOL    HW282523   9.524  13.436   1.997
93562SOL     OW82524   0.749  14.725  13.445
93562SOL    HW182525   0.728  14.762  13.359
93562SOL    HW282526   0.697  14.776  13.507
93563SOL     OW82527   5.353   9.535  10.007
93563SOL    HW182528   5.433   9.523  10.057
93563SOL    HW282529   5.374   9.602   9.943
93564SOL     OW82530   3.912   2.181   8.436
93564SOL    HW182531   3.824   2.211   8.455
93564SOL    HW282532   3.929   2.113   8.501
93565SOL     OW82533  14.025   9.066   0.163
93565SOL    HW182534  14.104   9.091   0.212
93565SOL    HW282535  13.958   9.127   0.193
93566SOL     OW82536   9.352   8.360   0.917
93566SOL    HW182537   9.273   8.307   0.907
93566SOL    HW282538   9.423   8.296   0.916
93567SOL     OW82539  14.306   7.602   4.555
93567SOL    HW182540  14.299   7.516   4.598
93567SOL    HW282541  14.363   7.653   4.613
93568SOL     OW82542   2.905   8.238  11.641
93568SOL    HW182543   2.889   8.145  11.660
93568SOL    HW282544   2.856   8.284  11.709
93569SOL     OW82545  13.117   3.066   5.494
93569SOL    HW182546  13.168   3.146   5.508
93569SOL    HW282547  13.180   3.003   5.460
93570SOL     OW82548  13.927  11.815   4.660
93570SOL    HW182549  13.922  11.908   4.682
93570SOL    HW282550  13.982  11.777   4.729
93571SOL     OW82551   1.579   1.013   4.346
93571SOL    HW182552   1.652   1.033   4.404
93571SOL    HW282553   1.605   0.931   4.303
93572SOL     OW82554  11.136   9.032   2.748
93572SOL    HW182555  11.074   9.094   2.788
93572SOL    HW282556  11.090   8.949   2.747
93573SOL     OW82557   5.970  10.088  12.714
93573SOL    HW182558   5.909  10.074  12.786
93573SOL    HW282559   5.988  10.000  12.680
93574SOL     OW82560   2.193   7.325   5.148
93574SOL    HW182561   2.102   7.311   5.172
93574SOL    HW282562   2.244   7.283   5.217
93575SOL     OW82563  11.184   1.674   7.996
93575SOL    HW182564  11.207   1.665   7.904
93575SOL    HW282565  11.147   1.762   8.004
93576SOL     OW82566  11.658   3.700   0.853
93576SOL    HW182567  11.715   3.652   0.793
93576SOL    HW282568  11.633   3.636   0.919
93577SOL     OW82569   0.502   0.640   6.623
93577SOL    HW182570   0.564   0.627   6.694
93577SOL    HW282571   0.421   0.598   6.654
93578SOL     OW82572   8.028   7.195  13.306
93578SOL    HW182573   8.116   7.194  13.269
93578SOL    HW282574   8.014   7.106  13.339
93579SOL     OW82575   8.472   3.631  13.457
93579SOL    HW182576   8.566   3.647  13.445
93579SOL    HW282577   8.455   3.656  13.548
93580SOL     OW82578   8.984  14.867   5.760
93580SOL    HW182579   8.969  14.779   5.726
93580SOL    HW282580   9.049  14.855   5.829
93581SOL     OW82581  11.416   6.490  10.033
93581SOL    HW182582  11.465   6.423  10.080
93581SOL    HW282583  11.474   6.519   9.963
93582SOL     OW82584   5.719   0.429   2.377
93582SOL    HW182585   5.671   0.403   2.298
93582SOL    HW282586   5.715   0.353   2.434
93583SOL     OW82587   4.288  11.382   8.245
93583SOL    HW182588   4.371  11.338   8.228
93583SOL    HW282589   4.277  11.376   8.340
93584SOL     OW82590   1.257  11.088   6.881
93584SOL    HW182591   1.264  11.109   6.788
93584SOL    HW282592   1.325  11.023   6.896
93585SOL     OW82593   6.380   1.702   2.679
93585SOL    HW182594   6.429   1.749   2.747
93585SOL    HW282595   6.300   1.752   2.668
93586SOL     OW82596   9.584   7.224  12.859
93586SOL    HW182597   9.645   7.151  12.873
93586SOL    HW282598   9.532   7.226  12.939
93587SOL     OW82599   7.574   6.096  11.901
93587SOL    HW182600   7.623   6.159  11.848
93587SOL    HW282601   7.613   6.011  11.881
93588SOL     OW82602   8.033   9.850   3.447
93588SOL    HW182603   8.083   9.770   3.428
93588SOL    HW282604   7.942   9.823   3.438
93589SOL     OW82605   7.629   0.043   2.551
93589SOL    HW182606   7.565  14.868   2.597
93589SOL    HW282607   7.585   0.126   2.536
93590SOL     OW82608   8.596   0.767  14.431
93590SOL    HW182609   8.653   0.836  14.463
93590SOL    HW282610   8.516   0.776  14.483
93591SOL     OW82611  10.524   4.132   2.688
93591SOL    HW182612  10.513   4.078   2.610
93591SOL    HW282613  10.616   4.157   2.687
93592SOL     OW82614  11.007   9.010  13.195
93592SOL    HW182615  11.008   9.002  13.290
93592SOL    HW282616  10.919   9.039  13.174
93593SOL     OW82617   8.087   2.127   7.279
93593SOL    HW182618   8.162   2.118   7.220
93593SOL    HW282619   8.102   2.211   7.324
93594SOL     OW82620  12.992  11.809   3.959
93594SOL    HW182621  12.920  11.864   3.927
93594SOL    HW282622  12.960  11.720   3.947
93595SOL     OW82623  13.388   9.718  13.135
93595SOL    HW182624  13.387   9.645  13.074
93595SOL    HW282625  13.480   9.740  13.145
93596SOL     OW82626  12.410   2.864   7.608
93596SOL    HW182627  12.405   2.775   7.574
93596SOL    HW282628  12.476   2.908   7.555
93597SOL     OW82629   6.791   5.846   5.290
93597SOL    HW182630   6.802   5.783   5.361
93597SOL    HW282631   6.707   5.889   5.308
93598SOL     OW82632   9.406   6.615  14.824
93598SOL    HW182633   9.415   6.596  14.731
93598SOL    HW282634   9.492   6.597  14.861
93599SOL     OW82635   4.886   1.279   9.905
93599SOL    HW182636   4.801   1.286   9.861
93599SOL    HW282637   4.872   1.211   9.971
93600SOL     OW82638   2.268   3.365   9.621
93600SOL    HW182639   2.348   3.313   9.623
93600SOL    HW282640   2.239   3.360   9.530
93601SOL     OW82641  13.009   1.051  13.830
93601SOL    HW182642  12.918   1.057  13.860
93601SOL    HW282643  13.008   0.983  13.763
93602SOL     OW82644   3.422  13.426   7.377
93602SOL    HW182645   3.370  13.492   7.422
93602SOL    HW282646   3.368  13.398   7.303
93603SOL     OW82647   4.606   0.829   7.872
93603SOL    HW182648   4.666   0.755   7.864
93603SOL    HW282649   4.660   0.906   7.854
93604SOL     OW82650   4.595   0.546   6.636
93604SOL    HW182651   4.572   0.625   6.587
93604SOL    HW282652   4.632   0.579   6.718
93605SOL     OW82653  13.468   3.535   0.962
93605SOL    HW182654  13.514   3.460   1.000
93605SOL    HW282655  13.511   3.611   1.001
93606SOL     OW82656  10.804   1.205   1.043
93606SOL    HW182657  10.897   1.183   1.039
93606SOL    HW282658  10.800   1.277   1.106
93607SOL     OW82659   9.700   5.924   3.745
93607SOL    HW182660   9.619   5.953   3.704
93607SOL    HW282661   9.753   6.003   3.752
93608SOL     OW82662   3.678   9.900   7.241
93608SOL    HW182663   3.764   9.870   7.212
93608SOL    HW282664   3.650   9.962   7.173
93609SOL     OW82665   0.511   7.663   7.483
93609SOL    HW182666   0.434   7.624   7.441
93609SOL    HW282667   0.503   7.638   7.575
93610SOL     OW82668  10.150   1.700   5.757
93610SOL    HW182669  10.059   1.683   5.731
93610SOL    HW282670  10.143   1.752   5.837
93611SOL     OW82671   5.571   1.423   9.578
93611SOL    HW182672   5.540   1.352   9.521
93611SOL    HW282673   5.662   1.437   9.551
93612SOL     OW82674   4.843  14.053   2.871
93612SOL    HW182675   4.759  14.057   2.916
93612SOL    HW282676   4.896  13.993   2.923
93613SOL     OW82677   6.463  11.267   0.865
93613SOL    HW182678   6.551  11.295   0.892
93613SOL    HW282679   6.404  11.330   0.906
93614SOL     OW82680   2.474   7.414   7.459
93614SOL    HW182681   2.416   7.349   7.498
93614SOL    HW282682   2.531   7.442   7.531
93615SOL     OW82683   0.692   8.092   6.566
93615SOL    HW182684   0.620   8.070   6.625
93615SOL    HW282685   0.753   8.018   6.574
93616SOL     OW82686   0.166   1.467   8.936
93616SOL    HW182687   0.259   1.486   8.925
93616SOL    HW282688   0.122   1.517   8.868
93617SOL     OW82689   6.605   4.305  11.954
93617SOL    HW182690   6.686   4.353  11.972
93617SOL    HW282691   6.626   4.249  11.880
93618SOL     OW82692   6.543   6.439   0.849
93618SOL    HW182693   6.520   6.390   0.770
93618SOL    HW282694   6.621   6.488   0.825
93619SOL     OW82695   2.177   8.326  12.504
93619SOL    HW182696   2.238   8.311  12.576
93619SOL    HW282697   2.116   8.392  12.537
93620SOL     OW82698   0.507   7.565   8.856
93620SOL    HW182699   0.427   7.542   8.904
93620SOL    HW282700   0.537   7.482   8.818
93621SOL     OW82701   6.427   9.613   2.016
93621SOL    HW182702   6.489   9.582   2.082
93621SOL    HW282703   6.362   9.542   2.009
93622SOL     OW82704   2.122   5.133   8.252
93622SOL    HW182705   2.146   5.225   8.261
93622SOL    HW282706   2.155   5.107   8.165
93623SOL     OW82707   6.208   2.873   7.372
93623SOL    HW182708   6.276   2.815   7.406
93623SOL    HW282709   6.150   2.887   7.448
93624SOL     OW82710  10.536   5.524   6.986
93624SOL    HW182711  10.523   5.483   6.901
93624SOL    HW282712  10.570   5.611   6.965
93625SOL     OW82713   2.431   0.371   6.606
93625SOL    HW182714   2.522   0.395   6.620
93625SOL    HW282715   2.387   0.396   6.687
93626SOL     OW82716  13.323   5.250  12.185
93626SOL    HW182717  13.344   5.273  12.095
93626SOL    HW282718  13.407   5.221  12.223
93627SOL     OW82719   2.219  10.397  12.023
93627SOL    HW182720   2.247  10.419  12.112
93627SOL    HW282721   2.140  10.449  12.009
93628SOL     OW82722   3.148   0.811   6.411
93628SOL    HW182723   3.231   0.801   6.459
93628SOL    HW282724   3.171   0.866   6.336
93629SOL     OW82725   9.732   9.202   7.410
93629SOL    HW182726   9.720   9.248   7.327
93629SOL    HW282727   9.645   9.169   7.431
93630SOL     OW82728   1.225   9.983   9.944
93630SOL    HW182729   1.159   9.999  10.011
93630SOL    HW282730   1.300   9.947   9.991
93631SOL     OW82731   9.477   1.599   7.910
93631SOL    HW182732   9.560   1.594   7.864
93631SOL    HW282733   9.463   1.511   7.945
93632SOL     OW82734   9.311  11.391   4.086
93632SOL    HW182735   9.336  11.330   4.017
93632SOL    HW282736   9.264  11.461   4.040
93633SOL     OW82737  14.596   4.031   6.496
93633SOL    HW182738  14.597   3.940   6.464
93633SOL    HW282739  14.565   4.082   6.421
93634SOL     OW82740  10.042   3.483   9.230
93634SOL    HW182741   9.964   3.454   9.183
93634SOL    HW282742  10.084   3.545   9.170
93635SOL     OW82743   9.875   4.639   2.485
93635SOL    HW182744   9.831   4.720   2.461
93635SOL    HW282745   9.815   4.597   2.547
93636SOL     OW82746   9.156   2.997   3.945
93636SOL    HW182747   9.101   2.934   3.898
93636SOL    HW282748   9.208   3.040   3.877
93637SOL     OW82749  11.167   0.088  14.044
93637SOL    HW182750  11.145   0.134  14.125
93637SOL    HW282751  11.185  14.877  14.072
93638SOL     OW82752  13.780   0.428  13.024
93638SOL    HW182753  13.819   0.343  13.002
93638SOL    HW282754  13.692   0.423  12.985
93639SOL     OW82755   3.707   6.127   6.949
93639SOL    HW182756   3.731   6.219   6.961
93639SOL    HW282757   3.723   6.086   7.034
93640SOL     OW82758  14.318  14.848   7.468
93640SOL    HW182759  14.311  14.754   7.485
93640SOL    HW282760  14.289   0.010   7.550
93641SOL     OW82761  11.194   0.684  13.698
93641SOL    HW182762  11.203   0.683  13.793
93641SOL    HW282763  11.109   0.726  13.682
93642SOL     OW82764  12.237  13.039   9.184
93642SOL    HW182765  12.301  12.968   9.176
93642SOL    HW282766  12.259  13.081   9.268
93643SOL     OW82767   2.142   0.305   1.827
93643SOL    HW182768   2.192   0.371   1.877
93643SOL    HW282769   2.079   0.356   1.777
93644SOL     OW82770  11.790   4.727   8.415
93644SOL    HW182771  11.774   4.773   8.333
93644SOL    HW282772  11.775   4.794   8.483
93645SOL     OW82773   4.944   7.405  13.870
93645SOL    HW182774   4.854   7.405  13.904
93645SOL    HW282775   4.934   7.388  13.776
93646SOL     OW82776  11.830   1.286   6.224
93646SOL    HW182777  11.851   1.369   6.181
93646SOL    HW282778  11.897   1.225   6.192
93647SOL     OW82779   9.746  12.312   8.076
93647SOL    HW182780   9.660  12.276   8.098
93647SOL    HW282781   9.741  12.332   7.982
93648SOL     OW82782   6.468   4.919   4.420
93648SOL    HW182783   6.508   4.979   4.357
93648SOL    HW282784   6.540   4.864   4.450
93649SOL     OW82785   5.921   1.294   8.659
93649SOL    HW182786   5.890   1.254   8.578
93649SOL    HW282787   5.989   1.356   8.631
93650SOL     OW82788   7.026   2.370  13.511
93650SOL    HW182789   6.971   2.294  13.531
93650SOL    HW282790   7.114   2.335  13.505
93651SOL     OW82791   6.429   4.573  12.176
93651SOL    HW182792   6.386   4.490  12.155
93651SOL    HW282793   6.480   4.594  12.098
93652SOL     OW82794   9.541   0.984   4.199
93652SOL    HW182795   9.618   0.987   4.143
93652SOL    HW282796   9.569   0.935   4.277
93653SOL     OW82797   2.274   8.051   7.420
93653SOL    HW182798   2.307   7.978   7.368
93653SOL    HW282799   2.345   8.072   7.480
93654SOL     OW82800  11.054  11.350   8.579
93654SOL    HW182801  11.019  11.340   8.668
93654SOL    HW282802  11.010  11.428   8.545
93655SOL     OW82803  12.540   1.665   8.712
93655SOL    HW182804  12.465   1.722   8.695
93655SOL    HW282805  12.610   1.700   8.656
93656SOL     OW82806   4.475  13.263   8.117
93656SOL    HW182807   4.559  13.243   8.158
93656SOL    HW282808   4.445  13.179   8.082
93657SOL     OW82809  11.403   0.125  14.245
93657SOL    HW182810  11.482   0.176  14.264
93657SOL    HW282811  11.388   0.138  14.152
93658SOL     OW82812   2.326   9.656   0.139
93658SOL    HW182813   2.367   9.603   0.070
93658SOL    HW282814   2.320   9.744   0.101
93659SOL     OW82815  12.681   7.123  12.656
93659SOL    HW182816  12.673   7.218  12.655
93659SOL    HW282817  12.717   7.103  12.743
93660SOL     OW82818   5.804   9.523   4.174
93660SOL    HW182819   5.719   9.533   4.215
93660SOL    HW282820   5.864   9.503   4.247
93661SOL     OW82821   8.274   8.929   3.365
93661SOL    HW182822   8.299   8.880   3.444
93661SOL    HW282823   8.265   9.019   3.395
93662SOL     OW82824   2.973  13.099   7.704
93662SOL    HW182825   3.054  13.061   7.738
93662SOL    HW282826   2.904  13.038   7.731
93663SOL     OW82827   2.630   7.309  12.713
93663SOL    HW182828   2.543   7.286  12.678
93663SOL    HW282829   2.654   7.389  12.666
93664SOL     OW82830   6.421   1.145   7.202
93664SOL    HW182831   6.357   1.099   7.149
93664SOL    HW282832   6.382   1.148   7.290
93665SOL     OW82833  10.924  11.693   9.552
93665SOL    HW182834  11.011  11.656   9.540
93665SOL    HW282835  10.919  11.764   9.488
93666SOL     OW82836   7.839   6.005   8.207
93666SOL    HW182837   7.880   5.928   8.245
93666SOL    HW282838   7.745   5.990   8.219
93667SOL     OW82839  13.471   1.397   6.125
93667SOL    HW182840  13.545   1.336   6.119
93667SOL    HW282841  13.393   1.341   6.117
93668SOL     OW82842   2.368   7.948   3.161
93668SOL    HW182843   2.283   7.987   3.183
93668SOL    HW282844   2.432   8.014   3.189
93669SOL     OW82845  14.476  13.394   9.794
93669SOL    HW182846  14.427  13.463   9.750
93669SOL    HW282847  14.413  13.323   9.807
93670SOL     OW82848   8.051  12.845   3.257
93670SOL    HW182849   7.962  12.814   3.274
93670SOL    HW282850   8.042  12.939   3.243
93671SOL     OW82851  11.909   3.548   4.521
93671SOL    HW182852  11.822   3.537   4.560
93671SOL    HW282853  11.934   3.638   4.541
93672SOL     OW82854   6.618  11.556   3.094
93672SOL    HW182855   6.550  11.504   3.136
93672SOL    HW282856   6.589  11.646   3.102
93673SOL     OW82857  10.522  11.701   6.632
93673SOL    HW182858  10.502  11.613   6.662
93673SOL    HW282859  10.601  11.691   6.578
93674SOL     OW82860  11.080  11.082  14.008
93674SOL    HW182861  11.003  11.129  13.977
93674SOL    HW282862  11.050  10.991  14.016
93675SOL     OW82863   4.139   9.552  14.587
93675SOL    HW182864   4.101   9.640  14.584
93675SOL    HW282865   4.217   9.558  14.532
93676SOL     OW82866   7.197   9.906   3.750
93676SOL    HW182867   7.273   9.852   3.728
93676SOL    HW282868   7.232   9.993   3.765
93677SOL     OW82869   6.214  13.720   8.374
93677SOL    HW182870   6.255  13.772   8.306
93677SOL    HW282871   6.124  13.707   8.344
93678SOL     OW82872  10.273  11.675   8.109
93678SOL    HW182873  10.251  11.762   8.143
93678SOL    HW282874  10.298  11.691   8.018
93679SOL     OW82875  12.759  10.632   3.887
93679SOL    HW182876  12.851  10.638   3.860
93679SOL    HW282877  12.739  10.719   3.922
93680SOL     OW82878   1.365  14.107   0.354
93680SOL    HW182879   1.420  14.049   0.301
93680SOL    HW282880   1.374  14.193   0.312
93681SOL     OW82881  13.255  12.137   0.246
93681SOL    HW182882  13.194  12.077   0.290
93681SOL    HW282883  13.203  12.214   0.224
93682SOL     OW82884   8.240   3.016  14.578
93682SOL    HW182885   8.208   3.016  14.488
93682SOL    HW282886   8.196   2.941  14.619
93683SOL     OW82887  13.715   9.849   1.279
93683SOL    HW182888  13.748   9.888   1.360
93683SOL    HW282889  13.785   9.791   1.249
93684SOL     OW82890   0.187  11.291   8.014
93684SOL    HW182891   0.222  11.202   8.019
93684SOL    HW282892   0.133  11.300   8.092
93685SOL     OW82893   4.077  12.154   6.132
93685SOL    HW182894   4.080  12.059   6.121
93685SOL    HW282895   3.984  12.173   6.146
93686SOL     OW82896  10.354   1.491  13.023
93686SOL    HW182897  10.413   1.562  12.999
93686SOL    HW282898  10.386   1.461  13.108
93687SOL     OW82899  12.936   5.375  12.559
93687SOL    HW182900  12.928   5.368  12.464
93687SOL    HW282901  12.865   5.434  12.585
93688SOL     OW82902   5.680   5.424  11.877
93688SOL    HW182903   5.667   5.516  11.897
93688SOL    HW282904   5.592   5.386  11.878
93689SOL     OW82905   1.824  11.458   3.616
93689SOL    HW182906   1.900  11.490   3.665
93689SOL    HW282907   1.813  11.521   3.545
93690SOL     OW82908  13.707   3.947   2.928
93690SOL    HW182909  13.622   3.913   2.901
93690SOL    HW282910  13.744   3.878   2.984
93691SOL     OW82911   1.282  14.553   0.092
93691SOL    HW182912   1.205  14.544   0.148
93691SOL    HW282913   1.274  14.639   0.053
93692SOL     OW82914   0.496   3.867   2.437
93692SOL    HW182915   0.433   3.812   2.484
93692SOL    HW282916   0.563   3.806   2.406
93693SOL     OW82917  11.011   4.155   5.561
93693SOL    HW182918  11.008   4.250   5.551
93693SOL    HW282919  11.035   4.142   5.653
93694SOL     OW82920   7.049   4.039  10.610
93694SOL    HW182921   7.028   4.102  10.678
93694SOL    HW282922   7.049   3.954  10.654
93695SOL     OW82923   1.264   6.169   2.494
93695SOL    HW182924   1.287   6.200   2.406
93695SOL    HW282925   1.329   6.102   2.513
93696SOL     OW82926   2.471   4.314   0.751
93696SOL    HW182927   2.421   4.307   0.670
93696SOL    HW282928   2.443   4.239   0.803
93697SOL     OW82929   9.326   0.960   5.721
93697SOL    HW182930   9.414   0.995   5.736
93697SOL    HW282931   9.327   0.874   5.763
93698SOL     OW82932   2.810  13.811  14.658
93698SOL    HW182933   2.869  13.736  14.667
93698SOL    HW282934   2.763  13.795  14.577
93699SOL     OW82935   9.753   9.671   1.314
93699SOL    HW182936   9.771   9.581   1.341
93699SOL    HW282937   9.755   9.667   1.218
93700SOL     OW82938  11.562   4.580  10.693
93700SOL    HW182939  11.646   4.617  10.663
93700SOL    HW282940  11.524   4.648  10.748
93701SOL     OW82941   3.211   3.676   7.418
93701SOL    HW182942   3.244   3.675   7.508
93701SOL    HW282943   3.116   3.671   7.426
93702SOL     OW82944   0.267   5.606  11.421
93702SOL    HW182945   0.193   5.580  11.477
93702SOL    HW282946   0.244   5.571  11.335
93703SOL     OW82947  10.720   7.705  10.935
93703SOL    HW182948  10.809   7.672  10.947
93703SOL    HW282949  10.664   7.627  10.938
93704SOL     OW82950  10.349  12.713  12.746
93704SOL    HW182951  10.411  12.725  12.819
93704SOL    HW282952  10.270  12.678  12.787
93705SOL     OW82953  14.429   8.743   0.970
93705SOL    HW182954  14.401   8.725   1.060
93705SOL    HW282955  14.348   8.760   0.923
93706SOL     OW82956  12.213   4.036  10.006
93706SOL    HW182957  12.234   4.126   9.979
93706SOL    HW282958  12.143   4.046  10.071
93707SOL     OW82959   6.721   5.763   9.776
93707SOL    HW182960   6.705   5.847   9.820
93707SOL    HW282961   6.814   5.765   9.755
93708SOL     OW82962  11.323  13.476   4.839
93708SOL    HW182963  11.381  13.409   4.876
93708SOL    HW282964  11.383  13.546   4.810
93709SOL     OW82965   7.951  11.348  11.051
93709SOL    HW182966   7.873  11.367  10.999
93709SOL    HW282967   7.968  11.428  11.100
93710SOL     OW82968  11.066   0.360  10.290
93710SOL    HW182969  11.126   0.315  10.230
93710SOL    HW282970  11.047   0.443  10.247
93711SOL     OW82971  14.170   9.580   7.085
93711SOL    HW182972  14.108   9.630   7.033
93711SOL    HW282973  14.253   9.586   7.037
93712SOL     OW82974   1.109   5.463   1.210
93712SOL    HW182975   1.013   5.472   1.209
93712SOL    HW282976   1.124   5.372   1.236
93713SOL     OW82977   6.234  11.623   0.741
93713SOL    HW182978   6.310  11.590   0.694
93713SOL    HW282979   6.186  11.675   0.677
93714SOL     OW82980  13.875   8.030  14.023
93714SOL    HW182981  13.917   7.951  13.987
93714SOL    HW282982  13.820   8.062  13.952
93715SOL     OW82983   2.137   2.528   8.139
93715SOL    HW182984   2.152   2.482   8.221
93715SOL    HW282985   2.106   2.615   8.165
93716SOL     OW82986  11.024  13.960  11.890
93716SOL    HW182987  11.053  13.869  11.883
93716SOL    HW282988  11.011  13.973  11.984
93717SOL     OW82989   8.093   1.453   8.294
93717SOL    HW182990   8.085   1.517   8.223
93717SOL    HW282991   8.137   1.378   8.253
93718SOL     OW82992   1.055   1.566   0.650
93718SOL    HW182993   1.082   1.497   0.711
93718SOL    HW282994   0.979   1.606   0.693
93719SOL     OW82995   3.291  10.033   2.239
93719SOL    HW182996   3.264  10.101   2.300
93719SOL    HW282997   3.374  10.001   2.273
93720SOL     OW82998   7.836   5.062  12.422
93720SOL    HW182999   7.891   5.032  12.494
93720SOL    HW283000   7.893   5.116  12.368
93721SOL     OW83001  11.717   0.632   6.964
93721SOL    HW183002  11.764   0.643   7.047
93721SOL    HW283003  11.775   0.669   6.898
93722SOL     OW83004  14.667   9.633  13.384
93722SOL    HW183005  14.716   9.652  13.304
93722SOL    HW283006  14.685   9.541  13.402
93723SOL     OW83007   1.196   5.423   9.562
93723SOL    HW183008   1.151   5.339   9.553
93723SOL    HW283009   1.127   5.486   9.583
93724SOL     OW83010  12.732  10.745   5.662
93724SOL    HW183011  12.767  10.656   5.663
93724SOL    HW283012  12.805  10.800   5.633
93725SOL     OW83013  11.618   5.082   9.646
93725SOL    HW183014  11.712   5.090   9.663
93725SOL    HW283015  11.593   5.168   9.613
93726SOL     OW83016   0.654  11.966  14.122
93726SOL    HW183017   0.650  11.953  14.217
93726SOL    HW283018   0.626  11.882  14.085
93727SOL     OW83019   6.710  11.111   5.670
93727SOL    HW183020   6.783  11.049   5.657
93727SOL    HW283021   6.702  11.118   5.765
93728SOL     OW83022   4.725   3.678   5.286
93728SOL    HW183023   4.820   3.679   5.277
93728SOL    HW283024   4.709   3.625   5.364
93729SOL     OW83025  13.635  10.921  12.497
93729SOL    HW183026  13.726  10.913  12.467
93729SOL    HW283027  13.637  10.993  12.561
93730SOL     OW83028   5.347   2.016   7.969
93730SOL    HW183029   5.280   1.949   7.983
93730SOL    HW283030   5.357   2.058   8.054
93731SOL     OW83031   1.831   6.880   0.720
93731SOL    HW183032   1.755   6.865   0.663
93731SOL    HW283033   1.818   6.820   0.793
93732SOL     OW83034  13.182  11.415  11.582
93732SOL    HW183035  13.176  11.364  11.663
93732SOL    HW283036  13.250  11.480  11.600
93733SOL     OW83037  13.099   1.971  14.261
93733SOL    HW183038  13.052   2.001  14.184
93733SOL    HW283039  13.148   1.895  14.231
93734SOL     OW83040   5.647  14.187   2.743
93734SOL    HW183041   5.683  14.222   2.825
93734SOL    HW283042   5.552  14.194   2.753
93735SOL     OW83043   7.006   2.441   7.780
93735SOL    HW183044   7.042   2.474   7.862
93735SOL    HW283045   6.924   2.399   7.804
93736SOL     OW83046   8.517   7.611   8.963
93736SOL    HW183047   8.592   7.554   8.977
93736SOL    HW283048   8.454   7.585   9.030
93737SOL     OW83049  14.656  12.841   5.272
93737SOL    HW183050  14.721  12.792   5.223
93737SOL    HW283051  14.608  12.774   5.321
93738SOL     OW83052   1.142  13.528   5.367
93738SOL    HW183053   1.077  13.563   5.427
93738SOL    HW283054   1.134  13.581   5.288
93739SOL     OW83055  14.298  14.099   4.954
93739SOL    HW183056  14.334  14.021   4.912
93739SOL    HW283057  14.203  14.092   4.940
93740SOL     OW83058   1.745  14.271   3.966
93740SOL    HW183059   1.818  14.229   3.920
93740SOL    HW283060   1.782  14.352   4.001
93741SOL     OW83061   8.195  13.748   9.176
93741SOL    HW183062   8.154  13.702   9.249
93741SOL    HW283063   8.284  13.768   9.208
93742SOL     OW83064  14.709   6.757  12.415
93742SOL    HW183065  14.798   6.753  12.383
93742SOL    HW283066  14.681   6.666  12.420
93743SOL     OW83067   5.572  10.138   3.767
93743SOL    HW183068   5.626  10.196   3.819
93743SOL    HW283069   5.518  10.196   3.713
93744SOL     OW83070   6.637  13.224  10.104
93744SOL    HW183071   6.699  13.155  10.129
93744SOL    HW283072   6.687  13.305  10.113
93745SOL     OW83073   3.543   3.219   7.281
93745SOL    HW183074   3.545   3.279   7.206
93745SOL    HW283075   3.507   3.138   7.246
93746SOL     OW83076   6.528   4.460   5.871
93746SOL    HW183077   6.496   4.543   5.835
93746SOL    HW283078   6.533   4.401   5.796
93747SOL     OW83079  11.288   0.470  14.064
93747SOL    HW183080  11.199   0.437  14.081
93747SOL    HW283081  11.275   0.560  14.037
93748SOL     OW83082   3.382  13.331   9.250
93748SOL    HW183083   3.290  13.304   9.255
93748SOL    HW283084   3.379  13.416   9.206
93749SOL     OW83085   7.630   3.276  14.799
93749SOL    HW183086   7.650   3.208  14.735
93749SOL    HW283087   7.715   3.311  14.825
93750SOL     OW83088   7.962   0.488   8.415
93750SOL    HW183089   7.884   0.531   8.380
93750SOL    HW283090   7.948   0.485   8.509
93751SOL     OW83091   0.218  13.550   2.949
93751SOL    HW183092   0.261  13.467   2.970
93751SOL    HW283093   0.213  13.596   3.033
93752SOL     OW83094  13.175   2.629   4.338
93752SOL    HW183095  13.135   2.585   4.413
93752SOL    HW283096  13.198   2.716   4.371
93753SOL     OW83097   4.436  14.715   5.063
93753SOL    HW183098   4.486  14.706   5.144
93753SOL    HW283099   4.372  14.645   5.066
93754SOL     OW83100   1.110  13.648   1.503
93754SOL    HW183101   1.112  13.693   1.588
93754SOL    HW283102   1.075  13.713   1.442
93755SOL     OW83103  11.594   8.459  12.937
93755SOL    HW183104  11.501   8.468  12.954
93755SOL    HW283105  11.636   8.485  13.019
93756SOL     OW83106   7.505  12.976   8.465
93756SOL    HW183107   7.565  12.946   8.397
93756SOL    HW283108   7.449  13.040   8.421
93757SOL     OW83109   4.856   4.131   9.961
93757SOL    HW183110   4.891   4.045   9.940
93757SOL    HW283111   4.829   4.124  10.053
93758SOL     OW83112   7.996  13.519   6.134
93758SOL    HW183113   7.917  13.529   6.188
93758SOL    HW283114   7.965  13.527   6.044
93759SOL     OW83115  11.416  12.477   0.726
93759SOL    HW183116  11.501  12.510   0.698
93759SOL    HW283117  11.364  12.471   0.646
93760SOL     OW83118  14.430  14.032   3.752
93760SOL    HW183119  14.455  14.120   3.781
93760SOL    HW283120  14.334  14.034   3.754
93761SOL     OW83121  13.209   4.232   1.448
93761SOL    HW183122  13.123   4.260   1.477
93761SOL    HW283123  13.207   4.137   1.453
93762SOL     OW83124  12.122  12.740   5.451
93762SOL    HW183125  12.207  12.752   5.408
93762SOL    HW283126  12.064  12.802   5.407
93763SOL     OW83127   1.193  12.210  10.039
93763SOL    HW183128   1.182  12.139   9.976
93763SOL    HW283129   1.233  12.281   9.989
93764SOL     OW83130   1.705  13.468   6.882
93764SOL    HW183131   1.640  13.521   6.930
93764SOL    HW283132   1.653  13.402   6.837
93765SOL     OW83133   0.882  11.633   6.067
93765SOL    HW183134   0.843  11.686   5.999
93765SOL    HW283135   0.974  11.659   6.069
93766SOL     OW83136  13.224  10.650   2.478
93766SOL    HW183137  13.156  10.603   2.431
93766SOL    HW283138  13.180  10.727   2.515
93767SOL     OW83139   9.698   2.105   5.214
93767SOL    HW183140   9.719   2.186   5.167
93767SOL    HW283141   9.650   2.135   5.291
93768SOL     OW83142   8.743   1.539   7.349
93768SOL    HW183143   8.758   1.455   7.307
93768SOL    HW283144   8.648   1.552   7.344
93769SOL     OW83145   6.857  11.591  12.756
93769SOL    HW183146   6.929  11.614  12.697
93769SOL    HW283147   6.886  11.619  12.842
93770SOL     OW83148   4.636   9.334   8.394
93770SOL    HW183149   4.672   9.281   8.323
93770SOL    HW283150   4.561   9.378   8.355
93771SOL     OW83151   0.968   6.850   7.631
93771SOL    HW183152   0.981   6.912   7.560
93771SOL    HW283153   1.053   6.808   7.642
93772SOL     OW83154   8.022   6.749   8.176
93772SOL    HW183155   8.086   6.743   8.104
93772SOL    HW283156   7.981   6.663   8.179
93773SOL     OW83157   2.748   4.015   3.759
93773SOL    HW183158   2.655   4.033   3.770
93773SOL    HW283159   2.781   4.004   3.849
93774SOL     OW83160   0.054   8.309   1.193
93774SOL    HW183161   0.117   8.346   1.131
93774SOL    HW283162   0.097   8.229   1.226
93775SOL     OW83163   3.621  11.093  11.614
93775SOL    HW183164   3.537  11.124  11.649
93775SOL    HW283165   3.609  10.999  11.604
93776SOL     OW83166   0.507   7.653  11.207
93776SOL    HW183167   0.427   7.605  11.227
93776SOL    HW283168   0.487   7.702  11.127
93777SOL     OW83169   9.788   3.474   4.957
93777SOL    HW183170   9.788   3.476   5.053
93777SOL    HW283171   9.850   3.405   4.934
93778SOL     OW83172   2.312   2.585  13.016
93778SOL    HW183173   2.219   2.589  12.997
93778SOL    HW283174   2.318   2.593  13.111
93779SOL     OW83175   9.022   5.192   1.598
93779SOL    HW183176   8.930   5.166   1.609
93779SOL    HW283177   9.068   5.109   1.586
93780SOL     OW83178  13.612   8.022   2.201
93780SOL    HW183179  13.544   8.061   2.255
93780SOL    HW283180  13.584   7.931   2.188
93781SOL     OW83181   5.744  13.921   9.715
93781SOL    HW183182   5.667  13.886   9.670
93781SOL    HW283183   5.772  13.995   9.661
93782SOL     OW83184   6.336  13.420  14.247
93782SOL    HW183185   6.335  13.481  14.174
93782SOL    HW283186   6.257  13.367  14.236
93783SOL     OW83187   7.940  13.571  14.404
93783SOL    HW183188   7.906  13.615  14.482
93783SOL    HW283189   8.024  13.614  14.387
93784SOL     OW83190   2.193   8.258   2.574
93784SOL    HW183191   2.285   8.255   2.600
93784SOL    HW283192   2.189   8.329   2.510
93785SOL     OW83193   9.677  14.506  11.218
93785SOL    HW183194   9.703  14.417  11.242
93785SOL    HW283195   9.640  14.542  11.299
93786SOL     OW83196   7.554   5.619   7.660
93786SOL    HW183197   7.471   5.596   7.619
93786SOL    HW283198   7.618   5.618   7.588
93787SOL     OW83199  13.441  14.333  12.874
93787SOL    HW183200  13.449  14.270  12.945
93787SOL    HW283201  13.385  14.402  12.909
93788SOL     OW83202   4.162   1.451   7.080
93788SOL    HW183203   4.123   1.431   7.164
93788SOL    HW283204   4.254   1.422   7.088
93789SOL     OW83205   8.609  10.181   1.082
93789SOL    HW183206   8.703  10.166   1.091
93789SOL    HW283207   8.580  10.203   1.170
93790SOL     OW83208   2.539   2.586   7.333
93790SOL    HW183209   2.447   2.572   7.312
93790SOL    HW283210   2.541   2.594   7.429
93791SOL     OW83211  14.026  13.431   2.182
93791SOL    HW183212  14.023  13.364   2.114
93791SOL    HW283213  14.045  13.512   2.135
93792SOL     OW83214  13.794   3.585  13.875
93792SOL    HW183215  13.866   3.573  13.814
93792SOL    HW283216  13.813   3.525  13.947
93793SOL     OW83217   4.420   8.237   1.652
93793SOL    HW183218   4.346   8.190   1.691
93793SOL    HW283219   4.403   8.329   1.671
93794SOL     OW83220   9.202   2.069   4.401
93794SOL    HW183221   9.170   2.067   4.310
93794SOL    HW283222   9.256   2.148   4.406
93795SOL     OW83223   8.214   6.491   9.338
93795SOL    HW183224   8.258   6.490   9.423
93795SOL    HW283225   8.278   6.530   9.279
93796SOL     OW83226   9.786   3.699   3.440
93796SOL    HW183227   9.758   3.610   3.421
93796SOL    HW283228   9.862   3.713   3.383
93797SOL     OW83229   2.217  10.128  12.655
93797SOL    HW183230   2.199  10.214  12.616
93797SOL    HW283231   2.212  10.144  12.750
93798SOL     OW83232   0.816   9.249   0.396
93798SOL    HW183233   0.860   9.245   0.481
93798SOL    HW283234   0.830   9.162   0.359
93799SOL     OW83235   9.243   6.788   9.135
93799SOL    HW183236   9.235   6.764   9.042
93799SOL    HW283237   9.323   6.745   9.163
93800SOL     OW83238   5.910  14.657   7.063
93800SOL    HW183239   5.818  14.638   7.078
93800SOL    HW283240   5.920  14.654   6.968
93801SOL     OW83241   4.686  12.453   6.185
93801SOL    HW183242   4.763  12.397   6.197
93801SOL    HW283243   4.632  12.436   6.263
93802SOL     OW83244   2.677   7.785   6.665
93802SOL    HW183245   2.705   7.768   6.575
93802SOL    HW283246   2.695   7.877   6.679
93803SOL     OW83247   7.385   7.552   4.257
93803SOL    HW183248   7.405   7.639   4.222
93803SOL    HW283249   7.317   7.568   4.323
93804SOL     OW83250  11.976  10.734   5.060
93804SOL    HW183251  12.055  10.788   5.052
93804SOL    HW283252  12.002  10.649   5.024
93805SOL     OW83253   1.206  10.124   0.301
93805SOL    HW183254   1.177  10.033   0.304
93805SOL    HW283255   1.206  10.152   0.392
93806SOL     OW83256   0.389  13.089   9.531
93806SOL    HW183257   0.422  13.178   9.522
93806SOL    HW283258   0.421  13.059   9.616
93807SOL     OW83259   2.600   0.755   1.678
93807SOL    HW183260   2.680   0.703   1.683
93807SOL    HW283261   2.596   0.784   1.587
93808SOL     OW83262   0.332   0.645   8.867
93808SOL    HW183263   0.322   0.562   8.913
93808SOL    HW283264   0.268   0.642   8.796
93809SOL     OW83265   7.612   3.072   3.344
93809SOL    HW183266   7.521   3.064   3.313
93809SOL    HW283267   7.664   3.065   3.264
93810SOL     OW83268   5.764   7.482  13.989
93810SOL    HW183269   5.733   7.519  13.907
93810SOL    HW283270   5.859   7.497  13.988
93811SOL     OW83271   2.531   3.200  14.042
93811SOL    HW183272   2.514   3.239  13.956
93811SOL    HW283273   2.478   3.253  14.103
93812SOL     OW83274   4.930  12.479   7.909
93812SOL    HW183275   4.891  12.535   7.976
93812SOL    HW283276   5.019  12.514   7.899
93813SOL     OW83277   2.252  12.315   9.046
93813SOL    HW183278   2.303  12.373   8.989
93813SOL    HW283279   2.287  12.227   9.028
93814SOL     OW83280  12.761  14.559   3.652
93814SOL    HW183281  12.795  14.632   3.600
93814SOL    HW283282  12.770  14.482   3.595
93815SOL     OW83283   5.013  12.760   1.337
93815SOL    HW183284   5.085  12.703   1.312
93815SOL    HW283285   5.055  12.834   1.380
93816SOL     OW83286   2.760  13.093   6.719
93816SOL    HW183287   2.712  13.137   6.789
93816SOL    HW283288   2.846  13.073   6.757
93817SOL     OW83289   4.639  10.904  14.585
93817SOL    HW183290   4.640  10.809  14.593
93817SOL    HW283291   4.633  10.936  14.675
93818SOL     OW83292  12.713  12.203   2.480
93818SOL    HW183293  12.651  12.274   2.462
93818SOL    HW283294  12.776  12.207   2.409
93819SOL     OW83295   1.068  10.410   1.314
93819SOL    HW183296   1.008  10.366   1.253
93819SOL    HW283297   1.138  10.347   1.329
93820SOL     OW83298  11.162  13.885   6.558
93820SOL    HW183299  11.118  13.961   6.518
93820SOL    HW283300  11.255  13.907   6.557
93821SOL     OW83301  14.875  10.341   9.211
93821SOL    HW183302  14.841  10.352   9.122
93821SOL    HW283303   0.078  10.389   9.212
93822SOL     OW83304   9.492   9.026   1.646
93822SOL    HW183305   9.494   9.120   1.631
93822SOL    HW283306   9.430   9.015   1.719
93823SOL     OW83307   9.862   9.750   4.536
93823SOL    HW183308   9.941   9.769   4.485
93823SOL    HW283309   9.796   9.725   4.470
93824SOL     OW83310  10.284   5.261   5.772
93824SOL    HW183311  10.355   5.202   5.796
93824SOL    HW283312  10.282   5.256   5.676
93825SOL     OW83313  11.719  10.189   9.095
93825SOL    HW183314  11.749  10.173   9.005
93825SOL    HW283315  11.689  10.103   9.125
93826SOL     OW83316  14.674   2.112  12.205
93826SOL    HW183317  14.735   2.165  12.257
93826SOL    HW283318  14.729   2.068  12.140
93827SOL     OW83319   6.468   6.963   5.261
93827SOL    HW183320   6.558   6.935   5.247
93827SOL    HW283321   6.423   6.941   5.180
93828SOL     OW83322   9.125   0.891   5.551
93828SOL    HW183323   9.125   0.954   5.478
93828SOL    HW283324   9.218   0.882   5.574
93829SOL     OW83325   3.275   4.674   9.562
93829SOL    HW183326   3.367   4.648   9.572
93829SOL    HW283327   3.269   4.710   9.473
93830SOL     OW83328   4.955   5.083   4.121
93830SOL    HW183329   5.044   5.049   4.130
93830SOL    HW283330   4.900   5.013   4.155
93831SOL     OW83331   1.902   9.686   4.830
93831SOL    HW183332   1.849   9.739   4.771
93831SOL    HW283333   1.895   9.597   4.796
93832SOL     OW83334   1.878   5.897   1.432
93832SOL    HW183335   1.786   5.889   1.407
93832SOL    HW283336   1.910   5.971   1.381
93833SOL     OW83337  12.015   7.846   1.835
93833SOL    HW183338  12.075   7.906   1.791
93833SOL    HW283339  11.933   7.856   1.788
93834SOL     OW83340  11.807   2.610  11.619
93834SOL    HW183341  11.799   2.517  11.597
93834SOL    HW283342  11.782   2.657  11.540
93835SOL     OW83343   8.049   5.202   0.416
93835SOL    HW183344   8.023   5.146   0.343
93835SOL    HW283345   8.127   5.160   0.452
93836SOL     OW83346  12.038  12.981   4.215
93836SOL    HW183347  11.954  12.957   4.176
93836SOL    HW283348  12.096  12.907   4.196
93837SOL     OW83349   8.787   8.399   8.564
93837SOL    HW183350   8.764   8.326   8.507
93837SOL    HW283351   8.807   8.471   8.504
93838SOL     OW83352  14.273   3.232   5.617
93838SOL    HW183353  14.357   3.212   5.575
93838SOL    HW283354  14.230   3.292   5.556
93839SOL     OW83355  10.235  11.082   8.096
93839SOL    HW183356  10.233  11.023   8.171
93839SOL    HW283357  10.148  11.122   8.095
93840SOL     OW83358  13.371   9.103   9.706
93840SOL    HW183359  13.413   9.074   9.625
93840SOL    HW283360  13.354   9.196   9.693
93841SOL     OW83361   3.008   3.426   4.607
93841SOL    HW183362   3.081   3.380   4.565
93841SOL    HW283363   2.940   3.429   4.541
93842SOL     OW83364   1.672   5.101   5.146
93842SOL    HW183365   1.662   5.008   5.126
93842SOL    HW283366   1.591   5.142   5.116
93843SOL     OW83367   6.055  13.279  14.709
93843SOL    HW183368   5.981  13.227  14.737
93843SOL    HW283369   6.114  13.281  14.785
93844SOL     OW83370  12.562  11.723   6.011
93844SOL    HW183371  12.652  11.721   6.043
93844SOL    HW283372  12.536  11.631   6.007
93845SOL     OW83373   5.164   6.922  10.220
93845SOL    HW183374   5.171   6.896  10.128
93845SOL    HW283375   5.123   7.009  10.218
93846SOL     OW83376   2.822   6.138  11.145
93846SOL    HW183377   2.788   6.227  11.132
93846SOL    HW283378   2.916   6.150  11.157
93847SOL     OW83379   0.812   7.122  12.012
93847SOL    HW183380   0.765   7.041  12.035
93847SOL    HW283381   0.901   7.108  12.044
93848SOL     OW83382   4.386   8.592  13.293
93848SOL    HW183383   4.321   8.656  13.262
93848SOL    HW283384   4.447   8.584  13.220
93849SOL     OW83385   7.212   2.277   8.065
93849SOL    HW183386   7.172   2.217   8.002
93849SOL    HW283387   7.180   2.364   8.039
93850SOL     OW83388   6.719   7.099  13.281
93850SOL    HW183389   6.794   7.120  13.226
93850SOL    HW283390   6.681   7.020  13.241
93851SOL     OW83391   1.638   3.433   9.151
93851SOL    HW183392   1.556   3.480   9.141
93851SOL    HW283393   1.635   3.398   9.240
93852SOL     OW83394  14.499   4.472   1.035
93852SOL    HW183395  14.488   4.504   1.124
93852SOL    HW283396  14.410   4.469   0.999
93853SOL     OW83397   3.327  12.137  11.836
93853SOL    HW183398   3.278  12.200  11.783
93853SOL    HW283399   3.319  12.055  11.789
93854SOL     OW83400   5.336   0.742  13.603
93854SOL    HW183401   5.386   0.717  13.682
93854SOL    HW283402   5.291   0.823  13.628
93855SOL     OW83403  14.203   2.860  11.365
93855SOL    HW183404  14.243   2.776  11.343
93855SOL    HW283405  14.191   2.903  11.280
93856SOL     OW83406   2.660   8.328   4.279
93856SOL    HW183407   2.640   8.371   4.362
93856SOL    HW283408   2.597   8.256   4.273
93857SOL     OW83409   6.211   6.366   0.894
93857SOL    HW183410   6.252   6.452   0.904
93857SOL    HW283411   6.272   6.317   0.839
93858SOL     OW83412   1.531   7.319   6.171
93858SOL    HW183413   1.513   7.237   6.126
93858SOL    HW283414   1.445   7.352   6.196
93859SOL     OW83415   3.704   5.108   6.244
93859SOL    HW183416   3.756   5.177   6.202
93859SOL    HW283417   3.745   5.097   6.330
93860SOL     OW83418   2.898   0.260   2.686
93860SOL    HW183419   2.907   0.348   2.723
93860SOL    HW283420   2.805   0.239   2.696
93861SOL     OW83421  10.629   0.080   0.310
93861SOL    HW183422  10.568   0.066   0.238
93861SOL    HW283423  10.685   0.152   0.279
93862SOL     OW83424   3.627   6.966  12.170
93862SOL    HW183425   3.678   6.950  12.090
93862SOL    HW283426   3.538   6.982  12.138
93863SOL     OW83427   7.314   7.392  13.049
93863SOL    HW183428   7.396   7.440  13.053
93863SOL    HW283429   7.314   7.352  12.962
93864SOL     OW83430   9.539  13.859  14.232
93864SOL    HW183431   9.585  13.932  14.190
93864SOL    HW283432   9.486  13.820  14.161
93865SOL     OW83433   2.531  14.314   0.702
93865SOL    HW183434   2.616  14.284   0.670
93865SOL    HW283435   2.484  14.341   0.623
93866SOL     OW83436   4.663   9.550  10.415
93866SOL    HW183437   4.579   9.589  10.393
93866SOL    HW283438   4.641   9.476  10.472
93867SOL     OW83439   3.737  10.458   3.035
93867SOL    HW183440   3.663  10.445   3.094
93867SOL    HW283441   3.808  10.408   3.075
93868SOL     OW83442  12.159  13.103  11.204
93868SOL    HW183443  12.220  13.039  11.167
93868SOL    HW283444  12.208  13.142  11.277
93869SOL     OW83445   5.626  11.677   1.637
93869SOL    HW183446   5.709  11.662   1.592
93869SOL    HW283447   5.628  11.617   1.711
93870SOL     OW83448   5.039  14.464  11.915
93870SOL    HW183449   5.104  14.534  11.919
93870SOL    HW283450   5.084  14.390  11.874
93871SOL     OW83451  12.622   1.024  14.789
93871SOL    HW183452  12.568   0.945  14.782
93871SOL    HW283453  12.687   1.014  14.719
93872SOL     OW83454   8.729   8.986   0.012
93872SOL    HW183455   8.638   9.016   0.012
93872SOL    HW283456   8.727   8.904   0.061
93873SOL     OW83457   7.488  10.816   3.366
93873SOL    HW183458   7.431  10.740   3.374
93873SOL    HW283459   7.573  10.786   3.399
93874SOL     OW83460   1.363   7.476  10.949
93874SOL    HW183461   1.304   7.510  11.017
93874SOL    HW283462   1.350   7.381  10.951
93875SOL     OW83463  13.960  13.273   5.321
93875SOL    HW183464  13.937  13.334   5.251
93875SOL    HW283465  13.878  13.232   5.346
93876SOL     OW83466   2.850   0.487  10.059
93876SOL    HW183467   2.882   0.577  10.055
93876SOL    HW283468   2.843   0.468  10.152
93877SOL     OW83469   2.890  14.255   7.167
93877SOL    HW183470   2.851  14.232   7.083
93877SOL    HW283471   2.860  14.345   7.183
93878SOL     OW83472   3.529  10.785   2.402
93878SOL    HW183473   3.622  10.777   2.424
93878SOL    HW283474   3.483  10.760   2.482
93879SOL     OW83475   5.798   0.479   2.706
93879SOL    HW183476   5.843   0.545   2.759
93879SOL    HW283477   5.862   0.454   2.640
93880SOL     OW83478   7.333  14.757  13.484
93880SOL    HW183479   7.323  14.766  13.389
93880SOL    HW283480   7.267  14.692  13.508
93881SOL     OW83481   3.341   3.359   8.620
93881SOL    HW183482   3.409   3.306   8.579
93881SOL    HW283483   3.351   3.343   8.714
93882SOL     OW83484   0.679   2.503  11.633
93882SOL    HW183485   0.667   2.411  11.610
93882SOL    HW283486   0.744   2.503  11.703
93883SOL     OW83487   3.872   0.477  11.830
93883SOL    HW183488   3.856   0.403  11.889
93883SOL    HW283489   3.792   0.529  11.835
93884SOL     OW83490  14.837   5.069   4.076
93884SOL    HW183491  14.806   5.154   4.107
93884SOL    HW283492   0.049   5.065   4.105
93885SOL     OW83493   7.479   1.352  13.531
93885SOL    HW183494   7.570   1.323  13.522
93885SOL    HW283495   7.477   1.401  13.613
93886SOL     OW83496   4.050   6.777  11.167
93886SOL    HW183497   4.000   6.822  11.235
93886SOL    HW283498   4.139   6.775  11.201
93887SOL     OW83499   9.589   7.682   9.436
93887SOL    HW183500   9.578   7.588   9.429
93887SOL    HW283501   9.681   7.695   9.460
93888SOL     OW83502   1.885   8.621   7.282
93888SOL    HW183503   1.793   8.610   7.261
93888SOL    HW283504   1.895   8.579   7.368
93889SOL     OW83505   2.881  14.249   6.704
93889SOL    HW183506   2.878  14.170   6.651
93889SOL    HW283507   2.974  14.272   6.707
93890SOL     OW83508   5.325   5.495   2.054
93890SOL    HW183509   5.233   5.515   2.040
93890SOL    HW283510   5.372   5.572   2.022
93891SOL     OW83511   8.002  12.122   6.220
93891SOL    HW183512   8.051  12.060   6.274
93891SOL    HW283513   8.001  12.203   6.272
93892SOL     OW83514  13.645   6.070   1.132
93892SOL    HW183515  13.551   6.055   1.121
93892SOL    HW283516  13.686   6.005   1.076
93893SOL     OW83517   3.297  14.832  14.833
93893SOL    HW183518   3.389  14.855  14.820
93893SOL    HW283519   3.299  14.763   0.020
93894SOL     OW83520  10.313  13.249   6.019
93894SOL    HW183521  10.378  13.302   6.067
93894SOL    HW283522  10.355  13.230   5.935
93895SOL     OW83523  11.284  11.256   4.064
93895SOL    HW183524  11.355  11.201   4.094
93895SOL    HW283525  11.326  11.338   4.038
93896SOL     OW83526  14.149  11.203  13.115
93896SOL    HW183527  14.220  11.139  13.106
93896SOL    HW283528  14.077  11.153  13.153
93897SOL     OW83529   9.393  12.533   0.188
93897SOL    HW183530   9.326  12.467   0.204
93897SOL    HW283531   9.401  12.537   0.093
93898SOL     OW83532  11.435   4.768   2.471
93898SOL    HW183533  11.470   4.780   2.559
93898SOL    HW283534  11.428   4.673   2.460
93899SOL     OW83535   9.573   3.645   5.032
93899SOL    HW183536   9.617   3.638   5.117
93899SOL    HW283537   9.627   3.591   4.974
93900SOL     OW83538   0.849   8.214  12.251
93900SOL    HW183539   0.780   8.265  12.295
93900SOL    HW283540   0.871   8.267  12.174
93901SOL     OW83541   2.974   4.092   8.546
93901SOL    HW183542   2.955   4.037   8.470
93901SOL    HW283543   2.889   4.124   8.575
93902SOL     OW83544   5.343   4.197  12.465
93902SOL    HW183545   5.381   4.135  12.527
93902SOL    HW283546   5.249   4.186  12.474
93903SOL     OW83547  10.011   4.821   7.114
93903SOL    HW183548   9.992   4.819   7.020
93903SOL    HW283549  10.106   4.832   7.119
93904SOL     OW83550   8.726  12.723   6.233
93904SOL    HW183551   8.660  12.714   6.301
93904SOL    HW283552   8.799  12.669   6.263
93905SOL     OW83553  10.266   7.366   4.497
93905SOL    HW183554  10.300   7.313   4.570
93905SOL    HW283555  10.252   7.452   4.535
93906SOL     OW83556  12.552   7.463  12.242
93906SOL    HW183557  12.589   7.427  12.161
93906SOL    HW283558  12.629   7.484  12.295
93907SOL     OW83559   6.969   3.075   4.777
93907SOL    HW183560   6.880   3.068   4.741
93907SOL    HW283561   7.027   3.052   4.705
93908SOL     OW83562  13.015   0.341  13.042
93908SOL    HW183563  12.974   0.275  13.098
93908SOL    HW283564  12.969   0.422  13.063
93909SOL     OW83565   7.433  11.774   5.271
93909SOL    HW183566   7.450  11.710   5.341
93909SOL    HW283567   7.398  11.850   5.316
93910SOL     OW83568   0.043  13.248   4.376
93910SOL    HW183569   0.084  13.331   4.402
93910SOL    HW283570   0.024  13.258   4.283
93911SOL     OW83571   1.515   9.082   5.104
93911SOL    HW183572   1.542   9.148   5.167
93911SOL    HW283573   1.576   9.009   5.119
93912SOL     OW83574   1.289   2.886   6.226
93912SOL    HW183575   1.345   2.837   6.166
93912SOL    HW283576   1.240   2.819   6.273
93913SOL     OW83577  14.665   4.717   3.164
93913SOL    HW183578  14.758   4.737   3.176
93913SOL    HW283579  14.623   4.802   3.157
93914SOL     OW83580   1.998  13.332   0.477
93914SOL    HW183581   1.979  13.283   0.397
93914SOL    HW283582   2.024  13.266   0.541
93915SOL     OW83583   6.927  12.638   4.067
93915SOL    HW183584   6.990  12.646   3.995
93915SOL    HW283585   6.971  12.585   4.133
93916SOL     OW83586  11.572   0.146   0.235
93916SOL    HW183587  11.516   0.173   0.307
93916SOL    HW283588  11.552   0.207   0.164
93917SOL     OW83589   4.430  11.341   6.264
93917SOL    HW183590   4.382  11.259   6.274
93917SOL    HW283591   4.382  11.403   6.318
93918SOL     OW83592   3.911   9.858   1.912
93918SOL    HW183593   3.871   9.836   1.828
93918SOL    HW283594   3.983   9.918   1.890
93919SOL     OW83595  12.018  12.735  10.397
93919SOL    HW183596  12.104  12.755  10.432
93919SOL    HW283597  12.004  12.642  10.416
93920SOL     OW83598   5.346   6.246   4.699
93920SOL    HW183599   5.254   6.248   4.728
93920SOL    HW283600   5.352   6.166   4.647
93921SOL     OW83601   5.585  11.243   5.304
93921SOL    HW183602   5.618  11.169   5.355
93921SOL    HW283603   5.562  11.205   5.219
93922SOL     OW83604   9.287   3.851   6.982
93922SOL    HW183605   9.350   3.914   7.018
93922SOL    HW283606   9.246   3.898   6.909
93923SOL     OW83607  12.143   6.075  13.131
93923SOL    HW183608  12.183   6.160  13.112
93923SOL    HW283609  12.061   6.096  13.175
93924SOL     OW83610  12.799   9.906   1.423
93924SOL    HW183611  12.738   9.877   1.491
93924SOL    HW283612  12.867   9.838   1.421
93925SOL     OW83613  13.373   4.910   0.534
93925SOL    HW183614  13.302   4.888   0.595
93925SOL    HW283615  13.335   4.977   0.477
93926SOL     OW83616   5.584   6.574   1.495
93926SOL    HW183617   5.648   6.528   1.441
93926SOL    HW283618   5.595   6.666   1.472
93927SOL     OW83619  11.417  13.414   2.722
93927SOL    HW183620  11.432  13.506   2.703
93927SOL    HW283621  11.425  13.407   2.817
93928SOL     OW83622   2.214   1.419   5.438
93928SOL    HW183623   2.254   1.405   5.524
93928SOL    HW283624   2.120   1.425   5.455
93929SOL     OW83625   8.020   5.214  12.311
93929SOL    HW183626   8.006   5.217  12.216
93929SOL    HW283627   8.105   5.257  12.324
93930SOL     OW83628  13.646   0.742  11.238
93930SOL    HW183629  13.731   0.754  11.279
93930SOL    HW283630  13.593   0.700  11.305
93931SOL     OW83631  11.437   4.347  10.756
93931SOL    HW183632  11.482   4.426  10.728
93931SOL    HW283633  11.387   4.373  10.833
93932SOL     OW83634  10.119   2.613  12.683
93932SOL    HW183635  10.129   2.555  12.608
93932SOL    HW283636  10.052   2.676  12.656
93933SOL     OW83637  14.236  10.082  14.714
93933SOL    HW183638  14.159  10.026  14.709
93933SOL    HW283639  14.216  10.155  14.655
93934SOL     OW83640  14.283   5.456   9.377
93934SOL    HW183641  14.228   5.380   9.358
93934SOL    HW283642  14.366   5.436   9.334
93935SOL     OW83643   6.788   6.948  10.632
93935SOL    HW183644   6.785   6.898  10.713
93935SOL    HW283645   6.866   6.917  10.587
93936SOL     OW83646   5.379   8.707   7.195
93936SOL    HW183647   5.358   8.796   7.222
93936SOL    HW283648   5.296   8.671   7.164
93937SOL     OW83649   5.852   2.274  10.660
93937SOL    HW183650   5.775   2.322  10.690
93937SOL    HW283651   5.822   2.226  10.583
93938SOL     OW83652  14.392   5.379  14.298
93938SOL    HW183653  14.366   5.289  14.277
93938SOL    HW283654  14.468   5.371  14.355
93939SOL     OW83655   0.089  13.214  13.559
93939SOL    HW183656   0.146  13.290  13.574
93939SOL    HW283657   0.148  13.147  13.522
93940SOL     OW83658   1.160   1.834   4.062
93940SOL    HW183659   1.242   1.784   4.069
93940SOL    HW283660   1.165   1.898   4.133
93941SOL     OW83661   2.510   4.698   6.715
93941SOL    HW183662   2.419   4.711   6.689
93941SOL    HW283663   2.559   4.762   6.664
93942SOL     OW83664   0.484  14.156   2.601
93942SOL    HW183665   0.418  14.126   2.539
93942SOL    HW283666   0.567  14.120   2.568
93943SOL     OW83667   0.383   4.982  11.272
93943SOL    HW183668   0.302   4.942  11.241
93943SOL    HW283669   0.360   5.074  11.288
93944SOL     OW83670   3.237   7.309  12.571
93944SOL    HW183671   3.201   7.288  12.657
93944SOL    HW283672   3.163   7.344  12.522
93945SOL     OW83673   4.661   8.240   3.396
93945SOL    HW183674   4.715   8.163   3.415
93945SOL    HW283675   4.571   8.208   3.400
93946SOL     OW83676  10.760   8.811  10.118
93946SOL    HW183677  10.668   8.828  10.102
93946SOL    HW283678  10.796   8.897  10.141
93947SOL     OW83679  12.708   7.952   7.822
93947SOL    HW183680  12.758   7.874   7.846
93947SOL    HW283681  12.628   7.919   7.783
93948SOL     OW83682  11.671   6.672  10.272
93948SOL    HW183683  11.709   6.584  10.272
93948SOL    HW283684  11.706   6.713  10.350
93949SOL     OW83685   8.289   6.692  14.702
93949SOL    HW183686   8.237   6.770  14.725
93949SOL    HW283687   8.224   6.623  14.688
93950SOL     OW83688  10.444   8.388  12.664
93950SOL    HW183689  10.408   8.303  12.638
93950SOL    HW283690  10.448   8.438  12.582
93951SOL     OW83691   9.296   4.377   6.833
93951SOL    HW183692   9.328   4.336   6.914
93951SOL    HW283693   9.244   4.451   6.863
93952SOL     OW83694   7.377   4.605  14.177
93952SOL    HW183695   7.296   4.555  14.180
93952SOL    HW283696   7.349   4.695  14.160
93953SOL     OW83697  11.428  12.840  14.413
93953SOL    HW183698  11.475  12.832  14.329
93953SOL    HW283699  11.358  12.902  14.395
93954SOL     OW83700  13.190   6.570   7.281
93954SOL    HW183701  13.272   6.525   7.303
93954SOL    HW283702  13.177   6.632   7.353
93955SOL     OW83703   6.063  12.564   5.723
93955SOL    HW183704   5.983  12.612   5.745
93955SOL    HW283705   6.033  12.486   5.677
93956SOL     OW83706  13.183   8.333   0.726
93956SOL    HW183707  13.269   8.293   0.716
93956SOL    HW283708  13.197   8.406   0.787
93957SOL     OW83709   6.212   8.278  13.027
93957SOL    HW183710   6.266   8.260  12.951
93957SOL    HW283711   6.246   8.220  13.095
93958SOL     OW83712  11.396   4.715   9.812
93958SOL    HW183713  11.336   4.684   9.880
93958SOL    HW283714  11.396   4.810   9.821
93959SOL     OW83715   7.533  13.043  11.148
93959SOL    HW183716   7.518  12.949  11.157
93959SOL    HW283717   7.567  13.054  11.059
93960SOL     OW83718  14.044   0.039   5.096
93960SOL    HW183719  14.133   0.045   5.062
93960SOL    HW283720  14.012   0.129   5.094
93961SOL     OW83721   0.059   4.589   7.071
93961SOL    HW183722  14.843   4.584   7.081
93961SOL    HW283723   0.092   4.584   7.160
93962SOL     OW83724   0.863   3.963   3.224
93962SOL    HW183725   0.814   3.922   3.295
93962SOL    HW283726   0.929   4.017   3.268
93963SOL     OW83727   7.390  11.682  10.991
93963SOL    HW183728   7.314  11.698  10.936
93963SOL    HW283729   7.444  11.622  10.940
93964SOL     OW83730  12.915   3.680   6.404
93964SOL    HW183731  12.909   3.768   6.366
93964SOL    HW283732  13.003   3.651   6.381
93965SOL     OW83733   3.236   2.738   4.356
93965SOL    HW183734   3.305   2.799   4.379
93965SOL    HW283735   3.190   2.722   4.438
93966SOL     OW83736  12.603   0.255   1.806
93966SOL    HW183737  12.625   0.280   1.896
93966SOL    HW283738  12.669   0.189   1.783
93967SOL     OW83739   3.311   5.737  10.803
93967SOL    HW183740   3.247   5.731  10.874
93967SOL    HW283741   3.284   5.669  10.741
93968SOL     OW83742   5.475  14.735   0.339
93968SOL    HW183743   5.458  14.827   0.323
93968SOL    HW283744   5.493  14.698   0.253
93969SOL     OW83745  12.537   7.357   1.444
93969SOL    HW183746  12.482   7.316   1.378
93969SOL    HW283747  12.515   7.312   1.526
93970SOL     OW83748  13.325   3.256   6.139
93970SOL    HW183749  13.307   3.329   6.080
93970SOL    HW283750  13.365   3.297   6.216
93971SOL     OW83751  13.859  12.196   5.293
93971SOL    HW183752  13.798  12.252   5.339
93971SOL    HW283753  13.827  12.107   5.309
93972SOL     OW83754   4.893   7.767   4.024
93972SOL    HW183755   4.873   7.858   4.044
93972SOL    HW283756   4.847   7.749   3.942
93973SOL     OW83757  13.040   0.294   4.580
93973SOL    HW183758  13.069   0.204   4.593
93973SOL    HW283759  13.102   0.347   4.630
93974SOL     OW83760  10.943   6.077   4.644
93974SOL    HW183761  10.957   6.118   4.559
93974SOL    HW283762  10.864   6.119   4.678
93975SOL     OW83763   0.253   1.028   0.441
93975SOL    HW183764   0.171   0.997   0.480
93975SOL    HW283765   0.234   1.117   0.411
93976SOL     OW83766  12.450  14.751  11.183
93976SOL    HW183767  12.401  14.832  11.197
93976SOL    HW283768  12.522  14.755  11.247
93977SOL     OW83769  10.586   3.528   5.471
93977SOL    HW183770  10.562   3.460   5.534
93977SOL    HW283771  10.596   3.607   5.524
93978SOL     OW83772   0.284   7.559   8.996
93978SOL    HW183773   0.199   7.550   8.954
93978SOL    HW283774   0.269   7.618   9.070
93979SOL     OW83775   6.228   6.526  11.015
93979SOL    HW183776   6.318   6.552  10.992
93979SOL    HW283777   6.192   6.489  10.935
93980SOL     OW83778  14.191  13.300   4.990
93980SOL    HW183779  14.194  13.311   5.086
93980SOL    HW283780  14.271  13.343   4.959
93981SOL     OW83781   4.702   1.913   6.010
93981SOL    HW183782   4.651   1.941   6.085
93981SOL    HW283783   4.684   1.819   6.002
93982SOL     OW83784  12.897  13.453   9.282
93982SOL    HW183785  12.906  13.453   9.187
93982SOL    HW283786  12.834  13.522   9.301
93983SOL     OW83787  12.358   2.181   7.012
93983SOL    HW183788  12.287   2.245   7.018
93983SOL    HW283789  12.438   2.233   7.008
93984SOL     OW83790   4.497   9.864   3.944
93984SOL    HW183791   4.565   9.840   4.007
93984SOL    HW283792   4.415   9.846   3.989
93985SOL     OW83793  10.223  12.993   3.091
93985SOL    HW183794  10.295  13.049   3.122
93985SOL    HW283795  10.224  13.003   2.996
93986SOL     OW83796   3.437   2.529  14.215
93986SOL    HW183797   3.478   2.613  14.233
93986SOL    HW283798   3.408   2.535  14.124
93987SOL     OW83799   0.246   8.369   9.619
93987SOL    HW183800   0.323   8.382   9.675
93987SOL    HW283801   0.189   8.310   9.669
93988SOL     OW83802   8.098  12.988   8.104
93988SOL    HW183803   8.074  13.060   8.046
93988SOL    HW283804   8.052  12.912   8.068
93989SOL     OW83805   5.622  13.901   3.045
93989SOL    HW183806   5.557  13.862   2.986
93989SOL    HW283807   5.701  13.849   3.033
93990SOL     OW83808   2.077   5.961  13.158
93990SOL    HW183809   2.168   5.991  13.157
93990SOL    HW283810   2.046   5.980  13.246
93991SOL     OW83811   5.054   2.385   4.585
93991SOL    HW183812   4.976   2.361   4.536
93991SOL    HW283813   5.127   2.359   4.528
93992SOL     OW83814  11.709  10.715  14.576
93992SOL    HW183815  11.778  10.661  14.613
93992SOL    HW283816  11.680  10.771  14.648
93993SOL     OW83817   2.731   7.331  13.696
93993SOL    HW183818   2.801   7.272  13.724
93993SOL    HW283819   2.771   7.418  13.700
93994SOL     OW83820  11.150   4.123   1.542
93994SOL    HW183821  11.097   4.070   1.482
93994SOL    HW283822  11.105   4.207   1.546
93995SOL     OW83823   2.735   7.404   1.957
93995SOL    HW183824   2.669   7.472   1.944
93995SOL    HW283825   2.793   7.413   1.882
93996SOL     OW83826   4.621   0.482  14.847
93996SOL    HW183827   4.706   0.515  14.877
93996SOL    HW283828   4.578   0.558  14.808
93997SOL     OW83829  11.026   9.542   6.455
93997SOL    HW183830  10.930   9.549   6.457
93997SOL    HW283831  11.044   9.451   6.477
93998SOL     OW83832   1.531   0.352   8.760
93998SOL    HW183833   1.560   0.262   8.746
93998SOL    HW283834   1.576   0.403   8.692
93999SOL     OW83835   2.948   2.171   5.900
93999SOL    HW183836   2.868   2.212   5.867
93999SOL    HW283837   2.974   2.227   5.973
94000SOL     OW83838  12.839   2.737   9.442
94000SOL    HW183839  12.918   2.780   9.409
94000SOL    HW283840  12.871   2.676   9.508
94001SOL     OW83841  10.095  10.679   8.991
94001SOL    HW183842  10.183  10.640   8.988
94001SOL    HW283843  10.102  10.758   8.938
94002SOL     OW83844   6.481  11.818   9.398
94002SOL    HW183845   6.541  11.748   9.424
94002SOL    HW283846   6.431  11.838   9.477
94003SOL     OW83847   5.463   3.974  10.801
94003SOL    HW183848   5.382   4.006  10.841
94003SOL    HW283849   5.527   3.977  10.872
94004SOL     OW83850   8.779  10.611  12.819
94004SOL    HW183851   8.826  10.692  12.841
94004SOL    HW283852   8.687  10.631  12.838
94005SOL     OW83853  13.204   9.615  11.621
94005SOL    HW183854  13.277   9.650  11.571
94005SOL    HW283855  13.161   9.692  11.659
94006SOL     OW83856   3.301   8.641   0.369
94006SOL    HW183857   3.279   8.729   0.400
94006SOL    HW283858   3.322   8.592   0.448
94007SOL     OW83859  10.156   7.117   3.764
94007SOL    HW183860  10.091   7.187   3.772
94007SOL    HW283861  10.240   7.162   3.770
94008SOL     OW83862   8.332   0.194  10.487
94008SOL    HW183863   8.339   0.099  10.492
94008SOL    HW283864   8.261   0.209  10.425
94009SOL     OW83865   9.009   8.058   6.934
94009SOL    HW183866   9.051   8.113   6.868
94009SOL    HW283867   9.067   7.981   6.940
94010SOL     OW83868   7.328   2.451  11.855
94010SOL    HW183869   7.353   2.359  11.863
94010SOL    HW283870   7.280   2.455  11.772
94011SOL     OW83871  14.564   9.247  12.841
94011SOL    HW183872  14.495   9.244  12.908
94011SOL    HW283873  14.556   9.335  12.803
94012SOL     OW83874  14.153   6.354   1.832
94012SOL    HW183875  14.058   6.362   1.824
94012SOL    HW283876  14.174   6.275   1.782
94013SOL     OW83877   1.173   0.907   5.156
94013SOL    HW183878   1.240   0.916   5.089
94013SOL    HW283879   1.221   0.915   5.239
94014SOL     OW83880   5.689   1.712   2.442
94014SOL    HW183881   5.660   1.803   2.432
94014SOL    HW283882   5.701   1.681   2.352
94015SOL     OW83883  10.678   7.430   0.605
94015SOL    HW183884  10.683   7.457   0.513
94015SOL    HW283885  10.696   7.510   0.654
94016SOL     OW83886   2.886   3.958   8.306
94016SOL    HW183887   2.927   3.892   8.250
94016SOL    HW283888   2.807   3.984   8.257
94017SOL     OW83889   1.422  13.030   7.744
94017SOL    HW183890   1.384  12.942   7.741
94017SOL    HW283891   1.512  13.016   7.771
94018SOL     OW83892   4.565   7.128  13.453
94018SOL    HW183893   4.551   7.201  13.512
94018SOL    HW283894   4.478   7.090  13.440
94019SOL     OW83895   9.726   4.849  14.543
94019SOL    HW183896   9.632   4.845  14.559
94019SOL    HW283897   9.753   4.758  14.534
94020SOL     OW83898   8.828   8.758  12.171
94020SOL    HW183899   8.867   8.713  12.245
94020SOL    HW283900   8.748   8.709  12.152
94021SOL     OW83901   7.587   5.584  12.867
94021SOL    HW183902   7.660   5.642  12.887
94021SOL    HW283903   7.601   5.507  12.922
94022SOL     OW83904   0.826   7.678   9.610
94022SOL    HW183905   0.838   7.619   9.536
94022SOL    HW283906   0.821   7.619   9.686
94023SOL     OW83907  12.357   0.318   9.491
94023SOL    HW183908  12.410   0.265   9.431
94023SOL    HW283909  12.323   0.255   9.554
94024SOL     OW83910   5.162  12.808   7.703
94024SOL    HW183911   5.145  12.737   7.765
94024SOL    HW283912   5.223  12.866   7.749
94025SOL     OW83913   2.590   3.638  14.734
94025SOL    HW183914   2.539   3.662  14.812
94025SOL    HW283915   2.659   3.581  14.767
94026SOL     OW83916   2.370   0.441   9.348
94026SOL    HW183917   2.334   0.384   9.416
94026SOL    HW283918   2.318   0.421   9.270
94027SOL     OW83919  11.764   4.544  13.359
94027SOL    HW183920  11.826   4.587  13.418
94027SOL    HW283921  11.764   4.600  13.281
94028SOL     OW83922   1.514   2.195  14.819
94028SOL    HW183923   1.447   2.253  14.782
94028SOL    HW283924   1.584   2.196  14.754
94029SOL     OW83925   9.022   7.889   6.244
94029SOL    HW183926   9.097   7.869   6.188
94029SOL    HW283927   9.008   7.808   6.294
94030SOL     OW83928  13.778  10.345   3.404
94030SOL    HW183929  13.716  10.279   3.434
94030SOL    HW283930  13.839  10.355   3.477
94031SOL     OW83931  11.888   0.329   4.675
94031SOL    HW183932  11.870   0.388   4.747
94031SOL    HW283933  11.804   0.321   4.629
94032SOL     OW83934  12.397   8.887   9.210
94032SOL    HW183935  12.375   8.959   9.151
94032SOL    HW283936  12.477   8.850   9.174
94033SOL     OW83937   9.393   8.958  13.043
94033SOL    HW183938   9.390   9.042  13.089
94033SOL    HW283939   9.470   8.914  13.078
94034SOL     OW83940  10.319  14.717   0.194
94034SOL    HW183941  10.383  14.660   0.235
94034SOL    HW283942  10.240  14.663   0.188
94035SOL     OW83943   8.268  14.385   3.060
94035SOL    HW183944   8.289  14.464   3.009
94035SOL    HW283945   8.201  14.414   3.122
94036SOL     OW83946  11.827   4.486   7.291
94036SOL    HW183947  11.869   4.528   7.216
94036SOL    HW283948  11.830   4.552   7.361
94037SOL     OW83949  12.231  10.344   0.007
94037SOL    HW183950  12.213  10.411   0.073
94037SOL    HW283951  12.272  10.391  14.814
94038SOL     OW83952  10.769   6.518  10.226
94038SOL    HW183953  10.718   6.516  10.306
94038SOL    HW283954  10.738   6.443  10.175
94039SOL     OW83955   6.074   0.527   6.473
94039SOL    HW183956   6.156   0.556   6.513
94039SOL    HW283957   6.080   0.431   6.473
94040SOL     OW83958  14.634   1.485   8.838
94040SOL    HW183959  14.550   1.500   8.794
94040SOL    HW283960  14.700   1.515   8.776
94041SOL     OW83961   1.390   7.902   5.631
94041SOL    HW183962   1.408   7.810   5.615
94041SOL    HW283963   1.475   7.945   5.621
94042SOL     OW83964   1.387  10.706   2.286
94042SOL    HW183965   1.343  10.656   2.355
94042SOL    HW283966   1.468  10.659   2.269
94043SOL     OW83967   8.820   8.459   7.833
94043SOL    HW183968   8.847   8.439   7.743
94043SOL    HW283969   8.866   8.393   7.886
94044SOL     OW83970  10.608   2.086  14.822
94044SOL    HW183971  10.608   2.174  14.859
94044SOL    HW283972  10.604   2.028   0.018
94045SOL     OW83973   8.019  12.451   5.701
94045SOL    HW183974   8.011  12.478   5.610
94045SOL    HW283975   7.940  12.400   5.718
94046SOL     OW83976  14.787   3.925   9.951
94046SOL    HW183977  14.725   3.854   9.967
94046SOL    HW283978  14.871   3.891   9.979
94047SOL     OW83979   5.575   7.761   6.212
94047SOL    HW183980   5.537   7.748   6.298
94047SOL    HW283981   5.558   7.679   6.165
94048SOL     OW83982   8.159  13.324  12.268
94048SOL    HW183983   8.158  13.408  12.313
94048SOL    HW283984   8.133  13.344  12.178
94049SOL     OW83985   0.005   8.121   3.680
94049SOL    HW183986   0.012   8.066   3.602
94049SOL    HW283987   0.080   8.180   3.674
94050SOL     OW83988   0.543  14.118  11.213
94050SOL    HW183989   0.546  14.022  11.216
94050SOL    HW283990   0.559  14.140  11.121
94051SOL     OW83991   1.664   3.212   4.620
94051SOL    HW183992   1.733   3.272   4.647
94051SOL    HW283993   1.604   3.266   4.568
94052SOL     OW83994  13.133   6.602   1.584
94052SOL    HW183995  13.150   6.614   1.490
94052SOL    HW283996  13.129   6.690   1.619
94053SOL     OW83997   0.863   5.787   6.745
94053SOL    HW183998   0.889   5.753   6.831
94053SOL    HW283999   0.786   5.841   6.762
94054SOL     OW84000   5.017   2.804  12.926
94054SOL    HW184001   5.105   2.768  12.939
94054SOL    HW284002   4.958   2.740  12.966
94055SOL     OW84003  13.443   7.757   6.907
94055SOL    HW184004  13.539   7.762   6.909
94055SOL    HW284005  13.418   7.806   6.829
94056SOL     OW84006   7.476   0.685   4.787
94056SOL    HW184007   7.421   0.609   4.806
94056SOL    HW284008   7.478   0.734   4.869
94057SOL     OW84009   7.274  14.729  11.140
94057SOL    HW184010   7.189  14.706  11.178
94057SOL    HW284011   7.252  14.793  11.072
94058SOL     OW84012  14.659   4.743   1.049
94058SOL    HW184013  14.699   4.720   0.966
94058SOL    HW284014  14.650   4.659   1.095
94059SOL     OW84015   0.666   6.593   8.993
94059SOL    HW184016   0.737   6.600   9.056
94059SOL    HW284017   0.708   6.604   8.908
94060SOL     OW84018   9.288   6.959   6.350
94060SOL    HW184019   9.314   7.045   6.316
94060SOL    HW284020   9.370   6.921   6.383
94061SOL     OW84021  13.647   3.397  13.635
94061SOL    HW184022  13.660   3.363  13.724
94061SOL    HW284023  13.567   3.449  13.641
94062SOL     OW84024   0.679  13.640  10.751
94062SOL    HW184025   0.673  13.736  10.758
94062SOL    HW284026   0.721  13.626  10.666
94063SOL     OW84027   7.799  13.698  11.109
94063SOL    HW184028   7.720  13.713  11.161
94063SOL    HW284029   7.871  13.719  11.169
94064SOL     OW84030   2.629  11.949   2.289
94064SOL    HW184031   2.568  11.915   2.355
94064SOL    HW284032   2.612  12.043   2.288
94065SOL     OW84033  10.019   2.872  12.998
94065SOL    HW184034  10.076   2.929  13.050
94065SOL    HW284035  10.014   2.914  12.912
94066SOL     OW84036   0.191   1.698   4.328
94066SOL    HW184037   0.276   1.657   4.315
94066SOL    HW284038   0.128   1.627   4.316
94067SOL     OW84039   6.874   7.917  11.996
94067SOL    HW184040   6.860   7.936  12.089
94067SOL    HW284041   6.937   7.845  11.995
94068SOL     OW84042  11.807   7.934   8.473
94068SOL    HW184043  11.791   8.028   8.476
94068SOL    HW284044  11.875   7.919   8.539
94069SOL     OW84045   8.585  13.603   8.249
94069SOL    HW184046   8.543  13.638   8.328
94069SOL    HW284047   8.526  13.628   8.178
94070SOL     OW84048   8.986   3.892   4.027
94070SOL    HW184049   9.016   3.801   4.021
94070SOL    HW284050   9.015   3.922   4.113
94071SOL     OW84051   3.267   4.882   4.413
94071SOL    HW184052   3.260   4.963   4.363
94071SOL    HW284053   3.361   4.872   4.429
94072SOL     OW84054  10.078  14.480   9.532
94072SOL    HW184055  10.112  14.403   9.487
94072SOL    HW284056  10.085  14.551   9.468
94073SOL     OW84057   9.218   8.626   9.589
94073SOL    HW184058   9.135   8.582   9.608
94073SOL    HW284059   9.223   8.625   9.493
94074SOL     OW84060   9.760  11.003   6.825
94074SOL    HW184061   9.828  10.968   6.768
94074SOL    HW284062   9.697  11.044   6.766
94075SOL     OW84063   7.244   2.250   1.849
94075SOL    HW184064   7.219   2.226   1.938
94075SOL    HW284065   7.241   2.168   1.799
94076SOL     OW84066  11.889  10.829   7.509
94076SOL    HW184067  11.980  10.841   7.537
94076SOL    HW284068  11.868  10.738   7.533
94077SOL     OW84069  10.952   1.963   0.335
94077SOL    HW184070  10.998   1.899   0.390
94077SOL    HW284071  11.015   1.985   0.266
94078SOL     OW84072   2.831  14.852   4.267
94078SOL    HW184073   2.740  14.832   4.243
94078SOL    HW284074   2.872  14.767   4.280
94079SOL     OW84075   4.637  11.119   8.973
94079SOL    HW184076   4.554  11.136   8.927
94079SOL    HW284077   4.702  11.118   8.903
94080SOL     OW84078   9.404  11.798   8.419
94080SOL    HW184079   9.442  11.839   8.341
94080SOL    HW284080   9.472  11.738   8.450
94081SOL     OW84081   1.689   2.468  10.899
94081SOL    HW184082   1.700   2.545  10.845
94081SOL    HW284083   1.752   2.405  10.865
94082SOL     OW84084   2.085   1.415  14.684
94082SOL    HW184085   2.121   1.335  14.646
94082SOL    HW284086   1.992   1.397  14.696
94083SOL     OW84087   2.809  12.377  12.162
94083SOL    HW184088   2.884  12.434  12.146
94083SOL    HW284089   2.741  12.408  12.102
94084SOL     OW84090  11.638  11.687   9.116
94084SOL    HW184091  11.593  11.605   9.098
94084SOL    HW284092  11.582  11.754   9.077
94085SOL     OW84093   6.362  13.977   1.964
94085SOL    HW184094   6.437  13.922   1.941
94085SOL    HW284095   6.378  14.002   2.055
94086SOL     OW84096   5.589   3.749   7.147
94086SOL    HW184097   5.615   3.730   7.056
94086SOL    HW284098   5.526   3.820   7.139
94087SOL     OW84099   3.742  12.528  13.736
94087SOL    HW184100   3.831  12.502  13.761
94087SOL    HW284101   3.694  12.531  13.819
94088SOL     OW84102   4.267  11.614  13.793
94088SOL    HW184103   4.243  11.665  13.871
94088SOL    HW284104   4.340  11.559  13.822
94089SOL     OW84105   5.841   8.859  14.246
94089SOL    HW184106   5.795   8.938  14.272
94089SOL    HW284107   5.775   8.790  14.252
94090SOL     OW84108   0.267  12.111  10.071
94090SOL    HW184109   0.329  12.079  10.137
94090SOL    HW284110   0.200  12.157  10.122
94091SOL     OW84111   7.776  10.970   3.303
94091SOL    HW184112   7.758  10.885   3.345
94091SOL    HW284113   7.691  11.013   3.299
94092SOL     OW84114   0.363  12.331  14.632
94092SOL    HW184115   0.391  12.332  14.540
94092SOL    HW284116   0.273  12.299  14.629
94093SOL     OW84117   3.657   0.447   1.531
94093SOL    HW184118   3.567   0.437   1.563
94093SOL    HW284119   3.692   0.358   1.532
94094SOL     OW84120   1.390  10.827  10.001
94094SOL    HW184121   1.338  10.863   9.929
94094SOL    HW284122   1.327  10.816  10.073
94095SOL     OW84123   2.415   6.330   1.624
94095SOL    HW184124   2.433   6.384   1.700
94095SOL    HW284125   2.435   6.241   1.652
94096SOL     OW84126  10.951  11.883  13.609
94096SOL    HW184127  10.882  11.870  13.674
94096SOL    HW284128  10.996  11.963  13.637
94097SOL     OW84129  10.260   6.343   9.515
94097SOL    HW184130  10.165   6.336   9.528
94097SOL    HW284131  10.298   6.298   9.590
94098SOL     OW84132   1.236   0.221   8.366
94098SOL    HW184133   1.224   0.179   8.451
94098SOL    HW284134   1.266   0.310   8.388
94099SOL     OW84135  14.767   7.405  12.316
94099SOL    HW184136  14.832   7.358  12.264
94099SOL    HW284137  14.707   7.338  12.347
94100SOL     OW84138   2.907   0.553   9.034
94100SOL    HW184139   2.898   0.561   9.129
94100SOL    HW284140   2.921   0.459   9.019
94101SOL     OW84141   7.126  11.145   1.903
94101SOL    HW184142   7.151  11.121   1.814
94101SOL    HW284143   7.175  11.085   1.959
94102SOL     OW84144   8.604  13.473   2.443
94102SOL    HW184145   8.635  13.535   2.509
94102SOL    HW284146   8.564  13.402   2.493
94103SOL     OW84147   8.715   0.442   6.335
94103SOL    HW184148   8.624   0.422   6.355
94103SOL    HW284149   8.756   0.459   6.420
94104SOL     OW84150  10.674  14.021  12.976
94104SOL    HW184151  10.601  14.081  12.994
94104SOL    HW284152  10.716  14.058  12.898
94105SOL     OW84153   9.619   3.907   2.898
94105SOL    HW184154   9.533   3.871   2.874
94105SOL    HW284155   9.636   3.872   2.986
94106SOL     OW84156   5.732   7.686  12.191
94106SOL    HW184157   5.723   7.649  12.103
94106SOL    HW284158   5.642   7.698  12.221
94107SOL     OW84159   8.315   4.317  14.260
94107SOL    HW184160   8.233   4.270  14.275
94107SOL    HW284161   8.297   4.373  14.184
94108SOL     OW84162  10.517   9.297  14.766
94108SOL    HW184163  10.526   9.224  14.705
94108SOL    HW284164  10.540   9.259  14.851
94109SOL     OW84165   9.253   5.207   5.775
94109SOL    HW184166   9.158   5.220   5.778
94109SOL    HW284167   9.274   5.196   5.683
94110SOL     OW84168  10.124   2.669  10.933
94110SOL    HW184169  10.099   2.591  10.884
94110SOL    HW284170  10.046   2.725  10.933
94111SOL     OW84171  11.077  10.317   9.884
94111SOL    HW184172  11.077  10.290   9.976
94111SOL    HW284173  11.170  10.323   9.861
94112SOL     OW84174  10.710   4.542   8.829
94112SOL    HW184175  10.792   4.515   8.787
94112SOL    HW284176  10.719   4.512   8.919
94113SOL     OW84177   1.168   8.897   2.478
94113SOL    HW184178   1.224   8.822   2.497
94113SOL    HW284179   1.161   8.899   2.383
94114SOL     OW84180  10.169   8.887  11.001
94114SOL    HW184181  10.106   8.917  10.935
94114SOL    HW284182  10.119   8.888  11.083
94115SOL     OW84183   1.059  12.849   0.151
94115SOL    HW184184   1.111  12.855   0.071
94115SOL    HW284185   1.059  12.938   0.186
94116SOL     OW84186   1.247   3.876   4.761
94116SOL    HW184187   1.177   3.918   4.712
94116SOL    HW284188   1.327   3.921   4.734
94117SOL     OW84189   8.129   1.329   6.046
94117SOL    HW184190   8.042   1.368   6.059
94117SOL    HW284191   8.141   1.330   5.952
94118SOL     OW84192  14.496   5.203   7.995
94118SOL    HW184193  14.528   5.130   7.941
94118SOL    HW284194  14.430   5.246   7.940
94119SOL     OW84195   3.031   7.652   7.891
94119SOL    HW184196   3.106   7.606   7.853
94119SOL    HW284197   3.041   7.742   7.861
94120SOL     OW84198   4.129  14.076  13.407
94120SOL    HW184199   4.175  14.134  13.346
94120SOL    HW284200   4.198  14.024  13.448
94121SOL     OW84201   2.784  11.369   4.502
94121SOL    HW184202   2.724  11.440   4.478
94121SOL    HW284203   2.802  11.384   4.595
94122SOL     OW84204  13.465  11.020  10.698
94122SOL    HW184205  13.491  11.106  10.665
94122SOL    HW284206  13.502  10.958  10.635
94123SOL     OW84207  11.179   4.907   4.892
94123SOL    HW184208  11.254   4.917   4.834
94123SOL    HW284209  11.106   4.885   4.833
94124SOL     OW84210   6.955   6.951   8.499
94124SOL    HW184211   7.019   6.899   8.450
94124SOL    HW284212   6.879   6.956   8.441
94125SOL     OW84213   3.855   6.020   2.346
94125SOL    HW184214   3.908   6.002   2.423
94125SOL    HW284215   3.866   5.943   2.291
94126SOL     OW84216   3.922   9.211   0.175
94126SOL    HW184217   3.906   9.285   0.117
94126SOL    HW284218   3.944   9.139   0.115
94127SOL     OW84219  12.737   2.095   0.774
94127SOL    HW184220  12.699   2.081   0.687
94127SOL    HW284221  12.778   2.012   0.796
94128SOL     OW84222  14.250   2.604   1.885
94128SOL    HW184223  14.332   2.584   1.930
94128SOL    HW284224  14.237   2.697   1.898
94129SOL     OW84225  11.580   6.440  12.532
94129SOL    HW184226  11.509   6.415  12.473
94129SOL    HW284227  11.586   6.535  12.523
94130SOL     OW84228  10.728  14.301   4.533
94130SOL    HW184229  10.823  14.296   4.545
94130SOL    HW284230  10.712  14.259   4.449
94131SOL     OW84231   9.895  13.770   6.670
94131SOL    HW184232   9.872  13.827   6.744
94131SOL    HW284233   9.904  13.683   6.710
94132SOL     OW84234  10.592  12.059   7.337
94132SOL    HW184235  10.679  12.098   7.334
94132SOL    HW284236  10.556  12.085   7.421
94133SOL     OW84237  11.243   7.495   9.523
94133SOL    HW184238  11.292   7.472   9.444
94133SOL    HW284239  11.164   7.539   9.490
94134SOL     OW84240   7.770   6.831  10.554
94134SOL    HW184241   7.862   6.839  10.579
94134SOL    HW284242   7.746   6.742  10.579
94135SOL     OW84243  12.369   9.616   6.744
94135SOL    HW184244  12.374   9.532   6.789
94135SOL    HW284245  12.389   9.595   6.652
94136SOL     OW84246   8.717  14.036  12.656
94136SOL    HW184247   8.679  14.112  12.700
94136SOL    HW284248   8.642  13.989  12.620
94137SOL     OW84249   4.742   5.049   1.163
94137SOL    HW184250   4.754   5.100   1.082
94137SOL    HW284251   4.815   5.075   1.219
94138SOL     OW84252   4.754  12.874   1.429
94138SOL    HW184253   4.837  12.838   1.399
94138SOL    HW284254   4.769  12.968   1.434
94139SOL     OW84255  13.728  13.331  12.344
94139SOL    HW184256  13.756  13.366  12.429
94139SOL    HW284257  13.650  13.382  12.322
94140SOL     OW84258  13.338   0.622   2.238
94140SOL    HW184259  13.424   0.642   2.274
94140SOL    HW284260  13.312   0.702   2.191
94141SOL     OW84261   0.577  14.184  10.925
94141SOL    HW184262   0.513  14.230  10.871
94141SOL    HW284263   0.660  14.197  10.879
94142SOL     OW84264   4.211   1.810  10.387
94142SOL    HW184265   4.253   1.896  10.389
94142SOL    HW284266   4.213   1.784  10.295
94143SOL     OW84267   9.561   5.212   5.350
94143SOL    HW184268   9.588   5.180   5.436
94143SOL    HW284269   9.606   5.296   5.340
94144SOL     OW84270  12.911   0.316   9.132
94144SOL    HW184271  12.833   0.343   9.083
94144SOL    HW284272  12.877   0.278   9.213
94145SOL     OW84273   6.186   9.740   6.499
94145SOL    HW184274   6.154   9.763   6.412
94145SOL    HW284275   6.281   9.732   6.488
94146SOL     OW84276  10.288  13.971   3.036
94146SOL    HW184277  10.322  14.060   3.032
94146SOL    HW284278  10.326  13.934   3.116
94147SOL     OW84279   3.381  12.473   5.098
94147SOL    HW184280   3.476  12.483   5.108
94147SOL    HW284281   3.358  12.532   5.026
94148SOL     OW84282  11.766   1.321   2.638
94148SOL    HW184283  11.856   1.352   2.643
94148SOL    HW284284  11.774   1.227   2.621
94149SOL     OW84285   8.389   1.264  11.231
94149SOL    HW184286   8.464   1.247  11.288
94149SOL    HW284287   8.313   1.248  11.287
94150SOL     OW84288   0.464   8.830   6.457
94150SOL    HW184289   0.555   8.849   6.433
94150SOL    HW284290   0.465   8.739   6.487
94151SOL     OW84291   0.883  11.675  14.594
94151SOL    HW184292   0.849  11.757  14.631
94151SOL    HW284293   0.943  11.642  14.661
94152SOL     OW84294   8.309  10.412   0.982
94152SOL    HW184295   8.361  10.373   0.913
94152SOL    HW284296   8.358  10.396   1.062
94153SOL     OW84297   2.237   8.761   0.972
94153SOL    HW184298   2.296   8.777   0.898
94153SOL    HW284299   2.214   8.848   1.003
94154SOL     OW84300   8.748  12.673   4.482
94154SOL    HW184301   8.732  12.622   4.562
94154SOL    HW284302   8.661  12.704   4.455
94155SOL     OW84303   2.642   0.075   1.814
94155SOL    HW184304   2.594   0.157   1.806
94155SOL    HW284305   2.592   0.013   1.761
94156SOL     OW84306   5.323   0.544   5.048
94156SOL    HW184307   5.263   0.508   5.114
94156SOL    HW284308   5.409   0.540   5.090
94157SOL     OW84309  13.754   8.143  14.834
94157SOL    HW184310  13.716   8.218   0.001
94157SOL    HW284311  13.845   8.139  14.865
94158SOL     OW84312   2.594   5.802   6.446
94158SOL    HW184313   2.555   5.791   6.533
94158SOL    HW284314   2.553   5.882   6.412
94159SOL     OW84315  12.253   7.397  12.101
94159SOL    HW184316  12.161   7.412  12.080
94159SOL    HW284317  12.255   7.389  12.196
94160SOL     OW84318  14.418  14.798   3.502
94160SOL    HW184319  14.334  14.753   3.493
94160SOL    HW284320  14.481  14.728   3.518
94161SOL     OW84321   8.352  10.688  11.363
94161SOL    HW184322   8.379  10.634  11.289
94161SOL    HW284323   8.358  10.778  11.330
94162SOL     OW84324  11.466   8.563   5.768
94162SOL    HW184325  11.524   8.639   5.766
94162SOL    HW284326  11.481   8.523   5.854
94163SOL     OW84327   5.108   1.679  10.177
94163SOL    HW184328   5.105   1.714  10.265
94163SOL    HW284329   5.197   1.644  10.168
94164SOL     OW84330   4.070   4.284  11.330
94164SOL    HW184331   4.057   4.305  11.422
94164SOL    HW284332   4.033   4.360  11.283
94165SOL     OW84333   0.185   2.787   1.133
94165SOL    HW184334   0.151   2.700   1.155
94165SOL    HW284335   0.280   2.776   1.131
94166SOL     OW84336   2.817   1.889   1.149
94166SOL    HW184337   2.765   1.959   1.189
94166SOL    HW284338   2.769   1.867   1.069
94167SOL     OW84339   6.624   3.807   0.445
94167SOL    HW184340   6.553   3.839   0.500
94167SOL    HW284341   6.654   3.727   0.488
94168SOL     OW84342  11.133   8.363   1.399
94168SOL    HW184343  11.074   8.331   1.331
94168SOL    HW284344  11.171   8.283   1.438
94169SOL     OW84345  13.291   7.996   6.447
94169SOL    HW184346  13.220   8.005   6.510
94169SOL    HW284347  13.353   7.936   6.489
94170SOL     OW84348   8.632   0.216   1.362
94170SOL    HW184349   8.658   0.153   1.429
94170SOL    HW284350   8.701   0.282   1.363
94171SOL     OW84351   4.856  12.069   5.560
94171SOL    HW184352   4.856  12.130   5.633
94171SOL    HW284353   4.858  11.982   5.600
94172SOL     OW84354  12.396   1.678  10.649
94172SOL    HW184355  12.417   1.760  10.693
94172SOL    HW284356  12.303   1.684  10.628
94173SOL     OW84357   4.134  14.005  14.328
94173SOL    HW184358   4.110  14.064  14.257
94173SOL    HW284359   4.093  14.043  14.406
94174SOL     OW84360   3.691   5.190   1.281
94174SOL    HW184361   3.727   5.266   1.234
94174SOL    HW284362   3.697   5.215   1.373
94175SOL     OW84363   2.647   2.901   8.981
94175SOL    HW184364   2.641   2.822   9.034
94175SOL    HW284365   2.595   2.882   8.903
94176SOL     OW84366   9.923  14.682   5.736
94176SOL    HW184367   9.843  14.681   5.787
94176SOL    HW284368   9.946  14.774   5.728
94177SOL     OW84369   0.144   2.981   6.946
94177SOL    HW184370   0.180   2.926   7.016
94177SOL    HW284371   0.220   3.029   6.912
94178SOL     OW84372   2.252   0.022   2.587
94178SOL    HW184373   2.343  14.874   2.598
94178SOL    HW284374   2.232   0.004   2.495
94179SOL     OW84375   7.827  12.995   1.167
94179SOL    HW184376   7.803  13.081   1.133
94179SOL    HW284377   7.878  12.955   1.097
94180SOL     OW84378   0.647  14.042  12.794
94180SOL    HW184379   0.600  13.998  12.865
94180SOL    HW284380   0.714  14.094  12.838
94181SOL     OW84381   7.610   9.397  12.969
94181SOL    HW184382   7.616   9.423  13.061
94181SOL    HW284383   7.536   9.337  12.966
94182SOL     OW84384  10.441   2.684   3.673
94182SOL    HW184385  10.359   2.652   3.634
94182SOL    HW284386  10.497   2.606   3.677
94183SOL     OW84387   4.370  11.273  10.089
94183SOL    HW184388   4.411  11.359  10.096
94183SOL    HW284389   4.277  11.291  10.080
94184SOL     OW84390  14.073   7.967   4.806
94184SOL    HW184391  14.117   7.929   4.883
94184SOL    HW284392  14.080   8.061   4.818
94185SOL     OW84393  10.360   9.916   2.142
94185SOL    HW184394  10.333   9.987   2.200
94185SOL    HW284395  10.382   9.960   2.059
94186SOL     OW84396  14.153   6.395   8.208
94186SOL    HW184397  14.099   6.375   8.284
94186SOL    HW284398  14.139   6.489   8.194
94187SOL     OW84399   9.591   3.266   5.461
94187SOL    HW184400   9.535   3.244   5.535
94187SOL    HW284401   9.680   3.249   5.491
94188SOL     OW84402   1.204   6.796   2.074
94188SOL    HW184403   1.181   6.729   2.011
94188SOL    HW284404   1.270   6.850   2.030
94189SOL     OW84405   2.657  12.578   0.045
94189SOL    HW184406   2.607  12.612  14.850
94189SOL    HW284407   2.720  12.518   0.006
94190SOL     OW84408   9.972   3.320   1.296
94190SOL    HW184409  10.065   3.325   1.272
94190SOL    HW284410   9.925   3.329   1.213
94191SOL     OW84411   5.061   5.307  10.679
94191SOL    HW184412   5.114   5.229  10.694
94191SOL    HW284413   5.088   5.367  10.749
94192SOL     OW84414  12.754   5.402  13.508
94192SOL    HW184415  12.805   5.337  13.459
94192SOL    HW284416  12.808   5.481  13.505
94193SOL     OW84417   1.418   2.076   7.627
94193SOL    HW184418   1.357   2.002   7.623
94193SOL    HW284419   1.436   2.088   7.720
94194SOL     OW84420  13.035  10.002   5.522
94194SOL    HW184421  13.001   9.937   5.461
94194SOL    HW284422  13.035   9.957   5.607
94195SOL     OW84423   7.787   5.204   5.804
94195SOL    HW184424   7.732   5.225   5.879
94195SOL    HW284425   7.793   5.286   5.755
94196SOL     OW84426   2.872   8.195   7.728
94196SOL    HW184427   2.864   8.277   7.776
94196SOL    HW284428   2.861   8.219   7.636
94197SOL     OW84429   9.308  12.410  10.246
94197SOL    HW184430   9.303  12.412  10.150
94197SOL    HW284431   9.232  12.359  10.273
94198SOL     OW84432  14.116   8.519   4.448
94198SOL    HW184433  14.117   8.605   4.406
94198SOL    HW284434  14.148   8.535   4.536
94199SOL     OW84435  11.691  10.683  13.347
94199SOL    HW184436  11.777  10.642  13.341
94199SOL    HW284437  11.636  10.633  13.287
94200SOL     OW84438   8.893   5.347   7.974
94200SOL    HW184439   8.856   5.421   8.023
94200SOL    HW284440   8.967   5.318   8.028
94201SOL     OW84441   5.403   7.469   3.002
94201SOL    HW184442   5.489   7.500   2.972
94201SOL    HW284443   5.388   7.389   2.951
94202SOL     OW84444   4.465   3.004  14.159
94202SOL    HW184445   4.536   3.058  14.195
94202SOL    HW284446   4.462   3.027  14.066
94203SOL     OW84447   4.416  11.566  12.268
94203SOL    HW184448   4.477  11.637  12.249
94203SOL    HW284449   4.352  11.570  12.196
94204SOL     OW84450   9.126   4.541   6.936
94204SOL    HW184451   9.061   4.491   6.985
94204SOL    HW284452   9.184   4.578   7.003
94205SOL     OW84453  13.438   5.331   1.320
94205SOL    HW184454  13.358   5.327   1.372
94205SOL    HW284455  13.492   5.259   1.352
94206SOL     OW84456   2.003  10.486   7.193
94206SOL    HW184457   1.922  10.451   7.155
94206SOL    HW284458   2.067  10.415   7.181
94207SOL     OW84459   5.505  14.667   3.705
94207SOL    HW184460   5.428  14.703   3.750
94207SOL    HW284461   5.575  14.728   3.726
94208SOL     OW84462  10.390   8.804   3.555
94208SOL    HW184463  10.339   8.820   3.475
94208SOL    HW284464  10.437   8.722   3.537
94209SOL     OW84465   7.625   9.442  11.747
94209SOL    HW184466   7.680   9.413  11.820
94209SOL    HW284467   7.686   9.451  11.674
94210SOL     OW84468   8.754  13.957  12.956
94210SOL    HW184469   8.707  13.887  12.911
94210SOL    HW284470   8.691  14.030  12.959
94211SOL     OW84471   1.201   2.025   4.246
94211SOL    HW184472   1.147   1.995   4.319
94211SOL    HW284473   1.179   2.118   4.237
94212SOL     OW84474   5.316  11.298   3.515
94212SOL    HW184475   5.401  11.300   3.471
94212SOL    HW284476   5.337  11.282   3.607
94213SOL     OW84477   4.774   4.028   8.403
94213SOL    HW184478   4.703   3.964   8.394
94213SOL    HW284479   4.841   3.997   8.342
94214SOL     OW84480   1.629   4.241   2.374
94214SOL    HW184481   1.693   4.219   2.442
94214SOL    HW284482   1.680   4.244   2.293
94215SOL     OW84483  10.233   1.102   2.125
94215SOL    HW184484  10.203   1.104   2.216
94215SOL    HW284485  10.252   1.010   2.108
94216SOL     OW84486  10.903  12.267  14.076
94216SOL    HW184487  10.835  12.334  14.077
94216SOL    HW284488  10.878  12.207  14.006
94217SOL     OW84489   5.541  10.834   2.555
94217SOL    HW184490   5.530  10.767   2.623
94217SOL    HW284491   5.463  10.889   2.563
94218SOL     OW84492   0.482   8.082  13.575
94218SOL    HW184493   0.531   8.126  13.645
94218SOL    HW284494   0.390   8.094  13.599
94219SOL     OW84495   1.904   6.017   9.395
94219SOL    HW184496   1.965   6.051   9.460
94219SOL    HW284497   1.864   5.941   9.437
94220SOL     OW84498  14.708   9.915   0.733
94220SOL    HW184499  14.803   9.918   0.743
94220SOL    HW284500  14.680  10.006   0.739
94221SOL     OW84501   3.258   6.896  14.263
94221SOL    HW184502   3.256   6.865  14.172
94221SOL    HW284503   3.344   6.870  14.295
94222SOL     OW84504   1.158  14.054   2.212
94222SOL    HW184505   1.083  14.112   2.211
94222SOL    HW284506   1.134  13.983   2.272
94223SOL     OW84507   0.791   3.409   2.903
94223SOL    HW184508   0.795   3.416   2.998
94223SOL    HW284509   0.801   3.316   2.885
94224SOL     OW84510   9.325  14.072  10.741
94224SOL    HW184511   9.307  14.102  10.652
94224SOL    HW284512   9.398  14.011  10.732
94225SOL     OW84513   3.437  13.442   0.162
94225SOL    HW184514   3.383  13.506   0.116
94225SOL    HW284515   3.520  13.486   0.177
94226SOL     OW84516  14.015   1.084  11.691
94226SOL    HW184517  14.045   1.000  11.728
94226SOL    HW284518  13.922   1.088  11.714
94227SOL     OW84519  11.015   7.100   0.901
94227SOL    HW184520  11.050   7.064   0.983
94227SOL    HW284521  10.950   7.164   0.929
94228SOL     OW84522   1.952  10.824   8.097
94228SOL    HW184523   1.870  10.824   8.047
94228SOL    HW284524   2.015  10.780   8.040
94229SOL     OW84525   1.279  11.065   6.127
94229SOL    HW184526   1.326  11.005   6.184
94229SOL    HW284527   1.221  11.114   6.186
94230SOL     OW84528   9.216  13.418  12.904
94230SOL    HW184529   9.311  13.415  12.904
94230SOL    HW284530   9.192  13.432  12.812
94231SOL     OW84531  13.588   7.390   1.528
94231SOL    HW184532  13.542   7.307   1.512
94231SOL    HW284533  13.572   7.409   1.620
94232SOL     OW84534  12.840   4.344  14.622
94232SOL    HW184535  12.868   4.272  14.678
94232SOL    HW284536  12.751   4.363  14.650
94233SOL     OW84537  14.709   6.873  13.577
94233SOL    HW184538  14.721   6.914  13.491
94233SOL    HW284539  14.615   6.863  13.586
94234SOL     OW84540  13.649   2.832   4.303
94234SOL    HW184541  13.653   2.740   4.327
94234SOL    HW284542  13.734   2.868   4.328
94235SOL     OW84543  11.268   5.702   1.847
94235SOL    HW184544  11.333   5.631   1.848
94235SOL    HW284545  11.314   5.777   1.810
94236SOL     OW84546   1.455  12.473   2.616
94236SOL    HW184547   1.544  12.506   2.620
94236SOL    HW284548   1.435  12.448   2.706
94237SOL     OW84549   3.132   7.982   6.447
94237SOL    HW184550   3.057   7.933   6.413
94237SOL    HW284551   3.173   7.922   6.509
94238SOL     OW84552   1.794   9.835   2.139
94238SOL    HW184553   1.865   9.893   2.110
94238SOL    HW284554   1.769   9.870   2.224
94239SOL     OW84555   4.875  13.404  10.237
94239SOL    HW184556   4.878  13.429  10.329
94239SOL    HW284557   4.962  13.369  10.218
94240SOL     OW84558  14.618   5.794  10.289
94240SOL    HW184559  14.694   5.741  10.264
94240SOL    HW284560  14.543   5.743  10.259
94241SOL     OW84561  13.329  10.658   3.844
94241SOL    HW184562  13.420  10.648   3.872
94241SOL    HW284563  13.278  10.620   3.916
94242SOL     OW84564   5.801   9.595   1.368
94242SOL    HW184565   5.798   9.662   1.436
94242SOL    HW284566   5.811   9.513   1.415
94243SOL     OW84567  10.800  12.170   5.982
94243SOL    HW184568  10.795  12.098   5.919
94243SOL    HW284569  10.720  12.162   6.034
94244SOL     OW84570  12.019   7.415  14.331
94244SOL    HW184571  11.934   7.370  14.330
94244SOL    HW284572  12.066   7.374  14.404
94245SOL     OW84573   1.924  10.982   6.054
94245SOL    HW184574   1.878  10.898   6.053
94245SOL    HW284575   1.907  11.019   5.967
94246SOL     OW84576   5.886  11.178   2.205
94246SOL    HW184577   5.804  11.227   2.200
94246SOL    HW284578   5.890  11.129   2.122
94247SOL     OW84579   5.573   0.703   3.923
94247SOL    HW184580   5.584   0.697   4.018
94247SOL    HW284581   5.569   0.796   3.905
94248SOL     OW84582   7.979   7.442   9.323
94248SOL    HW184583   7.913   7.375   9.340
94248SOL    HW284584   7.937   7.525   9.346
94249SOL     OW84585   4.203  14.080   2.579
94249SOL    HW184586   4.248  14.122   2.652
94249SOL    HW284587   4.127  14.135   2.561
94250SOL     OW84588   2.661   9.020   6.180
94250SOL    HW184589   2.736   8.961   6.191
94250SOL    HW284590   2.680   9.093   6.238
94251SOL     OW84591  11.339   5.936   8.344
94251SOL    HW184592  11.338   5.840   8.345
94251SOL    HW284593  11.272   5.960   8.280
94252SOL     OW84594   5.273  12.657   9.721
94252SOL    HW184595   5.204  12.703   9.768
94252SOL    HW284596   5.302  12.719   9.653
94253SOL     OW84597   5.612  14.423   2.420
94253SOL    HW184598   5.546  14.478   2.462
94253SOL    HW284599   5.695  14.452   2.456
94254SOL     OW84600  12.546   9.773   2.312
94254SOL    HW184601  12.551   9.730   2.227
94254SOL    HW284602  12.477   9.839   2.301
94255SOL     OW84603  12.050  13.608  11.840
94255SOL    HW184604  12.100  13.585  11.762
94255SOL    HW284605  11.959  13.607  11.812
94256SOL     OW84606  10.990   6.021  12.173
94256SOL    HW184607  11.075   5.981  12.153
94256SOL    HW284608  10.969   5.989  12.261
94257SOL     OW84609   8.136   9.219   8.233
94257SOL    HW184610   8.046   9.242   8.255
94257SOL    HW284611   8.182   9.303   8.229
94258SOL     OW84612  12.243   6.393   3.133
94258SOL    HW184613  12.191   6.315   3.154
94258SOL    HW284614  12.260   6.385   3.039
94259SOL     OW84615  10.457  13.360   2.045
94259SOL    HW184616  10.415  13.283   2.083
94259SOL    HW284617  10.529  13.325   1.992
94260SOL     OW84618   2.292   7.383  13.447
94260SOL    HW184619   2.202   7.417  13.443
94260SOL    HW284620   2.343   7.455  13.486
94261SOL     OW84621   2.197   4.639  10.045
94261SOL    HW184622   2.141   4.569  10.079
94261SOL    HW284623   2.177   4.715  10.099
94262SOL     OW84624  13.099   9.382  13.452
94262SOL    HW184625  13.174   9.357  13.506
94262SOL    HW284626  13.136   9.443  13.387
94263SOL     OW84627  12.613   6.580  10.015
94263SOL    HW184628  12.605   6.624  10.100
94263SOL    HW284629  12.650   6.495  10.036
94264SOL     OW84630   1.756   2.811   2.085
94264SOL    HW184631   1.764   2.871   2.010
94264SOL    HW284632   1.782   2.864   2.160
94265SOL     OW84633  12.470   2.651  12.308
94265SOL    HW184634  12.402   2.593  12.274
94265SOL    HW284635  12.537   2.593  12.343
94266SOL     OW84636  11.504   0.894   3.535
94266SOL    HW184637  11.453   0.933   3.465
94266SOL    HW284638  11.440   0.855   3.594
94267SOL     OW84639   2.167   7.116  12.103
94267SOL    HW184640   2.136   7.137  12.015
94267SOL    HW284641   2.192   7.200  12.140
94268SOL     OW84642   2.346   2.714   2.385
94268SOL    HW184643   2.390   2.799   2.390
94268SOL    HW284644   2.418   2.652   2.372
94269SOL     OW84645   0.251  10.245  11.716
94269SOL    HW184646   0.248  10.224  11.622
94269SOL    HW284647   0.199  10.176  11.757
94270SOL     OW84648  12.478   4.887   1.751
94270SOL    HW184649  12.563   4.922   1.723
94270SOL    HW284650  12.438   4.959   1.801
94271SOL     OW84651   6.824   6.151   1.906
94271SOL    HW184652   6.855   6.239   1.883
94271SOL    HW284653   6.903   6.096   1.901
94272SOL     OW84654   5.440   9.874  10.409
94272SOL    HW184655   5.465   9.842  10.322
94272SOL    HW284656   5.520   9.914  10.443
94273SOL     OW84657  14.107   5.850   3.679
94273SOL    HW184658  14.201   5.870   3.679
94273SOL    HW284659  14.067   5.926   3.637
94274SOL     OW84660  13.229   7.184   9.472
94274SOL    HW184661  13.222   7.122   9.399
94274SOL    HW284662  13.184   7.140   9.544
94275SOL     OW84663   9.604   7.050  13.582
94275SOL    HW184664   9.563   7.044  13.668
94275SOL    HW284665   9.693   7.081  13.600
94276SOL     OW84666  11.722   1.576   0.568
94276SOL    HW184667  11.772   1.651   0.601
94276SOL    HW284668  11.650   1.617   0.520
94277SOL     OW84669   8.646   8.769   8.102
94277SOL    HW184670   8.569   8.716   8.121
94277SOL    HW284671   8.611   8.854   8.077
94278SOL     OW84672   2.099   9.631  10.717
94278SOL    HW184673   2.060   9.549  10.688
94278SOL    HW284674   2.027   9.678  10.758
94279SOL     OW84675  11.913  10.809  12.371
94279SOL    HW184676  11.939  10.901  12.367
94279SOL    HW284677  11.818  10.809  12.358
94280SOL     OW84678  14.394   3.403   9.652
94280SOL    HW184679  14.441   3.469   9.703
94280SOL    HW284680  14.305   3.438   9.644
94281SOL     OW84681  11.755   6.988   0.845
94281SOL    HW184682  11.799   6.950   0.920
94281SOL    HW284683  11.668   7.013   0.877
94282SOL     OW84684   6.492  14.002  11.820
94282SOL    HW184685   6.402  13.999  11.853
94282SOL    HW284686   6.529  14.080  11.862
94283SOL     OW84687   0.922  12.374   1.231
94283SOL    HW184688   0.948  12.317   1.304
94283SOL    HW284689   0.909  12.315   1.157
94284SOL     OW84690   4.096   5.917   0.656
94284SOL    HW184691   4.001   5.915   0.663
94284SOL    HW284692   4.115   5.994   0.602
94285SOL     OW84693  10.787  11.903  14.877
94285SOL    HW184694  10.831  11.931  14.796
94285SOL    HW284695  10.825  11.958   0.066
94286SOL     OW84696  12.088  12.363  11.427
94286SOL    HW184697  12.071  12.415  11.349
94286SOL    HW284698  12.005  12.361  11.474
94287SOL     OW84699   2.167   3.170   9.242
94287SOL    HW184700   2.246   3.191   9.293
94287SOL    HW284701   2.198   3.117   9.169
94288SOL     OW84702  12.885  12.298   4.062
94288SOL    HW184703  12.900  12.337   3.976
94288SOL    HW284704  12.960  12.241   4.076
94289SOL     OW84705   0.430  13.749  10.230
94289SOL    HW184706   0.381  13.667  10.232
94289SOL    HW284707   0.521  13.723  10.236
94290SOL     OW84708   9.595  14.146   7.115
94290SOL    HW184709   9.507  14.182   7.121
94290SOL    HW284710   9.624  14.168   7.026
94291SOL     OW84711   5.865   8.503   4.370
94291SOL    HW184712   5.917   8.509   4.290
94291SOL    HW284713   5.926   8.523   4.441
94292SOL     OW84714   7.076   0.340  12.949
94292SOL    HW184715   7.109   0.312  12.864
94292SOL    HW284716   7.050   0.259  12.993
94293SOL     OW84717   3.761   5.207  11.275
94293SOL    HW184718   3.748   5.249  11.190
94293SOL    HW284719   3.677   5.164  11.293
94294SOL     OW84720  11.476  10.962  10.765
94294SOL    HW184721  11.516  10.883  10.728
94294SOL    HW284722  11.534  10.986  10.837
94295SOL     OW84723   3.254   0.661   2.221
94295SOL    HW184724   3.254   0.573   2.182
94295SOL    HW284725   3.335   0.701   2.190
94296SOL     OW84726  14.705  12.770   0.765
94296SOL    HW184727  14.754  12.757   0.847
94296SOL    HW284728  14.623  12.723   0.778
94297SOL     OW84729  12.031   3.931  10.541
94297SOL    HW184730  12.079   3.862  10.496
94297SOL    HW284731  11.950   3.890  10.570
94298SOL     OW84732  11.283   1.081  12.668
94298SOL    HW184733  11.317   1.080  12.757
94298SOL    HW284734  11.338   1.146  12.623
94299SOL     OW84735   9.600   1.562   8.798
94299SOL    HW184736   9.609   1.570   8.703
94299SOL    HW284737   9.634   1.645   8.832
94300SOL     OW84738   9.949   3.830   3.626
94300SOL    HW184739  10.013   3.759   3.628
94300SOL    HW284740   9.891   3.808   3.554
94301SOL     OW84741   4.127   9.908  12.444
94301SOL    HW184742   4.189   9.974  12.474
94301SOL    HW284743   4.177   9.850  12.387
94302SOL     OW84744  10.708   9.378   0.297
94302SOL    HW184745  10.661   9.449   0.253
94302SOL    HW284746  10.671   9.298   0.260
94303SOL     OW84747   6.523  14.626   5.208
94303SOL    HW184748   6.490  14.704   5.163
94303SOL    HW284749   6.568  14.576   5.140
94304SOL     OW84750   5.092   9.565  14.688
94304SOL    HW184751   5.124   9.639  14.740
94304SOL    HW284752   5.117   9.488  14.739
94305SOL     OW84753   5.239   9.832  12.971
94305SOL    HW184754   5.270   9.781  12.896
94305SOL    HW284755   5.232   9.921  12.937
94306SOL     OW84756   6.130   4.491   5.781
94306SOL    HW184757   6.111   4.401   5.807
94306SOL    HW284758   6.123   4.541   5.862
94307SOL     OW84759   8.245   4.127   1.683
94307SOL    HW184760   8.293   4.208   1.697
94307SOL    HW284761   8.244   4.115   1.588
94308SOL     OW84762   9.667  11.393   9.563
94308SOL    HW184763   9.579  11.424   9.585
94308SOL    HW284764   9.726  11.457   9.603
94309SOL     OW84765  10.361   6.296   3.982
94309SOL    HW184766  10.390   6.387   3.993
94309SOL    HW284767  10.322   6.273   4.066
94310SOL     OW84768   1.783   8.769   0.643
94310SOL    HW184769   1.705   8.826   0.641
94310SOL    HW284770   1.808   8.760   0.552
94311SOL     OW84771   6.857   5.680   7.875
94311SOL    HW184772   6.935   5.634   7.908
94311SOL    HW284773   6.821   5.621   7.808
94312SOL     OW84774   8.960   1.316  13.921
94312SOL    HW184775   8.871   1.329  13.889
94312SOL    HW284776   9.014   1.373  13.866
94313SOL     OW84777  10.475  14.221   7.476
94313SOL    HW184778  10.496  14.129   7.491
94313SOL    HW284779  10.392  14.220   7.429
94314SOL     OW84780   6.581   6.745   9.538
94314SOL    HW184781   6.589   6.829   9.583
94314SOL    HW284782   6.651   6.745   9.474
94315SOL     OW84783   1.234   4.179  10.904
94315SOL    HW184784   1.266   4.249  10.961
94315SOL    HW284785   1.192   4.117  10.963
94316SOL     OW84786   0.334  13.204  14.015
94316SOL    HW184787   0.408  13.219  13.956
94316SOL    HW284788   0.257  13.225  13.962
94317SOL     OW84789   0.822   1.176   0.212
94317SOL    HW184790   0.815   1.202   0.304
94317SOL    HW284791   0.862   1.088   0.215
94318SOL     OW84792  12.339  11.680  12.617
94318SOL    HW184793  12.245  11.675  12.598
94318SOL    HW284794  12.368  11.761  12.576
94319SOL     OW84795   0.212   8.880  10.654
94319SOL    HW184796   0.143   8.886  10.720
94319SOL    HW284797   0.171   8.909  10.573
94320SOL     OW84798   9.967   3.167  14.705
94320SOL    HW184799   9.971   3.072  14.719
94320SOL    HW284800   9.923   3.177  14.621
94321SOL     OW84801   3.988   3.029   3.409
94321SOL    HW184802   4.063   3.016   3.350
94321SOL    HW284803   3.982   3.124   3.420
94322SOL     OW84804   9.197  11.718   1.133
94322SOL    HW184805   9.230  11.701   1.221
94322SOL    HW284806   9.107  11.748   1.147
94323SOL     OW84807  11.755   9.754   1.174
94323SOL    HW184808  11.823   9.814   1.144
94323SOL    HW284809  11.765   9.677   1.118
94324SOL     OW84810   3.161   6.058  13.669
94324SOL    HW184811   3.084   6.072  13.614
94324SOL    HW284812   3.146   5.973  13.710
94325SOL     OW84813  13.438   0.389   6.195
94325SOL    HW184814  13.471   0.306   6.160
94325SOL    HW284815  13.449   0.381   6.290
94326SOL     OW84816   2.690  11.565   3.950
94326SOL    HW184817   2.783  11.562   3.926
94326SOL    HW284818   2.649  11.617   3.881
94327SOL     OW84819   6.724   7.484   0.513
94327SOL    HW184820   6.674   7.458   0.590
94327SOL    HW284821   6.718   7.579   0.510
94328SOL     OW84822   4.585   7.642  10.976
94328SOL    HW184823   4.604   7.687  10.894
94328SOL    HW284824   4.546   7.709  11.032
94329SOL     OW84825   3.828  13.240  14.767
94329SOL    HW184826   3.855  13.331  14.759
94329SOL    HW284827   3.757  13.242  14.831
94330SOL     OW84828   3.625  13.870  11.881
94330SOL    HW184829   3.648  13.789  11.835
94330SOL    HW284830   3.705  13.895  11.927
94331SOL     OW84831   2.597  10.899  12.466
94331SOL    HW184832   2.555  10.945  12.394
94331SOL    HW284833   2.597  10.962  12.538
94332SOL     OW84834   7.645   3.882  11.349
94332SOL    HW184835   7.640   3.834  11.432
94332SOL    HW284836   7.554   3.904  11.328
94333SOL     OW84837   1.779   2.187   7.076
94333SOL    HW184838   1.728   2.199   6.996
94333SOL    HW284839   1.846   2.122   7.051
94334SOL     OW84840   5.556   9.267  13.745
94334SOL    HW184841   5.487   9.253  13.681
94334SOL    HW284842   5.554   9.362  13.761
94335SOL     OW84843  14.198   9.467   9.321
94335SOL    HW184844  14.140   9.518   9.377
94335SOL    HW284845  14.273   9.446   9.378
94336SOL     OW84846  10.909   6.859  12.754
94336SOL    HW184847  10.836   6.920  12.745
94336SOL    HW284848  10.869   6.772  12.748
94337SOL     OW84849  13.086   1.830   1.336
94337SOL    HW184850  13.171   1.840   1.293
94337SOL    HW284851  13.089   1.890   1.411
94338SOL     OW84852  12.067  13.226   7.932
94338SOL    HW184853  12.007  13.253   7.862
94338SOL    HW284854  12.109  13.307   7.960
94339SOL     OW84855   2.787   5.029  12.572
94339SOL    HW184856   2.803   5.004  12.482
94339SOL    HW284857   2.829   5.115  12.581
94340SOL     OW84858   8.510   9.669  13.584
94340SOL    HW184859   8.452   9.613  13.532
94340SOL    HW284860   8.488   9.648  13.675
94341SOL     OW84861   1.640   7.029   2.893
94341SOL    HW184862   1.578   6.956   2.900
94341SOL    HW284863   1.604   7.096   2.952
94342SOL     OW84864   9.991   6.041   1.528
94342SOL    HW184865   9.916   6.101   1.530
94342SOL    HW284866  10.050   6.074   1.596
94343SOL     OW84867   9.375   2.070   8.607
94343SOL    HW184868   9.416   2.139   8.556
94343SOL    HW284869   9.325   2.116   8.675
94344SOL     OW84870   3.852  11.046  11.471
94344SOL    HW184871   3.864  10.951  11.467
94344SOL    HW284872   3.775  11.058  11.527
94345SOL     OW84873   8.815   9.680  10.566
94345SOL    HW184874   8.846   9.739  10.634
94345SOL    HW284875   8.801   9.736  10.490
94346SOL     OW84876   7.284  12.711   2.713
94346SOL    HW184877   7.190  12.729   2.716
94346SOL    HW284878   7.294  12.627   2.757
94347SOL     OW84879  13.776  10.173  10.525
94347SOL    HW184880  13.838  10.118  10.476
94347SOL    HW284881  13.783  10.259  10.484
94348SOL     OW84882   6.397   8.798  10.504
94348SOL    HW184883   6.467   8.860  10.487
94348SOL    HW284884   6.321   8.833  10.458
94349SOL     OW84885   8.672  10.276   3.952
94349SOL    HW184886   8.719  10.360   3.951
94349SOL    HW284887   8.597  10.290   3.894
94350SOL     OW84888   1.604  13.190   8.102
94350SOL    HW184889   1.590  13.247   8.177
94350SOL    HW284890   1.666  13.238   8.047
94351SOL     OW84891   0.954   2.250   4.190
94351SOL    HW184892   0.945   2.218   4.100
94351SOL    HW284893   0.970   2.344   4.181
94352SOL     OW84894   6.961   6.025   2.212
94352SOL    HW184895   6.981   6.076   2.291
94352SOL    HW284896   6.868   6.004   2.220
94353SOL     OW84897   3.711  12.981  14.488
94353SOL    HW184898   3.761  12.917  14.437
94353SOL    HW284899   3.742  12.970  14.577
94354SOL     OW84900   1.113   3.944   9.040
94354SOL    HW184901   1.059   4.021   9.060
94354SOL    HW284902   1.190   3.980   8.996
94355SOL     OW84903   2.658   0.146  12.374
94355SOL    HW184904   2.742   0.101  12.368
94355SOL    HW284905   2.609   0.119  12.296
94356SOL     OW84906  11.447  12.432  13.619
94356SOL    HW184907  11.521  12.476  13.577
94356SOL    HW284908  11.407  12.499  13.674
94357SOL     OW84909   8.104   7.476  12.752
94357SOL    HW184910   8.088   7.382  12.748
94357SOL    HW284911   8.060   7.512  12.675
94358SOL     OW84912   1.161   0.427   1.578
94358SOL    HW184913   1.077   0.405   1.618
94358SOL    HW284914   1.152   0.520   1.555
94359SOL     OW84915   3.803   1.703  13.754
94359SOL    HW184916   3.795   1.765  13.682
94359SOL    HW284917   3.894   1.673  13.750
94360SOL     OW84918   1.473  13.729  13.287
94360SOL    HW184919   1.420  13.662  13.243
94360SOL    HW284920   1.415  13.806  13.291
94361SOL     OW84921  13.701  13.579   7.505
94361SOL    HW184922  13.786  13.571   7.460
94361SOL    HW284923  13.641  13.610   7.437
94362SOL     OW84924   1.044  12.762   1.945
94362SOL    HW184925   0.998  12.724   1.870
94362SOL    HW284926   1.114  12.815   1.906
94363SOL     OW84927   0.259  13.289   8.751
94363SOL    HW184928   0.287  13.317   8.664
94363SOL    HW284929   0.164  13.300   8.751
94364SOL     OW84930  14.187   4.420   5.095
94364SOL    HW184931  14.118   4.466   5.048
94364SOL    HW284932  14.195   4.336   5.049
94365SOL     OW84933   2.091   0.214  10.731
94365SOL    HW184934   2.139   0.173  10.802
94365SOL    HW284935   2.011   0.248  10.772
94366SOL     OW84936   2.695   6.161   3.366
94366SOL    HW184937   2.673   6.188   3.277
94366SOL    HW284938   2.612   6.166   3.414
94367SOL     OW84939   8.103  14.450   1.196
94367SOL    HW184940   8.121  14.377   1.137
94367SOL    HW284941   8.063  14.409   1.273
94368SOL     OW84942  13.688   4.482  12.531
94368SOL    HW184943  13.689   4.576  12.516
94368SOL    HW284944  13.620   4.448  12.472
94369SOL     OW84945  10.744   6.284  12.947
94369SOL    HW184946  10.672   6.249  12.896
94369SOL    HW284947  10.721   6.263  13.038
94370SOL     OW84948   4.808   0.346   8.025
94370SOL    HW184949   4.720   0.326   8.058
94370SOL    HW284950   4.851   0.261   8.019
94371SOL     OW84951   7.150   5.592  12.853
94371SOL    HW184952   7.141   5.548  12.937
94371SOL    HW284953   7.068   5.575  12.808
94372SOL     OW84954  14.157  13.330   8.597
94372SOL    HW184955  14.165  13.420   8.628
94372SOL    HW284956  14.078  13.330   8.543
94373SOL     OW84957   5.671  12.850  14.313
94373SOL    HW184958   5.715  12.861  14.230
94373SOL    HW284959   5.596  12.793  14.293
94374SOL     OW84960   5.584   1.259   0.359
94374SOL    HW184961   5.537   1.339   0.384
94374SOL    HW284962   5.599   1.269   0.265
94375SOL     OW84963  13.845   7.621  13.228
94375SOL    HW184964  13.844   7.716  13.221
94375SOL    HW284965  13.837   7.604  13.322
94376SOL     OW84966  10.024   5.060   3.175
94376SOL    HW184967   9.987   5.140   3.212
94376SOL    HW284968  10.085   5.029   3.242
94377SOL     OW84969   7.654  10.399  12.138
94377SOL    HW184970   7.676  10.306  12.135
94377SOL    HW284971   7.710  10.440  12.072
94378SOL     OW84972  11.510   7.893  10.839
94378SOL    HW184973  11.493   7.954  10.768
94378SOL    HW284974  11.599   7.861  10.822
94379SOL     OW84975   3.813  14.297  13.456
94379SOL    HW184976   3.721  14.322  13.466
94379SOL    HW284977   3.819  14.264  13.366
94380SOL     OW84978  13.153   4.149   9.772
94380SOL    HW184979  13.073   4.189   9.808
94380SOL    HW284980  13.215   4.150   9.845
94381SOL     OW84981   5.756   1.509  14.104
94381SOL    HW184982   5.668   1.493  14.072
94381SOL    HW284983   5.765   1.605  14.101
94382SOL     OW84984  11.060   8.667  13.457
94382SOL    HW184985  11.035   8.635  13.543
94382SOL    HW284986  10.988   8.725  13.432
94383SOL     OW84987  14.084  12.362   1.757
94383SOL    HW184988  14.048  12.323   1.836
94383SOL    HW284989  14.107  12.288   1.701
94384SOL     OW84990   2.496  13.400  10.086
94384SOL    HW184991   2.589  13.378  10.098
94384SOL    HW284992   2.457  13.321  10.051
94385SOL     OW84993  13.366   1.979   1.002
94385SOL    HW184994  13.289   2.017   0.961
94385SOL    HW284995  13.434   2.046   0.992
94386SOL     OW84996  12.424   8.357   2.812
94386SOL    HW184997  12.384   8.274   2.789
94386SOL    HW284998  12.351   8.420   2.811
94387SOL     OW84999  13.956  13.541   1.823
94387SOL    HW185000  14.026  13.589   1.868
94387SOL    HW285001  13.974  13.449   1.841
94388SOL     OW85002   9.281   8.382   2.924
94388SOL    HW185003   9.290   8.381   3.019
94388SOL    HW285004   9.236   8.300   2.903
94389SOL     OW85005   6.732  11.337   0.357
94389SOL    HW185006   6.717  11.428   0.383
94389SOL    HW285007   6.823  11.336   0.326
94390SOL     OW85008  12.779   1.819  12.224
94390SOL    HW185009  12.792   1.881  12.152
94390SOL    HW285010  12.834   1.744  12.201
94391SOL     OW85011  10.828   5.339  11.525
94391SOL    HW185012  10.747   5.389  11.542
94391SOL    HW285013  10.879   5.349  11.605
94392SOL     OW85014   9.463   6.852   0.462
94392SOL    HW185015   9.454   6.946   0.446
94392SOL    HW285016   9.417   6.811   0.389
94393SOL     OW85017   9.724   1.243  13.032
94393SOL    HW185018   9.669   1.297  12.974
94393SOL    HW285019   9.662   1.180  13.071
94394SOL     OW85020  10.784  13.685  13.580
94394SOL    HW185021  10.845  13.629  13.627
94394SOL    HW285022  10.790  13.770  13.624
94395SOL     OW85023   1.906   6.417   3.785
94395SOL    HW185024   1.864   6.452   3.864
94395SOL    HW285025   1.998   6.443   3.794
94396SOL     OW85026   3.013  14.847   6.959
94396SOL    HW185027   3.070  14.871   7.032
94396SOL    HW285028   3.033   0.031   6.890
94397SOL     OW85029  12.733  14.469   2.894
94397SOL    HW185030  12.763  14.546   2.942
94397SOL    HW285031  12.649  14.447   2.935
94398SOL     OW85032   2.769   9.991   6.204
94398SOL    HW185033   2.743  10.031   6.120
94398SOL    HW285034   2.816  10.060   6.250
94399SOL     OW85035   2.091  14.215   6.231
94399SOL    HW185036   2.069  14.250   6.317
94399SOL    HW285037   2.184  14.237   6.219
94400SOL     OW85038  11.209  12.347  13.519
94400SOL    HW185039  11.273  12.388  13.578
94400SOL    HW285040  11.144  12.416  13.503
94401SOL     OW85041   5.007   3.245  10.007
94401SOL    HW185042   5.097   3.260   9.978
94401SOL    HW285043   4.975   3.175   9.950
94402SOL     OW85044   1.949   6.163  12.690
94402SOL    HW185045   1.961   6.196  12.600
94402SOL    HW285046   1.933   6.242  12.742
94403SOL     OW85047   0.801   7.673   5.423
94403SOL    HW185048   0.787   7.752   5.371
94403SOL    HW285049   0.896   7.664   5.428
94404SOL     OW85050  12.223  10.137   0.988
94404SOL    HW185051  12.313  10.104   0.989
94404SOL    HW285052  12.186  10.108   1.071
94405SOL     OW85053   6.030   7.228   8.842
94405SOL    HW185054   5.986   7.143   8.832
94405SOL    HW285055   6.002   7.279   8.766
94406SOL     OW85056   6.637  14.365   4.465
94406SOL    HW185057   6.680  14.383   4.381
94406SOL    HW285058   6.687  14.292   4.502
94407SOL     OW85059   6.272   3.580   1.190
94407SOL    HW185060   6.311   3.581   1.102
94407SOL    HW285061   6.333   3.629   1.244
94408SOL     OW85062   0.002  13.350   7.602
94408SOL    HW185063   0.030  13.296   7.677
94408SOL    HW285064  14.857  13.434   7.641
94409SOL     OW85065   9.188   3.610   3.756
94409SOL    HW185066   9.270   3.605   3.707
94409SOL    HW285067   9.212   3.655   3.838
94410SOL     OW85068  12.401   4.598   0.555
94410SOL    HW185069  12.496   4.605   0.553
94410SOL    HW285070  12.380   4.526   0.495
94411SOL     OW85071   0.907  13.046   8.979
94411SOL    HW185072   0.948  13.014   9.059
94411SOL    HW285073   0.857  13.123   9.007
94412SOL     OW85074  10.867   4.449   6.401
94412SOL    HW185075  10.901   4.375   6.352
94412SOL    HW285076  10.871   4.422   6.493
94413SOL     OW85077   0.984  13.689   9.994
94413SOL    HW185078   0.953  13.761   9.938
94413SOL    HW285079   1.034  13.632   9.935
94414SOL     OW85080  11.464   4.785   6.773
94414SOL    HW185081  11.499   4.737   6.848
94414SOL    HW285082  11.500   4.740   6.697
94415SOL     OW85083   9.732   8.578   4.860
94415SOL    HW185084   9.778   8.506   4.817
94415SOL    HW285085   9.655   8.538   4.899
94416SOL     OW85086  12.604   9.271   9.552
94416SOL    HW185087  12.567   9.226   9.629
94416SOL    HW285088  12.695   9.240   9.548
94417SOL     OW85089   7.397   3.166  10.274
94417SOL    HW185090   7.389   3.164  10.370
94417SOL    HW285091   7.490   3.183  10.259
94418SOL     OW85092   0.596  14.314   3.056
94418SOL    HW185093   0.513  14.327   3.008
94418SOL    HW285094   0.642  14.247   3.005
94419SOL     OW85095  12.699  14.703  10.579
94419SOL    HW185096  12.749  14.644  10.635
94419SOL    HW285097  12.610  14.667  10.580
94420SOL     OW85098   8.389   2.574  12.286
94420SOL    HW185099   8.476   2.575  12.245
94420SOL    HW285100   8.379   2.485  12.319
94421SOL     OW85101  14.311  14.744   6.746
94421SOL    HW185102  14.319  14.831   6.786
94421SOL    HW285103  14.239  14.754   6.683
94422SOL     OW85104  14.100  12.080  12.463
94422SOL    HW185105  14.086  12.174  12.478
94422SOL    HW285106  14.189  12.075  12.427
94423SOL     OW85107   9.159  11.260   6.586
94423SOL    HW185108   9.125  11.278   6.674
94423SOL    HW285109   9.185  11.168   6.590
94424SOL     OW85110   9.036   6.039  14.477
94424SOL    HW185111   9.124   6.053  14.443
94424SOL    HW285112   9.024   5.944  14.475
94425SOL     OW85113  12.664  10.103   7.667
94425SOL    HW185114  12.570  10.100   7.649
94425SOL    HW285115  12.671  10.151   7.750
94426SOL     OW85116  12.160  10.813   4.218
94426SOL    HW185117  12.120  10.748   4.160
94426SOL    HW285118  12.241  10.771   4.248
94427SOL     OW85119   8.486   1.456  12.282
94427SOL    HW185120   8.496   1.425  12.372
94427SOL    HW285121   8.478   1.551  12.291
94428SOL     OW85122  12.439  12.742   6.982
94428SOL    HW185123  12.370  12.760   7.046
94428SOL    HW285124  12.513  12.713   7.035
94429SOL     OW85125  13.416   0.403  10.504
94429SOL    HW185126  13.370   0.370  10.581
94429SOL    HW285127  13.439   0.325  10.453
94430SOL     OW85128   5.003   7.472   4.988
94430SOL    HW185129   5.029   7.412   4.918
94430SOL    HW285130   5.060   7.549   4.977
94431SOL     OW85131  10.495   1.770   4.848
94431SOL    HW185132  10.427   1.726   4.797
94431SOL    HW285133  10.554   1.699   4.875
94432SOL     OW85134   1.421   3.422  10.778
94432SOL    HW185135   1.443   3.492  10.839
94432SOL    HW285136   1.343   3.381  10.815
94433SOL     OW85137   1.408   2.567   0.142
94433SOL    HW185138   1.354   2.489   0.156
94433SOL    HW285139   1.483   2.535   0.092
94434SOL     OW85140  12.728   8.699   7.915
94434SOL    HW185141  12.762   8.619   7.955
94434SOL    HW285142  12.803   8.737   7.869
94435SOL     OW85143   1.364  13.899   7.688
94435SOL    HW185144   1.410  13.849   7.621
94435SOL    HW285145   1.271  13.884   7.670
94436SOL     OW85146   9.770  12.778   1.601
94436SOL    HW185147   9.759  12.700   1.547
94436SOL    HW285148   9.846  12.823   1.564
94437SOL     OW85149   8.084   5.067   7.887
94437SOL    HW185150   8.058   5.159   7.895
94437SOL    HW285151   8.094   5.053   7.793
94438SOL     OW85152  14.405   5.445  13.002
94438SOL    HW185153  14.354   5.505  12.947
94438SOL    HW285154  14.368   5.457  13.090
94439SOL     OW85155  14.193   7.685   0.451
94439SOL    HW185156  14.288   7.683   0.435
94439SOL    HW285157  14.155   7.638   0.377
94440SOL     OW85158   6.944   4.150   7.148
94440SOL    HW185159   6.872   4.128   7.088
94440SOL    HW285160   6.935   4.088   7.220
94441SOL     OW85161  14.213   7.459   2.040
94441SOL    HW185162  14.265   7.460   1.960
94441SOL    HW285163  14.173   7.372   2.042
94442SOL     OW85164  11.814   2.852   0.693
94442SOL    HW185165  11.755   2.823   0.762
94442SOL    HW285166  11.834   2.773   0.643
94443SOL     OW85167  11.998   3.091  12.181
94443SOL    HW185168  11.991   3.003  12.218
94443SOL    HW285169  12.070   3.084  12.118
94444SOL     OW85170   6.958   0.798   3.682
94444SOL    HW185171   6.870   0.835   3.677
94444SOL    HW285172   6.976   0.767   3.593
94445SOL     OW85173  12.472   4.557   8.545
94445SOL    HW185174  12.412   4.507   8.602
94445SOL    HW285175  12.426   4.563   8.462
94446SOL     OW85176   3.007   7.443  12.848
94446SOL    HW185177   2.992   7.486  12.764
94446SOL    HW285178   2.948   7.487  12.909
94447SOL     OW85179  12.163   0.705   7.924
94447SOL    HW185180  12.076   0.673   7.950
94447SOL    HW285181  12.190   0.645   7.854
94448SOL     OW85182   9.071   2.247   4.891
94448SOL    HW185183   9.083   2.223   4.799
94448SOL    HW285184   9.112   2.175   4.939
94449SOL     OW85185  11.807  10.360   8.469
94449SOL    HW185186  11.845  10.298   8.406
94449SOL    HW285187  11.782  10.436   8.417
94450SOL     OW85188  12.606   3.828  12.543
94450SOL    HW185189  12.540   3.839  12.611
94450SOL    HW285190  12.653   3.911  12.541
94451SOL     OW85191   9.209  13.438  12.619
94451SOL    HW185192   9.250  13.411  12.537
94451SOL    HW285193   9.115  13.437  12.600
94452SOL     OW85194   8.247   0.021   5.247
94452SOL    HW185195   8.276   0.065   5.326
94452SOL    HW285196   8.169   0.070   5.219
94453SOL     OW85197  10.794   1.548   9.284
94453SOL    HW185198  10.861   1.487   9.316
94453SOL    HW285199  10.721   1.537   9.344
94454SOL     OW85200   0.266  13.723  11.266
94454SOL    HW185201   0.344  13.674  11.292
94454SOL    HW285202   0.288  13.757  11.179
94455SOL     OW85203   8.925  11.343   3.493
94455SOL    HW185204   8.940  11.251   3.471
94455SOL    HW285205   8.968  11.392   3.423
94456SOL     OW85206  12.363  13.998   8.772
94456SOL    HW185207  12.312  13.946   8.834
94456SOL    HW285208  12.299  14.028   8.708
94457SOL     OW85209  13.966   3.255  10.385
94457SOL    HW185210  13.988   3.193  10.316
94457SOL    HW285211  13.893   3.215  10.432
94458SOL     OW85212   0.715   5.031   7.205
94458SOL    HW185213   0.734   5.106   7.261
94458SOL    HW285214   0.709   4.957   7.266
94459SOL     OW85215   1.718   5.588   9.247
94459SOL    HW185216   1.669   5.511   9.218
94459SOL    HW285217   1.651   5.655   9.262
94460SOL     OW85218  14.478   7.166   5.676
94460SOL    HW185219  14.460   7.192   5.586
94460SOL    HW285220  14.419   7.220   5.729
94461SOL     OW85221   3.706   4.920   2.146
94461SOL    HW185222   3.658   4.977   2.085
94461SOL    HW285223   3.793   4.959   2.152
94462SOL     OW85224   0.296  13.566   8.027
94462SOL    HW185225   0.232  13.525   7.969
94462SOL    HW285226   0.331  13.494   8.080
94463SOL     OW85227   3.509  12.034  14.717
94463SOL    HW185228   3.513  11.938  14.717
94463SOL    HW285229   3.587  12.061  14.765
94464SOL     OW85230   0.493   4.901   4.272
94464SOL    HW185231   0.402   4.887   4.245
94464SOL    HW285232   0.542   4.831   4.229
94465SOL     OW85233   8.187   5.397   7.907
94465SOL    HW185234   8.205   5.406   8.000
94465SOL    HW285235   8.121   5.464   7.889
94466SOL     OW85236   0.414  13.643   2.790
94466SOL    HW185237   0.336  13.614   2.838
94466SOL    HW285238   0.453  13.710   2.845
94467SOL     OW85239   5.465  14.079   7.271
94467SOL    HW185240   5.544  14.129   7.250
94467SOL    HW285241   5.425  14.063   7.185
94468SOL     OW85242   7.453   9.284   8.927
94468SOL    HW185243   7.390   9.323   8.988
94468SOL    HW285244   7.475   9.354   8.866
94469SOL     OW85245   7.029  13.798   0.021
94469SOL    HW185246   6.943  13.826   0.054
94469SOL    HW285247   7.088  13.868   0.050
94470SOL     OW85248   7.440   7.470   3.420
94470SOL    HW185249   7.456   7.467   3.326
94470SOL    HW285250   7.521   7.438   3.460
94471SOL     OW85251   0.419   4.163   0.388
94471SOL    HW185252   0.439   4.247   0.346
94471SOL    HW285253   0.450   4.173   0.478
94472SOL     OW85254   8.873   7.843   9.620
94472SOL    HW185255   8.826   7.812   9.697
94472SOL    HW285256   8.954   7.791   9.619
94473SOL     OW85257   9.927   8.031   1.424
94473SOL    HW185258   9.985   8.054   1.497
94473SOL    HW285259   9.844   8.074   1.445
94474SOL     OW85260   3.380   4.668   0.530
94474SOL    HW185261   3.317   4.699   0.594
94474SOL    HW285262   3.404   4.747   0.480
94475SOL     OW85263   0.610   3.362  10.395
94475SOL    HW185264   0.631   3.272  10.420
94475SOL    HW285265   0.661   3.377  10.315
94476SOL     OW85266   3.566   3.187   9.853
94476SOL    HW185267   3.569   3.227   9.939
94476SOL    HW285268   3.648   3.214   9.811
94477SOL     OW85269   9.033   6.422   7.387
94477SOL    HW185270   9.009   6.514   7.391
94477SOL    HW285271   9.123   6.419   7.420
94478SOL     OW85272  13.513  10.268   0.321
94478SOL    HW185273  13.584  10.270   0.386
94478SOL    HW285274  13.433  10.272   0.373
94479SOL     OW85275   3.714   1.747   2.264
94479SOL    HW185276   3.659   1.795   2.325
94479SOL    HW285277   3.774   1.697   2.320
94480SOL     OW85278   8.113   2.660   7.973
94480SOL    HW185279   8.131   2.658   7.880
94480SOL    HW285280   8.017   2.654   7.979
94481SOL     OW85281  12.675   3.986   4.002
94481SOL    HW185282  12.647   3.983   3.911
94481SOL    HW285283  12.665   4.078   4.027
94482SOL     OW85284  11.310  11.979   6.616
94482SOL    HW185285  11.361  11.915   6.665
94482SOL    HW285286  11.330  11.961   6.524
94483SOL     OW85287   1.065  14.804   2.833
94483SOL    HW185288   1.020  14.737   2.781
94483SOL    HW285289   1.085  14.761   2.916
94484SOL     OW85290   9.095   2.708   1.576
94484SOL    HW185291   9.095   2.800   1.550
94484SOL    HW285292   9.096   2.659   1.493
94485SOL     OW85293   2.895   9.687  13.587
94485SOL    HW185294   2.865   9.647  13.668
94485SOL    HW285295   2.928   9.773  13.613
94486SOL     OW85296  10.689   8.722   4.758
94486SOL    HW185297  10.664   8.746   4.668
94486SOL    HW285298  10.724   8.802   4.795
94487SOL     OW85299   9.288   6.317   5.800
94487SOL    HW185300   9.310   6.227   5.776
94487SOL    HW285301   9.268   6.313   5.894
94488SOL     OW85302   6.309   4.351  13.081
94488SOL    HW185303   6.247   4.280  13.097
94488SOL    HW285304   6.373   4.314  13.020
94489SOL     OW85305   6.064   2.060  11.032
94489SOL    HW185306   5.998   2.114  11.076
94489SOL    HW285307   6.037   2.061  10.940
94490SOL     OW85308   5.217   0.993   3.437
94490SOL    HW185309   5.250   0.990   3.527
94490SOL    HW285310   5.293   0.973   3.383
94491SOL     OW85311  10.930  10.171   7.383
94491SOL    HW185312  11.015  10.206   7.360
94491SOL    HW285313  10.903  10.222   7.460
94492SOL     OW85314   6.314   7.346   3.935
94492SOL    HW185315   6.294   7.401   4.011
94492SOL    HW285316   6.404   7.316   3.950
94493SOL     OW85317   0.419  12.673   5.247
94493SOL    HW185318   0.445  12.659   5.338
94493SOL    HW285319   0.446  12.593   5.201
94494SOL     OW85320   9.924   3.549  10.817
94494SOL    HW185321   9.917   3.588  10.903
94494SOL    HW285322   9.983   3.606  10.768
94495SOL     OW85323   0.874   8.123   3.653
94495SOL    HW185324   0.954   8.070   3.649
94495SOL    HW285325   0.803   8.059   3.659
94496SOL     OW85326   6.228  11.830   4.761
94496SOL    HW185327   6.255  11.800   4.848
94496SOL    HW285328   6.156  11.772   4.737
94497SOL     OW85329   6.579   7.463   4.578
94497SOL    HW185330   6.645   7.480   4.645
94497SOL    HW285331   6.523   7.395   4.615
94498SOL     OW85332  11.740   8.220   8.461
94498SOL    HW185333  11.798   8.296   8.464
94498SOL    HW285334  11.659   8.254   8.422
94499SOL     OW85335   9.195   9.357   1.971
94499SOL    HW185336   9.108   9.394   1.987
94499SOL    HW285337   9.208   9.295   2.042
94500SOL     OW85338   1.211  12.832  10.675
94500SOL    HW185339   1.161  12.751  10.671
94500SOL    HW285340   1.299  12.808  10.647
94501SOL     OW85341   9.499   0.373   6.758
94501SOL    HW185342   9.433   0.399   6.822
94501SOL    HW285343   9.459   0.298   6.713
94502SOL     OW85344  12.282   6.180  10.422
94502SOL    HW185345  12.255   6.170  10.330
94502SOL    HW285346  12.355   6.120  10.432
94503SOL     OW85347   9.787   2.681   7.573
94503SOL    HW185348   9.802   2.764   7.619
94503SOL    HW285349   9.874   2.653   7.545
94504SOL     OW85350   2.972   6.438   8.385
94504SOL    HW185351   2.965   6.421   8.291
94504SOL    HW285352   2.995   6.353   8.423
94505SOL     OW85353   1.593   8.718   9.802
94505SOL    HW185354   1.644   8.682   9.729
94505SOL    HW285355   1.502   8.709   9.775
94506SOL     OW85356  11.812   2.455  12.527
94506SOL    HW185357  11.752   2.386  12.498
94506SOL    HW285358  11.899   2.422  12.504
94507SOL     OW85359   4.877  13.575   7.583
94507SOL    HW185360   4.960  13.534   7.561
94507SOL    HW285361   4.820  13.557   7.508
94508SOL     OW85362   2.654  14.070   4.482
94508SOL    HW185363   2.695  14.081   4.568
94508SOL    HW285364   2.572  14.120   4.488
94509SOL     OW85365  12.286   5.364  11.978
94509SOL    HW185366  12.201   5.399  11.951
94509SOL    HW285367  12.264   5.286  12.030
94510SOL     OW85368  13.540   6.700  10.022
94510SOL    HW185369  13.489   6.722   9.945
94510SOL    HW285370  13.629   6.730  10.002
94511SOL     OW85371   5.441   3.951   5.749
94511SOL    HW185372   5.492   3.878   5.784
94511SOL    HW285373   5.364   3.910   5.709
94512SOL     OW85374  11.629   6.619   8.391
94512SOL    HW185375  11.724   6.625   8.390
94512SOL    HW285376  11.604   6.626   8.299
94513SOL     OW85377  13.733  10.452   9.277
94513SOL    HW185378  13.770  10.447   9.365
94513SOL    HW285379  13.725  10.361   9.248
94514SOL     OW85380  11.096   2.370  10.034
94514SOL    HW185381  11.098   2.278  10.062
94514SOL    HW285382  11.003   2.393  10.033
94515SOL     OW85383   2.206  10.932  10.543
94515SOL    HW185384   2.247  11.012  10.574
94515SOL    HW285385   2.277  10.884  10.499
94516SOL     OW85386   0.330  12.283  11.665
94516SOL    HW185387   0.248  12.324  11.639
94516SOL    HW285388   0.376  12.267  11.583
94517SOL     OW85389  13.206  13.304   8.282
94517SOL    HW185390  13.151  13.289   8.205
94517SOL    HW285391  13.171  13.245   8.348
94518SOL     OW85392   4.006   4.915  12.736
94518SOL    HW185393   4.025   5.006  12.758
94518SOL    HW285394   4.092   4.876  12.720
94519SOL     OW85395   9.805   4.376  12.917
94519SOL    HW185396   9.721   4.335  12.898
94519SOL    HW285397   9.868   4.304  12.917
94520SOL     OW85398   3.126   1.792   2.397
94520SOL    HW185399   3.180   1.721   2.433
94520SOL    HW285400   3.048   1.794   2.453
94521SOL     OW85401   4.773   4.008  11.349
94521SOL    HW185402   4.844   4.072  11.342
94521SOL    HW285403   4.806   3.940  11.407
94522SOL     OW85404   3.162   3.992   7.399
94522SOL    HW185405   3.070   4.001   7.373
94522SOL    HW285406   3.191   3.910   7.359
94523SOL     OW85407   2.171  13.345  12.135
94523SOL    HW185408   2.216  13.324  12.217
94523SOL    HW285409   2.097  13.283  12.132
94524SOL     OW85410  10.603  13.844  11.988
94524SOL    HW185411  10.614  13.750  12.000
94524SOL    HW285412  10.691  13.878  11.976
94525SOL     OW85413  14.582   6.041  12.189
94525SOL    HW185414  14.585   6.019  12.096
94525SOL    HW285415  14.489   6.037  12.211
94526SOL     OW85416   9.925   3.798   0.883
94526SOL    HW185417   9.866   3.725   0.900
94526SOL    HW285418   9.871   3.876   0.890
94527SOL     OW85419   7.939   0.116   4.414
94527SOL    HW185420   7.987   0.079   4.488
94527SOL    HW285421   7.966   0.208   4.412
94528SOL     OW85422  11.872   2.444  13.623
94528SOL    HW185423  11.858   2.537  13.637
94528SOL    HW285424  11.849   2.402  13.706
94529SOL     OW85425  12.025  12.065   7.681
94529SOL    HW185426  12.001  12.103   7.597
94529SOL    HW285427  12.118  12.085   7.691
94530SOL     OW85428   8.899  13.301   7.872
94530SOL    HW185429   8.864  13.320   7.785
94530SOL    HW285430   8.951  13.378   7.894
94531SOL     OW85431   1.131   3.093  13.508
94531SOL    HW185432   1.122   3.057  13.596
94531SOL    HW285433   1.142   3.017  13.452
94532SOL     OW85434   3.227  14.052   9.033
94532SOL    HW185435   3.189  14.094   9.110
94532SOL    HW285436   3.152  14.012   8.988
94533SOL     OW85437   2.484   1.173   1.177
94533SOL    HW185438   2.401   1.178   1.129
94533SOL    HW285439   2.534   1.104   1.131
94534SOL     OW85440   3.234  11.829   1.896
94534SOL    HW185441   3.325  11.858   1.894
94534SOL    HW285442   3.211  11.825   1.989
94535SOL     OW85443   7.656   0.391  13.456
94535SOL    HW185444   7.668   0.296  13.457
94535SOL    HW285445   7.561   0.404  13.453
94536SOL     OW85446  11.576   5.193   7.459
94536SOL    HW185447  11.574   5.111   7.509
94536SOL    HW285448  11.560   5.261   7.524
94537SOL     OW85449   9.159   4.157   5.416
94537SOL    HW185450   9.125   4.168   5.505
94537SOL    HW285451   9.119   4.076   5.384
94538SOL     OW85452   5.062   3.530   4.258
94538SOL    HW185453   5.089   3.529   4.350
94538SOL    HW285454   5.107   3.606   4.221
94539SOL     OW85455   9.481   2.523   1.289
94539SOL    HW185456   9.448   2.542   1.201
94539SOL    HW285457   9.534   2.444   1.279
94540SOL     OW85458  13.802   7.142  10.847
94540SOL    HW185459  13.824   7.076  10.782
94540SOL    HW285460  13.886   7.163  10.889
94541SOL     OW85461   5.929  12.098   3.009
94541SOL    HW185462   5.964  12.157   2.942
94541SOL    HW285463   6.006  12.067   3.057
94542SOL     OW85464   9.581   9.334  13.122
94542SOL    HW185465   9.605   9.386  13.199
94542SOL    HW285466   9.578   9.398  13.051
94543SOL     OW85467  14.683  10.234   5.869
94543SOL    HW185468  14.714  10.278   5.790
94543SOL    HW285469  14.613  10.177   5.839
94544SOL     OW85470   5.947  14.090  11.108
94544SOL    HW185471   6.002  14.057  11.178
94544SOL    HW285472   5.913  14.173  11.141
94545SOL     OW85473  14.102   0.742  10.388
94545SOL    HW185474  14.067   0.683  10.455
94545SOL    HW285475  14.056   0.825  10.404
94546SOL     OW85476   0.878  11.539   5.607
94546SOL    HW185477   0.954  11.536   5.549
94546SOL    HW285478   0.915  11.557   5.694
94547SOL     OW85479  13.760   3.523   3.716
94547SOL    HW185480  13.833   3.500   3.774
94547SOL    HW285481  13.751   3.448   3.658
94548SOL     OW85482  11.818   0.910  10.380
94548SOL    HW185483  11.904   0.868  10.391
94548SOL    HW285484  11.828   0.965  10.303
94549SOL     OW85485   4.966   9.707   1.906
94549SOL    HW185486   4.935   9.708   1.996
94549SOL    HW285487   4.992   9.797   1.888
94550SOL     OW85488   7.641   0.645  12.289
94550SOL    HW185489   7.700   0.624  12.361
94550SOL    HW285490   7.681   0.720  12.246
94551SOL     OW85491   8.899  14.107   3.430
94551SOL    HW185492   8.826  14.074   3.483
94551SOL    HW285493   8.888  14.065   3.345
94552SOL     OW85494   8.044   5.674   7.794
94552SOL    HW185495   8.063   5.673   7.700
94552SOL    HW285496   8.025   5.766   7.813
94553SOL     OW85497  12.895   3.568   0.488
94553SOL    HW185498  12.948   3.497   0.451
94553SOL    HW285499  12.890   3.546   0.581
94554SOL     OW85500   7.367  10.976   0.656
94554SOL    HW185501   7.443  11.025   0.686
94554SOL    HW285502   7.402  10.891   0.629
94555SOL     OW85503   9.682   5.838   4.762
94555SOL    HW185504   9.725   5.809   4.843
94555SOL    HW285505   9.721   5.784   4.694
94556SOL     OW85506   7.036   5.184   1.150
94556SOL    HW185507   6.965   5.236   1.113
94556SOL    HW285508   7.007   5.094   1.141
94557SOL     OW85509  13.408   5.924   1.126
94557SOL    HW185510  13.418   5.836   1.089
94557SOL    HW285511  13.354   5.971   1.062
94558SOL     OW85512  11.202   4.877   1.628
94558SOL    HW185513  11.213   4.936   1.703
94558SOL    HW285514  11.115   4.839   1.640
94559SOL     OW85515   6.512  11.515   7.564
94559SOL    HW185516   6.478  11.496   7.476
94559SOL    HW285517   6.554  11.434   7.591
94560SOL     OW85518   7.385   8.442   1.982
94560SOL    HW185519   7.306   8.434   2.034
94560SOL    HW285520   7.423   8.526   2.007
94561SOL     OW85521  11.862   5.777   4.329
94561SOL    HW185522  11.836   5.691   4.362
94561SOL    HW285523  11.798   5.838   4.365
94562SOL     OW85524  11.476   5.496   6.304
94562SOL    HW185525  11.544   5.431   6.287
94562SOL    HW285526  11.410   5.480   6.236
94563SOL     OW85527   4.471   6.691   0.660
94563SOL    HW185528   4.490   6.731   0.745
94563SOL    HW285529   4.536   6.729   0.601
94564SOL     OW85530  13.259   8.412  14.648
94564SOL    HW185531  13.219   8.354  14.582
94564SOL    HW285532  13.322   8.356  14.693
94565SOL     OW85533   2.493   5.326   8.975
94565SOL    HW185534   2.490   5.301   8.883
94565SOL    HW285535   2.461   5.249   9.022
94566SOL     OW85536   1.136   3.997   7.427
94566SOL    HW185537   1.209   4.058   7.433
94566SOL    HW285538   1.058   4.050   7.448
94567SOL     OW85539  14.045   1.533   4.890
94567SOL    HW185540  14.068   1.609   4.838
94567SOL    HW285541  13.987   1.567   4.958
94568SOL     OW85542   8.210   6.938   1.192
94568SOL    HW185543   8.222   7.032   1.202
94568SOL    HW285544   8.123   6.929   1.151
94569SOL     OW85545  12.478  13.251   5.214
94569SOL    HW185546  12.492  13.302   5.294
94569SOL    HW285547  12.391  13.214   5.224
94570SOL     OW85548  13.833   2.403   1.827
94570SOL    HW185549  13.815   2.422   1.919
94570SOL    HW285550  13.918   2.359   1.827
94571SOL     OW85551   6.104  12.824   2.670
94571SOL    HW185552   6.162  12.799   2.598
94571SOL    HW285553   6.021  12.846   2.626
94572SOL     OW85554  12.268   5.112   4.273
94572SOL    HW185555  12.180   5.097   4.308
94572SOL    HW285556  12.265   5.202   4.239
94573SOL     OW85557  10.312  11.545   2.289
94573SOL    HW185558  10.304  11.485   2.215
94573SOL    HW285559  10.383  11.605   2.264
94574SOL     OW85560  11.113  13.778   8.951
94574SOL    HW185561  11.120  13.826   9.033
94574SOL    HW285562  11.031  13.810   8.912
94575SOL     OW85563   5.231   0.134   0.401
94575SOL    HW185564   5.218   0.113   0.309
94575SOL    HW285565   5.312   0.186   0.403
94576SOL     OW85566   5.260   4.052  10.967
94576SOL    HW185567   5.181   4.032  10.916
94576SOL    HW285568   5.236   4.027  11.057
94577SOL     OW85569  13.233  12.031  13.952
94577SOL    HW185570  13.245  12.114  13.907
94577SOL    HW285571  13.322  12.002  13.973
94578SOL     OW85572   0.637   0.355  12.468
94578SOL    HW185573   0.671   0.312  12.547
94578SOL    HW285574   0.643   0.288  12.400
94579SOL     OW85575   2.167   9.585   2.908
94579SOL    HW185576   2.165   9.674   2.943
94579SOL    HW285577   2.256   9.575   2.874
94580SOL     OW85578   7.633   5.122  11.366
94580SOL    HW185579   7.640   5.066  11.289
94580SOL    HW285580   7.554   5.092  11.411
94581SOL     OW85581  12.218  13.107   2.480
94581SOL    HW185582  12.201  13.048   2.553
94581SOL    HW285583  12.170  13.187   2.501
94582SOL     OW85584  14.317  11.978  14.217
94582SOL    HW185585  14.362  11.938  14.143
94582SOL    HW285586  14.344  12.070  14.215
94583SOL     OW85587  10.286  13.453  11.766
94583SOL    HW185588  10.287  13.534  11.715
94583SOL    HW285589  10.320  13.386  11.706
94584SOL     OW85590  13.301   4.932  11.735
94584SOL    HW185591  13.256   4.875  11.798
94584SOL    HW285592  13.317   4.876  11.659
94585SOL     OW85593   3.756  14.243   8.120
94585SOL    HW185594   3.829  14.298   8.149
94585SOL    HW285595   3.730  14.194   8.198
94586SOL     OW85596   8.440   3.996   0.320
94586SOL    HW185597   8.482   4.070   0.277
94586SOL    HW285598   8.347   4.015   0.315
94587SOL     OW85599   0.551  11.810   1.383
94587SOL    HW185600   0.527  11.726   1.343
94587SOL    HW285601   0.642  11.799   1.410
94588SOL     OW85602   1.439   2.832  12.841
94588SOL    HW185603   1.467   2.752  12.885
94588SOL    HW285604   1.520   2.875  12.816
94589SOL     OW85605  13.948   3.492  10.724
94589SOL    HW185606  13.884   3.422  10.713
94589SOL    HW285607  13.957   3.503  10.818
94590SOL     OW85608  10.338  12.739   6.434
94590SOL    HW185609  10.262  12.681   6.437
94590SOL    HW285610  10.387  12.717   6.513
94591SOL     OW85611   2.130  13.422   1.546
94591SOL    HW185612   2.057  13.483   1.554
94591SOL    HW285613   2.091  13.335   1.558
94592SOL     OW85614  12.877   6.039   4.641
94592SOL    HW185615  12.800   6.095   4.642
94592SOL    HW285616  12.862   5.977   4.570
94593SOL     OW85617   4.948  11.521   5.269
94593SOL    HW185618   4.928  11.428   5.282
94593SOL    HW285619   4.955  11.557   5.357
94594SOL     OW85620   1.529  13.450  11.670
94594SOL    HW185621   1.608  13.478  11.717
94594SOL    HW285622   1.490  13.383  11.727
94595SOL     OW85623   8.395   1.852   0.268
94595SOL    HW185624   8.433   1.931   0.307
94595SOL    HW285625   8.313   1.881   0.228
94596SOL     OW85626   6.800  11.700  10.594
94596SOL    HW185627   6.771  11.700  10.502
94596SOL    HW285628   6.785  11.790  10.624
94597SOL     OW85629   4.498   5.804   6.482
94597SOL    HW185630   4.464   5.823   6.569
94597SOL    HW285631   4.566   5.738   6.498
94598SOL     OW85632   8.276   3.416   6.710
94598SOL    HW185633   8.285   3.338   6.764
94598SOL    HW285634   8.256   3.487   6.771
94599SOL     OW85635   0.777   9.956   6.393
94599SOL    HW185636   0.697   9.939   6.343
94599SOL    HW285637   0.807  10.042   6.363
94600SOL     OW85638   8.750   3.872  14.769
94600SOL    HW185639   8.751   3.901  14.860
94600SOL    HW285640   8.743   3.952  14.718
94601SOL     OW85641   9.564  13.478   7.330
94601SOL    HW185642   9.493  13.482   7.267
94601SOL    HW285643   9.575  13.568   7.360
94602SOL     OW85644   7.371  14.516   2.398
94602SOL    HW185645   7.307  14.582   2.425
94602SOL    HW285646   7.325  14.433   2.405
94603SOL     OW85647  14.793   9.236   4.457
94603SOL    HW185648  14.848   9.176   4.508
94603SOL    HW285649  14.824   9.226   4.367
94604SOL     OW85650  11.082   1.913   9.636
94604SOL    HW185651  11.078   1.893   9.543
94604SOL    HW285652  11.015   1.979   9.651
94605SOL     OW85653  12.619  13.948  14.026
94605SOL    HW185654  12.645  13.956  14.117
94605SOL    HW285655  12.701  13.948  13.977
94606SOL     OW85656   2.156   3.197   1.884
94606SOL    HW185657   2.116   3.273   1.841
94606SOL    HW285658   2.102   3.183   1.962
94607SOL     OW85659  14.137   1.833   9.589
94607SOL    HW185660  14.105   1.817   9.500
94607SOL    HW285661  14.076   1.898   9.625
94608SOL     OW85662  13.748  13.633   3.727
94608SOL    HW185663  13.760  13.721   3.693
94608SOL    HW285664  13.788  13.575   3.662
94609SOL     OW85665  10.255  12.326   1.261
94609SOL    HW185666  10.308  12.324   1.182
94609SOL    HW285667  10.220  12.415   1.265
94610SOL     OW85668  10.222   2.208  11.025
94610SOL    HW185669  10.228   2.131  11.082
94610SOL    HW285670  10.292   2.266  11.056
94611SOL     OW85671  11.272   2.355  10.922
94611SOL    HW185672  11.314   2.279  10.881
94611SOL    HW285673  11.217   2.391  10.853
94612SOL     OW85674   6.910   6.320   5.574
94612SOL    HW185675   6.941   6.410   5.580
94612SOL    HW285676   6.981   6.267   5.612
94613SOL     OW85677   2.482   9.886   5.863
94613SOL    HW185678   2.475   9.897   5.958
94613SOL    HW285679   2.540   9.958   5.836
94614SOL     OW85680   8.992   8.668   7.878
94614SOL    HW185681   8.985   8.761   7.855
94614SOL    HW285682   8.910   8.629   7.847
94615SOL     OW85683   8.316   3.505   0.707
94615SOL    HW185684   8.360   3.449   0.643
94615SOL    HW285685   8.358   3.590   0.698
94616SOL     OW85686  13.421  11.973  14.733
94616SOL    HW185687  13.407  11.954  14.641
94616SOL    HW285688  13.363  12.047  14.752
94617SOL     OW85689   4.150  10.585  12.783
94617SOL    HW185690   4.067  10.543  12.760
94617SOL    HW285691   4.159  10.571  12.877
94618SOL     OW85692   8.856  14.383  14.642
94618SOL    HW185693   8.877  14.461  14.591
94618SOL    HW285694   8.795  14.334  14.587
94619SOL     OW85695  10.467  10.929   1.147
94619SOL    HW185696  10.543  10.931   1.206
94619SOL    HW285697  10.393  10.915   1.205
94620SOL     OW85698   6.729   1.987  12.972
94620SOL    HW185699   6.717   1.966  13.065
94620SOL    HW285700   6.713   1.905  12.926
94621SOL     OW85701   8.891   3.911  12.265
94621SOL    HW185702   8.907   4.005  12.251
94621SOL    HW285703   8.797   3.901  12.251
94622SOL     OW85704   2.820   9.490   0.608
94622SOL    HW185705   2.812   9.553   0.680
94622SOL    HW285706   2.904   9.447   0.623
94623SOL     OW85707   0.340  11.763  14.415
94623SOL    HW185708   0.396  11.717  14.353
94623SOL    HW285709   0.390  11.764  14.496
94624SOL     OW85710   4.032   6.355   7.760
94624SOL    HW185711   4.097   6.388   7.821
94624SOL    HW285712   4.079   6.343   7.678
94625SOL     OW85713   3.692   4.719   9.658
94625SOL    HW185714   3.632   4.680   9.594
94625SOL    HW285715   3.773   4.668   9.649
94626SOL     OW85716  11.969   1.523   6.138
94626SOL    HW185717  12.062   1.503   6.142
94626SOL    HW285718  11.956   1.595   6.200
94627SOL     OW85719   6.591   6.770  11.085
94627SOL    HW185720   6.570   6.723  11.004
94627SOL    HW285721   6.528   6.736  11.149
94628SOL     OW85722   0.974   2.957   5.256
94628SOL    HW185723   0.931   2.998   5.181
94628SOL    HW285724   1.014   3.031   5.303
94629SOL     OW85725  13.483   6.509   2.230
94629SOL    HW185726  13.419   6.528   2.161
94629SOL    HW285727  13.528   6.430   2.200
94630SOL     OW85728  13.236   3.071  11.051
94630SOL    HW185729  13.182   3.134  11.099
94630SOL    HW285730  13.179   3.037  10.983
94631SOL     OW85731   7.565  13.328   0.338
94631SOL    HW185732   7.581  13.402   0.396
94631SOL    HW285733   7.514  13.266   0.390
94632SOL     OW85734   7.894   1.619  11.122
94632SOL    HW185735   7.844   1.700  11.112
94632SOL    HW285736   7.982   1.647  11.146
94633SOL     OW85737   9.140   6.692  12.453
94633SOL    HW185738   9.205   6.762  12.462
94633SOL    HW285739   9.112   6.696  12.362
94634SOL     OW85740   2.176  12.593   7.916
94634SOL    HW185741   2.085  12.569   7.902
94634SOL    HW285742   2.176  12.689   7.915
94635SOL     OW85743  11.630   2.807   5.877
94635SOL    HW185744  11.680   2.825   5.797
94635SOL    HW285745  11.644   2.884   5.932
94636SOL     OW85746   1.996   5.964  14.403
94636SOL    HW185747   2.026   5.996  14.318
94636SOL    HW285748   1.946   5.885  14.383
94637SOL     OW85749   1.212   4.967  14.863
94637SOL    HW185750   1.284   5.003  14.811
94637SOL    HW285751   1.255   4.931   0.062
94638SOL     OW85752   0.475   2.691   6.164
94638SOL    HW185753   0.396   2.700   6.111
94638SOL    HW285754   0.456   2.618   6.223
94639SOL     OW85755  11.850   0.629   9.093
94639SOL    HW185756  11.765   0.673   9.103
94639SOL    HW285757  11.894   0.679   9.024
94640SOL     OW85758   6.201  14.853   9.075
94640SOL    HW185759   6.175   0.030   9.148
94640SOL    HW285760   6.188  14.764   9.109
94641SOL     OW85761   2.952   6.158   8.411
94641SOL    HW185762   2.898   6.098   8.462
94641SOL    HW285763   2.901   6.176   8.332
94642SOL     OW85764   6.050  12.065   0.162
94642SOL    HW185765   6.011  11.985   0.127
94642SOL    HW285766   5.976  12.125   0.173
94643SOL     OW85767   8.985   4.233   0.764
94643SOL    HW185768   8.945   4.161   0.812
94643SOL    HW285769   8.931   4.242   0.685
94644SOL     OW85770   4.709   8.608   2.822
94644SOL    HW185771   4.790   8.564   2.795
94644SOL    HW285772   4.645   8.537   2.829
94645SOL     OW85773  14.037  11.399   6.735
94645SOL    HW185774  14.070  11.442   6.657
94645SOL    HW285775  14.116  11.370   6.782
94646SOL     OW85776   6.695   5.531   2.430
94646SOL    HW185777   6.695   5.503   2.338
94646SOL    HW285778   6.688   5.626   2.426
94647SOL     OW85779  12.043   5.535  10.741
94647SOL    HW185780  12.052   5.441  10.757
94647SOL    HW285781  11.995   5.568  10.817
94648SOL     OW85782  12.573   5.359   2.937
94648SOL    HW185783  12.619   5.315   2.866
94648SOL    HW285784  12.641   5.376   3.002
94649SOL     OW85785   9.260   5.163  11.391
94649SOL    HW185786   9.256   5.089  11.451
94649SOL    HW285787   9.352   5.167  11.365
94650SOL     OW85788   3.903   2.476   6.587
94650SOL    HW185789   3.859   2.519   6.660
94650SOL    HW285790   3.832   2.457   6.525
94651SOL     OW85791   7.586   1.586  12.859
94651SOL    HW185792   7.658   1.569  12.919
94651SOL    HW285793   7.609   1.668  12.815
94652SOL     OW85794   3.479   1.238  11.121
94652SOL    HW185795   3.507   1.160  11.073
94652SOL    HW285796   3.493   1.216  11.213
94653SOL     OW85797   4.537   0.101   5.065
94653SOL    HW185798   4.488   0.020   5.081
94653SOL    HW285799   4.579   0.120   5.149
94654SOL     OW85800   4.830   6.842   5.062
94654SOL    HW185801   4.922   6.868   5.065
94654SOL    HW285802   4.832   6.747   5.073
94655SOL     OW85803  10.219   4.725  13.233
94655SOL    HW185804  10.239   4.794  13.169
94655SOL    HW285805  10.265   4.753  13.312
94656SOL     OW85806  10.443   1.177   5.193
94656SOL    HW185807  10.427   1.098   5.245
94656SOL    HW285808  10.384   1.169   5.118
94657SOL     OW85809   1.856   9.268  14.535
94657SOL    HW185810   1.824   9.315  14.613
94657SOL    HW285811   1.804   9.188  14.532
94658SOL     OW85812   1.025  11.163   7.575
94658SOL    HW185813   0.933  11.172   7.598
94658SOL    HW285814   1.032  11.197   7.486
94659SOL     OW85815  11.897   7.447   7.902
94659SOL    HW185816  11.964   7.436   7.835
94659SOL    HW285817  11.861   7.534   7.886
94660SOL     OW85818   6.298   5.625  11.729
94660SOL    HW185819   6.229   5.595  11.788
94660SOL    HW285820   6.254   5.686  11.670
94661SOL     OW85821   4.039  10.866  13.420
94661SOL    HW185822   3.985  10.835  13.493
94661SOL    HW285823   4.111  10.914  13.463
94662SOL     OW85824  14.677  11.593  13.965
94662SOL    HW185825  14.761  11.624  13.930
94662SOL    HW285826  14.657  11.654  14.036
94663SOL     OW85827   5.446   1.901   6.011
94663SOL    HW185828   5.525   1.955   6.006
94663SOL    HW285829   5.375   1.961   5.990
94664SOL     OW85830   9.169  11.244   6.291
94664SOL    HW185831   9.152  11.331   6.254
94664SOL    HW285832   9.135  11.250   6.380
94665SOL     OW85833   4.671   1.503  13.960
94665SOL    HW185834   4.672   1.538  13.871
94665SOL    HW285835   4.603   1.436  13.958
94666SOL     OW85836   5.671   7.633   1.098
94666SOL    HW185837   5.748   7.588   1.133
94666SOL    HW285838   5.621   7.564   1.054
94667SOL     OW85839  11.336   1.926   8.116
94667SOL    HW185840  11.306   1.952   8.203
94667SOL    HW285841  11.256   1.921   8.064
94668SOL     OW85842  10.627   3.553   7.516
94668SOL    HW185843  10.591   3.591   7.436
94668SOL    HW285844  10.555   3.556   7.579
94669SOL     OW85845   8.834  12.904   1.216
94669SOL    HW185846   8.820  12.993   1.249
94669SOL    HW285847   8.810  12.908   1.124
94670SOL     OW85848   9.240  13.408   6.712
94670SOL    HW185849   9.315  13.461   6.738
94670SOL    HW285850   9.165  13.451   6.753
94671SOL     OW85851   3.383   5.055   8.125
94671SOL    HW185852   3.340   5.126   8.077
94671SOL    HW285853   3.476   5.064   8.103
94672SOL     OW85854   8.662   0.055   9.946
94672SOL    HW185855   8.750   0.091   9.949
94672SOL    HW285856   8.665  14.870   9.874
94673SOL     OW85857   0.403  13.228   1.563
94673SOL    HW185858   0.333  13.202   1.504
94673SOL    HW285859   0.428  13.148   1.608
94674SOL     OW85860   6.515   6.434   5.472
94674SOL    HW185861   6.527   6.372   5.401
94674SOL    HW285862   6.543   6.387   5.550
94675SOL     OW85863   2.787   5.476   8.580
94675SOL    HW185864   2.758   5.567   8.588
94675SOL    HW285865   2.778   5.456   8.487
94676SOL     OW85866  11.209   1.986  11.458
94676SOL    HW185867  11.302   1.998  11.440
94676SOL    HW285868  11.207   1.921  11.529
94677SOL     OW85869   7.360  11.537   7.166
94677SOL    HW185870   7.346  11.564   7.075
94677SOL    HW285871   7.303  11.460   7.177
94678SOL     OW85872   3.010   0.588  12.603
94678SOL    HW185873   3.060   0.652  12.553
94678SOL    HW285874   2.949   0.551  12.539
94679SOL     OW85875  12.302   5.461  14.526
94679SOL    HW185876  12.237   5.443  14.594
94679SOL    HW285877  12.336   5.375  14.502
94680SOL     OW85878  14.573  11.287   4.581
94680SOL    HW185879  14.653  11.331   4.611
94680SOL    HW285880  14.601  11.198   4.562
94681SOL     OW85881   8.872   9.130   5.447
94681SOL    HW185882   8.868   9.110   5.353
94681SOL    HW285883   8.780   9.142   5.472
94682SOL     OW85884   5.390   8.532  11.259
94682SOL    HW185885   5.335   8.461  11.291
94682SOL    HW285886   5.456   8.488  11.205
94683SOL     OW85887   7.341   2.611   7.361
94683SOL    HW185888   7.404   2.663   7.311
94683SOL    HW285889   7.273   2.589   7.298
94684SOL     OW85890   0.183   5.659  14.561
94684SOL    HW185891   0.126   5.630  14.490
94684SOL    HW285892   0.170   5.754  14.565
94685SOL     OW85893   9.456   3.570  12.963
94685SOL    HW185894   9.427   3.546  13.051
94685SOL    HW285895   9.511   3.496  12.936
94686SOL     OW85896   9.782   3.230   2.357
94686SOL    HW185897   9.697   3.265   2.383
94686SOL    HW285898   9.793   3.259   2.266
94687SOL     OW85899  11.212   8.995  13.569
94687SOL    HW185900  11.260   8.981  13.488
94687SOL    HW285901  11.257   8.942  13.634
94688SOL     OW85902   9.620  11.512   9.947
94688SOL    HW185903   9.692  11.454   9.971
94688SOL    HW285904   9.662  11.588   9.907
94689SOL     OW85905   9.290   6.568   7.858
94689SOL    HW185906   9.327   6.558   7.946
94689SOL    HW285907   9.263   6.660   7.855
94690SOL     OW85908   1.656  14.240   1.165
94690SOL    HW185909   1.643  14.296   1.088
94690SOL    HW285910   1.666  14.302   1.238
94691SOL     OW85911  13.777   3.300   8.936
94691SOL    HW185912  13.838   3.343   8.876
94691SOL    HW285913  13.794   3.207   8.926
94692SOL     OW85914   2.398   1.224  11.684
94692SOL    HW185915   2.371   1.132  11.693
94692SOL    HW285916   2.464   1.223  11.615
94693SOL     OW85917   6.922  13.037   2.538
94693SOL    HW185918   6.849  13.047   2.600
94693SOL    HW285919   6.900  12.959   2.488
94694SOL     OW85920   4.716   0.027  11.900
94694SOL    HW185921   4.718  14.812  11.885
94694SOL    HW285922   4.623   0.049  11.904
94695SOL     OW85923   8.338   2.120  11.742
94695SOL    HW185924   8.284   2.179  11.794
94695SOL    HW285925   8.374   2.058  11.804
94696SOL     OW85926   9.015   4.371  11.593
94696SOL    HW185927   9.080   4.391  11.525
94696SOL    HW285928   9.063   4.375  11.675
94697SOL     OW85929   7.275   7.773   6.342
94697SOL    HW185930   7.254   7.688   6.303
94697SOL    HW285931   7.191   7.808   6.372
94698SOL     OW85932  11.014   0.235  12.089
94698SOL    HW185933  10.964   0.239  12.170
94698SOL    HW285934  11.037   0.326  12.071
94699SOL     OW85935   8.723   3.918   5.217
94699SOL    HW185936   8.665   3.876   5.153
94699SOL    HW285937   8.682   3.901   5.302
94700SOL     OW85938   3.417  11.509  11.085
94700SOL    HW185939   3.361  11.473  11.154
94700SOL    HW285940   3.451  11.591  11.122
94701SOL     OW85941  11.317   4.231  14.328
94701SOL    HW185942  11.401   4.188  14.315
94701SOL    HW285943  11.278   4.235  14.241
94702SOL     OW85944   4.774   5.008  14.090
94702SOL    HW185945   4.744   5.097  14.073
94702SOL    HW285946   4.706   4.952  14.052
94703SOL     OW85947  10.511  11.281   2.356
94703SOL    HW185948  10.483  11.248   2.271
94703SOL    HW285949  10.436  11.330   2.389
94704SOL     OW85950   5.219   4.279  14.336
94704SOL    HW185951   5.272   4.267  14.415
94704SOL    HW285952   5.229   4.371  14.313
94705SOL     OW85953  11.176   5.294   4.747
94705SOL    HW185954  11.176   5.386   4.718
94705SOL    HW285955  11.192   5.244   4.667
94706SOL     OW85956   6.776   8.683  12.037
94706SOL    HW185957   6.741   8.753  11.982
94706SOL    HW285958   6.852   8.649  11.989
94707SOL     OW85959   1.677  10.786   8.731
94707SOL    HW185960   1.676  10.707   8.676
94707SOL    HW285961   1.770  10.810   8.737
94708SOL     OW85962   6.383   7.740   7.235
94708SOL    HW185963   6.326   7.761   7.161
94708SOL    HW285964   6.412   7.825   7.268
94709SOL     OW85965   2.953   1.453  13.172
94709SOL    HW185966   2.939   1.362  13.197
94709SOL    HW285967   2.997   1.449  13.087
94710SOL     OW85968   2.041   2.985   2.430
94710SOL    HW185969   2.087   3.063   2.461
94710SOL    HW285970   2.111   2.924   2.406
94711SOL     OW85971   5.853   5.056  10.357
94711SOL    HW185972   5.917   5.010  10.412
94711SOL    HW285973   5.900   5.076  10.276
94712SOL     OW85974   0.843   1.703   2.291
94712SOL    HW185975   0.763   1.749   2.267
94712SOL    HW285976   0.904   1.772   2.318
94713SOL     OW85977   4.313   9.422   6.908
94713SOL    HW185978   4.301   9.333   6.940
94713SOL    HW285979   4.248   9.432   6.838
94714SOL     OW85980  11.055   8.818   9.673
94714SOL    HW185981  11.068   8.729   9.641
94714SOL    HW285982  10.997   8.808   9.748
94715SOL     OW85983   5.232  10.211   9.586
94715SOL    HW185984   5.187  10.215   9.501
94715SOL    HW285985   5.242  10.302   9.612
94716SOL     OW85986   7.524  10.306   4.954
94716SOL    HW185987   7.498  10.263   4.872
94716SOL    HW285988   7.574  10.382   4.926
94717SOL     OW85989   1.946   7.027  12.304
94717SOL    HW185990   2.017   7.042  12.242
94717SOL    HW285991   1.895   6.955  12.267
94718SOL     OW85992   0.200   9.870   2.820
94718SOL    HW185993   0.173   9.893   2.731
94718SOL    HW285994   0.131   9.906   2.876
94719SOL     OW85995   9.894   8.118  14.338
94719SOL    HW185996   9.867   8.153  14.253
94719SOL    HW285997   9.898   8.195  14.394
94720SOL     OW85998   7.526  11.490   2.717
94720SOL    HW185999   7.557  11.537   2.640
94720SOL    HW286000   7.504  11.559   2.780
94721SOL     OW86001   1.770   3.450  13.711
94721SOL    HW186002   1.774   3.538  13.746
94721SOL    HW286003   1.824   3.452  13.633
94722SOL     OW86004   5.737   6.883   4.233
94722SOL    HW186005   5.693   6.851   4.154
94722SOL    HW286006   5.761   6.973   4.212
94723SOL     OW86007   7.154  13.470   3.957
94723SOL    HW186008   7.181  13.470   4.049
94723SOL    HW286009   7.195  13.391   3.921
94724SOL     OW86010   0.726   2.745   9.624
94724SOL    HW186011   0.732   2.659   9.666
94724SOL    HW286012   0.650   2.739   9.566
94725SOL     OW86013   3.394  10.364   5.317
94725SOL    HW186014   3.434  10.415   5.387
94725SOL    HW286015   3.300  10.371   5.333
94726SOL     OW86016  10.481   7.552   4.977
94726SOL    HW186017  10.395   7.536   5.016
94726SOL    HW286018  10.508   7.466   4.945
94727SOL     OW86019   3.131  10.719   6.558
94727SOL    HW186020   3.143  10.814   6.556
94727SOL    HW286021   3.217  10.683   6.539
94728SOL     OW86022   0.727   0.180  13.040
94728SOL    HW186023   0.726   0.261  12.989
94728SOL    HW286024   0.636   0.149  13.037
94729SOL     OW86025   6.651   2.422   8.977
94729SOL    HW186026   6.614   2.484   8.913
94729SOL    HW286027   6.737   2.458   8.997
94730SOL     OW86028   2.322   7.311   0.307
94730SOL    HW186029   2.394   7.373   0.293
94730SOL    HW286030   2.319   7.299   0.401
94731SOL     OW86031   5.573   0.757   6.975
94731SOL    HW186032   5.558   0.663   6.967
94731SOL    HW286033   5.665   0.768   6.953
94732SOL     OW86034  10.842   7.266  13.673
94732SOL    HW186035  10.894   7.233  13.746
94732SOL    HW286036  10.884   7.229  13.595
94733SOL     OW86037   3.394   2.045   5.976
94733SOL    HW186038   3.319   2.097   6.008
94733SOL    HW286039   3.424   2.092   5.899
94734SOL     OW86040  12.958   9.546   7.816
94734SOL    HW186041  13.045   9.506   7.806
94734SOL    HW286042  12.962   9.625   7.762
94735SOL     OW86043   9.731  12.858   5.517
94735SOL    HW186044   9.724  12.845   5.612
94735SOL    HW286045   9.823  12.882   5.503
94736SOL     OW86046   4.078   9.920   7.560
94736SOL    HW186047   4.126   9.889   7.483
94736SOL    HW286048   4.095  10.014   7.562
94737SOL     OW86049   0.294   5.213   9.726
94737SOL    HW186050   0.234   5.275   9.767
94737SOL    HW286051   0.301   5.242   9.635
94738SOL     OW86052   3.210   7.781   0.302
94738SOL    HW186053   3.234   7.802   0.392
94738SOL    HW286054   3.212   7.686   0.298
94739SOL     OW86055  14.596  12.969   9.462
94739SOL    HW186056  14.685  12.939   9.477
94739SOL    HW286057  14.599  13.011   9.376
94740SOL     OW86058  12.532   8.593   3.172
94740SOL    HW186059  12.616   8.638   3.161
94740SOL    HW286060  12.542   8.512   3.122
94741SOL     OW86061   4.916   2.589  13.350
94741SOL    HW186062   4.950   2.640  13.423
94741SOL    HW286063   4.871   2.654  13.294
94742SOL     OW86064   5.490   8.922   0.514
94742SOL    HW186065   5.499   9.018   0.510
94742SOL    HW286066   5.578   8.890   0.494
94743SOL     OW86067  10.689   8.065   0.602
94743SOL    HW186068  10.693   7.980   0.646
94743SOL    HW286069  10.676   8.128   0.673
94744SOL     OW86070   8.869  11.361   1.006
94744SOL    HW186071   8.798  11.394   1.061
94744SOL    HW286072   8.909  11.291   1.057
94745SOL     OW86073   9.373  12.043  11.173
94745SOL    HW186074   9.400  12.055  11.082
94745SOL    HW286075   9.297  12.101  11.184
94746SOL     OW86076  13.367   0.654   0.106
94746SOL    HW186077  13.300   0.622   0.045
94746SOL    HW286078  13.326   0.730   0.148
94747SOL     OW86079   9.237  10.635   3.477
94747SOL    HW186080   9.207  10.717   3.518
94747SOL    HW286081   9.163  10.608   3.422
94748SOL     OW86082  13.135  11.483   3.204
94748SOL    HW186083  13.158  11.468   3.296
94748SOL    HW286084  13.099  11.400   3.174
94749SOL     OW86085   3.768   8.907   1.216
94749SOL    HW186086   3.827   8.849   1.263
94749SOL    HW286087   3.681   8.868   1.227
94750SOL     OW86088  10.315  13.921  14.812
94750SOL    HW186089  10.289  13.965  14.732
94750SOL    HW286090  10.266  13.965   0.002
94751SOL     OW86091  13.289   3.954  13.055
94751SOL    HW186092  13.273   3.876  13.108
94751SOL    HW286093  13.286   4.027  13.117
94752SOL     OW86094  13.947   8.065   6.614
94752SOL    HW186095  13.904   8.107   6.688
94752SOL    HW286096  14.037   8.052   6.643
94753SOL     OW86097   3.107   2.417   5.694
94753SOL    HW186098   3.130   2.324   5.692
94753SOL    HW286099   3.033   2.425   5.633
94754SOL     OW86100   5.692   4.310   3.300
94754SOL    HW186101   5.751   4.384   3.313
94754SOL    HW286102   5.747   4.241   3.263
94755SOL     OW86103   7.766   2.200   7.853
94755SOL    HW186104   7.674   2.218   7.869
94755SOL    HW286105   7.776   2.107   7.873
94756SOL     OW86106  13.430  12.046  12.079
94756SOL    HW186107  13.499  12.111  12.088
94756SOL    HW286108  13.350  12.093  12.105
94757SOL     OW86109   7.064   5.203  13.252
94757SOL    HW186110   7.065   5.108  13.266
94757SOL    HW286111   7.018   5.215  13.170
94758SOL     OW86112   6.767   8.466   5.457
94758SOL    HW186113   6.744   8.442   5.547
94758SOL    HW286114   6.720   8.548   5.441
94759SOL     OW86115   9.995   8.631  10.406
94759SOL    HW186116  10.018   8.538  10.405
94759SOL    HW286117  10.021   8.661  10.493
94760SOL     OW86118  11.195   3.242   4.377
94760SOL    HW186119  11.218   3.180   4.308
94760SOL    HW286120  11.108   3.273   4.353
94761SOL     OW86121   9.421   9.740   5.758
94761SOL    HW186122   9.360   9.671   5.730
94761SOL    HW286123   9.376   9.822   5.736
94762SOL     OW86124  14.354   0.758  12.096
94762SOL    HW186125  14.260   0.770  12.104
94762SOL    HW286126  14.366   0.663  12.089
94763SOL     OW86127   0.668   6.231   3.403
94763SOL    HW186128   0.729   6.201   3.470
94763SOL    HW286129   0.665   6.159   3.340
94764SOL     OW86130  10.563  11.417   6.782
94764SOL    HW186131  10.526  11.394   6.868
94764SOL    HW286132  10.655  11.434   6.799
94765SOL     OW86133   5.038  10.492  13.832
94765SOL    HW186134   5.020  10.429  13.762
94765SOL    HW286135   4.952  10.525  13.857
94766SOL     OW86136   1.212   6.335  11.140
94766SOL    HW186137   1.220   6.241  11.123
94766SOL    HW286138   1.166   6.370  11.063
94767SOL     OW86139   3.805   5.697   9.433
94767SOL    HW186140   3.779   5.622   9.379
94767SOL    HW286141   3.724   5.726   9.474
94768SOL     OW86142  11.738  12.742  11.692
94768SOL    HW186143  11.779  12.720  11.776
94768SOL    HW286144  11.760  12.668  11.635
94769SOL     OW86145  10.889   2.505   4.920
94769SOL    HW186146  10.908   2.428   4.973
94769SOL    HW286147  10.852   2.568   4.981
94770SOL     OW86148  11.710  10.535   9.629
94770SOL    HW186149  11.793  10.580   9.644
94770SOL    HW286150  11.647  10.606   9.614
94771SOL     OW86151   2.494  10.041   3.188
94771SOL    HW186152   2.467  10.123   3.147
94771SOL    HW286153   2.485  10.057   3.282
94772SOL     OW86154   9.581   3.352  12.325
94772SOL    HW186155   9.602   3.420  12.390
94772SOL    HW286156   9.508   3.304  12.364
94773SOL     OW86157   0.292  13.244   0.907
94773SOL    HW186158   0.383  13.219   0.926
94773SOL    HW286159   0.261  13.286   0.987
94774SOL     OW86160   9.139   6.171   1.851
94774SOL    HW186161   9.117   6.264   1.839
94774SOL    HW286162   9.054   6.126   1.854
94775SOL     OW86163   7.430   9.510   7.652
94775SOL    HW186164   7.496   9.571   7.618
94775SOL    HW286165   7.346   9.549   7.626
94776SOL     OW86166  11.590   9.280   3.740
94776SOL    HW186167  11.563   9.286   3.831
94776SOL    HW286168  11.518   9.233   3.697
94777SOL     OW86169   6.279   4.967  12.475
94777SOL    HW186170   6.367   4.930  12.486
94777SOL    HW286171   6.263   4.964  12.381
94778SOL     OW86172   5.056   5.042   8.496
94778SOL    HW186173   5.148   5.042   8.524
94778SOL    HW286174   5.050   5.116   8.435
94779SOL     OW86175   7.319   4.503   2.266
94779SOL    HW186176   7.263   4.476   2.339
94779SOL    HW286177   7.258   4.533   2.199
94780SOL     OW86178  13.673   6.967   7.177
94780SOL    HW186179  13.639   7.006   7.258
94780SOL    HW286180  13.766   6.953   7.195
94781SOL     OW86181   7.488   2.834  10.996
94781SOL    HW186182   7.564   2.776  10.997
94781SOL    HW286183   7.479   2.863  11.087
94782SOL     OW86184  13.893   1.303   5.048
94782SOL    HW186185  13.885   1.219   5.002
94782SOL    HW286186  13.970   1.293   5.103
94783SOL     OW86187   5.028   3.733   2.497
94783SOL    HW186188   4.975   3.709   2.573
94783SOL    HW286189   5.099   3.669   2.495
94784SOL     OW86190   4.360  14.383   3.507
94784SOL    HW186191   4.287  14.321   3.497
94784SOL    HW286192   4.400  14.358   3.591
94785SOL     OW86193   5.411  13.195  11.458
94785SOL    HW186194   5.390  13.104  11.440
94785SOL    HW286195   5.326  13.238  11.467
94786SOL     OW86196   6.839  12.337   7.342
94786SOL    HW186197   6.831  12.242   7.351
94786SOL    HW286198   6.933  12.354   7.352
94787SOL     OW86199  13.199   6.019  11.974
94787SOL    HW186200  13.241   6.053  11.895
94787SOL    HW286201  13.106   6.019  11.954
94788SOL     OW86202  14.753  10.875   4.836
94788SOL    HW186203  14.711  10.887   4.921
94788SOL    HW286204  14.752  10.780   4.822
94789SOL     OW86205   9.306   2.444   6.547
94789SOL    HW186206   9.292   2.467   6.455
94789SOL    HW286207   9.293   2.350   6.550
94790SOL     OW86208   9.308  13.159   6.777
94790SOL    HW186209   9.278  13.247   6.755
94790SOL    HW286210   9.245  13.127   6.841
94791SOL     OW86211   7.409   0.795   6.958
94791SOL    HW186212   7.377   0.706   6.954
94791SOL    HW286213   7.384   0.826   7.045
94792SOL     OW86214   7.152   6.256  10.977
94792SOL    HW186215   7.200   6.209  11.046
94792SOL    HW286216   7.220   6.295  10.923
94793SOL     OW86217  14.187   6.875   8.462
94793SOL    HW186218  14.158   6.908   8.376
94793SOL    HW286219  14.272   6.917   8.475
94794SOL     OW86220   3.043   9.951   9.595
94794SOL    HW186221   3.013  10.032   9.637
94794SOL    HW286222   3.130   9.973   9.562
94795SOL     OW86223  14.071   9.463  12.073
94795SOL    HW186224  14.116   9.423  12.147
94795SOL    HW286225  14.009   9.397  12.043
94796SOL     OW86226   3.103   0.247   0.374
94796SOL    HW186227   3.070   0.203   0.452
94796SOL    HW286228   3.033   0.309   0.350
94797SOL     OW86229   1.099   5.914   8.113
94797SOL    HW186230   1.040   5.844   8.085
94797SOL    HW286231   1.040   5.985   8.139
94798SOL     OW86232   3.506  11.524   1.925
94798SOL    HW186233   3.418  11.510   1.891
94798SOL    HW286234   3.540  11.436   1.942
94799SOL     OW86235   7.891   1.593   1.645
94799SOL    HW186236   7.940   1.540   1.582
94799SOL    HW286237   7.952   1.608   1.717
94800SOL     OW86238   9.881   0.595   1.089
94800SOL    HW186239   9.859   0.672   1.037
94800SOL    HW286240   9.888   0.627   1.179
94801SOL     OW86241   8.421  11.303   1.145
94801SOL    HW186242   8.402  11.315   1.052
94801SOL    HW286243   8.357  11.359   1.190
94802SOL     OW86244   7.133   5.092   9.826
94802SOL    HW186245   7.209   5.073   9.881
94802SOL    HW286246   7.082   5.155   9.877
94803SOL     OW86247   9.184  13.376   2.327
94803SOL    HW186248   9.252  13.443   2.318
94803SOL    HW286249   9.115  13.418   2.379
94804SOL     OW86250   8.034  11.776   6.833
94804SOL    HW186251   8.081  11.827   6.898
94804SOL    HW286252   8.007  11.697   6.879
94805SOL     OW86253   5.716  11.474   6.035
94805SOL    HW186254   5.692  11.523   6.113
94805SOL    HW286255   5.684  11.385   6.051
94806SOL     OW86256  11.200   4.227   1.816
94806SOL    HW186257  11.218   4.214   1.723
94806SOL    HW286258  11.170   4.318   1.822
94807SOL     OW86259   4.473  10.692   9.831
94807SOL    HW186260   4.420  10.634   9.885
94807SOL    HW286261   4.424  10.774   9.828
94808SOL     OW86262   6.704  11.369   5.922
94808SOL    HW186263   6.750  11.367   5.839
94808SOL    HW286264   6.685  11.277   5.941
94809SOL     OW86265   6.546   9.096   4.324
94809SOL    HW186266   6.491   9.064   4.396
94809SOL    HW286267   6.630   9.115   4.365
94810SOL     OW86268   4.132  13.562   2.180
94810SOL    HW186269   4.137  13.631   2.113
94810SOL    HW286270   4.158  13.606   2.261
94811SOL     OW86271  14.072   7.523  11.743
94811SOL    HW186272  14.050   7.471  11.665
94811SOL    HW286273  14.069   7.459  11.815
94812SOL     OW86274   4.293  11.712   8.752
94812SOL    HW186275   4.340  11.735   8.672
94812SOL    HW286276   4.362  11.695   8.816
94813SOL     OW86277   3.062   9.925  14.593
94813SOL    HW186278   2.996   9.914  14.525
94813SOL    HW286279   3.055  10.017  14.619
94814SOL     OW86280   5.578   4.265  14.129
94814SOL    HW186281   5.655   4.307  14.167
94814SOL    HW286282   5.562   4.189  14.185
94815SOL     OW86283  12.259   1.395   9.817
94815SOL    HW186284  12.341   1.390   9.866
94815SOL    HW286285  12.194   1.353   9.874
94816SOL     OW86286  14.671   5.276   5.782
94816SOL    HW186287  14.682   5.314   5.694
94816SOL    HW286288  14.612   5.202   5.769
94817SOL     OW86289  13.463   9.573  10.272
94817SOL    HW186290  13.476   9.506  10.204
94817SOL    HW286291  13.446   9.653  10.223
94818SOL     OW86292   2.799  12.224   9.092
94818SOL    HW186293   2.843  12.238   9.176
94818SOL    HW286294   2.861  12.172   9.041
94819SOL     OW86295   7.351   6.059   9.887
94819SOL    HW186296   7.428   6.045   9.832
94819SOL    HW286297   7.386   6.060   9.977
94820SOL     OW86298  14.576   7.228  12.374
94820SOL    HW186299  14.503   7.265  12.424
94820SOL    HW286300  14.608   7.156  12.429
94821SOL     OW86301   8.406   9.896   5.228
94821SOL    HW186302   8.413   9.971   5.288
94821SOL    HW286303   8.331   9.916   5.173
94822SOL     OW86304   5.645   6.542   6.281
94822SOL    HW186305   5.703   6.479   6.238
94822SOL    HW286306   5.688   6.562   6.364
94823SOL     OW86307   0.416  12.073   8.804
94823SOL    HW186308   0.365  12.153   8.790
94823SOL    HW286309   0.433  12.071   8.898
94824SOL     OW86310   6.800   9.132   7.676
94824SOL    HW186311   6.791   9.226   7.659
94824SOL    HW286312   6.843   9.098   7.598
94825SOL     OW86313  13.214  11.543  10.966
94825SOL    HW186314  13.189  11.593  10.888
94825SOL    HW286315  13.132  11.534  11.015
94826SOL     OW86316   5.406   0.514   5.651
94826SOL    HW186317   5.332   0.575   5.651
94826SOL    HW286318   5.416   0.489   5.742
94827SOL     OW86319   8.406   0.932   9.248
94827SOL    HW186320   8.414   1.006   9.308
94827SOL    HW286321   8.312   0.928   9.227
94828SOL     OW86322   6.692   0.508   1.476
94828SOL    HW186323   6.686   0.416   1.504
94828SOL    HW286324   6.767   0.543   1.523
94829SOL     OW86325  11.326  13.351   0.543
94829SOL    HW186326  11.377  13.431   0.552
94829SOL    HW286327  11.377  13.296   0.483
94830SOL     OW86328   9.627  14.152   0.884
94830SOL    HW186329   9.696  14.115   0.828
94830SOL    HW286330   9.625  14.245   0.861
94831SOL     OW86331  14.763   1.941   6.526
94831SOL    HW186332  14.845   1.989   6.538
94831SOL    HW286333  14.748   1.943   6.431
94832SOL     OW86334   5.247   0.474   3.353
94832SOL    HW186335   5.165   0.485   3.402
94832SOL    HW286336   5.315   0.509   3.411
94833SOL     OW86337   1.647   5.743  12.831
94833SOL    HW186338   1.661   5.837  12.823
94833SOL    HW286339   1.552   5.732  12.830
94834SOL     OW86340   4.997   9.414   8.973
94834SOL    HW186341   5.082   9.374   8.952
94834SOL    HW286342   5.019   9.491   9.025
94835SOL     OW86343   2.025   7.890   0.963
94835SOL    HW186344   2.029   7.849   0.877
94835SOL    HW286345   1.974   7.829   1.016
94836SOL     OW86346   4.657   1.760  10.735
94836SOL    HW186347   4.712   1.683  10.721
94836SOL    HW286348   4.585   1.750  10.672
94837SOL     OW86349  11.247   1.152   7.009
94837SOL    HW186350  11.303   1.206   7.064
94837SOL    HW286351  11.183   1.113   7.069
94838SOL     OW86352  12.208   4.928   2.886
94838SOL    HW186353  12.299   4.902   2.869
94838SOL    HW286354  12.198   5.011   2.840
94839SOL     OW86355   6.688   2.451   2.368
94839SOL    HW186356   6.775   2.445   2.327
94839SOL    HW286357   6.684   2.541   2.401
94840SOL     OW86358  11.578   8.654   3.491
94840SOL    HW186359  11.660   8.644   3.442
94840SOL    HW286360  11.597   8.619   3.578
94841SOL     OW86361   5.304   8.719  13.607
94841SOL    HW186362   5.311   8.694  13.514
94841SOL    HW286363   5.395   8.716  13.638
94842SOL     OW86364   2.621   7.528   4.894
94842SOL    HW186365   2.688   7.473   4.935
94842SOL    HW286366   2.669   7.584   4.834
94843SOL     OW86367   2.637  12.252  12.791
94843SOL    HW186368   2.679  12.300  12.862
94843SOL    HW286369   2.691  12.173  12.780
94844SOL     OW86370   3.317  12.280   1.241
94844SOL    HW186371   3.379  12.218   1.279
94844SOL    HW286372   3.236  12.230   1.231
94845SOL     OW86373   2.124   6.085   1.912
94845SOL    HW186374   2.172   6.157   1.953
94845SOL    HW286375   2.136   6.097   1.818
94846SOL     OW86376   5.748  14.878   0.615
94846SOL    HW186377   5.726  14.860   0.706
94846SOL    HW286378   5.670   0.044   0.580
94847SOL     OW86379  14.079   1.750   6.784
94847SOL    HW186380  13.987   1.766   6.765
94847SOL    HW286381  14.092   1.657   6.763
94848SOL     OW86382  12.218   1.018  12.196
94848SOL    HW186383  12.221   0.984  12.286
94848SOL    HW286384  12.293   1.078  12.191
94849SOL     OW86385   3.733  14.056   9.176
94849SOL    HW186386   3.817  14.011   9.167
94849SOL    HW286387   3.720  14.099   9.092
94850SOL     OW86388  10.480   2.908   9.560
94850SOL    HW186389  10.400   2.894   9.611
94850SOL    HW286390  10.523   2.982   9.603
94851SOL     OW86391   0.187  14.261  10.976
94851SOL    HW186392   0.209  14.173  11.008
94851SOL    HW286393   0.120  14.247  10.910
94852SOL     OW86394   3.300  12.854   0.687
94852SOL    HW186395   3.296  12.907   0.767
94852SOL    HW286396   3.276  12.915   0.617
94853SOL     OW86397   1.462  12.188   1.828
94853SOL    HW186398   1.374  12.159   1.803
94853SOL    HW286399   1.458  12.197   1.924
94854SOL     OW86400  14.042   2.369   4.169
94854SOL    HW186401  14.096   2.449   4.164
94854SOL    HW286402  14.085   2.307   4.110
94855SOL     OW86403   9.455   7.541   0.957
94855SOL    HW186404   9.443   7.633   0.981
94855SOL    HW286405   9.531   7.513   1.008
94856SOL     OW86406   4.301  10.103   7.059
94856SOL    HW186407   4.269  10.024   7.016
94856SOL    HW286408   4.393  10.084   7.079
94857SOL     OW86409   8.764   5.400  12.443
94857SOL    HW186410   8.751   5.360  12.357
94857SOL    HW286411   8.711   5.348  12.502
94858SOL     OW86412   7.382  14.196  13.972
94858SOL    HW186413   7.289  14.196  13.996
94858SOL    HW286414   7.394  14.116  13.922
94859SOL     OW86415   6.047  13.726  11.966
94859SOL    HW186416   6.115  13.792  11.951
94859SOL    HW286417   6.034  13.727  12.061
94860SOL     OW86418   1.205   9.521  10.090
94860SOL    HW186419   1.239   9.472  10.165
94860SOL    HW286420   1.215   9.461  10.015
94861SOL     OW86421   8.128   1.768  10.293
94861SOL    HW186422   8.090   1.741  10.210
94861SOL    HW286423   8.171   1.689  10.327
94862SOL     OW86424  13.978   6.951  13.381
94862SOL    HW186425  13.967   7.017  13.313
94862SOL    HW286426  14.063   6.912  13.364
94863SOL     OW86427   6.437   7.951   7.805
94863SOL    HW186428   6.452   7.977   7.714
94863SOL    HW286429   6.376   7.878   7.799
94864SOL     OW86430   4.322   2.083  14.252
94864SOL    HW186431   4.327   2.033  14.171
94864SOL    HW286432   4.412   2.091  14.282
94865SOL     OW86433   5.892   1.042  10.202
94865SOL    HW186434   5.940   1.009  10.126
94865SOL    HW286435   5.946   1.113  10.235
94866SOL     OW86436   5.901   3.765  13.953
94866SOL    HW186437   5.962   3.824  13.997
94866SOL    HW286438   5.818   3.814  13.951
94867SOL     OW86439   5.094   1.153  12.446
94867SOL    HW186440   5.168   1.195  12.402
94867SOL    HW286441   5.131   1.076  12.488
94868SOL     OW86442   6.918   9.741  12.711
94868SOL    HW186443   6.945   9.828  12.740
94868SOL    HW286444   6.986   9.715  12.648
94869SOL     OW86445   8.641   9.466  12.614
94869SOL    HW186446   8.568   9.436  12.561
94869SOL    HW286447   8.719   9.444  12.563
94870SOL     OW86448  10.555   5.004  13.825
94870SOL    HW186449  10.567   5.006  13.730
94870SOL    HW286450  10.461   5.017  13.837
94871SOL     OW86451   3.753   6.334   7.629
94871SOL    HW186452   3.828   6.355   7.685
94871SOL    HW286453   3.695   6.409   7.637
94872SOL     OW86454   9.731  10.227   3.297
94872SOL    HW186455   9.693  10.241   3.383
94872SOL    HW286456   9.717  10.134   3.279
94873SOL     OW86457   4.816   1.120   1.253
94873SOL    HW186458   4.811   1.030   1.286
94873SOL    HW286459   4.848   1.171   1.327
94874SOL     OW86460   8.473  12.134   2.550
94874SOL    HW186461   8.451  12.051   2.591
94874SOL    HW286462   8.550  12.165   2.598
94875SOL     OW86463   3.307   0.200  14.551
94875SOL    HW186464   3.261   0.268  14.502
94875SOL    HW286465   3.342   0.245  14.628
94876SOL     OW86466   1.875   9.351   1.962
94876SOL    HW186467   1.930   9.274   1.976
94876SOL    HW286468   1.808   9.345   2.030
94877SOL     OW86469   1.401  11.074  10.273
94877SOL    HW186470   1.414  11.092  10.366
94877SOL    HW286471   1.425  10.982  10.263
94878SOL     OW86472   8.485   3.764  11.012
94878SOL    HW186473   8.427   3.837  10.989
94878SOL    HW286474   8.543   3.800  11.078
94879SOL     OW86475  13.291   9.880   0.532
94879SOL    HW186476  13.219   9.834   0.489
94879SOL    HW286477  13.356   9.893   0.462
94880SOL     OW86478   6.135  11.787   5.740
94880SOL    HW186479   6.080  11.821   5.670
94880SOL    HW286480   6.213  11.843   5.738
94881SOL     OW86481   8.983  11.679   5.846
94881SOL    HW186482   8.922  11.672   5.773
94881SOL    HW286483   9.045  11.608   5.833
94882SOL     OW86484   6.788   5.015   6.065
94882SOL    HW186485   6.724   5.073   6.023
94882SOL    HW286486   6.873   5.050   6.039
94883SOL     OW86487   6.993   1.565  11.341
94883SOL    HW186488   6.967   1.532  11.427
94883SOL    HW286489   6.911   1.566  11.291
94884SOL     OW86490   0.293   0.804   8.531
94884SOL    HW186491   0.201   0.786   8.549
94884SOL    HW286492   0.334   0.718   8.523
94885SOL     OW86493   7.211   5.735  11.769
94885SOL    HW186494   7.295   5.698  11.740
94885SOL    HW286495   7.157   5.736  11.689
94886SOL     OW86496   5.824   5.553   4.276
94886SOL    HW186497   5.777   5.579   4.197
94886SOL    HW286498   5.863   5.634   4.309
94887SOL     OW86499  10.065   2.999  13.411
94887SOL    HW186500   9.971   3.001  13.393
94887SOL    HW286501  10.074   3.042  13.496
94888SOL     OW86502  14.762   6.762  13.200
94888SOL    HW186503  14.854   6.785  13.213
94888SOL    HW286504  14.756   6.739  13.108
94889SOL     OW86505  11.391   6.112   6.624
94889SOL    HW186506  11.329   6.043   6.599
94889SOL    HW286507  11.474   6.067   6.637
94890SOL     OW86508  13.456   6.249   1.682
94890SOL    HW186509  13.363   6.232   1.696
94890SOL    HW286510  13.463   6.272   1.589
94891SOL     OW86511  14.284   3.697   4.061
94891SOL    HW186512  14.211   3.671   4.119
94891SOL    HW286513  14.355   3.638   4.085
94892SOL     OW86514   5.201   7.782   2.557
94892SOL    HW186515   5.118   7.831   2.559
94892SOL    HW286516   5.253   7.820   2.628
94893SOL     OW86517   1.147   3.982   7.860
94893SOL    HW186518   1.124   3.931   7.783
94893SOL    HW286519   1.122   3.927   7.934
94894SOL     OW86520  13.542   0.409   1.310
94894SOL    HW186521  13.558   0.486   1.365
94894SOL    HW286522  13.453   0.383   1.331
94895SOL     OW86523   9.116   4.670   8.686
94895SOL    HW186524   9.027   4.661   8.652
94895SOL    HW286525   9.153   4.742   8.635
94896SOL     OW86526   9.285   7.708  12.023
94896SOL    HW186527   9.216   7.717  11.957
94896SOL    HW286528   9.239   7.708  12.107
94897SOL     OW86529  13.438   0.035  12.063
94897SOL    HW186530  13.362   0.089  12.045
94897SOL    HW286531  13.458  14.870  11.981
94898SOL     OW86532   1.325   5.044  14.110
94898SOL    HW186533   1.411   5.059  14.148
94898SOL    HW286534   1.342   4.990  14.033
94899SOL     OW86535   7.800  13.436   4.913
94899SOL    HW186536   7.808  13.441   5.008
94899SOL    HW286537   7.717  13.391   4.898
94900SOL     OW86538   7.901   3.189  12.592
94900SOL    HW186539   7.831   3.161  12.533
94900SOL    HW286540   7.942   3.108  12.621
94901SOL     OW86541   9.144   5.242  13.277
94901SOL    HW186542   9.136   5.191  13.357
94901SOL    HW286543   9.173   5.329  13.306
94902SOL     OW86544  10.608  13.310   0.761
94902SOL    HW186545  10.518  13.288   0.787
94902SOL    HW286546  10.645  13.354   0.838
94903SOL     OW86547  10.844  10.939  10.658
94903SOL    HW186548  10.924  10.981  10.627
94903SOL    HW286549  10.875  10.865  10.710
94904SOL     OW86550  14.189   8.154   8.812
94904SOL    HW186551  14.108   8.131   8.858
94904SOL    HW286552  14.255   8.158   8.881
94905SOL     OW86553   9.333   0.239  10.936
94905SOL    HW186554   9.379   0.165  10.976
94905SOL    HW286555   9.289   0.201  10.860
94906SOL     OW86556  14.733   9.319  10.770
94906SOL    HW186557  14.795   9.308  10.842
94906SOL    HW286558  14.769   9.389  10.716
94907SOL     OW86559   6.097  13.091   6.837
94907SOL    HW186560   6.146  13.122   6.913
94907SOL    HW286561   6.164  13.073   6.771
94908SOL     OW86562   3.200  11.267   7.951
94908SOL    HW186563   3.279  11.303   7.912
94908SOL    HW286564   3.128  11.313   7.907
94909SOL     OW86565   1.847   5.125  13.842
94909SOL    HW186566   1.830   5.218  13.827
94909SOL    HW286567   1.934   5.123  13.882
94910SOL     OW86568  14.764   4.837   7.439
94910SOL    HW186569  14.737   4.864   7.352
94910SOL    HW286570  14.684   4.803   7.480
94911SOL     OW86571   3.426   7.873   3.751
94911SOL    HW186572   3.364   7.825   3.805
94911SOL    HW286573   3.507   7.875   3.803
94912SOL     OW86574   8.880   7.148  11.611
94912SOL    HW186575   8.798   7.188  11.642
94912SOL    HW286576   8.911   7.208  11.543
94913SOL     OW86577   5.660   0.009  14.443
94913SOL    HW186578   5.575   0.054  14.441
94913SOL    HW286579   5.677  14.865  14.352
94914SOL     OW86580   0.793  12.240   3.025
94914SOL    HW186581   0.742  12.242   2.944
94914SOL    HW286582   0.755  12.168   3.075
94915SOL     OW86583  13.667   5.860  13.255
94915SOL    HW186584  13.728   5.803  13.209
94915SOL    HW286585  13.581   5.836  13.221
94916SOL     OW86586   2.690   3.793   1.173
94916SOL    HW186587   2.597   3.810   1.159
94916SOL    HW286588   2.693   3.707   1.215
94917SOL     OW86589   1.334  10.010   5.147
94917SOL    HW186590   1.376   9.930   5.113
94917SOL    HW286591   1.404  10.057   5.192
94918SOL     OW86592  10.998   0.645   4.087
94918SOL    HW186593  10.903   0.643   4.097
94918SOL    HW286594  11.014   0.604   4.002
94919SOL     OW86595   6.558   9.060   0.839
94919SOL    HW186596   6.606   9.066   0.921
94919SOL    HW286597   6.474   9.101   0.858
94920SOL     OW86598   4.195   8.171   0.362
94920SOL    HW186599   4.119   8.196   0.309
94920SOL    HW286600   4.200   8.076   0.353
94921SOL     OW86601   9.604   7.722  10.877
94921SOL    HW186602   9.691   7.713  10.838
94921SOL    HW286603   9.616   7.692  10.967
94922SOL     OW86604  14.716  13.401   3.444
94922SOL    HW186605  14.686  13.480   3.490
94922SOL    HW286606  14.804  13.386   3.479
94923SOL     OW86607   5.023  10.004   2.286
94923SOL    HW186608   5.117  10.012   2.299
94923SOL    HW286609   4.984  10.062   2.351
94924SOL     OW86610   5.824   5.931   1.186
94924SOL    HW186611   5.786   5.899   1.104
94924SOL    HW286612   5.762   5.903   1.254
94925SOL     OW86613   9.894  14.444   8.685
94925SOL    HW186614   9.920  14.396   8.765
94925SOL    HW286615   9.834  14.512   8.717
94926SOL     OW86616   6.531   8.780   8.171
94926SOL    HW186617   6.533   8.731   8.253
94926SOL    HW286618   6.438   8.789   8.150
94927SOL     OW86619  11.621   0.309  12.497
94927SOL    HW186620  11.547   0.317  12.437
94927SOL    HW286621  11.625   0.393  12.542
94928SOL     OW86622   6.254  12.558  12.791
94928SOL    HW186623   6.333  12.519  12.754
94928SOL    HW286624   6.256  12.649  12.762
94929SOL     OW86625   6.396   2.525   4.209
94929SOL    HW186626   6.461   2.464   4.174
94929SOL    HW286627   6.435   2.557   4.290
94930SOL     OW86628  10.225   5.782   5.822
94930SOL    HW186629  10.142   5.829   5.813
94930SOL    HW286630  10.247   5.755   5.733
94931SOL     OW86631   4.410   0.740   0.595
94931SOL    HW186632   4.411   0.802   0.522
94931SOL    HW286633   4.487   0.684   0.580
94932SOL     OW86634   6.854   7.540   9.177
94932SOL    HW186635   6.882   7.448   9.186
94932SOL    HW286636   6.765   7.535   9.142
94933SOL     OW86637   1.216   4.280   6.463
94933SOL    HW186638   1.158   4.357   6.462
94933SOL    HW286639   1.218   4.251   6.372
94934SOL     OW86640   7.832  12.794  14.850
94934SOL    HW186641   7.926  12.779  14.854
94934SOL    HW286642   7.811  12.790  14.756
94935SOL     OW86643  10.561   3.201  12.895
94935SOL    HW186644  10.617   3.187  12.819
94935SOL    HW286645  10.508   3.277  12.873
94936SOL     OW86646   3.111  14.652  11.268
94936SOL    HW186647   3.105  14.743  11.238
94936SOL    HW286648   3.133  14.660  11.361
94937SOL     OW86649  11.390   9.425   2.153
94937SOL    HW186650  11.372   9.497   2.214
94937SOL    HW286651  11.482   9.405   2.166
94938SOL     OW86652  12.485   9.111  14.197
94938SOL    HW186653  12.519   9.163  14.270
94938SOL    HW286654  12.522   9.024  14.211
94939SOL     OW86655  14.483   6.939  11.097
94939SOL    HW186656  14.549   6.941  11.166
94939SOL    HW286657  14.442   7.026  11.100
94940SOL     OW86658   6.106  10.939  14.421
94940SOL    HW186659   6.152  11.023  14.414
94940SOL    HW286660   6.105  10.921  14.515
94941SOL     OW86661   0.168   4.794   0.458
94941SOL    HW186662   0.087   4.844   0.457
94941SOL    HW286663   0.165   4.742   0.377
94942SOL     OW86664   4.059   7.457   3.979
94942SOL    HW186665   4.153   7.446   3.991
94942SOL    HW286666   4.029   7.502   4.058
94943SOL     OW86667   1.246   0.888  11.056
94943SOL    HW186668   1.224   0.798  11.080
94943SOL    HW286669   1.341   0.893  11.065
94944SOL     OW86670   7.094  12.413  10.893
94944SOL    HW186671   7.090  12.448  10.804
94944SOL    HW286672   7.062  12.484  10.948
94945SOL     OW86673   5.176   2.604   9.453
94945SOL    HW186674   5.215   2.639   9.533
94945SOL    HW286675   5.227   2.645   9.382
94946SOL     OW86676  10.530   2.570  12.723
94946SOL    HW186677  10.483   2.488  12.705
94946SOL    HW286678  10.542   2.570  12.818
94947SOL     OW86679   9.068  12.425  12.940
94947SOL    HW186680   8.983  12.405  12.979
94947SOL    HW286681   9.097  12.343  12.901
94948SOL     OW86682  10.824  11.420   3.895
94948SOL    HW186683  10.875  11.380   3.965
94948SOL    HW286684  10.806  11.347   3.835
94949SOL     OW86685  12.892   5.854   3.426
94949SOL    HW186686  12.986   5.867   3.411
94949SOL    HW286687  12.858   5.825   3.341
94950SOL     OW86688   3.368   3.653  11.066
94950SOL    HW186689   3.382   3.738  11.024
94950SOL    HW286690   3.413   3.661  11.150
94951SOL     OW86691  14.738  10.211   8.626
94951SOL    HW186692  14.815  10.155   8.630
94951SOL    HW286693  14.681  10.179   8.697
94952SOL     OW86694   3.616  13.887   1.350
94952SOL    HW186695   3.529  13.915   1.322
94952SOL    HW286696   3.672  13.963   1.337
94953SOL     OW86697   4.247   5.058   1.377
94953SOL    HW186698   4.303   4.982   1.392
94953SOL    HW286699   4.163   5.022   1.349
94954SOL     OW86700   3.527  13.691   6.771
94954SOL    HW186701   3.455  13.660   6.826
94954SOL    HW286702   3.504  13.662   6.683
94955SOL     OW86703   2.620   6.335   4.778
94955SOL    HW186704   2.619   6.397   4.704
94955SOL    HW286705   2.683   6.372   4.839
94956SOL     OW86706  13.069   2.194  12.442
94956SOL    HW186707  13.158   2.218  12.466
94956SOL    HW286708  13.034   2.150  12.520
94957SOL     OW86709   6.007   3.053   2.481
94957SOL    HW186710   6.023   3.126   2.420
94957SOL    HW286711   5.938   3.086   2.539
94958SOL     OW86712   9.541   7.630  10.030
94958SOL    HW186713   9.625   7.645  10.073
94958SOL    HW286714   9.498   7.565  10.086
94959SOL     OW86715   4.096   8.862   1.865
94959SOL    HW186716   4.126   8.929   1.927
94959SOL    HW286717   4.175   8.834   1.820
94960SOL     OW86718  11.634   6.908   8.084
94960SOL    HW186719  11.588   6.825   8.092
94960SOL    HW286720  11.646   6.938   8.174
94961SOL     OW86721   9.854   0.463   4.803
94961SOL    HW186722   9.906   0.384   4.814
94961SOL    HW286723   9.848   0.475   4.709
94962SOL     OW86724   6.769   5.926  10.180
94962SOL    HW186725   6.836   5.870  10.220
94962SOL    HW286726   6.750   5.992  10.246
94963SOL     OW86727   3.870  12.981   9.036
94963SOL    HW186728   3.957  13.011   9.064
94963SOL    HW286729   3.826  13.061   9.008
94964SOL     OW86730   5.959   2.409   5.645
94964SOL    HW186731   6.053   2.427   5.643
94964SOL    HW286732   5.918   2.495   5.641
94965SOL     OW86733   8.438  11.841   0.335
94965SOL    HW186734   8.350  11.813   0.310
94965SOL    HW286735   8.479  11.867   0.253
94966SOL     OW86736   5.257   5.492   3.546
94966SOL    HW186737   5.191   5.447   3.598
94966SOL    HW286738   5.227   5.582   3.541
94967SOL     OW86739   1.898   5.881  14.817
94967SOL    HW186740   1.841   5.806  14.803
94967SOL    HW286741   1.919   5.879   0.031
94968SOL     OW86742   9.758  11.185   8.394
94968SOL    HW186743   9.819  11.189   8.467
94968SOL    HW286744   9.686  11.130   8.425
94969SOL     OW86745   5.041   9.702  11.032
94969SOL    HW186746   5.031   9.738  11.120
94969SOL    HW286747   5.069   9.777  10.979
94970SOL     OW86748   4.479  14.476   2.081
94970SOL    HW186749   4.503  14.416   2.011
94970SOL    HW286750   4.383  14.473   2.083
94971SOL     OW86751   4.605  11.860   9.073
94971SOL    HW186752   4.525  11.912   9.065
94971SOL    HW286753   4.589  11.783   9.019
94972SOL     OW86754   4.381   3.782   1.975
94972SOL    HW186755   4.364   3.859   2.029
94972SOL    HW286756   4.458   3.741   2.015
94973SOL     OW86757   5.197  12.841   5.229
94973SOL    HW186758   5.213  12.911   5.167
94973SOL    HW286759   5.224  12.877   5.314
94974SOL     OW86760   7.522   7.667   7.503
94974SOL    HW186761   7.596   7.631   7.551
94974SOL    HW286762   7.562   7.717   7.431
94975SOL     OW86763  11.526  13.926   1.530
94975SOL    HW186764  11.524  13.953   1.438
94975SOL    HW286765  11.511  13.832   1.527
94976SOL     OW86766   2.006  14.324   7.674
94976SOL    HW186767   2.073  14.390   7.694
94976SOL    HW286768   1.984  14.286   7.759
94977SOL     OW86769  12.652  14.843   0.686
94977SOL    HW186770  12.570   0.013   0.695
94977SOL    HW286771  12.624  14.758   0.653
94978SOL     OW86772  10.214   5.781   0.751
94978SOL    HW186773  10.260   5.741   0.824
94978SOL    HW286774  10.276   5.847   0.717
94979SOL     OW86775   9.657  10.990   3.189
94979SOL    HW186776   9.610  10.979   3.272
94979SOL    HW286777   9.597  11.042   3.135
94980SOL     OW86778   1.938   5.375   9.483
94980SOL    HW186779   1.998   5.450   9.485
94980SOL    HW286780   1.929   5.354   9.390
94981SOL     OW86781   1.868  11.578   2.895
94981SOL    HW186782   1.961  11.556   2.886
94981SOL    HW286783   1.823  11.494   2.893
94982SOL     OW86784   9.891   6.585  11.869
94982SOL    HW186785   9.986   6.574  11.870
94982SOL    HW286786   9.863   6.568  11.959
94983SOL     OW86787   7.834   6.712   5.860
94983SOL    HW186788   7.781   6.774   5.809
94983SOL    HW286789   7.791   6.628   5.846
94984SOL     OW86790  11.168  11.598  10.809
94984SOL    HW186791  11.207  11.518  10.774
94984SOL    HW286792  11.144  11.649  10.731
94985SOL     OW86793   7.772  13.710   8.861
94985SOL    HW186794   7.826  13.669   8.793
94985SOL    HW286795   7.693  13.738   8.815
94986SOL     OW86796   3.005  11.696   0.943
94986SOL    HW186797   2.920  11.740   0.956
94986SOL    HW286798   2.989  11.606   0.970
94987SOL     OW86799   2.897   6.610   5.296
94987SOL    HW186800   2.916   6.617   5.390
94987SOL    HW286801   2.906   6.517   5.277
94988SOL     OW86802   9.096   7.906   1.703
94988SOL    HW186803   9.186   7.927   1.677
94988SOL    HW286804   9.106   7.859   1.786
94989SOL     OW86805  14.240   7.032   1.624
94989SOL    HW186806  14.314   7.066   1.676
94989SOL    HW286807  14.218   6.949   1.666
94990SOL     OW86808   6.702   6.188   5.506
94990SOL    HW186809   6.785   6.226   5.536
94990SOL    HW286810   6.649   6.182   5.586
94991SOL     OW86811   5.129  12.666   9.419
94991SOL    HW186812   5.182  12.588   9.403
94991SOL    HW286813   5.190  12.739   9.408
94992SOL     OW86814   0.621   4.288   5.992
94992SOL    HW186815   0.536   4.326   5.971
94992SOL    HW286816   0.651   4.337   6.068
94993SOL     OW86817   9.267   8.408  11.843
94993SOL    HW186818   9.207   8.365  11.905
94993SOL    HW286819   9.212   8.429  11.768
94994SOL     OW86820   2.820   3.467  11.516
94994SOL    HW186821   2.747   3.427  11.561
94994SOL    HW286822   2.798   3.460  11.423
94995SOL     OW86823  10.693   1.277  13.451
94995SOL    HW186824  10.668   1.240  13.535
94995SOL    HW286825  10.614   1.322  13.420
94996SOL     OW86826   0.990   2.154   9.925
94996SOL    HW186827   1.045   2.194   9.858
94996SOL    HW286828   1.042   2.157  10.004
94997SOL     OW86829  10.566  13.034  10.639
94997SOL    HW186830  10.483  12.990  10.622
94997SOL    HW286831  10.569  13.106  10.577
94998SOL     OW86832  10.228   5.924  12.391
94998SOL    HW186833  10.316   5.958  12.378
94998SOL    HW286834  10.176   5.965  12.322
94999SOL     OW86835   1.561   2.418  11.440
94999SOL    HW186836   1.494   2.428  11.508
94999SOL    HW286837   1.570   2.323  11.429
95000SOL     OW86838   1.259  10.097   9.505
95000SOL    HW186839   1.214  10.182   9.503
95000SOL    HW286840   1.336  10.113   9.560
95001SOL     OW86841   8.520   6.014   1.574
95001SOL    HW186842   8.600   6.039   1.528
95001SOL    HW286843   8.453   6.073   1.541
95002SOL     OW86844   5.587   2.866   5.627
95002SOL    HW186845   5.683   2.860   5.631
95002SOL    HW286846   5.565   2.935   5.690
95003SOL     OW86847   9.954   4.915   2.005
95003SOL    HW186848  10.023   4.849   2.009
95003SOL    HW286849   9.980   4.974   1.935
95004SOL     OW86850   9.092   6.485   0.284
95004SOL    HW186851   9.131   6.500   0.371
95004SOL    HW286852   9.166   6.463   0.228
95005SOL     OW86853   3.380  10.486   8.192
95005SOL    HW186854   3.312  10.512   8.130
95005SOL    HW286855   3.445  10.442   8.138
95006SOL     OW86856   8.532  10.367  12.713
95006SOL    HW186857   8.530  10.323  12.628
95006SOL    HW286858   8.470  10.318  12.767
95007SOL     OW86859   3.581  11.429  13.344
95007SOL    HW186860   3.632  11.507  13.366
95007SOL    HW286861   3.647  11.365  13.315
95008SOL     OW86862  11.124   3.143   1.812
95008SOL    HW186863  11.197   3.099   1.855
95008SOL    HW286864  11.053   3.078   1.813
95009SOL     OW86865   8.719   4.559  10.637
95009SOL    HW186866   8.770   4.482  10.612
95009SOL    HW286867   8.699   4.546  10.730
95010SOL     OW86868   9.749   2.025   0.247
95010SOL    HW186869   9.814   2.075   0.198
95010SOL    HW286870   9.800   1.965   0.302
95011SOL     OW86871  10.608   1.982  14.019
95011SOL    HW186872  10.678   1.968  13.955
95011SOL    HW286873  10.647   2.037  14.086
95012SOL     OW86874   1.830   5.420   7.615
95012SOL    HW186875   1.845   5.506   7.653
95012SOL    HW286876   1.814   5.437   7.522
95013SOL     OW86877   8.190   6.452  14.356
95013SOL    HW186878   8.270   6.417  14.317
95013SOL    HW286879   8.168   6.527  14.302
95014SOL     OW86880   0.288   7.230   4.919
95014SOL    HW186881   0.215   7.188   4.963
95014SOL    HW286882   0.248   7.284   4.851
95015SOL     OW86883   8.226   0.473   0.997
95015SOL    HW186884   8.307   0.444   1.040
95015SOL    HW286885   8.167   0.494   1.069
95016SOL     OW86886   3.134   3.467  13.062
95016SOL    HW186887   3.075   3.425  13.125
95016SOL    HW286888   3.206   3.405  13.053
95017SOL     OW86889  10.169   5.854  13.328
95017SOL    HW186890  10.188   5.929  13.384
95017SOL    HW286891  10.080   5.828  13.351
95018SOL     OW86892   2.176  12.382   8.258
95018SOL    HW186893   2.132  12.315   8.206
95018SOL    HW286894   2.127  12.386   8.340
95019SOL     OW86895   6.389  12.033   8.404
95019SOL    HW186896   6.402  12.115   8.452
95019SOL    HW286897   6.457  11.975   8.437
95020SOL     OW86898  10.345   9.576   4.354
95020SOL    HW186899  10.290   9.546   4.426
95020SOL    HW286900  10.385   9.496   4.319
95021SOL     OW86901   5.198   3.954  11.706
95021SOL    HW186902   5.129   4.014  11.735
95021SOL    HW286903   5.250   3.938  11.785
95022SOL     OW86904   4.836   1.144  11.248
95022SOL    HW186905   4.771   1.145  11.319
95022SOL    HW286906   4.789   1.104  11.174
95023SOL     OW86907   0.196  12.477   0.853
95023SOL    HW186908   0.215  12.391   0.815
95023SOL    HW286909   0.154  12.458   0.936
95024SOL     OW86910   8.371  14.459   9.536
95024SOL    HW186911   8.401  14.527   9.476
95024SOL    HW286912   8.308  14.408   9.485
95025SOL     OW86913  14.025   2.167   6.023
95025SOL    HW186914  13.955   2.133   5.967
95025SOL    HW286915  14.054   2.090   6.072
95026SOL     OW86916   3.537  14.318   8.697
95026SOL    HW186917   3.467  14.280   8.751
95026SOL    HW286918   3.516  14.290   8.608
95027SOL     OW86919   4.822   3.557  14.045
95027SOL    HW186920   4.802   3.643  14.008
95027SOL    HW286921   4.744   3.505  14.029
95028SOL     OW86922   5.809   5.404  13.599
95028SOL    HW186923   5.762   5.357  13.668
95028SOL    HW286924   5.820   5.493  13.633
95029SOL     OW86925   5.570   9.329  14.460
95029SOL    HW186926   5.534   9.335  14.371
95029SOL    HW286927   5.665   9.325  14.447
95030SOL     OW86928  12.897  13.458  14.710
95030SOL    HW186929  12.982  13.496  14.686
95030SOL    HW286930  12.916  13.366  14.728
95031SOL     OW86931  11.181   0.531  12.061
95031SOL    HW186932  11.118   0.603  12.068
95031SOL    HW286933  11.224   0.528  12.146
95032SOL     OW86934   6.031   1.595  10.512
95032SOL    HW186935   6.048   1.686  10.536
95032SOL    HW286936   6.061   1.545  10.588
95033SOL     OW86937  10.870   1.258   7.744
95033SOL    HW186938  10.914   1.289   7.823
95033SOL    HW286939  10.781   1.239   7.772
95034SOL     OW86940   1.795   3.687   0.729
95034SOL    HW186941   1.766   3.771   0.762
95034SOL    HW286942   1.748   3.622   0.782
95035SOL     OW86943  10.722   7.603  11.694
95035SOL    HW186944  10.680   7.688  11.692
95035SOL    HW286945  10.781   7.603  11.619
95036SOL     OW86946  13.572   9.295  12.520
95036SOL    HW186947  13.540   9.272  12.433
95036SOL    HW286948  13.579   9.390  12.518
95037SOL     OW86949   9.174   5.762   5.287
95037SOL    HW186950   9.191   5.830   5.352
95037SOL    HW286951   9.079   5.758   5.280
95038SOL     OW86952  10.131   6.158  13.914
95038SOL    HW186953  10.178   6.093  13.965
95038SOL    HW286954  10.133   6.125  13.824
95039SOL     OW86955   9.604  14.221   9.559
95039SOL    HW186956   9.534  14.207   9.495
95039SOL    HW286957   9.662  14.145   9.549
95040SOL     OW86958  14.224   6.361   9.389
95040SOL    HW186959  14.195   6.285   9.337
95040SOL    HW286960  14.148   6.419   9.391
95041SOL     OW86961   4.517  10.896   1.821
95041SOL    HW186962   4.571  10.917   1.745
95041SOL    HW286963   4.437  10.858   1.785
95042SOL     OW86964  14.647   2.747   9.934
95042SOL    HW186965  14.650   2.766  10.028
95042SOL    HW286966  14.692   2.663   9.926
95043SOL     OW86967  10.591  12.258   1.814
95043SOL    HW186968  10.554  12.207   1.885
95043SOL    HW286969  10.530  12.330   1.801
95044SOL     OW86970   3.098  13.725  11.988
95044SOL    HW186971   3.102  13.656  12.054
95044SOL    HW286972   3.115  13.681  11.905
95045SOL     OW86973   5.587   9.996   5.665
95045SOL    HW186974   5.585  10.020   5.758
95045SOL    HW286975   5.629   9.910   5.664
95046SOL     OW86976  10.050   4.376   3.600
95046SOL    HW186977   9.999   4.448   3.637
95046SOL    HW286978  10.058   4.398   3.507
95047SOL     OW86979   0.506   1.122   4.684
95047SOL    HW186980   0.503   1.045   4.628
95047SOL    HW286981   0.522   1.195   4.624
95048SOL     OW86982   0.373   0.730  14.601
95048SOL    HW186983   0.400   0.804  14.546
95048SOL    HW286984   0.439   0.663  14.583
95049SOL     OW86985  14.319  11.397  11.532
95049SOL    HW186986  14.313  11.305  11.507
95049SOL    HW286987  14.270  11.444  11.464
95050SOL     OW86988   6.222  10.589   1.359
95050SOL    HW186989   6.311  10.612   1.385
95050SOL    HW286990   6.172  10.670   1.370
95051SOL     OW86991  11.950   6.915   8.446
95051SOL    HW186992  11.992   6.990   8.488
95051SOL    HW286993  11.941   6.851   8.517
95052SOL     OW86994   4.894  13.943  10.719
95052SOL    HW186995   4.910  14.026  10.675
95052SOL    HW286996   4.886  13.879  10.649
95053SOL     OW86997   2.100   8.844   5.303
95053SOL    HW186998   2.066   8.870   5.217
95053SOL    HW286999   2.175   8.903   5.317
95054SOL     OW87000   3.469  13.836  13.218
95054SOL    HW187001   3.399  13.899  13.236
95054SOL    HW287002   3.449  13.804  13.130
95055SOL     OW87003   7.808   9.056   4.671
95055SOL    HW187004   7.737   9.114   4.699
95055SOL    HW287005   7.857   9.037   4.751
95056SOL     OW87006   6.686   7.428   9.479
95056SOL    HW187007   6.732   7.356   9.436
95056SOL    HW287008   6.619   7.454   9.416
95057SOL     OW87009  13.871   5.549  10.518
95057SOL    HW187010  13.789   5.508  10.487
95057SOL    HW287011  13.872   5.531  10.612
95058SOL     OW87012  10.719  14.573  11.168
95058SOL    HW187013  10.695  14.641  11.230
95058SOL    HW287014  10.813  14.561  11.178
95059SOL     OW87015   3.901   2.188   0.299
95059SOL    HW187016   3.857   2.108   0.325
95059SOL    HW287017   3.927   2.174   0.208
95060SOL     OW87018   0.152   6.047  14.651
95060SOL    HW187019   0.086   6.114  14.668
95060SOL    HW287020   0.118   5.997  14.577
95061SOL     OW87021   3.150   4.315  11.328
95061SOL    HW187022   3.177   4.334  11.418
95061SOL    HW287023   3.203   4.373  11.274
95062SOL     OW87024   5.671   6.271   0.438
95062SOL    HW187025   5.754   6.227   0.457
95062SOL    HW287026   5.692   6.331   0.366
95063SOL     OW87027   1.059   7.946   6.825
95063SOL    HW187028   1.101   7.891   6.760
95063SOL    HW287029   1.131   7.985   6.875
95064SOL     OW87030  12.116   5.439   2.933
95064SOL    HW187031  12.086   5.514   2.985
95064SOL    HW287032  12.037   5.387   2.920
95065SOL     OW87033  12.048   4.795  14.401
95065SOL    HW187034  12.103   4.768  14.475
95065SOL    HW287035  11.960   4.766  14.425
95066SOL     OW87036   7.839   4.959   7.680
95066SOL    HW187037   7.850   4.864   7.675
95066SOL    HW287038   7.913   4.994   7.630
95067SOL     OW87039   6.347   9.001   4.483
95067SOL    HW187040   6.350   8.910   4.513
95067SOL    HW287041   6.358   9.053   4.562
95068SOL     OW87042   0.554   2.128  12.764
95068SOL    HW187043   0.508   2.091  12.839
95068SOL    HW287044   0.623   2.064  12.744
95069SOL     OW87045   2.234   1.500  11.295
95069SOL    HW187046   2.233   1.518  11.201
95069SOL    HW287047   2.274   1.578  11.334
95070SOL     OW87048  11.741   4.655  14.661
95070SOL    HW187049  11.799   4.694  14.596
95070SOL    HW287050  11.653   4.674  14.629
95071SOL     OW87051  14.498   3.702   9.264
95071SOL    HW187052  14.521   3.625   9.317
95071SOL    HW287053  14.412   3.729   9.296
95072SOL     OW87054  12.617  13.150   1.455
95072SOL    HW187055  12.668  13.073   1.480
95072SOL    HW287056  12.626  13.210   1.529
95073SOL     OW87057   5.685   7.706  10.715
95073SOL    HW187058   5.615   7.644  10.735
95073SOL    HW287059   5.762   7.651  10.698
95074SOL     OW87060   7.042  13.101   5.744
95074SOL    HW187061   7.051  13.006   5.739
95074SOL    HW287062   6.983  13.116   5.818
95075SOL     OW87063   4.938   0.681   3.332
95075SOL    HW187064   4.988   0.711   3.257
95075SOL    HW287065   4.848   0.706   3.314
95076SOL     OW87066  10.742   9.254   3.799
95076SOL    HW187067  10.786   9.171   3.820
95076SOL    HW287068  10.651   9.230   3.785
95077SOL     OW87069   4.440  11.624   3.964
95077SOL    HW187070   4.463  11.717   3.962
95077SOL    HW287071   4.344  11.624   3.959
95078SOL     OW87072   4.579  12.975   5.608
95078SOL    HW187073   4.484  12.977   5.598
95078SOL    HW287074   4.613  13.022   5.532
95079SOL     OW87075   6.278   7.875  10.367
95079SOL    HW187076   6.370   7.855  10.347
95079SOL    HW287077   6.265   7.840  10.455
95080SOL     OW87078   0.927   1.497   5.066
95080SOL    HW187079   0.972   1.561   5.121
95080SOL    HW287080   0.860   1.459   5.122
95081SOL     OW87081   0.686  10.948   8.446
95081SOL    HW187082   0.688  11.025   8.502
95081SOL    HW287083   0.738  10.973   8.369
95082SOL     OW87084  13.421   8.756   5.102
95082SOL    HW187085  13.382   8.711   5.027
95082SOL    HW287086  13.371   8.727   5.177
95083SOL     OW87087   1.154   7.976   6.413
95083SOL    HW187088   1.107   7.915   6.471
95083SOL    HW287089   1.113   8.061   6.430
95084SOL     OW87090   6.545   1.587  13.657
95084SOL    HW187091   6.584   1.521  13.601
95084SOL    HW287092   6.554   1.669  13.609
95085SOL     OW87093  14.223   2.518   5.225
95085SOL    HW187094  14.271   2.576   5.284
95085SOL    HW287095  14.136   2.508   5.265
95086SOL     OW87096   5.581  14.772   7.401
95086SOL    HW187097   5.662  14.791   7.447
95086SOL    HW287098   5.599  14.690   7.355
95087SOL     OW87099   2.885  11.323  10.510
95087SOL    HW187100   2.973  11.315  10.547
95087SOL    HW287101   2.845  11.395  10.558
95088SOL     OW87102   6.951  10.530   7.639
95088SOL    HW187103   6.875  10.586   7.625
95088SOL    HW287104   6.964  10.528   7.734
95089SOL     OW87105   0.704  10.919   1.117
95089SOL    HW187106   0.714  10.893   1.025
95089SOL    HW287107   0.716  11.014   1.117
95090SOL     OW87108  14.520  14.003   4.421
95090SOL    HW187109  14.497  13.924   4.372
95090SOL    HW287110  14.611  13.990   4.447
95091SOL     OW87111   2.635   5.752   0.680
95091SOL    HW187112   2.643   5.701   0.760
95091SOL    HW287113   2.560   5.809   0.694
95092SOL     OW87114  10.637  11.592  11.436
95092SOL    HW187115  10.543  11.609  11.430
95092SOL    HW287116  10.652  11.573  11.528
95093SOL     OW87117   2.353  13.358   4.109
95093SOL    HW187118   2.325  13.316   4.028
95093SOL    HW287119   2.418  13.423   4.082
95094SOL     OW87120   7.478  11.559   4.100
95094SOL    HW187121   7.424  11.595   4.029
95094SOL    HW287122   7.548  11.511   4.054
95095SOL     OW87123  11.083   1.683   8.780
95095SOL    HW187124  11.079   1.590   8.799
95095SOL    HW287125  11.175   1.706   8.792
95096SOL     OW87126  12.283   2.107  10.025
95096SOL    HW187127  12.248   2.187  10.065
95096SOL    HW287128  12.229   2.036  10.060
95097SOL     OW87129   5.124  10.555  12.915
95097SOL    HW187130   5.161  10.467  12.905
95097SOL    HW287131   5.030  10.542  12.917
95098SOL     OW87132   4.418  13.131   3.990
95098SOL    HW187133   4.492  13.089   4.033
95098SOL    HW287134   4.413  13.089   3.904
95099SOL     OW87135   3.760   7.544   0.558
95099SOL    HW187136   3.706   7.572   0.632
95099SOL    HW287137   3.750   7.449   0.555
95100SOL     OW87138   5.138   7.782   5.317
95100SOL    HW187139   5.065   7.773   5.256
95100SOL    HW287140   5.215   7.754   5.267
95101SOL     OW87141   3.087  14.210  11.301
95101SOL    HW187142   3.097  14.164  11.218
95101SOL    HW287143   3.040  14.291  11.278
95102SOL     OW87144   2.734   3.178  13.757
95102SOL    HW187145   2.731   3.248  13.822
95102SOL    HW287146   2.797   3.208  13.691
95103SOL     OW87147   4.514   9.102   0.435
95103SOL    HW187148   4.427   9.126   0.402
95103SOL    HW287149   4.516   9.006   0.430
95104SOL     OW87150   4.869   7.905  12.218
95104SOL    HW187151   4.892   7.993  12.247
95104SOL    HW287152   4.942   7.878  12.162
95105SOL     OW87153   2.372   8.336  13.906
95105SOL    HW187154   2.329   8.379  13.980
95105SOL    HW287155   2.430   8.403  13.869
95106SOL     OW87156   6.290   3.500  10.943
95106SOL    HW187157   6.225   3.472  10.878
95106SOL    HW287158   6.298   3.595  10.929
95107SOL     OW87159  14.814   6.659   7.624
95107SOL    HW187160   0.007   6.661   7.560
95107SOL    HW287161  14.797   6.751   7.644
95108SOL     OW87162   7.711   6.546   0.679
95108SOL    HW187163   7.738   6.507   0.596
95108SOL    HW287164   7.780   6.522   0.741
95109SOL     OW87165   5.747   5.577   5.799
95109SOL    HW187166   5.792   5.662   5.797
95109SOL    HW287167   5.657   5.598   5.826
95110SOL     OW87168   8.368  10.767   8.438
95110SOL    HW187169   8.309  10.815   8.380
95110SOL    HW287170   8.436  10.830   8.460
95111SOL     OW87171   6.563   9.857   0.665
95111SOL    HW187172   6.509   9.898   0.597
95111SOL    HW287173   6.642   9.912   0.668
95112SOL     OW87174  10.353   6.257   9.748
95112SOL    HW187175  10.330   6.313   9.822
95112SOL    HW287176  10.415   6.194   9.784
95113SOL     OW87177  13.245  14.706   7.097
95113SOL    HW187178  13.241  14.794   7.057
95113SOL    HW287179  13.254  14.723   7.190
95114SOL     OW87180   9.403   5.733   2.153
95114SOL    HW187181   9.401   5.824   2.182
95114SOL    HW287182   9.314   5.717   2.119
95115SOL     OW87183   3.969  10.044  10.821
95115SOL    HW187184   3.974  10.134  10.852
95115SOL    HW287185   4.019   9.993  10.885
95116SOL     OW87186   2.844   4.114   5.793
95116SOL    HW187187   2.843   4.051   5.865
95116SOL    HW287188   2.935   4.142   5.787
95117SOL     OW87189   8.454   6.484   9.535
95117SOL    HW187190   8.543   6.517   9.525
95117SOL    HW287191   8.444   6.421   9.464
95118SOL     OW87192   3.184   7.171   3.080
95118SOL    HW187193   3.156   7.120   3.156
95118SOL    HW287194   3.274   7.144   3.064
95119SOL     OW87195  13.903   1.906  12.650
95119SOL    HW187196  13.842   1.944  12.714
95119SOL    HW287197  13.989   1.917  12.690
95120SOL     OW87198   0.882  12.675   1.493
95120SOL    HW187199   0.905  12.766   1.511
95120SOL    HW287200   0.948  12.624   1.539
95121SOL     OW87201   3.938  10.440   5.080
95121SOL    HW187202   3.993  10.518   5.086
95121SOL    HW287203   3.995  10.369   5.110
95122SOL     OW87204  13.029   6.975   6.516
95122SOL    HW187205  13.060   6.907   6.456
95122SOL    HW287206  13.054   6.943   6.603
95123SOL     OW87207  11.887   6.910   5.957
95123SOL    HW187208  11.916   6.948   5.874
95123SOL    HW287209  11.798   6.944   5.968
95124SOL     OW87210   8.365   7.051   6.744
95124SOL    HW187211   8.346   7.110   6.817
95124SOL    HW287212   8.385   7.110   6.671
95125SOL     OW87213   1.184   1.909  13.350
95125SOL    HW187214   1.177   2.003  13.333
95125SOL    HW287215   1.095   1.876  13.337
95126SOL     OW87216  13.837  14.147   4.638
95126SOL    HW187217  13.857  14.230   4.682
95126SOL    HW287218  13.787  14.173   4.561
95127SOL     OW87219   9.322   0.013  12.497
95127SOL    HW187220   9.235   0.053  12.492
95127SOL    HW287221   9.365   0.042  12.416
95128SOL     OW87222   1.719   1.830   1.055
95128SOL    HW187223   1.666   1.790   0.986
95128SOL    HW287224   1.676   1.804   1.137
95129SOL     OW87225   8.920   6.528   5.124
95129SOL    HW187226   8.941   6.436   5.142
95129SOL    HW287227   8.983   6.577   5.177
95130SOL     OW87228   8.911   7.870   0.153
95130SOL    HW187229   8.988   7.915   0.189
95130SOL    HW287230   8.897   7.912   0.068
95131SOL     OW87231   7.569  13.192   8.693
95131SOL    HW187232   7.506  13.212   8.763
95131SOL    HW287233   7.525  13.125   8.640
95132SOL     OW87234   7.474   9.652  11.363
95132SOL    HW187235   7.391   9.605  11.362
95132SOL    HW287236   7.473   9.700  11.446
95133SOL     OW87237   3.650   3.479   4.660
95133SOL    HW187238   3.678   3.499   4.749
95133SOL    HW287239   3.707   3.532   4.605
95134SOL     OW87240  10.110  11.505   1.637
95134SOL    HW187241  10.155  11.566   1.697
95134SOL    HW287242  10.066  11.562   1.574
95135SOL     OW87243  14.505   3.316   7.264
95135SOL    HW187244  14.441   3.302   7.194
95135SOL    HW287245  14.480   3.400   7.302
95136SOL     OW87246   5.547  10.583   7.473
95136SOL    HW187247   5.581  10.667   7.503
95136SOL    HW287248   5.625  10.536   7.442
95137SOL     OW87249   0.786   8.005   4.034
95137SOL    HW187250   0.827   8.014   4.120
95137SOL    HW287251   0.852   8.035   3.972
95138SOL     OW87252   1.040   3.930   3.025
95138SOL    HW187253   1.113   3.962   3.078
95138SOL    HW287254   0.967   3.923   3.087
95139SOL     OW87255   9.476   3.158  12.134
95139SOL    HW187256   9.399   3.124  12.089
95139SOL    HW287257   9.442   3.222  12.196
95140SOL     OW87258   7.037  12.397   8.314
95140SOL    HW187259   6.961  12.379   8.259
95140SOL    HW287260   7.096  12.447   8.258
95141SOL     OW87261   7.385   3.230   5.973
95141SOL    HW187262   7.410   3.155   5.918
95141SOL    HW287263   7.291   3.217   5.989
95142SOL     OW87264   5.227   4.713  13.840
95142SOL    HW187265   5.136   4.738  13.857
95142SOL    HW287266   5.267   4.794  13.806
95143SOL     OW87267  13.431   9.847   1.349
95143SOL    HW187268  13.350   9.897   1.349
95143SOL    HW287269  13.499   9.911   1.330
95144SOL     OW87270   6.556   2.153   4.195
95144SOL    HW187271   6.507   2.105   4.128
95144SOL    HW287272   6.630   2.096   4.216
95145SOL     OW87273   1.586  12.861  12.505
95145SOL    HW187274   1.610  12.905  12.423
95145SOL    HW287275   1.550  12.930  12.559
95146SOL     OW87276  14.141  11.574   7.311
95146SOL    HW187277  14.100  11.593   7.396
95146SOL    HW287278  14.220  11.524   7.333
95147SOL     OW87279   1.449   8.273   8.232
95147SOL    HW187280   1.500   8.308   8.159
95147SOL    HW287281   1.361   8.310   8.219
95148SOL     OW87282  12.959   6.260  10.293
95148SOL    HW187283  13.029   6.305  10.247
95148SOL    HW287284  12.914   6.209  10.226
95149SOL     OW87285   0.408   8.744   5.153
95149SOL    HW187286   0.402   8.649   5.159
95149SOL    HW287287   0.338   8.776   5.211
95150SOL     OW87288   4.751   6.401  14.738
95150SOL    HW187289   4.797   6.427  14.818
95150SOL    HW287290   4.699   6.478  14.715
95151SOL     OW87291  12.451  11.565   1.769
95151SOL    HW187292  12.445  11.660   1.758
95151SOL    HW287293  12.387  11.545   1.837
95152SOL     OW87294  14.443  14.217   6.847
95152SOL    HW187295  14.397  14.161   6.909
95152SOL    HW287296  14.376  14.277   6.814
95153SOL     OW87297  12.237   6.830   2.115
95153SOL    HW187298  12.263   6.758   2.171
95153SOL    HW287299  12.319   6.861   2.077
95154SOL     OW87300  12.253  11.669   8.154
95154SOL    HW187301  12.309  11.743   8.133
95154SOL    HW287302  12.171  11.686   8.108
95155SOL     OW87303   1.088   1.647   7.066
95155SOL    HW187304   1.178   1.628   7.037
95155SOL    HW287305   1.037   1.574   7.032
95156SOL     OW87306   6.075  12.312   4.341
95156SOL    HW187307   6.057  12.263   4.261
95156SOL    HW287308   5.990  12.320   4.385
95157SOL     OW87309  13.492   4.320   0.163
95157SOL    HW187310  13.438   4.243   0.145
95157SOL    HW287311  13.496   4.366   0.078
95158SOL     OW87312  11.973   4.057  10.185
95158SOL    HW187313  11.906   4.093  10.244
95158SOL    HW287314  11.945   3.967  10.170
95159SOL     OW87315  11.921   1.288   1.789
95159SOL    HW187316  11.883   1.302   1.876
95159SOL    HW287317  12.010   1.322   1.796
95160SOL     OW87318  12.688   5.672  14.315
95160SOL    HW187319  12.650   5.640  14.397
95160SOL    HW287320  12.612   5.697  14.262
95161SOL     OW87321  12.060  11.304  12.222
95161SOL    HW187322  12.154  11.319  12.231
95161SOL    HW287323  12.020  11.388  12.242
95162SOL     OW87324   0.954   4.298   3.511
95162SOL    HW187325   0.948   4.320   3.604
95162SOL    HW287326   0.873   4.334   3.473
95163SOL     OW87327   4.079   6.624   0.351
95163SOL    HW187328   4.054   6.572   0.428
95163SOL    HW287329   4.132   6.695   0.387
95164SOL     OW87330   1.452   6.430   0.153
95164SOL    HW187331   1.480   6.405   0.065
95164SOL    HW287332   1.474   6.355   0.208
95165SOL     OW87333  13.397   5.661   4.521
95165SOL    HW187334  13.371   5.667   4.613
95165SOL    HW287335  13.315   5.652   4.473
95166SOL     OW87336   8.702  13.289   0.025
95166SOL    HW187337   8.762  13.307  14.832
95166SOL    HW287338   8.624  13.254  14.862
95167SOL     OW87339   2.962   8.934   2.264
95167SOL    HW187340   3.053   8.962   2.266
95167SOL    HW287341   2.912   9.015   2.274
95168SOL     OW87342   0.902   6.881  12.231
95168SOL    HW187343   0.825   6.901  12.178
95168SOL    HW287344   0.976   6.898  12.173
95169SOL     OW87345   7.415  14.714  12.272
95169SOL    HW187346   7.321  14.732  12.266
95169SOL    HW287347   7.419  14.623  12.303
95170SOL     OW87348   0.908   0.164   2.287
95170SOL    HW187349   0.826   0.157   2.238
95170SOL    HW287350   0.882   0.195   2.374
95171SOL     OW87351   5.727   4.217   0.568
95171SOL    HW187352   5.711   4.260   0.653
95171SOL    HW287353   5.658   4.251   0.511
95172SOL     OW87354   5.269  12.643   8.131
95172SOL    HW187355   5.215  12.711   8.171
95172SOL    HW287356   5.346  12.690   8.099
95173SOL     OW87357   1.002   0.842   2.518
95173SOL    HW187358   0.925   0.896   2.531
95173SOL    HW287359   0.985   0.794   2.437
95174SOL     OW87360   9.119   5.515   5.701
95174SOL    HW187361   9.162   5.540   5.619
95174SOL    HW287362   9.139   5.421   5.710
95175SOL     OW87363   4.288   4.305   8.699
95175SOL    HW187364   4.289   4.340   8.789
95175SOL    HW287365   4.328   4.374   8.646
95176SOL     OW87366  10.101   3.445   8.514
95176SOL    HW187367  10.009   3.463   8.529
95176SOL    HW287368  10.112   3.455   8.419
95177SOL     OW87369   6.078   6.730   0.776
95177SOL    HW187370   6.004   6.784   0.806
95177SOL    HW287371   6.042   6.642   0.768
95178SOL     OW87372   0.099  11.674   7.300
95178SOL    HW187373   0.185  11.708   7.276
95178SOL    HW287374   0.040  11.707   7.233
95179SOL     OW87375   7.188   3.968   6.063
95179SOL    HW187376   7.257   3.902   6.077
95179SOL    HW287377   7.144   3.975   6.148
95180SOL     OW87378   6.638   7.745   2.399
95180SOL    HW187379   6.693   7.686   2.347
95180SOL    HW287380   6.579   7.785   2.335
95181SOL     OW87381   8.735   5.532  12.841
95181SOL    HW187382   8.666   5.594  12.864
95181SOL    HW287383   8.811   5.587  12.822
95182SOL     OW87384  14.721   1.400   4.078
95182SOL    HW187385  14.812   1.415   4.103
95182SOL    HW287386  14.683   1.487   4.070
95183SOL     OW87387   2.620   6.888   7.363
95183SOL    HW187388   2.656   6.809   7.323
95183SOL    HW287389   2.690   6.921   7.419
95184SOL     OW87390  11.736  11.211   8.154
95184SOL    HW187391  11.765  11.269   8.224
95184SOL    HW287392  11.801  11.223   8.084
95185SOL     OW87393   3.367  11.211  10.693
95185SOL    HW187394   3.337  11.288  10.645
95185SOL    HW287395   3.411  11.246  10.771
95186SOL     OW87396   4.998  14.581   9.800
95186SOL    HW187397   5.036  14.600   9.714
95186SOL    HW287398   4.904  14.591   9.786
95187SOL     OW87399  11.337   1.035   6.527
95187SOL    HW187400  11.276   1.075   6.590
95187SOL    HW287401  11.422   1.070   6.552
95188SOL     OW87402   2.631   6.121   2.308
95188SOL    HW187403   2.712   6.072   2.324
95188SOL    HW287404   2.660   6.205   2.274
95189SOL     OW87405   7.395   3.536   5.961
95189SOL    HW187406   7.432   3.595   5.895
95189SOL    HW287407   7.331   3.484   5.913
95190SOL     OW87408   4.046   8.502   5.425
95190SOL    HW187409   4.077   8.592   5.426
95190SOL    HW287410   4.125   8.450   5.411
95191SOL     OW87411  11.127  13.360   7.193
95191SOL    HW187412  11.173  13.426   7.141
95191SOL    HW287413  11.172  13.361   7.278
95192SOL     OW87414   2.471   4.124   2.726
95192SOL    HW187415   2.403   4.111   2.660
95192SOL    HW287416   2.454   4.057   2.792
95193SOL     OW87417   5.495   7.787   8.130
95193SOL    HW187418   5.585   7.756   8.144
95193SOL    HW287419   5.474   7.837   8.209
95194SOL     OW87420  14.388   9.803   3.996
95194SOL    HW187421  14.427   9.872   4.049
95194SOL    HW287422  14.294   9.818   4.002
95195SOL     OW87423  12.774  11.844   2.170
95195SOL    HW187424  12.846  11.834   2.107
95195SOL    HW287425  12.698  11.808   2.124
95196SOL     OW87426   5.693   5.525   5.543
95196SOL    HW187427   5.704   5.526   5.638
95196SOL    HW287428   5.750   5.595   5.511
95197SOL     OW87429   4.133  10.956  11.733
95197SOL    HW187430   4.138  11.027  11.797
95197SOL    HW287431   4.158  10.997  11.650
95198SOL     OW87432   2.271   4.333  11.972
95198SOL    HW187433   2.292   4.343  11.880
95198SOL    HW287434   2.188   4.285  11.974
95199SOL     OW87435   2.510   5.302   8.708
95199SOL    HW187436   2.604   5.301   8.723
95199SOL    HW287437   2.494   5.383   8.659
95200SOL     OW87438  14.374   4.851  13.337
95200SOL    HW187439  14.310   4.844  13.407
95200SOL    HW287440  14.375   4.943  13.314
95201SOL     OW87441  13.449   1.390  14.240
95201SOL    HW187442  13.502   1.396  14.319
95201SOL    HW287443  13.366   1.431  14.265
95202SOL     OW87444   1.890   3.608   1.479
95202SOL    HW187445   1.972   3.655   1.466
95202SOL    HW287446   1.850   3.650   1.555
95203SOL     OW87447   6.340  12.531   6.559
95203SOL    HW187448   6.388  12.458   6.520
95203SOL    HW287449   6.314  12.500   6.645
95204SOL     OW87450   1.429   8.000   3.270
95204SOL    HW187451   1.441   7.922   3.324
95204SOL    HW287452   1.346   8.038   3.300
95205SOL     OW87453   1.856   2.385   9.548
95205SOL    HW187454   1.939   2.349   9.578
95205SOL    HW287455   1.878   2.470   9.510
95206SOL     OW87456   2.914  11.235  12.163
95206SOL    HW187457   2.955  11.259  12.079
95206SOL    HW287458   2.872  11.151  12.146
95207SOL     OW87459  11.181  13.574   8.675
95207SOL    HW187460  11.236  13.632   8.727
95207SOL    HW287461  11.101  13.624   8.659
95208SOL     OW87462   6.368  14.485   9.614
95208SOL    HW187463   6.403  14.549   9.675
95208SOL    HW287464   6.444  14.431   9.590
95209SOL     OW87465   1.584   0.105   0.562
95209SOL    HW187466   1.566   0.096   0.468
95209SOL    HW287467   1.538   0.031   0.602
95210SOL     OW87468   5.486   1.289  10.111
95210SOL    HW187469   5.506   1.248  10.028
95210SOL    HW287470   5.502   1.220  10.176
95211SOL     OW87471  11.807   0.509   9.332
95211SOL    HW187472  11.800   0.560   9.251
95211SOL    HW287473  11.900   0.516   9.356
95212SOL     OW87474   0.742   0.977   2.588
95212SOL    HW187475   0.693   0.896   2.604
95212SOL    HW287476   0.731   1.028   2.668
95213SOL     OW87477   9.000   2.188  14.022
95213SOL    HW187478   9.045   2.223  13.946
95213SOL    HW287479   9.030   2.097  14.027
95214SOL     OW87480  13.164  13.873  14.785
95214SOL    HW187481  13.257  13.854  14.792
95214SOL    HW287482  13.125  13.831  14.862
95215SOL     OW87483  13.961   5.068   0.951
95215SOL    HW187484  13.906   5.057   1.029
95215SOL    HW287485  14.015   4.989   0.949
95216SOL     OW87486   1.209  13.671   3.493
95216SOL    HW187487   1.262  13.598   3.527
95216SOL    HW287488   1.118  13.642   3.505
95217SOL     OW87489   3.826  10.409   7.504
95217SOL    HW187490   3.832  10.313   7.510
95217SOL    HW287491   3.818  10.438   7.595
95218SOL     OW87492   7.457   9.848  14.286
95218SOL    HW187493   7.418   9.778  14.233
95218SOL    HW287494   7.539   9.868  14.241
95219SOL     OW87495  13.489  11.609  11.371
95219SOL    HW187496  13.470  11.531  11.423
95219SOL    HW287497  13.530  11.575  11.291
95220SOL     OW87498   2.071   2.936   0.893
95220SOL    HW187499   2.128   2.988   0.949
95220SOL    HW287500   1.989   2.986   0.890
95221SOL     OW87501   7.035  14.694   6.345
95221SOL    HW187502   6.947  14.710   6.311
95221SOL    HW287503   7.093  14.739   6.285
95222SOL     OW87504   4.600   3.468   9.659
95222SOL    HW187505   4.648   3.404   9.711
95222SOL    HW287506   4.565   3.418   9.585
95223SOL     OW87507  14.501   9.818  11.903
95223SOL    HW187508  14.542   9.865  11.831
95223SOL    HW287509  14.561   9.831  11.977
95224SOL     OW87510  11.514   4.408   9.536
95224SOL    HW187511  11.485   4.389   9.447
95224SOL    HW287512  11.522   4.322   9.578
95225SOL     OW87513   8.121   2.324   9.398
95225SOL    HW187514   8.047   2.368   9.358
95225SOL    HW287515   8.134   2.245   9.345
95226SOL     OW87516   3.824  10.063   0.216
95226SOL    HW187517   3.902  10.008   0.213
95226SOL    HW287518   3.756  10.007   0.253
95227SOL     OW87519   0.144   2.859   0.582
95227SOL    HW187520   0.106   2.812   0.656
95227SOL    HW287521   0.126   2.951   0.599
95228SOL     OW87522   5.091   1.147   9.311
95228SOL    HW187523   5.078   1.221   9.251
95228SOL    HW287524   5.032   1.165   9.384
95229SOL     OW87525   3.241   4.442   0.666
95229SOL    HW187526   3.288   4.359   0.670
95229SOL    HW287527   3.208   4.447   0.577
95230SOL     OW87528   2.838   0.156   1.621
95230SOL    HW187529   2.864   0.235   1.668
95230SOL    HW287530   2.811   0.095   1.690
95231SOL     OW87531   8.221   4.824   1.456
95231SOL    HW187532   8.255   4.796   1.371
95231SOL    HW287533   8.128   4.804   1.453
95232SOL     OW87534  12.593   7.753   3.890
95232SOL    HW187535  12.506   7.729   3.857
95232SOL    HW287536  12.654   7.706   3.834
95233SOL     OW87537  14.813   4.159   3.676
95233SOL    HW187538  14.800   4.092   3.744
95233SOL    HW287539  14.750   4.228   3.697
95234SOL     OW87540   2.811   3.478  10.129
95234SOL    HW187541   2.886   3.506  10.181
95234SOL    HW287542   2.842   3.399  10.084
95235SOL     OW87543  12.339   1.972   7.182
95235SOL    HW187544  12.275   1.933   7.123
95235SOL    HW287545  12.348   2.063   7.152
95236SOL     OW87546  13.069   6.685  10.471
95236SOL    HW187547  13.012   6.686  10.395
95236SOL    HW287548  13.061   6.772  10.509
95237SOL     OW87549   9.888   2.746   8.530
95237SOL    HW187550   9.911   2.839   8.536
95237SOL    HW287551   9.871   2.732   8.437
95238SOL     OW87552   2.120   0.158  13.327
95238SOL    HW187553   2.050   0.101  13.359
95238SOL    HW287554   2.089   0.188  13.241
95239SOL     OW87555  14.496  10.210  11.206
95239SOL    HW187556  14.499  10.125  11.162
95239SOL    HW287557  14.587  10.237  11.212
95240SOL     OW87558  13.472   1.930   6.292
95240SOL    HW187559  13.521   1.869   6.347
95240SOL    HW287560  13.474   1.891   6.204
95241SOL     OW87561   3.716   8.959   0.562
95241SOL    HW187562   3.708   9.042   0.610
95241SOL    HW287563   3.802   8.925   0.588
95242SOL     OW87564   3.108  14.310   4.041
95242SOL    HW187565   3.115  14.240   3.977
95242SOL    HW287566   3.124  14.390   3.991
95243SOL     OW87567  11.260   6.737  14.708
95243SOL    HW187568  11.320   6.735  14.633
95243SOL    HW287569  11.317   6.750  14.784
95244SOL     OW87570   9.807   9.779   7.528
95244SOL    HW187571   9.880   9.819   7.575
95244SOL    HW287572   9.748   9.853   7.508
95245SOL     OW87573   1.005   4.209  14.180
95245SOL    HW187574   1.027   4.116  14.171
95245SOL    HW287575   1.055   4.253  14.112
95246SOL     OW87576  11.630   4.834   3.452
95246SOL    HW187577  11.670   4.757   3.412
95246SOL    HW287578  11.655   4.907   3.394
95247SOL     OW87579  10.973  12.132   6.486
95247SOL    HW187580  11.000  12.069   6.419
95247SOL    HW287581  10.877  12.134   6.479
95248SOL     OW87582   6.136   8.828   2.255
95248SOL    HW187583   6.101   8.895   2.196
95248SOL    HW287584   6.230   8.831   2.242
95249SOL     OW87585   0.758   7.384   8.847
95249SOL    HW187586   0.784   7.361   8.936
95249SOL    HW287587   0.714   7.305   8.814
95250SOL     OW87588   4.240   2.653   4.135
95250SOL    HW187589   4.276   2.678   4.049
95250SOL    HW287590   4.280   2.715   4.196
95251SOL     OW87591   4.766   9.548   0.940
95251SOL    HW187592   4.746   9.574   0.851
95251SOL    HW287593   4.843   9.600   0.963
95252SOL     OW87594   4.308   2.118   1.939
95252SOL    HW187595   4.266   2.100   2.023
95252SOL    HW287596   4.377   2.052   1.932
95253SOL     OW87597  11.944   0.097  11.633
95253SOL    HW187598  11.962   0.189  11.616
95253SOL    HW287599  11.917   0.061  11.548
95254SOL     OW87600   9.957  12.867  10.938
95254SOL    HW187601  10.013  12.870  11.016
95254SOL    HW287602  10.016  12.850  10.866
95255SOL     OW87603  13.165   4.183  11.118
95255SOL    HW187604  13.070   4.176  11.114
95255SOL    HW287605  13.191   4.116  11.181
95256SOL     OW87606   4.775  12.289  12.945
95256SOL    HW187607   4.756  12.300  13.038
95256SOL    HW287608   4.702  12.238  12.911
95257SOL     OW87609   3.074   3.772   6.723
95257SOL    HW187610   3.100   3.862   6.741
95257SOL    HW287611   3.105   3.723   6.799
95258SOL     OW87612  11.855   3.627  14.159
95258SOL    HW187613  11.912   3.618  14.236
95258SOL    HW287614  11.767   3.634  14.194
95259SOL     OW87615  10.042   9.070   3.480
95259SOL    HW187616   9.974   9.012   3.514
95259SOL    HW287617  10.054   9.136   3.548
95260SOL     OW87618   3.202   6.895   8.500
95260SOL    HW187619   3.132   6.831   8.514
95260SOL    HW287620   3.174   6.945   8.424
95261SOL     OW87621   9.986  14.786   5.255
95261SOL    HW187622  10.025  14.822   5.175
95261SOL    HW287623   9.930  14.857   5.289
95262SOL     OW87624   9.828   9.919   8.578
95262SOL    HW187625   9.789   9.968   8.650
95262SOL    HW287626   9.812   9.827   8.600
95263SOL     OW87627   7.663   9.608   2.319
95263SOL    HW187628   7.630   9.591   2.231
95263SOL    HW287629   7.709   9.528   2.344
95264SOL     OW87630   1.578   9.417   7.437
95264SOL    HW187631   1.522   9.384   7.507
95264SOL    HW287632   1.568   9.513   7.442
95265SOL     OW87633   7.609   1.948   2.686
95265SOL    HW187634   7.563   1.941   2.602
95265SOL    HW287635   7.610   2.042   2.705
95266SOL     OW87636   2.241   9.230  10.659
95266SOL    HW187637   2.186   9.268  10.590
95266SOL    HW287638   2.328   9.221  10.618
95267SOL     OW87639   1.925   7.970  13.835
95267SOL    HW187640   1.995   7.943  13.895
95267SOL    HW287641   1.939   8.064  13.823
95268SOL     OW87642   7.202   1.955   2.801
95268SOL    HW187643   7.268   1.886   2.799
95268SOL    HW287644   7.185   1.970   2.894
95269SOL     OW87645  14.296   2.039   6.519
95269SOL    HW187646  14.316   2.062   6.610
95269SOL    HW287647  14.367   1.980   6.493
95270SOL     OW87648   8.282  11.200  10.494
95270SOL    HW187649   8.357  11.257  10.511
95270SOL    HW287650   8.319  11.129  10.440
95271SOL     OW87651   5.544   0.221   9.857
95271SOL    HW187652   5.532   0.210   9.951
95271SOL    HW287653   5.575   0.311   9.847
95272SOL     OW87654  10.844   8.414   9.612
95272SOL    HW187655  10.936   8.433   9.593
95272SOL    HW287656  10.840   8.412   9.708
95273SOL     OW87657   5.956  10.623  11.610
95273SOL    HW187658   6.009  10.576  11.546
95273SOL    HW287659   6.018  10.680  11.656
95274SOL     OW87660  11.384   9.213   4.983
95274SOL    HW187661  11.335   9.291   4.957
95274SOL    HW287662  11.401   9.225   5.077
95275SOL     OW87663   9.958   3.924   9.002
95275SOL    HW187664   9.919   3.990   9.059
95275SOL    HW287665   9.895   3.914   8.931
95276SOL     OW87666   3.203  10.908   3.136
95276SOL    HW187667   3.263  10.893   3.063
95276SOL    HW287668   3.259  10.941   3.206
95277SOL     OW87669   1.294   6.511   0.833
95277SOL    HW187670   1.204   6.538   0.848
95277SOL    HW287671   1.288   6.440   0.769
95278SOL     OW87672  13.104  10.544   9.722
95278SOL    HW187673  13.130  10.635   9.706
95278SOL    HW287674  13.012  10.549   9.746
95279SOL     OW87675   8.636  14.502   3.592
95279SOL    HW187676   8.716  14.467   3.552
95279SOL    HW287677   8.665  14.539   3.675
95280SOL     OW87678   0.111  11.189  12.628
95280SOL    HW187679   0.126  11.104  12.669
95280SOL    HW287680   0.145  11.179  12.539
95281SOL     OW87681   9.666   8.042   6.588
95281SOL    HW187682   9.586   8.064   6.637
95281SOL    HW287683   9.636   8.025   6.499
95282SOL     OW87684   9.960   5.092   8.898
95282SOL    HW187685  10.013   5.087   8.977
95282SOL    HW287686   9.980   5.178   8.861
95283SOL     OW87687   8.181   6.479  13.324
95283SOL    HW187688   8.223   6.400  13.357
95283SOL    HW287689   8.230   6.551  13.365
95284SOL     OW87690   5.374   6.823   2.992
95284SOL    HW187691   5.350   6.736   3.023
95284SOL    HW287692   5.448   6.849   3.047
95285SOL     OW87693   4.363   3.069   4.527
95285SOL    HW187694   4.457   3.066   4.508
95285SOL    HW287695   4.358   3.087   4.621
95286SOL     OW87696   5.227   5.661  13.053
95286SOL    HW187697   5.179   5.614  12.985
95286SOL    HW287698   5.312   5.679  13.013
95287SOL     OW87699   9.410   0.969   7.168
95287SOL    HW187700   9.379   0.992   7.081
95287SOL    HW287701   9.471   0.897   7.155
95288SOL     OW87702  11.699   3.588   8.152
95288SOL    HW187703  11.695   3.500   8.187
95288SOL    HW287704  11.623   3.632   8.189
95289SOL     OW87705   9.092   9.294   1.312
95289SOL    HW187706   9.111   9.384   1.338
95289SOL    HW287707   9.004   9.297   1.275
95290SOL     OW87708   7.735   9.382  14.480
95290SOL    HW187709   7.664   9.394  14.543
95290SOL    HW287710   7.691   9.358  14.398
95291SOL     OW87711   7.988   7.333   9.739
95291SOL    HW187712   7.958   7.284   9.663
95291SOL    HW287713   8.003   7.267   9.806
95292SOL     OW87714   4.001   2.376   1.520
95292SOL    HW187715   4.062   2.310   1.552
95292SOL    HW287716   4.003   2.445   1.587
95293SOL     OW87717   9.897  14.501  10.538
95293SOL    HW187718   9.845  14.528  10.462
95293SOL    HW287719   9.864  14.555  10.610
95294SOL     OW87720   8.101   9.404   2.564
95294SOL    HW187721   8.020   9.424   2.610
95294SOL    HW287722   8.170   9.429   2.625
95295SOL     OW87723  11.116   1.557   8.251
95295SOL    HW187724  11.151   1.582   8.336
95295SOL    HW287725  11.176   1.597   8.188
95296SOL     OW87726   7.808   2.795   9.053
95296SOL    HW187727   7.861   2.873   9.071
95296SOL    HW287728   7.744   2.793   9.124
95297SOL     OW87729   7.694   7.791  14.113
95297SOL    HW187730   7.664   7.766  14.200
95297SOL    HW287731   7.702   7.887  14.117
95298SOL     OW87732   8.915   4.052   3.816
95298SOL    HW187733   8.931   3.996   3.892
95298SOL    HW287734   9.001   4.065   3.777
95299SOL     OW87735   3.874   4.792   7.833
95299SOL    HW187736   3.850   4.734   7.906
95299SOL    HW287737   3.793   4.802   7.783
95300SOL     OW87738   0.278   4.515  12.911
95300SOL    HW187739   0.189   4.550  12.909
95300SOL    HW287740   0.301   4.505  12.819
95301SOL     OW87741  11.751   4.691   7.470
95301SOL    HW187742  11.673   4.650   7.506
95301SOL    HW287743  11.778   4.754   7.536
95302SOL     OW87744   3.878   9.723   6.376
95302SOL    HW187745   3.887   9.795   6.314
95302SOL    HW287746   3.858   9.766   6.460
95303SOL     OW87747  13.058   9.087   2.354
95303SOL    HW187748  13.004   9.111   2.279
95303SOL    HW287749  13.105   9.008   2.327
95304SOL     OW87750  12.405   2.400   6.742
95304SOL    HW187751  12.500   2.392   6.742
95304SOL    HW287752  12.374   2.311   6.731
95305SOL     OW87753   0.843  11.095  10.181
95305SOL    HW187754   0.886  11.175  10.153
95305SOL    HW287755   0.898  11.024  10.148
95306SOL     OW87756   9.592  11.688  14.629
95306SOL    HW187757   9.648  11.728  14.563
95306SOL    HW287758   9.603  11.743  14.707
95307SOL     OW87759  12.608   0.406   1.090
95307SOL    HW187760  12.518   0.436   1.081
95307SOL    HW287761  12.650   0.472   1.145
95308SOL     OW87762   0.723  12.498   6.385
95308SOL    HW187763   0.746  12.537   6.301
95308SOL    HW287764   0.684  12.414   6.363
95309SOL     OW87765   6.601   0.007   8.497
95309SOL    HW187766   6.513  14.850   8.484
95309SOL    HW287767   6.606   0.026   8.591
95310SOL     OW87768   8.483   4.009  14.774
95310SOL    HW187769   8.403   3.971  14.811
95310SOL    HW287770   8.454   4.088  14.729
95311SOL     OW87771   7.018   9.360   2.085
95311SOL    HW187772   6.932   9.352   2.127
95311SOL    HW287773   7.042   9.451   2.099
95312SOL     OW87774  12.084   7.719  12.340
95312SOL    HW187775  12.041   7.639  12.311
95312SOL    HW287776  12.015   7.785  12.338
95313SOL     OW87777  13.792  11.852   8.303
95313SOL    HW187778  13.853  11.893   8.241
95313SOL    HW287779  13.736  11.797   8.249
95314SOL     OW87780   0.228   1.481  10.306
95314SOL    HW187781   0.251   1.393  10.334
95314SOL    HW287782   0.184   1.520  10.382
95315SOL     OW87783  11.044   5.603   9.983
95315SOL    HW187784  11.014   5.690  10.011
95315SOL    HW287785  11.088   5.567  10.060
95316SOL     OW87786   0.173   3.514  10.662
95316SOL    HW187787   0.233   3.517  10.587
95316SOL    HW287788   0.230   3.521  10.739
95317SOL     OW87789  12.531   8.362   2.211
95317SOL    HW187790  12.547   8.329   2.300
95317SOL    HW287791  12.618   8.369   2.172
95318SOL     OW87792   6.561   4.624   4.208
95318SOL    HW187793   6.576   4.685   4.135
95318SOL    HW287794   6.604   4.665   4.282
95319SOL     OW87795   7.103  14.105   2.700
95319SOL    HW187796   7.045  14.063   2.636
95319SOL    HW287797   7.110  14.041   2.771
95320SOL     OW87798   1.274   0.251   9.163
95320SOL    HW187799   1.251   0.343   9.170
95320SOL    HW287800   1.208   0.205   9.215
95321SOL     OW87801   7.063   9.400   7.633
95321SOL    HW187802   7.083   9.370   7.545
95321SOL    HW287803   7.057   9.320   7.685
95322SOL     OW87804   1.401  13.286  12.791
95322SOL    HW187805   1.466  13.356  12.793
95322SOL    HW287806   1.318  13.330  12.812
95323SOL     OW87807   8.493   6.256  11.517
95323SOL    HW187808   8.475   6.194  11.588
95323SOL    HW287809   8.549   6.322  11.557
95324SOL     OW87810  11.558   1.824   2.243
95324SOL    HW187811  11.557   1.754   2.177
95324SOL    HW287812  11.581   1.903   2.194
95325SOL     OW87813   5.403   5.510  14.585
95325SOL    HW187814   5.387   5.587  14.639
95325SOL    HW287815   5.409   5.544  14.495
95326SOL     OW87816   6.335   3.770   0.226
95326SOL    HW187817   6.258   3.786   0.171
95326SOL    HW287818   6.337   3.845   0.286
95327SOL     OW87819   9.036   0.536   6.404
95327SOL    HW187820   9.048   0.628   6.380
95327SOL    HW287821   8.961   0.535   6.463
95328SOL     OW87822  14.593   2.160  11.544
95328SOL    HW187823  14.522   2.220  11.524
95328SOL    HW287824  14.559   2.106  11.616
95329SOL     OW87825  11.372   1.027   3.337
95329SOL    HW187826  11.374   0.984   3.251
95329SOL    HW287827  11.439   1.095   3.331
95330SOL     OW87828   0.222   3.840   8.474
95330SOL    HW187829   0.290   3.827   8.407
95330SOL    HW287830   0.174   3.917   8.445
95331SOL     OW87831   6.719   5.346  10.494
95331SOL    HW187832   6.754   5.364  10.582
95331SOL    HW287833   6.625   5.337  10.508
95332SOL     OW87834   0.087   2.099  12.099
95332SOL    HW187835   0.029   2.041  12.049
95332SOL    HW287836   0.109   2.048  12.177
95333SOL     OW87837   6.976   3.466   4.222
95333SOL    HW187838   7.017   3.516   4.292
95333SOL    HW287839   6.888   3.504   4.214
95334SOL     OW87840  14.592   1.144   1.168
95334SOL    HW187841  14.687   1.148   1.156
95334SOL    HW287842  14.569   1.227   1.210
95335SOL     OW87843   0.906  12.316   4.777
95335SOL    HW187844   0.928  12.355   4.861
95335SOL    HW287845   0.837  12.253   4.797
95336SOL     OW87846  10.109  12.071  14.498
95336SOL    HW187847  10.165  11.999  14.528
95336SOL    HW287848  10.036  12.027  14.454
95337SOL     OW87849   4.749   2.481   8.077
95337SOL    HW187850   4.672   2.526   8.043
95337SOL    HW287851   4.778   2.535   8.151
95338SOL     OW87852   4.549   9.356   3.529
95338SOL    HW187853   4.590   9.352   3.615
95338SOL    HW287854   4.611   9.313   3.470
95339SOL     OW87855  14.751  13.004  10.200
95339SOL    HW187856  14.794  13.074  10.151
95339SOL    HW287857  14.660  13.033  10.208
95340SOL     OW87858  10.141   1.140   9.513
95340SOL    HW187859  10.205   1.089   9.562
95340SOL    HW287860  10.135   1.223   9.561
95341SOL     OW87861   1.470   7.411   7.197
95341SOL    HW187862   1.504   7.409   7.287
95341SOL    HW287863   1.380   7.380   7.205
95342SOL     OW87864   2.494   6.162   5.240
95342SOL    HW187865   2.449   6.111   5.173
95342SOL    HW287866   2.491   6.106   5.318
95343SOL     OW87867   5.468  13.246   2.111
95343SOL    HW187868   5.546  13.210   2.068
95343SOL    HW287869   5.440  13.317   2.053
95344SOL     OW87870  12.653  12.203   8.663
95344SOL    HW187871  12.597  12.198   8.586
95344SOL    HW287872  12.640  12.291   8.696
95345SOL     OW87873   7.201  12.431   2.078
95345SOL    HW187874   7.108  12.425   2.057
95345SOL    HW287875   7.206  12.497   2.147
95346SOL     OW87876   4.094   6.085  12.516
95346SOL    HW187877   4.085   6.176  12.489
95346SOL    HW287878   4.156   6.047  12.453
95347SOL     OW87879   6.663  11.151  14.213
95347SOL    HW187880   6.605  11.113  14.148
95347SOL    HW287881   6.739  11.182  14.163
95348SOL     OW87882   0.604   6.561   0.738
95348SOL    HW187883   0.627   6.518   0.656
95348SOL    HW287884   0.597   6.490   0.801
95349SOL     OW87885  12.299  11.790  11.159
95349SOL    HW187886  12.353  11.801  11.238
95349SOL    HW287887  12.218  11.751  11.191
95350SOL     OW87888   7.581   1.039   9.019
95350SOL    HW187889   7.656   1.097   9.004
95350SOL    HW287890   7.617   0.951   9.013
95351SOL     OW87891  14.796   2.619   3.649
95351SOL    HW187892  14.833   2.570   3.723
95351SOL    HW287893  14.704   2.590   3.645
95352SOL     OW87894  12.453   2.852  11.681
95352SOL    HW187895  12.398   2.928  11.697
95352SOL    HW287896  12.520   2.883  11.619
95353SOL     OW87897   1.346   3.452   6.673
95353SOL    HW187898   1.367   3.377   6.618
95353SOL    HW287899   1.372   3.528   6.620
95354SOL     OW87900  13.881   5.884   1.112
95354SOL    HW187901  13.969   5.905   1.144
95354SOL    HW287902  13.892   5.874   1.017
95355SOL     OW87903   4.030   3.633  11.990
95355SOL    HW187904   4.042   3.604  12.080
95355SOL    HW287905   4.099   3.699  11.976
95356SOL     OW87906   8.882   8.603  12.904
95356SOL    HW187907   8.940   8.531  12.930
95356SOL    HW287908   8.938   8.680  12.901
95357SOL     OW87909  13.393  14.419   5.331
95357SOL    HW187910  13.453  14.415   5.405
95357SOL    HW287911  13.412  14.503   5.288
95358SOL     OW87912   1.509  12.867   6.876
95358SOL    HW187913   1.427  12.830   6.911
95358SOL    HW287914   1.481  12.921   6.803
95359SOL     OW87915   6.197   6.535   2.486
95359SOL    HW187916   6.117   6.560   2.442
95359SOL    HW287917   6.173   6.460   2.540
95360SOL     OW87918  13.237   0.482  13.378
95360SOL    HW187919  13.263   0.467  13.287
95360SOL    HW287920  13.142   0.482  13.376
95361SOL     OW87921   4.202  10.707  14.127
95361SOL    HW187922   4.177  10.640  14.063
95361SOL    HW287923   4.140  10.778  14.113
95362SOL     OW87924   9.057   1.075  14.222
95362SOL    HW187925   9.002   1.148  14.193
95362SOL    HW287926   9.125   1.115  14.275
95363SOL     OW87927   4.367   5.547   2.416
95363SOL    HW187928   4.374   5.463   2.370
95363SOL    HW287929   4.440   5.547   2.478
95364SOL     OW87930   3.154   9.238   2.202
95364SOL    HW187931   3.068   9.203   2.224
95364SOL    HW287932   3.214   9.165   2.218
95365SOL     OW87933  12.297   5.021  13.841
95365SOL    HW187934  12.277   4.943  13.892
95365SOL    HW287935  12.379   5.053  13.878
95366SOL     OW87936   8.222  12.895   1.265
95366SOL    HW187937   8.185  12.806   1.266
95366SOL    HW287938   8.317  12.881   1.265
95367SOL     OW87939   5.579  10.375   2.688
95367SOL    HW187940   5.550  10.352   2.776
95367SOL    HW287941   5.609  10.292   2.651
95368SOL     OW87942   9.275  11.091  11.958
95368SOL    HW187943   9.246  11.122  11.872
95368SOL    HW287944   9.279  10.996  11.949
95369SOL     OW87945  11.818  13.758   6.548
95369SOL    HW187946  11.867  13.765   6.630
95369SOL    HW287947  11.726  13.751   6.576
95370SOL     OW87948   4.684   4.424  13.273
95370SOL    HW187949   4.637   4.473  13.339
95370SOL    HW287950   4.770   4.407  13.312
95371SOL     OW87951   0.985   0.814   8.813
95371SOL    HW187952   0.907   0.805   8.868
95371SOL    HW287953   0.959   0.779   8.728
95372SOL     OW87954  14.754   8.501   0.831
95372SOL    HW187955  14.759   8.579   0.886
95372SOL    HW287956  14.673   8.457   0.858
95373SOL     OW87957  14.722   6.171   6.757
95373SOL    HW187958  14.764   6.221   6.826
95373SOL    HW287959  14.682   6.237   6.699
95374SOL     OW87960   0.164   6.976   7.603
95374SOL    HW187961   0.167   6.969   7.507
95374SOL    HW287962   0.213   7.056   7.622
95375SOL     OW87963  12.243   3.888   6.943
95375SOL    HW187964  12.269   3.945   6.870
95375SOL    HW287965  12.184   3.824   6.905
95376SOL     OW87966   7.622   6.120   8.759
95376SOL    HW187967   7.710   6.156   8.758
95376SOL    HW287968   7.596   6.115   8.667
95377SOL     OW87969   5.682   1.934  10.257
95377SOL    HW187970   5.658   1.970  10.172
95377SOL    HW287971   5.652   1.844  10.255
95378SOL     OW87972   3.539  14.560   1.268
95378SOL    HW187973   3.629  14.541   1.292
95378SOL    HW287974   3.539  14.559   1.172
95379SOL     OW87975   4.566   0.067   4.708
95379SOL    HW187976   4.660   0.060   4.690
95379SOL    HW287977   4.540  14.859   4.737
95380SOL     OW87978  13.823   0.929   6.761
95380SOL    HW187979  13.904   0.886   6.735
95380SOL    HW287980  13.754   0.882   6.715
95381SOL     OW87981  11.009   4.223   0.027
95381SOL    HW187982  11.044   4.269   0.103
95381SOL    HW287983  11.036   4.132   0.040
95382SOL     OW87984  11.925   9.606  10.502
95382SOL    HW187985  11.931   9.648  10.587
95382SOL    HW287986  11.958   9.671  10.440
95383SOL     OW87987  10.329   5.436   9.570
95383SOL    HW187988  10.321   5.531   9.565
95383SOL    HW287989  10.405   5.415   9.515
95384SOL     OW87990   6.678  13.511   9.238
95384SOL    HW187991   6.745  13.447   9.259
95384SOL    HW287992   6.652  13.547   9.323
95385SOL     OW87993  11.829   8.005  10.307
95385SOL    HW187994  11.856   8.097  10.307
95385SOL    HW287995  11.839   7.977  10.399
95386SOL     OW87996   9.000   1.701   5.733
95386SOL    HW187997   8.964   1.634   5.791
95386SOL    HW287998   9.094   1.681   5.728
95387SOL     OW87999   9.895   8.214   0.020
95387SOL    HW188000   9.881   8.123   0.044
95387SOL    HW288001   9.978   8.237   0.063
95388SOL     OW88002   9.220   8.918   8.124
95388SOL    HW188003   9.201   8.963   8.207
95388SOL    HW288004   9.176   8.971   8.058
95389SOL     OW88005   0.813  10.278   3.365
95389SOL    HW188006   0.867  10.343   3.321
95389SOL    HW288007   0.839  10.194   3.327
95390SOL     OW88008  10.334   5.318   9.246
95390SOL    HW188009  10.322   5.250   9.312
95390SOL    HW288010  10.407   5.371   9.280
95391SOL     OW88011  11.882  13.796   2.626
95391SOL    HW188012  11.830  13.762   2.553
95391SOL    HW288013  11.874  13.891   2.619
95392SOL     OW88014   4.350   2.153   5.074
95392SOL    HW188015   4.366   2.241   5.040
95392SOL    HW288016   4.265   2.128   5.037
95393SOL     OW88017   3.009   0.394   4.540
95393SOL    HW188018   3.053   0.398   4.456
95393SOL    HW288019   2.918   0.371   4.518
95394SOL     OW88020   3.171   3.178   8.333
95394SOL    HW188021   3.131   3.155   8.417
95394SOL    HW288022   3.214   3.262   8.349
95395SOL     OW88023  13.812   2.633   4.021
95395SOL    HW188024  13.848   2.573   3.956
95395SOL    HW288025  13.879   2.639   4.089
95396SOL     OW88026  10.642  10.406   8.770
95396SOL    HW188027  10.681  10.347   8.834
95396SOL    HW288028  10.695  10.486   8.775
95397SOL     OW88029  11.049   4.821   7.120
95397SOL    HW188030  11.045   4.917   7.112
95397SOL    HW288031  11.084   4.792   7.036
95398SOL     OW88032  13.486  14.070   6.434
95398SOL    HW188033  13.454  14.013   6.365
95398SOL    HW288034  13.494  14.014   6.511
95399SOL     OW88035   9.178   3.600  12.534
95399SOL    HW188036   9.266   3.637  12.531
95399SOL    HW288037   9.137   3.630  12.453
95400SOL     OW88038   1.541  10.561   8.050
95400SOL    HW188039   1.588  10.562   8.133
95400SOL    HW288040   1.531  10.468   8.029
95401SOL     OW88041   6.549  10.426   8.091
95401SOL    HW188042   6.604  10.429   8.012
95401SOL    HW288043   6.470  10.474   8.068
95402SOL     OW88044   4.786  11.305   3.655
95402SOL    HW188045   4.864  11.289   3.708
95402SOL    HW288046   4.715  11.318   3.718
95403SOL     OW88047   3.263  14.007   8.165
95403SOL    HW188048   3.200  13.953   8.117
95403SOL    HW288049   3.212  14.082   8.196
95404SOL     OW88050   2.598   9.775   3.083
95404SOL    HW188051   2.672   9.744   3.135
95404SOL    HW288052   2.614   9.869   3.073
95405SOL     OW88053  11.776   8.345   7.989
95405SOL    HW188054  11.774   8.281   8.060
95405SOL    HW288055  11.817   8.423   8.028
95406SOL     OW88056  12.945   9.727   2.687
95406SOL    HW188057  12.889   9.804   2.695
95406SOL    HW288058  12.892   9.664   2.639
95407SOL     OW88059  11.141   8.813   6.924
95407SOL    HW188060  11.136   8.827   6.829
95407SOL    HW288061  11.232   8.789   6.940
95408SOL     OW88062   9.436   6.797  10.913
95408SOL    HW188063   9.437   6.702  10.901
95408SOL    HW288064   9.522   6.826  10.883
95409SOL     OW88065  13.735   0.955  13.840
95409SOL    HW188066  13.736   0.876  13.893
95409SOL    HW288067  13.644   0.966  13.814
95410SOL     OW88068   5.542   8.727   3.976
95410SOL    HW188069   5.594   8.719   3.897
95410SOL    HW288070   5.527   8.821   3.986
95411SOL     OW88071   0.048   1.252   0.719
95411SOL    HW188072   0.029   1.316   0.650
95411SOL    HW288073  14.850   1.255   0.776
95412SOL     OW88074   0.411   7.463   4.898
95412SOL    HW188075   0.338   7.488   4.842
95412SOL    HW288076   0.385   7.378   4.934
95413SOL     OW88077  14.437   5.114  13.239
95413SOL    HW188078  14.395   5.198  13.256
95413SOL    HW288079  14.414   5.093  13.148
95414SOL     OW88080  11.241   9.342   8.077
95414SOL    HW188081  11.285   9.416   8.118
95414SOL    HW288082  11.199   9.297   8.151
95415SOL     OW88083   8.109   2.927   0.368
95415SOL    HW188084   8.029   2.978   0.360
95415SOL    HW288085   8.177   2.985   0.333
95416SOL     OW88086  12.163   7.409   0.685
95416SOL    HW188087  12.210   7.457   0.753
95416SOL    HW288088  12.232   7.374   0.628
95417SOL     OW88089  10.217  10.885   0.322
95417SOL    HW188090  10.125  10.902   0.341
95417SOL    HW288091  10.242  10.816   0.384
95418SOL     OW88092  11.033   3.660  14.825
95418SOL    HW188093  11.063   3.643  14.736
95418SOL    HW288094  10.948   3.703  14.814
95419SOL     OW88095   0.754   2.824  13.348
95419SOL    HW188096   0.732   2.746  13.298
95419SOL    HW288097   0.798   2.881  13.285
95420SOL     OW88098  14.120  12.127   1.620
95420SOL    HW188099  14.051  12.063   1.634
95420SOL    HW288100  14.196  12.075   1.594
95421SOL     OW88101  10.152  11.842  10.030
95421SOL    HW188102  10.133  11.933  10.054
95421SOL    HW288103  10.181  11.802  10.112
95422SOL     OW88104   4.396  12.591  13.945
95422SOL    HW188105   4.437  12.504  13.938
95422SOL    HW288106   4.405  12.614  14.038
95423SOL     OW88107   3.927   0.786  10.357
95423SOL    HW188108   3.915   0.705  10.309
95423SOL    HW288109   3.883   0.771  10.441
95424SOL     OW88110  14.421  12.941   0.334
95424SOL    HW188111  14.393  12.991   0.410
95424SOL    HW288112  14.342  12.896   0.304
95425SOL     OW88113   1.405   3.825   2.642
95425SOL    HW188114   1.323   3.860   2.678
95425SOL    HW288115   1.427   3.885   2.571
95426SOL     OW88116   3.302   6.162   2.638
95426SOL    HW188117   3.271   6.109   2.711
95426SOL    HW288118   3.378   6.209   2.673
95427SOL     OW88119   4.275  13.035   8.517
95427SOL    HW188120   4.353  13.010   8.568
95427SOL    HW288121   4.303  13.030   8.426
95428SOL     OW88122   3.109   0.994  10.940
95428SOL    HW188123   3.128   1.060  10.874
95428SOL    HW288124   3.187   0.938  10.942
95429SOL     OW88125   7.937   0.687   3.860
95429SOL    HW188126   7.914   0.745   3.787
95429SOL    HW288127   7.855   0.674   3.907
95430SOL     OW88128  14.083  10.277   1.237
95430SOL    HW188129  14.131  10.348   1.193
95430SOL    HW288130  13.992  10.291   1.211
95431SOL     OW88131   2.263  12.258   3.175
95431SOL    HW188132   2.198  12.196   3.208
95431SOL    HW288133   2.346  12.229   3.214
95432SOL     OW88134   6.863   6.994   2.593
95432SOL    HW188135   6.782   6.944   2.590
95432SOL    HW288136   6.915   6.951   2.661
95433SOL     OW88137  10.103   3.983   8.774
95433SOL    HW188138  10.195   3.959   8.788
95433SOL    HW288139  10.058   3.952   8.852
95434SOL     OW88140   3.945  14.109   2.837
95434SOL    HW188141   3.966  14.024   2.799
95434SOL    HW288142   3.861  14.096   2.882
95435SOL     OW88143   6.444   1.082   5.027
95435SOL    HW188144   6.424   1.111   4.938
95435SOL    HW288145   6.436   1.161   5.080
95436SOL     OW88146  13.222   9.503  12.323
95436SOL    HW188147  13.127   9.511  12.312
95436SOL    HW288148  13.236   9.509  12.418
95437SOL     OW88149  10.953   8.525   1.142
95437SOL    HW188150  11.022   8.569   1.092
95437SOL    HW288151  10.937   8.582   1.216
95438SOL     OW88152   4.027  10.416   0.348
95438SOL    HW188153   4.106  10.364   0.331
95438SOL    HW288154   3.962  10.379   0.288
95439SOL     OW88155  11.940   5.056  14.667
95439SOL    HW188156  11.909   5.146  14.656
95439SOL    HW288157  11.924   5.015  14.583
95440SOL     OW88158   3.409  12.980   5.783
95440SOL    HW188159   3.375  12.962   5.870
95440SOL    HW288160   3.354  12.928   5.724
95441SOL     OW88161   1.099   4.675   2.116
95441SOL    HW188162   1.161   4.697   2.047
95441SOL    HW288163   1.038   4.613   2.075
95442SOL     OW88164  11.633   7.729   1.941
95442SOL    HW188165  11.582   7.705   2.018
95442SOL    HW288166  11.724   7.731   1.972
95443SOL     OW88167   7.331  13.379   2.922
95443SOL    HW188168   7.246  13.370   2.966
95443SOL    HW288169   7.390  13.324   2.973
95444SOL     OW88170  12.018   6.718   8.193
95444SOL    HW188171  11.996   6.770   8.270
95444SOL    HW288172  12.085   6.769   8.147
95445SOL     OW88173  12.770   6.266   5.987
95445SOL    HW188174  12.786   6.299   5.899
95445SOL    HW288175  12.855   6.275   6.031
95446SOL     OW88176   9.505   9.573   9.041
95446SOL    HW188177   9.588   9.591   9.085
95446SOL    HW288178   9.452   9.527   9.106
95447SOL     OW88179  11.700   4.577  12.254
95447SOL    HW188180  11.788   4.550  12.282
95447SOL    HW288181  11.716   4.642  12.186
95448SOL     OW88182  14.045   2.160   5.154
95448SOL    HW188183  14.069   2.241   5.109
95448SOL    HW288184  13.950   2.155   5.147
95449SOL     OW88185   4.651   4.400   5.760
95449SOL    HW188186   4.568   4.383   5.804
95449SOL    HW288187   4.635   4.377   5.669
95450SOL     OW88188  10.412   1.928  12.518
95450SOL    HW188189  10.473   1.958  12.450
95450SOL    HW288190  10.468   1.901  12.590
95451SOL     OW88191  14.838   8.764  10.943
95451SOL    HW188192  14.764   8.762  11.003
95451SOL    HW288193  14.811   8.822  10.873
95452SOL     OW88194  10.919   5.384   7.985
95452SOL    HW188195  10.905   5.400   7.892
95452SOL    HW288196  10.867   5.306   8.005
95453SOL     OW88197  10.798   4.882   9.105
95453SOL    HW188198  10.846   4.814   9.151
95453SOL    HW288199  10.843   4.963   9.128
95454SOL     OW88200   3.455  12.036   9.579
95454SOL    HW188201   3.424  12.052   9.668
95454SOL    HW288202   3.526  11.973   9.590
95455SOL     OW88203   6.035   0.585  10.288
95455SOL    HW188204   6.048   0.545  10.374
95455SOL    HW288205   6.118   0.569  10.242
95456SOL     OW88206   8.189   5.319   6.957
95456SOL    HW188207   8.189   5.268   7.039
95456SOL    HW288208   8.216   5.256   6.890
95457SOL     OW88209  11.476   6.208  13.975
95457SOL    HW188210  11.494   6.114  13.977
95457SOL    HW288211  11.386   6.216  14.005
95458SOL     OW88212   0.127  11.128  11.534
95458SOL    HW188213   0.142  11.197  11.598
95458SOL    HW288214   0.110  11.050  11.587
95459SOL     OW88215   6.545   7.286  14.649
95459SOL    HW188216   6.471   7.293  14.710
95459SOL    HW288217   6.517   7.220  14.585
95460SOL     OW88218   0.169   8.282  11.895
95460SOL    HW188219   0.083   8.249  11.920
95460SOL    HW288220   0.185   8.355  11.955
95461SOL     OW88221   8.793  13.756   0.250
95461SOL    HW188222   8.752  13.837   0.281
95461SOL    HW288223   8.880  13.783   0.220
95462SOL     OW88224   2.780  11.337   8.508
95462SOL    HW188225   2.860  11.359   8.460
95462SOL    HW288226   2.811  11.283   8.581
95463SOL     OW88227  13.009  11.825   5.203
95463SOL    HW188228  12.916  11.827   5.225
95463SOL    HW288229  13.012  11.787   5.116
95464SOL     OW88230   5.658  14.069   5.584
95464SOL    HW188231   5.627  14.043   5.670
95464SOL    HW288232   5.696  13.989   5.547
95465SOL     OW88233  10.752   3.733   9.819
95465SOL    HW188234  10.660   3.713   9.803
95465SOL    HW288235  10.796   3.712   9.737
95466SOL     OW88236   6.112   0.212   4.942
95466SOL    HW188237   6.180   0.242   5.002
95466SOL    HW288238   6.108   0.118   4.955
95467SOL     OW88239  14.220   7.556   9.551
95467SOL    HW188240  14.156   7.513   9.608
95467SOL    HW288241  14.241   7.638   9.595
95468SOL     OW88242  11.530  12.893   2.114
95468SOL    HW188243  11.475  12.865   2.187
95468SOL    HW288244  11.618  12.864   2.138
95469SOL     OW88245   5.620   8.504   3.361
95469SOL    HW188246   5.567   8.426   3.380
95469SOL    HW288247   5.621   8.508   3.265
95470SOL     OW88248  14.786   2.495   9.817
95470SOL    HW188249  14.871   2.528   9.847
95470SOL    HW288250  14.772   2.415   9.868
95471SOL     OW88251   1.243  11.395   1.191
95471SOL    HW188252   1.335  11.422   1.187
95471SOL    HW288253   1.195  11.474   1.215
95472SOL     OW88254  11.832   8.589   8.665
95472SOL    HW188255  11.763   8.650   8.640
95472SOL    HW288256  11.905   8.645   8.693
95473SOL     OW88257  11.813   5.168   0.243
95473SOL    HW188258  11.719   5.159   0.225
95473SOL    HW288259  11.842   5.237   0.183
95474SOL     OW88260  10.884  13.109   3.578
95474SOL    HW188261  10.839  13.069   3.653
95474SOL    HW288262  10.976  13.086   3.590
95475SOL     OW88263  12.455  10.192   5.798
95475SOL    HW188264  12.480  10.103   5.773
95475SOL    HW288265  12.436  10.236   5.716
95476SOL     OW88266  14.485   3.451   9.418
95476SOL    HW188267  14.581   3.456   9.425
95476SOL    HW288268  14.456   3.417   9.502
95477SOL     OW88269   7.885   2.693   5.582
95477SOL    HW188270   7.900   2.729   5.495
95477SOL    HW288271   7.943   2.616   5.586
95478SOL     OW88272  12.818   3.309   4.220
95478SOL    HW188273  12.788   3.283   4.308
95478SOL    HW288274  12.755   3.268   4.161
95479SOL     OW88275   9.739  11.371   0.302
95479SOL    HW188276   9.803  11.439   0.322
95479SOL    HW288277   9.655  11.417   0.298
95480SOL     OW88278  10.659   2.661   3.129
95480SOL    HW188279  10.573   2.696   3.104
95480SOL    HW288280  10.641   2.607   3.206
95481SOL     OW88281   9.027   7.625   2.982
95481SOL    HW188282   8.964   7.553   2.987
95481SOL    HW288283   9.036   7.654   3.073
95482SOL     OW88284   8.676   5.825   2.847
95482SOL    HW188285   8.603   5.764   2.849
95482SOL    HW288286   8.645   5.899   2.795
95483SOL     OW88287  12.370   6.003  14.170
95483SOL    HW188288  12.284   5.962  14.166
95483SOL    HW288289  12.352   6.097  14.162
95484SOL     OW88290  10.465  11.450  10.729
95484SOL    HW188291  10.492  11.390  10.798
95484SOL    HW288292  10.382  11.415  10.698
95485SOL     OW88293  10.123  11.408   7.820
95485SOL    HW188294  10.148  11.315   7.822
95485SOL    HW288295  10.202  11.455   7.845
95486SOL     OW88296   5.278  11.481  13.862
95486SOL    HW188297   5.190  11.516  13.875
95486SOL    HW288298   5.328  11.556  13.828
95487SOL     OW88299   7.899  14.509   1.661
95487SOL    HW188300   7.904  14.601   1.635
95487SOL    HW288301   7.805  14.489   1.657
95488SOL     OW88302  13.992   9.878   2.595
95488SOL    HW188303  14.082   9.846   2.582
95488SOL    HW288304  13.984   9.888   2.689
95489SOL     OW88305  12.498  13.088   2.377
95489SOL    HW188306  12.498  13.161   2.315
95489SOL    HW288307  12.411  13.089   2.416
95490SOL     OW88308  12.046  14.803   2.874
95490SOL    HW188309  11.980  14.780   2.938
95490SOL    HW288310  12.001  14.798   2.790
95491SOL     OW88311   3.473  12.695  10.113
95491SOL    HW188312   3.429  12.618  10.076
95491SOL    HW288313   3.402  12.750  10.145
95492SOL     OW88314   8.181   1.924   2.349
95492SOL    HW188315   8.087   1.933   2.367
95492SOL    HW288316   8.224   1.966   2.423
95493SOL     OW88317   1.245   1.188  11.993
95493SOL    HW188318   1.214   1.278  12.007
95493SOL    HW288319   1.317   1.177  12.056
95494SOL     OW88320  13.244  12.295   9.114
95494SOL    HW188321  13.300  12.347   9.173
95494SOL    HW288322  13.292  12.294   9.031
95495SOL     OW88323  10.664   5.508  12.781
95495SOL    HW188324  10.646   5.567  12.708
95495SOL    HW288325  10.637   5.557  12.858
95496SOL     OW88326  14.566   5.445  11.194
95496SOL    HW188327  14.607   5.434  11.109
95496SOL    HW288328  14.473   5.429  11.178
95497SOL     OW88329  10.237  10.138  13.048
95497SOL    HW188330  10.288  10.081  12.990
95497SOL    HW288331  10.192  10.198  12.989
95498SOL     OW88332  14.535  10.659   8.828
95498SOL    HW188333  14.588  10.686   8.902
95498SOL    HW288334  14.540  10.564   8.827
95499SOL     OW88335  14.083   7.172  13.968
95499SOL    HW188336  14.086   7.199  13.876
95499SOL    HW288337  14.122   7.085  13.969
95500SOL     OW88338   6.174   2.698   1.147
95500SOL    HW188339   6.080   2.703   1.166
95500SOL    HW288340   6.201   2.789   1.136
95501SOL     OW88341   8.014   8.889   6.131
95501SOL    HW188342   8.025   8.932   6.217
95501SOL    HW288343   8.025   8.960   6.068
95502SOL     OW88344   7.758   7.074   6.719
95502SOL    HW188345   7.705   7.040   6.791
95502SOL    HW288346   7.744   7.012   6.648
95503SOL     OW88347   4.983   1.904  11.406
95503SOL    HW188348   5.063   1.916  11.355
95503SOL    HW288349   4.951   1.817  11.381
95504SOL     OW88350   7.779   0.422   6.706
95504SOL    HW188351   7.771   0.508   6.665
95504SOL    HW288352   7.786   0.361   6.632
95505SOL     OW88353   6.011   3.006  11.493
95505SOL    HW188354   5.978   2.923  11.458
95505SOL    HW288355   5.932   3.054  11.517
95506SOL     OW88356   5.524   0.859  14.701
95506SOL    HW188357   5.589   0.791  14.718
95506SOL    HW288358   5.446   0.831  14.748
95507SOL     OW88359   5.126   5.739   7.900
95507SOL    HW188360   5.071   5.664   7.877
95507SOL    HW288361   5.152   5.777   7.816
95508SOL     OW88362  10.552   7.940   7.808
95508SOL    HW188363  10.599   7.995   7.871
95508SOL    HW288364  10.560   7.988   7.725
95509SOL     OW88365   2.942  14.733  10.887
95509SOL    HW188366   3.013  14.754  10.825
95509SOL    HW288367   2.929  14.813  10.938
95510SOL     OW88368   8.603   8.106   1.817
95510SOL    HW188369   8.584   8.102   1.723
95510SOL    HW288370   8.639   8.194   1.830
95511SOL     OW88371   8.559  12.376   0.674
95511SOL    HW188372   8.654  12.361   0.671
95511SOL    HW288373   8.520  12.291   0.652
95512SOL     OW88374   7.395   2.712   3.966
95512SOL    HW188375   7.431   2.630   3.931
95512SOL    HW288376   7.347   2.749   3.893
95513SOL     OW88377   4.459  11.724   6.815
95513SOL    HW188378   4.546  11.758   6.794
95513SOL    HW288379   4.475  11.632   6.836
95514SOL     OW88380  11.331   8.557   4.813
95514SOL    HW188381  11.361   8.647   4.826
95514SOL    HW288382  11.249   8.566   4.764
95515SOL     OW88383   3.694   0.140   1.705
95515SOL    HW188384   3.705   0.146   1.610
95515SOL    HW288385   3.624   0.076   1.717
95516SOL     OW88386   7.824   8.856   7.762
95516SOL    HW188387   7.876   8.795   7.710
95516SOL    HW288388   7.856   8.943   7.737
95517SOL     OW88389   7.986   0.871  13.587
95517SOL    HW188390   7.975   0.850  13.680
95517SOL    HW288391   7.919   0.938  13.569
95518SOL     OW88392   1.326  10.527   4.599
95518SOL    HW188393   1.235  10.497   4.590
95518SOL    HW288394   1.321  10.622   4.589
95519SOL     OW88395  11.397  14.165   7.067
95519SOL    HW188396  11.393  14.142   7.160
95519SOL    HW288397  11.442  14.249   7.065
95520SOL     OW88398  13.082   9.721   0.413
95520SOL    HW188399  13.036   9.640   0.434
95520SOL    HW288400  13.015   9.789   0.422
95521SOL     OW88401   2.424  10.458  11.049
95521SOL    HW188402   2.500  10.502  11.086
95521SOL    HW288403   2.414  10.379  11.102
95522SOL     OW88404  14.014  10.393   3.128
95522SOL    HW188405  14.099  10.394   3.174
95522SOL    HW288406  13.980  10.482   3.140
95523SOL     OW88407   6.402   2.633  12.086
95523SOL    HW188408   6.324   2.577  12.091
95523SOL    HW288409   6.449   2.602  12.009
95524SOL     OW88410   7.565   3.346   2.986
95524SOL    HW188411   7.582   3.322   2.895
95524SOL    HW288412   7.642   3.316   3.034
95525SOL     OW88413   7.705   1.857  13.613
95525SOL    HW188414   7.684   1.900  13.531
95525SOL    HW288415   7.721   1.929  13.675
95526SOL     OW88416   8.995   2.985   0.424
95526SOL    HW188417   8.996   3.081   0.425
95526SOL    HW288418   8.911   2.962   0.384
95527SOL     OW88419  12.890  10.272   8.894
95527SOL    HW188420  12.873  10.217   8.818
95527SOL    HW288421  12.807  10.275   8.941
95528SOL     OW88422  11.101  10.968  11.021
95528SOL    HW188423  11.156  11.020  11.080
95528SOL    HW288424  11.015  11.009  11.026
95529SOL     OW88425  14.305   4.527   5.570
95529SOL    HW188426  14.288   4.531   5.476
95529SOL    HW288427  14.383   4.473   5.579
95530SOL     OW88428   0.196   1.628   3.960
95530SOL    HW188429   0.181   1.680   3.881
95530SOL    HW288430   0.279   1.660   3.995
95531SOL     OW88431   4.450   4.222  12.291
95531SOL    HW188432   4.441   4.301  12.239
95531SOL    HW288433   4.380   4.164  12.260
95532SOL     OW88434  11.777   9.193   4.851
95532SOL    HW188435  11.820   9.261   4.799
95532SOL    HW288436  11.825   9.192   4.934
95533SOL     OW88437  13.551   0.988   5.249
95533SOL    HW188438  13.610   0.981   5.174
95533SOL    HW288439  13.511   1.074   5.240
95534SOL     OW88440   6.049   9.885  13.410
95534SOL    HW188441   6.023   9.891  13.318
95534SOL    HW288442   6.082   9.795  13.420
95535SOL     OW88443   2.487   8.844  11.930
95535SOL    HW188444   2.515   8.771  11.984
95535SOL    HW288445   2.437   8.900  11.990
95536SOL     OW88446   4.362  10.200   5.549
95536SOL    HW188447   4.385  10.211   5.642
95536SOL    HW288448   4.329  10.111   5.543
95537SOL     OW88449  13.215  13.686   5.802
95537SOL    HW188450  13.175  13.773   5.793
95537SOL    HW288451  13.245  13.682   5.892
95538SOL     OW88452  13.366   6.845   0.437
95538SOL    HW188453  13.432   6.779   0.415
95538SOL    HW288454  13.283   6.797   0.437
95539SOL     OW88455   3.783   8.783   0.108
95539SOL    HW188456   3.734   8.769   0.188
95539SOL    HW288457   3.863   8.731   0.119
95540SOL     OW88458   2.805  12.938   7.831
95540SOL    HW188459   2.722  12.914   7.872
95540SOL    HW288460   2.871  12.916   7.896
95541SOL     OW88461  10.489  12.112   2.015
95541SOL    HW188462  10.569  12.139   2.061
95541SOL    HW288463  10.420  12.165   2.054
95542SOL     OW88464   9.324   4.975  10.678
95542SOL    HW188465   9.330   5.069  10.690
95542SOL    HW288466   9.415   4.945  10.675
95543SOL     OW88467   0.289   9.226   4.148
95543SOL    HW188468   0.283   9.312   4.189
95543SOL    HW288469   0.289   9.245   4.054
95544SOL     OW88470   1.148   8.118   4.820
95544SOL    HW188471   1.060   8.095   4.848
95544SOL    HW288472   1.161   8.208   4.851
95545SOL     OW88473   4.381   0.541   3.717
95545SOL    HW188474   4.416   0.453   3.705
95545SOL    HW288475   4.329   0.536   3.797
95546SOL     OW88476   5.271   3.736   4.472
95546SOL    HW188477   5.343   3.682   4.439
95546SOL    HW288478   5.263   3.807   4.407
95547SOL     OW88479   6.720   2.974   0.604
95547SOL    HW188480   6.659   2.904   0.625
95547SOL    HW288481   6.725   3.026   0.684
95548SOL     OW88482   0.258   5.201   6.958
95548SOL    HW188483   0.189   5.171   6.898
95548SOL    HW288484   0.235   5.292   6.976
95549SOL     OW88485   2.414  13.081   7.601
95549SOL    HW188486   2.431  12.986   7.599
95549SOL    HW288487   2.389  13.103   7.512
95550SOL     OW88488  13.537   5.406  11.472
95550SOL    HW188489  13.462   5.400  11.413
95550SOL    HW288490  13.610   5.432  11.416
95551SOL     OW88491  14.454   0.646  13.744
95551SOL    HW188492  14.394   0.710  13.782
95551SOL    HW288493  14.537   0.661  13.791
95552SOL     OW88494  10.938   5.508  12.452
95552SOL    HW188495  11.033   5.511  12.468
95552SOL    HW288496  10.915   5.417  12.466
95553SOL     OW88497   5.102   1.540  13.705
95553SOL    HW188498   5.064   1.464  13.749
95553SOL    HW288499   5.036   1.565  13.640
95554SOL     OW88500   8.985   3.755  12.640
95554SOL    HW188501   9.037   3.827  12.603
95554SOL    HW288502   9.033   3.676  12.616
95555SOL     OW88503   3.231  10.568  10.416
95555SOL    HW188504   3.161  10.549  10.353
95555SOL    HW288505   3.282  10.487  10.420
95556SOL     OW88506   6.218   2.750   9.974
95556SOL    HW188507   6.153   2.784  10.035
95556SOL    HW288508   6.262   2.679  10.022
95557SOL     OW88509  10.545   3.791   2.525
95557SOL    HW188510  10.548   3.784   2.429
95557SOL    HW288511  10.618   3.848   2.547
95558SOL     OW88512   5.006   2.442   7.713
95558SOL    HW188513   4.980   2.523   7.757
95558SOL    HW288514   4.971   2.451   7.624
95559SOL     OW88515   4.089   3.081  10.027
95559SOL    HW188516   4.046   3.098  10.111
95559SOL    HW288517   4.028   3.026   9.979
95560SOL     OW88518   8.772   2.376  13.934
95560SOL    HW188519   8.742   2.297  13.889
95560SOL    HW288520   8.837   2.345  13.996
95561SOL     OW88521  12.172  10.021  14.581
95561SOL    HW188522  12.227  10.065  14.517
95561SOL    HW288523  12.114   9.966  14.529
95562SOL     OW88524  13.353   9.095   3.540
95562SOL    HW188525  13.441   9.084   3.506
95562SOL    HW288526  13.346   9.188   3.560
95563SOL     OW88527   1.544   9.636   8.253
95563SOL    HW188528   1.619   9.648   8.311
95563SOL    HW288529   1.520   9.725   8.226
95564SOL     OW88530   3.541   4.500   0.397
95564SOL    HW188531   3.630   4.509   0.431
95564SOL    HW288532   3.491   4.568   0.441
95565SOL     OW88533   7.804   5.599   9.902
95565SOL    HW188534   7.766   5.517   9.873
95565SOL    HW288535   7.740   5.666   9.877
95566SOL     OW88536   8.490  13.492   7.080
95566SOL    HW188537   8.555  13.461   7.143
95566SOL    HW288538   8.406  13.473   7.120
95567SOL     OW88539  12.414   3.551  14.611
95567SOL    HW188540  12.429   3.540  14.517
95567SOL    HW288541  12.499   3.534  14.651
95568SOL     OW88542  11.336  10.419  13.800
95568SOL    HW188543  11.398  10.416  13.872
95568SOL    HW288544  11.369  10.488  13.742
95569SOL     OW88545  10.101   5.760   6.735
95569SOL    HW188546  10.164   5.788   6.802
95569SOL    HW288547  10.094   5.835   6.676
95570SOL     OW88548  12.830   7.979   3.175
95570SOL    HW188549  12.921   7.985   3.206
95570SOL    HW288550  12.797   8.068   3.182
95571SOL     OW88551   5.360   0.997   6.003
95571SOL    HW188552   5.444   0.967   6.037
95571SOL    HW288553   5.342   1.078   6.051
95572SOL     OW88554  13.923   6.321   4.548
95572SOL    HW188555  13.851   6.259   4.547
95572SOL    HW288556  13.982   6.292   4.479
95573SOL     OW88557   7.395  10.930  14.687
95573SOL    HW188558   7.344  10.849  14.692
95573SOL    HW288559   7.485  10.902  14.674
95574SOL     OW88560   3.080   5.874   5.222
95574SOL    HW188561   3.040   5.789   5.205
95574SOL    HW288562   3.161   5.873   5.171
95575SOL     OW88563  14.815   2.248  13.761
95575SOL    HW188564  14.737   2.209  13.801
95575SOL    HW288565  14.869   2.275  13.835
95576SOL     OW88566   8.993  11.721   2.307
95576SOL    HW188567   9.046  11.643   2.292
95576SOL    HW288568   8.903  11.689   2.308
95577SOL     OW88569   2.132   7.501  11.990
95577SOL    HW188570   2.128   7.422  11.937
95577SOL    HW288571   2.203   7.484  12.053
95578SOL     OW88572  11.307  12.595   6.927
95578SOL    HW188573  11.300  12.546   7.009
95578SOL    HW288574  11.265  12.679   6.947
95579SOL     OW88575   9.241  10.146   8.252
95579SOL    HW188576   9.267  10.209   8.320
95579SOL    HW288577   9.240  10.062   8.296
95580SOL     OW88578   0.219  12.801   7.352
95580SOL    HW188579   0.177  12.715   7.354
95580SOL    HW288580   0.294  12.793   7.411
95581SOL     OW88581  14.104   3.732   6.353
95581SOL    HW188582  14.044   3.727   6.427
95581SOL    HW288583  14.185   3.692   6.386
95582SOL     OW88584  13.695   1.548  12.234
95582SOL    HW188585  13.763   1.611  12.256
95582SOL    HW288586  13.652   1.584  12.157
95583SOL     OW88587   7.887   5.978   3.733
95583SOL    HW188588   7.927   5.991   3.647
95583SOL    HW288589   7.899   5.884   3.751
95584SOL     OW88590   5.105   3.519   2.793
95584SOL    HW188591   5.118   3.494   2.885
95584SOL    HW288592   5.099   3.435   2.747
95585SOL     OW88593  11.134  13.915  14.690
95585SOL    HW188594  11.064  13.979  14.676
95585SOL    HW288595  11.208  13.951  14.642
95586SOL     OW88596  11.273   1.722   7.714
95586SOL    HW188597  11.177   1.715   7.714
95586SOL    HW288598  11.291   1.794   7.654
95587SOL     OW88599  11.770  12.289  13.277
95587SOL    HW188600  11.744  12.263  13.365
95587SOL    HW288601  11.724  12.371  13.262
95588SOL     OW88602   3.303   8.050   5.055
95588SOL    HW188603   3.359   7.973   5.055
95588SOL    HW288604   3.217   8.017   5.030
95589SOL     OW88605  13.594  10.099  13.243
95589SOL    HW188606  13.574  10.045  13.320
95589SOL    HW288607  13.547  10.056  13.171
95590SOL     OW88608   0.129   3.346  13.068
95590SOL    HW188609   0.072   3.327  12.994
95590SOL    HW288610   0.130   3.266  13.120
95591SOL     OW88611   1.485   8.019   6.516
95591SOL    HW188612   1.439   8.102   6.505
95591SOL    HW288613   1.455   7.965   6.443
95592SOL     OW88614   8.835  14.236   9.723
95592SOL    HW188615   8.756  14.204   9.680
95592SOL    HW288616   8.818  14.225   9.816
95593SOL     OW88617   8.649   7.391  13.773
95593SOL    HW188618   8.611   7.306  13.750
95593SOL    HW288619   8.681   7.427  13.690
95594SOL     OW88620  13.180   3.252  14.291
95594SOL    HW188621  13.140   3.332  14.325
95594SOL    HW288622  13.264   3.246  14.338
95595SOL     OW88623  13.253   7.746  11.707
95595SOL    HW188624  13.175   7.799  11.692
95595SOL    HW288625  13.324   7.809  11.714
95596SOL     OW88626   6.733   6.948   3.987
95596SOL    HW188627   6.811   7.001   3.972
95596SOL    HW288628   6.726   6.943   4.082
95597SOL     OW88629   1.174   6.993   3.568
95597SOL    HW188630   1.128   6.988   3.652
95597SOL    HW288631   1.110   6.963   3.504
95598SOL     OW88632   3.000   9.116   1.888
95598SOL    HW188633   3.079   9.081   1.928
95598SOL    HW288634   3.031   9.168   1.814
95599SOL     OW88635  14.072  12.878   9.671
95599SOL    HW188636  14.154  12.923   9.648
95599SOL    HW288637  14.023  12.876   9.589
95600SOL     OW88638   3.956   1.044   3.636
95600SOL    HW188639   3.973   1.133   3.666
95600SOL    HW288640   3.911   1.054   3.553
95601SOL     OW88641  11.929   6.233   4.306
95601SOL    HW188642  11.949   6.232   4.399
95601SOL    HW288643  11.941   6.324   4.280
95602SOL     OW88644  14.499   4.827   3.577
95602SOL    HW188645  14.471   4.907   3.620
95602SOL    HW288646  14.419   4.791   3.539
95603SOL     OW88647  13.167   2.369  11.147
95603SOL    HW188648  13.227   2.342  11.217
95603SOL    HW288649  13.093   2.308  11.153
95604SOL     OW88650   8.808   5.113   8.310
95604SOL    HW188651   8.733   5.062   8.279
95604SOL    HW288652   8.873   5.104   8.241
95605SOL     OW88653  11.695   4.233  13.517
95605SOL    HW188654  11.709   4.257  13.426
95605SOL    HW288655  11.620   4.174  13.516
95606SOL     OW88656   2.426   6.480  10.857
95606SOL    HW188657   2.418   6.410  10.792
95606SOL    HW288658   2.459   6.555  10.807
95607SOL     OW88659   3.943  12.365  11.156
95607SOL    HW188660   3.971  12.384  11.246
95607SOL    HW288661   4.011  12.404  11.101
95608SOL     OW88662   1.821   1.339   7.858
95608SOL    HW188663   1.912   1.350   7.885
95608SOL    HW288664   1.798   1.423   7.818
95609SOL     OW88665   2.331   5.123  12.085
95609SOL    HW188666   2.348   5.205  12.132
95609SOL    HW288667   2.250   5.091  12.124
95610SOL     OW88668   7.596   3.504   4.173
95610SOL    HW188669   7.676   3.504   4.121
95610SOL    HW288670   7.556   3.419   4.157
95611SOL     OW88671  13.967   4.240   3.918
95611SOL    HW188672  13.878   4.223   3.949
95611SOL    HW288673  13.967   4.333   3.894
95612SOL     OW88674   1.959  12.686   3.839
95612SOL    HW188675   1.982  12.594   3.827
95612SOL    HW288676   2.040  12.727   3.869
95613SOL     OW88677   6.244   5.491   0.692
95613SOL    HW188678   6.248   5.585   0.677
95613SOL    HW288679   6.325   5.471   0.738
95614SOL     OW88680   0.509   4.033   3.373
95614SOL    HW188681   0.464   4.019   3.456
95614SOL    HW288682   0.579   3.968   3.372
95615SOL     OW88683   4.312   9.088  14.012
95615SOL    HW188684   4.354   9.003  14.006
95615SOL    HW288685   4.290   9.097  14.105
95616SOL     OW88686  10.413   2.914  14.399
95616SOL    HW188687  10.323   2.922  14.368
95616SOL    HW288688  10.412   2.956  14.485
95617SOL     OW88689  11.342   8.333  10.215
95617SOL    HW188690  11.307   8.393  10.281
95617SOL    HW288691  11.333   8.379  10.132
95618SOL     OW88692   5.727   2.403  13.805
95618SOL    HW188693   5.755   2.473  13.745
95618SOL    HW288694   5.657   2.442  13.856
95619SOL     OW88695   8.568   3.582   6.355
95619SOL    HW188696   8.476   3.558   6.370
95619SOL    HW288697   8.588   3.644   6.425
95620SOL     OW88698   7.773  12.346   1.209
95620SOL    HW188699   7.834  12.273   1.198
95620SOL    HW288700   7.743  12.337   1.300
95621SOL     OW88701  11.933   5.439   5.075
95621SOL    HW188702  12.017   5.471   5.107
95621SOL    HW288703  11.908   5.502   5.007
95622SOL     OW88704   1.637   3.870   0.480
95622SOL    HW188705   1.618   3.779   0.501
95622SOL    HW288706   1.557   3.918   0.503
95623SOL     OW88707  11.590   3.857   2.070
95623SOL    HW188708  11.598   3.884   1.979
95623SOL    HW288709  11.680   3.846   2.100
95624SOL     OW88710  11.630  10.903   7.507
95624SOL    HW188711  11.715  10.863   7.490
95624SOL    HW288712  11.648  10.970   7.573
95625SOL     OW88713   1.031   6.179   4.822
95625SOL    HW188714   1.065   6.159   4.735
95625SOL    HW288715   1.072   6.113   4.879
95626SOL     OW88716   1.302   9.713   6.045
95626SOL    HW188717   1.215   9.711   6.005
95626SOL    HW288718   1.352   9.647   5.998
95627SOL     OW88719  12.334  10.657  10.135
95627SOL    HW188720  12.247  10.654  10.176
95627SOL    HW288721  12.318  10.641  10.042
95628SOL     OW88722   5.326  12.935  11.395
95628SOL    HW188723   5.246  12.902  11.356
95628SOL    HW288724   5.335  12.887  11.478
95629SOL     OW88725   1.531   2.647   6.972
95629SOL    HW188726   1.542   2.661   7.066
95629SOL    HW288727   1.436   2.640   6.961
95630SOL     OW88728  11.235  14.180   4.780
95630SOL    HW188729  11.302  14.247   4.764
95630SOL    HW288730  11.207  14.195   4.870
95631SOL     OW88731  12.609  12.324   1.791
95631SOL    HW188732  12.637  12.241   1.828
95631SOL    HW288733  12.634  12.389   1.856
95632SOL     OW88734   7.300   0.993  12.112
95632SOL    HW188735   7.368   1.011  12.047
95632SOL    HW288736   7.224   1.042  12.082
95633SOL     OW88737  13.536   9.021   9.496
95633SOL    HW188738  13.533   9.022   9.401
95633SOL    HW288739  13.628   9.038   9.518
95634SOL     OW88740  10.223   1.181  11.681
95634SOL    HW188741  10.276   1.115  11.726
95634SOL    HW288742  10.180   1.133  11.610
95635SOL     OW88743   6.875  14.640   4.953
95635SOL    HW188744   6.959  14.683   4.937
95635SOL    HW288745   6.820  14.708   4.991
95636SOL     OW88746  10.944   3.503  14.182
95636SOL    HW188747  10.898   3.562  14.243
95636SOL    HW288748  10.893   3.508  14.101
95637SOL     OW88749   9.815   5.786   1.271
95637SOL    HW188750   9.778   5.698   1.271
95637SOL    HW288751   9.779   5.827   1.350
95638SOL     OW88752  14.472   9.165   4.116
95638SOL    HW188753  14.473   9.070   4.108
95638SOL    HW288754  14.503   9.182   4.205
95639SOL     OW88755   0.475   5.443  10.051
95639SOL    HW188756   0.529   5.481  10.120
95639SOL    HW288757   0.525   5.366  10.021
95640SOL     OW88758  14.107  13.462   1.310
95640SOL    HW188759  14.188  13.423   1.345
95640SOL    HW288760  14.132  13.493   1.223
95641SOL     OW88761  14.608   1.763   9.258
95641SOL    HW188762  14.607   1.670   9.282
95641SOL    HW288763  14.668   1.803   9.321
95642SOL     OW88764  12.837  14.498   0.394
95642SOL    HW188765  12.912  14.551   0.422
95642SOL    HW288766  12.872  14.440   0.327
95643SOL     OW88767   5.574   2.212   9.345
95643SOL    HW188768   5.606   2.244   9.429
95643SOL    HW288769   5.545   2.123   9.363
95644SOL     OW88770   1.802  12.377   4.869
95644SOL    HW188771   1.871  12.406   4.810
95644SOL    HW288772   1.732  12.346   4.811
95645SOL     OW88773  10.293   4.754   3.271
95645SOL    HW188774  10.367   4.780   3.215
95645SOL    HW288775  10.217   4.757   3.213
95646SOL     OW88776   4.994   7.494   9.390
95646SOL    HW188777   5.085   7.508   9.365
95646SOL    HW288778   4.963   7.580   9.419
95647SOL     OW88779   4.968  12.972  13.167
95647SOL    HW188780   4.916  12.993  13.245
95647SOL    HW288781   5.058  12.970  13.199
95648SOL     OW88782  14.458   8.729   4.590
95648SOL    HW188783  14.504   8.788   4.529
95648SOL    HW288784  14.366   8.738   4.566
95649SOL     OW88785   8.927  14.339   0.825
95649SOL    HW188786   8.836  14.369   0.827
95649SOL    HW288787   8.940  14.297   0.910
95650SOL     OW88788   9.871   2.163  14.299
95650SOL    HW188789   9.929   2.086  14.307
95650SOL    HW288790   9.822   2.147  14.219
95651SOL     OW88791  11.593   8.992  10.224
95651SOL    HW188792  11.587   8.898  10.207
95651SOL    HW288793  11.668   9.001  10.282
95652SOL     OW88794   3.167   8.474  10.476
95652SOL    HW188795   3.176   8.400  10.536
95652SOL    HW288796   3.257   8.501  10.457
95653SOL     OW88797   1.691   7.937  13.079
95653SOL    HW188798   1.779   7.973  13.063
95653SOL    HW288799   1.632   8.009  13.057
95654SOL     OW88800   3.018   0.435   4.944
95654SOL    HW188801   3.065   0.486   4.878
95654SOL    HW288802   2.993   0.355   4.899
95655SOL     OW88803  13.612   3.773  13.390
95655SOL    HW188804  13.690   3.718  13.390
95655SOL    HW288805  13.540   3.714  13.373
95656SOL     OW88806  13.764   6.091   8.757
95656SOL    HW188807  13.697   6.023   8.760
95656SOL    HW288808  13.733   6.159   8.817
95657SOL     OW88809   8.364   0.843   0.832
95657SOL    HW188810   8.353   0.921   0.778
95657SOL    HW288811   8.459   0.826   0.832
95658SOL     OW88812   9.793   8.470  14.873
95658SOL    HW188813   9.832   8.383  14.869
95658SOL    HW288814   9.759   8.477   0.083
95659SOL     OW88815  11.179  13.052  12.948
95659SOL    HW188816  11.178  13.065  12.853
95659SOL    HW288817  11.175  12.957  12.959
95660SOL     OW88818  10.689   3.418   2.153
95660SOL    HW188819  10.674   3.495   2.097
95660SOL    HW288820  10.650   3.443   2.236
95661SOL     OW88821   8.496   6.638  12.897
95661SOL    HW188822   8.430   6.589  12.946
95661SOL    HW288823   8.580   6.612  12.937
95662SOL     OW88824  14.513   0.821  13.141
95662SOL    HW188825  14.543   0.895  13.089
95662SOL    HW288826  14.421   0.811  13.117
95663SOL     OW88827   2.416   2.451   3.989
95663SOL    HW188828   2.501   2.445   3.945
95663SOL    HW288829   2.429   2.515   4.059
95664SOL     OW88830  14.588   8.874  10.634
95664SOL    HW188831  14.504   8.845  10.670
95664SOL    HW288832  14.597   8.965  10.662
95665SOL     OW88833  13.270   6.040   7.344
95665SOL    HW188834  13.197   6.103   7.340
95665SOL    HW288835  13.262   5.989   7.263
95666SOL     OW88836   7.375   9.214  11.843
95666SOL    HW188837   7.290   9.215  11.886
95666SOL    HW288838   7.370   9.283  11.777
95667SOL     OW88839   3.516   6.480   4.923
95667SOL    HW188840   3.428   6.518   4.933
95667SOL    HW288841   3.501   6.385   4.920
95668SOL     OW88842  11.996   1.860   0.333
95668SOL    HW188843  12.025   1.792   0.272
95668SOL    HW288844  11.901   1.866   0.318
95669SOL     OW88845   0.782  14.366  14.003
95669SOL    HW188846   0.744  14.383  14.089
95669SOL    HW288847   0.867  14.410  14.004
95670SOL     OW88848   4.750  10.190   0.005
95670SOL    HW188849   4.842  10.165  14.877
95670SOL    HW288850   4.733  10.193   0.100
95671SOL     OW88851   5.306  13.915  12.857
95671SOL    HW188852   5.317  13.869  12.774
95671SOL    HW288853   5.365  13.990  12.852
95672SOL     OW88854   8.789   2.521   6.193
95672SOL    HW188855   8.744   2.604   6.175
95672SOL    HW288856   8.740   2.483   6.266
95673SOL     OW88857   7.898   7.973   1.124
95673SOL    HW188858   7.816   7.925   1.131
95673SOL    HW288859   7.885   8.032   1.049
95674SOL     OW88860  13.958  12.821  13.195
95674SOL    HW188861  14.030  12.885  13.205
95674SOL    HW288862  13.926  12.808  13.285
95675SOL     OW88863  10.466   8.761   0.820
95675SOL    HW188864  10.508   8.750   0.905
95675SOL    HW288865  10.442   8.854   0.818
95676SOL     OW88866   9.994   1.453   4.444
95676SOL    HW188867   9.929   1.455   4.514
95676SOL    HW288868   9.973   1.375   4.393
95677SOL     OW88869   5.404   6.038  10.724
95677SOL    HW188870   5.468   6.073  10.662
95677SOL    HW288871   5.455   6.020  10.803
95678SOL     OW88872   3.551   2.648   4.706
95678SOL    HW188873   3.502   2.567   4.720
95678SOL    HW288874   3.595   2.637   4.622
95679SOL     OW88875   4.806   7.499   6.583
95679SOL    HW188876   4.827   7.472   6.494
95679SOL    HW288877   4.710   7.494   6.587
95680SOL     OW88878   0.078   6.766   4.583
95680SOL    HW188879   0.157   6.799   4.625
95680SOL    HW288880   0.107   6.735   4.498
95681SOL     OW88881   9.934   1.559   8.842
95681SOL    HW188882   9.879   1.637   8.838
95681SOL    HW288883   9.873   1.486   8.829
95682SOL     OW88884   5.058  14.387   9.985
95682SOL    HW188885   5.026  14.306   9.944
95682SOL    HW288886   5.029  14.456   9.925
95683SOL     OW88887  13.564   4.842  14.148
95683SOL    HW188888  13.476   4.805  14.160
95683SOL    HW288889  13.582   4.832  14.054
95684SOL     OW88890  10.899   9.402   9.544
95684SOL    HW188891  10.825   9.407   9.605
95684SOL    HW288892  10.965   9.351   9.591
95685SOL     OW88893   2.154   1.075   0.479
95685SOL    HW188894   2.064   1.080   0.445
95685SOL    HW288895   2.208   1.062   0.401
95686SOL     OW88896  10.336  10.715   5.077
95686SOL    HW188897  10.295  10.707   4.991
95686SOL    HW288898  10.424  10.749   5.059
95687SOL     OW88899   2.376   9.864   8.692
95687SOL    HW188900   2.425   9.805   8.635
95687SOL    HW288901   2.408   9.845   8.780
95688SOL     OW88902   7.163  14.565   1.178
95688SOL    HW188903   7.103  14.618   1.126
95688SOL    HW288904   7.249  14.607   1.165
95689SOL     OW88905   9.242   6.383   0.045
95689SOL    HW188906   9.331   6.419   0.042
95689SOL    HW288907   9.211   6.387  14.834
95690SOL     OW88908   5.322   6.574  13.117
95690SOL    HW188909   5.239   6.582  13.164
95690SOL    HW288910   5.350   6.484  13.133
95691SOL     OW88911   3.617   5.885   6.115
95691SOL    HW188912   3.624   5.942   6.192
95691SOL    HW288913   3.698   5.900   6.067
95692SOL     OW88914   3.169   1.319   6.663
95692SOL    HW188915   3.133   1.381   6.600
95692SOL    HW288916   3.156   1.361   6.748
95693SOL     OW88917   8.525   8.437  12.327
95693SOL    HW188918   8.529   8.512  12.268
95693SOL    HW288919   8.459   8.461  12.392
95694SOL     OW88920  13.688  10.671  10.153
95694SOL    HW188921  13.716  10.625  10.074
95694SOL    HW288922  13.763  10.726  10.177
95695SOL     OW88923   2.595   5.611   3.171
95695SOL    HW188924   2.625   5.550   3.104
95695SOL    HW288925   2.521   5.657   3.130
95696SOL     OW88926  13.108  10.270   9.057
95696SOL    HW188927  13.040  10.248   8.993
95696SOL    HW288928  13.139  10.185   9.089
95697SOL     OW88929   7.373  13.929   0.707
95697SOL    HW188930   7.338  14.014   0.679
95697SOL    HW288931   7.310  13.898   0.772
95698SOL     OW88932  14.805  14.520   4.376
95698SOL    HW188933  14.724  14.505   4.326
95698SOL    HW288934  14.830  14.610   4.355
95699SOL     OW88935   1.935   6.715  12.355
95699SOL    HW188936   2.002   6.780  12.377
95699SOL    HW288937   1.943   6.649  12.423
95700SOL     OW88938   1.378   8.689  14.312
95700SOL    HW188939   1.395   8.739  14.233
95700SOL    HW288940   1.431   8.610  14.303
95701SOL     OW88941   1.824   0.276   9.099
95701SOL    HW188942   1.769   0.199   9.092
95701SOL    HW288943   1.776   0.345   9.053
95702SOL     OW88944  13.690   1.926   2.800
95702SOL    HW188945  13.778   1.922   2.836
95702SOL    HW288946  13.649   1.843   2.826
95703SOL     OW88947  12.437   4.220   1.583
95703SOL    HW188948  12.515   4.225   1.638
95703SOL    HW288949  12.370   4.267   1.632
95704SOL     OW88950   9.580   0.575  12.894
95704SOL    HW188951   9.623   0.659  12.909
95704SOL    HW288952   9.580   0.563  12.799
95705SOL     OW88953   3.796   9.354  14.351
95705SOL    HW188954   3.783   9.350  14.445
95705SOL    HW288955   3.872   9.411  14.339
95706SOL     OW88956  10.556   6.829   5.832
95706SOL    HW188957  10.464   6.843   5.855
95706SOL    HW288958  10.604   6.850   5.912
95707SOL     OW88959   4.103   2.672   5.045
95707SOL    HW188960   4.021   2.720   5.057
95707SOL    HW288961   4.171   2.738   5.058
95708SOL     OW88962   2.450  12.235   1.538
95708SOL    HW188963   2.410  12.169   1.481
95708SOL    HW288964   2.526  12.191   1.575
95709SOL     OW88965   6.474   4.867  10.979
95709SOL    HW188966   6.389   4.825  10.985
95709SOL    HW288967   6.522   4.814  10.915
95710SOL     OW88968   4.269   5.528  10.994
95710SOL    HW188969   4.226   5.481  11.066
95710SOL    HW288970   4.319   5.597  11.038
95711SOL     OW88971  13.371  13.256   1.759
95711SOL    HW188972  13.340  13.219   1.842
95711SOL    HW288973  13.454  13.298   1.780
95712SOL     OW88974   6.420   9.224  12.030
95712SOL    HW188975   6.386   9.298  12.081
95712SOL    HW288976   6.423   9.152  12.093
95713SOL     OW88977   2.777   9.505   3.521
95713SOL    HW188978   2.743   9.416   3.513
95713SOL    HW288979   2.725   9.544   3.591
95714SOL     OW88980   5.881   5.074   4.855
95714SOL    HW188981   5.896   5.156   4.807
95714SOL    HW288982   5.966   5.032   4.858
95715SOL     OW88983  12.398   9.981  12.356
95715SOL    HW188984  12.487  10.001  12.385
95715SOL    HW288985  12.362  10.064  12.326
95716SOL     OW88986   7.253   7.282   9.374
95716SOL    HW188987   7.206   7.232   9.441
95716SOL    HW288988   7.197   7.277   9.297
95717SOL     OW88989  12.933  10.927   2.042
95717SOL    HW188990  12.839  10.913   2.036
95717SOL    HW288991  12.952  10.995   1.977
95718SOL     OW88992   0.218   9.683  13.723
95718SOL    HW188993   0.312   9.664  13.727
95718SOL    HW288994   0.206   9.760  13.777
95719SOL     OW88995   5.456  14.755   1.327
95719SOL    HW188996   5.453  14.725   1.418
95719SOL    HW288997   5.511  14.832   1.329
95720SOL     OW88998   4.194   4.149  10.074
95720SOL    HW188999   4.212   4.240  10.097
95720SOL    HW289000   4.161   4.111  10.155
95721SOL     OW89001   3.479  12.725  11.029
95721SOL    HW189002   3.486  12.779  10.950
95721SOL    HW289003   3.389  12.738  11.059
95722SOL     OW89004   3.940   6.507   4.327
95722SOL    HW189005   3.868   6.470   4.276
95722SOL    HW289006   3.952   6.595   4.291
95723SOL     OW89007   2.278   6.078  10.334
95723SOL    HW189008   2.218   6.061  10.406
95723SOL    HW289009   2.360   6.101  10.376
95724SOL     OW89010   8.114  11.302   8.731
95724SOL    HW189011   8.029  11.334   8.760
95724SOL    HW289012   8.165  11.292   8.811
95725SOL     OW89013  11.674   7.271  14.586
95725SOL    HW189014  11.685   7.203  14.652
95725SOL    HW289015  11.742   7.253  14.521
95726SOL     OW89016  10.619  12.296   2.892
95726SOL    HW189017  10.622  12.209   2.932
95726SOL    HW289018  10.709  12.314   2.867
95727SOL     OW89019   4.846  10.524   2.965
95727SOL    HW189020   4.936  10.498   2.986
95727SOL    HW289021   4.856  10.583   2.890
95728SOL     OW89022   0.471   4.281   1.816
95728SOL    HW189023   0.410   4.280   1.889
95728SOL    HW289024   0.555   4.257   1.854
95729SOL     OW89025   8.206  11.382  14.215
95729SOL    HW189026   8.116  11.354  14.202
95729SOL    HW289027   8.251  11.306  14.251
95730SOL     OW89028  12.064  10.721   5.856
95730SOL    HW189029  11.977  10.699   5.887
95730SOL    HW289030  12.106  10.636   5.839
95731SOL     OW89031  11.990  11.559  12.306
95731SOL    HW189032  11.898  11.555  12.333
95731SOL    HW289033  11.992  11.626  12.237
95732SOL     OW89034  14.460   3.627   5.270
95732SOL    HW189035  14.461   3.657   5.361
95732SOL    HW289036  14.415   3.696   5.222
95733SOL     OW89037  11.326   1.915   2.339
95733SOL    HW189038  11.333   1.933   2.432
95733SOL    HW289039  11.411   1.876   2.316
95734SOL     OW89040   4.975  14.793   0.323
95734SOL    HW189041   4.879  14.787   0.330
95734SOL    HW289042   5.007  14.750   0.402
95735SOL     OW89043  12.004   5.675  11.016
95735SOL    HW189044  12.100   5.664  11.018
95735SOL    HW289045  11.974   5.639  11.099
95736SOL     OW89046  10.934   6.092   8.184
95736SOL    HW189047  10.839   6.082   8.180
95736SOL    HW289048  10.947   6.168   8.241
95737SOL     OW89049   4.616   2.554   1.296
95737SOL    HW189050   4.538   2.530   1.345
95737SOL    HW289051   4.604   2.647   1.276
95738SOL     OW89052   6.632  11.139  11.403
95738SOL    HW189053   6.646  11.117  11.495
95738SOL    HW289054   6.675  11.069  11.354
95739SOL     OW89055   5.658  11.439  10.369
95739SOL    HW189056   5.620  11.379  10.433
95739SOL    HW289057   5.724  11.388  10.323
95740SOL     OW89058  11.554  10.030   9.643
95740SOL    HW189059  11.606  10.106   9.668
95740SOL    HW289060  11.483  10.027   9.707
95741SOL     OW89061   3.864   5.818   2.158
95741SOL    HW189062   3.928   5.747   2.162
95741SOL    HW289063   3.785   5.782   2.199
95742SOL     OW89064   3.960  10.502   3.762
95742SOL    HW189065   3.982  10.584   3.719
95742SOL    HW289066   3.924  10.447   3.692
95743SOL     OW89067   3.068   6.772   1.943
95743SOL    HW189068   3.056   6.695   1.999
95743SOL    HW289069   2.997   6.768   1.879
95744SOL     OW89070   5.719  10.075   5.063
95744SOL    HW189071   5.729  10.016   5.138
95744SOL    HW289072   5.743  10.161   5.097
95745SOL     OW89073   0.068   3.488   1.938
95745SOL    HW189074   0.079   3.581   1.959
95745SOL    HW289075  14.866   3.464   1.982
95746SOL     OW89076   3.278  11.271  14.159
95746SOL    HW189077   3.349  11.209  14.175
95746SOL    HW289078   3.211  11.249  14.223
95747SOL     OW89079   1.446   2.709   8.443
95747SOL    HW189080   1.466   2.787   8.494
95747SOL    HW289081   1.359   2.724   8.407
95748SOL     OW89082   1.123   5.642   7.882
95748SOL    HW189083   1.105   5.572   7.819
95748SOL    HW289084   1.037   5.663   7.918
95749SOL     OW89085   6.950   9.642  13.293
95749SOL    HW189086   6.959   9.688  13.210
95749SOL    HW289087   6.862   9.666  13.324
95750SOL     OW89088   0.686  12.123   7.674
95750SOL    HW189089   0.775  12.107   7.706
95750SOL    HW289090   0.666  12.212   7.703
95751SOL     OW89091   2.873   2.058  10.759
95751SOL    HW189092   2.811   1.990  10.786
95751SOL    HW289093   2.824   2.112  10.696
95752SOL     OW89094   7.174   5.289   6.734
95752SOL    HW189095   7.083   5.312   6.754
95752SOL    HW289096   7.183   5.199   6.766
95753SOL     OW89097   0.900  10.951   0.346
95753SOL    HW189098   0.828  10.964   0.284
95753SOL    HW289099   0.956  10.885   0.304
95754SOL     OW89100   9.059   7.161   1.969
95754SOL    HW189101   9.096   7.075   1.989
95754SOL    HW289102   8.979   7.166   2.020
95755SOL     OW89103   2.410   7.317   2.433
95755SOL    HW189104   2.504   7.330   2.445
95755SOL    HW289105   2.381   7.277   2.515
95756SOL     OW89106   6.887  11.036   6.298
95756SOL    HW189107   6.860  10.991   6.217
95756SOL    HW289108   6.937  11.111   6.267
95757SOL     OW89109   0.019   3.280  10.557
95757SOL    HW189110   0.002   3.367  10.591
95757SOL    HW289111  14.823   3.261  10.501
95758SOL     OW89112   6.308   6.696  13.480
95758SOL    HW189113   6.321   6.674  13.572
95758SOL    HW289114   6.288   6.789  13.481
95759SOL     OW89115  13.631   3.635   8.743
95759SOL    HW189116  13.636   3.627   8.839
95759SOL    HW289117  13.668   3.552   8.711
95760SOL     OW89118   2.845   4.369   8.545
95760SOL    HW189119   2.810   4.284   8.571
95760SOL    HW289120   2.781   4.432   8.577
95761SOL     OW89121   6.007   5.505   0.058
95761SOL    HW189122   6.063   5.484   0.132
95761SOL    HW289123   5.918   5.505   0.093
95762SOL     OW89124  12.741   6.234  10.849
95762SOL    HW189125  12.718   6.326  10.855
95762SOL    HW289126  12.740   6.202  10.939
95763SOL     OW89127   1.309   4.193   9.861
95763SOL    HW189128   1.334   4.255   9.929
95763SOL    HW289129   1.364   4.116   9.878
95764SOL     OW89130   6.141   5.017   4.821
95764SOL    HW189131   6.210   5.064   4.868
95764SOL    HW289132   6.166   5.024   4.729
95765SOL     OW89133  10.437   7.677  13.245
95765SOL    HW189134  10.341   7.670  13.247
95765SOL    HW289135  10.462   7.648  13.158
95766SOL     OW89136   6.151  14.626  14.443
95766SOL    HW189137   6.196  14.676  14.374
95766SOL    HW289138   6.127  14.692  14.508
95767SOL     OW89139   9.916  10.293   3.899
95767SOL    HW189140   9.962  10.376   3.902
95767SOL    HW289141   9.915  10.263   3.991
95768SOL     OW89142  14.345  13.549   4.687
95768SOL    HW189143  14.409  13.602   4.733
95768SOL    HW289144  14.390  13.520   4.608
95769SOL     OW89145  10.264   6.755  13.614
95769SOL    HW189146  10.331   6.772  13.680
95769SOL    HW289147  10.313   6.724  13.537
95770SOL     OW89148   5.939  13.193   4.360
95770SOL    HW189149   6.004  13.230   4.301
95770SOL    HW289150   5.902  13.269   4.406
95771SOL     OW89151   4.385  10.714   0.395
95771SOL    HW189152   4.404  10.684   0.306
95771SOL    HW289153   4.290  10.715   0.400
95772SOL     OW89154   9.708   9.984   6.555
95772SOL    HW189155   9.802   9.969   6.565
95772SOL    HW289156   9.670   9.953   6.638
95773SOL     OW89157  13.299  12.061   6.193
95773SOL    HW189158  13.247  11.985   6.220
95773SOL    HW289159  13.279  12.129   6.258
95774SOL     OW89160   9.841  10.255   2.068
95774SOL    HW189161   9.933  10.276   2.084
95774SOL    HW289162   9.840  10.212   1.983
95775SOL     OW89163   5.123   3.051   6.684
95775SOL    HW189164   5.042   3.006   6.708
95775SOL    HW289165   5.174   2.984   6.638
95776SOL     OW89166  10.781  11.309  13.246
95776SOL    HW189167  10.854  11.365  13.273
95776SOL    HW289168  10.730  11.363  13.186
95777SOL     OW89169  12.470   0.333  14.687
95777SOL    HW189170  12.493   0.277  14.762
95777SOL    HW289171  12.548   0.386  14.673
95778SOL     OW89172   3.124  12.442   6.237
95778SOL    HW189173   3.069  12.504   6.286
95778SOL    HW289174   3.107  12.357   6.279
95779SOL     OW89175   2.735   6.350  10.806
95779SOL    HW189176   2.642   6.369  10.793
95779SOL    HW289177   2.760   6.402  10.882
95780SOL     OW89178   9.468   6.370   9.175
95780SOL    HW189179   9.539   6.391   9.115
95780SOL    HW289180   9.395   6.344   9.118
95781SOL     OW89181   3.847   5.972   5.579
95781SOL    HW189182   3.864   5.922   5.658
95781SOL    HW289183   3.752   5.970   5.568
95782SOL     OW89184  14.336  10.876   6.727
95782SOL    HW189185  14.290  10.805   6.681
95782SOL    HW289186  14.420  10.838   6.751
95783SOL     OW89187   7.721   5.162   2.911
95783SOL    HW189188   7.742   5.078   2.950
95783SOL    HW289189   7.749   5.155   2.820
95784SOL     OW89190   5.390   0.618   2.370
95784SOL    HW189191   5.354   0.627   2.282
95784SOL    HW289192   5.365   0.699   2.415
95785SOL     OW89193   8.457   7.536   8.560
95785SOL    HW189194   8.543   7.553   8.523
95785SOL    HW289195   8.451   7.440   8.562
95786SOL     OW89196   4.674   8.831   6.316
95786SOL    HW189197   4.597   8.855   6.265
95786SOL    HW289198   4.645   8.832   6.407
95787SOL     OW89199   3.635   9.792   2.934
95787SOL    HW189200   3.695   9.822   2.865
95787SOL    HW289201   3.548   9.798   2.894
95788SOL     OW89202   7.352  12.801   1.273
95788SOL    HW189203   7.359  12.723   1.217
95788SOL    HW289204   7.412  12.864   1.233
95789SOL     OW89205  12.139  12.648   7.697
95789SOL    HW189206  12.113  12.557   7.714
95789SOL    HW289207  12.072  12.681   7.638
95790SOL     OW89208   7.197  11.342   7.383
95790SOL    HW189209   7.216  11.261   7.429
95790SOL    HW289210   7.133  11.318   7.316
95791SOL     OW89211   0.398   6.232   9.448
95791SOL    HW189212   0.405   6.215   9.354
95791SOL    HW289213   0.316   6.281   9.457
95792SOL     OW89214   4.059   3.937   4.452
95792SOL    HW189215   4.080   3.852   4.492
95792SOL    HW289216   4.144   3.970   4.421
95793SOL     OW89217   1.154  13.698  13.533
95793SOL    HW189218   1.143  13.777  13.481
95793SOL    HW289219   1.096  13.709  13.608
95794SOL     OW89220  12.103  10.165   6.105
95794SOL    HW189221  12.142  10.108   6.171
95794SOL    HW289222  12.152  10.246   6.111
95795SOL     OW89223   7.021  14.587  12.943
95795SOL    HW189224   6.931  14.556  12.937
95795SOL    HW289225   7.047  14.570  13.033
95796SOL     OW89226  13.339   9.226   1.828
95796SOL    HW189227  13.397   9.243   1.753
95796SOL    HW289228  13.349   9.304   1.884
95797SOL     OW89229   1.962  12.470  12.779
95797SOL    HW189230   2.031  12.520  12.734
95797SOL    HW289231   1.977  12.379  12.752
95798SOL     OW89232   2.579   9.960  13.506
95798SOL    HW189233   2.668   9.986  13.481
95798SOL    HW289234   2.592   9.900  13.580
95799SOL     OW89235   4.800  12.256   5.791
95799SOL    HW189236   4.715  12.230   5.826
95799SOL    HW289237   4.857  12.260   5.867
95800SOL     OW89238  13.419   7.010   0.869
95800SOL    HW189239  13.452   7.016   0.779
95800SOL    HW289240  13.497   6.994   0.922
95801SOL     OW89241   7.855   1.748   4.443
95801SOL    HW189242   7.828   1.750   4.535
95801SOL    HW289243   7.896   1.663   4.432
95802SOL     OW89244   6.666   1.836   2.027
95802SOL    HW189245   6.690   1.754   1.984
95802SOL    HW289246   6.630   1.810   2.112
95803SOL     OW89247  11.753   9.997   5.665
95803SOL    HW189248  11.795  10.080   5.643
95803SOL    HW289249  11.767   9.942   5.588
95804SOL     OW89250   4.287   7.368   9.011
95804SOL    HW189251   4.314   7.436   9.072
95804SOL    HW289252   4.204   7.335   9.046
95805SOL     OW89253   6.056   2.617   3.198
95805SOL    HW189254   6.132   2.622   3.141
95805SOL    HW289255   6.011   2.700   3.186
95806SOL     OW89256   4.661   6.470   6.154
95806SOL    HW189257   4.589   6.466   6.216
95806SOL    HW289258   4.720   6.537   6.190
95807SOL     OW89259  10.617   8.727  12.170
95807SOL    HW189260  10.602   8.671  12.246
95807SOL    HW289261  10.550   8.795  12.176
95808SOL     OW89262   2.417   2.003   9.953
95808SOL    HW189263   2.483   1.988   9.885
95808SOL    HW289264   2.395   2.096   9.944
95809SOL     OW89265   1.857   2.797  14.154
95809SOL    HW189266   1.942   2.829  14.183
95809SOL    HW289267   1.860   2.804  14.058
95810SOL     OW89268   5.599   2.800   1.377
95810SOL    HW189269   5.513   2.841   1.387
95810SOL    HW289270   5.584   2.708   1.396
95811SOL     OW89271   0.785   8.623   2.494
95811SOL    HW189272   0.757   8.711   2.471
95811SOL    HW289273   0.710   8.585   2.540
95812SOL     OW89274   3.143   8.827   5.464
95812SOL    HW189275   3.117   8.883   5.391
95812SOL    HW289276   3.181   8.888   5.528
95813SOL     OW89277   3.569   1.477   7.072
95813SOL    HW189278   3.618   1.431   7.004
95813SOL    HW289279   3.631   1.540   7.108
95814SOL     OW89280  10.482   0.787  14.182
95814SOL    HW189281  10.572   0.772  14.152
95814SOL    HW289282  10.485   0.766  14.275
95815SOL     OW89283   0.207   8.479  10.089
95815SOL    HW189284   0.210   8.566  10.049
95815SOL    HW289285   0.254   8.488  10.171
95816SOL     OW89286   1.754   8.588   1.954
95816SOL    HW189287   1.693   8.542   1.896
95816SOL    HW289288   1.747   8.542   2.038
95817SOL     OW89289  14.434   3.153   1.111
95817SOL    HW189290  14.422   3.144   1.206
95817SOL    HW289291  14.503   3.091   1.090
95818SOL     OW89292   4.155   9.131   4.744
95818SOL    HW189293   4.069   9.106   4.776
95818SOL    HW289294   4.198   9.049   4.720
95819SOL     OW89295   9.201   8.652   0.196
95819SOL    HW189296   9.275   8.650   0.257
95819SOL    HW289297   9.153   8.732   0.218
95820SOL     OW89298   3.770   0.671   1.371
95820SOL    HW189299   3.705   0.607   1.399
95820SOL    HW289300   3.751   0.686   1.278
95821SOL     OW89301  10.138   0.473  13.696
95821SOL    HW189302  10.139   0.381  13.669
95821SOL    HW289303  10.131   0.469  13.792
95822SOL     OW89304   1.204   4.836  12.558
95822SOL    HW189305   1.286   4.864  12.597
95822SOL    HW289306   1.174   4.911  12.507
95823SOL     OW89307   8.366   0.949   0.184
95823SOL    HW189308   8.436   0.885   0.169
95823SOL    HW289309   8.352   0.947   0.279
95824SOL     OW89310   8.556  11.513   7.826
95824SOL    HW189311   8.488  11.461   7.869
95824SOL    HW289312   8.628  11.514   7.888
95825SOL     OW89313   2.471   6.240  11.026
95825SOL    HW189314   2.533   6.312  11.016
95825SOL    HW289315   2.412   6.269  11.095
95826SOL     OW89316   1.542  11.873   5.372
95826SOL    HW189317   1.447  11.873   5.368
95826SOL    HW289318   1.570  11.882   5.281
95827SOL     OW89319   8.108   1.292  10.060
95827SOL    HW189320   8.103   1.368  10.001
95827SOL    HW289321   8.111   1.217  10.001
95828SOL     OW89322   9.537   2.598   1.603
95828SOL    HW189323   9.475   2.527   1.617
95828SOL    HW289324   9.528   2.620   1.510
95829SOL     OW89325   0.990   9.763  10.694
95829SOL    HW189326   0.974   9.780  10.601
95829SOL    HW289327   1.067   9.706  10.695
95830SOL     OW89328   0.956   5.853   8.891
95830SOL    HW189329   1.011   5.781   8.861
95830SOL    HW289330   1.017   5.926   8.904
95831SOL     OW89331  12.951  11.933  12.721
95831SOL    HW189332  12.987  11.971  12.640
95831SOL    HW289333  12.860  11.962  12.722
95832SOL     OW89334   5.793   5.810  11.704
95832SOL    HW189335   5.779   5.715  11.707
95832SOL    HW289336   5.822   5.833  11.792
95833SOL     OW89337   5.047   2.918   8.649
95833SOL    HW189338   5.105   2.879   8.714
95833SOL    HW289339   5.094   2.995   8.618
95834SOL     OW89340   0.785  13.309   8.439
95834SOL    HW189341   0.833  13.227   8.425
95834SOL    HW289342   0.798  13.328   8.532
95835SOL     OW89343  13.021   8.537   7.083
95835SOL    HW189344  12.983   8.563   7.000
95835SOL    HW289345  13.113   8.519   7.063
95836SOL     OW89346   3.772   7.807  10.690
95836SOL    HW189347   3.684   7.771  10.693
95836SOL    HW289348   3.825   7.740  10.647
95837SOL     OW89349   4.906  13.360   1.643
95837SOL    HW189350   4.975  13.343   1.580
95837SOL    HW289351   4.893  13.455   1.639
95838SOL     OW89352   8.180   1.267   7.946
95838SOL    HW189353   8.255   1.210   7.964
95838SOL    HW289354   8.104   1.217   7.977
95839SOL     OW89355   4.618  14.126   3.367
95839SOL    HW189356   4.528  14.122   3.333
95839SOL    HW289357   4.610  14.095   3.457
95840SOL     OW89358   3.005  10.230  14.615
95840SOL    HW189359   3.064  10.239  14.689
95840SOL    HW289360   2.942  10.301  14.625
95841SOL     OW89361  14.400   3.928  12.593
95841SOL    HW189362  14.424   3.897  12.506
95841SOL    HW289363  14.310   3.896  12.606
95842SOL     OW89364   9.621   0.158  14.274
95842SOL    HW189365   9.651   0.230  14.330
95842SOL    HW289366   9.623   0.194  14.185
95843SOL     OW89367   4.375   8.526   3.473
95843SOL    HW189368   4.285   8.497   3.490
95843SOL    HW289369   4.424   8.495   3.549
95844SOL     OW89370   7.950  11.071   7.736
95844SOL    HW189371   8.011  10.998   7.728
95844SOL    HW289372   7.867  11.030   7.762
95845SOL     OW89373   5.356  10.276   7.912
95845SOL    HW189374   5.339  10.197   7.963
95845SOL    HW289375   5.286  10.278   7.847
95846SOL     OW89376   4.391  10.855  11.564
95846SOL    HW189377   4.373  10.763  11.540
95846SOL    HW289378   4.313  10.882  11.614
95847SOL     OW89379   3.207   5.510   9.867
95847SOL    HW189380   3.136   5.497   9.930
95847SOL    HW289381   3.205   5.604   9.848
95848SOL     OW89382   3.858   7.619   9.400
95848SOL    HW189383   3.953   7.624   9.392
95848SOL    HW289384   3.825   7.691   9.346
95849SOL     OW89385   0.378  14.007   1.593
95849SOL    HW189386   0.357  13.917   1.615
95849SOL    HW289387   0.384  14.052   1.677
95850SOL     OW89388   3.910  14.323   9.557
95850SOL    HW189389   3.963  14.395   9.589
95850SOL    HW289390   3.942  14.308   9.468
95851SOL     OW89391   1.108   6.399   9.447
95851SOL    HW189392   1.116   6.306   9.469
95851SOL    HW289393   1.198   6.429   9.438
95852SOL     OW89394   8.295   0.975  11.727
95852SOL    HW189395   8.320   1.064  11.705
95852SOL    HW289396   8.352   0.951  11.800
95853SOL     OW89397  10.303  11.636  13.085
95853SOL    HW189398  10.295  11.732  13.080
95853SOL    HW289399  10.293  11.607  12.994
95854SOL     OW89400  10.719   9.937   1.075
95854SOL    HW189401  10.737  10.013   1.132
95854SOL    HW289402  10.803   9.892   1.068
95855SOL     OW89403   0.776   1.690   0.747
95855SOL    HW189404   0.690   1.704   0.787
95855SOL    HW289405   0.807   1.778   0.726
95856SOL     OW89406   6.575   5.772   6.068
95856SOL    HW189407   6.630   5.849   6.056
95856SOL    HW289408   6.613   5.706   6.010
95857SOL     OW89409   6.243   6.816   2.572
95857SOL    HW189410   6.244   6.787   2.481
95857SOL    HW289411   6.265   6.738   2.623
95858SOL     OW89412  10.537   1.366   4.747
95858SOL    HW189413  10.505   1.298   4.688
95858SOL    HW289414  10.488   1.353   4.828
95859SOL     OW89415   0.726   1.670   1.135
95859SOL    HW189416   0.663   1.692   1.066
95859SOL    HW289417   0.812   1.678   1.093
95860SOL     OW89418   8.921  10.636  10.310
95860SOL    HW189419   8.830  10.664  10.317
95860SOL    HW289420   8.917  10.541  10.324
95861SOL     OW89421   5.771   2.210  14.497
95861SOL    HW189422   5.769   2.306  14.500
95861SOL    HW289423   5.854   2.190  14.454
95862SOL     OW89424   4.658   5.524   2.502
95862SOL    HW189425   4.676   5.528   2.408
95862SOL    HW289426   4.632   5.614   2.524
95863SOL     OW89427   5.191   7.492   5.869
95863SOL    HW189428   5.161   7.583   5.860
95863SOL    HW289429   5.283   7.500   5.897
95864SOL     OW89430   7.132  12.993   0.785
95864SOL    HW189431   7.169  12.985   0.697
95864SOL    HW289432   7.129  12.903   0.817
95865SOL     OW89433   7.010   2.820   3.299
95865SOL    HW189434   7.019   2.851   3.389
95865SOL    HW289435   7.100   2.798   3.272
95866SOL     OW89436   9.344   9.566   3.678
95866SOL    HW189437   9.384   9.620   3.610
95866SOL    HW289438   9.335   9.479   3.637
95867SOL     OW89439  13.616   3.149   6.590
95867SOL    HW189440  13.680   3.167   6.659
95867SOL    HW289441  13.589   3.235   6.559
95868SOL     OW89442   3.653  14.828   4.021
95868SOL    HW189443   3.600  14.757   3.984
95868SOL    HW289444   3.638  14.823   4.115
95869SOL     OW89445   5.479  14.416  14.430
95869SOL    HW189446   5.534  14.488  14.398
95869SOL    HW289447   5.511  14.400  14.519
95870SOL     OW89448   2.016   0.690  13.771
95870SOL    HW189449   2.006   0.602  13.735
95870SOL    HW289450   2.084   0.681  13.839
95871SOL     OW89451   6.214  14.071   8.564
95871SOL    HW189452   6.296  14.106   8.531
95871SOL    HW289453   6.150  14.141   8.551
95872SOL     OW89454   9.729   2.618   5.403
95872SOL    HW189455   9.712   2.675   5.478
95872SOL    HW289456   9.668   2.648   5.336
95873SOL     OW89457   7.593   0.021   3.267
95873SOL    HW189458   7.544   0.001   3.188
95873SOL    HW289459   7.644  14.821   3.285
95874SOL     OW89460   1.162  12.222   5.545
95874SOL    HW189461   1.230  12.159   5.519
95874SOL    HW289462   1.085  12.198   5.494
95875SOL     OW89463  14.719   2.387   3.203
95875SOL    HW189464  14.662   2.464   3.198
95875SOL    HW289465  14.726   2.369   3.297
95876SOL     OW89466   1.477   1.725   3.629
95876SOL    HW189467   1.433   1.652   3.672
95876SOL    HW289468   1.515   1.687   3.550
95877SOL     OW89469  11.961   0.487  12.290
95877SOL    HW189470  11.949   0.581  12.299
95877SOL    HW289471  11.877   0.454  12.258
95878SOL     OW89472   1.874  10.360   3.015
95878SOL    HW189473   1.947  10.386   2.960
95878SOL    HW289474   1.908  10.365   3.105
95879SOL     OW89475   9.011   3.079   8.794
95879SOL    HW189476   8.951   3.090   8.720
95879SOL    HW289477   9.094   3.115   8.763
95880SOL     OW89478  10.551   1.891   5.554
95880SOL    HW189479  10.480   1.916   5.613
95880SOL    HW289480  10.626   1.941   5.583
95881SOL     OW89481   6.611   2.472   0.682
95881SOL    HW189482   6.696   2.510   0.703
95881SOL    HW289483   6.622   2.378   0.696
95882SOL     OW89484  13.970  11.145   2.157
95882SOL    HW189485  13.888  11.139   2.107
95882SOL    HW289486  13.995  11.054   2.172
95883SOL     OW89487  14.815   7.624   6.015
95883SOL    HW189488   0.028   7.609   6.035
95883SOL    HW289489  14.768   7.590   6.091
95884SOL     OW89490   7.546   9.418   8.492
95884SOL    HW189491   7.452   9.431   8.482
95884SOL    HW289492   7.584   9.454   8.412
95885SOL     OW89493   6.437   6.872   3.061
95885SOL    HW189494   6.528   6.876   3.033
95885SOL    HW289495   6.427   6.784   3.097
95886SOL     OW89496   2.755   8.727   6.411
95886SOL    HW189497   2.806   8.764   6.338
95886SOL    HW289498   2.749   8.798   6.474
95887SOL     OW89499   2.402   1.296   2.501
95887SOL    HW189500   2.426   1.336   2.417
95887SOL    HW289501   2.343   1.359   2.541
95888SOL     OW89502   5.553  10.085   2.602
95888SOL    HW189503   5.624  10.066   2.663
95888SOL    HW289504   5.478  10.107   2.658
95889SOL     OW89505   7.292  11.379   3.180
95889SOL    HW189506   7.328  11.343   3.260
95889SOL    HW289507   7.241  11.307   3.142
95890SOL     OW89508   0.119  10.327   7.339
95890SOL    HW189509   0.194  10.282   7.379
95890SOL    HW289510   0.126  10.417   7.370
95891SOL     OW89511   0.634   2.858   5.212
95891SOL    HW189512   0.668   2.921   5.150
95891SOL    HW289513   0.709   2.801   5.233
95892SOL     OW89514  10.840   7.975   9.702
95892SOL    HW189515  10.917   7.978   9.758
95892SOL    HW289516  10.844   7.890   9.659
95893SOL     OW89517  14.474  14.124   2.648
95893SOL    HW189518  14.568  14.119   2.630
95893SOL    HW289519  14.468  14.150   2.740
95894SOL     OW89520  13.665   6.093   9.655
95894SOL    HW189521  13.757   6.068   9.649
95894SOL    HW289522  13.624   6.053   9.578
95895SOL     OW89523   3.320  14.063  13.273
95895SOL    HW189524   3.260  14.078  13.346
95895SOL    HW289525   3.355  14.150  13.253
95896SOL     OW89526   4.784   8.907   3.183
95896SOL    HW189527   4.814   8.866   3.102
95896SOL    HW289528   4.864   8.926   3.232
95897SOL     OW89529   9.183  12.938   0.049
95897SOL    HW189530   9.127  12.865   0.022
95897SOL    HW289531   9.228  12.907   0.128
95898SOL     OW89532   7.207   2.892   0.200
95898SOL    HW189533   7.125   2.930   0.232
95898SOL    HW289534   7.276   2.944   0.242
95899SOL     OW89535  11.035  11.086   5.880
95899SOL    HW189536  11.006  11.133   5.802
95899SOL    HW289537  11.118  11.046   5.855
95900SOL     OW89538   6.548   0.904   8.956
95900SOL    HW189539   6.540   0.907   9.051
95900SOL    HW289540   6.514   0.989   8.926
95901SOL     OW89541  11.842   7.644   0.523
95901SOL    HW189542  11.828   7.737   0.503
95901SOL    HW289543  11.937   7.633   0.519
95902SOL     OW89544   6.048  10.600  12.044
95902SOL    HW189545   5.972  10.554  12.008
95902SOL    HW289546   6.073  10.548  12.121
95903SOL     OW89547  14.204  14.288   2.555
95903SOL    HW189548  14.187  14.195   2.563
95903SOL    HW289549  14.299  14.294   2.542
95904SOL     OW89550   4.510   6.287  11.050
95904SOL    HW189551   4.514   6.269  10.956
95904SOL    HW289552   4.464   6.211  11.087
95905SOL     OW89553   1.054   4.348   0.397
95905SOL    HW189554   1.135   4.369   0.444
95905SOL    HW289555   1.019   4.271   0.440
95906SOL     OW89556   4.991  14.373   1.777
95906SOL    HW189557   5.072  14.323   1.770
95906SOL    HW289558   4.922  14.310   1.754
95907SOL     OW89559   2.438   4.075   0.341
95907SOL    HW189560   2.437   3.986   0.375
95907SOL    HW289561   2.398   4.069   0.254
95908SOL     OW89562  10.594  14.544   1.361
95908SOL    HW189563  10.543  14.512   1.435
95908SOL    HW289564  10.609  14.636   1.380
95909SOL     OW89565  10.880   7.255  10.569
95909SOL    HW189566  10.909   7.227  10.483
95909SOL    HW289567  10.942   7.215  10.630
95910SOL     OW89568  13.657   8.555  10.853
95910SOL    HW189569  13.646   8.501  10.775
95910SOL    HW289570  13.743   8.595  10.843
95911SOL     OW89571   0.329   1.108  14.856
95911SOL    HW189572   0.333   1.013  14.846
95911SOL    HW289573   0.403   1.129   0.035
95912SOL     OW89574  12.783   8.499   0.326
95912SOL    HW189575  12.705   8.546   0.355
95912SOL    HW289576  12.821   8.554   0.258
95913SOL     OW89577  13.001   9.168   2.621
95913SOL    HW189578  13.019   9.152   2.528
95913SOL    HW289579  13.087   9.161   2.663
95914SOL     OW89580   8.109   9.866   1.514
95914SOL    HW189581   8.167   9.889   1.441
95914SOL    HW289582   8.148   9.786   1.550
95915SOL     OW89583   1.351  11.908  14.082
95915SOL    HW189584   1.435  11.938  14.047
95915SOL    HW289585   1.362  11.911  14.177
95916SOL     OW89586   3.092   2.299   0.335
95916SOL    HW189587   3.038   2.338   0.404
95916SOL    HW289588   3.169   2.266   0.380
95917SOL     OW89589  11.981   5.364   9.882
95917SOL    HW189590  12.051   5.314   9.924
95917SOL    HW289591  12.024   5.415   9.814
95918SOL     OW89592   4.306   5.200  13.257
95918SOL    HW189593   4.353   5.140  13.199
95918SOL    HW289594   4.300   5.154  13.340
95919SOL     OW89595   8.489   2.344  14.442
95919SOL    HW189596   8.576   2.356  14.480
95919SOL    HW289597   8.505   2.329  14.349
95920SOL     OW89598   0.331   4.519   2.959
95920SOL    HW189599   0.339   4.582   2.887
95920SOL    HW289600   0.245   4.537   2.996
95921SOL     OW89601  14.669   5.102  10.932
95921SOL    HW189602  14.630   5.126  11.016
95921SOL    HW289603  14.761   5.084  10.952
95922SOL     OW89604  14.093  10.702   2.391
95922SOL    HW189605  14.126  10.770   2.332
95922SOL    HW289606  14.016  10.667   2.347
95923SOL     OW89607   4.439  12.231   4.153
95923SOL    HW189608   4.415  12.265   4.067
95923SOL    HW289609   4.494  12.299   4.191
95924SOL     OW89610  11.574   9.402   8.761
95924SOL    HW189611  11.579   9.447   8.677
95924SOL    HW289612  11.485   9.367   8.764
95925SOL     OW89613  10.423  11.452   0.867
95925SOL    HW189614  10.479  11.470   0.791
95925SOL    HW289615  10.477  11.477   0.943
95926SOL     OW89616   9.308   0.686  14.134
95926SOL    HW189617   9.299   0.780  14.117
95926SOL    HW289618   9.375   0.657  14.072
95927SOL     OW89619  14.546  10.754  13.878
95927SOL    HW189620  14.584  10.696  13.812
95927SOL    HW289621  14.463  10.712  13.902
95928SOL     OW89622   5.824  14.615  10.324
95928SOL    HW189623   5.871  14.697  10.334
95928SOL    HW289624   5.735  14.640  10.301
95929SOL     OW89625   6.942  11.126   3.517
95929SOL    HW189626   6.851  11.127   3.548
95929SOL    HW289627   6.974  11.214   3.536
95930SOL     OW89628  14.028   0.641   9.106
95930SOL    HW189629  14.086   0.715   9.124
95930SOL    HW289630  14.038   0.584   9.182
95931SOL     OW89631   3.351  11.545   1.649
95931SOL    HW189632   3.368  11.574   1.560
95931SOL    HW289633   3.270  11.591   1.674
95932SOL     OW89634   9.619   1.913   8.559
95932SOL    HW189635   9.530   1.947   8.566
95932SOL    HW289636   9.668   1.960   8.627
95933SOL     OW89637  11.840  12.321  11.549
95933SOL    HW189638  11.891  12.291  11.624
95933SOL    HW289639  11.750  12.330  11.582
95934SOL     OW89640  10.474  13.564  12.031
95934SOL    HW189641  10.515  13.483  12.060
95934SOL    HW289642  10.495  13.570  11.938
95935SOL     OW89643   6.746   0.306  13.947
95935SOL    HW189644   6.690   0.250  13.893
95935SOL    HW289645   6.725   0.395  13.918
95936SOL     OW89646  11.047  12.472   0.299
95936SOL    HW189647  11.003  12.388   0.305
95936SOL    HW289648  10.979  12.537   0.318
95937SOL     OW89649   9.807  11.645   7.138
95937SOL    HW189650   9.712  11.651   7.128
95937SOL    HW289651   9.840  11.632   7.049
95938SOL     OW89652   2.396   0.535  11.936
95938SOL    HW189653   2.420   0.618  11.977
95938SOL    HW289654   2.442   0.469  11.988
95939SOL     OW89655   5.956   0.511   2.456
95939SOL    HW189656   5.870   0.484   2.423
95939SOL    HW289657   6.016   0.496   2.384
95940SOL     OW89658   3.459  13.801   5.611
95940SOL    HW189659   3.534  13.745   5.631
95940SOL    HW289660   3.428  13.831   5.697
95941SOL     OW89661   0.041  12.217   2.838
95941SOL    HW189662  14.840  12.211   2.891
95941SOL    HW289663   0.013  12.193   2.750
95942SOL     OW89664   2.298  11.540  10.965
95942SOL    HW189665   2.381  11.525  10.918
95942SOL    HW289666   2.325  11.567  11.053
95943SOL     OW89667   1.627   2.861  10.307
95943SOL    HW189668   1.568   2.928  10.343
95943SOL    HW289669   1.610   2.861  10.213
95944SOL     OW89670   1.664   2.153   8.133
95944SOL    HW189671   1.599   2.221   8.113
95944SOL    HW289672   1.620   2.096   8.196
95945SOL     OW89673  12.136   5.417   3.920
95945SOL    HW189674  12.095   5.360   3.855
95945SOL    HW289675  12.211   5.455   3.876
95946SOL     OW89676   6.269   1.400  12.320
95946SOL    HW189677   6.225   1.329  12.367
95946SOL    HW289678   6.356   1.365  12.300
95947SOL     OW89679   6.721   4.291   3.501
95947SOL    HW189680   6.729   4.321   3.591
95947SOL    HW289681   6.654   4.223   3.504
95948SOL     OW89682   4.941  13.761   6.018
95948SOL    HW189683   4.999  13.688   6.041
95948SOL    HW289684   4.919  13.801   6.102
95949SOL     OW89685   0.449   2.958  12.799
95949SOL    HW189686   0.522   2.906  12.834
95949SOL    HW289687   0.436   3.027  12.865
95950SOL     OW89688  10.298  11.898   7.648
95950SOL    HW189689  10.333  11.983   7.675
95950SOL    HW289690  10.372  11.855   7.606
95951SOL     OW89691  12.293   6.864  10.754
95951SOL    HW189692  12.378   6.867  10.796
95951SOL    HW289693  12.296   6.786  10.699
95952SOL     OW89694   4.490  14.406   6.301
95952SOL    HW189695   4.502  14.501   6.308
95952SOL    HW289696   4.577  14.369   6.316
95953SOL     OW89697   6.704   7.897   3.020
95953SOL    HW189698   6.660   7.976   2.988
95953SOL    HW289699   6.778   7.930   3.071
95954SOL     OW89700  10.213   8.291   9.467
95954SOL    HW189701  10.216   8.294   9.563
95954SOL    HW289702  10.282   8.353   9.440
95955SOL     OW89703   7.222   4.882  10.322
95955SOL    HW189704   7.193   4.831  10.247
95955SOL    HW289705   7.226   4.819  10.394
95956SOL     OW89706   8.714   6.118   5.539
95956SOL    HW189707   8.626   6.084   5.521
95956SOL    HW289708   8.702   6.212   5.551
95957SOL     OW89709  14.206   3.325   2.838
95957SOL    HW189710  14.239   3.336   2.749
95957SOL    HW289711  14.128   3.381   2.841
95958SOL     OW89712   8.825   0.400   1.404
95958SOL    HW189713   8.816   0.403   1.499
95958SOL    HW289714   8.853   0.489   1.380
95959SOL     OW89715  11.629   2.432   6.678
95959SOL    HW189716  11.618   2.434   6.773
95959SOL    HW289717  11.629   2.523   6.651
95960SOL     OW89718   9.884   1.069   4.800
95960SOL    HW189719   9.804   1.026   4.830
95960SOL    HW289720   9.927   1.004   4.745
95961SOL     OW89721   3.685   9.352   6.407
95961SOL    HW189722   3.689   9.280   6.344
95961SOL    HW289723   3.696   9.431   6.355
95962SOL     OW89724   7.424  12.668   7.977
95962SOL    HW189725   7.420  12.579   8.013
95962SOL    HW289726   7.401  12.657   7.885
95963SOL     OW89727  12.375   4.303  12.252
95963SOL    HW189728  12.453   4.264  12.292
95963SOL    HW289729  12.360   4.251  12.173
95964SOL     OW89730   9.942   5.510  12.615
95964SOL    HW189731   9.961   5.474  12.529
95964SOL    HW289732   9.934   5.433  12.672
95965SOL     OW89733   6.611   8.739   2.785
95965SOL    HW189734   6.706   8.745   2.784
95965SOL    HW289735   6.593   8.645   2.776
95966SOL     OW89736   1.155   3.753   6.384
95966SOL    HW189737   1.241   3.774   6.347
95966SOL    HW289738   1.165   3.768   6.478
95967SOL     OW89739   0.832  10.864  12.988
95967SOL    HW189740   0.761  10.885  13.048
95967SOL    HW289741   0.815  10.918  12.911
95968SOL     OW89742   7.938  11.351   2.343
95968SOL    HW189743   7.920  11.414   2.273
95968SOL    HW289744   8.004  11.292   2.307
95969SOL     OW89745  11.231  10.745   1.687
95969SOL    HW189746  11.195  10.713   1.769
95969SOL    HW289747  11.245  10.838   1.702
95970SOL     OW89748   3.275   8.154  12.175
95970SOL    HW189749   3.323   8.105  12.108
95970SOL    HW289750   3.319   8.133  12.257
95971SOL     OW89751   0.700  14.143   1.187
95971SOL    HW189752   0.700  14.055   1.148
95971SOL    HW289753   0.788  14.176   1.170
95972SOL     OW89754   1.568   4.617   7.474
95972SOL    HW189755   1.516   4.598   7.552
95972SOL    HW289756   1.519   4.577   7.402
95973SOL     OW89757   9.505   2.453   4.783
95973SOL    HW189758   9.567   2.511   4.827
95973SOL    HW289759   9.443   2.512   4.739
95974SOL     OW89760   7.924   7.815   6.940
95974SOL    HW189761   7.874   7.888   6.904
95974SOL    HW289762   7.986   7.792   6.871
95975SOL     OW89763   4.996  11.284  13.129
95975SOL    HW189764   5.073  11.228  13.143
95975SOL    HW289765   5.010  11.322  13.042
95976SOL     OW89766   8.420   8.043   1.389
95976SOL    HW189767   8.464   8.052   1.304
95976SOL    HW289768   8.473   8.095   1.449
95977SOL     OW89769  11.635  10.765  11.076
95977SOL    HW189770  11.690  10.813  11.138
95977SOL    HW289771  11.615  10.682  11.120
95978SOL     OW89772  12.218  12.278   8.887
95978SOL    HW189773  12.303  12.301   8.924
95978SOL    HW289774  12.200  12.190   8.919
95979SOL     OW89775   0.570  10.114  12.850
95979SOL    HW189776   0.514  10.191  12.850
95979SOL    HW289777   0.616  10.117  12.767
95980SOL     OW89778   6.138   3.103   6.276
95980SOL    HW189779   6.140   3.137   6.365
95980SOL    HW289780   6.116   3.011   6.286
95981SOL     OW89781   4.892   3.590   1.200
95981SOL    HW189782   4.901   3.627   1.288
95981SOL    HW289783   4.905   3.496   1.212
95982SOL     OW89784   9.798   3.419   0.299
95982SOL    HW189785   9.817   3.511   0.284
95982SOL    HW289786   9.805   3.379   0.212
95983SOL     OW89787  11.788   5.153  12.308
95983SOL    HW189788  11.811   5.236  12.351
95983SOL    HW289789  11.709   5.173  12.259
95984SOL     OW89790   3.687   2.103   7.990
95984SOL    HW189791   3.648   2.188   8.011
95984SOL    HW289792   3.755   2.091   8.057
95985SOL     OW89793   8.757  14.857  13.482
95985SOL    HW189794   8.687  14.857  13.546
95985SOL    HW289795   8.729  14.794  13.415
95986SOL     OW89796   8.798   4.320   9.021
95986SOL    HW189797   8.776   4.238   8.978
95986SOL    HW289798   8.852   4.367   8.957
95987SOL     OW89799  11.456   4.743  10.881
95987SOL    HW189800  11.371   4.769  10.847
95987SOL    HW289801  11.458   4.779  10.970
95988SOL     OW89802   4.658   3.377  13.023
95988SOL    HW189803   4.670   3.452  12.965
95988SOL    HW289804   4.712   3.308  12.985
95989SOL     OW89805  13.443   1.563  13.446
95989SOL    HW189806  13.361   1.535  13.406
95989SOL    HW289807  13.434   1.536  13.538
95990SOL     OW89808  10.287  12.810   9.583
95990SOL    HW189809  10.244  12.802   9.669
95990SOL    HW289810  10.297  12.720   9.553
95991SOL     OW89811   2.782   1.191   2.253
95991SOL    HW189812   2.816   1.171   2.340
95991SOL    HW289813   2.810   1.281   2.236
95992SOL     OW89814   6.699   0.497   0.724
95992SOL    HW189815   6.624   0.491   0.782
95992SOL    HW289816   6.674   0.562   0.659
95993SOL     OW89817   0.392  12.198   7.367
95993SOL    HW189818   0.469  12.142   7.372
95993SOL    HW289819   0.419  12.270   7.309
95994SOL     OW89820  10.786   1.376  14.253
95994SOL    HW189821  10.752   1.464  14.236
95994SOL    HW289822  10.725   1.339  14.317
95995SOL     OW89823   1.073   0.846   0.825
95995SOL    HW189824   0.981   0.821   0.836
95995SOL    HW289825   1.122   0.774   0.865
95996SOL     OW89826  10.018  10.188  11.017
95996SOL    HW189827   9.964  10.257  11.056
95996SOL    HW289828  10.107  10.210  11.043
95997SOL     OW89829   7.675   2.792   2.450
95997SOL    HW189830   7.649   2.884   2.455
95997SOL    HW289831   7.612   2.746   2.505
95998SOL     OW89832   5.429   0.625   8.021
95998SOL    HW189833   5.446   0.715   8.048
95998SOL    HW289834   5.509   0.598   7.976
95999SOL     OW89835  12.244   5.128  11.144
95999SOL    HW189836  12.278   5.171  11.065
95999SOL    HW289837  12.322   5.113  11.197
96000SOL     OW89838   7.792   5.878   0.604
96000SOL    HW189839   7.745   5.922   0.533
96000SOL    HW289840   7.740   5.894   0.682
96001SOL     OW89841  10.222  11.810  14.548
96001SOL    HW189842  10.222  11.739  14.613
96001SOL    HW289843  10.182  11.771  14.471
96002SOL     OW89844   6.981  10.744   8.071
96002SOL    HW189845   6.933  10.812   8.118
96002SOL    HW289846   7.024  10.693   8.140
96003SOL     OW89847  10.484  13.547   7.953
96003SOL    HW189848  10.536  13.626   7.942
96003SOL    HW289849  10.486  13.530   8.047
96004SOL     OW89850   6.837  14.291   7.716
96004SOL    HW189851   6.882  14.218   7.759
96004SOL    HW289852   6.826  14.356   7.786
96005SOL     OW89853   2.671   7.509  10.336
96005SOL    HW189854   2.637   7.598  10.346
96005SOL    HW289855   2.695   7.483  10.425
96006SOL     OW89856   6.524   9.273   9.836
96006SOL    HW189857   6.434   9.241   9.832
96006SOL    HW289858   6.557   9.243   9.920
96007SOL     OW89859   7.715   0.829   2.711
96007SOL    HW189860   7.688   0.766   2.644
96007SOL    HW289861   7.806   0.849   2.690
96008SOL     OW89862   3.494   7.302  11.634
96008SOL    HW189863   3.433   7.342  11.697
96008SOL    HW289864   3.447   7.306  11.550
96009SOL     OW89865  14.690   0.926   5.344
96009SOL    HW189866  14.758   0.898   5.284
96009SOL    HW289867  14.656   1.007   5.306
96010SOL     OW89868  13.083   7.524   2.223
96010SOL    HW189869  13.116   7.482   2.144
96010SOL    HW289870  13.094   7.459   2.292
96011SOL     OW89871   5.808  12.524   2.104
96011SOL    HW189872   5.789  12.599   2.048
96011SOL    HW289873   5.780  12.448   2.052
96012SOL     OW89874   0.623   7.614  10.904
96012SOL    HW189875   0.674   7.695  10.902
96012SOL    HW289876   0.669   7.558  10.967
96013SOL     OW89877   7.266   1.870   8.327
96013SOL    HW189878   7.180   1.850   8.363
96013SOL    HW289879   7.252   1.946   8.271
96014SOL     OW89880   6.392   4.866   5.367
96014SOL    HW189881   6.380   4.871   5.462
96014SOL    HW289882   6.487   4.870   5.355
96015SOL     OW89883   0.412   1.870   3.642
96015SOL    HW189884   0.337   1.812   3.653
96015SOL    HW289885   0.479   1.815   3.601
96016SOL     OW89886  11.583  13.644   0.179
96016SOL    HW189887  11.638  13.680   0.249
96016SOL    HW289888  11.494  13.647   0.214
96017SOL     OW89889   2.234   0.408   5.811
96017SOL    HW189890   2.281   0.332   5.845
96017SOL    HW289891   2.222   0.464   5.887
96018SOL     OW89892   1.689  10.185   5.944
96018SOL    HW189893   1.622  10.128   5.908
96018SOL    HW289894   1.768  10.165   5.893
96019SOL     OW89895   6.272   3.575  13.567
96019SOL    HW189896   6.226   3.569  13.651
96019SOL    HW289897   6.264   3.667  13.542
96020SOL     OW89898   1.197  11.695   1.712
96020SOL    HW189899   1.121  11.743   1.678
96020SOL    HW289900   1.207  11.620   1.653
96021SOL     OW89901   5.698  12.377   6.890
96021SOL    HW189902   5.668  12.440   6.825
96021SOL    HW289903   5.618  12.331   6.917
96022SOL     OW89904   5.756  13.380   7.124
96022SOL    HW189905   5.757  13.474   7.143
96022SOL    HW289906   5.847  13.353   7.137
96023SOL     OW89907  13.208   9.759   4.539
96023SOL    HW189908  13.165   9.679   4.568
96023SOL    HW289909  13.291   9.761   4.587
96024SOL     OW89910  11.026   2.546   7.049
96024SOL    HW189911  10.952   2.487   7.033
96024SOL    HW289912  11.034   2.549   7.144
96025SOL     OW89913   5.572  14.874  13.387
96025SOL    HW189914   5.482  14.846  13.401
96025SOL    HW289915   5.620  14.840  13.463
96026SOL     OW89916   6.702   6.072   2.905
96026SOL    HW189917   6.692   6.063   2.810
96026SOL    HW289918   6.696   6.167   2.920
96027SOL     OW89919   5.814   2.835   1.076
96027SOL    HW189920   5.840   2.758   1.126
96027SOL    HW289921   5.829   2.908   1.136
96028SOL     OW89922   8.715   9.163   1.854
96028SOL    HW189923   8.638   9.216   1.831
96028SOL    HW289924   8.689   9.118   1.934
96029SOL     OW89925   5.573   4.749   4.587
96029SOL    HW189926   5.665   4.775   4.581
96029SOL    HW289927   5.525   4.832   4.588
96030SOL     OW89928   0.616   3.903   7.175
96030SOL    HW189929   0.711   3.910   7.183
96030SOL    HW289930   0.599   3.913   7.081
96031SOL     OW89931   3.226   3.915  14.870
96031SOL    HW189932   3.204   3.854  14.800
96031SOL    HW289933   3.319   3.935  14.856
96032SOL     OW89934   4.596   6.213   8.953
96032SOL    HW189935   4.511   6.179   8.983
96032SOL    HW289936   4.660   6.148   8.981
96033SOL     OW89937   1.942  12.664   2.662
96033SOL    HW189938   1.986  12.687   2.581
96033SOL    HW289939   1.888  12.740   2.682
96034SOL     OW89940   9.972  14.510   5.533
96034SOL    HW189941   9.943  14.549   5.615
96034SOL    HW289942   9.953  14.576   5.467
96035SOL     OW89943   5.828  11.814  12.643
96035SOL    HW189944   5.872  11.899  12.636
96035SOL    HW289945   5.750  11.823  12.589
96036SOL     OW89946   3.522   7.332   3.405
96036SOL    HW189947   3.479   7.368   3.328
96036SOL    HW289948   3.465   7.355   3.478
96037SOL     OW89949  12.193  13.019  12.216
96037SOL    HW189950  12.281  13.000  12.184
96037SOL    HW289951  12.138  12.952  12.176
96038SOL     OW89952   1.149  11.920   7.346
96038SOL    HW189953   1.188  11.833   7.356
96038SOL    HW289954   1.190  11.973   7.415
96039SOL     OW89955   5.057  10.628  10.871
96039SOL    HW189956   5.038  10.535  10.864
96039SOL    HW289957   5.143  10.639  10.831
96040SOL     OW89958   0.849   8.669   7.858
96040SOL    HW189959   0.823   8.761   7.865
96040SOL    HW289960   0.936   8.672   7.817
96041SOL     OW89961   9.958  13.954  14.035
96041SOL    HW189962  10.017  14.022  14.068
96041SOL    HW289963   9.998  13.872  14.064
96042SOL     OW89964   1.979  12.407  11.737
96042SOL    HW189965   2.028  12.337  11.780
96042SOL    HW289966   1.974  12.380  11.645
96043SOL     OW89967   3.089   1.161   4.767
96043SOL    HW189968   3.025   1.099   4.801
96043SOL    HW289969   3.038   1.240   4.749
96044SOL     OW89970  12.052  13.890  11.929
96044SOL    HW189971  12.043  13.801  11.895
96044SOL    HW289972  12.017  13.885  12.018
96045SOL     OW89973   3.155  12.268   8.062
96045SOL    HW189974   3.065  12.292   8.038
96045SOL    HW289975   3.174  12.321   8.140
96046SOL     OW89976   8.664  13.705   1.375
96046SOL    HW189977   8.725  13.740   1.310
96046SOL    HW289978   8.656  13.612   1.354
96047SOL     OW89979   2.812   5.932  14.399
96047SOL    HW189980   2.846   5.994  14.464
96047SOL    HW289981   2.791   5.853  14.450
96048SOL     OW89982   1.164  10.894  11.591
96048SOL    HW189983   1.236  10.846  11.550
96048SOL    HW289984   1.185  10.892  11.685
96049SOL     OW89985   6.927   6.558  11.706
96049SOL    HW189986   6.894   6.479  11.748
96049SOL    HW289987   6.874   6.566  11.626
96050SOL     OW89988  10.335   3.807  10.736
96050SOL    HW189989  10.351   3.775  10.825
96050SOL    HW289990  10.375   3.741  10.679
96051SOL     OW89991   0.419  14.087   7.586
96051SOL    HW189992   0.457  14.040   7.512
96051SOL    HW289993   0.450  14.177   7.576
96052SOL     OW89994   4.960  10.048  10.074
96052SOL    HW189995   4.921   9.966  10.104
96052SOL    HW289996   5.048  10.024  10.045
96053SOL     OW89997  10.446  13.946   9.255
96053SOL    HW189998  10.358  13.922   9.284
96053SOL    HW289999  10.459  14.034   9.291
96054SOL     OW90000  12.150  11.613   5.256
96054SOL    HW190001  12.150  11.524   5.223
96054SOL    HW290002  12.162  11.603   5.351
96055SOL     OW90003  13.287  13.208   3.249
96055SOL    HW190004  13.275  13.193   3.156
96055SOL    HW290005  13.283  13.121   3.289
96056SOL     OW90006  11.148  14.541   6.909
96056SOL    HW190007  11.155  14.636   6.900
96056SOL    HW290008  11.088  14.514   6.840
96057SOL     OW90009   2.387   4.524   7.185
96057SOL    HW190010   2.302   4.567   7.188
96057SOL    HW290011   2.394   4.491   7.096
96058SOL     OW90012   5.286  11.453  12.775
96058SOL    HW190013   5.363  11.397  12.778
96058SOL    HW290014   5.317  11.536  12.738
96059SOL     OW90015   5.531  10.383  13.433
96059SOL    HW190016   5.534  10.476  13.453
96059SOL    HW290017   5.449  10.371  13.384
96060SOL     OW90018  12.034   0.332   8.367
96060SOL    HW190019  12.109   0.391   8.371
96060SOL    HW290020  12.070   0.245   8.384
96061SOL     OW90021  13.041   7.686   4.426
96061SOL    HW190022  12.990   7.647   4.497
96061SOL    HW290023  13.108   7.621   4.406
96062SOL     OW90024   6.989   3.475   1.509
96062SOL    HW190025   6.958   3.393   1.547
96062SOL    HW290026   7.070   3.451   1.464
96063SOL     OW90027  13.717   7.141   3.359
96063SOL    HW190028  13.690   7.222   3.403
96063SOL    HW290029  13.722   7.165   3.267
96064SOL     OW90030   9.926   0.132  14.106
96064SOL    HW190031   9.958   0.202  14.163
96064SOL    HW290032   9.831   0.131  14.121
96065SOL     OW90033   6.688  10.029   3.644
96065SOL    HW190034   6.628  10.031   3.569
96065SOL    HW290035   6.691   9.937   3.671
96066SOL     OW90036   6.636   4.857   2.856
96066SOL    HW190037   6.639   4.772   2.900
96066SOL    HW290038   6.637   4.835   2.763
96067SOL     OW90039  12.642   8.664   9.354
96067SOL    HW190040  12.613   8.697   9.438
96067SOL    HW290041  12.666   8.573   9.370
96068SOL     OW90042  12.078   4.250  13.451
96068SOL    HW190043  12.079   4.343  13.472
96068SOL    HW290044  12.133   4.209  13.518
96069SOL     OW90045   9.430  12.773   7.324
96069SOL    HW190046   9.397  12.774   7.414
96069SOL    HW290047   9.471  12.687   7.314
96070SOL     OW90048   3.820   1.435  11.899
96070SOL    HW190049   3.792   1.396  11.816
96070SOL    HW290050   3.868   1.365  11.943
96071SOL     OW90051   3.670   9.232   2.175
96071SOL    HW190052   3.609   9.176   2.223
96071SOL    HW290053   3.614   9.297   2.132
96072SOL     OW90054   3.915   7.094  12.693
96072SOL    HW190055   3.895   7.050  12.775
96072SOL    HW290056   3.969   7.032  12.644
96073SOL     OW90057   2.419   9.824  13.288
96073SOL    HW190058   2.460   9.851  13.370
96073SOL    HW290059   2.387   9.906  13.249
96074SOL     OW90060   7.336  10.631  14.713
96074SOL    HW190061   7.411  10.573  14.703
96074SOL    HW290062   7.266  10.575  14.748
96075SOL     OW90063   7.956   6.291  12.278
96075SOL    HW190064   7.931   6.304  12.186
96075SOL    HW290065   7.880   6.249  12.317
96076SOL     OW90066   6.801  14.121   2.883
96076SOL    HW190067   6.891  14.144   2.862
96076SOL    HW290068   6.805  14.030   2.914
96077SOL     OW90069  11.330   1.172   2.635
96077SOL    HW190070  11.372   1.251   2.668
96077SOL    HW290071  11.394   1.135   2.574
96078SOL     OW90072   0.144  14.329   4.349
96078SOL    HW190073   0.205  14.350   4.279
96078SOL    HW290074   0.069  14.387   4.335
96079SOL     OW90075  11.502   5.702   5.160
96079SOL    HW190076  11.512   5.794   5.184
96079SOL    HW290077  11.542   5.654   5.232
96080SOL     OW90078  11.635  12.826  13.524
96080SOL    HW190079  11.629  12.912  13.481
96080SOL    HW290080  11.704  12.837  13.589
96081SOL     OW90081  11.461  10.938  13.201
96081SOL    HW190082  11.533  10.912  13.143
96081SOL    HW290083  11.500  10.938  13.288
96082SOL     OW90084   0.728   4.852   8.344
96082SOL    HW190085   0.660   4.878   8.281
96082SOL    HW290086   0.680   4.811   8.415
96083SOL     OW90087   5.516   3.052  10.294
96083SOL    HW190088   5.540   3.140  10.263
96083SOL    HW290089   5.550   2.993  10.226
96084SOL     OW90090  11.269  11.460   5.544
96084SOL    HW190091  11.342  11.433   5.600
96084SOL    HW290092  11.243  11.545   5.577
96085SOL     OW90093  13.797  10.951   0.414
96085SOL    HW190094  13.765  11.035   0.381
96085SOL    HW290095  13.841  10.910   0.340
96086SOL     OW90096  14.091   1.116   9.547
96086SOL    HW190097  14.056   1.168   9.475
96086SOL    HW290098  14.041   1.034   9.544
96087SOL     OW90099  10.846  14.857   3.329
96087SOL    HW190100  10.753  14.835   3.318
96087SOL    HW290101  10.892  14.795   3.272
96088SOL     OW90102  14.042   2.839   4.708
96088SOL    HW190103  14.037   2.749   4.742
96088SOL    HW290104  13.972   2.886   4.755
96089SOL     OW90105   8.371   1.846   9.845
96089SOL    HW190106   8.319   1.798   9.781
96089SOL    HW290107   8.330   1.827   9.929
96090SOL     OW90108  14.856   6.765   0.069
96090SOL    HW190109  14.853   6.857   0.044
96090SOL    HW290110   0.071   6.744   0.073
96091SOL     OW90111   4.805  14.596   4.948
96091SOL    HW190112   4.767  14.631   5.028
96091SOL    HW290113   4.777  14.504   4.946
96092SOL     OW90114   2.187   4.649  11.038
96092SOL    HW190115   2.233   4.567  11.056
96092SOL    HW290116   2.132   4.663  11.116
96093SOL     OW90117   4.289   5.046   3.450
96093SOL    HW190118   4.277   5.066   3.357
96093SOL    HW290119   4.313   4.953   3.451
96094SOL     OW90120  10.418  10.538   7.987
96094SOL    HW190121  10.465  10.620   8.005
96094SOL    HW290122  10.446  10.479   8.058
96095SOL     OW90123   0.977  14.356   9.825
96095SOL    HW190124   1.003  14.431   9.877
96095SOL    HW290125   0.968  14.390   9.736
96096SOL     OW90126   2.495   6.851  13.896
96096SOL    HW190127   2.483   6.932  13.946
96096SOL    HW290128   2.578   6.816  13.928
96097SOL     OW90129   3.394   5.409  14.015
96097SOL    HW190130   3.479   5.447  14.037
96097SOL    HW290131   3.409   5.314  14.019
96098SOL     OW90132   0.546   4.816   8.545
96098SOL    HW190133   0.584   4.874   8.611
96098SOL    HW290134   0.451   4.823   8.559
96099SOL     OW90135  12.784   3.205   6.131
96099SOL    HW190136  12.771   3.279   6.191
96099SOL    HW290137  12.870   3.171   6.153
96100SOL     OW90138   7.870  12.790   8.597
96100SOL    HW190139   7.918  12.868   8.570
96100SOL    HW290140   7.798  12.823   8.651
96101SOL     OW90141   7.440  14.086   7.558
96101SOL    HW190142   7.521  14.046   7.524
96101SOL    HW290143   7.370  14.045   7.507
96102SOL     OW90144  11.916   1.747   0.749
96102SOL    HW190145  11.975   1.707   0.813
96102SOL    HW290146  11.832   1.754   0.795
96103SOL     OW90147  11.953   4.625  10.889
96103SOL    HW190148  11.887   4.557  10.902
96103SOL    HW290149  12.002   4.627  10.970
96104SOL     OW90150   1.520  10.930   2.923
96104SOL    HW190151   1.613  10.916   2.907
96104SOL    HW290152   1.518  11.002   2.986
96105SOL     OW90153   7.908   3.017  14.323
96105SOL    HW190154   7.845   2.976  14.264
96105SOL    HW290155   7.883   3.109  14.324
96106SOL     OW90156  11.394   0.068   1.840
96106SOL    HW190157  11.379   0.041   1.749
96106SOL    HW290158  11.434   0.155   1.832
96107SOL     OW90159   6.069   7.766   9.454
96107SOL    HW190160   6.026   7.727   9.531
96107SOL    HW290161   6.011   7.744   9.381
96108SOL     OW90162   3.742   3.028   0.643
96108SOL    HW190163   3.728   2.991   0.730
96108SOL    HW290164   3.654   3.036   0.606
96109SOL     OW90165   0.804   7.545   9.357
96109SOL    HW190166   0.728   7.526   9.303
96109SOL    HW290167   0.872   7.486   9.326
96110SOL     OW90168   6.837   3.210   1.706
96110SOL    HW190169   6.919   3.193   1.659
96110SOL    HW290170   6.850   3.294   1.749
96111SOL     OW90171  13.106   4.253   5.418
96111SOL    HW190172  13.016   4.231   5.439
96111SOL    HW290173  13.158   4.187   5.464
96112SOL     OW90174  12.834   1.639  13.408
96112SOL    HW190175  12.889   1.716  13.394
96112SOL    HW290176  12.750   1.663  13.369
96113SOL     OW90177   7.413  11.282  12.155
96113SOL    HW190178   7.392  11.269  12.248
96113SOL    HW290179   7.338  11.244  12.109
96114SOL     OW90180   0.524  10.717  14.807
96114SOL    HW190181   0.529  10.687   0.018
96114SOL    HW290182   0.588  10.664  14.760
96115SOL     OW90183   7.515   1.028   7.632
96115SOL    HW190184   7.515   1.123   7.626
96115SOL    HW290185   7.607   1.003   7.631
96116SOL     OW90186   6.637   0.841   9.626
96116SOL    HW190187   6.618   0.779   9.556
96116SOL    HW290188   6.582   0.917   9.607
96117SOL     OW90189   4.667   9.106  13.204
96117SOL    HW190190   4.696   9.189  13.167
96117SOL    HW290191   4.716   9.098  13.287
96118SOL     OW90192   7.236  13.786   2.163
96118SOL    HW190193   7.149  13.750   2.181
96118SOL    HW290194   7.288  13.761   2.239
96119SOL     OW90195   7.722   8.277   9.794
96119SOL    HW190196   7.663   8.271   9.719
96119SOL    HW290197   7.672   8.240   9.867
96120SOL     OW90198   4.813   6.722   2.162
96120SOL    HW190199   4.791   6.665   2.236
96120SOL    HW290200   4.792   6.810   2.192
96121SOL     OW90201   4.846  11.430   0.184
96121SOL    HW190202   4.770  11.403   0.133
96121SOL    HW290203   4.809  11.482   0.255
96122SOL     OW90204  14.767   4.477  13.528
96122SOL    HW190205  14.681   4.499  13.492
96122SOL    HW290206  14.826   4.483  13.453
96123SOL     OW90207   4.600   2.200  10.857
96123SOL    HW190208   4.646   2.129  10.901
96123SOL    HW290209   4.538   2.156  10.798
96124SOL     OW90210   6.598   2.961   3.284
96124SOL    HW190211   6.654   2.883   3.278
96124SOL    HW290212   6.605   2.989   3.375
96125SOL     OW90213   4.002   5.923  10.062
96125SOL    HW190214   3.976   5.835  10.088
96125SOL    HW290215   4.054   5.911   9.983
96126SOL     OW90216  12.985  14.605   5.284
96126SOL    HW190217  13.036  14.595   5.204
96126SOL    HW290218  13.051  14.609   5.354
96127SOL     OW90219  12.124   3.548  12.410
96127SOL    HW190220  12.078   3.593  12.481
96127SOL    HW290221  12.168   3.617  12.361
96128SOL     OW90222   3.853   7.531  14.047
96128SOL    HW190223   3.865   7.581  14.127
96128SOL    HW290224   3.918   7.462  14.052
96129SOL     OW90225  11.189   3.554   9.623
96129SOL    HW190226  11.243   3.479   9.598
96129SOL    HW290227  11.199   3.562   9.718
96130SOL     OW90228   5.427   1.032   1.355
96130SOL    HW190229   5.394   0.998   1.273
96130SOL    HW290230   5.357   1.088   1.389
96131SOL     OW90231   4.410   8.833  10.548
96131SOL    HW190232   4.464   8.875  10.481
96131SOL    HW290233   4.332   8.887  10.555
96132SOL     OW90234   4.862   4.856   8.128
96132SOL    HW190235   4.873   4.871   8.222
96132SOL    HW290236   4.951   4.838   8.096
96133SOL     OW90237   9.972   1.606   0.550
96133SOL    HW190238   9.951   1.681   0.605
96133SOL    HW290239   9.890   1.583   0.506
96134SOL     OW90240  12.187   7.233   1.692
96134SOL    HW190241  12.279   7.243   1.671
96134SOL    HW290242  12.146   7.203   1.611
96135SOL     OW90243   0.799   4.101   2.272
96135SOL    HW190244   0.790   4.135   2.361
96135SOL    HW290245   0.889   4.120   2.247
96136SOL     OW90246  13.433   3.703  11.498
96136SOL    HW190247  13.510   3.706  11.555
96136SOL    HW290248  13.373   3.644  11.543
96137SOL     OW90249   6.521   3.823   3.084
96137SOL    HW190250   6.525   3.901   3.140
96137SOL    HW290251   6.544   3.856   2.997
96138SOL     OW90252  10.291   4.313  12.405
96138SOL    HW190253  10.242   4.288  12.327
96138SOL    HW290254  10.231   4.368  12.455
96139SOL     OW90255   9.259  13.844   9.065
96139SOL    HW190256   9.240  13.902   8.991
96139SOL    HW290257   9.336  13.794   9.037
96140SOL     OW90258   2.933   3.041   0.349
96140SOL    HW190259   2.911   2.950   0.329
96140SOL    HW290260   2.855   3.090   0.325
96141SOL     OW90261  10.120  12.880   9.347
96141SOL    HW190262  10.119  12.975   9.332
96141SOL    HW290263  10.179  12.868   9.421
96142SOL     OW90264   8.770   9.784  14.338
96142SOL    HW190265   8.767   9.715  14.273
96142SOL    HW290266   8.802   9.861  14.291
96143SOL     OW90267   3.435  11.824  11.186
96143SOL    HW190268   3.516  11.874  11.179
96143SOL    HW290269   3.428  11.803  11.279
96144SOL     OW90270  10.159   3.949   7.532
96144SOL    HW190271  10.166   4.026   7.475
96144SOL    HW290272  10.109   3.886   7.479
96145SOL     OW90273   7.723   4.770   4.411
96145SOL    HW190274   7.629   4.755   4.405
96145SOL    HW290275   7.731   4.864   4.429
96146SOL     OW90276   3.659   1.041   9.478
96146SOL    HW190277   3.593   0.980   9.509
96146SOL    HW290278   3.633   1.062   9.389
96147SOL     OW90279   7.317   3.185   9.836
96147SOL    HW190280   7.394   3.240   9.836
96147SOL    HW290281   7.243   3.246   9.835
96148SOL     OW90282   9.661  14.781   0.249
96148SOL    HW190283   9.713  14.752   0.325
96148SOL    HW290284   9.640  14.700   0.203
96149SOL     OW90285  13.611  10.562   1.814
96149SOL    HW190286  13.655  10.561   1.729
96149SOL    HW290287  13.533  10.508   1.801
96150SOL     OW90288  13.489   2.946  13.116
96150SOL    HW190289  13.495   2.907  13.028
96150SOL    HW290290  13.490   3.040  13.100
96151SOL     OW90291   4.355   6.551   8.380
96151SOL    HW190292   4.434   6.502   8.402
96151SOL    HW290293   4.367   6.637   8.420
96152SOL     OW90294  13.534   5.711   2.194
96152SOL    HW190295  13.447   5.697   2.234
96152SOL    HW290296  13.533   5.802   2.166
96153SOL     OW90297  11.920   9.987  12.131
96153SOL    HW190298  11.878  10.068  12.103
96153SOL    HW290299  11.943  10.002  12.222
96154SOL     OW90300   6.852   1.499  10.944
96154SOL    HW190301   6.941   1.476  10.972
96154SOL    HW290302   6.802   1.502  11.026
96155SOL     OW90303   5.892   6.475   1.113
96155SOL    HW190304   5.954   6.402   1.110
96155SOL    HW290305   5.868   6.491   1.022
96156SOL     OW90306   8.445   2.802  14.346
96156SOL    HW190307   8.520   2.851  14.314
96156SOL    HW290308   8.376   2.867  14.357
96157SOL     OW90309   1.109   2.877   9.692
96157SOL    HW190310   1.027   2.895   9.738
96157SOL    HW290311   1.144   2.799   9.736
96158SOL     OW90312   6.373  13.206  10.025
96158SOL    HW190313   6.343  13.127  10.069
96158SOL    HW290314   6.460  13.222  10.062
96159SOL     OW90315   2.405   8.370   5.537
96159SOL    HW190316   2.346   8.428   5.490
96159SOL    HW290317   2.348   8.313   5.589
96160SOL     OW90318  14.176   1.300   9.727
96160SOL    HW190319  14.137   1.231   9.672
96160SOL    HW290320  14.238   1.254   9.783
96161SOL     OW90321   0.637  10.858   8.731
96161SOL    HW190322   0.631  10.922   8.659
96161SOL    HW290323   0.587  10.783   8.700
96162SOL     OW90324   5.638  14.267   9.026
96162SOL    HW190325   5.613  14.193   9.081
96162SOL    HW290326   5.697  14.229   8.961
96163SOL     OW90327   1.838   6.931   9.781
96163SOL    HW190328   1.801   6.851   9.817
96163SOL    HW290329   1.925   6.905   9.750
96164SOL     OW90330  12.529   1.779  12.342
96164SOL    HW190331  12.624   1.784  12.330
96164SOL    HW290332  12.496   1.859  12.300
96165SOL     OW90333   8.278   2.730   0.438
96165SOL    HW190334   8.200   2.785   0.437
96165SOL    HW290335   8.332   2.765   0.366
96166SOL     OW90336   8.031  10.181  12.192
96166SOL    HW190337   8.072  10.258  12.229
96166SOL    HW290338   7.972  10.215  12.124
96167SOL     OW90339   4.906  12.434  11.165
96167SOL    HW190340   4.906  12.474  11.078
96167SOL    HW290341   4.885  12.342  11.148
96168SOL     OW90342   0.367  11.683  12.200
96168SOL    HW190343   0.406  11.596  12.196
96168SOL    HW290344   0.406  11.730  12.127
96169SOL     OW90345  11.930  11.181   1.290
96169SOL    HW190346  11.840  11.216   1.291
96169SOL    HW290347  11.981  11.248   1.336
96170SOL     OW90348   4.143   7.948  10.481
96170SOL    HW190349   4.085   8.022  10.501
96170SOL    HW290350   4.222   7.965  10.533
96171SOL     OW90351  13.707  14.077   6.260
96171SOL    HW190352  13.651  14.087   6.338
96171SOL    HW290353  13.791  14.050   6.294
96172SOL     OW90354   4.666  13.955  13.415
96172SOL    HW190355   4.602  13.914  13.472
96172SOL    HW290356   4.741  13.973  13.472
96173SOL     OW90357   9.471   8.246   5.311
96173SOL    HW190358   9.389   8.198   5.316
96173SOL    HW290359   9.446   8.335   5.285
96174SOL     OW90360   5.208   2.818   8.836
96174SOL    HW190361   5.270   2.886   8.810
96174SOL    HW290362   5.244   2.737   8.800
96175SOL     OW90363   8.978   1.314   6.452
96175SOL    HW190364   8.931   1.298   6.534
96175SOL    HW290365   8.926   1.382   6.408
96176SOL     OW90366   1.277   0.423   7.922
96176SOL    HW190367   1.318   0.496   7.876
96176SOL    HW290368   1.248   0.364   7.852
96177SOL     OW90369   6.385   5.259  11.995
96177SOL    HW190370   6.455   5.204  11.959
96177SOL    HW290371   6.400   5.258  12.090
96178SOL     OW90372  11.569   6.743   9.438
96178SOL    HW190373  11.650   6.739   9.488
96178SOL    HW290374  11.517   6.811   9.482
96179SOL     OW90375   8.156  11.851   5.572
96179SOL    HW190376   8.149  11.946   5.571
96179SOL    HW290377   8.117  11.824   5.655
96180SOL     OW90378   8.675   0.781  12.552
96180SOL    HW190379   8.769   0.782  12.568
96180SOL    HW290380   8.654   0.688  12.539
96181SOL     OW90381   4.070  10.888   0.170
96181SOL    HW190382   4.005  10.934   0.116
96181SOL    HW290383   4.018  10.837   0.232
96182SOL     OW90384   8.128  11.992   5.028
96182SOL    HW190385   8.138  11.899   5.048
96182SOL    HW290386   8.153  12.036   5.109
96183SOL     OW90387   8.436   2.527   7.308
96183SOL    HW190388   8.420   2.487   7.222
96183SOL    HW290389   8.512   2.583   7.294
96184SOL     OW90390   4.659   6.147   3.306
96184SOL    HW190391   4.714   6.071   3.288
96184SOL    HW290392   4.711   6.201   3.365
96185SOL     OW90393   3.580  14.217   0.275
96185SOL    HW190394   3.625  14.177   0.200
96185SOL    HW290395   3.503  14.162   0.289
96186SOL     OW90396   3.015  13.430  12.573
96186SOL    HW190397   3.089  13.487  12.555
96186SOL    HW290398   2.989  13.397  12.487
96187SOL     OW90399   3.635  12.532   0.414
96187SOL    HW190400   3.551  12.571   0.436
96187SOL    HW290401   3.673  12.591   0.349
96188SOL     OW90402   9.780   8.706   2.769
96188SOL    HW190403   9.868   8.678   2.795
96188SOL    HW290404   9.739   8.626   2.736
96189SOL     OW90405   1.932   2.609   8.536
96189SOL    HW190406   1.909   2.549   8.607
96189SOL    HW290407   2.025   2.592   8.519
96190SOL     OW90408   6.550   5.453  10.157
96190SOL    HW190409   6.487   5.396  10.114
96190SOL    HW290410   6.561   5.527  10.096
96191SOL     OW90411   4.585   5.625  12.961
96191SOL    HW190412   4.652   5.649  13.025
96191SOL    HW290413   4.633   5.610  12.880
96192SOL     OW90414   1.402  11.068   7.506
96192SOL    HW190415   1.319  11.022   7.515
96192SOL    HW290416   1.466  11.000   7.485
96193SOL     OW90417   6.022   3.568   2.843
96193SOL    HW190418   5.957   3.535   2.904
96193SOL    HW290419   5.993   3.657   2.822
96194SOL     OW90420   0.102   7.276   5.227
96194SOL    HW190421   0.053   7.355   5.204
96194SOL    HW290422   0.113   7.230   5.144
96195SOL     OW90423   5.111  13.702   2.255
96195SOL    HW190424   5.055  13.771   2.221
96195SOL    HW290425   5.198  13.722   2.219
96196SOL     OW90426  11.759  11.878  10.717
96196SOL    HW190427  11.781  11.968  10.693
96196SOL    HW290428  11.800  11.824  10.650
96197SOL     OW90429  10.114   4.962  11.158
96197SOL    HW190430  10.166   4.943  11.081
96197SOL    HW290431  10.049   4.891  11.162
96198SOL     OW90432  12.942   4.782   2.240
96198SOL    HW190433  12.876   4.819   2.299
96198SOL    HW290434  13.026   4.811   2.277
96199SOL     OW90435  12.742   8.940   3.583
96199SOL    HW190436  12.798   8.934   3.661
96199SOL    HW290437  12.671   8.878   3.600
96200SOL     OW90438   0.938  13.913   9.856
96200SOL    HW190439   0.989  13.932   9.777
96200SOL    HW290440   0.847  13.918   9.827
96201SOL     OW90441   6.784  13.067  11.517
96201SOL    HW190442   6.810  13.125  11.445
96201SOL    HW290443   6.745  13.127  11.582
96202SOL     OW90444   8.641  14.335  10.316
96202SOL    HW190445   8.630  14.246  10.281
96202SOL    HW290446   8.673  14.386  10.242
96203SOL     OW90447   4.093   3.031   6.703
96203SOL    HW190448   4.036   2.957   6.723
96203SOL    HW290449   4.146   3.043   6.782
96204SOL     OW90450   3.631   4.546   8.930
96204SOL    HW190451   3.663   4.636   8.918
96204SOL    HW290452   3.626   4.510   8.842
96205SOL     OW90453  11.794   0.748   0.769
96205SOL    HW190454  11.785   0.662   0.730
96205SOL    HW290455  11.705   0.783   0.771
96206SOL     OW90456  13.370   7.556  10.575
96206SOL    HW190457  13.422   7.509  10.510
96206SOL    HW290458  13.345   7.638  10.532
96207SOL     OW90459  12.971   9.062   0.920
96207SOL    HW190460  12.884   9.101   0.921
96207SOL    HW290461  12.998   9.064   1.012
96208SOL     OW90462  13.615  10.538   0.644
96208SOL    HW190463  13.609  10.610   0.581
96208SOL    HW290464  13.650  10.464   0.593
96209SOL     OW90465   9.106   5.881  13.799
96209SOL    HW190466   9.080   5.895  13.890
96209SOL    HW290467   9.184   5.936  13.788
96210SOL     OW90468   6.261  10.049  13.127
96210SOL    HW190469   6.249  10.123  13.068
96210SOL    HW290470   6.193   9.986  13.101
96211SOL     OW90471   4.256   7.181   1.016
96211SOL    HW190472   4.311   7.235   0.959
96211SOL    HW290473   4.186   7.239   1.045
96212SOL     OW90474   7.643   6.230   3.526
96212SOL    HW190475   7.659   6.148   3.479
96212SOL    HW290476   7.607   6.289   3.460
96213SOL     OW90477  13.424   5.069   7.306
96213SOL    HW190478  13.404   5.135   7.239
96213SOL    HW290479  13.400   5.112   7.389
96214SOL     OW90480   0.874   8.685   8.926
96214SOL    HW190481   0.846   8.700   9.016
96214SOL    HW290482   0.907   8.595   8.927
96215SOL     OW90483   4.526   9.323   9.374
96215SOL    HW190484   4.588   9.392   9.350
96215SOL    HW290485   4.442   9.355   9.342
96216SOL     OW90486  14.209   0.971  10.893
96216SOL    HW190487  14.302   0.992  10.899
96216SOL    HW290488  14.165   1.046  10.933
96217SOL     OW90489  14.715  11.927   8.048
96217SOL    HW190490  14.666  11.876   8.112
96217SOL    HW290491  14.745  12.004   8.097
96218SOL     OW90492   6.783   2.968  10.144
96218SOL    HW190493   6.867   2.993  10.107
96218SOL    HW290494   6.733   3.049  10.149
96219SOL     OW90495  10.792   4.677   1.331
96219SOL    HW190496  10.700   4.703   1.319
96219SOL    HW290497  10.840   4.759   1.335
96220SOL     OW90498   9.169   1.871   8.781
96220SOL    HW190499   9.173   1.966   8.791
96220SOL    HW290500   9.259   1.845   8.758
96221SOL     OW90501   7.323   4.329  12.699
96221SOL    HW190502   7.413   4.299  12.712
96221SOL    HW290503   7.311   4.326  12.604
96222SOL     OW90504   7.348   6.353  10.063
96222SOL    HW190505   7.416   6.407  10.020
96222SOL    HW290506   7.277   6.349   9.999
96223SOL     OW90507   8.163   1.270   6.814
96223SOL    HW190508   8.119   1.186   6.808
96223SOL    HW290509   8.092   1.335   6.809
96224SOL     OW90510   8.979   2.824   3.730
96224SOL    HW190511   9.017   2.742   3.762
96224SOL    HW290512   8.937   2.801   3.648
96225SOL     OW90513  10.431   0.383  13.527
96225SOL    HW190514  10.445   0.441  13.602
96225SOL    HW290515  10.477   0.303  13.549
96226SOL     OW90516   7.757  11.995   1.005
96226SOL    HW190517   7.795  11.907   1.001
96226SOL    HW290518   7.757  12.025   0.914
96227SOL     OW90519   4.663  11.612   2.597
96227SOL    HW190520   4.739  11.582   2.546
96227SOL    HW290521   4.644  11.699   2.562
96228SOL     OW90522  14.702   3.717  12.849
96228SOL    HW190523  14.709   3.700  12.755
96228SOL    HW290524  14.778   3.674  12.887
96229SOL     OW90525   4.649  14.448   5.177
96229SOL    HW190526   4.613  14.485   5.257
96229SOL    HW290527   4.731  14.407   5.203
96230SOL     OW90528  10.909   1.710  11.740
96230SOL    HW190529  10.818   1.726  11.715
96230SOL    HW290530  10.916   1.615  11.748
96231SOL     OW90531   3.801   5.581   9.848
96231SOL    HW190532   3.829   5.664   9.810
96231SOL    HW290533   3.779   5.526   9.773
96232SOL     OW90534  12.037   4.348  14.459
96232SOL    HW190535  12.108   4.411  14.451
96232SOL    HW290536  11.985   4.380  14.533
96233SOL     OW90537  13.318  11.032  13.765
96233SOL    HW190538  13.308  11.125  13.788
96233SOL    HW290539  13.329  10.988  13.849
96234SOL     OW90540   0.618   0.776   1.756
96234SOL    HW190541   0.616   0.860   1.802
96234SOL    HW290542   0.526   0.750   1.750
96235SOL     OW90543   3.741   3.348   0.215
96235SOL    HW190544   3.698   3.274   0.259
96235SOL    HW290545   3.742   3.323   0.123
96236SOL     OW90546  14.711   6.625   5.382
96236SOL    HW190547  14.790   6.572   5.378
96236SOL    HW290548  14.743   6.715   5.390
96237SOL     OW90549   1.053  11.765   6.938
96237SOL    HW190550   1.026  11.771   6.846
96237SOL    HW290551   1.128  11.706   6.937
96238SOL     OW90552  14.383   1.492   5.449
96238SOL    HW190553  14.425   1.574   5.420
96238SOL    HW290554  14.397   1.431   5.377
96239SOL     OW90555   1.660  12.178  12.675
96239SOL    HW190556   1.565  12.163  12.681
96239SOL    HW290557   1.670  12.271  12.697
96240SOL     OW90558   0.024   4.464  10.077
96240SOL    HW190559   0.048   4.398  10.012
96240SOL    HW290560   0.052   4.425  10.161
96241SOL     OW90561   4.470   2.527   5.193
96241SOL    HW190562   4.409   2.505   5.123
96241SOL    HW290563   4.515   2.606   5.163
96242SOL     OW90564   5.843   6.038   7.124
96242SOL    HW190565   5.783   6.095   7.077
96242SOL    HW290566   5.828   6.058   7.216
96243SOL     OW90567   9.853   8.508   6.971
96243SOL    HW190568   9.869   8.506   6.876
96243SOL    HW290569   9.760   8.526   6.980
96244SOL     OW90570   2.476   0.113   1.013
96244SOL    HW190571   2.566   0.100   1.044
96244SOL    HW290572   2.432   0.158   1.086
96245SOL     OW90573  12.936   0.533   4.569
96245SOL    HW190574  12.949   0.439   4.562
96245SOL    HW290575  12.924   0.549   4.662
96246SOL     OW90576  13.036   7.207  10.091
96246SOL    HW190577  12.967   7.171  10.035
96246SOL    HW290578  13.053   7.138  10.155
96247SOL     OW90579   0.471   1.543   8.886
96247SOL    HW190580   0.511   1.581   8.964
96247SOL    HW290581   0.463   1.615   8.824
96248SOL     OW90582  10.022  12.396   5.096
96248SOL    HW190583  10.084  12.352   5.154
96248SOL    HW290584   9.946  12.413   5.151
96249SOL     OW90585  14.779   3.070   6.204
96249SOL    HW190586  14.805   3.136   6.140
96249SOL    HW290587  14.734   3.003   6.153
96250SOL     OW90588   3.949   8.544   7.433
96250SOL    HW190589   3.854   8.547   7.421
96250SOL    HW290590   3.961   8.523   7.526
96251SOL     OW90591   7.128   8.875   9.888
96251SOL    HW190592   7.083   8.936   9.830
96251SOL    HW290593   7.071   8.867   9.964
96252SOL     OW90594   6.221   8.545  13.305
96252SOL    HW190595   6.160   8.599  13.355
96252SOL    HW290596   6.256   8.484  13.370
96253SOL     OW90597   5.181   3.372  10.716
96253SOL    HW190598   5.138   3.431  10.779
96253SOL    HW290599   5.113   3.310  10.691
96254SOL     OW90600   4.512   1.256  10.737
96254SOL    HW190601   4.478   1.343  10.720
96254SOL    HW290602   4.460   1.198  10.680
96255SOL     OW90603   7.718   0.158   3.452
96255SOL    HW190604   7.697   0.251   3.455
96255SOL    HW290605   7.660   0.122   3.385
96256SOL     OW90606  14.875  10.524   3.207
96256SOL    HW190607  14.863  10.464   3.281
96256SOL    HW290608  14.806  10.500   3.145
96257SOL     OW90609   1.533   6.789   4.686
96257SOL    HW190610   1.492   6.707   4.712
96257SOL    HW290611   1.478   6.823   4.616
96258SOL     OW90612   3.771  13.716   5.605
96258SOL    HW190613   3.818  13.701   5.523
96258SOL    HW290614   3.805  13.800   5.637
96259SOL     OW90615   8.414  14.101   7.371
96259SOL    HW190616   8.347  14.129   7.309
96259SOL    HW290617   8.367  14.092   7.454
96260SOL     OW90618  11.284   0.713  11.007
96260SOL    HW190619  11.243   0.632  11.038
96260SOL    HW290620  11.298   0.699  10.914
96261SOL     OW90621  10.931   8.934   6.372
96261SOL    HW190622  10.861   8.894   6.321
96261SOL    HW290623  11.007   8.933   6.313
96262SOL     OW90624   7.806   1.075   2.867
96262SOL    HW190625   7.848   1.152   2.828
96262SOL    HW290626   7.867   1.003   2.849
96263SOL     OW90627  11.443  10.822   3.246
96263SOL    HW190628  11.371  10.859   3.296
96263SOL    HW290629  11.401  10.775   3.174
96264SOL     OW90630  13.696   4.598  12.939
96264SOL    HW190631  13.781   4.641  12.937
96264SOL    HW290632  13.640   4.659  12.988
96265SOL     OW90633  14.856   7.797   4.770
96265SOL    HW190634  14.829   7.754   4.851
96265SOL    HW290635   0.060   7.757   4.747
96266SOL     OW90636   8.721  12.616  13.196
96266SOL    HW190637   8.750  12.678  13.129
96266SOL    HW290638   8.754  12.651  13.278
96267SOL     OW90639   8.908   2.115   7.763
96267SOL    HW190640   8.989   2.070   7.740
96267SOL    HW290641   8.839   2.062   7.723
96268SOL     OW90642   5.330   9.162   6.263
96268SOL    HW190643   5.393   9.100   6.300
96268SOL    HW290644   5.360   9.248   6.292
96269SOL     OW90645   5.320  10.598   8.012
96269SOL    HW190646   5.282  10.666   7.957
96269SOL    HW290647   5.247  10.567   8.066
96270SOL     OW90648  11.022   1.990   6.097
96270SOL    HW190649  11.036   1.975   6.190
96270SOL    HW290650  11.042   1.907   6.055
96271SOL     OW90651  10.219   6.153   3.202
96271SOL    HW190652  10.308   6.121   3.217
96271SOL    HW290653  10.230   6.229   3.146
96272SOL     OW90654   3.623  12.928   2.584
96272SOL    HW190655   3.558  12.979   2.535
96272SOL    HW290656   3.611  12.956   2.675
96273SOL     OW90657   1.790   0.913   5.068
96273SOL    HW190658   1.753   0.997   5.095
96273SOL    HW290659   1.748   0.895   4.984
96274SOL     OW90660   8.310   9.318   1.654
96274SOL    HW190661   8.376   9.324   1.723
96274SOL    HW290662   8.226   9.331   1.699
96275SOL     OW90663   9.049   2.677   7.255
96275SOL    HW190664   9.088   2.667   7.342
96275SOL    HW290665   9.006   2.593   7.238
96276SOL     OW90666  12.995  14.503   3.144
96276SOL    HW190667  13.020  14.429   3.199
96276SOL    HW290668  12.902  14.516   3.163
96277SOL     OW90669  11.450   0.979   7.011
96277SOL    HW190670  11.387   1.051   7.009
96277SOL    HW290671  11.408   0.913   7.066
96278SOL     OW90672  10.224   4.424   2.574
96278SOL    HW190673  10.216   4.415   2.479
96278SOL    HW290674  10.239   4.334   2.605
96279SOL     OW90675  14.699  10.387  10.921
96279SOL    HW190676  14.606  10.403  10.938
96279SOL    HW290677  14.706  10.292  10.914
96280SOL     OW90678   5.322  10.300  12.907
96280SOL    HW190679   5.356  10.266  12.824
96280SOL    HW290680   5.228  10.286  12.903
96281SOL     OW90681  11.438   7.385   2.866
96281SOL    HW190682  11.479   7.446   2.927
96281SOL    HW290683  11.347   7.379   2.896
96282SOL     OW90684   8.168   5.648   3.438
96282SOL    HW190685   8.080   5.679   3.416
96282SOL    HW290686   8.162   5.553   3.433
96283SOL     OW90687  13.078  13.731  13.743
96283SOL    HW190688  13.142  13.665  13.771
96283SOL    HW290689  13.038  13.693  13.665
96284SOL     OW90690  11.319   6.652   1.527
96284SOL    HW190691  11.259   6.665   1.600
96284SOL    HW290692  11.342   6.741   1.498
96285SOL     OW90693   7.349   5.819  13.489
96285SOL    HW190694   7.318   5.909  13.478
96285SOL    HW290695   7.310   5.790  13.572
96286SOL     OW90696   2.827   8.577   9.276
96286SOL    HW190697   2.803   8.670   9.270
96286SOL    HW290698   2.784   8.536   9.201
96287SOL     OW90699   2.783   2.305   1.197
96287SOL    HW190700   2.750   2.227   1.241
96287SOL    HW290701   2.831   2.271   1.122
96288SOL     OW90702  11.355   8.632   4.137
96288SOL    HW190703  11.387   8.580   4.211
96288SOL    HW290704  11.424   8.697   4.121
96289SOL     OW90705   0.778   0.727  11.761
96289SOL    HW190706   0.783   0.813  11.719
96289SOL    HW290707   0.862   0.717  11.804
96290SOL     OW90708  10.444   2.929   3.529
96290SOL    HW190709  10.481   2.865   3.590
96290SOL    HW290710  10.350   2.929   3.550
96291SOL     OW90711   8.833  10.791   2.984
96291SOL    HW190712   8.781  10.728   2.935
96291SOL    HW290713   8.831  10.759   3.074
96292SOL     OW90714   9.475   1.103   0.630
96292SOL    HW190715   9.493   1.150   0.711
96292SOL    HW290716   9.533   1.144   0.565
96293SOL     OW90717   2.449  10.722  12.235
96293SOL    HW190718   2.515  10.757  12.174
96293SOL    HW290719   2.499  10.674  12.300
96294SOL     OW90720  10.660  10.941  10.173
96294SOL    HW190721  10.678  10.903  10.259
96294SOL    HW290722  10.708  11.024  10.172
96295SOL     OW90723   4.668   9.279  14.458
96295SOL    HW190724   4.757   9.248  14.438
96295SOL    HW290725   4.680   9.341  14.530
96296SOL     OW90726   7.418   8.630   1.179
96296SOL    HW190727   7.443   8.707   1.231
96296SOL    HW290728   7.502   8.587   1.160
96297SOL     OW90729   7.228   2.818   6.868
96297SOL    HW190730   7.256   2.739   6.822
96297SOL    HW290731   7.179   2.868   6.803
96298SOL     OW90732  10.104   8.064   6.732
96298SOL    HW190733  10.036   8.016   6.685
96298SOL    HW290734  10.148   8.115   6.664
96299SOL     OW90735  10.543  13.832   6.628
96299SOL    HW190736  10.508  13.916   6.602
96299SOL    HW290737  10.547  13.781   6.547
96300SOL     OW90738   1.392   9.121   2.417
96300SOL    HW190739   1.344   9.057   2.364
96300SOL    HW290740   1.476   9.080   2.434
96301SOL     OW90741   3.215   5.038  10.459
96301SOL    HW190742   3.299   5.083  10.456
96301SOL    HW290743   3.200   5.022  10.552
96302SOL     OW90744   0.350   4.894   3.941
96302SOL    HW190745   0.318   4.896   4.031
96302SOL    HW290746   0.274   4.917   3.888
96303SOL     OW90747   4.321   6.019   0.284
96303SOL    HW190748   4.351   6.083   0.219
96303SOL    HW290749   4.391   6.015   0.348
96304SOL     OW90750  14.732   6.909   2.720
96304SOL    HW190751  14.700   6.884   2.633
96304SOL    HW290752  14.737   6.826   2.768
96305SOL     OW90753   5.127   7.712   8.115
96305SOL    HW190754   5.126   7.644   8.048
96305SOL    HW290755   5.070   7.679   8.184
96306SOL     OW90756   2.394  13.172   3.266
96306SOL    HW190757   2.452  13.129   3.204
96306SOL    HW290758   2.306  13.147   3.239
96307SOL     OW90759   5.122   6.619  12.507
96307SOL    HW190760   5.151   6.540  12.552
96307SOL    HW290761   5.145   6.604  12.415
96308SOL     OW90762  14.078   4.461  10.146
96308SOL    HW190763  14.067   4.459  10.051
96308SOL    HW290764  14.172   4.474  10.159
96309SOL     OW90765   1.625   4.329  14.724
96309SOL    HW190766   1.547   4.273  14.724
96309SOL    HW290767   1.641   4.347  14.631
96310SOL     OW90768  10.086   2.792   0.794
96310SOL    HW190769  10.078   2.852   0.868
96310SOL    HW290770  10.156   2.830   0.740
96311SOL     OW90771   4.995  13.495   5.813
96311SOL    HW190772   5.048  13.518   5.890
96311SOL    HW290773   4.962  13.407   5.832
96312SOL     OW90774   2.848  10.113   0.155
96312SOL    HW190775   2.865  10.185   0.095
96312SOL    HW290776   2.772  10.141   0.205
96313SOL     OW90777  13.345  14.683   2.470
96313SOL    HW190778  13.412  14.633   2.516
96313SOL    HW290779  13.271  14.684   2.531
96314SOL     OW90780   9.413  14.101  11.714
96314SOL    HW190781   9.393  14.180  11.665
96314SOL    HW290782   9.369  14.031  11.665
96315SOL     OW90783   6.657  14.327  10.807
96315SOL    HW190784   6.600  14.369  10.872
96315SOL    HW290785   6.616  14.347  10.723
96316SOL     OW90786   9.751  11.384  13.550
96316SOL    HW190787   9.840  11.380  13.586
96316SOL    HW290788   9.700  11.429  13.618
96317SOL     OW90789  10.753   3.302   2.809
96317SOL    HW190790  10.815   3.348   2.753
96317SOL    HW290791  10.680   3.362   2.818
96318SOL     OW90792   6.630   5.718  13.319
96318SOL    HW190793   6.555   5.746  13.371
96318SOL    HW290794   6.620   5.623  13.310
96319SOL     OW90795   5.839   2.684  11.051
96319SOL    HW190796   5.770   2.618  11.042
96319SOL    HW290797   5.817   2.750  10.985
96320SOL     OW90798   2.386   1.133   8.687
96320SOL    HW190799   2.369   1.071   8.758
96320SOL    HW290800   2.365   1.218   8.725
96321SOL     OW90801  13.632   3.699   8.402
96321SOL    HW190802  13.613   3.605   8.394
96321SOL    HW290803  13.639   3.714   8.496
96322SOL     OW90804  12.598   5.567   6.917
96322SOL    HW190805  12.505   5.578   6.933
96322SOL    HW290806  12.610   5.473   6.903
96323SOL     OW90807   8.423  12.702   6.851
96323SOL    HW190808   8.377  12.762   6.792
96323SOL    HW290809   8.515  12.709   6.826
96324SOL     OW90810   3.058  11.905   7.395
96324SOL    HW190811   3.141  11.942   7.362
96324SOL    HW290812   3.077  11.882   7.486
96325SOL     OW90813   5.731  11.188   3.555
96325SOL    HW190814   5.677  11.214   3.629
96325SOL    HW290815   5.808  11.244   3.561
96326SOL     OW90816  10.895  14.462  14.286
96326SOL    HW190817  10.890  14.430  14.376
96326SOL    HW290818  10.955  14.536  14.290
96327SOL     OW90819   7.341   6.808  11.581
96327SOL    HW190820   7.362   6.732  11.635
96327SOL    HW290821   7.303   6.770  11.501
96328SOL     OW90822   1.892  12.044  12.078
96328SOL    HW190823   1.873  12.090  12.159
96328SOL    HW290824   1.923  11.958  12.105
96329SOL     OW90825   2.308  10.011  12.193
96329SOL    HW190826   2.230  10.063  12.214
96329SOL    HW290827   2.276   9.921  12.188
96330SOL     OW90828   9.648   6.760  11.162
96330SOL    HW190829   9.723   6.819  11.157
96330SOL    HW290830   9.577   6.815  11.196
96331SOL     OW90831   9.233   6.146   5.011
96331SOL    HW190832   9.181   6.092   4.952
96331SOL    HW290833   9.311   6.169   4.960
96332SOL     OW90834   9.543   4.195  13.417
96332SOL    HW190835   9.620   4.216  13.470
96332SOL    HW290836   9.515   4.280  13.382
96333SOL     OW90837  11.791   3.924   8.271
96333SOL    HW190838  11.751   3.838   8.254
96333SOL    HW290839  11.723   3.987   8.249
96334SOL     OW90840  11.352  14.200   3.381
96334SOL    HW190841  11.370  14.132   3.446
96334SOL    HW290842  11.367  14.157   3.297
96335SOL     OW90843   9.738   9.215  14.628
96335SOL    HW190844   9.665   9.156  14.649
96335SOL    HW290845   9.757   9.198  14.536
96336SOL     OW90846  12.728  14.525   0.957
96336SOL    HW190847  12.681  14.550   1.036
96336SOL    HW290848  12.661  14.486   0.901
96337SOL     OW90849  10.241  13.261  13.783
96337SOL    HW190850  10.213  13.187  13.728
96337SOL    HW290851  10.178  13.262  13.855
96338SOL     OW90852   7.827   7.181   0.684
96338SOL    HW190853   7.841   7.105   0.627
96338SOL    HW290854   7.733   7.200   0.675
96339SOL     OW90855   9.092  13.158  11.966
96339SOL    HW190856   9.142  13.149  12.047
96339SOL    HW290857   9.057  13.247  11.968
96340SOL     OW90858   4.258   2.106   3.812
96340SOL    HW190859   4.165   2.100   3.834
96340SOL    HW290860   4.297   2.149   3.888
96341SOL     OW90861   9.649  14.478   9.444
96341SOL    HW190862   9.719  14.511   9.499
96341SOL    HW290863   9.621  14.397   9.487
96342SOL     OW90864   8.176   3.013   7.836
96342SOL    HW190865   8.268   3.020   7.859
96342SOL    HW290866   8.176   2.967   7.751
96343SOL     OW90867  10.739  11.384   0.557
96343SOL    HW190868  10.741  11.355   0.466
96343SOL    HW290869  10.737  11.303   0.608
96344SOL     OW90870  13.291   2.671  12.737
96344SOL    HW190871  13.232   2.715  12.799
96344SOL    HW290872  13.371   2.723  12.740
96345SOL     OW90873  13.076   4.404   2.407
96345SOL    HW190874  13.090   4.309   2.411
96345SOL    HW290875  13.164   4.441   2.408
96346SOL     OW90876  13.264   3.675   2.629
96346SOL    HW190877  13.217   3.731   2.568
96346SOL    HW290878  13.267   3.590   2.586
96347SOL     OW90879   9.127   4.032   4.491
96347SOL    HW190880   9.033   4.051   4.487
96347SOL    HW290881   9.168   4.117   4.509
96348SOL     OW90882   9.063   8.392   5.983
96348SOL    HW190883   9.077   8.477   5.941
96348SOL    HW290884   9.150   8.357   5.998
96349SOL     OW90885  12.423  11.284  10.123
96349SOL    HW190886  12.414  11.250  10.212
96349SOL    HW290887  12.341  11.332  10.108
96350SOL     OW90888   6.721  11.364   7.303
96350SOL    HW190889   6.704  11.444   7.352
96350SOL    HW290890   6.658  11.366   7.231
96351SOL     OW90891   4.299   3.606   7.678
96351SOL    HW190892   4.341   3.689   7.702
96351SOL    HW290893   4.205   3.625   7.683
96352SOL     OW90894   0.733   0.017   2.126
96352SOL    HW190895   0.796  14.824   2.124
96352SOL    HW290896   0.702   0.025   2.036
96353SOL     OW90897  14.879   4.996  10.503
96353SOL    HW190898   0.050   4.920  10.534
96353SOL    HW290899  14.862   4.976  10.410
96354SOL     OW90900  14.482   1.414   1.738
96354SOL    HW190901  14.551   1.437   1.675
96354SOL    HW290902  14.403   1.403   1.685
96355SOL     OW90903   0.734  10.899   6.589
96355SOL    HW190904   0.680  10.967   6.548
96355SOL    HW290905   0.784  10.946   6.657
96356SOL     OW90906   9.157  10.599   5.626
96356SOL    HW190907   9.250  10.578   5.620
96356SOL    HW290908   9.145  10.634   5.715
96357SOL     OW90909   5.569   5.646  12.269
96357SOL    HW190910   5.644   5.687  12.313
96357SOL    HW290911   5.589   5.656  12.176
96358SOL     OW90912  10.836  12.526   0.039
96358SOL    HW190913  10.775  12.556  14.851
96358SOL    HW290914  10.919  12.568   0.017
96359SOL     OW90915   6.876   7.210  10.764
96359SOL    HW190916   6.954   7.158  10.785
96359SOL    HW290917   6.817   7.149  10.721
96360SOL     OW90918  13.182   3.202   7.879
96360SOL    HW190919  13.216   3.287   7.851
96360SOL    HW290920  13.256   3.159   7.921
96361SOL     OW90921   1.051   9.859  13.620
96361SOL    HW190922   0.988   9.801  13.577
96361SOL    HW290923   1.133   9.809  13.620
96362SOL     OW90924   1.696  12.090   9.438
96362SOL    HW190925   1.640  12.023   9.476
96362SOL    HW290926   1.680  12.168   9.492
96363SOL     OW90927   2.925   1.897   7.991
96363SOL    HW190928   3.012   1.859   8.002
96363SOL    HW290929   2.901   1.930   8.077
96364SOL     OW90930   1.283   1.412   3.556
96364SOL    HW190931   1.301   1.411   3.650
96364SOL    HW290932   1.369   1.402   3.515
96365SOL     OW90933   1.608   0.423   1.038
96365SOL    HW190934   1.629   0.472   0.959
96365SOL    HW290935   1.538   0.363   1.011
96366SOL     OW90936  11.066  12.462  11.760
96366SOL    HW190937  11.033  12.548  11.788
96366SOL    HW290938  11.015  12.400  11.812
96367SOL     OW90939   9.427  13.287   8.277
96367SOL    HW190940   9.433  13.358   8.341
96367SOL    HW290941   9.494  13.308   8.212
96368SOL     OW90942   2.744  11.031   9.718
96368SOL    HW190943   2.724  10.950   9.765
96368SOL    HW290944   2.703  11.019   9.632
96369SOL     OW90945   1.758   1.654  14.022
96369SOL    HW190946   1.752   1.580  13.963
96369SOL    HW290947   1.808   1.720  13.974
96370SOL     OW90948   1.705  11.430   0.218
96370SOL    HW190949   1.650  11.410   0.293
96370SOL    HW290950   1.720  11.524   0.223
96371SOL     OW90951   8.197  12.662   4.627
96371SOL    HW190952   8.175  12.697   4.541
96371SOL    HW290953   8.264  12.595   4.610
96372SOL     OW90954   3.090   2.986   0.888
96372SOL    HW190955   3.079   2.902   0.934
96372SOL    HW290956   3.132   3.043   0.952
96373SOL     OW90957  12.133   4.615   5.426
96373SOL    HW190958  12.136   4.666   5.345
96373SOL    HW290959  12.041   4.614   5.450
96374SOL     OW90960   5.864   4.569   2.237
96374SOL    HW190961   5.887   4.521   2.317
96374SOL    HW290962   5.880   4.661   2.259
96375SOL     OW90963   1.078   3.147   5.990
96375SOL    HW190964   1.096   3.069   6.042
96375SOL    HW290965   1.123   3.218   6.036
96376SOL     OW90966   6.377  12.097  11.914
96376SOL    HW190967   6.429  12.028  11.955
96376SOL    HW290968   6.323  12.050  11.850
96377SOL     OW90969  10.104  13.551   7.545
96377SOL    HW190970  10.119  13.550   7.451
96377SOL    HW290971  10.145  13.470   7.577
96378SOL     OW90972   7.672  14.440   4.561
96378SOL    HW190973   7.720  14.476   4.486
96378SOL    HW290974   7.724  14.365   4.589
96379SOL     OW90975   2.688   5.153   2.879
96379SOL    HW190976   2.690   5.064   2.843
96379SOL    HW290977   2.716   5.209   2.807
96380SOL     OW90978  13.066   8.619  12.699
96380SOL    HW190979  13.036   8.533  12.730
96380SOL    HW290980  12.990   8.658  12.658
96381SOL     OW90981  13.801  14.220   8.621
96381SOL    HW190982  13.830  14.151   8.561
96381SOL    HW290983  13.765  14.287   8.563
96382SOL     OW90984   3.675  12.928   5.612
96382SOL    HW190985   3.589  12.891   5.592
96382SOL    HW290986   3.665  13.022   5.601
96383SOL     OW90987   2.284   8.222   0.763
96383SOL    HW190988   2.308   8.193   0.851
96383SOL    HW290989   2.208   8.279   0.776
96384SOL     OW90990  12.971   7.189   2.582
96384SOL    HW190991  13.035   7.246   2.540
96384SOL    HW290992  12.999   7.184   2.674
96385SOL     OW90993   7.633   4.243  12.346
96385SOL    HW190994   7.671   4.157  12.329
96385SOL    HW290995   7.589   4.234  12.431
96386SOL     OW90996   6.613  12.753   8.792
96386SOL    HW190997   6.653  12.754   8.879
96386SOL    HW290998   6.670  12.810   8.740
96387SOL     OW90999   2.280  10.978  12.907
96387SOL    HW191000   2.318  11.025  12.832
96387SOL    HW291001   2.288  11.039  12.980
96388SOL     OW91002   7.587   7.452   0.073
96388SOL    HW191003   7.653   7.521   0.073
96388SOL    HW291004   7.510   7.493   0.112
96389SOL     OW91005   4.920   6.571  12.873
96389SOL    HW191006   4.833   6.533  12.864
96389SOL    HW291007   4.905   6.665  12.876
96390SOL     OW91008   4.840   7.609  14.497
96390SOL    HW191009   4.812   7.678  14.557
96390SOL    HW291010   4.933   7.597  14.516
96391SOL     OW91011   7.107   2.657  10.659
96391SOL    HW191012   7.120   2.573  10.704
96391SOL    HW291013   7.191   2.675  10.617
96392SOL     OW91014   8.159  13.749   4.802
96392SOL    HW191015   8.180  13.822   4.744
96392SOL    HW291016   8.159  13.672   4.745
96393SOL     OW91017  12.226   6.800  12.512
96393SOL    HW191018  12.139   6.760  12.524
96393SOL    HW291019  12.276   6.733  12.464
96394SOL     OW91020  13.399   1.430   3.392
96394SOL    HW191021  13.384   1.336   3.380
96394SOL    HW291022  13.357   1.471   3.317
96395SOL     OW91023  10.496  11.621   7.068
96395SOL    HW191024  10.543  11.539   7.080
96395SOL    HW291025  10.550  11.671   7.007
96396SOL     OW91026   8.497   8.761   9.794
96396SOL    HW191027   8.462   8.701   9.861
96396SOL    HW291028   8.465   8.847   9.821
96397SOL     OW91029  10.256  13.452   5.846
96397SOL    HW191030  10.174  13.502   5.852
96397SOL    HW291031  10.244  13.381   5.909
96398SOL     OW91032   0.351   9.549  14.078
96398SOL    HW191033   0.389   9.483  14.020
96398SOL    HW291034   0.274   9.506  14.115
96399SOL     OW91035   0.590   1.995   9.113
96399SOL    HW191036   0.618   1.997   9.022
96399SOL    HW291037   0.670   1.980   9.163
96400SOL     OW91038   6.060   6.434   3.866
96400SOL    HW191039   5.966   6.442   3.850
96400SOL    HW291040   6.070   6.348   3.907
96401SOL     OW91041   0.105   6.376   4.941
96401SOL    HW191042   0.024   6.425   4.932
96401SOL    HW291043   0.174   6.443   4.937
96402SOL     OW91044   1.613   9.626   8.999
96402SOL    HW191045   1.599   9.675   8.917
96402SOL    HW291046   1.654   9.544   8.971
96403SOL     OW91047  10.197  12.276   9.762
96403SOL    HW191048  10.149  12.205   9.805
96403SOL    HW291049  10.135  12.349   9.761
96404SOL     OW91050   0.519   9.640   7.410
96404SOL    HW191051   0.507   9.682   7.325
96404SOL    HW291052   0.564   9.558   7.389
96405SOL     OW91053   0.954   8.234   3.205
96405SOL    HW191054   0.970   8.146   3.238
96405SOL    HW291055   0.967   8.228   3.111
96406SOL     OW91056   6.665   0.695  12.382
96406SOL    HW191057   6.632   0.774  12.424
96406SOL    HW291058   6.707   0.646  12.453
96407SOL     OW91059   7.721   5.487  14.713
96407SOL    HW191060   7.747   5.538  14.636
96407SOL    HW291061   7.803   5.465  14.756
96408SOL     OW91062   5.120   7.945   9.852
96408SOL    HW191063   5.144   7.860   9.890
96408SOL    HW291064   5.145   8.009   9.918
96409SOL     OW91065  12.579   9.476  12.303
96409SOL    HW191066  12.586   9.463  12.398
96409SOL    HW291067  12.549   9.566  12.293
96410SOL     OW91068  11.766  10.679   2.204
96410SOL    HW191069  11.699  10.640   2.148
96410SOL    HW291070  11.796  10.756   2.155
96411SOL     OW91071   7.693   0.871   7.916
96411SOL    HW191072   7.722   0.885   7.825
96411SOL    HW291073   7.730   0.786   7.940
96412SOL     OW91074   4.926   5.201  14.228
96412SOL    HW191075   4.917   5.174  14.319
96412SOL    HW291076   4.888   5.129  14.177
96413SOL     OW91077   0.769   5.958   0.358
96413SOL    HW191078   0.814   5.891   0.410
96413SOL    HW291079   0.815   6.039   0.377
96414SOL     OW91080   6.689  10.239   8.394
96414SOL    HW191081   6.644  10.271   8.472
96414SOL    HW291082   6.620  10.229   8.328
96415SOL     OW91083   9.989   2.583   6.445
96415SOL    HW191084   9.996   2.567   6.539
96415SOL    HW291085   9.936   2.663   6.439
96416SOL     OW91086  11.559   7.038   2.709
96416SOL    HW191087  11.470   7.043   2.676
96416SOL    HW291088  11.607   6.989   2.642
96417SOL     OW91089  14.567   8.510   4.369
96417SOL    HW191090  14.493   8.570   4.357
96417SOL    HW291091  14.636   8.564   4.407
96418SOL     OW91092   8.957   3.609   1.873
96418SOL    HW191093   9.001   3.561   1.803
96418SOL    HW291094   9.010   3.688   1.884
96419SOL     OW91095  11.818   2.811   7.424
96419SOL    HW191096  11.739   2.863   7.413
96419SOL    HW291097  11.822   2.757   7.345
96420SOL     OW91098   7.907  11.525   8.638
96420SOL    HW191099   7.834  11.581   8.613
96420SOL    HW291100   7.873  11.474   8.712
96421SOL     OW91101   7.797   8.346   0.842
96421SOL    HW191102   7.885   8.378   0.860
96421SOL    HW291103   7.796   8.257   0.876
96422SOL     OW91104   9.157   8.532  12.153
96422SOL    HW191105   9.115   8.617  12.169
96422SOL    HW291106   9.244   8.554  12.120
96423SOL     OW91107   9.878   4.160   1.864
96423SOL    HW191108   9.847   4.173   1.953
96423SOL    HW291109   9.869   4.247   1.823
96424SOL     OW91110  11.849   4.703   3.313
96424SOL    HW191111  11.873   4.740   3.228
96424SOL    HW291112  11.907   4.748   3.375
96425SOL     OW91113  10.708   0.967   7.553
96425SOL    HW191114  10.652   0.987   7.478
96425SOL    HW291115  10.725   0.873   7.545
96426SOL     OW91116   1.156   0.664   8.076
96426SOL    HW191117   1.168   0.612   7.997
96426SOL    HW291118   1.143   0.600   8.146
96427SOL     OW91119   9.123   4.234   3.158
96427SOL    HW191120   9.183   4.241   3.083
96427SOL    HW291121   9.129   4.319   3.202
96428SOL     OW91122   5.995  10.315   0.051
96428SOL    HW191123   6.011  10.221   0.047
96428SOL    HW291124   6.011  10.339   0.142
96429SOL     OW91125   3.293   7.610   0.781
96429SOL    HW191126   3.321   7.572   0.864
96429SOL    HW291127   3.197   7.609   0.786
96430SOL     OW91128   9.401   0.031   3.106
96430SOL    HW191129   9.481   0.073   3.077
96430SOL    HW291130   9.331   0.081   3.064
96431SOL     OW91131   4.881   0.938   9.235
96431SOL    HW191132   4.968   0.932   9.274
96431SOL    HW291133   4.896   0.977   9.149
96432SOL     OW91134  13.434   4.404   9.067
96432SOL    HW191135  13.432   4.313   9.094
96432SOL    HW291136  13.496   4.407   8.994
96433SOL     OW91137   5.070  12.413  10.734
96433SOL    HW191138   5.134  12.485  10.731
96433SOL    HW291139   5.113  12.345  10.786
96434SOL     OW91140   6.065   2.560   2.176
96434SOL    HW191141   6.070   2.464   2.180
96434SOL    HW291142   6.138   2.590   2.229
96435SOL     OW91143   6.256   9.507  10.742
96435SOL    HW191144   6.184   9.568  10.727
96435SOL    HW291145   6.279   9.474  10.656
96436SOL     OW91146   5.826  14.009   5.146
96436SOL    HW191147   5.892  14.012   5.077
96436SOL    HW291148   5.820  13.916   5.169
96437SOL     OW91149   1.732   4.823   7.450
96437SOL    HW191150   1.727   4.852   7.542
96437SOL    HW291151   1.673   4.748   7.446
96438SOL     OW91152  12.729   1.607   5.674
96438SOL    HW191153  12.789   1.681   5.666
96438SOL    HW291154  12.645   1.647   5.694
96439SOL     OW91155   7.227   6.557   2.351
96439SOL    HW191156   7.236   6.633   2.293
96439SOL    HW291157   7.227   6.482   2.292
96440SOL     OW91158  10.967  11.554   6.241
96440SOL    HW191159  10.879  11.573   6.211
96440SOL    HW291160  11.019  11.630   6.216
96441SOL     OW91161  12.197   6.691   2.939
96441SOL    HW191162  12.273   6.744   2.918
96441SOL    HW291163  12.217   6.605   2.903
96442SOL     OW91164  13.383   6.113  10.709
96442SOL    HW191165  13.306   6.147  10.664
96442SOL    HW291166  13.375   6.146  10.799
96443SOL     OW91167   4.307  10.071  11.589
96443SOL    HW191168   4.344  10.002  11.533
96443SOL    HW291169   4.219  10.084  11.555
96444SOL     OW91170   3.056   4.082   0.110
96444SOL    HW191171   3.117   4.025   0.064
96444SOL    HW291172   3.111   4.135   0.168
96445SOL     OW91173   2.917   6.459  12.010
96445SOL    HW191174   2.979   6.487  11.943
96445SOL    HW291175   2.857   6.533  12.019
96446SOL     OW91176  13.076  10.119   0.042
96446SOL    HW191177  13.005  10.141   0.102
96446SOL    HW291178  13.036  10.057  14.860
96447SOL     OW91179  14.284   5.745   7.142
96447SOL    HW191180  14.262   5.788   7.059
96447SOL    HW291181  14.227   5.669   7.146
96448SOL     OW91182   7.865  13.766   9.394
96448SOL    HW191183   7.854  13.861   9.404
96448SOL    HW291184   7.897  13.754   9.305
96449SOL     OW91185   4.901  10.612  13.296
96449SOL    HW191186   4.817  10.582  13.331
96449SOL    HW291187   4.964  10.587  13.363
96450SOL     OW91188  12.597   2.732  11.044
96450SOL    HW191189  12.572   2.647  11.009
96450SOL    HW291190  12.533   2.749  11.114
96451SOL     OW91191   9.416   7.947  13.312
96451SOL    HW191192   9.448   8.032  13.283
96451SOL    HW291193   9.423   7.890  13.235
96452SOL     OW91194   5.861   5.862  10.138
96452SOL    HW191195   5.856   5.777  10.095
96452SOL    HW291196   5.949   5.863  10.178
96453SOL     OW91197   8.478  12.225   3.839
96453SOL    HW191198   8.486  12.237   3.934
96453SOL    HW291199   8.542  12.157   3.818
96454SOL     OW91200   9.687   5.719  13.691
96454SOL    HW191201   9.668   5.780  13.620
96454SOL    HW291202   9.740   5.770  13.753
96455SOL     OW91203   8.709  10.004   9.186
96455SOL    HW191204   8.767  10.071   9.222
96455SOL    HW291205   8.663  10.047   9.114
96456SOL     OW91206   8.573   3.485   1.795
96456SOL    HW191207   8.489   3.467   1.836
96456SOL    HW291208   8.564   3.452   1.705
96457SOL     OW91209   1.762  13.879  10.499
96457SOL    HW191210   1.674  13.913  10.515
96457SOL    HW291211   1.802  13.943  10.441
96458SOL     OW91212   7.934   7.877  13.069
96458SOL    HW191213   7.972   7.794  13.039
96458SOL    HW291214   7.856   7.850  13.119
96459SOL     OW91215   9.026  14.389   3.942
96459SOL    HW191216   9.027  14.314   3.882
96459SOL    HW291217   9.041  14.351   4.028
96460SOL     OW91218   7.899  12.447   5.164
96460SOL    HW191219   7.889  12.407   5.077
96460SOL    HW291220   7.820  12.500   5.175
96461SOL     OW91221   0.899  12.059  11.091
96461SOL    HW191222   0.895  11.978  11.141
96461SOL    HW291223   0.977  12.050  11.036
96462SOL     OW91224  10.300   8.672  11.783
96462SOL    HW191225  10.243   8.599  11.758
96462SOL    HW291226  10.307   8.665  11.878
96463SOL     OW91227   1.244   5.557   8.444
96463SOL    HW191228   1.273   5.524   8.359
96463SOL    HW291229   1.231   5.478   8.497
96464SOL     OW91230   1.294  11.356   5.504
96464SOL    HW191231   1.241  11.315   5.572
96464SOL    HW291232   1.361  11.405   5.552
96465SOL     OW91233   7.841   6.736   1.432
96465SOL    HW191234   7.871   6.725   1.522
96465SOL    HW291235   7.874   6.659   1.386
96466SOL     OW91236   1.671   0.380  14.576
96466SOL    HW191237   1.643   0.469  14.556
96466SOL    HW291238   1.609   0.349  14.642
96467SOL     OW91239  13.753  10.933   7.350
96467SOL    HW191240  13.660  10.927   7.372
96467SOL    HW291241  13.775  11.025   7.362
96468SOL     OW91242   9.366  13.784   3.793
96468SOL    HW191243   9.423  13.721   3.839
96468SOL    HW291244   9.277  13.755   3.814
96469SOL     OW91245   8.375   0.669   5.216
96469SOL    HW191246   8.322   0.737   5.258
96469SOL    HW291247   8.401   0.708   5.132
96470SOL     OW91248  13.492  12.805  12.786
96470SOL    HW191249  13.530  12.887  12.755
96470SOL    HW291250  13.432  12.778  12.716
96471SOL     OW91251  11.749  11.241   7.258
96471SOL    HW191252  11.689  11.279   7.194
96471SOL    HW291253  11.692  11.201   7.323
96472SOL     OW91254  14.189  12.240   8.326
96472SOL    HW191255  14.138  12.196   8.393
96472SOL    HW291256  14.246  12.300   8.375
96473SOL     OW91257   2.279   8.230  10.950
96473SOL    HW191258   2.319   8.293  11.009
96473SOL    HW291259   2.344   8.217  10.881
96474SOL     OW91260  12.761  11.000  11.096
96474SOL    HW191261  12.688  10.942  11.115
96474SOL    HW291262  12.825  10.944  11.050
96475SOL     OW91263   2.323  13.309   7.051
96475SOL    HW191264   2.310  13.275   6.962
96475SOL    HW291265   2.400  13.365   7.044
96476SOL     OW91266   4.438   3.277   0.600
96476SOL    HW191267   4.381   3.264   0.676
96476SOL    HW291268   4.510   3.215   0.612
96477SOL     OW91269   6.235   1.320   1.336
96477SOL    HW191270   6.142   1.340   1.345
96477SOL    HW291271   6.256   1.269   1.415
96478SOL     OW91272   3.568   4.240   0.082
96478SOL    HW191273   3.547   4.223   0.174
96478SOL    HW291274   3.581   4.335   0.078
96479SOL     OW91275  10.361   3.002   2.325
96479SOL    HW191276  10.281   2.949   2.321
96479SOL    HW291277  10.329   3.093   2.326
96480SOL     OW91278   7.506   9.851   7.811
96480SOL    HW191279   7.426   9.896   7.783
96480SOL    HW291280   7.537   9.806   7.732
96481SOL     OW91281  12.437   6.431   3.370
96481SOL    HW191282  12.366   6.437   3.307
96481SOL    HW291283  12.395   6.443   3.455
96482SOL     OW91284  13.320   3.806   9.692
96482SOL    HW191285  13.401   3.761   9.717
96482SOL    HW291286  13.260   3.735   9.670
96483SOL     OW91287   3.223   9.342   5.340
96483SOL    HW191288   3.268   9.259   5.328
96483SOL    HW291289   3.287   9.409   5.316
96484SOL     OW91290  14.400   9.554  10.786
96484SOL    HW191291  14.313   9.556  10.748
96484SOL    HW291292  14.392   9.495  10.861
96485SOL     OW91293   1.558   2.296   0.672
96485SOL    HW191294   1.600   2.368   0.719
96485SOL    HW291295   1.623   2.226   0.670
96486SOL     OW91296   4.438   0.096   1.020
96486SOL    HW191297   4.392   0.029   0.967
96486SOL    HW291298   4.370   0.132   1.076
96487SOL     OW91299  14.544   0.045  10.599
96487SOL    HW191300  14.483  14.853  10.618
96487SOL    HW291301  14.492   0.125  10.608
96488SOL     OW91302   9.444   0.868   8.621
96488SOL    HW191303   9.369   0.875   8.563
96488SOL    HW291304   9.406   0.864   8.709
96489SOL     OW91305   2.510   9.006  11.702
96489SOL    HW191306   2.531   9.089  11.745
96489SOL    HW291307   2.529   8.939  11.768
96490SOL     OW91308   1.901   0.873   3.112
96490SOL    HW191309   1.923   0.931   3.185
96490SOL    HW291310   1.922   0.924   3.034
96491SOL     OW91311   3.216   2.058  12.133
96491SOL    HW191312   3.252   2.145  12.112
96491SOL    HW291313   3.139   2.050  12.077
96492SOL     OW91314  13.566   6.391   0.263
96492SOL    HW191315  13.535   6.318   0.209
96492SOL    HW291316  13.522   6.379   0.347
96493SOL     OW91317  11.847  10.949   5.733
96493SOL    HW191318  11.939  10.923   5.726
96493SOL    HW291319  11.808  10.923   5.650
96494SOL     OW91320   7.230  10.886   6.025
96494SOL    HW191321   7.232  10.815   6.090
96494SOL    HW291322   7.266  10.848   5.946
96495SOL     OW91323  10.558   2.864  10.709
96495SOL    HW191324  10.473   2.827  10.730
96495SOL    HW291325  10.563   2.862  10.613
96496SOL     OW91326   2.545   1.213  14.135
96496SOL    HW191327   2.451   1.222  14.117
96496SOL    HW291328   2.588   1.264  14.066
96497SOL     OW91329   5.911   9.177   2.063
96497SOL    HW191330   5.907   9.250   2.001
96497SOL    HW291331   6.002   9.148   2.061
96498SOL     OW91332   8.102  11.348   2.792
96498SOL    HW191333   8.067  11.431   2.758
96498SOL    HW291334   8.026  11.304   2.831
96499SOL     OW91335   7.083   8.436   7.019
96499SOL    HW191336   7.172   8.431   7.054
96499SOL    HW291337   7.074   8.358   6.965
96500SOL     OW91338   1.814  13.460   5.884
96500SOL    HW191339   1.778  13.483   5.798
96500SOL    HW291340   1.742  13.417   5.929
96501SOL     OW91341  11.239   3.130   4.114
96501SOL    HW191342  11.324   3.152   4.075
96501SOL    HW291343  11.175   3.178   4.061
96502SOL     OW91344  10.736  11.421   1.522
96502SOL    HW191345  10.748  11.378   1.607
96502SOL    HW291346  10.680  11.496   1.541
96503SOL     OW91347   7.511  13.325  14.483
96503SOL    HW191348   7.572  13.342  14.412
96503SOL    HW291349   7.553  13.360  14.561
96504SOL     OW91350   0.344   9.568   5.100
96504SOL    HW191351   0.375   9.561   5.010
96504SOL    HW291352   0.286   9.644   5.099
96505SOL     OW91353  14.255   4.730   0.268
96505SOL    HW191354  14.307   4.650   0.273
96505SOL    HW291355  14.170   4.702   0.234
96506SOL     OW91356   0.287   4.785   4.909
96506SOL    HW191357   0.321   4.729   4.840
96506SOL    HW291358   0.237   4.852   4.862
96507SOL     OW91359   3.742   0.665   0.270
96507SOL    HW191360   3.826   0.630   0.301
96507SOL    HW291361   3.754   0.673   0.175
96508SOL     OW91362   5.396   5.685   6.340
96508SOL    HW191363   5.342   5.733   6.403
96508SOL    HW291364   5.432   5.612   6.390
96509SOL     OW91365   5.887   1.543   1.879
96509SOL    HW191366   5.875   1.548   1.784
96509SOL    HW291367   5.799   1.534   1.914
96510SOL     OW91368   0.389  10.268   2.161
96510SOL    HW191369   0.414  10.230   2.245
96510SOL    HW291370   0.348  10.351   2.183
96511SOL     OW91371   9.056  11.520   6.529
96511SOL    HW191372   8.985  11.481   6.478
96511SOL    HW291373   9.111  11.445   6.554
96512SOL     OW91374  12.817  13.956   7.635
96512SOL    HW191375  12.855  14.037   7.670
96512SOL    HW291376  12.723  13.963   7.655
96513SOL     OW91377   6.307  13.200   9.540
96513SOL    HW191378   6.301  13.241   9.454
96513SOL    HW291379   6.400  13.180   9.551
96514SOL     OW91380   0.608  12.888  12.295
96514SOL    HW191381   0.593  12.793  12.298
96514SOL    HW291382   0.662  12.906  12.373
96515SOL     OW91383   4.697  11.342   8.398
96515SOL    HW191384   4.756  11.294   8.455
96515SOL    HW291385   4.750  11.364   8.321
96516SOL     OW91386   4.081   9.890   8.069
96516SOL    HW191387   4.147   9.956   8.089
96516SOL    HW291388   4.043   9.919   7.986
96517SOL     OW91389   6.609   4.660  11.255
96517SOL    HW191390   6.550   4.734  11.268
96517SOL    HW291391   6.682   4.695  11.205
96518SOL     OW91392   2.742   4.393  13.427
96518SOL    HW191393   2.655   4.353  13.430
96518SOL    HW291394   2.789   4.353  13.501
96519SOL     OW91395   1.622  10.502   2.292
96519SOL    HW191396   1.657  10.465   2.210
96519SOL    HW291397   1.681  10.575   2.312
96520SOL     OW91398   7.295  13.851  13.362
96520SOL    HW191399   7.266  13.770  13.320
96520SOL    HW291400   7.280  13.919  13.297
96521SOL     OW91401   9.652  14.118   6.799
96521SOL    HW191402   9.702  14.179   6.744
96521SOL    HW291403   9.644  14.039   6.746
96522SOL     OW91404   7.350   3.652   9.515
96522SOL    HW191405   7.295   3.679   9.442
96522SOL    HW291406   7.391   3.570   9.486
96523SOL     OW91407  10.020   6.469   0.567
96523SOL    HW191408  10.108   6.505   0.582
96523SOL    HW291409  10.007   6.407   0.638
96524SOL     OW91410   9.815   0.702  11.163
96524SOL    HW191411   9.838   0.653  11.084
96524SOL    HW291412   9.899   0.728  11.200
96525SOL     OW91413   7.317  11.902   5.968
96525SOL    HW191414   7.267  11.886   5.888
96525SOL    HW291415   7.366  11.820   5.982
96526SOL     OW91416  12.821   1.520   4.878
96526SOL    HW191417  12.736   1.486   4.906
96526SOL    HW291418  12.883   1.453   4.904
96527SOL     OW91419  11.441   7.648   9.650
96527SOL    HW191420  11.421   7.739   9.631
96527SOL    HW291421  11.368   7.599   9.611
96528SOL     OW91422   4.990   1.607   5.849
96528SOL    HW191423   5.079   1.643   5.850
96528SOL    HW291424   4.988   1.548   5.925
96529SOL     OW91425   3.230  11.888   6.744
96529SOL    HW191426   3.267  11.859   6.828
96529SOL    HW291427   3.293  11.951   6.711
96530SOL     OW91428   8.546   9.235  10.510
96530SOL    HW191429   8.574   9.318  10.548
96530SOL    HW291430   8.605   9.170  10.550
96531SOL     OW91431   6.918   6.503  12.334
96531SOL    HW191432   6.950   6.476  12.419
96531SOL    HW291433   6.991   6.487  12.274
96532SOL     OW91434  10.979   4.741  10.014
96532SOL    HW191435  10.904   4.692   9.981
96532SOL    HW291436  10.962   4.831   9.989
96533SOL     OW91437   3.062   4.320   3.405
96533SOL    HW191438   3.086   4.394   3.461
96533SOL    HW291439   3.130   4.317   3.338
96534SOL     OW91440  14.616  13.562  13.704
96534SOL    HW191441  14.524  13.583  13.721
96534SOL    HW291442  14.646  13.631  13.645
96535SOL     OW91443   5.354  10.186   5.110
96535SOL    HW191444   5.431  10.240   5.128
96535SOL    HW291445   5.308  10.180   5.193
96536SOL     OW91446   5.989  14.796  13.593
96536SOL    HW191447   6.011  14.754  13.677
96536SOL    HW291448   5.976  14.722  13.533
96537SOL     OW91449   8.729  10.291   2.287
96537SOL    HW191450   8.808  10.322   2.243
96537SOL    HW291451   8.761  10.226   2.351
96538SOL     OW91452   1.690   6.043   3.820
96538SOL    HW191453   1.596   6.025   3.815
96538SOL    HW291454   1.699   6.133   3.789
96539SOL     OW91455  13.843  13.289   3.663
96539SOL    HW191456  13.771  13.317   3.719
96539SOL    HW291457  13.835  13.345   3.585
96540SOL     OW91458   0.599  10.686   6.752
96540SOL    HW191459   0.671  10.729   6.706
96540SOL    HW291460   0.525  10.691   6.691
96541SOL     OW91461   5.848  13.268  11.361
96541SOL    HW191462   5.825  13.265  11.268
96541SOL    HW291463   5.785  13.328  11.400
96542SOL     OW91464   6.090   0.838  13.686
96542SOL    HW191465   5.995   0.831  13.678
96542SOL    HW291466   6.115   0.767  13.745
96543SOL     OW91467   8.440  13.165   5.184
96543SOL    HW191468   8.512  13.125   5.135
96543SOL    HW291469   8.483  13.216   5.253
96544SOL     OW91470   2.880   9.948   0.658
96544SOL    HW191471   2.791   9.919   0.680
96544SOL    HW291472   2.880   9.955   0.563
96545SOL     OW91473   8.137   4.517   6.434
96545SOL    HW191474   8.220   4.489   6.396
96545SOL    HW291475   8.092   4.562   6.362
96546SOL     OW91476   6.961   0.296   3.334
96546SOL    HW191477   7.018   0.220   3.325
96546SOL    HW291478   6.875   0.266   3.305
96547SOL     OW91479  12.989   6.944  10.583
96547SOL    HW191480  12.988   7.005  10.657
96547SOL    HW291481  13.053   6.981  10.522
96548SOL     OW91482   6.902   2.263  11.993
96548SOL    HW191483   6.891   2.269  11.898
96548SOL    HW291484   6.963   2.335  12.014
96549SOL     OW91485  14.319  13.508   7.497
96549SOL    HW191486  14.259  13.526   7.570
96549SOL    HW291487  14.394  13.565   7.513
96550SOL     OW91488   0.373   8.507  12.868
96550SOL    HW191489   0.337   8.468  12.788
96550SOL    HW291490   0.383   8.433  12.928
96551SOL     OW91491   9.433  10.642  10.317
96551SOL    HW191492   9.506  10.677  10.267
96551SOL    HW291493   9.448  10.547  10.319
96552SOL     OW91494  12.428   5.676  11.783
96552SOL    HW191495  12.488   5.736  11.739
96552SOL    HW291496  12.344   5.722  11.783
96553SOL     OW91497   8.038   4.357   6.788
96553SOL    HW191498   8.086   4.294   6.841
96553SOL    HW291499   8.024   4.312   6.705
96554SOL     OW91500  13.925   6.299   1.497
96554SOL    HW191501  13.904   6.332   1.584
96554SOL    HW291502  14.008   6.253   1.509
96555SOL     OW91503  10.895   4.917   7.700
96555SOL    HW191504  10.843   4.879   7.630
96555SOL    HW291505  10.986   4.907   7.670
96556SOL     OW91506   4.738  12.950  13.727
96556SOL    HW191507   4.665  12.913  13.777
96556SOL    HW291508   4.713  13.040  13.710
96557SOL     OW91509  10.072   9.787   1.057
96557SOL    HW191510  10.020   9.867   1.049
96557SOL    HW291511  10.046   9.750   1.141
96558SOL     OW91512   9.162  10.500   0.676
96558SOL    HW191513   9.117  10.457   0.749
96558SOL    HW291514   9.255  10.486   0.694
96559SOL     OW91515   0.227   9.481   8.148
96559SOL    HW191516   0.310   9.529   8.144
96559SOL    HW291517   0.187   9.495   8.062
96560SOL     OW91518   7.895  11.503  10.215
96560SOL    HW191519   7.944  11.563  10.271
96560SOL    HW291520   7.929  11.520  10.127
96561SOL     OW91521   6.720   3.137   8.702
96561SOL    HW191522   6.730   3.229   8.724
96561SOL    HW291523   6.769   3.126   8.621
96562SOL     OW91524   7.185   2.183   0.526
96562SOL    HW191525   7.137   2.100   0.531
96562SOL    HW291526   7.239   2.184   0.604
96563SOL     OW91527   1.079   3.472   1.960
96563SOL    HW191528   1.010   3.537   1.973
96563SOL    HW291529   1.044   3.412   1.894
96564SOL     OW91530   5.103   5.539   1.891
96564SOL    HW191531   5.065   5.624   1.911
96564SOL    HW291532   5.035   5.476   1.913
96565SOL     OW91533  13.503   4.990   0.201
96565SOL    HW191534  13.531   4.990   0.109
96565SOL    HW291535  13.512   5.081   0.229
96566SOL     OW91536   5.706   9.197   1.291
96566SOL    HW191537   5.740   9.111   1.266
96566SOL    HW291538   5.617   9.200   1.256
96567SOL     OW91539  13.296   8.976   4.160
96567SOL    HW191540  13.311   8.891   4.118
96567SOL    HW291541  13.283   8.955   4.253
96568SOL     OW91542  13.925   0.753   0.336
96568SOL    HW191543  13.922   0.684   0.270
96568SOL    HW291544  14.014   0.789   0.328
96569SOL     OW91545   1.562   9.416   4.062
96569SOL    HW191546   1.606   9.400   3.978
96569SOL    HW291547   1.550   9.329   4.099
96570SOL     OW91548  13.520   9.085   6.564
96570SOL    HW191549  13.483   9.132   6.639
96570SOL    HW291550  13.544   9.154   6.502
96571SOL     OW91551   8.228   4.271  11.673
96571SOL    HW191552   8.207   4.339  11.608
96571SOL    HW291553   8.258   4.197  11.621
96572SOL     OW91554   0.799   8.590   9.418
96572SOL    HW191555   0.788   8.511   9.364
96572SOL    HW291556   0.719   8.594   9.470
96573SOL     OW91557  13.132   1.410  11.602
96573SOL    HW191558  13.169   1.476  11.660
96573SOL    HW291559  13.180   1.421  11.520
96574SOL     OW91560  11.157   2.939  13.281
96574SOL    HW191561  11.120   2.959  13.367
96574SOL    HW291562  11.182   3.025  13.245
96575SOL     OW91563   9.238   9.421  14.846
96575SOL    HW191564   9.167   9.484  14.858
96575SOL    HW291565   9.303   9.446   0.033
96576SOL     OW91566   6.869   0.615  12.186
96576SOL    HW191567   6.952   0.608  12.234
96576SOL    HW291568   6.805   0.641  12.253
96577SOL     OW91569   6.339   2.885   9.288
96577SOL    HW191570   6.367   2.943   9.218
96577SOL    HW291571   6.389   2.914   9.365
96578SOL     OW91572  11.610   8.293   7.420
96578SOL    HW191573  11.583   8.248   7.500
96578SOL    HW291574  11.685   8.346   7.446
96579SOL     OW91575  13.678   1.444   1.748
96579SOL    HW191576  13.662   1.538   1.754
96579SOL    HW291577  13.732   1.434   1.670
96580SOL     OW91578  12.916  11.158   5.990
96580SOL    HW191579  12.870  11.189   6.068
96580SOL    HW291580  12.999  11.123   6.023
96581SOL     OW91581   3.800  11.892   3.365
96581SOL    HW191582   3.744  11.846   3.429
96581SOL    HW291583   3.866  11.936   3.418
96582SOL     OW91584  11.869  13.343  13.880
96582SOL    HW191585  11.879  13.327  13.786
96582SOL    HW291586  11.774  13.341  13.895
96583SOL     OW91587  14.379  10.348  11.403
96583SOL    HW191588  14.369  10.431  11.357
96583SOL    HW291589  14.425  10.291  11.341
96584SOL     OW91590   5.683  14.473   5.775
96584SOL    HW191591   5.704  14.396   5.724
96584SOL    HW291592   5.706  14.547   5.718
96585SOL     OW91593  13.737   3.247   9.268
96585SOL    HW191594  13.829   3.225   9.252
96585SOL    HW291595  13.703   3.268   9.181
96586SOL     OW91596  12.742  10.099   6.652
96586SOL    HW191597  12.764  10.113   6.744
96586SOL    HW291598  12.720  10.186   6.618
96587SOL     OW91599   8.999   4.949   9.436
96587SOL    HW191600   8.936   5.021   9.442
96587SOL    HW291601   9.068   4.982   9.379
96588SOL     OW91602   1.459   9.403  12.454
96588SOL    HW191603   1.493   9.446  12.375
96588SOL    HW291604   1.373   9.371  12.429
96589SOL     OW91605  10.128   4.431   7.014
96589SOL    HW191606  10.104   4.339   7.003
96589SOL    HW291607  10.128   4.466   6.925
96590SOL     OW91608   8.681   1.963  14.681
96590SOL    HW191609   8.675   1.868  14.670
96590SOL    HW291610   8.590   1.993  14.674
96591SOL     OW91611  14.364   8.664   4.279
96591SOL    HW191612  14.404   8.731   4.224
96591SOL    HW291613  14.280   8.702   4.306
96592SOL     OW91614  14.451   0.701   7.459
96592SOL    HW191615  14.385   0.674   7.523
96592SOL    HW291616  14.499   0.620   7.439
96593SOL     OW91617  12.010   6.995   5.740
96593SOL    HW191618  12.103   7.003   5.761
96593SOL    HW291619  11.973   7.080   5.765
96594SOL     OW91620  11.240   9.921   8.888
96594SOL    HW191621  11.263   9.883   8.803
96594SOL    HW291622  11.161   9.874   8.915
96595SOL     OW91623   1.905   6.764  11.049
96595SOL    HW191624   1.942   6.681  11.079
96595SOL    HW291625   1.819   6.769  11.091
96596SOL     OW91626   5.103   0.128   6.356
96596SOL    HW191627   5.191   0.110   6.390
96596SOL    HW291628   5.056   0.045   6.366
96597SOL     OW91629   2.005  12.798   3.502
96597SOL    HW191630   1.922  12.767   3.537
96597SOL    HW291631   2.018  12.748   3.422
96598SOL     OW91632  11.463   8.718   1.205
96598SOL    HW191633  11.372   8.746   1.215
96598SOL    HW291634  11.477   8.656   1.276
96599SOL     OW91635  14.095   0.358   6.720
96599SOL    HW191636  14.060   0.293   6.658
96599SOL    HW291637  14.103   0.438   6.668
96600SOL     OW91638   3.259   6.489   5.902
96600SOL    HW191639   3.291   6.475   5.813
96600SOL    HW291640   3.302   6.570   5.931
96601SOL     OW91641   0.067   3.221   1.731
96601SOL    HW191642   0.069   3.282   1.657
96601SOL    HW291643   0.071   3.276   1.808
96602SOL     OW91644   6.395   3.317   3.131
96602SOL    HW191645   6.433   3.377   3.067
96602SOL    HW291646   6.470   3.286   3.183
96603SOL     OW91647   9.219   2.024  11.056
96603SOL    HW191648   9.187   2.034  10.967
96603SOL    HW291649   9.314   2.041  11.049
96604SOL     OW91650   9.746   5.928   6.488
96604SOL    HW191651   9.664   5.944   6.533
96604SOL    HW291652   9.759   6.004   6.432
96605SOL     OW91653   5.075   7.089   1.481
96605SOL    HW191654   5.164   7.068   1.453
96605SOL    HW291655   5.049   7.015   1.536
96606SOL     OW91656  14.138   5.969   9.593
96606SOL    HW191657  14.215   6.021   9.612
96606SOL    HW291658  14.077   6.030   9.550
96607SOL     OW91659   7.356   2.936   7.920
96607SOL    HW191660   7.271   2.973   7.942
96607SOL    HW291661   7.346   2.842   7.933
96608SOL     OW91662   1.709  11.293  11.648
96608SOL    HW191663   1.666  11.366  11.693
96608SOL    HW291664   1.694  11.310  11.555
96609SOL     OW91665   4.974  10.416   4.456
96609SOL    HW191666   4.888  10.394   4.492
96609SOL    HW291667   5.036  10.399   4.527
96610SOL     OW91668   4.419   0.242   8.548
96610SOL    HW191669   4.353   0.175   8.564
96610SOL    HW291670   4.418   0.256   8.454
96611SOL     OW91671   0.245   4.366  10.268
96611SOL    HW191672   0.290   4.286  10.295
96611SOL    HW291673   0.285   4.389  10.184
96612SOL     OW91674  10.078   0.419   7.642
96612SOL    HW191675  10.142   0.378   7.584
96612SOL    HW291676  10.085   0.371   7.724
96613SOL     OW91677   4.467   8.470   1.953
96613SOL    HW191678   4.489   8.380   1.928
96613SOL    HW291679   4.455   8.467   2.048
96614SOL     OW91680   5.538  12.086   6.832
96614SOL    HW191681   5.633  12.098   6.837
96614SOL    HW291682   5.526  12.002   6.789
96615SOL     OW91683  14.851   1.252   1.122
96615SOL    HW191684   0.014   1.282   1.041
96615SOL    HW291685   0.041   1.255   1.188
96616SOL     OW91686   2.238   5.598   0.027
96616SOL    HW191687   2.152   5.596  14.865
96616SOL    HW291688   2.233   5.534   0.098
96617SOL     OW91689   3.033  11.316  14.302
96617SOL    HW191690   3.021  11.309  14.397
96617SOL    HW291691   3.057  11.408  14.287
96618SOL     OW91692   0.941   5.775   8.530
96618SOL    HW191693   0.999   5.851   8.536
96618SOL    HW291694   0.891   5.790   8.450
96619SOL     OW91695   5.974   8.301   7.545
96619SOL    HW191696   5.896   8.356   7.543
96619SOL    HW291697   5.948   8.220   7.500
96620SOL     OW91698   0.759   1.389  12.946
96620SOL    HW191699   0.771   1.361  13.036
96620SOL    HW291700   0.689   1.333  12.912
96621SOL     OW91701  10.040   5.878  13.592
96621SOL    HW191702  10.102   5.934  13.638
96621SOL    HW291703  10.072   5.789  13.606
96622SOL     OW91704   8.245  13.996  10.006
96622SOL    HW191705   8.239  14.030  10.095
96622SOL    HW291706   8.217  13.904  10.014
96623SOL     OW91707   0.820   9.687   1.189
96623SOL    HW191708   0.726   9.670   1.183
96623SOL    HW291709   0.827   9.765   1.244
96624SOL     OW91710   9.270   0.572  10.030
96624SOL    HW191711   9.227   0.525  10.101
96624SOL    HW291712   9.200   0.620   9.986
96625SOL     OW91713   3.114  12.137   1.147
96625SOL    HW191714   3.021  12.140   1.170
96625SOL    HW291715   3.129  12.045   1.124
96626SOL     OW91716  13.961   8.293  13.993
96626SOL    HW191717  13.914   8.215  14.019
96626SOL    HW291718  14.051   8.263  13.979
96627SOL     OW91719  10.347  10.277   0.779
96627SOL    HW191720  10.373  10.343   0.842
96627SOL    HW291721  10.398  10.199   0.803
96628SOL     OW91722   7.763   1.603  11.996
96628SOL    HW191723   7.778   1.596  12.090
96628SOL    HW291724   7.699   1.535  11.976
96629SOL     OW91725   9.452   0.072  11.106
96629SOL    HW191726   9.501   0.141  11.151
96629SOL    HW291727   9.417   0.018  11.177
96630SOL     OW91728  13.506  12.153   4.333
96630SOL    HW191729  13.564  12.165   4.408
96630SOL    HW291730  13.450  12.231   4.333
96631SOL     OW91731   0.334   8.441   0.781
96631SOL    HW191732   0.359   8.513   0.722
96631SOL    HW291733   0.374   8.363   0.741
96632SOL     OW91734   6.218   3.837   2.239
96632SOL    HW191735   6.278   3.911   2.240
96632SOL    HW291736   6.195   3.823   2.331
96633SOL     OW91737   5.206   4.177   7.975
96633SOL    HW191738   5.248   4.092   7.988
96633SOL    HW291739   5.276   4.234   7.941
96634SOL     OW91740   5.651  10.973   3.016
96634SOL    HW191741   5.713  10.924   3.070
96634SOL    HW291742   5.565  10.954   3.054
96635SOL     OW91743   2.823  14.146   1.385
96635SOL    HW191744   2.859  14.225   1.428
96635SOL    HW291745   2.729  14.163   1.379
96636SOL     OW91746  14.066   1.039  14.008
96636SOL    HW191747  14.005   0.967  13.992
96636SOL    HW291748  14.064   1.090  13.927
96637SOL     OW91749  12.536  13.908   3.288
96637SOL    HW191750  12.535  13.993   3.243
96637SOL    HW291751  12.452  13.868   3.264
96638SOL     OW91752   1.141   3.671   9.035
96638SOL    HW191753   1.078   3.639   9.099
96638SOL    HW291754   1.128   3.766   9.035
96639SOL     OW91755   2.523   1.948   4.279
96639SOL    HW191756   2.450   1.920   4.224
96639SOL    HW291757   2.489   2.024   4.327
96640SOL     OW91758  12.215   7.149  14.263
96640SOL    HW191759  12.276   7.111  14.200
96640SOL    HW291760  12.166   7.074  14.297
96641SOL     OW91761   8.612  10.388   0.167
96641SOL    HW191762   8.557  10.428   0.100
96641SOL    HW291763   8.698  10.378   0.125
96642SOL     OW91764  10.033  14.578  10.211
96642SOL    HW191765   9.959  14.622  10.253
96642SOL    HW291766  10.110  14.619  10.250
96643SOL     OW91767   3.648   6.710  10.031
96643SOL    HW191768   3.683   6.621  10.042
96643SOL    HW291769   3.616   6.712   9.941
96644SOL     OW91770  13.576   2.687  10.770
96644SOL    HW191771  13.628   2.755  10.728
96644SOL    HW291772  13.527   2.646  10.699
96645SOL     OW91773  11.596   8.910   8.936
96645SOL    HW191774  11.558   8.888   8.851
96645SOL    HW291775  11.661   8.841   8.951
96646SOL     OW91776   3.048   3.463  13.428
96646SOL    HW191777   2.989   3.427  13.494
96646SOL    HW291778   3.052   3.396  13.360
96647SOL     OW91779   8.204   7.892  11.521
96647SOL    HW191780   8.146   7.828  11.564
96647SOL    HW291781   8.249   7.841  11.453
96648SOL     OW91782   3.803   0.704   4.607
96648SOL    HW191783   3.763   0.778   4.561
96648SOL    HW291784   3.729   0.656   4.643
96649SOL     OW91785   8.533   3.394   3.018
96649SOL    HW191786   8.481   3.338   3.076
96649SOL    HW291787   8.507   3.483   3.040
96650SOL     OW91788   3.989  13.755   3.574
96650SOL    HW191789   3.983  13.667   3.537
96650SOL    HW291790   4.080  13.781   3.562
96651SOL     OW91791   2.251   9.886   2.261
96651SOL    HW191792   2.312   9.876   2.188
96651SOL    HW291793   2.237   9.798   2.294
96652SOL     OW91794  10.936  10.642   0.066
96652SOL    HW191795  10.941  10.719   0.122
96652SOL    HW291796  10.976  10.670  14.862
96653SOL     OW91797   8.611  11.191  13.301
96653SOL    HW191798   8.678  11.179  13.368
96653SOL    HW291799   8.575  11.278  13.318
96654SOL     OW91800  12.185   7.247   2.986
96654SOL    HW191801  12.152   7.274   2.900
96654SOL    HW291802  12.133   7.298   3.048
96655SOL     OW91803   9.188  12.488   1.122
96655SOL    HW191804   9.192  12.580   1.099
96655SOL    HW291805   9.227  12.483   1.209
96656SOL     OW91806   8.570   6.057  13.379
96656SOL    HW191807   8.648   6.094  13.421
96656SOL    HW291808   8.532   6.001  13.447
96657SOL     OW91809  13.125   2.048   6.566
96657SOL    HW191810  13.030   2.062   6.568
96657SOL    HW291811  13.142   2.012   6.479
96658SOL     OW91812   7.332  12.440   5.610
96658SOL    HW191813   7.394  12.478   5.548
96658SOL    HW291814   7.255  12.497   5.605
96659SOL     OW91815   8.775   2.464   1.150
96659SOL    HW191816   8.704   2.510   1.194
96659SOL    HW291817   8.810   2.528   1.088
96660SOL     OW91818   0.595   2.950   6.832
96660SOL    HW191819   0.611   2.890   6.904
96660SOL    HW291820   0.683   2.972   6.800
96661SOL     OW91821   2.672   2.719   5.725
96661SOL    HW191822   2.600   2.777   5.701
96661SOL    HW291823   2.720   2.705   5.643
96662SOL     OW91824  11.079  13.257  12.256
96662SOL    HW191825  11.091  13.307  12.175
96662SOL    HW291826  11.096  13.321  12.326
96663SOL     OW91827   0.054  10.581   8.479
96663SOL    HW191828   0.071  10.488   8.464
96663SOL    HW291829  14.868  10.604   8.414
96664SOL     OW91830   0.186   6.052   1.290
96664SOL    HW191831   0.205   5.961   1.267
96664SOL    HW291832   0.094   6.064   1.269
96665SOL     OW91833  11.830   9.058   8.133
96665SOL    HW191834  11.891   9.056   8.059
96665SOL    HW291835  11.874   9.009   8.202
96666SOL     OW91836   5.587   8.432  11.102
96666SOL    HW191837   5.567   8.446  11.009
96666SOL    HW291838   5.659   8.491  11.120
96667SOL     OW91839   0.118   3.542   9.734
96667SOL    HW191840   0.043   3.600   9.721
96667SOL    HW291841   0.152   3.527   9.645
96668SOL     OW91842  14.011   2.590  11.947
96668SOL    HW191843  13.984   2.671  11.990
96668SOL    HW291844  14.105   2.599  11.934
96669SOL     OW91845   3.195  13.423   1.174
96669SOL    HW191846   3.251  13.361   1.219
96669SOL    HW291847   3.241  13.507   1.181
96670SOL     OW91848  14.861   9.427  11.186
96670SOL    HW191849  14.788   9.401  11.129
96670SOL    HW291850  14.864   9.359  11.253
96671SOL     OW91851   0.222   6.021   7.198
96671SOL    HW191852   0.149   5.959   7.206
96671SOL    HW291853   0.180   6.107   7.207
96672SOL     OW91854   0.224  11.696   1.097
96672SOL    HW191855   0.233  11.791   1.085
96672SOL    HW291856   0.160  11.670   1.031
96673SOL     OW91857  12.432   3.871   1.757
96673SOL    HW191858  12.519   3.834   1.741
96673SOL    HW291859  12.408   3.912   1.674
96674SOL     OW91860   5.385  13.920   5.409
96674SOL    HW191861   5.457  13.936   5.348
96674SOL    HW291862   5.412  13.963   5.490
96675SOL     OW91863  13.943  11.296  12.148
96675SOL    HW191864  13.918  11.208  12.174
96675SOL    HW291865  13.862  11.336  12.118
96676SOL     OW91866  11.721  13.988   4.785
96676SOL    HW191867  11.632  14.012   4.810
96676SOL    HW291868  11.762  14.071   4.758
96677SOL     OW91869   4.386   1.666   5.583
96677SOL    HW191870   4.306   1.719   5.576
96677SOL    HW291871   4.415   1.679   5.673
96678SOL     OW91872   7.411   0.286   5.942
96678SOL    HW191873   7.419   0.194   5.916
96678SOL    HW291874   7.317   0.303   5.939
96679SOL     OW91875   6.415   7.180   5.833
96679SOL    HW191876   6.338   7.236   5.838
96679SOL    HW291877   6.381   7.097   5.798
96680SOL     OW91878   8.058   9.714  14.349
96680SOL    HW191879   7.976   9.691  14.392
96680SOL    HW291880   8.106   9.632  14.344
96681SOL     OW91881   7.596   7.686  14.342
96681SOL    HW191882   7.534   7.614  14.341
96681SOL    HW291883   7.561   7.748  14.405
96682SOL     OW91884   3.895  12.068  11.258
96682SOL    HW191885   3.820  12.064  11.317
96682SOL    HW291886   3.909  12.162  11.244
96683SOL     OW91887  13.329   7.853   3.671
96683SOL    HW191888  13.376   7.774   3.643
96683SOL    HW291889  13.289   7.828   3.755
96684SOL     OW91890   4.592  11.337  11.991
96684SOL    HW191891   4.507  11.381  11.986
96684SOL    HW291892   4.652  11.405  12.022
96685SOL     OW91893  12.645   4.915  11.774
96685SOL    HW191894  12.557   4.930  11.740
96685SOL    HW291895  12.698   4.894  11.696
96686SOL     OW91896   9.625  12.252  12.771
96686SOL    HW191897   9.589  12.166  12.792
96686SOL    HW291898   9.623  12.300  12.854
96687SOL     OW91899   9.652   1.314   6.027
96687SOL    HW191900   9.558   1.312   6.011
96687SOL    HW291901   9.688   1.361   5.952
96688SOL     OW91902  12.850   9.698   6.474
96688SOL    HW191903  12.933   9.745   6.477
96688SOL    HW291904  12.786   9.760   6.509
96689SOL     OW91905   2.317  13.097   1.945
96689SOL    HW191906   2.267  13.176   1.924
96689SOL    HW291907   2.347  13.063   1.860
96690SOL     OW91908   1.666   6.922  13.562
96690SOL    HW191909   1.676   6.994  13.500
96690SOL    HW291910   1.727   6.942  13.633
96691SOL     OW91911   8.266  11.737   8.948
96691SOL    HW191912   8.323  11.806   8.914
96691SOL    HW291913   8.300  11.720   9.036
96692SOL     OW91914   1.297  10.612  10.945
96692SOL    HW191915   1.312  10.629  11.038
96692SOL    HW291916   1.243  10.685  10.915
96693SOL     OW91917  12.748  13.954   2.985
96693SOL    HW191918  12.794  13.903   3.052
96693SOL    HW291919  12.656  13.929   2.996
96694SOL     OW91920   4.516  11.119   4.013
96694SOL    HW191921   4.453  11.132   4.084
96694SOL    HW291922   4.487  11.039   3.970
96695SOL     OW91923  11.693  11.562  12.682
96695SOL    HW191924  11.714  11.585  12.591
96695SOL    HW291925  11.767  11.596  12.733
96696SOL     OW91926  14.188  10.549   2.596
96696SOL    HW191927  14.154  10.581   2.680
96696SOL    HW291928  14.132  10.591   2.530
96697SOL     OW91929  13.509   6.041   9.885
96697SOL    HW191930  13.571   6.059   9.814
96697SOL    HW291931  13.436   5.997   9.842
96698SOL     OW91932   0.557   0.290   6.752
96698SOL    HW191933   0.521   0.316   6.667
96698SOL    HW291934   0.562   0.194   6.748
96699SOL     OW91935   8.116  12.742   7.665
96699SOL    HW191936   8.204  12.738   7.630
96699SOL    HW291937   8.065  12.682   7.611
96700SOL     OW91938   0.631  14.635   2.612
96700SOL    HW191939   0.722  14.607   2.596
96700SOL    HW291940   0.637  14.689   2.691
96701SOL     OW91941  12.865   9.161   6.134
96701SOL    HW191942  12.938   9.131   6.080
96701SOL    HW291943  12.871   9.108   6.213
96702SOL     OW91944  14.466   5.860  13.461
96702SOL    HW191945  14.415   5.792  13.418
96702SOL    HW291946  14.444   5.941  13.415
96703SOL     OW91947   5.406   7.006  13.906
96703SOL    HW191948   5.325   7.003  13.957
96703SOL    HW291949   5.430   6.914  13.896
96704SOL     OW91950   1.375  10.294   6.570
96704SOL    HW191951   1.293  10.301   6.619
96704SOL    HW291952   1.410  10.383   6.570
96705SOL     OW91953  10.083  10.602  13.161
96705SOL    HW191954   9.993  10.580  13.183
96705SOL    HW291955  10.107  10.538  13.093
96706SOL     OW91956   1.515  14.737   0.718
96706SOL    HW191957   1.451  14.675   0.685
96706SOL    HW291958   1.516  14.723   0.813
96707SOL     OW91959   1.724   0.613   3.533
96707SOL    HW191960   1.800   0.638   3.482
96707SOL    HW291961   1.649   0.637   3.479
96708SOL     OW91962  10.705  12.081   6.534
96708SOL    HW191963  10.649  12.130   6.594
96708SOL    HW291964  10.646  12.054   6.464
96709SOL     OW91965   0.940   4.914   9.047
96709SOL    HW191966   0.850   4.895   9.022
96709SOL    HW291967   0.980   4.948   8.966
96710SOL     OW91968   5.903   3.176   4.508
96710SOL    HW191969   5.856   3.152   4.429
96710SOL    HW291970   5.860   3.256   4.539
96711SOL     OW91971  10.497  13.362  13.802
96711SOL    HW191972  10.411  13.321  13.810
96711SOL    HW291973  10.525  13.343  13.713
96712SOL     OW91974  10.196   6.921  12.541
96712SOL    HW191975  10.195   6.999  12.486
96712SOL    HW291976  10.109   6.920  12.582
96713SOL     OW91977   8.828  12.630   8.258
96713SOL    HW191978   8.810  12.666   8.345
96713SOL    HW291979   8.923  12.619   8.256
96714SOL     OW91980   9.902   9.319  12.393
96714SOL    HW191981   9.917   9.299  12.301
96714SOL    HW291982   9.856   9.242  12.427
96715SOL     OW91983   2.362  11.684  13.930
96715SOL    HW191984   2.389  11.775  13.940
96715SOL    HW291985   2.291  11.688  13.866
96716SOL     OW91986  12.260   7.294   1.263
96716SOL    HW191987  12.236   7.368   1.320
96716SOL    HW291988  12.176   7.255   1.238
96717SOL     OW91989   5.003   8.618   0.940
96717SOL    HW191990   4.914   8.586   0.953
96717SOL    HW291991   5.050   8.593   1.020
96718SOL     OW91992  11.347  14.685  13.109
96718SOL    HW191993  11.296  14.754  13.067
96718SOL    HW291994  11.308  14.674  13.195
96719SOL     OW91995  11.929  14.139   0.135
96719SOL    HW191996  11.963  14.194   0.206
96719SOL    HW291997  12.007  14.105   0.092
96720SOL     OW91998   6.096   4.681   9.364
96720SOL    HW191999   6.156   4.752   9.383
96720SOL    HW292000   6.152   4.606   9.344
96721SOL     OW92001   0.343   4.825   9.142
96721SOL    HW192002   0.260   4.808   9.186
96721SOL    HW292003   0.365   4.742   9.099
96722SOL     OW92004   7.271  11.860  12.192
96722SOL    HW192005   7.283  11.952  12.213
96722SOL    HW292006   7.213  11.826  12.260
96723SOL     OW92007   7.032   0.746   2.295
96723SOL    HW192008   7.056   0.810   2.228
96723SOL    HW292009   7.005   0.669   2.245
96724SOL     OW92010   1.099  14.258  14.352
96724SOL    HW192011   1.131  14.200  14.422
96724SOL    HW292012   1.015  14.220  14.326
96725SOL     OW92013   4.857  14.080  12.007
96725SOL    HW192014   4.938  14.066  12.055
96725SOL    HW292015   4.843  14.174  12.009
96726SOL     OW92016  12.337   2.317   7.400
96726SOL    HW192017  12.337   2.221   7.400
96726SOL    HW292018  12.428   2.341   7.380
96727SOL     OW92019  14.163  14.651  11.081
96727SOL    HW192020  14.165  14.566  11.125
96727SOL    HW292021  14.251  14.687  11.093
96728SOL     OW92022   4.230   3.123  11.585
96728SOL    HW192023   4.220   3.183  11.511
96728SOL    HW292024   4.317   3.143  11.621
96729SOL     OW92025   0.970  14.188   1.152
96729SOL    HW192026   1.016  14.192   1.068
96729SOL    HW292027   1.038  14.198   1.218
96730SOL     OW92028   4.794  12.464   8.928
96730SOL    HW192029   4.819  12.539   8.874
96730SOL    HW292030   4.769  12.502   9.012
96731SOL     OW92031   4.964  12.945   0.915
96731SOL    HW192032   4.924  12.858   0.911
96731SOL    HW292033   4.892  13.004   0.938
96732SOL     OW92034   6.640  12.743   0.664
96732SOL    HW192035   6.717  12.738   0.720
96732SOL    HW292036   6.675  12.749   0.575
96733SOL     OW92037  10.954   5.849   8.435
96733SOL    HW192038  10.996   5.898   8.505
96733SOL    HW292039  10.861   5.870   8.444
96734SOL     OW92040  10.325   1.169   1.443
96734SOL    HW192041  10.252   1.187   1.384
96734SOL    HW292042  10.327   1.244   1.502
96735SOL     OW92043  10.603   0.113   5.994
96735SOL    HW192044  10.564   0.200   5.988
96735SOL    HW292045  10.690   0.122   5.956
96736SOL     OW92046   7.771   4.783   7.215
96736SOL    HW192047   7.733   4.727   7.147
96736SOL    HW292048   7.713   4.772   7.290
96737SOL     OW92049  14.586   1.127  12.086
96737SOL    HW192050  14.643   1.051  12.078
96737SOL    HW292051  14.639   1.200  12.055
96738SOL     OW92052   9.927  11.411   7.279
96738SOL    HW192053   9.926  11.499   7.242
96738SOL    HW292054   9.973  11.419   7.362
96739SOL     OW92055   9.548   2.425  13.745
96739SOL    HW192056   9.482   2.477  13.699
96739SOL    HW292057   9.512   2.336  13.748
96740SOL     OW92058  10.350   7.937   0.775
96740SOL    HW192059  10.327   7.976   0.690
96740SOL    HW292060  10.438   7.902   0.762
96741SOL     OW92061   9.037  10.302   5.742
96741SOL    HW192062   9.039  10.234   5.809
96741SOL    HW292063   9.117  10.353   5.758
96742SOL     OW92064   2.151   5.579  12.633
96742SOL    HW192065   2.210   5.587  12.708
96742SOL    HW292066   2.185   5.642  12.569
96743SOL     OW92067   2.058  12.080   1.291
96743SOL    HW192068   1.993  12.138   1.252
96743SOL    HW292069   2.142  12.117   1.263
96744SOL     OW92070   8.188   4.750   0.243
96744SOL    HW192071   8.141   4.724   0.322
96744SOL    HW292072   8.123   4.794   0.189
96745SOL     OW92073   3.238   8.036   9.446
96745SOL    HW192074   3.278   8.108   9.494
96745SOL    HW292075   3.189   7.987   9.512
96746SOL     OW92076   9.427   2.432   9.333
96746SOL    HW192077   9.519   2.454   9.318
96746SOL    HW292078   9.385   2.517   9.345
96747SOL     OW92079   7.586  12.767   7.102
96747SOL    HW192080   7.597  12.812   7.018
96747SOL    HW292081   7.509  12.713   7.090
96748SOL     OW92082   8.062   4.849   6.504
96748SOL    HW192083   7.986   4.839   6.446
96748SOL    HW292084   8.034   4.811   6.587
96749SOL     OW92085   5.550   4.717   7.099
96749SOL    HW192086   5.630   4.680   7.136
96749SOL    HW292087   5.505   4.642   7.060
96750SOL     OW92088  14.775   2.314  10.611
96750SOL    HW192089  14.826   2.277  10.539
96750SOL    HW292090  14.698   2.258  10.619
96751SOL     OW92091   2.272   4.757   1.118
96751SOL    HW192092   2.308   4.729   1.034
96751SOL    HW292093   2.273   4.853   1.114
96752SOL     OW92094  11.796   4.914   5.132
96752SOL    HW192095  11.779   5.001   5.094
96752SOL    HW292096  11.838   4.933   5.215
96753SOL     OW92097   6.288   1.553  13.130
96753SOL    HW192098   6.334   1.494  13.189
96753SOL    HW292099   6.232   1.605  13.187
96754SOL     OW92100   0.637   1.898   5.392
96754SOL    HW192101   0.562   1.950   5.420
96754SOL    HW292102   0.599   1.821   5.349
96755SOL     OW92103   8.016   9.691   6.885
96755SOL    HW192104   7.992   9.768   6.835
96755SOL    HW292105   8.056   9.631   6.821
96756SOL     OW92106  13.291   2.002  12.577
96756SOL    HW192107  13.298   2.085  12.529
96756SOL    HW292108  13.314   2.024  12.667
96757SOL     OW92109   7.163   9.943  13.232
96757SOL    HW192110   7.080   9.960  13.187
96757SOL    HW292111   7.198  10.031  13.251
96758SOL     OW92112   8.037   8.054   5.798
96758SOL    HW192113   8.098   8.126   5.779
96758SOL    HW292114   8.079   8.006   5.870
96759SOL     OW92115   2.751  12.243  13.797
96759SOL    HW192116   2.733  12.267  13.888
96759SOL    HW292117   2.702  12.308  13.745
96760SOL     OW92118  14.343   5.900   1.015
96760SOL    HW192119  14.290   5.835   0.969
96760SOL    HW292120  14.315   5.894   1.106
96761SOL     OW92121   8.777   4.586  10.961
96761SOL    HW192122   8.844   4.628  10.908
96761SOL    HW292123   8.772   4.496  10.927
96762SOL     OW92124   8.582   7.990   0.798
96762SOL    HW192125   8.624   8.000   0.883
96762SOL    HW292126   8.566   8.080   0.769
96763SOL     OW92127  11.240   2.693  14.052
96763SOL    HW192128  11.308   2.699  14.119
96763SOL    HW292129  11.172   2.753  14.081
96764SOL     OW92130   3.505  14.171   4.092
96764SOL    HW192131   3.596  14.164   4.065
96764SOL    HW292132   3.470  14.246   4.043
96765SOL     OW92133  12.452   9.728   6.985
96765SOL    HW192134  12.434   9.635   6.997
96765SOL    HW292135  12.421   9.748   6.897
96766SOL     OW92136  10.954   9.454   5.969
96766SOL    HW192137  10.878   9.469   5.914
96766SOL    HW292138  11.028   9.489   5.918
96767SOL     OW92139   4.124   2.236   9.303
96767SOL    HW192140   4.186   2.289   9.352
96767SOL    HW292141   4.072   2.191   9.370
96768SOL     OW92142   8.143   6.243  14.776
96768SOL    HW192143   8.219   6.301  14.777
96768SOL    HW292144   8.074   6.295  14.735
96769SOL     OW92145  11.671   4.030   1.418
96769SOL    HW192146  11.765   4.025   1.402
96769SOL    HW292147  11.656   4.122   1.441
96770SOL     OW92148   0.274   1.166  13.659
96770SOL    HW192149   0.236   1.164  13.747
96770SOL    HW292150   0.320   1.083  13.651
96771SOL     OW92151   8.056  13.611   3.585
96771SOL    HW192152   8.106  13.569   3.655
96771SOL    HW292153   7.965  13.589   3.604
96772SOL     OW92154   7.889  14.278  13.094
96772SOL    HW192155   7.877  14.358  13.144
96772SOL    HW292156   7.960  14.299  13.033
96773SOL     OW92157   1.640  14.403   8.295
96773SOL    HW192158   1.584  14.377   8.368
96773SOL    HW292159   1.642  14.325   8.239
96774SOL     OW92160   6.583  10.102  11.028
96774SOL    HW192161   6.636  10.068  11.101
96774SOL    HW292162   6.533  10.174  11.067
96775SOL     OW92163   9.759  13.522   2.770
96775SOL    HW192164   9.849  13.554   2.779
96775SOL    HW292165   9.742  13.526   2.676
96776SOL     OW92166   7.438   9.244   9.897
96776SOL    HW192167   7.499   9.256   9.824
96776SOL    HW292168   7.485   9.190   9.960
96777SOL     OW92169   8.193   9.209   6.315
96777SOL    HW192170   8.126   9.141   6.326
96777SOL    HW292171   8.247   9.203   6.394
96778SOL     OW92172   1.539   4.953  10.491
96778SOL    HW192173   1.450   4.943  10.459
96778SOL    HW292174   1.581   4.870  10.469
96779SOL     OW92175  11.875   4.751   6.816
96779SOL    HW192176  11.823   4.696   6.757
96779SOL    HW292177  11.952   4.775   6.764
96780SOL     OW92178   1.804   0.053  11.075
96780SOL    HW192179   1.747   0.041  11.151
96780SOL    HW292180   1.754   0.110  11.016
96781SOL     OW92181   7.953   6.891  14.428
96781SOL    HW192182   7.917   6.944  14.357
96781SOL    HW292183   8.038   6.931  14.447
96782SOL     OW92184   9.700   0.815  12.904
96782SOL    HW192185   9.795   0.813  12.893
96782SOL    HW292186   9.687   0.833  12.997
96783SOL     OW92187   2.512   1.288   8.380
96783SOL    HW192188   2.531   1.301   8.287
96783SOL    HW292189   2.432   1.337   8.395
96784SOL     OW92190   0.307   5.648  10.954
96784SOL    HW192191   0.378   5.625  11.015
96784SOL    HW292192   0.328   5.601  10.874
96785SOL     OW92193  14.399  12.277   6.003
96785SOL    HW192194  14.375  12.189   5.975
96785SOL    HW292195  14.411  12.270   6.098
96786SOL     OW92196   3.704   7.417  14.592
96786SOL    HW192197   3.678   7.501  14.630
96786SOL    HW292198   3.696   7.429  14.497
96787SOL     OW92199   3.120   6.151   4.012
96787SOL    HW192200   3.055   6.157   3.942
96787SOL    HW292201   3.069   6.150   4.092
96788SOL     OW92202  13.845  13.959   3.456
96788SOL    HW192203  13.768  13.912   3.490
96788SOL    HW292204  13.815  14.049   3.446
96789SOL     OW92205   0.536  14.162   9.701
96789SOL    HW192206   0.527  14.244   9.651
96789SOL    HW292207   0.469  14.167   9.769
96790SOL     OW92208   5.073  11.164  14.222
96790SOL    HW192209   4.997  11.171  14.281
96790SOL    HW292210   5.046  11.099  14.157
96791SOL     OW92211  11.675  13.269   9.535
96791SOL    HW192212  11.678  13.240   9.443
96791SOL    HW292213  11.725  13.202   9.582
96792SOL     OW92214   6.798   9.787   0.090
96792SOL    HW192215   6.754   9.770   0.173
96792SOL    HW292216   6.880   9.738   0.095
96793SOL     OW92217   2.395  11.079   8.259
96793SOL    HW192218   2.367  11.155   8.208
96793SOL    HW292219   2.483  11.100   8.288
96794SOL     OW92220   2.335   9.519   1.636
96794SOL    HW192221   2.260   9.522   1.576
96794SOL    HW292222   2.403   9.472   1.587
96795SOL     OW92223   9.134   1.406   7.269
96795SOL    HW192224   9.214   1.357   7.290
96795SOL    HW292225   9.109   1.447   7.352
96796SOL     OW92226   1.572   3.269  14.613
96796SOL    HW192227   1.585   3.233  14.701
96796SOL    HW292228   1.478   3.262  14.598
96797SOL     OW92229   1.889   6.137  13.912
96797SOL    HW192230   1.810   6.153  13.964
96797SOL    HW292231   1.858   6.095  13.832
96798SOL     OW92232  10.861  14.847   1.676
96798SOL    HW192233  10.848  14.788   1.601
96798SOL    HW292234  10.931   0.027   1.647
96799SOL     OW92235   3.889   9.609   5.885
96799SOL    HW192236   3.856   9.520   5.872
96799SOL    HW292237   3.976   9.597   5.922
96800SOL     OW92238   8.329  14.295   0.164
96800SOL    HW192239   8.382  14.361   0.119
96800SOL    HW292240   8.316  14.226   0.098
96801SOL     OW92241   6.616   4.886  13.068
96801SOL    HW192242   6.559   4.810  13.081
96801SOL    HW292243   6.702   4.848  13.048
96802SOL     OW92244  12.011   7.277   1.908
96802SOL    HW192245  12.057   7.247   1.829
96802SOL    HW292246  11.938   7.329   1.875
96803SOL     OW92247   8.648  11.189   0.906
96803SOL    HW192248   8.646  11.103   0.947
96803SOL    HW292249   8.730  11.228   0.935
96804SOL     OW92250   8.722   8.215   3.786
96804SOL    HW192251   8.785   8.257   3.727
96804SOL    HW292252   8.754   8.235   3.874
96805SOL     OW92253   4.374   3.478   5.018
96805SOL    HW192254   4.374   3.392   5.059
96805SOL    HW292255   4.428   3.532   5.077
96806SOL     OW92256   4.268   5.158   8.942
96806SOL    HW192257   4.201   5.168   8.874
96806SOL    HW292258   4.241   5.218   9.011
96807SOL     OW92259  13.870  11.834   6.027
96807SOL    HW192260  13.847  11.818   5.935
96807SOL    HW292261  13.832  11.761   6.075
96808SOL     OW92262   6.646   2.994   3.590
96808SOL    HW192263   6.737   3.000   3.621
96808SOL    HW292264   6.617   3.085   3.583
96809SOL     OW92265  12.362   5.255  14.372
96809SOL    HW192266  12.386   5.285  14.284
96809SOL    HW292267  12.438   5.207  14.403
96810SOL     OW92268  12.434   3.174   8.826
96810SOL    HW192269  12.417   3.092   8.780
96810SOL    HW292270  12.475   3.148   8.908
96811SOL     OW92271  14.095   0.608   7.007
96811SOL    HW192272  14.174   0.597   7.059
96811SOL    HW292273  14.023   0.586   7.067
96812SOL     OW92274   5.833  11.418   5.717
96812SOL    HW192275   5.887  11.393   5.642
96812SOL    HW292276   5.895  11.449   5.783
96813SOL     OW92277  13.009   9.908   0.972
96813SOL    HW192278  13.097   9.945   0.979
96813SOL    HW292279  12.990   9.908   0.878
96814SOL     OW92280   2.684  12.346  11.648
96814SOL    HW192281   2.733  12.354  11.566
96814SOL    HW292282   2.596  12.319  11.621
96815SOL     OW92283   6.693   1.109  11.237
96815SOL    HW192284   6.624   1.173  11.250
96815SOL    HW292285   6.651   1.024  11.251
96816SOL     OW92286   8.633   2.908   6.695
96816SOL    HW192287   8.578   2.962   6.639
96816SOL    HW292288   8.574   2.880   6.765
96817SOL     OW92289   0.006   4.458  13.095
96817SOL    HW192290   0.068   4.402  13.140
96817SOL    HW292291  14.800   4.434  13.131
96818SOL     OW92292  11.813   9.645   5.811
96818SOL    HW192293  11.767   9.663   5.729
96818SOL    HW292294  11.891   9.596   5.785
96819SOL     OW92295   1.613  11.244  14.437
96819SOL    HW192296   1.652  11.224  14.352
96819SOL    HW292297   1.611  11.339  14.441
96820SOL     OW92298   4.233   1.878   5.659
96820SOL    HW192299   4.194   1.939   5.722
96820SOL    HW292300   4.238   1.929   5.577
96821SOL     OW92301   0.084   2.500   0.181
96821SOL    HW192302   0.026   2.561   0.226
96821SOL    HW292303   0.170   2.515   0.220
96822SOL     OW92304   8.472   7.180   3.042
96822SOL    HW192305   8.454   7.265   3.002
96822SOL    HW292306   8.559   7.157   3.011
96823SOL     OW92307   6.434  13.326  13.655
96823SOL    HW192308   6.422  13.274  13.734
96823SOL    HW292309   6.412  13.267  13.583
96824SOL     OW92310   4.702  10.245   4.796
96824SOL    HW192311   4.788  10.278   4.820
96824SOL    HW292312   4.709  10.150   4.804
96825SOL     OW92313  13.676  11.033   1.352
96825SOL    HW192314  13.697  11.126   1.362
96825SOL    HW292315  13.742  11.001   1.289
96826SOL     OW92316   6.360   5.083   4.084
96826SOL    HW192317   6.271   5.117   4.072
96826SOL    HW292318   6.408   5.111   4.007
96827SOL     OW92319  14.375   1.861   9.710
96827SOL    HW192320  14.402   1.775   9.741
96827SOL    HW292321  14.287   1.847   9.675
96828SOL     OW92322   4.758   0.980   3.393
96828SOL    HW192323   4.704   1.049   3.430
96828SOL    HW292324   4.838   0.981   3.446
96829SOL     OW92325  12.767   0.667   1.178
96829SOL    HW192326  12.837   0.731   1.193
96829SOL    HW292327  12.695   0.697   1.234
96830SOL     OW92328   8.774   3.200  12.558
96830SOL    HW192329   8.794   3.226  12.648
96830SOL    HW292330   8.792   3.106  12.556
96831SOL     OW92331   5.522   6.713   3.618
96831SOL    HW192332   5.613   6.715   3.650
96831SOL    HW292333   5.529   6.725   3.524
96832SOL     OW92334   6.953   6.315   9.415
96832SOL    HW192335   6.961   6.411   9.407
96832SOL    HW292336   6.859   6.299   9.419
96833SOL     OW92337   1.881   3.294   0.638
96833SOL    HW192338   1.845   3.269   0.723
96833SOL    HW292339   1.945   3.362   0.658
96834SOL     OW92340  13.037  10.528   0.791
96834SOL    HW192341  13.030  10.441   0.829
96834SOL    HW292342  13.086  10.579   0.856
96835SOL     OW92343   8.690  13.096   8.379
96835SOL    HW192344   8.711  13.007   8.350
96835SOL    HW292345   8.748  13.152   8.327
96836SOL     OW92346   9.785   0.623  13.403
96836SOL    HW192347   9.795   0.549  13.464
96836SOL    HW292348   9.703   0.605  13.357
96837SOL     OW92349   0.100  13.878   0.156
96837SOL    HW192350   0.116  13.944   0.088
96837SOL    HW292351   0.058  13.926   0.227
96838SOL     OW92352   3.618   0.564   2.318
96838SOL    HW192353   3.685   0.556   2.386
96838SOL    HW292354   3.620   0.480   2.273
96839SOL     OW92355   0.227   6.204   0.263
96839SOL    HW192356   0.172   6.267   0.309
96839SOL    HW292357   0.190   6.202   0.174
96840SOL     OW92358  11.808  14.747   6.864
96840SOL    HW192359  11.890  14.786   6.834
96840SOL    HW292360  11.770  14.708   6.786
96841SOL     OW92361  13.006  10.481  13.579
96841SOL    HW192362  13.031  10.435  13.499
96841SOL    HW292363  12.912  10.493  13.571
96842SOL     OW92364  10.890   5.434   9.819
96842SOL    HW192365  10.919   5.516   9.859
96842SOL    HW292366  10.969   5.395   9.782
96843SOL     OW92367   0.789   3.586  10.523
96843SOL    HW192368   0.743   3.506  10.547
96843SOL    HW292369   0.836   3.564  10.443
96844SOL     OW92370   3.446   2.150   2.243
96844SOL    HW192371   3.402   2.095   2.308
96844SOL    HW292372   3.376   2.176   2.183
96845SOL     OW92373  10.640  11.217  13.619
96845SOL    HW192374  10.698  11.153  13.579
96845SOL    HW292375  10.691  11.254  13.691
96846SOL     OW92376   1.221   9.576   5.673
96846SOL    HW192377   1.314   9.562   5.658
96846SOL    HW292378   1.205   9.666   5.645
96847SOL     OW92379   9.859   0.351   0.840
96847SOL    HW192380   9.946   0.392   0.842
96847SOL    HW292381   9.798   0.425   0.841
96848SOL     OW92382   9.383   2.228   9.689
96848SOL    HW192383   9.390   2.235   9.594
96848SOL    HW292384   9.452   2.285   9.722
96849SOL     OW92385   0.467   1.886   4.946
96849SOL    HW192386   0.502   1.803   4.978
96849SOL    HW292387   0.390   1.902   5.001
96850SOL     OW92388   0.905   7.724   3.428
96850SOL    HW192389   0.973   7.665   3.393
96850SOL    HW292390   0.823   7.687   3.396
96851SOL     OW92391   1.887   6.341   0.150
96851SOL    HW192392   1.963   6.329   0.094
96851SOL    HW292393   1.818   6.374   0.092
96852SOL     OW92394  10.930  10.867   4.166
96852SOL    HW192395  10.898  10.781   4.138
96852SOL    HW292396  10.969  10.905   4.087
96853SOL     OW92397  10.781   2.825   3.424
96853SOL    HW192398  10.804   2.844   3.334
96853SOL    HW292399  10.705   2.767   3.417
96854SOL     OW92400   6.366   9.201   5.124
96854SOL    HW192401   6.347   9.111   5.097
96854SOL    HW292402   6.453   9.219   5.089
96855SOL     OW92403  12.809  10.789   9.475
96855SOL    HW192404  12.743  10.812   9.540
96855SOL    HW292405  12.891  10.789   9.524
96856SOL     OW92406   0.743   6.310   6.524
96856SOL    HW192407   0.813   6.337   6.464
96856SOL    HW292408   0.754   6.367   6.600
96857SOL     OW92409  10.341   3.628   3.733
96857SOL    HW192410  10.394   3.693   3.686
96857SOL    HW292411  10.365   3.641   3.825
96858SOL     OW92412   9.225   1.898   8.444
96858SOL    HW192413   9.144   1.943   8.420
96858SOL    HW292414   9.289   1.969   8.455
96859SOL     OW92415  13.639   5.044  13.878
96859SOL    HW192416  13.734   5.033  13.875
96859SOL    HW292417  13.604   4.963  13.841
96860SOL     OW92418  13.538   5.470   7.420
96860SOL    HW192419  13.596   5.546   7.415
96860SOL    HW292420  13.597   5.397   7.441
96861SOL     OW92421   8.447  14.386   4.182
96861SOL    HW192422   8.477  14.319   4.244
96861SOL    HW292423   8.428  14.462   4.237
96862SOL     OW92424  10.895   2.862   6.849
96862SOL    HW192425  10.808   2.898   6.867
96862SOL    HW292426  10.952   2.905   6.913
96863SOL     OW92427   5.249   2.715   7.496
96863SOL    HW192428   5.238   2.722   7.401
96863SOL    HW292429   5.160   2.704   7.530
96864SOL     OW92430  13.059  10.831   0.979
96864SOL    HW192431  13.080  10.895   1.047
96864SOL    HW292432  13.074  10.746   1.020
96865SOL     OW92433  14.292   6.863   6.984
96865SOL    HW192434  14.373   6.908   6.960
96865SOL    HW292435  14.318   6.805   7.056
96866SOL     OW92436  13.930   0.263   1.305
96866SOL    HW192437  13.938   0.216   1.388
96866SOL    HW292438  14.003   0.232   1.253
96867SOL     OW92439  11.280   7.939  12.999
96867SOL    HW192440  11.232   8.000  12.943
96867SOL    HW292441  11.268   7.973  13.088
96868SOL     OW92442  12.456   6.397   4.740
96868SOL    HW192443  12.519   6.407   4.669
96868SOL    HW292444  12.461   6.479   4.789
96869SOL     OW92445  14.748   1.449   1.346
96869SOL    HW192446  14.717   1.454   1.255
96869SOL    HW292447  14.838   1.482   1.343
96870SOL     OW92448  13.672  10.471   4.120
96870SOL    HW192449  13.665  10.394   4.063
96870SOL    HW292450  13.720  10.440   4.197
96871SOL     OW92451   0.399   0.337   1.508
96871SOL    HW192452   0.382   0.297   1.423
96871SOL    HW292453   0.484   0.381   1.498
96872SOL     OW92454   9.950   7.958   0.421
96872SOL    HW192455   9.946   7.968   0.325
96872SOL    HW292456   9.871   8.001   0.453
96873SOL     OW92457  13.985  14.251  14.588
96873SOL    HW192458  14.024  14.164  14.579
96873SOL    HW292459  14.051  14.301  14.637
96874SOL     OW92460  10.816  13.721   7.898
96874SOL    HW192461  10.734  13.765   7.876
96874SOL    HW292462  10.867  13.788   7.945
96875SOL     OW92463  13.448   5.245   0.203
96875SOL    HW192464  13.378   5.304   0.229
96875SOL    HW292465  13.457   5.259   0.108
96876SOL     OW92466   8.906  10.900   4.237
96876SOL    HW192467   8.933  10.966   4.300
96876SOL    HW292468   8.942  10.930   4.154
96877SOL     OW92469   9.370  13.027  11.361
96877SOL    HW192470   9.409  12.947  11.326
96877SOL    HW292471   9.278  13.004  11.378
96878SOL     OW92472   7.800   2.567  10.065
96878SOL    HW192473   7.797   2.491  10.007
96878SOL    HW292474   7.747   2.540  10.141
96879SOL     OW92475   6.322   2.989  12.085
96879SOL    HW192476   6.367   2.928  12.028
96879SOL    HW292477   6.340   2.956  12.174
96880SOL     OW92478  10.124   2.109  10.798
96880SOL    HW192479  10.172   2.028  10.779
96880SOL    HW292480  10.179   2.155  10.862
96881SOL     OW92481   7.812   0.259   4.932
96881SOL    HW192482   7.743   0.307   4.887
96881SOL    HW292483   7.772   0.227   5.012
96882SOL     OW92484   5.143   8.394  10.108
96882SOL    HW192485   5.229   8.370  10.142
96882SOL    HW292486   5.161   8.455  10.036
96883SOL     OW92487  10.212  10.490  12.591
96883SOL    HW192488  10.142  10.468  12.653
96883SOL    HW292489  10.271  10.415  12.594
96884SOL     OW92490   2.610   1.464   7.756
96884SOL    HW192491   2.585   1.519   7.830
96884SOL    HW292492   2.640   1.525   7.689
96885SOL     OW92493  11.362  11.117   3.318
96885SOL    HW192494  11.307  11.107   3.241
96885SOL    HW292495  11.303  11.101   3.392
96886SOL     OW92496   8.010   8.678  13.280
96886SOL    HW192497   8.081   8.625  13.315
96886SOL    HW292498   8.045   8.767  13.278
96887SOL     OW92499   4.939   0.587   6.875
96887SOL    HW192500   4.975   0.503   6.847
96887SOL    HW292501   4.997   0.616   6.945
96888SOL     OW92502  12.716  12.494   0.937
96888SOL    HW192503  12.703  12.547   0.858
96888SOL    HW292504  12.647  12.427   0.933
96889SOL     OW92505   0.622   4.609   5.915
96889SOL    HW192506   0.577   4.664   5.979
96889SOL    HW292507   0.709   4.647   5.907
96890SOL     OW92508   0.785   4.924   4.080
96890SOL    HW192509   0.829   4.865   4.140
96890SOL    HW292510   0.826   4.906   3.995
96891SOL     OW92511   9.278   8.913  10.700
96891SOL    HW192512   9.293   8.948  10.613
96891SOL    HW292513   9.347   8.950  10.754
96892SOL     OW92514   0.346  12.792   3.745
96892SOL    HW192515   0.284  12.811   3.675
96892SOL    HW292516   0.431  12.787   3.701
96893SOL     OW92517   4.645   8.296   6.340
96893SOL    HW192518   4.679   8.385   6.336
96893SOL    HW292519   4.620   8.283   6.432
96894SOL     OW92520  13.909  10.426   4.752
96894SOL    HW192521  13.923  10.395   4.663
96894SOL    HW292522  13.955  10.363   4.807
96895SOL     OW92523   8.463  11.061   2.208
96895SOL    HW192524   8.526  10.991   2.193
96895SOL    HW292525   8.382  11.029   2.168
96896SOL     OW92526  14.721   9.881  10.878
96896SOL    HW192527  14.650   9.821  10.855
96896SOL    HW292528  14.801   9.828  10.873
96897SOL     OW92529   2.643   4.755   4.325
96897SOL    HW192530   2.576   4.770   4.392
96897SOL    HW292531   2.709   4.702   4.370
96898SOL     OW92532   8.425   3.784   0.487
96898SOL    HW192533   8.442   3.716   0.422
96898SOL    HW292534   8.419   3.865   0.437
96899SOL     OW92535   6.020   3.227   7.401
96899SOL    HW192536   5.982   3.309   7.431
96899SOL    HW292537   5.991   3.219   7.310
96900SOL     OW92538   6.465   5.332  10.563
96900SOL    HW192539   6.446   5.395  10.494
96900SOL    HW292540   6.456   5.382  10.644
96901SOL     OW92541   4.436  13.407   6.558
96901SOL    HW192542   4.470  13.492   6.529
96901SOL    HW292543   4.506  13.370   6.612
96902SOL     OW92544   3.389   8.546  11.063
96902SOL    HW192545   3.357   8.462  11.097
96902SOL    HW292546   3.454   8.522  10.998
96903SOL     OW92547   4.871   7.762   6.643
96903SOL    HW192548   4.859   7.673   6.611
96903SOL    HW292549   4.946   7.796   6.593
96904SOL     OW92550  12.031  10.282   1.372
96904SOL    HW192551  12.072  10.368   1.369
96904SOL    HW292552  12.057  10.244   1.456
96905SOL     OW92553   4.440   6.667   4.995
96905SOL    HW192554   4.464   6.644   4.906
96905SOL    HW292555   4.497   6.741   5.017
96906SOL     OW92556   2.245  11.381   9.027
96906SOL    HW192557   2.217  11.473   9.025
96906SOL    HW292558   2.271  11.362   8.937
96907SOL     OW92559   8.129   2.121   7.883
96907SOL    HW192560   8.050   2.119   7.828
96907SOL    HW292561   8.179   2.044   7.856
96908SOL     OW92562   8.883   9.817   4.891
96908SOL    HW192563   8.962   9.778   4.854
96908SOL    HW292564   8.868   9.896   4.838
96909SOL     OW92565   1.559   1.477   5.992
96909SOL    HW192566   1.481   1.524   6.022
96909SOL    HW292567   1.528   1.424   5.919
96910SOL     OW92568  13.956  11.358   1.910
96910SOL    HW192569  13.864  11.377   1.931
96910SOL    HW292570  13.952  11.278   1.858
96911SOL     OW92571  12.520   3.884   7.307
96911SOL    HW192572  12.504   3.967   7.352
96911SOL    HW292573  12.453   3.881   7.239
96912SOL     OW92574   0.762  10.776   7.628
96912SOL    HW192575   0.774  10.857   7.579
96912SOL    HW292576   0.849  10.737   7.632
96913SOL     OW92577  13.693   9.059  12.122
96913SOL    HW192578  13.754   9.025  12.188
96913SOL    HW292579  13.610   9.068  12.170
96914SOL     OW92580   6.560   0.610   3.431
96914SOL    HW192581   6.484   0.667   3.416
96914SOL    HW292582   6.535   0.557   3.506
96915SOL     OW92583  14.397  11.991  10.464
96915SOL    HW192584  14.423  11.928  10.532
96915SOL    HW292585  14.312  11.958  10.433
96916SOL     OW92586  11.896   0.591   4.376
96916SOL    HW192587  11.937   0.588   4.462
96916SOL    HW292588  11.877   0.500   4.355
96917SOL     OW92589  11.283  11.374   7.020
96917SOL    HW192590  11.327  11.456   6.997
96917SOL    HW292591  11.219  11.361   6.950
96918SOL     OW92592  10.576  12.300  14.324
96918SOL    HW192593  10.623  12.222  14.296
96918SOL    HW292594  10.507  12.268  14.382
96919SOL     OW92595   5.678   2.341   6.132
96919SOL    HW192596   5.726   2.378   6.059
96919SOL    HW292597   5.633   2.416   6.171
96920SOL     OW92598   5.459   8.082   7.204
96920SOL    HW192599   5.482   8.170   7.234
96920SOL    HW292600   5.515   8.066   7.128
96921SOL     OW92601   9.024   8.162   7.202
96921SOL    HW192602   9.073   8.165   7.120
96921SOL    HW292603   8.960   8.092   7.189
96922SOL     OW92604  11.860  12.749  13.986
96922SOL    HW192605  11.932  12.786  14.036
96922SOL    HW292606  11.855  12.658  14.013
96923SOL     OW92607  11.351   4.026   1.925
96923SOL    HW192608  11.300   4.106   1.911
96923SOL    HW292609  11.358   3.987   1.838
96924SOL     OW92610   0.772   3.463   0.557
96924SOL    HW192611   0.713   3.535   0.535
96924SOL    HW292612   0.832   3.499   0.622
96925SOL     OW92613   3.573   4.408   2.425
96925SOL    HW192614   3.662   4.372   2.428
96925SOL    HW292615   3.522   4.342   2.378
96926SOL     OW92616  10.728   4.415   3.184
96926SOL    HW192617  10.688   4.464   3.112
96926SOL    HW292618  10.656   4.362   3.219
96927SOL     OW92619  12.488   6.985   0.073
96927SOL    HW192620  12.426   7.026   0.013
96927SOL    HW292621  12.479   6.891   0.058
96928SOL     OW92622   2.616  11.630  10.954
96928SOL    HW192623   2.603  11.702  10.893
96928SOL    HW292624   2.641  11.556  10.898
96929SOL     OW92625   3.428   3.464   4.034
96929SOL    HW192626   3.377   3.535   3.995
96929SOL    HW292627   3.423   3.393   3.970
96930SOL     OW92628   1.549   2.529  13.772
96930SOL    HW192629   1.467   2.553  13.730
96930SOL    HW292630   1.548   2.577  13.855
96931SOL     OW92631   5.267  10.610   1.292
96931SOL    HW192632   5.323  10.559   1.234
96931SOL    HW292633   5.328  10.654   1.352
96932SOL     OW92634   9.751   0.778  10.121
96932SOL    HW192635   9.796   0.694  10.137
96932SOL    HW292636   9.674   0.774  10.177
96933SOL     OW92637  11.072  13.011   3.051
96933SOL    HW192638  11.045  13.007   3.142
96933SOL    HW292639  11.123  13.092   3.044
96934SOL     OW92640   0.045   5.952  12.486
96934SOL    HW192641   0.002   5.978  12.405
96934SOL    HW292642   0.104   6.024  12.506
96935SOL     OW92643   0.742   0.592   4.805
96935SOL    HW192644   0.738   0.589   4.710
96935SOL    HW292645   0.651   0.600   4.833
96936SOL     OW92646   3.326  11.551  12.199
96936SOL    HW192647   3.257  11.507  12.248
96936SOL    HW292648   3.308  11.529  12.107
96937SOL     OW92649  10.741   5.782   9.507
96937SOL    HW192650  10.735   5.878   9.500
96937SOL    HW292651  10.767   5.767   9.598
96938SOL     OW92652   7.523   7.325   8.955
96938SOL    HW192653   7.552   7.247   9.002
96938SOL    HW292654   7.476   7.290   8.879
96939SOL     OW92655   6.453  13.668   0.999
96939SOL    HW192656   6.487  13.603   1.060
96939SOL    HW292657   6.359  13.650   0.995
96940SOL     OW92658   0.671   9.916   3.531
96940SOL    HW192659   0.723   9.841   3.561
96940SOL    HW292660   0.692   9.986   3.593
96941SOL     OW92661  13.652  11.994  11.259
96941SOL    HW192662  13.730  11.943  11.238
96941SOL    HW292663  13.685  12.071  11.306
96942SOL     OW92664   1.199   5.335  11.174
96942SOL    HW192665   1.178   5.266  11.112
96942SOL    HW292666   1.248   5.399  11.122
96943SOL     OW92667   3.429   3.561  14.431
96943SOL    HW192668   3.476   3.495  14.483
96943SOL    HW292669   3.337   3.541  14.446
96944SOL     OW92670   1.610   4.346  12.802
96944SOL    HW192671   1.652   4.387  12.726
96944SOL    HW292672   1.633   4.253  12.795
96945SOL     OW92673   3.984   8.551  14.022
96945SOL    HW192674   4.078   8.565  14.035
96945SOL    HW292675   3.977   8.458  14.002
96946SOL     OW92676  13.691   0.255  11.977
96946SOL    HW192677  13.778   0.255  12.017
96946SOL    HW292678  13.630   0.248  12.050
96947SOL     OW92679  10.521  11.755  12.703
96947SOL    HW192680  10.480  11.831  12.745
96947SOL    HW292681  10.585  11.724  12.767
96948SOL     OW92682   7.637   2.933  13.278
96948SOL    HW192683   7.634   2.914  13.184
96948SOL    HW292684   7.659   2.850  13.319
96949SOL     OW92685  14.662   0.853  13.806
96949SOL    HW192686  14.686   0.769  13.846
96949SOL    HW292687  14.660   0.915  13.878
96950SOL     OW92688   2.061   5.851  10.322
96950SOL    HW192689   2.052   5.912  10.249
96950SOL    HW292690   2.063   5.906  10.400
96951SOL     OW92691  13.516   9.654   9.952
96951SOL    HW192692  13.579   9.593   9.991
96951SOL    HW292693  13.432   9.609   9.958
96952SOL     OW92694  12.449   4.653  11.670
96952SOL    HW192695  12.398   4.600  11.733
96952SOL    HW292696  12.423   4.743  11.688
96953SOL     OW92697  13.320  13.614   4.848
96953SOL    HW192698  13.392  13.676   4.840
96953SOL    HW292699  13.314  13.574   4.762
96954SOL     OW92700  10.115  12.451  14.169
96954SOL    HW192701  10.183  12.494  14.219
96954SOL    HW292702  10.139  12.358  14.171
96955SOL     OW92703   2.257  12.518   0.206
96955SOL    HW192704   2.294  12.582   0.268
96955SOL    HW292705   2.280  12.552   0.120
96956SOL     OW92706   5.324  12.453  13.012
96956SOL    HW192707   5.361  12.477  12.927
96956SOL    HW292708   5.344  12.359  13.021
96957SOL     OW92709   0.943   5.450  10.694
96957SOL    HW192710   1.027   5.404  10.702
96957SOL    HW292711   0.930   5.460  10.600
96958SOL     OW92712   9.680   8.365   3.712
96958SOL    HW192713   9.627   8.410   3.778
96958SOL    HW292714   9.765   8.352   3.755
96959SOL     OW92715   9.828   9.945   3.787
96959SOL    HW192716   9.797   9.949   3.697
96959SOL    HW292717   9.915   9.905   3.781
96960SOL     OW92718   6.536  12.354   9.132
96960SOL    HW192719   6.609  12.292   9.131
96960SOL    HW292720   6.474  12.316   9.194
96961SOL     OW92721   8.469   1.865   7.894
96961SOL    HW192722   8.508   1.934   7.946
96961SOL    HW292723   8.539   1.836   7.835
96962SOL     OW92724  14.681   5.328  12.215
96962SOL    HW192725  14.590   5.301  12.227
96962SOL    HW292726  14.683   5.419  12.246
96963SOL     OW92727  14.799   2.909  11.534
96963SOL    HW192728  14.855   2.848  11.487
96963SOL    HW292729  14.710   2.890  11.503
96964SOL     OW92730  12.395  12.609  13.947
96964SOL    HW192731  12.490  12.608  13.959
96964SOL    HW292732  12.367  12.694  13.982
96965SOL     OW92733   3.239   0.027  13.102
96965SOL    HW192734   3.231  14.813  13.081
96965SOL    HW292735   3.149   0.054  13.121
96966SOL     OW92736   0.538  14.590   1.781
96966SOL    HW192737   0.595  14.655   1.740
96966SOL    HW292738   0.508  14.536   1.707
96967SOL     OW92739   2.796  13.389   6.571
96967SOL    HW192740   2.837  13.454   6.628
96967SOL    HW292741   2.739  13.339   6.630
96968SOL     OW92742  14.071   2.032   4.162
96968SOL    HW192743  14.055   2.028   4.256
96968SOL    HW292744  14.050   1.944   4.130
96969SOL     OW92745   4.017   1.904   0.561
96969SOL    HW192746   3.942   1.919   0.619
96969SOL    HW292747   4.065   1.987   0.560
96970SOL     OW92748   5.680  13.449   6.838
96970SOL    HW192749   5.706  13.443   6.747
96970SOL    HW292750   5.684  13.359   6.870
96971SOL     OW92751   3.418   5.671   4.558
96971SOL    HW192752   3.402   5.603   4.623
96971SOL    HW292753   3.438   5.749   4.609
96972SOL     OW92754   5.840   8.317   0.459
96972SOL    HW192755   5.914   8.315   0.520
96972SOL    HW292756   5.785   8.389   0.491
96973SOL     OW92757   6.583   0.260  11.192
96973SOL    HW192758   6.578   0.203  11.269
96973SOL    HW292759   6.509   0.232  11.137
96974SOL     OW92760   1.221   0.336   4.476
96974SOL    HW192761   1.292   0.308   4.533
96974SOL    HW292762   1.146   0.348   4.534
96975SOL     OW92763   8.071  14.114   9.117
96975SOL    HW192764   8.118  14.040   9.079
96975SOL    HW292765   8.071  14.181   9.049
96976SOL     OW92766   4.640   1.067   9.329
96976SOL    HW192767   4.717   1.021   9.297
96976SOL    HW292768   4.615   1.126   9.258
96977SOL     OW92769  11.207   4.065   5.373
96977SOL    HW192770  11.143   4.113   5.425
96977SOL    HW292771  11.262   4.132   5.334
96978SOL     OW92772   3.302  11.848  12.190
96978SOL    HW192773   3.364  11.848  12.117
96978SOL    HW292774   3.302  11.758  12.221
96979SOL     OW92775   9.896   6.637   5.341
96979SOL    HW192776   9.967   6.586   5.303
96979SOL    HW292777   9.863   6.690   5.268
96980SOL     OW92778   0.536   4.345   5.535
96980SOL    HW192779   0.529   4.406   5.609
96980SOL    HW292780   0.620   4.365   5.496
96981SOL     OW92781  14.070  10.019  11.873
96981SOL    HW192782  14.009  10.031  11.945
96981SOL    HW292783  14.131   9.952  11.904
96982SOL     OW92784  14.110   1.589   5.242
96982SOL    HW192785  14.187   1.603   5.187
96982SOL    HW292786  14.113   1.496   5.263
96983SOL     OW92787   6.939  10.054   0.359
96983SOL    HW192788   7.012  10.088   0.307
96983SOL    HW292789   6.862  10.066   0.304
96984SOL     OW92790  14.585   2.527  11.729
96984SOL    HW192791  14.572   2.480  11.811
96984SOL    HW292792  14.649   2.474  11.681
96985SOL     OW92793   3.338  12.042   5.398
96985SOL    HW192794   3.367  12.114   5.342
96985SOL    HW292795   3.419  12.007   5.435
96986SOL     OW92796  10.434   2.808   3.071
96986SOL    HW192797  10.436   2.904   3.072
96986SOL    HW292798  10.401   2.786   2.983
96987SOL     OW92799   7.135  14.721  12.237
96987SOL    HW192800   7.091  14.711  12.152
96987SOL    HW292801   7.065  14.750  12.296
96988SOL     OW92802   9.951   8.893   4.186
96988SOL    HW192803   9.904   8.955   4.241
96988SOL    HW292804  10.019   8.857   4.242
96989SOL     OW92805   3.012  10.181  14.354
96989SOL    HW192806   2.986  10.190  14.446
96989SOL    HW292807   2.991  10.090  14.332
96990SOL     OW92808   4.244  13.524   6.213
96990SOL    HW192809   4.220  13.503   6.303
96990SOL    HW292810   4.208  13.452   6.161
96991SOL     OW92811   2.295   6.094   8.449
96991SOL    HW192812   2.224   6.115   8.510
96991SOL    HW292813   2.282   6.155   8.376
96992SOL     OW92814   0.555  12.737   9.516
96992SOL    HW192815   0.625  12.672   9.525
96992SOL    HW292816   0.476  12.686   9.503
96993SOL     OW92817  11.817  11.182   1.611
96993SOL    HW192818  11.762  11.205   1.686
96993SOL    HW292819  11.758  11.184   1.536
96994SOL     OW92820  10.724   2.231  10.554
96994SOL    HW192821  10.724   2.241  10.459
96994SOL    HW292822  10.634   2.248  10.580
96995SOL     OW92823  11.899   1.473   0.306
96995SOL    HW192824  11.963   1.456   0.375
96995SOL    HW292825  11.824   1.419   0.329
96996SOL     OW92826   7.967   4.958  12.645
96996SOL    HW192827   7.887   4.934  12.692
96996SOL    HW292828   8.012   5.018  12.704
96997SOL     OW92829   9.455   1.190  12.084
96997SOL    HW192830   9.438   1.278  12.116
96997SOL    HW292831   9.404   1.183  12.003
96998SOL     OW92832  10.215  11.571  14.702
96998SOL    HW192833  10.246  11.550  14.791
96998SOL    HW292834  10.211  11.486  14.658
96999SOL     OW92835   3.777   4.100   9.007
96999SOL    HW192836   3.781   4.102   9.103
96999SOL    HW292837   3.693   4.059   8.987
97000SOL     OW92838  14.448   7.914   1.319
97000SOL    HW192839  14.531   7.963   1.317
97000SOL    HW292840  14.475   7.822   1.318
97001SOL     OW92841  14.059   4.749   9.472
97001SOL    HW192842  14.106   4.801   9.408
97001SOL    HW292843  13.968   4.748   9.441
97002SOL     OW92844   4.512   0.061  14.836
97002SOL    HW192845   4.560  14.869  14.794
97002SOL    HW292846   4.441   0.081  14.776
97003SOL     OW92847  13.043   4.618   0.323
97003SOL    HW192848  13.125   4.580   0.294
97003SOL    HW292849  13.015   4.562   0.395
97004SOL     OW92850   0.885   2.188   0.714
97004SOL    HW192851   0.875   2.225   0.627
97004SOL    HW292852   0.800   2.203   0.756
97005SOL     OW92853   7.570  13.947  12.397
97005SOL    HW192854   7.509  13.873  12.394
97005SOL    HW292855   7.626  13.935  12.320
97006SOL     OW92856   7.811   2.839   4.603
97006SOL    HW192857   7.803   2.819   4.510
97006SOL    HW292858   7.904   2.825   4.622
97007SOL     OW92859   4.680   5.784   2.114
97007SOL    HW192860   4.740   5.710   2.125
97007SOL    HW292861   4.595   5.749   2.140
97008SOL     OW92862   6.381   8.655   7.535
97008SOL    HW192863   6.378   8.726   7.599
97008SOL    HW292864   6.460   8.672   7.484
97009SOL     OW92865  11.808   6.852  13.532
97009SOL    HW192866  11.767   6.939  13.531
97009SOL    HW292867  11.889   6.864  13.483
97010SOL     OW92868  12.681   3.173   4.429
97010SOL    HW192869  12.674   3.078   4.439
97010SOL    HW292870  12.612   3.196   4.368
97011SOL     OW92871   5.646  13.845  14.490
97011SOL    HW192872   5.636  13.780  14.561
97011SOL    HW292873   5.679  13.923  14.534
97012SOL     OW92874   4.166  10.039   3.784
97012SOL    HW192875   4.111  10.106   3.744
97012SOL    HW292876   4.106   9.985   3.834
97013SOL     OW92877  12.048   4.812  13.738
97013SOL    HW192878  11.989   4.885  13.757
97013SOL    HW292879  12.093   4.837  13.657
97014SOL     OW92880   4.209  10.661  14.647
97014SOL    HW192881   4.251  10.675  14.562
97014SOL    HW292882   4.116  10.677  14.631
97015SOL     OW92883  10.069   5.410  11.016
97015SOL    HW192884  10.046   5.503  11.014
97015SOL    HW292885  10.002   5.370  11.071
97016SOL     OW92886  13.714   9.569   5.502
97016SOL    HW192887  13.622   9.549   5.522
97016SOL    HW292888  13.760   9.488   5.520
97017SOL     OW92889   5.376   7.981  11.388
97017SOL    HW192890   5.322   8.025  11.322
97017SOL    HW292891   5.382   8.044  11.460
97018SOL     OW92892   6.100   5.559   8.283
97018SOL    HW192893   6.170   5.542   8.220
97018SOL    HW292894   6.038   5.487   8.270
97019SOL     OW92895  10.513   2.245   5.778
97019SOL    HW192896  10.429   2.199   5.771
97019SOL    HW292897  10.494   2.334   5.747
97020SOL     OW92898  11.229  12.751   0.208
97020SOL    HW192899  11.291  12.678   0.200
97020SOL    HW292900  11.149  12.719   0.167
97021SOL     OW92901   9.391   3.735   1.652
97021SOL    HW192902   9.347   3.770   1.729
97021SOL    HW292903   9.479   3.773   1.654
97022SOL     OW92904   0.247   6.633   1.353
97022SOL    HW192905   0.251   6.540   1.330
97022SOL    HW292906   0.278   6.635   1.444
97023SOL     OW92907  11.367   2.356   8.403
97023SOL    HW192908  11.380   2.371   8.497
97023SOL    HW292909  11.327   2.269   8.398
97024SOL     OW92910   9.750  10.275   8.979
97024SOL    HW192911   9.711  10.188   8.988
97024SOL    HW292912   9.773  10.281   8.886
97025SOL     OW92913   1.200  12.238   3.504
97025SOL    HW192914   1.262  12.228   3.576
97025SOL    HW292915   1.244  12.295   3.441
97026SOL     OW92916   2.683  10.324   7.442
97026SOL    HW192917   2.748  10.262   7.475
97026SOL    HW292918   2.706  10.335   7.349
97027SOL     OW92919   8.812   6.061   7.943
97027SOL    HW192920   8.861   6.074   8.024
97027SOL    HW292921   8.865   6.105   7.876
97028SOL     OW92922   9.085   2.793  13.648
97028SOL    HW192923   9.043   2.716  13.686
97028SOL    HW292924   9.012   2.851  13.625
97029SOL     OW92925  11.732   0.142  12.680
97029SOL    HW192926  11.761   0.197  12.753
97029SOL    HW292927  11.715   0.204  12.609
97030SOL     OW92928   8.068  12.747   1.496
97030SOL    HW192929   7.995  12.795   1.457
97030SOL    HW292930   8.083  12.673   1.438
97031SOL     OW92931   1.086   3.925   3.993
97031SOL    HW192932   1.173   3.951   3.961
97031SOL    HW292933   1.103   3.890   4.080
97032SOL     OW92934  11.115  12.107   3.786
97032SOL    HW192935  11.143  12.046   3.718
97032SOL    HW292936  11.025  12.130   3.763
97033SOL     OW92937  14.557   5.002  10.662
97033SOL    HW192938  14.650   4.985  10.643
97033SOL    HW292939  14.558   5.057  10.740
97034SOL     OW92940   2.242   9.738   8.141
97034SOL    HW192941   2.165   9.683   8.133
97034SOL    HW292942   2.292   9.721   8.061
97035SOL     OW92943   3.610   3.273  10.106
97035SOL    HW192944   3.590   3.365  10.124
97035SOL    HW292945   3.631   3.237  10.192
97036SOL     OW92946   8.864   6.837   8.679
97036SOL    HW192947   8.805   6.783   8.731
97036SOL    HW292948   8.831   6.830   8.590
97037SOL     OW92949  13.896   4.982   1.531
97037SOL    HW192950  13.883   4.910   1.469
97037SOL    HW292951  13.957   4.948   1.596
97038SOL     OW92952  13.369   5.737  11.804
97038SOL    HW192953  13.394   5.669  11.741
97038SOL    HW292954  13.304   5.790  11.759
97039SOL     OW92955   2.684  11.993   5.586
97039SOL    HW192956   2.738  12.046   5.643
97039SOL    HW292957   2.651  11.923   5.642
97040SOL     OW92958   8.899   7.756   1.541
97040SOL    HW192959   8.939   7.686   1.594
97040SOL    HW292960   8.892   7.830   1.601
97041SOL     OW92961  10.554  14.766   9.378
97041SOL    HW192962  10.525  14.771   9.287
97041SOL    HW292963  10.635  14.817   9.381
97042SOL     OW92964   4.627   4.638  11.131
97042SOL    HW192965   4.664   4.579  11.066
97042SOL    HW292966   4.549   4.675  11.089
97043SOL     OW92967   2.643  12.432   7.881
97043SOL    HW192968   2.703  12.369   7.920
97043SOL    HW292969   2.560  12.416   7.925
97044SOL     OW92970   0.233   2.513   1.480
97044SOL    HW192971   0.301   2.541   1.418
97044SOL    HW292972   0.212   2.592   1.530
97045SOL     OW92973  10.299   7.915   1.563
97045SOL    HW192974  10.334   7.838   1.607
97045SOL    HW292975  10.213   7.929   1.603
97046SOL     OW92976   8.508   1.640   2.448
97046SOL    HW192977   8.578   1.577   2.431
97046SOL    HW292978   8.447   1.629   2.375
97047SOL     OW92979   7.508   8.626   8.742
97047SOL    HW192980   7.445   8.571   8.788
97047SOL    HW292981   7.457   8.701   8.711
97048SOL     OW92982  11.353   4.843   5.346
97048SOL    HW192983  11.420   4.912   5.344
97048SOL    HW292984  11.349   4.812   5.255
97049SOL     OW92985   3.568   6.243   4.490
97049SOL    HW192986   3.560   6.323   4.543
97049SOL    HW292987   3.564   6.274   4.399
97050SOL     OW92988   9.073  13.848  12.997
97050SOL    HW192989   9.004  13.876  12.937
97050SOL    HW292990   9.060  13.903  13.075
97051SOL     OW92991   0.175   7.613  14.139
97051SOL    HW192992   0.143   7.693  14.097
97051SOL    HW292993   0.206   7.642  14.225
97052SOL     OW92994   9.077   7.711   1.334
97052SOL    HW192995   9.015   7.726   1.406
97052SOL    HW292996   9.163   7.719   1.374
97053SOL     OW92997  14.778   8.705   8.767
97053SOL    HW192998  14.750   8.664   8.685
97053SOL    HW292999  14.861   8.663   8.788
97054SOL     OW93000  11.942   2.396   4.297
97054SOL    HW193001  11.877   2.325   4.291
97054SOL    HW293002  11.994   2.386   4.217
97055SOL     OW93003  11.178   5.607   9.343
97055SOL    HW193004  11.102   5.644   9.300
97055SOL    HW293005  11.143   5.539   9.400
97056SOL     OW93006   7.978   3.630  14.591
97056SOL    HW193007   7.990   3.552  14.537
97056SOL    HW293008   7.934   3.692  14.533
97057SOL     OW93009   9.786  13.185   6.121
97057SOL    HW193010   9.701  13.143   6.131
97057SOL    HW293011   9.837  13.124   6.067
97058SOL     OW93012   1.849   8.690  10.382
97058SOL    HW193013   1.786   8.662  10.448
97058SOL    HW293014   1.919   8.624  10.385
97059SOL     OW93015   3.627   3.461   3.756
97059SOL    HW193016   3.623   3.366   3.769
97059SOL    HW293017   3.670   3.472   3.671
97060SOL     OW93018   1.956  11.910   2.463
97060SOL    HW193019   1.920  11.833   2.418
97060SOL    HW293020   2.047  11.913   2.435
97061SOL     OW93021   5.250  14.265   9.655
97061SOL    HW193022   5.344  14.270   9.673
97061SOL    HW293023   5.236  14.324   9.581
97062SOL     OW93024   9.334   3.714   5.944
97062SOL    HW193025   9.317   3.799   5.985
97062SOL    HW293026   9.393   3.734   5.871
97063SOL     OW93027   4.965   9.108   4.157
97063SOL    HW193028   5.058   9.127   4.166
97063SOL    HW293029   4.932   9.177   4.100
97064SOL     OW93030  10.075   8.070   1.666
97064SOL    HW193031  10.138   8.118   1.720
97064SOL    HW293032  10.014   8.031   1.728
97065SOL     OW93033   5.760   4.001   5.954
97065SOL    HW193034   5.715   4.069   5.906
97065SOL    HW293035   5.853   4.024   5.947
97066SOL     OW93036  10.437   0.310  10.603
97066SOL    HW193037  10.526   0.283  10.627
97066SOL    HW293038  10.435   0.302  10.507
97067SOL     OW93039   9.491   8.178   7.439
97067SOL    HW193040   9.495   8.205   7.530
97067SOL    HW293041   9.435   8.243   7.396
97068SOL     OW93042  11.372  10.270   3.090
97068SOL    HW193043  11.347  10.355   3.125
97068SOL    HW293044  11.399  10.219   3.167
97069SOL     OW93045   2.977   6.134   3.784
97069SOL    HW193046   2.967   6.042   3.761
97069SOL    HW293047   2.896   6.175   3.755
97070SOL     OW93048   9.431   7.858   7.026
97070SOL    HW193049   9.422   7.951   7.004
97070SOL    HW293050   9.455   7.858   7.119
97071SOL     OW93051   2.491  11.693  11.675
97071SOL    HW193052   2.434  11.616  11.677
97071SOL    HW293053   2.562  11.672  11.735
97072SOL     OW93054  12.922  14.853  10.799
97072SOL    HW193055  12.895  14.862  10.891
97072SOL    HW293056  12.843  14.873  10.749
97073SOL     OW93057  10.140   6.075   1.191
97073SOL    HW193058  10.143   5.980   1.181
97073SOL    HW293059  10.205   6.095   1.258
97074SOL     OW93060  12.653   4.434   7.086
97074SOL    HW193061  12.706   4.456   7.010
97074SOL    HW293062  12.717   4.419   7.156
97075SOL     OW93063   7.760   7.032   4.041
97075SOL    HW193064   7.831   6.967   4.041
97075SOL    HW293065   7.763   7.070   4.129
97076SOL     OW93066  12.080  14.274   3.600
97076SOL    HW193067  12.040  14.343   3.654
97076SOL    HW293068  12.134  14.224   3.662
97077SOL     OW93069   4.404   1.434   0.371
97077SOL    HW193070   4.453   1.430   0.289
97077SOL    HW293071   4.349   1.512   0.362
97078SOL     OW93072   4.963   9.537  10.396
97078SOL    HW193073   4.983   9.629  10.411
97078SOL    HW293074   4.869   9.535  10.376
97079SOL     OW93075   0.108   4.152   7.896
97079SOL    HW193076   0.095   4.225   7.835
97079SOL    HW293077   0.102   4.074   7.841
97080SOL     OW93078   5.289  14.262   3.633
97080SOL    HW193079   5.252  14.318   3.565
97080SOL    HW293080   5.273  14.308   3.715
97081SOL     OW93081   8.031  14.504  13.732
97081SOL    HW193082   8.077  14.420  13.736
97081SOL    HW293083   7.998  14.508  13.642
97082SOL     OW93084   7.842  12.846   5.130
97082SOL    HW193085   7.792  12.776   5.172
97082SOL    HW293086   7.804  12.927   5.164
97083SOL     OW93087  10.195  13.506   0.687
97083SOL    HW193088  10.126  13.572   0.690
97083SOL    HW293089  10.156  13.428   0.725
97084SOL     OW93090  12.613  10.473  11.521
97084SOL    HW193091  12.632  10.390  11.565
97084SOL    HW293092  12.605  10.450  11.428
97085SOL     OW93093  12.924   8.120   6.470
97085SOL    HW193094  12.893   8.058   6.536
97085SOL    HW293095  12.926   8.205   6.514
97086SOL     OW93096   2.133   5.884   3.964
97086SOL    HW193097   2.056   5.852   3.916
97086SOL    HW293098   2.207   5.844   3.919
97087SOL     OW93099  14.363  13.936  14.538
97087SOL    HW193100  14.355  13.947  14.443
97087SOL    HW293101  14.365  14.026  14.572
97088SOL     OW93102   4.383   0.854   4.226
97088SOL    HW193103   4.447   0.784   4.220
97088SOL    HW293104   4.426   0.922   4.278
97089SOL     OW93105   0.792   5.686  14.169
97089SOL    HW193106   0.844   5.661  14.244
97089SOL    HW293107   0.808   5.617  14.104
97090SOL     OW93108   1.906   0.742  14.827
97090SOL    HW193109   1.980   0.681  14.825
97090SOL    HW293110   1.891   0.764  14.735
97091SOL     OW93111   8.315  11.865   3.203
97091SOL    HW193112   8.254  11.791   3.207
97091SOL    HW293113   8.296  11.916   3.282
97092SOL     OW93114   7.660  10.669   2.931
97092SOL    HW193115   7.660  10.690   2.838
97092SOL    HW293116   7.728  10.602   2.941
97093SOL     OW93117   9.648   8.110   7.229
97093SOL    HW193118   9.593   8.124   7.151
97093SOL    HW293119   9.593   8.137   7.302
97094SOL     OW93120   1.816   0.182  11.376
97094SOL    HW193121   1.899   0.137  11.362
97094SOL    HW293122   1.750   0.123  11.340
97095SOL     OW93123  10.419  10.327   0.453
97095SOL    HW193124  10.361  10.359   0.385
97095SOL    HW293125  10.481  10.397   0.468
97096SOL     OW93126   6.358   5.390   6.216
97096SOL    HW193127   6.342   5.389   6.310
97096SOL    HW293128   6.417   5.316   6.201
97097SOL     OW93129   5.805   6.429   3.805
97097SOL    HW193130   5.756   6.496   3.758
97097SOL    HW293131   5.740   6.362   3.827
97098SOL     OW93132   8.122   3.697   5.127
97098SOL    HW193133   8.075   3.758   5.071
97098SOL    HW293134   8.194   3.665   5.073
97099SOL     OW93135  10.694  13.594   5.760
97099SOL    HW193136  10.662  13.576   5.672
97099SOL    HW293137  10.615  13.597   5.814
97100SOL     OW93138  12.178   1.866  10.206
97100SOL    HW193139  12.197   1.773  10.196
97100SOL    HW293140  12.090   1.876  10.169
97101SOL     OW93141   0.372   0.798   2.885
97101SOL    HW193142   0.279   0.778   2.881
97101SOL    HW293143   0.376   0.894   2.886
97102SOL     OW93144   5.504  13.254   3.834
97102SOL    HW193145   5.418  13.295   3.829
97102SOL    HW293146   5.562  13.313   3.786
97103SOL     OW93147   6.356   7.968   3.845
97103SOL    HW193148   6.427   8.024   3.813
97103SOL    HW293149   6.401   7.896   3.890
97104SOL     OW93150  11.743   7.238   7.944
97104SOL    HW193151  11.804   7.311   7.938
97104SOL    HW293152  11.798   7.162   7.963
97105SOL     OW93153  10.601   4.993  14.191
97105SOL    HW193154  10.662   5.021  14.259
97105SOL    HW293155  10.650   5.002  14.110
97106SOL     OW93156  14.050  12.837   8.385
97106SOL    HW193157  14.123  12.799   8.433
97106SOL    HW293158  14.089  12.865   8.301
97107SOL     OW93159  14.514   3.993   3.444
97107SOL    HW193160  14.470   4.041   3.515
97107SOL    HW293161  14.515   4.054   3.371
97108SOL     OW93162   4.881   0.584   0.984
97108SOL    HW193163   4.824   0.526   1.034
97108SOL    HW293164   4.893   0.539   0.900
97109SOL     OW93165   9.840   4.960   0.913
97109SOL    HW193166   9.746   4.944   0.917
97109SOL    HW293167   9.854   5.007   0.832
97110SOL     OW93168  13.213  11.774  12.285
97110SOL    HW193169  13.147  11.841  12.269
97110SOL    HW293170  13.171  11.714  12.348
97111SOL     OW93171  12.875   6.086   3.034
97111SOL    HW193172  12.825   6.151   2.984
97111SOL    HW293173  12.966   6.107   3.017
97112SOL     OW93174  12.195   7.839   9.957
97112SOL    HW193175  12.158   7.843   9.869
97112SOL    HW293176  12.125   7.874  10.013
97113SOL     OW93177   9.391   9.727  12.700
97113SOL    HW193178   9.460   9.788  12.671
97113SOL    HW293179   9.419   9.642  12.667
97114SOL     OW93180  13.452   7.916   4.070
97114SOL    HW193181  13.547   7.918   4.072
97114SOL    HW293182  13.425   7.987   4.128
97115SOL     OW93183  10.523   5.270   0.913
97115SOL    HW193184  10.516   5.364   0.897
97115SOL    HW293185  10.593   5.241   0.854
97116SOL     OW93186  11.394   5.250   4.871
97116SOL    HW193187  11.426   5.309   4.803
97116SOL    HW293188  11.300   5.246   4.856
97117SOL     OW93189   2.116   4.738   3.172
97117SOL    HW193190   2.176   4.773   3.237
97117SOL    HW293191   2.035   4.787   3.187
97118SOL     OW93192  11.509  13.608   2.238
97118SOL    HW193193  11.498  13.632   2.146
97118SOL    HW293194  11.427  13.566   2.263
97119SOL     OW93195   7.460   9.543   3.242
97119SOL    HW193196   7.475   9.473   3.305
97119SOL    HW293197   7.547   9.571   3.215
97120SOL     OW93198   5.569   8.575   5.351
97120SOL    HW193199   5.634   8.530   5.405
97120SOL    HW293200   5.498   8.511   5.341
97121SOL     OW93201   0.263   0.920  12.441
97121SOL    HW193202   0.195   0.859  12.413
97121SOL    HW293203   0.234   1.005  12.410
97122SOL     OW93204   9.828  10.857   0.201
97122SOL    HW193205   9.788  10.874   0.116
97122SOL    HW293206   9.848  10.763   0.199
97123SOL     OW93207   2.885   4.122   2.261
97123SOL    HW193208   2.846   4.090   2.342
97123SOL    HW293209   2.838   4.203   2.241
97124SOL     OW93210   4.460   5.264   8.128
97124SOL    HW193211   4.507   5.204   8.186
97124SOL    HW293212   4.465   5.349   8.172
97125SOL     OW93213  13.535   7.232  11.355
97125SOL    HW193214  13.537   7.269  11.267
97125SOL    HW293215  13.500   7.302  11.409
97126SOL     OW93216  13.912   4.490   7.765
97126SOL    HW193217  13.850   4.433   7.719
97126SOL    HW293218  13.996   4.473   7.722
97127SOL     OW93219   1.348  14.241   1.779
97127SOL    HW193220   1.424  14.278   1.734
97127SOL    HW293221   1.359  14.266   1.871
97128SOL     OW93222  12.671   2.827   8.983
97128SOL    HW193223  12.599   2.764   8.987
97128SOL    HW293224  12.633   2.909   9.017
97129SOL     OW93225   4.649   7.376   7.704
97129SOL    HW193226   4.640   7.377   7.799
97129SOL    HW293227   4.561   7.360   7.671
97130SOL     OW93228   8.878  14.818  14.641
97130SOL    HW193229   8.939   0.005  14.672
97130SOL    HW293230   8.798  14.867  14.619
97131SOL     OW93231  10.875   5.940   9.046
97131SOL    HW193232  10.958   5.900   9.020
97131SOL    HW293233  10.894   6.033   9.054
97132SOL     OW93234  14.604  14.640   6.528
97132SOL    HW193235  14.643  14.606   6.448
97132SOL    HW293236  14.636  14.730   6.534
97133SOL     OW93237   6.517   8.267  13.961
97133SOL    HW193238   6.558   8.317  13.890
97133SOL    HW293239   6.425   8.260  13.935
97134SOL     OW93240   2.918   6.089   3.254
97134SOL    HW193241   2.874   6.064   3.173
97134SOL    HW293242   2.849   6.122   3.310
97135SOL     OW93243  11.973   3.882  13.145
97135SOL    HW193244  12.005   3.964  13.184
97135SOL    HW293245  12.022   3.874  13.064
97136SOL     OW93246   4.834   3.730   2.712
97136SOL    HW193247   4.847   3.687   2.797
97136SOL    HW293248   4.780   3.668   2.662
97137SOL     OW93249   0.133   8.354   8.824
97137SOL    HW193250   0.199   8.381   8.761
97137SOL    HW293251   0.143   8.259   8.829
97138SOL     OW93252   5.195  11.158   9.854
97138SOL    HW193253   5.266  11.222   9.844
97138SOL    HW293254   5.220  11.085   9.796
97139SOL     OW93255   1.641  11.416   4.328
97139SOL    HW193256   1.548  11.405   4.306
97139SOL    HW293257   1.659  11.507   4.308
97140SOL     OW93258   6.792   4.639  11.010
97140SOL    HW193259   6.824   4.717  10.965
97140SOL    HW293260   6.728   4.601  10.950
97141SOL     OW93261   0.705   4.314  14.070
97141SOL    HW193262   0.788   4.329  14.115
97141SOL    HW293263   0.729   4.303  13.978
97142SOL     OW93264  14.801  12.702  10.708
97142SOL    HW193265  14.773  12.622  10.664
97142SOL    HW293266  14.721  12.738  10.745
97143SOL     OW93267   0.598   0.180  14.320
97143SOL    HW193268   0.610   0.269  14.286
97143SOL    HW293269   0.514   0.152  14.285
97144SOL     OW93270   8.412  13.127   4.086
97144SOL    HW193271   8.392  13.106   3.995
97144SOL    HW293272   8.504  13.154   4.085
97145SOL     OW93273   0.568   2.489  12.021
97145SOL    HW193274   0.485   2.536  12.009
97145SOL    HW293275   0.626   2.525  11.954
97146SOL     OW93276  11.054   1.123   8.196
97146SOL    HW193277  10.984   1.180   8.227
97146SOL    HW293278  11.017   1.035   8.200
97147SOL     OW93279  11.284   4.745  13.224
97147SOL    HW193280  11.356   4.808  13.218
97147SOL    HW293281  11.247   4.760  13.311
97148SOL     OW93282   9.457   1.895   7.729
97148SOL    HW193283   9.457   1.887   7.634
97148SOL    HW293284   9.490   1.811   7.761
97149SOL     OW93285   1.206   2.032   3.892
97149SOL    HW193286   1.152   2.025   3.813
97149SOL    HW293287   1.201   1.946   3.933
97150SOL     OW93288   4.817   3.693   5.890
97150SOL    HW193289   4.748   3.745   5.847
97150SOL    HW293290   4.770   3.638   5.953
97151SOL     OW93291   2.540   3.497   1.586
97151SOL    HW193292   2.599   3.433   1.546
97151SOL    HW293293   2.509   3.455   1.665
97152SOL     OW93294   6.500   2.378   0.986
97152SOL    HW193295   6.415   2.347   1.017
97152SOL    HW293296   6.561   2.308   1.008
97153SOL     OW93297   7.191  13.558   5.770
97153SOL    HW193298   7.145  13.566   5.687
97153SOL    HW293299   7.215  13.466   5.776
97154SOL     OW93300   5.907   1.485  13.216
97154SOL    HW193301   5.867   1.572  13.219
97154SOL    HW293302   5.918   1.467  13.123
97155SOL     OW93303   3.086   6.210   3.535
97155SOL    HW193304   3.016   6.270   3.508
97155SOL    HW293305   3.076   6.204   3.630
97156SOL     OW93306   3.351   5.027   8.521
97156SOL    HW193307   3.361   5.061   8.611
97156SOL    HW293308   3.323   5.103   8.470
97157SOL     OW93309   3.186  10.056   1.653
97157SOL    HW193310   3.171   9.987   1.717
97157SOL    HW293311   3.174  10.137   1.702
97158SOL     OW93312  13.412  11.193   2.418
97158SOL    HW193313  13.461  11.133   2.474
97158SOL    HW293314  13.404  11.274   2.469
97159SOL     OW93315   6.562  10.854  10.498
97159SOL    HW193316   6.628  10.868  10.429
97159SOL    HW293317   6.539  10.943  10.526
97160SOL     OW93318   4.074  11.096   3.293
97160SOL    HW193319   3.997  11.047   3.267
97160SOL    HW293320   4.147  11.053   3.248
97161SOL     OW93321   7.242  13.779  14.336
97161SOL    HW193322   7.175  13.739  14.393
97161SOL    HW293323   7.302  13.708  14.315
97162SOL     OW93324   8.189   9.743  13.796
97162SOL    HW193325   8.276   9.703  13.801
97162SOL    HW293326   8.157   9.741  13.885
97163SOL     OW93327  10.109  12.687   0.404
97163SOL    HW193328  10.068  12.610   0.445
97163SOL    HW293329  10.044  12.716   0.339
97164SOL     OW93330   7.087   5.508   1.553
97164SOL    HW193331   7.130   5.424   1.540
97164SOL    HW293332   7.103   5.557   1.472
97165SOL     OW93333   7.558   7.023  11.889
97165SOL    HW193334   7.501   6.947  11.879
97165SOL    HW293335   7.499   7.095  11.911
97166SOL     OW93336   6.595   1.974   5.414
97166SOL    HW193337   6.512   1.927   5.407
97166SOL    HW293338   6.612   1.978   5.508
97167SOL     OW93339  10.961   7.944   1.085
97167SOL    HW193340  10.974   8.029   1.043
97167SOL    HW293341  10.991   7.881   1.020
97168SOL     OW93342   2.231   0.559   6.333
97168SOL    HW193343   2.326   0.558   6.332
97168SOL    HW293344   2.207   0.475   6.372
97169SOL     OW93345  13.742  11.122   0.889
97169SOL    HW193346  13.673  11.104   0.954
97169SOL    HW293347  13.792  11.041   0.884
97170SOL     OW93348   3.663  12.762   9.618
97170SOL    HW193349   3.673  12.836   9.558
97170SOL    HW293350   3.637  12.802   9.701
97171SOL     OW93351   1.646   3.927   7.298
97171SOL    HW193352   1.735   3.939   7.265
97171SOL    HW293353   1.653   3.946   7.392
97172SOL     OW93354   7.806   8.848   2.713
97172SOL    HW193355   7.730   8.793   2.733
97172SOL    HW293356   7.871   8.823   2.778
97173SOL     OW93357  14.411   7.065   4.540
97173SOL    HW193358  14.457   7.009   4.603
97173SOL    HW293359  14.462   7.058   4.460
97174SOL     OW93360   0.505   1.126  11.387
97174SOL    HW193361   0.576   1.094  11.331
97174SOL    HW293362   0.544   1.130  11.475
97175SOL     OW93363   0.720  11.106   5.760
97175SOL    HW193364   0.701  11.031   5.817
97175SOL    HW293365   0.791  11.152   5.804
97176SOL     OW93366  12.115   6.271   0.239
97176SOL    HW193367  12.134   6.345   0.297
97176SOL    HW293368  12.093   6.199   0.299
97177SOL     OW93369  12.762   3.126  14.579
97177SOL    HW193370  12.844   3.090  14.545
97177SOL    HW293371  12.788   3.206  14.624
97178SOL     OW93372  14.728   4.650   8.783
97178SOL    HW193373  14.680   4.593   8.723
97178SOL    HW293374  14.756   4.592   8.854
97179SOL     OW93375  12.374   2.252  14.841
97179SOL    HW193376  12.327   2.178   0.001
97179SOL    HW293377  12.446   2.270   0.022
97180SOL     OW93378   2.718  13.842   8.932
97180SOL    HW193379   2.748  13.756   8.902
97180SOL    HW293380   2.700  13.830   9.025
97181SOL     OW93381   6.100   8.133   0.643
97181SOL    HW193382   6.055   8.075   0.582
97181SOL    HW293383   6.190   8.099   0.647
97182SOL     OW93384   8.200   8.110   8.627
97182SOL    HW193385   8.160   8.118   8.714
97182SOL    HW293386   8.242   8.195   8.611
97183SOL     OW93387   3.729   1.229  14.353
97183SOL    HW193388   3.746   1.235  14.447
97183SOL    HW293389   3.769   1.308  14.316
97184SOL     OW93390   8.370  13.166  14.563
97184SOL    HW193391   8.419  13.088  14.538
97184SOL    HW293392   8.386  13.229  14.492
97185SOL     OW93393  13.624   0.655   0.132
97185SOL    HW193394  13.653   0.745   0.145
97185SOL    HW293395  13.529   0.657   0.147
97186SOL     OW93396  10.039   4.424   3.315
97186SOL    HW193397  10.034   4.519   3.303
97186SOL    HW293398   9.955   4.391   3.284
97187SOL     OW93399   5.951   9.792   7.013
97187SOL    HW193400   5.869   9.838   7.033
97187SOL    HW293401   5.995   9.848   6.949
97188SOL     OW93402  14.108   4.413   0.248
97188SOL    HW193403  14.199   4.438   0.229
97188SOL    HW293404  14.109   4.318   0.252
97189SOL     OW93405   5.347   0.152   5.727
97189SOL    HW193406   5.381   0.097   5.656
97189SOL    HW293407   5.321   0.233   5.683
97190SOL     OW93408   5.259   2.947   0.500
97190SOL    HW193409   5.246   3.041   0.513
97190SOL    HW293410   5.352   2.933   0.516
97191SOL     OW93411   8.695   4.917   7.812
97191SOL    HW193412   8.767   4.872   7.856
97191SOL    HW293413   8.700   4.887   7.721
97192SOL     OW93414   2.376   5.831   3.618
97192SOL    HW193415   2.372   5.844   3.712
97192SOL    HW293416   2.450   5.772   3.604
97193SOL     OW93417  14.744   3.076   5.279
97193SOL    HW193418  14.676   3.127   5.234
97193SOL    HW293419  14.725   2.985   5.255
97194SOL     OW93420  12.845   1.524   7.894
97194SOL    HW193421  12.933   1.487   7.885
97194SOL    HW293422  12.836   1.582   7.819
97195SOL     OW93423  13.101   6.215   1.194
97195SOL    HW193424  13.027   6.215   1.133
97195SOL    HW293425  13.075   6.157   1.265
97196SOL     OW93426  10.087   2.234   9.811
97196SOL    HW193427  10.062   2.304   9.871
97196SOL    HW293428  10.084   2.154   9.863
97197SOL     OW93429  13.245  12.813   0.780
97197SOL    HW193430  13.291  12.740   0.738
97197SOL    HW293431  13.304  12.842   0.850
97198SOL     OW93432   2.579   9.565   8.219
97198SOL    HW193433   2.646   9.606   8.165
97198SOL    HW293434   2.531   9.638   8.259
97199SOL     OW93435  14.209  13.663   0.417
97199SOL    HW193436  14.301  13.671   0.391
97199SOL    HW293437  14.210  13.683   0.511
97200SOL     OW93438   3.778   5.156   9.162
97200SOL    HW193439   3.812   5.161   9.073
97200SOL    HW293440   3.682   5.160   9.152
97201SOL     OW93441  10.457   4.681  13.028
97201SOL    HW193442  10.542   4.725  13.032
97201SOL    HW293443  10.428   4.678  13.120
97202SOL     OW93444   5.347  14.009  12.002
97202SOL    HW193445   5.334  13.940  11.936
97202SOL    HW293446   5.382  13.962  12.078
97203SOL     OW93447   5.204   4.527   8.729
97203SOL    HW193448   5.137   4.583   8.768
97203SOL    HW293449   5.160   4.443   8.714
97204SOL     OW93450  12.549   3.479   3.820
97204SOL    HW193451  12.480   3.533   3.780
97204SOL    HW293452  12.567   3.411   3.755
97205SOL     OW93453  13.061   9.156  13.804
97205SOL    HW193454  13.144   9.176  13.759
97205SOL    HW293455  13.071   9.066  13.834
97206SOL     OW93456   3.625   4.623  11.267
97206SOL    HW193457   3.667   4.585  11.190
97206SOL    HW293458   3.634   4.718  11.256
97207SOL     OW93459   7.767  14.035   9.417
97207SOL    HW193460   7.708  14.109   9.436
97207SOL    HW293461   7.854  14.074   9.420
97208SOL     OW93462   4.250   6.860   2.929
97208SOL    HW193463   4.196   6.939   2.921
97208SOL    HW293464   4.189   6.788   2.910
97209SOL     OW93465   2.613   8.650  12.098
97209SOL    HW193466   2.617   8.575  12.158
97209SOL    HW293467   2.702   8.658  12.065
97210SOL     OW93468  14.376   9.038   0.585
97210SOL    HW193469  14.401   9.129   0.569
97210SOL    HW293470  14.392   9.025   0.678
97211SOL     OW93471   4.472   4.856  12.507
97211SOL    HW193472   4.534   4.814  12.566
97211SOL    HW293473   4.434   4.785  12.457
97212SOL     OW93474   7.304   9.264   1.770
97212SOL    HW193475   7.348   9.299   1.847
97212SOL    HW293476   7.241   9.200   1.804
97213SOL     OW93477   8.388   9.356   3.500
97213SOL    HW193478   8.361   9.413   3.572
97213SOL    HW293479   8.385   9.268   3.537
97214SOL     OW93480   9.978   4.544   4.344
97214SOL    HW193481   9.939   4.470   4.298
97214SOL    HW293482   9.955   4.531   4.436
97215SOL     OW93483   0.132   8.906   8.543
97215SOL    HW193484   0.057   8.855   8.513
97215SOL    HW293485   0.097   8.961   8.613
97216SOL     OW93486   7.550  13.402  11.738
97216SOL    HW193487   7.540  13.307  11.728
97216SOL    HW293488   7.556  13.435  11.649
97217SOL     OW93489  10.038  11.952   4.696
97217SOL    HW193490   9.995  12.020   4.749
97217SOL    HW293491  10.128  11.949   4.730
97218SOL     OW93492  11.599  12.412   8.237
97218SOL    HW193493  11.562  12.382   8.320
97218SOL    HW293494  11.632  12.500   8.257
97219SOL     OW93495   3.856   6.744  13.775
97219SOL    HW193496   3.826   6.753  13.685
97219SOL    HW293497   3.784   6.699  13.820
97220SOL     OW93498  11.657   7.987   1.172
97220SOL    HW193499  11.661   7.904   1.126
97220SOL    HW293500  11.566   8.014   1.167
97221SOL     OW93501   5.870  10.022  12.288
97221SOL    HW193502   5.898  10.099  12.337
97221SOL    HW293503   5.875   9.950  12.351
97222SOL     OW93504   4.673   6.572  11.843
97222SOL    HW193505   4.755   6.615  11.820
97222SOL    HW293506   4.612   6.643  11.862
97223SOL     OW93507  10.361  13.260   2.427
97223SOL    HW193508  10.453  13.259   2.453
97223SOL    HW293509  10.360  13.225   2.338
97224SOL     OW93510   2.853  12.870   4.670
97224SOL    HW193511   2.857  12.875   4.575
97224SOL    HW293512   2.944  12.874   4.699
97225SOL     OW93513  13.164  10.851   9.366
97225SOL    HW193514  13.103  10.870   9.294
97225SOL    HW293515  13.245  10.825   9.323
97226SOL     OW93516  12.300   4.848   0.609
97226SOL    HW193517  12.300   4.893   0.525
97226SOL    HW293518  12.325   4.758   0.588
97227SOL     OW93519  12.214  10.220  12.689
97227SOL    HW193520  12.295  10.174  12.713
97227SOL    HW293521  12.237  10.271  12.612
97228SOL     OW93522  13.276   1.935  10.354
97228SOL    HW193523  13.188   1.912  10.323
97228SOL    HW293524  13.329   1.940  10.275
97229SOL     OW93525  12.183  14.853   7.111
97229SOL    HW193526  12.135  14.840   7.193
97229SOL    HW293527  12.127  14.815   7.043
97230SOL     OW93528   0.533   2.659   3.784
97230SOL    HW193529   0.529   2.598   3.857
97230SOL    HW293530   0.495   2.611   3.710
97231SOL     OW93531  12.295  11.759   6.211
97231SOL    HW193532  12.288  11.834   6.270
97231SOL    HW293533  12.360  11.702   6.252
97232SOL     OW93534   1.599   0.915   7.875
97232SOL    HW193535   1.509   0.888   7.897
97232SOL    HW293536   1.619   0.984   7.938
97233SOL     OW93537  12.727  11.772   8.522
97233SOL    HW193538  12.739  11.698   8.582
97233SOL    HW293539  12.811  11.777   8.475
97234SOL     OW93540   6.362  10.829  12.841
97234SOL    HW193541   6.395  10.774  12.770
97234SOL    HW293542   6.364  10.772  12.918
97235SOL     OW93543   6.146  12.936  10.732
97235SOL    HW193544   6.201  12.997  10.781
97235SOL    HW293545   6.083  12.992  10.686
97236SOL     OW93546  12.446   2.670  12.761
97236SOL    HW193547  12.432   2.763  12.744
97236SOL    HW293548  12.410   2.656  12.848
97237SOL     OW93549   5.411   0.278  14.768
97237SOL    HW193550   5.492   0.327  14.753
97237SOL    HW293551   5.341   0.342  14.753
97238SOL     OW93552  11.268   2.967  12.992
97238SOL    HW193553  11.290   2.961  13.085
97238SOL    HW293554  11.206   2.897  12.977
97239SOL     OW93555   3.893   4.846   4.868
97239SOL    HW193556   3.961   4.858   4.803
97239SOL    HW293557   3.909   4.758   4.904
97240SOL     OW93558   8.234   6.739   0.758
97240SOL    HW193559   8.226   6.821   0.808
97240SOL    HW293560   8.318   6.746   0.715
97241SOL     OW93561  11.332   5.981   7.100
97241SOL    HW193562  11.268   5.947   7.037
97241SOL    HW293563  11.294   6.064   7.130
97242SOL     OW93564   8.523  11.382   3.740
97242SOL    HW193565   8.508  11.443   3.812
97242SOL    HW293566   8.516  11.435   3.661
97243SOL     OW93567   0.226  10.024   5.891
97243SOL    HW193568   0.255  10.009   5.801
97243SOL    HW293569   0.233  10.118   5.904
97244SOL     OW93570   7.912   3.779   7.219
97244SOL    HW193571   7.841   3.823   7.173
97244SOL    HW293572   7.959   3.849   7.263
97245SOL     OW93573  10.294  14.150   8.149
97245SOL    HW193574  10.281  14.056   8.133
97245SOL    HW293575  10.207  14.188   8.139
97246SOL     OW93576   1.659   1.888  10.303
97246SOL    HW193577   1.679   1.806  10.258
97246SOL    HW293578   1.725   1.950  10.270
97247SOL     OW93579  12.209   3.350   4.163
97247SOL    HW193580  12.160   3.421   4.206
97247SOL    HW293581  12.270   3.395   4.105
97248SOL     OW93582   8.109  12.566   0.959
97248SOL    HW193583   8.053  12.570   0.881
97248SOL    HW293584   8.188  12.614   0.934
97249SOL     OW93585   4.866   6.566   0.531
97249SOL    HW193586   4.911   6.495   0.486
97249SOL    HW293587   4.829   6.525   0.609
97250SOL     OW93588  12.875   3.102   8.826
97250SOL    HW193589  12.842   3.191   8.815
97250SOL    HW293590  12.858   3.059   8.743
97251SOL     OW93591   8.320   7.151   9.637
97251SOL    HW193592   8.388   7.194   9.586
97251SOL    HW293593   8.330   7.185   9.726
97252SOL     OW93594   4.008   7.966  12.095
97252SOL    HW193595   3.998   7.971  12.000
97252SOL    HW293596   3.973   7.881  12.119
97253SOL     OW93597  13.321   5.534   2.681
97253SOL    HW193598  13.261   5.609   2.688
97253SOL    HW293599  13.347   5.517   2.772
97254SOL     OW93600   5.001  13.589  13.590
97254SOL    HW193601   5.059  13.644  13.538
97254SOL    HW293602   4.957  13.533  13.526
97255SOL     OW93603  12.674  12.907  14.438
97255SOL    HW193604  12.633  12.926  14.353
97255SOL    HW293605  12.744  12.845  14.417
97256SOL     OW93606  13.798   3.978  13.708
97256SOL    HW193607  13.718   3.924  13.713
97256SOL    HW293608  13.768   4.062  13.673
97257SOL     OW93609  13.149   6.960   2.018
97257SOL    HW193610  13.182   6.878   1.982
97257SOL    HW293611  13.056   6.944   2.032
97258SOL     OW93612   6.012   0.299  13.079
97258SOL    HW193613   5.992   0.353  13.156
97258SOL    HW293614   5.946   0.324  13.014
97259SOL     OW93615  11.643   8.626   7.377
97259SOL    HW193616  11.576   8.682   7.417
97259SOL    HW293617  11.594   8.552   7.340
97260SOL     OW93618   0.800   1.209   0.482
97260SOL    HW193619   0.848   1.137   0.523
97260SOL    HW293620   0.724   1.223   0.539
97261SOL     OW93621   0.259   2.381   3.013
97261SOL    HW193622   0.212   2.452   3.056
97261SOL    HW293623   0.332   2.423   2.969
97262SOL     OW93624  11.781   9.734  12.693
97262SOL    HW193625  11.853   9.681  12.729
97262SOL    HW293626  11.704   9.705  12.740
97263SOL     OW93627   3.508  14.629   8.517
97263SOL    HW193628   3.567  14.671   8.455
97263SOL    HW293629   3.422  14.635   8.477
97264SOL     OW93630   0.749   8.329   1.819
97264SOL    HW193631   0.694   8.265   1.774
97264SOL    HW293632   0.745   8.407   1.764
97265SOL     OW93633  12.206   3.705  13.270
97265SOL    HW193634  12.168   3.644  13.334
97265SOL    HW293635  12.163   3.788  13.287
97266SOL     OW93636   5.424   3.763  12.681
97266SOL    HW193637   5.485   3.739  12.751
97266SOL    HW293638   5.452   3.710  12.606
97267SOL     OW93639   3.518  10.802   3.188
97267SOL    HW193640   3.550  10.891   3.203
97267SOL    HW293641   3.587  10.746   3.225
97268SOL     OW93642   8.108   4.096   5.732
97268SOL    HW193643   8.137   4.138   5.651
97268SOL    HW293644   8.113   4.003   5.714
97269SOL     OW93645   0.750  13.320   6.305
97269SOL    HW193646   0.749  13.400   6.251
97269SOL    HW293647   0.843  13.299   6.313
97270SOL     OW93648   5.071   3.879  14.643
97270SOL    HW193649   5.089   3.807  14.703
97270SOL    HW293650   5.087   3.958  14.695
97271SOL     OW93651   2.924   1.117   3.206
97271SOL    HW193652   2.926   1.208   3.235
97271SOL    HW293653   3.007   1.105   3.159
97272SOL     OW93654   3.422   8.447   1.152
97272SOL    HW193655   3.493   8.437   1.215
97272SOL    HW293656   3.465   8.446   1.066
97273SOL     OW93657   0.086  10.363   0.704
97273SOL    HW193658   0.115  10.407   0.784
97273SOL    HW293659   0.088  10.430   0.637
97274SOL     OW93660  12.887   4.982  14.352
97274SOL    HW193661  12.966   4.973  14.406
97274SOL    HW293662  12.842   4.898  14.361
97275SOL     OW93663  14.799  12.437   5.850
97275SOL    HW193664  14.714  12.474   5.874
97275SOL    HW293665  14.781  12.385   5.772
97276SOL     OW93666   0.462  14.621  13.702
97276SOL    HW193667   0.453  14.709  13.667
97276SOL    HW293668   0.542  14.587  13.662
97277SOL     OW93669   7.572   4.175  11.094
97277SOL    HW193670   7.646   4.162  11.034
97277SOL    HW293671   7.502   4.121  11.057
97278SOL     OW93672  14.139  10.877  13.015
97278SOL    HW193673  14.113  10.909  13.102
97278SOL    HW293674  14.068  10.905  12.957
97279SOL     OW93675   7.781   7.461   1.845
97279SOL    HW193676   7.835   7.437   1.770
97279SOL    HW293677   7.694   7.479   1.808
97280SOL     OW93678  13.584   7.603   5.095
97280SOL    HW193679  13.588   7.515   5.059
97280SOL    HW293680  13.648   7.653   5.044
97281SOL     OW93681   1.494  14.859  12.877
97281SOL    HW193682   1.471   0.044  12.944
97281SOL    HW293683   1.531   0.031  12.805
97282SOL     OW93684   9.438   0.512   1.825
97282SOL    HW193685   9.520   0.463   1.834
97282SOL    HW293686   9.380   0.452   1.777
97283SOL     OW93687   8.992   0.365  14.394
97283SOL    HW193688   9.044   0.383  14.315
97283SOL    HW293689   9.050   0.389  14.466
97284SOL     OW93690   5.451  14.591   6.924
97284SOL    HW193691   5.390  14.519   6.941
97284SOL    HW293692   5.449  14.602   6.829
97285SOL     OW93693  10.443   7.153   5.960
97285SOL    HW193694  10.488   7.094   6.020
97285SOL    HW293695  10.512   7.210   5.926
97286SOL     OW93696   0.308   5.407  14.404
97286SOL    HW193697   0.224   5.445  14.376
97286SOL    HW293698   0.360   5.402  14.324
97287SOL     OW93699   4.384   7.131  13.883
97287SOL    HW193700   4.475   7.102  13.873
97287SOL    HW293701   4.380   7.165  13.973
97288SOL     OW93702   0.270   5.344  12.178
97288SOL    HW193703   0.196   5.283  12.175
97288SOL    HW293704   0.228   5.430  12.185
97289SOL     OW93705   4.494   2.822   1.530
97289SOL    HW193706   4.532   2.799   1.446
97289SOL    HW293707   4.446   2.744   1.557
97290SOL     OW93708   2.158   9.325   5.749
97290SOL    HW193709   2.078   9.377   5.746
97290SOL    HW293710   2.174   9.311   5.843
97291SOL     OW93711  11.488  12.267   9.291
97291SOL    HW193712  11.538  12.339   9.330
97291SOL    HW293713  11.486  12.200   9.358
97292SOL     OW93714  13.740  10.144   2.408
97292SOL    HW193715  13.656  10.100   2.410
97292SOL    HW293716  13.801  10.079   2.374
97293SOL     OW93717  14.323   7.752   0.184
97293SOL    HW193718  14.385   7.824   0.197
97293SOL    HW293719  14.267   7.782   0.113
97294SOL     OW93720   9.104  14.442   3.677
97294SOL    HW193721   9.050  14.451   3.755
97294SOL    HW293722   9.164  14.517   3.680
97295SOL     OW93723  12.359  14.508   9.282
97295SOL    HW193724  12.336  14.415   9.284
97295SOL    HW293725  12.454  14.510   9.273
97296SOL     OW93726   0.970   6.254   7.490
97296SOL    HW193727   1.018   6.304   7.424
97296SOL    HW293728   0.948   6.172   7.447
97297SOL     OW93729  13.394  12.539  12.412
97297SOL    HW193730  13.389  12.465  12.473
97297SOL    HW293731  13.465  12.516  12.353
97298SOL     OW93732   5.194  10.677  14.248
97298SOL    HW193733   5.207  10.753  14.305
97298SOL    HW293734   5.137  10.618  14.298
97299SOL     OW93735   3.150   3.005   2.634
97299SOL    HW193736   3.169   3.090   2.673
97299SOL    HW293737   3.215   2.996   2.564
97300SOL     OW93738  13.656  12.744  11.115
97300SOL    HW193739  13.682  12.825  11.071
97300SOL    HW293740  13.724  12.681  11.092
97301SOL     OW93741   4.812   7.131   0.226
97301SOL    HW193742   4.764   7.205   0.188
97301SOL    HW293743   4.901   7.163   0.236
97302SOL     OW93744   8.760   9.918   6.698
97302SOL    HW193745   8.807   9.860   6.638
97302SOL    HW293746   8.765  10.004   6.657
97303SOL     OW93747   2.448   8.055   0.958
97303SOL    HW193748   2.451   8.010   0.874
97303SOL    HW293749   2.442   7.985   1.023
97304SOL     OW93750   0.357   0.436   2.533
97304SOL    HW193751   0.319   0.377   2.468
97304SOL    HW293752   0.284   0.492   2.561
97305SOL     OW93753  13.454  11.153  14.319
97305SOL    HW193754  13.524  11.102  14.361
97305SOL    HW293755  13.431  11.102  14.241
97306SOL     OW93756   3.486   1.479   9.531
97306SOL    HW193757   3.489   1.506   9.439
97306SOL    HW293758   3.569   1.435   9.547
97307SOL     OW93759   0.410   9.425   3.483
97307SOL    HW193760   0.495   9.382   3.467
97307SOL    HW293761   0.396   9.479   3.405
97308SOL     OW93762  14.609   5.771   9.621
97308SOL    HW193763  14.690   5.800   9.579
97308SOL    HW293764  14.591   5.685   9.583
97309SOL     OW93765   5.280   3.341   7.042
97309SOL    HW193766   5.257   3.272   6.979
97309SOL    HW293767   5.196   3.368   7.080
97310SOL     OW93768   9.204  14.404  12.397
97310SOL    HW193769   9.191  14.312  12.419
97310SOL    HW293770   9.242  14.443  12.476
97311SOL     OW93771   8.462   2.069   8.584
97311SOL    HW193772   8.411   2.139   8.625
97311SOL    HW293773   8.543   2.112   8.557
97312SOL     OW93774   3.869   4.755   3.923
97312SOL    HW193775   3.905   4.814   3.990
97312SOL    HW293776   3.852   4.673   3.969
97313SOL     OW93777   4.733   1.563   7.971
97313SOL    HW193778   4.702   1.651   7.993
97313SOL    HW293779   4.828   1.571   7.968
97314SOL     OW93780   7.723   9.558  11.277
97314SOL    HW193781   7.705   9.573  11.184
97314SOL    HW293782   7.641   9.578  11.321
97315SOL     OW93783   0.232  13.714   4.726
97315SOL    HW193784   0.175  13.714   4.650
97315SOL    HW293785   0.318  13.691   4.692
97316SOL     OW93786   0.215   4.329   3.938
97316SOL    HW193787   0.188   4.290   4.021
97316SOL    HW293788   0.205   4.259   3.873
97317SOL     OW93789   8.565   7.304   1.907
97317SOL    HW193790   8.554   7.398   1.917
97317SOL    HW293791   8.518   7.266   1.981
97318SOL     OW93792   1.808  10.851   9.829
97318SOL    HW193793   1.751  10.867   9.904
97318SOL    HW293794   1.793  10.759   9.806
97319SOL     OW93795   7.665   9.279   9.143
97319SOL    HW193796   7.678   9.372   9.126
97319SOL    HW293797   7.587   9.256   9.092
97320SOL     OW93798   2.554   0.411   8.186
97320SOL    HW193799   2.609   0.336   8.163
97320SOL    HW293800   2.573   0.427   8.279
97321SOL     OW93801   7.474   6.254  10.725
97321SOL    HW193802   7.412   6.324  10.745
97321SOL    HW293803   7.432   6.205  10.654
97322SOL     OW93804   7.525   9.085   7.089
97322SOL    HW193805   7.547   8.993   7.095
97322SOL    HW293806   7.549   9.110   7.000
97323SOL     OW93807  13.388  13.358   4.974
97323SOL    HW193808  13.365  13.294   4.907
97323SOL    HW293809  13.386  13.442   4.929
97324SOL     OW93810  11.637  12.077   1.441
97324SOL    HW193811  11.692  12.144   1.399
97324SOL    HW293812  11.698  12.023   1.491
97325SOL     OW93813  14.016   0.554   8.089
97325SOL    HW193814  14.050   0.643   8.091
97325SOL    HW293815  13.946   0.556   8.023
97326SOL     OW93816   2.054   9.315   0.880
97326SOL    HW193817   2.051   9.316   0.975
97326SOL    HW293818   1.964   9.295   0.853
97327SOL     OW93819  14.616   8.668   5.123
97327SOL    HW193820  14.574   8.609   5.184
97327SOL    HW293821  14.588   8.638   5.036
97328SOL     OW93822  10.431   0.073  10.007
97328SOL    HW193823  10.513   0.109   9.972
97328SOL    HW293824  10.362   0.115   9.955
97329SOL     OW93825   1.267   3.046   8.933
97329SOL    HW193826   1.317   3.126   8.917
97329SOL    HW293827   1.277   2.994   8.853
97330SOL     OW93828  10.495   3.972  11.509
97330SOL    HW193829  10.479   3.880  11.488
97330SOL    HW293830  10.586   3.975  11.538
97331SOL     OW93831  10.433   3.266  11.020
97331SOL    HW193832  10.449   3.225  10.935
97331SOL    HW293833  10.520   3.282  11.055
97332SOL     OW93834   5.138   2.965   1.354
97332SOL    HW193835   5.070   2.898   1.353
97332SOL    HW293836   5.108   3.030   1.289
97333SOL     OW93837   7.180   2.535   8.009
97333SOL    HW193838   7.270   2.555   7.983
97333SOL    HW293839   7.168   2.582   8.091
97334SOL     OW93840   4.258   7.368  13.454
97334SOL    HW193841   4.263   7.303  13.525
97334SOL    HW293842   4.341   7.415  13.458
97335SOL     OW93843   4.724   2.450  10.177
97335SOL    HW193844   4.780   2.514  10.133
97335SOL    HW293845   4.731   2.371  10.123
97336SOL     OW93846   9.312   6.364   6.437
97336SOL    HW193847   9.300   6.401   6.349
97336SOL    HW293848   9.247   6.409   6.491
97337SOL     OW93849   2.672   5.717   1.224
97337SOL    HW193850   2.581   5.735   1.251
97337SOL    HW293851   2.670   5.628   1.192
97338SOL     OW93852   2.499   5.798  13.855
97338SOL    HW193853   2.481   5.830  13.943
97338SOL    HW293854   2.491   5.703  13.862
97339SOL     OW93855   3.412   7.736   2.805
97339SOL    HW193856   3.366   7.777   2.879
97339SOL    HW293857   3.415   7.643   2.828
97340SOL     OW93858   0.666   7.201   2.813
97340SOL    HW193859   0.664   7.217   2.907
97340SOL    HW293860   0.641   7.285   2.774
97341SOL     OW93861   9.204   7.103   1.491
97341SOL    HW193862   9.273   7.036   1.494
97341SOL    HW293863   9.205   7.142   1.578
97342SOL     OW93864   0.452   5.603  13.937
97342SOL    HW193865   0.434   5.534  13.873
97342SOL    HW293866   0.448   5.558  14.022
97343SOL     OW93867   3.321   8.464   8.694
97343SOL    HW193868   3.235   8.498   8.670
97343SOL    HW293869   3.307   8.371   8.709
97344SOL     OW93870   2.017   9.818  11.754
97344SOL    HW193871   1.939   9.775  11.791
97344SOL    HW293872   1.981   9.887  11.697
97345SOL     OW93873   3.076   9.033   1.191
97345SOL    HW193874   3.092   9.097   1.261
97345SOL    HW293875   2.981   9.036   1.177
97346SOL     OW93876   0.755   8.734   3.941
97346SOL    HW193877   0.662   8.753   3.932
97346SOL    HW293878   0.790   8.806   3.993
97347SOL     OW93879  11.874   5.082  12.572
97347SOL    HW193880  11.942   5.146  12.595
97347SOL    HW293881  11.855   5.100  12.480
97348SOL     OW93882  13.014   5.469  14.754
97348SOL    HW193883  12.985   5.382  14.779
97348SOL    HW293884  12.975   5.484  14.668
97349SOL     OW93885   2.483   2.556   1.529
97349SOL    HW193886   2.518   2.469   1.552
97349SOL    HW293887   2.520   2.575   1.443
97350SOL     OW93888   1.066  14.825   0.375
97350SOL    HW193889   1.070  14.731   0.357
97350SOL    HW293890   1.031  14.863   0.294
97351SOL     OW93891   5.273   5.822   2.336
97351SOL    HW193892   5.335   5.749   2.334
97351SOL    HW293893   5.298   5.873   2.413
97352SOL     OW93894   2.110  11.336  13.566
97352SOL    HW193895   2.015  11.331  13.561
97352SOL    HW293896   2.133  11.279  13.640
97353SOL     OW93897   7.213  10.116   9.612
97353SOL    HW193898   7.197  10.206   9.638
97353SOL    HW293899   7.216  10.067   9.694
97354SOL     OW93900  10.086   6.740  12.885
97354SOL    HW193901  10.181   6.736  12.901
97354SOL    HW293902  10.074   6.821  12.836
97355SOL     OW93903   9.784   7.416  14.747
97355SOL    HW193904   9.772   7.449  14.836
97355SOL    HW293905   9.695   7.412  14.711
97356SOL     OW93906   5.614  13.699   9.262
97356SOL    HW193907   5.674  13.679   9.334
97356SOL    HW293908   5.553  13.763   9.298
97357SOL     OW93909   4.824   9.381   2.775
97357SOL    HW193910   4.770   9.393   2.696
97357SOL    HW293911   4.790   9.301   2.815
97358SOL     OW93912  14.339   4.444  10.083
97358SOL    HW193913  14.337   4.534  10.049
97358SOL    HW293914  14.421   4.439  10.132
97359SOL     OW93915  10.986   6.678   6.125
97359SOL    HW193916  10.915   6.633   6.079
97359SOL    HW293917  11.064   6.657   6.075
97360SOL     OW93918   4.324   4.657  12.662
97360SOL    HW193919   4.239   4.653  12.707
97360SOL    HW293920   4.385   4.615  12.722
97361SOL     OW93921   4.713   6.818   8.492
97361SOL    HW193922   4.791   6.864   8.460
97361SOL    HW293923   4.702   6.849   8.582
97362SOL     OW93924  14.642  13.695   0.986
97362SOL    HW193925  14.677  13.768   1.038
97362SOL    HW293926  14.704  13.624   1.000
97363SOL     OW93927   2.921   1.491   2.979
97363SOL    HW193928   2.958   1.579   2.991
97363SOL    HW293929   2.880   1.494   2.892
97364SOL     OW93930  14.183   0.368   7.814
97364SOL    HW193931  14.273   0.398   7.830
97364SOL    HW293932  14.148   0.352   7.902
97365SOL     OW93933  14.855   0.120  11.990
97365SOL    HW193934  14.868   0.139  11.897
97365SOL    HW293935  14.793   0.186  12.020
97366SOL     OW93936   4.073   7.498   2.385
97366SOL    HW193937   4.161   7.532   2.405
97366SOL    HW293938   4.086   7.445   2.306
97367SOL     OW93939   1.600  10.131   4.959
97367SOL    HW193940   1.506  10.123   4.947
97367SOL    HW293941   1.637  10.117   4.872
97368SOL     OW93942   3.004   9.751   9.296
97368SOL    HW193943   3.024   9.659   9.281
97368SOL    HW293944   3.059   9.775   9.371
97369SOL     OW93945   6.442   7.945   6.765
97369SOL    HW193946   6.347   7.956   6.772
97369SOL    HW293947   6.478   7.996   6.837
97370SOL     OW93948   8.327  14.623   1.728
97370SOL    HW193949   8.323  14.551   1.664
97370SOL    HW293950   8.239  14.628   1.765
97371SOL     OW93951  10.565   0.041   2.805
97371SOL    HW193952  10.614  14.844   2.774
97371SOL    HW293953  10.540   0.018   2.895
97372SOL     OW93954   3.872  10.341   9.114
97372SOL    HW193955   3.825  10.377   9.189
97372SOL    HW293956   3.810  10.279   9.075
97373SOL     OW93957   2.122  10.723   7.903
97373SOL    HW193958   2.199  10.697   7.953
97373SOL    HW293959   2.156  10.757   7.821
97374SOL     OW93960   3.646  11.985  11.061
97374SOL    HW193961   3.684  12.064  11.099
97374SOL    HW293962   3.704  11.914  11.090
97375SOL     OW93963  11.129   7.273   4.886
97375SOL    HW193964  11.036   7.282   4.867
97375SOL    HW293965  11.152   7.352   4.935
97376SOL     OW93966   3.389   9.011   3.045
97376SOL    HW193967   3.340   8.937   3.082
97376SOL    HW293968   3.469   9.014   3.097
97377SOL     OW93969  14.346  10.704  11.590
97377SOL    HW193970  14.359  10.747  11.506
97377SOL    HW293971  14.430  10.663  11.610
97378SOL     OW93972   6.169  13.423   8.494
97378SOL    HW193973   6.087  13.470   8.507
97378SOL    HW293974   6.231  13.465   8.554
97379SOL     OW93975   4.005  12.822   6.317
97379SOL    HW193976   3.982  12.751   6.377
97379SOL    HW293977   4.032  12.893   6.375
97380SOL     OW93978   0.729  11.231   1.887
97380SOL    HW193979   0.734  11.241   1.792
97380SOL    HW293980   0.780  11.304   1.922
97381SOL     OW93981   2.406   7.470   4.471
97381SOL    HW193982   2.392   7.480   4.565
97381SOL    HW293983   2.496   7.500   4.457
97382SOL     OW93984   4.019   6.604  11.520
97382SOL    HW193985   4.073   6.684  11.515
97382SOL    HW293986   3.982   6.605  11.608
97383SOL     OW93987  12.149  10.404   0.324
97383SOL    HW193988  12.096  10.387   0.402
97383SOL    HW293989  12.187  10.319   0.302
97384SOL     OW93990   9.560  10.287  14.024
97384SOL    HW193991   9.645  10.291  13.980
97384SOL    HW293992   9.562  10.204  14.073
97385SOL     OW93993   7.821   7.020   7.141
97385SOL    HW193994   7.827   6.994   7.049
97385SOL    HW293995   7.730   7.002   7.165
97386SOL     OW93996   0.477   1.909   5.718
97386SOL    HW193997   0.561   1.862   5.715
97386SOL    HW293998   0.417   1.849   5.761
97387SOL     OW93999   0.971   0.969   0.251
97387SOL    HW194000   1.030   0.965   0.326
97387SOL    HW294001   0.953   0.878   0.229
97388SOL     OW94002  14.712   1.432   5.606
97388SOL    HW194003  14.629   1.460   5.644
97388SOL    HW294004  14.704   1.452   5.513
97389SOL     OW94005  14.069   6.085   1.287
97389SOL    HW194006  14.050   6.027   1.360
97389SOL    HW294007  14.155   6.057   1.255
97390SOL     OW94008   0.958  13.758   8.837
97390SOL    HW194009   0.888  13.708   8.878
97390SOL    HW294010   0.985  13.821   8.904
97391SOL     OW94011  13.849  10.989   2.451
97391SOL    HW194012  13.827  11.022   2.539
97391SOL    HW294013  13.939  11.019   2.436
97392SOL     OW94014   8.606  10.711   9.055
97392SOL    HW194015   8.597  10.616   9.044
97392SOL    HW294016   8.566  10.730   9.140
97393SOL     OW94017   5.322   9.211   9.445
97393SOL    HW194018   5.260   9.234   9.376
97393SOL    HW294019   5.320   9.115   9.448
97394SOL     OW94020  11.150   4.068  13.336
97394SOL    HW194021  11.068   4.019  13.329
97394SOL    HW294022  11.154   4.095  13.427
97395SOL     OW94023   6.733   6.967  11.596
97395SOL    HW194024   6.642   6.993  11.612
97395SOL    HW294025   6.727   6.897  11.531
97396SOL     OW94026  10.647   2.790  11.125
97396SOL    HW194027  10.577   2.751  11.177
97396SOL    HW294028  10.626   2.883  11.122
97397SOL     OW94029   7.112   5.666  14.124
97397SOL    HW194030   7.158   5.741  14.089
97397SOL    HW294031   7.140   5.661  14.216
97398SOL     OW94032   4.572  13.481   0.584
97398SOL    HW194033   4.595  13.445   0.499
97398SOL    HW294034   4.656  13.498   0.627
97399SOL     OW94035   0.672   1.196   6.238
97399SOL    HW194036   0.632   1.126   6.289
97399SOL    HW294037   0.679   1.160   6.149
97400SOL     OW94038  12.421  13.236   7.002
97400SOL    HW194039  12.472  13.267   7.076
97400SOL    HW294040  12.450  13.145   6.990
97401SOL     OW94041   1.971   2.682  13.577
97401SOL    HW194042   2.063   2.656  13.573
97401SOL    HW294043   1.967   2.766  13.532
97402SOL     OW94044   7.239   8.216   3.928
97402SOL    HW194045   7.190   8.151   3.978
97402SOL    HW294046   7.329   8.184   3.927
97403SOL     OW94047  10.532  10.688   0.713
97403SOL    HW194048  10.493  10.751   0.773
97403SOL    HW294049  10.576  10.742   0.647
97404SOL     OW94050   4.847   0.977   6.426
97404SOL    HW194051   4.929   1.026   6.433
97404SOL    HW294052   4.781   1.043   6.404
97405SOL     OW94053  12.400   3.294   2.628
97405SOL    HW194054  12.313   3.331   2.613
97405SOL    HW294055  12.383   3.210   2.671
97406SOL     OW94056  10.254   1.958  11.111
97406SOL    HW194057  10.290   1.902  11.042
97406SOL    HW294058  10.315   1.948  11.184
97407SOL     OW94059   8.812   5.407   2.029
97407SOL    HW194060   8.824   5.471   1.959
97407SOL    HW294061   8.788   5.459   2.105
97408SOL     OW94062  10.968  12.782   9.003
97408SOL    HW194063  10.902  12.730   8.957
97408SOL    HW294064  10.923  12.814   9.081
97409SOL     OW94065  11.389  13.454   7.950
97409SOL    HW194066  11.341  13.492   8.024
97409SOL    HW294067  11.475  13.434   7.986
97410SOL     OW94068   6.302   8.436   4.291
97410SOL    HW194069   6.326   8.525   4.316
97410SOL    HW294070   6.292   8.390   4.374
97411SOL     OW94071   9.919  13.335   9.113
97411SOL    HW194072   9.883  13.414   9.073
97411SOL    HW294073   9.992  13.366   9.166
97412SOL     OW94074   2.513  14.788   2.566
97412SOL    HW194075   2.527  14.758   2.476
97412SOL    HW294076   2.550  14.719   2.620
97413SOL     OW94077   3.795   2.404  11.265
97413SOL    HW194078   3.874   2.457  11.277
97413SOL    HW294079   3.818   2.344  11.194
97414SOL     OW94080  11.310   7.412   9.855
97414SOL    HW194081  11.392   7.460   9.852
97414SOL    HW294082  11.242   7.478   9.840
97415SOL     OW94083   5.964   7.519  12.579
97415SOL    HW194084   5.920   7.580  12.520
97415SOL    HW294085   6.045   7.495  12.533
97416SOL     OW94086   6.492   1.077   6.274
97416SOL    HW194087   6.412   1.090   6.326
97416SOL    HW294088   6.549   1.149   6.299
97417SOL     OW94089   7.102   2.976   9.042
97417SOL    HW194090   7.117   2.905   8.979
97417SOL    HW294091   7.171   2.965   9.107
97418SOL     OW94092  13.579   7.380   9.986
97418SOL    HW194093  13.552   7.461   9.942
97418SOL    HW294094  13.655   7.406  10.039
97419SOL     OW94095  12.600   1.045  14.244
97419SOL    HW194096  12.528   0.983  14.235
97419SOL    HW294097  12.562   1.121  14.288
97420SOL     OW94098   0.361  14.007   9.568
97420SOL    HW194099   0.285  14.057   9.597
97420SOL    HW294100   0.432  14.037   9.625
97421SOL     OW94101  14.272  11.614  10.266
97421SOL    HW194102  14.287  11.685  10.204
97421SOL    HW294103  14.192  11.638  10.312
97422SOL     OW94104   2.310   0.008   4.290
97422SOL    HW194105   2.280  14.797   4.303
97422SOL    HW294106   2.284   0.029   4.200
97423SOL     OW94107   4.880  13.456   9.943
97423SOL    HW194108   4.833  13.500  10.014
97423SOL    HW294109   4.855  13.503   9.864
97424SOL     OW94110  11.090  13.232   0.497
97424SOL    HW194111  11.017  13.289   0.474
97424SOL    HW294112  11.167  13.290   0.494
97425SOL     OW94113   7.824  10.927   5.191
97425SOL    HW194114   7.808  11.013   5.153
97425SOL    HW294115   7.873  10.880   5.123
97426SOL     OW94116   0.674   0.327   0.092
97426SOL    HW194117   0.582   0.312   0.115
97426SOL    HW294118   0.672   0.400   0.030
97427SOL     OW94119  14.124  11.924   8.173
97427SOL    HW194120  14.140  11.999   8.230
97427SOL    HW294121  14.095  11.962   8.090
97428SOL     OW94122  10.662  13.127  13.769
97428SOL    HW194123  10.666  13.156  13.860
97428SOL    HW294124  10.712  13.046  13.768
97429SOL     OW94125   8.496  10.309  13.631
97429SOL    HW194126   8.408  10.292  13.664
97429SOL    HW294127   8.501  10.405  13.624
97430SOL     OW94128   7.994   6.542   2.486
97430SOL    HW194129   7.956   6.580   2.566
97430SOL    HW294130   8.064   6.603   2.462
97431SOL     OW94131   8.854  13.651  12.673
97431SOL    HW194132   8.770  13.607  12.679
97431SOL    HW294133   8.915  13.583  12.646
97432SOL     OW94134  10.181  11.357   7.160
97432SOL    HW194135  10.202  11.442   7.198
97432SOL    HW294136  10.095  11.335   7.194
97433SOL     OW94137   4.308  13.195   4.635
97433SOL    HW194138   4.260  13.219   4.556
97433SOL    HW294139   4.361  13.272   4.656
97434SOL     OW94140  13.989   2.258   7.734
97434SOL    HW194141  14.066   2.220   7.692
97434SOL    HW294142  13.915   2.230   7.680
97435SOL     OW94143   9.538   4.384   2.652
97435SOL    HW194144   9.622   4.342   2.633
97435SOL    HW294145   9.535   4.390   2.748
97436SOL     OW94146  12.802   0.975   8.886
97436SOL    HW194147  12.842   0.953   8.971
97436SOL    HW294148  12.840   1.060   8.863
97437SOL     OW94149   4.754   7.169  13.024
97437SOL    HW194150   4.832   7.121  13.054
97437SOL    HW294151   4.700   7.102  12.983
97438SOL     OW94152   6.707   5.159   2.127
97438SOL    HW194153   6.673   5.129   2.042
97438SOL    HW294154   6.641   5.133   2.190
97439SOL     OW94155   0.279   1.723   0.091
97439SOL    HW194156   0.281   1.675   0.008
97439SOL    HW294157   0.245   1.809   0.069
97440SOL     OW94158  11.995   9.053   3.855
97440SOL    HW194159  12.074   9.002   3.873
97440SOL    HW294160  12.021   9.114   3.785
97441SOL     OW94161   1.231   3.587   3.850
97441SOL    HW194162   1.177   3.515   3.882
97441SOL    HW294163   1.299   3.598   3.916
97442SOL     OW94164   2.200  10.814   5.372
97442SOL    HW194165   2.197  10.721   5.390
97442SOL    HW294166   2.198  10.856   5.458
97443SOL     OW94167   3.074   1.021   8.108
97443SOL    HW194168   3.002   0.960   8.126
97443SOL    HW294169   3.151   0.979   8.145
97444SOL     OW94170   1.665   9.709  10.917
97444SOL    HW194171   1.602   9.637  10.918
97444SOL    HW294172   1.631   9.771  10.982
97445SOL     OW94173   4.047  10.577  10.163
97445SOL    HW194174   4.032  10.670  10.176
97445SOL    HW294175   4.018  10.560  10.073
97446SOL     OW94176  13.552  13.205  10.103
97446SOL    HW194177  13.640  13.228  10.072
97446SOL    HW294178  13.567  13.154  10.182
97447SOL     OW94179   8.470   9.353  14.088
97447SOL    HW194180   8.411   9.428  14.089
97447SOL    HW294181   8.530   9.370  14.015
97448SOL     OW94182   3.059  12.470  14.764
97448SOL    HW194183   3.087  12.418  14.688
97448SOL    HW294184   3.057  12.560  14.731
97449SOL     OW94185   9.445   4.336  12.516
97449SOL    HW194186   9.397   4.387  12.581
97449SOL    HW294187   9.463   4.398  12.446
97450SOL     OW94188   0.722   3.396   2.333
97450SOL    HW194189   0.780   3.327   2.302
97450SOL    HW294190   0.639   3.380   2.289
97451SOL     OW94191   3.460  11.572  12.687
97451SOL    HW194192   3.531  11.589  12.625
97451SOL    HW294193   3.503  11.537  12.765
97452SOL     OW94194  14.603   4.610  11.542
97452SOL    HW194195  14.621   4.682  11.481
97452SOL    HW294196  14.540   4.648  11.604
97453SOL     OW94197   9.892   6.176  11.318
97453SOL    HW194198   9.889   6.117  11.393
97453SOL    HW294199   9.801   6.182  11.288
97454SOL     OW94200   5.669  10.256   3.075
97454SOL    HW194201   5.581  10.291   3.069
97454SOL    HW294202   5.664  10.170   3.033
97455SOL     OW94203  12.558   8.799   5.861
97455SOL    HW194204  12.552   8.848   5.943
97455SOL    HW294205  12.647   8.815   5.829
97456SOL     OW94206  13.044   0.556   9.429
97456SOL    HW194207  13.010   0.599   9.507
97456SOL    HW294208  13.136   0.584   9.424
97457SOL     OW94209   0.832   6.279   3.022
97457SOL    HW194210   0.810   6.286   2.929
97457SOL    HW294211   0.925   6.300   3.026
97458SOL     OW94212   1.763   4.726   1.550
97458SOL    HW194213   1.698   4.762   1.610
97458SOL    HW294214   1.839   4.783   1.561
97459SOL     OW94215  11.547  13.549  12.602
97459SOL    HW194216  11.582  13.595  12.678
97459SOL    HW294217  11.592  13.588  12.527
97460SOL     OW94218   2.720   7.730  11.114
97460SOL    HW194219   2.802   7.777  11.100
97460SOL    HW294220   2.658   7.772  11.056
97461SOL     OW94221   3.247   2.071   0.469
97461SOL    HW194222   3.321   2.101   0.416
97461SOL    HW294223   3.263   2.107   0.556
97462SOL     OW94224  11.560   3.334   5.994
97462SOL    HW194225  11.564   3.247   5.954
97462SOL    HW294226  11.467   3.356   5.991
97463SOL     OW94227   4.688   0.180   8.484
97463SOL    HW194228   4.596   0.204   8.495
97463SOL    HW294229   4.688   0.119   8.410
97464SOL     OW94230   4.774  11.055   9.820
97464SOL    HW194231   4.728  11.010   9.891
97464SOL    HW294232   4.781  11.146   9.850
97465SOL     OW94233   7.726   9.107   8.820
97465SOL    HW194234   7.780   9.043   8.866
97465SOL    HW294235   7.640   9.100   8.863
97466SOL     OW94236  13.731  12.075  14.426
97466SOL    HW194237  13.774  12.159  14.410
97466SOL    HW294238  13.639  12.097  14.439
97467SOL     OW94239  10.011   3.121  12.366
97467SOL    HW194240   9.998   3.119  12.272
97467SOL    HW294241   9.926   3.146  12.402
97468SOL     OW94242   4.714   1.312   9.145
97468SOL    HW194243   4.741   1.244   9.083
97468SOL    HW294244   4.790   1.322   9.203
97469SOL     OW94245   3.412  13.453   1.019
97469SOL    HW194246   3.404  13.506   0.940
97469SOL    HW294247   3.330  13.403   1.023
97470SOL     OW94248   2.669  13.470  14.707
97470SOL    HW194249   2.656  13.375  14.710
97470SOL    HW294250   2.646  13.495  14.618
97471SOL     OW94251  13.073  10.663  10.336
97471SOL    HW194252  13.092  10.730  10.402
97471SOL    HW294253  12.987  10.630  10.360
97472SOL     OW94254  10.292   6.499   4.199
97472SOL    HW194255  10.202   6.523   4.175
97472SOL    HW294256  10.347   6.561   4.151
97473SOL     OW94257   5.147   6.428  14.178
97473SOL    HW194258   5.108   6.500  14.129
97473SOL    HW294259   5.076   6.365  14.189
97474SOL     OW94260   8.518   0.544   9.613
97474SOL    HW194261   8.574   0.471   9.586
97474SOL    HW294262   8.511   0.599   9.535
97475SOL     OW94263  12.074   4.651   0.586
97475SOL    HW194264  11.984   4.677   0.572
97475SOL    HW294265  12.117   4.729   0.620
97476SOL     OW94266   3.098  12.260  13.987
97476SOL    HW194267   3.091  12.347  14.027
97476SOL    HW294268   3.081  12.276  13.894
97477SOL     OW94269   4.307  11.638   0.714
97477SOL    HW194270   4.303  11.616   0.808
97477SOL    HW294271   4.388  11.688   0.705
97478SOL     OW94272   1.519   3.423  14.236
97478SOL    HW194273   1.498   3.468  14.318
97478SOL    HW294274   1.548   3.492  14.177
97479SOL     OW94275   8.702   6.348   0.984
97479SOL    HW194276   8.709   6.294   1.063
97479SOL    HW294277   8.742   6.295   0.915
97480SOL     OW94278  10.384   9.469   3.907
97480SOL    HW194279  10.476   9.494   3.919
97480SOL    HW294280  10.364   9.496   3.817
97481SOL     OW94281  12.103  14.584   6.596
97481SOL    HW194282  12.052  14.551   6.670
97481SOL    HW294283  12.189  14.604   6.633
97482SOL     OW94284  11.928   0.560  11.392
97482SOL    HW194285  11.979   0.596  11.464
97482SOL    HW294286  11.885   0.637  11.353
97483SOL     OW94287   5.300   9.896  10.666
97483SOL    HW194288   5.364   9.907  10.736
97483SOL    HW294289   5.349   9.859  10.593
97484SOL     OW94290   3.979   9.697   5.457
97484SOL    HW194291   3.977   9.742   5.373
97484SOL    HW294292   4.033   9.620   5.442
97485SOL     OW94293   7.289  11.259   0.148
97485SOL    HW194294   7.276  11.170   0.115
97485SOL    HW294295   7.203  11.285   0.180
97486SOL     OW94296   1.762   6.122  10.514
97486SOL    HW194297   1.671   6.141  10.535
97486SOL    HW294298   1.773   6.029  10.536
97487SOL     OW94299   0.203  14.077  13.000
97487SOL    HW194300   0.191  14.116  13.087
97487SOL    HW294301   0.122  14.029  12.984
97488SOL     OW94302   0.846  12.344  10.316
97488SOL    HW194303   0.929  12.298  10.303
97488SOL    HW294304   0.866  12.436  10.298
97489SOL     OW94305   3.710   9.114   0.311
97489SOL    HW194306   3.799   9.133   0.281
97489SOL    HW294307   3.723   9.055   0.386
97490SOL     OW94308   2.391   9.713  10.778
97490SOL    HW194309   2.340   9.787  10.811
97490SOL    HW294310   2.330   9.640  10.780
97491SOL     OW94311   7.904   1.242   3.386
97491SOL    HW194312   7.906   1.333   3.415
97491SOL    HW294313   7.813   1.228   3.358
97492SOL     OW94314  10.158   1.713   3.860
97492SOL    HW194315  10.104   1.787   3.888
97492SOL    HW294316  10.140   1.645   3.925
97493SOL     OW94317   2.763   3.071  10.645
97493SOL    HW194318   2.753   3.135  10.575
97493SOL    HW294319   2.848   3.091  10.684
97494SOL     OW94320   0.118   1.425   2.215
97494SOL    HW194321   0.034   1.400   2.176
97494SOL    HW294322   0.136   1.513   2.181
97495SOL     OW94323   2.047  12.582   0.353
97495SOL    HW194324   1.962  12.539   0.352
97495SOL    HW294325   2.090  12.553   0.273
97496SOL     OW94326  14.039   0.182   6.933
97496SOL    HW194327  13.945   0.184   6.914
97496SOL    HW294328  14.075   0.252   6.879
97497SOL     OW94329   4.099   6.880   5.471
97497SOL    HW194330   4.044   6.928   5.409
97497SOL    HW294331   4.132   6.947   5.530
97498SOL     OW94332   9.943  12.430   8.897
97498SOL    HW194333   9.938  12.512   8.847
97498SOL    HW294334   9.973  12.458   8.984
97499SOL     OW94335   7.993   6.218   4.523
97499SOL    HW194336   8.015   6.183   4.436
97499SOL    HW294337   8.075   6.252   4.557
97500SOL     OW94338   3.633  10.292   5.206
97500SOL    HW194339   3.558  10.346   5.233
97500SOL    HW294340   3.678  10.344   5.139
97501SOL     OW94341   9.558   1.143   2.775
97501SOL    HW194342   9.622   1.094   2.826
97501SOL    HW294343   9.500   1.182   2.841
97502SOL     OW94344  13.455  12.768   7.973
97502SOL    HW194345  13.541  12.762   8.015
97502SOL    HW294346  13.454  12.855   7.932
97503SOL     OW94347   5.465   1.797  11.115
97503SOL    HW194348   5.505   1.717  11.081
97503SOL    HW294349   5.521   1.823  11.188
97504SOL     OW94350   6.728   5.328   2.745
97504SOL    HW194351   6.760   5.248   2.786
97504SOL    HW294352   6.703   5.384   2.818
97505SOL     OW94353   2.404   4.109   0.949
97505SOL    HW194354   2.435   4.082   0.863
97505SOL    HW294355   2.475   4.086   1.008
97506SOL     OW94356   4.656  12.455  14.784
97506SOL    HW194357   4.674  12.455  14.878
97506SOL    HW294358   4.561  12.442  14.778
97507SOL     OW94359   5.643   8.785  10.287
97507SOL    HW194360   5.643   8.762  10.380
97507SOL    HW294361   5.601   8.711  10.244
97508SOL     OW94362  10.751  13.612   8.150
97508SOL    HW194363  10.777  13.578   8.064
97508SOL    HW294364  10.773  13.705   8.147
97509SOL     OW94365   5.333   0.475   9.732
97509SOL    HW194366   5.417   0.431   9.718
97509SOL    HW294367   5.273   0.431   9.672
97510SOL     OW94368  10.520   0.926  13.406
97510SOL    HW194369  10.451   0.932  13.340
97510SOL    HW294370  10.485   0.868  13.473
97511SOL     OW94371   5.909  14.195   6.678
97511SOL    HW194372   5.970  14.144   6.731
97511SOL    HW294373   5.889  14.139   6.603
97512SOL     OW94374  12.918   3.682   9.353
97512SOL    HW194375  12.843   3.622   9.353
97512SOL    HW294376  12.892   3.751   9.414
97513SOL     OW94377   6.188   7.755   9.044
97513SOL    HW194378   6.177   7.664   9.016
97513SOL    HW294379   6.104   7.777   9.085
97514SOL     OW94380   2.928  13.235  13.184
97514SOL    HW194381   2.957  13.227  13.275
97514SOL    HW294382   2.981  13.306  13.148
97515SOL     OW94383  10.203   1.284  10.416
97515SOL    HW194384  10.204   1.259  10.323
97515SOL    HW294385  10.136   1.351  10.422
97516SOL     OW94386   2.132   3.565   4.991
97516SOL    HW194387   2.183   3.529   5.064
97516SOL    HW294388   2.045   3.579   5.028
97517SOL     OW94389   0.222   3.336  11.626
97517SOL    HW194390   0.272   3.284  11.690
97517SOL    HW294391   0.285   3.356  11.557
97518SOL     OW94392   1.781   0.273   0.657
97518SOL    HW194393   1.713   0.209   0.636
97518SOL    HW294394   1.749   0.355   0.620
97519SOL     OW94395  13.444  10.299   1.499
97519SOL    HW194396  13.442  10.394   1.499
97519SOL    HW294397  13.439  10.275   1.591
97520SOL     OW94398   8.189  13.418   0.453
97520SOL    HW194399   8.151  13.331   0.466
97520SOL    HW294400   8.185  13.459   0.540
97521SOL     OW94401  14.829   0.866   3.709
97521SOL    HW194402  14.854   0.950   3.747
97521SOL    HW294403   0.032   0.831   3.672
97522SOL     OW94404   6.222  14.795   5.282
97522SOL    HW194405   6.178  14.775   5.365
97522SOL    HW294406   6.275  14.718   5.263
97523SOL     OW94407  12.643  14.655   8.602
97523SOL    HW194408  12.608  14.727   8.653
97523SOL    HW294409  12.691  14.602   8.666
97524SOL     OW94410   5.797  14.278   7.855
97524SOL    HW194411   5.779  14.342   7.923
97524SOL    HW294412   5.854  14.323   7.792
97525SOL     OW94413  11.430   9.677   4.668
97525SOL    HW194414  11.387   9.750   4.713
97525SOL    HW294415  11.459   9.619   4.739
97526SOL     OW94416   5.824   9.706  10.516
97526SOL    HW194417   5.763   9.636  10.493
97526SOL    HW294418   5.770   9.773  10.559
97527SOL     OW94419  13.167   8.202   5.257
97527SOL    HW194420  13.219   8.140   5.207
97527SOL    HW294421  13.098   8.148   5.297
97528SOL     OW94422   2.394  13.822   1.309
97528SOL    HW194423   2.357  13.749   1.259
97528SOL    HW294424   2.457  13.863   1.249
97529SOL     OW94425   0.192  13.982   4.752
97529SOL    HW194426   0.221  13.891   4.744
97529SOL    HW294427   0.226  14.025   4.674
97530SOL     OW94428   7.987  12.450   4.564
97530SOL    HW194429   8.058  12.387   4.554
97530SOL    HW294430   8.021  12.515   4.626
97531SOL     OW94431  10.996   6.701   3.498
97531SOL    HW194432  10.998   6.606   3.491
97531SOL    HW294433  10.987   6.717   3.592
97532SOL     OW94434   5.390   8.879   8.316
97532SOL    HW194435   5.371   8.786   8.303
97532SOL    HW294436   5.388   8.892   8.410
97533SOL     OW94437   5.821  10.592  12.690
97533SOL    HW194438   5.820  10.554  12.602
97533SOL    HW294439   5.903  10.642  12.693
97534SOL     OW94440   9.744   7.134   0.238
97534SOL    HW194441   9.820   7.080   0.257
97534SOL    HW294442   9.676   7.071   0.213
97535SOL     OW94443  11.746   1.577   7.355
97535SOL    HW194444  11.804   1.552   7.427
97535SOL    HW294445  11.661   1.542   7.379
97536SOL     OW94446  11.739   9.606   0.724
97536SOL    HW194447  11.768   9.636   0.638
97536SOL    HW294448  11.662   9.659   0.744
97537SOL     OW94449   5.709  12.817   9.901
97537SOL    HW194450   5.667  12.902   9.890
97537SOL    HW294451   5.642  12.762   9.942
97538SOL     OW94452   4.814   8.657  11.442
97538SOL    HW194453   4.889   8.715  11.455
97538SOL    HW294454   4.762   8.700  11.375
97539SOL     OW94455   7.237   0.602   2.406
97539SOL    HW194456   7.162   0.643   2.364
97539SOL    HW294457   7.290   0.676   2.437
97540SOL     OW94458  10.767   7.054   3.420
97540SOL    HW194459  10.719   7.019   3.345
97540SOL    HW294460  10.858   7.061   3.390
97541SOL     OW94461   6.431  10.891   9.789
97541SOL    HW194462   6.337  10.874   9.779
97541SOL    HW294463   6.472  10.804   9.784
97542SOL     OW94464  14.878   0.102   2.169
97542SOL    HW194465  14.787   0.124   2.150
97542SOL    HW294466   0.027   0.049   2.094
97543SOL     OW94467  13.980  14.364   7.708
97543SOL    HW194468  13.899  14.316   7.690
97543SOL    HW294469  13.975  14.387   7.801
97544SOL     OW94470  14.635   3.906   1.670
97544SOL    HW194471  14.578   3.973   1.706
97544SOL    HW294472  14.632   3.920   1.575
97545SOL     OW94473  10.220   9.350  12.125
97545SOL    HW194474  10.175   9.270  12.154
97545SOL    HW294475  10.188   9.365  12.037
97546SOL     OW94476  10.425  13.017   3.829
97546SOL    HW194477  10.472  12.972   3.899
97546SOL    HW294478  10.460  12.978   3.748
97547SOL     OW94479  10.856  12.010  10.482
97547SOL    HW194480  10.826  12.094  10.516
97547SOL    HW294481  10.876  12.028  10.390
97548SOL     OW94482   1.998   1.324  12.504
97548SOL    HW194483   2.020   1.244  12.550
97548SOL    HW294484   2.025   1.309  12.414
97549SOL     OW94485   0.190   7.165   8.313
97549SOL    HW194486   0.155   7.202   8.394
97549SOL    HW294487   0.258   7.104   8.342
97550SOL     OW94488   2.872   5.106  10.763
97550SOL    HW194489   2.830   5.037  10.813
97550SOL    HW294490   2.959   5.072  10.742
97551SOL     OW94491   0.414  11.569   0.872
97551SOL    HW194492   0.435  11.610   0.956
97551SOL    HW294493   0.391  11.642   0.814
97552SOL     OW94494  12.314   4.659   1.748
97552SOL    HW194495  12.323   4.661   1.843
97552SOL    HW294496  12.350   4.742   1.718
97553SOL     OW94497  13.267  13.043  13.550
97553SOL    HW194498  13.227  13.095  13.620
97553SOL    HW294499  13.319  13.105  13.500
97554SOL     OW94500   4.283  13.188  10.637
97554SOL    HW194501   4.293  13.239  10.717
97554SOL    HW294502   4.272  13.098  10.667
97555SOL     OW94503   2.734  13.672  11.327
97555SOL    HW194504   2.744  13.768  11.330
97555SOL    HW294505   2.654  13.655  11.378
97556SOL     OW94506   1.732   9.021  14.478
97556SOL    HW194507   1.711   8.993  14.566
97556SOL    HW294508   1.652   9.006  14.428
97557SOL     OW94509   7.677  10.882  14.639
97557SOL    HW194510   7.745  10.876  14.706
97557SOL    HW294511   7.712  10.943  14.574
97558SOL     OW94512   0.573  10.020   7.548
97558SOL    HW194513   0.531   9.981   7.625
97558SOL    HW294514   0.651   9.967   7.533
97559SOL     OW94515   0.002   7.921  14.814
97559SOL    HW194516  14.822   7.962  14.878
97559SOL    HW294517   0.053   7.994  14.779
97560SOL     OW94518   3.572   5.631  12.055
97560SOL    HW194519   3.546   5.661  11.968
97560SOL    HW294520   3.618   5.706  12.093
97561SOL     OW94521  14.517   7.173   7.101
97561SOL    HW194522  14.568   7.139   7.175
97561SOL    HW294523  14.522   7.103   7.035
97562SOL     OW94524   2.804   7.258   4.739
97562SOL    HW194525   2.824   7.165   4.753
97562SOL    HW294526   2.713   7.258   4.708
97563SOL     OW94527  13.185   4.676   1.917
97563SOL    HW194528  13.143   4.605   1.869
97563SOL    HW294529  13.238   4.632   1.983
97564SOL     OW94530  13.176  11.625  14.351
97564SOL    HW194531  13.150  11.534  14.335
97564SOL    HW294532  13.190  11.662  14.264
97565SOL     OW94533   0.644   5.837  11.473
97565SOL    HW194534   0.557   5.832  11.512
97565SOL    HW294535   0.690   5.761  11.509
97566SOL     OW94536  12.110  11.933  12.225
97566SOL    HW194537  12.018  11.906  12.223
97566SOL    HW294538  12.155  11.871  12.168
97567SOL     OW94539   7.915   3.349  13.529
97567SOL    HW194540   7.887   3.438  13.551
97567SOL    HW294541   8.003   3.342  13.566
97568SOL     OW94542  11.237   3.652   5.785
97568SOL    HW194543  11.317   3.690   5.750
97568SOL    HW294544  11.204   3.717   5.847
97569SOL     OW94545   0.756   6.064  11.337
97569SOL    HW194546   0.732   5.985  11.385
97569SOL    HW294547   0.675   6.115  11.332
97570SOL     OW94548  10.494  10.235  14.463
97570SOL    HW194549  10.582  10.223  14.499
97570SOL    HW294550  10.469  10.149  14.432
97571SOL     OW94551  13.046   7.194   0.723
97571SOL    HW194552  13.040   7.099   0.735
97571SOL    HW294553  12.976   7.215   0.661
97572SOL     OW94554  13.363   5.555  10.787
97572SOL    HW194555  13.410   5.551  10.703
97572SOL    HW294556  13.427   5.592  10.848
97573SOL     OW94557   9.787  10.071  13.434
97573SOL    HW194558   9.745  10.139  13.380
97573SOL    HW294559   9.880  10.088  13.425
97574SOL     OW94560  12.755   6.682   2.806
97574SOL    HW194561  12.680   6.653   2.859
97574SOL    HW294562  12.722   6.759   2.759
97575SOL     OW94563   3.359   0.263   6.907
97575SOL    HW194564   3.289   0.306   6.859
97575SOL    HW294565   3.331   0.171   6.912
97576SOL     OW94566   1.425  11.474  11.447
97576SOL    HW194567   1.396  11.559  11.415
97576SOL    HW294568   1.510  11.491  11.487
97577SOL     OW94569  12.194   5.300   1.823
97577SOL    HW194570  12.190   5.390   1.856
97577SOL    HW294571  12.112   5.260   1.853
97578SOL     OW94572  13.751   6.895   2.681
97578SOL    HW194573  13.834   6.929   2.714
97578SOL    HW294574  13.776   6.822   2.624
97579SOL     OW94575  12.567   4.238   6.540
97579SOL    HW194576  12.629   4.305   6.510
97579SOL    HW294577  12.482   4.266   6.506
97580SOL     OW94578   2.208   2.131   8.207
97580SOL    HW194579   2.296   2.166   8.222
97580SOL    HW294580   2.149   2.200   8.238
97581SOL     OW94581   5.972   9.633  11.903
97581SOL    HW194582   5.884   9.665  11.884
97581SOL    HW294583   6.001   9.595  11.820
97582SOL     OW94584   0.204   1.777   6.480
97582SOL    HW194585   0.206   1.777   6.576
97582SOL    HW294586   0.245   1.860   6.455
97583SOL     OW94587  13.323   4.074   3.216
97583SOL    HW194588  13.335   4.145   3.279
97583SOL    HW294589  13.323   3.994   3.270
97584SOL     OW94590   0.121   4.080   4.503
97584SOL    HW194591   0.152   4.169   4.482
97584SOL    HW294592   0.199   4.025   4.495
97585SOL     OW94593   8.970  10.702   1.083
97585SOL    HW194594   8.948  10.610   1.097
97585SOL    HW294595   9.029  10.702   1.008
97586SOL     OW94596   1.239   7.796   0.443
97586SOL    HW194597   1.182   7.827   0.513
97586SOL    HW294598   1.203   7.836   0.364
97587SOL     OW94599  10.368   9.294   1.611
97587SOL    HW194600  10.296   9.327   1.663
97587SOL    HW294601  10.330   9.278   1.524
97588SOL     OW94602  13.715   3.552   4.540
97588SOL    HW194603  13.643   3.491   4.523
97588SOL    HW294604  13.704   3.576   4.632
97589SOL     OW94605   6.210  13.179   8.320
97589SOL    HW194606   6.222  13.260   8.370
97589SOL    HW294607   6.279  13.121   8.352
97590SOL     OW94608   9.239  12.408  12.074
97590SOL    HW194609   9.231  12.493  12.116
97590SOL    HW294610   9.334  12.391  12.073
97591SOL     OW94611  11.588   8.811   5.850
97591SOL    HW194612  11.665   8.768   5.887
97591SOL    HW294613  11.591   8.900   5.886
97592SOL     OW94614   3.955   2.516  13.327
97592SOL    HW194615   4.050   2.508  13.325
97592SOL    HW294616   3.930   2.495  13.417
97593SOL     OW94617   5.604   0.645   2.541
97593SOL    HW194618   5.569   0.606   2.461
97593SOL    HW294619   5.665   0.579   2.575
97594SOL     OW94620   7.261   6.261   9.327
97594SOL    HW194621   7.316   6.292   9.399
97594SOL    HW294622   7.174   6.296   9.345
97595SOL     OW94623  14.158  13.041   3.616
97595SOL    HW194624  14.204  12.994   3.686
97595SOL    HW294625  14.214  13.029   3.539
97596SOL     OW94626   1.093   3.725   7.933
97596SOL    HW194627   1.085   3.678   7.850
97596SOL    HW294628   1.059   3.664   7.998
97597SOL     OW94629   0.117  13.649   8.270
97597SOL    HW194630   0.190  13.691   8.315
97597SOL    HW294631   0.144  13.647   8.178
97598SOL     OW94632   6.555   3.886   8.419
97598SOL    HW194633   6.548   3.813   8.357
97598SOL    HW294634   6.648   3.892   8.438
97599SOL     OW94635   7.475   8.210  13.391
97599SOL    HW194636   7.395   8.165  13.418
97599SOL    HW294637   7.539   8.140  13.378
97600SOL     OW94638  14.324   8.968  12.364
97600SOL    HW194639  14.388   9.034  12.393
97600SOL    HW294640  14.377   8.900  12.322
97601SOL     OW94641   3.199   3.068  13.217
97601SOL    HW194642   3.108   3.062  13.187
97601SOL    HW294643   3.238   3.136  13.162
97602SOL     OW94644   8.103   7.292  11.992
97602SOL    HW194645   8.027   7.233  11.988
97602SOL    HW294646   8.109   7.316  12.084
97603SOL     OW94647   6.326   8.067   0.212
97603SOL    HW194648   6.274   8.010   0.268
97603SOL    HW294649   6.343   8.145   0.266
97604SOL     OW94650   8.944  14.233   8.087
97604SOL    HW194651   8.994  14.186   8.022
97604SOL    HW294652   8.852  14.216   8.065
97605SOL     OW94653  12.324   5.102   9.014
97605SOL    HW194654  12.392   5.134   8.955
97605SOL    HW294655  12.248   5.088   8.958
97606SOL     OW94656   0.529   7.416   6.616
97606SOL    HW194657   0.585   7.371   6.552
97606SOL    HW294658   0.559   7.382   6.701
97607SOL     OW94659   1.759   1.377   7.067
97607SOL    HW194660   1.717   1.291   7.068
97607SOL    HW294661   1.714   1.426   6.999
97608SOL     OW94662   1.715   8.661  13.568
97608SOL    HW194663   1.768   8.633  13.493
97608SOL    HW294664   1.698   8.753  13.553
97609SOL     OW94665   1.455   4.446   7.959
97609SOL    HW194666   1.461   4.461   8.053
97609SOL    HW294667   1.388   4.507   7.929
97610SOL     OW94668   5.233   7.963  13.717
97610SOL    HW194669   5.226   8.029  13.786
97610SOL    HW294670   5.167   7.898  13.740
97611SOL     OW94671   2.885  13.171   8.658
97611SOL    HW194672   2.862  13.124   8.738
97611SOL    HW294673   2.953  13.232   8.685
97612SOL     OW94674   2.800   3.640  11.073
97612SOL    HW194675   2.732   3.702  11.098
97612SOL    HW294676   2.881   3.677  11.108
97613SOL     OW94677   7.659   4.968   7.911
97613SOL    HW194678   7.654   5.021   7.832
97613SOL    HW294679   7.569   4.965   7.944
97614SOL     OW94680   7.779  13.352   2.040
97614SOL    HW194681   7.694  13.318   2.015
97614SOL    HW294682   7.785  13.437   1.997
97615SOL     OW94683   0.110  12.425  11.745
97615SOL    HW194684   0.042  12.488  11.726
97615SOL    HW294685   0.152  12.457  11.825
97616SOL     OW94686   6.582  10.820   0.889
97616SOL    HW194687   6.495  10.789   0.915
97616SOL    HW294688   6.640  10.747   0.910
97617SOL     OW94689   2.217  10.645  10.689
97617SOL    HW194690   2.256  10.665  10.774
97617SOL    HW294691   2.227  10.550  10.680
97618SOL     OW94692   9.793  12.909  13.479
97618SOL    HW194693   9.701  12.882  13.485
97618SOL    HW294694   9.842  12.831  13.502
97619SOL     OW94695   8.217  12.564  13.731
97619SOL    HW194696   8.198  12.632  13.667
97619SOL    HW294697   8.183  12.599  13.813
97620SOL     OW94698   3.450  14.849  11.466
97620SOL    HW194699   3.472  14.774  11.411
97620SOL    HW294700   3.532   0.020  11.471
97621SOL     OW94701   9.457   9.123   5.801
97621SOL    HW194702   9.379   9.072   5.777
97621SOL    HW294703   9.530   9.077   5.759
97622SOL     OW94704   7.625   9.741  12.481
97622SOL    HW194705   7.649   9.686  12.407
97622SOL    HW294706   7.666   9.826  12.462
97623SOL     OW94707  12.996   1.044   9.512
97623SOL    HW194708  13.079   1.028   9.557
97623SOL    HW294709  13.017   1.106   9.442
97624SOL     OW94710  13.240   0.865   8.308
97624SOL    HW194711  13.322   0.826   8.336
97624SOL    HW294712  13.174   0.828   8.367
97625SOL     OW94713   3.950  11.704   8.356
97625SOL    HW194714   3.875  11.719   8.414
97625SOL    HW294715   3.984  11.619   8.384
97626SOL     OW94716   5.386  13.640  11.233
97626SOL    HW194717   5.378  13.600  11.320
97626SOL    HW294718   5.348  13.728  11.244
97627SOL     OW94719   1.616   8.790  10.267
97627SOL    HW194720   1.597   8.882  10.287
97627SOL    HW294721   1.695   8.771  10.317
97628SOL     OW94722  11.834  10.606   7.785
97628SOL    HW194723  11.843  10.557   7.866
97628SOL    HW294724  11.792  10.688   7.810
97629SOL     OW94725   4.227  11.653   1.564
97629SOL    HW194726   4.283  11.619   1.494
97629SOL    HW294727   4.180  11.726   1.523
97630SOL     OW94728  10.021   5.443   1.663
97630SOL    HW194729  10.052   5.441   1.753
97630SOL    HW294730  10.078   5.507   1.620
97631SOL     OW94731  10.461   8.624   1.192
97631SOL    HW194732  10.445   8.538   1.153
97631SOL    HW294733  10.387   8.637   1.252
97632SOL     OW94734  10.238   0.103   6.065
97632SOL    HW194735  10.297   0.177   6.051
97632SOL    HW294736  10.288   0.041   6.118
97633SOL     OW94737  13.364   0.710   3.259
97633SOL    HW194738  13.273   0.702   3.287
97633SOL    HW294739  13.405   0.628   3.285
97634SOL     OW94740  12.759   2.292   5.151
97634SOL    HW194741  12.752   2.250   5.237
97634SOL    HW294742  12.680   2.265   5.104
97635SOL     OW94743  10.950   8.625  10.986
97635SOL    HW194744  10.972   8.708  11.028
97635SOL    HW294745  10.995   8.627  10.902
97636SOL     OW94746   8.447  14.855  12.102
97636SOL    HW194747   8.362  14.861  12.057
97636SOL    HW294748   8.486  14.774  12.070
97637SOL     OW94749   2.963  11.719   4.464
97637SOL    HW194750   2.919  11.797   4.432
97637SOL    HW294751   2.921  11.702   4.549
97638SOL     OW94752  13.436  13.736   2.986
97638SOL    HW194753  13.419  13.644   3.005
97638SOL    HW294754  13.356  13.768   2.944
97639SOL     OW94755   0.118  10.351   2.423
97639SOL    HW194756   0.188  10.305   2.471
97639SOL    HW294757   0.044  10.350   2.484
97640SOL     OW94758  12.119  10.442  14.053
97640SOL    HW194759  12.043  10.486  14.015
97640SOL    HW294760  12.106  10.448  14.148
97641SOL     OW94761  14.229   5.020  11.636
97641SOL    HW194762  14.296   4.964  11.597
97641SOL    HW294763  14.258   5.034  11.726
97642SOL     OW94764   8.935  11.897  11.995
97642SOL    HW194765   8.903  11.985  12.010
97642SOL    HW294766   8.872  11.840  12.039
97643SOL     OW94767   9.424   7.972   5.976
97643SOL    HW194768   9.473   8.037   5.926
97643SOL    HW294769   9.481   7.895   5.977
97644SOL     OW94770   0.047   8.207   9.760
97644SOL    HW194771   0.087   8.143   9.819
97644SOL    HW294772  14.860   8.251   9.813
97645SOL     OW94773   4.425  13.221   9.579
97645SOL    HW194774   4.339  13.199   9.616
97645SOL    HW294775   4.457  13.138   9.542
97646SOL     OW94776   6.176  13.257   4.597
97646SOL    HW194777   6.140  13.275   4.510
97646SOL    HW294778   6.209  13.168   4.592
97647SOL     OW94779   4.042   5.991  13.729
97647SOL    HW194780   3.987   6.059  13.691
97647SOL    HW294781   4.103   6.038  13.786
97648SOL     OW94782  12.937  12.957   3.615
97648SOL    HW194783  12.920  13.031   3.673
97648SOL    HW294784  12.865  12.897   3.630
97649SOL     OW94785   7.884   1.891   5.748
97649SOL    HW194786   7.824   1.926   5.814
97649SOL    HW294787   7.936   1.966   5.722
97650SOL     OW94788  11.378   4.959  11.094
97650SOL    HW194789  11.361   4.970  11.001
97650SOL    HW294790  11.296   4.983  11.137
97651SOL     OW94791   4.646  13.917   6.714
97651SOL    HW194792   4.576  13.965   6.668
97651SOL    HW294793   4.611  13.901   6.801
97652SOL     OW94794   4.061   9.218  11.221
97652SOL    HW194795   4.046   9.164  11.298
97652SOL    HW294796   3.983   9.273  11.214
97653SOL     OW94797   1.637   2.087   7.448
97653SOL    HW194798   1.571   2.064   7.513
97653SOL    HW294799   1.654   2.180   7.463
97654SOL     OW94800   5.009  14.446   3.011
97654SOL    HW194801   5.035  14.537   2.992
97654SOL    HW294802   5.043  14.396   2.937
97655SOL     OW94803  13.137   7.320  12.132
97655SOL    HW194804  13.190   7.338  12.209
97655SOL    HW294805  13.148   7.397  12.076
97656SOL     OW94806  13.189   5.522  10.434
97656SOL    HW194807  13.116   5.470  10.469
97656SOL    HW294808  13.225   5.566  10.510
97657SOL     OW94809   9.031   2.182   7.432
97657SOL    HW194810   8.949   2.146   7.467
97657SOL    HW294811   9.089   2.106   7.427
97658SOL     OW94812   4.691   8.241  13.959
97658SOL    HW194813   4.724   8.326  13.988
97658SOL    HW294814   4.649   8.259  13.875
97659SOL     OW94815   9.016   2.051   9.871
97659SOL    HW194816   8.932   2.040   9.915
97659SOL    HW294817   9.047   1.962   9.855
97660SOL     OW94818  11.028   5.036  14.245
97660SOL    HW194819  11.007   4.949  14.208
97660SOL    HW294820  11.020   5.024  14.339
97661SOL     OW94821  11.637   9.293  10.057
97661SOL    HW194822  11.543   9.293  10.038
97661SOL    HW294823  11.655   9.204  10.088
97662SOL     OW94824  11.565  12.632   2.599
97662SOL    HW194825  11.632  12.647   2.533
97662SOL    HW294826  11.614  12.621   2.681
97663SOL     OW94827   5.271   8.800  13.996
97663SOL    HW194828   5.310   8.881  13.964
97663SOL    HW294829   5.228   8.824  14.077
97664SOL     OW94830   4.868   9.248   3.116
97664SOL    HW194831   4.865   9.195   3.036
97664SOL    HW294832   4.947   9.219   3.161
97665SOL     OW94833   9.096   3.056   6.405
97665SOL    HW194834   9.007   3.058   6.371
97665SOL    HW294835   9.093   2.995   6.479
97666SOL     OW94836   0.982   8.134   0.109
97666SOL    HW194837   0.940   8.220   0.103
97666SOL    HW294838   1.059   8.141   0.052
97667SOL     OW94839  14.635   2.850   4.168
97667SOL    HW194840  14.586   2.870   4.088
97667SOL    HW294841  14.725   2.878   4.148
97668SOL     OW94842   1.431   9.791   2.218
97668SOL    HW194843   1.375   9.724   2.256
97668SOL    HW294844   1.388   9.816   2.136
97669SOL     OW94845   0.153   3.752   2.811
97669SOL    HW194846   0.128   3.843   2.822
97669SOL    HW294847   0.070   3.704   2.813
97670SOL     OW94848  10.647  12.080   8.630
97670SOL    HW194849  10.729  12.124   8.653
97670SOL    HW294850  10.648  12.076   8.535
97671SOL     OW94851   0.816   9.218  11.681
97671SOL    HW194852   0.818   9.221  11.585
97671SOL    HW294853   0.842   9.129  11.703
97672SOL     OW94854   3.825   6.224  11.925
97672SOL    HW194855   3.839   6.166  12.000
97672SOL    HW294856   3.913   6.239  11.890
97673SOL     OW94857  14.122   7.197  13.702
97673SOL    HW194858  14.163   7.119  13.666
97673SOL    HW294859  14.077   7.238  13.628
97674SOL     OW94860   6.140  11.705   6.021
97674SOL    HW194861   6.116  11.767   6.090
97674SOL    HW294862   6.144  11.758   5.942
97675SOL     OW94863  13.711   6.417  11.496
97675SOL    HW194864  13.618   6.395  11.494
97675SOL    HW294865  13.746   6.380  11.415
97676SOL     OW94866  11.914  14.683  12.344
97676SOL    HW194867  11.933  14.737  12.420
97676SOL    HW294868  11.853  14.735  12.292
97677SOL     OW94869   4.780   0.643   4.945
97677SOL    HW194870   4.715   0.660   4.877
97677SOL    HW294871   4.857   0.613   4.897
97678SOL     OW94872   5.403   2.357   5.885
97678SOL    HW194873   5.349   2.429   5.854
97678SOL    HW294874   5.410   2.371   5.980
97679SOL     OW94875  13.786  11.352   5.800
97679SOL    HW194876  13.844  11.426   5.814
97679SOL    HW294877  13.758  11.326   5.888
97680SOL     OW94878  13.336   7.490  13.533
97680SOL    HW194879  13.311   7.578  13.560
97680SOL    HW294880  13.414   7.503  13.479
97681SOL     OW94881  12.969   9.698   6.955
97681SOL    HW194882  12.949   9.759   7.026
97681SOL    HW294883  12.892   9.701   6.898
97682SOL     OW94884   4.620   8.101  13.032
97682SOL    HW194885   4.577   8.068  13.110
97682SOL    HW294886   4.691   8.156  13.065
97683SOL     OW94887   2.122   4.160  13.786
97683SOL    HW194888   2.144   4.116  13.868
97683SOL    HW294889   2.118   4.090  13.721
97684SOL     OW94890  14.841   0.677   0.250
97684SOL    HW194891   0.032   0.734   0.281
97684SOL    HW294892  14.862   0.659   0.159
97685SOL     OW94893   3.498   4.064   4.169
97685SOL    HW194894   3.462   4.017   4.244
97685SOL    HW294895   3.500   4.156   4.197
97686SOL     OW94896   1.949   2.189   0.621
97686SOL    HW194897   1.868   2.141   0.600
97686SOL    HW294898   1.920   2.265   0.672
97687SOL     OW94899   3.074   0.041   8.795
97687SOL    HW194900   3.031   0.002   8.871
97687SOL    HW294901   3.132  14.852   8.762
97688SOL     OW94902  10.143   9.375  12.554
97688SOL    HW194903  10.212   9.349  12.493
97688SOL    HW294904  10.062   9.357  12.508
97689SOL     OW94905   5.273   4.229   6.748
97689SOL    HW194906   5.184   4.210   6.777
97689SOL    HW294907   5.263   4.275   6.665
97690SOL     OW94908   4.173  11.057   2.218
97690SOL    HW194909   4.113  11.130   2.205
97690SOL    HW294910   4.142  10.988   2.159
97691SOL     OW94911   3.290   3.526   9.478
97691SOL    HW194912   3.251   3.594   9.533
97691SOL    HW294913   3.313   3.572   9.397
97692SOL     OW94914  11.503   3.325   1.303
97692SOL    HW194915  11.586   3.278   1.309
97692SOL    HW294916  11.438   3.264   1.340
97693SOL     OW94917  10.930  11.192   4.649
97693SOL    HW194918  10.899  11.255   4.713
97693SOL    HW294919  11.008  11.154   4.688
97694SOL     OW94920   7.792   3.003   4.842
97694SOL    HW194921   7.793   2.944   4.766
97694SOL    HW294922   7.811   2.945   4.917
97695SOL     OW94923   7.625   5.875  12.310
97695SOL    HW194924   7.572   5.799  12.289
97695SOL    HW294925   7.631   5.874  12.406
97696SOL     OW94926   7.271  13.572   0.830
97696SOL    HW194927   7.226  13.499   0.786
97696SOL    HW294928   7.200  13.627   0.862
97697SOL     OW94929   7.088  10.164   8.682
97697SOL    HW194930   7.010  10.204   8.645
97697SOL    HW294931   7.105  10.088   8.626
97698SOL     OW94932   8.779  12.665   2.394
97698SOL    HW194933   8.734  12.604   2.453
97698SOL    HW294934   8.812  12.610   2.323
97699SOL     OW94935   3.173   0.489   7.348
97699SOL    HW194936   3.166   0.488   7.444
97699SOL    HW294937   3.099   0.542   7.319
97700SOL     OW94938  14.463   9.414   0.247
97700SOL    HW194939  14.556   9.395   0.261
97700SOL    HW294940  14.457   9.434   0.154
97701SOL     OW94941   9.137  10.164   4.731
97701SOL    HW194942   9.183  10.241   4.765
97701SOL    HW294943   9.066  10.200   4.677
97702SOL     OW94944  13.790  10.378  14.185
97702SOL    HW194945  13.703  10.412  14.209
97702SOL    HW294946  13.772  10.303  14.128
97703SOL     OW94947   5.000  12.518   4.570
97703SOL    HW194948   4.984  12.592   4.511
97703SOL    HW294949   4.924  12.461   4.557
97704SOL     OW94950   9.640  10.102  14.664
97704SOL    HW194951   9.572  10.038  14.647
97704SOL    HW294952   9.601  10.186  14.638
97705SOL     OW94953   2.787   5.992   3.026
97705SOL    HW194954   2.856   5.959   2.969
97705SOL    HW294955   2.709   5.943   3.000
97706SOL     OW94956  13.637   3.991  10.818
97706SOL    HW194957  13.580   4.016  10.745
97706SOL    HW294958  13.583   4.001  10.896
97707SOL     OW94959   8.821   1.183  12.731
97707SOL    HW194960   8.744   1.130  12.711
97707SOL    HW294961   8.869   1.188  12.648
97708SOL     OW94962  14.600   9.005  11.170
97708SOL    HW194963  14.544   8.995  11.247
97708SOL    HW294964  14.539   9.010  11.097
97709SOL     OW94965  14.477   3.104   3.046
97709SOL    HW194966  14.496   3.191   3.012
97709SOL    HW294967  14.424   3.119   3.124
97710SOL     OW94968   3.451   6.374  11.146
97710SOL    HW194969   3.522   6.311  11.158
97710SOL    HW294970   3.453   6.393  11.052
97711SOL     OW94971   2.013  10.680   8.533
97711SOL    HW194972   1.953  10.723   8.471
97711SOL    HW294973   2.096  10.726   8.522
97712SOL     OW94974  10.956  10.850   6.932
97712SOL    HW194975  10.887  10.873   6.994
97712SOL    HW294976  10.986  10.935   6.898
97713SOL     OW94977   7.855  14.285  14.864
97713SOL    HW194978   7.786  14.228   0.019
97713SOL    HW294979   7.930  14.269   0.042
97714SOL     OW94980   4.991  11.728   3.379
97714SOL    HW194981   5.042  11.695   3.454
97714SOL    HW294982   4.903  11.741   3.414
97715SOL     OW94983   6.055   8.746   4.991
97715SOL    HW194984   6.067   8.810   5.061
97715SOL    HW294985   6.104   8.782   4.917
97716SOL     OW94986   3.969   5.430  10.674
97716SOL    HW194987   3.971   5.362  10.741
97716SOL    HW294988   3.931   5.506  10.718
97717SOL     OW94989   0.301   4.224  12.852
97717SOL    HW194990   0.247   4.301  12.870
97717SOL    HW294991   0.316   4.184  12.938
97718SOL     OW94992   4.841   6.675   4.098
97718SOL    HW194993   4.842   6.603   4.161
97718SOL    HW294994   4.832   6.754   4.152
97719SOL     OW94995  13.971   2.415  14.069
97719SOL    HW194996  13.881   2.443  14.088
97719SOL    HW294997  13.985   2.340  14.127
97720SOL     OW94998   3.114  13.661   8.877
97720SOL    HW194999   3.088  13.570   8.892
97720SOL    HW295000   3.167  13.684   8.954
97721SOL     OW95001  12.882   4.895   8.323
97721SOL    HW195002  12.815   4.911   8.390
97721SOL    HW295003  12.964   4.893   8.371
97722SOL     OW95004  13.646   1.896   3.569
97722SOL    HW195005  13.589   1.954   3.619
97722SOL    HW295006  13.659   1.941   3.486
97723SOL     OW95007   7.857   3.756   3.383
97723SOL    HW195008   7.868   3.845   3.349
97723SOL    HW295009   7.927   3.746   3.448
97724SOL     OW95010  10.273   5.330   9.819
97724SOL    HW195011  10.313   5.368   9.741
97724SOL    HW295012  10.292   5.237   9.813
97725SOL     OW95013   6.113   1.291   6.171
97725SOL    HW195014   6.177   1.347   6.215
97725SOL    HW295015   6.072   1.347   6.106
97726SOL     OW95016  10.600   0.421   5.988
97726SOL    HW195017  10.583   0.515   5.985
97726SOL    HW295018  10.647   0.403   5.908
97727SOL     OW95019  11.280   6.821   0.917
97727SOL    HW195020  11.249   6.735   0.944
97727SOL    HW295021  11.250   6.831   0.827
97728SOL     OW95022   0.609   4.943   2.460
97728SOL    HW195023   0.589   4.879   2.391
97728SOL    HW295024   0.572   5.025   2.427
97729SOL     OW95025   9.794   0.996  11.363
97729SOL    HW195026   9.802   1.052  11.440
97729SOL    HW295027   9.873   0.941  11.365
97730SOL     OW95028  10.653   6.223   9.141
97730SOL    HW195029  10.642   6.179   9.057
97730SOL    HW295030  10.694   6.307   9.119
97731SOL     OW95031   8.557   9.839  10.799
97731SOL    HW195032   8.512   9.879  10.874
97731SOL    HW295033   8.593   9.758  10.833
97732SOL     OW95034  12.065  14.774  10.468
97732SOL    HW195035  12.099  14.700  10.518
97732SOL    HW295036  12.117  14.849  10.498
97733SOL     OW95037   2.714   2.984   6.192
97733SOL    HW195038   2.632   2.935   6.194
97733SOL    HW295039   2.751   2.972   6.280
97734SOL     OW95040   5.761  12.338   1.004
97734SOL    HW195041   5.671  12.342   0.974
97734SOL    HW295042   5.771  12.249   1.040
97735SOL     OW95043   2.311   1.014   9.685
97735SOL    HW195044   2.380   1.076   9.709
97735SOL    HW295045   2.334   0.934   9.732
97736SOL     OW95046   6.547   1.039  10.692
97736SOL    HW195047   6.520   1.115  10.640
97736SOL    HW295048   6.632   1.015  10.656
97737SOL     OW95049  14.336   7.678   2.491
97737SOL    HW195050  14.306   7.769   2.493
97737SOL    HW295051  14.350   7.660   2.398
97738SOL     OW95052   4.059  11.933  10.726
97738SOL    HW195053   4.039  11.993  10.798
97738SOL    HW295054   4.145  11.962  10.694
97739SOL     OW95055  14.655   1.779   1.679
97739SOL    HW195056  14.734   1.833   1.689
97739SOL    HW295057  14.596   1.811   1.747
97740SOL     OW95058   8.060  10.410   5.635
97740SOL    HW195059   8.070  10.491   5.684
97740SOL    HW295060   8.127  10.415   5.566
97741SOL     OW95061   0.933   3.315   7.855
97741SOL    HW195062   1.015   3.265   7.861
97741SOL    HW295063   0.902   3.322   7.945
97742SOL     OW95064   2.877   0.856  13.882
97742SOL    HW195065   2.848   0.947  13.875
97742SOL    HW295066   2.855   0.818  13.797
97743SOL     OW95067  10.299   4.000   3.653
97743SOL    HW195068  10.368   3.933   3.658
97743SOL    HW295069  10.288   4.017   3.560
97744SOL     OW95070   4.028   1.206   7.884
97744SOL    HW195071   4.014   1.196   7.790
97744SOL    HW295072   4.120   1.231   7.892
97745SOL     OW95073   4.146   7.358   0.163
97745SOL    HW195074   4.053   7.350   0.145
97745SOL    HW295075   4.157   7.448   0.195
97746SOL     OW95076  12.996  11.052   1.191
97746SOL    HW195077  12.909  11.012   1.181
97746SOL    HW295078  13.027  11.021   1.275
97747SOL     OW95079   2.423   9.788   8.946
97747SOL    HW195080   2.420   9.692   8.947
97747SOL    HW295081   2.370   9.815   9.021
97748SOL     OW95082   2.864   7.907  14.441
97748SOL    HW195083   2.892   7.967  14.372
97748SOL    HW295084   2.851   7.963  14.517
97749SOL     OW95085   1.123   1.876   5.150
97749SOL    HW195086   1.183   1.875   5.076
97749SOL    HW295087   1.119   1.968   5.178
97750SOL     OW95088   3.770   1.359   4.624
97750SOL    HW195089   3.821   1.300   4.679
97750SOL    HW295090   3.755   1.436   4.678
97751SOL     OW95091   7.035  12.170   6.659
97751SOL    HW195092   7.076  12.096   6.613
97751SOL    HW295093   7.033  12.142   6.751
97752SOL     OW95094   8.751  13.709  14.816
97752SOL    HW195095   8.684  13.772  14.843
97752SOL    HW295096   8.804  13.697   0.016
97753SOL     OW95097   5.232  14.090   2.195
97753SOL    HW195098   5.188  14.173   2.213
97753SOL    HW295099   5.318  14.116   2.162
97754SOL     OW95100  12.198  11.168  13.475
97754SOL    HW195101  12.179  11.087  13.522
97754SOL    HW295102  12.122  11.223  13.490
97755SOL     OW95103  13.023   1.711  11.483
97755SOL    HW195104  12.936   1.751  11.488
97755SOL    HW295105  13.054   1.732  11.395
97756SOL     OW95106   2.158  14.455   3.921
97756SOL    HW195107   2.167  14.547   3.946
97756SOL    HW295108   2.074  14.451   3.874
97757SOL     OW95109   1.666   6.281   3.673
97757SOL    HW195110   1.700   6.365   3.702
97757SOL    HW295111   1.640   6.295   3.582
97758SOL     OW95112   6.490   9.224  12.844
97758SOL    HW195113   6.585   9.239  12.841
97758SOL    HW295114   6.459   9.248  12.757
97759SOL     OW95115   6.315   3.668   6.839
97759SOL    HW195116   6.323   3.764   6.834
97759SOL    HW295117   6.287   3.643   6.751
97760SOL     OW95118   7.374  14.672   2.155
97760SOL    HW195119   7.461  14.663   2.115
97760SOL    HW295120   7.382  14.628   2.239
97761SOL     OW95121   1.263  12.310   1.156
97761SOL    HW195122   1.214  12.386   1.188
97761SOL    HW295123   1.291  12.264   1.235
97762SOL     OW95124   4.304  10.922   9.864
97762SOL    HW195125   4.350  10.942   9.946
97762SOL    HW295126   4.245  10.996   9.852
97763SOL     OW95127  14.415   8.212   5.259
97763SOL    HW195128  14.376   8.186   5.343
97763SOL    HW295129  14.343   8.204   5.196
97764SOL     OW95130   1.082   7.896   2.913
97764SOL    HW195131   1.086   7.981   2.957
97764SOL    HW295132   1.134   7.908   2.834
97765SOL     OW95133  14.017   9.968   1.447
97765SOL    HW195134  14.076   9.897   1.473
97765SOL    HW295135  14.019   9.966   1.351
97766SOL     OW95136   1.755  10.995  12.838
97766SOL    HW195137   1.684  10.933  12.855
97766SOL    HW295138   1.833  10.954  12.876
97767SOL     OW95139   2.669   6.047   6.750
97767SOL    HW195140   2.738   6.049   6.816
97767SOL    HW295141   2.715   6.064   6.667
97768SOL     OW95142   7.819  13.655   8.114
97768SOL    HW195143   7.867  13.718   8.059
97768SOL    HW295144   7.785  13.708   8.186
97769SOL     OW95145   9.622   5.139   5.614
97769SOL    HW195146   9.665   5.054   5.608
97769SOL    HW295147   9.610   5.154   5.708
97770SOL     OW95148  13.160   3.307  11.464
97770SOL    HW195149  13.244   3.263  11.459
97770SOL    HW295150  13.100   3.241  11.500
97771SOL     OW95151  12.165  13.739   7.250
97771SOL    HW195152  12.166  13.773   7.161
97771SOL    HW295153  12.110  13.660   7.245
97772SOL     OW95154   2.053   4.464   1.520
97772SOL    HW195155   2.044   4.383   1.470
97772SOL    HW295156   1.994   4.526   1.476
97773SOL     OW95157   1.830   2.941   1.562
97773SOL    HW195158   1.814   3.018   1.508
97773SOL    HW295159   1.903   2.966   1.619
97774SOL     OW95160   8.564   1.401  10.648
97774SOL    HW195161   8.512   1.473  10.614
97774SOL    HW295162   8.641   1.398  10.591
97775SOL     OW95163   1.052   7.019  14.237
97775SOL    HW195164   1.080   7.002  14.148
97775SOL    HW295165   1.035   6.932  14.274
97776SOL     OW95166  13.599  13.460   6.211
97776SOL    HW195167  13.562  13.548   6.203
97776SOL    HW295168  13.536  13.412   6.264
97777SOL     OW95169  12.147   7.718   9.475
97777SOL    HW195170  12.078   7.732   9.410
97777SOL    HW295171  12.118   7.642   9.525
97778SOL     OW95172   1.657   5.128   5.427
97778SOL    HW195173   1.743   5.088   5.442
97778SOL    HW295174   1.654   5.143   5.333
97779SOL     OW95175   1.806   7.409   9.460
97779SOL    HW195176   1.889   7.414   9.413
97779SOL    HW295177   1.830   7.389   9.550
97780SOL     OW95178  13.769   6.469   8.227
97780SOL    HW195179  13.742   6.383   8.196
97780SOL    HW295180  13.861   6.458   8.250
97781SOL     OW95181   8.998  14.829  11.024
97781SOL    HW195182   9.061  14.807  10.956
97781SOL    HW295183   8.957  14.745  11.047
97782SOL     OW95184   2.505  12.609   6.892
97782SOL    HW195185   2.503  12.617   6.796
97782SOL    HW295186   2.590  12.570   6.911
97783SOL     OW95187   6.973   7.741   7.668
97783SOL    HW195188   7.068   7.748   7.654
97783SOL    HW295189   6.943   7.682   7.599
97784SOL     OW95190   0.877  11.092   8.712
97784SOL    HW195191   0.883  11.162   8.777
97784SOL    HW295192   0.789  11.055   8.725
97785SOL     OW95193  12.014   9.808   5.566
97785SOL    HW195194  11.919   9.810   5.568
97785SOL    HW295195  12.039   9.881   5.509
97786SOL     OW95196   3.276   8.257  12.633
97786SOL    HW195197   3.305   8.341  12.668
97786SOL    HW295198   3.236   8.278  12.549
97787SOL     OW95199  10.247  11.994   0.713
97787SOL    HW195200  10.238  11.899   0.702
97787SOL    HW295201  10.342  12.008   0.717
97788SOL     OW95202   4.634  12.908   3.182
97788SOL    HW195203   4.615  12.837   3.120
97788SOL    HW295204   4.598  12.877   3.265
97789SOL     OW95205  10.014   9.374   8.475
97789SOL    HW195206  10.060   9.292   8.454
97789SOL    HW295207   9.949   9.384   8.404
97790SOL     OW95208  11.373  12.187   7.849
97790SOL    HW195209  11.422  12.229   7.920
97790SOL    HW295210  11.320  12.120   7.893
97791SOL     OW95211   4.311   6.775   3.242
97791SOL    HW195212   4.375   6.824   3.191
97791SOL    HW295213   4.229   6.822   3.229
97792SOL     OW95214   2.259   4.994   0.859
97792SOL    HW195215   2.199   4.924   0.834
97792SOL    HW295216   2.263   5.051   0.783
97793SOL     OW95217   5.664  13.173   8.292
97793SOL    HW195218   5.637  13.177   8.384
97793SOL    HW295219   5.756  13.147   8.294
97794SOL     OW95220  14.242  13.984   6.216
97794SOL    HW195221  14.236  14.078   6.203
97794SOL    HW295222  14.314  13.957   6.158
97795SOL     OW95223   4.484  10.452   6.437
97795SOL    HW195224   4.471  10.376   6.380
97795SOL    HW295225   4.557  10.500   6.396
97796SOL     OW95226   2.558   8.497   4.479
97796SOL    HW195227   2.562   8.589   4.453
97796SOL    HW295228   2.488   8.494   4.545
97797SOL     OW95229   2.533   9.257   3.033
97797SOL    HW195230   2.525   9.351   3.015
97797SOL    HW295231   2.627   9.240   3.028
97798SOL     OW95232  10.223  13.828   5.209
97798SOL    HW195233  10.310  13.867   5.202
97798SOL    HW295234  10.189  13.829   5.120
97799SOL     OW95235   8.167   7.147   2.969
97799SOL    HW195236   8.251   7.164   3.013
97799SOL    HW295237   8.114   7.102   3.035
97800SOL     OW95238   6.176  10.483   1.125
97800SOL    HW195239   6.172  10.520   1.213
97800SOL    HW295240   6.265  10.502   1.094
97801SOL     OW95241  11.779   2.720  13.627
97801SOL    HW195242  11.805   2.794  13.573
97801SOL    HW295243  11.687   2.705  13.604
97802SOL     OW95244   4.542   4.131  14.551
97802SOL    HW195245   4.633   4.160  14.545
97802SOL    HW295246   4.529   4.110  14.643
97803SOL     OW95247  12.199   5.733  12.920
97803SOL    HW195248  12.167   5.695  12.838
97803SOL    HW295249  12.205   5.827  12.903
97804SOL     OW95250   2.316   3.115  12.653
97804SOL    HW195251   2.345   3.128  12.562
97804SOL    HW295252   2.317   3.020  12.665
97805SOL     OW95253   5.804   3.853   4.089
97805SOL    HW195254   5.883   3.867   4.142
97805SOL    HW295255   5.751   3.793   4.141
97806SOL     OW95256  13.346   0.099   1.141
97806SOL    HW195257  13.362   0.052   1.223
97806SOL    HW295258  13.361   0.033   1.073
97807SOL     OW95259   8.121  10.992   0.057
97807SOL    HW195260   8.034  11.031   0.062
97807SOL    HW295261   8.181  11.067   0.051
97808SOL     OW95262   7.935   2.074  12.026
97808SOL    HW195263   7.927   2.154  12.077
97808SOL    HW295264   8.007   2.026  12.067
97809SOL     OW95265   0.731  14.173  10.441
97809SOL    HW195266   0.697  14.249  10.489
97809SOL    HW295267   0.792  14.211  10.377
97810SOL     OW95268  13.980   7.788  11.800
97810SOL    HW195269  13.992   7.698  11.768
97810SOL    HW295270  13.888   7.807  11.783
97811SOL     OW95271   2.681   5.296   3.779
97811SOL    HW195272   2.651   5.281   3.868
97811SOL    HW295273   2.721   5.213   3.752
97812SOL     OW95274   8.334  12.115  13.360
97812SOL    HW195275   8.271  12.126  13.289
97812SOL    HW295276   8.353  12.204  13.390
97813SOL     OW95277   5.768  11.130   1.771
97813SOL    HW195278   5.762  11.168   1.859
97813SOL    HW295279   5.807  11.199   1.718
97814SOL     OW95280   9.068  12.231   0.343
97814SOL    HW195281   9.127  12.213   0.416
97814SOL    HW295282   9.070  12.151   0.291
97815SOL     OW95283  12.457   1.453  10.813
97815SOL    HW195284  12.536   1.484  10.768
97815SOL    HW295285  12.385   1.482  10.757
97816SOL     OW95286   5.529   0.209   3.734
97816SOL    HW195287   5.512   0.300   3.759
97816SOL    HW295288   5.604   0.184   3.787
97817SOL     OW95289  13.587   4.134   9.100
97817SOL    HW195290  13.640   4.190   9.044
97817SOL    HW295291  13.614   4.045   9.077
97818SOL     OW95292   1.709  11.660   8.261
97818SOL    HW195293   1.629  11.615   8.234
97818SOL    HW295294   1.726  11.723   8.191
97819SOL     OW95295   3.221   6.357   7.917
97819SOL    HW195296   3.196   6.417   7.846
97819SOL    HW295297   3.175   6.391   7.994
97820SOL     OW95298   1.219   3.106   3.788
97820SOL    HW195299   1.146   3.095   3.850
97820SOL    HW295300   1.281   3.038   3.812
97821SOL     OW95301  11.460   8.428  13.492
97821SOL    HW195302  11.381   8.376  13.506
97821SOL    HW295303  11.521   8.398  13.560
97822SOL     OW95304   4.003   6.232  13.593
97822SOL    HW195305   4.011   6.324  13.618
97822SOL    HW295306   3.929   6.230  13.532
97823SOL     OW95307  13.182   3.610   6.434
97823SOL    HW195308  13.190   3.572   6.521
97823SOL    HW295309  13.220   3.698   6.443
97824SOL     OW95310  10.029   7.255   6.786
97824SOL    HW195311  10.085   7.324   6.750
97824SOL    HW295312  10.027   7.272   6.881
97825SOL     OW95313   9.415  12.070   1.651
97825SOL    HW195314   9.453  11.997   1.698
97825SOL    HW295315   9.422  12.046   1.559
97826SOL     OW95316   7.395   9.582  11.739
97826SOL    HW195317   7.478   9.535  11.750
97826SOL    HW295318   7.338   9.546  11.807
97827SOL     OW95319  12.057   4.062   3.760
97827SOL    HW195320  12.044   3.979   3.807
97827SOL    HW295321  12.136   4.099   3.798
97828SOL     OW95322  12.006   0.512   9.657
97828SOL    HW195323  11.926   0.462   9.674
97828SOL    HW295324  11.974   0.591   9.614
97829SOL     OW95325  11.175  14.753   5.265
97829SOL    HW195326  11.228  14.823   5.303
97829SOL    HW295327  11.098  14.798   5.230
97830SOL     OW95328   1.336  12.217   1.416
97830SOL    HW195329   1.391  12.276   1.468
97830SOL    HW295330   1.367  12.129   1.438
97831SOL     OW95331   6.454   1.307   9.736
97831SOL    HW195332   6.391   1.261   9.791
97831SOL    HW295333   6.538   1.264   9.755
97832SOL     OW95334   3.533   4.133   4.744
97832SOL    HW195335   3.564   4.118   4.655
97832SOL    HW295336   3.454   4.186   4.734
97833SOL     OW95337   9.272  14.180  14.212
97833SOL    HW195338   9.275  14.263  14.260
97833SOL    HW295339   9.290  14.113  14.278
97834SOL     OW95340   8.753  14.380  10.799
97834SOL    HW195341   8.838  14.368  10.757
97834SOL    HW295342   8.724  14.291  10.820
97835SOL     OW95343   3.868   7.493  12.472
97835SOL    HW195344   3.841   7.430  12.539
97835SOL    HW295345   3.961   7.475  12.458
97836SOL     OW95346   2.407   9.410   2.115
97836SOL    HW195347   2.497   9.405   2.083
97836SOL    HW295348   2.361   9.462   2.049
97837SOL     OW95349   6.891   2.656   5.827
97837SOL    HW195350   6.975   2.620   5.799
97837SOL    HW295351   6.843   2.580   5.861
97838SOL     OW95352  10.032  14.564   6.515
97838SOL    HW195353  10.035  14.603   6.428
97838SOL    HW295354  10.123  14.564   6.545
97839SOL     OW95355   0.985   9.510  14.580
97839SOL    HW195356   1.022   9.560  14.653
97839SOL    HW295357   1.008   9.560  14.502
97840SOL     OW95358   3.960   1.377   0.462
97840SOL    HW195359   3.985   1.291   0.429
97840SOL    HW295360   3.922   1.360   0.548
97841SOL     OW95361   5.004  12.131   4.368
97841SOL    HW195362   4.925  12.118   4.315
97841SOL    HW295363   5.050  12.047   4.364
97842SOL     OW95364   9.446  12.896   3.918
97842SOL    HW195365   9.372  12.836   3.920
97842SOL    HW295366   9.412  12.978   3.954
97843SOL     OW95367   2.379   3.725  12.177
97843SOL    HW195368   2.446   3.781  12.217
97843SOL    HW295369   2.370   3.651  12.237
97844SOL     OW95370  13.002   4.747   2.628
97844SOL    HW195371  12.956   4.687   2.568
97844SOL    HW295372  12.974   4.834   2.601
97845SOL     OW95373  11.814  12.400   0.172
97845SOL    HW195374  11.763  12.481   0.164
97845SOL    HW295375  11.811  12.379   0.265
97846SOL     OW95376  13.133   7.941   1.569
97846SOL    HW195377  13.221   7.906   1.584
97846SOL    HW295378  13.148   8.023   1.522
97847SOL     OW95379  11.642   1.672   3.476
97847SOL    HW195380  11.589   1.595   3.456
97847SOL    HW295381  11.602   1.742   3.423
97848SOL     OW95382   8.017   4.436   9.661
97848SOL    HW195383   8.107   4.419   9.689
97848SOL    HW295384   7.993   4.359   9.610
97849SOL     OW95385  10.167   8.481   4.141
97849SOL    HW195386  10.186   8.553   4.201
97849SOL    HW295387  10.086   8.442   4.176
97850SOL     OW95388  11.381   8.496   3.784
97850SOL    HW195389  11.437   8.573   3.790
97850SOL    HW295390  11.422   8.440   3.718
97851SOL     OW95391   4.882  14.400   8.886
97851SOL    HW195392   4.815  14.453   8.843
97851SOL    HW295393   4.888  14.320   8.834
97852SOL     OW95394  14.012   3.506   0.110
97852SOL    HW195395  13.938   3.504   0.171
97852SOL    HW295396  13.985   3.449   0.038
97853SOL     OW95397   5.496   2.996  13.374
97853SOL    HW195398   5.513   2.981  13.281
97853SOL    HW295399   5.582   2.988  13.416
97854SOL     OW95400  13.890   2.507  13.585
97854SOL    HW195401  13.823   2.504  13.516
97854SOL    HW295402  13.846   2.477  13.664
97855SOL     OW95403   7.468   9.281   9.462
97855SOL    HW195404   7.373   9.291   9.467
97855SOL    HW295405   7.484   9.240   9.377
97856SOL     OW95406   3.626   7.301   0.429
97856SOL    HW195407   3.645   7.301   0.335
97856SOL    HW295408   3.576   7.382   0.443
97857SOL     OW95409   7.420   6.092   2.576
97857SOL    HW195410   7.432   6.172   2.525
97857SOL    HW295411   7.495   6.091   2.635
97858SOL     OW95412   5.680  10.553  10.469
97858SOL    HW195413   5.617  10.519  10.533
97858SOL    HW295414   5.634  10.548  10.385
97859SOL     OW95415   2.932  11.692   7.032
97859SOL    HW195416   2.940  11.599   7.012
97859SOL    HW295417   2.925  11.694   7.128
97860SOL     OW95418   7.223   8.748   4.523
97860SOL    HW195419   7.176   8.831   4.531
97860SOL    HW295420   7.308   8.771   4.486
97861SOL     OW95421   5.603  13.336   1.605
97861SOL    HW195422   5.633  13.260   1.555
97861SOL    HW295423   5.681  13.390   1.616
97862SOL     OW95424   3.660   6.221   1.430
97862SOL    HW195425   3.746   6.180   1.436
97862SOL    HW295426   3.608   6.161   1.377
97863SOL     OW95427  11.147   7.090  11.645
97863SOL    HW195428  11.088   7.160  11.619
97863SOL    HW295429  11.090   7.023  11.684
97864SOL     OW95430   8.169  14.561  12.025
97864SOL    HW195431   8.177  14.530  12.115
97864SOL    HW295432   8.258  14.558  11.990
97865SOL     OW95433   2.598   8.075  12.417
97865SOL    HW195434   2.618   8.119  12.500
97865SOL    HW295435   2.602   8.145  12.351
97866SOL     OW95436   6.252   2.843  14.212
97866SOL    HW195437   6.172   2.894  14.199
97866SOL    HW295438   6.282   2.823  14.123
97867SOL     OW95439  11.007   9.913   7.500
97867SOL    HW195440  10.949   9.849   7.458
97867SOL    HW295441  10.981   9.997   7.462
97868SOL     OW95442   2.701   9.930   2.793
97868SOL    HW195443   2.672  10.020   2.777
97868SOL    HW295444   2.620   9.879   2.796
97869SOL     OW95445  12.562   2.723   0.190
97869SOL    HW195446  12.510   2.801   0.209
97869SOL    HW295447  12.652   2.755   0.180
97870SOL     OW95448   8.656  10.169  12.189
97870SOL    HW195449   8.640  10.085  12.147
97870SOL    HW295450   8.669  10.147  12.281
97871SOL     OW95451   5.238  12.903   6.909
97871SOL    HW195452   5.313  12.873   6.859
97871SOL    HW295453   5.275  12.932   6.993
97872SOL     OW95454  12.303   9.396  10.978
97872SOL    HW195455  12.242   9.322  10.975
97872SOL    HW295456  12.385   9.358  11.008
97873SOL     OW95457   4.974   6.282   8.604
97873SOL    HW195458   4.988   6.191   8.629
97873SOL    HW295459   4.900   6.278   8.543
97874SOL     OW95460   4.636   2.613   4.163
97874SOL    HW195461   4.723   2.605   4.123
97874SOL    HW295462   4.636   2.701   4.201
97875SOL     OW95463   3.080   1.433   6.427
97875SOL    HW195464   3.080   1.517   6.473
97875SOL    HW295465   3.146   1.443   6.359
97876SOL     OW95466  14.329  12.957  14.243
97876SOL    HW195467  14.355  12.884  14.298
97876SOL    HW295468  14.409  12.982  14.197
97877SOL     OW95469   4.978   4.139  14.438
97877SOL    HW195470   5.055   4.167  14.389
97877SOL    HW295471   5.000   4.155  14.530
97878SOL     OW95472   3.820   9.276   9.084
97878SOL    HW195473   3.738   9.291   9.130
97878SOL    HW295474   3.867   9.359   9.091
97879SOL     OW95475   9.126   1.806   9.827
97879SOL    HW195476   9.209   1.849   9.805
97879SOL    HW295477   9.145   1.713   9.820
97880SOL     OW95478   2.968   4.231  11.029
97880SOL    HW195479   2.892   4.247  10.972
97880SOL    HW295480   2.945   4.271  11.112
97881SOL     OW95481   7.790   0.536  12.799
97881SOL    HW195482   7.802   0.467  12.864
97881SOL    HW295483   7.861   0.598  12.816
97882SOL     OW95484   0.690   4.826   7.423
97882SOL    HW195485   0.688   4.778   7.506
97882SOL    HW295486   0.623   4.783   7.369
97883SOL     OW95487   2.851  10.893   1.012
97883SOL    HW195488   2.866  10.804   0.983
97883SOL    HW295489   2.796  10.884   1.090
97884SOL     OW95490  10.466   3.535   9.071
97884SOL    HW195491  10.561   3.542   9.079
97884SOL    HW295492  10.432   3.614   9.112
97885SOL     OW95493  14.208   8.546   4.712
97885SOL    HW195494  14.145   8.518   4.779
97885SOL    HW295495  14.237   8.632   4.741
97886SOL     OW95496  14.247   8.093  11.254
97886SOL    HW195497  14.224   8.036  11.181
97886SOL    HW295498  14.259   8.033  11.328
97887SOL     OW95499   5.938   0.530  10.043
97887SOL    HW195500   5.971   0.546  10.131
97887SOL    HW295501   5.846   0.554  10.047
97888SOL     OW95502   9.639  14.870   0.915
97888SOL    HW195503   9.630  14.796   0.855
97888SOL    HW295504   9.611   0.067   0.865
97889SOL     OW95505  14.550   2.633   5.761
97889SOL    HW195506  14.493   2.578   5.709
97889SOL    HW295507  14.491   2.682   5.818
97890SOL     OW95508   7.710  12.022   0.498
97890SOL    HW195509   7.699  12.075   0.576
97890SOL    HW295510   7.635  11.963   0.498
97891SOL     OW95511   4.634   2.599   2.364
97891SOL    HW195512   4.585   2.528   2.323
97891SOL    HW295513   4.567   2.656   2.402
97892SOL     OW95514  13.111  11.470  12.710
97892SOL    HW195515  13.198  11.491  12.744
97892SOL    HW295516  13.118  11.485  12.616
97893SOL     OW95517   6.970   6.948   9.485
97893SOL    HW195518   6.878   6.959   9.461
97893SOL    HW295519   7.010   6.907   9.408
97894SOL     OW95520  10.090  14.390   8.424
97894SOL    HW195521  10.028  14.421   8.490
97894SOL    HW295522  10.045  14.404   8.341
97895SOL     OW95523   3.965   3.600  11.503
97895SOL    HW195524   4.013   3.526  11.539
97895SOL    HW295525   3.967   3.666  11.571
97896SOL     OW95526   6.399   0.047   1.275
97896SOL    HW195527   6.472  14.872   1.304
97896SOL    HW295528   6.435   0.102   1.205
97897SOL     OW95529   5.014   8.699  14.849
97897SOL    HW195530   5.081   8.699   0.037
97897SOL    HW295531   5.062   8.713  14.767
97898SOL     OW95532   1.573   7.493  14.788
97898SOL    HW195533   1.660   7.458  14.768
97898SOL    HW295534   1.528   7.422  14.833
97899SOL     OW95535   0.472   8.377  14.497
97899SOL    HW195536   0.408   8.441  14.530
97899SOL    HW295537   0.493   8.324  14.574
97900SOL     OW95538   9.255   6.466  13.853
97900SOL    HW195539   9.228   6.541  13.906
97900SOL    HW295540   9.332   6.432  13.897
97901SOL     OW95541   0.368  12.883   6.451
97901SOL    HW195542   0.437  12.898   6.515
97901SOL    HW295543   0.289  12.872   6.503
97902SOL     OW95544  10.026   8.585  13.582
97902SOL    HW195545   9.934   8.605  13.599
97902SOL    HW295546  10.053   8.649  13.516
97903SOL     OW95547   3.532  13.173  10.518
97903SOL    HW195548   3.447  13.215  10.506
97903SOL    HW295549   3.594  13.246  10.519
97904SOL     OW95550  10.520  11.733   2.259
97904SOL    HW195551  10.588  11.748   2.325
97904SOL    HW295552  10.455  11.801   2.276
97905SOL     OW95553   4.603   8.297  11.347
97905SOL    HW195554   4.550   8.224  11.378
97905SOL    HW295555   4.670   8.309  11.415
97906SOL     OW95556   3.222   8.804   6.387
97906SOL    HW195557   3.160   8.789   6.459
97906SOL    HW295558   3.308   8.791   6.427
97907SOL     OW95559   9.501  11.560   1.815
97907SOL    HW195560   9.495  11.483   1.758
97907SOL    HW295561   9.592  11.562   1.843
97908SOL     OW95562   1.020   5.391   9.072
97908SOL    HW195563   1.056   5.317   9.023
97908SOL    HW295564   1.097   5.437   9.106
97909SOL     OW95565   4.669  12.382   0.880
97909SOL    HW195566   4.727  12.425   0.818
97909SOL    HW295567   4.718  12.306   0.910
97910SOL     OW95568   4.015  12.056   8.236
97910SOL    HW195569   4.083  12.094   8.181
97910SOL    HW295570   3.998  12.123   8.302
97911SOL     OW95571  12.850   5.766   1.073
97911SOL    HW195572  12.793   5.713   1.129
97911SOL    HW295573  12.790   5.816   1.018
97912SOL     OW95574  13.769   6.334  11.258
97912SOL    HW195575  13.792   6.252  11.214
97912SOL    HW295576  13.705   6.374  11.199
97913SOL     OW95577   9.962  11.982   4.275
97913SOL    HW195578  10.043  11.943   4.306
97913SOL    HW295579   9.981  12.075   4.268
97914SOL     OW95580   7.479   7.909  12.573
97914SOL    HW195581   7.394   7.941  12.600
97914SOL    HW295582   7.479   7.816  12.594
97915SOL     OW95583   4.273   7.370  11.116
97915SOL    HW195584   4.364   7.383  11.143
97915SOL    HW295585   4.263   7.427  11.039
97916SOL     OW95586   6.138   2.595  13.865
97916SOL    HW195587   6.045   2.616  13.869
97916SOL    HW295588   6.141   2.506  13.831
97917SOL     OW95589   8.681  13.968   8.165
97917SOL    HW195590   8.738  13.993   8.092
97917SOL    HW295591   8.626  13.898   8.129
97918SOL     OW95592  10.098   6.541  14.672
97918SOL    HW195593  10.069   6.620  14.626
97918SOL    HW295594  10.103   6.474  14.604
97919SOL     OW95595   7.243  14.542   5.250
97919SOL    HW195596   7.297  14.523   5.173
97919SOL    HW295597   7.183  14.468   5.257
97920SOL     OW95598   2.306  12.874  10.169
97920SOL    HW195599   2.341  12.878  10.080
97920SOL    HW295600   2.269  12.961  10.184
97921SOL     OW95601   1.962   8.997   5.095
97921SOL    HW195602   1.947   9.090   5.105
97921SOL    HW295603   1.975   8.985   5.000
97922SOL     OW95604  13.011  12.859  14.549
97922SOL    HW195605  12.943  12.832  14.488
97922SOL    HW295606  12.963  12.888  14.627
97923SOL     OW95607   8.258   9.525  13.454
97923SOL    HW195608   8.188   9.468  13.485
97923SOL    HW295609   8.217   9.577  13.385
97924SOL     OW95610   7.796   0.701  13.941
97924SOL    HW195611   7.773   0.764  13.872
97924SOL    HW295612   7.712   0.661  13.965
97925SOL     OW95613   9.891   7.231   9.354
97925SOL    HW195614   9.906   7.244   9.447
97925SOL    HW295615   9.797   7.244   9.342
97926SOL     OW95616   1.574   8.340  10.463
97926SOL    HW195617   1.579   8.247  10.487
97926SOL    HW295618   1.551   8.339  10.370
97927SOL     OW95619  12.549  11.475  14.691
97927SOL    HW195620  12.548  11.408  14.759
97927SOL    HW295621  12.630  11.460  14.643
97928SOL     OW95622   7.331   7.407   0.487
97928SOL    HW195623   7.341   7.483   0.544
97928SOL    HW295624   7.236   7.397   0.477
97929SOL     OW95625   0.991   8.623   3.637
97929SOL    HW195626   0.944   8.670   3.706
97929SOL    HW295627   0.929   8.556   3.608
97930SOL     OW95628  12.255  13.970   2.586
97930SOL    HW195629  12.297  13.888   2.560
97930SOL    HW295630  12.222  13.952   2.675
97931SOL     OW95631   2.409   0.498   4.797
97931SOL    HW195632   2.367   0.419   4.830
97931SOL    HW295633   2.376   0.568   4.853
97932SOL     OW95634   7.659   8.197  14.385
97932SOL    HW195635   7.583   8.249  14.412
97932SOL    HW295636   7.720   8.203  14.459
97933SOL     OW95637   8.838  14.694   1.602
97933SOL    HW195638   8.898  14.692   1.528
97933SOL    HW295639   8.789  14.775   1.591
97934SOL     OW95640  12.317   9.065   5.138
97934SOL    HW195641  12.410   9.075   5.118
97934SOL    HW295642  12.308   9.097   5.228
97935SOL     OW95643  14.495   9.067   1.753
97935SOL    HW195644  14.562   9.084   1.819
97935SOL    HW295645  14.429   9.134   1.768
97936SOL     OW95646  13.125  10.578   1.044
97936SOL    HW195647  13.055  10.567   1.108
97936SOL    HW295648  13.197  10.525   1.078
97937SOL     OW95649   8.468  14.082  12.969
97937SOL    HW195650   8.405  14.011  12.958
97937SOL    HW295651   8.486  14.113  12.881
97938SOL     OW95652   5.068  12.197   9.246
97938SOL    HW195653   5.026  12.230   9.166
97938SOL    HW295654   5.053  12.103   9.244
97939SOL     OW95655   8.467  11.801   0.586
97939SOL    HW195656   8.462  11.889   0.624
97939SOL    HW295657   8.463  11.816   0.491
97940SOL     OW95658  13.669   5.570   4.449
97940SOL    HW195659  13.727   5.633   4.406
97940SOL    HW295660  13.582   5.609   4.440
97941SOL     OW95661   2.631   7.215  12.327
97941SOL    HW195662   2.687   7.286  12.358
97941SOL    HW295663   2.653   7.141  12.383
97942SOL     OW95664   4.735   8.071   2.985
97942SOL    HW195665   4.800   8.008   3.014
97942SOL    HW295666   4.653   8.022   2.982
97943SOL     OW95667  12.118  10.558   6.655
97943SOL    HW195668  12.026  10.573   6.632
97943SOL    HW295669  12.138  10.473   6.618
97944SOL     OW95670  12.982   0.247  10.407
97944SOL    HW195671  12.925   0.226  10.333
97944SOL    HW295672  13.054   0.185  10.400
97945SOL     OW95673  12.268   1.095   7.198
97945SOL    HW195674  12.314   1.017   7.229
97945SOL    HW295675  12.254   1.147   7.277
97946SOL     OW95676   4.573   9.372   1.488
97946SOL    HW195677   4.507   9.346   1.553
97946SOL    HW295678   4.582   9.467   1.500
97947SOL     OW95679   6.393   8.833  13.289
97947SOL    HW195680   6.474   8.884  13.283
97947SOL    HW295681   6.391   8.781  13.209
97948SOL     OW95682  14.350   2.648   6.507
97948SOL    HW195683  14.420   2.704   6.541
97948SOL    HW295684  14.395   2.583   6.453
97949SOL     OW95685   0.155  13.725   5.609
97949SOL    HW195686   0.136  13.666   5.536
97949SOL    HW295687   0.079  13.716   5.667
97950SOL     OW95688   7.754   9.993   0.865
97950SOL    HW195689   7.706   9.949   0.936
97950SOL    HW295690   7.766  10.082   0.897
97951SOL     OW95691   0.873   6.703  13.274
97951SOL    HW195692   0.791   6.701  13.223
97951SOL    HW295693   0.915   6.784  13.247
97952SOL     OW95694   4.995   1.548   9.919
97952SOL    HW195695   4.966   1.456   9.919
97952SOL    HW295696   5.082   1.545   9.881
97953SOL     OW95697   3.680   6.258   5.546
97953SOL    HW195698   3.738   6.331   5.524
97953SOL    HW295699   3.695   6.194   5.476
97954SOL     OW95700  14.496   3.899   2.214
97954SOL    HW195701  14.438   3.916   2.288
97954SOL    HW295702  14.438   3.868   2.145
97955SOL     OW95703   9.269   2.842   7.358
97955SOL    HW195704   9.347   2.816   7.309
97955SOL    HW295705   9.199   2.787   7.323
97956SOL     OW95706  14.525   5.596   0.111
97956SOL    HW195707  14.500   5.685   0.134
97956SOL    HW295708  14.592   5.607   0.043
97957SOL     OW95709   0.761   2.235   4.895
97957SOL    HW195710   0.787   2.184   4.972
97957SOL    HW295711   0.683   2.190   4.863
97958SOL     OW95712   7.336   7.601   6.673
97958SOL    HW195713   7.375   7.542   6.608
97958SOL    HW295714   7.399   7.672   6.682
97959SOL     OW95715   0.551  12.122  11.372
97959SOL    HW195716   0.498  12.067  11.315
97959SOL    HW295717   0.511  12.209  11.366
97960SOL     OW95718   8.192   7.265  11.653
97960SOL    HW195719   8.106   7.297  11.680
97960SOL    HW295720   8.178   7.233  11.564
97961SOL     OW95721   7.819  14.559   0.235
97961SOL    HW195722   7.915  14.554   0.239
97961SOL    HW295723   7.789  14.480   0.279
97962SOL     OW95724  12.073   3.862   7.318
97962SOL    HW195725  12.114   3.850   7.404
97962SOL    HW295726  11.998   3.918   7.336
97963SOL     OW95727  12.661   7.239  14.623
97963SOL    HW195728  12.679   7.294  14.700
97963SOL    HW295729  12.593   7.287  14.576
97964SOL     OW95730   5.992   5.676   0.320
97964SOL    HW195731   6.055   5.709   0.256
97964SOL    HW295732   6.030   5.594   0.351
97965SOL     OW95733  12.107  14.634   7.861
97965SOL    HW195734  12.196  14.621   7.829
97965SOL    HW295735  12.079  14.717   7.823
97966SOL     OW95736  14.266  13.414  10.928
97966SOL    HW195737  14.350  13.426  10.972
97966SOL    HW295738  14.252  13.496  10.880
97967SOL     OW95739   4.265  12.465  11.475
97967SOL    HW195740   4.265  12.487  11.569
97967SOL    HW295741   4.283  12.371  11.473
97968SOL     OW95742   7.448  10.769   0.986
97968SOL    HW195743   7.499  10.792   1.064
97968SOL    HW295744   7.358  10.794   1.008
97969SOL     OW95745   7.421  14.086  11.621
97969SOL    HW195746   7.459  14.139  11.551
97969SOL    HW295747   7.372  14.149  11.675
97970SOL     OW95748   4.444  14.014  12.434
97970SOL    HW195749   4.359  13.995  12.394
97970SOL    HW295750   4.432  14.097  12.480
97971SOL     OW95751   0.528   6.457   6.206
97971SOL    HW195752   0.613   6.501   6.204
97971SOL    HW295753   0.527   6.402   6.127
97972SOL     OW95754  14.624   6.690   1.081
97972SOL    HW195755  14.681   6.629   1.128
97972SOL    HW295756  14.550   6.636   1.053
97973SOL     OW95757   0.888  13.725   0.337
97973SOL    HW195758   0.889  13.734   0.241
97973SOL    HW295759   0.925  13.639   0.353
97974SOL     OW95760  13.949   8.114  12.458
97974SOL    HW195761  14.033   8.105  12.504
97974SOL    HW295762  13.896   8.170  12.515
97975SOL     OW95763  13.557  10.114   1.321
97975SOL    HW195764  13.631  10.080   1.372
97975SOL    HW295765  13.506  10.165   1.384
97976SOL     OW95766   3.656  13.510  14.580
97976SOL    HW195767   3.728  13.569  14.559
97976SOL    HW295768   3.693  13.422  14.569
97977SOL     OW95769   5.244   8.344   8.486
97977SOL    HW195770   5.330   8.385   8.486
97977SOL    HW295771   5.250   8.277   8.418
97978SOL     OW95772  11.818   3.200  14.097
97978SOL    HW195773  11.849   3.289  14.115
97978SOL    HW295774  11.894   3.156  14.059
97979SOL     OW95775   5.825   7.629   4.423
97979SOL    HW195776   5.845   7.594   4.510
97979SOL    HW295777   5.909   7.635   4.379
97980SOL     OW95778  11.577   8.767   2.594
97980SOL    HW195779  11.561   8.747   2.502
97980SOL    HW295780  11.531   8.850   2.609
97981SOL     OW95781   8.253   0.505   4.849
97981SOL    HW195782   8.166   0.473   4.824
97981SOL    HW295783   8.275   0.569   4.781
97982SOL     OW95784   7.726  10.557   9.007
97982SOL    HW195785   7.666  10.507   8.951
97982SOL    HW295786   7.808  10.558   8.959
97983SOL     OW95787   3.240  11.563   0.355
97983SOL    HW195788   3.329  11.546   0.386
97983SOL    HW295789   3.202  11.620   0.422
97984SOL     OW95790   9.540   4.649   3.161
97984SOL    HW195791   9.574   4.561   3.145
97984SOL    HW295792   9.519   4.651   3.254
97985SOL     OW95793   4.083   9.531   9.979
97985SOL    HW195794   4.158   9.547  10.036
97985SOL    HW295795   4.019   9.597  10.006
97986SOL     OW95796   8.781   1.644   1.374
97986SOL    HW195797   8.818   1.708   1.435
97986SOL    HW295798   8.856   1.610   1.326
97987SOL     OW95799  12.156   0.276   1.182
97987SOL    HW195800  12.161   0.200   1.240
97987SOL    HW295801  12.082   0.259   1.125
97988SOL     OW95802   6.426   2.614   6.335
97988SOL    HW195803   6.480   2.551   6.382
97988SOL    HW295804   6.448   2.601   6.243
97989SOL     OW95805   5.555   4.836   5.037
97989SOL    HW195806   5.473   4.855   4.990
97989SOL    HW295807   5.621   4.828   4.967
97990SOL     OW95808   9.528  12.024  12.319
97990SOL    HW195809   9.502  12.108  12.355
97990SOL    HW295810   9.620  12.015  12.345
97991SOL     OW95811   5.546  13.949   4.607
97991SOL    HW195812   5.507  14.033   4.632
97991SOL    HW295813   5.553  13.953   4.512
97992SOL     OW95814   7.909   2.445  11.489
97992SOL    HW195815   7.993   2.441  11.536
97992SOL    HW295816   7.843   2.446  11.558
97993SOL     OW95817   2.226   8.672   4.577
97993SOL    HW195818   2.276   8.602   4.618
97993SOL    HW295819   2.269   8.752   4.606
97994SOL     OW95820   6.981  10.663  10.856
97994SOL    HW195821   7.064  10.711  10.854
97994SOL    HW295822   6.972  10.635  10.947
97995SOL     OW95823   7.450   8.174   7.276
97995SOL    HW195824   7.524   8.167   7.215
97995SOL    HW295825   7.490   8.189   7.361
97996SOL     OW95826   0.147  13.057   9.126
97996SOL    HW195827   0.177  13.014   9.046
97996SOL    HW295828   0.222  13.053   9.185
97997SOL     OW95829   8.999   8.117  14.417
97997SOL    HW195830   9.086   8.150  14.442
97997SOL    HW295831   8.994   8.031  14.458
97998SOL     OW95832   2.799   0.786  10.954
97998SOL    HW195833   2.893   0.773  10.967
97998SOL    HW295834   2.765   0.807  11.042
97999SOL     OW95835  13.244   5.337  14.575
97999SOL    HW195836  13.152   5.351  14.597
97999SOL    HW295837  13.243   5.294  14.489
98000SOL     OW95838   4.400   6.356   9.645
98000SOL    HW195839   4.453   6.430   9.673
98000SOL    HW295840   4.454   6.279   9.663
98001SOL     OW95841  14.338  12.100  12.356
98001SOL    HW195842  14.416  12.052  12.326
98001SOL    HW295843  14.293  12.124  12.275
98002SOL     OW95844   3.515  13.460   1.269
98002SOL    HW195845   3.548  13.371   1.284
98002SOL    HW295846   3.486  13.461   1.178
98003SOL     OW95847  14.077  13.957  12.597
98003SOL    HW195848  14.041  14.039  12.566
98003SOL    HW295849  14.088  13.904  12.519
98004SOL     OW95850   8.210   0.026   1.201
98004SOL    HW195851   8.298   0.039   1.165
98004SOL    HW295852   8.190   0.109   1.244
98005SOL     OW95853   0.321   9.062   7.606
98005SOL    HW195854   0.384   9.112   7.554
98005SOL    HW295855   0.367   8.981   7.629
98006SOL     OW95856   9.503   0.510   8.364
98006SOL    HW195857   9.521   0.526   8.271
98006SOL    HW295858   9.495   0.414   8.370
98007SOL     OW95859   8.002  12.008   3.005
98007SOL    HW195860   7.961  11.932   3.045
98007SOL    HW295861   7.998  11.990   2.911
98008SOL     OW95862   9.683   4.740  14.193
98008SOL    HW195863   9.757   4.788  14.231
98008SOL    HW295864   9.721   4.659  14.160
98009SOL     OW95865   0.613   1.941  11.167
98009SOL    HW195866   0.532   1.894  11.145
98009SOL    HW295867   0.583   2.027  11.196
98010SOL     OW95868   6.968   6.081  11.251
98010SOL    HW195869   7.011   6.129  11.180
98010SOL    HW295870   7.040   6.053  11.308
98011SOL     OW95871   1.292   3.111   0.962
98011SOL    HW195872   1.289   3.061   1.044
98011SOL    HW295873   1.212   3.085   0.916
98012SOL     OW95874   4.922   9.272   1.693
98012SOL    HW195875   4.956   9.308   1.775
98012SOL    HW295876   4.931   9.344   1.630
98013SOL     OW95877   3.808   8.853  13.485
98013SOL    HW195878   3.814   8.858  13.389
98013SOL    HW295879   3.718   8.876  13.504
98014SOL     OW95880  11.769   7.905  11.446
98014SOL    HW195881  11.809   7.826  11.409
98014SOL    HW295882  11.790   7.974  11.383
98015SOL     OW95883   1.312  10.434   9.011
98015SOL    HW195884   1.354  10.421   9.096
98015SOL    HW295885   1.385  10.447   8.950
98016SOL     OW95886  13.346   4.384  14.164
98016SOL    HW195887  13.386   4.301  14.137
98016SOL    HW295888  13.257   4.361  14.189
98017SOL     OW95889  12.209  11.744  12.065
98017SOL    HW195890  12.194  11.673  12.003
98017SOL    HW295891  12.298  11.729  12.098
98018SOL     OW95892   3.047  11.476   7.308
98018SOL    HW195893   3.122  11.425   7.338
98018SOL    HW295894   3.031  11.445   7.219
98019SOL     OW95895   5.586  11.581   5.787
98019SOL    HW195896   5.646  11.555   5.857
98019SOL    HW295897   5.629  11.553   5.706
98020SOL     OW95898   6.098   5.595   5.944
98020SOL    HW195899   6.010   5.617   5.976
98020SOL    HW295900   6.148   5.675   5.955
98021SOL     OW95901  13.491  13.143  11.147
98021SOL    HW195902  13.423  13.192  11.192
98021SOL    HW295903  13.550  13.114  11.216
98022SOL     OW95904   0.211  13.043  12.105
98022SOL    HW195905   0.242  13.082  12.186
98022SOL    HW295906   0.275  13.069  12.039
98023SOL     OW95907  10.978  12.288  12.669
98023SOL    HW195908  10.918  12.354  12.703
98023SOL    HW295909  10.922  12.214  12.647
98024SOL     OW95910  10.741  13.261  10.210
98024SOL    HW195911  10.749  13.257  10.115
98024SOL    HW295912  10.797  13.334  10.236
98025SOL     OW95913   6.441   3.403  11.335
98025SOL    HW195914   6.363   3.422  11.283
98025SOL    HW295915   6.512   3.445  11.286
98026SOL     OW95916  13.111   4.513   5.436
98026SOL    HW195917  13.105   4.417   5.427
98026SOL    HW295918  13.204   4.530   5.446
98027SOL     OW95919  10.550  14.297  14.065
98027SOL    HW195920  10.636  14.256  14.073
98027SOL    HW295921  10.487  14.227  14.083
98028SOL     OW95922   3.607   3.387   6.379
98028SOL    HW195923   3.615   3.296   6.407
98028SOL    HW295924   3.527   3.390   6.328
98029SOL     OW95925   7.008   6.178  12.616
98029SOL    HW195926   7.038   6.233  12.689
98029SOL    HW295927   6.913   6.186  12.617
98030SOL     OW95928  13.376   3.903  13.655
98030SOL    HW195929  13.305   3.926  13.595
98030SOL    HW295930  13.437   3.851  13.603
98031SOL     OW95931  13.007  10.972  12.446
98031SOL    HW195932  13.048  10.980  12.360
98031SOL    HW295933  13.047  11.043  12.497
98032SOL     OW95934   3.559   2.488   1.392
98032SOL    HW195935   3.583   2.551   1.324
98032SOL    HW295936   3.595   2.524   1.473
98033SOL     OW95937   1.739   8.869   9.550
98033SOL    HW195938   1.820   8.821   9.565
98033SOL    HW295939   1.711   8.898   9.637
98034SOL     OW95940  11.728   8.341   1.975
98034SOL    HW195941  11.794   8.294   1.925
98034SOL    HW295942  11.645   8.316   1.935
98035SOL     OW95943   8.265   4.770   1.195
98035SOL    HW195944   8.311   4.777   1.111
98035SOL    HW295945   8.233   4.680   1.197
98036SOL     OW95946   2.569   1.429  13.434
98036SOL    HW195947   2.611   1.463  13.355
98036SOL    HW295948   2.620   1.351  13.456
98037SOL     OW95949  14.687  11.043   4.587
98037SOL    HW195950  14.628  10.974   4.555
98037SOL    HW295951  14.710  11.016   4.675
98038SOL     OW95952   4.820   1.151  12.830
98038SOL    HW195953   4.758   1.186  12.894
98038SOL    HW295954   4.765   1.119  12.758
98039SOL     OW95955   3.983   4.835   5.651
98039SOL    HW195956   4.053   4.773   5.635
98039SOL    HW295957   3.983   4.849   5.746
98040SOL     OW95958   1.737   5.332   5.922
98040SOL    HW195959   1.776   5.371   6.000
98040SOL    HW295960   1.651   5.374   5.914
98041SOL     OW95961   6.336   1.281   8.583
98041SOL    HW195962   6.258   1.277   8.638
98041SOL    HW295963   6.382   1.360   8.613
98042SOL     OW95964   1.305  12.170   4.643
98042SOL    HW195965   1.341  12.086   4.613
98042SOL    HW295966   1.361  12.236   4.603
98043SOL     OW95967   5.904   3.707   6.778
98043SOL    HW195968   5.941   3.772   6.720
98043SOL    HW295969   5.882   3.633   6.721
98044SOL     OW95970  12.714   8.123  11.884
98044SOL    HW195971  12.655   8.050  11.898
98044SOL    HW295972  12.680   8.167  11.806
98045SOL     OW95973   6.201   7.378   6.632
98045SOL    HW195974   6.214   7.292   6.594
98045SOL    HW295975   6.282   7.395   6.681
98046SOL     OW95976  14.856   2.747   3.099
98046SOL    HW195977  14.761   2.744   3.099
98046SOL    HW295978  14.878   2.824   3.046
98047SOL     OW95979   2.889  12.065   8.142
98047SOL    HW195980   2.850  12.067   8.054
98047SOL    HW295981   2.876  11.974   8.171
98048SOL     OW95982   8.669   4.935  12.702
98048SOL    HW195983   8.708   4.874  12.639
98048SOL    HW295984   8.740   4.955  12.763
98049SOL     OW95985   5.350   1.591  13.776
98049SOL    HW195986   5.267   1.548  13.757
98049SOL    HW295987   5.413   1.547  13.719
98050SOL     OW95988   0.827  10.943  12.735
98050SOL    HW195989   0.892  10.994  12.687
98050SOL    HW295990   0.853  10.852  12.722
98051SOL     OW95991  13.280   2.396  12.125
98051SOL    HW195992  13.362   2.443  12.137
98051SOL    HW295993  13.216   2.446  12.175
98052SOL     OW95994  12.182  12.465  11.896
98052SOL    HW195995  12.204  12.385  11.944
98052SOL    HW295996  12.224  12.535  11.945
98053SOL     OW95997  12.628  11.093   6.859
98053SOL    HW195998  12.582  11.023   6.906
98053SOL    HW295999  12.602  11.081   6.768
98054SOL     OW96000  11.520   1.389   2.696
98054SOL    HW196001  11.503   1.477   2.663
98054SOL    HW296002  11.615   1.377   2.684
98055SOL     OW96003   2.128   0.336   0.265
98055SOL    HW196004   2.220   0.353   0.282
98055SOL    HW296005   2.086   0.344   0.351
98056SOL     OW96006  13.888   1.519   8.927
98056SOL    HW196007  13.915   1.603   8.964
98056SOL    HW296008  13.945   1.454   8.969
98057SOL     OW96009  14.510   1.643   4.778
98057SOL    HW196010  14.470   1.704   4.716
98057SOL    HW296011  14.490   1.556   4.743
98058SOL     OW96012   3.846  13.293   3.751
98058SOL    HW196013   3.776  13.358   3.757
98058SOL    HW296014   3.843  13.263   3.660
98059SOL     OW96015   1.965   7.621   4.814
98059SOL    HW196016   1.983   7.575   4.732
98059SOL    HW296017   1.869   7.624   4.818
98060SOL     OW96018   5.540   2.540   6.690
98060SOL    HW196019   5.585   2.556   6.774
98060SOL    HW296020   5.473   2.475   6.711
98061SOL     OW96021  10.589  11.685   8.134
98061SOL    HW196022  10.615  11.599   8.101
98061SOL    HW296023  10.515  11.711   8.079
98062SOL     OW96024   1.549   9.269  10.791
98062SOL    HW196025   1.643   9.261  10.810
98062SOL    HW296026   1.546   9.298  10.700
98063SOL     OW96027   5.409   0.262  12.333
98063SOL    HW196028   5.321   0.296  12.322
98063SOL    HW296029   5.407   0.175  12.293
98064SOL     OW96030   2.089   3.546   6.013
98064SOL    HW196031   2.026   3.510   6.075
98064SOL    HW296032   2.035   3.576   5.940
98065SOL     OW96033   4.347   9.584   2.915
98065SOL    HW196034   4.430   9.558   2.957
98065SOL    HW296035   4.282   9.525   2.954
98066SOL     OW96036   5.485   6.074   1.532
98066SOL    HW196037   5.526   6.153   1.496
98066SOL    HW296038   5.521   6.067   1.620
98067SOL     OW96039   2.767   8.025   7.494
98067SOL    HW196040   2.709   8.070   7.555
98067SOL    HW296041   2.807   8.094   7.442
98068SOL     OW96042   7.993   0.001  11.687
98068SOL    HW196043   7.922  14.874  11.624
98068SOL    HW296044   7.962  14.829  11.762
98069SOL     OW96045   7.220  13.630  11.980
98069SOL    HW196046   7.211  13.725  11.991
98069SOL    HW296047   7.141  13.604  11.932
98070SOL     OW96048   5.806   1.115   2.150
98070SOL    HW196049   5.887   1.123   2.099
98070SOL    HW296050   5.750   1.057   2.098
98071SOL     OW96051   6.598   7.069   1.810
98071SOL    HW196052   6.609   6.986   1.763
98071SOL    HW296053   6.581   7.043   1.901
98072SOL     OW96054  14.752   1.315   8.271
98072SOL    HW196055  14.792   1.357   8.194
98072SOL    HW296056  14.658   1.332   8.261
98073SOL     OW96057   2.939  10.669   6.857
98073SOL    HW196058   2.903  10.717   6.932
98073SOL    HW296059   3.031  10.693   6.855
98074SOL     OW96060  10.051  12.226   8.020
98074SOL    HW196061  10.064  12.136   8.048
98074SOL    HW296062   9.971  12.254   8.064
98075SOL     OW96063   8.934  11.238  14.460
98075SOL    HW196064   8.927  11.201  14.548
98075SOL    HW296065   8.975  11.169  14.407
98076SOL     OW96066   2.049   0.644   2.094
98076SOL    HW196067   1.958   0.617   2.086
98076SOL    HW296068   2.081   0.651   2.004
98077SOL     OW96069  11.450   3.101   6.929
98077SOL    HW196070  11.420   3.025   6.979
98077SOL    HW296071  11.478   3.164   6.996
98078SOL     OW96072   2.774   1.066   8.204
98078SOL    HW196073   2.850   1.084   8.259
98078SOL    HW296074   2.702   1.051   8.265
98079SOL     OW96075   6.887   0.850  10.046
98079SOL    HW196076   6.811   0.811  10.004
98079SOL    HW296077   6.881   0.943  10.027
98080SOL     OW96078   7.671   2.774  14.786
98080SOL    HW196079   7.617   2.833  14.838
98080SOL    HW296080   7.616   2.751  14.711
98081SOL     OW96081   5.118   6.870   5.017
98081SOL    HW196082   5.190   6.813   4.992
98081SOL    HW296083   5.151   6.958   5.003
98082SOL     OW96084   4.270  13.028   8.813
98082SOL    HW196085   4.186  12.986   8.792
98082SOL    HW296086   4.246  13.117   8.840
98083SOL     OW96087   9.515   3.466  14.870
98083SOL    HW196088   9.507   3.434   0.080
98083SOL    HW296089   9.481   3.555  14.872
98084SOL     OW96090   9.612   3.819  13.014
98084SOL    HW196091   9.540   3.879  12.998
98084SOL    HW296092   9.577   3.732  12.993
98085SOL     OW96093  14.416   1.535  13.119
98085SOL    HW196094  14.451   1.449  13.095
98085SOL    HW296095  14.493   1.587  13.140
98086SOL     OW96096  12.638  10.370  10.116
98086SOL    HW196097  12.627  10.439  10.051
98086SOL    HW296098  12.672  10.415  10.193
98087SOL     OW96099  11.707  11.213   6.773
98087SOL    HW196100  11.635  11.171   6.820
98087SOL    HW296101  11.731  11.287   6.828
98088SOL     OW96102  13.456   8.541   2.809
98088SOL    HW196103  13.385   8.557   2.871
98088SOL    HW296104  13.513   8.478   2.853
98089SOL     OW96105   6.492   6.546   9.023
98089SOL    HW196106   6.484   6.620   8.962
98089SOL    HW296107   6.547   6.483   8.977
98090SOL     OW96108   4.269  13.334   2.365
98090SOL    HW196109   4.311  13.351   2.281
98090SOL    HW296110   4.179  13.365   2.354
98091SOL     OW96111   9.899   2.036   3.513
98091SOL    HW196112   9.841   2.096   3.466
98091SOL    HW296113   9.917   2.081   3.596
98092SOL     OW96114   7.456   0.433   6.196
98092SOL    HW196115   7.490   0.491   6.128
98092SOL    HW296116   7.509   0.354   6.188
98093SOL     OW96117  14.471   0.712   1.974
98093SOL    HW196118  14.482   0.759   2.056
98093SOL    HW296119  14.534   0.753   1.914
98094SOL     OW96120   6.500   3.251   7.834
98094SOL    HW196121   6.595   3.247   7.840
98094SOL    HW296122   6.470   3.165   7.865
98095SOL     OW96123  12.598   1.805  10.390
98095SOL    HW196124  12.593   1.731  10.451
98095SOL    HW296125  12.620   1.765  10.306
98096SOL     OW96126   9.814   5.102  14.530
98096SOL    HW196127   9.774   5.015  14.533
98096SOL    HW296128   9.749   5.160  14.570
98097SOL     OW96129   4.518   4.303   3.109
98097SOL    HW196130   4.479   4.223   3.143
98097SOL    HW296131   4.604   4.275   3.076
98098SOL     OW96132   4.590   3.440  11.770
98098SOL    HW196133   4.573   3.504  11.702
98098SOL    HW296134   4.563   3.357  11.732
98099SOL     OW96135   6.025   7.565   6.516
98099SOL    HW196136   6.089   7.500   6.544
98099SOL    HW296137   6.073   7.647   6.512
98100SOL     OW96138   5.047   3.356   4.756
98100SOL    HW196139   5.051   3.315   4.669
98100SOL    HW296140   5.021   3.446   4.739
98101SOL     OW96141  11.673   1.176   7.004
98101SOL    HW196142  11.609   1.106   7.020
98101SOL    HW296143  11.639   1.251   7.051
98102SOL     OW96144   4.028   3.569   7.060
98102SOL    HW196145   4.072   3.539   7.139
98102SOL    HW296146   3.941   3.598   7.090
98103SOL     OW96147   5.282   0.696   6.459
98103SOL    HW196148   5.249   0.784   6.440
98103SOL    HW296149   5.256   0.679   6.549
98104SOL     OW96150  12.840  14.301   6.575
98104SOL    HW196151  12.880  14.214   6.563
98104SOL    HW296152  12.747  14.286   6.562
98105SOL     OW96153   8.897  11.003   8.702
98105SOL    HW196154   8.927  10.955   8.779
98105SOL    HW296155   8.821  11.053   8.733
98106SOL     OW96156  11.916  10.847   4.384
98106SOL    HW196157  11.938  10.810   4.470
98106SOL    HW296158  11.989  10.822   4.328
98107SOL     OW96159  10.097   9.039   3.060
98107SOL    HW196160  10.031   9.024   2.993
98107SOL    HW296161  10.180   9.037   3.014
98108SOL     OW96162   9.878   4.866   9.712
98108SOL    HW196163   9.820   4.828   9.778
98108SOL    HW296164   9.871   4.807   9.637
98109SOL     OW96165   1.449   5.789   3.401
98109SOL    HW196166   1.534   5.817   3.435
98109SOL    HW296167   1.433   5.705   3.443
98110SOL     OW96168   5.826   0.267  12.649
98110SOL    HW196169   5.893   0.218  12.601
98110SOL    HW296170   5.768   0.301  12.580
98111SOL     OW96171   2.128  11.706   1.772
98111SOL    HW196172   2.110  11.800   1.776
98111SOL    HW296173   2.219  11.699   1.745
98112SOL     OW96174   8.012   6.598   5.584
98112SOL    HW196175   7.976   6.619   5.671
98112SOL    HW296176   7.944   6.626   5.523
98113SOL     OW96177   6.029   1.156   1.982
98113SOL    HW196178   6.107   1.109   1.953
98113SOL    HW296179   6.062   1.237   2.021
98114SOL     OW96180   0.900   7.698   0.706
98114SOL    HW196181   0.944   7.741   0.780
98114SOL    HW296182   0.867   7.771   0.653
98115SOL     OW96183  13.953  13.101   2.219
98115SOL    HW196184  14.036  13.073   2.179
98115SOL    HW296185  13.941  13.041   2.292
98116SOL     OW96186   3.419  12.913   1.574
98116SOL    HW196187   3.492  12.966   1.608
98116SOL    HW296188   3.359  12.978   1.537
98117SOL     OW96189   6.142   8.653   0.214
98117SOL    HW196190   6.199   8.617   0.145
98117SOL    HW296191   6.196   8.719   0.257
98118SOL     OW96192   3.220   2.235   6.087
98118SOL    HW196193   3.279   2.305   6.116
98118SOL    HW296194   3.140   2.281   6.060
98119SOL     OW96195   2.237  12.110  10.651
98119SOL    HW196196   2.189  12.123  10.570
98119SOL    HW296197   2.171  12.086  10.715
98120SOL     OW96198   0.663   5.727   4.189
98120SOL    HW196199   0.608   5.656   4.222
98120SOL    HW296200   0.601   5.791   4.155
98121SOL     OW96201   6.060  12.016   9.526
98121SOL    HW196202   5.970  12.036   9.499
98121SOL    HW296203   6.082  11.937   9.476
98122SOL     OW96204   9.306  13.828   0.026
98122SOL    HW196205   9.350  13.909   0.052
98122SOL    HW296206   9.348  13.760   0.080
98123SOL     OW96207   3.009   9.925  10.686
98123SOL    HW196208   2.965   9.863  10.744
98123SOL    HW296209   2.949   9.937  10.613
98124SOL     OW96210   4.891   2.967   6.540
98124SOL    HW196211   4.909   2.873   6.532
98124SOL    HW296212   4.894   2.999   6.450
98125SOL     OW96213  12.854   7.308  13.780
98125SOL    HW196214  12.908   7.358  13.718
98125SOL    HW296215  12.907   7.305  13.860
98126SOL     OW96216  11.830   0.281  11.402
98126SOL    HW196217  11.760   0.316  11.347
98126SOL    HW296218  11.886   0.357  11.420
98127SOL     OW96219   5.433   4.097   2.081
98127SOL    HW196220   5.464   4.036   2.013
98127SOL    HW296221   5.392   4.168   2.032
98128SOL     OW96222   1.282  14.738  11.856
98128SOL    HW196223   1.194  14.771  11.873
98128SOL    HW296224   1.315  14.792  11.784
98129SOL     OW96225   5.819   4.030  13.051
98129SOL    HW196226   5.855   4.111  13.087
98129SOL    HW296227   5.800   4.052  12.959
98130SOL     OW96228   5.850   2.351  14.866
98130SOL    HW196229   5.864   2.287  14.796
98130SOL    HW296230   5.817   2.299   0.060
98131SOL     OW96231   9.793   9.302   0.617
98131SOL    HW196232   9.805   9.331   0.527
98131SOL    HW296233   9.701   9.277   0.621
98132SOL     OW96234   7.177  14.482   5.549
98132SOL    HW196235   7.223  14.398   5.547
98132SOL    HW296236   7.186  14.517   5.461
98133SOL     OW96237  12.087   4.715   2.778
98133SOL    HW196238  12.116   4.787   2.834
98133SOL    HW296239  12.156   4.705   2.713
98134SOL     OW96240   0.657  13.991  11.557
98134SOL    HW196241   0.571  14.017  11.524
98134SOL    HW296242   0.679  14.059  11.620
98135SOL     OW96243   2.208   4.347   5.611
98135SOL    HW196244   2.198   4.284   5.683
98135SOL    HW296245   2.129   4.400   5.615
98136SOL     OW96246   6.459   9.479   4.164
98136SOL    HW196247   6.477   9.386   4.152
98136SOL    HW296248   6.445   9.489   4.258
98137SOL     OW96249   2.167   2.786   0.165
98137SOL    HW196250   2.175   2.874   0.203
98137SOL    HW296251   2.132   2.801   0.077
98138SOL     OW96252   1.227  13.989  13.484
98138SOL    HW196253   1.319  13.969  13.499
98138SOL    HW296254   1.188  13.987  13.571
98139SOL     OW96255  13.581  13.561   2.731
98139SOL    HW196256  13.563  13.495   2.798
98139SOL    HW296257  13.510  13.624   2.740
98140SOL     OW96258   9.834   8.687  14.400
98140SOL    HW196259   9.791   8.760  14.356
98140SOL    HW296260   9.827   8.707  14.493
98141SOL     OW96261  13.153  11.565   1.643
98141SOL    HW196262  13.113  11.561   1.556
98141SOL    HW296263  13.096  11.624   1.693
98142SOL     OW96264   7.805   7.653   7.509
98142SOL    HW196265   7.861   7.648   7.586
98142SOL    HW296266   7.845   7.594   7.445
98143SOL     OW96267   7.217   0.357  14.749
98143SOL    HW196268   7.175   0.389  14.829
98143SOL    HW296269   7.216   0.262  14.757
98144SOL     OW96270   3.818  12.154  10.366
98144SOL    HW196271   3.899  12.198  10.337
98144SOL    HW296272   3.751  12.223  10.362
98145SOL     OW96273  12.163   6.405   7.534
98145SOL    HW196274  12.092   6.341   7.526
98145SOL    HW296275  12.167   6.426   7.627
98146SOL     OW96276  10.284  13.571  14.832
98146SOL    HW196277  10.261  13.647   0.006
98146SOL    HW296278  10.268  13.496   0.010
98147SOL     OW96279   7.702  10.339  10.943
98147SOL    HW196280   7.716  10.311  10.852
98147SOL    HW296281   7.650  10.268  10.981
98148SOL     OW96282   5.097  11.586  11.211
98148SOL    HW196283   5.123  11.615  11.123
98148SOL    HW296284   5.180  11.571  11.257
98149SOL     OW96285   4.171   5.479   7.036
98149SOL    HW196286   4.204   5.533   7.108
98149SOL    HW296287   4.119   5.411   7.078
98150SOL     OW96288   1.972   4.925   4.830
98150SOL    HW196289   1.951   4.965   4.914
98150SOL    HW296290   2.068   4.926   4.826
98151SOL     OW96291  14.428   4.090   9.180
98151SOL    HW196292  14.508   4.141   9.197
98151SOL    HW296293  14.380   4.092   9.262
98152SOL     OW96294   8.494  11.121  11.044
98152SOL    HW196295   8.408  11.122  11.001
98152SOL    HW296296   8.544  11.189  10.997
98153SOL     OW96297  11.520  13.072   3.597
98153SOL    HW196298  11.496  13.163   3.612
98153SOL    HW296299  11.460  13.022   3.652
98154SOL     OW96300   1.279  10.825   0.329
98154SOL    HW196301   1.218  10.794   0.396
98154SOL    HW296302   1.249  10.913   0.308
98155SOL     OW96303  14.108   1.569   8.308
98155SOL    HW196304  14.119   1.517   8.388
98155SOL    HW296305  14.067   1.650   8.337
98156SOL     OW96306   3.112   9.183  12.442
98156SOL    HW196307   3.144   9.134  12.367
98156SOL    HW296308   3.130   9.275  12.420
98157SOL     OW96309   2.470   3.094   9.637
98157SOL    HW196310   2.540   3.151   9.668
98157SOL    HW296311   2.430   3.060   9.717
98158SOL     OW96312   6.240  11.328   4.669
98158SOL    HW196313   6.158  11.277   4.674
98158SOL    HW296314   6.287  11.288   4.596
98159SOL     OW96315  11.775   4.048   3.791
98159SOL    HW196316  11.715   4.064   3.718
98159SOL    HW296317  11.860   4.035   3.750
98160SOL     OW96318   0.555   4.869   3.641
98160SOL    HW196319   0.461   4.883   3.655
98160SOL    HW296320   0.583   4.817   3.716
98161SOL     OW96321  10.859   7.483   1.769
98161SOL    HW196322  10.949   7.452   1.771
98161SOL    HW296323  10.866   7.578   1.757
98162SOL     OW96324  11.007  13.507   4.118
98162SOL    HW196325  10.923  13.489   4.160
98162SOL    HW296326  11.069  13.516   4.191
98163SOL     OW96327  12.214  14.343   8.095
98163SOL    HW196328  12.167  14.424   8.113
98163SOL    HW296329  12.177  14.280   8.157
98164SOL     OW96330   9.570   1.895   1.677
98164SOL    HW196331   9.620   1.951   1.736
98164SOL    HW296332   9.551   1.816   1.729
98165SOL     OW96333  13.476   7.564  11.606
98165SOL    HW196334  13.476   7.490  11.667
98165SOL    HW296335  13.427   7.633  11.651
98166SOL     OW96336  13.232   3.006   9.696
98166SOL    HW196337  13.282   2.934   9.736
98166SOL    HW296338  13.141   2.978   9.702
98167SOL     OW96339   6.500   3.918  13.203
98167SOL    HW196340   6.509   3.987  13.268
98167SOL    HW296341   6.588   3.909  13.166
98168SOL     OW96342   8.648   1.388   2.145
98168SOL    HW196343   8.638   1.335   2.065
98168SOL    HW296344   8.652   1.478   2.114
98169SOL     OW96345  11.451  14.592   0.304
98169SOL    HW196346  11.391  14.645   0.357
98169SOL    HW296347  11.491  14.655   0.244
98170SOL     OW96348   3.018  12.648   5.403
98170SOL    HW196349   3.015  12.728   5.455
98170SOL    HW296350   3.109  12.642   5.373
98171SOL     OW96351   2.568   3.184   1.622
98171SOL    HW196352   2.483   3.213   1.588
98171SOL    HW296353   2.574   3.093   1.594
98172SOL     OW96354  10.920   8.173   2.252
98172SOL    HW196355  10.894   8.085   2.279
98172SOL    HW296356  10.939   8.165   2.158
98173SOL     OW96357   8.898   3.080   4.243
98173SOL    HW196358   8.990   3.099   4.225
98173SOL    HW296359   8.851   3.157   4.211
98174SOL     OW96360   6.920  13.819   7.241
98174SOL    HW196361   6.884  13.904   7.215
98174SOL    HW296362   6.890  13.758   7.174
98175SOL     OW96363  11.575   0.044   8.930
98175SOL    HW196364  11.545  14.834   8.913
98175SOL    HW296365  11.671   0.037   8.930
98176SOL     OW96366   6.790   4.241   5.830
98176SOL    HW196367   6.877   4.203   5.837
98176SOL    HW296368   6.770   4.273   5.918
98177SOL     OW96369   5.597   7.071   2.313
98177SOL    HW196370   5.587   7.105   2.402
98177SOL    HW296371   5.688   7.088   2.291
98178SOL     OW96372  11.307  12.625   2.661
98178SOL    HW196373  11.264  12.682   2.597
98178SOL    HW296374  11.400  12.631   2.640
98179SOL     OW96375   2.767   8.965   1.036
98179SOL    HW196376   2.722   9.014   1.104
98179SOL    HW296377   2.722   8.880   1.034
98180SOL     OW96378   4.614   2.443   4.798
98180SOL    HW196379   4.605   2.362   4.849
98180SOL    HW296380   4.708   2.455   4.788
98181SOL     OW96381  13.130   5.754   8.460
98181SOL    HW196382  13.092   5.830   8.417
98181SOL    HW296383  13.068   5.683   8.444
98182SOL     OW96384  12.049   2.935   4.486
98182SOL    HW196385  12.075   2.913   4.396
98182SOL    HW296386  11.953   2.936   4.484
98183SOL     OW96387   6.645   8.454  13.048
98183SOL    HW196388   6.698   8.377  13.070
98183SOL    HW296389   6.646   8.457  12.952
98184SOL     OW96390   5.880  10.851   5.967
98184SOL    HW196391   5.806  10.804   6.003
98184SOL    HW296392   5.893  10.926   6.025
98185SOL     OW96393   6.683  11.931   7.886
98185SOL    HW196394   6.656  11.881   7.963
98185SOL    HW296395   6.668  11.871   7.813
98186SOL     OW96396   2.758  12.829  11.271
98186SOL    HW196397   2.840  12.851  11.226
98186SOL    HW296398   2.775  12.743  11.310
98187SOL     OW96399   5.863  11.849   7.734
98187SOL    HW196400   5.839  11.798   7.811
98187SOL    HW296401   5.933  11.907   7.764
98188SOL     OW96402   6.108   6.639   5.648
98188SOL    HW196403   6.156   6.605   5.572
98188SOL    HW296404   6.023   6.595   5.644
98189SOL     OW96405   9.406  10.423   0.817
98189SOL    HW196406   9.384  10.351   0.877
98189SOL    HW296407   9.441  10.379   0.739
98190SOL     OW96408   6.030   1.601   0.133
98190SOL    HW196409   6.051   1.576   0.043
98190SOL    HW296410   5.937   1.580   0.142
98191SOL     OW96411   2.264   3.583   1.176
98191SOL    HW196412   2.328   3.516   1.200
98191SOL    HW296413   2.182   3.551   1.213
98192SOL     OW96414   8.993  10.408   2.750
98192SOL    HW196415   9.041  10.446   2.676
98192SOL    HW296416   9.054  10.412   2.824
98193SOL     OW96417  14.599   6.242   2.088
98193SOL    HW196418  14.652   6.167   2.116
98193SOL    HW296419  14.517   6.233   2.136
98194SOL     OW96420  12.392   1.816   1.621
98194SOL    HW196421  12.328   1.777   1.561
98194SOL    HW296422  12.477   1.797   1.582
98195SOL     OW96423   3.972   6.389   5.179
98195SOL    HW196424   3.978   6.395   5.274
98195SOL    HW296425   3.881   6.368   5.161
98196SOL     OW96426   8.742   7.853   9.388
98196SOL    HW196427   8.798   7.818   9.457
98196SOL    HW296428   8.653   7.831   9.415
98197SOL     OW96429   2.474   1.442   2.212
98197SOL    HW196430   2.529   1.429   2.135
98197SOL    HW296431   2.387   1.459   2.177
98198SOL     OW96432  10.204   4.057  12.899
98198SOL    HW196433  10.290   4.032  12.934
98198SOL    HW296434  10.218   4.067  12.805
98199SOL     OW96435   4.402   9.286   1.693
98199SOL    HW196436   4.322   9.235   1.683
98199SOL    HW296437   4.455   9.235   1.754
98200SOL     OW96438   7.165  11.949  13.412
98200SOL    HW196439   7.153  11.976  13.321
98200SOL    HW296440   7.260  11.941  13.423
98201SOL     OW96441  11.023  10.793  11.902
98201SOL    HW196442  11.061  10.734  11.967
98201SOL    HW296443  11.044  10.753  11.817
98202SOL     OW96444   3.386   1.483   0.546
98202SOL    HW196445   3.355   1.508   0.633
98202SOL    HW296446   3.481   1.473   0.556
98203SOL     OW96447   1.645  10.833  10.073
98203SOL    HW196448   1.557  10.845  10.037
98203SOL    HW296449   1.647  10.741  10.101
98204SOL     OW96450  14.123   7.338   4.474
98204SOL    HW196451  14.146   7.245   4.484
98204SOL    HW296452  14.139   7.375   4.561
98205SOL     OW96453  12.748   5.593   8.811
98205SOL    HW196454  12.759   5.679   8.772
98205SOL    HW296455  12.679   5.552   8.759
98206SOL     OW96456   1.876   9.642   9.403
98206SOL    HW196457   1.805   9.601   9.353
98206SOL    HW296458   1.853   9.735   9.405
98207SOL     OW96459   0.003   8.662  12.169
98207SOL    HW196460  14.862   8.754  12.150
98207SOL    HW296461   0.022   8.624  12.083
98208SOL     OW96462   6.846  10.903   8.256
98208SOL    HW196463   6.784  10.882   8.325
98208SOL    HW296464   6.932  10.886   8.294
98209SOL     OW96465   4.182   3.451   9.860
98209SOL    HW196466   4.167   3.504   9.938
98209SOL    HW296467   4.277   3.448   9.851
98210SOL     OW96468   4.632  11.065   7.003
98210SOL    HW196469   4.667  11.151   7.023
98210SOL    HW296470   4.643  11.015   7.084
98211SOL     OW96471   4.104   3.300   5.057
98211SOL    HW196472   4.064   3.384   5.034
98211SOL    HW296473   4.147   3.317   5.141
98212SOL     OW96474   9.866  13.823   2.541
98212SOL    HW196475   9.955  13.806   2.510
98212SOL    HW296476   9.810  13.803   2.466
98213SOL     OW96477   3.447   1.913  10.470
98213SOL    HW196478   3.355   1.940  10.469
98213SOL    HW296479   3.496   1.995  10.472
98214SOL     OW96480   3.286   0.236   0.182
98214SOL    HW196481   3.229   0.217   0.256
98214SOL    HW296482   3.273   0.162   0.122
98215SOL     OW96483   5.293   0.112   9.795
98215SOL    HW196484   5.375   0.160   9.802
98215SOL    HW296485   5.291   0.056   9.872
98216SOL     OW96486   7.132   5.558  13.550
98216SOL    HW196487   7.094   5.600  13.472
98216SOL    HW296488   7.159   5.632  13.605
98217SOL     OW96489  12.363   8.985  14.854
98217SOL    HW196490  12.417   8.952  14.782
98217SOL    HW296491  12.273   8.977  14.822
98218SOL     OW96492  12.999  11.695   6.459
98218SOL    HW196493  13.061  11.687   6.532
98218SOL    HW296494  12.979  11.605   6.435
98219SOL     OW96495   0.596   1.688  14.562
98219SOL    HW196496   0.570   1.612  14.615
98219SOL    HW296497   0.586   1.658  14.472
98220SOL     OW96498   2.849   3.649  10.472
98220SOL    HW196499   2.869   3.631  10.564
98220SOL    HW296500   2.910   3.594  10.423
98221SOL     OW96501   4.663   1.284   5.036
98221SOL    HW196502   4.716   1.232   4.976
98221SOL    HW296503   4.579   1.294   4.992
98222SOL     OW96504  14.399   2.290   2.189
98222SOL    HW196505  14.461   2.354   2.222
98222SOL    HW296506  14.340   2.273   2.262
98223SOL     OW96507   9.411  12.908   6.766
98223SOL    HW196508   9.381  12.998   6.776
98223SOL    HW296509   9.356  12.857   6.826
98224SOL     OW96510   9.399  12.179  14.264
98224SOL    HW196511   9.433  12.261  14.229
98224SOL    HW296512   9.329  12.154  14.204
98225SOL     OW96513   3.787  13.306  13.740
98225SOL    HW196514   3.697  13.274  13.733
98225SOL    HW296515   3.798  13.365  13.665
98226SOL     OW96516  14.004  12.133   2.672
98226SOL    HW196517  13.937  12.075   2.636
98226SOL    HW296518  14.060  12.153   2.597
98227SOL     OW96519   7.557   0.211   3.835
98227SOL    HW196520   7.465   0.199   3.812
98227SOL    HW296521   7.559   0.205   3.931
98228SOL     OW96522  13.116   4.200  13.596
98228SOL    HW196523  13.119   4.104  13.588
98228SOL    HW296524  13.032   4.224  13.558
98229SOL     OW96525  14.303   6.886   3.968
98229SOL    HW196526  14.236   6.827   3.932
98229SOL    HW296527  14.288   6.884   4.062
98230SOL     OW96528  14.612   1.394  11.092
98230SOL    HW196529  14.688   1.403  11.149
98230SOL    HW296530  14.537   1.411  11.148
98231SOL     OW96531   8.169  12.478  12.535
98231SOL    HW196532   8.213  12.531  12.468
98231SOL    HW296533   8.104  12.428  12.486
98232SOL     OW96534  12.874   0.531   4.015
98232SOL    HW196535  12.886   0.439   3.993
98232SOL    HW296536  12.795   0.533   4.069
98233SOL     OW96537   4.179   4.901  10.267
98233SOL    HW196538   4.143   4.866  10.186
98233SOL    HW296539   4.111   4.884  10.333
98234SOL     OW96540   5.922   4.235  13.555
98234SOL    HW196541   5.955   4.285  13.629
98234SOL    HW296542   5.857   4.176  13.593
98235SOL     OW96543   3.941   1.537   4.113
98235SOL    HW196544   4.010   1.502   4.170
98235SOL    HW296545   3.881   1.581   4.174
98236SOL     OW96546   4.814   3.539   4.143
98236SOL    HW196547   4.762   3.590   4.205
98236SOL    HW296548   4.896   3.521   4.188
98237SOL     OW96549   6.039   3.251   3.609
98237SOL    HW196550   6.094   3.211   3.543
98237SOL    HW296551   6.083   3.232   3.692
98238SOL     OW96552  14.169   6.587   4.716
98238SOL    HW196553  14.242   6.541   4.675
98238SOL    HW296554  14.101   6.589   4.648
98239SOL     OW96555   4.183   9.738   8.908
98239SOL    HW196556   4.134   9.697   8.837
98239SOL    HW296557   4.190   9.670   8.975
98240SOL     OW96558   2.260   4.868  13.924
98240SOL    HW196559   2.231   4.957  13.946
98240SOL    HW296560   2.203   4.811  13.975
98241SOL     OW96561   8.294   5.206   4.368
98241SOL    HW196562   8.369   5.175   4.317
98241SOL    HW296563   8.258   5.277   4.315
98242SOL     OW96564  12.096   7.352   8.425
98242SOL    HW196565  12.112   7.432   8.375
98242SOL    HW296566  12.047   7.296   8.365
98243SOL     OW96567   5.430   7.130   4.274
98243SOL    HW196568   5.454   7.097   4.360
98243SOL    HW296569   5.382   7.058   4.233
98244SOL     OW96570   9.920   6.972   5.019
98244SOL    HW196571   9.828   6.987   4.999
98244SOL    HW296572   9.963   6.963   4.934
98245SOL     OW96573  13.843   1.178   0.786
98245SOL    HW196574  13.896   1.205   0.861
98245SOL    HW296575  13.874   1.089   0.766
98246SOL     OW96576   0.068   1.049  11.718
98246SOL    HW196577   0.116   1.092  11.789
98246SOL    HW296578   0.090   0.956  11.728
98247SOL     OW96579   8.658   9.247   8.653
98247SOL    HW196580   8.705   9.296   8.720
98247SOL    HW296581   8.714   9.171   8.635
98248SOL     OW96582   3.207   6.516   8.190
98248SOL    HW196583   3.211   6.610   8.173
98248SOL    HW296584   3.261   6.504   8.268
98249SOL     OW96585  11.263  13.757  10.315
98249SOL    HW196586  11.332  13.785  10.375
98249SOL    HW296587  11.254  13.663  10.333
98250SOL     OW96588  11.573  11.647   4.177
98250SOL    HW196589  11.663  11.620   4.158
98250SOL    HW296590  11.582  11.735   4.214
98251SOL     OW96591   4.783  10.975  10.114
98251SOL    HW196592   4.861  11.016  10.077
98251SOL    HW296593   4.727  11.049  10.140
98252SOL     OW96594   5.268  11.356  14.107
98252SOL    HW196595   5.198  11.297  14.134
98252SOL    HW296596   5.242  11.386  14.020
98253SOL     OW96597   9.047  14.825   8.769
98253SOL    HW196598   9.090  14.809   8.852
98253SOL    HW296599   8.989  14.750   8.756
98254SOL     OW96600   3.721  14.129   2.980
98254SOL    HW196601   3.643  14.157   2.932
98254SOL    HW296602   3.718  14.179   3.062
98255SOL     OW96603  10.448  10.544   2.927
98255SOL    HW196604  10.514  10.597   2.972
98255SOL    HW296605  10.388  10.518   2.996
98256SOL     OW96606   5.862   5.803   4.888
98256SOL    HW196607   5.802   5.878   4.887
98256SOL    HW296608   5.892   5.797   4.978
98257SOL     OW96609  13.686  14.170   4.392
98257SOL    HW196610  13.623  14.098   4.383
98257SOL    HW296611  13.633  14.249   4.381
98258SOL     OW96612  10.556  11.790   0.100
98258SOL    HW196613  10.587  11.739   0.175
98258SOL    HW296614  10.633  11.841   0.073
98259SOL     OW96615   0.738  10.281   1.559
98259SOL    HW196616   0.700  10.196   1.533
98259SOL    HW296617   0.679  10.314   1.626
98260SOL     OW96618   3.207   4.610  13.375
98260SOL    HW196619   3.124   4.625  13.420
98260SOL    HW296620   3.200   4.661  13.294
98261SOL     OW96621  12.017   0.510   4.969
98261SOL    HW196622  12.075   0.476   5.037
98261SOL    HW296623  11.949   0.442   4.960
98262SOL     OW96624   1.416   5.731   2.678
98262SOL    HW196625   1.383   5.791   2.611
98262SOL    HW296626   1.495   5.694   2.640
98263SOL     OW96627   9.479  14.478   0.345
98263SOL    HW196628   9.551  14.446   0.399
98263SOL    HW296629   9.422  14.525   0.406
98264SOL     OW96630   9.935   2.691  11.409
98264SOL    HW196631   9.985   2.750  11.353
98264SOL    HW296632   9.848   2.686  11.367
98265SOL     OW96633  10.781   7.385   9.100
98265SOL    HW196634  10.813   7.475   9.103
98265SOL    HW296635  10.834   7.338   9.163
98266SOL     OW96636   2.192   3.979  11.302
98266SOL    HW196637   2.253   3.910  11.329
98266SOL    HW296638   2.115   3.932  11.270
98267SOL     OW96639  11.045  11.081  10.583
98267SOL    HW196640  11.088  11.149  10.531
98267SOL    HW296641  11.113  11.050  10.643
98268SOL     OW96642  13.674   1.761  11.508
98268SOL    HW196643  13.669   1.678  11.555
98268SOL    HW296644  13.768   1.775  11.493
98269SOL     OW96645   6.406  10.739  14.129
98269SOL    HW196646   6.393  10.702  14.041
98269SOL    HW296647   6.320  10.733  14.170
98270SOL     OW96648   3.165  11.762   8.640
98270SOL    HW196649   3.102  11.690   8.639
98270SOL    HW296650   3.141  11.814   8.716
98271SOL     OW96651   2.482   9.155   6.012
98271SOL    HW196652   2.540   9.135   5.938
98271SOL    HW296653   2.538   9.150   6.089
98272SOL     OW96654  11.403   3.410   0.855
98272SOL    HW196655  11.355   3.399   0.937
98272SOL    HW296656  11.495   3.411   0.881
98273SOL     OW96657   2.572   6.661   4.677
98273SOL    HW196658   2.521   6.720   4.621
98273SOL    HW296659   2.545   6.683   4.766
98274SOL     OW96660   0.001   9.948   4.066
98274SOL    HW196661  14.822   9.982   3.999
98274SOL    HW296662  14.875  10.011   4.137
98275SOL     OW96663  12.528   0.577   2.152
98275SOL    HW196664  12.495   0.647   2.208
98275SOL    HW296665  12.484   0.590   2.068
98276SOL     OW96666  11.241  12.832   6.245
98276SOL    HW196667  11.187  12.801   6.318
98276SOL    HW296668  11.284  12.910   6.278
98277SOL     OW96669   3.314   1.562   9.291
98277SOL    HW196670   3.259   1.508   9.348
98277SOL    HW296671   3.283   1.543   9.203
98278SOL     OW96672   3.336  11.934   7.456
98278SOL    HW196673   3.338  11.853   7.507
98278SOL    HW296674   3.410  11.926   7.396
98279SOL     OW96675   5.991   9.879   9.563
98279SOL    HW196676   5.899   9.898   9.579
98279SOL    HW296677   6.005   9.896   9.470
98280SOL     OW96678   3.253   1.628  12.968
98280SOL    HW196679   3.260   1.688  12.893
98280SOL    HW296680   3.207   1.679  13.035
98281SOL     OW96681   4.994  10.511   0.172
98281SOL    HW196682   5.024  10.601   0.182
98281SOL    HW296683   4.906  10.511   0.211
98282SOL     OW96684   9.832  10.648   8.914
98282SOL    HW196685   9.781  10.592   8.972
98282SOL    HW296686   9.918  10.655   8.956
98283SOL     OW96687  13.035  11.872   4.285
98283SOL    HW196688  13.098  11.804   4.310
98283SOL    HW296689  12.965  11.825   4.241
98284SOL     OW96690  12.471  11.886   8.635
98284SOL    HW196691  12.409  11.902   8.564
98284SOL    HW296692  12.546  11.845   8.592
98285SOL     OW96693   1.944   3.115   3.608
98285SOL    HW196694   1.861   3.159   3.591
98285SOL    HW296695   1.975   3.154   3.690
98286SOL     OW96696   4.412   0.171   9.596
98286SOL    HW196697   4.467   0.193   9.671
98286SOL    HW296698   4.347   0.241   9.593
98287SOL     OW96699   2.681   9.214   9.746
98287SOL    HW196700   2.687   9.187   9.838
98287SOL    HW296701   2.661   9.134   9.699
98288SOL     OW96702   5.021  11.139   8.003
98288SOL    HW196703   5.104  11.173   7.969
98288SOL    HW296704   5.006  11.059   7.953
98289SOL     OW96705   9.737   0.823   4.818
98289SOL    HW196706   9.643   0.827   4.835
98289SOL    HW296707   9.776   0.799   4.902
98290SOL     OW96708  11.395   1.443   9.893
98290SOL    HW196709  11.333   1.469   9.825
98290SOL    HW296710  11.457   1.385   9.847
98291SOL     OW96711   3.269  12.782   6.382
98291SOL    HW196712   3.235  12.854   6.329
98291SOL    HW296713   3.358  12.768   6.349
98292SOL     OW96714   3.634   6.667  11.946
98292SOL    HW196715   3.553   6.665  11.895
98292SOL    HW296716   3.649   6.576  11.971
98293SOL     OW96717  12.597  13.537   4.548
98293SOL    HW196718  12.612  13.464   4.607
98293SOL    HW296719  12.585  13.496   4.462
98294SOL     OW96720   2.349   0.927   8.859
98294SOL    HW196721   2.254   0.912   8.857
98294SOL    HW296722   2.386   0.844   8.831
98295SOL     OW96723   5.681   4.350   6.718
98295SOL    HW196724   5.648   4.270   6.677
98295SOL    HW296725   5.654   4.343   6.809
98296SOL     OW96726   3.012  14.198  10.200
98296SOL    HW196727   2.972  14.273  10.244
98296SOL    HW296728   3.107  14.213  10.207
98297SOL     OW96729   1.044  14.675  13.458
98297SOL    HW196730   0.966  14.619  13.462
98297SOL    HW296731   1.015  14.754  13.414
98298SOL     OW96732   8.719   7.431  14.536
98298SOL    HW196733   8.639   7.381  14.552
98298SOL    HW296734   8.781   7.367  14.501
98299SOL     OW96735   4.252   7.868   7.259
98299SOL    HW196736   4.165   7.857   7.221
98299SOL    HW296737   4.238   7.915   7.341
98300SOL     OW96738   7.128  12.708   8.550
98300SOL    HW196739   7.170  12.790   8.575
98300SOL    HW296740   7.067  12.689   8.621
98301SOL     OW96741   5.729  10.004  11.939
98301SOL    HW196742   5.817   9.969  11.927
98301SOL    HW296743   5.708   9.986  12.031
98302SOL     OW96744   2.387   9.719   5.198
98302SOL    HW196745   2.420   9.807   5.217
98302SOL    HW296746   2.292   9.730   5.194
98303SOL     OW96747   4.388  10.511  10.088
98303SOL    HW196748   4.325  10.552  10.147
98303SOL    HW296749   4.436  10.449  10.144
98304SOL     OW96750  12.644  14.013   8.043
98304SOL    HW196751  12.602  14.094   8.070
98304SOL    HW296752  12.736  14.036   8.031
98305SOL     OW96753   6.852   3.363  14.216
98305SOL    HW196754   6.796   3.432  14.180
98305SOL    HW296755   6.937   3.405  14.226
98306SOL     OW96756   4.600   9.292   3.984
98306SOL    HW196757   4.505   9.284   3.992
98306SOL    HW296758   4.622   9.237   3.909
98307SOL     OW96759  10.307  10.397  14.005
98307SOL    HW196760  10.399  10.370  14.005
98307SOL    HW296761  10.281  10.395  13.913
98308SOL     OW96762  10.839   6.238  14.849
98308SOL    HW196763  10.807   6.328  14.852
98308SOL    HW296764  10.848   6.218  14.756
98309SOL     OW96765  13.969   4.211   5.820
98309SOL    HW196766  13.950   4.280   5.883
98309SOL    HW296767  13.883   4.187   5.784
98310SOL     OW96768  10.372   5.499   2.749
98310SOL    HW196769  10.355   5.577   2.801
98310SOL    HW296770  10.316   5.508   2.672
98311SOL     OW96771   0.492   1.417  10.042
98311SOL    HW196772   0.514   1.417   9.949
98311SOL    HW296773   0.450   1.332  10.056
98312SOL     OW96774  11.352   2.975  11.735
98312SOL    HW196775  11.277   2.919  11.756
98312SOL    HW296776  11.364   3.030  11.813
98313SOL     OW96777  12.023  14.075   5.132
98313SOL    HW196778  12.076  14.155   5.127
98313SOL    HW296779  12.054  14.031   5.211
98314SOL     OW96780  11.266   2.209   3.722
98314SOL    HW196781  11.311   2.149   3.781
98314SOL    HW296782  11.280   2.295   3.761
98315SOL     OW96783   8.966   7.031  13.905
98315SOL    HW196784   9.047   7.042  13.857
98315SOL    HW296785   8.897   7.059  13.845
98316SOL     OW96786   6.109   1.094   8.400
98316SOL    HW196787   6.081   1.150   8.328
98316SOL    HW296788   6.200   1.073   8.380
98317SOL     OW96789   1.782   0.197  13.328
98317SOL    HW196790   1.708   0.146  13.296
98317SOL    HW296791   1.835   0.134  13.378
98318SOL     OW96792   2.937   3.315   9.958
98318SOL    HW196793   2.973   3.232   9.925
98318SOL    HW296794   2.930   3.370   9.880
98319SOL     OW96795   3.471   1.391   6.060
98319SOL    HW196796   3.443   1.477   6.029
98319SOL    HW296797   3.436   1.330   5.996
98320SOL     OW96798  13.333   5.020   2.587
98320SOL    HW196799  13.363   5.003   2.498
98320SOL    HW296800  13.360   5.110   2.605
98321SOL     OW96801   3.790   4.254   2.320
98321SOL    HW196802   3.794   4.162   2.347
98321SOL    HW296803   3.727   4.255   2.249
98322SOL     OW96804   5.594   6.351   8.195
98322SOL    HW196805   5.560   6.263   8.180
98322SOL    HW296806   5.522   6.397   8.238
98323SOL     OW96807   2.052  13.752   0.178
98323SOL    HW196808   2.056  13.836   0.132
98323SOL    HW296809   2.138  13.743   0.218
98324SOL     OW96810   6.198  13.729   3.478
98324SOL    HW196811   6.160  13.810   3.444
98324SOL    HW296812   6.292  13.738   3.463
98325SOL     OW96813   9.226   9.787   3.292
98325SOL    HW196814   9.216   9.709   3.239
98325SOL    HW296815   9.268   9.851   3.234
98326SOL     OW96816   8.397  10.712  11.672
98326SOL    HW196817   8.429  10.662  11.597
98326SOL    HW296818   8.456  10.787  11.678
98327SOL     OW96819   0.369   5.259   9.116
98327SOL    HW196820   0.304   5.325   9.136
98327SOL    HW296821   0.430   5.303   9.056
98328SOL     OW96822   2.611   2.246   5.213
98328SOL    HW196823   2.645   2.323   5.167
98328SOL    HW296824   2.647   2.254   5.302
98329SOL     OW96825   5.410   5.401   6.409
98329SOL    HW196826   5.399   5.306   6.405
98329SOL    HW296827   5.327   5.434   6.441
98330SOL     OW96828  12.756   3.665   6.881
98330SOL    HW196829  12.693   3.731   6.911
98330SOL    HW296830  12.732   3.649   6.789
98331SOL     OW96831   1.937   0.549   6.191
98331SOL    HW196832   1.926   0.609   6.265
98331SOL    HW296833   1.880   0.475   6.211
98332SOL     OW96834  13.169   3.467   7.883
98332SOL    HW196835  13.192   3.510   7.801
98332SOL    HW296836  13.165   3.537   7.947
98333SOL     OW96837   3.921   7.681  11.771
98333SOL    HW196838   3.834   7.722  11.774
98333SOL    HW296839   3.903   7.588  11.780
98334SOL     OW96840  10.528  13.883  10.251
98334SOL    HW196841  10.497  13.793  10.238
98334SOL    HW296842  10.613  13.885  10.206
98335SOL     OW96843   1.141   1.373   5.793
98335SOL    HW196844   1.114   1.410   5.709
98335SOL    HW296845   1.236   1.385   5.795
98336SOL     OW96846   6.464  13.055   4.371
98336SOL    HW196847   6.397  13.044   4.304
98336SOL    HW296848   6.506  13.138   4.350
98337SOL     OW96849   0.566   5.984   4.548
98337SOL    HW196850   0.593   5.938   4.628
98337SOL    HW296851   0.485   6.029   4.573
98338SOL     OW96852   3.156   9.358  14.217
98338SOL    HW196853   3.155   9.416  14.294
98338SOL    HW296854   3.184   9.274  14.252
98339SOL     OW96855  12.076   6.499   0.396
98339SOL    HW196856  12.117   6.575   0.436
98339SOL    HW296857  11.990   6.493   0.438
98340SOL     OW96858   7.562  13.623   1.237
98340SOL    HW196859   7.582  13.701   1.184
98340SOL    HW296860   7.637  13.565   1.223
98341SOL     OW96861   7.915   0.911   4.599
98341SOL    HW196862   7.914   0.964   4.519
98341SOL    HW296863   7.899   0.822   4.568
98342SOL     OW96864   3.336   4.785  11.424
98342SOL    HW196865   3.406   4.846  11.402
98342SOL    HW296866   3.341   4.717  11.357
98343SOL     OW96867   6.851   1.808   8.277
98343SOL    HW196868   6.817   1.735   8.327
98343SOL    HW296869   6.919   1.846   8.333
98344SOL     OW96870  13.687   0.851   3.256
98344SOL    HW196871  13.665   0.792   3.328
98344SOL    HW296872  13.612   0.910   3.250
98345SOL     OW96873   4.128   0.247   6.594
98345SOL    HW196874   4.056   0.294   6.635
98345SOL    HW296875   4.207   0.292   6.624
98346SOL     OW96876  12.796  12.876  14.750
98346SOL    HW196877  12.732  12.825  14.800
98346SOL    HW296878  12.742  12.931  14.692
98347SOL     OW96879   0.057   8.408   2.441
98347SOL    HW196880  14.853   8.417   2.487
98347SOL    HW296881   0.034   8.414   2.348
98348SOL     OW96882  13.671   8.907   0.871
98348SOL    HW196883  13.707   8.853   0.800
98348SOL    HW296884  13.579   8.920   0.846
98349SOL     OW96885   6.055   7.457   5.343
98349SOL    HW196886   6.074   7.364   5.330
98349SOL    HW296887   6.135   7.492   5.384
98350SOL     OW96888  13.951   0.692  10.632
98350SOL    HW196889  13.947   0.753  10.706
98350SOL    HW296890  13.863   0.695  10.594
98351SOL     OW96891  13.020  10.374  12.414
98351SOL    HW196892  13.053  10.458  12.383
98351SOL    HW296893  13.098  10.328  12.444
98352SOL     OW96894  13.296  12.480   3.634
98352SOL    HW196895  13.284  12.534   3.556
98352SOL    HW296896  13.271  12.538   3.707
98353SOL     OW96897  10.768   8.950   5.033
98353SOL    HW196898  10.679   8.973   5.061
98353SOL    HW296899  10.767   8.855   5.024
98354SOL     OW96900  11.354   5.139  13.715
98354SOL    HW196901  11.315   5.162  13.800
98354SOL    HW296902  11.430   5.197  13.708
98355SOL     OW96903   7.764  13.801   0.431
98355SOL    HW196904   7.676  13.784   0.463
98355SOL    HW296905   7.814  13.722   0.453
98356SOL     OW96906   9.509   0.348   8.770
98356SOL    HW196907   9.503   0.417   8.835
98356SOL    HW296908   9.583   0.372   8.715
98357SOL     OW96909   6.703  13.761  10.261
98357SOL    HW196910   6.668  13.840  10.302
98357SOL    HW296911   6.663  13.689  10.310
98358SOL     OW96912   3.260  14.302  10.171
98358SOL    HW196913   3.289  14.368  10.108
98358SOL    HW296914   3.340  14.275  10.216
98359SOL     OW96915   1.932  10.552   7.822
98359SOL    HW196916   1.985  10.474   7.808
98359SOL    HW296917   1.992  10.616   7.861
98360SOL     OW96918   3.723  14.204   0.602
98360SOL    HW196919   3.685  14.282   0.643
98360SOL    HW296920   3.663  14.182   0.531
98361SOL     OW96921  12.159   2.259  13.160
98361SOL    HW196922  12.181   2.169  13.185
98361SOL    HW296923  12.180   2.311  13.237
98362SOL     OW96924   8.632   4.507   1.617
98362SOL    HW196925   8.588   4.591   1.610
98362SOL    HW296926   8.584   4.460   1.685
98363SOL     OW96927   0.443  14.076   5.308
98363SOL    HW196928   0.359  14.102   5.271
98363SOL    HW296929   0.483  14.022   5.240
98364SOL     OW96930   7.096  14.327  12.623
98364SOL    HW196931   7.008  14.315  12.659
98364SOL    HW296932   7.153  14.323  12.700
98365SOL     OW96933  12.122  11.513  12.547
98365SOL    HW196934  12.058  11.518  12.476
98365SOL    HW296935  12.104  11.429  12.590
98366SOL     OW96936  14.104  10.092   6.355
98366SOL    HW196937  14.097  10.182   6.323
98366SOL    HW296938  14.122  10.101   6.449
98367SOL     OW96939  11.662   4.614   9.625
98367SOL    HW196940  11.616   4.542   9.581
98367SOL    HW296941  11.715   4.570   9.692
98368SOL     OW96942   8.066  12.549  11.828
98368SOL    HW196943   7.980  12.554  11.788
98368SOL    HW296944   8.084  12.637  11.861
98369SOL     OW96945  10.762   2.087  14.342
98369SOL    HW196946  10.764   2.051  14.431
98369SOL    HW296947  10.720   2.172  14.352
98370SOL     OW96948  13.040   7.952   4.469
98370SOL    HW196949  13.043   7.864   4.431
98370SOL    HW296950  12.954   7.958   4.510
98371SOL     OW96951   7.311   5.252   3.836
98371SOL    HW196952   7.282   5.332   3.793
98371SOL    HW296953   7.406   5.252   3.826
98372SOL     OW96954   8.141  12.689   6.594
98372SOL    HW196955   8.083  12.625   6.636
98372SOL    HW296956   8.142  12.763   6.655
98373SOL     OW96957   6.620   6.191   9.598
98373SOL    HW196958   6.557   6.256   9.568
98373SOL    HW296959   6.582   6.107   9.571
98374SOL     OW96960   9.097   8.790   7.317
98374SOL    HW196961   9.056   8.794   7.403
98374SOL    HW296962   9.026   8.807   7.255
98375SOL     OW96963  12.756   8.753   3.049
98375SOL    HW196964  12.763   8.824   3.113
98375SOL    HW296965  12.845   8.718   3.044
98376SOL     OW96966   4.079  11.027  13.176
98376SOL    HW196967   4.088  10.946  13.225
98376SOL    HW296968   4.003  11.070  13.214
98377SOL     OW96969   3.871   6.949   7.844
98377SOL    HW196970   3.949   6.979   7.889
98377SOL    HW296971   3.802   7.010   7.871
98378SOL     OW96972   8.989   6.109  10.241
98378SOL    HW196973   9.084   6.119  10.255
98378SOL    HW296974   8.953   6.195  10.258
98379SOL     OW96975   7.316  13.523   1.245
98379SOL    HW196976   7.288  13.438   1.212
98379SOL    HW296977   7.411  13.518   1.247
98380SOL     OW96978   1.590   9.523   2.813
98380SOL    HW196979   1.647   9.597   2.830
98380SOL    HW296980   1.565   9.532   2.721
98381SOL     OW96981   1.909   4.139   6.136
98381SOL    HW196982   1.991   4.174   6.171
98381SOL    HW296983   1.909   4.166   6.044
98382SOL     OW96984   7.199  12.240   5.353
98382SOL    HW196985   7.243  12.289   5.423
98382SOL    HW296986   7.160  12.308   5.298
98383SOL     OW96987   9.103  10.008  13.776
98383SOL    HW196988   9.073   9.935  13.829
98383SOL    HW296989   9.196  10.016  13.797
98384SOL     OW96990   7.484   4.159   7.024
98384SOL    HW196991   7.393   4.185   7.041
98384SOL    HW296992   7.507   4.203   6.942
98385SOL     OW96993   4.201   2.421  11.416
98385SOL    HW196994   4.131   2.468  11.371
98385SOL    HW296995   4.282   2.462  11.384
98386SOL     OW96996   9.623   0.625   8.626
98386SOL    HW196997   9.578   0.703   8.595
98386SOL    HW296998   9.622   0.565   8.551
98387SOL     OW96999   4.362   2.573  14.524
98387SOL    HW197000   4.321   2.543  14.443
98387SOL    HW297001   4.291   2.571  14.589
98388SOL     OW97002  12.252  14.474  13.121
98388SOL    HW197003  12.251  14.411  13.049
98388SOL    HW297004  12.200  14.432  13.190
98389SOL     OW97005   2.627  14.202   7.806
98389SOL    HW197006   2.540  14.189   7.844
98389SOL    HW297007   2.686  14.156   7.865
98390SOL     OW97008   3.574  12.818   0.636
98390SOL    HW197009   3.486  12.831   0.671
98390SOL    HW297010   3.601  12.733   0.671
98391SOL     OW97011  10.365   9.144   3.922
98391SOL    HW197012  10.395   9.062   3.960
98391SOL    HW297013  10.286   9.166   3.972
98392SOL     OW97014  11.639   9.606   7.118
98392SOL    HW197015  11.688   9.631   7.196
98392SOL    HW297016  11.634   9.511   7.122
98393SOL     OW97017   8.394   7.212  12.543
98393SOL    HW197018   8.458   7.181  12.608
98393SOL    HW297019   8.446   7.256  12.476
98394SOL     OW97020   9.765  12.266   0.229
98394SOL    HW197021   9.858  12.244   0.226
98394SOL    HW297022   9.761  12.358   0.201
98395SOL     OW97023   8.286   8.317   9.438
98395SOL    HW197024   8.243   8.368   9.369
98395SOL    HW297025   8.303   8.381   9.508
98396SOL     OW97026  13.713   3.187   4.288
98396SOL    HW197027  13.761   3.239   4.223
98396SOL    HW297028  13.628   3.171   4.248
98397SOL     OW97029   2.972   5.733   7.163
98397SOL    HW197030   2.932   5.715   7.078
98397SOL    HW297031   3.015   5.818   7.152
98398SOL     OW97032   5.481   2.837   4.292
98398SOL    HW197033   5.557   2.894   4.286
98398SOL    HW297034   5.409   2.888   4.254
98399SOL     OW97035   8.398   7.283   7.687
98399SOL    HW197036   8.439   7.206   7.647
98399SOL    HW297037   8.321   7.300   7.632
98400SOL     OW97038   7.387   0.718  14.046
98400SOL    HW197039   7.314   0.662  14.071
98400SOL    HW297040   7.465   0.667  14.067
98401SOL     OW97041   4.095  12.495   0.804
98401SOL    HW197042   4.146  12.466   0.880
98401SOL    HW297043   4.144  12.463   0.729
98402SOL     OW97044   1.431   0.585  13.368
98402SOL    HW197045   1.478   0.546  13.442
98402SOL    HW297046   1.384   0.659  13.407
98403SOL     OW97047  13.319   3.140   3.710
98403SOL    HW197048  13.335   3.061   3.761
98403SOL    HW297049  13.224   3.153   3.715
98404SOL     OW97050   5.588  11.283   1.529
98404SOL    HW197051   5.647  11.328   1.590
98404SOL    HW297052   5.514  11.343   1.518
98405SOL     OW97053   7.788   8.841   8.536
98405SOL    HW197054   7.824   8.814   8.451
98405SOL    HW297055   7.719   8.903   8.513
98406SOL     OW97056   7.711   5.749  14.366
98406SOL    HW197057   7.798   5.783  14.384
98406SOL    HW297058   7.725   5.660  14.335
98407SOL     OW97059   4.929   2.254   1.005
98407SOL    HW197060   4.995   2.225   1.068
98407SOL    HW297061   4.865   2.302   1.058
98408SOL     OW97062   3.595   4.521  10.597
98408SOL    HW197063   3.563   4.608  10.619
98408SOL    HW297064   3.674   4.510  10.650
98409SOL     OW97065  10.259  14.339   2.542
98409SOL    HW197066  10.332  14.380   2.495
98409SOL    HW297067  10.257  14.383   2.627
98410SOL     OW97068   6.151  11.602  11.901
98410SOL    HW197069   6.183  11.518  11.933
98410SOL    HW297070   6.190  11.612  11.814
98411SOL     OW97071   6.763   6.223   9.817
98411SOL    HW197072   6.844   6.179   9.792
98411SOL    HW297073   6.706   6.215   9.740
98412SOL     OW97074  14.777   7.262   8.844
98412SOL    HW197075  14.787   7.184   8.898
98412SOL    HW297076  14.755   7.229   8.758
98413SOL     OW97077   6.066   1.308  11.922
98413SOL    HW197078   5.975   1.339  11.914
98413SOL    HW297079   6.117   1.389  11.928
98414SOL     OW97080  12.405  11.809   0.214
98414SOL    HW197081  12.359  11.832   0.295
98414SOL    HW297082  12.478  11.753   0.244
98415SOL     OW97083  14.551   0.695   2.896
98415SOL    HW197084  14.470   0.676   2.849
98415SOL    HW297085  14.616   0.710   2.828
98416SOL     OW97086  11.839  12.830  11.113
98416SOL    HW197087  11.834  12.742  11.151
98416SOL    HW297088  11.754  12.842  11.071
98417SOL     OW97089  10.647  11.799   1.768
98417SOL    HW197090  10.659  11.877   1.712
98417SOL    HW297091  10.589  11.829   1.838
98418SOL     OW97092   9.529   3.144   0.788
98418SOL    HW197093   9.567   3.218   0.740
98418SOL    HW297094   9.592   3.074   0.778
98419SOL     OW97095   4.330   5.538  12.612
98419SOL    HW197096   4.400   5.557  12.550
98419SOL    HW297097   4.252   5.525  12.558
98420SOL     OW97098   2.314   9.155  12.811
98420SOL    HW197099   2.304   9.176  12.904
98420SOL    HW297100   2.225   9.143  12.779
98421SOL     OW97101  13.796  13.522  12.554
98421SOL    HW197102  13.793  13.464  12.629
98421SOL    HW297103  13.718  13.577  12.562
98422SOL     OW97104  14.666   8.096  11.108
98422SOL    HW197105  14.587   8.150  11.107
98422SOL    HW297106  14.635   8.008  11.087
98423SOL     OW97107  14.013   7.612   2.130
98423SOL    HW197108  14.018   7.626   2.224
98423SOL    HW297109  14.087   7.554   2.110
98424SOL     OW97110   3.337  10.010   9.691
98424SOL    HW197111   3.402   9.958   9.739
98424SOL    HW297112   3.278  10.042   9.758
98425SOL     OW97113  12.961   3.806   5.366
98425SOL    HW197114  12.930   3.755   5.292
98425SOL    HW297115  12.893   3.872   5.381
98426SOL     OW97116   5.148   3.629   8.583
98426SOL    HW197117   5.054   3.622   8.597
98426SOL    HW297118   5.184   3.545   8.611
98427SOL     OW97119  13.171   7.050   9.231
98427SOL    HW197120  13.096   6.993   9.246
98427SOL    HW297121  13.209   7.017   9.149
98428SOL     OW97122  13.262   3.415   5.940
98428SOL    HW197123  13.214   3.496   5.921
98428SOL    HW297124  13.207   3.346   5.903
98429SOL     OW97125  14.679  11.581   9.142
98429SOL    HW197126  14.712  11.638   9.072
98429SOL    HW297127  14.636  11.641   9.203
98430SOL     OW97128   1.220   9.399   7.260
98430SOL    HW197129   1.152   9.390   7.326
98430SOL    HW297130   1.302   9.378   7.306
98431SOL     OW97131   3.246  13.960   4.185
98431SOL    HW197132   3.315  14.026   4.182
98431SOL    HW297133   3.224  13.951   4.278
98432SOL     OW97134  10.707   5.917   8.593
98432SOL    HW197135  10.635   5.878   8.544
98432SOL    HW297136  10.750   5.844   8.637
98433SOL     OW97137   8.132   3.169   0.093
98433SOL    HW197138   8.134   3.083   0.052
98433SOL    HW297139   8.059   3.165   0.155
98434SOL     OW97140  13.864  13.338   7.720
98434SOL    HW197141  13.861  13.413   7.778
98434SOL    HW297142  13.892  13.374   7.635
98435SOL     OW97143  12.377   0.044   2.185
98435SOL    HW197144  12.347  14.845   2.230
98435SOL    HW297145  12.461   0.065   2.226
98436SOL     OW97146  13.884   5.861  13.453
98436SOL    HW197147  13.830   5.875  13.530
98436SOL    HW297148  13.832   5.896  13.380
98437SOL     OW97149  14.756  10.366   8.972
98437SOL    HW197150  14.777  10.276   8.947
98437SOL    HW297151  14.798  10.420   8.906
98438SOL     OW97152   4.825  13.812  12.063
98438SOL    HW197153   4.848  13.902  12.038
98438SOL    HW297154   4.729  13.811  12.063
98439SOL     OW97155   4.747   8.256   3.840
98439SOL    HW197156   4.744   8.300   3.755
98439SOL    HW297157   4.714   8.320   3.902
98440SOL     OW97158  12.052   1.527   2.845
98440SOL    HW197159  12.108   1.567   2.911
98440SOL    HW297160  11.967   1.571   2.857
98441SOL     OW97161   2.203   6.890  10.546
98441SOL    HW197162   2.225   6.947  10.620
98441SOL    HW297163   2.189   6.804  10.586
98442SOL     OW97164  12.591   6.192   7.088
98442SOL    HW197165  12.580   6.223   6.998
98442SOL    HW297166  12.559   6.102   7.086
98443SOL     OW97167   5.969   0.228   8.687
98443SOL    HW197168   5.990   0.283   8.612
98443SOL    HW297169   5.883   0.260   8.717
98444SOL     OW97170   2.760   7.223  14.171
98444SOL    HW197171   2.765   7.291  14.238
98444SOL    HW297172   2.802   7.147  14.212
98445SOL     OW97173   9.345  10.162   5.900
98445SOL    HW197174   9.304  10.248   5.894
98445SOL    HW297175   9.290  10.114   5.962
98446SOL     OW97176  13.101   8.956  12.686
98446SOL    HW197177  13.111   8.882  12.747
98446SOL    HW297178  13.179   8.951  12.631
98447SOL     OW97179   1.777   2.642   7.166
98447SOL    HW197180   1.790   2.560   7.214
98447SOL    HW297181   1.689   2.671   7.192
98448SOL     OW97182   6.515   7.305   8.766
98448SOL    HW197183   6.543   7.387   8.725
98448SOL    HW297184   6.494   7.329   8.856
98449SOL     OW97185  14.061   5.255   1.565
98449SOL    HW197186  13.998   5.184   1.551
98449SOL    HW297187  14.031   5.299   1.644
98450SOL     OW97188  13.864   3.535   9.755
98450SOL    HW197189  13.792   3.498   9.705
98450SOL    HW297190  13.905   3.459   9.798
98451SOL     OW97191   2.519  13.166   2.582
98451SOL    HW197192   2.562  13.211   2.508
98451SOL    HW297193   2.449  13.115   2.542
98452SOL     OW97194  11.271   9.921  12.933
98452SOL    HW197195  11.285   9.957  13.021
98452SOL    HW297196  11.187   9.957  12.906
98453SOL     OW97197   8.906   9.429   0.591
98453SOL    HW197198   8.854   9.431   0.510
98453SOL    HW297199   8.997   9.426   0.561
98454SOL     OW97200   1.185   0.654   9.734
98454SOL    HW197201   1.105   0.602   9.735
98454SOL    HW297202   1.174   0.715   9.807
98455SOL     OW97203   8.816   6.510  10.013
98455SOL    HW197204   8.758   6.549   9.947
98455SOL    HW297205   8.812   6.416   9.995
98456SOL     OW97206  11.917   1.282   2.911
98456SOL    HW197207  11.972   1.359   2.900
98456SOL    HW297208  11.978   1.208   2.905
98457SOL     OW97209  12.961   8.963   0.671
98457SOL    HW197210  12.979   8.971   0.765
98457SOL    HW297211  13.031   8.908   0.638
98458SOL     OW97212  12.887   0.555  13.142
98458SOL    HW197213  12.800   0.585  13.170
98458SOL    HW297214  12.918   0.623  13.083
98459SOL     OW97215  12.056   4.080  12.843
98459SOL    HW197216  12.126   4.125  12.795
98459SOL    HW297217  12.063   4.114  12.932
98460SOL     OW97218   3.183  11.390   4.493
98460SOL    HW197219   3.198  11.313   4.438
98460SOL    HW297220   3.124  11.445   4.442
98461SOL     OW97221   9.801   9.702  11.455
98461SOL    HW197222   9.825   9.615  11.424
98461SOL    HW297223   9.884   9.750  11.457
98462SOL     OW97224  12.826   5.984   5.893
98462SOL    HW197225  12.788   6.053   5.947
98462SOL    HW297226  12.866   6.031   5.820
98463SOL     OW97227   3.245  14.197   9.332
98463SOL    HW197228   3.331  14.159   9.348
98463SOL    HW297229   3.220  14.236   9.416
98464SOL     OW97230   2.717  14.731  12.075
98464SOL    HW197231   2.661  14.759  12.002
98464SOL    HW297232   2.747  14.812  12.115
98465SOL     OW97233  13.153  14.181   8.093
98465SOL    HW197234  13.159  14.185   8.188
98465SOL    HW297235  13.136  14.272   8.067
98466SOL     OW97236  11.030  14.047  11.139
98466SOL    HW197237  11.034  14.043  11.043
98466SOL    HW297238  11.120  14.063  11.165
98467SOL     OW97239  11.084  12.792   5.017
98467SOL    HW197240  10.993  12.819   5.028
98467SOL    HW297241  11.098  12.792   4.923
98468SOL     OW97242   1.301   8.526  10.492
98468SOL    HW197243   1.296   8.605  10.438
98468SOL    HW297244   1.378   8.480  10.458
98469SOL     OW97245   1.855   9.311  12.131
98469SOL    HW197246   1.769   9.270  12.142
98469SOL    HW297247   1.848   9.362  12.050
98470SOL     OW97248   0.328   0.815  10.587
98470SOL    HW197249   0.304   0.730  10.550
98470SOL    HW297250   0.383   0.793  10.663
98471SOL     OW97251   7.016   2.282   6.801
98471SOL    HW197252   7.063   2.210   6.759
98471SOL    HW297253   6.932   2.243   6.828
98472SOL     OW97254  11.406  11.740   9.289
98472SOL    HW197255  11.364  11.801   9.349
98472SOL    HW297256  11.434  11.794   9.215
98473SOL     OW97257   6.302  11.548  14.131
98473SOL    HW197258   6.327  11.518  14.044
98473SOL    HW297259   6.232  11.612  14.114
98474SOL     OW97260   3.198   9.138   2.671
98474SOL    HW197261   3.274   9.088   2.642
98474SOL    HW297262   3.225   9.176   2.754
98475SOL     OW97263  11.943   9.892   1.058
98475SOL    HW197264  12.012   9.929   1.113
98475SOL    HW297265  11.983   9.815   1.018
98476SOL     OW97266   4.545   6.588   2.007
98476SOL    HW197267   4.572   6.519   1.946
98476SOL    HW297268   4.625   6.614   2.052
98477SOL     OW97269   4.096  13.614  13.438
98477SOL    HW197270   4.145  13.634  13.517
98477SOL    HW297271   4.024  13.558  13.467
98478SOL     OW97272   2.593   9.143   4.472
98478SOL    HW197273   2.653   9.071   4.490
98478SOL    HW297274   2.511   9.100   4.448
98479SOL     OW97275  12.153   8.166   8.726
98479SOL    HW197276  12.105   8.107   8.784
98479SOL    HW297277  12.103   8.247   8.728
98480SOL     OW97278  10.191  13.451   5.117
98480SOL    HW197279  10.133  13.454   5.192
98480SOL    HW297280  10.173  13.532   5.069
98481SOL     OW97281  11.295  11.204   8.785
98481SOL    HW197282  11.364  11.139   8.798
98481SOL    HW297283  11.321  11.250   8.705
98482SOL     OW97284  10.691   6.228   3.362
98482SOL    HW197285  10.734   6.231   3.277
98482SOL    HW297286  10.612   6.281   3.350
98483SOL     OW97287  11.579   0.972   9.606
98483SOL    HW197288  11.669   1.002   9.598
98483SOL    HW297289  11.539   0.995   9.522
98484SOL     OW97290  10.749   4.035  13.275
98484SOL    HW197291  10.762   4.125  13.307
98484SOL    HW297292  10.675   4.002  13.327
98485SOL     OW97293   8.346  13.669   8.707
98485SOL    HW197294   8.284  13.654   8.778
98485SOL    HW297295   8.372  13.761   8.717
98486SOL     OW97296   7.281   0.021   6.457
98486SOL    HW197297   7.239  14.870   6.377
98486SOL    HW297298   7.231   0.098   6.483
98487SOL     OW97299   7.486   6.725   7.484
98487SOL    HW197300   7.413   6.772   7.524
98487SOL    HW297301   7.555   6.725   7.551
98488SOL     OW97302  14.616  13.471  14.156
98488SOL    HW197303  14.604  13.507  14.244
98488SOL    HW297304  14.688  13.522  14.118
98489SOL     OW97305   7.334   3.481  10.950
98489SOL    HW197306   7.250   3.444  10.980
98489SOL    HW297307   7.371   3.413  10.893
98490SOL     OW97308   6.232   9.877   5.145
98490SOL    HW197309   6.299   9.896   5.080
98490SOL    HW297310   6.236   9.951   5.206
98491SOL     OW97311   8.846   7.024   8.284
98491SOL    HW197312   8.783   6.973   8.334
98491SOL    HW297313   8.920   6.964   8.270
98492SOL     OW97314  11.684   6.857  12.010
98492SOL    HW197315  11.648   6.781  11.964
98492SOL    HW297316  11.766   6.875  11.964
98493SOL     OW97317   9.288   3.096  14.844
98493SOL    HW197318   9.292   3.101   0.060
98493SOL    HW297319   9.253   3.181  14.817
98494SOL     OW97320   0.246   4.845  11.728
98494SOL    HW197321   0.248   4.922  11.785
98494SOL    HW297322   0.185   4.785  11.771
98495SOL     OW97323   0.079   1.609   7.696
98495SOL    HW197324   0.064   1.515   7.685
98495SOL    HW297325   0.073   1.645   7.607
98496SOL     OW97326   8.899   0.240   0.903
98496SOL    HW197327   8.867   0.187   0.830
98496SOL    HW297328   8.992   0.219   0.909
98497SOL     OW97329   6.588   2.710   3.045
98497SOL    HW197330   6.652   2.719   2.975
98497SOL    HW297331   6.640   2.690   3.123
98498SOL     OW97332  13.330   2.327   2.508
98498SOL    HW197333  13.238   2.313   2.485
98498SOL    HW297334  13.360   2.394   2.446
98499SOL     OW97335   2.291   8.043   5.228
98499SOL    HW197336   2.320   7.952   5.222
98499SOL    HW297337   2.205   8.037   5.270
98500SOL     OW97338   0.459   0.728  10.832
98500SOL    HW197339   0.390   0.666  10.808
98500SOL    HW297340   0.425   0.773  10.910
98501SOL     OW97341   7.937   9.063   2.950
98501SOL    HW197342   7.859   9.082   3.002
98501SOL    HW297343   7.932   8.970   2.931
98502SOL     OW97344  14.742   5.370   7.755
98502SOL    HW197345  14.700   5.393   7.671
98502SOL    HW297346  14.835   5.372   7.735
98503SOL     OW97347   9.521  11.788  13.846
98503SOL    HW197348   9.566  11.871  13.860
98503SOL    HW297349   9.430  11.806  13.869
98504SOL     OW97350   2.785   6.274  11.835
98504SOL    HW197351   2.869   6.296  11.795
98504SOL    HW297352   2.769   6.344  11.898
98505SOL     OW97353   5.991   1.069   9.767
98505SOL    HW197354   6.084   1.090   9.759
98505SOL    HW297355   5.978   0.995   9.708
98506SOL     OW97356   4.630   2.323   2.794
98506SOL    HW197357   4.582   2.325   2.877
98506SOL    HW297358   4.628   2.413   2.762
98507SOL     OW97359  10.130   4.133   9.247
98507SOL    HW197360  10.183   4.212   9.251
98507SOL    HW297361  10.056   4.157   9.191
98508SOL     OW97362   4.502   0.028  13.377
98508SOL    HW197363   4.531   0.055  13.464
98508SOL    HW297364   4.550  14.827  13.359
98509SOL     OW97365  14.332  13.302  11.501
98509SOL    HW197366  14.269  13.243  11.460
98509SOL    HW297367  14.374  13.347  11.428
98510SOL     OW97368  10.026   4.113  11.657
98510SOL    HW197369   9.932   4.120  11.674
98510SOL    HW297370  10.035   4.131  11.564
98511SOL     OW97371   6.215   1.932   3.038
98511SOL    HW197372   6.264   1.850   3.038
98511SOL    HW297373   6.160   1.928   3.116
98512SOL     OW97374   0.305   4.222   7.240
98512SOL    HW197375   0.320   4.212   7.146
98512SOL    HW297376   0.314   4.316   7.256
98513SOL     OW97377   4.352  14.871  12.661
98513SOL    HW197378   4.288   0.026  12.598
98513SOL    HW297379   4.436  14.875  12.614
98514SOL     OW97380   8.767  14.475  12.040
98514SOL    HW197381   8.833  14.540  12.016
98514SOL    HW297382   8.778  14.464  12.135
98515SOL     OW97383  12.035   0.605   0.907
98515SOL    HW197384  11.989   0.593   0.990
98515SOL    HW297385  12.030   0.699   0.890
98516SOL     OW97386   6.459   0.213   3.748
98516SOL    HW197387   6.366   0.214   3.727
98516SOL    HW297388   6.484   0.121   3.741
98517SOL     OW97389   8.603  11.274   3.003
98517SOL    HW197390   8.589  11.182   2.982
98517SOL    HW297391   8.520  11.317   2.980
98518SOL     OW97392   7.040   1.855   8.456
98518SOL    HW197393   6.992   1.925   8.499
98518SOL    HW297394   7.030   1.779   8.513
98519SOL     OW97395  10.117   6.108   4.027
98519SOL    HW197396  10.128   6.174   3.959
98519SOL    HW297397  10.023   6.095   4.034
98520SOL     OW97398   1.107   8.660   7.703
98520SOL    HW197399   1.142   8.725   7.764
98520SOL    HW297400   1.139   8.576   7.736
98521SOL     OW97401   5.665   3.445   8.496
98521SOL    HW197402   5.574   3.469   8.478
98521SOL    HW297403   5.706   3.441   8.409
98522SOL     OW97404   1.629   9.427  14.260
98522SOL    HW197405   1.716   9.436  14.221
98522SOL    HW297406   1.646   9.415  14.354
98523SOL     OW97407   5.234   8.024  11.011
98523SOL    HW197408   5.283   7.942  11.018
98523SOL    HW297409   5.300   8.092  11.024
98524SOL     OW97410   3.314   6.287   4.744
98524SOL    HW197411   3.339   6.363   4.693
98524SOL    HW297412   3.269   6.230   4.682
98525SOL     OW97413   0.972   5.891  10.923
98525SOL    HW197414   0.912   5.849  10.985
98525SOL    HW297415   0.915   5.945  10.868
98526SOL     OW97416  13.707  14.723  14.040
98526SOL    HW197417  13.763  14.796  14.015
98526SOL    HW297418  13.700  14.729  14.135
98527SOL     OW97419   5.619   9.391   9.243
98527SOL    HW197420   5.554   9.329   9.208
98527SOL    HW297421   5.612   9.467   9.185
98528SOL     OW97422   4.197   0.495   3.942
98528SOL    HW197423   4.150   0.578   3.939
98528SOL    HW297424   4.168   0.454   4.024
98529SOL     OW97425   3.527   0.908   3.387
98529SOL    HW197426   3.589   0.976   3.414
98529SOL    HW297427   3.572   0.860   3.318
98530SOL     OW97428  14.044   2.890   2.724
98530SOL    HW197429  14.121   2.878   2.668
98530SOL    HW297430  14.004   2.971   2.694
98531SOL     OW97431   0.145   7.646  11.640
98531SOL    HW197432   0.144   7.608  11.552
98531SOL    HW297433   0.101   7.582  11.695
98532SOL     OW97434  13.186   0.018  14.623
98532SOL    HW197435  13.254   0.069  14.666
98532SOL    HW297436  13.122   0.001  14.691
98533SOL     OW97437   0.054   0.309  14.660
98533SOL    HW197438   0.024   0.252  14.589
98533SOL    HW297439   0.111   0.373  14.617
98534SOL     OW97440  12.331   6.088   6.220
98534SOL    HW197441  12.342   6.074   6.314
98534SOL    HW297442  12.373   6.173   6.204
98535SOL     OW97443   3.600  14.172   3.378
98535SOL    HW197444   3.591  14.207   3.466
98535SOL    HW297445   3.672  14.222   3.340
98536SOL     OW97446  13.562  11.482   6.540
98536SOL    HW197447  13.554  11.575   6.560
98536SOL    HW297448  13.594  11.442   6.621
98537SOL     OW97449   2.574  12.824   2.121
98537SOL    HW197450   2.668  12.817   2.140
98537SOL    HW297451   2.544  12.733   2.112
98538SOL     OW97452   3.336   8.755  14.600
98538SOL    HW197453   3.298   8.670  14.577
98538SOL    HW297454   3.307   8.771  14.690
98539SOL     OW97455  12.966   6.580   5.758
98539SOL    HW197456  12.900   6.645   5.732
98539SOL    HW297457  13.043   6.602   5.707
98540SOL     OW97458   2.863   4.449   2.531
98540SOL    HW197459   2.807   4.397   2.589
98540SOL    HW297460   2.874   4.532   2.576
98541SOL     OW97461   3.967   8.548  11.549
98541SOL    HW197462   3.971   8.516  11.639
98541SOL    HW297463   3.996   8.639  11.555
98542SOL     OW97464   2.837  11.886  14.311
98542SOL    HW197465   2.836  11.953  14.379
98542SOL    HW297466   2.753  11.840  14.321
98543SOL     OW97467  11.482  11.573   6.949
98543SOL    HW197468  11.562  11.551   6.903
98543SOL    HW297469  11.500  11.658   6.990
98544SOL     OW97470   7.671   5.907   5.896
98544SOL    HW197471   7.678   5.989   5.846
98544SOL    HW297472   7.733   5.848   5.853
98545SOL     OW97473   3.963  10.820   2.733
98545SOL    HW197474   3.975  10.843   2.641
98545SOL    HW297475   4.039  10.856   2.778
98546SOL     OW97476   5.828  11.825  11.500
98546SOL    HW197477   5.891  11.845  11.570
98546SOL    HW297478   5.747  11.866  11.529
98547SOL     OW97479   3.701  10.799   9.568
98547SOL    HW197480   3.790  10.828   9.549
98547SOL    HW297481   3.658  10.797   9.483
98548SOL     OW97482   1.801  11.341  12.843
98548SOL    HW197483   1.753  11.262  12.821
98548SOL    HW297484   1.749  11.384  12.910
98549SOL     OW97485   8.992   4.241  13.034
98549SOL    HW197486   9.023   4.273  12.950
98549SOL    HW297487   8.960   4.319  13.080
98550SOL     OW97488  14.269   6.558   4.110
98550SOL    HW197489  14.217   6.596   4.040
98550SOL    HW297490  14.300   6.474   4.075
98551SOL     OW97491  13.655   7.772   6.016
98551SOL    HW197492  13.680   7.684   5.988
98551SOL    HW297493  13.675   7.828   5.941
98552SOL     OW97494  14.232   9.344   9.900
98552SOL    HW197495  14.181   9.401   9.959
98552SOL    HW297496  14.320   9.382   9.901
98553SOL     OW97497  11.378  13.515  13.107
98553SOL    HW197498  11.468  13.531  13.135
98553SOL    HW297499  11.358  13.428  13.142
98554SOL     OW97500   9.928   1.598   3.205
98554SOL    HW197501   9.911   1.651   3.283
98554SOL    HW297502   9.936   1.662   3.134
98555SOL     OW97503   3.491   2.077   1.089
98555SOL    HW197504   3.534   2.105   1.170
98555SOL    HW297505   3.528   2.134   1.022
98556SOL     OW97506  10.742   8.259  12.098
98556SOL    HW197507  10.783   8.313  12.166
98556SOL    HW297508  10.703   8.186  12.146
98557SOL     OW97509   7.360  11.023  10.351
98557SOL    HW197510   7.353  10.980  10.266
98557SOL    HW297511   7.404  10.958  10.407
98558SOL     OW97512   6.218   7.699   4.540
98558SOL    HW197513   6.213   7.633   4.471
98558SOL    HW297514   6.185   7.779   4.500
98559SOL     OW97515   6.374  12.982   7.076
98559SOL    HW197516   6.335  12.898   7.099
98559SOL    HW297517   6.434  12.961   7.004
98560SOL     OW97518  12.433   5.461  12.556
98560SOL    HW197519  12.528   5.456  12.543
98560SOL    HW297520  12.401   5.374  12.531
98561SOL     OW97521   9.443   1.433  12.221
98561SOL    HW197522   9.413   1.501  12.159
98561SOL    HW297523   9.537   1.449  12.230
98562SOL     OW97524  12.904   2.148  10.417
98562SOL    HW197525  12.932   2.135  10.327
98562SOL    HW297526  12.828   2.206  10.411
98563SOL     OW97527  10.482  13.892   4.976
98563SOL    HW197528  10.448  13.955   4.912
98563SOL    HW297529  10.521  13.823   4.922
98564SOL     OW97530   5.871  10.913   5.688
98564SOL    HW197531   5.777  10.935   5.687
98564SOL    HW297532   5.891  10.897   5.780
98565SOL     OW97533   6.290   0.516  13.319
98565SOL    HW197534   6.243   0.510  13.402
98565SOL    HW297535   6.243   0.582  13.269
98566SOL     OW97536  13.138   1.547  13.344
98566SOL    HW197537  13.123   1.474  13.284
98566SOL    HW297538  13.157   1.622  13.287
98567SOL     OW97539  11.996   1.378  13.702
98567SOL    HW197540  12.048   1.322  13.760
98567SOL    HW297541  11.944   1.432  13.761
98568SOL     OW97542   5.536   1.398  12.174
98568SOL    HW197543   5.442   1.382  12.181
98568SOL    HW297544   5.552   1.407  12.080
98569SOL     OW97545   7.483   2.235  12.556
98569SOL    HW197546   7.551   2.303  12.551
98569SOL    HW297547   7.490   2.188  12.473
98570SOL     OW97548   1.317   0.483   3.623
98570SOL    HW197549   1.298   0.517   3.535
98570SOL    HW297550   1.276   0.397   3.624
98571SOL     OW97551  13.819  10.551   1.112
98571SOL    HW197552  13.907  10.583   1.131
98571SOL    HW297553  13.820  10.460   1.144
98572SOL     OW97554  13.723   5.045   2.862
98572SOL    HW197555  13.701   4.953   2.849
98572SOL    HW297556  13.642   5.092   2.840
98573SOL     OW97557   8.375   8.018   8.905
98573SOL    HW197558   8.443   7.952   8.922
98573SOL    HW297559   8.293   7.971   8.916
98574SOL     OW97560   4.252   2.975   0.203
98574SOL    HW197561   4.337   3.017   0.192
98574SOL    HW297562   4.206   3.030   0.266
98575SOL     OW97563   4.608   5.115  10.338
98575SOL    HW197564   4.603   5.211  10.331
98575SOL    HW297565   4.671   5.090  10.270
98576SOL     OW97566   3.918  10.437  12.717
98576SOL    HW197567   3.835  10.470  12.682
98576SOL    HW297568   3.945  10.370  12.654
98577SOL     OW97569  10.546   2.034   9.657
98577SOL    HW197570  10.566   2.060   9.567
98577SOL    HW297571  10.468   2.084   9.679
98578SOL     OW97572   6.293   5.809   6.039
98578SOL    HW197573   6.257   5.776   6.120
98578SOL    HW297574   6.388   5.803   6.050
98579SOL     OW97575  13.006   5.375   4.404
98579SOL    HW197576  13.021   5.302   4.464
98579SOL    HW297577  12.911   5.375   4.390
98580SOL     OW97578  13.830  14.756   0.779
98580SOL    HW197579  13.841  14.851   0.793
98580SOL    HW297580  13.915  14.726   0.747
98581SOL     OW97581   5.942   1.398   5.909
98581SOL    HW197582   5.928   1.321   5.854
98581SOL    HW297583   5.865   1.402   5.966
98582SOL     OW97584   2.848   2.914  14.368
98582SOL    HW197585   2.764   2.955  14.346
98582SOL    HW297586   2.893   2.979  14.422
98583SOL     OW97587  14.212   8.359   9.932
98583SOL    HW197588  14.177   8.425   9.872
98583SOL    HW297589  14.216   8.404  10.017
98584SOL     OW97590   6.603   5.154  11.638
98584SOL    HW197591   6.652   5.216  11.584
98584SOL    HW297592   6.525   5.203  11.666
98585SOL     OW97593  14.070  12.832  10.438
98585SOL    HW197594  14.017  12.863  10.511
98585SOL    HW297595  14.011  12.832  10.362
98586SOL     OW97596   9.266   7.792   1.122
98586SOL    HW197597   9.338   7.799   1.186
98586SOL    HW297598   9.200   7.739   1.166
98587SOL     OW97599  14.764   6.968   3.732
98587SOL    HW197600  14.818   6.947   3.656
98587SOL    HW297601  14.703   7.034   3.701
98588SOL     OW97602   6.316   1.190   3.841
98588SOL    HW197603   6.250   1.249   3.880
98588SOL    HW297604   6.354   1.144   3.916
98589SOL     OW97605  11.577   9.810   9.485
98589SOL    HW197606  11.669   9.806   9.457
98589SOL    HW297607  11.575   9.882   9.549
98590SOL     OW97608   6.202  12.519   9.421
98590SOL    HW197609   6.172  12.598   9.376
98590SOL    HW297610   6.234  12.550   9.505
98591SOL     OW97611  11.421   5.818  14.389
98591SOL    HW197612  11.429   5.763  14.467
98591SOL    HW297613  11.330   5.807  14.361
98592SOL     OW97614   8.378   5.111  14.216
98592SOL    HW197615   8.360   5.068  14.299
98592SOL    HW297616   8.423   5.192  14.240
98593SOL     OW97617  12.404   7.196   9.574
98593SOL    HW197618  12.375   7.189   9.665
98593SOL    HW297619  12.328   7.227   9.526
98594SOL     OW97620  13.465   2.209   3.000
98594SOL    HW197621  13.531   2.271   2.968
98594SOL    HW297622  13.403   2.201   2.928
98595SOL     OW97623   2.433  12.623  13.109
98595SOL    HW197624   2.414  12.715  13.087
98595SOL    HW297625   2.488  12.592  13.038
98596SOL     OW97626  13.924   8.392   4.259
98596SOL    HW197627  13.881   8.468   4.297
98596SOL    HW297628  13.989   8.365   4.324
98597SOL     OW97629  10.232   0.747   4.350
98597SOL    HW197630  10.247   0.702   4.267
98597SOL    HW297631  10.206   0.677   4.410
98598SOL     OW97632   3.466   3.368   7.995
98598SOL    HW197633   3.482   3.274   8.007
98598SOL    HW297634   3.544   3.401   7.951
98599SOL     OW97635   3.088   4.465   1.308
98599SOL    HW197636   3.029   4.466   1.233
98599SOL    HW297637   3.040   4.418   1.376
98600SOL     OW97638  13.884  11.291   4.737
98600SOL    HW197639  13.917  11.262   4.652
98600SOL    HW297640  13.815  11.354   4.716
98601SOL     OW97641   1.081  13.550   0.097
98601SOL    HW197642   1.047  13.497   0.169
98601SOL    HW297643   1.148  13.495   0.056
98602SOL     OW97644   1.665   7.457   1.760
98602SOL    HW197645   1.743   7.408   1.734
98602SOL    HW297646   1.622   7.480   1.678
98603SOL     OW97647   0.576  13.066  10.237
98603SOL    HW197648   0.607  12.994  10.183
98603SOL    HW297649   0.544  13.024  10.317
98604SOL     OW97650   8.248   9.407   5.221
98604SOL    HW197651   8.338   9.375   5.219
98604SOL    HW297652   8.248   9.481   5.161
98605SOL     OW97653  13.424  10.382  11.396
98605SOL    HW197654  13.367  10.374  11.473
98605SOL    HW297655  13.448  10.475  11.394
98606SOL     OW97656   0.746  14.779   1.677
98606SOL    HW197657   0.780  14.847   1.734
98606SOL    HW297658   0.695  14.826   1.611
98607SOL     OW97659   5.948   1.780   0.421
98607SOL    HW197660   6.006   1.764   0.347
98607SOL    HW297661   5.966   1.870   0.447
98608SOL     OW97662   4.704   9.649  11.283
98608SOL    HW197663   4.714   9.730  11.332
98608SOL    HW297664   4.629   9.606  11.325
98609SOL     OW97665   3.288  13.663   7.408
98609SOL    HW197666   3.324  13.714   7.335
98609SOL    HW297667   3.313  13.713   7.486
98610SOL     OW97668  10.646  10.940  12.461
98610SOL    HW197669  10.552  10.930  12.472
98610SOL    HW297670  10.675  10.855  12.428
98611SOL     OW97671  13.591   9.759   4.026
98611SOL    HW197672  13.666   9.700   4.035
98611SOL    HW297673  13.626   9.835   3.979
98612SOL     OW97674  12.196   9.926  12.540
98612SOL    HW197675  12.127   9.985  12.508
98612SOL    HW297676  12.274   9.950  12.489
98613SOL     OW97677   7.473  11.016  11.424
98613SOL    HW197678   7.453  11.109  11.416
98613SOL    HW297679   7.393  10.977  11.461
98614SOL     OW97680   3.576  10.393   5.980
98614SOL    HW197681   3.486  10.364   5.968
98614SOL    HW297682   3.623  10.357   5.904
98615SOL     OW97683   6.705  11.334  14.436
98615SOL    HW197684   6.706  11.285  14.354
98615SOL    HW297685   6.621  11.380  14.436
98616SOL     OW97686  10.035   6.316  12.495
98616SOL    HW197687   9.956   6.369  12.499
98616SOL    HW297688  10.009   6.230  12.529
98617SOL     OW97689  13.159   3.092   1.117
98617SOL    HW197690  13.212   3.045   1.182
98617SOL    HW297691  13.169   3.184   1.139
98618SOL     OW97692   1.308   2.387   5.940
98618SOL    HW197693   1.293   2.427   6.026
98618SOL    HW297694   1.342   2.300   5.961
98619SOL     OW97695  10.868   8.107   9.451
98619SOL    HW197696  10.886   8.198   9.475
98619SOL    HW297697  10.861   8.061   9.534
98620SOL     OW97698   4.734   2.603  11.769
98620SOL    HW197699   4.698   2.568  11.688
98620SOL    HW297700   4.723   2.533  11.833
98621SOL     OW97701   1.355   6.258   6.982
98621SOL    HW197702   1.352   6.171   7.023
98621SOL    HW297703   1.266   6.291   6.989
98622SOL     OW97704  13.532  13.654  12.539
98622SOL    HW197705  13.489  13.734  12.569
98622SOL    HW297706  13.489  13.584  12.588
98623SOL     OW97707   5.113  12.047  13.434
98623SOL    HW197708   5.181  12.047  13.501
98623SOL    HW297709   5.154  12.089  13.358
98624SOL     OW97710  13.666   0.292   8.003
98624SOL    HW197711  13.586   0.341   8.019
98624SOL    HW297712  13.734   0.359   7.998
98625SOL     OW97713  13.221   2.535  13.962
98625SOL    HW197714  13.266   2.619  13.968
98625SOL    HW297715  13.291   2.472  13.945
98626SOL     OW97716  14.431   4.860   7.153
98626SOL    HW197717  14.384   4.797   7.098
98626SOL    HW297718  14.363   4.898   7.208
98627SOL     OW97719  12.373   0.240   4.175
98627SOL    HW197720  12.395   0.163   4.228
98627SOL    HW297721  12.453   0.294   4.176
98628SOL     OW97722  11.798   1.459   4.423
98628SOL    HW197723  11.867   1.525   4.427
98628SOL    HW297724  11.723   1.500   4.466
98629SOL     OW97725   7.600   7.535   1.317
98629SOL    HW197726   7.506   7.552   1.322
98629SOL    HW297727   7.615   7.465   1.380
98630SOL     OW97728  13.174   4.011  11.352
98630SOL    HW197729  13.196   4.048  11.437
98630SOL    HW297730  13.087   3.973  11.364
98631SOL     OW97731   8.675   4.769   0.795
98631SOL    HW197732   8.669   4.686   0.748
98631SOL    HW297733   8.703   4.832   0.729
98632SOL     OW97734   4.490  10.098  13.335
98632SOL    HW197735   4.415  10.156  13.347
98632SOL    HW297736   4.489  10.075  13.242
98633SOL     OW97737   7.213   8.077   2.181
98633SOL    HW197738   7.232   8.011   2.115
98633SOL    HW297739   7.297   8.092   2.225
98634SOL     OW97740   2.756  13.047   8.896
98634SOL    HW197741   2.799  13.030   8.980
98634SOL    HW297742   2.682  12.987   8.895
98635SOL     OW97743  12.430   2.076   4.845
98635SOL    HW197744  12.421   2.089   4.750
98635SOL    HW297745  12.340   2.076   4.878
98636SOL     OW97746   6.740   1.850   5.198
98636SOL    HW197747   6.810   1.819   5.256
98636SOL    HW297748   6.683   1.901   5.256
98637SOL     OW97749   2.329  14.142   9.344
98637SOL    HW197750   2.282  14.066   9.310
98637SOL    HW297751   2.404  14.105   9.390
98638SOL     OW97752   5.182  11.961   3.388
98638SOL    HW197753   5.144  11.874   3.372
98638SOL    HW297754   5.111  12.022   3.368
98639SOL     OW97755  13.852  14.491  13.926
98639SOL    HW197756  13.786  14.452  13.869
98639SOL    HW297757  13.803  14.547  13.985
98640SOL     OW97758   5.830   9.434  12.285
98640SOL    HW197759   5.852   9.513  12.334
98640SOL    HW297760   5.882   9.365  12.327
98641SOL     OW97761  10.585   7.175   1.245
98641SOL    HW197762  10.521   7.109   1.218
98641SOL    HW297763  10.555   7.256   1.204
98642SOL     OW97764   1.875   4.636   4.064
98642SOL    HW197765   1.802   4.639   4.002
98642SOL    HW297766   1.953   4.626   4.009
98643SOL     OW97767   9.827   1.168   8.284
98643SOL    HW197768   9.750   1.183   8.339
98643SOL    HW297769   9.901   1.169   8.345
98644SOL     OW97770   3.642   5.878  13.425
98644SOL    HW197771   3.736   5.875  13.445
98644SOL    HW297772   3.638   5.912  13.336
98645SOL     OW97773   9.605   2.326   8.679
98645SOL    HW197774   9.695   2.341   8.651
98645SOL    HW297775   9.552   2.355   8.605
98646SOL     OW97776   1.830   3.551  11.855
98646SOL    HW197777   1.891   3.490  11.898
98646SOL    HW297778   1.812   3.617  11.922
98647SOL     OW97779   1.949  13.915   8.221
98647SOL    HW197780   1.998  13.982   8.174
98647SOL    HW297781   2.010  13.841   8.226
98648SOL     OW97782  11.476  14.416   1.189
98648SOL    HW197783  11.400  14.439   1.243
98648SOL    HW297784  11.540  14.381   1.251
98649SOL     OW97785   4.573  10.939  13.791
98649SOL    HW197786   4.531  11.025  13.799
98649SOL    HW297787   4.666  10.960  13.778
98650SOL     OW97788   9.343  13.858   4.949
98650SOL    HW197789   9.348  13.785   5.010
98650SOL    HW297790   9.254  13.892   4.959
98651SOL     OW97791   9.340   7.574  11.234
98651SOL    HW197792   9.336   7.561  11.139
98651SOL    HW297793   9.265   7.525  11.268
98652SOL     OW97794  14.775   3.930  11.388
98652SOL    HW197795  14.769   3.973  11.473
98652SOL    HW297796  14.721   3.985  11.330
98653SOL     OW97797   2.839   3.568  13.093
98653SOL    HW197798   2.833   3.591  13.186
98653SOL    HW297799   2.914   3.619  13.061
98654SOL     OW97800   4.551  10.588  12.727
98654SOL    HW197801   4.563  10.656  12.660
98654SOL    HW297802   4.497  10.630  12.794
98655SOL     OW97803  10.017   8.756   8.569
98655SOL    HW197804  10.013   8.793   8.657
98655SOL    HW297805  10.111   8.755   8.547
98656SOL     OW97806  12.897   4.662   6.527
98656SOL    HW197807  12.984   4.690   6.499
98656SOL    HW297808  12.838   4.697   6.460
98657SOL     OW97809  13.299   3.929   4.460
98657SOL    HW197810  13.222   3.932   4.517
98657SOL    HW297811  13.299   3.839   4.426
98658SOL     OW97812   4.781   5.008   4.836
98658SOL    HW197813   4.855   4.958   4.801
98658SOL    HW297814   4.815   5.049   4.915
98659SOL     OW97815   3.800  10.976  12.149
98659SOL    HW197816   3.868  10.949  12.209
98659SOL    HW297817   3.826  10.939  12.064
98660SOL     OW97818   7.307  13.542   9.523
98660SOL    HW197819   7.238  13.522   9.460
98660SOL    HW297820   7.389  13.524   9.476
98661SOL     OW97821  10.158  11.752   8.958
98661SOL    HW197822  10.080  11.807   8.951
98661SOL    HW297823  10.157  11.720   9.048
98662SOL     OW97824   0.594   9.957   7.259
98662SOL    HW197825   0.573   9.986   7.348
98662SOL    HW297826   0.686   9.982   7.246
98663SOL     OW97827   7.111  10.598  12.714
98663SOL    HW197828   7.038  10.542  12.690
98663SOL    HW297829   7.150  10.624  12.631
98664SOL     OW97830   6.128   0.043   2.822
98664SOL    HW197831   6.041   0.056   2.784
98664SOL    HW297832   6.179   0.117   2.788
98665SOL     OW97833   0.299   5.258  10.876
98665SOL    HW197834   0.245   5.183  10.899
98665SOL    HW297835   0.353   5.274  10.954
98666SOL     OW97836   8.102   0.985   4.257
98666SOL    HW197837   8.104   0.900   4.213
98666SOL    HW297838   8.178   1.032   4.221
98667SOL     OW97839   0.419  10.602   7.015
98667SOL    HW197840   0.477  10.588   6.941
98667SOL    HW297841   0.361  10.526   7.014
98668SOL     OW97842   6.862   3.702   9.399
98668SOL    HW197843   6.885   3.784   9.355
98668SOL    HW297844   6.786   3.725   9.454
98669SOL     OW97845   0.764   9.971   5.952
98669SOL    HW197846   0.823   9.978   6.026
98669SOL    HW297847   0.682  10.010   5.981
98670SOL     OW97848  10.832   1.796  13.347
98670SOL    HW197849  10.899   1.817  13.282
98670SOL    HW297850  10.781   1.725  13.306
98671SOL     OW97851  12.570   0.212   5.245
98671SOL    HW197852  12.486   0.256   5.231
98671SOL    HW297853  12.635   0.280   5.230
98672SOL     OW97854  12.337  10.800   4.600
98672SOL    HW197855  12.368  10.843   4.521
98672SOL    HW297856  12.351  10.707   4.583
98673SOL     OW97857   4.506   5.155   5.347
98673SOL    HW197858   4.569   5.134   5.279
98673SOL    HW297859   4.519   5.249   5.364
98674SOL     OW97860   5.828  13.005   7.262
98674SOL    HW197861   5.739  12.969   7.269
98674SOL    HW297862   5.855  12.982   7.173
98675SOL     OW97863  10.980  13.359  14.627
98675SOL    HW197864  10.930  13.309  14.691
98675SOL    HW297865  10.974  13.450  14.657
98676SOL     OW97866   1.740   2.319   9.773
98676SOL    HW197867   1.763   2.360   9.689
98676SOL    HW297868   1.644   2.320   9.774
98677SOL     OW97869  11.205  10.883  11.379
98677SOL    HW197870  11.262  10.893  11.302
98677SOL    HW297871  11.138  10.950  11.367
98678SOL     OW97872   7.162   7.289  14.269
98678SOL    HW197873   7.255   7.281  14.291
98678SOL    HW297874   7.151   7.236  14.190
98679SOL     OW97875  13.799   7.200  10.271
98679SOL    HW197876  13.758   7.175  10.353
98679SOL    HW297877  13.739   7.169  10.203
98680SOL     OW97878  13.085   1.633  14.239
98680SOL    HW197879  13.105   1.553  14.287
98680SOL    HW297880  13.170   1.668  14.213
98681SOL     OW97881   5.652  10.283   0.171
98681SOL    HW197882   5.621  10.300   0.082
98681SOL    HW297883   5.591  10.219   0.206
98682SOL     OW97884   7.846   5.256   3.200
98682SOL    HW197885   7.781   5.248   3.130
98682SOL    HW297886   7.917   5.197   3.175
98683SOL     OW97887   6.855   4.974  12.478
98683SOL    HW197888   6.932   4.987  12.533
98683SOL    HW297889   6.851   5.052  12.423
98684SOL     OW97890   9.927   6.555   0.919
98684SOL    HW197891   9.959   6.474   0.880
98684SOL    HW297892  10.005   6.592   0.962
98685SOL     OW97893   1.948  12.469   1.724
98685SOL    HW197894   1.963  12.549   1.674
98685SOL    HW297895   1.960  12.495   1.816
98686SOL     OW97896   8.073  11.164   4.587
98686SOL    HW197897   8.114  11.181   4.671
98686SOL    HW297898   7.983  11.138   4.608
98687SOL     OW97899   2.043   8.579   0.091
98687SOL    HW197900   1.988   8.626   0.029
98687SOL    HW297901   2.048   8.637   0.168
98688SOL     OW97902  12.511   5.768  13.874
98688SOL    HW197903  12.582   5.707  13.855
98688SOL    HW297904  12.540   5.814  13.953
98689SOL     OW97905  12.518   2.213   0.875
98689SOL    HW197906  12.603   2.175   0.851
98689SOL    HW297907  12.457   2.174   0.812
98690SOL     OW97908   5.908  11.110   9.717
98690SOL    HW197909   6.000  11.089   9.735
98690SOL    HW297910   5.883  11.051   9.646
98691SOL     OW97911   0.753   2.451   6.308
98691SOL    HW197912   0.659   2.440   6.321
98691SOL    HW297913   0.791   2.445   6.395
98692SOL     OW97914   0.968   2.516  12.182
98692SOL    HW197915   0.873   2.512  12.184
98692SOL    HW297916   0.994   2.448  12.120
98693SOL     OW97917  10.252  14.503  13.123
98693SOL    HW197918  10.224  14.453  13.200
98693SOL    HW297919  10.232  14.594  13.145
98694SOL     OW97920   5.198   9.488   4.705
98694SOL    HW197921   5.220   9.521   4.618
98694SOL    HW297922   5.281   9.454   4.740
98695SOL     OW97923   0.161  12.383   7.078
98695SOL    HW197924   0.111  12.391   7.159
98695SOL    HW297925   0.219  12.459   7.078
98696SOL     OW97926   2.707   8.860   8.372
98696SOL    HW197927   2.768   8.885   8.442
98696SOL    HW297928   2.664   8.942   8.348
98697SOL     OW97929   2.825  14.430  14.672
98697SOL    HW197930   2.849  14.420  14.765
98697SOL    HW297931   2.732  14.408  14.670
98698SOL     OW97932   9.488  12.572   6.639
98698SOL    HW197933   9.482  12.657   6.596
98698SOL    HW297934   9.536  12.589   6.720
98699SOL     OW97935   7.484   0.161  13.700
98699SOL    HW197936   7.508   0.128  13.613
98699SOL    HW297937   7.393   0.132  13.711
98700SOL     OW97938   6.539   5.010   1.561
98700SOL    HW197939   6.552   5.101   1.588
98700SOL    HW297940   6.617   4.989   1.510
98701SOL     OW97941  13.971  14.418  11.454
98701SOL    HW197942  13.896  14.373  11.416
98701SOL    HW297943  13.944  14.510  11.459
98702SOL     OW97944   7.417   1.847  12.010
98702SOL    HW197945   7.479   1.794  12.060
98702SOL    HW297946   7.332   1.832  12.052
98703SOL     OW97947  10.674  14.754  12.340
98703SOL    HW197948  10.626  14.758  12.423
98703SOL    HW297949  10.705  14.663  12.334
98704SOL     OW97950  11.234   5.345   6.720
98704SOL    HW197951  11.187   5.296   6.653
98704SOL    HW297952  11.173   5.414   6.746
98705SOL     OW97953   1.302   3.670   3.297
98705SOL    HW197954   1.278   3.690   3.206
98705SOL    HW297955   1.222   3.686   3.347
98706SOL     OW97956   5.932  13.701   8.348
98706SOL    HW197957   5.872  13.630   8.372
98706SOL    HW297958   5.878  13.762   8.297
98707SOL     OW97959   5.915   5.575   4.749
98707SOL    HW197960   5.873   5.638   4.807
98707SOL    HW297961   6.006   5.573   4.777
98708SOL     OW97962   0.611   9.514   9.483
98708SOL    HW197963   0.649   9.427   9.500
98708SOL    HW297964   0.639   9.567   9.557
98709SOL     OW97965  13.393   6.396  12.310
98709SOL    HW197966  13.401   6.319  12.367
98709SOL    HW297967  13.304   6.391  12.276
98710SOL     OW97968   7.092   1.472   5.986
98710SOL    HW197969   7.001   1.479   5.956
98710SOL    HW297970   7.109   1.554   6.032
98711SOL     OW97971   2.272  10.536   2.535
98711SOL    HW197972   2.284  10.571   2.623
98711SOL    HW297973   2.353  10.488   2.517
98712SOL     OW97974  10.869  13.457  12.885
98712SOL    HW197975  10.957  13.485  12.859
98712SOL    HW297976  10.818  13.457  12.804
98713SOL     OW97977  12.231  12.134   6.981
98713SOL    HW197978  12.256  12.172   6.897
98713SOL    HW297979  12.259  12.043   6.976
98714SOL     OW97980   9.990   4.811   6.852
98714SOL    HW197981  10.070   4.771   6.819
98714SOL    HW297982   9.994   4.901   6.820
98715SOL     OW97983   5.133  14.333  14.708
98715SOL    HW197984   5.073  14.353  14.780
98715SOL    HW297985   5.128  14.238  14.699
98716SOL     OW97986  10.047   7.789   4.050
98716SOL    HW197987  10.123   7.846   4.061
98716SOL    HW297988  10.042   7.739   4.132
98717SOL     OW97989   4.361  11.749  11.961
98717SOL    HW197990   4.405  11.792  11.888
98717SOL    HW297991   4.408  11.778  12.039
98718SOL     OW97992  11.536  11.195   1.148
98718SOL    HW197993  11.518  11.106   1.179
98718SOL    HW297994  11.449  11.235   1.139
98719SOL     OW97995   4.583   2.800   3.234
98719SOL    HW197996   4.618   2.789   3.322
98719SOL    HW297997   4.489   2.817   3.248
98720SOL     OW97998   9.578  11.015  13.732
98720SOL    HW197999   9.604  11.015  13.640
98720SOL    HW298000   9.627  11.088  13.770
98721SOL     OW98001  13.524  10.107   0.607
98721SOL    HW198002  13.525  10.057   0.526
98721SOL    HW298003  13.567  10.050   0.671
98722SOL     OW98004  11.981  12.404   7.168
98722SOL    HW198005  12.003  12.480   7.115
98722SOL    HW298006  12.024  12.419   7.252
98723SOL     OW98007  14.494   1.906   5.980
98723SOL    HW198008  14.419   1.947   6.024
98723SOL    HW298009  14.503   1.954   5.898
98724SOL     OW98010  12.011   9.841  10.359
98724SOL    HW198011  12.019   9.815  10.267
98724SOL    HW298012  12.091   9.890  10.377
98725SOL     OW98013   9.151   8.276  10.474
98725SOL    HW198014   9.072   8.326  10.494
98725SOL    HW298015   9.120   8.201  10.424
98726SOL     OW98016   1.122   3.210  13.108
98726SOL    HW198017   1.032   3.182  13.120
98726SOL    HW298018   1.134   3.215  13.013
98727SOL     OW98019   3.387   2.670  11.552
98727SOL    HW198020   3.444   2.746  11.566
98727SOL    HW298021   3.319   2.702  11.493
98728SOL     OW98022   7.690   9.778   1.864
98728SOL    HW198023   7.768   9.748   1.913
98728SOL    HW298024   7.720   9.857   1.819
98729SOL     OW98025   0.516   9.499  14.317
98729SOL    HW198026   0.459   9.559  14.365
98729SOL    HW298027   0.517   9.534  14.227
98730SOL     OW98028  13.692   2.580   2.998
98730SOL    HW198029  13.664   2.670   2.986
98730SOL    HW298030  13.786   2.586   3.017
98731SOL     OW98031   0.847   1.133   7.501
98731SOL    HW198032   0.909   1.139   7.428
98731SOL    HW298033   0.871   1.204   7.560
98732SOL     OW98034  14.781  12.101   1.899
98732SOL    HW198035  14.762  12.154   1.821
98732SOL    HW298036  14.770  12.162   1.972
98733SOL     OW98037   4.876   5.421   7.390
98733SOL    HW198038   4.839   5.481   7.454
98733SOL    HW298039   4.811   5.416   7.320
98734SOL     OW98040  11.662   4.559   4.744
98734SOL    HW198041  11.704   4.595   4.822
98734SOL    HW298042  11.735   4.527   4.690
98735SOL     OW98043   7.641   7.942  11.512
98735SOL    HW198044   7.651   8.035  11.535
98735SOL    HW298045   7.707   7.927  11.445
98736SOL     OW98046   7.463   6.451  11.223
98736SOL    HW198047   7.436   6.535  11.259
98736SOL    HW298048   7.496   6.471  11.136
98737SOL     OW98049   4.159  10.311   4.647
98737SOL    HW198050   4.119  10.283   4.729
98737SOL    HW298051   4.092  10.298   4.581
98738SOL     OW98052   2.461  11.526   1.364
98738SOL    HW198053   2.402  11.516   1.290
98738SOL    HW298054   2.447  11.447   1.417
98739SOL     OW98055  13.473   6.924   5.518
98739SOL    HW198056  13.534   6.892   5.451
98739SOL    HW298057  13.388   6.923   5.475
98740SOL     OW98058   9.366   1.244  14.695
98740SOL    HW198059   9.295   1.210  14.749
98740SOL    HW298060   9.349   1.338  14.689
98741SOL     OW98061   8.624   2.095   5.663
98741SOL    HW198062   8.684   2.022   5.678
98741SOL    HW298063   8.681   2.168   5.639
98742SOL     OW98064   5.368   5.186  14.067
98742SOL    HW198065   5.331   5.224  13.987
98742SOL    HW298066   5.327   5.236  14.138
98743SOL     OW98067   2.942   9.654   2.587
98743SOL    HW198068   2.961   9.616   2.501
98743SOL    HW298069   3.007   9.723   2.597
98744SOL     OW98070  14.803   1.799   8.606
98744SOL    HW198071  14.717   1.821   8.641
98744SOL    HW298072  14.835   1.881   8.568
98745SOL     OW98073  13.028   8.576   7.935
98745SOL    HW198074  12.996   8.634   7.866
98745SOL    HW298075  13.103   8.530   7.895
98746SOL     OW98076   1.156  13.307   2.587
98746SOL    HW198077   1.110  13.246   2.645
98746SOL    HW298078   1.235  13.259   2.561
98747SOL     OW98079  12.025   7.510   3.474
98747SOL    HW198080  12.076   7.458   3.412
98747SOL    HW298081  11.947   7.535   3.425
98748SOL     OW98082   3.552  11.839   1.499
98748SOL    HW198083   3.591  11.793   1.573
98748SOL    HW298084   3.470  11.792   1.483
98749SOL     OW98085   2.825  10.307  12.063
98749SOL    HW198086   2.836  10.305  12.158
98749SOL    HW298087   2.902  10.353  12.031
98750SOL     OW98088  10.532   1.873   1.712
98750SOL    HW198089  10.475   1.908   1.780
98750SOL    HW298090  10.511   1.924   1.634
98751SOL     OW98091   0.335   5.622   1.504
98751SOL    HW198092   0.414   5.653   1.459
98751SOL    HW298093   0.263   5.652   1.449
98752SOL     OW98094   1.686   7.827  14.356
98752SOL    HW198095   1.626   7.898  14.382
98752SOL    HW298096   1.647   7.790  14.277
98753SOL     OW98097  11.873  12.249  12.916
98753SOL    HW198098  11.951  12.194  12.914
98753SOL    HW298099  11.836  12.241  12.828
98754SOL     OW98100   6.367   3.520   5.746
98754SOL    HW198101   6.275   3.535   5.771
98754SOL    HW298102   6.416   3.579   5.803
98755SOL     OW98103   1.579   6.264  13.578
98755SOL    HW198104   1.592   6.334  13.641
98755SOL    HW298105   1.665   6.222  13.570
98756SOL     OW98106  14.149   3.852   5.743
98756SOL    HW198107  14.103   3.771   5.761
98756SOL    HW298108  14.093   3.920   5.780
98757SOL     OW98109  12.638   4.269   4.729
98757SOL    HW198110  12.710   4.284   4.789
98757SOL    HW298111  12.640   4.344   4.669
98758SOL     OW98112   2.861  10.713  11.649
98758SOL    HW198113   2.795  10.650  11.677
98758SOL    HW298114   2.919  10.664  11.592
98759SOL     OW98115  13.565  10.296   6.165
98759SOL    HW198116  13.536  10.216   6.120
98759SOL    HW298117  13.617  10.342   6.100
98760SOL     OW98118   9.790  11.603   3.318
98760SOL    HW198119   9.703  11.611   3.280
98760SOL    HW298120   9.786  11.523   3.370
98761SOL     OW98121  10.863   8.365   6.280
98761SOL    HW198122  10.841   8.307   6.207
98761SOL    HW298123  10.832   8.451   6.252
98762SOL     OW98124  14.186  12.341  11.136
98762SOL    HW198125  14.247  12.368  11.205
98762SOL    HW298126  14.236  12.280  11.083
98763SOL     OW98127   1.605   9.565   2.436
98763SOL    HW198128   1.613   9.528   2.348
98763SOL    HW298129   1.523   9.530   2.470
98764SOL     OW98130  14.791  10.105  12.116
98764SOL    HW198131  14.751  10.020  12.133
98764SOL    HW298132  14.718  10.166  12.114
98765SOL     OW98133  10.295  14.778   2.721
98765SOL    HW198134  10.361  14.848   2.720
98765SOL    HW298135  10.238  14.800   2.795
98766SOL     OW98136   2.488   9.440   4.751
98766SOL    HW198137   2.395   9.439   4.731
98766SOL    HW298138   2.504   9.356   4.794
98767SOL     OW98139   1.659   3.216  11.851
98767SOL    HW198140   1.723   3.229  11.781
98767SOL    HW298141   1.664   3.122  11.871
98768SOL     OW98142   3.871   5.118   3.023
98768SOL    HW198143   3.903   5.152   2.939
98768SOL    HW298144   3.780   5.093   3.006
98769SOL     OW98145   3.101   9.523   8.910
98769SOL    HW198146   3.038   9.595   8.901
98769SOL    HW298147   3.163   9.538   8.839
98770SOL     OW98148   5.507   5.652   5.945
98770SOL    HW198149   5.454   5.718   5.899
98770SOL    HW298150   5.447   5.579   5.957
98771SOL     OW98151   3.248   3.645  11.807
98771SOL    HW198152   3.162   3.663  11.769
98771SOL    HW298153   3.258   3.550  11.802
98772SOL     OW98154  11.566   0.330  14.006
98772SOL    HW198155  11.492   0.391  14.016
98772SOL    HW298156  11.524   0.246  13.985
98773SOL     OW98157   6.258   4.733  13.359
98773SOL    HW198158   6.186   4.708  13.300
98773SOL    HW298159   6.234   4.695  13.443
98774SOL     OW98160   0.726   4.092   1.019
98774SOL    HW198161   0.689   4.148   0.951
98774SOL    HW298162   0.813   4.069   0.987
98775SOL     OW98163   3.793   2.920   6.500
98775SOL    HW198164   3.736   2.997   6.499
98775SOL    HW298165   3.834   2.921   6.586
98776SOL     OW98166  13.653   8.201   1.148
98776SOL    HW198167  13.641   8.106   1.144
98776SOL    HW298168  13.724   8.219   1.087
98777SOL     OW98169  11.583  12.886  11.001
98777SOL    HW198170  11.533  12.879  11.082
98777SOL    HW298171  11.521  12.863  10.932
98778SOL     OW98172   1.514   2.306  10.054
98778SOL    HW198173   1.445   2.241  10.068
98778SOL    HW298174   1.525   2.347  10.140
98779SOL     OW98175   4.983   6.160  12.468
98779SOL    HW198176   4.980   6.246  12.511
98779SOL    HW298177   5.070   6.126  12.489
98780SOL     OW98178  11.949   1.366   3.180
98780SOL    HW198179  11.904   1.343   3.099
98780SOL    HW298180  11.896   1.327   3.249
98781SOL     OW98181  14.188   9.817  14.435
98781SOL    HW198182  14.123   9.777  14.377
98781SOL    HW298183  14.136   9.852  14.507
98782SOL     OW98184  12.089   1.815  12.870
98782SOL    HW198185  12.094   1.807  12.774
98782SOL    HW298186  12.155   1.882  12.891
98783SOL     OW98187   0.481   7.041  13.491
98783SOL    HW198188   0.500   7.027  13.584
98783SOL    HW298189   0.389   7.068  13.489
98784SOL     OW98190   6.465  12.870  10.567
98784SOL    HW198191   6.416  12.950  10.551
98784SOL    HW298192   6.556  12.899  10.577
98785SOL     OW98193   7.498  12.228  14.543
98785SOL    HW198194   7.495  12.273  14.627
98785SOL    HW298195   7.574  12.265  14.499
98786SOL     OW98196  10.592  14.589  11.577
98786SOL    HW198197  10.638  14.506  11.563
98786SOL    HW298198  10.603  14.607  11.670
98787SOL     OW98199   5.191  14.072   2.823
98787SOL    HW198200   5.175  14.046   2.914
98787SOL    HW298201   5.166  13.995   2.771
98788SOL     OW98202   3.920   6.409  13.003
98788SOL    HW198203   4.009   6.437  13.025
98788SOL    HW298204   3.910   6.324  13.047
98789SOL     OW98205  10.540   0.527   5.397
98789SOL    HW198206  10.584   0.582   5.332
98789SOL    HW298207  10.577   0.554   5.481
98790SOL     OW98208   7.269  11.953   5.389
98790SOL    HW198209   7.198  11.904   5.430
98790SOL    HW298210   7.230  12.039   5.371
98791SOL     OW98211   6.887  11.476   6.101
98791SOL    HW198212   6.800  11.474   6.059
98791SOL    HW298213   6.928  11.555   6.066
98792SOL     OW98214  14.187   2.938   9.512
98792SOL    HW198215  14.244   2.862   9.497
98792SOL    HW298216  14.240   2.997   9.564
98793SOL     OW98217  14.281   6.735   0.880
98793SOL    HW198218  14.319   6.686   0.954
98793SOL    HW298219  14.339   6.715   0.806
98794SOL     OW98220   3.541   3.915   6.128
98794SOL    HW198221   3.474   3.863   6.173
98794SOL    HW298222   3.624   3.880   6.159
98795SOL     OW98223   0.206   8.164  10.493
98795SOL    HW198224   0.191   8.258  10.502
98795SOL    HW298225   0.239   8.153  10.404
98796SOL     OW98226   5.026   2.139   3.009
98796SOL    HW198227   4.965   2.071   2.981
98796SOL    HW298228   5.112   2.097   3.008
98797SOL     OW98229   5.351   3.140   6.127
98797SOL    HW198230   5.304   3.176   6.202
98797SOL    HW298231   5.410   3.210   6.101
98798SOL     OW98232   3.884  14.417   3.524
98798SOL    HW198233   3.835  14.497   3.545
98798SOL    HW298234   3.836  14.348   3.569
98799SOL     OW98235  13.294   8.994   2.991
98799SOL    HW198236  13.357   9.037   3.048
98799SOL    HW298237  13.278   8.909   3.032
98800SOL     OW98238   5.865  12.335   9.204
98800SOL    HW198239   5.870  12.274   9.130
98800SOL    HW298240   5.861  12.421   9.163
98801SOL     OW98241   8.771   1.649  11.852
98801SOL    HW198242   8.706   1.659  11.922
98801SOL    HW298243   8.818   1.569  11.875
98802SOL     OW98244  13.529   2.937   5.703
98802SOL    HW198245  13.577   2.870   5.654
98802SOL    HW298246  13.444   2.897   5.722
98803SOL     OW98247   8.653   0.425   8.529
98803SOL    HW198248   8.739   0.387   8.508
98803SOL    HW298249   8.598   0.349   8.546
98804SOL     OW98250  13.113   4.385  12.465
98804SOL    HW198251  13.092   4.346  12.550
98804SOL    HW298252  13.147   4.472  12.487
98805SOL     OW98253   1.438   2.087  12.752
98805SOL    HW198254   1.387   2.014  12.788
98805SOL    HW298255   1.382   2.164  12.763
98806SOL     OW98256   7.189   2.948   6.633
98806SOL    HW198257   7.138   3.015   6.589
98806SOL    HW298258   7.171   2.867   6.585
98807SOL     OW98259   4.047   8.194   8.358
98807SOL    HW198260   3.966   8.214   8.405
98807SOL    HW298261   4.115   8.195   8.426
98808SOL     OW98262   1.941   2.937   9.102
98808SOL    HW198263   1.861   2.911   9.147
98808SOL    HW298264   1.991   2.855   9.093
98809SOL     OW98265   5.069  12.029  14.775
98809SOL    HW198266   5.017  11.949  14.773
98809SOL    HW298267   5.096  12.039  14.866
98810SOL     OW98268   6.061   1.750   7.180
98810SOL    HW198269   6.111   1.796   7.113
98810SOL    HW298270   5.983   1.803   7.193
98811SOL     OW98271  13.994   5.010   3.328
98811SOL    HW198272  13.905   5.011   3.291
98811SOL    HW298273  14.049   4.979   3.256
98812SOL     OW98274   9.138  12.862  11.981
98812SOL    HW198275   9.168  12.809  11.908
98812SOL    HW298276   9.148  12.953  11.952
98813SOL     OW98277  14.110  14.208   6.793
98813SOL    HW198278  14.114  14.140   6.861
98813SOL    HW298279  14.140  14.163   6.714
98814SOL     OW98280   3.762  11.677  12.053
98814SOL    HW198281   3.685  11.727  12.081
98814SOL    HW298282   3.727  11.604  12.002
98815SOL     OW98283   2.005   5.257  10.450
98815SOL    HW198284   2.057   5.263  10.370
98815SOL    HW298285   1.914   5.256  10.420
98816SOL     OW98286  10.304   7.826  12.927
98816SOL    HW198287  10.293   7.735  12.954
98816SOL    HW298288  10.265   7.829  12.839
98817SOL     OW98289  11.070  12.237  12.315
98817SOL    HW198290  11.062  12.323  12.275
98817SOL    HW298291  11.050  12.251  12.407
98818SOL     OW98292   9.912   2.813   9.243
98818SOL    HW198293   9.888   2.803   9.335
98818SOL    HW298294   9.829   2.828   9.198
98819SOL     OW98295  10.935   8.677   1.392
98819SOL    HW198296  10.901   8.699   1.478
98819SOL    HW298297  10.927   8.758   1.341
98820SOL     OW98298   2.977   8.865   9.004
98820SOL    HW198299   3.069   8.889   9.014
98820SOL    HW298300   2.929   8.947   9.015
98821SOL     OW98301   8.686   6.217  12.984
98821SOL    HW198302   8.725   6.303  12.966
98821SOL    HW298303   8.594   6.226  12.959
98822SOL     OW98304   0.136   3.341   3.718
98822SOL    HW198305   0.144   3.426   3.675
98822SOL    HW298306   0.066   3.297   3.670
98823SOL     OW98307   3.117   6.705  11.494
98823SOL    HW198308   3.039   6.717  11.441
98823SOL    HW298309   3.187   6.687  11.431
98824SOL     OW98310   7.965   0.104   3.735
98824SOL    HW198311   7.941   0.093   3.827
98824SOL    HW298312   7.906   0.045   3.688
98825SOL     OW98313  14.650  14.479   7.948
98825SOL    HW198314  14.649  14.525   8.032
98825SOL    HW298315  14.620  14.545   7.885
98826SOL     OW98316  11.049  14.337   0.419
98826SOL    HW198317  11.144  14.347   0.432
98826SOL    HW298318  11.030  14.248   0.449
98827SOL     OW98319  14.031   5.237  14.086
98827SOL    HW198320  13.969   5.306  14.063
98827SOL    HW298321  14.018   5.223  14.180
98828SOL     OW98322  12.402  10.737   5.262
98828SOL    HW198323  12.343  10.764   5.332
98828SOL    HW298324  12.443  10.819   5.232
98829SOL     OW98325  13.256  13.502   0.581
98829SOL    HW198326  13.307  13.425   0.606
98829SOL    HW298327  13.180  13.467   0.535
98830SOL     OW98328  10.144   3.966   9.976
98830SOL    HW198329  10.091   4.032   9.932
98830SOL    HW298330  10.125   3.978  10.069
98831SOL     OW98331  12.154   3.794   8.729
98831SOL    HW198332  12.074   3.742   8.723
98831SOL    HW298333  12.223   3.729   8.739
98832SOL     OW98334   5.491   7.864   6.878
98832SOL    HW198335   5.504   7.770   6.866
98832SOL    HW298336   5.411   7.870   6.930
98833SOL     OW98337  10.196   1.157  10.161
98833SOL    HW198338  10.106   1.137  10.189
98833SOL    HW298339  10.226   1.077  10.118
98834SOL     OW98340   1.469   9.506  10.893
98834SOL    HW198341   1.377   9.491  10.913
98834SOL    HW298342   1.497   9.428  10.846
98835SOL     OW98343  12.035   5.793   3.673
98835SOL    HW198344  12.043   5.704   3.641
98835SOL    HW298345  12.059   5.788   3.765
98836SOL     OW98346   0.051   0.074   8.378
98836SOL    HW198347   0.077   0.165   8.366
98836SOL    HW298348   0.103   0.025   8.314
98837SOL     OW98349  13.241   3.704  13.168
98837SOL    HW198350  13.228   3.700  13.074
98837SOL    HW298351  13.184   3.636  13.204
98838SOL     OW98352   9.062   0.190   8.655
98838SOL    HW198353   9.126   0.246   8.700
98838SOL    HW298354   9.080   0.102   8.688
98839SOL     OW98355   0.868  14.438   9.589
98839SOL    HW198356   0.831  14.357   9.553
98839SOL    HW298357   0.793  14.482   9.629
98840SOL     OW98358  14.415  10.420   8.195
98840SOL    HW198359  14.452  10.352   8.252
98840SOL    HW298360  14.324  10.395   8.184
98841SOL     OW98361  12.227   2.474   7.758
98841SOL    HW198362  12.316   2.455   7.730
98841SOL    HW298363  12.222   2.442   7.848
98842SOL     OW98364   7.886  13.037   6.297
98842SOL    HW198365   7.841  12.993   6.370
98842SOL    HW298366   7.979  13.018   6.312
98843SOL     OW98367  13.351  12.696   8.482
98843SOL    HW198368  13.287  12.644   8.531
98843SOL    HW298369  13.367  12.645   8.403
98844SOL     OW98370   0.391   0.945   7.446
98844SOL    HW198371   0.484   0.964   7.430
98844SOL    HW298372   0.390   0.900   7.530
98845SOL     OW98373   5.209  10.505   1.907
98845SOL    HW198374   5.216  10.411   1.925
98845SOL    HW298375   5.149  10.512   1.833
98846SOL     OW98376   6.108   0.424   5.784
98846SOL    HW198377   6.072   0.406   5.698
98846SOL    HW298378   6.140   0.339   5.815
98847SOL     OW98379   6.191   6.885  10.817
98847SOL    HW198380   6.115   6.891  10.874
98847SOL    HW298381   6.171   6.944  10.744
98848SOL     OW98382   7.898  12.908   5.431
98848SOL    HW198383   7.982  12.955   5.428
98848SOL    HW298384   7.868  12.919   5.521
98849SOL     OW98385  13.264   4.919  12.289
98849SOL    HW198386  13.337   4.857  12.287
98849SOL    HW298387  13.281   4.979  12.216
98850SOL     OW98388   0.040   8.648  12.719
98850SOL    HW198389   0.100   8.643  12.644
98850SOL    HW298390   0.035   8.558  12.752
98851SOL     OW98391   9.766   7.292  11.842
98851SOL    HW198392   9.729   7.377  11.815
98851SOL    HW298393   9.739   7.282  11.933
98852SOL     OW98394   2.405   1.868   6.189
98852SOL    HW198395   2.460   1.790   6.182
98852SOL    HW298396   2.351   1.867   6.109
98853SOL     OW98397   2.044   0.927  11.660
98853SOL    HW198398   1.950   0.936  11.643
98853SOL    HW298399   2.061   0.989  11.732
98854SOL     OW98400  13.994   7.885   8.594
98854SOL    HW198401  14.014   7.858   8.683
98854SOL    HW298402  13.936   7.816   8.560
98855SOL     OW98403  12.328  14.177  10.932
98855SOL    HW198404  12.298  14.092  10.966
98855SOL    HW298405  12.375  14.217  11.005
98856SOL     OW98406  14.588   4.857  13.937
98856SOL    HW198407  14.639   4.792  13.888
98856SOL    HW298408  14.563   4.812  14.017
98857SOL     OW98409  10.509  11.863   9.322
98857SOL    HW198410  10.486  11.950   9.354
98857SOL    HW298411  10.527  11.812   9.401
98858SOL     OW98412  10.967   6.572   9.878
98858SOL    HW198413  10.932   6.571   9.788
98858SOL    HW298414  11.027   6.497   9.881
98859SOL     OW98415   3.898   2.552   0.546
98859SOL    HW198416   3.850   2.486   0.496
98859SOL    HW298417   3.942   2.605   0.481
98860SOL     OW98418   7.372   1.845   7.185
98860SOL    HW198419   7.290   1.839   7.235
98860SOL    HW298420   7.344   1.844   7.093
98861SOL     OW98421  13.125   9.083   8.667
98861SOL    HW198422  13.154   9.046   8.750
98861SOL    HW298423  13.190   9.053   8.603
98862SOL     OW98424  12.112   0.336   4.124
98862SOL    HW198425  12.196   0.305   4.156
98862SOL    HW298426  12.060   0.257   4.111
98863SOL     OW98427   5.509   6.360  13.593
98863SOL    HW198428   5.533   6.274  13.627
98863SOL    HW298429   5.421   6.376  13.628
98864SOL     OW98430   2.656  10.396   3.300
98864SOL    HW198431   2.708  10.327   3.342
98864SOL    HW298432   2.720  10.457   3.265
98865SOL     OW98433   4.912  11.841   6.090
98865SOL    HW198434   5.004  11.817   6.088
98865SOL    HW298435   4.868  11.772   6.041
98866SOL     OW98436  12.121   6.932   9.392
98866SOL    HW198437  12.180   6.911   9.464
98866SOL    HW298438  12.046   6.974   9.435
98867SOL     OW98439   3.261  13.318   8.629
98867SOL    HW198440   3.245  13.409   8.602
98867SOL    HW298441   3.209  13.307   8.709
98868SOL     OW98442  12.550   4.609   4.208
98868SOL    HW198443  12.620   4.674   4.211
98868SOL    HW298444  12.595   4.525   4.214
98869SOL     OW98445  10.441  11.712   3.472
98869SOL    HW198446  10.478  11.800   3.483
98869SOL    HW298447  10.346  11.727   3.470
98870SOL     OW98448  13.571   3.777  11.096
98870SOL    HW198449  13.487   3.819  11.080
98870SOL    HW298450  13.629   3.847  11.127
98871SOL     OW98451   4.040  13.012  12.033
98871SOL    HW198452   4.079  12.927  12.013
98871SOL    HW298453   3.965  13.019  11.974
98872SOL     OW98454  13.324   8.846   9.299
98872SOL    HW198455  13.338   8.752   9.306
98872SOL    HW298456  13.401   8.879   9.252
98873SOL     OW98457  10.616   5.557  14.860
98873SOL    HW198458  10.602   5.571  14.766
98873SOL    HW298459  10.614   5.645   0.018
98874SOL     OW98460   5.908  14.293  13.056
98874SOL    HW198461   5.923  14.354  13.129
98874SOL    HW298462   5.909  14.348  12.978
98875SOL     OW98463   5.104  11.265   8.846
98875SOL    HW198464   5.059  11.335   8.892
98875SOL    HW298465   5.193  11.298   8.833
98876SOL     OW98466  10.353  13.171   4.414
98876SOL    HW198467  10.426  13.139   4.467
98876SOL    HW298468  10.296  13.216   4.476
98877SOL     OW98469   4.776  14.298   3.161
98877SOL    HW198470   4.822  14.252   3.231
98877SOL    HW298471   4.841  14.358   3.125
98878SOL     OW98472  13.634   4.993  12.903
98878SOL    HW198473  13.672   4.957  12.983
98878SOL    HW298474  13.699   4.974  12.835
98879SOL     OW98475  10.609  12.028   4.457
98879SOL    HW198476  10.534  11.970   4.441
98879SOL    HW298477  10.631  12.063   4.371
98880SOL     OW98478   3.999   0.559   0.325
98880SOL    HW198479   4.074   0.617   0.336
98880SOL    HW298480   4.021   0.481   0.376
98881SOL     OW98481   9.974   3.792   6.150
98881SOL    HW198482  10.065   3.809   6.128
98881SOL    HW298483   9.953   3.858   6.216
98882SOL     OW98484   5.992   6.620  10.700
98882SOL    HW198485   5.988   6.702  10.650
98882SOL    HW298486   5.918   6.625  10.760
98883SOL     OW98487   8.289   3.942  11.507
98883SOL    HW198488   8.250   3.878  11.566
98883SOL    HW298489   8.216   3.972  11.453
98884SOL     OW98490   5.178   0.280  11.515
98884SOL    HW198491   5.257   0.322  11.550
98884SOL    HW298492   5.121   0.272  11.592
98885SOL     OW98493   1.963   3.008  10.505
98885SOL    HW198494   1.928   2.934  10.455
98885SOL    HW298495   2.048   2.977  10.538
98886SOL     OW98496   3.591  10.567   3.515
98886SOL    HW198497   3.565  10.648   3.559
98886SOL    HW298498   3.513  10.541   3.465
98887SOL     OW98499  14.475  13.032  14.730
98887SOL    HW198500  14.425  13.069  14.803
98887SOL    HW298501  14.452  12.939  14.729
98888SOL     OW98502   2.528   2.850  11.117
98888SOL    HW198503   2.511   2.783  11.050
98888SOL    HW298504   2.597   2.905  11.080
98889SOL     OW98505   4.958   0.558  10.300
98889SOL    HW198506   5.030   0.542  10.362
98889SOL    HW298507   4.999   0.605  10.227
98890SOL     OW98508   6.323   4.197   8.235
98890SOL    HW198509   6.399   4.228   8.285
98890SOL    HW298510   6.347   4.209   8.144
98891SOL     OW98511   7.329   3.844   0.121
98891SOL    HW198512   7.375   3.925   0.100
98891SOL    HW298513   7.392   3.792   0.170
98892SOL     OW98514   2.724  12.879   5.108
98892SOL    HW198515   2.771  12.796   5.114
98892SOL    HW298516   2.696  12.885   5.017
98893SOL     OW98517   3.543   6.480   9.166
98893SOL    HW198518   3.490   6.400   9.172
98893SOL    HW298519   3.524   6.513   9.078
98894SOL     OW98520   7.705   5.033  11.980
98894SOL    HW198521   7.634   5.003  11.923
98894SOL    HW298522   7.723   4.959  12.038
98895SOL     OW98523   8.694  11.147   3.638
98895SOL    HW198524   8.756  11.100   3.692
98895SOL    HW298525   8.674  11.226   3.687
98896SOL     OW98526  12.147  12.078   1.656
98896SOL    HW198527  12.241  12.082   1.675
98896SOL    HW298528  12.129  12.159   1.609
98897SOL     OW98529  11.563  12.613  14.751
98897SOL    HW198530  11.511  12.693  14.758
98897SOL    HW298531  11.497  12.543  14.743
98898SOL     OW98532   1.354  14.002   3.958
98898SOL    HW198533   1.340  14.024   3.865
98898SOL    HW298534   1.424  14.061   3.986
98899SOL     OW98535   2.380   8.965  10.696
98899SOL    HW198536   2.472   8.964  10.723
98899SOL    HW298537   2.336   9.020  10.761
98900SOL     OW98538   8.331   0.323   4.401
98900SOL    HW198539   8.263   0.362   4.456
98900SOL    HW298540   8.409   0.376   4.417
98901SOL     OW98541  11.437   7.388  11.936
98901SOL    HW198542  11.378   7.346  11.999
98901SOL    HW298543  11.406   7.359  11.851
98902SOL     OW98544   0.993  10.751   7.315
98902SOL    HW198545   0.984  10.794   7.401
98902SOL    HW298546   0.920  10.689   7.311
98903SOL     OW98547  14.037  12.463  10.428
98903SOL    HW198548  14.084  12.388  10.392
98903SOL    HW298549  14.062  12.536  10.371
98904SOL     OW98550   2.273   9.062  10.951
98904SOL    HW198551   2.354   9.036  10.996
98904SOL    HW298552   2.250   9.147  10.989
98905SOL     OW98553  11.017   8.139  13.288
98905SOL    HW198554  10.989   8.068  13.230
98905SOL    HW298555  10.969   8.123  13.370
98906SOL     OW98556  11.106   8.850   6.640
98906SOL    HW198557  11.012   8.831   6.641
98906SOL    HW298558  11.118   8.903   6.561
98907SOL     OW98559   7.939  13.442  11.118
98907SOL    HW198560   8.032  13.449  11.096
98907SOL    HW298561   7.901  13.526  11.093
98908SOL     OW98562   4.551  10.067   3.130
98908SOL    HW198563   4.547   9.975   3.106
98908SOL    HW298564   4.590  10.068   3.217
98909SOL     OW98565   4.322   8.780   5.705
98909SOL    HW198566   4.264   8.706   5.686
98909SOL    HW298567   4.375   8.750   5.779
98910SOL     OW98568   6.245   0.910   5.990
98910SOL    HW198569   6.236   0.842   5.923
98910SOL    HW298570   6.195   0.878   6.064
98911SOL     OW98571  11.819   3.467   8.514
98911SOL    HW198572  11.753   3.452   8.447
98911SOL    HW298573  11.898   3.490   8.464
98912SOL     OW98574   9.174  11.286   4.310
98912SOL    HW198575   9.240  11.300   4.241
98912SOL    HW298576   9.119  11.364   4.306
98913SOL     OW98577  13.240  13.188   7.100
98913SOL    HW198578  13.312  13.139   7.060
98913SOL    HW298579  13.249  13.172   7.194
98914SOL     OW98580  13.946  10.686  12.556
98914SOL    HW198581  13.931  10.718  12.645
98914SOL    HW298582  14.029  10.639  12.562
98915SOL     OW98583   6.036  13.097   2.758
98915SOL    HW198584   6.042  13.138   2.672
98915SOL    HW298585   6.073  13.009   2.746
98916SOL     OW98586  14.786   6.910   8.320
98916SOL    HW198587  14.861   6.900   8.261
98916SOL    HW298588  14.753   6.998   8.302
98917SOL     OW98589   5.422   0.497   5.931
98917SOL    HW198590   5.488   0.475   5.996
98917SOL    HW298591   5.339   0.497   5.980
98918SOL     OW98592  12.453   8.756  12.245
98918SOL    HW198593  12.527   8.753  12.185
98918SOL    HW298594  12.376   8.740  12.190
98919SOL     OW98595  10.748  11.393   9.826
98919SOL    HW198596  10.827  11.351   9.792
98919SOL    HW298597  10.760  11.486   9.808
98920SOL     OW98598   9.474  12.085   9.255
98920SOL    HW198599   9.487  12.055   9.166
98920SOL    HW298600   9.478  12.005   9.308
98921SOL     OW98601  10.383  14.247   3.056
98921SOL    HW198602  10.478  14.257   3.052
98921SOL    HW298603  10.358  14.287   3.140
98922SOL     OW98604   8.728  10.533  13.796
98922SOL    HW198605   8.727  10.628  13.784
98922SOL    HW298606   8.789  10.501  13.730
98923SOL     OW98607   1.054  13.101   2.736
98923SOL    HW198608   1.041  13.006   2.743
98923SOL    HW298609   1.106  13.123   2.813
98924SOL     OW98610   9.971  12.974   3.778
98924SOL    HW198611   9.896  13.003   3.727
98924SOL    HW298612  10.040  13.038   3.758
98925SOL     OW98613   4.307   6.159  12.708
98925SOL    HW198614   4.212   6.150  12.708
98925SOL    HW298615   4.327   6.199  12.793
98926SOL     OW98616  10.137   8.057   4.153
98926SOL    HW198617  10.132   8.012   4.237
98926SOL    HW298618  10.096   8.141   4.168
98927SOL     OW98619   9.604   2.075   3.687
98927SOL    HW198620   9.638   2.007   3.746
98927SOL    HW298621   9.623   2.157   3.732
98928SOL     OW98622  13.905   5.291  13.006
98928SOL    HW198623  13.925   5.298  13.099
98928SOL    HW298624  13.956   5.216  12.976
98929SOL     OW98625  12.488   7.476  11.364
98929SOL    HW198626  12.407   7.472  11.314
98929SOL    HW298627  12.473   7.418  11.439
98930SOL     OW98628   6.170   7.743  11.633
98930SOL    HW198629   6.236   7.778  11.693
98930SOL    HW298630   6.126   7.675  11.683
98931SOL     OW98631   3.595  13.440  11.656
98931SOL    HW198632   3.590  13.355  11.699
98931SOL    HW298633   3.650  13.425  11.579
98932SOL     OW98634   9.961   1.334   1.501
98932SOL    HW198635   9.975   1.418   1.543
98932SOL    HW298636   9.950   1.272   1.573
98933SOL     OW98637  13.086  14.676  10.934
98933SOL    HW198638  13.007  14.639  10.973
98933SOL    HW298639  13.059  14.705  10.846
98934SOL     OW98640   5.617   3.381   7.619
98934SOL    HW198641   5.635   3.403   7.710
98934SOL    HW298642   5.695   3.411   7.571
98935SOL     OW98643   2.370   0.216   5.327
98935SOL    HW198644   2.305   0.286   5.332
98935SOL    HW298645   2.443   0.254   5.278
98936SOL     OW98646   6.331   7.733   2.308
98936SOL    HW198647   6.254   7.786   2.328
98936SOL    HW298648   6.389   7.792   2.261
98937SOL     OW98649  12.508  10.872  10.220
98937SOL    HW198650  12.447  10.803  10.191
98937SOL    HW298651  12.452  10.949  10.232
98938SOL     OW98652   1.727   9.180   3.591
98938SOL    HW198653   1.757   9.154   3.678
98938SOL    HW298654   1.748   9.273   3.584
98939SOL     OW98655   6.493   9.187   9.456
98939SOL    HW198656   6.437   9.225   9.388
98939SOL    HW298657   6.443   9.114   9.490
98940SOL     OW98658   5.494   7.904   8.448
98940SOL    HW198659   5.436   7.924   8.522
98940SOL    HW298660   5.582   7.908   8.485
98941SOL     OW98661   1.429  10.758   7.482
98941SOL    HW198662   1.426  10.674   7.436
98941SOL    HW298663   1.506  10.751   7.538
98942SOL     OW98664  12.127   4.767  10.505
98942SOL    HW198665  12.118   4.791  10.597
98942SOL    HW298666  12.216   4.735  10.497
98943SOL     OW98667   7.733   1.488  13.085
98943SOL    HW198668   7.802   1.498  13.151
98943SOL    HW298669   7.654   1.519  13.127
98944SOL     OW98670   4.476  10.835   3.921
98944SOL    HW198671   4.437  10.761   3.876
98944SOL    HW298672   4.536  10.874   3.857
98945SOL     OW98673   1.278   1.625  13.418
98945SOL    HW198674   1.310   1.715  13.408
98945SOL    HW298675   1.275   1.612  13.513
98946SOL     OW98676  12.700   8.985   0.628
98946SOL    HW198677  12.789   8.955   0.645
98946SOL    HW298678  12.706   9.080   0.624
98947SOL     OW98679  12.064  12.042  11.606
98947SOL    HW198680  12.037  12.074  11.692
98947SOL    HW298681  12.152  12.076  11.594
98948SOL     OW98682   0.459   5.479   2.455
98948SOL    HW198683   0.429   5.468   2.546
98948SOL    HW298684   0.549   5.509   2.463
98949SOL     OW98685   7.050   6.388   5.041
98949SOL    HW198686   7.017   6.319   4.984
98949SOL    HW298687   7.133   6.354   5.074
98950SOL     OW98688  11.674   7.675  11.263
98950SOL    HW198689  11.762   7.660  11.298
98950SOL    HW298690  11.685   7.747  11.200
98951SOL     OW98691   8.296   4.590   9.892
98951SOL    HW198692   8.348   4.590   9.811
98951SOL    HW298693   8.289   4.498   9.916
98952SOL     OW98694   3.678   2.255   9.209
98952SOL    HW198695   3.741   2.282   9.142
98952SOL    HW298696   3.731   2.246   9.288
98953SOL     OW98697   4.518   1.382  14.614
98953SOL    HW198698   4.573   1.393  14.537
98953SOL    HW298699   4.567   1.323  14.671
98954SOL     OW98700   5.578   9.705  11.941
98954SOL    HW198701   5.542   9.794  11.945
98954SOL    HW298702   5.641   9.708  11.869
98955SOL     OW98703  12.263   8.040   5.957
98955SOL    HW198704  12.294   7.990   5.882
98955SOL    HW298705  12.319   8.012   6.029
98956SOL     OW98706   7.901  12.245  10.595
98956SOL    HW198707   7.958  12.315  10.628
98956SOL    HW298708   7.828  12.242  10.656
98957SOL     OW98709  14.168   6.082  14.691
98957SOL    HW198710  14.113   6.132  14.631
98957SOL    HW298711  14.252   6.074  14.646
98958SOL     OW98712   3.687   8.102   5.398
98958SOL    HW198713   3.735   8.184   5.407
98958SOL    HW298714   3.605   8.127   5.356
98959SOL     OW98715   6.065  10.193   3.183
98959SOL    HW198716   6.133  10.252   3.151
98959SOL    HW298717   5.998  10.251   3.221
98960SOL     OW98718   6.373   1.560  10.301
98960SOL    HW198719   6.430   1.631  10.330
98960SOL    HW298720   6.387   1.555  10.206
98961SOL     OW98721  14.119  14.579   0.223
98961SOL    HW198722  14.026  14.563   0.238
98961SOL    HW298723  14.121  14.664   0.178
98962SOL     OW98724   6.015   3.004  13.339
98962SOL    HW198725   6.047   3.041  13.421
98962SOL    HW298726   5.964   3.073  13.298
98963SOL     OW98727  11.188  13.200  14.699
98963SOL    HW198728  11.110  13.240  14.661
98963SOL    HW298729  11.181  13.219  14.793
98964SOL     OW98730  10.248  14.176  12.575
98964SOL    HW198731  10.192  14.133  12.639
98964SOL    HW298732  10.337  14.150  12.599
98965SOL     OW98733  12.748   4.428   6.450
98965SOL    HW198734  12.733   4.440   6.356
98965SOL    HW298735  12.777   4.514   6.481
98966SOL     OW98736   1.228   4.033  12.784
98966SOL    HW198737   1.271   3.948  12.782
98966SOL    HW298738   1.289   4.091  12.830
98967SOL     OW98739  13.031   6.654   9.063
98967SOL    HW198740  13.118   6.672   9.027
98967SOL    HW298741  12.982   6.735   9.047
98968SOL     OW98742   1.022   5.512  12.343
98968SOL    HW198743   0.948   5.508  12.283
98968SOL    HW298744   1.078   5.581  12.308
98969SOL     OW98745   0.082  10.346   6.793
98969SOL    HW198746   0.064  10.281   6.861
98969SOL    HW298747   0.144  10.407   6.833
98970SOL     OW98748  13.911  13.459   4.278
98970SOL    HW198749  13.957  13.535   4.313
98970SOL    HW298750  13.878  13.488   4.193
98971SOL     OW98751   4.422  12.659   1.281
98971SOL    HW198752   4.498  12.616   1.320
98971SOL    HW298753   4.347  12.611   1.317
98972SOL     OW98754  14.173   6.238   1.565
98972SOL    HW198755  14.165   6.149   1.598
98972SOL    HW298756  14.263   6.243   1.533
98973SOL     OW98757   3.361   1.697   9.648
98973SOL    HW198758   3.408   1.632   9.596
98973SOL    HW298759   3.269   1.671   9.643
98974SOL     OW98760   3.184  13.355  10.142
98974SOL    HW198761   3.116  13.387  10.083
98974SOL    HW298762   3.166  13.400  10.225
98975SOL     OW98763  14.073  12.362   6.451
98975SOL    HW198764  13.989  12.335   6.488
98975SOL    HW298765  14.050  12.404   6.368
98976SOL     OW98766   5.868   7.892   4.447
98976SOL    HW198767   5.855   7.798   4.458
98976SOL    HW298768   5.826   7.931   4.525
98977SOL     OW98769   1.495  10.159  11.759
98977SOL    HW198770   1.579  10.119  11.734
98977SOL    HW298771   1.462  10.197  11.679
98978SOL     OW98772   9.315  10.567   4.722
98978SOL    HW198773   9.263  10.621   4.781
98978SOL    HW298774   9.353  10.630   4.660
98979SOL     OW98775   7.128   3.063  13.933
98979SOL    HW198776   7.152   3.154  13.955
98979SOL    HW298777   7.050   3.046  13.986
98980SOL     OW98778  11.318  10.708   0.717
98980SOL    HW198779  11.386  10.768   0.686
98980SOL    HW298780  11.305  10.646   0.645
98981SOL     OW98781   9.740   5.658   6.437
98981SOL    HW198782   9.774   5.600   6.506
98981SOL    HW298783   9.759   5.746   6.469
98982SOL     OW98784   2.044   4.697  13.633
98982SOL    HW198785   2.087   4.782  13.621
98982SOL    HW298786   1.974   4.714  13.695
98983SOL     OW98787   7.586   9.121   1.997
98983SOL    HW198788   7.633   9.134   1.915
98983SOL    HW298789   7.507   9.073   1.972
98984SOL     OW98790   5.303  14.581   4.237
98984SOL    HW198791   5.274  14.501   4.280
98984SOL    HW298792   5.371  14.552   4.176
98985SOL     OW98793   0.296  14.068   2.426
98985SOL    HW198794   0.325  14.071   2.335
98985SOL    HW298795   0.222  14.129   2.429
98986SOL     OW98796  10.193  11.541  12.853
98986SOL    HW198797  10.130  11.471  12.838
98986SOL    HW298798  10.214  11.573  12.765
98987SOL     OW98799   6.772   1.535  12.925
98987SOL    HW198800   6.734   1.514  12.840
98987SOL    HW298801   6.734   1.620  12.948
98988SOL     OW98802   6.254  13.506   5.171
98988SOL    HW198803   6.320  13.460   5.119
98988SOL    HW298804   6.175  13.451   5.164
98989SOL     OW98805   4.125   6.229  11.659
98989SOL    HW198806   4.059   6.167  11.628
98989SOL    HW298807   4.203   6.209  11.608
98990SOL     OW98808   1.719   0.858   6.999
98990SOL    HW198809   1.736   0.937   7.049
98990SOL    HW298810   1.691   0.889   6.913
98991SOL     OW98811   0.367   7.442  14.040
98991SOL    HW198812   0.425   7.421  14.114
98991SOL    HW298813   0.283   7.462  14.080
98992SOL     OW98814   4.517   0.301  14.172
98992SOL    HW198815   4.472   0.295  14.087
98992SOL    HW298816   4.447   0.302  14.237
98993SOL     OW98817   3.101  14.117   2.200
98993SOL    HW198818   3.059  14.200   2.180
98993SOL    HW298819   3.134  14.128   2.290
98994SOL     OW98820  11.009  12.019   5.305
98994SOL    HW198821  11.011  12.112   5.327
98994SOL    HW298822  10.953  12.014   5.228
98995SOL     OW98823   4.005   9.265  12.224
98995SOL    HW198824   3.938   9.291  12.161
98995SOL    HW298825   4.002   9.169  12.223
98996SOL     OW98826   2.193   1.290   1.881
98996SOL    HW198827   2.134   1.254   1.947
98996SOL    HW298828   2.139   1.303   1.804
98997SOL     OW98829   0.106   1.984   5.502
98997SOL    HW198830   0.188   1.937   5.485
98997SOL    HW298831   0.058   1.979   5.420
98998SOL     OW98832   5.846  14.205   6.236
98998SOL    HW198833   5.882  14.293   6.232
98998SOL    HW298834   5.908  14.156   6.290
98999SOL     OW98835   9.970   2.917   5.464
98999SOL    HW198836   9.961   2.890   5.372
98999SOL    HW298837  10.062   2.901   5.485
99000SOL     OW98838   3.778   5.604   5.934
99000SOL    HW198839   3.684   5.598   5.947
99000SOL    HW298840   3.803   5.516   5.905
99001SOL     OW98841   4.346   9.465   8.002
99001SOL    HW198842   4.259   9.502   7.987
99001SOL    HW298843   4.395   9.484   7.921
99002SOL     OW98844   8.634   3.686  13.823
99002SOL    HW198845   8.687   3.757  13.786
99002SOL    HW298846   8.562   3.675  13.760
99003SOL     OW98847   2.009   4.066  14.542
99003SOL    HW198848   2.094   4.110  14.547
99003SOL    HW298849   1.976   4.087  14.455
99004SOL     OW98850   3.039   6.667   6.530
99004SOL    HW198851   3.097   6.683   6.456
99004SOL    HW298852   3.075   6.589   6.573
99005SOL     OW98853  12.103  11.094  11.546
99005SOL    HW198854  12.047  11.030  11.589
99005SOL    HW298855  12.192  11.063  11.562
99006SOL     OW98856   5.173   0.868   3.775
99006SOL    HW198857   5.245   0.844   3.717
99006SOL    HW298858   5.192   0.959   3.800
99007SOL     OW98859  12.073  14.108   2.408
99007SOL    HW198860  12.110  14.192   2.382
99007SOL    HW298861  12.144  14.063   2.454
99008SOL     OW98862   4.005  12.455   1.185
99008SOL    HW198863   3.995  12.548   1.166
99008SOL    HW298864   3.954  12.411   1.117
99009SOL     OW98865   1.513   4.137  11.882
99009SOL    HW198866   1.602   4.167  11.899
99009SOL    HW298867   1.475   4.204  11.825
99010SOL     OW98868  11.951   8.026   1.029
99010SOL    HW198869  11.878   7.966   1.014
99010SOL    HW298870  12.019   7.996   0.969
99011SOL     OW98871   3.782  10.418  12.048
99011SOL    HW198872   3.833  10.490  12.086
99011SOL    HW298873   3.841  10.342  12.053
99012SOL     OW98874   3.958   6.403   1.159
99012SOL    HW198875   3.883   6.364   1.114
99012SOL    HW298876   3.930   6.412   1.250
99013SOL     OW98877  13.702  12.376   2.246
99013SOL    HW198878  13.684  12.444   2.181
99013SOL    HW298879  13.735  12.424   2.322
99014SOL     OW98880  13.116   4.972   8.519
99014SOL    HW198881  13.204   4.967   8.481
99014SOL    HW298882  13.111   4.895   8.576
99015SOL     OW98883  12.479  13.942   3.005
99015SOL    HW198884  12.488  14.036   3.022
99015SOL    HW298885  12.385  13.926   3.011
99016SOL     OW98886   3.662   8.820   8.901
99016SOL    HW198887   3.602   8.844   8.831
99016SOL    HW298888   3.731   8.770   8.858
99017SOL     OW98889  11.913  12.996   0.123
99017SOL    HW198890  11.876  12.929   0.066
99017SOL    HW298891  11.866  13.076   0.101
99018SOL     OW98892   8.955   0.481   2.569
99018SOL    HW198893   9.006   0.555   2.537
99018SOL    HW298894   8.864   0.513   2.571
99019SOL     OW98895   8.862  11.617   5.597
99019SOL    HW198896   8.898  11.577   5.517
99019SOL    HW298897   8.821  11.544   5.643
99020SOL     OW98898   0.981  10.790   5.975
99020SOL    HW198899   1.049  10.844   5.938
99020SOL    HW298900   0.900  10.838   5.959
99021SOL     OW98901   2.080  13.188   8.114
99021SOL    HW198902   2.016  13.120   8.138
99021SOL    HW298903   2.114  13.160   8.030
99022SOL     OW98904  14.290   3.422   0.555
99022SOL    HW198905  14.305   3.338   0.598
99022SOL    HW298906  14.365   3.432   0.495
99023SOL     OW98907  10.196   4.370   3.831
99023SOL    HW198908  10.142   4.435   3.877
99023SOL    HW298909  10.163   4.374   3.740
99024SOL     OW98910  10.638   2.668   7.304
99024SOL    HW198911  10.656   2.583   7.345
99024SOL    HW298912  10.571   2.648   7.239
99025SOL     OW98913  12.013   0.831   8.905
99025SOL    HW198914  11.974   0.911   8.940
99025SOL    HW298915  12.103   0.832   8.938
99026SOL     OW98916   8.333   4.461  13.980
99026SOL    HW198917   8.422   4.482  13.951
99026SOL    HW298918   8.282   4.540  13.958
99027SOL     OW98919   7.402   6.568  11.728
99027SOL    HW198920   7.340   6.499  11.708
99027SOL    HW298921   7.484   6.540  11.688
99028SOL     OW98922   9.447   6.065   5.760
99028SOL    HW198923   9.536   6.035   5.744
99028SOL    HW298924   9.398   5.984   5.779
99029SOL     OW98925   6.359  10.196  10.566
99029SOL    HW198926   6.303  10.241  10.503
99029SOL    HW298927   6.373  10.109  10.527
99030SOL     OW98928   8.840   6.467  12.936
99030SOL    HW198929   8.908   6.430  12.993
99030SOL    HW298930   8.801   6.537  12.988
99031SOL     OW98931   9.784  10.032  12.791
99031SOL    HW198932   9.749   9.949  12.824
99031SOL    HW298933   9.791  10.019  12.696
99032SOL     OW98934  12.097   5.589   5.420
99032SOL    HW198935  12.146   5.648   5.477
99032SOL    HW298936  12.034   5.646   5.375
99033SOL     OW98937   5.490   9.713   2.626
99033SOL    HW198938   5.441   9.647   2.577
99033SOL    HW298939   5.425   9.780   2.647
99034SOL     OW98940   6.920   1.662   0.970
99034SOL    HW198941   6.902   1.717   1.046
99034SOL    HW298942   6.990   1.604   0.999
99035SOL     OW98943  12.415   7.847   8.254
99035SOL    HW198944  12.477   7.847   8.328
99035SOL    HW298945  12.460   7.896   8.185
99036SOL     OW98946  14.289   9.529   3.231
99036SOL    HW198947  14.238   9.519   3.311
99036SOL    HW298948  14.375   9.561   3.260
99037SOL     OW98949  11.563   6.563   7.416
99037SOL    HW198950  11.575   6.529   7.327
99037SOL    HW298951  11.513   6.644   7.404
99038SOL     OW98952   3.630  11.853   2.245
99038SOL    HW198953   3.612  11.889   2.158
99038SOL    HW298954   3.607  11.760   2.238
99039SOL     OW98955  12.396  13.192   7.403
99039SOL    HW198956  12.348  13.233   7.331
99039SOL    HW298957  12.346  13.213   7.481
99040SOL     OW98958   5.118  14.120   7.183
99040SOL    HW198959   5.090  14.212   7.184
99040SOL    HW298960   5.181  14.113   7.256
99041SOL     OW98961  13.136   6.944   9.943
99041SOL    HW198962  13.198   7.007   9.909
99041SOL    HW298963  13.121   6.972  10.034
99042SOL     OW98964   6.488   2.942   9.569
99042SOL    HW198965   6.393   2.942   9.583
99042SOL    HW298966   6.524   2.912   9.652
99043SOL     OW98967  12.188  11.796   7.772
99043SOL    HW198968  12.111  11.796   7.827
99043SOL    HW298969  12.217  11.887   7.770
99044SOL     OW98970   3.455  11.032  14.167
99044SOL    HW198971   3.430  11.027  14.074
99044SOL    HW298972   3.498  10.948  14.184
99045SOL     OW98973  14.511   2.638   2.050
99045SOL    HW198974  14.536   2.645   1.958
99045SOL    HW298975  14.574   2.576   2.087
99046SOL     OW98976   8.061   4.407   9.336
99046SOL    HW198977   8.082   4.381   9.246
99046SOL    HW298978   8.135   4.461   9.364
99047SOL     OW98979   1.320   5.326   3.228
99047SOL    HW198980   1.297   5.248   3.279
99047SOL    HW298981   1.373   5.292   3.156
99048SOL     OW98982  13.893   1.723   0.987
99048SOL    HW198983  13.956   1.679   1.043
99048SOL    HW298984  13.880   1.662   0.914
99049SOL     OW98985   8.262  14.666   4.813
99049SOL    HW198986   8.172  14.635   4.821
99049SOL    HW298987   8.285  14.699   4.900
99050SOL     OW98988   4.503  13.411   9.359
99050SOL    HW198989   4.492  13.361   9.440
99050SOL    HW298990   4.581  13.464   9.375
99051SOL     OW98991   0.561   2.210  11.582
99051SOL    HW198992   0.547   2.201  11.488
99051SOL    HW298993   0.474   2.204  11.621
99052SOL     OW98994   6.554   4.201   9.844
99052SOL    HW198995   6.616   4.241   9.783
99052SOL    HW298996   6.539   4.269   9.910
99053SOL     OW98997   5.224  14.231   0.387
99053SOL    HW198998   5.222  14.323   0.362
99053SOL    HW298999   5.147  14.193   0.344
99054SOL     OW99000   5.820   8.001  13.500
99054SOL    HW199001   5.850   7.949  13.575
99054SOL    HW299002   5.840   8.092  13.524
99055SOL     OW99003  12.781  11.963   7.449
99055SOL    HW199004  12.791  11.942   7.356
99055SOL    HW299005  12.835  12.040   7.463
99056SOL     OW99006   7.355   4.406   4.896
99056SOL    HW199007   7.402   4.346   4.839
99056SOL    HW299008   7.262   4.386   4.882
99057SOL     OW99009   3.388   0.506  11.018
99057SOL    HW199010   3.343   0.458  11.088
99057SOL    HW299011   3.400   0.594  11.053
99058SOL     OW99012   9.302   1.965   6.288
99058SOL    HW199013   9.386   1.922   6.302
99058SOL    HW299014   9.281   1.948   6.196
99059SOL     OW99015  12.578   0.931   4.819
99059SOL    HW199016  12.629   0.975   4.886
99059SOL    HW299017  12.522   1.000   4.783
99060SOL     OW99018  10.758   8.840  10.778
99060SOL    HW199019  10.828   8.901  10.801
99060SOL    HW299020  10.698   8.842  10.854
99061SOL     OW99021   8.413   7.502  13.326
99061SOL    HW199022   8.462   7.566  13.378
99061SOL    HW299023   8.476   7.469  13.262
99062SOL     OW99024  10.354   5.004  10.209
99062SOL    HW199025  10.305   5.011  10.128
99062SOL    HW299026  10.445   5.017  10.183
99063SOL     OW99027   1.436  10.218   9.989
99063SOL    HW199028   1.450  10.289  10.052
99063SOL    HW299029   1.466  10.139  10.034
99064SOL     OW99030   1.662   8.053   2.779
99064SOL    HW199031   1.627   8.059   2.868
99064SOL    HW299032   1.669   7.959   2.763
99065SOL     OW99033  10.417   5.384   6.346
99065SOL    HW199034  10.424   5.476   6.371
99065SOL    HW299035  10.345   5.382   6.282
99066SOL     OW99036  12.794  13.279   1.901
99066SOL    HW199037  12.888  13.291   1.916
99066SOL    HW299038  12.766  13.221   1.973
99067SOL     OW99039  10.473   3.704  14.755
99067SOL    HW199040  10.395   3.729  14.805
99067SOL    HW299041  10.441   3.688  14.666
99068SOL     OW99042   0.693  13.405   1.265
99068SOL    HW199043   0.763  13.413   1.329
99068SOL    HW299044   0.613  13.401   1.317
99069SOL     OW99045  14.379   3.583  12.979
99069SOL    HW199046  14.284   3.582  12.986
99069SOL    HW299047  14.399   3.667  12.937
99070SOL     OW99048  10.959   6.869  13.993
99070SOL    HW199049  11.045   6.903  14.016
99070SOL    HW299050  10.918   6.939  13.943
99071SOL     OW99051  10.681   9.066  13.968
99071SOL    HW199052  10.655   8.977  13.990
99071SOL    HW299053  10.764   9.057  13.923
99072SOL     OW99054  10.571  14.121   2.038
99072SOL    HW199055  10.547  14.158   2.123
99072SOL    HW299056  10.522  14.040   2.032
99073SOL     OW99057  12.432  13.436   1.065
99073SOL    HW199058  12.474  13.505   1.116
99073SOL    HW299059  12.496  13.416   0.996
99074SOL     OW99060   0.314  12.135   8.340
99074SOL    HW199061   0.244  12.105   8.282
99074SOL    HW299062   0.295  12.094   8.424
99075SOL     OW99063   6.119  11.833  12.084
99075SOL    HW199064   6.063  11.777  12.030
99075SOL    HW299065   6.206  11.825  12.043
99076SOL     OW99066  13.288   4.395   7.059
99076SOL    HW199067  13.344   4.333   7.012
99076SOL    HW299068  13.221   4.341   7.100
99077SOL     OW99069  12.396  12.017   3.850
99077SOL    HW199070  12.349  11.933   3.847
99077SOL    HW299071  12.420  12.033   3.758
99078SOL     OW99072   4.897   5.728   5.509
99078SOL    HW199073   4.885   5.821   5.529
99078SOL    HW299074   4.810   5.698   5.483
99079SOL     OW99075  12.216  11.352   0.578
99079SOL    HW199076  12.297  11.333   0.530
99079SOL    HW299077  12.178  11.266   0.596
99080SOL     OW99078   4.958  11.369   4.975
99080SOL    HW199079   4.936  11.462   4.976
99080SOL    HW299080   4.906  11.331   5.045
99081SOL     OW99081   6.712  10.797  11.986
99081SOL    HW199082   6.780  10.734  12.008
99081SOL    HW299083   6.658  10.802  12.064
99082SOL     OW99084   3.632   3.672   3.271
99082SOL    HW199085   3.680   3.742   3.227
99082SOL    HW299086   3.549   3.712   3.296
99083SOL     OW99087   8.677  11.696   4.050
99083SOL    HW199088   8.611  11.651   4.103
99083SOL    HW299089   8.636  11.707   3.964
99084SOL     OW99090   5.377   8.466  14.733
99084SOL    HW199091   5.311   8.419  14.682
99084SOL    HW299092   5.446   8.401  14.749
99085SOL     OW99093   9.897  14.807  10.994
99085SOL    HW199094   9.961  14.794  11.065
99085SOL    HW299095   9.843  14.729  10.997
99086SOL     OW99096  14.126   6.557  10.726
99086SOL    HW199097  14.035   6.540  10.703
99086SOL    HW299098  14.157   6.476  10.765
99087SOL     OW99099   4.606   1.053  11.570
99087SOL    HW199100   4.676   0.989  11.559
99087SOL    HW299101   4.612   1.110  11.493
99088SOL     OW99102   1.083  12.540   9.067
99088SOL    HW199103   1.150  12.472   9.075
99088SOL    HW299104   1.114  12.611   9.122
99089SOL     OW99105  11.488   5.928   3.694
99089SOL    HW199106  11.505   5.834   3.705
99089SOL    HW299107  11.488   5.940   3.599
99090SOL     OW99108  11.122  14.829   6.847
99090SOL    HW199109  11.120  14.837   6.751
99090SOL    HW299110  11.035  14.858   6.875
99091SOL     OW99111   2.944   8.213   6.511
99091SOL    HW199112   2.951   8.298   6.469
99091SOL    HW299113   3.023   8.166   6.484
99092SOL     OW99114  14.390  12.470   3.472
99092SOL    HW199115  14.460  12.515   3.424
99092SOL    HW299116  14.313  12.481   3.416
99093SOL     OW99117   0.049   7.718  12.169
99093SOL    HW199118   0.010   7.643  12.124
99093SOL    HW299119   0.143   7.708  12.153
99094SOL     OW99120  12.968  12.336  10.918
99094SOL    HW199121  13.062  12.341  10.900
99094SOL    HW299122  12.945  12.245  10.898
99095SOL     OW99123   4.388   3.666  11.994
99095SOL    HW199124   4.422   3.695  12.078
99095SOL    HW299125   4.451   3.699  11.930
99096SOL     OW99126  11.577  11.346   7.089
99096SOL    HW199127  11.546  11.430   7.054
99096SOL    HW299128  11.529  11.280   7.040
99097SOL     OW99129   7.673   7.819   4.697
99097SOL    HW199130   7.656   7.821   4.791
99097SOL    HW299131   7.618   7.889   4.661
99098SOL     OW99132   9.655   7.821  11.564
99098SOL    HW199133   9.573   7.791  11.525
99098SOL    HW299134   9.635   7.829  11.657
99099SOL     OW99135   5.259   3.464   2.165
99099SOL    HW199136   5.316   3.391   2.191
99099SOL    HW299137   5.171   3.434   2.185
99100SOL     OW99138  14.628   3.267  14.410
99100SOL    HW199139  14.684   3.263  14.332
99100SOL    HW299140  14.609   3.175  14.430
99101SOL     OW99141   3.327   8.680  13.305
99101SOL    HW199142   3.275   8.738  13.361
99101SOL    HW299143   3.301   8.592  13.331
99102SOL     OW99144   4.310   4.023   4.385
99102SOL    HW199145   4.359   4.035   4.303
99102SOL    HW299146   4.330   4.101   4.436
99103SOL     OW99147   8.236   3.084   1.482
99103SOL    HW199148   8.196   3.154   1.533
99103SOL    HW299149   8.228   3.006   1.537
99104SOL     OW99150  11.999   5.823   1.113
99104SOL    HW199151  11.959   5.910   1.117
99104SOL    HW299152  12.058   5.820   1.189
99105SOL     OW99153   5.703  12.341   4.196
99105SOL    HW199154   5.743  12.355   4.110
99105SOL    HW299155   5.638  12.272   4.181
99106SOL     OW99156   6.457   4.944  11.525
99106SOL    HW199157   6.521   5.003  11.564
99106SOL    HW299158   6.459   4.964  11.432
99107SOL     OW99159  13.831  13.806   2.193
99107SOL    HW199160  13.823  13.736   2.128
99107SOL    HW299161  13.924  13.831   2.190
99108SOL     OW99162   5.719   9.996  13.257
99108SOL    HW199163   5.718  10.004  13.352
99108SOL    HW299164   5.794   9.939  13.239
99109SOL     OW99165   9.424  13.088  13.563
99109SOL    HW199166   9.433  13.152  13.492
99109SOL    HW299167   9.355  13.122  13.619
99110SOL     OW99168   0.457   9.692   1.539
99110SOL    HW199169   0.405   9.627   1.584
99110SOL    HW299170   0.421   9.776   1.567
99111SOL     OW99171  12.286  11.408   7.806
99111SOL    HW199172  12.222  11.400   7.736
99111SOL    HW299173  12.246  11.364   7.881
99112SOL     OW99174  13.430   6.302   9.550
99112SOL    HW199175  13.480   6.292   9.469
99112SOL    HW299176  13.469   6.378   9.593
99113SOL     OW99177   9.561   8.985   6.131
99113SOL    HW199178   9.585   9.047   6.062
99113SOL    HW299179   9.466   8.975   6.123
99114SOL     OW99180   6.150   4.599  13.588
99114SOL    HW199181   6.064   4.593  13.546
99114SOL    HW299182   6.133   4.643  13.671
99115SOL     OW99183   3.419   7.418   2.588
99115SOL    HW199184   3.479   7.419   2.514
99115SOL    HW299185   3.402   7.325   2.604
99116SOL     OW99186   6.700  14.574   0.320
99116SOL    HW199187   6.783  14.532   0.299
99116SOL    HW299188   6.706  14.594   0.413
99117SOL     OW99189   0.864  13.291  10.211
99117SOL    HW199190   0.793  13.287  10.275
99117SOL    HW299191   0.820  13.316  10.129
99118SOL     OW99192   6.126   3.023   1.092
99118SOL    HW199193   6.170   3.106   1.072
99118SOL    HW299194   6.148   3.006   1.183
99119SOL     OW99195   8.060   1.545   5.171
99119SOL    HW199196   7.967   1.534   5.153
99119SOL    HW299197   8.101   1.550   5.085
99120SOL     OW99198  11.689  13.892   7.839
99120SOL    HW199199  11.667  13.961   7.777
99120SOL    HW299200  11.608  13.876   7.888
99121SOL     OW99201   9.084  11.415  12.559
99121SOL    HW199202   9.138  11.359  12.502
99121SOL    HW299203   9.095  11.503  12.522
99122SOL     OW99204  11.316  13.988   3.997
99122SOL    HW199205  11.250  13.987   3.928
99122SOL    HW299206  11.286  13.923   4.060
99123SOL     OW99207  10.481  13.065   0.544
99123SOL    HW199208  10.509  13.029   0.629
99123SOL    HW299209  10.406  13.121   0.565
99124SOL     OW99210  14.803   7.122  14.153
99124SOL    HW199211  14.876   7.066  14.127
99124SOL    HW299212  14.787   7.179  14.078
99125SOL     OW99213   4.437   3.775   8.033
99125SOL    HW199214   4.483   3.834   8.093
99125SOL    HW299215   4.394   3.711   8.090
99126SOL     OW99216   7.821   9.680  11.570
99126SOL    HW199217   7.808   9.715  11.658
99126SOL    HW299218   7.771   9.738  11.513
99127SOL     OW99219   0.980   2.537   8.499
99127SOL    HW199220   0.942   2.500   8.579
99127SOL    HW299221   1.075   2.523   8.510
99128SOL     OW99222   1.929  12.818  10.552
99128SOL    HW199223   1.972  12.887  10.501
99128SOL    HW299224   1.847  12.857  10.581
99129SOL     OW99225  11.492  10.877   0.614
99129SOL    HW199226  11.573  10.861   0.664
99129SOL    HW299227  11.522  10.890   0.524
99130SOL     OW99228   2.316   0.852   3.399
99130SOL    HW199229   2.302   0.786   3.467
99130SOL    HW299230   2.369   0.808   3.333
99131SOL     OW99231   9.375   8.428   7.260
99131SOL    HW199232   9.305   8.425   7.196
99131SOL    HW299233   9.455   8.437   7.208
99132SOL     OW99234   8.602   6.524   3.449
99132SOL    HW199235   8.558   6.580   3.514
99132SOL    HW299236   8.692   6.557   3.447
99133SOL     OW99237   3.031  13.547  10.284
99133SOL    HW199238   3.063  13.635  10.303
99133SOL    HW299239   2.953  13.560  10.231
99134SOL     OW99240   7.514   4.273   9.046
99134SOL    HW199241   7.597   4.258   9.001
99134SOL    HW299242   7.447   4.263   8.978
99135SOL     OW99243  11.712  12.869  12.096
99135SOL    HW199244  11.721  12.813  12.173
99135SOL    HW299245  11.757  12.950  12.119
99136SOL     OW99246   0.423   6.190  13.664
99136SOL    HW199247   0.343   6.233  13.633
99136SOL    HW299248   0.479   6.262  13.692
99137SOL     OW99249  11.575  12.364   8.503
99137SOL    HW199250  11.523  12.284   8.503
99137SOL    HW299251  11.630  12.357   8.581
99138SOL     OW99252   4.540   8.591  12.582
99138SOL    HW199253   4.526   8.525  12.513
99138SOL    HW299254   4.614   8.643  12.550
99139SOL     OW99255   0.842   9.767  11.289
99139SOL    HW199256   0.798   9.683  11.302
99139SOL    HW299257   0.916   9.765  11.350
99140SOL     OW99258  12.619   5.411   0.554
99140SOL    HW199259  12.682   5.442   0.489
99140SOL    HW299260  12.633   5.316   0.558
99141SOL     OW99261   8.981   2.127   1.831
99141SOL    HW199262   8.973   2.077   1.912
99141SOL    HW299263   8.894   2.122   1.792
99142SOL     OW99264  12.688   6.983  11.287
99142SOL    HW199265  12.768   6.931  11.279
99142SOL    HW299266  12.622   6.934  11.238
99143SOL     OW99267   4.557  14.693   4.796
99143SOL    HW199268   4.503  14.688   4.875
99143SOL    HW299269   4.645  14.670   4.827
99144SOL     OW99270  10.080   2.392  14.029
99144SOL    HW199271   9.989   2.364  14.043
99144SOL    HW299272  10.096   2.378  13.936
99145SOL     OW99273   5.057   5.536   0.412
99145SOL    HW199274   5.144   5.576   0.404
99145SOL    HW299275   5.073   5.450   0.451
99146SOL     OW99276   9.959  13.647   0.928
99146SOL    HW199277   9.908  13.648   1.009
99146SOL    HW299278   9.907  13.595   0.867
99147SOL     OW99279   7.969  14.168  10.752
99147SOL    HW199280   7.905  14.227  10.792
99147SOL    HW299281   7.916  14.104  10.704
99148SOL     OW99282  12.014   3.923   6.719
99148SOL    HW199283  11.981   3.995   6.665
99148SOL    HW299284  11.983   3.943   6.807
99149SOL     OW99285   8.200   4.975   5.669
99149SOL    HW199286   8.126   4.949   5.613
99149SOL    HW299287   8.162   4.980   5.757
99150SOL     OW99288   2.973  14.148   5.895
99150SOL    HW199289   2.909  14.081   5.919
99150SOL    HW299290   2.921  14.226   5.876
99151SOL     OW99291  13.417   0.468   5.032
99151SOL    HW199292  13.510   0.448   5.038
99151SOL    HW299293  13.381   0.439   5.116
99152SOL     OW99294  11.535  14.567   9.918
99152SOL    HW199295  11.628  14.579   9.938
99152SOL    HW299296  11.529  14.582   9.823
99153SOL     OW99297  12.125  13.351   1.653
99153SOL    HW199298  12.145  13.285   1.586
99153SOL    HW299299  12.175  13.428   1.626
99154SOL     OW99300   5.062  13.953   4.909
99154SOL    HW199301   5.157  13.951   4.921
99154SOL    HW299302   5.037  13.861   4.901
99155SOL     OW99303  14.770   8.284   0.528
99155SOL    HW199304  14.825   8.353   0.564
99155SOL    HW299305  14.681   8.319   0.532
99156SOL     OW99306   0.894  11.432   2.009
99156SOL    HW199307   0.977  11.415   2.053
99156SOL    HW299308   0.890  11.528   2.002
99157SOL     OW99309   6.620  11.297   3.900
99157SOL    HW199310   6.529  11.286   3.927
99157SOL    HW299311   6.645  11.213   3.862
99158SOL     OW99312  13.399   3.263  10.921
99158SOL    HW199313  13.467   3.332  10.918
99158SOL    HW299314  13.381   3.252  11.014
99159SOL     OW99315  10.219  14.097   4.061
99159SOL    HW199316  10.156  14.089   4.132
99159SOL    HW299317  10.252  14.008   4.048
99160SOL     OW99318  12.134   1.013   4.102
99160SOL    HW199319  12.107   0.933   4.147
99160SOL    HW299320  12.157   1.074   4.172
99161SOL     OW99321  14.875   9.347   2.891
99161SOL    HW199322   0.082   9.386   2.880
99161SOL    HW299323  14.841   9.339   2.802
99162SOL     OW99324   0.977  12.376   0.649
99162SOL    HW199325   0.908  12.313   0.631
99162SOL    HW299326   1.058  12.324   0.648
99163SOL     OW99327   1.569   3.986   2.791
99163SOL    HW199328   1.518   4.045   2.847
99163SOL    HW299329   1.503   3.933   2.748
99164SOL     OW99330   8.906   5.763  11.473
99164SOL    HW199331   8.970   5.830  11.448
99164SOL    HW299332   8.852   5.806  11.539
99165SOL     OW99333  11.058   0.082   1.510
99165SOL    HW199334  11.095   0.167   1.536
99165SOL    HW299335  10.978   0.104   1.462
99166SOL     OW99336  11.172   4.430   3.307
99166SOL    HW199337  11.112   4.503   3.288
99166SOL    HW299338  11.118   4.366   3.352
99167SOL     OW99339  13.328   1.159   3.356
99167SOL    HW199340  13.317   1.117   3.441
99167SOL    HW299341  13.379   1.097   3.304
99168SOL     OW99342   3.240   6.934  12.496
99168SOL    HW199343   3.321   6.896  12.531
99168SOL    HW299344   3.258   7.028  12.492
99169SOL     OW99345  13.920   9.326  12.301
99169SOL    HW199346  14.010   9.315  12.334
99169SOL    HW299347  13.917   9.272  12.223
99170SOL     OW99348   3.409   2.895   3.924
99170SOL    HW199349   3.359   2.815   3.943
99170SOL    HW299350   3.495   2.880   3.963
99171SOL     OW99351   4.406  12.920   9.078
99171SOL    HW199352   4.371  12.943   8.992
99171SOL    HW299353   4.484  12.975   9.087
99172SOL     OW99354   5.720   7.904   3.728
99172SOL    HW199355   5.656   7.971   3.750
99172SOL    HW299356   5.762   7.936   3.648
99173SOL     OW99357   5.361   3.121   4.995
99173SOL    HW199358   5.453   3.139   5.015
99173SOL    HW299359   5.363   3.059   4.923
99174SOL     OW99360  11.263   9.828   9.680
99174SOL    HW199361  11.265   9.782   9.596
99174SOL    HW299362  11.210   9.773   9.737
99175SOL     OW99363  11.830   1.054   9.601
99175SOL    HW199364  11.907   1.023   9.553
99175SOL    HW299365  11.859   1.137   9.640
99176SOL     OW99366   3.159   4.922   3.313
99176SOL    HW199367   3.104   4.937   3.236
99176SOL    HW299368   3.212   4.845   3.291
99177SOL     OW99369   1.720   2.063   5.139
99177SOL    HW199370   1.656   2.044   5.207
99177SOL    HW299371   1.805   2.043   5.178
99178SOL     OW99372  11.888   6.673  11.660
99178SOL    HW199373  11.807   6.716  11.632
99178SOL    HW299374  11.958   6.722  11.617
99179SOL     OW99375   4.510   7.051  12.917
99179SOL    HW199376   4.431   7.071  12.966
99179SOL    HW299377   4.482   7.050  12.825
99180SOL     OW99378   9.395  11.130  14.587
99180SOL    HW199379   9.481  11.097  14.561
99180SOL    HW299380   9.361  11.174  14.509
99181SOL     OW99381   1.492  11.133   8.368
99181SOL    HW199382   1.426  11.136   8.437
99181SOL    HW299383   1.537  11.217   8.374
99182SOL     OW99384  11.564  12.499   3.098
99182SOL    HW199385  11.623  12.441   3.146
99182SOL    HW299386  11.553  12.575   3.155
99183SOL     OW99387   8.750   4.084  10.435
99183SOL    HW199388   8.685   4.131  10.382
99183SOL    HW299389   8.738   3.992  10.410
99184SOL     OW99390   2.611   4.642   1.104
99184SOL    HW199391   2.584   4.658   1.195
99184SOL    HW299392   2.654   4.723   1.077
99185SOL     OW99393   2.431  10.063  12.537
99185SOL    HW199394   2.426   9.970  12.515
99185SOL    HW299395   2.344  10.084  12.573
99186SOL     OW99396   8.707   3.251   5.807
99186SOL    HW199397   8.628   3.270   5.858
99186SOL    HW299398   8.779   3.283   5.861
99187SOL     OW99399   6.305  14.254   6.963
99187SOL    HW199400   6.380  14.214   6.919
99187SOL    HW299401   6.262  14.306   6.895
99188SOL     OW99402  10.286   4.850  12.865
99188SOL    HW199403  10.329   4.772  12.901
99188SOL    HW299404  10.196   4.846  12.897
99189SOL     OW99405  12.212  12.403   9.614
99189SOL    HW199406  12.120  12.429   9.614
99189SOL    HW299407  12.258  12.477   9.652
99190SOL     OW99408  10.091   5.106   7.353
99190SOL    HW199409   9.998   5.096   7.373
99190SOL    HW299410  10.131   5.023   7.380
99191SOL     OW99411  12.173   5.484   1.007
99191SOL    HW199412  12.088   5.441   1.018
99191SOL    HW299413  12.182   5.495   0.912
99192SOL     OW99414  13.610   5.837  10.514
99192SOL    HW199415  13.601   5.904  10.582
99192SOL    HW299416  13.596   5.754  10.560
99193SOL     OW99417   4.239   4.829   7.743
99193SOL    HW199418   4.245   4.889   7.818
99193SOL    HW299419   4.227   4.742   7.783
99194SOL     OW99420   5.597   7.245  11.554
99194SOL    HW199421   5.604   7.163  11.505
99194SOL    HW299422   5.659   7.235  11.626
99195SOL     OW99423   6.430  14.339   2.796
99195SOL    HW199424   6.346  14.318   2.836
99195SOL    HW299425   6.487  14.266   2.819
99196SOL     OW99426  14.709   9.136   3.273
99196SOL    HW199427  14.621   9.170   3.259
99196SOL    HW299428  14.712   9.053   3.226
99197SOL     OW99429   8.521   4.168   7.722
99197SOL    HW199430   8.517   4.079   7.757
99197SOL    HW299431   8.508   4.224   7.798
99198SOL     OW99432   4.090  11.253   8.090
99198SOL    HW199433   4.164  11.280   8.144
99198SOL    HW299434   4.115  11.167   8.055
99199SOL     OW99435  13.770  13.332  10.843
99199SOL    HW199436  13.786  13.425  10.855
99199SOL    HW299437  13.687  13.328  10.794
99200SOL     OW99438  12.283  10.823   2.684
99200SOL    HW199439  12.235  10.841   2.765
99200SOL    HW299440  12.375  10.815   2.711
99201SOL     OW99441   1.714  12.511   1.070
99201SOL    HW199442   1.717  12.585   1.131
99201SOL    HW299443   1.627  12.473   1.084
99202SOL     OW99444  14.525   8.565   2.142
99202SOL    HW199445  14.450   8.524   2.185
99202SOL    HW299446  14.560   8.496   2.085
99203SOL     OW99447  11.283  10.978  14.352
99203SOL    HW199448  11.350  10.913  14.372
99203SOL    HW299449  11.332  11.059  14.336
99204SOL     OW99450   1.035   0.734  11.544
99204SOL    HW199451   1.030   0.683  11.464
99204SOL    HW299452   0.994   0.817  11.523
99205SOL     OW99453   0.329  11.445   7.258
99205SOL    HW199454   0.352  11.410   7.172
99205SOL    HW299455   0.367  11.533   7.259
99206SOL     OW99456   2.772  12.137  14.838
99206SOL    HW199457   2.792  12.060  14.784
99206SOL    HW299458   2.689  12.115   0.001
99207SOL     OW99459   1.561   3.025   4.796
99207SOL    HW199460   1.607   3.090   4.743
99207SOL    HW299461   1.620   2.949   4.795
99208SOL     OW99462   4.712   6.136   3.837
99208SOL    HW199463   4.752   6.196   3.773
99208SOL    HW299464   4.726   6.049   3.800
99209SOL     OW99465   5.998   6.240  11.139
99209SOL    HW199466   5.974   6.306  11.074
99209SOL    HW299467   5.920   6.231  11.194
99210SOL     OW99468  14.330   3.309  10.063
99210SOL    HW199469  14.269   3.372  10.025
99210SOL    HW299470  14.274   3.240  10.100
99211SOL     OW99471   0.549  13.992   4.129
99211SOL    HW199472   0.469  14.017   4.176
99211SOL    HW299473   0.543  13.897   4.121
99212SOL     OW99474   6.610   7.130   6.653
99212SOL    HW199475   6.702   7.149   6.636
99212SOL    HW299476   6.570   7.215   6.672
99213SOL     OW99477   8.850   4.838  11.260
99213SOL    HW199478   8.824   4.921  11.221
99213SOL    HW299479   8.939   4.853  11.293
99214SOL     OW99480  12.168   6.264   7.264
99214SOL    HW199481  12.138   6.201   7.330
99214SOL    HW299482  12.255   6.289   7.294
99215SOL     OW99483   0.790   6.614   6.280
99215SOL    HW199484   0.781   6.592   6.187
99215SOL    HW299485   0.760   6.705   6.285
99216SOL     OW99486  11.826  11.729   7.616
99216SOL    HW199487  11.828  11.810   7.566
99216SOL    HW299488  11.857  11.662   7.555
99217SOL     OW99489   7.021   2.260   5.700
99217SOL    HW199490   7.034   2.176   5.743
99217SOL    HW299491   6.975   2.238   5.618
99218SOL     OW99492   6.445  13.076  12.809
99218SOL    HW199493   6.390  13.051  12.735
99218SOL    HW299494   6.534  13.078  12.773
99219SOL     OW99495  11.021   0.205   3.299
99219SOL    HW199496  11.019   0.172   3.210
99219SOL    HW299497  10.961   0.149   3.348
99220SOL     OW99498   6.318   9.967  10.424
99220SOL    HW199499   6.250   9.901  10.439
99220SOL    HW299500   6.326   9.972  10.329
99221SOL     OW99501   7.830   1.548  10.416
99221SOL    HW199502   7.812   1.538  10.510
99221SOL    HW299503   7.892   1.477  10.397
99222SOL     OW99504  13.517   1.260   5.173
99222SOL    HW199505  13.425   1.275   5.150
99222SOL    HW299506  13.563   1.260   5.090
99223SOL     OW99507   6.557   1.043   0.346
99223SOL    HW199508   6.611   1.014   0.419
99223SOL    HW299509   6.541   1.135   0.363
99224SOL     OW99510   7.608   1.857   0.916
99224SOL    HW199511   7.646   1.890   0.997
99224SOL    HW299512   7.594   1.764   0.932
99225SOL     OW99513   1.396  12.021  14.532
99225SOL    HW199514   1.371  12.010  14.623
99225SOL    HW299515   1.474  11.966  14.522
99226SOL     OW99516   8.669  10.879   3.449
99226SOL    HW199517   8.697  10.890   3.540
99226SOL    HW299518   8.626  10.961   3.426
99227SOL     OW99519  12.405  14.716  10.613
99227SOL    HW199520  12.405  14.741  10.705
99227SOL    HW299521  12.333  14.653  10.605
99228SOL     OW99522  13.563   5.009   4.159
99228SOL    HW199523  13.620   4.966   4.223
99228SOL    HW299524  13.595   5.099   4.154
99229SOL     OW99525   9.098   0.571  13.690
99229SOL    HW199526   9.081   0.479  13.714
99229SOL    HW299527   9.112   0.615  13.774
99230SOL     OW99528   1.212   1.285  12.587
99230SOL    HW199529   1.169   1.369  12.574
99230SOL    HW299530   1.293   1.305  12.634
99231SOL     OW99531  11.133   5.397  12.194
99231SOL    HW199532  11.102   5.427  12.279
99231SOL    HW299533  11.165   5.475  12.150
99232SOL     OW99534   9.684  12.092  14.429
99232SOL    HW199535   9.594  12.061  14.418
99232SOL    HW299536   9.730  12.020  14.471
99233SOL     OW99537   3.576  11.436   3.753
99233SOL    HW199538   3.601  11.350   3.786
99233SOL    HW299539   3.529  11.418   3.671
99234SOL     OW99540   6.869  13.277  14.343
99234SOL    HW199541   6.796  13.325  14.304
99234SOL    HW299542   6.943  13.294  14.284
99235SOL     OW99543  13.598   3.404  12.375
99235SOL    HW199544  13.529   3.349  12.412
99235SOL    HW299545  13.552   3.482  12.344
99236SOL     OW99546  13.884   6.054   5.269
99236SOL    HW199547  13.946   6.127   5.270
99236SOL    HW299548  13.826   6.073   5.195
99237SOL     OW99549   9.795  11.892  12.637
99237SOL    HW199550   9.793  11.928  12.548
99237SOL    HW299551   9.879  11.847  12.643
99238SOL     OW99552   6.331   1.522   4.468
99238SOL    HW199553   6.270   1.584   4.427
99238SOL    HW299554   6.280   1.482   4.538
99239SOL     OW99555  14.304   3.614   7.044
99239SOL    HW199556  14.342   3.702   7.050
99239SOL    HW299557  14.219   3.627   7.003
99240SOL     OW99558   5.766   2.864  11.778
99240SOL    HW199559   5.718   2.796  11.826
99240SOL    HW299560   5.852   2.867  11.821
99241SOL     OW99561   8.790   8.775   0.186
99241SOL    HW199562   8.731   8.724   0.241
99241SOL    HW299563   8.869   8.721   0.179
99242SOL     OW99564   6.841  10.088   4.785
99242SOL    HW199565   6.799  10.081   4.700
99242SOL    HW299566   6.854  10.182   4.797
99243SOL     OW99567   5.421  12.819   7.983
99243SOL    HW199568   5.496  12.860   8.026
99243SOL    HW299569   5.356  12.889   7.976
99244SOL     OW99570   9.646  12.463  10.965
99244SOL    HW199571   9.555  12.432  10.964
99244SOL    HW299572   9.694  12.396  11.014
99245SOL     OW99573  14.498   0.176   7.450
99245SOL    HW199574  14.441   0.101   7.471
99245SOL    HW299575  14.502   0.177   7.355
99246SOL     OW99576   8.917   4.130   7.170
99246SOL    HW199577   9.005   4.142   7.205
99246SOL    HW299578   8.864   4.103   7.245
99247SOL     OW99579  12.513  11.013   0.932
99247SOL    HW199580  12.478  11.061   1.007
99247SOL    HW299581  12.455  10.938   0.922
99248SOL     OW99582  12.453   3.013   1.449
99248SOL    HW199583  12.412   3.041   1.368
99248SOL    HW299584  12.423   3.076   1.515
99249SOL     OW99585  10.647   4.731  14.477
99249SOL    HW199586  10.648   4.664  14.409
99249SOL    HW299587  10.575   4.788  14.453
99250SOL     OW99588   0.969   4.584  14.747
99250SOL    HW199589   0.977   4.667  14.699
99250SOL    HW299590   1.034   4.590  14.817
99251SOL     OW99591  11.379   2.076   6.571
99251SOL    HW199592  11.413   2.136   6.505
99251SOL    HW299593  11.334   2.132   6.634
99252SOL     OW99594   4.631   3.377  10.571
99252SOL    HW199595   4.665   3.332  10.494
99252SOL    HW299596   4.542   3.344  10.581
99253SOL     OW99597  13.421   1.746   4.015
99253SOL    HW199598  13.330   1.746   3.986
99253SOL    HW299599  13.419   1.783   4.103
99254SOL     OW99600   7.789  11.210  10.533
99254SOL    HW199601   7.863  11.263  10.564
99254SOL    HW299602   7.814  11.183  10.444
99255SOL     OW99603  13.473   1.357   6.426
99255SOL    HW199604  13.427   1.347   6.342
99255SOL    HW299605  13.421   1.304   6.487
99256SOL     OW99606   9.106   8.315  11.092
99256SOL    HW199607   9.181   8.372  11.112
99256SOL    HW299608   9.072   8.350  11.009
99257SOL     OW99609   3.954  13.655   6.282
99257SOL    HW199610   3.883  13.619   6.229
99257SOL    HW299611   4.032  13.607   6.253
99258SOL     OW99612  14.060  13.998   2.621
99258SOL    HW199613  13.964  13.991   2.622
99258SOL    HW299614  14.090  13.914   2.585
99259SOL     OW99615  11.622   5.538  13.997
99259SOL    HW199616  11.674   5.618  14.008
99259SOL    HW299617  11.593   5.540  13.906
99260SOL     OW99618  13.888  14.733  11.730
99260SOL    HW199619  13.873  14.676  11.654
99260SOL    HW299620  13.835  14.811  11.712
99261SOL     OW99621   2.210  13.016  11.795
99261SOL    HW199622   2.291  13.048  11.835
99261SOL    HW299623   2.234  13.000  11.703
99262SOL     OW99624   8.866   2.851  13.471
99262SOL    HW199625   8.779   2.888  13.455
99262SOL    HW299626   8.912   2.860  13.388
99263SOL     OW99627   1.469   1.643   4.644
99263SOL    HW199628   1.548   1.656   4.697
99263SOL    HW299629   1.458   1.726   4.597
99264SOL     OW99630  11.825   2.835   3.870
99264SOL    HW199631  11.860   2.919   3.842
99264SOL    HW299632  11.900   2.775   3.865
99265SOL     OW99633  12.295  11.768   7.420
99265SOL    HW199634  12.388  11.786   7.435
99265SOL    HW299635  12.252  11.796   7.501
99266SOL     OW99636   3.130   2.352   2.139
99266SOL    HW199637   3.118   2.322   2.049
99266SOL    HW299638   3.158   2.444   2.131
99267SOL     OW99639   3.511  10.741  11.877
99267SOL    HW199640   3.535  10.729  11.786
99267SOL    HW299641   3.463  10.824  11.878
99268SOL     OW99642  10.601   4.234   1.917
99268SOL    HW199643  10.595   4.313   1.971
99268SOL    HW299644  10.595   4.266   1.827
99269SOL     OW99645   1.159   6.152   6.194
99269SOL    HW199646   1.175   6.078   6.134
99269SOL    HW299647   1.186   6.229   6.144
99270SOL     OW99648   6.801  11.196   4.181
99270SOL    HW199649   6.803  11.102   4.201
99270SOL    HW299650   6.734  11.231   4.240
99271SOL     OW99651  13.168   1.397  14.350
99271SOL    HW199652  13.154   1.335  14.279
99271SOL    HW299653  13.145   1.349  14.430
99272SOL     OW99654  14.132   6.962   0.773
99272SOL    HW199655  14.067   6.917   0.720
99272SOL    HW299656  14.200   6.896   0.788
99273SOL     OW99657   5.271  12.329   5.904
99273SOL    HW199658   5.312  12.412   5.880
99273SOL    HW299659   5.267  12.280   5.822
99274SOL     OW99660  13.022  14.465   5.971
99274SOL    HW199661  12.933  14.467   6.006
99274SOL    HW299662  13.046  14.557   5.964
99275SOL     OW99663  12.580   9.632   7.504
99275SOL    HW199664  12.494   9.671   7.487
99275SOL    HW299665  12.624   9.694   7.561
99276SOL     OW99666   5.775   9.815  11.449
99276SOL    HW199667   5.729   9.866  11.383
99276SOL    HW299668   5.854   9.784  11.403
99277SOL     OW99669   3.683  12.122   9.032
99277SOL    HW199670   3.641  12.086   9.111
99277SOL    HW299671   3.656  12.064   8.961
99278SOL     OW99672  13.605  11.075   8.848
99278SOL    HW199673  13.576  10.998   8.798
99278SOL    HW299674  13.629  11.139   8.780
99279SOL     OW99675   6.358   0.521   5.233
99279SOL    HW199676   6.409   0.487   5.305
99279SOL    HW299677   6.401   0.604   5.210
99280SOL     OW99678   6.247   5.371  10.158
99280SOL    HW199679   6.225   5.462  10.140
99280SOL    HW299680   6.282   5.338  10.075
99281SOL     OW99681   6.504   2.301  14.206
99281SOL    HW199682   6.532   2.232  14.266
99281SOL    HW299683   6.568   2.298  14.135
99282SOL     OW99684  10.022  13.373   6.497
99282SOL    HW199685  10.045  13.368   6.404
99282SOL    HW299686   9.965  13.297   6.512
99283SOL     OW99687   3.255   0.713   8.413
99283SOL    HW199688   3.287   0.667   8.491
99283SOL    HW299689   3.179   0.662   8.385
99284SOL     OW99690   2.076  13.654   5.669
99284SOL    HW199691   2.163  13.688   5.649
99284SOL    HW299692   2.091  13.579   5.726
99285SOL     OW99693   7.021   6.817   6.578
99285SOL    HW199694   6.934   6.857   6.585
99285SOL    HW299695   7.025   6.755   6.650
99286SOL     OW99696   4.612  10.393   2.443
99286SOL    HW199697   4.539  10.349   2.401
99286SOL    HW299698   4.636  10.336   2.516
99287SOL     OW99699   2.255  12.200   1.082
99287SOL    HW199700   2.251  12.291   1.052
99287SOL    HW299701   2.348  12.185   1.099
99288SOL     OW99702   0.100  14.367  11.258
99288SOL    HW199703   0.190  14.396  11.245
99288SOL    HW299704   0.048  14.448  11.256
99289SOL     OW99705   6.267  12.896   2.162
99289SOL    HW199706   6.290  12.834   2.093
99289SOL    HW299707   6.307  12.860   2.241
99290SOL     OW99708  11.600   8.451   8.390
99290SOL    HW199709  11.506   8.437   8.397
99290SOL    HW299710  11.613   8.541   8.420
99291SOL     OW99711   1.624   5.377   0.875
99291SOL    HW199712   1.650   5.424   0.954
99291SOL    HW299713   1.653   5.433   0.803
99292SOL     OW99714   2.042   9.389  10.537
99292SOL    HW199715   2.079   9.352  10.457
99292SOL    HW299716   1.954   9.416  10.512
99293SOL     OW99717   6.277   1.998   1.043
99293SOL    HW199718   6.199   1.959   1.005
99293SOL    HW299719   6.263   2.092   1.034
99294SOL     OW99720  14.300   6.331   8.529
99294SOL    HW199721  14.296   6.424   8.548
99294SOL    HW299722  14.360   6.324   8.454
99295SOL     OW99723  13.768   7.667   2.427
99295SOL    HW199724  13.857   7.633   2.418
99295SOL    HW299725  13.725   7.606   2.486
99296SOL     OW99726   8.883   3.138  11.442
99296SOL    HW199727   8.943   3.128  11.368
99296SOL    HW299728   8.830   3.059  11.440
99297SOL     OW99729   6.743   6.702   3.488
99297SOL    HW199730   6.771   6.746   3.568
99297SOL    HW299731   6.791   6.746   3.418
99298SOL     OW99732   2.089   4.610   8.655
99298SOL    HW199733   2.047   4.525   8.668
99298SOL    HW299734   2.115   4.637   8.743
99299SOL     OW99735   5.876  13.536  13.876
99299SOL    HW199736   5.798  13.523  13.822
99299SOL    HW299737   5.867  13.471  13.946
99300SOL     OW99738   7.158   2.766   3.538
99300SOL    HW199739   7.183   2.806   3.621
99300SOL    HW299740   7.241   2.748   3.494
99301SOL     OW99741  13.403   1.593   5.341
99301SOL    HW199742  13.458   1.567   5.268
99301SOL    HW299743  13.320   1.620   5.300
99302SOL     OW99744   8.129   6.622  12.077
99302SOL    HW199745   8.054   6.640  12.020
99302SOL    HW299746   8.089   6.602  12.162
99303SOL     OW99747   5.358   7.730  13.438
99303SOL    HW199748   5.307   7.799  13.396
99303SOL    HW299749   5.293   7.665  13.465
99304SOL     OW99750   9.633   0.950  13.952
99304SOL    HW199751   9.637   1.046  13.944
99304SOL    HW299752   9.547   0.934  13.991
99305SOL     OW99753   0.994   0.257  11.032
99305SOL    HW199754   0.982   0.351  11.044
99305SOL    HW299755   1.043   0.230  11.109
99306SOL     OW99756   5.800   4.809  12.255
99306SOL    HW199757   5.767   4.897  12.236
99306SOL    HW299758   5.867   4.823  12.322
99307SOL     OW99759   1.035   7.348   1.783
99307SOL    HW199760   0.971   7.347   1.854
99307SOL    HW299761   1.120   7.353   1.827
99308SOL     OW99762   5.043   2.985   3.789
99308SOL    HW199763   5.014   2.894   3.791
99308SOL    HW299764   5.136   2.981   3.813
99309SOL     OW99765   6.997   8.614   2.304
99309SOL    HW199766   6.981   8.661   2.385
99309SOL    HW299767   7.074   8.560   2.322
99310SOL     OW99768   2.607  13.866   6.177
99310SOL    HW199769   2.628  13.865   6.270
99310SOL    HW299770   2.605  13.959   6.154
99311SOL     OW99771  10.476  13.716   6.379
99311SOL    HW199772  10.471  13.647   6.445
99311SOL    HW299773  10.386  13.750   6.373
99312SOL     OW99774   5.344   9.446  11.563
99312SOL    HW199775   5.277   9.418  11.501
99312SOL    HW299776   5.364   9.537  11.538
99313SOL     OW99777  10.392  11.280   1.456
99313SOL    HW199778  10.367  11.368   1.429
99313SOL    HW299779  10.316  11.225   1.433
99314SOL     OW99780  11.281  12.036   2.666
99314SOL    HW199781  11.247  12.012   2.752
99314SOL    HW299782  11.294  12.130   2.671
99315SOL     OW99783  11.896   2.827   6.760
99315SOL    HW199784  11.818   2.878   6.781
99315SOL    HW299785  11.963   2.892   6.740
99316SOL     OW99786   6.089   5.981  11.079
99316SOL    HW199787   6.144   5.915  11.121
99316SOL    HW299788   6.091   6.055  11.140
99317SOL     OW99789   2.839   1.700   6.734
99317SOL    HW199790   2.819   1.732   6.822
99317SOL    HW299791   2.756   1.707   6.686
99318SOL     OW99792   3.291   8.947  11.087
99318SOL    HW199793   3.376   8.928  11.127
99318SOL    HW299794   3.252   9.013  11.145
99319SOL     OW99795  10.257   6.690  13.225
99319SOL    HW199796  10.215   6.776  13.223
99319SOL    HW299797  10.340   6.705  13.270
99320SOL     OW99798   1.229   1.382   3.962
99320SOL    HW199799   1.288   1.345   4.028
99320SOL    HW299800   1.164   1.431   4.013
99321SOL     OW99801   3.828   1.157  12.255
99321SOL    HW199802   3.781   1.237  12.233
99321SOL    HW299803   3.844   1.114  12.170
99322SOL     OW99804  11.336   1.224   8.593
99322SOL    HW199805  11.243   1.244   8.578
99322SOL    HW299806  11.340   1.189   8.682
99323SOL     OW99807   2.418  12.664   8.168
99323SOL    HW199808   2.455  12.722   8.102
99323SOL    HW299809   2.403  12.581   8.123
99324SOL     OW99810   6.032   3.287  11.574
99324SOL    HW199811   5.993   3.222  11.632
99324SOL    HW299812   6.114   3.247  11.545
99325SOL     OW99813  13.437  13.053   7.823
99325SOL    HW199814  13.397  13.135   7.794
99325SOL    HW299815  13.530  13.072   7.831
99326SOL     OW99816  10.139   5.164   8.151
99326SOL    HW199817  10.068   5.214   8.111
99326SOL    HW299818  10.094   5.092   8.197
99327SOL     OW99819  13.934   0.475  13.245
99327SOL    HW199820  13.889   0.465  13.329
99327SOL    HW299821  13.866   0.462  13.180
99328SOL     OW99822   7.821   9.677   3.308
99328SOL    HW199823   7.804   9.667   3.214
99328SOL    HW299824   7.884   9.608   3.328
99329SOL     OW99825  12.482   6.173   2.279
99329SOL    HW199826  12.482   6.252   2.225
99329SOL    HW299827  12.535   6.110   2.230
99330SOL     OW99828  12.276   4.983   0.349
99330SOL    HW199829  12.238   4.947   0.269
99330SOL    HW299830  12.204   5.027   0.393
99331SOL     OW99831   6.817   8.729   1.901
99331SOL    HW199832   6.722   8.715   1.904
99331SOL    HW299833   6.847   8.673   1.830
99332SOL     OW99834   6.048   2.378   9.119
99332SOL    HW199835   6.071   2.315   9.187
99332SOL    HW299836   6.054   2.328   9.037
99333SOL     OW99837   9.038   6.376   5.452
99333SOL    HW199838   9.016   6.324   5.375
99333SOL    HW299839   9.116   6.333   5.488
99334SOL     OW99840   5.587  11.217   9.348
99334SOL    HW199841   5.592  11.268   9.429
99334SOL    HW299842   5.509  11.164   9.358
99335SOL     OW99843   8.031  11.638   9.616
99335SOL    HW199844   7.958  11.652   9.677
99335SOL    HW299845   8.026  11.713   9.556
99336SOL     OW99846   9.578   9.282  13.487
99336SOL    HW199847   9.636   9.219  13.444
99336SOL    HW299848   9.504   9.230  13.517
99337SOL     OW99849  11.883  10.537   7.509
99337SOL    HW199850  11.866  10.443   7.504
99337SOL    HW299851  11.860  10.561   7.598
99338SOL     OW99852   6.731   6.110   2.409
99338SOL    HW199853   6.783   6.078   2.482
99338SOL    HW299854   6.765   6.198   2.391
99339SOL     OW99855   4.241  14.396   5.904
99339SOL    HW199856   4.180  14.325   5.923
99339SOL    HW299857   4.328  14.358   5.918
99340SOL     OW99858   7.544   0.908  10.924
99340SOL    HW199859   7.495   0.970  10.978
99340SOL    HW299860   7.506   0.822  10.945
99341SOL     OW99861   0.074  12.529   8.278
99341SOL    HW199862   0.145  12.489   8.328
99341SOL    HW299863   0.103  12.524   8.187
99342SOL     OW99864   7.827   6.521   8.129
99342SOL    HW199865   7.846   6.492   8.219
99342SOL    HW299866   7.850   6.445   8.075
99343SOL     OW99867   9.660   6.230   1.052
99343SOL    HW199868   9.715   6.157   1.079
99343SOL    HW299869   9.690   6.304   1.105
99344SOL     OW99870   6.156  14.302  13.507
99344SOL    HW199871   6.240  14.258  13.492
99344SOL    HW299872   6.135  14.283  13.598
99345SOL     OW99873   1.008  13.248   6.396
99345SOL    HW199874   1.083  13.305   6.378
99345SOL    HW299875   1.043  13.159   6.390
99346SOL     OW99876   5.695   5.235   4.173
99346SOL    HW199877   5.651   5.151   4.187
99346SOL    HW299878   5.784   5.222   4.204
99347SOL     OW99879  12.807   8.948   1.316
99347SOL    HW199880  12.732   8.979   1.368
99347SOL    HW299881  12.786   8.974   1.227
99348SOL     OW99882   9.205  13.743   5.181
99348SOL    HW199883   9.275  13.691   5.219
99348SOL    HW299884   9.125  13.700   5.211
99349SOL     OW99885   9.085   4.863   3.811
99349SOL    HW199886   9.175   4.844   3.836
99349SOL    HW299887   9.090   4.881   3.717
99350SOL     OW99888   5.743   2.085   9.591
99350SOL    HW199889   5.834   2.105   9.566
99350SOL    HW299890   5.735   1.991   9.576
99351SOL     OW99891   6.872   4.779   0.578
99351SOL    HW199892   6.870   4.687   0.605
99351SOL    HW299893   6.940   4.783   0.511
99352SOL     OW99894   9.210   9.313   8.512
99352SOL    HW199895   9.285   9.316   8.452
99352SOL    HW299896   9.137   9.349   8.461
99353SOL     OW99897   7.744  11.262   5.568
99353SOL    HW199898   7.722  11.176   5.533
99353SOL    HW299899   7.712  11.260   5.658
99354SOL     OW99900   9.612   9.504  11.346
99354SOL    HW199901   9.556   9.573  11.310
99354SOL    HW299902   9.672   9.482  11.275
99355SOL     OW99903   5.663  11.391  13.476
99355SOL    HW199904   5.754  11.362  13.481
99355SOL    HW299905   5.640  11.414  13.566
99356SOL     OW99906   0.176   3.697   8.005
99356SOL    HW199907   0.085   3.728   8.009
99356SOL    HW299908   0.197   3.696   7.912
99357SOL     OW99909  10.702   4.158  10.924
99357SOL    HW199910  10.636   4.093  10.899
99357SOL    HW299911  10.743   4.184  10.842
99358SOL     OW99912   3.197  12.775   7.713
99358SOL    HW199913   3.206  12.856   7.763
99358SOL    HW299914   3.103  12.771   7.692
99359SOL     OW99915   3.340   5.948   6.163
99359SOL    HW199916   3.404   5.921   6.097
99359SOL    HW299917   3.273   5.995   6.114
99360SOL     OW99918  10.553   9.086  14.603
99360SOL    HW199919  10.608   9.012  14.629
99360SOL    HW299920  10.594   9.119  14.523
99361SOL     OW99921   6.232   9.599  13.113
99361SOL    HW199922   6.292   9.653  13.063
99361SOL    HW299923   6.281   9.518  13.130
99362SOL     OW99924   7.208   7.698  11.502
99362SOL    HW199925   7.189   7.745  11.421
99362SOL    HW299926   7.254   7.762  11.556
99363SOL     OW99927   0.506   1.650   6.133
99363SOL    HW199928   0.420   1.663   6.173
99363SOL    HW299929   0.529   1.560   6.153
99364SOL     OW99930  12.849   1.044  10.761
99364SOL    HW199931  12.881   1.078  10.845
99364SOL    HW299932  12.876   1.110  10.697
99365SOL     OW99933   7.534   8.084   6.705
99365SOL    HW199934   7.482   8.140   6.762
99365SOL    HW299935   7.477   8.066   6.630
99366SOL     OW99936   9.667  12.256   2.746
99366SOL    HW199937   9.670  12.177   2.799
99366SOL    HW299938   9.596  12.308   2.786
99367SOL     OW99939  14.018   8.068   1.436
99367SOL    HW199940  14.079   8.105   1.373
99367SOL    HW299941  14.000   7.980   1.404
99368SOL     OW99942  13.436   6.074   5.980
99368SOL    HW199943  13.418   6.167   5.969
99368SOL    HW299944  13.430   6.037   5.891
99369SOL     OW99945   5.332   1.422   9.119
99369SOL    HW199946   5.369   1.449   9.203
99369SOL    HW299947   5.406   1.420   9.059
99370SOL     OW99948   5.033   6.956   9.742
99370SOL    HW199949   4.958   6.989   9.791
99370SOL    HW299950   5.002   6.875   9.701
99371SOL     OW99951  13.331   2.149   5.794
99371SOL    HW199952  13.355   2.239   5.772
99371SOL    HW299953  13.323   2.149   5.889
99372SOL     OW99954  10.411   9.094   7.089
99372SOL    HW199955  10.455   9.144   7.158
99372SOL    HW299956  10.364   9.025   7.136
99373SOL     OW99957   3.760   5.332   6.090
99373SOL    HW199958   3.672   5.303   6.066
99373SOL    HW299959   3.819   5.270   6.047
99374SOL     OW99960  14.787  12.580   5.182
99374SOL    HW199961  14.763  12.508   5.240
99374SOL    HW299962  14.876  12.559   5.153
99375SOL     OW99963  13.159   1.736   3.980
99375SOL    HW199964  13.120   1.777   4.057
99375SOL    HW299965  13.089   1.680   3.945
99376SOL     OW99966   9.019   9.993   7.275
99376SOL    HW199967   9.036  10.056   7.205
99376SOL    HW299968   8.993   9.913   7.229
99377SOL     OW99969   9.900   4.827   8.922
99377SOL    HW199970   9.909   4.922   8.924
99377SOL    HW299971   9.942   4.800   8.840
99378SOL     OW99972   9.875  12.352  13.062
99378SOL    HW199973   9.924  12.322  13.138
99378SOL    HW299974   9.910  12.302  12.989
99379SOL     OW99975  10.941   4.673  11.317
99379SOL    HW199976  11.011   4.671  11.251
99379SOL    HW299977  10.885   4.746  11.289
99380SOL     OW99978   7.259   4.697   6.428
99380SOL    HW199979   7.204   4.726   6.355
99380SOL    HW299980   7.198   4.679   6.499
99381SOL     OW99981  14.745   5.759  13.012
99381SOL    HW199982  14.695   5.739  13.091
99381SOL    HW299983  14.678   5.769  12.944
99382SOL     OW99984   9.046   8.483   6.759
99382SOL    HW199985   9.045   8.553   6.695
99382SOL    HW299986   9.122   8.503   6.815
99383SOL     OW99987   6.356   2.785  14.473
99383SOL    HW199988   6.308   2.750  14.398
99383SOL    HW299989   6.375   2.708  14.527
99384SOL     OW99990   9.658  10.802   8.164
99384SOL    HW199991   9.564  10.803   8.148
99384SOL    HW299992   9.684  10.894   8.164
99385SOL     OW99993  14.627   6.348   6.604
99385SOL    HW199994  14.667   6.422   6.650
99385SOL    HW299995  14.580   6.388   6.532
99386SOL     OW99996  12.945   5.306   0.677
99386SOL    HW199997  12.894   5.293   0.597
99386SOL    HW299998  12.880   5.298   0.748
99387SOL     OW99999   3.684   7.437  12.281
99387SOL    HW1    0   3.726   7.354  12.257
99387SOL    HW2    1   3.744   7.476  12.346
99388SOL     OW    2  12.266   0.247   8.181
99388SOL    HW1    3  12.183   0.199   8.182
99388SOL    HW2    4  12.262   0.305   8.257
99389SOL     OW    5   4.292   8.798   8.613
99389SOL    HW1    6   4.236   8.800   8.535
99389SOL    HW2    7   4.238   8.840   8.681
99390SOL     OW    8   6.904   6.817   4.926
99390SOL    HW1    9   6.816   6.779   4.924
99390SOL    HW2   10   6.898   6.886   4.992
99391SOL     OW   11   7.338   7.430   8.065
99391SOL    HW1   12   7.377   7.417   7.978
99391SOL    HW2   13   7.248   7.396   8.055
99392SOL     OW   14   3.912   8.511  12.327
99392SOL    HW1   15   3.955   8.596  12.339
99392SOL    HW2   16   3.852   8.504  12.402
99393SOL     OW   17   9.878   5.992  11.497
99393SOL    HW1   18   9.929   5.953  11.568
99393SOL    HW2   19   9.860   5.919  11.438
99394SOL     OW   20   5.255   2.089   5.980
99394SOL    HW1   21   5.281   2.169   5.936
99394SOL    HW2   22   5.188   2.050   5.923
99395SOL     OW   23  10.868   5.307   8.511
99395SOL    HW1   24  10.863   5.236   8.446
99395SOL    HW2   25  10.823   5.272   8.588
99396SOL     OW   26   7.760   4.171  11.700
99396SOL    HW1   27   7.738   4.219  11.780
99396SOL    HW2   28   7.676   4.148  11.661
99397SOL     OW   29   2.122   6.583   3.805
99397SOL    HW1   30   2.183   6.640   3.760
99397SOL    HW2   31   2.092   6.634   3.880
99398SOL     OW   32   5.150   1.544   8.673
99398SOL    HW1   33   5.216   1.582   8.615
99398SOL    HW2   34   5.090   1.498   8.614
99399SOL     OW   35   5.626  12.230   4.562
99399SOL    HW1   36   5.582  12.210   4.479
99399SOL    HW2   37   5.561  12.208   4.629
99400SOL     OW   38  10.562   9.678   1.953
99400SOL    HW1   39  10.645   9.631   1.958
99400SOL    HW2   40  10.547   9.710   2.042
99401SOL     OW   41  12.848   6.439  13.488
99401SOL    HW1   42  12.766   6.489  13.491
99401SOL    HW2   43  12.831   6.369  13.425
99402SOL     OW   44   8.307   2.741  13.407
99402SOL    HW1   45   8.354   2.800  13.348
99402SOL    HW2   46   8.307   2.787  13.491
99403SOL     OW   47  12.763   3.527   5.840
99403SOL    HW1   48  12.742   3.436   5.858
99403SOL    HW2   49  12.747   3.536   5.745
99404SOL     OW   50   9.287   3.168   6.648
99404SOL    HW1   51   9.205   3.117   6.646
99404SOL    HW2   52   9.355   3.103   6.667
99405SOL     OW   53   8.026  12.211   6.735
99405SOL    HW1   54   7.980  12.130   6.713
99405SOL    HW2   55   8.074  12.190   6.814
99406SOL     OW   56   2.008  12.888  13.715
99406SOL    HW1   57   2.000  12.794  13.701
99406SOL    HW2   58   1.936  12.926  13.664
99407SOL     OW   59   5.275  10.536   7.383
99407SOL    HW1   60   5.363  10.561   7.413
99407SOL    HW2   61   5.226  10.517   7.462
99408SOL     OW   62  14.549   5.518   0.918
99408SOL    HW1   63  14.624   5.492   0.972
99408SOL    HW2   64  14.569   5.482   0.831
99409SOL     OW   65  10.353   7.078   4.053
99409SOL    HW1   66  10.443   7.109   4.041
99409SOL    HW2   67  10.333   7.031   3.972
99410SOL     OW   68   5.610   6.684   9.020
99410SOL    HW1   69   5.676   6.676   8.952
99410SOL    HW2   70   5.537   6.630   8.991
99411SOL     OW   71   6.247  11.726  14.631
99411SOL    HW1   72   6.158  11.718  14.665
99411SOL    HW2   73   6.240  11.792  14.562
99412SOL     OW   74   4.936  11.779   7.867
99412SOL    HW1   75   4.872  11.849   7.855
99412SOL    HW2   76   4.907  11.710   7.807
99413SOL     OW   77   9.094   8.441  12.955
99413SOL    HW1   78   9.146   8.464  12.878
99413SOL    HW2   79   9.129   8.357  12.983
99414SOL     OW   80   7.776   7.504   2.123
99414SOL    HW1   81   7.719   7.433   2.153
99414SOL    HW2   82   7.761   7.509   2.029
99415SOL     OW   83   5.870   5.880   0.525
99415SOL    HW1   84   5.883   5.811   0.460
99415SOL    HW2   85   5.820   5.838   0.594
99416SOL     OW   86   0.304   6.842  12.650
99416SOL    HW1   87   0.356   6.765  12.672
99416SOL    HW2   88   0.342   6.874  12.568
99417SOL     OW   89  13.288   8.804  14.813
99417SOL    HW1   90  13.225   8.734  14.828
99417SOL    HW2   91  13.240   8.870  14.763
99418SOL     OW   92   9.681  10.035  11.007
99418SOL    HW1   93   9.664   9.948  10.971
99418SOL    HW2   94   9.596  10.064  11.041
99419SOL     OW   95   7.298  13.283   2.626
99419SOL    HW1   96   7.372  13.292   2.565
99419SOL    HW2   97   7.329  13.322   2.707
99420SOL     OW   98  12.259  12.933   5.789
99420SOL    HW1   99  12.309  12.891   5.719
99420SOL    HW2  100  12.262  12.872   5.862
99421SOL     OW  101   6.741   7.320   6.234
99421SOL    HW1  102   6.672   7.280   6.180
99421SOL    HW2  103   6.821   7.304   6.185
99422SOL     OW  104   1.224  12.501   8.644
99422SOL    HW1  105   1.272  12.423   8.620
99422SOL    HW2  106   1.147  12.501   8.587
99423SOL     OW  107   2.787  10.423  12.494
99423SOL    HW1  108   2.795  10.347  12.552
99423SOL    HW2  109   2.840  10.491  12.535
99424SOL     OW  110  13.328   5.058   7.816
99424SOL    HW1  111  13.417   5.051   7.782
99424SOL    HW2  112  13.318   4.981   7.873
99425SOL     OW  113   0.481   0.396   8.259
99425SOL    HW1  114   0.413   0.429   8.317
99425SOL    HW2  115   0.443   0.400   8.172
99426SOL     OW  116  13.719   8.377   6.752
99426SOL    HW1  117  13.669   8.437   6.807
99426SOL    HW2  118  13.759   8.433   6.686
99427SOL     OW  119   0.237   0.768   1.956
99427SOL    HW1  120   0.211   0.675   1.959
99427SOL    HW2  121   0.317   0.773   2.008
99428SOL     OW  122   5.898   9.375   6.691
99428SOL    HW1  123   5.910   9.294   6.741
99428SOL    HW2  124   5.916   9.350   6.600
99429SOL     OW  125  10.172  10.757  13.651
99429SOL    HW1  126  10.132  10.843  13.638
99429SOL    HW2  127  10.181  10.720  13.563
99430SOL     OW  128   9.920   2.610  10.401
99430SOL    HW1  129   9.884   2.697  10.412
99430SOL    HW2  130  10.015   2.623  10.398
99431SOL     OW  131   3.614   0.393   4.933
99431SOL    HW1  132   3.676   0.322   4.950
99431SOL    HW2  133   3.604   0.436   5.018
99432SOL     OW  134   3.575   4.543  10.212
99432SOL    HW1  135   3.592   4.478  10.280
99432SOL    HW2  136   3.549   4.492  10.136
99433SOL     OW  137   1.880   4.110  12.072
99433SOL    HW1  138   1.809   4.092  12.134
99433SOL    HW2  139   1.849   4.185  12.021
99434SOL     OW  140  11.377   7.109   7.680
99434SOL    HW1  141  11.428   7.188   7.700
99434SOL    HW2  142  11.433   7.037   7.708
99435SOL     OW  143   8.545   2.208  10.690
99435SOL    HW1  144   8.469   2.263  10.671
99435SOL    HW2  145   8.590   2.200  10.606
99436SOL     OW  146  10.267   0.176  14.230
99436SOL    HW1  147  10.188   0.219  14.199
99436SOL    HW2  148  10.333   0.195  14.164
99437SOL     OW  149   1.044   1.436  14.032
99437SOL    HW1  150   1.020   1.420  13.940
99437SOL    HW2  151   1.137   1.459  14.029
99438SOL     OW  152   9.947   6.196   3.245
99438SOL    HW1  153  10.030   6.148   3.245
99438SOL    HW2  154   9.911   6.181   3.157
99439SOL     OW  155   4.506   7.415   6.422
99439SOL    HW1  156   4.459   7.499   6.417
99439SOL    HW2  157   4.555   7.411   6.340
99440SOL     OW  158  10.697   5.653   5.879
99440SOL    HW1  159  10.752   5.722   5.842
99440SOL    HW2  160  10.623   5.699   5.918
99441SOL     OW  161  13.815   4.853  11.345
99441SOL    HW1  162  13.879   4.887  11.407
99441SOL    HW2  163  13.730   4.879  11.381
99442SOL     OW  164   8.767   0.308   7.817
99442SOL    HW1  165   8.815   0.279   7.894
99442SOL    HW2  166   8.702   0.240   7.802
99443SOL     OW  167   2.454   6.405  13.818
99443SOL    HW1  168   2.418   6.427  13.904
99443SOL    HW2  169   2.515   6.333  13.835
99444SOL     OW  170   7.378   1.095   2.491
99444SOL    HW1  171   7.400   1.063   2.578
99444SOL    HW2  172   7.378   1.190   2.500
99445SOL     OW  173   6.554  11.447  14.863
99445SOL    HW1  174   6.533  11.492  14.781
99445SOL    HW2  175   6.470  11.411   0.013
99446SOL     OW  176   3.417   3.636   3.597
99446SOL    HW1  177   3.489   3.620   3.659
99446SOL    HW2  178   3.402   3.551   3.556
99447SOL     OW  179  13.838   4.375   2.664
99447SOL    HW1  180  13.748   4.350   2.685
99447SOL    HW2  181  13.837   4.470   2.662
99448SOL     OW  182   0.564   1.252  12.437
99448SOL    HW1  183   0.532   1.262  12.527
99448SOL    HW2  184   0.485   1.252  12.384
99449SOL     OW  185   3.409   2.138   9.051
99449SOL    HW1  186   3.438   2.130   9.142
99449SOL    HW2  187   3.397   2.233   9.038
99450SOL     OW  188  12.850   5.977  11.611
99450SOL    HW1  189  12.844   6.063  11.570
99450SOL    HW2  190  12.925   5.935  11.569
99451SOL     OW  191  12.366   2.969  14.594
99451SOL    HW1  192  12.453   2.982  14.557
99451SOL    HW2  193  12.338   3.057  14.620
99452SOL     OW  194  10.333   4.011   6.971
99452SOL    HW1  195  10.239   4.022   6.956
99452SOL    HW2  196  10.349   3.919   6.952
99453SOL     OW  197  10.266   4.610   9.858
99453SOL    HW1  198  10.309   4.584   9.776
99453SOL    HW2  199  10.238   4.700   9.843
99454SOL     OW  200  12.208   7.776   4.658
99454SOL    HW1  201  12.180   7.827   4.733
99454SOL    HW2  202  12.299   7.801   4.644
99455SOL     OW  203  14.537  12.912   6.800
99455SOL    HW1  204  14.623  12.934   6.836
99455SOL    HW2  205  14.496  12.997   6.784
99456SOL     OW  206  13.604   6.383  10.578
99456SOL    HW1  207  13.570   6.311  10.632
99456SOL    HW2  208  13.541   6.454  10.589
99457SOL     OW  209  10.047   2.884   4.317
99457SOL    HW1  210  10.003   2.969   4.320
99457SOL    HW2  211  10.096   2.885   4.235
99458SOL     OW  212  12.473  13.176   3.793
99458SOL    HW1  213  12.386  13.148   3.819
99458SOL    HW2  214  12.459  13.255   3.741
99459SOL     OW  215   2.964   6.425   8.102
99459SOL    HW1  216   2.943   6.458   8.015
99459SOL    HW2  217   3.052   6.459   8.119
99460SOL     OW  218   0.333   8.317   2.601
99460SOL    HW1  219   0.317   8.399   2.554
99460SOL    HW2  220   0.270   8.318   2.672
99461SOL     OW  221   1.506  10.216   8.331
99461SOL    HW1  222   1.468  10.241   8.415
99461SOL    HW2  223   1.600  10.225   8.344
99462SOL     OW  224   1.884   2.620  12.572
99462SOL    HW1  225   1.904   2.528  12.591
99462SOL    HW2  226   1.968   2.658  12.546
99463SOL     OW  227   2.306   4.010   9.208
99463SOL    HW1  228   2.238   4.060   9.253
99463SOL    HW2  229   2.367   4.077   9.175
99464SOL     OW  230  13.626   6.563   5.937
99464SOL    HW1  231  13.533   6.578   5.955
99464SOL    HW2  232  13.662   6.538   6.022
99465SOL     OW  233  14.866   5.462   8.913
99465SOL    HW1  234   0.009   5.412   8.835
99465SOL    HW2  235  14.784   5.505   8.891
99466SOL     OW  236   7.128  13.482  10.166
99466SOL    HW1  237   7.202  13.454  10.220
99466SOL    HW2  238   7.152  13.569  10.135
99467SOL     OW  239   2.767  11.154  14.219
99467SOL    HW1  240   2.741  11.103  14.296
99467SOL    HW2  241   2.855  11.123  14.197
99468SOL     OW  242  12.128   9.783   9.237
99468SOL    HW1  243  12.117   9.709   9.297
99468SOL    HW2  244  12.211   9.822   9.264
99469SOL     OW  245  13.568  10.623   3.930
99469SOL    HW1  246  13.600  10.713   3.938
99469SOL    HW2  247  13.608  10.577   4.004
99470SOL     OW  248   1.395   3.018   0.473
99470SOL    HW1  249   1.387   3.078   0.547
99470SOL    HW2  250   1.473   2.966   0.492
99471SOL     OW  251   8.749  10.725   1.814
99471SOL    HW1  252   8.653  10.727   1.808
99471SOL    HW2  253   8.779  10.761   1.731
99472SOL     OW  254   6.421  12.575   8.268
99472SOL    HW1  255   6.440  12.657   8.224
99472SOL    HW2  256   6.467  12.509   8.215
99473SOL     OW  257   2.013   9.148   5.378
99473SOL    HW1  258   2.089   9.190   5.338
99473SOL    HW2  259   2.043   9.124   5.466
99474SOL     OW  260   5.910   4.773   7.889
99474SOL    HW1  261   5.836   4.775   7.949
99474SOL    HW2  262   5.966   4.702   7.922
99475SOL     OW  263   5.662   1.971   3.164
99475SOL    HW1  264   5.568   1.978   3.149
99475SOL    HW2  265   5.700   2.040   3.109
99476SOL     OW  266  12.365   9.548   3.342
99476SOL    HW1  267  12.452   9.507   3.336
99476SOL    HW2  268  12.354   9.593   3.258
99477SOL     OW  269   3.664   3.109  13.225
99477SOL    HW1  270   3.749   3.134  13.190
99477SOL    HW2  271   3.620   3.192  13.245
99478SOL     OW  272  13.941   3.436   9.399
99478SOL    HW1  273  13.855   3.424   9.438
99478SOL    HW2  274  13.923   3.466   9.310
99479SOL     OW  275  13.449   0.081   8.966
99479SOL    HW1  276  13.510   0.148   8.996
99479SOL    HW2  277  13.495   0.037   8.894
99480SOL     OW  278  12.698   8.339   6.572
99480SOL    HW1  279  12.701   8.345   6.477
99480SOL    HW2  280  12.693   8.429   6.602
99481SOL     OW  281   9.336   0.892   0.789
99481SOL    HW1  282   9.255   0.858   0.749
99481SOL    HW2  283   9.373   0.949   0.721
99482SOL     OW  284  12.014   6.681   0.685
99482SOL    HW1  285  11.935   6.735   0.686
99482SOL    HW2  286  12.038   6.672   0.777
99483SOL     OW  287   4.846   6.436   0.161
99483SOL    HW1  288   4.890   6.514   0.128
99483SOL    HW2  289   4.759   6.467   0.186
99484SOL     OW  290  14.303   1.788   5.645
99484SOL    HW1  291  14.299   1.794   5.550
99484SOL    HW2  292  14.235   1.726   5.669
99485SOL     OW  293   3.819   5.201  14.769
99485SOL    HW1  294   3.880   5.243  14.708
99485SOL    HW2  295   3.783   5.127  14.719
99486SOL     OW  296  13.908  13.300   8.112
99486SOL    HW1  297  13.876  13.214   8.084
99486SOL    HW2  298  13.995  13.307   8.072
99487SOL     OW  299  10.111   3.664   9.034
99487SOL    HW1  300  10.185   3.716   9.003
99487SOL    HW2  301  10.048   3.728   9.066
99488SOL     OW  302  12.231   7.081   7.147
99488SOL    HW1  303  12.255   7.003   7.097
99488SOL    HW2  304  12.302   7.092   7.210
99489SOL     OW  305  12.407   8.299   9.773
99489SOL    HW1  306  12.403   8.243   9.850
99489SOL    HW2  307  12.390   8.240   9.699
99490SOL     OW  308   3.094  13.471  10.663
99490SOL    HW1  309   3.006  13.433  10.663
99490SOL    HW2  310   3.079  13.565  10.648
99491SOL     OW  311   7.110   1.254  11.619
99491SOL    HW1  312   7.106   1.339  11.576
99491SOL    HW2  313   7.020   1.222  11.619
99492SOL     OW  314  14.558   9.662   5.148
99492SOL    HW1  315  14.565   9.647   5.242
99492SOL    HW2  316  14.482   9.609   5.121
99493SOL     OW  317  13.662   1.531   0.393
99493SOL    HW1  318  13.616   1.615   0.397
99493SOL    HW2  319  13.677   1.517   0.299
99494SOL     OW  320   3.535   6.867   5.698
99494SOL    HW1  321   3.466   6.929   5.721
99494SOL    HW2  322   3.501   6.820   5.621
99495SOL     OW  323   9.162   4.453   1.544
99495SOL    HW1  324   9.107   4.499   1.607
99495SOL    HW2  325   9.177   4.516   1.475
99496SOL     OW  326  11.786   2.966   3.418
99496SOL    HW1  327  11.839   2.902   3.370
99496SOL    HW2  328  11.718   2.914   3.461
99497SOL     OW  329   6.448  12.703   7.884
99497SOL    HW1  330   6.425  12.756   7.808
99497SOL    HW2  331   6.471  12.617   7.847
99498SOL     OW  332   9.069  11.239   5.859
99498SOL    HW1  333   9.042  11.251   5.769
99498SOL    HW2  334   9.048  11.323   5.902
99499SOL     OW  335   1.508  11.920   8.085
99499SOL    HW1  336   1.538  11.997   8.134
99499SOL    HW2  337   1.584  11.894   8.033
99500SOL     OW  338   2.032   7.111   9.213
99500SOL    HW1  339   2.110   7.154   9.177
99500SOL    HW2  340   1.958   7.153   9.169
99501SOL     OW  341  11.215   9.402   7.083
99501SOL    HW1  342  11.275   9.328   7.071
99501SOL    HW2  343  11.265   9.465   7.134
99502SOL     OW  344   3.561   6.550  11.307
99502SOL    HW1  345   3.607   6.487  11.363
99502SOL    HW2  346   3.517   6.495  11.241
99503SOL     OW  347   5.054  14.739   4.516
99503SOL    HW1  348   5.123  14.672   4.512
99503SOL    HW2  349   4.998  14.712   4.588
99504SOL     OW  350   4.056  11.131   2.496
99504SOL    HW1  351   4.031  11.199   2.433
99504SOL    HW2  352   4.139  11.096   2.461
99505SOL     OW  353   3.913  12.576   6.944
99505SOL    HW1  354   3.939  12.495   6.987
99505SOL    HW2  355   3.992  12.631   6.947
99506SOL     OW  356   4.741  12.933  12.471
99506SOL    HW1  357   4.801  12.978  12.412
99506SOL    HW2  358   4.722  12.850  12.428
99507SOL     OW  359   5.015   1.367  14.089
99507SOL    HW1  360   5.049   1.278  14.097
99507SOL    HW2  361   4.966   1.381  14.170
99508SOL     OW  362   8.974   9.715  13.684
99508SOL    HW1  363   8.927   9.747  13.761
99508SOL    HW2  364   8.908   9.718  13.614
99509SOL     OW  365   5.032   8.144   6.586
99509SOL    HW1  366   5.117   8.111   6.558
99509SOL    HW2  367   4.981   8.150   6.505
99510SOL     OW  368  12.181   2.686   0.668
99510SOL    HW1  369  12.102   2.646   0.706
99510SOL    HW2  370  12.192   2.767   0.717
99511SOL     OW  371   5.302   3.130   3.604
99511SOL    HW1  372   5.334   3.112   3.516
99511SOL    HW2  373   5.328   3.053   3.655
99512SOL     OW  374   0.121   3.279  13.457
99512SOL    HW1  375   0.057   3.261  13.389
99512SOL    HW2  376   0.127   3.197  13.507
99513SOL     OW  377   9.369   2.697   9.369
99513SOL    HW1  378   9.340   2.782   9.403
99513SOL    HW2  379   9.441   2.718   9.310
99514SOL     OW  380   8.638  14.128  13.642
99514SOL    HW1  381   8.655  14.185  13.567
99514SOL    HW2  382   8.696  14.161  13.711
99515SOL     OW  383   8.001   2.825   4.010
99515SOL    HW1  384   8.023   2.731   4.011
99515SOL    HW2  385   8.083   2.868   3.983
99516SOL     OW  386  10.854   5.574   1.545
99516SOL    HW1  387  10.892   5.563   1.458
99516SOL    HW2  388  10.860   5.487   1.585
99517SOL     OW  389  13.080   0.684   0.489
99517SOL    HW1  390  13.113   0.739   0.561
99517SOL    HW2  391  13.077   0.596   0.526
99518SOL     OW  392   3.102  11.810  14.403
99518SOL    HW1  393   3.008  11.798  14.391
99518SOL    HW2  394   3.142  11.749  14.340
99519SOL     OW  395   5.371   2.543   8.515
99519SOL    HW1  396   5.441   2.544   8.449
99519SOL    HW2  397   5.311   2.613   8.487
99520SOL     OW  398  14.361  14.161  11.901
99520SOL    HW1  399  14.455  14.164  11.883
99520SOL    HW2  400  14.355  14.125  11.990
99521SOL     OW  401   5.046   0.389   2.183
99521SOL    HW1  402   5.012   0.300   2.171
99521SOL    HW2  403   5.140   0.377   2.197
99522SOL     OW  404   8.463   0.277  13.581
99522SOL    HW1  405   8.422   0.339  13.521
99522SOL    HW2  406   8.403   0.271  13.655
99523SOL     OW  407   1.875   4.803   9.991
99523SOL    HW1  408   1.881   4.846   9.906
99523SOL    HW2  409   1.950   4.836  10.040
99524SOL     OW  410   6.344   2.484   8.554
99524SOL    HW1  411   6.255   2.496   8.521
99524SOL    HW2  412   6.370   2.570   8.587
99525SOL     OW  413   6.924   7.607   0.721
99525SOL    HW1  414   6.896   7.583   0.809
99525SOL    HW2  415   6.861   7.673   0.692
99526SOL     OW  416   6.002  14.850   3.374
99526SOL    HW1  417   6.088  14.825   3.339
99526SOL    HW2  418   6.022   0.018   3.455
99527SOL     OW  419  11.565  14.558   9.636
99527SOL    HW1  420  11.495  14.542   9.573
99527SOL    HW2  421  11.609  14.637   9.605
99528SOL     OW  422  10.100   2.501   7.984
99528SOL    HW1  423  10.188   2.465   7.985
99528SOL    HW2  424  10.069   2.492   8.074
99529SOL     OW  425   7.191   8.134   8.483
99529SOL    HW1  426   7.235   8.203   8.534
99529SOL    HW2  427   7.262   8.088   8.439
99530SOL     OW  428   4.482   3.265   7.510
99530SOL    HW1  429   4.472   3.360   7.508
99530SOL    HW2  430   4.465   3.241   7.601
99531SOL     OW  431   7.659   5.933   0.832
99531SOL    HW1  432   7.635   6.023   0.809
99531SOL    HW2  433   7.618   5.918   0.917
99532SOL     OW  434   5.678  14.588   4.503
99532SOL    HW1  435   5.600  14.644   4.503
99532SOL    HW2  436   5.651  14.509   4.457
99533SOL     OW  437   9.947   4.940  11.765
99533SOL    HW1  438   9.869   4.921  11.818
99533SOL    HW2  439  10.019   4.905  11.817
99534SOL     OW  440   0.818  12.518   9.622
99534SOL    HW1  441   0.896  12.506   9.568
99534SOL    HW2  442   0.750  12.469   9.577
99535SOL     OW  443   2.613  11.737   6.490
99535SOL    HW1  444   2.542  11.760   6.551
99535SOL    HW2  445   2.679  11.805   6.502
99536SOL     OW  446   6.418   0.000   7.403
99536SOL    HW1  447   6.494  14.869   7.460
99536SOL    HW2  448   6.450  14.858   7.316
99537SOL     OW  449   6.510   3.589   1.617
99537SOL    HW1  450   6.434   3.531   1.615
99537SOL    HW2  451   6.585   3.530   1.622
99538SOL     OW  452   9.920   5.596   0.866
99538SOL    HW1  453   9.838   5.627   0.904
99538SOL    HW2  454   9.971   5.564   0.941
99539SOL     OW  455   6.581   0.831   5.341
99539SOL    HW1  456   6.486   0.843   5.333
99539SOL    HW2  457   6.616   0.920   5.343
99540SOL     OW  458   7.985   5.565   5.120
99540SOL    HW1  459   8.055   5.586   5.058
99540SOL    HW2  460   7.904   5.579   5.071
99541SOL     OW  461   5.098   0.985   2.884
99541SOL    HW1  462   5.142   0.992   2.968
99541SOL    HW2  463   5.045   1.065   2.878
99542SOL     OW  464   4.680  14.762  12.865
99542SOL    HW1  465   4.598  14.714  12.867
99542SOL    HW2  466   4.660  14.844  12.820
99543SOL     OW  467  12.010   4.829   5.610
99543SOL    HW1  468  12.092   4.823   5.658
99543SOL    HW2  469  12.029   4.888   5.538
99544SOL     OW  470   8.372  13.692  13.319
99544SOL    HW1  471   8.296  13.732  13.361
99544SOL    HW2  472   8.444  13.704  13.382
99545SOL     OW  473   7.057  13.806  13.558
99545SOL    HW1  474   6.993  13.735  13.561
99545SOL    HW2  475   7.107  13.789  13.478
99546SOL     OW  476   9.633   9.953   8.115
99546SOL    HW1  477   9.676  10.025   8.067
99546SOL    HW2  478   9.541   9.960   8.091
99547SOL     OW  479  11.153   4.519   8.621
99547SOL    HW1  480  11.194   4.537   8.536
99547SOL    HW2  481  11.209   4.564   8.684
99548SOL     OW  482  14.392   9.566   2.219
99548SOL    HW1  483  14.410   9.480   2.256
99548SOL    HW2  484  14.296   9.573   2.223
99549SOL     OW  485   5.074   9.403  10.134
99549SOL    HW1  486   5.157   9.449  10.121
99549SOL    HW2  487   5.068   9.392  10.229
99550SOL     OW  488  13.790  13.966   9.618
99550SOL    HW1  489  13.823  14.023   9.549
99550SOL    HW2  490  13.698  13.991   9.628
99551SOL     OW  491  13.878   7.890   2.322
99551SOL    HW1  492  13.837   7.827   2.380
99551SOL    HW2  493  13.852   7.864   2.234
99552SOL     OW  494   9.800   0.441   7.602
99552SOL    HW1  495   9.762   0.366   7.556
99552SOL    HW2  496   9.895   0.430   7.592
99553SOL     OW  497   3.504  13.358  10.269
99553SOL    HW1  498   3.439  13.413  10.225
99553SOL    HW2  499   3.565  13.420  10.308
99554SOL     OW  500   0.513   6.434   9.888
99554SOL    HW1  501   0.577   6.422   9.958
99554SOL    HW2  502   0.487   6.345   9.864
99555SOL     OW  503   3.032  14.448  13.846
99555SOL    HW1  504   3.027  14.529  13.897
99555SOL    HW2  505   3.086  14.389  13.899
99556SOL     OW  506   7.062   0.398   7.464
99556SOL    HW1  507   7.058   0.321   7.408
99556SOL    HW2  508   7.008   0.464   7.419
99557SOL     OW  509   0.827  11.537   3.778
99557SOL    HW1  510   0.873  11.617   3.756
99557SOL    HW2  511   0.785  11.555   3.863
99558SOL     OW  512  14.262   9.592   3.692
99558SOL    HW1  513  14.292   9.670   3.646
99558SOL    HW2  514  14.336   9.568   3.748
99559SOL     OW  515   7.391   4.260  13.510
99559SOL    HW1  516   7.323   4.319  13.479
99559SOL    HW2  517   7.369   4.175  13.471
99560SOL     OW  518  12.275   0.446   8.386
99560SOL    HW1  519  12.352   0.433   8.442
99560SOL    HW2  520  12.304   0.511   8.321
99561SOL     OW  521   0.159  10.247  12.077
99561SOL    HW1  522   0.076  10.200  12.077
99561SOL    HW2  523   0.147  10.318  12.015
99562SOL     OW  524  11.731   3.812   4.716
99562SOL    HW1  525  11.713   3.725   4.753
99562SOL    HW2  526  11.813   3.802   4.669
99563SOL     OW  527   8.791   1.021   6.561
99563SOL    HW1  528   8.730   1.055   6.626
99563SOL    HW2  529   8.775   1.073   6.483
99564SOL     OW  530   0.186  13.499   0.760
99564SOL    HW1  531   0.227  13.469   0.679
99564SOL    HW2  532   0.248  13.476   0.829
99565SOL     OW  533   1.619   0.723  12.971
99565SOL    HW1  534   1.533   0.766  12.962
99565SOL    HW2  535   1.676   0.793  13.004
99566SOL     OW  536   5.478   5.745   8.203
99566SOL    HW1  537   5.392   5.740   8.162
99566SOL    HW2  538   5.525   5.669   8.170
99567SOL     OW  539   6.132   0.697   4.330
99567SOL    HW1  540   6.119   0.765   4.264
99567SOL    HW2  541   6.047   0.690   4.373
99568SOL     OW  542  11.174   2.748   2.603
99568SOL    HW1  543  11.093   2.774   2.646
99568SOL    HW2  544  11.158   2.762   2.510
99569SOL     OW  545   0.909   8.312   0.803
99569SOL    HW1  546   0.977   8.244   0.796
99569SOL    HW2  547   0.945   8.374   0.867
99570SOL     OW  548   0.894  10.671   9.258
99570SOL    HW1  549   0.852  10.585   9.258
99570SOL    HW2  550   0.841  10.724   9.198
99571SOL     OW  551  12.819   5.761   0.085
99571SOL    HW1  552  12.764   5.694   0.045
99571SOL    HW2  553  12.766   5.796   0.156
99572SOL     OW  554   5.953   0.374   2.913
99572SOL    HW1  555   5.930   0.311   2.845
99572SOL    HW2  556   5.958   0.458   2.867
99573SOL     OW  557  12.318  12.030  14.109
99573SOL    HW1  558  12.292  12.035  14.017
99573SOL    HW2  559  12.371  12.108  14.123
99574SOL     OW  560   1.252   9.655  10.704
99574SOL    HW1  561   1.284   9.693  10.785
99574SOL    HW2  562   1.329   9.648  10.648
99575SOL     OW  563   2.609  12.258   3.105
99575SOL    HW1  564   2.618  12.223   3.016
99575SOL    HW2  565   2.683  12.318   3.115
99576SOL     OW  566   7.336   0.791   0.375
99576SOL    HW1  567   7.350   0.794   0.470
99576SOL    HW2  568   7.293   0.873   0.354
99577SOL     OW  569   7.371   9.700   3.699
99577SOL    HW1  570   7.358   9.609   3.673
99577SOL    HW2  571   7.466   9.711   3.702
99578SOL     OW  572  14.096   1.376   1.318
99578SOL    HW1  573  14.040   1.308   1.354
99578SOL    HW2  574  14.165   1.329   1.272
99579SOL     OW  575   9.854   8.722   9.382
99579SOL    HW1  576   9.775   8.767   9.353
99579SOL    HW2  577   9.826   8.632   9.399
99580SOL     OW  578  11.114   7.818   4.096
99580SOL    HW1  579  11.198   7.806   4.051
99580SOL    HW2  580  11.132   7.794   4.187
99581SOL     OW  581  10.154   8.229   5.292
99581SOL    HW1  582  10.247   8.246   5.282
99581SOL    HW2  583  10.144   8.135   5.275
99582SOL     OW  584   5.022   1.774   0.973
99582SOL    HW1  585   4.989   1.723   1.047
99582SOL    HW2  586   5.033   1.710   0.903
99583SOL     OW  587   7.250   2.527   2.260
99583SOL    HW1  588   7.268   2.523   2.166
99583SOL    HW2  589   7.155   2.530   2.267
99584SOL     OW  590   3.583  13.774   9.405
99584SOL    HW1  591   3.645  13.733   9.344
99584SOL    HW2  592   3.567  13.706   9.471
99585SOL     OW  593   3.356  10.989  11.389
99585SOL    HW1  594   3.276  10.946  11.418
99585SOL    HW2  595   3.426  10.926  11.410
99586SOL     OW  596  14.200   0.610   8.414
99586SOL    HW1  597  14.280   0.647   8.375
99586SOL    HW2  598  14.129   0.665   8.382
99587SOL     OW  599  14.612   2.799   8.209
99587SOL    HW1  600  14.591   2.748   8.131
99587SOL    HW2  601  14.690   2.849   8.184
99588SOL     OW  602   3.572  12.922  13.455
99588SOL    HW1  603   3.571  13.016  13.437
99588SOL    HW2  604   3.501  12.909  13.519
99589SOL     OW  605   3.895  13.956   5.632
99589SOL    HW1  606   3.850  13.969   5.715
99589SOL    HW2  607   3.988  13.959   5.654
99590SOL     OW  608  12.410   8.564   5.898
99590SOL    HW1  609  12.498   8.536   5.925
99590SOL    HW2  610  12.423   8.650   5.858
99591SOL     OW  611   1.048  11.965  13.215
99591SOL    HW1  612   1.095  12.007  13.142
99591SOL    HW2  613   1.073  12.015  13.292
99592SOL     OW  614  14.570  10.610   9.317
99592SOL    HW1  615  14.645  10.660   9.350
99592SOL    HW2  616  14.501  10.626   9.381
99593SOL     OW  617   7.087   1.831   6.136
99593SOL    HW1  618   7.115   1.793   6.053
99593SOL    HW2  619   7.148   1.902   6.152
99594SOL     OW  620   2.886  12.998   9.145
99594SOL    HW1  621   2.916  12.921   9.194
99594SOL    HW2  622   2.841  13.051   9.210
99595SOL     OW  623  11.924   5.589   4.809
99595SOL    HW1  624  11.943   5.664   4.753
99595SOL    HW2  625  11.830   5.597   4.827
99596SOL     OW  626   8.286   8.083   0.526
99596SOL    HW1  627   8.292   8.058   0.618
99596SOL    HW2  628   8.334   8.166   0.520
99597SOL     OW  629   9.705   8.963  11.253
99597SOL    HW1  630   9.769   8.898  11.282
99597SOL    HW2  631   9.714   8.964  11.157
99598SOL     OW  632   3.946   3.113  10.243
99598SOL    HW1  633   3.945   3.207  10.261
99598SOL    HW2  634   3.855   3.085  10.258
99599SOL     OW  635   9.911   6.930  10.596
99599SOL    HW1  636   9.936   6.863  10.659
99599SOL    HW2  637   9.988   6.986  10.587
99600SOL     OW  638  10.393   7.240   2.553
99600SOL    HW1  639  10.388   7.176   2.624
99600SOL    HW2  640  10.367   7.323   2.593
99601SOL     OW  641  13.765   2.995  14.230
99601SOL    HW1  642  13.783   3.085  14.256
99601SOL    HW2  643  13.755   2.947  14.312
99602SOL     OW  644   7.948  14.724   4.593
99602SOL    HW1  645   8.023  14.674   4.560
99602SOL    HW2  646   7.925  14.682   4.675
99603SOL     OW  647  11.223  10.927  12.257
99603SOL    HW1  648  11.138  10.884  12.260
99603SOL    HW2  649  11.248  10.939  12.348
99604SOL     OW  650   4.228  12.254   0.896
99604SOL    HW1  651   4.241  12.256   0.991
99604SOL    HW2  652   4.207  12.163   0.877
99605SOL     OW  653  10.652  10.742   7.932
99605SOL    HW1  654  10.702  10.817   7.966
99605SOL    HW2  655  10.581  10.782   7.882
99606SOL     OW  656   8.057  13.642   2.068
99606SOL    HW1  657   8.061  13.691   2.150
99606SOL    HW2  658   8.090  13.704   2.002
99607SOL     OW  659  10.957   0.717  13.588
99607SOL    HW1  660  10.940   0.788  13.527
99607SOL    HW2  661  10.874   0.705  13.634
99608SOL     OW  662   4.037   3.694   4.095
99608SOL    HW1  663   4.044   3.652   4.010
99608SOL    HW2  664   4.126   3.722   4.116
99609SOL     OW  665   6.549  12.467  11.527
99609SOL    HW1  666   6.571  12.472  11.620
99609SOL    HW2  667   6.455  12.448  11.525
99610SOL     OW  668  14.090   8.754   6.279
99610SOL    HW1  669  14.186   8.752   6.282
99610SOL    HW2  670  14.066   8.666   6.250
99611SOL     OW  671  13.901  13.109  12.527
99611SOL    HW1  672  13.893  13.158  12.609
99611SOL    HW2  673  13.976  13.148  12.483
99612SOL     OW  674   7.250   9.446   0.887
99612SOL    HW1  675   7.339   9.462   0.918
99612SOL    HW2  676   7.233   9.516   0.824
99613SOL     OW  677  12.963  13.987   1.042
99613SOL    HW1  678  12.917  13.967   0.961
99613SOL    HW2  679  12.958  14.082   1.050
99614SOL     OW  680  14.570   4.716   2.365
99614SOL    HW1  681  14.493   4.660   2.360
99614SOL    HW2  682  14.542   4.790   2.420
99615SOL     OW  683   2.762   1.279   3.907
99615SOL    HW1  684   2.780   1.214   3.839
99615SOL    HW2  685   2.844   1.287   3.955
99616SOL     OW  686   5.064   8.574  13.667
99616SOL    HW1  687   5.071   8.527  13.584
99616SOL    HW2  688   5.124   8.647  13.657
99617SOL     OW  689  14.337   2.745   7.590
99617SOL    HW1  690  14.261   2.738   7.532
99617SOL    HW2  691  14.333   2.666   7.645
99618SOL     OW  692   3.815  10.943   2.491
99618SOL    HW1  693   3.880  11.013   2.499
99618SOL    HW2  694   3.732  10.988   2.478
99619SOL     OW  695  11.703   6.376   1.437
99619SOL    HW1  696  11.799   6.371   1.436
99619SOL    HW2  697  11.675   6.319   1.366
99620SOL     OW  698   8.725   4.481   0.952
99620SOL    HW1  699   8.745   4.390   0.973
99620SOL    HW2  700   8.656   4.476   0.886
99621SOL     OW  701   5.114  11.116   5.975
99621SOL    HW1  702   5.092  11.025   5.957
99621SOL    HW2  703   5.037  11.151   6.020
99622SOL     OW  704   3.782   9.153  14.600
99622SOL    HW1  705   3.844   9.224  14.617
99622SOL    HW2  706   3.809   9.082  14.658
99623SOL     OW  707   8.992   0.898  13.065
99623SOL    HW1  708   8.919   0.900  13.128
99623SOL    HW2  709   8.960   0.843  12.993
99624SOL     OW  710   9.772  11.741   6.485
99624SOL    HW1  711   9.831  11.691   6.542
99624SOL    HW2  712   9.825  11.815   6.456
99625SOL     OW  713   0.512   9.926   8.669
99625SOL    HW1  714   0.468   9.842   8.680
99625SOL    HW2  715   0.527   9.957   8.758
99626SOL     OW  716   8.801   6.255   9.963
99626SOL    HW1  717   8.845   6.170   9.969
99626SOL    HW2  718   8.713   6.238   9.999
99627SOL     OW  719  10.250   6.533   3.430
99627SOL    HW1  720  10.211   6.473   3.493
99627SOL    HW2  721  10.225   6.620   3.462
99628SOL     OW  722  14.822   4.869   1.224
99628SOL    HW1  723  14.759   4.848   1.155
99628SOL    HW2  724  14.859   4.953   1.199
99629SOL     OW  725   2.576  12.160   0.231
99629SOL    HW1  726   2.612  12.095   0.290
99629SOL    HW2  727   2.630  12.238   0.246
99630SOL     OW  728   1.289   7.043   4.215
99630SOL    HW1  729   1.229   6.975   4.243
99630SOL    HW2  730   1.245   7.125   4.239
99631SOL     OW  731  12.114  14.161   7.839
99631SOL    HW1  732  12.165  14.191   7.914
99631SOL    HW2  733  12.024  14.160   7.870
99632SOL     OW  734   1.857   6.910   1.912
99632SOL    HW1  735   1.812   6.950   1.838
99632SOL    HW2  736   1.787   6.877   1.968
99633SOL     OW  737   4.452   7.934   6.778
99633SOL    HW1  738   4.464   7.947   6.683
99633SOL    HW2  739   4.534   7.893   6.806
99634SOL     OW  740   0.131  11.395   3.154
99634SOL    HW1  741   0.141  11.350   3.070
99634SOL    HW2  742   0.127  11.488   3.131
99635SOL     OW  743   1.637   1.219  12.660
99635SOL    HW1  744   1.572   1.267  12.711
99635SOL    HW2  745   1.703   1.192  12.724
99636SOL     OW  746   7.240   4.306  11.220
99636SOL    HW1  747   7.240   4.331  11.127
99636SOL    HW2  748   7.147   4.304  11.243
99637SOL     OW  749   5.712   8.965   5.820
99637SOL    HW1  750   5.618   8.946   5.830
99637SOL    HW2  751   5.741   8.903   5.753
99638SOL     OW  752  14.557   4.434  13.912
99638SOL    HW1  753  14.608   4.458  13.990
99638SOL    HW2  754  14.471   4.473  13.927
99639SOL     OW  755  10.348   9.380   6.607
99639SOL    HW1  756  10.281   9.316   6.580
99639SOL    HW2  757  10.386   9.342   6.687
99640SOL     OW  758   3.148  13.349  11.490
99640SOL    HW1  759   3.081  13.414  11.510
99640SOL    HW2  760   3.213  13.397  11.438
99641SOL     OW  761   7.900   4.696   1.943
99641SOL    HW1  762   7.871   4.740   2.022
99641SOL    HW2  763   7.939   4.766   1.890
99642SOL     OW  764  10.579   1.854  12.723
99642SOL    HW1  765  10.662   1.894  12.748
99642SOL    HW2  766  10.594   1.760  12.733
99643SOL     OW  767   3.086   0.133   6.757
99643SOL    HW1  768   3.134   0.131   6.674
99643SOL    HW2  769   3.054   0.223   6.765
99644SOL     OW  770   6.222   5.246  12.418
99644SOL    HW1  771   6.208   5.153  12.439
99644SOL    HW2  772   6.288   5.275  12.481
99645SOL     OW  773   6.241   6.458   9.089
99645SOL    HW1  774   6.262   6.379   9.038
99645SOL    HW2  775   6.314   6.517   9.071
99646SOL     OW  776   9.551  10.635  14.802
99646SOL    HW1  777   9.580  10.723  14.780
99646SOL    HW2  778   9.617  10.577  14.764
99647SOL     OW  779   1.384   3.360  13.695
99647SOL    HW1  780   1.374   3.327  13.784
99647SOL    HW2  781   1.415   3.284  13.645
99648SOL     OW  782  11.976   0.409   7.174
99648SOL    HW1  783  11.957   0.402   7.080
99648SOL    HW2  784  11.983   0.503   7.190
99649SOL     OW  785   8.928   1.283  11.586
99649SOL    HW1  786   8.902   1.230  11.511
99649SOL    HW2  787   8.934   1.372  11.551
99650SOL     OW  788   9.956   9.094   0.371
99650SOL    HW1  789  10.004   9.018   0.338
99650SOL    HW2  790   9.985   9.103   0.461
99651SOL     OW  791   5.815  12.939   0.812
99651SOL    HW1  792   5.727  12.906   0.795
99651SOL    HW2  793   5.842  12.977   0.728
99652SOL     OW  794  14.599   7.777   0.338
99652SOL    HW1  795  14.677   7.753   0.287
99652SOL    HW2  796  14.597   7.872   0.334
99653SOL     OW  797  10.138  12.448   3.055
99653SOL    HW1  798  10.127  12.541   3.072
99653SOL    HW2  799  10.232  12.435   3.048
99654SOL     OW  800  13.618   9.581   8.813
99654SOL    HW1  801  13.669   9.506   8.843
99654SOL    HW2  802  13.584   9.620   8.893
99655SOL     OW  803  14.106   4.680  14.345
99655SOL    HW1  804  14.152   4.644  14.421
99655SOL    HW2  805  14.030   4.623  14.334
99656SOL     OW  806   1.220   1.866  11.763
99656SOL    HW1  807   1.183   1.782  11.791
99656SOL    HW2  808   1.314   1.849  11.757
99657SOL     OW  809   8.406   2.734  12.695
99657SOL    HW1  810   8.361   2.750  12.611
99657SOL    HW2  811   8.367   2.654  12.729
99658SOL     OW  812   7.026   9.420  14.840
99658SOL    HW1  813   7.115   9.386  14.847
99658SOL    HW2  814   7.027   9.503   0.009
99659SOL     OW  815   8.508   6.803   0.626
99659SOL    HW1  816   8.560   6.841   0.696
99659SOL    HW2  817   8.554   6.827   0.546
99660SOL     OW  818   7.079  13.862   9.196
99660SOL    HW1  819   7.040  13.830   9.115
99660SOL    HW2  820   7.170  13.833   9.192
99661SOL     OW  821  14.487  11.310  13.409
99661SOL    HW1  822  14.582  11.302  13.398
99661SOL    HW2  823  14.463  11.235  13.463
99662SOL     OW  824  13.947   7.046   1.128
99662SOL    HW1  825  14.001   7.110   1.081
99662SOL    HW2  826  13.994   7.029   1.210
99663SOL     OW  827   9.172   8.007  12.106
99663SOL    HW1  828   9.083   8.004  12.072
99663SOL    HW2  829   9.211   7.923  12.079
99664SOL     OW  830  11.388  13.696   8.370
99664SOL    HW1  831  11.469  13.686   8.419
99664SOL    HW2  832  11.319  13.688   8.436
99665SOL     OW  833   3.935   0.084  14.635
99665SOL    HW1  834   3.924   0.174  14.605
99665SOL    HW2  835   3.907   0.030  14.560
99666SOL     OW  836   2.191  14.479   3.222
99666SOL    HW1  837   2.187  14.446   3.133
99666SOL    HW2  838   2.105  14.458   3.260
99667SOL     OW  839   4.772   7.281   6.997
99667SOL    HW1  840   4.687   7.238   6.996
99667SOL    HW2  841   4.753   7.371   7.026
99668SOL     OW  842  11.989   2.598   9.669
99668SOL    HW1  843  11.954   2.684   9.693
99668SOL    HW2  844  11.993   2.550   9.752
99669SOL     OW  845  10.576   2.045  11.727
99669SOL    HW1  846  10.551   2.059  11.818
99669SOL    HW2  847  10.660   2.090  11.719
99670SOL     OW  848  14.094   4.117   6.192
99670SOL    HW1  849  14.123   4.163   6.270
99670SOL    HW2  850  14.149   4.152   6.122
99671SOL     OW  851   8.283   1.507   1.003
99671SOL    HW1  852   8.314   1.469   1.085
99671SOL    HW2  853   8.361   1.513   0.948
99672SOL     OW  854  14.751  11.292   6.776
99672SOL    HW1  855  14.686  11.293   6.845
99672SOL    HW2  856  14.726  11.217   6.721
99673SOL     OW  857   8.383  12.114   7.616
99673SOL    HW1  858   8.334  12.191   7.643
99673SOL    HW2  859   8.443  12.145   7.548
99674SOL     OW  860   0.961   9.062  12.171
99674SOL    HW1  861   0.979   9.122  12.098
99674SOL    HW2  862   0.954   9.120  12.247
99675SOL     OW  863   2.947   0.718   7.419
99675SOL    HW1  864   3.019   0.751   7.473
99675SOL    HW2  865   2.905   0.651   7.474
99676SOL     OW  866   8.840  11.443  11.234
99676SOL    HW1  867   8.915  11.488  11.194
99676SOL    HW2  868   8.810  11.502  11.303
99677SOL     OW  869   5.276   6.718   8.648
99677SOL    HW1  870   5.231   6.636   8.624
99677SOL    HW2  871   5.356   6.689   8.692
99678SOL     OW  872   6.421  11.647   2.875
99678SOL    HW1  873   6.485  11.686   2.815
99678SOL    HW2  874   6.429  11.699   2.955
99679SOL     OW  875   3.839  13.561  12.797
99679SOL    HW1  876   3.884  13.645  12.801
99679SOL    HW2  877   3.876  13.510  12.869
99680SOL     OW  878   8.214  11.754   5.090
99680SOL    HW1  879   8.248  11.718   5.172
99680SOL    HW2  880   8.139  11.698   5.069
99681SOL     OW  881  12.051  12.968   3.095
99681SOL    HW1  882  12.076  13.044   3.148
99681SOL    HW2  883  11.984  12.924   3.146
99682SOL     OW  884  12.518   1.346   5.215
99682SOL    HW1  885  12.557   1.431   5.236
99682SOL    HW2  886  12.521   1.297   5.296
99683SOL     OW  887  14.004   3.563  12.219
99683SOL    HW1  888  14.086   3.533  12.180
99683SOL    HW2  889  13.936   3.508  12.178
99684SOL     OW  890  10.471  10.942   0.234
99684SOL    HW1  891  10.485  10.851   0.261
99684SOL    HW2  892  10.392  10.968   0.282
99685SOL     OW  893  12.093   2.448   4.087
99685SOL    HW1  894  12.113   2.540   4.102
99685SOL    HW2  895  12.174   2.401   4.108
99686SOL     OW  896  11.875  14.446   8.430
99686SOL    HW1  897  11.808  14.453   8.498
99686SOL    HW2  898  11.937  14.381   8.464
99687SOL     OW  899  10.509  12.455   0.971
99687SOL    HW1  900  10.549  12.430   0.887
99687SOL    HW2  901  10.428  12.404   0.974
99688SOL     OW  902   6.672   5.460   2.169
99688SOL    HW1  903   6.702   5.372   2.146
99688SOL    HW2  904   6.671   5.507   2.086
99689SOL     OW  905   9.798   1.374  11.538
99689SOL    HW1  906   9.837   1.324  11.609
99689SOL    HW2  907   9.834   1.462  11.547
99690SOL     OW  908   4.367   6.379  14.136
99690SOL    HW1  909   4.276   6.356  14.114
99690SOL    HW2  910   4.363   6.473  14.157
99691SOL     OW  911   8.595   2.680  13.701
99691SOL    HW1  912   8.534   2.644  13.766
99691SOL    HW2  913   8.621   2.765  13.736
99692SOL     OW  914  14.406  12.159   3.356
99692SOL    HW1  915  14.335  12.187   3.414
99692SOL    HW2  916  14.438  12.240   3.316
99693SOL     OW  917   5.415   4.715   9.737
99693SOL    HW1  918   5.435   4.788   9.796
99693SOL    HW2  919   5.327   4.688   9.761
99694SOL     OW  920  14.690   5.502  10.472
99694SOL    HW1  921  14.697   5.407  10.461
99694SOL    HW2  922  14.707   5.538  10.385
99695SOL     OW  923   9.824   8.080   7.446
99695SOL    HW1  924   9.747   8.093   7.391
99695SOL    HW2  925   9.898   8.085   7.385
99696SOL     OW  926  12.292  12.199  10.617
99696SOL    HW1  927  12.299  12.110  10.652
99696SOL    HW2  928  12.348  12.251  10.675
99697SOL     OW  929   0.283   0.290  10.791
99697SOL    HW1  930   0.193   0.283  10.822
99697SOL    HW2  931   0.278   0.344  10.712
99698SOL     OW  932   1.675   5.617   2.605
99698SOL    HW1  933   1.761   5.652   2.579
99698SOL    HW2  934   1.695   5.553   2.673
99699SOL     OW  935   6.934   1.455   2.480
99699SOL    HW1  936   6.865   1.433   2.417
99699SOL    HW2  937   6.947   1.376   2.531
99700SOL     OW  938  13.057   7.048  12.045
99700SOL    HW1  939  13.094   7.132  12.074
99700SOL    HW2  940  12.974   7.041  12.093
99701SOL     OW  941   7.889   3.807   9.338
99701SOL    HW1  942   7.905   3.882   9.395
99701SOL    HW2  943   7.895   3.731   9.396
99702SOL     OW  944   6.178  14.142   2.615
99702SOL    HW1  945   6.172  14.167   2.523
99702SOL    HW2  946   6.106  14.189   2.657
99703SOL     OW  947   3.957  14.404   4.939
99703SOL    HW1  948   4.038  14.445   4.909
99703SOL    HW2  949   3.889  14.468   4.920
99704SOL     OW  950   3.824  12.951  14.049
99704SOL    HW1  951   3.863  12.866  14.070
99704SOL    HW2  952   3.854  13.010  14.118
99705SOL     OW  953   5.082  10.288   7.755
99705SOL    HW1  954   5.073  10.217   7.691
99705SOL    HW2  955   5.001  10.285   7.806
99706SOL     OW  956  13.578   0.594  13.286
99706SOL    HW1  957  13.572   0.578  13.380
99706SOL    HW2  958  13.595   0.688  13.278
99707SOL     OW  959   3.664   7.080   3.980
99707SOL    HW1  960   3.668   7.070   3.884
99707SOL    HW2  961   3.751   7.112   4.004
99708SOL     OW  962  13.331   4.010  11.611
99708SOL    HW1  963  13.351   3.923  11.575
99708SOL    HW2  964  13.406   4.031  11.666
99709SOL     OW  965   2.559  12.088   7.636
99709SOL    HW1  966   2.553  12.177   7.602
99709SOL    HW2  967   2.483  12.043   7.600
99710SOL     OW  968  12.595   9.382   4.699
99710SOL    HW1  969  12.679   9.404   4.738
99710SOL    HW2  970  12.530   9.426   4.754
99711SOL     OW  971  11.247  14.289   8.241
99711SOL    HW1  972  11.280  14.344   8.312
99711SOL    HW2  973  11.276  14.201   8.263
99712SOL     OW  974  10.484   0.042   5.228
99712SOL    HW1  975  10.469  14.855   5.296
99712SOL    HW2  976  10.441   0.120   5.261
99713SOL     OW  977   2.137   5.563   7.961
99713SOL    HW1  978   2.043   5.576   7.945
99713SOL    HW2  979   2.152   5.471   7.940
99714SOL     OW  980   7.912  13.381  12.387
99714SOL    HW1  981   7.900  13.366  12.293
99714SOL    HW2  982   7.993  13.335  12.408
99715SOL     OW  983   3.830   7.898   8.485
99715SOL    HW1  984   3.779   7.889   8.404
99715SOL    HW2  985   3.921   7.889   8.457
99716SOL     OW  986  10.118   5.472   5.901
99716SOL    HW1  987  10.183   5.531   5.938
99716SOL    HW2  988  10.168   5.397   5.869
99717SOL     OW  989   3.572   1.592  12.295
99717SOL    HW1  990   3.592   1.503  12.326
99717SOL    HW2  991   3.602   1.649  12.366
99718SOL     OW  992   2.329   6.917   8.485
99718SOL    HW1  993   2.319   6.927   8.391
99718SOL    HW2  994   2.421   6.892   8.497
99719SOL     OW  995   5.409   0.837   1.129
99719SOL    HW1  996   5.334   0.779   1.135
99719SOL    HW2  997   5.384   0.902   1.064
99720SOL     OW  998   3.998  10.998  10.637
99720SOL    HW1  999   3.967  11.056  10.568
99720SOL    HW2 1000   4.020  10.917  10.592
99721SOL     OW 1001  10.141  13.913   4.466
99721SOL    HW1 1002  10.120  13.828   4.426
99721SOL    HW2 1003  10.128  13.977   4.396
99722SOL     OW 1004   8.495   7.607   5.302
99722SOL    HW1 1005   8.546   7.676   5.345
99722SOL    HW2 1006   8.481   7.641   5.213
99723SOL     OW 1007  14.384   6.303  12.363
99723SOL    HW1 1008  14.419   6.216  12.379
99723SOL    HW2 1009  14.458   6.354  12.331
99724SOL     OW 1010   7.984  11.129  12.187
99724SOL    HW1 1011   7.968  11.066  12.258
99724SOL    HW2 1012   8.079  11.128  12.174
99725SOL     OW 1013   6.337   4.363  11.793
99725SOL    HW1 1014   6.372   4.374  11.705
99725SOL    HW2 1015   6.275   4.436  11.803
99726SOL     OW 1016   8.995   0.358   1.960
99726SOL    HW1 1017   9.005   0.432   2.021
99726SOL    HW2 1018   8.900   0.342   1.958
99727SOL     OW 1019  11.252   7.065  10.965
99727SOL    HW1 1020  11.333   7.014  10.966
99727SOL    HW2 1021  11.254   7.116  11.046
99728SOL     OW 1022   3.297   5.613  12.551
99728SOL    HW1 1023   3.271   5.694  12.509
99728SOL    HW2 1024   3.392   5.621  12.563
99729SOL     OW 1025   6.445  10.308   7.547
99729SOL    HW1 1026   6.494  10.375   7.498
99729SOL    HW2 1027   6.360  10.305   7.504
99730SOL     OW 1028   1.689   7.200  10.719
99730SOL    HW1 1029   1.657   7.115  10.750
99730SOL    HW2 1030   1.781   7.201  10.744
99731SOL     OW 1031   6.017   1.805   7.791
99731SOL    HW1 1032   5.995   1.762   7.708
99731SOL    HW2 1033   6.072   1.880   7.766
99732SOL     OW 1034  10.450  11.542   9.727
99732SOL    HW1 1035  10.378  11.604   9.722
99732SOL    HW2 1036  10.528  11.596   9.739
99733SOL     OW 1037   7.064  13.489   1.938
99733SOL    HW1 1038   7.137  13.457   1.886
99733SOL    HW2 1039   6.986  13.458   1.893
99734SOL     OW 1040  10.728   3.035  13.252
99734SOL    HW1 1041  10.808   3.034  13.200
99734SOL    HW2 1042  10.662   2.998  13.193
99735SOL     OW 1043   3.324  12.736   3.081
99735SOL    HW1 1044   3.268  12.802   3.122
99735SOL    HW2 1045   3.268  12.692   3.018
99736SOL     OW 1046   2.161   2.731   9.793
99736SOL    HW1 1047   2.086   2.674   9.776
99736SOL    HW2 1048   2.177   2.774   9.709
99737SOL     OW 1049  14.440  11.228   2.954
99737SOL    HW1 1050  14.485  11.201   2.874
99737SOL    HW2 1051  14.507  11.223   3.022
99738SOL     OW 1052   1.985   0.412  14.076
99738SOL    HW1 1053   2.070   0.367  14.069
99738SOL    HW2 1054   2.005   0.495  14.118
99739SOL     OW 1055   2.435   3.370   1.799
99739SOL    HW1 1056   2.486   3.381   1.880
99739SOL    HW2 1057   2.374   3.299   1.819
99740SOL     OW 1058  13.910  11.391   6.478
99740SOL    HW1 1059  13.899  11.473   6.525
99740SOL    HW2 1060  13.989  11.404   6.425
99741SOL     OW 1061   2.716   3.158   9.097
99741SOL    HW1 1062   2.701   3.230   9.035
99741SOL    HW2 1063   2.683   3.081   9.052
99742SOL     OW 1064   2.673   9.952   8.384
99742SOL    HW1 1065   2.611   9.917   8.320
99742SOL    HW2 1066   2.719   9.876   8.419
99743SOL     OW 1067   7.220   6.015   1.702
99743SOL    HW1 1068   7.256   6.103   1.698
99743SOL    HW2 1069   7.247   5.974   1.619
99744SOL     OW 1070   4.484  12.764   2.686
99744SOL    HW1 1071   4.453  12.849   2.718
99744SOL    HW2 1072   4.414  12.703   2.710
99745SOL     OW 1073   5.882   6.382   6.518
99745SOL    HW1 1074   5.838   6.371   6.602
99745SOL    HW2 1075   5.947   6.451   6.533
99746SOL     OW 1076   5.856   7.019   3.933
99746SOL    HW1 1077   5.940   7.064   3.939
99746SOL    HW2 1078   5.825   7.037   3.844
99747SOL     OW 1079   2.117   4.171   9.316
99747SOL    HW1 1080   2.055   4.142   9.248
99747SOL    HW2 1081   2.062   4.196   9.390
99748SOL     OW 1082  11.540  11.003   9.673
99748SOL    HW1 1083  11.528  11.080   9.729
99748SOL    HW2 1084  11.520  10.928   9.729
99749SOL     OW 1085   2.375  14.785   7.460
99749SOL    HW1 1086   2.297  14.750   7.503
99749SOL    HW2 1087   2.373  14.879   7.478
99750SOL     OW 1088   9.560   2.156   0.688
99750SOL    HW1 1089   9.590   2.244   0.667
99750SOL    HW2 1090   9.482   2.169   0.742
99751SOL     OW 1091   2.314   5.818   6.864
99751SOL    HW1 1092   2.308   5.799   6.958
99751SOL    HW2 1093   2.232   5.863   6.844
99752SOL     OW 1094   4.825   3.646   2.973
99752SOL    HW1 1095   4.839   3.553   2.992
99752SOL    HW2 1096   4.792   3.682   3.055
99753SOL     OW 1097   4.163   9.205   7.215
99753SOL    HW1 1098   4.090   9.251   7.171
99753SOL    HW2 1099   4.226   9.189   7.145
99754SOL     OW 1100   8.495  14.281   7.033
99754SOL    HW1 1101   8.531  14.292   6.945
99754SOL    HW2 1102   8.400  14.278   7.020
99755SOL     OW 1103   3.692   2.517   2.870
99755SOL    HW1 1104   3.742   2.477   2.799
99755SOL    HW2 1105   3.737   2.488   2.949
99756SOL     OW 1106   9.099   6.370   7.811
99756SOL    HW1 1107   9.163   6.442   7.808
99756SOL    HW2 1108   9.139   6.302   7.757
99757SOL     OW 1109  10.597  13.314  12.126
99757SOL    HW1 1110  10.613  13.299  12.033
99757SOL    HW2 1111  10.525  13.255  12.148
99758SOL     OW 1112   0.670   3.271   7.744
99758SOL    HW1 1113   0.609   3.288   7.816
99758SOL    HW2 1114   0.757   3.276   7.785
99759SOL     OW 1115   1.633   5.836   1.727
99759SOL    HW1 1116   1.712   5.784   1.710
99759SOL    HW2 1117   1.665   5.912   1.775
99760SOL     OW 1118   6.991   1.874   2.657
99760SOL    HW1 1119   7.016   1.858   2.566
99760SOL    HW2 1120   7.059   1.932   2.691
99761SOL     OW 1121   2.964   7.402   4.054
99761SOL    HW1 1122   2.964   7.469   3.986
99761SOL    HW2 1123   2.944   7.320   4.008
99762SOL     OW 1124   9.407  12.797   5.048
99762SOL    HW1 1125   9.394  12.762   5.136
99762SOL    HW2 1126   9.499  12.821   5.045
99763SOL     OW 1127  12.925   2.524   2.569
99763SOL    HW1 1128  12.938   2.534   2.664
99763SOL    HW2 1129  12.986   2.587   2.530
99764SOL     OW 1130  11.504   7.152  11.738
99764SOL    HW1 1131  11.600   7.155  11.731
99764SOL    HW2 1132  11.488   7.122  11.828
99765SOL     OW 1133   4.724   4.654   8.623
99765SOL    HW1 1134   4.665   4.681   8.693
99765SOL    HW2 1135   4.745   4.735   8.576
99766SOL     OW 1136   4.753   0.118  14.094
99766SOL    HW1 1137   4.797   0.056  14.152
99766SOL    HW2 1138   4.710   0.180  14.153
99767SOL     OW 1139  12.733   3.777   4.853
99767SOL    HW1 1140  12.685   3.746   4.929
99767SOL    HW2 1141  12.669   3.827   4.802
99768SOL     OW 1142   8.629  10.117   3.261
99768SOL    HW1 1143   8.615  10.028   3.230
99768SOL    HW2 1144   8.566  10.127   3.333
99769SOL     OW 1145   2.701   0.945   1.129
99769SOL    HW1 1146   2.785   0.971   1.090
99769SOL    HW2 1147   2.694   0.851   1.109
99770SOL     OW 1148   0.338   2.322   0.873
99770SOL    HW1 1149   0.359   2.415   0.868
99770SOL    HW2 1150   0.316   2.307   0.965
99771SOL     OW 1151   3.371   5.128   4.339
99771SOL    HW1 1152   3.304   5.162   4.398
99771SOL    HW2 1153   3.340   5.153   4.252
99772SOL     OW 1154   2.964   4.107   7.950
99772SOL    HW1 1155   2.947   4.180   7.892
99772SOL    HW2 1156   2.994   4.037   7.893
99773SOL     OW 1157   5.802   2.646   5.490
99773SOL    HW1 1158   5.894   2.672   5.483
99773SOL    HW2 1159   5.767   2.656   5.401
99774SOL     OW 1160  12.952  12.460   4.695
99774SOL    HW1 1161  12.967  12.379   4.646
99774SOL    HW2 1162  13.009  12.451   4.772
99775SOL     OW 1163   6.851   9.747   2.583
99775SOL    HW1 1164   6.781   9.690   2.614
99775SOL    HW2 1165   6.930   9.711   2.623
99776SOL     OW 1166  10.054   3.778   4.019
99776SOL    HW1 1167  10.086   3.697   3.980
99776SOL    HW2 1168  10.017   3.752   4.103
99777SOL     OW 1169  11.293   8.730   2.371
99777SOL    HW1 1170  11.250   8.675   2.435
99777SOL    HW2 1171  11.224   8.756   2.310
99778SOL     OW 1172  13.239  14.161   5.821
99778SOL    HW1 1173  13.188  14.205   5.753
99778SOL    HW2 1174  13.324  14.145   5.780
99779SOL     OW 1175   1.098   5.169   8.906
99779SOL    HW1 1176   1.189   5.142   8.919
99779SOL    HW2 1177   1.065   5.110   8.838
99780SOL     OW 1178   1.664   3.843   4.233
99780SOL    HW1 1179   1.758   3.836   4.212
99780SOL    HW2 1180   1.621   3.843   4.147
99781SOL     OW 1181  12.413   1.388   5.774
99781SOL    HW1 1182  12.491   1.342   5.742
99781SOL    HW2 1183  12.439   1.423   5.859
99782SOL     OW 1184  12.419  12.311   9.773
99782SOL    HW1 1185  12.478  12.384   9.791
99782SOL    HW2 1186  12.354  12.346   9.712
99783SOL     OW 1187   2.288   7.849   3.823
99783SOL    HW1 1188   2.234   7.860   3.901
99783SOL    HW2 1189   2.281   7.756   3.801
99784SOL     OW 1190   1.106  13.126   5.552
99784SOL    HW1 1191   1.042  13.174   5.605
99784SOL    HW2 1192   1.186  13.178   5.558
99785SOL     OW 1193   5.823   7.045   3.676
99785SOL    HW1 1194   5.917   7.041   3.663
99785SOL    HW2 1195   5.791   7.094   3.600
99786SOL     OW 1196  13.348   3.515   7.186
99786SOL    HW1 1197  13.343   3.419   7.184
99786SOL    HW2 1198  13.288   3.544   7.117
99787SOL     OW 1199   2.467   0.705   8.168
99787SOL    HW1 1200   2.518   0.624   8.174
99787SOL    HW2 1201   2.532   0.772   8.147
99788SOL     OW 1202   0.720   5.254   2.181
99788SOL    HW1 1203   0.674   5.300   2.111
99788SOL    HW2 1204   0.686   5.164   2.176
99789SOL     OW 1205  10.628  10.361   0.845
99789SOL    HW1 1206  10.634  10.329   0.935
99789SOL    HW2 1207  10.565  10.433   0.850
99790SOL     OW 1208  12.878  14.565  12.741
99790SOL    HW1 1209  12.882  14.574  12.836
99790SOL    HW2 1210  12.940  14.630  12.708
99791SOL     OW 1211   5.990  13.208  13.749
99791SOL    HW1 1212   5.913  13.184  13.698
99791SOL    HW2 1213   6.043  13.128  13.753
99792SOL     OW 1214  14.559  10.338  10.535
99792SOL    HW1 1215  14.625  10.407  10.524
99792SOL    HW2 1216  14.512  10.363  10.615
99793SOL     OW 1217  11.868   6.055   1.171
99793SOL    HW1 1218  11.902   6.120   1.233
99793SOL    HW2 1219  11.891   6.091   1.085
99794SOL     OW 1220  12.210   1.058   2.273
99794SOL    HW1 1221  12.188   1.126   2.337
99794SOL    HW2 1222  12.194   0.976   2.320
99795SOL     OW 1223  10.734   2.087  12.078
99795SOL    HW1 1224  10.794   2.162  12.076
99795SOL    HW2 1225  10.785   2.015  12.041
99796SOL     OW 1226   2.518   3.173  10.843
99796SOL    HW1 1227   2.566   3.248  10.807
99796SOL    HW2 1228   2.436   3.171  10.794
99797SOL     OW 1229  12.459  10.337  12.980
99797SOL    HW1 1230  12.538  10.291  12.952
99797SOL    HW2 1231  12.481  10.373  13.066
99798SOL     OW 1232  11.094  11.711   6.545
99798SOL    HW1 1233  11.131  11.623   6.552
99798SOL    HW2 1234  11.148  11.754   6.478
99799SOL     OW 1235   5.472   4.887   2.092
99799SOL    HW1 1236   5.482   4.861   2.184
99799SOL    HW2 1237   5.548   4.943   2.075
99800SOL     OW 1238   2.535   3.113   3.218
99800SOL    HW1 1239   2.478   3.152   3.285
99800SOL    HW2 1240   2.611   3.170   3.215
99801SOL     OW 1241  13.910   1.460   1.568
99801SOL    HW1 1242  13.910   1.542   1.617
99801SOL    HW2 1243  13.890   1.486   1.478
99802SOL     OW 1244   2.768  14.657   0.028
99802SOL    HW1 1245   2.740  14.737   0.071
99802SOL    HW2 1246   2.687  14.611   0.008
99803SOL     OW 1247   4.341  14.034   0.159
99803SOL    HW1 1248   4.398  13.991   0.096
99803SOL    HW2 1249   4.279  14.083   0.105
99804SOL     OW 1250   5.856   4.110  13.947
99804SOL    HW1 1251   5.805   4.190  13.935
99804SOL    HW2 1252   5.850   4.092  14.041
99805SOL     OW 1253   6.866   6.095  14.136
99805SOL    HW1 1254   6.845   6.144  14.056
99805SOL    HW2 1255   6.789   6.040  14.151
99806SOL     OW 1256   3.782   8.000   3.437
99806SOL    HW1 1257   3.732   8.007   3.356
99806SOL    HW2 1258   3.738   8.059   3.498
99807SOL     OW 1259   2.981  12.110   2.173
99807SOL    HW1 1260   3.042  12.174   2.136
99807SOL    HW2 1261   2.939  12.070   2.096
99808SOL     OW 1262   4.944   6.399  13.098
99808SOL    HW1 1263   4.986   6.318  13.071
99808SOL    HW2 1264   4.932   6.448  13.017
99809SOL     OW 1265   0.569   6.006   0.694
99809SOL    HW1 1266   0.655   6.035   0.666
99809SOL    HW2 1267   0.509   6.072   0.660
99810SOL     OW 1268   8.274   3.144   2.555
99810SOL    HW1 1269   8.186   3.106   2.552
99810SOL    HW2 1270   8.298   3.142   2.648
99811SOL     OW 1271   7.596  10.047  14.042
99811SOL    HW1 1272   7.689  10.060  14.023
99811SOL    HW2 1273   7.571   9.971  13.990
99812SOL     OW 1274   1.906  11.349  10.355
99812SOL    HW1 1275   1.995  11.338  10.388
99812SOL    HW2 1276   1.910  11.312  10.266
99813SOL     OW 1277   8.337  14.124  11.448
99813SOL    HW1 1278   8.316  14.031  11.440
99813SOL    HW2 1279   8.326  14.143  11.541
99814SOL     OW 1280   2.849   1.036  10.085
99814SOL    HW1 1281   2.782   1.037  10.017
99814SOL    HW2 1282   2.878   1.127  10.092
99815SOL     OW 1283   3.819   7.220   4.256
99815SOL    HW1 1284   3.862   7.260   4.332
99815SOL    HW2 1285   3.740   7.271   4.244
99816SOL     OW 1286   0.840   8.173  10.158
99816SOL    HW1 1287   0.822   8.127  10.240
99816SOL    HW2 1288   0.775   8.244  10.156
99817SOL     OW 1289  12.252   3.701  11.899
99817SOL    HW1 1290  12.205   3.668  11.976
99817SOL    HW2 1291  12.198   3.674  11.825
99818SOL     OW 1292   0.024  12.250   9.644
99818SOL    HW1 1293  14.810  12.244   9.665
99818SOL    HW2 1294   0.067  12.261   9.728
99819SOL     OW 1295   3.161   1.671   1.521
99819SOL    HW1 1296   3.205   1.732   1.462
99819SOL    HW2 1297   3.213   1.591   1.514
99820SOL     OW 1298   4.822   5.351   8.325
99820SOL    HW1 1299   4.908   5.310   8.331
99820SOL    HW2 1300   4.825   5.402   8.244
99821SOL     OW 1301   7.880  14.325   6.559
99821SOL    HW1 1302   7.792  14.308   6.593
99821SOL    HW2 1303   7.876  14.298   6.467
99822SOL     OW 1304   0.498   1.553   3.573
99822SOL    HW1 1305   0.536   1.469   3.548
99822SOL    HW2 1306   0.546   1.618   3.522
99823SOL     OW 1307   7.576   9.666  14.611
99823SOL    HW1 1308   7.514   9.739  14.615
99823SOL    HW2 1309   7.556   9.613  14.689
99824SOL     OW 1310   0.132   3.506   2.296
99824SOL    HW1 1311   0.057   3.563   2.310
99824SOL    HW2 1312   0.138   3.454   2.376
99825SOL     OW 1313   1.991   2.192  12.431
99825SOL    HW1 1314   1.953   2.228  12.511
99825SOL    HW2 1315   2.049   2.262  12.399
99826SOL     OW 1316   5.766  13.778  13.949
99826SOL    HW1 1317   5.810  13.694  13.937
99826SOL    HW2 1318   5.758  13.787  14.044
99827SOL     OW 1319   2.411   4.666  12.056
99827SOL    HW1 1320   2.501   4.697  12.066
99827SOL    HW2 1321   2.364   4.702  12.131
99828SOL     OW 1322   4.644   4.797   2.707
99828SOL    HW1 1323   4.735   4.783   2.681
99828SOL    HW2 1324   4.599   4.821   2.625
99829SOL     OW 1325   2.102  12.111   0.033
99829SOL    HW1 1326   2.172  12.066   0.080
99829SOL    HW2 1327   2.025  12.056   0.047
99830SOL     OW 1328   5.301   7.610  11.769
99830SOL    HW1 1329   5.238   7.553  11.725
99830SOL    HW2 1330   5.372   7.551  11.796
99831SOL     OW 1331  12.111   8.155  11.239
99831SOL    HW1 1332  12.081   8.222  11.301
99831SOL    HW2 1333  12.167   8.097  11.291
99832SOL     OW 1334   6.710   5.576   7.226
99832SOL    HW1 1335   6.636   5.569   7.166
99832SOL    HW2 1336   6.754   5.657   7.201
99833SOL     OW 1337  13.166   7.852   6.264
99833SOL    HW1 1338  13.208   7.767   6.277
99833SOL    HW2 1339  13.207   7.910   6.328
99834SOL     OW 1340   5.498   4.525  10.075
99834SOL    HW1 1341   5.477   4.539  10.167
99834SOL    HW2 1342   5.462   4.438  10.055
99835SOL     OW 1343  14.105   2.822   0.541
99835SOL    HW1 1344  14.027   2.877   0.535
99835SOL    HW2 1345  14.168   2.874   0.590
99836SOL     OW 1346   2.947  14.618   3.767
99836SOL    HW1 1347   2.927  14.711   3.774
99836SOL    HW2 1348   2.880  14.582   3.709
99837SOL     OW 1349  11.241   5.593   8.634
99837SOL    HW1 1350  11.166   5.633   8.589
99837SOL    HW2 1351  11.205   5.514   8.675
99838SOL     OW 1352   7.374   0.563  14.730
99838SOL    HW1 1353   7.320   0.484  14.724
99838SOL    HW2 1354   7.355   0.598  14.817
99839SOL     OW 1355  14.079  11.823  11.050
99839SOL    HW1 1356  14.059  11.730  11.061
99839SOL    HW2 1357  14.075  11.837  10.956
99840SOL     OW 1358   8.313   2.561  10.952
99840SOL    HW1 1359   8.400   2.524  10.937
99840SOL    HW2 1360   8.302   2.557  11.047
99841SOL     OW 1361   2.173   7.273  11.842
99841SOL    HW1 1362   2.141   7.244  11.757
99841SOL    HW2 1363   2.267   7.255  11.840
99842SOL     OW 1364  11.297  11.948   7.988
99842SOL    HW1 1365  11.347  11.906   8.059
99842SOL    HW2 1366  11.251  11.877   7.945
99843SOL     OW 1367   8.111   8.655   0.804
99843SOL    HW1 1368   8.050   8.607   0.861
99843SOL    HW2 1369   8.173   8.696   0.864
99844SOL     OW 1370   1.549   2.645   8.169
99844SOL    HW1 1371   1.509   2.700   8.237
99844SOL    HW2 1372   1.620   2.600   8.214
99845SOL     OW 1373  11.250  12.974   5.177
99845SOL    HW1 1374  11.201  13.031   5.237
99845SOL    HW2 1375  11.186  12.907   5.151
99846SOL     OW 1376  12.028   6.547   3.218
99846SOL    HW1 1377  12.117   6.513   3.214
99846SOL    HW2 1378  11.972   6.471   3.206
99847SOL     OW 1379   9.229  13.939   8.820
99847SOL    HW1 1380   9.161  13.960   8.756
99847SOL    HW2 1381   9.301  13.903   8.767
99848SOL     OW 1382   2.025  10.964   5.208
99848SOL    HW1 1383   2.042  10.966   5.113
99848SOL    HW2 1384   2.098  10.914   5.244
99849SOL     OW 1385   3.929  11.232   2.254
99849SOL    HW1 1386   3.900  11.149   2.215
99849SOL    HW2 1387   3.941  11.291   2.180
99850SOL     OW 1388  13.852  12.637   0.219
99850SOL    HW1 1389  13.906  12.604   0.148
99850SOL    HW2 1390  13.763  12.612   0.195
99851SOL     OW 1391   7.664  10.803  11.575
99851SOL    HW1 1392   7.661  10.898  11.586
99851SOL    HW2 1393   7.593  10.769  11.630
99852SOL     OW 1394  14.520  12.236   3.642
99852SOL    HW1 1395  14.485  12.305   3.585
99852SOL    HW2 1396  14.499  12.155   3.597
99853SOL     OW 1397   0.049   9.329  14.503
99853SOL    HW1 1398   0.106   9.263  14.463
99853SOL    HW2 1399   0.099   9.411  14.497
99854SOL     OW 1400   0.395  14.843   3.206
99854SOL    HW1 1401   0.451  14.810   3.135
99854SOL    HW2 1402   0.429   0.051   3.225
99855SOL     OW 1403   1.299  14.148  10.751
99855SOL    HW1 1404   1.258  14.088  10.813
99855SOL    HW2 1405   1.260  14.125  10.666
99856SOL     OW 1406   2.487   1.931   8.167
99856SOL    HW1 1407   2.422   1.911   8.099
99856SOL    HW2 1408   2.461   2.016   8.200
99857SOL     OW 1409   2.862   6.032  12.006
99857SOL    HW1 1410   2.832   6.077  11.928
99857SOL    HW2 1411   2.892   6.102  12.065
99858SOL     OW 1412   5.920   1.563   5.371
99858SOL    HW1 1413   5.934   1.657   5.364
99858SOL    HW2 1414   5.845   1.545   5.315
99859SOL     OW 1415  11.385   1.041  12.908
99859SOL    HW1 1416  11.458   0.987  12.939
99859SOL    HW2 1417  11.375   1.108  12.975
99860SOL     OW 1418   7.675  12.884   8.276
99860SOL    HW1 1419   7.718  12.969   8.271
99860SOL    HW2 1420   7.746  12.821   8.288
99861SOL     OW 1421   0.732  14.506  10.709
99861SOL    HW1 1422   0.691  14.585  10.742
99861SOL    HW2 1423   0.670  14.471  10.646
99862SOL     OW 1424   6.714   6.624  13.697
99862SOL    HW1 1425   6.700   6.596  13.788
99862SOL    HW2 1426   6.788   6.684  13.702
99863SOL     OW 1427  14.474  11.761   6.068
99863SOL    HW1 1428  14.541  11.779   6.002
99863SOL    HW2 1429  14.398  11.810   6.038
99864SOL     OW 1430   8.744   8.002   8.231
99864SOL    HW1 1431   8.781   8.007   8.142
99864SOL    HW2 1432   8.650   8.002   8.217
99865SOL     OW 1433   7.803   6.959   7.917
99865SOL    HW1 1434   7.793   6.905   7.996
99865SOL    HW2 1435   7.898   6.961   7.902
99866SOL     OW 1436   1.287  11.940  12.880
99866SOL    HW1 1437   1.197  11.949  12.911
99866SOL    HW2 1438   1.297  11.847  12.860
99867SOL     OW 1439   1.919   9.189   3.855
99867SOL    HW1 1440   1.984   9.172   3.923
99867SOL    HW2 1441   1.968   9.185   3.773
99868SOL     OW 1442   1.570   1.638   3.382
99868SOL    HW1 1443   1.546   1.659   3.292
99868SOL    HW2 1444   1.636   1.703   3.406
99869SOL     OW 1445   4.551  10.742   3.007
99869SOL    HW1 1446   4.517  10.824   2.971
99869SOL    HW2 1447   4.513  10.737   3.095
99870SOL     OW 1448   2.189   0.164  12.605
99870SOL    HW1 1449   2.103   0.157  12.646
99870SOL    HW2 1450   2.179   0.121  12.521
99871SOL     OW 1451  10.860   9.339   2.440
99871SOL    HW1 1452  10.934   9.284   2.466
99871SOL    HW2 1453  10.786   9.279   2.434
99872SOL     OW 1454  12.310   2.680   4.998
99872SOL    HW1 1455  12.241   2.629   4.958
99872SOL    HW2 1456  12.317   2.646   5.087
99873SOL     OW 1457   7.294  12.573  10.048
99873SOL    HW1 1458   7.242  12.495  10.065
99873SOL    HW2 1459   7.380  12.554  10.087
99874SOL     OW 1460   0.516   9.920   5.156
99874SOL    HW1 1461   0.440   9.968   5.124
99874SOL    HW2 1462   0.481   9.835   5.183
99875SOL     OW 1463   5.815   0.431   5.271
99875SOL    HW1 1464   5.855   0.360   5.220
99875SOL    HW2 1465   5.887   0.492   5.288
99876SOL     OW 1466   2.141   8.727   7.439
99876SOL    HW1 1467   2.067   8.728   7.378
99876SOL    HW2 1468   2.131   8.646   7.488
99877SOL     OW 1469   5.170  13.201  11.203
99877SOL    HW1 1470   5.106  13.262  11.239
99877SOL    HW2 1471   5.137  13.114  11.227
99878SOL     OW 1472   5.632   2.614  11.600
99878SOL    HW1 1473   5.600   2.552  11.666
99878SOL    HW2 1474   5.718   2.641  11.632
99879SOL     OW 1475   2.016   8.189  10.065
99879SOL    HW1 1476   2.086   8.153  10.118
99879SOL    HW2 1477   2.024   8.145   9.980
99880SOL     OW 1478   8.281   7.671  14.506
99880SOL    HW1 1479   8.199   7.696  14.462
99880SOL    HW2 1480   8.342   7.742  14.486
99881SOL     OW 1481   6.954  11.843   6.119
99881SOL    HW1 1482   6.959  11.783   6.044
99881SOL    HW2 1483   6.961  11.785   6.195
99882SOL     OW 1484   2.099  12.760   2.341
99882SOL    HW1 1485   2.047  12.685   2.313
99882SOL    HW2 1486   2.056  12.836   2.301
99883SOL     OW 1487   5.075   1.367   9.144
99883SOL    HW1 1488   5.169   1.374   9.134
99883SOL    HW2 1489   5.042   1.356   9.055
99884SOL     OW 1490   0.406  14.421   0.266
99884SOL    HW1 1491   0.486  14.369   0.259
99884SOL    HW2 1492   0.407  14.455   0.355
99885SOL     OW 1493  14.280   0.831   1.325
99885SOL    HW1 1494  14.208   0.880   1.365
99885SOL    HW2 1495  14.325   0.791   1.400
99886SOL     OW 1496   8.594   2.339   1.683
99886SOL    HW1 1497   8.508   2.349   1.724
99886SOL    HW2 1498   8.641   2.419   1.706
99887SOL     OW 1499  10.712  11.042   9.377
99887SOL    HW1 1500  10.710  10.985   9.454
99887SOL    HW2 1501  10.635  11.098   9.387
99888SOL     OW 1502   0.765   7.342   8.399
99888SOL    HW1 1503   0.670   7.333   8.393
99888SOL    HW2 1504   0.778   7.410   8.465
99889SOL     OW 1505   5.658   8.716   1.512
99889SOL    HW1 1506   5.694   8.669   1.588
99889SOL    HW2 1507   5.709   8.797   1.508
99890SOL     OW 1508   3.947   8.170   2.409
99890SOL    HW1 1509   3.962   8.208   2.323
99890SOL    HW2 1510   3.933   8.246   2.466
99891SOL     OW 1511   3.792  13.716   6.911
99891SOL    HW1 1512   3.708  13.721   6.866
99891SOL    HW2 1513   3.838  13.643   6.868
99892SOL     OW 1514   0.427   6.242   0.471
99892SOL    HW1 1515   0.380   6.236   0.388
99892SOL    HW2 1516   0.481   6.321   0.462
99893SOL     OW 1517   2.878   1.893   4.070
99893SOL    HW1 1518   2.949   1.894   4.005
99893SOL    HW2 1519   2.902   1.823   4.130
99894SOL     OW 1520   4.752   2.587   6.416
99894SOL    HW1 1521   4.742   2.583   6.321
99894SOL    HW2 1522   4.677   2.637   6.446
99895SOL     OW 1523   1.974  13.039  11.921
99895SOL    HW1 1524   1.925  12.969  11.879
99895SOL    HW2 1525   2.059  13.038  11.876
99896SOL     OW 1526   7.249  12.971   1.453
99896SOL    HW1 1527   7.297  12.894   1.421
99896SOL    HW2 1528   7.313  13.042   1.449
99897SOL     OW 1529  13.260   0.279  14.282
99897SOL    HW1 1530  13.269   0.342  14.354
99897SOL    HW2 1531  13.337   0.292  14.228
99898SOL     OW 1532   0.569  10.195   9.254
99898SOL    HW1 1533   0.663  10.177   9.256
99898SOL    HW2 1534   0.545  10.211   9.345
99899SOL     OW 1535   4.382   2.872   3.634
99899SOL    HW1 1536   4.354   2.950   3.682
99899SOL    HW2 1537   4.307   2.812   3.641
99900SOL     OW 1538  10.664   8.059   5.094
99900SOL    HW1 1539  10.616   8.110   5.029
99900SOL    HW2 1540  10.630   8.089   5.178
99901SOL     OW 1541  12.661   9.172   9.165
99901SOL    HW1 1542  12.658   9.127   9.250
99901SOL    HW2 1543  12.637   9.262   9.186
99902SOL     OW 1544   8.913  11.230  10.279
99902SOL    HW1 1545   8.918  11.191  10.192
99902SOL    HW2 1546   8.825  11.267  10.284
99903SOL     OW 1547   0.398  11.508  11.604
99903SOL    HW1 1548   0.385  11.422  11.566
99903SOL    HW2 1549   0.328  11.517  11.668
99904SOL     OW 1550  13.652   4.714   1.302
99904SOL    HW1 1551  13.624   4.666   1.223
99904SOL    HW2 1552  13.643   4.651   1.373
99905SOL     OW 1553   3.646   8.057  14.570
99905SOL    HW1 1554   3.697   8.117  14.624
99905SOL    HW2 1555   3.556   8.089  14.576
99906SOL     OW 1556  14.460   9.507   9.931
99906SOL    HW1 1557  14.419   9.593   9.927
99906SOL    HW2 1558  14.543   9.518   9.885
99907SOL     OW 1559   6.368   6.870   7.068
99907SOL    HW1 1560   6.420   6.872   6.987
99907SOL    HW2 1561   6.433   6.860   7.138
99908SOL     OW 1562  10.142   3.957  13.651
99908SOL    HW1 1563  10.146   4.053  13.655
99908SOL    HW2 1564  10.205   3.934  13.582
99909SOL     OW 1565   0.888   8.700   1.083
99909SOL    HW1 1566   0.842   8.742   1.010
99909SOL    HW2 1567   0.905   8.611   1.052
99910SOL     OW 1568  14.491   6.860   8.163
99910SOL    HW1 1569  14.578   6.821   8.155
99910SOL    HW2 1570  14.475   6.901   8.078
99911SOL     OW 1571  14.827   2.394   6.191
99911SOL    HW1 1572  14.755   2.433   6.141
99911SOL    HW2 1573  14.826   2.440   6.275
99912SOL     OW 1574   6.616  10.836   4.099
99912SOL    HW1 1575   6.666  10.885   4.034
99912SOL    HW2 1576   6.682  10.782   4.144
99913SOL     OW 1577  11.330   5.296   1.447
99913SOL    HW1 1578  11.337   5.261   1.536
99913SOL    HW2 1579  11.260   5.245   1.406
99914SOL     OW 1580  10.922   1.163   9.162
99914SOL    HW1 1581  10.949   1.247   9.126
99914SOL    HW2 1582  10.952   1.165   9.253
99915SOL     OW 1583   5.983   1.978  14.060
99915SOL    HW1 1584   5.918   2.006  14.124
99915SOL    HW2 1585   6.038   2.054  14.046
99916SOL     OW 1586  11.467   4.973   0.786
99916SOL    HW1 1587  11.477   5.058   0.742
99916SOL    HW2 1588  11.453   4.995   0.878
99917SOL     OW 1589  13.888   3.822   1.625
99917SOL    HW1 1590  13.906   3.806   1.718
99917SOL    HW2 1591  13.890   3.735   1.585
99918SOL     OW 1592   5.217  12.955  10.956
99918SOL    HW1 1593   5.157  12.961  10.881
99918SOL    HW2 1594   5.304  12.945  10.916
99919SOL     OW 1595  12.619  11.700   0.372
99919SOL    HW1 1596  12.694  11.644   0.394
99919SOL    HW2 1597  12.606  11.755   0.449
99920SOL     OW 1598  10.062   7.057   7.197
99920SOL    HW1 1599  10.065   6.973   7.151
99920SOL    HW2 1600   9.972   7.087   7.187
99921SOL     OW 1601   3.112   0.813  11.839
99921SOL    HW1 1602   3.177   0.755  11.877
99921SOL    HW2 1603   3.100   0.781  11.750
99922SOL     OW 1604   2.303  14.061   6.703
99922SOL    HW1 1605   2.245  13.989   6.678
99922SOL    HW2 1606   2.245  14.124   6.746
99923SOL     OW 1607   1.135  14.807  10.131
99923SOL    HW1 1608   1.202  14.758  10.180
99923SOL    HW2 1609   1.104  14.873  10.193
99924SOL     OW 1610   0.452   7.610   9.833
99924SOL    HW1 1611   0.475   7.703   9.828
99924SOL    HW2 1612   0.363   7.606   9.797
99925SOL     OW 1613  14.245   5.828   4.433
99925SOL    HW1 1614  14.254   5.919   4.460
99925SOL    HW2 1615  14.259   5.777   4.513
99926SOL     OW 1616   3.847  11.403   3.384
99926SOL    HW1 1617   3.893  11.486   3.370
99926SOL    HW2 1618   3.913  11.345   3.422
99927SOL     OW 1619   2.365   4.697   1.730
99927SOL    HW1 1620   2.412   4.780   1.742
99927SOL    HW2 1621   2.360   4.686   1.635
99928SOL     OW 1622   4.700   3.562   8.380
99928SOL    HW1 1623   4.709   3.489   8.442
99928SOL    HW2 1624   4.764   3.544   8.312
99929SOL     OW 1625   9.880  14.342   5.911
99929SOL    HW1 1626   9.936  14.318   5.837
99929SOL    HW2 1627   9.803  14.382   5.871
99930SOL     OW 1628  12.069   0.216  10.150
99930SOL    HW1 1629  12.116   0.300  10.153
99930SOL    HW2 1630  12.106   0.166  10.222
99931SOL     OW 1631   5.505   4.299   6.931
99931SOL    HW1 1632   5.498   4.275   7.024
99931SOL    HW2 1633   5.438   4.246   6.888
99932SOL     OW 1634  10.169  14.529  12.006
99932SOL    HW1 1635  10.251  14.568  12.036
99932SOL    HW2 1636  10.102  14.567  12.062
99933SOL     OW 1637   0.059  13.519  12.995
99933SOL    HW1 1638   0.033  13.469  12.917
99933SOL    HW2 1639  14.856  13.553  13.030
99934SOL     OW 1640  11.596   4.646   1.059
99934SOL    HW1 1641  11.610   4.610   1.146
99934SOL    HW2 1642  11.503   4.631   1.042
99935SOL     OW 1643   7.996   5.104   0.902
99935SOL    HW1 1644   7.919   5.162   0.906
99935SOL    HW2 1645   7.981   5.040   0.972
99936SOL     OW 1646   9.953  10.128   7.989
99936SOL    HW1 1647   9.951  10.041   7.949
99936SOL    HW2 1648  10.032  10.169   7.953
99937SOL     OW 1649  11.804   4.967   1.489
99937SOL    HW1 1650  11.834   5.048   1.531
99937SOL    HW2 1651  11.715   4.956   1.521
99938SOL     OW 1652  13.074  10.367   3.646
99938SOL    HW1 1653  13.153  10.318   3.624
99938SOL    HW2 1654  13.053  10.415   3.566
99939SOL     OW 1655  11.119   1.040  10.780
99939SOL    HW1 1656  11.159   1.046  10.693
99939SOL    HW2 1657  11.117   0.946  10.799
99940SOL     OW 1658   0.029   8.996  14.410
99940SOL    HW1 1659  14.853   9.040  14.346
99940SOL    HW2 1660  14.850   8.932  14.452
99941SOL     OW 1661   9.852  14.014   0.112
99941SOL    HW1 1662   9.825  14.022   0.203
99941SOL    HW2 1663   9.861  13.919   0.098
99942SOL     OW 1664   8.934   3.435   4.124
99942SOL    HW1 1665   8.884   3.455   4.203
99942SOL    HW2 1666   8.891   3.358   4.087
99943SOL     OW 1667   1.915   3.500  10.219
99943SOL    HW1 1668   1.979   3.557  10.176
99943SOL    HW2 1669   1.834   3.513  10.169
99944SOL     OW 1670   2.952   6.019   5.453
99944SOL    HW1 1671   3.003   5.995   5.376
99944SOL    HW2 1672   2.872   5.967   5.447
99945SOL     OW 1673  13.098   8.089  11.050
99945SOL    HW1 1674  13.092   8.028  11.123
99945SOL    HW2 1675  13.157   8.158  11.082
99946SOL     OW 1676   1.800   5.590   0.733
99946SOL    HW1 1677   1.747   5.668   0.716
99946SOL    HW2 1678   1.853   5.614   0.810
99947SOL     OW 1679   3.241   1.786  14.411
99947SOL    HW1 1680   3.272   1.697  14.394
99947SOL    HW2 1681   3.197   1.781  14.496
99948SOL     OW 1682   8.700   8.038   3.573
99948SOL    HW1 1683   8.791   8.023   3.546
99948SOL    HW2 1684   8.704   8.116   3.628
99949SOL     OW 1685  12.927   3.322   2.929
99949SOL    HW1 1686  12.877   3.323   2.847
99949SOL    HW2 1687  12.936   3.414   2.953
99950SOL     OW 1688  10.151   7.969   4.429
99950SOL    HW1 1689  10.116   8.036   4.487
99950SOL    HW2 1690  10.113   7.887   4.461
99951SOL     OW 1691   4.052   9.095   3.682
99951SOL    HW1 1692   4.133   9.136   3.651
99951SOL    HW2 1693   4.013   9.160   3.741
99952SOL     OW 1694   3.126   2.754  12.285
99952SOL    HW1 1695   3.139   2.671  12.332
99952SOL    HW2 1696   3.069   2.805  12.343
99953SOL     OW 1697   2.960  13.287   3.575
99953SOL    HW1 1698   3.013  13.303   3.653
99953SOL    HW2 1699   2.933  13.195   3.584
99954SOL     OW 1700  11.743   3.942  14.178
99954SOL    HW1 1701  11.667   3.914  14.127
99954SOL    HW2 1702  11.715   4.022  14.221
99955SOL     OW 1703  12.398   6.898  10.065
99955SOL    HW1 1704  12.317   6.948  10.055
99955SOL    HW2 1705  12.387   6.822  10.009
99956SOL     OW 1706  12.156   6.779  14.265
99956SOL    HW1 1707  12.085   6.716  14.280
99956SOL    HW2 1708  12.135   6.852  14.324
99957SOL     OW 1709  10.529   8.427   6.605
99957SOL    HW1 1710  10.578   8.346   6.616
99957SOL    HW2 1711  10.456   8.404   6.548
99958SOL     OW 1712  10.814   1.757  12.262
99958SOL    HW1 1713  10.729   1.765  12.219
99958SOL    HW2 1714  10.799   1.696  12.334
99959SOL     OW 1715  12.526   8.538   4.336
99959SOL    HW1 1716  12.544   8.606   4.271
99959SOL    HW2 1717  12.603   8.482   4.334
99960SOL     OW 1718   4.682  11.627   4.254
99960SOL    HW1 1719   4.645  11.715   4.250
99960SOL    HW2 1720   4.666  11.598   4.344
99961SOL     OW 1721   1.920   8.877   2.244
99961SOL    HW1 1722   1.979   8.924   2.303
99961SOL    HW2 1723   1.842   8.932   2.239
99962SOL     OW 1724  13.112   0.597  14.862
99962SOL    HW1 1725  13.044   0.548   0.028
99962SOL    HW2 1726  13.066   0.667  14.817
99963SOL     OW 1727  11.864   7.092   3.095
99963SOL    HW1 1728  11.852   7.140   3.177
99963SOL    HW2 1729  11.775   7.081   3.061
99964SOL     OW 1730   4.965  14.189  14.161
99964SOL    HW1 1731   5.034  14.255  14.157
99964SOL    HW2 1732   4.890  14.230  14.119
99965SOL     OW 1733  12.856   7.407  10.757
99965SOL    HW1 1734  12.763   7.393  10.738
99965SOL    HW2 1735  12.873   7.497  10.728
99966SOL     OW 1736   0.932   2.604   0.717
99966SOL    HW1 1737   1.026   2.619   0.703
99966SOL    HW2 1738   0.928   2.553   0.797
99967SOL     OW 1739  10.653   7.478   7.347
99967SOL    HW1 1740  10.635   7.522   7.264
99967SOL    HW2 1741  10.602   7.397   7.343
99968SOL     OW 1742  11.401   7.355   0.365
99968SOL    HW1 1743  11.421   7.449   0.360
99968SOL    HW2 1744  11.402   7.335   0.458
99969SOL     OW 1745   1.127   0.473  10.460
99969SOL    HW1 1746   1.091   0.397  10.504
99969SOL    HW2 1747   1.152   0.442  10.373
99970SOL     OW 1748   5.194   8.029   3.779
99970SOL    HW1 1749   5.128   8.084   3.820
99970SOL    HW2 1750   5.146   7.979   3.713
99971SOL     OW 1751   6.325   5.635   9.806
99971SOL    HW1 1752   6.377   5.571   9.759
99971SOL    HW2 1753   6.252   5.655   9.747
99972SOL     OW 1754   0.032  11.637  12.823
99972SOL    HW1 1755   0.054  11.725  12.853
99972SOL    HW2 1756   0.066  11.579  12.891
99973SOL     OW 1757   3.059   8.829   6.603
99973SOL    HW1 1758   3.057   8.849   6.697
99973SOL    HW2 1759   2.977   8.865   6.569
99974SOL     OW 1760   4.393  11.886   5.666
99974SOL    HW1 1761   4.327  11.955   5.665
99974SOL    HW2 1762   4.451  11.908   5.593
99975SOL     OW 1763   9.155   8.819  10.182
99975SOL    HW1 1764   9.184   8.890  10.125
99975SOL    HW2 1765   9.086   8.859  10.236
99976SOL     OW 1766   5.595   3.150   0.417
99976SOL    HW1 1767   5.562   3.181   0.501
99976SOL    HW2 1768   5.680   3.109   0.438
99977SOL     OW 1769  11.978   6.966   9.903
99977SOL    HW1 1770  11.948   6.896   9.960
99977SOL    HW2 1771  11.905   6.980   9.842
99978SOL     OW 1772   1.428   7.823   6.313
99978SOL    HW1 1773   1.516   7.795   6.290
99978SOL    HW2 1774   1.397   7.872   6.237
99979SOL     OW 1775  11.301   4.524   4.801
99979SOL    HW1 1776  11.214   4.521   4.840
99979SOL    HW2 1777  11.341   4.603   4.835
99980SOL     OW 1778   2.885  13.930   2.301
99980SOL    HW1 1779   2.969  13.969   2.279
99980SOL    HW2 1780   2.842  13.915   2.217
99981SOL     OW 1781   2.414   4.558   7.754
99981SOL    HW1 1782   2.491   4.552   7.810
99981SOL    HW2 1783   2.360   4.626   7.795
99982SOL     OW 1784  12.626   0.323  10.970
99982SOL    HW1 1785  12.625   0.341  10.876
99982SOL    HW2 1786  12.639   0.228  10.976
99983SOL     OW 1787  14.752   1.066   0.414
99983SOL    HW1 1788  14.805   1.140   0.447
99983SOL    HW2 1789  14.671   1.072   0.464
99984SOL     OW 1790   6.611   6.761   2.796
99984SOL    HW1 1791   6.653   6.821   2.858
99984SOL    HW2 1792   6.601   6.813   2.716
99985SOL     OW 1793   9.355   9.972   4.358
99985SOL    HW1 1794   9.285  10.018   4.310
99985SOL    HW2 1795   9.321   9.964   4.447
99986SOL     OW 1796  13.947   7.669  14.873
99986SOL    HW1 1797  13.864   7.698  14.835
99986SOL    HW2 1798  13.927   7.584   0.033
99987SOL     OW 1799   5.520   2.557   1.113
99987SOL    HW1 1800   5.499   2.549   1.020
99987SOL    HW2 1801   5.449   2.608   1.151
99988SOL     OW 1802   8.579  13.099   6.780
99988SOL    HW1 1803   8.611  13.100   6.689
99988SOL    HW2 1804   8.649  13.140   6.830
99989SOL     OW 1805  12.071  13.632  10.086
99989SOL    HW1 1806  12.025  13.554  10.114
99989SOL    HW2 1807  12.146  13.638  10.145
99990SOL     OW 1808   3.389   5.993   6.495
99990SOL    HW1 1809   3.402   5.919   6.555
99990SOL    HW2 1810   3.370   6.067   6.553
99991SOL     OW 1811   9.000  13.595  13.721
99991SOL    HW1 1812   9.067  13.658  13.694
99991SOL    HW2 1813   9.041  13.510  13.706
99992SOL     OW 1814   5.667  11.811  13.487
99992SOL    HW1 1815   5.721  11.753  13.434
99992SOL    HW2 1816   5.578  11.774  13.480
99993SOL     OW 1817   6.556   5.584  12.611
99993SOL    HW1 1818   6.514   5.665  12.639
99993SOL    HW2 1819   6.627   5.571  12.674
99994SOL     OW 1820   0.441   7.959  13.944
99994SOL    HW1 1821   0.449   7.885  13.883
99994SOL    HW2 1822   0.472   7.924  14.028
99995SOL     OW 1823   1.876   2.905   4.070
99995SOL    HW1 1824   1.854   2.911   4.163
99995SOL    HW2 1825   1.923   2.822   4.062
99996SOL     OW 1826   8.460   1.223  10.977
99996SOL    HW1 1827   8.547   1.259  10.958
99996SOL    HW2 1828   8.448   1.236  11.071
99997SOL     OW 1829   9.659  10.527   9.475
99997SOL    HW1 1830   9.638  10.620   9.468
99997SOL    HW2 1831   9.607  10.485   9.407
99998SOL     OW 1832   9.374  11.042   8.294
99998SOL    HW1 1833   9.418  11.098   8.231
99998SOL    HW2 1834   9.440  11.023   8.360
99999SOL     OW 1835   6.304  10.031  10.119
99999SOL    HW1 1836   6.385  10.076  10.093
99999SOL    HW2 1837   6.237  10.100  10.114
    0SOL     OW 1838   1.976   5.307   4.672
    0SOL    HW1 1839   1.908   5.242   4.691
    0SOL    HW2 1840   1.989   5.301   4.578
    1SOL     OW 1841  11.937   4.271  11.337
    1SOL    HW1 1842  11.961   4.242  11.249
    1SOL    HW2 1843  12.020   4.271  11.385
    2SOL     OW 1844   3.767   1.905   4.451
    2SOL    HW1 1845   3.777   2.000   4.458
    2SOL    HW2 1846   3.699   1.883   4.515
    3SOL     OW 1847  14.521   8.358   0.514
    3SOL    HW1 1848  14.482   8.425   0.570
    3SOL    HW2 1849  14.469   8.361   0.434
    4SOL     OW 1850   1.535   0.912   8.388
    4SOL    HW1 1851   1.501   0.956   8.466
    4SOL    HW2 1852   1.467   0.925   8.321
    5SOL     OW 1853   1.607  12.120   3.913
    5SOL    HW1 1854   1.561  12.044   3.948
    5SOL    HW2 1855   1.622  12.177   3.989
    6SOL     OW 1856   9.025   6.899   9.851
    6SOL    HW1 1857   9.082   6.934   9.782
    6SOL    HW2 1858   8.958   6.849   9.804
    7SOL     OW 1859  13.562  10.502   7.175
    7SOL    HW1 1860  13.538  10.447   7.250
    7SOL    HW2 1861  13.651  10.476   7.154
    8SOL     OW 1862   2.264   8.096  12.334
    8SOL    HW1 1863   2.222   8.174  12.369
    8SOL    HW2 1864   2.297   8.050  12.412
    9SOL     OW 1865   7.372   2.302  13.342
    9SOL    HW1 1866   7.329   2.229  13.386
    9SOL    HW2 1867   7.365   2.375  13.404
   10SOL     OW 1868   7.551   3.427   6.323
   10SOL    HW1 1869   7.638   3.455   6.296
   10SOL    HW2 1870   7.550   3.333   6.309
   11SOL     OW 1871   6.593   1.247   6.057
   11SOL    HW1 1872   6.530   1.182   6.026
   11SOL    HW2 1873   6.673   1.197   6.073
   12SOL     OW 1874   0.562   8.114  10.936
   12SOL    HW1 1875   0.602   8.151  10.857
   12SOL    HW2 1876   0.468   8.130  10.925
   13SOL     OW 1877  10.834   5.073   6.686
   13SOL    HW1 1878  10.773   5.016   6.639
   13SOL    HW2 1879  10.778   5.123   6.746
   14SOL     OW 1880   2.115   3.745   5.774
   14SOL    HW1 1881   2.112   3.650   5.761
   14SOL    HW2 1882   2.036   3.765   5.824
   15SOL     OW 1883   3.775   8.702   5.340
   15SOL    HW1 1884   3.846   8.679   5.279
   15SOL    HW2 1885   3.810   8.777   5.389
   16SOL     OW 1886   0.934   6.789  11.662
   16SOL    HW1 1887   0.950   6.883  11.666
   16SOL    HW2 1888   1.013   6.750  11.699
   17SOL     OW 1889  13.526   5.688  13.668
   17SOL    HW1 1890  13.487   5.773  13.690
   17SOL    HW2 1891  13.466   5.624  13.704
   18SOL     OW 1892  12.442   6.156   5.538
   18SOL    HW1 1893  12.432   6.216   5.612
   18SOL    HW2 1894  12.504   6.201   5.479
   19SOL     OW 1895  11.924  12.087   3.052
   19SOL    HW1 1896  11.951  12.059   3.139
   19SOL    HW2 1897  11.989  12.049   2.993
   20SOL     OW 1898   4.240  13.379  14.440
   20SOL    HW1 1899   4.236  13.347  14.350
   20SOL    HW2 1900   4.149  13.377  14.471
   21SOL     OW 1901   4.392   3.832   9.186
   21SOL    HW1 1902   4.336   3.816   9.262
   21SOL    HW2 1903   4.331   3.842   9.113
   22SOL     OW 1904   1.352   3.113   4.221
   22SOL    HW1 1905   1.443   3.085   4.225
   22SOL    HW2 1906   1.332   3.142   4.311
   23SOL     OW 1907   6.381   0.368  14.664
   23SOL    HW1 1908   6.336   0.284  14.658
   23SOL    HW2 1909   6.408   0.387  14.574
   24SOL     OW 1910   7.408   0.561   2.727
   24SOL    HW1 1911   7.466   0.576   2.653
   24SOL    HW2 1912   7.420   0.468   2.748
   25SOL     OW 1913   1.082  10.340  12.453
   25SOL    HW1 1914   1.149  10.337  12.520
   25SOL    HW2 1915   1.112  10.279  12.385
   26SOL     OW 1916   0.827   2.202  11.273
   26SOL    HW1 1917   0.773   2.190  11.351
   26SOL    HW2 1918   0.915   2.177  11.301
   27SOL     OW 1919  10.202   9.378   2.303
   27SOL    HW1 1920  10.197   9.379   2.399
   27SOL    HW2 1921  10.295   9.376   2.284
   28SOL     OW 1922   1.664   3.648  11.197
   28SOL    HW1 1923   1.684   3.601  11.116
   28SOL    HW2 1924   1.599   3.714  11.172
   29SOL     OW 1925  10.158   0.351  12.531
   29SOL    HW1 1926  10.151   0.409  12.608
   29SOL    HW2 1927  10.101   0.277  12.552
   30SOL     OW 1928  14.558  11.349  14.037
   30SOL    HW1 1929  14.581  11.436  14.002
   30SOL    HW2 1930  14.511  11.307  13.965
   31SOL     OW 1931   5.784  13.098   3.879
   31SOL    HW1 1932   5.692  13.110   3.903
   31SOL    HW2 1933   5.786  13.011   3.838
   32SOL     OW 1934   0.783   6.104  14.489
   32SOL    HW1 1935   0.829   6.060  14.560
   32SOL    HW2 1936   0.751   6.033  14.433
   33SOL     OW 1937  13.151   6.540  10.006
   33SOL    HW1 1938  13.139   6.596   9.929
   33SOL    HW2 1939  13.088   6.469   9.994
   34SOL     OW 1940   7.037   5.037  11.310
   34SOL    HW1 1941   7.012   5.016  11.400
   34SOL    HW2 1942   7.065   5.128  11.313
   35SOL     OW 1943   6.881  10.344   8.602
   35SOL    HW1 1944   6.829  10.296   8.667
   35SOL    HW2 1945   6.851  10.310   8.517
   36SOL     OW 1946   8.188   9.311   8.811
   36SOL    HW1 1947   8.184   9.223   8.774
   36SOL    HW2 1948   8.129   9.309   8.886
   37SOL     OW 1949   3.020   9.184   4.412
   37SOL    HW1 1950   2.973   9.254   4.367
   37SOL    HW2 1951   3.067   9.139   4.342
   38SOL     OW 1952   4.025   2.376   7.350
   38SOL    HW1 1953   4.046   2.283   7.347
   38SOL    HW2 1954   3.933   2.381   7.325
   39SOL     OW 1955  12.221  10.152  13.048
   39SOL    HW1 1956  12.206  10.220  13.115
   39SOL    HW2 1957  12.307  10.173  13.011
   40SOL     OW 1958   3.934  12.702   3.350
   40SOL    HW1 1959   3.941  12.692   3.445
   40SOL    HW2 1960   3.945  12.614   3.316
   41SOL     OW 1961   2.236   4.368   9.063
   41SOL    HW1 1962   2.273   4.344   9.148
   41SOL    HW2 1963   2.246   4.289   9.010
   42SOL     OW 1964   4.097   3.276   2.038
   42SOL    HW1 1965   4.115   3.367   2.063
   42SOL    HW2 1966   4.089   3.279   1.942
   43SOL     OW 1967  13.621  12.460  10.124
   43SOL    HW1 1968  13.653  12.429  10.040
   43SOL    HW2 1969  13.695  12.509  10.162
   44SOL     OW 1970  14.265   0.285   2.041
   44SOL    HW1 1971  14.206   0.344   1.995
   44SOL    HW2 1972  14.275   0.210   1.982
   45SOL     OW 1973  14.151   0.814  13.676
   45SOL    HW1 1974  14.121   0.902  13.653
   45SOL    HW2 1975  14.207   0.827  13.753
   46SOL     OW 1976  13.289   9.928   0.996
   46SOL    HW1 1977  13.275   9.919   0.902
   46SOL    HW2 1978  13.366   9.984   1.003
   47SOL     OW 1979   4.276  14.689   9.229
   47SOL    HW1 1980   4.279  14.594   9.232
   47SOL    HW2 1981   4.268  14.716   9.321
   48SOL     OW 1982   3.287   3.254   9.078
   48SOL    HW1 1983   3.256   3.335   9.037
   48SOL    HW2 1984   3.303   3.277   9.169
   49SOL     OW 1985   0.004  11.655   3.537
   49SOL    HW1 1986   0.099  11.657   3.533
   49SOL    HW2 1987  14.863  11.572   3.581
   50SOL     OW 1988   9.988   1.841   9.770
   50SOL    HW1 1989   9.931   1.845   9.693
   50SOL    HW2 1990   9.966   1.759   9.813
   51SOL     OW 1991   0.965   6.069   9.227
   51SOL    HW1 1992   0.986   6.096   9.317
   51SOL    HW2 1993   0.870   6.054   9.228
   52SOL     OW 1994  10.133   9.010   9.360
   52SOL    HW1 1995  10.198   9.035   9.294
   52SOL    HW2 1996  10.157   8.921   9.385
   53SOL     OW 1997   9.657   8.095   7.680
   53SOL    HW1 1998   9.689   8.107   7.590
   53SOL    HW2 1999   9.604   8.172   7.697
   54SOL     OW 2000   1.071  12.370   5.852
   54SOL    HW1 2001   1.062  12.345   5.761
   54SOL    HW2 2002   1.130  12.305   5.890
   55SOL     OW 2003  11.083  13.641   4.724
   55SOL    HW1 2004  11.142  13.713   4.747
   55SOL    HW2 2005  11.028  13.677   4.655
   56SOL     OW 2006   6.275  10.719   2.322
   56SOL    HW1 2007   6.346  10.742   2.382
   56SOL    HW2 2008   6.226  10.651   2.368
   57SOL     OW 2009   7.638  11.488   4.817
   57SOL    HW1 2010   7.593  11.432   4.753
   57SOL    HW2 2011   7.603  11.576   4.800
   58SOL     OW 2012   1.626   0.099   5.651
   58SOL    HW1 2013   1.602   0.087   5.559
   58SOL    HW2 2014   1.690   0.170   5.649
   59SOL     OW 2015   4.342   9.378  14.039
   59SOL    HW1 2016   4.276   9.386  14.108
   59SOL    HW2 2017   4.345   9.284  14.021
   60SOL     OW 2018  13.255   3.704   5.177
   60SOL    HW1 2019  13.205   3.643   5.231
   60SOL    HW2 2020  13.248   3.788   5.223
   61SOL     OW 2021   7.869   1.958   2.404
   61SOL    HW1 2022   7.833   1.872   2.429
   61SOL    HW2 2023   7.838   1.971   2.315
   62SOL     OW 2024  13.174   8.587   3.399
   62SOL    HW1 2025  13.177   8.560   3.491
   62SOL    HW2 2026  13.136   8.675   3.402
   63SOL     OW 2027  10.709  11.625   0.306
   63SOL    HW1 2028  10.728  11.532   0.295
   63SOL    HW2 2029  10.620  11.628   0.342
   64SOL     OW 2030  12.090  11.199   1.975
   64SOL    HW1 2031  12.080  11.118   1.925
   64SOL    HW2 2032  12.166  11.183   2.030
   65SOL     OW 2033   7.012   5.877  12.405
   65SOL    HW1 2034   7.078   5.922  12.352
   65SOL    HW2 2035   6.940   5.940  12.411
   66SOL     OW 2036   4.576   9.240  13.696
   66SOL    HW1 2037   4.602   9.190  13.773
   66SOL    HW2 2038   4.547   9.324  13.730
   67SOL     OW 2039   0.620   1.647   6.839
   67SOL    HW1 2040   0.543   1.591   6.828
   67SOL    HW2 2041   0.614   1.678   6.929
   68SOL     OW 2042   4.699  12.374   5.412
   68SOL    HW1 2043   4.779  12.366   5.360
   68SOL    HW2 2044   4.678  12.467   5.409
   69SOL     OW 2045   7.372   6.016   9.212
   69SOL    HW1 2046   7.340   6.085   9.270
   69SOL    HW2 2047   7.399   6.062   9.133
   70SOL     OW 2048   0.568  10.939   1.705
   70SOL    HW1 2049   0.547  10.990   1.783
   70SOL    HW2 2050   0.501  10.963   1.642
   71SOL     OW 2051   5.214   9.289  12.404
   71SOL    HW1 2052   5.174   9.360  12.355
   71SOL    HW2 2053   5.151   9.218  12.401
   72SOL     OW 2054  11.643  12.574   0.649
   72SOL    HW1 2055  11.708  12.622   0.699
   72SOL    HW2 2056  11.632  12.624   0.569
   73SOL     OW 2057  14.100   7.652   9.082
   73SOL    HW1 2058  14.047   7.583   9.121
   73SOL    HW2 2059  14.114   7.715   9.153
   74SOL     OW 2060  13.629  12.754   1.056
   74SOL    HW1 2061  13.646  12.795   1.140
   74SOL    HW2 2062  13.649  12.821   0.991
   75SOL     OW 2063   8.291   3.198   6.859
   75SOL    HW1 2064   8.366   3.138   6.863
   75SOL    HW2 2065   8.218   3.143   6.832
   76SOL     OW 2066   9.548   5.519  10.171
   76SOL    HW1 2067   9.522   5.555  10.086
   76SOL    HW2 2068   9.525   5.588  10.234
   77SOL     OW 2069   2.841   3.463   4.411
   77SOL    HW1 2070   2.818   3.413   4.333
   77SOL    HW2 2071   2.778   3.535   4.413
   78SOL     OW 2072   6.568   9.322   4.804
   78SOL    HW1 2073   6.607   9.291   4.886
   78SOL    HW2 2074   6.639   9.371   4.762
   79SOL     OW 2075   0.669  12.446  11.482
   79SOL    HW1 2076   0.746  12.390  11.489
   79SOL    HW2 2077   0.702  12.535  11.492
   80SOL     OW 2078   3.535   9.492   3.758
   80SOL    HW1 2079   3.489   9.576   3.754
   80SOL    HW2 2080   3.611   9.510   3.814
   81SOL     OW 2081  13.954   5.953   7.061
   81SOL    HW1 2082  13.895   5.985   6.993
   81SOL    HW2 2083  13.896   5.916   7.128
   82SOL     OW 2084  14.441   8.630  11.974
   82SOL    HW1 2085  14.496   8.557  11.943
   82SOL    HW2 2086  14.469   8.643  12.065
   83SOL     OW 2087   1.163   1.000   6.962
   83SOL    HW1 2088   1.200   0.920   6.924
   83SOL    HW2 2089   1.073   0.976   6.986
   84SOL     OW 2090   1.536   2.446  10.328
   84SOL    HW1 2091   1.460   2.421  10.381
   84SOL    HW2 2092   1.594   2.490  10.390
   85SOL     OW 2093  13.595  12.380   4.804
   85SOL    HW1 2094  13.589  12.379   4.899
   85SOL    HW2 2095  13.681  12.343   4.785
   86SOL     OW 2096  12.808  11.830  12.157
   86SOL    HW1 2097  12.827  11.825  12.064
   86SOL    HW2 2098  12.874  11.890  12.192
   87SOL     OW 2099   9.184   2.327   1.842
   87SOL    HW1 2100   9.135   2.254   1.804
   87SOL    HW2 2101   9.139   2.345   1.925
   88SOL     OW 2102  13.182  11.181   7.613
   88SOL    HW1 2103  13.155  11.229   7.692
   88SOL    HW2 2104  13.181  11.089   7.640
   89SOL     OW 2105   3.175   4.797   2.789
   89SOL    HW1 2106   3.111   4.867   2.773
   89SOL    HW2 2107   3.123   4.717   2.789
   90SOL     OW 2108   2.405   0.699  11.496
   90SOL    HW1 2109   2.405   0.630  11.562
   90SOL    HW2 2110   2.396   0.654  11.413
   91SOL     OW 2111   3.648   5.038   3.338
   91SOL    HW1 2112   3.569   5.084   3.367
   91SOL    HW2 2113   3.625   5.004   3.251
   92SOL     OW 2114   0.565   3.287   1.860
   92SOL    HW1 2115   0.636   3.351   1.863
   92SOL    HW2 2116   0.485   3.339   1.865
   93SOL     OW 2117  13.288   1.022   0.807
   93SOL    HW1 2118  13.270   1.019   0.901
   93SOL    HW2 2119  13.382   1.037   0.800
   94SOL     OW 2120  10.660  10.331  10.153
   94SOL    HW1 2121  10.639  10.420  10.180
   94SOL    HW2 2122  10.589  10.307  10.094
   95SOL     OW 2123  12.985  10.548   7.252
   95SOL    HW1 2124  13.075  10.518   7.265
   95SOL    HW2 2125  12.984  10.583   7.163
   96SOL     OW 2126   1.602   6.443  10.804
   96SOL    HW1 2127   1.635   6.357  10.833
   96SOL    HW2 2128   1.633   6.452  10.714
   97SOL     OW 2129  13.038   6.772   5.204
   97SOL    HW1 2130  13.099   6.808   5.139
   97SOL    HW2 2131  12.951   6.787   5.167
   98SOL     OW 2132   5.085  12.576   7.003
   98SOL    HW1 2133   5.025  12.650   7.008
   98SOL    HW2 2134   5.108  12.557   7.094
   99SOL     OW 2135  10.008   9.699  12.340
   99SOL    HW1 2136   9.930   9.644  12.337
   99SOL    HW2 2137  10.049   9.688  12.254
  100SOL     OW 2138   0.264  11.241  14.493
  100SOL    HW1 2139   0.205  11.287  14.553
  100SOL    HW2 2140   0.211  11.170  14.457
  101SOL     OW 2141  10.916   7.388   4.736
  101SOL    HW1 2142  10.854   7.453   4.767
  101SOL    HW2 2143  10.873   7.347   4.662
  102SOL     OW 2144   8.852   7.358  10.742
  102SOL    HW1 2145   8.906   7.411  10.800
  102SOL    HW2 2146   8.774   7.411  10.726
  103SOL     OW 2147   0.175   8.172  14.690
  103SOL    HW1 2148   0.245   8.178  14.755
  103SOL    HW2 2149   0.220   8.142  14.610
  104SOL     OW 2150   4.370   2.523  11.659
  104SOL    HW1 2151   4.456   2.524  11.615
  104SOL    HW2 2152   4.310   2.489  11.593
  105SOL     OW 2153   0.087   1.484   4.160
  105SOL    HW1 2154   0.135   1.402   4.146
  105SOL    HW2 2155   0.117   1.541   4.090
  106SOL     OW 2156   7.944   9.082   4.019
  106SOL    HW1 2157   7.976   9.049   4.103
  106SOL    HW2 2158   7.951   9.006   3.960
  107SOL     OW 2159   6.648   7.296   3.260
  107SOL    HW1 2160   6.571   7.257   3.219
  107SOL    HW2 2161   6.614   7.340   3.338
  108SOL     OW 2162   3.904  10.857   0.921
  108SOL    HW1 2163   3.986  10.845   0.872
  108SOL    HW2 2164   3.871  10.769   0.934
  109SOL     OW 2165   7.971   2.387   7.133
  109SOL    HW1 2166   7.903   2.347   7.188
  109SOL    HW2 2167   8.022   2.441   7.194
  110SOL     OW 2168  13.967  11.484   3.467
  110SOL    HW1 2169  13.881  11.514   3.437
  110SOL    HW2 2170  13.999  11.554   3.524
  111SOL     OW 2171   6.738  11.034  12.579
  111SOL    HW1 2172   6.808  10.974  12.607
  111SOL    HW2 2173   6.773  11.121  12.597
  112SOL     OW 2174  13.449   6.676  10.269
  112SOL    HW1 2175  13.428   6.768  10.284
  112SOL    HW2 2176  13.458   6.669  10.174
  113SOL     OW 2177   9.146   2.006   7.697
  113SOL    HW1 2178   9.141   1.948   7.621
  113SOL    HW2 2179   9.214   1.967   7.752
  114SOL     OW 2180   2.955   9.042  14.376
  114SOL    HW1 2181   3.019   8.973  14.397
  114SOL    HW2 2182   2.871   8.997  14.377
  115SOL     OW 2183   1.918  13.756   9.291
  115SOL    HW1 2184   1.879  13.782   9.207
  115SOL    HW2 2185   1.940  13.664   9.279
  116SOL     OW 2186   9.396  10.105   8.039
  116SOL    HW1 2187   9.419  10.189   7.997
  116SOL    HW2 2188   9.334  10.129   8.108
  117SOL     OW 2189  11.447  14.787   1.286
  117SOL    HW1 2190  11.362  14.830   1.274
  117SOL    HW2 2191  11.489  14.837   1.356
  118SOL     OW 2192  10.862  14.784  13.528
  118SOL    HW1 2193  10.848  14.698  13.489
  118SOL    HW2 2194  10.957  14.789  13.542
  119SOL     OW 2195   9.176   5.137   1.266
  119SOL    HW1 2196   9.195   5.215   1.318
  119SOL    HW2 2197   9.083   5.142   1.246
  120SOL     OW 2198  11.957   6.047  12.450
  120SOL    HW1 2199  12.050   6.053  12.432
  120SOL    HW2 2200  11.952   6.015  12.540
  121SOL     OW 2201   1.771   7.823   8.441
  121SOL    HW1 2202   1.682   7.816   8.406
  121SOL    HW2 2203   1.820   7.870   8.373
  122SOL     OW 2204   3.031   6.664   8.529
  122SOL    HW1 2205   3.082   6.620   8.597
  122SOL    HW2 2206   2.996   6.592   8.476
  123SOL     OW 2207   8.632   0.031  12.404
  123SOL    HW1 2208   8.617  14.830  12.455
  123SOL    HW2 2209   8.544   0.058  12.378
  124SOL     OW 2210   4.066  12.013   1.187
  124SOL    HW1 2211   4.018  12.016   1.104
  124SOL    HW2 2212   4.025  12.081   1.240
  125SOL     OW 2213   3.413   1.626  11.991
  125SOL    HW1 2214   3.484   1.594  12.047
  125SOL    HW2 2215   3.349   1.555  11.989
  126SOL     OW 2216   6.599   2.402   4.098
  126SOL    HW1 2217   6.653   2.427   4.023
  126SOL    HW2 2218   6.622   2.311   4.116
  127SOL     OW 2219   9.309   6.561  13.594
  127SOL    HW1 2220   9.308   6.511  13.676
  127SOL    HW2 2221   9.394   6.540  13.555
  128SOL     OW 2222  14.320   4.521   4.269
  128SOL    HW1 2223  14.249   4.553   4.213
  128SOL    HW2 2224  14.278   4.456   4.326
  129SOL     OW 2225   2.376   5.540   3.435
  129SOL    HW1 2226   2.313   5.532   3.506
  129SOL    HW2 2227   2.458   5.563   3.478
  130SOL     OW 2228   0.287   1.464   7.791
  130SOL    HW1 2229   0.211   1.519   7.805
  130SOL    HW2 2230   0.288   1.404   7.866
  131SOL     OW 2231   5.168   6.670  13.965
  131SOL    HW1 2232   5.145   6.753  14.006
  131SOL    HW2 2233   5.201   6.694  13.878
  132SOL     OW 2234  11.984   4.034   4.395
  132SOL    HW1 2235  12.039   4.049   4.318
  132SOL    HW2 2236  11.925   4.110   4.397
  133SOL     OW 2237   8.326   2.816   6.796
  133SOL    HW1 2238   8.330   2.728   6.833
  133SOL    HW2 2239   8.232   2.831   6.782
  134SOL     OW 2240   3.561   5.632   5.090
  134SOL    HW1 2241   3.515   5.573   5.149
  134SOL    HW2 2242   3.653   5.611   5.100
  135SOL     OW 2243   4.136   4.185   0.335
  135SOL    HW1 2244   4.101   4.129   0.266
  135SOL    HW2 2245   4.205   4.235   0.293
  136SOL     OW 2246   1.403  10.399  11.612
  136SOL    HW1 2247   1.350  10.373  11.536
  136SOL    HW2 2248   1.341  10.446  11.669
  137SOL     OW 2249  10.233   6.915  10.806
  137SOL    HW1 2250  10.294   6.843  10.788
  137SOL    HW2 2251  10.218   6.955  10.720
  138SOL     OW 2252  14.545   6.451   5.193
  138SOL    HW1 2253  14.586   6.456   5.279
  138SOL    HW2 2254  14.613   6.414   5.136
  139SOL     OW 2255   8.072   3.692  12.161
  139SOL    HW1 2256   8.101   3.601  12.169
  139SOL    HW2 2257   7.998   3.699  12.222
  140SOL     OW 2258  12.643   8.605  14.450
  140SOL    HW1 2259  12.602   8.608  14.537
  140SOL    HW2 2260  12.693   8.524  14.449
  141SOL     OW 2261  13.174  14.250  12.994
  141SOL    HW1 2262  13.254  14.243  13.046
  141SOL    HW2 2263  13.143  14.339  13.009
  142SOL     OW 2264   5.911  10.838   6.975
  142SOL    HW1 2265   5.939  10.851   7.065
  142SOL    HW2 2266   5.903  10.743   6.965
  143SOL     OW 2267   7.505   1.654   3.125
  143SOL    HW1 2268   7.546   1.704   3.196
  143SOL    HW2 2269   7.460   1.582   3.169
  144SOL     OW 2270   1.955   2.761   8.078
  144SOL    HW1 2271   2.025   2.762   8.012
  144SOL    HW2 2272   1.964   2.845   8.123
  145SOL     OW 2273   3.071  12.487   2.507
  145SOL    HW1 2274   3.132  12.445   2.446
  145SOL    HW2 2275   3.069  12.579   2.478
  146SOL     OW 2276   3.709   0.259   4.471
  146SOL    HW1 2277   3.750   0.343   4.492
  146SOL    HW2 2278   3.643   0.248   4.539
  147SOL     OW 2279   0.921  12.932   1.565
  147SOL    HW1 2280   0.866  12.953   1.640
  147SOL    HW2 2281   0.873  12.967   1.489
  148SOL     OW 2282  12.511  13.723   9.625
  148SOL    HW1 2283  12.457  13.768   9.690
  148SOL    HW2 2284  12.452  13.709   9.551
  149SOL     OW 2285   0.771   4.109   8.346
  149SOL    HW1 2286   0.808   4.021   8.353
  149SOL    HW2 2287   0.755   4.121   8.252
  150SOL     OW 2288   7.052   4.795   5.509
  150SOL    HW1 2289   7.132   4.846   5.498
  150SOL    HW2 2290   7.019   4.821   5.595
  151SOL     OW 2291   6.681   7.939  11.622
  151SOL    HW1 2292   6.699   7.846  11.633
  151SOL    HW2 2293   6.755   7.983  11.664
  152SOL     OW 2294   8.432   3.786   2.691
  152SOL    HW1 2295   8.513   3.734   2.687
  152SOL    HW2 2296   8.461   3.876   2.703
  153SOL     OW 2297  11.645   7.092  12.673
  153SOL    HW1 2298  11.621   7.185  12.671
  153SOL    HW2 2299  11.682   7.079  12.760
  154SOL     OW 2300  11.473   3.715  11.474
  154SOL    HW1 2301  11.418   3.637  11.464
  154SOL    HW2 2302  11.560   3.681  11.497
  155SOL     OW 2303  12.261   2.154   9.751
  155SOL    HW1 2304  12.221   2.240   9.738
  155SOL    HW2 2305  12.293   2.157   9.842
  156SOL     OW 2306   9.363   3.809   8.506
  156SOL    HW1 2307   9.401   3.865   8.439
  156SOL    HW2 2308   9.324   3.869   8.569
  157SOL     OW 2309   2.161  10.162  14.811
  157SOL    HW1 2310   2.118  10.245  14.829
  157SOL    HW2 2311   2.089  10.101  14.794
  158SOL     OW 2312  10.980   3.050   9.494
  158SOL    HW1 2313  10.936   3.073   9.575
  158SOL    HW2 2314  10.911   3.054   9.427
  159SOL     OW 2315   9.270   7.245   7.104
  159SOL    HW1 2316   9.234   7.261   7.192
  159SOL    HW2 2317   9.270   7.150   7.096
  160SOL     OW 2318   7.590   1.873   9.867
  160SOL    HW1 2319   7.513   1.898   9.815
  160SOL    HW2 2320   7.559   1.802   9.922
  161SOL     OW 2321   3.684   4.262  12.796
  161SOL    HW1 2322   3.754   4.262  12.732
  161SOL    HW2 2323   3.623   4.195  12.765
  162SOL     OW 2324   6.094  13.876  13.996
  162SOL    HW1 2325   6.042  13.827  13.933
  162SOL    HW2 2326   6.053  13.963  13.999
  163SOL     OW 2327  13.571   1.660   3.711
  163SOL    HW1 2328  13.594   1.737   3.659
  163SOL    HW2 2329  13.618   1.671   3.794
  164SOL     OW 2330   5.920   4.355   6.429
  164SOL    HW1 2331   5.836   4.400   6.434
  164SOL    HW2 2332   5.965   4.379   6.510
  165SOL     OW 2333   5.530   0.182  11.253
  165SOL    HW1 2334   5.531   0.275  11.230
  165SOL    HW2 2335   5.447   0.150  11.217
  166SOL     OW 2336   7.483   3.771   5.435
  166SOL    HW1 2337   7.563   3.823   5.435
  166SOL    HW2 2338   7.414   3.834   5.454
  167SOL     OW 2339   3.989   6.491  12.575
  167SOL    HW1 2340   4.060   6.505  12.513
  167SOL    HW2 2341   3.941   6.416  12.540
  168SOL     OW 2342   7.260   6.626  12.961
  168SOL    HW1 2343   7.266   6.700  13.021
  168SOL    HW2 2344   7.214   6.558  13.011
  169SOL     OW 2345   2.162  12.187   2.925
  169SOL    HW1 2346   2.203  12.222   3.004
  169SOL    HW2 2347   2.092  12.131   2.957
  170SOL     OW 2348   1.796   6.560  14.381
  170SOL    HW1 2349   1.876   6.521  14.418
  170SOL    HW2 2350   1.735   6.565  14.455
  171SOL     OW 2351  13.872  13.215  13.878
  171SOL    HW1 2352  13.876  13.189  13.970
  171SOL    HW2 2353  13.962  13.239  13.856
  172SOL     OW 2354   2.359  14.238   9.641
  172SOL    HW1 2355   2.368  14.234   9.546
  172SOL    HW2 2356   2.298  14.310   9.656
  173SOL     OW 2357   1.024   9.390   7.489
  173SOL    HW1 2358   0.973   9.320   7.529
  173SOL    HW2 2359   0.961   9.462   7.478
  174SOL     OW 2360   3.951   9.910   7.818
  174SOL    HW1 2361   3.988   9.913   7.730
  174SOL    HW2 2362   3.863   9.875   7.806
  175SOL     OW 2363   8.577   6.250   0.376
  175SOL    HW1 2364   8.594   6.256   0.282
  175SOL    HW2 2365   8.506   6.313   0.391
  176SOL     OW 2366   2.442   0.423  11.674
  176SOL    HW1 2367   2.479   0.335  11.672
  176SOL    HW2 2368   2.438   0.445  11.767
  177SOL     OW 2369   3.624   0.522   3.425
  177SOL    HW1 2370   3.576   0.558   3.499
  177SOL    HW2 2371   3.575   0.444   3.400
  178SOL     OW 2372   9.194  14.398   8.948
  178SOL    HW1 2373   9.243  14.475   8.922
  178SOL    HW2 2374   9.132  14.430   9.014
  179SOL     OW 2375  12.076   8.561  11.788
  179SOL    HW1 2376  12.014   8.550  11.715
  179SOL    HW2 2377  12.144   8.619  11.753
  180SOL     OW 2378   2.151   2.741  11.134
  180SOL    HW1 2379   2.061   2.753  11.165
  180SOL    HW2 2380   2.205   2.747  11.213
  181SOL     OW 2381   5.678   6.057  14.203
  181SOL    HW1 2382   5.611   6.063  14.271
  181SOL    HW2 2383   5.635   6.010  14.132
  182SOL     OW 2384   0.548   7.021   2.037
  182SOL    HW1 2385   0.547   7.056   2.126
  182SOL    HW2 2386   0.480   6.954   2.036
  183SOL     OW 2387   3.319   6.271  14.305
  183SOL    HW1 2388   3.357   6.355  14.331
  183SOL    HW2 2389   3.395   6.218  14.279
  184SOL     OW 2390   3.553   6.682   4.649
  184SOL    HW1 2391   3.580   6.592   4.665
  184SOL    HW2 2392   3.463   6.675   4.618
  185SOL     OW 2393   8.883   5.511  13.261
  185SOL    HW1 2394   8.976   5.494  13.245
  185SOL    HW2 2395   8.839   5.430  13.236
  186SOL     OW 2396   3.005   8.267   5.795
  186SOL    HW1 2397   3.013   8.192   5.854
  186SOL    HW2 2398   2.912   8.269   5.772
  187SOL     OW 2399  13.371   0.676  11.931
  187SOL    HW1 2400  13.379   0.767  11.903
  187SOL    HW2 2401  13.286   0.648  11.898
  188SOL     OW 2402  11.476   4.127   2.162
  188SOL    HW1 2403  11.531   4.068   2.214
  188SOL    HW2 2404  11.445   4.072   2.090
  189SOL     OW 2405   1.966   8.447   3.978
  189SOL    HW1 2406   2.022   8.383   3.936
  189SOL    HW2 2407   1.950   8.411   4.066
  190SOL     OW 2408   0.043   6.618   0.551
  190SOL    HW1 2409   0.008   6.702   0.522
  190SOL    HW2 2410   0.093   6.639   0.629
  191SOL     OW 2411  12.229  11.633   5.822
  191SOL    HW1 2412  12.177  11.710   5.800
  191SOL    HW2 2413  12.206  11.613   5.912
  192SOL     OW 2414   6.072   9.680  10.686
  192SOL    HW1 2415   5.989   9.660  10.642
  192SOL    HW2 2416   6.066   9.773  10.708
  193SOL     OW 2417  11.102   5.394  10.485
  193SOL    HW1 2418  11.136   5.477  10.453
  193SOL    HW2 2419  11.129   5.330  10.419
  194SOL     OW 2420  14.264   0.387   2.306
  194SOL    HW1 2421  14.355   0.371   2.334
  194SOL    HW2 2422  14.262   0.356   2.216
  195SOL     OW 2423   5.862   6.613   7.576
  195SOL    HW1 2424   5.825   6.529   7.604
  195SOL    HW2 2425   5.926   6.635   7.644
  196SOL     OW 2426   9.111   8.234   7.471
  196SOL    HW1 2427   9.115   8.159   7.530
  196SOL    HW2 2428   9.071   8.200   7.391
  197SOL     OW 2429  12.954  14.438  11.238
  197SOL    HW1 2430  12.892  14.406  11.303
  197SOL    HW2 2431  12.996  14.359  11.204
  198SOL     OW 2432  11.817  12.121   1.097
  198SOL    HW1 2433  11.837  12.028   1.104
  198SOL    HW2 2434  11.872  12.163   1.163
  199SOL     OW 2435   9.332  14.461   9.568
  199SOL    HW1 2436   9.318  14.372   9.598
  199SOL    HW2 2437   9.280  14.468   9.488
  200SOL     OW 2438   2.235  10.693   4.858
  200SOL    HW1 2439   2.140  10.685   4.860
  200SOL    HW2 2440   2.252  10.765   4.797
  201SOL     OW 2441   3.371   4.286   8.951
  201SOL    HW1 2442   3.432   4.285   9.024
  201SOL    HW2 2443   3.304   4.222   8.975
  202SOL     OW 2444   6.307   6.331   6.922
  202SOL    HW1 2445   6.212   6.323   6.930
  202SOL    HW2 2446   6.321   6.407   6.866
  203SOL     OW 2447  10.569  14.067  13.634
  203SOL    HW1 2448  10.629  14.003  13.672
  203SOL    HW2 2449  10.612  14.092  13.551
  204SOL     OW 2450   0.921   9.263   1.885
  204SOL    HW1 2451   0.994   9.318   1.915
  204SOL    HW2 2452   0.889   9.221   1.964
  205SOL     OW 2453  13.946  14.435   7.995
  205SOL    HW1 2454  13.957  14.529   7.986
  205SOL    HW2 2455  14.034  14.403   8.018
  206SOL     OW 2456   7.826   4.579   2.888
  206SOL    HW1 2457   7.881   4.646   2.846
  206SOL    HW2 2458   7.741   4.623   2.900
  207SOL     OW 2459   0.839   6.969  13.015
  207SOL    HW1 2460   0.824   7.057  13.049
  207SOL    HW2 2461   0.756   6.944  12.974
  208SOL     OW 2462   0.480   6.701   3.285
  208SOL    HW1 2463   0.501   6.651   3.364
  208SOL    HW2 2464   0.519   6.787   3.299
  209SOL     OW 2465   7.148   8.304   7.845
  209SOL    HW1 2466   7.185   8.225   7.807
  209SOL    HW2 2467   7.223   8.364   7.851
  210SOL     OW 2468   9.211   1.820   4.484
  210SOL    HW1 2469   9.220   1.910   4.455
  210SOL    HW2 2470   9.216   1.825   4.580
  211SOL     OW 2471   5.320   9.740   9.560
  211SOL    HW1 2472   5.231   9.763   9.586
  211SOL    HW2 2473   5.322   9.644   9.565
  212SOL     OW 2474  10.837   9.609   5.324
  212SOL    HW1 2475  10.809   9.527   5.365
  212SOL    HW2 2476  10.890   9.581   5.249
  213SOL     OW 2477  11.056  10.371  13.824
  213SOL    HW1 2478  11.033  10.327  13.742
  213SOL    HW2 2479  11.146  10.400  13.811
  214SOL     OW 2480  12.931   7.112   5.017
  214SOL    HW1 2481  12.845   7.130   4.979
  214SOL    HW2 2482  12.945   7.019   5.002
  215SOL     OW 2483   6.067  13.278   5.134
  215SOL    HW1 2484   6.043  13.266   5.042
  215SOL    HW2 2485   6.117  13.200   5.157
  216SOL     OW 2486   0.732   6.565   8.527
  216SOL    HW1 2487   0.684   6.569   8.445
  216SOL    HW2 2488   0.825   6.567   8.502
  217SOL     OW 2489   7.399   9.079   4.563
  217SOL    HW1 2490   7.419   9.021   4.489
  217SOL    HW2 2491   7.437   9.035   4.639
  218SOL     OW 2492  12.794   7.517  12.352
  218SOL    HW1 2493  12.847   7.465  12.413
  218SOL    HW2 2494  12.854   7.585  12.320
  219SOL     OW 2495   4.123  12.922   2.661
  219SOL    HW1 2496   4.217  12.919   2.645
  219SOL    HW2 2497   4.085  12.943   2.575
  220SOL     OW 2498   4.316  11.993  10.649
  220SOL    HW1 2499   4.356  12.010  10.564
  220SOL    HW2 2500   4.388  11.963  10.705
  221SOL     OW 2501  12.903   2.553   4.765
  221SOL    HW1 2502  12.898   2.475   4.820
  221SOL    HW2 2503  12.813   2.586   4.762
  222SOL     OW 2504   0.900   6.233  11.958
  222SOL    HW1 2505   0.960   6.299  11.991
  222SOL    HW2 2506   0.861   6.272  11.880
  223SOL     OW 2507  10.156   1.697   8.893
  223SOL    HW1 2508  10.084   1.658   8.842
  223SOL    HW2 2509  10.151   1.654   8.978
  224SOL     OW 2510   8.883   5.887   1.120
  224SOL    HW1 2511   8.914   5.843   1.199
  224SOL    HW2 2512   8.883   5.819   1.053
  225SOL     OW 2513  10.219  13.698   0.206
  225SOL    HW1 2514  10.199  13.786   0.173
  225SOL    HW2 2515  10.134  13.658   0.221
  226SOL     OW 2516   0.169  11.941   9.673
  226SOL    HW1 2517   0.202  12.026   9.700
  226SOL    HW2 2518   0.208  11.879   9.734
  227SOL     OW 2519   6.124   9.892   5.759
  227SOL    HW1 2520   6.147   9.984   5.771
  227SOL    HW2 2521   6.200   9.853   5.715
  228SOL     OW 2522   4.341  14.647  11.046
  228SOL    HW1 2523   4.333  14.565  11.094
  228SOL    HW2 2524   4.295  14.631  10.963
  229SOL     OW 2525   2.283   3.816   2.838
  229SOL    HW1 2526   2.255   3.734   2.880
  229SOL    HW2 2527   2.218   3.880   2.865
  230SOL     OW 2528  11.886  13.769   8.108
  230SOL    HW1 2529  11.832  13.809   8.176
  230SOL    HW2 2530  11.895  13.838   8.042
  231SOL     OW 2531   1.489   6.626   8.865
  231SOL    HW1 2532   1.517   6.554   8.808
  231SOL    HW2 2533   1.570   6.674   8.885
  232SOL     OW 2534   6.979   4.927   4.412
  232SOL    HW1 2535   6.897   4.970   4.384
  232SOL    HW2 2536   7.009   4.979   4.486
  233SOL     OW 2537   9.931   0.696   8.657
  233SOL    HW1 2538  10.013   0.738   8.685
  233SOL    HW2 2539   9.872   0.708   8.731
  234SOL     OW 2540  10.645  13.391  14.741
  234SOL    HW1 2541  10.694  13.474  14.739
  234SOL    HW2 2542  10.706  13.329  14.780
  235SOL     OW 2543  11.273   7.147   7.431
  235SOL    HW1 2544  11.249   7.239   7.443
  235SOL    HW2 2545  11.328   7.126   7.506
  236SOL     OW 2546   2.843   5.402   2.693
  236SOL    HW1 2547   2.887   5.384   2.776
  236SOL    HW2 2548   2.853   5.496   2.681
  237SOL     OW 2549   8.170  10.865  11.673
  237SOL    HW1 2550   8.187  10.925  11.600
  237SOL    HW2 2551   8.251  10.815  11.681
  238SOL     OW 2552   5.138  14.343   8.550
  238SOL    HW1 2553   5.142  14.383   8.637
  238SOL    HW2 2554   5.047  14.314   8.541
  239SOL     OW 2555   6.264  11.074   5.858
  239SOL    HW1 2556   6.289  11.145   5.917
  239SOL    HW2 2557   6.220  11.010   5.915
  240SOL     OW 2558   8.475   4.144  10.296
  240SOL    HW1 2559   8.403   4.165  10.356
  240SOL    HW2 2560   8.439   4.079  10.236
  241SOL     OW 2561   8.664   4.338  13.041
  241SOL    HW1 2562   8.569   4.335  13.048
  241SOL    HW2 2563   8.680   4.376  12.954
  242SOL     OW 2564   9.098   8.788   2.004
  242SOL    HW1 2565   9.123   8.778   2.097
  242SOL    HW2 2566   9.152   8.723   1.959
  243SOL     OW 2567  10.400  14.796   6.385
  243SOL    HW1 2568  10.386  14.803   6.290
  243SOL    HW2 2569  10.487  14.757   6.393
  244SOL     OW 2570   1.258  11.041  13.871
  244SOL    HW1 2571   1.196  11.071  13.804
  244SOL    HW2 2572   1.210  11.048  13.953
  245SOL     OW 2573  12.714  10.683   8.753
  245SOL    HW1 2574  12.621  10.666   8.738
  245SOL    HW2 2575  12.716  10.771   8.792
  246SOL     OW 2576   2.533   7.640   8.356
  246SOL    HW1 2577   2.446   7.633   8.397
  246SOL    HW2 2578   2.548   7.553   8.318
  247SOL     OW 2579   6.062   6.996   7.557
  247SOL    HW1 2580   6.043   6.953   7.640
  247SOL    HW2 2581   6.066   6.925   7.494
  248SOL     OW 2582  13.843   0.097   5.848
  248SOL    HW1 2583  13.765   0.088   5.794
  248SOL    HW2 2584  13.898   0.159   5.801
  249SOL     OW 2585  11.150  14.277  14.763
  249SOL    HW1 2586  11.139  14.250  14.854
  249SOL    HW2 2587  11.208  14.211  14.725
  250SOL     OW 2588  10.669   0.284   7.358
  250SOL    HW1 2589  10.610   0.358   7.368
  250SOL    HW2 2590  10.613   0.207   7.366
  251SOL     OW 2591  14.195  14.686  11.733
  251SOL    HW1 2592  14.112  14.688  11.781
  251SOL    HW2 2593  14.172  14.703  11.642
  252SOL     OW 2594  12.661   1.279   5.748
  252SOL    HW1 2595  12.752   1.309   5.758
  252SOL    HW2 2596  12.637   1.247   5.834
  253SOL     OW 2597   8.315   9.452   8.225
  253SOL    HW1 2598   8.338   9.524   8.284
  253SOL    HW2 2599   8.398   9.428   8.183
  254SOL     OW 2600   3.392   3.063   6.811
  254SOL    HW1 2601   3.401   2.975   6.846
  254SOL    HW2 2602   3.306   3.063   6.768
  255SOL     OW 2603   9.552  11.542   3.514
  255SOL    HW1 2604   9.554  11.605   3.586
  255SOL    HW2 2605   9.520  11.591   3.439
  256SOL     OW 2606  12.330   7.263   9.839
  256SOL    HW1 2607  12.303   7.190   9.896
  256SOL    HW2 2608  12.347   7.335   9.900
  257SOL     OW 2609   9.072  13.709   1.141
  257SOL    HW1 2610   9.043  13.751   1.059
  257SOL    HW2 2611   9.113  13.628   1.112
  258SOL     OW 2612   2.148   7.160  12.613
  258SOL    HW1 2613   2.243   7.147  12.607
  258SOL    HW2 2614   2.127   7.136  12.703
  259SOL     OW 2615   7.858   0.180   4.050
  259SOL    HW1 2616   7.846   0.087   4.030
  259SOL    HW2 2617   7.802   0.225   3.987
  260SOL     OW 2618   0.199  11.006   8.096
  260SOL    HW1 2619   0.158  10.924   8.123
  260SOL    HW2 2620   0.245  10.984   8.015
  261SOL     OW 2621   4.212  12.777   0.050
  261SOL    HW1 2622   4.177  12.845   0.107
  261SOL    HW2 2623   4.293  12.749   0.092
  262SOL     OW 2624  14.666  13.820  12.433
  262SOL    HW1 2625  14.651  13.843  12.342
  262SOL    HW2 2626  14.609  13.745  12.449
  263SOL     OW 2627  11.834   0.590  13.986
  263SOL    HW1 2628  11.899   0.659  13.974
  263SOL    HW2 2629  11.867   0.537  14.058
  264SOL     OW 2630  10.123  13.611   6.619
  264SOL    HW1 2631  10.050  13.556   6.589
  264SOL    HW2 2632  10.137  13.673   6.547
  265SOL     OW 2633   1.849  12.429   9.972
  265SOL    HW1 2634   1.908  12.486  10.021
  265SOL    HW2 2635   1.835  12.474   9.889
  266SOL     OW 2636   8.595   9.549  10.147
  266SOL    HW1 2637   8.547   9.630  10.132
  266SOL    HW2 2638   8.640   9.532  10.064
  267SOL     OW 2639   9.580   6.299   5.042
  267SOL    HW1 2640   9.627   6.368   5.090
  267SOL    HW2 2641   9.647   6.235   5.019
  268SOL     OW 2642  10.816  10.033  10.880
  268SOL    HW1 2643  10.781  10.085  10.807
  268SOL    HW2 2644  10.896   9.993  10.845
  269SOL     OW 2645   4.890  14.801  14.582
  269SOL    HW1 2646   4.942  14.852  14.644
  269SOL    HW2 2647   4.802  14.836  14.590
  270SOL     OW 2648  14.121   0.452   8.663
  270SOL    HW1 2649  14.136   0.503   8.583
  270SOL    HW2 2650  14.085   0.516   8.725
  271SOL     OW 2651   0.238   7.661   5.498
  271SOL    HW1 2652   0.209   7.678   5.588
  271SOL    HW2 2653   0.208   7.572   5.480
  272SOL     OW 2654   3.063  13.257   4.208
  272SOL    HW1 2655   3.145  13.303   4.227
  272SOL    HW2 2656   3.084  13.199   4.135
  273SOL     OW 2657   3.263   4.099   4.554
  273SOL    HW1 2658   3.223   4.056   4.628
  273SOL    HW2 2659   3.340   4.046   4.534
  274SOL     OW 2660   1.915  11.743   4.855
  274SOL    HW1 2661   1.959  11.826   4.872
  274SOL    HW2 2662   1.826  11.768   4.829
  275SOL     OW 2663   2.918   1.357   7.644
  275SOL    HW1 2664   2.858   1.310   7.702
  275SOL    HW2 2665   2.993   1.299   7.633
  276SOL     OW 2666   0.572  12.253  13.330
  276SOL    HW1 2667   0.600  12.162  13.319
  276SOL    HW2 2668   0.654  12.303  13.327
  277SOL     OW 2669  13.846  11.284   3.149
  277SOL    HW1 2670  13.819  11.375   3.136
  277SOL    HW2 2671  13.778  11.233   3.106
  278SOL     OW 2672  10.530   9.276   4.411
  278SOL    HW1 2673  10.602   9.338   4.422
  278SOL    HW2 2674  10.518   9.270   4.316
  279SOL     OW 2675  12.562   7.004   5.616
  279SOL    HW1 2676  12.604   7.007   5.702
  279SOL    HW2 2677  12.562   6.911   5.593
  280SOL     OW 2678   3.533   3.675  11.276
  280SOL    HW1 2679   3.554   3.602  11.335
  280SOL    HW2 2680   3.498   3.743  11.333
  281SOL     OW 2681   4.975  12.094   2.277
  281SOL    HW1 2682   4.912  12.158   2.311
  281SOL    HW2 2683   4.943  12.073   2.190
  282SOL     OW 2684  13.207  12.090   3.360
  282SOL    HW1 2685  13.263  12.014   3.374
  282SOL    HW2 2686  13.252  12.161   3.407
  283SOL     OW 2687   8.057   8.166   7.907
  283SOL    HW1 2688   7.977   8.117   7.894
  283SOL    HW2 2689   8.036   8.229   7.976
  284SOL     OW 2690  12.484  14.018   3.681
  284SOL    HW1 2691  12.548  14.069   3.731
  284SOL    HW2 2692  12.534  13.945   3.644
  285SOL     OW 2693   5.014  14.116   6.506
  285SOL    HW1 2694   4.963  14.095   6.584
  285SOL    HW2 2695   5.088  14.055   6.509
  286SOL     OW 2696   3.717  11.594   9.954
  286SOL    HW1 2697   3.626  11.613   9.931
  286SOL    HW2 2698   3.764  11.675   9.935
  287SOL     OW 2699  13.158  14.424   8.646
  287SOL    HW1 2700  13.145  14.337   8.684
  287SOL    HW2 2701  13.126  14.416   8.556
  288SOL     OW 2702  10.565   4.651   1.791
  288SOL    HW1 2703  10.645   4.701   1.809
  288SOL    HW2 2704  10.569   4.576   1.850
  289SOL     OW 2705   6.701  13.691   4.206
  289SOL    HW1 2706   6.726  13.660   4.293
  289SOL    HW2 2707   6.662  13.777   4.221
  290SOL     OW 2708   5.360   2.619  13.179
  290SOL    HW1 2709   5.264   2.615  13.178
  290SOL    HW2 2710   5.387   2.533  13.211
  291SOL     OW 2711   7.328  14.633   4.700
  291SOL    HW1 2712   7.405  14.592   4.738
  291SOL    HW2 2713   7.277  14.561   4.662
  292SOL     OW 2714   9.533  11.674   7.066
  292SOL    HW1 2715   9.561  11.592   7.026
  292SOL    HW2 2716   9.477  11.715   7.000
  293SOL     OW 2717   7.532   1.734   4.858
  293SOL    HW1 2718   7.453   1.770   4.818
  293SOL    HW2 2719   7.500   1.690   4.937
  294SOL     OW 2720   8.393   1.604  10.785
  294SOL    HW1 2721   8.341   1.542  10.836
  294SOL    HW2 2722   8.330   1.665  10.749
  295SOL     OW 2723   8.521   2.839   8.072
  295SOL    HW1 2724   8.479   2.868   8.153
  295SOL    HW2 2725   8.603   2.797   8.101
  296SOL     OW 2726   6.947  13.877   1.700
  296SOL    HW1 2727   6.951  13.942   1.770
  296SOL    HW2 2728   7.022  13.897   1.644
  297SOL     OW 2729   7.054  14.231   7.961
  297SOL    HW1 2730   7.113  14.166   7.922
  297SOL    HW2 2731   7.028  14.192   8.045
  298SOL     OW 2732  11.110   0.184   1.912
  298SOL    HW1 2733  11.148   0.202   1.998
  298SOL    HW2 2734  11.132   0.093   1.894
  299SOL     OW 2735  10.858   0.173   0.142
  299SOL    HW1 2736  10.817   0.259   0.143
  299SOL    HW2 2737  10.928   0.180   0.077
  300SOL     OW 2738  14.225  12.596   6.236
  300SOL    HW1 2739  14.195  12.578   6.147
  300SOL    HW2 2740  14.318  12.619   6.226
  301SOL     OW 2741   2.728  11.328   6.212
  301SOL    HW1 2742   2.680  11.262   6.163
  301SOL    HW2 2743   2.662  11.372   6.265
  302SOL     OW 2744   2.554   8.088  13.546
  302SOL    HW1 2745   2.514   8.175  13.548
  302SOL    HW2 2746   2.479   8.028  13.539
  303SOL     OW 2747   4.122   3.830  14.828
  303SOL    HW1 2748   4.034   3.856  14.853
  303SOL    HW2 2749   4.125   3.843  14.733
  304SOL     OW 2750   1.895  12.960   5.266
  304SOL    HW1 2751   1.938  12.894   5.210
  304SOL    HW2 2752   1.958  13.032   5.270
  305SOL     OW 2753   0.002   4.900   3.855
  305SOL    HW1 2754  14.867   4.981   3.805
  305SOL    HW2 2755   0.003   4.929   3.947
  306SOL     OW 2756  14.862  11.309  12.099
  306SOL    HW1 2757   0.071  11.281  12.077
  306SOL    HW2 2758  14.808  11.232  12.084
  307SOL     OW 2759   0.660   6.100   6.988
  307SOL    HW1 2760   0.665   6.064   6.900
  307SOL    HW2 2761   0.579   6.065   7.024
  308SOL     OW 2762   7.662  10.688   8.185
  308SOL    HW1 2763   7.708  10.621   8.234
  308SOL    HW2 2764   7.642  10.648   8.100
  309SOL     OW 2765  11.957   1.062  10.724
  309SOL    HW1 2766  11.980   0.971  10.704
  309SOL    HW2 2767  11.955   1.067  10.819
  310SOL     OW 2768   2.935  10.873  10.048
  310SOL    HW1 2769   2.941  10.816   9.972
  310SOL    HW2 2770   2.902  10.956  10.014
  311SOL     OW 2771   5.867   1.469   3.807
  311SOL    HW1 2772   5.842   1.504   3.721
  311SOL    HW2 2773   5.831   1.532   3.869
  312SOL     OW 2774  12.704   5.131   4.248
  312SOL    HW1 2775  12.769   5.089   4.192
  312SOL    HW2 2776  12.754   5.195   4.299
  313SOL     OW 2777   2.373  12.976   4.313
  313SOL    HW1 2778   2.431  12.946   4.382
  313SOL    HW2 2779   2.432  13.019   4.250
  314SOL     OW 2780   3.969   9.302   3.847
  314SOL    HW1 2781   3.982   9.390   3.812
  314SOL    HW2 2782   3.888   9.308   3.897
  315SOL     OW 2783   9.767  13.483   0.744
  315SOL    HW1 2784   9.743  13.532   0.665
  315SOL    HW2 2785   9.685  13.474   0.793
  316SOL     OW 2786   8.958   1.979   0.401
  316SOL    HW1 2787   8.947   1.895   0.446
  316SOL    HW2 2788   8.972   2.042   0.472
  317SOL     OW 2789   2.185  13.459   7.707
  317SOL    HW1 2790   2.138  13.379   7.731
  317SOL    HW2 2791   2.184  13.460   7.611
  318SOL     OW 2792   8.129  11.512   4.702
  318SOL    HW1 2793   8.172  11.572   4.763
  318SOL    HW2 2794   8.043  11.552   4.686
  319SOL     OW 2795   9.788   1.691  14.055
  319SOL    HW1 2796   9.700   1.713  14.024
  319SOL    HW2 2797   9.840   1.769  14.034
  320SOL     OW 2798   5.728  11.713   7.277
  320SOL    HW1 2799   5.787  11.648   7.240
  320SOL    HW2 2800   5.784  11.766   7.334
  321SOL     OW 2801   0.775   6.649  12.911
  321SOL    HW1 2802   0.834   6.574  12.909
  321SOL    HW2 2803   0.833   6.725  12.920
  322SOL     OW 2804  10.088  11.592   4.385
  322SOL    HW1 2805  10.116  11.546   4.464
  322SOL    HW2 2806  10.018  11.651   4.414
  323SOL     OW 2807  13.238  11.506   3.470
  323SOL    HW1 2808  13.259  11.446   3.541
  323SOL    HW2 2809  13.320  11.515   3.421
  324SOL     OW 2810   1.533   1.620   0.834
  324SOL    HW1 2811   1.448   1.599   0.797
  324SOL    HW2 2812   1.554   1.546   0.891
  325SOL     OW 2813   3.245   8.905  13.075
  325SOL    HW1 2814   3.215   8.912  13.165
  325SOL    HW2 2815   3.280   8.817  13.067
  326SOL     OW 2816   9.596  11.006   5.312
  326SOL    HW1 2817   9.554  11.091   5.296
  326SOL    HW2 2818   9.525  10.949   5.341
  327SOL     OW 2819   6.331   3.196  10.617
  327SOL    HW1 2820   6.273   3.175  10.690
  327SOL    HW2 2821   6.419   3.196  10.656
  328SOL     OW 2822  10.104   9.717  12.078
  328SOL    HW1 2823  10.035   9.769  12.037
  328SOL    HW2 2824  10.173   9.712  12.011
  329SOL     OW 2825  13.740   7.313   1.308
  329SOL    HW1 2826  13.795   7.380   1.268
  329SOL    HW2 2827  13.690   7.360   1.375
  330SOL     OW 2828   2.419   0.833  12.399
  330SOL    HW1 2829   2.474   0.909  12.419
  330SOL    HW2 2830   2.465   0.759  12.439
  331SOL     OW 2831  13.727   4.881  10.156
  331SOL    HW1 2832  13.742   4.842  10.070
  331SOL    HW2 2833  13.669   4.819  10.201
  332SOL     OW 2834  10.299   5.051   8.594
  332SOL    HW1 2835  10.333   4.981   8.538
  332SOL    HW2 2836  10.376   5.085   8.639
  333SOL     OW 2837  10.700  14.323   8.599
  333SOL    HW1 2838  10.782  14.297   8.640
  333SOL    HW2 2839  10.726  14.386   8.532
  334SOL     OW 2840  14.565  14.720  13.459
  334SOL    HW1 2841  14.515  14.641  13.438
  334SOL    HW2 2842  14.588  14.710  13.551
  335SOL     OW 2843   8.234   0.619   2.980
  335SOL    HW1 2844   8.257   0.535   2.940
  335SOL    HW2 2845   8.144   0.607   3.010
  336SOL     OW 2846  11.239   5.090   7.937
  336SOL    HW1 2847  11.331   5.110   7.956
  336SOL    HW2 2848  11.235   5.084   7.841
  337SOL     OW 2849   1.724  12.635   9.613
  337SOL    HW1 2850   1.717  12.669   9.702
  337SOL    HW2 2851   1.793  12.688   9.572
  338SOL     OW 2852   3.092   4.519   6.928
  338SOL    HW1 2853   3.184   4.515   6.954
  338SOL    HW2 2854   3.092   4.490   6.837
  339SOL     OW 2855  11.158   9.630   1.407
  339SOL    HW1 2856  11.097   9.701   1.428
  339SOL    HW2 2857  11.199   9.658   1.325
  340SOL     OW 2858   1.135   0.543   4.707
  340SOL    HW1 2859   1.086   0.625   4.717
  340SOL    HW2 2860   1.077   0.487   4.656
  341SOL     OW 2861  13.482  10.786   1.858
  341SOL    HW1 2862  13.538  10.709   1.849
  341SOL    HW2 2863  13.394  10.751   1.869
  342SOL     OW 2864  14.260  13.462  14.470
  342SOL    HW1 2865  14.231  13.464  14.378
  342SOL    HW2 2866  14.323  13.389  14.472
  343SOL     OW 2867   0.524   5.407  12.153
  343SOL    HW1 2868   0.547   5.413  12.061
  343SOL    HW2 2869   0.430   5.386  12.153
  344SOL     OW 2870   5.588  11.764   2.716
  344SOL    HW1 2871   5.580  11.671   2.692
  344SOL    HW2 2872   5.666  11.794   2.670
  345SOL     OW 2873   1.967   8.135   2.161
  345SOL    HW1 2874   1.923   8.057   2.127
  345SOL    HW2 2875   1.897   8.189   2.195
  346SOL     OW 2876   6.515   1.837   8.318
  346SOL    HW1 2877   6.599   1.791   8.320
  346SOL    HW2 2878   6.485   1.836   8.408
  347SOL     OW 2879   5.497   5.128  12.487
  347SOL    HW1 2880   5.403   5.125  12.508
  347SOL    HW2 2881   5.502   5.181  12.408
  348SOL     OW 2882   8.150  11.798  14.671
  348SOL    HW1 2883   8.071  11.779  14.621
  348SOL    HW2 2884   8.128  11.773  14.761
  349SOL     OW 2885   5.653   4.034   9.693
  349SOL    HW1 2886   5.619   3.953   9.654
  349SOL    HW2 2887   5.733   4.008   9.738
  350SOL     OW 2888  14.470   3.670   8.046
  350SOL    HW1 2889  14.472   3.632   8.133
  350SOL    HW2 2890  14.400   3.736   8.050
  351SOL     OW 2891   2.683   6.094   4.668
  351SOL    HW1 2892   2.650   6.095   4.579
  351SOL    HW2 2893   2.631   6.160   4.714
  352SOL     OW 2894   6.110   7.443   7.376
  352SOL    HW1 2895   6.069   7.481   7.298
  352SOL    HW2 2896   6.037   7.430   7.437
  353SOL     OW 2897   9.615  11.455   3.919
  353SOL    HW1 2898   9.543  11.405   3.959
  353SOL    HW2 2899   9.693  11.403   3.939
  354SOL     OW 2900   6.779   6.530   7.939
  354SOL    HW1 2901   6.818   6.482   8.012
  354SOL    HW2 2902   6.849   6.537   7.875
  355SOL     OW 2903  14.557   8.902   4.381
  355SOL    HW1 2904  14.500   8.968   4.343
  355SOL    HW2 2905  14.617   8.878   4.311
  356SOL     OW 2906   2.312   4.065   8.051
  356SOL    HW1 2907   2.293   3.988   7.998
  356SOL    HW2 2908   2.251   4.132   8.019
  357SOL     OW 2909   8.751   3.973  13.015
  357SOL    HW1 2910   8.699   4.053  13.009
  357SOL    HW2 2911   8.726   3.934  13.099
  358SOL     OW 2912   1.783   8.403   7.008
  358SOL    HW1 2913   1.753   8.481   7.055
  358SOL    HW2 2914   1.787   8.335   7.076
  359SOL     OW 2915   1.985   3.052   7.828
  359SOL    HW1 2916   1.957   3.028   7.740
  359SOL    HW2 2917   2.062   2.997   7.845
  360SOL     OW 2918   0.001   2.480  13.129
  360SOL    HW1 2919  14.823   2.548  13.092
  360SOL    HW2 2920  14.829   2.400  13.124
  361SOL     OW 2921  13.795  11.539   3.022
  361SOL    HW1 2922  13.748  11.622   3.017
  361SOL    HW2 2923  13.882  11.558   2.987
  362SOL     OW 2924  12.423   3.769   0.696
  362SOL    HW1 2925  12.516   3.781   0.713
  362SOL    HW2 2926  12.392   3.712   0.767
  363SOL     OW 2927   9.029   8.943   6.653
  363SOL    HW1 2928   9.010   9.037   6.656
  363SOL    HW2 2929   9.114   8.935   6.696
  364SOL     OW 2930   2.827   3.902   3.127
  364SOL    HW1 2931   2.765   3.972   3.111
  364SOL    HW2 2932   2.868   3.886   3.042
  365SOL     OW 2933  12.650   6.941   6.253
  365SOL    HW1 2934  12.571   6.887   6.245
  365SOL    HW2 2935  12.663   6.951   6.347
  366SOL     OW 2936  13.673   6.179   2.550
  366SOL    HW1 2937  13.743   6.127   2.588
  366SOL    HW2 2938  13.665   6.147   2.460
  367SOL     OW 2939  11.000   5.342   0.648
  367SOL    HW1 2940  10.946   5.364   0.723
  367SOL    HW2 2941  10.944   5.360   0.572
  368SOL     OW 2942   5.894   7.848   5.052
  368SOL    HW1 2943   5.848   7.792   4.990
  368SOL    HW2 2944   5.985   7.847   5.023
  369SOL     OW 2945  10.240   6.151   4.691
  369SOL    HW1 2946  10.158   6.112   4.660
  369SOL    HW2 2947  10.269   6.205   4.617
  370SOL     OW 2948   6.626   9.237  13.731
  370SOL    HW1 2949   6.585   9.207  13.812
  370SOL    HW2 2950   6.568   9.305  13.698
  371SOL     OW 2951   3.812   1.703   0.863
  371SOL    HW1 2952   3.774   1.747   0.939
  371SOL    HW2 2953   3.906   1.707   0.878
  372SOL     OW 2954   9.807  12.998   0.965
  372SOL    HW1 2955   9.800  12.940   0.889
  372SOL    HW2 2956   9.717  13.005   0.997
  373SOL     OW 2957   4.759   1.704   5.138
  373SOL    HW1 2958   4.735   1.619   5.175
  373SOL    HW2 2959   4.769   1.688   5.045
  374SOL     OW 2960  14.238  10.392   9.479
  374SOL    HW1 2961  14.151  10.354   9.495
  374SOL    HW2 2962  14.299  10.322   9.502
  375SOL     OW 2963  11.408   8.474   1.406
  375SOL    HW1 2964  11.401   8.530   1.483
  375SOL    HW2 2965  11.323   8.430   1.400
  376SOL     OW 2966   7.484   4.971  12.880
  376SOL    HW1 2967   7.421   5.014  12.937
  376SOL    HW2 2968   7.569   5.004  12.908
  377SOL     OW 2969   1.258  13.033  11.540
  377SOL    HW1 2970   1.281  13.039  11.447
  377SOL    HW2 2971   1.219  12.947  11.550
  378SOL     OW 2972  13.844  10.000   4.827
  378SOL    HW1 2973  13.766  10.053   4.839
  378SOL    HW2 2974  13.846   9.979   4.734
  379SOL     OW 2975  14.694  12.158   2.968
  379SOL    HW1 2976  14.616  12.106   2.948
  379SOL    HW2 2977  14.708  12.144   3.062
  380SOL     OW 2978  11.053   2.116  11.674
  380SOL    HW1 2979  11.128   2.175  11.673
  380SOL    HW2 2980  11.084   2.037  11.629
  381SOL     OW 2981  12.183  13.727  10.510
  381SOL    HW1 2982  12.206  13.818  10.527
  381SOL    HW2 2983  12.089  13.729  10.493
  382SOL     OW 2984   8.843   5.806   0.583
  382SOL    HW1 2985   8.834   5.887   0.534
  382SOL    HW2 2986   8.936   5.801   0.605
  383SOL     OW 2987   2.977  11.113   3.242
  383SOL    HW1 2988   3.063  11.141   3.209
  383SOL    HW2 2989   2.997  11.041   3.303
  384SOL     OW 2990   8.640   0.747  13.735
  384SOL    HW1 2991   8.625   0.810  13.806
  384SOL    HW2 2992   8.721   0.777  13.694
  385SOL     OW 2993  14.625   3.281  12.321
  385SOL    HW1 2994  14.552   3.304  12.379
  385SOL    HW2 2995  14.634   3.356  12.262
  386SOL     OW 2996   9.925   2.263   0.527
  386SOL    HW1 2997   9.857   2.230   0.586
  386SOL    HW2 2998   9.979   2.319   0.582
  387SOL     OW 2999  13.409   6.989   6.370
  387SOL    HW1 3000  13.372   6.905   6.399
  387SOL    HW2 3001  13.344   7.023   6.308
  388SOL     OW 3002   3.634   7.483   7.352
  388SOL    HW1 3003   3.555   7.504   7.403
  388SOL    HW2 3004   3.705   7.483   7.416
  389SOL     OW 3005   9.908   8.575   9.785
  389SOL    HW1 3006   9.867   8.550   9.867
  389SOL    HW2 3007   9.870   8.516   9.720
  390SOL     OW 3008   3.546  12.739  10.614
  390SOL    HW1 3009   3.491  12.809  10.579
  390SOL    HW2 3010   3.563  12.765  10.705
  391SOL     OW 3011   7.595  14.663  11.574
  391SOL    HW1 3012   7.550  14.688  11.655
  391SOL    HW2 3013   7.529  14.672  11.505
  392SOL     OW 3014  14.329   5.369   8.283
  392SOL    HW1 3015  14.296   5.285   8.314
  392SOL    HW2 3016  14.352   5.353   8.191
  393SOL     OW 3017   6.457   0.536   1.861
  393SOL    HW1 3018   6.535   0.485   1.840
  393SOL    HW2 3019   6.406   0.536   1.780
  394SOL     OW 3020   6.197   5.356   6.791
  394SOL    HW1 3021   6.289   5.366   6.766
  394SOL    HW2 3022   6.199   5.351   6.887
  395SOL     OW 3023  12.067  12.113   6.105
  395SOL    HW1 3024  12.087  12.092   6.196
  395SOL    HW2 3025  12.068  12.029   6.059
  396SOL     OW 3026  11.321  10.227   6.398
  396SOL    HW1 3027  11.347  10.310   6.358
  396SOL    HW2 3028  11.384  10.213   6.469
  397SOL     OW 3029   4.475  13.686  11.493
  397SOL    HW1 3030   4.498  13.695  11.585
  397SOL    HW2 3031   4.496  13.772  11.455
  398SOL     OW 3032   9.970  13.592   0.302
  398SOL    HW1 3033   9.951  13.669   0.356
  398SOL    HW2 3034   9.973  13.519   0.365
  399SOL     OW 3035   7.151   9.201   3.513
  399SOL    HW1 3036   7.203   9.164   3.442
  399SOL    HW2 3037   7.201   9.180   3.592
  400SOL     OW 3038   3.994   2.051  10.662
  400SOL    HW1 3039   3.913   2.008  10.691
  400SOL    HW2 3040   4.034   2.084  10.743
  401SOL     OW 3041   8.889  13.275   5.431
  401SOL    HW1 3042   8.881  13.364   5.466
  401SOL    HW2 3043   8.983  13.265   5.415
  402SOL     OW 3044   6.525  12.380   8.125
  402SOL    HW1 3045   6.524  12.346   8.036
  402SOL    HW2 3046   6.494  12.308   8.179
  403SOL     OW 3047   7.970   4.125   0.962
  403SOL    HW1 3048   7.923   4.127   1.046
  403SOL    HW2 3049   7.929   4.053   0.914
  404SOL     OW 3050  12.782   8.807   4.472
  404SOL    HW1 3051  12.849   8.751   4.434
  404SOL    HW2 3052  12.776   8.883   4.413
  405SOL     OW 3053   7.744   7.835   6.539
  405SOL    HW1 3054   7.737   7.912   6.483
  405SOL    HW2 3055   7.656   7.824   6.577
  406SOL     OW 3056   0.970   5.639  11.622
  406SOL    HW1 3057   0.926   5.616  11.540
  406SOL    HW2 3058   0.952   5.566  11.681
  407SOL     OW 3059   5.330  10.430   3.228
  407SOL    HW1 3060   5.409  10.445   3.280
  407SOL    HW2 3061   5.283  10.361   3.275
  408SOL     OW 3062   4.670   1.149   5.853
  408SOL    HW1 3063   4.691   1.058   5.878
  408SOL    HW2 3064   4.585   1.143   5.810
  409SOL     OW 3065   6.786   8.271  12.076
  409SOL    HW1 3066   6.777   8.282  11.982
  409SOL    HW2 3067   6.875   8.302  12.095
  410SOL     OW 3068   0.044   1.056   8.220
  410SOL    HW1 3069   0.105   1.120   8.257
  410SOL    HW2 3070   0.018   1.095   8.137
  411SOL     OW 3071  10.443   5.585   2.353
  411SOL    HW1 3072  10.373   5.562   2.415
  411SOL    HW2 3073  10.519   5.604   2.409
  412SOL     OW 3074   3.610  11.707   8.059
  412SOL    HW1 3075   3.575  11.732   7.973
  412SOL    HW2 3076   3.703  11.730   8.055
  413SOL     OW 3077  11.811  11.371   3.297
  413SOL    HW1 3078  11.742  11.389   3.361
  413SOL    HW2 3079  11.772  11.395   3.213
  414SOL     OW 3080   4.779   0.458   8.435
  414SOL    HW1 3081   4.874   0.468   8.433
  414SOL    HW2 3082   4.763   0.371   8.398
  415SOL     OW 3083  11.588  10.952   2.501
  415SOL    HW1 3084  11.532  10.902   2.560
  415SOL    HW2 3085  11.527  11.006   2.451
  416SOL     OW 3086   1.550   1.737   7.546
  416SOL    HW1 3087   1.604   1.766   7.473
  416SOL    HW2 3088   1.556   1.809   7.609
  417SOL     OW 3089   7.399   6.094   3.508
  417SOL    HW1 3090   7.402   6.187   3.532
  417SOL    HW2 3091   7.468   6.054   3.560
  418SOL     OW 3092   7.795   4.807  11.353
  418SOL    HW1 3093   7.814   4.809  11.447
  418SOL    HW2 3094   7.712   4.761  11.345
  419SOL     OW 3095   0.515   3.186  13.937
  419SOL    HW1 3096   0.446   3.252  13.928
  419SOL    HW2 3097   0.548   3.199  14.026
  420SOL     OW 3098  11.257  11.720   8.773
  420SOL    HW1 3099  11.184  11.776   8.746
  420SOL    HW2 3100  11.216  11.638   8.801
  421SOL     OW 3101   1.031   6.742   4.015
  421SOL    HW1 3102   0.969   6.797   3.967
  421SOL    HW2 3103   1.048   6.668   3.957
  422SOL     OW 3104   3.261   0.212  12.171
  422SOL    HW1 3105   3.283   0.156  12.246
  422SOL    HW2 3106   3.324   0.284  12.176
  423SOL     OW 3107   8.660   1.437  12.802
  423SOL    HW1 3108   8.581   1.395  12.837
  423SOL    HW2 3109   8.722   1.365  12.793
  424SOL     OW 3110  13.333  10.801  14.541
  424SOL    HW1 3111  13.403  10.867  14.537
  424SOL    HW2 3112  13.289  10.818  14.624
  425SOL     OW 3113   0.345   1.320   1.053
  425SOL    HW1 3114   0.322   1.228   1.041
  425SOL    HW2 3115   0.369   1.327   1.145
  426SOL     OW 3116  10.031   1.402  10.038
  426SOL    HW1 3117  10.005   1.363  10.121
  426SOL    HW2 3118  10.025   1.330   9.975
  427SOL     OW 3119   2.285  10.201   2.652
  427SOL    HW1 3120   2.295  10.136   2.721
  427SOL    HW2 3121   2.326  10.161   2.575
  428SOL     OW 3122  12.579   3.173   0.161
  428SOL    HW1 3123  12.543   3.171   0.073
  428SOL    HW2 3124  12.503   3.180   0.218
  429SOL     OW 3125   5.205   8.490   9.606
  429SOL    HW1 3126   5.207   8.471   9.512
  429SOL    HW2 3127   5.126   8.447   9.637
  430SOL     OW 3128   7.837   9.777  12.217
  430SOL    HW1 3129   7.765   9.715  12.226
  430SOL    HW2 3130   7.916   9.725  12.234
  431SOL     OW 3131   2.281   3.646   2.220
  431SOL    HW1 3132   2.351   3.582   2.233
  431SOL    HW2 3133   2.217   3.600   2.165
  432SOL     OW 3134   5.332   2.347   5.322
  432SOL    HW1 3135   5.369   2.420   5.371
  432SOL    HW2 3136   5.307   2.283   5.388
  433SOL     OW 3137  14.054   9.280   3.046
  433SOL    HW1 3138  14.071   9.267   3.140
  433SOL    HW2 3139  14.140   9.300   3.009
  434SOL     OW 3140   7.783   3.477   7.649
  434SOL    HW1 3141   7.808   3.496   7.559
  434SOL    HW2 3142   7.866   3.477   7.697
  435SOL     OW 3143  12.667   5.064   7.783
  435SOL    HW1 3144  12.728   5.034   7.716
  435SOL    HW2 3145  12.585   5.017   7.765
  436SOL     OW 3146  11.184   0.669   4.345
  436SOL    HW1 3147  11.134   0.677   4.264
  436SOL    HW2 3148  11.224   0.582   4.340
  437SOL     OW 3149  13.433   9.749   6.083
  437SOL    HW1 3150  13.466   9.792   6.004
  437SOL    HW2 3151  13.483   9.668   6.089
  438SOL     OW 3152   7.159  12.411  12.725
  438SOL    HW1 3153   7.105  12.487  12.704
  438SOL    HW2 3154   7.101  12.336  12.714
  439SOL     OW 3155  10.538   9.738   8.621
  439SOL    HW1 3156  10.453   9.767   8.655
  439SOL    HW2 3157  10.601   9.781   8.678
  440SOL     OW 3158  12.044   4.718  13.217
  440SOL    HW1 3159  12.076   4.790  13.272
  440SOL    HW2 3160  11.979   4.760  13.160
  441SOL     OW 3161   4.358   5.809  12.956
  441SOL    HW1 3162   4.344   5.801  12.862
  441SOL    HW2 3163   4.435   5.755  12.974
  442SOL     OW 3164   0.565   8.709   4.468
  442SOL    HW1 3165   0.598   8.770   4.402
  442SOL    HW2 3166   0.471   8.703   4.450
  443SOL     OW 3167   8.437   8.419   7.508
  443SOL    HW1 3168   8.344   8.404   7.524
  443SOL    HW2 3169   8.441   8.502   7.461
  444SOL     OW 3170  11.891   0.128  14.782
  444SOL    HW1 3171  11.902   0.042  14.743
  444SOL    HW2 3172  11.939   0.124  14.864
  445SOL     OW 3173   5.745   9.705   3.128
  445SOL    HW1 3174   5.740   9.649   3.206
  445SOL    HW2 3175   5.832   9.687   3.092
  446SOL     OW 3176  10.864   6.977   9.712
  446SOL    HW1 3177  10.924   6.943   9.778
  446SOL    HW2 3178  10.909   6.962   9.629
  447SOL     OW 3179  14.481   6.674  11.047
  447SOL    HW1 3180  14.485   6.763  11.081
  447SOL    HW2 3181  14.490   6.684  10.952
  448SOL     OW 3182   3.407   4.331  11.665
  448SOL    HW1 3183   3.317   4.341  11.635
  448SOL    HW2 3184   3.407   4.366  11.754
  449SOL     OW 3185  10.744   3.184  13.461
  449SOL    HW1 3186  10.736   3.119  13.391
  449SOL    HW2 3187  10.666   3.172  13.514
  450SOL     OW 3188   9.109   5.353   4.237
  450SOL    HW1 3189   9.164   5.431   4.224
  450SOL    HW2 3190   9.020   5.385   4.224
  451SOL     OW 3191   5.260   7.149   6.311
  451SOL    HW1 3192   5.315   7.194   6.375
  451SOL    HW2 3193   5.311   7.152   6.230
  452SOL     OW 3194   3.694   0.829  11.481
  452SOL    HW1 3195   3.710   0.889  11.408
  452SOL    HW2 3196   3.619   0.867  11.527
  453SOL     OW 3197   2.823   2.408  14.818
  453SOL    HW1 3198   2.905   2.363  14.841
  453SOL    HW2 3199   2.776   2.346  14.762
  454SOL     OW 3200  12.825   1.462   9.527
  454SOL    HW1 3201  12.801   1.427   9.613
  454SOL    HW2 3202  12.831   1.557   9.541
  455SOL     OW 3203   9.919  11.816   5.054
  455SOL    HW1 3204   9.833  11.821   5.012
  455SOL    HW2 3205   9.919  11.732   5.100
  456SOL     OW 3206  14.446   5.117   2.449
  456SOL    HW1 3207  14.441   5.025   2.476
  456SOL    HW2 3208  14.521   5.152   2.497
  457SOL     OW 3209   5.312   6.750   4.847
  457SOL    HW1 3210   5.370   6.674   4.847
  457SOL    HW2 3211   5.286   6.760   4.756
  458SOL     OW 3212   5.693   9.681   3.895
  458SOL    HW1 3213   5.733   9.767   3.901
  458SOL    HW2 3214   5.664   9.661   3.984
  459SOL     OW 3215   4.066   7.123   6.883
  459SOL    HW1 3216   4.134   7.059   6.904
  459SOL    HW2 3217   3.998   7.072   6.839
  460SOL     OW 3218  11.698   7.281   9.854
  460SOL    HW1 3219  11.671   7.369   9.829
  460SOL    HW2 3220  11.675   7.275   9.947
  461SOL     OW 3221  10.742  11.190   2.101
  461SOL    HW1 3222  10.686  11.222   2.030
  461SOL    HW2 3223  10.751  11.264   2.160
  462SOL     OW 3224   5.475   9.815   1.304
  462SOL    HW1 3225   5.528   9.890   1.275
  462SOL    HW2 3226   5.462   9.763   1.225
  463SOL     OW 3227   6.399   5.941   1.521
  463SOL    HW1 3228   6.365   5.886   1.450
  463SOL    HW2 3229   6.341   6.017   1.522
  464SOL     OW 3230  14.806  12.075   1.317
  464SOL    HW1 3231   0.010  12.105   1.353
  464SOL    HW2 3232  14.740  12.130   1.359
  465SOL     OW 3233  14.400   8.813   1.705
  465SOL    HW1 3234  14.422   8.905   1.686
  465SOL    HW2 3235  14.418   8.803   1.798
  466SOL     OW 3236   9.181  13.237   5.433
  466SOL    HW1 3237   9.247  13.277   5.376
  466SOL    HW2 3238   9.190  13.143   5.418
  467SOL     OW 3239   7.896   7.948   9.468
  467SOL    HW1 3240   7.803   7.936   9.483
  467SOL    HW2 3241   7.932   7.968   9.554
  468SOL     OW 3242   3.305   9.525   8.358
  468SOL    HW1 3243   3.311   9.616   8.389
  468SOL    HW2 3244   3.211   9.506   8.358
  469SOL     OW 3245   1.333  11.919  10.268
  469SOL    HW1 3246   1.419  11.916  10.226
  469SOL    HW2 3247   1.273  11.883  10.203
  470SOL     OW 3248   6.108  11.167   0.300
  470SOL    HW1 3249   6.196  11.195   0.274
  470SOL    HW2 3250   6.077  11.113   0.228
  471SOL     OW 3251   6.075  13.272   7.398
  471SOL    HW1 3252   6.041  13.358   7.423
  471SOL    HW2 3253   6.048  13.262   7.306
  472SOL     OW 3254   1.683  12.383   8.632
  472SOL    HW1 3255   1.648  12.304   8.673
  472SOL    HW2 3256   1.625  12.453   8.661
  473SOL     OW 3257   8.374  14.730   8.075
  473SOL    HW1 3258   8.282  14.746   8.053
  473SOL    HW2 3259   8.372  14.701   8.166
  474SOL     OW 3260  12.408   8.343   1.284
  474SOL    HW1 3261  12.399   8.249   1.270
  474SOL    HW2 3262  12.483   8.368   1.230
  475SOL     OW 3263   3.743   9.677   3.633
  475SOL    HW1 3264   3.649   9.696   3.631
  475SOL    HW2 3265   3.759   9.627   3.553
  476SOL     OW 3266   2.861   2.073  11.289
  476SOL    HW1 3267   2.862   2.085  11.194
  476SOL    HW2 3268   2.810   1.993  11.303
  477SOL     OW 3269   1.366  12.155   9.447
  477SOL    HW1 3270   1.434  12.089   9.458
  477SOL    HW2 3271   1.383  12.193   9.361
  478SOL     OW 3272   3.939   8.104   5.807
  478SOL    HW1 3273   4.033   8.088   5.803
  478SOL    HW2 3274   3.903   8.028   5.853
  479SOL     OW 3275   9.503  10.806  12.160
  479SOL    HW1 3276   9.566  10.749  12.206
  479SOL    HW2 3277   9.554  10.884  12.138
  480SOL     OW 3278   5.132   2.257   9.787
  480SOL    HW1 3279   5.098   2.167   9.784
  480SOL    HW2 3280   5.157   2.270   9.878
  481SOL     OW 3281   6.475   4.348   9.526
  481SOL    HW1 3282   6.421   4.399   9.587
  481SOL    HW2 3283   6.424   4.270   9.509
  482SOL     OW 3284   1.488   8.993   7.500
  482SOL    HW1 3285   1.526   9.042   7.573
  482SOL    HW2 3286   1.395   9.014   7.503
  483SOL     OW 3287  11.665   7.254   1.419
  483SOL    HW1 3288  11.596   7.307   1.380
  483SOL    HW2 3289  11.741   7.313   1.423
  484SOL     OW 3290   4.042   5.192  12.767
  484SOL    HW1 3291   4.025   5.251  12.694
  484SOL    HW2 3292   3.974   5.211  12.831
  485SOL     OW 3293   3.092   5.212   5.204
  485SOL    HW1 3294   3.161   5.278   5.197
  485SOL    HW2 3295   3.071   5.189   5.114
  486SOL     OW 3296   8.472   3.049   6.521
  486SOL    HW1 3297   8.497   3.137   6.492
  486SOL    HW2 3298   8.466   2.998   6.441
  487SOL     OW 3299  13.820   2.364   5.712
  487SOL    HW1 3300  13.815   2.282   5.761
  487SOL    HW2 3301  13.905   2.362   5.669
  488SOL     OW 3302   5.167  12.351   4.365
  488SOL    HW1 3303   5.095  12.288   4.366
  488SOL    HW2 3304   5.135  12.425   4.417
  489SOL     OW 3305   5.369   4.068  12.873
  489SOL    HW1 3306   5.362   4.100  12.963
  489SOL    HW2 3307   5.278   4.049  12.847
  490SOL     OW 3308  12.944   1.143   3.698
  490SOL    HW1 3309  12.917   1.222   3.651
  490SOL    HW2 3310  12.888   1.074   3.663
  491SOL     OW 3311   1.255   4.162   4.302
  491SOL    HW1 3312   1.319   4.158   4.373
  491SOL    HW2 3313   1.241   4.071   4.277
  492SOL     OW 3314  13.045  13.582   2.278
  492SOL    HW1 3315  13.105  13.552   2.210
  492SOL    HW2 3316  12.981  13.512   2.286
  493SOL     OW 3317  11.332  12.851   8.265
  493SOL    HW1 3318  11.377  12.871   8.347
  493SOL    HW2 3319  11.379  12.776   8.229
  494SOL     OW 3320  10.247  13.887  11.395
  494SOL    HW1 3321  10.284  13.913  11.310
  494SOL    HW2 3322  10.186  13.816  11.374
  495SOL     OW 3323   5.341  11.101   9.403
  495SOL    HW1 3324   5.297  11.047   9.338
  495SOL    HW2 3325   5.271  11.151   9.445
  496SOL     OW 3326   4.463  10.196  12.279
  496SOL    HW1 3327   4.487  10.118  12.330
  496SOL    HW2 3328   4.420  10.254  12.341
  497SOL     OW 3329   4.110   2.430   6.951
  497SOL    HW1 3330   4.127   2.358   7.013
  497SOL    HW2 3331   4.121   2.390   6.865
  498SOL     OW 3332   1.665  14.675   9.650
  498SOL    HW1 3333   1.653  14.652   9.742
  498SOL    HW2 3334   1.611  14.754   9.638
  499SOL     OW 3335  11.690  12.565   6.802
  499SOL    HW1 3336  11.596  12.549   6.794
  499SOL    HW2 3337  11.700  12.659   6.786
  500SOL     OW 3338   2.653   5.593   9.398
  500SOL    HW1 3339   2.710   5.652   9.447
  500SOL    HW2 3340   2.571   5.641   9.389
  501SOL     OW 3341   5.085   8.381   6.700
  501SOL    HW1 3342   5.159   8.359   6.755
  501SOL    HW2 3343   5.069   8.302   6.648
  502SOL     OW 3344   9.540  14.677   7.434
  502SOL    HW1 3345   9.515  14.654   7.523
  502SOL    HW2 3346   9.510  14.603   7.381
  503SOL     OW 3347   9.254   0.815   6.065
  503SOL    HW1 3348   9.332   0.773   6.100
  503SOL    HW2 3349   9.218   0.752   6.003
  504SOL     OW 3350  10.018   2.491   8.517
  504SOL    HW1 3351  10.105   2.532   8.518
  504SOL    HW2 3352   9.957   2.564   8.517
  505SOL     OW 3353   6.309   3.538   7.515
  505SOL    HW1 3354   6.232   3.536   7.459
  505SOL    HW2 3355   6.279   3.500   7.598
  506SOL     OW 3356  13.659  14.545   7.987
  506SOL    HW1 3357  13.686  14.633   7.964
  506SOL    HW2 3358  13.735  14.490   7.969
  507SOL     OW 3359   7.702  14.878   3.679
  507SOL    HW1 3360   7.702   0.043   3.594
  507SOL    HW2 3361   7.632   0.042   3.728
  508SOL     OW 3362   5.423   6.988   5.262
  508SOL    HW1 3363   5.332   7.010   5.283
  508SOL    HW2 3364   5.422   6.972   5.168
  509SOL     OW 3365   1.675   5.706  10.200
  509SOL    HW1 3366   1.753   5.695  10.255
  509SOL    HW2 3367   1.606   5.728  10.262
  510SOL     OW 3368   7.217   7.638   4.452
  510SOL    HW1 3369   7.265   7.708   4.498
  510SOL    HW2 3370   7.151   7.609   4.514
  511SOL     OW 3371   7.237   1.320  10.470
  511SOL    HW1 3372   7.286   1.337  10.550
  511SOL    HW2 3373   7.202   1.405  10.444
  512SOL     OW 3374  11.181   8.383  10.455
  512SOL    HW1 3375  11.099   8.335  10.446
  512SOL    HW2 3376  11.155   8.475  10.453
  513SOL     OW 3377   5.688   1.905   2.688
  513SOL    HW1 3378   5.681   1.813   2.711
  513SOL    HW2 3379   5.754   1.940   2.749
  514SOL     OW 3380  10.701   5.450   8.335
  514SOL    HW1 3381  10.673   5.510   8.403
  514SOL    HW2 3382  10.764   5.392   8.378
  515SOL     OW 3383   5.158   0.352   9.013
  515SOL    HW1 3384   5.102   0.340   8.936
  515SOL    HW2 3385   5.118   0.425   9.060
  516SOL     OW 3386   7.313   8.468  11.671
  516SOL    HW1 3387   7.307   8.373  11.660
  516SOL    HW2 3388   7.379   8.480  11.740
  517SOL     OW 3389   2.994   2.902   1.929
  517SOL    HW1 3390   2.903   2.932   1.919
  517SOL    HW2 3391   3.029   2.903   1.840
  518SOL     OW 3392   3.499   8.484  10.453
  518SOL    HW1 3393   3.499   8.536  10.533
  518SOL    HW2 3394   3.557   8.410  10.471
  519SOL     OW 3395   9.394  12.242   8.355
  519SOL    HW1 3396   9.395  12.179   8.427
  519SOL    HW2 3397   9.368  12.324   8.396
  520SOL     OW 3398   3.392   3.498   4.794
  520SOL    HW1 3399   3.462   3.478   4.731
  520SOL    HW2 3400   3.365   3.587   4.773
  521SOL     OW 3401  14.855  13.416  11.459
  521SOL    HW1 3402  14.857  13.441  11.367
  521SOL    HW2 3403   0.065  13.429  11.490
  522SOL     OW 3404   7.599  12.891   9.500
  522SOL    HW1 3405   7.675  12.833   9.500
  522SOL    HW2 3406   7.580  12.906   9.408
  523SOL     OW 3407  10.527   3.858   6.402
  523SOL    HW1 3408  10.522   3.772   6.443
  523SOL    HW2 3409  10.459   3.857   6.335
  524SOL     OW 3410  11.271   3.384  10.921
  524SOL    HW1 3411  11.345   3.340  10.961
  524SOL    HW2 3412  11.273   3.356  10.829
  525SOL     OW 3413  12.244  13.066  11.704
  525SOL    HW1 3414  12.230  12.974  11.727
  525SOL    HW2 3415  12.156  13.101  11.693
  526SOL     OW 3416   5.676   3.329  10.707
  526SOL    HW1 3417   5.582   3.326  10.723
  526SOL    HW2 3418   5.685   3.372  10.622
  527SOL     OW 3419   2.040   8.157  11.760
  527SOL    HW1 3420   2.040   8.235  11.815
  527SOL    HW2 3421   2.099   8.096  11.805
  528SOL     OW 3422  14.860  11.127   2.484
  528SOL    HW1 3423  14.867  11.125   2.580
  528SOL    HW2 3424  14.819  11.044   2.462
  529SOL     OW 3425   2.054   5.203   3.204
  529SOL    HW1 3426   1.994   5.276   3.221
  529SOL    HW2 3427   2.141   5.241   3.216
  530SOL     OW 3428  11.495   4.173   9.662
  530SOL    HW1 3429  11.464   4.107   9.599
  530SOL    HW2 3430  11.588   4.155   9.671
  531SOL     OW 3431   8.728   2.131   6.915
  531SOL    HW1 3432   8.721   2.036   6.907
  531SOL    HW2 3433   8.821   2.146   6.934
  532SOL     OW 3434  13.457  12.047  11.065
  532SOL    HW1 3435  13.479  12.059  10.973
  532SOL    HW2 3436  13.537  12.010  11.104
  533SOL     OW 3437   3.257  13.943   8.705
  533SOL    HW1 3438   3.170  13.980   8.720
  533SOL    HW2 3439   3.286  13.981   8.622
  534SOL     OW 3440  14.524  11.007   1.233
  534SOL    HW1 3441  14.548  11.053   1.153
  534SOL    HW2 3442  14.432  10.985   1.220
  535SOL     OW 3443   1.435   8.033   7.200
  535SOL    HW1 3444   1.462   7.982   7.124
  535SOL    HW2 3445   1.346   8.062   7.178
  536SOL     OW 3446   2.024   6.833   2.116
  536SOL    HW1 3447   1.969   6.856   2.041
  536SOL    HW2 3448   1.980   6.757   2.155
  537SOL     OW 3449   3.155   4.666   5.697
  537SOL    HW1 3450   3.138   4.729   5.767
  537SOL    HW2 3451   3.080   4.675   5.637
  538SOL     OW 3452  10.098   1.935   3.978
  538SOL    HW1 3453  10.064   1.951   4.066
  538SOL    HW2 3454  10.071   2.011   3.927
  539SOL     OW 3455   5.737   0.922   9.144
  539SOL    HW1 3456   5.766   0.843   9.097
  539SOL    HW2 3457   5.654   0.896   9.185
  540SOL     OW 3458   8.545   1.851   0.623
  540SOL    HW1 3459   8.566   1.942   0.646
  540SOL    HW2 3460   8.450   1.851   0.613
  541SOL     OW 3461   0.761   5.545   4.575
  541SOL    HW1 3462   0.838   5.594   4.547
  541SOL    HW2 3463   0.795   5.480   4.637
  542SOL     OW 3464   8.910  11.130   7.536
  542SOL    HW1 3465   8.951  11.105   7.454
  542SOL    HW2 3466   8.862  11.210   7.516
  543SOL     OW 3467   3.409   6.400   3.426
  543SOL    HW1 3468   3.329   6.435   3.388
  543SOL    HW2 3469   3.409   6.432   3.516
  544SOL     OW 3470   1.760   8.590   1.064
  544SOL    HW1 3471   1.845   8.569   1.025
  544SOL    HW2 3472   1.782   8.642   1.141
  545SOL     OW 3473   8.131   8.885  11.896
  545SOL    HW1 3474   8.151   8.865  11.805
  545SOL    HW2 3475   8.185   8.962  11.916
  546SOL     OW 3476  11.881  13.883   1.093
  546SOL    HW1 3477  11.962  13.929   1.112
  546SOL    HW2 3478  11.867  13.826   1.169
  547SOL     OW 3479  13.808   1.527   1.235
  547SOL    HW1 3480  13.897   1.562   1.225
  547SOL    HW2 3481  13.806   1.449   1.179
  548SOL     OW 3482   6.052   1.724   9.248
  548SOL    HW1 3483   5.973   1.776   9.234
  548SOL    HW2 3484   6.093   1.763   9.325
  549SOL     OW 3485   3.604   4.432   7.549
  549SOL    HW1 3486   3.685   4.434   7.498
  549SOL    HW2 3487   3.538   4.399   7.489
  550SOL     OW 3488   4.873   6.785   5.391
  550SOL    HW1 3489   4.794   6.837   5.376
  550SOL    HW2 3490   4.862   6.708   5.336
  551SOL     OW 3491   8.017  10.934   9.058
  551SOL    HW1 3492   8.041  10.957   8.968
  551SOL    HW2 3493   8.044  10.843   9.067
  552SOL     OW 3494   0.728   0.619   3.238
  552SOL    HW1 3495   0.684   0.654   3.316
  552SOL    HW2 3496   0.677   0.653   3.165
  553SOL     OW 3497   6.046  11.893  12.955
  553SOL    HW1 3498   6.002  11.900  13.039
  553SOL    HW2 3499   6.136  11.867  12.977
  554SOL     OW 3500  12.833  10.156   5.333
  554SOL    HW1 3501  12.887  10.164   5.255
  554SOL    HW2 3502  12.746  10.185   5.305
  555SOL     OW 3503   4.398   7.587   1.368
  555SOL    HW1 3504   4.408   7.527   1.294
  555SOL    HW2 3505   4.312   7.626   1.355
  556SOL     OW 3506   3.795  11.337   3.949
  556SOL    HW1 3507   3.827  11.301   3.866
  556SOL    HW2 3508   3.717  11.284   3.969
  557SOL     OW 3509   3.030   3.705  13.784
  557SOL    HW1 3510   2.981   3.653  13.847
  557SOL    HW2 3511   3.068   3.776  13.835
  558SOL     OW 3512   6.521   4.313   3.703
  558SOL    HW1 3513   6.530   4.218   3.709
  558SOL    HW2 3514   6.549   4.345   3.788
  559SOL     OW 3515   9.188   6.265  10.497
  559SOL    HW1 3516   9.097   6.239  10.481
  559SOL    HW2 3517   9.234   6.242  10.416
  560SOL     OW 3518  10.867   4.109   2.863
  560SOL    HW1 3519  10.925   4.052   2.813
  560SOL    HW2 3520  10.900   4.104   2.952
  561SOL     OW 3521   2.954   9.994   8.828
  561SOL    HW1 3522   2.877   9.956   8.871
  561SOL    HW2 3523   2.917  10.044   8.755
  562SOL     OW 3524   7.075   1.375  11.059
  562SOL    HW1 3525   7.062   1.301  11.117
  562SOL    HW2 3526   7.129   1.436  11.109
  563SOL     OW 3527   7.442  14.620   9.319
  563SOL    HW1 3528   7.388  14.581   9.388
  563SOL    HW2 3529   7.482  14.697   9.359
  564SOL     OW 3530   4.442  12.271   7.124
  564SOL    HW1 3531   4.439  12.287   7.030
  564SOL    HW2 3532   4.354  12.241   7.146
  565SOL     OW 3533   8.646   8.310   1.293
  565SOL    HW1 3534   8.566   8.276   1.331
  565SOL    HW2 3535   8.678   8.239   1.236
  566SOL     OW 3536   9.479  12.554   1.593
  566SOL    HW1 3537   9.538  12.480   1.608
  566SOL    HW2 3538   9.396  12.514   1.569
  567SOL     OW 3539   7.532  13.149   0.672
  567SOL    HW1 3540   7.460  13.169   0.732
  567SOL    HW2 3541   7.571  13.234   0.653
  568SOL     OW 3542   3.316   0.395   0.787
  568SOL    HW1 3543   3.368   0.394   0.867
  568SOL    HW2 3544   3.236   0.348   0.809
  569SOL     OW 3545   7.792   9.376   8.002
  569SOL    HW1 3546   7.744   9.440   7.951
  569SOL    HW2 3547   7.876   9.367   7.957
  570SOL     OW 3548   7.005   5.069  10.411
  570SOL    HW1 3549   7.028   4.983  10.448
  570SOL    HW2 3550   6.935   5.101  10.467
  571SOL     OW 3551  12.999  13.768   4.441
  571SOL    HW1 3552  13.025  13.719   4.363
  571SOL    HW2 3553  12.981  13.701   4.507
  572SOL     OW 3554   9.484   9.197   4.494
  572SOL    HW1 3555   9.450   9.109   4.483
  572SOL    HW2 3556   9.478   9.237   4.408
  573SOL     OW 3557   3.163   0.201   0.862
  573SOL    HW1 3558   3.075   0.199   0.826
  573SOL    HW2 3559   3.154   0.162   0.949
  574SOL     OW 3560  10.247   4.684  10.673
  574SOL    HW1 3561  10.331   4.674  10.629
  574SOL    HW2 3562  10.189   4.722  10.607
  575SOL     OW 3563   0.430   7.601  13.828
  575SOL    HW1 3564   0.394   7.549  13.756
  575SOL    HW2 3565   0.417   7.546  13.906
  576SOL     OW 3566  14.727  12.455  11.026
  576SOL    HW1 3567  14.722  12.419  11.114
  576SOL    HW2 3568  14.805  12.511  11.028
  577SOL     OW 3569   8.289   4.280  13.790
  577SOL    HW1 3570   8.298   4.341  13.863
  577SOL    HW2 3571   8.336   4.322  13.718
  578SOL     OW 3572  11.393  14.024   9.237
  578SOL    HW1 3573  11.483  14.055   9.249
  578SOL    HW2 3574  11.348  14.096   9.192
  579SOL     OW 3575   2.160   3.042   8.372
  579SOL    HW1 3576   2.195   2.953   8.381
  579SOL    HW2 3577   2.106   3.054   8.450
  580SOL     OW 3578   9.063  14.178   4.598
  580SOL    HW1 3579   9.102  14.264   4.581
  580SOL    HW2 3580   9.138  14.123   4.623
  581SOL     OW 3581   6.174  14.583   2.776
  581SOL    HW1 3582   6.169  14.499   2.821
  581SOL    HW2 3583   6.082  14.609   2.763
  582SOL     OW 3584   7.022   1.260   6.783
  582SOL    HW1 3585   6.970   1.340   6.774
  582SOL    HW2 3586   6.970   1.193   6.740
  583SOL     OW 3587  11.394  13.713   1.148
  583SOL    HW1 3588  11.378  13.628   1.107
  583SOL    HW2 3589  11.311  13.760   1.138
  584SOL     OW 3590   0.350  13.275   8.497
  584SOL    HW1 3591   0.375  13.183   8.489
  584SOL    HW2 3592   0.275  13.284   8.438
  585SOL     OW 3593   2.757  10.966  11.054
  585SOL    HW1 3594   2.737  11.060  11.054
  585SOL    HW2 3595   2.829  10.956  11.117
  586SOL     OW 3596   2.749  11.983  11.535
  586SOL    HW1 3597   2.666  11.988  11.582
  586SOL    HW2 3598   2.726  12.003  11.444
  587SOL     OW 3599   4.125  13.269  10.961
  587SOL    HW1 3600   4.066  13.314  11.022
  587SOL    HW2 3601   4.117  13.176  10.984
  588SOL     OW 3602  10.030   8.321   4.889
  588SOL    HW1 3603  10.046   8.227   4.899
  588SOL    HW2 3604   9.961   8.327   4.824
  589SOL     OW 3605  14.500   2.717  10.532
  589SOL    HW1 3606  14.409   2.732  10.558
  589SOL    HW2 3607  14.496   2.638  10.477
  590SOL     OW 3608   1.884   4.788   9.494
  590SOL    HW1 3609   1.896   4.870   9.543
  590SOL    HW2 3610   1.919   4.720   9.553
  591SOL     OW 3611   8.922   6.132  13.267
  591SOL    HW1 3612   8.853   6.178  13.315
  591SOL    HW2 3613   8.983   6.104  13.334
  592SOL     OW 3614   5.186   4.419  11.355
  592SOL    HW1 3615   5.272   4.455  11.374
  592SOL    HW2 3616   5.167   4.361  11.428
  593SOL     OW 3617   0.831  10.055   7.246
  593SOL    HW1 3618   0.870  10.062   7.333
  593SOL    HW2 3619   0.895  10.093   7.187
  594SOL     OW 3620   8.968   0.333   7.145
  594SOL    HW1 3621   8.959   0.372   7.232
  594SOL    HW2 3622   8.925   0.394   7.086
  595SOL     OW 3623   3.377   3.706   8.217
  595SOL    HW1 3624   3.306   3.770   8.211
  595SOL    HW2 3625   3.446   3.742   8.161
  596SOL     OW 3626   1.831   2.648   4.515
  596SOL    HW1 3627   1.786   2.641   4.600
  596SOL    HW2 3628   1.821   2.740   4.491
  597SOL     OW 3629   0.174  10.811   0.495
  597SOL    HW1 3630   0.188  10.869   0.570
  597SOL    HW2 3631   0.261  10.799   0.458
  598SOL     OW 3632   4.748   4.801   9.274
  598SOL    HW1 3633   4.666   4.844   9.249
  598SOL    HW2 3634   4.731   4.765   9.361
  599SOL     OW 3635   6.535   9.245   8.013
  599SOL    HW1 3636   6.554   9.182   7.944
  599SOL    HW2 3637   6.524   9.192   8.092
  600SOL     OW 3638   9.037   9.013   0.784
  600SOL    HW1 3639   9.011   9.085   0.727
  600SOL    HW2 3640   8.970   9.011   0.852
  601SOL     OW 3641   0.046   7.613   8.189
  601SOL    HW1 3642   0.107   7.682   8.216
  601SOL    HW2 3643   0.096   7.558   8.130
  602SOL     OW 3644   6.001  10.791   5.457
  602SOL    HW1 3645   5.958  10.845   5.523
  602SOL    HW2 3646   6.040  10.854   5.397
  603SOL     OW 3647   8.717   5.657  10.869
  603SOL    HW1 3648   8.798   5.622  10.906
  603SOL    HW2 3649   8.671   5.581  10.835
  604SOL     OW 3650  12.737  13.329  11.031
  604SOL    HW1 3651  12.677  13.388  10.987
  604SOL    HW2 3652  12.808  13.315  10.968
  605SOL     OW 3653   2.349   2.687  14.104
  605SOL    HW1 3654   2.344   2.774  14.142
  605SOL    HW2 3655   2.359   2.702  14.010
  606SOL     OW 3656   2.052   7.978   0.651
  606SOL    HW1 3657   2.108   8.043   0.693
  606SOL    HW2 3658   2.097   7.958   0.568
  607SOL     OW 3659  13.184  12.917   0.267
  607SOL    HW1 3660  13.239  12.899   0.191
  607SOL    HW2 3661  13.151  12.832   0.294
  608SOL     OW 3662  13.846  11.136  13.591
  608SOL    HW1 3663  13.816  11.082  13.518
  608SOL    HW2 3664  13.935  11.107  13.607
  609SOL     OW 3665  10.808   3.432  13.525
  609SOL    HW1 3666  10.773   3.450  13.612
  609SOL    HW2 3667  10.775   3.345  13.503
  610SOL     OW 3668   3.176  11.574  10.055
  610SOL    HW1 3669   3.138  11.603  10.137
  610SOL    HW2 3670   3.113  11.510  10.021
  611SOL     OW 3671   1.222  11.828  11.755
  611SOL    HW1 3672   1.220  11.735  11.731
  611SOL    HW2 3673   1.260  11.828  11.844
  612SOL     OW 3674   8.231   6.630   6.607
  612SOL    HW1 3675   8.262   6.644   6.518
  612SOL    HW2 3676   8.135   6.633   6.600
  613SOL     OW 3677   2.499  11.497   0.773
  613SOL    HW1 3678   2.588  11.508   0.739
  613SOL    HW2 3679   2.494  11.560   0.845
  614SOL     OW 3680   6.275   9.674   5.506
  614SOL    HW1 3681   6.272   9.592   5.557
  614SOL    HW2 3682   6.187   9.711   5.515
  615SOL     OW 3683   7.762   6.997   9.872
  615SOL    HW1 3684   7.702   7.038   9.810
  615SOL    HW2 3685   7.804   7.070   9.917
  616SOL     OW 3686   6.482   0.935  11.298
  616SOL    HW1 3687   6.437   0.952  11.215
  616SOL    HW2 3688   6.427   0.975  11.364
  617SOL     OW 3689   8.082  12.089   4.764
  617SOL    HW1 3690   8.093  12.076   4.859
  617SOL    HW2 3691   8.068  12.001   4.730
  618SOL     OW 3692  12.273  12.174  11.047
  618SOL    HW1 3693  12.363  12.205  11.041
  618SOL    HW2 3694  12.256  12.166  11.141
  619SOL     OW 3695   4.457   8.099   6.972
  619SOL    HW1 3696   4.424   8.058   7.052
  619SOL    HW2 3697   4.452   8.030   6.906
  620SOL     OW 3698   2.512   6.009   5.470
  620SOL    HW1 3699   2.466   5.933   5.506
  620SOL    HW2 3700   2.565   6.041   5.543
  621SOL     OW 3701  14.831   1.951  13.561
  621SOL    HW1 3702  14.788   2.032  13.532
  621SOL    HW2 3703   0.013   1.980  13.628
  622SOL     OW 3704   4.589   5.025   1.739
  622SOL    HW1 3705   4.639   5.102   1.714
  622SOL    HW2 3706   4.654   4.964   1.774
  623SOL     OW 3707   8.299  14.562   0.480
  623SOL    HW1 3708   8.290  14.564   0.575
  623SOL    HW2 3709   8.212  14.537   0.448
  624SOL     OW 3710   4.677  13.096   7.163
  624SOL    HW1 3711   4.613  13.166   7.158
  624SOL    HW2 3712   4.675  13.068   7.255
  625SOL     OW 3713   1.714   9.704   0.427
  625SOL    HW1 3714   1.740   9.740   0.512
  625SOL    HW2 3715   1.740   9.612   0.431
  626SOL     OW 3716  11.482  10.986   1.366
  626SOL    HW1 3717  11.420  11.058   1.378
  626SOL    HW2 3718  11.543  10.995   1.439
  627SOL     OW 3719   0.104  14.012   6.843
  627SOL    HW1 3720   0.136  14.056   6.764
  627SOL    HW2 3721   0.037  13.951   6.811
  628SOL     OW 3722   6.230   6.637   0.153
  628SOL    HW1 3723   6.264   6.720   0.187
  628SOL    HW2 3724   6.270   6.628   0.066
  629SOL     OW 3725  10.853   9.252  13.120
  629SOL    HW1 3726  10.815   9.290  13.199
  629SOL    HW2 3727  10.910   9.320  13.085
  630SOL     OW 3728   9.369   8.037   7.776
  630SOL    HW1 3729   9.393   8.098   7.846
  630SOL    HW2 3730   9.400   7.952   7.806
  631SOL     OW 3731  14.202   0.461  13.022
  631SOL    HW1 3732  14.213   0.368  13.044
  631SOL    HW2 3733  14.148   0.460  12.943
  632SOL     OW 3734  10.220   8.702   2.949
  632SOL    HW1 3735  10.152   8.648   2.907
  632SOL    HW2 3736  10.208   8.687   3.043
  633SOL     OW 3737   7.155   0.311   1.543
  633SOL    HW1 3738   7.070   0.271   1.524
  633SOL    HW2 3739   7.138   0.370   1.617
  634SOL     OW 3740   7.057   5.102   2.949
  634SOL    HW1 3741   7.076   5.195   2.939
  634SOL    HW2 3742   7.134   5.067   2.993
  635SOL     OW 3743   7.174   4.216   7.003
  635SOL    HW1 3744   7.095   4.206   7.055
  635SOL    HW2 3745   7.149   4.187   6.915
  636SOL     OW 3746   9.695   6.996   8.591
  636SOL    HW1 3747   9.740   6.964   8.669
  636SOL    HW2 3748   9.679   7.089   8.608
  637SOL     OW 3749   8.575   4.541  13.901
  637SOL    HW1 3750   8.643   4.598  13.936
  637SOL    HW2 3751   8.624   4.469  13.860
  638SOL     OW 3752   1.053  12.366  12.312
  638SOL    HW1 3753   0.977  12.349  12.368
  638SOL    HW2 3754   1.128  12.351  12.370
  639SOL     OW 3755   3.381  12.805  13.083
  639SOL    HW1 3756   3.446  12.867  13.050
  639SOL    HW2 3757   3.427  12.721  13.084
  640SOL     OW 3758   8.807  12.161   0.781
  640SOL    HW1 3759   8.795  12.121   0.695
  640SOL    HW2 3760   8.763  12.101   0.842
  641SOL     OW 3761  12.208   2.809   9.778
  641SOL    HW1 3762  12.254   2.830   9.696
  641SOL    HW2 3763  12.235   2.719   9.798
  642SOL     OW 3764  12.030   0.874  11.430
  642SOL    HW1 3765  11.984   0.831  11.358
  642SOL    HW2 3766  12.008   0.967  11.420
  643SOL     OW 3767   5.992   7.599  12.858
  643SOL    HW1 3768   5.978   7.596  12.763
  643SOL    HW2 3769   5.903   7.599  12.895
  644SOL     OW 3770  12.951   5.631  14.306
  644SOL    HW1 3771  12.865   5.665  14.282
  644SOL    HW2 3772  12.974   5.678  14.386
  645SOL     OW 3773   2.569   8.377   1.613
  645SOL    HW1 3774   2.518   8.376   1.532
  645SOL    HW2 3775   2.606   8.465   1.617
  646SOL     OW 3776  13.221   6.032  12.608
  646SOL    HW1 3777  13.229   5.976  12.531
  646SOL    HW2 3778  13.263   6.114  12.582
  647SOL     OW 3779   1.438  12.169   5.336
  647SOL    HW1 3780   1.462  12.144   5.426
  647SOL    HW2 3781   1.400  12.090   5.298
  648SOL     OW 3782  14.545   2.423   5.407
  648SOL    HW1 3783  14.620   2.462   5.362
  648SOL    HW2 3784  14.490   2.389   5.336
  649SOL     OW 3785   5.911   9.639   3.636
  649SOL    HW1 3786   5.849   9.703   3.671
  649SOL    HW2 3787   5.914   9.656   3.542
  650SOL     OW 3788   8.725   8.795   3.099
  650SOL    HW1 3789   8.660   8.847   3.147
  650SOL    HW2 3790   8.786   8.859   3.063
  651SOL     OW 3791   9.036  13.882   9.862
  651SOL    HW1 3792   9.109  13.854   9.917
  651SOL    HW2 3793   9.016  13.971   9.891
  652SOL     OW 3794  11.898  13.400   0.385
  652SOL    HW1 3795  11.939  13.332   0.331
  652SOL    HW2 3796  11.903  13.479   0.332
  653SOL     OW 3797  11.048   4.625  12.948
  653SOL    HW1 3798  11.088   4.606  13.033
  653SOL    HW2 3799  11.045   4.540  12.903
  654SOL     OW 3800   6.335   1.672  14.074
  654SOL    HW1 3801   6.394   1.680  13.999
  654SOL    HW2 3802   6.389   1.699  14.149
  655SOL     OW 3803   0.910   4.508   9.060
  655SOL    HW1 3804   0.882   4.570   9.128
  655SOL    HW2 3805   0.980   4.554   9.013
  656SOL     OW 3806  11.118   3.648   9.297
  656SOL    HW1 3807  11.088   3.734   9.267
  656SOL    HW2 3808  11.186   3.669   9.362
  657SOL     OW 3809   2.880  14.704  11.727
  657SOL    HW1 3810   2.789  14.690  11.700
  657SOL    HW2 3811   2.897  14.634  11.790
  658SOL     OW 3812   5.490  12.556   6.021
  658SOL    HW1 3813   5.496  12.602   5.937
  658SOL    HW2 3814   5.437  12.614   6.076
  659SOL     OW 3815   4.715   3.277   8.103
  659SOL    HW1 3816   4.746   3.351   8.051
  659SOL    HW2 3817   4.795   3.239   8.140
  660SOL     OW 3818   3.490   3.768   5.835
  660SOL    HW1 3819   3.487   3.780   5.930
  660SOL    HW2 3820   3.582   3.785   5.812
  661SOL     OW 3821  13.107   6.214   2.925
  661SOL    HW1 3822  13.119   6.213   2.830
  661SOL    HW2 3823  13.195   6.225   2.961
  662SOL     OW 3824  12.105  10.828  10.764
  662SOL    HW1 3825  12.170  10.824  10.694
  662SOL    HW2 3826  12.091  10.922  10.778
  663SOL     OW 3827   0.097   9.516   3.515
  663SOL    HW1 3828   0.163   9.532   3.583
  663SOL    HW2 3829   0.147   9.518   3.434
  664SOL     OW 3830   2.385  12.338   0.399
  664SOL    HW1 3831   2.437  12.411   0.365
  664SOL    HW2 3832   2.361  12.288   0.320
  665SOL     OW 3833   0.626  14.416   9.150
  665SOL    HW1 3834   0.695  14.482   9.153
  665SOL    HW2 3835   0.557  14.452   9.207
  666SOL     OW 3836   7.426  14.698   6.529
  666SOL    HW1 3837   7.442  14.668   6.439
  666SOL    HW2 3838   7.392  14.787   6.519
  667SOL     OW 3839  14.473  13.342   7.133
  667SOL    HW1 3840  14.463  13.415   7.194
  667SOL    HW2 3841  14.472  13.382   7.047
  668SOL     OW 3842   4.188   6.387   5.635
  668SOL    HW1 3843   4.260   6.420   5.689
  668SOL    HW2 3844   4.188   6.442   5.558
  669SOL     OW 3845   8.397   0.944   1.975
  669SOL    HW1 3846   8.377   0.889   1.900
  669SOL    HW2 3847   8.370   1.032   1.948
  670SOL     OW 3848   5.388  10.750   4.420
  670SOL    HW1 3849   5.455  10.708   4.366
  670SOL    HW2 3850   5.343  10.678   4.463
  671SOL     OW 3851   0.721   9.786   2.613
  671SOL    HW1 3852   0.738   9.693   2.602
  671SOL    HW2 3853   0.625   9.793   2.614
  672SOL     OW 3854   2.084   2.158   4.907
  672SOL    HW1 3855   2.067   2.083   4.964
  672SOL    HW2 3856   2.119   2.226   4.966
  673SOL     OW 3857   3.902   9.961  11.734
  673SOL    HW1 3858   3.958   9.899  11.779
  673SOL    HW2 3859   3.962  10.014  11.681
  674SOL     OW 3860   7.000   6.713   7.558
  674SOL    HW1 3861   7.028   6.669   7.478
  674SOL    HW2 3862   6.909   6.736   7.542
  675SOL     OW 3863   2.451   9.810  10.022
  675SOL    HW1 3864   2.502   9.819  10.102
  675SOL    HW2 3865   2.514   9.780   9.956
  676SOL     OW 3866   3.698   6.561  13.087
  676SOL    HW1 3867   3.679   6.655  13.092
  676SOL    HW2 3868   3.773   6.549  13.145
  677SOL     OW 3869   6.496   3.907  11.890
  677SOL    HW1 3870   6.566   3.911  11.954
  677SOL    HW2 3871   6.454   3.822  11.906
  678SOL     OW 3872   6.607  13.152   8.418
  678SOL    HW1 3873   6.542  13.083   8.406
  678SOL    HW2 3874   6.605  13.202   8.336
  679SOL     OW 3875   2.332   3.332  14.167
  679SOL    HW1 3876   2.255   3.366  14.121
  679SOL    HW2 3877   2.355   3.400  14.230
  680SOL     OW 3878   2.115  13.528   9.444
  680SOL    HW1 3879   2.110  13.442   9.402
  680SOL    HW2 3880   2.181  13.575   9.394
  681SOL     OW 3881  11.869   0.234   1.856
  681SOL    HW1 3882  11.929   0.304   1.881
  681SOL    HW2 3883  11.919   0.181   1.794
  682SOL     OW 3884  11.076   7.687   4.337
  682SOL    HW1 3885  11.095   7.639   4.418
  682SOL    HW2 3886  11.007   7.636   4.295
  683SOL     OW 3887  10.918   0.905   1.539
  683SOL    HW1 3888  11.005   0.943   1.548
  683SOL    HW2 3889  10.886   0.937   1.455
  684SOL     OW 3890  10.712  10.316  11.437
  684SOL    HW1 3891  10.721  10.393  11.492
  684SOL    HW2 3892  10.787  10.318  11.379
  685SOL     OW 3893  14.572  10.337  14.071
  685SOL    HW1 3894  14.663  10.349  14.047
  685SOL    HW2 3895  14.559  10.242  14.071
  686SOL     OW 3896  13.104   1.979  10.886
  686SOL    HW1 3897  13.064   2.060  10.919
  686SOL    HW2 3898  13.138   2.004  10.800
  687SOL     OW 3899  11.003   6.042   0.758
  687SOL    HW1 3900  10.935   6.071   0.819
  687SOL    HW2 3901  11.017   5.950   0.781
  688SOL     OW 3902   8.214  10.614   8.046
  688SOL    HW1 3903   8.122  10.617   8.022
  688SOL    HW2 3904   8.236  10.521   8.047
  689SOL     OW 3905   1.616   8.076  13.593
  689SOL    HW1 3906   1.536   8.028  13.614
  689SOL    HW2 3907   1.605   8.160  13.637
  690SOL     OW 3908   9.456   0.958  10.337
  690SOL    HW1 3909   9.540   0.914  10.332
  690SOL    HW2 3910   9.459   1.007  10.420
  691SOL     OW 3911   9.234   5.539   5.463
  691SOL    HW1 3912   9.260   5.465   5.408
  691SOL    HW2 3913   9.180   5.592   5.405
  692SOL     OW 3914   1.488   9.045  10.147
  692SOL    HW1 3915   1.409   9.006  10.108
  692SOL    HW2 3916   1.457   9.082  10.230
  693SOL     OW 3917  11.564   0.564   1.324
  693SOL    HW1 3918  11.475   0.558   1.357
  693SOL    HW2 3919  11.555   0.597   1.235
  694SOL     OW 3920   8.208   8.165   9.127
  694SOL    HW1 3921   8.196   8.145   9.034
  694SOL    HW2 3922   8.266   8.096   9.159
  695SOL     OW 3923   5.092   1.480   6.963
  695SOL    HW1 3924   5.111   1.394   7.001
  695SOL    HW2 3925   5.107   1.542   7.034
  696SOL     OW 3926  10.134   6.746   0.966
  696SOL    HW1 3927  10.123   6.811   1.036
  696SOL    HW2 3928  10.085   6.782   0.892
  697SOL     OW 3929   4.489  11.266   3.777
  697SOL    HW1 3930   4.524  11.355   3.787
  697SOL    HW2 3931   4.495  11.228   3.864
  698SOL     OW 3932   4.556  13.708   0.242
  698SOL    HW1 3933   4.506  13.750   0.171
  698SOL    HW2 3934   4.598  13.780   0.288
  699SOL     OW 3935  14.475  14.728   9.254
  699SOL    HW1 3936  14.434  14.781   9.186
  699SOL    HW2 3937  14.550  14.688   9.211
  700SOL     OW 3938   6.588   7.541   9.252
  700SOL    HW1 3939   6.579   7.448   9.232
  700SOL    HW2 3940   6.528   7.585   9.192
  701SOL     OW 3941   3.914   0.670   3.392
  701SOL    HW1 3942   3.826   0.702   3.372
  701SOL    HW2 3943   3.930   0.602   3.326
  702SOL     OW 3944   8.007  14.704   1.183
  702SOL    HW1 3945   8.044  14.616   1.186
  702SOL    HW2 3946   8.084  14.762   1.189
  703SOL     OW 3947   9.642   4.131  11.982
  703SOL    HW1 3948   9.692   4.163  11.907
  703SOL    HW2 3949   9.621   4.041  11.960
  704SOL     OW 3950  14.089   4.493   3.080
  704SOL    HW1 3951  14.097   4.404   3.047
  704SOL    HW2 3952  14.033   4.485   3.157
  705SOL     OW 3953   6.312  14.444  13.875
  705SOL    HW1 3954   6.252  14.377  13.840
  705SOL    HW2 3955   6.273  14.470  13.958
  706SOL     OW 3956   2.847  11.676   2.398
  706SOL    HW1 3957   2.788  11.700   2.470
  706SOL    HW2 3958   2.837  11.747   2.335
  707SOL     OW 3959   1.582   5.202   9.314
  707SOL    HW1 3960   1.537   5.117   9.315
  707SOL    HW2 3961   1.671   5.181   9.343
  708SOL     OW 3962   1.236  10.127  14.168
  708SOL    HW1 3963   1.221  10.117  14.074
  708SOL    HW2 3964   1.160  10.177  14.199
  709SOL     OW 3965  13.187  12.420   9.862
  709SOL    HW1 3966  13.181  12.374   9.946
  709SOL    HW2 3967  13.192  12.513   9.885
  710SOL     OW 3968  14.351   7.259  13.125
  710SOL    HW1 3969  14.288   7.268  13.196
  710SOL    HW2 3970  14.426   7.312  13.153
  711SOL     OW 3971   8.392   1.942   7.563
  711SOL    HW1 3972   8.442   1.953   7.481
  711SOL    HW2 3973   8.445   1.882   7.615
  712SOL     OW 3974   4.666   8.070  14.670
  712SOL    HW1 3975   4.698   8.149  14.627
  712SOL    HW2 3976   4.638   8.100  14.757
  713SOL     OW 3977  10.585   1.257   3.409
  713SOL    HW1 3978  10.666   1.231   3.453
  713SOL    HW2 3979  10.539   1.311   3.474
  714SOL     OW 3980   1.209  11.930   5.008
  714SOL    HW1 3981   1.256  12.012   4.994
  714SOL    HW2 3982   1.120  11.948   4.976
  715SOL     OW 3983   8.770   5.100   0.067
  715SOL    HW1 3984   8.699   5.162   0.050
  715SOL    HW2 3985   8.753   5.028   0.007
  716SOL     OW 3986  14.246  12.263   2.345
  716SOL    HW1 3987  14.249  12.282   2.251
  716SOL    HW2 3988  14.167  12.211   2.356
  717SOL     OW 3989  12.535   4.425  13.314
  717SOL    HW1 3990  12.452   4.454  13.352
  717SOL    HW2 3991  12.512   4.349  13.261
  718SOL     OW 3992  14.691   6.790  10.894
  718SOL    HW1 3993  14.687   6.831  10.807
  718SOL    HW2 3994  14.736   6.855  10.948
  719SOL     OW 3995   4.343  11.476   7.409
  719SOL    HW1 3996   4.350  11.564   7.372
  719SOL    HW2 3997   4.358  11.418   7.334
  720SOL     OW 3998  10.034   2.692  10.129
  720SOL    HW1 3999  10.016   2.660  10.041
  720SOL    HW2 4000  10.096   2.630  10.165
  721SOL     OW 4001   4.284   8.062   2.315
  721SOL    HW1 4002   4.356   8.081   2.255
  721SOL    HW2 4003   4.225   8.007   2.264
  722SOL     OW 4004   3.550   7.139  10.110
  722SOL    HW1 4005   3.612   7.190  10.162
  722SOL    HW2 4006   3.485   7.109  10.174
  723SOL     OW 4007  12.047  14.376   9.682
  723SOL    HW1 4008  12.036  14.371   9.587
  723SOL    HW2 4009  11.959  14.364   9.716
  724SOL     OW 4010   3.857   2.830   3.631
  724SOL    HW1 4011   3.877   2.894   3.564
  724SOL    HW2 4012   3.816   2.881   3.701
  725SOL     OW 4013   2.009  14.213   2.807
  725SOL    HW1 4014   2.042  14.182   2.891
  725SOL    HW2 4015   1.935  14.270   2.830
  726SOL     OW 4016   7.535   2.567   5.194
  726SOL    HW1 4017   7.452   2.611   5.214
  726SOL    HW2 4018   7.602   2.635   5.203
  727SOL     OW 4019   4.337   3.098   3.795
  727SOL    HW1 4020   4.289   3.117   3.876
  727SOL    HW2 4021   4.289   3.145   3.727
  728SOL     OW 4022   9.499  13.292   8.984
  728SOL    HW1 4023   9.434  13.260   8.922
  728SOL    HW2 4024   9.485  13.240   9.063
  729SOL     OW 4025   1.291  13.919   6.062
  729SOL    HW1 4026   1.217  13.885   6.113
  729SOL    HW2 4027   1.250  13.960   5.985
  730SOL     OW 4028   0.646   0.520   1.090
  730SOL    HW1 4029   0.721   0.579   1.091
  730SOL    HW2 4030   0.582   0.562   1.147
  731SOL     OW 4031   4.600  13.929  11.816
  731SOL    HW1 4032   4.689  13.956  11.794
  731SOL    HW2 4033   4.593  13.944  11.910
  732SOL     OW 4034   3.577  12.011   8.809
  732SOL    HW1 4035   3.533  12.063   8.743
  732SOL    HW2 4036   3.613  11.936   8.761
  733SOL     OW 4037  10.323  13.161   7.326
  733SOL    HW1 4038  10.369  13.236   7.364
  733SOL    HW2 4039  10.368  13.084   7.361
  734SOL     OW 4040   9.733  11.615  11.906
  734SOL    HW1 4041   9.639  11.606  11.922
  734SOL    HW2 4042   9.741  11.622  11.811
  735SOL     OW 4043   8.783   7.738  13.606
  735SOL    HW1 4044   8.757   7.821  13.648
  735SOL    HW2 4045   8.879   7.743  13.604
  736SOL     OW 4046  11.720   6.223   2.132
  736SOL    HW1 4047  11.674   6.166   2.071
  736SOL    HW2 4048  11.666   6.302   2.137
  737SOL     OW 4049   5.508   5.232   4.586
  737SOL    HW1 4050   5.547   5.311   4.551
  737SOL    HW2 4051   5.572   5.199   4.649
  738SOL     OW 4052  12.710   3.820   1.647
  738SOL    HW1 4053  12.713   3.729   1.619
  738SOL    HW2 4054  12.781   3.863   1.600
  739SOL     OW 4055   8.955   1.682   2.015
  739SOL    HW1 4056   8.991   1.767   2.041
  739SOL    HW2 4057   9.012   1.653   1.944
  740SOL     OW 4058   0.565   3.833  13.405
  740SOL    HW1 4059   0.645   3.885  13.415
  740SOL    HW2 4060   0.592   3.754  13.359
  741SOL     OW 4061   9.018   7.860  12.618
  741SOL    HW1 4062   9.044   7.925  12.553
  741SOL    HW2 4063   9.001   7.910  12.698
  742SOL     OW 4064   0.741   6.324   2.139
  742SOL    HW1 4065   0.824   6.286   2.170
  742SOL    HW2 4066   0.731   6.289   2.050
  743SOL     OW 4067  11.873  14.778   5.434
  743SOL    HW1 4068  11.927  14.708   5.471
  743SOL    HW2 4069  11.919  14.859   5.457
  744SOL     OW 4070  14.539   1.629   7.503
  744SOL    HW1 4071  14.527   1.637   7.598
  744SOL    HW2 4072  14.616   1.682   7.484
  745SOL     OW 4073   0.569   6.472   3.495
  745SOL    HW1 4074   0.474   6.462   3.486
  745SOL    HW2 4075   0.605   6.391   3.461
  746SOL     OW 4076   7.378  11.210   5.371
  746SOL    HW1 4077   7.397  11.125   5.413
  746SOL    HW2 4078   7.457  11.230   5.322
  747SOL     OW 4079  14.452  14.563   9.852
  747SOL    HW1 4080  14.376  14.587   9.904
  747SOL    HW2 4081  14.527  14.600   9.899
  748SOL     OW 4082   1.480   3.576   9.602
  748SOL    HW1 4083   1.508   3.529   9.524
  748SOL    HW2 4084   1.415   3.519   9.643
  749SOL     OW 4085   8.819  11.228  10.758
  749SOL    HW1 4086   8.824  11.134  10.740
  749SOL    HW2 4087   8.777  11.265  10.681
  750SOL     OW 4088   1.587   6.181   2.698
  750SOL    HW1 4089   1.610   6.095   2.664
  750SOL    HW2 4090   1.641   6.192   2.776
  751SOL     OW 4091  11.572  13.562   1.289
  751SOL    HW1 4092  11.527  13.633   1.244
  751SOL    HW2 4093  11.507  13.492   1.296
  752SOL     OW 4094   6.225   3.732  12.366
  752SOL    HW1 4095   6.213   3.664  12.299
  752SOL    HW2 4096   6.286   3.694  12.429
  753SOL     OW 4097   7.427   6.384   5.491
  753SOL    HW1 4098   7.378   6.411   5.569
  753SOL    HW2 4099   7.395   6.442   5.422
  754SOL     OW 4100  13.986  12.144  11.209
  754SOL    HW1 4101  14.040  12.202  11.155
  754SOL    HW2 4102  13.973  12.067  11.155
  755SOL     OW 4103   4.115   4.158  14.614
  755SOL    HW1 4104   4.099   4.149  14.708
  755SOL    HW2 4105   4.046   4.106  14.573
  756SOL     OW 4106   8.855   8.991   0.993
  756SOL    HW1 4107   8.861   8.919   1.056
  756SOL    HW2 4108   8.808   9.060   1.040
  757SOL     OW 4109   2.304   8.521   2.831
  757SOL    HW1 4110   2.262   8.495   2.914
  757SOL    HW2 4111   2.236   8.570   2.785
  758SOL     OW 4112   6.575   9.268  14.587
  758SOL    HW1 4113   6.552   9.229  14.671
  758SOL    HW2 4114   6.644   9.211  14.552
  759SOL     OW 4115   0.134  14.758  13.331
  759SOL    HW1 4116   0.089  14.725  13.253
  759SOL    HW2 4117   0.088  14.718  13.404
  760SOL     OW 4118  10.149   1.604   8.080
  760SOL    HW1 4119  10.175   1.616   7.989
  760SOL    HW2 4120  10.232   1.594   8.128
  761SOL     OW 4121   6.784   9.582   0.565
  761SOL    HW1 4122   6.691   9.587   0.542
  761SOL    HW2 4123   6.788   9.512   0.631
  762SOL     OW 4124   1.994  13.214   2.858
  762SOL    HW1 4125   2.031  13.129   2.834
  762SOL    HW2 4126   2.009  13.221   2.953
  763SOL     OW 4127  10.818  11.103   8.664
  763SOL    HW1 4128  10.784  11.066   8.582
  763SOL    HW2 4129  10.827  11.197   8.645
  764SOL     OW 4130  13.769   3.709   3.094
  764SOL    HW1 4131  13.810   3.729   3.179
  764SOL    HW2 4132  13.678   3.736   3.105
  765SOL     OW 4133   8.509  14.487   8.018
  765SOL    HW1 4134   8.542  14.492   7.929
  765SOL    HW2 4135   8.503  14.578   8.047
  766SOL     OW 4136   3.306   1.304   7.021
  766SOL    HW1 4137   3.244   1.376   7.013
  766SOL    HW2 4138   3.376   1.325   6.958
  767SOL     OW 4139  10.332   1.632  13.740
  767SOL    HW1 4140  10.283   1.581  13.805
  767SOL    HW2 4141  10.327   1.579  13.660
  768SOL     OW 4142   8.517   3.341   5.460
  768SOL    HW1 4143   8.593   3.332   5.402
  768SOL    HW2 4144   8.551   3.315   5.546
  769SOL     OW 4145   7.095   6.706  10.941
  769SOL    HW1 4146   7.182   6.718  10.904
  769SOL    HW2 4147   7.108   6.706  11.035
  770SOL     OW 4148   7.568  10.933   8.093
  770SOL    HW1 4149   7.607  10.859   8.139
  770SOL    HW2 4150   7.491  10.956   8.145
  771SOL     OW 4151   5.936  11.737  14.367
  771SOL    HW1 4152   5.917  11.661  14.422
  771SOL    HW2 4153   5.851  11.758  14.326
  772SOL     OW 4154   7.786   8.405   6.635
  772SOL    HW1 4155   7.772   8.412   6.541
  772SOL    HW2 4156   7.780   8.311   6.653
  773SOL     OW 4157   5.138   4.475   5.819
  773SOL    HW1 4158   5.113   4.520   5.738
  773SOL    HW2 4159   5.055   4.446   5.857
  774SOL     OW 4160   1.804   0.206   3.354
  774SOL    HW1 4161   1.795   0.140   3.285
  774SOL    HW2 4162   1.808   0.289   3.307
  775SOL     OW 4163   0.277  13.442   5.823
  775SOL    HW1 4164   0.220  13.381   5.870
  775SOL    HW2 4165   0.259  13.427   5.731
  776SOL     OW 4166   1.902  14.145  12.433
  776SOL    HW1 4167   1.960  14.085  12.481
  776SOL    HW2 4168   1.866  14.203  12.500
  777SOL     OW 4169   8.774   0.549  14.106
  777SOL    HW1 4170   8.758   0.586  14.019
  777SOL    HW2 4171   8.869   0.550  14.116
  778SOL     OW 4172  11.558   8.043   0.868
  778SOL    HW1 4173  11.483   8.000   0.908
  778SOL    HW2 4174  11.630   7.981   0.881
  779SOL     OW 4175   6.932  13.272   3.908
  779SOL    HW1 4176   6.855  13.287   3.852
  779SOL    HW2 4177   6.924  13.339   3.976
  780SOL     OW 4178   3.363   3.432  13.888
  780SOL    HW1 4179   3.381   3.456  13.979
  780SOL    HW2 4180   3.366   3.515  13.841
  781SOL     OW 4181  14.148   2.174  10.121
  781SOL    HW1 4182  14.079   2.217  10.071
  781SOL    HW2 4183  14.103   2.108  10.174
  782SOL     OW 4184   3.768   2.097   4.194
  782SOL    HW1 4185   3.842   2.070   4.249
  782SOL    HW2 4186   3.729   2.171   4.241
  783SOL     OW 4187  13.690   6.326   8.895
  783SOL    HW1 4188  13.692   6.372   8.811
  783SOL    HW2 4189  13.675   6.394   8.960
  784SOL     OW 4190   4.001   8.571  14.490
  784SOL    HW1 4191   4.045   8.495  14.451
  784SOL    HW2 4192   4.047   8.647  14.455
  785SOL     OW 4193   8.233   2.401  14.156
  785SOL    HW1 4194   8.206   2.474  14.212
  785SOL    HW2 4195   8.303   2.437  14.102
  786SOL     OW 4196  11.434  12.077   4.936
  786SOL    HW1 4197  11.403  12.111   5.020
  786SOL    HW2 4198  11.360  12.089   4.877
  787SOL     OW 4199  13.662   9.373   9.690
  787SOL    HW1 4200  13.686   9.314   9.761
  787SOL    HW2 4201  13.573   9.401   9.711
  788SOL     OW 4202  13.290   3.909   7.708
  788SOL    HW1 4203  13.356   3.915   7.639
  788SOL    HW2 4204  13.305   3.985   7.764
  789SOL     OW 4205   3.765   0.481   2.037
  789SOL    HW1 4206   3.778   0.435   1.954
  789SOL    HW2 4207   3.718   0.417   2.092
  790SOL     OW 4208  14.202   7.877   0.670
  790SOL    HW1 4209  14.203   7.852   0.762
  790SOL    HW2 4210  14.194   7.794   0.623
  791SOL     OW 4211   1.772   8.497   9.567
  791SOL    HW1 4212   1.827   8.455   9.501
  791SOL    HW2 4213   1.820   8.575   9.593
  792SOL     OW 4214  10.630  13.927   8.528
  792SOL    HW1 4215  10.600  14.009   8.490
  792SOL    HW2 4216  10.593  13.927   8.617
  793SOL     OW 4217  14.871   0.918   7.336
  793SOL    HW1 4218  14.874   0.994   7.277
  793SOL    HW2 4219  14.867   0.843   7.277
  794SOL     OW 4220   5.013   9.371   1.908
  794SOL    HW1 4221   5.050   9.458   1.892
  794SOL    HW2 4222   4.978   9.376   1.997
  795SOL     OW 4223  10.750  12.618  10.948
  795SOL    HW1 4224  10.840  12.610  10.917
  795SOL    HW2 4225  10.749  12.573  11.033
  796SOL     OW 4226   8.086   9.998   0.378
  796SOL    HW1 4227   8.176   9.979   0.404
  796SOL    HW2 4228   8.047  10.039   0.455
  797SOL     OW 4229   9.551   2.023   6.537
  797SOL    HW1 4230   9.477   2.044   6.480
  797SOL    HW2 4231   9.519   1.953   6.594
  798SOL     OW 4232   8.556   2.591  11.858
  798SOL    HW1 4233   8.606   2.670  11.880
  798SOL    HW2 4234   8.623   2.527  11.832
  799SOL     OW 4235   2.785  11.293   9.763
  799SOL    HW1 4236   2.757  11.205   9.741
  799SOL    HW2 4237   2.823  11.328   9.683
  800SOL     OW 4238   6.920   9.320   1.156
  800SOL    HW1 4239   6.982   9.270   1.210
  800SOL    HW2 4240   6.877   9.380   1.217
  801SOL     OW 4241   6.055  14.508  11.990
  801SOL    HW1 4242   6.001  14.569  11.940
  801SOL    HW2 4243   6.104  14.459  11.925
  802SOL     OW 4244  12.035   2.324  12.444
  802SOL    HW1 4245  12.119   2.363  12.468
  802SOL    HW2 4246  12.033   2.328  12.348
  803SOL     OW 4247   9.300   5.274  14.201
  803SOL    HW1 4248   9.344   5.307  14.280
  803SOL    HW2 4249   9.354   5.305  14.129
  804SOL     OW 4250  12.906   5.782   1.976
  804SOL    HW1 4251  12.844   5.757   2.044
  804SOL    HW2 4252  12.907   5.878   1.978
  805SOL     OW 4253   1.651   8.910   0.234
  805SOL    HW1 4254   1.597   8.883   0.160
  805SOL    HW2 4255   1.590   8.956   0.292
  806SOL     OW 4256  12.233   4.160   0.937
  806SOL    HW1 4257  12.226   4.226   1.006
  806SOL    HW2 4258  12.294   4.196   0.874
  807SOL     OW 4259  13.819  11.002   4.555
  807SOL    HW1 4260  13.749  11.030   4.613
  807SOL    HW2 4261  13.868  11.082   4.536
  808SOL     OW 4262   8.685  13.002   6.248
  808SOL    HW1 4263   8.624  13.033   6.181
  808SOL    HW2 4264   8.684  12.907   6.240
  809SOL     OW 4265   7.989  14.648  14.834
  809SOL    HW1 4266   7.947  14.563  14.819
  809SOL    HW2 4267   8.079  14.625  14.860
  810SOL     OW 4268   0.317   1.490  12.370
  810SOL    HW1 4269   0.278   1.414  12.412
  810SOL    HW2 4270   0.269   1.565  12.405
  811SOL     OW 4271   1.548   9.678  13.588
  811SOL    HW1 4272   1.620   9.728  13.550
  811SOL    HW2 4273   1.536   9.604  13.529
  812SOL     OW 4274   1.998  11.472   8.847
  812SOL    HW1 4275   1.928  11.451   8.908
  812SOL    HW2 4276   1.976  11.422   8.768
  813SOL     OW 4277   5.840  14.800  14.857
  813SOL    HW1 4278   5.899  14.731   0.008
  813SOL    HW2 4279   5.779  14.813   0.051
  814SOL     OW 4280  10.964  14.259  10.804
  814SOL    HW1 4281  11.056  14.283  10.813
  814SOL    HW2 4282  10.959  14.212  10.720
  815SOL     OW 4283  14.104   1.243   0.962
  815SOL    HW1 4284  14.090   1.164   1.013
  815SOL    HW2 4285  14.197   1.262   0.970
  816SOL     OW 4286   6.658  11.073  10.327
  816SOL    HW1 4287   6.591  11.038  10.268
  816SOL    HW2 4288   6.732  11.014  10.318
  817SOL     OW 4289   1.340   8.381   8.757
  817SOL    HW1 4290   1.374   8.443   8.693
  817SOL    HW2 4291   1.248   8.368   8.732
  818SOL     OW 4292  13.498   7.026   0.616
  818SOL    HW1 4293  13.574   7.055   0.566
  818SOL    HW2 4294  13.454   6.964   0.557
  819SOL     OW 4295   1.584  11.160  10.068
  819SOL    HW1 4296   1.540  11.127  10.146
  819SOL    HW2 4297   1.677  11.164  10.092
  820SOL     OW 4298   0.026   0.925   2.039
  820SOL    HW1 4299   0.030   0.953   2.130
  820SOL    HW2 4300   0.100   0.865   2.028
  821SOL     OW 4301   0.425   1.149   5.545
  821SOL    HW1 4302   0.491   1.183   5.605
  821SOL    HW2 4303   0.476   1.108   5.475
  822SOL     OW 4304   5.951  11.441   7.484
  822SOL    HW1 4305   5.891  11.506   7.519
  822SOL    HW2 4306   5.952  11.458   7.389
  823SOL     OW 4307   2.010  11.131   5.575
  823SOL    HW1 4308   2.074  11.134   5.504
  823SOL    HW2 4309   1.926  11.143   5.532
  824SOL     OW 4310   7.251   9.864  13.698
  824SOL    HW1 4311   7.185   9.795  13.698
  824SOL    HW2 4312   7.213   9.934  13.751
  825SOL     OW 4313  12.082   7.323  10.548
  825SOL    HW1 4314  12.141   7.350  10.477
  825SOL    HW2 4315  12.133   7.262  10.600
  826SOL     OW 4316   4.799   1.921  13.907
  826SOL    HW1 4317   4.875   1.904  13.851
  826SOL    HW2 4318   4.812   1.863  13.982
  827SOL     OW 4319   5.246  10.101   8.583
  827SOL    HW1 4320   5.317  10.064   8.531
  827SOL    HW2 4321   5.167  10.078   8.535
  828SOL     OW 4322  10.029   1.354   9.650
  828SOL    HW1 4323  10.007   1.439   9.689
  828SOL    HW2 4324   9.944   1.313   9.635
  829SOL     OW 4325   3.552  12.809   9.858
  829SOL    HW1 4326   3.532  12.902   9.861
  829SOL    HW2 4327   3.497  12.770   9.926
  830SOL     OW 4328  11.038  10.584   3.710
  830SOL    HW1 4329  11.085  10.660   3.745
  830SOL    HW2 4330  10.946  10.608   3.717
  831SOL     OW 4331   3.364   4.274   0.892
  831SOL    HW1 4332   3.271   4.256   0.881
  831SOL    HW2 4333   3.388   4.226   0.971
  832SOL     OW 4334  13.045  10.538   2.319
  832SOL    HW1 4335  12.986  10.476   2.277
  832SOL    HW2 4336  13.042  10.616   2.264
  833SOL     OW 4337   6.539   7.788  10.346
  833SOL    HW1 4338   6.570   7.751  10.264
  833SOL    HW2 4339   6.615   7.783  10.404
  834SOL     OW 4340   0.155  10.466  11.848
  834SOL    HW1 4341   0.164  10.540  11.788
  834SOL    HW2 4342   0.174  10.389  11.794
  835SOL     OW 4343   5.218   8.067   7.267
  835SOL    HW1 4344   5.303   8.060   7.224
  835SOL    HW2 4345   5.236   8.106   7.352
  836SOL     OW 4346   3.772   8.323  10.460
  836SOL    HW1 4347   3.858   8.282  10.462
  836SOL    HW2 4348   3.723   8.281  10.531
  837SOL     OW 4349  10.368  14.375   7.122
  837SOL    HW1 4350  10.460  14.399   7.130
  837SOL    HW2 4351  10.352  14.317   7.196
  838SOL     OW 4352   8.905   3.062  12.225
  838SOL    HW1 4353   8.926   3.084  12.134
  838SOL    HW2 4354   8.867   3.141  12.261
  839SOL     OW 4355   0.736   7.455   0.708
  839SOL    HW1 4356   0.782   7.538   0.722
  839SOL    HW2 4357   0.670   7.453   0.778
  840SOL     OW 4358  10.405   9.929  11.695
  840SOL    HW1 4359  10.321   9.916  11.652
  840SOL    HW2 4360  10.406  10.023  11.716
  841SOL     OW 4361  14.233  13.051   1.393
  841SOL    HW1 4362  14.165  13.033   1.328
  841SOL    HW2 4363  14.268  12.965   1.416
  842SOL     OW 4364   9.091   2.786  11.065
  842SOL    HW1 4365   9.084   2.702  11.110
  842SOL    HW2 4366   9.011   2.793  11.013
  843SOL     OW 4367   4.708   3.398   6.809
  843SOL    HW1 4368   4.752   3.325   6.767
  843SOL    HW2 4369   4.615   3.383   6.792
  844SOL     OW 4370   6.134  11.035   9.845
  844SOL    HW1 4371   6.125  11.110   9.904
  844SOL    HW2 4372   6.101  10.960   9.896
  845SOL     OW 4373   8.165   9.408   0.879
  845SOL    HW1 4374   8.216   9.330   0.901
  845SOL    HW2 4375   8.086   9.374   0.837
  846SOL     OW 4376  10.296  14.282   3.339
  846SOL    HW1 4377  10.262  14.259   3.426
  846SOL    HW2 4378  10.219  14.276   3.281
  847SOL     OW 4379   1.784  11.370   5.026
  847SOL    HW1 4380   1.744  11.315   4.959
  847SOL    HW2 4381   1.839  11.311   5.077
  848SOL     OW 4382   0.314   2.435   6.854
  848SOL    HW1 4383   0.340   2.393   6.936
  848SOL    HW2 4384   0.241   2.381   6.822
  849SOL     OW 4385   8.431   4.919   0.118
  849SOL    HW1 4386   8.473   4.845   0.074
  849SOL    HW2 4387   8.489   4.942   0.190
  850SOL     OW 4388   8.076   9.370   7.923
  850SOL    HW1 4389   8.058   9.461   7.902
  850SOL    HW2 4390   8.147   9.345   7.863
  851SOL     OW 4391   6.631  12.184  11.359
  851SOL    HW1 4392   6.586  12.156  11.439
  851SOL    HW2 4393   6.693  12.251  11.387
  852SOL     OW 4394   5.869   9.320   9.650
  852SOL    HW1 4395   5.787   9.288   9.614
  852SOL    HW2 4396   5.871   9.413   9.629
  853SOL     OW 4397   8.058   0.952   6.615
  853SOL    HW1 4398   8.018   1.037   6.596
  853SOL    HW2 4399   8.079   0.915   6.529
  854SOL     OW 4400   9.335  13.539  10.938
  854SOL    HW1 4401   9.358  13.452  10.905
  854SOL    HW2 4402   9.266  13.523  11.002
  855SOL     OW 4403   5.240  14.683  10.696
  855SOL    HW1 4404   5.224  14.719  10.783
  855SOL    HW2 4405   5.202  14.595  10.699
  856SOL     OW 4406  11.955   1.588   9.891
  856SOL    HW1 4407  11.986   1.538   9.816
  856SOL    HW2 4408  11.975   1.679   9.869
  857SOL     OW 4409   9.918   7.790   7.494
  857SOL    HW1 4410   9.870   7.872   7.492
  857SOL    HW2 4411   9.851   7.723   7.476
  858SOL     OW 4412  11.005   9.657  13.975
  858SOL    HW1 4413  10.979   9.749  13.977
  858SOL    HW2 4414  11.098   9.657  13.996
  859SOL     OW 4415   8.163   6.116   8.332
  859SOL    HW1 4416   8.100   6.151   8.395
  859SOL    HW2 4417   8.151   6.021   8.336
  860SOL     OW 4418   4.313   7.112  11.352
  860SOL    HW1 4419   4.293   7.130  11.260
  860SOL    HW2 4420   4.285   7.191  11.399
  861SOL     OW 4421   2.336   0.729  10.289
  861SOL    HW1 4422   2.314   0.666  10.221
  861SOL    HW2 4423   2.311   0.813  10.253
  862SOL     OW 4424  12.813  14.430   5.013
  862SOL    HW1 4425  12.718  14.437   5.009
  862SOL    HW2 4426  12.845  14.502   4.960
  863SOL     OW 4427   2.404   0.478  12.368
  863SOL    HW1 4428   2.344   0.476  12.442
  863SOL    HW2 4429   2.488   0.503  12.406
  864SOL     OW 4430   2.294  12.036   4.193
  864SOL    HW1 4431   2.309  11.976   4.267
  864SOL    HW2 4432   2.379  12.040   4.149
  865SOL     OW 4433   9.978   6.107  11.052
  865SOL    HW1 4434   9.965   6.148  11.137
  865SOL    HW2 4435   9.896   6.062  11.034
  866SOL     OW 4436   7.522  10.981   5.749
  866SOL    HW1 4437   7.427  10.985   5.736
  866SOL    HW2 4438   7.542  10.888   5.753
  867SOL     OW 4439   1.326   7.265   1.141
  867SOL    HW1 4440   1.327   7.195   1.076
  867SOL    HW2 4441   1.350   7.344   1.091
  868SOL     OW 4442   5.867   4.481   2.697
  868SOL    HW1 4443   5.835   4.428   2.770
  868SOL    HW2 4444   5.828   4.568   2.712
  869SOL     OW 4445   8.427   6.510  10.747
  869SOL    HW1 4446   8.487   6.463  10.804
  869SOL    HW2 4447   8.347   6.458  10.748
  870SOL     OW 4448   9.681   2.405  12.055
  870SOL    HW1 4449   9.630   2.372  12.128
  870SOL    HW2 4450   9.620   2.462  12.007
  871SOL     OW 4451   4.682   2.719  13.617
  871SOL    HW1 4452   4.728   2.803  13.613
  871SOL    HW2 4453   4.750   2.655  13.639
  872SOL     OW 4454   4.764   9.446   5.399
  872SOL    HW1 4455   4.799   9.531   5.374
  872SOL    HW2 4456   4.813   9.383   5.346
  873SOL     OW 4457   2.527   4.955   0.764
  873SOL    HW1 4458   2.456   5.016   0.784
  873SOL    HW2 4459   2.512   4.930   0.673
  874SOL     OW 4460   7.903  13.574   0.566
  874SOL    HW1 4461   7.947  13.569   0.651
  874SOL    HW2 4462   7.962  13.626   0.511
  875SOL     OW 4463   0.676  14.396  14.625
  875SOL    HW1 4464   0.694  14.312  14.583
  875SOL    HW2 4465   0.723  14.460  14.571
  876SOL     OW 4466   2.686   1.713   0.560
  876SOL    HW1 4467   2.688   1.662   0.479
  876SOL    HW2 4468   2.756   1.675   0.614
  877SOL     OW 4469   4.986   0.088   6.975
  877SOL    HW1 4470   4.967   0.057   6.886
  877SOL    HW2 4471   5.076   0.062   6.991
  878SOL     OW 4472  11.886  10.904  14.173
  878SOL    HW1 4473  11.825  10.837  14.141
  878SOL    HW2 4474  11.830  10.975  14.204
  879SOL     OW 4475   1.861   5.607   7.908
  879SOL    HW1 4476   1.830   5.517   7.900
  879SOL    HW2 4477   1.842   5.646   7.823
  880SOL     OW 4478  13.093   8.437   5.161
  880SOL    HW1 4479  13.169   8.411   5.212
  880SOL    HW2 4480  13.055   8.510   5.210
  881SOL     OW 4481   3.801  12.730  11.669
  881SOL    HW1 4482   3.839  12.748  11.583
  881SOL    HW2 4483   3.753  12.648  11.657
  882SOL     OW 4484  11.980   6.992   9.078
  882SOL    HW1 4485  11.913   6.976   9.145
  882SOL    HW2 4486  11.931   7.017   9.000
  883SOL     OW 4487   6.650   5.941  12.421
  883SOL    HW1 4488   6.578   5.997  12.450
  883SOL    HW2 4489   6.709   6.000  12.373
  884SOL     OW 4490   6.644   1.601  14.049
  884SOL    HW1 4491   6.738   1.586  14.035
  884SOL    HW2 4492   6.633   1.596  14.144
  885SOL     OW 4493  12.223   1.524   1.221
  885SOL    HW1 4494  12.238   1.570   1.139
  885SOL    HW2 4495  12.144   1.472   1.205
  886SOL     OW 4496   5.105   7.415   1.544
  886SOL    HW1 4497   5.088   7.321   1.541
  886SOL    HW2 4498   5.075   7.448   1.459
  887SOL     OW 4499   9.895   0.617   6.199
  887SOL    HW1 4500   9.865   0.605   6.109
  887SOL    HW2 4501   9.835   0.681   6.236
  888SOL     OW 4502  14.450   1.260  10.146
  888SOL    HW1 4503  14.369   1.228  10.105
  888SOL    HW2 4504  14.443   1.232  10.237
  889SOL     OW 4505  10.623  10.287   2.653
  889SOL    HW1 4506  10.677  10.353   2.698
  889SOL    HW2 4507  10.681  10.213   2.639
  890SOL     OW 4508  14.196   7.130   5.556
  890SOL    HW1 4509  14.170   7.133   5.648
  890SOL    HW2 4510  14.119   7.098   5.510
  891SOL     OW 4511   0.770  12.949  12.545
  891SOL    HW1 4512   0.828  13.005  12.494
  891SOL    HW2 4513   0.814  12.864  12.547
  892SOL     OW 4514   7.974   0.950   2.093
  892SOL    HW1 4515   8.013   0.976   2.177
  892SOL    HW2 4516   8.016   1.008   2.029
  893SOL     OW 4517   4.795   4.028   4.826
  893SOL    HW1 4518   4.846   3.956   4.863
  893SOL    HW2 4519   4.853   4.066   4.760
  894SOL     OW 4520   4.323   9.634   1.500
  894SOL    HW1 4521   4.313   9.676   1.585
  894SOL    HW2 4522   4.261   9.561   1.501
  895SOL     OW 4523   5.017  12.593   5.297
  895SOL    HW1 4524   5.056  12.656   5.236
  895SOL    HW2 4525   4.990  12.647   5.371
  896SOL     OW 4526   3.016   6.057  13.223
  896SOL    HW1 4527   2.946   6.080  13.163
  896SOL    HW2 4528   3.092   6.105  13.191
  897SOL     OW 4529  13.609   6.308   2.095
  897SOL    HW1 4530  13.533   6.251   2.088
  897SOL    HW2 4531  13.666   6.282   2.023
  898SOL     OW 4532   1.765   6.225   8.401
  898SOL    HW1 4533   1.832   6.176   8.449
  898SOL    HW2 4534   1.688   6.221   8.459
  899SOL     OW 4535   1.080   8.226   2.955
  899SOL    HW1 4536   1.056   8.288   2.886
  899SOL    HW2 4537   1.156   8.267   2.998
  900SOL     OW 4538   8.734  12.816  14.128
  900SOL    HW1 4539   8.773  12.744  14.177
  900SOL    HW2 4540   8.722  12.781  14.040
  901SOL     OW 4541   4.605  12.252  13.605
  901SOL    HW1 4542   4.681  12.310  13.601
  901SOL    HW2 4543   4.580  12.239  13.514
  902SOL     OW 4544  13.625   1.432   8.897
  902SOL    HW1 4545  13.720   1.434   8.896
  902SOL    HW2 4546  13.599   1.481   8.819
  903SOL     OW 4547  14.200   3.346   4.977
  903SOL    HW1 4548  14.286   3.382   4.996
  903SOL    HW2 4549  14.213   3.251   4.974
  904SOL     OW 4550   8.607  11.356   7.579
  904SOL    HW1 4551   8.650  11.354   7.664
  904SOL    HW2 4552   8.546  11.430   7.586
  905SOL     OW 4553  14.296   4.793   7.681
  905SOL    HW1 4554  14.295   4.700   7.705
  905SOL    HW2 4555  14.309   4.839   7.764
  906SOL     OW 4556  11.086  11.196   9.494
  906SOL    HW1 4557  11.044  11.151   9.420
  906SOL    HW2 4558  11.085  11.288   9.469
  907SOL     OW 4559  11.666  12.070  12.581
  907SOL    HW1 4560  11.730  11.999  12.594
  907SOL    HW2 4561  11.720  12.149  12.572
  908SOL     OW 4562  13.876   2.600   6.373
  908SOL    HW1 4563  13.789   2.606   6.412
  908SOL    HW2 4564  13.867   2.534   6.304
  909SOL     OW 4565   5.693  14.849  10.508
  909SOL    HW1 4566   5.639   0.042  10.542
  909SOL    HW2 4567   5.660  14.835  10.419
  910SOL     OW 4568   8.303   6.930  10.520
  910SOL    HW1 4569   8.383   6.878  10.511
  910SOL    HW2 4570   8.331   7.009  10.565
  911SOL     OW 4571  10.847   2.844  14.563
  911SOL    HW1 4572  10.852   2.925  14.615
  911SOL    HW2 4573  10.912   2.786  14.603
  912SOL     OW 4574   3.392   8.900  12.377
  912SOL    HW1 4575   3.386   8.864  12.466
  912SOL    HW2 4576   3.347   8.835  12.322
  913SOL     OW 4577  12.818   8.158   7.695
  913SOL    HW1 4578  12.757   8.092   7.729
  913SOL    HW2 4579  12.898   8.144   7.745
  914SOL     OW 4580   9.141  13.774  12.252
  914SOL    HW1 4581   9.231  13.807  12.242
  914SOL    HW2 4582   9.117  13.799  12.341
  915SOL     OW 4583   4.705   6.155  13.087
  915SOL    HW1 4584   4.799   6.170  13.079
  915SOL    HW2 4585   4.688   6.077  13.034
  916SOL     OW 4586   9.651   6.028  14.275
  916SOL    HW1 4587   9.582   5.962  14.277
  916SOL    HW2 4588   9.730   5.980  14.252
  917SOL     OW 4589   6.778  14.527   1.383
  917SOL    HW1 4590   6.747  14.568   1.302
  917SOL    HW2 4591   6.855  14.477   1.356
  918SOL     OW 4592   5.472  13.915   6.236
  918SOL    HW1 4593   5.410  13.943   6.169
  918SOL    HW2 4594   5.526  13.849   6.191
  919SOL     OW 4595   8.261   7.674   8.374
  919SOL    HW1 4596   8.222   7.743   8.428
  919SOL    HW2 4597   8.340   7.648   8.422
  920SOL     OW 4598   0.254  13.949   6.217
  920SOL    HW1 4599   0.248  14.017   6.150
  920SOL    HW2 4600   0.183  13.888   6.195
  921SOL     OW 4601   1.198  12.528   9.998
  921SOL    HW1 4602   1.274  12.538   9.940
  921SOL    HW2 4603   1.213  12.591  10.068
  922SOL     OW 4604   3.419  11.359   7.842
  922SOL    HW1 4605   3.478  11.375   7.915
  922SOL    HW2 4606   3.389  11.445   7.815
  923SOL     OW 4607   2.865   6.774  13.613
  923SOL    HW1 4608   2.845   6.800  13.523
  923SOL    HW2 4609   2.814   6.695  13.629
  924SOL     OW 4610   4.534  11.294   4.708
  924SOL    HW1 4611   4.521  11.263   4.618
  924SOL    HW2 4612   4.621  11.262   4.733
  925SOL     OW 4613   0.913   1.065  14.052
  925SOL    HW1 4614   0.832   1.087  14.005
  925SOL    HW2 4615   0.901   1.102  14.139
  926SOL     OW 4616  14.475   1.639   1.364
  926SOL    HW1 4617  14.497   1.546   1.360
  926SOL    HW2 4618  14.387   1.641   1.401
  927SOL     OW 4619  11.701   0.619  10.252
  927SOL    HW1 4620  11.711   0.613  10.347
  927SOL    HW2 4621  11.777   0.572  10.217
  928SOL     OW 4622  13.767  12.722  12.126
  928SOL    HW1 4623  13.794  12.744  12.037
  928SOL    HW2 4624  13.816  12.782  12.182
  929SOL     OW 4625   0.792   9.033  14.110
  929SOL    HW1 4626   0.779   8.977  14.187
  929SOL    HW2 4627   0.887   9.034  14.097
  930SOL     OW 4628  10.328  11.382   2.770
  930SOL    HW1 4629  10.408  11.342   2.804
  930SOL    HW2 4630  10.346  11.476   2.770
  931SOL     OW 4631   2.455  11.026  12.013
  931SOL    HW1 4632   2.495  10.967  11.949
  931SOL    HW2 4633   2.421  11.099  11.961
  932SOL     OW 4634  14.304  13.096  11.208
  932SOL    HW1 4635  14.281  13.013  11.166
  932SOL    HW2 4636  14.244  13.160  11.169
  933SOL     OW 4637   8.244  11.366   4.170
  933SOL    HW1 4638   8.240  11.390   4.263
  933SOL    HW2 4639   8.171  11.304   4.158
  934SOL     OW 4640   6.163  13.598   3.711
  934SOL    HW1 4641   6.196  13.660   3.775
  934SOL    HW2 4642   6.185  13.637   3.626
  935SOL     OW 4643   6.377   9.194  10.984
  935SOL    HW1 4644   6.462   9.156  11.002
  935SOL    HW2 4645   6.389   9.245  10.904
  936SOL     OW 4646   4.849   5.799  13.881
  936SOL    HW1 4647   4.774   5.858  13.876
  936SOL    HW2 4648   4.838   5.741  13.805
  937SOL     OW 4649   6.819   0.016  13.872
  937SOL    HW1 4650   6.912   0.007  13.890
  937SOL    HW2 4651   6.815   0.065  13.790
  938SOL     OW 4652   2.368   1.490   0.938
  938SOL    HW1 4653   2.355   1.570   0.989
  938SOL    HW2 4654   2.373   1.519   0.847
  939SOL     OW 4655   2.850   1.718  14.690
  939SOL    HW1 4656   2.888   1.803  14.713
  939SOL    HW2 4657   2.757   1.736  14.678
  940SOL     OW 4658   2.301   0.802   4.266
  940SOL    HW1 4659   2.325   0.850   4.187
  940SOL    HW2 4660   2.342   0.716   4.256
  941SOL     OW 4661   1.882   8.648  14.772
  941SOL    HW1 4662   1.859   8.620  14.684
  941SOL    HW2 4663   1.875   8.743  14.770
  942SOL     OW 4664   4.572  10.997   6.706
  942SOL    HW1 4665   4.600  10.906   6.715
  942SOL    HW2 4666   4.612  11.042   6.780
  943SOL     OW 4667   7.552  14.657   3.851
  943SOL    HW1 4668   7.468  14.648   3.806
  943SOL    HW2 4669   7.561  14.576   3.902
  944SOL     OW 4670   6.864   9.082  13.659
  944SOL    HW1 4671   6.935   9.146  13.653
  944SOL    HW2 4672   6.784   9.133  13.647
  945SOL     OW 4673   6.424   9.394  13.641
  945SOL    HW1 4674   6.352   9.362  13.588
  945SOL    HW2 4675   6.396   9.481  13.670
  946SOL     OW 4676   0.782  14.069   7.165
  946SOL    HW1 4677   0.752  14.061   7.256
  946SOL    HW2 4678   0.823  13.984   7.146
  947SOL     OW 4679   0.017  12.966  10.795
  947SOL    HW1 4680  14.834  12.919  10.738
  947SOL    HW2 4681   0.096  12.912  10.792
  948SOL     OW 4682   0.335   0.127   1.996
  948SOL    HW1 4683   0.325   0.075   2.076
  948SOL    HW2 4684   0.359   0.214   2.027
  949SOL     OW 4685   0.059   0.948   1.416
  949SOL    HW1 4686  14.873   0.927   1.483
  949SOL    HW2 4687   0.092   0.863   1.388
  950SOL     OW 4688   9.175   5.501  13.477
  950SOL    HW1 4689   9.093   5.521  13.521
  950SOL    HW2 4690   9.217   5.586  13.465
  951SOL     OW 4691   1.607   3.905   2.228
  951SOL    HW1 4692   1.685   3.935   2.182
  951SOL    HW2 4693   1.623   3.812   2.244
  952SOL     OW 4694   2.812  14.016   8.462
  952SOL    HW1 4695   2.852  14.095   8.498
  952SOL    HW2 4696   2.826  14.023   8.367
  953SOL     OW 4697   8.200   1.427   8.993
  953SOL    HW1 4698   8.118   1.475   9.008
  953SOL    HW2 4699   8.210   1.428   8.897
  954SOL     OW 4700   4.574   3.536   7.907
  954SOL    HW1 4701   4.661   3.521   7.944
  954SOL    HW2 4702   4.556   3.628   7.924
  955SOL     OW 4703   3.444   5.592   9.730
  955SOL    HW1 4704   3.511   5.525   9.739
  955SOL    HW2 4705   3.361   5.544   9.734
  956SOL     OW 4706  11.821   8.248   9.299
  956SOL    HW1 4707  11.848   8.231   9.389
  956SOL    HW2 4708  11.881   8.197   9.245
  957SOL     OW 4709   3.145   6.827   3.575
  957SOL    HW1 4710   3.236   6.820   3.602
  957SOL    HW2 4711   3.099   6.763   3.629
  958SOL     OW 4712   8.329   1.314   6.248
  958SOL    HW1 4713   8.258   1.333   6.187
  958SOL    HW2 4714   8.290   1.322   6.335
  959SOL     OW 4715  13.215  13.153   9.139
  959SOL    HW1 4716  13.133  13.133   9.094
  959SOL    HW2 4717  13.203  13.118   9.228
  960SOL     OW 4718   6.440   2.702   7.406
  960SOL    HW1 4719   6.523   2.663   7.433
  960SOL    HW2 4720   6.431   2.679   7.314
  961SOL     OW 4721   0.828  12.772  11.659
  961SOL    HW1 4722   0.808  12.752  11.568
  961SOL    HW2 4723   0.754  12.736  11.709
  962SOL     OW 4724   7.814   6.196   7.701
  962SOL    HW1 4725   7.750   6.124   7.703
  962SOL    HW2 4726   7.881   6.166   7.640
  963SOL     OW 4727  11.569   3.882   9.647
  963SOL    HW1 4728  11.549   3.790   9.665
  963SOL    HW2 4729  11.544   3.894   9.555
  964SOL     OW 4730  11.723   9.061  10.986
  964SOL    HW1 4731  11.678   8.978  10.992
  964SOL    HW2 4732  11.791   9.057  11.054
  965SOL     OW 4733  14.823   4.639   8.469
  965SOL    HW1 4734  14.803   4.732   8.476
  965SOL    HW2 4735  14.739   4.595   8.482
  966SOL     OW 4736  12.771   2.495   1.608
  966SOL    HW1 4737  12.693   2.486   1.664
  966SOL    HW2 4738  12.738   2.478   1.519
  967SOL     OW 4739   2.556  13.459   0.293
  967SOL    HW1 4740   2.492  13.409   0.342
  967SOL    HW2 4741   2.619  13.393   0.263
  968SOL     OW 4742   5.514  10.197  13.965
  968SOL    HW1 4743   5.425  10.230  13.983
  968SOL    HW2 4744   5.517  10.113  14.011
  969SOL     OW 4745   5.677  10.851   0.681
  969SOL    HW1 4746   5.662  10.898   0.763
  969SOL    HW2 4747   5.655  10.914   0.613
  970SOL     OW 4748   2.035  11.834   3.022
  970SOL    HW1 4749   2.008  11.856   3.111
  970SOL    HW2 4750   1.958  11.792   2.984
  971SOL     OW 4751   0.246  10.152   1.369
  971SOL    HW1 4752   0.211  10.063   1.362
  971SOL    HW2 4753   0.214  10.196   1.290
  972SOL     OW 4754   9.183   0.839   8.511
  972SOL    HW1 4755   9.216   0.749   8.505
  972SOL    HW2 4756   9.101   0.832   8.559
  973SOL     OW 4757  11.079   6.051   1.197
  973SOL    HW1 4758  11.148   6.062   1.263
  973SOL    HW2 4759  11.084   6.131   1.144
  974SOL     OW 4760  14.070   7.035   1.417
  974SOL    HW1 4761  14.082   6.942   1.399
  974SOL    HW2 4762  14.114   7.049   1.501
  975SOL     OW 4763   3.523   9.970   0.999
  975SOL    HW1 4764   3.591  10.029   1.033
  975SOL    HW2 4765   3.569   9.889   0.979
  976SOL     OW 4766  11.684  10.644   4.539
  976SOL    HW1 4767  11.677  10.740   4.536
  976SOL    HW2 4768  11.671  10.622   4.632
  977SOL     OW 4769   1.137   3.253   5.003
  977SOL    HW1 4770   1.202   3.253   5.073
  977SOL    HW2 4771   1.070   3.315   5.032
  978SOL     OW 4772  10.552  11.491  12.200
  978SOL    HW1 4773  10.513  11.520  12.118
  978SOL    HW2 4774  10.617  11.426  12.174
  979SOL     OW 4775   8.317   8.333   8.496
  979SOL    HW1 4776   8.283   8.418   8.470
  979SOL    HW2 4777   8.394   8.353   8.550
  980SOL     OW 4778   1.981   0.277   2.559
  980SOL    HW1 4779   1.925   0.295   2.635
  980SOL    HW2 4780   1.970   0.352   2.502
  981SOL     OW 4781   1.417   0.375  11.188
  981SOL    HW1 4782   1.392   0.347  11.100
  981SOL    HW2 4783   1.496   0.428  11.174
  982SOL     OW 4784  13.395  10.659  13.523
  982SOL    HW1 4785  13.408  10.581  13.470
  982SOL    HW2 4786  13.432  10.637  13.609
  983SOL     OW 4787   0.958   8.556  11.058
  983SOL    HW1 4788   1.039   8.507  11.075
  983SOL    HW2 4789   0.971   8.595  10.972
  984SOL     OW 4790  10.094   2.141   0.362
  984SOL    HW1 4791  10.036   2.145   0.287
  984SOL    HW2 4792  10.040   2.169   0.436
  985SOL     OW 4793   9.654  13.946   6.594
  985SOL    HW1 4794   9.626  13.858   6.621
  985SOL    HW2 4795   9.722  13.930   6.529
  986SOL     OW 4796  13.955   4.173   4.588
  986SOL    HW1 4797  13.966   4.218   4.672
  986SOL    HW2 4798  13.873   4.125   4.596
  987SOL     OW 4799   4.432   8.229   3.961
  987SOL    HW1 4800   4.456   8.137   3.964
  987SOL    HW2 4801   4.367   8.235   3.890
  988SOL     OW 4802   0.788  10.056   8.666
  988SOL    HW1 4803   0.726   9.983   8.664
  988SOL    HW2 4804   0.806  10.069   8.759
  989SOL     OW 4805  10.341   3.720   1.822
  989SOL    HW1 4806  10.428   3.744   1.853
  989SOL    HW2 4807  10.300   3.674   1.895
  990SOL     OW 4808   7.513  13.809  11.815
  990SOL    HW1 4809   7.493  13.742  11.881
  990SOL    HW2 4810   7.509  13.892  11.863
  991SOL     OW 4811   8.140   3.419   5.185
  991SOL    HW1 4812   8.228   3.382   5.189
  991SOL    HW2 4813   8.152   3.513   5.198
  992SOL     OW 4814   7.423  12.227   6.711
  992SOL    HW1 4815   7.362  12.285   6.757
  992SOL    HW2 4816   7.391  12.224   6.621
  993SOL     OW 4817  11.866   7.032  14.188
  993SOL    HW1 4818  11.896   7.043  14.098
  993SOL    HW2 4819  11.789   6.975  14.182
  994SOL     OW 4820   6.148  12.327   9.730
  994SOL    HW1 4821   6.057  12.328   9.699
  994SOL    HW2 4822   6.168  12.418   9.751
  995SOL     OW 4823   2.277  10.440  11.453
  995SOL    HW1 4824   2.327  10.522  11.442
  995SOL    HW2 4825   2.324  10.377  11.399
  996SOL     OW 4826   4.930  13.818  13.101
  996SOL    HW1 4827   4.850  13.870  13.094
  996SOL    HW2 4828   4.954  13.798  13.011
  997SOL     OW 4829  11.563   0.272   7.577
  997SOL    HW1 4830  11.573   0.366   7.562
  997SOL    HW2 4831  11.573   0.233   7.490
  998SOL     OW 4832   4.812   0.350   6.568
  998SOL    HW1 4833   4.722   0.382   6.565
  998SOL    HW2 4834   4.866   0.428   6.551
  999SOL     OW 4835   5.287   9.588   4.462
  999SOL    HW1 4836   5.218   9.651   4.443
  999SOL    HW2 4837   5.368   9.636   4.443
 1000SOL     OW 4838  10.310  12.039  12.027
 1000SOL    HW1 4839  10.278  11.993  12.104
 1000SOL    HW2 4840  10.394  12.077  12.055
 1001SOL     OW 4841  10.210   8.554   2.631
 1001SOL    HW1 4842  10.282   8.610   2.600
 1001SOL    HW2 4843  10.225   8.470   2.586
 1002SOL     OW 4844   5.871   9.062   2.674
 1002SOL    HW1 4845   5.918   9.123   2.618
 1002SOL    HW2 4846   5.917   9.066   2.758
 1003SOL     OW 4847   1.223   1.306  11.397
 1003SOL    HW1 4848   1.217   1.217  11.363
 1003SOL    HW2 4849   1.260   1.357  11.325
 1004SOL     OW 4850  11.187   8.193   4.001
 1004SOL    HW1 4851  11.165   8.106   3.967
 1004SOL    HW2 4852  11.106   8.244   3.994
 1005SOL     OW 4853  10.949   1.990   0.835
 1005SOL    HW1 4854  10.901   1.935   0.774
 1005SOL    HW2 4855  10.918   2.079   0.818
 1006SOL     OW 4856   1.441   8.589  12.582
 1006SOL    HW1 4857   1.463   8.666  12.529
 1006SOL    HW2 4858   1.389   8.623  12.654
 1007SOL     OW 4859   1.199  12.412   1.823
 1007SOL    HW1 4860   1.218  12.328   1.781
 1007SOL    HW2 4861   1.173  12.388   1.912
 1008SOL     OW 4862   4.362   7.379   0.884
 1008SOL    HW1 4863   4.316   7.452   0.843
 1008SOL    HW2 4864   4.437   7.362   0.827
 1009SOL     OW 4865   7.643  12.426  14.402
 1009SOL    HW1 4866   7.717  12.427  14.463
 1009SOL    HW2 4867   7.678  12.461  14.320
 1010SOL     OW 4868  13.765  11.079  12.662
 1010SOL    HW1 4869  13.822  11.151  12.635
 1010SOL    HW2 4870  13.804  11.047  12.744
 1011SOL     OW 4871   4.602   1.459   5.232
 1011SOL    HW1 4872   4.639   1.417   5.309
 1011SOL    HW2 4873   4.631   1.404   5.159
 1012SOL     OW 4874   3.756   4.960   5.180
 1012SOL    HW1 4875   3.673   4.934   5.219
 1012SOL    HW2 4876   3.751   4.929   5.089
 1013SOL     OW 4877   9.890   6.440  11.146
 1013SOL    HW1 4878   9.813   6.492  11.171
 1013SOL    HW2 4879   9.864   6.396  11.065
 1014SOL     OW 4880  10.941   1.346   2.951
 1014SOL    HW1 4881  10.876   1.283   2.982
 1014SOL    HW2 4882  11.013   1.291   2.919
 1015SOL     OW 4883   0.867  13.335  13.339
 1015SOL    HW1 4884   0.773  13.319  13.347
 1015SOL    HW2 4885   0.899  13.261  13.289
 1016SOL     OW 4886   7.153   8.745   7.515
 1016SOL    HW1 4887   7.126   8.750   7.423
 1016SOL    HW2 4888   7.145   8.652   7.537
 1017SOL     OW 4889  11.632  12.599   1.261
 1017SOL    HW1 4890  11.630  12.644   1.177
 1017SOL    HW2 4891  11.698  12.647   1.313
 1018SOL     OW 4892   0.930  12.484  11.212
 1018SOL    HW1 4893   0.839  12.454  11.209
 1018SOL    HW2 4894   0.980  12.410  11.178
 1019SOL     OW 4895   8.621  12.225  14.022
 1019SOL    HW1 4896   8.618  12.269  14.107
 1019SOL    HW2 4897   8.627  12.132  14.043
 1020SOL     OW 4898  14.280   6.636   5.789
 1020SOL    HW1 4899  14.271   6.702   5.858
 1020SOL    HW2 4900  14.213   6.659   5.725
 1021SOL     OW 4901  14.193   5.816   5.048
 1021SOL    HW1 4902  14.162   5.740   4.998
 1021SOL    HW2 4903  14.284   5.827   5.020
 1022SOL     OW 4904   9.489   7.905  10.037
 1022SOL    HW1 4905   9.525   7.822  10.004
 1022SOL    HW2 4906   9.464   7.886  10.127
 1023SOL     OW 4907  10.609  10.432   9.237
 1023SOL    HW1 4908  10.669  10.408   9.308
 1023SOL    HW2 4909  10.557  10.353   9.222
 1024SOL     OW 4910  12.353   1.404   8.061
 1024SOL    HW1 4911  12.387   1.480   8.014
 1024SOL    HW2 4912  12.303   1.355   7.996
 1025SOL     OW 4913   6.230   6.752   2.891
 1025SOL    HW1 4914   6.264   6.695   2.823
 1025SOL    HW2 4915   6.305   6.802   2.922
 1026SOL     OW 4916   4.348   4.746   2.238
 1026SOL    HW1 4917   4.294   4.813   2.195
 1026SOL    HW2 4918   4.286   4.676   2.260
 1027SOL     OW 4919  10.162   2.386  11.799
 1027SOL    HW1 4920  10.078   2.427  11.818
 1027SOL    HW2 4921  10.165   2.310  11.857
 1028SOL     OW 4922   9.704   0.498   2.116
 1028SOL    HW1 4923   9.613   0.479   2.091
 1028SOL    HW2 4924   9.755   0.483   2.037
 1029SOL     OW 4925   6.839   9.311   0.150
 1029SOL    HW1 4926   6.893   9.289   0.226
 1029SOL    HW2 4927   6.902   9.338   0.083
 1030SOL     OW 4928   4.306   3.827  10.941
 1030SOL    HW1 4929   4.332   3.735  10.953
 1030SOL    HW2 4930   4.364   3.876  10.998
 1031SOL     OW 4931   4.326  14.428   2.656
 1031SOL    HW1 4932   4.349  14.455   2.567
 1031SOL    HW2 4933   4.345  14.504   2.710
 1032SOL     OW 4934  12.773   5.699   4.020
 1032SOL    HW1 4935  12.704   5.639   4.049
 1032SOL    HW2 4936  12.794   5.669   3.931
 1033SOL     OW 4937   7.516  14.500   2.942
 1033SOL    HW1 4938   7.458  14.520   2.868
 1033SOL    HW2 4939   7.585  14.446   2.905
 1034SOL     OW 4940   0.183   4.473  14.823
 1034SOL    HW1 4941   0.234   4.426   0.009
 1034SOL    HW2 4942   0.180   4.414  14.748
 1035SOL     OW 4943   5.045  10.437  14.760
 1035SOL    HW1 4944   4.975  10.456  14.822
 1035SOL    HW2 4945   5.074  10.523  14.729
 1036SOL     OW 4946   9.274   1.961   6.030
 1036SOL    HW1 4947   9.331   2.013   5.975
 1036SOL    HW2 4948   9.287   1.871   6.000
 1037SOL     OW 4949   0.823   7.303  14.403
 1037SOL    HW1 4950   0.900   7.247  14.413
 1037SOL    HW2 4951   0.800   7.328  14.493
 1038SOL     OW 4952   9.620   7.558  14.181
 1038SOL    HW1 4953   9.536   7.575  14.223
 1038SOL    HW2 4954   9.654   7.480  14.226
 1039SOL     OW 4955  10.464   9.943   2.732
 1039SOL    HW1 4956  10.394   9.930   2.667
 1039SOL    HW2 4957  10.537   9.979   2.682
 1040SOL     OW 4958  13.179   3.931   8.063
 1040SOL    HW1 4959  13.089   3.951   8.086
 1040SOL    HW2 4960  13.230   4.004   8.099
 1041SOL     OW 4961   8.200   7.341   8.764
 1041SOL    HW1 4962   8.235   7.273   8.706
 1041SOL    HW2 4963   8.107   7.319   8.771
 1042SOL     OW 4964   2.896  11.491  13.438
 1042SOL    HW1 4965   2.922  11.576  13.475
 1042SOL    HW2 4966   2.801  11.493  13.439
 1043SOL     OW 4967   3.920   7.981   6.810
 1043SOL    HW1 4968   3.905   8.045   6.740
 1043SOL    HW2 4969   3.870   8.014   6.884
 1044SOL     OW 4970   3.656  13.469  12.617
 1044SOL    HW1 4971   3.592  13.438  12.682
 1044SOL    HW2 4972   3.734  13.491  12.669
 1045SOL     OW 4973   2.958   4.190   6.556
 1045SOL    HW1 4974   2.955   4.107   6.509
 1045SOL    HW2 4975   3.029   4.240   6.514
 1046SOL     OW 4976   5.141  11.765   7.533
 1046SOL    HW1 4977   5.106  11.840   7.485
 1046SOL    HW2 4978   5.141  11.694   7.469
 1047SOL     OW 4979   6.177   5.546   7.999
 1047SOL    HW1 4980   6.246   5.613   8.000
 1047SOL    HW2 4981   6.099   5.590   8.031
 1048SOL     OW 4982  11.991   8.374   0.910
 1048SOL    HW1 4983  12.013   8.468   0.908
 1048SOL    HW2 4984  11.904   8.371   0.949
 1049SOL     OW 4985   3.001   0.331   3.620
 1049SOL    HW1 4986   2.972   0.416   3.587
 1049SOL    HW2 4987   2.921   0.279   3.627
 1050SOL     OW 4988   6.149  10.504   4.844
 1050SOL    HW1 4989   6.224  10.458   4.806
 1050SOL    HW2 4990   6.130  10.456   4.924
 1051SOL     OW 4991   8.208  14.067  10.261
 1051SOL    HW1 4992   8.259  14.097  10.336
 1051SOL    HW2 4993   8.125  14.037  10.299
 1052SOL     OW 4994  14.256   1.247  13.487
 1052SOL    HW1 4995  14.186   1.186  13.464
 1052SOL    HW2 4996  14.311   1.251  13.409
 1053SOL     OW 4997   0.946   4.650   8.292
 1053SOL    HW1 4998   0.883   4.715   8.323
 1053SOL    HW2 4999   1.000   4.697   8.228
 1054SOL     OW 5000   8.347   9.224   0.567
 1054SOL    HW1 5001   8.372   9.314   0.585
 1054SOL    HW2 5002   8.419   9.189   0.515
 1055SOL     OW 5003   3.521   8.785   4.138
 1055SOL    HW1 5004   3.598   8.731   4.118
 1055SOL    HW2 5005   3.495   8.756   4.226
 1056SOL     OW 5006  14.585  10.611  12.951
 1056SOL    HW1 5007  14.570  10.612  12.856
 1056SOL    HW2 5008  14.505  10.646  12.988
 1057SOL     OW 5009   5.425  13.927  14.876
 1057SOL    HW1 5010   5.392  13.911   0.085
 1057SOL    HW2 5011   5.442  13.839  14.840
 1058SOL     OW 5012   4.307   1.791   3.921
 1058SOL    HW1 5013   4.216   1.820   3.914
 1058SOL    HW2 5014   4.342   1.801   3.833
 1059SOL     OW 5015   0.491   9.721  10.788
 1059SOL    HW1 5016   0.492   9.817  10.778
 1059SOL    HW2 5017   0.552   9.704  10.859
 1060SOL     OW 5018  11.749  12.692   5.885
 1060SOL    HW1 5019  11.718  12.613   5.841
 1060SOL    HW2 5020  11.841  12.674   5.904
 1061SOL     OW 5021   0.182   1.902   7.297
 1061SOL    HW1 5022   0.132   1.967   7.248
 1061SOL    HW2 5023   0.242   1.865   7.233
 1062SOL     OW 5024   1.274   9.347   6.455
 1062SOL    HW1 5025   1.365   9.340   6.484
 1062SOL    HW2 5026   1.275   9.318   6.364
 1063SOL     OW 5027   9.655   1.351  11.297
 1063SOL    HW1 5028   9.568   1.351  11.336
 1063SOL    HW2 5029   9.715   1.349  11.372
 1064SOL     OW 5030  12.712   8.266  10.531
 1064SOL    HW1 5031  12.774   8.252  10.459
 1064SOL    HW2 5032  12.716   8.360  10.549
 1065SOL     OW 5033  12.890   6.494   2.995
 1065SOL    HW1 5034  12.876   6.419   2.937
 1065SOL    HW2 5035  12.890   6.570   2.936
 1066SOL     OW 5036   0.896   5.379   4.748
 1066SOL    HW1 5037   0.887   5.334   4.833
 1066SOL    HW2 5038   0.975   5.432   4.758
 1067SOL     OW 5039  10.987   6.665  11.483
 1067SOL    HW1 5040  10.898   6.699  11.488
 1067SOL    HW2 5041  11.039   6.740  11.453
 1068SOL     OW 5042   1.058   9.241   0.895
 1068SOL    HW1 5043   1.048   9.147   0.907
 1068SOL    HW2 5044   1.063   9.276   0.983
 1069SOL     OW 5045   4.095  10.777   6.218
 1069SOL    HW1 5046   4.028  10.841   6.244
 1069SOL    HW2 5047   4.166  10.791   6.280
 1070SOL     OW 5048   9.660  10.616   4.745
 1070SOL    HW1 5049   9.567  10.631   4.729
 1070SOL    HW2 5050   9.666  10.522   4.764
 1071SOL     OW 5051  12.963  10.262   5.541
 1071SOL    HW1 5052  13.055  10.238   5.525
 1071SOL    HW2 5053  12.913  10.202   5.485
 1072SOL     OW 5054  10.948   5.784  12.352
 1072SOL    HW1 5055  10.882   5.811  12.416
 1072SOL    HW2 5056  10.934   5.689  12.344
 1073SOL     OW 5057  13.483  10.427  12.978
 1073SOL    HW1 5058  13.539  10.504  12.982
 1073SOL    HW2 5059  13.544  10.353  12.971
 1074SOL     OW 5060   0.088  12.868   2.118
 1074SOL    HW1 5061   0.183  12.877   2.130
 1074SOL    HW2 5062   0.063  12.947   2.070
 1075SOL     OW 5063  11.830   2.733  10.205
 1075SOL    HW1 5064  11.888   2.808  10.217
 1075SOL    HW2 5065  11.771   2.736  10.281
 1076SOL     OW 5066   5.238   7.325   3.937
 1076SOL    HW1 5067   5.205   7.414   3.933
 1076SOL    HW2 5068   5.224   7.297   4.027
 1077SOL     OW 5069  13.128   7.093   2.290
 1077SOL    HW1 5070  13.144   7.022   2.352
 1077SOL    HW2 5071  13.160   7.059   2.207
 1078SOL     OW 5072   8.734   1.658  14.429
 1078SOL    HW1 5073   8.699   1.746  14.413
 1078SOL    HW2 5074   8.721   1.644  14.523
 1079SOL     OW 5075   5.582  10.524  11.479
 1079SOL    HW1 5076   5.552  10.493  11.565
 1079SOL    HW2 5077   5.538  10.608  11.467
 1080SOL     OW 5078   2.933  13.998   6.559
 1080SOL    HW1 5079   3.017  14.044   6.548
 1080SOL    HW2 5080   2.895  13.998   6.472
 1081SOL     OW 5081  11.509   1.553  10.091
 1081SOL    HW1 5082  11.464   1.512  10.017
 1081SOL    HW2 5083  11.443   1.611  10.130
 1082SOL     OW 5084   5.438  11.136  10.209
 1082SOL    HW1 5085   5.423  11.220  10.165
 1082SOL    HW2 5086   5.351  11.110  10.240
 1083SOL     OW 5087   4.705   6.805   7.557
 1083SOL    HW1 5088   4.780   6.758   7.594
 1083SOL    HW2 5089   4.741   6.853   7.482
 1084SOL     OW 5090   1.789   8.863   7.751
 1084SOL    HW1 5091   1.737   8.788   7.722
 1084SOL    HW2 5092   1.876   8.847   7.714
 1085SOL     OW 5093   5.438   8.119  12.451
 1085SOL    HW1 5094   5.391   8.083  12.375
 1085SOL    HW2 5095   5.530   8.114  12.426
 1086SOL     OW 5096  11.227   3.274  11.915
 1086SOL    HW1 5097  11.158   3.242  11.858
 1086SOL    HW2 5098  11.282   3.198  11.931
 1087SOL     OW 5099   3.020   6.855   2.888
 1087SOL    HW1 5100   2.998   6.764   2.869
 1087SOL    HW2 5101   3.090   6.850   2.954
 1088SOL     OW 5102   7.244   8.776   1.876
 1088SOL    HW1 5103   7.224   8.745   1.965
 1088SOL    HW2 5104   7.202   8.712   1.819
 1089SOL     OW 5105   4.050   2.188  11.530
 1089SOL    HW1 5106   4.114   2.251  11.497
 1089SOL    HW2 5107   3.995   2.238  11.591
 1090SOL     OW 5108   4.059   8.836  11.361
 1090SOL    HW1 5109   4.141   8.793  11.387
 1090SOL    HW2 5110   4.058   8.918  11.410
 1091SOL     OW 5111   1.101  12.856   5.813
 1091SOL    HW1 5112   1.159  12.850   5.737
 1091SOL    HW2 5113   1.112  12.773   5.859
 1092SOL     OW 5114   2.921   3.827   7.668
 1092SOL    HW1 5115   2.985   3.885   7.709
 1092SOL    HW2 5116   2.846   3.827   7.728
 1093SOL     OW 5117   9.212   9.174   8.790
 1093SOL    HW1 5118   9.300   9.137   8.800
 1093SOL    HW2 5119   9.215   9.221   8.707
 1094SOL     OW 5120   4.179  13.379   6.437
 1094SOL    HW1 5121   4.234  13.377   6.515
 1094SOL    HW2 5122   4.218  13.312   6.379
 1095SOL     OW 5123  14.550   0.322  13.537
 1095SOL    HW1 5124  14.633   0.303  13.581
 1095SOL    HW2 5125  14.553   0.270  13.456
 1096SOL     OW 5126  10.222   2.209   6.901
 1096SOL    HW1 5127  10.129   2.227   6.911
 1096SOL    HW2 5128  10.227   2.141   6.834
 1097SOL     OW 5129   2.100   7.802   9.677
 1097SOL    HW1 5130   2.074   7.711   9.663
 1097SOL    HW2 5131   2.194   7.803   9.659
 1098SOL     OW 5132   5.911   5.725   9.010
 1098SOL    HW1 5133   5.923   5.676   8.929
 1098SOL    HW2 5134   5.951   5.669   9.078
 1099SOL     OW 5135   2.528  13.263   6.096
 1099SOL    HW1 5136   2.466  13.299   6.033
 1099SOL    HW2 5137   2.498  13.173   6.110
 1100SOL     OW 5138   1.712  14.049  12.962
 1100SOL    HW1 5139   1.752  14.136  12.963
 1100SOL    HW2 5140   1.620  14.065  12.939
 1101SOL     OW 5141   8.063   2.448  11.916
 1101SOL    HW1 5142   7.992   2.513  11.922
 1101SOL    HW2 5143   8.140   2.496  11.946
 1102SOL     OW 5144  10.019   2.066  13.767
 1102SOL    HW1 5145   9.994   1.995  13.708
 1102SOL    HW2 5146  10.099   2.035  13.809
 1103SOL     OW 5147   6.550  10.777  10.786
 1103SOL    HW1 5148   6.557  10.795  10.693
 1103SOL    HW2 5149   6.591  10.691  10.798
 1104SOL     OW 5150   5.616   7.978   5.000
 1104SOL    HW1 5151   5.611   7.884   5.016
 1104SOL    HW2 5152   5.649   7.986   4.911
 1105SOL     OW 5153   8.833  11.421   8.951
 1105SOL    HW1 5154   8.818  11.516   8.952
 1105SOL    HW2 5155   8.921  11.412   8.914
 1106SOL     OW 5156   7.772  14.053   3.420
 1106SOL    HW1 5157   7.815  14.134   3.444
 1106SOL    HW2 5158   7.843  13.992   3.401
 1107SOL     OW 5159  14.292   3.837   2.040
 1107SOL    HW1 5160  14.276   3.890   2.117
 1107SOL    HW2 5161  14.205   3.814   2.008
 1108SOL     OW 5162   9.860   9.573   9.934
 1108SOL    HW1 5163   9.855   9.578  10.030
 1108SOL    HW2 5164   9.953   9.580   9.914
 1109SOL     OW 5165   5.364   3.812  11.512
 1109SOL    HW1 5166   5.288   3.794  11.457
 1109SOL    HW2 5167   5.334   3.881  11.571
 1110SOL     OW 5168   7.059   5.472  14.411
 1110SOL    HW1 5169   6.976   5.433  14.386
 1110SOL    HW2 5170   7.125   5.409  14.383
 1111SOL     OW 5171   4.878   1.853  10.544
 1111SOL    HW1 5172   4.831   1.847  10.627
 1111SOL    HW2 5173   4.826   1.914  10.492
 1112SOL     OW 5174  11.542   5.995  10.324
 1112SOL    HW1 5175  11.625   5.962  10.357
 1112SOL    HW2 5176  11.556   6.008  10.231
 1113SOL     OW 5177   9.150   5.771   4.739
 1113SOL    HW1 5178   9.096   5.713   4.793
 1113SOL    HW2 5179   9.092   5.798   4.667
 1114SOL     OW 5180  14.785  10.264   7.997
 1114SOL    HW1 5181  14.703  10.238   8.040
 1114SOL    HW2 5182  14.853  10.242   8.060
 1115SOL     OW 5183  14.423   2.344  10.775
 1115SOL    HW1 5184  14.470   2.271  10.734
 1115SOL    HW2 5185  14.400   2.311  10.862
 1116SOL     OW 5186   4.870  11.916   8.204
 1116SOL    HW1 5187   4.847  11.865   8.127
 1116SOL    HW2 5188   4.963  11.935   8.194
 1117SOL     OW 5189  10.013   9.482   6.074
 1117SOL    HW1 5190   9.949   9.544   6.039
 1117SOL    HW2 5191   9.981   9.463   6.162
 1118SOL     OW 5192   1.219   6.930   0.247
 1118SOL    HW1 5193   1.192   6.985   0.173
 1118SOL    HW2 5194   1.310   6.908   0.229
 1119SOL     OW 5195  14.656  11.013   0.392
 1119SOL    HW1 5196  14.751  11.015   0.396
 1119SOL    HW2 5197  14.636  11.034   0.300
 1120SOL     OW 5198  10.611  12.505  11.629
 1120SOL    HW1 5199  10.527  12.493  11.674
 1120SOL    HW2 5200  10.635  12.417  11.600
 1121SOL     OW 5201  11.036  12.926   5.587
 1121SOL    HW1 5202  11.054  12.985   5.513
 1121SOL    HW2 5203  10.941  12.931   5.598
 1122SOL     OW 5204  12.472  13.320   6.472
 1122SOL    HW1 5205  12.379  13.314   6.493
 1122SOL    HW2 5206  12.515  13.329   6.557
 1123SOL     OW 5207   0.569   1.451   9.764
 1123SOL    HW1 5208   0.600   1.430   9.676
 1123SOL    HW2 5209   0.584   1.545   9.773
 1124SOL     OW 5210  10.222   7.478   6.760
 1124SOL    HW1 5211  10.275   7.439   6.691
 1124SOL    HW2 5212  10.224   7.572   6.741
 1125SOL     OW 5213  11.682  12.838   6.774
 1125SOL    HW1 5214  11.651  12.878   6.692
 1125SOL    HW2 5215  11.611  12.854   6.837
 1126SOL     OW 5216   2.520  14.353  12.524
 1126SOL    HW1 5217   2.552  14.415  12.590
 1126SOL    HW2 5218   2.510  14.405  12.445
 1127SOL     OW 5219   7.497  11.769  10.506
 1127SOL    HW1 5220   7.424  11.712  10.482
 1127SOL    HW2 5221   7.552  11.772  10.428
 1128SOL     OW 5222  13.464   1.855   8.462
 1128SOL    HW1 5223  13.495   1.765   8.451
 1128SOL    HW2 5224  13.543   1.906   8.483
 1129SOL     OW 5225   7.846  11.033  14.447
 1129SOL    HW1 5226   7.899  11.097  14.494
 1129SOL    HW2 5227   7.908  10.971  14.411
 1130SOL     OW 5228   2.645   9.533   4.315
 1130SOL    HW1 5229   2.681   9.482   4.388
 1130SOL    HW2 5230   2.566   9.573   4.352
 1131SOL     OW 5231   7.077   9.477   9.671
 1131SOL    HW1 5232   7.098   9.492   9.763
 1131SOL    HW2 5233   7.132   9.539   9.624
 1132SOL     OW 5234   5.934   7.882   6.961
 1132SOL    HW1 5235   5.990   7.920   7.030
 1132SOL    HW2 5236   5.858   7.848   7.008
 1133SOL     OW 5237  14.530   7.148   3.698
 1133SOL    HW1 5238  14.480   7.068   3.682
 1133SOL    HW2 5239  14.485   7.215   3.647
 1134SOL     OW 5240  12.232   0.114  14.737
 1134SOL    HW1 5241  12.312   0.090  14.691
 1134SOL    HW2 5242  12.200   0.032  14.774
 1135SOL     OW 5243  10.278   1.656  11.324
 1135SOL    HW1 5244  10.272   1.711  11.402
 1135SOL    HW2 5245  10.187   1.643  11.298
 1136SOL     OW 5246   3.793   3.020   2.834
 1136SOL    HW1 5247   3.861   2.953   2.830
 1136SOL    HW2 5248   3.716   2.975   2.869
 1137SOL     OW 5249   3.716   5.296  13.791
 1137SOL    HW1 5250   3.630   5.253  13.794
 1137SOL    HW2 5251   3.721   5.346  13.872
 1138SOL     OW 5252  12.072   8.312  14.572
 1138SOL    HW1 5253  12.115   8.311  14.657
 1138SOL    HW2 5254  11.984   8.277  14.589
 1139SOL     OW 5255   4.803  13.177  11.289
 1139SOL    HW1 5256   4.888  13.139  11.312
 1139SOL    HW2 5257   4.807  13.189  11.195
 1140SOL     OW 5258   7.437   5.268   4.644
 1140SOL    HW1 5259   7.523   5.307   4.627
 1140SOL    HW2 5260   7.384   5.292   4.568
 1141SOL     OW 5261  11.868  12.158   0.831
 1141SOL    HW1 5262  11.855  12.169   0.925
 1141SOL    HW2 5263  11.963  12.156   0.819
 1142SOL     OW 5264  10.934   5.272   4.470
 1142SOL    HW1 5265  10.870   5.285   4.540
 1142SOL    HW2 5266  10.974   5.358   4.457
 1143SOL     OW 5267  13.625   1.502  14.070
 1143SOL    HW1 5268  13.660   1.420  14.035
 1143SOL    HW2 5269  13.550   1.474  14.123
 1144SOL     OW 5270   0.789  10.814   0.087
 1144SOL    HW1 5271   0.702  10.779   0.105
 1144SOL    HW2 5272   0.849  10.751   0.128
 1145SOL     OW 5273  11.700   0.495  13.024
 1145SOL    HW1 5274  11.606   0.496  13.007
 1145SOL    HW2 5275  11.707   0.504  13.119
 1146SOL     OW 5276   9.366   5.610   8.230
 1146SOL    HW1 5277   9.409   5.527   8.208
 1146SOL    HW2 5278   9.386   5.668   8.157
 1147SOL     OW 5279  12.113   5.201  14.457
 1147SOL    HW1 5280  12.114   5.192  14.552
 1147SOL    HW2 5281  12.203   5.224  14.434
 1148SOL     OW 5282  11.167   8.595   9.015
 1148SOL    HW1 5283  11.178   8.690   9.028
 1148SOL    HW2 5284  11.187   8.581   8.922
 1149SOL     OW 5285  14.562  12.254   8.868
 1149SOL    HW1 5286  14.546  12.271   8.961
 1149SOL    HW2 5287  14.561  12.341   8.827
 1150SOL     OW 5288   5.681  10.326   4.680
 1150SOL    HW1 5289   5.758  10.276   4.653
 1150SOL    HW2 5290   5.619  10.259   4.711
 1151SOL     OW 5291   4.801  11.195   4.005
 1151SOL    HW1 5292   4.844  11.181   4.089
 1151SOL    HW2 5293   4.708  11.182   4.024
 1152SOL     OW 5294   9.535  14.738   4.376
 1152SOL    HW1 5295   9.619  14.731   4.331
 1152SOL    HW2 5296   9.477  14.780   4.311
 1153SOL     OW 5297  10.560  13.825   9.036
 1153SOL    HW1 5298  10.520  13.879   9.105
 1153SOL    HW2 5299  10.561  13.737   9.073
 1154SOL     OW 5300   5.634  10.156   9.358
 1154SOL    HW1 5301   5.684  10.102   9.296
 1154SOL    HW2 5302   5.544  10.124   9.351
 1155SOL     OW 5303   4.536   5.238   6.353
 1155SOL    HW1 5304   4.632   5.235   6.364
 1155SOL    HW2 5305   4.515   5.153   6.314
 1156SOL     OW 5306  14.027  13.998   4.074
 1156SOL    HW1 5307  14.003  14.074   4.126
 1156SOL    HW2 5308  13.945  13.949   4.064
 1157SOL     OW 5309   3.243   4.479   3.638
 1157SOL    HW1 5310   3.328   4.520   3.653
 1157SOL    HW2 5311   3.244   4.400   3.692
 1158SOL     OW 5312   9.813   6.162   2.979
 1158SOL    HW1 5313   9.754   6.089   3.000
 1158SOL    HW2 5314   9.861   6.132   2.902
 1159SOL     OW 5315  12.448  13.238   3.109
 1159SOL    HW1 5316  12.353  13.242   3.104
 1159SOL    HW2 5317  12.470  13.282   3.191
 1160SOL     OW 5318  12.273   5.673  11.025
 1160SOL    HW1 5319  12.315   5.746  11.069
 1160SOL    HW2 5320  12.270   5.603  11.090
 1161SOL     OW 5321  13.949  14.364   5.597
 1161SOL    HW1 5322  13.939  14.270   5.581
 1161SOL    HW2 5323  14.029  14.387   5.551
 1162SOL     OW 5324  10.617  12.669   0.434
 1162SOL    HW1 5325  10.572  12.609   0.374
 1162SOL    HW2 5326  10.548  12.706   0.488
 1163SOL     OW 5327  12.368   2.981  13.810
 1163SOL    HW1 5328  12.381   2.984  13.905
 1163SOL    HW2 5329  12.289   2.927  13.799
 1164SOL     OW 5330   9.840  11.738  10.149
 1164SOL    HW1 5331   9.908  11.696  10.096
 1164SOL    HW2 5332   9.814  11.671  10.212
 1165SOL     OW 5333  12.858   2.696   9.747
 1165SOL    HW1 5334  12.836   2.674   9.837
 1165SOL    HW2 5335  12.821   2.624   9.695
 1166SOL     OW 5336   9.830  11.396   9.347
 1166SOL    HW1 5337   9.771  11.381   9.420
 1166SOL    HW2 5338   9.845  11.490   9.347
 1167SOL     OW 5339   3.546   8.139   2.952
 1167SOL    HW1 5340   3.608   8.112   2.884
 1167SOL    HW2 5341   3.566   8.232   2.967
 1168SOL     OW 5342   9.875  10.721   3.109
 1168SOL    HW1 5343   9.955  10.775   3.109
 1168SOL    HW2 5344   9.902  10.638   3.148
 1169SOL     OW 5345  10.802   5.281  12.717
 1169SOL    HW1 5346  10.758   5.365  12.732
 1169SOL    HW2 5347  10.734   5.226  12.678
 1170SOL     OW 5348  11.253   0.804   1.711
 1170SOL    HW1 5349  11.254   0.809   1.806
 1170SOL    HW2 5350  11.334   0.848   1.684
 1171SOL     OW 5351   0.523   3.369   2.159
 1171SOL    HW1 5352   0.541   3.302   2.094
 1171SOL    HW2 5353   0.458   3.426   2.118
 1172SOL     OW 5354   3.392   0.124   1.603
 1172SOL    HW1 5355   3.425   0.198   1.654
 1172SOL    HW2 5356   3.419   0.047   1.653
 1173SOL     OW 5357   1.743   8.495   0.692
 1173SOL    HW1 5358   1.656   8.455   0.687
 1173SOL    HW2 5359   1.727   8.588   0.678
 1174SOL     OW 5360   2.839  12.566   7.199
 1174SOL    HW1 5361   2.881  12.557   7.114
 1174SOL    HW2 5362   2.803  12.478   7.217
 1175SOL     OW 5363   8.473   4.218   7.192
 1175SOL    HW1 5364   8.512   4.131   7.200
 1175SOL    HW2 5365   8.482   4.256   7.279
 1176SOL     OW 5366  13.158   1.832   8.465
 1176SOL    HW1 5367  13.253   1.824   8.470
 1176SOL    HW2 5368  13.129   1.752   8.420
 1177SOL     OW 5369  11.887  14.229  11.111
 1177SOL    HW1 5370  11.801  14.205  11.148
 1177SOL    HW2 5371  11.916  14.302  11.166
 1178SOL     OW 5372   1.999   4.360   8.770
 1178SOL    HW1 5373   1.911   4.321   8.768
 1178SOL    HW2 5374   2.059   4.285   8.774
 1179SOL     OW 5375  12.996   8.368   8.486
 1179SOL    HW1 5376  13.032   8.441   8.436
 1179SOL    HW2 5377  12.903   8.390   8.496
 1180SOL     OW 5378  10.145  11.131   0.602
 1180SOL    HW1 5379  10.072  11.155   0.659
 1180SOL    HW2 5380  10.104  11.097   0.523
 1181SOL     OW 5381   0.855  10.056   0.537
 1181SOL    HW1 5382   0.845   9.976   0.589
 1181SOL    HW2 5383   0.780  10.110   0.560
 1182SOL     OW 5384  14.580  14.068   9.824
 1182SOL    HW1 5385  14.542  14.146   9.785
 1182SOL    HW2 5386  14.527  13.996   9.790
 1183SOL     OW 5387  10.381   8.273   4.406
 1183SOL    HW1 5388  10.287   8.288   4.407
 1183SOL    HW2 5389  10.390   8.181   4.382
 1184SOL     OW 5390   0.334   3.924   4.540
 1184SOL    HW1 5391   0.349   3.854   4.604
 1184SOL    HW2 5392   0.420   3.966   4.530
 1185SOL     OW 5393   7.507  14.182  10.647
 1185SOL    HW1 5394   7.430  14.169  10.592
 1185SOL    HW2 5395   7.517  14.278  10.652
 1186SOL     OW 5396  11.277   3.102  12.229
 1186SOL    HW1 5397  11.200   3.157  12.244
 1186SOL    HW2 5398  11.281   3.045  12.306
 1187SOL     OW 5399   4.053  10.421   0.947
 1187SOL    HW1 5400   4.085  10.512   0.950
 1187SOL    HW2 5401   4.131  10.369   0.932
 1188SOL     OW 5402  12.634  11.732   9.727
 1188SOL    HW1 5403  12.574  11.696   9.791
 1188SOL    HW2 5404  12.578  11.763   9.655
 1189SOL     OW 5405  11.121   2.640   9.353
 1189SOL    HW1 5406  11.172   2.560   9.365
 1189SOL    HW2 5407  11.047   2.631   9.413
 1190SOL     OW 5408  12.085   2.642   2.486
 1190SOL    HW1 5409  12.016   2.674   2.429
 1190SOL    HW2 5410  12.130   2.575   2.435
 1191SOL     OW 5411   9.439   7.560   7.118
 1191SOL    HW1 5412   9.427   7.587   7.209
 1191SOL    HW2 5413   9.372   7.492   7.104
 1192SOL     OW 5414   9.084   5.406   1.322
 1192SOL    HW1 5415   9.022   5.400   1.250
 1192SOL    HW2 5416   9.031   5.393   1.400
 1193SOL     OW 5417   8.629   2.103   0.748
 1193SOL    HW1 5418   8.688   2.133   0.817
 1193SOL    HW2 5419   8.544   2.092   0.791
 1194SOL     OW 5420   5.568  14.133   7.789
 1194SOL    HW1 5421   5.656  14.170   7.795
 1194SOL    HW2 5422   5.516  14.185   7.851
 1195SOL     OW 5423   9.931  11.406   9.771
 1195SOL    HW1 5424   9.933  11.335   9.706
 1195SOL    HW2 5425   9.885  11.477   9.728
 1196SOL     OW 5426   9.607  11.111   9.608
 1196SOL    HW1 5427   9.637  11.194   9.570
 1196SOL    HW2 5428   9.688  11.064   9.630
 1197SOL     OW 5429  14.041   6.252   5.130
 1197SOL    HW1 5430  14.075   6.319   5.070
 1197SOL    HW2 5431  13.974   6.206   5.080
 1198SOL     OW 5432  12.710   0.545  11.712
 1198SOL    HW1 5433  12.648   0.605  11.670
 1198SOL    HW2 5434  12.689   0.459  11.675
 1199SOL     OW 5435   5.039   8.192   5.852
 1199SOL    HW1 5436   4.979   8.182   5.778
 1199SOL    HW2 5437   5.004   8.267   5.901
 1200SOL     OW 5438  12.348  12.856   7.423
 1200SOL    HW1 5439  12.438  12.888   7.415
 1200SOL    HW2 5440  12.332  12.809   7.341
 1201SOL     OW 5441   4.229  14.786   8.439
 1201SOL    HW1 5442   4.250  14.836   8.517
 1201SOL    HW2 5443   4.274  14.831   8.368
 1202SOL     OW 5444   1.216   4.227   2.542
 1202SOL    HW1 5445   1.144   4.165   2.556
 1202SOL    HW2 5446   1.295   4.177   2.560
 1203SOL     OW 5447   8.569   1.887   6.238
 1203SOL    HW1 5448   8.551   1.979   6.258
 1203SOL    HW2 5449   8.491   1.840   6.266
 1204SOL     OW 5450   1.224  10.459   8.684
 1204SOL    HW1 5451   1.201  10.450   8.777
 1204SOL    HW2 5452   1.196  10.548   8.661
 1205SOL     OW 5453   9.988   2.089   7.419
 1205SOL    HW1 5454  10.030   2.138   7.490
 1205SOL    HW2 5455  10.045   2.101   7.344
 1206SOL     OW 5456   9.433   2.233   4.934
 1206SOL    HW1 5457   9.437   2.148   4.890
 1206SOL    HW2 5458   9.459   2.297   4.867
 1207SOL     OW 5459  10.726   8.387   7.773
 1207SOL    HW1 5460  10.689   8.443   7.842
 1207SOL    HW2 5461  10.666   8.398   7.699
 1208SOL     OW 5462   6.241   2.313   0.731
 1208SOL    HW1 5463   6.253   2.225   0.695
 1208SOL    HW2 5464   6.151   2.313   0.765
 1209SOL     OW 5465  12.377   2.399  10.216
 1209SOL    HW1 5466  12.288   2.432  10.222
 1209SOL    HW2 5467  12.431   2.467  10.258
 1210SOL     OW 5468   9.993   9.144   5.299
 1210SOL    HW1 5469   9.920   9.110   5.351
 1210SOL    HW2 5470   9.960   9.224   5.260
 1211SOL     OW 5471   4.102   8.922  12.827
 1211SOL    HW1 5472   4.062   8.900  12.911
 1211SOL    HW2 5473   4.180   8.972  12.850
 1212SOL     OW 5474  11.088   2.365  12.021
 1212SOL    HW1 5475  11.119   2.303  11.956
 1212SOL    HW2 5476  11.012   2.406  11.981
 1213SOL     OW 5477   7.873   6.114  14.293
 1213SOL    HW1 5478   7.797   6.171  14.302
 1213SOL    HW2 5479   7.838   6.032  14.257
 1214SOL     OW 5480   7.659  10.524  12.933
 1214SOL    HW1 5481   7.580  10.530  12.879
 1214SOL    HW2 5482   7.673  10.431  12.945
 1215SOL     OW 5483   4.868   2.013   7.968
 1215SOL    HW1 5484   4.802   2.008   8.037
 1215SOL    HW2 5485   4.823   1.982   7.889
 1216SOL     OW 5486   3.888   6.736  10.698
 1216SOL    HW1 5487   3.899   6.802  10.629
 1216SOL    HW2 5488   3.972   6.734  10.742
 1217SOL     OW 5489  13.790  10.827   5.088
 1217SOL    HW1 5490  13.814  10.756   5.148
 1217SOL    HW2 5491  13.836  10.806   5.006
 1218SOL     OW 5492  14.514   7.053   3.984
 1218SOL    HW1 5493  14.530   7.082   3.894
 1218SOL    HW2 5494  14.436   6.998   3.978
 1219SOL     OW 5495   8.754   6.258   1.738
 1219SOL    HW1 5496   8.787   6.186   1.684
 1219SOL    HW2 5497   8.791   6.337   1.698
 1220SOL     OW 5498   9.900   2.695  14.048
 1220SOL    HW1 5499   9.889   2.692  14.143
 1220SOL    HW2 5500   9.994   2.705  14.035
 1221SOL     OW 5501   8.080  14.252  11.706
 1221SOL    HW1 5502   8.135  14.211  11.639
 1221SOL    HW2 5503   8.006  14.193  11.717
 1222SOL     OW 5504   0.470   4.199   3.954
 1222SOL    HW1 5505   0.400   4.265   3.952
 1222SOL    HW2 5506   0.425   4.117   3.975
 1223SOL     OW 5507  12.875   5.543   1.364
 1223SOL    HW1 5508  12.970   5.532   1.361
 1223SOL    HW2 5509  12.840   5.455   1.346
 1224SOL     OW 5510   8.620   5.298   1.763
 1224SOL    HW1 5511   8.542   5.268   1.811
 1224SOL    HW2 5512   8.586   5.362   1.701
 1225SOL     OW 5513   7.101   7.727   0.543
 1225SOL    HW1 5514   7.035   7.681   0.595
 1225SOL    HW2 5515   7.059   7.744   0.459
 1226SOL     OW 5516   5.242  10.849   0.056
 1226SOL    HW1 5517   5.181  10.913   0.020
 1226SOL    HW2 5518   5.316  10.902   0.087
 1227SOL     OW 5519   6.660   0.256   8.389
 1227SOL    HW1 5520   6.626   0.247   8.300
 1227SOL    HW2 5521   6.635   0.174   8.432
 1228SOL     OW 5522   1.457  12.027  11.237
 1228SOL    HW1 5523   1.366  12.044  11.264
 1228SOL    HW2 5524   1.507  12.099  11.276
 1229SOL     OW 5525   6.877  12.281  13.999
 1229SOL    HW1 5526   6.872  12.229  13.919
 1229SOL    HW2 5527   6.950  12.243  14.048
 1230SOL     OW 5528   1.664  10.569   9.032
 1230SOL    HW1 5529   1.606  10.641   9.056
 1230SOL    HW2 5530   1.609  10.510   8.980
 1231SOL     OW 5531  12.696   2.495   9.909
 1231SOL    HW1 5532  12.699   2.464   9.819
 1231SOL    HW2 5533  12.603   2.490   9.932
 1232SOL     OW 5534   0.641   2.846   4.669
 1232SOL    HW1 5535   0.609   2.777   4.612
 1232SOL    HW2 5536   0.600   2.828   4.754
 1233SOL     OW 5537   9.117   0.035   8.412
 1233SOL    HW1 5538   9.029  14.878   8.396
 1233SOL    HW2 5539   9.104   0.099   8.481
 1234SOL     OW 5540   8.953   7.920   5.481
 1234SOL    HW1 5541   9.000   7.899   5.400
 1234SOL    HW2 5542   8.926   8.011   5.469
 1235SOL     OW 5543   9.087  13.331   0.367
 1235SOL    HW1 5544   8.995  13.346   0.344
 1235SOL    HW2 5545   9.095  13.236   0.372
 1236SOL     OW 5546  13.773   5.098   6.098
 1236SOL    HW1 5547  13.709   5.088   6.168
 1236SOL    HW2 5548  13.759   5.188   6.067
 1237SOL     OW 5549  11.654   0.450  11.678
 1237SOL    HW1 5550  11.687   0.492  11.758
 1237SOL    HW2 5551  11.687   0.360  11.683
 1238SOL     OW 5552   9.569   3.631   7.217
 1238SOL    HW1 5553   9.574   3.723   7.194
 1238SOL    HW2 5554   9.482   3.603   7.188
 1239SOL     OW 5555  11.762  13.565   1.648
 1239SOL    HW1 5556  11.817  13.643   1.635
 1239SOL    HW2 5557  11.675  13.591   1.618
 1240SOL     OW 5558   3.201   5.882  12.537
 1240SOL    HW1 5559   3.175   5.973  12.556
 1240SOL    HW2 5560   3.230   5.885  12.446
 1241SOL     OW 5561   8.697   8.434  10.071
 1241SOL    HW1 5562   8.791   8.416  10.070
 1241SOL    HW2 5563   8.659   8.362  10.020
 1242SOL     OW 5564   6.093   7.315   6.355
 1242SOL    HW1 5565   6.156   7.279   6.418
 1242SOL    HW2 5566   6.008   7.289   6.389
 1243SOL     OW 5567  10.766  13.912  13.718
 1243SOL    HW1 5568  10.820  13.989  13.698
 1243SOL    HW2 5569  10.750  13.918  13.812
 1244SOL     OW 5570   4.905  13.670   3.909
 1244SOL    HW1 5571   4.899  13.749   3.963
 1244SOL    HW2 5572   4.816  13.635   3.908
 1245SOL     OW 5573  13.994   3.441   2.496
 1245SOL    HW1 5574  14.053   3.503   2.539
 1245SOL    HW2 5575  13.932   3.415   2.564
 1246SOL     OW 5576   9.897  14.713   6.334
 1246SOL    HW1 5577   9.870  14.635   6.284
 1246SOL    HW2 5578   9.942  14.768   6.270
 1247SOL     OW 5579   9.261   2.872   2.830
 1247SOL    HW1 5580   9.211   2.823   2.765
 1247SOL    HW2 5581   9.231   2.838   2.915
 1248SOL     OW 5582   8.455  10.049   2.456
 1248SOL    HW1 5583   8.514   9.989   2.500
 1248SOL    HW2 5584   8.416  10.101   2.527
 1249SOL     OW 5585   5.405   6.312   0.465
 1249SOL    HW1 5586   5.500   6.314   0.451
 1249SOL    HW2 5587   5.378   6.225   0.437
 1250SOL     OW 5588   1.999  11.499   9.660
 1250SOL    HW1 5589   2.079  11.493   9.713
 1250SOL    HW2 5590   1.994  11.591   9.634
 1251SOL     OW 5591   6.468   7.371   8.341
 1251SOL    HW1 5592   6.544   7.313   8.337
 1251SOL    HW2 5593   6.402   7.326   8.287
 1252SOL     OW 5594   0.766   1.190   9.756
 1252SOL    HW1 5595   0.672   1.180   9.738
 1252SOL    HW2 5596   0.770   1.207   9.850
 1253SOL     OW 5597   1.488   7.045  14.312
 1253SOL    HW1 5598   1.551   7.004  14.372
 1253SOL    HW2 5599   1.525   7.032  14.225
 1254SOL     OW 5600  12.598   0.091   9.767
 1254SOL    HW1 5601  12.524   0.150   9.773
 1254SOL    HW2 5602  12.559   0.006   9.746
 1255SOL     OW 5603  13.905   2.552  11.620
 1255SOL    HW1 5604  13.864   2.533  11.705
 1255SOL    HW2 5605  13.979   2.610  11.642
 1256SOL     OW 5606   5.365   6.487   1.876
 1256SOL    HW1 5607   5.293   6.446   1.924
 1256SOL    HW2 5608   5.381   6.569   1.922
 1257SOL     OW 5609   2.230   7.640  10.372
 1257SOL    HW1 5610   2.289   7.662  10.299
 1257SOL    HW2 5611   2.261   7.695  10.444
 1258SOL     OW 5612   6.987  12.239   9.351
 1258SOL    HW1 5613   6.939  12.284   9.282
 1258SOL    HW2 5614   7.074  12.278   9.350
 1259SOL     OW 5615   2.173  14.053   4.645
 1259SOL    HW1 5616   2.152  13.962   4.668
 1259SOL    HW2 5617   2.110  14.105   4.695
 1260SOL     OW 5618   6.836   1.274  12.919
 1260SOL    HW1 5619   6.907   1.242  12.976
 1260SOL    HW2 5620   6.839   1.369  12.929
 1261SOL     OW 5621   0.678  14.684   0.320
 1261SOL    HW1 5622   0.717  14.640   0.395
 1261SOL    HW2 5623   0.662  14.774   0.350
 1262SOL     OW 5624  14.167  13.074   6.649
 1262SOL    HW1 5625  14.146  13.006   6.585
 1262SOL    HW2 5626  14.082  13.106   6.679
 1263SOL     OW 5627   5.405   5.452   3.964
 1263SOL    HW1 5628   5.422   5.438   4.057
 1263SOL    HW2 5629   5.348   5.379   3.939
 1264SOL     OW 5630   0.768   7.321   9.965
 1264SOL    HW1 5631   0.692   7.265   9.953
 1264SOL    HW2 5632   0.839   7.260   9.989
 1265SOL     OW 5633   3.446   5.059   5.091
 1265SOL    HW1 5634   3.478   5.015   5.170
 1265SOL    HW2 5635   3.484   5.147   5.095
 1266SOL     OW 5636  13.919   9.276   4.024
 1266SOL    HW1 5637  13.823   9.278   4.018
 1266SOL    HW2 5638  13.948   9.329   3.949
 1267SOL     OW 5639   4.329  10.950   0.107
 1267SOL    HW1 5640   4.333  11.041   0.077
 1267SOL    HW2 5641   4.235  10.931   0.113
 1268SOL     OW 5642   0.172   3.102   1.242
 1268SOL    HW1 5643   0.189   3.196   1.254
 1268SOL    HW2 5644   0.091   3.098   1.192
 1269SOL     OW 5645   0.529   5.445   0.494
 1269SOL    HW1 5646   0.482   5.520   0.460
 1269SOL    HW2 5647   0.510   5.445   0.588
 1270SOL     OW 5648  11.136  12.081   3.383
 1270SOL    HW1 5649  11.196  12.134   3.436
 1270SOL    HW2 5650  11.186  12.061   3.304
 1271SOL     OW 5651   3.208   7.784   9.606
 1271SOL    HW1 5652   3.146   7.712   9.596
 1271SOL    HW2 5653   3.262   7.780   9.527
 1272SOL     OW 5654  12.749   5.924   0.540
 1272SOL    HW1 5655  12.713   5.904   0.626
 1272SOL    HW2 5656  12.806   5.850   0.520
 1273SOL     OW 5657   7.301   6.636  11.985
 1273SOL    HW1 5658   7.338   6.623  11.897
 1273SOL    HW2 5659   7.344   6.568  12.038
 1274SOL     OW 5660   7.404   8.591  13.624
 1274SOL    HW1 5661   7.473   8.561  13.565
 1274SOL    HW2 5662   7.450   8.612  13.706
 1275SOL     OW 5663   1.287   7.541   8.355
 1275SOL    HW1 5664   1.359   7.531   8.293
 1275SOL    HW2 5665   1.212   7.498   8.312
 1276SOL     OW 5666   2.304  14.435   6.838
 1276SOL    HW1 5667   2.316  14.411   6.930
 1276SOL    HW2 5668   2.241  14.371   6.805
 1277SOL     OW 5669   1.845  12.567  11.904
 1277SOL    HW1 5670   1.897  12.492  11.876
 1277SOL    HW2 5671   1.777  12.530  11.959
 1278SOL     OW 5672   1.224   2.056  11.959
 1278SOL    HW1 5673   1.232   1.984  11.896
 1278SOL    HW2 5674   1.131   2.075  11.963
 1279SOL     OW 5675   2.649   3.010  12.152
 1279SOL    HW1 5676   2.637   3.105  12.162
 1279SOL    HW2 5677   2.633   2.975  12.240
 1280SOL     OW 5678   5.137  14.814   2.641
 1280SOL    HW1 5679   5.065  14.860   2.685
 1280SOL    HW2 5680   5.097  14.733   2.610
 1281SOL     OW 5681   0.947   7.972   7.892
 1281SOL    HW1 5682   1.018   7.908   7.884
 1281SOL    HW2 5683   0.946   8.017   7.807
 1282SOL     OW 5684   7.101   2.990  13.010
 1282SOL    HW1 5685   7.011   3.001  13.041
 1282SOL    HW2 5686   7.146   2.946  13.082
 1283SOL     OW 5687   3.152   0.665   1.931
 1283SOL    HW1 5688   3.141   0.759   1.921
 1283SOL    HW2 5689   3.063   0.629   1.927
 1284SOL     OW 5690   2.957   7.402   9.255
 1284SOL    HW1 5691   2.910   7.471   9.208
 1284SOL    HW2 5692   2.993   7.347   9.186
 1285SOL     OW 5693  10.830   5.954   7.209
 1285SOL    HW1 5694  10.767   5.915   7.270
 1285SOL    HW2 5695  10.846   6.042   7.245
 1286SOL     OW 5696   6.272  14.561  11.270
 1286SOL    HW1 5697   6.212  14.601  11.208
 1286SOL    HW2 5698   6.338  14.519  11.215
 1287SOL     OW 5699   3.377   5.335  14.563
 1287SOL    HW1 5700   3.427   5.353  14.642
 1287SOL    HW2 5701   3.391   5.242  14.545
 1288SOL     OW 5702   5.926   9.702   1.129
 1288SOL    HW1 5703   5.875   9.741   1.200
 1288SOL    HW2 5704   5.986   9.642   1.173
 1289SOL     OW 5705   6.135   3.500   6.246
 1289SOL    HW1 5706   6.083   3.469   6.172
 1289SOL    HW2 5707   6.126   3.432   6.313
 1290SOL     OW 5708   8.960   5.704   1.918
 1290SOL    HW1 5709   9.017   5.745   1.983
 1290SOL    HW2 5710   8.922   5.778   1.870
 1291SOL     OW 5711   1.082  10.278  14.774
 1291SOL    HW1 5712   1.051  10.232  14.696
 1291SOL    HW2 5713   1.004  10.318  14.811
 1292SOL     OW 5714   4.073   5.831  14.647
 1292SOL    HW1 5715   4.093   5.779  14.724
 1292SOL    HW2 5716   3.977   5.827  14.640
 1293SOL     OW 5717   4.976   2.260   7.245
 1293SOL    HW1 5718   4.892   2.272   7.200
 1293SOL    HW2 5719   4.965   2.306   7.328
 1294SOL     OW 5720   3.931   1.946   5.402
 1294SOL    HW1 5721   3.918   1.960   5.308
 1294SOL    HW2 5722   4.024   1.925   5.411
 1295SOL     OW 5723  11.068   4.357   3.566
 1295SOL    HW1 5724  10.988   4.359   3.514
 1295SOL    HW2 5725  11.043   4.394   3.651
 1296SOL     OW 5726   4.028   7.645   5.504
 1296SOL    HW1 5727   4.075   7.603   5.576
 1296SOL    HW2 5728   3.974   7.712   5.546
 1297SOL     OW 5729   4.354  13.960   6.031
 1297SOL    HW1 5730   4.327  13.869   6.018
 1297SOL    HW2 5731   4.385  13.988   5.945
 1298SOL     OW 5732  14.542   8.672   0.476
 1298SOL    HW1 5733  14.485   8.624   0.537
 1298SOL    HW2 5734  14.481   8.719   0.419
 1299SOL     OW 5735  10.876   9.135  14.614
 1299SOL    HW1 5736  10.854   9.149  14.706
 1299SOL    HW2 5737  10.845   9.214  14.570
 1300SOL     OW 5738   2.437   1.577  14.109
 1300SOL    HW1 5739   2.437   1.586  14.013
 1300SOL    HW2 5740   2.347   1.594  14.135
 1301SOL     OW 5741   4.057   6.602   2.157
 1301SOL    HW1 5742   4.146   6.567   2.151
 1301SOL    HW2 5743   4.041   6.608   2.251
 1302SOL     OW 5744  13.457   9.359   2.944
 1302SOL    HW1 5745  13.433   9.282   2.997
 1302SOL    HW2 5746  13.448   9.433   3.005
 1303SOL     OW 5747  11.635  13.184  11.034
 1303SOL    HW1 5748  11.637  13.092  11.011
 1303SOL    HW2 5749  11.717  13.199  11.082
 1304SOL     OW 5750  13.317   8.460   7.896
 1304SOL    HW1 5751  13.368   8.399   7.949
 1304SOL    HW2 5752  13.375   8.484   7.824
 1305SOL     OW 5753  12.387  10.400  12.010
 1305SOL    HW1 5754  12.477  10.432  12.003
 1305SOL    HW2 5755  12.342  10.465  12.063
 1306SOL     OW 5756  10.684   4.860   5.366
 1306SOL    HW1 5757  10.769   4.845   5.325
 1306SOL    HW2 5758  10.706   4.888   5.455
 1307SOL     OW 5759  13.449   3.194   5.047
 1307SOL    HW1 5760  13.499   3.267   5.083
 1307SOL    HW2 5761  13.357   3.219   5.058
 1308SOL     OW 5762  12.368  14.060  10.337
 1308SOL    HW1 5763  12.438  14.042  10.400
 1308SOL    HW2 5764  12.296  14.094  10.390
 1309SOL     OW 5765   7.048  12.238   2.671
 1309SOL    HW1 5766   7.079  12.327   2.656
 1309SOL    HW2 5767   7.113  12.183   2.627
 1310SOL     OW 5768  13.552  10.313   2.267
 1310SOL    HW1 5769  13.623  10.300   2.330
 1310SOL    HW2 5770  13.483  10.355   2.319
 1311SOL     OW 5771   2.362  14.733  14.227
 1311SOL    HW1 5772   2.402  14.652  14.259
 1311SOL    HW2 5773   2.350  14.787  14.305
 1312SOL     OW 5774  14.723  12.935   2.812
 1312SOL    HW1 5775  14.762  12.917   2.727
 1312SOL    HW2 5776  14.665  13.009   2.797
 1313SOL     OW 5777   0.574   0.142   3.022
 1313SOL    HW1 5778   0.534   0.168   3.105
 1313SOL    HW2 5779   0.663   0.176   3.026
 1314SOL     OW 5780   5.841   4.404   4.785
 1314SOL    HW1 5781   5.909   4.442   4.729
 1314SOL    HW2 5782   5.850   4.310   4.772
 1315SOL     OW 5783   7.959   9.810  13.429
 1315SOL    HW1 5784   7.900   9.826  13.355
 1315SOL    HW2 5785   7.904   9.821  13.507
 1316SOL     OW 5786   2.291   4.363   0.047
 1316SOL    HW1 5787   2.230   4.387  14.856
 1316SOL    HW2 5788   2.314   4.272   0.028
 1317SOL     OW 5789   0.991   6.861   3.427
 1317SOL    HW1 5790   0.917   6.866   3.366
 1317SOL    HW2 5791   0.989   6.771   3.460
 1318SOL     OW 5792   9.620  14.475   0.946
 1318SOL    HW1 5793   9.543  14.492   1.001
 1318SOL    HW2 5794   9.613  14.540   0.876
 1319SOL     OW 5795   6.888  11.760   4.585
 1319SOL    HW1 5796   6.940  11.825   4.631
 1319SOL    HW2 5797   6.852  11.807   4.509
 1320SOL     OW 5798   0.823  13.373   1.934
 1320SOL    HW1 5799   0.854  13.298   1.985
 1320SOL    HW2 5800   0.902  13.404   1.888
 1321SOL     OW 5801  12.416  13.821   7.075
 1321SOL    HW1 5802  12.372  13.736   7.074
 1321SOL    HW2 5803  12.449  13.830   7.165
 1322SOL     OW 5804   7.475   8.866  12.288
 1322SOL    HW1 5805   7.383   8.861  12.314
 1322SOL    HW2 5806   7.475   8.922  12.210
 1323SOL     OW 5807  10.792  10.462   3.097
 1323SOL    HW1 5808  10.840  10.407   3.158
 1323SOL    HW2 5809  10.712  10.486   3.143
 1324SOL     OW 5810   1.978  13.306   5.603
 1324SOL    HW1 5811   2.060  13.317   5.554
 1324SOL    HW2 5812   1.922  13.255   5.544
 1325SOL     OW 5813   0.138  13.395   2.450
 1325SOL    HW1 5814   0.199  13.360   2.515
 1325SOL    HW2 5815   0.105  13.318   2.404
 1326SOL     OW 5816   2.705  14.684   5.713
 1326SOL    HW1 5817   2.628  14.627   5.701
 1326SOL    HW2 5818   2.721  14.681   5.808
 1327SOL     OW 5819   2.884  12.138   7.632
 1327SOL    HW1 5820   2.932  12.219   7.645
 1327SOL    HW2 5821   2.792  12.165   7.631
 1328SOL     OW 5822   7.610   7.206  12.938
 1328SOL    HW1 5823   7.608   7.184  12.845
 1328SOL    HW2 5824   7.702   7.226  12.955
 1329SOL     OW 5825  11.139  11.037   4.754
 1329SOL    HW1 5826  11.201  11.044   4.681
 1329SOL    HW2 5827  11.170  11.102   4.818
 1330SOL     OW 5828   0.180   1.305   6.229
 1330SOL    HW1 5829   0.156   1.237   6.292
 1330SOL    HW2 5830   0.167   1.387   6.276
 1331SOL     OW 5831   5.228   2.252  10.048
 1331SOL    HW1 5832   5.320   2.245  10.023
 1331SOL    HW2 5833   5.212   2.175  10.102
 1332SOL     OW 5834  13.998   3.448   4.476
 1332SOL    HW1 5835  13.972   3.356   4.476
 1332SOL    HW2 5836  13.924   3.494   4.515
 1333SOL     OW 5837   1.161  12.712  11.019
 1333SOL    HW1 5838   1.222  12.643  10.996
 1333SOL    HW2 5839   1.127  12.687  11.104
 1334SOL     OW 5840   7.867   2.610  14.585
 1334SOL    HW1 5841   7.935   2.591  14.651
 1334SOL    HW2 5842   7.787   2.620  14.636
 1335SOL     OW 5843  10.399   7.241   7.966
 1335SOL    HW1 5844  10.483   7.285   7.951
 1335SOL    HW2 5845  10.334   7.300   7.928
 1336SOL     OW 5846   0.757   1.004   5.046
 1336SOL    HW1 5847   0.839   1.020   4.999
 1336SOL    HW2 5848   0.769   0.918   5.087
 1337SOL     OW 5849   9.318   0.395   3.585
 1337SOL    HW1 5850   9.280   0.472   3.543
 1337SOL    HW2 5851   9.253   0.326   3.573
 1338SOL     OW 5852  12.826  11.874   6.582
 1338SOL    HW1 5853  12.892  11.849   6.517
 1338SOL    HW2 5854  12.834  11.970   6.587
 1339SOL     OW 5855  11.315  13.604   6.442
 1339SOL    HW1 5856  11.223  13.580   6.428
 1339SOL    HW2 5857  11.362  13.562   6.370
 1340SOL     OW 5858   4.801   5.317   9.587
 1340SOL    HW1 5859   4.797   5.233   9.542
 1340SOL    HW2 5860   4.840   5.377   9.524
 1341SOL     OW 5861  13.528   5.555  10.552
 1341SOL    HW1 5862  13.568   5.534  10.468
 1341SOL    HW2 5863  13.594   5.530  10.617
 1342SOL     OW 5864   2.844  13.368   7.831
 1342SOL    HW1 5865   2.920  13.313   7.851
 1342SOL    HW2 5866   2.784  13.310   7.784
 1343SOL     OW 5867   4.228   9.998   8.854
 1343SOL    HW1 5868   4.323   9.990   8.848
 1343SOL    HW2 5869   4.198   9.910   8.877
 1344SOL     OW 5870   6.884  10.163  10.700
 1344SOL    HW1 5871   6.845  10.198  10.780
 1344SOL    HW2 5872   6.962  10.217  10.686
 1345SOL     OW 5873   4.694  11.248   5.537
 1345SOL    HW1 5874   4.647  11.271   5.457
 1345SOL    HW2 5875   4.727  11.160   5.520
 1346SOL     OW 5876   9.198   5.779   4.269
 1346SOL    HW1 5877   9.283   5.805   4.233
 1346SOL    HW2 5878   9.213   5.692   4.306
 1347SOL     OW 5879  10.972   6.510   8.998
 1347SOL    HW1 5880  11.066   6.508   9.015
 1347SOL    HW2 5881  10.961   6.580   8.933
 1348SOL     OW 5882   9.477   0.576   5.815
 1348SOL    HW1 5883   9.504   0.663   5.783
 1348SOL    HW2 5884   9.467   0.524   5.736
 1349SOL     OW 5885   4.515   8.415  10.088
 1349SOL    HW1 5886   4.447   8.433  10.154
 1349SOL    HW2 5887   4.467   8.410  10.006
 1350SOL     OW 5888   6.479   9.752   4.054
 1350SOL    HW1 5889   6.570   9.782   4.049
 1350SOL    HW2 5890   6.485   9.658   4.071
 1351SOL     OW 5891   1.678   3.240   9.908
 1351SOL    HW1 5892   1.605   3.289   9.946
 1351SOL    HW2 5893   1.756   3.279   9.947
 1352SOL     OW 5894  11.572   7.417   6.958
 1352SOL    HW1 5895  11.497   7.418   7.018
 1352SOL    HW2 5896  11.642   7.375   7.007
 1353SOL     OW 5897   3.634   0.529   5.549
 1353SOL    HW1 5898   3.698   0.469   5.513
 1353SOL    HW2 5899   3.645   0.522   5.644
 1354SOL     OW 5900  11.836   3.857   8.538
 1354SOL    HW1 5901  11.814   3.895   8.453
 1354SOL    HW2 5902  11.875   3.772   8.518
 1355SOL     OW 5903   0.840   7.602   5.922
 1355SOL    HW1 5904   0.929   7.582   5.894
 1355SOL    HW2 5905   0.785   7.537   5.878
 1356SOL     OW 5906   2.913   7.179  11.264
 1356SOL    HW1 5907   2.928   7.211  11.353
 1356SOL    HW2 5908   2.832   7.129  11.270
 1357SOL     OW 5909   6.144   7.968   5.889
 1357SOL    HW1 5910   6.138   8.062   5.870
 1357SOL    HW2 5911   6.236   7.954   5.909
 1358SOL     OW 5912   1.290   2.604  11.108
 1358SOL    HW1 5913   1.274   2.677  11.168
 1358SOL    HW2 5914   1.383   2.585  11.118
 1359SOL     OW 5915  10.668   6.396   7.533
 1359SOL    HW1 5916  10.715   6.349   7.601
 1359SOL    HW2 5917  10.731   6.462   7.502
 1360SOL     OW 5918   2.698   3.220   7.092
 1360SOL    HW1 5919   2.678   3.218   7.186
 1360SOL    HW2 5920   2.691   3.313   7.068
 1361SOL     OW 5921   7.195   0.341  11.814
 1361SOL    HW1 5922   7.223   0.426  11.848
 1361SOL    HW2 5923   7.100   0.344  11.816
 1362SOL     OW 5924   5.744   0.586  13.314
 1362SOL    HW1 5925   5.655   0.577  13.349
 1362SOL    HW2 5926   5.748   0.676  13.282
 1363SOL     OW 5927   1.613  14.344   0.740
 1363SOL    HW1 5928   1.703  14.338   0.706
 1363SOL    HW2 5929   1.579  14.254   0.732
 1364SOL     OW 5930   8.915   6.795   3.589
 1364SOL    HW1 5931   8.916   6.709   3.547
 1364SOL    HW2 5932   8.845   6.843   3.545
 1365SOL     OW 5933   0.060  11.728   5.453
 1365SOL    HW1 5934   0.102  11.800   5.405
 1365SOL    HW2 5935   0.109  11.650   5.427
 1366SOL     OW 5936   9.163  13.121   9.294
 1366SOL    HW1 5937   9.167  13.198   9.350
 1366SOL    HW2 5938   9.071  13.097   9.291
 1367SOL     OW 5939   7.143   7.065   4.927
 1367SOL    HW1 5940   7.124   7.015   4.848
 1367SOL    HW2 5941   7.237   7.083   4.921
 1368SOL     OW 5942   5.503  11.044  13.813
 1368SOL    HW1 5943   5.573  11.109  13.809
 1368SOL    HW2 5944   5.452  11.058  13.733
 1369SOL     OW 5945  13.074   4.564   2.833
 1369SOL    HW1 5946  13.041   4.575   2.744
 1369SOL    HW2 5947  13.083   4.653   2.867
 1370SOL     OW 5948   3.407   1.333  13.243
 1370SOL    HW1 5949   3.433   1.401  13.306
 1370SOL    HW2 5950   3.489   1.305  13.202
 1371SOL     OW 5951   7.966  13.496   5.411
 1371SOL    HW1 5952   8.054  13.470   5.441
 1371SOL    HW2 5953   7.915  13.507   5.491
 1372SOL     OW 5954   1.586   0.500   5.738
 1372SOL    HW1 5955   1.512   0.544   5.697
 1372SOL    HW2 5956   1.642   0.571   5.769
 1373SOL     OW 5957  13.584  13.150   9.748
 1373SOL    HW1 5958  13.497  13.123   9.776
 1373SOL    HW2 5959  13.632  13.067   9.737
 1374SOL     OW 5960  10.345   1.415   7.206
 1374SOL    HW1 5961  10.303   1.330   7.195
 1374SOL    HW2 5962  10.340   1.433   7.300
 1375SOL     OW 5963   4.009   7.187  13.111
 1375SOL    HW1 5964   3.935   7.248  13.112
 1375SOL    HW2 5965   4.084   7.239  13.141
 1376SOL     OW 5966  12.787   6.215   7.678
 1376SOL    HW1 5967  12.859   6.276   7.660
 1376SOL    HW2 5968  12.770   6.173   7.593
 1377SOL     OW 5969  13.983   3.017   6.858
 1377SOL    HW1 5970  14.078   3.003   6.862
 1377SOL    HW2 5971  13.958   3.035   6.949
 1378SOL     OW 5972  13.412   7.375   4.332
 1378SOL    HW1 5973  13.455   7.452   4.295
 1378SOL    HW2 5974  13.484   7.314   4.350
 1379SOL     OW 5975   6.549   2.583  11.205
 1379SOL    HW1 5976   6.502   2.585  11.288
 1379SOL    HW2 5977   6.640   2.569  11.229
 1380SOL     OW 5978  11.610  12.463   5.786
 1380SOL    HW1 5979  11.524  12.454   5.828
 1380SOL    HW2 5980  11.609  12.397   5.716
 1381SOL     OW 5981  11.309   2.168   2.500
 1381SOL    HW1 5982  11.367   2.104   2.544
 1381SOL    HW2 5983  11.221   2.133   2.515
 1382SOL     OW 5984   7.769   7.808   3.890
 1382SOL    HW1 5985   7.720   7.832   3.969
 1382SOL    HW2 5986   7.745   7.717   3.873
 1383SOL     OW 5987  10.362  11.036   8.567
 1383SOL    HW1 5988  10.375  11.033   8.662
 1383SOL    HW2 5989  10.359  11.129   8.546
 1384SOL     OW 5990   9.394   9.314   8.298
 1384SOL    HW1 5991   9.451   9.323   8.222
 1384SOL    HW2 5992   9.333   9.387   8.293
 1385SOL     OW 5993   7.758  10.276   0.951
 1385SOL    HW1 5994   7.827  10.262   1.015
 1385SOL    HW2 5995   7.803  10.308   0.873
 1386SOL     OW 5996   8.200  13.616   2.837
 1386SOL    HW1 5997   8.108  13.611   2.865
 1386SOL    HW2 5998   8.220  13.709   2.839
 1387SOL     OW 5999   1.204   2.698   2.568
 1387SOL    HW1 6000   1.129   2.675   2.514
 1387SOL    HW2 6001   1.204   2.793   2.571
 1388SOL     OW 6002   3.236  13.341  12.888
 1388SOL    HW1 6003   3.205  13.278  12.823
 1388SOL    HW2 6004   3.157  13.367  12.936
 1389SOL     OW 6005  11.205   7.128   3.607
 1389SOL    HW1 6006  11.279   7.157   3.553
 1389SOL    HW2 6007  11.166   7.055   3.559
 1390SOL     OW 6008  13.491   8.649   8.526
 1390SOL    HW1 6009  13.573   8.689   8.557
 1390SOL    HW2 6010  13.518   8.564   8.491
 1391SOL     OW 6011  13.443   7.143   1.472
 1391SOL    HW1 6012  13.377   7.103   1.529
 1391SOL    HW2 6013  13.494   7.070   1.438
 1392SOL     OW 6014   2.688   3.602   7.366
 1392SOL    HW1 6015   2.659   3.608   7.274
 1392SOL    HW2 6016   2.633   3.533   7.404
 1393SOL     OW 6017  14.078   5.763   8.197
 1393SOL    HW1 6018  14.083   5.780   8.102
 1393SOL    HW2 6019  14.156   5.806   8.232
 1394SOL     OW 6020  10.861  11.340   5.339
 1394SOL    HW1 6021  10.896  11.406   5.279
 1394SOL    HW2 6022  10.771  11.366   5.354
 1395SOL     OW 6023  10.001   1.339   2.178
 1395SOL    HW1 6024   9.985   1.249   2.207
 1395SOL    HW2 6025  10.082   1.364   2.222
 1396SOL     OW 6026  11.192   5.201   6.971
 1396SOL    HW1 6027  11.250   5.132   7.006
 1396SOL    HW2 6028  11.246   5.247   6.907
 1397SOL     OW 6029  14.105   1.124   8.095
 1397SOL    HW1 6030  14.126   1.030   8.098
 1397SOL    HW2 6031  14.153   1.156   8.018
 1398SOL     OW 6032   9.635  14.011   7.549
 1398SOL    HW1 6033   9.557  13.970   7.513
 1398SOL    HW2 6034   9.708  13.959   7.515
 1399SOL     OW 6035   7.688   0.639   0.189
 1399SOL    HW1 6036   7.628   0.568   0.168
 1399SOL    HW2 6037   7.671   0.659   0.281
 1400SOL     OW 6038   1.129  12.814  12.064
 1400SOL    HW1 6039   1.057  12.858  12.109
 1400SOL    HW2 6040   1.103  12.721  12.062
 1401SOL     OW 6041  10.672   4.265   3.729
 1401SOL    HW1 6042  10.660   4.287   3.636
 1401SOL    HW2 6043  10.617   4.328   3.776
 1402SOL     OW 6044   1.381   7.148   3.291
 1402SOL    HW1 6045   1.425   7.207   3.230
 1402SOL    HW2 6046   1.307   7.198   3.324
 1403SOL     OW 6047  10.738  12.721   7.132
 1403SOL    HW1 6048  10.658  12.712   7.184
 1403SOL    HW2 6049  10.765  12.812   7.145
 1404SOL     OW 6050   3.823  11.346   1.001
 1404SOL    HW1 6051   3.859  11.404   0.933
 1404SOL    HW2 6052   3.734  11.379   1.015
 1405SOL     OW 6053   4.599   6.200   1.998
 1405SOL    HW1 6054   4.519   6.219   2.047
 1405SOL    HW2 6055   4.612   6.276   1.942
 1406SOL     OW 6056   4.452   0.634  11.708
 1406SOL    HW1 6057   4.460   0.553  11.757
 1406SOL    HW2 6058   4.378   0.679  11.748
 1407SOL     OW 6059  13.351   1.856   1.236
 1407SOL    HW1 6060  13.445   1.855   1.251
 1407SOL    HW2 6061  13.342   1.869   1.142
 1408SOL     OW 6062   7.442   9.144   8.642
 1408SOL    HW1 6063   7.425   9.203   8.715
 1408SOL    HW2 6064   7.359   9.138   8.596
 1409SOL     OW 6065   7.036   4.578  11.134
 1409SOL    HW1 6066   6.958   4.587  11.079
 1409SOL    HW2 6067   7.018   4.635  11.210
 1410SOL     OW 6068   8.388  14.634   8.897
 1410SOL    HW1 6069   8.336  14.560   8.931
 1410SOL    HW2 6070   8.325  14.706   8.891
 1411SOL     OW 6071  12.520   2.434   7.649
 1411SOL    HW1 6072  12.554   2.398   7.566
 1411SOL    HW2 6073  12.552   2.373   7.715
 1412SOL     OW 6074   7.372  13.084   3.636
 1412SOL    HW1 6075   7.306  13.128   3.689
 1412SOL    HW2 6076   7.409  13.153   3.581
 1413SOL     OW 6077   5.694   1.475   3.535
 1413SOL    HW1 6078   5.772   1.508   3.492
 1413SOL    HW2 6079   5.625   1.536   3.510
 1414SOL     OW 6080   2.496   5.301   5.660
 1414SOL    HW1 6081   2.491   5.338   5.748
 1414SOL    HW2 6082   2.457   5.214   5.668
 1415SOL     OW 6083   0.274   7.861   3.236
 1415SOL    HW1 6084   0.322   7.819   3.307
 1415SOL    HW2 6085   0.231   7.789   3.189
 1416SOL     OW 6086   8.162  12.796   4.370
 1416SOL    HW1 6087   8.214  12.810   4.291
 1416SOL    HW2 6088   8.189  12.866   4.429
 1417SOL     OW 6089  10.399   9.854   4.749
 1417SOL    HW1 6090  10.384   9.762   4.771
 1417SOL    HW2 6091  10.311   9.892   4.744
 1418SOL     OW 6092  10.190  10.331   1.541
 1418SOL    HW1 6093  10.232  10.382   1.610
 1418SOL    HW2 6094  10.096  10.341   1.557
 1419SOL     OW 6095   1.786   2.470   3.898
 1419SOL    HW1 6096   1.840   2.398   3.864
 1419SOL    HW2 6097   1.739   2.503   3.821
 1420SOL     OW 6098   8.560   1.131   6.711
 1420SOL    HW1 6099   8.494   1.075   6.669
 1420SOL    HW2 6100   8.510   1.206   6.742
 1421SOL     OW 6101  14.445   5.670   1.587
 1421SOL    HW1 6102  14.385   5.655   1.660
 1421SOL    HW2 6103  14.515   5.606   1.600
 1422SOL     OW 6104  11.664   6.224   4.463
 1422SOL    HW1 6105  11.688   6.252   4.375
 1422SOL    HW2 6106  11.589   6.278   4.486
 1423SOL     OW 6107   9.415  14.272   6.541
 1423SOL    HW1 6108   9.340  14.277   6.482
 1423SOL    HW2 6109   9.382  14.303   6.625
 1424SOL     OW 6110   2.588  12.276   4.769
 1424SOL    HW1 6111   2.567  12.297   4.860
 1424SOL    HW2 6112   2.581  12.360   4.723
 1425SOL     OW 6113   2.352   7.417   7.903
 1425SOL    HW1 6114   2.331   7.457   7.819
 1425SOL    HW2 6115   2.383   7.490   7.957
 1426SOL     OW 6116   7.884  12.680   8.348
 1426SOL    HW1 6117   7.868  12.707   8.438
 1426SOL    HW2 6118   7.974  12.649   8.348
 1427SOL     OW 6119  14.339   9.763  14.865
 1427SOL    HW1 6120  14.361   9.798  14.779
 1427SOL    HW2 6121  14.366   9.833   0.047
 1428SOL     OW 6122  14.546   6.381  10.335
 1428SOL    HW1 6123  14.604   6.399  10.409
 1428SOL    HW2 6124  14.568   6.448  10.270
 1429SOL     OW 6125   0.135   5.587   6.464
 1429SOL    HW1 6126   0.190   5.510   6.478
 1429SOL    HW2 6127   0.066   5.579   6.531
 1430SOL     OW 6128   3.450   9.237   7.038
 1430SOL    HW1 6129   3.471   9.154   6.994
 1430SOL    HW2 6130   3.485   9.226   7.126
 1431SOL     OW 6131  10.346  13.700  10.596
 1431SOL    HW1 6132  10.420  13.751  10.625
 1431SOL    HW2 6133  10.269  13.744  10.633
 1432SOL     OW 6134   0.065  14.860   0.573
 1432SOL    HW1 6135   0.012   0.043   0.623
 1432SOL    HW2 6136   0.044  14.879   0.482
 1433SOL     OW 6137  14.237   3.879   3.633
 1433SOL    HW1 6138  14.293   3.903   3.707
 1433SOL    HW2 6139  14.204   3.792   3.656
 1434SOL     OW 6140  13.966  13.754  14.645
 1434SOL    HW1 6141  14.013  13.838  14.657
 1434SOL    HW2 6142  13.993  13.701  14.720
 1435SOL     OW 6143   1.318   0.144   1.986
 1435SOL    HW1 6144   1.323   0.049   1.971
 1435SOL    HW2 6145   1.394   0.163   2.041
 1436SOL     OW 6146   8.494   3.943   8.579
 1436SOL    HW1 6147   8.471   4.033   8.557
 1436SOL    HW2 6148   8.476   3.893   8.499
 1437SOL     OW 6149   1.492   7.939   4.542
 1437SOL    HW1 6150   1.430   7.891   4.488
 1437SOL    HW2 6151   1.441   8.011   4.579
 1438SOL     OW 6152  10.809  12.068   0.992
 1438SOL    HW1 6153  10.892  12.023   0.973
 1438SOL    HW2 6154  10.746  11.997   1.005
 1439SOL     OW 6155   5.590   2.528   7.013
 1439SOL    HW1 6156   5.534   2.600   6.984
 1439SOL    HW2 6157   5.574   2.522   7.107
 1440SOL     OW 6158  14.264  13.214  13.939
 1440SOL    HW1 6159  14.241  13.150  14.006
 1440SOL    HW2 6160  14.329  13.271  13.980
 1441SOL     OW 6161   0.373   6.025  12.758
 1441SOL    HW1 6162   0.308   5.986  12.817
 1441SOL    HW2 6163   0.439   5.957  12.747
 1442SOL     OW 6164  11.594   1.884  11.272
 1442SOL    HW1 6165  11.650   1.874  11.349
 1442SOL    HW2 6166  11.525   1.819  11.285
 1443SOL     OW 6167   8.784   0.429  10.905
 1443SOL    HW1 6168   8.848   0.439  10.975
 1443SOL    HW2 6169   8.711   0.486  10.931
 1444SOL     OW 6170   4.130   8.189  10.104
 1444SOL    HW1 6171   4.098   8.278  10.116
 1444SOL    HW2 6172   4.051   8.136  10.093
 1445SOL     OW 6173  12.236   6.351   6.823
 1445SOL    HW1 6174  12.228   6.399   6.740
 1445SOL    HW2 6175  12.243   6.419   6.890
 1446SOL     OW 6176   0.554   5.062   5.935
 1446SOL    HW1 6177   0.496   4.995   5.971
 1446SOL    HW2 6178   0.502   5.106   5.867
 1447SOL     OW 6179   7.545   5.841   1.059
 1447SOL    HW1 6180   7.483   5.774   1.087
 1447SOL    HW2 6181   7.611   5.842   1.129
 1448SOL     OW 6182   2.382   7.979   8.582
 1448SOL    HW1 6183   2.426   7.896   8.563
 1448SOL    HW2 6184   2.302   7.977   8.530
 1449SOL     OW 6185  12.004  11.779   8.640
 1449SOL    HW1 6186  12.091  11.760   8.607
 1449SOL    HW2 6187  12.015  11.788   8.735
 1450SOL     OW 6188   3.360  11.936  14.329
 1450SOL    HW1 6189   3.278  11.903  14.367
 1450SOL    HW2 6190   3.334  11.970  14.243
 1451SOL     OW 6191   8.345  10.120   3.348
 1451SOL    HW1 6192   8.269  10.137   3.403
 1451SOL    HW2 6193   8.354  10.025   3.349
 1452SOL     OW 6194  11.581   0.779   4.029
 1452SOL    HW1 6195  11.654   0.790   4.090
 1452SOL    HW2 6196  11.553   0.688   4.042
 1453SOL     OW 6197   4.122   4.050   6.548
 1453SOL    HW1 6198   4.052   4.115   6.561
 1453SOL    HW2 6199   4.140   4.018   6.637
 1454SOL     OW 6200  10.218  13.578  10.964
 1454SOL    HW1 6201  10.272  13.571  10.886
 1454SOL    HW2 6202  10.269  13.632  11.024
 1455SOL     OW 6203   9.893   3.647  12.575
 1455SOL    HW1 6204   9.941   3.588  12.633
 1455SOL    HW2 6205   9.944   3.647  12.493
 1456SOL     OW 6206   0.162   8.744  14.081
 1456SOL    HW1 6207   0.123   8.730  13.995
 1456SOL    HW2 6208   0.253   8.767  14.063
 1457SOL     OW 6209   8.262  12.487   4.055
 1457SOL    HW1 6210   8.247  12.497   4.148
 1457SOL    HW2 6211   8.296  12.572   4.026
 1458SOL     OW 6212   8.277   7.890   9.685
 1458SOL    HW1 6213   8.357   7.895   9.738
 1458SOL    HW2 6214   8.293   7.950   9.612
 1459SOL     OW 6215   5.641  12.099   6.279
 1459SOL    HW1 6216   5.689  12.095   6.362
 1459SOL    HW2 6217   5.556  12.060   6.299
 1460SOL     OW 6218   5.577   5.589   5.183
 1460SOL    HW1 6219   5.635   5.653   5.224
 1460SOL    HW2 6220   5.489   5.620   5.203
 1461SOL     OW 6221   2.875  12.006  14.028
 1461SOL    HW1 6222   2.856  11.993  13.935
 1461SOL    HW2 6223   2.821  11.941  14.073
 1462SOL     OW 6224   8.874   8.712  14.727
 1462SOL    HW1 6225   8.849   8.648  14.794
 1462SOL    HW2 6226   8.907   8.787  14.777
 1463SOL     OW 6227  14.537   0.705   9.631
 1463SOL    HW1 6228  14.501   0.642   9.568
 1463SOL    HW2 6229  14.526   0.790   9.589
 1464SOL     OW 6230   5.830  14.660   5.403
 1464SOL    HW1 6231   5.811  14.585   5.346
 1464SOL    HW2 6232   5.905  14.631   5.456
 1465SOL     OW 6233   8.534   1.518  10.262
 1465SOL    HW1 6234   8.454   1.525  10.210
 1465SOL    HW2 6235   8.520   1.576  10.337
 1466SOL     OW 6236   5.708  10.138   5.894
 1466SOL    HW1 6237   5.770  10.066   5.890
 1466SOL    HW2 6238   5.750  10.203   5.950
 1467SOL     OW 6239  14.457  11.822   4.836
 1467SOL    HW1 6240  14.529  11.802   4.897
 1467SOL    HW2 6241  14.423  11.737   4.810
 1468SOL     OW 6242  13.756   1.512  13.150
 1468SOL    HW1 6243  13.846   1.480  13.143
 1468SOL    HW2 6244  13.746   1.572  13.076
 1469SOL     OW 6245   5.257   5.213  10.950
 1469SOL    HW1 6246   5.226   5.158  11.022
 1469SOL    HW2 6247   5.196   5.287  10.949
 1470SOL     OW 6248  10.419  12.278  13.136
 1470SOL    HW1 6249  10.468  12.264  13.055
 1470SOL    HW2 6250  10.419  12.373  13.147
 1471SOL     OW 6251   6.476  10.960   6.180
 1471SOL    HW1 6252   6.401  10.933   6.233
 1471SOL    HW2 6253   6.525  10.879   6.165
 1472SOL     OW 6254   1.078   0.743   3.982
 1472SOL    HW1 6255   1.115   0.817   3.934
 1472SOL    HW2 6256   1.150   0.679   3.987
 1473SOL     OW 6257  13.837   7.731   7.645
 1473SOL    HW1 6258  13.910   7.676   7.675
 1473SOL    HW2 6259  13.791   7.756   7.725
 1474SOL     OW 6260  14.088   8.189   0.659
 1474SOL    HW1 6261  13.995   8.184   0.684
 1474SOL    HW2 6262  14.117   8.098   0.657
 1475SOL     OW 6263   8.343   3.564   8.418
 1475SOL    HW1 6264   8.371   3.475   8.438
 1475SOL    HW2 6265   8.308   3.559   8.329
 1476SOL     OW 6266   3.642  13.469  12.018
 1476SOL    HW1 6267   3.594  13.386  12.009
 1476SOL    HW2 6268   3.695  13.457  12.097
 1477SOL     OW 6269   7.281   7.065  12.410
 1477SOL    HW1 6270   7.293   6.974  12.382
 1477SOL    HW2 6271   7.192   7.068  12.446
 1478SOL     OW 6272  12.227   5.643   9.290
 1478SOL    HW1 6273  12.298   5.663   9.351
 1478SOL    HW2 6274  12.250   5.558   9.253
 1479SOL     OW 6275   7.320   0.080   9.579
 1479SOL    HW1 6276   7.394   0.037   9.536
 1479SOL    HW2 6277   7.328   0.056   9.671
 1480SOL     OW 6278  14.406  13.117   8.476
 1480SOL    HW1 6279  14.399  13.109   8.572
 1480SOL    HW2 6280  14.440  13.032   8.448
 1481SOL     OW 6281   7.332   1.412   7.024
 1481SOL    HW1 6282   7.277   1.488   7.006
 1481SOL    HW2 6283   7.277   1.336   7.001
 1482SOL     OW 6284  12.110   0.084   8.908
 1482SOL    HW1 6285  12.021   0.087   8.873
 1482SOL    HW2 6286  12.157   0.152   8.859
 1483SOL     OW 6287   3.728   2.954   0.916
 1483SOL    HW1 6288   3.805   2.910   0.952
 1483SOL    HW2 6289   3.654   2.912   0.961
 1484SOL     OW 6290   5.050   0.426  14.125
 1484SOL    HW1 6291   5.116   0.429  14.055
 1484SOL    HW2 6292   5.041   0.333  14.145
 1485SOL     OW 6293   1.091   2.896  11.018
 1485SOL    HW1 6294   1.131   2.909  11.104
 1485SOL    HW2 6295   1.164   2.886  10.957
 1486SOL     OW 6296   0.738  11.481   9.945
 1486SOL    HW1 6297   0.829  11.454   9.939
 1486SOL    HW2 6298   0.688  11.399   9.945
 1487SOL     OW 6299  11.683  14.444   3.545
 1487SOL    HW1 6300  11.695  14.397   3.628
 1487SOL    HW2 6301  11.771  14.470   3.518
 1488SOL     OW 6302   3.478   9.540   4.295
 1488SOL    HW1 6303   3.412   9.472   4.288
 1488SOL    HW2 6304   3.430   9.617   4.328
 1489SOL     OW 6305   8.274   5.464  11.929
 1489SOL    HW1 6306   8.349   5.438  11.874
 1489SOL    HW2 6307   8.293   5.425  12.014
 1490SOL     OW 6308   7.521   5.340   2.959
 1490SOL    HW1 6309   7.583   5.270   2.938
 1490SOL    HW2 6310   7.503   5.330   3.052
 1491SOL     OW 6311  11.536   2.474   5.680
 1491SOL    HW1 6312  11.563   2.555   5.637
 1491SOL    HW2 6313  11.441   2.473   5.672
 1492SOL     OW 6314   7.952   8.233  12.168
 1492SOL    HW1 6315   8.014   8.297  12.134
 1492SOL    HW2 6316   7.990   8.206  12.252
 1493SOL     OW 6317  13.063   3.960   3.396
 1493SOL    HW1 6318  12.981   3.996   3.431
 1493SOL    HW2 6319  13.132   3.999   3.450
 1494SOL     OW 6320  10.260  11.565   5.900
 1494SOL    HW1 6321  10.239  11.485   5.949
 1494SOL    HW2 6322  10.322  11.611   5.956
 1495SOL     OW 6323   0.572  12.774   6.273
 1495SOL    HW1 6324   0.539  12.762   6.362
 1495SOL    HW2 6325   0.614  12.860   6.275
 1496SOL     OW 6326   2.406  13.214   2.929
 1496SOL    HW1 6327   2.360  13.239   2.849
 1496SOL    HW2 6328   2.365  13.132   2.956
 1497SOL     OW 6329   5.308   4.944   0.043
 1497SOL    HW1 6330   5.255   5.011   0.001
 1497SOL    HW2 6331   5.329   4.882  14.853
 1498SOL     OW 6332  10.158   8.566   4.962
 1498SOL    HW1 6333  10.104   8.607   4.895
 1498SOL    HW2 6334  10.137   8.473   4.956
 1499SOL     OW 6335  12.156   6.145   2.176
 1499SOL    HW1 6336  12.184   6.053   2.182
 1499SOL    HW2 6337  12.063   6.143   2.197
 1500SOL     OW 6338   3.753   5.406   4.856
 1500SOL    HW1 6339   3.736   5.500   4.867
 1500SOL    HW2 6340   3.822   5.387   4.920
 1501SOL     OW 6341   0.527  14.021   3.429
 1501SOL    HW1 6342   0.518  14.114   3.451
 1501SOL    HW2 6343   0.439  13.993   3.405
 1502SOL     OW 6344   2.414  14.012   2.921
 1502SOL    HW1 6345   2.391  14.002   3.013
 1502SOL    HW2 6346   2.507  14.032   2.921
 1503SOL     OW 6347  12.081  13.373  11.610
 1503SOL    HW1 6348  12.051  13.444  11.553
 1503SOL    HW2 6349  12.052  13.293  11.566
 1504SOL     OW 6350   6.837   5.272  13.954
 1504SOL    HW1 6351   6.855   5.354  13.999
 1504SOL    HW2 6352   6.920   5.248  13.914
 1505SOL     OW 6353   2.680  11.192   4.862
 1505SOL    HW1 6354   2.677  11.272   4.809
 1505SOL    HW2 6355   2.619  11.209   4.934
 1506SOL     OW 6356   5.535   1.362   4.241
 1506SOL    HW1 6357   5.621   1.326   4.221
 1506SOL    HW2 6358   5.492   1.371   4.156
 1507SOL     OW 6359  10.540  10.829   4.950
 1507SOL    HW1 6360  10.542  10.841   4.855
 1507SOL    HW2 6361  10.564  10.915   4.985
 1508SOL     OW 6362   6.568  11.854  13.513
 1508SOL    HW1 6363   6.613  11.770  13.505
 1508SOL    HW2 6364   6.476  11.830  13.528
 1509SOL     OW 6365  12.957   3.779   2.461
 1509SOL    HW1 6366  12.915   3.693   2.467
 1509SOL    HW2 6367  13.047   3.760   2.435
 1510SOL     OW 6368   7.796   4.121   4.344
 1510SOL    HW1 6369   7.891   4.121   4.332
 1510SOL    HW2 6370   7.776   4.210   4.375
 1511SOL     OW 6371   2.530   8.771   4.501
 1511SOL    HW1 6372   2.467   8.842   4.487
 1511SOL    HW2 6373   2.606   8.815   4.538
 1512SOL     OW 6374   1.485  10.651   3.844
 1512SOL    HW1 6375   1.555  10.624   3.903
 1512SOL    HW2 6376   1.508  10.741   3.821
 1513SOL     OW 6377   9.852   0.708   0.633
 1513SOL    HW1 6378   9.802   0.694   0.714
 1513SOL    HW2 6379   9.840   0.801   0.614
 1514SOL     OW 6380   7.536  10.463  14.708
 1514SOL    HW1 6381   7.511  10.402  14.639
 1514SOL    HW2 6382   7.535  10.410  14.788
 1515SOL     OW 6383   9.305   2.307   9.137
 1515SOL    HW1 6384   9.370   2.326   9.069
 1515SOL    HW2 6385   9.350   2.328   9.219
 1516SOL     OW 6386  13.752   6.036   0.061
 1516SOL    HW1 6387  13.768   6.130   0.064
 1516SOL    HW2 6388  13.699   6.018   0.139
 1517SOL     OW 6389   0.582  10.141  13.297
 1517SOL    HW1 6390   0.626  10.097  13.224
 1517SOL    HW2 6391   0.592  10.234  13.278
 1518SOL     OW 6392   0.903   0.847   1.154
 1518SOL    HW1 6393   0.855   0.822   1.075
 1518SOL    HW2 6394   0.876   0.937   1.171
 1519SOL     OW 6395   9.745  10.320   1.319
 1519SOL    HW1 6396   9.755  10.414   1.303
 1519SOL    HW2 6397   9.666  10.313   1.373
 1520SOL     OW 6398   4.942   2.596   1.563
 1520SOL    HW1 6399   4.868   2.619   1.620
 1520SOL    HW2 6400   5.006   2.556   1.622
 1521SOL     OW 6401  10.697  11.449  13.041
 1521SOL    HW1 6402  10.708  11.538  13.076
 1521SOL    HW2 6403  10.778  11.431  12.995
 1522SOL     OW 6404   3.576  11.049  10.986
 1522SOL    HW1 6405   3.622  10.982  11.037
 1522SOL    HW2 6406   3.618  11.047  10.900
 1523SOL     OW 6407  11.781   0.177   0.757
 1523SOL    HW1 6408  11.780   0.261   0.803
 1523SOL    HW2 6409  11.874   0.157   0.744
 1524SOL     OW 6410  13.756   5.313   4.546
 1524SOL    HW1 6411  13.668   5.276   4.555
 1524SOL    HW2 6412  13.741   5.407   4.536
 1525SOL     OW 6413   0.274   1.326   5.863
 1525SOL    HW1 6414   0.241   1.413   5.884
 1525SOL    HW2 6415   0.196   1.277   5.835
 1526SOL     OW 6416   9.404   7.077   8.504
 1526SOL    HW1 6417   9.460   7.112   8.573
 1526SOL    HW2 6418   9.400   7.147   8.439
 1527SOL     OW 6419   2.629   4.165   8.256
 1527SOL    HW1 6420   2.586   4.090   8.214
 1527SOL    HW2 6421   2.564   4.199   8.317
 1528SOL     OW 6422   5.119   0.655  13.824
 1528SOL    HW1 6423   5.102   0.636  13.732
 1528SOL    HW2 6424   5.178   0.584  13.852
 1529SOL     OW 6425   8.164   7.716   5.782
 1529SOL    HW1 6426   8.076   7.716   5.744
 1529SOL    HW2 6427   8.221   7.686   5.711
 1530SOL     OW 6428   2.689  14.016   2.916
 1530SOL    HW1 6429   2.716  14.078   2.984
 1530SOL    HW2 6430   2.767  14.007   2.860
 1531SOL     OW 6431   3.607   4.796   4.798
 1531SOL    HW1 6432   3.597   4.744   4.877
 1531SOL    HW2 6433   3.698   4.827   4.801
 1532SOL     OW 6434  13.774  12.585   4.012
 1532SOL    HW1 6435  13.796  12.632   3.932
 1532SOL    HW2 6436  13.821  12.502   4.005
 1533SOL     OW 6437   3.481   6.447  10.263
 1533SOL    HW1 6438   3.510   6.357  10.277
 1533SOL    HW2 6439   3.549   6.501  10.303
 1534SOL     OW 6440  11.151   4.404   0.194
 1534SOL    HW1 6441  11.214   4.345   0.235
 1534SOL    HW2 6442  11.204   4.477   0.162
 1535SOL     OW 6443   7.580   1.780  13.978
 1535SOL    HW1 6444   7.553   1.771  13.886
 1535SOL    HW2 6445   7.614   1.694  14.001
 1536SOL     OW 6446   0.246   7.452  13.405
 1536SOL    HW1 6447   0.339   7.432  13.400
 1536SOL    HW2 6448   0.242   7.547  13.409
 1537SOL     OW 6449  14.301   9.115   4.970
 1537SOL    HW1 6450  14.335   9.145   4.886
 1537SOL    HW2 6451  14.367   9.143   5.034
 1538SOL     OW 6452  14.262   0.503   5.725
 1538SOL    HW1 6453  14.267   0.493   5.820
 1538SOL    HW2 6454  14.335   0.561   5.703
 1539SOL     OW 6455   7.908   5.472   7.993
 1539SOL    HW1 6456   7.900   5.483   7.899
 1539SOL    HW2 6457   7.819   5.452   8.023
 1540SOL     OW 6458  12.393   2.612   1.403
 1540SOL    HW1 6459  12.300   2.631   1.389
 1540SOL    HW2 6460  12.394   2.521   1.433
 1541SOL     OW 6461  10.812   9.486   0.983
 1541SOL    HW1 6462  10.749   9.552   0.951
 1541SOL    HW2 6463  10.799   9.411   0.925
 1542SOL     OW 6464  12.253   7.958  13.259
 1542SOL    HW1 6465  12.328   7.907  13.229
 1542SOL    HW2 6466  12.232   8.016  13.186
 1543SOL     OW 6467  12.719   5.987   5.244
 1543SOL    HW1 6468  12.703   5.941   5.162
 1543SOL    HW2 6469  12.797   5.943   5.281
 1544SOL     OW 6470   0.294   3.954  14.074
 1544SOL    HW1 6471   0.389   3.967  14.078
 1544SOL    HW2 6472   0.266   4.012  14.003
 1545SOL     OW 6473   8.845   3.305   6.359
 1545SOL    HW1 6474   8.786   3.303   6.435
 1545SOL    HW2 6475   8.819   3.230   6.306
 1546SOL     OW 6476  12.718   2.147  12.197
 1546SOL    HW1 6477  12.640   2.165  12.145
 1546SOL    HW2 6478  12.692   2.168  12.287
 1547SOL     OW 6479  14.867   0.492   7.415
 1547SOL    HW1 6480   0.072   0.515   7.454
 1547SOL    HW2 6481   0.002   0.499   7.321
 1548SOL     OW 6482  10.464  14.254  12.937
 1548SOL    HW1 6483  10.413  14.330  12.910
 1548SOL    HW2 6484  10.448  14.189  12.868
 1549SOL     OW 6485   0.884   4.832  13.476
 1549SOL    HW1 6486   0.849   4.748  13.446
 1549SOL    HW2 6487   0.911   4.877  13.396
 1550SOL     OW 6488   4.201   9.439  10.503
 1550SOL    HW1 6489   4.138   9.508  10.481
 1550SOL    HW2 6490   4.285   9.485  10.511
 1551SOL     OW 6491   2.436   5.089   2.102
 1551SOL    HW1 6492   2.435   5.181   2.077
 1551SOL    HW2 6493   2.356   5.053   2.064
 1552SOL     OW 6494  14.482   3.508  14.413
 1552SOL    HW1 6495  14.538   3.542  14.343
 1552SOL    HW2 6496  14.524   3.427  14.440
 1553SOL     OW 6497   9.052   3.684  14.232
 1553SOL    HW1 6498   8.967   3.690  14.276
 1553SOL    HW2 6499   9.035   3.715  14.143
 1554SOL     OW 6500   7.294   6.941   0.456
 1554SOL    HW1 6501   7.341   7.000   0.397
 1554SOL    HW2 6502   7.284   6.990   0.537
 1555SOL     OW 6503   3.826   6.319   3.880
 1555SOL    HW1 6504   3.776   6.360   3.809
 1555SOL    HW2 6505   3.759   6.280   3.936
 1556SOL     OW 6506   0.409  11.338  12.293
 1556SOL    HW1 6507   0.435  11.321  12.384
 1556SOL    HW2 6508   0.319  11.371  12.300
 1557SOL     OW 6509   9.752  13.421  14.146
 1557SOL    HW1 6510   9.845  13.419  14.169
 1557SOL    HW2 6511   9.712  13.356  14.203
 1558SOL     OW 6512   3.903  14.628  14.073
 1558SOL    HW1 6513   3.809  14.643  14.081
 1558SOL    HW2 6514   3.913  14.577  13.992
 1559SOL     OW 6515  11.427   5.539   4.741
 1559SOL    HW1 6516  11.335   5.541   4.714
 1559SOL    HW2 6517  11.424   5.538   4.837
 1560SOL     OW 6518  12.377   2.088  14.068
 1560SOL    HW1 6519  12.294   2.126  14.040
 1560SOL    HW2 6520  12.372   2.084  14.163
 1561SOL     OW 6521   4.912  13.295  10.596
 1561SOL    HW1 6522   4.969  13.256  10.661
 1561SOL    HW2 6523   4.823  13.284  10.631
 1562SOL     OW 6524   4.873   6.211   4.753
 1562SOL    HW1 6525   4.958   6.171   4.733
 1562SOL    HW2 6526   4.850   6.176   4.839
 1563SOL     OW 6527   0.790  14.260   6.083
 1563SOL    HW1 6528   0.755  14.339   6.044
 1563SOL    HW2 6529   0.882  14.257   6.055
 1564SOL     OW 6530   0.678  14.716   7.432
 1564SOL    HW1 6531   0.590  14.680   7.420
 1564SOL    HW2 6532   0.670  14.807   7.404
 1565SOL     OW 6533   3.455   0.718   8.095
 1565SOL    HW1 6534   3.379   0.771   8.120
 1565SOL    HW2 6535   3.489   0.760   8.016
 1566SOL     OW 6536   9.351   3.313  14.393
 1566SOL    HW1 6537   9.299   3.312  14.473
 1566SOL    HW2 6538   9.350   3.404  14.364
 1567SOL     OW 6539   9.647   5.563  12.550
 1567SOL    HW1 6540   9.705   5.638  12.558
 1567SOL    HW2 6541   9.702   5.494  12.513
 1568SOL     OW 6542   2.076  13.608  12.103
 1568SOL    HW1 6543   1.982  13.619  12.113
 1568SOL    HW2 6544   2.093  13.517  12.128
 1569SOL     OW 6545   3.782   4.265  10.633
 1569SOL    HW1 6546   3.710   4.234  10.687
 1569SOL    HW2 6547   3.821   4.337  10.683
 1570SOL     OW 6548   0.445   3.179   7.232
 1570SOL    HW1 6549   0.358   3.174   7.270
 1570SOL    HW2 6550   0.503   3.142   7.300
 1571SOL     OW 6551   8.644   9.152   1.072
 1571SOL    HW1 6552   8.621   9.190   0.987
 1571SOL    HW2 6553   8.559   9.137   1.114
 1572SOL     OW 6554  14.572   4.419   7.567
 1572SOL    HW1 6555  14.597   4.336   7.525
 1572SOL    HW2 6556  14.513   4.392   7.637
 1573SOL     OW 6557   5.639  11.226   6.097
 1573SOL    HW1 6558   5.549  11.199   6.079
 1573SOL    HW2 6559   5.675  11.157   6.153
 1574SOL     OW 6560   6.292   3.409   7.748
 1574SOL    HW1 6561   6.380   3.373   7.757
 1574SOL    HW2 6562   6.265   3.429   7.837
 1575SOL     OW 6563   3.721   6.260   0.491
 1575SOL    HW1 6564   3.661   6.188   0.472
 1575SOL    HW2 6565   3.672   6.339   0.469
 1576SOL     OW 6566   3.784   8.515   5.930
 1576SOL    HW1 6567   3.833   8.565   5.994
 1576SOL    HW2 6568   3.848   8.453   5.893
 1577SOL     OW 6569   2.740   2.185  14.646
 1577SOL    HW1 6570   2.662   2.139  14.676
 1577SOL    HW2 6571   2.740   2.173  14.551
 1578SOL     OW 6572   5.948  10.027   5.548
 1578SOL    HW1 6573   5.932  10.121   5.555
 1578SOL    HW2 6574   5.923   9.992   5.633
 1579SOL     OW 6575   4.151   2.585  14.164
 1579SOL    HW1 6576   4.130   2.678  14.168
 1579SOL    HW2 6577   4.207   2.576  14.087
 1580SOL     OW 6578   0.656  12.553  13.060
 1580SOL    HW1 6579   0.593  12.482  13.066
 1580SOL    HW2 6580   0.641  12.591  12.973
 1581SOL     OW 6581  12.749   1.819  11.480
 1581SOL    HW1 6582  12.754   1.839  11.386
 1581SOL    HW2 6583  12.701   1.893  11.517
 1582SOL     OW 6584   3.010   8.706   3.499
 1582SOL    HW1 6585   2.954   8.638   3.536
 1582SOL    HW2 6586   3.021   8.682   3.407
 1583SOL     OW 6587   7.995  11.256   7.211
 1583SOL    HW1 6588   7.967  11.325   7.271
 1583SOL    HW2 6589   7.936  11.266   7.135
 1584SOL     OW 6590  13.636   0.527   1.015
 1584SOL    HW1 6591  13.574   0.474   0.964
 1584SOL    HW2 6592  13.659   0.471   1.089
 1585SOL     OW 6593   0.520  10.986   0.795
 1585SOL    HW1 6594   0.608  10.953   0.811
 1585SOL    HW2 6595   0.471  10.966   0.875
 1586SOL     OW 6596  13.916   0.875   6.183
 1586SOL    HW1 6597  13.878   0.917   6.106
 1586SOL    HW2 6598  13.841   0.841   6.231
 1587SOL     OW 6599   5.726   9.907   2.282
 1587SOL    HW1 6600   5.799   9.845   2.274
 1587SOL    HW2 6601   5.668   9.884   2.210
 1588SOL     OW 6602   7.543  14.844   9.471
 1588SOL    HW1 6603   7.616  14.798   9.512
 1588SOL    HW2 6604   7.584   0.031   9.416
 1589SOL     OW 6605   6.047   7.161  14.423
 1589SOL    HW1 6606   6.101   7.229  14.383
 1589SOL    HW2 6607   5.980   7.143  14.357
 1590SOL     OW 6608   2.960   0.272   7.541
 1590SOL    HW1 6609   2.915   0.197   7.581
 1590SOL    HW2 6610   2.893   0.316   7.489
 1591SOL     OW 6611  12.263  13.589  12.021
 1591SOL    HW1 6612  12.198  13.583  11.951
 1591SOL    HW2 6613  12.300  13.677  12.012
 1592SOL     OW 6614   6.104   7.979  10.827
 1592SOL    HW1 6615   6.179   8.013  10.778
 1592SOL    HW2 6616   6.135   7.972  10.917
 1593SOL     OW 6617  10.322  13.732   9.911
 1593SOL    HW1 6618  10.356  13.803   9.966
 1593SOL    HW2 6619  10.307  13.773   9.826
 1594SOL     OW 6620   1.393   8.146  14.009
 1594SOL    HW1 6621   1.409   8.054  13.988
 1594SOL    HW2 6622   1.431   8.194  13.935
 1595SOL     OW 6623   6.724   0.026   1.864
 1595SOL    HW1 6624   6.774  14.850   1.805
 1595SOL    HW2 6625   6.638   0.034   1.823
 1596SOL     OW 6626   1.674   6.361   3.011
 1596SOL    HW1 6627   1.713   6.391   3.093
 1596SOL    HW2 6628   1.697   6.268   3.006
 1597SOL     OW 6629  12.593   9.135  10.382
 1597SOL    HW1 6630  12.621   9.225  10.400
 1597SOL    HW2 6631  12.500   9.142  10.364
 1598SOL     OW 6632  10.430   8.476   9.139
 1598SOL    HW1 6633  10.349   8.426   9.130
 1598SOL    HW2 6634  10.494   8.429   9.084
 1599SOL     OW 6635   8.897   0.170   9.879
 1599SOL    HW1 6636   8.968   0.222   9.917
 1599SOL    HW2 6637   8.910   0.177   9.784
 1600SOL     OW 6638   7.298  10.018   7.676
 1600SOL    HW1 6639   7.257   9.939   7.643
 1600SOL    HW2 6640   7.331  10.062   7.597
 1601SOL     OW 6641   6.696  13.070   9.362
 1601SOL    HW1 6642   6.656  13.135   9.419
 1601SOL    HW2 6643   6.698  12.990   9.414
 1602SOL     OW 6644   9.252  11.545  14.853
 1602SOL    HW1 6645   9.169  11.592  14.852
 1602SOL    HW2 6646   9.277  11.540  14.761
 1603SOL     OW 6647   7.025   2.489   4.149
 1603SOL    HW1 6648   7.088   2.509   4.219
 1603SOL    HW2 6649   6.972   2.569   4.141
 1604SOL     OW 6650   6.888   5.654   4.759
 1604SOL    HW1 6651   6.936   5.688   4.684
 1604SOL    HW2 6652   6.798   5.685   4.747
 1605SOL     OW 6653  12.785   0.390   5.754
 1605SOL    HW1 6654  12.851   0.327   5.783
 1605SOL    HW2 6655  12.728   0.339   5.695
 1606SOL     OW 6656   8.494  10.161   2.200
 1606SOL    HW1 6657   8.574  10.213   2.199
 1606SOL    HW2 6658   8.480  10.140   2.292
 1607SOL     OW 6659  13.190   0.862  13.313
 1607SOL    HW1 6660  13.118   0.810  13.278
 1607SOL    HW2 6661  13.148   0.940  13.349
 1608SOL     OW 6662   7.106   2.575   5.713
 1608SOL    HW1 6663   7.181   2.542   5.763
 1608SOL    HW2 6664   7.097   2.513   5.640
 1609SOL     OW 6665   5.680   1.637  12.532
 1609SOL    HW1 6666   5.664   1.543  12.547
 1609SOL    HW2 6667   5.767   1.653  12.568
 1610SOL     OW 6668   7.649  13.481   3.499
 1610SOL    HW1 6669   7.559  13.461   3.473
 1610SOL    HW2 6670   7.703  13.452   3.425
 1611SOL     OW 6671  10.864   8.245   8.917
 1611SOL    HW1 6672  10.933   8.179   8.927
 1611SOL    HW2 6673  10.886   8.312   8.981
 1612SOL     OW 6674   3.497   6.450  10.875
 1612SOL    HW1 6675   3.586   6.423  10.850
 1612SOL    HW2 6676   3.447   6.449  10.794
 1613SOL     OW 6677   6.286   5.994   0.450
 1613SOL    HW1 6678   6.378   5.982   0.472
 1613SOL    HW2 6679   6.283   5.991   0.354
 1614SOL     OW 6680   7.107  11.484   2.958
 1614SOL    HW1 6681   7.121  11.537   2.880
 1614SOL    HW2 6682   7.190  11.438   2.972
 1615SOL     OW 6683   1.955   1.625   7.445
 1615SOL    HW1 6684   1.907   1.707   7.440
 1615SOL    HW2 6685   1.939   1.582   7.361
 1616SOL     OW 6686  14.633   4.281   2.127
 1616SOL    HW1 6687  14.644   4.284   2.032
 1616SOL    HW2 6688  14.539   4.291   2.140
 1617SOL     OW 6689  11.392  11.855   4.633
 1617SOL    HW1 6690  11.431  11.768   4.630
 1617SOL    HW2 6691  11.321  11.852   4.569
 1618SOL     OW 6692   2.704   3.744  10.158
 1618SOL    HW1 6693   2.784   3.743  10.210
 1618SOL    HW2 6694   2.695   3.653  10.127
 1619SOL     OW 6695  11.948   4.019   8.721
 1619SOL    HW1 6696  11.934   3.965   8.643
 1619SOL    HW2 6697  11.983   3.958   8.786
 1620SOL     OW 6698  11.992   8.229   9.023
 1620SOL    HW1 6699  11.974   8.269   8.938
 1620SOL    HW2 6700  12.005   8.136   9.004
 1621SOL     OW 6701   1.992   4.359   5.003
 1621SOL    HW1 6702   2.057   4.344   4.934
 1621SOL    HW2 6703   1.947   4.276   5.013
 1622SOL     OW 6704   7.999   2.702  13.457
 1622SOL    HW1 6705   7.960   2.789  13.456
 1622SOL    HW2 6706   8.085   2.713  13.415
 1623SOL     OW 6707   1.215   9.621   2.320
 1623SOL    HW1 6708   1.181   9.695   2.370
 1623SOL    HW2 6709   1.154   9.550   2.338
 1624SOL     OW 6710   8.454  13.513   5.599
 1624SOL    HW1 6711   8.433  13.582   5.662
 1624SOL    HW2 6712   8.369  13.485   5.565
 1625SOL     OW 6713   2.556   8.495   8.897
 1625SOL    HW1 6714   2.553   8.591   8.896
 1625SOL    HW2 6715   2.645   8.474   8.869
 1626SOL     OW 6716   9.715   3.938  11.378
 1626SOL    HW1 6717   9.666   3.917  11.299
 1626SOL    HW2 6718   9.704   3.862  11.435
 1627SOL     OW 6719  10.953  12.989  14.456
 1627SOL    HW1 6720  10.888  12.994  14.526
 1627SOL    HW2 6721  10.944  12.901  14.420
 1628SOL     OW 6722  12.587   1.906   3.682
 1628SOL    HW1 6723  12.519   1.917   3.748
 1628SOL    HW2 6724  12.566   1.971   3.615
 1629SOL     OW 6725   3.442   2.308   4.473
 1629SOL    HW1 6726   3.395   2.371   4.420
 1629SOL    HW2 6727   3.399   2.224   4.456
 1630SOL     OW 6728  12.303   1.673  14.682
 1630SOL    HW1 6729  12.295   1.623  14.763
 1630SOL    HW2 6730  12.374   1.735  14.698
 1631SOL     OW 6731   8.392   8.595  10.829
 1631SOL    HW1 6732   8.369   8.671  10.882
 1631SOL    HW2 6733   8.345   8.607  10.747
 1632SOL     OW 6734   7.127  14.087   7.526
 1632SOL    HW1 6735   7.151  14.156   7.588
 1632SOL    HW2 6736   7.031  14.085   7.530
 1633SOL     OW 6737   0.154   0.624   0.020
 1633SOL    HW1 6738   0.157   0.535   0.054
 1633SOL    HW2 6739   0.135   0.613  14.806
 1634SOL     OW 6740   0.637   0.082   8.564
 1634SOL    HW1 6741   0.654   0.166   8.606
 1634SOL    HW2 6742   0.698   0.079   8.490
 1635SOL     OW 6743   7.695   8.402   2.022
 1635SOL    HW1 6744   7.730   8.336   2.081
 1635SOL    HW2 6745   7.601   8.405   2.043
 1636SOL     OW 6746   0.092   4.287   7.010
 1636SOL    HW1 6747   0.182   4.312   7.027
 1636SOL    HW2 6748   0.067   4.338   6.933
 1637SOL     OW 6749   7.232  12.791  10.189
 1637SOL    HW1 6750   7.252  12.712  10.139
 1637SOL    HW2 6751   7.202  12.854  10.123
 1638SOL     OW 6752  14.745  13.555   7.704
 1638SOL    HW1 6753  14.664  13.553   7.652
 1638SOL    HW2 6754  14.751  13.645   7.736
 1639SOL     OW 6755   2.207   5.924   1.247
 1639SOL    HW1 6756   2.168   5.997   1.297
 1639SOL    HW2 6757   2.272   5.966   1.191
 1640SOL     OW 6758   4.528  10.449  13.408
 1640SOL    HW1 6759   4.442  10.421  13.439
 1640SOL    HW2 6760   4.580  10.460  13.488
 1641SOL     OW 6761   4.517   4.491   1.275
 1641SOL    HW1 6762   4.495   4.420   1.215
 1641SOL    HW2 6763   4.591   4.536   1.234
 1642SOL     OW 6764  13.420   5.464  10.247
 1642SOL    HW1 6765  13.386   5.381  10.214
 1642SOL    HW2 6766  13.368   5.482  10.326
 1643SOL     OW 6767  14.094  11.929   5.737
 1643SOL    HW1 6768  14.086  11.981   5.817
 1643SOL    HW2 6769  14.018  11.954   5.684
 1644SOL     OW 6770  11.228  13.349   9.800
 1644SOL    HW1 6771  11.301  13.298   9.836
 1644SOL    HW2 6772  11.185  13.386   9.877
 1645SOL     OW 6773  14.388   4.455   0.256
 1645SOL    HW1 6774  14.441   4.388   0.300
 1645SOL    HW2 6775  14.443   4.485   0.183
 1646SOL     OW 6776   1.678  12.225  14.716
 1646SOL    HW1 6777   1.696  12.137  14.683
 1646SOL    HW2 6778   1.764  12.264  14.730
 1647SOL     OW 6779   4.949   6.117   0.520
 1647SOL    HW1 6780   4.964   6.177   0.447
 1647SOL    HW2 6781   4.862   6.141   0.553
 1648SOL     OW 6782  11.084  14.095   7.518
 1648SOL    HW1 6783  11.026  14.043   7.463
 1648SOL    HW2 6784  11.051  14.184   7.510
 1649SOL     OW 6785   6.792  13.914   1.010
 1649SOL    HW1 6786   6.851  13.914   1.085
 1649SOL    HW2 6787   6.849  13.911   0.933
 1650SOL     OW 6788   1.001   8.992  12.595
 1650SOL    HW1 6789   0.940   9.029  12.659
 1650SOL    HW2 6790   1.078   8.970  12.647
 1651SOL     OW 6791   2.233   2.262   7.522
 1651SOL    HW1 6792   2.300   2.206   7.561
 1651SOL    HW2 6793   2.150   2.224   7.552
 1652SOL     OW 6794  11.465  13.606   0.873
 1652SOL    HW1 6795  11.470  13.576   0.782
 1652SOL    HW2 6796  11.554  13.631   0.896
 1653SOL     OW 6797   5.073   9.572  13.819
 1653SOL    HW1 6798   5.036   9.637  13.879
 1653SOL    HW2 6799   5.019   9.494  13.830
 1654SOL     OW 6800   5.422   8.544   4.637
 1654SOL    HW1 6801   5.336   8.564   4.602
 1654SOL    HW2 6802   5.452   8.626   4.677
 1655SOL     OW 6803  10.349   5.971   0.211
 1655SOL    HW1 6804  10.417   6.038   0.209
 1655SOL    HW2 6805  10.294   5.995   0.286
 1656SOL     OW 6806   2.693   0.791  10.558
 1656SOL    HW1 6807   2.691   0.747  10.642
 1656SOL    HW2 6808   2.665   0.724  10.495
 1657SOL     OW 6809   2.912  13.960   7.020
 1657SOL    HW1 6810   2.842  13.910   7.064
 1657SOL    HW2 6811   2.867  14.034   6.980
 1658SOL     OW 6812  14.756   5.070   9.527
 1658SOL    HW1 6813  14.837   5.119   9.512
 1658SOL    HW2 6814  14.741   5.022   9.445
 1659SOL     OW 6815   4.028   1.025  10.261
 1659SOL    HW1 6816   3.994   0.942  10.295
 1659SOL    HW2 6817   4.077   1.063  10.333
 1660SOL     OW 6818   6.828   8.324   8.935
 1660SOL    HW1 6819   6.840   8.256   9.001
 1660SOL    HW2 6820   6.897   8.388   8.953
 1661SOL     OW 6821   1.354   4.483   7.300
 1661SOL    HW1 6822   1.272   4.447   7.335
 1661SOL    HW2 6823   1.326   4.545   7.232
 1662SOL     OW 6824   9.748   7.624   7.378
 1662SOL    HW1 6825   9.678   7.625   7.312
 1662SOL    HW2 6826   9.760   7.532   7.399
 1663SOL     OW 6827  14.306   3.362   8.966
 1663SOL    HW1 6828  14.353   3.441   8.991
 1663SOL    HW2 6829  14.324   3.300   9.036
 1664SOL     OW 6830   4.339  12.995   8.008
 1664SOL    HW1 6831   4.300  12.908   8.008
 1664SOL    HW2 6832   4.326  13.028   7.920
 1665SOL     OW 6833  14.140   1.301   8.477
 1665SOL    HW1 6834  14.135   1.325   8.569
 1665SOL    HW2 6835  14.233   1.279   8.463
 1666SOL     OW 6836   2.787  11.535  10.666
 1666SOL    HW1 6837   2.745  11.618  10.645
 1666SOL    HW2 6838   2.849  11.557  10.736
 1667SOL     OW 6839   0.130   0.851   9.638
 1667SOL    HW1 6840   0.057   0.797   9.609
 1667SOL    HW2 6841   0.102   0.888   9.722
 1668SOL     OW 6842   0.012  11.960   1.082
 1668SOL    HW1 6843  14.817  11.956   1.021
 1668SOL    HW2 6844  14.855  11.997   1.162
 1669SOL     OW 6845  11.986   5.633   4.077
 1669SOL    HW1 6846  12.027   5.715   4.048
 1669SOL    HW2 6847  12.028   5.565   4.025
 1670SOL     OW 6848  14.333   4.703   2.767
 1670SOL    HW1 6849  14.369   4.677   2.851
 1670SOL    HW2 6850  14.308   4.621   2.725
 1671SOL     OW 6851  13.927   3.326   0.776
 1671SOL    HW1 6852  13.955   3.379   0.850
 1671SOL    HW2 6853  13.954   3.376   0.699
 1672SOL     OW 6854   2.795   7.806   4.399
 1672SOL    HW1 6855   2.835   7.845   4.476
 1672SOL    HW2 6856   2.861   7.743   4.368
 1673SOL     OW 6857  10.036   0.233   4.770
 1673SOL    HW1 6858  10.010   0.202   4.683
 1673SOL    HW2 6859  10.132   0.230   4.768
 1674SOL     OW 6860  13.133   1.993   0.073
 1674SOL    HW1 6861  13.178   1.960  14.875
 1674SOL    HW2 6862  13.184   1.960   0.147
 1675SOL     OW 6863   0.464   5.148   4.543
 1675SOL    HW1 6864   0.504   5.200   4.613
 1675SOL    HW2 6865   0.378   5.187   4.530
 1676SOL     OW 6866  14.408   9.024  12.722
 1676SOL    HW1 6867  14.477   9.090  12.718
 1676SOL    HW2 6868  14.453   8.940  12.714
 1677SOL     OW 6869   2.861  11.344   9.449
 1677SOL    HW1 6870   2.814  11.294   9.383
 1677SOL    HW2 6871   2.843  11.436   9.427
 1678SOL     OW 6872  13.911   3.718  11.881
 1678SOL    HW1 6873  13.838   3.678  11.929
 1678SOL    HW2 6874  13.890   3.811  11.880
 1679SOL     OW 6875   5.139   8.523   1.184
 1679SOL    HW1 6876   5.203   8.561   1.245
 1679SOL    HW2 6877   5.068   8.491   1.240
 1680SOL     OW 6878   4.852   9.100   8.387
 1680SOL    HW1 6879   4.764   9.095   8.423
 1680SOL    HW2 6880   4.870   9.194   8.378
 1681SOL     OW 6881  10.058  12.234   0.491
 1681SOL    HW1 6882  10.005  12.185   0.428
 1681SOL    HW2 6883  10.026  12.207   0.577
 1682SOL     OW 6884   2.062  10.500   2.334
 1682SOL    HW1 6885   2.024  10.412   2.332
 1682SOL    HW2 6886   2.139  10.491   2.391
 1683SOL     OW 6887  12.627   2.415  12.384
 1683SOL    HW1 6888  12.719   2.404  12.359
 1683SOL    HW2 6889  12.622   2.378  12.472
 1684SOL     OW 6890   7.429   6.173   0.813
 1684SOL    HW1 6891   7.514   6.192   0.773
 1684SOL    HW2 6892   7.376   6.137   0.742
 1685SOL     OW 6893  13.585   8.096   8.499
 1685SOL    HW1 6894  13.560   8.128   8.412
 1685SOL    HW2 6895  13.671   8.056   8.485
 1686SOL     OW 6896   7.218  11.002  11.563
 1686SOL    HW1 6897   7.126  11.023  11.578
 1686SOL    HW2 6898   7.257  11.084  11.531
 1687SOL     OW 6899   3.145   2.236  10.737
 1687SOL    HW1 6900   3.069   2.220  10.793
 1687SOL    HW2 6901   3.109   2.240  10.648
 1688SOL     OW 6902   1.845   9.723  12.815
 1688SOL    HW1 6903   1.750   9.717  12.824
 1688SOL    HW2 6904   1.864   9.817  12.822
 1689SOL     OW 6905  14.003   8.760   0.729
 1689SOL    HW1 6906  13.923   8.799   0.694
 1689SOL    HW2 6907  14.070   8.778   0.662
 1690SOL     OW 6908   4.306  13.097  10.060
 1690SOL    HW1 6909   4.397  13.080  10.033
 1690SOL    HW2 6910   4.253  13.044  10.001
 1691SOL     OW 6911  14.720  13.598   1.391
 1691SOL    HW1 6912  14.753  13.520   1.436
 1691SOL    HW2 6913  14.640  13.568   1.347
 1692SOL     OW 6914   1.219   9.308  12.346
 1692SOL    HW1 6915   1.214   9.402  12.365
 1692SOL    HW2 6916   1.128   9.278  12.347
 1693SOL     OW 6917   7.336   0.451   4.830
 1693SOL    HW1 6918   7.268   0.429   4.895
 1693SOL    HW2 6919   7.290   0.448   4.746
 1694SOL     OW 6920   7.831  11.001  11.980
 1694SOL    HW1 6921   7.758  11.030  11.925
 1694SOL    HW2 6922   7.904  11.057  11.953
 1695SOL     OW 6923   2.322   1.637  10.237
 1695SOL    HW1 6924   2.382   1.580  10.284
 1695SOL    HW2 6925   2.363   1.723  10.239
 1696SOL     OW 6926  14.404   0.031   0.495
 1696SOL    HW1 6927  14.336  14.843   0.496
 1696SOL    HW2 6928  14.412   0.058   0.587
 1697SOL     OW 6929   5.590  13.124   4.595
 1697SOL    HW1 6930   5.671  13.144   4.642
 1697SOL    HW2 6931   5.612  13.137   4.503
 1698SOL     OW 6932  14.838   2.290   8.503
 1698SOL    HW1 6933  14.800   2.346   8.435
 1698SOL    HW2 6934  14.813   2.332   8.585
 1699SOL     OW 6935   9.359  14.078   0.528
 1699SOL    HW1 6936   9.368  14.124   0.445
 1699SOL    HW2 6937   9.348  14.147   0.593
 1700SOL     OW 6938  11.005   9.165   0.577
 1700SOL    HW1 6939  11.096   9.137   0.583
 1700SOL    HW2 6940  10.955   9.084   0.576
 1701SOL     OW 6941  13.909   3.605  11.219
 1701SOL    HW1 6942  13.919   3.512  11.241
 1701SOL    HW2 6943  13.906   3.649  11.304
 1702SOL     OW 6944  13.008   9.769   3.144
 1702SOL    HW1 6945  13.063   9.843   3.116
 1702SOL    HW2 6946  12.918   9.800   3.132
 1703SOL     OW 6947   3.556   7.745   5.452
 1703SOL    HW1 6948   3.636   7.756   5.503
 1703SOL    HW2 6949   3.499   7.816   5.481
 1704SOL     OW 6950   9.940   1.209  10.225
 1704SOL    HW1 6951   9.855   1.179  10.192
 1704SOL    HW2 6952   9.919   1.248  10.310
 1705SOL     OW 6953  12.916  10.257   5.819
 1705SOL    HW1 6954  12.861  10.334   5.831
 1705SOL    HW2 6955  12.950  10.265   5.730
 1706SOL     OW 6956   5.767   6.684   4.770
 1706SOL    HW1 6957   5.710   6.659   4.843
 1706SOL    HW2 6958   5.770   6.606   4.714
 1707SOL     OW 6959  14.625   4.002  12.739
 1707SOL    HW1 6960  14.572   3.957  12.674
 1707SOL    HW2 6961  14.708   3.953  12.740
 1708SOL     OW 6962  12.238   3.490   8.495
 1708SOL    HW1 6963  12.270   3.484   8.586
 1708SOL    HW2 6964  12.278   3.569   8.460
 1709SOL     OW 6965   5.428  14.379   5.778
 1709SOL    HW1 6966   5.389  14.466   5.791
 1709SOL    HW2 6967   5.521  14.396   5.769
 1710SOL     OW 6968   6.147   1.854  11.193
 1710SOL    HW1 6969   6.106   1.912  11.129
 1710SOL    HW2 6970   6.240   1.876  11.191
 1711SOL     OW 6971  14.396  12.440   7.845
 1711SOL    HW1 6972  14.398  12.391   7.763
 1711SOL    HW2 6973  14.311  12.484   7.845
 1712SOL     OW 6974   9.355  12.965  12.952
 1712SOL    HW1 6975   9.279  12.929  12.998
 1712SOL    HW2 6976   9.319  13.004  12.873
 1713SOL     OW 6977  10.089  10.371  11.468
 1713SOL    HW1 6978  10.174  10.331  11.490
 1713SOL    HW2 6979  10.110  10.435  11.401
 1714SOL     OW 6980   1.059  11.048   8.528
 1714SOL    HW1 6981   1.010  11.064   8.448
 1714SOL    HW2 6982   0.998  11.070   8.598
 1715SOL     OW 6983   6.220   6.600   4.656
 1715SOL    HW1 6984   6.162   6.646   4.595
 1715SOL    HW2 6985   6.168   6.590   4.735
 1716SOL     OW 6986  14.583  14.585  10.100
 1716SOL    HW1 6987  14.662  14.624  10.137
 1716SOL    HW2 6988  14.511  14.631  10.144
 1717SOL     OW 6989   4.376   6.457   9.172
 1717SOL    HW1 6990   4.410   6.532   9.222
 1717SOL    HW2 6991   4.430   6.383   9.199
 1718SOL     OW 6992   6.611   9.449   0.184
 1718SOL    HW1 6993   6.645   9.484   0.267
 1718SOL    HW2 6994   6.666   9.373   0.167
 1719SOL     OW 6995   5.317  14.015   3.390
 1719SOL    HW1 6996   5.378  14.089   3.385
 1719SOL    HW2 6997   5.356  13.948   3.334
 1720SOL     OW 6998   8.839   3.384   2.446
 1720SOL    HW1 6999   8.776   3.372   2.375
 1720SOL    HW2 7000   8.784   3.392   2.525
 1721SOL     OW 7001   0.284   0.567  11.012
 1721SOL    HW1 7002   0.376   0.577  11.035
 1721SOL    HW2 7003   0.248   0.655  11.019
 1722SOL     OW 7004  13.334   7.556   7.466
 1722SOL    HW1 7005  13.388   7.617   7.415
 1722SOL    HW2 7006  13.276   7.515   7.402
 1723SOL     OW 7007  11.650  11.923   0.297
 1723SOL    HW1 7008  11.729  11.960   0.258
 1723SOL    HW2 7009  11.645  11.964   0.384
 1724SOL     OW 7010   9.105   6.585   3.782
 1724SOL    HW1 7011   9.133   6.504   3.740
 1724SOL    HW2 7012   9.057   6.557   3.860
 1725SOL     OW 7013  14.534  11.016   3.411
 1725SOL    HW1 7014  14.462  11.068   3.447
 1725SOL    HW2 7015  14.583  11.078   3.356
 1726SOL     OW 7016  11.692  14.225  13.707
 1726SOL    HW1 7017  11.636  14.208  13.631
 1726SOL    HW2 7018  11.780  14.204  13.678
 1727SOL     OW 7019   2.404  12.666   5.311
 1727SOL    HW1 7020   2.460  12.709   5.376
 1727SOL    HW2 7021   2.363  12.738   5.263
 1728SOL     OW 7022   8.458  10.062   5.972
 1728SOL    HW1 7023   8.372  10.093   6.000
 1728SOL    HW2 7024   8.518  10.095   6.039
 1729SOL     OW 7025   4.215   8.084  14.738
 1729SOL    HW1 7026   4.194   8.141  14.664
 1729SOL    HW2 7027   4.290   8.126  14.780
 1730SOL     OW 7028   2.352   8.290  12.726
 1730SOL    HW1 7029   2.381   8.199  12.717
 1730SOL    HW2 7030   2.316   8.296  12.814
 1731SOL     OW 7031  11.402   0.093  13.520
 1731SOL    HW1 7032  11.477   0.056  13.566
 1731SOL    HW2 7033  11.358   0.148  13.585
 1732SOL     OW 7034   9.788  11.441  10.231
 1732SOL    HW1 7035   9.786  11.368  10.293
 1732SOL    HW2 7036   9.807  11.400  10.147
 1733SOL     OW 7037   5.697   2.054  10.502
 1733SOL    HW1 7038   5.689   2.012  10.417
 1733SOL    HW2 7039   5.626   2.016  10.554
 1734SOL     OW 7040   9.027  14.674   6.134
 1734SOL    HW1 7041   9.044  14.595   6.082
 1734SOL    HW2 7042   9.068  14.745   6.085
 1735SOL     OW 7043   6.742  10.306  13.680
 1735SOL    HW1 7044   6.819  10.341  13.634
 1735SOL    HW2 7045   6.674  10.300  13.614
 1736SOL     OW 7046  12.705   9.547   1.468
 1736SOL    HW1 7047  12.688   9.609   1.538
 1736SOL    HW2 7048  12.777   9.586   1.418
 1737SOL     OW 7049  13.387   6.094  14.443
 1737SOL    HW1 7050  13.302   6.050  14.443
 1737SOL    HW2 7051  13.374   6.173  14.392
 1738SOL     OW 7052  12.331   6.548   7.357
 1738SOL    HW1 7053  12.415   6.503   7.360
 1738SOL    HW2 7054  12.282   6.513   7.431
 1739SOL     OW 7055  12.367  10.510   1.981
 1739SOL    HW1 7056  12.311  10.579   1.945
 1739SOL    HW2 7057  12.398  10.462   1.904
 1740SOL     OW 7058   6.525  14.366  13.467
 1740SOL    HW1 7059   6.489  14.277  13.463
 1740SOL    HW2 7060   6.568  14.371  13.552
 1741SOL     OW 7061   8.894  11.079   2.178
 1741SOL    HW1 7062   8.875  10.998   2.131
 1741SOL    HW2 7063   8.938  11.134   2.113
 1742SOL     OW 7064  14.422  11.417   3.185
 1742SOL    HW1 7065  14.347  11.422   3.243
 1742SOL    HW2 7066  14.396  11.355   3.116
 1743SOL     OW 7067   5.093  11.692   8.058
 1743SOL    HW1 7068   5.026  11.718   7.995
 1743SOL    HW2 7069   5.122  11.605   8.028
 1744SOL     OW 7070   6.664  10.831   6.616
 1744SOL    HW1 7071   6.571  10.851   6.609
 1744SOL    HW2 7072   6.669  10.759   6.679
 1745SOL     OW 7073  13.410   7.316   3.416
 1745SOL    HW1 7074  13.396   7.226   3.386
 1745SOL    HW2 7075  13.325   7.359   3.403
 1746SOL     OW 7076   1.183   3.974   0.601
 1746SOL    HW1 7077   1.126   3.989   0.525
 1746SOL    HW2 7078   1.190   3.878   0.606
 1747SOL     OW 7079   7.011  13.363   6.796
 1747SOL    HW1 7080   6.921  13.378   6.768
 1747SOL    HW2 7081   7.065  13.393   6.723
 1748SOL     OW 7082  13.656   9.676   0.325
 1748SOL    HW1 7083  13.726   9.619   0.293
 1748SOL    HW2 7084  13.575   9.627   0.309
 1749SOL     OW 7085  14.723   6.283   0.241
 1749SOL    HW1 7086  14.801   6.336   0.223
 1749SOL    HW2 7087  14.658   6.346   0.271
 1750SOL     OW 7088   1.577   6.045  10.830
 1750SOL    HW1 7089   1.497   6.074  10.787
 1750SOL    HW2 7090   1.597   5.960  10.788
 1751SOL     OW 7091   0.467   1.640   9.377
 1751SOL    HW1 7092   0.385   1.635   9.426
 1751SOL    HW2 7093   0.495   1.731   9.387
 1752SOL     OW 7094   8.267   4.919   8.506
 1752SOL    HW1 7095   8.328   4.988   8.532
 1752SOL    HW2 7096   8.323   4.841   8.497
 1753SOL     OW 7097  12.930   6.072  10.997
 1753SOL    HW1 7098  12.963   6.017  11.068
 1753SOL    HW2 7099  12.842   6.098  11.026
 1754SOL     OW 7100  13.194   1.976   6.313
 1754SOL    HW1 7101  13.274   1.930   6.290
 1754SOL    HW2 7102  13.189   2.049   6.251
 1755SOL     OW 7103   2.553   1.290   2.865
 1755SOL    HW1 7104   2.494   1.240   2.921
 1755SOL    HW2 7105   2.640   1.254   2.883
 1756SOL     OW 7106   6.870   2.156  12.456
 1756SOL    HW1 7107   6.827   2.176  12.372
 1756SOL    HW2 7108   6.819   2.205  12.520
 1757SOL     OW 7109   0.054   6.370   3.043
 1757SOL    HW1 7110   0.070   6.438   2.978
 1757SOL    HW2 7111   0.135   6.319   3.043
 1758SOL     OW 7112  12.943   6.544   3.871
 1758SOL    HW1 7113  13.030   6.584   3.875
 1758SOL    HW2 7114  12.942   6.498   3.787
 1759SOL     OW 7115   1.262  12.237   4.065
 1759SOL    HW1 7116   1.333  12.193   4.019
 1759SOL    HW2 7117   1.195  12.169   4.076
 1760SOL     OW 7118  12.423   7.461  11.082
 1760SOL    HW1 7119  12.347   7.479  11.138
 1760SOL    HW2 7120  12.482   7.534  11.097
 1761SOL     OW 7121  10.555  14.848   8.322
 1761SOL    HW1 7122  10.563   0.060   8.294
 1761SOL    HW2 7123  10.466  14.840   8.356
 1762SOL     OW 7124   6.647   6.661   8.499
 1762SOL    HW1 7125   6.722   6.648   8.441
 1762SOL    HW2 7126   6.621   6.752   8.486
 1763SOL     OW 7127   1.459  14.257  13.652
 1763SOL    HW1 7128   1.405  14.294  13.722
 1763SOL    HW2 7129   1.447  14.317  13.578
 1764SOL     OW 7130   8.448   2.553   7.707
 1764SOL    HW1 7131   8.413   2.638   7.681
 1764SOL    HW2 7132   8.371   2.498   7.720
 1765SOL     OW 7133   5.988   9.283   2.541
 1765SOL    HW1 7134   5.934   9.352   2.501
 1765SOL    HW2 7135   6.075   9.298   2.505
 1766SOL     OW 7136  10.980   8.125   9.213
 1766SOL    HW1 7137  10.924   8.106   9.288
 1766SOL    HW2 7138  11.055   8.171   9.250
 1767SOL     OW 7139   5.761   6.946  12.510
 1767SOL    HW1 7140   5.817   6.994  12.571
 1767SOL    HW2 7141   5.676   6.941  12.554
 1768SOL     OW 7142  13.617   8.467   5.764
 1768SOL    HW1 7143  13.691   8.429   5.811
 1768SOL    HW2 7144  13.634   8.561   5.765
 1769SOL     OW 7145  12.783   7.039   4.007
 1769SOL    HW1 7146  12.759   7.108   4.070
 1769SOL    HW2 7147  12.743   7.067   3.925
 1770SOL     OW 7148   9.237  13.084   1.359
 1770SOL    HW1 7149   9.151  13.111   1.326
 1770SOL    HW2 7150   9.300  13.131   1.304
 1771SOL     OW 7151   0.499   0.972   8.750
 1771SOL    HW1 7152   0.430   1.027   8.712
 1771SOL    HW2 7153   0.460   0.885   8.755
 1772SOL     OW 7154   2.939  14.069  14.680
 1772SOL    HW1 7155   2.879  13.994  14.674
 1772SOL    HW2 7156   2.887  14.137  14.723
 1773SOL     OW 7157  12.721  13.874   6.050
 1773SOL    HW1 7158  12.753  13.867   5.960
 1773SOL    HW2 7159  12.647  13.814   6.053
 1774SOL     OW 7160  13.364   7.929   8.511
 1774SOL    HW1 7161  13.290   7.957   8.565
 1774SOL    HW2 7162  13.436   7.984   8.540
 1775SOL     OW 7163   3.909  12.712   0.705
 1775SOL    HW1 7164   3.816  12.692   0.702
 1775SOL    HW2 7165   3.949  12.633   0.742
 1776SOL     OW 7166   9.146   3.830  10.345
 1776SOL    HW1 7167   9.163   3.907  10.398
 1776SOL    HW2 7168   9.222   3.773  10.361
 1777SOL     OW 7169   2.445   7.321   6.343
 1777SOL    HW1 7170   2.417   7.248   6.398
 1777SOL    HW2 7171   2.495   7.378   6.402
 1778SOL     OW 7172  13.745   4.681  11.780
 1778SOL    HW1 7173  13.728   4.773  11.800
 1778SOL    HW2 7174  13.754   4.639  11.866
 1779SOL     OW 7175   3.378  14.001   8.446
 1779SOL    HW1 7176   3.432  14.079   8.430
 1779SOL    HW2 7177   3.332  13.987   8.363
 1780SOL     OW 7178  11.927  11.864   2.085
 1780SOL    HW1 7179  12.010  11.883   2.041
 1780SOL    HW2 7180  11.883  11.802   2.028
 1781SOL     OW 7181   2.725   4.461   6.670
 1781SOL    HW1 7182   2.671   4.464   6.591
 1781SOL    HW2 7183   2.678   4.516   6.732
 1782SOL     OW 7184  12.553  13.320   4.354
 1782SOL    HW1 7185  12.556  13.284   4.443
 1782SOL    HW2 7186  12.510  13.251   4.302
 1783SOL     OW 7187  13.009  14.144  10.174
 1783SOL    HW1 7188  12.942  14.079  10.196
 1783SOL    HW2 7189  13.072  14.095  10.122
 1784SOL     OW 7190   2.870   1.553  10.054
 1784SOL    HW1 7191   2.880   1.472  10.106
 1784SOL    HW2 7192   2.956   1.595  10.059
 1785SOL     OW 7193   3.262  14.307  10.837
 1785SOL    HW1 7194   3.191  14.300  10.773
 1785SOL    HW2 7195   3.231  14.372  10.900
 1786SOL     OW 7196  13.776   7.590  12.459
 1786SOL    HW1 7197  13.728   7.533  12.519
 1786SOL    HW2 7198  13.766   7.678  12.497
 1787SOL     OW 7199   0.649   5.874   4.774
 1787SOL    HW1 7200   0.727   5.872   4.719
 1787SOL    HW2 7201   0.677   5.836   4.857
 1788SOL     OW 7202   3.478  12.719   5.451
 1788SOL    HW1 7203   3.554  12.678   5.492
 1788SOL    HW2 7204   3.427  12.754   5.524
 1789SOL     OW 7205   8.736   4.929   4.184
 1789SOL    HW1 7206   8.748   4.920   4.090
 1789SOL    HW2 7207   8.813   4.888   4.223
 1790SOL     OW 7208  10.617   7.850   8.605
 1790SOL    HW1 7209  10.626   7.882   8.694
 1790SOL    HW2 7210  10.522   7.846   8.590
 1791SOL     OW 7211   4.136   9.433  10.937
 1791SOL    HW1 7212   4.085   9.375  10.993
 1791SOL    HW2 7213   4.078   9.454  10.864
 1792SOL     OW 7214   5.057   0.344   0.100
 1792SOL    HW1 7215   5.086   0.417   0.156
 1792SOL    HW2 7216   4.988   0.301   0.151
 1793SOL     OW 7217   7.131   4.350  13.426
 1793SOL    HW1 7218   7.059   4.288  13.420
 1793SOL    HW2 7219   7.133   4.394  13.341
 1794SOL     OW 7220   2.108  10.067   5.635
 1794SOL    HW1 7221   2.186  10.119   5.649
 1794SOL    HW2 7222   2.118  10.030   5.547
 1795SOL     OW 7223   0.212   3.244  14.376
 1795SOL    HW1 7224   0.218   3.295  14.457
 1795SOL    HW2 7225   0.182   3.158  14.404
 1796SOL     OW 7226   8.196   8.291   5.659
 1796SOL    HW1 7227   8.268   8.319   5.602
 1796SOL    HW2 7228   8.124   8.349   5.636
 1797SOL     OW 7229   7.530   2.285   9.964
 1797SOL    HW1 7230   7.505   2.203  10.006
 1797SOL    HW2 7231   7.449   2.316   9.923
 1798SOL     OW 7232   8.756  12.279  10.543
 1798SOL    HW1 7233   8.728  12.196  10.582
 1798SOL    HW2 7234   8.728  12.273  10.451
 1799SOL     OW 7235   1.041   7.736   7.183
 1799SOL    HW1 7236   1.054   7.673   7.254
 1799SOL    HW2 7237   1.040   7.821   7.226
 1800SOL     OW 7238   9.628   4.856   7.522
 1800SOL    HW1 7239   9.551   4.898   7.485
 1800SOL    HW2 7240   9.693   4.926   7.530
 1801SOL     OW 7241  10.545   8.472   4.816
 1801SOL    HW1 7242  10.603   8.548   4.814
 1801SOL    HW2 7243  10.524   8.455   4.724
 1802SOL     OW 7244   4.290  10.334   2.884
 1802SOL    HW1 7245   4.329  10.387   2.953
 1802SOL    HW2 7246   4.319  10.375   2.803
 1803SOL     OW 7247  11.923  14.490   2.608
 1803SOL    HW1 7248  11.969  14.451   2.682
 1803SOL    HW2 7249  11.843  14.439   2.599
 1804SOL     OW 7250   7.261   3.091  12.191
 1804SOL    HW1 7251   7.210   3.016  12.219
 1804SOL    HW2 7252   7.319   3.057  12.124
 1805SOL     OW 7253   3.149   0.461   7.607
 1805SOL    HW1 7254   3.132   0.464   7.701
 1805SOL    HW2 7255   3.096   0.388   7.575
 1806SOL     OW 7256   3.700   6.647  14.477
 1806SOL    HW1 7257   3.767   6.589  14.442
 1806SOL    HW2 7258   3.717   6.650  14.571
 1807SOL     OW 7259   2.363   5.256   9.779
 1807SOL    HW1 7260   2.398   5.318   9.715
 1807SOL    HW2 7261   2.434   5.195   9.796
 1808SOL     OW 7262   3.480   9.011   2.776
 1808SOL    HW1 7263   3.444   9.028   2.863
 1808SOL    HW2 7264   3.562   9.061   2.774
 1809SOL     OW 7265  10.700  12.081  13.312
 1809SOL    HW1 7266  10.636  12.116  13.374
 1809SOL    HW2 7267  10.646  12.047  13.240
 1810SOL     OW 7268   7.631   9.955   5.792
 1810SOL    HW1 7269   7.631  10.016   5.866
 1810SOL    HW2 7270   7.539   9.930   5.782
 1811SOL     OW 7271  12.364  14.825  11.714
 1811SOL    HW1 7272  12.350   0.027  11.762
 1811SOL    HW2 7273  12.277  14.785  11.706
 1812SOL     OW 7274   4.227   1.282   3.471
 1812SOL    HW1 7275   4.163   1.281   3.541
 1812SOL    HW2 7276   4.268   1.369   3.477
 1813SOL     OW 7277  12.525   5.895  10.505
 1813SOL    HW1 7278  12.568   5.970  10.547
 1813SOL    HW2 7279  12.542   5.822  10.566
 1814SOL     OW 7280  10.190  10.052   1.675
 1814SOL    HW1 7281  10.203   9.957   1.677
 1814SOL    HW2 7282  10.142  10.072   1.756
 1815SOL     OW 7283  13.015   7.696  12.344
 1815SOL    HW1 7284  13.069   7.632  12.391
 1815SOL    HW2 7285  13.068   7.722  12.269
 1816SOL     OW 7286   9.037  10.860  11.652
 1816SOL    HW1 7287   9.118  10.809  11.664
 1816SOL    HW2 7288   9.019  10.853  11.558
 1817SOL     OW 7289   2.479   5.216  10.633
 1817SOL    HW1 7290   2.521   5.138  10.595
 1817SOL    HW2 7291   2.501   5.212  10.726
 1818SOL     OW 7292  11.879  13.470  10.829
 1818SOL    HW1 7293  11.963  13.516  10.834
 1818SOL    HW2 7294  11.857  13.451  10.921
 1819SOL     OW 7295   9.162   1.182  12.169
 1819SOL    HW1 7296   9.202   1.239  12.104
 1819SOL    HW2 7297   9.229   1.171  12.236
 1820SOL     OW 7298   3.372   6.330  11.745
 1820SOL    HW1 7299   3.367   6.234  11.750
 1820SOL    HW2 7300   3.374   6.358  11.837
 1821SOL     OW 7301  12.798   6.892  10.948
 1821SOL    HW1 7302  12.825   6.860  11.034
 1821SOL    HW2 7303  12.858   6.851  10.886
 1822SOL     OW 7304   3.839   2.460   8.693
 1822SOL    HW1 7305   3.844   2.456   8.788
 1822SOL    HW2 7306   3.925   2.492   8.666
 1823SOL     OW 7307  10.045  13.884   3.621
 1823SOL    HW1 7308   9.987  13.951   3.586
 1823SOL    HW2 7309   9.993  13.840   3.689
 1824SOL     OW 7310  11.212   8.895  11.814
 1824SOL    HW1 7311  11.165   8.812  11.802
 1824SOL    HW2 7312  11.296   8.881  11.771
 1825SOL     OW 7313   7.645  13.459   0.572
 1825SOL    HW1 7314   7.740  13.468   0.571
 1825SOL    HW2 7315   7.618  13.493   0.657
 1826SOL     OW 7316   9.208  14.567  13.927
 1826SOL    HW1 7317   9.136  14.592  13.986
 1826SOL    HW2 7318   9.266  14.513  13.981
 1827SOL     OW 7319   3.399   9.435  12.249
 1827SOL    HW1 7320   3.441   9.466  12.169
 1827SOL    HW2 7321   3.431   9.345  12.260
 1828SOL     OW 7322  14.679   0.560   0.861
 1828SOL    HW1 7323  14.584   0.547   0.857
 1828SOL    HW2 7324  14.689   0.644   0.905
 1829SOL     OW 7325   5.402  13.717   2.552
 1829SOL    HW1 7326   5.316  13.676   2.540
 1829SOL    HW2 7327   5.384  13.811   2.549
 1830SOL     OW 7328   5.079  10.444   3.076
 1830SOL    HW1 7329   5.157  10.489   3.109
 1830SOL    HW2 7330   5.109  10.354   3.060
 1831SOL     OW 7331   4.165  10.900   0.602
 1831SOL    HW1 7332   4.070  10.915   0.594
 1831SOL    HW2 7333   4.198  10.911   0.512
 1832SOL     OW 7334  10.380   5.423   8.592
 1832SOL    HW1 7335  10.397   5.370   8.670
 1832SOL    HW2 7336  10.371   5.361   8.521
 1833SOL     OW 7337  10.189  12.286   7.082
 1833SOL    HW1 7338  10.176  12.339   7.160
 1833SOL    HW2 7339  10.158  12.341   7.010
 1834SOL     OW 7340   8.768  13.930   2.399
 1834SOL    HW1 7341   8.678  13.940   2.369
 1834SOL    HW2 7342   8.820  13.980   2.336
 1835SOL     OW 7343   7.012   9.996  11.563
 1835SOL    HW1 7344   6.918   9.985  11.548
 1835SOL    HW2 7345   7.040  10.059  11.496
 1836SOL     OW 7346   5.961   7.947   1.437
 1836SOL    HW1 7347   5.946   7.899   1.356
 1836SOL    HW2 7348   5.929   8.035   1.419
 1837SOL     OW 7349   7.862  12.077  12.086
 1837SOL    HW1 7350   7.843  12.073  11.993
 1837SOL    HW2 7351   7.944  12.126  12.092
 1838SOL     OW 7352   3.267   0.501   8.059
 1838SOL    HW1 7353   3.332   0.572   8.066
 1838SOL    HW2 7354   3.230   0.494   8.147
 1839SOL     OW 7355  13.060  13.362  12.183
 1839SOL    HW1 7356  13.074  13.441  12.234
 1839SOL    HW2 7357  13.100  13.292  12.235
 1840SOL     OW 7358   2.309   0.378   8.831
 1840SOL    HW1 7359   2.299   0.316   8.759
 1840SOL    HW2 7360   2.287   0.463   8.792
 1841SOL     OW 7361   7.267   7.803   0.744
 1841SOL    HW1 7362   7.328   7.731   0.730
 1841SOL    HW2 7363   7.207   7.799   0.670
 1842SOL     OW 7364   1.264   8.618   7.958
 1842SOL    HW1 7365   1.183   8.590   8.001
 1842SOL    HW2 7366   1.285   8.702   7.999
 1843SOL     OW 7367  14.650   4.263  10.440
 1843SOL    HW1 7368  14.642   4.337  10.500
 1843SOL    HW2 7369  14.732   4.277  10.393
 1844SOL     OW 7370  14.429  14.490  13.393
 1844SOL    HW1 7371  14.438  14.437  13.313
 1844SOL    HW2 7372  14.416  14.426  13.463
 1845SOL     OW 7373   4.254   6.697   4.475
 1845SOL    HW1 7374   4.316   6.752   4.522
 1845SOL    HW2 7375   4.196   6.663   4.543
 1846SOL     OW 7376   4.672  14.204   0.089
 1846SOL    HW1 7377   4.659  14.168   0.002
 1846SOL    HW2 7378   4.650  14.132   0.149
 1847SOL     OW 7379  12.080   8.405  13.516
 1847SOL    HW1 7380  12.085   8.431  13.424
 1847SOL    HW2 7381  12.113   8.480  13.564
 1848SOL     OW 7382   8.411  10.298  12.208
 1848SOL    HW1 7383   8.482  10.236  12.189
 1848SOL    HW2 7384   8.353  10.292  12.133
 1849SOL     OW 7385  11.707  14.706   1.235
 1849SOL    HW1 7386  11.743  14.629   1.280
 1849SOL    HW2 7387  11.614  14.705   1.256
 1850SOL     OW 7388   8.859   5.585   4.658
 1850SOL    HW1 7389   8.775   5.629   4.669
 1850SOL    HW2 7390   8.871   5.580   4.563
 1851SOL     OW 7391   3.393   9.202   5.019
 1851SOL    HW1 7392   3.335   9.131   5.047
 1851SOL    HW2 7393   3.341   9.252   4.957
 1852SOL     OW 7394   9.760  10.649   6.447
 1852SOL    HW1 7395   9.824  10.610   6.388
 1852SOL    HW2 7396   9.692  10.684   6.390
 1853SOL     OW 7397   7.046   5.768   4.576
 1853SOL    HW1 7398   7.006   5.830   4.516
 1853SOL    HW2 7399   7.118   5.729   4.526
 1854SOL     OW 7400  12.854   6.973   1.962
 1854SOL    HW1 7401  12.817   7.054   1.997
 1854SOL    HW2 7402  12.857   6.987   1.867
 1855SOL     OW 7403   4.731   8.838  13.227
 1855SOL    HW1 7404   4.777   8.813  13.146
 1855SOL    HW2 7405   4.700   8.927  13.209
 1856SOL     OW 7406   0.403   6.307  11.900
 1856SOL    HW1 7407   0.432   6.347  11.818
 1856SOL    HW2 7408   0.450   6.354  11.968
 1857SOL     OW 7409  12.999  11.985   8.574
 1857SOL    HW1 7410  12.990  11.926   8.499
 1857SOL    HW2 7411  12.926  11.964   8.631
 1858SOL     OW 7412   5.711   0.384   5.981
 1858SOL    HW1 7413   5.713   0.479   5.968
 1858SOL    HW2 7414   5.728   0.372   6.074
 1859SOL     OW 7415   0.088   0.907   5.769
 1859SOL    HW1 7416   0.139   0.835   5.733
 1859SOL    HW2 7417   0.068   0.963   5.694
 1860SOL     OW 7418   3.267  12.989  12.406
 1860SOL    HW1 7419   3.196  12.933  12.437
 1860SOL    HW2 7420   3.245  13.006  12.314
 1861SOL     OW 7421   2.409   1.044   5.641
 1861SOL    HW1 7422   2.331   1.018   5.690
 1861SOL    HW2 7423   2.476   0.981   5.667
 1862SOL     OW 7424   2.702  11.073  10.090
 1862SOL    HW1 7425   2.707  11.115  10.176
 1862SOL    HW2 7426   2.623  11.109  10.051
 1863SOL     OW 7427   5.274   3.481   5.634
 1863SOL    HW1 7428   5.311   3.394   5.619
 1863SOL    HW2 7429   5.323   3.538   5.574
 1864SOL     OW 7430  10.859  14.606   1.503
 1864SOL    HW1 7431  10.816  14.668   1.443
 1864SOL    HW2 7432  10.877  14.529   1.449
 1865SOL     OW 7433   0.334   9.410  12.691
 1865SOL    HW1 7434   0.375   9.466  12.625
 1865SOL    HW2 7435   0.390   9.420  12.768
 1866SOL     OW 7436  10.944  10.490   1.515
 1866SOL    HW1 7437  10.871  10.430   1.527
 1866SOL    HW2 7438  10.904  10.577   1.522
 1867SOL     OW 7439   1.044  14.548   0.768
 1867SOL    HW1 7440   1.001  14.628   0.737
 1867SOL    HW2 7441   1.000  14.528   0.851
 1868SOL     OW 7442  14.500  10.504   2.154
 1868SOL    HW1 7443  14.565  10.457   2.206
 1868SOL    HW2 7444  14.416  10.466   2.180
 1869SOL     OW 7445   7.501   9.360  13.707
 1869SOL    HW1 7446   7.514   9.454  13.699
 1869SOL    HW2 7447   7.567   9.332  13.770
 1870SOL     OW 7448   9.917  11.803  10.735
 1870SOL    HW1 7449   9.915  11.893  10.703
 1870SOL    HW2 7450  10.002  11.794  10.777
 1871SOL     OW 7451  13.290   5.034  12.624
 1871SOL    HW1 7452  13.331   4.949  12.607
 1871SOL    HW2 7453  13.264   5.066  12.538
 1872SOL     OW 7454   0.230  10.456   1.394
 1872SOL    HW1 7455   0.249  10.422   1.481
 1872SOL    HW2 7456   0.143  10.494   1.401
 1873SOL     OW 7457   7.943   4.065   5.400
 1873SOL    HW1 7458   7.908   4.081   5.313
 1873SOL    HW2 7459   7.948   4.151   5.440
 1874SOL     OW 7460  10.007   4.775  14.124
 1874SOL    HW1 7461  10.055   4.855  14.148
 1874SOL    HW2 7462   9.986   4.787  14.032
 1875SOL     OW 7463  12.999   4.647   4.986
 1875SOL    HW1 7464  13.019   4.663   5.078
 1875SOL    HW2 7465  13.083   4.621   4.948
 1876SOL     OW 7466   9.490  12.082  14.782
 1876SOL    HW1 7467   9.507  12.037  14.699
 1876SOL    HW2 7468   9.415  12.037  14.820
 1877SOL     OW 7469  11.709  13.409   0.587
 1877SOL    HW1 7470  11.762  13.392   0.509
 1877SOL    HW2 7471  11.763  13.468   0.640
 1878SOL     OW 7472   3.692  10.628   5.777
 1878SOL    HW1 7473   3.673  10.630   5.684
 1878SOL    HW2 7474   3.649  10.549   5.809
 1879SOL     OW 7475   2.897   0.422   7.816
 1879SOL    HW1 7476   2.945   0.503   7.837
 1879SOL    HW2 7477   2.918   0.406   7.724
 1880SOL     OW 7478   2.099   4.717   8.332
 1880SOL    HW1 7479   2.110   4.725   8.427
 1880SOL    HW2 7480   2.093   4.807   8.300
 1881SOL     OW 7481   8.916   6.075   5.715
 1881SOL    HW1 7482   8.860   6.086   5.638
 1881SOL    HW2 7483   8.926   6.164   5.750
 1882SOL     OW 7484   0.558   9.881   5.701
 1882SOL    HW1 7485   0.517   9.810   5.652
 1882SOL    HW2 7486   0.639   9.844   5.735
 1883SOL     OW 7487  10.950   5.797   9.305
 1883SOL    HW1 7488  10.878   5.750   9.349
 1883SOL    HW2 7489  10.910   5.832   9.225
 1884SOL     OW 7490   6.350   6.203   4.395
 1884SOL    HW1 7491   6.399   6.274   4.436
 1884SOL    HW2 7492   6.311   6.242   4.317
 1885SOL     OW 7493   1.137  14.319   2.924
 1885SOL    HW1 7494   1.221  14.365   2.918
 1885SOL    HW2 7495   1.140  14.274   3.008
 1886SOL     OW 7496   3.350  11.168   2.984
 1886SOL    HW1 7497   3.386  11.122   3.060
 1886SOL    HW2 7498   3.425  11.179   2.925
 1887SOL     OW 7499  14.807   5.004   5.038
 1887SOL    HW1 7500  14.859   5.012   5.118
 1887SOL    HW2 7501  14.780   4.912   5.036
 1888SOL     OW 7502   2.609   6.901   4.261
 1888SOL    HW1 7503   2.584   6.817   4.299
 1888SOL    HW2 7504   2.530   6.955   4.267
 1889SOL     OW 7505   5.176  13.993   2.482
 1889SOL    HW1 7506   5.196  14.055   2.413
 1889SOL    HW2 7507   5.253  13.994   2.538
 1890SOL     OW 7508   9.567   5.645   7.314
 1890SOL    HW1 7509   9.554   5.734   7.283
 1890SOL    HW2 7510   9.495   5.630   7.376
 1891SOL     OW 7511   0.817  14.472   5.844
 1891SOL    HW1 7512   0.879  14.529   5.799
 1891SOL    HW2 7513   0.810  14.508   5.932
 1892SOL     OW 7514   8.860  14.188   1.090
 1892SOL    HW1 7515   8.887  14.241   1.165
 1892SOL    HW2 7516   8.891  14.100   1.110
 1893SOL     OW 7517   2.649   7.095   0.694
 1893SOL    HW1 7518   2.666   7.189   0.703
 1893SOL    HW2 7519   2.663   7.077   0.601
 1894SOL     OW 7520  14.778   6.693   9.094
 1894SOL    HW1 7521  14.753   6.716   9.004
 1894SOL    HW2 7522  14.860   6.645   9.084
 1895SOL     OW 7523   7.388  11.841   7.327
 1895SOL    HW1 7524   7.414  11.792   7.405
 1895SOL    HW2 7525   7.460  11.902   7.313
 1896SOL     OW 7526   3.070   8.514   7.474
 1896SOL    HW1 7527   3.059   8.487   7.382
 1896SOL    HW2 7528   3.097   8.434   7.519
 1897SOL     OW 7529  11.417   0.658  14.243
 1897SOL    HW1 7530  11.441   0.587  14.183
 1897SOL    HW2 7531  11.365   0.615  14.311
 1898SOL     OW 7532   0.721   6.850  14.296
 1898SOL    HW1 7533   0.739   6.918  14.231
 1898SOL    HW2 7534   0.808   6.823  14.326
 1899SOL     OW 7535   3.543   2.679   0.025
 1899SOL    HW1 7536   3.634   2.661   0.005
 1899SOL    HW2 7537   3.494   2.630  14.838
 1900SOL     OW 7538  12.171   5.526  13.489
 1900SOL    HW1 7539  12.205   5.538  13.400
 1900SOL    HW2 7540  12.235   5.570  13.545
 1901SOL     OW 7541  12.021   5.389   5.933
 1901SOL    HW1 7542  12.089   5.406   5.868
 1901SOL    HW2 7543  12.020   5.467   5.989
 1902SOL     OW 7544   1.530   9.317   6.530
 1902SOL    HW1 7545   1.561   9.227   6.522
 1902SOL    HW2 7546   1.568   9.349   6.612
 1903SOL     OW 7547  10.349   9.188  10.493
 1903SOL    HW1 7548  10.327   9.102  10.456
 1903SOL    HW2 7549  10.325   9.182  10.585
 1904SOL     OW 7550  10.335   7.357  12.300
 1904SOL    HW1 7551  10.392   7.433  12.307
 1904SOL    HW2 7552  10.346   7.327  12.210
 1905SOL     OW 7553   1.313   7.293   9.101
 1905SOL    HW1 7554   1.347   7.298   9.012
 1905SOL    HW2 7555   1.255   7.369   9.109
 1906SOL     OW 7556   2.543   5.457   7.040
 1906SOL    HW1 7557   2.606   5.510   6.992
 1906SOL    HW2 7558   2.593   5.382   7.071
 1907SOL     OW 7559  14.245   6.981  13.597
 1907SOL    HW1 7560  14.314   7.047  13.609
 1907SOL    HW2 7561  14.234   6.975  13.503
 1908SOL     OW 7562   8.475   3.779  14.053
 1908SOL    HW1 7563   8.458   3.873  14.057
 1908SOL    HW2 7564   8.536   3.769  13.980
 1909SOL     OW 7565  13.914   0.381   7.798
 1909SOL    HW1 7566  14.005   0.406   7.784
 1909SOL    HW2 7567  13.919   0.288   7.823
 1910SOL     OW 7568   7.304   4.001  12.090
 1910SOL    HW1 7569   7.341   3.932  12.036
 1910SOL    HW2 7570   7.214   3.973  12.107
 1911SOL     OW 7571  10.890   9.149   8.405
 1911SOL    HW1 7572  10.846   9.200   8.473
 1911SOL    HW2 7573  10.827   9.146   8.333
 1912SOL     OW 7574   8.127   9.039   2.335
 1912SOL    HW1 7575   8.068   9.004   2.268
 1912SOL    HW2 7576   8.101   8.996   2.416
 1913SOL     OW 7577   4.842   7.293   3.989
 1913SOL    HW1 7578   4.868   7.205   4.014
 1913SOL    HW2 7579   4.925   7.338   3.971
 1914SOL     OW 7580  12.795   8.864   4.732
 1914SOL    HW1 7581  12.701   8.863   4.747
 1914SOL    HW2 7582  12.804   8.873   4.637
 1915SOL     OW 7583  10.605   8.070  12.251
 1915SOL    HW1 7584  10.672   8.024  12.302
 1915SOL    HW2 7585  10.522   8.034  12.282
 1916SOL     OW 7586   8.052  10.986  10.405
 1916SOL    HW1 7587   8.011  10.967  10.321
 1916SOL    HW2 7588   8.086  11.075  10.396
 1917SOL     OW 7589  14.111   6.660   9.245
 1917SOL    HW1 7590  14.150   6.699   9.166
 1917SOL    HW2 7591  14.185   6.644   9.303
 1918SOL     OW 7592   7.854  11.696   2.523
 1918SOL    HW1 7593   7.787  11.631   2.502
 1918SOL    HW2 7594   7.910  11.652   2.588
 1919SOL     OW 7595   1.230   8.623   2.445
 1919SOL    HW1 7596   1.257   8.531   2.451
 1919SOL    HW2 7597   1.153   8.629   2.501
 1920SOL     OW 7598   4.579   8.238   2.662
 1920SOL    HW1 7599   4.631   8.163   2.691
 1920SOL    HW2 7600   4.583   8.299   2.735
 1921SOL     OW 7601   7.576   0.546   8.880
 1921SOL    HW1 7602   7.626   0.499   8.947
 1921SOL    HW2 7603   7.490   0.560   8.919
 1922SOL     OW 7604  10.905  11.941   9.449
 1922SOL    HW1 7605  10.849  12.018   9.443
 1922SOL    HW2 7606  10.925  11.933   9.543
 1923SOL     OW 7607  10.265   5.491   1.235
 1923SOL    HW1 7608  10.190   5.448   1.275
 1923SOL    HW2 7609  10.295   5.430   1.168
 1924SOL     OW 7610   7.194   7.955   6.738
 1924SOL    HW1 7611   7.127   7.889   6.725
 1924SOL    HW2 7612   7.214   7.987   6.650
 1925SOL     OW 7613  14.282   0.888  10.264
 1925SOL    HW1 7614  14.203   0.842  10.291
 1925SOL    HW2 7615  14.323   0.830  10.200
 1926SOL     OW 7616   2.444   9.015   7.752
 1926SOL    HW1 7617   2.488   8.944   7.705
 1926SOL    HW2 7618   2.364   9.031   7.702
 1927SOL     OW 7619   0.149   7.966  11.183
 1927SOL    HW1 7620   0.180   7.900  11.244
 1927SOL    HW2 7621   0.136   7.919  11.101
 1928SOL     OW 7622   8.391  14.319  12.166
 1928SOL    HW1 7623   8.299  14.296  12.161
 1928SOL    HW2 7624   8.400  14.368  12.248
 1929SOL     OW 7625  11.884  13.037   2.795
 1929SOL    HW1 7626  11.822  13.078   2.734
 1929SOL    HW2 7627  11.834  12.966   2.835
 1930SOL     OW 7628   7.484   3.256   5.571
 1930SOL    HW1 7629   7.524   3.257   5.658
 1930SOL    HW2 7630   7.559   3.258   5.511
 1931SOL     OW 7631  10.922   1.134   6.742
 1931SOL    HW1 7632  10.925   1.164   6.833
 1931SOL    HW2 7633  10.857   1.064   6.741
 1932SOL     OW 7634   9.003   9.640  13.313
 1932SOL    HW1 7635   9.049   9.723  13.301
 1932SOL    HW2 7636   8.941   9.637  13.240
 1933SOL     OW 7637  12.451   5.613   2.221
 1933SOL    HW1 7638  12.473   5.526   2.189
 1933SOL    HW2 7639  12.367   5.634   2.182
 1934SOL     OW 7640   6.567  10.459  13.286
 1934SOL    HW1 7641   6.497  10.394  13.290
 1934SOL    HW2 7642   6.571  10.485  13.194
 1935SOL     OW 7643   7.224   8.358  13.927
 1935SOL    HW1 7644   7.143   8.307  13.938
 1935SOL    HW2 7645   7.270   8.315  13.856
 1936SOL     OW 7646   7.714   2.274   1.029
 1936SOL    HW1 7647   7.708   2.310   0.940
 1936SOL    HW2 7648   7.806   2.251   1.040
 1937SOL     OW 7649  13.703  13.889  13.918
 1937SOL    HW1 7650  13.794  13.861  13.906
 1937SOL    HW2 7651  13.651  13.821  13.875
 1938SOL     OW 7652   4.668   3.740   9.272
 1938SOL    HW1 7653   4.634   3.751   9.361
 1938SOL    HW2 7654   4.598   3.774   9.215
 1939SOL     OW 7655   3.381   2.185   8.322
 1939SOL    HW1 7656   3.320   2.131   8.272
 1939SOL    HW2 7657   3.459   2.130   8.332
 1940SOL     OW 7658   6.644   5.919  14.143
 1940SOL    HW1 7659   6.606   5.915  14.055
 1940SOL    HW2 7660   6.655   5.827  14.169
 1941SOL     OW 7661   0.824   0.243   3.956
 1941SOL    HW1 7662   0.873   0.307   3.904
 1941SOL    HW2 7663   0.891   0.188   3.995
 1942SOL     OW 7664   4.227   9.377   3.043
 1942SOL    HW1 7665   4.299   9.389   3.106
 1942SOL    HW2 7666   4.151   9.416   3.086
 1943SOL     OW 7667  14.351  10.013  12.944
 1943SOL    HW1 7668  14.289  10.012  13.016
 1943SOL    HW2 7669  14.388  10.101  12.946
 1944SOL     OW 7670   7.783  10.272   0.433
 1944SOL    HW1 7671   7.817  10.210   0.497
 1944SOL    HW2 7672   7.688  10.259   0.434
 1945SOL     OW 7673  13.978  10.416  12.368
 1945SOL    HW1 7674  13.900  10.435  12.420
 1945SOL    HW2 7675  14.050  10.460  12.415
 1946SOL     OW 7676   1.581  10.709   6.950
 1946SOL    HW1 7677   1.664  10.715   6.902
 1946SOL    HW2 7678   1.607  10.698   7.041
 1947SOL     OW 7679   5.243   6.956   0.168
 1947SOL    HW1 7680   5.255   6.911   0.252
 1947SOL    HW2 7681   5.189   7.032   0.190
 1948SOL     OW 7682   2.708   8.380  12.256
 1948SOL    HW1 7683   2.770   8.361  12.326
 1948SOL    HW2 7684   2.731   8.317  12.187
 1949SOL     OW 7685  10.891   2.551   3.026
 1949SOL    HW1 7686  10.811   2.598   3.049
 1949SOL    HW2 7687  10.961   2.599   3.070
 1950SOL     OW 7688  13.876   5.851   0.868
 1950SOL    HW1 7689  13.851   5.771   0.822
 1950SOL    HW2 7690  13.945   5.889   0.815
 1951SOL     OW 7691   0.662  14.537   9.724
 1951SOL    HW1 7692   0.671  14.473   9.795
 1951SOL    HW2 7693   0.616  14.611   9.764
 1952SOL     OW 7694   9.266   6.047  10.669
 1952SOL    HW1 7695   9.263   6.094  10.585
 1952SOL    HW2 7696   9.281   5.956  10.644
 1953SOL     OW 7697  12.414  10.953   3.898
 1953SOL    HW1 7698  12.452  10.901   3.968
 1953SOL    HW2 7699  12.337  10.993   3.937
 1954SOL     OW 7700  12.319  11.493  11.650
 1954SOL    HW1 7701  12.340  11.438  11.726
 1954SOL    HW2 7702  12.355  11.446  11.575
 1955SOL     OW 7703   9.747   2.648  11.244
 1955SOL    HW1 7704   9.737   2.555  11.224
 1955SOL    HW2 7705   9.657   2.682  11.247
 1956SOL     OW 7706   2.329   4.015  10.867
 1956SOL    HW1 7707   2.304   3.935  10.913
 1956SOL    HW2 7708   2.259   4.029  10.803
 1957SOL     OW 7709  10.864   0.265   8.250
 1957SOL    HW1 7710  10.782   0.301   8.216
 1957SOL    HW2 7711  10.879   0.311   8.332
 1958SOL     OW 7712   9.389   6.255   6.061
 1958SOL    HW1 7713   9.399   6.350   6.073
 1958SOL    HW2 7714   9.474   6.226   6.029
 1959SOL     OW 7715   3.910   0.970   9.513
 1959SOL    HW1 7716   3.949   1.052   9.546
 1959SOL    HW2 7717   3.818   0.993   9.496
 1960SOL     OW 7718  10.220   6.716  11.668
 1960SOL    HW1 7719  10.278   6.727  11.744
 1960SOL    HW2 7720  10.188   6.804  11.649
 1961SOL     OW 7721   9.578   8.820   4.756
 1961SOL    HW1 7722   9.606   8.731   4.777
 1961SOL    HW2 7723   9.492   8.808   4.715
 1962SOL     OW 7724   6.329   5.864  12.128
 1962SOL    HW1 7725   6.351   5.771  12.128
 1962SOL    HW2 7726   6.233   5.866  12.130
 1963SOL     OW 7727   2.987  14.637   4.255
 1963SOL    HW1 7728   2.979  14.562   4.313
 1963SOL    HW2 7729   3.078  14.636   4.225
 1964SOL     OW 7730   2.014   9.942  14.747
 1964SOL    HW1 7731   2.073   9.882  14.702
 1964SOL    HW2 7732   1.947   9.886  14.786
 1965SOL     OW 7733   2.471  11.355  12.214
 1965SOL    HW1 7734   2.461  11.443  12.250
 1965SOL    HW2 7735   2.528  11.367  12.138
 1966SOL     OW 7736   8.653   9.826  10.394
 1966SOL    HW1 7737   8.636   9.838  10.301
 1966SOL    HW2 7738   8.568   9.801  10.430
 1967SOL     OW 7739   2.129   4.442  12.442
 1967SOL    HW1 7740   2.074   4.506  12.397
 1967SOL    HW2 7741   2.198   4.421  12.380
 1968SOL     OW 7742   9.026  12.811   1.619
 1968SOL    HW1 7743   8.949  12.757   1.607
 1968SOL    HW2 7744   9.073  12.769   1.692
 1969SOL     OW 7745  13.844   8.987   6.698
 1969SOL    HW1 7746  13.909   8.917   6.693
 1969SOL    HW2 7747  13.832   9.015   6.607
 1970SOL     OW 7748   1.983   8.776  10.940
 1970SOL    HW1 7749   2.006   8.787  10.848
 1970SOL    HW2 7750   2.002   8.861  10.979
 1971SOL     OW 7751  10.461   6.284  14.571
 1971SOL    HW1 7752  10.435   6.351  14.508
 1971SOL    HW2 7753  10.556   6.276  14.560
 1972SOL     OW 7754  10.878   7.610  12.371
 1972SOL    HW1 7755  10.789   7.592  12.341
 1972SOL    HW2 7756  10.932   7.544  12.326
 1973SOL     OW 7757  10.076   4.276   8.251
 1973SOL    HW1 7758  10.015   4.347   8.268
 1973SOL    HW2 7759  10.149   4.317   8.206
 1974SOL     OW 7760   3.347  12.587   3.826
 1974SOL    HW1 7761   3.433  12.564   3.862
 1974SOL    HW2 7762   3.366  12.619   3.737
 1975SOL     OW 7763   5.787   8.866   8.396
 1975SOL    HW1 7764   5.868   8.854   8.446
 1975SOL    HW2 7765   5.803   8.943   8.342
 1976SOL     OW 7766  13.295   6.889   8.977
 1976SOL    HW1 7767  13.243   6.893   8.897
 1976SOL    HW2 7768  13.339   6.974   8.982
 1977SOL     OW 7769   5.217  12.491   4.752
 1977SOL    HW1 7770   5.154  12.443   4.805
 1977SOL    HW2 7771   5.168  12.517   4.674
 1978SOL     OW 7772   9.507   9.783   7.840
 1978SOL    HW1 7773   9.593   9.816   7.810
 1978SOL    HW2 7774   9.496   9.701   7.793
 1979SOL     OW 7775   1.593   3.676  13.749
 1979SOL    HW1 7776   1.609   3.762  13.709
 1979SOL    HW2 7777   1.547   3.627  13.681
 1980SOL     OW 7778   6.150   8.062   4.050
 1980SOL    HW1 7779   6.095   8.112   3.990
 1980SOL    HW2 7780   6.184   7.990   3.998
 1981SOL     OW 7781   2.181  13.646   7.987
 1981SOL    HW1 7782   2.189  13.561   8.031
 1981SOL    HW2 7783   2.265  13.688   8.001
 1982SOL     OW 7784   2.507   6.704   2.530
 1982SOL    HW1 7785   2.503   6.616   2.492
 1982SOL    HW2 7786   2.508   6.763   2.454
 1983SOL     OW 7787   6.448   9.280   8.825
 1983SOL    HW1 7788   6.452   9.342   8.898
 1983SOL    HW2 7789   6.414   9.331   8.752
 1984SOL     OW 7790   4.041  10.145   9.193
 1984SOL    HW1 7791   4.007  10.214   9.251
 1984SOL    HW2 7792   4.116  10.186   9.149
 1985SOL     OW 7793   4.890   0.296   0.323
 1985SOL    HW1 7794   4.817   0.245   0.288
 1985SOL    HW2 7795   4.883   0.284   0.418
 1986SOL     OW 7796  10.906   9.041   6.885
 1986SOL    HW1 7797  10.891   9.088   6.803
 1986SOL    HW2 7798  10.893   8.949   6.863
 1987SOL     OW 7799   3.415   9.682  14.022
 1987SOL    HW1 7800   3.396   9.588  14.020
 1987SOL    HW2 7801   3.455   9.697  14.107
 1988SOL     OW 7802   1.221  14.310  12.820
 1988SOL    HW1 7803   1.148  14.305  12.882
 1988SOL    HW2 7804   1.185  14.276  12.738
 1989SOL     OW 7805  12.545  13.407   9.657
 1989SOL    HW1 7806  12.451  13.407   9.639
 1989SOL    HW2 7807  12.565  13.498   9.682
 1990SOL     OW 7808  13.258   1.586   6.277
 1990SOL    HW1 7809  13.206   1.618   6.203
 1990SOL    HW2 7810  13.282   1.497   6.253
 1991SOL     OW 7811   1.599  11.839   1.103
 1991SOL    HW1 7812   1.594  11.817   1.196
 1991SOL    HW2 7813   1.586  11.934   1.101
 1992SOL     OW 7814  12.247   8.513  11.137
 1992SOL    HW1 7815  12.223   8.461  11.061
 1992SOL    HW2 7816  12.341   8.502  11.146
 1993SOL     OW 7817   2.350   2.601  13.309
 1993SOL    HW1 7818   2.277   2.640  13.357
 1993SOL    HW2 7819   2.414   2.672  13.302
 1994SOL     OW 7820   8.811   4.327   7.494
 1994SOL    HW1 7821   8.836   4.341   7.585
 1994SOL    HW2 7822   8.875   4.379   7.444
 1995SOL     OW 7823  14.681   3.695   5.061
 1995SOL    HW1 7824  14.694   3.720   5.152
 1995SOL    HW2 7825  14.762   3.720   5.017
 1996SOL     OW 7826   9.410   9.139   0.958
 1996SOL    HW1 7827   9.374   9.126   0.871
 1996SOL    HW2 7828   9.370   9.069   1.011
 1997SOL     OW 7829   9.540   6.839   0.936
 1997SOL    HW1 7830   9.532   6.908   0.870
 1997SOL    HW2 7831   9.495   6.873   1.012
 1998SOL     OW 7832  11.149   5.695  10.479
 1998SOL    HW1 7833  11.094   5.692  10.558
 1998SOL    HW2 7834  11.094   5.739  10.414
 1999SOL     OW 7835   3.246   3.722  13.117
 1999SOL    HW1 7836   3.200   3.641  13.097
 1999SOL    HW2 7837   3.333   3.694  13.145
 2000SOL     OW 7838   8.112  10.427   2.988
 2000SOL    HW1 7839   8.150  10.365   3.051
 2000SOL    HW2 7840   8.184  10.486   2.966
 2001SOL     OW 7841   5.856  12.610  11.460
 2001SOL    HW1 7842   5.785  12.589  11.400
 2001SOL    HW2 7843   5.888  12.695  11.432
 2002SOL     OW 7844  14.425   8.008   2.238
 2002SOL    HW1 7845  14.350   7.969   2.283
 2002SOL    HW2 7846  14.495   8.008   2.303
 2003SOL     OW 7847   1.537  11.971  11.537
 2003SOL    HW1 7848   1.487  12.038  11.584
 2003SOL    HW2 7849   1.600  12.021  11.484
 2004SOL     OW 7850   5.037  14.846   3.854
 2004SOL    HW1 7851   5.008  14.771   3.802
 2004SOL    HW2 7852   4.976  14.849   3.927
 2005SOL     OW 7853   9.424  12.835   6.504
 2005SOL    HW1 7854   9.418  12.857   6.597
 2005SOL    HW2 7855   9.394  12.914   6.459
 2006SOL     OW 7856   2.036   0.784   0.495
 2006SOL    HW1 7857   2.044   0.735   0.414
 2006SOL    HW2 7858   2.126   0.793   0.526
 2007SOL     OW 7859   0.704  11.401   3.572
 2007SOL    HW1 7860   0.733  11.441   3.654
 2007SOL    HW2 7861   0.764  11.435   3.507
 2008SOL     OW 7862   6.346   8.723   3.682
 2008SOL    HW1 7863   6.277   8.785   3.657
 2008SOL    HW2 7864   6.370   8.679   3.601
 2009SOL     OW 7865   5.773  10.833  10.192
 2009SOL    HW1 7866   5.742  10.747  10.162
 2009SOL    HW2 7867   5.790  10.882  10.112
 2010SOL     OW 7868  12.564   6.636  11.886
 2010SOL    HW1 7869  12.657   6.637  11.906
 2010SOL    HW2 7870  12.523   6.674  11.964
 2011SOL     OW 7871   2.088   3.939  13.618
 2011SOL    HW1 7872   2.088   3.845  13.598
 2011SOL    HW2 7873   2.156   3.975  13.562
 2012SOL     OW 7874   0.597   0.053   4.192
 2012SOL    HW1 7875   0.548   0.067   4.111
 2012SOL    HW2 7876   0.537   0.003   4.247
 2013SOL     OW 7877  10.461   6.044   3.267
 2013SOL    HW1 7878  10.458   5.950   3.252
 2013SOL    HW2 7879  10.512   6.054   3.348
 2014SOL     OW 7880  14.721   2.639  12.936
 2014SOL    HW1 7881  14.746   2.668  12.848
 2014SOL    HW2 7882  14.651   2.575  12.921
 2015SOL     OW 7883  13.781   4.667   2.660
 2015SOL    HW1 7884  13.794   4.748   2.612
 2015SOL    HW2 7885  13.775   4.694   2.752
 2016SOL     OW 7886   3.304   7.583  14.502
 2016SOL    HW1 7887   3.350   7.550  14.425
 2016SOL    HW2 7888   3.246   7.512  14.529
 2017SOL     OW 7889   7.857   8.213   6.017
 2017SOL    HW1 7890   7.781   8.158   6.033
 2017SOL    HW2 7891   7.875   8.203   5.923
 2018SOL     OW 7892   4.137  13.621  11.874
 2018SOL    HW1 7893   4.222  13.641  11.914
 2018SOL    HW2 7894   4.115  13.535  11.909
 2019SOL     OW 7895   4.921   0.508   5.399
 2019SOL    HW1 7896   4.917   0.494   5.305
 2019SOL    HW2 7897   4.955   0.597   5.408
 2020SOL     OW 7898   2.921   0.433   0.365
 2020SOL    HW1 7899   2.866   0.487   0.309
 2020SOL    HW2 7900   2.918   0.476   0.450
 2021SOL     OW 7901  10.524   3.964  10.933
 2021SOL    HW1 7902  10.557   3.936  11.018
 2021SOL    HW2 7903  10.571   3.910  10.870
 2022SOL     OW 7904   4.317   4.881  14.150
 2022SOL    HW1 7905   4.327   4.786  14.146
 2022SOL    HW2 7906   4.251   4.895  14.218
 2023SOL     OW 7907   4.821   0.884  11.537
 2023SOL    HW1 7908   4.796   0.841  11.619
 2023SOL    HW2 7909   4.889   0.828  11.500
 2024SOL     OW 7910   6.724   2.873  12.611
 2024SOL    HW1 7911   6.709   2.813  12.684
 2024SOL    HW2 7912   6.778   2.943  12.648
 2025SOL     OW 7913  14.477   3.146   6.604
 2025SOL    HW1 7914  14.480   3.174   6.512
 2025SOL    HW2 7915  14.470   3.050   6.599
 2026SOL     OW 7916  10.853   7.859   3.486
 2026SOL    HW1 7917  10.791   7.787   3.498
 2026SOL    HW2 7918  10.922   7.822   3.431
 2027SOL     OW 7919   2.969   6.362  13.375
 2027SOL    HW1 7920   2.878   6.389  13.363
 2027SOL    HW2 7921   2.990   6.386  13.465
 2028SOL     OW 7922  14.842  13.882  12.726
 2028SOL    HW1 7923  14.849  13.897  12.820
 2028SOL    HW2 7924  14.763  13.829  12.716
 2029SOL     OW 7925  10.725  14.634   0.483
 2029SOL    HW1 7926  10.676  14.695   0.537
 2029SOL    HW2 7927  10.740  14.558   0.540
 2030SOL     OW 7928   3.584   6.731   9.263
 2030SOL    HW1 7929   3.523   6.736   9.337
 2030SOL    HW2 7930   3.567   6.646   9.224
 2031SOL     OW 7931   9.326   1.289   0.332
 2031SOL    HW1 7932   9.250   1.332   0.293
 2031SOL    HW2 7933   9.290   1.220   0.388
 2032SOL     OW 7934   8.640  11.047   0.640
 2032SOL    HW1 7935   8.630  11.099   0.720
 2032SOL    HW2 7936   8.552  11.018   0.619
 2033SOL     OW 7937   7.725   6.702   3.663
 2033SOL    HW1 7938   7.681   6.749   3.733
 2033SOL    HW2 7939   7.703   6.610   3.677
 2034SOL     OW 7940   3.646   6.450   2.042
 2034SOL    HW1 7941   3.712   6.516   2.062
 2034SOL    HW2 7942   3.607   6.479   1.959
 2035SOL     OW 7943  14.694  14.352  12.906
 2035SOL    HW1 7944  14.605  14.319  12.915
 2035SOL    HW2 7945  14.749  14.273  12.906
 2036SOL     OW 7946   3.468   1.777  11.374
 2036SOL    HW1 7947   3.462   1.830  11.453
 2036SOL    HW2 7948   3.536   1.818  11.322
 2037SOL     OW 7949   0.851  12.114   2.110
 2037SOL    HW1 7950   0.763  12.116   2.147
 2037SOL    HW2 7951   0.905  12.160   2.175
 2038SOL     OW 7952   9.075   4.515   3.242
 2038SOL    HW1 7953   9.100   4.571   3.315
 2038SOL    HW2 7954   9.007   4.564   3.196
 2039SOL     OW 7955   6.424   2.326   3.880
 2039SOL    HW1 7956   6.398   2.234   3.881
 2039SOL    HW2 7957   6.451   2.344   3.970
 2040SOL     OW 7958   3.033   2.520   3.619
 2040SOL    HW1 7959   3.088   2.542   3.544
 2040SOL    HW2 7960   2.949   2.496   3.581
 2041SOL     OW 7961   5.545  12.903   5.257
 2041SOL    HW1 7962   5.496  12.983   5.274
 2041SOL    HW2 7963   5.530  12.849   5.335
 2042SOL     OW 7964   4.238  10.876   8.640
 2042SOL    HW1 7965   4.321  10.883   8.591
 2042SOL    HW2 7966   4.174  10.918   8.583
 2043SOL     OW 7967   5.986   7.543   5.718
 2043SOL    HW1 7968   6.027   7.619   5.675
 2043SOL    HW2 7969   6.060   7.486   5.740
 2044SOL     OW 7970   3.204  10.394   0.567
 2044SOL    HW1 7971   3.243  10.345   0.639
 2044SOL    HW2 7972   3.132  10.339   0.536
 2045SOL     OW 7973   0.928  10.324  11.097
 2045SOL    HW1 7974   0.906  10.231  11.102
 2045SOL    HW2 7975   0.942  10.350  11.188
 2046SOL     OW 7976   0.341   8.269  14.258
 2046SOL    HW1 7977   0.320   8.200  14.321
 2046SOL    HW2 7978   0.383   8.337  14.310
 2047SOL     OW 7979  14.000   7.018   1.830
 2047SOL    HW1 7980  13.919   6.972   1.852
 2047SOL    HW2 7981  13.973   7.082   1.764
 2048SOL     OW 7982  10.494   8.259  10.527
 2048SOL    HW1 7983  10.570   8.312  10.502
 2048SOL    HW2 7984  10.523   8.210  10.604
 2049SOL     OW 7985   1.019   4.379   9.411
 2049SOL    HW1 7986   1.094   4.439   9.417
 2049SOL    HW2 7987   0.943   4.437   9.408
 2050SOL     OW 7988   9.551  10.575  11.988
 2050SOL    HW1 7989   9.638  10.613  11.997
 2050SOL    HW2 7990   9.492  10.640  12.026
 2051SOL     OW 7991   1.426  14.367   0.226
 2051SOL    HW1 7992   1.376  14.443   0.196
 2051SOL    HW2 7993   1.503  14.404   0.270
 2052SOL     OW 7994   6.644   2.334  10.640
 2052SOL    HW1 7995   6.613   2.259  10.590
 2052SOL    HW2 7996   6.685   2.391  10.575
 2053SOL     OW 7997  12.952   0.277   8.423
 2053SOL    HW1 7998  12.922   0.288   8.513
 2053SOL    HW2 7999  13.047   0.290   8.428
 2054SOL     OW 8000  11.049   6.580   5.207
 2054SOL    HW1 8001  11.089   6.558   5.123
 2054SOL    HW2 8002  10.955   6.570   5.192
 2055SOL     OW 8003   0.001   1.803   6.198
 2055SOL    HW1 8004   0.056   1.877   6.168
 2055SOL    HW2 8005   0.064   1.740   6.234
 2056SOL     OW 8006   3.966   2.352   6.284
 2056SOL    HW1 8007   4.003   2.402   6.211
 2056SOL    HW2 8008   4.038   2.345   6.347
 2057SOL     OW 8009   7.913  14.598   9.818
 2057SOL    HW1 8010   7.909  14.516   9.770
 2057SOL    HW2 8011   7.826  14.636   9.809
 2058SOL     OW 8012   4.189   2.897   6.395
 2058SOL    HW1 8013   4.224   2.919   6.482
 2058SOL    HW2 8014   4.123   2.830   6.412
 2059SOL     OW 8015   2.577   1.590   9.176
 2059SOL    HW1 8016   2.639   1.524   9.207
 2059SOL    HW2 8017   2.565   1.571   9.083
 2060SOL     OW 8018   2.087  11.020   4.921
 2060SOL    HW1 8019   2.167  11.072   4.927
 2060SOL    HW2 8020   2.081  10.993   4.830
 2061SOL     OW 8021   0.869   1.625  10.450
 2061SOL    HW1 8022   0.870   1.545  10.399
 2061SOL    HW2 8023   0.829   1.690  10.392
 2062SOL     OW 8024   3.972  13.895  10.822
 2062SOL    HW1 8025   3.946  13.976  10.866
 2062SOL    HW2 8026   4.037  13.856  10.880
 2063SOL     OW 8027   1.390   9.607   3.733
 2063SOL    HW1 8028   1.327   9.545   3.771
 2063SOL    HW2 8029   1.432   9.558   3.662
 2064SOL     OW 8030  11.046  12.743   7.093
 2064SOL    HW1 8031  10.971  12.799   7.074
 2064SOL    HW2 8032  11.012  12.675   7.151
 2065SOL     OW 8033   5.996  10.199  12.465
 2065SOL    HW1 8034   5.973  10.166  12.552
 2065SOL    HW2 8035   6.051  10.276  12.481
 2066SOL     OW 8036   0.344   2.126  14.175
 2066SOL    HW1 8037   0.416   2.063  14.171
 2066SOL    HW2 8038   0.295   2.112  14.094
 2067SOL     OW 8039   5.312  10.682   2.081
 2067SOL    HW1 8040   5.268  10.612   2.034
 2067SOL    HW2 8041   5.393  10.643   2.111
 2068SOL     OW 8042   1.984   1.055  10.594
 2068SOL    HW1 8043   2.050   1.031  10.528
 2068SOL    HW2 8044   2.030   1.047  10.677
 2069SOL     OW 8045   6.659   0.790  13.672
 2069SOL    HW1 8046   6.710   0.862  13.709
 2069SOL    HW2 8047   6.580   0.785  13.726
 2070SOL     OW 8048  14.316   4.336   3.076
 2070SOL    HW1 8049  14.289   4.354   3.166
 2070SOL    HW2 8050  14.380   4.404   3.056
 2071SOL     OW 8051   3.423   3.919   0.606
 2071SOL    HW1 8052   3.484   3.849   0.582
 2071SOL    HW2 8053   3.350   3.908   0.544
 2072SOL     OW 8054   5.551  14.127  13.783
 2072SOL    HW1 8055   5.611  14.200  13.767
 2072SOL    HW2 8056   5.512  14.146  13.868
 2073SOL     OW 8057   1.048  14.148   3.169
 2073SOL    HW1 8058   1.092  14.148   3.254
 2073SOL    HW2 8059   0.955  14.157   3.190
 2074SOL     OW 8060  11.059  12.594  13.519
 2074SOL    HW1 8061  11.012  12.634  13.592
 2074SOL    HW2 8062  11.093  12.668  13.469
 2075SOL     OW 8063   4.277   5.480   8.857
 2075SOL    HW1 8064   4.333   5.555   8.837
 2075SOL    HW2 8065   4.316   5.440   8.934
 2076SOL     OW 8066   9.626  14.220   4.142
 2076SOL    HW1 8067   9.610  14.251   4.053
 2076SOL    HW2 8068   9.568  14.145   4.152
 2077SOL     OW 8069   5.754  11.404  11.306
 2077SOL    HW1 8070   5.841  11.436  11.286
 2077SOL    HW2 8071   5.734  11.343  11.235
 2078SOL     OW 8072  10.732   8.803   2.330
 2078SOL    HW1 8073  10.638   8.807   2.313
 2078SOL    HW2 8074  10.752   8.710   2.338
 2079SOL     OW 8075   0.064   3.073  12.771
 2079SOL    HW1 8076   0.102   2.999  12.819
 2079SOL    HW2 8077   0.056   3.042  12.681
 2080SOL     OW 8078  10.819  12.342   1.641
 2080SOL    HW1 8079  10.845  12.271   1.583
 2080SOL    HW2 8080  10.747  12.306   1.693
 2081SOL     OW 8081  12.723  11.407  10.840
 2081SOL    HW1 8082  12.710  11.502  10.843
 2081SOL    HW2 8083  12.635  11.370  10.832
 2082SOL     OW 8084   0.930   7.067   6.479
 2082SOL    HW1 8085   0.856   7.093   6.533
 2082SOL    HW2 8086   1.004   7.116   6.514
 2083SOL     OW 8087   4.112   0.923   5.823
 2083SOL    HW1 8088   4.182   0.884   5.770
 2083SOL    HW2 8089   4.143   0.914   5.913
 2084SOL     OW 8090   0.677   7.848  10.228
 2084SOL    HW1 8091   0.586   7.818  10.219
 2084SOL    HW2 8092   0.723   7.808  10.154
 2085SOL     OW 8093   4.284   2.998   6.131
 2085SOL    HW1 8094   4.216   2.938   6.102
 2085SOL    HW2 8095   4.283   2.991   6.227
 2086SOL     OW 8096   1.429   3.937   3.445
 2086SOL    HW1 8097   1.348   3.888   3.429
 2086SOL    HW2 8098   1.417   4.019   3.396
 2087SOL     OW 8099   0.289   0.536  10.589
 2087SOL    HW1 8100   0.359   0.485  10.550
 2087SOL    HW2 8101   0.209   0.491  10.563
 2088SOL     OW 8102   3.906   2.580   7.687
 2088SOL    HW1 8103   3.955   2.617   7.760
 2088SOL    HW2 8104   3.964   2.592   7.611
 2089SOL     OW 8105   8.544  14.855  11.683
 2089SOL    HW1 8106   8.478  14.787  11.699
 2089SOL    HW2 8107   8.494   0.057  11.683
 2090SOL     OW 8108   8.294   4.388  12.578
 2090SOL    HW1 8109   8.366   4.442  12.543
 2090SOL    HW2 8110   8.231   4.452  12.611
 2091SOL     OW 8111   0.433  12.495   0.442
 2091SOL    HW1 8112   0.437  12.522   0.534
 2091SOL    HW2 8113   0.417  12.576   0.394
 2092SOL     OW 8114  12.166   6.055  10.163
 2092SOL    HW1 8115  12.133   6.059  10.074
 2092SOL    HW2 8116  12.260   6.042  10.153
 2093SOL     OW 8117   1.852  10.829   5.526
 2093SOL    HW1 8118   1.870  10.784   5.444
 2093SOL    HW2 8119   1.780  10.889   5.507
 2094SOL     OW 8120  11.972   9.054  10.101
 2094SOL    HW1 8121  11.987   9.033  10.194
 2094SOL    HW2 8122  11.902   8.994  10.074
 2095SOL     OW 8123   1.784   9.964   0.827
 2095SOL    HW1 8124   1.736  10.018   0.764
 2095SOL    HW2 8125   1.716   9.926   0.882
 2096SOL     OW 8126  12.728   4.156   6.136
 2096SOL    HW1 8127  12.719   4.251   6.133
 2096SOL    HW2 8128  12.740   4.136   6.229
 2097SOL     OW 8129  12.710   6.549   0.448
 2097SOL    HW1 8130  12.653   6.481   0.483
 2097SOL    HW2 8131  12.785   6.502   0.412
 2098SOL     OW 8132   2.846   7.402   4.978
 2098SOL    HW1 8133   2.825   7.327   5.034
 2098SOL    HW2 8134   2.853   7.364   4.890
 2099SOL     OW 8135  11.195  11.190   6.618
 2099SOL    HW1 8136  11.148  11.140   6.684
 2099SOL    HW2 8137  11.227  11.124   6.556
 2100SOL     OW 8138   3.933   0.637   8.262
 2100SOL    HW1 8139   3.921   0.554   8.308
 2100SOL    HW2 8140   3.867   0.695   8.298
 2101SOL     OW 8141   9.224   7.271   1.739
 2101SOL    HW1 8142   9.191   7.360   1.754
 2101SOL    HW2 8143   9.163   7.215   1.787
 2102SOL     OW 8144   6.070  13.226  12.903
 2102SOL    HW1 8145   6.045  13.312  12.936
 2102SOL    HW2 8146   6.018  13.165  12.954
 2103SOL     OW 8147   6.289   6.062  13.471
 2103SOL    HW1 8148   6.216   6.120  13.491
 2103SOL    HW2 8149   6.359   6.121  13.441
 2104SOL     OW 8150  11.649   0.017  13.672
 2104SOL    HW1 8151  11.595   0.078  13.722
 2104SOL    HW2 8152  11.716   0.072  13.632
 2105SOL     OW 8153  13.128   3.424  10.901
 2105SOL    HW1 8154  13.072   3.381  10.837
 2105SOL    HW2 8155  13.162   3.352  10.955
 2106SOL     OW 8156  10.691   3.037   3.606
 2106SOL    HW1 8157  10.602   3.025   3.571
 2106SOL    HW2 8158  10.746   2.980   3.552
 2107SOL     OW 8159   4.167  11.368   9.351
 2107SOL    HW1 8160   4.177  11.334   9.440
 2107SOL    HW2 8161   4.255  11.369   9.315
 2108SOL     OW 8162   8.845   1.133   4.843
 2108SOL    HW1 8163   8.925   1.174   4.875
 2108SOL    HW2 8164   8.864   1.114   4.751
 2109SOL     OW 8165   9.539   7.580  12.916
 2109SOL    HW1 8166   9.453   7.552  12.949
 2109SOL    HW2 8167   9.601   7.521  12.959
 2110SOL     OW 8168  12.653   7.526   9.285
 2110SOL    HW1 8169  12.687   7.483   9.363
 2110SOL    HW2 8170  12.707   7.604   9.275
 2111SOL     OW 8171  14.322   2.061   8.510
 2111SOL    HW1 8172  14.292   1.977   8.476
 2111SOL    HW2 8173  14.409   2.044   8.546
 2112SOL     OW 8174  14.660   6.696  10.503
 2112SOL    HW1 8175  14.643   6.765  10.567
 2112SOL    HW2 8176  14.574   6.674  10.467
 2113SOL     OW 8177  10.771  10.891   5.969
 2113SOL    HW1 8178  10.846  10.888   5.910
 2113SOL    HW2 8179  10.738  10.802   5.971
 2114SOL     OW 8180   4.336   7.489  14.008
 2114SOL    HW1 8181   4.399   7.469  13.939
 2114SOL    HW2 8182   4.388   7.491  14.088
 2115SOL     OW 8183  11.723   6.970   9.178
 2115SOL    HW1 8184  11.727   6.897   9.117
 2115SOL    HW2 8185  11.631   6.978   9.202
 2116SOL     OW 8186  13.601   1.896  10.191
 2116SOL    HW1 8187  13.669   1.922  10.253
 2116SOL    HW2 8188  13.528   1.954  10.208
 2117SOL     OW 8189   5.594   1.955   2.157
 2117SOL    HW1 8190   5.600   2.050   2.142
 2117SOL    HW2 8191   5.510   1.943   2.200
 2118SOL     OW 8192   8.807   4.719  13.976
 2118SOL    HW1 8193   8.774   4.808  13.991
 2118SOL    HW2 8194   8.902   4.726  13.988
 2119SOL     OW 8195  12.461  12.587   5.475
 2119SOL    HW1 8196  12.542  12.540   5.495
 2119SOL    HW2 8197  12.397  12.519   5.454
 2120SOL     OW 8198  10.876  13.605   9.648
 2120SOL    HW1 8199  10.785  13.598   9.678
 2120SOL    HW2 8200  10.881  13.548   9.572
 2121SOL     OW 8201  11.724  12.839   2.884
 2121SOL    HW1 8202  11.738  12.747   2.861
 2121SOL    HW2 8203  11.649  12.838   2.943
 2122SOL     OW 8204   1.603   6.613   9.527
 2122SOL    HW1 8205   1.653   6.673   9.471
 2122SOL    HW2 8206   1.583   6.665   9.605
 2123SOL     OW 8207   2.214   6.671   8.661
 2123SOL    HW1 8208   2.279   6.601   8.655
 2123SOL    HW2 8209   2.242   6.735   8.596
 2124SOL     OW 8210   9.120   4.018   5.150
 2124SOL    HW1 8211   9.085   3.966   5.223
 2124SOL    HW2 8212   9.214   4.020   5.164
 2125SOL     OW 8213   9.665   0.174   2.566
 2125SOL    HW1 8214   9.650   0.080   2.570
 2125SOL    HW2 8215   9.721   0.187   2.489
 2126SOL     OW 8216  11.789  10.998  11.729
 2126SOL    HW1 8217  11.710  10.951  11.757
 2126SOL    HW2 8218  11.771  11.089  11.751
 2127SOL     OW 8219  11.201   0.989  11.622
 2127SOL    HW1 8220  11.193   0.902  11.662
 2127SOL    HW2 8221  11.130   0.992  11.558
 2128SOL     OW 8222   6.540   1.277  12.650
 2128SOL    HW1 8223   6.505   1.198  12.610
 2128SOL    HW2 8224   6.494   1.283  12.734
 2129SOL     OW 8225  11.326   6.875   7.919
 2129SOL    HW1 8226  11.300   6.967   7.907
 2129SOL    HW2 8227  11.418   6.879   7.944
 2130SOL     OW 8228  14.826   9.510   5.634
 2130SOL    HW1 8229  14.814   9.452   5.559
 2130SOL    HW2 8230   0.040   9.531   5.634
 2131SOL     OW 8231   2.468   0.831   8.520
 2131SOL    HW1 8232   2.378   0.827   8.489
 2131SOL    HW2 8233   2.465   0.795   8.609
 2132SOL     OW 8234  13.364   3.143  13.326
 2132SOL    HW1 8235  13.418   3.142  13.405
 2132SOL    HW2 8236  13.424   3.117  13.256
 2133SOL     OW 8237  10.024   3.136  10.697
 2133SOL    HW1 8238   9.981   3.205  10.646
 2133SOL    HW2 8239  10.075   3.184  10.762
 2134SOL     OW 8240  12.416  10.123   1.868
 2134SOL    HW1 8241  12.498  10.164   1.840
 2134SOL    HW2 8242  12.414  10.137   1.962
 2135SOL     OW 8243   7.668   5.356   4.548
 2135SOL    HW1 8244   7.676   5.392   4.460
 2135SOL    HW2 8245   7.708   5.422   4.604
 2136SOL     OW 8246  12.384   8.281   7.178
 2136SOL    HW1 8247  12.471   8.307   7.207
 2136SOL    HW2 8248  12.360   8.209   7.235
 2137SOL     OW 8249  12.732  12.494   8.453
 2137SOL    HW1 8250  12.828  12.494   8.460
 2137SOL    HW2 8251  12.714  12.559   8.385
 2138SOL     OW 8252   4.831  10.710  10.392
 2138SOL    HW1 8253   4.792  10.664  10.466
 2138SOL    HW2 8254   4.820  10.803  10.413
 2139SOL     OW 8255   6.163   8.945   4.836
 2139SOL    HW1 8256   6.242   8.966   4.887
 2139SOL    HW2 8257   6.136   9.028   4.798
 2140SOL     OW 8258   1.581   0.167  10.382
 2140SOL    HW1 8259   1.511   0.150  10.446
 2140SOL    HW2 8260   1.538   0.219  10.314
 2141SOL     OW 8261  12.498  10.383   6.804
 2141SOL    HW1 8262  12.508  10.302   6.853
 2141SOL    HW2 8263  12.547  10.368   6.723
 2142SOL     OW 8264   1.291  13.025   2.850
 2142SOL    HW1 8265   1.364  13.079   2.821
 2142SOL    HW2 8266   1.322  12.984   2.930
 2143SOL     OW 8267  10.991   2.810   5.817
 2143SOL    HW1 8268  11.029   2.830   5.731
 2143SOL    HW2 8269  10.897   2.822   5.805
 2144SOL     OW 8270   4.471  14.223   8.231
 2144SOL    HW1 8271   4.488  14.317   8.241
 2144SOL    HW2 8272   4.549  14.190   8.187
 2145SOL     OW 8273   0.592  14.675   7.884
 2145SOL    HW1 8274   0.666  14.714   7.931
 2145SOL    HW2 8275   0.550  14.617   7.947
 2146SOL     OW 8276   9.995   1.440  10.430
 2146SOL    HW1 8277   9.927   1.475  10.373
 2146SOL    HW2 8278   9.960   1.451  10.519
 2147SOL     OW 8279   5.210   5.212  10.389
 2147SOL    HW1 8280   5.253   5.144  10.338
 2147SOL    HW2 8281   5.206   5.177  10.478
 2148SOL     OW 8282   7.744  12.671   9.355
 2148SOL    HW1 8283   7.718  12.579   9.366
 2148SOL    HW2 8284   7.810  12.685   9.423
 2149SOL     OW 8285   3.567   0.479   3.925
 2149SOL    HW1 8286   3.659   0.466   3.902
 2149SOL    HW2 8287   3.568   0.495   4.019
 2150SOL     OW 8288   5.656   9.155   2.537
 2150SOL    HW1 8289   5.661   9.165   2.442
 2150SOL    HW2 8290   5.730   9.099   2.559
 2151SOL     OW 8291  11.602   8.604   9.993
 2151SOL    HW1 8292  11.587   8.633  10.083
 2151SOL    HW2 8293  11.529   8.641   9.943
 2152SOL     OW 8294   5.492   9.893   2.137
 2152SOL    HW1 8295   5.443   9.928   2.212
 2152SOL    HW2 8296   5.454   9.939   2.061
 2153SOL     OW 8297   6.229   8.502  10.722
 2153SOL    HW1 8298   6.225   8.514  10.817
 2153SOL    HW2 8299   6.169   8.568  10.687
 2154SOL     OW 8300  12.510   4.252  13.097
 2154SOL    HW1 8301  12.581   4.187  13.094
 2154SOL    HW2 8302  12.528   4.310  13.024
 2155SOL     OW 8303  13.381   2.681   7.108
 2155SOL    HW1 8304  13.393   2.771   7.137
 2155SOL    HW2 8305  13.455   2.664   7.050
 2156SOL     OW 8306   1.844   4.609  12.746
 2156SOL    HW1 8307   1.801   4.620  12.662
 2156SOL    HW2 8308   1.775   4.624  12.811
 2157SOL     OW 8309   2.062   7.621   8.671
 2157SOL    HW1 8310   2.006   7.699   8.665
 2157SOL    HW2 8311   2.001   7.547   8.671
 2158SOL     OW 8312  13.048  10.845  12.914
 2158SOL    HW1 8313  13.135  10.864  12.880
 2158SOL    HW2 8314  13.009  10.784  12.851
 2159SOL     OW 8315  13.023   6.534   4.170
 2159SOL    HW1 8316  13.079   6.605   4.139
 2159SOL    HW2 8317  12.983   6.568   4.250
 2160SOL     OW 8318   5.076  11.915  12.506
 2160SOL    HW1 8319   5.026  11.913  12.587
 2160SOL    HW2 8320   5.016  11.951  12.441
 2161SOL     OW 8321   6.616  13.251   4.261
 2161SOL    HW1 8322   6.651  13.193   4.193
 2161SOL    HW2 8323   6.588  13.329   4.213
 2162SOL     OW 8324   7.021   9.706   1.879
 2162SOL    HW1 8325   6.938   9.665   1.902
 2162SOL    HW2 8326   7.030   9.778   1.943
 2163SOL     OW 8327  14.678  10.833  11.012
 2163SOL    HW1 8328  14.589  10.829  11.047
 2163SOL    HW2 8329  14.732  10.861  11.086
 2164SOL     OW 8330  10.347   6.367  13.019
 2164SOL    HW1 8331  10.358   6.273  13.035
 2164SOL    HW2 8332  10.333   6.374  12.925
 2165SOL     OW 8333   0.755  13.846   4.631
 2165SOL    HW1 8334   0.769  13.814   4.720
 2165SOL    HW2 8335   0.806  13.926   4.626
 2166SOL     OW 8336  13.544  12.762   4.643
 2166SOL    HW1 8337  13.517  12.775   4.734
 2166SOL    HW2 8338  13.636  12.734   4.649
 2167SOL     OW 8339  14.260   9.123   7.862
 2167SOL    HW1 8340  14.348   9.143   7.832
 2167SOL    HW2 8341  14.272   9.049   7.922
 2168SOL     OW 8342   9.972   8.799   1.869
 2168SOL    HW1 8343   9.924   8.717   1.860
 2168SOL    HW2 8344   9.908   8.867   1.847
 2169SOL     OW 8345   4.945  12.812  12.006
 2169SOL    HW1 8346   4.957  12.720  12.027
 2169SOL    HW2 8347   5.003  12.828  11.932
 2170SOL     OW 8348   7.311   8.863   7.107
 2170SOL    HW1 8349   7.352   8.838   7.024
 2170SOL    HW2 8350   7.295   8.957   7.099
 2171SOL     OW 8351   7.842   7.855  11.371
 2171SOL    HW1 8352   7.900   7.898  11.309
 2171SOL    HW2 8353   7.901   7.802  11.425
 2172SOL     OW 8354   1.599   4.863  14.865
 2172SOL    HW1 8355   1.596   4.832  14.775
 2172SOL    HW2 8356   1.614   4.784   0.038
 2173SOL     OW 8357   8.525   6.308  10.940
 2173SOL    HW1 8358   8.568   6.312  11.025
 2173SOL    HW2 8359   8.448   6.253  10.954
 2174SOL     OW 8360   3.593   8.171   0.533
 2174SOL    HW1 8361   3.639   8.087   0.537
 2174SOL    HW2 8362   3.504   8.151   0.562
 2175SOL     OW 8363  11.446   4.207   6.192
 2175SOL    HW1 8364  11.374   4.269   6.204
 2175SOL    HW2 8365  11.407   4.122   6.208
 2176SOL     OW 8366   9.778   8.254  14.095
 2176SOL    HW1 8367   9.729   8.331  14.124
 2176SOL    HW2 8368   9.711   8.188  14.078
 2177SOL     OW 8369  11.214  13.270   8.393
 2177SOL    HW1 8370  11.212  13.176   8.411
 2177SOL    HW2 8371  11.255  13.308   8.471
 2178SOL     OW 8372   5.148   4.908   0.681
 2178SOL    HW1 8373   5.140   4.844   0.611
 2178SOL    HW2 8374   5.121   4.861   0.760
 2179SOL     OW 8375   0.648   4.771  13.799
 2179SOL    HW1 8376   0.607   4.731  13.876
 2179SOL    HW2 8377   0.713   4.707  13.770
 2180SOL     OW 8378  13.430   3.239  14.394
 2180SOL    HW1 8379  13.476   3.165  14.434
 2180SOL    HW2 8380  13.496   3.282  14.340
 2181SOL     OW 8381  14.790   0.047   1.342
 2181SOL    HW1 8382  14.737  14.854   1.309
 2181SOL    HW2 8383  14.876   0.009   1.357
 2182SOL     OW 8384   0.131  12.731   7.884
 2182SOL    HW1 8385   0.201  12.729   7.949
 2182SOL    HW2 8386   0.052  12.751   7.935
 2183SOL     OW 8387   7.135  10.439  10.288
 2183SOL    HW1 8388   7.204  10.483  10.337
 2183SOL    HW2 8389   7.099  10.507  10.231
 2184SOL     OW 8390  12.853  10.813   2.343
 2184SOL    HW1 8391  12.945  10.826   2.322
 2184SOL    HW2 8392  12.811  10.896   2.321
 2185SOL     OW 8393  12.180   9.711  13.079
 2185SOL    HW1 8394  12.239   9.651  13.033
 2185SOL    HW2 8395  12.200   9.699  13.171
 2186SOL     OW 8396   9.193   7.065   9.229
 2186SOL    HW1 8397   9.199   6.971   9.212
 2186SOL    HW2 8398   9.104   7.089   9.203
 2187SOL     OW 8399   6.424   1.935   4.137
 2187SOL    HW1 8400   6.424   1.899   4.225
 2187SOL    HW2 8401   6.487   1.882   4.089
 2188SOL     OW 8402  13.421   9.648   3.321
 2188SOL    HW1 8403  13.507   9.620   3.288
 2188SOL    HW2 8404  13.372   9.567   3.330
 2189SOL     OW 8405  13.839   6.153  11.831
 2189SOL    HW1 8406  13.845   6.198  11.915
 2189SOL    HW2 8407  13.748   6.123  11.826
 2190SOL     OW 8408  11.399   5.376  14.576
 2190SOL    HW1 8409  11.440   5.323  14.508
 2190SOL    HW2 8410  11.307   5.381  14.551
 2191SOL     OW 8411  14.259   4.721  12.660
 2191SOL    HW1 8412  14.295   4.632  12.665
 2191SOL    HW2 8413  14.181   4.718  12.716
 2192SOL     OW 8414   7.989   0.344   0.213
 2192SOL    HW1 8415   8.045   0.290   0.157
 2192SOL    HW2 8416   7.980   0.426   0.165
 2193SOL     OW 8417   1.199   7.291   4.312
 2193SOL    HW1 8418   1.285   7.323   4.339
 2193SOL    HW2 8419   1.142   7.368   4.315
 2194SOL     OW 8420   3.672   2.243   0.943
 2194SOL    HW1 8421   3.660   2.329   0.982
 2194SOL    HW2 8422   3.753   2.210   0.981
 2195SOL     OW 8423   8.616  11.191   6.831
 2195SOL    HW1 8424   8.617  11.110   6.779
 2195SOL    HW2 8425   8.544  11.178   6.893
 2196SOL     OW 8426   5.430   2.984  11.673
 2196SOL    HW1 8427   5.462   2.894  11.686
 2196SOL    HW2 8428   5.427   3.021  11.762
 2197SOL     OW 8429   0.596  14.768   7.048
 2197SOL    HW1 8430   0.658  14.806   6.987
 2197SOL    HW2 8431   0.628  14.679   7.063
 2198SOL     OW 8432  13.105   0.601   2.361
 2198SOL    HW1 8433  13.180   0.583   2.305
 2198SOL    HW2 8434  13.103   0.696   2.369
 2199SOL     OW 8435  11.505   5.030   4.037
 2199SOL    HW1 8436  11.421   4.987   4.050
 2199SOL    HW2 8437  11.530   5.061   4.124
 2200SOL     OW 8438   3.092   9.264   0.905
 2200SOL    HW1 8439   3.076   9.314   0.985
 2200SOL    HW2 8440   3.145   9.189   0.934
 2201SOL     OW 8441  10.812   9.868  11.985
 2201SOL    HW1 8442  10.793   9.849  12.077
 2201SOL    HW2 8443  10.902   9.900  11.985
 2202SOL     OW 8444  11.813   1.077   4.228
 2202SOL    HW1 8445  11.824   0.983   4.211
 2202SOL    HW2 8446  11.719   1.089   4.237
 2203SOL     OW 8447   5.508  13.043   4.901
 2203SOL    HW1 8448   5.462  12.962   4.878
 2203SOL    HW2 8449   5.446  13.113   4.883
 2204SOL     OW 8450   8.456   6.627   9.191
 2204SOL    HW1 8451   8.479   6.538   9.219
 2204SOL    HW2 8452   8.497   6.636   9.105
 2205SOL     OW 8453   1.556   3.261   8.498
 2205SOL    HW1 8454   1.553   3.201   8.423
 2205SOL    HW2 8455   1.570   3.347   8.458
 2206SOL     OW 8456   6.842   8.812  11.359
 2206SOL    HW1 8457   6.753   8.844  11.375
 2206SOL    HW2 8458   6.831   8.719  11.339
 2207SOL     OW 8459   1.628   1.044  12.405
 2207SOL    HW1 8460   1.616   1.102  12.480
 2207SOL    HW2 8461   1.715   1.065  12.372
 2208SOL     OW 8462   8.664  14.741  14.107
 2208SOL    HW1 8463   8.737  14.802  14.099
 2208SOL    HW2 8464   8.654  14.727  14.202
 2209SOL     OW 8465  12.118  10.132   6.739
 2209SOL    HW1 8466  12.071  10.049   6.738
 2209SOL    HW2 8467  12.074  10.185   6.672
 2210SOL     OW 8468   4.453  11.701   6.085
 2210SOL    HW1 8469   4.490  11.646   6.016
 2210SOL    HW2 8470   4.497  11.672   6.165
 2211SOL     OW 8471  12.388   9.234   2.335
 2211SOL    HW1 8472  12.484   9.237   2.341
 2211SOL    HW2 8473  12.371   9.218   2.242
 2212SOL     OW 8474   9.770  12.583  11.893
 2212SOL    HW1 8475   9.796  12.531  11.969
 2212SOL    HW2 8476   9.680  12.608  11.910
 2213SOL     OW 8477   6.432   5.637   7.211
 2213SOL    HW1 8478   6.429   5.638   7.116
 2213SOL    HW2 8479   6.454   5.547   7.234
 2214SOL     OW 8480   9.459   5.648  12.031
 2214SOL    HW1 8481   9.546   5.609  12.024
 2214SOL    HW2 8482   9.400   5.573  12.029
 2215SOL     OW 8483   2.192   4.371   4.208
 2215SOL    HW1 8484   2.129   4.428   4.252
 2215SOL    HW2 8485   2.276   4.392   4.250
 2216SOL     OW 8486   1.560  10.775   9.587
 2216SOL    HW1 8487   1.639  10.792   9.535
 2216SOL    HW2 8488   1.589  10.714   9.654
 2217SOL     OW 8489  11.666   5.950   4.410
 2217SOL    HW1 8490  11.659   6.041   4.440
 2217SOL    HW2 8491  11.603   5.943   4.339
 2218SOL     OW 8492   6.553  12.912   1.569
 2218SOL    HW1 8493   6.554  12.866   1.653
 2218SOL    HW2 8494   6.535  12.844   1.505
 2219SOL     OW 8495   8.913  13.715   9.226
 2219SOL    HW1 8496   8.967  13.745   9.153
 2219SOL    HW2 8497   8.969  13.652   9.273
 2220SOL     OW 8498   4.032   1.713   8.461
 2220SOL    HW1 8499   4.124   1.723   8.485
 2220SOL    HW2 8500   4.002   1.802   8.443
 2221SOL     OW 8501   9.495  13.423   0.844
 2221SOL    HW1 8502   9.496  13.517   0.863
 2221SOL    HW2 8503   9.419  13.411   0.787
 2222SOL     OW 8504   1.685  11.858   5.135
 2222SOL    HW1 8505   1.692  11.771   5.095
 2222SOL    HW2 8506   1.775  11.883   5.156
 2223SOL     OW 8507  11.451   2.508   2.014
 2223SOL    HW1 8508  11.466   2.575   2.080
 2223SOL    HW2 8509  11.382   2.452   2.051
 2224SOL     OW 8510  12.365   8.802   6.648
 2224SOL    HW1 8511  12.345   8.729   6.707
 2224SOL    HW2 8512  12.458   8.793   6.629
 2225SOL     OW 8513   0.212   6.506   8.266
 2225SOL    HW1 8514   0.193   6.414   8.249
 2225SOL    HW2 8515   0.183   6.551   8.187
 2226SOL     OW 8516   5.671   9.979   0.936
 2226SOL    HW1 8517   5.727   9.948   0.865
 2226SOL    HW2 8518   5.621   9.902   0.964
 2227SOL     OW 8519   9.790   2.252  12.384
 2227SOL    HW1 8520   9.841   2.183  12.342
 2227SOL    HW2 8521   9.780   2.223  12.474
 2228SOL     OW 8522   0.983   0.761  14.522
 2228SOL    HW1 8523   1.063   0.709  14.531
 2228SOL    HW2 8524   1.011   0.842  14.481
 2229SOL     OW 8525   3.157  13.684   9.723
 2229SOL    HW1 8526   3.153  13.778   9.704
 2229SOL    HW2 8527   3.246  13.658   9.700
 2230SOL     OW 8528   2.861   7.774  13.938
 2230SOL    HW1 8529   2.950   7.802  13.960
 2230SOL    HW2 8530   2.807   7.852  13.954
 2231SOL     OW 8531   1.443   6.624   1.457
 2231SOL    HW1 8532   1.368   6.565   1.456
 2231SOL    HW2 8533   1.500   6.594   1.387
 2232SOL     OW 8534   6.240   3.536  11.656
 2232SOL    HW1 8535   6.256   3.625  11.689
 2232SOL    HW2 8536   6.258   3.541  11.563
 2233SOL     OW 8537   7.565   8.939   1.616
 2233SOL    HW1 8538   7.580   8.927   1.710
 2233SOL    HW2 8539   7.649   8.919   1.576
 2234SOL     OW 8540  12.070   8.164   5.739
 2234SOL    HW1 8541  12.113   8.104   5.800
 2234SOL    HW2 8542  12.126   8.242   5.739
 2235SOL     OW 8543   8.698  11.851   9.663
 2235SOL    HW1 8544   8.705  11.884   9.753
 2235SOL    HW2 8545   8.785  11.865   9.626
 2236SOL     OW 8546   3.547   2.885   2.328
 2236SOL    HW1 8547   3.454   2.889   2.349
 2236SOL    HW2 8548   3.553   2.820   2.259
 2237SOL     OW 8549   4.574  10.722  13.003
 2237SOL    HW1 8550   4.644  10.760  12.950
 2237SOL    HW2 8551   4.494  10.762  12.968
 2238SOL     OW 8552   6.200   3.180   0.110
 2238SOL    HW1 8553   6.283   3.137   0.127
 2238SOL    HW2 8554   6.207   3.265   0.153
 2239SOL     OW 8555   5.860  12.746  12.165
 2239SOL    HW1 8556   5.799  12.820  12.172
 2239SOL    HW2 8557   5.853  12.702  12.250
 2240SOL     OW 8558   4.866   4.757   3.915
 2240SOL    HW1 8559   4.849   4.668   3.948
 2240SOL    HW2 8560   4.779   4.794   3.901
 2241SOL     OW 8561  12.830   2.793   1.600
 2241SOL    HW1 8562  12.745   2.804   1.557
 2241SOL    HW2 8563  12.834   2.700   1.624
 2242SOL     OW 8564   6.437  11.048   6.622
 2242SOL    HW1 8565   6.487  11.067   6.701
 2242SOL    HW2 8566   6.400  10.961   6.638
 2243SOL     OW 8567   2.015  11.515   6.446
 2243SOL    HW1 8568   2.056  11.454   6.508
 2243SOL    HW2 8569   2.089  11.557   6.402
 2244SOL     OW 8570   3.094   9.893   8.355
 2244SOL    HW1 8571   3.086   9.881   8.261
 2244SOL    HW2 8572   3.038   9.825   8.393
 2245SOL     OW 8573   7.880   3.680   6.756
 2245SOL    HW1 8574   7.878   3.617   6.684
 2245SOL    HW2 8575   7.879   3.627   6.835
 2246SOL     OW 8576   1.796   9.930   8.769
 2246SOL    HW1 8577   1.806   9.953   8.862
 2246SOL    HW2 8578   1.815   9.836   8.765
 2247SOL     OW 8579  13.593   0.033   8.731
 2247SOL    HW1 8580  13.588   0.038   8.636
 2247SOL    HW2 8581  13.658  14.845   8.749
 2248SOL     OW 8582   6.790   7.641   5.909
 2248SOL    HW1 8583   6.743   7.623   5.990
 2248SOL    HW2 8584   6.728   7.693   5.857
 2249SOL     OW 8585   6.414   1.832   4.395
 2249SOL    HW1 8586   6.472   1.816   4.470
 2249SOL    HW2 8587   6.331   1.792   4.420
 2250SOL     OW 8588   4.147   4.374   3.455
 2250SOL    HW1 8589   4.204   4.343   3.525
 2250SOL    HW2 8590   4.135   4.467   3.472
 2251SOL     OW 8591   8.962   5.268  13.926
 2251SOL    HW1 8592   8.926   5.357  13.933
 2251SOL    HW2 8593   8.909   5.215  13.985
 2252SOL     OW 8594   5.557   9.628   6.487
 2252SOL    HW1 8595   5.519   9.583   6.562
 2252SOL    HW2 8596   5.483   9.672   6.445
 2253SOL     OW 8597  14.807  10.158   0.305
 2253SOL    HW1 8598  14.771  10.184   0.220
 2253SOL    HW2 8599   0.006  10.212   0.316
 2254SOL     OW 8600   3.088  14.429  12.356
 2254SOL    HW1 8601   3.052  14.450  12.442
 2254SOL    HW2 8602   3.038  14.354  12.326
 2255SOL     OW 8603   9.412  13.683   0.526
 2255SOL    HW1 8604   9.333  13.641   0.493
 2255SOL    HW2 8605   9.382  13.760   0.574
 2256SOL     OW 8606   9.021   4.614   6.679
 2256SOL    HW1 8607   9.068   4.596   6.760
 2256SOL    HW2 8608   8.934   4.642   6.708
 2257SOL     OW 8609   1.753  11.452   6.522
 2257SOL    HW1 8610   1.761  11.357   6.536
 2257SOL    HW2 8611   1.839  11.478   6.488
 2258SOL     OW 8612   8.336   2.168  11.026
 2258SOL    HW1 8613   8.322   2.179  10.932
 2258SOL    HW2 8614   8.249   2.152  11.062
 2259SOL     OW 8615  12.629   1.781   2.036
 2259SOL    HW1 8616  12.643   1.872   2.010
 2259SOL    HW2 8617  12.590   1.788   2.124
 2260SOL     OW 8618  10.265   2.554   7.648
 2260SOL    HW1 8619  10.270   2.462   7.676
 2260SOL    HW2 8620  10.355   2.579   7.632
 2261SOL     OW 8621   3.480   6.547   2.566
 2261SOL    HW1 8622   3.442   6.539   2.653
 2261SOL    HW2 8623   3.496   6.641   2.556
 2262SOL     OW 8624   4.877  10.356   1.567
 2262SOL    HW1 8625   4.910  10.298   1.497
 2262SOL    HW2 8626   4.955  10.400   1.600
 2263SOL     OW 8627   0.896   2.950   4.780
 2263SOL    HW1 8628   0.955   2.875   4.779
 2263SOL    HW2 8629   0.812   2.916   4.748
 2264SOL     OW 8630   0.058  11.264  11.783
 2264SOL    HW1 8631   0.016  11.331  11.837
 2264SOL    HW2 8632   0.131  11.233  11.836
 2265SOL     OW 8633  11.897   8.834   9.270
 2265SOL    HW1 8634  11.991   8.842   9.285
 2265SOL    HW2 8635  11.862   8.801   9.353
 2266SOL     OW 8636   2.539   0.914   7.919
 2266SOL    HW1 8637   2.632   0.895   7.922
 2266SOL    HW2 8638   2.505   0.856   7.850
 2267SOL     OW 8639  14.205  11.663   7.015
 2267SOL    HW1 8640  14.240  11.595   6.957
 2267SOL    HW2 8641  14.217  11.627   7.103
 2268SOL     OW 8642   6.806   5.863   0.649
 2268SOL    HW1 8643   6.786   5.774   0.620
 2268SOL    HW2 8644   6.880   5.890   0.595
 2269SOL     OW 8645  12.199  12.797  12.424
 2269SOL    HW1 8646  12.209  12.838  12.510
 2269SOL    HW2 8647  12.179  12.870  12.365
 2270SOL     OW 8648   8.817   0.812   1.193
 2270SOL    HW1 8649   8.870   0.890   1.177
 2270SOL    HW2 8650   8.877   0.751   1.235
 2271SOL     OW 8651   1.166   8.789  11.583
 2271SOL    HW1 8652   1.207   8.703  11.595
 2271SOL    HW2 8653   1.192   8.816  11.495
 2272SOL     OW 8654   1.417   9.071   1.750
 2272SOL    HW1 8655   1.481   9.142   1.754
 2272SOL    HW2 8656   1.426   9.026   1.834
 2273SOL     OW 8657   2.408   5.873   3.870
 2273SOL    HW1 8658   2.418   5.859   3.964
 2273SOL    HW2 8659   2.475   5.937   3.848
 2274SOL     OW 8660  10.876  10.115  11.787
 2274SOL    HW1 8661  10.851  10.180  11.722
 2274SOL    HW2 8662  10.946  10.064  11.745
 2275SOL     OW 8663  14.088  12.727  14.330
 2275SOL    HW1 8664  14.063  12.702  14.419
 2275SOL    HW2 8665  14.181  12.750  14.336
 2276SOL     OW 8666  11.394  14.362  13.030
 2276SOL    HW1 8667  11.467  14.418  13.006
 2276SOL    HW2 8668  11.316  14.410  13.003
 2277SOL     OW 8669  13.791   0.754  11.625
 2277SOL    HW1 8670  13.728   0.682  11.622
 2277SOL    HW2 8671  13.807   0.776  11.533
 2278SOL     OW 8672   5.870  13.100  13.519
 2278SOL    HW1 8673   5.921  13.170  13.478
 2278SOL    HW2 8674   5.929  13.024  13.518
 2279SOL     OW 8675   4.563   5.985   1.105
 2279SOL    HW1 8676   4.502   5.922   1.065
 2279SOL    HW2 8677   4.647   5.940   1.104
 2280SOL     OW 8678   2.561  13.171  14.002
 2280SOL    HW1 8679   2.590  13.080  14.000
 2280SOL    HW2 8680   2.566  13.199  13.911
 2281SOL     OW 8681   3.825  10.258  14.066
 2281SOL    HW1 8682   3.742  10.221  14.097
 2281SOL    HW2 8683   3.837  10.337  14.118
 2282SOL     OW 8684   4.460   5.988  12.076
 2282SOL    HW1 8685   4.455   6.076  12.040
 2282SOL    HW2 8686   4.504   5.937  12.008
 2283SOL     OW 8687   0.661   4.539   4.743
 2283SOL    HW1 8688   0.682   4.591   4.821
 2283SOL    HW2 8689   0.566   4.545   4.736
 2284SOL     OW 8690   4.436  12.178  10.907
 2284SOL    HW1 8691   4.393  12.248  10.859
 2284SOL    HW2 8692   4.432  12.205  10.998
 2285SOL     OW 8693   3.418  13.844   7.230
 2285SOL    HW1 8694   3.470  13.892   7.167
 2285SOL    HW2 8695   3.347  13.905   7.254
 2286SOL     OW 8696   0.585   2.615  11.307
 2286SOL    HW1 8697   0.655   2.570  11.260
 2286SOL    HW2 8698   0.565   2.692  11.253
 2287SOL     OW 8699   8.843  13.447   8.339
 2287SOL    HW1 8700   8.833  13.378   8.274
 2287SOL    HW2 8701   8.785  13.517   8.309
 2288SOL     OW 8702   0.808   9.374   1.505
 2288SOL    HW1 8703   0.815   9.341   1.416
 2288SOL    HW2 8704   0.892   9.414   1.523
 2289SOL     OW 8705   4.574   8.961   6.531
 2289SOL    HW1 8706   4.631   8.955   6.607
 2289SOL    HW2 8707   4.485   8.957   6.567
 2290SOL     OW 8708  14.064   2.379  14.688
 2290SOL    HW1 8709  14.116   2.393  14.609
 2290SOL    HW2 8710  14.117   2.319  14.741
 2291SOL     OW 8711   0.554   1.536   5.304
 2291SOL    HW1 8712   0.483   1.474   5.289
 2291SOL    HW2 8713   0.618   1.487   5.357
 2292SOL     OW 8714   6.730  10.897   8.516
 2292SOL    HW1 8715   6.781  10.848   8.581
 2292SOL    HW2 8716   6.640  10.893   8.548
 2293SOL     OW 8717  10.783   2.976  14.050
 2293SOL    HW1 8718  10.801   2.951  14.140
 2293SOL    HW2 8719  10.700   2.934  14.029
 2294SOL     OW 8720  11.154   8.498   2.053
 2294SOL    HW1 8721  11.156   8.461   1.964
 2294SOL    HW2 8722  11.181   8.589   2.042
 2295SOL     OW 8723  11.425  10.872  12.073
 2295SOL    HW1 8724  11.363  10.880  12.145
 2295SOL    HW2 8725  11.490  10.940  12.090
 2296SOL     OW 8726   9.338   6.476  14.243
 2296SOL    HW1 8727   9.332   6.522  14.327
 2296SOL    HW2 8728   9.432   6.462  14.231
 2297SOL     OW 8729  14.401   1.943  10.581
 2297SOL    HW1 8730  14.313   1.978  10.597
 2297SOL    HW2 8731  14.398   1.909  10.492
 2298SOL     OW 8732   8.285   9.050  10.177
 2298SOL    HW1 8733   8.191   9.060  10.165
 2298SOL    HW2 8734   8.316   9.009  10.096
 2299SOL     OW 8735  12.201  11.230  14.855
 2299SOL    HW1 8736  12.264  11.236   0.047
 2299SOL    HW2 8737  12.148  11.153  14.875
 2300SOL     OW 8738  10.195  14.536   1.861
 2300SOL    HW1 8739  10.159  14.448   1.867
 2300SOL    HW2 8740  10.283  14.529   1.899
 2301SOL     OW 8741  11.504   5.399   8.861
 2301SOL    HW1 8742  11.515   5.485   8.819
 2301SOL    HW2 8743  11.594   5.370   8.879
 2302SOL     OW 8744   1.473   5.674   5.272
 2302SOL    HW1 8745   1.386   5.714   5.278
 2302SOL    HW2 8746   1.459   5.596   5.219
 2303SOL     OW 8747   8.180   9.930   6.474
 2303SOL    HW1 8748   8.199   9.978   6.393
 2303SOL    HW2 8749   8.162   9.841   6.445
 2304SOL     OW 8750  13.032   6.249   4.103
 2304SOL    HW1 8751  12.951   6.211   4.137
 2304SOL    HW2 8752  13.025   6.342   4.125
 2305SOL     OW 8753  12.215   0.392   7.900
 2305SOL    HW1 8754  12.221   0.299   7.880
 2305SOL    HW2 8755  12.222   0.397   7.996
 2306SOL     OW 8756  13.449  10.275   6.697
 2306SOL    HW1 8757  13.463  10.265   6.603
 2306SOL    HW2 8758  13.535  10.298   6.732
 2307SOL     OW 8759  11.921   7.314  14.725
 2307SOL    HW1 8760  11.837   7.331  14.766
 2307SOL    HW2 8761  11.964   7.399  14.722
 2308SOL     OW 8762   9.656   3.245  10.810
 2308SOL    HW1 8763   9.706   3.291  10.743
 2308SOL    HW2 8764   9.600   3.185  10.761
 2309SOL     OW 8765   0.548   9.909   6.247
 2309SOL    HW1 8766   0.463   9.865   6.242
 2309SOL    HW2 8767   0.549   9.966   6.170
 2310SOL     OW 8768   4.159   4.225   8.277
 2310SOL    HW1 8769   4.146   4.300   8.334
 2310SOL    HW2 8770   4.194   4.156   8.334
 2311SOL     OW 8771   8.172   2.951  14.318
 2311SOL    HW1 8772   8.077   2.958  14.318
 2311SOL    HW2 8773   8.196   2.937  14.227
 2312SOL     OW 8774   3.058   5.571  14.834
 2312SOL    HW1 8775   3.017   5.635  14.776
 2312SOL    HW2 8776   3.150   5.570  14.807
 2313SOL     OW 8777  10.966   9.562   5.628
 2313SOL    HW1 8778  10.920   9.485   5.595
 2313SOL    HW2 8779  11.034   9.528   5.685
 2314SOL     OW 8780  12.270  14.343   8.460
 2314SOL    HW1 8781  12.364  14.351   8.475
 2314SOL    HW2 8782  12.244  14.428   8.425
 2315SOL     OW 8783   9.922   4.206   7.385
 2315SOL    HW1 8784   9.872   4.175   7.310
 2315SOL    HW2 8785  10.011   4.174   7.370
 2316SOL     OW 8786   7.428  12.105   1.416
 2316SOL    HW1 8787   7.358  12.170   1.416
 2316SOL    HW2 8788   7.418  12.059   1.499
 2317SOL     OW 8789  10.427   4.840   9.248
 2317SOL    HW1 8790  10.486   4.769   9.274
 2317SOL    HW2 8791  10.437   4.845   9.153
 2318SOL     OW 8792   1.584   0.856   3.843
 2318SOL    HW1 8793   1.513   0.795   3.860
 2318SOL    HW2 8794   1.658   0.801   3.819
 2319SOL     OW 8795   0.434   2.602   0.874
 2319SOL    HW1 8796   0.430   2.692   0.840
 2319SOL    HW2 8797   0.505   2.604   0.938
 2320SOL     OW 8798   6.435   2.295   4.396
 2320SOL    HW1 8799   6.430   2.229   4.327
 2320SOL    HW2 8800   6.501   2.357   4.364
 2321SOL     OW 8801   8.260   6.694   6.907
 2321SOL    HW1 8802   8.223   6.679   6.821
 2321SOL    HW2 8803   8.189   6.677   6.968
 2322SOL     OW 8804   1.969   4.419   7.704
 2322SOL    HW1 8805   1.892   4.399   7.650
 2322SOL    HW2 8806   2.032   4.456   7.642
 2323SOL     OW 8807   6.742   9.659  10.805
 2323SOL    HW1 8808   6.704   9.638  10.719
 2323SOL    HW2 8809   6.675   9.713  10.848
 2324SOL     OW 8810  13.595   9.501  12.825
 2324SOL    HW1 8811  13.597   9.590  12.860
 2324SOL    HW2 8812  13.642   9.449  12.891
 2325SOL     OW 8813  10.707  14.809   1.395
 2325SOL    HW1 8814  10.717   0.024   1.404
 2325SOL    HW2 8815  10.718  14.792   1.301
 2326SOL     OW 8816   2.210   5.493  13.722
 2326SOL    HW1 8817   2.246   5.541  13.647
 2326SOL    HW2 8818   2.286   5.476  13.778
 2327SOL     OW 8819   7.484   0.882   1.826
 2327SOL    HW1 8820   7.567   0.861   1.868
 2327SOL    HW2 8821   7.429   0.915   1.897
 2328SOL     OW 8822  10.204  11.587   3.076
 2328SOL    HW1 8823  10.121  11.634   3.072
 2328SOL    HW2 8824  10.225  11.582   3.169
 2329SOL     OW 8825   9.817   4.235  11.782
 2329SOL    HW1 8826   9.785   4.314  11.739
 2329SOL    HW2 8827   9.881   4.266  11.846
 2330SOL     OW 8828  14.057   5.588   3.765
 2330SOL    HW1 8829  14.072   5.678   3.735
 2330SOL    HW2 8830  14.031   5.540   3.687
 2331SOL     OW 8831  12.765  10.691   6.210
 2331SOL    HW1 8832  12.700  10.738   6.159
 2331SOL    HW2 8833  12.845  10.743   6.202
 2332SOL     OW 8834   2.691   0.347   6.276
 2332SOL    HW1 8835   2.680   0.342   6.371
 2332SOL    HW2 8836   2.722   0.260   6.250
 2333SOL     OW 8837   3.164   5.908   1.995
 2333SOL    HW1 8838   3.258   5.927   1.989
 2333SOL    HW2 8839   3.149   5.886   2.087
 2334SOL     OW 8840   8.324  12.004  10.100
 2334SOL    HW1 8841   8.295  12.025  10.189
 2334SOL    HW2 8842   8.345  11.910  10.104
 2335SOL     OW 8843   0.962   2.821   8.791
 2335SOL    HW1 8844   0.889   2.792   8.737
 2335SOL    HW2 8845   0.963   2.916   8.780
 2336SOL     OW 8846   6.063   3.726   8.536
 2336SOL    HW1 8847   6.138   3.757   8.587
 2336SOL    HW2 8848   6.004   3.687   8.601
 2337SOL     OW 8849  12.960   7.497   1.344
 2337SOL    HW1 8850  13.027   7.456   1.399
 2337SOL    HW2 8851  12.974   7.459   1.257
 2338SOL     OW 8852   1.146  10.269  10.041
 2338SOL    HW1 8853   1.160  10.235  10.129
 2338SOL    HW2 8854   1.225  10.246   9.993
 2339SOL     OW 8855  11.104   0.588   6.572
 2339SOL    HW1 8856  11.015   0.609   6.601
 2339SOL    HW2 8857  11.161   0.632   6.636
 2340SOL     OW 8858   7.596  12.332   6.389
 2340SOL    HW1 8859   7.523  12.357   6.332
 2340SOL    HW2 8860   7.600  12.236   6.382
 2341SOL     OW 8861   5.569   4.776   6.589
 2341SOL    HW1 8862   5.618   4.694   6.591
 2341SOL    HW2 8863   5.628   4.840   6.629
 2342SOL     OW 8864  13.545   7.624  13.384
 2342SOL    HW1 8865  13.516   7.653  13.298
 2342SOL    HW2 8866  13.599   7.695  13.417
 2343SOL     OW 8867   8.991  10.838  10.147
 2343SOL    HW1 8868   8.991  10.760  10.202
 2343SOL    HW2 8869   9.080  10.843  10.112
 2344SOL     OW 8870   6.419   8.903   2.185
 2344SOL    HW1 8871   6.342   8.957   2.207
 2344SOL    HW2 8872   6.494   8.961   2.198
 2345SOL     OW 8873  13.720   5.250   4.039
 2345SOL    HW1 8874  13.769   5.307   3.979
 2345SOL    HW2 8875  13.771   5.253   4.121
 2346SOL     OW 8876   1.645  13.116  11.356
 2346SOL    HW1 8877   1.565  13.071  11.329
 2346SOL    HW2 8878   1.618  13.206  11.371
 2347SOL     OW 8879   1.116   0.967  13.607
 2347SOL    HW1 8880   1.125   1.009  13.692
 2347SOL    HW2 8881   1.110   0.874  13.627
 2348SOL     OW 8882   2.662  13.177  10.829
 2348SOL    HW1 8883   2.634  13.111  10.892
 2348SOL    HW2 8884   2.582  13.224  10.805
 2349SOL     OW 8885  13.168   8.631   1.538
 2349SOL    HW1 8886  13.199   8.543   1.560
 2349SOL    HW2 8887  13.243   8.688   1.556
 2350SOL     OW 8888   2.738  10.562   2.091
 2350SOL    HW1 8889   2.659  10.553   2.145
 2350SOL    HW2 8890   2.787  10.633   2.132
 2351SOL     OW 8891  10.541   5.410   5.017
 2351SOL    HW1 8892  10.582   5.469   5.080
 2351SOL    HW2 8893  10.602   5.336   5.011
 2352SOL     OW 8894   1.835   5.035  11.233
 2352SOL    HW1 8895   1.834   5.005  11.324
 2352SOL    HW2 8896   1.912   5.091  11.228
 2353SOL     OW 8897  13.858  10.827  13.718
 2353SOL    HW1 8898  13.813  10.907  13.745
 2353SOL    HW2 8899  13.937  10.825  13.772
 2354SOL     OW 8900   1.711   6.352  11.870
 2354SOL    HW1 8901   1.787   6.400  11.836
 2354SOL    HW2 8902   1.716   6.266  11.829
 2355SOL     OW 8903   3.068   7.402  11.087
 2355SOL    HW1 8904   3.121   7.392  11.165
 2355SOL    HW2 8905   2.978   7.393  11.118
 2356SOL     OW 8906  11.530   1.915  14.302
 2356SOL    HW1 8907  11.506   1.843  14.361
 2356SOL    HW2 8908  11.447   1.941  14.262
 2357SOL     OW 8909  11.575   5.617   8.006
 2357SOL    HW1 8910  11.645   5.669   8.047
 2357SOL    HW2 8911  11.501   5.625   8.066
 2358SOL     OW 8912  10.861  12.327   2.746
 2358SOL    HW1 8913  10.928  12.395   2.736
 2358SOL    HW2 8914  10.903  12.247   2.716
 2359SOL     OW 8915   8.399   6.378   9.799
 2359SOL    HW1 8916   8.320   6.326   9.783
 2359SOL    HW2 8917   8.433   6.396   9.711
 2360SOL     OW 8918   6.349   8.403   6.951
 2360SOL    HW1 8919   6.397   8.342   6.894
 2360SOL    HW2 8920   6.417   8.460   6.987
 2361SOL     OW 8921   4.255   2.059   3.127
 2361SOL    HW1 8922   4.340   2.021   3.102
 2361SOL    HW2 8923   4.221   2.097   3.047
 2362SOL     OW 8924   7.797   8.237   2.223
 2362SOL    HW1 8925   7.809   8.186   2.143
 2362SOL    HW2 8926   7.773   8.173   2.289
 2363SOL     OW 8927   1.889  11.143   3.193
 2363SOL    HW1 8928   1.895  11.059   3.238
 2363SOL    HW2 8929   1.932  11.128   3.108
 2364SOL     OW 8930   6.751  14.024   2.178
 2364SOL    HW1 8931   6.707  13.944   2.206
 2364SOL    HW2 8932   6.760  14.076   2.258
 2365SOL     OW 8933  10.032  13.131   8.965
 2365SOL    HW1 8934  10.001  13.100   8.880
 2365SOL    HW2 8935   9.961  13.185   8.999
 2366SOL     OW 8936   3.091   8.768   7.243
 2366SOL    HW1 8937   3.162   8.742   7.185
 2366SOL    HW2 8938   3.131   8.828   7.306
 2367SOL     OW 8939   3.855   9.109   0.832
 2367SOL    HW1 8940   3.860   9.019   0.865
 2367SOL    HW2 8941   3.917   9.158   0.886
 2368SOL     OW 8942   8.458   2.067   7.322
 2368SOL    HW1 8943   8.535   2.111   7.288
 2368SOL    HW2 8944   8.384   2.119   7.290
 2369SOL     OW 8945  10.277  13.628  10.326
 2369SOL    HW1 8946  10.302  13.659  10.413
 2369SOL    HW2 8947  10.208  13.689  10.298
 2370SOL     OW 8948  13.049  11.936   5.463
 2370SOL    HW1 8949  13.049  11.907   5.371
 2370SOL    HW2 8950  13.097  11.867   5.509
 2371SOL     OW 8951   5.447   4.020   0.669
 2371SOL    HW1 8952   5.493   4.083   0.724
 2371SOL    HW2 8953   5.408   4.072   0.599
 2372SOL     OW 8954  11.265  10.185   8.956
 2372SOL    HW1 8955  11.254  10.090   8.953
 2372SOL    HW2 8956  11.359  10.199   8.947
 2373SOL     OW 8957   6.881   9.285   3.474
 2373SOL    HW1 8958   6.975   9.301   3.464
 2373SOL    HW2 8959   6.842   9.314   3.392
 2374SOL     OW 8960   2.114   0.185   2.241
 2374SOL    HW1 8961   2.150   0.098   2.258
 2374SOL    HW2 8962   2.029   0.184   2.286
 2375SOL     OW 8963   2.154   0.973   6.700
 2375SOL    HW1 8964   2.184   0.942   6.615
 2375SOL    HW2 8965   2.195   0.914   6.763
 2376SOL     OW 8966   1.191   2.873   8.096
 2376SOL    HW1 8967   1.280   2.880   8.132
 2376SOL    HW2 8968   1.157   2.792   8.133
 2377SOL     OW 8969  13.084  10.110   6.720
 2377SOL    HW1 8970  13.040  10.064   6.647
 2377SOL    HW2 8971  13.088  10.201   6.692
 2378SOL     OW 8972   5.511   9.929   4.462
 2378SOL    HW1 8973   5.479   9.866   4.397
 2378SOL    HW2 8974   5.509  10.013   4.416
 2379SOL     OW 8975  11.806   4.701   8.782
 2379SOL    HW1 8976  11.778   4.656   8.703
 2379SOL    HW2 8977  11.799   4.634   8.851
 2380SOL     OW 8978   4.260  11.041  14.593
 2380SOL    HW1 8979   4.325  11.057  14.662
 2380SOL    HW2 8980   4.259  11.122  14.542
 2381SOL     OW 8981  14.135  14.853   7.130
 2381SOL    HW1 8982  14.223   0.008   7.139
 2381SOL    HW2 8983  14.083   0.046   7.095
 2382SOL     OW 8984   8.820   5.938   0.122
 2382SOL    HW1 8985   8.808   5.947   0.217
 2382SOL    HW2 8986   8.851   5.848   0.110
 2383SOL     OW 8987  13.857   2.516   7.517
 2383SOL    HW1 8988  13.823   2.509   7.427
 2383SOL    HW2 8989  13.873   2.425   7.543
 2384SOL     OW 8990   2.893   0.792  12.815
 2384SOL    HW1 8991   2.938   0.725  12.765
 2384SOL    HW2 8992   2.806   0.756  12.831
 2385SOL     OW 8993  10.086   5.714   5.221
 2385SOL    HW1 8994  10.136   5.658   5.162
 2385SOL    HW2 8995  10.061   5.657   5.293
 2386SOL     OW 8996   6.832  14.410   9.067
 2386SOL    HW1 8997   6.900  14.353   9.031
 2386SOL    HW2 8998   6.775  14.351   9.116
 2387SOL     OW 8999   2.674  10.405   7.153
 2387SOL    HW1 9000   2.588  10.443   7.137
 2387SOL    HW2 9001   2.735  10.478   7.139
 2388SOL     OW 9002  14.488   3.056   9.360
 2388SOL    HW1 9003  14.466   2.965   9.341
 2388SOL    HW2 9004  14.475   3.064   9.455
 2389SOL     OW 9005   1.072   9.148   9.883
 2389SOL    HW1 9006   1.023   9.101   9.816
 2389SOL    HW2 9007   1.032   9.122   9.966
 2390SOL     OW 9008   7.099   7.387   3.050
 2390SOL    HW1 9009   7.123   7.462   3.105
 2390SOL    HW2 9010   7.009   7.367   3.074
 2391SOL     OW 9011  10.695  10.994   1.302
 2391SOL    HW1 9012  10.765  10.930   1.312
 2391SOL    HW2 9013  10.740  11.076   1.280
 2392SOL     OW 9014   5.315  14.869   1.970
 2392SOL    HW1 9015   5.235  14.848   2.020
 2392SOL    HW2 9016   5.284   0.003   1.880
 2393SOL     OW 9017  12.443  12.635   3.754
 2393SOL    HW1 9018  12.469  12.638   3.846
 2393SOL    HW2 9019  12.352  12.606   3.756
 2394SOL     OW 9020   9.087  14.217   1.323
 2394SOL    HW1 9021   9.055  14.128   1.308
 2394SOL    HW2 9022   9.048  14.243   1.406
 2395SOL     OW 9023   4.897   0.612  14.261
 2395SOL    HW1 9024   4.819   0.605  14.206
 2395SOL    HW2 9025   4.957   0.547  14.227
 2396SOL     OW 9026   2.549  10.053   7.390
 2396SOL    HW1 9027   2.511  10.072   7.304
 2396SOL    HW2 9028   2.552  10.137   7.435
 2397SOL     OW 9029   8.566   2.931   7.498
 2397SOL    HW1 9030   8.580   2.916   7.405
 2397SOL    HW2 9031   8.654   2.934   7.535
 2398SOL     OW 9032   3.956   5.544  13.768
 2398SOL    HW1 9033   3.917   5.464  13.806
 2398SOL    HW2 9034   3.914   5.615  13.816
 2399SOL     OW 9035  10.863  14.788   7.570
 2399SOL    HW1 9036  10.932  14.769   7.506
 2399SOL    HW2 9037  10.868   0.003   7.584
 2400SOL     OW 9038  13.749  11.138  10.611
 2400SOL    HW1 9039  13.786  11.128  10.524
 2400SOL    HW2 9040  13.673  11.195  10.599
 2401SOL     OW 9041   0.256   0.181   4.385
 2401SOL    HW1 9042   0.336   0.190   4.437
 2401SOL    HW2 9043   0.187   0.216   4.442
 2402SOL     OW 9044  12.337  12.056  11.580
 2402SOL    HW1 9045  12.369  11.969  11.560
 2402SOL    HW2 9046  12.395  12.088  11.649
 2403SOL     OW 9047   2.106  10.558   9.023
 2403SOL    HW1 9048   2.143  10.641   8.994
 2403SOL    HW2 9049   2.012  10.569   9.011
 2404SOL     OW 9050   9.656   2.537   2.456
 2404SOL    HW1 9051   9.588   2.475   2.480
 2404SOL    HW2 9052   9.608   2.613   2.423
 2405SOL     OW 9053   2.021   6.221   6.204
 2405SOL    HW1 9054   1.954   6.209   6.271
 2405SOL    HW2 9055   1.973   6.256   6.129
 2406SOL     OW 9056   2.320   0.168   4.049
 2406SOL    HW1 9057   2.357   0.237   3.994
 2406SOL    HW2 9058   2.397   0.125   4.088
 2407SOL     OW 9059  14.511  12.055   9.929
 2407SOL    HW1 9060  14.490  12.062  10.022
 2407SOL    HW2 9061  14.427  12.040   9.886
 2408SOL     OW 9062   8.060   1.804  13.486
 2408SOL    HW1 9063   8.052   1.805  13.581
 2408SOL    HW2 9064   8.053   1.896  13.460
 2409SOL     OW 9065   3.607   3.140   9.516
 2409SOL    HW1 9066   3.539   3.109   9.456
 2409SOL    HW2 9067   3.578   3.228   9.542
 2410SOL     OW 9068  11.296   3.682   9.898
 2410SOL    HW1 9069  11.294   3.777   9.889
 2410SOL    HW2 9070  11.356   3.666   9.971
 2411SOL     OW 9071   8.244   7.102   4.727
 2411SOL    HW1 9072   8.227   7.149   4.645
 2411SOL    HW2 9073   8.246   7.171   4.793
 2412SOL     OW 9074   3.200   6.792   8.123
 2412SOL    HW1 9075   3.295   6.801   8.118
 2412SOL    HW2 9076   3.171   6.873   8.167
 2413SOL     OW 9077   4.724   2.296   3.428
 2413SOL    HW1 9078   4.797   2.243   3.396
 2413SOL    HW2 9079   4.707   2.263   3.516
 2414SOL     OW 9080  10.390   0.522   8.643
 2414SOL    HW1 9081  10.424   0.542   8.556
 2414SOL    HW2 9082  10.297   0.545   8.638
 2415SOL     OW 9083   8.206   8.406   1.189
 2415SOL    HW1 9084   8.159   8.342   1.242
 2415SOL    HW2 9085   8.295   8.371   1.183
 2416SOL     OW 9086  12.236   4.724   8.122
 2416SOL    HW1 9087  12.267   4.813   8.105
 2416SOL    HW2 9088  12.228   4.684   8.036
 2417SOL     OW 9089   7.513   3.173   6.220
 2417SOL    HW1 9090   7.449   3.131   6.277
 2417SOL    HW2 9091   7.462   3.209   6.148
 2418SOL     OW 9092  11.921   3.017   2.226
 2418SOL    HW1 9093  11.828   3.030   2.210
 2418SOL    HW2 9094  11.964   3.087   2.178
 2419SOL     OW 9095   0.580   0.592  13.831
 2419SOL    HW1 9096   0.490   0.604  13.861
 2419SOL    HW2 9097   0.594   0.498  13.835
 2420SOL     OW 9098   8.863   6.468   0.683
 2420SOL    HW1 9099   8.847   6.507   0.597
 2420SOL    HW2 9100   8.841   6.375   0.672
 2421SOL     OW 9101  10.703   5.724   1.331
 2421SOL    HW1 9102  10.659   5.794   1.380
 2421SOL    HW2 9103  10.730   5.662   1.399
 2422SOL     OW 9104   1.071  13.142  10.285
 2422SOL    HW1 9105   1.037  13.095  10.361
 2422SOL    HW2 9106   0.997  13.192  10.251
 2423SOL     OW 9107   4.158  12.748   0.959
 2423SOL    HW1 9108   4.206  12.667   0.941
 2423SOL    HW2 9109   4.220  12.801   1.010
 2424SOL     OW 9110   8.420   6.160   2.989
 2424SOL    HW1 9111   8.441   6.208   2.908
 2424SOL    HW2 9112   8.495   6.177   3.046
 2425SOL     OW 9113  10.861   2.876   4.719
 2425SOL    HW1 9114  10.783   2.889   4.772
 2425SOL    HW2 9115  10.931   2.922   4.766
 2426SOL     OW 9116   4.445   2.530  11.301
 2426SOL    HW1 9117   4.521   2.526  11.359
 2426SOL    HW2 9118   4.475   2.488  11.220
 2427SOL     OW 9119  10.251   2.748  12.879
 2427SOL    HW1 9120  10.209   2.728  12.795
 2427SOL    HW2 9121  10.183   2.791  12.931
 2428SOL     OW 9122  12.991   6.525  11.340
 2428SOL    HW1 9123  12.998   6.434  11.371
 2428SOL    HW2 9124  12.961   6.574  11.417
 2429SOL     OW 9125   5.138  10.538   4.144
 2429SOL    HW1 9126   5.216  10.520   4.091
 2429SOL    HW2 9127   5.154  10.490   4.226
 2430SOL     OW 9128   9.315  14.131   6.167
 2430SOL    HW1 9129   9.281  14.055   6.118
 2430SOL    HW2 9130   9.365  14.092   6.239
 2431SOL     OW 9131   5.682  11.184   8.231
 2431SOL    HW1 9132   5.657  11.142   8.313
 2431SOL    HW2 9133   5.618  11.153   8.167
 2432SOL     OW 9134  13.195  10.130  12.055
 2432SOL    HW1 9135  13.271  10.072  12.064
 2432SOL    HW2 9136  13.225  10.198  11.994
 2433SOL     OW 9137  13.908   6.110   9.505
 2433SOL    HW1 9138  13.842   6.165   9.464
 2433SOL    HW2 9139  13.890   6.022   9.471
 2434SOL     OW 9140   5.256   3.989   9.636
 2434SOL    HW1 9141   5.205   4.040   9.573
 2434SOL    HW2 9142   5.220   3.900   9.630
 2435SOL     OW 9143  13.661   6.025   2.322
 2435SOL    HW1 9144  13.627   5.988   2.240
 2435SOL    HW2 9145  13.749   6.056   2.299
 2436SOL     OW 9146  12.937   4.382   5.613
 2436SOL    HW1 9147  12.992   4.460   5.612
 2436SOL    HW2 9148  12.990   4.316   5.658
 2437SOL     OW 9149   8.582   0.244   4.759
 2437SOL    HW1 9150   8.592   0.176   4.693
 2437SOL    HW2 9151   8.536   0.200   4.831
 2438SOL     OW 9152   9.354   4.173   1.387
 2438SOL    HW1 9153   9.283   4.230   1.359
 2438SOL    HW2 9154   9.332   4.087   1.351
 2439SOL     OW 9155  12.551  12.117  11.223
 2439SOL    HW1 9156  12.477  12.124  11.284
 2439SOL    HW2 9157  12.626  12.145  11.275
 2440SOL     OW 9158  14.115   7.312  14.862
 2440SOL    HW1 9159  14.172   7.360   0.043
 2440SOL    HW2 9160  14.026   7.331   0.014
 2441SOL     OW 9161   5.939   9.430   7.598
 2441SOL    HW1 9162   5.901   9.506   7.553
 2441SOL    HW2 9163   5.988   9.468   7.671
 2442SOL     OW 9164  11.607   1.031   0.969
 2442SOL    HW1 9165  11.629   0.954   1.020
 2442SOL    HW2 9166  11.564   1.090   1.031
 2443SOL     OW 9167   3.522  11.994   4.928
 2443SOL    HW1 9168   3.428  11.979   4.929
 2443SOL    HW2 9169   3.534  12.076   4.974
 2444SOL     OW 9170   9.605   5.437   3.057
 2444SOL    HW1 9171   9.551   5.456   2.980
 2444SOL    HW2 9172   9.679   5.496   3.049
 2445SOL     OW 9173   5.725  13.235   7.894
 2445SOL    HW1 9174   5.665  13.264   7.963
 2445SOL    HW2 9175   5.809  13.277   7.916
 2446SOL     OW 9176   5.815   8.567   0.824
 2446SOL    HW1 9177   5.884   8.633   0.814
 2446SOL    HW2 9178   5.861   8.484   0.819
 2447SOL     OW 9179   8.264   1.764  11.975
 2447SOL    HW1 9180   8.272   1.753  11.881
 2447SOL    HW2 9181   8.209   1.691  12.004
 2448SOL     OW 9182   4.307   7.875   2.551
 2448SOL    HW1 9183   4.253   7.809   2.594
 2448SOL    HW2 9184   4.282   7.872   2.459
 2449SOL     OW 9185  12.139  12.587   0.662
 2449SOL    HW1 9186  12.156  12.498   0.633
 2449SOL    HW2 9187  12.049  12.604   0.636
 2450SOL     OW 9188   3.789   4.669   3.243
 2450SOL    HW1 9189   3.792   4.585   3.197
 2450SOL    HW2 9190   3.852   4.724   3.197
 2451SOL     OW 9191   8.246  13.701  12.576
 2451SOL    HW1 9192   8.152  13.722  12.573
 2451SOL    HW2 9193   8.288  13.771  12.526
 2452SOL     OW 9194   6.198   2.290   4.596
 2452SOL    HW1 9195   6.243   2.273   4.513
 2452SOL    HW2 9196   6.162   2.205   4.622
 2453SOL     OW 9197  10.662  14.729   7.389
 2453SOL    HW1 9198  10.617  14.647   7.410
 2453SOL    HW2 9199  10.727  14.738   7.458
 2454SOL     OW 9200  13.516   3.422   6.573
 2454SOL    HW1 9201  13.540   3.514   6.576
 2454SOL    HW2 9202  13.422   3.421   6.592
 2455SOL     OW 9203  11.851   5.436   0.454
 2455SOL    HW1 9204  11.763   5.405   0.476
 2455SOL    HW2 9205  11.905   5.411   0.528
 2456SOL     OW 9206   9.793   2.730  13.075
 2456SOL    HW1 9207   9.791   2.779  13.157
 2456SOL    HW2 9208   9.871   2.762  13.030
 2457SOL     OW 9209  14.426  13.784   4.286
 2457SOL    HW1 9210  14.349  13.839   4.268
 2457SOL    HW2 9211  14.435  13.730   4.208
 2458SOL     OW 9212   9.407   6.226   0.975
 2458SOL    HW1 9213   9.373   6.195   1.059
 2458SOL    HW2 9214   9.492   6.264   0.997
 2459SOL     OW 9215   5.270   1.317   9.773
 2459SOL    HW1 9216   5.276   1.264   9.694
 2459SOL    HW2 9217   5.234   1.259   9.839
 2460SOL     OW 9218   6.395   8.267   9.729
 2460SOL    HW1 9219   6.427   8.321   9.802
 2460SOL    HW2 9220   6.443   8.299   9.653
 2461SOL     OW 9221   4.375   0.307  13.921
 2461SOL    HW1 9222   4.330   0.364  13.858
 2461SOL    HW2 9223   4.309   0.243  13.947
 2462SOL     OW 9224   2.574   0.376   2.470
 2462SOL    HW1 9225   2.592   0.307   2.534
 2462SOL    HW2 9226   2.524   0.331   2.401
 2463SOL     OW 9227   7.009  11.248   6.180
 2463SOL    HW1 9228   6.988  11.215   6.093
 2463SOL    HW2 9229   6.967  11.335   6.184
 2464SOL     OW 9230   8.376   9.413   1.138
 2464SOL    HW1 9231   8.300   9.357   1.125
 2464SOL    HW2 9232   8.370   9.441   1.230
 2465SOL     OW 9233   4.042   0.218   5.918
 2465SOL    HW1 9234   4.035   0.307   5.951
 2465SOL    HW2 9235   3.951   0.191   5.901
 2466SOL     OW 9236   3.512  10.172   1.556
 2466SOL    HW1 9237   3.598  10.212   1.547
 2466SOL    HW2 9238   3.456  10.221   1.497
 2467SOL     OW 9239  13.433  13.058  13.865
 2467SOL    HW1 9240  13.486  12.989  13.827
 2467SOL    HW2 9241  13.453  13.055  13.959
 2468SOL     OW 9242   1.770   8.601  14.537
 2468SOL    HW1 9243   1.766   8.660  14.462
 2468SOL    HW2 9244   1.679   8.582  14.559
 2469SOL     OW 9245   1.407   1.655   9.408
 2469SOL    HW1 9246   1.363   1.591   9.464
 2469SOL    HW2 9247   1.339   1.688   9.350
 2470SOL     OW 9248   5.978  12.606   9.948
 2470SOL    HW1 9249   5.972  12.580   9.856
 2470SOL    HW2 9250   6.048  12.671   9.950
 2471SOL     OW 9251   9.013   3.844   7.942
 2471SOL    HW1 9252   8.966   3.789   8.004
 2471SOL    HW2 9253   8.972   3.826   7.857
 2472SOL     OW 9254   9.744   2.022   1.914
 2472SOL    HW1 9255   9.659   2.012   1.958
 2472SOL    HW2 9256   9.804   1.967   1.965
 2473SOL     OW 9257  14.498  12.691   1.201
 2473SOL    HW1 9258  14.457  12.649   1.125
 2473SOL    HW2 9259  14.591  12.671   1.192
 2474SOL     OW 9260   9.715  14.515   6.215
 2474SOL    HW1 9261   9.622  14.527   6.232
 2474SOL    HW2 9262   9.739  14.436   6.263
 2475SOL     OW 9263  12.323  10.902   3.634
 2475SOL    HW1 9264  12.366  10.917   3.717
 2475SOL    HW2 9265  12.244  10.851   3.656
 2476SOL     OW 9266  14.687  11.005   7.781
 2476SOL    HW1 9267  14.680  11.052   7.864
 2476SOL    HW2 9268  14.744  10.931   7.800
 2477SOL     OW 9269  10.736   7.764   6.765
 2477SOL    HW1 9270  10.699   7.713   6.692
 2477SOL    HW2 9271  10.813   7.807   6.727
 2478SOL     OW 9272   8.906   6.944   2.817
 2478SOL    HW1 9273   8.894   7.031   2.855
 2478SOL    HW2 9274   8.888   6.883   2.888
 2479SOL     OW 9275   8.675   7.290  14.873
 2479SOL    HW1 9276   8.656   7.235   0.070
 2479SOL    HW2 9277   8.596   7.286  14.820
 2480SOL     OW 9278  11.395   6.840  11.006
 2480SOL    HW1 9279  11.490   6.843  11.017
 2480SOL    HW2 9280  11.381   6.784  10.929
 2481SOL     OW 9281   4.022  11.979   3.564
 2481SOL    HW1 9282   4.008  12.068   3.532
 2481SOL    HW2 9283   4.107  11.954   3.527
 2482SOL     OW 9284   2.822  14.421  13.671
 2482SOL    HW1 9285   2.888  14.424  13.741
 2482SOL    HW2 9286   2.835  14.336  13.630
 2483SOL     OW 9287   7.727  10.122   3.596
 2483SOL    HW1 9288   7.638  10.147   3.621
 2483SOL    HW2 9289   7.782  10.192   3.630
 2484SOL     OW 9290  13.811   2.214   7.535
 2484SOL    HW1 9291  13.858   2.191   7.455
 2484SOL    HW2 9292  13.735   2.155   7.537
 2485SOL     OW 9293  13.588   5.180   2.135
 2485SOL    HW1 9294  13.508   5.171   2.186
 2485SOL    HW2 9295  13.566   5.244   2.067
 2486SOL     OW 9296   6.504   2.067   0.823
 2486SOL    HW1 9297   6.575   2.023   0.777
 2486SOL    HW2 9298   6.544   2.146   0.860
 2487SOL     OW 9299  14.494  14.502   4.604
 2487SOL    HW1 9300  14.561  14.440   4.632
 2487SOL    HW2 9301  14.528  14.588   4.630
 2488SOL     OW 9302   8.400  12.793  14.316
 2488SOL    HW1 9303   8.447  12.749  14.245
 2488SOL    HW2 9304   8.355  12.866  14.273
 2489SOL     OW 9305   0.364   7.490   6.942
 2489SOL    HW1 9306   0.445   7.446   6.916
 2489SOL    HW2 9307   0.391   7.553   7.009
 2490SOL     OW 9308   8.204   7.994  13.065
 2490SOL    HW1 9309   8.262   7.942  13.122
 2490SOL    HW2 9310   8.121   7.946  13.065
 2491SOL     OW 9311   7.003   8.802   8.190
 2491SOL    HW1 9312   6.943   8.750   8.242
 2491SOL    HW2 9313   6.947   8.850   8.129
 2492SOL     OW 9314   3.428   2.498  12.437
 2492SOL    HW1 9315   3.520   2.485  12.417
 2492SOL    HW2 9316   3.383   2.426  12.393
 2493SOL     OW 9317   7.485   8.741   7.537
 2493SOL    HW1 9318   7.573   8.777   7.525
 2493SOL    HW2 9319   7.440   8.761   7.455
 2494SOL     OW 9320   0.600   6.189   2.332
 2494SOL    HW1 9321   0.509   6.182   2.302
 2494SOL    HW2 9322   0.648   6.223   2.257
 2495SOL     OW 9323  10.194   0.577   0.275
 2495SOL    HW1 9324  10.247   0.498   0.286
 2495SOL    HW2 9325  10.107   0.553   0.306
 2496SOL     OW 9326  14.605  14.451  12.050
 2496SOL    HW1 9327  14.624  14.439  12.143
 2496SOL    HW2 9328  14.689  14.468  12.009
 2497SOL     OW 9329   8.085  14.159   4.853
 2497SOL    HW1 9330   8.134  14.226   4.901
 2497SOL    HW2 9331   8.058  14.097   4.921
 2498SOL     OW 9332  10.345   6.585   0.891
 2498SOL    HW1 9333  10.288   6.653   0.924
 2498SOL    HW2 9334  10.344   6.517   0.959
 2499SOL     OW 9335   3.157   8.863  14.423
 2499SOL    HW1 9336   3.204   8.867  14.340
 2499SOL    HW2 9337   3.225   8.846  14.488
 2500SOL     OW 9338   5.852  10.738  13.804
 2500SOL    HW1 9339   5.771  10.765  13.848
 2500SOL    HW2 9340   5.825  10.671  13.742
 2501SOL     OW 9341   0.789   0.726   3.942
 2501SOL    HW1 9342   0.880   0.746   3.966
 2501SOL    HW2 9343   0.773   0.780   3.865
 2502SOL     OW 9344   5.981   6.086   0.159
 2502SOL    HW1 9345   5.933   6.015   0.116
 2502SOL    HW2 9346   6.070   6.051   0.169
 2503SOL     OW 9347   0.351   4.327   8.954
 2503SOL    HW1 9348   0.357   4.281   8.870
 2503SOL    HW2 9349   0.352   4.257   9.019
 2504SOL     OW 9350   6.328   0.830   9.822
 2504SOL    HW1 9351   6.341   0.794   9.734
 2504SOL    HW2 9352   6.279   0.762   9.869
 2505SOL     OW 9353   3.161   9.661   3.330
 2505SOL    HW1 9354   3.224   9.732   3.341
 2505SOL    HW2 9355   3.191   9.614   3.253
 2506SOL     OW 9356   4.348  11.319   2.747
 2506SOL    HW1 9357   4.371  11.227   2.736
 2506SOL    HW2 9358   4.277  11.318   2.811
 2507SOL     OW 9359  13.086   6.691   1.929
 2507SOL    HW1 9360  13.112   6.617   1.873
 2507SOL    HW2 9361  13.005   6.723   1.890
 2508SOL     OW 9362  12.035  12.348   1.976
 2508SOL    HW1 9363  11.945  12.378   1.974
 2508SOL    HW2 9364  12.035  12.274   2.037
 2509SOL     OW 9365  12.113   5.986   0.675
 2509SOL    HW1 9366  12.208   5.991   0.684
 2509SOL    HW2 9367  12.089   5.907   0.724
 2510SOL     OW 9368  14.597   3.003  14.457
 2510SOL    HW1 9369  14.616   2.920  14.500
 2510SOL    HW2 9370  14.578   2.981  14.366
 2511SOL     OW 9371  12.526  14.203  13.967
 2511SOL    HW1 9372  12.442  14.193  13.922
 2511SOL    HW2 9373  12.537  14.121  14.016
 2512SOL     OW 9374   8.272   1.736   0.721
 2512SOL    HW1 9375   8.212   1.733   0.795
 2512SOL    HW2 9376   8.359   1.728   0.760
 2513SOL     OW 9377   7.712  14.641   3.034
 2513SOL    HW1 9378   7.703  14.643   3.129
 2513SOL    HW2 9379   7.624  14.619   3.002
 2514SOL     OW 9380  11.244  11.808   6.352
 2514SOL    HW1 9381  11.231  11.743   6.283
 2514SOL    HW2 9382  11.337  11.800   6.375
 2515SOL     OW 9383  12.282   5.689   9.676
 2515SOL    HW1 9384  12.316   5.696   9.587
 2515SOL    HW2 9385  12.360   5.690   9.732
 2516SOL     OW 9386  11.100   1.190   6.032
 2516SOL    HW1 9387  11.146   1.158   6.110
 2516SOL    HW2 9388  11.147   1.270   6.008
 2517SOL     OW 9389   9.377   5.979   8.751
 2517SOL    HW1 9390   9.301   5.976   8.693
 2517SOL    HW2 9391   9.339   5.978   8.839
 2518SOL     OW 9392   5.004   9.970   2.920
 2518SOL    HW1 9393   5.060   9.961   2.843
 2518SOL    HW2 9394   4.966  10.057   2.912
 2519SOL     OW 9395  10.948   4.877   4.685
 2519SOL    HW1 9396  10.936   4.966   4.718
 2519SOL    HW2 9397  10.883   4.825   4.734
 2520SOL     OW 9398   9.784   4.639   4.888
 2520SOL    HW1 9399   9.714   4.704   4.896
 2520SOL    HW2 9400   9.825   4.637   4.974
 2521SOL     OW 9401   3.380  11.525   2.394
 2521SOL    HW1 9402   3.305  11.581   2.417
 2521SOL    HW2 9403   3.410  11.490   2.477
 2522SOL     OW 9404   8.511   7.637   4.136
 2522SOL    HW1 9405   8.586   7.629   4.195
 2522SOL    HW2 9406   8.549   7.624   4.048
 2523SOL     OW 9407   5.105  12.785   0.624
 2523SOL    HW1 9408   5.012  12.773   0.605
 2523SOL    HW2 9409   5.149  12.729   0.560
 2524SOL     OW 9410  12.552  13.128   8.185
 2524SOL    HW1 9411  12.529  13.156   8.274
 2524SOL    HW2 9412  12.488  13.172   8.129
 2525SOL     OW 9413  11.945  12.461  10.466
 2525SOL    HW1 9414  11.930  12.389  10.404
 2525SOL    HW2 9415  12.002  12.423  10.533
 2526SOL     OW 9416  14.840   2.279  12.371
 2526SOL    HW1 9417   0.051   2.301  12.393
 2526SOL    HW2 9418  14.817   2.208  12.432
 2527SOL     OW 9419  11.073   3.696   6.714
 2527SOL    HW1 9420  11.062   3.601   6.712
 2527SOL    HW2 9421  11.052   3.725   6.625
 2528SOL     OW 9422   4.980   3.233  10.276
 2528SOL    HW1 9423   5.060   3.187  10.300
 2528SOL    HW2 9424   4.980   3.231  10.180
 2529SOL     OW 9425  11.738   2.902  12.799
 2529SOL    HW1 9426  11.647   2.873  12.800
 2529SOL    HW2 9427  11.758   2.923  12.890
 2530SOL     OW 9428   3.422   0.104   8.528
 2530SOL    HW1 9429   3.381   0.024   8.561
 2530SOL    HW2 9430   3.474   0.075   8.453
 2531SOL     OW 9431  14.567  10.970  12.511
 2531SOL    HW1 9432  14.531  10.903  12.453
 2531SOL    HW2 9433  14.586  11.044  12.454
 2532SOL     OW 9434   2.452   0.833  13.284
 2532SOL    HW1 9435   2.386   0.765  13.284
 2532SOL    HW2 9436   2.408   0.910  13.318
 2533SOL     OW 9437   1.142   9.776   7.206
 2533SOL    HW1 9438   1.126   9.850   7.147
 2533SOL    HW2 9439   1.220   9.802   7.256
 2534SOL     OW 9440  12.256   5.655  12.528
 2534SOL    HW1 9441  12.178   5.603  12.510
 2534SOL    HW2 9442  12.323   5.590  12.553
 2535SOL     OW 9443   8.072   6.626   7.116
 2535SOL    HW1 9444   8.150   6.669   7.151
 2535SOL    HW2 9445   7.999   6.671   7.159
 2536SOL     OW 9446  13.132   7.783   7.391
 2536SOL    HW1 9447  13.180   7.712   7.433
 2536SOL    HW2 9448  13.198   7.830   7.340
 2537SOL     OW 9449   5.486   1.281  13.985
 2537SOL    HW1 9450   5.580   1.273  13.970
 2537SOL    HW2 9451   5.452   1.323  13.906
 2538SOL     OW 9452  11.306   0.675  13.081
 2538SOL    HW1 9453  11.336   0.600  13.030
 2538SOL    HW2 9454  11.332   0.655  13.171
 2539SOL     OW 9455  12.693   2.926   9.576
 2539SOL    HW1 9456  12.677   3.005   9.525
 2539SOL    HW2 9457  12.747   2.871   9.519
 2540SOL     OW 9458  10.316   0.455  11.527
 2540SOL    HW1 9459  10.337   0.385  11.465
 2540SOL    HW2 9460  10.221   0.454  11.532
 2541SOL     OW 9461  12.906  11.879   3.082
 2541SOL    HW1 9462  12.873  11.851   3.167
 2541SOL    HW2 9463  12.934  11.797   3.039
 2542SOL     OW 9464   9.933   4.571  14.268
 2542SOL    HW1 9465   9.963   4.637  14.206
 2542SOL    HW2 9466   9.999   4.570  14.337
 2543SOL     OW 9467  13.286   4.008   5.786
 2543SOL    HW1 9468  13.305   4.044   5.872
 2543SOL    HW2 9469  13.313   3.916   5.792
 2544SOL     OW 9470   5.343   3.874  14.849
 2544SOL    HW1 9471   5.407   3.846   0.035
 2544SOL    HW2 9472   5.258   3.859   0.012
 2545SOL     OW 9473  13.141   9.366   6.381
 2545SOL    HW1 9474  13.057   9.393   6.417
 2545SOL    HW2 9475  13.202   9.435   6.407
 2546SOL     OW 9476  12.547  12.863   1.413
 2546SOL    HW1 9477  12.462  12.898   1.440
 2546SOL    HW2 9478  12.539  12.768   1.428
 2547SOL     OW 9479   6.444   7.550   2.962
 2547SOL    HW1 9480   6.398   7.585   2.885
 2547SOL    HW2 9481   6.531   7.589   2.957
 2548SOL     OW 9482  12.282   2.406   3.074
 2548SOL    HW1 9483  12.366   2.420   3.030
 2548SOL    HW2 9484  12.290   2.454   3.156
 2549SOL     OW 9485  14.322   0.051  11.938
 2549SOL    HW1 9486  14.315   0.092  11.852
 2549SOL    HW2 9487  14.249  14.870  11.942
 2550SOL     OW 9488   2.279  14.789   7.154
 2550SOL    HW1 9489   2.338  14.788   7.229
 2550SOL    HW2 9490   2.292  14.705   7.111
 2551SOL     OW 9491  12.473   8.425   0.739
 2551SOL    HW1 9492  12.481   8.453   0.648
 2551SOL    HW2 9493  12.551   8.461   0.782
 2552SOL     OW 9494  11.268   8.331   3.270
 2552SOL    HW1 9495  11.194   8.276   3.298
 2552SOL    HW2 9496  11.232   8.385   3.200
 2553SOL     OW 9497  10.294   6.188  14.842
 2553SOL    HW1 9498  10.305   6.269   0.013
 2553SOL    HW2 9499  10.250   6.128   0.023
 2554SOL     OW 9500   2.433   4.272   2.359
 2554SOL    HW1 9501   2.478   4.217   2.296
 2554SOL    HW2 9502   2.373   4.213   2.404
 2555SOL     OW 9503   7.206   5.247   0.861
 2555SOL    HW1 9504   7.155   5.315   0.905
 2555SOL    HW2 9505   7.173   5.246   0.771
 2556SOL     OW 9506   1.071   6.673   9.887
 2556SOL    HW1 9507   1.068   6.767   9.869
 2556SOL    HW2 9508   1.084   6.633   9.801
 2557SOL     OW 9509  13.498   2.173   8.485
 2557SOL    HW1 9510  13.420   2.130   8.521
 2557SOL    HW2 9511  13.525   2.117   8.413
 2558SOL     OW 9512   7.418  14.602  14.011
 2558SOL    HW1 9513   7.364  14.541  13.961
 2558SOL    HW2 9514   7.465  14.653  13.945
 2559SOL     OW 9515   4.649  13.756   3.090
 2559SOL    HW1 9516   4.652  13.671   3.134
 2559SOL    HW2 9517   4.637  13.735   2.998
 2560SOL     OW 9518   8.234   1.853   4.053
 2560SOL    HW1 9519   8.300   1.821   4.114
 2560SOL    HW2 9520   8.229   1.947   4.071
 2561SOL     OW 9521   2.833   1.882  10.421
 2561SOL    HW1 9522   2.924   1.868  10.447
 2561SOL    HW2 9523   2.787   1.803  10.447
 2562SOL     OW 9524   7.778   6.358   4.449
 2562SOL    HW1 9525   7.717   6.286   4.433
 2562SOL    HW2 9526   7.856   6.316   4.486
 2563SOL     OW 9527   8.283   7.879  11.163
 2563SOL    HW1 9528   8.267   7.964  11.204
 2563SOL    HW2 9529   8.200   7.832  11.174
 2564SOL     OW 9530   8.600  14.339  11.661
 2564SOL    HW1 9531   8.668  14.334  11.728
 2564SOL    HW2 9532   8.583  14.433  11.650
 2565SOL     OW 9533   2.064  14.540  10.398
 2565SOL    HW1 9534   2.086  14.455  10.436
 2565SOL    HW2 9535   2.144  14.591  10.404
 2566SOL     OW 9536   3.501   0.280   5.769
 2566SOL    HW1 9537   3.548   0.249   5.692
 2566SOL    HW2 9538   3.546   0.362   5.793
 2567SOL     OW 9539   3.844   0.345   2.550
 2567SOL    HW1 9540   3.878   0.306   2.470
 2567SOL    HW2 9541   3.784   0.279   2.585
 2568SOL     OW 9542   5.140   4.673   8.174
 2568SOL    HW1 9543   5.118   4.656   8.083
 2568SOL    HW2 9544   5.163   4.765   8.178
 2569SOL     OW 9545   3.123  13.059  11.247
 2569SOL    HW1 9546   3.044  13.100  11.283
 2569SOL    HW2 9547   3.194  13.120  11.269
 2570SOL     OW 9548  11.468   1.371   4.873
 2570SOL    HW1 9549  11.469   1.295   4.815
 2570SOL    HW2 9550  11.486   1.335   4.960
 2571SOL     OW 9551   8.604   1.022   1.256
 2571SOL    HW1 9552   8.661   1.093   1.286
 2571SOL    HW2 9553   8.659   0.944   1.262
 2572SOL     OW 9554   1.816  11.306   9.598
 2572SOL    HW1 9555   1.813  11.244   9.671
 2572SOL    HW2 9556   1.879  11.373   9.626
 2573SOL     OW 9557   3.988  12.468  13.804
 2573SOL    HW1 9558   4.019  12.383  13.833
 2573SOL    HW2 9559   4.042  12.531  13.852
 2574SOL     OW 9560  14.068  14.092  11.221
 2574SOL    HW1 9561  14.054  14.049  11.305
 2574SOL    HW2 9562  14.030  14.032  11.156
 2575SOL     OW 9563   4.956   9.407   6.052
 2575SOL    HW1 9564   5.024   9.419   5.985
 2575SOL    HW2 9565   5.000   9.359   6.121
 2576SOL     OW 9566   9.948   0.755  13.227
 2576SOL    HW1 9567   9.917   0.678  13.273
 2576SOL    HW2 9568  10.043   0.741  13.217
 2577SOL     OW 9569   2.328  11.797   7.056
 2577SOL    HW1 9570   2.397  11.863   7.054
 2577SOL    HW2 9571   2.263  11.832   7.118
 2578SOL     OW 9572   8.522   1.445   9.260
 2578SOL    HW1 9573   8.531   1.353   9.235
 2578SOL    HW2 9574   8.504   1.491   9.178
 2579SOL     OW 9575   6.023   5.170   1.591
 2579SOL    HW1 9576   6.017   5.265   1.596
 2579SOL    HW2 9577   6.050   5.142   1.679
 2580SOL     OW 9578   0.299  14.508  10.081
 2580SOL    HW1 9579   0.363  14.551  10.138
 2580SOL    HW2 9580   0.260  14.440  10.136
 2581SOL     OW 9581   2.156  11.614  11.988
 2581SOL    HW1 9582   2.138  11.684  11.925
 2581SOL    HW2 9583   2.229  11.565  11.948
 2582SOL     OW 9584  13.437  12.931   6.031
 2582SOL    HW1 9585  13.449  13.021   6.060
 2582SOL    HW2 9586  13.357  12.902   6.074
 2583SOL     OW 9587   5.681  14.315  13.432
 2583SOL    HW1 9588   5.599  14.328  13.385
 2583SOL    HW2 9589   5.740  14.383  13.399
 2584SOL     OW 9590   9.402   7.734  14.557
 2584SOL    HW1 9591   9.465   7.763  14.623
 2584SOL    HW2 9592   9.444   7.750  14.473
 2585SOL     OW 9593  11.615  11.097   7.678
 2585SOL    HW1 9594  11.549  11.096   7.747
 2585SOL    HW2 9595  11.694  11.128   7.722
 2586SOL     OW 9596  12.391   0.065  12.730
 2586SOL    HW1 9597  12.368  14.853  12.747
 2586SOL    HW2 9598  12.415   0.100  12.815
 2587SOL     OW 9599   1.303   7.625   2.406
 2587SOL    HW1 9600   1.249   7.607   2.483
 2587SOL    HW2 9601   1.245   7.606   2.332
 2588SOL     OW 9602   3.662   5.322  13.235
 2588SOL    HW1 9603   3.698   5.341  13.322
 2588SOL    HW2 9604   3.577   5.281  13.253
 2589SOL     OW 9605  13.744  13.488   8.328
 2589SOL    HW1 9606  13.752  13.491   8.424
 2589SOL    HW2 9607  13.664  13.438   8.312
 2590SOL     OW 9608   4.534   3.724   6.352
 2590SOL    HW1 9609   4.499   3.784   6.417
 2590SOL    HW2 9610   4.629   3.733   6.359
 2591SOL     OW 9611  11.641  12.316   2.436
 2591SOL    HW1 9612  11.665  12.321   2.528
 2591SOL    HW2 9613  11.558  12.363   2.430
 2592SOL     OW 9614   1.019   1.028   2.708
 2592SOL    HW1 9615   1.096   1.076   2.677
 2592SOL    HW2 9616   1.029   0.940   2.672
 2593SOL     OW 9617   5.905   2.281  12.157
 2593SOL    HW1 9618   5.882   2.193  12.187
 2593SOL    HW2 9619   5.986   2.302  12.204
 2594SOL     OW 9620   8.457   6.805   5.399
 2594SOL    HW1 9621   8.535   6.802   5.344
 2594SOL    HW2 9622   8.488   6.835   5.484
 2595SOL     OW 9623   8.066   7.583  11.317
 2595SOL    HW1 9624   7.996   7.538  11.365
 2595SOL    HW2 9625   8.138   7.520  11.316
 2596SOL     OW 9626   4.426  12.595   9.952
 2596SOL    HW1 9627   4.456  12.530   9.888
 2596SOL    HW2 9628   4.351  12.638   9.910
 2597SOL     OW 9629   0.051  13.467   6.613
 2597SOL    HW1 9630  14.875  13.540   6.584
 2597SOL    HW2 9631   0.032  13.397   6.551
 2598SOL     OW 9632   1.330  11.096  11.760
 2598SOL    HW1 9633   1.311  11.151  11.684
 2598SOL    HW2 9634   1.415  11.057  11.741
 2599SOL     OW 9635   4.233   5.839   6.029
 2599SOL    HW1 9636   4.283   5.820   6.108
 2599SOL    HW2 9637   4.207   5.931   6.040
 2600SOL     OW 9638   3.456   9.086   5.894
 2600SOL    HW1 9639   3.528   9.103   5.832
 2600SOL    HW2 9640   3.430   9.173   5.924
 2601SOL     OW 9641   6.916  12.717   8.755
 2601SOL    HW1 9642   6.840  12.748   8.706
 2601SOL    HW2 9643   6.897  12.740   8.846
 2602SOL     OW 9644   1.411   2.355   5.651
 2602SOL    HW1 9645   1.398   2.365   5.745
 2602SOL    HW2 9646   1.323   2.348   5.614
 2603SOL     OW 9647   0.679   0.704  10.644
 2603SOL    HW1 9648   0.763   0.743  10.670
 2603SOL    HW2 9649   0.627   0.705  10.724
 2604SOL     OW 9650   1.885   5.241   8.162
 2604SOL    HW1 9651   1.834   5.246   8.243
 2604SOL    HW2 9652   1.964   5.194   8.187
 2605SOL     OW 9653  10.000   4.465  10.974
 2605SOL    HW1 9654  10.078   4.470  10.919
 2605SOL    HW2 9655   9.971   4.374  10.968
 2606SOL     OW 9656   9.534  11.642  10.486
 2606SOL    HW1 9657   9.605  11.582  10.508
 2606SOL    HW2 9658   9.525  11.697  10.564
 2607SOL     OW 9659  12.658  10.083   7.368
 2607SOL    HW1 9660  12.735  10.130   7.334
 2607SOL    HW2 9661  12.654  10.107   7.460
 2608SOL     OW 9662   3.971  14.361   8.214
 2608SOL    HW1 9663   4.029  14.332   8.285
 2608SOL    HW2 9664   4.010  14.443   8.183
 2609SOL     OW 9665   7.289  14.212   1.391
 2609SOL    HW1 9666   7.328  14.218   1.304
 2609SOL    HW2 9667   7.196  14.197   1.375
 2610SOL     OW 9668  11.110   4.600   6.609
 2610SOL    HW1 9669  11.097   4.592   6.514
 2610SOL    HW2 9670  11.125   4.510   6.639
 2611SOL     OW 9671   6.392  11.957  10.558
 2611SOL    HW1 9672   6.333  11.954  10.633
 2611SOL    HW2 9673   6.449  12.032  10.576
 2612SOL     OW 9674   0.965  13.493   8.066
 2612SOL    HW1 9675   1.007  13.412   8.098
 2612SOL    HW2 9676   0.996  13.501   7.975
 2613SOL     OW 9677   2.604   4.583   4.612
 2613SOL    HW1 9678   2.624   4.594   4.705
 2613SOL    HW2 9679   2.513   4.612   4.603
 2614SOL     OW 9680   8.776   3.754   4.850
 2614SOL    HW1 9681   8.738   3.842   4.852
 2614SOL    HW2 9682   8.831   3.749   4.928
 2615SOL     OW 9683  13.852   5.805  13.963
 2615SOL    HW1 9684  13.787   5.845  14.022
 2615SOL    HW2 9685  13.907   5.752  14.021
 2616SOL     OW 9686   1.320  13.160   0.047
 2616SOL    HW1 9687   1.231  13.187   0.070
 2616SOL    HW2 9688   1.309  13.102  14.850
 2617SOL     OW 9689   3.280  12.333  14.353
 2617SOL    HW1 9690   3.227  12.265  14.394
 2617SOL    HW2 9691   3.362  12.332  14.402
 2618SOL     OW 9692  10.213   3.178  14.792
 2618SOL    HW1 9693  10.246   3.110  14.734
 2618SOL    HW2 9694  10.129   3.204  14.754
 2619SOL     OW 9695  11.129  11.709  10.547
 2619SOL    HW1 9696  11.166  11.768  10.482
 2619SOL    HW2 9697  11.038  11.696  10.520
 2620SOL     OW 9698   9.826   8.924   3.563
 2620SOL    HW1 9699   9.765   8.987   3.602
 2620SOL    HW2 9700   9.798   8.839   3.597
 2621SOL     OW 9701   3.186   7.816   1.440
 2621SOL    HW1 9702   3.155   7.880   1.504
 2621SOL    HW2 9703   3.140   7.735   1.463
 2622SOL     OW 9704  14.464   5.853   0.201
 2622SOL    HW1 9705  14.378   5.886   0.224
 2622SOL    HW2 9706  14.504   5.923   0.150
 2623SOL     OW 9707   9.926  14.545  13.028
 2623SOL    HW1 9708   9.884  14.534  13.113
 2623SOL    HW2 9709  10.019  14.537  13.045
 2624SOL     OW 9710  11.264  10.189  14.735
 2624SOL    HW1 9711  11.275  10.136  14.814
 2624SOL    HW2 9712  11.183  10.238  14.750
 2625SOL     OW 9713  12.023   9.687  11.145
 2625SOL    HW1 9714  12.081   9.657  11.075
 2625SOL    HW2 9715  12.043   9.629  11.219
 2626SOL     OW 9716  12.332  11.643  12.867
 2626SOL    HW1 9717  12.339  11.637  12.772
 2626SOL    HW2 9718  12.320  11.553  12.896
 2627SOL     OW 9719  11.736  11.997   7.152
 2627SOL    HW1 9720  11.735  11.947   7.234
 2627SOL    HW2 9721  11.816  12.048   7.156
 2628SOL     OW 9722   0.572  12.244   6.308
 2628SOL    HW1 9723   0.527  12.177   6.256
 2628SOL    HW2 9724   0.655  12.202   6.334
 2629SOL     OW 9725  11.797   6.444   4.879
 2629SOL    HW1 9726  11.857   6.503   4.833
 2629SOL    HW2 9727  11.713   6.491   4.880
 2630SOL     OW 9728  12.268   3.027  12.064
 2630SOL    HW1 9729  12.325   3.066  11.997
 2630SOL    HW2 9730  12.311   2.945  12.087
 2631SOL     OW 9731   1.225   4.031  10.169
 2631SOL    HW1 9732   1.306   4.073  10.140
 2631SOL    HW2 9733   1.236   4.019  10.263
 2632SOL     OW 9734   8.880   9.398  12.508
 2632SOL    HW1 9735   8.903   9.308  12.484
 2632SOL    HW2 9736   8.918   9.451  12.437
 2633SOL     OW 9737   7.307   9.021  11.032
 2633SOL    HW1 9738   7.248   9.079  10.984
 2633SOL    HW2 9739   7.257   8.995  11.110
 2634SOL     OW 9740  11.410   6.095  11.107
 2634SOL    HW1 9741  11.354   6.024  11.137
 2634SOL    HW2 9742  11.355   6.173  11.114
 2635SOL     OW 9743  10.732   4.924   5.638
 2635SOL    HW1 9744  10.704   4.983   5.708
 2635SOL    HW2 9745  10.806   4.876   5.675
 2636SOL     OW 9746  14.148  14.579  12.520
 2636SOL    HW1 9747  14.228  14.565  12.571
 2636SOL    HW2 9748  14.171  14.648  12.458
 2637SOL     OW 9749  14.298   8.756   6.708
 2637SOL    HW1 9750  14.358   8.704   6.762
 2637SOL    HW2 9751  14.214   8.711   6.715
 2638SOL     OW 9752   1.201  14.077  12.963
 2638SOL    HW1 9753   1.139  14.133  13.011
 2638SOL    HW2 9754   1.190  13.991  13.003
 2639SOL     OW 9755  14.766   3.989   3.911
 2639SOL    HW1 9756  14.695   4.000   3.973
 2639SOL    HW2 9757  14.791   3.897   3.919
 2640SOL     OW 9758   8.533   8.461  11.019
 2640SOL    HW1 9759   8.574   8.529  11.072
 2640SOL    HW2 9760   8.487   8.508  10.950
 2641SOL     OW 9761   5.483  11.950   9.856
 2641SOL    HW1 9762   5.538  11.905   9.791
 2641SOL    HW2 9763   5.509  12.041   9.850
 2642SOL     OW 9764  14.179  13.687   1.523
 2642SOL    HW1 9765  14.112  13.750   1.549
 2642SOL    HW2 9766  14.130  13.619   1.476
 2643SOL     OW 9767   2.721   4.731  11.199
 2643SOL    HW1 9768   2.686   4.689  11.121
 2643SOL    HW2 9769   2.661   4.705  11.269
 2644SOL     OW 9770  13.043  13.555  11.867
 2644SOL    HW1 9771  13.060  13.515  11.782
 2644SOL    HW2 9772  13.006  13.484  11.920
 2645SOL     OW 9773  10.829   3.277  11.588
 2645SOL    HW1 9774  10.819   3.236  11.674
 2645SOL    HW2 9775  10.861   3.206  11.532
 2646SOL     OW 9776   4.972   3.501   5.075
 2646SOL    HW1 9777   5.058   3.535   5.050
 2646SOL    HW2 9778   4.985   3.407   5.084
 2647SOL     OW 9779   7.655  11.333   5.276
 2647SOL    HW1 9780   7.600  11.404   5.245
 2647SOL    HW2 9781   7.726  11.377   5.323
 2648SOL     OW 9782   1.297   0.028   5.641
 2648SOL    HW1 9783   1.328  14.855   5.568
 2648SOL    HW2 9784   1.343  14.872   5.717
 2649SOL     OW 9785  12.211   5.168  14.749
 2649SOL    HW1 9786  12.299   5.179  14.785
 2649SOL    HW2 9787  12.157   5.147  14.825
 2650SOL     OW 9788   5.017   9.985   6.976
 2650SOL    HW1 9789   4.933   9.942   6.993
 2650SOL    HW2 9790   5.064   9.980   7.059
 2651SOL     OW 9791   8.077   4.991  10.596
 2651SOL    HW1 9792   8.110   5.008  10.684
 2651SOL    HW2 9793   8.153   4.958  10.548
 2652SOL     OW 9794  12.105   9.321  13.025
 2652SOL    HW1 9795  12.024   9.282  12.992
 2652SOL    HW2 9796  12.077   9.376  13.098
 2653SOL     OW 9797   2.263  11.397   3.220
 2653SOL    HW1 9798   2.324  11.429   3.286
 2653SOL    HW2 9799   2.194  11.354   3.270
 2654SOL     OW 9800   1.419  10.544   1.837
 2654SOL    HW1 9801   1.446  10.634   1.857
 2654SOL    HW2 9802   1.347  10.527   1.899
 2655SOL     OW 9803   6.220   6.734  10.454
 2655SOL    HW1 9804   6.272   6.753  10.376
 2655SOL    HW2 9805   6.136   6.775  10.437
 2656SOL     OW 9806   4.343  14.348  10.250
 2656SOL    HW1 9807   4.426  14.350  10.298
 2656SOL    HW2 9808   4.354  14.280  10.184
 2657SOL     OW 9809   6.308   2.992   6.595
 2657SOL    HW1 9810   6.392   2.987   6.549
 2657SOL    HW2 9811   6.290   2.902   6.622
 2658SOL     OW 9812   7.163   8.342   2.128
 2658SOL    HW1 9813   7.109   8.357   2.050
 2658SOL    HW2 9814   7.171   8.247   2.132
 2659SOL     OW 9815   3.756   7.629   7.169
 2659SOL    HW1 9816   3.845   7.608   7.142
 2659SOL    HW2 9817   3.738   7.568   7.241
 2660SOL     OW 9818   8.397  13.739   3.272
 2660SOL    HW1 9819   8.321  13.787   3.303
 2660SOL    HW2 9820   8.458  13.807   3.242
 2661SOL     OW 9821   8.836   4.324  10.583
 2661SOL    HW1 9822   8.800   4.246  10.541
 2661SOL    HW2 9823   8.925   4.331  10.548
 2662SOL     OW 9824   4.430  13.979   5.754
 2662SOL    HW1 9825   4.475  13.933   5.683
 2662SOL    HW2 9826   4.496  14.040   5.788
 2663SOL     OW 9827   0.444  14.263  13.820
 2663SOL    HW1 9828   0.394  14.340  13.847
 2663SOL    HW2 9829   0.535  14.285  13.844
 2664SOL     OW 9830   4.678   1.622   8.795
 2664SOL    HW1 9831   4.773   1.623   8.799
 2664SOL    HW2 9832   4.657   1.604   8.704
 2665SOL     OW 9833   0.981  14.715  14.129
 2665SOL    HW1 9834   1.021  14.653  14.190
 2665SOL    HW2 9835   0.910  14.755  14.178
 2666SOL     OW 9836  14.031   2.389  11.030
 2666SOL    HW1 9837  13.954   2.418  11.080
 2666SOL    HW2 9838  14.084   2.341  11.093
 2667SOL     OW 9839   8.596   0.261   9.543
 2667SOL    HW1 9840   8.689   0.242   9.554
 2667SOL    HW2 9841   8.557   0.241   9.628
 2668SOL     OW 9842   3.385   2.161   9.836
 2668SOL    HW1 9843   3.430   2.096   9.783
 2668SOL    HW2 9844   3.401   2.244   9.792
 2669SOL     OW 9845   9.439  12.527   8.055
 2669SOL    HW1 9846   9.370  12.590   8.033
 2669SOL    HW2 9847   9.511  12.581   8.086
 2670SOL     OW 9848   4.455  12.867  11.975
 2670SOL    HW1 9849   4.402  12.875  11.896
 2670SOL    HW2 9850   4.545  12.874  11.945
 2671SOL     OW 9851   3.209   0.557   4.774
 2671SOL    HW1 9852   3.249   0.584   4.692
 2671SOL    HW2 9853   3.235   0.624   4.837
 2672SOL     OW 9854  10.979  14.794   1.020
 2672SOL    HW1 9855  11.033  14.717   1.002
 2672SOL    HW2 9856  11.032  14.849   1.076
 2673SOL     OW 9857   2.237   8.231   5.682
 2673SOL    HW1 9858   2.231   8.142   5.646
 2673SOL    HW2 9859   2.147   8.263   5.680
 2674SOL     OW 9860  11.068  10.290   8.809
 2674SOL    HW1 9861  11.128  10.250   8.872
 2674SOL    HW2 9862  11.057  10.380   8.840
 2675SOL     OW 9863   1.076   2.942   0.806
 2675SOL    HW1 9864   1.095   3.007   0.738
 2675SOL    HW2 9865   0.981   2.937   0.809
 2676SOL     OW 9866   7.887  14.402  14.603
 2676SOL    HW1 9867   7.978  14.402  14.573
 2676SOL    HW2 9868   7.890  14.358  14.689
 2677SOL     OW 9869  11.251  14.645  10.008
 2677SOL    HW1 9870  11.196  14.684   9.941
 2677SOL    HW2 9871  11.339  14.645   9.970
 2678SOL     OW 9872  11.289   0.731   0.549
 2678SOL    HW1 9873  11.206   0.775   0.526
 2678SOL    HW2 9874  11.273   0.695   0.636
 2679SOL     OW 9875  13.045  13.099   1.050
 2679SOL    HW1 9876  13.112  13.116   1.117
 2679SOL    HW2 9877  13.095  13.084   0.969
 2680SOL     OW 9878   8.960   8.999  10.300
 2680SOL    HW1 9879   9.041   9.023  10.343
 2680SOL    HW2 9880   8.914   9.082  10.285
 2681SOL     OW 9881   2.227   2.117  12.904
 2681SOL    HW1 9882   2.138   2.101  12.933
 2681SOL    HW2 9883   2.223   2.202  12.860
 2682SOL     OW 9884  10.064   7.152  13.518
 2682SOL    HW1 9885  10.073   7.237  13.563
 2682SOL    HW2 9886   9.970   7.134  13.521
 2683SOL     OW 9887   0.454  11.650  14.192
 2683SOL    HW1 9888   0.508  11.655  14.113
 2683SOL    HW2 9889   0.403  11.569  14.180
 2684SOL     OW 9890   9.935   6.919  12.761
 2684SOL    HW1 9891   9.941   7.012  12.785
 2684SOL    HW2 9892   9.864   6.915  12.697
 2685SOL     OW 9893   3.158   3.523   5.232
 2685SOL    HW1 9894   3.097   3.542   5.160
 2685SOL    HW2 9895   3.233   3.481   5.190
 2686SOL     OW 9896   2.344   0.627   1.698
 2686SOL    HW1 9897   2.432   0.666   1.695
 2686SOL    HW2 9898   2.351   0.548   1.645
 2687SOL     OW 9899  12.266   8.074   3.004
 2687SOL    HW1 9900  12.299   8.084   2.915
 2687SOL    HW2 9901  12.344   8.076   3.059
 2688SOL     OW 9902  14.448   1.591   8.666
 2688SOL    HW1 9903  14.403   1.670   8.696
 2688SOL    HW2 9904  14.470   1.609   8.575
 2689SOL     OW 9905   7.324   1.387   2.456
 2689SOL    HW1 9906   7.283   1.357   2.375
 2689SOL    HW2 9907   7.251   1.404   2.515
 2690SOL     OW 9908  10.524   9.515  13.278
 2690SOL    HW1 9909  10.516   9.578  13.206
 2690SOL    HW2 9910  10.609   9.474  13.264
 2691SOL     OW 9911   6.616   6.308  14.248
 2691SOL    HW1 9912   6.620   6.233  14.306
 2691SOL    HW2 9913   6.548   6.365  14.286
 2692SOL     OW 9914  10.790   8.183   6.033
 2692SOL    HW1 9915  10.863   8.154   5.978
 2692SOL    HW2 9916  10.724   8.114   6.023
 2693SOL     OW 9917   7.760   7.817   5.852
 2693SOL    HW1 9918   7.679   7.771   5.832
 2693SOL    HW2 9919   7.734   7.907   5.867
 2694SOL     OW 9920   8.541  10.304  11.741
 2694SOL    HW1 9921   8.614  10.246  11.763
 2694SOL    HW2 9922   8.511  10.273  11.656
 2695SOL     OW 9923   7.899   2.301   7.622
 2695SOL    HW1 9924   7.964   2.356   7.665
 2695SOL    HW2 9925   7.830   2.288   7.687
 2696SOL     OW 9926   6.898   2.849  10.379
 2696SOL    HW1 9927   6.850   2.893  10.449
 2696SOL    HW2 9928   6.862   2.885  10.298
 2697SOL     OW 9929   8.713  11.282  12.418
 2697SOL    HW1 9930   8.727  11.188  12.428
 2697SOL    HW2 9931   8.753  11.321  12.497
 2698SOL     OW 9932   0.349   5.579   5.599
 2698SOL    HW1 9933   0.421   5.612   5.545
 2698SOL    HW2 9934   0.379   5.494   5.630
 2699SOL     OW 9935   7.898  12.014   7.196
 2699SOL    HW1 9936   7.953  12.078   7.152
 2699SOL    HW2 9937   7.939  11.930   7.175
 2700SOL     OW 9938  13.410   7.082   5.168
 2700SOL    HW1 9939  13.374   7.170   5.178
 2700SOL    HW2 9940  13.493   7.095   5.124
 2701SOL     OW 9941   9.896   1.568  12.054
 2701SOL    HW1 9942   9.859   1.570  11.965
 2701SOL    HW2 9943   9.988   1.545  12.041
 2702SOL     OW 9944   1.117   1.738   1.340
 2702SOL    HW1 9945   1.200   1.710   1.379
 2702SOL    HW2 9946   1.097   1.821   1.384
 2703SOL     OW 9947  14.022  13.814   6.218
 2703SOL    HW1 9948  14.088  13.884   6.217
 2703SOL    HW2 9949  13.991  13.809   6.128
 2704SOL     OW 9950   3.960   3.459   0.489
 2704SOL    HW1 9951   3.982   3.552   0.490
 2704SOL    HW2 9952   3.900   3.450   0.415
 2705SOL     OW 9953  14.073  14.774   5.844
 2705SOL    HW1 9954  14.088  14.860   5.883
 2705SOL    HW2 9955  14.140  14.765   5.777
 2706SOL     OW 9956  14.499   4.572  13.341
 2706SOL    HW1 9957  14.414   4.605  13.368
 2706SOL    HW2 9958  14.555   4.650  13.337
 2707SOL     OW 9959   4.009   0.385  10.920
 2707SOL    HW1 9960   4.000   0.468  10.965
 2707SOL    HW2 9961   3.922   0.368  10.883
 2708SOL     OW 9962  13.960   8.813   6.518
 2708SOL    HW1 9963  13.913   8.878   6.467
 2708SOL    HW2 9964  14.037   8.792   6.465
 2709SOL     OW 9965  11.748   9.924  10.605
 2709SOL    HW1 9966  11.775   9.970  10.525
 2709SOL    HW2 9967  11.659   9.955  10.622
 2710SOL     OW 9968   4.545   8.242  11.706
 2710SOL    HW1 9969   4.594   8.320  11.679
 2710SOL    HW2 9970   4.525   8.197  11.624
 2711SOL     OW 9971   7.567  13.271   6.041
 2711SOL    HW1 9972   7.530  13.349   6.083
 2711SOL    HW2 9973   7.659  13.271   6.069
 2712SOL     OW 9974   5.465   0.863   9.487
 2712SOL    HW1 9975   5.525   0.937   9.502
 2712SOL    HW2 9976   5.467   0.850   9.393
 2713SOL     OW 9977   4.214   5.061   3.205
 2713SOL    HW1 9978   4.150   4.990   3.200
 2713SOL    HW2 9979   4.162   5.139   3.222
 2714SOL     OW 9980   2.337  13.377   1.236
 2714SOL    HW1 9981   2.341  13.299   1.292
 2714SOL    HW2 9982   2.383  13.352   1.156
 2715SOL     OW 9983   7.653   9.087   3.000
 2715SOL    HW1 9984   7.614   9.166   2.963
 2715SOL    HW2 9985   7.595   9.016   2.973
 2716SOL     OW 9986  14.791   3.506   7.354
 2716SOL    HW1 9987  14.781   3.418   7.389
 2716SOL    HW2 9988  14.878   3.508   7.315
 2717SOL     OW 9989   9.821  14.113   8.063
 2717SOL    HW1 9990   9.806  14.067   8.146
 2717SOL    HW2 9991   9.798  14.050   7.995
 2718SOL     OW 9992   2.840  12.644   0.236
 2718SOL    HW1 9993   2.765  12.640   0.177
 2718SOL    HW2 9994   2.892  12.566   0.214
 2719SOL     OW 9995  13.516   5.980   0.823
 2719SOL    HW1 9996  13.429   5.954   0.853
 2719SOL    HW2 9997  13.517   6.075   0.832
 2720SOL     OW 9998  11.247   2.850   4.213
 2720SOL    HW1 9999  11.260   2.945   4.218
 2720SOL    HW210000  11.172   2.839   4.154
 2721SOL     OW10001  11.820  14.243   9.849
 2721SOL    HW110002  11.798  14.177   9.782
 2721SOL    HW210003  11.804  14.198   9.932
 2722SOL     OW10004  10.466  12.785   3.654
 2722SOL    HW110005  10.400  12.733   3.701
 2722SOL    HW210006  10.550  12.747   3.680
 2723SOL     OW10007   1.490   8.592   5.873
 2723SOL    HW110008   1.462   8.634   5.954
 2723SOL    HW210009   1.534   8.512   5.902
 2724SOL     OW10010  14.204   0.578  11.851
 2724SOL    HW110011  14.151   0.499  11.838
 2724SOL    HW210012  14.141   0.646  11.875
 2725SOL     OW10013  13.443   6.858   2.333
 2725SOL    HW110014  13.476   6.853   2.243
 2725SOL    HW210015  13.513   6.820   2.386
 2726SOL     OW10016   1.313   2.512   2.126
 2726SOL    HW110017   1.344   2.474   2.209
 2726SOL    HW210018   1.361   2.465   2.059
 2727SOL     OW10019  12.201   9.463   8.124
 2727SOL    HW110020  12.270   9.523   8.095
 2727SOL    HW210021  12.126   9.520   8.141
 2728SOL     OW10022   7.660  11.934   6.576
 2728SOL    HW110023   7.616  11.954   6.658
 2728SOL    HW210024   7.603  11.970   6.508
 2729SOL     OW10025  12.378  14.855   7.685
 2729SOL    HW110026  12.368   0.063   7.648
 2729SOL    HW210027  12.323  14.799   7.630
 2730SOL     OW10028   4.777   8.672  12.458
 2730SOL    HW110029   4.777   8.625  12.374
 2730SOL    HW210030   4.805   8.606  12.521
 2731SOL     OW10031   0.077   1.116   6.898
 2731SOL    HW110032   0.171   1.111   6.917
 2731SOL    HW210033   0.043   1.181   6.960
 2732SOL     OW10034   7.847  13.990   3.005
 2732SOL    HW110035   7.794  13.915   3.033
 2732SOL    HW210036   7.873  13.968   2.916
 2733SOL     OW10037   3.163   2.583   8.996
 2733SOL    HW110038   3.078   2.567   8.955
 2733SOL    HW210039   3.213   2.629   8.929
 2734SOL     OW10040   6.368  14.495   5.392
 2734SOL    HW110041   6.416  14.485   5.475
 2734SOL    HW210042   6.434  14.524   5.329
 2735SOL     OW10043   7.536  13.055  14.227
 2735SOL    HW110044   7.495  12.983  14.179
 2735SOL    HW210045   7.522  13.132  14.171
 2736SOL     OW10046   5.138  14.246   5.198
 2736SOL    HW110047   5.123  14.152   5.204
 2736SOL    HW210048   5.220  14.261   5.245
 2737SOL     OW10049   3.068   9.705   0.159
 2737SOL    HW110050   3.047   9.627   0.107
 2737SOL    HW210051   3.062   9.675   0.250
 2738SOL     OW10052   7.839  12.414  12.944
 2738SOL    HW110053   7.769  12.451  12.997
 2738SOL    HW210054   7.913  12.473  12.957
 2739SOL     OW10055   9.761  10.759   4.309
 2739SOL    HW110056   9.844  10.805   4.295
 2739SOL    HW210057   9.768  10.680   4.255
 2740SOL     OW10058   3.503   7.267   1.452
 2740SOL    HW110059   3.486   7.189   1.399
 2740SOL    HW210060   3.479   7.242   1.541
 2741SOL     OW10061   6.790   9.946   8.322
 2741SOL    HW110062   6.820   9.862   8.357
 2741SOL    HW210063   6.724   9.975   8.385
 2742SOL     OW10064   8.823   3.221   5.547
 2742SOL    HW110065   8.876   3.287   5.502
 2742SOL    HW210066   8.800   3.261   5.630
 2743SOL     OW10067  12.794   7.707   3.254
 2743SOL    HW110068  12.826   7.790   3.218
 2743SOL    HW210069  12.700   7.707   3.235
 2744SOL     OW10070   8.972   0.608   2.076
 2744SOL    HW110071   9.062   0.638   2.071
 2744SOL    HW210072   8.920   0.689   2.080
 2745SOL     OW10073  11.121   7.711  12.138
 2745SOL    HW110074  11.068   7.681  12.212
 2745SOL    HW210075  11.201   7.659  12.144
 2746SOL     OW10076  13.572   8.763   5.766
 2746SOL    HW110077  13.521   8.784   5.844
 2746SOL    HW210078  13.522   8.802   5.694
 2747SOL     OW10079   5.341  12.576  11.890
 2747SOL    HW110080   5.421  12.525  11.900
 2747SOL    HW210081   5.348  12.614  11.802
 2748SOL     OW10082  10.393   0.158   4.525
 2748SOL    HW110083  10.344   0.134   4.446
 2748SOL    HW210084  10.364   0.096   4.591
 2749SOL     OW10085  11.128  11.063   8.493
 2749SOL    HW110086  11.045  11.042   8.450
 2749SOL    HW210087  11.121  11.156   8.514
 2750SOL     OW10088   6.134   9.804   8.941
 2750SOL    HW110089   6.144   9.887   8.986
 2750SOL    HW210090   6.041   9.800   8.917
 2751SOL     OW10091  11.652  11.698   8.596
 2751SOL    HW110092  11.601  11.779   8.590
 2751SOL    HW210093  11.687  11.697   8.685
 2752SOL     OW10094   8.952  11.441   3.775
 2752SOL    HW110095   8.917  11.386   3.704
 2752SOL    HW210096   8.943  11.531   3.742
 2753SOL     OW10097  12.395  11.881   6.791
 2753SOL    HW110098  12.389  11.865   6.885
 2753SOL    HW210099  12.486  11.858   6.769
 2754SOL     OW10100   5.409  13.959   8.471
 2754SOL    HW110101   5.437  13.998   8.554
 2754SOL    HW210102   5.413  13.864   8.487
 2755SOL     OW10103  12.785   7.146   6.695
 2755SOL    HW110104  12.820   7.121   6.780
 2755SOL    HW210105  12.816   7.235   6.681
 2756SOL     OW10106   9.463  14.669  13.831
 2756SOL    HW110107   9.374  14.700  13.815
 2756SOL    HW210108   9.466  14.655  13.926
 2757SOL     OW10109   9.080  13.081   3.933
 2757SOL    HW110110   9.043  12.992   3.930
 2757SOL    HW210111   9.003  13.138   3.939
 2758SOL     OW10112   9.666  13.786   3.844
 2758SOL    HW110113   9.714  13.792   3.927
 2758SOL    HW210114   9.705  13.710   3.799
 2759SOL     OW10115   0.191   0.758   2.296
 2759SOL    HW110116   0.267   0.803   2.260
 2759SOL    HW210117   0.207   0.666   2.278
 2760SOL     OW10118   7.192  10.176   2.829
 2760SOL    HW110119   7.148  10.229   2.763
 2760SOL    HW210120   7.167  10.215   2.913
 2761SOL     OW10121   9.793   2.166   4.348
 2761SOL    HW110122   9.838   2.097   4.396
 2761SOL    HW210123   9.849   2.243   4.358
 2762SOL     OW10124  10.615   9.660   0.845
 2762SOL    HW110125  10.530   9.649   0.888
 2762SOL    HW210126  10.618   9.752   0.820
 2763SOL     OW10127   6.946   0.677   2.869
 2763SOL    HW110128   6.885   0.613   2.833
 2763SOL    HW210129   7.024   0.670   2.815
 2764SOL     OW10130   6.379   2.327   5.500
 2764SOL    HW110131   6.387   2.266   5.427
 2764SOL    HW210132   6.441   2.295   5.566
 2765SOL     OW10133   9.300   3.100   2.182
 2765SOL    HW110134   9.270   3.178   2.227
 2765SOL    HW210135   9.348   3.133   2.106
 2766SOL     OW10136  10.749   4.712   2.883
 2766SOL    HW110137  10.685   4.703   2.812
 2766SOL    HW210138  10.718   4.651   2.951
 2767SOL     OW10139   4.082  13.092  13.834
 2767SOL    HW110140   4.010  13.063  13.779
 2767SOL    HW210141   4.046  13.163  13.886
 2768SOL     OW10142  12.588   2.670   6.472
 2768SOL    HW110143  12.622   2.689   6.384
 2768SOL    HW210144  12.664   2.637   6.520
 2769SOL     OW10145  12.864   5.201   0.445
 2769SOL    HW110146  12.871   5.260   0.371
 2769SOL    HW210147  12.922   5.128   0.424
 2770SOL     OW10148  10.033   7.785  13.721
 2770SOL    HW110149  10.007   7.779  13.813
 2770SOL    HW210150   9.994   7.868  13.691
 2771SOL     OW10151   1.563   2.655  12.199
 2771SOL    HW110152   1.603   2.568  12.193
 2771SOL    HW210153   1.633   2.710  12.233
 2772SOL     OW10154  13.458  11.249   5.974
 2772SOL    HW110155  13.450  11.236   5.880
 2772SOL    HW210156  13.549  11.228   5.993
 2773SOL     OW10157   4.986  13.740   1.929
 2773SOL    HW110158   4.895  13.765   1.941
 2773SOL    HW210159   5.036  13.804   1.979
 2774SOL     OW10160   0.135   4.355   8.077
 2774SOL    HW110161   0.227   4.371   8.099
 2774SOL    HW210162   0.136   4.272   8.030
 2775SOL     OW10163   0.763   9.625   8.223
 2775SOL    HW110164   0.744   9.584   8.308
 2775SOL    HW210165   0.779   9.717   8.245
 2776SOL     OW10166   2.540  14.816  12.567
 2776SOL    HW110167   2.478  14.782  12.503
 2776SOL    HW210168   2.583   0.010  12.522
 2777SOL     OW10169   9.920  13.069   7.994
 2777SOL    HW110170   9.964  13.142   7.951
 2777SOL    HW210171   9.873  13.109   8.067
 2778SOL     OW10172   7.680   5.943   7.758
 2778SOL    HW110173   7.631   5.883   7.813
 2778SOL    HW210174   7.766   5.949   7.798
 2779SOL     OW10175   9.759   9.823   7.245
 2779SOL    HW110176   9.725   9.875   7.318
 2779SOL    HW210177   9.772   9.736   7.282
 2780SOL     OW10178   4.703  10.060   8.813
 2780SOL    HW110179   4.721  10.002   8.739
 2780SOL    HW210180   4.635  10.119   8.780
 2781SOL     OW10181   8.338   5.415  14.757
 2781SOL    HW110182   8.328   5.403  14.852
 2781SOL    HW210183   8.248   5.418  14.725
 2782SOL     OW10184  12.190  14.464   7.462
 2782SOL    HW110185  12.118  14.498   7.408
 2782SOL    HW210186  12.146  14.427   7.539
 2783SOL     OW10187  12.441  14.471   6.219
 2783SOL    HW110188  12.443  14.446   6.127
 2783SOL    HW210189  12.384  14.547   6.222
 2784SOL     OW10190   1.378  13.745  10.274
 2784SOL    HW110191   1.322  13.738  10.352
 2784SOL    HW210192   1.318  13.775  10.205
 2785SOL     OW10193  13.635   0.999  11.502
 2785SOL    HW110194  13.542   1.017  11.486
 2785SOL    HW210195  13.654   0.921  11.450
 2786SOL     OW10196   3.548   4.445   9.697
 2786SOL    HW110197   3.531   4.352   9.712
 2786SOL    HW210198   3.550   4.453   9.601
 2787SOL     OW10199   1.564  12.727   3.296
 2787SOL    HW110200   1.487  12.770   3.333
 2787SOL    HW210201   1.620  12.709   3.372
 2788SOL     OW10202   9.031   8.794   4.568
 2788SOL    HW110203   9.035   8.699   4.575
 2788SOL    HW210204   8.949   8.812   4.522
 2789SOL     OW10205  12.850   7.392  14.481
 2789SOL    HW110206  12.847   7.297  14.488
 2789SOL    HW210207  12.849   7.422  14.572
 2790SOL     OW10208  10.145   0.530   5.877
 2790SOL    HW110209  10.174   0.571   5.959
 2790SOL    HW210210  10.216   0.547   5.815
 2791SOL     OW10211   6.303   5.427  11.138
 2791SOL    HW110212   6.268   5.371  11.069
 2791SOL    HW210213   6.235   5.494  11.152
 2792SOL     OW10214  12.015   6.214   1.552
 2792SOL    HW110215  12.083   6.238   1.615
 2792SOL    HW210216  11.936   6.202   1.606
 2793SOL     OW10217  11.690  10.030  12.513
 2793SOL    HW110218  11.606   9.986  12.527
 2793SOL    HW210219  11.680  10.115  12.556
 2794SOL     OW10220   8.311  12.616   5.428
 2794SOL    HW110221   8.363  12.674   5.372
 2794SOL    HW210222   8.359  12.615   5.511
 2795SOL     OW10223   4.796   4.170   0.346
 2795SOL    HW110224   4.818   4.233   0.414
 2795SOL    HW210225   4.877   4.156   0.298
 2796SOL     OW10226   0.063   1.238   3.419
 2796SOL    HW110227   0.087   1.145   3.424
 2796SOL    HW210228   0.137   1.279   3.374
 2797SOL     OW10229  13.830  12.163   7.823
 2797SOL    HW110230  13.738  12.177   7.848
 2797SOL    HW210231  13.877  12.163   7.906
 2798SOL     OW10232   9.074  12.831   0.384
 2798SOL    HW110233   9.018  12.860   0.311
 2798SOL    HW210234   9.014  12.782   0.441
 2799SOL     OW10235   3.628   8.400   1.379
 2799SOL    HW110236   3.703   8.414   1.438
 2799SOL    HW210237   3.555   8.445   1.422
 2800SOL     OW10238  10.636   4.103   5.239
 2800SOL    HW110239  10.688   4.098   5.158
 2800SOL    HW210240  10.551   4.066   5.214
 2801SOL     OW10241   4.618  10.434   6.863
 2801SOL    HW110242   4.699  10.478   6.838
 2801SOL    HW210243   4.614  10.357   6.807
 2802SOL     OW10244   4.178   3.236   5.922
 2802SOL    HW110245   4.127   3.251   6.002
 2802SOL    HW210246   4.187   3.323   5.883
 2803SOL     OW10247   8.018   5.980   4.046
 2803SOL    HW110248   7.945   5.941   3.998
 2803SOL    HW210249   8.034   6.064   4.003
 2804SOL     OW10250   6.994   5.460  10.458
 2804SOL    HW110251   6.910   5.418  10.440
 2804SOL    HW210252   6.971   5.539  10.507
 2805SOL     OW10253   4.311   8.150  11.835
 2805SOL    HW110254   4.235   8.152  11.777
 2805SOL    HW210255   4.383   8.182  11.781
 2806SOL     OW10256   3.274  11.727  14.606
 2806SOL    HW110257   3.241  11.642  14.638
 2806SOL    HW210258   3.222  11.745  14.528
 2807SOL     OW10259   0.672  11.231  11.020
 2807SOL    HW110260   0.728  11.240  10.942
 2807SOL    HW210261   0.729  11.254  11.093
 2808SOL     OW10262  11.429   4.866   6.069
 2808SOL    HW110263  11.417   4.909   5.985
 2808SOL    HW210264  11.466   4.780   6.047
 2809SOL     OW10265  14.735   9.121   7.397
 2809SOL    HW110266  14.674   9.050   7.374
 2809SOL    HW210267  14.789   9.132   7.319
 2810SOL     OW10268  10.680   2.191  10.161
 2810SOL    HW110269  10.745   2.261  10.166
 2810SOL    HW210270  10.597   2.234  10.185
 2811SOL     OW10271  12.161  12.870   8.607
 2811SOL    HW110272  12.137  12.953   8.649
 2811SOL    HW210273  12.083  12.844   8.558
 2812SOL     OW10274   3.988   2.837   2.770
 2812SOL    HW110275   3.976   2.812   2.678
 2812SOL    HW210276   4.004   2.754   2.815
 2813SOL     OW10277   3.656  13.534   4.572
 2813SOL    HW110278   3.590  13.551   4.505
 2813SOL    HW210279   3.629  13.450   4.610
 2814SOL     OW10280   6.117   4.767  13.108
 2814SOL    HW110281   6.086   4.853  13.136
 2814SOL    HW210282   6.177   4.785  13.036
 2815SOL     OW10283  10.160   5.223   6.492
 2815SOL    HW110284  10.137   5.189   6.406
 2815SOL    HW210285  10.151   5.318   6.484
 2816SOL     OW10286  13.509  10.723  12.622
 2816SOL    HW110287  13.551  10.779  12.557
 2816SOL    HW210288  13.475  10.649  12.572
 2817SOL     OW10289   9.985   3.206   9.029
 2817SOL    HW110290  10.042   3.250   9.092
 2817SOL    HW210291   9.992   3.257   8.949
 2818SOL     OW10292   9.245  10.241   9.251
 2818SOL    HW110293   9.244  10.297   9.173
 2818SOL    HW210294   9.277  10.298   9.321
 2819SOL     OW10295   7.545  10.901   7.158
 2819SOL    HW110296   7.599  10.956   7.101
 2819SOL    HW210297   7.466  10.884   7.106
 2820SOL     OW10298  12.009  11.816   8.930
 2820SOL    HW110299  12.010  11.756   9.005
 2820SOL    HW210300  12.101  11.840   8.917
 2821SOL     OW10301   0.807   4.938  12.545
 2821SOL    HW110302   0.821   5.004  12.613
 2821SOL    HW210303   0.882   4.949  12.487
 2822SOL     OW10304   9.977   0.502   1.661
 2822SOL    HW110305  10.043   0.571   1.650
 2822SOL    HW210306   9.971   0.460   1.576
 2823SOL     OW10307   0.836   8.262   3.897
 2823SOL    HW110308   0.779   8.339   3.899
 2823SOL    HW210309   0.862   8.253   3.805
 2824SOL     OW10310   9.242   8.351   4.724
 2824SOL    HW110311   9.216   8.260   4.739
 2824SOL    HW210312   9.191   8.379   4.649
 2825SOL     OW10313   2.813  10.465   1.829
 2825SOL    HW110314   2.789  10.506   1.911
 2825SOL    HW210315   2.878  10.399   1.853
 2826SOL     OW10316   4.369   9.069  14.515
 2826SOL    HW110317   4.375   9.164  14.504
 2826SOL    HW210318   4.294   9.056  14.572
 2827SOL     OW10319   0.801   0.615   2.767
 2827SOL    HW110320   0.756   0.550   2.820
 2827SOL    HW210321   0.733   0.676   2.739
 2828SOL     OW10322   8.124  11.547   7.147
 2828SOL    HW110323   8.072  11.573   7.223
 2828SOL    HW210324   8.060  11.539   7.076
 2829SOL     OW10325  11.828   1.727  14.410
 2829SOL    HW110326  11.751   1.775  14.379
 2829SOL    HW210327  11.806   1.699  14.499
 2830SOL     OW10328  11.768  10.127  11.708
 2830SOL    HW110329  11.678  10.109  11.735
 2830SOL    HW210330  11.822  10.077  11.770
 2831SOL     OW10331   0.262   0.264  11.397
 2831SOL    HW110332   0.206   0.261  11.319
 2831SOL    HW210333   0.345   0.301  11.365
 2832SOL     OW10334  14.172   4.348   3.573
 2832SOL    HW110335  14.184   4.264   3.617
 2832SOL    HW210336  14.208   4.413   3.634
 2833SOL     OW10337  11.826   8.084   6.381
 2833SOL    HW110338  11.863   8.000   6.353
 2833SOL    HW210339  11.770   8.110   6.308
 2834SOL     OW10340  14.466  14.837  14.642
 2834SOL    HW110341  14.515   0.040  14.647
 2834SOL    HW210342  14.485  14.793  14.725
 2835SOL     OW10343  11.885   3.023   8.403
 2835SOL    HW110344  11.949   3.078   8.358
 2835SOL    HW210345  11.892   2.938   8.360
 2836SOL     OW10346   6.053   8.833  14.504
 2836SOL    HW110347   5.982   8.769  14.493
 2836SOL    HW210348   6.059   8.877  14.419
 2837SOL     OW10349   0.481  11.478   3.250
 2837SOL    HW110350   0.485  11.386   3.221
 2837SOL    HW210351   0.456  11.526   3.171
 2838SOL     OW10352   5.494   6.369   9.350
 2838SOL    HW110353   5.404   6.393   9.325
 2838SOL    HW210354   5.549   6.418   9.289
 2839SOL     OW10355  12.675   0.837  12.629
 2839SOL    HW110356  12.702   0.801  12.544
 2839SOL    HW210357  12.714   0.778  12.693
 2840SOL     OW10358   3.041  10.900   8.726
 2840SOL    HW110359   3.074  10.958   8.657
 2840SOL    HW210360   3.118  10.880   8.779
 2841SOL     OW10361  13.917  14.347   4.836
 2841SOL    HW110362  13.966  14.377   4.912
 2841SOL    HW210363  13.932  14.413   4.769
 2842SOL     OW10364   1.617   1.890   8.297
 2842SOL    HW110365   1.544   1.851   8.250
 2842SOL    HW210366   1.651   1.820   8.352
 2843SOL     OW10367   3.138   3.146   0.469
 2843SOL    HW110368   3.072   3.106   0.411
 2843SOL    HW210369   3.194   3.195   0.410
 2844SOL     OW10370   4.886   0.103   7.225
 2844SOL    HW110371   4.970   0.076   7.261
 2844SOL    HW210372   4.893   0.084   7.131
 2845SOL     OW10373  14.311   6.741  11.546
 2845SOL    HW110374  14.405   6.731  11.538
 2845SOL    HW210375  14.276   6.710  11.463
 2846SOL     OW10376  12.467   1.669  10.071
 2846SOL    HW110377  12.384   1.706  10.039
 2846SOL    HW210378  12.445   1.580  10.096
 2847SOL     OW10379   1.776  14.478   7.320
 2847SOL    HW110380   1.743  14.415   7.256
 2847SOL    HW210381   1.793  14.426   7.398
 2848SOL     OW10382  13.617   6.704   3.484
 2848SOL    HW110383  13.564   6.702   3.405
 2848SOL    HW210384  13.580   6.775   3.536
 2849SOL     OW10385  13.725  14.579   4.252
 2849SOL    HW110386  13.685  14.645   4.308
 2849SOL    HW210387  13.678  14.498   4.274
 2850SOL     OW10388   7.172   1.925   9.973
 2850SOL    HW110389   7.092   1.926  10.025
 2850SOL    HW210390   7.198   1.833   9.971
 2851SOL     OW10391   5.148  11.826  11.647
 2851SOL    HW110392   5.122  11.749  11.698
 2851SOL    HW210393   5.090  11.825  11.571
 2852SOL     OW10394   0.127   4.851   7.041
 2852SOL    HW110395   0.092   4.763   7.049
 2852SOL    HW210396   0.182   4.848   6.963
 2853SOL     OW10397  10.966  11.341   2.794
 2853SOL    HW110398  10.958  11.380   2.880
 2853SOL    HW210399  11.000  11.411   2.738
 2854SOL     OW10400   8.434   7.208   9.884
 2854SOL    HW110401   8.520   7.246   9.872
 2854SOL    HW210402   8.399   7.249   9.962
 2855SOL     OW10403   0.866   9.464   2.961
 2855SOL    HW110404   0.794   9.452   3.022
 2855SOL    HW210405   0.851   9.551   2.923
 2856SOL     OW10406   2.120   5.501   5.252
 2856SOL    HW110407   2.073   5.427   5.292
 2856SOL    HW210408   2.079   5.579   5.290
 2857SOL     OW10409   8.692   1.664   2.061
 2857SOL    HW110410   8.658   1.708   1.983
 2857SOL    HW210411   8.787   1.660   2.047
 2858SOL     OW10412   7.349   7.437   0.231
 2858SOL    HW110413   7.384   7.415   0.318
 2858SOL    HW210414   7.261   7.471   0.248
 2859SOL     OW10415   7.351   4.127  12.358
 2859SOL    HW110416   7.330   4.117  12.266
 2859SOL    HW210417   7.324   4.044  12.398
 2860SOL     OW10418  10.983   3.055   6.412
 2860SOL    HW110419  10.963   3.071   6.320
 2860SOL    HW210420  10.996   2.961   6.418
 2861SOL     OW10421   2.344  12.132   2.128
 2861SOL    HW110422   2.358  12.159   2.037
 2861SOL    HW210423   2.293  12.052   2.122
 2862SOL     OW10424   7.912  14.163   5.660
 2862SOL    HW110425   7.902  14.068   5.655
 2862SOL    HW210426   7.932  14.179   5.753
 2863SOL     OW10427  13.273   6.221   4.619
 2863SOL    HW110428  13.331   6.146   4.628
 2863SOL    HW210429  13.216   6.217   4.695
 2864SOL     OW10430  10.570   3.023  12.517
 2864SOL    HW110431  10.587   2.962  12.445
 2864SOL    HW210432  10.564   2.968  12.595
 2865SOL     OW10433   3.901   4.845   0.649
 2865SOL    HW110434   3.953   4.873   0.724
 2865SOL    HW210435   3.955   4.866   0.573
 2866SOL     OW10436  10.654  11.251  11.899
 2866SOL    HW110437  10.714  11.282  11.966
 2866SOL    HW210438  10.709  11.207  11.835
 2867SOL     OW10439   3.667  13.642   7.868
 2867SOL    HW110440   3.698  13.582   7.800
 2867SOL    HW210441   3.626  13.586   7.934
 2868SOL     OW10442   1.505   9.371   7.882
 2868SOL    HW110443   1.481   9.360   7.790
 2868SOL    HW210444   1.580   9.313   7.894
 2869SOL     OW10445   6.303   4.202   7.226
 2869SOL    HW110446   6.311   4.116   7.186
 2869SOL    HW210447   6.258   4.187   7.309
 2870SOL     OW10448  12.490  12.699   0.691
 2870SOL    HW110449  12.570  12.717   0.741
 2870SOL    HW210450  12.501  12.609   0.660
 2871SOL     OW10451   7.352   4.591   8.247
 2871SOL    HW110452   7.306   4.550   8.321
 2871SOL    HW210453   7.285   4.599   8.180
 2872SOL     OW10454  10.817   3.242   1.990
 2872SOL    HW110455  10.786   3.272   2.075
 2872SOL    HW210456  10.890   3.301   1.969
 2873SOL     OW10457   9.502  13.088   9.182
 2873SOL    HW110458   9.552  13.120   9.257
 2873SOL    HW210459   9.552  13.011   9.153
 2874SOL     OW10460   3.613   6.741   4.148
 2874SOL    HW110461   3.575   6.658   4.120
 2874SOL    HW210462   3.699   6.743   4.105
 2875SOL     OW10463   2.198   9.340  11.418
 2875SOL    HW110464   2.188   9.423  11.465
 2875SOL    HW210465   2.181   9.273  11.483
 2876SOL     OW10466   5.943   5.572   1.790
 2876SOL    HW110467   5.947   5.662   1.823
 2876SOL    HW210468   5.893   5.524   1.856
 2877SOL     OW10469   2.209   1.175   2.288
 2877SOL    HW110470   2.293   1.215   2.313
 2877SOL    HW210471   2.230   1.082   2.280
 2878SOL     OW10472   4.494   8.904   8.770
 2878SOL    HW110473   4.429   8.853   8.722
 2878SOL    HW210474   4.444   8.975   8.811
 2879SOL     OW10475   9.076   0.992   5.252
 2879SOL    HW110476   8.982   0.986   5.236
 2879SOL    HW210477   9.090   1.083   5.279
 2880SOL     OW10478   6.661  11.742  14.319
 2880SOL    HW110479   6.633  11.815  14.374
 2880SOL    HW210480   6.683  11.783  14.235
 2881SOL     OW10481   4.159   2.813   1.222
 2881SOL    HW110482   4.235   2.852   1.180
 2881SOL    HW210483   4.172   2.828   1.315
 2882SOL     OW10484   1.012   1.013   4.970
 2882SOL    HW110485   1.037   1.105   4.975
 2882SOL    HW210486   1.063   0.970   5.038
 2883SOL     OW10487   7.589   7.101   4.404
 2883SOL    HW110488   7.580   7.188   4.366
 2883SOL    HW210489   7.624   7.116   4.491
 2884SOL     OW10490  14.389   4.190  12.304
 2884SOL    HW110491  14.400   4.282  12.329
 2884SOL    HW210492  14.294   4.175  12.310
 2885SOL     OW10493   2.819   6.969   9.879
 2885SOL    HW110494   2.817   7.058   9.914
 2885SOL    HW210495   2.834   6.981   9.785
 2886SOL     OW10496   0.857   7.968   0.588
 2886SOL    HW110497   0.878   8.043   0.532
 2886SOL    HW210498   0.761   7.968   0.592
 2887SOL     OW10499  12.897   1.634   1.748
 2887SOL    HW110500  12.937   1.556   1.787
 2887SOL    HW210501  12.888   1.612   1.656
 2888SOL     OW10502   6.380   5.373   3.424
 2888SOL    HW110503   6.420   5.460   3.427
 2888SOL    HW210504   6.377   5.344   3.515
 2889SOL     OW10505  10.949   0.842  12.599
 2889SOL    HW110506  10.995   0.887  12.670
 2889SOL    HW210507  11.004   0.766  12.579
 2890SOL     OW10508   6.795  10.873   6.040
 2890SOL    HW110509   6.862  10.807   6.026
 2890SOL    HW210510   6.727  10.827   6.089
 2891SOL     OW10511   3.041   4.408  12.045
 2891SOL    HW110512   3.100   4.457  12.101
 2891SOL    HW210513   3.047   4.318  12.076
 2892SOL     OW10514  13.925  10.246   6.660
 2892SOL    HW110515  14.003  10.263   6.712
 2892SOL    HW210516  13.944  10.281   6.573
 2893SOL     OW10517  11.275   9.546   3.723
 2893SOL    HW110518  11.210   9.479   3.745
 2893SOL    HW210519  11.227   9.629   3.729
 2894SOL     OW10520   0.500  14.323   7.493
 2894SOL    HW110521   0.512  14.392   7.560
 2894SOL    HW210522   0.422  14.351   7.444
 2895SOL     OW10523   6.757   2.973   9.241
 2895SOL    HW110524   6.759   3.005   9.331
 2895SOL    HW210525   6.812   3.035   9.192
 2896SOL     OW10526   3.241   7.072   4.363
 2896SOL    HW110527   3.235   6.978   4.343
 2896SOL    HW210528   3.312   7.103   4.307
 2897SOL     OW10529   5.714   4.954  13.883
 2897SOL    HW110530   5.769   4.952  13.961
 2897SOL    HW210531   5.753   5.021  13.827
 2898SOL     OW10532  13.480   6.149   9.227
 2898SOL    HW110533  13.449   6.239   9.243
 2898SOL    HW210534  13.438   6.098   9.297
 2899SOL     OW10535   3.780   1.098  10.123
 2899SOL    HW110536   3.711   1.070  10.184
 2899SOL    HW210537   3.862   1.073  10.167
 2900SOL     OW10538   5.024  10.339   2.193
 2900SOL    HW110539   4.968  10.413   2.170
 2900SOL    HW210540   5.086  10.376   2.257
 2901SOL     OW10541  14.792   5.032  14.714
 2901SOL    HW110542  14.860   5.017  14.780
 2901SOL    HW210543  14.797   5.126  14.695
 2902SOL     OW10544  10.450  10.161  10.645
 2902SOL    HW110545  10.538  10.124  10.646
 2902SOL    HW210546  10.405  10.117  10.717
 2903SOL     OW10547  13.689   4.646   4.987
 2903SOL    HW110548  13.719   4.658   4.897
 2903SOL    HW210549  13.610   4.593   4.979
 2904SOL     OW10550   4.340   9.142   0.212
 2904SOL    HW110551   4.268   9.082   0.192
 2904SOL    HW210552   4.413   9.110   0.160
 2905SOL     OW10553   3.639  13.004   6.364
 2905SOL    HW110554   3.691  12.964   6.433
 2905SOL    HW210555   3.623  13.094   6.395
 2906SOL     OW10556   1.187   4.630   9.975
 2906SOL    HW110557   1.206   4.665   9.888
 2906SOL    HW210558   1.272   4.629  10.019
 2907SOL     OW10559  10.201   7.713  10.997
 2907SOL    HW110560  10.227   7.784  10.937
 2907SOL    HW210561  10.230   7.743  11.083
 2908SOL     OW10562  13.021   8.872   9.101
 2908SOL    HW110563  13.093   8.929   9.075
 2908SOL    HW210564  12.984   8.840   9.019
 2909SOL     OW10565  13.711  12.632   0.523
 2909SOL    HW110566  13.735  12.569   0.455
 2909SOL    HW210567  13.734  12.588   0.605
 2910SOL     OW10568  10.284   1.826  11.543
 2910SOL    HW110569  10.380   1.830  11.539
 2910SOL    HW210570  10.263   1.836  11.636
 2911SOL     OW10571  11.061   6.930   6.028
 2911SOL    HW110572  11.030   6.856   6.080
 2911SOL    HW210573  11.013   7.005   6.063
 2912SOL     OW10574   6.356   2.039   1.599
 2912SOL    HW110575   6.320   1.984   1.668
 2912SOL    HW210576   6.355   2.127   1.635
 2913SOL     OW10577   2.454   1.137   5.384
 2913SOL    HW110578   2.472   1.056   5.335
 2913SOL    HW210579   2.438   1.108   5.473
 2914SOL     OW10580   4.160   6.910  11.491
 2914SOL    HW110581   4.209   6.972  11.436
 2914SOL    HW210582   4.221   6.838  11.505
 2915SOL     OW10583   2.538  13.960   0.670
 2915SOL    HW110584   2.601  14.023   0.635
 2915SOL    HW210585   2.496  14.006   0.742
 2916SOL     OW10586  10.467  13.325   9.947
 2916SOL    HW110587  10.395  13.388   9.949
 2916SOL    HW210588  10.426  13.242   9.923
 2917SOL     OW10589  13.766   8.476  12.667
 2917SOL    HW110590  13.820   8.451  12.742
 2917SOL    HW210591  13.719   8.554  12.695
 2918SOL     OW10592   2.490   1.842  14.669
 2918SOL    HW110593   2.512   1.808  14.755
 2918SOL    HW210594   2.537   1.786  14.607
 2919SOL     OW10595   9.549   6.805  11.695
 2919SOL    HW110596   9.517   6.757  11.772
 2919SOL    HW210597   9.580   6.737  11.636
 2920SOL     OW10598   5.741   3.672   7.999
 2920SOL    HW110599   5.710   3.582   8.012
 2920SOL    HW210600   5.663   3.719   7.968
 2921SOL     OW10601   3.528   0.303   8.679
 2921SOL    HW110602   3.623   0.292   8.680
 2921SOL    HW210603   3.496   0.234   8.622
 2922SOL     OW10604   2.536   1.101   4.039
 2922SOL    HW110605   2.545   1.175   4.100
 2922SOL    HW210606   2.577   1.132   3.958
 2923SOL     OW10607   9.691   1.192  10.067
 2923SOL    HW110608   9.688   1.108  10.021
 2923SOL    HW210609   9.701   1.257   9.997
 2924SOL     OW10610   7.922   0.713   9.589
 2924SOL    HW110611   7.972   0.742   9.665
 2924SOL    HW210612   7.831   0.726   9.614
 2925SOL     OW10613   6.702   0.495   2.825
 2925SOL    HW110614   6.763   0.438   2.872
 2925SOL    HW210615   6.657   0.436   2.764
 2926SOL     OW10616  13.953   2.944   0.161
 2926SOL    HW110617  14.016   2.922   0.230
 2926SOL    HW210618  13.961   2.872   0.098
 2927SOL     OW10619   9.475   7.024   5.717
 2927SOL    HW110620   9.531   6.951   5.744
 2927SOL    HW210621   9.399   7.020   5.776
 2928SOL     OW10622   3.839   5.061   4.427
 2928SOL    HW110623   3.797   5.113   4.359
 2928SOL    HW210624   3.872   5.126   4.490
 2929SOL     OW10625  14.642   5.664  14.693
 2929SOL    HW110626  14.718   5.636  14.745
 2929SOL    HW210627  14.629   5.756  14.717
 2930SOL     OW10628   9.074   4.892  10.596
 2930SOL    HW110629   9.035   4.960  10.541
 2930SOL    HW210630   9.149   4.934  10.637
 2931SOL     OW10631   1.440   1.161   9.308
 2931SOL    HW110632   1.376   1.216   9.352
 2931SOL    HW210633   1.493   1.222   9.257
 2932SOL     OW10634   2.001  11.794  12.130
 2932SOL    HW110635   1.917  11.756  12.155
 2932SOL    HW210636   2.042  11.728  12.074
 2933SOL     OW10637   1.155  14.142   7.078
 2933SOL    HW110638   1.232  14.198   7.085
 2933SOL    HW210639   1.084  14.193   7.117
 2934SOL     OW10640   9.391  10.375   8.467
 2934SOL    HW110641   9.310  10.420   8.447
 2934SOL    HW210642   9.448  10.443   8.502
 2935SOL     OW10643   4.859   8.815   2.945
 2935SOL    HW110644   4.815   8.734   2.919
 2935SOL    HW210645   4.942   8.813   2.898
 2936SOL     OW10646   4.835  10.600   3.667
 2936SOL    HW110647   4.916  10.554   3.642
 2936SOL    HW210648   4.860  10.692   3.668
 2937SOL     OW10649   7.763  14.575   3.674
 2937SOL    HW110650   7.827  14.612   3.613
 2937SOL    HW210651   7.719  14.652   3.712
 2938SOL     OW10652  14.654   1.905  14.209
 2938SOL    HW110653  14.747   1.886  14.202
 2938SOL    HW210654  14.638   1.915  14.302
 2939SOL     OW10655   4.290   2.643   0.491
 2939SOL    HW110656   4.247   2.660   0.406
 2939SOL    HW210657   4.230   2.584   0.536
 2940SOL     OW10658  12.924   7.782   7.168
 2940SOL    HW110659  13.001   7.738   7.131
 2940SOL    HW210660  12.941   7.786   7.262
 2941SOL     OW10661   9.733  11.601   0.806
 2941SOL    HW110662   9.803  11.588   0.742
 2941SOL    HW210663   9.653  11.580   0.758
 2942SOL     OW10664   5.773   5.531   2.690
 2942SOL    HW110665   5.865   5.507   2.690
 2942SOL    HW210666   5.758   5.573   2.605
 2943SOL     OW10667  12.197  14.810  10.929
 2943SOL    HW110668  12.154  14.759  10.997
 2943SOL    HW210669  12.288  14.780  10.929
 2944SOL     OW10670  10.153  14.843  14.356
 2944SOL    HW110671  10.060  14.819  14.350
 2944SOL    HW210672  10.163   0.034  14.291
 2945SOL     OW10673   4.269   8.831  12.374
 2945SOL    HW110674   4.277   8.853  12.467
 2945SOL    HW210675   4.302   8.741  12.368
 2946SOL     OW10676   3.406   1.886  13.616
 2946SOL    HW110677   3.483   1.944  13.620
 2946SOL    HW210678   3.334   1.941  13.647
 2947SOL     OW10679   5.791  13.672   0.142
 2947SOL    HW110680   5.871  13.623   0.123
 2947SOL    HW210681   5.774  13.655   0.235
 2948SOL     OW10682  10.904   8.550   2.451
 2948SOL    HW110683  10.823   8.538   2.500
 2948SOL    HW210684  10.969   8.499   2.499
 2949SOL     OW10685  14.554   0.307   1.744
 2949SOL    HW110686  14.565   0.313   1.839
 2949SOL    HW210687  14.463   0.281   1.732
 2950SOL     OW10688   5.958   0.590   1.916
 2950SOL    HW110689   6.006   0.652   1.861
 2950SOL    HW210690   6.024   0.529   1.947
 2951SOL     OW10691   6.905  10.396   1.423
 2951SOL    HW110692   6.992  10.357   1.436
 2951SOL    HW210693   6.852  10.324   1.390
 2952SOL     OW10694   1.824   5.896  10.661
 2952SOL    HW110695   1.848   5.807  10.634
 2952SOL    HW210696   1.873   5.910  10.742
 2953SOL     OW10697  14.878   3.523   6.148
 2953SOL    HW110698   0.019   3.474   6.069
 2953SOL    HW210699  14.814   3.468   6.194
 2954SOL     OW10700  13.040   3.173  14.050
 2954SOL    HW110701  13.097   3.203  14.121
 2954SOL    HW210702  13.100   3.148  13.980
 2955SOL     OW10703   7.957   1.490   4.398
 2955SOL    HW110704   7.989   1.402   4.417
 2955SOL    HW210705   7.882   1.475   4.340
 2956SOL     OW10706   1.077   7.452   0.682
 2956SOL    HW110707   1.068   7.543   0.708
 2956SOL    HW210708   1.066   7.453   0.587
 2957SOL     OW10709  12.666  14.047  14.304
 2957SOL    HW110710  12.717  13.966  14.298
 2957SOL    HW210711  12.683  14.079  14.392
 2958SOL     OW10712   1.735   2.721  10.778
 2958SOL    HW110713   1.828   2.739  10.795
 2958SOL    HW210714   1.697   2.806  10.759
 2959SOL     OW10715  12.346   9.461  14.125
 2959SOL    HW110716  12.374   9.421  14.043
 2959SOL    HW210717  12.280   9.401  14.159
 2960SOL     OW10718   9.025   1.284   1.927
 2960SOL    HW110719   9.001   1.193   1.944
 2960SOL    HW210720   9.119   1.281   1.909
 2961SOL     OW10721  11.437  10.712   1.904
 2961SOL    HW110722  11.387  10.670   1.834
 2961SOL    HW210723  11.477  10.639   1.952
 2962SOL     OW10724   4.021   7.039   2.947
 2962SOL    HW110725   4.022   7.113   2.885
 2962SOL    HW210726   3.933   7.003   2.939
 2963SOL     OW10727  12.165   1.508   8.603
 2963SOL    HW110728  12.127   1.439   8.548
 2963SOL    HW210729  12.121   1.588   8.574
 2964SOL     OW10730  12.010   8.653   7.019
 2964SOL    HW110731  12.019   8.658   6.924
 2964SOL    HW210732  12.097   8.630   7.051
 2965SOL     OW10733   4.289   9.757   1.734
 2965SOL    HW110734   4.269   9.745   1.827
 2965SOL    HW210735   4.233   9.830   1.707
 2966SOL     OW10736   6.283   7.554   3.180
 2966SOL    HW110737   6.350   7.549   3.247
 2966SOL    HW210738   6.330   7.576   3.099
 2967SOL     OW10739   2.263  11.068   1.717
 2967SOL    HW110740   2.275  11.162   1.730
 2967SOL    HW210741   2.203  11.061   1.643
 2968SOL     OW10742   5.502   0.358   1.539
 2968SOL    HW110743   5.460   0.292   1.485
 2968SOL    HW210744   5.586   0.376   1.496
 2969SOL     OW10745  14.111  14.278  13.703
 2969SOL    HW110746  14.050  14.352  13.694
 2969SOL    HW210747  14.141  14.283  13.794
 2970SOL     OW10748   7.604   5.329   7.906
 2970SOL    HW110749   7.662   5.376   7.846
 2970SOL    HW210750   7.580   5.249   7.858
 2971SOL     OW10751   7.438   7.973   1.562
 2971SOL    HW110752   7.421   8.063   1.534
 2971SOL    HW210753   7.532   7.970   1.577
 2972SOL     OW10754   8.975   2.973   5.587
 2972SOL    HW110755   8.916   3.047   5.574
 2972SOL    HW210756   8.929   2.899   5.546
 2973SOL     OW10757   2.193   0.866   1.078
 2973SOL    HW110758   2.251   0.938   1.054
 2973SOL    HW210759   2.111   0.887   1.034
 2974SOL     OW10760   1.953  12.067  12.499
 2974SOL    HW110761   2.044  12.070  12.471
 2974SOL    HW210762   1.938  11.976  12.524
 2975SOL     OW10763   9.091   9.054  12.208
 2975SOL    HW110764   9.177   9.077  12.174
 2975SOL    HW210765   9.068   8.973  12.162
 2976SOL     OW10766   6.697  10.513   8.746
 2976SOL    HW110767   6.675  10.465   8.826
 2976SOL    HW210768   6.773  10.467   8.710
 2977SOL     OW10769  11.623   5.619   7.749
 2977SOL    HW110770  11.597   5.626   7.841
 2977SOL    HW210771  11.717   5.639   7.750
 2978SOL     OW10772  12.690  10.433  10.753
 2978SOL    HW110773  12.731  10.361  10.800
 2978SOL    HW210774  12.601  10.404  10.736
 2979SOL     OW10775  11.596   6.396   0.623
 2979SOL    HW110776  11.572   6.303   0.619
 2979SOL    HW210777  11.521   6.442   0.584
 2980SOL     OW10778  11.997  14.085   6.900
 2980SOL    HW110779  12.090  14.073   6.919
 2980SOL    HW210780  11.984  14.042   6.816
 2981SOL     OW10781   2.311   8.301   4.308
 2981SOL    HW110782   2.371   8.369   4.277
 2981SOL    HW210783   2.297   8.244   4.232
 2982SOL     OW10784  12.061  14.797   9.297
 2982SOL    HW110785  12.048  14.770   9.207
 2982SOL    HW210786  12.041   0.011   9.298
 2983SOL     OW10787   7.746   4.803   2.124
 2983SOL    HW110788   7.798   4.800   2.204
 2983SOL    HW210789   7.673   4.743   2.140
 2984SOL     OW10790   6.790  13.132  12.057
 2984SOL    HW110791   6.720  13.094  12.004
 2984SOL    HW210792   6.750  13.208  12.098
 2985SOL     OW10793  10.006  14.184   9.256
 2985SOL    HW110794   9.981  14.092   9.247
 2985SOL    HW210795   9.928  14.233   9.231
 2986SOL     OW10796   4.656  10.995  14.839
 2986SOL    HW110797   4.733  11.043  14.868
 2986SOL    HW210798   4.638  10.932   0.029
 2987SOL     OW10799  13.626   1.256   4.698
 2987SOL    HW110800  13.538   1.236   4.728
 2987SOL    HW210801  13.613   1.296   4.612
 2988SOL     OW10802  14.128   0.273  10.194
 2988SOL    HW110803  14.190   0.301  10.261
 2988SOL    HW210804  14.055   0.236  10.242
 2989SOL     OW10805   6.290   0.459   8.228
 2989SOL    HW110806   6.385   0.450   8.225
 2989SOL    HW210807   6.265   0.479   8.138
 2990SOL     OW10808   6.117  11.014   9.309
 2990SOL    HW110809   6.038  11.032   9.258
 2990SOL    HW210810   6.121  10.918   9.313
 2991SOL     OW10811   8.522   5.836   3.800
 2991SOL    HW110812   8.442   5.882   3.827
 2991SOL    HW210813   8.508   5.746   3.829
 2992SOL     OW10814   3.969  13.286   0.344
 2992SOL    HW110815   3.884  13.323   0.320
 2992SOL    HW210816   4.029  13.318   0.276
 2993SOL     OW10817   9.153   5.099   6.546
 2993SOL    HW110818   9.114   5.185   6.558
 2993SOL    HW210819   9.080   5.038   6.554
 2994SOL     OW10820   4.803  14.338   5.609
 2994SOL    HW110821   4.792  14.372   5.698
 2994SOL    HW210822   4.870  14.394   5.570
 2995SOL     OW10823   4.894   0.627  11.263
 2995SOL    HW110824   4.900   0.565  11.336
 2995SOL    HW210825   4.949   0.701  11.289
 2996SOL     OW10826  10.467   7.137  10.808
 2996SOL    HW110827  10.556   7.171  10.813
 2996SOL    HW210828  10.451   7.097  10.894
 2997SOL     OW10829   1.170   7.294   9.974
 2997SOL    HW110830   1.128   7.351  10.039
 2997SOL    HW210831   1.175   7.208  10.017
 2998SOL     OW10832  10.776   6.674   3.780
 2998SOL    HW110833  10.870   6.657   3.781
 2998SOL    HW210834  10.762   6.736   3.852
 2999SOL     OW10835   6.072   5.404  11.697
 2999SOL    HW110836   5.990   5.438  11.662
 2999SOL    HW210837   6.103   5.342  11.631
 3000SOL     OW10838   3.556   2.902   2.864
 3000SOL    HW110839   3.500   2.872   2.936
 3000SOL    HW210840   3.546   2.836   2.796
 3001SOL     OW10841   0.774  13.118   0.560
 3001SOL    HW110842   0.714  13.043   0.561
 3001SOL    HW210843   0.802  13.125   0.469
 3002SOL     OW10844   9.360  11.727   3.969
 3002SOL    HW110845   9.301  11.802   3.964
 3002SOL    HW210846   9.302  11.651   3.960
 3003SOL     OW10847  10.900  12.813   1.973
 3003SOL    HW110848  10.810  12.793   1.998
 3003SOL    HW210849  10.892  12.861   1.891
 3004SOL     OW10850  12.224  10.703  11.585
 3004SOL    HW110851  12.305  10.747  11.559
 3004SOL    HW210852  12.159  10.774  11.590
 3005SOL     OW10853   3.845   1.704  10.166
 3005SOL    HW110854   3.798   1.668  10.240
 3005SOL    HW210855   3.804   1.789  10.150
 3006SOL     OW10856  13.889   6.245   4.209
 3006SOL    HW110857  13.846   6.329   4.195
 3006SOL    HW210858  13.860   6.191   4.136
 3007SOL     OW10859  12.014  10.313   1.847
 3007SOL    HW110860  11.947  10.257   1.806
 3007SOL    HW210861  12.027  10.275   1.933
 3008SOL     OW10862   7.023  10.675   8.866
 3008SOL    HW110863   7.064  10.675   8.952
 3008SOL    HW210864   6.930  10.663   8.883
 3009SOL     OW10865   9.084  14.818   4.365
 3009SOL    HW110866   9.127   0.013   4.322
 3009SOL    HW210867   9.079  14.751   4.297
 3010SOL     OW10868  13.276   8.114   2.219
 3010SOL    HW110869  13.207   8.171   2.253
 3010SOL    HW210870  13.322   8.082   2.296
 3011SOL     OW10871   7.909   6.295   0.935
 3011SOL    HW110872   7.993   6.335   0.911
 3011SOL    HW210873   7.933   6.210   0.972
 3012SOL     OW10874   1.591  14.822   2.204
 3012SOL    HW110875   1.665  14.762   2.212
 3012SOL    HW210876   1.624   0.027   2.234
 3013SOL     OW10877   2.471  10.006   8.082
 3013SOL    HW110878   2.430   9.933   8.036
 3013SOL    HW210879   2.565   9.992   8.071
 3014SOL     OW10880   1.897   8.975   6.402
 3014SOL    HW110881   1.927   8.893   6.363
 3014SOL    HW210882   1.956   8.990   6.475
 3015SOL     OW10883   4.919  13.028  14.496
 3015SOL    HW110884   4.871  13.065  14.423
 3015SOL    HW210885   5.011  13.030  14.468
 3016SOL     OW10886   0.017   3.356   1.026
 3016SOL    HW110887  14.878   3.450   1.017
 3016SOL    HW210888   0.061   3.333   0.945
 3017SOL     OW10889   7.241   0.101   3.933
 3017SOL    HW110890   7.299   0.038   3.976
 3017SOL    HW210891   7.269   0.186   3.968
 3018SOL     OW10892   1.722   5.174  14.628
 3018SOL    HW110893   1.805   5.200  14.668
 3018SOL    HW210894   1.725   5.078  14.626
 3019SOL     OW10895   1.655  11.356   8.328
 3019SOL    HW110896   1.748  11.377   8.330
 3019SOL    HW210897   1.612  11.426   8.376
 3020SOL     OW10898   3.445   6.163   9.159
 3020SOL    HW110899   3.526   6.134   9.202
 3020SOL    HW210900   3.440   6.109   9.080
 3021SOL     OW10901   8.092   2.735   0.167
 3021SOL    HW110902   8.184   2.711   0.160
 3021SOL    HW210903   8.087   2.786   0.248
 3022SOL     OW10904   7.155   2.649   1.131
 3022SOL    HW110905   7.157   2.673   1.224
 3022SOL    HW210906   7.080   2.591   1.123
 3023SOL     OW10907   7.624  13.326   5.142
 3023SOL    HW110908   7.698  13.293   5.193
 3023SOL    HW210909   7.594  13.251   5.092
 3024SOL     OW10910   0.019   1.429  12.361
 3024SOL    HW110911  14.803   1.422  12.375
 3024SOL    HW210912   0.028   1.447  12.268
 3025SOL     OW10913   8.483  10.223  13.364
 3025SOL    HW110914   8.502  10.264  13.448
 3025SOL    HW210915   8.502  10.290  13.299
 3026SOL     OW10916  13.306   1.683   1.871
 3026SOL    HW110917  13.247   1.726   1.934
 3026SOL    HW210918  13.259   1.688   1.788
 3027SOL     OW10919  12.978   4.498   7.735
 3027SOL    HW110920  13.070   4.522   7.721
 3027SOL    HW210921  12.966   4.418   7.684
 3028SOL     OW10922  11.367  11.908   5.814
 3028SOL    HW110923  11.429  11.931   5.745
 3028SOL    HW210924  11.313  11.986   5.825
 3029SOL     OW10925   6.424   4.513   1.305
 3029SOL    HW110926   6.458   4.602   1.317
 3029SOL    HW210927   6.333   4.526   1.279
 3030SOL     OW10928   9.175   6.572   0.545
 3030SOL    HW110929   9.170   6.578   0.640
 3030SOL    HW210930   9.261   6.535   0.528
 3031SOL     OW10931   3.840   3.950   1.179
 3031SOL    HW110932   3.841   3.935   1.273
 3031SOL    HW210933   3.839   3.862   1.141
 3032SOL     OW10934  10.820  12.058  12.699
 3032SOL    HW110935  10.854  11.969  12.710
 3032SOL    HW210936  10.726  12.046  12.690
 3033SOL     OW10937  12.732   7.482   5.706
 3033SOL    HW110938  12.802   7.520   5.760
 3033SOL    HW210939  12.712   7.398   5.747
 3034SOL     OW10940  10.076  13.431   9.647
 3034SOL    HW110941  10.155  13.434   9.701
 3034SOL    HW210942  10.019  13.498   9.684
 3035SOL     OW10943   7.258   8.285  14.273
 3035SOL    HW110944   7.173   8.330  14.277
 3035SOL    HW210945   7.249   8.222  14.202
 3036SOL     OW10946   5.481  13.143   2.432
 3036SOL    HW110947   5.524  13.057   2.432
 3036SOL    HW210948   5.520  13.190   2.505
 3037SOL     OW10949   4.023  13.003  12.312
 3037SOL    HW110950   4.102  12.973  12.357
 3037SOL    HW210951   4.045  12.999  12.219
 3038SOL     OW10952   9.731  10.113  11.565
 3038SOL    HW110953   9.734  10.179  11.496
 3038SOL    HW210954   9.788  10.147  11.634
 3039SOL     OW10955   0.403   6.842  12.092
 3039SOL    HW110956   0.442   6.929  12.092
 3039SOL    HW210957   0.469   6.786  12.133
 3040SOL     OW10958   7.869  11.042   1.386
 3040SOL    HW110959   7.938  11.050   1.319
 3040SOL    HW210960   7.911  10.996   1.458
 3041SOL     OW10961   1.410   1.759   5.248
 3041SOL    HW110962   1.344   1.820   5.280
 3041SOL    HW210963   1.478   1.814   5.209
 3042SOL     OW10964  10.056   4.243  11.173
 3042SOL    HW110965  10.061   4.202  11.087
 3042SOL    HW210966  10.132   4.301  11.177
 3043SOL     OW10967  12.820   0.245   2.280
 3043SOL    HW110968  12.779   0.158   2.282
 3043SOL    HW210969  12.861   0.253   2.366
 3044SOL     OW10970   7.315  11.431   5.017
 3044SOL    HW110971   7.242  11.400   5.072
 3044SOL    HW210972   7.363  11.351   4.996
 3045SOL     OW10973   2.053   4.175   2.155
 3045SOL    HW110974   2.134   4.182   2.205
 3045SOL    HW210975   2.081   4.157   2.065
 3046SOL     OW10976  13.507  13.438   9.383
 3046SOL    HW110977  13.576  13.378   9.414
 3046SOL    HW210978  13.426  13.401   9.419
 3047SOL     OW10979   5.112   0.612   6.235
 3047SOL    HW110980   5.154   0.656   6.161
 3047SOL    HW210981   5.184   0.590   6.295
 3048SOL     OW10982   2.997   2.178   2.507
 3048SOL    HW110983   3.070   2.238   2.493
 3048SOL    HW210984   2.977   2.144   2.420
 3049SOL     OW10985  12.020  11.736   0.274
 3049SOL    HW110986  11.961  11.709   0.345
 3049SOL    HW210987  12.108  11.719   0.309
 3050SOL     OW10988   8.275   6.439  13.633
 3050SOL    HW110989   8.306   6.402  13.550
 3050SOL    HW210990   8.247   6.364  13.685
 3051SOL     OW10991  13.688   1.941   6.613
 3051SOL    HW110992  13.733   1.865   6.650
 3051SOL    HW210993  13.748   2.014   6.628
 3052SOL     OW10994   0.106  13.165   7.979
 3052SOL    HW110995   0.144  13.137   7.896
 3052SOL    HW210996   0.116  13.260   7.980
 3053SOL     OW10997   9.657  10.697   2.679
 3053SOL    HW110998   9.590  10.745   2.631
 3053SOL    HW210999   9.641  10.719   2.771
 3054SOL     OW11000   0.713   0.843  10.930
 3054SOL    HW111001   0.763   0.886  11.000
 3054SOL    HW211002   0.640   0.903  10.914
 3055SOL     OW11003  10.871  14.448   3.421
 3055SOL    HW111004  10.948  14.492   3.387
 3055SOL    HW211005  10.903  14.363   3.452
 3056SOL     OW11006   6.199   4.447   7.974
 3056SOL    HW111007   6.294   4.444   7.967
 3056SOL    HW211008   6.168   4.463   7.884
 3057SOL     OW11009   1.331   2.296   0.208
 3057SOL    HW111010   1.322   2.320   0.300
 3057SOL    HW211011   1.420   2.262   0.200
 3058SOL     OW11012  12.625  13.081   3.433
 3058SOL    HW111013  12.683  13.151   3.464
 3058SOL    HW211014  12.539  13.123   3.424
 3059SOL     OW11015   8.314   2.716   0.702
 3059SOL    HW111016   8.246   2.783   0.710
 3059SOL    HW211017   8.337   2.715   0.610
 3060SOL     OW11018   7.511   5.115   7.419
 3060SOL    HW111019   7.541   5.110   7.328
 3060SOL    HW211020   7.494   5.024   7.443
 3061SOL     OW11021  10.201   2.704  14.075
 3061SOL    HW111022  10.297   2.703  14.074
 3061SOL    HW211023  10.178   2.675  14.163
 3062SOL     OW11024  10.267  14.510   8.227
 3062SOL    HW111025  10.210  14.533   8.154
 3062SOL    HW211026  10.208  14.479   8.295
 3063SOL     OW11027   0.325  10.671   3.023
 3063SOL    HW111028   0.322  10.754   3.069
 3063SOL    HW211029   0.311  10.605   3.092
 3064SOL     OW11030   3.765  10.699  10.495
 3064SOL    HW111031   3.772  10.649  10.415
 3064SOL    HW211032   3.854  10.701  10.531
 3065SOL     OW11033  11.018   2.487  12.266
 3065SOL    HW111034  11.072   2.450  12.196
 3065SOL    HW211035  10.933   2.444  12.255
 3066SOL     OW11036   3.828  10.519   7.746
 3066SOL    HW111037   3.842  10.509   7.840
 3066SOL    HW211038   3.757  10.583   7.739
 3067SOL     OW11039  13.382  13.387   1.260
 3067SOL    HW111040  13.304  13.332   1.250
 3067SOL    HW211041  13.400  13.386   1.354
 3068SOL     OW11042  10.689   3.770  12.544
 3068SOL    HW111043  10.740   3.689  12.544
 3068SOL    HW211044  10.640   3.767  12.627
 3069SOL     OW11045   2.724   8.806  14.287
 3069SOL    HW111046   2.699   8.818  14.378
 3069SOL    HW211047   2.769   8.722  14.284
 3070SOL     OW11048   3.482   4.106   3.225
 3070SOL    HW111049   3.458   4.165   3.153
 3070SOL    HW211050   3.485   4.163   3.302
 3071SOL     OW11051   8.807   3.168   0.744
 3071SOL    HW111052   8.814   3.221   0.823
 3071SOL    HW211053   8.803   3.231   0.673
 3072SOL     OW11054  10.697   9.488  14.432
 3072SOL    HW111055  10.679   9.556  14.366
 3072SOL    HW211056  10.612   9.466  14.468
 3073SOL     OW11057   8.968   6.876   1.452
 3073SOL    HW111058   8.973   6.809   1.520
 3073SOL    HW211059   9.033   6.941   1.477
 3074SOL     OW11060   0.287  13.947   3.240
 3074SOL    HW111061   0.193  13.948   3.225
 3074SOL    HW211062   0.310  14.039   3.255
 3075SOL     OW11063   8.502   7.555  12.542
 3075SOL    HW111064   8.473   7.616  12.611
 3075SOL    HW211065   8.565   7.498  12.586
 3076SOL     OW11066   6.785   4.057   1.880
 3076SOL    HW111067   6.813   4.079   1.969
 3076SOL    HW211068   6.818   4.130   1.826
 3077SOL     OW11069  13.737   7.597   7.438
 3077SOL    HW111070  13.647   7.565   7.443
 3077SOL    HW211071  13.742   7.664   7.506
 3078SOL     OW11072   0.326   2.829  10.052
 3078SOL    HW111073   0.353   2.882   9.977
 3078SOL    HW211074   0.231   2.835  10.053
 3079SOL     OW11075   2.343   4.716   9.825
 3079SOL    HW111076   2.284   4.675   9.888
 3079SOL    HW211077   2.294   4.791   9.791
 3080SOL     OW11078   7.952   2.095   5.581
 3080SOL    HW111079   7.859   2.077   5.593
 3080SOL    HW211080   7.955   2.186   5.552
 3081SOL     OW11081   1.201  13.486   9.659
 3081SOL    HW111082   1.217  13.530   9.742
 3081SOL    HW211083   1.190  13.557   9.596
 3082SOL     OW11084   5.777  11.939   5.594
 3082SOL    HW111085   5.859  11.990   5.588
 3082SOL    HW211086   5.781  11.898   5.681
 3083SOL     OW11087   7.239   1.962   6.511
 3083SOL    HW111088   7.248   1.976   6.417
 3083SOL    HW211089   7.312   1.905   6.534
 3084SOL     OW11090  12.750   2.178   5.417
 3084SOL    HW111091  12.699   2.184   5.498
 3084SOL    HW211092  12.743   2.086   5.391
 3085SOL     OW11093  10.636   6.669   9.219
 3085SOL    HW111094  10.616   6.759   9.244
 3085SOL    HW211095  10.607   6.616   9.293
 3086SOL     OW11096   4.056   8.906  13.621
 3086SOL    HW111097   4.015   8.893  13.535
 3086SOL    HW211098   3.990   8.877  13.683
 3087SOL     OW11099   0.823   4.863   6.715
 3087SOL    HW111100   0.773   4.809   6.776
 3087SOL    HW211101   0.914   4.836   6.729
 3088SOL     OW11102  12.916  11.662  12.764
 3088SOL    HW111103  12.945  11.751  12.742
 3088SOL    HW211104  12.990  11.606  12.741
 3089SOL     OW11105   6.557  14.673   6.304
 3089SOL    HW111106   6.510  14.641   6.381
 3089SOL    HW211107   6.508  14.638   6.230
 3090SOL     OW11108   1.019  11.654   7.849
 3090SOL    HW111109   1.013  11.561   7.869
 3090SOL    HW211110   0.995  11.698   7.931
 3091SOL     OW11111   6.984   4.513   3.268
 3091SOL    HW111112   7.023   4.429   3.246
 3091SOL    HW211113   6.890   4.497   3.271
 3092SOL     OW11114   9.188  11.189   0.607
 3092SOL    HW111115   9.138  11.207   0.686
 3092SOL    HW211116   9.231  11.272   0.586
 3093SOL     OW11117   9.749   9.741   6.890
 3093SOL    HW111118   9.687   9.787   6.834
 3093SOL    HW211119   9.697   9.672   6.932
 3094SOL     OW11120   9.863   0.825   5.041
 3094SOL    HW111121   9.895   0.785   5.121
 3094SOL    HW211122   9.808   0.898   5.070
 3095SOL     OW11123   2.462  11.864   5.956
 3095SOL    HW111124   2.505  11.822   6.031
 3095SOL    HW211125   2.521  11.847   5.882
 3096SOL     OW11126   0.273  12.528   4.921
 3096SOL    HW111127   0.233  12.468   4.857
 3096SOL    HW211128   0.344  12.570   4.872
 3097SOL     OW11129  13.436   6.171  14.835
 3097SOL    HW111130  13.462   6.138   0.042
 3097SOL    HW211131  13.514   6.216  14.802
 3098SOL     OW11132   5.437   3.323   0.618
 3098SOL    HW111133   5.360   3.287   0.574
 3098SOL    HW211134   5.437   3.281   0.704
 3099SOL     OW11135   8.581   8.641   7.754
 3099SOL    HW111136   8.651   8.576   7.752
 3099SOL    HW211137   8.507   8.595   7.793
 3100SOL     OW11138  10.626  13.563  13.342
 3100SOL    HW111139  10.692  13.582  13.409
 3100SOL    HW211140  10.648  13.475  13.312
 3101SOL     OW11141   9.408   9.960  10.819
 3101SOL    HW111142   9.326   9.988  10.778
 3101SOL    HW211143   9.453   9.910  10.750
 3102SOL     OW11144   0.581   0.454  14.713
 3102SOL    HW111145   0.627   0.410  14.641
 3102SOL    HW211146   0.496   0.411  14.717
 3103SOL     OW11147  12.947   5.732   9.231
 3103SOL    HW111148  13.024   5.688   9.195
 3103SOL    HW211149  12.873   5.678   9.203
 3104SOL     OW11150  12.254  12.762   4.327
 3104SOL    HW111151  12.348  12.752   4.316
 3104SOL    HW211152  12.220  12.779   4.240
 3105SOL     OW11153   6.578   1.191  10.934
 3105SOL    HW111154   6.636   1.122  10.966
 3105SOL    HW211155   6.519   1.147  10.873
 3106SOL     OW11156   4.493   7.815   3.546
 3106SOL    HW111157   4.550   7.740   3.533
 3106SOL    HW211158   4.457   7.833   3.459
 3107SOL     OW11159   6.506   5.148   6.183
 3107SOL    HW111160   6.563   5.141   6.259
 3107SOL    HW211161   6.492   5.057   6.156
 3108SOL     OW11162   9.276  11.128   9.291
 3108SOL    HW111163   9.193  11.123   9.339
 3108SOL    HW211164   9.299  11.037   9.273
 3109SOL     OW11165   5.854   8.292   9.554
 3109SOL    HW111166   5.809   8.336   9.482
 3109SOL    HW211167   5.941   8.333   9.556
 3110SOL     OW11168   7.442   2.519   8.611
 3110SOL    HW111169   7.359   2.557   8.638
 3110SOL    HW211170   7.489   2.503   8.693
 3111SOL     OW11171   3.619   3.497   7.333
 3111SOL    HW111172   3.538   3.446   7.338
 3111SOL    HW211173   3.595   3.583   7.366
 3112SOL     OW11174   0.738  13.738  13.340
 3112SOL    HW111175   0.803  13.791  13.387
 3112SOL    HW211176   0.693  13.688  13.408
 3113SOL     OW11177  14.464   6.802   6.294
 3113SOL    HW111178  14.493   6.715   6.320
 3113SOL    HW211179  14.541   6.842   6.253
 3114SOL     OW11180   3.977  14.598   5.221
 3114SOL    HW111181   3.934  14.604   5.306
 3114SOL    HW211182   3.918  14.544   5.168
 3115SOL     OW11183   1.635  10.003   8.560
 3115SOL    HW111184   1.702   9.973   8.622
 3115SOL    HW211185   1.679  10.071   8.509
 3116SOL     OW11186  13.336   4.822   5.070
 3116SOL    HW111187  13.359   4.807   5.162
 3116SOL    HW211188  13.387   4.899   5.045
 3117SOL     OW11189   2.513   4.725  14.637
 3117SOL    HW111190   2.607   4.711  14.645
 3117SOL    HW211191   2.503   4.773  14.555
 3118SOL     OW11192   9.907  11.622   7.579
 3118SOL    HW111193   9.849  11.674   7.524
 3118SOL    HW211194   9.993  11.661   7.566
 3119SOL     OW11195  12.742  12.926   1.781
 3119SOL    HW111196  12.780  12.951   1.866
 3119SOL    HW211197  12.679  12.858   1.803
 3120SOL     OW11198   8.442  10.757  14.235
 3120SOL    HW111199   8.487  10.673  14.246
 3120SOL    HW211200   8.349  10.735  14.237
 3121SOL     OW11201   9.204   7.381  12.038
 3121SOL    HW111202   9.271   7.427  11.987
 3121SOL    HW211203   9.176   7.309  11.982
 3122SOL     OW11204  12.053   2.614   6.694
 3122SOL    HW111205  12.001   2.687   6.727
 3122SOL    HW211206  12.143   2.645   6.698
 3123SOL     OW11207   2.359   2.272   2.654
 3123SOL    HW111208   2.415   2.336   2.697
 3123SOL    HW211209   2.271   2.308   2.661
 3124SOL     OW11210   0.054   1.615   2.027
 3124SOL    HW111211  14.841   1.590   2.032
 3124SOL    HW211212   0.075   1.609   1.934
 3125SOL     OW11213  14.235   2.350  11.566
 3125SOL    HW111214  14.220   2.265  11.525
 3125SOL    HW211215  14.200   2.340  11.654
 3126SOL     OW11216   6.752   1.044  12.840
 3126SOL    HW111217   6.771   1.132  12.872
 3126SOL    HW211218   6.816   1.029  12.771
 3127SOL     OW11219   3.073   7.635   1.106
 3127SOL    HW111220   3.124   7.608   1.183
 3127SOL    HW211221   3.108   7.721   1.083
 3128SOL     OW11222   6.249   1.930   4.844
 3128SOL    HW111223   6.328   1.923   4.791
 3128SOL    HW211224   6.183   1.965   4.784
 3129SOL     OW11225   7.217   6.639   7.101
 3129SOL    HW111226   7.181   6.575   7.039
 3129SOL    HW211227   7.297   6.597   7.134
 3130SOL     OW11228  10.517  14.492   7.463
 3130SOL    HW111229  10.457  14.524   7.530
 3130SOL    HW211230  10.516  14.397   7.474
 3131SOL     OW11231   4.735   4.702   0.895
 3131SOL    HW111232   4.766   4.667   0.978
 3131SOL    HW211233   4.678   4.633   0.859
 3132SOL     OW11234   0.311  14.489   3.340
 3132SOL    HW111235   0.293  14.561   3.401
 3132SOL    HW211236   0.404  14.499   3.318
 3133SOL     OW11237   3.119  11.053   0.565
 3133SOL    HW111238   3.106  10.974   0.618
 3133SOL    HW211239   3.031  11.090   0.556
 3134SOL     OW11240  13.682   1.080  10.993
 3134SOL    HW111241  13.750   1.070  11.060
 3134SOL    HW211242  13.608   1.031  11.028
 3135SOL     OW11243   8.665  13.562  14.394
 3135SOL    HW111244   8.761  13.566  14.397
 3135SOL    HW211245   8.639  13.645  14.356
 3136SOL     OW11246   4.923   3.068   8.018
 3136SOL    HW111247   4.874   2.986   8.014
 3136SOL    HW211248   4.949   3.076   8.110
 3137SOL     OW11249   8.303   2.443   3.148
 3137SOL    HW111250   8.318   2.530   3.185
 3137SOL    HW211251   8.210   2.442   3.127
 3138SOL     OW11252  13.121  10.219   6.033
 3138SOL    HW111253  13.084  10.143   6.077
 3138SOL    HW211254  13.060  10.235   5.960
 3139SOL     OW11255   0.235  10.952  14.107
 3139SOL    HW111256   0.271  11.029  14.062
 3139SOL    HW211257   0.159  10.986  14.155
 3140SOL     OW11258   5.167   1.387   6.407
 3140SOL    HW111259   5.207   1.406   6.322
 3140SOL    HW211260   5.241   1.377   6.467
 3141SOL     OW11261   4.899   9.326   3.996
 3141SOL    HW111262   4.874   9.400   4.051
 3141SOL    HW211263   4.830   9.320   3.930
 3142SOL     OW11264  10.330   1.635   4.691
 3142SOL    HW111265  10.275   1.665   4.619
 3142SOL    HW211266  10.306   1.543   4.703
 3143SOL     OW11267  13.284  12.309   1.501
 3143SOL    HW111268  13.316  12.383   1.451
 3143SOL    HW211269  13.190  12.306   1.483
 3144SOL     OW11270  10.179   4.522  13.499
 3144SOL    HW111271  10.105   4.582  13.491
 3144SOL    HW211272  10.241   4.568  13.556
 3145SOL     OW11273   1.594  12.592   1.602
 3145SOL    HW111274   1.576  12.674   1.555
 3145SOL    HW211275   1.671  12.611   1.655
 3146SOL     OW11276   8.995   1.488   8.911
 3146SOL    HW111277   8.971   1.467   9.001
 3146SOL    HW211278   8.912   1.506   8.867
 3147SOL     OW11279   9.183  11.467   4.822
 3147SOL    HW111280   9.127  11.541   4.799
 3147SOL    HW211281   9.270  11.492   4.791
 3148SOL     OW11282   6.541   6.529  10.417
 3148SOL    HW111283   6.467   6.540  10.477
 3148SOL    HW211284   6.571   6.440  10.431
 3149SOL     OW11285  14.270  13.852   7.869
 3149SOL    HW111286  14.198  13.799   7.904
 3149SOL    HW211287  14.238  13.883   7.785
 3150SOL     OW11288   3.875   0.148   3.887
 3150SOL    HW111289   3.890   0.240   3.910
 3150SOL    HW211290   3.814   0.117   3.954
 3151SOL     OW11291   8.002   2.007  14.661
 3151SOL    HW111292   8.032   1.934  14.607
 3151SOL    HW211293   7.958   2.066  14.599
 3152SOL     OW11294   2.544  12.455  11.132
 3152SOL    HW111295   2.488  12.442  11.056
 3152SOL    HW211296   2.501  12.526  11.181
 3153SOL     OW11297   7.521  14.054  10.143
 3153SOL    HW111298   7.468  14.131  10.121
 3153SOL    HW211299   7.553  14.021  10.059
 3154SOL     OW11300   0.332  14.432  11.133
 3154SOL    HW111301   0.259  14.494  11.126
 3154SOL    HW211302   0.315  14.367  11.065
 3155SOL     OW11303   7.346   5.333   4.392
 3155SOL    HW111304   7.327   5.266   4.327
 3155SOL    HW211305   7.281   5.402   4.375
 3156SOL     OW11306   7.126   8.500   7.653
 3156SOL    HW111307   7.060   8.554   7.697
 3156SOL    HW211308   7.109   8.411   7.684
 3157SOL     OW11309   4.863   4.244  14.819
 3157SOL    HW111310   4.863   4.148  14.822
 3157SOL    HW211311   4.954   4.268  14.803
 3158SOL     OW11312   1.906  11.100  12.620
 3158SOL    HW111313   1.919  11.021  12.671
 3158SOL    HW211314   1.827  11.083  12.568
 3159SOL     OW11315   3.270  12.601   5.319
 3159SOL    HW111316   3.333  12.661   5.359
 3159SOL    HW211317   3.300  12.593   5.228
 3160SOL     OW11318  10.123  11.369   4.193
 3160SOL    HW111319  10.062  11.361   4.120
 3160SOL    HW211320  10.099  11.450   4.237
 3161SOL     OW11321   7.714  12.341   0.344
 3161SOL    HW111322   7.773  12.268   0.364
 3161SOL    HW211323   7.663  12.311   0.269
 3162SOL     OW11324   5.129   6.207  13.410
 3162SOL    HW111325   5.047   6.256  13.406
 3162SOL    HW211326   5.109   6.130  13.463
 3163SOL     OW11327  10.558   6.187   7.387
 3163SOL    HW111328  10.641   6.159   7.349
 3163SOL    HW211329  10.579   6.265   7.438
 3164SOL     OW11330  11.233   1.702   5.798
 3164SOL    HW111331  11.212   1.727   5.889
 3164SOL    HW211332  11.150   1.669   5.763
 3165SOL     OW11333   8.477   8.929  10.434
 3165SOL    HW111334   8.432   8.862  10.383
 3165SOL    HW211335   8.570   8.904  10.429
 3166SOL     OW11336   3.261   9.995  10.624
 3166SOL    HW111337   3.251  10.085  10.592
 3166SOL    HW211338   3.172   9.968  10.646
 3167SOL     OW11339   7.920  11.689  10.466
 3167SOL    HW111340   7.930  11.635  10.545
 3167SOL    HW211341   8.006  11.729  10.453
 3168SOL     OW11342  12.225  14.419   9.973
 3168SOL    HW111343  12.219  14.335  10.019
 3168SOL    HW211344  12.316  14.425   9.946
 3169SOL     OW11345   9.933   7.772   3.210
 3169SOL    HW111346   9.981   7.827   3.148
 3169SOL    HW211347   9.986   7.693   3.216
 3170SOL     OW11348   3.113   0.518   5.233
 3170SOL    HW111349   3.093   0.478   5.148
 3170SOL    HW211350   3.150   0.447   5.285
 3171SOL     OW11351   6.119   6.231   9.750
 3171SOL    HW111352   6.168   6.314   9.746
 3171SOL    HW211353   6.103   6.210   9.658
 3172SOL     OW11354   8.476   3.311   1.233
 3172SOL    HW111355   8.484   3.289   1.140
 3172SOL    HW211356   8.550   3.370   1.250
 3173SOL     OW11357   2.203   2.153   0.925
 3173SOL    HW111358   2.262   2.097   0.875
 3173SOL    HW211359   2.144   2.092   0.970
 3174SOL     OW11360   8.635   0.756  13.162
 3174SOL    HW111361   8.635   0.802  13.078
 3174SOL    HW211362   8.549   0.714  13.167
 3175SOL     OW11363   9.077  12.366   4.571
 3175SOL    HW111364   9.100  12.446   4.618
 3175SOL    HW211365   8.991  12.342   4.605
 3176SOL     OW11366   2.343   2.585   0.280
 3176SOL    HW111367   2.398   2.556   0.208
 3176SOL    HW211368   2.282   2.647   0.240
 3177SOL     OW11369   8.646   4.403   7.056
 3177SOL    HW111370   8.652   4.484   7.106
 3177SOL    HW211371   8.617   4.337   7.119
 3178SOL     OW11372   7.952   9.557   7.586
 3178SOL    HW111373   7.971   9.634   7.533
 3178SOL    HW211374   7.973   9.583   7.675
 3179SOL     OW11375   1.275   5.075   3.347
 3179SOL    HW111376   1.369   5.088   3.343
 3179SOL    HW211377   1.262   4.981   3.337
 3180SOL     OW11378  10.600   9.500   9.313
 3180SOL    HW111379  10.677   9.448   9.290
 3180SOL    HW211380  10.633   9.590   9.318
 3181SOL     OW11381   4.986   4.492   6.726
 3181SOL    HW111382   5.021   4.548   6.794
 3181SOL    HW211383   4.989   4.404   6.763
 3182SOL     OW11384   0.528   3.857   0.283
 3182SOL    HW111385   0.523   3.782   0.224
 3182SOL    HW211386   0.437   3.888   0.291
 3183SOL     OW11387   9.844   3.799   2.118
 3183SOL    HW111388   9.900   3.860   2.069
 3183SOL    HW211389   9.902   3.726   2.139
 3184SOL     OW11390   3.199   6.227   4.457
 3184SOL    HW111391   3.130   6.237   4.523
 3184SOL    HW211392   3.153   6.197   4.379
 3185SOL     OW11393   2.796   2.657   4.525
 3185SOL    HW111394   2.861   2.728   4.521
 3185SOL    HW211395   2.757   2.655   4.437
 3186SOL     OW11396   0.300   4.418   1.146
 3186SOL    HW111397   0.232   4.467   1.101
 3186SOL    HW211398   0.278   4.427   1.239
 3187SOL     OW11399   8.706   1.148   2.275
 3187SOL    HW111400   8.666   1.226   2.237
 3187SOL    HW211401   8.659   1.135   2.357
 3188SOL     OW11402   9.685   9.689   4.736
 3188SOL    HW111403   9.649   9.601   4.747
 3188SOL    HW211404   9.750   9.679   4.667
 3189SOL     OW11405   3.980   6.093   5.129
 3189SOL    HW111406   3.886   6.103   5.142
 3189SOL    HW211407   4.000   6.147   5.052
 3190SOL     OW11408   5.136   8.759   6.468
 3190SOL    HW111409   5.180   8.768   6.552
 3190SOL    HW211410   5.165   8.674   6.434
 3191SOL     OW11411   7.686  13.653  13.357
 3191SOL    HW111412   7.769  13.658  13.405
 3191SOL    HW211413   7.622  13.631  13.424
 3192SOL     OW11414  12.190   1.603  10.248
 3192SOL    HW111415  12.118   1.569  10.196
 3192SOL    HW211416  12.229   1.525  10.290
 3193SOL     OW11417   5.820   4.114   4.829
 3193SOL    HW111418   5.821   4.061   4.909
 3193SOL    HW211419   5.736   4.161   4.832
 3194SOL     OW11420  12.250   6.549   7.074
 3194SOL    HW111421  12.333   6.589   7.050
 3194SOL    HW211422  12.253   6.542   7.169
 3195SOL     OW11423   2.590   5.970  11.049
 3195SOL    HW111424   2.557   6.060  11.054
 3195SOL    HW211425   2.663   5.974  10.987
 3196SOL     OW11426   2.882   1.658  10.686
 3196SOL    HW111427   2.796   1.652  10.728
 3196SOL    HW211428   2.917   1.569  10.691
 3197SOL     OW11429   3.297  10.622  12.498
 3197SOL    HW111430   3.284  10.666  12.582
 3197SOL    HW211431   3.373  10.565  12.512
 3198SOL     OW11432   8.485   4.349   4.665
 3198SOL    HW111433   8.396   4.367   4.697
 3198SOL    HW211434   8.472   4.314   4.577
 3199SOL     OW11435   5.362   4.675   1.710
 3199SOL    HW111436   5.267   4.663   1.716
 3199SOL    HW211437   5.394   4.652   1.797
 3200SOL     OW11438   7.568   4.868   9.217
 3200SOL    HW111439   7.594   4.855   9.126
 3200SOL    HW211440   7.631   4.818   9.268
 3201SOL     OW11441  12.357   1.604   3.766
 3201SOL    HW111442  12.402   1.553   3.834
 3201SOL    HW211443  12.315   1.538   3.711
 3202SOL     OW11444  11.587   4.887  12.299
 3202SOL    HW111445  11.555   4.927  12.379
 3202SOL    HW211446  11.517   4.828  12.272
 3203SOL     OW11447   9.324   2.388  14.841
 3203SOL    HW111448   9.277   2.439  14.775
 3203SOL    HW211449   9.259   2.374   0.032
 3204SOL     OW11450   0.685   7.407   5.821
 3204SOL    HW111451   0.730   7.323   5.812
 3204SOL    HW211452   0.609   7.400   5.764
 3205SOL     OW11453   8.256  14.342   3.833
 3205SOL    HW111454   8.174  14.293   3.826
 3205SOL    HW211455   8.230  14.434   3.826
 3206SOL     OW11456   7.839   6.420   9.918
 3206SOL    HW111457   7.812   6.492   9.861
 3206SOL    HW211458   7.932   6.406   9.897
 3207SOL     OW11459   7.537  11.021   8.919
 3207SOL    HW111460   7.479  10.952   8.953
 3207SOL    HW211461   7.550  10.997   8.827
 3208SOL     OW11462  11.295   8.364   9.044
 3208SOL    HW111463  11.236   8.326   8.979
 3208SOL    HW211464  11.260   8.452   9.060
 3209SOL     OW11465  11.937  14.673   0.157
 3209SOL    HW111466  11.865  14.735   0.155
 3209SOL    HW211467  11.992  14.703   0.230
 3210SOL     OW11468   9.950   7.397   7.028
 3210SOL    HW111469   9.917   7.471   6.978
 3210SOL    HW211470  10.043   7.417   7.041
 3211SOL     OW11471   0.689   5.617   5.260
 3211SOL    HW111472   0.652   5.673   5.192
 3211SOL    HW211473   0.754   5.563   5.214
 3212SOL     OW11474  12.459   6.248   4.207
 3212SOL    HW111475  12.365   6.264   4.193
 3212SOL    HW211476  12.490   6.214   4.124
 3213SOL     OW11477  11.240  14.449   2.892
 3213SOL    HW111478  11.289  14.440   2.974
 3213SOL    HW211479  11.220  14.542   2.885
 3214SOL     OW11480  12.022   5.363   7.729
 3214SOL    HW111481  12.053   5.370   7.638
 3214SOL    HW211482  11.987   5.449   7.750
 3215SOL     OW11483   0.297  14.211   6.351
 3215SOL    HW111484   0.387  14.212   6.384
 3215SOL    HW211485   0.294  14.134   6.294
 3216SOL     OW11486   8.496  14.583  12.028
 3216SOL    HW111487   8.585  14.559  12.003
 3216SOL    HW211488   8.456  14.501  12.057
 3217SOL     OW11489   1.651   9.761  13.836
 3217SOL    HW111490   1.675   9.679  13.878
 3217SOL    HW211491   1.624   9.736  13.748
 3218SOL     OW11492   1.808   9.232   3.027
 3218SOL    HW111493   1.760   9.315   3.020
 3218SOL    HW211494   1.834   9.226   3.119
 3219SOL     OW11495  14.709   9.441   0.011
 3219SOL    HW111496  14.667   9.400  14.815
 3219SOL    HW211497  14.729   9.530  14.862
 3220SOL     OW11498   5.125   3.665   6.491
 3220SOL    HW111499   5.210   3.648   6.531
 3220SOL    HW211500   5.085   3.732   6.547
 3221SOL     OW11501   3.826   2.384   8.983
 3221SOL    HW111502   3.909   2.374   9.029
 3221SOL    HW211503   3.792   2.469   9.012
 3222SOL     OW11504  11.980   1.803   9.304
 3222SOL    HW111505  12.047   1.851   9.352
 3222SOL    HW211506  11.970   1.721   9.352
 3223SOL     OW11507   9.383  10.825  14.263
 3223SOL    HW111508   9.463  10.782  14.294
 3223SOL    HW211509   9.413  10.908  14.225
 3224SOL     OW11510   5.895  11.613  10.796
 3224SOL    HW111511   5.864  11.523  10.785
 3224SOL    HW211512   5.990  11.606  10.799
 3225SOL     OW11513   9.060   2.336  10.748
 3225SOL    HW111514   9.073   2.330  10.654
 3225SOL    HW211515   9.005   2.413  10.760
 3226SOL     OW11516   9.857   6.101  10.453
 3226SOL    HW111517   9.766   6.079  10.469
 3226SOL    HW211518   9.893   6.121  10.540
 3227SOL     OW11519   8.831  10.302   7.543
 3227SOL    HW111520   8.834  10.216   7.583
 3227SOL    HW211521   8.855  10.362   7.613
 3228SOL     OW11522   6.029  11.683   4.146
 3228SOL    HW111523   6.069  11.728   4.220
 3228SOL    HW211524   6.082  11.603   4.136
 3229SOL     OW11525   1.283   3.424  14.462
 3229SOL    HW111526   1.267   3.467  14.379
 3229SOL    HW211527   1.207   3.367  14.475
 3230SOL     OW11528   9.330   4.338  11.087
 3230SOL    HW111529   9.260   4.393  11.124
 3230SOL    HW211530   9.397   4.401  11.059
 3231SOL     OW11531   5.092  14.788   9.337
 3231SOL    HW111532   5.098  14.755   9.247
 3231SOL    HW211533   5.083   0.004   9.326
 3232SOL     OW11534  11.141   9.497  13.389
 3232SOL    HW111535  11.081   9.430  13.422
 3232SOL    HW211536  11.217   9.492  13.446
 3233SOL     OW11537   5.034  13.846   6.735
 3233SOL    HW111538   5.033  13.872   6.827
 3233SOL    HW211539   5.093  13.771   6.731
 3234SOL     OW11540  10.921  10.380  11.298
 3234SOL    HW111541  10.958  10.447  11.356
 3234SOL    HW211542  10.988  10.313  11.293
 3235SOL     OW11543   1.522  11.632   3.853
 3235SOL    HW111544   1.440  11.677   3.870
 3235SOL    HW211545   1.510  11.545   3.892
 3236SOL     OW11546   3.459   2.496   0.279
 3236SOL    HW111547   3.553   2.497   0.296
 3236SOL    HW211548   3.450   2.530   0.190
 3237SOL     OW11549   8.960   8.496   9.598
 3237SOL    HW111550   8.877   8.541   9.613
 3237SOL    HW211551   8.942   8.436   9.525
 3238SOL     OW11552  13.432  11.599  10.166
 3238SOL    HW111553  13.435  11.682  10.214
 3238SOL    HW211554  13.339  11.588  10.144
 3239SOL     OW11555  12.338   2.672   0.414
 3239SOL    HW111556  12.341   2.754   0.365
 3239SOL    HW211557  12.279   2.690   0.487
 3240SOL     OW11558   1.274   2.494   4.045
 3240SOL    HW111559   1.256   2.448   3.963
 3240SOL    HW211560   1.304   2.425   4.105
 3241SOL     OW11561  12.856   3.566   4.170
 3241SOL    HW111562  12.849   3.473   4.189
 3241SOL    HW211563  12.927   3.597   4.227
 3242SOL     OW11564   1.563   2.548   5.871
 3242SOL    HW111565   1.638   2.544   5.811
 3242SOL    HW211566   1.596   2.509   5.953
 3243SOL     OW11567  14.356   0.582  12.808
 3243SOL    HW111568  14.373   0.677  12.810
 3243SOL    HW211569  14.330   0.561  12.898
 3244SOL     OW11570   0.055   5.651  11.739
 3244SOL    HW111571   0.059   5.595  11.662
 3244SOL    HW211572  14.845   5.687  11.738
 3245SOL     OW11573   8.405   6.174   4.886
 3245SOL    HW111574   8.357   6.257   4.889
 3245SOL    HW211575   8.444   6.172   4.799
 3246SOL     OW11576   7.307   2.302  14.871
 3246SOL    HW111577   7.382   2.355   0.019
 3246SOL    HW211578   7.317   2.292  14.777
 3247SOL     OW11579   5.277   8.898   0.701
 3247SOL    HW111580   5.351   8.853   0.659
 3247SOL    HW211581   5.289   8.990   0.678
 3248SOL     OW11582   9.990  13.347   0.786
 3248SOL    HW111583   9.960  13.256   0.795
 3248SOL    HW211584   9.910  13.398   0.776
 3249SOL     OW11585   7.951   1.129   8.026
 3249SOL    HW111586   7.884   1.072   8.065
 3249SOL    HW211587   7.901   1.191   7.973
 3250SOL     OW11588  10.491   7.685   0.515
 3250SOL    HW111589  10.493   7.703   0.609
 3250SOL    HW211590  10.400   7.659   0.498
 3251SOL     OW11591   2.582   2.169   3.108
 3251SOL    HW111592   2.676   2.183   3.122
 3251SOL    HW211593   2.571   2.170   3.013
 3252SOL     OW11594   1.638   4.073   0.067
 3252SOL    HW111595   1.695   4.032   0.133
 3252SOL    HW211596   1.693   4.081  14.869
 3253SOL     OW11597   3.975   7.625   0.952
 3253SOL    HW111598   3.883   7.651   0.954
 3253SOL    HW211599   4.021   7.699   0.993
 3254SOL     OW11600   0.480   6.138   2.907
 3254SOL    HW111601   0.542   6.175   2.845
 3254SOL    HW211602   0.515   6.051   2.927
 3255SOL     OW11603   9.708   1.787   2.377
 3255SOL    HW111604   9.803   1.791   2.371
 3255SOL    HW211605   9.691   1.728   2.450
 3256SOL     OW11606   0.584   0.286   3.834
 3256SOL    HW111607   0.667   0.277   3.880
 3256SOL    HW211608   0.523   0.232   3.884
 3257SOL     OW11609   9.748   1.005   1.537
 3257SOL    HW111610   9.696   1.079   1.569
 3257SOL    HW211611   9.808   0.986   1.608
 3258SOL     OW11612   1.753   8.028   6.263
 3258SOL    HW111613   1.719   7.941   6.284
 3258SOL    HW211614   1.714   8.086   6.329
 3259SOL     OW11615  10.071  10.952   8.617
 3259SOL    HW111616  10.149  10.937   8.564
 3259SOL    HW211617  10.002  10.901   8.575
 3260SOL     OW11618   5.600   8.005  13.721
 3260SOL    HW111619   5.648   7.944  13.776
 3260SOL    HW211620   5.612   7.971  13.632
 3261SOL     OW11621   0.062   7.962   9.071
 3261SOL    HW111622   0.059   7.932   8.980
 3261SOL    HW211623  14.871   8.027   9.077
 3262SOL     OW11624   7.069   2.520  12.348
 3262SOL    HW111625   7.032   2.555  12.429
 3262SOL    HW211626   7.114   2.440  12.375
 3263SOL     OW11627  14.560   4.864   2.111
 3263SOL    HW111628  14.651   4.885   2.089
 3263SOL    HW211629  14.566   4.815   2.193
 3264SOL     OW11630   0.543   2.965   9.125
 3264SOL    HW111631   0.549   2.947   9.031
 3264SOL    HW211632   0.557   2.879   9.166
 3265SOL     OW11633   6.166   7.375  12.902
 3265SOL    HW111634   6.232   7.356  12.969
 3265SOL    HW211635   6.144   7.467  12.915
 3266SOL     OW11636   3.912   4.009   8.730
 3266SOL    HW111637   3.827   4.034   8.768
 3266SOL    HW211638   3.951   4.092   8.703
 3267SOL     OW11639   0.539   1.851   0.092
 3267SOL    HW111640   0.445   1.834   0.096
 3267SOL    HW211641   0.576   1.774   0.050
 3268SOL     OW11642  14.136   2.570  10.074
 3268SOL    HW111643  14.109   2.479  10.088
 3268SOL    HW211644  14.106   2.590   9.985
 3269SOL     OW11645  11.306  13.262   0.792
 3269SOL    HW111646  11.314  13.275   0.698
 3269SOL    HW211647  11.237  13.197   0.802
 3270SOL     OW11648   5.794   4.604   6.279
 3270SOL    HW111649   5.881   4.600   6.319
 3270SOL    HW211650   5.752   4.679   6.321
 3271SOL     OW11651   9.547  11.036   8.482
 3271SOL    HW111652   9.589  10.982   8.549
 3271SOL    HW211653   9.483  11.088   8.529
 3272SOL     OW11654   7.238   3.841  14.499
 3272SOL    HW111655   7.334   3.840  14.509
 3272SOL    HW211656   7.206   3.879  14.581
 3273SOL     OW11657  14.261   3.130   7.482
 3273SOL    HW111658  14.218   3.187   7.418
 3273SOL    HW211659  14.308   3.066   7.429
 3274SOL     OW11660   8.447   4.110   5.266
 3274SOL    HW111661   8.408   4.141   5.184
 3274SOL    HW211662   8.392   4.036   5.292
 3275SOL     OW11663   4.028  12.413  10.677
 3275SOL    HW111664   3.981  12.486  10.718
 3275SOL    HW211665   4.054  12.358  10.750
 3276SOL     OW11666  11.815   2.245  14.245
 3276SOL    HW111667  11.830   2.203  14.330
 3276SOL    HW211668  11.777   2.330  14.267
 3277SOL     OW11669   5.939   2.883  14.244
 3277SOL    HW111670   5.844   2.877  14.256
 3277SOL    HW211671   5.963   2.964  14.288
 3278SOL     OW11672   0.798   7.560   4.673
 3278SOL    HW111673   0.768   7.512   4.596
 3278SOL    HW211674   0.877   7.606   4.644
 3279SOL     OW11675   8.289   8.140  10.759
 3279SOL    HW111676   8.218   8.091  10.717
 3279SOL    HW211677   8.336   8.181  10.688
 3280SOL     OW11678   1.764  10.830   9.408
 3280SOL    HW111679   1.790  10.919   9.382
 3280SOL    HW211680   1.802  10.773   9.341
 3281SOL     OW11681  10.513   6.307   1.933
 3281SOL    HW111682  10.442   6.243   1.930
 3281SOL    HW211683  10.471   6.390   1.910
 3282SOL     OW11684   9.827   3.792   0.523
 3282SOL    HW111685   9.801   3.866   0.579
 3282SOL    HW211686   9.766   3.722   0.545
 3283SOL     OW11687   9.384   2.739  14.261
 3283SOL    HW111688   9.444   2.666  14.251
 3283SOL    HW211689   9.297   2.699  14.267
 3284SOL     OW11690   6.255   6.183  14.093
 3284SOL    HW111691   6.208   6.203  14.174
 3284SOL    HW211692   6.281   6.091  14.103
 3285SOL     OW11693   5.894   6.087   8.751
 3285SOL    HW111694   5.939   6.092   8.667
 3285SOL    HW211695   5.849   6.171   8.759
 3286SOL     OW11696   7.105   8.870   6.328
 3286SOL    HW111697   7.022   8.914   6.349
 3286SOL    HW211698   7.091   8.833   6.241
 3287SOL     OW11699   0.947   0.332   0.158
 3287SOL    HW111700   0.853   0.352   0.154
 3287SOL    HW211701   0.987   0.413   0.191
 3288SOL     OW11702  12.685   1.636   9.254
 3288SOL    HW111703  12.641   1.695   9.193
 3288SOL    HW211704  12.771   1.621   9.215
 3289SOL     OW11705   8.601   3.762   1.883
 3289SOL    HW111706   8.619   3.759   1.977
 3289SOL    HW211707   8.598   3.670   1.856
 3290SOL     OW11708  14.169   4.536  10.485
 3290SOL    HW111709  14.117   4.479  10.543
 3290SOL    HW211710  14.236   4.478  10.449
 3291SOL     OW11711   4.788  11.795   6.476
 3291SOL    HW111712   4.853  11.738   6.516
 3291SOL    HW211713   4.726  11.735   6.435
 3292SOL     OW11714  10.051   5.765   2.508
 3292SOL    HW111715   9.972   5.811   2.535
 3292SOL    HW211716  10.114   5.780   2.579
 3293SOL     OW11717   3.917  14.675   7.399
 3293SOL    HW111718   3.990  14.620   7.368
 3293SOL    HW211719   3.848  14.613   7.420
 3294SOL     OW11720  10.510  13.671  12.276
 3294SOL    HW111721  10.510  13.598  12.337
 3294SOL    HW211722  10.525  13.632  12.190
 3295SOL     OW11723   7.201   4.282   6.019
 3295SOL    HW111724   7.169   4.237   5.941
 3295SOL    HW211725   7.248   4.214   6.068
 3296SOL     OW11726  14.727   8.495   1.160
 3296SOL    HW111727  14.807   8.442   1.151
 3296SOL    HW211728  14.700   8.483   1.251
 3297SOL     OW11729  10.248   1.961   8.847
 3297SOL    HW111730  10.314   1.965   8.778
 3297SOL    HW211731  10.228   1.868   8.856
 3298SOL     OW11732   9.808   8.820  12.520
 3298SOL    HW111733   9.738   8.879  12.492
 3298SOL    HW211734   9.763   8.736  12.534
 3299SOL     OW11735   2.220   8.786   2.081
 3299SOL    HW111736   2.307   8.777   2.042
 3299SOL    HW211737   2.162   8.737   2.023
 3300SOL     OW11738  10.402   4.028  14.157
 3300SOL    HW111739  10.427   4.098  14.096
 3300SOL    HW211740  10.446   3.950  14.123
 3301SOL     OW11741   4.756   7.868   5.707
 3301SOL    HW111742   4.797   7.945   5.667
 3301SOL    HW211743   4.773   7.879   5.801
 3302SOL     OW11744   1.578  11.235   7.683
 3302SOL    HW111745   1.534  11.185   7.614
 3302SOL    HW211746   1.515  11.236   7.755
 3303SOL     OW11747   9.448  12.354   2.864
 3303SOL    HW111748   9.420  12.435   2.822
 3303SOL    HW211749   9.366  12.309   2.887
 3304SOL     OW11750  12.412  12.766   3.497
 3304SOL    HW111751  12.380  12.681   3.467
 3304SOL    HW211752  12.455  12.748   3.580
 3305SOL     OW11753  12.014   6.359  12.243
 3305SOL    HW111754  11.998   6.453  12.231
 3305SOL    HW211755  11.977   6.339  12.329
 3306SOL     OW11756  14.472   3.516  11.065
 3306SOL    HW111757  14.548   3.487  11.014
 3306SOL    HW211758  14.398   3.505  11.005
 3307SOL     OW11759  14.190   2.675   4.455
 3307SOL    HW111760  14.236   2.758   4.437
 3307SOL    HW211761  14.189   2.669   4.550
 3308SOL     OW11762  12.892   6.971   9.224
 3308SOL    HW111763  12.899   6.958   9.130
 3308SOL    HW211764  12.806   6.938   9.247
 3309SOL     OW11765   3.973   0.762   6.017
 3309SOL    HW111766   3.990   0.811   5.936
 3309SOL    HW211767   4.041   0.792   6.078
 3310SOL     OW11768   1.463   1.768  14.394
 3310SOL    HW111769   1.523   1.704  14.355
 3310SOL    HW211770   1.376   1.735  14.371
 3311SOL     OW11771   4.172   2.796   3.057
 3311SOL    HW111772   4.201   2.840   3.136
 3311SOL    HW211773   4.198   2.705   3.068
 3312SOL     OW11774  13.506   7.321   9.734
 3312SOL    HW111775  13.599   7.334   9.718
 3312SOL    HW211776  13.495   7.334   9.828
 3313SOL     OW11777   7.403   7.166   4.896
 3313SOL    HW111778   7.375   7.226   4.827
 3313SOL    HW211779   7.428   7.222   4.969
 3314SOL     OW11780   0.035  14.084   8.859
 3314SOL    HW111781   0.025  14.096   8.764
 3314SOL    HW211782   0.042  13.990   8.871
 3315SOL     OW11783   1.400  12.469  13.701
 3315SOL    HW111784   1.325  12.440  13.649
 3315SOL    HW211785   1.370  12.465  13.791
 3316SOL     OW11786  13.967   4.765   7.875
 3316SOL    HW111787  13.891   4.774   7.932
 3316SOL    HW211788  13.939   4.705   7.806
 3317SOL     OW11789   7.421   3.318  11.949
 3317SOL    HW111790   7.356   3.249  11.937
 3317SOL    HW211791   7.420   3.335  12.044
 3318SOL     OW11792  10.573  10.041   3.645
 3318SOL    HW111793  10.541  10.109   3.585
 3318SOL    HW211794  10.640  10.085   3.698
 3319SOL     OW11795   5.689   4.365   4.410
 3319SOL    HW111796   5.699   4.296   4.344
 3319SOL    HW211797   5.598   4.359   4.438
 3320SOL     OW11798  10.036   3.318   6.247
 3320SOL    HW111799  10.041   3.357   6.334
 3320SOL    HW211800  10.066   3.228   6.260
 3321SOL     OW11801  11.383   5.814   9.322
 3321SOL    HW111802  11.425   5.737   9.285
 3321SOL    HW211803  11.290   5.792   9.325
 3322SOL     OW11804   0.320   1.799   5.487
 3322SOL    HW111805   0.385   1.832   5.549
 3322SOL    HW211806   0.342   1.707   5.475
 3323SOL     OW11807   9.559   1.903   5.091
 3323SOL    HW111808   9.565   1.934   5.001
 3323SOL    HW211809   9.592   1.976   5.144
 3324SOL     OW11810   0.944   7.960   3.301
 3324SOL    HW111811   0.854   7.965   3.268
 3324SOL    HW211812   0.948   7.876   3.347
 3325SOL     OW11813   7.488  10.191  13.750
 3325SOL    HW111814   7.487  10.120  13.685
 3325SOL    HW211815   7.493  10.146  13.834
 3326SOL     OW11816   2.495  11.775   9.100
 3326SOL    HW111817   2.409  11.740   9.121
 3326SOL    HW211818   2.486  11.812   9.013
 3327SOL     OW11819   2.321   4.644   8.988
 3327SOL    HW111820   2.372   4.651   8.908
 3327SOL    HW211821   2.326   4.552   9.013
 3328SOL     OW11822   5.936  10.315   2.713
 3328SOL    HW111823   5.969  10.297   2.801
 3328SOL    HW211824   5.907  10.407   2.717
 3329SOL     OW11825   2.455   0.641  14.126
 3329SOL    HW111826   2.550   0.650  14.130
 3329SOL    HW211827   2.436   0.563  14.178
 3330SOL     OW11828   7.563  14.463   2.040
 3330SOL    HW111829   7.546  14.392   2.102
 3330SOL    HW211830   7.494  14.453   1.974
 3331SOL     OW11831   9.679   0.828  10.407
 3331SOL    HW111832   9.692   0.818  10.502
 3331SOL    HW211833   9.694   0.740  10.372
 3332SOL     OW11834   2.978   6.328  10.337
 3332SOL    HW111835   2.894   6.372  10.336
 3332SOL    HW211836   2.957   6.236  10.356
 3333SOL     OW11837   5.253  14.299  13.613
 3333SOL    HW111838   5.288  14.235  13.551
 3333SOL    HW211839   5.158  14.289  13.607
 3334SOL     OW11840   5.910   2.173  10.277
 3334SOL    HW111841   5.944   2.129  10.198
 3334SOL    HW211842   5.862   2.105  10.323
 3335SOL     OW11843   3.865   3.579   5.766
 3335SOL    HW111844   3.775   3.572   5.800
 3335SOL    HW211845   3.854   3.603   5.674
 3336SOL     OW11846   1.436   4.489  12.932
 3336SOL    HW111847   1.511   4.456  12.882
 3336SOL    HW211848   1.371   4.511  12.865
 3337SOL     OW11849   4.081   0.364  10.608
 3337SOL    HW111850   4.175   0.346  10.597
 3337SOL    HW211851   4.066   0.359  10.702
 3338SOL     OW11852   2.638   7.447   8.065
 3338SOL    HW111853   2.700   7.377   8.044
 3338SOL    HW211854   2.675   7.525   8.022
 3339SOL     OW11855  10.220   3.117   2.697
 3339SOL    HW111856  10.290   3.158   2.647
 3339SOL    HW211857  10.197   3.181   2.765
 3340SOL     OW11858   1.826   9.295   2.433
 3340SOL    HW111859   1.771   9.250   2.498
 3340SOL    HW211860   1.915   9.281   2.464
 3341SOL     OW11861  12.305   4.135  14.545
 3341SOL    HW111862  12.212   4.119  14.558
 3341SOL    HW211863  12.346   4.113  14.629
 3342SOL     OW11864   4.852  10.192  10.378
 3342SOL    HW111865   4.873  10.284  10.390
 3342SOL    HW211866   4.857  10.154  10.465
 3343SOL     OW11867   3.637   5.137   4.846
 3343SOL    HW111868   3.647   5.229   4.821
 3343SOL    HW211869   3.716   5.117   4.897
 3344SOL     OW11870   5.092   2.476  10.805
 3344SOL    HW111871   5.004   2.474  10.843
 3344SOL    HW211872   5.151   2.472  10.881
 3345SOL     OW11873   9.774   5.906  12.281
 3345SOL    HW111874   9.853   5.879  12.328
 3345SOL    HW211875   9.800   5.984  12.232
 3346SOL     OW11876   0.403  14.524   4.309
 3346SOL    HW111877   0.450  14.460   4.256
 3346SOL    HW211878   0.334  14.557   4.252
 3347SOL     OW11879   7.567  12.515   7.430
 3347SOL    HW111880   7.551  12.421   7.422
 3347SOL    HW211881   7.642  12.531   7.373
 3348SOL     OW11882   6.881   6.513  10.855
 3348SOL    HW111883   6.936   6.588  10.875
 3348SOL    HW211884   6.864   6.520  10.761
 3349SOL     OW11885   2.372   9.640   7.361
 3349SOL    HW111886   2.297   9.624   7.304
 3349SOL    HW211887   2.384   9.558   7.409
 3350SOL     OW11888  10.854  13.595   2.979
 3350SOL    HW111889  10.829  13.516   3.027
 3350SOL    HW211890  10.780  13.655   2.992
 3351SOL     OW11891   4.752  12.172   9.216
 3351SOL    HW111892   4.675  12.124   9.187
 3351SOL    HW211893   4.808  12.177   9.138
 3352SOL     OW11894   2.691   6.156  10.193
 3352SOL    HW111895   2.713   6.208  10.116
 3352SOL    HW211896   2.603   6.122  10.175
 3353SOL     OW11897   1.649  13.827  10.056
 3353SOL    HW111898   1.730  13.827  10.005
 3353SOL    HW211899   1.579  13.827   9.991
 3354SOL     OW11900  12.874  11.193   8.962
 3354SOL    HW111901  12.891  11.157   9.049
 3354SOL    HW211902  12.780  11.180   8.948
 3355SOL     OW11903  11.348   0.080   3.081
 3355SOL    HW111904  11.342   0.162   3.130
 3355SOL    HW211905  11.442   0.063   3.074
 3356SOL     OW11906   3.373   3.909   3.527
 3356SOL    HW111907   3.419   3.825   3.531
 3356SOL    HW211908   3.344   3.924   3.617
 3357SOL     OW11909  13.201  12.423   2.132
 3357SOL    HW111910  13.204  12.407   2.226
 3357SOL    HW211911  13.200  12.519   2.124
 3358SOL     OW11912   0.579   8.569   8.714
 3358SOL    HW111913   0.639   8.625   8.665
 3358SOL    HW211914   0.586   8.599   8.805
 3359SOL     OW11915   3.384   7.634  10.478
 3359SOL    HW111916   3.463   7.656  10.430
 3359SOL    HW211917   3.320   7.700  10.452
 3360SOL     OW11918   5.827  14.283   0.835
 3360SOL    HW111919   5.877  14.280   0.753
 3360SOL    HW211920   5.737  14.265   0.808
 3361SOL     OW11921   1.399   7.653  13.265
 3361SOL    HW111922   1.372   7.574  13.312
 3361SOL    HW211923   1.332   7.665  13.198
 3362SOL     OW11924  11.614   6.170  11.678
 3362SOL    HW111925  11.554   6.103  11.645
 3362SOL    HW211926  11.557   6.237  11.716
 3363SOL     OW11927   4.820   8.706  13.443
 3363SOL    HW111928   4.767   8.735  13.370
 3363SOL    HW211929   4.903   8.678  13.403
 3364SOL     OW11930   0.684   9.799  11.028
 3364SOL    HW111931   0.605   9.845  11.057
 3364SOL    HW211932   0.698   9.733  11.096
 3365SOL     OW11933   8.117   4.464   1.448
 3365SOL    HW111934   8.204   4.499   1.466
 3365SOL    HW211935   8.100   4.487   1.357
 3366SOL     OW11936   7.028   2.900   4.110
 3366SOL    HW111937   7.004   2.808   4.107
 3366SOL    HW211938   6.962   2.940   4.166
 3367SOL     OW11939   2.796   8.993   2.605
 3367SOL    HW111940   2.876   9.039   2.578
 3367SOL    HW211941   2.811   8.902   2.579
 3368SOL     OW11942   9.121   6.307  10.775
 3368SOL    HW111943   9.193   6.248  10.752
 3368SOL    HW211944   9.045   6.273  10.729
 3369SOL     OW11945   6.876  14.788   3.850
 3369SOL    HW111946   6.820  14.796   3.927
 3369SOL    HW211947   6.932  14.865   3.853
 3370SOL     OW11948   9.965  10.375   0.845
 3370SOL    HW111949  10.044  10.397   0.795
 3370SOL    HW211950   9.961  10.441   0.914
 3371SOL     OW11951   1.667   6.882   6.810
 3371SOL    HW111952   1.621   6.818   6.864
 3371SOL    HW211953   1.754   6.888   6.849
 3372SOL     OW11954   0.750  14.123   4.849
 3372SOL    HW111955   0.659  14.133   4.819
 3372SOL    HW211956   0.801  14.113   4.768
 3373SOL     OW11957   5.313  14.549   6.408
 3373SOL    HW111958   5.230  14.524   6.448
 3373SOL    HW211959   5.293  14.627   6.356
 3374SOL     OW11960   8.520   7.025   7.925
 3374SOL    HW111961   8.522   6.994   8.015
 3374SOL    HW211962   8.526   7.120   7.932
 3375SOL     OW11963   7.972  11.828   4.455
 3375SOL    HW111964   7.890  11.872   4.477
 3375SOL    HW211965   7.945  11.738   4.433
 3376SOL     OW11966   6.758   7.265  12.166
 3376SOL    HW111967   6.745   7.193  12.104
 3376SOL    HW211968   6.823   7.321  12.124
 3377SOL     OW11969  12.140   4.503   5.036
 3377SOL    HW111970  12.220   4.482   4.987
 3377SOL    HW211971  12.069   4.471   4.981
 3378SOL     OW11972   0.762  14.057  12.550
 3378SOL    HW111973   0.725  14.058  12.638
 3378SOL    HW211974   0.705  14.115  12.499
 3379SOL     OW11975   1.268  12.725   6.927
 3379SOL    HW111976   1.252  12.647   6.981
 3379SOL    HW211977   1.253  12.695   6.837
 3380SOL     OW11978  12.270   3.887   8.099
 3380SOL    HW111979  12.235   3.942   8.168
 3380SOL    HW211980  12.346   3.935   8.066
 3381SOL     OW11981   6.444  14.534   0.798
 3381SOL    HW111982   6.398  14.617   0.786
 3381SOL    HW211983   6.377  14.467   0.786
 3382SOL     OW11984   4.103  12.706  13.102
 3382SOL    HW111985   4.154  12.661  13.169
 3382SOL    HW211986   4.127  12.798  13.110
 3383SOL     OW11987   9.525   6.009   4.892
 3383SOL    HW111988   9.518   5.989   4.985
 3383SOL    HW211989   9.597   5.954   4.861
 3384SOL     OW11990   7.997  10.924   4.054
 3384SOL    HW111991   8.071  10.867   4.074
 3384SOL    HW211992   7.964  10.892   3.970
 3385SOL     OW11993  12.995  10.112  14.198
 3385SOL    HW111994  13.002  10.170  14.274
 3385SOL    HW211995  13.049  10.036  14.221
 3386SOL     OW11996   7.517  12.707   4.431
 3386SOL    HW111997   7.597  12.657   4.443
 3386SOL    HW211998   7.479  12.714   4.519
 3387SOL     OW11999  10.031   7.246  14.214
 3387SOL    HW112000  10.052   7.309  14.146
 3387SOL    HW212001  10.088   7.171  14.196
 3388SOL     OW12002  13.452   8.246   0.871
 3388SOL    HW112003  13.530   8.282   0.913
 3388SOL    HW212004  13.409   8.195   0.939
 3389SOL     OW12005  14.379   6.692  10.710
 3389SOL    HW112006  14.306   6.630  10.707
 3389SOL    HW212007  14.454   6.640  10.739
 3390SOL     OW12008  12.645   3.590   9.324
 3390SOL    HW112009  12.559   3.588   9.282
 3390SOL    HW212010  12.646   3.673   9.371
 3391SOL     OW12011   1.055   1.724   0.411
 3391SOL    HW112012   1.061   1.674   0.493
 3391SOL    HW212013   1.081   1.662   0.343
 3392SOL     OW12014  14.876   1.365  14.691
 3392SOL    HW112015  14.783   1.364  14.710
 3392SOL    HW212016   0.037   1.315  14.762
 3393SOL     OW12017   4.972   4.009   7.035
 3393SOL    HW112018   4.900   3.998   7.098
 3393SOL    HW212019   4.969   3.930   6.981
 3394SOL     OW12020  14.007   1.611  11.805
 3394SOL    HW112021  14.094   1.572  11.813
 3394SOL    HW212022  14.003   1.645  11.715
 3395SOL     OW12023   9.144   8.173   1.981
 3395SOL    HW112024   9.055   8.137   1.985
 3395SOL    HW212025   9.201   8.097   1.969
 3396SOL     OW12026   0.162  12.111   7.986
 3396SOL    HW112027   0.101  12.100   7.912
 3396SOL    HW212028   0.111  12.086   8.063
 3397SOL     OW12029   6.732   2.960  13.635
 3397SOL    HW112030   6.687   2.938  13.716
 3397SOL    HW212031   6.767   3.048  13.649
 3398SOL     OW12032  11.001   2.126   2.318
 3398SOL    HW112033  10.917   2.087   2.296
 3398SOL    HW212034  11.034   2.074   2.391
 3399SOL     OW12035   9.657   4.994  12.841
 3399SOL    HW112036   9.713   4.925  12.808
 3399SOL    HW212037   9.612   5.028  12.764
 3400SOL     OW12038  10.918  12.752  11.378
 3400SOL    HW112039  10.893  12.663  11.354
 3400SOL    HW212040  10.892  12.761  11.469
 3401SOL     OW12041  10.881   0.348   6.775
 3401SOL    HW112042  10.928   0.380   6.852
 3401SOL    HW212043  10.800   0.399   6.774
 3402SOL     OW12044   4.050  12.944  14.482
 3402SOL    HW112045   4.141  12.914  14.473
 3402SOL    HW212046   4.040  12.959  14.576
 3403SOL     OW12047  12.808  14.257   2.144
 3403SOL    HW112048  12.746  14.197   2.102
 3403SOL    HW212049  12.806  14.233   2.236
 3404SOL     OW12050   4.451  12.070   0.642
 3404SOL    HW112051   4.406  12.015   0.578
 3404SOL    HW212052   4.511  12.123   0.589
 3405SOL     OW12053   0.521  13.473   4.867
 3405SOL    HW112054   0.429  13.458   4.890
 3405SOL    HW212055   0.536  13.415   4.793
 3406SOL     OW12056  10.277  13.176   8.867
 3406SOL    HW112057  10.339  13.113   8.902
 3406SOL    HW212058  10.191  13.139   8.886
 3407SOL     OW12059  11.461   1.374   9.501
 3407SOL    HW112060  11.375   1.417   9.505
 3407SOL    HW212061  11.480   1.350   9.591
 3408SOL     OW12062  14.763   7.370   1.935
 3408SOL    HW112063  14.750   7.280   1.905
 3408SOL    HW212064  14.674   7.407   1.937
 3409SOL     OW12065  10.256  12.930   8.070
 3409SOL    HW112066  10.351  12.944   8.071
 3409SOL    HW212067  10.242  12.858   8.131
 3410SOL     OW12068  12.096   4.011   2.253
 3410SOL    HW112069  12.058   3.923   2.256
 3410SOL    HW212070  12.028   4.064   2.210
 3411SOL     OW12071   7.245   2.546  10.098
 3411SOL    HW112072   7.308   2.617  10.086
 3411SOL    HW212073   7.163   2.580  10.061
 3412SOL     OW12074   0.499   9.849  13.888
 3412SOL    HW112075   0.490   9.807  13.803
 3412SOL    HW212076   0.553   9.926  13.872
 3413SOL     OW12077  10.430   1.957   7.737
 3413SOL    HW112078  10.397   1.923   7.653
 3413SOL    HW212079  10.500   2.017   7.713
 3414SOL     OW12080   1.566  13.368  12.511
 3414SOL    HW112081   1.530  13.329  12.430
 3414SOL    HW212082   1.527  13.455  12.514
 3415SOL     OW12083   9.118   8.556   7.167
 3415SOL    HW112084   9.024   8.539   7.170
 3415SOL    HW212085   9.132   8.626   7.231
 3416SOL     OW12086   3.332  13.496   5.533
 3416SOL    HW112087   3.282  13.540   5.602
 3416SOL    HW212088   3.422  13.496   5.564
 3417SOL     OW12089   4.632   0.194  10.098
 3417SOL    HW112090   4.676   0.114  10.127
 3417SOL    HW212091   4.557   0.203  10.156
 3418SOL     OW12092  11.852   4.276  14.853
 3418SOL    HW112093  11.909   4.203  14.878
 3418SOL    HW212094  11.831   4.321   0.056
 3419SOL     OW12095   6.557  10.737   0.247
 3419SOL    HW112096   6.536  10.721   0.339
 3419SOL    HW212097   6.612  10.815   0.248
 3420SOL     OW12098  12.651   7.256   9.721
 3420SOL    HW112099  12.558   7.268   9.701
 3420SOL    HW212100  12.697   7.316   9.663
 3421SOL     OW12101   0.486  10.047   1.128
 3421SOL    HW112102   0.393  10.054   1.106
 3421SOL    HW212103   0.531  10.067   1.046
 3422SOL     OW12104  14.688   9.886   0.328
 3422SOL    HW112105  14.717   9.880   0.237
 3422SOL    HW212106  14.672   9.980   0.342
 3423SOL     OW12107  10.209   1.861   2.197
 3423SOL    HW112108  10.186   1.772   2.170
 3423SOL    HW212109  10.269   1.892   2.128
 3424SOL     OW12110  11.785   4.836  14.439
 3424SOL    HW112111  11.757   4.853  14.349
 3424SOL    HW212112  11.765   4.917  14.486
 3425SOL     OW12113  11.458   4.382   9.861
 3425SOL    HW112114  11.476   4.461   9.810
 3425SOL    HW212115  11.416   4.322   9.799
 3426SOL     OW12116  11.725  12.567   7.976
 3426SOL    HW112117  11.751  12.571   8.069
 3426SOL    HW212118  11.727  12.474   7.956
 3427SOL     OW12119   3.623   9.797   2.482
 3427SOL    HW112120   3.705   9.777   2.437
 3427SOL    HW212121   3.583   9.866   2.431
 3428SOL     OW12122   8.121   3.652   8.550
 3428SOL    HW112123   8.144   3.661   8.642
 3428SOL    HW212124   8.205   3.638   8.506
 3429SOL     OW12125   5.731   4.006   3.480
 3429SOL    HW112126   5.663   3.975   3.420
 3429SOL    HW212127   5.787   4.062   3.427
 3430SOL     OW12128  11.674   1.479   2.405
 3430SOL    HW112129  11.628   1.431   2.335
 3430SOL    HW212130  11.689   1.414   2.473
 3431SOL     OW12131  14.071   2.865   7.816
 3431SOL    HW112132  14.033   2.818   7.741
 3431SOL    HW212133  14.046   2.956   7.801
 3432SOL     OW12134   0.714  12.429   8.728
 3432SOL    HW112135   0.720  12.461   8.818
 3432SOL    HW212136   0.773  12.486   8.678
 3433SOL     OW12137   3.559  10.667   6.917
 3433SOL    HW112138   3.571  10.572   6.918
 3433SOL    HW212139   3.494  10.684   6.986
 3434SOL     OW12140  12.085   8.909   5.909
 3434SOL    HW112141  12.099   8.835   5.968
 3434SOL    HW212142  12.070   8.869   5.823
 3435SOL     OW12143  12.439   3.873   5.072
 3435SOL    HW112144  12.499   3.945   5.095
 3435SOL    HW212145  12.395   3.852   5.154
 3436SOL     OW12146   6.628  11.342   8.256
 3436SOL    HW112147   6.689  11.325   8.184
 3436SOL    HW212148   6.562  11.272   8.248
 3437SOL     OW12149  13.340   8.481  10.544
 3437SOL    HW112150  13.418   8.537  10.544
 3437SOL    HW212151  13.342   8.437  10.629
 3438SOL     OW12152  10.629   8.451   8.284
 3438SOL    HW112153  10.686   8.374   8.278
 3438SOL    HW212154  10.541   8.416   8.271
 3439SOL     OW12155   3.182  13.625   4.005
 3439SOL    HW112156   3.231  13.563   4.059
 3439SOL    HW212157   3.248  13.688   3.975
 3440SOL     OW12158   1.604   8.362   0.093
 3440SOL    HW112159   1.648   8.425   0.151
 3440SOL    HW212160   1.662   8.286   0.092
 3441SOL     OW12161  13.620  13.369   6.594
 3441SOL    HW112162  13.636  13.343   6.503
 3441SOL    HW212163  13.618  13.286   6.642
 3442SOL     OW12164  14.557  12.218   9.417
 3442SOL    HW112165  14.646  12.204   9.384
 3442SOL    HW212166  14.561  12.187   9.508
 3443SOL     OW12167   0.514   6.229  12.896
 3443SOL    HW112168   0.561   6.262  12.819
 3443SOL    HW212169   0.467   6.152  12.864
 3444SOL     OW12170  10.889  11.115   3.476
 3444SOL    HW112171  10.880  11.021   3.495
 3444SOL    HW212172  10.890  11.120   3.381
 3445SOL     OW12173   8.821   3.711   1.456
 3445SOL    HW112174   8.891   3.690   1.394
 3445SOL    HW212175   8.862   3.703   1.542
 3446SOL     OW12176   1.495  13.433  10.302
 3446SOL    HW112177   1.507  13.499  10.371
 3446SOL    HW212178   1.568  13.372  10.315
 3447SOL     OW12179   9.875  10.857  10.938
 3447SOL    HW112180   9.789  10.819  10.924
 3447SOL    HW212181   9.887  10.856  11.033
 3448SOL     OW12182   8.079   5.708  10.816
 3448SOL    HW112183   8.125   5.630  10.785
 3448SOL    HW212184   8.090   5.772  10.745
 3449SOL     OW12185   2.690  13.447   0.944
 3449SOL    HW112186   2.670  13.530   0.900
 3449SOL    HW212187   2.782  13.431   0.924
 3450SOL     OW12188  11.253   5.246   8.829
 3450SOL    HW112189  11.225   5.241   8.738
 3450SOL    HW212190  11.316   5.318   8.831
 3451SOL     OW12191   5.316   6.950  13.124
 3451SOL    HW112192   5.285   7.004  13.197
 3451SOL    HW212193   5.369   6.882  13.165
 3452SOL     OW12194  11.942  10.061  10.964
 3452SOL    HW112195  11.883  10.089  10.894
 3452SOL    HW212196  11.904   9.980  10.997
 3453SOL     OW12197   2.784   0.114  11.778
 3453SOL    HW112198   2.765   0.069  11.860
 3453SOL    HW212199   2.811   0.045  11.718
 3454SOL     OW12200   5.495  12.039   8.675
 3454SOL    HW112201   5.472  12.018   8.766
 3454SOL    HW212202   5.522  12.131   8.679
 3455SOL     OW12203  13.182   4.222  11.785
 3455SOL    HW112204  13.162   4.129  11.790
 3455SOL    HW212205  13.243   4.237  11.857
 3456SOL     OW12206  13.944   5.433  10.809
 3456SOL    HW112207  13.935   5.356  10.865
 3456SOL    HW212208  14.036   5.459  10.817
 3457SOL     OW12209  10.035   3.994   3.859
 3457SOL    HW112210  10.070   3.970   3.773
 3457SOL    HW212211  10.030   3.911   3.907
 3458SOL     OW12212   6.696   1.664   2.517
 3458SOL    HW112213   6.771   1.635   2.465
 3458SOL    HW212214   6.674   1.590   2.573
 3459SOL     OW12215  13.602  10.096   9.895
 3459SOL    HW112216  13.554  10.139   9.824
 3459SOL    HW212217  13.533  10.066   9.955
 3460SOL     OW12218   6.862   3.892   3.899
 3460SOL    HW112219   6.903   3.977   3.917
 3460SOL    HW212220   6.920   3.851   3.835
 3461SOL     OW12221   9.512  14.749   6.415
 3461SOL    HW112222   9.479  14.706   6.336
 3461SOL    HW212223   9.521  14.679   6.479
 3462SOL     OW12224   0.899   4.840   2.238
 3462SOL    HW112225   0.975   4.785   2.218
 3462SOL    HW212226   0.933   4.907   2.297
 3463SOL     OW12227   6.235   6.737   7.982
 3463SOL    HW112228   6.234   6.689   8.065
 3463SOL    HW212229   6.326   6.765   7.972
 3464SOL     OW12230   6.977  14.871   9.394
 3464SOL    HW112231   7.027  14.831   9.465
 3464SOL    HW212232   6.951  14.798   9.339
 3465SOL     OW12233   6.474   1.266   3.639
 3465SOL    HW112234   6.398   1.279   3.696
 3465SOL    HW212235   6.439   1.218   3.563
 3466SOL     OW12236  10.477   2.866  13.433
 3466SOL    HW112237  10.422   2.855  13.356
 3466SOL    HW212238  10.445   2.946  13.474
 3467SOL     OW12239   0.185   1.222  10.859
 3467SOL    HW112240   0.267   1.193  10.819
 3467SOL    HW212241   0.120   1.211  10.790
 3468SOL     OW12242   4.633   5.225  14.028
 3468SOL    HW112243   4.647   5.320  14.034
 3468SOL    HW212244   4.572   5.215  13.955
 3469SOL     OW12245   9.981  14.158  13.375
 3469SOL    HW112246   9.995  14.065  13.395
 3469SOL    HW212247  10.062  14.186  13.332
 3470SOL     OW12248   1.499  11.282   8.059
 3470SOL    HW112249   1.443  11.297   7.983
 3470SOL    HW212250   1.509  11.187   8.064
 3471SOL     OW12251   9.302   6.047   1.486
 3471SOL    HW112252   9.378   6.092   1.524
 3471SOL    HW212253   9.265   5.998   1.559
 3472SOL     OW12254   4.941   7.455   2.573
 3472SOL    HW112255   4.920   7.413   2.489
 3472SOL    HW212256   5.035   7.472   2.568
 3473SOL     OW12257  11.281   0.162   6.912
 3473SOL    HW112258  11.239   0.086   6.872
 3473SOL    HW212259  11.238   0.171   6.997
 3474SOL     OW12260  14.290  10.294  11.061
 3474SOL    HW112261  14.358  10.258  11.118
 3474SOL    HW212262  14.209  10.254  11.092
 3475SOL     OW12263  11.128   4.577   7.378
 3475SOL    HW112264  11.191   4.509   7.398
 3475SOL    HW212265  11.083   4.546   7.299
 3476SOL     OW12266  12.212   5.578   1.259
 3476SOL    HW112267  12.184   5.670   1.265
 3476SOL    HW212268  12.206   5.557   1.166
 3477SOL     OW12269   3.610   2.152   0.450
 3477SOL    HW112270   3.659   2.077   0.415
 3477SOL    HW212271   3.591   2.127   0.541
 3478SOL     OW12272   7.994  14.016   5.062
 3478SOL    HW112273   8.084  13.995   5.084
 3478SOL    HW212274   7.942  13.951   5.109
 3479SOL     OW12275  12.168   1.693   3.442
 3479SOL    HW112276  12.242   1.678   3.383
 3479SOL    HW212277  12.157   1.788   3.443
 3480SOL     OW12278   1.657  11.554   1.802
 3480SOL    HW112279   1.674  11.493   1.874
 3480SOL    HW212280   1.738  11.555   1.751
 3481SOL     OW12281   5.529   2.839   7.140
 3481SOL    HW112282   5.506   2.809   7.228
 3481SOL    HW212283   5.624   2.841   7.139
 3482SOL     OW12284   5.669  13.599   5.340
 3482SOL    HW112285   5.577  13.596   5.368
 3482SOL    HW212286   5.686  13.510   5.307
 3483SOL     OW12287   4.030  12.687   3.950
 3483SOL    HW112288   4.059  12.751   4.015
 3483SOL    HW212289   4.111  12.646   3.919
 3484SOL     OW12290   3.231  13.135  11.642
 3484SOL    HW112291   3.205  13.215  11.597
 3484SOL    HW212292   3.313  13.109  11.600
 3485SOL     OW12293   3.358  11.797   4.284
 3485SOL    HW112294   3.311  11.808   4.367
 3485SOL    HW212295   3.288  11.790   4.218
 3486SOL     OW12296   3.816   0.599   0.790
 3486SOL    HW112297   3.845   0.629   0.876
 3486SOL    HW212298   3.788   0.509   0.804
 3487SOL     OW12299   8.545   4.030   2.311
 3487SOL    HW112300   8.479   3.964   2.331
 3487SOL    HW212301   8.545   4.035   2.215
 3488SOL     OW12302   1.217   7.927  12.682
 3488SOL    HW112303   1.285   7.939  12.748
 3488SOL    HW212304   1.249   7.974  12.606
 3489SOL     OW12305  12.279   6.663  11.733
 3489SOL    HW112306  12.255   6.642  11.643
 3489SOL    HW212307  12.363   6.620  11.746
 3490SOL     OW12308  11.835   0.536   8.343
 3490SOL    HW112309  11.786   0.532   8.425
 3490SOL    HW212310  11.908   0.475   8.356
 3491SOL     OW12311  14.171   1.155  12.082
 3491SOL    HW112312  14.163   1.113  12.168
 3491SOL    HW212313  14.187   1.082  12.022
 3492SOL     OW12314   5.152   7.930  12.162
 3492SOL    HW112315   5.171   7.876  12.239
 3492SOL    HW212316   5.194   7.884  12.090
 3493SOL     OW12317  14.266   4.340  14.834
 3493SOL    HW112318  14.270   4.279   0.029
 3493SOL    HW212319  14.173   4.349  14.815
 3494SOL     OW12320   4.193   1.358   8.604
 3494SOL    HW112321   4.285   1.383   8.595
 3494SOL    HW212322   4.167   1.331   8.515
 3495SOL     OW12323   2.161  12.060   8.388
 3495SOL    HW112324   2.089  12.031   8.444
 3495SOL    HW212325   2.145  12.153   8.374
 3496SOL     OW12326   7.912  13.522   8.723
 3496SOL    HW112327   7.995  13.476   8.714
 3496SOL    HW212328   7.887  13.544   8.633
 3497SOL     OW12329   4.035  11.980   3.248
 3497SOL    HW112330   4.064  11.920   3.180
 3497SOL    HW212331   3.944  11.956   3.265
 3498SOL     OW12332  12.510   0.140   2.555
 3498SOL    HW112333  12.505   0.065   2.614
 3498SOL    HW212334  12.419   0.160   2.532
 3499SOL     OW12335  13.287  14.112   3.925
 3499SOL    HW112336  13.376  14.109   3.960
 3499SOL    HW212337  13.288  14.052   3.851
 3500SOL     OW12338   9.191   9.308   4.562
 3500SOL    HW112339   9.189   9.231   4.505
 3500SOL    HW212340   9.101   9.340   4.564
 3501SOL     OW12341   2.721   2.389   4.260
 3501SOL    HW112342   2.785   2.363   4.326
 3501SOL    HW212343   2.746   2.340   4.182
 3502SOL     OW12344  12.705  11.730  12.498
 3502SOL    HW112345  12.731  11.822  12.507
 3502SOL    HW212346  12.687  11.702  12.588
 3503SOL     OW12347   6.558   4.909   9.352
 3503SOL    HW112348   6.592   4.910   9.441
 3503SOL    HW212349   6.600   4.984   9.309
 3504SOL     OW12350   2.231   6.348   8.336
 3504SOL    HW112351   2.197   6.410   8.272
 3504SOL    HW212352   2.218   6.390   8.421
 3505SOL     OW12353  12.929   3.282   1.428
 3505SOL    HW112354  12.911   3.301   1.336
 3505SOL    HW212355  12.851   3.235   1.459
 3506SOL     OW12356   9.401   3.306   3.627
 3506SOL    HW112357   9.462   3.251   3.577
 3506SOL    HW212358   9.375   3.252   3.701
 3507SOL     OW12359  11.267  11.907   2.097
 3507SOL    HW112360  11.196  11.866   2.048
 3507SOL    HW212361  11.311  11.835   2.141
 3508SOL     OW12362   4.020   1.325   5.508
 3508SOL    HW112363   4.019   1.265   5.582
 3508SOL    HW212364   3.969   1.400   5.537
 3509SOL     OW12365   0.034   5.534  12.072
 3509SOL    HW112366  14.855   5.610  12.062
 3509SOL    HW212367   0.076   5.547  12.157
 3510SOL     OW12368   5.738  10.169  10.326
 3510SOL    HW112369   5.728  10.264  10.323
 3510SOL    HW212370   5.714  10.139  10.239
 3511SOL     OW12371  11.525  12.354   4.772
 3511SOL    HW112372  11.486  12.270   4.748
 3511SOL    HW212373  11.463  12.419   4.740
 3512SOL     OW12374   4.483  10.385  13.701
 3512SOL    HW112375   4.522  10.298  13.712
 3512SOL    HW212376   4.494  10.428  13.786
 3513SOL     OW12377   2.103   9.225   2.930
 3513SOL    HW112378   2.074   9.255   3.017
 3513SOL    HW212379   2.022   9.210   2.882
 3514SOL     OW12380   5.218  14.791   4.975
 3514SOL    HW112381   5.269  14.798   4.895
 3514SOL    HW212382   5.236  14.702   5.008
 3515SOL     OW12383   6.484  10.608   2.929
 3515SOL    HW112384   6.395  10.576   2.911
 3515SOL    HW212385   6.490  10.689   2.879
 3516SOL     OW12386   6.293   6.305   2.209
 3516SOL    HW112387   6.373   6.254   2.216
 3516SOL    HW212388   6.315   6.390   2.248
 3517SOL     OW12389  14.473   8.333   1.503
 3517SOL    HW112390  14.567   8.314   1.511
 3517SOL    HW212391  14.431   8.248   1.517
 3518SOL     OW12392  11.972  12.873   1.066
 3518SOL    HW112393  11.981  12.937   0.996
 3518SOL    HW212394  11.892  12.825   1.045
 3519SOL     OW12395   6.120   1.383   3.948
 3519SOL    HW112396   6.044   1.406   3.895
 3519SOL    HW212397   6.179   1.458   3.941
 3520SOL     OW12398   5.012  10.317   0.613
 3520SOL    HW112399   4.997  10.410   0.628
 3520SOL    HW212400   5.099  10.301   0.652
 3521SOL     OW12401  13.838  11.224   6.776
 3521SOL    HW112402  13.764  11.282   6.793
 3521SOL    HW212403  13.909  11.282   6.750
 3522SOL     OW12404   2.545   4.531   9.104
 3522SOL    HW112405   2.514   4.617   9.075
 3522SOL    HW212406   2.582   4.492   9.025
 3523SOL     OW12407   5.457  10.965   1.096
 3523SOL    HW112408   5.543  10.952   1.056
 3523SOL    HW212409   5.474  11.024   1.170
 3524SOL     OW12410  11.633   9.867   5.898
 3524SOL    HW112411  11.675   9.927   5.837
 3524SOL    HW212412  11.680   9.785   5.889
 3525SOL     OW12413   9.824  10.570   1.220
 3525SOL    HW112414   9.845  10.573   1.127
 3525SOL    HW212415   9.739  10.612   1.227
 3526SOL     OW12416   4.023  13.975   8.594
 3526SOL    HW112417   3.952  13.919   8.627
 3526SOL    HW212418   4.056  14.020   8.672
 3527SOL     OW12419  11.168   2.878  11.468
 3527SOL    HW112420  11.263   2.881  11.477
 3527SOL    HW212421  11.153   2.828  11.388
 3528SOL     OW12422   4.560  10.779  14.056
 3528SOL    HW112423   4.571  10.814  14.144
 3528SOL    HW212424   4.588  10.850  13.998
 3529SOL     OW12425  13.841  11.762   6.980
 3529SOL    HW112426  13.841  11.793   7.071
 3529SOL    HW212427  13.913  11.699   6.977
 3530SOL     OW12428   1.922   8.635   4.548
 3530SOL    HW112429   1.946   8.722   4.515
 3530SOL    HW212430   2.000   8.582   4.537
 3531SOL     OW12431  12.760  12.994   9.225
 3531SOL    HW112432  12.669  13.002   9.196
 3531SOL    HW212433  12.777  13.076   9.272
 3532SOL     OW12434   4.513   0.583  10.544
 3532SOL    HW112435   4.497   0.648  10.476
 3532SOL    HW212436   4.605   0.559  10.534
 3533SOL     OW12437   3.345   2.222  14.706
 3533SOL    HW112438   3.328   2.182  14.792
 3533SOL    HW212439   3.271   2.195  14.652
 3534SOL     OW12440   5.950   4.455  10.389
 3534SOL    HW112441   5.996   4.372  10.374
 3534SOL    HW212442   5.859   4.429  10.405
 3535SOL     OW12443   1.196   5.822   7.255
 3535SOL    HW112444   1.111   5.788   7.282
 3535SOL    HW212445   1.260   5.762   7.293
 3536SOL     OW12446   9.176   3.930  13.289
 3536SOL    HW112447   9.267   3.909  13.266
 3536SOL    HW212448   9.134   3.947  13.204
 3537SOL     OW12449   3.854  13.966   0.001
 3537SOL    HW112450   3.797  14.020  14.827
 3537SOL    HW212451   3.929  13.947  14.824
 3538SOL     OW12452  11.803   2.168   2.693
 3538SOL    HW112453  11.774   2.154   2.603
 3538SOL    HW212454  11.750   2.242   2.724
 3539SOL     OW12455   8.670   5.009   1.865
 3539SOL    HW112456   8.723   5.036   1.941
 3539SOL    HW212457   8.718   5.044   1.790
 3540SOL     OW12458  10.354   5.596  14.544
 3540SOL    HW112459  10.307   5.625  14.622
 3540SOL    HW212460  10.447   5.606  14.567
 3541SOL     OW12461   6.077   2.198   2.894
 3541SOL    HW112462   6.063   2.292   2.903
 3541SOL    HW212463   6.163   2.183   2.933
 3542SOL     OW12464   3.862   6.250   0.722
 3542SOL    HW112465   3.809   6.247   0.642
 3542SOL    HW212466   3.819   6.188   0.781
 3543SOL     OW12467   5.437   0.778   2.934
 3543SOL    HW112468   5.371   0.730   2.985
 3543SOL    HW212469   5.407   0.771   2.844
 3544SOL     OW12470   2.857   3.260   9.519
 3544SOL    HW112471   2.921   3.212   9.572
 3544SOL    HW212472   2.891   3.349   9.516
 3545SOL     OW12473  11.127   4.315   6.301
 3545SOL    HW112474  11.184   4.259   6.354
 3545SOL    HW212475  11.186   4.371   6.251
 3546SOL     OW12476   7.966   1.209  11.011
 3546SOL    HW112477   7.915   1.246  11.082
 3546SOL    HW212478   8.046   1.262  11.009
 3547SOL     OW12479   3.438   8.824   9.871
 3547SOL    HW112480   3.461   8.795   9.959
 3547SOL    HW212481   3.459   8.749   9.815
 3548SOL     OW12482  14.876   9.082   9.437
 3548SOL    HW112483   0.024   9.148   9.500
 3548SOL    HW212484   0.076   9.030   9.420
 3549SOL     OW12485   2.046   1.908   1.686
 3549SOL    HW112486   2.051   1.857   1.606
 3549SOL    HW212487   2.089   1.854   1.752
 3550SOL     OW12488   7.539   5.690   4.459
 3550SOL    HW112489   7.592   5.769   4.450
 3550SOL    HW212490   7.578   5.629   4.396
 3551SOL     OW12491   5.491   0.528  10.355
 3551SOL    HW112492   5.545   0.605  10.372
 3551SOL    HW212493   5.431   0.523  10.429
 3552SOL     OW12494   4.215   6.896   6.575
 3552SOL    HW112495   4.233   6.950   6.498
 3552SOL    HW212496   4.301   6.878   6.612
 3553SOL     OW12497   0.855   1.659   3.717
 3553SOL    HW112498   0.862   1.724   3.648
 3553SOL    HW212499   0.904   1.584   3.684
 3554SOL     OW12500   5.776   5.408   3.968
 3554SOL    HW112501   5.742   5.338   4.025
 3554SOL    HW212502   5.717   5.482   3.984
 3555SOL     OW12503  11.582   0.566   8.854
 3555SOL    HW112504  11.620   0.483   8.881
 3555SOL    HW212505  11.651   0.630   8.871
 3556SOL     OW12506   3.654   1.688  10.920
 3556SOL    HW112507   3.606   1.635  10.856
 3556SOL    HW212508   3.736   1.640  10.934
 3557SOL     OW12509   2.089   4.634   1.752
 3557SOL    HW112510   2.169   4.682   1.773
 3557SOL    HW212511   2.098   4.611   1.660
 3558SOL     OW12512   7.089   4.695   2.083
 3558SOL    HW112513   7.175   4.687   2.041
 3558SOL    HW212514   7.105   4.670   2.174
 3559SOL     OW12515   0.619  11.320  12.094
 3559SOL    HW112516   0.544  11.331  12.152
 3559SOL    HW212517   0.627  11.404  12.049
 3560SOL     OW12518   4.711   9.508   4.128
 3560SOL    HW112519   4.683   9.483   4.216
 3560SOL    HW212520   4.665   9.448   4.069
 3561SOL     OW12521   5.452  14.205   2.419
 3561SOL    HW112522   5.519  14.273   2.425
 3561SOL    HW212523   5.379  14.246   2.373
 3562SOL     OW12524  13.434   5.543   4.809
 3562SOL    HW112525  13.339   5.552   4.813
 3562SOL    HW212526  13.449   5.470   4.749
 3563SOL     OW12527  11.548  10.968   6.647
 3563SOL    HW112528  11.608  10.923   6.588
 3563SOL    HW212529  11.604  11.002   6.717
 3564SOL     OW12530   5.176   4.488   2.052
 3564SOL    HW112531   5.216   4.558   2.001
 3564SOL    HW212532   5.225   4.487   2.135
 3565SOL     OW12533   9.484   8.856   6.355
 3565SOL    HW112534   9.533   8.917   6.299
 3565SOL    HW212535   9.451   8.910   6.427
 3566SOL     OW12536  11.525   0.561   7.304
 3566SOL    HW112537  11.569   0.646   7.292
 3566SOL    HW212538  11.528   0.521   7.217
 3567SOL     OW12539   4.360   6.170   7.636
 3567SOL    HW112540   4.324   6.091   7.677
 3567SOL    HW212541   4.288   6.202   7.581
 3568SOL     OW12542   3.316  12.649   2.644
 3568SOL    HW112543   3.366  12.656   2.563
 3568SOL    HW212544   3.368  12.697   2.709
 3569SOL     OW12545   7.037   6.982  13.649
 3569SOL    HW112546   7.093   7.052  13.614
 3569SOL    HW212547   7.085   6.948  13.724
 3570SOL     OW12548  11.636  14.506   6.065
 3570SOL    HW112549  11.565  14.565   6.038
 3570SOL    HW212550  11.606  14.469   6.148
 3571SOL     OW12551   3.655   2.244   8.550
 3571SOL    HW112552   3.685   2.248   8.640
 3571SOL    HW212553   3.677   2.330   8.513
 3572SOL     OW12554   2.965  10.678   1.697
 3572SOL    HW112555   2.948  10.751   1.756
 3572SOL    HW212556   2.929  10.602   1.742
 3573SOL     OW12557  11.945   3.102  14.700
 3573SOL    HW112558  11.925   3.178  14.645
 3573SOL    HW212559  11.982   3.038  14.640
 3574SOL     OW12560  12.242  13.831   3.491
 3574SOL    HW112561  12.201  13.917   3.484
 3574SOL    HW212562  12.279  13.829   3.580
 3575SOL     OW12563   0.987  13.289  10.704
 3575SOL    HW112564   0.969  13.250  10.789
 3575SOL    HW212565   1.069  13.337  10.717
 3576SOL     OW12566  12.388   0.340   2.742
 3576SOL    HW112567  12.455   0.301   2.798
 3576SOL    HW212568  12.314   0.280   2.748
 3577SOL     OW12569   7.806   4.584  10.945
 3577SOL    HW112570   7.753   4.585  11.025
 3577SOL    HW212571   7.780   4.504  10.900
 3578SOL     OW12572   4.775   6.958   8.719
 3578SOL    HW112573   4.805   7.046   8.742
 3578SOL    HW212574   4.834   6.899   8.766
 3579SOL     OW12575   7.101  14.682   0.458
 3579SOL    HW112576   7.094  14.608   0.398
 3579SOL    HW212577   7.068  14.757   0.408
 3580SOL     OW12578   1.335   7.496   9.405
 3580SOL    HW112579   1.383   7.561   9.354
 3580SOL    HW212580   1.400   7.428   9.423
 3581SOL     OW12581  10.412  11.972  12.843
 3581SOL    HW112582  10.363  11.952  12.923
 3581SOL    HW212583  10.454  12.056  12.861
 3582SOL     OW12584   1.378   7.762  12.899
 3582SOL    HW112585   1.326   7.751  12.979
 3582SOL    HW212586   1.410   7.852  12.904
 3583SOL     OW12587   6.933   4.328   0.269
 3583SOL    HW112588   6.957   4.244   0.228
 3583SOL    HW212589   6.878   4.371   0.205
 3584SOL     OW12590   2.727  11.993  11.269
 3584SOL    HW112591   2.687  12.080  11.265
 3584SOL    HW212592   2.657  11.934  11.243
 3585SOL     OW12593   2.900   8.180  11.173
 3585SOL    HW112594   2.887   8.139  11.088
 3585SOL    HW212595   2.967   8.247  11.158
 3586SOL     OW12596  10.656  10.730   7.593
 3586SOL    HW112597  10.727  10.697   7.648
 3586SOL    HW212598  10.576  10.706   7.639
 3587SOL     OW12599   4.333   1.811  11.217
 3587SOL    HW112600   4.416   1.857  11.229
 3587SOL    HW212601   4.355   1.719  11.222
 3588SOL     OW12602   8.892  10.334  12.219
 3588SOL    HW112603   8.911  10.312  12.127
 3588SOL    HW212604   8.801  10.309  12.231
 3589SOL     OW12605  10.139   1.388  12.420
 3589SOL    HW112606  10.103   1.347  12.341
 3589SOL    HW212607  10.065   1.390  12.482
 3590SOL     OW12608   1.379  13.923   3.246
 3590SOL    HW112609   1.417  13.856   3.303
 3590SOL    HW212610   1.286  13.904   3.245
 3591SOL     OW12611  10.249   6.849   4.562
 3591SOL    HW112612  10.227   6.756   4.560
 3591SOL    HW212613  10.172   6.891   4.600
 3592SOL     OW12614   3.083   0.731  11.590
 3592SOL    HW112615   3.172   0.705  11.565
 3592SOL    HW212616   3.036   0.649  11.603
 3593SOL     OW12617  12.137  10.347   9.895
 3593SOL    HW112618  12.071  10.333   9.827
 3593SOL    HW212619  12.161  10.439   9.887
 3594SOL     OW12620   4.035  11.566  10.180
 3594SOL    HW112621   4.085  11.529  10.252
 3594SOL    HW212622   4.003  11.490  10.130
 3595SOL     OW12623   5.968   9.164  13.774
 3595SOL    HW112624   5.956   9.070  13.788
 3595SOL    HW212625   6.047   9.170  13.721
 3596SOL     OW12626   8.992   5.682  10.410
 3596SOL    HW112627   8.941   5.757  10.438
 3596SOL    HW212628   9.000   5.692  10.315
 3597SOL     OW12629   5.993  13.740   6.404
 3597SOL    HW112630   6.048  13.729   6.482
 3597SOL    HW212631   5.904  13.740   6.439
 3598SOL     OW12632  10.992  11.793   5.431
 3598SOL    HW112633  11.068  11.771   5.485
 3598SOL    HW212634  11.013  11.877   5.391
 3599SOL     OW12635  10.570   3.136   7.833
 3599SOL    HW112636  10.652   3.185   7.840
 3599SOL    HW212637  10.521   3.180   7.764
 3600SOL     OW12638   0.330   2.940   1.392
 3600SOL    HW112639   0.271   2.878   1.436
 3600SOL    HW212640   0.272   2.997   1.342
 3601SOL     OW12641   3.793   8.708  11.072
 3601SOL    HW112642   3.728   8.652  11.114
 3601SOL    HW212643   3.868   8.652  11.056
 3602SOL     OW12644   3.496   1.912   5.626
 3602SOL    HW112645   3.535   1.994   5.658
 3602SOL    HW212646   3.448   1.938   5.548
 3603SOL     OW12647  10.923   8.444   7.966
 3603SOL    HW112648  10.975   8.365   7.951
 3603SOL    HW212649  10.847   8.434   7.909
 3604SOL     OW12650   9.493   7.434   8.065
 3604SOL    HW112651   9.410   7.426   8.112
 3604SOL    HW212652   9.540   7.353   8.085
 3605SOL     OW12653   6.995   5.767   2.860
 3605SOL    HW112654   6.945   5.687   2.843
 3605SOL    HW212655   6.982   5.784   2.953
 3606SOL     OW12656   1.252   6.990   1.767
 3606SOL    HW112657   1.254   6.944   1.684
 3606SOL    HW212658   1.165   7.031   1.769
 3607SOL     OW12659   6.419   0.263  12.195
 3607SOL    HW112660   6.383   0.186  12.238
 3607SOL    HW212661   6.427   0.329  12.264
 3608SOL     OW12662   7.890   2.355   0.026
 3608SOL    HW112663   7.877   2.447   0.051
 3608SOL    HW212664   7.974   2.332   0.065
 3609SOL     OW12665   0.582   4.206   6.370
 3609SOL    HW112666   0.647   4.136   6.359
 3609SOL    HW212667   0.618   4.281   6.322
 3610SOL     OW12668  12.241  11.494   1.193
 3610SOL    HW112669  12.156  11.464   1.163
 3610SOL    HW212670  12.300  11.478   1.120
 3611SOL     OW12671   7.348   2.151   8.368
 3611SOL    HW112672   7.283   2.217   8.344
 3611SOL    HW212673   7.380   2.117   8.284
 3612SOL     OW12674   8.958   8.511  14.533
 3612SOL    HW112675   8.911   8.574  14.589
 3612SOL    HW212676   9.011   8.460  14.594
 3613SOL     OW12677   7.672  10.324   7.278
 3613SOL    HW112678   7.644  10.294   7.191
 3613SOL    HW212679   7.595  10.311   7.333
 3614SOL     OW12680   6.317   9.446  12.167
 3614SOL    HW112681   6.239   9.470  12.217
 3614SOL    HW212682   6.352   9.530  12.137
 3615SOL     OW12683   5.792   2.512   1.076
 3615SOL    HW112684   5.706   2.530   1.114
 3615SOL    HW212685   5.800   2.575   1.004
 3616SOL     OW12686   5.274   0.374   2.426
 3616SOL    HW112687   5.353   0.320   2.420
 3616SOL    HW212688   5.296   0.455   2.379
 3617SOL     OW12689   0.913  11.758   7.214
 3617SOL    HW112690   0.924  11.687   7.151
 3617SOL    HW212691   0.996  11.805   7.212
 3618SOL     OW12692   5.846   8.512   5.899
 3618SOL    HW112693   5.875   8.425   5.870
 3618SOL    HW212694   5.900   8.573   5.850
 3619SOL     OW12695   4.731   8.994  12.526
 3619SOL    HW112696   4.675   8.988  12.603
 3619SOL    HW212697   4.733   8.905  12.491
 3620SOL     OW12698   4.420   9.231   5.231
 3620SOL    HW112699   4.339   9.179   5.237
 3620SOL    HW212700   4.471   9.188   5.162
 3621SOL     OW12701   7.800  12.817  10.411
 3621SOL    HW112702   7.884  12.858  10.432
 3621SOL    HW212703   7.758  12.879  10.351
 3622SOL     OW12704   7.071   0.287   8.975
 3622SOL    HW112705   7.076   0.207   9.027
 3622SOL    HW212706   7.002   0.269   8.911
 3623SOL     OW12707   3.918   8.375   3.088
 3623SOL    HW112708   3.850   8.431   3.125
 3623SOL    HW212709   3.963   8.431   3.025
 3624SOL     OW12710   5.576   5.914   4.675
 3624SOL    HW112711   5.635   5.940   4.746
 3624SOL    HW212712   5.543   5.828   4.702
 3625SOL     OW12713   2.349   5.654   5.789
 3625SOL    HW112714   2.295   5.577   5.772
 3625SOL    HW212715   2.304   5.700   5.859
 3626SOL     OW12716   6.435   2.036   1.299
 3626SOL    HW112717   6.408   2.060   1.211
 3626SOL    HW212718   6.360   1.988   1.335
 3627SOL     OW12719   9.304   0.140   2.121
 3627SOL    HW112720   9.319   0.135   2.027
 3627SOL    HW212721   9.381   0.187   2.155
 3628SOL     OW12722   1.989   5.577  11.535
 3628SOL    HW112723   1.922   5.643  11.548
 3628SOL    HW212724   2.034   5.571  11.619
 3629SOL     OW12725   2.248  14.791   0.966
 3629SOL    HW112726   2.163  14.828   0.942
 3629SOL    HW212727   2.282  14.850   1.034
 3630SOL     OW12728   7.940   3.304   1.226
 3630SOL    HW112729   7.935   3.381   1.169
 3630SOL    HW212730   8.032   3.279   1.225
 3631SOL     OW12731   1.667   0.058   6.520
 3631SOL    HW112732   1.693   0.072   6.429
 3631SOL    HW212733   1.614   0.135   6.542
 3632SOL     OW12734   4.130   3.148   7.265
 3632SOL    HW112735   4.117   3.054   7.256
 3632SOL    HW212736   4.080   3.186   7.192
 3633SOL     OW12737   7.992   9.474   9.723
 3633SOL    HW112738   8.049   9.461   9.799
 3633SOL    HW212739   7.913   9.513   9.759
 3634SOL     OW12740  10.002  11.474   0.640
 3634SOL    HW112741  10.024  11.540   0.705
 3634SOL    HW212742  10.083  11.459   0.592
 3635SOL     OW12743   1.670  11.335   3.267
 3635SOL    HW112744   1.669  11.380   3.182
 3635SOL    HW212745   1.724  11.258   3.252
 3636SOL     OW12746   0.135   2.723   5.291
 3636SOL    HW112747   0.096   2.653   5.343
 3636SOL    HW212748   0.225   2.695   5.276
 3637SOL     OW12749   6.420   0.148   9.704
 3637SOL    HW112750   6.477   0.096   9.761
 3637SOL    HW212751   6.343   0.092   9.689
 3638SOL     OW12752   9.705  14.605   5.921
 3638SOL    HW112753   9.713  14.571   6.010
 3638SOL    HW212754   9.668  14.532   5.871
 3639SOL     OW12755   4.210   4.404  10.198
 3639SOL    HW112756   4.248   4.491  10.214
 3639SOL    HW212757   4.130   4.403  10.250
 3640SOL     OW12758   5.757   0.134   8.903
 3640SOL    HW112759   5.799   0.049   8.893
 3640SOL    HW212760   5.699   0.142   8.827
 3641SOL     OW12761   6.496   3.013   9.124
 3641SOL    HW112762   6.575   2.960   9.133
 3641SOL    HW212763   6.527   3.103   9.117
 3642SOL     OW12764  12.531  14.306   4.271
 3642SOL    HW112765  12.549  14.244   4.200
 3642SOL    HW212766  12.537  14.392   4.231
 3643SOL     OW12767  11.801   2.771  11.037
 3643SOL    HW112768  11.743   2.757  10.962
 3643SOL    HW212769  11.808   2.684  11.078
 3644SOL     OW12770   1.130   0.424   3.904
 3644SOL    HW112771   1.188   0.375   3.846
 3644SOL    HW212772   1.189   0.461   3.971
 3645SOL     OW12773   9.218  13.089   1.914
 3645SOL    HW112774   9.276  13.070   1.988
 3645SOL    HW212775   9.176  13.172   1.938
 3646SOL     OW12776   7.612  10.020   4.901
 3646SOL    HW112777   7.680  10.036   4.836
 3646SOL    HW212778   7.660   9.998   4.981
 3647SOL     OW12779  10.831   6.614   7.441
 3647SOL    HW112780  10.828   6.709   7.454
 3647SOL    HW212781  10.864   6.604   7.351
 3648SOL     OW12782   4.941   9.422  12.082
 3648SOL    HW112783   4.912   9.363  12.012
 3648SOL    HW212784   5.036   9.420  12.077
 3649SOL     OW12785   6.624   4.336  12.576
 3649SOL    HW112786   6.550   4.339  12.515
 3649SOL    HW212787   6.659   4.425  12.577
 3650SOL     OW12788  13.358  10.690   0.200
 3650SOL    HW112789  13.316  10.759   0.149
 3650SOL    HW212790  13.437  10.730   0.236
 3651SOL     OW12791   5.547   0.471  14.250
 3651SOL    HW112792   5.465   0.484  14.297
 3651SOL    HW212793   5.528   0.402  14.186
 3652SOL     OW12794   9.760  13.532   8.585
 3652SOL    HW112795   9.679  13.494   8.619
 3652SOL    HW212796   9.793  13.468   8.522
 3653SOL     OW12797   2.671   6.342  12.959
 3653SOL    HW112798   2.668   6.341  12.864
 3653SOL    HW212799   2.704   6.429  12.981
 3654SOL     OW12800   4.159  13.506  12.226
 3654SOL    HW112801   4.250  13.492  12.201
 3654SOL    HW212802   4.150  13.601  12.229
 3655SOL     OW12803  12.145   7.161   8.028
 3655SOL    HW112804  12.080   7.190   8.093
 3655SOL    HW212805  12.102   7.176   7.944
 3656SOL     OW12806   0.716   5.975   8.812
 3656SOL    HW112807   0.802   5.941   8.838
 3656SOL    HW212808   0.703   6.052   8.867
 3657SOL     OW12809   2.817  12.720   2.215
 3657SOL    HW112810   2.846  12.765   2.294
 3657SOL    HW212811   2.886  12.738   2.150
 3658SOL     OW12812   4.003  11.969   0.379
 3658SOL    HW112813   3.985  12.015   0.461
 3658SOL    HW212814   3.971  12.027   0.310
 3659SOL     OW12815   2.478  14.650   8.494
 3659SOL    HW112816   2.427  14.649   8.413
 3659SOL    HW212817   2.482  14.558   8.520
 3660SOL     OW12818  14.253   0.484   0.311
 3660SOL    HW112819  14.180   0.512   0.366
 3660SOL    HW212820  14.309   0.433   0.370
 3661SOL     OW12821   4.668   3.188   4.396
 3661SOL    HW112822   4.659   3.194   4.301
 3661SOL    HW212823   4.651   3.277   4.428
 3662SOL     OW12824   1.042  12.695   3.825
 3662SOL    HW112825   1.012  12.756   3.892
 3662SOL    HW212826   1.137  12.708   3.821
 3663SOL     OW12827   9.501   2.678   5.788
 3663SOL    HW112828   9.545   2.763   5.792
 3663SOL    HW212829   9.572   2.615   5.785
 3664SOL     OW12830   3.734   6.845   7.029
 3664SOL    HW112831   3.801   6.876   6.968
 3664SOL    HW212832   3.784   6.802   7.099
 3665SOL     OW12833   2.268   7.209   2.662
 3665SOL    HW112834   2.195   7.236   2.607
 3665SOL    HW212835   2.258   7.261   2.742
 3666SOL     OW12836  10.488   1.005  11.458
 3666SOL    HW112837  10.473   1.074  11.522
 3666SOL    HW212838  10.531   0.935  11.507
 3667SOL     OW12839  12.281   9.091   7.890
 3667SOL    HW112840  12.272   9.142   7.809
 3667SOL    HW212841  12.372   9.103   7.916
 3668SOL     OW12842  10.019   4.931   6.044
 3668SOL    HW112843   9.949   4.906   6.104
 3668SOL    HW212844  10.042   4.849   5.999
 3669SOL     OW12845   2.053  14.804   5.509
 3669SOL    HW112846   2.004   0.006   5.523
 3669SOL    HW212847   2.031  14.750   5.585
 3670SOL     OW12848   6.239  13.663   9.480
 3670SOL    HW112849   6.307  13.615   9.527
 3670SOL    HW212850   6.227  13.614   9.399
 3671SOL     OW12851   7.760   8.907   0.132
 3671SOL    HW112852   7.761   8.819   0.172
 3671SOL    HW212853   7.709   8.960   0.194
 3672SOL     OW12854   9.879   4.045   3.214
 3672SOL    HW112855   9.786   4.059   3.235
 3672SOL    HW212856   9.920   4.034   3.300
 3673SOL     OW12857  11.439   7.221   3.453
 3673SOL    HW112858  11.373   7.218   3.384
 3673SOL    HW212859  11.468   7.130   3.462
 3674SOL     OW12860   7.524   3.939  14.417
 3674SOL    HW112861   7.563   3.935  14.330
 3674SOL    HW212862   7.470   4.018  14.416
 3675SOL     OW12863  14.212   5.260   2.300
 3675SOL    HW112864  14.295   5.212   2.301
 3675SOL    HW212865  14.163   5.227   2.375
 3676SOL     OW12866   8.453   9.965   4.005
 3676SOL    HW112867   8.536  10.010   3.986
 3676SOL    HW212868   8.471   9.914   4.083
 3677SOL     OW12869  14.334   4.378   2.102
 3677SOL    HW112870  14.371   4.442   2.042
 3677SOL    HW212871  14.242   4.371   2.078
 3678SOL     OW12872  13.426   5.974   4.583
 3678SOL    HW112873  13.459   5.989   4.494
 3678SOL    HW212874  13.398   5.882   4.583
 3679SOL     OW12875   8.432   9.628   8.411
 3679SOL    HW112876   8.344   9.609   8.445
 3679SOL    HW212877   8.469   9.688   8.476
 3680SOL     OW12878  14.542  13.697   5.791
 3680SOL    HW112879  14.464  13.732   5.834
 3680SOL    HW212880  14.522  13.699   5.698
 3681SOL     OW12881   5.327  11.612   5.506
 3681SOL    HW112882   5.404  11.571   5.469
 3681SOL    HW212883   5.297  11.674   5.439
 3682SOL     OW12884   1.868  12.532   6.942
 3682SOL    HW112885   1.815  12.460   6.908
 3682SOL    HW212886   1.903  12.575   6.864
 3683SOL     OW12887   3.771   6.530   6.254
 3683SOL    HW112888   3.763   6.435   6.256
 3683SOL    HW212889   3.789   6.551   6.163
 3684SOL     OW12890  13.913   8.953   4.384
 3684SOL    HW112891  13.847   8.953   4.453
 3684SOL    HW212892  13.957   9.038   4.393
 3685SOL     OW12893   5.448  14.378  13.260
 3685SOL    HW112894   5.358  14.355  13.283
 3685SOL    HW212895   5.440  14.457  13.208
 3686SOL     OW12896   0.435   5.812   4.373
 3686SOL    HW112897   0.456   5.868   4.448
 3686SOL    HW212898   0.350   5.844   4.343
 3687SOL     OW12899  10.596   0.117   7.808
 3687SOL    HW112900  10.658   0.080   7.870
 3687SOL    HW212901  10.545   0.043   7.777
 3688SOL     OW12902  13.562  13.136   3.062
 3688SOL    HW112903  13.592  13.068   3.001
 3688SOL    HW212904  13.470  13.150   3.039
 3689SOL     OW12905  12.339   5.751   7.600
 3689SOL    HW112906  12.263   5.695   7.587
 3689SOL    HW212907  12.376   5.722   7.684
 3690SOL     OW12908   6.850   4.680   4.069
 3690SOL    HW112909   6.878   4.589   4.067
 3690SOL    HW212910   6.920   4.725   4.118
 3691SOL     OW12911   9.276  13.169   6.187
 3691SOL    HW112912   9.305  13.207   6.270
 3691SOL    HW212913   9.250  13.244   6.134
 3692SOL     OW12914  10.568   6.491   1.232
 3692SOL    HW112915  10.563   6.578   1.273
 3692SOL    HW212916  10.516   6.435   1.289
 3693SOL     OW12917   6.268   9.836   2.401
 3693SOL    HW112918   6.280   9.850   2.307
 3693SOL    HW212919   6.346   9.787   2.428
 3694SOL     OW12920   9.034   0.726   7.769
 3694SOL    HW112921   8.999   0.695   7.852
 3694SOL    HW212922   9.119   0.681   7.760
 3695SOL     OW12923  14.407  12.649   5.732
 3695SOL    HW112924  14.419  12.590   5.658
 3695SOL    HW212925  14.484  12.633   5.787
 3696SOL     OW12926   3.534  13.884   6.195
 3696SOL    HW112927   3.578  13.847   6.272
 3696SOL    HW212928   3.527  13.977   6.214
 3697SOL     OW12929  12.555   2.169   3.908
 3697SOL    HW112930  12.641   2.212   3.910
 3697SOL    HW212931  12.564   2.095   3.968
 3698SOL     OW12932   7.489  14.081   9.421
 3698SOL    HW112933   7.527  14.169   9.416
 3698SOL    HW212934   7.418  14.090   9.485
 3699SOL     OW12935   6.491   0.493   3.657
 3699SOL    HW112936   6.524   0.557   3.719
 3699SOL    HW212937   6.512   0.408   3.696
 3700SOL     OW12938   2.874   7.920   8.709
 3700SOL    HW112939   2.788   7.895   8.744
 3700SOL    HW212940   2.901   7.845   8.656
 3701SOL     OW12941   9.599   4.658   5.713
 3701SOL    HW112942   9.658   4.731   5.734
 3701SOL    HW212943   9.559   4.682   5.630
 3702SOL     OW12944  14.367  14.129   7.245
 3702SOL    HW112945  14.449  14.176   7.255
 3702SOL    HW212946  14.378  14.078   7.165
 3703SOL     OW12947   3.876  12.100   8.565
 3703SOL    HW112948   3.812  12.066   8.503
 3703SOL    HW212949   3.870  12.041   8.640
 3704SOL     OW12950   3.138  13.893   5.024
 3704SOL    HW112951   3.074  13.926   5.087
 3704SOL    HW212952   3.162  13.806   5.057
 3705SOL     OW12953   4.651   2.382   6.602
 3705SOL    HW112954   4.713   2.422   6.541
 3705SOL    HW212955   4.675   2.289   6.603
 3706SOL     OW12956  12.722   6.394   8.466
 3706SOL    HW112957  12.737   6.352   8.550
 3706SOL    HW212958  12.793   6.458   8.458
 3707SOL     OW12959   5.313  11.385  14.634
 3707SOL    HW112960   5.306  11.359  14.542
 3707SOL    HW212961   5.331  11.304  14.681
 3708SOL     OW12962  11.096  14.745  11.330
 3708SOL    HW112963  11.049  14.819  11.369
 3708SOL    HW212964  11.188  14.770  11.335
 3709SOL     OW12965   5.163   0.595   6.697
 3709SOL    HW112966   5.076   0.572   6.664
 3709SOL    HW212967   5.219   0.521   6.672
 3710SOL     OW12968   2.627   2.163   2.812
 3710SOL    HW112969   2.547   2.113   2.799
 3710SOL    HW212970   2.653   2.190   2.724
 3711SOL     OW12971  13.410   8.684  10.826
 3711SOL    HW112972  13.434   8.765  10.780
 3711SOL    HW212973  13.484   8.626  10.811
 3712SOL     OW12974   4.561   0.148   6.860
 3712SOL    HW112975   4.465   0.144   6.859
 3712SOL    HW212976   4.581   0.230   6.906
 3713SOL     OW12977  13.316   1.952   2.248
 3713SOL    HW112978  13.369   2.016   2.294
 3713SOL    HW212979  13.377   1.906   2.191
 3714SOL     OW12980   7.604   5.695   1.513
 3714SOL    HW112981   7.573   5.778   1.551
 3714SOL    HW212982   7.668   5.662   1.575
 3715SOL     OW12983  12.100  11.940   2.912
 3715SOL    HW112984  12.130  11.958   2.823
 3715SOL    HW212985  12.178  11.950   2.966
 3716SOL     OW12986  14.034   5.651   7.831
 3716SOL    HW112987  14.098   5.611   7.772
 3716SOL    HW212988  14.069   5.738   7.849
 3717SOL     OW12989   6.693   5.060   6.411
 3717SOL    HW112990   6.771   5.038   6.360
 3717SOL    HW212991   6.692   4.997   6.483
 3718SOL     OW12992  12.166   5.493  10.357
 3718SOL    HW112993  12.209   5.558  10.413
 3718SOL    HW212994  12.073   5.501  10.378
 3719SOL     OW12995   5.418   5.738   1.635
 3719SOL    HW112996   5.481   5.724   1.705
 3719SOL    HW212997   5.370   5.656   1.628
 3720SOL     OW12998   3.138   8.342   2.650
 3720SOL    HW112999   3.202   8.276   2.623
 3720SOL    HW213000   3.053   8.301   2.636
 3721SOL     OW13001   5.065   9.678   9.678
 3721SOL    HW113002   5.015   9.759   9.672
 3721SOL    HW213003   5.075   9.663   9.772
 3722SOL     OW13004  14.290   9.054   4.481
 3722SOL    HW113005  14.371   9.058   4.430
 3722SOL    HW213006  14.314   9.086   4.568
 3723SOL     OW13007  12.867   2.911   5.043
 3723SOL    HW113008  12.803   2.865   5.097
 3723SOL    HW213009  12.816   2.976   4.996
 3724SOL     OW13010   9.173   0.395   7.993
 3724SOL    HW113011   9.267   0.388   8.010
 3724SOL    HW213012   9.167   0.443   7.911
 3725SOL     OW13013  14.318   8.919   5.696
 3725SOL    HW113014  14.315   8.998   5.750
 3725SOL    HW213015  14.344   8.849   5.756
 3726SOL     OW13016  14.514   6.454  11.881
 3726SOL    HW113017  14.531   6.379  11.824
 3726SOL    HW213018  14.438   6.497  11.842
 3727SOL     OW13019  13.453  11.705  13.579
 3727SOL    HW113020  13.483  11.737  13.494
 3727SOL    HW213021  13.424  11.615  13.561
 3728SOL     OW13022  11.161   3.459   9.915
 3728SOL    HW113023  11.071   3.486   9.933
 3728SOL    HW213024  11.207   3.541   9.897
 3729SOL     OW13025   0.331  10.956   6.448
 3729SOL    HW113026   0.423  10.963   6.424
 3729SOL    HW213027   0.316  11.030   6.508
 3730SOL     OW13028   3.945  13.257   6.272
 3730SOL    HW113029   3.965  13.164   6.285
 3730SOL    HW213030   4.028  13.302   6.287
 3731SOL     OW13031   7.188   7.144   4.520
 3731SOL    HW113032   7.225   7.210   4.579
 3731SOL    HW213033   7.171   7.069   4.577
 3732SOL     OW13034   6.566   2.481   7.514
 3732SOL    HW113035   6.548   2.392   7.544
 3732SOL    HW213036   6.652   2.475   7.472
 3733SOL     OW13037   7.519  14.527   4.297
 3733SOL    HW113038   7.555  14.466   4.361
 3733SOL    HW213039   7.426  14.530   4.316
 3734SOL     OW13040   6.892   2.161   3.657
 3734SOL    HW113041   6.933   2.228   3.602
 3734SOL    HW213042   6.798   2.167   3.637
 3735SOL     OW13043   4.646   9.966  14.613
 3735SOL    HW113044   4.702  10.042  14.597
 3735SOL    HW213045   4.700   9.907  14.666
 3736SOL     OW13046  10.360   0.193   8.793
 3736SOL    HW113047  10.284   0.150   8.754
 3736SOL    HW213048  10.324   0.266   8.843
 3737SOL     OW13049   5.393   8.228   3.172
 3737SOL    HW113050   5.457   8.222   3.243
 3737SOL    HW213051   5.310   8.244   3.215
 3738SOL     OW13052   9.808   5.544  11.483
 3738SOL    HW113053   9.756   5.471  11.451
 3738SOL    HW213054   9.744   5.610  11.509
 3739SOL     OW13055  13.189   9.967   4.009
 3739SOL    HW113056  13.232   9.885   4.036
 3739SOL    HW213057  13.106   9.938   3.970
 3740SOL     OW13058   0.806   0.943  12.415
 3740SOL    HW113059   0.711   0.957  12.423
 3740SOL    HW213060   0.813   0.850  12.393
 3741SOL     OW13061   8.855   3.208  13.104
 3741SOL    HW113062   8.771   3.202  13.059
 3741SOL    HW213063   8.888   3.118  13.107
 3742SOL     OW13064   2.455   9.478   3.236
 3742SOL    HW113065   2.426   9.567   3.219
 3742SOL    HW213066   2.542   9.473   3.199
 3743SOL     OW13067   1.722   6.794   3.403
 3743SOL    HW113068   1.774   6.873   3.390
 3743SOL    HW213069   1.677   6.780   3.319
 3744SOL     OW13070   3.497   7.806  11.950
 3744SOL    HW113071   3.403   7.810  11.970
 3744SOL    HW213072   3.523   7.897  11.941
 3745SOL     OW13073  12.378   9.293   2.070
 3745SOL    HW113074  12.417   9.367   2.023
 3745SOL    HW213075  12.425   9.216   2.037
 3746SOL     OW13076   8.577   5.641   1.723
 3746SOL    HW113077   8.538   5.728   1.725
 3746SOL    HW213078   8.580   5.614   1.815
 3747SOL     OW13079   8.495  12.648   4.281
 3747SOL    HW113080   8.517  12.596   4.204
 3747SOL    HW213081   8.451  12.726   4.246
 3748SOL     OW13082  10.174  10.994  13.272
 3748SOL    HW113083  10.117  11.044  13.330
 3748SOL    HW213084  10.182  10.908  13.313
 3749SOL     OW13085   9.429   3.446   3.033
 3749SOL    HW113086   9.413   3.539   3.015
 3749SOL    HW213087   9.360   3.400   2.986
 3750SOL     OW13088   2.891   4.815  14.376
 3750SOL    HW113089   2.878   4.910  14.373
 3750SOL    HW213090   2.975   4.803  14.421
 3751SOL     OW13091  11.118   1.616  11.389
 3751SOL    HW113092  11.069   1.558  11.331
 3751SOL    HW213093  11.141   1.561  11.464
 3752SOL     OW13094   0.222  14.311   4.924
 3752SOL    HW113095   0.230  14.217   4.909
 3752SOL    HW213096   0.267  14.325   5.008
 3753SOL     OW13097   8.540  14.594  14.630
 3753SOL    HW113098   8.516  14.536  14.703
 3753SOL    HW213099   8.463  14.593  14.573
 3754SOL     OW13100  10.882   1.861  12.007
 3754SOL    HW113101  10.902   1.812  11.927
 3754SOL    HW213102  10.892   1.798  12.078
 3755SOL     OW13103   7.090  14.799   1.325
 3755SOL    HW113104   7.094  14.858   1.250
 3755SOL    HW213105   7.136  14.721   1.297
 3756SOL     OW13106   9.330   2.430   1.630
 3756SOL    HW113107   9.310   2.396   1.717
 3756SOL    HW213108   9.247   2.465   1.599
 3757SOL     OW13109   3.185   5.394   3.404
 3757SOL    HW113110   3.248   5.379   3.475
 3757SOL    HW213111   3.219   5.472   3.359
 3758SOL     OW13112   4.409  12.051  14.597
 3758SOL    HW113113   4.379  12.131  14.555
 3758SOL    HW213114   4.505  12.056  14.592
 3759SOL     OW13115   4.285   9.304   8.697
 3759SOL    HW113116   4.278   9.288   8.603
 3759SOL    HW213117   4.380   9.310   8.712
 3760SOL     OW13118  14.148  14.189   9.363
 3760SOL    HW113119  14.184  14.135   9.433
 3760SOL    HW213120  14.149  14.278   9.398
 3761SOL     OW13121   6.604   4.381   2.456
 3761SOL    HW113122   6.574   4.320   2.523
 3761SOL    HW213123   6.537   4.375   2.387
 3762SOL     OW13124   6.638  12.368  13.905
 3762SOL    HW113125   6.715  12.373  13.962
 3762SOL    HW213126   6.658  12.297  13.844
 3763SOL     OW13127  11.290   1.362  14.593
 3763SOL    HW113128  11.293   1.457  14.606
 3763SOL    HW213129  11.382   1.334  14.598
 3764SOL     OW13130   5.286  12.074   7.913
 3764SOL    HW113131   5.193  12.096   7.920
 3764SOL    HW213132   5.330  12.159   7.903
 3765SOL     OW13133  11.657  12.636   3.536
 3765SOL    HW113134  11.726  12.577   3.507
 3765SOL    HW213135  11.650  12.620   3.630
 3766SOL     OW13136   4.487   3.153  13.648
 3766SOL    HW113137   4.525   3.236  13.621
 3766SOL    HW213138   4.506   3.093  13.576
 3767SOL     OW13139  12.184  11.326   8.385
 3767SOL    HW113140  12.126  11.321   8.461
 3767SOL    HW213141  12.255  11.383   8.414
 3768SOL     OW13142   6.811   3.255  10.352
 3768SOL    HW113143   6.786   3.320  10.418
 3768SOL    HW213144   6.779   3.172  10.387
 3769SOL     OW13145   2.901  11.039  10.825
 3769SOL    HW113146   2.958  11.111  10.852
 3769SOL    HW213147   2.873  10.999  10.907
 3770SOL     OW13148   3.004   9.663   4.277
 3770SOL    HW113149   2.944   9.725   4.318
 3770SOL    HW213150   3.088   9.678   4.321
 3771SOL     OW13151   2.497  12.313  12.202
 3771SOL    HW113152   2.469  12.391  12.249
 3771SOL    HW213153   2.523  12.345  12.115
 3772SOL     OW13154  14.868  13.943   6.302
 3772SOL    HW113155   0.072  13.944   6.349
 3772SOL    HW213156  14.844  13.851   6.297
 3773SOL     OW13157   2.702   8.395   4.788
 3773SOL    HW113158   2.709   8.328   4.856
 3773SOL    HW213159   2.723   8.477   4.832
 3774SOL     OW13160   7.256   0.614   5.388
 3774SOL    HW113161   7.331   0.555   5.399
 3774SOL    HW213162   7.270   0.654   5.302
 3775SOL     OW13163   4.599  13.662   4.605
 3775SOL    HW113164   4.540  13.606   4.655
 3775SOL    HW213165   4.541  13.723   4.558
 3776SOL     OW13166   0.695  11.623   3.987
 3776SOL    HW113167   0.736  11.627   4.073
 3776SOL    HW213168   0.608  11.660   4.000
 3777SOL     OW13169   3.693   8.396   0.645
 3777SOL    HW113170   3.761   8.404   0.577
 3777SOL    HW213171   3.644   8.318   0.620
 3778SOL     OW13172   2.949   8.610  10.791
 3778SOL    HW113173   2.956   8.520  10.758
 3778SOL    HW213174   3.025   8.655  10.755
 3779SOL     OW13175  12.464   0.930   8.436
 3779SOL    HW113176  12.409   1.007   8.449
 3779SOL    HW213177  12.512   0.920   8.518
 3780SOL     OW13178   3.567   1.242   8.732
 3780SOL    HW113179   3.555   1.331   8.765
 3780SOL    HW213180   3.640   1.249   8.670
 3781SOL     OW13181   5.164   7.829   5.761
 3781SOL    HW113182   5.207   7.907   5.725
 3781SOL    HW213183   5.130   7.857   5.846
 3782SOL     OW13184   3.668  10.175   1.097
 3782SOL    HW113185   3.749  10.224   1.079
 3782SOL    HW213186   3.608  10.240   1.133
 3783SOL     OW13187  13.916   6.906   9.072
 3783SOL    HW113188  13.902   6.815   9.046
 3783SOL    HW213189  14.009   6.912   9.091
 3784SOL     OW13190  10.699   0.499   6.488
 3784SOL    HW113191  10.756   0.422   6.482
 3784SOL    HW213192  10.618   0.472   6.444
 3785SOL     OW13193   1.097   1.133   0.024
 3785SOL    HW113194   1.041   1.110  14.829
 3785SOL    HW213195   1.066   1.076   0.095
 3786SOL     OW13196   4.774   1.930   1.714
 3786SOL    HW113197   4.683   1.943   1.685
 3786SOL    HW213198   4.827   1.953   1.638
 3787SOL     OW13199   6.785   9.928   9.373
 3787SOL    HW113200   6.833   9.982   9.436
 3787SOL    HW213201   6.823   9.951   9.288
 3788SOL     OW13202   2.586   1.560   4.156
 3788SOL    HW113203   2.543   1.476   4.174
 3788SOL    HW213204   2.678   1.537   4.142
 3789SOL     OW13205  11.758   6.701   3.189
 3789SOL    HW113206  11.701   6.771   3.156
 3789SOL    HW213207  11.717   6.620   3.158
 3790SOL     OW13208   2.863  10.725  13.613
 3790SOL    HW113209   2.912  10.673  13.676
 3790SOL    HW213210   2.822  10.660  13.556
 3791SOL     OW13211   4.877  12.239  11.502
 3791SOL    HW113212   4.891  12.332  11.484
 3791SOL    HW213213   4.945  12.216  11.566
 3792SOL     OW13214  13.166  11.450  12.412
 3792SOL    HW113215  13.091  11.505  12.436
 3792SOL    HW213216  13.132  11.391  12.345
 3793SOL     OW13217   1.314   1.811   8.470
 3793SOL    HW113218   1.267   1.782   8.392
 3793SOL    HW213219   1.382   1.745   8.482
 3794SOL     OW13220  11.020   2.594  14.422
 3794SOL    HW113221  11.050   2.684  14.436
 3794SOL    HW213222  10.937   2.589  14.471
 3795SOL     OW13223   4.566   6.869  14.742
 3795SOL    HW113224   4.510   6.810  14.792
 3795SOL    HW213225   4.505   6.923  14.692
 3796SOL     OW13226   6.971   2.611  12.597
 3796SOL    HW113227   6.878   2.633  12.605
 3796SOL    HW213228   6.995   2.574  12.682
 3797SOL     OW13229   9.780   7.577   0.837
 3797SOL    HW113230   9.779   7.487   0.870
 3797SOL    HW213231   9.801   7.630   0.914
 3798SOL     OW13232   1.975  13.958  10.305
 3798SOL    HW113233   2.007  13.950  10.215
 3798SOL    HW213234   1.948  13.870  10.329
 3799SOL     OW13235  13.438  10.295   4.018
 3799SOL    HW113236  13.473  10.231   4.080
 3799SOL    HW213237  13.461  10.260   3.932
 3800SOL     OW13238   2.489  10.945   1.037
 3800SOL    HW113239   2.412  10.922   1.090
 3800SOL    HW213240   2.478  10.894   0.957
 3801SOL     OW13241   2.606   8.370   8.141
 3801SOL    HW113242   2.651   8.387   8.058
 3801SOL    HW213243   2.597   8.456   8.182
 3802SOL     OW13244   1.229   0.459   5.016
 3802SOL    HW113245   1.256   0.551   5.011
 3802SOL    HW213246   1.175   0.446   4.938
 3803SOL     OW13247   0.059  13.957   3.993
 3803SOL    HW113248   0.003  14.013   4.046
 3803SOL    HW213249   0.110  14.018   3.939
 3804SOL     OW13250  10.687   3.488  12.670
 3804SOL    HW113251  10.610   3.491  12.727
 3804SOL    HW213252  10.761   3.493  12.730
 3805SOL     OW13253   8.121   4.550   3.179
 3805SOL    HW113254   8.153   4.622   3.126
 3805SOL    HW213255   8.112   4.587   3.267
 3806SOL     OW13256  13.178   3.934  13.448
 3806SOL    HW113257  13.196   4.003  13.385
 3806SOL    HW213258  13.113   3.879  13.406
 3807SOL     OW13259  10.018   8.207  11.597
 3807SOL    HW113260  10.006   8.114  11.615
 3807SOL    HW213261  10.083   8.236  11.662
 3808SOL     OW13262  12.399  11.658   2.931
 3808SOL    HW113263  12.421  11.565   2.943
 3808SOL    HW213264  12.325  11.658   2.871
 3809SOL     OW13265  10.927  12.791   5.337
 3809SOL    HW113266  10.967  12.705   5.352
 3809SOL    HW213267  10.918  12.829   5.424
 3810SOL     OW13268  14.539   7.068   5.259
 3810SOL    HW113269  14.446   7.046   5.267
 3810SOL    HW213270  14.575   7.050   5.346
 3811SOL     OW13271   2.836   2.832   4.276
 3811SOL    HW113272   2.802   2.921   4.280
 3811SOL    HW213273   2.930   2.842   4.288
 3812SOL     OW13274   3.421   2.082  12.686
 3812SOL    HW113275   3.440   2.165  12.643
 3812SOL    HW213276   3.506   2.037  12.690
 3813SOL     OW13277   3.997  14.590  12.747
 3813SOL    HW113278   3.987  14.506  12.791
 3813SOL    HW213279   4.001  14.567  12.654
 3814SOL     OW13280  13.375   3.510  10.594
 3814SOL    HW113281  13.369   3.569  10.670
 3814SOL    HW213282  13.336   3.560  10.523
 3815SOL     OW13283   4.661   2.871   3.510
 3815SOL    HW113284   4.567   2.863   3.526
 3815SOL    HW213285   4.702   2.822   3.581
 3816SOL     OW13286   2.040  12.809  14.100
 3816SOL    HW113287   2.110  12.756  14.137
 3816SOL    HW213288   1.968  12.802  14.163
 3817SOL     OW13289   7.512  13.443  11.067
 3817SOL    HW113290   7.423  13.431  11.102
 3817SOL    HW213291   7.512  13.533  11.034
 3818SOL     OW13292   7.047  14.420   7.352
 3818SOL    HW113293   6.982  14.367   7.398
 3818SOL    HW213294   7.117  14.432   7.416
 3819SOL     OW13295   2.863  10.311   4.377
 3819SOL    HW113296   2.806  10.335   4.304
 3819SOL    HW213297   2.823  10.351   4.454
 3820SOL     OW13298   5.986   6.146   2.859
 3820SOL    HW113299   5.974   6.065   2.909
 3820SOL    HW213300   5.901   6.190   2.864
 3821SOL     OW13301   3.633   3.262   5.256
 3821SOL    HW113302   3.572   3.328   5.289
 3821SOL    HW213303   3.627   3.191   5.320
 3822SOL     OW13304  13.689   2.831   2.869
 3822SOL    HW113305  13.757   2.774   2.833
 3822SOL    HW213306  13.630   2.848   2.796
 3823SOL     OW13307  10.568   4.461  10.188
 3823SOL    HW113308  10.490   4.433  10.237
 3823SOL    HW213309  10.596   4.541  10.233
 3824SOL     OW13310   6.345   4.601   5.680
 3824SOL    HW113311   6.337   4.609   5.585
 3824SOL    HW213312   6.261   4.565   5.708
 3825SOL     OW13313  11.302  10.577   0.490
 3825SOL    HW113314  11.393  10.559   0.468
 3825SOL    HW213315  11.252  10.549   0.413
 3826SOL     OW13316   8.836  14.549   3.291
 3826SOL    HW113317   8.828  14.639   3.321
 3826SOL    HW213318   8.897  14.508   3.353
 3827SOL     OW13319  11.198   8.844   5.533
 3827SOL    HW113320  11.203   8.813   5.443
 3827SOL    HW213321  11.216   8.767   5.586
 3828SOL     OW13322   4.233   9.121  10.589
 3828SOL    HW113323   4.142   9.119  10.619
 3828SOL    HW213324   4.243   9.207  10.548
 3829SOL     OW13325  11.997  11.801  11.166
 3829SOL    HW113326  11.967  11.881  11.209
 3829SOL    HW213327  11.992  11.821  11.072
 3830SOL     OW13328   8.987   2.963  12.572
 3830SOL    HW113329   8.943   2.923  12.497
 3830SOL    HW213330   9.033   2.891  12.614
 3831SOL     OW13331   0.908  12.350   9.324
 3831SOL    HW113332   0.927  12.298   9.402
 3831SOL    HW213333   0.942  12.298   9.251
 3832SOL     OW13334   3.050   1.961   2.683
 3832SOL    HW113335   3.019   2.028   2.623
 3832SOL    HW213336   3.093   2.010   2.754
 3833SOL     OW13337  13.718   1.725   5.440
 3833SOL    HW113338  13.685   1.652   5.389
 3833SOL    HW213339  13.786   1.686   5.496
 3834SOL     OW13340  12.963  13.430   9.846
 3834SOL    HW113341  12.887  13.388   9.806
 3834SOL    HW213342  12.944  13.429   9.940
 3835SOL     OW13343  14.268  13.900  11.848
 3835SOL    HW113344  14.286  13.993  11.857
 3835SOL    HW213345  14.197  13.882  11.910
 3836SOL     OW13346  12.042   8.028   6.578
 3836SOL    HW113347  11.955   8.060   6.553
 3836SOL    HW213348  12.101   8.063   6.512
 3837SOL     OW13349   0.132   7.669   0.598
 3837SOL    HW113350   0.195   7.741   0.598
 3837SOL    HW213351   0.076   7.686   0.674
 3838SOL     OW13352   5.894  10.728   1.955
 3838SOL    HW113353   5.962  10.696   2.015
 3838SOL    HW213354   5.909  10.679   1.874
 3839SOL     OW13355  12.837   8.464   9.382
 3839SOL    HW113356  12.869   8.512   9.459
 3839SOL    HW213357  12.849   8.524   9.309
 3840SOL     OW13358   9.006   8.819   9.615
 3840SOL    HW113359   9.080   8.762   9.636
 3840SOL    HW213360   9.044   8.906   9.608
 3841SOL     OW13361  11.650   3.405  13.941
 3841SOL    HW113362  11.579   3.416  13.877
 3841SOL    HW213363  11.606   3.380  14.022
 3842SOL     OW13364   1.349  10.726   4.341
 3842SOL    HW113365   1.260  10.739   4.308
 3842SOL    HW213366   1.373  10.810   4.379
 3843SOL     OW13367   8.066   7.666  12.947
 3843SOL    HW113368   8.084   7.589  12.894
 3843SOL    HW213369   8.134   7.665  13.015
 3844SOL     OW13370   9.465  12.814   6.227
 3844SOL    HW113371   9.465  12.783   6.318
 3844SOL    HW213372   9.397  12.762   6.184
 3845SOL     OW13373   3.147   4.852  10.952
 3845SOL    HW113374   3.060   4.811  10.954
 3845SOL    HW213375   3.205   4.783  10.919
 3846SOL     OW13376   5.277   2.305   2.456
 3846SOL    HW113377   5.310   2.380   2.505
 3846SOL    HW213378   5.183   2.305   2.473
 3847SOL     OW13379  12.127  14.519   3.898
 3847SOL    HW113380  12.099  14.438   3.941
 3847SOL    HW213381  12.066  14.530   3.825
 3848SOL     OW13382   1.163  10.826   6.672
 3848SOL    HW113383   1.084  10.773   6.685
 3848SOL    HW213384   1.227  10.788   6.731
 3849SOL     OW13385   0.962   3.061   3.580
 3849SOL    HW113386   0.931   3.134   3.633
 3849SOL    HW213387   0.976   2.990   3.643
 3850SOL     OW13388   1.059   0.191   5.334
 3850SOL    HW113389   1.089   0.270   5.288
 3850SOL    HW213390   0.968   0.181   5.307
 3851SOL     OW13391   1.589   9.827   5.073
 3851SOL    HW113392   1.682   9.833   5.049
 3851SOL    HW213393   1.551   9.767   5.009
 3852SOL     OW13394  11.195   7.630  13.240
 3852SOL    HW113395  11.242   7.670  13.167
 3852SOL    HW213396  11.109   7.671  13.239
 3853SOL     OW13397  12.578   2.449   0.966
 3853SOL    HW113398  12.523   2.503   0.909
 3853SOL    HW213399  12.570   2.360   0.931
 3854SOL     OW13400  10.935   8.321  12.635
 3854SOL    HW113401  10.872   8.370  12.581
 3854SOL    HW213402  10.945   8.375  12.714
 3855SOL     OW13403  10.516   3.380   9.897
 3855SOL    HW113404  10.504   3.383   9.992
 3855SOL    HW213405  10.606   3.350   9.886
 3856SOL     OW13406   9.551   9.724  10.069
 3856SOL    HW113407   9.535   9.768   9.985
 3856SOL    HW213408   9.464   9.698  10.099
 3857SOL     OW13409   0.830  13.577  14.557
 3857SOL    HW113410   0.920  13.545  14.547
 3857SOL    HW213411   0.799  13.592  14.468
 3858SOL     OW13412   1.244   5.312   0.262
 3858SOL    HW113413   1.314   5.294   0.325
 3858SOL    HW213414   1.168   5.267   0.299
 3859SOL     OW13415   5.562   4.022   2.325
 3859SOL    HW113416   5.536   4.025   2.232
 3859SOL    HW213417   5.500   3.962   2.365
 3860SOL     OW13418   1.834   8.294  12.060
 3860SOL    HW113419   1.929   8.286  12.055
 3860SOL    HW213420   1.812   8.265  12.149
 3861SOL     OW13421   0.777  13.079   0.269
 3861SOL    HW113422   0.731  13.025   0.205
 3861SOL    HW213423   0.732  13.163   0.268
 3862SOL     OW13424   6.453   3.515  14.804
 3862SOL    HW113425   6.462   3.419  14.804
 3862SOL    HW213426   6.509   3.544  14.876
 3863SOL     OW13427  11.569  14.741   4.677
 3863SOL    HW113428  11.508  14.786   4.735
 3863SOL    HW213429  11.650  14.735   4.727
 3864SOL     OW13430   5.281   4.558  14.288
 3864SOL    HW113431   5.256   4.587  14.200
 3864SOL    HW213432   5.210   4.589  14.344
 3865SOL     OW13433   6.763  12.209   3.775
 3865SOL    HW113434   6.833  12.251   3.724
 3865SOL    HW213435   6.740  12.274   3.841
 3866SOL     OW13436   1.900   3.932   5.615
 3866SOL    HW113437   1.823   3.878   5.629
 3866SOL    HW213438   1.967   3.872   5.583
 3867SOL     OW13439  10.318  12.633  10.896
 3867SOL    HW113440  10.271  12.649  10.977
 3867SOL    HW213441  10.386  12.700  10.893
 3868SOL     OW13442  14.344   6.685   3.754
 3868SOL    HW113443  14.353   6.615   3.689
 3868SOL    HW213444  14.253   6.678   3.784
 3869SOL     OW13445  12.039  12.241   5.298
 3869SOL    HW113446  11.978  12.217   5.228
 3869SOL    HW213447  11.983  12.268   5.370
 3870SOL     OW13448   7.058  11.369  13.513
 3870SOL    HW113449   7.103  11.453  13.503
 3870SOL    HW213450   7.124  11.303  13.492
 3871SOL     OW13451   8.283  13.004  11.320
 3871SOL    HW113452   8.257  12.991  11.229
 3871SOL    HW213453   8.252  12.926  11.366
 3872SOL     OW13454  12.647  14.043   4.691
 3872SOL    HW113455  12.608  13.955   4.687
 3872SOL    HW213456  12.603  14.085   4.765
 3873SOL     OW13457   3.588   8.433  10.926
 3873SOL    HW113458   3.662   8.487  10.953
 3873SOL    HW213459   3.616   8.343  10.943
 3874SOL     OW13460  11.160   5.708  13.867
 3874SOL    HW113461  11.217   5.739  13.796
 3874SOL    HW213462  11.211   5.640  13.910
 3875SOL     OW13463   1.382   2.270   9.540
 3875SOL    HW113464   1.425   2.301   9.619
 3875SOL    HW213465   1.452   2.262   9.475
 3876SOL     OW13466   7.751   2.433   0.288
 3876SOL    HW113467   7.840   2.396   0.284
 3876SOL    HW213468   7.752   2.505   0.225
 3877SOL     OW13469   2.145   4.824   7.589
 3877SOL    HW113470   2.156   4.810   7.683
 3877SOL    HW213471   2.116   4.740   7.554
 3878SOL     OW13472   4.268   4.736   9.946
 3878SOL    HW113473   4.362   4.737   9.927
 3878SOL    HW213474   4.260   4.681  10.024
 3879SOL     OW13475  13.209  10.572   1.375
 3879SOL    HW113476  13.222  10.523   1.456
 3879SOL    HW213477  13.297  10.602   1.350
 3880SOL     OW13478   0.228   9.705   7.235
 3880SOL    HW113479   0.213   9.627   7.182
 3880SOL    HW213480   0.287   9.759   7.182
 3881SOL     OW13481   9.597  10.338   5.852
 3881SOL    HW113482   9.534  10.283   5.898
 3881SOL    HW213483   9.645  10.278   5.795
 3882SOL     OW13484   4.014   7.879   1.443
 3882SOL    HW113485   4.099   7.894   1.484
 3882SOL    HW213486   3.962   7.956   1.466
 3883SOL     OW13487  10.191   2.726   6.333
 3883SOL    HW113488  10.146   2.659   6.383
 3883SOL    HW213489  10.194   2.802   6.391
 3884SOL     OW13490   0.391   9.610   6.113
 3884SOL    HW113491   0.379   9.690   6.062
 3884SOL    HW213492   0.332   9.621   6.188
 3885SOL     OW13493   2.283   5.485  10.668
 3885SOL    HW113494   2.342   5.426  10.623
 3885SOL    HW213495   2.257   5.549  10.601
 3886SOL     OW13496   3.963  10.544   9.373
 3886SOL    HW113497   3.884  10.555   9.321
 3886SOL    HW213498   4.032  10.525   9.309
 3887SOL     OW13499   3.034   2.792   4.559
 3887SOL    HW113500   3.043   2.879   4.519
 3887SOL    HW213501   3.044   2.807   4.653
 3888SOL     OW13502   7.111   4.044   6.315
 3888SOL    HW113503   7.052   4.108   6.355
 3888SOL    HW213504   7.196   4.088   6.312
 3889SOL     OW13505   0.777   6.478  13.945
 3889SOL    HW113506   0.723   6.555  13.962
 3889SOL    HW213507   0.820   6.496  13.862
 3890SOL     OW13508   7.442  13.032   0.070
 3890SOL    HW113509   7.364  12.983   0.097
 3890SOL    HW213510   7.408  13.116   0.039
 3891SOL     OW13511   5.134   3.116   0.898
 3891SOL    HW113512   5.094   3.143   0.980
 3891SOL    HW213513   5.099   3.176   0.832
 3892SOL     OW13514   2.950   6.354   1.178
 3892SOL    HW113515   2.881   6.385   1.119
 3892SOL    HW213516   2.919   6.269   1.209
 3893SOL     OW13517  12.136   0.175  12.647
 3893SOL    HW113518  12.110   0.238  12.713
 3893SOL    HW213519  12.218   0.138  12.680
 3894SOL     OW13520   4.806  13.670   0.458
 3894SOL    HW113521   4.765  13.604   0.402
 3894SOL    HW213522   4.889  13.632   0.485
 3895SOL     OW13523  12.421   8.561  14.134
 3895SOL    HW113524  12.393   8.511  14.210
 3895SOL    HW213525  12.407   8.502  14.060
 3896SOL     OW13526   5.608  10.740   6.351
 3896SOL    HW113527   5.678  10.770   6.409
 3896SOL    HW213528   5.652  10.683   6.288
 3897SOL     OW13529   7.699   8.206  10.296
 3897SOL    HW113530   7.743   8.284  10.330
 3897SOL    HW213531   7.670   8.231  10.208
 3898SOL     OW13532  11.157   5.109  12.413
 3898SOL    HW113533  11.167   5.030  12.465
 3898SOL    HW213534  11.132   5.176  12.476
 3899SOL     OW13535  12.452  11.393   2.915
 3899SOL    HW113536  12.435  11.347   2.833
 3899SOL    HW213537  12.533  11.441   2.900
 3900SOL     OW13538   1.597   0.828   2.465
 3900SOL    HW113539   1.561   0.907   2.505
 3900SOL    HW213540   1.649   0.788   2.534
 3901SOL     OW13541   2.929  10.521   7.924
 3901SOL    HW113542   2.868  10.469   7.976
 3901SOL    HW213543   2.901  10.506   7.833
 3902SOL     OW13544   3.904   3.130  13.678
 3902SOL    HW113545   3.869   3.177  13.602
 3902SOL    HW213546   3.879   3.184  13.753
 3903SOL     OW13547   3.367  10.404  14.652
 3903SOL    HW113548   3.349  10.395  14.745
 3903SOL    HW213549   3.458  10.433  14.648
 3904SOL     OW13550   6.188   5.617   4.196
 3904SOL    HW113551   6.094   5.620   4.181
 3904SOL    HW213552   6.214   5.708   4.206
 3905SOL     OW13553   6.171   2.704   0.270
 3905SOL    HW113554   6.259   2.688   0.304
 3905SOL    HW213555   6.154   2.796   0.290
 3906SOL     OW13556   3.246  13.130   1.492
 3906SOL    HW113557   3.180  13.189   1.457
 3906SOL    HW213558   3.226  13.123   1.585
 3907SOL     OW13559  12.639  14.062  12.568
 3907SOL    HW113560  12.638  13.970  12.542
 3907SOL    HW213561  12.688  14.106  12.499
 3908SOL     OW13562  14.377  12.868   2.951
 3908SOL    HW113563  14.281  12.867   2.959
 3908SOL    HW213564  14.398  12.781   2.917
 3909SOL     OW13565  14.802   8.571   7.489
 3909SOL    HW113566  14.775   8.661   7.507
 3909SOL    HW213567   0.018   8.573   7.498
 3910SOL     OW13568  13.992   8.927   7.728
 3910SOL    HW113569  14.072   8.888   7.763
 3910SOL    HW213570  13.997   9.019   7.753
 3911SOL     OW13571   3.791   0.201   2.852
 3911SOL    HW113572   3.806   0.145   2.776
 3911SOL    HW213573   3.878   0.213   2.891
 3912SOL     OW13574  12.416   8.162   8.118
 3912SOL    HW113575  12.324   8.179   8.101
 3912SOL    HW213576  12.433   8.203   8.203
 3913SOL     OW13577  10.619  14.442   3.279
 3913SOL    HW113578  10.708  14.444   3.314
 3913SOL    HW213579  10.567  14.398   3.346
 3914SOL     OW13580  14.487   4.572   2.005
 3914SOL    HW113581  14.503   4.515   1.930
 3914SOL    HW213582  14.477   4.659   1.967
 3915SOL     OW13583   5.152   7.428  11.644
 3915SOL    HW113584   5.177   7.336  11.636
 3915SOL    HW213585   5.062   7.431  11.613
 3916SOL     OW13586   6.412   0.290   6.449
 3916SOL    HW113587   6.462   0.214   6.420
 3916SOL    HW213588   6.470   0.336   6.510
 3917SOL     OW13589  12.631  10.665   2.287
 3917SOL    HW113590  12.617  10.627   2.374
 3917SOL    HW213591  12.717  10.707   2.293
 3918SOL     OW13592   9.627  14.830   9.061
 3918SOL    HW113593   9.707  14.820   9.113
 3918SOL    HW213594   9.578   0.020   9.105
 3919SOL     OW13595   4.696  11.270  13.998
 3919SOL    HW113596   4.774  11.324  14.006
 3919SOL    HW213597   4.711  11.196  14.057
 3920SOL     OW13598   5.618   0.082   1.895
 3920SOL    HW113599   5.648  14.871   1.905
 3920SOL    HW213600   5.679   0.134   1.947
 3921SOL     OW13601  13.422   5.711  12.678
 3921SOL    HW113602  13.446   5.662  12.599
 3921SOL    HW213603  13.439   5.651  12.750
 3922SOL     OW13604  14.056   2.315   1.204
 3922SOL    HW113605  14.056   2.389   1.264
 3922SOL    HW213606  14.145   2.279   1.210
 3923SOL     OW13607   3.792   5.414   1.156
 3923SOL    HW113608   3.773   5.492   1.207
 3923SOL    HW213609   3.883   5.393   1.176
 3924SOL     OW13610  12.725   3.668   6.612
 3924SOL    HW113611  12.801   3.666   6.554
 3924SOL    HW213612  12.654   3.699   6.557
 3925SOL     OW13613   2.623  10.480   7.653
 3925SOL    HW113614   2.633  10.412   7.587
 3925SOL    HW213615   2.705  10.477   7.703
 3926SOL     OW13616   6.257   4.630  14.384
 3926SOL    HW113617   6.233   4.614  14.475
 3926SOL    HW213618   6.324   4.697  14.388
 3927SOL     OW13619  14.696   1.744   0.966
 3927SOL    HW113620  14.743   1.807   1.021
 3927SOL    HW213621  14.611   1.733   1.009
 3928SOL     OW13622  13.487   6.591  11.129
 3928SOL    HW113623  13.476   6.498  11.147
 3928SOL    HW213624  13.485   6.633  11.216
 3929SOL     OW13625  10.694   6.307   5.851
 3929SOL    HW113626  10.730   6.280   5.767
 3929SOL    HW213627  10.624   6.245   5.868
 3930SOL     OW13628   4.647  10.249  11.751
 3930SOL    HW113629   4.734  10.248  11.712
 3930SOL    HW213630   4.626  10.156  11.765
 3931SOL     OW13631  10.880   8.912   0.567
 3931SOL    HW113632  10.903   8.830   0.524
 3931SOL    HW213633  10.844   8.887   0.652
 3932SOL     OW13634   1.906   6.871   3.635
 3932SOL    HW113635   1.825   6.885   3.585
 3932SOL    HW213636   1.893   6.921   3.715
 3933SOL     OW13637   4.168   6.335   7.516
 3933SOL    HW113638   4.130   6.296   7.437
 3933SOL    HW213639   4.140   6.426   7.513
 3934SOL     OW13640   1.379   3.559   1.228
 3934SOL    HW113641   1.400   3.602   1.146
 3934SOL    HW213642   1.345   3.473   1.203
 3935SOL     OW13643   9.360   3.775  10.914
 3935SOL    HW113644   9.305   3.707  10.954
 3935SOL    HW213645   9.301   3.823  10.856
 3936SOL     OW13646  10.793   2.010  14.616
 3936SOL    HW113647  10.726   2.033  14.680
 3936SOL    HW213648  10.788   1.914  14.609
 3937SOL     OW13649   9.902   6.809   1.259
 3937SOL    HW113650   9.877   6.820   1.167
 3937SOL    HW213651   9.858   6.880   1.305
 3938SOL     OW13652  10.792  11.895   5.160
 3938SOL    HW113653  10.749  11.981   5.160
 3938SOL    HW213654  10.789  11.866   5.251
 3939SOL     OW13655   7.213   5.234  14.381
 3939SOL    HW113656   7.290   5.194  14.421
 3939SOL    HW213657   7.141   5.174  14.401
 3940SOL     OW13658   4.335  11.141   9.049
 3940SOL    HW113659   4.428  11.134   9.070
 3940SOL    HW213660   4.333  11.163   8.956
 3941SOL     OW13661   4.090   1.582   1.666
 3941SOL    HW113662   3.997   1.566   1.647
 3941SOL    HW213663   4.090   1.623   1.752
 3942SOL     OW13664   1.800   7.359  12.886
 3942SOL    HW113665   1.745   7.425  12.928
 3942SOL    HW213666   1.800   7.382  12.794
 3943SOL     OW13667   1.176  13.052  10.051
 3943SOL    HW113668   1.158  13.122   9.988
 3943SOL    HW213669   1.147  13.088  10.135
 3944SOL     OW13670  10.753   9.927   0.738
 3944SOL    HW113671  10.824   9.912   0.676
 3944SOL    HW213672  10.689   9.979   0.690
 3945SOL     OW13673   6.101  13.730  11.324
 3945SOL    HW113674   6.063  13.801  11.273
 3945SOL    HW213675   6.032  13.706  11.386
 3946SOL     OW13676  14.715   0.553   8.498
 3946SOL    HW113677  14.717   0.542   8.403
 3946SOL    HW213678  14.661   0.481   8.529
 3947SOL     OW13679   6.019   3.046   6.583
 3947SOL    HW113680   5.975   2.990   6.520
 3947SOL    HW213681   6.100   2.999   6.605
 3948SOL     OW13682   8.449   7.537  13.943
 3948SOL    HW113683   8.390   7.534  13.867
 3948SOL    HW213684   8.537   7.529  13.906
 3949SOL     OW13685  10.649  11.612   3.964
 3949SOL    HW113686  10.722  11.556   3.940
 3949SOL    HW213687  10.619  11.649   3.881
 3950SOL     OW13688  11.549   1.597   8.531
 3950SOL    HW113689  11.538   1.666   8.466
 3950SOL    HW213690  11.622   1.626   8.586
 3951SOL     OW13691   8.054  10.281   4.623
 3951SOL    HW113692   8.005  10.221   4.566
 3951SOL    HW213693   8.126  10.312   4.568
 3952SOL     OW13694   7.048   4.685  12.456
 3952SOL    HW113695   6.975   4.697  12.395
 3952SOL    HW213696   7.014   4.714  12.540
 3953SOL     OW13697  10.178  12.663   0.859
 3953SOL    HW113698  10.254  12.716   0.882
 3953SOL    HW213699  10.124  12.663   0.938
 3954SOL     OW13700   2.841   8.186   0.132
 3954SOL    HW113701   2.882   8.170   0.047
 3954SOL    HW213702   2.915   8.204   0.190
 3955SOL     OW13703   7.794   1.598  13.696
 3955SOL    HW113704   7.764   1.684  13.667
 3955SOL    HW213705   7.890   1.603  13.691
 3956SOL     OW13706   1.800   9.957   3.461
 3956SOL    HW113707   1.768  10.034   3.506
 3956SOL    HW213708   1.874   9.989   3.409
 3957SOL     OW13709   9.706  11.972   4.835
 3957SOL    HW113710   9.648  12.027   4.888
 3957SOL    HW213711   9.790  12.019   4.836
 3958SOL     OW13712  10.060   9.174   8.230
 3958SOL    HW113713  10.149   9.189   8.198
 3958SOL    HW213714  10.021   9.116   8.165
 3959SOL     OW13715  14.335   7.995   5.467
 3959SOL    HW113716  14.417   7.989   5.516
 3959SOL    HW213717  14.270   8.022   5.531
 3960SOL     OW13718   3.090   2.099   7.056
 3960SOL    HW113719   3.146   2.175   7.073
 3960SOL    HW213720   3.124   2.030   7.113
 3961SOL     OW13721   9.122  13.333  14.308
 3961SOL    HW113722   9.132  13.255  14.253
 3961SOL    HW213723   9.073  13.302  14.384
 3962SOL     OW13724   5.941   8.149  13.934
 3962SOL    HW113725   5.918   8.224  13.988
 3962SOL    HW213726   5.889   8.159  13.855
 3963SOL     OW13727  14.230   3.315  11.169
 3963SOL    HW113728  14.314   3.340  11.207
 3963SOL    HW213729  14.248   3.231  11.126
 3964SOL     OW13730   9.969   6.491   8.362
 3964SOL    HW113731   9.894   6.433   8.347
 3964SOL    HW213732   9.934   6.563   8.415
 3965SOL     OW13733   9.458   9.289   6.698
 3965SOL    HW113734   9.492   9.315   6.783
 3965SOL    HW213735   9.377   9.340   6.688
 3966SOL     OW13736   3.470   0.338   3.302
 3966SOL    HW113737   3.490   0.264   3.245
 3966SOL    HW213738   3.382   0.319   3.335
 3967SOL     OW13739   0.245   7.875   6.460
 3967SOL    HW113740   0.175   7.826   6.417
 3967SOL    HW213741   0.322   7.818   6.455
 3968SOL     OW13742  13.471   4.538   3.623
 3968SOL    HW113743  13.483   4.541   3.718
 3968SOL    HW213744  13.377   4.539   3.610
 3969SOL     OW13745   6.868  11.758   8.977
 3969SOL    HW113746   6.828  11.691   8.921
 3969SOL    HW213747   6.797  11.788   9.033
 3970SOL     OW13748  12.549  14.608  10.110
 3970SOL    HW113749  12.536  14.691  10.157
 3970SOL    HW213750  12.596  14.633  10.031
 3971SOL     OW13751   3.989   2.749  11.840
 3971SOL    HW113752   4.048   2.692  11.889
 3971SOL    HW213753   3.901   2.717  11.860
 3972SOL     OW13754  13.265  11.436   5.002
 3972SOL    HW113755  13.228  11.359   5.045
 3972SOL    HW213756  13.353  11.409   4.976
 3973SOL     OW13757   5.484   7.318   9.088
 3973SOL    HW113758   5.578   7.316   9.071
 3973SOL    HW213759   5.471   7.394   9.145
 3974SOL     OW13760  11.042   4.598  11.596
 3974SOL    HW113761  11.119   4.570  11.547
 3974SOL    HW213762  10.973   4.605  11.530
 3975SOL     OW13763   6.037   9.165   4.762
 3975SOL    HW113764   6.029   9.240   4.821
 3975SOL    HW213765   6.034   9.203   4.674
 3976SOL     OW13766   5.371   2.924   9.844
 3976SOL    HW113767   5.354   2.837   9.807
 3976SOL    HW213768   5.329   2.921   9.930
 3977SOL     OW13769   8.265   1.535   9.367
 3977SOL    HW113770   8.313   1.616   9.388
 3977SOL    HW213771   8.324   1.487   9.309
 3978SOL     OW13772   1.776   6.733   6.067
 3978SOL    HW113773   1.788   6.711   5.975
 3978SOL    HW213774   1.789   6.828   6.071
 3979SOL     OW13775   9.281   0.067   5.084
 3979SOL    HW113776   9.191   0.098   5.095
 3979SOL    HW213777   9.333   0.147   5.074
 3980SOL     OW13778   8.765  10.717   8.070
 3980SOL    HW113779   8.790  10.786   8.132
 3980SOL    HW213780   8.676  10.693   8.095
 3981SOL     OW13781   9.288   8.070   3.238
 3981SOL    HW113782   9.339   7.997   3.202
 3981SOL    HW213783   9.233   8.030   3.304
 3982SOL     OW13784   4.774   8.744  11.726
 3982SOL    HW113785   4.750   8.706  11.642
 3982SOL    HW213786   4.803   8.669  11.779
 3983SOL     OW13787  14.358   9.305   6.069
 3983SOL    HW113788  14.375   9.331   6.159
 3983SOL    HW213789  14.324   9.385   6.027
 3984SOL     OW13790   6.226   1.609   0.338
 3984SOL    HW113791   6.279   1.687   0.355
 3984SOL    HW213792   6.181   1.629   0.256
 3985SOL     OW13793  13.633   7.656   1.080
 3985SOL    HW113794  13.709   7.604   1.108
 3985SOL    HW213795  13.655   7.745   1.106
 3986SOL     OW13796   7.844   0.450   0.816
 3986SOL    HW113797   7.933   0.424   0.792
 3986SOL    HW213798   7.823   0.521   0.756
 3987SOL     OW13799  12.744   1.512   8.159
 3987SOL    HW113800  12.781   1.543   8.076
 3987SOL    HW213801  12.769   1.420   8.163
 3988SOL     OW13802   7.582   1.210   5.256
 3988SOL    HW113803   7.593   1.195   5.162
 3988SOL    HW213804   7.671   1.206   5.291
 3989SOL     OW13805   1.709   7.561   8.957
 3989SOL    HW113806   1.646   7.546   9.027
 3989SOL    HW213807   1.756   7.641   8.984
 3990SOL     OW13808  11.640  12.124   2.712
 3990SOL    HW113809  11.548  12.151   2.717
 3990SOL    HW213810  11.660  12.090   2.799
 3991SOL     OW13811   6.129  10.182   5.066
 3991SOL    HW113812   6.208  10.145   5.026
 3991SOL    HW213813   6.134  10.156   5.158
 3992SOL     OW13814  12.250   4.589  12.216
 3992SOL    HW113815  12.322   4.569  12.156
 3992SOL    HW213816  12.207   4.505  12.232
 3993SOL     OW13817  13.656   4.335   8.059
 3993SOL    HW113818  13.739   4.381   8.059
 3993SOL    HW213819  13.649   4.298   8.147
 3994SOL     OW13820   8.309  14.208   6.515
 3994SOL    HW113821   8.299  14.301   6.531
 3994SOL    HW213822   8.324  14.169   6.602
 3995SOL     OW13823   4.940   4.968   4.439
 3995SOL    HW113824   4.941   4.873   4.447
 3995SOL    HW213825   4.863   4.986   4.385
 3996SOL     OW13826  14.579   6.798   9.745
 3996SOL    HW113827  14.598   6.859   9.674
 3996SOL    HW213828  14.569   6.854   9.823
 3997SOL     OW13829  10.003  10.240  13.648
 3997SOL    HW113830  10.039  10.208  13.565
 3997SOL    HW213831   9.941  10.173  13.675
 3998SOL     OW13832  11.877  12.865  13.146
 3998SOL    HW113833  11.805  12.863  13.082
 3998SOL    HW213834  11.912  12.775  13.146
 3999SOL     OW13835  10.208  13.664   6.911
 3999SOL    HW113836  10.158  13.677   6.830
 3999SOL    HW213837  10.174  13.731   6.970
 4000SOL     OW13838   9.462   9.276   7.885
 4000SOL    HW113839   9.410   9.336   7.831
 4000SOL    HW213840   9.420   9.191   7.874
 4001SOL     OW13841   4.584  10.350  10.277
 4001SOL    HW113842   4.578  10.255  10.277
 4001SOL    HW213843   4.675  10.369  10.254
 4002SOL     OW13844   1.270   2.285  14.701
 4002SOL    HW113845   1.292   2.252  14.614
 4002SOL    HW213846   1.271   2.380  14.692
 4003SOL     OW13847  10.707   4.259  11.559
 4003SOL    HW113848  10.776   4.196  11.539
 4003SOL    HW213849  10.710   4.269  11.654
 4004SOL     OW13850   0.023   2.706   5.935
 4004SOL    HW113851   0.098   2.651   5.956
 4004SOL    HW213852  14.852   2.710   6.016
 4005SOL     OW13853   8.325  14.226   0.554
 4005SOL    HW113854   8.414  14.225   0.519
 4005SOL    HW213855   8.269  14.199   0.481
 4006SOL     OW13856   9.035   4.899  11.528
 4006SOL    HW113857   8.995   4.973  11.481
 4006SOL    HW213858   9.106   4.870  11.471
 4007SOL     OW13859  11.603   4.201   6.985
 4007SOL    HW113860  11.551   4.146   6.928
 4007SOL    HW213861  11.556   4.201   7.068
 4008SOL     OW13862   6.736   2.234  12.710
 4008SOL    HW113863   6.731   2.323  12.745
 4008SOL    HW213864   6.685   2.181  12.771
 4009SOL     OW13865   5.431  10.867   3.512
 4009SOL    HW113866   5.389  10.873   3.426
 4009SOL    HW213867   5.519  10.901   3.498
 4010SOL     OW13868   0.449  10.461  11.641
 4010SOL    HW113869   0.543  10.477  11.648
 4010SOL    HW213870   0.433  10.388  11.701
 4011SOL     OW13871   9.093  11.262   1.998
 4011SOL    HW113872   9.077  11.261   1.904
 4011SOL    HW213873   9.188  11.253   2.006
 4012SOL     OW13874  10.817   5.152   8.075
 4012SOL    HW113875  10.756   5.117   8.010
 4012SOL    HW213876  10.886   5.085   8.082
 4013SOL     OW13877   3.319   0.562  13.197
 4013SOL    HW113878   3.322   0.657  13.191
 4013SOL    HW213879   3.232   0.542  13.232
 4014SOL     OW13880   4.691   8.110  10.799
 4014SOL    HW113881   4.752   8.080  10.732
 4014SOL    HW213882   4.704   8.204  10.803
 4015SOL     OW13883  13.460   9.292  13.750
 4015SOL    HW113884  13.515   9.265  13.824
 4015SOL    HW213885  13.427   9.378  13.776
 4016SOL     OW13886   9.522   1.475   6.881
 4016SOL    HW113887   9.456   1.502   6.817
 4016SOL    HW213888   9.605   1.482   6.834
 4017SOL     OW13889   0.339   2.143   3.119
 4017SOL    HW113890   0.404   2.186   3.175
 4017SOL    HW213891   0.293   2.215   3.076
 4018SOL     OW13892   4.182   7.477  12.419
 4018SOL    HW113893   4.274   7.501  12.418
 4018SOL    HW213894   4.157   7.481  12.511
 4019SOL     OW13895   4.257  12.536  11.755
 4019SOL    HW113896   4.257  12.457  11.809
 4019SOL    HW213897   4.172  12.576  11.772
 4020SOL     OW13898  13.184   5.089   0.414
 4020SOL    HW113899  13.183   5.183   0.395
 4020SOL    HW213900  13.199   5.048   0.330
 4021SOL     OW13901  13.033   1.341   0.170
 4021SOL    HW113902  13.063   1.253   0.191
 4021SOL    HW213903  12.973   1.364   0.240
 4022SOL     OW13904   9.123   6.513   1.534
 4022SOL    HW113905   9.198   6.476   1.581
 4022SOL    HW213906   9.160   6.586   1.485
 4023SOL     OW13907  12.930  10.538   8.961
 4023SOL    HW113908  12.939  10.456   8.913
 4023SOL    HW213909  12.840  10.566   8.945
 4024SOL     OW13910   9.748   6.310  14.688
 4024SOL    HW113911   9.680   6.251  14.722
 4024SOL    HW213912   9.817   6.251  14.657
 4025SOL     OW13913   6.307  13.673  11.538
 4025SOL    HW113914   6.247  13.742  11.567
 4025SOL    HW213915   6.272  13.644  11.455
 4026SOL     OW13916   0.629   4.401  11.040
 4026SOL    HW113917   0.598   4.485  11.074
 4026SOL    HW213918   0.724   4.410  11.038
 4027SOL     OW13919  13.654   6.628   1.962
 4027SOL    HW113920  13.665   6.554   1.902
 4027SOL    HW213921  13.567   6.615   2.000
 4028SOL     OW13922   7.595  14.684   8.208
 4028SOL    HW113923   7.662  14.727   8.262
 4028SOL    HW213924   7.542  14.755   8.173
 4029SOL     OW13925  12.457  10.280  10.759
 4029SOL    HW113926  12.439  10.187  10.770
 4029SOL    HW213927  12.447  10.296  10.665
 4030SOL     OW13928   2.071  12.794   7.248
 4030SOL    HW113929   1.998  12.733   7.232
 4030SOL    HW213930   2.111  12.763   7.330
 4031SOL     OW13931   7.523   3.784   8.369
 4031SOL    HW113932   7.599   3.801   8.313
 4031SOL    HW213933   7.485   3.702   8.335
 4032SOL     OW13934   9.688   7.235   0.557
 4032SOL    HW113935   9.684   7.223   0.462
 4032SOL    HW213936   9.781   7.228   0.578
 4033SOL     OW13937   8.769  12.655   0.876
 4033SOL    HW113938   8.728  12.609   0.949
 4033SOL    HW213939   8.788  12.586   0.812
 4034SOL     OW13940  10.621   6.143   8.899
 4034SOL    HW113941  10.706   6.125   8.860
 4034SOL    HW213942  10.571   6.185   8.829
 4035SOL     OW13943   6.738   9.522   8.276
 4035SOL    HW113944   6.811   9.487   8.226
 4035SOL    HW213945   6.660   9.497   8.226
 4036SOL     OW13946   8.351   1.214   1.962
 4036SOL    HW113947   8.369   1.202   2.055
 4036SOL    HW213948   8.437   1.207   1.920
 4037SOL     OW13949   2.221  13.282  14.179
 4037SOL    HW113950   2.303  13.260  14.223
 4037SOL    HW213951   2.225  13.377  14.168
 4038SOL     OW13952  12.468  10.966   2.427
 4038SOL    HW113953  12.383  10.964   2.384
 4038SOL    HW213954  12.451  10.936   2.516
 4039SOL     OW13955  10.254   9.829   0.310
 4039SOL    HW113956  10.342   9.796   0.328
 4039SOL    HW213957  10.203   9.806   0.388
 4040SOL     OW13958  10.191   1.023   6.019
 4040SOL    HW113959  10.179   1.116   6.037
 4040SOL    HW213960  10.285   1.013   6.004
 4041SOL     OW13961  10.154  13.464   1.026
 4041SOL    HW113962  10.095  13.391   1.041
 4041SOL    HW213963  10.098  13.535   0.994
 4042SOL     OW13964   7.642   9.072   3.298
 4042SOL    HW113965   7.603   9.076   3.210
 4042SOL    HW213966   7.571   9.042   3.354
 4043SOL     OW13967   8.432   1.200   5.572
 4043SOL    HW113968   8.470   1.158   5.649
 4043SOL    HW213969   8.461   1.291   5.575
 4044SOL     OW13970   8.651   4.655   0.528
 4044SOL    HW113971   8.724   4.670   0.468
 4044SOL    HW213972   8.583   4.717   0.499
 4045SOL     OW13973  12.509  12.596   2.012
 4045SOL    HW113974  12.499  12.691   2.012
 4045SOL    HW213975  12.428  12.564   2.054
 4046SOL     OW13976   3.334  10.739  14.135
 4046SOL    HW113977   3.285  10.820  14.121
 4046SOL    HW213978   3.404  10.764  14.195
 4047SOL     OW13979   5.322   1.227   3.022
 4047SOL    HW113980   5.278   1.170   3.085
 4047SOL    HW213981   5.370   1.167   2.965
 4048SOL     OW13982   5.389  12.175  13.303
 4048SOL    HW113983   5.350  12.106  13.250
 4048SOL    HW213984   5.467  12.136  13.343
 4049SOL     OW13985   4.867  14.207   9.135
 4049SOL    HW113986   4.889  14.267   9.064
 4049SOL    HW213987   4.788  14.245   9.175
 4050SOL     OW13988  14.665   2.449  12.230
 4050SOL    HW113989  14.686   2.535  12.267
 4050SOL    HW213990  14.722   2.389  12.277
 4051SOL     OW13991   7.791   8.342   9.166
 4051SOL    HW113992   7.864   8.388   9.124
 4051SOL    HW213993   7.748   8.409   9.219
 4052SOL     OW13994   8.683  11.574   0.202
 4052SOL    HW113995   8.709  11.589   0.111
 4052SOL    HW213996   8.742  11.506   0.233
 4053SOL     OW13997   1.404   5.215   9.561
 4053SOL    HW113998   1.484   5.243   9.517
 4053SOL    HW213999   1.338   5.215   9.493
 4054SOL     OW14000  13.519   7.398   7.555
 4054SOL    HW114001  13.479   7.324   7.600
 4054SOL    HW214002  13.445   7.454   7.531
 4055SOL     OW14003   2.190   7.122  10.751
 4055SOL    HW114004   2.212   7.187  10.683
 4055SOL    HW214005   2.269   7.115  10.803
 4056SOL     OW14006   7.150  12.074   6.119
 4056SOL    HW114007   7.224  12.013   6.120
 4056SOL    HW214008   7.073  12.018   6.124
 4057SOL     OW14009   6.998   2.882   7.476
 4057SOL    HW114010   7.019   2.823   7.549
 4057SOL    HW214011   6.990   2.968   7.516
 4058SOL     OW14012  11.443  12.948   6.620
 4058SOL    HW114013  11.395  13.007   6.561
 4058SOL    HW214014  11.384  12.873   6.630
 4059SOL     OW14015   2.157  13.711   8.289
 4059SOL    HW114016   2.221  13.713   8.359
 4059SOL    HW214017   2.205  13.735   8.210
 4060SOL     OW14018   7.709   0.327   3.221
 4060SOL    HW114019   7.745   0.258   3.166
 4060SOL    HW214020   7.784   0.361   3.270
 4061SOL     OW14021   3.556  13.807   0.589
 4061SOL    HW114022   3.635  13.767   0.625
 4061SOL    HW214023   3.580  13.831   0.500
 4062SOL     OW14024   5.486   5.638   2.332
 4062SOL    HW114025   5.440   5.554   2.329
 4062SOL    HW214026   5.551   5.632   2.262
 4063SOL     OW14027   2.765   3.930   5.589
 4063SOL    HW114028   2.743   3.966   5.675
 4063SOL    HW214029   2.790   4.006   5.536
 4064SOL     OW14030   9.910   1.853   1.401
 4064SOL    HW114031   9.893   1.813   1.486
 4064SOL    HW214032   9.854   1.805   1.340
 4065SOL     OW14033  10.006   6.353   3.882
 4065SOL    HW114034  10.015   6.440   3.845
 4065SOL    HW214035   9.960   6.366   3.965
 4066SOL     OW14036   0.268  10.729  13.752
 4066SOL    HW114037   0.237  10.640  13.740
 4066SOL    HW214038   0.297  10.732  13.843
 4067SOL     OW14039   6.718  11.067   0.839
 4067SOL    HW114040   6.671  11.102   0.763
 4067SOL    HW214041   6.672  10.986   0.860
 4068SOL     OW14042  10.276   9.038  14.028
 4068SOL    HW114043  10.333   9.054  14.103
 4068SOL    HW214044  10.307   8.954  13.993
 4069SOL     OW14045   8.324   1.863   3.022
 4069SOL    HW114046   8.300   1.945   2.978
 4069SOL    HW214047   8.248   1.806   3.007
 4070SOL     OW14048  13.987   0.902   6.482
 4070SOL    HW114049  13.991   0.813   6.447
 4070SOL    HW214050  14.056   0.904   6.549
 4071SOL     OW14051   6.456   6.713   6.606
 4071SOL    HW114052   6.520   6.740   6.672
 4071SOL    HW214053   6.450   6.788   6.546
 4072SOL     OW14054   8.336   0.994   4.802
 4072SOL    HW114055   8.342   0.911   4.850
 4072SOL    HW214056   8.413   1.043   4.828
 4073SOL     OW14057   5.394  10.124  11.224
 4073SOL    HW114058   5.324  10.077  11.268
 4073SOL    HW214059   5.371  10.217  11.236
 4074SOL     OW14060   8.098  13.698   0.424
 4074SOL    HW114061   8.076  13.734   0.338
 4074SOL    HW214062   8.109  13.604   0.409
 4075SOL     OW14063   3.178   0.036   3.320
 4075SOL    HW114064   3.086   0.016   3.303
 4075SOL    HW214065   3.222  14.831   3.312
 4076SOL     OW14066  13.640   1.957   9.559
 4076SOL    HW114067  13.645   2.040   9.510
 4076SOL    HW214068  13.605   1.982   9.644
 4077SOL     OW14069   6.467   5.867  14.371
 4077SOL    HW114070   6.523   5.888  14.296
 4077SOL    HW214071   6.487   5.934  14.436
 4078SOL     OW14072  12.151   6.749   9.170
 4078SOL    HW114073  12.157   6.781   9.260
 4078SOL    HW214074  12.183   6.821   9.117
 4079SOL     OW14075   9.562   2.167  11.656
 4079SOL    HW114076   9.533   2.196  11.569
 4079SOL    HW214077   9.481   2.160  11.706
 4080SOL     OW14078  14.777  10.755  12.297
 4080SOL    HW114079  14.851  10.813  12.318
 4080SOL    HW214080  14.701  10.813  12.300
 4081SOL     OW14081   1.521  10.965   6.841
 4081SOL    HW114082   1.573  10.996   6.915
 4081SOL    HW214083   1.526  10.870   6.848
 4082SOL     OW14084  10.840   9.051   5.566
 4082SOL    HW114085  10.750   9.065   5.536
 4082SOL    HW214086  10.880   8.997   5.498
 4083SOL     OW14087  12.052   2.548   5.339
 4083SOL    HW114088  11.998   2.560   5.261
 4083SOL    HW214089  12.074   2.637   5.367
 4084SOL     OW14090   2.037   4.823   2.021
 4084SOL    HW114091   1.980   4.870   2.081
 4084SOL    HW214092   1.977   4.779   1.960
 4085SOL     OW14093   0.721   5.479   9.721
 4085SOL    HW114094   0.650   5.466   9.783
 4085SOL    HW214095   0.800   5.450   9.767
 4086SOL     OW14096  14.568  11.124  11.768
 4086SOL    HW114097  14.597  11.214  11.752
 4086SOL    HW214098  14.502  11.108  11.700
 4087SOL     OW14099  12.440   2.418  12.671
 4087SOL    HW114100  12.532   2.392  12.685
 4087SOL    HW214101  12.437   2.510  12.699
 4088SOL     OW14102  14.179   6.570   2.867
 4088SOL    HW114103  14.227   6.651   2.885
 4088SOL    HW214104  14.204   6.511   2.938
 4089SOL     OW14105   0.879   9.508   9.304
 4089SOL    HW114106   0.893   9.592   9.348
 4089SOL    HW214107   0.785   9.491   9.314
 4090SOL     OW14108   6.744  12.025   3.195
 4090SOL    HW114109   6.688  12.065   3.129
 4090SOL    HW214110   6.704  12.048   3.279
 4091SOL     OW14111   1.207  11.917   6.379
 4091SOL    HW114112   1.291  11.962   6.373
 4091SOL    HW214113   1.229  11.825   6.394
 4092SOL     OW14114  12.221  12.411  14.773
 4092SOL    HW114115  12.239  12.504  14.785
 4092SOL    HW214116  12.248  12.371  14.856
 4093SOL     OW14117   9.792  12.330  13.488
 4093SOL    HW114118   9.717  12.272  13.483
 4093SOL    HW214119   9.784  12.375  13.572
 4094SOL     OW14120   9.096   9.082   4.435
 4094SOL    HW114121   9.020   9.127   4.398
 4094SOL    HW214122   9.060   9.026   4.503
 4095SOL     OW14123   5.302   9.029   8.838
 4095SOL    HW114124   5.336   8.961   8.895
 4095SOL    HW214125   5.324   9.000   8.750
 4096SOL     OW14126  12.842   2.166   0.330
 4096SOL    HW114127  12.796   2.164   0.414
 4096SOL    HW214128  12.896   2.245   0.335
 4097SOL     OW14129   0.883  12.720   1.212
 4097SOL    HW114130   0.974  12.693   1.202
 4097SOL    HW214131   0.857  12.687   1.298
 4098SOL     OW14132   3.858   9.122  11.432
 4098SOL    HW114133   3.839   9.082  11.347
 4098SOL    HW214134   3.825   9.058  11.496
 4099SOL     OW14135   7.715   9.907  12.820
 4099SOL    HW114136   7.655   9.833  12.811
 4099SOL    HW214137   7.801   9.867  12.831
 4100SOL     OW14138   0.385  11.217   2.442
 4100SOL    HW114139   0.469  11.183   2.410
 4100SOL    HW214140   0.320  11.172   2.389
 4101SOL     OW14141   7.459  13.430   4.387
 4101SOL    HW114142   7.492  13.473   4.466
 4101SOL    HW214143   7.457  13.337   4.410
 4102SOL     OW14144  11.051  10.227   6.391
 4102SOL    HW114145  11.145  10.213   6.403
 4102SOL    HW214146  11.044  10.265   6.304
 4103SOL     OW14147   1.081  10.600  14.359
 4103SOL    HW114148   1.070  10.619  14.265
 4103SOL    HW214149   1.168  10.634  14.380
 4104SOL     OW14150  10.228   2.286   1.380
 4104SOL    HW114151  10.155   2.225   1.370
 4104SOL    HW214152  10.193   2.370   1.351
 4105SOL     OW14153   6.314  11.608   6.296
 4105SOL    HW114154   6.352  11.573   6.215
 4105SOL    HW214155   6.221  11.620   6.277
 4106SOL     OW14156  13.147   6.378  12.552
 4106SOL    HW114157  13.239   6.350  12.559
 4106SOL    HW214158  13.126   6.370  12.459
 4107SOL     OW14159   6.166   5.565   6.511
 4107SOL    HW114160   6.201   5.479   6.489
 4107SOL    HW214161   6.149   5.561   6.605
 4108SOL     OW14162   3.270  12.831  10.199
 4108SOL    HW114163   3.229  12.842  10.114
 4108SOL    HW214164   3.219  12.886  10.258
 4109SOL     OW14165   8.853   1.579   9.425
 4109SOL    HW114166   8.768   1.615   9.450
 4109SOL    HW214167   8.873   1.516   9.494
 4110SOL     OW14168   3.832   3.666   2.516
 4110SOL    HW114169   3.882   3.647   2.436
 4110SOL    HW214170   3.899   3.675   2.584
 4111SOL     OW14171   0.379   5.974  10.232
 4111SOL    HW114172   0.323   6.018  10.296
 4111SOL    HW214173   0.387   5.884  10.265
 4112SOL     OW14174   3.102   5.834  14.510
 4112SOL    HW114175   3.018   5.838  14.555
 4112SOL    HW214176   3.150   5.911  14.541
 4113SOL     OW14177   6.168  11.909   3.042
 4113SOL    HW114178   6.178  11.816   3.063
 4113SOL    HW214179   6.219  11.954   3.110
 4114SOL     OW14180   6.661  14.298  14.111
 4114SOL    HW114181   6.634  14.384  14.145
 4114SOL    HW214182   6.716  14.262  14.181
 4115SOL     OW14183  13.727   4.153   5.697
 4115SOL    HW114184  13.694   4.067   5.724
 4115SOL    HW214185  13.664   4.215   5.735
 4116SOL     OW14186   7.660   1.017   0.464
 4116SOL    HW114187   7.674   1.102   0.504
 4116SOL    HW214188   7.694   1.027   0.375
 4117SOL     OW14189   4.172   8.279  12.454
 4117SOL    HW114190   4.142   8.202  12.504
 4117SOL    HW214191   4.118   8.278  12.375
 4118SOL     OW14192   2.064   6.686  11.400
 4118SOL    HW114193   2.039   6.647  11.316
 4118SOL    HW214194   2.002   6.649  11.463
 4119SOL     OW14195   5.637   5.404   7.322
 4119SOL    HW114196   5.631   5.431   7.414
 4119SOL    HW214197   5.549   5.374   7.300
 4120SOL     OW14198  14.754   1.830  11.201
 4120SOL    HW114199  14.713   1.907  11.162
 4120SOL    HW214200  14.847   1.851  11.203
 4121SOL     OW14201   4.811  11.869  11.678
 4121SOL    HW114202   4.812  11.907  11.590
 4121SOL    HW214203   4.821  11.775  11.664
 4122SOL     OW14204  13.809  14.201   0.338
 4122SOL    HW114205  13.779  14.118   0.375
 4122SOL    HW214206  13.785  14.267   0.404
 4123SOL     OW14207   4.030  10.151   6.905
 4123SOL    HW114208   3.996  10.062   6.917
 4123SOL    HW214209   4.118  10.148   6.942
 4124SOL     OW14210   6.796   6.954  12.447
 4124SOL    HW114211   6.702   6.936  12.447
 4124SOL    HW214212   6.837   6.873  12.478
 4125SOL     OW14213   1.171   5.074   0.811
 4125SOL    HW114214   1.172   5.056   0.905
 4125SOL    HW214215   1.112   5.008   0.775
 4126SOL     OW14216   0.350  10.478  11.405
 4126SOL    HW114217   0.390  10.474  11.492
 4126SOL    HW214218   0.312  10.566  11.402
 4127SOL     OW14219   1.762   7.452   7.979
 4127SOL    HW114220   1.691   7.388   7.977
 4127SOL    HW214221   1.767   7.485   7.889
 4128SOL     OW14222   2.073   7.750  14.761
 4128SOL    HW114223   2.046   7.836  14.729
 4128SOL    HW214224   2.150   7.769  14.815
 4129SOL     OW14225  10.300   1.082   3.083
 4129SOL    HW114226  10.323   0.993   3.057
 4129SOL    HW214227  10.383   1.129   3.087
 4130SOL     OW14228  12.332   4.257  14.284
 4130SOL    HW114229  12.327   4.214  14.369
 4130SOL    HW214230  12.426   4.272  14.270
 4131SOL     OW14231  10.091  10.275   8.983
 4131SOL    HW114232  10.055  10.233   8.905
 4131SOL    HW214233  10.175  10.312   8.954
 4132SOL     OW14234   7.206   1.579   3.247
 4132SOL    HW114235   7.204   1.666   3.287
 4132SOL    HW214236   7.178   1.520   3.317
 4133SOL     OW14237   9.081   1.074   8.424
 4133SOL    HW114238   9.142   1.001   8.413
 4133SOL    HW214239   9.032   1.053   8.504
 4134SOL     OW14240   3.091   5.628   0.440
 4134SOL    HW114241   3.101   5.632   0.535
 4134SOL    HW214242   3.082   5.719   0.413
 4135SOL     OW14243   3.339   1.132  12.003
 4135SOL    HW114244   3.265   1.118  12.062
 4135SOL    HW214245   3.339   1.226  11.985
 4136SOL     OW14246   2.864   8.193   3.459
 4136SOL    HW114247   2.935   8.241   3.503
 4136SOL    HW214248   2.856   8.111   3.509
 4137SOL     OW14249   6.407   0.078   0.055
 4137SOL    HW114250   6.406   0.101   0.148
 4137SOL    HW214251   6.482   0.020   0.046
 4138SOL     OW14252   2.616   6.814  11.060
 4138SOL    HW114253   2.677   6.740  11.068
 4138SOL    HW214254   2.565   6.794  10.982
 4139SOL     OW14255   0.209   5.412  13.371
 4139SOL    HW114256   0.218   5.344  13.304
 4139SOL    HW214257   0.299   5.437  13.392
 4140SOL     OW14258   3.653  12.508   5.064
 4140SOL    HW114259   3.659  12.558   5.146
 4140SOL    HW214260   3.721  12.546   5.008
 4141SOL     OW14261   1.273  12.943   4.547
 4141SOL    HW114262   1.326  12.967   4.622
 4141SOL    HW214263   1.317  12.866   4.510
 4142SOL     OW14264   0.773   4.465   8.235
 4142SOL    HW114265   0.805   4.388   8.282
 4142SOL    HW214266   0.837   4.534   8.253
 4143SOL     OW14267   8.607   7.993  10.371
 4143SOL    HW114268   8.606   7.987  10.275
 4143SOL    HW214269   8.644   8.079  10.389
 4144SOL     OW14270   9.649   2.620  14.553
 4144SOL    HW114271   9.579   2.684  14.535
 4144SOL    HW214272   9.664   2.626  14.647
 4145SOL     OW14273  13.623  10.538   0.096
 4145SOL    HW114274  13.575  10.457   0.115
 4145SOL    HW214275  13.569  10.583   0.031
 4146SOL     OW14276   2.465   7.790   0.386
 4146SOL    HW114277   2.439   7.870   0.340
 4146SOL    HW214278   2.466   7.815   0.478
 4147SOL     OW14279   6.161   4.667   6.517
 4147SOL    HW114280   6.149   4.726   6.592
 4147SOL    HW214281   6.197   4.723   6.448
 4148SOL     OW14282  10.817   7.288   3.753
 4148SOL    HW114283  10.788   7.282   3.662
 4148SOL    HW214284  10.894   7.231   3.757
 4149SOL     OW14285   0.397   2.376  14.793
 4149SOL    HW114286   0.310   2.412  14.809
 4149SOL    HW214287   0.457   2.444  14.825
 4150SOL     OW14288  12.932   4.166   4.335
 4150SOL    HW114289  12.948   4.076   4.362
 4150SOL    HW214290  12.839   4.180   4.349
 4151SOL     OW14291   2.498   1.425   8.901
 4151SOL    HW114292   2.515   1.446   8.810
 4151SOL    HW214293   2.403   1.426   8.910
 4152SOL     OW14294   0.553   2.923  14.540
 4152SOL    HW114295   0.569   2.985  14.611
 4152SOL    HW214296   0.640   2.893  14.514
 4153SOL     OW14297   9.900   2.445  11.835
 4153SOL    HW114298   9.850   2.363  11.838
 4153SOL    HW214299   9.835   2.511  11.810
 4154SOL     OW14300  11.231   0.790   4.931
 4154SOL    HW114301  11.181   0.861   4.892
 4154SOL    HW214302  11.282   0.753   4.858
 4155SOL     OW14303   1.989  11.249   5.163
 4155SOL    HW114304   1.990  11.153   5.169
 4155SOL    HW214305   2.081  11.273   5.161
 4156SOL     OW14306   0.639   5.201  12.918
 4156SOL    HW114307   0.556   5.204  12.870
 4156SOL    HW214308   0.615   5.209  13.010
 4157SOL     OW14309  11.633   5.504   2.233
 4157SOL    HW114310  11.549   5.486   2.191
 4157SOL    HW214311  11.627   5.459   2.317
 4158SOL     OW14312  11.418  13.953   7.943
 4158SOL    HW114313  11.357  14.026   7.939
 4158SOL    HW214314  11.390  13.895   7.872
 4159SOL     OW14315  12.785   8.198   6.801
 4159SOL    HW114316  12.705   8.196   6.854
 4159SOL    HW214317  12.755   8.195   6.710
 4160SOL     OW14318   2.546   5.240  10.123
 4160SOL    HW114319   2.538   5.189  10.042
 4160SOL    HW214320   2.457   5.268  10.142
 4161SOL     OW14321   1.153   6.640   6.868
 4161SOL    HW114322   1.134   6.635   6.961
 4161SOL    HW214323   1.078   6.687   6.831
 4162SOL     OW14324  10.764   8.587   3.927
 4162SOL    HW114325  10.704   8.647   3.883
 4162SOL    HW214326  10.805   8.639   3.996
 4163SOL     OW14327   7.622   7.507   2.753
 4163SOL    HW114328   7.654   7.445   2.819
 4163SOL    HW214329   7.629   7.593   2.796
 4164SOL     OW14330  14.601  13.616   3.549
 4164SOL    HW114331  14.597  13.615   3.644
 4164SOL    HW214332  14.629  13.705   3.527
 4165SOL     OW14333   5.127   7.993  11.250
 4165SOL    HW114334   5.114   8.008  11.157
 4165SOL    HW214335   5.039   7.972  11.283
 4166SOL     OW14336  13.770   8.490  11.704
 4166SOL    HW114337  13.761   8.544  11.626
 4166SOL    HW214338  13.790   8.552  11.774
 4167SOL     OW14339   3.904   7.574   3.349
 4167SOL    HW114340   3.871   7.485   3.354
 4167SOL    HW214341   3.826   7.629   3.344
 4168SOL     OW14342   3.503  12.124   2.138
 4168SOL    HW114343   3.469  12.087   2.057
 4168SOL    HW214344   3.448  12.086   2.207
 4169SOL     OW14345  14.504  10.653  10.776
 4169SOL    HW114346  14.481  10.563  10.755
 4169SOL    HW214347  14.520  10.652  10.870
 4170SOL     OW14348   1.544  11.464   6.705
 4170SOL    HW114349   1.618  11.421   6.663
 4170SOL    HW214350   1.472  11.401   6.698
 4171SOL     OW14351   7.150  10.391   2.157
 4171SOL    HW114352   7.131  10.460   2.220
 4171SOL    HW214353   7.071  10.384   2.104
 4172SOL     OW14354   0.822  12.089   0.049
 4172SOL    HW114355   0.834  12.184   0.053
 4172SOL    HW214356   0.729  12.076   0.067
 4173SOL     OW14357  11.065   7.158   8.994
 4173SOL    HW114358  10.991   7.167   8.934
 4173SOL    HW214359  11.026   7.157   9.081
 4174SOL     OW14360  12.224   0.458  14.644
 4174SOL    HW114361  12.297   0.402  14.673
 4174SOL    HW214362  12.198   0.506  14.723
 4175SOL     OW14363   9.796   5.933   2.344
 4175SOL    HW114364   9.723   5.899   2.396
 4175SOL    HW214365   9.779   6.027   2.336
 4176SOL     OW14366   0.884   1.423   0.091
 4176SOL    HW114367   0.976   1.431   0.116
 4176SOL    HW214368   0.861   1.333   0.115
 4177SOL     OW14369   1.434   5.209  10.295
 4177SOL    HW114370   1.421   5.300  10.271
 4177SOL    HW214371   1.421   5.206  10.390
 4178SOL     OW14372   4.357   2.511   1.517
 4178SOL    HW114373   4.328   2.512   1.425
 4178SOL    HW214374   4.280   2.538   1.567
 4179SOL     OW14375   1.237  10.381   4.063
 4179SOL    HW114376   1.242  10.473   4.035
 4179SOL    HW214377   1.279  10.333   3.992
 4180SOL     OW14378   5.632   2.638  12.117
 4180SOL    HW114379   5.592   2.708  12.065
 4180SOL    HW214380   5.719   2.627  12.080
 4181SOL     OW14381  10.576  14.559   3.044
 4181SOL    HW114382  10.588  14.510   3.125
 4181SOL    HW214383  10.526  14.500   2.987
 4182SOL     OW14384   1.059   0.883  12.751
 4182SOL    HW114385   1.079   0.949  12.685
 4182SOL    HW214386   1.055   0.800  12.702
 4183SOL     OW14387  14.477  14.544   6.020
 4183SOL    HW114388  14.468  14.451   6.040
 4183SOL    HW214389  14.504  14.546   5.928
 4184SOL     OW14390   2.196   7.004   1.626
 4184SOL    HW114391   2.160   7.020   1.539
 4184SOL    HW214392   2.148   7.064   1.683
 4185SOL     OW14393   5.595   3.051   6.305
 4185SOL    HW114394   5.549   3.134   6.316
 4185SOL    HW214395   5.528   2.984   6.321
 4186SOL     OW14396   9.869  14.759  10.670
 4186SOL    HW114397   9.782  14.798  10.681
 4186SOL    HW214398   9.892  14.727  10.758
 4187SOL     OW14399   5.441   6.273   2.817
 4187SOL    HW114400   5.412   6.284   2.727
 4187SOL    HW214401   5.447   6.362   2.851
 4188SOL     OW14402   3.446   1.826   1.580
 4188SOL    HW114403   3.540   1.836   1.595
 4188SOL    HW214404   3.432   1.731   1.578
 4189SOL     OW14405   9.245   4.186   4.815
 4189SOL    HW114406   9.338   4.199   4.794
 4189SOL    HW214407   9.244   4.103   4.863
 4190SOL     OW14408   9.226   0.735   6.687
 4190SOL    HW114409   9.173   0.797   6.637
 4190SOL    HW214410   9.315   0.750   6.656
 4191SOL     OW14411   9.433  11.660   9.369
 4191SOL    HW114412   9.381  11.652   9.289
 4191SOL    HW214413   9.502  11.723   9.346
 4192SOL     OW14414   3.889   6.357   0.299
 4192SOL    HW114415   3.904   6.436   0.350
 4192SOL    HW214416   3.859   6.292   0.363
 4193SOL     OW14417   6.454   3.277   4.422
 4193SOL    HW114418   6.454   3.372   4.433
 4193SOL    HW214419   6.395   3.245   4.490
 4194SOL     OW14420  13.566   2.617   6.229
 4194SOL    HW114421  13.626   2.563   6.178
 4194SOL    HW214422  13.591   2.600   6.320
 4195SOL     OW14423   7.266   6.198   5.331
 4195SOL    HW114424   7.182   6.186   5.286
 4195SOL    HW214425   7.249   6.172   5.421
 4196SOL     OW14426  14.171   7.877   2.260
 4196SOL    HW114427  14.076   7.887   2.251
 4196SOL    HW214428  14.201   7.852   2.173
 4197SOL     OW14429   4.253   5.312   5.136
 4197SOL    HW114430   4.289   5.373   5.071
 4197SOL    HW214431   4.296   5.336   5.218
 4198SOL     OW14432   6.039   6.130   8.516
 4198SOL    HW114433   6.091   6.090   8.447
 4198SOL    HW214434   6.018   6.217   8.484
 4199SOL     OW14435   8.263   0.000   8.887
 4199SOL    HW114436   8.229   0.083   8.920
 4199SOL    HW214437   8.342   0.024   8.839
 4200SOL     OW14438  12.718   6.649  11.145
 4200SOL    HW114439  12.636   6.699  11.154
 4200SOL    HW214440  12.787   6.714  11.158
 4201SOL     OW14441   6.452   9.872   7.407
 4201SOL    HW114442   6.434   9.825   7.325
 4201SOL    HW214443   6.539   9.841   7.433
 4202SOL     OW14444  14.503   7.015   7.939
 4202SOL    HW114445  14.584   7.038   7.984
 4202SOL    HW214446  14.458   7.098   7.926
 4203SOL     OW14447  12.944   8.011  10.242
 4203SOL    HW114448  12.879   7.950  10.278
 4203SOL    HW214449  13.009   7.955  10.200
 4204SOL     OW14450  14.289   1.731   1.800
 4204SOL    HW114451  14.358   1.695   1.742
 4204SOL    HW214452  14.208   1.695   1.764
 4205SOL     OW14453   7.387  12.686  12.580
 4205SOL    HW114454   7.428  12.752  12.523
 4205SOL    HW214455   7.414  12.602  12.542
 4206SOL     OW14456   1.151   5.405   6.284
 4206SOL    HW114457   1.185   5.316   6.291
 4206SOL    HW214458   1.062   5.394   6.250
 4207SOL     OW14459  13.009  13.100   4.016
 4207SOL    HW114460  13.033  13.029   4.075
 4207SOL    HW214461  13.086  13.156   4.012
 4208SOL     OW14462   4.795   9.836  12.615
 4208SOL    HW114463   4.788   9.743  12.597
 4208SOL    HW214464   4.889   9.851  12.630
 4209SOL     OW14465   0.648   3.341   1.190
 4209SOL    HW114466   0.688   3.427   1.203
 4209SOL    HW214467   0.566   3.346   1.238
 4210SOL     OW14468   3.358   6.443   4.532
 4210SOL    HW114469   3.295   6.511   4.507
 4210SOL    HW214470   3.331   6.367   4.481
 4211SOL     OW14471   6.584  12.604   2.247
 4211SOL    HW114472   6.618  12.687   2.215
 4211SOL    HW214473   6.501  12.593   2.201
 4212SOL     OW14474   4.407  12.089   9.354
 4212SOL    HW114475   4.461  12.131   9.287
 4212SOL    HW214476   4.327  12.064   9.308
 4213SOL     OW14477  11.956   7.402  11.917
 4213SOL    HW114478  11.980   7.310  11.908
 4213SOL    HW214479  11.868   7.400  11.956
 4214SOL     OW14480   7.447  13.286   3.455
 4214SOL    HW114481   7.434  13.203   3.410
 4214SOL    HW214482   7.403  13.351   3.400
 4215SOL     OW14483   1.204   3.390   6.154
 4215SOL    HW114484   1.129   3.407   6.211
 4215SOL    HW214485   1.235   3.476   6.129
 4216SOL     OW14486  13.704  14.684   9.794
 4216SOL    HW114487  13.746  14.690   9.708
 4216SOL    HW214488  13.617  14.650   9.776
 4217SOL     OW14489   6.634  14.453  11.465
 4217SOL    HW114490   6.580  14.374  11.460
 4217SOL    HW214491   6.600  14.501  11.540
 4218SOL     OW14492   8.826   1.077   1.417
 4218SOL    HW114493   8.890   1.011   1.442
 4218SOL    HW214494   8.875   1.160   1.419
 4219SOL     OW14495  11.853  11.973   9.663
 4219SOL    HW114496  11.870  12.046   9.721
 4219SOL    HW214497  11.928  11.915   9.674
 4220SOL     OW14498   7.857  11.431   1.776
 4220SOL    HW114499   7.899  11.353   1.812
 4220SOL    HW214500   7.876  11.427   1.682
 4221SOL     OW14501  11.756   3.362   5.072
 4221SOL    HW114502  11.734   3.342   4.981
 4221SOL    HW214503  11.681   3.413   5.104
 4222SOL     OW14504   4.155   3.829  14.556
 4222SOL    HW114505   4.084   3.795  14.501
 4222SOL    HW214506   4.202   3.889  14.498
 4223SOL     OW14507   6.302   1.138   0.197
 4223SOL    HW114508   6.384   1.180   0.173
 4223SOL    HW214509   6.304   1.132   0.292
 4224SOL     OW14510   4.734   9.385  14.105
 4224SOL    HW114511   4.797   9.440  14.060
 4224SOL    HW214512   4.765   9.382  14.196
 4225SOL     OW14513   8.005  11.085   1.093
 4225SOL    HW114514   7.961  11.107   1.011
 4225SOL    HW214515   7.999  11.165   1.146
 4226SOL     OW14516   8.758  11.491   6.939
 4226SOL    HW114517   8.807  11.552   6.884
 4226SOL    HW214518   8.794  11.405   6.918
 4227SOL     OW14519   5.447  14.703   8.387
 4227SOL    HW114520   5.416  14.778   8.438
 4227SOL    HW214521   5.542  14.714   8.383
 4228SOL     OW14522   0.420   0.009   7.934
 4228SOL    HW114523   0.461  14.802   7.945
 4228SOL    HW214524   0.468   0.049   7.861
 4229SOL     OW14525   2.977  10.393  12.294
 4229SOL    HW114526   2.911  10.409  12.361
 4229SOL    HW214527   3.060  10.395  12.342
 4230SOL     OW14528   0.827   0.096  11.737
 4230SOL    HW114529   0.785   0.133  11.659
 4230SOL    HW214530   0.803   0.156  11.808
 4231SOL     OW14531   1.102   3.279   3.285
 4231SOL    HW114532   1.134   3.239   3.366
 4231SOL    HW214533   1.036   3.343   3.314
 4232SOL     OW14534  10.115  14.636   7.589
 4232SOL    HW114535  10.077  14.555   7.554
 4232SOL    HW214536  10.054  14.662   7.658
 4233SOL     OW14537  11.225   0.874   9.906
 4233SOL    HW114538  11.191   0.811   9.843
 4233SOL    HW214539  11.225   0.826   9.989
 4234SOL     OW14540   4.367  14.138  11.017
 4234SOL    HW114541   4.397  14.226  10.993
 4234SOL    HW214542   4.277  14.152  11.047
 4235SOL     OW14543   5.625   6.816   6.202
 4235SOL    HW114544   5.601   6.725   6.218
 4235SOL    HW214545   5.615   6.828   6.107
 4236SOL     OW14546   7.863  14.195   2.730
 4236SOL    HW114547   7.866  14.101   2.746
 4236SOL    HW214548   7.782  14.224   2.773
 4237SOL     OW14549   4.657   2.065   8.337
 4237SOL    HW114550   4.643   2.121   8.261
 4237SOL    HW214551   4.626   2.117   8.411
 4238SOL     OW14552  14.613   1.121   2.152
 4238SOL    HW114553  14.583   1.086   2.067
 4238SOL    HW214554  14.534   1.120   2.207
 4239SOL     OW14555   6.936   8.145  12.517
 4239SOL    HW114556   6.875   8.133  12.589
 4239SOL    HW214557   6.906   8.225  12.473
 4240SOL     OW14558   9.094   3.763  11.058
 4240SOL    HW114559   9.118   3.856  11.056
 4240SOL    HW214560   9.003   3.761  11.028
 4241SOL     OW14561   8.256  13.176  10.869
 4241SOL    HW114562   8.186  13.211  10.814
 4241SOL    HW214563   8.332  13.172  10.812
 4242SOL     OW14564  13.664   2.953   1.421
 4242SOL    HW114565  13.741   2.924   1.372
 4242SOL    HW214566  13.607   2.876   1.423
 4243SOL     OW14567  14.443   0.508   0.099
 4243SOL    HW114568  14.420   0.417   0.079
 4243SOL    HW214569  14.403   0.524   0.185
 4244SOL     OW14570  11.847  11.282   8.391
 4244SOL    HW114571  11.906  11.260   8.463
 4244SOL    HW214572  11.843  11.377   8.391
 4245SOL     OW14573  14.698   9.006   1.536
 4245SOL    HW114574  14.619   9.035   1.580
 4245SOL    HW214575  14.754   9.083   1.531
 4246SOL     OW14576  12.749   6.242  13.292
 4246SOL    HW114577  12.677   6.181  13.305
 4246SOL    HW214578  12.738   6.273  13.202
 4247SOL     OW14579  11.662   2.164   3.009
 4247SOL    HW114580  11.630   2.199   2.926
 4247SOL    HW214581  11.752   2.196   3.015
 4248SOL     OW14582  13.904   4.748  13.975
 4248SOL    HW114583  13.914   4.843  13.969
 4248SOL    HW214584  13.948   4.724  14.057
 4249SOL     OW14585   3.601   8.382  14.613
 4249SOL    HW114586   3.566   8.341  14.534
 4249SOL    HW214587   3.528   8.379  14.675
 4250SOL     OW14588   2.109   2.817  10.223
 4250SOL    HW114589   2.035   2.804  10.283
 4250SOL    HW214590   2.100   2.747  10.159
 4251SOL     OW14591   2.735   9.546   1.351
 4251SOL    HW114592   2.784   9.477   1.307
 4251SOL    HW214593   2.803   9.604   1.388
 4252SOL     OW14594  13.247  11.845   4.070
 4252SOL    HW114595  13.157  11.832   4.042
 4252SOL    HW214596  13.251  11.806   4.158
 4253SOL     OW14597   2.673   7.496   4.121
 4253SOL    HW114598   2.760   7.466   4.098
 4253SOL    HW214599   2.640   7.431   4.182
 4254SOL     OW14600   0.114  12.873   8.646
 4254SOL    HW114601   0.166  12.915   8.715
 4254SOL    HW214602   0.058  12.811   8.694
 4255SOL     OW14603   9.509   8.327   7.699
 4255SOL    HW114604   9.528   8.414   7.665
 4255SOL    HW214605   9.415   8.326   7.714
 4256SOL     OW14606   7.511   8.126   3.579
 4256SOL    HW114607   7.602   8.133   3.549
 4256SOL    HW214608   7.492   8.212   3.617
 4257SOL     OW14609   5.457   8.318   0.580
 4257SOL    HW114610   5.523   8.382   0.553
 4257SOL    HW214611   5.380   8.370   0.602
 4258SOL     OW14612  12.442  12.084   1.221
 4258SOL    HW114613  12.346  12.078   1.223
 4258SOL    HW214614  12.471  12.019   1.285
 4259SOL     OW14615  11.030  11.398  13.486
 4259SOL    HW114616  11.116  11.440  13.492
 4259SOL    HW214617  11.049  11.304  13.485
 4260SOL     OW14618   2.021   8.318   8.067
 4260SOL    HW114619   1.942   8.369   8.084
 4260SOL    HW214620   2.091   8.369   8.108
 4261SOL     OW14621  13.965   5.925  11.784
 4261SOL    HW114622  13.909   5.987  11.830
 4261SOL    HW214623  13.994   5.972  11.706
 4262SOL     OW14624   2.304   4.910   8.298
 4262SOL    HW114625   2.340   4.962   8.371
 4262SOL    HW214626   2.273   4.975   8.236
 4263SOL     OW14627   1.758   2.992  13.294
 4263SOL    HW114628   1.670   2.988  13.332
 4263SOL    HW214629   1.746   2.964  13.203
 4264SOL     OW14630   8.925   9.516  10.831
 4264SOL    HW114631   8.977   9.477  10.901
 4264SOL    HW214632   8.925   9.610  10.852
 4265SOL     OW14633   0.558   8.935   0.751
 4265SOL    HW114634   0.463   8.924   0.747
 4265SOL    HW214635   0.571   9.030   0.757
 4266SOL     OW14636  14.874   5.745   9.447
 4266SOL    HW114637   0.018   5.837   9.462
 4266SOL    HW214638  14.869   5.737   9.352
 4267SOL     OW14639   2.947   0.642   4.073
 4267SOL    HW114640   2.871   0.584   4.082
 4267SOL    HW214641   2.916   0.714   4.017
 4268SOL     OW14642  11.768   9.228  12.125
 4268SOL    HW114643  11.706   9.180  12.070
 4268SOL    HW214644  11.784   9.309  12.077
 4269SOL     OW14645   0.708   0.776   8.893
 4269SOL    HW114646   0.667   0.863   8.888
 4269SOL    HW214647   0.666   0.734   8.968
 4270SOL     OW14648   9.041   0.121   6.982
 4270SOL    HW114649   9.007   0.197   7.030
 4270SOL    HW214650   9.108   0.085   7.041
 4271SOL     OW14651   7.407  14.863   2.726
 4271SOL    HW114652   7.442  14.867   2.815
 4271SOL    HW214653   7.417  14.772   2.701
 4272SOL     OW14654  10.112  11.990   7.079
 4272SOL    HW114655  10.043  12.008   7.015
 4272SOL    HW214656  10.174  12.062   7.070
 4273SOL     OW14657   2.371   4.142  13.235
 4273SOL    HW114658   2.353   4.235  13.254
 4273SOL    HW214659   2.413   4.143  13.149
 4274SOL     OW14660   8.018   4.426  13.117
 4274SOL    HW114661   8.020   4.415  13.212
 4274SOL    HW214662   7.941   4.481  13.101
 4275SOL     OW14663   1.134   1.560   6.223
 4275SOL    HW114664   1.092   1.476   6.202
 4275SOL    HW214665   1.076   1.600   6.288
 4276SOL     OW14666   8.413  11.810  13.774
 4276SOL    HW114667   8.382  11.843  13.689
 4276SOL    HW214668   8.507  11.797  13.762
 4277SOL     OW14669   7.154   2.154   4.638
 4277SOL    HW114670   7.071   2.193   4.664
 4277SOL    HW214671   7.203   2.225   4.597
 4278SOL     OW14672   6.140  13.669   9.147
 4278SOL    HW114673   6.223  13.646   9.188
 4278SOL    HW214674   6.088  13.589   9.151
 4279SOL     OW14675   1.663   0.461  13.058
 4279SOL    HW114676   1.683   0.484  13.149
 4279SOL    HW214677   1.652   0.545  13.014
 4280SOL     OW14678   5.607   3.027   3.162
 4280SOL    HW114679   5.645   2.979   3.236
 4280SOL    HW214680   5.516   2.998   3.159
 4281SOL     OW14681   2.160   1.903  10.124
 4281SOL    HW114682   2.144   1.995  10.147
 4281SOL    HW214683   2.255   1.898  10.110
 4282SOL     OW14684   6.555   8.168   3.778
 4282SOL    HW114685   6.643   8.196   3.754
 4282SOL    HW214686   6.507   8.249   3.793
 4283SOL     OW14687   4.904   8.004  10.623
 4283SOL    HW114688   4.903   7.959  10.538
 4283SOL    HW214689   4.979   8.064  10.617
 4284SOL     OW14690   1.774  11.127  13.773
 4284SOL    HW114691   1.719  11.069  13.826
 4284SOL    HW214692   1.770  11.090  13.685
 4285SOL     OW14693  11.753   8.470  11.025
 4285SOL    HW114694  11.690   8.509  11.084
 4285SOL    HW214695  11.838   8.505  11.053
 4286SOL     OW14696   5.610   0.044   4.294
 4286SOL    HW114697   5.535   0.001   4.335
 4286SOL    HW214698   5.681   0.034   4.357
 4287SOL     OW14699   0.873   3.733   9.688
 4287SOL    HW114700   0.812   3.798   9.725
 4287SOL    HW214701   0.955   3.751   9.733
 4288SOL     OW14702   9.879  14.642   0.796
 4288SOL    HW114703   9.969  14.659   0.827
 4288SOL    HW214704   9.830  14.718   0.827
 4289SOL     OW14705   0.297  13.925   6.484
 4289SOL    HW114706   0.299  13.932   6.389
 4289SOL    HW214707   0.303  13.831   6.502
 4290SOL     OW14708  14.829   2.228   5.357
 4290SOL    HW114709  14.740   2.223   5.323
 4290SOL    HW214710  14.874   2.153   5.318
 4291SOL     OW14711  14.535  13.492  13.100
 4291SOL    HW114712  14.494  13.406  13.115
 4291SOL    HW214713  14.465  13.555  13.117
 4292SOL     OW14714   5.223   0.817  11.847
 4292SOL    HW114715   5.132   0.849  11.848
 4292SOL    HW214716   5.231   0.766  11.928
 4293SOL     OW14717  14.752   8.961  13.181
 4293SOL    HW114718  14.827   9.014  13.207
 4293SOL    HW214719  14.785   8.909  13.107
 4294SOL     OW14720   4.568   8.572   7.132
 4294SOL    HW114721   4.628   8.498   7.124
 4294SOL    HW214722   4.604   8.624   7.205
 4295SOL     OW14723   2.658   8.997  13.788
 4295SOL    HW114724   2.738   9.034  13.752
 4295SOL    HW214725   2.686   8.946  13.864
 4296SOL     OW14726   1.777  13.106   8.349
 4296SOL    HW114727   1.778  13.060   8.433
 4296SOL    HW214728   1.808  13.194   8.369
 4297SOL     OW14729  13.751   6.433   1.144
 4297SOL    HW114730  13.755   6.347   1.102
 4297SOL    HW214731  13.658   6.448   1.160
 4298SOL     OW14732   4.624   4.007   3.893
 4298SOL    HW114733   4.558   4.076   3.882
 4298SOL    HW214734   4.678   4.012   3.814
 4299SOL     OW14735   0.960  14.182   0.415
 4299SOL    HW114736   0.955  14.138   0.330
 4299SOL    HW214737   0.985  14.113   0.476
 4300SOL     OW14738   6.707   2.224   2.887
 4300SOL    HW114739   6.778   2.288   2.878
 4300SOL    HW214740   6.631   2.276   2.909
 4301SOL     OW14741  14.385  12.764   8.475
 4301SOL    HW114742  14.379  12.711   8.396
 4301SOL    HW214743  14.472  12.745   8.510
 4302SOL     OW14744   2.571   7.341   2.819
 4302SOL    HW114745   2.561   7.263   2.874
 4302SOL    HW214746   2.539   7.315   2.733
 4303SOL     OW14747   4.251  12.929   4.562
 4303SOL    HW114748   4.158  12.953   4.557
 4303SOL    HW214749   4.290  12.995   4.619
 4304SOL     OW14750   9.964   4.298  13.623
 4304SOL    HW114751   9.908   4.363  13.580
 4304SOL    HW214752  10.053   4.331  13.611
 4305SOL     OW14753  10.279  10.754  11.633
 4305SOL    HW114754  10.368  10.722  11.641
 4305SOL    HW214755  10.258  10.788  11.720
 4306SOL     OW14756  11.449   2.617  11.758
 4306SOL    HW114757  11.449   2.713  11.764
 4306SOL    HW214758  11.356   2.593  11.755
 4307SOL     OW14759   2.111  12.366   5.894
 4307SOL    HW114760   2.120  12.344   5.801
 4307SOL    HW214761   2.147  12.290   5.940
 4308SOL     OW14762   0.351  14.304   3.600
 4308SOL    HW114763   0.286  14.320   3.531
 4308SOL    HW214764   0.435  14.322   3.558
 4309SOL     OW14765  14.023  12.740  10.843
 4309SOL    HW114766  14.106  12.705  10.808
 4309SOL    HW214767  13.984  12.665  10.888
 4310SOL     OW14768   4.548   1.921  13.052
 4310SOL    HW114769   4.509   1.916  13.140
 4310SOL    HW214770   4.487   1.874  12.996
 4311SOL     OW14771  13.780   2.074   5.501
 4311SOL    HW114772  13.749   1.989   5.470
 4311SOL    HW214773  13.872   2.076   5.479
 4312SOL     OW14774   6.107   1.587  14.458
 4312SOL    HW114775   6.080   1.498  14.434
 4312SOL    HW214776   6.035   1.642  14.427
 4313SOL     OW14777   9.055   8.442   9.863
 4313SOL    HW114778   9.073   8.349   9.846
 4313SOL    HW214779   8.996   8.468   9.793
 4314SOL     OW14780   8.984  14.506   2.712
 4314SOL    HW114781   9.037  14.586   2.720
 4314SOL    HW214782   8.956  14.505   2.620
 4315SOL     OW14783   0.285   6.956   7.278
 4315SOL    HW114784   0.300   7.025   7.213
 4315SOL    HW214785   0.190   6.955   7.290
 4316SOL     OW14786  13.242   5.476   4.037
 4316SOL    HW114787  13.183   5.491   3.963
 4316SOL    HW214788  13.307   5.414   4.004
 4317SOL     OW14789   0.600   6.486  13.067
 4317SOL    HW114790   0.660   6.531  13.007
 4317SOL    HW214791   0.644   6.404  13.088
 4318SOL     OW14792  10.354   8.064   3.478
 4318SOL    HW114793  10.397   8.115   3.547
 4318SOL    HW214794  10.425   8.016   3.436
 4319SOL     OW14795   8.339   8.216   7.943
 4319SOL    HW114796   8.245   8.201   7.936
 4319SOL    HW214797   8.367   8.160   8.016
 4320SOL     OW14798  14.860   6.846   5.406
 4320SOL    HW114799  14.875   6.845   5.501
 4320SOL    HW214800   0.053   6.898   5.371
 4321SOL     OW14801   3.731   2.032  12.341
 4321SOL    HW114802   3.665   1.974  12.377
 4321SOL    HW214803   3.748   1.998  12.253
 4322SOL     OW14804  14.765   0.498   2.990
 4322SOL    HW114805  14.683   0.546   3.002
 4322SOL    HW214806  14.812   0.509   3.073
 4323SOL     OW14807   3.048   0.797   9.878
 4323SOL    HW114808   3.093   0.815   9.796
 4323SOL    HW214809   2.959   0.775   9.852
 4324SOL     OW14810   0.448   0.990   9.173
 4324SOL    HW114811   0.511   1.015   9.106
 4324SOL    HW214812   0.448   1.063   9.235
 4325SOL     OW14813   6.387   5.368   4.954
 4325SOL    HW114814   6.395   5.279   4.987
 4325SOL    HW214815   6.470   5.384   4.909
 4326SOL     OW14816   4.714   0.702   8.864
 4326SOL    HW114817   4.739   0.613   8.841
 4326SOL    HW214818   4.647   0.692   8.931
 4327SOL     OW14819  11.883   3.815   2.157
 4327SOL    HW114820  11.862   3.724   2.178
 4327SOL    HW214821  11.933   3.810   2.076
 4328SOL     OW14822   0.174   5.467   9.118
 4328SOL    HW114823   0.242   5.522   9.080
 4328SOL    HW214824   0.098   5.478   9.061
 4329SOL     OW14825  11.887   5.156   9.116
 4329SOL    HW114826  11.957   5.211   9.154
 4329SOL    HW214827  11.927   5.117   9.039
 4330SOL     OW14828  13.401   5.429   8.132
 4330SOL    HW114829  13.348   5.502   8.100
 4330SOL    HW214830  13.390   5.360   8.066
 4331SOL     OW14831   4.123   8.845  13.997
 4331SOL    HW114832   4.049   8.848  13.936
 4331SOL    HW214833   4.088   8.799  14.073
 4332SOL     OW14834  12.560  13.790   4.674
 4332SOL    HW114835  12.569  13.706   4.629
 4332SOL    HW214836  12.615  13.782   4.751
 4333SOL     OW14837   3.760   9.615  12.325
 4333SOL    HW114838   3.852   9.634  12.340
 4333SOL    HW214839   3.756   9.520  12.313
 4334SOL     OW14840  11.265   3.021   5.947
 4334SOL    HW114841  11.252   2.930   5.974
 4334SOL    HW214842  11.344   3.019   5.893
 4335SOL     OW14843  13.390   3.022   7.039
 4335SOL    HW114844  13.339   3.052   6.965
 4335SOL    HW214845  13.423   2.936   7.012
 4336SOL     OW14846   0.032  11.054  11.114
 4336SOL    HW114847   0.059  11.143  11.136
 4336SOL    HW214848  14.816  11.055  11.126
 4337SOL     OW14849   5.443  11.851   4.172
 4337SOL    HW114850   5.485  11.933   4.198
 4337SOL    HW214851   5.368  11.842   4.231
 4338SOL     OW14852   1.514   1.617   8.075
 4338SOL    HW114853   1.529   1.661   7.992
 4338SOL    HW214854   1.419   1.609   8.080
 4339SOL     OW14855   0.180   4.975   1.784
 4339SOL    HW114856   0.183   4.934   1.870
 4339SOL    HW214857   0.183   4.902   1.723
 4340SOL     OW14858   4.697   1.043   7.051
 4340SOL    HW114859   4.735   1.099   7.119
 4340SOL    HW214860   4.722   1.085   6.969
 4341SOL     OW14861   4.389   2.845   7.912
 4341SOL    HW114862   4.474   2.810   7.886
 4341SOL    HW214863   4.400   2.940   7.908
 4342SOL     OW14864  13.583   7.585   6.572
 4342SOL    HW114865  13.532   7.534   6.635
 4342SOL    HW214866  13.670   7.590   6.610
 4343SOL     OW14867  10.747   0.282   4.737
 4343SOL    HW114868  10.729   0.288   4.831
 4343SOL    HW214869  10.664   0.302   4.694
 4344SOL     OW14870   7.289   6.417   3.984
 4344SOL    HW114871   7.215   6.474   4.004
 4344SOL    HW214872   7.255   6.328   3.996
 4345SOL     OW14873  11.603   1.914   6.524
 4345SOL    HW114874  11.508   1.919   6.529
 4345SOL    HW214875  11.634   1.983   6.582
 4346SOL     OW14876  14.483   2.601   4.661
 4346SOL    HW114877  14.457   2.533   4.598
 4346SOL    HW214878  14.561   2.565   4.703
 4347SOL     OW14879  14.641  13.263  10.483
 4347SOL    HW114880  14.672  13.352  10.499
 4347SOL    HW214881  14.669  13.213  10.560
 4348SOL     OW14882   4.251   5.138   7.121
 4348SOL    HW114883   4.228   5.173   7.035
 4348SOL    HW214884   4.288   5.051   7.103
 4349SOL     OW14885   7.523   0.210   4.109
 4349SOL    HW114886   7.445   0.193   4.162
 4349SOL    HW214887   7.596   0.182   4.164
 4350SOL     OW14888   4.923   0.841  13.861
 4350SOL    HW114889   4.911   0.885  13.777
 4350SOL    HW214890   5.002   0.788  13.849
 4351SOL     OW14891  10.975  10.085   4.665
 4351SOL    HW114892  11.059  10.130   4.675
 4351SOL    HW214893  10.990   9.997   4.699
 4352SOL     OW14894   4.484   9.097   4.735
 4352SOL    HW114895   4.482   9.190   4.755
 4352SOL    HW214896   4.487   9.093   4.639
 4353SOL     OW14897   8.346   9.962   1.034
 4353SOL    HW114898   8.401  10.026   0.990
 4353SOL    HW214899   8.358   9.881   0.984
 4354SOL     OW14900   4.414   5.947  14.414
 4354SOL    HW114901   4.488   5.961  14.355
 4354SOL    HW214902   4.452   5.900  14.489
 4355SOL     OW14903   4.438   4.436   2.731
 4355SOL    HW114904   4.491   4.358   2.716
 4355SOL    HW214905   4.351   4.412   2.698
 4356SOL     OW14906  13.228   2.673   1.054
 4356SOL    HW114907  13.304   2.714   1.096
 4356SOL    HW214908  13.184   2.744   1.010
 4357SOL     OW14909   1.831   2.255   7.762
 4357SOL    HW114910   1.907   2.299   7.801
 4357SOL    HW214911   1.809   2.185   7.825
 4358SOL     OW14912   6.378   1.583   2.437
 4358SOL    HW114913   6.383   1.623   2.524
 4358SOL    HW214914   6.333   1.647   2.383
 4359SOL     OW14915   7.553   5.757   6.548
 4359SOL    HW114916   7.541   5.728   6.458
 4359SOL    HW214917   7.648   5.766   6.558
 4360SOL     OW14918  13.403   3.932   2.310
 4360SOL    HW114919  13.488   3.973   2.325
 4360SOL    HW214920  13.346   4.005   2.285
 4361SOL     OW14921   6.401   5.676   3.492
 4361SOL    HW114922   6.466   5.695   3.425
 4361SOL    HW214923   6.317   5.695   3.450
 4362SOL     OW14924   2.221   4.889   6.098
 4362SOL    HW114925   2.222   4.985   6.094
 4362SOL    HW214926   2.193   4.861   6.011
 4363SOL     OW14927   4.388   9.022   3.849
 4363SOL    HW114928   4.372   9.109   3.887
 4363SOL    HW214929   4.402   9.039   3.756
 4364SOL     OW14930  12.714   4.414   8.487
 4364SOL    HW114931  12.767   4.451   8.557
 4364SOL    HW214932  12.623   4.432   8.512
 4365SOL     OW14933   6.687  14.817   5.711
 4365SOL    HW114934   6.657  14.727   5.695
 4365SOL    HW214935   6.655  14.837   5.799
 4366SOL     OW14936  13.072  13.875   3.954
 4366SOL    HW114937  13.151  13.822   3.954
 4366SOL    HW214938  13.081  13.932   4.030
 4367SOL     OW14939   0.906   3.832  13.053
 4367SOL    HW114940   0.897   3.787  13.137
 4367SOL    HW214941   0.921   3.761  12.990
 4368SOL     OW14942  13.019  13.818   0.241
 4368SOL    HW114943  13.087  13.882   0.263
 4368SOL    HW214944  12.938  13.858   0.273
 4369SOL     OW14945  10.006  14.329   7.226
 4369SOL    HW114946   9.997  14.382   7.146
 4369SOL    HW214947   9.936  14.265   7.221
 4370SOL     OW14948   4.030   7.851  10.274
 4370SOL    HW114949   3.977   7.927  10.249
 4370SOL    HW214950   4.066   7.874  10.360
 4371SOL     OW14951   6.106   4.394   6.912
 4371SOL    HW114952   6.135   4.455   6.981
 4371SOL    HW214953   6.019   4.366   6.941
 4372SOL     OW14954   4.788   3.207   0.452
 4372SOL    HW114955   4.873   3.250   0.466
 4372SOL    HW214956   4.744   3.260   0.386
 4373SOL     OW14957   0.638   1.505   0.510
 4373SOL    HW114958   0.653   1.590   0.552
 4373SOL    HW214959   0.726   1.473   0.490
 4374SOL     OW14960   3.209  14.626   1.402
 4374SOL    HW114961   3.234  14.536   1.380
 4374SOL    HW214962   3.288  14.677   1.385
 4375SOL     OW14963  12.901  10.100   8.676
 4375SOL    HW114964  12.989  10.100   8.637
 4375SOL    HW214965  12.855  10.029   8.632
 4376SOL     OW14966   8.624  11.752   1.213
 4376SOL    HW114967   8.588  11.681   1.160
 4376SOL    HW214968   8.561  11.824   1.202
 4377SOL     OW14969  13.641   0.548   3.082
 4377SOL    HW114970  13.673   0.499   3.158
 4377SOL    HW214971  13.643   0.640   3.109
 4378SOL     OW14972  11.526   0.601   2.610
 4378SOL    HW114973  11.457   0.543   2.643
 4378SOL    HW214974  11.608   0.556   2.632
 4379SOL     OW14975  13.530   0.589  12.600
 4379SOL    HW114976  13.444   0.572  12.638
 4379SOL    HW214977  13.584   0.618  12.674
 4380SOL     OW14978  14.803  13.705   5.849
 4380SOL    HW114979  14.713  13.719   5.821
 4380SOL    HW214980  14.808  13.612   5.872
 4381SOL     OW14981   2.954  13.177   1.155
 4381SOL    HW114982   2.962  13.108   1.089
 4381SOL    HW214983   2.970  13.259   1.107
 4382SOL     OW14984   7.040  13.628  14.090
 4382SOL    HW114985   6.963  13.606  14.143
 4382SOL    HW214986   7.115  13.607  14.147
 4383SOL     OW14987  13.675  14.666   6.736
 4383SOL    HW114988  13.605  14.697   6.794
 4383SOL    HW214989  13.729  14.610   6.792
 4384SOL     OW14990  14.498   0.709   3.149
 4384SOL    HW114991  14.492   0.622   3.187
 4384SOL    HW214992  14.510   0.694   3.055
 4385SOL     OW14993  10.176   8.603   7.253
 4385SOL    HW114994  10.180   8.546   7.176
 4385SOL    HW214995  10.088   8.590   7.288
 4386SOL     OW14996   0.306   1.115   2.557
 4386SOL    HW114997   0.284   1.200   2.519
 4386SOL    HW214998   0.261   1.114   2.642
 4387SOL     OW14999   1.409   3.046  10.043
 4387SOL    HW115000   1.398   3.105   9.969
 4387SOL    HW215001   1.376   2.962  10.012
 4388SOL     OW15002   2.166   9.205   3.321
 4388SOL    HW115003   2.239   9.229   3.378
 4388SOL    HW215004   2.202   9.135   3.266
 4389SOL     OW15005  11.844   8.514   9.600
 4389SOL    HW115006  11.753   8.507   9.572
 4389SOL    HW215007  11.854   8.447   9.668
 4390SOL     OW15008   6.536  11.312   5.581
 4390SOL    HW115009   6.587  11.234   5.601
 4390SOL    HW215010   6.520  11.308   5.487
 4391SOL     OW15011  14.314   4.569  11.106
 4391SOL    HW115012  14.338   4.582  11.015
 4391SOL    HW215013  14.223   4.538  11.103
 4392SOL     OW15014   5.845  11.948   0.426
 4392SOL    HW115015   5.754  11.942   0.452
 4392SOL    HW215016   5.864  11.864   0.384
 4393SOL     OW15017   4.441  13.157   1.008
 4393SOL    HW115018   4.391  13.235   1.034
 4393SOL    HW215019   4.504  13.188   0.944
 4394SOL     OW15020  12.236  11.431   3.400
 4394SOL    HW115021  12.208  11.432   3.309
 4394SOL    HW215022  12.332  11.435   3.395
 4395SOL     OW15023   2.062  13.754   7.709
 4395SOL    HW115024   1.987  13.701   7.681
 4395SOL    HW215025   2.097  13.706   7.784
 4396SOL     OW15026  11.504   8.624  10.637
 4396SOL    HW115027  11.435   8.560  10.656
 4396SOL    HW215028  11.459   8.692  10.587
 4397SOL     OW15029   6.841   1.070   2.080
 4397SOL    HW115030   6.815   1.030   1.996
 4397SOL    HW215031   6.815   1.162   2.072
 4398SOL     OW15032   4.142   4.907   2.105
 4398SOL    HW115033   4.108   4.852   2.034
 4398SOL    HW215034   4.114   4.996   2.081
 4399SOL     OW15035   0.805   0.255   2.552
 4399SOL    HW115036   0.813   0.177   2.608
 4399SOL    HW215037   0.868   0.317   2.589
 4400SOL     OW15038   6.427  12.628   2.997
 4400SOL    HW115039   6.422  12.721   2.976
 4400SOL    HW215040   6.346  12.591   2.962
 4401SOL     OW15041   9.703   1.706   8.181
 4401SOL    HW115042   9.742   1.619   8.171
 4401SOL    HW215043   9.774   1.760   8.215
 4402SOL     OW15044   6.605   9.571  12.565
 4402SOL    HW115045   6.625   9.662  12.544
 4402SOL    HW215046   6.644   9.556  12.651
 4403SOL     OW15047  10.639   8.743   1.038
 4403SOL    HW115048  10.580   8.709   1.105
 4403SOL    HW215049  10.692   8.809   1.084
 4404SOL     OW15050  10.910   9.681   1.184
 4404SOL    HW115051  10.838   9.671   1.246
 4404SOL    HW215052  10.898   9.610   1.121
 4405SOL     OW15053   8.463  11.152   2.468
 4405SOL    HW115054   8.472  11.248   2.461
 4405SOL    HW215055   8.482  11.120   2.380
 4406SOL     OW15056   6.269  12.913  14.588
 4406SOL    HW115057   6.269  13.004  14.557
 4406SOL    HW215058   6.338  12.871  14.537
 4407SOL     OW15059  10.837  13.881  11.189
 4407SOL    HW115060  10.922  13.925  11.185
 4407SOL    HW215061  10.801  13.891  11.101
 4408SOL     OW15062   6.883   1.088   9.900
 4408SOL    HW115063   6.902   1.118   9.811
 4408SOL    HW215064   6.947   1.134   9.955
 4409SOL     OW15065  11.033   9.360  10.095
 4409SOL    HW115066  10.948   9.354  10.138
 4409SOL    HW215067  11.054   9.453  10.096
 4410SOL     OW15068  14.548   6.103  13.181
 4410SOL    HW115069  14.477   6.047  13.213
 4410SOL    HW215070  14.528   6.190  13.216
 4411SOL     OW15071   2.194   4.127   1.105
 4411SOL    HW115072   2.162   4.200   1.052
 4411SOL    HW215073   2.282   4.111   1.073
 4412SOL     OW15074  11.108   3.280   1.556
 4412SOL    HW115075  11.143   3.368   1.571
 4412SOL    HW215076  11.150   3.226   1.624
 4413SOL     OW15077   7.204  13.326  12.948
 4413SOL    HW115078   7.234  13.240  12.919
 4413SOL    HW215079   7.256  13.389  12.898
 4414SOL     OW15080  10.027   5.897   3.381
 4414SOL    HW115081  10.054   5.829   3.443
 4414SOL    HW215082   9.931   5.887   3.376
 4415SOL     OW15083   5.997  13.622   4.375
 4415SOL    HW115084   5.997  13.633   4.280
 4415SOL    HW215085   6.089  13.612   4.398
 4416SOL     OW15086   6.210   1.688  10.968
 4416SOL    HW115087   6.283   1.718  10.914
 4416SOL    HW215088   6.241   1.696  11.058
 4417SOL     OW15089   4.913   1.599  13.517
 4417SOL    HW115090   4.881   1.658  13.449
 4417SOL    HW215091   4.936   1.519  13.470
 4418SOL     OW15092   4.256   7.058   5.595
 4418SOL    HW115093   4.309   7.006   5.655
 4418SOL    HW215094   4.278   7.149   5.617
 4419SOL     OW15095  10.284   6.663  11.345
 4419SOL    HW115096  10.218   6.702  11.402
 4419SOL    HW215097  10.245   6.580  11.318
 4420SOL     OW15098  12.407   7.398  11.642
 4420SOL    HW115099  12.352   7.329  11.605
 4420SOL    HW215100  12.433   7.364  11.728
 4421SOL     OW15101   0.813  14.101   3.772
 4421SOL    HW115102   0.831  14.194   3.782
 4421SOL    HW215103   0.811  14.067   3.861
 4422SOL     OW15104   9.975   2.366   7.189
 4422SOL    HW115105   9.981   2.359   7.284
 4422SOL    HW215106   9.967   2.275   7.159
 4423SOL     OW15107  13.553  12.789  11.626
 4423SOL    HW115108  13.615  12.728  11.667
 4423SOL    HW215109  13.543  12.757  11.536
 4424SOL     OW15110   6.762  10.916   4.395
 4424SOL    HW115111   6.828  10.918   4.326
 4424SOL    HW215112   6.759  10.824   4.423
 4425SOL     OW15113   7.562   6.856   1.772
 4425SOL    HW115114   7.584   6.782   1.714
 4425SOL    HW215115   7.494   6.822   1.830
 4426SOL     OW15116   5.245   4.812  12.559
 4426SOL    HW115117   5.176   4.855  12.609
 4426SOL    HW215118   5.261   4.730  12.606
 4427SOL     OW15119   6.289   0.629  11.304
 4427SOL    HW115120   6.344   0.664  11.374
 4427SOL    HW215121   6.328   0.662  11.224
 4428SOL     OW15122   9.138   4.630  11.138
 4428SOL    HW115123   9.137   4.653  11.045
 4428SOL    HW215124   9.058   4.581  11.152
 4429SOL     OW15125   2.945   7.226   9.477
 4429SOL    HW115126   2.928   7.288   9.405
 4429SOL    HW215127   3.037   7.243   9.500
 4430SOL     OW15128  10.543  14.279   5.654
 4430SOL    HW115129  10.505  14.290   5.741
 4430SOL    HW215130  10.636  14.265   5.670
 4431SOL     OW15131   8.562  13.587   3.389
 4431SOL    HW115132   8.641  13.591   3.335
 4431SOL    HW215133   8.496  13.632   3.336
 4432SOL     OW15134  12.643   5.545  11.537
 4432SOL    HW115135  12.654   5.500  11.621
 4432SOL    HW215136  12.599   5.627  11.558
 4433SOL     OW15137   2.698   6.498   0.922
 4433SOL    HW115138   2.694   6.554   0.844
 4433SOL    HW215139   2.724   6.557   0.992
 4434SOL     OW15140  14.578  12.690  10.147
 4434SOL    HW115141  14.488  12.691  10.116
 4434SOL    HW215142  14.573  12.721  10.238
 4435SOL     OW15143   3.051   4.117   2.589
 4435SOL    HW115144   3.088   4.029   2.584
 4435SOL    HW215145   2.957   4.105   2.573
 4436SOL     OW15146  11.764   4.511  14.348
 4436SOL    HW115147  11.743   4.507  14.441
 4436SOL    HW215148  11.689   4.556  14.309
 4437SOL     OW15149   5.685  11.642   8.817
 4437SOL    HW115150   5.594  11.622   8.835
 4437SOL    HW215151   5.705  11.715   8.876
 4438SOL     OW15152   9.030   3.372  11.279
 4438SOL    HW115153   8.934   3.374  11.290
 4438SOL    HW215154   9.048   3.284  11.247
 4439SOL     OW15155  12.799   9.052  13.985
 4439SOL    HW115156  12.869   9.000  13.946
 4439SOL    HW215157  12.807   9.035  14.079
 4440SOL     OW15158   4.957   0.575   6.469
 4440SOL    HW115159   4.928   0.660   6.435
 4440SOL    HW215160   5.021   0.544   6.405
 4441SOL     OW15161   1.242   7.765   6.638
 4441SOL    HW115162   1.252   7.817   6.558
 4441SOL    HW215163   1.226   7.676   6.606
 4442SOL     OW15164   1.052  12.595  14.727
 4442SOL    HW115165   1.128  12.537  14.731
 4442SOL    HW215166   1.056  12.645  14.808
 4443SOL     OW15167  10.823   0.832   3.404
 4443SOL    HW115168  10.888   0.893   3.438
 4443SOL    HW215169  10.782   0.794   3.481
 4444SOL     OW15170   5.854  13.699   7.521
 4444SOL    HW115171   5.944  13.728   7.530
 4444SOL    HW215172   5.844  13.679   7.428
 4445SOL     OW15173   9.246  13.157   0.916
 4445SOL    HW115174   9.295  13.207   0.850
 4445SOL    HW215175   9.156  13.190   0.908
 4446SOL     OW15176   7.897   3.147   0.919
 4446SOL    HW115177   7.967   3.084   0.901
 4446SOL    HW215178   7.920   3.224   0.866
 4447SOL     OW15179   6.390   9.571   2.831
 4447SOL    HW115180   6.306   9.527   2.839
 4447SOL    HW215181   6.454   9.501   2.822
 4448SOL     OW15182   8.639   0.934   8.575
 4448SOL    HW115183   8.679   0.854   8.542
 4448SOL    HW215184   8.711   0.998   8.578
 4449SOL     OW15185   0.520   7.901   5.173
 4449SOL    HW115186   0.463   7.888   5.248
 4449SOL    HW215187   0.542   7.994   5.174
 4450SOL     OW15188  11.333   3.134   7.339
 4450SOL    HW115189  11.358   3.227   7.343
 4450SOL    HW215190  11.238   3.135   7.349
 4451SOL     OW15191   1.089   1.092  13.378
 4451SOL    HW115192   1.098   1.183  13.406
 4451SOL    HW215193   1.109   1.041  13.456
 4452SOL     OW15194   4.336   8.370   7.006
 4452SOL    HW115195   4.381   8.298   6.961
 4452SOL    HW215196   4.348   8.351   7.099
 4453SOL     OW15197  11.138   8.401  12.458
 4453SOL    HW115198  11.080   8.377  12.530
 4453SOL    HW215199  11.183   8.319  12.436
 4454SOL     OW15200   4.172   7.813  11.317
 4454SOL    HW115201   4.198   7.861  11.396
 4454SOL    HW215202   4.098   7.760  11.345
 4455SOL     OW15203   8.774   0.129   0.678
 4455SOL    HW115204   8.780   0.151   0.585
 4455SOL    HW215205   8.776   0.034   0.681
 4456SOL     OW15206   6.283   7.676  10.569
 4456SOL    HW115207   6.284   7.647  10.477
 4456SOL    HW215208   6.326   7.605  10.617
 4457SOL     OW15209   1.051  13.965   0.585
 4457SOL    HW115210   1.146  13.967   0.594
 4457SOL    HW215211   1.029  13.872   0.587
 4458SOL     OW15212   3.200   2.504   4.666
 4458SOL    HW115213   3.215   2.493   4.572
 4458SOL    HW215214   3.287   2.502   4.705
 4459SOL     OW15215  10.451   3.620   4.250
 4459SOL    HW115216  10.517   3.629   4.318
 4459SOL    HW215217  10.488   3.664   4.174
 4460SOL     OW15218  12.923   4.493   1.339
 4460SOL    HW115219  12.960   4.447   1.414
 4460SOL    HW215220  12.959   4.449   1.263
 4461SOL     OW15221   4.243  12.606   2.770
 4461SOL    HW115222   4.247  12.521   2.814
 4461SOL    HW215223   4.198  12.589   2.688
 4462SOL     OW15224   1.517   5.471   5.859
 4462SOL    HW115225   1.511   5.535   5.788
 4462SOL    HW215226   1.427   5.460   5.889
 4463SOL     OW15227  10.840   6.114   5.660
 4463SOL    HW115228  10.920   6.164   5.644
 4463SOL    HW215229  10.783   6.135   5.586
 4464SOL     OW15230  10.856  13.245  13.615
 4464SOL    HW115231  10.797  13.297  13.561
 4464SOL    HW215232  10.798  13.196  13.674
 4465SOL     OW15233   7.108   5.003   1.820
 4465SOL    HW115234   7.091   4.932   1.759
 4465SOL    HW215235   7.054   4.984   1.896
 4466SOL     OW15236   1.836   2.437  10.213
 4466SOL    HW115237   1.748   2.446  10.251
 4466SOL    HW215238   1.886   2.392  10.281
 4467SOL     OW15239   0.656   0.737  12.049
 4467SOL    HW115240   0.597   0.803  12.085
 4467SOL    HW215241   0.626   0.726  11.959
 4468SOL     OW15242  12.510   5.241   8.886
 4468SOL    HW115243  12.540   5.159   8.845
 4468SOL    HW215244  12.473   5.291   8.813
 4469SOL     OW15245  11.079   9.264  13.932
 4469SOL    HW115246  11.163   9.227  13.905
 4469SOL    HW215247  11.017   9.236  13.865
 4470SOL     OW15248  10.357   5.677   1.824
 4470SOL    HW115249  10.342   5.650   1.914
 4470SOL    HW215250  10.275   5.720   1.798
 4471SOL     OW15251   7.757   1.717  11.490
 4471SOL    HW115252   7.744   1.624  11.470
 4471SOL    HW215253   7.850   1.725  11.507
 4472SOL     OW15254  14.074   6.688   1.667
 4472SOL    HW115255  14.023   6.611   1.642
 4472SOL    HW215256  14.018   6.736   1.728
 4473SOL     OW15257  13.620   6.925   2.121
 4473SOL    HW115258  13.714   6.908   2.123
 4473SOL    HW215259  13.608   6.986   2.048
 4474SOL     OW15260   2.201   5.029   2.741
 4474SOL    HW115261   2.283   5.056   2.699
 4474SOL    HW215262   2.173   5.105   2.791
 4475SOL     OW15263  10.906   2.056   7.404
 4475SOL    HW115264  10.942   2.059   7.492
 4475SOL    HW215265  10.851   2.134   7.398
 4476SOL     OW15266   3.684   7.839  14.407
 4476SOL    HW115267   3.602   7.812  14.448
 4476SOL    HW215268   3.697   7.929  14.436
 4477SOL     OW15269   4.790   3.309  12.514
 4477SOL    HW115270   4.766   3.392  12.553
 4477SOL    HW215271   4.707   3.267  12.493
 4478SOL     OW15272  13.544   5.982   5.318
 4478SOL    HW115273  13.590   6.045   5.374
 4478SOL    HW215274  13.543   5.901   5.370
 4479SOL     OW15275  10.082   9.917  13.004
 4479SOL    HW115276  10.147   9.975  13.045
 4479SOL    HW215277  10.002   9.969  13.001
 4480SOL     OW15278   7.528   7.148   0.655
 4480SOL    HW115279   7.551   7.111   0.740
 4480SOL    HW215280   7.432   7.156   0.658
 4481SOL     OW15281   8.658   0.654  10.607
 4481SOL    HW115282   8.566   0.649  10.634
 4481SOL    HW215283   8.682   0.746  10.619
 4482SOL     OW15284  10.005  12.796   8.456
 4482SOL    HW115285   9.913  12.781   8.433
 4482SOL    HW215286  10.021  12.887   8.434
 4483SOL     OW15287  14.252   1.337   4.946
 4483SOL    HW115288  14.299   1.389   5.012
 4483SOL    HW215289  14.177   1.390   4.922
 4484SOL     OW15290  12.446  14.160  12.804
 4484SOL    HW115291  12.445  14.163  12.708
 4484SOL    HW215292  12.492  14.079  12.825
 4485SOL     OW15293   6.500   7.542   4.324
 4485SOL    HW115294   6.547   7.521   4.405
 4485SOL    HW215295   6.414   7.502   4.335
 4486SOL     OW15296  12.486   5.403   9.408
 4486SOL    HW115297  12.500   5.408   9.313
 4486SOL    HW215298  12.434   5.324   9.420
 4487SOL     OW15299   9.887   4.775  12.869
 4487SOL    HW115300   9.827   4.708  12.835
 4487SOL    HW215301   9.930   4.732  12.943
 4488SOL     OW15302   7.886   8.898  10.767
 4488SOL    HW115303   7.806   8.908  10.819
 4488SOL    HW215304   7.895   8.803  10.755
 4489SOL     OW15305  12.863   9.010   4.073
 4489SOL    HW115306  12.790   9.006   4.134
 4489SOL    HW215307  12.861   9.099   4.037
 4490SOL     OW15308   5.557   4.926  13.170
 4490SOL    HW115309   5.528   4.926  13.079
 4490SOL    HW215310   5.597   5.012  13.182
 4491SOL     OW15311  12.769   8.508   1.542
 4491SOL    HW115312  12.810   8.424   1.522
 4491SOL    HW215313  12.838   8.573   1.527
 4492SOL     OW15314   6.035   4.644   8.347
 4492SOL    HW115315   6.089   4.628   8.425
 4492SOL    HW215316   6.007   4.735   8.356
 4493SOL     OW15317  10.619   8.936   5.387
 4493SOL    HW115318  10.563   8.869   5.347
 4493SOL    HW215319  10.708   8.903   5.373
 4494SOL     OW15320   7.860   3.935   0.815
 4494SOL    HW115321   7.839   3.948   0.722
 4494SOL    HW215322   7.812   3.856   0.839
 4495SOL     OW15323   4.841  13.573  11.111
 4495SOL    HW115324   4.779  13.504  11.087
 4495SOL    HW215325   4.794  13.655  11.094
 4496SOL     OW15326   2.196   5.314   7.859
 4496SOL    HW115327   2.216   5.324   7.766
 4496SOL    HW215328   2.176   5.221   7.870
 4497SOL     OW15329   6.244   8.907   0.438
 4497SOL    HW115330   6.235   8.907   0.342
 4497SOL    HW215331   6.195   8.985   0.465
 4498SOL     OW15332   6.122   3.337   9.498
 4498SOL    HW115333   6.168   3.416   9.525
 4498SOL    HW215334   6.096   3.354   9.407
 4499SOL     OW15335  12.571   1.518   1.984
 4499SOL    HW115336  12.612   1.602   1.999
 4499SOL    HW215337  12.529   1.526   1.898
 4500SOL     OW15338  13.416  10.029   3.189
 4500SOL    HW115339  13.418  10.010   3.095
 4500SOL    HW215340  13.480  10.098   3.201
 4501SOL     OW15341   4.927   1.797  14.515
 4501SOL    HW115342   4.907   1.873  14.569
 4501SOL    HW215343   4.854   1.737  14.530
 4502SOL     OW15344   5.281  10.625  10.707
 4502SOL    HW115345   5.341  10.700  10.711
 4502SOL    HW215346   5.339  10.549  10.704
 4503SOL     OW15347  14.638   2.437   0.910
 4503SOL    HW115348  14.595   2.461   0.828
 4503SOL    HW215349  14.723   2.402   0.883
 4504SOL     OW15350   1.482  13.449   3.386
 4504SOL    HW115351   1.449  13.476   3.472
 4504SOL    HW215352   1.413  13.394   3.350
 4505SOL     OW15353   4.971  14.545   4.188
 4505SOL    HW115354   4.937  14.587   4.267
 4505SOL    HW215355   5.053  14.590   4.170
 4506SOL     OW15356   0.693   0.886  13.294
 4506SOL    HW115357   0.665   0.797  13.276
 4506SOL    HW215358   0.762   0.876  13.360
 4507SOL     OW15359   2.667  11.658   7.499
 4507SOL    HW115360   2.665  11.750   7.527
 4507SOL    HW215361   2.746  11.651   7.445
 4508SOL     OW15362  13.425   8.835   0.173
 4508SOL    HW115363  13.504   8.844   0.120
 4508SOL    HW215364  13.353   8.842   0.110
 4509SOL     OW15365  10.734  10.233   5.331
 4509SOL    HW115366  10.678  10.207   5.258
 4509SOL    HW215367  10.822  10.206   5.304
 4510SOL     OW15368   3.744  12.093  10.645
 4510SOL    HW115369   3.823  12.123  10.689
 4510SOL    HW215370   3.772  12.069  10.557
 4511SOL     OW15371  12.072  10.486   7.317
 4511SOL    HW115372  11.999  10.513   7.372
 4511SOL    HW215373  12.031  10.456   7.236
 4512SOL     OW15374   2.969  13.018  13.426
 4512SOL    HW115375   2.965  12.933  13.383
 4512SOL    HW215376   2.880  13.032  13.459
 4513SOL     OW15377   4.481   7.207   4.813
 4513SOL    HW115378   4.478   7.156   4.894
 4513SOL    HW215379   4.399   7.186   4.769
 4514SOL     OW15380   1.938   4.530   2.192
 4514SOL    HW115381   2.033   4.542   2.197
 4514SOL    HW215382   1.917   4.547   2.100
 4515SOL     OW15383   7.606   4.288  12.965
 4515SOL    HW115384   7.686   4.326  13.003
 4515SOL    HW215385   7.617   4.194  12.975
 4516SOL     OW15386   6.327   6.627   5.148
 4516SOL    HW115387   6.417   6.597   5.155
 4516SOL    HW215388   6.285   6.567   5.086
 4517SOL     OW15389  12.103   4.327  12.999
 4517SOL    HW115390  12.072   4.266  13.066
 4517SOL    HW215391  12.173   4.376  13.041
 4518SOL     OW15392   5.248   5.707   0.491
 4518SOL    HW115393   5.289   5.769   0.431
 4518SOL    HW215394   5.165   5.749   0.516
 4519SOL     OW15395   3.236  12.064  10.739
 4519SOL    HW115396   3.280  12.026  10.663
 4519SOL    HW215397   3.274  12.018  10.814
 4520SOL     OW15398   9.091   2.009  13.334
 4520SOL    HW115399   9.036   1.957  13.277
 4520SOL    HW215400   9.180   1.980  13.316
 4521SOL     OW15401   1.791   3.633   1.240
 4521SOL    HW115402   1.834   3.624   1.325
 4521SOL    HW215403   1.732   3.558   1.235
 4522SOL     OW15404   8.240  11.984   6.717
 4522SOL    HW115405   8.185  11.908   6.698
 4522SOL    HW215406   8.285  11.961   6.798
 4523SOL     OW15407   2.399  13.597   3.688
 4523SOL    HW115408   2.464  13.633   3.629
 4523SOL    HW215409   2.331  13.664   3.694
 4524SOL     OW15410  13.847   1.824   3.164
 4524SOL    HW115411  13.913   1.782   3.218
 4524SOL    HW215412  13.764   1.784   3.192
 4525SOL     OW15413  11.226   1.952   0.364
 4525SOL    HW115414  11.252   2.042   0.341
 4525SOL    HW215415  11.231   1.949   0.459
 4526SOL     OW15416   4.490   5.430   3.273
 4526SOL    HW115417   4.474   5.353   3.328
 4526SOL    HW215418   4.405   5.450   3.234
 4527SOL     OW15419   1.071   9.606   1.217
 4527SOL    HW115420   1.130   9.674   1.184
 4527SOL    HW215421   0.984   9.644   1.207
 4528SOL     OW15422  12.069  10.899   6.088
 4528SOL    HW115423  12.077  10.837   6.016
 4528SOL    HW215424  11.991  10.950   6.067
 4529SOL     OW15425  12.701  12.285   0.649
 4529SOL    HW115426  12.640  12.357   0.630
 4529SOL    HW215427  12.788  12.324   0.640
 4530SOL     OW15428  14.468  14.506  12.555
 4530SOL    HW115429  14.527  14.430  12.554
 4530SOL    HW215430  14.499  14.560  12.482
 4531SOL     OW15431   3.241   8.073   2.620
 4531SOL    HW115432   3.294   8.044   2.546
 4531SOL    HW215433   3.191   7.996   2.645
 4532SOL     OW15434   2.452   2.226   6.506
 4532SOL    HW115435   2.518   2.211   6.574
 4532SOL    HW215436   2.378   2.264   6.553
 4533SOL     OW15437   2.689   2.385   4.636
 4533SOL    HW115438   2.714   2.472   4.606
 4533SOL    HW215439   2.768   2.332   4.625
 4534SOL     OW15440  12.295  12.318   6.784
 4534SOL    HW115441  12.385  12.339   6.760
 4534SOL    HW215442  12.258  12.401   6.814
 4535SOL     OW15443   2.925  11.854   5.829
 4535SOL    HW115444   2.970  11.848   5.745
 4535SOL    HW215445   2.977  11.799   5.888
 4536SOL     OW15446   7.210  12.337   6.871
 4536SOL    HW115447   7.115  12.324   6.875
 4536SOL    HW215448   7.244  12.292   6.948
 4537SOL     OW15449   8.038  14.781   0.679
 4537SOL    HW115450   8.102  14.850   0.699
 4537SOL    HW215451   7.983  14.778   0.757
 4538SOL     OW15452  13.823   6.536   2.169
 4538SOL    HW115453  13.783   6.607   2.118
 4538SOL    HW215454  13.756   6.468   2.172
 4539SOL     OW15455   3.378   6.932  11.028
 4539SOL    HW115456   3.410   6.852  10.986
 4539SOL    HW215457   3.284   6.919  11.038
 4540SOL     OW15458   9.479  12.893   1.041
 4540SOL    HW115459   9.387  12.869   1.047
 4540SOL    HW215460   9.524  12.812   1.018
 4541SOL     OW15461   1.854   9.764  10.748
 4541SOL    HW115462   1.880   9.852  10.774
 4541SOL    HW215463   1.791   9.737  10.815
 4542SOL     OW15464   5.159   3.121  10.791
 4542SOL    HW115465   5.160   3.030  10.763
 4542SOL    HW215466   5.250   3.139  10.816
 4543SOL     OW15467   2.230   5.338   3.352
 4543SOL    HW115468   2.298   5.405   3.350
 4543SOL    HW215469   2.155   5.381   3.394
 4544SOL     OW15470   8.190   9.478   6.230
 4544SOL    HW115471   8.148   9.519   6.306
 4544SOL    HW215472   8.194   9.385   6.252
 4545SOL     OW15473   1.245  13.363   3.928
 4545SOL    HW115474   1.165  13.335   3.972
 4545SOL    HW215475   1.216  13.402   3.845
 4546SOL     OW15476  12.655  14.555   7.847
 4546SOL    HW115477  12.583  14.494   7.862
 4546SOL    HW215478  12.653  14.613   7.923
 4547SOL     OW15479  13.025   4.546  10.249
 4547SOL    HW115480  13.071   4.556  10.332
 4547SOL    HW215481  13.069   4.607  10.189
 4548SOL     OW15482  13.168   7.006   3.616
 4548SOL    HW115483  13.261   6.992   3.633
 4548SOL    HW215484  13.129   6.919   3.620
 4549SOL     OW15485  12.215   4.686  11.444
 4549SOL    HW115486  12.291   4.634  11.420
 4549SOL    HW215487  12.192   4.656  11.533
 4550SOL     OW15488  10.214   8.625  10.920
 4550SOL    HW115489  10.191   8.718  10.908
 4550SOL    HW215490  10.150   8.593  10.983
 4551SOL     OW15491   0.702  12.910  10.037
 4551SOL    HW115492   0.791  12.879  10.055
 4551SOL    HW215493   0.659  12.834   9.998
 4552SOL     OW15494  14.655  11.561   3.864
 4552SOL    HW115495  14.681  11.536   3.775
 4552SOL    HW215496  14.643  11.656   3.860
 4553SOL     OW15497   2.482  11.298   9.939
 4553SOL    HW115498   2.558  11.353   9.920
 4553SOL    HW215499   2.453  11.266   9.853
 4554SOL     OW15500   1.635   8.498  14.196
 4554SOL    HW115501   1.609   8.467  14.282
 4554SOL    HW215502   1.731   8.501  14.199
 4555SOL     OW15503  10.940   4.521  13.332
 4555SOL    HW115504  11.017   4.494  13.282
 4555SOL    HW215505  10.938   4.616  13.324
 4556SOL     OW15506   4.204   7.996   0.807
 4556SOL    HW115507   4.291   8.014   0.772
 4556SOL    HW215508   4.220   7.966   0.897
 4557SOL     OW15509  13.796   4.518   7.272
 4557SOL    HW115510  13.847   4.442   7.300
 4557SOL    HW215511  13.850   4.594   7.295
 4558SOL     OW15512  11.047   0.306  10.551
 4558SOL    HW115513  11.085   0.308  10.463
 4558SOL    HW215514  10.982   0.376  10.551
 4559SOL     OW15515   1.166  10.171   1.415
 4559SOL    HW115516   1.225  10.097   1.423
 4559SOL    HW215517   1.082  10.132   1.390
 4560SOL     OW15518   0.287   6.542   7.836
 4560SOL    HW115519   0.269   6.630   7.802
 4560SOL    HW215520   0.356   6.508   7.779
 4561SOL     OW15521   0.328   0.278   1.259
 4561SOL    HW115522   0.375   0.254   1.179
 4561SOL    HW215523   0.256   0.334   1.229
 4562SOL     OW15524  14.842   5.859   6.365
 4562SOL    HW115525  14.805   5.873   6.452
 4562SOL    HW215526   0.038   5.802   6.380
 4563SOL     OW15527  11.726   4.625   2.083
 4563SOL    HW115528  11.774   4.563   2.028
 4563SOL    HW215529  11.634   4.608   2.064
 4564SOL     OW15530  11.949   0.558  12.590
 4564SOL    HW115531  12.042   0.580  12.596
 4564SOL    HW215532  11.946   0.478  12.538
 4565SOL     OW15533   1.529   5.671   8.463
 4565SOL    HW115534   1.493   5.707   8.382
 4565SOL    HW215535   1.459   5.683   8.527
 4566SOL     OW15536  12.402   3.234   0.847
 4566SOL    HW115537  12.331   3.215   0.785
 4566SOL    HW215538  12.358   3.271   0.923
 4567SOL     OW15539   3.265   1.087   6.713
 4567SOL    HW115540   3.244   1.178   6.688
 4567SOL    HW215541   3.181   1.041   6.707
 4568SOL     OW15542  13.007   0.753   0.939
 4568SOL    HW115543  13.056   0.799   1.008
 4568SOL    HW215544  13.074   0.706   0.890
 4569SOL     OW15545  12.693   1.074  13.901
 4569SOL    HW115546  12.733   1.125  13.830
 4569SOL    HW215547  12.615   1.124  13.925
 4570SOL     OW15548   4.249  14.506   7.995
 4570SOL    HW115549   4.237  14.411   7.992
 4570SOL    HW215550   4.178  14.538   8.050
 4571SOL     OW15551  12.308   5.840   7.251
 4571SOL    HW115552  12.233   5.886   7.288
 4571SOL    HW215553  12.314   5.759   7.301
 4572SOL     OW15554   5.478   1.643   6.309
 4572SOL    HW115555   5.441   1.598   6.233
 4572SOL    HW215556   5.500   1.731   6.276
 4573SOL     OW15557   8.680   4.684   5.068
 4573SOL    HW115558   8.684   4.780   5.073
 4573SOL    HW215559   8.728   4.655   5.146
 4574SOL     OW15560   6.274  13.913   7.754
 4574SOL    HW115561   6.229  13.935   7.836
 4574SOL    HW215562   6.327  13.836   7.775
 4575SOL     OW15563  10.937   1.635   9.711
 4575SOL    HW115564  10.850   1.653   9.746
 4575SOL    HW215565  10.968   1.720   9.680
 4576SOL     OW15566   5.599   1.245  14.452
 4576SOL    HW115567   5.521   1.275  14.406
 4576SOL    HW215568   5.566   1.194  14.525
 4577SOL     OW15569  11.430   0.791   2.811
 4577SOL    HW115570  11.472   0.742   2.741
 4577SOL    HW215571  11.397   0.724   2.871
 4578SOL     OW15572   6.057  13.507   1.590
 4578SOL    HW115573   6.092  13.490   1.677
 4578SOL    HW215574   6.127  13.554   1.545
 4579SOL     OW15575   1.355   2.098   1.164
 4579SOL    HW115576   1.265   2.075   1.140
 4579SOL    HW215577   1.346   2.156   1.239
 4580SOL     OW15578   0.887   4.896  11.267
 4580SOL    HW115579   0.934   4.828  11.315
 4580SOL    HW215580   0.802   4.903  11.312
 4581SOL     OW15581  11.771  10.290  14.501
 4581SOL    HW115582  11.751  10.290  14.594
 4581SOL    HW215583  11.857  10.332  14.495
 4582SOL     OW15584  13.189  14.443  11.829
 4582SOL    HW115585  13.236  14.463  11.910
 4582SOL    HW215586  13.188  14.347  11.825
 4583SOL     OW15587   4.836   7.136  10.689
 4583SOL    HW115588   4.907   7.134  10.753
 4583SOL    HW215589   4.880   7.146  10.604
 4584SOL     OW15590   0.084   4.834   9.604
 4584SOL    HW115591   0.101   4.924   9.576
 4584SOL    HW215592  14.868   4.829   9.612
 4585SOL     OW15593   1.897   4.663   4.802
 4585SOL    HW115594   1.901   4.641   4.709
 4585SOL    HW215595   1.927   4.754   4.807
 4586SOL     OW15596   4.085   7.547  11.221
 4586SOL    HW115597   4.115   7.465  11.183
 4586SOL    HW215598   4.086   7.610  11.149
 4587SOL     OW15599   8.397   7.801  10.176
 4587SOL    HW115600   8.487   7.821  10.153
 4587SOL    HW215601   8.358   7.886  10.198
 4588SOL     OW15602   5.527   9.967  13.067
 4588SOL    HW115603   5.604   9.952  13.123
 4588SOL    HW215604   5.492  10.051  13.097
 4589SOL     OW15605  12.925  13.234  12.478
 4589SOL    HW115606  12.888  13.250  12.565
 4589SOL    HW215607  12.890  13.303  12.423
 4590SOL     OW15608   5.344  11.683   6.278
 4590SOL    HW115609   5.272  11.713   6.222
 4590SOL    HW215610   5.342  11.743   6.353
 4591SOL     OW15611   2.684  11.343   8.083
 4591SOL    HW115612   2.763  11.393   8.105
 4591SOL    HW215613   2.647  11.390   8.008
 4592SOL     OW15614   1.877  12.836   2.862
 4592SOL    HW115615   1.819  12.899   2.820
 4592SOL    HW215616   1.857  12.844   2.955
 4593SOL     OW15617   9.488  10.516  12.832
 4593SOL    HW115618   9.466  10.513  12.739
 4593SOL    HW215619   9.521  10.604  12.847
 4594SOL     OW15620  13.423  12.917   0.463
 4594SOL    HW115621  13.469  12.896   0.381
 4594SOL    HW215622  13.334  12.939   0.434
 4595SOL     OW15623  12.209  14.076   8.520
 4595SOL    HW115624  12.226  14.170   8.518
 4595SOL    HW215625  12.282  14.038   8.469
 4596SOL     OW15626   9.267   8.318   8.727
 4596SOL    HW115627   9.202   8.293   8.793
 4596SOL    HW215628   9.226   8.297   8.643
 4597SOL     OW15629   6.705   6.961   8.406
 4597SOL    HW115630   6.639   6.987   8.469
 4597SOL    HW215631   6.721   7.039   8.354
 4598SOL     OW15632   2.994   8.717   7.775
 4598SOL    HW115633   2.918   8.724   7.718
 4598SOL    HW215634   3.019   8.624   7.770
 4599SOL     OW15635   3.811   6.178  10.792
 4599SOL    HW115636   3.806   6.273  10.805
 4599SOL    HW215637   3.862   6.168  10.711
 4600SOL     OW15638   9.019  14.086   6.832
 4600SOL    HW115639   9.008  14.172   6.791
 4600SOL    HW215640   9.047  14.029   6.760
 4601SOL     OW15641   1.523   5.816   8.848
 4601SOL    HW115642   1.469   5.815   8.769
 4601SOL    HW215643   1.460   5.813   8.920
 4602SOL     OW15644   4.863  13.493  14.182
 4602SOL    HW115645   4.957  13.479  14.195
 4602SOL    HW215646   4.832  13.413  14.141
 4603SOL     OW15647   7.356  13.164   6.984
 4603SOL    HW115648   7.373  13.099   7.052
 4603SOL    HW215649   7.312  13.115   6.915
 4604SOL     OW15650  14.000   9.207   2.467
 4604SOL    HW115651  13.999   9.111   2.467
 4604SOL    HW215652  13.921   9.232   2.514
 4605SOL     OW15653  14.811   9.401   0.915
 4605SOL    HW115654   0.001   9.427   0.855
 4605SOL    HW215655  14.820   9.461   0.990
 4606SOL     OW15656  11.363   6.378   7.853
 4606SOL    HW115657  11.351   6.302   7.797
 4606SOL    HW215658  11.281   6.427   7.843
 4607SOL     OW15659  10.621  14.143   9.600
 4607SOL    HW115660  10.669  14.179   9.526
 4607SOL    HW215661  10.599  14.220   9.654
 4608SOL     OW15662  10.998  12.040  12.038
 4608SOL    HW115663  11.076  11.999  12.000
 4608SOL    HW215664  10.940  11.967  12.057
 4609SOL     OW15665   6.416   4.176  13.636
 4609SOL    HW115666   6.342   4.136  13.590
 4609SOL    HW215667   6.382   4.260  13.667
 4610SOL     OW15668   4.271   9.065   0.864
 4610SOL    HW115669   4.227   8.980   0.850
 4610SOL    HW215670   4.330   9.049   0.937
 4611SOL     OW15671   7.160  10.522   4.861
 4611SOL    HW115672   7.177  10.456   4.794
 4611SOL    HW215673   7.240  10.574   4.864
 4612SOL     OW15674   2.332   5.081  12.399
 4612SOL    HW115675   2.403   5.143  12.416
 4612SOL    HW215676   2.370   5.017  12.339
 4613SOL     OW15677  13.185  14.814   7.596
 4613SOL    HW115678  13.226  14.863   7.668
 4613SOL    HW215679  13.234  14.732   7.591
 4614SOL     OW15680   6.804  14.661   8.950
 4614SOL    HW115681   6.710  14.674   8.937
 4614SOL    HW215682   6.811  14.573   8.988
 4615SOL     OW15683  14.031   8.616   0.090
 4615SOL    HW115684  14.074   8.597   0.006
 4615SOL    HW215685  13.986   8.535   0.113
 4616SOL     OW15686   1.178   3.965   8.625
 4616SOL    HW115687   1.245   4.031   8.640
 4616SOL    HW215688   1.220   3.882   8.646
 4617SOL     OW15689   6.693   9.699   3.717
 4617SOL    HW115690   6.731   9.642   3.784
 4617SOL    HW215691   6.634   9.642   3.668
 4618SOL     OW15692   2.146   3.992   3.942
 4618SOL    HW115693   2.231   4.008   3.983
 4618SOL    HW215694   2.136   3.897   3.944
 4619SOL     OW15695   8.551   1.386   6.077
 4619SOL    HW115696   8.474   1.385   6.133
 4619SOL    HW215697   8.599   1.307   6.100
 4620SOL     OW15698   1.270   5.660  10.058
 4620SOL    HW115699   1.320   5.739  10.077
 4620SOL    HW215700   1.178   5.688  10.058
 4621SOL     OW15701   4.288   7.214   1.875
 4621SOL    HW115702   4.380   7.240   1.878
 4621SOL    HW215703   4.265   7.199   1.967
 4622SOL     OW15704  14.716   3.120  10.701
 4622SOL    HW115705  14.765   3.143  10.622
 4622SOL    HW215706  14.626   3.143  10.681
 4623SOL     OW15707   5.818   6.592  10.910
 4623SOL    HW115708   5.813   6.498  10.890
 4623SOL    HW215709   5.832   6.596  11.004
 4624SOL     OW15710   1.313   4.628   3.650
 4624SOL    HW115711   1.395   4.677   3.642
 4624SOL    HW215712   1.253   4.689   3.693
 4625SOL     OW15713   2.436   9.280   8.392
 4625SOL    HW115714   2.475   9.218   8.330
 4625SOL    HW215715   2.447   9.239   8.478
 4626SOL     OW15716  14.093   9.969  11.595
 4626SOL    HW115717  14.057   9.978  11.683
 4626SOL    HW215718  14.110   9.875  11.586
 4627SOL     OW15719   5.631   0.998   1.542
 4627SOL    HW115720   5.592   0.943   1.610
 4627SOL    HW215721   5.588   0.969   1.461
 4628SOL     OW15722   5.315   7.002   0.781
 4628SOL    HW115723   5.268   7.086   0.784
 4628SOL    HW215724   5.327   6.978   0.873
 4629SOL     OW15725   6.368   8.212  14.207
 4629SOL    HW115726   6.393   8.197  14.116
 4629SOL    HW215727   6.348   8.305  14.212
 4630SOL     OW15728  12.206  11.658   2.744
 4630SOL    HW115729  12.135  11.682   2.684
 4630SOL    HW215730  12.175  11.579   2.787
 4631SOL     OW15731   0.690  11.332   6.355
 4631SOL    HW115732   0.738  11.407   6.321
 4631SOL    HW215733   0.681  11.349   6.449
 4632SOL     OW15734   6.764  13.431  12.181
 4632SOL    HW115735   6.766  13.478  12.098
 4632SOL    HW215736   6.708  13.485  12.238
 4633SOL     OW15737  10.676   9.799  12.874
 4633SOL    HW115738  10.711   9.748  12.800
 4633SOL    HW215739  10.749   9.852  12.904
 4634SOL     OW15740   0.017   5.862   7.192
 4634SOL    HW115741  14.863   5.794   7.251
 4634SOL    HW215742  14.867   5.835   7.105
 4635SOL     OW15743  13.278   9.200  13.586
 4635SOL    HW115744  13.334   9.233  13.656
 4635SOL    HW215745  13.335   9.143  13.534
 4636SOL     OW15746   4.233  12.753   7.899
 4636SOL    HW115747   4.285  12.690   7.950
 4636SOL    HW215748   4.255  12.733   7.808
 4637SOL     OW15749   0.526   9.344   5.750
 4637SOL    HW115750   0.447   9.387   5.784
 4637SOL    HW215751   0.532   9.263   5.800
 4638SOL     OW15752   5.468  14.049   3.900
 4638SOL    HW115753   5.484  14.105   3.824
 4638SOL    HW215754   5.553  14.010   3.920
 4639SOL     OW15755   2.322   9.979   4.400
 4639SOL    HW115756   2.415   9.976   4.380
 4639SOL    HW215757   2.279   9.982   4.314
 4640SOL     OW15758   9.096   6.889   8.369
 4640SOL    HW115759   9.093   6.806   8.418
 4640SOL    HW215760   9.138   6.867   8.286
 4641SOL     OW15761  12.178  10.905   8.322
 4641SOL    HW115762  12.164  10.885   8.415
 4641SOL    HW215763  12.120  10.980   8.306
 4642SOL     OW15764   6.268   8.805   8.883
 4642SOL    HW115765   6.346   8.804   8.938
 4642SOL    HW215766   6.233   8.717   8.890
 4643SOL     OW15767   3.203   0.223   7.999
 4643SOL    HW115768   3.251   0.181   7.928
 4643SOL    HW215769   3.233   0.314   7.999
 4644SOL     OW15770   4.623   3.085  10.123
 4644SOL    HW115771   4.578   3.168  10.139
 4644SOL    HW215772   4.675   3.100  10.045
 4645SOL     OW15773   1.677   9.270  13.205
 4645SOL    HW115774   1.745   9.313  13.152
 4645SOL    HW215775   1.618   9.232  13.140
 4646SOL     OW15776   8.085   1.568  11.986
 4646SOL    HW115777   8.027   1.588  11.913
 4646SOL    HW215778   8.114   1.478  11.970
 4647SOL     OW15779  13.009   0.609   3.708
 4647SOL    HW115780  13.099   0.642   3.716
 4647SOL    HW215781  12.988   0.578   3.796
 4648SOL     OW15782   8.195   9.592   9.934
 4648SOL    HW115783   8.245   9.612   9.855
 4648SOL    HW215784   8.211   9.499   9.950
 4649SOL     OW15785  13.277  11.872   5.156
 4649SOL    HW115786  13.189  11.844   5.182
 4649SOL    HW215787  13.264  11.954   5.109
 4650SOL     OW15788  11.548   9.405   8.313
 4650SOL    HW115789  11.559   9.336   8.377
 4650SOL    HW215790  11.619   9.392   8.250
 4651SOL     OW15791   5.839  13.224   1.499
 4651SOL    HW115792   5.892  13.300   1.475
 4651SOL    HW215793   5.851  13.163   1.427
 4652SOL     OW15794   1.323   3.583   2.811
 4652SOL    HW115795   1.360   3.652   2.756
 4652SOL    HW215796   1.400   3.536   2.844
 4653SOL     OW15797  12.772  13.310   5.935
 4653SOL    HW115798  12.840  13.243   5.945
 4653SOL    HW215799  12.813  13.390   5.968
 4654SOL     OW15800  11.470   5.644   4.423
 4654SOL    HW115801  11.470   5.638   4.328
 4654SOL    HW215802  11.454   5.554   4.453
 4655SOL     OW15803   3.675   3.287   4.977
 4655SOL    HW115804   3.610   3.254   4.915
 4655SOL    HW215805   3.635   3.277   5.063
 4656SOL     OW15806   6.687   3.285   5.114
 4656SOL    HW115807   6.712   3.340   5.188
 4656SOL    HW215808   6.755   3.300   5.048
 4657SOL     OW15809   7.977   4.288   8.280
 4657SOL    HW115810   7.935   4.239   8.351
 4657SOL    HW215811   7.948   4.378   8.292
 4658SOL     OW15812   1.785   3.531   4.229
 4658SOL    HW115813   1.766   3.621   4.202
 4658SOL    HW215814   1.838   3.541   4.308
 4659SOL     OW15815   2.113   0.683  10.137
 4659SOL    HW115816   2.119   0.654  10.046
 4659SOL    HW215817   2.125   0.778  10.134
 4660SOL     OW15818   8.878  13.080   6.058
 4660SOL    HW115819   8.965  13.042   6.071
 4660SOL    HW215820   8.828  13.052   6.135
 4661SOL     OW15821  10.914   0.160  12.875
 4661SOL    HW115822  10.894   0.166  12.968
 4661SOL    HW215823  10.829   0.162  12.831
 4662SOL     OW15824   4.331   2.303  14.045
 4662SOL    HW115825   4.347   2.209  14.036
 4662SOL    HW215826   4.275   2.326  13.971
 4663SOL     OW15827  14.345   1.578   6.481
 4663SOL    HW115828  14.377   1.509   6.539
 4663SOL    HW215829  14.256   1.597   6.512
 4664SOL     OW15830   3.841   0.422   3.921
 4664SOL    HW115831   3.816   0.463   4.004
 4664SOL    HW215832   3.895   0.487   3.877
 4665SOL     OW15833  11.061  12.529   0.652
 4665SOL    HW115834  11.075  12.438   0.629
 4665SOL    HW215835  11.001  12.562   0.584
 4666SOL     OW15836   4.254  10.377  11.490
 4666SOL    HW115837   4.327  10.326  11.455
 4666SOL    HW215838   4.185  10.313  11.505
 4667SOL     OW15839   9.550   0.853   7.560
 4667SOL    HW115840   9.479   0.855   7.625
 4667SOL    HW215841   9.626   0.820   7.609
 4668SOL     OW15842   1.608   0.331   5.221
 4668SOL    HW115843   1.591   0.335   5.316
 4668SOL    HW215844   1.684   0.386   5.208
 4669SOL     OW15845   2.042   4.564   1.202
 4669SOL    HW115846   2.042   4.500   1.131
 4669SOL    HW215847   2.134   4.569   1.229
 4670SOL     OW15848  10.866  13.855  13.090
 4670SOL    HW115849  10.948  13.903  13.090
 4670SOL    HW215850  10.808  13.906  13.034
 4671SOL     OW15851  11.745   3.586  10.834
 4671SOL    HW115852  11.654   3.563  10.811
 4671SOL    HW215853  11.788   3.503  10.850
 4672SOL     OW15854   0.496   8.081   9.224
 4672SOL    HW115855   0.445   8.132   9.286
 4672SOL    HW215856   0.576   8.058   9.271
 4673SOL     OW15857  11.068   4.744   8.261
 4673SOL    HW115858  11.006   4.748   8.334
 4673SOL    HW215859  11.040   4.814   8.201
 4674SOL     OW15860   8.618   9.471  10.632
 4674SOL    HW115861   8.668   9.549  10.607
 4674SOL    HW215862   8.647   9.452  10.721
 4675SOL     OW15863   3.724   5.817  10.311
 4675SOL    HW115864   3.651   5.793  10.369
 4675SOL    HW215865   3.728   5.745  10.247
 4676SOL     OW15866   3.743   3.445   7.093
 4676SOL    HW115867   3.715   3.473   7.180
 4676SOL    HW215868   3.752   3.350   7.099
 4677SOL     OW15869   9.712  11.268   4.286
 4677SOL    HW115870   9.663  11.189   4.266
 4677SOL    HW215871   9.651  11.323   4.335
 4678SOL     OW15872  14.821  12.760  14.375
 4678SOL    HW115873  14.842  12.853  14.364
 4678SOL    HW215874   0.001  12.730  14.445
 4679SOL     OW15875  14.261  13.924  13.681
 4679SOL    HW115876  14.289  14.011  13.650
 4679SOL    HW215877  14.251  13.872  13.601
 4680SOL     OW15878  14.534   6.801  12.227
 4680SOL    HW115879  14.599   6.808  12.297
 4680SOL    HW215880  14.582   6.766  12.152
 4681SOL     OW15881   4.491   1.018   4.981
 4681SOL    HW115882   4.460   1.108   4.971
 4681SOL    HW215883   4.566   1.012   4.922
 4682SOL     OW15884  13.559   2.922   7.434
 4682SOL    HW115885  13.579   2.830   7.452
 4682SOL    HW215886  13.498   2.947   7.504
 4683SOL     OW15887   1.953  10.504  11.999
 4683SOL    HW115888   1.885  10.552  12.046
 4683SOL    HW215889   1.907  10.463  11.926
 4684SOL     OW15890   0.640   6.282  13.258
 4684SOL    HW115891   0.716   6.232  13.286
 4684SOL    HW215892   0.573   6.215  13.242
 4685SOL     OW15893   6.168   2.459  14.380
 4685SOL    HW115894   6.100   2.524  14.362
 4685SOL    HW215895   6.246   2.493  14.336
 4686SOL     OW15896   4.335   0.338   8.898
 4686SOL    HW115897   4.296   0.252   8.917
 4686SOL    HW215898   4.358   0.372   8.984
 4687SOL     OW15899   5.954   1.690  12.593
 4687SOL    HW115900   5.987   1.616  12.543
 4687SOL    HW215901   6.017   1.761  12.577
 4688SOL     OW15902  10.870  10.892   1.906
 4688SOL    HW115903  10.829  10.908   1.991
 4688SOL    HW215904  10.814  10.937   1.844
 4689SOL     OW15905   8.418   8.370  10.155
 4689SOL    HW115906   8.510   8.396  10.151
 4689SOL    HW215907   8.419   8.276  10.140
 4690SOL     OW15908   2.079   7.184   4.241
 4690SOL    HW115909   2.110   7.262   4.285
 4690SOL    HW215910   1.986   7.201   4.225
 4691SOL     OW15911   3.618   3.761  14.510
 4691SOL    HW115912   3.553   3.697  14.482
 4691SOL    HW215913   3.631   3.817  14.433
 4692SOL     OW15914  11.830  11.578   7.876
 4692SOL    HW115915  11.839  11.656   7.820
 4692SOL    HW215916  11.742  11.585   7.913
 4693SOL     OW15917  13.062  12.724  13.162
 4693SOL    HW115918  13.120  12.729  13.237
 4693SOL    HW215919  13.052  12.631  13.145
 4694SOL     OW15920   4.719  11.501   3.165
 4694SOL    HW115921   4.697  11.576   3.109
 4694SOL    HW215922   4.685  11.526   3.251
 4695SOL     OW15923  13.505   2.332   8.702
 4695SOL    HW115924  13.518   2.261   8.640
 4695SOL    HW215925  13.542   2.409   8.659
 4696SOL     OW15926   5.669   2.132  13.883
 4696SOL    HW115927   5.575   2.121  13.897
 4696SOL    HW215928   5.682   2.227  13.880
 4697SOL     OW15929   3.847   7.458   5.366
 4697SOL    HW115930   3.928   7.435   5.412
 4697SOL    HW215931   3.872   7.529   5.307
 4698SOL     OW15932   8.173  13.900   4.575
 4698SOL    HW115933   8.246  13.961   4.562
 4698SOL    HW215934   8.143  13.878   4.487
 4699SOL     OW15935   8.455   9.043   5.619
 4699SOL    HW115936   8.508   8.978   5.666
 4699SOL    HW215937   8.391   9.073   5.684
 4700SOL     OW15938   9.346   1.089  10.797
 4700SOL    HW115939   9.338   1.064  10.705
 4700SOL    HW215940   9.338   1.006  10.844
 4701SOL     OW15941  10.803  13.100   8.854
 4701SOL    HW115942  10.839  13.152   8.927
 4701SOL    HW215943  10.716  13.073   8.885
 4702SOL     OW15944   7.120   4.062   1.931
 4702SOL    HW115945   7.099   3.969   1.919
 4702SOL    HW215946   7.192   4.078   1.870
 4703SOL     OW15947   8.574   9.855  13.842
 4703SOL    HW115948   8.560   9.887  13.752
 4703SOL    HW215949   8.556   9.761  13.837
 4704SOL     OW15950   2.529   4.580  10.018
 4704SOL    HW115951   2.532   4.660   9.966
 4704SOL    HW215952   2.449   4.536   9.989
 4705SOL     OW15953  12.543  12.125   4.466
 4705SOL    HW115954  12.604  12.092   4.400
 4705SOL    HW215955  12.584  12.205   4.499
 4706SOL     OW15956  11.756  11.501  13.828
 4706SOL    HW115957  11.807  11.476  13.905
 4706SOL    HW215958  11.805  11.573  13.789
 4707SOL     OW15959   2.766  11.456  12.621
 4707SOL    HW115960   2.849  11.410  12.637
 4707SOL    HW215961   2.738  11.426  12.535
 4708SOL     OW15962   6.372  10.642   8.352
 4708SOL    HW115963   6.460  10.614   8.374
 4708SOL    HW215964   6.329  10.564   8.318
 4709SOL     OW15965   0.310   9.994  10.419
 4709SOL    HW115966   0.339   9.997  10.510
 4709SOL    HW215967   0.236  10.054  10.416
 4710SOL     OW15968   0.191   6.335  13.571
 4710SOL    HW115969   0.121   6.337  13.507
 4710SOL    HW215970   0.263   6.382  13.529
 4711SOL     OW15971   8.422  13.262  10.266
 4711SOL    HW115972   8.475  13.263  10.186
 4711SOL    HW215973   8.383  13.175  10.269
 4712SOL     OW15974   2.193   3.036  13.198
 4712SOL    HW115975   2.286   3.034  13.175
 4712SOL    HW215976   2.179   3.124  13.235
 4713SOL     OW15977   8.403   7.091   0.089
 4713SOL    HW115978   8.382   6.999   0.107
 4713SOL    HW215979   8.452   7.120   0.166
 4714SOL     OW15980   5.871   6.393  13.470
 4714SOL    HW115981   5.846   6.474  13.426
 4714SOL    HW215982   5.798   6.372  13.527
 4715SOL     OW15983   7.373  13.076  14.612
 4715SOL    HW115984   7.439  13.104  14.548
 4715SOL    HW215985   7.387  13.133  14.687
 4716SOL     OW15986   0.830  11.318   8.148
 4716SOL    HW115987   0.796  11.243   8.098
 4716SOL    HW215988   0.874  11.372   8.082
 4717SOL     OW15989   6.731   3.341   9.589
 4717SOL    HW115990   6.710   3.302   9.674
 4717SOL    HW215991   6.791   3.412   9.609
 4718SOL     OW15992   8.204   1.866  10.916
 4718SOL    HW115993   8.292   1.903  10.904
 4718SOL    HW215994   8.152   1.907  10.847
 4719SOL     OW15995  11.827   6.953   1.461
 4719SOL    HW115996  11.770   6.948   1.384
 4719SOL    HW215997  11.775   6.914   1.531
 4720SOL     OW15998   1.092  12.487   7.955
 4720SOL    HW115999   1.119  12.486   7.863
 4720SOL    HW216000   1.034  12.562   7.962
 4721SOL     OW16001   2.905   4.242   1.192
 4721SOL    HW116002   2.901   4.260   1.286
 4721SOL    HW216003   2.862   4.318   1.151
 4722SOL     OW16004   7.529   2.568   0.896
 4722SOL    HW116005   7.448   2.620   0.899
 4722SOL    HW216006   7.592   2.619   0.946
 4723SOL     OW16007   0.694   6.350  11.729
 4723SOL    HW116008   0.686   6.424  11.669
 4723SOL    HW216009   0.644   6.280  11.687
 4724SOL     OW16010  11.384   0.521   7.969
 4724SOL    HW116011  11.347   0.464   8.037
 4724SOL    HW216012  11.450   0.466   7.926
 4725SOL     OW16013   3.631  10.437  14.793
 4725SOL    HW116014   3.640  10.530  14.814
 4725SOL    HW216015   3.691  10.393  14.853
 4726SOL     OW16016   7.635  10.962  10.026
 4726SOL    HW116017   7.653  10.868  10.029
 4726SOL    HW216018   7.722  11.002  10.028
 4727SOL     OW16019   0.537  11.129  11.391
 4727SOL    HW116020   0.481  11.206  11.402
 4727SOL    HW216021   0.479  11.055  11.409
 4728SOL     OW16022   5.352  11.064   7.021
 4728SOL    HW116023   5.397  10.979   7.024
 4728SOL    HW216024   5.333  11.085   7.112
 4729SOL     OW16025  13.569   2.226   6.379
 4729SOL    HW116026  13.524   2.161   6.432
 4729SOL    HW216027  13.519   2.307   6.392
 4730SOL     OW16028   8.095   6.061   6.957
 4730SOL    HW116029   8.152   6.003   6.907
 4730SOL    HW216030   8.061   6.123   6.892
 4731SOL     OW16031   3.769  10.484  14.549
 4731SOL    HW116032   3.732  10.465  14.635
 4731SOL    HW216033   3.861  10.506  14.566
 4732SOL     OW16034   9.867  10.882   2.756
 4732SOL    HW116035   9.834  10.796   2.731
 4732SOL    HW216036   9.961  10.878   2.739
 4733SOL     OW16037   7.482   2.121  12.005
 4733SOL    HW116038   7.440   2.035  12.005
 4733SOL    HW216039   7.511   2.133  11.914
 4734SOL     OW16040   4.996  10.513   6.084
 4734SOL    HW116041   4.950  10.530   6.167
 4734SOL    HW216042   5.088  10.502   6.110
 4735SOL     OW16043   4.353   3.887  13.830
 4735SOL    HW116044   4.428   3.828  13.837
 4735SOL    HW216045   4.277   3.831  13.842
 4736SOL     OW16046   4.633   0.657   3.851
 4736SOL    HW116047   4.593   0.584   3.897
 4736SOL    HW216048   4.565   0.723   3.844
 4737SOL     OW16049   3.329   8.328  11.780
 4737SOL    HW116050   3.286   8.327  11.694
 4737SOL    HW216051   3.421   8.306  11.761
 4738SOL     OW16052   1.125   1.619  11.869
 4738SOL    HW116053   1.107   1.613  11.775
 4738SOL    HW216054   1.057   1.677  11.903
 4739SOL     OW16055   1.246   0.956   7.353
 4739SOL    HW116056   1.211   1.021   7.413
 4739SOL    HW216057   1.252   0.876   7.405
 4740SOL     OW16058  10.225   9.272   1.370
 4740SOL    HW116059  10.184   9.340   1.317
 4740SOL    HW216060  10.231   9.196   1.313
 4741SOL     OW16061   3.486   8.389   3.326
 4741SOL    HW116062   3.546   8.408   3.254
 4741SOL    HW216063   3.411   8.346   3.285
 4742SOL     OW16064  11.427   1.369   8.003
 4742SOL    HW116065  11.356   1.345   7.944
 4742SOL    HW216066  11.457   1.286   8.040
 4743SOL     OW16067  11.894   8.733   5.735
 4743SOL    HW116068  11.888   8.708   5.827
 4743SOL    HW216069  11.973   8.689   5.703
 4744SOL     OW16070  14.418   5.908   2.017
 4744SOL    HW116071  14.442   5.839   2.079
 4744SOL    HW216072  14.342   5.873   1.970
 4745SOL     OW16073   6.270   8.590   5.751
 4745SOL    HW116074   6.352   8.595   5.702
 4745SOL    HW216075   6.295   8.563   5.839
 4746SOL     OW16076   0.536   8.487  10.007
 4746SOL    HW116077   0.547   8.446  10.093
 4746SOL    HW216078   0.469   8.434   9.964
 4747SOL     OW16079  14.574   9.371   6.347
 4747SOL    HW116080  14.559   9.277   6.340
 4747SOL    HW216081  14.487   9.409   6.360
 4748SOL     OW16082   4.119  11.241   7.374
 4748SOL    HW116083   4.157  11.262   7.289
 4748SOL    HW216084   4.194  11.221   7.429
 4749SOL     OW16085   2.016   6.630   2.994
 4749SOL    HW116086   1.953   6.701   2.981
 4749SOL    HW216087   2.098   6.664   2.959
 4750SOL     OW16088  13.060   5.135   2.084
 4750SOL    HW116089  13.043   5.218   2.039
 4750SOL    HW216090  13.077   5.073   2.013
 4751SOL     OW16091   6.146   3.185   7.765
 4751SOL    HW116092   6.057   3.220   7.771
 4751SOL    HW216093   6.202   3.261   7.751
 4752SOL     OW16094  13.286   8.328   0.189
 4752SOL    HW116095  13.320   8.396   0.247
 4752SOL    HW216096  13.206   8.366   0.153
 4753SOL     OW16097   6.409  11.386   3.287
 4753SOL    HW116098   6.382  11.337   3.209
 4753SOL    HW216099   6.460  11.323   3.338
 4754SOL     OW16100   2.853   1.632   3.464
 4754SOL    HW116101   2.927   1.622   3.404
 4754SOL    HW216102   2.894   1.642   3.550
 4755SOL     OW16103  10.111  11.951   8.069
 4755SOL    HW116104  10.203  11.968   8.089
 4755SOL    HW216105  10.068  11.955   8.155
 4756SOL     OW16106   0.512   8.123  11.216
 4756SOL    HW116107   0.558   8.107  11.134
 4756SOL    HW216108   0.508   8.037  11.258
 4757SOL     OW16109  12.790   4.704   5.435
 4757SOL    HW116110  12.724   4.727   5.502
 4757SOL    HW216111  12.764   4.617   5.406
 4758SOL     OW16112   2.294   0.282   4.379
 4758SOL    HW116113   2.329   0.206   4.334
 4758SOL    HW216114   2.307   0.262   4.472
 4759SOL     OW16115  11.659   2.764  13.947
 4759SOL    HW116116  11.678   2.670  13.951
 4759SOL    HW216117  11.569   2.769  13.915
 4760SOL     OW16118   7.482  11.224   4.969
 4760SOL    HW116119   7.519  11.208   4.882
 4760SOL    HW216120   7.478  11.138   5.009
 4761SOL     OW16121   3.134   3.865  13.330
 4761SOL    HW116122   3.189   3.821  13.265
 4761SOL    HW216123   3.173   3.841  13.414
 4762SOL     OW16124   6.063  11.129  12.408
 4762SOL    HW116125   5.988  11.070  12.395
 4762SOL    HW216126   6.052  11.163  12.496
 4763SOL     OW16127  12.340   2.293   6.084
 4763SOL    HW116128  12.244   2.289   6.088
 4763SOL    HW216129  12.364   2.352   6.156
 4764SOL     OW16130  11.360   7.444   7.191
 4764SOL    HW116131  11.320   7.363   7.160
 4764SOL    HW216132  11.286   7.503   7.207
 4765SOL     OW16133   7.281   5.987   0.595
 4765SOL    HW116134   7.194   6.000   0.633
 4765SOL    HW216135   7.310   5.903   0.630
 4766SOL     OW16136  12.797   0.061   9.574
 4766SOL    HW116137  12.792  14.854   9.533
 4766SOL    HW216138  12.720   0.065   9.631
 4767SOL     OW16139   5.143   3.639   8.291
 4767SOL    HW116140   5.136   3.717   8.235
 4767SOL    HW216141   5.166   3.673   8.377
 4768SOL     OW16142   9.738  13.341  11.383
 4768SOL    HW116143   9.722  13.272  11.447
 4768SOL    HW216144   9.669  13.330  11.318
 4769SOL     OW16145  11.396   7.746  13.864
 4769SOL    HW116146  11.465   7.741  13.798
 4769SOL    HW216147  11.417   7.824  13.915
 4770SOL     OW16148   5.515  12.178   0.427
 4770SOL    HW116149   5.508  12.136   0.513
 4770SOL    HW216150   5.598  12.227   0.430
 4771SOL     OW16151   1.337   7.031   7.195
 4771SOL    HW116152   1.423   6.989   7.199
 4771SOL    HW216153   1.355   7.120   7.164
 4772SOL     OW16154  14.313   6.943  14.534
 4772SOL    HW116155  14.293   6.993  14.613
 4772SOL    HW216156  14.272   6.993  14.463
 4773SOL     OW16157  13.179  11.775  13.642
 4773SOL    HW116158  13.182  11.770  13.547
 4773SOL    HW216159  13.268  11.754  13.671
 4774SOL     OW16160   2.468   5.817  14.132
 4774SOL    HW116161   2.433   5.753  14.194
 4774SOL    HW216162   2.563   5.811  14.143
 4775SOL     OW16163   4.983  14.219  13.590
 4775SOL    HW116164   4.952  14.229  13.500
 4775SOL    HW216165   5.004  14.126  13.598
 4776SOL     OW16166   9.619  10.887   7.613
 4776SOL    HW116167   9.662  10.803   7.631
 4776SOL    HW216168   9.688  10.952   7.626
 4777SOL     OW16169   2.795   9.192   2.899
 4777SOL    HW116170   2.810   9.132   2.826
 4777SOL    HW216171   2.845   9.270   2.876
 4778SOL     OW16172   8.876   7.952   2.171
 4778SOL    HW116173   8.944   7.997   2.220
 4778SOL    HW216174   8.868   7.866   2.213
 4779SOL     OW16175   5.980   4.416  14.817
 4779SOL    HW116176   6.008   4.383   0.024
 4779SOL    HW216177   5.933   4.343  14.777
 4780SOL     OW16178   2.493  13.459   6.326
 4780SOL    HW116179   2.499  13.396   6.254
 4780SOL    HW216180   2.584  13.478   6.349
 4781SOL     OW16181  12.010   2.364   9.847
 4781SOL    HW116182  11.951   2.305   9.800
 4781SOL    HW216183  11.951   2.419   9.900
 4782SOL     OW16184  10.661  11.918   6.137
 4782SOL    HW116185  10.720  11.985   6.171
 4782SOL    HW216186  10.687  11.837   6.182
 4783SOL     OW16187  13.342   1.755   2.948
 4783SOL    HW116188  13.421   1.760   2.894
 4783SOL    HW216189  13.344   1.835   3.001
 4784SOL     OW16190   9.746   3.950   1.690
 4784SOL    HW116191   9.805   4.014   1.731
 4784SOL    HW216192   9.698   4.001   1.624
 4785SOL     OW16193  12.964   1.933   0.306
 4785SOL    HW116194  12.921   2.015   0.329
 4785SOL    HW216195  12.996   1.948   0.216
 4786SOL     OW16196  10.406  12.448   3.056
 4786SOL    HW116197  10.465  12.409   2.991
 4786SOL    HW216198  10.465  12.478   3.125
 4787SOL     OW16199   7.593   8.013  11.042
 4787SOL    HW116200   7.551   7.981  10.963
 4787SOL    HW216201   7.663   8.070  11.010
 4788SOL     OW16202   0.178   6.952  11.635
 4788SOL    HW116203   0.245   7.014  11.609
 4788SOL    HW216204   0.205   6.922  11.722
 4789SOL     OW16205   6.352  10.028  14.878
 4789SOL    HW116206   6.315  10.071  14.800
 4789SOL    HW216207   6.323  10.082   0.072
 4790SOL     OW16208   4.467   2.030   7.976
 4790SOL    HW116209   4.401   2.056   8.040
 4790SOL    HW216210   4.537   2.095   7.986
 4791SOL     OW16211  12.507   6.658  12.198
 4791SOL    HW116212  12.570   6.609  12.251
 4791SOL    HW216213  12.545   6.747  12.193
 4792SOL     OW16214   5.047  13.795  12.836
 4792SOL    HW116215   5.125  13.848  12.853
 4792SOL    HW216216   5.071  13.739  12.763
 4793SOL     OW16217  11.464   2.603   5.949
 4793SOL    HW116218  11.455   2.560   5.864
 4793SOL    HW216219  11.533   2.667   5.937
 4794SOL     OW16220   2.467   4.940  11.339
 4794SOL    HW116221   2.405   4.871  11.362
 4794SOL    HW216222   2.485   4.985  11.421
 4795SOL     OW16223  11.049   3.496   8.633
 4795SOL    HW116224  10.958   3.519   8.611
 4795SOL    HW216225  11.046   3.403   8.652
 4796SOL     OW16226   1.244   3.991   5.693
 4796SOL    HW116227   1.335   3.973   5.716
 4796SOL    HW216228   1.230   3.943   5.612
 4797SOL     OW16229  13.264   0.873   7.674
 4797SOL    HW116230  13.214   0.938   7.724
 4797SOL    HW216231  13.213   0.861   7.593
 4798SOL     OW16232  11.576  10.358   8.623
 4798SOL    HW116233  11.497  10.342   8.572
 4798SOL    HW216234  11.648  10.337   8.565
 4799SOL     OW16235   1.492  11.139   6.580
 4799SOL    HW116236   1.583  11.166   6.573
 4799SOL    HW216237   1.490  11.081   6.656
 4800SOL     OW16238  14.779   2.928  14.124
 4800SOL    HW116239  14.703   2.941  14.066
 4800SOL    HW216240  14.753   2.856  14.181
 4801SOL     OW16241   1.566   9.939   8.117
 4801SOL    HW116242   1.565  10.033   8.096
 4801SOL    HW216243   1.657   9.922   8.142
 4802SOL     OW16244  12.255   2.390   8.029
 4802SOL    HW116245  12.346   2.399   8.054
 4802SOL    HW216246  12.206   2.399   8.111
 4803SOL     OW16247   6.368  13.974  11.442
 4803SOL    HW116248   6.364  13.878  11.447
 4803SOL    HW216249   6.417  14.000  11.520
 4804SOL     OW16250   4.056   4.826   3.661
 4804SOL    HW116251   4.064   4.921   3.667
 4804SOL    HW216252   4.015   4.800   3.744
 4805SOL     OW16253  11.947  11.802  13.288
 4805SOL    HW116254  11.871  11.786  13.231
 4805SOL    HW216255  11.971  11.715  13.319
 4806SOL     OW16256   4.840   6.232   2.151
 4806SOL    HW116257   4.790   6.163   2.195
 4806SOL    HW216258   4.796   6.244   2.067
 4807SOL     OW16259   1.035  13.058   3.700
 4807SOL    HW116260   0.984  12.979   3.719
 4807SOL    HW216261   0.969  13.126   3.686
 4808SOL     OW16262   3.979  13.960   6.304
 4808SOL    HW116263   3.980  13.866   6.288
 4808SOL    HW216264   4.028  13.972   6.385
 4809SOL     OW16265  11.465   6.565   4.402
 4809SOL    HW116266  11.427   6.480   4.379
 4809SOL    HW216267  11.428   6.626   4.338
 4810SOL     OW16268   3.761  13.916   9.751
 4810SOL    HW116269   3.773  13.976   9.824
 4810SOL    HW216270   3.843  13.919   9.703
 4811SOL     OW16271   3.692  12.141   2.796
 4811SOL    HW116272   3.771  12.099   2.830
 4811SOL    HW216273   3.692  12.120   2.703
 4812SOL     OW16274   8.521  14.832   9.617
 4812SOL    HW116275   8.586  14.828   9.687
 4812SOL    HW216276   8.452   0.009   9.651
 4813SOL     OW16277   8.704   1.295  11.259
 4813SOL    HW116278   8.758   1.237  11.205
 4813SOL    HW216279   8.725   1.270  11.349
 4814SOL     OW16280  10.448   7.391  14.317
 4814SOL    HW116281  10.530   7.430  14.349
 4814SOL    HW216282  10.379   7.438  14.363
 4815SOL     OW16283  12.453   1.738  10.969
 4815SOL    HW116284  12.493   1.653  10.952
 4815SOL    HW216285  12.402   1.725  11.049
 4816SOL     OW16286  11.212  12.222   0.757
 4816SOL    HW116287  11.218  12.127   0.770
 4816SOL    HW216288  11.282  12.243   0.696
 4817SOL     OW16289  11.740   4.063   6.050
 4817SOL    HW116290  11.812   4.124   6.035
 4817SOL    HW216291  11.722   4.070   6.144
 4818SOL     OW16292  14.397  11.204   8.755
 4818SOL    HW116293  14.469  11.254   8.717
 4818SOL    HW216294  14.437  11.121   8.780
 4819SOL     OW16295  12.187   7.126   0.798
 4819SOL    HW116296  12.163   7.216   0.776
 4819SOL    HW216297  12.261   7.134   0.858
 4820SOL     OW16298   2.662  13.428   3.224
 4820SOL    HW116299   2.694  13.339   3.240
 4820SOL    HW216300   2.665  13.470   3.310
 4821SOL     OW16301   2.535   7.688   8.658
 4821SOL    HW116302   2.586   7.607   8.666
 4821SOL    HW216303   2.446   7.659   8.638
 4822SOL     OW16304   8.967   9.859  12.462
 4822SOL    HW116305   8.883   9.817  12.449
 4822SOL    HW216306   8.946   9.951  12.480
 4823SOL     OW16307   7.220   8.190  10.253
 4823SOL    HW116308   7.304   8.176  10.297
 4823SOL    HW216309   7.230   8.146  10.169
 4824SOL     OW16310   1.502   3.070  12.331
 4824SOL    HW116311   1.466   3.153  12.299
 4824SOL    HW216312   1.554   3.037  12.258
 4825SOL     OW16313  11.220  14.647   0.950
 4825SOL    HW116314  11.200  14.597   1.029
 4825SOL    HW216315  11.315  14.645   0.944
 4826SOL     OW16316   6.066   4.832   1.092
 4826SOL    HW116317   6.113   4.797   1.168
 4826SOL    HW216318   5.998   4.767   1.073
 4827SOL     OW16319   3.412   1.344   5.072
 4827SOL    HW116320   3.444   1.434   5.065
 4827SOL    HW216321   3.423   1.308   4.984
 4828SOL     OW16322  13.848   6.206   2.819
 4828SOL    HW116323  13.903   6.172   2.889
 4828SOL    HW216324  13.848   6.301   2.832
 4829SOL     OW16325   1.841   7.437   8.750
 4829SOL    HW116326   1.833   7.343   8.769
 4829SOL    HW216327   1.822   7.480   8.834
 4830SOL     OW16328   0.014  13.836  10.436
 4830SOL    HW116329  14.873  13.868  10.348
 4830SOL    HW216330   0.109  13.829  10.438
 4831SOL     OW16331   4.045  14.517  14.545
 4831SOL    HW116332   4.094  14.500  14.625
 4831SOL    HW216333   3.953  14.507  14.570
 4832SOL     OW16334   0.759   9.718   6.595
 4832SOL    HW116335   0.764   9.807   6.560
 4832SOL    HW216336   0.675   9.685   6.564
 4833SOL     OW16337   6.415   5.583  10.367
 4833SOL    HW116338   6.455   5.531  10.298
 4833SOL    HW216339   6.478   5.652  10.385
 4834SOL     OW16340  11.804   9.596  14.093
 4834SOL    HW116341  11.855   9.588  14.012
 4834SOL    HW216342  11.750   9.674  14.080
 4835SOL     OW16343   1.675  11.908   6.445
 4835SOL    HW116344   1.730  11.920   6.368
 4835SOL    HW216345   1.732  11.865   6.509
 4836SOL     OW16346   6.649  10.889   7.788
 4836SOL    HW116347   6.557  10.864   7.790
 4836SOL    HW216348   6.674  10.899   7.880
 4837SOL     OW16349  12.873   6.231   9.714
 4837SOL    HW116350  12.926   6.221   9.635
 4837SOL    HW216351  12.864   6.326   9.725
 4838SOL     OW16352   0.396  12.557  10.730
 4838SOL    HW116353   0.366  12.580  10.818
 4838SOL    HW216354   0.389  12.462  10.727
 4839SOL     OW16355   1.905   9.334   4.499
 4839SOL    HW116356   1.973   9.267   4.491
 4839SOL    HW216357   1.886   9.359   4.408
 4840SOL     OW16358  10.741   3.056  12.194
 4840SOL    HW116359  10.830   3.070  12.228
 4840SOL    HW216360  10.714   2.972  12.233
 4841SOL     OW16361   9.619  13.503   1.217
 4841SOL    HW116362   9.592  13.523   1.307
 4841SOL    HW216363   9.653  13.586   1.184
 4842SOL     OW16364   2.419   9.774   8.364
 4842SOL    HW116365   2.405   9.715   8.438
 4842SOL    HW216366   2.335   9.774   8.318
 4843SOL     OW16367  14.110   3.676   3.854
 4843SOL    HW116368  14.166   3.696   3.929
 4843SOL    HW216369  14.125   3.583   3.838
 4844SOL     OW16370  10.448   5.218   8.784
 4844SOL    HW116371  10.527   5.179   8.821
 4844SOL    HW216372  10.398   5.249   8.860
 4845SOL     OW16373   9.738   9.477  11.674
 4845SOL    HW116374   9.644   9.490  11.686
 4845SOL    HW216375   9.763   9.540  11.607
 4846SOL     OW16376   7.853   9.672   5.095
 4846SOL    HW116377   7.886   9.671   5.005
 4846SOL    HW216378   7.773   9.723   5.090
 4847SOL     OW16379   8.690   2.143   1.862
 4847SOL    HW116380   8.637   2.201   1.916
 4847SOL    HW216381   8.696   2.187   1.777
 4848SOL     OW16382   1.452   9.326   2.608
 4848SOL    HW116383   1.542   9.304   2.632
 4848SOL    HW216384   1.437   9.280   2.526
 4849SOL     OW16385   6.993   7.898   2.639
 4849SOL    HW116386   7.020   7.868   2.553
 4849SOL    HW216387   6.898   7.889   2.639
 4850SOL     OW16388   0.276   9.839   6.289
 4850SOL    HW116389   0.231   9.769   6.336
 4850SOL    HW216390   0.213   9.869   6.223
 4851SOL     OW16391   1.088   6.642   9.607
 4851SOL    HW116392   1.023   6.615   9.542
 4851SOL    HW216393   1.165   6.666   9.555
 4852SOL     OW16394   5.003   2.636   7.053
 4852SOL    HW116395   4.991   2.547   7.019
 4852SOL    HW216396   4.921   2.655   7.099
 4853SOL     OW16397   3.556   1.486   8.937
 4853SOL    HW116398   3.465   1.460   8.951
 4853SOL    HW216399   3.588   1.507   9.024
 4854SOL     OW16400   1.054   3.580   2.758
 4854SOL    HW116401   1.143   3.581   2.793
 4854SOL    HW216402   0.998   3.597   2.834
 4855SOL     OW16403  12.600   0.857   6.330
 4855SOL    HW116404  12.691   0.862   6.302
 4855SOL    HW216405  12.600   0.892   6.419
 4856SOL     OW16406   0.610  11.388   0.855
 4856SOL    HW116407   0.660  11.432   0.786
 4856SOL    HW216408   0.536  11.445   0.871
 4857SOL     OW16409   3.808   3.075   8.143
 4857SOL    HW116410   3.885   3.131   8.142
 4857SOL    HW216411   3.841   2.990   8.172
 4858SOL     OW16412   3.209  11.296   3.168
 4858SOL    HW116413   3.273  11.282   3.098
 4858SOL    HW216414   3.137  11.343   3.125
 4859SOL     OW16415   0.825   5.343   1.876
 4859SOL    HW116416   0.858   5.265   1.921
 4859SOL    HW216417   0.831   5.321   1.783
 4860SOL     OW16418  10.132   0.260   7.342
 4860SOL    HW116419  10.121   0.194   7.274
 4860SOL    HW216420  10.060   0.321   7.329
 4861SOL     OW16421   2.701   7.488   0.146
 4861SOL    HW116422   2.789   7.523   0.158
 4861SOL    HW216423   2.685   7.495   0.052
 4862SOL     OW16424  14.433  10.019   2.210
 4862SOL    HW116425  14.507  10.079   2.218
 4862SOL    HW216426  14.473   9.934   2.193
 4863SOL     OW16427   0.787   4.301   9.905
 4863SOL    HW116428   0.757   4.344   9.985
 4863SOL    HW216429   0.870   4.261   9.929
 4864SOL     OW16430   5.082   5.095   3.798
 4864SOL    HW116431   5.111   5.006   3.816
 4864SOL    HW216432   4.992   5.098   3.829
 4865SOL     OW16433   4.538   4.596   3.570
 4865SOL    HW116434   4.505   4.600   3.660
 4865SOL    HW216435   4.625   4.636   3.575
 4866SOL     OW16436  11.038  11.906   0.961
 4866SOL    HW116437  11.036  11.850   0.883
 4866SOL    HW216438  11.128  11.937   0.965
 4867SOL     OW16439   0.138  11.103   7.165
 4867SOL    HW116440   0.051  11.107   7.124
 4867SOL    HW216441   0.140  11.178   7.225
 4868SOL     OW16442  10.886   2.777   4.450
 4868SOL    HW116443  10.876   2.782   4.546
 4868SOL    HW216444  10.943   2.852   4.428
 4869SOL     OW16445  10.391   8.300   8.226
 4869SOL    HW116446  10.397   8.227   8.165
 4869SOL    HW216447  10.299   8.303   8.252
 4870SOL     OW16448  14.580  10.692  10.290
 4870SOL    HW116449  14.575  10.703  10.385
 4870SOL    HW216450  14.530  10.612  10.272
 4871SOL     OW16451  13.926   1.625   6.423
 4871SOL    HW116452  14.005   1.679   6.418
 4871SOL    HW216453  13.959   1.536   6.437
 4872SOL     OW16454   3.285   6.560   3.065
 4872SOL    HW116455   3.258   6.522   3.148
 4872SOL    HW216456   3.253   6.651   3.069
 4873SOL     OW16457   7.634  13.519   3.941
 4873SOL    HW116458   7.611  13.460   4.013
 4873SOL    HW216459   7.604  13.605   3.972
 4874SOL     OW16460   2.618   8.101   2.522
 4874SOL    HW116461   2.526   8.122   2.514
 4874SOL    HW216462   2.652   8.161   2.588
 4875SOL     OW16463   7.700   0.774   4.023
 4875SOL    HW116464   7.645   0.851   4.008
 4875SOL    HW216465   7.731   0.783   4.113
 4876SOL     OW16466  13.665   4.461  14.157
 4876SOL    HW116467  13.642   4.493  14.244
 4876SOL    HW216468  13.606   4.386  14.143
 4877SOL     OW16469   0.705   5.581   2.477
 4877SOL    HW116470   0.742   5.555   2.561
 4877SOL    HW216471   0.752   5.529   2.412
 4878SOL     OW16472   7.040  14.382  12.149
 4878SOL    HW116473   6.987  14.453  12.112
 4878SOL    HW216474   6.997  14.362  12.232
 4879SOL     OW16475   3.222  10.565   6.220
 4879SOL    HW116476   3.289  10.603   6.276
 4879SOL    HW216477   3.228  10.615   6.138
 4880SOL     OW16478   1.978   4.817   0.999
 4880SOL    HW116479   1.940   4.899   1.033
 4880SOL    HW216480   2.025   4.780   1.073
 4881SOL     OW16481   7.543   0.239   0.688
 4881SOL    HW116482   7.570   0.235   0.780
 4881SOL    HW216483   7.569   0.154   0.652
 4882SOL     OW16484   2.629   1.726  12.755
 4882SOL    HW116485   2.658   1.746  12.667
 4882SOL    HW216486   2.642   1.631  12.764
 4883SOL     OW16487   7.053   2.649   6.160
 4883SOL    HW116488   7.041   2.734   6.117
 4883SOL    HW216489   6.968   2.630   6.200
 4884SOL     OW16490   1.134  13.252   9.886
 4884SOL    HW116491   1.057  13.306   9.865
 4884SOL    HW216492   1.181  13.245   9.803
 4885SOL     OW16493  13.926  12.079  10.895
 4885SOL    HW116494  13.883  12.164  10.907
 4885SOL    HW216495  14.019  12.096  10.915
 4886SOL     OW16496   5.536   2.236   4.378
 4886SOL    HW116497   5.537   2.313   4.320
 4886SOL    HW216498   5.464   2.253   4.439
 4887SOL     OW16499   6.235   5.957   7.834
 4887SOL    HW116500   6.179   5.953   7.756
 4887SOL    HW216501   6.324   5.948   7.801
 4888SOL     OW16502  11.503   5.054   8.769
 4888SOL    HW116503  11.462   5.129   8.812
 4888SOL    HW216504  11.457   5.047   8.685
 4889SOL     OW16505   6.301   2.484   1.467
 4889SOL    HW116506   6.327   2.427   1.540
 4889SOL    HW216507   6.225   2.439   1.429
 4890SOL     OW16508   7.608   1.027  12.894
 4890SOL    HW116509   7.641   1.078  12.968
 4890SOL    HW216510   7.601   0.938  12.928
 4891SOL     OW16511   9.489  10.189   4.154
 4891SOL    HW116512   9.445  10.266   4.119
 4891SOL    HW216513   9.545  10.158   4.082
 4892SOL     OW16514   9.934   1.382   5.833
 4892SOL    HW116515  10.011   1.360   5.782
 4892SOL    HW216516   9.969   1.419   5.914
 4893SOL     OW16517  11.852   0.720   8.620
 4893SOL    HW116518  11.932   0.668   8.619
 4893SOL    HW216519  11.866   0.788   8.554
 4894SOL     OW16520  14.241   4.803   2.314
 4894SOL    HW116521  14.208   4.824   2.401
 4894SOL    HW216522  14.289   4.721   2.325
 4895SOL     OW16523   8.356   5.869  12.514
 4895SOL    HW116524   8.333   5.941  12.456
 4895SOL    HW216525   8.380   5.911  12.597
 4896SOL     OW16526   5.279   6.033   8.512
 4896SOL    HW116527   5.356   6.090   8.515
 4896SOL    HW216528   5.247   6.030   8.602
 4897SOL     OW16529   4.541   5.436   8.348
 4897SOL    HW116530   4.552   5.370   8.416
 4897SOL    HW216531   4.628   5.442   8.307
 4898SOL     OW16532  12.656  11.508   3.073
 4898SOL    HW116533  12.721  11.439   3.062
 4898SOL    HW216534  12.706  11.590   3.074
 4899SOL     OW16535   1.694   9.802  10.528
 4899SOL    HW116536   1.754   9.838  10.462
 4899SOL    HW216537   1.746   9.799  10.608
 4900SOL     OW16538   4.408   3.315   1.232
 4900SOL    HW116539   4.411   3.404   1.197
 4900SOL    HW216540   4.494   3.278   1.212
 4901SOL     OW16541   9.451   5.209   4.429
 4901SOL    HW116542   9.482   5.258   4.352
 4901SOL    HW216543   9.355   5.217   4.424
 4902SOL     OW16544   2.349  10.313   2.238
 4902SOL    HW116545   2.324  10.238   2.292
 4902SOL    HW216546   2.269  10.337   2.192
 4903SOL     OW16547   0.244   2.878  14.848
 4903SOL    HW116548   0.213   2.850  14.762
 4903SOL    HW216549   0.275   2.967  14.834
 4904SOL     OW16550   4.410   1.372  11.655
 4904SOL    HW116551   4.331   1.411  11.692
 4904SOL    HW216552   4.401   1.386  11.561
 4905SOL     OW16553   0.348   8.481   9.370
 4905SOL    HW116554   0.287   8.459   9.440
 4905SOL    HW216555   0.427   8.509   9.415
 4906SOL     OW16556   2.446   0.991  10.885
 4906SOL    HW116557   2.502   0.924  10.847
 4906SOL    HW216558   2.373   0.943  10.924
 4907SOL     OW16559   6.766   1.354  12.194
 4907SOL    HW116560   6.839   1.355  12.133
 4907SOL    HW216561   6.793   1.410  12.266
 4908SOL     OW16562   8.269   6.642   3.865
 4908SOL    HW116563   8.188   6.642   3.917
 4908SOL    HW216564   8.240   6.627   3.775
 4909SOL     OW16565   2.673   1.110   1.591
 4909SOL    HW116566   2.628   1.174   1.537
 4909SOL    HW216567   2.672   1.029   1.539
 4910SOL     OW16568   7.692   6.905   5.129
 4910SOL    HW116569   7.747   6.983   5.138
 4910SOL    HW216570   7.634   6.908   5.205
 4911SOL     OW16571   8.637  13.198   1.946
 4911SOL    HW116572   8.676  13.277   1.982
 4911SOL    HW216573   8.711  13.150   1.908
 4912SOL     OW16574  11.254   2.505   2.697
 4912SOL    HW116575  11.272   2.529   2.788
 4912SOL    HW216576  11.211   2.582   2.660
 4913SOL     OW16577   2.173   0.497   7.618
 4913SOL    HW116578   2.205   0.542   7.540
 4913SOL    HW216579   2.250   0.455   7.655
 4914SOL     OW16580   1.618  11.389  10.630
 4914SOL    HW116581   1.542  11.357  10.679
 4914SOL    HW216582   1.690  11.386  10.692
 4915SOL     OW16583   4.576  12.971   6.861
 4915SOL    HW116584   4.567  12.918   6.940
 4915SOL    HW216585   4.635  12.920   6.805
 4916SOL     OW16586   3.208   8.515  14.621
 4916SOL    HW116587   3.156   8.437  14.600
 4916SOL    HW216588   3.212   8.515  14.717
 4917SOL     OW16589   7.653   2.439  12.539
 4917SOL    HW116590   7.729   2.492  12.561
 4917SOL    HW216591   7.668   2.412  12.448
 4918SOL     OW16592  14.505   1.686   9.858
 4918SOL    HW116593  14.463   1.676   9.944
 4918SOL    HW216594  14.598   1.673   9.875
 4919SOL     OW16595   5.612  12.886   8.587
 4919SOL    HW116596   5.652  12.893   8.674
 4919SOL    HW216597   5.663  12.818   8.543
 4920SOL     OW16598   8.184   1.450   4.714
 4920SOL    HW116599   8.278   1.444   4.696
 4920SOL    HW216600   8.166   1.375   4.770
 4921SOL     OW16601   5.579   2.600   5.754
 4921SOL    HW116602   5.557   2.693   5.765
 4921SOL    HW216603   5.498   2.560   5.723
 4922SOL     OW16604  11.929  10.398   8.990
 4922SOL    HW116605  11.853  10.383   9.047
 4922SOL    HW216606  11.892  10.417   8.904
 4923SOL     OW16607   2.261   6.392   3.972
 4923SOL    HW116608   2.215   6.429   3.896
 4923SOL    HW216609   2.284   6.304   3.945
 4924SOL     OW16610   2.280   9.961  11.719
 4924SOL    HW116611   2.325  10.002  11.793
 4924SOL    HW216612   2.187   9.972  11.739
 4925SOL     OW16613  10.178  13.732   4.928
 4925SOL    HW116614  10.084  13.748   4.918
 4925SOL    HW216615  10.217  13.767   4.848
 4926SOL     OW16616   6.779   3.283   7.062
 4926SOL    HW116617   6.712   3.287   6.995
 4926SOL    HW216618   6.735   3.247   7.139
 4927SOL     OW16619  14.023  10.652  10.377
 4927SOL    HW116620  14.068  10.627  10.296
 4927SOL    HW216621  14.032  10.576  10.434
 4928SOL     OW16622  12.455   4.294   3.761
 4928SOL    HW116623  12.538   4.296   3.713
 4928SOL    HW216624  12.442   4.385   3.788
 4929SOL     OW16625   6.795   8.354   8.672
 4929SOL    HW116626   6.806   8.330   8.764
 4929SOL    HW216627   6.833   8.280   8.624
 4930SOL     OW16628   7.168   5.188  14.761
 4930SOL    HW116629   7.223   5.127  14.810
 4930SOL    HW216630   7.091   5.136  14.736
 4931SOL     OW16631   2.953  14.429  11.245
 4931SOL    HW116632   2.863  14.459  11.237
 4931SOL    HW216633   3.005  14.509  11.254
 4932SOL     OW16634   1.016  10.893  10.146
 4932SOL    HW116635   1.035  10.836  10.220
 4932SOL    HW216636   1.029  10.838  10.069
 4933SOL     OW16637   6.731   2.331  11.182
 4933SOL    HW116638   6.694   2.398  11.124
 4933SOL    HW216639   6.817   2.312  11.145
 4934SOL     OW16640   5.223   1.955   1.041
 4934SOL    HW116641   5.160   1.883   1.043
 4934SOL    HW216642   5.307   1.914   1.060
 4935SOL     OW16643   3.305  13.549  10.483
 4935SOL    HW116644   3.316  13.453  10.487
 4935SOL    HW216645   3.217  13.562  10.449
 4936SOL     OW16646   8.930   1.893   6.333
 4936SOL    HW116647   8.995   1.933   6.392
 4936SOL    HW216648   8.884   1.968   6.294
 4937SOL     OW16649  12.030   2.691   2.754
 4937SOL    HW116650  12.077   2.772   2.773
 4937SOL    HW216651  12.053   2.670   2.664
 4938SOL     OW16652  12.315   4.992  12.983
 4938SOL    HW116653  12.359   4.908  12.967
 4938SOL    HW216654  12.225   4.978  12.954
 4939SOL     OW16655   5.476   6.990   8.595
 4939SOL    HW116656   5.413   6.990   8.523
 4939SOL    HW216657   5.518   6.904   8.589
 4940SOL     OW16658  13.903  12.775  11.899
 4940SOL    HW116659  13.966  12.703  11.891
 4940SOL    HW216660  13.901  12.814  11.811
 4941SOL     OW16661   9.126   6.562  10.637
 4941SOL    HW116662   9.178   6.618  10.579
 4941SOL    HW216663   9.173   6.479  10.638
 4942SOL     OW16664  13.408   7.126  10.271
 4942SOL    HW116665  13.481   7.107  10.212
 4942SOL    HW216666  13.363   7.200  10.231
 4943SOL     OW16667  12.898   0.465   5.473
 4943SOL    HW116668  12.994   0.471   5.479
 4943SOL    HW216669  12.867   0.501   5.556
 4944SOL     OW16670   6.311   6.460  11.305
 4944SOL    HW116671   6.226   6.465  11.349
 4944SOL    HW216672   6.289   6.459  11.212
 4945SOL     OW16673   6.669  12.457   8.409
 4945SOL    HW116674   6.580  12.468   8.374
 4945SOL    HW216675   6.722  12.433   8.333
 4946SOL     OW16676  14.360  11.057   0.373
 4946SOL    HW116677  14.330  11.060   0.464
 4946SOL    HW216678  14.420  11.131   0.364
 4947SOL     OW16679  10.486   9.350   5.266
 4947SOL    HW116680  10.405   9.397   5.287
 4947SOL    HW216681  10.531   9.408   5.204
 4948SOL     OW16682   4.970   5.187   7.695
 4948SOL    HW116683   4.960   5.281   7.681
 4948SOL    HW216684   5.052   5.165   7.650
 4949SOL     OW16685   4.033  10.975  14.393
 4949SOL    HW116686   4.091  10.965  14.469
 4949SOL    HW216687   4.012  11.068  14.391
 4950SOL     OW16688   5.858   9.525  10.111
 4950SOL    HW116689   5.952   9.530  10.092
 4950SOL    HW216690   5.824   9.464  10.046
 4951SOL     OW16691   4.006   4.578   9.092
 4951SOL    HW116692   4.049   4.566   9.007
 4951SOL    HW216693   3.923   4.530   9.084
 4952SOL     OW16694   5.579   6.241   5.023
 4952SOL    HW116695   5.521   6.220   5.096
 4952SOL    HW216696   5.591   6.336   5.027
 4953SOL     OW16697   6.205   7.396   0.561
 4953SOL    HW116698   6.238   7.484   0.543
 4953SOL    HW216699   6.265   7.338   0.514
 4954SOL     OW16700   9.969   9.158   6.359
 4954SOL    HW116701   9.985   9.111   6.277
 4954SOL    HW216702   9.955   9.249   6.332
 4955SOL     OW16703   8.083  11.641   2.186
 4955SOL    HW116704   8.168  11.605   2.212
 4955SOL    HW216705   8.065  11.601   2.101
 4956SOL     OW16706  10.716   9.614   4.745
 4956SOL    HW116707  10.777   9.542   4.740
 4956SOL    HW216708  10.643   9.587   4.689
 4957SOL     OW16709   3.318  11.526   1.026
 4957SOL    HW116710   3.411  11.503   1.027
 4957SOL    HW216711   3.303  11.559   0.937
 4958SOL     OW16712   9.623   2.679   9.273
 4958SOL    HW116713   9.679   2.602   9.285
 4958SOL    HW216714   9.602   2.679   9.179
 4959SOL     OW16715   4.227   8.818   2.777
 4959SOL    HW116716   4.286   8.770   2.718
 4959SOL    HW216717   4.283   8.844   2.851
 4960SOL     OW16718   4.383   9.952   2.041
 4960SOL    HW116719   4.470   9.973   2.007
 4960SOL    HW216720   4.323   9.971   1.969
 4961SOL     OW16721  12.504   1.894   3.996
 4961SOL    HW116722  12.420   1.904   3.951
 4961SOL    HW216723  12.504   1.803   4.026
 4962SOL     OW16724   2.980   9.462  10.851
 4962SOL    HW116725   2.942   9.514  10.780
 4962SOL    HW216726   3.029   9.392  10.807
 4963SOL     OW16727   1.080   8.451   8.320
 4963SOL    HW116728   1.054   8.359   8.317
 4963SOL    HW216729   1.139   8.462   8.245
 4964SOL     OW16730   1.370   6.793   9.138
 4964SOL    HW116731   1.368   6.888   9.153
 4964SOL    HW216732   1.345   6.783   9.046
 4965SOL     OW16733  11.298  11.008   1.676
 4965SOL    HW116734  11.388  10.984   1.652
 4965SOL    HW216735  11.301  11.103   1.685
 4966SOL     OW16736   9.564   8.655   0.906
 4966SOL    HW116737   9.634   8.590   0.908
 4966SOL    HW216738   9.483   8.604   0.911
 4967SOL     OW16739   4.232  12.196  11.517
 4967SOL    HW116740   4.192  12.118  11.479
 4967SOL    HW216741   4.232  12.180  11.611
 4968SOL     OW16742  13.525  11.280  10.580
 4968SOL    HW116743  13.479  11.325  10.651
 4968SOL    HW216744  13.496  11.326  10.501
 4969SOL     OW16745  14.405   4.844   0.867
 4969SOL    HW116746  14.484   4.894   0.847
 4969SOL    HW216747  14.437   4.767   0.915
 4970SOL     OW16748  14.512  13.269   4.978
 4970SOL    HW116749  14.508  13.182   5.016
 4970SOL    HW216750  14.475  13.258   4.890
 4971SOL     OW16751   9.057   2.096   4.670
 4971SOL    HW116752   8.980   2.042   4.654
 4971SOL    HW216753   9.084   2.125   4.583
 4972SOL     OW16754  10.970   7.112  10.359
 4972SOL    HW116755  10.931   7.026  10.375
 4972SOL    HW216756  10.984   7.115  10.265
 4973SOL     OW16757   9.455   1.505   5.533
 4973SOL    HW116758   9.525   1.459   5.488
 4973SOL    HW216759   9.440   1.454   5.613
 4974SOL     OW16760   0.522  13.694   3.790
 4974SOL    HW116761   0.554  13.624   3.733
 4974SOL    HW216762   0.558  13.774   3.752
 4975SOL     OW16763   5.891   2.239  11.419
 4975SOL    HW116764   5.861   2.264  11.331
 4975SOL    HW216765   5.980   2.207  11.405
 4976SOL     OW16766   2.983   3.195  11.811
 4976SOL    HW116767   3.035   3.243  11.746
 4976SOL    HW216768   3.012   3.231  11.895
 4977SOL     OW16769  14.133   0.304   5.226
 4977SOL    HW116770  14.165   0.322   5.315
 4977SOL    HW216771  14.185   0.361   5.170
 4978SOL     OW16772  14.851   5.969   7.564
 4978SOL    HW116773  14.780   5.905   7.554
 4978SOL    HW216774  14.807   6.054   7.559
 4979SOL     OW16775   2.909   6.726  13.329
 4979SOL    HW116776   2.868   6.649  13.367
 4979SOL    HW216777   2.841   6.766  13.275
 4980SOL     OW16778  13.402   4.832   3.289
 4980SOL    HW116779  13.473   4.878   3.244
 4980SOL    HW216780  13.383   4.756   3.233
 4981SOL     OW16781  10.873   1.619   0.953
 4981SOL    HW116782  10.924   1.636   0.873
 4981SOL    HW216783  10.833   1.533   0.939
 4982SOL     OW16784   5.618   7.988  13.312
 4982SOL    HW116785   5.619   7.914  13.252
 4982SOL    HW216786   5.706   7.990  13.350
 4983SOL     OW16787  13.123   8.544  11.762
 4983SOL    HW116788  13.125   8.638  11.745
 4983SOL    HW216789  13.144   8.535  11.855
 4984SOL     OW16790  11.052   2.991   4.480
 4984SOL    HW116791  11.131   2.989   4.533
 4984SOL    HW216792  11.053   3.077   4.438
 4985SOL     OW16793  12.161   3.347   4.530
 4985SOL    HW116794  12.099   3.420   4.532
 4985SOL    HW216795  12.188   3.336   4.621
 4986SOL     OW16796   2.067   4.556   6.755
 4986SOL    HW116797   2.113   4.479   6.722
 4986SOL    HW216798   1.998   4.573   6.690
 4987SOL     OW16799  12.907   8.744   1.108
 4987SOL    HW116800  12.814   8.765   1.120
 4987SOL    HW216801  12.932   8.700   1.190
 4988SOL     OW16802  10.281  10.973  14.854
 4988SOL    HW116803  10.339  10.939   0.043
 4988SOL    HW216804  10.340  11.009  14.787
 4989SOL     OW16805   5.813   1.900   9.231
 4989SOL    HW116806   5.818   1.993   9.209
 4989SOL    HW216807   5.723   1.875   9.211
 4990SOL     OW16808   4.466  14.041   8.809
 4990SOL    HW116809   4.441  14.095   8.734
 4990SOL    HW216810   4.522  14.098   8.862
 4991SOL     OW16811  14.058   7.765   6.045
 4991SOL    HW116812  13.990   7.822   6.009
 4991SOL    HW216813  14.031   7.677   6.019
 4992SOL     OW16814  14.625  11.253  11.425
 4992SOL    HW116815  14.655  11.242  11.515
 4992SOL    HW216816  14.612  11.348  11.415
 4993SOL     OW16817   5.951  12.545   6.229
 4993SOL    HW116818   6.044  12.536   6.208
 4993SOL    HW216819   5.949  12.604   6.305
 4994SOL     OW16820   3.779   2.140   5.939
 4994SOL    HW116821   3.850   2.178   5.990
 4994SOL    HW216822   3.784   2.046   5.956
 4995SOL     OW16823   2.995  12.813  11.560
 4995SOL    HW116824   2.925  12.875  11.580
 4995SOL    HW216825   2.949  12.733  11.532
 4996SOL     OW16826   6.121  13.940   8.011
 4996SOL    HW116827   6.128  13.949   8.106
 4996SOL    HW216828   6.027  13.946   7.993
 4997SOL     OW16829   3.330  11.705   1.407
 4997SOL    HW116830   3.271  11.633   1.385
 4997SOL    HW216831   3.337  11.756   1.327
 4998SOL     OW16832   2.156   7.427   8.173
 4998SOL    HW116833   2.139   7.400   8.083
 4998SOL    HW216834   2.069   7.441   8.210
 4999SOL     OW16835   5.960   9.945  10.695
 4999SOL    HW116836   6.025   9.985  10.753
 4999SOL    HW216837   5.954  10.004  10.620
 5000SOL     OW16838   7.011  13.852   2.444
 5000SOL    HW116839   7.020  13.785   2.375
 5000SOL    HW216840   6.997  13.802   2.524
 5001SOL     OW16841  10.912   4.230  12.074
 5001SOL    HW116842  10.861   4.149  12.067
 5001SOL    HW216843  10.977   4.224  12.004
 5002SOL     OW16844  12.151   3.755   4.277
 5002SOL    HW116845  12.198   3.806   4.343
 5002SOL    HW216846  12.087   3.816   4.241
 5003SOL     OW16847  13.106  14.337   2.570
 5003SOL    HW116848  13.172  14.318   2.504
 5003SOL    HW216849  13.078  14.251   2.602
 5004SOL     OW16850   6.589   1.528   1.571
 5004SOL    HW116851   6.643   1.459   1.531
 5004SOL    HW216852   6.523   1.548   1.504
 5005SOL     OW16853   4.580  12.086   8.807
 5005SOL    HW116854   4.664  12.042   8.793
 5005SOL    HW216855   4.601  12.179   8.803
 5006SOL     OW16856   5.063  10.870  14.417
 5006SOL    HW116857   4.987  10.825  14.379
 5006SOL    HW216858   5.025  10.943  14.466
 5007SOL     OW16859   6.540   9.652   9.247
 5007SOL    HW116860   6.608   9.630   9.311
 5007SOL    HW216861   6.492   9.724   9.288
 5008SOL     OW16862  11.364   4.753   3.914
 5008SOL    HW116863  11.426   4.713   3.976
 5008SOL    HW216864  11.314   4.679   3.879
 5009SOL     OW16865   6.647   6.855   1.695
 5009SOL    HW116866   6.628   6.793   1.624
 5009SOL    HW216867   6.726   6.900   1.666
 5010SOL     OW16868   2.341  12.891   8.548
 5010SOL    HW116869   2.310  12.962   8.605
 5010SOL    HW216870   2.403  12.842   8.601
 5011SOL     OW16871  11.034  11.725  12.246
 5011SOL    HW116872  10.990  11.671  12.311
 5011SOL    HW216873  11.024  11.815  12.279
 5012SOL     OW16874   0.926  11.006   3.087
 5012SOL    HW116875   0.854  10.954   3.051
 5012SOL    HW216876   0.884  11.089   3.113
 5013SOL     OW16877  11.946   9.771  10.727
 5013SOL    HW116878  11.882   9.823  10.678
 5013SOL    HW216879  11.926   9.787  10.819
 5014SOL     OW16880  14.159  10.868   1.950
 5014SOL    HW116881  14.221  10.916   1.896
 5014SOL    HW216882  14.128  10.796   1.895
 5015SOL     OW16883   3.006   2.720  13.798
 5015SOL    HW116884   3.089   2.748  13.836
 5015SOL    HW216885   3.029   2.645  13.743
 5016SOL     OW16886  13.589  12.647  10.476
 5016SOL    HW116887  13.583  12.561  10.517
 5016SOL    HW216888  13.638  12.700  10.539
 5017SOL     OW16889   2.480   2.922   2.545
 5017SOL    HW116890   2.537   2.997   2.558
 5017SOL    HW216891   2.528   2.848   2.584
 5018SOL     OW16892  10.995   6.976  14.295
 5018SOL    HW116893  11.086   6.965  14.266
 5018SOL    HW216894  11.002   7.023  14.378
 5019SOL     OW16895   5.234  10.688   6.106
 5019SOL    HW116896   5.274  10.687   6.192
 5019SOL    HW216897   5.285  10.751   6.055
 5020SOL     OW16898   9.546   2.695   6.217
 5020SOL    HW116899   9.500   2.617   6.185
 5020SOL    HW216900   9.562   2.677   6.310
 5021SOL     OW16901   7.935   4.980   6.822
 5021SOL    HW116902   7.906   4.903   6.773
 5021SOL    HW216903   8.004   4.948   6.879
 5022SOL     OW16904   4.870   5.926  10.465
 5022SOL    HW116905   4.820   5.924  10.384
 5022SOL    HW216906   4.936   5.857  10.454
 5023SOL     OW16907  14.005   9.779   6.149
 5023SOL    HW116908  13.956   9.777   6.231
 5023SOL    HW216909  13.945   9.817   6.086
 5024SOL     OW16910   0.635   6.611   5.219
 5024SOL    HW116911   0.625   6.540   5.155
 5024SOL    HW216912   0.558   6.603   5.276
 5025SOL     OW16913   2.570  14.053   5.150
 5025SOL    HW116914   2.605  14.135   5.185
 5025SOL    HW216915   2.586  14.057   5.056
 5026SOL     OW16916   6.339  14.758   1.565
 5026SOL    HW116917   6.420  14.709   1.580
 5026SOL    HW216918   6.279  14.694   1.526
 5027SOL     OW16919   1.528  14.204  11.044
 5027SOL    HW116920   1.469  14.279  11.035
 5027SOL    HW216921   1.472  14.134  11.078
 5028SOL     OW16922  10.060  13.112   2.034
 5028SOL    HW116923  10.034  13.031   2.077
 5028SOL    HW216924  10.036  13.181   2.095
 5029SOL     OW16925  10.184   6.664  10.029
 5029SOL    HW116926  10.202   6.748   9.987
 5029SOL    HW216927  10.225   6.670  10.115
 5030SOL     OW16928   9.096  13.052   8.571
 5030SOL    HW116929   9.003  13.075   8.565
 5030SOL    HW216930   9.096  12.966   8.612
 5031SOL     OW16931   8.552  11.611  13.557
 5031SOL    HW116932   8.605  11.650  13.626
 5031SOL    HW216933   8.477  11.573  13.602
 5032SOL     OW16934   6.795  14.544  14.340
 5032SOL    HW116935   6.835  14.503  14.264
 5032SOL    HW216936   6.862  14.603  14.374
 5033SOL     OW16937   3.285  11.820   5.011
 5033SOL    HW116938   3.252  11.900   4.970
 5033SOL    HW216939   3.274  11.835   5.105
 5034SOL     OW16940  12.751   1.890   5.556
 5034SOL    HW116941  12.664   1.926   5.571
 5034SOL    HW216942  12.802   1.920   5.632
 5035SOL     OW16943   3.956   9.582   3.800
 5035SOL    HW116944   3.873   9.616   3.768
 5035SOL    HW216945   4.023   9.629   3.749
 5036SOL     OW16946   1.856   5.786  11.669
 5036SOL    HW116947   1.908   5.858  11.704
 5036SOL    HW216948   1.837   5.731  11.745
 5037SOL     OW16949   7.905   8.338   1.839
 5037SOL    HW116950   7.935   8.249   1.822
 5037SOL    HW216951   7.845   8.330   1.913
 5038SOL     OW16952  14.358   1.711   6.850
 5038SOL    HW116953  14.265   1.715   6.825
 5038SOL    HW216954  14.377   1.617   6.857
 5039SOL     OW16955   7.185   4.395  10.956
 5039SOL    HW116956   7.139   4.473  10.986
 5039SOL    HW216957   7.247   4.428  10.890
 5040SOL     OW16958   2.251  11.331   1.853
 5040SOL    HW116959   2.208  11.390   1.790
 5040SOL    HW216960   2.314  11.387   1.899
 5041SOL     OW16961  14.111   4.948   7.532
 5041SOL    HW116962  14.100   4.887   7.460
 5041SOL    HW216963  14.162   4.901   7.597
 5042SOL     OW16964  12.392   0.791   4.947
 5042SOL    HW116965  12.364   0.713   4.899
 5042SOL    HW216966  12.476   0.814   4.907
 5043SOL     OW16967   0.326   1.001   9.510
 5043SOL    HW116968   0.251   0.949   9.538
 5043SOL    HW216969   0.302   1.091   9.533
 5044SOL     OW16970   6.397   9.277   1.441
 5044SOL    HW116971   6.347   9.332   1.381
 5044SOL    HW216972   6.474   9.250   1.392
 5045SOL     OW16973   6.531  11.541  11.014
 5045SOL    HW116974   6.581  11.565  10.935
 5045SOL    HW216975   6.483  11.463  10.989
 5046SOL     OW16976   5.383  14.821   4.749
 5046SOL    HW116977   5.347   0.010   4.693
 5046SOL    HW216978   5.474  14.846   4.762
 5047SOL     OW16979   9.866  10.471   4.169
 5047SOL    HW116980   9.897  10.382   4.189
 5047SOL    HW216981   9.920  10.498   4.095
 5048SOL     OW16982   5.875   1.403   6.754
 5048SOL    HW116983   5.843   1.474   6.811
 5048SOL    HW216984   5.907   1.337   6.815
 5049SOL     OW16985  12.363  10.356  11.290
 5049SOL    HW116986  12.390  10.339  11.200
 5049SOL    HW216987  12.418  10.298  11.343
 5050SOL     OW16988   1.081  11.243   3.337
 5050SOL    HW116989   0.989  11.265   3.350
 5050SOL    HW216990   1.094  11.252   3.242
 5051SOL     OW16991  14.004  14.671  10.391
 5051SOL    HW116992  14.092  14.689  10.424
 5051SOL    HW216993  13.960  14.627  10.464
 5052SOL     OW16994   5.303  11.296   2.090
 5052SOL    HW116995   5.306  11.225   2.025
 5052SOL    HW216996   5.270  11.255   2.169
 5053SOL     OW16997   8.613  11.534  10.721
 5053SOL    HW116998   8.696  11.502  10.684
 5053SOL    HW216999   8.562  11.563  10.645
 5054SOL     OW17000   5.074  11.933   7.337
 5054SOL    HW117001   5.143  11.992   7.306
 5054SOL    HW217002   5.022  11.913   7.259
 5055SOL     OW17003   8.395  10.000   0.209
 5055SOL    HW117004   8.406   9.944   0.287
 5055SOL    HW217005   8.485  10.015   0.179
 5056SOL     OW17006  10.098   7.442  14.054
 5056SOL    HW117007  10.189   7.428  14.029
 5056SOL    HW217008  10.099   7.524  14.104
 5057SOL     OW17009   8.899   8.157  12.658
 5057SOL    HW117010   8.911   8.080  12.715
 5057SOL    HW217011   8.867   8.121  12.576
 5058SOL     OW17012   2.628   2.587  10.024
 5058SOL    HW117013   2.595   2.617   9.939
 5058SOL    HW217014   2.710   2.543  10.003
 5059SOL     OW17015  11.722  10.131   7.040
 5059SOL    HW117016  11.686  10.072   7.106
 5059SOL    HW217017  11.813  10.144   7.065
 5060SOL     OW17018  12.260  10.705  12.144
 5060SOL    HW117019  12.249  10.679  12.235
 5060SOL    HW217020  12.183  10.671  12.100
 5061SOL     OW17021   6.961  13.388  13.385
 5061SOL    HW117022   6.936  13.363  13.296
 5061SOL    HW217023   6.937  13.313  13.439
 5062SOL     OW17024  11.363   7.127   5.848
 5062SOL    HW117025  11.414   7.208   5.841
 5062SOL    HW217026  11.302   7.142   5.920
 5063SOL     OW17027   6.819  11.771   5.178
 5063SOL    HW117028   6.869  11.695   5.210
 5063SOL    HW217029   6.792  11.817   5.257
 5064SOL     OW17030  10.267  14.859   0.686
 5064SOL    HW117031  10.285   0.056   0.741
 5064SOL    HW217032  10.353  14.827   0.660
 5065SOL     OW17033   5.255   0.644  12.119
 5065SOL    HW117034   5.259   0.559  12.074
 5065SOL    HW217035   5.167   0.646  12.157
 5066SOL     OW17036  14.141   1.576   4.204
 5066SOL    HW117037  14.088   1.573   4.124
 5066SOL    HW217038  14.088   1.531   4.270
 5067SOL     OW17039   8.315   2.803   3.069
 5067SOL    HW117040   8.347   2.892   3.062
 5067SOL    HW217041   8.361   2.755   3.000
 5068SOL     OW17042   3.198   4.085  10.986
 5068SOL    HW117043   3.112   4.116  11.013
 5068SOL    HW217044   3.195   4.086  10.890
 5069SOL     OW17045  14.587   6.982   4.323
 5069SOL    HW117046  14.667   6.991   4.271
 5069SOL    HW217047  14.618   6.955   4.410
 5070SOL     OW17048   6.720   7.919   4.250
 5070SOL    HW117049   6.715   7.936   4.344
 5070SOL    HW217050   6.717   8.006   4.209
 5071SOL     OW17051  13.244  10.584   1.899
 5071SOL    HW117052  13.265  10.553   1.987
 5071SOL    HW217053  13.149  10.581   1.895
 5072SOL     OW17054   9.570   1.040   5.775
 5072SOL    HW117055   9.605   1.003   5.856
 5072SOL    HW217056   9.635   1.106   5.749
 5073SOL     OW17057   8.284   3.820   1.506
 5073SOL    HW117058   8.294   3.818   1.601
 5073SOL    HW217059   8.372   3.836   1.473
 5074SOL     OW17060   7.722  13.669   3.001
 5074SOL    HW117061   7.685  13.729   2.936
 5074SOL    HW217062   7.649  13.614   3.028
 5075SOL     OW17063   7.157   5.158   5.189
 5075SOL    HW117064   7.176   5.064   5.181
 5075SOL    HW217065   7.066   5.166   5.161
 5076SOL     OW17066   4.167  11.192   0.137
 5076SOL    HW117067   4.161  11.262   0.072
 5076SOL    HW217068   4.109  11.220   0.208
 5077SOL     OW17069  12.826  11.973   4.477
 5077SOL    HW117070  12.875  12.037   4.528
 5077SOL    HW217071  12.891  11.930   4.422
 5078SOL     OW17072  13.358  14.052   3.237
 5078SOL    HW117073  13.309  14.099   3.169
 5078SOL    HW217074  13.450  14.071   3.217
 5079SOL     OW17075   2.277   6.529   8.953
 5079SOL    HW117076   2.309   6.604   9.003
 5079SOL    HW217077   2.356   6.483   8.926
 5080SOL     OW17078   8.701   6.246   0.128
 5080SOL    HW117079   8.750   6.327   0.136
 5080SOL    HW217080   8.768   6.179   0.109
 5081SOL     OW17081   6.608  14.879   5.303
 5081SOL    HW117082   6.615  14.786   5.284
 5081SOL    HW217083   6.627   0.043   5.220
 5082SOL     OW17084  10.182   0.250   8.527
 5082SOL    HW117085  10.167   0.289   8.441
 5082SOL    HW217086  10.175   0.324   8.588
 5083SOL     OW17087   3.573   5.005  10.703
 5083SOL    HW117088   3.534   4.928  10.661
 5083SOL    HW217089   3.636   5.038  10.639
 5084SOL     OW17090   7.011   7.725  10.094
 5084SOL    HW117091   6.946   7.687  10.034
 5084SOL    HW217092   7.081   7.660  10.096
 5085SOL     OW17093   9.585   3.348   0.443
 5085SOL    HW117094   9.661   3.357   0.385
 5085SOL    HW217095   9.511   3.380   0.391
 5086SOL     OW17096   4.944   2.158   3.950
 5086SOL    HW117097   5.038   2.143   3.960
 5086SOL    HW217098   4.908   2.150   4.038
 5087SOL     OW17099   5.161   6.261   6.628
 5087SOL    HW117100   5.236   6.249   6.687
 5087SOL    HW217101   5.112   6.334   6.667
 5088SOL     OW17102  12.125   8.922   7.567
 5088SOL    HW117103  12.081   8.944   7.485
 5088SOL    HW217104  12.158   8.834   7.553
 5089SOL     OW17105   5.399   0.084   1.721
 5089SOL    HW117106   5.410   0.152   1.654
 5089SOL    HW217107   5.470   0.101   1.783
 5090SOL     OW17108  10.446   3.172  13.400
 5090SOL    HW117109  10.471   3.110  13.331
 5090SOL    HW217110  10.472   3.258  13.366
 5091SOL     OW17111   1.873   1.755   2.181
 5091SOL    HW117112   1.955   1.742   2.229
 5091SOL    HW217113   1.808   1.706   2.231
 5092SOL     OW17114   5.699   3.730  11.334
 5092SOL    HW117115   5.690   3.635  11.340
 5092SOL    HW217116   5.622   3.759  11.284
 5093SOL     OW17117  12.181   7.355   2.667
 5093SOL    HW117118  12.089   7.379   2.657
 5093SOL    HW217119  12.194   7.282   2.606
 5094SOL     OW17120   1.516   6.812  10.458
 5094SOL    HW117121   1.612   6.805  10.465
 5094SOL    HW217122   1.499   6.806  10.364
 5095SOL     OW17123  10.655   2.444   7.536
 5095SOL    HW117124  10.683   2.417   7.623
 5095SOL    HW217125  10.560   2.429   7.535
 5096SOL     OW17126   1.261   5.864  14.738
 5096SOL    HW117127   1.205   5.803  14.689
 5096SOL    HW217128   1.246   5.841  14.830
 5097SOL     OW17129   7.976   5.407   9.644
 5097SOL    HW117130   8.011   5.489   9.608
 5097SOL    HW217131   7.971   5.348   9.569
 5098SOL     OW17132   0.116   1.835  14.636
 5098SOL    HW117133   0.148   1.910  14.687
 5098SOL    HW217134   0.173   1.763  14.661
 5099SOL     OW17135   2.207   2.649  11.642
 5099SOL    HW117136   2.160   2.731  11.653
 5099SOL    HW217137   2.252   2.635  11.725
 5100SOL     OW17138  12.359   1.792  13.001
 5100SOL    HW117139  12.334   1.878  12.967
 5100SOL    HW217140  12.415   1.754  12.933
 5101SOL     OW17141  14.460  14.413   2.559
 5101SOL    HW117142  14.510  14.418   2.641
 5101SOL    HW217143  14.522  14.374   2.497
 5102SOL     OW17144  14.427  12.420   0.072
 5102SOL    HW117145  14.462  12.495   0.119
 5102SOL    HW217146  14.369  12.377   0.135
 5103SOL     OW17147   5.564   5.000   1.570
 5103SOL    HW117148   5.600   4.961   1.650
 5103SOL    HW217149   5.640   5.031   1.521
 5104SOL     OW17150   7.135   8.141  13.252
 5104SOL    HW117151   7.153   8.234  13.234
 5104SOL    HW217152   7.204   8.094  13.205
 5105SOL     OW17153   4.881   8.158  13.523
 5105SOL    HW117154   4.799   8.161  13.473
 5105SOL    HW217155   4.855   8.122  13.608
 5106SOL     OW17156   9.483  13.222  10.613
 5106SOL    HW117157   9.574  13.203  10.591
 5106SOL    HW217158   9.462  13.301  10.563
 5107SOL     OW17159   9.463   8.382   5.700
 5107SOL    HW117160   9.371   8.365   5.718
 5107SOL    HW217161   9.463   8.440   5.624
 5108SOL     OW17162   5.793  12.414   4.434
 5108SOL    HW117163   5.740  12.353   4.486
 5108SOL    HW217164   5.774  12.391   4.343
 5109SOL     OW17165   4.248  12.028  14.849
 5109SOL    HW117166   4.232  12.103  14.792
 5109SOL    HW217167   4.301  11.968  14.796
 5110SOL     OW17168   6.442   3.008  12.640
 5110SOL    HW117169   6.500   3.043  12.708
 5110SOL    HW217170   6.454   2.913  12.645
 5111SOL     OW17171   6.949   5.347   4.656
 5111SOL    HW117172   6.890   5.399   4.711
 5111SOL    HW217173   6.985   5.409   4.594
 5112SOL     OW17174   4.797   0.964   6.726
 5112SOL    HW117175   4.821   0.974   6.634
 5112SOL    HW217176   4.758   1.049   6.748
 5113SOL     OW17177   8.205   9.076   8.698
 5113SOL    HW117178   8.265   9.003   8.685
 5113SOL    HW217179   8.161   9.088   8.614
 5114SOL     OW17180  14.451  13.949   2.149
 5114SOL    HW117181  14.432  13.870   2.098
 5114SOL    HW217182  14.485  13.916   2.232
 5115SOL     OW17183  13.406  14.079   8.859
 5115SOL    HW117184  13.347  14.093   8.933
 5115SOL    HW217185  13.350  14.089   8.782
 5116SOL     OW17186   4.014   6.087   6.971
 5116SOL    HW117187   4.003   6.168   6.922
 5116SOL    HW217188   3.927   6.068   7.006
 5117SOL     OW17189  11.495   4.669   9.314
 5117SOL    HW117190  11.514   4.745   9.368
 5117SOL    HW217191  11.578   4.649   9.270
 5118SOL     OW17192   3.268   7.116  13.783
 5118SOL    HW117193   3.294   7.133  13.873
 5118SOL    HW217194   3.212   7.039  13.788
 5119SOL     OW17195   1.819  10.591  14.467
 5119SOL    HW117196   1.840  10.678  14.501
 5119SOL    HW217197   1.880  10.579  14.394
 5120SOL     OW17198   7.214   2.141  13.473
 5120SOL    HW117199   7.153   2.077  13.436
 5120SOL    HW217200   7.195   2.139  13.567
 5121SOL     OW17201  10.205  12.540   9.499
 5121SOL    HW117202  10.170  12.468   9.446
 5121SOL    HW217203  10.129  12.595   9.520
 5122SOL     OW17204  10.112  13.428   7.269
 5122SOL    HW117205  10.023  13.453   7.246
 5122SOL    HW217206  10.118  13.335   7.249
 5123SOL     OW17207  10.271   6.200   7.512
 5123SOL    HW117208  10.348   6.166   7.557
 5123SOL    HW217209  10.291   6.190   7.419
 5124SOL     OW17210   4.836  11.237   5.246
 5124SOL    HW117211   4.874  11.184   5.316
 5124SOL    HW217212   4.785  11.174   5.195
 5125SOL     OW17213   8.450  10.395   7.653
 5125SOL    HW117214   8.363  10.417   7.685
 5125SOL    HW217215   8.434  10.343   7.574
 5126SOL     OW17216  11.370   0.332   5.143
 5126SOL    HW117217  11.398   0.419   5.170
 5126SOL    HW217218  11.393   0.327   5.050
 5127SOL     OW17219   9.222   4.892   8.258
 5127SOL    HW117220   9.259   4.939   8.183
 5127SOL    HW217221   9.172   4.821   8.219
 5128SOL     OW17222  13.589   3.511   8.997
 5128SOL    HW117223  13.538   3.514   9.078
 5128SOL    HW217224  13.619   3.420   8.991
 5129SOL     OW17225   0.919  10.399   6.080
 5129SOL    HW117226   0.855  10.467   6.101
 5129SOL    HW217227   0.875  10.317   6.102
 5130SOL     OW17228   5.208  11.891   9.801
 5130SOL    HW117229   5.302  11.880   9.811
 5130SOL    HW217230   5.172  11.862   9.885
 5131SOL     OW17231   9.045   3.292  11.645
 5131SOL    HW117232   8.991   3.233  11.592
 5131SOL    HW217233   9.006   3.379  11.632
 5132SOL     OW17234  10.613  11.674   1.497
 5132SOL    HW117235  10.691  11.714   1.460
 5132SOL    HW217236  10.608  11.709   1.586
 5133SOL     OW17237   6.112   7.423  12.244
 5133SOL    HW117238   6.104   7.479  12.167
 5133SOL    HW217239   6.025   7.385  12.255
 5134SOL     OW17240   7.271  11.145   8.568
 5134SOL    HW117241   7.190  11.142   8.518
 5134SOL    HW217242   7.252  11.097   8.648
 5135SOL     OW17243   7.965   7.989   4.107
 5135SOL    HW117244   8.020   8.056   4.147
 5135SOL    HW217245   8.011   7.906   4.123
 5136SOL     OW17246   5.712  13.372  12.052
 5136SOL    HW117247   5.748  13.417  11.976
 5136SOL    HW217248   5.637  13.426  12.078
 5137SOL     OW17249  13.436   1.637  13.876
 5137SOL    HW117250  13.503   1.618  13.942
 5137SOL    HW217251  13.421   1.553  13.832
 5138SOL     OW17252  10.149  11.727   7.403
 5138SOL    HW117253  10.203  11.678   7.340
 5138SOL    HW217254  10.199  11.807   7.420
 5139SOL     OW17255   5.217  10.843   3.677
 5139SOL    HW117256   5.260  10.805   3.753
 5139SOL    HW217257   5.284  10.844   3.609
 5140SOL     OW17258   4.347   4.394  12.948
 5140SOL    HW117259   4.306   4.395  13.035
 5140SOL    HW217260   4.399   4.314  12.947
 5141SOL     OW17261   4.411   1.516   0.787
 5141SOL    HW117262   4.358   1.496   0.865
 5141SOL    HW217263   4.354   1.497   0.713
 5142SOL     OW17264   0.050  14.442   3.853
 5142SOL    HW117265  14.876  14.482   3.922
 5142SOL    HW217266   0.113  14.511   3.830
 5143SOL     OW17267   7.244   2.831   4.959
 5143SOL    HW117268   7.232   2.917   4.918
 5143SOL    HW217269   7.327   2.799   4.924
 5144SOL     OW17270   3.948   5.658  14.827
 5144SOL    HW117271   3.896   5.737  14.843
 5144SOL    HW217272   3.969   5.626   0.036
 5145SOL     OW17273   9.687   7.874   8.770
 5145SOL    HW117274   9.617   7.920   8.724
 5145SOL    HW217275   9.674   7.897   8.862
 5146SOL     OW17276   6.096   2.597  11.520
 5146SOL    HW117277   6.179   2.644  11.512
 5146SOL    HW217278   6.051   2.612  11.437
 5147SOL     OW17279   9.954   1.297  14.386
 5147SOL    HW117280   9.989   1.385  14.404
 5147SOL    HW217281  10.015   1.260  14.322
 5148SOL     OW17282   4.198   8.262   3.815
 5148SOL    HW117283   4.136   8.192   3.799
 5148SOL    HW217284   4.191   8.319   3.738
 5149SOL     OW17285  14.640  11.849  12.581
 5149SOL    HW117286  14.641  11.928  12.634
 5149SOL    HW217287  14.553  11.850  12.539
 5150SOL     OW17288   9.137   8.881  14.749
 5150SOL    HW117289   9.227   8.851  14.757
 5150SOL    HW217290   9.106   8.842  14.667
 5151SOL     OW17291   2.791  13.515   2.022
 5151SOL    HW117292   2.768  13.422   2.035
 5151SOL    HW217293   2.853  13.514   1.949
 5152SOL     OW17294   1.495  12.402   5.214
 5152SOL    HW117295   1.416  12.411   5.160
 5152SOL    HW217296   1.484  12.318   5.259
 5153SOL     OW17297  12.780  10.280   0.604
 5153SOL    HW117298  12.684  10.285   0.610
 5153SOL    HW217299  12.798  10.269   0.511
 5154SOL     OW17300   7.742   0.806   8.448
 5154SOL    HW117301   7.650   0.828   8.465
 5154SOL    HW217302   7.738   0.730   8.390
 5155SOL     OW17303   8.544   3.245  14.484
 5155SOL    HW117304   8.502   3.186  14.421
 5155SOL    HW217305   8.520   3.333  14.453
 5156SOL     OW17306   2.162   5.019   5.571
 5156SOL    HW117307   2.241   5.050   5.614
 5156SOL    HW217308   2.171   4.924   5.568
 5157SOL     OW17309   9.831   3.080  13.721
 5157SOL    HW117310   9.791   3.118  13.643
 5157SOL    HW217311   9.791   3.129  13.794
 5158SOL     OW17312   9.803  10.120  14.444
 5158SOL    HW117313   9.813  10.037  14.397
 5158SOL    HW217314   9.766  10.096  14.529
 5159SOL     OW17315  12.023   3.103  13.942
 5159SOL    HW117316  11.970   3.103  13.862
 5159SOL    HW217317  12.039   3.010  13.960
 5160SOL     OW17318   2.997   7.211   0.717
 5160SOL    HW117319   2.972   7.206   0.809
 5160SOL    HW217320   2.935   7.152   0.672
 5161SOL     OW17321  14.520   8.431  12.572
 5161SOL    HW117322  14.513   8.336  12.579
 5161SOL    HW217323  14.567   8.457  12.652
 5162SOL     OW17324  11.393   6.470  12.993
 5162SOL    HW117325  11.394   6.376  12.972
 5162SOL    HW217326  11.416   6.513  12.911
 5163SOL     OW17327   0.144   4.895  13.599
 5163SOL    HW117328   0.135   4.829  13.668
 5163SOL    HW217329   0.055   4.927  13.585
 5164SOL     OW17330   1.441   2.673  11.879
 5164SOL    HW117331   1.529   2.637  11.872
 5164SOL    HW217332   1.426   2.682  11.974
 5165SOL     OW17333   5.424   3.020  11.377
 5165SOL    HW117334   5.439   3.108  11.410
 5165SOL    HW217335   5.484   2.964  11.427
 5166SOL     OW17336   4.761   2.748   1.692
 5166SOL    HW117337   4.699   2.699   1.747
 5166SOL    HW217338   4.705   2.807   1.640
 5167SOL     OW17339   2.430   3.765   4.284
 5167SOL    HW117340   2.375   3.727   4.215
 5167SOL    HW217341   2.398   3.855   4.293
 5168SOL     OW17342  10.070  13.923   1.417
 5168SOL    HW117343  10.075  13.827   1.412
 5168SOL    HW217344   9.977  13.942   1.429
 5169SOL     OW17345  11.543   3.544  10.412
 5169SOL    HW117346  11.537   3.449  10.404
 5169SOL    HW217347  11.635   3.561  10.433
 5170SOL     OW17348   2.905  13.589   7.143
 5170SOL    HW117349   2.876  13.506   7.107
 5170SOL    HW217350   2.898  13.578   7.238
 5171SOL     OW17351   5.876  13.841   4.451
 5171SOL    HW117352   5.870  13.851   4.546
 5171SOL    HW217353   5.929  13.762   4.439
 5172SOL     OW17354  11.961  10.743   4.661
 5172SOL    HW117355  12.033  10.790   4.704
 5172SOL    HW217356  11.957  10.659   4.705
 5173SOL     OW17357   6.605   3.176   9.829
 5173SOL    HW117358   6.530   3.226   9.796
 5173SOL    HW217359   6.644   3.233   9.896
 5174SOL     OW17360   3.873   4.972   4.142
 5174SOL    HW117361   3.799   4.920   4.175
 5174SOL    HW217362   3.876   5.049   4.199
 5175SOL     OW17363  14.147  13.601  14.798
 5175SOL    HW117364  14.110  13.518  14.771
 5175SOL    HW217365  14.242  13.589  14.793
 5176SOL     OW17366   1.137  14.236   4.347
 5176SOL    HW117367   1.060  14.259   4.296
 5176SOL    HW217368   1.163  14.150   4.315
 5177SOL     OW17369  10.402   5.345   1.958
 5177SOL    HW117370  10.404   5.284   1.884
 5177SOL    HW217371  10.483   5.396   1.948
 5178SOL     OW17372   6.032   9.243   7.418
 5178SOL    HW117373   6.007   9.312   7.480
 5178SOL    HW217374   6.003   9.276   7.333
 5179SOL     OW17375  12.179  12.069   4.256
 5179SOL    HW117376  12.260  12.038   4.217
 5179SOL    HW217377  12.195  12.162   4.276
 5180SOL     OW17378  12.461   7.768   7.700
 5180SOL    HW117379  12.393   7.808   7.754
 5180SOL    HW217380  12.487   7.690   7.748
 5181SOL     OW17381   7.901   3.336   6.294
 5181SOL    HW117382   7.970   3.271   6.284
 5181SOL    HW217383   7.918   3.402   6.227
 5182SOL     OW17384  13.051  10.432  10.590
 5182SOL    HW117385  13.045  10.338  10.608
 5182SOL    HW217386  12.986  10.448  10.522
 5183SOL     OW17387   0.243   7.528  10.254
 5183SOL    HW117388   0.236   7.463  10.324
 5183SOL    HW217389   0.176   7.504  10.191
 5184SOL     OW17390   1.041   8.080   5.401
 5184SOL    HW117391   1.023   8.171   5.376
 5184SOL    HW217392   0.960   8.051   5.442
 5185SOL     OW17393   3.016  12.625  12.746
 5185SOL    HW117394   2.986  12.543  12.785
 5185SOL    HW217395   3.105  12.605  12.714
 5186SOL     OW17396   7.749  14.438   5.244
 5186SOL    HW117397   7.736  14.361   5.188
 5186SOL    HW217398   7.698  14.421   5.322
 5187SOL     OW17399   7.377  11.249   7.182
 5187SOL    HW117400   7.322  11.187   7.231
 5187SOL    HW217401   7.328  11.265   7.102
 5188SOL     OW17402   2.910   0.323   9.842
 5188SOL    HW117403   2.965   0.383   9.790
 5188SOL    HW217404   2.887   0.373   9.920
 5189SOL     OW17405  13.390   0.496  13.142
 5189SOL    HW117406  13.425   0.546  13.069
 5189SOL    HW217407  13.448   0.515  13.215
 5190SOL     OW17408   3.381   4.740  10.161
 5190SOL    HW117409   3.451   4.677  10.178
 5190SOL    HW217410   3.423   4.808  10.108
 5191SOL     OW17411   5.862   4.106   0.889
 5191SOL    HW117412   5.930   4.039   0.898
 5191SOL    HW217413   5.831   4.097   0.799
 5192SOL     OW17414   3.845  13.262  12.527
 5192SOL    HW117415   3.786  13.244  12.453
 5192SOL    HW217416   3.797  13.325  12.581
 5193SOL     OW17417   0.130   5.697   1.322
 5193SOL    HW117418   0.044   5.706   1.363
 5193SOL    HW217419   0.132   5.765   1.256
 5194SOL     OW17420   4.147  10.218   6.180
 5194SOL    HW117421   4.145  10.200   6.086
 5194SOL    HW217422   4.166  10.133   6.220
 5195SOL     OW17423   2.333  13.164   6.794
 5195SOL    HW117424   2.286  13.109   6.731
 5195SOL    HW217425   2.393  13.104   6.838
 5196SOL     OW17426   2.137   3.073  13.887
 5196SOL    HW117427   2.150   3.134  13.815
 5196SOL    HW217428   2.046   3.085  13.913
 5197SOL     OW17429   7.176   7.804   8.482
 5197SOL    HW117430   7.134   7.860   8.417
 5197SOL    HW217431   7.192   7.721   8.437
 5198SOL     OW17432   9.160   4.511   6.066
 5198SOL    HW117433   9.139   4.605   6.064
 5198SOL    HW217434   9.211   4.497   5.986
 5199SOL     OW17435   7.122   8.976  11.228
 5199SOL    HW117436   7.135   8.921  11.305
 5199SOL    HW217437   7.051   8.934  11.180
 5200SOL     OW17438  13.566   3.354   1.588
 5200SOL    HW117439  13.501   3.307   1.641
 5200SOL    HW217440  13.557   3.316   1.500
 5201SOL     OW17441   6.141   2.489   5.120
 5201SOL    HW117442   6.086   2.427   5.168
 5201SOL    HW217443   6.149   2.452   5.032
 5202SOL     OW17444   1.929   8.587   2.839
 5202SOL    HW117445   2.002   8.647   2.826
 5202SOL    HW217446   1.867   8.636   2.893
 5203SOL     OW17447  13.614  13.498  14.134
 5203SOL    HW117448  13.579  13.573  14.182
 5203SOL    HW217449  13.541  13.437  14.128
 5204SOL     OW17450   1.081   9.255  11.529
 5204SOL    HW117451   1.124   9.213  11.455
 5204SOL    HW217452   1.080   9.188  11.598
 5205SOL     OW17453   9.777   3.072  11.502
 5205SOL    HW117454   9.868   3.053  11.525
 5205SOL    HW217455   9.754   3.006  11.437
 5206SOL     OW17456  14.392   3.177   2.229
 5206SOL    HW117457  14.436   3.244   2.176
 5206SOL    HW217458  14.373   3.221   2.312
 5207SOL     OW17459   1.281   5.775  14.251
 5207SOL    HW117460   1.227   5.709  14.208
 5207SOL    HW217461   1.223   5.815  14.316
 5208SOL     OW17462   9.404  14.815   1.052
 5208SOL    HW117463   9.496  14.833   1.032
 5208SOL    HW217464   9.384  14.870   1.127
 5209SOL     OW17465  12.826  13.931   0.806
 5209SOL    HW117466  12.735  13.932   0.776
 5209SOL    HW217467  12.855  13.841   0.790
 5210SOL     OW17468   2.127   1.832   4.695
 5210SOL    HW117469   2.173   1.824   4.779
 5210SOL    HW217470   2.055   1.893   4.713
 5211SOL     OW17471   6.328   7.143   1.947
 5211SOL    HW117472   6.271   7.090   1.893
 5211SOL    HW217473   6.398   7.170   1.888
 5212SOL     OW17474   4.415   6.569   7.047
 5212SOL    HW117475   4.449   6.591   6.961
 5212SOL    HW217476   4.407   6.653   7.092
 5213SOL     OW17477   7.017   9.992  12.757
 5213SOL    HW117478   7.106  10.000  12.723
 5213SOL    HW217479   6.961  10.022  12.686
 5214SOL     OW17480   8.207  10.514   3.304
 5214SOL    HW117481   8.285  10.462   3.285
 5214SOL    HW217482   8.134  10.453   3.291
 5215SOL     OW17483   9.376  13.672  10.194
 5215SOL    HW117484   9.327  13.628  10.263
 5215SOL    HW217485   9.425  13.603  10.151
 5216SOL     OW17486   0.240   3.734  14.355
 5216SOL    HW117487   0.196   3.806  14.311
 5216SOL    HW217488   0.333   3.747  14.335
 5217SOL     OW17489  12.019   9.913  13.797
 5217SOL    HW117490  12.072   9.929  13.876
 5217SOL    HW217491  11.930   9.938  13.822
 5218SOL     OW17492  11.995  12.611   0.885
 5218SOL    HW117493  11.933  12.670   0.843
 5218SOL    HW217494  12.067  12.602   0.822
 5219SOL     OW17495   5.357  14.170  14.291
 5219SOL    HW117496   5.279  14.199  14.244
 5219SOL    HW217497   5.384  14.245  14.343
 5220SOL     OW17498   0.104  12.896   0.660
 5220SOL    HW117499   0.023  12.928   0.620
 5220SOL    HW217500   0.096  12.801   0.660
 5221SOL     OW17501   1.684   6.437   5.866
 5221SOL    HW117502   1.620   6.497   5.905
 5221SOL    HW217503   1.634   6.356   5.851
 5222SOL     OW17504   5.438   4.305  13.401
 5222SOL    HW117505   5.509   4.352  13.358
 5222SOL    HW217506   5.476   4.274  13.484
 5223SOL     OW17507   2.382  11.948   0.562
 5223SOL    HW117508   2.460  11.894   0.543
 5223SOL    HW217509   2.385  11.962   0.656
 5224SOL     OW17510  10.366  12.933   6.224
 5224SOL    HW117511  10.369  12.868   6.294
 5224SOL    HW217512  10.453  12.930   6.184
 5225SOL     OW17513   2.624   4.242   1.632
 5225SOL    HW117514   2.675   4.162   1.631
 5225SOL    HW217515   2.540   4.218   1.591
 5226SOL     OW17516  11.105  12.918   4.016
 5226SOL    HW117517  11.183  12.913   4.072
 5226SOL    HW217518  11.111  13.004   3.975
 5227SOL     OW17519   6.330   0.430   0.714
 5227SOL    HW117520   6.324   0.523   0.693
 5227SOL    HW217521   6.274   0.387   0.648
 5228SOL     OW17522  14.523  12.650  12.209
 5228SOL    HW117523  14.578  12.579  12.176
 5228SOL    HW217524  14.434  12.624  12.188
 5229SOL     OW17525  10.310   1.832   9.982
 5229SOL    HW117526  10.384   1.858  10.037
 5229SOL    HW217527  10.289   1.743  10.011
 5230SOL     OW17528  13.837   9.496   3.473
 5230SOL    HW117529  13.829   9.401   3.460
 5230SOL    HW217530  13.833   9.507   3.568
 5231SOL     OW17531  12.106  14.677   4.808
 5231SOL    HW117532  12.125  14.691   4.716
 5231SOL    HW217533  12.100  14.582   4.818
 5232SOL     OW17534   4.741   0.124   3.097
 5232SOL    HW117535   4.791   0.162   3.169
 5232SOL    HW217536   4.675   0.191   3.077
 5233SOL     OW17537  13.941   1.900   5.874
 5233SOL    HW117538  14.006   1.901   5.804
 5233SOL    HW217539  13.865   1.945   5.837
 5234SOL     OW17540  13.453  14.562   9.231
 5234SOL    HW117541  13.401  14.583   9.153
 5234SOL    HW217542  13.470  14.648   9.272
 5235SOL     OW17543   4.526   0.542  13.616
 5235SOL    HW117544   4.512   0.496  13.533
 5235SOL    HW217545   4.611   0.511  13.646
 5236SOL     OW17546  14.706   2.502   7.582
 5236SOL    HW117547  14.684   2.593   7.561
 5236SOL    HW217548  14.624   2.465   7.615
 5237SOL     OW17549   5.152   5.851   6.857
 5237SOL    HW117550   5.113   5.853   6.770
 5237SOL    HW217551   5.084   5.884   6.915
 5238SOL     OW17552  12.814   5.519  10.215
 5238SOL    HW117553  12.898   5.556  10.187
 5238SOL    HW217554  12.830   5.489  10.305
 5239SOL     OW17555  12.240  13.838   4.819
 5239SOL    HW117556  12.287  13.834   4.902
 5239SOL    HW217557  12.258  13.926   4.785
 5240SOL     OW17558  11.512   9.217  12.844
 5240SOL    HW117559  11.480   9.197  12.756
 5240SOL    HW217560  11.545   9.133  12.877
 5241SOL     OW17561  10.115   5.427   0.097
 5241SOL    HW117562  10.069   5.503   0.133
 5241SOL    HW217563  10.047   5.362   0.084
 5242SOL     OW17564  13.606  13.847   3.539
 5242SOL    HW117565  13.522  13.890   3.554
 5242SOL    HW217566  13.583  13.760   3.507
 5243SOL     OW17567   7.478   0.240  11.820
 5243SOL    HW117568   7.402   0.263  11.873
 5243SOL    HW217569   7.537   0.196  11.880
 5244SOL     OW17570   0.133   9.999   6.633
 5244SOL    HW117571   0.211   9.966   6.677
 5244SOL    HW217572   0.061   9.947   6.669
 5245SOL     OW17573   4.743  10.952   3.061
 5245SOL    HW117574   4.729  10.983   2.971
 5245SOL    HW217575   4.698  10.868   3.064
 5246SOL     OW17576  11.610   9.796   0.058
 5246SOL    HW117577  11.542   9.773  14.874
 5246SOL    HW217578  11.614   9.892   0.056
 5247SOL     OW17579   8.143   4.316  13.380
 5247SOL    HW117580   8.141   4.236  13.433
 5247SOL    HW217581   8.178   4.383  13.438
 5248SOL     OW17582  13.859  12.012   5.646
 5248SOL    HW117583  13.838  11.992   5.554
 5248SOL    HW217584  13.811  12.092   5.665
 5249SOL     OW17585   6.875   4.440   6.064
 5249SOL    HW117586   6.790   4.481   6.046
 5249SOL    HW217587   6.927   4.456   5.986
 5250SOL     OW17588   2.935  13.116   0.033
 5250SOL    HW117589   2.933  13.046   0.098
 5250SOL    HW217590   3.027  13.121   0.007
 5251SOL     OW17591   4.021   7.554  14.667
 5251SOL    HW117592   4.097   7.526  14.716
 5251SOL    HW217593   4.049   7.553  14.576
 5252SOL     OW17594   8.216   6.830   1.456
 5252SOL    HW117595   8.199   6.736   1.448
 5252SOL    HW217596   8.233   6.859   1.367
 5253SOL     OW17597   5.904   9.785   9.858
 5253SOL    HW117598   5.923   9.818   9.770
 5253SOL    HW217599   5.825   9.732   9.847
 5254SOL     OW17600   0.833  11.767   8.109
 5254SOL    HW117601   0.916  11.718   8.110
 5254SOL    HW217602   0.860  11.859   8.100
 5255SOL     OW17603   1.530  13.409  13.379
 5255SOL    HW117604   1.447  13.453  13.362
 5255SOL    HW217605   1.506  13.320  13.403
 5256SOL     OW17606   2.034  10.332   5.467
 5256SOL    HW117607   2.080  10.340   5.383
 5256SOL    HW217608   2.104  10.331   5.533
 5257SOL     OW17609   1.329   8.668   0.244
 5257SOL    HW117610   1.349   8.756   0.212
 5257SOL    HW217611   1.255   8.680   0.304
 5258SOL     OW17612  13.082  11.194   1.893
 5258SOL    HW117613  13.121  11.163   1.975
 5258SOL    HW217614  13.119  11.137   1.826
 5259SOL     OW17615  12.923   6.334  12.722
 5259SOL    HW117616  13.002   6.329  12.668
 5259SOL    HW217617  12.892   6.424  12.711
 5260SOL     OW17618   4.107  14.651   1.267
 5260SOL    HW117619   4.187  14.617   1.308
 5260SOL    HW217620   4.040  14.588   1.290
 5261SOL     OW17621   3.410   5.389  11.487
 5261SOL    HW117622   3.326   5.378  11.530
 5261SOL    HW217623   3.470   5.415  11.556
 5262SOL     OW17624  11.052   6.630   6.567
 5262SOL    HW117625  11.011   6.714   6.546
 5262SOL    HW217626  11.070   6.589   6.482
 5263SOL     OW17627   7.630  13.107  10.881
 5263SOL    HW117628   7.721  13.133  10.869
 5263SOL    HW217629   7.602  13.074  10.796
 5264SOL     OW17630   0.458  10.426   4.558
 5264SOL    HW117631   0.505  10.504   4.531
 5264SOL    HW217632   0.416  10.450   4.641
 5265SOL     OW17633   8.416  13.617   4.385
 5265SOL    HW117634   8.467  13.549   4.340
 5265SOL    HW217635   8.331  13.576   4.400
 5266SOL     OW17636   7.016   1.446  11.999
 5266SOL    HW117637   7.097   1.407  12.032
 5266SOL    HW217638   7.006   1.408  11.912
 5267SOL     OW17639   0.464   3.770  10.566
 5267SOL    HW117640   0.554   3.784  10.595
 5267SOL    HW217641   0.417   3.848  10.597
 5268SOL     OW17642  12.837   1.024   5.939
 5268SOL    HW117643  12.838   0.928   5.943
 5268SOL    HW217644  12.885   1.044   5.858
 5269SOL     OW17645   7.464  14.120  12.735
 5269SOL    HW117646   7.441  14.165  12.654
 5269SOL    HW217647   7.495  14.034  12.706
 5270SOL     OW17648  11.869  11.562   8.469
 5270SOL    HW117649  11.934  11.630   8.482
 5270SOL    HW217650  11.785  11.607   8.473
 5271SOL     OW17651  14.300   9.835   9.524
 5271SOL    HW117652  14.261   9.753   9.493
 5271SOL    HW217653  14.360   9.808   9.593
 5272SOL     OW17654  11.903   0.773   6.804
 5272SOL    HW117655  11.993   0.803   6.788
 5272SOL    HW217656  11.848   0.839   6.761
 5273SOL     OW17657   0.765   1.945   2.148
 5273SOL    HW117658   0.834   1.941   2.082
 5273SOL    HW217659   0.712   1.867   2.132
 5274SOL     OW17660   0.562   1.099   5.329
 5274SOL    HW117661   0.593   1.176   5.282
 5274SOL    HW217662   0.529   1.040   5.261
 5275SOL     OW17663   3.005   5.374   0.425
 5275SOL    HW117664   2.956   5.402   0.502
 5275SOL    HW217665   3.075   5.438   0.416
 5276SOL     OW17666  14.715  10.386   7.317
 5276SOL    HW117667  14.721  10.480   7.332
 5276SOL    HW217668  14.804  10.354   7.331
 5277SOL     OW17669   6.870  13.881  13.991
 5277SOL    HW117670   6.961  13.855  13.977
 5277SOL    HW217671   6.857  13.871  14.085
 5278SOL     OW17672   7.674   8.529   2.514
 5278SOL    HW117673   7.605   8.465   2.534
 5278SOL    HW217674   7.651   8.605   2.566
 5279SOL     OW17675   3.934  10.901   9.473
 5279SOL    HW117676   3.983  10.822   9.450
 5279SOL    HW217677   4.002  10.965   9.495
 5280SOL     OW17678   7.517   4.106   1.150
 5280SOL    HW117679   7.604   4.066   1.150
 5280SOL    HW217680   7.468   4.058   1.216
 5281SOL     OW17681  14.835   7.438  11.728
 5281SOL    HW117682  14.773   7.412  11.659
 5281SOL    HW217683  14.790   7.413  11.809
 5282SOL     OW17684  14.675   3.582   3.779
 5282SOL    HW117685  14.633   3.512   3.728
 5282SOL    HW217686  14.683   3.545   3.867
 5283SOL     OW17687   2.272   7.237  14.175
 5283SOL    HW117688   2.245   7.302  14.241
 5283SOL    HW217689   2.221   7.260  14.097
 5284SOL     OW17690  13.153  13.567   0.811
 5284SOL    HW117691  13.190  13.534   0.729
 5284SOL    HW217692  13.154  13.662   0.801
 5285SOL     OW17693   9.143   3.135   5.276
 5285SOL    HW117694   9.176   3.149   5.188
 5285SOL    HW217695   9.139   3.040   5.285
 5286SOL     OW17696   9.027   9.273   0.218
 5286SOL    HW117697   9.034   9.197   0.160
 5286SOL    HW217698   9.115   9.283   0.255
 5287SOL     OW17699   2.246  12.922   6.552
 5287SOL    HW117700   2.247  12.846   6.494
 5287SOL    HW217701   2.164  12.967   6.532
 5288SOL     OW17702   8.592   8.845  14.314
 5288SOL    HW117703   8.559   8.758  14.291
 5288SOL    HW217704   8.659   8.828  14.380
 5289SOL     OW17705   1.342   2.270   3.880
 5289SOL    HW117706   1.384   2.256   3.965
 5289SOL    HW217707   1.280   2.197   3.872
 5290SOL     OW17708   1.615   1.932   3.736
 5290SOL    HW117709   1.575   1.849   3.711
 5290SOL    HW217710   1.573   1.956   3.818
 5291SOL     OW17711   3.993  13.611   0.192
 5291SOL    HW117712   4.006  13.701   0.222
 5291SOL    HW217713   4.081  13.574   0.191
 5292SOL     OW17714  12.945   3.280  13.391
 5292SOL    HW117715  12.981   3.201  13.351
 5292SOL    HW217716  12.874   3.249  13.447
 5293SOL     OW17717   6.347   4.456   9.727
 5293SOL    HW117718   6.319   4.543   9.755
 5293SOL    HW217719   6.366   4.410   9.808
 5294SOL     OW17720  12.043   8.237   3.007
 5294SOL    HW117721  12.112   8.174   2.987
 5294SOL    HW217722  12.028   8.284   2.925
 5295SOL     OW17723   2.452   6.174   1.861
 5295SOL    HW117724   2.462   6.081   1.881
 5295SOL    HW217725   2.405   6.211   1.935
 5296SOL     OW17726   8.393   5.007   3.140
 5296SOL    HW117727   8.466   5.012   3.201
 5296SOL    HW217728   8.332   5.075   3.170
 5297SOL     OW17729   0.610   9.174   6.620
 5297SOL    HW117730   0.609   9.225   6.539
 5297SOL    HW217731   0.623   9.240   6.689
 5298SOL     OW17732  13.273   6.069   9.374
 5298SOL    HW117733  13.293   6.102   9.461
 5298SOL    HW217734  13.209   5.999   9.389
 5299SOL     OW17735   5.031   0.996  13.327
 5299SOL    HW117736   5.059   0.947  13.250
 5299SOL    HW217737   5.081   1.077  13.323
 5300SOL     OW17738   5.366  12.180  13.853
 5300SOL    HW117739   5.365  12.264  13.900
 5300SOL    HW217740   5.341  12.116  13.920
 5301SOL     OW17741   4.160   8.934  14.706
 5301SOL    HW117742   4.189   8.844  14.694
 5301SOL    HW217743   4.066   8.926  14.727
 5302SOL     OW17744   5.463  12.993  14.556
 5302SOL    HW117745   5.488  13.084  14.539
 5302SOL    HW217746   5.520  12.942  14.499
 5303SOL     OW17747   1.896   5.245   2.126
 5303SOL    HW117748   1.856   5.169   2.168
 5303SOL    HW217749   1.838   5.264   2.052
 5304SOL     OW17750   2.950   4.495   5.188
 5304SOL    HW117751   2.956   4.588   5.168
 5304SOL    HW217752   3.041   4.469   5.207
 5305SOL     OW17753  11.899  13.375   3.780
 5305SOL    HW117754  11.990  13.400   3.766
 5305SOL    HW217755  11.867  13.437   3.846
 5306SOL     OW17756   3.815  12.953   1.117
 5306SOL    HW117757   3.732  12.949   1.164
 5306SOL    HW217758   3.792  12.980   1.029
 5307SOL     OW17759  13.641   7.848  10.179
 5307SOL    HW117760  13.595   7.818  10.258
 5307SOL    HW217761  13.698   7.919  10.210
 5308SOL     OW17762   5.083   7.354   6.615
 5308SOL    HW117763   5.114   7.403   6.691
 5308SOL    HW217764   5.011   7.407   6.580
 5309SOL     OW17765   6.468   6.765   8.828
 5309SOL    HW117766   6.490   6.857   8.817
 5309SOL    HW217767   6.414   6.743   8.752
 5310SOL     OW17768   3.403   6.091  13.807
 5310SOL    HW117769   3.317   6.101  13.766
 5310SOL    HW217770   3.441   6.014  13.764
 5311SOL     OW17771   8.646  14.134   0.039
 5311SOL    HW117772   8.582  14.088  14.864
 5311SOL    HW217773   8.731  14.101   0.011
 5312SOL     OW17774   6.623   6.321  11.643
 5312SOL    HW117775   6.658   6.367  11.567
 5312SOL    HW217776   6.669   6.237  11.644
 5313SOL     OW17777   7.566   0.375   0.447
 5313SOL    HW117778   7.568   0.345   0.538
 5313SOL    HW217779   7.658   0.385   0.423
 5314SOL     OW17780  10.324   3.397   4.813
 5314SOL    HW117781  10.314   3.416   4.907
 5314SOL    HW217782  10.272   3.464   4.769
 5315SOL     OW17783   3.311  11.520   5.722
 5315SOL    HW117784   3.231  11.476   5.750
 5315SOL    HW217785   3.382  11.472   5.765
 5316SOL     OW17786   1.088   2.670   5.576
 5316SOL    HW117787   1.131   2.645   5.658
 5316SOL    HW217788   1.155   2.717   5.527
 5317SOL     OW17789   2.669  13.481   5.681
 5317SOL    HW117790   2.597  13.433   5.722
 5317SOL    HW217791   2.679  13.441   5.595
 5318SOL     OW17792  12.107  12.408   4.197
 5318SOL    HW117793  12.193  12.414   4.155
 5318SOL    HW217794  12.050  12.462   4.143
 5319SOL     OW17795   3.648   5.671   6.822
 5319SOL    HW117796   3.710   5.702   6.888
 5319SOL    HW217797   3.563   5.674   6.866
 5320SOL     OW17798  13.960   0.110   8.733
 5320SOL    HW117799  13.981   0.024   8.770
 5320SOL    HW217800  13.962   0.169   8.808
 5321SOL     OW17801  10.753   1.516  12.061
 5321SOL    HW117802  10.707   1.584  12.111
 5321SOL    HW217803  10.725   1.434  12.101
 5322SOL     OW17804  10.390  13.322   4.683
 5322SOL    HW117805  10.455  13.391   4.674
 5322SOL    HW217806  10.310  13.360   4.646
 5323SOL     OW17807  12.780   4.560   9.156
 5323SOL    HW117808  12.816   4.644   9.127
 5323SOL    HW217809  12.775   4.507   9.076
 5324SOL     OW17810   6.648  14.682   4.581
 5324SOL    HW117811   6.596  14.732   4.644
 5324SOL    HW217812   6.595  14.680   4.502
 5325SOL     OW17813  13.319   9.349  12.118
 5325SOL    HW117814  13.245   9.300  12.085
 5325SOL    HW217815  13.284   9.400  12.192
 5326SOL     OW17816  11.230   1.944   8.367
 5326SOL    HW117817  11.248   2.004   8.439
 5326SOL    HW217818  11.134   1.945   8.358
 5327SOL     OW17819   8.591  14.082  10.269
 5327SOL    HW117820   8.506  14.039  10.276
 5327SOL    HW217821   8.653  14.009  10.257
 5328SOL     OW17822  13.784  13.589  10.861
 5328SOL    HW117823  13.707  13.633  10.826
 5328SOL    HW217824  13.822  13.653  10.921
 5329SOL     OW17825   4.273  10.974   8.301
 5329SOL    HW117826   4.280  11.049   8.242
 5329SOL    HW217827   4.194  10.991   8.353
 5330SOL     OW17828  14.233   9.287   9.579
 5330SOL    HW117829  14.318   9.259   9.545
 5330SOL    HW217830  14.250   9.307   9.671
 5331SOL     OW17831   5.746   1.247   3.678
 5331SOL    HW117832   5.737   1.339   3.653
 5331SOL    HW217833   5.822   1.245   3.736
 5332SOL     OW17834  12.627  10.085  12.472
 5332SOL    HW117835  12.599  10.111  12.559
 5332SOL    HW217836  12.700  10.026  12.486
 5333SOL     OW17837   6.397  12.772  10.285
 5333SOL    HW117838   6.462  12.762  10.354
 5333SOL    HW217839   6.365  12.683  10.269
 5334SOL     OW17840   3.189   0.165   7.190
 5334SOL    HW117841   3.282   0.140   7.191
 5334SOL    HW217842   3.189   0.253   7.227
 5335SOL     OW17843   5.724   6.422   8.446
 5335SOL    HW117844   5.813   6.455   8.443
 5335SOL    HW217845   5.682   6.458   8.369
 5336SOL     OW17846   0.951  10.648   1.095
 5336SOL    HW117847   1.027  10.622   1.147
 5336SOL    HW217848   0.980  10.728   1.050
 5337SOL     OW17849   4.720  12.440   9.390
 5337SOL    HW117850   4.805  12.447   9.433
 5337SOL    HW217851   4.735  12.378   9.318
 5338SOL     OW17852   4.302   2.402   9.454
 5338SOL    HW117853   4.372   2.375   9.514
 5338SOL    HW217854   4.300   2.497   9.462
 5339SOL     OW17855   4.463   9.810   8.363
 5339SOL    HW117856   4.444   9.779   8.275
 5339SOL    HW217857   4.499   9.734   8.409
 5340SOL     OW17858   2.526   2.023   1.597
 5340SOL    HW117859   2.538   1.931   1.574
 5340SOL    HW217860   2.448   2.050   1.550
 5341SOL     OW17861   9.305  12.479   5.917
 5341SOL    HW117862   9.227  12.524   5.948
 5341SOL    HW217863   9.357  12.548   5.874
 5342SOL     OW17864   3.833   8.612  10.429
 5342SOL    HW117865   3.874   8.600  10.343
 5342SOL    HW217866   3.788   8.529  10.445
 5343SOL     OW17867   3.257   8.284   3.178
 5343SOL    HW117868   3.239   8.287   3.084
 5343SOL    HW217869   3.182   8.237   3.215
 5344SOL     OW17870   2.086   7.075   7.418
 5344SOL    HW117871   2.163   7.020   7.434
 5344SOL    HW217872   2.121   7.164   7.415
 5345SOL     OW17873  11.441   6.577  13.472
 5345SOL    HW117874  11.478   6.641  13.533
 5345SOL    HW217875  11.351   6.564  13.502
 5346SOL     OW17876   9.552   7.928   9.001
 5346SOL    HW117877   9.547   7.965   9.089
 5346SOL    HW217878   9.462   7.906   8.979
 5347SOL     OW17879   1.493  13.093  10.040
 5347SOL    HW117880   1.470  13.183  10.015
 5347SOL    HW217881   1.459  13.039   9.969
 5348SOL     OW17882   8.800  11.627  13.976
 5348SOL    HW117883   8.865  11.558  13.988
 5348SOL    HW217884   8.756  11.634  14.060
 5349SOL     OW17885   7.564  14.358  13.786
 5349SOL    HW117886   7.491  14.323  13.837
 5349SOL    HW217887   7.523  14.415  13.721
 5350SOL     OW17888   5.969   3.920   4.289
 5350SOL    HW117889   5.954   3.967   4.371
 5350SOL    HW217890   6.027   3.977   4.239
 5351SOL     OW17891   5.014   8.222   3.860
 5351SOL    HW117892   5.047   8.278   3.931
 5351SOL    HW217893   4.919   8.232   3.864
 5352SOL     OW17894  12.482   4.548   8.232
 5352SOL    HW117895  12.540   4.619   8.257
 5352SOL    HW217896  12.403   4.561   8.285
 5353SOL     OW17897   2.235   8.972   7.593
 5353SOL    HW117898   2.228   9.042   7.529
 5353SOL    HW217899   2.223   8.891   7.542
 5354SOL     OW17900   4.586  10.643   3.394
 5354SOL    HW117901   4.626  10.718   3.438
 5354SOL    HW217902   4.563  10.584   3.465
 5355SOL     OW17903  10.587  14.206   6.911
 5355SOL    HW117904  10.639  14.286   6.921
 5355SOL    HW217905  10.606  14.155   6.990
 5356SOL     OW17906   1.971   6.734   7.012
 5356SOL    HW117907   1.918   6.654   7.014
 5356SOL    HW217908   2.061   6.703   7.025
 5357SOL     OW17909   2.325   8.125   0.511
 5357SOL    HW117910   2.328   8.177   0.592
 5357SOL    HW217911   2.237   8.140   0.476
 5358SOL     OW17912   0.362   5.526  12.757
 5358SOL    HW117913   0.398   5.517  12.669
 5358SOL    HW217914   0.298   5.597  12.749
 5359SOL     OW17915   9.138   5.838   6.759
 5359SOL    HW117916   9.087   5.892   6.699
 5359SOL    HW217917   9.154   5.894   6.834
 5360SOL     OW17918   2.514   5.931  10.124
 5360SOL    HW117919   2.508   5.840  10.154
 5360SOL    HW217920   2.424   5.963  10.127
 5361SOL     OW17921  10.569  11.405   9.548
 5361SOL    HW117922  10.571  11.492   9.507
 5361SOL    HW217923  10.520  11.419   9.629
 5362SOL     OW17924   2.064   2.381   2.236
 5362SOL    HW117925   2.036   2.327   2.310
 5362SOL    HW217926   2.089   2.465   2.276
 5363SOL     OW17927   4.663  11.102   3.304
 5363SOL    HW117928   4.682  11.056   3.222
 5363SOL    HW217929   4.745  11.099   3.353
 5364SOL     OW17930   4.433   7.554   5.853
 5364SOL    HW117931   4.511   7.507   5.879
 5364SOL    HW217932   4.461   7.608   5.779
 5365SOL     OW17933   5.051  11.756   3.066
 5365SOL    HW117934   4.971  11.776   3.115
 5365SOL    HW217935   5.119  11.746   3.132
 5366SOL     OW17936  11.691   2.444  13.147
 5366SOL    HW117937  11.769   2.399  13.115
 5366SOL    HW217938  11.691   2.431  13.241
 5367SOL     OW17939   1.004  12.466   3.522
 5367SOL    HW117940   0.986  12.445   3.430
 5367SOL    HW217941   1.060  12.395   3.553
 5368SOL     OW17942   1.090  14.866  14.436
 5368SOL    HW117943   1.003  14.830  14.424
 5368SOL    HW217944   1.076   0.067  14.486
 5369SOL     OW17945  11.908   7.057  10.960
 5369SOL    HW117946  11.974   7.114  10.920
 5369SOL    HW217947  11.854   7.116  11.012
 5370SOL     OW17948  12.802   0.082   3.676
 5370SOL    HW117949  12.883   0.134   3.680
 5370SOL    HW217950  12.797   0.052   3.585
 5371SOL     OW17951   7.579   3.301   1.760
 5371SOL    HW117952   7.508   3.287   1.697
 5371SOL    HW217953   7.537   3.348   1.833
 5372SOL     OW17954  12.879   7.803  11.337
 5372SOL    HW117955  12.830   7.723  11.320
 5372SOL    HW217956  12.874   7.853  11.256
 5373SOL     OW17957  13.314  11.160   2.165
 5373SOL    HW117958  13.263  11.238   2.145
 5373SOL    HW217959  13.343  11.173   2.256
 5374SOL     OW17960   8.338  11.214  11.817
 5374SOL    HW117961   8.329  11.303  11.849
 5374SOL    HW217962   8.355  11.224  11.723
 5375SOL     OW17963   1.348  11.279  13.563
 5375SOL    HW117964   1.339  11.250  13.654
 5375SOL    HW217965   1.277  11.234  13.517
 5376SOL     OW17966   2.182  10.470  12.297
 5376SOL    HW117967   2.168  10.562  12.320
 5376SOL    HW217968   2.095  10.435  12.281
 5377SOL     OW17969   6.704   5.186   4.594
 5377SOL    HW117970   6.707   5.129   4.518
 5377SOL    HW217971   6.785   5.237   4.589
 5378SOL     OW17972   3.907   0.980  14.154
 5378SOL    HW117973   3.976   0.992  14.221
 5378SOL    HW217974   3.832   0.946  14.203
 5379SOL     OW17975   2.907   7.234   0.987
 5379SOL    HW117976   2.870   7.150   1.013
 5379SOL    HW217977   2.843   7.299   1.015
 5380SOL     OW17978  14.736  14.458  13.692
 5380SOL    HW117979  14.641  14.446  13.698
 5380SOL    HW217980  14.772  14.371  13.707
 5381SOL     OW17981   0.382   3.475  11.443
 5381SOL    HW117982   0.377   3.570  11.457
 5381SOL    HW217983   0.412   3.465  11.353
 5382SOL     OW17984   0.349   7.945   0.994
 5382SOL    HW117985   0.415   7.984   1.051
 5382SOL    HW217986   0.372   7.852   0.991
 5383SOL     OW17987   0.627   7.593  14.174
 5383SOL    HW117988   0.591   7.681  14.185
 5383SOL    HW217989   0.562   7.536  14.215
 5384SOL     OW17990   7.552   3.380   6.882
 5384SOL    HW117991   7.476   3.331   6.847
 5384SOL    HW217992   7.525   3.472   6.877
 5385SOL     OW17993   4.846   0.385  10.057
 5385SOL    HW117994   4.874   0.443  10.128
 5385SOL    HW217995   4.782   0.327  10.097
 5386SOL     OW17996  12.015  13.257  14.582
 5386SOL    HW117997  11.973  13.329  14.535
 5386SOL    HW217998  11.942  13.202  14.611
 5387SOL     OW17999   5.886   0.932   5.629
 5387SOL    HW118000   5.815   0.869   5.642
 5387SOL    HW218001   5.935   0.898   5.554
 5388SOL     OW18002   6.183   6.816  14.359
 5388SOL    HW118003   6.277   6.832  14.354
 5388SOL    HW218004   6.157   6.797  14.269
 5389SOL     OW18005   1.978  10.553  12.763
 5389SOL    HW118006   2.016  10.576  12.848
 5389SOL    HW218007   2.027  10.477  12.734
 5390SOL     OW18008   9.877   4.030   4.731
 5390SOL    HW118009   9.883   4.108   4.677
 5390SOL    HW218010   9.878   4.063   4.821
 5391SOL     OW18011  12.072   4.004  11.421
 5391SOL    HW118012  12.006   3.960  11.368
 5391SOL    HW218013  12.026   4.031  11.500
 5392SOL     OW18014   1.120   2.311   1.158
 5392SOL    HW118015   1.114   2.298   1.063
 5392SOL    HW218016   1.145   2.402   1.169
 5393SOL     OW18017   0.646   0.932   7.217
 5393SOL    HW118018   0.666   0.920   7.124
 5393SOL    HW218019   0.709   0.877   7.262
 5394SOL     OW18020   8.410   8.883  10.920
 5394SOL    HW118021   8.396   8.921  10.833
 5394SOL    HW218022   8.330   8.905  10.968
 5395SOL     OW18023   0.333  10.355   6.427
 5395SOL    HW118024   0.343  10.261   6.444
 5395SOL    HW218025   0.252  10.379   6.471
 5396SOL     OW18026   4.955  12.646   6.691
 5396SOL    HW118027   4.902  12.573   6.659
 5396SOL    HW218028   5.024  12.605   6.743
 5397SOL     OW18029   7.869  10.816   4.738
 5397SOL    HW118030   7.779  10.799   4.767
 5397SOL    HW218031   7.896  10.735   4.696
 5398SOL     OW18032   0.609  13.084   1.159
 5398SOL    HW118033   0.617  13.156   1.097
 5398SOL    HW218034   0.589  13.008   1.105
 5399SOL     OW18035  13.667  13.178   5.999
 5399SOL    HW118036  13.587  13.190   6.048
 5399SOL    HW218037  13.725  13.130   6.058
 5400SOL     OW18038  11.497  11.803   1.584
 5400SOL    HW118039  11.446  11.829   1.660
 5400SOL    HW218040  11.457  11.852   1.511
 5401SOL     OW18041  10.266  12.409   2.437
 5401SOL    HW118042  10.257  12.467   2.362
 5401SOL    HW218043  10.350  12.364   2.423
 5402SOL     OW18044   1.215   4.965   5.856
 5402SOL    HW118045   1.164   5.038   5.891
 5402SOL    HW218046   1.213   4.899   5.926
 5403SOL     OW18047   4.323   0.002   7.204
 5403SOL    HW118048   4.410   0.043   7.203
 5403SOL    HW218049   4.339  14.791   7.174
 5404SOL     OW18050   6.098   4.339   0.755
 5404SOL    HW118051   6.098   4.244   0.763
 5404SOL    HW218052   6.010   4.366   0.782
 5405SOL     OW18053   5.861  13.373  12.381
 5405SOL    HW118054   5.788  13.372  12.319
 5405SOL    HW218055   5.820  13.393  12.465
 5406SOL     OW18056   0.410   5.503   5.185
 5406SOL    HW118057   0.449   5.477   5.268
 5406SOL    HW218058   0.476   5.481   5.119
 5407SOL     OW18059  12.432  12.943   7.851
 5407SOL    HW118060  12.517  12.908   7.824
 5407SOL    HW218061  12.454  13.016   7.909
 5408SOL     OW18062   0.721  14.771  13.189
 5408SOL    HW118063   0.791  14.775  13.124
 5408SOL    HW218064   0.643  14.797  13.141
 5409SOL     OW18065  13.540   1.282  12.458
 5409SOL    HW118066  13.451   1.302  12.428
 5409SOL    HW218067  13.573   1.220  12.393
 5410SOL     OW18068   5.399   7.548   9.253
 5410SOL    HW118069   5.396   7.507   9.339
 5410SOL    HW218070   5.446   7.630   9.266
 5411SOL     OW18071   8.394  10.823  13.117
 5411SOL    HW118072   8.465  10.884  13.136
 5411SOL    HW218073   8.333  10.873  13.062
 5412SOL     OW18074   4.209   1.652   6.661
 5412SOL    HW118075   4.186   1.576   6.608
 5412SOL    HW218076   4.194   1.727   6.603
 5413SOL     OW18077   5.291  12.378   8.157
 5413SOL    HW118078   5.279  12.473   8.151
 5413SOL    HW218079   5.344  12.356   8.080
 5414SOL     OW18080  14.781   7.240  13.890
 5414SOL    HW118081  14.827   7.323  13.884
 5414SOL    HW218082  14.838   7.177  13.847
 5415SOL     OW18083  12.171   7.582   2.822
 5415SOL    HW118084  12.183   7.519   2.752
 5415SOL    HW218085  12.081   7.612   2.813
 5416SOL     OW18086  10.297  14.383  13.773
 5416SOL    HW118087  10.216  14.331  13.772
 5416SOL    HW218088  10.289  14.437  13.851
 5417SOL     OW18089   3.964   4.188   4.596
 5417SOL    HW118090   3.974   4.145   4.512
 5417SOL    HW218091   3.946   4.117   4.658
 5418SOL     OW18092   2.468   8.336  13.501
 5418SOL    HW118093   2.517   8.355  13.421
 5418SOL    HW218094   2.533   8.345  13.571
 5419SOL     OW18095   4.162  13.463   7.691
 5419SOL    HW118096   4.165  13.466   7.786
 5419SOL    HW218097   4.253  13.450   7.664
 5420SOL     OW18098   8.241   0.802  14.387
 5420SOL    HW118099   8.211   0.888  14.357
 5420SOL    HW218100   8.267   0.756  14.307
 5421SOL     OW18101  10.871   0.361   3.997
 5421SOL    HW118102  10.876   0.274   3.956
 5421SOL    HW218103  10.940   0.359   4.064
 5422SOL     OW18104  11.569  14.054   7.624
 5422SOL    HW118105  11.499  14.116   7.606
 5422SOL    HW218106  11.535  13.969   7.595
 5423SOL     OW18107   6.175   9.128   2.056
 5423SOL    HW118108   6.219   9.064   2.001
 5423SOL    HW218109   6.211   9.114   2.143
 5424SOL     OW18110  10.573   0.036  12.148
 5424SOL    HW118111  10.618  14.866  12.217
 5424SOL    HW218112  10.487   0.055  12.185
 5425SOL     OW18113   5.627  14.399  11.508
 5425SOL    HW118114   5.592  14.409  11.597
 5425SOL    HW218115   5.556  14.358  11.458
 5426SOL     OW18116  11.770   5.666   7.263
 5426SOL    HW118117  11.777   5.663   7.168
 5426SOL    HW218118  11.676   5.671   7.279
 5427SOL     OW18119   2.690  12.869   4.177
 5427SOL    HW118120   2.692  12.958   4.210
 5427SOL    HW218121   2.739  12.873   4.095
 5428SOL     OW18122  10.449  13.337  10.512
 5428SOL    HW118123  10.435  13.293  10.429
 5428SOL    HW218124  10.377  13.307  10.568
 5429SOL     OW18125   5.169  14.471   3.492
 5429SOL    HW118126   5.080  14.457   3.460
 5429SOL    HW218127   5.180  14.566   3.493
 5430SOL     OW18128   2.026   9.071  10.750
 5430SOL    HW118129   2.025   8.985  10.708
 5430SOL    HW218130   2.103   9.114  10.714
 5431SOL     OW18131  11.749  10.119   4.123
 5431SOL    HW118132  11.749  10.056   4.051
 5431SOL    HW218133  11.748  10.065   4.202
 5432SOL     OW18134   7.041  12.016   7.574
 5432SOL    HW118135   7.044  11.920   7.585
 5432SOL    HW218136   7.121  12.047   7.616
 5433SOL     OW18137   9.220  12.921   9.094
 5433SOL    HW118138   9.126  12.908   9.103
 5433SOL    HW218139   9.239  12.997   9.149
 5434SOL     OW18140  14.277  14.772   0.907
 5434SOL    HW118141  14.231  14.851   0.878
 5434SOL    HW218142  14.206  14.711   0.929
 5435SOL     OW18143  11.545   4.856   9.520
 5435SOL    HW118144  11.554   4.805   9.601
 5435SOL    HW218145  11.598   4.935   9.536
 5436SOL     OW18146   2.017  14.837   7.209
 5436SOL    HW118147   2.110  14.845   7.187
 5436SOL    HW218148   1.971  14.863   7.129
 5437SOL     OW18149   7.120  13.828   3.302
 5437SOL    HW118150   7.029  13.804   3.318
 5437SOL    HW218151   7.153  13.854   3.388
 5438SOL     OW18152   3.352  10.376   9.341
 5438SOL    HW118153   3.415  10.324   9.289
 5438SOL    HW218154   3.341  10.326   9.422
 5439SOL     OW18155   8.076   5.030   4.037
 5439SOL    HW118156   7.997   5.028   3.984
 5439SOL    HW218157   8.107   5.120   4.032
 5440SOL     OW18158  13.081   0.008  13.436
 5440SOL    HW118159  13.076  14.816  13.500
 5440SOL    HW218160  13.030   0.079  13.475
 5441SOL     OW18161   0.097  12.441   1.569
 5441SOL    HW118162   0.151  12.435   1.649
 5441SOL    HW218163   0.157  12.416   1.499
 5442SOL     OW18164  11.460  12.123   4.630
 5442SOL    HW118165  11.485  12.144   4.540
 5442SOL    HW218166  11.447  12.028   4.630
 5443SOL     OW18167  11.526   7.312  13.683
 5443SOL    HW118168  11.582   7.330  13.758
 5443SOL    HW218169  11.448   7.366  13.698
 5444SOL     OW18170   8.691  12.169  10.905
 5444SOL    HW118171   8.680  12.172  11.000
 5444SOL    HW218172   8.727  12.254  10.882
 5445SOL     OW18173  11.594   3.901  10.806
 5445SOL    HW118174  11.650   3.914  10.883
 5445SOL    HW218175  11.519   3.957  10.822
 5446SOL     OW18176  13.061  13.379   0.456
 5446SOL    HW118177  12.988  13.399   0.398
 5446SOL    HW218178  13.085  13.289   0.436
 5447SOL     OW18179   2.732   0.515  11.525
 5447SOL    HW118180   2.682   0.434  11.528
 5447SOL    HW218181   2.710   0.554  11.440
 5448SOL     OW18182  13.617  14.626  11.334
 5448SOL    HW118183  13.531  14.664  11.351
 5448SOL    HW218184  13.626  14.629  11.238
 5449SOL     OW18185   3.583   2.236   5.013
 5449SOL    HW118186   3.649   2.304   4.999
 5449SOL    HW218187   3.545   2.257   5.099
 5450SOL     OW18188   6.713   3.413   8.845
 5450SOL    HW118189   6.670   3.492   8.812
 5450SOL    HW218190   6.762   3.442   8.922
 5451SOL     OW18191  11.167   6.304   0.117
 5451SOL    HW118192  11.251   6.287   0.073
 5451SOL    HW218193  11.123   6.219   0.118
 5452SOL     OW18194   1.985   5.011   7.946
 5452SOL    HW118195   1.913   5.047   7.894
 5452SOL    HW218196   1.944   4.981   8.027
 5453SOL     OW18197   3.064  14.281   5.046
 5453SOL    HW118198   2.983  14.328   5.065
 5453SOL    HW218199   3.043  14.189   5.061
 5454SOL     OW18200   4.037   1.755   6.462
 5454SOL    HW118201   3.973   1.714   6.521
 5454SOL    HW218202   3.986   1.784   6.387
 5455SOL     OW18203  11.886   8.168  14.864
 5455SOL    HW118204  11.980   8.188  14.866
 5455SOL    HW218205  11.882   8.076  14.837
 5456SOL     OW18206   0.833   0.743   7.342
 5456SOL    HW118207   0.899   0.674   7.333
 5456SOL    HW218208   0.800   0.734   7.431
 5457SOL     OW18209   7.726  14.332  12.550
 5457SOL    HW118210   7.671  14.280  12.491
 5457SOL    HW218211   7.747  14.272  12.622
 5458SOL     OW18212  12.820  11.352   6.279
 5458SOL    HW118213  12.823  11.257   6.289
 5458SOL    HW218214  12.848  11.387   6.364
 5459SOL     OW18215  12.564   2.493  14.405
 5459SOL    HW118216  12.473   2.498  14.434
 5459SOL    HW218217  12.600   2.417  14.451
 5460SOL     OW18218   7.093   8.757   2.090
 5460SOL    HW118219   7.067   8.704   2.165
 5460SOL    HW218220   7.016   8.756   2.033
 5461SOL     OW18221  10.974  10.127   5.207
 5461SOL    HW118222  11.031  10.184   5.155
 5461SOL    HW218223  10.950  10.056   5.147
 5462SOL     OW18224   1.065   8.577   9.871
 5462SOL    HW118225   1.017   8.554   9.951
 5462SOL    HW218226   1.154   8.597   9.901
 5463SOL     OW18227   5.748  13.074  12.197
 5463SOL    HW118228   5.748  13.170  12.205
 5463SOL    HW218229   5.777  13.058  12.107
 5464SOL     OW18230  11.002  13.140  10.507
 5464SOL    HW118231  11.033  13.050  10.520
 5464SOL    HW218232  11.056  13.193  10.566
 5465SOL     OW18233   2.358  10.401   9.828
 5465SOL    HW118234   2.345  10.496   9.822
 5465SOL    HW218235   2.272  10.367   9.855
 5466SOL     OW18236   0.994  12.965   8.177
 5466SOL    HW118237   0.909  12.923   8.191
 5466SOL    HW218238   1.019  12.942   8.088
 5467SOL     OW18239  11.169  14.147   1.309
 5467SOL    HW118240  11.182  14.085   1.381
 5467SOL    HW218241  11.245  14.136   1.253
 5468SOL     OW18242   4.654  10.969  11.846
 5468SOL    HW118243   4.703  10.887  11.848
 5468SOL    HW218244   4.674  11.006  11.760
 5469SOL     OW18245   6.915   4.317   6.301
 5469SOL    HW118246   6.893   4.398   6.255
 5469SOL    HW218247   6.978   4.273   6.243
 5470SOL     OW18248   2.392  13.491  13.932
 5470SOL    HW118249   2.310  13.541  13.940
 5470SOL    HW218250   2.446  13.521  14.005
 5471SOL     OW18251  10.930   8.310  10.048
 5471SOL    HW118252  10.982   8.248  10.099
 5471SOL    HW218253  10.844   8.308  10.090
 5472SOL     OW18254   5.742   3.176   9.929
 5472SOL    HW118255   5.792   3.257   9.942
 5472SOL    HW218256   5.805   3.116   9.890
 5473SOL     OW18257   4.981  13.428  11.310
 5473SOL    HW118258   4.955  13.510  11.267
 5473SOL    HW218259   4.898  13.387  11.335
 5474SOL     OW18260  14.521  13.600  12.483
 5474SOL    HW118261  14.558  13.519  12.518
 5474SOL    HW218262  14.435  13.607  12.523
 5475SOL     OW18263   9.686  12.961   8.940
 5475SOL    HW118264   9.736  12.923   9.013
 5475SOL    HW218265   9.598  12.925   8.950
 5476SOL     OW18266   3.166   4.427  10.180
 5476SOL    HW118267   3.200   4.442  10.092
 5476SOL    HW218268   3.078   4.466  10.179
 5477SOL     OW18269  12.098   2.162  10.443
 5477SOL    HW118270  12.055   2.209  10.371
 5477SOL    HW218271  12.049   2.080  10.451
 5478SOL     OW18272   4.168  14.321   6.742
 5478SOL    HW118273   4.148  14.321   6.836
 5478SOL    HW218274   4.110  14.255   6.705
 5479SOL     OW18275   5.344   8.634  13.349
 5479SOL    HW118276   5.355   8.539  13.347
 5479SOL    HW218277   5.393   8.666  13.273
 5480SOL     OW18278  12.203   3.199   8.505
 5480SOL    HW118279  12.226   3.288   8.534
 5480SOL    HW218280  12.130   3.174   8.561
 5481SOL     OW18281  12.463   7.937   5.223
 5481SOL    HW118282  12.439   7.904   5.136
 5481SOL    HW218283  12.486   7.859   5.272
 5482SOL     OW18284   8.611   7.623  14.266
 5482SOL    HW118285   8.538   7.660  14.216
 5482SOL    HW218286   8.631   7.540  14.221
 5483SOL     OW18287   7.249   9.864  11.722
 5483SOL    HW118288   7.214   9.775  11.717
 5483SOL    HW218289   7.192   9.916  11.664
 5484SOL     OW18290  14.809   2.221   0.434
 5484SOL    HW118291  14.867   2.296   0.451
 5484SOL    HW218292  14.725   2.260   0.413
 5485SOL     OW18293   9.492   7.397  14.663
 5485SOL    HW118294   9.497   7.487  14.697
 5485SOL    HW218295   9.426   7.400  14.595
 5486SOL     OW18296   8.089   4.959   2.551
 5486SOL    HW118297   8.106   5.053   2.556
 5486SOL    HW218298   8.135   4.931   2.472
 5487SOL     OW18299   8.756   4.474   6.048
 5487SOL    HW118300   8.714   4.438   6.126
 5487SOL    HW218301   8.810   4.403   6.015
 5488SOL     OW18302   4.393  11.557  14.053
 5488SOL    HW118303   4.441  11.521  13.979
 5488SOL    HW218304   4.309  11.512  14.051
 5489SOL     OW18305   8.635  13.228  12.655
 5489SOL    HW118306   8.569  13.239  12.724
 5489SOL    HW218307   8.668  13.317  12.640
 5490SOL     OW18308  10.651  11.315   4.607
 5490SOL    HW118309  10.684  11.225   4.611
 5490SOL    HW218310  10.567  11.311   4.652
 5491SOL     OW18311   6.360  11.901   7.772
 5491SOL    HW118312   6.271  11.931   7.752
 5491SOL    HW218313   6.358  11.884   7.866
 5492SOL     OW18314   1.027  12.079   4.657
 5492SOL    HW118315   0.977  12.160   4.663
 5492SOL    HW218316   1.115  12.107   4.632
 5493SOL     OW18317   3.182  14.133   2.742
 5493SOL    HW118318   3.174  14.075   2.817
 5493SOL    HW218319   3.179  14.221   2.778
 5494SOL     OW18320   7.640  12.398   1.487
 5494SOL    HW118321   7.637  12.435   1.575
 5494SOL    HW218322   7.551  12.410   1.453
 5495SOL     OW18323   2.838   4.025   5.251
 5495SOL    HW118324   2.892   4.043   5.327
 5495SOL    HW218325   2.749   4.045   5.279
 5496SOL     OW18326  13.922   8.793  10.779
 5496SOL    HW118327  13.944   8.735  10.853
 5496SOL    HW218328  13.886   8.734  10.713
 5497SOL     OW18329  11.669  11.960   8.946
 5497SOL    HW118330  11.626  12.038   8.911
 5497SOL    HW218331  11.601  11.893   8.948
 5498SOL     OW18332  10.386  10.101   6.937
 5498SOL    HW118333  10.456  10.094   6.871
 5498SOL    HW218334  10.428  10.078   7.019
 5499SOL     OW18335  10.136   3.843  11.068
 5499SOL    HW118336  10.117   3.858  11.160
 5499SOL    HW218337  10.159   3.930  11.034
 5500SOL     OW18338  10.942   5.637   6.392
 5500SOL    HW118339  11.026   5.675   6.367
 5500SOL    HW218340  10.911   5.593   6.313
 5501SOL     OW18341  12.564   6.051  13.355
 5501SOL    HW118342  12.575   6.005  13.439
 5501SOL    HW218343  12.485   6.012  13.318
 5502SOL     OW18344  10.440  10.661  14.838
 5502SOL    HW118345  10.368  10.601  14.856
 5502SOL    HW218346  10.507  10.637   0.023
 5503SOL     OW18347   5.540   4.002   5.364
 5503SOL    HW118348   5.616   4.015   5.420
 5503SOL    HW218349   5.528   4.085   5.319
 5504SOL     OW18350   6.778   9.505  13.786
 5504SOL    HW118351   6.743   9.416  13.790
 5504SOL    HW218352   6.865   9.499  13.824
 5505SOL     OW18353  14.649   3.673   8.784
 5505SOL    HW118354  14.727   3.709   8.742
 5505SOL    HW218355  14.682   3.629   8.863
 5506SOL     OW18356  11.950   9.371  10.153
 5506SOL    HW118357  11.902   9.322  10.220
 5506SOL    HW218358  11.952   9.313  10.077
 5507SOL     OW18359   8.811  11.470   2.298
 5507SOL    HW118360   8.758  11.395   2.271
 5507SOL    HW218361   8.795  11.478   2.392
 5508SOL     OW18362   6.423   6.347   3.002
 5508SOL    HW118363   6.445   6.418   2.941
 5508SOL    HW218364   6.508   6.311   3.027
 5509SOL     OW18365   3.811   7.620  14.832
 5509SOL    HW118366   3.881   7.583  14.779
 5509SOL    HW218367   3.731   7.598  14.785
 5510SOL     OW18368  13.425   4.325  11.339
 5510SOL    HW118369  13.475   4.255  11.298
 5510SOL    HW218370  13.377   4.366  11.267
 5511SOL     OW18371   9.642  14.622   5.329
 5511SOL    HW118372   9.725  14.579   5.351
 5511SOL    HW218373   9.617  14.585   5.245
 5512SOL     OW18374   2.886  13.107   5.721
 5512SOL    HW118375   2.857  13.095   5.811
 5512SOL    HW218376   2.936  13.189   5.722
 5513SOL     OW18377   2.934   9.223  14.609
 5513SOL    HW118378   2.975   9.182  14.533
 5513SOL    HW218379   3.006   9.271  14.652
 5514SOL     OW18380  12.175  12.576  12.230
 5514SOL    HW118381  12.201  12.617  12.313
 5514SOL    HW218382  12.250  12.521  12.206
 5515SOL     OW18383   9.642   1.860   0.684
 5515SOL    HW118384   9.734   1.867   0.710
 5515SOL    HW218385   9.604   1.944   0.710
 5516SOL     OW18386   1.072   4.951   4.331
 5516SOL    HW118387   1.019   4.878   4.301
 5516SOL    HW218388   1.042   5.026   4.278
 5517SOL     OW18389   4.279   3.336   8.740
 5517SOL    HW118390   4.297   3.255   8.692
 5517SOL    HW218391   4.186   3.330   8.762
 5518SOL     OW18392   1.736   2.103  10.037
 5518SOL    HW118393   1.652   2.062  10.015
 5518SOL    HW218394   1.742   2.178   9.978
 5519SOL     OW18395  11.283   6.719   5.570
 5519SOL    HW118396  11.225   6.715   5.494
 5519SOL    HW218397  11.234   6.770   5.635
 5520SOL     OW18398   3.691   2.952  13.488
 5520SOL    HW118399   3.769   2.914  13.529
 5520SOL    HW218400   3.721   3.036  13.454
 5521SOL     OW18401   6.295   5.126   8.373
 5521SOL    HW118402   6.282   5.036   8.341
 5521SOL    HW218403   6.324   5.175   8.297
 5522SOL     OW18404   4.048   7.722   8.239
 5522SOL    HW118405   4.057   7.780   8.315
 5522SOL    HW218406   4.004   7.775   8.173
 5523SOL     OW18407   6.180   8.125   8.502
 5523SOL    HW118408   6.165   8.218   8.490
 5523SOL    HW218409   6.201   8.092   8.414
 5524SOL     OW18410   4.369   1.643  14.802
 5524SOL    HW118411   4.382   1.736  14.785
 5524SOL    HW218412   4.398   1.600  14.721
 5525SOL     OW18413  10.335   0.318   4.832
 5525SOL    HW118414  10.384   0.345   4.754
 5525SOL    HW218415  10.389   0.251   4.872
 5526SOL     OW18416  11.027   3.372   9.396
 5526SOL    HW118417  11.088   3.301   9.379
 5526SOL    HW218418  11.078   3.452   9.382
 5527SOL     OW18419  13.644  14.307   6.122
 5527SOL    HW118420  13.650  14.235   6.184
 5527SOL    HW218421  13.563  14.353   6.147
 5528SOL     OW18422   2.260   9.196   0.397
 5528SOL    HW118423   2.258   9.124   0.460
 5528SOL    HW218424   2.260   9.275   0.451
 5529SOL     OW18425   4.671   3.895   6.618
 5529SOL    HW118426   4.613   3.822   6.641
 5529SOL    HW218427   4.742   3.855   6.567
 5530SOL     OW18428   8.823   5.912  10.277
 5530SOL    HW118429   8.765   5.940  10.348
 5530SOL    HW218430   8.878   5.989  10.260
 5531SOL     OW18431  11.887   5.883   9.995
 5531SOL    HW118432  11.953   5.814   9.995
 5531SOL    HW218433  11.829   5.861   9.922
 5532SOL     OW18434   6.863   8.200  13.116
 5532SOL    HW118435   6.848   8.234  13.204
 5532SOL    HW218436   6.795   8.133  13.104
 5533SOL     OW18437   6.701   4.801   4.539
 5533SOL    HW118438   6.795   4.793   4.551
 5533SOL    HW218439   6.666   4.820   4.626
 5534SOL     OW18440   6.951   3.614  10.982
 5534SOL    HW118441   6.938   3.677  11.053
 5534SOL    HW218442   6.964   3.530  11.027
 5535SOL     OW18443   1.030   7.420  10.167
 5535SOL    HW118444   1.025   7.432  10.262
 5535SOL    HW218445   0.998   7.502  10.131
 5536SOL     OW18446  10.650   3.783  10.753
 5536SOL    HW118447  10.700   3.841  10.696
 5536SOL    HW218448  10.617   3.714  10.695
 5537SOL     OW18449   4.847   5.245   6.483
 5537SOL    HW118450   4.901   5.222   6.560
 5537SOL    HW218451   4.816   5.161   6.449
 5538SOL     OW18452  10.349  12.028   8.205
 5538SOL    HW118453  10.379  12.026   8.296
 5538SOL    HW218454  10.396  12.101   8.166
 5539SOL     OW18455   6.868   0.003  14.678
 5539SOL    HW118456   6.882   0.097  14.674
 5539SOL    HW218457   6.824  14.861  14.596
 5540SOL     OW18458  12.247   8.096  13.765
 5540SOL    HW118459  12.274   8.159  13.699
 5540SOL    HW218460  12.302   8.019  13.749
 5541SOL     OW18461  13.027  13.153  10.030
 5541SOL    HW118462  12.986  13.083   9.978
 5541SOL    HW218463  12.954  13.200  10.070
 5542SOL     OW18464   8.810   7.943   9.143
 5542SOL    HW118465   8.879   7.879   9.127
 5542SOL    HW218466   8.787   7.932   9.235
 5543SOL     OW18467   8.415   4.089  13.101
 5543SOL    HW118468   8.350   4.033  13.145
 5543SOL    HW218469   8.468   4.029  13.050
 5544SOL     OW18470   3.354   1.452   1.960
 5544SOL    HW118471   3.432   1.460   2.015
 5544SOL    HW218472   3.290   1.511   2.001
 5545SOL     OW18473   4.760  10.550  13.556
 5545SOL    HW118474   4.710  10.627  13.532
 5545SOL    HW218475   4.750  10.542  13.651
 5546SOL     OW18476   3.008  12.330   1.758
 5546SOL    HW118477   2.945  12.283   1.813
 5546SOL    HW218478   3.086  12.338   1.812
 5547SOL     OW18479   0.616  12.813   1.049
 5547SOL    HW118480   0.525  12.819   1.077
 5547SOL    HW218481   0.643  12.725   1.076
 5548SOL     OW18482   2.780  13.744   1.615
 5548SOL    HW118483   2.703  13.800   1.620
 5548SOL    HW218484   2.781  13.711   1.525
 5549SOL     OW18485   8.828   3.990   8.109
 5549SOL    HW118486   8.768   3.951   8.045
 5549SOL    HW218487   8.843   4.079   8.076
 5550SOL     OW18488  10.688   0.707  10.658
 5550SOL    HW118489  10.711   0.669  10.743
 5550SOL    HW218490  10.593   0.718  10.663
 5551SOL     OW18491   3.084   8.061  11.449
 5551SOL    HW118492   2.991   8.085  11.452
 5551SOL    HW218493   3.085   7.966  11.461
 5552SOL     OW18494   8.032   7.758  14.469
 5552SOL    HW118495   8.028   7.733  14.377
 5552SOL    HW218496   7.960   7.711  14.510
 5553SOL     OW18497   5.375  14.877  10.545
 5553SOL    HW118498   5.350  14.806  10.605
 5553SOL    HW218499   5.308  14.875  10.477
 5554SOL     OW18500   3.592   7.957  12.647
 5554SOL    HW118501   3.614   7.877  12.600
 5554SOL    HW218502   3.672   7.981  12.694
 5555SOL     OW18503   7.936   4.141   8.027
 5555SOL    HW118504   7.857   4.087   8.035
 5555SOL    HW218505   7.955   4.169   8.117
 5556SOL     OW18506   5.099   8.994  13.448
 5556SOL    HW118507   5.119   8.906  13.416
 5556SOL    HW218508   5.146   9.053  13.389
 5557SOL     OW18509   2.179  13.610   4.171
 5557SOL    HW118510   2.269  13.580   4.183
 5557SOL    HW218511   2.126  13.530   4.169
 5558SOL     OW18512  14.593   1.970   1.904
 5558SOL    HW118513  14.573   1.983   1.997
 5558SOL    HW218514  14.507   1.962   1.862
 5559SOL     OW18515   9.467   9.118   7.577
 5559SOL    HW118516   9.406   9.158   7.639
 5559SOL    HW218517   9.410   9.073   7.514
 5560SOL     OW18518   4.822  14.789   2.661
 5560SOL    HW118519   4.746  14.821   2.708
 5560SOL    HW218520   4.827  14.843   2.582
 5561SOL     OW18521   5.125  14.062  11.601
 5561SOL    HW118522   5.215  14.076  11.574
 5561SOL    HW218523   5.110  14.128  11.669
 5562SOL     OW18524  10.341  14.342   5.449
 5562SOL    HW118525  10.320  14.313   5.360
 5562SOL    HW218526  10.429  14.310   5.465
 5563SOL     OW18527   7.090  12.895   5.105
 5563SOL    HW118528   7.088  12.978   5.057
 5563SOL    HW218529   7.018  12.845   5.068
 5564SOL     OW18530   9.200  13.074   9.626
 5564SOL    HW118531   9.268  13.128   9.665
 5564SOL    HW218532   9.238  13.041   9.545
 5565SOL     OW18533  12.410   0.458   3.194
 5565SOL    HW118534  12.395   0.536   3.247
 5565SOL    HW218535  12.449   0.395   3.255
 5566SOL     OW18536   5.452  13.436   2.357
 5566SOL    HW118537   5.383  13.485   2.402
 5566SOL    HW218538   5.500  13.501   2.307
 5567SOL     OW18539   2.880   0.048   1.389
 5567SOL    HW118540   2.869   0.101   1.468
 5567SOL    HW218541   2.892  14.838   1.422
 5568SOL     OW18542  10.396   2.046   1.185
 5568SOL    HW118543  10.352   2.070   1.104
 5568SOL    HW218544  10.386   2.123   1.241
 5569SOL     OW18545   5.071   1.171   8.500
 5569SOL    HW118546   5.057   1.077   8.499
 5569SOL    HW218547   5.158   1.182   8.538
 5570SOL     OW18548   1.927   4.452   7.979
 5570SOL    HW118549   2.005   4.477   8.027
 5570SOL    HW218550   1.956   4.446   7.888
 5571SOL     OW18551   4.547   9.323   8.694
 5571SOL    HW118552   4.632   9.313   8.738
 5571SOL    HW218553   4.557   9.275   8.612
 5572SOL     OW18554  10.118   3.131   1.628
 5572SOL    HW118555  10.148   3.126   1.718
 5572SOL    HW218556  10.114   3.225   1.609
 5573SOL     OW18557   4.190  11.800   8.242
 5573SOL    HW118558   4.224  11.890   8.248
 5573SOL    HW218559   4.102  11.805   8.281
 5574SOL     OW18560  11.173   1.822  14.525
 5574SOL    HW118561  11.078   1.818  14.510
 5574SOL    HW218562  11.200   1.901  14.479
 5575SOL     OW18563   0.943  10.218   6.376
 5575SOL    HW118564   0.864  10.270   6.392
 5575SOL    HW218565   1.014  10.281   6.381
 5576SOL     OW18566   3.544   9.447  11.988
 5576SOL    HW118567   3.617   9.498  11.952
 5576SOL    HW218568   3.487   9.431  11.913
 5577SOL     OW18569   1.172   1.307   9.421
 5577SOL    HW118570   1.146   1.355   9.342
 5577SOL    HW218571   1.142   1.218   9.406
 5578SOL     OW18572   4.515   7.028   0.207
 5578SOL    HW118573   4.592   6.970   0.204
 5578SOL    HW218574   4.442   6.969   0.228
 5579SOL     OW18575   6.741   5.691   8.524
 5579SOL    HW118576   6.764   5.742   8.446
 5579SOL    HW218577   6.672   5.631   8.494
 5580SOL     OW18578   9.955  10.555  13.975
 5580SOL    HW118579   9.992  10.530  14.060
 5580SOL    HW218580   9.876  10.604  13.997
 5581SOL     OW18581   4.993  13.354  12.770
 5581SOL    HW118582   4.998  13.290  12.842
 5581SOL    HW218583   5.004  13.302  12.691
 5582SOL     OW18584   0.832  13.760   9.594
 5582SOL    HW118585   0.885  13.812   9.533
 5582SOL    HW218586   0.742  13.771   9.564
 5583SOL     OW18587   4.626   8.929  12.027
 5583SOL    HW118588   4.678   8.994  12.074
 5583SOL    HW218589   4.659   8.845  12.059
 5584SOL     OW18590   6.515   3.377   0.735
 5584SOL    HW118591   6.448   3.437   0.703
 5584SOL    HW218592   6.598   3.417   0.710
 5585SOL     OW18593   8.099   9.220   0.446
 5585SOL    HW118594   8.084   9.314   0.439
 5585SOL    HW218595   8.190   9.212   0.473
 5586SOL     OW18596   8.155   5.218   2.562
 5586SOL    HW118597   8.200   5.192   2.481
 5586SOL    HW218598   8.211   5.286   2.599
 5587SOL     OW18599  13.611   1.480   6.652
 5587SOL    HW118600  13.568   1.471   6.567
 5587SOL    HW218601  13.668   1.403   6.658
 5588SOL     OW18602   1.443  14.588  12.090
 5588SOL    HW118603   1.422  14.540  12.009
 5588SOL    HW218604   1.450  14.679  12.062
 5589SOL     OW18605  10.481   0.243   8.474
 5589SOL    HW118606  10.450   0.314   8.531
 5589SOL    HW218607  10.421   0.171   8.490
 5590SOL     OW18608  12.039  13.394   5.206
 5590SOL    HW118609  12.092  13.451   5.261
 5590SOL    HW218610  11.957  13.381   5.255
 5591SOL     OW18611   8.542   9.841  11.544
 5591SOL    HW118612   8.636   9.851  11.554
 5591SOL    HW218613   8.508   9.931  11.548
 5592SOL     OW18614   2.259  13.944   8.121
 5592SOL    HW118615   2.319  13.875   8.091
 5592SOL    HW218616   2.214  13.973   8.041
 5593SOL     OW18617  14.814   2.411   9.066
 5593SOL    HW118618   0.003   2.461   9.111
 5593SOL    HW218619  14.812   2.327   9.112
 5594SOL     OW18620   0.547  14.310   5.254
 5594SOL    HW118621   0.608  14.296   5.182
 5594SOL    HW218622   0.528  14.221   5.287
 5595SOL     OW18623   5.279   7.424   7.448
 5595SOL    HW118624   5.371   7.447   7.438
 5595SOL    HW218625   5.277   7.369   7.526
 5596SOL     OW18626   4.967   6.662   4.717
 5596SOL    HW118627   5.048   6.712   4.723
 5596SOL    HW218628   4.981   6.603   4.642
 5597SOL     OW18629   8.225  12.390  13.009
 5597SOL    HW118630   8.153  12.438  12.967
 5597SOL    HW218631   8.304  12.422  12.965
 5598SOL     OW18632   6.785   9.964   4.266
 5598SOL    HW118633   6.859   9.906   4.284
 5598SOL    HW218634   6.747   9.929   4.185
 5599SOL     OW18635   3.882   5.517   0.787
 5599SOL    HW118636   3.857   5.581   0.720
 5599SOL    HW218637   3.949   5.560   0.838
 5600SOL     OW18638   9.939   2.363   4.477
 5600SOL    HW118639  10.012   2.391   4.533
 5600SOL    HW218640   9.861   2.391   4.524
 5601SOL     OW18641   8.487  10.516   3.558
 5601SOL    HW118642   8.512  10.593   3.508
 5601SOL    HW218643   8.399  10.536   3.591
 5602SOL     OW18644   7.980   0.147  14.618
 5602SOL    HW118645   7.966   0.095  14.697
 5602SOL    HW218646   8.012   0.084  14.553
 5603SOL     OW18647  10.794  11.509   0.899
 5603SOL    HW118648  10.848  11.580   0.935
 5603SOL    HW218649  10.729  11.492   0.967
 5604SOL     OW18650   7.062   0.811  10.234
 5604SOL    HW118651   7.124   0.786  10.166
 5604SOL    HW218652   6.979   0.825  10.187
 5605SOL     OW18653   9.972  13.792  10.456
 5605SOL    HW118654   9.914  13.813  10.529
 5605SOL    HW218655   9.956  13.861  10.391
 5606SOL     OW18656   5.091   2.107   2.685
 5606SOL    HW118657   5.048   2.188   2.659
 5606SOL    HW218658   5.100   2.114   2.780
 5607SOL     OW18659  10.985   3.349  10.987
 5607SOL    HW118660  10.981   3.297  11.068
 5607SOL    HW218661  11.072   3.389  10.989
 5608SOL     OW18662   8.680   4.181   1.769
 5608SOL    HW118663   8.641   4.257   1.813
 5608SOL    HW218664   8.767   4.173   1.808
 5609SOL     OW18665   8.782   1.555  10.158
 5609SOL    HW118666   8.818   1.625  10.213
 5609SOL    HW218667   8.689   1.552  10.181
 5610SOL     OW18668  12.139   2.887   3.640
 5610SOL    HW118669  12.079   2.812   3.641
 5610SOL    HW218670  12.222   2.851   3.672
 5611SOL     OW18671  12.497  12.028   9.423
 5611SOL    HW118672  12.456  12.105   9.383
 5611SOL    HW218673  12.553  12.065   9.492
 5612SOL     OW18674   2.496   9.400  14.313
 5612SOL    HW118675   2.444   9.451  14.251
 5612SOL    HW218676   2.583   9.395  14.274
 5613SOL     OW18677  13.980   0.304   3.103
 5613SOL    HW118678  14.032   0.231   3.070
 5613SOL    HW218679  14.027   0.332   3.182
 5614SOL     OW18680  12.046  10.140   0.752
 5614SOL    HW118681  12.019  10.219   0.798
 5614SOL    HW218682  12.092  10.088   0.818
 5615SOL     OW18683   2.574   0.081   4.134
 5615SOL    HW118684   2.646   0.143   4.121
 5615SOL    HW218685   2.557   0.083   4.229
 5616SOL     OW18686  14.013   2.958   5.075
 5616SOL    HW118687  13.997   3.021   5.145
 5616SOL    HW218688  14.077   3.001   5.018
 5617SOL     OW18689   9.985   7.714   7.799
 5617SOL    HW118690  10.006   7.807   7.788
 5617SOL    HW218691   9.895   7.706   7.767
 5618SOL     OW18692   9.602  12.259   6.531
 5618SOL    HW118693   9.598  12.338   6.477
 5618SOL    HW218694   9.641  12.193   6.473
 5619SOL     OW18695   2.801   1.509   3.791
 5619SOL    HW118696   2.769   1.434   3.841
 5619SOL    HW218697   2.730   1.573   3.796
 5620SOL     OW18698  10.055   7.689   1.534
 5620SOL    HW118699  10.055   7.610   1.589
 5620SOL    HW218700  10.094   7.756   1.590
 5621SOL     OW18701  14.796   7.535   9.838
 5621SOL    HW118702  14.761   7.447   9.824
 5621SOL    HW218703  14.719   7.592   9.831
 5622SOL     OW18704   9.868  13.807   0.457
 5622SOL    HW118705   9.783  13.770   0.481
 5622SOL    HW218706   9.928  13.773   0.524
 5623SOL     OW18707   6.701  10.558   0.023
 5623SOL    HW118708   6.691  10.555  14.807
 5623SOL    HW218709   6.646  10.631   0.051
 5624SOL     OW18710   3.906   6.377   5.446
 5624SOL    HW118711   3.949   6.294   5.462
 5624SOL    HW218712   3.940   6.435   5.515
 5625SOL     OW18713   4.817   0.568   3.677
 5625SOL    HW118714   4.776   0.552   3.592
 5625SOL    HW218715   4.750   0.615   3.727
 5626SOL     OW18716   3.289   7.792   0.588
 5626SOL    HW118717   3.221   7.846   0.629
 5626SOL    HW218718   3.300   7.718   0.648
 5627SOL     OW18719   5.761   5.901   4.005
 5627SOL    HW118720   5.791   5.828   4.058
 5627SOL    HW218721   5.708   5.861   3.936
 5628SOL     OW18722   4.299   6.846   4.185
 5628SOL    HW118723   4.356   6.773   4.210
 5628SOL    HW218724   4.212   6.808   4.182
 5629SOL     OW18725   7.633   0.187   1.240
 5629SOL    HW118726   7.585   0.157   1.317
 5629SOL    HW218727   7.592   0.140   1.167
 5630SOL     OW18728   0.010   6.783  14.161
 5630SOL    HW118729   0.001   6.688  14.161
 5630SOL    HW218730  14.806   6.816  14.127
 5631SOL     OW18731   3.108  12.261   0.251
 5631SOL    HW118732   3.200  12.266   0.279
 5631SOL    HW218733   3.090  12.347   0.212
 5632SOL     OW18734   6.260  13.323   0.505
 5632SOL    HW118735   6.261  13.232   0.474
 5632SOL    HW218736   6.328  13.326   0.572
 5633SOL     OW18737   9.068   5.186   9.053
 5633SOL    HW118738   8.979   5.189   9.018
 5633SOL    HW218739   9.059   5.144   9.138
 5634SOL     OW18740  12.340   7.348   3.441
 5634SOL    HW118741  12.316   7.256   3.427
 5634SOL    HW218742  12.301   7.370   3.526
 5635SOL     OW18743   2.144   1.324   0.171
 5635SOL    HW118744   2.150   1.365   0.258
 5635SOL    HW218745   2.055   1.288   0.168
 5636SOL     OW18746  13.542   3.679   6.622
 5636SOL    HW118747  13.486   3.725   6.559
 5636SOL    HW218748  13.611   3.742   6.643
 5637SOL     OW18749   9.704  11.776   8.685
 5637SOL    HW118750   9.658  11.711   8.631
 5637SOL    HW218751   9.690  11.746   8.775
 5638SOL     OW18752   9.263  13.938   9.476
 5638SOL    HW118753   9.318  13.902   9.545
 5638SOL    HW218754   9.251  13.866   9.414
 5639SOL     OW18755   3.567   4.951   3.048
 5639SOL    HW118756   3.606   4.873   3.007
 5639SOL    HW218757   3.480   4.956   3.010
 5640SOL     OW18758   4.522   1.175   4.148
 5640SOL    HW118759   4.580   1.121   4.094
 5640SOL    HW218760   4.523   1.133   4.233
 5641SOL     OW18761   4.239   0.951  11.738
 5641SOL    HW118762   4.150   0.927  11.711
 5641SOL    HW218763   4.262   0.885  11.804
 5642SOL     OW18764   6.113   9.873   7.514
 5642SOL    HW118765   6.192   9.915   7.479
 5642SOL    HW218766   6.101   9.913   7.600
 5643SOL     OW18767  13.793   0.026  13.557
 5643SOL    HW118768  13.794  14.858  13.640
 5643SOL    HW218769  13.708   0.068  13.554
 5644SOL     OW18770   5.798  11.336   4.559
 5644SOL    HW118771   5.753  11.392   4.622
 5644SOL    HW218772   5.874  11.386   4.531
 5645SOL     OW18773  13.633   0.696   3.486
 5645SOL    HW118774  13.642   0.750   3.565
 5645SOL    HW218775  13.548   0.652   3.496
 5646SOL     OW18776  10.641   1.642  11.799
 5646SOL    HW118777  10.621   1.550  11.782
 5646SOL    HW218778  10.686   1.641  11.884
 5647SOL     OW18779   8.959   1.425  14.795
 5647SOL    HW118780   8.985   1.372  14.720
 5647SOL    HW218781   9.027   1.409  14.861
 5648SOL     OW18782   9.674   9.808   3.970
 5648SOL    HW118783   9.653   9.716   3.956
 5648SOL    HW218784   9.729   9.832   3.896
 5649SOL     OW18785  10.741  10.276   1.791
 5649SOL    HW118786  10.687  10.308   1.719
 5649SOL    HW218787  10.682  10.276   1.867
 5650SOL     OW18788  10.454  11.404   5.032
 5650SOL    HW118789  10.394  11.357   5.090
 5650SOL    HW218790  10.476  11.341   4.964
 5651SOL     OW18791   6.921  12.951  14.661
 5651SOL    HW118792   6.954  12.989  14.579
 5651SOL    HW218793   6.830  12.928  14.642
 5652SOL     OW18794  12.543   5.576   4.053
 5652SOL    HW118795  12.533   5.515   3.980
 5652SOL    HW218796  12.456   5.614   4.066
 5653SOL     OW18797  10.423  10.310  12.355
 5653SOL    HW118798  10.423  10.376  12.286
 5653SOL    HW218799  10.465  10.353  12.430
 5654SOL     OW18800   8.271  10.437   4.891
 5654SOL    HW118801   8.263  10.366   4.954
 5654SOL    HW218802   8.237  10.514   4.938
 5655SOL     OW18803   5.472   9.009   5.986
 5655SOL    HW118804   5.500   9.095   6.018
 5655SOL    HW218805   5.397   9.027   5.929
 5656SOL     OW18806   9.936  10.922   7.954
 5656SOL    HW118807   9.992  10.943   7.880
 5656SOL    HW218808   9.861  10.980   7.945
 5657SOL     OW18809   6.340   7.388  11.617
 5657SOL    HW118810   6.407   7.426  11.560
 5657SOL    HW218811   6.360   7.423  11.704
 5658SOL     OW18812   5.667  14.084   6.443
 5658SOL    HW118813   5.632  14.005   6.403
 5658SOL    HW218814   5.720  14.124   6.375
 5659SOL     OW18815   4.777  14.381   7.996
 5659SOL    HW118816   4.866  14.361   7.967
 5659SOL    HW218817   4.751  14.305   8.047
 5660SOL     OW18818  13.519  13.041  14.114
 5660SOL    HW118819  13.530  12.949  14.135
 5660SOL    HW218820  13.580  13.087  14.173
 5661SOL     OW18821   9.557  12.904   4.188
 5661SOL    HW118822   9.497  12.979   4.188
 5661SOL    HW218823   9.547  12.866   4.101
 5662SOL     OW18824   0.232   6.735   3.186
 5662SOL    HW118825   0.266   6.818   3.154
 5662SOL    HW218826   0.304   6.698   3.237
 5663SOL     OW18827  13.046   8.671   9.857
 5663SOL    HW118828  13.104   8.746   9.845
 5663SOL    HW218829  12.979   8.703   9.917
 5664SOL     OW18830   8.223   9.509  12.617
 5664SOL    HW118831   8.206   9.602  12.601
 5664SOL    HW218832   8.182   9.491  12.701
 5665SOL     OW18833   7.835   5.606   3.543
 5665SOL    HW118834   7.877   5.668   3.483
 5665SOL    HW218835   7.839   5.522   3.498
 5666SOL     OW18836   5.814  12.586   2.618
 5666SOL    HW118837   5.773  12.564   2.534
 5666SOL    HW218838   5.821  12.681   2.618
 5667SOL     OW18839  11.312  14.379   5.474
 5667SOL    HW118840  11.381  14.328   5.517
 5667SOL    HW218841  11.343  14.389   5.384
 5668SOL     OW18842   3.510  14.236   8.401
 5668SOL    HW118843   3.456  14.305   8.364
 5668SOL    HW218844   3.600  14.267   8.388
 5669SOL     OW18845   8.856   1.675   0.023
 5669SOL    HW118846   8.886   1.590  14.871
 5669SOL    HW218847   8.804   1.656   0.100
 5670SOL     OW18848  11.704   5.619   3.989
 5670SOL    HW118849  11.712   5.524   3.983
 5670SOL    HW218850  11.791   5.648   4.016
 5671SOL     OW18851   8.610  12.004   2.189
 5671SOL    HW118852   8.692  11.996   2.237
 5671SOL    HW218853   8.559  12.068   2.240
 5672SOL     OW18854   4.001   8.842  10.177
 5672SOL    HW118855   4.014   8.846  10.271
 5672SOL    HW218856   4.089   8.852  10.140
 5673SOL     OW18857  13.521   3.804  11.891
 5673SOL    HW118858  13.440   3.798  11.943
 5673SOL    HW218859  13.573   3.872  11.935
 5674SOL     OW18860   7.521   8.601   7.815
 5674SOL    HW118861   7.605   8.563   7.791
 5674SOL    HW218862   7.499   8.659   7.742
 5675SOL     OW18863   7.678   6.882   0.821
 5675SOL    HW118864   7.734   6.937   0.766
 5675SOL    HW218865   7.736   6.811   0.850
 5676SOL     OW18866   4.902  11.250  11.229
 5676SOL    HW118867   4.817  11.225  11.192
 5676SOL    HW218868   4.959  11.176  11.209
 5677SOL     OW18869  13.097   4.640   5.957
 5677SOL    HW118870  13.095   4.669   6.049
 5677SOL    HW218871  13.186   4.659   5.928
 5678SOL     OW18872   0.998   8.457   1.040
 5678SOL    HW118873   1.087   8.492   1.038
 5678SOL    HW218874   0.997   8.398   1.116
 5679SOL     OW18875   5.065  10.854   4.043
 5679SOL    HW118876   5.067  10.902   4.126
 5679SOL    HW218877   5.008  10.778   4.060
 5680SOL     OW18878   3.128  13.800  10.309
 5680SOL    HW118879   3.136  13.860  10.384
 5680SOL    HW218880   3.196  13.828  10.249
 5681SOL     OW18881   0.880  12.288   8.402
 5681SOL    HW118882   0.790  12.294   8.367
 5681SOL    HW218883   0.868  12.281   8.496
 5682SOL     OW18884  14.499   7.414   6.129
 5682SOL    HW118885  14.585   7.450   6.147
 5682SOL    HW218886  14.515   7.322   6.109
 5683SOL     OW18887  14.520   2.354   2.728
 5683SOL    HW118888  14.551   2.266   2.748
 5683SOL    HW218889  14.495   2.391   2.812
 5684SOL     OW18890   2.275   5.853   1.614
 5684SOL    HW118891   2.266   5.765   1.576
 5684SOL    HW218892   2.359   5.884   1.581
 5685SOL     OW18893   4.714  11.330   2.947
 5685SOL    HW118894   4.742  11.360   3.033
 5685SOL    HW218895   4.651  11.396   2.917
 5686SOL     OW18896   6.842   5.237   0.188
 5686SOL    HW118897   6.885   5.166   0.234
 5686SOL    HW218898   6.913   5.283   0.143
 5687SOL     OW18899  10.414   1.431   5.328
 5687SOL    HW118900  10.325   1.417   5.297
 5687SOL    HW218901  10.458   1.348   5.312
 5688SOL     OW18902  11.252   5.768  14.753
 5688SOL    HW118903  11.200   5.834  14.706
 5688SOL    HW218904  11.211   5.763  14.840
 5689SOL     OW18905  13.172   6.179   0.047
 5689SOL    HW118906  13.143   6.088   0.054
 5689SOL    HW218907  13.260   6.174   0.009
 5690SOL     OW18908  11.773   9.421  12.556
 5690SOL    HW118909  11.830   9.496  12.570
 5690SOL    HW218910  11.823   9.346  12.590
 5691SOL     OW18911   9.711  10.443   1.874
 5691SOL    HW118912   9.622  10.431   1.908
 5691SOL    HW218913   9.768  10.402   1.939
 5692SOL     OW18914   0.664   9.363  12.739
 5692SOL    HW118915   0.710   9.447  12.738
 5692SOL    HW218916   0.589   9.377  12.797
 5693SOL     OW18917  10.560   4.824  11.941
 5693SOL    HW118918  10.625   4.890  11.917
 5693SOL    HW218919  10.498   4.871  11.997
 5694SOL     OW18920   0.676  14.077   7.738
 5694SOL    HW118921   0.662  14.006   7.676
 5694SOL    HW218922   0.589  14.111   7.756
 5695SOL     OW18923   4.494   3.082   7.044
 5695SOL    HW118924   4.583   3.116   7.058
 5695SOL    HW218925   4.437   3.149   7.083
 5696SOL     OW18926  11.150   2.820   6.771
 5696SOL    HW118927  11.057   2.804   6.786
 5696SOL    HW218928  11.155   2.912   6.747
 5697SOL     OW18929   7.317   4.726  14.686
 5697SOL    HW118930   7.354   4.786  14.751
 5697SOL    HW218931   7.349   4.759  14.602
 5698SOL     OW18932   5.561   8.455   5.858
 5698SOL    HW118933   5.571   8.375   5.910
 5698SOL    HW218934   5.650   8.490   5.852
 5699SOL     OW18935   2.730  13.150  11.739
 5699SOL    HW118936   2.732  13.109  11.826
 5699SOL    HW218937   2.755  13.080  11.679
 5700SOL     OW18938  10.088   6.564   6.107
 5700SOL    HW118939  10.180   6.549   6.083
 5700SOL    HW218940  10.044   6.579   6.024
 5701SOL     OW18941  10.273   6.765   0.416
 5701SOL    HW118942  10.322   6.687   0.441
 5701SOL    HW218943  10.182   6.743   0.435
 5702SOL     OW18944   6.986   3.032   0.307
 5702SOL    HW118945   6.916   3.069   0.253
 5702SOL    HW218946   6.962   3.055   0.396
 5703SOL     OW18947  13.673  13.548   3.184
 5703SOL    HW118948  13.666  13.453   3.198
 5703SOL    HW218949  13.763  13.561   3.153
 5704SOL     OW18950  12.794  13.826  14.209
 5704SOL    HW118951  12.788  13.733  14.184
 5704SOL    HW218952  12.873  13.858  14.165
 5705SOL     OW18953  12.623  12.114   9.654
 5705SOL    HW118954  12.571  12.193   9.649
 5705SOL    HW218955  12.599  12.075   9.738
 5706SOL     OW18956   2.573   7.465   0.372
 5706SOL    HW118957   2.616   7.461   0.286
 5706SOL    HW218958   2.569   7.558   0.393
 5707SOL     OW18959   0.820   2.764   5.589
 5707SOL    HW118960   0.817   2.837   5.651
 5707SOL    HW218961   0.900   2.716   5.613
 5708SOL     OW18962   2.383   2.444  13.688
 5708SOL    HW118963   2.308   2.409  13.737
 5708SOL    HW218964   2.453   2.381  13.705
 5709SOL     OW18965   7.597  12.496  10.866
 5709SOL    HW118966   7.567  12.422  10.919
 5709SOL    HW218967   7.615  12.458  10.780
 5710SOL     OW18968  14.688   3.685   7.887
 5710SOL    HW118969  14.696   3.780   7.877
 5710SOL    HW218970  14.627   3.674   7.960
 5711SOL     OW18971   5.040  11.385   4.149
 5711SOL    HW118972   5.131  11.355   4.152
 5711SOL    HW218973   5.002  11.357   4.233
 5712SOL     OW18974  12.004   8.299   0.360
 5712SOL    HW118975  12.000   8.203   0.355
 5712SOL    HW218976  11.915   8.325   0.386
 5713SOL     OW18977   8.978   8.645   1.720
 5713SOL    HW118978   8.903   8.632   1.662
 5713SOL    HW218979   9.055   8.635   1.663
 5714SOL     OW18980   1.868  11.327  12.212
 5714SOL    HW118981   1.864  11.310  12.117
 5714SOL    HW218982   1.961  11.341  12.229
 5715SOL     OW18983  11.454   2.463   8.680
 5715SOL    HW118984  11.410   2.415   8.750
 5715SOL    HW218985  11.542   2.425   8.678
 5716SOL     OW18986   5.570  11.047   4.131
 5716SOL    HW118987   5.610  11.096   4.203
 5716SOL    HW218988   5.477  11.066   4.138
 5717SOL     OW18989   0.544  13.806   9.570
 5717SOL    HW118990   0.502  13.730   9.610
 5717SOL    HW218991   0.473  13.867   9.554
 5718SOL     OW18992   0.408  12.350   5.759
 5718SOL    HW118993   0.320  12.355   5.795
 5718SOL    HW218994   0.452  12.429   5.791
 5719SOL     OW18995   0.313   5.025  13.777
 5719SOL    HW118996   0.290   4.989  13.692
 5719SOL    HW218997   0.356   4.952  13.823
 5720SOL     OW18998   3.800  13.670   0.689
 5720SOL    HW118999   3.764  13.582   0.676
 5720SOL    HW219000   3.893  13.657   0.705
 5721SOL     OW19001  11.563   5.139   2.730
 5721SOL    HW119002  11.541   5.158   2.822
 5721SOL    HW219003  11.659   5.144   2.727
 5722SOL     OW19004  12.455   5.411   0.987
 5722SOL    HW119005  12.365   5.441   1.000
 5722SOL    HW219006  12.448   5.317   0.974
 5723SOL     OW19007   4.996   7.194   7.178
 5723SOL    HW119008   4.937   7.218   7.107
 5723SOL    HW219009   4.991   7.268   7.239
 5724SOL     OW19010   6.436   4.265  10.724
 5724SOL    HW119011   6.398   4.337  10.774
 5724SOL    HW219012   6.367   4.198  10.722
 5725SOL     OW19013   2.414  11.907  11.332
 5725SOL    HW119014   2.396  11.981  11.274
 5725SOL    HW219015   2.471  11.849  11.280
 5726SOL     OW19016   4.528   8.597  10.618
 5726SOL    HW119017   4.520   8.541  10.541
 5726SOL    HW219018   4.468   8.670  10.600
 5727SOL     OW19019   5.779  12.053   3.667
 5727SOL    HW119020   5.764  11.963   3.636
 5727SOL    HW219021   5.777  12.046   3.762
 5728SOL     OW19022   2.841   7.072   2.928
 5728SOL    HW119023   2.884   6.987   2.921
 5728SOL    HW219024   2.864   7.117   2.846
 5729SOL     OW19025   7.176  13.001   5.352
 5729SOL    HW119026   7.142  12.978   5.265
 5729SOL    HW219027   7.130  12.943   5.412
 5730SOL     OW19028  11.315  10.655   3.042
 5730SOL    HW119029  11.260  10.716   2.993
 5730SOL    HW219030  11.362  10.606   2.974
 5731SOL     OW19031   0.102   3.923   7.715
 5731SOL    HW119032   0.115   3.931   7.620
 5731SOL    HW219033   0.141   3.838   7.737
 5732SOL     OW19034  10.381   5.898   6.528
 5732SOL    HW119035  10.296   5.856   6.535
 5732SOL    HW219036  10.373   5.959   6.455
 5733SOL     OW19037  12.878  11.807   9.771
 5733SOL    HW119038  12.785  11.782   9.766
 5733SOL    HW219039  12.921  11.752   9.705
 5734SOL     OW19040   5.710   6.441   3.480
 5734SOL    HW119041   5.757   6.371   3.435
 5734SOL    HW219042   5.753   6.522   3.450
 5735SOL     OW19043  10.270   0.073  14.757
 5735SOL    HW119044  10.289   0.146  14.698
 5735SOL    HW219045  10.286  14.874  14.705
 5736SOL     OW19046  13.885   6.803  14.612
 5736SOL    HW119047  13.929   6.738  14.558
 5736SOL    HW219048  13.953   6.866  14.634
 5737SOL     OW19049  13.500  11.820   5.936
 5737SOL    HW119050  13.407  11.836   5.955
 5737SOL    HW219051  13.513  11.728   5.956
 5738SOL     OW19052  14.360   3.595   2.381
 5738SOL    HW119053  14.414   3.674   2.382
 5738SOL    HW219054  14.423   3.522   2.384
 5739SOL     OW19055   0.241  10.583   1.126
 5739SOL    HW119056   0.312  10.647   1.137
 5739SOL    HW219057   0.238  10.536   1.209
 5740SOL     OW19058   4.408   7.225   3.359
 5740SOL    HW119059   4.465   7.162   3.315
 5740SOL    HW219060   4.467   7.296   3.385
 5741SOL     OW19061  11.574   3.276   6.674
 5741SOL    HW119062  11.562   3.363   6.636
 5741SOL    HW219063  11.558   3.288   6.768
 5742SOL     OW19064   6.422   3.525   0.368
 5742SOL    HW119065   6.491   3.478   0.323
 5742SOL    HW219066   6.401   3.598   0.309
 5743SOL     OW19067   0.329  13.358  10.748
 5743SOL    HW119068   0.381  13.279  10.736
 5743SOL    HW219069   0.331  13.401  10.663
 5744SOL     OW19070  12.698   2.382   4.494
 5744SOL    HW119071  12.684   2.353   4.404
 5744SOL    HW219072  12.611   2.380   4.534
 5745SOL     OW19073  10.193  13.039  10.036
 5745SOL    HW119074  10.213  13.027  10.128
 5745SOL    HW219075  10.127  12.973  10.016
 5746SOL     OW19076  11.485  11.621  10.623
 5746SOL    HW119077  11.540  11.684  10.576
 5746SOL    HW219078  11.477  11.658  10.712
 5747SOL     OW19079   9.417   1.506   8.473
 5747SOL    HW119080   9.346   1.449   8.504
 5747SOL    HW219081   9.373   1.571   8.419
 5748SOL     OW19082   4.258   6.689  13.087
 5748SOL    HW119083   4.201   6.614  13.104
 5748SOL    HW219084   4.259   6.698  12.992
 5749SOL     OW19085   1.761  10.008   0.133
 5749SOL    HW119086   1.685   9.980   0.184
 5749SOL    HW219087   1.777  10.098   0.161
 5750SOL     OW19088   2.241   3.428  13.850
 5750SOL    HW119089   2.273   3.355  13.797
 5750SOL    HW219090   2.265   3.506  13.802
 5751SOL     OW19091   6.366  12.017  10.280
 5751SOL    HW119092   6.409  11.975  10.354
 5751SOL    HW219093   6.385  12.110  10.289
 5752SOL     OW19094   3.551  11.558  10.244
 5752SOL    HW119095   3.600  11.630  10.282
 5752SOL    HW219096   3.617  11.491  10.226
 5753SOL     OW19097  12.496  12.358   2.298
 5753SOL    HW119098  12.512  12.429   2.361
 5753SOL    HW219099  12.571  12.361   2.238
 5754SOL     OW19100   7.224  13.711   5.984
 5754SOL    HW119101   7.217  13.668   5.899
 5754SOL    HW219102   7.318  13.715   6.001
 5755SOL     OW19103   4.982  11.838   5.299
 5755SOL    HW119104   4.907  11.889   5.329
 5755SOL    HW219105   5.017  11.888   5.225
 5756SOL     OW19106   7.115  14.858   3.652
 5756SOL    HW119107   7.198   0.026   3.658
 5756SOL    HW219108   7.051   0.036   3.695
 5757SOL     OW19109   4.284   0.758   2.020
 5757SOL    HW119110   4.239   0.675   2.003
 5757SOL    HW219111   4.306   0.754   2.113
 5758SOL     OW19112   0.283   0.111   5.499
 5758SOL    HW119113   0.317   0.022   5.512
 5758SOL    HW219114   0.283   0.149   5.586
 5759SOL     OW19115  11.473   8.761   7.950
 5759SOL    HW119116  11.540   8.730   8.010
 5759SOL    HW219117  11.467   8.693   7.882
 5760SOL     OW19118  12.783   0.013   3.186
 5760SOL    HW119119  12.861   0.069   3.186
 5760SOL    HW219120  12.733   0.042   3.262
 5761SOL     OW19121   2.641   0.835   3.985
 5761SOL    HW119122   2.579   0.905   4.007
 5761SOL    HW219123   2.726   0.869   4.011
 5762SOL     OW19124   5.008  13.926  14.271
 5762SOL    HW119125   5.008  13.951  14.364
 5762SOL    HW219126   5.021  14.009  14.224
 5763SOL     OW19127  14.715  11.940  14.486
 5763SOL    HW119128  14.681  11.944  14.575
 5763SOL    HW219129  14.796  11.889  14.493
 5764SOL     OW19130   7.994   4.474   0.645
 5764SOL    HW119131   7.917   4.527   0.662
 5764SOL    HW219132   8.051   4.490   0.720
 5765SOL     OW19133  14.391   0.185   7.153
 5765SOL    HW119134  14.326   0.255   7.152
 5765SOL    HW219135  14.475   0.232   7.153
 5766SOL     OW19136   2.001  12.062   0.670
 5766SOL    HW119137   1.999  12.126   0.599
 5766SOL    HW219138   2.076  12.006   0.649
 5767SOL     OW19139   3.051  14.270   7.846
 5767SOL    HW119140   3.002  14.230   7.918
 5767SOL    HW219141   3.089  14.197   7.799
 5768SOL     OW19142   0.234   8.897   9.763
 5768SOL    HW119143   0.304   8.944   9.807
 5768SOL    HW219144   0.160   8.902   9.823
 5769SOL     OW19145   9.356   3.630  10.349
 5769SOL    HW119146   9.385   3.538  10.356
 5769SOL    HW219147   9.387   3.671  10.430
 5770SOL     OW19148   2.969   2.238   7.315
 5770SOL    HW119149   2.925   2.314   7.354
 5770SOL    HW219150   3.026   2.276   7.248
 5771SOL     OW19151   0.087   6.778  12.348
 5771SOL    HW119152   0.129   6.712  12.292
 5771SOL    HW219153   0.135   6.859  12.328
 5772SOL     OW19154  10.277   8.393   8.547
 5772SOL    HW119155  10.363   8.435   8.555
 5772SOL    HW219156  10.264   8.383   8.453
 5773SOL     OW19157  12.137  12.997   8.236
 5773SOL    HW119158  12.140  12.988   8.141
 5773SOL    HW219159  12.198  13.068   8.256
 5774SOL     OW19160  12.988   3.139  11.564
 5774SOL    HW119161  12.999   3.104  11.652
 5774SOL    HW219162  12.971   3.062  11.509
 5775SOL     OW19163   6.861   6.579  10.248
 5775SOL    HW119164   6.800   6.519  10.206
 5775SOL    HW219165   6.937   6.524  10.270
 5776SOL     OW19166  11.458   9.934   2.988
 5776SOL    HW119167  11.412   9.896   2.913
 5776SOL    HW219168  11.513  10.002   2.949
 5777SOL     OW19169  14.230   3.702   0.177
 5777SOL    HW119170  14.270   3.619   0.204
 5777SOL    HW219171  14.137   3.681   0.167
 5778SOL     OW19172   3.564   5.637   6.251
 5778SOL    HW119173   3.640   5.591   6.286
 5778SOL    HW219174   3.595   5.726   6.234
 5779SOL     OW19175   3.304   9.779  12.042
 5779SOL    HW119176   3.303   9.791  12.137
 5779SOL    HW219177   3.242   9.708  12.026
 5780SOL     OW19178   6.692   1.937   2.954
 5780SOL    HW119179   6.689   1.891   2.870
 5780SOL    HW219180   6.699   2.029   2.930
 5781SOL     OW19181   7.606  10.974  10.578
 5781SOL    HW119182   7.673  11.039  10.557
 5781SOL    HW219183   7.645  10.920  10.647
 5782SOL     OW19184  11.869   9.642  10.093
 5782SOL    HW119185  11.889   9.554  10.124
 5782SOL    HW219186  11.780   9.659  10.125
 5783SOL     OW19187   8.875   3.205  10.967
 5783SOL    HW119188   8.781   3.222  10.965
 5783SOL    HW219189   8.888   3.131  10.908
 5784SOL     OW19190  14.795   7.053  14.449
 5784SOL    HW119191  14.802   7.105  14.369
 5784SOL    HW219192  14.770   7.117  14.516
 5785SOL     OW19193   0.519   6.767   0.325
 5785SOL    HW119194   0.613   6.780   0.341
 5785SOL    HW219195   0.476   6.834   0.379
 5786SOL     OW19196   7.401   9.261   7.544
 5786SOL    HW119197   7.427   9.333   7.602
 5786SOL    HW219198   7.419   9.294   7.456
 5787SOL     OW19199  10.976  14.089  13.932
 5787SOL    HW119200  10.920  14.126  13.863
 5787SOL    HW219201  11.058  14.068  13.886
 5788SOL     OW19202   4.837  10.170   6.093
 5788SOL    HW119203   4.785  10.098   6.128
 5788SOL    HW219204   4.900  10.190   6.161
 5789SOL     OW19205   8.896  12.747  11.488
 5789SOL    HW119206   8.908  12.834  11.524
 5789SOL    HW219207   8.854  12.761  11.403
 5790SOL     OW19208  11.946   9.131  12.615
 5790SOL    HW119209  11.984   9.043  12.612
 5790SOL    HW219210  11.875   9.128  12.551
 5791SOL     OW19211   4.135   9.949  14.353
 5791SOL    HW119212   4.072  10.018  14.329
 5791SOL    HW219213   4.158   9.907  14.271
 5792SOL     OW19214   3.375   3.727   9.239
 5792SOL    HW119215   3.463   3.708   9.207
 5792SOL    HW219216   3.386   3.805   9.293
 5793SOL     OW19217  11.857  14.712   3.043
 5793SOL    HW119218  11.795  14.640   3.048
 5793SOL    HW219219  11.830  14.772   3.112
 5794SOL     OW19220  11.602   7.912  10.214
 5794SOL    HW119221  11.531   7.968  10.247
 5794SOL    HW219222  11.682   7.953  10.247
 5795SOL     OW19223   2.902  14.116  13.922
 5795SOL    HW119224   2.825  14.173  13.924
 5795SOL    HW219225   2.938  14.121  14.010
 5796SOL     OW19226  13.479   0.023   3.795
 5796SOL    HW119227  13.421   0.099   3.795
 5796SOL    HW219228  13.523   0.025   3.710
 5797SOL     OW19229  13.855   2.479  12.449
 5797SOL    HW119230  13.837   2.413  12.382
 5797SOL    HW219231  13.937   2.449  12.490
 5798SOL     OW19232  14.569   9.830   1.310
 5798SOL    HW119233  14.611   9.849   1.226
 5798SOL    HW219234  14.607   9.895   1.370
 5799SOL     OW19235  12.179   1.958   9.418
 5799SOL    HW119236  12.192   2.047   9.386
 5799SOL    HW219237  12.268   1.922   9.426
 5800SOL     OW19238   7.075   4.012  12.324
 5800SOL    HW119239   7.123   3.950  12.377
 5800SOL    HW219240   7.089   4.097  12.367
 5801SOL     OW19241  10.641   2.343   3.260
 5801SOL    HW119242  10.731   2.349   3.290
 5801SOL    HW219243  10.599   2.284   3.323
 5802SOL     OW19244  11.711   6.666   1.446
 5802SOL    HW119245  11.670   6.580   1.454
 5802SOL    HW219246  11.698   6.707   1.532
 5803SOL     OW19247   8.319   0.893   5.370
 5803SOL    HW119248   8.256   0.929   5.308
 5803SOL    HW219249   8.307   0.945   5.449
 5804SOL     OW19250   3.208   5.647  11.469
 5804SOL    HW119251   3.215   5.606  11.555
 5804SOL    HW219252   3.296   5.638  11.431
 5805SOL     OW19253   9.286   3.954   9.734
 5805SOL    HW119254   9.208   3.919   9.691
 5805SOL    HW219255   9.296   4.043   9.699
 5806SOL     OW19256   9.347   3.911   2.808
 5806SOL    HW119257   9.268   3.863   2.832
 5806SOL    HW219258   9.367   3.883   2.719
 5807SOL     OW19259  13.078   2.321   8.632
 5807SOL    HW119260  13.143   2.377   8.675
 5807SOL    HW219261  13.130   2.253   8.589
 5808SOL     OW19262  13.839   5.519   6.692
 5808SOL    HW119263  13.838   5.536   6.598
 5808SOL    HW219264  13.925   5.550   6.721
 5809SOL     OW19265   2.814  13.366  10.650
 5809SOL    HW119266   2.757  13.434  10.684
 5809SOL    HW219267   2.788  13.287  10.698
 5810SOL     OW19268   2.810   0.028   6.434
 5810SOL    HW119269   2.872  14.835   6.422
 5810SOL    HW219270   2.773   0.042   6.346
 5811SOL     OW19271   2.263   1.214  13.661
 5811SOL    HW119272   2.301   1.127  13.666
 5811SOL    HW219273   2.326   1.264  13.609
 5812SOL     OW19274   1.987   7.421   0.748
 5812SOL    HW119275   1.919   7.421   0.681
 5812SOL    HW219276   1.940   7.408   0.830
 5813SOL     OW19277   6.079   1.691   8.383
 5813SOL    HW119278   6.096   1.784   8.397
 5813SOL    HW219279   6.087   1.679   8.288
 5814SOL     OW19280   3.445  12.636  14.194
 5814SOL    HW119281   3.380  12.633  14.264
 5814SOL    HW219282   3.478  12.726  14.195
 5815SOL     OW19283  11.961   2.740   3.285
 5815SOL    HW119284  11.925   2.668   3.232
 5815SOL    HW219285  12.035   2.772   3.233
 5816SOL     OW19286   8.638   4.726   5.619
 5816SOL    HW119287   8.543   4.742   5.617
 5816SOL    HW219288   8.651   4.649   5.563
 5817SOL     OW19289  12.807   8.676   7.235
 5817SOL    HW119290  12.888   8.625   7.226
 5817SOL    HW219291  12.836   8.767   7.233
 5818SOL     OW19292  13.944   0.755  13.243
 5818SOL    HW119293  13.899   0.772  13.160
 5818SOL    HW219294  13.962   0.661  13.242
 5819SOL     OW19295  12.105  14.438   1.385
 5819SOL    HW119296  12.151  14.441   1.302
 5819SOL    HW219297  12.101  14.529   1.415
 5820SOL     OW19298   3.898   8.063  10.012
 5820SOL    HW119299   3.956   8.027   9.945
 5820SOL    HW219300   3.811   8.063   9.971
 5821SOL     OW19301  13.608   2.804   0.983
 5821SOL    HW119302  13.558   2.782   0.904
 5821SOL    HW219303  13.541   2.827   1.048
 5822SOL     OW19304   4.317   2.547   1.247
 5822SOL    HW119305   4.281   2.504   1.170
 5822SOL    HW219306   4.315   2.640   1.225
 5823SOL     OW19307   9.198  11.770   6.113
 5823SOL    HW119308   9.121  11.819   6.143
 5823SOL    HW219309   9.227  11.818   6.035
 5824SOL     OW19310   1.708  12.477  12.758
 5824SOL    HW119311   1.803  12.484  12.770
 5824SOL    HW219312   1.673  12.475  12.847
 5825SOL     OW19313   9.177  10.677  12.822
 5825SOL    HW119314   9.150  10.643  12.907
 5825SOL    HW219315   9.156  10.770  12.826
 5826SOL     OW19316   0.137   0.275   6.726
 5826SOL    HW119317   0.156   0.231   6.643
 5826SOL    HW219318   0.151   0.207   6.792
 5827SOL     OW19319  14.182  10.165   2.226
 5827SOL    HW119320  14.257  10.106   2.222
 5827SOL    HW219321  14.218  10.251   2.203
 5828SOL     OW19322  11.302   5.958  13.236
 5828SOL    HW119323  11.342   5.881  13.194
 5828SOL    HW219324  11.272   6.012  13.164
 5829SOL     OW19325   2.794   5.737   4.615
 5829SOL    HW119326   2.870   5.681   4.629
 5829SOL    HW219327   2.803   5.806   4.681
 5830SOL     OW19328   5.015   9.808  11.569
 5830SOL    HW119329   5.060   9.890  11.549
 5830SOL    HW219330   4.959   9.829  11.643
 5831SOL     OW19331   1.572   5.153   7.186
 5831SOL    HW119332   1.637   5.162   7.256
 5831SOL    HW219333   1.506   5.095   7.222
 5832SOL     OW19334   5.841  10.982   9.489
 5832SOL    HW119335   5.766  10.939   9.449
 5832SOL    HW219336   5.876  11.039   9.420
 5833SOL     OW19337   1.925   8.957   0.767
 5833SOL    HW119338   1.891   8.868   0.760
 5833SOL    HW219339   1.976   8.970   0.686
 5834SOL     OW19340   8.810   9.521  10.307
 5834SOL    HW119341   8.784   9.543  10.396
 5834SOL    HW219342   8.733   9.541  10.253
 5835SOL     OW19343  12.249   0.760   5.759
 5835SOL    HW119344  12.282   0.801   5.678
 5835SOL    HW219345  12.316   0.778   5.824
 5836SOL     OW19346   5.160  10.212   2.480
 5836SOL    HW119347   5.092  10.269   2.517
 5836SOL    HW219348   5.214  10.271   2.427
 5837SOL     OW19349   3.248   0.662  14.563
 5837SOL    HW119350   3.267   0.653  14.470
 5837SOL    HW219351   3.180   0.597  14.580
 5838SOL     OW19352  11.750   8.499   6.310
 5838SOL    HW119353  11.807   8.523   6.383
 5838SOL    HW219354  11.798   8.432   6.262
 5839SOL     OW19355  14.652   4.188   9.271
 5839SOL    HW119356  14.645   4.192   9.367
 5839SOL    HW219357  14.673   4.277   9.245
 5840SOL     OW19358   7.509  13.197   9.115
 5840SOL    HW119359   7.585  13.253   9.135
 5840SOL    HW219360   7.537  13.109   9.142
 5841SOL     OW19361  12.782   0.328   6.941
 5841SOL    HW119362  12.856   0.269   6.960
 5841SOL    HW219363  12.777   0.329   6.846
 5842SOL     OW19364  11.626   2.227  12.468
 5842SOL    HW119365  11.562   2.177  12.518
 5842SOL    HW219366  11.625   2.188  12.381
 5843SOL     OW19367   6.411   5.973   6.271
 5843SOL    HW119368   6.452   5.886   6.271
 5843SOL    HW219369   6.400   5.995   6.363
 5844SOL     OW19370   0.805   4.438   0.022
 5844SOL    HW119371   0.883   4.460  14.850
 5844SOL    HW219372   0.738   4.499  14.871
 5845SOL     OW19373  11.151   4.565   4.549
 5845SOL    HW119374  11.169   4.585   4.641
 5845SOL    HW219375  11.231   4.522   4.518
 5846SOL     OW19376  12.665   6.496  10.909
 5846SOL    HW119377  12.685   6.547  10.987
 5846SOL    HW219378  12.570   6.502  10.900
 5847SOL     OW19379   0.559  11.609   5.017
 5847SOL    HW119380   0.474  11.580   5.049
 5847SOL    HW219381   0.619  11.592   5.089
 5848SOL     OW19382   2.779   4.915   2.519
 5848SOL    HW119383   2.736   4.991   2.479
 5848SOL    HW219384   2.766   4.844   2.455
 5849SOL     OW19385   9.668   3.269   8.097
 5849SOL    HW119386   9.590   3.323   8.110
 5849SOL    HW219387   9.734   3.308   8.154
 5850SOL     OW19388   2.218   3.131   1.004
 5850SOL    HW119389   2.307   3.126   0.969
 5850SOL    HW219390   2.187   3.218   0.978
 5851SOL     OW19391  14.429   9.568   6.963
 5851SOL    HW119392  14.471   9.540   6.882
 5851SOL    HW219393  14.501   9.582   7.025
 5852SOL     OW19394   1.235   8.524  10.766
 5852SOL    HW119395   1.238   8.428  10.769
 5852SOL    HW219396   1.264   8.546  10.678
 5853SOL     OW19397  10.509   2.396   5.073
 5853SOL    HW119398  10.536   2.449   5.148
 5853SOL    HW219399  10.577   2.329   5.065
 5854SOL     OW19400   4.786   9.109   5.440
 5854SOL    HW119401   4.740   9.025   5.447
 5854SOL    HW219402   4.717   9.173   5.424
 5855SOL     OW19403  13.068  14.665   4.483
 5855SOL    HW119404  13.058  14.599   4.415
 5855SOL    HW219405  13.117  14.621   4.552
 5856SOL     OW19406   8.264   2.254  10.150
 5856SOL    HW119407   8.211   2.198  10.207
 5856SOL    HW219408   8.216   2.254  10.067
 5857SOL     OW19409   2.283   0.007  14.428
 5857SOL    HW119410   2.218   0.077  14.417
 5857SOL    HW219411   2.289  14.874  14.523
 5858SOL     OW19412   5.523  12.111   9.392
 5858SOL    HW119413   5.436  12.075   9.408
 5858SOL    HW219414   5.525  12.192   9.443
 5859SOL     OW19415   8.594   3.230   8.643
 5859SOL    HW119416   8.639   3.145   8.640
 5859SOL    HW219417   8.551   3.231   8.728
 5860SOL     OW19418   0.243  13.024   4.907
 5860SOL    HW119419   0.262  12.973   4.986
 5860SOL    HW219420   0.166  13.076   4.930
 5861SOL     OW19421  13.231  10.836   3.079
 5861SOL    HW119422  13.269  10.868   3.162
 5861SOL    HW219423  13.188  10.754   3.103
 5862SOL     OW19424   5.443   8.881  11.814
 5862SOL    HW119425   5.517   8.925  11.855
 5862SOL    HW219426   5.433   8.800  11.864
 5863SOL     OW19427   5.476   9.489   0.254
 5863SOL    HW119428   5.445   9.475   0.165
 5863SOL    HW219429   5.571   9.488   0.248
 5864SOL     OW19430   3.064   3.069   3.398
 5864SOL    HW119431   3.028   3.147   3.442
 5864SOL    HW219432   3.137   3.102   3.346
 5865SOL     OW19433   3.388   3.674   1.461
 5865SOL    HW119434   3.367   3.582   1.476
 5865SOL    HW219435   3.317   3.707   1.406
 5866SOL     OW19436   5.177   0.096  11.830
 5866SOL    HW119437   5.152   0.098  11.923
 5866SOL    HW219438   5.102   0.134  11.785
 5867SOL     OW19439   7.027  10.063  14.457
 5867SOL    HW119440   7.065   9.984  14.419
 5867SOL    HW219441   6.939  10.037  14.485
 5868SOL     OW19442   6.617  10.446   2.421
 5868SOL    HW119443   6.610  10.354   2.448
 5868SOL    HW219444   6.560  10.493   2.481
 5869SOL     OW19445  13.603   4.391  10.801
 5869SOL    HW119446  13.615   4.341  10.881
 5869SOL    HW219447  13.644   4.337  10.733
 5870SOL     OW19448   9.078  10.139  13.543
 5870SOL    HW119449   9.003  10.091  13.508
 5870SOL    HW219450   9.078  10.119  13.637
 5871SOL     OW19451   7.220   6.180  14.530
 5871SOL    HW119452   7.166   6.258  14.541
 5871SOL    HW219453   7.163   6.108  14.556
 5872SOL     OW19454   2.523  10.670   0.029
 5872SOL    HW119455   2.600  10.637  14.863
 5872SOL    HW219456   2.451  10.616  14.876
 5873SOL     OW19457   1.472  10.597   8.407
 5873SOL    HW119458   1.416  10.675   8.400
 5873SOL    HW219459   1.414  10.524   8.385
 5874SOL     OW19460   9.950   2.132   4.116
 5874SOL    HW119461   9.947   2.222   4.085
 5874SOL    HW219462   9.881   2.126   4.182
 5875SOL     OW19463   1.312   2.321  10.427
 5875SOL    HW119464   1.317   2.248  10.366
 5875SOL    HW219465   1.282   2.282  10.509
 5876SOL     OW19466   4.709  12.992   1.101
 5876SOL    HW119467   4.626  13.001   1.148
 5876SOL    HW219468   4.724  12.897   1.097
 5877SOL     OW19469   7.721   1.891   6.250
 5877SOL    HW119470   7.814   1.905   6.268
 5877SOL    HW219471   7.691   1.972   6.208
 5878SOL     OW19472   3.964   3.777  14.379
 5878SOL    HW119473   3.974   3.809  14.289
 5878SOL    HW219474   3.889   3.827  14.413
 5879SOL     OW19475   5.054   3.549   9.943
 5879SOL    HW119476   5.107   3.507   9.876
 5879SOL    HW219477   5.106   3.542  10.023
 5880SOL     OW19478   7.736  10.462   6.728
 5880SOL    HW119479   7.653  10.420   6.751
 5880SOL    HW219480   7.740  10.456   6.632
 5881SOL     OW19481   8.882  13.583  10.636
 5881SOL    HW119482   8.922  13.670  10.640
 5881SOL    HW219483   8.916  13.538  10.713
 5882SOL     OW19484  11.772   2.129   5.782
 5882SOL    HW119485  11.765   2.192   5.710
 5882SOL    HW219486  11.850   2.078   5.761
 5883SOL     OW19487  14.091   1.628   0.501
 5883SOL    HW119488  14.144   1.657   0.426
 5883SOL    HW219489  14.024   1.696   0.510
 5884SOL     OW19490  14.470   0.883   6.515
 5884SOL    HW119491  14.504   0.943   6.448
 5884SOL    HW219492  14.524   0.900   6.592
 5885SOL     OW19493   4.372  10.732   3.220
 5885SOL    HW119494   4.322  10.651   3.212
 5885SOL    HW219495   4.430  10.717   3.294
 5886SOL     OW19496  13.566   1.670  12.760
 5886SOL    HW119497  13.590   1.628  12.677
 5886SOL    HW219498  13.480   1.709  12.743
 5887SOL     OW19499   5.607  13.492   4.662
 5887SOL    HW119500   5.695  13.507   4.626
 5887SOL    HW219501   5.549  13.541   4.604
 5888SOL     OW19502  13.253   1.166  10.513
 5888SOL    HW119503  13.264   1.252  10.471
 5888SOL    HW219504  13.324   1.163  10.578
 5889SOL     OW19505  10.156  13.169   8.176
 5889SOL    HW119506  10.246  13.202   8.176
 5889SOL    HW219507  10.160  13.089   8.123
 5890SOL     OW19508   1.265   5.035   0.455
 5890SOL    HW119509   1.311   5.021   0.538
 5890SOL    HW219510   1.309   5.110   0.415
 5891SOL     OW19511  14.471   4.033   1.844
 5891SOL    HW119512  14.456   3.950   1.890
 5891SOL    HW219513  14.385   4.075   1.844
 5892SOL     OW19514  13.768   8.230   2.649
 5892SOL    HW119515  13.680   8.193   2.636
 5892SOL    HW219516  13.815   8.208   2.568
 5893SOL     OW19517   1.428   6.882   3.741
 5893SOL    HW119518   1.422   6.941   3.666
 5893SOL    HW219519   1.365   6.918   3.804
 5894SOL     OW19520  11.731  14.744   1.777
 5894SOL    HW119521  11.816  14.787   1.762
 5894SOL    HW219522  11.730  14.672   1.714
 5895SOL     OW19523  12.069   7.565   1.732
 5895SOL    HW119524  12.153   7.610   1.717
 5895SOL    HW219525  12.093   7.482   1.772
 5896SOL     OW19526   2.512   2.865   7.437
 5896SOL    HW119527   2.569   2.791   7.419
 5896SOL    HW219528   2.474   2.845   7.524
 5897SOL     OW19529  12.856   2.129  13.359
 5897SOL    HW119530  12.832   2.109  13.450
 5897SOL    HW219531  12.816   2.215  13.343
 5898SOL     OW19532   7.356  11.712   2.900
 5898SOL    HW119533   7.432  11.759   2.866
 5898SOL    HW219534   7.387  11.672   2.982
 5899SOL     OW19535  14.720  10.018  12.424
 5899SOL    HW119536  14.690   9.936  12.386
 5899SOL    HW219537  14.813  10.021  12.406
 5900SOL     OW19538  13.759   5.672   3.951
 5900SOL    HW119539  13.850   5.685   3.925
 5900SOL    HW219540  13.709   5.682   3.870
 5901SOL     OW19541  12.088   2.225   9.094
 5901SOL    HW119542  12.114   2.266   9.011
 5901SOL    HW219543  12.154   2.253   9.157
 5902SOL     OW19544  12.638   9.776  11.209
 5902SOL    HW119545  12.612   9.800  11.120
 5902SOL    HW219546  12.556   9.757  11.254
 5903SOL     OW19547   7.399   1.645   1.781
 5903SOL    HW119548   7.454   1.600   1.717
 5903SOL    HW219549   7.428   1.736   1.778
 5904SOL     OW19550  12.118   5.485   9.691
 5904SOL    HW119551  12.186   5.419   9.681
 5904SOL    HW219552  12.164   5.568   9.684
 5905SOL     OW19553   8.472  13.287   2.903
 5905SOL    HW119554   8.493  13.380   2.913
 5905SOL    HW219555   8.497  13.266   2.813
 5906SOL     OW19556   2.665  13.747   4.115
 5906SOL    HW119557   2.730  13.774   4.181
 5906SOL    HW219558   2.681  13.804   4.041
 5907SOL     OW19559   8.126   9.902  10.938
 5907SOL    HW119560   8.085   9.839  10.997
 5907SOL    HW219561   8.091   9.881  10.851
 5908SOL     OW19562   6.269   1.114  14.245
 5908SOL    HW119563   6.331   1.117  14.318
 5908SOL    HW219564   6.304   1.177  14.181
 5909SOL     OW19565   7.138   1.166  12.685
 5909SOL    HW119566   7.124   1.097  12.751
 5909SOL    HW219567   7.138   1.247  12.735
 5910SOL     OW19568   4.414   1.974   3.357
 5910SOL    HW119569   4.399   2.008   3.445
 5910SOL    HW219570   4.361   2.030   3.301
 5911SOL     OW19571   3.234  10.132   3.680
 5911SOL    HW119572   3.325  10.104   3.684
 5911SOL    HW219573   3.234  10.220   3.720
 5912SOL     OW19574  12.152   6.288  12.607
 5912SOL    HW119575  12.238   6.315  12.640
 5912SOL    HW219576  12.171   6.239  12.527
 5913SOL     OW19577  10.188   9.633  13.634
 5913SOL    HW119578  10.268   9.610  13.681
 5913SOL    HW219579  10.218   9.686  13.560
 5914SOL     OW19580   9.174   6.743  13.217
 5914SOL    HW119581   9.248   6.744  13.157
 5914SOL    HW219582   9.104   6.787  13.169
 5915SOL     OW19583   6.035   5.836   1.039
 5915SOL    HW119584   6.115   5.857   1.087
 5915SOL    HW219585   5.965   5.873   1.092
 5916SOL     OW19586  11.301   4.298   2.315
 5916SOL    HW119587  11.364   4.339   2.374
 5916SOL    HW219588  11.347   4.220   2.282
 5917SOL     OW19589   3.049  11.561  13.075
 5917SOL    HW119590   3.012  11.595  12.994
 5917SOL    HW219591   2.986  11.494  13.104
 5918SOL     OW19592   6.421  10.970   0.413
 5918SOL    HW119593   6.385  11.052   0.448
 5918SOL    HW219594   6.510  10.992   0.388
 5919SOL     OW19595   0.251   5.999   1.789
 5919SOL    HW119596   0.239   5.905   1.804
 5919SOL    HW219597   0.293   6.004   1.703
 5920SOL     OW19598   9.701   1.327   2.169
 5920SOL    HW119599   9.783   1.322   2.120
 5920SOL    HW219600   9.728   1.350   2.258
 5921SOL     OW19601   3.003   6.137   5.915
 5921SOL    HW119602   2.934   6.071   5.925
 5921SOL    HW219603   2.981   6.183   5.834
 5922SOL     OW19604  10.880   2.012   8.857
 5922SOL    HW119605  10.853   1.931   8.813
 5922SOL    HW219606  10.843   2.005   8.945
 5923SOL     OW19607  11.298  12.715   6.581
 5923SOL    HW119608  11.225  12.729   6.522
 5923SOL    HW219609  11.343  12.637   6.548
 5924SOL     OW19610   8.353   8.060   9.482
 5924SOL    HW119611   8.371   8.027   9.393
 5924SOL    HW219612   8.357   8.155   9.474
 5925SOL     OW19613   2.804   9.650   7.521
 5925SOL    HW119614   2.718   9.671   7.555
 5925SOL    HW219615   2.811   9.700   7.440
 5926SOL     OW19616  11.540   8.198   3.154
 5926SOL    HW119617  11.502   8.111   3.155
 5926SOL    HW219618  11.465   8.258   3.157
 5927SOL     OW19619   0.036   0.006   1.809
 5927SOL    HW119620   0.025   0.100   1.824
 5927SOL    HW219621   0.099   0.001   1.737
 5928SOL     OW19622   0.348   3.613   8.204
 5928SOL    HW119623   0.269   3.605   8.151
 5928SOL    HW219624   0.358   3.707   8.218
 5929SOL     OW19625  10.115   0.384   1.113
 5929SOL    HW119626  10.072   0.435   1.181
 5929SOL    HW219627  10.206   0.376   1.143
 5930SOL     OW19628  10.985   0.156   3.855
 5930SOL    HW119629  10.914   0.092   3.854
 5930SOL    HW219630  11.047   0.124   3.790
 5931SOL     OW19631   1.057   9.548   8.245
 5931SOL    HW119632   0.965   9.573   8.236
 5931SOL    HW219633   1.094   9.613   8.305
 5932SOL     OW19634  14.608   8.536   3.458
 5932SOL    HW119635  14.640   8.626   3.457
 5932SOL    HW219636  14.685   8.484   3.483
 5933SOL     OW19637   7.898  13.437   6.996
 5933SOL    HW119638   7.919  13.402   6.909
 5933SOL    HW219639   7.848  13.367   7.038
 5934SOL     OW19640  10.712  11.667   2.952
 5934SOL    HW119641  10.790  11.613   2.965
 5934SOL    HW219642  10.661  11.654   3.032
 5935SOL     OW19643   1.277  12.862  14.817
 5935SOL    HW119644   1.229  12.925  14.762
 5935SOL    HW219645   1.333  12.815  14.756
 5936SOL     OW19646   8.799   7.186  12.073
 5936SOL    HW119647   8.836   7.250  12.013
 5936SOL    HW219648   8.765   7.117  12.016
 5937SOL     OW19649   2.885  13.692   0.986
 5937SOL    HW119650   2.959  13.740   0.950
 5937SOL    HW219651   2.812  13.755   0.982
 5938SOL     OW19652   4.107   1.658   6.918
 5938SOL    HW119653   4.159   1.601   6.974
 5938SOL    HW219654   4.126   1.629   6.829
 5939SOL     OW19655   2.669  11.395   2.921
 5939SOL    HW119656   2.596  11.411   2.980
 5939SOL    HW219657   2.718  11.323   2.961
 5940SOL     OW19658  11.618  14.272   1.380
 5940SOL    HW119659  11.603  14.255   1.473
 5940SOL    HW219660  11.674  14.201   1.351
 5941SOL     OW19661   9.687  14.756  13.711
 5941SOL    HW119662   9.716  14.843  13.740
 5941SOL    HW219663   9.601  14.744  13.752
 5942SOL     OW19664  10.485   6.849  10.221
 5942SOL    HW119665  10.518   6.782  10.161
 5942SOL    HW219666  10.394   6.823  10.238
 5943SOL     OW19667   1.791  10.411   7.463
 5943SOL    HW119668   1.750  10.463   7.532
 5943SOL    HW219669   1.732  10.420   7.388
 5944SOL     OW19670   9.905   9.458  11.391
 5944SOL    HW119671   9.918   9.477  11.298
 5944SOL    HW219672   9.848   9.381  11.393
 5945SOL     OW19673  12.473  12.407   6.294
 5945SOL    HW119674  12.399  12.368   6.340
 5945SOL    HW219675  12.462  12.501   6.306
 5946SOL     OW19676  12.813  12.081   3.685
 5946SOL    HW119677  12.743  12.133   3.646
 5946SOL    HW219678  12.769  12.024   3.748
 5947SOL     OW19679   4.553   3.490   6.487
 5947SOL    HW119680   4.597   3.428   6.429
 5947SOL    HW219681   4.533   3.565   6.432
 5948SOL     OW19682  12.439   6.483   5.356
 5948SOL    HW119683  12.513   6.428   5.382
 5948SOL    HW219684  12.395   6.431   5.288
 5949SOL     OW19685   2.378   3.232   3.381
 5949SOL    HW119686   2.389   3.308   3.438
 5949SOL    HW219687   2.290   3.199   3.401
 5950SOL     OW19688   9.600  10.278   7.468
 5950SOL    HW119689   9.659  10.353   7.459
 5950SOL    HW219690   9.550  10.277   7.387
 5951SOL     OW19691  14.452  12.368   2.650
 5951SOL    HW119692  14.497  12.321   2.580
 5951SOL    HW219693  14.507  12.355   2.727
 5952SOL     OW19694   3.915   5.047  10.955
 5952SOL    HW119695   3.965   4.988  10.899
 5952SOL    HW219696   3.981   5.101  10.998
 5953SOL     OW19697   6.688  13.255   7.499
 5953SOL    HW119698   6.603  13.239   7.458
 5953SOL    HW219699   6.724  13.330   7.452
 5954SOL     OW19700   4.272  14.588   4.186
 5954SOL    HW119701   4.325  14.665   4.207
 5954SOL    HW219702   4.234  14.608   4.101
 5955SOL     OW19703   8.951   0.730   3.681
 5955SOL    HW119704   8.925   0.811   3.725
 5955SOL    HW219705   9.027   0.699   3.731
 5956SOL     OW19706  14.227   1.487  11.227
 5956SOL    HW119707  14.169   1.463  11.299
 5956SOL    HW219708  14.303   1.526  11.270
 5957SOL     OW19709   8.906   1.454  13.114
 5957SOL    HW119710   8.927   1.532  13.063
 5957SOL    HW219711   8.909   1.383  13.051
 5958SOL     OW19712   6.874   1.480   7.484
 5958SOL    HW119713   6.907   1.523   7.564
 5958SOL    HW219714   6.931   1.514   7.414
 5959SOL     OW19715   8.682   6.833  13.502
 5959SOL    HW119716   8.688   6.798  13.591
 5959SOL    HW219717   8.664   6.757  13.447
 5960SOL     OW19718  12.364   0.690  13.990
 5960SOL    HW119719  12.454   0.683  13.958
 5960SOL    HW219720  12.357   0.779  14.024
 5961SOL     OW19721   0.273   2.576   5.969
 5961SOL    HW119722   0.319   2.579   5.885
 5961SOL    HW219723   0.264   2.483   5.989
 5962SOL     OW19724   6.583  11.969  13.041
 5962SOL    HW119725   6.541  11.890  13.075
 5962SOL    HW219726   6.644  11.995  13.111
 5963SOL     OW19727   6.538   2.758   3.639
 5963SOL    HW119728   6.588   2.826   3.593
 5963SOL    HW219729   6.471   2.731   3.575
 5964SOL     OW19730   1.822   9.229   8.496
 5964SOL    HW119731   1.917   9.226   8.508
 5964SOL    HW219732   1.789   9.155   8.546
 5965SOL     OW19733  14.157  11.976   2.853
 5965SOL    HW119734  14.141  11.997   2.945
 5965SOL    HW219735  14.128  12.054   2.805
 5966SOL     OW19736   2.505   6.174  12.549
 5966SOL    HW119737   2.415   6.203  12.532
 5966SOL    HW219738   2.551   6.191  12.467
 5967SOL     OW19739   6.588   5.481  11.404
 5967SOL    HW119740   6.614   5.570  11.429
 5967SOL    HW219741   6.495   5.477  11.428
 5968SOL     OW19742   8.168   3.315   4.078
 5968SOL    HW119743   8.193   3.246   4.017
 5968SOL    HW219744   8.128   3.382   4.023
 5969SOL     OW19745   3.775   8.634   4.486
 5969SOL    HW119746   3.812   8.682   4.412
 5969SOL    HW219747   3.682   8.658   4.486
 5970SOL     OW19748   7.818   5.652   0.446
 5970SOL    HW119749   7.793   5.736   0.484
 5970SOL    HW219750   7.895   5.624   0.497
 5971SOL     OW19751   3.619   5.160  11.689
 5971SOL    HW119752   3.562   5.152  11.766
 5971SOL    HW219753   3.636   5.254  11.682
 5972SOL     OW19754   3.161  12.962  11.873
 5972SOL    HW119755   3.195  12.877  11.845
 5972SOL    HW219756   3.162  13.016  11.794
 5973SOL     OW19757   0.787  10.975  14.725
 5973SOL    HW119758   0.875  10.974  14.688
 5973SOL    HW219759   0.784  10.899  14.783
 5974SOL     OW19760   7.477   4.955  12.416
 5974SOL    HW119761   7.414   4.948  12.488
 5974SOL    HW219762   7.486   5.049  12.401
 5975SOL     OW19763  13.576   9.439   6.062
 5975SOL    HW119764  13.647   9.463   6.122
 5975SOL    HW219765  13.584   9.344   6.052
 5976SOL     OW19766  11.673  13.204  13.171
 5976SOL    HW119767  11.686  13.133  13.108
 5976SOL    HW219768  11.681  13.161  13.256
 5977SOL     OW19769   5.635   1.308   0.089
 5977SOL    HW119770   5.582   1.361   0.030
 5977SOL    HW219771   5.656   1.229   0.040
 5978SOL     OW19772   6.096   5.264   6.360
 5978SOL    HW119773   6.066   5.289   6.447
 5978SOL    HW219774   6.045   5.319   6.300
 5979SOL     OW19775  11.060   2.725  12.053
 5979SOL    HW119776  10.975   2.715  12.010
 5979SOL    HW219777  11.045   2.695  12.143
 5980SOL     OW19778  11.007   4.501   4.114
 5980SOL    HW119779  11.037   4.437   4.179
 5980SOL    HW219780  10.952   4.452   4.054
 5981SOL     OW19781  10.402   5.121   7.822
 5981SOL    HW119782  10.318   5.085   7.791
 5981SOL    HW219783  10.377   5.195   7.877
 5982SOL     OW19784   2.838  10.886   2.493
 5982SOL    HW119785   2.892  10.948   2.445
 5982SOL    HW219786   2.852  10.907   2.585
 5983SOL     OW19787   4.191   4.274   2.059
 5983SOL    HW119788   4.099   4.303   2.055
 5983SOL    HW219789   4.227   4.297   1.974
 5984SOL     OW19790   1.103  12.575  12.656
 5984SOL    HW119791   1.190  12.600  12.689
 5984SOL    HW219792   1.119  12.502  12.598
 5985SOL     OW19793   0.642   8.079  12.536
 5985SOL    HW119794   0.595   8.006  12.496
 5985SOL    HW219795   0.732   8.068  12.507
 5986SOL     OW19796   5.453   3.540   0.901
 5986SOL    HW119797   5.505   3.465   0.871
 5986SOL    HW219798   5.450   3.530   0.996
 5987SOL     OW19799   8.953  13.422   5.156
 5987SOL    HW119800   8.862  13.445   5.175
 5987SOL    HW219801   9.004  13.469   5.223
 5988SOL     OW19802  14.530   7.439   7.503
 5988SOL    HW119803  14.579   7.515   7.473
 5988SOL    HW219804  14.479   7.411   7.427
 5989SOL     OW19805  13.363  12.124   8.036
 5989SOL    HW119806  13.426  12.173   7.984
 5989SOL    HW219807  13.410  12.045   8.062
 5990SOL     OW19808   0.586  13.224   5.740
 5990SOL    HW119809   0.588  13.199   5.833
 5990SOL    HW219810   0.496  13.206   5.713
 5991SOL     OW19811  14.308  10.658   4.256
 5991SOL    HW119812  14.371  10.598   4.218
 5991SOL    HW219813  14.348  10.745   4.249
 5992SOL     OW19814   1.293   6.638  12.002
 5992SOL    HW119815   1.350   6.684  11.940
 5992SOL    HW219816   1.354   6.589  12.058
 5993SOL     OW19817  14.580  12.087   0.319
 5993SOL    HW119818  14.502  12.059   0.366
 5993SOL    HW219819  14.585  12.182   0.333
 5994SOL     OW19820   4.297   4.219   6.318
 5994SOL    HW119821   4.273   4.149   6.378
 5994SOL    HW219822   4.217   4.236   6.268
 5995SOL     OW19823   4.859   3.244   5.500
 5995SOL    HW119824   4.849   3.247   5.595
 5995SOL    HW219825   4.888   3.155   5.482
 5996SOL     OW19826  10.353  12.573   8.111
 5996SOL    HW119827  10.402  12.627   8.048
 5996SOL    HW219828  10.313  12.636   8.170
 5997SOL     OW19829   1.734   8.307   9.754
 5997SOL    HW119830   1.734   8.362   9.675
 5997SOL    HW219831   1.667   8.345   9.810
 5998SOL     OW19832   0.904   3.989  12.280
 5998SOL    HW119833   0.847   4.012  12.354
 5998SOL    HW219834   0.949   3.909  12.309
 5999SOL     OW19835   8.503  13.227   9.596
 5999SOL    HW119836   8.534  13.141   9.569
 5999SOL    HW219837   8.504  13.280   9.516
 6000SOL     OW19838  13.125   0.081  13.846
 6000SOL    HW119839  13.209   0.088  13.891
 6000SOL    HW219840  13.140   0.122  13.761
 6001SOL     OW19841   6.654   6.345   6.088
 6001SOL    HW119842   6.611   6.270   6.046
 6001SOL    HW219843   6.631   6.337   6.181
 6002SOL     OW19844  14.622   8.047   3.814
 6002SOL    HW119845  14.678   8.124   3.822
 6002SOL    HW219846  14.647   7.991   3.888
 6003SOL     OW19847   6.096   9.706   0.872
 6003SOL    HW119848   6.095   9.789   0.824
 6003SOL    HW219849   6.054   9.725   0.956
 6004SOL     OW19850  13.731  11.105   4.023
 6004SOL    HW119851  13.780  11.071   4.098
 6004SOL    HW219852  13.661  11.041   4.009
 6005SOL     OW19853   9.208  12.623   8.327
 6005SOL    HW119854   9.146  12.683   8.284
 6005SOL    HW219855   9.170  12.606   8.413
 6006SOL     OW19856   1.419  11.150   3.088
 6006SOL    HW119857   1.391  11.227   3.138
 6006SOL    HW219858   1.337  11.109   3.060
 6007SOL     OW19859  10.922  12.371  11.515
 6007SOL    HW119860  10.949  12.460  11.539
 6007SOL    HW219861  10.935  12.320  11.595
 6008SOL     OW19862   8.767  10.280   0.677
 6008SOL    HW119863   8.800  10.198   0.713
 6008SOL    HW219864   8.799  10.280   0.586
 6009SOL     OW19865   5.666   0.699   7.882
 6009SOL    HW119866   5.754   0.735   7.887
 6009SOL    HW219867   5.624   0.747   7.811
 6010SOL     OW19868   0.286   2.495  11.300
 6010SOL    HW119869   0.292   2.487  11.205
 6010SOL    HW219870   0.372   2.527  11.327
 6011SOL     OW19871   5.347   1.319   3.730
 6011SOL    HW119872   5.384   1.288   3.647
 6011SOL    HW219873   5.388   1.405   3.744
 6012SOL     OW19874   1.489   4.965  13.803
 6012SOL    HW119875   1.532   5.018  13.871
 6012SOL    HW219876   1.407   5.011  13.785
 6013SOL     OW19877   3.091   3.022   6.228
 6013SOL    HW119878   3.084   3.093   6.164
 6013SOL    HW219879   3.154   3.054   6.292
 6014SOL     OW19880   9.542   4.378   3.149
 6014SOL    HW119881   9.563   4.360   3.058
 6014SOL    HW219882   9.501   4.298   3.181
 6015SOL     OW19883   6.597  11.675   0.109
 6015SOL    HW119884   6.682  11.691   0.150
 6015SOL    HW219885   6.610  11.596   0.057
 6016SOL     OW19886   8.539   2.232  12.802
 6016SOL    HW119887   8.560   2.297  12.869
 6016SOL    HW219888   8.445   2.244  12.787
 6017SOL     OW19889  10.927   8.389   4.055
 6017SOL    HW119890  11.008   8.436   4.040
 6017SOL    HW219891  10.870   8.413   3.981
 6018SOL     OW19892  10.955  10.295  14.165
 6018SOL    HW119893  10.868  10.274  14.200
 6018SOL    HW219894  10.943  10.378  14.120
 6019SOL     OW19895   3.675  10.682   4.556
 6019SOL    HW119896   3.731  10.733   4.614
 6019SOL    HW219897   3.736  10.628   4.506
 6020SOL     OW19898  12.800   9.609  10.591
 6020SOL    HW119899  12.877   9.566  10.555
 6020SOL    HW219900  12.822   9.702  10.589
 6021SOL     OW19901   5.211   1.651   4.835
 6021SOL    HW119902   5.123   1.641   4.797
 6021SOL    HW219903   5.197   1.644   4.930
 6022SOL     OW19904   1.969   9.505  11.352
 6022SOL    HW119905   1.964   9.601  11.354
 6022SOL    HW219906   2.062   9.486  11.352
 6023SOL     OW19907   8.874   2.750   4.716
 6023SOL    HW119908   8.861   2.812   4.788
 6023SOL    HW219909   8.893   2.804   4.640
 6024SOL     OW19910   8.431  10.760   4.217
 6024SOL    HW119911   8.433  10.788   4.126
 6024SOL    HW219912   8.513  10.791   4.254
 6025SOL     OW19913  12.453   7.953   6.426
 6025SOL    HW119914  12.454   8.020   6.494
 6025SOL    HW219915  12.381   7.895   6.451
 6026SOL     OW19916  10.100  14.207  13.709
 6026SOL    HW119917  10.024  14.257  13.681
 6026SOL    HW219918  10.072  14.116  13.704
 6027SOL     OW19919  10.327  11.570   0.062
 6027SOL    HW119920  10.393  11.638   0.075
 6027SOL    HW219921  10.306  11.541   0.151
 6028SOL     OW19922   3.450   9.769  12.997
 6028SOL    HW119923   3.532   9.722  13.012
 6028SOL    HW219924   3.477   9.858  12.975
 6029SOL     OW19925   4.584  11.188   1.879
 6029SOL    HW119926   4.616  11.274   1.907
 6029SOL    HW219927   4.661  11.132   1.880
 6030SOL     OW19928  10.151   6.891   7.575
 6030SOL    HW119929  10.176   6.966   7.521
 6030SOL    HW219930  10.208   6.896   7.652
 6031SOL     OW19931  14.545   2.348   7.376
 6031SOL    HW119932  14.628   2.372   7.416
 6031SOL    HW219933  14.484   2.416   7.404
 6032SOL     OW19934  11.088  13.354   7.737
 6032SOL    HW119935  11.010  13.406   7.716
 6032SOL    HW219936  11.114  13.383   7.824
 6033SOL     OW19937  13.660   9.890   5.288
 6033SOL    HW119938  13.633   9.798   5.290
 6033SOL    HW219939  13.753   9.888   5.267
 6034SOL     OW19940  12.831  10.460   5.306
 6034SOL    HW119941  12.755  10.413   5.269
 6034SOL    HW219942  12.859  10.405   5.379
 6035SOL     OW19943   5.553   1.223   6.853
 6035SOL    HW119944   5.505   1.301   6.878
 6035SOL    HW219945   5.489   1.152   6.858
 6036SOL     OW19946   2.303   5.815   2.410
 6036SOL    HW119947   2.396   5.795   2.416
 6036SOL    HW219948   2.261   5.756   2.472
 6037SOL     OW19949  14.781   0.025  11.592
 6037SOL    HW119950  14.843   0.087  11.553
 6037SOL    HW219951  14.718   0.080  11.638
 6038SOL     OW19952  10.700   3.927   8.988
 6038SOL    HW119953  10.794   3.935   8.976
 6038SOL    HW219954  10.689   3.882   9.072
 6039SOL     OW19955   3.316   4.651   1.904
 6039SOL    HW119956   3.281   4.740   1.906
 6039SOL    HW219957   3.273   4.606   1.976
 6040SOL     OW19958   9.068  14.597   7.699
 6040SOL    HW119959   8.997  14.661   7.700
 6040SOL    HW219960   9.091  14.585   7.791
 6041SOL     OW19961  12.952   9.457   7.503
 6041SOL    HW119962  12.920   9.547   7.496
 6041SOL    HW219963  13.035   9.457   7.457
 6042SOL     OW19964  12.752   9.704  11.506
 6042SOL    HW119965  12.706   9.690  11.423
 6042SOL    HW219966  12.690   9.674  11.573
 6043SOL     OW19967  14.330   3.643   1.185
 6043SOL    HW119968  14.385   3.721   1.190
 6043SOL    HW219969  14.261   3.666   1.122
 6044SOL     OW19970   0.650  10.538   6.023
 6044SOL    HW119971   0.674  10.522   5.931
 6044SOL    HW219972   0.563  10.500   6.031
 6045SOL     OW19973  12.948   0.928   6.772
 6045SOL    HW119974  13.033   0.915   6.730
 6045SOL    HW219975  12.890   0.864   6.731
 6046SOL     OW19976  12.987  11.390   3.514
 6046SOL    HW119977  12.909  11.444   3.523
 6046SOL    HW219978  13.057  11.452   3.495
 6047SOL     OW19979   5.172   0.495   4.360
 6047SOL    HW119980   5.116   0.572   4.347
 6047SOL    HW219981   5.216   0.482   4.276
 6048SOL     OW19982   0.856   2.129   7.078
 6048SOL    HW119983   0.847   2.194   7.008
 6048SOL    HW219984   0.938   2.152   7.121
 6049SOL     OW19985   0.461  12.019   9.061
 6049SOL    HW119986   0.394  11.952   9.071
 6049SOL    HW219987   0.531  11.991   9.121
 6050SOL     OW19988  11.537   7.580   6.101
 6050SOL    HW119989  11.578   7.660   6.132
 6050SOL    HW219990  11.530   7.591   6.007
 6051SOL     OW19991  11.997   2.603   7.858
 6051SOL    HW119992  11.957   2.650   7.785
 6051SOL    HW219993  12.070   2.556   7.818
 6052SOL     OW19994   2.332   9.666   9.647
 6052SOL    HW119995   2.261   9.618   9.605
 6052SOL    HW219996   2.400   9.600   9.663
 6053SOL     OW19997  13.204   3.084   0.858
 6053SOL    HW119998  13.151   3.006   0.842
 6053SOL    HW219999  13.192   3.101   0.952
 6054SOL     OW20000  10.881   8.627   6.160
 6054SOL    HW120001  10.821   8.684   6.112
 6054SOL    HW220002  10.964   8.636   6.114
 6055SOL     OW20003  14.818  11.384   2.373
 6055SOL    HW120004  14.786  11.364   2.285
 6055SOL    HW220005  14.826  11.299   2.416
 6056SOL     OW20006  14.645   1.437  14.076
 6056SOL    HW120007  14.733   1.401  14.069
 6056SOL    HW220008  14.619   1.453  13.985
 6057SOL     OW20009  11.100   1.825  10.809
 6057SOL    HW120010  11.020   1.851  10.854
 6057SOL    HW220011  11.152   1.904  10.805
 6058SOL     OW20012   1.020  10.295   8.230
 6058SOL    HW120013   0.966  10.276   8.307
 6058SOL    HW220014   1.006  10.219   8.172
 6059SOL     OW20015   0.064   3.055   7.327
 6059SOL    HW120016   0.126   3.029   7.395
 6059SOL    HW220017   0.005   3.117   7.370
 6060SOL     OW20018   7.100  12.974  13.305
 6060SOL    HW120019   7.135  13.047  13.254
 6060SOL    HW220020   7.165  12.958  13.373
 6061SOL     OW20021   7.554   0.685   5.677
 6061SOL    HW120022   7.553   0.774   5.641
 6061SOL    HW220023   7.596   0.633   5.608
 6062SOL     OW20024  13.888   3.292   8.365
 6062SOL    HW120025  13.977   3.316   8.340
 6062SOL    HW220026  13.838   3.295   8.284
 6063SOL     OW20027  11.048  11.093   8.831
 6063SOL    HW120028  11.008  11.054   8.753
 6063SOL    HW220029  11.138  11.112   8.804
 6064SOL     OW20030   2.711   2.302   8.112
 6064SOL    HW120031   2.707   2.221   8.061
 6064SOL    HW220032   2.756   2.277   8.193
 6065SOL     OW20033  12.116   4.943  11.484
 6065SOL    HW120034  12.029   4.928  11.522
 6065SOL    HW220035  12.171   4.874  11.521
 6066SOL     OW20036  10.940   5.940   2.062
 6066SOL    HW120037  10.845   5.951   2.072
 6066SOL    HW220038  10.972   6.027   2.037
 6067SOL     OW20039   5.387   7.625   9.523
 6067SOL    HW120040   5.424   7.705   9.559
 6067SOL    HW220041   5.438   7.555   9.562
 6068SOL     OW20042   9.311   0.453   9.810
 6068SOL    HW120043   9.398   0.483   9.783
 6068SOL    HW220044   9.294   0.498   9.893
 6069SOL     OW20045   0.440  12.788   2.966
 6069SOL    HW120046   0.375  12.827   3.025
 6069SOL    HW220047   0.427  12.694   2.975
 6070SOL     OW20048  11.058   8.845  12.274
 6070SOL    HW120049  11.018   8.858  12.359
 6070SOL    HW220050  11.104   8.761  12.282
 6071SOL     OW20051  12.505   2.241  12.071
 6071SOL    HW120052  12.518   2.316  12.013
 6071SOL    HW220053  12.434   2.191  12.030
 6072SOL     OW20054   3.457   4.290  14.068
 6072SOL    HW120055   3.460   4.378  14.107
 6072SOL    HW220056   3.367   4.282  14.035
 6073SOL     OW20057  10.571   4.663   5.622
 6073SOL    HW120058  10.636   4.594   5.610
 6073SOL    HW220059  10.610   4.741   5.582
 6074SOL     OW20060   7.146  12.590   8.133
 6074SOL    HW120061   7.058  12.628   8.133
 6074SOL    HW220062   7.168  12.581   8.040
 6075SOL     OW20063   0.891   1.893  12.450
 6075SOL    HW120064   0.842   1.938  12.381
 6075SOL    HW220065   0.977   1.876  12.412
 6076SOL     OW20066  13.387   4.268   9.910
 6076SOL    HW120067  13.390   4.240  10.002
 6076SOL    HW220068  13.352   4.358   9.914
 6077SOL     OW20069   4.905   7.810   9.396
 6077SOL    HW120070   4.995   7.834   9.376
 6077SOL    HW220071   4.859   7.893   9.404
 6078SOL     OW20072  10.990   8.299   5.776
 6078SOL    HW120073  10.919   8.314   5.714
 6078SOL    HW220074  10.980   8.368   5.841
 6079SOL     OW20075   6.205   7.906  11.100
 6079SOL    HW120076   6.132   7.927  11.158
 6079SOL    HW220077   6.182   7.820  11.063
 6080SOL     OW20078   0.043  12.532   7.302
 6080SOL    HW120079   0.065  12.477   7.377
 6080SOL    HW220080  14.829  12.550   7.311
 6081SOL     OW20081   0.559  10.931  12.659
 6081SOL    HW120082   0.639  10.953  12.707
 6081SOL    HW220083   0.570  10.972  12.574
 6082SOL     OW20084   1.575  12.692   9.024
 6082SOL    HW120085   1.609  12.608   8.995
 6082SOL    HW220086   1.631  12.718   9.097
 6083SOL     OW20087   2.235   9.014   8.264
 6083SOL    HW120088   2.173   9.063   8.209
 6083SOL    HW220089   2.242   8.928   8.222
 6084SOL     OW20090   5.856  13.103  13.970
 6084SOL    HW120091   5.848  13.021  14.019
 6084SOL    HW220092   5.941  13.096  13.926
 6085SOL     OW20093  11.709   0.768   9.997
 6085SOL    HW120094  11.631   0.803   9.954
 6085SOL    HW220095  11.675   0.719  10.072
 6086SOL     OW20096   7.976  12.716   5.963
 6086SOL    HW120097   7.949  12.710   6.055
 6086SOL    HW220098   8.032  12.639   5.950
 6087SOL     OW20099  14.484  11.865   7.421
 6087SOL    HW120100  14.398  11.894   7.391
 6087SOL    HW220101  14.529  11.838   7.340
 6088SOL     OW20102   9.071   7.145   8.843
 6088SOL    HW120103   9.075   7.066   8.789
 6088SOL    HW220104   9.158   7.184   8.833
 6089SOL     OW20105  10.387   4.198   7.151
 6089SOL    HW120106  10.382   4.282   7.107
 6089SOL    HW220107  10.365   4.133   7.084
 6090SOL     OW20108   7.698   3.672  11.717
 6090SOL    HW120109   7.733   3.683  11.805
 6090SOL    HW220110   7.628   3.607  11.727
 6091SOL     OW20111   6.004   4.501  10.933
 6091SOL    HW120112   5.957   4.429  10.891
 6091SOL    HW220113   6.018   4.472  11.023
 6092SOL     OW20114   6.400   2.215   8.714
 6092SOL    HW120115   6.357   2.134   8.743
 6092SOL    HW220116   6.362   2.233   8.628
 6093SOL     OW20117   5.406   4.289  10.507
 6093SOL    HW120118   5.394   4.194  10.504
 6093SOL    HW220119   5.320   4.325  10.486
 6094SOL     OW20120   7.106   1.654  14.406
 6094SOL    HW120121   7.123   1.566  14.438
 6094SOL    HW220122   7.011   1.656  14.390
 6095SOL     OW20123   0.482   4.861   0.459
 6095SOL    HW120124   0.539   4.809   0.515
 6095SOL    HW220125   0.396   4.820   0.469
 6096SOL     OW20126  11.064   8.694   3.779
 6096SOL    HW120127  11.103   8.619   3.824
 6096SOL    HW220128  10.973   8.669   3.766
 6097SOL     OW20129   3.464   3.486   5.286
 6097SOL    HW120130   3.488   3.576   5.264
 6097SOL    HW220131   3.413   3.494   5.367
 6098SOL     OW20132   7.634   3.337   6.628
 6098SOL    HW120133   7.724   3.361   6.607
 6098SOL    HW220134   7.623   3.364   6.719
 6099SOL     OW20135   7.921  13.394   7.440
 6099SOL    HW120136   7.933  13.304   7.468
 6099SOL    HW220137   7.865  13.388   7.363
 6100SOL     OW20138  13.155   8.730   6.694
 6100SOL    HW120139  13.239   8.708   6.734
 6100SOL    HW220140  13.178   8.778   6.614
 6101SOL     OW20141  12.286   4.919   3.304
 6101SOL    HW120142  12.218   4.939   3.240
 6101SOL    HW220143  12.315   5.004   3.336
 6102SOL     OW20144  10.141   7.537  10.046
 6102SOL    HW120145  10.190   7.597  10.102
 6102SOL    HW220146  10.108   7.592   9.974
 6103SOL     OW20147  10.586  13.126  12.788
 6103SOL    HW120148  10.564  13.122  12.881
 6103SOL    HW220149  10.681  13.115  12.786
 6104SOL     OW20150  10.146   5.110   1.575
 6104SOL    HW120151  10.073   5.092   1.516
 6104SOL    HW220152  10.213   5.150   1.520
 6105SOL     OW20153   2.221  10.634   8.221
 6105SOL    HW120154   2.287  10.681   8.271
 6105SOL    HW220155   2.139  10.678   8.241
 6106SOL     OW20156  13.417   3.829  14.263
 6106SOL    HW120157  13.341   3.878  14.230
 6106SOL    HW220158  13.493   3.881  14.236
 6107SOL     OW20159   3.897   8.975   2.973
 6107SOL    HW120160   3.975   9.028   2.991
 6107SOL    HW220161   3.877   8.934   3.057
 6108SOL     OW20162   9.331  14.190   7.173
 6108SOL    HW120163   9.261  14.254   7.160
 6108SOL    HW220164   9.294  14.127   7.236
 6109SOL     OW20165   0.033  11.315   8.221
 6109SOL    HW120166   0.010  11.268   8.301
 6109SOL    HW220167   0.066  11.399   8.252
 6110SOL     OW20168   2.159   7.291   7.696
 6110SOL    HW120169   2.235   7.240   7.668
 6110SOL    HW220170   2.182   7.382   7.676
 6111SOL     OW20171   1.638   5.794   0.399
 6111SOL    HW120172   1.682   5.710   0.395
 6111SOL    HW220173   1.547   5.773   0.421
 6112SOL     OW20174   0.223   6.990   8.741
 6112SOL    HW120175   0.197   6.942   8.662
 6112SOL    HW220176   0.146   6.986   8.798
 6113SOL     OW20177   0.515   5.498  12.494
 6113SOL    HW120178   0.567   5.531  12.567
 6113SOL    HW220179   0.568   5.430  12.454
 6114SOL     OW20180   9.828   6.585  12.145
 6114SOL    HW120181   9.878   6.593  12.226
 6114SOL    HW220182   9.779   6.667  12.139
 6115SOL     OW20183  14.260   0.693   3.761
 6115SOL    HW120184  14.197   0.668   3.693
 6115SOL    HW220185  14.315   0.616   3.772
 6116SOL     OW20186   1.137   2.442   6.191
 6116SOL    HW120187   1.222   2.402   6.210
 6116SOL    HW220188   1.088   2.375   6.144
 6117SOL     OW20189   2.476   9.332  11.379
 6117SOL    HW120190   2.472   9.238  11.361
 6117SOL    HW220191   2.385   9.360  11.383
 6118SOL     OW20192   3.788   9.648   4.834
 6118SOL    HW120193   3.779   9.590   4.909
 6118SOL    HW220194   3.872   9.624   4.795
 6119SOL     OW20195   6.212   3.138   3.075
 6119SOL    HW120196   6.273   3.069   3.100
 6119SOL    HW220197   6.263   3.219   3.081
 6120SOL     OW20198   5.319  12.027  10.084
 6120SOL    HW120199   5.380  11.978  10.027
 6120SOL    HW220200   5.344  12.000  10.173
 6121SOL     OW20201   2.687   9.846  12.495
 6121SOL    HW120202   2.604   9.863  12.452
 6121SOL    HW220203   2.737   9.793  12.433
 6122SOL     OW20204   4.897   3.068  12.306
 6122SOL    HW120205   4.861   3.021  12.382
 6122SOL    HW220206   4.822   3.111  12.266
 6123SOL     OW20207   3.914  14.514   7.009
 6123SOL    HW120208   3.938  14.565   7.086
 6123SOL    HW220209   3.928  14.573   6.935
 6124SOL     OW20210   9.522  13.228   0.562
 6124SOL    HW120211   9.526  13.274   0.646
 6124SOL    HW220212   9.580  13.278   0.505
 6125SOL     OW20213   3.230   9.506   1.553
 6125SOL    HW120214   3.276   9.537   1.631
 6125SOL    HW220215   3.216   9.585   1.501
 6126SOL     OW20216   7.522   6.739  11.264
 6126SOL    HW120217   7.607   6.709  11.232
 6126SOL    HW220218   7.539   6.765  11.355
 6127SOL     OW20219   4.957  11.332   7.801
 6127SOL    HW120220   5.011  11.296   7.730
 6127SOL    HW220221   4.920  11.256   7.845
 6128SOL     OW20222  14.771   9.649   6.506
 6128SOL    HW120223  14.818   9.570   6.479
 6128SOL    HW220224  14.746   9.691   6.424
 6129SOL     OW20225   7.213  13.770  12.929
 6129SOL    HW120226   7.152  13.701  12.957
 6129SOL    HW220227   7.271  13.726  12.868
 6130SOL     OW20228   7.799   9.337  10.037
 6130SOL    HW120229   7.804   9.361  10.129
 6130SOL    HW220230   7.721   9.282  10.031
 6131SOL     OW20231   9.837   9.819   9.015
 6131SOL    HW120232   9.921   9.780   9.041
 6131SOL    HW220233   9.782   9.813   9.093
 6132SOL     OW20234   6.542  12.997   0.096
 6132SOL    HW120235   6.623  13.002   0.044
 6132SOL    HW220236   6.570  13.011   0.186
 6133SOL     OW20237   1.869  11.070  11.708
 6133SOL    HW120238   1.790  11.123  11.702
 6133SOL    HW220239   1.940  11.130  11.688
 6134SOL     OW20240   5.459   3.484   3.660
 6134SOL    HW120241   5.496   3.415   3.605
 6134SOL    HW220242   5.534   3.515   3.711
 6135SOL     OW20243  14.150  10.514   9.264
 6135SOL    HW120244  14.174  10.445   9.203
 6135SOL    HW220245  14.183  10.484   9.349
 6136SOL     OW20246   1.033   8.931  13.497
 6136SOL    HW120247   1.103   8.956  13.558
 6136SOL    HW220248   0.956   8.921  13.552
 6137SOL     OW20249  13.677   9.396   5.798
 6137SOL    HW120250  13.613   9.436   5.857
 6137SOL    HW220251  13.760   9.398   5.847
 6138SOL     OW20252   4.485   3.522   4.162
 6138SOL    HW120253   4.411   3.474   4.199
 6138SOL    HW220254   4.562   3.469   4.182
 6139SOL     OW20255  14.816   2.485   4.204
 6139SOL    HW120256  14.867   2.408   4.181
 6139SOL    HW220257  14.730   2.469   4.165
 6140SOL     OW20258   2.738   7.127  10.796
 6140SOL    HW120259   2.803   7.118  10.866
 6140SOL    HW220260   2.746   7.218  10.768
 6141SOL     OW20261   6.935   8.027   3.902
 6141SOL    HW120262   6.888   8.106   3.927
 6141SOL    HW220263   7.001   8.015   3.970
 6142SOL     OW20264   7.524   0.025   4.871
 6142SOL    HW120265   7.517  14.845   4.947
 6142SOL    HW220266   7.506  14.848   4.796
 6143SOL     OW20267   7.676   1.604   0.772
 6143SOL    HW120268   7.688   1.683   0.720
 6143SOL    HW220269   7.689   1.532   0.711
 6144SOL     OW20270   3.025   9.856   5.301
 6144SOL    HW120271   2.975   9.884   5.224
 6144SOL    HW220272   3.020   9.761   5.299
 6145SOL     OW20273   5.634  10.212   9.854
 6145SOL    HW120274   5.568  10.271   9.888
 6145SOL    HW220275   5.645  10.145   9.921
 6146SOL     OW20276  12.354   1.572   0.297
 6146SOL    HW120277  12.316   1.602   0.379
 6146SOL    HW220278  12.414   1.501   0.323
 6147SOL     OW20279   8.029  11.948   7.942
 6147SOL    HW120280   8.081  11.909   8.012
 6147SOL    HW220281   7.960  11.884   7.925
 6148SOL     OW20282   8.423   5.162  10.096
 6148SOL    HW120283   8.378   5.174  10.012
 6148SOL    HW220284   8.367   5.102  10.145
 6149SOL     OW20285  10.211   0.251  10.097
 6149SOL    HW120286  10.227   0.290  10.011
 6149SOL    HW220287  10.133   0.196  10.085
 6150SOL     OW20288   4.013   8.333   8.703
 6150SOL    HW120289   3.971   8.279   8.770
 6150SOL    HW220290   4.094   8.363   8.744
 6151SOL     OW20291  13.581   4.317   4.340
 6151SOL    HW120292  13.660   4.337   4.290
 6151SOL    HW220293  13.563   4.225   4.321
 6152SOL     OW20294   7.374   4.609   1.513
 6152SOL    HW120295   7.342   4.562   1.590
 6152SOL    HW220296   7.405   4.693   1.547
 6153SOL     OW20297   5.266   5.483  13.670
 6153SOL    HW120298   5.270   5.438  13.586
 6153SOL    HW220299   5.293   5.573  13.650
 6154SOL     OW20300   7.324   5.328  11.273
 6154SOL    HW120301   7.400   5.373  11.237
 6154SOL    HW220302   7.323   5.244  11.229
 6155SOL     OW20303   2.173   9.580  11.622
 6155SOL    HW120304   2.239   9.649  11.610
 6155SOL    HW220305   2.201   9.534  11.701
 6156SOL     OW20306  13.125  10.954   5.134
 6156SOL    HW120307  13.155  10.884   5.192
 6156SOL    HW220308  13.030  10.953   5.143
 6157SOL     OW20309   2.372   7.999   7.723
 6157SOL    HW120310   2.433   8.061   7.682
 6157SOL    HW220311   2.341   8.043   7.802
 6158SOL     OW20312   2.773   6.351   4.093
 6158SOL    HW120313   2.708   6.302   4.042
 6158SOL    HW220314   2.750   6.443   4.080
 6159SOL     OW20315  10.749   9.625   6.421
 6159SOL    HW120316  10.787   9.688   6.360
 6159SOL    HW220317  10.680   9.674   6.467
 6160SOL     OW20318   6.215   2.880   4.244
 6160SOL    HW120319   6.271   2.956   4.234
 6160SOL    HW220320   6.178   2.866   4.157
 6161SOL     OW20321   4.962   8.027   1.704
 6161SOL    HW120322   4.963   7.953   1.644
 6161SOL    HW220323   4.875   8.065   1.694
 6162SOL     OW20324   6.440  13.408   6.469
 6162SOL    HW120325   6.395  13.332   6.431
 6162SOL    HW220326   6.489  13.372   6.543
 6163SOL     OW20327   8.479   6.884   8.465
 6163SOL    HW120328   8.400   6.846   8.429
 6163SOL    HW220329   8.463   6.890   8.560
 6164SOL     OW20330   5.637   0.919  11.131
 6164SOL    HW120331   5.700   0.852  11.107
 6164SOL    HW220332   5.687   0.981  11.184
 6165SOL     OW20333   2.513   0.847   6.447
 6165SOL    HW120334   2.536   0.818   6.535
 6165SOL    HW220335   2.533   0.772   6.391
 6166SOL     OW20336   9.728   4.489  11.376
 6166SOL    HW120337   9.714   4.556  11.308
 6166SOL    HW220338   9.821   4.470  11.372
 6167SOL     OW20339  11.903  13.952   3.684
 6167SOL    HW120340  11.868  13.974   3.771
 6167SOL    HW220341  11.882  14.029   3.631
 6168SOL     OW20342   4.598   4.780   2.119
 6168SOL    HW120343   4.521   4.761   2.173
 6168SOL    HW220344   4.625   4.868   2.145
 6169SOL     OW20345   5.315   0.152   4.577
 6169SOL    HW120346   5.319   0.241   4.613
 6169SOL    HW220347   5.235   0.151   4.524
 6170SOL     OW20348   5.482   4.637   5.711
 6170SOL    HW120349   5.510   4.715   5.759
 6170SOL    HW220350   5.559   4.579   5.713
 6171SOL     OW20351   3.046   3.345   6.581
 6171SOL    HW120352   3.040   3.288   6.658
 6171SOL    HW220353   2.971   3.404   6.588
 6172SOL     OW20354   6.186   2.887  13.178
 6172SOL    HW120355   6.124   2.928  13.239
 6172SOL    HW220356   6.137   2.878  13.096
 6173SOL     OW20357   0.248  13.257   5.303
 6173SOL    HW120358   0.339  13.270   5.279
 6173SOL    HW220359   0.243  13.166   5.331
 6174SOL     OW20360  11.479   6.511   8.832
 6174SOL    HW120361  11.445   6.474   8.750
 6174SOL    HW220362  11.401   6.533   8.882
 6175SOL     OW20363   0.714   9.528  11.318
 6175SOL    HW120364   0.669   9.554  11.238
 6175SOL    HW220365   0.649   9.478  11.367
 6176SOL     OW20366  12.724  11.637   9.298
 6176SOL    HW120367  12.740  11.599   9.385
 6176SOL    HW220368  12.716  11.561   9.240
 6177SOL     OW20369   0.196  11.114   8.885
 6177SOL    HW120370   0.245  11.114   8.968
 6177SOL    HW220371   0.218  11.030   8.845
 6178SOL     OW20372  12.849  11.829   5.800
 6178SOL    HW120373  12.847  11.809   5.894
 6178SOL    HW220374  12.801  11.911   5.792
 6179SOL     OW20375  13.713  11.422   9.140
 6179SOL    HW120376  13.699  11.341   9.090
 6179SOL    HW220377  13.805  11.420   9.164
 6180SOL     OW20378  13.993  13.460   0.651
 6180SOL    HW120379  13.900  13.476   0.635
 6180SOL    HW220380  14.029  13.439   0.564
 6181SOL     OW20381   2.262   4.381  13.314
 6181SOL    HW120382   2.201   4.399  13.386
 6181SOL    HW220383   2.222   4.423  13.238
 6182SOL     OW20384   3.992  14.831   0.927
 6182SOL    HW120385   3.902  14.853   0.906
 6182SOL    HW220386   4.030  14.803   0.844
 6183SOL     OW20387   8.583   4.434   3.593
 6183SOL    HW120388   8.610   4.443   3.502
 6183SOL    HW220389   8.652   4.381   3.634
 6184SOL     OW20390   7.269   3.025  10.094
 6184SOL    HW120391   7.329   3.061  10.158
 6184SOL    HW220392   7.291   3.070  10.012
 6185SOL     OW20393   9.890  13.505   4.673
 6185SOL    HW120394   9.830  13.520   4.746
 6185SOL    HW220395   9.840  13.529   4.595
 6186SOL     OW20396  11.415   2.827   2.806
 6186SOL    HW120397  11.365   2.836   2.887
 6186SOL    HW220398  11.356   2.781   2.747
 6187SOL     OW20399   0.010   0.202  12.293
 6187SOL    HW120400  14.814   0.240  12.247
 6187SOL    HW220401   0.003   0.108  12.277
 6188SOL     OW20402   4.030   8.315   2.193
 6188SOL    HW120403   4.034   8.275   2.106
 6188SOL    HW220404   3.980   8.395   2.181
 6189SOL     OW20405  10.742   5.611  14.363
 6189SOL    HW120406  10.670   5.665  14.328
 6189SOL    HW220407  10.780   5.569  14.286
 6190SOL     OW20408  14.571   3.861   4.302
 6190SOL    HW120409  14.504   3.804   4.340
 6190SOL    HW220410  14.617   3.806   4.239
 6191SOL     OW20411   2.909  11.175   0.432
 6191SOL    HW120412   2.838  11.232   0.462
 6191SOL    HW220413   2.947  11.220   0.357
 6192SOL     OW20414   0.969   7.646   1.010
 6192SOL    HW120415   0.970   7.552   1.026
 6192SOL    HW220416   1.049   7.662   0.960
 6193SOL     OW20417   7.499   5.224   3.206
 6193SOL    HW120418   7.507   5.128   3.204
 6193SOL    HW220419   7.487   5.245   3.299
 6194SOL     OW20420   8.711  14.576  11.328
 6194SOL    HW120421   8.657  14.649  11.296
 6194SOL    HW220422   8.662  14.540  11.401
 6195SOL     OW20423  14.703  10.863   9.378
 6195SOL    HW120424  14.783  10.842   9.329
 6195SOL    HW220425  14.731  10.931   9.440
 6196SOL     OW20426   4.018  10.056  13.993
 6196SOL    HW120427   3.947   9.999  13.965
 6196SOL    HW220428   3.976  10.125  14.044
 6197SOL     OW20429   6.977   1.225   3.242
 6197SOL    HW120430   6.980   1.308   3.289
 6197SOL    HW220431   7.065   1.213   3.208
 6198SOL     OW20432   1.971  12.253   9.464
 6198SOL    HW120433   1.969  12.157   9.471
 6198SOL    HW220434   1.893  12.282   9.511
 6199SOL     OW20435   1.704  12.917   5.031
 6199SOL    HW120436   1.746  12.876   4.955
 6199SOL    HW220437   1.769  12.911   5.101
 6200SOL     OW20438   8.947   9.874   3.805
 6200SOL    HW120439   9.003   9.797   3.796
 6200SOL    HW220440   8.940   9.909   3.716
 6201SOL     OW20441  11.720   3.753   9.050
 6201SOL    HW120442  11.811   3.737   9.025
 6201SOL    HW220443  11.670   3.737   8.969
 6202SOL     OW20444   1.210   4.248   6.960
 6202SOL    HW120445   1.165   4.330   6.980
 6202SOL    HW220446   1.241   4.259   6.870
 6203SOL     OW20447  13.414  11.624  10.536
 6203SOL    HW120448  13.410  11.548  10.478
 6203SOL    HW220449  13.487  11.606  10.594
 6204SOL     OW20450   1.433  11.160   5.792
 6204SOL    HW120451   1.500  11.227   5.805
 6204SOL    HW220452   1.351  11.208   5.784
 6205SOL     OW20453   8.347   4.341   9.308
 6205SOL    HW120454   8.337   4.422   9.258
 6205SOL    HW220455   8.409   4.290   9.256
 6206SOL     OW20456  12.216   3.395   4.867
 6206SOL    HW120457  12.149   3.399   4.936
 6206SOL    HW220458  12.265   3.316   4.886
 6207SOL     OW20459   2.408  10.399   4.555
 6207SOL    HW120460   2.405  10.492   4.575
 6207SOL    HW220461   2.334  10.384   4.497
 6208SOL     OW20462   5.655   6.376  11.100
 6208SOL    HW120463   5.644   6.287  11.134
 6208SOL    HW220464   5.723   6.367  11.033
 6209SOL     OW20465   2.189   4.469  11.351
 6209SOL    HW120466   2.267   4.421  11.324
 6209SOL    HW220467   2.219   4.560  11.358
 6210SOL     OW20468  14.479  11.184   6.103
 6210SOL    HW120469  14.462  11.276   6.124
 6210SOL    HW220470  14.395  11.149   6.073
 6211SOL     OW20471   2.734  10.717  12.033
 6211SOL    HW120472   2.730  10.699  12.126
 6211SOL    HW220473   2.806  10.663  12.001
 6212SOL     OW20474  10.209   5.205  12.449
 6212SOL    HW120475  10.176   5.198  12.538
 6212SOL    HW220476  10.241   5.116  12.428
 6213SOL     OW20477  11.963  13.126  11.606
 6213SOL    HW120478  11.905  13.082  11.668
 6213SOL    HW220479  11.926  13.105  11.520
 6214SOL     OW20480   7.265  11.045   7.331
 6214SOL    HW120481   7.208  11.052   7.408
 6214SOL    HW220482   7.206  11.041   7.257
 6215SOL     OW20483   1.074   4.457   2.379
 6215SOL    HW120484   1.154   4.507   2.397
 6215SOL    HW220485   1.087   4.375   2.426
 6216SOL     OW20486   4.227  14.266   1.246
 6216SOL    HW120487   4.161  14.238   1.182
 6216SOL    HW220488   4.291  14.195   1.247
 6217SOL     OW20489   6.769  10.141   8.784
 6217SOL    HW120490   6.820  10.147   8.865
 6217SOL    HW220491   6.681  10.168   8.809
 6218SOL     OW20492   2.516   6.992   1.488
 6218SOL    HW120493   2.551   7.071   1.448
 6218SOL    HW220494   2.439   6.971   1.435
 6219SOL     OW20495  10.678  11.348   8.297
 6219SOL    HW120496  10.652  11.344   8.389
 6219SOL    HW220497  10.595  11.341   8.249
 6220SOL     OW20498  11.762   9.208  13.918
 6220SOL    HW120499  11.824   9.253  13.860
 6220SOL    HW220500  11.736   9.275  13.981
 6221SOL     OW20501   0.530   7.082   6.553
 6221SOL    HW120502   0.449   7.097   6.602
 6221SOL    HW220503   0.506   7.102   6.462
 6222SOL     OW20504   4.169   1.921   4.901
 6222SOL    HW120505   4.227   1.964   4.838
 6222SOL    HW220506   4.085   1.915   4.856
 6223SOL     OW20507   1.765   9.228   5.515
 6223SOL    HW120508   1.726   9.148   5.550
 6223SOL    HW220509   1.846   9.198   5.473
 6224SOL     OW20510   3.208   7.354   5.780
 6224SOL    HW120511   3.203   7.272   5.830
 6224SOL    HW220512   3.149   7.414   5.827
 6225SOL     OW20513   5.831  12.128   0.750
 6225SOL    HW120514   5.797  12.040   0.732
 6225SOL    HW220515   5.806  12.179   0.673
 6226SOL     OW20516  14.772   4.286   4.637
 6226SOL    HW120517  14.848   4.343   4.622
 6226SOL    HW220518  14.794   4.238   4.717
 6227SOL     OW20519   3.318   7.155   6.800
 6227SOL    HW120520   3.247   7.121   6.745
 6227SOL    HW220521   3.384   7.186   6.738
 6228SOL     OW20522  13.615   8.753   5.445
 6228SOL    HW120523  13.566   8.677   5.475
 6228SOL    HW220524  13.646   8.728   5.357
 6229SOL     OW20525   4.837   5.379  12.505
 6229SOL    HW120526   4.843   5.334  12.421
 6229SOL    HW220527   4.928   5.400  12.528
 6230SOL     OW20528  14.814   6.195   6.206
 6230SOL    HW120529   0.011   6.169   6.257
 6230SOL    HW220530  14.767   6.113   6.189
 6231SOL     OW20531   4.207  12.372   2.884
 6231SOL    HW120532   4.123  12.329   2.870
 6231SOL    HW220533   4.238  12.338   2.968
 6232SOL     OW20534   5.148  14.222  11.315
 6232SOL    HW120535   5.145  14.237  11.221
 6232SOL    HW220536   5.077  14.160  11.332
 6233SOL     OW20537  11.117   3.360   2.565
 6233SOL    HW120538  11.182   3.295   2.592
 6233SOL    HW220539  11.059   3.313   2.505
 6234SOL     OW20540  13.941  12.437   7.756
 6234SOL    HW120541  13.848  12.458   7.753
 6234SOL    HW220542  13.949  12.370   7.824
 6235SOL     OW20543   3.714  11.776   1.252
 6235SOL    HW120544   3.740  11.685   1.263
 6235SOL    HW220545   3.660  11.795   1.328
 6236SOL     OW20546   3.775   7.318  13.126
 6236SOL    HW120547   3.745   7.276  13.045
 6236SOL    HW220548   3.695   7.340  13.173
 6237SOL     OW20549  10.247   2.499   9.429
 6237SOL    HW120550  10.324   2.552   9.449
 6237SOL    HW220551  10.252   2.484   9.334
 6238SOL     OW20552   6.343  10.195   9.841
 6238SOL    HW120553   6.338  10.272   9.784
 6238SOL    HW220554   6.257  10.191   9.883
 6239SOL     OW20555   4.537  11.506   2.053
 6239SOL    HW120556   4.578  11.518   2.139
 6239SOL    HW220557   4.478  11.432   2.064
 6240SOL     OW20558   2.600   1.163  11.131
 6240SOL    HW120559   2.653   1.242  11.143
 6240SOL    HW220560   2.616   1.138  11.040
 6241SOL     OW20561  11.425   2.342   4.249
 6241SOL    HW120562  11.343   2.314   4.209
 6241SOL    HW220563  11.410   2.434   4.272
 6242SOL     OW20564   7.031  12.127  10.876
 6242SOL    HW120565   7.052  12.220  10.875
 6242SOL    HW220566   6.975  12.116  10.952
 6243SOL     OW20567  12.158   7.019   4.143
 6243SOL    HW120568  12.063   7.019   4.131
 6243SOL    HW220569  12.180   7.111   4.159
 6244SOL     OW20570   1.883   6.121  13.037
 6244SOL    HW120571   1.868   6.154  13.126
 6244SOL    HW220572   1.973   6.088  13.038
 6245SOL     OW20573  10.578   0.776   4.254
 6245SOL    HW120574  10.483   0.770   4.248
 6245SOL    HW220575  10.610   0.728   4.177
 6246SOL     OW20576   3.893  10.695  13.660
 6246SOL    HW120577   3.935  10.625  13.710
 6246SOL    HW220578   3.842  10.744  13.725
 6247SOL     OW20579   7.939   9.707   9.200
 6247SOL    HW120580   7.945   9.765   9.276
 6247SOL    HW220581   7.997   9.633   9.221
 6248SOL     OW20582  10.446   5.308   3.463
 6248SOL    HW120583  10.525   5.255   3.447
 6248SOL    HW220584  10.375   5.244   3.469
 6249SOL     OW20585  10.904   4.804   8.490
 6249SOL    HW120586  10.944   4.868   8.549
 6249SOL    HW220587  10.883   4.729   8.545
 6250SOL     OW20588   3.889   7.378   0.094
 6250SOL    HW120589   3.812   7.428   0.121
 6250SOL    HW220590   3.853   7.306   0.042
 6251SOL     OW20591   5.923  10.830  10.449
 6251SOL    HW120592   5.918  10.736  10.469
 6251SOL    HW220593   5.891  10.837  10.360
 6252SOL     OW20594  12.292   0.897  14.580
 6252SOL    HW120595  12.262   0.857  14.662
 6252SOL    HW220596  12.298   0.991  14.600
 6253SOL     OW20597  13.167   5.335   1.078
 6253SOL    HW120598  13.208   5.317   0.993
 6253SOL    HW220599  13.081   5.370   1.057
 6254SOL     OW20600   5.284   5.801  12.307
 6254SOL    HW120601   5.256   5.863  12.240
 6254SOL    HW220602   5.341   5.740  12.261
 6255SOL     OW20603   2.165   1.929   0.246
 6255SOL    HW120604   2.113   2.006   0.222
 6255SOL    HW220605   2.185   1.943   0.339
 6256SOL     OW20606   0.958   9.487  11.069
 6256SOL    HW120607   0.905   9.543  11.012
 6256SOL    HW220608   0.928   9.398  11.049
 6257SOL     OW20609  13.529   4.429  14.389
 6257SOL    HW120610  13.465   4.417  14.319
 6257SOL    HW220611  13.512   4.518  14.421
 6258SOL     OW20612   2.496   2.833   6.216
 6258SOL    HW120613   2.444   2.910   6.195
 6258SOL    HW220614   2.440   2.759   6.190
 6259SOL     OW20615   8.316   4.996  12.625
 6259SOL    HW120616   8.247   4.968  12.565
 6259SOL    HW220617   8.286   4.967  12.711
 6260SOL     OW20618  14.389  13.963   3.460
 6260SOL    HW120619  14.351  14.014   3.531
 6260SOL    HW220620  14.469  13.926   3.497
 6261SOL     OW20621  13.833  14.448   6.811
 6261SOL    HW120622  13.920  14.446   6.771
 6261SOL    HW220623  13.786  14.375   6.770
 6262SOL     OW20624   3.238  11.588  13.344
 6262SOL    HW120625   3.199  11.581  13.257
 6262SOL    HW220626   3.217  11.504  13.386
 6263SOL     OW20627  11.102  10.822   8.619
 6263SOL    HW120628  11.118  10.916   8.612
 6263SOL    HW220629  11.138  10.785   8.539
 6264SOL     OW20630   9.436   5.664   0.231
 6264SOL    HW120631   9.414   5.668   0.324
 6264SOL    HW220632   9.467   5.574   0.218
 6265SOL     OW20633  11.955  12.856   4.630
 6265SOL    HW120634  11.885  12.821   4.685
 6265SOL    HW220635  12.023  12.882   4.693
 6266SOL     OW20636   8.139   1.000   3.411
 6266SOL    HW120637   8.140   1.017   3.316
 6266SOL    HW220638   8.121   0.906   3.418
 6267SOL     OW20639   8.098   5.342   5.398
 6267SOL    HW120640   8.038   5.320   5.326
 6267SOL    HW220641   8.122   5.433   5.382
 6268SOL     OW20642   3.481  11.310   1.673
 6268SOL    HW120643   3.453  11.401   1.680
 6268SOL    HW220644   3.415  11.269   1.617
 6269SOL     OW20645   9.665   0.407  13.542
 6269SOL    HW120646   9.633   0.338  13.484
 6269SOL    HW220647   9.739   0.367  13.588
 6270SOL     OW20648   4.685  11.532   7.911
 6270SOL    HW120649   4.719  11.543   7.822
 6270SOL    HW220650   4.611  11.472   7.901
 6271SOL     OW20651  11.122   8.052   8.884
 6271SOL    HW120652  11.189   8.000   8.928
 6271SOL    HW220653  11.157   8.065   8.796
 6272SOL     OW20654   6.832   2.667   2.909
 6272SOL    HW120655   6.825   2.688   2.816
 6272SOL    HW220656   6.905   2.719   2.941
 6273SOL     OW20657   7.514   6.123   7.639
 6273SOL    HW120658   7.483   6.104   7.550
 6273SOL    HW220659   7.543   6.038   7.673
 6274SOL     OW20660   9.231   6.649   7.242
 6274SOL    HW120661   9.180   6.568   7.243
 6274SOL    HW220662   9.204   6.695   7.321
 6275SOL     OW20663   7.599  10.881  13.358
 6275SOL    HW120664   7.581  10.799  13.312
 6275SOL    HW220665   7.679  10.914  13.317
 6276SOL     OW20666  11.088   8.625   7.235
 6276SOL    HW120667  11.070   8.561   7.166
 6276SOL    HW220668  11.049   8.587   7.314
 6277SOL     OW20669  12.193   5.081   1.621
 6277SOL    HW120670  12.257   5.146   1.653
 6277SOL    HW220671  12.139   5.062   1.697
 6278SOL     OW20672  10.990   1.625   3.690
 6278SOL    HW120673  10.999   1.676   3.610
 6278SOL    HW220674  10.991   1.689   3.760
 6279SOL     OW20675   8.221   8.116   6.273
 6279SOL    HW120676   8.274   8.185   6.313
 6279SOL    HW220677   8.167   8.082   6.344
 6280SOL     OW20678   6.392  13.090   3.607
 6280SOL    HW120679   6.426  13.010   3.645
 6280SOL    HW220680   6.394  13.075   3.512
 6281SOL     OW20681   3.815   9.417   9.795
 6281SOL    HW120682   3.759   9.340   9.789
 6281SOL    HW220683   3.874   9.398   9.868
 6282SOL     OW20684   6.525   5.927   5.292
 6282SOL    HW120685   6.507   6.006   5.343
 6282SOL    HW220686   6.528   5.957   5.202
 6283SOL     OW20687   6.797   0.237   9.338
 6283SOL    HW120688   6.852   0.167   9.373
 6283SOL    HW220689   6.846   0.318   9.356
 6284SOL     OW20690  14.630   6.829  14.434
 6284SOL    HW120691  14.593   6.810  14.520
 6284SOL    HW220692  14.684   6.907  14.447
 6285SOL     OW20693   7.567   8.199   8.743
 6285SOL    HW120694   7.609   8.270   8.692
 6285SOL    HW220695   7.568   8.231   8.833
 6286SOL     OW20696   5.798   2.970   7.181
 6286SOL    HW120697   5.878   2.999   7.139
 6286SOL    HW220698   5.823   2.955   7.272
 6287SOL     OW20699   7.668  14.511   0.731
 6287SOL    HW120700   7.733  14.467   0.675
 6287SOL    HW220701   7.721  14.566   0.789
 6288SOL     OW20702  11.464   1.734  14.491
 6288SOL    HW120703  11.519   1.668  14.533
 6288SOL    HW220704  11.381   1.689  14.474
 6289SOL     OW20705  10.499  12.672   7.256
 6289SOL    HW120706  10.508  12.579   7.274
 6289SOL    HW220707  10.414  12.680   7.212
 6290SOL     OW20708   7.101   9.531  14.218
 6290SOL    HW120709   7.029   9.495  14.271
 6290SOL    HW220710   7.146   9.455  14.182
 6291SOL     OW20711  10.521  13.684   4.802
 6291SOL    HW120712  10.522  13.590   4.783
 6291SOL    HW220713  10.454  13.719   4.744
 6292SOL     OW20714  10.138   4.378   8.549
 6292SOL    HW120715  10.109   4.354   8.637
 6292SOL    HW220716  10.122   4.300   8.496
 6293SOL     OW20717  13.602   5.306   2.846
 6293SOL    HW120718  13.522   5.339   2.886
 6293SOL    HW220719  13.672   5.360   2.884
 6294SOL     OW20720  11.273  11.765   3.925
 6294SOL    HW120721  11.321  11.779   4.007
 6294SOL    HW220722  11.187  11.804   3.941
 6295SOL     OW20723   2.154   8.771   8.136
 6295SOL    HW120724   2.113   8.725   8.209
 6295SOL    HW220725   2.085   8.777   8.070
 6296SOL     OW20726  14.318   1.784   5.123
 6296SOL    HW120727  14.357   1.716   5.069
 6296SOL    HW220728  14.274   1.842   5.061
 6297SOL     OW20729   4.215  11.758  14.312
 6297SOL    HW120730   4.174  11.844  14.316
 6297SOL    HW220731   4.268  11.761  14.232
 6298SOL     OW20732   7.069  12.205  11.898
 6298SOL    HW120733   7.005  12.141  11.930
 6298SOL    HW220734   7.153  12.160  11.904
 6299SOL     OW20735  12.899  13.354  13.250
 6299SOL    HW120736  12.919  13.396  13.166
 6299SOL    HW220737  12.823  13.401  13.283
 6300SOL     OW20738   7.754  11.426   9.922
 6300SOL    HW120739   7.821  11.358   9.915
 6300SOL    HW220740   7.701  11.416   9.843
 6301SOL     OW20741   4.103   5.102   3.661
 6301SOL    HW120742   4.036   5.170   3.651
 6301SOL    HW220743   4.166   5.121   3.592
 6302SOL     OW20744  12.991  10.149  10.486
 6302SOL    HW120745  12.936  10.177  10.413
 6302SOL    HW220746  13.068  10.109  10.445
 6303SOL     OW20747   8.081   0.390  11.729
 6303SOL    HW120748   8.114   0.376  11.639
 6303SOL    HW220749   8.033   0.472  11.724
 6304SOL     OW20750  12.826  12.821   4.040
 6304SOL    HW120751  12.886  12.781   3.976
 6304SOL    HW220752  12.771  12.879   3.987
 6305SOL     OW20753  13.791   2.332   0.811
 6305SOL    HW120754  13.851   2.271   0.853
 6305SOL    HW220755  13.705   2.312   0.848
 6306SOL     OW20756  14.593  10.832   6.500
 6306SOL    HW120757  14.518  10.818   6.557
 6306SOL    HW220758  14.554  10.848   6.414
 6307SOL     OW20759  10.006   8.954  10.513
 6307SOL    HW120760  10.101   8.965  10.510
 6307SOL    HW220761   9.978   8.963  10.422
 6308SOL     OW20762   6.475   9.507   2.437
 6308SOL    HW120763   6.490   9.413   2.445
 6308SOL    HW220764   6.546   9.538   2.381
 6309SOL     OW20765  12.214   4.008   1.922
 6309SOL    HW120766  12.275   3.979   1.855
 6309SOL    HW220767  12.253   4.087   1.958
 6310SOL     OW20768   7.458  11.846   2.293
 6310SOL    HW120769   7.363  11.845   2.280
 6310SOL    HW220770   7.484  11.936   2.277
 6311SOL     OW20771  12.016  14.577  12.725
 6311SOL    HW120772  12.022  14.673  12.727
 6311SOL    HW220773  12.070  14.549  12.799
 6312SOL     OW20774   9.333   9.764  14.824
 6312SOL    HW120775   9.240   9.763  14.800
 6312SOL    HW220776   9.342   9.692   0.008
 6313SOL     OW20777  10.982   5.072   7.109
 6313SOL    HW120778  10.961   5.108   7.195
 6313SOL    HW220779  11.030   5.142   7.065
 6314SOL     OW20780   2.737   3.698  13.546
 6314SOL    HW120781   2.790   3.675  13.469
 6314SOL    HW220782   2.781   3.774  13.584
 6315SOL     OW20783   1.821   7.326  12.201
 6315SOL    HW120784   1.855   7.312  12.290
 6315SOL    HW220785   1.825   7.421  12.189
 6316SOL     OW20786   5.061   1.193   0.208
 6316SOL    HW120787   4.989   1.216   0.149
 6316SOL    HW220788   5.124   1.149   0.152
 6317SOL     OW20789  10.132  13.320  11.023
 6317SOL    HW120790  10.152  13.321  11.116
 6317SOL    HW220791  10.144  13.411  10.995
 6318SOL     OW20792  10.156   0.836   8.788
 6318SOL    HW120793  10.152   0.924   8.827
 6318SOL    HW220794  10.190   0.781   8.859
 6319SOL     OW20795   4.207  12.111   4.730
 6319SOL    HW120796   4.301  12.095   4.741
 6319SOL    HW220797   4.176  12.033   4.683
 6320SOL     OW20798  13.566  13.384  11.311
 6320SOL    HW120799  13.582  13.418  11.223
 6320SOL    HW220800  13.579  13.290  11.303
 6321SOL     OW20801   8.783  12.656   9.006
 6321SOL    HW120802   8.875  12.651   9.031
 6321SOL    HW220803   8.744  12.576   9.041
 6322SOL     OW20804   6.698  10.253   7.916
 6322SOL    HW120805   6.653  10.209   7.844
 6322SOL    HW220806   6.692  10.192   7.989
 6323SOL     OW20807   6.149   5.157   0.133
 6323SOL    HW120808   6.133   5.247   0.159
 6323SOL    HW220809   6.196   5.118   0.208
 6324SOL     OW20810   0.581  14.733  10.734
 6324SOL    HW120811   0.516  14.752  10.802
 6324SOL    HW220812   0.618  14.818  10.712
 6325SOL     OW20813  12.491   8.486   9.525
 6325SOL    HW120814  12.436   8.487   9.447
 6325SOL    HW220815  12.502   8.394   9.546
 6326SOL     OW20816  10.204  13.242  12.379
 6326SOL    HW120817  10.204  13.334  12.354
 6326SOL    HW220818  10.117  13.210  12.354
 6327SOL     OW20819   3.301   6.268   1.995
 6327SOL    HW120820   3.393   6.270   2.024
 6327SOL    HW220821   3.256   6.220   2.065
 6328SOL     OW20822  12.673  11.444   4.496
 6328SOL    HW120823  12.685  11.474   4.586
 6328SOL    HW220824  12.580  11.459   4.477
 6329SOL     OW20825   0.059  11.692  13.856
 6329SOL    HW120826   0.029  11.724  13.771
 6329SOL    HW220827   0.143  11.650  13.837
 6330SOL     OW20828   2.823   0.349  13.538
 6330SOL    HW120829   2.870   0.350  13.621
 6330SOL    HW220830   2.815   0.256  13.516
 6331SOL     OW20831   5.487   8.133  11.570
 6331SOL    HW120832   5.550   8.063  11.553
 6331SOL    HW220833   5.541   8.211  11.584
 6332SOL     OW20834  10.368   4.248   8.811
 6332SOL    HW120835  10.405   4.331   8.840
 6332SOL    HW220836  10.273   4.262   8.812
 6333SOL     OW20837  12.273   1.161  14.611
 6333SOL    HW120838  12.327   1.180  14.687
 6333SOL    HW220839  12.205   1.228  14.612
 6334SOL     OW20840  12.407   6.731   2.590
 6334SOL    HW120841  12.470   6.791   2.631
 6334SOL    HW220842  12.322   6.770   2.608
 6335SOL     OW20843  14.520  12.392   9.718
 6335SOL    HW120844  14.486  12.449   9.649
 6335SOL    HW220845  14.521  12.305   9.677
 6336SOL     OW20846   6.084   3.144   5.858
 6336SOL    HW120847   6.049   3.151   5.769
 6336SOL    HW220848   6.155   3.208   5.861
 6337SOL     OW20849  10.003   9.083   9.573
 6337SOL    HW120850   9.968   9.001   9.609
 6337SOL    HW220851  10.060   9.056   9.501
 6338SOL     OW20852   3.454   5.639  13.828
 6338SOL    HW120853   3.445   5.566  13.890
 6338SOL    HW220854   3.450   5.597  13.742
 6339SOL     OW20855   5.219   7.834  11.895
 6339SOL    HW120856   5.249   7.744  11.882
 6339SOL    HW220857   5.139   7.840  11.843
 6340SOL     OW20858   3.084   2.267   6.809
 6340SOL    HW120859   3.106   2.219   6.889
 6340SOL    HW220860   3.141   2.230   6.742
 6341SOL     OW20861  14.806   2.170   9.248
 6341SOL    HW120862  14.720   2.181   9.289
 6341SOL    HW220863  14.868   2.164   9.321
 6342SOL     OW20864   8.140  10.750   4.451
 6342SOL    HW120865   8.054  10.727   4.485
 6342SOL    HW220866   8.201  10.700   4.506
 6343SOL     OW20867   8.188   6.881   2.621
 6343SOL    HW120868   8.276   6.906   2.649
 6343SOL    HW220869   8.165   6.807   2.676
 6344SOL     OW20870   8.247   5.581  13.494
 6344SOL    HW120871   8.195   5.652  13.531
 6344SOL    HW220872   8.337   5.603  13.517
 6345SOL     OW20873  12.732   6.866  11.947
 6345SOL    HW120874  12.710   6.904  12.032
 6345SOL    HW220875  12.727   6.939  11.886
 6346SOL     OW20876   3.111   3.399  14.174
 6346SOL    HW120877   3.132   3.336  14.105
 6346SOL    HW220878   3.134   3.354  14.255
 6347SOL     OW20879  13.227   2.305  14.650
 6347SOL    HW120880  13.164   2.376  14.660
 6347SOL    HW220881  13.190   2.250  14.580
 6348SOL     OW20882   7.187  12.336   4.640
 6348SOL    HW120883   7.136  12.295   4.570
 6348SOL    HW220884   7.254  12.272   4.662
 6349SOL     OW20885   2.910   8.770   2.510
 6349SOL    HW120886   2.964   8.691   2.511
 6349SOL    HW220887   2.947   8.824   2.439
 6350SOL     OW20888  12.223   3.029   5.158
 6350SOL    HW120889  12.223   3.014   5.063
 6350SOL    HW220890  12.310   3.066   5.176
 6351SOL     OW20891   0.491  11.005   5.457
 6351SOL    HW120892   0.534  11.090   5.448
 6351SOL    HW220893   0.405  11.025   5.493
 6352SOL     OW20894  11.969  11.986   5.772
 6352SOL    HW120895  11.906  12.037   5.823
 6352SOL    HW220896  12.035  11.960   5.836
 6353SOL     OW20897   5.031   6.824   2.857
 6353SOL    HW120898   4.968   6.786   2.918
 6353SOL    HW220899   5.097   6.756   2.845
 6354SOL     OW20900   9.685   7.074  10.611
 6354SOL    HW120901   9.762   7.019  10.597
 6354SOL    HW220902   9.643   7.079  10.525
 6355SOL     OW20903  13.247   8.477  11.431
 6355SOL    HW120904  13.339   8.504  11.420
 6355SOL    HW220905  13.250   8.408  11.497
 6356SOL     OW20906  12.061   3.286   8.812
 6356SOL    HW120907  12.118   3.279   8.889
 6356SOL    HW220908  12.053   3.196   8.780
 6357SOL     OW20909   8.833   0.768  12.205
 6357SOL    HW120910   8.782   0.690  12.225
 6357SOL    HW220911   8.873   0.750  12.121
 6358SOL     OW20912  14.851   9.426   9.177
 6358SOL    HW120913   0.055   9.410   9.220
 6358SOL    HW220914  14.823   9.512   9.208
 6359SOL     OW20915   0.996   6.233   0.801
 6359SOL    HW120916   0.922   6.275   0.759
 6359SOL    HW220917   0.992   6.261   0.893
 6360SOL     OW20918  12.167  10.030   4.753
 6360SOL    HW120919  12.198   9.941   4.770
 6360SOL    HW220920  12.102  10.019   4.683
 6361SOL     OW20921  11.352  10.842   0.978
 6361SOL    HW120922  11.446  10.853   0.966
 6361SOL    HW220923  11.320  10.810   0.894
 6362SOL     OW20924   7.786   7.625  12.544
 6362SOL    HW120925   7.877   7.612  12.516
 6362SOL    HW220926   7.792   7.644  12.637
 6363SOL     OW20927  13.204   6.512   0.790
 6363SOL    HW120928  13.279   6.541   0.738
 6363SOL    HW220929  13.152   6.459   0.730
 6364SOL     OW20930   8.104  10.918   2.482
 6364SOL    HW120931   8.060  10.947   2.562
 6364SOL    HW220932   8.044  10.944   2.412
 6365SOL     OW20933   2.686   0.376  10.983
 6365SOL    HW120934   2.605   0.423  10.962
 6365SOL    HW220935   2.658   0.307  11.044
 6366SOL     OW20936   3.888  13.463   4.448
 6366SOL    HW120937   3.814  13.486   4.503
 6366SOL    HW220938   3.853  13.396   4.388
 6367SOL     OW20939  10.563   2.308   8.438
 6367SOL    HW120940  10.539   2.345   8.523
 6367SOL    HW220941  10.542   2.215   8.445
 6368SOL     OW20942   5.584   3.318  14.464
 6368SOL    HW120943   5.522   3.249  14.489
 6368SOL    HW220944   5.659   3.305  14.523
 6369SOL     OW20945   5.101   3.857   7.970
 6369SOL    HW120946   5.169   3.852   7.903
 6369SOL    HW220947   5.046   3.781   7.954
 6370SOL     OW20948   4.012   7.678   0.562
 6370SOL    HW120949   3.927   7.637   0.547
 6370SOL    HW220950   3.992   7.756   0.613
 6371SOL     OW20951   7.990   0.820   8.363
 6371SOL    HW120952   7.901   0.832   8.395
 6371SOL    HW220953   7.989   0.857   8.275
 6372SOL     OW20954   8.595  12.304  11.430
 6372SOL    HW120955   8.587  12.399  11.439
 6372SOL    HW220956   8.644  12.277  11.508
 6373SOL     OW20957  12.690   7.829   8.724
 6373SOL    HW120958  12.597   7.836   8.702
 6373SOL    HW220959  12.693   7.840   8.819
 6374SOL     OW20960  13.365  10.363   0.077
 6374SOL    HW120961  13.288  10.420   0.072
 6374SOL    HW220962  13.379  10.349   0.170
 6375SOL     OW20963   9.299   0.620   7.777
 6375SOL    HW120964   9.345   0.703   7.784
 6375SOL    HW220965   9.369   0.554   7.768
 6376SOL     OW20966   8.408   4.928   7.831
 6376SOL    HW120967   8.498   4.903   7.847
 6376SOL    HW220968   8.412   4.981   7.751
 6377SOL     OW20969   2.451  10.292   0.174
 6377SOL    HW120970   2.410  10.239   0.242
 6377SOL    HW220971   2.542  10.303   0.203
 6378SOL     OW20972   2.484  14.204  10.086
 6378SOL    HW120973   2.555  14.196  10.022
 6378SOL    HW220974   2.521  14.257  10.156
 6379SOL     OW20975   5.514   4.122   0.974
 6379SOL    HW120976   5.431   4.124   1.020
 6379SOL    HW220977   5.542   4.030   0.978
 6380SOL     OW20978   3.748  13.175   8.865
 6380SOL    HW120979   3.677  13.208   8.921
 6380SOL    HW220980   3.786  13.253   8.826
 6381SOL     OW20981  10.637   0.032  13.375
 6381SOL    HW120982  10.712  14.864  13.413
 6381SOL    HW220983  10.586  14.843  13.332
 6382SOL     OW20984  13.380  10.801  13.047
 6382SOL    HW120985  13.458  10.783  13.099
 6382SOL    HW220986  13.413  10.837  12.965
 6383SOL     OW20987   2.405   4.792   7.440
 6383SOL    HW120988   2.409   4.697   7.433
 6383SOL    HW220989   2.312   4.812   7.453
 6384SOL     OW20990  11.413   8.051  14.366
 6384SOL    HW120991  11.494   8.036  14.317
 6384SOL    HW220992  11.401   7.972  14.418
 6385SOL     OW20993   2.802   5.923   2.366
 6385SOL    HW120994   2.874   5.940   2.426
 6385SOL    HW220995   2.838   5.860   2.303
 6386SOL     OW20996   2.845  12.684   6.087
 6386SOL    HW120997   2.846  12.707   5.995
 6386SOL    HW220998   2.847  12.768   6.133
 6387SOL     OW20999   9.233   8.817   7.673
 6387SOL    HW121000   9.164   8.759   7.640
 6387SOL    HW221001   9.271   8.856   7.594
 6388SOL     OW21002  10.874   5.797   4.884
 6388SOL    HW121003  10.840   5.839   4.804
 6388SOL    HW221004  10.809   5.818   4.951
 6389SOL     OW21005  13.534   4.732   4.405
 6389SOL    HW121006  13.558   4.797   4.472
 6389SOL    HW221007  13.584   4.654   4.428
 6390SOL     OW21008   8.534   0.597  12.771
 6390SOL    HW121009   8.616   0.601  12.723
 6390SOL    HW221010   8.552   0.540  12.846
 6391SOL     OW21011   2.302   3.723  13.763
 6391SOL    HW121012   2.248   3.740  13.840
 6391SOL    HW221013   2.326   3.810  13.731
 6392SOL     OW21014  10.317   6.669  14.786
 6392SOL    HW121015  10.240   6.614  14.771
 6392SOL    HW221016  10.298   6.714  14.868
 6393SOL     OW21017   2.017   3.135   3.879
 6393SOL    HW121018   2.065   3.115   3.960
 6393SOL    HW221019   1.928   3.153   3.908
 6394SOL     OW21020  13.066   1.495   6.973
 6394SOL    HW121021  13.083   1.525   6.884
 6394SOL    HW221022  13.143   1.523   7.023
 6395SOL     OW21023   4.209   7.109   6.283
 6395SOL    HW121024   4.188   7.136   6.372
 6395SOL    HW221025   4.264   7.180   6.249
 6396SOL     OW21026   0.367   5.304   0.215
 6396SOL    HW121027   0.460   5.326   0.206
 6396SOL    HW221028   0.361   5.253   0.296
 6397SOL     OW21029  11.307   0.004   5.589
 6397SOL    HW121030  11.322  14.789   5.582
 6397SOL    HW221031  11.360   0.042   5.519
 6398SOL     OW21032   7.241  14.832   8.189
 6398SOL    HW121033   7.188   0.029   8.165
 6398SOL    HW221034   7.331  14.861   8.176
 6399SOL     OW21035  12.475   1.409   3.491
 6399SOL    HW121036  12.460   1.501   3.508
 6399SOL    HW221037  12.568   1.395   3.510
 6400SOL     OW21038   9.928   9.717  14.122
 6400SOL    HW121039   9.923   9.791  14.062
 6400SOL    HW221040   9.957   9.644  14.068
 6401SOL     OW21041   0.388   6.595   5.398
 6401SOL    HW121042   0.371   6.501   5.405
 6401SOL    HW221043   0.337   6.623   5.321
 6402SOL     OW21044   2.019   3.510   0.710
 6402SOL    HW121045   2.088   3.524   0.645
 6402SOL    HW221046   1.962   3.586   0.702
 6403SOL     OW21047  14.283   8.575  13.778
 6403SOL    HW121048  14.293   8.491  13.733
 6403SOL    HW221049  14.371   8.597  13.808
 6404SOL     OW21050   2.310  12.364   6.507
 6404SOL    HW121051   2.264  12.375   6.591
 6404SOL    HW221052   2.394  12.407   6.520
 6405SOL     OW21053  13.200   3.667   8.051
 6405SOL    HW121054  13.296   3.662   8.058
 6405SOL    HW221055  13.181   3.760   8.054
 6406SOL     OW21056   0.867   4.725   9.288
 6406SOL    HW121057   0.953   4.742   9.325
 6406SOL    HW221058   0.823   4.810   9.287
 6407SOL     OW21059   7.602   0.906   9.983
 6407SOL    HW121060   7.593   0.824  10.031
 6407SOL    HW221061   7.512   0.936   9.971
 6408SOL     OW21062   0.224   4.761  13.191
 6408SOL    HW121063   0.230   4.790  13.100
 6408SOL    HW221064   0.307   4.717  13.208
 6409SOL     OW21065   8.177   9.785   4.823
 6409SOL    HW121066   8.086   9.769   4.800
 6409SOL    HW221067   8.222   9.797   4.739
 6410SOL     OW21068   0.133  11.620  10.857
 6410SOL    HW121069   0.139  11.698  10.802
 6410SOL    HW221070   0.051  11.631  10.905
 6411SOL     OW21071  14.219  11.614   6.229
 6411SOL    HW121072  14.218  11.682   6.296
 6411SOL    HW221073  14.291  11.639   6.171
 6412SOL     OW21074  13.625   0.237   6.070
 6412SOL    HW121075  13.682   0.191   6.132
 6412SOL    HW221076  13.579   0.167   6.023
 6413SOL     OW21077   2.425   4.983   5.115
 6413SOL    HW121078   2.432   4.928   5.193
 6413SOL    HW221079   2.398   5.069   5.148
 6414SOL     OW21080   8.167  11.625   8.694
 6414SOL    HW121081   8.208  11.647   8.778
 6414SOL    HW221082   8.131  11.538   8.707
 6415SOL     OW21083  10.700   7.206   2.359
 6415SOL    HW121084  10.610   7.236   2.344
 6415SOL    HW221085  10.753   7.284   2.351
 6416SOL     OW21086   7.211  12.086   2.516
 6416SOL    HW121087   7.221  12.107   2.423
 6416SOL    HW221088   7.290  12.038   2.538
 6417SOL     OW21089   7.647  12.380   6.639
 6417SOL    HW121090   7.604  12.367   6.555
 6417SOL    HW221091   7.608  12.315   6.697
 6418SOL     OW21092  10.321  11.221  11.258
 6418SOL    HW121093  10.343  11.290  11.196
 6418SOL    HW221094  10.247  11.255  11.307
 6419SOL     OW21095   6.099   9.056   5.915
 6419SOL    HW121096   6.067   8.967   5.928
 6419SOL    HW221097   6.172   9.065   5.977
 6420SOL     OW21098  13.775   2.708  10.966
 6420SOL    HW121099  13.853   2.686  10.914
 6420SOL    HW221100  13.705   2.716  10.901
 6421SOL     OW21101   2.933  13.521  11.026
 6421SOL    HW121102   2.912  13.592  10.966
 6421SOL    HW221103   2.940  13.443  10.971
 6422SOL     OW21104   6.245   9.455   5.124
 6422SOL    HW121105   6.192   9.494   5.193
 6422SOL    HW221106   6.259   9.365   5.153
 6423SOL     OW21107   8.060   6.233   6.508
 6423SOL    HW121108   7.990   6.229   6.444
 6423SOL    HW221109   8.031   6.296   6.573
 6424SOL     OW21110   6.754   8.154  14.611
 6424SOL    HW121111   6.761   8.211  14.534
 6424SOL    HW221112   6.750   8.215  14.685
 6425SOL     OW21113   2.627   2.848   3.231
 6425SOL    HW121114   2.562   2.919   3.228
 6425SOL    HW221115   2.710   2.891   3.210
 6426SOL     OW21116  12.582   2.325  11.608
 6426SOL    HW121117  12.594   2.411  11.568
 6426SOL    HW221118  12.498   2.332  11.653
 6427SOL     OW21119   9.630   6.997   2.229
 6427SOL    HW121120   9.715   7.013   2.270
 6427SOL    HW221121   9.586   6.935   2.287
 6428SOL     OW21122   7.576   6.415   8.390
 6428SOL    HW121123   7.574   6.433   8.296
 6428SOL    HW221124   7.637   6.480   8.426
 6429SOL     OW21125  12.818  10.906   4.014
 6429SOL    HW121126  12.834  10.894   4.107
 6429SOL    HW221127  12.905  10.915   3.975
 6430SOL     OW21128   2.041   2.984   1.739
 6430SOL    HW121129   2.068   3.056   1.795
 6430SOL    HW221130   2.107   2.916   1.753
 6431SOL     OW21131   2.299  12.467  10.992
 6431SOL    HW121132   2.268  12.557  10.984
 6431SOL    HW221133   2.248  12.418  10.928
 6432SOL     OW21134   1.604   1.824   9.289
 6432SOL    HW121135   1.532   1.791   9.342
 6432SOL    HW221136   1.675   1.840   9.352
 6433SOL     OW21137   8.449   3.625   0.272
 6433SOL    HW121138   8.483   3.646   0.185
 6433SOL    HW221139   8.390   3.551   0.258
 6434SOL     OW21140  14.809   3.722   9.751
 6434SOL    HW121141  14.719   3.717   9.719
 6434SOL    HW221142  14.839   3.809   9.724
 6435SOL     OW21143   3.907   8.137   0.545
 6435SOL    HW121144   3.929   8.230   0.551
 6435SOL    HW221145   3.965   8.094   0.608
 6436SOL     OW21146   7.159   5.902   7.349
 6436SOL    HW121147   7.084   5.866   7.397
 6436SOL    HW221148   7.211   5.826   7.324
 6437SOL     OW21149   1.135   4.691   6.681
 6437SOL    HW121150   1.055   4.665   6.637
 6437SOL    HW221151   1.176   4.609   6.708
 6438SOL     OW21152   9.989   6.103   2.504
 6438SOL    HW121153   9.921   6.101   2.436
 6438SOL    HW221154   9.983   6.192   2.540
 6439SOL     OW21155  10.535  10.313   1.994
 6439SOL    HW121156  10.477  10.251   1.949
 6439SOL    HW221157  10.485  10.394   1.997
 6440SOL     OW21158   7.516   7.678  13.634
 6440SOL    HW121159   7.588   7.623  13.603
 6440SOL    HW221160   7.535   7.692  13.727
 6441SOL     OW21161  10.921  12.744   8.520
 6441SOL    HW121162  10.910  12.833   8.554
 6441SOL    HW221163  10.833  12.706   8.523
 6442SOL     OW21164   0.446   4.701   2.311
 6442SOL    HW121165   0.439   4.608   2.331
 6442SOL    HW221166   0.482   4.704   2.222
 6443SOL     OW21167  11.383   7.530  14.364
 6443SOL    HW121168  11.391   7.573  14.279
 6443SOL    HW221169  11.306   7.474  14.355
 6444SOL     OW21170   7.003   3.697   6.096
 6444SOL    HW121171   6.986   3.666   6.185
 6444SOL    HW221172   7.094   3.724   6.096
 6445SOL     OW21173   4.978   9.043   3.559
 6445SOL    HW121174   5.023   9.062   3.642
 6445SOL    HW221175   5.042   8.992   3.508
 6446SOL     OW21176   4.850  10.965  11.377
 6446SOL    HW121177   4.872  10.944  11.286
 6446SOL    HW221178   4.867  10.884  11.425
 6447SOL     OW21179   8.164   2.743  11.735
 6447SOL    HW121180   8.176   2.716  11.645
 6447SOL    HW221181   8.251   2.775  11.762
 6448SOL     OW21182   3.044  12.411   9.023
 6448SOL    HW121183   3.072  12.500   9.043
 6448SOL    HW221184   3.027  12.372   9.109
 6449SOL     OW21185   0.288   0.347  12.888
 6449SOL    HW121186   0.206   0.388  12.859
 6449SOL    HW221187   0.288   0.261  12.846
 6450SOL     OW21188   4.352   8.235  14.534
 6450SOL    HW121189   4.422   8.263  14.594
 6450SOL    HW221190   4.373   8.280  14.452
 6451SOL     OW21191   7.098  13.017   8.574
 6451SOL    HW121192   7.100  13.076   8.649
 6451SOL    HW221193   7.008  12.984   8.572
 6452SOL     OW21194   6.419   9.757  12.239
 6452SOL    HW121195   6.462   9.696  12.178
 6452SOL    HW221196   6.385   9.827  12.183
 6453SOL     OW21197   8.619  14.762   8.992
 6453SOL    HW121198   8.553  14.696   8.972
 6453SOL    HW221199   8.581  14.813   9.063
 6454SOL     OW21200   2.102  13.108   8.631
 6454SOL    HW121201   2.016  13.067   8.623
 6454SOL    HW221202   2.131  13.123   8.541
 6455SOL     OW21203   1.416   7.881   1.414
 6455SOL    HW121204   1.363   7.836   1.348
 6455SOL    HW221205   1.478   7.815   1.445
 6456SOL     OW21206  10.716   3.235   0.568
 6456SOL    HW121207  10.703   3.179   0.491
 6456SOL    HW221208  10.628   3.245   0.605
 6457SOL     OW21209   4.060  12.476   8.874
 6457SOL    HW121210   4.000  12.404   8.895
 6457SOL    HW221211   4.125  12.437   8.815
 6458SOL     OW21212   4.186   5.994  13.284
 6458SOL    HW121213   4.243   5.998  13.207
 6458SOL    HW221214   4.115   5.936  13.257
 6459SOL     OW21215  14.148  13.520  11.380
 6459SOL    HW121216  14.106  13.438  11.353
 6459SOL    HW221217  14.240  13.508  11.359
 6460SOL     OW21218   2.417   0.283   2.774
 6460SOL    HW121219   2.406   0.368   2.732
 6460SOL    HW221220   2.328   0.249   2.782
 6461SOL     OW21221  13.496  14.763  13.386
 6461SOL    HW121222  13.508  14.810  13.469
 6461SOL    HW221223  13.508  14.671  13.409
 6462SOL     OW21224  13.081   1.431   7.507
 6462SOL    HW121225  13.084   1.526   7.502
 6462SOL    HW221226  13.150   1.402   7.447
 6463SOL     OW21227  11.549  10.148   6.099
 6463SOL    HW121228  11.495  10.226   6.114
 6463SOL    HW221229  11.568  10.149   6.006
 6464SOL     OW21230   6.530  13.499   9.675
 6464SOL    HW121231   6.569  13.427   9.726
 6464SOL    HW221232   6.541  13.576   9.731
 6465SOL     OW21233   6.707   1.751  10.908
 6465SOL    HW121234   6.751   1.669  10.888
 6465SOL    HW221235   6.743   1.814  10.845
 6466SOL     OW21236   2.692  12.872  10.154
 6466SOL    HW121237   2.755  12.809  10.119
 6466SOL    HW221238   2.688  12.941  10.088
 6467SOL     OW21239   1.581   1.015   0.202
 6467SOL    HW121240   1.591   1.104   0.168
 6467SOL    HW221241   1.611   1.021   0.293
 6468SOL     OW21242  11.071  10.378  13.027
 6468SOL    HW121243  11.105  10.294  12.996
 6468SOL    HW221244  11.044  10.360  13.118
 6469SOL     OW21245   7.946   1.582  12.220
 6469SOL    HW121246   8.004   1.579  12.144
 6469SOL    HW221247   7.976   1.511  12.277
 6470SOL     OW21248   3.136   6.334   8.659
 6470SOL    HW121249   3.149   6.372   8.746
 6470SOL    HW221250   3.224   6.318   8.627
 6471SOL     OW21251  11.844   0.638  13.626
 6471SOL    HW121252  11.855   0.722  13.670
 6471SOL    HW221253  11.759   0.606  13.657
 6472SOL     OW21254   5.016   4.644  11.751
 6472SOL    HW121255   4.956   4.667  11.822
 6472SOL    HW221256   5.101   4.634  11.795
 6473SOL     OW21257   1.246   9.164   5.830
 6473SOL    HW121258   1.208   9.169   5.742
 6473SOL    HW221259   1.321   9.223   5.827
 6474SOL     OW21260   1.004   7.074  12.650
 6474SOL    HW121261   1.079   7.032  12.607
 6474SOL    HW221262   0.953   7.112  12.578
 6475SOL     OW21263  13.220   8.434  13.485
 6475SOL    HW121264  13.142   8.383  13.462
 6475SOL    HW221265  13.193   8.484  13.562
 6476SOL     OW21266   8.615   9.021   3.626
 6476SOL    HW121267   8.621   9.105   3.673
 6476SOL    HW221268   8.687   8.969   3.661
 6477SOL     OW21269  13.342   6.215   3.559
 6477SOL    HW121270  13.409   6.279   3.536
 6477SOL    HW221271  13.377   6.131   3.527
 6478SOL     OW21272  10.228   9.829  10.157
 6478SOL    HW121273  10.276   9.848  10.076
 6478SOL    HW221274  10.204   9.737  10.150
 6479SOL     OW21275   8.634   7.380  12.676
 6479SOL    HW121276   8.717   7.337  12.699
 6479SOL    HW221277   8.566   7.317  12.701
 6480SOL     OW21278   8.569  13.754  12.890
 6480SOL    HW121279   8.623  13.681  12.858
 6480SOL    HW221280   8.534  13.723  12.973
 6481SOL     OW21281   5.120   5.962   5.504
 6481SOL    HW121282   5.173   6.018   5.447
 6481SOL    HW221283   5.065   6.023   5.553
 6482SOL     OW21284  14.449   6.427   7.724
 6482SOL    HW121285  14.422   6.473   7.803
 6482SOL    HW221286  14.398   6.346   7.724
 6483SOL     OW21287  11.742   1.529  12.719
 6483SOL    HW121288  11.677   1.461  12.736
 6483SOL    HW221289  11.792   1.537  12.800
 6484SOL     OW21290   7.694  10.232  12.939
 6484SOL    HW121291   7.673  10.145  12.972
 6484SOL    HW221292   7.770  10.218  12.883
 6485SOL     OW21293  11.198   9.727  11.503
 6485SOL    HW121294  11.215   9.636  11.527
 6485SOL    HW221295  11.238   9.737  11.417
 6486SOL     OW21296   1.760   1.051   5.441
 6486SOL    HW121297   1.809   1.039   5.522
 6486SOL    HW221298   1.770   0.967   5.395
 6487SOL     OW21299  12.039   5.183   6.179
 6487SOL    HW121300  11.953   5.183   6.219
 6487SOL    HW221301  12.022   5.191   6.085
 6488SOL     OW21302  11.885   1.655  11.423
 6488SOL    HW121303  11.937   1.655  11.503
 6488SOL    HW221304  11.845   1.569  11.420
 6489SOL     OW21305   9.308   6.779   4.161
 6489SOL    HW121306   9.347   6.700   4.199
 6489SOL    HW221307   9.322   6.846   4.228
 6490SOL     OW21308   8.845   9.057  14.636
 6490SOL    HW121309   8.907   9.117  14.676
 6490SOL    HW221310   8.805   9.011  14.710
 6491SOL     OW21311   7.476   6.646   6.236
 6491SOL    HW121312   7.493   6.690   6.152
 6491SOL    HW221313   7.401   6.692   6.272
 6492SOL     OW21314  11.775   3.059   9.426
 6492SOL    HW121315  11.713   3.024   9.489
 6492SOL    HW221316  11.782   2.992   9.358
 6493SOL     OW21317  11.497  10.493  10.987
 6493SOL    HW121318  11.442  10.572  10.993
 6493SOL    HW221319  11.551  10.496  11.066
 6494SOL     OW21320  12.075  12.805  12.090
 6494SOL    HW121321  12.003  12.750  12.060
 6494SOL    HW221322  12.141  12.743  12.120
 6495SOL     OW21323  11.671   3.594  12.309
 6495SOL    HW121324  11.663   3.662  12.242
 6495SOL    HW221325  11.715   3.522  12.264
 6496SOL     OW21326  10.982   7.915   8.236
 6496SOL    HW121327  11.048   7.875   8.293
 6496SOL    HW221328  10.912   7.850   8.233
 6497SOL     OW21329   3.861   7.008   1.882
 6497SOL    HW121330   3.869   6.925   1.836
 6497SOL    HW221331   3.891   7.073   1.819
 6498SOL     OW21332  10.424   4.288  11.485
 6498SOL    HW121333  10.443   4.210  11.434
 6498SOL    HW221334  10.510   4.315  11.519
 6499SOL     OW21335   8.159   2.611   3.653
 6499SOL    HW121336   8.108   2.548   3.704
 6499SOL    HW221337   8.103   2.689   3.648
 6500SOL     OW21338   7.452   2.948  12.038
 6500SOL    HW121339   7.483   3.005  11.968
 6500SOL    HW221340   7.461   2.859  12.003
 6501SOL     OW21341   7.205   2.190   9.721
 6501SOL    HW121342   7.142   2.201   9.793
 6501SOL    HW221343   7.252   2.273   9.719
 6502SOL     OW21344  10.284   4.706  11.186
 6502SOL    HW121345  10.358   4.707  11.246
 6502SOL    HW221346  10.221   4.768  11.225
 6503SOL     OW21347   7.331  12.583   3.944
 6503SOL    HW121348   7.355  12.664   3.899
 6503SOL    HW221349   7.335  12.605   4.037
 6504SOL     OW21350   3.308   7.645   1.679
 6504SOL    HW121351   3.285   7.578   1.614
 6504SOL    HW221352   3.323   7.596   1.760
 6505SOL     OW21353   6.587   7.263   9.206
 6505SOL    HW121354   6.551   7.258   9.117
 6505SOL    HW221355   6.525   7.214   9.260
 6506SOL     OW21356   3.546  10.120   0.200
 6506SOL    HW121357   3.641  10.119   0.194
 6506SOL    HW221358   3.516  10.096   0.112
 6507SOL     OW21359   1.426   1.405   8.655
 6507SOL    HW121360   1.390   1.411   8.744
 6507SOL    HW221361   1.356   1.364   8.604
 6508SOL     OW21362   1.245   1.293   1.787
 6508SOL    HW121363   1.230   1.208   1.746
 6508SOL    HW221364   1.305   1.275   1.860
 6509SOL     OW21365  10.027  11.873   1.578
 6509SOL    HW121366  10.082  11.882   1.656
 6509SOL    HW221367   9.949  11.827   1.609
 6510SOL     OW21368   0.148   6.654   7.433
 6510SOL    HW121369   0.182   6.565   7.430
 6510SOL    HW221370   0.198   6.697   7.503
 6511SOL     OW21371  13.979   9.109   8.660
 6511SOL    HW121372  13.969   9.013   8.664
 6511SOL    HW221373  14.046   9.128   8.727
 6512SOL     OW21374   2.466  11.171   6.218
 6512SOL    HW121375   2.489  11.156   6.309
 6512SOL    HW221376   2.436  11.086   6.187
 6513SOL     OW21377   5.622   1.955   6.983
 6513SOL    HW121378   5.654   1.939   6.894
 6513SOL    HW221379   5.701   1.953   7.037
 6514SOL     OW21380   3.737   7.887   9.050
 6514SOL    HW121381   3.680   7.953   9.009
 6514SOL    HW221382   3.798   7.863   8.981
 6515SOL     OW21383   8.521   2.922  12.845
 6515SOL    HW121384   8.593   2.876  12.889
 6515SOL    HW221385   8.486   2.859  12.782
 6516SOL     OW21386  10.486   1.432  10.063
 6516SOL    HW121387  10.532   1.421  10.146
 6516SOL    HW221388  10.433   1.511  10.075
 6517SOL     OW21389   1.475  10.780   0.130
 6517SOL    HW121390   1.451  10.826   0.049
 6517SOL    HW221391   1.404  10.801   0.191
 6518SOL     OW21392  12.912   9.845   7.178
 6518SOL    HW121393  12.881   9.762   7.216
 6518SOL    HW221394  12.888   9.911   7.244
 6519SOL     OW21395   9.352   2.840   8.212
 6519SOL    HW121396   9.442   2.869   8.198
 6519SOL    HW221397   9.302   2.920   8.223
 6520SOL     OW21398  10.973   4.741   9.282
 6520SOL    HW121399  10.922   4.767   9.358
 6520SOL    HW221400  11.060   4.776   9.298
 6521SOL     OW21401   7.309   9.052   6.870
 6521SOL    HW121402   7.239   9.039   6.806
 6521SOL    HW221403   7.327   9.146   6.867
 6522SOL     OW21404   2.808   6.859   4.516
 6522SOL    HW121405   2.724   6.899   4.538
 6522SOL    HW221406   2.873   6.916   4.558
 6523SOL     OW21407   7.485   0.575  11.397
 6523SOL    HW121408   7.505   0.528  11.317
 6523SOL    HW221409   7.460   0.507  11.459
 6524SOL     OW21410  12.459   2.898   8.773
 6524SOL    HW121411  12.455   2.882   8.867
 6524SOL    HW221412  12.530   2.842   8.742
 6525SOL     OW21413  11.848   6.783   2.856
 6525SOL    HW121414  11.868   6.758   2.766
 6525SOL    HW221415  11.841   6.878   2.854
 6526SOL     OW21416   9.563   2.535  14.124
 6526SOL    HW121417   9.480   2.519  14.079
 6526SOL    HW221418   9.630   2.517  14.058
 6527SOL     OW21419  11.468   9.095  10.580
 6527SOL    HW121420  11.563   9.082  10.580
 6527SOL    HW221421  11.445   9.105  10.672
 6528SOL     OW21422   8.234   6.105   0.140
 6528SOL    HW121423   8.216   6.149   0.057
 6528SOL    HW221424   8.194   6.019   0.130
 6529SOL     OW21425   4.737   3.219   5.071
 6529SOL    HW121426   4.715   3.208   5.163
 6529SOL    HW221427   4.722   3.133   5.031
 6530SOL     OW21428  13.497   1.065   8.422
 6530SOL    HW121429  13.581   1.110   8.409
 6530SOL    HW221430  13.435   1.136   8.440
 6531SOL     OW21431  13.367  12.122   0.810
 6531SOL    HW121432  13.405  12.086   0.730
 6531SOL    HW221433  13.389  12.215   0.808
 6532SOL     OW21434  14.403   6.937   3.620
 6532SOL    HW121435  14.351   6.918   3.542
 6532SOL    HW221436  14.412   6.853   3.664
 6533SOL     OW21437   6.267   0.593   3.977
 6533SOL    HW121438   6.174   0.618   3.985
 6533SOL    HW221439   6.307   0.666   3.930
 6534SOL     OW21440  12.395   0.602   7.439
 6534SOL    HW121441  12.378   0.580   7.530
 6534SOL    HW221442  12.402   0.518   7.394
 6535SOL     OW21443   4.333   9.508   2.363
 6535SOL    HW121444   4.312   9.494   2.271
 6535SOL    HW221445   4.303   9.429   2.407
 6536SOL     OW21446  12.384   9.555   1.900
 6536SOL    HW121447  12.328   9.630   1.921
 6536SOL    HW221448  12.329   9.500   1.843
 6537SOL     OW21449  10.889  11.866   0.356
 6537SOL    HW121450  10.807  11.817   0.359
 6537SOL    HW221451  10.957  11.800   0.343
 6538SOL     OW21452  13.931  10.492   9.072
 6538SOL    HW121453  13.844  10.503   9.111
 6538SOL    HW221454  13.987  10.548   9.126
 6539SOL     OW21455  14.248   9.450  12.872
 6539SOL    HW121456  14.314   9.475  12.807
 6539SOL    HW221457  14.250   9.354  12.873
 6540SOL     OW21458   9.304   5.655   7.502
 6540SOL    HW121459   9.251   5.692   7.572
 6540SOL    HW221460   9.267   5.568   7.486
 6541SOL     OW21461   1.441   8.707   3.764
 6541SOL    HW121462   1.415   8.690   3.854
 6541SOL    HW221463   1.419   8.799   3.750
 6542SOL     OW21464   1.933  11.881   8.980
 6542SOL    HW121465   2.019  11.899   8.942
 6542SOL    HW221466   1.910  11.961   9.027
 6543SOL     OW21467   1.103   1.922  12.261
 6543SOL    HW121468   1.058   1.894  12.181
 6543SOL    HW221469   1.196   1.911  12.242
 6544SOL     OW21470   7.428   2.668   9.465
 6544SOL    HW121471   7.350   2.723   9.473
 6544SOL    HW221472   7.400   2.582   9.498
 6545SOL     OW21473   0.672  12.663   5.404
 6545SOL    HW121474   0.610  12.623   5.465
 6545SOL    HW221475   0.656  12.757   5.412
 6546SOL     OW21476   8.412   5.418   9.040
 6546SOL    HW121477   8.481   5.354   9.057
 6546SOL    HW221478   8.459   5.499   9.024
 6547SOL     OW21479   7.558  12.943  13.099
 6547SOL    HW121480   7.574  12.938  13.004
 6547SOL    HW221481   7.635  12.904  13.138
 6548SOL     OW21482  10.087   1.554   1.660
 6548SOL    HW121483  10.162   1.551   1.601
 6548SOL    HW221484  10.072   1.647   1.675
 6549SOL     OW21485   0.586  13.466   0.052
 6549SOL    HW121486   0.527  13.511  14.872
 6549SOL    HW221487   0.673  13.497   0.028
 6550SOL     OW21488  11.970  14.525   0.673
 6550SOL    HW121489  11.975  14.453   0.611
 6550SOL    HW221490  11.922  14.490   0.748
 6551SOL     OW21491  14.131  14.118   1.088
 6551SOL    HW121492  14.093  14.063   1.019
 6551SOL    HW221493  14.164  14.195   1.041
 6552SOL     OW21494  14.507  11.871   5.516
 6552SOL    HW121495  14.539  11.897   5.429
 6552SOL    HW221496  14.587  11.850   5.565
 6553SOL     OW21497   5.000   7.515   0.878
 6553SOL    HW121498   4.969   7.439   0.926
 6553SOL    HW221499   5.075   7.547   0.928
 6554SOL     OW21500   5.381   4.538   6.916
 6554SOL    HW121501   5.440   4.464   6.904
 6554SOL    HW221502   5.386   4.586   6.833
 6555SOL     OW21503   5.473  12.786  13.785
 6555SOL    HW121504   5.456  12.769  13.692
 6555SOL    HW221505   5.529  12.863  13.785
 6556SOL     OW21506   4.012   0.786   6.861
 6556SOL    HW121507   4.000   0.762   6.769
 6556SOL    HW221508   3.947   0.854   6.876
 6557SOL     OW21509   4.702   3.788   8.563
 6557SOL    HW121510   4.631   3.844   8.596
 6557SOL    HW221511   4.667   3.750   8.483
 6558SOL     OW21512   7.157   2.435   9.195
 6558SOL    HW121513   7.230   2.399   9.144
 6558SOL    HW221514   7.105   2.358   9.219
 6559SOL     OW21515   2.962   7.152   3.947
 6559SOL    HW121516   3.044   7.104   3.960
 6559SOL    HW221517   2.947   7.148   3.852
 6560SOL     OW21518  14.207  12.260   4.934
 6560SOL    HW121519  14.235  12.174   4.900
 6560SOL    HW221520  14.209  12.317   4.858
 6561SOL     OW21521   3.701   9.104  10.987
 6561SOL    HW121522   3.712   9.009  10.985
 6561SOL    HW221523   3.683   9.128  10.896
 6562SOL     OW21524   6.290  12.276   5.589
 6562SOL    HW121525   6.320  12.340   5.653
 6562SOL    HW221526   6.271  12.327   5.510
 6563SOL     OW21527   3.839   4.030  13.876
 6563SOL    HW121528   3.880   4.037  13.962
 6563SOL    HW221529   3.884   4.097  13.823
 6564SOL     OW21530  11.418   9.127   6.178
 6564SOL    HW121531  11.395   9.035   6.191
 6564SOL    HW221532  11.508   9.125   6.145
 6565SOL     OW21533   4.347  11.239   8.806
 6565SOL    HW121534   4.337  11.321   8.854
 6565SOL    HW221535   4.401  11.261   8.730
 6566SOL     OW21536  13.153   3.926   6.253
 6566SOL    HW121537  13.135   3.856   6.189
 6566SOL    HW221538  13.071   3.936   6.301
 6567SOL     OW21539  14.176  13.060   1.016
 6567SOL    HW121540  14.145  13.146   0.989
 6567SOL    HW221541  14.175  13.008   0.935
 6568SOL     OW21542  12.745  11.025   0.796
 6568SOL    HW121543  12.666  11.002   0.844
 6568SOL    HW221544  12.752  10.957   0.728
 6569SOL     OW21545   0.627   0.507   1.449
 6569SOL    HW121546   0.562   0.557   1.399
 6569SOL    HW221547   0.708   0.557   1.439
 6570SOL     OW21548   1.582  14.846  13.362
 6570SOL    HW121549   1.504  14.790  13.353
 6570SOL    HW221550   1.560   0.027  13.432
 6571SOL     OW21551  11.056   9.668   9.264
 6571SOL    HW121552  11.087   9.590   9.218
 6571SOL    HW221553  10.962   9.652   9.277
 6572SOL     OW21554  10.558  11.249  10.879
 6572SOL    HW121555  10.605  11.286  10.955
 6572SOL    HW221556  10.627  11.216  10.822
 6573SOL     OW21557   2.333   4.550   6.147
 6573SOL    HW121558   2.333   4.572   6.240
 6573SOL    HW221559   2.351   4.633   6.103
 6574SOL     OW21560   0.612  14.003  14.158
 6574SOL    HW121561   0.591  14.083  14.207
 6574SOL    HW221562   0.708  14.005  14.150
 6575SOL     OW21563   4.894   3.826   8.264
 6575SOL    HW121564   4.921   3.775   8.188
 6575SOL    HW221565   4.833   3.770   8.311
 6576SOL     OW21566   8.049  12.302  12.010
 6576SOL    HW121567   8.054  12.369  11.942
 6576SOL    HW221568   8.074  12.347  12.091
 6577SOL     OW21569  10.337   8.346   9.892
 6577SOL    HW121570  10.321   8.440   9.899
 6577SOL    HW221571  10.252   8.309   9.868
 6578SOL     OW21572   1.673   5.452   3.871
 6578SOL    HW121573   1.651   5.490   3.956
 6578SOL    HW221574   1.651   5.521   3.808
 6579SOL     OW21575   7.527  14.468   4.800
 6579SOL    HW121576   7.569  14.490   4.717
 6579SOL    HW221577   7.583  14.400   4.837
 6580SOL     OW21578  11.440  10.449  13.304
 6580SOL    HW121579  11.505  10.402  13.251
 6580SOL    HW221580  11.431  10.396  13.384
 6581SOL     OW21581   2.104  12.169   5.657
 6581SOL    HW121582   2.175  12.109   5.630
 6581SOL    HW221583   2.037  12.111   5.692
 6582SOL     OW21584   1.562   0.934   1.105
 6582SOL    HW121585   1.557   0.844   1.137
 6582SOL    HW221586   1.588   0.985   1.181
 6583SOL     OW21587   9.214   3.224  10.383
 6583SOL    HW121588   9.255   3.143  10.352
 6583SOL    HW221589   9.287   3.282  10.405
 6584SOL     OW21590  12.735   5.466   4.877
 6584SOL    HW121591  12.643   5.493   4.885
 6584SOL    HW221592  12.775   5.532   4.820
 6585SOL     OW21593  13.178   5.507   0.618
 6585SOL    HW121594  13.234   5.459   0.679
 6585SOL    HW221595  13.089   5.491   0.649
 6586SOL     OW21596   4.904  12.112   0.822
 6586SOL    HW121597   4.842  12.104   0.749
 6586SOL    HW221598   4.871  12.051   0.887
 6587SOL     OW21599   8.099   5.484   4.738
 6587SOL    HW121600   8.119   5.574   4.764
 6587SOL    HW221601   8.169   5.461   4.677
 6588SOL     OW21602   6.166   6.218   6.505
 6588SOL    HW121603   6.084   6.202   6.459
 6588SOL    HW221604   6.198   6.301   6.469
 6589SOL     OW21605   8.244   7.530  13.771
 6589SOL    HW121606   8.210   7.479  13.697
 6589SOL    HW221607   8.208   7.618  13.758
 6590SOL     OW21608   9.860   0.127   8.632
 6590SOL    HW121609   9.952   0.145   8.652
 6590SOL    HW221610   9.817   0.212   8.634
 6591SOL     OW21611   4.856  13.168   6.961
 6591SOL    HW121612   4.782  13.161   7.022
 6591SOL    HW221613   4.932  13.143   7.014
 6592SOL     OW21614   6.120   0.134   5.698
 6592SOL    HW121615   6.126   0.202   5.631
 6592SOL    HW221616   6.189   0.072   5.675
 6593SOL     OW21617   5.179   5.761   3.531
 6593SOL    HW121618   5.215   5.828   3.589
 6593SOL    HW221619   5.102   5.727   3.578
 6594SOL     OW21620   9.502   1.609   9.287
 6594SOL    HW121621   9.545   1.676   9.234
 6594SOL    HW221622   9.452   1.659   9.352
 6595SOL     OW21623   8.185   7.181   1.051
 6595SOL    HW121624   8.266   7.231   1.044
 6595SOL    HW221625   8.130   7.232   1.111
 6596SOL     OW21626   7.882   9.960   4.749
 6596SOL    HW121627   7.886   9.866   4.766
 6596SOL    HW221628   7.915  10.000   4.829
 6597SOL     OW21629  11.168  13.116   8.647
 6597SOL    HW121630  11.103  13.064   8.696
 6597SOL    HW221631  11.183  13.066   8.567
 6598SOL     OW21632  14.670   3.796   8.426
 6598SOL    HW121633  14.591   3.801   8.479
 6598SOL    HW221634  14.728   3.737   8.475
 6599SOL     OW21635  11.123   8.690   0.521
 6599SOL    HW121636  11.207   8.646   0.509
 6599SOL    HW221637  11.078   8.639   0.589
 6600SOL     OW21638   7.787   9.450  12.758
 6600SOL    HW121639   7.748   9.412  12.837
 6600SOL    HW221640   7.857   9.388  12.734
 6601SOL     OW21641   6.347   0.167   7.890
 6601SOL    HW121642   6.324   0.199   7.803
 6601SOL    HW221643   6.388   0.082   7.874
 6602SOL     OW21644   9.535  13.325   2.913
 6602SOL    HW121645   9.497  13.396   2.963
 6602SOL    HW221646   9.614  13.362   2.873
 6603SOL     OW21647   0.773   6.770   2.464
 6603SOL    HW121648   0.765   6.742   2.373
 6603SOL    HW221649   0.694   6.821   2.481
 6604SOL     OW21650   5.587   3.670   3.462
 6604SOL    HW121651   5.557   3.658   3.552
 6604SOL    HW221652   5.649   3.599   3.447
 6605SOL     OW21653  12.589  11.364   9.672
 6605SOL    HW121654  12.600  11.349   9.766
 6605SOL    HW221655  12.504  11.409   9.664
 6606SOL     OW21656   4.704   8.912   3.568
 6606SOL    HW121657   4.675   8.832   3.613
 6606SOL    HW221658   4.799   8.911   3.576
 6607SOL     OW21659   9.625   3.247   3.856
 6607SOL    HW121660   9.719   3.232   3.859
 6607SOL    HW221661   9.615   3.342   3.869
 6608SOL     OW21662   7.584  12.763   4.922
 6608SOL    HW121663   7.494  12.748   4.893
 6608SOL    HW221664   7.635  12.762   4.841
 6609SOL     OW21665   0.472   2.690  14.857
 6609SOL    HW121666   0.517   2.733   0.050
 6609SOL    HW221667   0.387   2.734  14.851
 6610SOL     OW21668  10.713   8.892  14.687
 6610SOL    HW121669  10.798   8.867  14.651
 6610SOL    HW221670  10.723   8.885  14.782
 6611SOL     OW21671   0.558  12.197  13.986
 6611SOL    HW121672   0.564  12.111  14.029
 6611SOL    HW221673   0.625  12.194  13.918
 6612SOL     OW21674  11.894  11.314  13.336
 6612SOL    HW121675  11.821  11.376  13.328
 6612SOL    HW221676  11.930  11.332  13.424
 6613SOL     OW21677   8.453   3.387   4.875
 6613SOL    HW121678   8.477   3.444   4.801
 6613SOL    HW221679   8.537   3.351   4.904
 6614SOL     OW21680  10.164   5.218   2.484
 6614SOL    HW121681  10.195   5.131   2.509
 6614SOL    HW221682  10.171   5.219   2.388
 6615SOL     OW21683   2.123   2.169  10.174
 6615SOL    HW121684   2.204   2.190  10.221
 6615SOL    HW221685   2.103   2.249  10.126
 6616SOL     OW21686  12.782   5.108   2.152
 6616SOL    HW121687  12.871   5.079   2.133
 6616SOL    HW221688  12.743   5.126   2.067
 6617SOL     OW21689   1.596  13.495  12.815
 6617SOL    HW121690   1.589  13.590  12.809
 6617SOL    HW221691   1.678  13.474  12.769
 6618SOL     OW21692  10.888   9.079  10.198
 6618SOL    HW121693  10.977   9.101  10.227
 6618SOL    HW221694  10.843   9.163  10.192
 6619SOL     OW21695   3.002   6.160   2.712
 6619SOL    HW121696   3.053   6.206   2.645
 6619SOL    HW221697   3.068   6.116   2.765
 6620SOL     OW21698   7.032   6.293   6.256
 6620SOL    HW121699   6.972   6.237   6.305
 6620SOL    HW221700   7.016   6.273   6.164
 6621SOL     OW21701   1.001   9.002   7.969
 6621SOL    HW121702   1.001   9.056   8.048
 6621SOL    HW221703   0.909   8.984   7.953
 6622SOL     OW21704  11.739   4.924   6.134
 6622SOL    HW121705  11.670   4.988   6.114
 6622SOL    HW221706  11.789   4.917   6.053
 6623SOL     OW21707   9.802  11.155   3.552
 6623SOL    HW121708   9.739  11.220   3.584
 6623SOL    HW221709   9.771  11.072   3.590
 6624SOL     OW21710   8.013   5.749  13.158
 6624SOL    HW121711   8.087   5.717  13.106
 6624SOL    HW221712   7.990   5.833  13.118
 6625SOL     OW21713   5.370  10.164   0.537
 6625SOL    HW121714   5.316  10.164   0.616
 6625SOL    HW221715   5.334  10.235   0.483
 6626SOL     OW21716   2.743   8.060  14.645
 6626SOL    HW121717   2.747   8.155  14.646
 6626SOL    HW221718   2.651   8.040  14.629
 6627SOL     OW21719  13.222  11.646   6.614
 6627SOL    HW121720  13.239  11.562   6.656
 6627SOL    HW221721  13.308  11.682   6.596
 6628SOL     OW21722   7.447   4.334   0.724
 6628SOL    HW121723   7.382   4.384   0.774
 6628SOL    HW221724   7.531   4.372   0.751
 6629SOL     OW21725   0.307  13.165   0.652
 6629SOL    HW121726   0.389  13.210   0.633
 6629SOL    HW221727   0.293  13.181   0.745
 6630SOL     OW21728  12.382   8.066   2.105
 6630SOL    HW121729  12.311   8.098   2.050
 6630SOL    HW221730  12.455   8.125   2.089
 6631SOL     OW21731  12.130  13.089  13.976
 6631SOL    HW121732  12.174  13.172  13.958
 6631SOL    HW221733  12.043  13.114  14.008
 6632SOL     OW21734  10.991  10.654   8.188
 6632SOL    HW121735  10.930  10.628   8.119
 6632SOL    HW221736  10.984  10.584   8.254
 6633SOL     OW21737   4.089   6.666  13.879
 6633SOL    HW121738   4.125   6.747  13.914
 6633SOL    HW221739   4.004   6.690  13.843
 6634SOL     OW21740   3.066   3.353  11.594
 6634SOL    HW121741   2.983   3.399  11.576
 6634SOL    HW221742   3.081   3.299  11.517
 6635SOL     OW21743   6.227   2.737   1.513
 6635SOL    HW121744   6.241   2.647   1.541
 6635SOL    HW221745   6.143   2.762   1.552
 6636SOL     OW21746   5.972  14.841   2.179
 6636SOL    HW121747   5.956  14.804   2.092
 6636SOL    HW221748   6.003   0.050   2.161
 6637SOL     OW21749   6.455   5.409   6.758
 6637SOL    HW121750   6.473   5.488   6.809
 6637SOL    HW221751   6.496   5.339   6.808
 6638SOL     OW21752   7.290  14.476   8.987
 6638SOL    HW121753   7.265  14.562   9.019
 6638SOL    HW221754   7.300  14.423   9.065
 6639SOL     OW21755   8.687  12.533   6.550
 6639SOL    HW121756   8.735  12.554   6.470
 6639SOL    HW221757   8.599  12.511   6.520
 6640SOL     OW21758   4.770   9.641   6.773
 6640SOL    HW121759   4.843   9.591   6.808
 6640SOL    HW221760   4.809   9.723   6.742
 6641SOL     OW21761   8.339   5.911   4.832
 6641SOL    HW121762   8.246   5.897   4.849
 6641SOL    HW221763   8.353   6.003   4.851
 6642SOL     OW21764   8.315  11.956  12.670
 6642SOL    HW121765   8.313  12.046  12.635
 6642SOL    HW221766   8.253  11.958  12.743
 6643SOL     OW21767   0.929   4.637   3.698
 6643SOL    HW121768   0.897   4.610   3.784
 6643SOL    HW221769   1.023   4.652   3.712
 6644SOL     OW21770   5.552  11.762  12.462
 6644SOL    HW121771   5.528  11.847  12.498
 6644SOL    HW221772   5.615  11.782  12.393
 6645SOL     OW21773  13.839   7.419   0.028
 6645SOL    HW121774  13.768   7.458   0.079
 6645SOL    HW221775  13.804   7.335  14.878
 6646SOL     OW21776   2.949  10.363   2.444
 6646SOL    HW121777   2.864  10.380   2.404
 6646SOL    HW221778   2.989  10.450   2.451
 6647SOL     OW21779   4.773   5.057  12.230
 6647SOL    HW121780   4.793   5.144  12.265
 6647SOL    HW221781   4.858   5.018  12.212
 6648SOL     OW21782   8.951  13.259   1.957
 6648SOL    HW121783   8.950  13.227   2.048
 6648SOL    HW221784   8.984  13.349   1.963
 6649SOL     OW21785   2.182  12.628   4.644
 6649SOL    HW121786   2.244  12.566   4.605
 6649SOL    HW221787   2.226  12.713   4.640
 6650SOL     OW21788   1.057   4.051   5.350
 6650SOL    HW121789   1.031   3.969   5.307
 6650SOL    HW221790   0.983   4.110   5.335
 6651SOL     OW21791  14.164   6.072   1.796
 6651SOL    HW121792  14.082   6.089   1.841
 6651SOL    HW221793  14.177   5.977   1.804
 6652SOL     OW21794   4.842   1.730  10.061
 6652SOL    HW121795   4.896   1.652  10.051
 6652SOL    HW221796   4.862   1.784   9.984
 6653SOL     OW21797   2.539   5.837  12.109
 6653SOL    HW121798   2.558   5.811  12.019
 6653SOL    HW221799   2.500   5.759  12.149
 6654SOL     OW21800   4.346  10.086   4.602
 6654SOL    HW121801   4.302  10.001   4.605
 6654SOL    HW221802   4.287  10.145   4.649
 6655SOL     OW21803   3.877   3.334   5.226
 6655SOL    HW121804   3.907   3.281   5.152
 6655SOL    HW221805   3.794   3.294   5.252
 6656SOL     OW21806   6.592   6.026  10.929
 6656SOL    HW121807   6.602   5.947  10.981
 6656SOL    HW221808   6.612   6.098  10.989
 6657SOL     OW21809   2.006   8.789  11.815
 6657SOL    HW121810   2.084   8.821  11.769
 6657SOL    HW221811   2.039   8.720  11.873
 6658SOL     OW21812   1.764  13.169   9.867
 6658SOL    HW121813   1.825  13.231   9.907
 6658SOL    HW221814   1.678  13.196   9.901
 6659SOL     OW21815   7.944  11.558  11.999
 6659SOL    HW121816   7.906  11.519  11.920
 6659SOL    HW221817   7.910  11.647  12.000
 6660SOL     OW21818   4.644   2.243  13.176
 6660SOL    HW121819   4.706   2.252  13.249
 6660SOL    HW221820   4.692   2.193  13.110
 6661SOL     OW21821  14.588  14.585  11.249
 6661SOL    HW121822  14.573  14.670  11.291
 6661SOL    HW221823  14.501  14.559  11.218
 6662SOL     OW21824   7.557   6.216  12.127
 6662SOL    HW121825   7.504   6.167  12.063
 6662SOL    HW221826   7.639   6.234  12.081
 6663SOL     OW21827   1.122   3.991  13.053
 6663SOL    HW121828   1.048   3.931  13.046
 6663SOL    HW221829   1.159   3.994  12.964
 6664SOL     OW21830   0.335   2.483  10.041
 6664SOL    HW121831   0.404   2.481   9.975
 6664SOL    HW221832   0.355   2.411  10.100
 6665SOL     OW21833  12.229   4.529  13.139
 6665SOL    HW121834  12.273   4.519  13.223
 6665SOL    HW221835  12.163   4.597  13.155
 6666SOL     OW21836   1.134   8.777   3.466
 6666SOL    HW121837   1.089   8.762   3.549
 6666SOL    HW221838   1.224   8.795   3.491
 6667SOL     OW21839  14.322   1.992   1.826
 6667SOL    HW121840  14.257   2.039   1.774
 6667SOL    HW221841  14.284   1.905   1.840
 6668SOL     OW21842   9.169  11.365  14.602
 6668SOL    HW121843   9.183  11.334  14.513
 6668SOL    HW221844   9.237  11.431  14.616
 6669SOL     OW21845   9.545   5.733   7.631
 6669SOL    HW121846   9.541   5.739   7.727
 6669SOL    HW221847   9.454   5.726   7.604
 6670SOL     OW21848  13.812   8.931   2.120
 6670SOL    HW121849  13.775   8.984   2.049
 6670SOL    HW221850  13.764   8.957   2.198
 6671SOL     OW21851   3.053   3.470   2.874
 6671SOL    HW121852   3.125   3.507   2.925
 6671SOL    HW221853   3.093   3.396   2.827
 6672SOL     OW21854   9.349   6.712   6.769
 6672SOL    HW121855   9.330   6.639   6.710
 6672SOL    HW221856   9.288   6.700   6.842
 6673SOL     OW21857   2.984   3.453   0.967
 6673SOL    HW121858   3.038   3.406   0.903
 6673SOL    HW221859   3.015   3.543   0.964
 6674SOL     OW21860  12.861   4.017   9.851
 6674SOL    HW121861  12.823   4.045   9.935
 6674SOL    HW221862  12.945   3.978   9.875
 6675SOL     OW21863   0.130  12.422   5.133
 6675SOL    HW121864   0.201  12.454   5.078
 6675SOL    HW221865   0.144  12.327   5.138
 6676SOL     OW21866   3.564  13.091   3.985
 6676SOL    HW121867   3.606  13.165   3.941
 6676SOL    HW221868   3.636  13.043   4.025
 6677SOL     OW21869  13.094   5.301   3.270
 6677SOL    HW121870  13.002   5.281   3.288
 6677SOL    HW221871  13.122   5.231   3.211
 6678SOL     OW21872   7.308   2.956  10.574
 6678SOL    HW121873   7.282   3.048  10.565
 6678SOL    HW221874   7.389   2.959  10.626
 6679SOL     OW21875   9.445  10.300   0.515
 6679SOL    HW121876   9.505  10.292   0.441
 6679SOL    HW221877   9.414  10.390   0.511
 6680SOL     OW21878   9.446  14.643  13.169
 6680SOL    HW121879   9.376  14.604  13.222
 6680SOL    HW221880   9.411  14.728  13.143
 6681SOL     OW21881   1.736  12.086   5.472
 6681SOL    HW121882   1.665  12.026   5.449
 6681SOL    HW221883   1.816  12.036   5.455
 6682SOL     OW21884   1.291  11.942   0.254
 6682SOL    HW121885   1.230  11.993   0.201
 6682SOL    HW221886   1.378  11.976   0.231
 6683SOL     OW21887   5.483   9.368   4.596
 6683SOL    HW121888   5.410   9.395   4.540
 6683SOL    HW221889   5.496   9.275   4.575
 6684SOL     OW21890  12.773   0.072   8.043
 6684SOL    HW121891  12.683   0.102   8.058
 6684SOL    HW221892  12.823   0.108   8.116
 6685SOL     OW21893   1.295   0.491   8.807
 6685SOL    HW121894   1.360   0.424   8.786
 6685SOL    HW221895   1.215   0.441   8.825
 6686SOL     OW21896  14.519   0.018   7.889
 6686SOL    HW121897  14.576   0.065   7.950
 6686SOL    HW221898  14.575  14.830   7.849
 6687SOL     OW21899   3.614   3.598  13.019
 6687SOL    HW121900   3.553   3.646  13.075
 6687SOL    HW221901   3.563   3.580  12.939
 6688SOL     OW21902  14.257   8.021   9.437
 6688SOL    HW121903  14.203   8.097   9.414
 6688SOL    HW221904  14.343   8.057   9.455
 6689SOL     OW21905   0.976   8.560  10.257
 6689SOL    HW121906   1.065   8.534  10.235
 6689SOL    HW221907   0.922   8.526  10.185
 6690SOL     OW21908  12.167   9.188   8.881
 6690SOL    HW121909  12.158   9.265   8.938
 6690SOL    HW221910  12.169   9.114   8.941
 6691SOL     OW21911   0.929   5.278  14.168
 6691SOL    HW121912   0.969   5.193  14.184
 6691SOL    HW221913   0.985   5.319  14.102
 6692SOL     OW21914   3.653   5.740   2.318
 6692SOL    HW121915   3.558   5.739   2.316
 6692SOL    HW221916   3.675   5.773   2.406
 6693SOL     OW21917   1.829  11.625  12.260
 6693SOL    HW121918   1.780  11.629  12.342
 6693SOL    HW221919   1.854  11.533  12.250
 6694SOL     OW21920  12.600   5.985   1.653
 6694SOL    HW121921  12.665   6.050   1.680
 6694SOL    HW221922  12.570   5.946   1.736
 6695SOL     OW21923   9.348  12.323   2.169
 6695SOL    HW121924   9.256  12.302   2.185
 6695SOL    HW221925   9.374  12.377   2.244
 6696SOL     OW21926   4.536   7.708   5.636
 6696SOL    HW121927   4.621   7.752   5.646
 6696SOL    HW221928   4.480   7.774   5.595
 6697SOL     OW21929   4.028  14.256   7.048
 6697SOL    HW121930   3.969  14.324   7.015
 6697SOL    HW221931   3.971  14.195   7.096
 6698SOL     OW21932   4.883   7.653   7.375
 6698SOL    HW121933   4.900   7.701   7.456
 6698SOL    HW221934   4.891   7.718   7.306
 6699SOL     OW21935   0.701  14.363   8.249
 6699SOL    HW121936   0.767  14.373   8.318
 6699SOL    HW221937   0.684  14.269   8.246
 6700SOL     OW21938   0.763  13.203   9.215
 6700SOL    HW121939   0.854  13.233   9.222
 6700SOL    HW221940   0.711  13.280   9.239
 6701SOL     OW21941   6.862   2.635  13.249
 6701SOL    HW121942   6.852   2.703  13.316
 6701SOL    HW221943   6.956   2.622  13.243
 6702SOL     OW21944   7.064   3.182   1.536
 6702SOL    HW121945   7.010   3.105   1.516
 6702SOL    HW221946   7.102   3.208   1.452
 6703SOL     OW21947  13.504   2.741   5.971
 6703SOL    HW121948  13.516   2.736   6.065
 6703SOL    HW221949  13.590   2.723   5.934
 6704SOL     OW21950   4.057  12.637  13.590
 6704SOL    HW121951   4.028  12.582  13.662
 6704SOL    HW221952   3.978  12.684  13.563
 6705SOL     OW21953  12.742   3.340   3.617
 6705SOL    HW121954  12.775   3.399   3.685
 6705SOL    HW221955  12.817   3.328   3.558
 6706SOL     OW21956   0.235   9.204   1.826
 6706SOL    HW121957   0.191   9.168   1.749
 6706SOL    HW221958   0.319   9.235   1.792
 6707SOL     OW21959   4.807   5.032  10.148
 6707SOL    HW121960   4.848   5.117  10.137
 6707SOL    HW221961   4.787   5.003  10.059
 6708SOL     OW21962   5.026   3.316   2.629
 6708SOL    HW121963   5.033   3.221   2.619
 6708SOL    HW221964   4.942   3.329   2.673
 6709SOL     OW21965   7.110   7.029  10.468
 6709SOL    HW121966   7.114   6.970  10.392
 6709SOL    HW221967   7.134   6.975  10.542
 6710SOL     OW21968   0.324  12.589   9.492
 6710SOL    HW121969   0.250  12.582   9.431
 6710SOL    HW221970   0.340  12.499   9.520
 6711SOL     OW21971   8.936   8.466   9.119
 6711SOL    HW121972   8.865   8.457   9.056
 6711SOL    HW221973   8.950   8.560   9.128
 6712SOL     OW21974   4.974  10.839  13.843
 6712SOL    HW121975   5.001  10.859  13.932
 6712SOL    HW221976   4.942  10.922  13.808
 6713SOL     OW21977   7.123  13.546  10.658
 6713SOL    HW121978   7.084  13.608  10.720
 6713SOL    HW221979   7.148  13.471  10.711
 6714SOL     OW21980   5.376   0.510   5.378
 6714SOL    HW121981   5.404   0.512   5.470
 6714SOL    HW221982   5.319   0.587   5.369
 6715SOL     OW21983   8.240   6.982   0.868
 6715SOL    HW121984   8.190   7.020   0.941
 6715SOL    HW221985   8.328   6.971   0.903
 6716SOL     OW21986  10.957   0.057   5.238
 6716SOL    HW121987  10.884   0.009   5.199
 6716SOL    HW221988  10.918   0.137   5.272
 6717SOL     OW21989   8.446   9.424   8.754
 6717SOL    HW121990   8.366   9.377   8.776
 6717SOL    HW221991   8.516   9.360   8.767
 6718SOL     OW21992   7.140   2.948   6.102
 6718SOL    HW121993   7.104   3.023   6.054
 6718SOL    HW221994   7.105   2.958   6.190
 6719SOL     OW21995  13.491  14.210   2.041
 6719SOL    HW121996  13.576  14.236   2.007
 6719SOL    HW221997  13.511  14.156   2.118
 6720SOL     OW21998  11.775   4.821   2.530
 6720SOL    HW121999  11.843   4.778   2.583
 6720SOL    HW222000  11.741   4.751   2.475
 6721SOL     OW22001  12.570   2.753  13.589
 6721SOL    HW122002  12.527   2.743  13.674
 6721SOL    HW222003  12.663   2.742  13.607
 6722SOL     OW22004  12.425   5.707   1.442
 6722SOL    HW122005  12.515   5.737   1.444
 6722SOL    HW222006  12.408   5.687   1.350
 6723SOL     OW22007   9.722   8.344  12.467
 6723SOL    HW122008   9.758   8.274  12.413
 6723SOL    HW222009   9.673   8.299  12.536
 6724SOL     OW22010  10.406   4.281   2.899
 6724SOL    HW122011  10.431   4.234   2.820
 6724SOL    HW222012  10.330   4.233   2.933
 6725SOL     OW22013   3.139  10.085  11.415
 6725SOL    HW122014   3.203  10.109  11.348
 6725SOL    HW222015   3.061  10.135  11.393
 6726SOL     OW22016  12.983  14.001  13.260
 6726SOL    HW122017  12.934  14.062  13.315
 6726SOL    HW222018  13.025  14.056  13.194
 6727SOL     OW22019   3.169  10.397  14.239
 6727SOL    HW122020   3.250  10.347  14.245
 6727SOL    HW222021   3.106  10.347  14.292
 6728SOL     OW22022   5.800   3.374   0.701
 6728SOL    HW122023   5.784   3.408   0.789
 6728SOL    HW222024   5.846   3.291   0.715
 6729SOL     OW22025   6.947   0.415  12.452
 6729SOL    HW122026   6.862   0.417  12.496
 6729SOL    HW222027   6.941   0.342  12.390
 6730SOL     OW22028   0.158   6.183   3.449
 6730SOL    HW122029   0.085   6.132   3.414
 6730SOL    HW222030   0.191   6.131   3.522
 6731SOL     OW22031   1.157   8.118   7.174
 6731SOL    HW122032   1.074   8.101   7.219
 6731SOL    HW222033   1.133   8.168   7.097
 6732SOL     OW22034   2.434  10.816   8.209
 6732SOL    HW122035   2.444  10.804   8.114
 6732SOL    HW222036   2.408  10.908   8.219
 6733SOL     OW22037   1.857   3.666   5.890
 6733SOL    HW122038   1.782   3.694   5.837
 6733SOL    HW222039   1.856   3.725   5.965
 6734SOL     OW22040   9.188  10.763   4.864
 6734SOL    HW122041   9.241  10.825   4.813
 6734SOL    HW222042   9.164  10.812   4.942
 6735SOL     OW22043  14.699  12.316   7.247
 6735SOL    HW122044  14.711  12.257   7.173
 6735SOL    HW222045  14.759  12.284   7.314
 6736SOL     OW22046   3.643   8.123  10.975
 6736SOL    HW122047   3.723   8.115  11.026
 6736SOL    HW222048   3.602   8.036  10.980
 6737SOL     OW22049  12.346   2.627   6.119
 6737SOL    HW122050  12.254   2.630   6.144
 6737SOL    HW222051  12.381   2.550   6.165
 6738SOL     OW22052   6.922   5.117   2.265
 6738SOL    HW122053   6.906   5.167   2.345
 6738SOL    HW222054   6.847   5.136   2.209
 6739SOL     OW22055   8.774   8.426  12.475
 6739SOL    HW122056   8.732   8.467  12.549
 6739SOL    HW222057   8.708   8.425  12.406
 6740SOL     OW22058   3.203   4.798   4.141
 6740SOL    HW122059   3.228   4.803   4.048
 6740SOL    HW222060   3.193   4.890   4.167
 6741SOL     OW22061   7.002  10.544  14.140
 6741SOL    HW122062   7.071  10.478  14.147
 6741SOL    HW222063   6.924  10.494  14.115
 6742SOL     OW22064  13.530   4.943  12.077
 6742SOL    HW122065  13.601   4.977  12.131
 6742SOL    HW222066  13.501   5.017  12.025
 6743SOL     OW22067  12.345   4.078  13.213
 6743SOL    HW122068  12.416   4.138  13.192
 6743SOL    HW222069  12.376   4.032  13.291
 6744SOL     OW22070   6.230   1.096   5.527
 6744SOL    HW122071   6.162   1.095   5.459
 6744SOL    HW222072   6.227   1.008   5.565
 6745SOL     OW22073  10.952   1.396   9.447
 6745SOL    HW122074  10.879   1.420   9.504
 6745SOL    HW222075  11.027   1.440   9.486
 6746SOL     OW22076  10.633  10.683   3.057
 6746SOL    HW122077  10.645  10.727   3.141
 6746SOL    HW222078  10.691  10.730   2.997
 6747SOL     OW22079   4.013   5.766  13.291
 6747SOL    HW122080   3.927   5.725  13.283
 6747SOL    HW222081   4.044   5.740  13.378
 6748SOL     OW22082   9.798   2.157  10.961
 6748SOL    HW122083   9.780   2.248  10.980
 6748SOL    HW222084   9.884   2.140  11.001
 6749SOL     OW22085   2.416   3.419   0.208
 6749SOL    HW122086   2.385   3.403   0.119
 6749SOL    HW222087   2.344   3.388   0.264
 6750SOL     OW22088   8.461   7.264   0.724
 6750SOL    HW122089   8.389   7.318   0.692
 6750SOL    HW222090   8.457   7.272   0.819
 6751SOL     OW22091   8.215   2.135   4.113
 6751SOL    HW122092   8.153   2.171   4.048
 6751SOL    HW222093   8.164   2.132   4.194
 6752SOL     OW22094   2.714   5.585  11.236
 6752SOL    HW122095   2.678   5.610  11.151
 6752SOL    HW222096   2.807   5.572  11.219
 6753SOL     OW22097   1.663   6.939  14.506
 6753SOL    HW122098   1.683   7.022  14.550
 6753SOL    HW222099   1.748   6.903  14.482
 6754SOL     OW22100   4.326  11.681   3.271
 6754SOL    HW122101   4.262  11.710   3.207
 6754SOL    HW222102   4.358  11.597   3.237
 6755SOL     OW22103  14.130   9.129  13.777
 6755SOL    HW122104  14.135   9.149  13.684
 6755SOL    HW222105  14.093   9.041  13.781
 6756SOL     OW22106  12.914   3.980  13.665
 6756SOL    HW122107  12.877   4.061  13.699
 6756SOL    HW222108  12.976   3.952  13.733
 6757SOL     OW22109   0.268  10.613   4.374
 6757SOL    HW122110   0.259  10.696   4.422
 6757SOL    HW222111   0.264  10.546   4.441
 6758SOL     OW22112   6.028   8.498  12.283
 6758SOL    HW122113   6.079   8.506  12.364
 6758SOL    HW222114   5.965   8.428  12.301
 6759SOL     OW22115   8.670   0.397  12.918
 6759SOL    HW122116   8.650   0.325  12.857
 6759SOL    HW222117   8.645   0.362  13.004
 6760SOL     OW22118  13.734   5.208   0.477
 6760SOL    HW122119  13.807   5.223   0.538
 6760SOL    HW222120  13.767   5.140   0.418
 6761SOL     OW22121   8.119   2.472   1.526
 6761SOL    HW122122   8.097   2.506   1.612
 6761SOL    HW222123   8.085   2.383   1.526
 6762SOL     OW22124   8.526   6.789  10.519
 6762SOL    HW122125   8.568   6.777  10.434
 6762SOL    HW222126   8.487   6.703  10.538
 6763SOL     OW22127   7.210   1.037   0.809
 6763SOL    HW122128   7.279   1.096   0.839
 6763SOL    HW222129   7.247   0.994   0.732
 6764SOL     OW22130   9.361   3.931   8.937
 6764SOL    HW122131   9.340   3.850   8.985
 6764SOL    HW222132   9.455   3.943   8.950
 6765SOL     OW22133   9.295   1.456   5.925
 6765SOL    HW122134   9.260   1.467   5.837
 6765SOL    HW222135   9.337   1.370   5.924
 6766SOL     OW22136  12.496  11.569  11.275
 6766SOL    HW122137  12.402  11.582  11.291
 6766SOL    HW222138  12.514  11.481  11.308
 6767SOL     OW22139   3.901  12.325   8.420
 6767SOL    HW122140   3.983  12.367   8.447
 6767SOL    HW222141   3.891  12.252   8.481
 6768SOL     OW22142   0.770   6.649   2.706
 6768SOL    HW122143   0.769   6.695   2.623
 6768SOL    HW222144   0.681   6.614   2.716
 6769SOL     OW22145  13.648   7.692  12.878
 6769SOL    HW122146  13.568   7.741  12.858
 6769SOL    HW222147  13.617   7.611  12.919
 6770SOL     OW22148   9.198   0.081  11.582
 6770SOL    HW122149   9.162   0.098  11.495
 6770SOL    HW222150   9.121   0.078  11.639
 6771SOL     OW22151   0.159   2.091  13.923
 6771SOL    HW122152   0.206   2.119  13.845
 6771SOL    HW222153   0.095   2.027  13.891
 6772SOL     OW22154   6.673   2.861  12.025
 6772SOL    HW122155   6.647   2.877  12.116
 6772SOL    HW222156   6.601   2.898  11.974
 6773SOL     OW22157   0.695   4.821   8.978
 6773SOL    HW122158   0.729   4.748   8.926
 6773SOL    HW222159   0.619   4.784   9.025
 6774SOL     OW22160   0.732  12.267  11.138
 6774SOL    HW122161   0.784  12.186  11.137
 6774SOL    HW222162   0.704  12.278  11.047
 6775SOL     OW22163  12.547  11.045   0.161
 6775SOL    HW122164  12.576  11.037   0.252
 6775SOL    HW222165  12.478  11.111   0.164
 6776SOL     OW22166   9.191  14.826   0.381
 6776SOL    HW122167   9.245  14.858   0.308
 6776SOL    HW222168   9.115   0.005   0.382
 6777SOL     OW22169   9.876   7.781  11.166
 6777SOL    HW122170   9.802   7.724  11.144
 6777SOL    HW222171   9.917   7.800  11.081
 6778SOL     OW22172   2.565  13.519  12.634
 6778SOL    HW122173   2.641  13.474  12.670
 6778SOL    HW222174   2.601  13.590  12.581
 6779SOL     OW22175  14.628   7.518  10.536
 6779SOL    HW122176  14.580   7.493  10.615
 6779SOL    HW222177  14.560   7.551  10.476
 6780SOL     OW22178   7.566   2.607  14.571
 6780SOL    HW122179   7.496   2.597  14.635
 6780SOL    HW222180   7.521   2.617  14.487
 6781SOL     OW22181   0.155   2.582   8.730
 6781SOL    HW122182   0.116   2.669   8.733
 6781SOL    HW222183   0.247   2.597   8.707
 6782SOL     OW22184   0.553   8.002   0.033
 6782SOL    HW122185   0.502   7.981   0.111
 6782SOL    HW222186   0.642   8.018   0.066
 6783SOL     OW22187   1.895   8.275  11.213
 6783SOL    HW122188   1.914   8.192  11.168
 6783SOL    HW222189   1.802   8.271  11.232
 6784SOL     OW22190   9.163  13.549   4.566
 6784SOL    HW122191   9.197  13.481   4.623
 6784SOL    HW222192   9.187  13.631   4.610
 6785SOL     OW22193   0.202   0.021  14.468
 6785SOL    HW122194   0.108   0.030  14.449
 6785SOL    HW222195   0.208  14.819  14.519
 6786SOL     OW22196  11.157  12.351   3.233
 6786SOL    HW122197  11.123  12.377   3.148
 6786SOL    HW222198  11.184  12.260   3.222
 6787SOL     OW22199  14.691   7.984   4.146
 6787SOL    HW122200  14.641   7.923   4.092
 6787SOL    HW222201  14.756   8.022   4.087
 6788SOL     OW22202  10.258  11.941   3.608
 6788SOL    HW122203  10.292  12.024   3.640
 6788SOL    HW222204  10.165  11.943   3.629
 6789SOL     OW22205   5.789   8.673   4.863
 6789SOL    HW122206   5.746   8.601   4.909
 6789SOL    HW222207   5.853   8.707   4.926
 6790SOL     OW22208  12.114   8.487   5.430
 6790SOL    HW122209  12.045   8.421   5.421
 6790SOL    HW222210  12.158   8.488   5.346
 6791SOL     OW22211   2.476   8.815   0.787
 6791SOL    HW122212   2.515   8.802   0.873
 6791SOL    HW222213   2.549   8.842   0.731
 6792SOL     OW22214   0.805   9.209  13.713
 6792SOL    HW122215   0.894   9.244  13.712
 6792SOL    HW222216   0.796   9.164  13.629
 6793SOL     OW22217   7.784  14.053  12.989
 6793SOL    HW122218   7.811  14.136  13.027
 6793SOL    HW222219   7.778  13.993  13.064
 6794SOL     OW22220  11.037  10.380   2.133
 6794SOL    HW122221  11.041  10.475   2.143
 6794SOL    HW222222  10.944  10.358   2.145
 6795SOL     OW22223  12.750  12.867   6.691
 6795SOL    HW122224  12.719  12.957   6.683
 6795SOL    HW222225  12.841  12.870   6.661
 6796SOL     OW22226   6.837   3.302   2.925
 6796SOL    HW122227   6.772   3.233   2.941
 6796SOL    HW222228   6.919   3.265   2.958
 6797SOL     OW22229   5.256   4.885  10.963
 6797SOL    HW122230   5.290   4.915  10.878
 6797SOL    HW222231   5.326   4.904  11.025
 6798SOL     OW22232   7.915   1.319   4.879
 6798SOL    HW122233   7.978   1.262   4.835
 6798SOL    HW222234   7.863   1.357   4.808
 6799SOL     OW22235   0.796   7.869   3.759
 6799SOL    HW122236   0.870   7.810   3.743
 6799SOL    HW222237   0.777   7.859   3.852
 6800SOL     OW22238  12.140   9.249  13.435
 6800SOL    HW122239  12.124   9.248  13.529
 6800SOL    HW222240  12.103   9.166  13.404
 6801SOL     OW22241   0.165  12.211   3.673
 6801SOL    HW122242   0.200  12.244   3.755
 6801SOL    HW222243   0.071  12.202   3.688
 6802SOL     OW22244   0.650  12.097   1.218
 6802SOL    HW122245   0.730  12.108   1.165
 6802SOL    HW222246   0.681  12.056   1.299
 6803SOL     OW22247   1.671   1.049   1.769
 6803SOL    HW122248   1.679   1.140   1.740
 6803SOL    HW222249   1.657   0.999   1.689
 6804SOL     OW22250   8.707  10.641  14.830
 6804SOL    HW122251   8.662  10.636   0.035
 6804SOL    HW222252   8.648  10.690  14.774
 6805SOL     OW22253   2.389   3.850   0.518
 6805SOL    HW122254   2.295   3.836   0.517
 6805SOL    HW222255   2.427   3.767   0.489
 6806SOL     OW22256   6.199   7.832   1.137
 6806SOL    HW122257   6.267   7.812   1.201
 6806SOL    HW222258   6.117   7.826   1.187
 6807SOL     OW22259   8.490   8.501  10.477
 6807SOL    HW122260   8.412   8.553  10.497
 6807SOL    HW222261   8.532   8.547  10.404
 6808SOL     OW22262  10.782   8.023   0.202
 6808SOL    HW122263  10.875   8.015   0.180
 6808SOL    HW222264  10.736   8.013   0.119
 6809SOL     OW22265   4.502   2.474   6.979
 6809SOL    HW122266   4.409   2.467   6.997
 6809SOL    HW222267   4.514   2.564   6.949
 6810SOL     OW22268   9.997   1.670   4.963
 6810SOL    HW122269  10.088   1.644   4.976
 6810SOL    HW222270   9.997   1.765   4.979
 6811SOL     OW22271  12.911   3.234   5.602
 6811SOL    HW122272  12.914   3.291   5.525
 6811SOL    HW222273  12.977   3.167   5.585
 6812SOL     OW22274  14.255   4.905   3.886
 6812SOL    HW122275  14.247   4.999   3.869
 6812SOL    HW222276  14.275   4.900   3.980
 6813SOL     OW22277  12.341   0.744   0.954
 6813SOL    HW122278  12.356   0.688   1.031
 6813SOL    HW222279  12.371   0.692   0.880
 6814SOL     OW22280   6.458  14.093   0.753
 6814SOL    HW122281   6.491  14.010   0.787
 6814SOL    HW222282   6.413  14.069   0.672
 6815SOL     OW22283   4.655   3.960   2.237
 6815SOL    HW122284   4.701   3.908   2.303
 6815SOL    HW222285   4.707   4.039   2.227
 6816SOL     OW22286  10.097  10.067   3.522
 6816SOL    HW122287  10.146  10.051   3.603
 6816SOL    HW222288  10.047   9.987   3.508
 6817SOL     OW22289  13.039   2.364  14.309
 6817SOL    HW122290  12.971   2.377  14.375
 6817SOL    HW222291  13.101   2.436  14.323
 6818SOL     OW22292   4.488   8.435   4.361
 6818SOL    HW122293   4.517   8.440   4.452
 6818SOL    HW222294   4.471   8.526   4.337
 6819SOL     OW22295  10.702   0.388  12.275
 6819SOL    HW122296  10.669   0.355  12.192
 6819SOL    HW222297  10.791   0.352  12.282
 6820SOL     OW22298   0.359   0.277  14.643
 6820SOL    HW122299   0.344   0.200  14.697
 6820SOL    HW222300   0.352   0.246  14.553
 6821SOL     OW22301   1.240   2.233  10.678
 6821SOL    HW122302   1.292   2.228  10.758
 6821SOL    HW222303   1.151   2.248  10.707
 6822SOL     OW22304  13.676   3.990   7.132
 6822SOL    HW122305  13.628   4.049   7.191
 6822SOL    HW222306  13.611   3.926   7.103
 6823SOL     OW22307   1.629   6.967   7.814
 6823SOL    HW122308   1.600   6.973   7.906
 6823SOL    HW222309   1.548   6.954   7.765
 6824SOL     OW22310   9.899   8.302  13.450
 6824SOL    HW122311   9.944   8.291  13.534
 6824SOL    HW222312   9.838   8.228  13.446
 6825SOL     OW22313  12.999   5.056   8.138
 6825SOL    HW122314  12.951   5.005   8.072
 6825SOL    HW222315  12.985   5.009   8.220
 6826SOL     OW22316   2.544   6.017   6.036
 6826SOL    HW122317   2.531   6.104   5.997
 6826SOL    HW222318   2.595   6.034   6.115
 6827SOL     OW22319   7.558   4.822   0.633
 6827SOL    HW122320   7.530   4.907   0.666
 6827SOL    HW222321   7.589   4.775   0.711
 6828SOL     OW22322   8.423   6.521  13.966
 6828SOL    HW122323   8.463   6.434  13.972
 6828SOL    HW222324   8.425   6.554  14.056
 6829SOL     OW22325   4.213   5.943   1.476
 6829SOL    HW122326   4.149   5.921   1.408
 6829SOL    HW222327   4.250   5.859   1.502
 6830SOL     OW22328   9.111   6.991   4.956
 6830SOL    HW122329   9.104   6.970   4.863
 6830SOL    HW222330   9.035   7.045   4.975
 6831SOL     OW22331  12.722  13.698   9.863
 6831SOL    HW122332  12.654  13.734   9.806
 6831SOL    HW222333  12.681  13.624   9.906
 6832SOL     OW22334   0.041  10.028   3.003
 6832SOL    HW122335  14.850   9.969   3.029
 6832SOL    HW222336   0.038  10.099   3.066
 6833SOL     OW22337   6.726  10.451  10.165
 6833SOL    HW122338   6.759  10.368  10.131
 6833SOL    HW222339   6.638  10.431  10.196
 6834SOL     OW22340   3.615  14.644   8.165
 6834SOL    HW122341   3.565  14.563   8.171
 6834SOL    HW222342   3.704  14.616   8.145
 6835SOL     OW22343   6.650  11.480   2.440
 6835SOL    HW122344   6.718  11.479   2.372
 6835SOL    HW222345   6.609  11.394   2.434
 6836SOL     OW22346  11.842   3.088  13.743
 6836SOL    HW122347  11.884   3.084  13.657
 6836SOL    HW222348  11.751   3.066  13.726
 6837SOL     OW22349   9.576   2.755   4.703
 6837SOL    HW122350   9.532   2.801   4.632
 6837SOL    HW222351   9.583   2.820   4.773
 6838SOL     OW22352  12.743   0.256   9.371
 6838SOL    HW122353  12.759   0.201   9.448
 6838SOL    HW222354  12.668   0.216   9.327
 6839SOL     OW22355  14.862   2.025   8.453
 6839SOL    HW122356  14.878   2.032   8.359
 6839SOL    HW222357  14.828   2.111   8.478
 6840SOL     OW22358   3.687   4.790  10.284
 6840SOL    HW122359   3.651   4.717  10.234
 6840SOL    HW222360   3.776   4.763  10.306
 6841SOL     OW22361   9.059   8.786   3.356
 6841SOL    HW122362   9.054   8.695   3.326
 6841SOL    HW222363   9.092   8.834   3.280
 6842SOL     OW22364   7.029   8.226  11.389
 6842SOL    HW122365   7.101   8.269  11.342
 6842SOL    HW222366   7.072   8.183  11.463
 6843SOL     OW22367   5.102   7.638   5.564
 6843SOL    HW122368   5.111   7.674   5.476
 6843SOL    HW222369   5.141   7.704   5.622
 6844SOL     OW22370   4.223   8.185  12.994
 6844SOL    HW122371   4.264   8.234  13.065
 6844SOL    HW222372   4.170   8.118  13.037
 6845SOL     OW22373   2.724   5.005   7.801
 6845SOL    HW122374   2.732   5.025   7.708
 6845SOL    HW222375   2.743   4.911   7.808
 6846SOL     OW22376   1.931  13.260  14.514
 6846SOL    HW122377   2.006  13.311  14.545
 6846SOL    HW222378   1.964  13.216  14.435
 6847SOL     OW22379  12.834   6.943   2.525
 6847SOL    HW122380  12.896   7.013   2.544
 6847SOL    HW222381  12.769   6.982   2.466
 6848SOL     OW22382  14.257   0.029   1.936
 6848SOL    HW122383  14.195  14.861   1.991
 6848SOL    HW222384  14.223   0.019   1.847
 6849SOL     OW22385   2.367   5.572   4.325
 6849SOL    HW122386   2.345   5.531   4.409
 6849SOL    HW222387   2.351   5.503   4.261
 6850SOL     OW22388   5.487  10.997   5.791
 6850SOL    HW122389   5.443  11.075   5.825
 6850SOL    HW222390   5.573  11.028   5.763
 6851SOL     OW22391  12.627  11.502   0.775
 6851SOL    HW122392  12.620  11.417   0.732
 6851SOL    HW222393  12.720  11.522   0.774
 6852SOL     OW22394  10.219   2.310   3.604
 6852SOL    HW122395  10.185   2.310   3.693
 6852SOL    HW222396  10.170   2.240   3.560
 6853SOL     OW22397   9.072   0.651   1.783
 6853SOL    HW122398   9.108   0.567   1.754
 6853SOL    HW222399   9.088   0.652   1.878
 6854SOL     OW22400   4.709   8.732  10.804
 6854SOL    HW122401   4.670   8.667  10.745
 6854SOL    HW222402   4.689   8.816  10.763
 6855SOL     OW22403   7.217   1.656   8.859
 6855SOL    HW122404   7.272   1.720   8.905
 6855SOL    HW222405   7.251   1.657   8.769
 6856SOL     OW22406  14.438   7.464   4.334
 6856SOL    HW122407  14.406   7.506   4.414
 6856SOL    HW222408  14.521   7.424   4.359
 6857SOL     OW22409  10.025   1.242   4.953
 6857SOL    HW122410   9.950   1.301   4.962
 6857SOL    HW222411   9.989   1.164   4.911
 6858SOL     OW22412   5.078   2.625  10.457
 6858SOL    HW122413   5.151   2.614  10.519
 6858SOL    HW222414   5.028   2.698  10.493
 6859SOL     OW22415   3.781   5.062   1.905
 6859SOL    HW122416   3.800   5.133   1.845
 6859SOL    HW222417   3.845   4.994   1.884
 6860SOL     OW22418   1.298   7.024  13.485
 6860SOL    HW122419   1.300   7.047  13.392
 6860SOL    HW222420   1.273   6.932  13.487
 6861SOL     OW22421   7.669  13.894   1.601
 6861SOL    HW122422   7.682  13.932   1.688
 6861SOL    HW222423   7.574  13.892   1.590
 6862SOL     OW22424  11.306   9.643  12.890
 6862SOL    HW122425  11.266   9.614  12.972
 6862SOL    HW222426  11.286   9.737  12.886
 6863SOL     OW22427   7.471   9.491  10.212
 6863SOL    HW122428   7.514   9.494  10.297
 6863SOL    HW222429   7.541   9.509  10.149
 6864SOL     OW22430  12.429   9.681  11.685
 6864SOL    HW122431  12.493   9.621  11.723
 6864SOL    HW222432  12.374   9.707  11.758
 6865SOL     OW22433   0.872   8.434  12.060
 6865SOL    HW122434   0.784   8.471  12.074
 6865SOL    HW222435   0.931   8.501  12.094
 6866SOL     OW22436   2.894  11.742  13.227
 6866SOL    HW122437   2.949  11.712  13.155
 6866SOL    HW222438   2.949  11.734  13.305
 6867SOL     OW22439   9.234   1.183   4.074
 6867SOL    HW122440   9.159   1.188   4.014
 6867SOL    HW222441   9.237   1.091   4.100
 6868SOL     OW22442  12.076   9.519   3.072
 6868SOL    HW122443  12.158   9.546   3.113
 6868SOL    HW222444  12.052   9.592   3.015
 6869SOL     OW22445   2.765   4.511  11.527
 6869SOL    HW122446   2.690   4.563  11.499
 6869SOL    HW222447   2.789   4.547  11.612
 6870SOL     OW22448   0.331   9.710   0.953
 6870SOL    HW122449   0.424   9.727   0.967
 6870SOL    HW222450   0.287   9.786   0.991
 6871SOL     OW22451   0.932   4.341   5.606
 6871SOL    HW122452   0.858   4.309   5.658
 6871SOL    HW222453   0.924   4.436   5.609
 6872SOL     OW22454  13.294   3.639   9.961
 6872SOL    HW122455  13.388   3.626   9.971
 6872SOL    HW222456  13.284   3.733   9.949
 6873SOL     OW22457   6.605  10.375  10.494
 6873SOL    HW122458   6.701  10.375  10.492
 6873SOL    HW222459   6.582  10.451  10.547
 6874SOL     OW22460  10.746   5.931   5.824
 6874SOL    HW122461  10.798   5.987   5.768
 6874SOL    HW222462  10.655   5.952   5.803
 6875SOL     OW22463   2.547   7.310   5.537
 6875SOL    HW122464   2.469   7.365   5.526
 6875SOL    HW222465   2.620   7.366   5.514
 6876SOL     OW22466  11.552   3.007  13.378
 6876SOL    HW122467  11.499   3.011  13.459
 6876SOL    HW222468  11.542   2.917  13.348
 6877SOL     OW22469  13.602   3.902   5.724
 6877SOL    HW122470  13.571   3.816   5.752
 6877SOL    HW222471  13.613   3.894   5.629
 6878SOL     OW22472   3.265   9.098  14.124
 6878SOL    HW122473   3.241   9.008  14.145
 6878SOL    HW222474   3.212   9.120  14.047
 6879SOL     OW22475  10.890  14.550   4.202
 6879SOL    HW122476  10.931  14.612   4.263
 6879SOL    HW222477  10.951  14.546   4.128
 6880SOL     OW22478   2.095   1.719   0.493
 6880SOL    HW122479   2.121   1.793   0.548
 6880SOL    HW222480   2.016   1.749   0.449
 6881SOL     OW22481   3.914   5.345   2.525
 6881SOL    HW122482   3.986   5.297   2.564
 6881SOL    HW222483   3.868   5.385   2.599
 6882SOL     OW22484   3.714   2.963  11.795
 6882SOL    HW122485   3.702   2.959  11.890
 6882SOL    HW222486   3.809   2.965  11.783
 6883SOL     OW22487   8.638   8.206  13.358
 6883SOL    HW122488   8.698   8.279  13.346
 6883SOL    HW222489   8.627   8.199  13.453
 6884SOL     OW22490  11.600   7.068  10.845
 6884SOL    HW122491  11.613   7.162  10.840
 6884SOL    HW222492  11.687   7.031  10.859
 6885SOL     OW22493  11.322   6.223   9.746
 6885SOL    HW122494  11.322   6.127   9.740
 6885SOL    HW222495  11.345   6.252   9.657
 6886SOL     OW22496  12.055   7.255  10.184
 6886SOL    HW122497  12.041   7.251  10.278
 6886SOL    HW222498  12.015   7.338  10.158
 6887SOL     OW22499   9.548   3.848  11.173
 6887SOL    HW122500   9.548   3.885  11.085
 6887SOL    HW222501   9.522   3.757  11.161
 6888SOL     OW22502   8.292   2.657  10.257
 6888SOL    HW122503   8.198   2.641  10.251
 6888SOL    HW222504   8.331   2.592  10.199
 6889SOL     OW22505  11.358   6.418   0.478
 6889SOL    HW122506  11.315   6.369   0.548
 6889SOL    HW222507  11.286   6.441   0.418
 6890SOL     OW22508   5.593  10.581   4.629
 6890SOL    HW122509   5.628  10.494   4.651
 6890SOL    HW222510   5.578  10.577   4.534
 6891SOL     OW22511   0.908  13.029   6.171
 6891SOL    HW122512   0.916  12.933   6.168
 6891SOL    HW222513   0.928  13.051   6.262
 6892SOL     OW22514   8.006   9.841   0.869
 6892SOL    HW122515   7.919   9.840   0.830
 6892SOL    HW222516   7.990   9.857   0.962
 6893SOL     OW22517   8.533   1.392  13.848
 6893SOL    HW122518   8.550   1.334  13.922
 6893SOL    HW222519   8.619   1.412  13.813
 6894SOL     OW22520   6.845  11.474   4.396
 6894SOL    HW122521   6.774  11.410   4.388
 6894SOL    HW222522   6.839  11.505   4.486
 6895SOL     OW22523   7.257   9.983   8.236
 6895SOL    HW122524   7.244  10.041   8.161
 6895SOL    HW222525   7.316  10.032   8.294
 6896SOL     OW22526   9.588  10.494   7.707
 6896SOL    HW122527   9.520  10.536   7.761
 6896SOL    HW222528   9.655  10.561   7.696
 6897SOL     OW22529  10.105   6.897   5.546
 6897SOL    HW122530  10.086   6.968   5.606
 6897SOL    HW222531  10.023   6.849   5.538
 6898SOL     OW22532   0.336   5.070   4.912
 6898SOL    HW122533   0.260   5.083   4.969
 6898SOL    HW222534   0.315   5.118   4.832
 6899SOL     OW22535   4.242   3.219   9.511
 6899SOL    HW122536   4.314   3.161   9.489
 6899SOL    HW222537   4.208   3.184   9.594
 6900SOL     OW22538   8.373   2.431   5.108
 6900SOL    HW122539   8.406   2.448   5.020
 6900SOL    HW222540   8.436   2.370   5.146
 6901SOL     OW22541  13.311   1.326   2.929
 6901SOL    HW122542  13.379   1.351   2.991
 6901SOL    HW222543  13.264   1.407   2.910
 6902SOL     OW22544  13.990  13.154   2.559
 6902SOL    HW122545  13.953  13.226   2.508
 6902SOL    HW222546  13.987  13.079   2.499
 6903SOL     OW22547  10.980   3.604  12.892
 6903SOL    HW122548  11.072   3.580  12.902
 6903SOL    HW222549  10.937   3.523  12.867
 6904SOL     OW22550   7.175   6.298  11.888
 6904SOL    HW122551   7.213   6.321  11.803
 6904SOL    HW222552   7.216   6.214  11.911
 6905SOL     OW22553  12.397   7.219   8.320
 6905SOL    HW122554  12.365   7.193   8.407
 6905SOL    HW222555  12.337   7.288   8.292
 6906SOL     OW22556  13.679   4.518  12.035
 6906SOL    HW122557  13.716   4.448  12.088
 6906SOL    HW222558  13.615   4.474  11.979
 6907SOL     OW22559  10.689   2.038   2.387
 6907SOL    HW122560  10.604   2.009   2.422
 6907SOL    HW222561  10.718   2.106   2.447
 6908SOL     OW22562   4.386   7.326  11.947
 6908SOL    HW122563   4.418   7.274  11.873
 6908SOL    HW222564   4.416   7.415  11.927
 6909SOL     OW22565   0.900   9.880  12.417
 6909SOL    HW122566   0.929   9.790  12.407
 6909SOL    HW222567   0.934   9.907  12.503
 6910SOL     OW22568  11.418  10.401  11.743
 6910SOL    HW122569  11.423  10.333  11.676
 6910SOL    HW222570  11.412  10.353  11.826
 6911SOL     OW22571   1.400   2.300   6.182
 6911SOL    HW122572   1.473   2.356   6.155
 6911SOL    HW222573   1.395   2.233   6.114
 6912SOL     OW22574   9.966   1.065   3.438
 6912SOL    HW122575   9.973   1.064   3.533
 6912SOL    HW222576  10.050   1.100   3.408
 6913SOL     OW22577   4.898  11.017   7.615
 6913SOL    HW122578   4.949  11.097   7.629
 6913SOL    HW222579   4.928  10.958   7.684
 6914SOL     OW22580   2.579  12.823   5.497
 6914SOL    HW122581   2.651  12.847   5.439
 6914SOL    HW222582   2.601  12.863   5.581
 6915SOL     OW22583  14.331  12.339   9.290
 6915SOL    HW122584  14.331  12.253   9.333
 6915SOL    HW222585  14.382  12.395   9.349
 6916SOL     OW22586   4.334   5.332   6.861
 6916SOL    HW122587   4.428   5.346   6.875
 6916SOL    HW222588   4.291   5.393   6.921
 6917SOL     OW22589   3.467   1.618   1.097
 6917SOL    HW122590   3.405   1.671   1.147
 6917SOL    HW222591   3.533   1.591   1.161
 6918SOL     OW22592   3.312  12.029   6.153
 6918SOL    HW122593   3.334  12.054   6.064
 6918SOL    HW222594   3.218  12.014   6.152
 6919SOL     OW22595   8.603  11.881  11.760
 6919SOL    HW122596   8.565  11.796  11.785
 6919SOL    HW222597   8.530  11.929  11.720
 6920SOL     OW22598   8.074   0.106  11.251
 6920SOL    HW122599   8.167   0.087  11.235
 6920SOL    HW222600   8.028   0.028  11.221
 6921SOL     OW22601   7.567  10.225  11.431
 6921SOL    HW122602   7.619  10.214  11.510
 6921SOL    HW222603   7.628  10.263  11.367
 6922SOL     OW22604  13.022   4.732   5.287
 6922SOL    HW122605  13.040   4.652   5.337
 6922SOL    HW222606  12.937   4.762   5.320
 6923SOL     OW22607  10.867   8.504   4.531
 6923SOL    HW122608  10.819   8.490   4.449
 6923SOL    HW222609  10.813   8.565   4.581
 6924SOL     OW22610  12.063   5.261  12.645
 6924SOL    HW122611  12.057   5.355  12.627
 6924SOL    HW222612  12.140   5.251  12.700
 6925SOL     OW22613   0.329   7.746  12.849
 6925SOL    HW122614   0.369   7.725  12.765
 6925SOL    HW222615   0.314   7.661  12.890
 6926SOL     OW22616  11.093   3.646   2.119
 6926SOL    HW122617  11.157   3.711   2.091
 6926SOL    HW222618  11.142   3.584   2.172
 6927SOL     OW22619   2.022   8.275  10.844
 6927SOL    HW122620   1.978   8.342  10.896
 6927SOL    HW222621   2.100   8.252  10.895
 6928SOL     OW22622  12.561   7.677   2.149
 6928SOL    HW122623  12.633   7.671   2.086
 6928SOL    HW222624  12.482   7.676   2.095
 6929SOL     OW22625  13.519   6.552   5.616
 6929SOL    HW122626  13.506   6.458   5.633
 6929SOL    HW222627  13.498   6.594   5.699
 6930SOL     OW22628  12.535   6.253   3.808
 6930SOL    HW122629  12.490   6.336   3.789
 6930SOL    HW222630  12.606   6.278   3.868
 6931SOL     OW22631   6.910  10.225   4.235
 6931SOL    HW122632   6.838  10.168   4.210
 6931SOL    HW222633   6.962  10.173   4.297
 6932SOL     OW22634   5.369   2.508  12.278
 6932SOL    HW122635   5.422   2.570  12.328
 6932SOL    HW222636   5.429   2.474  12.211
 6933SOL     OW22637  10.925   7.565  10.163
 6933SOL    HW122638  10.858   7.525  10.107
 6933SOL    HW222639  10.894   7.655  10.177
 6934SOL     OW22640   4.054  11.040   8.498
 6934SOL    HW122641   4.001  10.964   8.474
 6934SOL    HW222642   4.013  11.113   8.452
 6935SOL     OW22643   5.956   7.018  11.647
 6935SOL    HW122644   5.966   7.060  11.732
 6935SOL    HW222645   5.917   7.085  11.591
 6936SOL     OW22646  13.861   6.716   3.565
 6936SOL    HW122647  13.770   6.702   3.539
 6936SOL    HW222648  13.893   6.784   3.506
 6937SOL     OW22649  12.058  13.440   8.386
 6937SOL    HW122650  12.082  13.396   8.467
 6937SOL    HW222651  11.984  13.389   8.352
 6938SOL     OW22652  10.616  13.751   2.997
 6938SOL    HW122653  10.560  13.682   2.962
 6938SOL    HW222654  10.599  13.827   2.942
 6939SOL     OW22655  12.552  13.586   0.813
 6939SOL    HW122656  12.617  13.516   0.813
 6939SOL    HW222657  12.576  13.641   0.739
 6940SOL     OW22658  13.314  12.532  10.438
 6940SOL    HW122659  13.233  12.559  10.396
 6940SOL    HW222660  13.348  12.612  10.478
 6941SOL     OW22661  11.937   7.070  12.702
 6941SOL    HW122662  11.903   7.020  12.629
 6941SOL    HW222663  11.988   7.007  12.753
 6942SOL     OW22664   3.119   9.308  10.660
 6942SOL    HW122665   3.205   9.288  10.622
 6942SOL    HW222666   3.088   9.383  10.610
 6943SOL     OW22667  14.763   9.196   6.083
 6943SOL    HW122668  14.768   9.168   6.174
 6943SOL    HW222669  14.821   9.137   6.036
 6944SOL     OW22670   9.803   8.191   8.282
 6944SOL    HW122671   9.777   8.099   8.282
 6944SOL    HW222672   9.787   8.220   8.372
 6945SOL     OW22673   3.875   6.471  14.355
 6945SOL    HW122674   3.861   6.376  14.351
 6945SOL    HW222675   3.908   6.494  14.269
 6946SOL     OW22676  14.557   8.611   2.975
 6946SOL    HW122677  14.572   8.693   3.021
 6946SOL    HW222678  14.561   8.544   3.043
 6947SOL     OW22679   3.675   4.873   6.867
 6947SOL    HW122680   3.624   4.894   6.789
 6947SOL    HW222681   3.718   4.955   6.891
 6948SOL     OW22682   2.453  13.432   2.015
 6948SOL    HW122683   2.358  13.419   2.015
 6948SOL    HW222684   2.471  13.480   1.934
 6949SOL     OW22685   5.000   2.880  10.998
 6949SOL    HW122686   4.906   2.876  10.981
 6949SOL    HW222687   5.014   2.968  11.033
 6950SOL     OW22688   5.885  14.368   1.760
 6950SOL    HW122689   5.919  14.303   1.698
 6950SOL    HW222690   5.794  14.380   1.735
 6951SOL     OW22691   6.051   4.118   2.671
 6951SOL    HW122692   6.054   4.208   2.704
 6951SOL    HW222693   6.115   4.117   2.600
 6952SOL     OW22694  13.689   2.428  11.536
 6952SOL    HW122695  13.775   2.467  11.550
 6952SOL    HW222696  13.639   2.453  11.614
 6953SOL     OW22697   4.750   4.243   8.148
 6953SOL    HW122698   4.823   4.183   8.159
 6953SOL    HW222699   4.702   4.238   8.230
 6954SOL     OW22700   9.794   9.186   5.966
 6954SOL    HW122701   9.879   9.190   5.921
 6954SOL    HW222702   9.745   9.260   5.932
 6955SOL     OW22703   5.877   8.523  13.722
 6955SOL    HW122704   5.789   8.528  13.759
 6955SOL    HW222705   5.909   8.613  13.727
 6956SOL     OW22706   5.008   2.707   3.915
 6956SOL    HW122707   4.931   2.651   3.922
 6956SOL    HW222708   5.059   2.688   3.994
 6957SOL     OW22709  10.473   7.613   1.159
 6957SOL    HW122710  10.404   7.673   1.131
 6957SOL    HW222711  10.445   7.583   1.245
 6958SOL     OW22712   1.904   4.151   5.750
 6958SOL    HW122713   1.992   4.174   5.781
 6958SOL    HW222714   1.916   4.069   5.702
 6959SOL     OW22715  13.284   6.544  10.704
 6959SOL    HW122716  13.194   6.522  10.727
 6959SOL    HW222717  13.292   6.520  10.612
 6960SOL     OW22718   4.716   9.052   1.200
 6960SOL    HW122719   4.791   9.061   1.142
 6960SOL    HW222720   4.731   9.116   1.270
 6961SOL     OW22721   7.394   0.393  13.435
 6961SOL    HW122722   7.347   0.476  13.442
 6961SOL    HW222723   7.374   0.362  13.346
 6962SOL     OW22724   3.682   5.717   0.370
 6962SOL    HW122725   3.608   5.777   0.363
 6962SOL    HW222726   3.692   5.701   0.464
 6963SOL     OW22727  13.744  13.121   9.030
 6963SOL    HW122728  13.729  13.072   8.949
 6963SOL    HW222729  13.662  13.167   9.046
 6964SOL     OW22730   0.190   9.575  14.538
 6964SOL    HW122731   0.259   9.621  14.490
 6964SOL    HW222732   0.170   9.632  14.613
 6965SOL     OW22733  11.806   8.045   8.100
 6965SOL    HW122734  11.734   8.008   8.150
 6965SOL    HW222735  11.858   7.970   8.072
 6966SOL     OW22736   5.733   1.816   5.877
 6966SOL    HW122737   5.787   1.749   5.836
 6966SOL    HW222738   5.699   1.869   5.805
 6967SOL     OW22739   1.764   8.046   9.752
 6967SOL    HW122740   1.767   8.142   9.751
 6967SOL    HW222741   1.848   8.020   9.791
 6968SOL     OW22742  10.337   3.314   6.090
 6968SOL    HW122743  10.245   3.299   6.110
 6968SOL    HW222744  10.350   3.275   6.004
 6969SOL     OW22745   4.738   7.317   1.715
 6969SOL    HW122746   4.724   7.223   1.722
 6969SOL    HW222747   4.715   7.338   1.624
 6970SOL     OW22748   6.869   7.437   3.506
 6970SOL    HW122749   6.833   7.475   3.426
 6970SOL    HW222750   6.933   7.373   3.475
 6971SOL     OW22751   8.758   2.076   6.525
 6971SOL    HW122752   8.843   2.039   6.501
 6971SOL    HW222753   8.755   2.160   6.478
 6972SOL     OW22754   2.610   4.513   1.623
 6972SOL    HW122755   2.600   4.537   1.715
 6972SOL    HW222756   2.597   4.418   1.622
 6973SOL     OW22757  12.543  10.007   9.011
 6973SOL    HW122758  12.504  10.082   8.966
 6973SOL    HW222759  12.468   9.950   9.032
 6974SOL     OW22760   3.600   4.595  14.008
 6974SOL    HW122761   3.595   4.677  13.958
 6974SOL    HW222762   3.634   4.531  13.946
 6975SOL     OW22763   6.182   0.646  10.731
 6975SOL    HW122764   6.139   0.695  10.801
 6975SOL    HW222765   6.275   0.648  10.754
 6976SOL     OW22766   6.831   2.889   2.290
 6976SOL    HW122767   6.772   2.869   2.363
 6976SOL    HW222768   6.832   2.808   2.239
 6977SOL     OW22769   2.087  14.575   5.043
 6977SOL    HW122770   2.137  14.634   5.099
 6977SOL    HW222771   2.032  14.525   5.104
 6978SOL     OW22772   0.110   3.589   1.281
 6978SOL    HW122773   0.180   3.528   1.261
 6978SOL    HW222774   0.057   3.593   1.201
 6979SOL     OW22775   8.910   6.404  14.749
 6979SOL    HW122776   8.888   6.383  14.840
 6979SOL    HW222777   8.982   6.344  14.727
 6980SOL     OW22778  10.566   0.045  14.551
 6980SOL    HW122779  10.605   0.098  14.621
 6980SOL    HW222780  10.543   0.108  14.483
 6981SOL     OW22781   1.743   1.397   3.664
 6981SOL    HW122782   1.757   1.350   3.746
 6981SOL    HW222783   1.794   1.478   3.675
 6982SOL     OW22784   9.475  10.376   8.016
 6982SOL    HW122785   9.554  10.378   8.070
 6982SOL    HW222786   9.412  10.429   8.065
 6983SOL     OW22787   3.096   5.462   6.207
 6983SOL    HW122788   3.163   5.528   6.192
 6983SOL    HW222789   3.055   5.489   6.289
 6984SOL     OW22790   8.463  11.579  10.469
 6984SOL    HW122791   8.402  11.643  10.507
 6984SOL    HW222792   8.409  11.527  10.410
 6985SOL     OW22793   3.237   8.322   4.107
 6985SOL    HW122794   3.192   8.284   4.183
 6985SOL    HW222795   3.320   8.355   4.143
 6986SOL     OW22796   0.321   9.199  11.560
 6986SOL    HW122797   0.328   9.181  11.654
 6986SOL    HW222798   0.308   9.113  11.520
 6987SOL     OW22799  11.729   1.057   8.141
 6987SOL    HW122800  11.657   1.063   8.204
 6987SOL    HW222801  11.704   1.117   8.070
 6988SOL     OW22802  10.190  13.122   6.241
 6988SOL    HW122803  10.263  13.061   6.233
 6988SOL    HW222804  10.207  13.189   6.175
 6989SOL     OW22805   7.028   1.687   1.956
 6989SOL    HW122806   7.098   1.704   2.019
 6989SOL    HW222807   7.021   1.768   1.906
 6990SOL     OW22808   0.127   3.376   7.174
 6990SOL    HW122809   0.096   3.291   7.207
 6990SOL    HW222810   0.133   3.364   7.079
 6991SOL     OW22811   2.596   9.221  13.924
 6991SOL    HW122812   2.616   9.175  14.005
 6991SOL    HW222813   2.599   9.152  13.856
 6992SOL     OW22814   4.247  14.691  11.456
 6992SOL    HW122815   4.273  14.645  11.536
 6992SOL    HW222816   4.329  14.724  11.419
 6993SOL     OW22817   9.898  11.949   7.605
 6993SOL    HW122818   9.808  11.951   7.637
 6993SOL    HW222819   9.939  11.878   7.654
 6994SOL     OW22820  10.934  13.131   2.674
 6994SOL    HW122821  10.975  13.205   2.628
 6994SOL    HW222822  10.903  13.168   2.757
 6995SOL     OW22823  14.036   2.907   5.412
 6995SOL    HW122824  14.026   2.983   5.355
 6995SOL    HW222825  14.032   2.943   5.501
 6996SOL     OW22826   9.111   6.110   2.667
 6996SOL    HW122827   9.113   6.053   2.743
 6996SOL    HW222828   9.073   6.192   2.700
 6997SOL     OW22829  14.045   8.741  12.405
 6997SOL    HW122830  14.087   8.729  12.320
 6997SOL    HW222831  14.061   8.832  12.427
 6998SOL     OW22832   8.663   4.508   5.466
 6998SOL    HW122833   8.730   4.533   5.402
 6998SOL    HW222834   8.665   4.413   5.467
 6999SOL     OW22835  10.706   0.515   3.304
 6999SOL    HW122836  10.659   0.533   3.222
 6999SOL    HW222837  10.659   0.441   3.342
 7000SOL     OW22838  13.815   9.234   0.227
 7000SOL    HW122839  13.773   9.271   0.305
 7000SOL    HW222840  13.751   9.247   0.157
 7001SOL     OW22841   5.053  14.863  13.159
 7001SOL    HW122842   5.076   0.044  13.088
 7001SOL    HW222843   5.058   0.037  13.238
 7002SOL     OW22844  11.879   3.481   6.327
 7002SOL    HW122845  11.964   3.515   6.299
 7002SOL    HW222846  11.876   3.392   6.290
 7003SOL     OW22847   6.865   7.227   6.621
 7003SOL    HW122848   6.869   7.323   6.616
 7003SOL    HW222849   6.911   7.197   6.543
 7004SOL     OW22850   8.819  10.809  12.237
 7004SOL    HW122851   8.832  10.717  12.261
 7004SOL    HW222852   8.725  10.815  12.218
 7005SOL     OW22853   1.221   8.408  10.208
 7005SOL    HW122854   1.283   8.335  10.197
 7005SOL    HW222855   1.275   8.487  10.199
 7006SOL     OW22856   7.985   6.162   2.835
 7006SOL    HW122857   8.053   6.159   2.768
 7006SOL    HW222858   7.975   6.256   2.854
 7007SOL     OW22859   8.923  11.422   0.265
 7007SOL    HW122860   9.018  11.438   0.263
 7007SOL    HW222861   8.915  11.327   0.256
 7008SOL     OW22862   2.864   7.714   2.995
 7008SOL    HW122863   2.889   7.806   2.994
 7008SOL    HW222864   2.916   7.675   2.924
 7009SOL     OW22865   1.134  12.329   2.076
 7009SOL    HW122866   1.191  12.259   2.107
 7009SOL    HW222867   1.134  12.394   2.147
 7010SOL     OW22868  13.648  13.673   5.864
 7010SOL    HW122869  13.579  13.725   5.905
 7010SOL    HW222870  13.701  13.642   5.938
 7011SOL     OW22871   4.456  12.596   2.051
 7011SOL    HW122872   4.474  12.629   2.139
 7011SOL    HW222873   4.368  12.558   2.057
 7012SOL     OW22874   9.960   5.097  13.210
 7012SOL    HW122875   9.882   5.150  13.226
 7012SOL    HW222876   9.926   5.008  13.200
 7013SOL     OW22877  13.465   1.623   9.818
 7013SOL    HW122878  13.553   1.643   9.850
 7013SOL    HW222879  13.407   1.650   9.889
 7014SOL     OW22880   8.079   4.439   8.528
 7014SOL    HW122881   8.151   4.500   8.540
 7014SOL    HW222882   8.105   4.385   8.454
 7015SOL     OW22883   3.967   0.507   1.567
 7015SOL    HW122884   4.033   0.566   1.602
 7015SOL    HW222885   3.909   0.564   1.515
 7016SOL     OW22886   8.767   3.463   4.366
 7016SOL    HW122887   8.707   3.511   4.310
 7016SOL    HW222888   8.787   3.523   4.438
 7017SOL     OW22889  14.168   2.631   9.814
 7017SOL    HW122890  14.234   2.567   9.789
 7017SOL    HW222891  14.121   2.650   9.733
 7018SOL     OW22892  12.016  11.511  10.271
 7018SOL    HW122893  12.059  11.561  10.340
 7018SOL    HW222894  11.935  11.480  10.311
 7019SOL     OW22895   7.157   5.409   2.922
 7019SOL    HW122896   7.235   5.411   2.867
 7019SOL    HW222897   7.084   5.410   2.860
 7020SOL     OW22898   3.074  14.358  12.734
 7020SOL    HW122899   3.028  14.385  12.654
 7020SOL    HW222900   3.035  14.275  12.758
 7021SOL     OW22901  13.869   8.138   6.028
 7021SOL    HW122902  13.813   8.082   6.080
 7021SOL    HW222903  13.953   8.137   6.073
 7022SOL     OW22904   5.199  10.222   3.368
 7022SOL    HW122905   5.106  10.207   3.388
 7022SOL    HW222906   5.246  10.161   3.424
 7023SOL     OW22907   0.704  12.649   7.686
 7023SOL    HW122908   0.671  12.607   7.606
 7023SOL    HW222909   0.709  12.742   7.663
 7024SOL     OW22910   7.979  14.833  13.260
 7024SOL    HW122911   8.017   0.038  13.284
 7024SOL    HW222912   8.019  14.771  13.321
 7025SOL     OW22913   6.338  14.696   6.776
 7025SOL    HW122914   6.428  14.723   6.758
 7025SOL    HW222915   6.304  14.764   6.834
 7026SOL     OW22916  12.332   7.897   1.398
 7026SOL    HW122917  12.286   7.979   1.416
 7026SOL    HW222918  12.264   7.831   1.396
 7027SOL     OW22919   9.019   1.022  10.722
 7027SOL    HW122920   9.111   1.046  10.736
 7027SOL    HW222921   9.016   0.994  10.630
 7028SOL     OW22922   7.491   0.239  12.223
 7028SOL    HW122923   7.544   0.164  12.199
 7028SOL    HW222924   7.524   0.311  12.169
 7029SOL     OW22925   6.474   9.516   8.229
 7029SOL    HW122926   6.463   9.567   8.309
 7029SOL    HW222927   6.489   9.581   8.160
 7030SOL     OW22928  11.756   3.947   9.862
 7030SOL    HW122929  11.726   3.921   9.775
 7030SOL    HW222930  11.744   4.042   9.865
 7031SOL     OW22931  11.029  13.515   0.674
 7031SOL    HW122932  11.043  13.422   0.693
 7031SOL    HW222933  10.934  13.527   0.684
 7032SOL     OW22934   9.215   9.776  10.860
 7032SOL    HW122935   9.277   9.848  10.874
 7032SOL    HW222936   9.269   9.705  10.824
 7033SOL     OW22937   7.316   4.408   8.455
 7033SOL    HW122938   7.399   4.405   8.407
 7033SOL    HW222939   7.340   4.424   8.546
 7034SOL     OW22940   8.464   8.813   6.334
 7034SOL    HW122941   8.431   8.801   6.245
 7034SOL    HW222942   8.386   8.805   6.389
 7035SOL     OW22943   8.007   7.438   8.476
 7035SOL    HW122944   8.094   7.406   8.451
 7035SOL    HW222945   8.023   7.494   8.552
 7036SOL     OW22946   1.152   0.320   6.401
 7036SOL    HW122947   1.074   0.301   6.348
 7036SOL    HW222948   1.117   0.342   6.487
 7037SOL     OW22949  13.921  10.322   4.470
 7037SOL    HW122950  13.951  10.237   4.501
 7037SOL    HW222951  13.964  10.334   4.385
 7038SOL     OW22952   0.381   9.555   2.094
 7038SOL    HW122953   0.341   9.589   2.014
 7038SOL    HW222954   0.442   9.488   2.064
 7039SOL     OW22955   4.072  11.668  11.206
 7039SOL    HW122956   4.057  11.649  11.299
 7039SOL    HW222957   4.166  11.659  11.194
 7040SOL     OW22958  13.272   5.169  12.850
 7040SOL    HW122959  13.265   5.099  12.784
 7040SOL    HW222960  13.222   5.241  12.813
 7041SOL     OW22961   1.967   8.543   3.502
 7041SOL    HW122962   1.945   8.560   3.594
 7041SOL    HW222963   2.062   8.548   3.499
 7042SOL     OW22964   8.631  14.016   8.452
 7042SOL    HW122965   8.642  14.001   8.358
 7042SOL    HW222966   8.684  14.093   8.471
 7043SOL     OW22967  11.267   8.013  10.951
 7043SOL    HW122968  11.236   7.940  11.003
 7043SOL    HW222969  11.360   7.995  10.936
 7044SOL     OW22970   1.014   2.200  13.402
 7044SOL    HW122971   0.949   2.136  13.431
 7044SOL    HW222972   0.987   2.222  13.313
 7045SOL     OW22973   5.338   6.484   1.563
 7045SOL    HW122974   5.340   6.505   1.656
 7045SOL    HW222975   5.423   6.515   1.530
 7046SOL     OW22976   9.199  10.381  10.402
 7046SOL    HW122977   9.109  10.393  10.434
 7046SOL    HW222978   9.254  10.403  10.477
 7047SOL     OW22979   9.742  13.751   7.105
 7047SOL    HW122980   9.791  13.673   7.133
 7047SOL    HW222981   9.672  13.716   7.050
 7048SOL     OW22982  14.546   3.644  12.431
 7048SOL    HW122983  14.534   3.739  12.432
 7048SOL    HW222984  14.565   3.621  12.522
 7049SOL     OW22985  10.238   8.290   2.979
 7049SOL    HW122986  10.288   8.363   2.942
 7049SOL    HW222987  10.304   8.226   3.006
 7050SOL     OW22988   2.286   0.016   3.649
 7050SOL    HW122989   2.283  14.830   3.578
 7050SOL    HW222990   2.218  14.867   3.710
 7051SOL     OW22991   3.918   4.647   5.330
 7051SOL    HW122992   3.836   4.684   5.362
 7051SOL    HW222993   3.892   4.569   5.281
 7052SOL     OW22994   7.253   2.114   3.048
 7052SOL    HW122995   7.334   2.063   3.053
 7052SOL    HW222996   7.217   2.109   3.136
 7053SOL     OW22997  14.537  13.588   4.432
 7053SOL    HW122998  14.508  13.669   4.391
 7053SOL    HW222999  14.512  13.520   4.370
 7054SOL     OW23000   1.102   2.703  13.386
 7054SOL    HW123001   1.037   2.659  13.333
 7054SOL    HW223002   1.137   2.772  13.329
 7055SOL     OW23003  13.020   6.215   7.974
 7055SOL    HW123004  12.927   6.193   7.975
 7055SOL    HW223005  13.055   6.166   7.900
 7056SOL     OW23006   5.416   8.995   1.784
 7056SOL    HW123007   5.500   9.030   1.757
 7056SOL    HW223008   5.356   9.019   1.714
 7057SOL     OW23009   0.186   5.866  11.795
 7057SOL    HW123010   0.157   5.780  11.763
 7057SOL    HW223011   0.198   5.853  11.889
 7058SOL     OW23012  12.467   5.228  13.870
 7058SOL    HW123013  12.391   5.239  13.813
 7058SOL    HW223014  12.527   5.298  13.845
 7059SOL     OW23015   7.994   6.660  11.009
 7059SOL    HW123016   7.923   6.646  10.947
 7059SOL    HW223017   8.012   6.754  11.003
 7060SOL     OW23018   5.209  12.364   1.968
 7060SOL    HW123019   5.190  12.433   2.032
 7060SOL    HW223020   5.187  12.283   2.014
 7061SOL     OW23021   1.822   3.727  12.067
 7061SOL    HW123022   1.759   3.798  12.076
 7061SOL    HW223023   1.908   3.769  12.073
 7062SOL     OW23024  13.921  11.176   0.077
 7062SOL    HW123025  13.917  11.265   0.044
 7062SOL    HW223026  13.991  11.178   0.143
 7063SOL     OW23027   4.588   7.787   1.613
 7063SOL    HW123028   4.532   7.710   1.625
 7063SOL    HW223029   4.623   7.804   1.700
 7064SOL     OW23030   0.191   6.927  14.676
 7064SOL    HW123031   0.188   6.881  14.760
 7064SOL    HW223032   0.116   6.987  14.679
 7065SOL     OW23033  11.722   2.925  14.491
 7065SOL    HW123034  11.755   2.906  14.404
 7065SOL    HW223035  11.799   2.953  14.541
 7066SOL     OW23036  14.387   4.768   4.354
 7066SOL    HW123037  14.390   4.673   4.341
 7066SOL    HW223038  14.457   4.786   4.418
 7067SOL     OW23039   6.909   8.669   2.843
 7067SOL    HW123040   6.887   8.750   2.890
 7067SOL    HW223041   6.939   8.609   2.911
 7068SOL     OW23042  14.366  11.401   9.037
 7068SOL    HW123043  14.296  11.436   9.092
 7068SOL    HW223044  14.322  11.338   8.980
 7069SOL     OW23045   8.067   2.375  12.595
 7069SOL    HW123046   8.023   2.333  12.669
 7069SOL    HW223047   7.999   2.429  12.554
 7070SOL     OW23048   0.475  11.567   4.557
 7070SOL    HW123049   0.497  11.519   4.477
 7070SOL    HW223050   0.418  11.508   4.606
 7071SOL     OW23051  13.753  10.645   7.416
 7071SOL    HW123052  13.664  10.616   7.394
 7071SOL    HW223053  13.742  10.734   7.449
 7072SOL     OW23054   4.238   8.753   8.330
 7072SOL    HW123055   4.327   8.784   8.314
 7072SOL    HW223056   4.189   8.781   8.253
 7073SOL     OW23057  14.494  11.508  11.975
 7073SOL    HW123058  14.485  11.493  12.069
 7073SOL    HW223059  14.447  11.589  11.958
 7074SOL     OW23060  14.323   8.186  10.499
 7074SOL    HW123061  14.230   8.166  10.490
 7074SOL    HW223062  14.340   8.251  10.430
 7075SOL     OW23063   5.033   7.409   7.337
 7075SOL    HW123064   5.108   7.422   7.395
 7075SOL    HW223065   4.972   7.480   7.359
 7076SOL     OW23066   5.856  11.049  10.983
 7076SOL    HW123067   5.837  11.079  10.894
 7076SOL    HW223068   5.904  10.967  10.971
 7077SOL     OW23069  13.815  14.314   3.992
 7077SOL    HW123070  13.852  14.278   4.073
 7077SOL    HW223071  13.734  14.264   3.978
 7078SOL     OW23072   6.304   2.294   1.707
 7078SOL    HW123073   6.356   2.292   1.787
 7078SOL    HW223074   6.213   2.302   1.737
 7079SOL     OW23075  14.681  14.532   6.283
 7079SOL    HW123076  14.667  14.438   6.269
 7079SOL    HW223077  14.625  14.574   6.217
 7080SOL     OW23078   0.511   7.047   1.173
 7080SOL    HW123079   0.452   7.097   1.116
 7080SOL    HW223080   0.527   6.966   1.125
 7081SOL     OW23081  12.452   1.442   7.107
 7081SOL    HW123082  12.434   1.360   7.062
 7081SOL    HW223083  12.379   1.499   7.084
 7082SOL     OW23084   8.255  10.894   6.318
 7082SOL    HW123085   8.162  10.877   6.335
 7082SOL    HW223086   8.258  10.984   6.286
 7083SOL     OW23087  13.602  11.052  11.455
 7083SOL    HW123088  13.653  11.082  11.531
 7083SOL    HW223089  13.644  10.971  11.427
 7084SOL     OW23090   6.599   6.856  13.133
 7084SOL    HW123091   6.569   6.842  13.043
 7084SOL    HW223092   6.570   6.778  13.180
 7085SOL     OW23093   2.162   1.790   3.874
 7085SOL    HW123094   2.108   1.728   3.824
 7085SOL    HW223095   2.247   1.747   3.881
 7086SOL     OW23096  13.189  14.031   9.999
 7086SOL    HW123097  13.147  13.981   9.929
 7086SOL    HW223098  13.282  14.022   9.982
 7087SOL     OW23099   9.984   5.511   5.389
 7087SOL    HW123100  10.013   5.423   5.413
 7087SOL    HW223101   9.894   5.499   5.359
 7088SOL     OW23102   7.441  14.238   6.331
 7088SOL    HW123103   7.454  14.325   6.293
 7088SOL    HW223104   7.393  14.190   6.264
 7089SOL     OW23105  10.004   6.732   0.407
 7089SOL    HW123106   9.972   6.749   0.318
 7089SOL    HW223107   9.976   6.643   0.426
 7090SOL     OW23108  14.482   6.136  10.615
 7090SOL    HW123109  14.546   6.111  10.549
 7090SOL    HW223110  14.408   6.171  10.565
 7091SOL     OW23111   4.201   9.527  11.467
 7091SOL    HW123112   4.194   9.450  11.524
 7091SOL    HW223113   4.112   9.542  11.436
 7092SOL     OW23114   2.481  12.572   2.080
 7092SOL    HW123115   2.450  12.501   2.023
 7092SOL    HW223116   2.411  12.637   2.077
 7093SOL     OW23117   6.350  12.033   2.484
 7093SOL    HW123118   6.339  11.962   2.547
 7093SOL    HW223119   6.389  11.992   2.408
 7094SOL     OW23120  11.472   3.501   6.335
 7094SOL    HW123121  11.490   3.532   6.424
 7094SOL    HW223122  11.410   3.428   6.346
 7095SOL     OW23123   9.088   0.218   4.737
 7095SOL    HW123124   9.164   0.167   4.765
 7095SOL    HW223125   9.025   0.209   4.808
 7096SOL     OW23126   1.285   5.744   8.672
 7096SOL    HW123127   1.228   5.710   8.603
 7096SOL    HW223128   1.252   5.833   8.688
 7097SOL     OW23129  13.082  12.187   0.789
 7097SOL    HW123130  13.176  12.171   0.796
 7097SOL    HW223131  13.045  12.103   0.760
 7098SOL     OW23132   8.402   2.006  10.799
 7098SOL    HW123133   8.465   1.941  10.831
 7098SOL    HW223134   8.454   2.067  10.748
 7099SOL     OW23135   1.253   0.652   0.200
 7099SOL    HW123136   1.158   0.665   0.200
 7099SOL    HW223137   1.286   0.714   0.264
 7100SOL     OW23138  12.500   6.645   7.000
 7100SOL    HW123139  12.563   6.580   7.030
 7100SOL    HW223140  12.553   6.711   6.956
 7101SOL     OW23141   8.164  13.189  13.189
 7101SOL    HW123142   8.087  13.148  13.151
 7101SOL    HW223143   8.134  13.225  13.273
 7102SOL     OW23144   8.295  11.305   9.860
 7102SOL    HW123145   8.228  11.335   9.798
 7102SOL    HW223146   8.332  11.227   9.820
 7103SOL     OW23147   4.916   9.524  12.895
 7103SOL    HW123148   4.838   9.505  12.947
 7103SOL    HW223149   4.948   9.607  12.929
 7104SOL     OW23150   8.937  13.152   2.195
 7104SOL    HW123151   8.983  13.169   2.277
 7104SOL    HW223152   8.857  13.106   2.222
 7105SOL     OW23153   4.923   7.551   8.024
 7105SOL    HW123154   4.867   7.588   8.093
 7105SOL    HW223155   4.885   7.586   7.943
 7106SOL     OW23156   4.420  10.350   2.185
 7106SOL    HW123157   4.481  10.355   2.111
 7106SOL    HW223158   4.449  10.274   2.234
 7107SOL     OW23159   2.986   3.308   8.097
 7107SOL    HW123160   3.060   3.367   8.112
 7107SOL    HW223161   2.927   3.323   8.171
 7108SOL     OW23162   9.143   0.761  11.458
 7108SOL    HW123163   9.111   0.675  11.430
 7108SOL    HW223164   9.222   0.742  11.509
 7109SOL     OW23165  12.145   7.318   7.278
 7109SOL    HW123166  12.150   7.226   7.252
 7109SOL    HW223167  12.234   7.351   7.265
 7110SOL     OW23168  12.860  13.201   9.367
 7110SOL    HW123169  12.925  13.152   9.418
 7110SOL    HW223170  12.906  13.279   9.337
 7111SOL     OW23171   0.276   8.614   4.246
 7111SOL    HW123172   0.303   8.599   4.155
 7111SOL    HW223173   0.208   8.549   4.262
 7112SOL     OW23174   5.817   3.362   3.991
 7112SOL    HW123175   5.910   3.353   4.010
 7112SOL    HW223176   5.809   3.451   3.956
 7113SOL     OW23177   9.142   9.880  14.043
 7113SOL    HW123178   9.143   9.913  14.132
 7113SOL    HW223179   9.091   9.799  14.047
 7114SOL     OW23180  12.609   3.622   8.656
 7114SOL    HW123181  12.694   3.665   8.649
 7114SOL    HW223182  12.629   3.529   8.640
 7115SOL     OW23183   9.776  11.336   8.717
 7115SOL    HW123184   9.808  11.426   8.706
 7115SOL    HW223185   9.845  11.281   8.681
 7116SOL     OW23186   6.104   6.681   3.362
 7116SOL    HW123187   6.116   6.748   3.295
 7116SOL    HW223188   6.136   6.600   3.321
 7117SOL     OW23189  12.483   6.821  11.154
 7117SOL    HW123190  12.431   6.780  11.085
 7117SOL    HW223191  12.421   6.874  11.203
 7118SOL     OW23192   5.359   8.243   9.182
 7118SOL    HW123193   5.413   8.164   9.180
 7118SOL    HW223194   5.304   8.236   9.103
 7119SOL     OW23195  12.224   6.003  12.875
 7119SOL    HW123196  12.205   6.044  12.959
 7119SOL    HW223197  12.244   6.076  12.817
 7120SOL     OW23198   5.857   9.223   9.265
 7120SOL    HW123199   5.793   9.292   9.282
 7120SOL    HW223200   5.901   9.250   9.184
 7121SOL     OW23201   1.050   9.281  10.740
 7121SOL    HW123202   0.964   9.323  10.739
 7121SOL    HW223203   1.036   9.198  10.693
 7122SOL     OW23204   8.059  14.096  11.150
 7122SOL    HW123205   8.131  14.033  11.142
 7122SOL    HW223206   8.069  14.133  11.238
 7123SOL     OW23207  12.896   3.178  12.804
 7123SOL    HW123208  12.823   3.118  12.791
 7123SOL    HW223209  12.888   3.206  12.895
 7124SOL     OW23210   6.253   1.551  11.894
 7124SOL    HW123211   6.338   1.522  11.928
 7124SOL    HW223212   6.252   1.645  11.910
 7125SOL     OW23213  10.761   9.526   1.418
 7125SOL    HW123214  10.692   9.576   1.460
 7125SOL    HW223215  10.716   9.450   1.380
 7126SOL     OW23216   4.245   3.141   2.644
 7126SOL    HW123217   4.296   3.073   2.602
 7126SOL    HW223218   4.205   3.099   2.720
 7127SOL     OW23219  13.167   1.312   2.695
 7127SOL    HW123220  13.205   1.383   2.643
 7127SOL    HW223221  13.229   1.299   2.767
 7128SOL     OW23222   8.236   9.472   0.614
 7128SOL    HW123223   8.160   9.509   0.571
 7128SOL    HW223224   8.224   9.493   0.707
 7129SOL     OW23225   6.846   1.121   4.992
 7129SOL    HW123226   6.815   1.141   4.904
 7129SOL    HW223227   6.937   1.094   4.981
 7130SOL     OW23228   1.215   7.155   9.671
 7130SOL    HW123229   1.153   7.208   9.621
 7130SOL    HW223230   1.283   7.132   9.608
 7131SOL     OW23231   4.604  12.687   6.072
 7131SOL    HW123232   4.639  12.623   6.134
 7131SOL    HW223233   4.549  12.635   6.013
 7132SOL     OW23234  11.938  11.814   4.981
 7132SOL    HW123235  11.908  11.741   5.034
 7132SOL    HW223236  11.901  11.798   4.894
 7133SOL     OW23237  13.102   5.360  13.887
 7133SOL    HW123238  13.013   5.357  13.921
 7133SOL    HW223239  13.118   5.273  13.851
 7134SOL     OW23240   5.313  13.155   2.723
 7134SOL    HW123241   5.378  13.085   2.730
 7134SOL    HW223242   5.248  13.135   2.791
 7135SOL     OW23243   9.868   9.057   7.147
 7135SOL    HW123244   9.789   9.033   7.098
 7135SOL    HW223245   9.840   9.057   7.239
 7136SOL     OW23246   8.021   9.580  10.289
 7136SOL    HW123247   8.095   9.640  10.295
 7136SOL    HW223248   8.058   9.500  10.251
 7137SOL     OW23249  11.511  11.704  14.610
 7137SOL    HW123250  11.449  11.676  14.542
 7137SOL    HW223251  11.479  11.790  14.637
 7138SOL     OW23252   6.170   5.750  12.812
 7138SOL    HW123253   6.178   5.762  12.907
 7138SOL    HW223254   6.078   5.768  12.794
 7139SOL     OW23255   0.888  11.921  12.276
 7139SOL    HW123256   0.845  11.867  12.343
 7139SOL    HW223257   0.943  11.861  12.228
 7140SOL     OW23258  14.760   7.466  11.294
 7140SOL    HW123259  14.680   7.507  11.326
 7140SOL    HW223260  14.830   7.527  11.317
 7141SOL     OW23261   5.465   8.155   1.684
 7141SOL    HW123262   5.547   8.125   1.724
 7141SOL    HW223263   5.404   8.163   1.758
 7142SOL     OW23264   1.799   7.673   2.391
 7142SOL    HW123265   1.866   7.633   2.446
 7142SOL    HW223266   1.718   7.629   2.416
 7143SOL     OW23267   1.339   0.586   4.491
 7143SOL    HW123268   1.325   0.633   4.408
 7143SOL    HW223269   1.280   0.511   4.485
 7144SOL     OW23270  14.054  10.563   2.061
 7144SOL    HW123271  14.013  10.484   2.098
 7144SOL    HW223272  13.980  10.618   2.035
 7145SOL     OW23273  11.485  10.453   6.874
 7145SOL    HW123274  11.475  10.426   6.966
 7145SOL    HW223275  11.398  10.482   6.848
 7146SOL     OW23276  13.887  10.453   8.517
 7146SOL    HW123277  13.809  10.507   8.511
 7146SOL    HW223278  13.865  10.387   8.582
 7147SOL     OW23279   0.433   5.564   6.657
 7147SOL    HW123280   0.518   5.520   6.667
 7147SOL    HW223281   0.371   5.492   6.648
 7148SOL     OW23282   5.854   2.380   7.381
 7148SOL    HW123283   5.881   2.472   7.370
 7148SOL    HW223284   5.922   2.341   7.436
 7149SOL     OW23285  13.512  12.253   3.359
 7149SOL    HW123286  13.496  12.337   3.316
 7149SOL    HW223287  13.576  12.209   3.303
 7150SOL     OW23288   6.694   0.387   4.539
 7150SOL    HW123289   6.724   0.339   4.462
 7150SOL    HW223290   6.727   0.336   4.613
 7151SOL     OW23291   2.388  14.172   5.486
 7151SOL    HW123292   2.323  14.106   5.510
 7151SOL    HW223293   2.460  14.158   5.547
 7152SOL     OW23294   0.524   5.724  14.261
 7152SOL    HW123295   0.609   5.695  14.229
 7152SOL    HW223296   0.463   5.658  14.229
 7153SOL     OW23297   1.432   3.252  11.079
 7153SOL    HW123298   1.473   3.286  11.158
 7153SOL    HW223299   1.506   3.235  11.020
 7154SOL     OW23300   0.489   4.449   2.430
 7154SOL    HW123301   0.568   4.478   2.476
 7154SOL    HW223302   0.450   4.384   2.488
 7155SOL     OW23303  10.822   8.524  12.438
 7155SOL    HW123304  10.822   8.450  12.378
 7155SOL    HW223305  10.830   8.601  12.382
 7156SOL     OW23306   0.016   7.519   8.915
 7156SOL    HW123307  14.850   7.562   8.988
 7156SOL    HW223308  14.856   7.432   8.910
 7157SOL     OW23309  11.365   4.296   3.522
 7157SOL    HW123310  11.361   4.338   3.608
 7157SOL    HW223311  11.309   4.349   3.466
 7158SOL     OW23312   1.396   1.636   4.262
 7158SOL    HW123313   1.456   1.587   4.205
 7158SOL    HW223314   1.419   1.727   4.248
 7159SOL     OW23315   9.878   7.449  13.841
 7159SOL    HW123316   9.939   7.507  13.886
 7159SOL    HW223317   9.801   7.446  13.898
 7160SOL     OW23318   6.041   4.607   9.622
 7160SOL    HW123319   5.958   4.629   9.666
 7160SOL    HW223320   6.019   4.607   9.529
 7161SOL     OW23321   3.061   9.126  10.367
 7161SOL    HW123322   3.126   9.056  10.369
 7161SOL    HW223323   3.112   9.207  10.366
 7162SOL     OW23324   7.050   5.398   9.143
 7162SOL    HW123325   7.014   5.484   9.166
 7162SOL    HW223326   6.979   5.354   9.098
 7163SOL     OW23327  11.069  14.528  14.720
 7163SOL    HW123328  11.155  14.558  14.748
 7163SOL    HW223329  11.074  14.432  14.722
 7164SOL     OW23330   7.049  14.706   1.865
 7164SOL    HW123331   7.071  14.744   1.951
 7164SOL    HW223332   7.093  14.621   1.864
 7165SOL     OW23333  10.220  13.882  10.196
 7165SOL    HW123334  10.184  13.967  10.170
 7165SOL    HW223335  10.278  13.903  10.270
 7166SOL     OW23336   5.665  14.594   2.808
 7166SOL    HW123337   5.677  14.687   2.787
 7166SOL    HW223338   5.626  14.594   2.896
 7167SOL     OW23339   0.563   3.795   0.942
 7167SOL    HW123340   0.632   3.764   1.001
 7167SOL    HW223341   0.598   3.875   0.904
 7168SOL     OW23342   0.682   1.682   9.696
 7168SOL    HW123343   0.663   1.702   9.604
 7168SOL    HW223344   0.768   1.642   9.694
 7169SOL     OW23345   7.288  10.686   2.265
 7169SOL    HW123346   7.255  10.710   2.178
 7169SOL    HW223347   7.210  10.661   2.314
 7170SOL     OW23348   6.774   4.105   5.381
 7170SOL    HW123349   6.697   4.069   5.425
 7170SOL    HW223350   6.837   4.033   5.381
 7171SOL     OW23351  14.206   4.904   7.945
 7171SOL    HW123352  14.167   4.972   7.999
 7171SOL    HW223353  14.138   4.838   7.936
 7172SOL     OW23354   8.507   5.899   6.746
 7172SOL    HW123355   8.598   5.919   6.768
 7172SOL    HW223356   8.478   5.973   6.692
 7173SOL     OW23357   7.953   6.427   0.240
 7173SOL    HW123358   8.044   6.420   0.267
 7173SOL    HW223359   7.903   6.423   0.322
 7174SOL     OW23360   1.494  11.806  14.329
 7174SOL    HW123361   1.569  11.852  14.368
 7174SOL    HW223362   1.530  11.764  14.251
 7175SOL     OW23363  14.641   4.232  14.784
 7175SOL    HW123364  14.706   4.263  14.721
 7175SOL    HW223365  14.558   4.236  14.736
 7176SOL     OW23366   6.856   9.417  14.349
 7176SOL    HW123367   6.867   9.427  14.444
 7176SOL    HW223368   6.772   9.458  14.329
 7177SOL     OW23369   3.200   8.613  11.356
 7177SOL    HW123370   3.141   8.546  11.388
 7177SOL    HW223371   3.181   8.619  11.262
 7178SOL     OW23372  11.009   6.423   1.427
 7178SOL    HW123373  10.944   6.411   1.358
 7178SOL    HW223374  10.971   6.489   1.485
 7179SOL     OW23375   5.169   6.297   2.005
 7179SOL    HW123376   5.094   6.277   1.949
 7179SOL    HW223377   5.129   6.325   2.088
 7180SOL     OW23378   2.141   8.173  13.794
 7180SOL    HW123379   2.104   8.141  13.877
 7180SOL    HW223380   2.213   8.230  13.821
 7181SOL     OW23381  12.914  11.631   0.091
 7181SOL    HW123382  12.910  11.587   0.176
 7181SOL    HW223383  12.983  11.584   0.043
 7182SOL     OW23384   7.440  10.414   6.853
 7182SOL    HW123385   7.410  10.493   6.808
 7182SOL    HW223386   7.451  10.442   6.944
 7183SOL     OW23387   8.373  12.883   6.224
 7183SOL    HW123388   8.300  12.919   6.274
 7183SOL    HW223389   8.393  12.949   6.158
 7184SOL     OW23390  12.210   6.319   0.841
 7184SOL    HW123391  12.274   6.287   0.904
 7184SOL    HW223392  12.143   6.362   0.894
 7185SOL     OW23393  11.046   5.330  11.277
 7185SOL    HW123394  11.126   5.277  11.272
 7185SOL    HW223395  11.077   5.420  11.289
 7186SOL     OW23396   4.730   4.598   9.063
 7186SOL    HW123397   4.696   4.627   9.147
 7186SOL    HW223398   4.812   4.646   9.053
 7187SOL     OW23399  10.815  13.337   3.064
 7187SOL    HW123400  10.863  13.322   2.982
 7187SOL    HW223401  10.727  13.302   3.047
 7188SOL     OW23402   0.327   7.488  12.907
 7188SOL    HW123403   0.287   7.468  12.992
 7188SOL    HW223404   0.338   7.403  12.865
 7189SOL     OW23405  11.766   5.815   5.559
 7189SOL    HW123406  11.739   5.868   5.634
 7189SOL    HW223407  11.810   5.739   5.599
 7190SOL     OW23408   1.814   3.883   5.296
 7190SOL    HW123409   1.871   3.808   5.310
 7190SOL    HW223410   1.845   3.949   5.359
 7191SOL     OW23411   0.458   4.937  12.794
 7191SOL    HW123412   0.494   4.897  12.873
 7191SOL    HW223413   0.472   5.031  12.806
 7192SOL     OW23414   4.290   6.034  12.315
 7192SOL    HW123415   4.358   6.088  12.275
 7192SOL    HW223416   4.241   5.999  12.241
 7193SOL     OW23417   2.707   9.448  11.278
 7193SOL    HW123418   2.764   9.404  11.215
 7193SOL    HW223419   2.633   9.389  11.290
 7194SOL     OW23420   3.890   2.370   5.557
 7194SOL    HW123421   3.807   2.324   5.542
 7194SOL    HW223422   3.957   2.306   5.533
 7195SOL     OW23423   3.714   7.414  11.682
 7195SOL    HW123424   3.689   7.500  11.713
 7195SOL    HW223425   3.631   7.370  11.662
 7196SOL     OW23426   3.121   7.139   5.292
 7196SOL    HW123427   3.054   7.164   5.228
 7196SOL    HW223428   3.124   7.212   5.354
 7197SOL     OW23429   6.314  13.111   1.595
 7197SOL    HW123430   6.301  13.196   1.552
 7197SOL    HW223431   6.390  13.073   1.549
 7198SOL     OW23432   5.984   5.012   7.743
 7198SOL    HW123433   5.962   4.928   7.783
 7198SOL    HW223434   5.913   5.029   7.681
 7199SOL     OW23435   3.707  12.009   7.852
 7199SOL    HW123436   3.796  11.982   7.875
 7199SOL    HW223437   3.654  11.931   7.868
 7200SOL     OW23438   5.623   2.441  11.303
 7200SOL    HW123439   5.685   2.440  11.376
 7200SOL    HW223440   5.628   2.352  11.267
 7201SOL     OW23441   8.663  14.499   2.485
 7201SOL    HW123442   8.731  14.562   2.509
 7201SOL    HW223443   8.669  14.492   2.390
 7202SOL     OW23444   3.317  10.591  11.220
 7202SOL    HW123445   3.312  10.601  11.125
 7202SOL    HW223446   3.410  10.598  11.240
 7203SOL     OW23447   5.164   9.643   4.924
 7203SOL    HW123448   5.256   9.636   4.950
 7203SOL    HW223449   5.155   9.583   4.851
 7204SOL     OW23450  12.923  12.539   5.576
 7204SOL    HW123451  12.977  12.463   5.599
 7204SOL    HW223452  12.956  12.609   5.633
 7205SOL     OW23453   2.392   0.440  11.302
 7205SOL    HW123454   2.462   0.380  11.328
 7205SOL    HW223455   2.313   0.404  11.341
 7206SOL     OW23456   6.548   5.464  13.390
 7206SOL    HW123457   6.596   5.423  13.463
 7206SOL    HW223458   6.507   5.390  13.345
 7207SOL     OW23459   6.505   5.945  13.905
 7207SOL    HW123460   6.453   6.024  13.917
 7207SOL    HW223461   6.507   5.931  13.810
 7208SOL     OW23462  11.670  11.419  11.255
 7208SOL    HW123463  11.642  11.468  11.332
 7208SOL    HW223464  11.741  11.472  11.218
 7209SOL     OW23465   2.995   8.064   1.281
 7209SOL    HW123466   3.052   8.136   1.308
 7209SOL    HW223467   2.964   8.026   1.364
 7210SOL     OW23468   9.351  10.537  13.216
 7210SOL    HW123469   9.297  10.459  13.205
 7210SOL    HW223470   9.434  10.515  13.174
 7211SOL     OW23471   1.537   8.356   6.861
 7211SOL    HW123472   1.627   8.387   6.870
 7211SOL    HW223473   1.545   8.269   6.824
 7212SOL     OW23474   5.680   6.720   9.660
 7212SOL    HW123475   5.686   6.711   9.565
 7212SOL    HW223476   5.700   6.633   9.694
 7213SOL     OW23477   6.966   4.634   7.906
 7213SOL    HW123478   7.032   4.692   7.869
 7213SOL    HW223479   7.013   4.554   7.929
 7214SOL     OW23480   4.353   0.279   5.367
 7214SOL    HW123481   4.328   0.347   5.304
 7214SOL    HW223482   4.446   0.262   5.350
 7215SOL     OW23483   9.921  12.876  12.062
 7215SOL    HW123484   9.944  12.864  11.970
 7215SOL    HW223485   9.976  12.813  12.109
 7216SOL     OW23486   3.255  12.799   6.651
 7216SOL    HW123487   3.319  12.735   6.681
 7216SOL    HW223488   3.258  12.793   6.556
 7217SOL     OW23489   4.988   3.644  11.989
 7217SOL    HW123490   4.917   3.600  11.943
 7217SOL    HW223491   4.978   3.737  11.965
 7218SOL     OW23492  10.620  14.298   6.666
 7218SOL    HW123493  10.714  14.280   6.662
 7218SOL    HW223494  10.590  14.250   6.743
 7219SOL     OW23495   5.084   5.774   5.282
 7219SOL    HW123496   5.081   5.822   5.365
 7219SOL    HW223497   5.039   5.691   5.301
 7220SOL     OW23498   8.401  12.012   5.372
 7220SOL    HW123499   8.429  12.035   5.460
 7220SOL    HW223500   8.460  11.942   5.346
 7221SOL     OW23501   8.630  10.968   5.037
 7221SOL    HW123502   8.724  10.983   5.033
 7221SOL    HW223503   8.608  10.928   4.953
 7222SOL     OW23504  10.720   3.326   3.092
 7222SOL    HW123505  10.761   3.406   3.059
 7222SOL    HW223506  10.738   3.260   3.025
 7223SOL     OW23507  11.287  13.821   3.570
 7223SOL    HW123508  11.307  13.752   3.508
 7223SOL    HW223509  11.337  13.798   3.649
 7224SOL     OW23510  10.903  10.862   1.027
 7224SOL    HW123511  10.885  10.771   1.004
 7224SOL    HW223512  10.941  10.857   1.114
 7225SOL     OW23513   9.377  11.330   2.929
 7225SOL    HW123514   9.323  11.309   3.005
 7225SOL    HW223515   9.467  11.330   2.962
 7226SOL     OW23516  11.146   7.471  11.411
 7226SOL    HW123517  11.059   7.472  11.450
 7226SOL    HW223518  11.202   7.513  11.477
 7227SOL     OW23519   1.149  12.842  14.265
 7227SOL    HW123520   1.244  12.844  14.249
 7227SOL    HW223521   1.135  12.759  14.311
 7228SOL     OW23522  11.926   7.437   2.624
 7228SOL    HW123523  11.880   7.365   2.582
 7228SOL    HW223524  11.873   7.514   2.604
 7229SOL     OW23525  14.769   3.589   0.420
 7229SOL    HW123526  14.718   3.518   0.458
 7229SOL    HW223527  14.704   3.654   0.393
 7230SOL     OW23528  12.105   9.890   2.065
 7230SOL    HW123529  12.174   9.857   2.122
 7230SOL    HW223530  12.088   9.819   2.003
 7231SOL     OW23531   0.222  12.398   1.868
 7231SOL    HW123532   0.262  12.311   1.865
 7231SOL    HW223533   0.195  12.409   1.959
 7232SOL     OW23534   3.057   0.675  11.020
 7232SOL    HW123535   3.060   0.605  11.085
 7232SOL    HW223536   3.149   0.698  11.005
 7233SOL     OW23537  10.795   2.222  11.719
 7233SOL    HW123538  10.811   2.311  11.688
 7233SOL    HW223539  10.876   2.174  11.698
 7234SOL     OW23540   0.445   5.693   4.001
 7234SOL    HW123541   0.357   5.693   4.038
 7234SOL    HW223542   0.437   5.744   3.920
 7235SOL     OW23543   5.486   2.114   6.755
 7235SOL    HW123544   5.479   2.155   6.669
 7235SOL    HW223545   5.447   2.177   6.815
 7236SOL     OW23546  10.131   9.403  11.528
 7236SOL    HW123547  10.197   9.467  11.500
 7236SOL    HW223548  10.056   9.419  11.472
 7237SOL     OW23549   6.505  10.188   8.208
 7237SOL    HW123550   6.499  10.272   8.163
 7237SOL    HW223551   6.516  10.124   8.138
 7238SOL     OW23552  11.305   4.465   6.134
 7238SOL    HW123553  11.260   4.549   6.144
 7238SOL    HW223554  11.398   4.488   6.134
 7239SOL     OW23555  11.019   8.172   8.558
 7239SOL    HW123556  10.936   8.127   8.577
 7239SOL    HW223557  10.995   8.264   8.554
 7240SOL     OW23558   1.520  11.395   2.027
 7240SOL    HW123559   1.500  11.486   2.046
 7240SOL    HW223560   1.443  11.346   2.056
 7241SOL     OW23561   4.823  11.697  14.849
 7241SOL    HW123562   4.809  11.607  14.876
 7241SOL    HW223563   4.897  11.727   0.022
 7242SOL     OW23564   1.128   0.636   6.481
 7242SOL    HW123565   1.045   0.604   6.517
 7242SOL    HW223566   1.105   0.671   6.395
 7243SOL     OW23567   1.971  14.642  13.585
 7243SOL    HW123568   1.967  14.551  13.554
 7243SOL    HW223569   1.913  14.644  13.661
 7244SOL     OW23570  11.271   6.927   4.566
 7244SOL    HW123571  11.311   6.975   4.493
 7244SOL    HW223572  11.182   6.908   4.537
 7245SOL     OW23573   1.363  10.674   5.382
 7245SOL    HW123574   1.431  10.669   5.449
 7245SOL    HW223575   1.347  10.583   5.356
 7246SOL     OW23576   8.437   9.387  12.442
 7246SOL    HW123577   8.437   9.468  12.391
 7246SOL    HW223578   8.350   9.383  12.481
 7247SOL     OW23579   3.913   3.387  10.253
 7247SOL    HW123580   3.892   3.445  10.325
 7247SOL    HW223581   3.980   3.434  10.203
 7248SOL     OW23582  13.584   3.959   7.985
 7248SOL    HW123583  13.604   3.925   7.898
 7248SOL    HW223584  13.525   4.033   7.969
 7249SOL     OW23585  13.910  12.419  10.659
 7249SOL    HW123586  13.968  12.432  10.584
 7249SOL    HW223587  13.966  12.432  10.736
 7250SOL     OW23588   2.840  11.974   5.343
 7250SOL    HW123589   2.920  12.018   5.371
 7250SOL    HW223590   2.832  11.899   5.403
 7251SOL     OW23591  14.422  12.632  11.678
 7251SOL    HW123592  14.516  12.619  11.685
 7251SOL    HW223593  14.386  12.544  11.670
 7252SOL     OW23594   3.029   2.859   5.311
 7252SOL    HW123595   2.998   2.775   5.343
 7252SOL    HW223596   2.987   2.869   5.225
 7253SOL     OW23597  10.298   2.336   0.301
 7253SOL    HW123598  10.289   2.429   0.322
 7253SOL    HW223599  10.229   2.294   0.353
 7254SOL     OW23600   8.186   9.093   2.812
 7254SOL    HW123601   8.124   9.160   2.841
 7254SOL    HW223602   8.179   9.024   2.878
 7255SOL     OW23603   9.613   6.079   9.927
 7255SOL    HW123604   9.694   6.037   9.954
 7255SOL    HW223605   9.630   6.108   9.837
 7256SOL     OW23606   9.233  10.759  13.096
 7256SOL    HW123607   9.233  10.668  13.127
 7256SOL    HW223608   9.315  10.795  13.131
 7257SOL     OW23609  11.386   6.795  11.883
 7257SOL    HW123610  11.404   6.872  11.936
 7257SOL    HW223611  11.328   6.741  11.937
 7258SOL     OW23612   8.944   0.594   8.007
 7258SOL    HW123613   8.934   0.668   8.067
 7258SOL    HW223614   8.978   0.523   8.061
 7259SOL     OW23615   6.852  13.053  10.202
 7259SOL    HW123616   6.854  12.968  10.158
 7259SOL    HW223617   6.843  13.033  10.295
 7260SOL     OW23618  14.433  11.012   8.454
 7260SOL    HW123619  14.339  11.024   8.464
 7260SOL    HW223620  14.462  10.973   8.536
 7261SOL     OW23621  13.346   7.631   4.139
 7261SOL    HW123622  13.285   7.637   4.213
 7261SOL    HW223623  13.344   7.719   4.100
 7262SOL     OW23624   4.835   6.148  10.927
 7262SOL    HW123625   4.870   6.185  11.008
 7262SOL    HW223626   4.912   6.127  10.874
 7263SOL     OW23627   8.030   1.039  11.850
 7263SOL    HW123628   7.968   0.975  11.884
 7263SOL    HW223629   8.103   0.986  11.817
 7264SOL     OW23630   3.043  10.810  10.770
 7264SOL    HW123631   3.126  10.856  10.757
 7264SOL    HW223632   2.980  10.879  10.790
 7265SOL     OW23633  12.090   5.932   8.228
 7265SOL    HW123634  12.077   6.026   8.243
 7265SOL    HW223635  12.003   5.894   8.240
 7266SOL     OW23636   7.250   3.423   8.613
 7266SOL    HW123637   7.270   3.344   8.564
 7266SOL    HW223638   7.320   3.428   8.679
 7267SOL     OW23639   6.559  13.741  11.865
 7267SOL    HW123640   6.557  13.831  11.832
 7267SOL    HW223641   6.484  13.699  11.824
 7268SOL     OW23642  14.123   3.371   8.267
 7268SOL    HW123643  14.168   3.418   8.197
 7268SOL    HW223644  14.170   3.288   8.275
 7269SOL     OW23645   8.829   0.171  10.502
 7269SOL    HW123646   8.759   0.106  10.509
 7269SOL    HW223647   8.906   0.120  10.477
 7270SOL     OW23648   2.671   4.614   2.773
 7270SOL    HW123649   2.652   4.525   2.745
 7270SOL    HW223650   2.585   4.652   2.794
 7271SOL     OW23651   9.888   9.927  11.970
 7271SOL    HW123652   9.864   9.836  11.957
 7271SOL    HW223653   9.867   9.945  12.062
 7272SOL     OW23654   0.745   3.640   3.695
 7272SOL    HW123655   0.695   3.646   3.614
 7272SOL    HW223656   0.823   3.590   3.672
 7273SOL     OW23657   0.322   1.900  10.210
 7273SOL    HW123658   0.404   1.902  10.259
 7273SOL    HW223659   0.324   1.817  10.163
 7274SOL     OW23660   0.023   7.755   0.835
 7274SOL    HW123661  14.843   7.827   0.814
 7274SOL    HW223662   0.034   7.760   0.930
 7275SOL     OW23663  14.652  11.165   6.324
 7275SOL    HW123664  14.703  11.240   6.295
 7275SOL    HW223665  14.588  11.151   6.255
 7276SOL     OW23666  13.316   6.224   5.350
 7276SOL    HW123667  13.332   6.312   5.385
 7276SOL    HW223668  13.367   6.220   5.269
 7277SOL     OW23669  14.448  12.071   2.910
 7277SOL    HW123670  14.441  12.055   2.816
 7277SOL    HW223671  14.363  12.107   2.935
 7278SOL     OW23672  13.748   7.319   1.953
 7278SOL    HW123673  13.834   7.360   1.950
 7278SOL    HW223674  13.741   7.271   1.870
 7279SOL     OW23675   8.335  10.638  13.305
 7279SOL    HW123676   8.255  10.651  13.356
 7279SOL    HW223677   8.341  10.715  13.249
 7280SOL     OW23678  14.478  13.080   7.739
 7280SOL    HW123679  14.539  13.047   7.673
 7280SOL    HW223680  14.413  13.011   7.749
 7281SOL     OW23681  11.900   5.204   1.583
 7281SOL    HW123682  11.871   5.190   1.673
 7281SOL    HW223683  11.982   5.251   1.590
 7282SOL     OW23684   7.053   0.879   7.209
 7282SOL    HW123685   6.995   0.919   7.144
 7282SOL    HW223686   7.011   0.898   7.293
 7283SOL     OW23687   0.756   2.227   9.719
 7283SOL    HW123688   0.836   2.184   9.747
 7283SOL    HW223689   0.698   2.155   9.692
 7284SOL     OW23690  11.947   6.627  11.301
 7284SOL    HW123691  11.903   6.632  11.216
 7284SOL    HW223692  11.878   6.638  11.365
 7285SOL     OW23693  11.387   7.415   8.301
 7285SOL    HW123694  11.328   7.443   8.231
 7285SOL    HW223695  11.343   7.340   8.340
 7286SOL     OW23696   2.306   4.491   3.962
 7286SOL    HW123697   2.364   4.434   3.911
 7286SOL    HW223698   2.234   4.434   3.989
 7287SOL     OW23699   1.190   2.236   6.679
 7287SOL    HW123700   1.228   2.264   6.596
 7287SOL    HW223701   1.119   2.297   6.696
 7288SOL     OW23702   9.935   4.999  10.670
 7288SOL    HW123703   9.964   5.084  10.637
 7288SOL    HW223704   9.894   5.019  10.754
 7289SOL     OW23705  14.501   5.861   4.717
 7289SOL    HW123706  14.549   5.792   4.671
 7289SOL    HW223707  14.511   5.938   4.661
 7290SOL     OW23708   0.193   1.300   5.526
 7290SOL    HW123709   0.270   1.248   5.548
 7290SOL    HW223710   0.138   1.295   5.605
 7291SOL     OW23711  10.861  12.823   9.247
 7291SOL    HW123712  10.904  12.757   9.302
 7291SOL    HW223713  10.902  12.906   9.273
 7292SOL     OW23714   9.551   5.212  13.040
 7292SOL    HW123715   9.551   5.159  12.960
 7292SOL    HW223716   9.643   5.217  13.065
 7293SOL     OW23717  14.198   7.903   3.810
 7293SOL    HW123718  14.201   7.909   3.715
 7293SOL    HW223719  14.269   7.843   3.833
 7294SOL     OW23720  11.314   3.795  12.239
 7294SOL    HW123721  11.232   3.823  12.200
 7294SOL    HW223722  11.382   3.837  12.186
 7295SOL     OW23723   3.199   5.221  12.068
 7295SOL    HW123724   3.196   5.181  12.155
 7295SOL    HW223725   3.109   5.213  12.034
 7296SOL     OW23726  11.011  11.082  11.374
 7296SOL    HW123727  10.996  11.163  11.325
 7296SOL    HW223728  11.008  11.108  11.466
 7297SOL     OW23729   7.106   1.910   5.188
 7297SOL    HW123730   7.036   1.881   5.130
 7297SOL    HW223731   7.182   1.920   5.130
 7298SOL     OW23732   6.407  13.010   5.369
 7298SOL    HW123733   6.351  13.070   5.418
 7298SOL    HW223734   6.410  13.047   5.281
 7299SOL     OW23735   9.743   2.065  13.826
 7299SOL    HW123736   9.804   2.051  13.754
 7299SOL    HW223737   9.656   2.055  13.785
 7300SOL     OW23738   3.478  10.266  10.806
 7300SOL    HW123739   3.467  10.171  10.817
 7300SOL    HW223740   3.542  10.275  10.736
 7301SOL     OW23741  11.965  13.764  13.235
 7301SOL    HW123742  11.894  13.708  13.263
 7301SOL    HW223743  11.974  13.747  13.141
 7302SOL     OW23744   8.421   2.330   4.073
 7302SOL    HW123745   8.369   2.250   4.084
 7302SOL    HW223746   8.476   2.312   3.996
 7303SOL     OW23747  11.461   0.087  13.968
 7303SOL    HW123748  11.510   0.007  13.947
 7303SOL    HW223749  11.372   0.069  13.937
 7304SOL     OW23750   1.833   5.088   4.670
 7304SOL    HW123751   1.863   5.059   4.583
 7304SOL    HW223752   1.866   5.022   4.730
 7305SOL     OW23753  10.245   1.939   9.720
 7305SOL    HW123754  10.283   1.908   9.802
 7305SOL    HW223755  10.169   1.883   9.706
 7306SOL     OW23756   6.395   2.813   0.631
 7306SOL    HW123757   6.358   2.841   0.715
 7306SOL    HW223758   6.400   2.718   0.639
 7307SOL     OW23759   5.390  14.376  14.771
 7307SOL    HW123760   5.300  14.392  14.742
 7307SOL    HW223761   5.424  14.463  14.793
 7308SOL     OW23762  12.104   3.000  13.552
 7308SOL    HW123763  12.095   2.933  13.620
 7308SOL    HW223764  12.155   2.957  13.483
 7309SOL     OW23765   3.240   1.599   0.168
 7309SOL    HW123766   3.170   1.622   0.108
 7309SOL    HW223767   3.268   1.682   0.207
 7310SOL     OW23768  13.259   0.266   2.674
 7310SOL    HW123769  13.288   0.176   2.660
 7310SOL    HW223770  13.291   0.314   2.598
 7311SOL     OW23771   8.987  13.891   3.974
 7311SOL    HW123772   8.952  13.815   3.927
 7311SOL    HW223773   8.959  13.879   4.064
 7312SOL     OW23774   3.641   0.249  13.057
 7312SOL    HW123775   3.695   0.288  12.988
 7312SOL    HW223776   3.701   0.192  13.105
 7313SOL     OW23777   4.713   8.440   9.822
 7313SOL    HW123778   4.623   8.408   9.830
 7313SOL    HW223779   4.714   8.523   9.870
 7314SOL     OW23780  12.293  12.575   8.995
 7314SOL    HW123781  12.349  12.498   9.002
 7314SOL    HW223782  12.301  12.603   8.903
 7315SOL     OW23783  14.608  10.620   4.157
 7315SOL    HW123784  14.599  10.550   4.222
 7315SOL    HW223785  14.600  10.701   4.208
 7316SOL     OW23786   0.948   6.400   9.219
 7316SOL    HW123787   0.859   6.389   9.254
 7316SOL    HW223788   1.003   6.406   9.296
 7317SOL     OW23789  10.459   9.582  10.781
 7317SOL    HW123790  10.546   9.576  10.741
 7317SOL    HW223791  10.469   9.649  10.849
 7318SOL     OW23792   2.592   3.931   9.156
 7318SOL    HW123793   2.666   3.943   9.096
 7318SOL    HW223794   2.595   4.007   9.214
 7319SOL     OW23795  13.372  10.661   2.830
 7319SOL    HW123796  13.371  10.734   2.892
 7319SOL    HW223797  13.374  10.583   2.886
 7320SOL     OW23798  10.565   8.482  11.277
 7320SOL    HW123799  10.534   8.572  11.289
 7320SOL    HW223800  10.493   8.428  11.309
 7321SOL     OW23801   0.740  13.881   8.012
 7321SOL    HW123802   0.683  13.804   8.005
 7321SOL    HW223803   0.790  13.882   7.931
 7322SOL     OW23804   5.735   6.984   1.594
 7322SOL    HW123805   5.762   6.938   1.674
 7322SOL    HW223806   5.676   7.053   1.625
 7323SOL     OW23807  12.430   0.966   4.519
 7323SOL    HW123808  12.507   0.996   4.472
 7323SOL    HW223809  12.446   0.873   4.537
 7324SOL     OW23810   3.663   8.104   6.282
 7324SOL    HW123811   3.754   8.123   6.306
 7324SOL    HW223812   3.664   8.101   6.187
 7325SOL     OW23813   5.407   9.139  12.165
 7325SOL    HW123814   5.384   9.176  12.250
 7325SOL    HW223815   5.485   9.087  12.182
 7326SOL     OW23816   5.497   4.539   6.325
 7326SOL    HW123817   5.588   4.537   6.355
 7326SOL    HW223818   5.445   4.518   6.404
 7327SOL     OW23819  13.544   7.034   1.855
 7327SOL    HW123820  13.487   6.958   1.853
 7327SOL    HW223821  13.485   7.108   1.870
 7328SOL     OW23822   3.592   3.798   0.209
 7328SOL    HW123823   3.585   3.877   0.262
 7328SOL    HW223824   3.663   3.748   0.249
 7329SOL     OW23825  10.636   5.189  10.181
 7329SOL    HW123826  10.553   5.211  10.138
 7329SOL    HW223827  10.700   5.248  10.141
 7330SOL     OW23828   9.422   9.960   1.309
 7330SOL    HW123829   9.369  10.027   1.351
 7330SOL    HW223830   9.511   9.973   1.344
 7331SOL     OW23831   1.318  13.167   8.134
 7331SOL    HW123832   1.403  13.163   8.091
 7331SOL    HW223833   1.331  13.124   8.218
 7332SOL     OW23834   4.636   4.704   6.544
 7332SOL    HW123835   4.704   4.640   6.526
 7332SOL    HW223836   4.680   4.770   6.599
 7333SOL     OW23837  14.088   4.444  14.044
 7333SOL    HW123838  14.027   4.463  14.116
 7333SOL    HW223839  14.092   4.349  14.041
 7334SOL     OW23840   6.095  12.273  14.270
 7334SOL    HW123841   6.097  12.242  14.361
 7334SOL    HW223842   6.185  12.300  14.252
 7335SOL     OW23843  12.265   3.218  14.051
 7335SOL    HW123844  12.326   3.144  14.047
 7335SOL    HW223845  12.186   3.186  14.006
 7336SOL     OW23846   0.114  12.451   5.406
 7336SOL    HW123847   0.182  12.389   5.434
 7336SOL    HW223848   0.136  12.472   5.315
 7337SOL     OW23849   0.512   8.750  14.431
 7337SOL    HW123850   0.423   8.723  14.410
 7337SOL    HW223851   0.518   8.743  14.526
 7338SOL     OW23852   8.442  12.675   2.748
 7338SOL    HW123853   8.421  12.642   2.661
 7338SOL    HW223854   8.366  12.728   2.773
 7339SOL     OW23855  12.426   6.557   4.978
 7339SOL    HW123856  12.345   6.548   4.928
 7339SOL    HW223857  12.423   6.484   5.041
 7340SOL     OW23858  11.212   7.924   3.071
 7340SOL    HW123859  11.133   7.970   3.043
 7340SOL    HW223860  11.192   7.832   3.061
 7341SOL     OW23861  12.306   6.559  11.082
 7341SOL    HW123862  12.275   6.505  11.009
 7341SOL    HW223863  12.333   6.496  11.149
 7342SOL     OW23864   6.995   7.287   9.620
 7342SOL    HW123865   6.939   7.209   9.617
 7342SOL    HW223866   6.933   7.360   9.631
 7343SOL     OW23867   0.216  14.130   2.083
 7343SOL    HW123868   0.227  14.214   2.127
 7343SOL    HW223869   0.133  14.139   2.036
 7344SOL     OW23870   9.291   8.881   6.696
 7344SOL    HW123871   9.374   8.927   6.683
 7344SOL    HW223872   9.304   8.796   6.654
 7345SOL     OW23873  13.846   6.787   1.782
 7345SOL    HW123874  13.770   6.781   1.840
 7345SOL    HW223875  13.809   6.779   1.694
 7346SOL     OW23876   9.448   1.844  11.681
 7346SOL    HW123877   9.514   1.855  11.749
 7346SOL    HW223878   9.397   1.924  11.683
 7347SOL     OW23879  12.265   6.356   1.673
 7347SOL    HW123880  12.331   6.339   1.741
 7347SOL    HW223881  12.261   6.451   1.667
 7348SOL     OW23882  14.877  10.617   1.399
 7348SOL    HW123883   0.028  10.675   1.468
 7348SOL    HW223884  14.794  10.581   1.432
 7349SOL     OW23885   9.974   0.442  11.131
 7349SOL    HW123886   9.988   0.347  11.122
 7349SOL    HW223887   9.928   0.467  11.051
 7350SOL     OW23888   1.860  13.990   3.444
 7350SOL    HW123889   1.816  14.044   3.510
 7350SOL    HW223890   1.840  13.900   3.471
 7351SOL     OW23891   5.056   6.071   3.616
 7351SOL    HW123892   4.988   6.039   3.675
 7351SOL    HW223893   5.139   6.047   3.658
 7352SOL     OW23894  11.456   9.172  12.527
 7352SOL    HW123895  11.402   9.095  12.509
 7352SOL    HW223896  11.546   9.144  12.507
 7353SOL     OW23897  12.382  11.050  11.603
 7353SOL    HW123898  12.422  10.963  11.598
 7353SOL    HW223899  12.454  11.111  11.588
 7354SOL     OW23900  10.025   6.285   7.550
 7354SOL    HW123901   9.981   6.288   7.465
 7354SOL    HW223902  10.114   6.255   7.529
 7355SOL     OW23903   2.402   2.356  11.000
 7355SOL    HW123904   2.319   2.310  11.010
 7355SOL    HW223905   2.462   2.312  11.060
 7356SOL     OW23906   6.095  10.476  10.300
 7356SOL    HW123907   6.135  10.549  10.253
 7356SOL    HW223908   6.009  10.465  10.258
 7357SOL     OW23909  12.939   8.549   6.406
 7357SOL    HW123910  12.904   8.557   6.495
 7357SOL    HW223911  13.017   8.605   6.406
 7358SOL     OW23912   6.068  13.861   9.589
 7358SOL    HW123913   6.127  13.815   9.529
 7358SOL    HW223914   6.103  13.843   9.676
 7359SOL     OW23915  13.972   2.289   6.978
 7359SOL    HW123916  13.935   2.362   6.927
 7359SOL    HW223917  14.066   2.292   6.959
 7360SOL     OW23918   4.382  10.965  10.124
 7360SOL    HW123919   4.460  11.011  10.155
 7360SOL    HW223920   4.313  11.031  10.126
 7361SOL     OW23921   3.221   3.665   2.462
 7361SOL    HW123922   3.253   3.576   2.446
 7361SOL    HW223923   3.267   3.719   2.398
 7362SOL     OW23924  10.529   1.256   3.153
 7362SOL    HW123925  10.533   1.247   3.248
 7362SOL    HW223926  10.614   1.227   3.122
 7363SOL     OW23927   9.588  10.934  14.505
 7363SOL    HW123928   9.603  10.840  14.493
 7363SOL    HW223929   9.618  10.974  14.423
 7364SOL     OW23930  13.735   4.878   0.766
 7364SOL    HW123931  13.811   4.851   0.714
 7364SOL    HW223932  13.768   4.950   0.820
 7365SOL     OW23933   6.046  11.744   9.990
 7365SOL    HW123934   6.078  11.756  10.079
 7365SOL    HW223935   6.094  11.667   9.958
 7366SOL     OW23936  14.318   5.766   6.580
 7366SOL    HW123937  14.337   5.825   6.652
 7366SOL    HW223938  14.397   5.766   6.526
 7367SOL     OW23939   6.146   6.056   6.159
 7367SOL    HW123940   6.151   6.149   6.136
 7367SOL    HW223941   6.238   6.029   6.169
 7368SOL     OW23942   6.245  13.066   3.134
 7368SOL    HW123943   6.233  13.029   3.047
 7368SOL    HW223944   6.180  13.022   3.188
 7369SOL     OW23945   7.957   1.094   9.907
 7369SOL    HW123946   7.865   1.070   9.904
 7369SOL    HW223947   7.976   1.129   9.819
 7370SOL     OW23948   7.009   0.979   9.267
 7370SOL    HW123949   7.084   0.945   9.219
 7370SOL    HW223950   6.948   0.905   9.274
 7371SOL     OW23951   6.668   8.071   6.625
 7371SOL    HW123952   6.577   8.079   6.652
 7371SOL    HW223953   6.715   8.130   6.683
 7372SOL     OW23954   1.052   4.534   3.093
 7372SOL    HW123955   1.047   4.595   3.019
 7372SOL    HW223956   0.970   4.547   3.140
 7373SOL     OW23957   0.727   5.420  14.008
 7373SOL    HW123958   0.766   5.343  14.050
 7373SOL    HW223959   0.652   5.385  13.960
 7374SOL     OW23960   3.493   2.715   9.575
 7374SOL    HW123961   3.407   2.721   9.532
 7374SOL    HW223962   3.490   2.633   9.624
 7375SOL     OW23963   8.809   6.126  13.956
 7375SOL    HW123964   8.758   6.165  13.886
 7375SOL    HW223965   8.900   6.138  13.930
 7376SOL     OW23966   5.414  10.561   5.144
 7376SOL    HW123967   5.442  10.551   5.053
 7376SOL    HW223968   5.463  10.494   5.192
 7377SOL     OW23969  13.520  13.944   2.553
 7377SOL    HW123970  13.442  13.932   2.608
 7377SOL    HW223971  13.497  13.904   2.469
 7378SOL     OW23972   4.110   6.212   1.003
 7378SOL    HW123973   4.074   6.282   1.058
 7378SOL    HW223974   4.086   6.237   0.914
 7379SOL     OW23975   0.459   9.920  11.100
 7379SOL    HW123976   0.400   9.847  11.119
 7379SOL    HW223977   0.409   9.977  11.041
 7380SOL     OW23978   9.292   7.273   6.327
 7380SOL    HW123979   9.344   7.255   6.406
 7380SOL    HW223980   9.220   7.328   6.359
 7381SOL     OW23981   3.798   4.790  12.952
 7381SOL    HW123982   3.866   4.804  12.885
 7381SOL    HW223983   3.814   4.859  13.016
 7382SOL     OW23984  10.253  13.450   8.950
 7382SOL    HW123985  10.253  13.358   8.924
 7382SOL    HW223986  10.170  13.485   8.916
 7383SOL     OW23987   8.118  12.660   0.207
 7383SOL    HW123988   8.120  12.566   0.227
 7383SOL    HW223989   8.113  12.664   0.112
 7384SOL     OW23990   7.828   1.814  12.287
 7384SOL    HW123991   7.871   1.749  12.232
 7384SOL    HW223992   7.767   1.764  12.341
 7385SOL     OW23993   2.695   3.246   6.140
 7385SOL    HW123994   2.700   3.150   6.131
 7385SOL    HW223995   2.784   3.276   6.122
 7386SOL     OW23996   4.703   3.868  11.749
 7386SOL    HW123997   4.619   3.912  11.739
 7386SOL    HW223998   4.684   3.796  11.809
 7387SOL     OW23999   4.197   2.657   7.851
 7387SOL    HW124000   4.254   2.733   7.858
 7387SOL    HW224001   4.119   2.681   7.901
 7388SOL     OW24002   8.942   2.738   8.500
 7388SOL    HW124003   8.865   2.781   8.536
 7388SOL    HW224004   9.013   2.801   8.514
 7389SOL     OW24005   6.022  12.944  10.275
 7389SOL    HW124006   5.983  12.968  10.191
 7389SOL    HW224007   5.979  12.862  10.299
 7390SOL     OW24008   1.686   4.784   3.160
 7390SOL    HW124009   1.602   4.794   3.205
 7390SOL    HW224010   1.741   4.855   3.195
 7391SOL     OW24011  13.560  12.373   2.595
 7391SOL    HW124012  13.653  12.355   2.613
 7391SOL    HW224013  13.513  12.308   2.647
 7392SOL     OW24014   7.499   7.930  14.424
 7392SOL    HW124015   7.490   7.968  14.511
 7392SOL    HW224016   7.559   7.988  14.378
 7393SOL     OW24017   0.554   4.311  12.694
 7393SOL    HW124018   0.494   4.386  12.688
 7393SOL    HW224019   0.529   4.267  12.776
 7394SOL     OW24020   1.504   5.541   3.118
 7394SOL    HW124021   1.501   5.545   3.023
 7394SOL    HW224022   1.473   5.453   3.139
 7395SOL     OW24023  12.781   2.931  10.978
 7395SOL    HW124024  12.814   2.915  10.890
 7395SOL    HW224025  12.723   2.857  10.995
 7396SOL     OW24026   0.315   4.250   5.396
 7396SOL    HW124027   0.388   4.305   5.426
 7396SOL    HW224028   0.264   4.307   5.339
 7397SOL     OW24029   5.883   4.815   4.560
 7397SOL    HW124030   5.933   4.800   4.640
 7397SOL    HW224031   5.946   4.850   4.497
 7398SOL     OW24032   7.335  11.717  12.644
 7398SOL    HW124033   7.388  11.717  12.724
 7398SOL    HW224034   7.380  11.778  12.586
 7399SOL     OW24035   0.680   2.610   1.006
 7399SOL    HW124036   0.725   2.530   0.979
 7399SOL    HW224037   0.691   2.614   1.101
 7400SOL     OW24038   2.756  13.835  12.680
 7400SOL    HW124039   2.744  13.780  12.602
 7400SOL    HW224040   2.713  13.787  12.750
 7401SOL     OW24041   4.175   7.910   0.325
 7401SOL    HW124042   4.091   7.870   0.344
 7401SOL    HW224043   4.202   7.870   0.242
 7402SOL     OW24044   5.055   4.936  12.200
 7402SOL    HW124045   5.062   4.841  12.208
 7402SOL    HW224046   5.136   4.969  12.241
 7403SOL     OW24047  12.314   3.898   9.582
 7403SOL    HW124048  12.382   3.954   9.617
 7403SOL    HW224049  12.259   3.877   9.657
 7404SOL     OW24050  10.474  14.403  14.497
 7404SOL    HW124051  10.542  14.357  14.447
 7404SOL    HW224052  10.517  14.483  14.528
 7405SOL     OW24053   8.175   4.925  13.401
 7405SOL    HW124054   8.136   4.837  13.405
 7405SOL    HW224055   8.180   4.944  13.308
 7406SOL     OW24056   1.837   9.423   7.634
 7406SOL    HW124057   1.925   9.416   7.597
 7406SOL    HW224058   1.778   9.408   7.560
 7407SOL     OW24059  11.366  11.536   7.793
 7407SOL    HW124060  11.308  11.501   7.725
 7407SOL    HW224061  11.435  11.580   7.744
 7408SOL     OW24062  12.803   1.035  10.356
 7408SOL    HW124063  12.852   1.097  10.410
 7408SOL    HW224064  12.822   1.061  10.266
 7409SOL     OW24065  13.481  10.201  11.183
 7409SOL    HW124066  13.430  10.221  11.105
 7409SOL    HW224067  13.456  10.269  11.246
 7410SOL     OW24068   1.319   1.685  13.700
 7410SOL    HW124069   1.408   1.679  13.733
 7410SOL    HW224070   1.305   1.779  13.685
 7411SOL     OW24071   0.814   6.523  12.327
 7411SOL    HW124072   0.790   6.521  12.419
 7411SOL    HW224073   0.907   6.501  12.325
 7412SOL     OW24074  10.329   3.777   4.510
 7412SOL    HW124075  10.241   3.795   4.543
 7412SOL    HW224076  10.342   3.842   4.441
 7413SOL     OW24077   0.720   9.266   9.188
 7413SOL    HW124078   0.711   9.314   9.105
 7413SOL    HW224079   0.740   9.177   9.161
 7414SOL     OW24080   3.137  12.759   3.514
 7414SOL    HW124081   3.090  12.804   3.584
 7414SOL    HW224082   3.128  12.817   3.438
 7415SOL     OW24083  13.717  11.855  10.610
 7415SOL    HW124084  13.722  11.857  10.515
 7415SOL    HW224085  13.638  11.805  10.629
 7416SOL     OW24086   7.249   6.385   0.640
 7416SOL    HW124087   7.335   6.351   0.617
 7416SOL    HW224088   7.257   6.480   0.628
 7417SOL     OW24089  10.949  13.048  11.792
 7417SOL    HW124090  10.983  13.136  11.776
 7417SOL    HW224091  10.873  13.062  11.848
 7418SOL     OW24092   1.958   5.004   6.428
 7418SOL    HW124093   1.887   4.963   6.477
 7418SOL    HW224094   2.028   4.939   6.427
 7419SOL     OW24095   3.734   5.399   2.705
 7419SOL    HW124096   3.678   5.430   2.634
 7419SOL    HW224097   3.685   5.417   2.785
 7420SOL     OW24098   1.319   1.623   6.948
 7420SOL    HW124099   1.358   1.602   6.863
 7420SOL    HW224100   1.388   1.672   6.993
 7421SOL     OW24101  11.227   2.191  12.209
 7421SOL    HW124102  11.201   2.261  12.149
 7421SOL    HW224103  11.146   2.142  12.224
 7422SOL     OW24104   3.348   9.297   3.825
 7422SOL    HW124105   3.415   9.365   3.819
 7422SOL    HW224106   3.285   9.331   3.888
 7423SOL     OW24107  13.212  11.662   4.337
 7423SOL    HW124108  13.167  11.579   4.320
 7423SOL    HW224109  13.299  11.637   4.366
 7424SOL     OW24110   9.446   4.937   7.953
 7424SOL    HW124111   9.500   4.884   8.011
 7424SOL    HW224112   9.482   4.921   7.865
 7425SOL     OW24113  12.607  10.616  12.287
 7425SOL    HW124114  12.657  10.539  12.259
 7425SOL    HW224115  12.576  10.655  12.205
 7426SOL     OW24116   4.688  13.502   3.199
 7426SOL    HW124117   4.695  13.409   3.179
 7426SOL    HW224118   4.685  13.506   3.294
 7427SOL     OW24119  13.517   6.948   3.254
 7427SOL    HW124120  13.471   7.018   3.207
 7427SOL    HW224121  13.603   6.985   3.274
 7428SOL     OW24122  13.966  11.025   5.807
 7428SOL    HW124123  13.907  11.046   5.735
 7428SOL    HW224124  14.048  11.069   5.784
 7429SOL     OW24125   9.898   0.783   2.601
 7429SOL    HW124126   9.941   0.860   2.563
 7429SOL    HW224127   9.865   0.735   2.525
 7430SOL     OW24128  10.463   3.111  11.533
 7430SOL    HW124129  10.385   3.061  11.511
 7430SOL    HW224130  10.471   3.102  11.628
 7431SOL     OW24131  11.585   8.003  13.627
 7431SOL    HW124132  11.532   8.016  13.548
 7431SOL    HW224133  11.576   7.909  13.646
 7432SOL     OW24134   0.562   1.878  12.414
 7432SOL    HW124135   0.592   1.901  12.502
 7432SOL    HW224136   0.476   1.838  12.429
 7433SOL     OW24137  10.139   5.604  12.955
 7433SOL    HW124138  10.045   5.591  12.937
 7433SOL    HW224139  10.174   5.515  12.964
 7434SOL     OW24140   1.843   8.028   9.003
 7434SOL    HW124141   1.779   8.073   8.949
 7434SOL    HW224142   1.846   8.079   9.084
 7435SOL     OW24143   6.042   8.925   1.052
 7435SOL    HW124144   6.101   8.957   1.120
 7435SOL    HW224145   6.043   8.994   0.985
 7436SOL     OW24146   1.281  14.212   0.838
 7436SOL    HW124147   1.206  14.154   0.848
 7436SOL    HW224148   1.264  14.261   0.758
 7437SOL     OW24149   8.766   2.280   3.067
 7437SOL    HW124150   8.686   2.308   3.021
 7437SOL    HW224151   8.801   2.210   3.012
 7438SOL     OW24152  13.268   8.528  13.734
 7438SOL    HW124153  13.350   8.556  13.694
 7438SOL    HW224154  13.295   8.472  13.807
 7439SOL     OW24155   6.610   6.993   9.674
 7439SOL    HW124156   6.548   6.946   9.730
 7439SOL    HW224157   6.572   7.079   9.662
 7440SOL     OW24158   0.247   9.654   8.641
 7440SOL    HW124159   0.303   9.577   8.653
 7440SOL    HW224160   0.199   9.637   8.560
 7441SOL     OW24161   4.871   2.992   3.358
 7441SOL    HW124162   4.894   2.943   3.279
 7441SOL    HW224163   4.811   2.935   3.406
 7442SOL     OW24164   9.774  14.290  11.584
 7442SOL    HW124165   9.859  14.286  11.627
 7442SOL    HW224166   9.794  14.289  11.490
 7443SOL     OW24167   7.413   4.454  14.404
 7443SOL    HW124168   7.335   4.450  14.348
 7443SOL    HW224169   7.476   4.505  14.353
 7444SOL     OW24170   5.744   3.130   7.716
 7444SOL    HW124171   5.777   3.060   7.772
 7444SOL    HW224172   5.682   3.178   7.771
 7445SOL     OW24173  14.855   4.344   2.645
 7445SOL    HW124174  14.796   4.353   2.570
 7445SOL    HW224175   0.055   4.391   2.618
 7446SOL     OW24176   6.715   8.375   8.343
 7446SOL    HW124177   6.631   8.342   8.376
 7446SOL    HW224178   6.733   8.320   8.267
 7447SOL     OW24179   7.256  13.079   7.446
 7447SOL    HW124180   7.173  13.046   7.482
 7447SOL    HW224181   7.323  13.023   7.485
 7448SOL     OW24182   3.825   4.023   4.328
 7448SOL    HW124183   3.913   4.000   4.359
 7448SOL    HW224184   3.788   3.940   4.298
 7449SOL     OW24185  12.418   6.145   9.841
 7449SOL    HW124186  12.468   6.174   9.917
 7449SOL    HW224187  12.397   6.054   9.859
 7450SOL     OW24188   1.568   8.461   9.954
 7450SOL    HW124189   1.565   8.425  10.043
 7450SOL    HW224190   1.654   8.502   9.948
 7451SOL     OW24191  13.575   1.058   3.669
 7451SOL    HW124192  13.483   1.043   3.648
 7451SOL    HW224193  13.589   1.012   3.752
 7452SOL     OW24194   2.746  10.766  10.870
 7452SOL    HW124195   2.727  10.815  10.950
 7452SOL    HW224196   2.673  10.788  10.812
 7453SOL     OW24197  14.565   8.445   3.871
 7453SOL    HW124198  14.539   8.448   3.963
 7453SOL    HW224199  14.653   8.407   3.871
 7454SOL     OW24200  11.981  12.945   3.430
 7454SOL    HW124201  12.061  12.941   3.482
 7454SOL    HW224202  11.934  13.022   3.463
 7455SOL     OW24203   2.114  11.689   1.444
 7455SOL    HW124204   2.060  11.610   1.437
 7455SOL    HW224205   2.195  11.660   1.486
 7456SOL     OW24206   4.291   1.067   7.637
 7456SOL    HW124207   4.196   1.076   7.630
 7456SOL    HW224208   4.304   0.989   7.691
 7457SOL     OW24209   6.201   3.856   4.455
 7457SOL    HW124210   6.109   3.845   4.433
 7457SOL    HW224211   6.201   3.880   4.548
 7458SOL     OW24212   4.195   4.358   2.577
 7458SOL    HW124213   4.111   4.333   2.615
 7458SOL    HW224214   4.176   4.378   2.486
 7459SOL     OW24215  10.221   0.119  11.082
 7459SOL    HW124216  10.136   0.136  11.124
 7459SOL    HW224217  10.251   0.205  11.053
 7460SOL     OW24218   6.225  12.367   5.356
 7460SOL    HW124219   6.210  12.460   5.338
 7460SOL    HW224220   6.152  12.322   5.314
 7461SOL     OW24221  11.338  12.463   9.903
 7461SOL    HW124222  11.359  12.472   9.810
 7461SOL    HW224223  11.277  12.389   9.907
 7462SOL     OW24224   1.733  12.364   2.022
 7462SOL    HW124225   1.753  12.284   1.973
 7462SOL    HW224226   1.644  12.350   2.055
 7463SOL     OW24227   1.195   7.145   4.661
 7463SOL    HW124228   1.116   7.181   4.700
 7463SOL    HW224229   1.237   7.096   4.732
 7464SOL     OW24230   6.025   9.535   7.051
 7464SOL    HW124231   6.070   9.520   6.968
 7464SOL    HW224232   6.002   9.628   7.050
 7465SOL     OW24233   1.170   5.526  12.666
 7465SOL    HW124234   1.145   5.435  12.686
 7465SOL    HW224235   1.146   5.537  12.574
 7466SOL     OW24236   5.047  12.528   9.974
 7466SOL    HW124237   4.959  12.497   9.995
 7466SOL    HW224238   5.093  12.450   9.942
 7467SOL     OW24239   4.524   0.888  13.926
 7467SOL    HW124240   4.449   0.877  13.984
 7467SOL    HW224241   4.550   0.799  13.902
 7468SOL     OW24242  12.055  13.897  10.856
 7468SOL    HW124243  12.011  13.955  10.795
 7468SOL    HW224244  12.064  13.948  10.937
 7469SOL     OW24245   0.339   3.965   4.033
 7469SOL    HW124246   0.267   4.020   4.064
 7469SOL    HW224247   0.298   3.905   3.970
 7470SOL     OW24248   0.026  14.194  13.188
 7470SOL    HW124249   0.011  14.285  13.163
 7470SOL    HW224250  14.837  14.176  13.253
 7471SOL     OW24251   1.627   3.087  13.548
 7471SOL    HW124252   1.608   3.103  13.640
 7471SOL    HW224253   1.652   2.995  13.544
 7472SOL     OW24254   5.173  13.915  13.579
 7472SOL    HW124255   5.159  13.905  13.673
 7472SOL    HW224256   5.254  13.966  13.572
 7473SOL     OW24257  14.707  10.829   4.293
 7473SOL    HW124258  14.757  10.749   4.310
 7473SOL    HW224259  14.766  10.900   4.318
 7474SOL     OW24260   7.364   5.166   1.878
 7474SOL    HW124261   7.302   5.111   1.831
 7474SOL    HW224262   7.431   5.188   1.814
 7475SOL     OW24263   3.093  10.903   0.324
 7475SOL    HW124264   3.096  10.955   0.404
 7475SOL    HW224265   3.043  10.956   0.262
 7476SOL     OW24266   1.616  11.706   5.575
 7476SOL    HW124267   1.584  11.775   5.516
 7476SOL    HW224268   1.544  11.692   5.636
 7477SOL     OW24269  13.972  10.102   1.677
 7477SOL    HW124270  14.003  10.049   1.604
 7477SOL    HW224271  13.890  10.059   1.704
 7478SOL     OW24272   0.164  11.433  12.988
 7478SOL    HW124273   0.213  11.351  12.984
 7478SOL    HW224274   0.216  11.490  13.044
 7479SOL     OW24275   5.152  12.612   0.993
 7479SOL    HW124276   5.199  12.695   0.991
 7479SOL    HW224277   5.158  12.584   1.085
 7480SOL     OW24278   3.973   2.869   8.197
 7480SOL    HW124279   4.067   2.879   8.189
 7480SOL    HW224280   3.957   2.871   8.292
 7481SOL     OW24281  13.238  12.682   2.149
 7481SOL    HW124282  13.292  12.758   2.171
 7481SOL    HW224283  13.156  12.697   2.196
 7482SOL     OW24284   6.281   8.138   2.482
 7482SOL    HW124285   6.222   8.214   2.487
 7482SOL    HW224286   6.230   8.073   2.433
 7483SOL     OW24287  13.583   0.603  10.961
 7483SOL    HW124288  13.620   0.670  11.018
 7483SOL    HW224289  13.659   0.559  10.924
 7484SOL     OW24290  12.736   8.559   8.582
 7484SOL    HW124291  12.725   8.578   8.488
 7484SOL    HW224292  12.647   8.550   8.615
 7485SOL     OW24293   5.775   1.150   8.417
 7485SOL    HW124294   5.714   1.112   8.481
 7485SOL    HW224295   5.841   1.081   8.403
 7486SOL     OW24296   1.406   4.439   9.971
 7486SOL    HW124297   1.412   4.496  10.048
 7486SOL    HW224298   1.495   4.435   9.936
 7487SOL     OW24299   3.052   1.661   6.590
 7487SOL    HW124300   2.978   1.660   6.651
 7487SOL    HW224301   3.058   1.751   6.560
 7488SOL     OW24302  13.216   6.108   8.198
 7488SOL    HW124303  13.138   6.140   8.153
 7488SOL    HW224304  13.183   6.065   8.277
 7489SOL     OW24305   5.712   4.640  14.852
 7489SOL    HW124306   5.690   4.686  14.771
 7489SOL    HW224307   5.745   4.555  14.822
 7490SOL     OW24308   9.793   4.773   6.633
 7490SOL    HW124309   9.843   4.840   6.586
 7490SOL    HW224310   9.838   4.764   6.717
 7491SOL     OW24311   0.161   4.375   9.493
 7491SOL    HW124312   0.255   4.379   9.474
 7491SOL    HW224313   0.156   4.355   9.586
 7492SOL     OW24314   6.154  14.054   4.142
 7492SOL    HW124315   6.071  14.010   4.161
 7492SOL    HW224316   6.216  14.016   4.204
 7493SOL     OW24317  11.400   8.324   0.803
 7493SOL    HW124318  11.455   8.246   0.800
 7493SOL    HW224319  11.343   8.317   0.726
 7494SOL     OW24320   5.801  12.043   3.940
 7494SOL    HW124321   5.763  12.108   4.000
 7494SOL    HW224322   5.797  11.960   3.988
 7495SOL     OW24323   1.188  13.729  12.515
 7495SOL    HW124324   1.203  13.806  12.569
 7495SOL    HW224325   1.163  13.763  12.429
 7496SOL     OW24326  12.923   1.615  12.125
 7496SOL    HW124327  12.886   1.641  12.041
 7496SOL    HW224328  13.017   1.609  12.109
 7497SOL     OW24329   6.343   9.981   7.624
 7497SOL    HW124330   6.313  10.064   7.589
 7497SOL    HW224331   6.387   9.938   7.551
 7498SOL     OW24332  11.776   2.480   1.648
 7498SOL    HW124333  11.765   2.538   1.572
 7498SOL    HW224334  11.710   2.510   1.711
 7499SOL     OW24335  14.058  12.247   4.309
 7499SOL    HW124336  14.013  12.173   4.350
 7499SOL    HW224337  14.144  12.249   4.351
 7500SOL     OW24338  10.955   5.533   5.935
 7500SOL    HW124339  11.028   5.577   5.891
 7500SOL    HW224340  10.879   5.550   5.879
 7501SOL     OW24341  13.113   0.639  13.815
 7501SOL    HW124342  13.102   0.707  13.882
 7501SOL    HW224343  13.173   0.679  13.752
 7502SOL     OW24344   1.154   3.303   6.807
 7502SOL    HW124345   1.230   3.353   6.776
 7502SOL    HW224346   1.089   3.313   6.737
 7503SOL     OW24347   9.095   2.996   4.664
 7503SOL    HW124348   9.152   2.982   4.588
 7503SOL    HW224349   9.107   3.088   4.686
 7504SOL     OW24350   7.922   7.333   3.857
 7504SOL    HW124351   7.859   7.279   3.905
 7504SOL    HW224352   7.960   7.273   3.792
 7505SOL     OW24353   6.223  12.539   3.265
 7505SOL    HW124354   6.184  12.501   3.344
 7505SOL    HW224355   6.304  12.579   3.294
 7506SOL     OW24356   2.639  11.316   4.065
 7506SOL    HW124357   2.559  11.353   4.104
 7506SOL    HW224358   2.668  11.381   4.002
 7507SOL     OW24359   7.673   3.974  12.334
 7507SOL    HW124360   7.621   3.896  12.319
 7507SOL    HW224361   7.762   3.941  12.347
 7508SOL     OW24362  11.688   0.868   1.156
 7508SOL    HW124363  11.703   0.895   1.246
 7508SOL    HW224364  11.616   0.805   1.161
 7509SOL     OW24365   9.624   8.386  12.955
 7509SOL    HW124366   9.545   8.436  12.934
 7509SOL    HW224367   9.692   8.425  12.901
 7510SOL     OW24368  10.966  10.708  11.434
 7510SOL    HW124369  11.055  10.733  11.460
 7510SOL    HW224370  10.926  10.675  11.514
 7511SOL     OW24371   4.076   0.778   9.370
 7511SOL    HW124372   4.101   0.826   9.291
 7511SOL    HW224373   4.012   0.834   9.414
 7512SOL     OW24374   4.336   4.281   1.792
 7512SOL    HW124375   4.405   4.275   1.858
 7512SOL    HW224376   4.319   4.191   1.766
 7513SOL     OW24377   1.259  10.300  12.649
 7513SOL    HW124378   1.228  10.209  12.652
 7513SOL    HW224379   1.349  10.293  12.618
 7514SOL     OW24380   0.449   1.377  13.076
 7514SOL    HW124381   0.365   1.352  13.037
 7514SOL    HW224382   0.436   1.466  13.106
 7515SOL     OW24383  11.373   5.543   3.419
 7515SOL    HW124384  11.348   5.468   3.473
 7515SOL    HW224385  11.368   5.511   3.329
 7516SOL     OW24386   3.542   2.245  11.797
 7516SOL    HW124387   3.565   2.230  11.705
 7516SOL    HW224388   3.447   2.253  11.796
 7517SOL     OW24389   9.564  12.138   8.802
 7517SOL    HW124390   9.619  12.212   8.778
 7517SOL    HW224391   9.550  12.090   8.720
 7518SOL     OW24392  11.227   1.201   6.706
 7518SOL    HW124393  11.190   1.226   6.791
 7518SOL    HW224394  11.321   1.206   6.718
 7519SOL     OW24395  10.303   0.466   1.657
 7519SOL    HW124396  10.238   0.419   1.708
 7519SOL    HW224397  10.386   0.451   1.703
 7520SOL     OW24398   1.533   9.024   0.560
 7520SOL    HW124399   1.495   9.080   0.627
 7520SOL    HW224400   1.476   9.036   0.484
 7521SOL     OW24401  11.209  14.834  12.964
 7521SOL    HW124402  11.220   0.043  12.928
 7521SOL    HW224403  11.185  14.780  12.888
 7522SOL     OW24404   9.979  14.861   7.128
 7522SOL    HW124405  10.045  14.807   7.171
 7522SOL    HW224406  10.029   0.034   7.065
 7523SOL     OW24407   3.454   3.473   2.816
 7523SOL    HW124408   3.476   3.385   2.784
 7523SOL    HW224409   3.517   3.530   2.773
 7524SOL     OW24410   3.621   4.323   9.084
 7524SOL    HW124411   3.638   4.406   9.040
 7524SOL    HW224412   3.706   4.278   9.085
 7525SOL     OW24413   5.195   7.480  14.777
 7525SOL    HW124414   5.204   7.394  14.818
 7525SOL    HW224415   5.281   7.521  14.789
 7526SOL     OW24416   0.373  10.498   8.926
 7526SOL    HW124417   0.423  10.561   8.977
 7526SOL    HW224418   0.328  10.551   8.860
 7527SOL     OW24419   8.229  12.787  11.636
 7527SOL    HW124420   8.248  12.702  11.675
 7527SOL    HW224421   8.144  12.776  11.593
 7528SOL     OW24422  13.053   6.016   8.395
 7528SOL    HW124423  13.084   6.064   8.472
 7528SOL    HW224424  12.958   6.016   8.404
 7529SOL     OW24425   1.322   1.269   7.903
 7529SOL    HW124426   1.408   1.307   7.920
 7529SOL    HW224427   1.331   1.230   7.816
 7530SOL     OW24428   4.012   6.260   2.761
 7530SOL    HW124429   3.962   6.334   2.796
 7530SOL    HW224430   4.073   6.300   2.699
 7531SOL     OW24431   3.341   8.039  12.784
 7531SOL    HW124432   3.433   8.020  12.766
 7531SOL    HW224433   3.325   8.123  12.740
 7532SOL     OW24434   7.775   2.308   5.781
 7532SOL    HW124435   7.800   2.304   5.688
 7532SOL    HW224436   7.834   2.373   5.819
 7533SOL     OW24437  12.307   8.494   9.304
 7533SOL    HW124438  12.258   8.500   9.385
 7533SOL    HW224439  12.246   8.522   9.236
 7534SOL     OW24440   2.343   9.233  12.217
 7534SOL    HW124441   2.427   9.266  12.250
 7534SOL    HW224442   2.277   9.287  12.261
 7535SOL     OW24443  11.002   6.159   9.720
 7535SOL    HW124444  11.007   6.081   9.666
 7535SOL    HW224445  11.024   6.231   9.661
 7536SOL     OW24446   5.121  10.123   7.552
 7536SOL    HW124447   5.059  10.154   7.486
 7536SOL    HW224448   5.203  10.111   7.505
 7537SOL     OW24449  10.786   8.412   4.288
 7537SOL    HW124450  10.704   8.452   4.258
 7537SOL    HW224451  10.835   8.395   4.208
 7538SOL     OW24452   5.664   0.981   8.651
 7538SOL    HW124453   5.704   0.895   8.658
 7538SOL    HW224454   5.665   1.016   8.740
 7539SOL     OW24455   3.063   6.904   0.880
 7539SOL    HW124456   2.990   6.915   0.819
 7539SOL    HW224457   3.023   6.909   0.967
 7540SOL     OW24458   9.536   6.861  13.408
 7540SOL    HW124459   9.622   6.821  13.399
 7540SOL    HW224460   9.550   6.938  13.462
 7541SOL     OW24461   3.780  11.534   1.281
 7541SOL    HW124462   3.876  11.535   1.284
 7541SOL    HW224463   3.754  11.501   1.367
 7542SOL     OW24464  14.827  12.666   8.816
 7542SOL    HW124465  14.802  12.578   8.843
 7542SOL    HW224466   0.025  12.654   8.761
 7543SOL     OW24467  13.779   6.208  13.707
 7543SOL    HW124468  13.833   6.215  13.785
 7543SOL    HW224469  13.778   6.114  13.687
 7544SOL     OW24470   0.589   7.420   9.239
 7544SOL    HW124471   0.554   7.347   9.290
 7544SOL    HW224472   0.519   7.486   9.242
 7545SOL     OW24473   9.552   0.990  14.390
 7545SOL    HW124474   9.581   1.041  14.314
 7545SOL    HW224475   9.623   0.998  14.453
 7546SOL     OW24476   0.949  10.589  12.429
 7546SOL    HW124477   0.867  10.558  12.390
 7546SOL    HW224478   0.995  10.509  12.454
 7547SOL     OW24479  10.641   5.843   0.617
 7547SOL    HW124480  10.728   5.821   0.584
 7547SOL    HW224481  10.654   5.863   0.709
 7548SOL     OW24482  14.114   1.792  10.571
 7548SOL    HW124483  14.064   1.770  10.493
 7548SOL    HW224484  14.109   1.888  10.576
 7549SOL     OW24485   8.596   9.690   6.199
 7549SOL    HW124486   8.521   9.701   6.257
 7549SOL    HW224487   8.647   9.770   6.211
 7550SOL     OW24488   5.052  11.936  13.790
 7550SOL    HW124489   5.058  12.028  13.817
 7550SOL    HW224490   5.139  11.917  13.753
 7551SOL     OW24491   9.596   6.120   1.563
 7551SOL    HW124492   9.680   6.164   1.576
 7551SOL    HW224493   9.546   6.139   1.642
 7552SOL     OW24494  11.340   1.094   8.106
 7552SOL    HW124495  11.258   1.113   8.152
 7552SOL    HW224496  11.313   1.056   8.023
 7553SOL     OW24497  12.985   5.089   3.899
 7553SOL    HW124498  13.042   5.097   3.822
 7553SOL    HW224499  13.019   5.153   3.961
 7554SOL     OW24500   6.279  10.655   0.419
 7554SOL    HW124501   6.327  10.705   0.484
 7554SOL    HW224502   6.254  10.719   0.353
 7555SOL     OW24503  14.708   9.824  12.107
 7555SOL    HW124504  14.689   9.803  12.199
 7555SOL    HW224505  14.798   9.794  12.093
 7556SOL     OW24506  13.369   5.547   1.982
 7556SOL    HW124507  13.443   5.607   1.976
 7556SOL    HW224508  13.325   5.572   2.063
 7557SOL     OW24509   3.629   7.585   2.211
 7557SOL    HW124510   3.667   7.537   2.138
 7557SOL    HW224511   3.696   7.648   2.237
 7558SOL     OW24512   2.085   6.245  11.122
 7558SOL    HW124513   2.133   6.236  11.041
 7558SOL    HW224514   2.107   6.167  11.172
 7559SOL     OW24515   3.709  13.864  14.262
 7559SOL    HW124516   3.669  13.894  14.343
 7559SOL    HW224517   3.675  13.775  14.249
 7560SOL     OW24518  14.662   3.517  11.642
 7560SOL    HW124519  14.678   3.443  11.701
 7560SOL    HW224520  14.699   3.488  11.558
 7561SOL     OW24521  13.373   5.942  12.847
 7561SOL    HW124522  13.438   5.916  12.781
 7561SOL    HW224523  13.289   5.918  12.809
 7562SOL     OW24524   0.674   8.540   7.473
 7562SOL    HW124525   0.643   8.451   7.458
 7562SOL    HW224526   0.640   8.563   7.559
 7563SOL     OW24527   5.418   2.977   0.262
 7563SOL    HW124528   5.341   2.984   0.318
 7563SOL    HW224529   5.490   3.010   0.316
 7564SOL     OW24530   6.496   0.945  13.336
 7564SOL    HW124531   6.562   0.876  13.345
 7564SOL    HW224532   6.415   0.905  13.367
 7565SOL     OW24533  14.463  11.600  14.555
 7565SOL    HW124534  14.374  11.568  14.542
 7565SOL    HW224535  14.466  11.683  14.507
 7566SOL     OW24536   4.756  12.343   9.711
 7566SOL    HW124537   4.818  12.398   9.663
 7566SOL    HW224538   4.674  12.392   9.710
 7567SOL     OW24539   6.495   6.139   2.273
 7567SOL    HW124540   6.521   6.107   2.186
 7567SOL    HW224541   6.568   6.114   2.330
 7568SOL     OW24542   8.741   3.157   9.732
 7568SOL    HW124543   8.670   3.144   9.796
 7568SOL    HW224544   8.820   3.135   9.780
 7569SOL     OW24545   3.909  12.941   8.106
 7569SOL    HW124546   3.925  12.865   8.162
 7569SOL    HW224547   3.862  12.905   8.031
 7570SOL     OW24548  10.915  11.653   7.344
 7570SOL    HW124549  10.857  11.694   7.280
 7570SOL    HW224550  10.899  11.702   7.425
 7571SOL     OW24551   5.186   0.929  12.535
 7571SOL    HW124552   5.095   0.900  12.536
 7571SOL    HW224553   5.231   0.866  12.478
 7572SOL     OW24554   0.265  12.152   9.794
 7572SOL    HW124555   0.267  12.141   9.889
 7572SOL    HW224556   0.338  12.210   9.775
 7573SOL     OW24557   8.503   9.820   7.294
 7573SOL    HW124558   8.453   9.806   7.374
 7573SOL    HW224559   8.482   9.745   7.239
 7574SOL     OW24560  10.900   9.029  13.809
 7574SOL    HW124561  10.971   9.008  13.870
 7574SOL    HW224562  10.893   8.951  13.754
 7575SOL     OW24563   1.156   5.836  11.139
 7575SOL    HW124564   1.092   5.826  11.069
 7575SOL    HW224565   1.104   5.843  11.219
 7576SOL     OW24566   2.857   7.205   3.684
 7576SOL    HW124567   2.860   7.141   3.612
 7576SOL    HW224568   2.791   7.269   3.656
 7577SOL     OW24569  14.106   5.633   4.870
 7577SOL    HW124570  14.015   5.661   4.878
 7577SOL    HW224571  14.102   5.538   4.880
 7578SOL     OW24572   0.377  13.752  13.736
 7578SOL    HW124573   0.287  13.733  13.762
 7578SOL    HW224574   0.424  13.767  13.818
 7579SOL     OW24575  11.448  11.547   1.220
 7579SOL    HW124576  11.409  11.468   1.181
 7579SOL    HW224577  11.419  11.546   1.311
 7580SOL     OW24578   6.370  13.193   9.274
 7580SOL    HW124579   6.382  13.099   9.289
 7580SOL    HW224580   6.444  13.218   9.220
 7581SOL     OW24581   7.016   2.608  10.379
 7581SOL    HW124582   7.039   2.601  10.472
 7581SOL    HW224583   6.971   2.692  10.372
 7582SOL     OW24584   3.906   8.164   6.385
 7582SOL    HW124585   3.916   8.183   6.478
 7582SOL    HW224586   3.995   8.146   6.354
 7583SOL     OW24587  13.520   4.945  14.527
 7583SOL    HW124588  13.602   4.951  14.479
 7583SOL    HW224589  13.471   4.876  14.482
 7584SOL     OW24590   5.666   7.169   8.647
 7584SOL    HW124591   5.605   7.095   8.651
 7584SOL    HW224592   5.752   7.128   8.636
 7585SOL     OW24593   0.972   0.702   9.949
 7585SOL    HW124594   0.889   0.665   9.980
 7585SOL    HW224595   0.946   0.781   9.901
 7586SOL     OW24596   0.928   7.400   4.083
 7586SOL    HW124597   1.003   7.451   4.114
 7586SOL    HW224598   0.957   7.365   3.999
 7587SOL     OW24599   4.871  12.216   0.439
 7587SOL    HW124600   4.937  12.178   0.380
 7587SOL    HW224601   4.919  12.283   0.488
 7588SOL     OW24602   6.897  11.748   0.142
 7588SOL    HW124603   6.985  11.759   0.178
 7588SOL    HW224604   6.851  11.829   0.166
 7589SOL     OW24605   0.962   8.667   7.439
 7589SOL    HW124606   0.882   8.618   7.462
 7589SOL    HW224607   1.026   8.641   7.506
 7590SOL     OW24608   2.364   3.434   3.550
 7590SOL    HW124609   2.418   3.436   3.629
 7590SOL    HW224610   2.275   3.422   3.582
 7591SOL     OW24611   0.954  11.186   6.065
 7591SOL    HW124612   0.987  11.141   5.988
 7591SOL    HW224613   0.862  11.159   6.072
 7592SOL     OW24614  11.995   6.743   0.112
 7592SOL    HW124615  11.950   6.659   0.101
 7592SOL    HW224616  11.949   6.787   0.184
 7593SOL     OW24617   7.363   6.693   9.439
 7593SOL    HW124618   7.334   6.692   9.348
 7593SOL    HW224619   7.289   6.728   9.488
 7594SOL     OW24620  12.213   3.093  11.254
 7594SOL    HW124621  12.129   3.137  11.267
 7594SOL    HW224622  12.234   3.107  11.162
 7595SOL     OW24623   7.911   1.972  12.914
 7595SOL    HW124624   7.920   2.028  12.991
 7595SOL    HW224625   7.832   2.003  12.871
 7596SOL     OW24626   2.832  12.017  13.712
 7596SOL    HW124627   2.788  12.089  13.758
 7596SOL    HW224628   2.873  12.058  13.636
 7597SOL     OW24629   0.618   2.274   5.575
 7597SOL    HW124630   0.705   2.240   5.553
 7597SOL    HW224631   0.635   2.345   5.636
 7598SOL     OW24632  13.801  10.457  13.358
 7598SOL    HW124633  13.799  10.401  13.281
 7598SOL    HW224634  13.883  10.433  13.402
 7599SOL     OW24635   5.195   9.287   3.661
 7599SOL    HW124636   5.156   9.221   3.717
 7599SOL    HW224637   5.270   9.244   3.621
 7600SOL     OW24638  14.722   4.984   3.001
 7600SOL    HW124639  14.706   5.041   3.077
 7600SOL    HW224640  14.812   5.006   2.975
 7601SOL     OW24641  12.568   3.290   4.636
 7601SOL    HW124642  12.623   3.359   4.672
 7601SOL    HW224643  12.623   3.247   4.571
 7602SOL     OW24644   7.114  11.092  10.418
 7602SOL    HW124645   7.117  11.081  10.513
 7602SOL    HW224646   7.201  11.063  10.388
 7603SOL     OW24647   8.598   4.843  10.973
 7603SOL    HW124648   8.628   4.752  10.975
 7603SOL    HW224649   8.645   4.885  11.045
 7604SOL     OW24650   7.552  10.212  14.583
 7604SOL    HW124651   7.623  10.183  14.525
 7604SOL    HW224652   7.497  10.134  14.594
 7605SOL     OW24653  13.721   0.852  14.756
 7605SOL    HW124654  13.713   0.880  14.665
 7605SOL    HW224655  13.639   0.878  14.797
 7606SOL     OW24656  14.022  14.422   4.559
 7606SOL    HW124657  14.108  14.396   4.592
 7606SOL    HW224658  14.030  14.415   4.464
 7607SOL     OW24659  12.127   5.089   3.123
 7607SOL    HW124660  12.148   5.031   3.050
 7607SOL    HW224661  12.187   5.163   3.113
 7608SOL     OW24662  13.973   4.599   5.022
 7608SOL    HW124663  13.878   4.611   5.023
 7608SOL    HW224664  14.006   4.665   5.083
 7609SOL     OW24665   4.464  14.136  13.722
 7609SOL    HW124666   4.522  14.193  13.672
 7609SOL    HW224667   4.506  14.127  13.807
 7610SOL     OW24668  13.215  12.189  10.924
 7610SOL    HW124669  13.263  12.130  10.981
 7610SOL    HW224670  13.255  12.275  10.939
 7611SOL     OW24671   1.288   2.411   8.738
 7611SOL    HW124672   1.243   2.488   8.774
 7611SOL    HW224673   1.378   2.440   8.724
 7612SOL     OW24674   0.890   2.512   6.046
 7612SOL    HW124675   0.819   2.563   6.005
 7612SOL    HW224676   0.862   2.501   6.137
 7613SOL     OW24677  11.170  14.245   5.033
 7613SOL    HW124678  11.092  14.219   5.083
 7613SOL    HW224679  11.181  14.338   5.051
 7614SOL     OW24680   8.577  12.161   5.568
 7614SOL    HW124681   8.655  12.185   5.518
 7614SOL    HW224682   8.596  12.072   5.600
 7615SOL     OW24683   2.222   4.476   2.516
 7615SOL    HW124684   2.255   4.548   2.569
 7615SOL    HW224685   2.257   4.397   2.559
 7616SOL     OW24686   4.825   8.237  13.196
 7616SOL    HW124687   4.918   8.215  13.196
 7616SOL    HW224688   4.823   8.333  13.206
 7617SOL     OW24689   1.905  11.555  12.727
 7617SOL    HW124690   1.992  11.530  12.696
 7617SOL    HW224691   1.869  11.474  12.764
 7618SOL     OW24692   5.628   3.876  11.573
 7618SOL    HW124693   5.667   3.821  11.505
 7618SOL    HW224694   5.534   3.863  11.563
 7619SOL     OW24695   8.125   3.886   2.508
 7619SOL    HW124696   8.077   3.843   2.437
 7619SOL    HW224697   8.067   3.956   2.537
 7620SOL     OW24698   8.206   5.571   2.084
 7620SOL    HW124699   8.211   5.564   2.180
 7620SOL    HW224700   8.242   5.658   2.065
 7621SOL     OW24701  10.345  10.251   4.590
 7621SOL    HW124702  10.424  10.242   4.643
 7621SOL    HW224703  10.297  10.169   4.604
 7622SOL     OW24704   9.894   4.418   1.777
 7622SOL    HW124705   9.807   4.414   1.739
 7622SOL    HW224706   9.919   4.510   1.772
 7623SOL     OW24707   5.778  12.310  11.705
 7623SOL    HW124708   5.800  12.393  11.748
 7623SOL    HW224709   5.687  12.294  11.730
 7624SOL     OW24710  14.408  11.301   0.071
 7624SOL    HW124711  14.451  11.370   0.021
 7624SOL    HW224712  14.314  11.315   0.056
 7625SOL     OW24713  11.633   6.727   4.773
 7625SOL    HW124714  11.575   6.801   4.788
 7625SOL    HW224715  11.579   6.664   4.724
 7626SOL     OW24716  14.709   7.933   5.938
 7626SOL    HW124717  14.757   7.854   5.966
 7626SOL    HW224718  14.771   7.980   5.883
 7627SOL     OW24719   6.431   8.369   5.038
 7627SOL    HW124720   6.455   8.277   5.036
 7627SOL    HW224721   6.372   8.378   5.113
 7628SOL     OW24722  13.470   8.774  12.326
 7628SOL    HW124723  13.447   8.783  12.418
 7628SOL    HW224724  13.555   8.730  12.326
 7629SOL     OW24725  13.720   0.015   7.077
 7629SOL    HW124726  13.805  14.851   7.088
 7629SOL    HW224727  13.742   0.104   7.048
 7630SOL     OW24728   4.543   1.918  13.325
 7630SOL    HW124729   4.460   1.964  13.341
 7630SOL    HW224730   4.607   1.965  13.378
 7631SOL     OW24731   2.279   7.195   9.564
 7631SOL    HW124732   2.227   7.184   9.644
 7631SOL    HW224733   2.369   7.201   9.594
 7632SOL     OW24734   1.934   4.045   6.800
 7632SOL    HW124735   1.908   4.137   6.791
 7632SOL    HW224736   1.958   4.018   6.712
 7633SOL     OW24737   1.413  10.169   9.259
 7633SOL    HW124738   1.376  10.256   9.272
 7633SOL    HW224739   1.366  10.113   9.321
 7634SOL     OW24740   6.723  10.834   5.383
 7634SOL    HW124741   6.774  10.801   5.456
 7634SOL    HW224742   6.654  10.886   5.423
 7635SOL     OW24743   7.717   7.714  12.878
 7635SOL    HW124744   7.796   7.673  12.914
 7635SOL    HW224745   7.662   7.641  12.851
 7636SOL     OW24746  11.638  11.942  13.775
 7636SOL    HW124747  11.655  11.881  13.704
 7636SOL    HW224748  11.542  11.945  13.782
 7637SOL     OW24749  12.074  13.056  13.575
 7637SOL    HW124750  12.096  12.971  13.612
 7637SOL    HW224751  12.157  13.102  13.569
 7638SOL     OW24752  10.736   2.270   7.337
 7638SOL    HW124753  10.694   2.323   7.269
 7638SOL    HW224754  10.722   2.321   7.418
 7639SOL     OW24755  10.838  13.477   7.072
 7639SOL    HW124756  10.910  13.469   7.135
 7639SOL    HW224757  10.802  13.564   7.087
 7640SOL     OW24758   4.055  11.301   5.428
 7640SOL    HW124759   3.988  11.368   5.441
 7640SOL    HW224760   4.110  11.306   5.506
 7641SOL     OW24761  10.480  12.433  12.405
 7641SOL    HW124762  10.454  12.524  12.412
 7641SOL    HW224763  10.398  12.385  12.392
 7642SOL     OW24764  12.967   8.729   8.310
 7642SOL    HW124765  13.005   8.718   8.398
 7642SOL    HW224766  12.942   8.641   8.284
 7643SOL     OW24767   7.914  14.237  11.387
 7643SOL    HW124768   7.995  14.279  11.360
 7643SOL    HW224769   7.860  14.309  11.420
 7644SOL     OW24770  12.979   0.131   0.207
 7644SOL    HW124771  12.892   0.136   0.168
 7644SOL    HW224772  12.964   0.100   0.296
 7645SOL     OW24773   4.274   1.653  12.174
 7645SOL    HW124774   4.224   1.654  12.256
 7645SOL    HW224775   4.208   1.667  12.106
 7646SOL     OW24776  11.053   9.455   4.384
 7646SOL    HW124777  11.125   9.394   4.402
 7646SOL    HW224778  11.074   9.492   4.298
 7647SOL     OW24779   8.847  14.008   1.654
 7647SOL    HW124780   8.915  14.072   1.632
 7647SOL    HW224781   8.786  14.056   1.710
 7648SOL     OW24782   1.003   2.509  11.363
 7648SOL    HW124783   1.010   2.531  11.270
 7648SOL    HW224784   0.947   2.578  11.400
 7649SOL     OW24785  12.354   3.367   1.474
 7649SOL    HW124786  12.366   3.351   1.380
 7649SOL    HW224787  12.299   3.295   1.504
 7650SOL     OW24788  10.559  10.905  10.668
 7650SOL    HW124789  10.653  10.896  10.683
 7650SOL    HW224790  10.519  10.841  10.727
 7651SOL     OW24791   3.866   7.382   2.505
 7651SOL    HW124792   3.952   7.396   2.466
 7651SOL    HW224793   3.862   7.447   2.576
 7652SOL     OW24794   5.068   6.888   8.614
 7652SOL    HW124795   5.131   6.817   8.622
 7652SOL    HW224796   5.020   6.887   8.697
 7653SOL     OW24797   1.824   8.803  12.490
 7653SOL    HW124798   1.777   8.859  12.428
 7653SOL    HW224799   1.891   8.860  12.527
 7654SOL     OW24800   6.917  11.190  11.339
 7654SOL    HW124801   6.921  11.282  11.312
 7654SOL    HW224802   6.889  11.193  11.431
 7655SOL     OW24803   4.642  13.293   7.361
 7655SOL    HW124804   4.635  13.388   7.366
 7655SOL    HW224805   4.721  13.272   7.410
 7656SOL     OW24806   7.481   4.331  10.281
 7656SOL    HW124807   7.505   4.239  10.278
 7656SOL    HW224808   7.561   4.377  10.305
 7657SOL     OW24809  10.292  12.121   1.747
 7657SOL    HW124810  10.251  12.130   1.661
 7657SOL    HW224811  10.365  12.061   1.733
 7658SOL     OW24812   5.835   7.902  10.442
 7658SOL    HW124813   5.857   7.813  10.415
 7658SOL    HW224814   5.872   7.911  10.530
 7659SOL     OW24815   9.318  13.388   7.533
 7659SOL    HW124816   9.325  13.406   7.440
 7659SOL    HW224817   9.407  13.393   7.566
 7660SOL     OW24818  13.716   8.850  10.163
 7660SOL    HW124819  13.650   8.796  10.207
 7660SOL    HW224820  13.752   8.794  10.095
 7661SOL     OW24821   8.136   3.271   8.912
 7661SOL    HW124822   8.067   3.327   8.948
 7661SOL    HW224823   8.155   3.307   8.826
 7662SOL     OW24824  12.656   9.619  14.637
 7662SOL    HW124825  12.696   9.634  14.552
 7662SOL    HW224826  12.675   9.527  14.656
 7663SOL     OW24827   5.291  12.226   6.161
 7663SOL    HW124828   5.372  12.277   6.166
 7663SOL    HW224829   5.256  12.245   6.074
 7664SOL     OW24830   0.939   1.351  11.851
 7664SOL    HW124831   0.888   1.431  11.843
 7664SOL    HW224832   0.947   1.337  11.946
 7665SOL     OW24833   0.325  11.183   8.274
 7665SOL    HW124834   0.263  11.131   8.224
 7665SOL    HW224835   0.399  11.195   8.215
 7666SOL     OW24836   5.964  12.649   2.899
 7666SOL    HW124837   5.904  12.596   2.847
 7666SOL    HW224838   6.008  12.706   2.835
 7667SOL     OW24839   2.256   9.468   8.411
 7667SOL    HW124840   2.345   9.433   8.399
 7667SOL    HW224841   2.201   9.413   8.355
 7668SOL     OW24842  11.484   1.041  12.340
 7668SOL    HW124843  11.567   1.059  12.383
 7668SOL    HW224844  11.464   1.121  12.290
 7669SOL     OW24845   5.063  13.963   5.322
 7669SOL    HW124846   5.063  13.954   5.418
 7669SOL    HW224847   4.972  13.978   5.299
 7670SOL     OW24848   7.371  14.782  12.584
 7670SOL    HW124849   7.324  14.727  12.522
 7670SOL    HW224850   7.434  14.723  12.626
 7671SOL     OW24851   7.399   3.766  10.249
 7671SOL    HW124852   7.361   3.854  10.247
 7671SOL    HW224853   7.379   3.733  10.336
 7672SOL     OW24854  10.705   2.337  14.128
 7672SOL    HW124855  10.661   2.417  14.098
 7672SOL    HW224856  10.682   2.331  14.221
 7673SOL     OW24857   7.474   2.669   6.710
 7673SOL    HW124858   7.458   2.575   6.701
 7673SOL    HW224859   7.511   2.678   6.797
 7674SOL     OW24860   6.306  13.509   4.425
 7674SOL    HW124861   6.383  13.545   4.468
 7674SOL    HW224862   6.336  13.427   4.385
 7675SOL     OW24863   3.249   2.041  11.797
 7675SOL    HW124864   3.155   2.028  11.784
 7675SOL    HW224865   3.259   2.136  11.798
 7676SOL     OW24866  10.450   5.260   3.073
 7676SOL    HW124867  10.446   5.169   3.045
 7676SOL    HW224868  10.536   5.269   3.116
 7677SOL     OW24869  11.483  14.675   8.374
 7677SOL    HW124870  11.397  14.675   8.332
 7677SOL    HW224871  11.499  14.766   8.397
 7678SOL     OW24872   7.453   3.562   8.209
 7678SOL    HW124873   7.363   3.553   8.240
 7678SOL    HW224874   7.479   3.474   8.183
 7679SOL     OW24875   0.890  13.087   3.205
 7679SOL    HW124876   0.915  13.011   3.257
 7679SOL    HW224877   0.812  13.059   3.158
 7680SOL     OW24878  10.613   6.883   7.942
 7680SOL    HW124879  10.570   6.820   8.001
 7680SOL    HW224880  10.650   6.830   7.872
 7681SOL     OW24881   9.930  11.965   5.803
 7681SOL    HW124882   9.922  12.044   5.750
 7681SOL    HW224883  10.022  11.939   5.793
 7682SOL     OW24884  10.444  14.256   1.816
 7682SOL    HW124885  10.394  14.183   1.780
 7682SOL    HW224886  10.485  14.222   1.895
 7683SOL     OW24887   8.480   3.760   8.146
 7683SOL    HW124888   8.525   3.806   8.075
 7683SOL    HW224889   8.445   3.681   8.104
 7684SOL     OW24890   8.180   3.491   0.163
 7684SOL    HW124891   8.142   3.528   0.082
 7684SOL    HW224892   8.103   3.468   0.216
 7685SOL     OW24893   1.721   4.775  10.700
 7685SOL    HW124894   1.760   4.863  10.700
 7685SOL    HW224895   1.747   4.736  10.617
 7686SOL     OW24896   4.557   2.960   6.199
 7686SOL    HW124897   4.622   3.015   6.154
 7686SOL    HW224898   4.478   2.969   6.146
 7687SOL     OW24899   4.470   9.178   8.022
 7687SOL    HW124900   4.486   9.220   7.937
 7687SOL    HW224901   4.550   9.194   8.072
 7688SOL     OW24902   0.435   7.631  11.644
 7688SOL    HW124903   0.340   7.640  11.632
 7688SOL    HW224904   0.466   7.721  11.652
 7689SOL     OW24905   9.361   2.804  12.053
 7689SOL    HW124906   9.294   2.787  12.119
 7689SOL    HW224907   9.367   2.899  12.048
 7690SOL     OW24908   8.625   4.347  12.726
 7690SOL    HW124909   8.539   4.377  12.754
 7690SOL    HW224910   8.611   4.256  12.700
 7691SOL     OW24911  11.274   2.261   1.325
 7691SOL    HW124912  11.282   2.348   1.365
 7691SOL    HW224913  11.202   2.220   1.373
 7692SOL     OW24914   3.027   8.757   2.067
 7692SOL    HW124915   3.008   8.819   2.138
 7692SOL    HW224916   3.115   8.781   2.038
 7693SOL     OW24917   5.325  10.616  11.047
 7693SOL    HW124918   5.337  10.697  10.997
 7693SOL    HW224919   5.410  10.572  11.042
 7694SOL     OW24920   1.580   7.631   7.768
 7694SOL    HW124921   1.580   7.713   7.719
 7694SOL    HW224922   1.530   7.650   7.847
 7695SOL     OW24923   0.621  10.751   9.442
 7695SOL    HW124924   0.647  10.814   9.375
 7695SOL    HW224925   0.526  10.761   9.448
 7696SOL     OW24926  11.079  13.454   6.375
 7696SOL    HW124927  11.079  13.369   6.419
 7696SOL    HW224928  11.058  13.434   6.284
 7697SOL     OW24929   6.574   6.403   2.081
 7697SOL    HW124930   6.503   6.464   2.104
 7697SOL    HW224931   6.530   6.331   2.036
 7698SOL     OW24932  14.437   1.626   8.386
 7698SOL    HW124933  14.527   1.630   8.354
 7698SOL    HW224934  14.413   1.718   8.401
 7699SOL     OW24935   1.565   2.784  14.108
 7699SOL    HW124936   1.661   2.776  14.111
 7699SOL    HW224937   1.542   2.828  14.190
 7700SOL     OW24938   2.920   1.286  14.171
 7700SOL    HW124939   2.937   1.205  14.124
 7700SOL    HW224940   2.824   1.289  14.178
 7701SOL     OW24941  13.759   7.380   9.670
 7701SOL    HW124942  13.786   7.428   9.748
 7701SOL    HW224943  13.835   7.384   9.612
 7702SOL     OW24944   6.255   1.994   7.236
 7702SOL    HW124945   6.237   2.041   7.155
 7702SOL    HW224946   6.169   1.983   7.277
 7703SOL     OW24947   8.673   4.684   4.762
 7703SOL    HW124948   8.684   4.591   4.746
 7703SOL    HW224949   8.698   4.697   4.853
 7704SOL     OW24950   5.869   8.617  10.888
 7704SOL    HW124951   5.924   8.637  10.813
 7704SOL    HW224952   5.862   8.521  10.887
 7705SOL     OW24953   9.245  12.050   5.578
 7705SOL    HW124954   9.263  12.133   5.623
 7705SOL    HW224955   9.165  12.017   5.620
 7706SOL     OW24956   6.400   9.472  11.769
 7706SOL    HW124957   6.374   9.521  11.847
 7706SOL    HW224958   6.330   9.407  11.757
 7707SOL     OW24959  11.176  10.763   3.337
 7707SOL    HW124960  11.110  10.812   3.287
 7707SOL    HW224961  11.134  10.679   3.354
 7708SOL     OW24962   8.159  11.244   2.249
 7708SOL    HW124963   8.158  11.171   2.187
 7708SOL    HW224964   8.241  11.290   2.232
 7709SOL     OW24965   9.702  10.486   5.087
 7709SOL    HW124966   9.689  10.581   5.091
 7709SOL    HW224967   9.614  10.450   5.088
 7710SOL     OW24968   3.243   1.380   8.739
 7710SOL    HW124969   3.196   1.298   8.757
 7710SOL    HW224970   3.193   1.421   8.669
 7711SOL     OW24971  11.544  11.570  14.044
 7711SOL    HW124972  11.608  11.566  13.974
 7711SOL    HW224973  11.526  11.663  14.056
 7712SOL     OW24974   9.116  12.523  14.723
 7712SOL    HW124975   9.099  12.594  14.784
 7712SOL    HW224976   9.210  12.507  14.731
 7713SOL     OW24977   2.752  13.912   9.283
 7713SOL    HW124978   2.728  13.979   9.220
 7713SOL    HW224979   2.843  13.932   9.306
 7714SOL     OW24980  11.147   5.001   2.663
 7714SOL    HW124981  11.161   5.054   2.741
 7714SOL    HW224982  11.196   4.920   2.679
 7715SOL     OW24983   5.235   2.002  10.459
 7715SOL    HW124984   5.200   1.913  10.464
 7715SOL    HW224985   5.164   2.058  10.490
 7716SOL     OW24986   2.220  11.117   5.402
 7716SOL    HW124987   2.263  11.201   5.390
 7716SOL    HW224988   2.273  11.055   5.351
 7717SOL     OW24989   2.859   3.421  10.886
 7717SOL    HW124990   2.818   3.477  10.953
 7717SOL    HW224991   2.785   3.390  10.833
 7718SOL     OW24992  13.985   8.080   4.262
 7718SOL    HW124993  13.991   8.097   4.168
 7718SOL    HW224994  14.047   8.140   4.301
 7719SOL     OW24995   5.183  11.394  12.466
 7719SOL    HW124996   5.239  11.327  12.427
 7719SOL    HW224997   5.230  11.421  12.545
 7720SOL     OW24998   9.836  13.436   4.360
 7720SOL    HW124999   9.894  13.365   4.389
 7720SOL    HW225000   9.749  13.410   4.392
 7721SOL     OW25001   3.547   4.054  12.641
 7721SOL    HW125002   3.457   4.022  12.642
 7721SOL    HW225003   3.599   3.980  12.672
 7722SOL     OW25004   6.296   8.553   2.587
 7722SOL    HW125005   6.335   8.600   2.513
 7722SOL    HW225006   6.223   8.608   2.615
 7723SOL     OW25007  12.755   5.514   3.145
 7723SOL    HW125008  12.690   5.581   3.167
 7723SOL    HW225009  12.758   5.458   3.223
 7724SOL     OW25010   0.908  10.257  13.189
 7724SOL    HW125011   0.866  10.334  13.226
 7724SOL    HW225012   0.913  10.274  13.095
 7725SOL     OW25013   6.636  10.518   7.800
 7725SOL    HW125014   6.727  10.539   7.822
 7725SOL    HW225015   6.636  10.423   7.787
 7726SOL     OW25016  12.964   8.226  10.400
 7726SOL    HW125017  12.935   8.149  10.351
 7726SOL    HW225018  13.059   8.215  10.406
 7727SOL     OW25019   8.208   4.790  11.565
 7727SOL    HW125020   8.200   4.870  11.513
 7727SOL    HW225021   8.131   4.791  11.622
 7728SOL     OW25022   3.661   9.329   1.300
 7728SOL    HW125023   3.598   9.354   1.232
 7728SOL    HW225024   3.700   9.247   1.267
 7729SOL     OW25025  11.384   0.150  10.683
 7729SOL    HW125026  11.298   0.189  10.668
 7729SOL    HW225027  11.440   0.187  10.615
 7730SOL     OW25028   5.804  14.842   1.680
 7730SOL    HW125029   5.733   0.003   1.630
 7730SOL    HW225030   5.762  14.772   1.730
 7731SOL     OW25031   7.572   5.892  11.569
 7731SOL    HW125032   7.582   5.907  11.662
 7731SOL    HW225033   7.585   5.798  11.558
 7732SOL     OW25034   3.208   9.447   4.496
 7732SOL    HW125035   3.147   9.458   4.568
 7732SOL    HW225036   3.252   9.531   4.488
 7733SOL     OW25037  12.742   1.660   9.753
 7733SOL    HW125038  12.830   1.645   9.787
 7733SOL    HW225039  12.719   1.748   9.783
 7734SOL     OW25040  13.547  12.866   0.195
 7734SOL    HW125041  13.564  12.773   0.180
 7734SOL    HW225042  13.542  12.904   0.108
 7735SOL     OW25043   4.026   4.728   7.537
 7735SOL    HW125044   4.079   4.651   7.517
 7735SOL    HW225045   4.069   4.767   7.613
 7736SOL     OW25046   7.900   4.786   5.991
 7736SOL    HW125047   7.833   4.721   6.014
 7736SOL    HW225048   7.873   4.819   5.905
 7737SOL     OW25049   1.204   1.848   5.466
 7737SOL    HW125050   1.122   1.807   5.439
 7737SOL    HW225051   1.204   1.839   5.562
 7738SOL     OW25052   3.129   8.794   7.559
 7738SOL    HW125053   3.109   8.788   7.653
 7738SOL    HW225054   3.086   8.718   7.520
 7739SOL     OW25055   0.291   8.232   4.827
 7739SOL    HW125056   0.218   8.171   4.833
 7739SOL    HW225057   0.260   8.301   4.769
 7740SOL     OW25058  10.251  12.957  13.718
 7740SOL    HW125059  10.257  12.862  13.723
 7740SOL    HW225060  10.319  12.989  13.777
 7741SOL     OW25061   1.182  13.048  14.033
 7741SOL    HW125062   1.203  13.022  14.122
 7741SOL    HW225063   1.267  13.055  13.990
 7742SOL     OW25064   2.778   5.179  11.538
 7742SOL    HW125065   2.790   5.267  11.574
 7742SOL    HW225066   2.688   5.156  11.562
 7743SOL     OW25067   1.904  13.842  11.012
 7743SOL    HW125068   1.844  13.774  10.980
 7743SOL    HW225069   1.977  13.793  11.049
 7744SOL     OW25070   5.287   4.202   5.542
 7744SOL    HW125071   5.207   4.195   5.490
 7744SOL    HW225072   5.313   4.112   5.559
 7745SOL     OW25073   5.820   0.200   2.038
 7745SOL    HW125074   5.844   0.207   1.946
 7745SOL    HW225075   5.899   0.225   2.085
 7746SOL     OW25076   5.382   7.264   6.090
 7746SOL    HW125077   5.460   7.215   6.065
 7746SOL    HW225078   5.365   7.321   6.015
 7747SOL     OW25079   2.535  13.217  14.781
 7747SOL    HW125080   2.448  13.233  14.818
 7747SOL    HW225081   2.522  13.144  14.720
 7748SOL     OW25082   6.569   5.198   8.470
 7748SOL    HW125083   6.497   5.137   8.454
 7748SOL    HW225084   6.542   5.279   8.427
 7749SOL     OW25085  11.054   1.505   4.052
 7749SOL    HW125086  11.009   1.432   4.096
 7749SOL    HW225087  11.092   1.465   3.974
 7750SOL     OW25088   3.206  14.103  11.070
 7750SOL    HW125089   3.177  14.024  11.024
 7750SOL    HW225090   3.232  14.164  11.001
 7751SOL     OW25091  13.465   2.160  11.186
 7751SOL    HW125092  13.503   2.148  11.099
 7751SOL    HW225093  13.524   2.222  11.229
 7752SOL     OW25094  11.086   2.291   1.136
 7752SOL    HW125095  11.169   2.286   1.183
 7752SOL    HW225096  11.058   2.200   1.127
 7753SOL     OW25097   6.835   7.706   4.117
 7753SOL    HW125098   6.820   7.739   4.028
 7753SOL    HW225099   6.805   7.777   4.174
 7754SOL     OW25100  10.527   0.899   8.632
 7754SOL    HW125101  10.437   0.915   8.659
 7754SOL    HW225102  10.574   0.885   8.714
 7755SOL     OW25103   5.815  10.117  12.950
 7755SOL    HW125104   5.728  10.081  12.966
 7755SOL    HW225105   5.799  10.209  12.930
 7756SOL     OW25106   1.390   7.778   9.805
 7756SOL    HW125107   1.346   7.694   9.818
 7756SOL    HW225108   1.356   7.811   9.722
 7757SOL     OW25109   5.159   3.712  11.334
 7757SOL    HW125110   5.222   3.652  11.294
 7757SOL    HW225111   5.121   3.759  11.261
 7758SOL     OW25112  13.879   9.439  10.239
 7758SOL    HW125113  13.957   9.430  10.184
 7758SOL    HW225114  13.878   9.359  10.292
 7759SOL     OW25115   1.801   3.229   5.460
 7759SOL    HW125116   1.824   3.321   5.446
 7759SOL    HW225117   1.871   3.180   5.419
 7760SOL     OW25118  13.317   6.369   1.275
 7760SOL    HW125119  13.230   6.355   1.237
 7760SOL    HW225120  13.328   6.297   1.337
 7761SOL     OW25121   8.529   0.371   6.962
 7761SOL    HW125122   8.563   0.291   7.002
 7761SOL    HW225123   8.605   0.429   6.958
 7762SOL     OW25124   5.247   2.185  11.604
 7762SOL    HW125125   5.194   2.202  11.526
 7762SOL    HW225126   5.202   2.231  11.674
 7763SOL     OW25127   1.859   3.730   8.458
 7763SOL    HW125128   1.936   3.687   8.495
 7763SOL    HW225129   1.885   3.822   8.451
 7764SOL     OW25130  12.727   0.761   0.860
 7764SOL    HW125131  12.799   0.738   0.918
 7764SOL    HW225132  12.691   0.842   0.898
 7765SOL     OW25133  13.983  12.191   1.337
 7765SOL    HW125134  13.905  12.139   1.322
 7765SOL    HW225135  14.023  12.153   1.416
 7766SOL     OW25136   2.264  11.568  14.216
 7766SOL    HW125137   2.350  11.551  14.254
 7766SOL    HW225138   2.283  11.613  14.133
 7767SOL     OW25139   6.777   3.850   9.073
 7767SOL    HW125140   6.761   3.905   8.997
 7767SOL    HW225141   6.848   3.894   9.120
 7768SOL     OW25142  12.635   0.440   2.630
 7768SOL    HW125143  12.605   0.511   2.687
 7768SOL    HW225144  12.567   0.372   2.639
 7769SOL     OW25145  14.528   9.641   3.294
 7769SOL    HW125146  14.597   9.611   3.354
 7769SOL    HW225147  14.571   9.646   3.209
 7770SOL     OW25148   9.610  12.714   2.370
 7770SOL    HW125149   9.673  12.688   2.438
 7770SOL    HW225150   9.665  12.740   2.296
 7771SOL     OW25151   1.965   3.753   7.345
 7771SOL    HW125152   1.933   3.677   7.394
 7771SOL    HW225153   2.013   3.715   7.271
 7772SOL     OW25154  10.362   7.320  10.635
 7772SOL    HW125155  10.400   7.259  10.699
 7772SOL    HW225156  10.357   7.269  10.554
 7773SOL     OW25157  11.258   6.318   4.880
 7773SOL    HW125158  11.206   6.241   4.901
 7773SOL    HW225159  11.194   6.388   4.869
 7774SOL     OW25160  13.527   8.227   1.790
 7774SOL    HW125161  13.593   8.190   1.849
 7774SOL    HW225162  13.444   8.207   1.831
 7775SOL     OW25163   1.012   1.584  12.197
 7775SOL    HW125164   0.917   1.575  12.208
 7775SOL    HW225165   1.031   1.534  12.117
 7776SOL     OW25166  10.257   3.179  12.224
 7776SOL    HW125167  10.209   3.154  12.302
 7776SOL    HW225168  10.195   3.165  12.152
 7777SOL     OW25169  14.528  14.611   6.922
 7777SOL    HW125170  14.476  14.654   6.854
 7777SOL    HW225171  14.594  14.676   6.945
 7778SOL     OW25172  14.154  11.868  10.425
 7778SOL    HW125173  14.109  11.905  10.501
 7778SOL    HW225174  14.106  11.787  10.406
 7779SOL     OW25175  10.969  12.291   0.522
 7779SOL    HW125176  10.874  12.295   0.522
 7779SOL    HW225177  10.989  12.207   0.565
 7780SOL     OW25178   6.653  12.660   9.971
 7780SOL    HW125179   6.651  12.588  10.034
 7780SOL    HW225180   6.724  12.717  10.002
 7781SOL     OW25181  12.245  12.455   2.531
 7781SOL    HW125182  12.244  12.545   2.498
 7781SOL    HW225183  12.172  12.412   2.486
 7782SOL     OW25184   3.525   5.401   4.108
 7782SOL    HW125185   3.479   5.426   4.189
 7782SOL    HW225186   3.458   5.358   4.055
 7783SOL     OW25187   9.394   9.405  10.162
 7783SOL    HW125188   9.345   9.386  10.242
 7783SOL    HW225189   9.460   9.336  10.157
 7784SOL     OW25190  11.583   3.201  13.202
 7784SOL    HW125191  11.568   3.121  13.253
 7784SOL    HW225192  11.648   3.249  13.252
 7785SOL     OW25193   0.575   0.531   0.798
 7785SOL    HW125194   0.496   0.489   0.764
 7785SOL    HW225195   0.552   0.554   0.889
 7786SOL     OW25196   6.740   6.257   1.001
 7786SOL    HW125197   6.787   6.338   1.020
 7786SOL    HW225198   6.655   6.285   0.968
 7787SOL     OW25199   6.528  14.038  12.963
 7787SOL    HW125200   6.599  14.032  13.027
 7787SOL    HW225201   6.448  14.022  13.014
 7788SOL     OW25202   5.215   8.318   7.043
 7788SOL    HW125203   5.217   8.235   7.091
 7788SOL    HW225204   5.277   8.306   6.971
 7789SOL     OW25205   2.811   8.629  13.839
 7789SOL    HW125206   2.797   8.714  13.881
 7789SOL    HW225207   2.902   8.632  13.810
 7790SOL     OW25208   2.934  10.307   2.061
 7790SOL    HW125209   3.008  10.326   2.118
 7790SOL    HW225210   2.868  10.372   2.085
 7791SOL     OW25211  11.029  14.016   2.437
 7791SOL    HW125212  10.987  13.970   2.510
 7791SOL    HW225213  11.091  13.952   2.401
 7792SOL     OW25214   5.833   7.500  11.796
 7792SOL    HW125215   5.845   7.570  11.860
 7792SOL    HW225216   5.922   7.472  11.774
 7793SOL     OW25217   2.815  11.788   9.066
 7793SOL    HW125218   2.728  11.748   9.067
 7793SOL    HW225219   2.861  11.745   8.994
 7794SOL     OW25220   9.618   8.287  10.368
 7794SOL    HW125221   9.677   8.358  10.396
 7794SOL    HW225222   9.530   8.320  10.389
 7795SOL     OW25223   4.715  12.350   7.101
 7795SOL    HW125224   4.620  12.335   7.094
 7795SOL    HW225225   4.743  12.291   7.171
 7796SOL     OW25226  10.230  11.413   8.200
 7796SOL    HW125227  10.223  11.506   8.180
 7796SOL    HW225228  10.154  11.373   8.158
 7797SOL     OW25229   2.779  13.577   8.860
 7797SOL    HW125230   2.781  13.529   8.942
 7797SOL    HW225231   2.837  13.528   8.802
 7798SOL     OW25232  13.763   4.960   4.605
 7798SOL    HW125233  13.681   4.985   4.648
 7798SOL    HW225234  13.831   5.002   4.659
 7799SOL     OW25235   1.092   3.534   9.898
 7799SOL    HW125236   1.110   3.480   9.974
 7799SOL    HW225237   1.083   3.623   9.933
 7800SOL     OW25238   9.237   9.659   7.928
 7800SOL    HW125239   9.327   9.690   7.918
 7800SOL    HW225240   9.185   9.738   7.945
 7801SOL     OW25241  13.343  14.693  13.694
 7801SOL    HW125242  13.366  14.698  13.787
 7801SOL    HW225243  13.366  14.779  13.659
 7802SOL     OW25244  12.208  13.441   5.953
 7802SOL    HW125245  12.212  13.421   6.046
 7802SOL    HW225246  12.258  13.371   5.911
 7803SOL     OW25247   5.460   3.451   6.619
 7803SOL    HW125248   5.488   3.437   6.710
 7803SOL    HW225249   5.481   3.543   6.602
 7804SOL     OW25250   1.160   9.145  10.283
 7804SOL    HW125251   1.238   9.182  10.324
 7804SOL    HW225252   1.092   9.212  10.297
 7805SOL     OW25253   4.460   1.346   8.568
 7805SOL    HW125254   4.476   1.310   8.655
 7805SOL    HW225255   4.537   1.400   8.550
 7806SOL     OW25256   8.802  13.771  13.163
 7806SOL    HW125257   8.797  13.849  13.108
 7806SOL    HW225258   8.739  13.710  13.124
 7807SOL     OW25259   9.993  14.334   8.912
 7807SOL    HW125260  10.086  14.357   8.916
 7807SOL    HW225261   9.947  14.414   8.939
 7808SOL     OW25262   2.167   7.928  14.377
 7808SOL    HW125263   2.244   7.873  14.394
 7808SOL    HW225264   2.107   7.872  14.328
 7809SOL     OW25265  11.283  12.679   2.920
 7809SOL    HW125266  11.288  12.666   2.825
 7809SOL    HW225267  11.302  12.772   2.933
 7810SOL     OW25268   6.415   5.168   5.697
 7810SOL    HW125269   6.435   5.188   5.606
 7810SOL    HW225270   6.328   5.206   5.711
 7811SOL     OW25271   9.482   5.032   8.535
 7811SOL    HW125272   9.428   4.993   8.604
 7811SOL    HW225273   9.563   4.981   8.535
 7812SOL     OW25274  12.698  11.510  14.224
 7812SOL    HW125275  12.744  11.578  14.175
 7812SOL    HW225276  12.621  11.491  14.171
 7813SOL     OW25277  10.451   3.877   5.877
 7813SOL    HW125278  10.363   3.838   5.877
 7813SOL    HW225279  10.460   3.917   5.791
 7814SOL     OW25280   9.541  11.170   4.648
 7814SOL    HW125281   9.487  11.219   4.586
 7814SOL    HW225282   9.586  11.238   4.699
 7815SOL     OW25283   9.923  11.650   8.411
 7815SOL    HW125284   9.833  11.677   8.433
 7815SOL    HW225285   9.912  11.571   8.359
 7816SOL     OW25286   8.120  11.467   2.498
 7816SOL    HW125287   8.138  11.389   2.549
 7816SOL    HW225288   8.046  11.443   2.442
 7817SOL     OW25289   2.862   5.024   4.679
 7817SOL    HW125290   2.935   4.974   4.642
 7817SOL    HW225291   2.834   4.972   4.754
 7818SOL     OW25292   5.663   2.706  10.742
 7818SOL    HW125293   5.684   2.789  10.785
 7818SOL    HW225294   5.570   2.692  10.763
 7819SOL     OW25295  12.228   6.001   7.625
 7819SOL    HW125296  12.298   5.937   7.619
 7819SOL    HW225297  12.156   5.963   7.575
 7820SOL     OW25298  14.585  11.726   5.109
 7820SOL    HW125299  14.566  11.801   5.164
 7820SOL    HW225300  14.504  11.674   5.109
 7821SOL     OW25301  14.854  13.078  13.877
 7821SOL    HW125302   0.039  13.145  13.854
 7821SOL    HW225303  14.771  13.113  13.844
 7822SOL     OW25304   1.436   7.447   4.418
 7822SOL    HW125305   1.521   7.457   4.375
 7822SOL    HW225306   1.440   7.507   4.493
 7823SOL     OW25307   1.247  13.197  13.087
 7823SOL    HW125308   1.324  13.172  13.139
 7823SOL    HW225309   1.283  13.229  13.005
 7824SOL     OW25310   7.840   3.260   8.580
 7824SOL    HW125311   7.750   3.261   8.548
 7824SOL    HW225312   7.852   3.346   8.620
 7825SOL     OW25313   1.768   8.322   1.165
 7825SOL    HW125314   1.745   8.413   1.146
 7825SOL    HW225315   1.808   8.290   1.084
 7826SOL     OW25316  12.857  12.700   9.332
 7826SOL    HW125317  12.822  12.768   9.275
 7826SOL    HW225318  12.949  12.692   9.306
 7827SOL     OW25319  11.960  12.501   6.179
 7827SOL    HW125320  11.883  12.524   6.231
 7827SOL    HW225321  11.930  12.430   6.122
 7828SOL     OW25322  12.797   6.709  13.803
 7828SOL    HW125323  12.765   6.725  13.715
 7828SOL    HW225324  12.755   6.776  13.857
 7829SOL     OW25325   3.586   1.420   5.404
 7829SOL    HW125326   3.539   1.492   5.446
 7829SOL    HW225327   3.662   1.460   5.364
 7830SOL     OW25328  12.448   4.897   8.283
 7830SOL    HW125329  12.504   4.963   8.244
 7830SOL    HW225330  12.503   4.818   8.288
 7831SOL     OW25331   3.396   6.640   5.507
 7831SOL    HW125332   3.367   6.560   5.552
 7831SOL    HW225333   3.450   6.608   5.434
 7832SOL     OW25334  12.626   0.348   0.594
 7832SOL    HW125335  12.686   0.405   0.545
 7832SOL    HW225336  12.679   0.315   0.667
 7833SOL     OW25337   7.220  12.434  11.798
 7833SOL    HW125338   7.144  12.490  11.783
 7833SOL    HW225339   7.184  12.355  11.839
 7834SOL     OW25340  13.977   3.802   1.281
 7834SOL    HW125341  14.011   3.841   1.200
 7834SOL    HW225342  13.889   3.839   1.290
 7835SOL     OW25343   9.112   1.566  11.887
 7835SOL    HW125344   9.028   1.554  11.842
 7835SOL    HW225345   9.170   1.601  11.819
 7836SOL     OW25346   5.237   6.501   3.942
 7836SOL    HW125347   5.147   6.517   3.915
 7836SOL    HW225348   5.288   6.511   3.861
 7837SOL     OW25349  11.888  11.545  11.136
 7837SOL    HW125350  11.842  11.546  11.051
 7837SOL    HW225351  11.946  11.621  11.132
 7838SOL     OW25352   9.421   9.294  11.957
 7838SOL    HW125353   9.377   9.210  11.968
 7838SOL    HW225354   9.456   9.291  11.868
 7839SOL     OW25355  10.863   9.988  14.680
 7839SOL    HW125356  10.956   9.968  14.685
 7839SOL    HW225357  10.821   9.905  14.660
 7840SOL     OW25358   0.040   9.631   7.978
 7840SOL    HW125359   0.111   9.666   7.924
 7840SOL    HW225360  14.865   9.707   7.999
 7841SOL     OW25361  10.026  13.735   0.668
 7841SOL    HW125362  10.016  13.716   0.761
 7841SOL    HW225363  10.086  13.809   0.665
 7842SOL     OW25364  12.621   3.986  14.230
 7842SOL    HW125365  12.554   3.962  14.294
 7842SOL    HW225366  12.625   4.081  14.234
 7843SOL     OW25367   7.318   9.418   3.887
 7843SOL    HW125368   7.337   9.449   3.799
 7843SOL    HW225369   7.385   9.457   3.942
 7844SOL     OW25370  10.740   9.573  10.929
 7844SOL    HW125371  10.701   9.486  10.929
 7844SOL    HW225372  10.825   9.562  10.887
 7845SOL     OW25373   0.761  11.449   1.213
 7845SOL    HW125374   0.685  11.474   1.266
 7845SOL    HW225375   0.728  11.449   1.123
 7846SOL     OW25376   3.324   3.128   4.068
 7846SOL    HW125377   3.364   3.121   4.155
 7846SOL    HW225378   3.390   3.091   4.008
 7847SOL     OW25379   1.193  13.127   7.866
 7847SOL    HW125380   1.272  13.096   7.822
 7847SOL    HW225381   1.215  13.127   7.959
 7848SOL     OW25382  11.340   0.957  11.076
 7848SOL    HW125383  11.311   0.871  11.046
 7848SOL    HW225384  11.381   0.996  11.000
 7849SOL     OW25385   9.477   4.752  13.370
 7849SOL    HW125386   9.491   4.832  13.420
 7849SOL    HW225387   9.478   4.780  13.278
 7850SOL     OW25388   4.220   6.785   0.526
 7850SOL    HW125389   4.309   6.811   0.549
 7850SOL    HW225390   4.175   6.776   0.610
 7851SOL     OW25391   4.743  12.684  12.341
 7851SOL    HW125392   4.816  12.669  12.281
 7851SOL    HW225393   4.748  12.611  12.404
 7852SOL     OW25394  14.561   0.489  10.026
 7852SOL    HW125395  14.640   0.544  10.025
 7852SOL    HW225396  14.587   0.409   9.980
 7853SOL     OW25397  10.886  12.520   2.491
 7853SOL    HW125398  10.890  12.571   2.572
 7853SOL    HW225399  10.819  12.564   2.438
 7854SOL     OW25400   0.227  13.413   3.910
 7854SOL    HW125401   0.230  13.486   3.848
 7854SOL    HW225402   0.305  13.361   3.889
 7855SOL     OW25403  11.515   3.018  11.070
 7855SOL    HW125404  11.508   2.923  11.082
 7855SOL    HW225405  11.553   3.029  10.983
 7856SOL     OW25406  10.068   2.949   9.051
 7856SOL    HW125407  10.018   2.916   9.125
 7856SOL    HW225408  10.038   3.040   9.041
 7857SOL     OW25409   9.605   3.667  10.215
 7857SOL    HW125410   9.560   3.587  10.242
 7857SOL    HW225411   9.572   3.685  10.127
 7858SOL     OW25412  11.129   7.525   5.281
 7858SOL    HW125413  11.183   7.535   5.203
 7858SOL    HW225414  11.166   7.450   5.327
 7859SOL     OW25415  13.128   0.086   4.196
 7859SOL    HW125416  13.105   0.100   4.288
 7859SOL    HW225417  13.217   0.121   4.188
 7860SOL     OW25418  10.788   5.094   8.348
 7860SOL    HW125419  10.775   5.000   8.351
 7860SOL    HW225420  10.796   5.114   8.254
 7861SOL     OW25421   8.751  11.393  10.525
 7861SOL    HW125422   8.706  11.326  10.475
 7861SOL    HW225423   8.781  11.456  10.459
 7862SOL     OW25424  11.787   5.714   8.125
 7862SOL    HW125425  11.866   5.670   8.092
 7862SOL    HW225426  11.813   5.746   8.212
 7863SOL     OW25427   0.527  12.292   6.904
 7863SOL    HW125428   0.451  12.245   6.869
 7863SOL    HW225429   0.602  12.235   6.884
 7864SOL     OW25430  12.776  11.728  11.632
 7864SOL    HW125431  12.777  11.663  11.562
 7864SOL    HW225432  12.742  11.808  11.590
 7865SOL     OW25433   3.683  13.585   0.203
 7865SOL    HW125434   3.664  13.595   0.110
 7865SOL    HW225435   3.776  13.605   0.211
 7866SOL     OW25436   8.360   5.958   5.654
 7866SOL    HW125437   8.412   5.947   5.734
 7866SOL    HW225438   8.367   6.051   5.634
 7867SOL     OW25439   7.373   3.618   5.237
 7867SOL    HW125440   7.420   3.535   5.227
 7867SOL    HW225441   7.435   3.675   5.282
 7868SOL     OW25442   7.701   6.390   5.542
 7868SOL    HW125443   7.607   6.372   5.541
 7868SOL    HW225444   7.711   6.472   5.494
 7869SOL     OW25445   5.526  11.327  10.943
 7869SOL    HW125446   5.592  11.276  10.896
 7869SOL    HW225447   5.549  11.316  11.035
 7870SOL     OW25448   1.872   6.382   2.549
 7870SOL    HW125449   1.803   6.356   2.488
 7870SOL    HW225450   1.826   6.428   2.620
 7871SOL     OW25451   3.980   4.847  13.441
 7871SOL    HW125452   3.982   4.942  13.442
 7871SOL    HW225453   3.889   4.824  13.420
 7872SOL     OW25454   2.680  12.380   4.418
 7872SOL    HW125455   2.764  12.398   4.459
 7872SOL    HW225456   2.655  12.461   4.375
 7873SOL     OW25457   2.813   0.703  14.100
 7873SOL    HW125458   2.834   0.746  14.017
 7873SOL    HW225459   2.836   0.768  14.167
 7874SOL     OW25460   9.049  14.745   9.294
 7874SOL    HW125461   8.985  14.816   9.285
 7874SOL    HW225462   9.133  14.789   9.306
 7875SOL     OW25463  12.470   8.865   9.839
 7875SOL    HW125464  12.529   8.803   9.796
 7875SOL    HW225465  12.384   8.843   9.805
 7876SOL     OW25466   2.275  12.578   3.889
 7876SOL    HW125467   2.302  12.669   3.904
 7876SOL    HW225468   2.335  12.547   3.821
 7877SOL     OW25469   2.618   5.694   8.627
 7877SOL    HW125470   2.601   5.632   8.698
 7877SOL    HW225471   2.547   5.758   8.633
 7878SOL     OW25472  10.906   8.563   5.166
 7878SOL    HW125473  10.925   8.476   5.133
 7878SOL    HW225474  10.920   8.621   5.091
 7879SOL     OW25475   1.924   6.360   5.983
 7879SOL    HW125476   1.831   6.357   5.961
 7879SOL    HW225477   1.943   6.454   5.991
 7880SOL     OW25478  13.352  10.657  14.299
 7880SOL    HW125479  13.350  10.700  14.385
 7880SOL    HW225480  13.263  10.622  14.288
 7881SOL     OW25481   6.028   2.166  13.414
 7881SOL    HW125482   6.038   2.116  13.496
 7881SOL    HW225483   6.099   2.231  13.417
 7882SOL     OW25484  13.261   5.587  12.335
 7882SOL    HW125485  13.242   5.536  12.414
 7882SOL    HW225486  13.346   5.555  12.306
 7883SOL     OW25487  10.050  14.226   4.651
 7883SOL    HW125488  10.103  14.156   4.687
 7883SOL    HW225489   9.960  14.201   4.672
 7884SOL     OW25490   7.699   5.900   4.410
 7884SOL    HW125491   7.640   5.972   4.431
 7884SOL    HW225492   7.787   5.935   4.422
 7885SOL     OW25493   2.284   3.541   0.631
 7885SOL    HW125494   2.284   3.583   0.717
 7885SOL    HW225495   2.361   3.484   0.632
 7886SOL     OW25496   1.852  10.956  12.102
 7886SOL    HW125497   1.771  10.916  12.073
 7886SOL    HW225498   1.901  10.884  12.142
 7887SOL     OW25499  13.054   1.738   7.280
 7887SOL    HW125500  13.106   1.784   7.215
 7887SOL    HW225501  13.087   1.768   7.364
 7888SOL     OW25502  13.929   4.988   8.835
 7888SOL    HW125503  13.856   5.046   8.818
 7888SOL    HW225504  13.994   5.009   8.768
 7889SOL     OW25505  11.204   5.521   9.003
 7889SOL    HW125506  11.137   5.464   8.965
 7889SOL    HW225507  11.227   5.479   9.086
 7890SOL     OW25508   0.573  12.268   4.651
 7890SOL    HW125509   0.576  12.245   4.744
 7890SOL    HW225510   0.479  12.269   4.630
 7891SOL     OW25511   0.380  11.057   3.363
 7891SOL    HW125512   0.320  11.021   3.429
 7891SOL    HW225513   0.417  11.135   3.404
 7892SOL     OW25514   4.513   6.571   3.327
 7892SOL    HW125515   4.444   6.634   3.305
 7892SOL    HW225516   4.507   6.504   3.258
 7893SOL     OW25517  14.123   9.548   2.212
 7893SOL    HW125518  14.082   9.577   2.293
 7893SOL    HW225519  14.107   9.454   2.209
 7894SOL     OW25520   9.867   8.434   7.716
 7894SOL    HW125521   9.807   8.450   7.643
 7894SOL    HW225522   9.865   8.514   7.768
 7895SOL     OW25523   5.846   2.878   9.907
 7895SOL    HW125524   5.895   2.923   9.839
 7895SOL    HW225525   5.913   2.838   9.963
 7896SOL     OW25526   4.182  10.491   6.401
 7896SOL    HW125527   4.208  10.575   6.438
 7896SOL    HW225528   4.263  10.441   6.396
 7897SOL     OW25529  13.848  12.559  11.000
 7897SOL    HW125530  13.785  12.509  10.947
 7897SOL    HW225531  13.854  12.511  11.082
 7898SOL     OW25532   8.811   1.814  11.019
 7898SOL    HW125533   8.849   1.867  10.949
 7898SOL    HW225534   8.821   1.868  11.097
 7899SOL     OW25535   1.933   8.585   2.305
 7899SOL    HW125536   1.969   8.671   2.282
 7899SOL    HW225537   1.857   8.575   2.247
 7900SOL     OW25538   2.429   5.151   8.406
 7900SOL    HW125539   2.395   5.230   8.364
 7900SOL    HW225540   2.517   5.176   8.436
 7901SOL     OW25541   2.644   8.638   1.689
 7901SOL    HW125542   2.695   8.693   1.748
 7901SOL    HW225543   2.595   8.699   1.634
 7902SOL     OW25544  14.530   0.916   2.510
 7902SOL    HW125545  14.603   0.978   2.508
 7902SOL    HW225546  14.490   0.929   2.596
 7903SOL     OW25547  14.228  14.061   7.477
 7903SOL    HW125548  14.270  14.067   7.391
 7903SOL    HW225549  14.217  14.153   7.504
 7904SOL     OW25550  11.098  13.576  12.784
 7904SOL    HW125551  11.153  13.609  12.855
 7904SOL    HW225552  11.152  13.586  12.705
 7905SOL     OW25553  13.467   2.843  10.008
 7905SOL    HW125554  13.463   2.929  10.049
 7905SOL    HW225555  13.438   2.858   9.917
 7906SOL     OW25556   3.439   2.529   4.281
 7906SOL    HW125557   3.348   2.557   4.283
 7906SOL    HW225558   3.445   2.472   4.204
 7907SOL     OW25559   4.948  13.442   2.625
 7907SOL    HW125560   4.894  13.447   2.547
 7907SOL    HW225561   4.925  13.520   2.676
 7908SOL     OW25562  12.689   4.823   1.281
 7908SOL    HW125563  12.718   4.887   1.216
 7908SOL    HW225564  12.608   4.860   1.317
 7909SOL     OW25565   4.159   5.702   9.235
 7909SOL    HW125566   4.211   5.658   9.302
 7909SOL    HW225567   4.106   5.765   9.284
 7910SOL     OW25568  10.203   2.597   3.588
 7910SOL    HW125569  10.194   2.502   3.582
 7910SOL    HW225570  10.130   2.631   3.537
 7911SOL     OW25571   5.350   1.604   4.022
 7911SOL    HW125572   5.378   1.607   4.113
 7911SOL    HW225573   5.296   1.683   4.011
 7912SOL     OW25574   8.935  11.641   6.749
 7912SOL    HW125575   8.988  11.599   6.681
 7912SOL    HW225576   8.888  11.711   6.703
 7913SOL     OW25577   5.372  12.449  11.380
 7913SOL    HW125578   5.358  12.524  11.438
 7913SOL    HW225579   5.284  12.417  11.360
 7914SOL     OW25580   6.349   2.568   9.579
 7914SOL    HW125581   6.259   2.592   9.599
 7914SOL    HW225582   6.358   2.580   9.485
 7915SOL     OW25583   2.797   6.277   9.951
 7915SOL    HW125584   2.884   6.238   9.945
 7915SOL    HW225585   2.813   6.371   9.951
 7916SOL     OW25586   2.209  11.293   0.037
 7916SOL    HW125587   2.153  11.311   0.113
 7916SOL    HW225588   2.255  11.212   0.059
 7917SOL     OW25589   1.227   1.479   1.547
 7917SOL    HW125590   1.155   1.455   1.489
 7917SOL    HW225591   1.220   1.417   1.620
 7918SOL     OW25592   0.659  13.211   6.542
 7918SOL    HW125593   0.669  13.261   6.461
 7918SOL    HW225594   0.745  13.173   6.558
 7919SOL     OW25595  14.121   5.465   7.146
 7919SOL    HW125596  14.075   5.535   7.192
 7919SOL    HW225597  14.052   5.403   7.121
 7920SOL     OW25598  13.882   5.265  12.199
 7920SOL    HW125599  13.882   5.341  12.258
 7920SOL    HW225600  13.961   5.276  12.146
 7921SOL     OW25601  10.969   0.442   4.482
 7921SOL    HW125602  10.995   0.421   4.572
 7921SOL    HW225603  10.910   0.517   4.492
 7922SOL     OW25604   4.092   7.416  12.680
 7922SOL    HW125605   4.132   7.425  12.767
 7922SOL    HW225606   4.058   7.327  12.678
 7923SOL     OW25607   5.365   8.717  12.245
 7923SOL    HW125608   5.318   8.657  12.303
 7923SOL    HW225609   5.426   8.764  12.302
 7924SOL     OW25610   5.983  13.558  11.756
 7924SOL    HW125611   5.996  13.628  11.820
 7924SOL    HW225612   5.896  13.524  11.776
 7925SOL     OW25613   5.619   2.106  14.765
 7925SOL    HW125614   5.607   2.187  14.717
 7925SOL    HW225615   5.560   2.043  14.723
 7926SOL     OW25616   5.990   7.925   6.671
 7926SOL    HW125617   6.037   7.906   6.591
 7926SOL    HW225618   6.057   7.958   6.731
 7927SOL     OW25619   8.619   9.074  10.172
 7927SOL    HW125620   8.703   9.120  10.172
 7927SOL    HW225621   8.637   8.990  10.130
 7928SOL     OW25622  10.859   5.002   4.432
 7928SOL    HW125623  10.896   4.945   4.499
 7928SOL    HW225624  10.890   5.089   4.455
 7929SOL     OW25625  14.467   1.210   5.595
 7929SOL    HW125626  14.498   1.287   5.644
 7929SOL    HW225627  14.460   1.141   5.661
 7930SOL     OW25628  14.212  14.311  14.722
 7930SOL    HW125629  14.188  14.279  14.809
 7930SOL    HW225630  14.304  14.283  14.711
 7931SOL     OW25631  13.243   5.242  13.568
 7931SOL    HW125632  13.272   5.197  13.647
 7931SOL    HW225633  13.290   5.325  13.569
 7932SOL     OW25634   8.533   5.289   7.100
 7932SOL    HW125635   8.531   5.234   7.178
 7932SOL    HW225636   8.549   5.228   7.028
 7933SOL     OW25637  11.409   6.827   6.441
 7933SOL    HW125638  11.438   6.799   6.528
 7933SOL    HW225639  11.462   6.904   6.422
 7934SOL     OW25640   5.682   0.307   4.923
 7934SOL    HW125641   5.723   0.221   4.927
 7934SOL    HW225642   5.593   0.289   4.891
 7935SOL     OW25643  11.554   0.359   9.149
 7935SOL    HW125644  11.597   0.441   9.172
 7935SOL    HW225645  11.623   0.294   9.150
 7936SOL     OW25646  10.867   4.810   3.368
 7936SOL    HW125647  10.938   4.794   3.429
 7936SOL    HW225648  10.893   4.890   3.321
 7937SOL     OW25649   1.964   8.022   6.843
 7937SOL    HW125650   2.057   7.999   6.851
 7937SOL    HW225651   1.964   8.116   6.827
 7938SOL     OW25652   4.930   5.760   8.097
 7938SOL    HW125653   4.975   5.767   8.012
 7938SOL    HW225654   4.865   5.691   8.083
 7939SOL     OW25655   6.833  14.461   5.414
 7939SOL    HW125656   6.927  14.447   5.404
 7939SOL    HW225657   6.793  14.385   5.371
 7940SOL     OW25658   7.759  13.854   7.088
 7940SOL    HW125659   7.762  13.801   7.167
 7940SOL    HW225660   7.794  13.798   7.019
 7941SOL     OW25661   8.449  12.607   8.609
 7941SOL    HW125662   8.408  12.664   8.674
 7941SOL    HW225663   8.387  12.535   8.597
 7942SOL     OW25664   4.112   9.771   6.037
 7942SOL    HW125665   4.152   9.835   5.979
 7942SOL    HW225666   4.091   9.820   6.117
 7943SOL     OW25667   1.982   6.677   2.699
 7943SOL    HW125668   1.947   6.753   2.745
 7943SOL    HW225669   1.935   6.602   2.737
 7944SOL     OW25670  11.732   4.823  11.001
 7944SOL    HW125671  11.678   4.769  11.059
 7944SOL    HW225672  11.814   4.835  11.049
 7945SOL     OW25673  11.383   6.845   2.234
 7945SOL    HW125674  11.294   6.861   2.266
 7945SOL    HW225675  11.372   6.786   2.160
 7946SOL     OW25676  13.625  11.969  10.014
 7946SOL    HW125677  13.569  12.031  10.061
 7946SOL    HW225678  13.565  11.917   9.960
 7947SOL     OW25679   2.813  10.343   8.825
 7947SOL    HW125680   2.834  10.335   8.732
 7947SOL    HW225681   2.770  10.428   8.832
 7948SOL     OW25682   1.885  10.544   8.881
 7948SOL    HW125683   1.796  10.558   8.911
 7948SOL    HW225684   1.913  10.629   8.848
 7949SOL     OW25685   5.054  14.567  13.494
 7949SOL    HW125686   5.058  14.593  13.402
 7949SOL    HW225687   5.129  14.507  13.505
 7950SOL     OW25688  12.617   8.708   1.874
 7950SOL    HW125689  12.603   8.626   1.827
 7950SOL    HW225690  12.596   8.776   1.810
 7951SOL     OW25691  10.568   2.473   2.716
 7951SOL    HW125692  10.479   2.453   2.745
 7951SOL    HW225693  10.621   2.401   2.749
 7952NA      NA25694  10.143   8.021   3.407
 7953NA      NA25695   8.068   0.424   5.977
 7954NA      NA25696  12.032   9.011   3.205
 7955NA      NA25697   1.578   4.513  13.133
 7956NA      NA25698  11.816   4.077   5.099
 7957NA      NA25699   4.059   6.368   3.948
 7958NA      NA25700  12.044   7.606   2.201
 7959NA      NA25701   7.491  10.672   7.186
 7960NA      NA25702   5.493  10.453   7.961
 7961NA      NA25703   5.396   8.752  11.300
 7962NA      NA25704   8.989   1.951   3.282
 7963NA      NA25705   9.244   6.884   4.569
 7964NA      NA25706   5.296  11.151   6.819
 7965NA      NA25707  10.613   5.993   3.703
 7966NA      NA25708   8.668   9.454   6.216
 7967NA      NA25709   5.157   9.082   6.099
 7968NA      NA25710   9.098   7.366   2.400
 7969NA      NA25711   8.449   9.141  10.314
 7970NA      NA25712  11.589   8.321   2.227
 7971NA      NA25713   8.726   6.110   3.556
 7972NA      NA25714   6.525  12.626   4.542
 7973NA      NA25715   6.007   9.579   6.620
 7974NA      NA25716  13.276   8.717   8.507
 7975NA      NA25717   4.985   1.718   9.429
 7976NA      NA25718   8.825   9.928   5.104
 7977NA      NA25719   7.830   9.519   5.614
 7978NA      NA25720  12.793   6.544   4.063
 7979NA      NA25721   0.905   4.092  12.070
 7980NA      NA25722   8.295   8.429   6.043
 7981NA      NA25723   7.012  10.227   5.489
 7982NA      NA25724  10.744   6.823   2.516
 7983NA      NA25725  12.680   6.445   3.356
 7984NA      NA25726  13.812   9.599   4.540
 7985NA      NA25727   7.502   9.058   7.586
 7986NA      NA25728   9.387   8.924   1.462
 7987NA      NA25729  11.562   3.008   7.935
 7988NA      NA25730   7.191   9.028   6.487
 7989NA      NA25731   5.295  12.001   8.365
 7990NA      NA25732   8.897   7.772   5.674
 7991NA      NA25733   7.827   7.637   6.418
 7992NA      NA25734  12.742   7.034  14.536
 7993NA      NA25735  12.752  13.463   1.510
 7994NA      NA25736  12.378   8.150   5.334
 7995NA      NA25737   7.487   9.070   4.110
 7996NA      NA25738   8.824   0.309  10.711
 7997NA      NA25739   5.237   3.006  14.582
 7998NA      NA25740   9.843   8.653   5.370
 7999NA      NA25741   9.065   6.824   3.772
 8000NA      NA25742   5.331  13.230   2.290
 8001NA      NA25743  10.509   8.759   6.978
 8002NA      NA25744   8.167   6.877   4.359
 8003NA      NA25745   4.344  12.766  12.150
 8004NA      NA25746  12.015   6.725   5.323
 8005NA      NA25747   8.175   9.876   6.990
 8006NA      NA25748  11.976   6.698   3.035
 8007NA      NA25749  10.223   7.166   4.219
 8008NA      NA25750  10.324   5.303   2.868
 8009NA      NA25751   8.164   7.381   4.026
 8010NA      NA25752   9.978   0.217   6.828
 8011NA      NA25753   7.140   8.598   4.919
 8012NA      NA25754   2.659   6.163   9.807
 8013NA      NA25755   5.552   7.300   4.183
  14.87925  14.87925  14.87925
